Protein in water t=   0.00000 step= 0
325731
    1DC5    H5T    1   5.627   6.607   5.554
    1DC5    O5'    2   5.715   6.647   5.537
    1DC5    C5'    3   5.745   6.754   5.630
    1DC5   H5'1    4   5.843   6.723   5.660
    1DC5   H5'2    5   5.666   6.758   5.705
    1DC5    C4'    6   5.771   6.894   5.557
    1DC5    H4'    7   5.842   6.880   5.475
    1DC5    O4'    8   5.647   6.953   5.518
    1DC5    C1'    9   5.633   7.071   5.589
    1DC5    H1'   10   5.690   7.133   5.517
    1DC5     N1   11   5.494   7.127   5.611
    1DC5     C6   12   5.407   7.064   5.697
    1DC5     H6   13   5.441   6.980   5.763
    1DC5     C5   14   5.279   7.113   5.714
    1DC5     H5   15   5.208   7.071   5.781
    1DC5     C4   16   5.245   7.226   5.637
    1DC5     N4   17   5.128   7.280   5.655
    1DC5    H41   18   5.093   7.363   5.611
    1DC5    H42   19   5.054   7.229   5.707
    1DC5     N3   20   5.325   7.289   5.556
    1DC5     C2   21   5.451   7.242   5.544
    1DC5     O2   22   5.531   7.291   5.467
    1DC5    C3'   23   5.839   6.989   5.658
    1DC5    H3'   24   5.893   6.936   5.732
    1DC5    C2'   25   5.720   7.067   5.708
    1DC5   H2'1   26   5.677   7.015   5.787
    1DC5   H2'2   27   5.750   7.169   5.740
    1DC5    O3'   28   5.923   7.083   5.593
    2DG       P   29   6.029   7.174   5.671
    2DG     O1P   30   6.157   7.143   5.601
    2DG     O2P   31   6.035   7.160   5.821
    2DG     O5'   32   5.978   7.317   5.639
    2DG     C5'   33   5.996   7.372   5.509
    2DG    H5'1   34   5.928   7.320   5.435
    2DG    H5'2   35   6.107   7.356   5.487
    2DG     C4'   36   5.973   7.524   5.507
    2DG     H4'   37   5.999   7.566   5.406
    2DG     O4'   38   5.839   7.556   5.527
    2DG     C1'   39   5.828   7.630   5.639
    2DG     H1'   40   5.816   7.735   5.619
    2DG      N9   41   5.700   7.588   5.707
    2DG      C8   42   5.669   7.461   5.751
    2DG      H8   43   5.744   7.389   5.742
    2DG      N7   44   5.548   7.438   5.800
    2DG      C5   45   5.493   7.568   5.784
    2DG      C6   46   5.359   7.620   5.821
    2DG      O6   47   5.267   7.560   5.869
    2DG      N1   48   5.347   7.756   5.790
    2DG      H1   49   5.260   7.791   5.809
    2DG      C2   50   5.451   7.842   5.753
    2DG      N2   51   5.430   7.966   5.733
    2DG     H21   52   5.344   8.004   5.749
    2DG     H22   53   5.504   8.020   5.696
    2DG      N3   54   5.572   7.790   5.724
    2DG      C4   55   5.586   7.656   5.737
    2DG     C3'   56   6.055   7.594   5.611
    2DG     H3'   57   6.137   7.535   5.640
    2DG     C2'   58   5.949   7.618   5.724
    2DG    H2'1   59   5.942   7.516   5.770
    2DG    H2'2   60   5.969   7.704   5.795
    2DG     O3'   61   6.104   7.722   5.560
    3DC       P   62   6.221   7.797   5.643
    3DC     O1P   63   6.297   7.879   5.551
    3DC     O2P   64   6.298   7.699   5.726
    3DC     O5'   65   6.143   7.887   5.752
    3DC     C5'   66   6.059   7.995   5.707
    3DC    H5'1   67   6.012   7.969   5.610
    3DC    H5'2   68   6.125   8.081   5.688
    3DC     C4'   69   5.948   8.039   5.803
    3DC     H4'   70   5.886   8.121   5.766
    3DC     O4'   71   5.865   7.930   5.832
    3DC     C1'   72   5.820   7.950   5.963
    3DC     H1'   73   5.762   8.045   5.956
    3DC      N1   74   5.730   7.838   6.009
    3DC      C6   75   5.775   7.710   6.031
    3DC      H6   76   5.877   7.687   6.010
    3DC      C5   77   5.697   7.613   6.091
    3DC      H5   78   5.745   7.519   6.122
    3DC      C4   79   5.561   7.646   6.120
    3DC      N4   80   5.474   7.554   6.158
    3DC     H41   81   5.373   7.586   6.156
    3DC     H42   82   5.483   7.456   6.133
    3DC      N3   83   5.508   7.760   6.085
    3DC      C2   84   5.591   7.857   6.035
    3DC      O2   85   5.540   7.966   6.014
    3DC     C3'   86   5.998   8.076   5.942
    3DC     H3'   87   6.110   8.084   5.938
    3DC     C2'   88   5.949   7.969   6.036
    3DC    H2'1   89   6.010   7.881   6.038
    3DC    H2'2   90   5.930   8.013   6.129
    3DC     O3'   91   5.940   8.202   5.980
    4DA       P   92   6.031   8.314   6.046
    4DA     O1P   93   6.104   8.373   5.936
    4DA     O2P   94   6.102   8.256   6.164
    4DA     O5'   95   5.934   8.418   6.104
    4DA     C5'   96   5.847   8.506   6.026
    4DA    H5'1   97   5.805   8.441   5.952
    4DA    H5'2   98   5.911   8.577   5.974
    4DA     C4'   99   5.744   8.578   6.112
    4DA     H4'  100   5.704   8.664   6.053
    4DA     O4'  101   5.643   8.487   6.147
    4DA     C1'  102   5.653   8.455   6.285
    4DA     H1'  103   5.570   8.486   6.343
    4DA      N9  104   5.663   8.303   6.286
    4DA      C8  105   5.769   8.211   6.273
    4DA      H8  106   5.872   8.239   6.255
    4DA      N7  107   5.747   8.083   6.301
    4DA      C5  108   5.611   8.090   6.341
    4DA      C6  109   5.510   7.997   6.384
    4DA      N6  110   5.517   7.865   6.386
    4DA     H61  111   5.436   7.824   6.429
    4DA     H62  112   5.600   7.811   6.358
    4DA      N1  113   5.394   8.047   6.431
    4DA      C2  114   5.363   8.175   6.415
    4DA      H2  115   5.272   8.206   6.465
    4DA      N3  116   5.442   8.271   6.366
    4DA      C4  117   5.564   8.223   6.326
    4DA     C3'  118   5.801   8.636   6.240
    4DA     H3'  119   5.906   8.663   6.215
    4DA     C2'  120   5.780   8.519   6.334
    4DA    H2'1  121   5.861   8.443   6.345
    4DA    H2'2  122   5.755   8.557   6.429
    4DA     O3'  123   5.723   8.748   6.272
    5DT       P  124   5.744   8.840   6.399
    5DT     O1P  125   5.694   8.974   6.357
    5DT     O2P  126   5.879   8.834   6.459
    5DT     O5'  127   5.642   8.783   6.501
    5DT     C5'  128   5.503   8.799   6.485
    5DT    H5'1  129   5.464   8.760   6.390
    5DT    H5'2  130   5.481   8.905   6.492
    5DT     C4'  131   5.435   8.727   6.601
    5DT     H4'  132   5.331   8.747   6.601
    5DT     O4'  133   5.452   8.585   6.579
    5DT     C1'  134   5.460   8.520   6.704
    5DT     H1'  135   5.362   8.512   6.743
    5DT      N1  136   5.533   8.391   6.696
    5DT      C6  137   5.667   8.381   6.657
    5DT      H6  138   5.722   8.463   6.613
    5DT      C5  139   5.726   8.256   6.658
    5DT      C7  140   5.874   8.236   6.616
    5DT     H71  141   5.918   8.309   6.558
    5DT     H72  142   5.928   8.238   6.705
    5DT     H73  143   5.882   8.141   6.561
    5DT      C4  144   5.652   8.137   6.713
    5DT      O4  145   5.696   8.023   6.708
    5DT      N3  146   5.526   8.156   6.741
    5DT      H3  147   5.465   8.074   6.750
    5DT      C2  148   5.459   8.275   6.738
    5DT      O2  149   5.334   8.270   6.761
    5DT     C3'  150   5.480   8.759   6.745
    5DT     H3'  151   5.567   8.824   6.758
    5DT     C2'  152   5.527   8.619   6.799
    5DT    H2'1  153   5.638   8.608   6.786
    5DT    H2'2  154   5.501   8.611   6.902
    5DT     O3'  155   5.366   8.817   6.808
    6DG       P  156   5.363   8.856   6.961
    6DG     O1P  157   5.261   8.959   6.977
    6DG     O2P  158   5.504   8.879   7.010
    6DG     O5'  159   5.309   8.723   7.023
    6DG     C5'  160   5.180   8.658   7.001
    6DG    H5'1  161   5.166   8.640   6.896
    6DG    H5'2  162   5.102   8.728   7.034
    6DG     C4'  163   5.175   8.528   7.074
    6DG     H4'  164   5.082   8.480   7.058
    6DG     O4'  165   5.282   8.439   7.035
    6DG     C1'  166   5.305   8.353   7.143
    6DG     H1'  167   5.227   8.275   7.148
    6DG      N9  168   5.434   8.291   7.116
    6DG      C8  169   5.543   8.360   7.076
    6DG      H8  170   5.545   8.473   7.082
    6DG      N7  171   5.643   8.282   7.051
    6DG      C5  172   5.587   8.153   7.065
    6DG      C6  173   5.652   8.026   7.041
    6DG      O6  174   5.771   8.002   7.005
    6DG      N1  175   5.575   7.915   7.076
    6DG      H1  176   5.620   7.823   7.064
    6DG      C2  177   5.442   7.926   7.120
    6DG      N2  178   5.385   7.827   7.175
    6DG     H21  179   5.442   7.745   7.180
    6DG     H22  180   5.291   7.839   7.214
    6DG      N3  181   5.386   8.042   7.147
    6DG      C4  182   5.462   8.154   7.115
    6DG     C3'  183   5.192   8.539   7.227
    6DG     H3'  184   5.223   8.635   7.257
    6DG     C2'  185   5.303   8.445   7.259
    6DG    H2'1  186   5.404   8.495   7.257
    6DG    H2'2  187   5.287   8.408   7.359
    6DG     O3'  188   5.064   8.508   7.285
    7DT       P  189   5.037   8.488   7.440
    7DT     O1P  190   4.891   8.486   7.460
    7DT     O2P  191   5.129   8.569   7.523
    7DT     O5'  192   5.077   8.342   7.489
    7DT     C5'  193   4.997   8.231   7.448
    7DT    H5'1  194   5.011   8.216   7.340
    7DT    H5'2  195   4.894   8.255   7.450
    7DT     C4'  196   5.028   8.095   7.518
    7DT     H4'  197   4.943   8.024   7.496
    7DT     O4'  198   5.148   8.025   7.463
    7DT     C1'  199   5.243   8.002   7.571
    7DT     H1'  200   5.237   7.894   7.611
    7DT      N1  201   5.384   8.035   7.526
    7DT      C6  202   5.428   8.162   7.499
    7DT      H6  203   5.374   8.248   7.541
    7DT      C5  204   5.552   8.188   7.451
    7DT      C7  205   5.608   8.334   7.441
    7DT     H71  206   5.695   8.337   7.382
    7DT     H72  207   5.532   8.393   7.395
    7DT     H73  208   5.624   8.375   7.542
    7DT      C4  209   5.630   8.078   7.407
    7DT      O4  210   5.741   8.093   7.359
    7DT      N3  211   5.586   7.950   7.429
    7DT      H3  212   5.628   7.866   7.401
    7DT      C2  213   5.459   7.929   7.487
    7DT      O2  214   5.424   7.812   7.509
    7DT     C3'  215   5.038   8.106   7.671
    7DT     H3'  216   5.002   8.201   7.707
    7DT     C2'  217   5.194   8.089   7.686
    7DT    H2'1  218   5.229   8.191   7.678
    7DT    H2'2  219   5.213   8.039   7.780
    7DT     O3'  220   4.967   7.997   7.740
    8DG       P  221   4.937   8.017   7.897
    8DG     O1P  222   4.790   7.975   7.907
    8DG     O2P  223   4.973   8.159   7.931
    8DG     O5'  224   5.027   7.917   7.984
    8DG     C5'  225   5.048   7.775   7.955
    8DG    H5'1  226   5.041   7.768   7.853
    8DG    H5'2  227   4.973   7.714   8.006
    8DG     C4'  228   5.186   7.727   7.993
    8DG     H4'  229   5.187   7.611   7.982
    8DG     O4'  230   5.281   7.787   7.906
    8DG     C1'  231   5.393   7.807   7.987
    8DG     H1'  232   5.446   7.714   8.009
    8DG      N9  233   5.486   7.902   7.913
    8DG      C8  234   5.468   8.036   7.896
    8DG      H8  235   5.384   8.094   7.934
    8DG      N7  236   5.577   8.091   7.842
    8DG      C5  237   5.657   7.984   7.808
    8DG      C6  238   5.794   7.980   7.756
    8DG      O6  239   5.872   8.066   7.721
    8DG      N1  240   5.843   7.853   7.739
    8DG      H1  241   5.924   7.854   7.681
    8DG      C2  242   5.775   7.741   7.777
    8DG      N2  243   5.841   7.636   7.747
    8DG     H21  244   5.938   7.653   7.720
    8DG     H22  245   5.804   7.549   7.778
    8DG      N3  246   5.655   7.738   7.828
    8DG      C4  247   5.601   7.864   7.846
    8DG     C3'  248   5.224   7.766   8.135
    8DG     H3'  249   5.141   7.807   8.196
    8DG     C2'  250   5.330   7.862   8.113
    8DG    H2'1  251   5.285   7.958   8.082
    8DG    H2'2  252   5.389   7.871   8.200
    8DG     O3'  253   5.279   7.648   8.182
    9DC       P  254   5.234   7.596   8.326
    9DC     O1P  255   5.099   7.549   8.309
    9DC     O2P  256   5.256   7.711   8.422
    9DC     O5'  257   5.330   7.477   8.359
    9DC     C5'  258   5.321   7.350   8.293
    9DC    H5'1  259   5.265   7.354   8.197
    9DC    H5'2  260   5.270   7.278   8.364
    9DC     C4'  261   5.456   7.292   8.255
    9DC     H4'  262   5.437   7.200   8.200
    9DC     O4'  263   5.521   7.383   8.170
    9DC     C1'  264   5.656   7.416   8.217
    9DC     H1'  265   5.723   7.342   8.177
    9DC      N1  266   5.694   7.556   8.188
    9DC      C6  267   5.615   7.659   8.221
    9DC      H6  268   5.508   7.643   8.256
    9DC      C5  269   5.662   7.788   8.213
    9DC      H5  270   5.603   7.864   8.263
    9DC      C4  271   5.796   7.800   8.158
    9DC      N4  272   5.853   7.913   8.140
    9DC     H41  273   5.933   7.911   8.078
    9DC     H42  274   5.809   7.997   8.167
    9DC      N3  275   5.863   7.702   8.108
    9DC      C2  276   5.813   7.578   8.116
    9DC      O2  277   5.874   7.486   8.058
    9DC     C3'  278   5.549   7.275   8.375
    9DC     H3'  279   5.490   7.282   8.475
    9DC     C2'  280   5.646   7.393   8.365
    9DC    H2'1  281   5.595   7.477   8.408
    9DC    H2'2  282   5.739   7.377   8.423
    9DC     O3'  283   5.603   7.143   8.366
   10DG       P  284   5.745   7.095   8.425
   10DG     O1P  285   5.748   6.945   8.417
   10DG     O2P  286   5.755   7.162   8.557
   10DG     O5'  287   5.858   7.147   8.327
   10DG     C5'  288   5.902   7.073   8.208
   10DG    H5'1  289   5.858   6.968   8.207
   10DG    H5'2  290   5.862   7.118   8.114
   10DG     C4'  291   6.055   7.069   8.200
   10DG     H4'  292   6.097   7.006   8.115
   10DG     O4'  293   6.102   7.203   8.177
   10DG     C1'  294   6.182   7.250   8.287
   10DG     H1'  295   6.288   7.246   8.254
   10DG      N9  296   6.137   7.385   8.321
   10DG      C8  297   6.010   7.419   8.365
   10DG      H8  298   5.943   7.337   8.394
   10DG      N7  299   5.993   7.548   8.359
   10DG      C5  300   6.119   7.600   8.321
   10DG      C6  301   6.172   7.733   8.310
   10DG      O6  302   6.115   7.845   8.310
   10DG      N1  303   6.305   7.745   8.278
   10DG      H1  304   6.341   7.839   8.277
   10DG      C2  305   6.385   7.633   8.271
   10DG      N2  306   6.507   7.658   8.238
   10DG     H21  307   6.538   7.753   8.218
   10DG     H22  308   6.569   7.578   8.258
   10DG      N3  309   6.345   7.508   8.278
   10DG      C4  310   6.209   7.496   8.301
   10DG     C3'  311   6.120   7.025   8.333
   10DG     H3'  312   6.042   6.973   8.391
   10DG     C2'  313   6.164   7.154   8.405
   10DG    H2'1  314   6.081   7.192   8.479
   10DG    H2'2  315   6.256   7.136   8.456
   10DG     O3'  316   6.234   6.939   8.306
   11DT       P  317   6.302   6.851   8.416
   11DT     O1P  318   6.364   6.733   8.350
   11DT     O2P  319   6.202   6.826   8.524
   11DT     O5'  320   6.430   6.941   8.454
   11DT     C5'  321   6.522   6.989   8.353
   11DT    H5'1  322   6.469   7.030   8.270
   11DT    H5'2  323   6.595   6.912   8.330
   11DT     C4'  324   6.600   7.102   8.409
   11DT     H4'  325   6.682   7.129   8.342
   11DT     O4'  326   6.512   7.214   8.433
   11DT     C1'  327   6.533   7.269   8.558
   11DT     H1'  328   6.627   7.322   8.567
   11DT      N1  329   6.426   7.358   8.613
   11DT      C6  330   6.316   7.304   8.677
   11DT      H6  331   6.310   7.197   8.690
   11DT      C5  332   6.206   7.382   8.710
   11DT      C7  333   6.101   7.309   8.803
   11DT     H71  334   6.008   7.286   8.748
   11DT     H72  335   6.145   7.224   8.852
   11DT     H73  336   6.056   7.379   8.877
   11DT      C4  337   6.207   7.523   8.675
   11DT      O4  338   6.113   7.601   8.681
   11DT      N3  339   6.317   7.568   8.604
   11DT      H3  340   6.316   7.665   8.584
   11DT      C2  341   6.437   7.500   8.587
   11DT      O2  342   6.538   7.548   8.544
   11DT     C3'  343   6.660   7.064   8.547
   11DT     H3'  344   6.665   6.956   8.544
   11DT     C2'  345   6.570   7.138   8.638
   11DT    H2'1  346   6.483   7.074   8.652
   11DT    H2'2  347   6.615   7.159   8.730
   11DT     O3'  348   6.794   7.113   8.558
   12DA       P  349   6.917   7.018   8.592
   12DA     O1P  350   6.940   6.933   8.474
   12DA     O2P  351   6.890   6.959   8.727
   12DA     O5'  352   7.044   7.109   8.601
   12DA     C5'  353   7.075   7.194   8.494
   12DA    H5'1  354   7.014   7.170   8.408
   12DA    H5'2  355   7.173   7.159   8.459
   12DA     C4'  356   7.086   7.348   8.522
   12DA     H4'  357   7.130   7.405   8.434
   12DA     O4'  358   6.963   7.406   8.551
   12DA     C1'  359   6.973   7.462   8.678
   12DA     H1'  360   7.012   7.567   8.660
   12DA      N9  361   6.834   7.472   8.735
   12DA      C8  362   6.762   7.369   8.799
   12DA      H8  363   6.807   7.269   8.803
   12DA      N7  364   6.648   7.401   8.848
   12DA      C5  365   6.648   7.540   8.829
   12DA      C6  366   6.563   7.651   8.857
   12DA      N6  367   6.459   7.642   8.928
   12DA     H61  368   6.396   7.720   8.931
   12DA     H62  369   6.432   7.552   8.968
   12DA      N1  370   6.588   7.776   8.820
   12DA      C2  371   6.703   7.798   8.751
   12DA      H2  372   6.728   7.900   8.725
   12DA      N3  373   6.793   7.706   8.717
   12DA      C4  374   6.752   7.580   8.750
   12DA     C3'  375   7.174   7.386   8.641
   12DA     H3'  376   7.248   7.311   8.658
   12DA     C2'  377   7.076   7.387   8.756
   12DA    H2'1  378   7.039   7.292   8.777
   12DA    H2'2  379   7.101   7.446   8.842
   12DA     O3'  380   7.240   7.507   8.618
   13DT       P  381   7.318   7.595   8.719
   13DT     O1P  382   7.421   7.659   8.634
   13DT     O2P  383   7.364   7.515   8.838
   13DT     O5'  384   7.215   7.701   8.763
   13DT     C5'  385   7.168   7.799   8.671
   13DT    H5'1  386   7.074   7.767   8.626
   13DT    H5'2  387   7.241   7.812   8.589
   13DT     C4'  388   7.153   7.943   8.718
   13DT     H4'  389   7.144   8.021   8.633
   13DT     O4'  390   7.030   7.954   8.786
   13DT     C1'  391   7.057   7.974   8.925
   13DT     H1'  392   7.035   8.073   8.951
   13DT      N1  393   6.969   7.880   9.004
   13DT      C6  394   6.998   7.742   9.010
   13DT      H6  395   7.088   7.702   8.962
   13DT      C5  396   6.911   7.662   9.081
   13DT      C7  397   6.930   7.519   9.093
   13DT     H71  398   7.023   7.499   9.041
   13DT     H72  399   6.938   7.502   9.200
   13DT     H73  400   6.844   7.457   9.055
   13DT      C4  401   6.793   7.721   9.154
   13DT      O4  402   6.704   7.666   9.215
   13DT      N3  403   6.778   7.860   9.143
   13DT      H3  404   6.692   7.904   9.178
   13DT      C2  405   6.855   7.938   9.062
   13DT      O2  406   6.810   8.048   9.030
   13DT     C3'  407   7.277   7.982   8.806
   13DT     H3'  408   7.372   7.926   8.790
   13DT     C2'  409   7.209   7.948   8.944
   13DT    H2'1  410   7.231   7.841   8.968
   13DT    H2'2  411   7.250   8.005   9.024
   13DT     O3'  412   7.315   8.114   8.787
   14DT       P  413   7.378   8.207   8.889
   14DT     O1P  414   7.440   8.328   8.826
   14DT     O2P  415   7.467   8.133   8.975
   14DT     O5'  416   7.264   8.256   8.984
   14DT     C5'  417   7.158   8.345   8.938
   14DT    H5'1  418   7.092   8.292   8.870
   14DT    H5'2  419   7.194   8.427   8.879
   14DT     C4'  420   7.062   8.407   9.044
   14DT     H4'  421   7.000   8.473   8.985
   14DT     O4'  422   6.978   8.310   9.106
   14DT     C1'  423   6.995   8.323   9.239
   14DT     H1'  424   6.910   8.374   9.280
   14DT      N1  425   7.005   8.187   9.312
   14DT      C6  426   7.106   8.094   9.300
   14DT      H6  427   7.195   8.131   9.251
   14DT      C5  428   7.088   7.961   9.340
   14DT      C7  429   7.206   7.868   9.315
   14DT     H71  430   7.222   7.819   9.415
   14DT     H72  431   7.196   7.784   9.239
   14DT     H73  432   7.290   7.935   9.301
   14DT      C4  433   6.970   7.917   9.402
   14DT      O4  434   6.945   7.803   9.443
   14DT      N3  435   6.886   8.018   9.425
   14DT      H3  436   6.816   7.997   9.495
   14DT      C2  437   6.895   8.157   9.390
   14DT      O2  438   6.806   8.235   9.426
   14DT     C3'  439   7.135   8.489   9.145
   14DT     H3'  440   7.246   8.501   9.118
   14DT     C2'  441   7.122   8.405   9.262
   14DT    H2'1  442   7.213   8.344   9.275
   14DT    H2'2  443   7.108   8.460   9.352
   14DT     O3'  444   7.089   8.629   9.159
   15DA       P  445   7.158   8.731   9.271
   15DA     O1P  446   7.118   8.867   9.238
   15DA     O2P  447   7.304   8.688   9.288
   15DA     O5'  448   7.095   8.701   9.407
   15DA     C5'  449   6.952   8.703   9.427
   15DA    H5'1  450   6.910   8.641   9.343
   15DA    H5'2  451   6.909   8.806   9.422
   15DA     C4'  452   6.918   8.632   9.561
   15DA     H4'  453   6.813   8.648   9.573
   15DA     O4'  454   6.946   8.501   9.546
   15DA     C1'  455   6.997   8.459   9.670
   15DA     H1'  456   6.908   8.446   9.730
   15DA      N9  457   7.067   8.333   9.660
   15DA      C8  458   7.196   8.307   9.622
   15DA      H8  459   7.253   8.389   9.577
   15DA      N7  460   7.236   8.185   9.632
   15DA      C5  461   7.121   8.123   9.688
   15DA      C6  462   7.082   7.986   9.721
   15DA      N6  463   7.162   7.883   9.722
   15DA     H61  464   7.124   7.795   9.742
   15DA     H62  465   7.247   7.893   9.674
   15DA      N1  466   6.955   7.958   9.768
   15DA      C2  467   6.870   8.064   9.763
   15DA      H2  468   6.769   8.040   9.793
   15DA      N3  469   6.895   8.190   9.738
   15DA      C4  470   7.016   8.213   9.699
   15DA     C3'  471   6.994   8.686   9.683
   15DA     H3'  472   7.053   8.776   9.660
   15DA     C2'  473   7.087   8.576   9.720
   15DA    H2'1  474   7.184   8.581   9.667
   15DA    H2'2  475   7.106   8.569   9.831
   15DA     O3'  476   6.893   8.712   9.785
   16DT       P  477   6.932   8.799   9.915
   16DT     O1P  478   6.930   8.946   9.878
   16DT     O2P  479   7.052   8.739   9.987
   16DT     O5'  480   6.796   8.777   9.986
   16DT     C5'  481   6.791   8.697  10.100
   16DT    H5'1  482   6.749   8.764  10.173
   16DT    H5'2  483   6.893   8.667  10.142
   16DT     C4'  484   6.698   8.572  10.086
   16DT     H4'  485   6.601   8.598  10.037
   16DT     O4'  486   6.770   8.480  10.014
   16DT     C1'  487   6.776   8.362  10.083
   16DT     H1'  488   6.689   8.300  10.055
   16DT      N1  489   6.904   8.295  10.044
   16DT      C6  490   7.028   8.364  10.019
   16DT      H6  491   7.026   8.470  10.027
   16DT      C5  492   7.141   8.291  10.006
   16DT      C7  493   7.273   8.366   9.992
   16DT     H71  494   7.321   8.364  10.087
   16DT     H72  495   7.340   8.317   9.926
   16DT     H73  496   7.258   8.471   9.961
   16DT      C4  497   7.150   8.146  10.023
   16DT      O4  498   7.248   8.075  10.026
   16DT      N3  499   7.025   8.086  10.047
   16DT      H3  500   7.011   7.988  10.060
   16DT      C2  501   6.904   8.156  10.049
   16DT      O2  502   6.802   8.093  10.061
   16DT     C3'  503   6.671   8.514  10.228
   16DT     H3'  504   6.700   8.588  10.301
   16DT     C2'  505   6.766   8.394  10.234
   16DT    H2'1  506   6.865   8.426  10.263
   16DT    H2'2  507   6.728   8.303  10.286
   16DT     O3'  508   6.534   8.480  10.253
   17DA       P  509   6.428   8.587  10.290
   17DA     O1P  510   6.303   8.544  10.214
   17DA     O2P  511   6.482   8.724  10.268
   17DA     O5'  512   6.404   8.576  10.451
   17DA     C5'  513   6.365   8.450  10.495
   17DA    H5'1  514   6.341   8.389  10.407
   17DA    H5'2  515   6.263   8.458  10.539
   17DA     C4'  516   6.453   8.382  10.597
   17DA     H4'  517   6.400   8.298  10.633
   17DA     O4'  518   6.577   8.339  10.538
   17DA     C1'  519   6.672   8.329  10.643
   17DA     H1'  520   6.658   8.240  10.711
   17DA      N9  521   6.803   8.317  10.573
   17DA      C8  522   6.891   8.415  10.540
   17DA      H8  523   6.873   8.517  10.568
   17DA      N7  524   6.998   8.371  10.481
   17DA      C5  525   6.976   8.234  10.463
   17DA      C6  526   7.048   8.128  10.405
   17DA      N6  527   7.155   8.148  10.329
   17DA     H61  528   7.198   8.059  10.294
   17DA     H62  529   7.209   8.236  10.337
   17DA      N1  530   7.000   8.004  10.397
   17DA      C2  531   6.878   7.986  10.451
   17DA      H2  532   6.838   7.892  10.448
   17DA      N3  533   6.802   8.076  10.516
   17DA      C4  534   6.857   8.200  10.516
   17DA     C3'  535   6.492   8.462  10.727
   17DA     H3'  536   6.461   8.566  10.728
   17DA     C2'  537   6.648   8.454  10.722
   17DA    H2'1  538   6.685   8.550  10.678
   17DA    H2'2  539   6.689   8.439  10.822
   17DA     O3'  540   6.424   8.402  10.840
   18DC       P  541   6.465   8.424  10.990
   18DC     O1P  542   6.360   8.388  11.079
   18DC     O2P  543   6.515   8.562  10.999
   18DC     O5'  544   6.590   8.329  11.010
   18DC     C5'  545   6.576   8.186  11.016
   18DC    H5'1  546   6.516   8.161  10.936
   18DC    H5'2  547   6.516   8.156  11.096
   18DC     C4'  548   6.706   8.110  11.017
   18DC     H4'  549   6.695   8.001  11.010
   18DC     O4'  550   6.787   8.147  10.903
   18DC     C1'  551   6.918   8.169  10.962
   18DC     H1'  552   6.957   8.075  10.996
   18DC      N1  553   7.020   8.234  10.870
   18DC      C6  554   7.041   8.370  10.851
   18DC      H6  555   6.968   8.427  10.896
   18DC      C5  556   7.149   8.419  10.783
   18DC      H5  557   7.159   8.525  10.773
   18DC      C4  558   7.230   8.320  10.716
   18DC      N4  559   7.337   8.360  10.659
   18DC     H41  560   7.408   8.297  10.626
   18DC     H42  561   7.343   8.457  10.649
   18DC      N3  562   7.211   8.190  10.737
   18DC      C2  563   7.105   8.146  10.805
   18DC      O2  564   7.095   8.024  10.812
   18DC     C3'  565   6.785   8.156  11.151
   18DC     H3'  566   6.723   8.208  11.224
   18DC     C2'  567   6.893   8.241  11.101
   18DC    H2'1  568   6.853   8.341  11.082
   18DC    H2'2  569   6.979   8.245  11.171
   18DC     O3'  570   6.850   8.040  11.220
   19DA       P  571   6.814   8.003  11.371
   19DA     O1P  572   6.673   7.973  11.384
   19DA     O2P  573   6.879   8.098  11.465
   19DA     O5'  574   6.889   7.864  11.380
   19DA     C5'  575   6.868   7.755  11.295
   19DA    H5'1  576   6.814   7.790  11.204
   19DA    H5'2  577   6.803   7.690  11.354
   19DA     C4'  578   6.997   7.679  11.253
   19DA     H4'  579   6.982   7.576  11.205
   19DA     O4'  580   7.070   7.752  11.159
   19DA     C1'  581   7.191   7.787  11.223
   19DA     H1'  582   7.266   7.723  11.186
   19DA      N9  583   7.228   7.923  11.167
   19DA      C8  584   7.168   8.046  11.186
   19DA      H8  585   7.081   8.056  11.252
   19DA      N7  586   7.221   8.140  11.123
   19DA      C5  587   7.330   8.082  11.055
   19DA      C6  588   7.437   8.131  10.977
   19DA      N6  589   7.453   8.250  10.929
   19DA     H61  590   7.542   8.272  10.876
   19DA     H62  591   7.393   8.325  10.964
   19DA      N1  592   7.531   8.048  10.940
   19DA      C2  593   7.526   7.914  10.976
   19DA      H2  594   7.596   7.848  10.917
   19DA      N3  595   7.427   7.854  11.042
   19DA      C4  596   7.333   7.948  11.084
   19DA     C3'  597   7.089   7.653  11.374
   19DA     H3'  598   7.031   7.660  11.463
   19DA     C2'  599   7.177   7.781  11.373
   19DA    H2'1  600   7.139   7.873  11.410
   19DA    H2'2  601   7.278   7.777  11.418
   19DA     O3'  602   7.165   7.535  11.362
   20DD       P  603   7.271   7.486  11.474
   20DD     O1P  604   7.274   7.341  11.469
   20DD     O2P  605   7.245   7.549  11.602
   20DD     O5'  606   7.406   7.552  11.408
   20DD     C5'  607   7.473   7.496  11.293
   20DD    H5'1  608   7.424   7.528  11.203
   20DD    H5'2  609   7.473   7.392  11.303
   20DD     C4'  610   7.616   7.550  11.287
   20DD     H4'  611   7.667   7.508  11.207
   20DD     O4'  612   7.622   7.697  11.277
   20DD     C1'  613   7.736   7.734  11.343
   20DD     H1'  614   7.829   7.708  11.301
   20DD      N1  615   7.724   7.883  11.353
   20DD      C6  616   7.693   7.959  11.477
   20DD      H6  617   7.644   7.894  11.540
   20DD      C5  618   7.614   8.089  11.465
   20DD      C7  619   7.468   8.070  11.527
   20DD     H71  620   7.426   8.174  11.549
   20DD     H72  621   7.405   8.023  11.457
   20DD     H73  622   7.481   8.013  11.620
   20DD      C4  623   7.616   8.137  11.318
   20DD      O4  624   7.546   8.228  11.270
   20DD      N3  625   7.704   8.081  11.230
   20DD      H3  626   7.712   8.137  11.146
   20DD      C2  627   7.748   7.953  11.239
   20DD      O2  628   7.797   7.905  11.140
   20DD     C3'  629   7.704   7.519  11.415
   20DD     H3'  630   7.638   7.455  11.486
   20DD     C2'  631   7.728   7.652  11.475
   20DD    H2'1  632   7.651   7.679  11.540
   20DD    H2'2  633   7.820   7.659  11.526
   20DD     O3'  634   7.828   7.464  11.384
   21DD       P  635   7.946   7.422  11.486
   21DD     O1P  636   8.032   7.316  11.422
   21DD     O2P  637   7.880   7.392  11.617
   21DD     O5'  638   8.032   7.554  11.485
   21DD     C5'  639   8.103   7.603  11.370
   21DD    H5'1  640   8.042   7.588  11.276
   21DD    H5'2  641   8.200   7.545  11.374
   21DD     C4'  642   8.145   7.756  11.376
   21DD     H4'  643   8.220   7.774  11.288
   21DD     O4'  644   8.023   7.829  11.363
   21DD     C1'  645   8.038   7.950  11.439
   21DD     H1'  646   8.123   7.998  11.388
   21DD      N1  647   7.929   8.050  11.454
   21DD      C6  648   7.810   8.032  11.542
   21DD      H6  649   7.838   8.005  11.644
   21DD      C5  650   7.715   8.155  11.558
   21DD      C7  651   7.671   8.178  11.702
   21DD     H71  652   7.644   8.084  11.758
   21DD     H72  653   7.765   8.195  11.759
   21DD     H73  654   7.594   8.253  11.717
   21DD      C4  655   7.776   8.282  11.501
   21DD      O4  656   7.717   8.387  11.521
   21DD      N3  657   7.897   8.284  11.448
   21DD      H3  658   7.929   8.372  11.405
   21DD      C2  659   7.956   8.173  11.403
   21DD      O2  660   8.034   8.201  11.312
   21DD     C3'  661   8.205   7.794  11.512
   21DD     H3'  662   8.220   7.706  11.576
   21DD     C2'  663   8.101   7.899  11.569
   21DD    H2'1  664   8.023   7.849  11.626
   21DD    H2'2  665   8.148   7.978  11.619
   21DD     O3'  666   8.324   7.865  11.486
   22DG       P  667   8.451   7.842  11.585
   22DG     O1P  668   8.503   7.703  11.564
   22DG     O2P  669   8.414   7.886  11.716
   22DG     O5'  670   8.555   7.942  11.528
   22DG     C5'  671   8.608   7.939  11.394
   22DG    H5'1  672   8.549   7.885  11.321
   22DG    H5'2  673   8.711   7.891  11.400
   22DG     C4'  674   8.618   8.078  11.328
   22DG     H4'  675   8.664   8.062  11.229
   22DG     O4'  676   8.487   8.129  11.308
   22DG     C1'  677   8.492   8.267  11.331
   22DG     H1'  678   8.467   8.323  11.234
   22DG      N9  679   8.397   8.301  11.438
   22DG      C8  680   8.321   8.213  11.511
   22DG      H8  681   8.341   8.110  11.508
   22DG      N7  682   8.225   8.272  11.577
   22DG      C5  683   8.241   8.410  11.551
   22DG      C6  684   8.175   8.534  11.588
   22DG      O6  685   8.070   8.551  11.647
   22DG      N1  686   8.230   8.646  11.540
   22DG      H1  687   8.183   8.733  11.554
   22DG      C2  688   8.331   8.648  11.458
   22DG      N2  689   8.371   8.762  11.406
   22DG     H21  690   8.339   8.857  11.430
   22DG     H22  691   8.445   8.753  11.337
   22DG      N3  692   8.399   8.544  11.416
   22DG      C4  693   8.345   8.426  11.464
   22DG     C3'  694   8.705   8.176  11.409
   22DG     H3'  695   8.696   8.165  11.515
   22DG     C2'  696   8.642   8.302  11.351
   22DG    H2'1  697   8.663   8.398  11.411
   22DG    H2'2  698   8.704   8.320  11.264
   22DG     O3'  699   8.834   8.164  11.357
   23DT       P  700   8.968   8.204  11.433
   23DT     O1P  701   9.084   8.167  11.345
   23DT     O2P  702   8.967   8.140  11.565
   23DT     O5'  703   8.945   8.365  11.447
   23DT     C5'  704   8.979   8.458  11.345
   23DT    H5'1  705   8.904   8.450  11.264
   23DT    H5'2  706   9.070   8.420  11.290
   23DT     C4'  707   8.987   8.606  11.392
   23DT     H4'  708   9.018   8.661  11.300
   23DT     O4'  709   8.867   8.652  11.451
   23DT     C1'  710   8.878   8.690  11.584
   23DT     H1'  711   8.895   8.796  11.588
   23DT      N1  712   8.758   8.641  11.660
   23DT      C6  713   8.748   8.508  11.685
   23DT      H6  714   8.828   8.445  11.648
   23DT      C5  715   8.635   8.465  11.749
   23DT      C7  716   8.611   8.316  11.774
   23DT     H71  717   8.689   8.259  11.729
   23DT     H72  718   8.607   8.299  11.877
   23DT     H73  719   8.525   8.289  11.721
   23DT      C4  720   8.529   8.554  11.800
   23DT      O4  721   8.432   8.517  11.862
   23DT      N3  722   8.549   8.681  11.770
   23DT      H3  723   8.471   8.743  11.798
   23DT      C2  724   8.654   8.732  11.695
   23DT      O2  725   8.669   8.849  11.665
   23DT     C3'  726   9.096   8.632  11.493
   23DT     H3'  727   9.177   8.559  11.490
   23DT     C2'  728   9.021   8.641  11.622
   23DT    H2'1  729   9.017   8.552  11.687
   23DT    H2'2  730   9.063   8.722  11.676
   23DT     O3'  731   9.144   8.759  11.465
   24DA       P  732   9.277   8.820  11.530
   24DA     O1P  733   9.341   8.898  11.423
   24DA     O2P  734   9.359   8.718  11.599
   24DA     O5'  735   9.239   8.926  11.636
   24DA     C5'  736   9.162   9.040  11.605
   24DA    H5'1  737   9.127   9.040  11.503
   24DA    H5'2  738   9.234   9.125  11.604
   24DA     C4'  739   9.055   9.082  11.711
   24DA     H4'  740   8.996   9.170  11.670
   24DA     O4'  741   8.971   8.974  11.739
   24DA     C1'  742   8.958   8.963  11.875
   24DA     H1'  743   8.902   9.055  11.910
   24DA      N9  744   8.895   8.832  11.916
   24DA      C8  745   8.948   8.711  11.940
   24DA      H8  746   9.048   8.689  11.899
   24DA      N7  747   8.864   8.626  12.006
   24DA      C5  748   8.757   8.709  12.032
   24DA      C6  749   8.640   8.692  12.105
   24DA      N6  750   8.594   8.584  12.163
   24DA     H61  751   8.496   8.582  12.195
   24DA     H62  752   8.645   8.502  12.191
   24DA      N1  753   8.547   8.785  12.103
   24DA      C2  754   8.567   8.900  12.041
   24DA      H2  755   8.496   8.980  12.045
   24DA      N3  756   8.675   8.937  11.979
   24DA      C4  757   8.770   8.833  11.977
   24DA     C3'  758   9.131   9.113  11.845
   24DA     H3'  759   9.235   9.123  11.837
   24DA     C2'  760   9.097   8.988  11.926
   24DA    H2'1  761   9.163   8.904  11.894
   24DA    H2'2  762   9.095   8.993  12.033
   24DA     O3'  763   9.069   9.227  11.910
   25DC       P  764   9.096   9.382  11.860
   25DC     O1P  765   9.071   9.395  11.714
   25DC     O2P  766   9.229   9.436  11.903
   25DC     O5'  767   8.995   9.481  11.930
   25DC     C5'  768   8.858   9.472  11.892
   25DC    H5'1  769   8.845   9.410  11.810
   25DC    H5'2  770   8.820   9.567  11.872
   25DC     C4'  771   8.775   9.425  12.012
   25DC     H4'  772   8.674   9.465  11.986
   25DC     O4'  773   8.781   9.280  12.040
   25DC     C1'  774   8.724   9.263  12.168
   25DC     H1'  775   8.612   9.266  12.177
   25DC      N1  776   8.771   9.143  12.242
   25DC      C6  777   8.893   9.090  12.216
   25DC      H6  778   8.967   9.149  12.160
   25DC      C5  779   8.922   8.963  12.253
   25DC      H5  780   9.015   8.911  12.228
   25DC      C4  781   8.820   8.897  12.336
   25DC      N4  782   8.827   8.775  12.371
   25DC     H41  783   8.747   8.730  12.410
   25DC     H42  784   8.914   8.725  12.345
   25DC      N3  785   8.706   8.949  12.365
   25DC      C2  786   8.681   9.076  12.321
   25DC      O2  787   8.577   9.136  12.363
   25DC     C3'  788   8.797   9.496  12.143
   25DC     H3'  789   8.901   9.531  12.145
   25DC     C2'  790   8.771   9.384  12.247
   25DC    H2'1  791   8.868   9.361  12.297
   25DC    H2'2  792   8.704   9.402  12.330
   25DC     O3'  793   8.707   9.604  12.153
   26DG       P  794   8.727   9.715  12.266
   26DG     O1P  795   8.661   9.841  12.230
   26DG     O2P  796   8.872   9.722  12.299
   26DG     O5'  797   8.648   9.648  12.388
   26DG     C5'  798   8.509   9.622  12.372
   26DG    H5'1  799   8.496   9.553  12.288
   26DG    H5'2  800   8.463   9.710  12.349
   26DG     C4'  801   8.462   9.563  12.505
   26DG     H4'  802   8.351   9.565  12.500
   26DG     O4'  803   8.499   9.424  12.524
   26DG     C1'  804   8.559   9.411  12.650
   26DG     H1'  805   8.488   9.363  12.724
   26DG      N9  806   8.671   9.315  12.642
   26DG      C8  807   8.796   9.334  12.591
   26DG      H8  808   8.820   9.425  12.544
   26DG      N7  809   8.870   9.226  12.580
   26DG      C5  810   8.787   9.134  12.641
   26DG      C6  811   8.808   8.991  12.675
   26DG      O6  812   8.899   8.920  12.647
   26DG      N1  813   8.713   8.932  12.762
   26DG      H1  814   8.721   8.833  12.778
   26DG      C2  815   8.603   9.003  12.801
   26DG      N2  816   8.516   8.947  12.885
   26DG     H21  817   8.524   8.855  12.927
   26DG     H22  818   8.434   9.000  12.903
   26DG      N3  819   8.573   9.126  12.761
   26DG      C4  820   8.670   9.189  12.686
   26DG     C3'  821   8.502   9.646  12.628
   26DG     H3'  822   8.550   9.736  12.606
   26DG     C2'  823   8.603   9.546  12.694
   26DG    H2'1  824   8.706   9.578  12.663
   26DG    H2'2  825   8.607   9.537  12.803
   26DG     O3'  826   8.393   9.678  12.710
   27DC       P  827   8.394   9.724  12.870
   27DC     O1P  828   8.277   9.798  12.903
   27DC     O2P  829   8.521   9.792  12.891
   27DC     O5'  830   8.390   9.594  12.948
   27DC     C5'  831   8.291   9.496  12.916
   27DC    H5'1  832   8.313   9.445  12.823
   27DC    H5'2  833   8.199   9.543  12.918
   27DC     C4'  834   8.285   9.395  13.032
   27DC     H4'  835   8.188   9.338  13.037
   27DC     O4'  836   8.389   9.294  13.011
   27DC     C1'  837   8.461   9.281  13.129
   27DC     H1'  838   8.412   9.207  13.194
   27DC      N1  839   8.593   9.234  13.101
   27DC      C6  840   8.687   9.311  13.036
   27DC      H6  841   8.655   9.415  13.018
   27DC      C5  842   8.805   9.269  12.992
   27DC      H5  843   8.870   9.337  12.933
   27DC      C4  844   8.833   9.131  13.027
   27DC      N4  845   8.939   9.068  12.988
   27DC     H41  846   8.948   8.969  13.008
   27DC     H42  847   9.015   9.105  12.935
   27DC      N3  848   8.749   9.055  13.095
   27DC      C2  849   8.624   9.100  13.134
   27DC      O2  850   8.551   9.021  13.188
   27DC     C3'  851   8.305   9.456  13.172
   27DC     H3'  852   8.309   9.567  13.156
   27DC     C2'  853   8.448   9.419  13.201
   27DC    H2'1  854   8.512   9.487  13.149
   27DC    H2'2  855   8.459   9.411  13.306
   27DC     O3'  856   8.208   9.418  13.265
   28DA       P  857   8.223   9.450  13.423
   28DA     O1P  858   8.091   9.452  13.484
   28DA     O2P  859   8.304   9.573  13.429
   28DA     O5'  860   8.303   9.328  13.487
   28DA     C5'  861   8.256   9.194  13.471
   28DA    H5'1  862   8.249   9.164  13.372
   28DA    H5'2  863   8.153   9.171  13.512
   28DA     C4'  864   8.359   9.103  13.537
   28DA     H4'  865   8.317   9.006  13.540
   28DA     O4'  866   8.477   9.105  13.456
   28DA     C1'  867   8.584   9.111  13.548
   28DA     H1'  868   8.611   9.013  13.580
   28DA      N9  869   8.696   9.171  13.474
   28DA      C8  870   8.714   9.304  13.434
   28DA      H8  871   8.628   9.372  13.439
   28DA      N7  872   8.826   9.324  13.365
   28DA      C5  873   8.889   9.201  13.368
   28DA      C6  874   9.006   9.151  13.309
   28DA      N6  875   9.098   9.224  13.245
   28DA     H61  876   9.170   9.168  13.216
   28DA     H62  877   9.078   9.315  13.215
   28DA      N1  878   9.040   9.022  13.319
   28DA      C2  879   8.961   8.941  13.387
   28DA      H2  880   8.993   8.839  13.389
   28DA      N3  881   8.850   8.974  13.446
   28DA      C4  882   8.812   9.106  13.428
   28DA     C3'  883   8.394   9.146  13.681
   28DA     H3'  884   8.326   9.217  13.715
   28DA     C2'  885   8.528   9.203  13.658
   28DA    H2'1  886   8.516   9.305  13.630
   28DA    H2'2  887   8.593   9.196  13.751
   28DA     O3'  888   8.385   9.028  13.773
   29DT       P  889   8.391   9.052  13.928
   29DT     O1P  890   8.296   8.955  13.986
   29DT     O2P  891   8.367   9.193  13.968
   29DT     O5'  892   8.540   9.005  13.944
   29DT     C5'  893   8.575   8.866  13.935
   29DT    H5'1  894   8.549   8.829  13.841
   29DT    H5'2  895   8.531   8.798  14.005
   29DT     C4'  896   8.727   8.851  13.938
   29DT     H4'  897   8.749   8.746  13.930
   29DT     O4'  898   8.781   8.922  13.828
   29DT     C1'  899   8.888   8.996  13.875
   29DT     H1'  900   8.963   8.929  13.900
   29DT      N1  901   8.940   9.100  13.780
   29DT      C6  902   8.879   9.225  13.771
   29DT      H6  903   8.786   9.251  13.821
   29DT      C5  904   8.943   9.327  13.708
   29DT      C7  905   8.877   9.465  13.712
   29DT     H71  906   8.776   9.468  13.738
   29DT     H72  907   8.936   9.518  13.786
   29DT     H73  908   8.874   9.512  13.616
   29DT      C4  909   9.067   9.309  13.630
   29DT      O4  910   9.134   9.386  13.560
   29DT      N3  911   9.110   9.180  13.634
   29DT      H3  912   9.195   9.160  13.584
   29DT      C2  913   9.055   9.079  13.710
   29DT      O2  914   9.110   8.972  13.713
   29DT     C3'  915   8.786   8.911  14.061
   29DT     H3'  916   8.708   8.929  14.130
   29DT     C2'  917   8.836   9.049  14.009
   29DT    H2'1  918   8.759   9.126  13.999
   29DT    H2'2  919   8.920   9.090  14.068
   29DT     O3'  920   8.893   8.826  14.109
   30DA       P  921   8.875   8.718  14.221
   30DA     O1P  922   8.744   8.645  14.194
   30DA     O2P  923   8.901   8.775  14.356
   30DA     O5'  924   8.995   8.615  14.189
   30DA     C5'  925   8.982   8.525  14.084
   30DA    H5'1  926   8.919   8.565  14.007
   30DA    H5'2  927   8.934   8.440  14.123
   30DA     C4'  928   9.110   8.484  14.011
   30DA     H4'  929   9.080   8.402  13.943
   30DA     O4'  930   9.152   8.585  13.923
   30DA     C1'  931   9.286   8.625  13.964
   30DA     H1'  932   9.364   8.591  13.896
   30DA      N9  933   9.288   8.769  13.968
   30DA      C8  934   9.211   8.850  14.045
   30DA      H8  935   9.138   8.816  14.118
   30DA      N7  936   9.238   8.979  14.029
   30DA      C5  937   9.342   8.967  13.930
   30DA      C6  938   9.428   9.066  13.874
   30DA      N6  939   9.412   9.194  13.885
   30DA     H61  940   9.468   9.234  13.807
   30DA     H62  941   9.320   9.222  13.905
   30DA      N1  942   9.528   9.035  13.791
   30DA      C2  943   9.549   8.905  13.772
   30DA      H2  944   9.624   8.895  13.700
   30DA      N3  945   9.486   8.799  13.822
   30DA      C4  946   9.383   8.844  13.900
   30DA     C3'  947   9.228   8.437  14.099
   30DA     H3'  948   9.194   8.415  14.198
   30DA     C2'  949   9.321   8.558  14.099
   30DA    H2'1  950   9.286   8.615  14.181
   30DA    H2'2  951   9.428   8.526  14.102
   30DA     O3'  952   9.287   8.319  14.049
   31DT       P  953   9.395   8.230  14.136
   31DT     O1P  954   9.417   8.099  14.063
   31DT     O2P  955   9.354   8.222  14.276
   31DT     O5'  956   9.535   8.311  14.124
   31DT     C5'  957   9.593   8.322  13.994
   31DT    H5'1  958   9.518   8.380  13.934
   31DT    H5'2  959   9.626   8.226  13.940
   31DT     C4'  960   9.716   8.413  13.993
   31DT     H4'  961   9.767   8.402  13.896
   31DT     O4'  962   9.677   8.543  13.994
   31DT     C1'  963   9.787   8.619  14.043
   31DT     H1'  964   9.855   8.638  13.969
   31DT      N1  965   9.718   8.747  14.081
   31DT      C6  966   9.626   8.758  14.185
   31DT      H6  967   9.594   8.666  14.239
   31DT      C5  968   9.574   8.877  14.223
   31DT      C7  969   9.472   8.877  14.330
   31DT     H71  970   9.508   8.936  14.407
   31DT     H72  971   9.384   8.930  14.296
   31DT     H73  972   9.450   8.774  14.367
   31DT      C4  973   9.605   8.998  14.155
   31DT      O4  974   9.558   9.108  14.175
   31DT      N3  975   9.722   8.984  14.075
   31DT      H3  976   9.766   9.070  14.055
   31DT      C2  977   9.779   8.868  14.037
   31DT      O2  978   9.884   8.867  13.970
   31DT     C3'  979   9.820   8.393  14.103
   31DT     H3'  980   9.778   8.334  14.176
   31DT     C2'  981   9.849   8.536  14.158
   31DT    H2'1  982   9.792   8.557  14.245
   31DT    H2'2  983   9.951   8.560  14.175
   31DT     O3'  984   9.929   8.329  14.036
   32DG       P  985  10.063   8.288  14.114
   32DG     O1P  986  10.121   8.175  14.039
   32DG     O2P  987  10.013   8.251  14.247
   32DG     O5'  988  10.167   8.416  14.111
   32DG     C5'  989  10.242   8.442  14.001
   32DG    H5'1  990  10.181   8.456  13.912
   32DG    H5'2  991  10.310   8.356  13.973
   32DG     C4'  992  10.341   8.564  14.015
   32DG     H4'  993  10.399   8.573  13.928
   32DG     O4'  994  10.264   8.686  14.021
   32DG     C1'  995  10.301   8.770  14.130
   32DG     H1'  996  10.376   8.838  14.097
   32DG      N9  997  10.181   8.832  14.187
   32DG      C8  998  10.086   8.782  14.274
   32DG      H8  999  10.073   8.677  14.296
   32DG      N7 1000   9.997   8.872  14.314
   32DG      C5 1001  10.042   8.989  14.260
   32DG      C6 1002   9.994   9.125  14.265
   32DG      O6 1003   9.895   9.166  14.324
   32DG      N1 1004  10.064   9.214  14.192
   32DG      H1 1005  10.044   9.316  14.207
   32DG      C2 1006  10.188   9.186  14.145
   32DG      N2 1007  10.265   9.284  14.106
   32DG     H21 1008  10.233   9.377  14.101
   32DG     H22 1009  10.356   9.264  14.077
   32DG      N3 1010  10.238   9.061  14.126
   32DG      C4 1011  10.150   8.967  14.182
   32DG     C3' 1012  10.429   8.571  14.143
   32DG     H3' 1013  10.429   8.474  14.189
   32DG     C2' 1014  10.354   8.673  14.226
   32DG    H2'1 1015  10.279   8.622  14.291
   32DG    H2'2 1016  10.419   8.716  14.295
   32DG     O3' 1017  10.553   8.620  14.105
   33DC3      P 1018  10.686   8.617  14.196
   33DC3    O1P 1019  10.805   8.582  14.118
   33DC3    O2P 1020  10.657   8.525  14.302
   33DC3    O5' 1021  10.694   8.754  14.262
   33DC3    C5' 1022  10.711   8.870  14.175
   33DC3   H5'1 1023  10.642   8.856  14.093
   33DC3   H5'2 1024  10.800   8.872  14.126
   33DC3    C4' 1025  10.700   8.995  14.258
   33DC3    H4' 1026  10.746   9.073  14.186
   33DC3    O4' 1027  10.561   9.027  14.280
   33DC3    C1' 1028  10.553   9.099  14.394
   33DC3    H1' 1029  10.574   9.197  14.359
   33DC3     N1 1030  10.416   9.088  14.454
   33DC3     C6 1031  10.362   8.965  14.484
   33DC3     H6 1032  10.425   8.875  14.463
   33DC3     C5 1033  10.242   8.953  14.543
   33DC3     H5 1034  10.207   8.853  14.569
   33DC3     C4 1035  10.172   9.079  14.567
   33DC3     N4 1036  10.056   9.078  14.625
   33DC3    H41 1037  10.004   9.162  14.610
   33DC3    H42 1038  10.011   8.990  14.642
   33DC3     N3 1039  10.230   9.195  14.545
   33DC3     C2 1040  10.349   9.201  14.479
   33DC3     O2 1041  10.393   9.314  14.450
   33DC3    C3' 1042  10.767   8.999  14.399
   33DC3    H3' 1043  10.805   8.899  14.410
   33DC3    C2' 1044  10.649   9.042  14.495
   33DC3   H2'1 1045  10.623   8.958  14.554
   33DC3   H2'2 1046  10.686   9.114  14.569
   33DC3    O3' 1047  10.864   9.099  14.406
   33DC3    H3T 1048  10.953   9.058  14.412
   34DG5    H5T 1049  10.006  10.045   0.010
   34DG5    O5' 1050   9.927  10.068   0.056
   34DG5    C5' 1051   9.824  10.093  14.846
   34DG5   H5'1 1052   9.770  10.179   0.006
   34DG5   H5'2 1053   9.766  10.005  14.833
   34DG5    C4' 1054   9.900  10.125  14.711
   34DG5    H4' 1055   9.946  10.227  14.728
   34DG5    O4' 1056   9.999  10.031  14.674
   34DG5    C1' 1057   9.945   9.940  14.582
   34DG5    H1' 1058  10.002   9.935  14.492
   34DG5     N9 1059   9.924   9.800  14.638
   34DG5     C8 1060   9.834   9.742  14.724
   34DG5     H8 1061   9.763   9.801  14.783
   34DG5     N7 1062   9.828   9.610  14.722
   34DG5     C5 1063   9.937   9.577  14.646
   34DG5     C6 1064   9.989   9.447  14.604
   34DG5     O6 1065   9.945   9.334  14.609
   34DG5     N1 1066  10.110   9.462  14.539
   34DG5     H1 1067  10.155   9.369  14.528
   34DG5     C2 1068  10.173   9.576  14.513
   34DG5     N2 1069  10.297   9.579  14.482
   34DG5    H21 1070  10.355   9.495  14.485
   34DG5    H22 1071  10.336   9.670  14.473
   34DG5     N3 1072  10.118   9.699  14.528
   34DG5     C4 1073  10.000   9.693  14.599
   34DG5    C3' 1074   9.813  10.141  14.580
   34DG5    H3' 1075   9.716  10.175  14.603
   34DG5    C2' 1076   9.808   9.996  14.533
   34DG5   H2'1 1077   9.734   9.950  14.601
   34DG5   H2'2 1078   9.776   9.981  14.430
   34DG5    O3' 1079   9.870  10.237  14.493
   35DC       P 1080   9.841  10.244  14.342
   35DC     O1P 1081   9.887  10.378  14.299
   35DC     O2P 1082   9.698  10.216  14.321
   35DC     O5' 1083   9.934  10.132  14.273
   35DC     C5' 1084  10.078  10.144  14.287
   35DC    H5'1 1085  10.108  10.144  14.393
   35DC    H5'2 1086  10.107  10.245  14.256
   35DC     C4' 1087  10.171  10.043  14.220
   35DC     H4' 1088  10.269  10.087  14.234
   35DC     O4' 1089  10.164   9.907  14.267
   35DC     C1' 1090  10.142   9.815  14.157
   35DC     H1' 1091  10.238   9.769  14.126
   35DC      N1 1092  10.040   9.715  14.203
   35DC      C6 1093   9.920   9.756  14.264
   35DC      H6 1094   9.903   9.865  14.268
   35DC      C5 1095   9.828   9.661  14.303
   35DC      H5 1096   9.742   9.693  14.343
   35DC      C4 1097   9.873   9.525  14.289
   35DC      N4 1098   9.789   9.428  14.316
   35DC     H41 1099   9.811   9.331  14.296
   35DC     H42 1100   9.693   9.450  14.345
   35DC      N3 1101   9.981   9.489  14.234
   35DC      C2 1102  10.068   9.579  14.197
   35DC      O2 1103  10.178   9.536  14.159
   35DC     C3' 1104  10.143  10.041  14.067
   35DC     H3' 1105  10.057  10.104  14.057
   35DC     C2' 1106  10.089   9.900  14.042
   35DC    H2'1 1107   9.979   9.904  14.048
   35DC    H2'2 1108  10.124   9.857  13.950
   35DC     O3' 1109  10.253  10.076  13.990
   36DA       P 1110  10.235  10.122  13.842
   36DA     O1P 1111  10.353  10.200  13.800
   36DA     O2P 1112  10.102  10.194  13.833
   36DA     O5' 1113  10.228   9.988  13.755
   36DA     C5' 1114  10.345   9.903  13.750
   36DA    H5'1 1115  10.396   9.903  13.847
   36DA    H5'2 1116  10.416   9.956  13.686
   36DA     C4' 1117  10.322   9.760  13.695
   36DA     H4' 1118  10.416   9.709  13.680
   36DA     O4' 1119  10.244   9.697  13.797
   36DA     C1' 1120  10.146   9.625  13.724
   36DA     H1' 1121  10.188   9.531  13.679
   36DA      N9 1122  10.029   9.589  13.808
   36DA      C8 1123   9.931   9.672  13.852
   36DA      H8 1124   9.931   9.784  13.835
   36DA      N7 1125   9.835   9.611  13.919
   36DA      C5 1126   9.877   9.476  13.913
   36DA      C6 1127   9.817   9.354  13.955
   36DA      N6 1128   9.689   9.343  13.997
   36DA     H61 1129   9.657   9.252  14.035
   36DA     H62 1130   9.635   9.426  14.014
   36DA      N1 1131   9.875   9.237  13.935
   36DA      C2 1132   9.993   9.238  13.866
   36DA      H2 1133  10.040   9.140  13.843
   36DA      N3 1134  10.057   9.344  13.818
   36DA      C4 1135   9.994   9.462  13.847
   36DA     C3' 1136  10.243   9.771  13.563
   36DA     H3' 1137  10.237   9.873  13.523
   36DA     C2' 1138  10.106   9.723  13.613
   36DA    H2'1 1139  10.045   9.812  13.644
   36DA    H2'2 1140  10.051   9.666  13.532
   36DA     O3' 1141  10.316   9.683  13.474
   37DT       P 1142  10.259   9.637  13.333
   37DT     O1P 1143  10.372   9.627  13.236
   37DT     O2P 1144  10.141   9.723  13.301
   37DT     O5' 1145  10.204   9.487  13.351
   37DT     C5' 1146  10.290   9.388  13.412
   37DT    H5'1 1147  10.324   9.424  13.511
   37DT    H5'2 1148  10.383   9.378  13.344
   37DT     C4' 1149  10.223   9.252  13.423
   37DT     H4' 1150  10.303   9.189  13.469
   37DT     O4' 1151  10.109   9.249  13.512
   37DT     C1' 1152  10.001   9.189  13.440
   37DT     H1' 1153  10.002   9.076  13.440
   37DT      N1 1154   9.873   9.236  13.505
   37DT      C6 1155   9.826   9.365  13.477
   37DT      H6 1156   9.884   9.420  13.407
   37DT      C5 1157   9.710   9.417  13.531
   37DT      C7 1158   9.653   9.551  13.491
   37DT     H71 1159   9.725   9.607  13.427
   37DT     H72 1160   9.559   9.534  13.437
   37DT     H73 1161   9.623   9.606  13.576
   37DT      C4 1162   9.648   9.340  13.633
   37DT      O4 1163   9.543   9.375  13.687
   37DT      N3 1164   9.705   9.215  13.660
   37DT      H3 1165   9.655   9.160  13.728
   37DT      C2 1166   9.804   9.152  13.595
   37DT      O2 1167   9.846   9.040  13.626
   37DT     C3' 1168  10.180   9.193  13.290
   37DT     H3' 1169  10.222   9.248  13.207
   37DT     C2' 1170  10.029   9.225  13.300
   37DT    H2'1 1171  10.017   9.330  13.268
   37DT    H2'2 1172   9.969   9.169  13.228
   37DT     O3' 1173  10.208   9.052  13.287
   38DA       P 1174  10.144   8.948  13.182
   38DA     O1P 1175  10.232   8.827  13.170
   38DA     O2P 1176  10.106   9.019  13.062
   38DA     O5' 1177  10.012   8.892  13.248
   38DA     C5' 1178  10.017   8.811  13.371
   38DA    H5'1 1179  10.020   8.881  13.458
   38DA    H5'2 1180  10.114   8.758  13.367
   38DA     C4' 1181   9.917   8.699  13.383
   38DA     H4' 1182   9.961   8.629  13.452
   38DA     O4' 1183   9.799   8.745  13.439
   38DA     C1' 1184   9.701   8.754  13.335
   38DA     H1' 1185   9.612   8.689  13.359
   38DA      N9 1186   9.648   8.893  13.323
   38DA      C8 1187   9.703   9.003  13.254
   38DA      H8 1188   9.792   8.998  13.196
   38DA      N7 1189   9.631   9.110  13.267
   38DA      C5 1190   9.519   9.068  13.341
   38DA      C6 1191   9.409   9.135  13.403
   38DA      N6 1192   9.368   9.262  13.396
   38DA     H61 1193   9.297   9.291  13.456
   38DA     H62 1194   9.406   9.322  13.326
   38DA      N1 1195   9.334   9.065  13.491
   38DA      C2 1196   9.357   8.938  13.522
   38DA      H2 1197   9.290   8.900  13.598
   38DA      N3 1198   9.460   8.868  13.474
   38DA      C4 1199   9.535   8.939  13.381
   38DA     C3' 1200   9.888   8.626  13.252
   38DA     H3' 1201   9.962   8.638  13.178
   38DA     C2' 1202   9.761   8.701  13.205
   38DA    H2'1 1203   9.787   8.783  13.140
   38DA    H2'2 1204   9.691   8.636  13.156
   38DA     O3' 1205   9.879   8.479  13.265
   39DT       P 1206   9.832   8.390  13.138
   39DT     O1P 1207   9.883   8.259  13.167
   39DT     O2P 1208   9.868   8.455  13.010
   39DT     O5' 1209   9.680   8.380  13.144
   39DT     C5' 1210   9.601   8.322  13.255
   39DT    H5'1 1211   9.647   8.340  13.352
   39DT    H5'2 1212   9.617   8.213  13.248
   39DT     C4' 1213   9.449   8.347  13.257
   39DT     H4' 1214   9.406   8.295  13.343
   39DT     O4' 1215   9.422   8.490  13.251
   39DT     C1' 1216   9.333   8.511  13.142
   39DT     H1' 1217   9.234   8.481  13.164
   39DT      N1 1218   9.328   8.655  13.107
   39DT      C6 1219   9.423   8.712  13.027
   39DT      H6 1220   9.495   8.649  12.974
   39DT      C5 1221   9.435   8.847  13.017
   39DT      C7 1222   9.551   8.901  12.932
   39DT     H71 1223   9.633   8.834  12.918
   39DT     H72 1224   9.512   8.932  12.837
   39DT     H73 1225   9.592   8.990  12.985
   39DT      C4 1226   9.339   8.931  13.093
   39DT      O4 1227   9.325   9.053  13.096
   39DT      N3 1228   9.246   8.863  13.173
   39DT      H3 1229   9.180   8.923  13.220
   39DT      C2 1230   9.231   8.723  13.172
   39DT      O2 1231   9.154   8.672  13.252
   39DT     C3' 1232   9.395   8.294  13.123
   39DT     H3' 1233   9.463   8.216  13.080
   39DT     C2' 1234   9.376   8.413  13.034
   39DT    H2'1 1235   9.470   8.438  12.982
   39DT    H2'2 1236   9.290   8.403  12.970
   39DT     O3' 1237   9.276   8.227  13.172
   40DG       P 1238   9.241   8.089  13.107
   40DG     O1P 1239   9.321   7.980  13.174
   40DG     O2P 1240   9.244   8.098  12.964
   40DG     O5' 1241   9.093   8.086  13.157
   40DG     C5' 1242   9.049   8.052  13.285
   40DG    H5'1 1243   9.109   8.098  13.363
   40DG    H5'2 1244   9.061   7.944  13.293
   40DG     C4' 1245   8.898   8.086  13.313
   40DG     H4' 1246   8.862   8.059  13.414
   40DG     O4' 1247   8.892   8.233  13.306
   40DG     C1' 1248   8.811   8.263  13.193
   40DG     H1' 1249   8.713   8.299  13.231
   40DG      N9 1250   8.886   8.376  13.128
   40DG      C8 1251   8.995   8.373  13.041
   40DG      H8 1252   9.051   8.285  13.014
   40DG      N7 1253   9.031   8.493  12.998
   40DG      C5 1254   8.930   8.575  13.053
   40DG      C6 1255   8.915   8.716  13.045
   40DG      O6 1256   8.992   8.799  13.001
   40DG      N1 1257   8.809   8.764  13.117
   40DG      H1 1258   8.797   8.869  13.113
   40DG      C2 1259   8.717   8.686  13.180
   40DG      N2 1260   8.614   8.745  13.237
   40DG     H21 1261   8.598   8.845  13.213
   40DG     H22 1262   8.536   8.684  13.251
   40DG      N3 1263   8.726   8.550  13.186
   40DG      C4 1264   8.836   8.503  13.123
   40DG     C3' 1265   8.801   8.028  13.202
   40DG     H3' 1266   8.851   7.948  13.159
   40DG     C2' 1267   8.786   8.136  13.104
   40DG    H2'1 1268   8.858   8.122  13.031
   40DG    H2'2 1269   8.691   8.138  13.062
   40DG     O3' 1270   8.672   7.998  13.262
   41DC       P 1271   8.546   7.933  13.188
   41DC     O1P 1272   8.458   7.865  13.291
   41DC     O2P 1273   8.591   7.851  13.076
   41DC     O5' 1274   8.479   8.060  13.132
   41DC     C5' 1275   8.418   8.156  13.213
   41DC    H5'1 1276   8.491   8.191  13.292
   41DC    H5'2 1277   8.333   8.111  13.262
   41DC     C4' 1278   8.362   8.273  13.137
   41DC     H4' 1279   8.288   8.324  13.200
   41DC     O4' 1280   8.462   8.359  13.103
   41DC     C1' 1281   8.446   8.396  12.966
   41DC     H1' 1282   8.362   8.462  12.959
   41DC      N1 1283   8.563   8.454  12.892
   41DC      C6 1284   8.655   8.379  12.820
   41DC      H6 1285   8.635   8.270  12.824
   41DC      C5 1286   8.755   8.436  12.744
   41DC      H5 1287   8.815   8.372  12.681
   41DC      C4 1288   8.765   8.578  12.745
   41DC      N4 1289   8.856   8.635  12.676
   41DC     H41 1290   8.864   8.738  12.659
   41DC     H42 1291   8.921   8.575  12.634
   41DC      N3 1292   8.675   8.655  12.803
   41DC      C2 1293   8.569   8.594  12.869
   41DC      O2 1294   8.490   8.668  12.926
   41DC     C3' 1295   8.284   8.237  13.011
   41DC     H3' 1296   8.257   8.125  12.995
   41DC     C2' 1297   8.384   8.270  12.905
   41DC    H2'1 1298   8.456   8.187  12.883
   41DC    H2'2 1299   8.334   8.289  12.807
   41DC     O3' 1300   8.177   8.321  12.993
   42DG       P 1301   8.032   8.302  13.060
   42DG     O1P 1302   8.040   8.299  13.209
   42DG     O2P 1303   7.970   8.188  12.996
   42DG     O5' 1304   7.954   8.433  13.008
   42DG     C5' 1305   7.968   8.563  13.073
   42DG    H5'1 1306   8.064   8.562  13.123
   42DG    H5'2 1307   7.886   8.568  13.150
   42DG     C4' 1308   7.961   8.683  12.972
   42DG     H4' 1309   7.943   8.783  13.012
   42DG     O4' 1310   8.086   8.697  12.903
   42DG     C1' 1311   8.061   8.704  12.762
   42DG     H1' 1312   8.040   8.806  12.720
   42DG      N9 1313   8.182   8.639  12.698
   42DG      C8 1314   8.229   8.509  12.686
   42DG      H8 1315   8.177   8.425  12.727
   42DG      N7 1316   8.349   8.490  12.634
   42DG      C5 1317   8.374   8.627  12.602
   42DG      C6 1318   8.488   8.681  12.537
   42DG      O6 1319   8.583   8.622  12.492
   42DG      N1 1320   8.489   8.817  12.523
   42DG      H1 1321   8.558   8.856  12.461
   42DG      C2 1322   8.399   8.901  12.578
   42DG      N2 1323   8.394   9.028  12.540
   42DG     H21 1324   8.464   9.070  12.480
   42DG     H22 1325   8.314   9.081  12.575
   42DG      N3 1326   8.290   8.852  12.642
   42DG      C4 1327   8.280   8.715  12.650
   42DG     C3' 1328   7.854   8.670  12.863
   42DG     H3' 1329   7.775   8.605  12.885
   42DG     C2' 1330   7.930   8.625  12.745
   42DG    H2'1 1331   7.940   8.520  12.757
   42DG    H2'2 1332   7.888   8.649  12.647
   42DG     O3' 1333   7.803   8.800  12.845
   43DT       P 1334   7.692   8.834  12.736
   43DT     O1P 1335   7.599   8.941  12.795
   43DT     O2P 1336   7.628   8.715  12.669
   43DT     O5' 1337   7.785   8.902  12.632
   43DT     C5' 1338   7.841   9.030  12.654
   43DT    H5'1 1339   7.911   9.024  12.740
   43DT    H5'2 1340   7.767   9.110  12.664
   43DT     C4' 1341   7.918   9.070  12.531
   43DT     H4' 1342   7.961   9.171  12.557
   43DT     O4' 1343   8.023   8.977  12.519
   43DT     C1' 1344   8.078   8.986  12.387
   43DT     H1' 1345   8.149   9.068  12.385
   43DT      N1 1346   8.134   8.858  12.339
   43DT      C6 1347   8.077   8.741  12.376
   43DT      H6 1348   7.997   8.744  12.450
   43DT      C5 1349   8.131   8.625  12.333
   43DT      C7 1350   8.064   8.495  12.367
   43DT     H71 1351   7.982   8.505  12.436
   43DT     H72 1352   8.027   8.446  12.278
   43DT     H73 1353   8.150   8.433  12.407
   43DT      C4 1354   8.252   8.622  12.250
   43DT      O4 1355   8.316   8.529  12.208
   43DT      N3 1356   8.296   8.747  12.215
   43DT      H3 1357   8.379   8.760  12.159
   43DT      C2 1358   8.247   8.867  12.262
   43DT      O2 1359   8.301   8.972  12.222
   43DT     C3' 1360   7.845   9.076  12.390
   43DT     H3' 1361   7.767   9.002  12.398
   43DT     C2' 1362   7.960   9.021  12.299
   43DT    H2'1 1363   7.924   8.932  12.248
   43DT    H2'2 1364   7.987   9.094  12.230
   43DT     O3' 1365   7.787   9.200  12.363
   44DA       P 1366   7.724   9.223  12.222
   44DA     O1P 1367   7.640   9.344  12.228
   44DA     O2P 1368   7.658   9.096  12.180
   44DA     O5' 1369   7.845   9.261  12.115
   44DA     C5' 1370   7.945   9.365  12.136
   44DA    H5'1 1371   7.904   9.442  12.195
   44DA    H5'2 1372   8.027   9.317  12.195
   44DA     C4' 1373   7.997   9.431  12.006
   44DA     H4' 1374   8.045   9.520  12.039
   44DA     O4' 1375   8.098   9.339  11.951
   44DA     C1' 1376   8.040   9.276  11.836
   44DA     H1' 1377   8.114   9.287  11.757
   44DA      N9 1378   8.042   9.128  11.873
   44DA      C8 1379   7.946   9.055  11.931
   44DA      H8 1380   7.857   9.094  11.969
   44DA      N7 1381   7.982   8.937  11.958
   44DA      C5 1382   8.114   8.924  11.907
   44DA      C6 1383   8.212   8.825  11.892
   44DA      N6 1384   8.216   8.699  11.928
   44DA     H61 1385   8.298   8.648  11.911
   44DA     H62 1386   8.133   8.643  11.948
   44DA      N1 1387   8.330   8.858  11.844
   44DA      C2 1388   8.363   8.983  11.818
   44DA      H2 1389   8.469   8.998  11.777
   44DA      N3 1390   8.281   9.088  11.824
   44DA      C4 1391   8.154   9.045  11.863
   44DA     C3' 1392   7.894   9.466  11.891
   44DA     H3' 1393   7.789   9.482  11.926
   44DA     C2' 1394   7.903   9.333  11.811
   44DA    H2'1 1395   7.840   9.258  11.849
   44DA    H2'2 1396   7.894   9.350  11.704
   44DA     O3' 1397   7.940   9.583  11.827
   45DC       P 1398   7.911   9.633  11.676
   45DC     O1P 1399   7.949   9.774  11.668
   45DC     O2P 1400   7.774   9.591  11.644
   45DC     O5' 1401   8.014   9.550  11.586
   45DC     C5' 1402   8.153   9.573  11.596
   45DC    H5'1 1403   8.185   9.544  11.693
   45DC    H5'2 1404   8.181   9.677  11.599
   45DC     C4' 1405   8.238   9.494  11.496
   45DC     H4' 1406   8.332   9.536  11.501
   45DC     O4' 1407   8.236   9.355  11.528
   45DC     C1' 1408   8.191   9.271  11.422
   45DC     H1' 1409   8.276   9.224  11.372
   45DC      N1 1410   8.107   9.164  11.483
   45DC      C6 1411   7.969   9.165  11.496
   45DC      H6 1412   7.909   9.253  11.472
   45DC      C5 1413   7.902   9.062  11.544
   45DC      H5 1414   7.794   9.056  11.542
   45DC      C4 1415   7.978   8.947  11.577
   45DC      N4 1416   7.921   8.840  11.613
   45DC     H41 1417   7.973   8.763  11.609
   45DC     H42 1418   7.817   8.834  11.608
   45DC      N3 1419   8.108   8.940  11.560
   45DC      C2 1420   8.176   9.044  11.508
   45DC      O2 1421   8.293   9.023  11.476
   45DC     C3' 1422   8.199   9.495  11.341
   45DC     H3' 1423   8.144   9.584  11.321
   45DC     C2' 1424   8.117   9.365  11.323
   45DC    H2'1 1425   8.007   9.391  11.342
   45DC    H2'2 1426   8.124   9.324  11.222
   45DC     O3' 1427   8.317   9.489  11.262
   46DA       P 1428   8.327   9.463  11.100
   46DA     O1P 1429   8.458   9.514  11.050
   46DA     O2P 1430   8.204   9.521  11.039
   46DA     O5' 1431   8.326   9.308  11.076
   46DA     C5' 1432   8.435   9.230  11.106
   46DA    H5'1 1433   8.525   9.248  11.048
   46DA    H5'2 1434   8.434   9.244  11.220
   46DA     C4' 1435   8.380   9.088  11.071
   46DA     H4' 1436   8.471   9.015  11.078
   46DA     O4' 1437   8.271   9.040  11.159
   46DA     C1' 1438   8.220   8.927  11.093
   46DA     H1' 1439   8.287   8.849  11.085
   46DA      N9 1440   8.096   8.887  11.159
   46DA      C8 1441   7.995   8.969  11.203
   46DA      H8 1442   8.005   9.074  11.194
   46DA      N7 1443   7.901   8.898  11.264
   46DA      C5 1444   7.948   8.768  11.259
   46DA      C6 1445   7.899   8.644  11.308
   46DA      N6 1446   7.784   8.624  11.368
   46DA     H61 1447   7.746   8.531  11.377
   46DA     H62 1448   7.726   8.704  11.383
   46DA      N1 1449   7.965   8.529  11.290
   46DA      C2 1450   8.082   8.536  11.231
   46DA      H2 1451   8.133   8.440  11.210
   46DA      N3 1452   8.146   8.646  11.176
   46DA      C4 1453   8.065   8.758  11.190
   46DA     C3' 1454   8.323   9.070  10.932
   46DA     H3' 1455   8.288   9.170  10.903
   46DA     C2' 1456   8.192   8.982  10.956
   46DA    H2'1 1457   8.098   9.047  10.954
   46DA    H2'2 1458   8.166   8.917  10.874
   46DA     O3' 1459   8.412   9.001  10.844
   47DA       P 1460   8.372   8.981  10.684
   47DA     O1P 1461   8.498   9.016  10.609
   47DA     O2P 1462   8.250   9.044  10.641
   47DA     O5' 1463   8.349   8.822  10.689
   47DA     C5' 1464   8.455   8.731  10.725
   47DA    H5'1 1465   8.517   8.772  10.811
   47DA    H5'2 1466   8.514   8.719  10.635
   47DA     C4' 1467   8.399   8.598  10.767
   47DA     H4' 1468   8.476   8.539  10.809
   47DA     O4' 1469   8.291   8.615  10.862
   47DA     C1' 1470   8.210   8.499  10.848
   47DA     H1' 1471   8.244   8.423  10.922
   47DA      N9 1472   8.068   8.517  10.879
   47DA      C8 1473   7.995   8.629  10.863
   47DA      H8 1474   8.041   8.717  10.815
   47DA      N7 1475   7.881   8.625  10.924
   47DA      C5 1476   7.875   8.492  10.974
   47DA      C6 1477   7.778   8.423  11.043
   47DA      N6 1478   7.656   8.456  11.082
   47DA     H61 1479   7.598   8.389  11.129
   47DA     H62 1480   7.619   8.540  11.045
   47DA      N1 1481   7.813   8.299  11.070
   47DA      C2 1482   7.925   8.243  11.035
   47DA      H2 1483   7.948   8.138  11.048
   47DA      N3 1484   8.023   8.299  10.969
   47DA      C4 1485   7.992   8.427  10.945
   47DA     C3' 1486   8.347   8.522  10.651
   47DA     H3' 1487   8.308   8.586  10.567
   47DA     C2' 1488   8.227   8.450  10.704
   47DA    H2'1 1489   8.134   8.473  10.653
   47DA    H2'2 1490   8.242   8.341  10.709
   47DA     O3' 1491   8.458   8.438  10.600
   48DT       P 1492   8.437   8.336  10.477
   48DT     O1P 1493   8.568   8.275  10.435
   48DT     O2P 1494   8.346   8.401  10.376
   48DT     O5' 1495   8.361   8.219  10.554
   48DT     C5' 1496   8.430   8.122  10.637
   48DT    H5'1 1497   8.474   8.168  10.725
   48DT    H5'2 1498   8.501   8.071  10.569
   48DT     C4' 1499   8.339   8.004  10.678
   48DT     H4' 1500   8.386   7.946  10.753
   48DT     O4' 1501   8.223   8.061  10.740
   48DT     C1' 1502   8.105   8.001  10.696
   48DT     H1' 1503   8.094   7.908  10.758
   48DT      N1 1504   7.992   8.097  10.706
   48DT      C6 1505   7.992   8.216  10.636
   48DT      H6 1506   8.078   8.239  10.568
   48DT      C5 1507   7.886   8.295  10.650
   48DT      C7 1508   7.878   8.419  10.569
   48DT     H71 1509   7.777   8.431  10.545
   48DT     H72 1510   7.901   8.498  10.639
   48DT     H73 1511   7.927   8.408  10.475
   48DT      C4 1512   7.771   8.263  10.739
   48DT      O4 1513   7.665   8.322  10.758
   48DT      N3 1514   7.776   8.129  10.788
   48DT      H3 1515   7.691   8.090  10.835
   48DT      C2 1516   7.877   8.040  10.769
   48DT      O2 1517   7.872   7.930  10.827
   48DT     C3' 1518   8.292   7.914  10.564
   48DT     H3' 1519   8.343   7.944  10.476
   48DT     C2' 1520   8.140   7.949  10.554
   48DT    H2'1 1521   8.119   8.029  10.487
   48DT    H2'2 1522   8.083   7.857  10.522
   48DT     O3' 1523   8.313   7.773  10.591
   49DG       P 1524   8.294   7.662  10.480
   49DG     O1P 1525   8.375   7.540  10.516
   49DG     O2P 1526   8.312   7.729  10.351
   49DG     O5' 1527   8.143   7.618  10.507
   49DG     C5' 1528   8.101   7.569  10.633
   49DG    H5'1 1529   8.118   7.645  10.715
   49DG    H5'2 1530   8.158   7.481  10.660
   49DG     C4' 1531   7.958   7.528  10.644
   49DG     H4' 1532   7.947   7.457  10.727
   49DG     O4' 1533   7.879   7.645  10.663
   49DG     C1' 1534   7.762   7.632  10.587
   49DG     H1' 1535   7.684   7.573  10.634
   49DG      N9 1536   7.722   7.773  10.552
   49DG      C8 1537   7.797   7.865  10.485
   49DG      H8 1538   7.886   7.835  10.435
   49DG      N7 1539   7.739   7.984  10.471
   49DG      C5 1540   7.613   7.963  10.526
   49DG      C6 1541   7.508   8.055  10.549
   49DG      O6 1542   7.499   8.168  10.514
   49DG      N1 1543   7.410   8.006  10.632
   49DG      H1 1544   7.337   8.063  10.663
   49DG      C2 1545   7.417   7.886  10.691
   49DG      N2 1546   7.311   7.865  10.763
   49DG     H21 1547   7.238   7.933  10.766
   49DG     H22 1548   7.309   7.782  10.808
   49DG      N3 1549   7.512   7.795  10.673
   49DG      C4 1550   7.606   7.839  10.586
   49DG     C3' 1551   7.897   7.454  10.523
   49DG     H3' 1552   7.978   7.424  10.453
   49DG     C2' 1553   7.801   7.554  10.463
   49DG    H2'1 1554   7.858   7.619  10.407
   49DG    H2'2 1555   7.711   7.520  10.414
   49DG     O3' 1556   7.830   7.334  10.567
   50DT       P 1557   7.769   7.228  10.479
   50DT     O1P 1558   7.803   7.096  10.541
   50DT     O2P 1559   7.805   7.253  10.341
   50DT     O5' 1560   7.620   7.263  10.507
   50DT     C5' 1561   7.565   7.245  10.634
   50DT    H5'1 1562   7.618   7.313  10.697
   50DT    H5'2 1563   7.584   7.150  10.677
   50DT     C4' 1564   7.417   7.277  10.623
   50DT     H4' 1565   7.365   7.244  10.715
   50DT     O4' 1566   7.395   7.414  10.609
   50DT     C1' 1567   7.295   7.441  10.515
   50DT     H1' 1568   7.197   7.449  10.568
   50DT      N1 1569   7.313   7.568  10.445
   50DT      C6 1570   7.419   7.586  10.354
   50DT      H6 1571   7.492   7.504  10.336
   50DT      C5 1572   7.440   7.710  10.299
   50DT      C7 1573   7.550   7.731  10.202
   50DT     H71 1574   7.601   7.824  10.224
   50DT     H72 1575   7.617   7.654  10.216
   50DT     H73 1576   7.495   7.732  10.107
   50DT      C4 1577   7.342   7.819  10.317
   50DT      O4 1578   7.340   7.938  10.282
   50DT      N3 1579   7.229   7.783  10.385
   50DT      H3 1580   7.153   7.850  10.392
   50DT      C2 1581   7.214   7.670  10.461
   50DT      O2 1582   7.114   7.666  10.527
   50DT     C3' 1583   7.342   7.205  10.507
   50DT     H3' 1584   7.400   7.134  10.453
   50DT     C2' 1585   7.280   7.317  10.429
   50DT    H2'1 1586   7.341   7.330  10.335
   50DT    H2'2 1587   7.181   7.293  10.406
   50DT     O3' 1588   7.235   7.125  10.568
   51DA       P 1589   7.161   7.011  10.484
   51DA     O1P 1590   7.142   6.893  10.575
   51DA     O2P 1591   7.233   6.984  10.356
   51DA     O5' 1592   7.011   7.061  10.455
   51DA     C5' 1593   6.941   7.124  10.569
   51DA    H5'1 1594   7.021   7.168  10.635
   51DA    H5'2 1595   6.897   7.047  10.630
   51DA     C4' 1596   6.829   7.229  10.519
   51DA     H4' 1597   6.772   7.253  10.604
   51DA     O4' 1598   6.911   7.340  10.467
   51DA     C1' 1599   6.853   7.375  10.335
   51DA     H1' 1600   6.769   7.446  10.353
   51DA      N9 1601   6.956   7.440  10.252
   51DA      C8 1602   7.061   7.385  10.189
   51DA      H8 1603   7.086   7.273  10.203
   51DA      N7 1604   7.128   7.464  10.109
   51DA      C5 1605   7.063   7.583  10.127
   51DA      C6 1606   7.087   7.719  10.082
   51DA      N6 1607   7.191   7.768  10.008
   51DA     H61 1608   7.198   7.866   9.993
   51DA     H62 1609   7.261   7.715   9.964
   51DA      N1 1610   6.997   7.810  10.113
   51DA      C2 1611   6.888   7.782  10.185
   51DA      H2 1612   6.820   7.863  10.206
   51DA      N3 1613   6.865   7.663  10.236
   51DA      C4 1614   6.955   7.567  10.211
   51DA     C3' 1615   6.730   7.182  10.409
   51DA     H3' 1616   6.725   7.075  10.399
   51DA     C2' 1617   6.796   7.249  10.279
   51DA    H2'1 1618   6.879   7.189  10.253
   51DA    H2'2 1619   6.731   7.258  10.189
   51DA     O3' 1620   6.602   7.241  10.427
   52DT       P 1621   6.474   7.194  10.345
   52DT     O1P 1622   6.362   7.193  10.439
   52DT     O2P 1623   6.515   7.083  10.261
   52DT     O5' 1624   6.462   7.322  10.239
   52DT     C5' 1625   6.421   7.450  10.287
   52DT    H5'1 1626   6.484   7.475  10.369
   52DT    H5'2 1627   6.319   7.451  10.327
   52DT     C4' 1628   6.423   7.560  10.174
   52DT     H4' 1629   6.384   7.657  10.209
   52DT     O4' 1630   6.554   7.576  10.132
   52DT     C1' 1631   6.544   7.591   9.998
   52DT     H1' 1632   6.496   7.682   9.973
   52DT      N1 1633   6.679   7.596   9.938
   52DT      C6 1634   6.749   7.479   9.923
   52DT      H6 1635   6.708   7.388   9.964
   52DT      C5 1636   6.868   7.477   9.860
   52DT      C7 1637   6.941   7.347   9.830
   52DT     H71 1638   7.027   7.357   9.763
   52DT     H72 1639   6.949   7.293   9.919
   52DT     H73 1640   6.866   7.294   9.767
   52DT      C4 1641   6.922   7.598   9.803
   52DT      O4 1642   7.023   7.600   9.730
   52DT      N3 1643   6.842   7.708   9.821
   52DT      H3 1644   6.879   7.790   9.783
   52DT      C2 1645   6.733   7.717   9.895
   52DT      O2 1646   6.679   7.825   9.911
   52DT     C3' 1647   6.334   7.511  10.053
   52DT     H3' 1648   6.272   7.422  10.082
   52DT     C2' 1649   6.450   7.478   9.959
   52DT    H2'1 1650   6.481   7.381   9.983
   52DT    H2'2 1651   6.427   7.480   9.853
   52DT     O3' 1652   6.256   7.623  10.007
   53DA       P 1653   6.098   7.630  10.043
   53DA     O1P 1654   6.104   7.679  10.187
   53DA     O2P 1655   6.030   7.501  10.011
   53DA     O5' 1656   6.065   7.747   9.942
   53DA     C5' 1657   6.015   7.877   9.981
   53DA    H5'1 1658   6.089   7.913  10.050
   53DA    H5'2 1659   5.910   7.871  10.022
   53DA     C4' 1660   6.012   7.974   9.862
   53DA     H4' 1661   5.986   8.075   9.901
   53DA     O4' 1662   6.145   7.989   9.805
   53DA     C1' 1663   6.141   7.930   9.679
   53DA     H1' 1664   6.154   8.000   9.593
   53DA      N9 1665   6.267   7.846   9.657
   53DA      C8 1666   6.285   7.707   9.669
   53DA      H8 1667   6.209   7.642   9.701
   53DA      N7 1668   6.409   7.666   9.651
   53DA      C5 1669   6.470   7.783   9.610
   53DA      C6 1670   6.603   7.812   9.579
   53DA      N6 1671   6.694   7.717   9.561
   53DA     H61 1672   6.779   7.743   9.514
   53DA     H62 1673   6.673   7.623   9.583
   53DA      N1 1674   6.638   7.938   9.543
   53DA      C2 1675   6.548   8.033   9.547
   53DA      H2 1676   6.581   8.135   9.522
   53DA      N3 1677   6.418   8.019   9.588
   53DA      C4 1678   6.387   7.888   9.615
   53DA     C3' 1679   5.917   7.939   9.741
   53DA     H3' 1680   5.824   7.885   9.771
   53DA     C2' 1681   6.017   7.853   9.665
   53DA    H2'1 1682   6.025   7.757   9.712
   53DA    H2'2 1683   5.996   7.852   9.550
   53DA     O3' 1684   5.902   8.054   9.662
   54DA       P 1685   5.762   8.091   9.598
   54DA     O1P 1686   5.670   8.141   9.703
   54DA     O2P 1687   5.719   7.989   9.505
   54DA     O5' 1688   5.809   8.214   9.508
   54DA     C5' 1689   5.894   8.312   9.573
   54DA    H5'1 1690   5.966   8.277   9.640
   54DA    H5'2 1691   5.828   8.374   9.626
   54DA     C4' 1692   5.970   8.388   9.466
   54DA     H4' 1693   6.000   8.489   9.495
   54DA     O4' 1694   6.095   8.321   9.444
   54DA     C1' 1695   6.110   8.283   9.309
   54DA     H1' 1696   6.174   8.344   9.259
   54DA      N9 1697   6.163   8.150   9.318
   54DA      C8 1698   6.097   8.034   9.354
   54DA      H8 1699   5.992   8.041   9.389
   54DA      N7 1700   6.160   7.920   9.344
   54DA      C5 1701   6.282   7.972   9.295
   54DA      C6 1702   6.406   7.911   9.264
   54DA      N6 1703   6.436   7.784   9.261
   54DA     H61 1704   6.535   7.763   9.245
   54DA     H62 1705   6.370   7.709   9.275
   54DA      N1 1706   6.512   7.980   9.213
   54DA      C2 1707   6.497   8.112   9.201
   54DA      H2 1708   6.586   8.158   9.167
   54DA      N3 1709   6.393   8.187   9.233
   54DA      C4 1710   6.285   8.110   9.275
   54DA     C3' 1711   5.898   8.408   9.327
   54DA     H3' 1712   5.789   8.398   9.335
   54DA     C2' 1713   5.968   8.296   9.246
   54DA    H2'1 1714   5.915   8.205   9.257
   54DA    H2'2 1715   5.973   8.323   9.143
   54DA     O3' 1716   5.921   8.538   9.288
   55DT       P 1717   5.931   8.594   9.141
   55DT     O1P 1718   5.926   8.739   9.160
   55DT     O2P 1719   5.828   8.528   9.053
   55DT     O5' 1720   6.073   8.544   9.081
   55DT     C5' 1721   6.195   8.595   9.148
   55DT    H5'1 1722   6.201   8.549   9.244
   55DT    H5'2 1723   6.196   8.708   9.157
   55DT     C4' 1724   6.321   8.570   9.058
   55DT     H4' 1725   6.397   8.630   9.106
   55DT     O4' 1726   6.352   8.432   9.061
   55DT     C1' 1727   6.373   8.382   8.929
   55DT     H1' 1728   6.473   8.398   8.897
   55DT      N1 1729   6.335   8.241   8.919
   55DT      C6 1730   6.204   8.201   8.936
   55DT      H6 1731   6.125   8.277   8.956
   55DT      C5 1732   6.173   8.068   8.942
   55DT      C7 1733   6.028   8.036   8.965
   55DT     H71 1734   6.019   7.925   8.959
   55DT     H72 1735   5.997   8.070   9.063
   55DT     H73 1736   5.965   8.098   8.897
   55DT      C4 1737   6.278   7.969   8.937
   55DT      O4 1738   6.258   7.848   8.946
   55DT      N3 1739   6.407   8.014   8.915
   55DT      H3 1740   6.488   7.951   8.886
   55DT      C2 1741   6.439   8.146   8.911
   55DT      O2 1742   6.557   8.174   8.890
   55DT     C3' 1743   6.326   8.605   8.908
   55DT     H3' 1744   6.255   8.684   8.889
   55DT     C2' 1745   6.291   8.475   8.840
   55DT    H2'1 1746   6.186   8.456   8.843
   55DT    H2'2 1747   6.324   8.477   8.742
   55DT     O3' 1748   6.450   8.659   8.870
   56DA       P 1749   6.474   8.736   8.741
   56DA     O1P 1750   6.595   8.816   8.765
   56DA     O2P 1751   6.350   8.800   8.693
   56DA     O5' 1752   6.513   8.624   8.634
   56DA     C5' 1753   6.648   8.561   8.622
   56DA    H5'1 1754   6.676   8.517   8.716
   56DA    H5'2 1755   6.719   8.638   8.598
   56DA     C4' 1756   6.636   8.455   8.508
   56DA     H4' 1757   6.731   8.414   8.479
   56DA     O4' 1758   6.547   8.354   8.554
   56DA     C1' 1759   6.446   8.333   8.451
   56DA     H1' 1760   6.496   8.280   8.364
   56DA      N9 1761   6.329   8.255   8.499
   56DA      C8 1762   6.198   8.290   8.527
   56DA      H8 1763   6.148   8.381   8.517
   56DA      N7 1764   6.123   8.191   8.563
   56DA      C5 1765   6.215   8.080   8.563
   56DA      C6 1766   6.212   7.941   8.596
   56DA      N6 1767   6.113   7.881   8.660
   56DA     H61 1768   6.116   7.778   8.661
   56DA     H62 1769   6.023   7.919   8.668
   56DA      N1 1770   6.314   7.860   8.586
   56DA      C2 1771   6.425   7.909   8.533
   56DA      H2 1772   6.502   7.840   8.508
   56DA      N3 1773   6.446   8.039   8.506
   56DA      C4 1774   6.336   8.120   8.515
   56DA     C3' 1775   6.567   8.529   8.389
   56DA     H3' 1776   6.565   8.635   8.388
   56DA     C2' 1777   6.423   8.475   8.393
   56DA    H2'1 1778   6.355   8.523   8.465
   56DA    H2'2 1779   6.372   8.463   8.291
   56DA     O3' 1780   6.617   8.489   8.269
   57DC       P 1781   6.605   8.577   8.131
   57DC     O1P 1782   6.660   8.710   8.147
   57DC     O2P 1783   6.469   8.570   8.073
   57DC     O5' 1784   6.693   8.484   8.039
   57DC     C5' 1785   6.826   8.448   8.080
   57DC    H5'1 1786   6.831   8.460   8.189
   57DC    H5'2 1787   6.899   8.519   8.041
   57DC     C4' 1788   6.872   8.309   8.035
   57DC     H4' 1789   6.976   8.299   8.065
   57DC     O4' 1790   6.792   8.211   8.112
   57DC     C1' 1791   6.696   8.146   8.027
   57DC     H1' 1792   6.733   8.046   8.008
   57DC      N1 1793   6.560   8.147   8.093
   57DC      C6 1794   6.463   8.244   8.072
   57DC      H6 1795   6.490   8.331   8.021
   57DC      C5 1796   6.334   8.231   8.118
   57DC      H5 1797   6.267   8.316   8.100
   57DC      C4 1798   6.301   8.114   8.183
   57DC      N4 1799   6.181   8.108   8.231
   57DC     H41 1800   6.156   8.022   8.285
   57DC     H42 1801   6.124   8.189   8.223
   57DC      N3 1802   6.385   8.014   8.200
   57DC      C2 1803   6.516   8.029   8.155
   57DC      O2 1804   6.593   7.933   8.179
   57DC     C3' 1805   6.847   8.275   7.888
   57DC     H3' 1806   6.849   8.370   7.838
   57DC     C2' 1807   6.705   8.213   7.887
   57DC    H2'1 1808   6.626   8.295   7.869
   57DC    H2'2 1809   6.693   8.134   7.811
   57DC     O3' 1810   6.940   8.176   7.837
   58DG       P 1811   6.941   8.141   7.677
   58DG     O1P 1812   7.082   8.141   7.641
   58DG     O2P 1813   6.857   8.225   7.596
   58DG     O5' 1814   6.877   8.004   7.679
   58DG     C5' 1815   6.912   7.907   7.775
   58DG    H5'1 1816   6.923   7.949   7.877
   58DG    H5'2 1817   7.009   7.858   7.761
   58DG     C4' 1818   6.804   7.790   7.785
   58DG     H4' 1819   6.849   7.707   7.837
   58DG     O4' 1820   6.687   7.836   7.847
   58DG     C1' 1821   6.581   7.772   7.771
   58DG     H1' 1822   6.575   7.665   7.794
   58DG      N9 1823   6.452   7.843   7.784
   58DG      C8 1824   6.432   7.973   7.749
   58DG      H8 1825   6.501   8.034   7.694
   58DG      N7 1826   6.320   8.018   7.799
   58DG      C5 1827   6.259   7.904   7.855
   58DG      C6 1828   6.131   7.883   7.913
   58DG      O6 1829   6.041   7.959   7.945
   58DG      N1 1830   6.109   7.752   7.949
   58DG      H1 1831   6.018   7.736   7.998
   58DG      C2 1832   6.197   7.654   7.946
   58DG      N2 1833   6.156   7.536   7.980
   58DG     H21 1834   6.067   7.513   8.021
   58DG     H22 1835   6.223   7.466   7.971
   58DG      N3 1836   6.317   7.663   7.885
   58DG      C4 1837   6.342   7.789   7.843
   58DG     C3' 1838   6.778   7.744   7.640
   58DG     H3' 1839   6.841   7.807   7.575
   58DG     C2' 1840   6.632   7.778   7.626
   58DG    H2'1 1841   6.618   7.873   7.585
   58DG    H2'2 1842   6.583   7.701   7.560
   58DG     O3' 1843   6.822   7.606   7.635
   59DC       P 1844   6.838   7.536   7.495
   59DC     O1P 1845   6.912   7.417   7.526
   59DC     O2P 1846   6.886   7.626   7.384
   59DC     O5' 1847   6.697   7.491   7.453
   59DC     C5' 1848   6.639   7.387   7.524
   59DC    H5'1 1849   6.651   7.406   7.638
   59DC    H5'2 1850   6.690   7.301   7.492
   59DC     C4' 1851   6.490   7.370   7.494
   59DC     H4' 1852   6.454   7.275   7.523
   59DC     O4' 1853   6.406   7.464   7.563
   59DC     C1' 1854   6.321   7.525   7.467
   59DC     H1' 1855   6.235   7.458   7.464
   59DC      N1 1856   6.264   7.656   7.493
   59DC      C6 1857   6.325   7.768   7.452
   59DC      H6 1858   6.411   7.761   7.399
   59DC      C5 1859   6.266   7.891   7.459
   59DC      H5 1860   6.308   7.978   7.410
   59DC      C4 1861   6.143   7.899   7.528
   59DC      N4 1862   6.094   8.011   7.566
   59DC     H41 1863   6.011   8.015   7.622
   59DC     H42 1864   6.153   8.093   7.570
   59DC      N3 1865   6.089   7.792   7.585
   59DC      C2 1866   6.146   7.666   7.575
   59DC      O2 1867   6.106   7.572   7.638
   59DC     C3' 1868   6.462   7.381   7.347
   59DC     H3' 1869   6.556   7.382   7.291
   59DC     C2' 1870   6.400   7.517   7.333
   59DC    H2'1 1871   6.485   7.582   7.326
   59DC    H2'2 1872   6.331   7.533   7.249
   59DC     O3' 1873   6.366   7.285   7.307
   60DA       P 1874   6.406   7.139   7.257
   60DA     O1P 1875   6.507   7.081   7.343
   60DA     O2P 1876   6.427   7.143   7.111
   60DA     O5' 1877   6.280   7.046   7.277
   60DA     C5' 1878   6.219   7.039   7.402
   60DA    H5'1 1879   6.275   7.112   7.466
   60DA    H5'2 1880   6.226   6.941   7.449
   60DA     C4' 1881   6.070   7.077   7.410
   60DA     H4' 1882   6.015   7.047   7.501
   60DA     O4' 1883   6.056   7.207   7.422
   60DA     C1' 1884   5.952   7.253   7.339
   60DA     H1' 1885   5.856   7.240   7.389
   60DA      N9 1886   5.978   7.395   7.313
   60DA      C8 1887   6.070   7.460   7.241
   60DA      H8 1888   6.145   7.396   7.190
   60DA      N7 1889   6.069   7.590   7.239
   60DA      C5 1890   5.950   7.614   7.305
   60DA      C6 1891   5.880   7.727   7.337
   60DA      N6 1892   5.905   7.852   7.312
   60DA     H61 1893   5.848   7.920   7.357
   60DA     H62 1894   5.998   7.887   7.277
   60DA      N1 1895   5.768   7.713   7.407
   60DA      C2 1896   5.729   7.599   7.452
   60DA      H2 1897   5.640   7.603   7.510
   60DA      N3 1898   5.790   7.490   7.430
   60DA      C4 1899   5.894   7.497   7.346
   60DA     C3' 1900   5.992   7.028   7.286
   60DA     H3' 1901   6.046   6.967   7.221
   60DA     C2' 1902   5.971   7.160   7.218
   60DA    H2'1 1903   6.049   7.195   7.158
   60DA    H2'2 1904   5.885   7.165   7.155
   60DA     O3' 1905   5.865   6.971   7.322
   61DC       P 1906   5.777   6.895   7.214
   61DC     O1P 1907   5.719   6.773   7.278
   61DC     O2P 1908   5.855   6.882   7.089
   61DC     O5' 1909   5.660   7.002   7.199
   61DC     C5' 1910   5.585   7.047   7.308
   61DC    H5'1 1911   5.651   7.083   7.384
   61DC    H5'2 1912   5.519   6.965   7.348
   61DC     C4' 1913   5.508   7.168   7.265
   61DC     H4' 1914   5.452   7.204   7.358
   61DC     O4' 1915   5.593   7.278   7.227
   61DC     C1' 1916   5.534   7.344   7.119
   61DC     H1' 1917   5.441   7.391   7.152
   61DC      N1 1918   5.623   7.442   7.049
   61DC      C6 1919   5.700   7.414   6.945
   61DC      H6 1920   5.698   7.308   6.906
   61DC      C5 1921   5.787   7.507   6.896
   61DC      H5 1922   5.859   7.472   6.820
   61DC      C4 1923   5.788   7.636   6.956
   61DC      N4 1924   5.874   7.724   6.920
   61DC     H41 1925   5.880   7.803   6.983
   61DC     H42 1926   5.954   7.706   6.863
   61DC      N3 1927   5.714   7.667   7.061
   61DC      C2 1928   5.629   7.571   7.104
   61DC      O2 1929   5.549   7.597   7.199
   61DC     C3' 1930   5.415   7.147   7.146
   61DC     H3' 1931   5.395   7.043   7.115
   61DC     C2' 1932   5.478   7.225   7.038
   61DC    H2'1 1933   5.557   7.166   6.988
   61DC    H2'2 1934   5.403   7.266   6.975
   61DC     O3' 1935   5.285   7.197   7.170
   62DA       P 1936   5.159   7.135   7.096
   62DA     O1P 1937   5.100   7.042   7.194
   62DA     O2P 1938   5.212   7.083   6.966
   62DA     O5' 1939   5.049   7.241   7.070
   62DA     C5' 1940   4.979   7.297   7.172
   62DA    H5'1 1941   5.060   7.310   7.251
   62DA    H5'2 1942   4.901   7.228   7.192
   62DA     C4' 1943   4.916   7.438   7.149
   62DA     H4' 1944   4.873   7.488   7.237
   62DA     O4' 1945   5.029   7.526   7.124
   62DA     C1' 1946   5.015   7.596   7.000
   62DA     H1' 1947   4.968   7.692   7.015
   62DA      N9 1948   5.152   7.620   6.951
   62DA      C8 1949   5.250   7.524   6.915
   62DA      H8 1950   5.237   7.415   6.926
   62DA      N7 1951   5.360   7.571   6.867
   62DA      C5 1952   5.332   7.709   6.861
   62DA      C6 1953   5.403   7.820   6.819
   62DA      N6 1954   5.533   7.808   6.784
   62DA     H61 1955   5.587   7.888   6.759
   62DA     H62 1956   5.586   7.717   6.796
   62DA      N1 1957   5.354   7.944   6.824
   62DA      C2 1958   5.237   7.961   6.876
   62DA      H2 1959   5.206   8.061   6.882
   62DA      N3 1960   5.154   7.865   6.922
   62DA      C4 1961   5.207   7.739   6.920
   62DA     C3' 1962   4.823   7.454   7.025
   62DA     H3' 1963   4.784   7.351   6.997
   62DA     C2' 1964   4.922   7.500   6.917
   62DA    H2'1 1965   4.975   7.413   6.874
   62DA    H2'2 1966   4.868   7.549   6.832
   62DA     O3' 1967   4.720   7.555   7.055
   63DT       P 1968   4.622   7.615   6.943
   63DT     O1P 1969   4.498   7.660   7.016
   63DT     O2P 1970   4.608   7.518   6.835
   63DT     O5' 1971   4.696   7.748   6.892
   63DT     C5' 1972   4.704   7.868   6.976
   63DT    H5'1 1973   4.809   7.858   7.022
   63DT    H5'2 1974   4.622   7.875   7.050
   63DT     C4' 1975   4.703   7.986   6.873
   63DT     H4' 1976   4.665   8.074   6.928
   63DT     O4' 1977   4.834   7.995   6.816
   63DT     C1' 1978   4.827   7.966   6.682
   63DT     H1' 1979   4.826   8.064   6.622
   63DT      N1 1980   4.948   7.899   6.628
   63DT      C6 1981   4.957   7.762   6.611
   63DT      H6 1982   4.874   7.702   6.641
   63DT      C5 1983   5.071   7.704   6.569
   63DT      C7 1984   5.094   7.557   6.574
   63DT     H71 1985   5.195   7.533   6.605
   63DT     H72 1986   5.016   7.510   6.638
   63DT     H73 1987   5.089   7.526   6.471
   63DT      C4 1988   5.188   7.784   6.537
   63DT      O4 1989   5.296   7.735   6.509
   63DT      N3 1990   5.167   7.923   6.549
   63DT      H3 1991   5.255   7.973   6.549
   63DT      C2 1992   5.054   7.981   6.598
   63DT      O2 1993   5.053   8.103   6.615
   63DT     C3' 1994   4.601   7.971   6.762
   63DT     H3' 1995   4.528   7.903   6.801
   63DT     C2' 1996   4.685   7.899   6.651
   63DT    H2'1 1997   4.689   7.793   6.667
   63DT    H2'2 1998   4.661   7.907   6.542
   63DT     O3' 1999   4.548   8.093   6.715
   64DG       P 2000   4.444   8.103   6.595
   64DG     O1P 2001   4.366   8.226   6.609
   64DG     O2P 2002   4.371   7.974   6.594
   64DG     O5' 2003   4.522   8.110   6.459
   64DG     C5' 2004   4.577   8.236   6.423
   64DG    H5'1 2005   4.627   8.289   6.504
   64DG    H5'2 2006   4.496   8.296   6.384
   64DG     C4' 2007   4.687   8.216   6.322
   64DG     H4' 2008   4.739   8.306   6.313
   64DG     O4' 2009   4.789   8.122   6.356
   64DG     C1' 2010   4.796   8.037   6.246
   64DG     H1' 2011   4.860   8.089   6.173
   64DG      N9 2012   4.868   7.906   6.275
   64DG      C8 2013   4.821   7.779   6.294
   64DG      H8 2014   4.723   7.758   6.332
   64DG      N7 2015   4.905   7.685   6.270
   64DG      C5 2016   5.023   7.758   6.235
   64DG      C6 2017   5.152   7.715   6.194
   64DG      O6 2018   5.188   7.599   6.181
   64DG      N1 2019   5.236   7.816   6.155
   64DG      H1 2020   5.327   7.787   6.114
   64DG      C2 2021   5.206   7.947   6.175
   64DG      N2 2022   5.287   8.032   6.118
   64DG     H21 2023   5.385   8.013   6.086
   64DG     H22 2024   5.258   8.127   6.126
   64DG      N3 2025   5.089   7.991   6.222
   64DG      C4 2026   5.001   7.892   6.235
   64DG     C3' 2027   4.629   8.169   6.190
   64DG     H3' 2028   4.520   8.168   6.195
   64DG     C2' 2029   4.662   8.020   6.182
   64DG    H2'1 2030   4.593   7.958   6.237
   64DG    H2'2 2031   4.675   7.989   6.078
   64DG     O3' 2032   4.660   8.251   6.079
   65DC       P 2033   4.578   8.392   6.049
   65DC     O1P 2034   4.569   8.482   6.167
   65DC     O2P 2035   4.446   8.352   5.986
   65DC     O5' 2036   4.667   8.465   5.940
   65DC     C5' 2037   4.791   8.524   5.984
   65DC    H5'1 2038   4.816   8.517   6.092
   65DC    H5'2 2039   4.784   8.626   5.945
   65DC     C4' 2040   4.899   8.454   5.907
   65DC     H4' 2041   4.988   8.512   5.919
   65DC     O4' 2042   4.928   8.320   5.955
   65DC     C1' 2043   4.949   8.252   5.834
   65DC     H1' 2044   5.035   8.295   5.783
   65DC      N1 2045   4.964   8.103   5.856
   65DC      C6 2046   4.854   8.027   5.885
   65DC      H6 2047   4.763   8.080   5.900
   65DC      C5 2048   4.865   7.892   5.886
   65DC      H5 2049   4.774   7.838   5.911
   65DC      C4 2050   4.993   7.832   5.863
   65DC      N4 2051   5.015   7.707   5.892
   65DC     H41 2052   5.109   7.673   5.885
   65DC     H42 2053   4.932   7.649   5.915
   65DC      N3 2054   5.095   7.910   5.829
   65DC      C2 2055   5.088   8.047   5.830
   65DC      O2 2056   5.189   8.110   5.805
   65DC     C3' 2057   4.863   8.442   5.759
   65DC     H3' 2058   4.777   8.497   5.737
   65DC     C2' 2059   4.838   8.290   5.739
   65DC    H2'1 2060   4.742   8.266   5.772
   65DC    H2'2 2061   4.862   8.260   5.640
   65DC     O3' 2062   4.962   8.500   5.675
   66DG3      P 2063   4.964   8.478   5.518
   66DG3    O1P 2064   5.003   8.608   5.457
   66DG3    O2P 2065   4.834   8.420   5.470
   66DG3    O5' 2066   5.071   8.363   5.475
   66DG3    C5' 2067   5.211   8.378   5.490
   66DG3   H5'1 2068   5.230   8.371   5.594
   66DG3   H5'2 2069   5.253   8.483   5.460
   66DG3    C4' 2070   5.314   8.286   5.422
   66DG3    H4' 2071   5.417   8.332   5.441
   66DG3    O4' 2072   5.307   8.154   5.479
   66DG3    C1' 2073   5.276   8.061   5.374
   66DG3    H1' 2074   5.368   8.011   5.336
   66DG3     N9 2075   5.190   7.954   5.432
   66DG3     C8 2076   5.054   7.954   5.457
   66DG3     H8 2077   4.981   8.040   5.455
   66DG3     N7 2078   5.014   7.840   5.507
   66DG3     C5 2079   5.124   7.753   5.504
   66DG3     C6 2080   5.142   7.616   5.534
   66DG3     O6 2081   5.059   7.525   5.564
   66DG3     N1 2082   5.277   7.573   5.518
   66DG3     H1 2083   5.295   7.480   5.537
   66DG3     C2 2084   5.377   7.650   5.472
   66DG3     N2 2085   5.495   7.599   5.457
   66DG3    H21 2086   5.502   7.496   5.459
   66DG3    H22 2087   5.567   7.663   5.419
   66DG3     N3 2088   5.363   7.778   5.437
   66DG3     C4 2089   5.236   7.824   5.460
   66DG3    C3' 2090   5.282   8.269   5.272
   66DG3    H3' 2091   5.208   8.349   5.236
   66DG3    C2' 2092   5.214   8.137   5.263
   66DG3   H2'1 2093   5.114   8.157   5.284
   66DG3   H2'2 2094   5.233   8.093   5.168
   66DG3    O3' 2095   5.398   8.262   5.181
   66DG3    H3T 2096   5.466   8.333   5.210
   67SOL     OW 2097   8.644  11.987  14.172
   67SOL    HW1 2098   8.593  11.940  14.107
   67SOL    HW2 2099   8.597  11.974  14.254
   68SOL     OW 2100   2.423   5.730   1.178
   68SOL    HW1 2101   2.390   5.787   1.247
   68SOL    HW2 2102   2.517   5.748   1.175
   69SOL     OW 2103   6.891   9.207   2.623
   69SOL    HW1 2104   6.823   9.240   2.682
   69SOL    HW2 2105   6.876   9.252   2.540
   70SOL     OW 2106   8.015   3.248   6.383
   70SOL    HW1 2107   8.001   3.175   6.323
   70SOL    HW2 2108   8.089   3.297   6.346
   71SOL     OW 2109   6.962   6.606   0.814
   71SOL    HW1 2110   7.042   6.609   0.762
   71SOL    HW2 2111   6.988   6.636   0.901
   72SOL     OW 2112   1.155   8.413   2.304
   72SOL    HW1 2113   1.250   8.417   2.296
   72SOL    HW2 2114   1.122   8.458   2.227
   73SOL     OW 2115   0.178   2.355  10.491
   73SOL    HW1 2116   0.116   2.286  10.517
   73SOL    HW2 2117   0.260   2.308  10.477
   74SOL     OW 2118  10.150  12.025   2.852
   74SOL    HW1 2119  10.117  12.062   2.934
   74SOL    HW2 2120  10.223  12.082   2.827
   75SOL     OW 2121   2.395   1.561   2.655
   75SOL    HW1 2122   2.409   1.649   2.690
   75SOL    HW2 2123   2.426   1.565   2.565
   76SOL     OW 2124   5.890   2.542   0.571
   76SOL    HW1 2125   5.970   2.560   0.520
   76SOL    HW2 2126   5.820   2.586   0.522
   77SOL     OW 2127   9.164  10.630  12.648
   77SOL    HW1 2128   9.092  10.625  12.586
   77SOL    HW2 2129   9.171  10.542  12.685
   78SOL     OW 2130   5.939   9.622  11.307
   78SOL    HW1 2131   6.027   9.585  11.313
   78SOL    HW2 2132   5.953   9.712  11.280
   79SOL     OW 2133   7.394   9.719  10.729
   79SOL    HW1 2134   7.410   9.745  10.819
   79SOL    HW2 2135   7.470   9.751  10.681
   80SOL     OW 2136  14.360   3.569   8.138
   80SOL    HW1 2137  14.308   3.542   8.062
   80SOL    HW2 2138  14.301   3.625   8.188
   81SOL     OW 2139   2.031   0.037   1.520
   81SOL    HW1 2140   2.077   0.019   1.602
   81SOL    HW2 2141   1.943   0.065   1.547
   82SOL     OW 2142   4.935  11.428  10.373
   82SOL    HW1 2143   4.955  11.385  10.456
   82SOL    HW2 2144   4.840  11.436  10.372
   83SOL     OW 2145  11.577   0.079   2.774
   83SOL    HW1 2146  11.572   0.165   2.817
   83SOL    HW2 2147  11.610   0.098   2.687
   84SOL     OW 2148   7.941  14.401   2.985
   84SOL    HW1 2149   8.034  14.395   2.966
   84SOL    HW2 2150   7.918  14.492   2.966
   85SOL     OW 2151   4.985   2.450  10.490
   85SOL    HW1 2152   5.064   2.504  10.481
   85SOL    HW2 2153   4.913   2.512  10.479
   86SOL     OW 2154  12.667   3.640  11.343
   86SOL    HW1 2155  12.626   3.726  11.355
   86SOL    HW2 2156  12.594   3.583  11.317
   87SOL     OW 2157   5.309   3.412  12.170
   87SOL    HW1 2158   5.248   3.480  12.199
   87SOL    HW2 2159   5.374   3.407  12.240
   88SOL     OW 2160   7.401   0.139   9.942
   88SOL    HW1 2161   7.462   0.104   9.877
   88SOL    HW2 2162   7.395   0.232   9.921
   89SOL     OW 2163  11.256  13.695   4.361
   89SOL    HW1 2164  11.284  13.784   4.381
   89SOL    HW2 2165  11.189  13.676   4.426
   90SOL     OW 2166  11.582   3.376   4.460
   90SOL    HW1 2167  11.575   3.337   4.547
   90SOL    HW2 2168  11.555   3.467   4.473
   91SOL     OW 2169  11.072  10.360  13.924
   91SOL    HW1 2170  11.074  10.275  13.967
   91SOL    HW2 2171  11.092  10.342  13.832
   92SOL     OW 2172  11.266   2.461   6.384
   92SOL    HW1 2173  11.188   2.455   6.329
   92SOL    HW2 2174  11.245   2.409   6.462
   93SOL     OW 2175   2.991  14.080   9.012
   93SOL    HW1 2176   2.967  14.156   9.065
   93SOL    HW2 2177   2.952  14.097   8.927
   94SOL     OW 2178   5.863   4.893   2.729
   94SOL    HW1 2179   5.953   4.919   2.709
   94SOL    HW2 2180   5.869   4.799   2.747
   95SOL     OW 2181   9.697  12.927   0.386
   95SOL    HW1 2182   9.702  12.884   0.471
   95SOL    HW2 2183   9.776  12.898   0.339
   96SOL     OW 2184   1.490   2.281   5.724
   96SOL    HW1 2185   1.478   2.187   5.727
   96SOL    HW2 2186   1.455   2.308   5.640
   97SOL     OW 2187  13.955   8.048  11.486
   97SOL    HW1 2188  13.991   8.104  11.555
   97SOL    HW2 2189  13.883   8.098  11.449
   98SOL     OW 2190  11.158  13.823   2.734
   98SOL    HW1 2191  11.102  13.810   2.810
   98SOL    HW2 2192  11.212  13.744   2.731
   99SOL     OW 2193   9.208  10.153  14.702
   99SOL    HW1 2194   9.124  10.138  14.745
   99SOL    HW2 2195   9.190  10.134  14.609
  100SOL     OW 2196   1.054  14.728   5.442
  100SOL    HW1 2197   1.031  14.644   5.404
  100SOL    HW2 2198   1.149  14.730   5.442
  101SOL     OW 2199  12.144   7.205   8.138
  101SOL    HW1 2200  12.152   7.113   8.161
  101SOL    HW2 2201  12.212   7.249   8.189
  102SOL     OW 2202  13.449   8.205   6.995
  102SOL    HW1 2203  13.437   8.250   6.911
  102SOL    HW2 2204  13.367   8.160   7.010
  103SOL     OW 2205   6.478   9.143  12.417
  103SOL    HW1 2206   6.497   9.189  12.498
  103SOL    HW2 2207   6.536   9.067  12.419
  104SOL     OW 2208  12.219   4.218   7.555
  104SOL    HW1 2209  12.287   4.249   7.614
  104SOL    HW2 2210  12.210   4.125   7.576
  105SOL     OW 2211   3.500   9.165  10.471
  105SOL    HW1 2212   3.462   9.116  10.544
  105SOL    HW2 2213   3.505   9.103  10.399
  106SOL     OW 2214  13.013   0.632   0.105
  106SOL    HW1 2215  13.032   0.585   0.186
  106SOL    HW2 2216  12.945   0.579   0.062
  107SOL     OW 2217   1.546   8.157  11.609
  107SOL    HW1 2218   1.536   8.249  11.635
  107SOL    HW2 2219   1.499   8.152  11.525
  108SOL     OW 2220   7.500   3.146   0.312
  108SOL    HW1 2221   7.525   3.054   0.314
  108SOL    HW2 2222   7.582   3.193   0.329
  109SOL     OW 2223   2.016   1.005   8.837
  109SOL    HW1 2224   1.966   1.021   8.757
  109SOL    HW2 2225   1.995   1.079   8.894
  110SOL     OW 2226  10.549   3.896  11.347
  110SOL    HW1 2227  10.634   3.870  11.382
  110SOL    HW2 2228  10.485   3.856  11.405
  111SOL     OW 2229  13.377  10.010   2.295
  111SOL    HW1 2230  13.380  10.044   2.206
  111SOL    HW2 2231  13.450  10.053   2.340
  112SOL     OW 2232   0.660  13.986   0.452
  112SOL    HW1 2233   0.667  13.963   0.359
  112SOL    HW2 2234   0.707  13.916   0.497
  113SOL     OW 2235  13.595   0.474  13.022
  113SOL    HW1 2236  13.602   0.526  12.942
  113SOL    HW2 2237  13.509   0.497  13.057
  114SOL     OW 2238   5.960   5.587   6.215
  114SOL    HW1 2239   6.039   5.636   6.192
  114SOL    HW2 2240   5.901   5.652   6.252
  115SOL     OW 2241   3.626   3.243  12.273
  115SOL    HW1 2242   3.719   3.236  12.252
  115SOL    HW2 2243   3.582   3.239  12.188
  116SOL     OW 2244   4.634   5.167   9.722
  116SOL    HW1 2245   4.667   5.110   9.791
  116SOL    HW2 2246   4.542   5.142   9.712
  117SOL     OW 2247   8.050  11.756  14.097
  117SOL    HW1 2248   8.078  11.825  14.157
  117SOL    HW2 2249   8.033  11.681  14.154
  118SOL     OW 2250  14.805   4.862   6.619
  118SOL    HW1 2251  14.746   4.934   6.642
  118SOL    HW2 2252  14.768   4.786   6.664
  119SOL     OW 2253  10.134   6.380   4.973
  119SOL    HW1 2254  10.089   6.374   5.057
  119SOL    HW2 2255  10.225   6.360   4.992
  120SOL     OW 2256   7.696   0.123   6.187
  120SOL    HW1 2257   7.776   0.151   6.231
  120SOL    HW2 2258   7.625   0.161   6.240
  121SOL     OW 2259   0.200  10.819   3.400
  121SOL    HW1 2260   0.246  10.832   3.483
  121SOL    HW2 2261   0.255  10.757   3.352
  122SOL     OW 2262   5.691   5.579   8.375
  122SOL    HW1 2263   5.712   5.577   8.282
  122SOL    HW2 2264   5.599   5.606   8.378
  123SOL     OW 2265  14.100  11.363   6.887
  123SOL    HW1 2266  14.101  11.270   6.911
  123SOL    HW2 2267  14.030  11.369   6.821
  124SOL     OW 2268   9.094  12.252   1.727
  124SOL    HW1 2269   9.174  12.284   1.685
  124SOL    HW2 2270   9.118  12.240   1.819
  125SOL     OW 2271  10.140   1.607   9.066
  125SOL    HW1 2272  10.206   1.603   8.996
  125SOL    HW2 2273  10.092   1.524   9.058
  126SOL     OW 2274   5.241   4.108  13.528
  126SOL    HW1 2275   5.287   4.177  13.575
  126SOL    HW2 2276   5.309   4.047  13.500
  127SOL     OW 2277   0.151   0.680   8.667
  127SOL    HW1 2278   0.150   0.692   8.572
  127SOL    HW2 2279   0.063   0.648   8.688
  128SOL     OW 2280   2.834   0.143   5.575
  128SOL    HW1 2281   2.902   0.082   5.547
  128SOL    HW2 2282   2.766   0.087   5.614
  129SOL     OW 2283   9.651   9.233  14.514
  129SOL    HW1 2284   9.698   9.175  14.455
  129SOL    HW2 2285   9.703   9.313  14.516
  130SOL     OW 2286   7.633   6.433   5.877
  130SOL    HW1 2287   7.554   6.429   5.930
  130SOL    HW2 2288   7.666   6.343   5.877
  131SOL     OW 2289   8.691   5.843  12.392
  131SOL    HW1 2290   8.780   5.872  12.412
  131SOL    HW2 2291   8.681   5.760  12.438
  132SOL     OW 2292   1.699  13.221   2.123
  132SOL    HW1 2293   1.754  13.149   2.091
  132SOL    HW2 2294   1.753  13.266   2.187
  133SOL     OW 2295  12.720   7.439   2.559
  133SOL    HW1 2296  12.719   7.343   2.561
  133SOL    HW2 2297  12.807   7.462   2.592
  134SOL     OW 2298  12.719   5.202   6.705
  134SOL    HW1 2299  12.781   5.202   6.779
  134SOL    HW2 2300  12.644   5.152   6.737
  135SOL     OW 2301   5.937  11.764  10.438
  135SOL    HW1 2302   5.857  11.747  10.388
  135SOL    HW2 2303   5.948  11.859  10.434
  136SOL     OW 2304   4.964   4.573   3.289
  136SOL    HW1 2305   4.951   4.505   3.355
  136SOL    HW2 2306   4.913   4.647   3.321
  137SOL     OW 2307   0.292   4.136   3.472
  137SOL    HW1 2308   0.266   4.203   3.535
  137SOL    HW2 2309   0.388   4.137   3.475
  138SOL     OW 2310  11.543  14.166   3.203
  138SOL    HW1 2311  11.521  14.078   3.235
  138SOL    HW2 2312  11.568  14.152   3.111
  139SOL     OW 2313   2.376  10.816   1.763
  139SOL    HW1 2314   2.370  10.891   1.821
  139SOL    HW2 2315   2.318  10.838   1.689
  140SOL     OW 2316   3.498  10.329   2.176
  140SOL    HW1 2317   3.446  10.394   2.225
  140SOL    HW2 2318   3.505  10.366   2.088
  141SOL     OW 2319   8.242   3.044   0.779
  141SOL    HW1 2320   8.269   3.060   0.689
  141SOL    HW2 2321   8.294   2.968   0.806
  142SOL     OW 2322   5.744   4.612   4.469
  142SOL    HW1 2323   5.819   4.670   4.452
  142SOL    HW2 2324   5.784   4.529   4.494
  143SOL     OW 2325   6.372  12.817   8.521
  143SOL    HW1 2326   6.371  12.875   8.598
  143SOL    HW2 2327   6.281  12.791   8.509
  144SOL     OW 2328   0.640  11.306   1.416
  144SOL    HW1 2329   0.627  11.212   1.405
  144SOL    HW2 2330   0.672  11.315   1.506
  145SOL     OW 2331   0.793   7.799   6.311
  145SOL    HW1 2332   0.834   7.808   6.225
  145SOL    HW2 2333   0.706   7.838   6.300
  146SOL     OW 2334   7.147  14.623  13.843
  146SOL    HW1 2335   7.241  14.639  13.844
  146SOL    HW2 2336   7.119  14.649  13.755
  147SOL     OW 2337   9.462   6.089   0.824
  147SOL    HW1 2338   9.495   6.067   0.911
  147SOL    HW2 2339   9.411   6.169   0.838
  148SOL     OW 2340  10.708   9.454  10.554
  148SOL    HW1 2341  10.626   9.420  10.517
  148SOL    HW2 2342  10.720   9.404  10.635
  149SOL     OW 2343  12.599   9.262   6.290
  149SOL    HW1 2344  12.655   9.226   6.359
  149SOL    HW2 2345  12.649   9.336   6.255
  150SOL     OW 2346  11.031   0.860   4.359
  150SOL    HW1 2347  11.126   0.847   4.357
  150SOL    HW2 2348  11.003   0.818   4.440
  151SOL     OW 2349   6.992   8.444   6.050
  151SOL    HW1 2350   6.950   8.508   6.108
  151SOL    HW2 2351   6.974   8.476   5.962
  152SOL     OW 2352   7.239   5.576   3.554
  152SOL    HW1 2353   7.239   5.605   3.462
  152SOL    HW2 2354   7.326   5.541   3.569
  153SOL     OW 2355   6.150   6.811  14.462
  153SOL    HW1 2356   6.238   6.804  14.425
  153SOL    HW2 2357   6.142   6.902  14.489
  154SOL     OW 2358   0.625   4.748   1.485
  154SOL    HW1 2359   0.661   4.660   1.472
  154SOL    HW2 2360   0.616   4.783   1.396
  155SOL     OW 2361  11.771   9.430   0.106
  155SOL    HW1 2362  11.854   9.473   0.089
  155SOL    HW2 2363  11.739   9.406   0.019
  156SOL     OW 2364  14.246   3.287  11.635
  156SOL    HW1 2365  14.193   3.361  11.604
  156SOL    HW2 2366  14.237   3.221  11.567
  157SOL     OW 2367  11.624   6.057   0.511
  157SOL    HW1 2368  11.562   6.127   0.530
  157SOL    HW2 2369  11.580   6.003   0.445
  158SOL     OW 2370   7.894   9.917  13.034
  158SOL    HW1 2371   7.873   9.997  13.082
  158SOL    HW2 2372   7.841   9.850  13.078
  159SOL     OW 2373   4.682  10.465   8.198
  159SOL    HW1 2374   4.596  10.507   8.202
  159SOL    HW2 2375   4.665  10.377   8.165
  160SOL     OW 2376   1.002   1.714   2.858
  160SOL    HW1 2377   0.999   1.675   2.771
  160SOL    HW2 2378   0.976   1.644   2.918
  161SOL     OW 2379   2.348  12.845   4.246
  161SOL    HW1 2380   2.392  12.921   4.208
  161SOL    HW2 2381   2.288  12.881   4.311
  162SOL     OW 2382   2.754   4.130   2.517
  162SOL    HW1 2383   2.811   4.065   2.476
  162SOL    HW2 2384   2.801   4.213   2.508
  163SOL     OW 2385  14.255   1.889  11.658
  163SOL    HW1 2386  14.163   1.883  11.685
  163SOL    HW2 2387  14.251   1.890  11.562
  164SOL     OW 2388   4.989   7.612  11.733
  164SOL    HW1 2389   5.059   7.670  11.762
  164SOL    HW2 2390   5.034   7.531  11.708
  165SOL     OW 2391   0.726  11.154   5.535
  165SOL    HW1 2392   0.689  11.233   5.496
  165SOL    HW2 2393   0.735  11.093   5.463
  166SOL     OW 2394   8.761   7.467   5.028
  166SOL    HW1 2395   8.838   7.472   4.973
  166SOL    HW2 2396   8.737   7.559   5.044
  167SOL     OW 2397   8.702   4.390   7.978
  167SOL    HW1 2398   8.757   4.320   8.014
  167SOL    HW2 2399   8.709   4.461   8.041
  168SOL     OW 2400  10.261   8.306   5.264
  168SOL    HW1 2401  10.254   8.225   5.215
  168SOL    HW2 2402  10.307   8.366   5.206
  169SOL     OW 2403   2.557   8.161   0.892
  169SOL    HW1 2404   2.604   8.223   0.836
  169SOL    HW2 2405   2.495   8.214   0.941
  170SOL     OW 2406   6.863  14.663   7.949
  170SOL    HW1 2407   6.886  14.575   7.919
  170SOL    HW2 2408   6.827  14.650   8.037
  171SOL     OW 2409  14.572   0.198   6.002
  171SOL    HW1 2410  14.508   0.166   6.065
  171SOL    HW2 2411  14.624   0.121   5.979
  172SOL     OW 2412   9.410   5.054   3.453
  172SOL    HW1 2413   9.431   5.113   3.526
  172SOL    HW2 2414   9.493   5.044   3.407
  173SOL     OW 2415  13.425  10.492  10.150
  173SOL    HW1 2416  13.512  10.532  10.147
  173SOL    HW2 2417  13.430  10.421  10.085
  174SOL     OW 2418   0.975  13.665   2.753
  174SOL    HW1 2419   0.934  13.636   2.834
  174SOL    HW2 2420   1.066  13.684   2.777
  175SOL     OW 2421   3.665   1.107   3.725
  175SOL    HW1 2422   3.626   1.130   3.810
  175SOL    HW2 2423   3.660   1.012   3.721
  176SOL     OW 2424  14.092  12.141  10.171
  176SOL    HW1 2425  14.061  12.232  10.163
  176SOL    HW2 2426  14.112  12.130  10.264
  177SOL     OW 2427  11.848  10.636   3.489
  177SOL    HW1 2428  11.852  10.541   3.505
  177SOL    HW2 2429  11.755  10.657   3.500
  178SOL     OW 2430   2.737   3.045   8.170
  178SOL    HW1 2431   2.747   3.141   8.166
  178SOL    HW2 2432   2.686   3.024   8.091
  179SOL     OW 2433   2.462   1.673   7.999
  179SOL    HW1 2434   2.520   1.661   7.924
  179SOL    HW2 2435   2.521   1.681   8.074
  180SOL     OW 2436  14.440   4.411  10.753
  180SOL    HW1 2437  14.520   4.424  10.803
  180SOL    HW2 2438  14.398   4.497  10.752
  181SOL     OW 2439   9.430  14.222   9.308
  181SOL    HW1 2440   9.488  14.146   9.309
  181SOL    HW2 2441   9.349  14.190   9.267
  182SOL     OW 2442  14.424   1.257  14.818
  182SOL    HW1 2443  14.405   1.238  14.726
  182SOL    HW2 2444  14.362   1.204  14.868
  183SOL     OW 2445   8.389  10.004   1.322
  183SOL    HW1 2446   8.316   9.954   1.358
  183SOL    HW2 2447   8.443  10.026   1.399
  184SOL     OW 2448   8.420   5.632  14.357
  184SOL    HW1 2449   8.406   5.538  14.369
  184SOL    HW2 2450   8.386   5.650  14.269
  185SOL     OW 2451   4.870  11.618   4.469
  185SOL    HW1 2452   4.889  11.615   4.563
  185SOL    HW2 2453   4.792  11.564   4.458
  186SOL     OW 2454   3.505  14.502   5.938
  186SOL    HW1 2455   3.508  14.406   5.937
  186SOL    HW2 2456   3.596  14.529   5.942
  187SOL     OW 2457  10.327  13.747   7.377
  187SOL    HW1 2458  10.312  13.758   7.283
  187SOL    HW2 2459  10.267  13.810   7.418
  188SOL     OW 2460   3.285   6.575  11.754
  188SOL    HW1 2461   3.268   6.546  11.844
  188SOL    HW2 2462   3.326   6.500  11.712
  189SOL     OW 2463   1.514  13.305   7.613
  189SOL    HW1 2464   1.468  13.389   7.605
  189SOL    HW2 2465   1.506  13.265   7.527
  190SOL     OW 2466   2.630   2.856  14.860
  190SOL    HW1 2467   2.584   2.772  14.855
  190SOL    HW2 2468   2.719   2.834   0.005
  191SOL     OW 2469   8.499  12.808  10.702
  191SOL    HW1 2470   8.512  12.775  10.790
  191SOL    HW2 2471   8.486  12.902  10.713
  192SOL     OW 2472  13.244  12.385   1.363
  192SOL    HW1 2473  13.261  12.471   1.400
  192SOL    HW2 2474  13.204  12.335   1.435
  193SOL     OW 2475   9.460  11.967   8.689
  193SOL    HW1 2476   9.368  11.968   8.666
  193SOL    HW2 2477   9.501  11.911   8.623
  194SOL     OW 2478   8.380  14.447  11.871
  194SOL    HW1 2479   8.422  14.470  11.953
  194SOL    HW2 2480   8.449  14.408  11.818
  195SOL     OW 2481   5.112  11.722   5.911
  195SOL    HW1 2482   5.200  11.741   5.944
  195SOL    HW2 2483   5.111  11.758   5.823
  196SOL     OW 2484   6.094   0.222   5.548
  196SOL    HW1 2485   6.154   0.278   5.499
  196SOL    HW2 2486   6.036   0.284   5.594
  197SOL     OW 2487   6.962  11.660  13.666
  197SOL    HW1 2488   7.003  11.728  13.612
  197SOL    HW2 2489   7.023  11.586  13.660
  198SOL     OW 2490  14.775  14.515   8.879
  198SOL    HW1 2491  14.791  14.422   8.870
  198SOL    HW2 2492  14.833  14.544   8.948
  199SOL     OW 2493   3.634  13.409   1.701
  199SOL    HW1 2494   3.710  13.407   1.644
  199SOL    HW2 2495   3.573  13.469   1.658
  200SOL     OW 2496  12.159   1.215   8.912
  200SOL    HW1 2497  12.239   1.249   8.953
  200SOL    HW2 2498  12.100   1.290   8.911
  201SOL     OW 2499  11.935   7.981   7.536
  201SOL    HW1 2500  11.943   8.070   7.503
  201SOL    HW2 2501  11.909   7.991   7.628
  202SOL     OW 2502  10.003  11.871   2.131
  202SOL    HW1 2503  10.015  11.929   2.206
  202SOL    HW2 2504  10.090  11.838   2.110
  203SOL     OW 2505   5.917  12.607   4.295
  203SOL    HW1 2506   5.916  12.702   4.308
  203SOL    HW2 2507   5.829  12.585   4.265
  204SOL     OW 2508  11.986   8.745  10.586
  204SOL    HW1 2509  12.081   8.733  10.577
  204SOL    HW2 2510  11.973   8.839  10.577
  205SOL     OW 2511   2.121   0.448  10.569
  205SOL    HW1 2512   2.131   0.354  10.551
  205SOL    HW2 2513   2.105   0.487  10.484
  206SOL     OW 2514  11.828  14.778   8.650
  206SOL    HW1 2515  11.831  14.700   8.595
  206SOL    HW2 2516  11.919  14.807   8.658
  207SOL     OW 2517   7.771   0.654   4.325
  207SOL    HW1 2518   7.681   0.649   4.358
  207SOL    HW2 2519   7.782   0.574   4.274
  208SOL     OW 2520  10.445   4.601   7.767
  208SOL    HW1 2521  10.495   4.524   7.743
  208SOL    HW2 2522  10.455   4.661   7.692
  209SOL     OW 2523   4.182   1.473  13.878
  209SOL    HW1 2524   4.173   1.406  13.946
  209SOL    HW2 2525   4.258   1.524  13.905
  210SOL     OW 2526   5.425   0.758   7.010
  210SOL    HW1 2527   5.412   0.682   7.067
  210SOL    HW2 2528   5.356   0.819   7.036
  211SOL     OW 2529   5.723  14.468   3.348
  211SOL    HW1 2530   5.701  14.496   3.260
  211SOL    HW2 2531   5.638  14.457   3.392
  212SOL     OW 2532  10.676  11.285   2.555
  212SOL    HW1 2533  10.766  11.317   2.554
  212SOL    HW2 2534  10.673  11.217   2.488
  213SOL     OW 2535   3.638   9.772   9.739
  213SOL    HW1 2536   3.673   9.825   9.667
  213SOL    HW2 2537   3.544   9.768   9.721
  214SOL     OW 2538   9.659   9.271   8.551
  214SOL    HW1 2539   9.599   9.198   8.533
  214SOL    HW2 2540   9.703   9.286   8.467
  215SOL     OW 2541  14.523  12.067  11.763
  215SOL    HW1 2542  14.602  12.043  11.812
  215SOL    HW2 2543  14.497  11.986  11.720
  216SOL     OW 2544   5.955   0.883  13.940
  216SOL    HW1 2545   6.028   0.823  13.921
  216SOL    HW2 2546   5.908   0.889  13.857
  217SOL     OW 2547   3.708  13.031   4.120
  217SOL    HW1 2548   3.691  13.121   4.149
  217SOL    HW2 2549   3.741  12.986   4.198
  218SOL     OW 2550   6.873   5.864  10.840
  218SOL    HW1 2551   6.831   5.836  10.922
  218SOL    HW2 2552   6.905   5.953  10.859
  219SOL     OW 2553  10.755   6.009   5.222
  219SOL    HW1 2554  10.680   5.966   5.262
  219SOL    HW2 2555  10.765   5.966   5.137
  220SOL     OW 2556  11.216   5.361  13.381
  220SOL    HW1 2557  11.167   5.440  13.359
  220SOL    HW2 2558  11.308   5.386  13.376
  221SOL     OW 2559  13.009   8.843   3.774
  221SOL    HW1 2560  12.959   8.867   3.852
  221SOL    HW2 2561  13.003   8.748   3.770
  222SOL     OW 2562   4.847   7.558   4.737
  222SOL    HW1 2563   4.840   7.482   4.795
  222SOL    HW2 2564   4.756   7.585   4.721
  223SOL     OW 2565   8.138   5.381   3.764
  223SOL    HW1 2566   8.076   5.356   3.833
  223SOL    HW2 2567   8.224   5.371   3.803
  224SOL     OW 2568   6.418   0.622  11.165
  224SOL    HW1 2569   6.423   0.554  11.099
  224SOL    HW2 2570   6.450   0.581  11.245
  225SOL     OW 2571   2.193  11.669   2.356
  225SOL    HW1 2572   2.281  11.689   2.390
  225SOL    HW2 2573   2.134  11.688   2.429
  226SOL     OW 2574   0.133   1.980   8.916
  226SOL    HW1 2575   0.118   2.075   8.916
  226SOL    HW2 2576   0.071   1.946   8.980
  227SOL     OW 2577  12.661  11.329  11.994
  227SOL    HW1 2578  12.599  11.401  11.983
  227SOL    HW2 2579  12.650  11.275  11.916
  228SOL     OW 2580   3.534   4.364  14.773
  228SOL    HW1 2581   3.578   4.431  14.719
  228SOL    HW2 2582   3.537   4.285  14.719
  229SOL     OW 2583   5.688   7.598  14.030
  229SOL    HW1 2584   5.737   7.561  13.956
  229SOL    HW2 2585   5.755   7.639  14.084
  230SOL     OW 2586   2.720  12.576   8.246
  230SOL    HW1 2587   2.780  12.610   8.312
  230SOL    HW2 2588   2.647  12.539   8.296
  231SOL     OW 2589   9.047   8.435  12.171
  231SOL    HW1 2590   8.971   8.378  12.181
  231SOL    HW2 2591   9.013   8.513  12.127
  232SOL     OW 2592   2.772  12.060   2.175
  232SOL    HW1 2593   2.763  12.154   2.192
  232SOL    HW2 2594   2.699  12.039   2.118
  233SOL     OW 2595   5.195  12.356   4.788
  233SOL    HW1 2596   5.219  12.448   4.779
  233SOL    HW2 2597   5.276  12.314   4.819
  234SOL     OW 2598   4.404  12.963  12.294
  234SOL    HW1 2599   4.339  13.009  12.347
  234SOL    HW2 2600   4.399  13.006  12.208
  235SOL     OW 2601  12.636   3.892  12.337
  235SOL    HW1 2602  12.643   3.979  12.297
  235SOL    HW2 2603  12.727   3.864  12.348
  236SOL     OW 2604   3.217  10.655   7.675
  236SOL    HW1 2605   3.282  10.585   7.673
  236SOL    HW2 2606   3.135  10.612   7.696
  237SOL     OW 2607  11.970   1.997   8.155
  237SOL    HW1 2608  12.048   2.036   8.195
  237SOL    HW2 2609  12.002   1.915   8.117
  238SOL     OW 2610  13.676  10.433   5.280
  238SOL    HW1 2611  13.703  10.522   5.304
  238SOL    HW2 2612  13.721  10.416   5.197
  239SOL     OW 2613   2.262  14.294   0.589
  239SOL    HW1 2614   2.244  14.206   0.623
  239SOL    HW2 2615   2.251  14.351   0.665
  240SOL     OW 2616  11.265   3.297  13.466
  240SOL    HW1 2617  11.292   3.387  13.447
  240SOL    HW2 2618  11.340   3.244  13.440
  241SOL     OW 2619  14.139   3.895   0.750
  241SOL    HW1 2620  14.064   3.954   0.756
  241SOL    HW2 2621  14.203   3.931   0.811
  242SOL     OW 2622   8.613  13.338   1.863
  242SOL    HW1 2623   8.705  13.312   1.852
  242SOL    HW2 2624   8.585  13.364   1.775
  243SOL     OW 2625   0.049  14.854   1.065
  243SOL    HW1 2626   0.031   0.009   1.151
  243SOL    HW2 2627   0.021  14.763   1.072
  244SOL     OW 2628   7.114   4.040   1.090
  244SOL    HW1 2629   7.059   4.002   1.158
  244SOL    HW2 2630   7.188   3.979   1.082
  245SOL     OW 2631   1.681   9.196   1.027
  245SOL    HW1 2632   1.658   9.248   0.950
  245SOL    HW2 2633   1.641   9.111   1.011
  246SOL     OW 2634  12.927   7.166   2.427
  246SOL    HW1 2635  12.893   7.229   2.363
  246SOL    HW2 2636  12.852   7.145   2.483
  247SOL     OW 2637  14.389  13.660   6.600
  247SOL    HW1 2638  14.485  13.657   6.603
  247SOL    HW2 2639  14.362  13.663   6.691
  248SOL     OW 2640   6.190  10.764   7.278
  248SOL    HW1 2641   6.269  10.787   7.327
  248SOL    HW2 2642   6.200  10.807   7.194
  249SOL     OW 2643   6.024   7.532   0.179
  249SOL    HW1 2644   5.963   7.605   0.178
  249SOL    HW2 2645   6.109   7.571   0.197
  250SOL     OW 2646   7.412  11.288   2.684
  250SOL    HW1 2647   7.448  11.204   2.713
  250SOL    HW2 2648   7.373  11.327   2.762
  251SOL     OW 2649   9.580   5.589  12.299
  251SOL    HW1 2650   9.492   5.556  12.316
  251SOL    HW2 2651   9.637   5.512  12.309
  252SOL     OW 2652   6.099   6.215   8.521
  252SOL    HW1 2653   6.170   6.181   8.467
  252SOL    HW2 2654   6.080   6.302   8.485
  253SOL     OW 2655  12.885   2.146   4.095
  253SOL    HW1 2656  12.894   2.098   4.013
  253SOL    HW2 2657  12.875   2.078   4.162
  254SOL     OW 2658   9.539  11.153  13.679
  254SOL    HW1 2659   9.506  11.149  13.590
  254SOL    HW2 2660   9.622  11.105  13.676
  255SOL     OW 2661  12.198   8.348  12.052
  255SOL    HW1 2662  12.243   8.426  12.085
  255SOL    HW2 2663  12.128   8.332  12.116
  256SOL     OW 2664   4.030   9.064   9.790
  256SOL    HW1 2665   3.957   9.086   9.733
  256SOL    HW2 2666   4.001   9.088   9.878
  257SOL     OW 2667   9.137   1.059   9.290
  257SOL    HW1 2668   9.192   0.980   9.286
  257SOL    HW2 2669   9.119   1.080   9.198
  258SOL     OW 2670   4.485   8.678  14.154
  258SOL    HW1 2671   4.535   8.598  14.140
  258SOL    HW2 2672   4.549   8.742  14.186
  259SOL     OW 2673  13.524  13.690  13.952
  259SOL    HW1 2674  13.500  13.669  14.042
  259SOL    HW2 2675  13.468  13.763  13.928
  260SOL     OW 2676  12.437  13.485   1.895
  260SOL    HW1 2677  12.421  13.556   1.958
  260SOL    HW2 2678  12.481  13.527   1.822
  261SOL     OW 2679   9.138   8.786   7.236
  261SOL    HW1 2680   9.169   8.865   7.192
  261SOL    HW2 2681   9.070   8.752   7.178
  262SOL     OW 2682   6.805   5.043   8.512
  262SOL    HW1 2683   6.775   4.952   8.507
  262SOL    HW2 2684   6.887   5.038   8.561
  263SOL     OW 2685   0.991   8.783  12.746
  263SOL    HW1 2686   0.980   8.724  12.671
  263SOL    HW2 2687   0.943   8.862  12.721
  264SOL     OW 2688  11.550   4.214  11.962
  264SOL    HW1 2689  11.537   4.151  11.891
  264SOL    HW2 2690  11.482   4.193  12.026
  265SOL     OW 2691   2.570   4.434   4.339
  265SOL    HW1 2692   2.641   4.479   4.384
  265SOL    HW2 2693   2.528   4.380   4.406
  266SOL     OW 2694  14.201  10.191   7.224
  266SOL    HW1 2695  14.145  10.259   7.260
  266SOL    HW2 2696  14.290  10.224   7.235
  267SOL     OW 2697   0.004  14.362   7.516
  267SOL    HW1 2698  14.792  14.372   7.503
  267SOL    HW2 2699   0.030  14.295   7.453
  268SOL     OW 2700   8.997   8.469   1.091
  268SOL    HW1 2701   9.060   8.533   1.123
  268SOL    HW2 2702   9.001   8.477   0.996
  269SOL     OW 2703   6.026   1.125  11.053
  269SOL    HW1 2704   6.014   1.101  10.961
  269SOL    HW2 2705   6.023   1.220  11.053
  270SOL     OW 2706   0.710   9.441   3.302
  270SOL    HW1 2707   0.722   9.500   3.228
  270SOL    HW2 2708   0.794   9.397   3.312
  271SOL     OW 2709   5.393   4.773   9.559
  271SOL    HW1 2710   5.424   4.864   9.562
  271SOL    HW2 2711   5.311   4.775   9.609
  272SOL     OW 2712  14.673   0.822   4.790
  272SOL    HW1 2713  14.717   0.861   4.715
  272SOL    HW2 2714  14.591   0.787   4.754
  273SOL     OW 2715   9.189   6.726  10.923
  273SOL    HW1 2716   9.188   6.794  10.991
  273SOL    HW2 2717   9.157   6.647  10.967
  274SOL     OW 2718   1.773   2.130  12.369
  274SOL    HW1 2719   1.700   2.076  12.399
  274SOL    HW2 2720   1.760   2.138  12.275
  275SOL     OW 2721   4.497   0.289   0.695
  275SOL    HW1 2722   4.515   0.374   0.737
  275SOL    HW2 2723   4.546   0.226   0.748
  276SOL     OW 2724  11.681  12.104   0.275
  276SOL    HW1 2725  11.667  12.029   0.332
  276SOL    HW2 2726  11.656  12.179   0.330
  277SOL     OW 2727  11.069   9.462   7.051
  277SOL    HW1 2728  11.006   9.438   6.983
  277SOL    HW2 2729  11.145   9.405   7.035
  278SOL     OW 2730  11.652  13.953   5.716
  278SOL    HW1 2731  11.621  13.916   5.633
  278SOL    HW2 2732  11.655  13.879   5.776
  279SOL     OW 2733   6.662  10.268   9.982
  279SOL    HW1 2734   6.659  10.189  10.035
  279SOL    HW2 2735   6.739  10.256   9.926
  280SOL     OW 2736  12.418  12.229   4.108
  280SOL    HW1 2737  12.498  12.181   4.130
  280SOL    HW2 2738  12.348  12.166   4.124
  281SOL     OW 2739  10.891   3.966   9.804
  281SOL    HW1 2740  10.958   3.929   9.748
  281SOL    HW2 2741  10.811   3.963   9.751
  282SOL     OW 2742   8.660   0.393  12.190
  282SOL    HW1 2743   8.635   0.472  12.237
  282SOL    HW2 2744   8.718   0.347  12.249
  283SOL     OW 2745   7.123  13.527   3.538
  283SOL    HW1 2746   7.195  13.469   3.513
  283SOL    HW2 2747   7.044  13.475   3.521
  284SOL     OW 2748   2.221   3.017  13.886
  284SOL    HW1 2749   2.311   2.992  13.867
  284SOL    HW2 2750   2.198   3.079  13.817
  285SOL     OW 2751   8.119   1.267   1.648
  285SOL    HW1 2752   8.116   1.224   1.734
  285SOL    HW2 2753   8.096   1.358   1.665
  286SOL     OW 2754   7.819   6.583  12.457
  286SOL    HW1 2755   7.843   6.495  12.486
  286SOL    HW2 2756   7.854   6.588  12.368
  287SOL     OW 2757  12.464  12.522   7.218
  287SOL    HW1 2758  12.470  12.542   7.124
  287SOL    HW2 2759  12.538  12.569   7.257
  288SOL     OW 2760  11.956  11.322  11.092
  288SOL    HW1 2761  11.889  11.374  11.136
  288SOL    HW2 2762  11.980  11.255  11.157
  289SOL     OW 2763   9.444   0.614   3.635
  289SOL    HW1 2764   9.390   0.536   3.630
  289SOL    HW2 2765   9.509   0.603   3.565
  290SOL     OW 2766  13.731   1.668   5.849
  290SOL    HW1 2767  13.720   1.757   5.882
  290SOL    HW2 2768  13.734   1.677   5.754
  291SOL     OW 2769   2.303   3.795  13.069
  291SOL    HW1 2770   2.356   3.863  13.027
  291SOL    HW2 2771   2.299   3.821  13.161
  292SOL     OW 2772   4.628   9.139  10.418
  292SOL    HW1 2773   4.548   9.091  10.440
  292SOL    HW2 2774   4.644   9.195  10.494
  293SOL     OW 2775   6.571   3.492  13.504
  293SOL    HW1 2776   6.654   3.538  13.507
  293SOL    HW2 2777   6.543   3.498  13.413
  294SOL     OW 2778  14.136   8.404   5.243
  294SOL    HW1 2779  14.216   8.426   5.195
  294SOL    HW2 2780  14.094   8.489   5.260
  295SOL     OW 2781   8.151   2.778  12.506
  295SOL    HW1 2782   8.082   2.716  12.482
  295SOL    HW2 2783   8.105   2.850  12.548
  296SOL     OW 2784   4.539   6.102   4.140
  296SOL    HW1 2785   4.511   6.157   4.067
  296SOL    HW2 2786   4.569   6.021   4.100
  297SOL     OW 2787  12.732   9.517  11.214
  297SOL    HW1 2788  12.791   9.520  11.289
  297SOL    HW2 2789  12.667   9.585  11.233
  298SOL     OW 2790  10.467  11.167   4.950
  298SOL    HW1 2791  10.463  11.217   4.869
  298SOL    HW2 2792  10.560  11.163   4.971
  299SOL     OW 2793  12.421   7.929   4.035
  299SOL    HW1 2794  12.341   7.938   3.983
  299SOL    HW2 2795  12.489   7.908   3.971
  300SOL     OW 2796  13.379   0.512  11.510
  300SOL    HW1 2797  13.371   0.604  11.486
  300SOL    HW2 2798  13.353   0.508  11.602
  301SOL     OW 2799  14.304  12.521   4.345
  301SOL    HW1 2800  14.326  12.608   4.380
  301SOL    HW2 2801  14.364  12.462   4.391
  302SOL     OW 2802   9.054   4.620   2.389
  302SOL    HW1 2803   8.997   4.557   2.433
  302SOL    HW2 2804   8.996   4.665   2.328
  303SOL     OW 2805   8.698   3.129   1.788
  303SOL    HW1 2806   8.661   3.072   1.856
  303SOL    HW2 2807   8.680   3.218   1.819
  304SOL     OW 2808  14.129   5.682   6.437
  304SOL    HW1 2809  14.064   5.642   6.494
  304SOL    HW2 2810  14.132   5.625   6.360
  305SOL     OW 2811   6.842   2.965   8.591
  305SOL    HW1 2812   6.856   2.872   8.607
  305SOL    HW2 2813   6.847   3.006   8.678
  306SOL     OW 2814   1.887   5.150  12.674
  306SOL    HW1 2815   1.964   5.202  12.652
  306SOL    HW2 2816   1.866   5.102  12.594
  307SOL     OW 2817   4.432   4.757  10.885
  307SOL    HW1 2818   4.500   4.693  10.862
  307SOL    HW2 2819   4.455   4.785  10.974
  308SOL     OW 2820  14.518   2.705   7.526
  308SOL    HW1 2821  14.445   2.730   7.469
  308SOL    HW2 2822  14.589   2.766   7.503
  309SOL     OW 2823   7.092   9.325   8.477
  309SOL    HW1 2824   7.070   9.279   8.395
  309SOL    HW2 2825   7.186   9.308   8.489
  310SOL     OW 2826   8.179   2.974  14.266
  310SOL    HW1 2827   8.114   2.940  14.205
  310SOL    HW2 2828   8.230   3.036  14.213
  311SOL     OW 2829   6.755  14.126   5.111
  311SOL    HW1 2830   6.784  14.045   5.151
  311SOL    HW2 2831   6.753  14.189   5.183
  312SOL     OW 2832   4.861   8.743   9.444
  312SOL    HW1 2833   4.793   8.803   9.472
  312SOL    HW2 2834   4.890   8.700   9.524
  313SOL     OW 2835   9.787   2.201   4.577
  313SOL    HW1 2836   9.693   2.191   4.590
  313SOL    HW2 2837   9.827   2.160   4.654
  314SOL     OW 2838  13.807  13.490   2.031
  314SOL    HW1 2839  13.839  13.455   1.947
  314SOL    HW2 2840  13.774  13.577   2.009
  315SOL     OW 2841  14.213  11.340  10.295
  315SOL    HW1 2842  14.127  11.339  10.251
  315SOL    HW2 2843  14.224  11.250  10.325
  316SOL     OW 2844   2.280   7.939   9.166
  316SOL    HW1 2845   2.302   8.006   9.231
  316SOL    HW2 2846   2.189   7.918   9.183
  317SOL     OW 2847   9.978   2.417   4.370
  317SOL    HW1 2848   9.932   2.452   4.294
  317SOL    HW2 2849   9.966   2.322   4.363
  318SOL     OW 2850   3.321   2.753   6.632
  318SOL    HW1 2851   3.277   2.741   6.716
  318SOL    HW2 2852   3.271   2.700   6.571
  319SOL     OW 2853  11.823   5.318  13.343
  319SOL    HW1 2854  11.861   5.245  13.294
  319SOL    HW2 2855  11.819   5.287  13.433
  320SOL     OW 2856  10.100  10.582  10.062
  320SOL    HW1 2857  10.143  10.525   9.999
  320SOL    HW2 2858  10.148  10.665  10.057
  321SOL     OW 2859   8.248   7.327   8.095
  321SOL    HW1 2860   8.156   7.342   8.073
  321SOL    HW2 2861   8.295   7.399   8.052
  322SOL     OW 2862   0.617   7.076   9.305
  322SOL    HW1 2863   0.578   6.998   9.344
  322SOL    HW2 2864   0.647   7.127   9.380
  323SOL     OW 2865  10.826  14.684   3.246
  323SOL    HW1 2866  10.910  14.684   3.292
  323SOL    HW2 2867  10.833  14.756   3.184
  324SOL     OW 2868   0.953   7.531   2.349
  324SOL    HW1 2869   0.862   7.528   2.322
  324SOL    HW2 2870   0.955   7.485   2.434
  325SOL     OW 2871   4.613   3.930   1.968
  325SOL    HW1 2872   4.552   3.881   2.023
  325SOL    HW2 2873   4.557   3.974   1.904
  326SOL     OW 2874   9.189   0.495   5.720
  326SOL    HW1 2875   9.200   0.441   5.798
  326SOL    HW2 2876   9.101   0.476   5.690
  327SOL     OW 2877   1.380   3.640   5.274
  327SOL    HW1 2878   1.363   3.600   5.188
  327SOL    HW2 2879   1.293   3.663   5.306
  328SOL     OW 2880  10.717  10.933   6.239
  328SOL    HW1 2881  10.626  10.933   6.269
  328SOL    HW2 2882  10.764  10.983   6.305
  329SOL     OW 2883   4.854   0.209   8.786
  329SOL    HW1 2884   4.867   0.191   8.880
  329SOL    HW2 2885   4.928   0.166   8.743
  330SOL     OW 2886   3.036   2.455  13.740
  330SOL    HW1 2887   2.979   2.462  13.817
  330SOL    HW2 2888   3.035   2.362  13.718
  331SOL     OW 2889  11.222  13.653   5.809
  331SOL    HW1 2890  11.282  13.637   5.882
  331SOL    HW2 2891  11.159  13.581   5.813
  332SOL     OW 2892   6.402   4.523   4.510
  332SOL    HW1 2893   6.473   4.462   4.530
  332SOL    HW2 2894   6.433   4.607   4.541
  333SOL     OW 2895   7.614   4.481   7.668
  333SOL    HW1 2896   7.612   4.491   7.763
  333SOL    HW2 2897   7.590   4.567   7.634
  334SOL     OW 2898   3.267   4.194  10.641
  334SOL    HW1 2899   3.213   4.214  10.565
  334SOL    HW2 2900   3.207   4.199  10.715
  335SOL     OW 2901  11.631  12.849   3.334
  335SOL    HW1 2902  11.718  12.837   3.296
  335SOL    HW2 2903  11.610  12.941   3.318
  336SOL     OW 2904  10.465   4.354  14.852
  336SOL    HW1 2905  10.409   4.277  14.853
  336SOL    HW2 2906  10.408   4.425  14.825
  337SOL     OW 2907  11.531   8.770  13.540
  337SOL    HW1 2908  11.623   8.785  13.561
  337SOL    HW2 2909  11.531   8.698  13.478
  338SOL     OW 2910   2.388   7.463  13.680
  338SOL    HW1 2911   2.360   7.391  13.624
  338SOL    HW2 2912   2.484   7.460  13.677
  339SOL     OW 2913  14.155   9.242   4.100
  339SOL    HW1 2914  14.089   9.239   4.030
  339SOL    HW2 2915  14.237   9.264   4.055
  340SOL     OW 2916   5.378  10.644   0.533
  340SOL    HW1 2917   5.406  10.724   0.487
  340SOL    HW2 2918   5.306  10.610   0.479
  341SOL     OW 2919  10.346   2.529  10.466
  341SOL    HW1 2920  10.432   2.510  10.429
  341SOL    HW2 2921  10.352   2.619  10.497
  342SOL     OW 2922   0.389  14.129   2.907
  342SOL    HW1 2923   0.376  14.217   2.942
  342SOL    HW2 2924   0.483  14.122   2.893
  343SOL     OW 2925   2.009   1.452   2.373
  343SOL    HW1 2926   2.078   1.402   2.416
  343SOL    HW2 2927   1.976   1.512   2.440
  344SOL     OW 2928   2.600  10.497   0.440
  344SOL    HW1 2929   2.634  10.525   0.525
  344SOL    HW2 2930   2.660  10.537   0.377
  345SOL     OW 2931   3.252  14.600   8.241
  345SOL    HW1 2932   3.247  14.615   8.146
  345SOL    HW2 2933   3.332  14.643   8.268
  346SOL     OW 2934  13.344   3.826   4.823
  346SOL    HW1 2935  13.410   3.880   4.867
  346SOL    HW2 2936  13.319   3.878   4.746
  347SOL     OW 2937   0.723   0.189   6.184
  347SOL    HW1 2938   0.800   0.229   6.223
  347SOL    HW2 2939   0.675   0.262   6.145
  348SOL     OW 2940  12.285   9.439   1.584
  348SOL    HW1 2941  12.219   9.462   1.649
  348SOL    HW2 2942  12.297   9.345   1.595
  349SOL     OW 2943   5.492  12.604  12.513
  349SOL    HW1 2944   5.583  12.596  12.483
  349SOL    HW2 2945   5.465  12.514  12.532
  350SOL     OW 2946   5.575  13.702  11.357
  350SOL    HW1 2947   5.605  13.622  11.401
  350SOL    HW2 2948   5.655  13.748  11.333
  351SOL     OW 2949  13.952  11.406  12.935
  351SOL    HW1 2950  14.030  11.461  12.935
  351SOL    HW2 2951  13.979  11.326  12.980
  352SOL     OW 2952   2.632   4.428   2.219
  352SOL    HW1 2953   2.603   4.363   2.283
  352SOL    HW2 2954   2.683   4.378   2.155
  353SOL     OW 2955   2.816  14.662   7.232
  353SOL    HW1 2956   2.829  14.693   7.143
  353SOL    HW2 2957   2.851  14.573   7.232
  354SOL     OW 2958  10.016  12.646   6.569
  354SOL    HW1 2959   9.942  12.706   6.572
  354SOL    HW2 2960  10.050  12.645   6.658
  355SOL     OW 2961  11.074   1.289   0.503
  355SOL    HW1 2962  11.005   1.304   0.438
  355SOL    HW2 2963  11.032   1.309   0.587
  356SOL     OW 2964   1.838  12.169  14.095
  356SOL    HW1 2965   1.776  12.239  14.074
  356SOL    HW2 2966   1.784  12.095  14.121
  357SOL     OW 2967   4.832   7.224   7.761
  357SOL    HW1 2968   4.748   7.180   7.772
  357SOL    HW2 2969   4.892   7.155   7.734
  358SOL     OW 2970   9.086   4.588   8.064
  358SOL    HW1 2971   9.039   4.581   7.981
  358SOL    HW2 2972   9.017   4.590   8.130
  359SOL     OW 2973   3.360   3.221   2.221
  359SOL    HW1 2974   3.318   3.245   2.304
  359SOL    HW2 2975   3.341   3.293   2.162
  360SOL     OW 2976   3.017  12.413  10.845
  360SOL    HW1 2977   3.015  12.424  10.940
  360SOL    HW2 2978   3.104  12.444  10.819
  361SOL     OW 2979  12.459   6.508   3.355
  361SOL    HW1 2980  12.492   6.487   3.268
  361SOL    HW2 2981  12.368   6.481   3.355
  362SOL     OW 2982   3.858   9.551   6.448
  362SOL    HW1 2983   3.817   9.466   6.429
  362SOL    HW2 2984   3.873   9.550   6.542
  363SOL     OW 2985  11.301  10.403   2.375
  363SOL    HW1 2986  11.254  10.486   2.367
  363SOL    HW2 2987  11.374  10.412   2.313
  364SOL     OW 2988  12.375   9.431  12.449
  364SOL    HW1 2989  12.334   9.374  12.514
  364SOL    HW2 2990  12.304   9.458  12.392
  365SOL     OW 2991   2.446   7.720  14.207
  365SOL    HW1 2992   2.463   7.697  14.116
  365SOL    HW2 2993   2.401   7.643  14.243
  366SOL     OW 2994  10.045   1.243  11.607
  366SOL    HW1 2995  10.089   1.255  11.691
  366SOL    HW2 2996  10.058   1.150  11.586
  367SOL     OW 2997   5.148  12.814   6.029
  367SOL    HW1 2998   5.240  12.820   6.053
  367SOL    HW2 2999   5.132  12.720   6.020
  368SOL     OW 3000   5.717   2.934   3.438
  368SOL    HW1 3001   5.640   2.880   3.453
  368SOL    HW2 3002   5.759   2.896   3.360
  369SOL     OW 3003   8.199   6.883   9.379
  369SOL    HW1 3004   8.188   6.975   9.356
  369SOL    HW2 3005   8.113   6.844   9.365
  370SOL     OW 3006   8.401   7.786   0.386
  370SOL    HW1 3007   8.320   7.739   0.406
  370SOL    HW2 3008   8.457   7.768   0.462
  371SOL     OW 3009   5.498  13.652   8.542
  371SOL    HW1 3010   5.461  13.660   8.630
  371SOL    HW2 3011   5.435  13.597   8.494
  372SOL     OW 3012  12.565  12.682   8.449
  372SOL    HW1 3013  12.637  12.732   8.487
  372SOL    HW2 3014  12.581  12.682   8.355
  373SOL     OW 3015   5.964  10.801  10.876
  373SOL    HW1 3016   6.021  10.736  10.836
  373SOL    HW2 3017   6.014  10.834  10.951
  374SOL     OW 3018   6.094   2.016  13.054
  374SOL    HW1 3019   6.093   2.090  12.993
  374SOL    HW2 3020   6.081   2.057  13.140
  375SOL     OW 3021   8.964   7.727  10.194
  375SOL    HW1 3022   8.957   7.796  10.128
  375SOL    HW2 3023   8.874   7.706  10.216
  376SOL     OW 3024  12.548   3.826  14.419
  376SOL    HW1 3025  12.496   3.756  14.380
  376SOL    HW2 3026  12.485   3.880  14.467
  377SOL     OW 3027   5.905  12.141   6.003
  377SOL    HW1 3028   5.863  12.062   6.036
  377SOL    HW2 3029   5.909  12.130   5.909
  378SOL     OW 3030   4.193   0.272   7.554
  378SOL    HW1 3031   4.180   0.350   7.607
  378SOL    HW2 3032   4.223   0.305   7.469
  379SOL     OW 3033   7.082   7.603   4.674
  379SOL    HW1 3034   7.153   7.634   4.729
  379SOL    HW2 3035   7.002   7.630   4.719
  380SOL     OW 3036   1.062  11.509  10.947
  380SOL    HW1 3037   1.057  11.528  10.853
  380SOL    HW2 3038   1.132  11.565  10.979
  381SOL     OW 3039   3.564   5.603   2.838
  381SOL    HW1 3040   3.502   5.662   2.797
  381SOL    HW2 3041   3.511   5.545   2.892
  382SOL     OW 3042   2.658  10.607   5.110
  382SOL    HW1 3043   2.641  10.699   5.092
  382SOL    HW2 3044   2.713  10.608   5.189
  383SOL     OW 3045   5.558   1.879   5.122
  383SOL    HW1 3046   5.550   1.966   5.082
  383SOL    HW2 3047   5.613   1.894   5.199
  384SOL     OW 3048  12.235  10.454   3.032
  384SOL    HW1 3049  12.177  10.519   2.993
  384SOL    HW2 3050  12.277  10.411   2.958
  385SOL     OW 3051   5.957  13.468   6.020
  385SOL    HW1 3052   5.930  13.415   5.944
  385SOL    HW2 3053   5.878  13.519   6.042
  386SOL     OW 3054   4.835   2.131  14.820
  386SOL    HW1 3055   4.764   2.067  14.822
  386SOL    HW2 3056   4.794   2.213  14.849
  387SOL     OW 3057   6.425   4.614   9.959
  387SOL    HW1 3058   6.505   4.565   9.938
  387SOL    HW2 3059   6.416   4.677   9.887
  388SOL     OW 3060   9.393  13.032   0.688
  388SOL    HW1 3061   9.414  13.105   0.629
  388SOL    HW2 3062   9.425  12.954   0.641
  389SOL     OW 3063  11.089   5.220  14.875
  389SOL    HW1 3064  11.152   5.271  14.824
  389SOL    HW2 3065  11.040   5.171  14.809
  390SOL     OW 3066  13.727   2.921   5.917
  390SOL    HW1 3067  13.716   2.972   5.837
  390SOL    HW2 3068  13.810   2.953   5.954
  391SOL     OW 3069   1.896   6.148  10.737
  391SOL    HW1 3070   1.907   6.061  10.777
  391SOL    HW2 3071   1.858   6.202  10.806
  392SOL     OW 3072  10.463   0.311  12.778
  392SOL    HW1 3073  10.417   0.351  12.704
  392SOL    HW2 3074  10.508   0.236  12.740
  393SOL     OW 3075  13.897  10.890   3.900
  393SOL    HW1 3076  13.881  10.957   3.834
  393SOL    HW2 3077  13.896  10.938   3.983
  394SOL     OW 3078  10.798  14.422   2.065
  394SOL    HW1 3079  10.769  14.387   2.149
  394SOL    HW2 3080  10.889  14.391   2.056
  395SOL     OW 3081   2.893   3.053  14.128
  395SOL    HW1 3082   2.843   3.131  14.152
  395SOL    HW2 3083   2.952   3.038  14.202
  396SOL     OW 3084   4.214   4.860   6.569
  396SOL    HW1 3085   4.215   4.824   6.481
  396SOL    HW2 3086   4.297   4.908   6.577
  397SOL     OW 3087  14.095   0.322  14.108
  397SOL    HW1 3088  14.149   0.243  14.120
  397SOL    HW2 3089  14.049   0.306  14.025
  398SOL     OW 3090   9.632   6.947   6.536
  398SOL    HW1 3091   9.650   6.945   6.630
  398SOL    HW2 3092   9.585   6.865   6.519
  399SOL     OW 3093  14.559   4.596   0.076
  399SOL    HW1 3094  14.554   4.551   0.160
  399SOL    HW2 3095  14.468   4.599   0.045
  400SOL     OW 3096  14.804   3.131  13.292
  400SOL    HW1 3097  14.742   3.203  13.278
  400SOL    HW2 3098  14.878   3.152  13.236
  401SOL     OW 3099   0.846   0.873  13.733
  401SOL    HW1 3100   0.832   0.941  13.800
  401SOL    HW2 3101   0.912   0.910  13.675
  402SOL     OW 3102  11.835  10.235  10.736
  402SOL    HW1 3103  11.811  10.243  10.644
  402SOL    HW2 3104  11.930  10.228  10.736
  403SOL     OW 3105   8.694  11.656   1.665
  403SOL    HW1 3106   8.728  11.576   1.625
  403SOL    HW2 3107   8.767  11.690   1.717
  404SOL     OW 3108   9.752  13.650   1.230
  404SOL    HW1 3109   9.767  13.556   1.219
  404SOL    HW2 3110   9.758  13.686   1.141
  405SOL     OW 3111  13.682   2.059  11.506
  405SOL    HW1 3112  13.777   2.050  11.497
  405SOL    HW2 3113  13.656   1.980  11.555
  406SOL     OW 3114   8.271   7.610   2.334
  406SOL    HW1 3115   8.367   7.607   2.334
  406SOL    HW2 3116   8.250   7.702   2.347
  407SOL     OW 3117   2.400   4.220   0.296
  407SOL    HW1 3118   2.328   4.169   0.259
  407SOL    HW2 3119   2.358   4.278   0.360
  408SOL     OW 3120   3.552  12.332   7.454
  408SOL    HW1 3121   3.601  12.260   7.493
  408SOL    HW2 3122   3.618  12.393   7.423
  409SOL     OW 3123   3.357   7.416   9.822
  409SOL    HW1 3124   3.322   7.461   9.744
  409SOL    HW2 3125   3.446   7.392   9.798
  410SOL     OW 3126   7.627   6.299   4.757
  410SOL    HW1 3127   7.570   6.238   4.710
  410SOL    HW2 3128   7.714   6.260   4.752
  411SOL     OW 3129  13.657   7.317   3.488
  411SOL    HW1 3130  13.749   7.333   3.464
  411SOL    HW2 3131  13.624   7.403   3.514
  412SOL     OW 3132   8.474   9.120   7.055
  412SOL    HW1 3133   8.494   9.033   7.088
  412SOL    HW2 3134   8.507   9.179   7.124
  413SOL     OW 3135  13.188  14.259  14.564
  413SOL    HW1 3136  13.240  14.196  14.613
  413SOL    HW2 3137  13.168  14.328  14.627
  414SOL     OW 3138  13.426   1.562   4.916
  414SOL    HW1 3139  13.510   1.575   4.961
  414SOL    HW2 3140  13.439   1.602   4.829
  415SOL     OW 3141  12.855  11.922   6.046
  415SOL    HW1 3142  12.806  11.933   5.965
  415SOL    HW2 3143  12.826  11.837   6.080
  416SOL     OW 3144   4.623  11.632  14.003
  416SOL    HW1 3145   4.652  11.612  14.092
  416SOL    HW2 3146   4.562  11.562  13.981
  417SOL     OW 3147   1.852  10.529   3.610
  417SOL    HW1 3148   1.834  10.582   3.688
  417SOL    HW2 3149   1.912  10.582   3.559
  418SOL     OW 3150   3.267   6.740  10.187
  418SOL    HW1 3151   3.351   6.783  10.200
  418SOL    HW2 3152   3.289   6.655  10.148
  419SOL     OW 3153   2.806   6.992  11.047
  419SOL    HW1 3154   2.741   7.029  11.107
  419SOL    HW2 3155   2.831   6.909  11.088
  420SOL     OW 3156   7.858   6.152   0.350
  420SOL    HW1 3157   7.854   6.056   0.354
  420SOL    HW2 3158   7.922   6.170   0.281
  421SOL     OW 3159   8.720  10.584   7.678
  421SOL    HW1 3160   8.714  10.525   7.753
  421SOL    HW2 3161   8.634  10.625   7.673
  422SOL     OW 3162   6.827   5.171   7.925
  422SOL    HW1 3163   6.807   5.248   7.872
  422SOL    HW2 3164   6.869   5.111   7.864
  423SOL     OW 3165  10.236   7.155   5.572
  423SOL    HW1 3166  10.244   7.249   5.588
  423SOL    HW2 3167  10.201   7.149   5.483
  424SOL     OW 3168   4.605  11.367   8.438
  424SOL    HW1 3169   4.588  11.304   8.508
  424SOL    HW2 3170   4.587  11.453   8.478
  425SOL     OW 3171   5.936   2.666  13.743
  425SOL    HW1 3172   5.872   2.670  13.814
  425SOL    HW2 3173   5.940   2.756  13.710
  426SOL     OW 3174  11.617  12.646  10.819
  426SOL    HW1 3175  11.605  12.619  10.911
  426SOL    HW2 3176  11.631  12.564  10.772
  427SOL     OW 3177   3.387  13.950   4.437
  427SOL    HW1 3178   3.432  14.013   4.492
  427SOL    HW2 3179   3.436  13.951   4.354
  428SOL     OW 3180  12.527   7.670   9.351
  428SOL    HW1 3181  12.517   7.594   9.292
  428SOL    HW2 3182  12.440   7.710   9.352
  429SOL     OW 3183  14.199   6.921   1.403
  429SOL    HW1 3184  14.118   6.885   1.440
  429SOL    HW2 3185  14.179   6.932   1.310
  430SOL     OW 3186   4.047   5.337  14.255
  430SOL    HW1 3187   3.954   5.354  14.271
  430SOL    HW2 3188   4.049   5.248  14.220
  431SOL     OW 3189   1.236   0.637   6.043
  431SOL    HW1 3190   1.257   0.554   6.001
  431SOL    HW2 3191   1.289   0.637   6.123
  432SOL     OW 3192   6.386  12.923   7.807
  432SOL    HW1 3193   6.295  12.949   7.818
  432SOL    HW2 3194   6.405  12.941   7.714
  433SOL     OW 3195   8.982   2.947   1.251
  433SOL    HW1 3196   9.024   2.892   1.316
  433SOL    HW2 3197   8.889   2.947   1.276
  434SOL     OW 3198  14.362   6.830  11.151
  434SOL    HW1 3199  14.403   6.788  11.075
  434SOL    HW2 3200  14.380   6.771  11.224
  435SOL     OW 3201   9.869   1.665   6.196
  435SOL    HW1 3202   9.824   1.673   6.280
  435SOL    HW2 3203   9.884   1.755   6.168
  436SOL     OW 3204  12.080  14.019  14.404
  436SOL    HW1 3205  12.043  14.089  14.350
  436SOL    HW2 3206  12.175  14.035  14.401
  437SOL     OW 3207   7.883  12.527   5.930
  437SOL    HW1 3208   7.900  12.548   6.021
  437SOL    HW2 3209   7.800  12.571   5.910
  438SOL     OW 3210   6.973   7.214  14.522
  438SOL    HW1 3211   6.985   7.309  14.523
  438SOL    HW2 3212   7.032   7.183  14.453
  439SOL     OW 3213   3.358  12.215  11.387
  439SOL    HW1 3214   3.268  12.190  11.366
  439SOL    HW2 3215   3.351  12.305  11.419
  440SOL     OW 3216  13.460  13.682  14.248
  440SOL    HW1 3217  13.401  13.721  14.312
  440SOL    HW2 3218  13.537  13.657  14.299
  441SOL     OW 3219   0.218   7.024  14.518
  441SOL    HW1 3220   0.220   7.002  14.611
  441SOL    HW2 3221   0.309   7.017  14.490
  442SOL     OW 3222   3.086   2.663   8.306
  442SOL    HW1 3223   3.152   2.730   8.322
  442SOL    HW2 3224   3.028   2.702   8.240
  443SOL     OW 3225  11.862  14.612   3.318
  443SOL    HW1 3226  11.819  14.527   3.331
  443SOL    HW2 3227  11.881  14.643   3.406
  444SOL     OW 3228   3.367   0.112   4.911
  444SOL    HW1 3229   3.343   0.082   4.823
  444SOL    HW2 3230   3.286   0.152   4.945
  445SOL     OW 3231  10.302   9.060  10.583
  445SOL    HW1 3232  10.251   9.066  10.502
  445SOL    HW2 3233  10.248   9.105  10.648
  446SOL     OW 3234   4.656  11.220   1.471
  446SOL    HW1 3235   4.730  11.256   1.519
  446SOL    HW2 3236   4.587  11.286   1.480
  447SOL     OW 3237   6.057   8.413  13.873
  447SOL    HW1 3238   6.083   8.353  13.944
  447SOL    HW2 3239   6.056   8.358  13.795
  448SOL     OW 3240   5.402   0.812  12.486
  448SOL    HW1 3241   5.475   0.865  12.517
  448SOL    HW2 3242   5.348   0.797  12.564
  449SOL     OW 3243   7.697   1.378  12.120
  449SOL    HW1 3244   7.706   1.393  12.214
  449SOL    HW2 3245   7.729   1.289  12.106
  450SOL     OW 3246   7.164  10.763  11.055
  450SOL    HW1 3247   7.236  10.740  11.113
  450SOL    HW2 3248   7.138  10.681  11.014
  451SOL     OW 3249  12.630   3.570   6.035
  451SOL    HW1 3250  12.627   3.478   6.063
  451SOL    HW2 3251  12.546   3.584   5.991
  452SOL     OW 3252   0.418   0.190  12.746
  452SOL    HW1 3253   0.384   0.180  12.836
  452SOL    HW2 3254   0.497   0.136  12.744
  453SOL     OW 3255   1.659  10.873   6.056
  453SOL    HW1 3256   1.644  10.872   5.962
  453SOL    HW2 3257   1.742  10.919   6.067
  454SOL     OW 3258  11.138   7.114   7.826
  454SOL    HW1 3259  11.114   7.168   7.902
  454SOL    HW2 3260  11.084   7.036   7.835
  455SOL     OW 3261   1.204   5.657   8.663
  455SOL    HW1 3262   1.275   5.643   8.725
  455SOL    HW2 3263   1.187   5.570   8.627
  456SOL     OW 3264   5.875   5.230   4.991
  456SOL    HW1 3265   5.852   5.224   4.899
  456SOL    HW2 3266   5.849   5.146   5.028
  457SOL     OW 3267   4.857  11.854   9.158
  457SOL    HW1 3268   4.837  11.796   9.232
  457SOL    HW2 3269   4.920  11.805   9.106
  458SOL     OW 3270  10.004   6.396   7.386
  458SOL    HW1 3271  10.027   6.408   7.294
  458SOL    HW2 3272   9.911   6.375   7.384
  459SOL     OW 3273   9.671   6.012  10.176
  459SOL    HW1 3274   9.738   6.010  10.108
  459SOL    HW2 3275   9.588   6.019  10.128
  460SOL     OW 3276   3.924   0.752   5.991
  460SOL    HW1 3277   3.918   0.772   5.897
  460SOL    HW2 3278   3.846   0.792   6.029
  461SOL     OW 3279  12.618  12.537   4.511
  461SOL    HW1 3280  12.566  12.578   4.580
  461SOL    HW2 3281  12.572  12.558   4.430
  462SOL     OW 3282   6.763  10.745   8.039
  462SOL    HW1 3283   6.804  10.720   8.122
  462SOL    HW2 3284   6.836  10.765   7.981
  463SOL     OW 3285   1.693  12.994   7.485
  463SOL    HW1 3286   1.767  12.933   7.494
  463SOL    HW2 3287   1.631  12.966   7.553
  464SOL     OW 3288   4.812  14.810   9.501
  464SOL    HW1 3289   4.828  14.728   9.548
  464SOL    HW2 3290   4.717  14.815   9.493
  465SOL     OW 3291  10.242   7.299  10.028
  465SOL    HW1 3292  10.278   7.381   9.995
  465SOL    HW2 3293  10.148   7.315  10.037
  466SOL     OW 3294   7.605  12.548   1.598
  466SOL    HW1 3295   7.670  12.577   1.535
  466SOL    HW2 3296   7.654  12.538   1.680
  467SOL     OW 3297  11.509  10.265   9.063
  467SOL    HW1 3298  11.492  10.312   8.981
  467SOL    HW2 3299  11.519  10.334   9.129
  468SOL     OW 3300  12.665  11.378   8.383
  468SOL    HW1 3301  12.678  11.288   8.355
  468SOL    HW2 3302  12.578  11.378   8.425
  469SOL     OW 3303  12.590  14.477   0.650
  469SOL    HW1 3304  12.610  14.558   0.696
  469SOL    HW2 3305  12.506  14.494   0.607
  470SOL     OW 3306   4.308  13.879   9.366
  470SOL    HW1 3307   4.241  13.871   9.298
  470SOL    HW2 3308   4.260  13.875   9.448
  471SOL     OW 3309  10.456   9.604   9.701
  471SOL    HW1 3310  10.529   9.664   9.717
  471SOL    HW2 3311  10.481   9.556   9.622
  472SOL     OW 3312   9.461   6.769   7.985
  472SOL    HW1 3313   9.412   6.805   8.059
  472SOL    HW2 3314   9.549   6.804   7.996
  473SOL     OW 3315   8.653   1.479   2.615
  473SOL    HW1 3316   8.657   1.437   2.529
  473SOL    HW2 3317   8.734   1.452   2.659
  474SOL     OW 3318   8.804   6.096   1.066
  474SOL    HW1 3319   8.791   6.018   1.011
  474SOL    HW2 3320   8.745   6.161   1.028
  475SOL     OW 3321  11.973   2.942   6.637
  475SOL    HW1 3322  11.963   2.872   6.701
  475SOL    HW2 3323  11.964   2.899   6.552
  476SOL     OW 3324   3.547   2.092   3.269
  476SOL    HW1 3325   3.516   2.021   3.214
  476SOL    HW2 3326   3.614   2.136   3.217
  477SOL     OW 3327   7.862   2.015   1.845
  477SOL    HW1 3328   7.833   1.930   1.878
  477SOL    HW2 3329   7.944   2.032   1.890
  478SOL     OW 3330  11.691  11.460  10.586
  478SOL    HW1 3331  11.768  11.414  10.552
  478SOL    HW2 3332  11.673  11.417  10.669
  479SOL     OW 3333   5.008  10.099  13.208
  479SOL    HW1 3334   5.005  10.131  13.298
  479SOL    HW2 3335   4.987  10.006  13.215
  480SOL     OW 3336  11.548   5.351   5.060
  480SOL    HW1 3337  11.487   5.286   5.024
  480SOL    HW2 3338  11.595   5.304   5.129
  481SOL     OW 3339  12.958   4.337  11.410
  481SOL    HW1 3340  12.952   4.377  11.323
  481SOL    HW2 3341  12.882   4.371  11.458
  482SOL     OW 3342  11.739  10.806   0.564
  482SOL    HW1 3343  11.772  10.878   0.509
  482SOL    HW2 3344  11.747  10.838   0.653
  483SOL     OW 3345   0.061  11.304  12.836
  483SOL    HW1 3346   0.153  11.318  12.813
  483SOL    HW2 3347   0.044  11.213  12.812
  484SOL     OW 3348   1.995   1.000   4.590
  484SOL    HW1 3349   1.931   0.929   4.582
  484SOL    HW2 3350   1.949   1.077   4.559
  485SOL     OW 3351  14.848   5.127  12.006
  485SOL    HW1 3352   0.033   5.073  12.048
  485SOL    HW2 3353  14.767   5.105  12.052
  486SOL     OW 3354   5.925   2.306  10.077
  486SOL    HW1 3355   6.000   2.361  10.098
  486SOL    HW2 3356   5.898   2.269  10.161
  487SOL     OW 3357   3.835   0.390   8.786
  487SOL    HW1 3358   3.771   0.461   8.796
  487SOL    HW2 3359   3.803   0.321   8.844
  488SOL     OW 3360   7.197   1.438  14.743
  488SOL    HW1 3361   7.269   1.486  14.784
  488SOL    HW2 3362   7.241   1.371  14.690
  489SOL     OW 3363   2.813   7.329   6.910
  489SOL    HW1 3364   2.861   7.254   6.874
  489SOL    HW2 3365   2.837   7.402   6.853
  490SOL     OW 3366  12.919   8.147   9.682
  490SOL    HW1 3367  12.843   8.091   9.699
  490SOL    HW2 3368  12.979   8.091   9.633
  491SOL     OW 3369   1.820   8.388   0.410
  491SOL    HW1 3370   1.857   8.314   0.457
  491SOL    HW2 3371   1.880   8.461   0.428
  492SOL     OW 3372   6.497   0.466   1.788
  492SOL    HW1 3373   6.461   0.553   1.771
  492SOL    HW2 3374   6.581   0.483   1.830
  493SOL     OW 3375   5.587   6.570   2.166
  493SOL    HW1 3376   5.585   6.615   2.250
  493SOL    HW2 3377   5.529   6.622   2.110
  494SOL     OW 3378   9.781  12.034   3.349
  494SOL    HW1 3379   9.767  12.126   3.372
  494SOL    HW2 3380   9.784  11.989   3.434
  495SOL     OW 3381  12.349   4.239   1.446
  495SOL    HW1 3382  12.400   4.319   1.433
  495SOL    HW2 3383  12.401   4.189   1.510
  496SOL     OW 3384   0.027   6.209  12.561
  496SOL    HW1 3385  14.854   6.134  12.582
  496SOL    HW2 3386   0.059   6.239  12.646
  497SOL     OW 3387  11.301   8.754   3.414
  497SOL    HW1 3388  11.323   8.839   3.450
  497SOL    HW2 3389  11.214   8.767   3.374
  498SOL     OW 3390   9.789   8.768  11.079
  498SOL    HW1 3391   9.739   8.687  11.084
  498SOL    HW2 3392   9.787   8.792  10.986
  499SOL     OW 3393   5.627   6.430  11.821
  499SOL    HW1 3394   5.657   6.517  11.792
  499SOL    HW2 3395   5.666   6.369  11.759
  500SOL     OW 3396  12.754  13.567   8.786
  500SOL    HW1 3397  12.750  13.517   8.867
  500SOL    HW2 3398  12.665  13.565   8.752
  501SOL     OW 3399   9.850   1.962  10.485
  501SOL    HW1 3400   9.767   1.917  10.495
  501SOL    HW2 3401   9.862   1.972  10.391
  502SOL     OW 3402   2.393   1.574  11.785
  502SOL    HW1 3403   2.475   1.596  11.831
  502SOL    HW2 3404   2.363   1.658  11.749
  503SOL     OW 3405   5.101   8.197  14.430
  503SOL    HW1 3406   5.173   8.147  14.392
  503SOL    HW2 3407   5.051   8.133  14.480
  504SOL     OW 3408  10.596   0.953  13.946
  504SOL    HW1 3409  10.635   1.035  13.916
  504SOL    HW2 3410  10.640   0.885  13.896
  505SOL     OW 3411  14.406   6.105  13.580
  505SOL    HW1 3412  14.487   6.060  13.555
  505SOL    HW2 3413  14.392   6.169  13.510
  506SOL     OW 3414   3.699  10.110   2.167
  506SOL    HW1 3415   3.628  10.149   2.218
  506SOL    HW2 3416   3.778  10.147   2.206
  507SOL     OW 3417  10.329   1.422  14.741
  507SOL    HW1 3418  10.245   1.454  14.772
  507SOL    HW2 3419  10.319   1.327  14.737
  508SOL     OW 3420   2.969  12.155   9.365
  508SOL    HW1 3421   2.995  12.243   9.392
  508SOL    HW2 3422   3.052  12.110   9.349
  509SOL     OW 3423   7.175  14.289   7.409
  509SOL    HW1 3424   7.161  14.368   7.358
  509SOL    HW2 3425   7.268  14.270   7.401
  510SOL     OW 3426   2.859   5.479   8.026
  510SOL    HW1 3427   2.880   5.395   7.986
  510SOL    HW2 3428   2.944   5.524   8.032
  511SOL     OW 3429   9.436   8.712   1.793
  511SOL    HW1 3430   9.514   8.657   1.801
  511SOL    HW2 3431   9.412   8.706   1.701
  512SOL     OW 3432   9.007   2.672   6.754
  512SOL    HW1 3433   9.100   2.652   6.747
  512SOL    HW2 3434   9.004   2.766   6.774
  513SOL     OW 3435   9.807   2.474   2.344
  513SOL    HW1 3436   9.866   2.542   2.310
  513SOL    HW2 3437   9.853   2.439   2.421
  514SOL     OW 3438   7.344   7.536  10.871
  514SOL    HW1 3439   7.401   7.577  10.936
  514SOL    HW2 3440   7.399   7.522  10.794
  515SOL     OW 3441  10.175  12.305   4.697
  515SOL    HW1 3442  10.112  12.307   4.625
  515SOL    HW2 3443  10.244  12.246   4.667
  516SOL     OW 3444   1.576   7.643   8.721
  516SOL    HW1 3445   1.532   7.693   8.652
  516SOL    HW2 3446   1.504   7.601   8.769
  517SOL     OW 3447  14.517   0.909   5.702
  517SOL    HW1 3448  14.473   0.827   5.726
  517SOL    HW2 3449  14.610   0.886   5.701
  518SOL     OW 3450   8.233   9.709   4.668
  518SOL    HW1 3451   8.174   9.776   4.702
  518SOL    HW2 3452   8.179   9.655   4.611
  519SOL     OW 3453   8.327   6.574   9.777
  519SOL    HW1 3454   8.333   6.664   9.747
  519SOL    HW2 3455   8.239   6.567   9.814
  520SOL     OW 3456  13.826   2.914   7.288
  520SOL    HW1 3457  13.770   2.838   7.273
  520SOL    HW2 3458  13.845   2.912   7.382
  521SOL     OW 3459  14.230  10.148   2.223
  521SOL    HW1 3460  14.263  10.073   2.172
  521SOL    HW2 3461  14.136  10.149   2.206
  522SOL     OW 3462   9.000   0.358  10.886
  522SOL    HW1 3463   9.058   0.375  10.812
  522SOL    HW2 3464   9.050   0.299  10.943
  523SOL     OW 3465   7.177   1.266   0.325
  523SOL    HW1 3466   7.130   1.272   0.242
  523SOL    HW2 3467   7.164   1.176   0.354
  524SOL     OW 3468  12.845  13.951   2.824
  524SOL    HW1 3469  12.941  13.946   2.819
  524SOL    HW2 3470  12.820  13.874   2.875
  525SOL     OW 3471   6.270   9.202  10.711
  525SOL    HW1 3472   6.227   9.150  10.780
  525SOL    HW2 3473   6.329   9.260  10.758
  526SOL     OW 3474   5.592  14.149   7.908
  526SOL    HW1 3475   5.592  14.167   7.814
  526SOL    HW2 3476   5.664  14.201   7.943
  527SOL     OW 3477  10.746   1.707   5.996
  527SOL    HW1 3478  10.691   1.751   6.060
  527SOL    HW2 3479  10.767   1.622   6.035
  528SOL     OW 3480   0.781  14.769   2.991
  528SOL    HW1 3481   0.862  14.820   2.993
  528SOL    HW2 3482   0.803  14.693   2.935
  529SOL     OW 3483   5.385  13.570   1.872
  529SOL    HW1 3484   5.473  13.560   1.908
  529SOL    HW2 3485   5.334  13.608   1.943
  530SOL     OW 3486  12.295   1.396  10.014
  530SOL    HW1 3487  12.390   1.400  10.002
  530SOL    HW2 3488  12.267   1.326   9.954
  531SOL     OW 3489   9.328  13.380   4.430
  531SOL    HW1 3490   9.265  13.437   4.474
  531SOL    HW2 3491   9.407  13.386   4.483
  532SOL     OW 3492   0.336  12.987   5.032
  532SOL    HW1 3493   0.413  12.935   5.054
  532SOL    HW2 3494   0.329  13.051   5.102
  533SOL     OW 3495   6.583  12.930  10.788
  533SOL    HW1 3496   6.626  12.874  10.723
  533SOL    HW2 3497   6.653  12.985  10.823
  534SOL     OW 3498   9.239   7.755   6.421
  534SOL    HW1 3499   9.243   7.670   6.465
  534SOL    HW2 3500   9.277   7.816   6.484
  535SOL     OW 3501  12.387   2.473   2.035
  535SOL    HW1 3502  12.481   2.460   2.040
  535SOL    HW2 3503  12.354   2.396   1.989
  536SOL     OW 3504   5.300   9.916   0.008
  536SOL    HW1 3505   5.209   9.943   0.021
  536SOL    HW2 3506   5.341   9.927   0.095
  537SOL     OW 3507  12.606   6.901  13.651
  537SOL    HW1 3508  12.570   6.898  13.562
  537SOL    HW2 3509  12.617   6.994  13.669
  538SOL     OW 3510   6.759   4.910   4.077
  538SOL    HW1 3511   6.741   4.838   4.016
  538SOL    HW2 3512   6.744   4.989   4.026
  539SOL     OW 3513   2.828   3.206  14.526
  539SOL    HW1 3514   2.841   3.221  14.433
  539SOL    HW2 3515   2.773   3.129  14.531
  540SOL     OW 3516   2.108   9.054  14.172
  540SOL    HW1 3517   2.075   9.054  14.262
  540SOL    HW2 3518   2.030   9.050  14.117
  541SOL     OW 3519   7.339  12.854  13.991
  541SOL    HW1 3520   7.303  12.805  14.065
  541SOL    HW2 3521   7.433  12.857  14.007
  542SOL     OW 3522   5.888   8.847  11.154
  542SOL    HW1 3523   5.793   8.848  11.145
  542SOL    HW2 3524   5.906   8.772  11.211
  543SOL     OW 3525  10.940   1.540   1.339
  543SOL    HW1 3526  10.974   1.615   1.389
  543SOL    HW2 3527  10.873   1.578   1.283
  544SOL     OW 3528   9.454   2.721   8.539
  544SOL    HW1 3529   9.394   2.676   8.480
  544SOL    HW2 3530   9.398   2.754   8.610
  545SOL     OW 3531   7.926   4.106   7.456
  545SOL    HW1 3532   7.950   4.137   7.368
  545SOL    HW2 3533   7.914   4.012   7.445
  546SOL     OW 3534  12.534   1.916   3.575
  546SOL    HW1 3535  12.547   2.009   3.553
  546SOL    HW2 3536  12.611   1.873   3.539
  547SOL     OW 3537   1.936  10.087   7.480
  547SOL    HW1 3538   1.864  10.026   7.495
  547SOL    HW2 3539   1.949  10.131   7.564
  548SOL     OW 3540   3.832   6.587   9.153
  548SOL    HW1 3541   3.769   6.535   9.204
  548SOL    HW2 3542   3.821   6.676   9.185
  549SOL     OW 3543   8.840   0.960   3.458
  549SOL    HW1 3544   8.838   0.877   3.505
  549SOL    HW2 3545   8.753   0.969   3.420
  550SOL     OW 3546   8.172   5.619  12.781
  550SOL    HW1 3547   8.224   5.676  12.839
  550SOL    HW2 3548   8.213   5.628  12.695
  551SOL     OW 3549   8.328   2.475   0.711
  551SOL    HW1 3550   8.280   2.496   0.631
  551SOL    HW2 3551   8.260   2.457   0.776
  552SOL     OW 3552  13.618   2.165   1.303
  552SOL    HW1 3553  13.580   2.207   1.226
  552SOL    HW2 3554  13.565   2.198   1.376
  553SOL     OW 3555   5.090   7.649   3.653
  553SOL    HW1 3556   5.039   7.646   3.572
  553SOL    HW2 3557   5.031   7.615   3.720
  554SOL     OW 3558   4.897  10.561   2.218
  554SOL    HW1 3559   4.980  10.556   2.266
  554SOL    HW2 3560   4.838  10.504   2.268
  555SOL     OW 3561   8.639   2.340   6.168
  555SOL    HW1 3562   8.667   2.413   6.113
  555SOL    HW2 3563   8.710   2.276   6.159
  556SOL     OW 3564   6.657   1.070   1.529
  556SOL    HW1 3565   6.625   1.037   1.446
  556SOL    HW2 3566   6.738   1.117   1.507
  557SOL     OW 3567  13.393  12.459   4.101
  557SOL    HW1 3568  13.354  12.376   4.130
  557SOL    HW2 3569  13.359  12.472   4.013
  558SOL     OW 3570  12.634   4.027   1.042
  558SOL    HW1 3571  12.548   4.055   1.011
  558SOL    HW2 3572  12.687   4.019   0.962
  559SOL     OW 3573   8.475   0.687   1.760
  559SOL    HW1 3574   8.539   0.616   1.770
  559SOL    HW2 3575   8.391   0.642   1.754
  560SOL     OW 3576  10.798   3.776   0.926
  560SOL    HW1 3577  10.712   3.780   0.968
  560SOL    HW2 3578  10.785   3.724   0.847
  561SOL     OW 3579  14.836   9.445  10.729
  561SOL    HW1 3580  14.803   9.478  10.646
  561SOL    HW2 3581  14.822   9.350  10.724
  562SOL     OW 3582   1.288   4.022   7.122
  562SOL    HW1 3583   1.328   4.109   7.115
  562SOL    HW2 3584   1.255   4.002   7.035
  563SOL     OW 3585   4.811  13.241   8.785
  563SOL    HW1 3586   4.789  13.174   8.850
  563SOL    HW2 3587   4.731  13.252   8.734
  564SOL     OW 3588  13.996   1.810   6.865
  564SOL    HW1 3589  13.963   1.746   6.928
  564SOL    HW2 3590  14.052   1.759   6.806
  565SOL     OW 3591  11.125   3.800   0.465
  565SOL    HW1 3592  11.177   3.841   0.396
  565SOL    HW2 3593  11.189   3.760   0.523
  566SOL     OW 3594   3.576   8.435   7.592
  566SOL    HW1 3595   3.603   8.359   7.644
  566SOL    HW2 3596   3.641   8.502   7.611
  567SOL     OW 3597  13.376   9.554   3.861
  567SOL    HW1 3598  13.377   9.649   3.847
  567SOL    HW2 3599  13.325   9.520   3.787
  568SOL     OW 3600   6.029   8.497  10.217
  568SOL    HW1 3601   6.035   8.549  10.298
  568SOL    HW2 3602   6.119   8.492  10.185
  569SOL     OW 3603   4.188   5.499   5.174
  569SOL    HW1 3604   4.164   5.592   5.179
  569SOL    HW2 3605   4.259   5.489   5.237
  570SOL     OW 3606   1.534   0.084   8.506
  570SOL    HW1 3607   1.586   0.115   8.431
  570SOL    HW2 3608   1.575   0.126   8.582
  571SOL     OW 3609   1.454   6.776   9.450
  571SOL    HW1 3610   1.424   6.822   9.372
  571SOL    HW2 3611   1.488   6.692   9.417
  572SOL     OW 3612   2.246   6.030   0.149
  572SOL    HW1 3613   2.216   6.030   0.058
  572SOL    HW2 3614   2.341   6.044   0.142
  573SOL     OW 3615   6.943   2.111   8.199
  573SOL    HW1 3616   6.922   2.097   8.292
  573SOL    HW2 3617   6.886   2.052   8.152
  574SOL     OW 3618   9.834  13.342   2.331
  574SOL    HW1 3619   9.829  13.396   2.252
  574SOL    HW2 3620   9.862  13.403   2.399
  575SOL     OW 3621   3.919   1.426   1.571
  575SOL    HW1 3622   3.970   1.498   1.534
  575SOL    HW2 3623   3.829   1.445   1.545
  576SOL     OW 3624   9.299   8.172  12.723
  576SOL    HW1 3625   9.393   8.153  12.711
  576SOL    HW2 3626   9.283   8.155  12.816
  577SOL     OW 3627   8.691  11.569   9.487
  577SOL    HW1 3628   8.644  11.652   9.495
  577SOL    HW2 3629   8.623  11.505   9.465
  578SOL     OW 3630   5.159  10.395  13.346
  578SOL    HW1 3631   5.111  10.361  13.422
  578SOL    HW2 3632   5.247  10.412  13.379
  579SOL     OW 3633   5.721  11.489   8.812
  579SOL    HW1 3634   5.734  11.482   8.906
  579SOL    HW2 3635   5.786  11.554   8.783
  580SOL     OW 3636   0.415  12.401   2.864
  580SOL    HW1 3637   0.374  12.469   2.918
  580SOL    HW2 3638   0.506  12.397   2.896
  581SOL     OW 3639   8.878   3.887   4.624
  581SOL    HW1 3640   8.938   3.925   4.560
  581SOL    HW2 3641   8.799   3.868   4.573
  582SOL     OW 3642   1.816   6.284   5.758
  582SOL    HW1 3643   1.781   6.204   5.717
  582SOL    HW2 3644   1.887   6.311   5.699
  583SOL     OW 3645   4.261   2.424   2.990
  583SOL    HW1 3646   4.203   2.455   2.921
  583SOL    HW2 3647   4.277   2.501   3.044
  584SOL     OW 3648  14.374  11.009   4.401
  584SOL    HW1 3649  14.340  10.923   4.423
  584SOL    HW2 3650  14.457  10.992   4.357
  585SOL     OW 3651   7.392   0.371  13.470
  585SOL    HW1 3652   7.334   0.310  13.516
  585SOL    HW2 3653   7.477   0.327  13.468
  586SOL     OW 3654   2.662  14.234   6.615
  586SOL    HW1 3655   2.612  14.218   6.695
  586SOL    HW2 3656   2.633  14.165   6.554
  587SOL     OW 3657  12.361   4.555  14.525
  587SOL    HW1 3658  12.306   4.500  14.470
  587SOL    HW2 3659  12.442   4.506  14.536
  588SOL     OW 3660   6.894   0.273  10.816
  588SOL    HW1 3661   6.987   0.291  10.829
  588SOL    HW2 3662   6.861   0.350  10.768
  589SOL     OW 3663   2.088  11.274   1.479
  589SOL    HW1 3664   2.011  11.309   1.525
  589SOL    HW2 3665   2.090  11.322   1.396
  590SOL     OW 3666   0.169   6.142   4.094
  590SOL    HW1 3667   0.198   6.170   4.007
  590SOL    HW2 3668   0.163   6.224   4.144
  591SOL     OW 3669  12.471  12.104   5.641
  591SOL    HW1 3670  12.410  12.032   5.657
  591SOL    HW2 3671  12.427  12.181   5.676
  592SOL     OW 3672   5.808   3.068  14.374
  592SOL    HW1 3673   5.830   3.159  14.351
  592SOL    HW2 3674   5.874   3.044  14.439
  593SOL     OW 3675   8.761  14.630  10.540
  593SOL    HW1 3676   8.747  14.673  10.624
  593SOL    HW2 3677   8.739  14.538  10.556
  594SOL     OW 3678   0.208   1.234   4.704
  594SOL    HW1 3679   0.121   1.271   4.722
  594SOL    HW2 3680   0.231   1.268   4.618
  595SOL     OW 3681  13.896   5.938   1.280
  595SOL    HW1 3682  13.865   5.987   1.204
  595SOL    HW2 3683  13.865   5.988   1.356
  596SOL     OW 3684   1.708  10.119   0.862
  596SOL    HW1 3685   1.694  10.027   0.885
  596SOL    HW2 3686   1.646  10.167   0.917
  597SOL     OW 3687   5.137   5.955   1.500
  597SOL    HW1 3688   5.160   5.912   1.418
  597SOL    HW2 3689   5.135   6.049   1.479
  598SOL     OW 3690   0.689   1.106   6.924
  598SOL    HW1 3691   0.706   1.082   6.832
  598SOL    HW2 3692   0.770   1.149   6.953
  599SOL     OW 3693   5.741   8.608   2.433
  599SOL    HW1 3694   5.788   8.691   2.435
  599SOL    HW2 3695   5.789   8.552   2.495
  600SOL     OW 3696   3.118   0.074  13.114
  600SOL    HW1 3697   3.076   0.119  13.041
  600SOL    HW2 3698   3.074   0.108  13.192
  601SOL     OW 3699   1.960   4.152  13.436
  601SOL    HW1 3700   1.930   4.142  13.527
  601SOL    HW2 3701   1.999   4.239  13.434
  602SOL     OW 3702   8.084   4.116   5.728
  602SOL    HW1 3703   8.103   4.203   5.691
  602SOL    HW2 3704   8.007   4.130   5.783
  603SOL     OW 3705   4.945  12.364  13.549
  603SOL    HW1 3706   4.994  12.402  13.623
  603SOL    HW2 3707   5.011  12.315  13.500
  604SOL     OW 3708   7.959   6.010   7.693
  604SOL    HW1 3709   8.012   5.969   7.761
  604SOL    HW2 3710   7.976   6.104   7.701
  605SOL     OW 3711   6.010   6.180   1.828
  605SOL    HW1 3712   6.059   6.160   1.748
  605SOL    HW2 3713   6.018   6.100   1.880
  606SOL     OW 3714   8.781  10.732   6.819
  606SOL    HW1 3715   8.776  10.740   6.724
  606SOL    HW2 3716   8.733  10.652   6.839
  607SOL     OW 3717   0.841   5.132   0.222
  607SOL    HW1 3718   0.832   5.054   0.168
  607SOL    HW2 3719   0.852   5.098   0.311
  608SOL     OW 3720  12.499  13.976   3.775
  608SOL    HW1 3721  12.515  14.015   3.690
  608SOL    HW2 3722  12.407  13.947   3.772
  609SOL     OW 3723   8.074  13.735   8.312
  609SOL    HW1 3724   8.161  13.712   8.345
  609SOL    HW2 3725   8.087  13.821   8.270
  610SOL     OW 3726  12.485  10.837   1.327
  610SOL    HW1 3727  12.577  10.858   1.314
  610SOL    HW2 3728  12.464  10.775   1.258
  611SOL     OW 3729   2.691   8.001   4.889
  611SOL    HW1 3730   2.615   7.989   4.831
  611SOL    HW2 3731   2.679   7.936   4.958
  612SOL     OW 3732   9.188  10.819   1.687
  612SOL    HW1 3733   9.202  10.840   1.779
  612SOL    HW2 3734   9.118  10.753   1.688
  613SOL     OW 3735   7.712  13.186   1.337
  613SOL    HW1 3736   7.720  13.242   1.260
  613SOL    HW2 3737   7.618  13.174   1.349
  614SOL     OW 3738   8.637   2.293  11.481
  614SOL    HW1 3739   8.657   2.383  11.455
  614SOL    HW2 3740   8.551   2.276  11.442
  615SOL     OW 3741   2.575   5.125   2.165
  615SOL    HW1 3742   2.483   5.109   2.184
  615SOL    HW2 3743   2.620   5.046   2.195
  616SOL     OW 3744  10.790   8.361  12.811
  616SOL    HW1 3745  10.711   8.311  12.790
  616SOL    HW2 3746  10.857   8.327  12.752
  617SOL     OW 3747   0.918   2.412   5.468
  617SOL    HW1 3748   0.879   2.474   5.407
  617SOL    HW2 3749   0.964   2.349   5.413
  618SOL     OW 3750  11.296  14.272   6.125
  618SOL    HW1 3751  11.359  14.204   6.104
  618SOL    HW2 3752  11.214  14.224   6.141
  619SOL     OW 3753   0.078   7.281   5.102
  619SOL    HW1 3754   0.069   7.326   5.019
  619SOL    HW2 3755   0.116   7.347   5.161
  620SOL     OW 3756  10.883   0.859  11.094
  620SOL    HW1 3757  10.839   0.925  11.039
  620SOL    HW2 3758  10.948   0.909  11.143
  621SOL     OW 3759  13.520   7.007  10.300
  621SOL    HW1 3760  13.452   6.998  10.368
  621SOL    HW2 3761  13.478   6.976  10.220
  622SOL     OW 3762   4.162  11.154   4.376
  622SOL    HW1 3763   4.187  11.105   4.298
  622SOL    HW2 3764   4.243  11.196   4.405
  623SOL     OW 3765   1.116  11.151  11.840
  623SOL    HW1 3766   1.039  11.169  11.786
  623SOL    HW2 3767   1.091  11.182  11.928
  624SOL     OW 3768   3.113   1.954   7.086
  624SOL    HW1 3769   3.123   1.861   7.106
  624SOL    HW2 3770   3.153   1.999   7.160
  625SOL     OW 3771   1.994  12.753   0.526
  625SOL    HW1 3772   1.919  12.696   0.541
  625SOL    HW2 3773   2.037  12.716   0.449
  626SOL     OW 3774   5.174   1.193  13.466
  626SOL    HW1 3775   5.107   1.159  13.406
  626SOL    HW2 3776   5.123   1.234  13.536
  627SOL     OW 3777   2.906   9.472   7.807
  627SOL    HW1 3778   2.959   9.392   7.806
  627SOL    HW2 3779   2.849   9.464   7.731
  628SOL     OW 3780  10.596  12.082  14.850
  628SOL    HW1 3781  10.581  12.029   0.046
  628SOL    HW2 3782  10.682  12.122  14.865
  629SOL     OW 3783   9.072  13.497  12.046
  629SOL    HW1 3784   9.002  13.561  12.032
  629SOL    HW2 3785   9.144  13.528  11.992
  630SOL     OW 3786  12.678   6.244  11.965
  630SOL    HW1 3787  12.739   6.218  12.034
  630SOL    HW2 3788  12.604   6.185  11.974
  631SOL     OW 3789   2.119  12.295   9.927
  631SOL    HW1 3790   2.145  12.223   9.870
  631SOL    HW2 3791   2.054  12.344   9.876
  632SOL     OW 3792   7.041  12.792   4.164
  632SOL    HW1 3793   7.020  12.720   4.224
  632SOL    HW2 3794   6.965  12.798   4.106
  633SOL     OW 3795   5.204   5.235   3.498
  633SOL    HW1 3796   5.294   5.203   3.498
  633SOL    HW2 3797   5.178   5.236   3.406
  634SOL     OW 3798  10.863   1.844   7.229
  634SOL    HW1 3799  10.787   1.816   7.177
  634SOL    HW2 3800  10.930   1.864   7.164
  635SOL     OW 3801   7.076  12.893   9.335
  635SOL    HW1 3802   7.070  12.800   9.310
  635SOL    HW2 3803   6.985  12.919   9.351
  636SOL     OW 3804  13.704  11.515  13.900
  636SOL    HW1 3805  13.655  11.592  13.869
  636SOL    HW2 3806  13.795  11.545  13.904
  637SOL     OW 3807   8.319   9.390  14.776
  637SOL    HW1 3808   8.347   9.471  14.819
  637SOL    HW2 3809   8.283   9.336  14.847
  638SOL     OW 3810   8.112   7.714   6.018
  638SOL    HW1 3811   8.073   7.630   5.996
  638SOL    HW2 3812   8.205   7.695   6.030
  639SOL     OW 3813  14.777   4.978   7.848
  639SOL    HW1 3814  14.780   5.039   7.775
  639SOL    HW2 3815  14.818   4.898   7.816
  640SOL     OW 3816   0.589   9.493  14.656
  640SOL    HW1 3817   0.590   9.581  14.694
  640SOL    HW2 3818   0.674   9.456  14.680
  641SOL     OW 3819   9.934  12.981   8.241
  641SOL    HW1 3820   9.926  12.948   8.331
  641SOL    HW2 3821  10.025  12.964   8.217
  642SOL     OW 3822   4.665   1.501  14.824
  642SOL    HW1 3823   4.706   1.586  14.841
  642SOL    HW2 3824   4.731   1.453  14.775
  643SOL     OW 3825   1.240  11.662   7.655
  643SOL    HW1 3826   1.174  11.640   7.721
  643SOL    HW2 3827   1.307  11.710   7.704
  644SOL     OW 3828   6.557  10.369   4.031
  644SOL    HW1 3829   6.579  10.427   4.104
  644SOL    HW2 3830   6.626  10.304   4.031
  645SOL     OW 3831   3.649   5.808  13.475
  645SOL    HW1 3832   3.581   5.754  13.435
  645SOL    HW2 3833   3.603   5.884  13.509
  646SOL     OW 3834   5.567   9.644   1.019
  646SOL    HW1 3835   5.625   9.669   0.948
  646SOL    HW2 3836   5.591   9.554   1.040
  647SOL     OW 3837   0.092   5.390   2.958
  647SOL    HW1 3838   0.146   5.416   3.032
  647SOL    HW2 3839   0.127   5.441   2.884
  648SOL     OW 3840  11.781   3.906   0.114
  648SOL    HW1 3841  11.869   3.937   0.097
  648SOL    HW2 3842  11.790   3.845   0.188
  649SOL     OW 3843   7.457  13.341   4.238
  649SOL    HW1 3844   7.394  13.289   4.189
  649SOL    HW2 3845   7.540  13.327   4.193
  650SOL     OW 3846   4.891   6.998   3.225
  650SOL    HW1 3847   4.866   7.090   3.233
  650SOL    HW2 3848   4.811   6.953   3.198
  651SOL     OW 3849   5.928   4.010   3.150
  651SOL    HW1 3850   5.990   3.970   3.211
  651SOL    HW2 3851   5.854   3.949   3.149
  652SOL     OW 3852   8.063  14.762   1.830
  652SOL    HW1 3853   8.033  14.845   1.866
  652SOL    HW2 3854   7.991  14.731   1.775
  653SOL     OW 3855   7.808   1.297  14.348
  653SOL    HW1 3856   7.878   1.232  14.343
  653SOL    HW2 3857   7.742   1.266  14.286
  654SOL     OW 3858   9.123   8.229   1.592
  654SOL    HW1 3859   9.040   8.255   1.553
  654SOL    HW2 3860   9.163   8.172   1.526
  655SOL     OW 3861   3.840   4.354  11.785
  655SOL    HW1 3862   3.783   4.395  11.721
  655SOL    HW2 3863   3.855   4.422  11.851
  656SOL     OW 3864   1.798   3.269   4.742
  656SOL    HW1 3865   1.721   3.269   4.799
  656SOL    HW2 3866   1.847   3.191   4.768
  657SOL     OW 3867  12.603  12.839  12.879
  657SOL    HW1 3868  12.650  12.921  12.893
  657SOL    HW2 3869  12.639  12.804  12.798
  658SOL     OW 3870   5.506  10.704  10.247
  658SOL    HW1 3871   5.578  10.730  10.304
  658SOL    HW2 3872   5.543  10.705  10.159
  659SOL     OW 3873  10.801  13.060   6.126
  659SOL    HW1 3874  10.876  13.005   6.146
  659SOL    HW2 3875  10.747  13.058   6.205
  660SOL     OW 3876   2.464  13.292   8.740
  660SOL    HW1 3877   2.511  13.348   8.801
  660SOL    HW2 3878   2.524  13.219   8.724
  661SOL     OW 3879  10.852   2.498   2.263
  661SOL    HW1 3880  10.902   2.576   2.287
  661SOL    HW2 3881  10.916   2.427   2.264
  662SOL     OW 3882   4.900  14.706  11.427
  662SOL    HW1 3883   4.856  14.621  11.436
  662SOL    HW2 3884   4.973  14.689  11.367
  663SOL     OW 3885  14.224   7.678   5.431
  663SOL    HW1 3886  14.233   7.615   5.359
  663SOL    HW2 3887  14.284   7.749   5.408
  664SOL     OW 3888  12.165   1.473   9.700
  664SOL    HW1 3889  12.121   1.443   9.620
  664SOL    HW2 3890  12.115   1.550   9.728
  665SOL     OW 3891  11.966   3.765  12.723
  665SOL    HW1 3892  12.049   3.813  12.723
  665SOL    HW2 3893  11.991   3.675  12.700
  666SOL     OW 3894   5.865   6.204  13.080
  666SOL    HW1 3895   5.810   6.183  13.005
  666SOL    HW2 3896   5.808   6.192  13.157
  667SOL     OW 3897  12.570  12.219   7.300
  667SOL    HW1 3898  12.550  12.312   7.290
  667SOL    HW2 3899  12.612  12.195   7.217
  668SOL     OW 3900   1.851  12.530   6.329
  668SOL    HW1 3901   1.832  12.437   6.338
  668SOL    HW2 3902   1.926  12.545   6.387
  669SOL     OW 3903   2.383   7.650   0.291
  669SOL    HW1 3904   2.405   7.587   0.359
  669SOL    HW2 3905   2.458   7.647   0.230
  670SOL     OW 3906   1.259   5.726   0.768
  670SOL    HW1 3907   1.255   5.631   0.755
  670SOL    HW2 3908   1.168   5.752   0.783
  671SOL     OW 3909   2.155  14.136  12.389
  671SOL    HW1 3910   2.066  14.118  12.419
  671SOL    HW2 3911   2.148  14.216  12.337
  672SOL     OW 3912   5.451  13.600   3.863
  672SOL    HW1 3913   5.529  13.644   3.831
  672SOL    HW2 3914   5.457  13.606   3.958
  673SOL     OW 3915   2.163   9.783  12.398
  673SOL    HW1 3916   2.107   9.705  12.404
  673SOL    HW2 3917   2.148   9.817  12.310
  674SOL     OW 3918   7.806   2.401   6.721
  674SOL    HW1 3919   7.866   2.430   6.652
  674SOL    HW2 3920   7.863   2.365   6.789
  675SOL     OW 3921   8.713  12.234   4.416
  675SOL    HW1 3922   8.743  12.227   4.325
  675SOL    HW2 3923   8.622  12.205   4.413
  676SOL     OW 3924   0.374  10.826   3.595
  676SOL    HW1 3925   0.444  10.784   3.545
  676SOL    HW2 3926   0.420  10.884   3.656
  677SOL     OW 3927   6.311   8.492  14.323
  677SOL    HW1 3928   6.275   8.403  14.321
  677SOL    HW2 3929   6.289   8.525  14.410
  678SOL     OW 3930   4.031   9.373   4.482
  678SOL    HW1 3931   4.090   9.354   4.409
  678SOL    HW2 3932   4.072   9.330   4.557
  679SOL     OW 3933   3.225  13.984   5.422
  679SOL    HW1 3934   3.224  14.045   5.348
  679SOL    HW2 3935   3.134  13.957   5.432
  680SOL     OW 3936  10.080  13.796   2.236
  680SOL    HW1 3937  10.033  13.747   2.169
  680SOL    HW2 3938  10.154  13.740   2.259
  681SOL     OW 3939   7.614   7.437   8.699
  681SOL    HW1 3940   7.521   7.445   8.720
  681SOL    HW2 3941   7.627   7.343   8.688
  682SOL     OW 3942   5.743  10.648   1.461
  682SOL    HW1 3943   5.656  10.674   1.491
  682SOL    HW2 3944   5.793  10.730   1.459
  683SOL     OW 3945  11.887   9.082   9.902
  683SOL    HW1 3946  11.824   9.024   9.860
  683SOL    HW2 3947  11.966   9.074   9.849
  684SOL     OW 3948  14.572   4.046  10.267
  684SOL    HW1 3949  14.655   4.054  10.221
  684SOL    HW2 3950  14.523   4.125  10.245
  685SOL     OW 3951   9.054   9.516  11.260
  685SOL    HW1 3952   9.027   9.521  11.351
  685SOL    HW2 3953   9.100   9.432  11.253
  686SOL     OW 3954   9.296   3.118   8.218
  686SOL    HW1 3955   9.234   3.177   8.175
  686SOL    HW2 3956   9.340   3.173   8.284
  687SOL     OW 3957  13.499   8.745   7.364
  687SOL    HW1 3958  13.508   8.667   7.309
  687SOL    HW2 3959  13.582   8.792   7.352
  688SOL     OW 3960   2.234   7.960   8.542
  688SOL    HW1 3961   2.297   7.918   8.484
  688SOL    HW2 3962   2.174   7.890   8.567
  689SOL     OW 3963  13.816  13.121   1.797
  689SOL    HW1 3964  13.807  13.043   1.851
  689SOL    HW2 3965  13.839  13.190   1.859
  690SOL     OW 3966  10.586   7.440  13.592
  690SOL    HW1 3967  10.592   7.345  13.590
  690SOL    HW2 3968  10.539   7.461  13.672
  691SOL     OW 3969  10.938   4.600  11.291
  691SOL    HW1 3970  11.027   4.609  11.325
  691SOL    HW2 3971  10.938   4.647  11.208
  692SOL     OW 3972   9.165  10.963   8.164
  692SOL    HW1 3973   9.191  11.030   8.226
  692SOL    HW2 3974   9.247  10.932   8.125
  693SOL     OW 3975   4.581   8.685  12.958
  693SOL    HW1 3976   4.601   8.602  12.915
  693SOL    HW2 3977   4.641   8.748  12.916
  694SOL     OW 3978   7.584   9.910  10.022
  694SOL    HW1 3979   7.651   9.978  10.030
  694SOL    HW2 3980   7.579   9.870  10.109
  695SOL     OW 3981   2.613   7.544   9.129
  695SOL    HW1 3982   2.586   7.457   9.101
  695SOL    HW2 3983   2.531   7.587   9.156
  696SOL     OW 3984  12.814   3.774  12.538
  696SOL    HW1 3985  12.723   3.794  12.564
  696SOL    HW2 3986  12.829   3.686  12.574
  697SOL     OW 3987   0.677   2.406  11.495
  697SOL    HW1 3988   0.709   2.320  11.471
  697SOL    HW2 3989   0.708   2.464  11.425
  698SOL     OW 3990  11.521   3.617   5.182
  698SOL    HW1 3991  11.456   3.621   5.252
  698SOL    HW2 3992  11.600   3.655   5.219
  699SOL     OW 3993   0.865  14.209   6.620
  699SOL    HW1 3994   0.811  14.263   6.677
  699SOL    HW2 3995   0.842  14.236   6.532
  700SOL     OW 3996   9.106   5.108   0.928
  700SOL    HW1 3997   9.069   5.030   0.970
  700SOL    HW2 3998   9.031   5.157   0.896
  701SOL     OW 3999   2.590   6.668   1.374
  701SOL    HW1 4000   2.621   6.680   1.464
  701SOL    HW2 4001   2.495   6.666   1.382
  702SOL     OW 4002   4.898  13.021   9.385
  702SOL    HW1 4003   4.836  13.066   9.327
  702SOL    HW2 4004   4.913  12.936   9.343
  703SOL     OW 4005  12.866  12.885  13.880
  703SOL    HW1 4006  12.804  12.849  13.943
  703SOL    HW2 4007  12.907  12.958  13.926
  704SOL     OW 4008   5.321  13.222   2.681
  704SOL    HW1 4009   5.332  13.285   2.753
  704SOL    HW2 4010   5.408  13.187   2.666
  705SOL     OW 4011   9.023   9.679   6.052
  705SOL    HW1 4012   9.059   9.653   6.137
  705SOL    HW2 4013   9.099   9.710   6.002
  706SOL     OW 4014  14.216  13.915   7.972
  706SOL    HW1 4015  14.147  13.873   8.023
  706SOL    HW2 4016  14.267  13.963   8.037
  707SOL     OW 4017  11.032   1.281  10.227
  707SOL    HW1 4018  10.942   1.294  10.254
  707SOL    HW2 4019  11.026   1.244  10.139
  708SOL     OW 4020  12.203  13.821  13.177
  708SOL    HW1 4021  12.197  13.727  13.164
  708SOL    HW2 4022  12.162  13.859  13.099
  709SOL     OW 4023   6.154  12.287   4.587
  709SOL    HW1 4024   6.185  12.373   4.559
  709SOL    HW2 4025   6.210  12.265   4.662
  710SOL     OW 4026  11.211  11.057   2.457
  710SOL    HW1 4027  11.170  10.985   2.408
  710SOL    HW2 4028  11.297  11.023   2.481
  711SOL     OW 4029   6.456   8.933   6.856
  711SOL    HW1 4030   6.518   8.880   6.905
  711SOL    HW2 4031   6.482   9.024   6.875
  712SOL     OW 4032  12.516  13.448  12.625
  712SOL    HW1 4033  12.563  13.370  12.595
  712SOL    HW2 4034  12.437  13.450  12.571
  713SOL     OW 4035   2.338   1.826  11.645
  713SOL    HW1 4036   2.357   1.918  11.658
  713SOL    HW2 4037   2.312   1.820  11.553
  714SOL     OW 4038   2.645   4.092  14.475
  714SOL    HW1 4039   2.687   4.086  14.561
  714SOL    HW2 4040   2.715   4.122  14.416
  715SOL     OW 4041   8.825  14.243  14.530
  715SOL    HW1 4042   8.866  14.158  14.547
  715SOL    HW2 4043   8.898  14.304  14.525
  716SOL     OW 4044   1.994   3.304   7.803
  716SOL    HW1 4045   2.080   3.321   7.764
  716SOL    HW2 4046   1.940   3.275   7.729
  717SOL     OW 4047   9.968  10.989  14.029
  717SOL    HW1 4048   9.958  11.084  14.018
  717SOL    HW2 4049   9.987  10.957  13.941
  718SOL     OW 4050   8.548   5.772   5.615
  718SOL    HW1 4051   8.513   5.847   5.663
  718SOL    HW2 4052   8.512   5.696   5.662
  719SOL     OW 4053   9.329   3.792   1.230
  719SOL    HW1 4054   9.373   3.872   1.257
  719SOL    HW2 4055   9.276   3.767   1.305
  720SOL     OW 4056   3.282   2.020  10.394
  720SOL    HW1 4057   3.327   2.050  10.472
  720SOL    HW2 4058   3.243   2.099  10.356
  721SOL     OW 4059  13.186   5.355  11.534
  721SOL    HW1 4060  13.116   5.326  11.592
  721SOL    HW2 4061  13.266   5.326  11.577
  722SOL     OW 4062   9.949   7.576   2.318
  722SOL    HW1 4063  10.012   7.648   2.325
  722SOL    HW2 4064   9.939   7.562   2.224
  723SOL     OW 4065   0.624  13.459   3.505
  723SOL    HW1 4066   0.707  13.421   3.478
  723SOL    HW2 4067   0.612  13.428   3.595
  724SOL     OW 4068  10.319   2.076   9.173
  724SOL    HW1 4069  10.258   2.038   9.236
  724SOL    HW2 4070  10.264   2.108   9.102
  725SOL     OW 4071   2.731   4.816  13.155
  725SOL    HW1 4072   2.749   4.872  13.231
  725SOL    HW2 4073   2.644   4.844  13.126
  726SOL     OW 4074   8.517  11.463   9.241
  726SOL    HW1 4075   8.439  11.503   9.281
  726SOL    HW2 4076   8.530  11.382   9.291
  727SOL     OW 4077  14.626   0.659  11.303
  727SOL    HW1 4078  14.577   0.636  11.382
  727SOL    HW2 4079  14.718   0.654  11.329
  728SOL     OW 4080  10.354   1.160   6.478
  728SOL    HW1 4081  10.354   1.229   6.544
  728SOL    HW2 4082  10.306   1.088   6.517
  729SOL     OW 4083   9.473   1.717  14.187
  729SOL    HW1 4084   9.540   1.725  14.255
  729SOL    HW2 4085   9.521   1.693  14.108
  730SOL     OW 4086   6.633   1.314   9.229
  730SOL    HW1 4087   6.613   1.248   9.295
  730SOL    HW2 4088   6.713   1.281   9.186
  731SOL     OW 4089   4.944   1.615  14.324
  731SOL    HW1 4090   4.966   1.572  14.406
  731SOL    HW2 4091   4.868   1.669  14.345
  732SOL     OW 4092   0.659   7.129  13.268
  732SOL    HW1 4093   0.639   7.150  13.359
  732SOL    HW2 4094   0.733   7.186  13.246
  733SOL     OW 4095   5.535   8.496  12.979
  733SOL    HW1 4096   5.601   8.564  12.995
  733SOL    HW2 4097   5.571   8.418  13.021
  734SOL     OW 4098   2.799   2.744   5.537
  734SOL    HW1 4099   2.739   2.694   5.593
  734SOL    HW2 4100   2.886   2.728   5.575
  735SOL     OW 4101   5.573   1.211   5.589
  735SOL    HW1 4102   5.496   1.232   5.536
  735SOL    HW2 4103   5.572   1.275   5.660
  736SOL     OW 4104  10.702  14.100   7.374
  736SOL    HW1 4105  10.674  14.008   7.380
  736SOL    HW2 4106  10.627  14.146   7.336
  737SOL     OW 4107   0.917  13.644   7.321
  737SOL    HW1 4108   0.958  13.726   7.293
  737SOL    HW2 4109   0.971  13.576   7.282
  738SOL     OW 4110  12.817   1.875   9.168
  738SOL    HW1 4111  12.771   1.860   9.251
  738SOL    HW2 4112  12.852   1.790   9.144
  739SOL     OW 4113   0.561   7.587  12.829
  739SOL    HW1 4114   0.466   7.579  12.836
  739SOL    HW2 4115   0.588   7.507  12.784
  740SOL     OW 4116   1.394   5.257  13.914
  740SOL    HW1 4117   1.489   5.268  13.922
  740SOL    HW2 4118   1.357   5.340  13.944
  741SOL     OW 4119   5.625  13.927   4.183
  741SOL    HW1 4120   5.533  13.910   4.166
  741SOL    HW2 4121   5.672  13.863   4.129
  742SOL     OW 4122   8.016  14.472  11.416
  742SOL    HW1 4123   8.076  14.489  11.489
  742SOL    HW2 4124   8.065  14.500  11.338
  743SOL     OW 4125   5.776  11.544  13.031
  743SOL    HW1 4126   5.784  11.463  13.081
  743SOL    HW2 4127   5.824  11.526  12.950
  744SOL     OW 4128  11.610   6.737   8.961
  744SOL    HW1 4129  11.650   6.766   8.879
  744SOL    HW2 4130  11.584   6.818   9.005
  745SOL     OW 4131   0.262   8.407  13.512
  745SOL    HW1 4132   0.358   8.399  13.513
  745SOL    HW2 4133   0.246   8.494  13.474
  746SOL     OW 4134   5.719   5.981   2.473
  746SOL    HW1 4135   5.760   6.061   2.505
  746SOL    HW2 4136   5.710   5.925   2.550
  747SOL     OW 4137  13.571   0.769   2.338
  747SOL    HW1 4138  13.562   0.675   2.329
  747SOL    HW2 4139  13.508   0.793   2.406
  748SOL     OW 4140   3.677   5.187   9.353
  748SOL    HW1 4141   3.607   5.252   9.362
  748SOL    HW2 4142   3.685   5.150   9.441
  749SOL     OW 4143   9.667  12.769  12.954
  749SOL    HW1 4144   9.610  12.767  12.877
  749SOL    HW2 4145   9.607  12.767  13.028
  750SOL     OW 4146   8.459   0.796   3.864
  750SOL    HW1 4147   8.462   0.879   3.816
  750SOL    HW2 4148   8.371   0.761   3.846
  751SOL     OW 4149  14.641  13.460  14.399
  751SOL    HW1 4150  14.632  13.550  14.367
  751SOL    HW2 4151  14.570  13.412  14.356
  752SOL     OW 4152   2.302  12.311   9.639
  752SOL    HW1 4153   2.309  12.265   9.723
  752SOL    HW2 4154   2.235  12.377   9.653
  753SOL     OW 4155  11.555   4.680   2.740
  753SOL    HW1 4156  11.594   4.761   2.774
  753SOL    HW2 4157  11.628   4.619   2.734
  754SOL     OW 4158   6.523   6.295   0.016
  754SOL    HW1 4159   6.578   6.224  14.866
  754SOL    HW2 4160   6.502   6.270   0.106
  755SOL     OW 4161  14.078   0.232  12.042
  755SOL    HW1 4162  14.166   0.260  12.017
  755SOL    HW2 4163  14.069   0.145  12.002
  756SOL     OW 4164   8.735   3.734  13.026
  756SOL    HW1 4165   8.799   3.732  13.097
  756SOL    HW2 4166   8.674   3.803  13.051
  757SOL     OW 4167  12.477  13.156  10.458
  757SOL    HW1 4168  12.469  13.065  10.487
  757SOL    HW2 4169  12.405  13.201  10.500
  758SOL     OW 4170  10.325   1.836  14.566
  758SOL    HW1 4171  10.264   1.765  14.545
  758SOL    HW2 4172  10.407   1.811  14.525
  759SOL     OW 4173   0.235   3.092   3.613
  759SOL    HW1 4174   0.160   3.084   3.555
  759SOL    HW2 4175   0.198   3.114   3.698
  760SOL     OW 4176  13.013   8.220  13.351
  760SOL    HW1 4177  13.098   8.185  13.326
  760SOL    HW2 4178  13.013   8.310  13.319
  761SOL     OW 4179   6.218   5.109  11.729
  761SOL    HW1 4180   6.166   5.112  11.649
  761SOL    HW2 4181   6.248   5.199  11.743
  762SOL     OW 4182  13.209   0.381   4.407
  762SOL    HW1 4183  13.161   0.389   4.489
  762SOL    HW2 4184  13.143   0.358   4.342
  763SOL     OW 4185  12.716   5.895   0.683
  763SOL    HW1 4186  12.685   5.923   0.597
  763SOL    HW2 4187  12.645   5.842   0.718
  764SOL     OW 4188   1.657   2.319   6.600
  764SOL    HW1 4189   1.752   2.319   6.586
  764SOL    HW2 4190   1.644   2.372   6.678
  765SOL     OW 4191  14.458   1.998  11.927
  765SOL    HW1 4192  14.521   2.024  11.860
  765SOL    HW2 4193  14.438   1.907  11.907
  766SOL     OW 4194   6.230   1.021   8.686
  766SOL    HW1 4195   6.262   1.060   8.604
  766SOL    HW2 4196   6.233   1.092   8.749
  767SOL     OW 4197   3.709   4.645  12.995
  767SOL    HW1 4198   3.796   4.607  13.009
  767SOL    HW2 4199   3.665   4.584  12.935
  768SOL     OW 4200   1.734  14.664   5.566
  768SOL    HW1 4201   1.752  14.583   5.615
  768SOL    HW2 4202   1.747  14.734   5.630
  769SOL     OW 4203   1.760  12.547   3.202
  769SOL    HW1 4204   1.767  12.527   3.108
  769SOL    HW2 4205   1.837  12.506   3.241
  770SOL     OW 4206   8.671  13.159   3.240
  770SOL    HW1 4207   8.626  13.222   3.296
  770SOL    HW2 4208   8.623  13.077   3.252
  771SOL     OW 4209  13.067  12.771  12.834
  771SOL    HW1 4210  13.133  12.785  12.901
  771SOL    HW2 4211  13.106  12.805  12.754
  772SOL     OW 4212   4.472  11.101  14.022
  772SOL    HW1 4213   4.515  11.183  14.046
  772SOL    HW2 4214   4.541  11.035  14.025
  773SOL     OW 4215   0.221  11.319   8.837
  773SOL    HW1 4216   0.169  11.308   8.757
  773SOL    HW2 4217   0.253  11.231   8.857
  774SOL     OW 4218  13.428   6.056  11.612
  774SOL    HW1 4219  13.386   6.105  11.683
  774SOL    HW2 4220  13.513   6.030  11.648
  775SOL     OW 4221   4.369  12.323  13.068
  775SOL    HW1 4222   4.463  12.336  13.054
  775SOL    HW2 4223   4.351  12.364  13.152
  776SOL     OW 4224  12.124   2.437  11.180
  776SOL    HW1 4225  12.119   2.461  11.088
  776SOL    HW2 4226  12.178   2.358  11.181
  777SOL     OW 4227   4.518   0.779  11.525
  777SOL    HW1 4228   4.586   0.845  11.509
  777SOL    HW2 4229   4.441   0.830  11.551
  778SOL     OW 4230   3.710   5.746   9.704
  778SOL    HW1 4231   3.733   5.829   9.662
  778SOL    HW2 4232   3.657   5.771   9.779
  779SOL     OW 4233   9.604   5.380   8.571
  779SOL    HW1 4234   9.606   5.288   8.596
  779SOL    HW2 4235   9.563   5.424   8.646
  780SOL     OW 4236  13.892   9.558  12.789
  780SOL    HW1 4237  13.864   9.491  12.850
  780SOL    HW2 4238  13.966   9.602  12.833
  781SOL     OW 4239   1.523  13.421   6.320
  781SOL    HW1 4240   1.619  13.415   6.322
  781SOL    HW2 4241   1.498  13.379   6.238
  782SOL     OW 4242  10.835   6.206   2.478
  782SOL    HW1 4243  10.916   6.191   2.429
  782SOL    HW2 4244  10.855   6.174   2.566
  783SOL     OW 4245   6.793   7.579   8.112
  783SOL    HW1 4246   6.815   7.599   8.203
  783SOL    HW2 4247   6.849   7.637   8.060
  784SOL     OW 4248   3.372  11.852  14.529
  784SOL    HW1 4249   3.426  11.929  14.514
  784SOL    HW2 4250   3.321  11.873  14.607
  785SOL     OW 4251  11.237   9.834  11.656
  785SOL    HW1 4252  11.257   9.811  11.566
  785SOL    HW2 4253  11.283   9.768  11.709
  786SOL     OW 4254  14.661   4.506  10.884
  786SOL    HW1 4255  14.631   4.541  10.968
  786SOL    HW2 4256  14.706   4.424  10.907
  787SOL     OW 4257  12.498  10.510   4.924
  787SOL    HW1 4258  12.418  10.459   4.939
  787SOL    HW2 4259  12.472  10.579   4.864
  788SOL     OW 4260   1.219   6.366  11.981
  788SOL    HW1 4261   1.210   6.277  12.014
  788SOL    HW2 4262   1.216   6.421  12.060
  789SOL     OW 4263  13.632  13.847   4.541
  789SOL    HW1 4264  13.625  13.788   4.466
  789SOL    HW2 4265  13.594  13.797   4.614
  790SOL     OW 4266   5.138  12.291  12.402
  790SOL    HW1 4267   5.156  12.214  12.456
  790SOL    HW2 4268   5.222  12.314  12.363
  791SOL     OW 4269   7.907  10.828   7.447
  791SOL    HW1 4270   7.934  10.870   7.528
  791SOL    HW2 4271   7.829  10.777   7.471
  792SOL     OW 4272   7.023   1.248   6.682
  792SOL    HW1 4273   6.940   1.255   6.635
  792SOL    HW2 4274   7.089   1.278   6.620
  793SOL     OW 4275  10.925   7.220   9.461
  793SOL    HW1 4276  10.859   7.194   9.525
  793SOL    HW2 4277  10.892   7.304   9.427
  794SOL     OW 4278   3.159   4.319   8.870
  794SOL    HW1 4279   3.158   4.268   8.951
  794SOL    HW2 4280   3.221   4.390   8.887
  795SOL     OW 4281  12.677   3.810   2.041
  795SOL    HW1 4282  12.700   3.874   2.108
  795SOL    HW2 4283  12.586   3.832   2.018
  796SOL     OW 4284   1.779   7.247   3.228
  796SOL    HW1 4285   1.715   7.295   3.175
  796SOL    HW2 4286   1.731   7.221   3.307
  797SOL     OW 4287   3.444   6.897   8.615
  797SOL    HW1 4288   3.352   6.903   8.641
  797SOL    HW2 4289   3.442   6.882   8.521
  798SOL     OW 4290  10.739   7.012   2.362
  798SOL    HW1 4291  10.673   7.081   2.370
  798SOL    HW2 4292  10.754   7.005   2.268
  799SOL     OW 4293  11.522   2.108   8.310
  799SOL    HW1 4294  11.603   2.088   8.357
  799SOL    HW2 4295  11.453   2.082   8.371
  800SOL     OW 4296   8.638  10.777  14.265
  800SOL    HW1 4297   8.675  10.692  14.288
  800SOL    HW2 4298   8.705  10.819  14.211
  801SOL     OW 4299  10.566  14.033  14.520
  801SOL    HW1 4300  10.580  14.127  14.531
  801SOL    HW2 4301  10.637  14.004  14.462
  802SOL     OW 4302   7.244   5.072   5.755
  802SOL    HW1 4303   7.329   5.052   5.715
  802SOL    HW2 4304   7.257   5.053   5.848
  803SOL     OW 4305  11.789  13.270   4.239
  803SOL    HW1 4306  11.699  13.290   4.213
  803SOL    HW2 4307  11.804  13.323   4.317
  804SOL     OW 4308  11.794  12.051   2.970
  804SOL    HW1 4309  11.739  12.125   2.998
  804SOL    HW2 4310  11.731  11.983   2.945
  805SOL     OW 4311  14.092   7.221   4.789
  805SOL    HW1 4312  14.053   7.186   4.869
  805SOL    HW2 4313  14.102   7.145   4.731
  806SOL     OW 4314   4.782   4.180   0.630
  806SOL    HW1 4315   4.804   4.091   0.658
  806SOL    HW2 4316   4.856   4.208   0.577
  807SOL     OW 4317   1.335   7.321   8.092
  807SOL    HW1 4318   1.308   7.262   8.162
  807SOL    HW2 4319   1.253   7.358   8.058
  808SOL     OW 4320   9.017   6.668  10.111
  808SOL    HW1 4321   8.945   6.606  10.104
  808SOL    HW2 4322   9.051   6.676  10.022
  809SOL     OW 4323  11.600  13.243   2.153
  809SOL    HW1 4324  11.659  13.197   2.093
  809SOL    HW2 4325  11.532  13.279   2.096
  810SOL     OW 4326  11.034  13.984   2.240
  810SOL    HW1 4327  11.018  13.957   2.150
  810SOL    HW2 4328  11.128  13.973   2.253
  811SOL     OW 4329   8.334   0.473   3.962
  811SOL    HW1 4330   8.296   0.493   4.047
  811SOL    HW2 4331   8.387   0.395   3.977
  812SOL     OW 4332   7.877   3.165  14.139
  812SOL    HW1 4333   7.970   3.188  14.139
  812SOL    HW2 4334   7.868   3.100  14.208
  813SOL     OW 4335   4.494   3.414  11.092
  813SOL    HW1 4336   4.588   3.430  11.098
  813SOL    HW2 4337   4.467   3.459  11.011
  814SOL     OW 4338   5.035  13.397  14.055
  814SOL    HW1 4339   4.966  13.452  14.091
  814SOL    HW2 4340   4.991  13.341  13.991
  815SOL     OW 4341  11.772   3.120   5.018
  815SOL    HW1 4342  11.761   3.209   5.053
  815SOL    HW2 4343  11.714   3.066   5.073
  816SOL     OW 4344   1.266  10.940   8.740
  816SOL    HW1 4345   1.290  10.896   8.822
  816SOL    HW2 4346   1.300  10.883   8.671
  817SOL     OW 4347  14.640   3.509   7.736
  817SOL    HW1 4348  14.698   3.519   7.661
  817SOL    HW2 4349  14.669   3.577   7.798
  818SOL     OW 4350  10.074  11.020   6.619
  818SOL    HW1 4351  10.135  11.032   6.692
  818SOL    HW2 4352  10.127  10.978   6.550
  819SOL     OW 4353  12.626  10.342   6.060
  819SOL    HW1 4354  12.652  10.292   6.138
  819SOL    HW2 4355  12.624  10.276   5.990
  820SOL     OW 4356   7.668   1.906   7.696
  820SOL    HW1 4357   7.643   1.978   7.754
  820SOL    HW2 4358   7.763   1.909   7.694
  821SOL     OW 4359   6.729   9.533   2.558
  821SOL    HW1 4360   6.724   9.524   2.653
  821SOL    HW2 4361   6.701   9.449   2.524
  822SOL     OW 4362   9.386   4.531  14.205
  822SOL    HW1 4363   9.382   4.608  14.148
  822SOL    HW2 4364   9.473   4.536  14.245
  823SOL     OW 4365   0.384   2.916  14.352
  823SOL    HW1 4366   0.406   3.009  14.350
  823SOL    HW2 4367   0.295   2.911  14.317
  824SOL     OW 4368   0.743   8.346   7.444
  824SOL    HW1 4369   0.790   8.423   7.411
  824SOL    HW2 4370   0.808   8.301   7.499
  825SOL     OW 4371   5.166  12.687   4.465
  825SOL    HW1 4372   5.092  12.724   4.512
  825SOL    HW2 4373   5.128  12.640   4.391
  826SOL     OW 4374  11.840   7.792   9.605
  826SOL    HW1 4375  11.914   7.741   9.638
  826SOL    HW2 4376  11.857   7.881   9.634
  827SOL     OW 4377   7.732   1.103   1.886
  827SOL    HW1 4378   7.695   1.178   1.841
  827SOL    HW2 4379   7.804   1.074   1.830
  828SOL     OW 4380  10.862  11.585  11.532
  828SOL    HW1 4381  10.848  11.625  11.446
  828SOL    HW2 4382  10.932  11.521  11.518
  829SOL     OW 4383   5.062   3.931   1.695
  829SOL    HW1 4384   5.091   3.892   1.612
  829SOL    HW2 4385   4.980   3.886   1.715
  830SOL     OW 4386   6.509   5.533  11.826
  830SOL    HW1 4387   6.516   5.460  11.765
  830SOL    HW2 4388   6.584   5.589  11.806
  831SOL     OW 4389  14.286   0.124  13.945
  831SOL    HW1 4390  14.370   0.132  13.991
  831SOL    HW2 4391  14.237   0.060  13.997
  832SOL     OW 4392   5.051   3.292  12.644
  832SOL    HW1 4393   5.089   3.375  12.674
  832SOL    HW2 4394   5.081   3.284  12.554
  833SOL     OW 4395   6.918   6.765   9.909
  833SOL    HW1 4396   6.837   6.714   9.906
  833SOL    HW2 4397   6.957   6.744   9.994
  834SOL     OW 4398   8.379   2.683   2.020
  834SOL    HW1 4399   8.294   2.720   1.994
  834SOL    HW2 4400   8.395   2.613   1.957
  835SOL     OW 4401  14.104   6.544   4.476
  835SOL    HW1 4402  14.032   6.585   4.524
  835SOL    HW2 4403  14.061   6.475   4.425
  836SOL     OW 4404  12.306   9.949   7.614
  836SOL    HW1 4405  12.400   9.940   7.596
  836SOL    HW2 4406  12.301   9.961   7.709
  837SOL     OW 4407   6.886   0.024   3.630
  837SOL    HW1 4408   6.818   0.027   3.697
  837SOL    HW2 4409   6.840   0.044   3.549
  838SOL     OW 4410  13.125   8.320   9.876
  838SOL    HW1 4411  13.112   8.268   9.955
  838SOL    HW2 4412  13.068   8.280   9.811
  839SOL     OW 4413   6.512   5.978   7.481
  839SOL    HW1 4414   6.452   6.050   7.461
  839SOL    HW2 4415   6.505   5.919   7.407
  840SOL     OW 4416   1.094   1.788   2.511
  840SOL    HW1 4417   1.009   1.831   2.523
  840SOL    HW2 4418   1.146   1.852   2.462
  841SOL     OW 4419   2.370   5.720   8.966
  841SOL    HW1 4420   2.453   5.692   9.005
  841SOL    HW2 4421   2.371   5.683   8.878
  842SOL     OW 4422   9.122  11.591  10.587
  842SOL    HW1 4423   9.081  11.536  10.654
  842SOL    HW2 4424   9.194  11.538  10.553
  843SOL     OW 4425   9.693   4.186   1.111
  843SOL    HW1 4426   9.682   4.092   1.120
  843SOL    HW2 4427   9.640   4.224   1.181
  844SOL     OW 4428  14.559   2.009   7.175
  844SOL    HW1 4429  14.598   1.986   7.260
  844SOL    HW2 4430  14.498   2.080   7.195
  845SOL     OW 4431   5.319   4.002   2.192
  845SOL    HW1 4432   5.262   3.972   2.122
  845SOL    HW2 4433   5.267   3.993   2.272
  846SOL     OW 4434   2.284   1.355   7.338
  846SOL    HW1 4435   2.232   1.405   7.275
  846SOL    HW2 4436   2.372   1.393   7.333
  847SOL     OW 4437   5.677  14.511   7.812
  847SOL    HW1 4438   5.734  14.511   7.735
  847SOL    HW2 4439   5.590  14.490   7.777
  848SOL     OW 4440   4.814   7.404   7.551
  848SOL    HW1 4441   4.731   7.365   7.522
  848SOL    HW2 4442   4.829   7.366   7.637
  849SOL     OW 4443   6.384   7.637   4.972
  849SOL    HW1 4444   6.359   7.729   4.971
  849SOL    HW2 4445   6.303   7.590   4.990
  850SOL     OW 4446   2.089  11.222   9.689
  850SOL    HW1 4447   2.182  11.243   9.685
  850SOL    HW2 4448   2.082  11.158   9.761
  851SOL     OW 4449   6.291   6.531  12.851
  851SOL    HW1 4450   6.247   6.610  12.882
  851SOL    HW2 4451   6.221   6.476  12.816
  852SOL     OW 4452   8.504   1.853   4.742
  852SOL    HW1 4453   8.542   1.778   4.789
  852SOL    HW2 4454   8.450   1.813   4.674
  853SOL     OW 4455  10.080   3.683  14.816
  853SOL    HW1 4456  10.156   3.630  14.841
  853SOL    HW2 4457  10.068   3.665  14.723
  854SOL     OW 4458  14.140  12.611  14.741
  854SOL    HW1 4459  14.172  12.587  14.828
  854SOL    HW2 4460  14.195  12.561  14.680
  855SOL     OW 4461  11.396   7.571   7.338
  855SOL    HW1 4462  11.376   7.633   7.408
  855SOL    HW2 4463  11.319   7.513   7.335
  856SOL     OW 4464   8.952  14.021   6.658
  856SOL    HW1 4465   8.952  14.117   6.669
  856SOL    HW2 4466   8.988  14.007   6.571
  857SOL     OW 4467   4.542   4.985   8.923
  857SOL    HW1 4468   4.499   5.017   9.002
  857SOL    HW2 4469   4.552   5.063   8.868
  858SOL     OW 4470   7.392   3.410   2.517
  858SOL    HW1 4471   7.337   3.401   2.439
  858SOL    HW2 4472   7.436   3.494   2.505
  859SOL     OW 4473  13.116   0.554   5.479
  859SOL    HW1 4474  13.155   0.633   5.518
  859SOL    HW2 4475  13.166   0.482   5.516
  860SOL     OW 4476  11.989  13.955   7.095
  860SOL    HW1 4477  12.049  14.020   7.132
  860SOL    HW2 4478  11.985  13.976   7.001
  861SOL     OW 4479  11.075  11.345   3.719
  861SOL    HW1 4480  10.992  11.305   3.747
  861SOL    HW2 4481  11.093  11.410   3.788
  862SOL     OW 4482   5.661   0.636  11.020
  862SOL    HW1 4483   5.695   0.717  10.982
  862SOL    HW2 4484   5.635   0.660  11.109
  863SOL     OW 4485   6.795   3.330   2.912
  863SOL    HW1 4486   6.875   3.320   2.860
  863SOL    HW2 4487   6.738   3.385   2.858
  864SOL     OW 4488   7.301   5.624   6.858
  864SOL    HW1 4489   7.307   5.688   6.930
  864SOL    HW2 4490   7.379   5.640   6.806
  865SOL     OW 4491  13.663   4.170   4.081
  865SOL    HW1 4492  13.689   4.234   4.148
  865SOL    HW2 4493  13.625   4.224   4.011
  866SOL     OW 4494  12.987  12.430   5.734
  866SOL    HW1 4495  12.991  12.337   5.758
  866SOL    HW2 4496  12.895  12.446   5.715
  867SOL     OW 4497  14.170   2.669   9.242
  867SOL    HW1 4498  14.173   2.764   9.250
  867SOL    HW2 4499  14.196   2.636   9.328
  868SOL     OW 4500   1.560  10.717   2.890
  868SOL    HW1 4501   1.585  10.678   2.806
  868SOL    HW2 4502   1.553  10.642   2.949
  869SOL     OW 4503   1.172   1.782   4.245
  869SOL    HW1 4504   1.092   1.759   4.291
  869SOL    HW2 4505   1.146   1.791   4.153
  870SOL     OW 4506  13.081  14.047   2.358
  870SOL    HW1 4507  13.138  14.123   2.347
  870SOL    HW2 4508  13.117  14.001   2.434
  871SOL     OW 4509   0.677   7.707   3.861
  871SOL    HW1 4510   0.764   7.746   3.854
  871SOL    HW2 4511   0.641   7.711   3.773
  872SOL     OW 4512  13.439  11.423   4.483
  872SOL    HW1 4513  13.515  11.453   4.532
  872SOL    HW2 4514  13.365  11.431   4.544
  873SOL     OW 4515   1.668   1.462   3.528
  873SOL    HW1 4516   1.756   1.496   3.541
  873SOL    HW2 4517   1.663   1.443   3.434
  874SOL     OW 4518  11.292   4.181   1.933
  874SOL    HW1 4519  11.375   4.180   1.981
  874SOL    HW2 4520  11.268   4.274   1.930
  875SOL     OW 4521   8.821  11.758  14.141
  875SOL    HW1 4522   8.817  11.752  14.045
  875SOL    HW2 4523   8.809  11.851  14.160
  876SOL     OW 4524  10.577  14.690  10.343
  876SOL    HW1 4525  10.658  14.737  10.325
  876SOL    HW2 4526  10.587  14.607  10.296
  877SOL     OW 4527   9.117   3.690   6.091
  877SOL    HW1 4528   9.176   3.667   6.020
  877SOL    HW2 4529   9.034   3.710   6.048
  878SOL     OW 4530  14.492   5.840   0.665
  878SOL    HW1 4531  14.474   5.775   0.597
  878SOL    HW2 4532  14.425   5.824   0.732
  879SOL     OW 4533   0.596   9.653  14.346
  879SOL    HW1 4534   0.504   9.667  14.369
  879SOL    HW2 4535   0.593   9.590  14.274
  880SOL     OW 4536  14.168  14.157   5.744
  880SOL    HW1 4537  14.137  14.195   5.662
  880SOL    HW2 4538  14.104  14.184   5.809
  881SOL     OW 4539  10.234   3.092   4.929
  881SOL    HW1 4540  10.189   3.171   4.899
  881SOL    HW2 4541  10.298   3.123   4.993
  882SOL     OW 4542   7.400   5.774   0.775
  882SOL    HW1 4543   7.399   5.723   0.856
  882SOL    HW2 4544   7.478   5.745   0.728
  883SOL     OW 4545   5.715  11.207   6.881
  883SOL    HW1 4546   5.756  11.122   6.864
  883SOL    HW2 4547   5.666  11.193   6.962
  884SOL     OW 4548  12.532  11.478  12.931
  884SOL    HW1 4549  12.565  11.398  12.970
  884SOL    HW2 4550  12.502  11.452  12.844
  885SOL     OW 4551   1.891  10.685   0.987
  885SOL    HW1 4552   1.861  10.625   1.055
  885SOL    HW2 4553   1.918  10.763   1.034
  886SOL     OW 4554   5.354  14.450   6.366
  886SOL    HW1 4555   5.436  14.401   6.366
  886SOL    HW2 4556   5.336  14.467   6.273
  887SOL     OW 4557  12.558   8.492  11.042
  887SOL    HW1 4558  12.520   8.534  10.966
  887SOL    HW2 4559  12.646   8.529  11.049
  888SOL     OW 4560  14.297   1.684   1.448
  888SOL    HW1 4561  14.301   1.635   1.366
  888SOL    HW2 4562  14.280   1.774   1.421
  889SOL     OW 4563   8.593   6.216  10.180
  889SOL    HW1 4564   8.552   6.203  10.094
  889SOL    HW2 4565   8.524   6.255  10.234
  890SOL     OW 4566   7.428  14.523   4.648
  890SOL    HW1 4567   7.482  14.573   4.710
  890SOL    HW2 4568   7.385  14.457   4.702
  891SOL     OW 4569   1.722   2.143   1.024
  891SOL    HW1 4570   1.641   2.092   1.022
  891SOL    HW2 4571   1.783   2.092   0.970
  892SOL     OW 4572   2.765  12.412   3.954
  892SOL    HW1 4573   2.681  12.443   3.988
  892SOL    HW2 4574   2.799  12.486   3.904
  893SOL     OW 4575   6.071   9.787  13.451
  893SOL    HW1 4576   6.029   9.833  13.523
  893SOL    HW2 4577   6.162   9.777  13.478
  894SOL     OW 4578   4.181  12.411  14.748
  894SOL    HW1 4579   4.227  12.381  14.669
  894SOL    HW2 4580   4.143  12.331  14.784
  895SOL     OW 4581   1.986   4.989   7.681
  895SOL    HW1 4582   2.073   4.986   7.642
  895SOL    HW2 4583   1.926   4.992   7.606
  896SOL     OW 4584   9.755   5.381   4.615
  896SOL    HW1 4585   9.767   5.286   4.613
  896SOL    HW2 4586   9.761   5.404   4.708
  897SOL     OW 4587   4.798  14.657  12.598
  897SOL    HW1 4588   4.742  14.731  12.625
  897SOL    HW2 4589   4.778  14.646  12.505
  898SOL     OW 4590   9.462  10.421   5.005
  898SOL    HW1 4591   9.466  10.358   5.076
  898SOL    HW2 4592   9.371  10.452   5.006
  899SOL     OW 4593  10.379   9.927   8.848
  899SOL    HW1 4594  10.322   9.979   8.790
  899SOL    HW2 4595  10.460   9.916   8.798
  900SOL     OW 4596  12.404  12.860  13.859
  900SOL    HW1 4597  12.461  12.809  13.801
  900SOL    HW2 4598  12.451  12.942  13.874
  901SOL     OW 4599   2.758  13.043   7.978
  901SOL    HW1 4600   2.688  13.092   8.022
  901SOL    HW2 4601   2.778  12.971   8.038
  902SOL     OW 4602  11.759   3.816  11.132
  902SOL    HW1 4603  11.737   3.899  11.174
  902SOL    HW2 4604  11.832   3.782  11.184
  903SOL     OW 4605   1.397  10.398  13.173
  903SOL    HW1 4606   1.389  10.325  13.112
  903SOL    HW2 4607   1.394  10.476  13.117
  904SOL     OW 4608   1.667   7.730   8.282
  904SOL    HW1 4609   1.666   7.792   8.210
  904SOL    HW2 4610   1.666   7.644   8.240
  905SOL     OW 4611   7.335  10.342   1.635
  905SOL    HW1 4612   7.426  10.325   1.659
  905SOL    HW2 4613   7.284  10.293   1.699
  906SOL     OW 4614   4.788   7.605   9.249
  906SOL    HW1 4615   4.854   7.536   9.248
  906SOL    HW2 4616   4.779   7.631   9.158
  907SOL     OW 4617   0.598   5.299   9.793
  907SOL    HW1 4618   0.551   5.237   9.849
  907SOL    HW2 4619   0.538   5.316   9.721
  908SOL     OW 4620   9.321   0.611   5.245
  908SOL    HW1 4621   9.258   0.655   5.302
  908SOL    HW2 4622   9.370   0.683   5.204
  909SOL     OW 4623   7.721   8.873   0.387
  909SOL    HW1 4624   7.696   8.822   0.310
  909SOL    HW2 4625   7.817   8.873   0.386
  910SOL     OW 4626   9.014  10.249  11.377
  910SOL    HW1 4627   8.969  10.198  11.311
  910SOL    HW2 4628   8.993  10.206  11.460
  911SOL     OW 4629   5.151  13.982   0.022
  911SOL    HW1 4630   5.212  13.953   0.090
  911SOL    HW2 4631   5.082  13.916   0.021
  912SOL     OW 4632   9.254   6.183  10.645
  912SOL    HW1 4633   9.300   6.240  10.706
  912SOL    HW2 4634   9.162   6.208  10.654
  913SOL     OW 4635   5.741   9.320   4.940
  913SOL    HW1 4636   5.671   9.299   4.878
  913SOL    HW2 4637   5.809   9.254   4.923
  914SOL     OW 4638  10.202   7.037   8.626
  914SOL    HW1 4639  10.268   7.049   8.558
  914SOL    HW2 4640  10.252   7.035   8.708
  915SOL     OW 4641   2.060   6.126   4.607
  915SOL    HW1 4642   2.100   6.171   4.682
  915SOL    HW2 4643   2.129   6.123   4.541
  916SOL     OW 4644  10.937  14.047   1.080
  916SOL    HW1 4645  10.997  14.073   1.010
  916SOL    HW2 4646  10.968  14.095   1.157
  917SOL     OW 4647   7.493   6.948  13.779
  917SOL    HW1 4648   7.412   6.923  13.734
  917SOL    HW2 4649   7.550   6.872  13.771
  918SOL     OW 4650   9.062   1.499   4.593
  918SOL    HW1 4651   9.156   1.513   4.602
  918SOL    HW2 4652   9.048   1.408   4.619
  919SOL     OW 4653   2.047   8.309   1.203
  919SOL    HW1 4654   2.087   8.354   1.128
  919SOL    HW2 4655   1.975   8.260   1.164
  920SOL     OW 4656   6.528   9.058   8.220
  920SOL    HW1 4657   6.496   9.001   8.150
  920SOL    HW2 4658   6.593   9.114   8.177
  921SOL     OW 4659   6.126   0.877   7.238
  921SOL    HW1 4660   6.129   0.945   7.171
  921SOL    HW2 4661   6.137   0.795   7.190
  922SOL     OW 4662   1.450   8.739   5.507
  922SOL    HW1 4663   1.464   8.736   5.601
  922SOL    HW2 4664   1.362   8.704   5.494
  923SOL     OW 4665   2.943   7.896   6.440
  923SOL    HW1 4666   3.033   7.862   6.431
  923SOL    HW2 4667   2.953   7.980   6.485
  924SOL     OW 4668   6.052   0.280  10.726
  924SOL    HW1 4669   6.067   0.353  10.666
  924SOL    HW2 4670   6.000   0.318  10.797
  925SOL     OW 4671  11.375   4.959   5.191
  925SOL    HW1 4672  11.324   5.021   5.242
  925SOL    HW2 4673  11.407   5.010   5.116
  926SOL     OW 4674   5.647   1.132  14.041
  926SOL    HW1 4675   5.658   1.055  13.986
  926SOL    HW2 4676   5.717   1.126  14.105
  927SOL     OW 4677  10.397   6.662  12.631
  927SOL    HW1 4678  10.395   6.597  12.561
  927SOL    HW2 4679  10.367   6.743  12.590
  928SOL     OW 4680  10.990  13.131  14.108
  928SOL    HW1 4681  10.993  13.073  14.032
  928SOL    HW2 4682  10.968  13.074  14.181
  929SOL     OW 4683   2.940   3.552   4.142
  929SOL    HW1 4684   2.985   3.593   4.215
  929SOL    HW2 4685   2.875   3.494   4.183
  930SOL     OW 4686   1.732   5.408   9.797
  930SOL    HW1 4687   1.792   5.454   9.738
  930SOL    HW2 4688   1.714   5.472   9.866
  931SOL     OW 4689   8.364   5.377   1.026
  931SOL    HW1 4690   8.302   5.445   1.050
  931SOL    HW2 4691   8.400   5.347   1.110
  932SOL     OW 4692   4.969   5.031   9.310
  932SOL    HW1 4693   4.945   4.939   9.313
  932SOL    HW2 4694   4.892   5.077   9.344
  933SOL     OW 4695  10.695  11.290   0.096
  933SOL    HW1 4696  10.761  11.280   0.027
  933SOL    HW2 4697  10.678  11.201   0.126
  934SOL     OW 4698   2.297   1.942  12.384
  934SOL    HW1 4699   2.289   1.926  12.290
  934SOL    HW2 4700   2.348   2.023  12.390
  935SOL     OW 4701   4.909  13.111  10.326
  935SOL    HW1 4702   4.941  13.021  10.333
  935SOL    HW2 4703   4.856  13.124  10.405
  936SOL     OW 4704   2.891  14.681   6.701
  936SOL    HW1 4705   2.916  14.597   6.740
  936SOL    HW2 4706   2.829  14.657   6.633
  937SOL     OW 4707   8.154   6.596   6.549
  937SOL    HW1 4708   8.241   6.597   6.590
  937SOL    HW2 4709   8.124   6.506   6.558
  938SOL     OW 4710  11.931   2.432   1.135
  938SOL    HW1 4711  11.891   2.447   1.221
  938SOL    HW2 4712  11.864   2.458   1.072
  939SOL     OW 4713   8.282   0.068   3.145
  939SOL    HW1 4714   8.235   0.106   3.219
  939SOL    HW2 4715   8.363   0.033   3.183
  940SOL     OW 4716   4.630  10.083   9.542
  940SOL    HW1 4717   4.583  10.004   9.514
  940SOL    HW2 4718   4.702  10.050   9.597
  941SOL     OW 4719   7.859   3.228  10.270
  941SOL    HW1 4720   7.868   3.320  10.246
  941SOL    HW2 4721   7.949   3.198  10.287
  942SOL     OW 4722   9.401   4.917   8.491
  942SOL    HW1 4723   9.321   4.966   8.511
  942SOL    HW2 4724   9.472   4.979   8.505
  943SOL     OW 4725  13.206   1.344   8.548
  943SOL    HW1 4726  13.259   1.280   8.500
  943SOL    HW2 4727  13.138   1.291   8.590
  944SOL     OW 4728   0.900  10.619   5.535
  944SOL    HW1 4729   0.870  10.538   5.495
  944SOL    HW2 4730   0.859  10.688   5.482
  945SOL     OW 4731   8.055   4.100  11.577
  945SOL    HW1 4732   8.045   4.111  11.483
  945SOL    HW2 4733   8.074   4.188  11.610
  946SOL     OW 4734   8.769  11.394   0.728
  946SOL    HW1 4735   8.699  11.453   0.703
  946SOL    HW2 4736   8.849  11.447   0.721
  947SOL     OW 4737  12.370   3.878   5.178
  947SOL    HW1 4738  12.411   3.929   5.248
  947SOL    HW2 4739  12.322   3.809   5.224
  948SOL     OW 4740   1.732   0.467   4.473
  948SOL    HW1 4741   1.719   0.422   4.557
  948SOL    HW2 4742   1.730   0.398   4.408
  949SOL     OW 4743   5.360  13.606  12.721
  949SOL    HW1 4744   5.371  13.513  12.700
  949SOL    HW2 4745   5.338  13.607  12.814
  950SOL     OW 4746  13.944   3.101  12.632
  950SOL    HW1 4747  14.039   3.098  12.640
  950SOL    HW2 4748  13.912   3.075  12.719
  951SOL     OW 4749  11.475  12.216  11.603
  951SOL    HW1 4750  11.404  12.180  11.656
  951SOL    HW2 4751  11.431  12.277  11.544
  952SOL     OW 4752   2.216   8.005   5.279
  952SOL    HW1 4753   2.297   8.026   5.232
  952SOL    HW2 4754   2.185   7.924   5.238
  953SOL     OW 4755   1.728   7.654   6.964
  953SOL    HW1 4756   1.717   7.726   6.902
  953SOL    HW2 4757   1.814   7.668   7.003
  954SOL     OW 4758  10.195  11.600  11.751
  954SOL    HW1 4759  10.259  11.651  11.700
  954SOL    HW2 4760  10.240  11.580  11.833
  955SOL     OW 4761  13.929   3.568   9.695
  955SOL    HW1 4762  13.930   3.547   9.602
  955SOL    HW2 4763  13.884   3.494   9.735
  956SOL     OW 4764  11.042   9.920   1.724
  956SOL    HW1 4765  11.099   9.997   1.724
  956SOL    HW2 4766  11.073   9.867   1.650
  957SOL     OW 4767   5.601   9.039   5.716
  957SOL    HW1 4768   5.586   9.064   5.624
  957SOL    HW2 4769   5.632   9.120   5.757
  958SOL     OW 4770   4.487   4.270   7.255
  958SOL    HW1 4771   4.420   4.236   7.315
  958SOL    HW2 4772   4.558   4.300   7.313
  959SOL     OW 4773   3.207   8.550   1.097
  959SOL    HW1 4774   3.259   8.617   1.053
  959SOL    HW2 4775   3.136   8.530   1.036
  960SOL     OW 4776   0.408   9.950   0.500
  960SOL    HW1 4777   0.325   9.903   0.508
  960SOL    HW2 4778   0.434   9.937   0.409
  961SOL     OW 4779  13.693   8.855  11.547
  961SOL    HW1 4780  13.785   8.854  11.522
  961SOL    HW2 4781  13.649   8.899  11.474
  962SOL     OW 4782  12.421   4.476   8.319
  962SOL    HW1 4783  12.424   4.531   8.397
  962SOL    HW2 4784  12.350   4.414   8.337
  963SOL     OW 4785   0.204   6.224   1.817
  963SOL    HW1 4786   0.200   6.230   1.722
  963SOL    HW2 4787   0.211   6.130   1.835
  964SOL     OW 4788   9.099   2.483   3.944
  964SOL    HW1 4789   9.097   2.531   3.861
  964SOL    HW2 4790   9.100   2.551   4.012
  965SOL     OW 4791  11.211   1.585   9.270
  965SOL    HW1 4792  11.299   1.548   9.277
  965SOL    HW2 4793  11.153   1.518   9.305
  966SOL     OW 4794   8.423   9.985  14.670
  966SOL    HW1 4795   8.336   9.998  14.634
  966SOL    HW2 4796   8.414   9.910  14.728
  967SOL     OW 4797   4.507   9.842   9.473
  967SOL    HW1 4798   4.471   9.806   9.554
  967SOL    HW2 4799   4.471   9.786   9.404
  968SOL     OW 4800  13.216   0.803  14.003
  968SOL    HW1 4801  13.129   0.792  13.964
  968SOL    HW2 4802  13.275   0.809  13.928
  969SOL     OW 4803   7.027   8.299   2.365
  969SOL    HW1 4804   6.978   8.243   2.426
  969SOL    HW2 4805   7.004   8.388   2.390
  970SOL     OW 4806   7.624   2.105   3.123
  970SOL    HW1 4807   7.684   2.180   3.125
  970SOL    HW2 4808   7.633   2.070   3.034
  971SOL     OW 4809   6.147   6.452   0.414
  971SOL    HW1 4810   6.092   6.469   0.490
  971SOL    HW2 4811   6.219   6.514   0.422
  972SOL     OW 4812   6.978  13.536   8.912
  972SOL    HW1 4813   6.939  13.488   8.840
  972SOL    HW2 4814   6.934  13.504   8.990
  973SOL     OW 4815   7.273  10.755   9.055
  973SOL    HW1 4816   7.283  10.660   9.060
  973SOL    HW2 4817   7.179  10.768   9.044
  974SOL     OW 4818   2.573   7.355  13.469
  974SOL    HW1 4819   2.600   7.419  13.535
  974SOL    HW2 4820   2.588   7.399  13.385
  975SOL     OW 4821  14.816   5.382   6.791
  975SOL    HW1 4822  14.838   5.360   6.881
  975SOL    HW2 4823  14.725   5.355   6.781
  976SOL     OW 4824   3.196  11.952  13.002
  976SOL    HW1 4825   3.151  11.982  13.081
  976SOL    HW2 4826   3.126  11.932  12.940
  977SOL     OW 4827  11.661  12.461   8.726
  977SOL    HW1 4828  11.589  12.513   8.690
  977SOL    HW2 4829  11.739  12.515   8.713
  978SOL     OW 4830  10.317  11.756   7.926
  978SOL    HW1 4831  10.280  11.670   7.909
  978SOL    HW2 4832  10.354  11.784   7.842
  979SOL     OW 4833   3.418  14.052   0.542
  979SOL    HW1 4834   3.502  14.082   0.576
  979SOL    HW2 4835   3.355  14.116   0.575
  980SOL     OW 4836   3.930   8.798   7.648
  980SOL    HW1 4837   3.912   8.827   7.559
  980SOL    HW2 4838   3.971   8.712   7.637
  981SOL     OW 4839   7.822  12.471   1.996
  981SOL    HW1 4840   7.904  12.477   1.948
  981SOL    HW2 4841   7.841  12.514   2.080
  982SOL     OW 4842   9.051   4.335   9.410
  982SOL    HW1 4843   9.111   4.408   9.393
  982SOL    HW2 4844   9.028   4.345   9.502
  983SOL     OW 4845   8.218  11.539   1.118
  983SOL    HW1 4846   8.188  11.492   1.040
  983SOL    HW2 4847   8.288  11.484   1.153
  984SOL     OW 4848   0.441  12.672   4.711
  984SOL    HW1 4849   0.497  12.720   4.773
  984SOL    HW2 4850   0.359  12.659   4.758
  985SOL     OW 4851   2.586   6.350  13.415
  985SOL    HW1 4852   2.591   6.349  13.319
  985SOL    HW2 4853   2.677   6.359  13.444
  986SOL     OW 4854  11.630  12.140   4.042
  986SOL    HW1 4855  11.543  12.177   4.052
  986SOL    HW2 4856  11.617  12.063   3.986
  987SOL     OW 4857   9.277   8.476   0.404
  987SOL    HW1 4858   9.299   8.427   0.483
  987SOL    HW2 4859   9.276   8.411   0.334
  988SOL     OW 4860  14.838   3.621   5.756
  988SOL    HW1 4861   0.024   3.651   5.815
  988SOL    HW2 4862  14.881   3.612   5.671
  989SOL     OW 4863   1.487   6.744   0.824
  989SOL    HW1 4864   1.458   6.831   0.795
  989SOL    HW2 4865   1.408   6.690   0.818
  990SOL     OW 4866  14.142  11.104   0.590
  990SOL    HW1 4867  14.058  11.086   0.547
  990SOL    HW2 4868  14.120  11.106   0.683
  991SOL     OW 4869   6.741   6.404   6.793
  991SOL    HW1 4870   6.730   6.499   6.794
  991SOL    HW2 4871   6.727   6.379   6.702
  992SOL     OW 4872   1.010   0.573   1.567
  992SOL    HW1 4873   1.034   0.481   1.575
  992SOL    HW2 4874   1.088   0.621   1.595
  993SOL     OW 4875  10.308   9.991   2.736
  993SOL    HW1 4876  10.352  10.058   2.684
  993SOL    HW2 4877  10.379   9.936   2.770
  994SOL     OW 4878   7.830   8.225   5.985
  994SOL    HW1 4879   7.844   8.133   6.007
  994SOL    HW2 4880   7.818   8.269   6.069
  995SOL     OW 4881   2.310   0.319   0.155
  995SOL    HW1 4882   2.397   0.282   0.141
  995SOL    HW2 4883   2.322   0.414   0.143
  996SOL     OW 4884   0.208  11.114   5.331
  996SOL    HW1 4885   0.229  11.155   5.415
  996SOL    HW2 4886   0.212  11.185   5.267
  997SOL     OW 4887   8.606  12.874  12.917
  997SOL    HW1 4888   8.627  12.794  12.869
  997SOL    HW2 4889   8.562  12.844  12.996
  998SOL     OW 4890   3.243   6.333   4.872
  998SOL    HW1 4891   3.234   6.253   4.923
  998SOL    HW2 4892   3.320   6.377   4.910
  999SOL     OW 4893  11.927   6.158   3.260
  999SOL    HW1 4894  11.897   6.241   3.296
  999SOL    HW2 4895  11.957   6.179   3.172
 1000SOL     OW 4896   5.152   8.340  10.237
 1000SOL    HW1 4897   5.176   8.290  10.315
 1000SOL    HW2 4898   5.216   8.410  10.232
 1001SOL     OW 4899   3.328  12.795   7.851
 1001SOL    HW1 4900   3.400  12.834   7.801
 1001SOL    HW2 4901   3.364  12.781   7.938
 1002SOL     OW 4902  12.302  12.847  11.277
 1002SOL    HW1 4903  12.240  12.882  11.212
 1002SOL    HW2 4904  12.280  12.754  11.283
 1003SOL     OW 4905  11.229  13.339   2.815
 1003SOL    HW1 4906  11.202  13.417   2.766
 1003SOL    HW2 4907  11.229  13.269   2.749
 1004SOL     OW 4908   1.286   6.656   7.078
 1004SOL    HW1 4909   1.231   6.693   7.147
 1004SOL    HW2 4910   1.226   6.633   7.008
 1005SOL     OW 4911   1.294  13.291   1.902
 1005SOL    HW1 4912   1.371  13.297   1.845
 1005SOL    HW2 4913   1.297  13.202   1.937
 1006SOL     OW 4914  11.318   2.603   2.018
 1006SOL    HW1 4915  11.363   2.520   2.008
 1006SOL    HW2 4916  11.374   2.653   2.078
 1007SOL     OW 4917   5.794   4.068   4.873
 1007SOL    HW1 4918   5.706   4.034   4.858
 1007SOL    HW2 4919   5.821   4.028   4.955
 1008SOL     OW 4920   2.104   4.535   9.129
 1008SOL    HW1 4921   2.152   4.592   9.190
 1008SOL    HW2 4922   2.144   4.449   9.140
 1009SOL     OW 4923  14.466  10.583   7.800
 1009SOL    HW1 4924  14.376  10.609   7.784
 1009SOL    HW2 4925  14.487  10.524   7.727
 1010SOL     OW 4926   9.622   7.330   8.959
 1010SOL    HW1 4927   9.628   7.306   9.052
 1010SOL    HW2 4928   9.531   7.358   8.948
 1011SOL     OW 4929  13.975   2.491  14.298
 1011SOL    HW1 4930  13.945   2.581  14.310
 1011SOL    HW2 4931  14.013   2.491  14.210
 1012SOL     OW 4932  13.618   2.650   8.862
 1012SOL    HW1 4933  13.625   2.589   8.789
 1012SOL    HW2 4934  13.544   2.618   8.913
 1013SOL     OW 4935   4.358   6.095   1.997
 1013SOL    HW1 4936   4.344   6.001   1.988
 1013SOL    HW2 4937   4.284   6.135   1.952
 1014SOL     OW 4938  10.142   0.317   6.300
 1014SOL    HW1 4939  10.219   0.264   6.322
 1014SOL    HW2 4940  10.177   0.391   6.250
 1015SOL     OW 4941   7.803   4.823  12.137
 1015SOL    HW1 4942   7.839   4.807  12.225
 1015SOL    HW2 4943   7.779   4.735  12.106
 1016SOL     OW 4944   2.542   8.957  12.308
 1016SOL    HW1 4945   2.588   8.889  12.260
 1016SOL    HW2 4946   2.591   8.966  12.390
 1017SOL     OW 4947  13.848   0.093   0.021
 1017SOL    HW1 4948  13.808   0.006   0.014
 1017SOL    HW2 4949  13.787   0.143   0.074
 1018SOL     OW 4950   4.960   0.171   0.601
 1018SOL    HW1 4951   5.016   0.232   0.650
 1018SOL    HW2 4952   4.884   0.223   0.575
 1019SOL     OW 4953   3.994  14.713   4.092
 1019SOL    HW1 4954   3.961  14.644   4.150
 1019SOL    HW2 4955   3.969  14.685   4.004
 1020SOL     OW 4956   0.756   1.820   2.727
 1020SOL    HW1 4957   0.832   1.852   2.679
 1020SOL    HW2 4958   0.788   1.802   2.815
 1021SOL     OW 4959   9.547   8.435   0.027
 1021SOL    HW1 4960   9.503   8.505  14.860
 1021SOL    HW2 4961   9.476   8.390   0.073
 1022SOL     OW 4962  11.117   9.140  10.180
 1022SOL    HW1 4963  11.113   9.178  10.092
 1022SOL    HW2 4964  11.208   9.152  10.207
 1023SOL     OW 4965   4.940   7.740   9.475
 1023SOL    HW1 4966   5.021   7.783   9.447
 1023SOL    HW2 4967   4.896   7.716   9.393
 1024SOL     OW 4968   0.798  11.590  12.685
 1024SOL    HW1 4969   0.836  11.673  12.715
 1024SOL    HW2 4970   0.705  11.597  12.707
 1025SOL     OW 4971  10.947   4.794   3.828
 1025SOL    HW1 4972  10.915   4.739   3.899
 1025SOL    HW2 4973  10.975   4.732   3.760
 1026SOL     OW 4974   1.796  11.823   9.857
 1026SOL    HW1 4975   1.782  11.795   9.766
 1026SOL    HW2 4976   1.879  11.870   9.855
 1027SOL     OW 4977  12.303   4.070  13.807
 1027SOL    HW1 4978  12.272   4.145  13.757
 1027SOL    HW2 4979  12.332   4.107  13.890
 1028SOL     OW 4980   0.902   5.612   1.482
 1028SOL    HW1 4981   0.894   5.520   1.458
 1028SOL    HW2 4982   0.946   5.611   1.567
 1029SOL     OW 4983   3.723  12.040   9.080
 1029SOL    HW1 4984   3.731  12.098   9.004
 1029SOL    HW2 4985   3.784  11.968   9.061
 1030SOL     OW 4986  13.632   0.452   6.908
 1030SOL    HW1 4987  13.543   0.419   6.923
 1030SOL    HW2 4988  13.629   0.489   6.820
 1031SOL     OW 4989   3.078  13.276   6.822
 1031SOL    HW1 4990   3.154  13.283   6.880
 1031SOL    HW2 4991   3.081  13.186   6.791
 1032SOL     OW 4992  12.445   7.581  13.501
 1032SOL    HW1 4993  12.396   7.653  13.539
 1032SOL    HW2 4994  12.380   7.511  13.487
 1033SOL     OW 4995   3.541  12.303   9.564
 1033SOL    HW1 4996   3.483  12.315   9.639
 1033SOL    HW2 4997   3.608  12.370   9.574
 1034SOL     OW 4998   5.741   2.986   3.854
 1034SOL    HW1 4999   5.739   2.898   3.891
 1034SOL    HW2 5000   5.682   3.037   3.910
 1035SOL     OW 5001  11.281  11.493  11.162
 1035SOL    HW1 5002  11.321  11.496  11.075
 1035SOL    HW2 5003  11.324  11.564  11.210
 1036SOL     OW 5004  11.703   2.911   0.066
 1036SOL    HW1 5005  11.617   2.900   0.023
 1036SOL    HW2 5006  11.711   2.834   0.122
 1037SOL     OW 5007  11.567   2.896  10.512
 1037SOL    HW1 5008  11.597   2.964  10.452
 1037SOL    HW2 5009  11.483   2.928  10.546
 1038SOL     OW 5010   0.436  12.253   8.551
 1038SOL    HW1 5011   0.478  12.176   8.513
 1038SOL    HW2 5012   0.472  12.260   8.639
 1039SOL     OW 5013  14.103   3.392  14.768
 1039SOL    HW1 5014  14.100   3.425  14.678
 1039SOL    HW2 5015  14.080   3.299  14.759
 1040SOL     OW 5016   6.797   5.195   2.438
 1040SOL    HW1 5017   6.805   5.282   2.401
 1040SOL    HW2 5018   6.878   5.150   2.413
 1041SOL     OW 5019   8.314   0.027  12.297
 1041SOL    HW1 5020   8.359   0.079  12.231
 1041SOL    HW2 5021   8.271  14.839  12.247
 1042SOL     OW 5022  11.933   4.857   3.071
 1042SOL    HW1 5023  12.014   4.885   3.113
 1042SOL    HW2 5024  11.939   4.761   3.069
 1043SOL     OW 5025   9.454   6.746   6.446
 1043SOL    HW1 5026   9.479   6.657   6.472
 1043SOL    HW2 5027   9.424   6.737   6.356
 1044SOL     OW 5028   3.721  14.802   6.911
 1044SOL    HW1 5029   3.714  14.725   6.967
 1044SOL    HW2 5030   3.799  14.786   6.858
 1045SOL     OW 5031   9.460  11.550  11.549
 1045SOL    HW1 5032   9.454  11.606  11.472
 1045SOL    HW2 5033   9.418  11.600  11.619
 1046SOL     OW 5034   5.802   5.002  13.146
 1046SOL    HW1 5035   5.838   4.913  13.142
 1046SOL    HW2 5036   5.724   4.999  13.092
 1047SOL     OW 5037   5.745   7.398  13.584
 1047SOL    HW1 5038   5.792   7.435  13.509
 1047SOL    HW2 5039   5.675   7.346  13.545
 1048SOL     OW 5040   0.820   9.395  11.744
 1048SOL    HW1 5041   0.827   9.477  11.695
 1048SOL    HW2 5042   0.822   9.422  11.836
 1049SOL     OW 5043   2.028   2.696  11.445
 1049SOL    HW1 5044   2.037   2.601  11.447
 1049SOL    HW2 5045   1.934   2.712  11.438
 1050SOL     OW 5046   6.924  14.591   7.381
 1050SOL    HW1 5047   6.912  14.576   7.475
 1050SOL    HW2 5048   6.878  14.673   7.363
 1051SOL     OW 5049   7.265  10.455   9.366
 1051SOL    HW1 5050   7.275  10.406   9.448
 1051SOL    HW2 5051   7.306  10.539   9.383
 1052SOL     OW 5052  13.487  11.124   1.173
 1052SOL    HW1 5053  13.414  11.186   1.183
 1052SOL    HW2 5054  13.529  11.122   1.259
 1053SOL     OW 5055  10.643   2.438   8.040
 1053SOL    HW1 5056  10.657   2.400   8.127
 1053SOL    HW2 5057  10.619   2.363   7.985
 1054SOL     OW 5058   2.909   9.865  10.860
 1054SOL    HW1 5059   2.942   9.935  10.917
 1054SOL    HW2 5060   2.825   9.841  10.898
 1055SOL     OW 5061   7.081   2.625   8.218
 1055SOL    HW1 5062   7.008   2.563   8.220
 1055SOL    HW2 5063   7.095   2.647   8.310
 1056SOL     OW 5064   3.620  14.048   6.157
 1056SOL    HW1 5065   3.696  14.004   6.195
 1056SOL    HW2 5066   3.561  13.977   6.133
 1057SOL     OW 5067   7.597  14.410   3.678
 1057SOL    HW1 5068   7.633  14.491   3.715
 1057SOL    HW2 5069   7.626  14.342   3.738
 1058SOL     OW 5070   8.164  12.290  10.184
 1058SOL    HW1 5071   8.216  12.261  10.259
 1058SOL    HW2 5072   8.216  12.362  10.146
 1059SOL     OW 5073   5.769   2.911   5.051
 1059SOL    HW1 5074   5.736   2.856   4.980
 1059SOL    HW2 5075   5.762   2.857   5.129
 1060SOL     OW 5076   1.700   4.146   7.088
 1060SOL    HW1 5077   1.780   4.197   7.103
 1060SOL    HW2 5078   1.641   4.173   7.158
 1061SOL     OW 5079   2.301   5.471  12.495
 1061SOL    HW1 5080   2.310   5.409  12.422
 1061SOL    HW2 5081   2.314   5.557  12.455
 1062SOL     OW 5082   6.814   8.890   6.779
 1062SOL    HW1 5083   6.758   8.828   6.825
 1062SOL    HW2 5084   6.903   8.865   6.803
 1063SOL     OW 5085   2.909   2.322   5.594
 1063SOL    HW1 5086   2.967   2.253   5.563
 1063SOL    HW2 5087   2.889   2.374   5.516
 1064SOL     OW 5088  14.614  12.379   6.875
 1064SOL    HW1 5089  14.675  12.346   6.940
 1064SOL    HW2 5090  14.669  12.420   6.809
 1065SOL     OW 5091   5.167   4.814  14.405
 1065SOL    HW1 5092   5.181   4.736  14.459
 1065SOL    HW2 5093   5.078   4.842  14.427
 1066SOL     OW 5094   1.794   0.926  11.913
 1066SOL    HW1 5095   1.730   0.938  11.843
 1066SOL    HW2 5096   1.751   0.868  11.976
 1067SOL     OW 5097  10.499   4.056   8.196
 1067SOL    HW1 5098  10.417   4.010   8.212
 1067SOL    HW2 5099  10.491   4.089   8.106
 1068SOL     OW 5100   7.311   9.094  10.069
 1068SOL    HW1 5101   7.272   9.068   9.985
 1068SOL    HW2 5102   7.256   9.053  10.135
 1069SOL     OW 5103  12.191   3.915   9.214
 1069SOL    HW1 5104  12.223   3.935   9.126
 1069SOL    HW2 5105  12.206   3.822   9.225
 1070SOL     OW 5106   0.034   2.473   2.736
 1070SOL    HW1 5107   0.058   2.566   2.734
 1070SOL    HW2 5108  14.840   2.467   2.678
 1071SOL     OW 5109   1.776  13.182   9.741
 1071SOL    HW1 5110   1.785  13.137   9.656
 1071SOL    HW2 5111   1.827  13.129   9.801
 1072SOL     OW 5112   9.875   0.032   2.850
 1072SOL    HW1 5113   9.823  14.834   2.845
 1072SOL    HW2 5114   9.876   0.055   2.943
 1073SOL     OW 5115  14.025  11.344   3.226
 1073SOL    HW1 5116  14.098  11.302   3.179
 1073SOL    HW2 5117  14.060  11.427   3.256
 1074SOL     OW 5118   6.588   3.018   1.376
 1074SOL    HW1 5119   6.681   3.007   1.397
 1074SOL    HW2 5120   6.582   3.108   1.344
 1075SOL     OW 5121   2.474   5.410   9.815
 1075SOL    HW1 5122   2.555   5.458   9.800
 1075SOL    HW2 5123   2.405   5.476   9.810
 1076SOL     OW 5124   4.762   4.354  12.564
 1076SOL    HW1 5125   4.798   4.422  12.620
 1076SOL    HW2 5126   4.712   4.297  12.623
 1077SOL     OW 5127   6.277   1.653   4.786
 1077SOL    HW1 5128   6.251   1.741   4.813
 1077SOL    HW2 5129   6.295   1.607   4.868
 1078SOL     OW 5130   0.788   9.886  10.604
 1078SOL    HW1 5131   0.696   9.882  10.628
 1078SOL    HW2 5132   0.800   9.816  10.540
 1079SOL     OW 5133   5.425   2.227  13.121
 1079SOL    HW1 5134   5.358   2.201  13.058
 1079SOL    HW2 5135   5.376   2.243  13.202
 1080SOL     OW 5136   2.546   1.621   3.861
 1080SOL    HW1 5137   2.581   1.551   3.917
 1080SOL    HW2 5138   2.582   1.602   3.774
 1081SOL     OW 5139   7.315  13.972  14.372
 1081SOL    HW1 5140   7.291  14.016  14.291
 1081SOL    HW2 5141   7.235  13.971  14.424
 1082SOL     OW 5142  10.923   5.421   0.796
 1082SOL    HW1 5143  10.936   5.438   0.890
 1082SOL    HW2 5144  10.830   5.438   0.781
 1083SOL     OW 5145   8.869  11.080   9.875
 1083SOL    HW1 5146   8.888  11.004   9.929
 1083SOL    HW2 5147   8.899  11.155   9.928
 1084SOL     OW 5148  11.339   2.575   7.966
 1084SOL    HW1 5149  11.266   2.629   7.996
 1084SOL    HW2 5150  11.353   2.601   7.875
 1085SOL     OW 5151   6.692   6.026   0.455
 1085SOL    HW1 5152   6.773   6.074   0.440
 1085SOL    HW2 5153   6.687   5.964   0.382
 1086SOL     OW 5154   0.329  12.713  10.034
 1086SOL    HW1 5155   0.266  12.747   9.971
 1086SOL    HW2 5156   0.283  12.642  10.079
 1087SOL     OW 5157   9.766  13.739   2.996
 1087SOL    HW1 5158   9.701  13.771   3.058
 1087SOL    HW2 5159   9.715  13.694   2.929
 1088SOL     OW 5160  10.330   1.419   6.097
 1088SOL    HW1 5161  10.323   1.509   6.066
 1088SOL    HW2 5162  10.368   1.371   6.023
 1089SOL     OW 5163   1.916   0.751   3.262
 1089SOL    HW1 5164   1.935   0.796   3.180
 1089SOL    HW2 5165   1.892   0.662   3.236
 1090SOL     OW 5166   5.959   9.876   1.094
 1090SOL    HW1 5167   5.930   9.796   1.138
 1090SOL    HW2 5168   6.030   9.848   1.037
 1091SOL     OW 5169   4.901  12.064  12.391
 1091SOL    HW1 5170   4.954  11.993  12.355
 1091SOL    HW2 5171   4.923  12.140  12.337
 1092SOL     OW 5172   1.006   1.602   7.893
 1092SOL    HW1 5173   0.933   1.663   7.884
 1092SOL    HW2 5174   1.073   1.652   7.940
 1093SOL     OW 5175   7.166  12.907   6.719
 1093SOL    HW1 5176   7.260  12.924   6.724
 1093SOL    HW2 5177   7.144  12.918   6.626
 1094SOL     OW 5178   5.215  12.474   7.960
 1094SOL    HW1 5179   5.131  12.452   8.000
 1094SOL    HW2 5180   5.198  12.476   7.866
 1095SOL     OW 5181  14.878   1.380   6.963
 1095SOL    HW1 5182  14.873   1.364   7.057
 1095SOL    HW2 5183   0.053   1.456   6.955
 1096SOL     OW 5184  14.626   5.435   1.103
 1096SOL    HW1 5185  14.570   5.506   1.136
 1096SOL    HW2 5186  14.624   5.447   1.008
 1097SOL     OW 5187  10.403   0.211  10.859
 1097SOL    HW1 5188  10.387   0.252  10.944
 1097SOL    HW2 5189  10.498   0.216  10.847
 1098SOL     OW 5190   3.947   9.921   7.205
 1098SOL    HW1 5191   3.887   9.921   7.131
 1098SOL    HW2 5192   4.032   9.899   7.167
 1099SOL     OW 5193   7.824   1.272  10.048
 1099SOL    HW1 5194   7.809   1.236  10.136
 1099SOL    HW2 5195   7.779   1.356  10.049
 1100SOL     OW 5196   3.805   4.060   1.620
 1100SOL    HW1 5197   3.769   4.056   1.532
 1100SOL    HW2 5198   3.792   4.151   1.647
 1101SOL     OW 5199   5.591   5.541   1.365
 1101SOL    HW1 5200   5.664   5.563   1.423
 1101SOL    HW2 5201   5.618   5.574   1.279
 1102SOL     OW 5202  12.032   1.698   4.984
 1102SOL    HW1 5203  12.035   1.655   5.070
 1102SOL    HW2 5204  12.124   1.711   4.961
 1103SOL     OW 5205  11.898   1.815   9.591
 1103SOL    HW1 5206  11.813   1.773   9.606
 1103SOL    HW2 5207  11.923   1.787   9.503
 1104SOL     OW 5208   7.394   1.894   2.037
 1104SOL    HW1 5209   7.479   1.864   2.069
 1104SOL    HW2 5210   7.353   1.816   2.002
 1105SOL     OW 5211   8.561   1.895  12.688
 1105SOL    HW1 5212   8.569   1.919  12.780
 1105SOL    HW2 5213   8.492   1.952  12.654
 1106SOL     OW 5214   8.232   2.859  10.866
 1106SOL    HW1 5215   8.174   2.833  10.938
 1106SOL    HW2 5216   8.222   2.789  10.801
 1107SOL     OW 5217   1.837   7.954   5.444
 1107SOL    HW1 5218   1.766   8.010   5.475
 1107SOL    HW2 5219   1.831   7.958   5.348
 1108SOL     OW 5220   8.581   5.246   2.977
 1108SOL    HW1 5221   8.645   5.182   2.946
 1108SOL    HW2 5222   8.498   5.199   2.978
 1109SOL     OW 5223   5.473  10.697   9.853
 1109SOL    HW1 5224   5.515  10.614   9.876
 1109SOL    HW2 5225   5.416  10.676   9.780
 1110SOL     OW 5226  12.072  12.092  11.097
 1110SOL    HW1 5227  12.000  12.032  11.080
 1110SOL    HW2 5228  12.137  12.071  11.030
 1111SOL     OW 5229   6.961   5.024   0.620
 1111SOL    HW1 5230   6.891   5.008   0.684
 1111SOL    HW2 5231   6.947   4.959   0.552
 1112SOL     OW 5232  13.741  13.829   6.354
 1112SOL    HW1 5233  13.693  13.895   6.304
 1112SOL    HW2 5234  13.729  13.748   6.303
 1113SOL     OW 5235   9.088   8.414   4.632
 1113SOL    HW1 5236   9.127   8.327   4.620
 1113SOL    HW2 5237   9.078   8.448   4.543
 1114SOL     OW 5238  11.716   9.223   1.328
 1114SOL    HW1 5239  11.789   9.204   1.387
 1114SOL    HW2 5240  11.693   9.314   1.346
 1115SOL     OW 5241   0.416  12.613  11.144
 1115SOL    HW1 5242   0.425  12.550  11.216
 1115SOL    HW2 5243   0.395  12.559  11.068
 1116SOL     OW 5244   7.066  10.790   5.702
 1116SOL    HW1 5245   7.032  10.738   5.775
 1116SOL    HW2 5246   7.022  10.756   5.625
 1117SOL     OW 5247  10.262   4.287   4.419
 1117SOL    HW1 5248  10.313   4.220   4.465
 1117SOL    HW2 5249  10.246   4.355   4.484
 1118SOL     OW 5250   0.000   5.033   6.396
 1118SOL    HW1 5251  14.870   4.966   6.462
 1118SOL    HW2 5252  14.834   5.109   6.429
 1119SOL     OW 5253  14.273  10.684   4.387
 1119SOL    HW1 5254  14.268  10.593   4.360
 1119SOL    HW2 5255  14.366  10.706   4.380
 1120SOL     OW 5256   7.963  10.434   0.714
 1120SOL    HW1 5257   8.053  10.456   0.740
 1120SOL    HW2 5258   7.960  10.457   0.621
 1121SOL     OW 5259  12.371  11.706   5.196
 1121SOL    HW1 5260  12.421  11.719   5.277
 1121SOL    HW2 5261  12.414  11.763   5.132
 1122SOL     OW 5262   4.357   4.344   8.816
 1122SOL    HW1 5263   4.336   4.352   8.723
 1122SOL    HW2 5264   4.428   4.280   8.820
 1123SOL     OW 5265  11.083   2.036  10.782
 1123SOL    HW1 5266  11.048   2.067  10.865
 1123SOL    HW2 5267  11.135   2.109  10.749
 1124SOL     OW 5268  13.937   4.060   2.060
 1124SOL    HW1 5269  13.943   4.151   2.031
 1124SOL    HW2 5270  13.867   4.061   2.126
 1125SOL     OW 5271   8.821   3.133   9.988
 1125SOL    HW1 5272   8.754   3.180   9.939
 1125SOL    HW2 5273   8.825   3.047   9.948
 1126SOL     OW 5274  12.264   7.819  14.567
 1126SOL    HW1 5275  12.172   7.825  14.592
 1126SOL    HW2 5276  12.312   7.847  14.645
 1127SOL     OW 5277  11.644  10.440  14.138
 1127SOL    HW1 5278  11.720  10.387  14.159
 1127SOL    HW2 5279  11.580  10.378  14.103
 1128SOL     OW 5280   6.849   3.550  11.184
 1128SOL    HW1 5281   6.783   3.500  11.232
 1128SOL    HW2 5282   6.845   3.638  11.223
 1129SOL     OW 5283   7.872   6.092   7.260
 1129SOL    HW1 5284   7.820   6.151   7.315
 1129SOL    HW2 5285   7.925   6.042   7.322
 1130SOL     OW 5286   5.571   3.086  12.146
 1130SOL    HW1 5287   5.546   3.051  12.061
 1130SOL    HW2 5288   5.661   3.116  12.134
 1131SOL     OW 5289   6.774   8.551   0.952
 1131SOL    HW1 5290   6.730   8.484   0.900
 1131SOL    HW2 5291   6.714   8.567   1.025
 1132SOL     OW 5292  10.092   9.978  12.380
 1132SOL    HW1 5293  10.045   9.981  12.464
 1132SOL    HW2 5294  10.023   9.973  12.314
 1133SOL     OW 5295   3.362   0.668   1.201
 1133SOL    HW1 5296   3.386   0.578   1.178
 1133SOL    HW2 5297   3.429   0.696   1.262
 1134SOL     OW 5298   6.296   1.694   2.539
 1134SOL    HW1 5299   6.367   1.652   2.588
 1134SOL    HW2 5300   6.326   1.696   2.449
 1135SOL     OW 5301   9.776   5.438   4.892
 1135SOL    HW1 5302   9.855   5.443   4.944
 1135SOL    HW2 5303   9.732   5.358   4.922
 1136SOL     OW 5304   4.535   4.563   5.558
 1136SOL    HW1 5305   4.490   4.601   5.482
 1136SOL    HW2 5306   4.508   4.618   5.632
 1137SOL     OW 5307  14.374  10.397  11.547
 1137SOL    HW1 5308  14.407  10.471  11.599
 1137SOL    HW2 5309  14.296  10.431  11.505
 1138SOL     OW 5310  14.795  12.002  14.227
 1138SOL    HW1 5311  14.813  12.065  14.297
 1138SOL    HW2 5312  14.785  11.919  14.273
 1139SOL     OW 5313   8.724   2.030   8.984
 1139SOL    HW1 5314   8.787   1.977   8.935
 1139SOL    HW2 5315   8.732   2.000   9.075
 1140SOL     OW 5316  13.086   8.701   1.278
 1140SOL    HW1 5317  13.089   8.785   1.325
 1140SOL    HW2 5318  13.018   8.651   1.324
 1141SOL     OW 5319   6.162   7.095   7.744
 1141SOL    HW1 5320   6.112   7.175   7.726
 1141SOL    HW2 5321   6.097   7.025   7.740
 1142SOL     OW 5322  11.118   4.287  11.500
 1142SOL    HW1 5323  11.033   4.282  11.456
 1142SOL    HW2 5324  11.114   4.220  11.568
 1143SOL     OW 5325  14.098   9.154   2.298
 1143SOL    HW1 5326  14.082   9.234   2.348
 1143SOL    HW2 5327  14.187   9.129   2.321
 1144SOL     OW 5328  11.304   3.199   7.869
 1144SOL    HW1 5329  11.369   3.133   7.892
 1144SOL    HW2 5330  11.281   3.240   7.953
 1145SOL     OW 5331   6.972   0.298   9.619
 1145SOL    HW1 5332   6.913   0.372   9.631
 1145SOL    HW2 5333   7.046   0.317   9.678
 1146SOL     OW 5334  14.695  13.568   7.023
 1146SOL    HW1 5335  14.644  13.594   7.100
 1146SOL    HW2 5336  14.704  13.473   7.031
 1147SOL     OW 5337   5.132   0.913  12.366
 1147SOL    HW1 5338   5.192   0.861  12.419
 1147SOL    HW2 5339   5.072   0.953  12.429
 1148SOL     OW 5340   4.163   0.290   1.835
 1148SOL    HW1 5341   4.088   0.349   1.841
 1148SOL    HW2 5342   4.131   0.206   1.870
 1149SOL     OW 5343   4.531  12.711   5.570
 1149SOL    HW1 5344   4.456  12.702   5.510
 1149SOL    HW2 5345   4.498  12.683   5.655
 1150SOL     OW 5346   1.864   0.079  14.499
 1150SOL    HW1 5347   1.949   0.121  14.485
 1150SOL    HW2 5348   1.802   0.131  14.448
 1151SOL     OW 5349  11.609   6.850  11.698
 1151SOL    HW1 5350  11.606   6.868  11.792
 1151SOL    HW2 5351  11.652   6.926  11.660
 1152SOL     OW 5352  12.756   6.349   9.677
 1152SOL    HW1 5353  12.717   6.395   9.602
 1152SOL    HW2 5354  12.791   6.418   9.733
 1153SOL     OW 5355   1.299   6.837  13.478
 1153SOL    HW1 5356   1.341   6.758  13.513
 1153SOL    HW2 5357   1.230   6.804  13.420
 1154SOL     OW 5358  14.230   1.690   6.406
 1154SOL    HW1 5359  14.162   1.740   6.451
 1154SOL    HW2 5360  14.293   1.756   6.377
 1155SOL     OW 5361  14.268   3.722   8.961
 1155SOL    HW1 5362  14.338   3.777   8.926
 1155SOL    HW2 5363  14.204   3.784   8.996
 1156SOL     OW 5364  10.796  12.820   0.394
 1156SOL    HW1 5365  10.713  12.774   0.406
 1156SOL    HW2 5366  10.827  12.838   0.482
 1157SOL     OW 5367   6.892  10.038   1.840
 1157SOL    HW1 5368   6.819  10.025   1.781
 1157SOL    HW2 5369   6.936   9.953   1.843
 1158SOL     OW 5370   4.611  11.666   9.353
 1158SOL    HW1 5371   4.526  11.707   9.370
 1158SOL    HW2 5372   4.614  11.592   9.413
 1159SOL     OW 5373   8.597   8.071  10.234
 1159SOL    HW1 5374   8.556   7.987  10.255
 1159SOL    HW2 5375   8.562   8.131  10.300
 1160SOL     OW 5376  13.977  13.116   6.632
 1160SOL    HW1 5377  13.909  13.153   6.689
 1160SOL    HW2 5378  14.058  13.156   6.662
 1161SOL     OW 5379   5.772  13.231   6.232
 1161SOL    HW1 5380   5.732  13.276   6.158
 1161SOL    HW2 5381   5.858  13.204   6.200
 1162SOL     OW 5382   9.077  11.943  14.613
 1162SOL    HW1 5383   9.122  11.941  14.528
 1162SOL    HW2 5384   9.060  12.035  14.630
 1163SOL     OW 5385   8.000   4.988   0.875
 1163SOL    HW1 5386   8.057   5.041   0.931
 1163SOL    HW2 5387   7.920   5.040   0.867
 1164SOL     OW 5388   0.324   5.370   3.448
 1164SOL    HW1 5389   0.373   5.439   3.493
 1164SOL    HW2 5390   0.304   5.407   3.362
 1165SOL     OW 5391   5.130  13.296   8.831
 1165SOL    HW1 5392   5.081  13.237   8.888
 1165SOL    HW2 5393   5.133  13.379   8.879
 1166SOL     OW 5394   1.931   3.563   5.940
 1166SOL    HW1 5395   1.915   3.623   6.012
 1166SOL    HW2 5396   1.986   3.494   5.977
 1167SOL     OW 5397  12.874  11.174  13.538
 1167SOL    HW1 5398  12.859  11.084  13.509
 1167SOL    HW2 5399  12.788  11.215  13.536
 1168SOL     OW 5400  10.550   0.499   9.139
 1168SOL    HW1 5401  10.559   0.569   9.074
 1168SOL    HW2 5402  10.558   0.418   9.088
 1169SOL     OW 5403   5.987  10.958  11.389
 1169SOL    HW1 5404   5.918  10.975  11.325
 1169SOL    HW2 5405   6.016  10.869  11.369
 1170SOL     OW 5406  11.421   4.850   9.869
 1170SOL    HW1 5407  11.400   4.943   9.875
 1170SOL    HW2 5408  11.343   4.806   9.904
 1171SOL     OW 5409  14.506   8.499   7.089
 1171SOL    HW1 5410  14.471   8.588   7.096
 1171SOL    HW2 5411  14.431   8.445   7.067
 1172SOL     OW 5412   6.329  10.928   7.564
 1172SOL    HW1 5413   6.291  10.904   7.648
 1172SOL    HW2 5414   6.254  10.937   7.505
 1173SOL     OW 5415   7.929   3.574  12.155
 1173SOL    HW1 5416   8.014   3.618  12.152
 1173SOL    HW2 5417   7.912   3.561  12.248
 1174SOL     OW 5418   6.419   7.973  12.164
 1174SOL    HW1 5419   6.511   7.946  12.170
 1174SOL    HW2 5420   6.379   7.938  12.243
 1175SOL     OW 5421  10.784  11.660   8.447
 1175SOL    HW1 5422  10.800  11.745   8.488
 1175SOL    HW2 5423  10.833  11.664   8.364
 1176SOL     OW 5424   8.000   7.140  12.006
 1176SOL    HW1 5425   7.980   7.224  12.047
 1176SOL    HW2 5426   8.006   7.160  11.912
 1177SOL     OW 5427   8.976   2.740   5.639
 1177SOL    HW1 5428   8.984   2.764   5.731
 1177SOL    HW2 5429   9.052   2.683   5.622
 1178SOL     OW 5430   9.426   0.442   9.494
 1178SOL    HW1 5431   9.340   0.479   9.473
 1178SOL    HW2 5432   9.477   0.517   9.525
 1179SOL     OW 5433   8.799   3.308   0.441
 1179SOL    HW1 5434   8.888   3.285   0.416
 1179SOL    HW2 5435   8.750   3.309   0.359
 1180SOL     OW 5436   5.547   2.622   9.952
 1180SOL    HW1 5437   5.532   2.610  10.046
 1180SOL    HW2 5438   5.596   2.545   9.925
 1181SOL     OW 5439   5.882  11.035   2.552
 1181SOL    HW1 5440   5.955  11.097   2.552
 1181SOL    HW2 5441   5.924  10.949   2.549
 1182SOL     OW 5442  14.803   2.657   4.058
 1182SOL    HW1 5443  14.784   2.563   4.058
 1182SOL    HW2 5444  14.721   2.698   4.085
 1183SOL     OW 5445  11.275   1.590   4.796
 1183SOL    HW1 5446  11.257   1.653   4.866
 1183SOL    HW2 5447  11.315   1.515   4.840
 1184SOL     OW 5448  12.378   0.658   5.774
 1184SOL    HW1 5449  12.308   0.641   5.837
 1184SOL    HW2 5450  12.347   0.733   5.724
 1185SOL     OW 5451   8.008  14.767   3.782
 1185SOL    HW1 5452   7.967  14.830   3.723
 1185SOL    HW2 5453   8.091  14.806   3.806
 1186SOL     OW 5454  13.788   0.900   4.282
 1186SOL    HW1 5455  13.724   0.872   4.216
 1186SOL    HW2 5456  13.857   0.943   4.232
 1187SOL     OW 5457   7.642   8.487   3.276
 1187SOL    HW1 5458   7.562   8.434   3.281
 1187SOL    HW2 5459   7.680   8.464   3.191
 1188SOL     OW 5460   3.691  12.155   4.470
 1188SOL    HW1 5461   3.676  12.091   4.400
 1188SOL    HW2 5462   3.678  12.106   4.551
 1189SOL     OW 5463   4.630   3.500  10.013
 1189SOL    HW1 5464   4.677   3.453   9.944
 1189SOL    HW2 5465   4.696   3.555  10.054
 1190SOL     OW 5466   0.424  14.115   6.902
 1190SOL    HW1 5467   0.344  14.165   6.920
 1190SOL    HW2 5468   0.489  14.181   6.879
 1191SOL     OW 5469   7.073   1.695  12.765
 1191SOL    HW1 5470   7.079   1.599  12.773
 1191SOL    HW2 5471   7.035   1.723  12.848
 1192SOL     OW 5472   4.366  13.517   5.308
 1192SOL    HW1 5473   4.447  13.566   5.320
 1192SOL    HW2 5474   4.392  13.436   5.263
 1193SOL     OW 5475   6.160   4.460   3.023
 1193SOL    HW1 5476   6.164   4.366   3.039
 1193SOL    HW2 5477   6.140   4.468   2.930
 1194SOL     OW 5478  12.446  13.306  10.961
 1194SOL    HW1 5479  12.406  13.377  11.012
 1194SOL    HW2 5480  12.470  13.348  10.878
 1195SOL     OW 5481  11.881   7.773   4.345
 1195SOL    HW1 5482  11.797   7.750   4.386
 1195SOL    HW2 5483  11.868   7.755   4.252
 1196SOL     OW 5484   3.600   7.855  14.143
 1196SOL    HW1 5485   3.574   7.901  14.223
 1196SOL    HW2 5486   3.587   7.763  14.164
 1197SOL     OW 5487   7.409   1.153   5.327
 1197SOL    HW1 5488   7.434   1.124   5.414
 1197SOL    HW2 5489   7.417   1.075   5.272
 1198SOL     OW 5490  10.910   4.995  14.209
 1198SOL    HW1 5491  10.990   4.947  14.185
 1198SOL    HW2 5492  10.850   4.979  14.136
 1199SOL     OW 5493  14.878   7.906  11.153
 1199SOL    HW1 5494   0.012   7.927  11.061
 1199SOL    HW2 5495  14.784   7.919  11.164
 1200SOL     OW 5496   2.730   5.265   2.963
 1200SOL    HW1 5497   2.691   5.182   2.990
 1200SOL    HW2 5498   2.702   5.276   2.872
 1201SOL     OW 5499  13.220   5.753   1.886
 1201SOL    HW1 5500  13.237   5.661   1.864
 1201SOL    HW2 5501  13.127   5.757   1.905
 1202SOL     OW 5502  10.692   8.452   6.116
 1202SOL    HW1 5503  10.645   8.389   6.061
 1202SOL    HW2 5504  10.775   8.409   6.136
 1203SOL     OW 5505   1.855   3.827  11.081
 1203SOL    HW1 5506   1.906   3.774  11.020
 1203SOL    HW2 5507   1.779   3.855  11.031
 1204SOL     OW 5508   1.874   7.332  10.470
 1204SOL    HW1 5509   1.902   7.241  10.476
 1204SOL    HW2 5510   1.794   7.328  10.418
 1205SOL     OW 5511   8.713   4.344   9.665
 1205SOL    HW1 5512   8.804   4.366   9.688
 1205SOL    HW2 5513   8.667   4.427   9.670
 1206SOL     OW 5514   4.055   5.479   3.464
 1206SOL    HW1 5515   3.966   5.482   3.498
 1206SOL    HW2 5516   4.091   5.566   3.480
 1207SOL     OW 5517   9.150  10.828  11.697
 1207SOL    HW1 5518   9.203  10.786  11.764
 1207SOL    HW2 5519   9.168  10.777  11.618
 1208SOL     OW 5520  11.220  12.416   8.870
 1208SOL    HW1 5521  11.170  12.365   8.934
 1208SOL    HW2 5522  11.309  12.418   8.905
 1209SOL     OW 5523   0.915   5.762   3.324
 1209SOL    HW1 5524   1.001   5.723   3.343
 1209SOL    HW2 5525   0.907   5.755   3.228
 1210SOL     OW 5526   6.862   8.898  11.912
 1210SOL    HW1 5527   6.796   8.836  11.943
 1210SOL    HW2 5528   6.817   8.949  11.845
 1211SOL     OW 5529   6.783   4.571   1.494
 1211SOL    HW1 5530   6.866   4.594   1.452
 1211SOL    HW2 5531   6.749   4.654   1.527
 1212SOL     OW 5532  13.488  12.513  10.803
 1212SOL    HW1 5533  13.472  12.502  10.897
 1212SOL    HW2 5534  13.583  12.507  10.794
 1213SOL     OW 5535   4.162  12.151   0.832
 1213SOL    HW1 5536   4.124  12.237   0.854
 1213SOL    HW2 5537   4.255  12.160   0.854
 1214SOL     OW 5538   7.400  13.901   0.221
 1214SOL    HW1 5539   7.320  13.933   0.178
 1214SOL    HW2 5540   7.428  13.828   0.167
 1215SOL     OW 5541  14.753  11.458   8.931
 1215SOL    HW1 5542  14.774  11.540   8.977
 1215SOL    HW2 5543  14.807  11.392   8.975
 1216SOL     OW 5544   2.778   8.984   3.503
 1216SOL    HW1 5545   2.741   8.910   3.551
 1216SOL    HW2 5546   2.847   9.017   3.561
 1217SOL     OW 5547   7.310  10.691   6.802
 1217SOL    HW1 5548   7.264  10.774   6.811
 1217SOL    HW2 5549   7.344  10.692   6.712
 1218SOL     OW 5550  10.505   5.990   8.879
 1218SOL    HW1 5551  10.429   6.008   8.824
 1218SOL    HW2 5552  10.569   6.056   8.853
 1219SOL     OW 5553  14.648   2.260   0.506
 1219SOL    HW1 5554  14.665   2.305   0.588
 1219SOL    HW2 5555  14.553   2.253   0.501
 1220SOL     OW 5556   2.939  12.358   9.967
 1220SOL    HW1 5557   3.011  12.304   9.998
 1220SOL    HW2 5558   2.907  12.403  10.045
 1221SOL     OW 5559   5.420   9.137  12.230
 1221SOL    HW1 5560   5.372   9.167  12.152
 1221SOL    HW2 5561   5.491   9.199  12.240
 1222SOL     OW 5562   8.668  12.447   8.676
 1222SOL    HW1 5563   8.674  12.365   8.726
 1222SOL    HW2 5564   8.574  12.467   8.674
 1223SOL     OW 5565   9.683  12.552   7.701
 1223SOL    HW1 5566   9.660  12.636   7.660
 1223SOL    HW2 5567   9.649  12.558   7.790
 1224SOL     OW 5568  13.075  12.303   1.104
 1224SOL    HW1 5569  13.004  12.366   1.105
 1224SOL    HW2 5570  13.127  12.324   1.182
 1225SOL     OW 5571  14.057  13.118   7.256
 1225SOL    HW1 5572  14.054  13.069   7.337
 1225SOL    HW2 5573  14.044  13.209   7.282
 1226SOL     OW 5574   8.003   1.761  13.225
 1226SOL    HW1 5575   8.008   1.686  13.283
 1226SOL    HW2 5576   8.085   1.809  13.241
 1227SOL     OW 5577   1.511   7.576   9.121
 1227SOL    HW1 5578   1.419   7.551   9.110
 1227SOL    HW2 5579   1.508   7.649   9.183
 1228SOL     OW 5580   5.424  12.319   9.498
 1228SOL    HW1 5581   5.392  12.408   9.509
 1228SOL    HW2 5582   5.391  12.293   9.412
 1229SOL     OW 5583   2.400   5.453   8.288
 1229SOL    HW1 5584   2.458   5.451   8.212
 1229SOL    HW2 5585   2.346   5.374   8.278
 1230SOL     OW 5586  10.650  13.022  13.846
 1230SOL    HW1 5587  10.594  12.976  13.783
 1230SOL    HW2 5588  10.725  12.963  13.859
 1231SOL     OW 5589   8.407   5.633   8.793
 1231SOL    HW1 5590   8.469   5.616   8.722
 1231SOL    HW2 5591   8.327   5.589   8.766
 1232SOL     OW 5592   0.634   0.414   9.068
 1232SOL    HW1 5593   0.565   0.479   9.054
 1232SOL    HW2 5594   0.680   0.446   9.146
 1233SOL     OW 5595   9.791  14.739   1.776
 1233SOL    HW1 5596   9.825  14.724   1.687
 1233SOL    HW2 5597   9.733  14.814   1.767
 1234SOL     OW 5598  12.063   5.081   7.268
 1234SOL    HW1 5599  12.110   5.138   7.329
 1234SOL    HW2 5600  11.996   5.039   7.322
 1235SOL     OW 5601   2.351   0.280  12.348
 1235SOL    HW1 5602   2.430   0.306  12.302
 1235SOL    HW2 5603   2.381   0.244  12.431
 1236SOL     OW 5604  11.527   2.819   0.446
 1236SOL    HW1 5605  11.503   2.910   0.428
 1236SOL    HW2 5606  11.452   2.768   0.414
 1237SOL     OW 5607  11.556   0.271   2.031
 1237SOL    HW1 5608  11.589   0.340   1.974
 1237SOL    HW2 5609  11.541   0.197   1.972
 1238SOL     OW 5610   5.391  12.698  11.791
 1238SOL    HW1 5611   5.472  12.682  11.743
 1238SOL    HW2 5612   5.335  12.624  11.768
 1239SOL     OW 5613  12.298  10.264   7.000
 1239SOL    HW1 5614  12.369  10.213   6.962
 1239SOL    HW2 5615  12.265  10.209   7.071
 1240SOL     OW 5616   9.370   8.351  12.298
 1240SOL    HW1 5617   9.333   8.411  12.363
 1240SOL    HW2 5618   9.464   8.349  12.318
 1241SOL     OW 5619  12.405   5.518  12.378
 1241SOL    HW1 5620  12.416   5.610  12.353
 1241SOL    HW2 5621  12.318   5.514  12.418
 1242SOL     OW 5622   7.798  14.141  11.919
 1242SOL    HW1 5623   7.839  14.081  11.856
 1242SOL    HW2 5624   7.776  14.086  11.994
 1243SOL     OW 5625   6.307   3.672  13.943
 1243SOL    HW1 5626   6.371   3.728  13.987
 1243SOL    HW2 5627   6.358   3.621  13.882
 1244SOL     OW 5628  10.782   9.099   3.854
 1244SOL    HW1 5629  10.835   9.091   3.775
 1244SOL    HW2 5630  10.780   9.193   3.873
 1245SOL     OW 5631  13.604   8.521   9.681
 1245SOL    HW1 5632  13.575   8.603   9.641
 1245SOL    HW2 5633  13.637   8.470   9.607
 1246SOL     OW 5634   8.705  10.395   7.883
 1246SOL    HW1 5635   8.777  10.337   7.908
 1246SOL    HW2 5636   8.643  10.388   7.955
 1247SOL     OW 5637   5.776   5.998   5.086
 1247SOL    HW1 5638   5.793   6.060   5.015
 1247SOL    HW2 5639   5.758   5.915   5.042
 1248SOL     OW 5640  13.151   3.306   8.488
 1248SOL    HW1 5641  13.087   3.373   8.467
 1248SOL    HW2 5642  13.131   3.234   8.428
 1249SOL     OW 5643   7.995  14.704  10.775
 1249SOL    HW1 5644   8.062  14.745  10.721
 1249SOL    HW2 5645   7.917  14.702  10.718
 1250SOL     OW 5646   5.839   1.367  12.476
 1250SOL    HW1 5647   5.833   1.336  12.386
 1250SOL    HW2 5648   5.796   1.452  12.476
 1251SOL     OW 5649   0.712  11.718   7.364
 1251SOL    HW1 5650   0.806  11.702   7.370
 1251SOL    HW2 5651   0.702  11.775   7.288
 1252SOL     OW 5652   7.589   2.982   5.311
 1252SOL    HW1 5653   7.679   3.014   5.304
 1252SOL    HW2 5654   7.535   3.053   5.275
 1253SOL     OW 5655  10.894   1.984   5.368
 1253SOL    HW1 5656  10.839   1.933   5.428
 1253SOL    HW2 5657  10.831   2.029   5.311
 1254SOL     OW 5658   9.694   3.976   4.703
 1254SOL    HW1 5659   9.642   3.960   4.782
 1254SOL    HW2 5660   9.646   3.931   4.634
 1255SOL     OW 5661   0.718   8.113   1.256
 1255SOL    HW1 5662   0.804   8.131   1.218
 1255SOL    HW2 5663   0.699   8.023   1.230
 1256SOL     OW 5664   5.068  12.469   2.191
 1256SOL    HW1 5665   5.026  12.448   2.107
 1256SOL    HW2 5666   5.158  12.491   2.168
 1257SOL     OW 5667   9.419   6.242   6.078
 1257SOL    HW1 5668   9.350   6.219   6.016
 1257SOL    HW2 5669   9.384   6.218   6.164
 1258SOL     OW 5670  12.099   2.422   7.094
 1258SOL    HW1 5671  12.159   2.496   7.082
 1258SOL    HW2 5672  12.013   2.457   7.072
 1259SOL     OW 5673   2.492  11.397   0.095
 1259SOL    HW1 5674   2.530  11.371   0.011
 1259SOL    HW2 5675   2.565  11.440   0.141
 1260SOL     OW 5676   8.993  11.547   5.103
 1260SOL    HW1 5677   8.922  11.492   5.136
 1260SOL    HW2 5678   8.948  11.613   5.048
 1261SOL     OW 5679   5.772   0.126   5.016
 1261SOL    HW1 5680   5.750   0.217   5.035
 1261SOL    HW2 5681   5.711   0.100   4.948
 1262SOL     OW 5682   2.110  11.658  12.909
 1262SOL    HW1 5683   2.154  11.596  12.852
 1262SOL    HW2 5684   2.019  11.629  12.911
 1263SOL     OW 5685   8.143  14.184   9.369
 1263SOL    HW1 5686   8.134  14.149   9.457
 1263SOL    HW2 5687   8.153  14.107   9.313
 1264SOL     OW 5688  12.392   3.591   0.534
 1264SOL    HW1 5689  12.361   3.523   0.594
 1264SOL    HW2 5690  12.315   3.647   0.520
 1265SOL     OW 5691  13.908   6.574  11.468
 1265SOL    HW1 5692  13.903   6.670  11.469
 1265SOL    HW2 5693  13.846   6.547  11.401
 1266SOL     OW 5694   8.712  11.208  10.920
 1266SOL    HW1 5695   8.741  11.196  10.830
 1266SOL    HW2 5696   8.633  11.154  10.927
 1267SOL     OW 5697  11.345   4.022  13.142
 1267SOL    HW1 5698  11.365   3.963  13.215
 1267SOL    HW2 5699  11.423   4.019  13.087
 1268SOL     OW 5700  10.965  14.347   8.051
 1268SOL    HW1 5701  10.925  14.368   8.135
 1268SOL    HW2 5702  11.056  14.375   8.059
 1269SOL     OW 5703   3.658   1.213  14.841
 1269SOL    HW1 5704   3.749   1.181  14.842
 1269SOL    HW2 5705   3.606   1.136  14.816
 1270SOL     OW 5706   9.786   0.022   0.051
 1270SOL    HW1 5707   9.871   0.016   0.095
 1270SOL    HW2 5708   9.792  14.839  14.863
 1271SOL     OW 5709   2.041   0.102  13.780
 1271SOL    HW1 5710   2.003   0.180  13.740
 1271SOL    HW2 5711   2.098   0.136  13.849
 1272SOL     OW 5712   1.657  11.519  11.389
 1272SOL    HW1 5713   1.673  11.509  11.483
 1272SOL    HW2 5714   1.568  11.554  11.383
 1273SOL     OW 5715   6.143   7.947  13.771
 1273SOL    HW1 5716   6.126   7.958  13.677
 1273SOL    HW2 5717   6.236   7.923  13.775
 1274SOL     OW 5718   5.782  12.427  14.693
 1274SOL    HW1 5719   5.766  12.521  14.703
 1274SOL    HW2 5720   5.695  12.389  14.678
 1275SOL     OW 5721   3.501   8.376   6.641
 1275SOL    HW1 5722   3.433   8.443   6.633
 1275SOL    HW2 5723   3.489   8.321   6.564
 1276SOL     OW 5724   6.962   8.882   1.849
 1276SOL    HW1 5725   7.018   8.944   1.895
 1276SOL    HW2 5726   7.003   8.873   1.763
 1277SOL     OW 5727  10.334   1.662   6.479
 1277SOL    HW1 5728  10.363   1.634   6.392
 1277SOL    HW2 5729  10.239   1.673   6.470
 1278SOL     OW 5730   7.486  13.656   5.107
 1278SOL    HW1 5731   7.424  13.583   5.115
 1278SOL    HW2 5732   7.491  13.672   5.013
 1279SOL     OW 5733  11.279  10.359   7.638
 1279SOL    HW1 5734  11.269  10.342   7.732
 1279SOL    HW2 5735  11.351  10.423   7.633
 1280SOL     OW 5736   8.742   3.254   4.789
 1280SOL    HW1 5737   8.666   3.231   4.735
 1280SOL    HW2 5738   8.705   3.275   4.875
 1281SOL     OW 5739  11.230   9.956  12.048
 1281SOL    HW1 5740  11.276   9.877  12.075
 1281SOL    HW2 5741  11.166   9.925  11.983
 1282SOL     OW 5742   5.305   1.793   7.275
 1282SOL    HW1 5743   5.223   1.815   7.231
 1282SOL    HW2 5744   5.279   1.769   7.364
 1283SOL     OW 5745  11.315  12.758   6.365
 1283SOL    HW1 5746  11.354  12.765   6.278
 1283SOL    HW2 5747  11.223  12.736   6.349
 1284SOL     OW 5748   7.891  10.903   3.577
 1284SOL    HW1 5749   7.884  10.997   3.593
 1284SOL    HW2 5750   7.833  10.887   3.502
 1285SOL     OW 5751  13.726   9.157   5.618
 1285SOL    HW1 5752  13.807   9.130   5.661
 1285SOL    HW2 5753  13.709   9.088   5.553
 1286SOL     OW 5754   3.545  13.316  11.243
 1286SOL    HW1 5755   3.612  13.362  11.192
 1286SOL    HW2 5756   3.575  13.225  11.245
 1287SOL     OW 5757  10.882   7.213   3.994
 1287SOL    HW1 5758  10.948   7.179   4.054
 1287SOL    HW2 5759  10.932   7.267   3.932
 1288SOL     OW 5760   0.715   9.164   8.474
 1288SOL    HW1 5761   0.720   9.084   8.528
 1288SOL    HW2 5762   0.804   9.197   8.472
 1289SOL     OW 5763  13.103  10.739   1.911
 1289SOL    HW1 5764  13.059  10.669   1.959
 1289SOL    HW2 5765  13.135  10.799   1.978
 1290SOL     OW 5766   3.184   8.043   7.695
 1290SOL    HW1 5767   3.260   8.008   7.649
 1290SOL    HW2 5768   3.169   8.129   7.655
 1291SOL     OW 5769   9.288   3.339   9.814
 1291SOL    HW1 5770   9.343   3.279   9.764
 1291SOL    HW2 5771   9.315   3.325   9.905
 1292SOL     OW 5772  11.702   0.561   8.544
 1292SOL    HW1 5773  11.645   0.524   8.476
 1292SOL    HW2 5774  11.648   0.628   8.586
 1293SOL     OW 5775   7.347  11.142   7.513
 1293SOL    HW1 5776   7.296  11.223   7.517
 1293SOL    HW2 5777   7.303  11.083   7.573
 1294SOL     OW 5778   3.821   3.173  13.101
 1294SOL    HW1 5779   3.897   3.116  13.095
 1294SOL    HW2 5780   3.755   3.131  13.045
 1295SOL     OW 5781   4.713   2.761  12.269
 1295SOL    HW1 5782   4.716   2.847  12.311
 1295SOL    HW2 5783   4.770   2.769  12.193
 1296SOL     OW 5784   2.820  12.061   5.504
 1296SOL    HW1 5785   2.749  12.083   5.563
 1296SOL    HW2 5786   2.863  11.986   5.546
 1297SOL     OW 5787   3.336   7.106  13.952
 1297SOL    HW1 5788   3.252   7.135  13.987
 1297SOL    HW2 5789   3.358   7.028  14.003
 1298SOL     OW 5790  11.084   3.570   9.661
 1298SOL    HW1 5791  11.178   3.576   9.676
 1298SOL    HW2 5792  11.070   3.613   9.577
 1299SOL     OW 5793  14.308   5.605   9.571
 1299SOL    HW1 5794  14.397   5.640   9.559
 1299SOL    HW2 5795  14.280   5.579   9.483
 1300SOL     OW 5796  13.399  14.742   2.392
 1300SOL    HW1 5797  13.312  14.762   2.356
 1300SOL    HW2 5798  13.389  14.655   2.431
 1301SOL     OW 5799   4.459  14.271   2.400
 1301SOL    HW1 5800   4.371  14.284   2.367
 1301SOL    HW2 5801   4.455  14.298   2.492
 1302SOL     OW 5802   0.478   9.081   4.614
 1302SOL    HW1 5803   0.460   9.085   4.707
 1302SOL    HW2 5804   0.438   9.000   4.584
 1303SOL     OW 5805  12.864   5.253   7.749
 1303SOL    HW1 5806  12.851   5.325   7.810
 1303SOL    HW2 5807  12.892   5.179   7.803
 1304SOL     OW 5808  11.000   1.109  13.670
 1304SOL    HW1 5809  10.916   1.088  13.712
 1304SOL    HW2 5810  11.063   1.048  13.711
 1305SOL     OW 5811   6.717  14.222   8.653
 1305SOL    HW1 5812   6.800  14.176   8.652
 1305SOL    HW2 5813   6.687  14.221   8.562
 1306SOL     OW 5814   1.410   6.233  13.635
 1306SOL    HW1 5815   1.366   6.217  13.719
 1306SOL    HW2 5816   1.497   6.194  13.645
 1307SOL     OW 5817   3.984   0.906  13.979
 1307SOL    HW1 5818   3.966   0.879  13.889
 1307SOL    HW2 5819   4.028   0.830  14.018
 1308SOL     OW 5820  11.712   9.979   5.321
 1308SOL    HW1 5821  11.806   9.958   5.317
 1308SOL    HW2 5822  11.690   9.972   5.413
 1309SOL     OW 5823   9.879   8.707   1.685
 1309SOL    HW1 5824   9.847   8.709   1.776
 1309SOL    HW2 5825   9.871   8.798   1.655
 1310SOL     OW 5826   0.180  14.494   5.256
 1310SOL    HW1 5827   0.213  14.571   5.210
 1310SOL    HW2 5828   0.141  14.529   5.337
 1311SOL     OW 5829   6.829   9.783  10.951
 1311SOL    HW1 5830   6.758   9.845  10.965
 1311SOL    HW2 5831   6.808   9.741  10.868
 1312SOL     OW 5832   4.957  10.957   1.558
 1312SOL    HW1 5833   4.924  10.885   1.611
 1312SOL    HW2 5834   5.015  11.005   1.617
 1313SOL     OW 5835   8.736   6.239  14.452
 1313SOL    HW1 5836   8.781   6.156  14.466
 1313SOL    HW2 5837   8.756   6.290  14.530
 1314SOL     OW 5838   0.869   5.079   0.486
 1314SOL    HW1 5839   0.897   5.036   0.567
 1314SOL    HW2 5840   0.909   5.166   0.489
 1315SOL     OW 5841  14.098  14.717   2.900
 1315SOL    HW1 5842  14.190  14.730   2.878
 1315SOL    HW2 5843  14.096  14.713   2.995
 1316SOL     OW 5844   9.771   1.920  11.255
 1316SOL    HW1 5845   9.758   1.882  11.168
 1316SOL    HW2 5846   9.741   1.851  11.315
 1317SOL     OW 5847   7.560   1.436   8.939
 1317SOL    HW1 5848   7.519   1.370   8.883
 1317SOL    HW2 5849   7.651   1.407   8.948
 1318SOL     OW 5850   3.091   2.075   3.572
 1318SOL    HW1 5851   3.184   2.069   3.593
 1318SOL    HW2 5852   3.080   2.161   3.531
 1319SOL     OW 5853   7.219  10.979   6.713
 1319SOL    HW1 5854   7.166  11.055   6.738
 1319SOL    HW2 5855   7.158  10.906   6.711
 1320SOL     OW 5856   9.160  13.922  13.631
 1320SOL    HW1 5857   9.090  13.950  13.571
 1320SOL    HW2 5858   9.180  14.000  13.682
 1321SOL     OW 5859  13.703   4.214   7.403
 1321SOL    HW1 5860  13.727   4.292   7.353
 1321SOL    HW2 5861  13.734   4.232   7.492
 1322SOL     OW 5862  14.373   8.731   5.766
 1322SOL    HW1 5863  14.424   8.811   5.779
 1322SOL    HW2 5864  14.310   8.754   5.697
 1323SOL     OW 5865   5.211   2.760   0.330
 1323SOL    HW1 5866   5.265   2.837   0.316
 1323SOL    HW2 5867   5.164   2.748   0.247
 1324SOL     OW 5868  11.070  13.328   9.338
 1324SOL    HW1 5869  11.017  13.330   9.418
 1324SOL    HW2 5870  11.049  13.244   9.298
 1325SOL     OW 5871  12.625   1.576   3.000
 1325SOL    HW1 5872  12.694   1.514   2.977
 1325SOL    HW2 5873  12.543   1.528   2.983
 1326SOL     OW 5874   3.806   3.400   4.099
 1326SOL    HW1 5875   3.857   3.468   4.144
 1326SOL    HW2 5876   3.860   3.322   4.106
 1327SOL     OW 5877  11.010   6.205  12.891
 1327SOL    HW1 5878  11.104   6.222  12.895
 1327SOL    HW2 5879  10.991   6.152  12.968
 1328SOL     OW 5880   8.386  14.206  10.930
 1328SOL    HW1 5881   8.345  14.265  10.993
 1328SOL    HW2 5882   8.474  14.193  10.964
 1329SOL     OW 5883   2.171   2.033  13.402
 1329SOL    HW1 5884   2.185   2.026  13.308
 1329SOL    HW2 5885   2.179   2.126  13.421
 1330SOL     OW 5886   7.800   6.931   5.113
 1330SOL    HW1 5887   7.724   6.888   5.073
 1330SOL    HW2 5888   7.804   6.894   5.201
 1331SOL     OW 5889   5.443  13.723   9.005
 1331SOL    HW1 5890   5.534  13.726   8.975
 1331SOL    HW2 5891   5.440  13.650   9.066
 1332SOL     OW 5892   3.223  11.768  10.480
 1332SOL    HW1 5893   3.235  11.862  10.494
 1332SOL    HW2 5894   3.128  11.756  10.482
 1333SOL     OW 5895   2.761  13.541   0.441
 1333SOL    HW1 5896   2.840  13.588   0.414
 1333SOL    HW2 5897   2.753  13.469   0.378
 1334SOL     OW 5898   3.506   2.074   8.229
 1334SOL    HW1 5899   3.524   2.042   8.317
 1334SOL    HW2 5900   3.417   2.046   8.210
 1335SOL     OW 5901   2.388  13.369   7.013
 1335SOL    HW1 5902   2.404  13.293   6.957
 1335SOL    HW2 5903   2.398  13.336   7.102
 1336SOL     OW 5904  11.264   6.157   3.102
 1336SOL    HW1 5905  11.281   6.223   3.036
 1336SOL    HW2 5906  11.332   6.171   3.169
 1337SOL     OW 5907   2.470   7.899  10.678
 1337SOL    HW1 5908   2.528   7.832  10.641
 1337SOL    HW2 5909   2.474   7.971  10.615
 1338SOL     OW 5910  10.431   2.149  13.636
 1338SOL    HW1 5911  10.454   2.057  13.648
 1338SOL    HW2 5912  10.396   2.176  13.721
 1339SOL     OW 5913   4.987  14.161  12.246
 1339SOL    HW1 5914   5.019  14.125  12.328
 1339SOL    HW2 5915   4.899  14.125  12.236
 1340SOL     OW 5916   7.981   5.753  10.572
 1340SOL    HW1 5917   7.998   5.701  10.650
 1340SOL    HW2 5918   8.049   5.820  10.573
 1341SOL     OW 5919   4.129   2.266   5.572
 1341SOL    HW1 5920   4.205   2.324   5.572
 1341SOL    HW2 5921   4.096   2.270   5.662
 1342SOL     OW 5922   5.026   8.010  12.240
 1342SOL    HW1 5923   4.973   7.964  12.304
 1342SOL    HW2 5924   5.041   8.097  12.279
 1343SOL     OW 5925  11.129  12.107  12.396
 1343SOL    HW1 5926  11.194  12.164  12.356
 1343SOL    HW2 5927  11.112  12.040  12.331
 1344SOL     OW 5928   4.204   4.934   5.900
 1344SOL    HW1 5929   4.122   4.981   5.900
 1344SOL    HW2 5930   4.205   4.885   5.818
 1345SOL     OW 5931   5.933   1.155  14.116
 1345SOL    HW1 5932   5.974   1.068  14.119
 1345SOL    HW2 5933   6.000   1.212  14.079
 1346SOL     OW 5934  13.350   0.223  10.989
 1346SOL    HW1 5935  13.398   0.203  11.069
 1346SOL    HW2 5936  13.262   0.248  11.019
 1347SOL     OW 5937  11.177  13.724  14.495
 1347SOL    HW1 5938  11.161  13.653  14.432
 1347SOL    HW2 5939  11.192  13.801  14.441
 1348SOL     OW 5940   8.508   6.271   5.268
 1348SOL    HW1 5941   8.459   6.335   5.216
 1348SOL    HW2 5942   8.577   6.323   5.310
 1349SOL     OW 5943   0.416   4.516  11.940
 1349SOL    HW1 5944   0.483   4.467  11.893
 1349SOL    HW2 5945   0.433   4.608  11.918
 1350SOL     OW 5946   5.867  11.016   8.298
 1350SOL    HW1 5947   5.799  11.065   8.251
 1350SOL    HW2 5948   5.883  11.066   8.377
 1351SOL     OW 5949  10.599  12.756   9.928
 1351SOL    HW1 5950  10.662  12.829   9.925
 1351SOL    HW2 5951  10.615  12.715  10.013
 1352SOL     OW 5952   7.926   0.826  11.880
 1352SOL    HW1 5953   8.016   0.800  11.899
 1352SOL    HW2 5954   7.914   0.908  11.929
 1353SOL     OW 5955  11.246  10.544   4.750
 1353SOL    HW1 5956  11.230  10.533   4.844
 1353SOL    HW2 5957  11.338  10.570   4.744
 1354SOL     OW 5958   9.302   1.364  10.039
 1354SOL    HW1 5959   9.257   1.439  10.000
 1354SOL    HW2 5960   9.381   1.401  10.078
 1355SOL     OW 5961  12.456   0.096   1.617
 1355SOL    HW1 5962  12.413   0.057   1.693
 1355SOL    HW2 5963  12.528   0.146   1.653
 1356SOL     OW 5964   5.415  12.098   9.862
 1356SOL    HW1 5965   5.413  12.187   9.827
 1356SOL    HW2 5966   5.323  12.074   9.871
 1357SOL     OW 5967   7.202  10.197  11.910
 1357SOL    HW1 5968   7.125  10.241  11.874
 1357SOL    HW2 5969   7.246  10.161  11.833
 1358SOL     OW 5970   5.752  13.773   3.451
 1358SOL    HW1 5971   5.833  13.740   3.411
 1358SOL    HW2 5972   5.760  13.868   3.448
 1359SOL     OW 5973  10.682  13.055  13.013
 1359SOL    HW1 5974  10.605  13.096  12.972
 1359SOL    HW2 5975  10.750  13.122  13.008
 1360SOL     OW 5976   8.937  10.829   2.836
 1360SOL    HW1 5977   8.865  10.766   2.840
 1360SOL    HW2 5978   8.970  10.822   2.746
 1361SOL     OW 5979  11.630   7.067   1.284
 1361SOL    HW1 5980  11.673   7.151   1.265
 1361SOL    HW2 5981  11.555   7.090   1.339
 1362SOL     OW 5982  11.445   1.178  10.399
 1362SOL    HW1 5983  11.409   1.091  10.415
 1362SOL    HW2 5984  11.498   1.197  10.477
 1363SOL     OW 5985  11.009   2.633  10.997
 1363SOL    HW1 5986  10.990   2.564  10.934
 1363SOL    HW2 5987  11.086   2.678  10.962
 1364SOL     OW 5988   1.652   7.530   7.747
 1364SOL    HW1 5989   1.592   7.499   7.815
 1364SOL    HW2 5990   1.621   7.618   7.727
 1365SOL     OW 5991   1.851  11.370   3.343
 1365SOL    HW1 5992   1.831  11.461   3.317
 1365SOL    HW2 5993   1.931  11.349   3.295
 1366SOL     OW 5994  12.592   1.882  13.658
 1366SOL    HW1 5995  12.606   1.792  13.685
 1366SOL    HW2 5996  12.593   1.932  13.740
 1367SOL     OW 5997  10.073  10.275  12.022
 1367SOL    HW1 5998  10.003  10.294  12.084
 1367SOL    HW2 5999  10.048  10.322  11.943
 1368SOL     OW 6000   7.671  10.596  14.601
 1368SOL    HW1 6001   7.708  10.511  14.580
 1368SOL    HW2 6002   7.628  10.625  14.520
 1369SOL     OW 6003  13.010   1.575   4.302
 1369SOL    HW1 6004  13.060   1.627   4.238
 1369SOL    HW2 6005  12.982   1.498   4.252
 1370SOL     OW 6006   6.679   4.865  11.879
 1370SOL    HW1 6007   6.597   4.892  11.837
 1370SOL    HW2 6008   6.674   4.903  11.967
 1371SOL     OW 6009   6.896  13.910   8.764
 1371SOL    HW1 6010   6.970  13.857   8.793
 1371SOL    HW2 6011   6.913  13.997   8.800
 1372SOL     OW 6012  10.322   3.502   8.333
 1372SOL    HW1 6013  10.348   3.491   8.425
 1372SOL    HW2 6014  10.261   3.430   8.317
 1373SOL     OW 6015   6.067  10.804   5.025
 1373SOL    HW1 6016   6.018  10.835   5.101
 1373SOL    HW2 6017   6.061  10.709   5.030
 1374SOL     OW 6018   4.374  11.363   2.947
 1374SOL    HW1 6019   4.449  11.372   3.006
 1374SOL    HW2 6020   4.403  11.402   2.865
 1375SOL     OW 6021   5.351   5.673   5.141
 1375SOL    HW1 6022   5.445   5.681   5.161
 1375SOL    HW2 6023   5.327   5.759   5.107
 1376SOL     OW 6024   8.978   6.205   4.176
 1376SOL    HW1 6025   8.909   6.140   4.174
 1376SOL    HW2 6026   9.059   6.154   4.185
 1377SOL     OW 6027  10.549  14.760  13.158
 1377SOL    HW1 6028  10.567  14.817  13.083
 1377SOL    HW2 6029  10.543  14.672  13.120
 1378SOL     OW 6030   2.913   7.560   8.035
 1378SOL    HW1 6031   2.996   7.548   8.082
 1378SOL    HW2 6032   2.905   7.483   7.980
 1379SOL     OW 6033   6.863   7.515   6.438
 1379SOL    HW1 6034   6.952   7.538   6.413
 1379SOL    HW2 6035   6.852   7.548   6.527
 1380SOL     OW 6036   2.949   0.384   6.284
 1380SOL    HW1 6037   2.974   0.302   6.326
 1380SOL    HW2 6038   2.903   0.358   6.205
 1381SOL     OW 6039   8.911   4.271   8.871
 1381SOL    HW1 6040   8.951   4.187   8.848
 1381SOL    HW2 6041   8.956   4.297   8.952
 1382SOL     OW 6042  12.595   4.911   5.643
 1382SOL    HW1 6043  12.542   4.847   5.690
 1382SOL    HW2 6044  12.552   4.919   5.558
 1383SOL     OW 6045  10.032  12.986   7.496
 1383SOL    HW1 6046   9.970  12.944   7.557
 1383SOL    HW2 6047  10.054  13.069   7.539
 1384SOL     OW 6048  11.225   1.963  12.615
 1384SOL    HW1 6049  11.164   1.977  12.688
 1384SOL    HW2 6050  11.271   1.882  12.637
 1385SOL     OW 6051   2.548  13.974   8.315
 1385SOL    HW1 6052   2.479  13.907   8.312
 1385SOL    HW2 6053   2.508  14.052   8.276
 1386SOL     OW 6054   9.666   2.248   2.739
 1386SOL    HW1 6055   9.718   2.202   2.673
 1386SOL    HW2 6056   9.707   2.223   2.822
 1387SOL     OW 6057   3.382   7.621   0.774
 1387SOL    HW1 6058   3.355   7.674   0.698
 1387SOL    HW2 6059   3.305   7.567   0.794
 1388SOL     OW 6060   8.681   0.579   8.598
 1388SOL    HW1 6061   8.673   0.544   8.509
 1388SOL    HW2 6062   8.656   0.671   8.588
 1389SOL     OW 6063   9.968   5.157   1.217
 1389SOL    HW1 6064   9.986   5.065   1.197
 1389SOL    HW2 6065   9.918   5.155   1.299
 1390SOL     OW 6066   3.657   0.510   6.910
 1390SOL    HW1 6067   3.582   0.563   6.935
 1390SOL    HW2 6068   3.688   0.550   6.828
 1391SOL     OW 6069   1.247   8.067  12.449
 1391SOL    HW1 6070   1.237   8.037  12.359
 1391SOL    HW2 6071   1.182   8.137  12.458
 1392SOL     OW 6072   2.732   2.632   9.357
 1392SOL    HW1 6073   2.719   2.726   9.342
 1392SOL    HW2 6074   2.716   2.621   9.451
 1393SOL     OW 6075   8.267  10.738  10.138
 1393SOL    HW1 6076   8.360  10.719  10.134
 1393SOL    HW2 6077   8.241  10.717  10.228
 1394SOL     OW 6078   9.494   0.192   5.828
 1394SOL    HW1 6079   9.530   0.212   5.742
 1394SOL    HW2 6080   9.544   0.116   5.858
 1395SOL     OW 6081   1.568  14.518   2.865
 1395SOL    HW1 6082   1.590  14.425   2.864
 1395SOL    HW2 6083   1.624  14.557   2.798
 1396SOL     OW 6084  14.099  12.266   0.723
 1396SOL    HW1 6085  14.010  12.251   0.755
 1396SOL    HW2 6086  14.141  12.180   0.732
 1397SOL     OW 6087  10.272   0.316   3.902
 1397SOL    HW1 6088  10.364   0.306   3.926
 1397SOL    HW2 6089  10.258   0.252   3.832
 1398SOL     OW 6090  11.385   3.908  13.379
 1398SOL    HW1 6091  11.478   3.895  13.399
 1398SOL    HW2 6092  11.348   3.943  13.460
 1399SOL     OW 6093   8.469   0.239   3.922
 1399SOL    HW1 6094   8.533   0.309   3.912
 1399SOL    HW2 6095   8.480   0.185   3.843
 1400SOL     OW 6096  13.503  11.966   6.076
 1400SOL    HW1 6097  13.475  12.049   6.038
 1400SOL    HW2 6098  13.547  11.990   6.158
 1401SOL     OW 6099  12.706   9.059   2.920
 1401SOL    HW1 6100  12.707   9.137   2.976
 1401SOL    HW2 6101  12.640   9.079   2.853
 1402SOL     OW 6102   4.379   0.104  10.278
 1402SOL    HW1 6103   4.409   0.063  10.360
 1402SOL    HW2 6104   4.312   0.166  10.305
 1403SOL     OW 6105   3.882  13.403   1.557
 1403SOL    HW1 6106   3.872  13.406   1.462
 1403SOL    HW2 6107   3.971  13.435   1.573
 1404SOL     OW 6108  13.706  11.819   6.664
 1404SOL    HW1 6109  13.749  11.887   6.612
 1404SOL    HW2 6110  13.663  11.763   6.599
 1405SOL     OW 6111   7.119  11.126   9.463
 1405SOL    HW1 6112   7.172  11.080   9.399
 1405SOL    HW2 6113   7.137  11.081   9.546
 1406SOL     OW 6114   9.858  10.253   9.541
 1406SOL    HW1 6115   9.864  10.348   9.555
 1406SOL    HW2 6116   9.777  10.227   9.585
 1407SOL     OW 6117  14.376   3.064   1.313
 1407SOL    HW1 6118  14.451   3.015   1.281
 1407SOL    HW2 6119  14.312   2.998   1.338
 1408SOL     OW 6120   0.893   7.228   7.720
 1408SOL    HW1 6121   0.849   7.310   7.698
 1408SOL    HW2 6122   0.829   7.160   7.697
 1409SOL     OW 6123   1.736   6.604   9.642
 1409SOL    HW1 6124   1.795   6.663   9.595
 1409SOL    HW2 6125   1.756   6.618   9.735
 1410SOL     OW 6126   2.640   8.283   5.014
 1410SOL    HW1 6127   2.568   8.274   4.952
 1410SOL    HW2 6128   2.696   8.207   4.997
 1411SOL     OW 6129   5.375   3.069  12.359
 1411SOL    HW1 6130   5.448   3.115  12.318
 1411SOL    HW2 6131   5.403   3.056  12.450
 1412SOL     OW 6132   9.262   6.067  10.136
 1412SOL    HW1 6133   9.255   6.130  10.208
 1412SOL    HW2 6134   9.191   6.005  10.152
 1413SOL     OW 6135   6.246   8.705   6.846
 1413SOL    HW1 6136   6.303   8.782   6.840
 1413SOL    HW2 6137   6.297   8.635   6.806
 1414SOL     OW 6138  11.003   1.149  12.737
 1414SOL    HW1 6139  11.051   1.103  12.668
 1414SOL    HW2 6140  10.946   1.082  12.775
 1415SOL     OW 6141   0.441  12.979  11.617
 1415SOL    HW1 6142   0.495  13.040  11.668
 1415SOL    HW2 6143   0.367  13.032  11.588
 1416SOL     OW 6144   4.144  13.888  11.868
 1416SOL    HW1 6145   4.164  13.818  11.806
 1416SOL    HW2 6146   4.143  13.845  11.953
 1417SOL     OW 6147   3.913  11.729   7.935
 1417SOL    HW1 6148   3.936  11.661   7.872
 1417SOL    HW2 6149   3.819  11.716   7.952
 1418SOL     OW 6150   4.588   6.966   1.326
 1418SOL    HW1 6151   4.586   7.013   1.243
 1418SOL    HW2 6152   4.551   6.880   1.306
 1419SOL     OW 6153   4.535   8.914  13.224
 1419SOL    HW1 6154   4.627   8.890  13.213
 1419SOL    HW2 6155   4.496   8.839  13.268
 1420SOL     OW 6156   0.731   1.774  14.753
 1420SOL    HW1 6157   0.771   1.791  14.668
 1420SOL    HW2 6158   0.645   1.815  14.749
 1421SOL     OW 6159   9.977   0.224  12.990
 1421SOL    HW1 6160   9.953   0.303  13.039
 1421SOL    HW2 6161   9.944   0.152  13.044
 1422SOL     OW 6162   5.900   1.962   4.141
 1422SOL    HW1 6163   5.826   1.947   4.082
 1422SOL    HW2 6164   5.875   1.920   4.223
 1423SOL     OW 6165   2.862  14.565   0.879
 1423SOL    HW1 6166   2.941  14.582   0.828
 1423SOL    HW2 6167   2.840  14.649   0.919
 1424SOL     OW 6168   6.186  13.873   5.322
 1424SOL    HW1 6169   6.216  13.952   5.278
 1424SOL    HW2 6170   6.098  13.858   5.289
 1425SOL     OW 6171   0.263   1.036   7.472
 1425SOL    HW1 6172   0.355   1.039   7.497
 1425SOL    HW2 6173   0.261   1.069   7.382
 1426SOL     OW 6174   7.875  12.061   3.007
 1426SOL    HW1 6175   7.862  11.996   3.076
 1426SOL    HW2 6176   7.862  12.145   3.050
 1427SOL     OW 6177   6.713   0.858  13.724
 1427SOL    HW1 6178   6.678   0.938  13.763
 1427SOL    HW2 6179   6.799   0.884  13.690
 1428SOL     OW 6180  12.157  11.862   2.260
 1428SOL    HW1 6181  12.131  11.943   2.215
 1428SOL    HW2 6182  12.107  11.863   2.341
 1429SOL     OW 6183   5.287   9.620   0.725
 1429SOL    HW1 6184   5.279   9.714   0.709
 1429SOL    HW2 6185   5.286   9.612   0.821
 1430SOL     OW 6186   0.711   6.179   5.469
 1430SOL    HW1 6187   0.639   6.234   5.502
 1430SOL    HW2 6188   0.762   6.157   5.547
 1431SOL     OW 6189  13.118   2.019   3.416
 1431SOL    HW1 6190  13.092   2.047   3.328
 1431SOL    HW2 6191  13.214   2.013   3.412
 1432SOL     OW 6192   5.001   1.101   8.527
 1432SOL    HW1 6193   5.072   1.042   8.501
 1432SOL    HW2 6194   5.037   1.153   8.598
 1433SOL     OW 6195  14.692  13.765   4.952
 1433SOL    HW1 6196  14.755  13.808   4.894
 1433SOL    HW2 6197  14.742  13.745   5.031
 1434SOL     OW 6198   0.694  14.831   3.780
 1434SOL    HW1 6199   0.737   0.013   3.836
 1434SOL    HW2 6200   0.607  14.820   3.819
 1435SOL     OW 6201  11.064   2.390   9.701
 1435SOL    HW1 6202  11.093   2.317   9.645
 1435SOL    HW2 6203  10.992   2.353   9.752
 1436SOL     OW 6204   0.347  14.102  12.162
 1436SOL    HW1 6205   0.380  14.073  12.077
 1436SOL    HW2 6206   0.350  14.198  12.158
 1437SOL     OW 6207   7.815  11.025   8.111
 1437SOL    HW1 6208   7.779  11.015   8.022
 1437SOL    HW2 6209   7.821  10.936   8.144
 1438SOL     OW 6210   1.452   2.611   6.011
 1438SOL    HW1 6211   1.512   2.621   5.937
 1438SOL    HW2 6212   1.509   2.585   6.084
 1439SOL     OW 6213   8.901  14.628   0.927
 1439SOL    HW1 6214   8.858  14.711   0.946
 1439SOL    HW2 6215   8.830  14.566   0.912
 1440SOL     OW 6216  10.446  10.362  10.420
 1440SOL    HW1 6217  10.536  10.385  10.442
 1440SOL    HW2 6218  10.405  10.341  10.505
 1441SOL     OW 6219  14.084   8.885   0.421
 1441SOL    HW1 6220  14.068   8.793   0.400
 1441SOL    HW2 6221  14.116   8.923   0.339
 1442SOL     OW 6222  11.480   8.522  13.391
 1442SOL    HW1 6223  11.553   8.481  13.344
 1442SOL    HW2 6224  11.448   8.453  13.450
 1443SOL     OW 6225   4.332   1.594   8.988
 1443SOL    HW1 6226   4.255   1.641   9.021
 1443SOL    HW2 6227   4.327   1.605   8.893
 1444SOL     OW 6228  14.525   1.375  13.805
 1444SOL    HW1 6229  14.506   1.282  13.802
 1444SOL    HW2 6230  14.546   1.392  13.897
 1445SOL     OW 6231   5.982   6.498  12.497
 1445SOL    HW1 6232   5.948   6.444  12.426
 1445SOL    HW2 6233   5.915   6.565  12.510
 1446SOL     OW 6234   7.088   0.763   4.706
 1446SOL    HW1 6235   7.174   0.790   4.735
 1446SOL    HW2 6236   7.046   0.843   4.675
 1447SOL     OW 6237   5.391  13.712   2.613
 1447SOL    HW1 6238   5.399  13.721   2.518
 1447SOL    HW2 6239   5.369  13.620   2.627
 1448SOL     OW 6240   4.471  10.932   5.617
 1448SOL    HW1 6241   4.522  10.854   5.638
 1448SOL    HW2 6242   4.386  10.898   5.588
 1449SOL     OW 6243   9.939   3.748   4.567
 1449SOL    HW1 6244   9.986   3.686   4.623
 1449SOL    HW2 6245   9.856   3.705   4.547
 1450SOL     OW 6246   7.798  14.320   1.281
 1450SOL    HW1 6247   7.717  14.331   1.331
 1450SOL    HW2 6248   7.810  14.404   1.237
 1451SOL     OW 6249  11.044   4.528   4.151
 1451SOL    HW1 6250  10.965   4.573   4.120
 1451SOL    HW2 6251  11.102   4.599   4.180
 1452SOL     OW 6252   5.440   6.661  10.387
 1452SOL    HW1 6253   5.489   6.671  10.306
 1452SOL    HW2 6254   5.367   6.604  10.364
 1453SOL     OW 6255   8.341  12.849   3.389
 1453SOL    HW1 6256   8.276  12.783   3.365
 1453SOL    HW2 6257   8.373  12.820   3.475
 1454SOL     OW 6258   2.355   4.557  13.630
 1454SOL    HW1 6259   2.363   4.461  13.632
 1454SOL    HW2 6260   2.408   4.586  13.705
 1455SOL     OW 6261   0.676   6.295   1.362
 1455SOL    HW1 6262   0.641   6.207   1.377
 1455SOL    HW2 6263   0.756   6.298   1.414
 1456SOL     OW 6264   0.714  10.501   8.196
 1456SOL    HW1 6265   0.636  10.476   8.245
 1456SOL    HW2 6266   0.761  10.561   8.253
 1457SOL     OW 6267   1.540  13.990   8.306
 1457SOL    HW1 6268   1.587  14.071   8.286
 1457SOL    HW2 6269   1.448  14.017   8.312
 1458SOL     OW 6270   5.759  14.236   7.679
 1458SOL    HW1 6271   5.829  14.183   7.718
 1458SOL    HW2 6272   5.801  14.320   7.661
 1459SOL     OW 6273   5.560   2.163   3.831
 1459SOL    HW1 6274   5.640   2.211   3.810
 1459SOL    HW2 6275   5.546   2.105   3.757
 1460SOL     OW 6276   1.609   6.499   3.533
 1460SOL    HW1 6277   1.615   6.514   3.439
 1460SOL    HW2 6278   1.515   6.494   3.551
 1461SOL     OW 6279   3.359   8.008   4.024
 1461SOL    HW1 6280   3.443   8.047   4.047
 1461SOL    HW2 6281   3.359   7.922   4.067
 1462SOL     OW 6282  12.244   7.702   9.253
 1462SOL    HW1 6283  12.157   7.664   9.253
 1462SOL    HW2 6284  12.229   7.797   9.255
 1463SOL     OW 6285   6.647   4.842   8.810
 1463SOL    HW1 6286   6.578   4.816   8.870
 1463SOL    HW2 6287   6.639   4.937   8.803
 1464SOL     OW 6288   4.475  10.962   3.983
 1464SOL    HW1 6289   4.530  10.953   3.905
 1464SOL    HW2 6290   4.538  10.973   4.055
 1465SOL     OW 6291   3.328  12.823   7.496
 1465SOL    HW1 6292   3.318  12.752   7.432
 1465SOL    HW2 6293   3.245  12.871   7.492
 1466SOL     OW 6294  12.398  12.344   0.622
 1466SOL    HW1 6295  12.405  12.298   0.539
 1466SOL    HW2 6296  12.430  12.282   0.687
 1467SOL     OW 6297   6.124  12.813   3.444
 1467SOL    HW1 6298   6.158  12.845   3.360
 1467SOL    HW2 6299   6.085  12.889   3.485
 1468SOL     OW 6300   8.161  13.044  14.621
 1468SOL    HW1 6301   8.204  13.129  14.622
 1468SOL    HW2 6302   8.190  13.004  14.539
 1469SOL     OW 6303   2.310   2.990  13.281
 1469SOL    HW1 6304   2.367   3.028  13.348
 1469SOL    HW2 6305   2.305   3.057  13.213
 1470SOL     OW 6306   6.905  10.976   4.257
 1470SOL    HW1 6307   6.895  10.881   4.249
 1470SOL    HW2 6308   6.967  10.988   4.329
 1471SOL     OW 6309   1.632   8.973   8.873
 1471SOL    HW1 6310   1.571   8.916   8.826
 1471SOL    HW2 6311   1.616   8.954   8.965
 1472SOL     OW 6312  12.386   0.866   7.345
 1472SOL    HW1 6313  12.440   0.920   7.287
 1472SOL    HW2 6314  12.338   0.808   7.286
 1473SOL     OW 6315  11.301   2.796  13.466
 1473SOL    HW1 6316  11.389   2.820  13.435
 1473SOL    HW2 6317  11.285   2.710  13.429
 1474SOL     OW 6318   0.398  12.381   0.776
 1474SOL    HW1 6319   0.429  12.408   0.863
 1474SOL    HW2 6320   0.458  12.313   0.749
 1475SOL     OW 6321   7.554  11.219  10.601
 1475SOL    HW1 6322   7.544  11.211  10.507
 1475SOL    HW2 6323   7.465  11.221  10.635
 1476SOL     OW 6324   4.448  10.576   3.874
 1476SOL    HW1 6325   4.493  10.492   3.866
 1476SOL    HW2 6326   4.514  10.642   3.852
 1477SOL     OW 6327   3.854  14.654  12.656
 1477SOL    HW1 6328   3.769  14.699  12.649
 1477SOL    HW2 6329   3.838  14.582  12.717
 1478SOL     OW 6330   9.248   3.226   2.275
 1478SOL    HW1 6331   9.266   3.135   2.300
 1478SOL    HW2 6332   9.175   3.220   2.214
 1479SOL     OW 6333   4.295  10.574  11.122
 1479SOL    HW1 6334   4.264  10.488  11.151
 1479SOL    HW2 6335   4.319  10.561  11.031
 1480SOL     OW 6336   6.034   6.197   2.357
 1480SOL    HW1 6337   6.106   6.243   2.314
 1480SOL    HW2 6338   6.033   6.110   2.318
 1481SOL     OW 6339   4.192   6.864   2.901
 1481SOL    HW1 6340   4.254   6.909   2.844
 1481SOL    HW2 6341   4.148   6.934   2.949
 1482SOL     OW 6342  10.854   5.381   0.022
 1482SOL    HW1 6343  10.942   5.345   0.034
 1482SOL    HW2 6344  10.795   5.313   0.055
 1483SOL     OW 6345   6.168  13.504  11.156
 1483SOL    HW1 6346   6.141  13.575  11.098
 1483SOL    HW2 6347   6.258  13.485  11.131
 1484SOL     OW 6348   5.400   2.390   3.765
 1484SOL    HW1 6349   5.327   2.451   3.753
 1484SOL    HW2 6350   5.359   2.311   3.802
 1485SOL     OW 6351  13.007  13.204  11.111
 1485SOL    HW1 6352  12.942  13.266  11.079
 1485SOL    HW2 6353  13.086  13.257  11.122
 1486SOL     OW 6354   3.435  11.059  12.533
 1486SOL    HW1 6355   3.435  11.089  12.624
 1486SOL    HW2 6356   3.412  10.966  12.539
 1487SOL     OW 6357  11.919   0.416   2.266
 1487SOL    HW1 6358  11.993   0.463   2.226
 1487SOL    HW2 6359  11.842   0.466   2.239
 1488SOL     OW 6360   0.947   3.877  10.727
 1488SOL    HW1 6361   0.971   3.830  10.647
 1488SOL    HW2 6362   0.966   3.968  10.707
 1489SOL     OW 6363   4.479   5.189   4.125
 1489SOL    HW1 6364   4.541   5.117   4.112
 1489SOL    HW2 6365   4.489   5.243   4.046
 1490SOL     OW 6366  12.226   3.016   1.751
 1490SOL    HW1 6367  12.261   2.931   1.779
 1490SOL    HW2 6368  12.131   3.007   1.760
 1491SOL     OW 6369  11.628  13.881   3.405
 1491SOL    HW1 6370  11.561  13.818   3.431
 1491SOL    HW2 6371  11.706  13.828   3.389
 1492SOL     OW 6372   0.094   0.797   2.008
 1492SOL    HW1 6373   0.135   0.715   2.036
 1492SOL    HW2 6374   0.167   0.853   1.982
 1493SOL     OW 6375   6.042  13.454   9.897
 1493SOL    HW1 6376   6.116  13.445   9.958
 1493SOL    HW2 6377   6.071  13.520   9.834
 1494SOL     OW 6378   6.651  14.756  13.069
 1494SOL    HW1 6379   6.639  14.850  13.060
 1494SOL    HW2 6380   6.571  14.718  13.033
 1495SOL     OW 6381   3.643   1.528   7.944
 1495SOL    HW1 6382   3.669   1.487   8.026
 1495SOL    HW2 6383   3.559   1.489   7.922
 1496SOL     OW 6384   6.009   4.005  10.147
 1496SOL    HW1 6385   5.949   4.028  10.075
 1496SOL    HW2 6386   5.977   3.920  10.179
 1497SOL     OW 6387  13.379  12.157   6.963
 1497SOL    HW1 6388  13.407  12.111   6.884
 1497SOL    HW2 6389  13.460  12.191   7.001
 1498SOL     OW 6390  14.430   6.088   9.458
 1498SOL    HW1 6391  14.370   6.107   9.530
 1498SOL    HW2 6392  14.447   6.173   9.418
 1499SOL     OW 6393   0.684  10.853   3.122
 1499SOL    HW1 6394   0.670  10.935   3.170
 1499SOL    HW2 6395   0.602  10.839   3.074
 1500SOL     OW 6396  14.839   1.441   5.004
 1500SOL    HW1 6397  14.831   1.346   5.016
 1500SOL    HW2 6398   0.036   1.464   5.052
 1501SOL     OW 6399  11.170  12.885   0.118
 1501SOL    HW1 6400  11.079  12.859   0.132
 1501SOL    HW2 6401  11.220  12.837   0.185
 1502SOL     OW 6402  12.752   7.624  10.074
 1502SOL    HW1 6403  12.842   7.597  10.055
 1502SOL    HW2 6404  12.761   7.702  10.129
 1503SOL     OW 6405  10.747   7.137   0.118
 1503SOL    HW1 6406  10.765   7.215   0.171
 1503SOL    HW2 6407  10.666   7.158   0.071
 1504SOL     OW 6408  12.366   8.213   8.633
 1504SOL    HW1 6409  12.398   8.297   8.665
 1504SOL    HW2 6410  12.272   8.215   8.649
 1505SOL     OW 6411  11.245  14.046   8.120
 1505SOL    HW1 6412  11.256  13.961   8.077
 1505SOL    HW2 6413  11.240  14.109   8.048
 1506SOL     OW 6414  14.775   7.762  12.664
 1506SOL    HW1 6415  14.739   7.714  12.738
 1506SOL    HW2 6416  14.699   7.789  12.613
 1507SOL     OW 6417   8.083   7.244  11.763
 1507SOL    HW1 6418   8.144   7.260  11.691
 1507SOL    HW2 6419   8.000   7.281  11.733
 1508SOL     OW 6420  13.947   0.676   6.147
 1508SOL    HW1 6421  14.041   0.683   6.130
 1508SOL    HW2 6422  13.913   0.625   6.072
 1509SOL     OW 6423  12.235   8.724   9.637
 1509SOL    HW1 6424  12.321   8.761   9.659
 1509SOL    HW2 6425  12.202   8.779   9.567
 1510SOL     OW 6426   0.232   2.515   3.017
 1510SOL    HW1 6427   0.296   2.538   2.949
 1510SOL    HW2 6428   0.191   2.435   2.984
 1511SOL     OW 6429   6.030  13.555  14.011
 1511SOL    HW1 6430   6.050  13.638  13.968
 1511SOL    HW2 6431   6.021  13.492  13.940
 1512SOL     OW 6432   9.625  11.476  14.623
 1512SOL    HW1 6433   9.644  11.388  14.591
 1512SOL    HW2 6434   9.668  11.479  14.709
 1513SOL     OW 6435   1.991   6.098   6.236
 1513SOL    HW1 6436   1.981   6.157   6.160
 1513SOL    HW2 6437   1.912   6.114   6.288
 1514SOL     OW 6438  12.782   7.019   0.207
 1514SOL    HW1 6439  12.830   7.087   0.255
 1514SOL    HW2 6440  12.733   7.067   0.140
 1515SOL     OW 6441   3.476  12.606  13.852
 1515SOL    HW1 6442   3.522  12.549  13.914
 1515SOL    HW2 6443   3.394  12.561  13.835
 1516SOL     OW 6444   9.607  12.238  11.105
 1516SOL    HW1 6445   9.520  12.229  11.066
 1516SOL    HW2 6446   9.600  12.194  11.190
 1517SOL     OW 6447   6.333   1.186  14.132
 1517SOL    HW1 6448   6.277   1.151  14.063
 1517SOL    HW2 6449   6.290   1.266  14.160
 1518SOL     OW 6450   0.972   9.948   1.601
 1518SOL    HW1 6451   0.934  10.017   1.546
 1518SOL    HW2 6452   1.020   9.995   1.669
 1519SOL     OW 6453   6.923   7.493   6.003
 1519SOL    HW1 6454   7.002   7.528   5.962
 1519SOL    HW2 6455   6.954   7.450   6.082
 1520SOL     OW 6456  11.884   0.043   7.347
 1520SOL    HW1 6457  11.891   0.138   7.357
 1520SOL    HW2 6458  11.890   0.008   7.436
 1521SOL     OW 6459   6.238   7.076   9.246
 1521SOL    HW1 6460   6.270   6.987   9.236
 1521SOL    HW2 6461   6.312   7.123   9.285
 1522SOL     OW 6462   6.561   3.752  10.845
 1522SOL    HW1 6463   6.528   3.678  10.795
 1522SOL    HW2 6464   6.544   3.729  10.936
 1523SOL     OW 6465  13.661   3.416   7.820
 1523SOL    HW1 6466  13.730   3.450   7.764
 1523SOL    HW2 6467  13.699   3.416   7.908
 1524SOL     OW 6468   2.586  11.406  13.582
 1524SOL    HW1 6469   2.533  11.428  13.659
 1524SOL    HW2 6470   2.601  11.312  13.589
 1525SOL     OW 6471   2.653   8.945  11.768
 1525SOL    HW1 6472   2.576   8.998  11.746
 1525SOL    HW2 6473   2.680   8.906  11.685
 1526SOL     OW 6474   9.653   3.516  14.062
 1526SOL    HW1 6475   9.621   3.502  13.973
 1526SOL    HW2 6476   9.603   3.455  14.116
 1527SOL     OW 6477   2.304   3.560   4.534
 1527SOL    HW1 6478   2.397   3.580   4.539
 1527SOL    HW2 6479   2.299   3.485   4.475
 1528SOL     OW 6480   7.889   3.551   1.283
 1528SOL    HW1 6481   7.830   3.477   1.299
 1528SOL    HW2 6482   7.940   3.524   1.206
 1529SOL     OW 6483   4.811   4.886   7.984
 1529SOL    HW1 6484   4.896   4.926   8.006
 1529SOL    HW2 6485   4.752   4.961   7.974
 1530SOL     OW 6486   3.445  14.686   4.918
 1530SOL    HW1 6487   3.500  14.725   4.850
 1530SOL    HW2 6488   3.359  14.677   4.878
 1531SOL     OW 6489   7.897   0.201  12.462
 1531SOL    HW1 6490   7.855   0.251  12.392
 1531SOL    HW2 6491   7.851   0.117  12.462
 1532SOL     OW 6492   4.434   0.908  12.491
 1532SOL    HW1 6493   4.522   0.890  12.523
 1532SOL    HW2 6494   4.386   0.827  12.507
 1533SOL     OW 6495  12.094  11.347   3.446
 1533SOL    HW1 6496  12.175  11.301   3.471
 1533SOL    HW2 6497  12.028  11.315   3.507
 1534SOL     OW 6498  12.750  10.810   6.729
 1534SOL    HW1 6499  12.768  10.827   6.821
 1534SOL    HW2 6500  12.804  10.734   6.708
 1535SOL     OW 6501  13.014  11.436   6.729
 1535SOL    HW1 6502  13.005  11.530   6.741
 1535SOL    HW2 6503  13.012  11.400   6.818
 1536SOL     OW 6504   0.778   2.079  10.120
 1536SOL    HW1 6505   0.715   2.095  10.190
 1536SOL    HW2 6506   0.727   2.092  10.039
 1537SOL     OW 6507   8.692  12.769  12.604
 1537SOL    HW1 6508   8.737  12.730  12.678
 1537SOL    HW2 6509   8.668  12.695  12.548
 1538SOL     OW 6510  11.878  14.113   6.022
 1538SOL    HW1 6511  11.968  14.118   5.990
 1538SOL    HW2 6512  11.868  14.024   6.053
 1539SOL     OW 6513  11.970  11.076   5.758
 1539SOL    HW1 6514  11.928  10.998   5.795
 1539SOL    HW2 6515  11.897  11.134   5.735
 1540SOL     OW 6516   8.769   7.391  12.053
 1540SOL    HW1 6517   8.801   7.464  12.000
 1540SOL    HW2 6518   8.844   7.331  12.059
 1541SOL     OW 6519   6.786   6.681  12.577
 1541SOL    HW1 6520   6.870   6.722  12.558
 1541SOL    HW2 6521   6.777   6.614  12.510
 1542SOL     OW 6522  14.103  14.692  13.739
 1542SOL    HW1 6523  14.154  14.661  13.814
 1542SOL    HW2 6524  14.164  14.687  13.665
 1543SOL     OW 6525   0.186   5.992   1.159
 1543SOL    HW1 6526   0.128   5.917   1.168
 1543SOL    HW2 6527   0.175   6.020   1.068
 1544SOL     OW 6528  11.680  14.805   8.865
 1544SOL    HW1 6529  11.707  14.802   8.774
 1544SOL    HW2 6530  11.709  14.721   8.901
 1545SOL     OW 6531   0.620   8.470  14.304
 1545SOL    HW1 6532   0.667   8.532  14.360
 1545SOL    HW2 6533   0.583   8.406  14.365
 1546SOL     OW 6534   9.314  12.922   9.926
 1546SOL    HW1 6535   9.288  12.851   9.866
 1546SOL    HW2 6536   9.409  12.924   9.921
 1547SOL     OW 6537   5.618   4.042   2.519
 1547SOL    HW1 6538   5.610   4.019   2.426
 1547SOL    HW2 6539   5.681   3.978   2.553
 1548SOL     OW 6540  12.159   0.726  13.219
 1548SOL    HW1 6541  12.077   0.725  13.268
 1548SOL    HW2 6542  12.137   0.688  13.134
 1549SOL     OW 6543   9.545   1.113  13.998
 1549SOL    HW1 6544   9.639   1.110  14.017
 1549SOL    HW2 6545   9.531   1.200  13.962
 1550SOL     OW 6546   6.473   2.172   4.087
 1550SOL    HW1 6547   6.388   2.160   4.044
 1550SOL    HW2 6548   6.457   2.146   4.178
 1551SOL     OW 6549  10.414   4.360   5.027
 1551SOL    HW1 6550  10.407   4.327   5.117
 1551SOL    HW2 6551  10.326   4.353   4.992
 1552SOL     OW 6552   3.332  14.369   0.554
 1552SOL    HW1 6553   3.391  14.432   0.597
 1552SOL    HW2 6554   3.276  14.337   0.625
 1553SOL     OW 6555   9.323   2.877   7.890
 1553SOL    HW1 6556   9.344   2.787   7.865
 1553SOL    HW2 6557   9.403   2.910   7.930
 1554SOL     OW 6558  10.372  13.805   0.243
 1554SOL    HW1 6559  10.366  13.828   0.151
 1554SOL    HW2 6560  10.352  13.886   0.290
 1555SOL     OW 6561   3.943  11.711   3.231
 1555SOL    HW1 6562   3.946  11.690   3.324
 1555SOL    HW2 6563   4.005  11.650   3.190
 1556SOL     OW 6564   4.298   5.320   2.926
 1556SOL    HW1 6565   4.264   5.232   2.908
 1556SOL    HW2 6566   4.393   5.310   2.921
 1557SOL     OW 6567   0.099   8.700   2.028
 1557SOL    HW1 6568   0.188   8.737   2.031
 1557SOL    HW2 6569   0.107   8.622   1.973
 1558SOL     OW 6570   0.508  13.022  13.264
 1558SOL    HW1 6571   0.587  13.067  13.292
 1558SOL    HW2 6572   0.526  12.991  13.176
 1559SOL     OW 6573   3.878  11.913  11.723
 1559SOL    HW1 6574   3.966  11.914  11.684
 1559SOL    HW2 6575   3.859  12.005  11.742
 1560SOL     OW 6576   0.765   4.824   6.595
 1560SOL    HW1 6577   0.733   4.913   6.581
 1560SOL    HW2 6578   0.811   4.802   6.515
 1561SOL     OW 6579  10.599   0.601   9.999
 1561SOL    HW1 6580  10.674   0.660   9.991
 1561SOL    HW2 6581  10.608   0.541   9.924
 1562SOL     OW 6582   3.102  12.201  10.675
 1562SOL    HW1 6583   3.026  12.172  10.624
 1562SOL    HW2 6584   3.064  12.258  10.742
 1563SOL     OW 6585  14.711  12.893  13.273
 1563SOL    HW1 6586  14.641  12.896  13.207
 1563SOL    HW2 6587  14.669  12.919  13.355
 1564SOL     OW 6588  11.903   9.337   1.754
 1564SOL    HW1 6589  11.904   9.433   1.761
 1564SOL    HW2 6590  11.812   9.313   1.765
 1565SOL     OW 6591   0.070   4.350  10.287
 1565SOL    HW1 6592   0.022   4.398  10.220
 1565SOL    HW2 6593   0.074   4.410  10.361
 1566SOL     OW 6594   9.058   1.630   6.947
 1566SOL    HW1 6595   9.124   1.641   6.879
 1566SOL    HW2 6596   9.087   1.685   7.019
 1567SOL     OW 6597  13.087  12.041  14.851
 1567SOL    HW1 6598  12.995  12.040  14.827
 1567SOL    HW2 6599  13.129  11.978  14.792
 1568SOL     OW 6600   9.577   6.700   2.397
 1568SOL    HW1 6601   9.500   6.716   2.450
 1568SOL    HW2 6602   9.549   6.716   2.307
 1569SOL     OW 6603  11.566   7.113   6.318
 1569SOL    HW1 6604  11.597   7.025   6.338
 1569SOL    HW2 6605  11.546   7.110   6.224
 1570SOL     OW 6606  10.197  11.409   4.522
 1570SOL    HW1 6607  10.191  11.504   4.519
 1570SOL    HW2 6608  10.129  11.378   4.462
 1571SOL     OW 6609  11.855  12.209   6.862
 1571SOL    HW1 6610  11.818  12.151   6.795
 1571SOL    HW2 6611  11.925  12.158   6.902
 1572SOL     OW 6612  12.664   0.762   8.031
 1572SOL    HW1 6613  12.701   0.827   7.972
 1572SOL    HW2 6614  12.608   0.812   8.090
 1573SOL     OW 6615   6.173  11.114   9.302
 1573SOL    HW1 6616   6.135  11.201   9.314
 1573SOL    HW2 6617   6.265  11.124   9.327
 1574SOL     OW 6618   9.150   5.897   1.176
 1574SOL    HW1 6619   9.105   5.845   1.110
 1574SOL    HW2 6620   9.147   5.987   1.142
 1575SOL     OW 6621  14.301  14.827  10.866
 1575SOL    HW1 6622  14.364   0.012  10.893
 1575SOL    HW2 6623  14.231  14.833  10.931
 1576SOL     OW 6624   4.982   6.932  10.313
 1576SOL    HW1 6625   5.064   6.912  10.358
 1576SOL    HW2 6626   4.945   6.846  10.291
 1577SOL     OW 6627  10.316   7.598  10.286
 1577SOL    HW1 6628  10.331   7.629  10.375
 1577SOL    HW2 6629  10.312   7.503  10.293
 1578SOL     OW 6630  10.060   5.871   8.137
 1578SOL    HW1 6631  10.144   5.910   8.111
 1578SOL    HW2 6632  10.035   5.816   8.063
 1579SOL     OW 6633   7.072   2.260  11.381
 1579SOL    HW1 6634   7.017   2.275  11.304
 1579SOL    HW2 6635   7.014   2.218  11.445
 1580SOL     OW 6636  10.966   8.211   8.055
 1580SOL    HW1 6637  10.896   8.147   8.067
 1580SOL    HW2 6638  10.921   8.290   8.025
 1581SOL     OW 6639   2.765   5.329  13.721
 1581SOL    HW1 6640   2.735   5.239  13.729
 1581SOL    HW2 6641   2.811   5.346  13.803
 1582SOL     OW 6642  12.641   1.651   7.749
 1582SOL    HW1 6643  12.736   1.643   7.740
 1582SOL    HW2 6644  12.606   1.612   7.669
 1583SOL     OW 6645   5.202   7.150   2.737
 1583SOL    HW1 6646   5.217   7.210   2.663
 1583SOL    HW2 6647   5.110   7.164   2.759
 1584SOL     OW 6648   2.345   9.736   9.716
 1584SOL    HW1 6649   2.402   9.810   9.737
 1584SOL    HW2 6650   2.403   9.672   9.673
 1585SOL     OW 6651   7.619   3.838   8.233
 1585SOL    HW1 6652   7.588   3.905   8.294
 1585SOL    HW2 6653   7.656   3.888   8.160
 1586SOL     OW 6654   4.694   8.943   8.421
 1586SOL    HW1 6655   4.760   8.972   8.358
 1586SOL    HW2 6656   4.744   8.923   8.500
 1587SOL     OW 6657   4.585   6.612  10.112
 1587SOL    HW1 6658   4.604   6.576  10.199
 1587SOL    HW2 6659   4.529   6.687  10.129
 1588SOL     OW 6660  13.503  14.212  14.484
 1588SOL    HW1 6661  13.596  14.205  14.464
 1588SOL    HW2 6662  13.480  14.128  14.523
 1589SOL     OW 6663  14.464  14.101   0.383
 1589SOL    HW1 6664  14.499  14.058   0.461
 1589SOL    HW2 6665  14.376  14.129   0.407
 1590SOL     OW 6666   0.660   4.787   1.134
 1590SOL    HW1 6667   0.649   4.801   1.040
 1590SOL    HW2 6668   0.660   4.692   1.145
 1591SOL     OW 6669   4.823  11.679   7.199
 1591SOL    HW1 6670   4.892  11.737   7.232
 1591SOL    HW2 6671   4.869  11.616   7.144
 1592SOL     OW 6672  12.368   9.356  13.941
 1592SOL    HW1 6673  12.384   9.302  13.863
 1592SOL    HW2 6674  12.282   9.396  13.924
 1593SOL     OW 6675  12.005   1.100   0.900
 1593SOL    HW1 6676  11.918   1.136   0.883
 1593SOL    HW2 6677  12.022   1.122   0.992
 1594SOL     OW 6678   7.908   2.583   2.480
 1594SOL    HW1 6679   7.948   2.498   2.499
 1594SOL    HW2 6680   7.951   2.644   2.541
 1595SOL     OW 6681  10.289   3.848  13.568
 1595SOL    HW1 6682  10.220   3.874  13.629
 1595SOL    HW2 6683  10.332   3.930  13.544
 1596SOL     OW 6684   6.407   7.170  10.712
 1596SOL    HW1 6685   6.426   7.165  10.619
 1596SOL    HW2 6686   6.476   7.120  10.754
 1597SOL     OW 6687   1.082  10.698   7.700
 1597SOL    HW1 6688   0.996  10.734   7.725
 1597SOL    HW2 6689   1.091  10.721   7.608
 1598SOL     OW 6690   0.724   4.067  13.106
 1598SOL    HW1 6691   0.745   4.149  13.150
 1598SOL    HW2 6692   0.661   4.024  13.164
 1599SOL     OW 6693  10.144   4.412  12.400
 1599SOL    HW1 6694  10.224   4.407  12.348
 1599SOL    HW2 6695  10.081   4.457  12.343
 1600SOL     OW 6696   8.883   1.432   2.721
 1600SOL    HW1 6697   8.950   1.499   2.730
 1600SOL    HW2 6698   8.910   1.381   2.645
 1601SOL     OW 6699  14.694   5.479   7.070
 1601SOL    HW1 6700  14.644   5.535   7.010
 1601SOL    HW2 6701  14.665   5.390   7.051
 1602SOL     OW 6702   4.955   4.619  13.119
 1602SOL    HW1 6703   4.990   4.625  13.030
 1602SOL    HW2 6704   4.889   4.689  13.123
 1603SOL     OW 6705  11.979  14.710  14.407
 1603SOL    HW1 6706  11.903  14.693  14.352
 1603SOL    HW2 6707  11.980  14.805  14.418
 1604SOL     OW 6708   1.229  11.980   0.845
 1604SOL    HW1 6709   1.240  11.980   0.940
 1604SOL    HW2 6710   1.154  12.039   0.830
 1605SOL     OW 6711  13.744   8.082   4.700
 1605SOL    HW1 6712  13.837   8.085   4.679
 1605SOL    HW2 6713  13.704   8.031   4.630
 1606SOL     OW 6714   3.076   8.683  10.619
 1606SOL    HW1 6715   3.099   8.601  10.575
 1606SOL    HW2 6716   3.006   8.721  10.565
 1607SOL     OW 6717   4.251   0.067   0.924
 1607SOL    HW1 6718   4.225   0.096   0.837
 1607SOL    HW2 6719   4.172   0.028   0.961
 1608SOL     OW 6720   0.512   5.868   4.867
 1608SOL    HW1 6721   0.455   5.809   4.915
 1608SOL    HW2 6722   0.482   5.862   4.776
 1609SOL     OW 6723   6.343   9.706  10.899
 1609SOL    HW1 6724   6.303   9.736  10.980
 1609SOL    HW2 6725   6.323   9.774  10.835
 1610SOL     OW 6726   2.300  12.797   1.916
 1610SOL    HW1 6727   2.380  12.797   1.864
 1610SOL    HW2 6728   2.329  12.778   2.005
 1611SOL     OW 6729   2.206   9.163  13.864
 1611SOL    HW1 6730   2.284   9.196  13.820
 1611SOL    HW2 6731   2.216   9.067  13.863
 1612SOL     OW 6732   3.455  14.174   3.614
 1612SOL    HW1 6733   3.484  14.086   3.590
 1612SOL    HW2 6734   3.533  14.214   3.654
 1613SOL     OW 6735   1.591   1.639   2.146
 1613SOL    HW1 6736   1.674   1.594   2.163
 1613SOL    HW2 6737   1.613   1.706   2.081
 1614SOL     OW 6738   9.249  14.141  13.845
 1614SOL    HW1 6739   9.316  14.081  13.878
 1614SOL    HW2 6740   9.258  14.219  13.900
 1615SOL     OW 6741   7.048  13.457  14.345
 1615SOL    HW1 6742   7.133  13.437  14.306
 1615SOL    HW2 6743   6.993  13.482  14.270
 1616SOL     OW 6744   5.645   0.158   1.716
 1616SOL    HW1 6745   5.687   0.083   1.758
 1616SOL    HW2 6746   5.717   0.216   1.692
 1617SOL     OW 6747   5.147   6.953   7.741
 1617SOL    HW1 6748   5.184   7.024   7.794
 1617SOL    HW2 6749   5.222   6.918   7.693
 1618SOL     OW 6750  13.339   2.713  10.106
 1618SOL    HW1 6751  13.385   2.769  10.168
 1618SOL    HW2 6752  13.334   2.765  10.026
 1619SOL     OW 6753   7.809   2.243   1.206
 1619SOL    HW1 6754   7.796   2.321   1.153
 1619SOL    HW2 6755   7.903   2.225   1.200
 1620SOL     OW 6756  10.664   3.705   0.192
 1620SOL    HW1 6757  10.617   3.708   0.109
 1620SOL    HW2 6758  10.724   3.779   0.189
 1621SOL     OW 6759  12.917   2.807  13.924
 1621SOL    HW1 6760  12.850   2.827  13.858
 1621SOL    HW2 6761  12.977   2.882  13.921
 1622SOL     OW 6762   2.866   7.548   3.868
 1622SOL    HW1 6763   2.828   7.550   3.956
 1622SOL    HW2 6764   2.915   7.465   3.865
 1623SOL     OW 6765   6.520  11.812  11.895
 1623SOL    HW1 6766   6.436  11.779  11.863
 1623SOL    HW2 6767   6.585  11.780  11.832
 1624SOL     OW 6768   2.013   8.237   2.998
 1624SOL    HW1 6769   2.023   8.295   2.922
 1624SOL    HW2 6770   2.063   8.159   2.976
 1625SOL     OW 6771   0.210  10.264  14.852
 1625SOL    HW1 6772   0.158  10.340  14.826
 1625SOL    HW2 6773   0.146  10.194  14.863
 1626SOL     OW 6774  13.410   2.045   2.630
 1626SOL    HW1 6775  13.486   1.990   2.610
 1626SOL    HW2 6776  13.421   2.123   2.576
 1627SOL     OW 6777  14.177   1.897   5.968
 1627SOL    HW1 6778  14.107   1.903   5.903
 1627SOL    HW2 6779  14.151   1.824   6.024
 1628SOL     OW 6780   9.313   2.685  14.275
 1628SOL    HW1 6781   9.357   2.741  14.211
 1628SOL    HW2 6782   9.285   2.745  14.344
 1629SOL     OW 6783   3.541  14.345   0.332
 1629SOL    HW1 6784   3.499  14.389   0.258
 1629SOL    HW2 6785   3.478  14.354   0.404
 1630SOL     OW 6786  14.467  10.812   5.924
 1630SOL    HW1 6787  14.408  10.812   5.848
 1630SOL    HW2 6788  14.554  10.798   5.886
 1631SOL     OW 6789  14.473   8.742   4.291
 1631SOL    HW1 6790  14.404   8.733   4.225
 1631SOL    HW2 6791  14.520   8.659   4.289
 1632SOL     OW 6792   6.358   3.890  11.217
 1632SOL    HW1 6793   6.271   3.918  11.246
 1632SOL    HW2 6794   6.375   3.943  11.139
 1633SOL     OW 6795   1.322  14.464   2.118
 1633SOL    HW1 6796   1.236  14.432   2.146
 1633SOL    HW2 6797   1.331  14.549   2.160
 1634SOL     OW 6798   1.286   2.977   9.165
 1634SOL    HW1 6799   1.233   3.052   9.139
 1634SOL    HW2 6800   1.373   3.014   9.181
 1635SOL     OW 6801  11.869  13.818   0.514
 1635SOL    HW1 6802  11.872  13.911   0.493
 1635SOL    HW2 6803  11.863  13.814   0.609
 1636SOL     OW 6804   5.215   4.515   8.547
 1636SOL    HW1 6805   5.273   4.440   8.535
 1636SOL    HW2 6806   5.127   4.478   8.546
 1637SOL     OW 6807   4.581  11.829   2.197
 1637SOL    HW1 6808   4.545  11.804   2.282
 1637SOL    HW2 6809   4.504  11.848   2.143
 1638SOL     OW 6810  11.115  13.588   4.004
 1638SOL    HW1 6811  11.050  13.547   4.060
 1638SOL    HW2 6812  11.085  13.569   3.915
 1639SOL     OW 6813  12.213   3.955   7.612
 1639SOL    HW1 6814  12.290   3.945   7.555
 1639SOL    HW2 6815  12.154   3.885   7.585
 1640SOL     OW 6816   5.248   8.579   1.013
 1640SOL    HW1 6817   5.236   8.512   0.945
 1640SOL    HW2 6818   5.341   8.600   1.011
 1641SOL     OW 6819   0.966  14.340  12.570
 1641SOL    HW1 6820   0.941  14.431  12.585
 1641SOL    HW2 6821   0.980  14.304  12.657
 1642SOL     OW 6822   4.159   6.322  10.451
 1642SOL    HW1 6823   4.196   6.350  10.368
 1642SOL    HW2 6824   4.214   6.363  10.517
 1643SOL     OW 6825  12.970   8.733  14.654
 1643SOL    HW1 6826  12.918   8.748  14.574
 1643SOL    HW2 6827  12.911   8.757  14.725
 1644SOL     OW 6828   4.490  11.311  12.001
 1644SOL    HW1 6829   4.543  11.362  11.939
 1644SOL    HW2 6830   4.470  11.373  12.071
 1645SOL     OW 6831   1.133   0.833   1.322
 1645SOL    HW1 6832   1.161   0.820   1.413
 1645SOL    HW2 6833   1.159   0.923   1.302
 1646SOL     OW 6834  12.198   8.478   0.493
 1646SOL    HW1 6835  12.289   8.451   0.491
 1646SOL    HW2 6836  12.166   8.448   0.578
 1647SOL     OW 6837   1.017   8.163   2.239
 1647SOL    HW1 6838   1.075   8.239   2.227
 1647SOL    HW2 6839   1.065   8.090   2.200
 1648SOL     OW 6840  12.784  10.451   4.765
 1648SOL    HW1 6841  12.733  10.465   4.845
 1648SOL    HW2 6842  12.832  10.533   4.753
 1649SOL     OW 6843  13.002   0.673  12.895
 1649SOL    HW1 6844  12.953   0.755  12.899
 1649SOL    HW2 6845  13.093   0.699  12.880
 1650SOL     OW 6846   3.696   1.316  13.037
 1650SOL    HW1 6847   3.638   1.278  13.103
 1650SOL    HW2 6848   3.730   1.395  13.079
 1651SOL     OW 6849  12.558  13.740   4.912
 1651SOL    HW1 6850  12.616  13.733   4.987
 1651SOL    HW2 6851  12.613  13.716   4.837
 1652SOL     OW 6852   5.131  14.172  13.003
 1652SOL    HW1 6853   5.058  14.234  12.994
 1652SOL    HW2 6854   5.093  14.088  12.977
 1653SOL     OW 6855   4.011  11.527   4.132
 1653SOL    HW1 6856   4.046  11.438   4.129
 1653SOL    HW2 6857   4.033  11.565   4.047
 1654SOL     OW 6858   1.692   1.992  14.404
 1654SOL    HW1 6859   1.636   2.039  14.343
 1654SOL    HW2 6860   1.779   2.029  14.390
 1655SOL     OW 6861  14.653   8.175   5.761
 1655SOL    HW1 6862  14.737   8.219   5.768
 1655SOL    HW2 6863  14.668   8.088   5.797
 1656SOL     OW 6864   6.115  12.573   6.680
 1656SOL    HW1 6865   6.112  12.480   6.705
 1656SOL    HW2 6866   6.031  12.589   6.637
 1657SOL     OW 6867  14.483  11.204   2.896
 1657SOL    HW1 6868  14.544  11.221   2.824
 1657SOL    HW2 6869  14.397  11.199   2.855
 1658SOL     OW 6870  10.957   5.346   8.412
 1658SOL    HW1 6871  10.895   5.274   8.399
 1658SOL    HW2 6872  10.927   5.413   8.350
 1659SOL     OW 6873   9.897   6.677   5.977
 1659SOL    HW1 6874   9.870   6.638   6.060
 1659SOL    HW2 6875   9.842   6.755   5.969
 1660SOL     OW 6876   1.738  14.288   6.071
 1660SOL    HW1 6877   1.664  14.293   6.131
 1660SOL    HW2 6878   1.699  14.302   5.984
 1661SOL     OW 6879   3.986   5.647   0.819
 1661SOL    HW1 6880   3.944   5.595   0.887
 1661SOL    HW2 6881   4.080   5.633   0.832
 1662SOL     OW 6882   2.544  11.979   3.117
 1662SOL    HW1 6883   2.536  12.061   3.068
 1662SOL    HW2 6884   2.634  11.979   3.151
 1663SOL     OW 6885  14.162   6.223  12.293
 1663SOL    HW1 6886  14.242   6.225  12.345
 1663SOL    HW2 6887  14.157   6.310  12.253
 1664SOL     OW 6888  12.054   7.028   9.682
 1664SOL    HW1 6889  12.148   7.041   9.675
 1664SOL    HW2 6890  12.034   7.049   9.773
 1665SOL     OW 6891  10.006   0.901   5.604
 1665SOL    HW1 6892   9.932   0.942   5.559
 1665SOL    HW2 6893  10.042   0.840   5.540
 1666SOL     OW 6894   2.392  14.878   0.597
 1666SOL    HW1 6895   2.309  14.830   0.593
 1666SOL    HW2 6896   2.367   0.088   0.596
 1667SOL     OW 6897  14.565   8.963   6.817
 1667SOL    HW1 6898  14.571   9.046   6.770
 1667SOL    HW2 6899  14.642   8.961   6.874
 1668SOL     OW 6900  12.989   9.215  14.239
 1668SOL    HW1 6901  12.967   9.283  14.175
 1668SOL    HW2 6902  12.997   9.135  14.186
 1669SOL     OW 6903   9.967   8.929   1.265
 1669SOL    HW1 6904  10.010   9.005   1.225
 1669SOL    HW2 6905   9.884   8.920   1.218
 1670SOL     OW 6906   4.714   9.251   9.073
 1670SOL    HW1 6907   4.696   9.257   9.167
 1670SOL    HW2 6908   4.768   9.172   9.065
 1671SOL     OW 6909   2.958  12.257  13.355
 1671SOL    HW1 6910   2.893  12.196  13.389
 1671SOL    HW2 6911   2.910  12.312  13.293
 1672SOL     OW 6912   6.474  12.973   3.968
 1672SOL    HW1 6913   6.530  12.979   4.045
 1672SOL    HW2 6914   6.514  13.032   3.904
 1673SOL     OW 6915  11.161  11.794  13.843
 1673SOL    HW1 6916  11.118  11.879  13.859
 1673SOL    HW2 6917  11.205  11.805  13.759
 1674SOL     OW 6918   4.031   9.882   2.565
 1674SOL    HW1 6919   4.123   9.857   2.558
 1674SOL    HW2 6920   3.983   9.813   2.520
 1675SOL     OW 6921   0.881   8.331   0.833
 1675SOL    HW1 6922   0.943   8.401   0.851
 1675SOL    HW2 6923   0.837   8.316   0.917
 1676SOL     OW 6924   8.190   3.629   1.064
 1676SOL    HW1 6925   8.204   3.591   1.151
 1676SOL    HW2 6926   8.114   3.584   1.029
 1677SOL     OW 6927  13.515   1.680  11.371
 1677SOL    HW1 6928  13.505   1.676  11.276
 1677SOL    HW2 6929  13.449   1.619  11.404
 1678SOL     OW 6930   9.270   4.716   0.888
 1678SOL    HW1 6931   9.246   4.651   0.823
 1678SOL    HW2 6932   9.276   4.798   0.838
 1679SOL     OW 6933   5.611   3.154   5.063
 1679SOL    HW1 6934   5.602   3.179   4.971
 1679SOL    HW2 6935   5.678   3.086   5.063
 1680SOL     OW 6936   7.852   4.162   6.383
 1680SOL    HW1 6937   7.948   4.156   6.386
 1680SOL    HW2 6938   7.823   4.117   6.462
 1681SOL     OW 6939   6.638   9.203   9.465
 1681SOL    HW1 6940   6.706   9.157   9.514
 1681SOL    HW2 6941   6.586   9.133   9.426
 1682SOL     OW 6942   7.509  11.072   2.799
 1682SOL    HW1 6943   7.544  10.992   2.759
 1682SOL    HW2 6944   7.567  11.088   2.874
 1683SOL     OW 6945   3.452   4.665  13.709
 1683SOL    HW1 6946   3.387   4.671  13.639
 1683SOL    HW2 6947   3.434   4.741  13.765
 1684SOL     OW 6948  13.639   9.460  11.550
 1684SOL    HW1 6949  13.674   9.375  11.523
 1684SOL    HW2 6950  13.693   9.524  11.504
 1685SOL     OW 6951   6.492   9.298   6.234
 1685SOL    HW1 6952   6.511   9.383   6.193
 1685SOL    HW2 6953   6.414   9.266   6.189
 1686SOL     OW 6954   6.660  13.809  14.405
 1686SOL    HW1 6955   6.567  13.824  14.425
 1686SOL    HW2 6956   6.659  13.767  14.319
 1687SOL     OW 6957   8.381   0.114  12.545
 1687SOL    HW1 6958   8.353   0.069  12.465
 1687SOL    HW2 6959   8.307   0.170  12.568
 1688SOL     OW 6960  12.270   0.903   1.715
 1688SOL    HW1 6961  12.265   0.882   1.621
 1688SOL    HW2 6962  12.301   0.822   1.756
 1689SOL     OW 6963   5.910   3.297   4.243
 1689SOL    HW1 6964   5.842   3.280   4.308
 1689SOL    HW2 6965   5.864   3.299   4.159
 1690SOL     OW 6966   6.049  12.290   0.851
 1690SOL    HW1 6967   6.122  12.335   0.894
 1690SOL    HW2 6968   6.003  12.359   0.804
 1691SOL     OW 6969   9.194   4.412   8.523
 1691SOL    HW1 6970   9.180   4.318   8.522
 1691SOL    HW2 6971   9.289   4.423   8.517
 1692SOL     OW 6972   2.586   3.622   1.354
 1692SOL    HW1 6973   2.600   3.709   1.390
 1692SOL    HW2 6974   2.669   3.599   1.312
 1693SOL     OW 6975   8.197   6.228   9.680
 1693SOL    HW1 6976   8.109   6.263   9.664
 1693SOL    HW2 6977   8.253   6.279   9.622
 1694SOL     OW 6978   7.062  14.106   9.376
 1694SOL    HW1 6979   6.984  14.161   9.369
 1694SOL    HW2 6980   7.124  14.143   9.313
 1695SOL     OW 6981  13.794   8.387   4.119
 1695SOL    HW1 6982  13.812   8.326   4.191
 1695SOL    HW2 6983  13.699   8.383   4.108
 1696SOL     OW 6984  13.379   3.398   6.868
 1696SOL    HW1 6985  13.417   3.417   6.954
 1696SOL    HW2 6986  13.289   3.371   6.887
 1697SOL     OW 6987  13.378  14.265   3.496
 1697SOL    HW1 6988  13.409  14.175   3.508
 1697SOL    HW2 6989  13.283  14.260   3.506
 1698SOL     OW 6990  11.624   7.956  14.817
 1698SOL    HW1 6991  11.700   8.014  14.825
 1698SOL    HW2 6992  11.548   8.014  14.816
 1699SOL     OW 6993   9.041   3.807   9.210
 1699SOL    HW1 6994   9.035   3.898   9.239
 1699SOL    HW2 6995   9.014   3.809   9.118
 1700SOL     OW 6996  10.986   3.911  11.242
 1700SOL    HW1 6997  10.968   3.994  11.199
 1700SOL    HW2 6998  11.074   3.920  11.278
 1701SOL     OW 6999   2.566   2.587   0.847
 1701SOL    HW1 7000   2.585   2.680   0.836
 1701SOL    HW2 7001   2.481   2.574   0.806
 1702SOL     OW 7002  10.059   3.712   7.879
 1702SOL    HW1 7003  10.017   3.740   7.797
 1702SOL    HW2 7004  10.141   3.761   7.883
 1703SOL     OW 7005   0.140   7.808   2.687
 1703SOL    HW1 7006   0.174   7.835   2.772
 1703SOL    HW2 7007   0.121   7.714   2.697
 1704SOL     OW 7008   4.535   5.959   6.925
 1704SOL    HW1 7009   4.475   6.029   6.951
 1704SOL    HW2 7010   4.621   6.000   6.923
 1705SOL     OW 7011   2.103  13.870  11.528
 1705SOL    HW1 7012   2.024  13.917  11.501
 1705SOL    HW2 7013   2.071  13.801  11.586
 1706SOL     OW 7014   3.740   2.606   8.342
 1706SOL    HW1 7015   3.763   2.587   8.251
 1706SOL    HW2 7016   3.669   2.545   8.362
 1707SOL     OW 7017   7.926   3.615   4.758
 1707SOL    HW1 7018   7.901   3.619   4.666
 1707SOL    HW2 7019   7.844   3.622   4.806
 1708SOL     OW 7020   2.824   4.402   6.485
 1708SOL    HW1 7021   2.800   4.394   6.393
 1708SOL    HW2 7022   2.829   4.311   6.517
 1709SOL     OW 7023  12.731  11.212   1.896
 1709SOL    HW1 7024  12.658  11.229   1.836
 1709SOL    HW2 7025  12.804  11.190   1.839
 1710SOL     OW 7026   2.996   3.779   4.897
 1710SOL    HW1 7027   2.940   3.768   4.974
 1710SOL    HW2 7028   2.953   3.728   4.829
 1711SOL     OW 7029   7.836   6.909   4.038
 1711SOL    HW1 7030   7.839   6.991   3.990
 1711SOL    HW2 7031   7.921   6.869   4.023
 1712SOL     OW 7032  14.750   7.600   1.350
 1712SOL    HW1 7033  14.726   7.636   1.265
 1712SOL    HW2 7034  14.845   7.610   1.355
 1713SOL     OW 7035  13.411   7.180  10.874
 1713SOL    HW1 7036  13.371   7.097  10.847
 1713SOL    HW2 7037  13.477   7.154  10.938
 1714SOL     OW 7038   7.192   1.164  11.220
 1714SOL    HW1 7039   7.236   1.160  11.136
 1714SOL    HW2 7040   7.223   1.087  11.268
 1715SOL     OW 7041   6.786   6.723   7.669
 1715SOL    HW1 7042   6.852   6.792   7.678
 1715SOL    HW2 7043   6.815   6.654   7.728
 1716SOL     OW 7044  12.892   0.369  13.503
 1716SOL    HW1 7045  12.879   0.359  13.408
 1716SOL    HW2 7046  12.843   0.297  13.542
 1717SOL     OW 7047  13.005   5.540  14.720
 1717SOL    HW1 7048  13.080   5.534  14.779
 1717SOL    HW2 7049  13.029   5.609  14.658
 1718SOL     OW 7050   5.450  12.035  13.372
 1718SOL    HW1 7051   5.424  12.101  13.437
 1718SOL    HW2 7052   5.370  12.014  13.325
 1719SOL     OW 7053  13.409   8.752  13.212
 1719SOL    HW1 7054  13.347   8.823  13.196
 1719SOL    HW2 7055  13.355   8.678  13.238
 1720SOL     OW 7056  11.333   4.164   1.623
 1720SOL    HW1 7057  11.342   4.259   1.623
 1720SOL    HW2 7058  11.386   4.135   1.697
 1721SOL     OW 7059   9.202   4.414   0.970
 1721SOL    HW1 7060   9.298   4.419   0.968
 1721SOL    HW2 7061   9.182   4.329   0.932
 1722SOL     OW 7062   0.041  14.450   9.296
 1722SOL    HW1 7063   0.057  14.518   9.230
 1722SOL    HW2 7064   0.038  14.498   9.378
 1723SOL     OW 7065  14.489   1.106   8.327
 1723SOL    HW1 7066  14.448   1.156   8.256
 1723SOL    HW2 7067  14.416   1.059   8.368
 1724SOL     OW 7068   9.064   1.976   5.395
 1724SOL    HW1 7069   8.998   1.991   5.464
 1724SOL    HW2 7070   9.146   2.003   5.436
 1725SOL     OW 7071  10.110   2.447   6.104
 1725SOL    HW1 7072  10.091   2.386   6.033
 1725SOL    HW2 7073  10.166   2.397   6.164
 1726SOL     OW 7074   4.647  12.429  10.989
 1726SOL    HW1 7075   4.735  12.432  10.953
 1726SOL    HW2 7076   4.604  12.508  10.955
 1727SOL     OW 7077   8.990   6.218  13.717
 1727SOL    HW1 7078   8.955   6.164  13.647
 1727SOL    HW2 7079   8.933   6.201  13.792
 1728SOL     OW 7080   9.552  11.755   7.541
 1728SOL    HW1 7081   9.557  11.847   7.513
 1728SOL    HW2 7082   9.487  11.755   7.611
 1729SOL     OW 7083   0.473   3.844  10.156
 1729SOL    HW1 7084   0.465   3.937  10.135
 1729SOL    HW2 7085   0.492   3.843  10.250
 1730SOL     OW 7086   0.508   2.980   9.289
 1730SOL    HW1 7087   0.433   2.922   9.296
 1730SOL    HW2 7088   0.497   3.043   9.360
 1731SOL     OW 7089   7.866   8.421   4.410
 1731SOL    HW1 7090   7.852   8.341   4.359
 1731SOL    HW2 7091   7.840   8.398   4.499
 1732SOL     OW 7092   1.808   4.986   7.441
 1732SOL    HW1 7093   1.756   5.065   7.423
 1732SOL    HW2 7094   1.743   4.920   7.465
 1733SOL     OW 7095  14.202  13.220   1.459
 1733SOL    HW1 7096  14.182  13.259   1.544
 1733SOL    HW2 7097  14.283  13.171   1.474
 1734SOL     OW 7098   0.091   9.743  11.698
 1734SOL    HW1 7099   0.087   9.735  11.602
 1734SOL    HW2 7100   0.091   9.838  11.714
 1735SOL     OW 7101   6.368   5.971  13.119
 1735SOL    HW1 7102   6.396   6.003  13.033
 1735SOL    HW2 7103   6.273   5.962  13.111
 1736SOL     OW 7104  11.686   2.098   3.556
 1736SOL    HW1 7105  11.600   2.087   3.597
 1736SOL    HW2 7106  11.676   2.178   3.504
 1737SOL     OW 7107  11.981  13.588   9.361
 1737SOL    HW1 7108  12.015  13.514   9.310
 1737SOL    HW2 7109  12.046  13.601   9.430
 1738SOL     OW 7110   0.234   9.439  10.888
 1738SOL    HW1 7111   0.327   9.418  10.873
 1738SOL    HW2 7112   0.188   9.383  10.825
 1739SOL     OW 7113  13.888   6.663   8.587
 1739SOL    HW1 7114  13.853   6.682   8.500
 1739SOL    HW2 7115  13.961   6.723   8.598
 1740SOL     OW 7116   5.578  14.679  11.208
 1740SOL    HW1 7117   5.490  14.648  11.188
 1740SOL    HW2 7118   5.634  14.630  11.147
 1741SOL     OW 7119   1.712   8.200   4.764
 1741SOL    HW1 7120   1.774   8.206   4.837
 1741SOL    HW2 7121   1.641   8.145   4.798
 1742SOL     OW 7122   9.927   9.415   1.987
 1742SOL    HW1 7123   9.852   9.468   2.013
 1742SOL    HW2 7124   9.991   9.477   1.953
 1743SOL     OW 7125   6.399   4.082   8.193
 1743SOL    HW1 7126   6.482   4.123   8.218
 1743SOL    HW2 7127   6.425   4.001   8.149
 1744SOL     OW 7128   9.895   5.246   7.731
 1744SOL    HW1 7129   9.973   5.302   7.730
 1744SOL    HW2 7130   9.837   5.288   7.796
 1745SOL     OW 7131   6.925  14.456  12.029
 1745SOL    HW1 7132   6.840  14.415  12.046
 1745SOL    HW2 7133   6.938  14.447  11.935
 1746SOL     OW 7134  10.869   1.714   6.529
 1746SOL    HW1 7135  10.935   1.777   6.499
 1746SOL    HW2 7136  10.920   1.644   6.571
 1747SOL     OW 7137   0.309  10.818   9.337
 1747SOL    HW1 7138   0.381  10.803   9.399
 1747SOL    HW2 7139   0.233  10.832   9.392
 1748SOL     OW 7140   6.754   4.293  11.403
 1748SOL    HW1 7141   6.699   4.244  11.341
 1748SOL    HW2 7142   6.838   4.302  11.359
 1749SOL     OW 7143   8.814  13.886  13.087
 1749SOL    HW1 7144   8.856  13.897  13.001
 1749SOL    HW2 7145   8.809  13.975  13.122
 1750SOL     OW 7146  10.960   4.145   7.334
 1750SOL    HW1 7147  10.985   4.090   7.260
 1750SOL    HW2 7148  10.991   4.098   7.411
 1751SOL     OW 7149  14.528   4.453  12.615
 1751SOL    HW1 7150  14.509   4.424  12.526
 1751SOL    HW2 7151  14.616   4.490  12.610
 1752SOL     OW 7152   2.005   5.807   7.464
 1752SOL    HW1 7153   2.012   5.865   7.388
 1752SOL    HW2 7154   2.045   5.725   7.435
 1753SOL     OW 7155   8.043   3.222   5.577
 1753SOL    HW1 7156   8.036   3.127   5.574
 1753SOL    HW2 7157   8.063   3.243   5.668
 1754SOL     OW 7158   4.160   1.622   7.691
 1754SOL    HW1 7159   4.171   1.717   7.687
 1754SOL    HW2 7160   4.088   1.608   7.753
 1755SOL     OW 7161   6.222   7.877   4.994
 1755SOL    HW1 7162   6.301   7.924   4.967
 1755SOL    HW2 7163   6.219   7.887   5.089
 1756SOL     OW 7164   1.322   2.075  12.747
 1756SOL    HW1 7165   1.331   2.144  12.813
 1756SOL    HW2 7166   1.329   2.122  12.663
 1757SOL     OW 7167   0.334   9.638   0.762
 1757SOL    HW1 7168   0.378   9.584   0.696
 1757SOL    HW2 7169   0.286   9.703   0.711
 1758SOL     OW 7170   1.846  13.676  13.210
 1758SOL    HW1 7171   1.870  13.584  13.195
 1758SOL    HW2 7172   1.751  13.675  13.216
 1759SOL     OW 7173  11.636   1.593   1.061
 1759SOL    HW1 7174  11.674   1.671   1.102
 1759SOL    HW2 7175  11.542   1.601   1.077
 1760SOL     OW 7176  14.071   8.532   1.116
 1760SOL    HW1 7177  14.039   8.616   1.081
 1760SOL    HW2 7178  14.145   8.557   1.172
 1761SOL     OW 7179   3.759   4.672   7.773
 1761SOL    HW1 7180   3.786   4.581   7.758
 1761SOL    HW2 7181   3.834   4.711   7.817
 1762SOL     OW 7182   4.031   0.503  13.665
 1762SOL    HW1 7183   3.975   0.504  13.742
 1762SOL    HW2 7184   3.989   0.441  13.605
 1763SOL     OW 7185   4.553   4.155   8.859
 1763SOL    HW1 7186   4.547   4.084   8.795
 1763SOL    HW2 7187   4.534   4.114   8.943
 1764SOL     OW 7188   5.101   5.532   7.530
 1764SOL    HW1 7189   5.130   5.536   7.439
 1764SOL    HW2 7190   5.059   5.617   7.545
 1765SOL     OW 7191   0.816   6.063   5.699
 1765SOL    HW1 7192   0.753   6.081   5.769
 1765SOL    HW2 7193   0.899   6.048   5.744
 1766SOL     OW 7194   2.590   3.106   9.962
 1766SOL    HW1 7195   2.563   3.187  10.005
 1766SOL    HW2 7196   2.537   3.038  10.003
 1767SOL     OW 7197   0.975   7.985  12.631
 1767SOL    HW1 7198   0.965   8.019  12.543
 1767SOL    HW2 7199   1.064   7.949  12.634
 1768SOL     OW 7200   3.040   2.282   8.678
 1768SOL    HW1 7201   2.971   2.349   8.681
 1768SOL    HW2 7202   3.089   2.301   8.599
 1769SOL     OW 7203   6.405   8.345   4.894
 1769SOL    HW1 7204   6.448   8.291   4.828
 1769SOL    HW2 7205   6.457   8.331   4.974
 1770SOL     OW 7206   5.282  13.179   8.523
 1770SOL    HW1 7207   5.349  13.112   8.508
 1770SOL    HW2 7208   5.214  13.134   8.573
 1771SOL     OW 7209   1.293   4.609   7.335
 1771SOL    HW1 7210   1.239   4.583   7.261
 1771SOL    HW2 7211   1.312   4.702   7.320
 1772SOL     OW 7212   1.974   7.632   8.264
 1772SOL    HW1 7213   1.884   7.654   8.286
 1772SOL    HW2 7214   2.025   7.658   8.341
 1773SOL     OW 7215   7.251  13.812   6.764
 1773SOL    HW1 7216   7.211  13.854   6.839
 1773SOL    HW2 7217   7.193  13.737   6.745
 1774SOL     OW 7218   2.597  12.815   9.859
 1774SOL    HW1 7219   2.562  12.812   9.948
 1774SOL    HW2 7220   2.607  12.723   9.834
 1775SOL     OW 7221   6.721   4.710   3.885
 1775SOL    HW1 7222   6.790   4.741   3.826
 1775SOL    HW2 7223   6.721   4.615   3.876
 1776SOL     OW 7224  14.505  13.284   7.249
 1776SOL    HW1 7225  14.592  13.323   7.250
 1776SOL    HW2 7226  14.507  13.217   7.317
 1777SOL     OW 7227  12.408   9.454   1.085
 1777SOL    HW1 7228  12.389   9.497   1.168
 1777SOL    HW2 7229  12.496   9.484   1.061
 1778SOL     OW 7230   8.483   0.185   2.468
 1778SOL    HW1 7231   8.492   0.139   2.551
 1778SOL    HW2 7232   8.572   0.190   2.433
 1779SOL     OW 7233   8.646   5.184   6.139
 1779SOL    HW1 7234   8.649   5.093   6.170
 1779SOL    HW2 7235   8.716   5.228   6.186
 1780SOL     OW 7236   1.259   4.957   0.318
 1780SOL    HW1 7237   1.183   4.991   0.272
 1780SOL    HW2 7238   1.328   5.021   0.302
 1781SOL     OW 7239   8.572   4.905   9.253
 1781SOL    HW1 7240   8.508   4.874   9.318
 1781SOL    HW2 7241   8.609   4.825   9.215
 1782SOL     OW 7242   3.906   3.870  10.041
 1782SOL    HW1 7243   3.821   3.889  10.000
 1782SOL    HW2 7244   3.932   3.954  10.080
 1783SOL     OW 7245   3.239   9.982   2.453
 1783SOL    HW1 7246   3.292   9.944   2.383
 1783SOL    HW2 7247   3.289   9.966   2.532
 1784SOL     OW 7248   8.351   4.880   0.976
 1784SOL    HW1 7249   8.387   4.809   1.029
 1784SOL    HW2 7250   8.386   4.865   0.888
 1785SOL     OW 7251  12.951  12.478  13.468
 1785SOL    HW1 7252  13.003  12.411  13.424
 1785SOL    HW2 7253  12.889  12.507  13.401
 1786SOL     OW 7254   2.778   0.076   1.314
 1786SOL    HW1 7255   2.686   0.081   1.340
 1786SOL    HW2 7256   2.823   0.134   1.374
 1787SOL     OW 7257   8.782   6.924   8.908
 1787SOL    HW1 7258   8.772   6.871   8.829
 1787SOL    HW2 7259   8.787   6.860   8.980
 1788SOL     OW 7260   3.863   8.473  11.566
 1788SOL    HW1 7261   3.794   8.459  11.502
 1788SOL    HW2 7262   3.826   8.440  11.648
 1789SOL     OW 7263   6.266  14.166   9.944
 1789SOL    HW1 7264   6.186  14.146   9.993
 1789SOL    HW2 7265   6.242  14.241   9.890
 1790SOL     OW 7266  13.021   2.014   1.559
 1790SOL    HW1 7267  12.984   2.018   1.647
 1790SOL    HW2 7268  13.012   2.103   1.525
 1791SOL     OW 7269   0.428   0.787  10.701
 1791SOL    HW1 7270   0.350   0.803  10.647
 1791SOL    HW2 7271   0.460   0.702  10.671
 1792SOL     OW 7272   0.536  11.093   9.983
 1792SOL    HW1 7273   0.550  11.012   9.934
 1792SOL    HW2 7274   0.539  11.162   9.917
 1793SOL     OW 7275   2.137  11.189   1.027
 1793SOL    HW1 7276   2.084  11.265   1.000
 1793SOL    HW2 7277   2.168  11.150   0.946
 1794SOL     OW 7278   4.687  13.510   9.698
 1794SOL    HW1 7279   4.754  13.447   9.722
 1794SOL    HW2 7280   4.675  13.496   9.604
 1795SOL     OW 7281   5.714   3.480   1.551
 1795SOL    HW1 7282   5.701   3.407   1.611
 1795SOL    HW2 7283   5.716   3.557   1.607
 1796SOL     OW 7284   5.002   1.040   7.753
 1796SOL    HW1 7285   4.986   0.958   7.800
 1796SOL    HW2 7286   5.039   1.099   7.818
 1797SOL     OW 7287   5.234   2.151   8.975
 1797SOL    HW1 7288   5.272   2.138   8.888
 1797SOL    HW2 7289   5.274   2.232   9.006
 1798SOL     OW 7290  14.734   3.896   8.819
 1798SOL    HW1 7291  14.752   3.864   8.731
 1798SOL    HW2 7292  14.814   3.940   8.846
 1799SOL     OW 7293   3.276   3.067  11.839
 1799SOL    HW1 7294   3.240   3.090  11.925
 1799SOL    HW2 7295   3.218   3.000  11.805
 1800SOL     OW 7296   2.859   8.378   1.525
 1800SOL    HW1 7297   2.940   8.331   1.548
 1800SOL    HW2 7298   2.813   8.387   1.609
 1801SOL     OW 7299  10.156   8.856   9.248
 1801SOL    HW1 7300  10.231   8.801   9.228
 1801SOL    HW2 7301  10.182   8.944   9.220
 1802SOL     OW 7302   6.257  13.011   2.405
 1802SOL    HW1 7303   6.216  13.066   2.472
 1802SOL    HW2 7304   6.319  12.957   2.453
 1803SOL     OW 7305   1.737   5.935   7.773
 1803SOL    HW1 7306   1.829   5.960   7.768
 1803SOL    HW2 7307   1.705   5.945   7.683
 1804SOL     OW 7308   0.996   3.269   8.109
 1804SOL    HW1 7309   1.050   3.271   8.029
 1804SOL    HW2 7310   1.019   3.186   8.151
 1805SOL     OW 7311   5.139   1.538   7.161
 1805SOL    HW1 7312   5.122   1.623   7.201
 1805SOL    HW2 7313   5.104   1.475   7.223
 1806SOL     OW 7314   9.243   1.663   3.851
 1806SOL    HW1 7315   9.278   1.647   3.763
 1806SOL    HW2 7316   9.181   1.591   3.866
 1807SOL     OW 7317  10.491   2.258   7.164
 1807SOL    HW1 7318  10.540   2.177   7.177
 1807SOL    HW2 7319  10.477   2.293   7.252
 1808SOL     OW 7320   9.929   7.743   1.278
 1808SOL    HW1 7321   9.929   7.755   1.183
 1808SOL    HW2 7322   9.987   7.668   1.293
 1809SOL     OW 7323   6.589   3.146   4.911
 1809SOL    HW1 7324   6.531   3.071   4.921
 1809SOL    HW2 7325   6.637   3.150   4.994
 1810SOL     OW 7326   1.603   1.176   5.507
 1810SOL    HW1 7327   1.609   1.174   5.412
 1810SOL    HW2 7328   1.679   1.126   5.537
 1811SOL     OW 7329   7.015   7.336  13.109
 1811SOL    HW1 7330   6.972   7.304  13.031
 1811SOL    HW2 7331   6.992   7.272  13.177
 1812SOL     OW 7332  13.613  13.011   9.760
 1812SOL    HW1 7333  13.690  13.068   9.751
 1812SOL    HW2 7334  13.612  12.987   9.853
 1813SOL     OW 7335   1.234  14.609   1.436
 1813SOL    HW1 7336   1.275  14.695   1.426
 1813SOL    HW2 7337   1.269  14.576   1.519
 1814SOL     OW 7338  11.050   1.060  13.027
 1814SOL    HW1 7339  10.957   1.046  13.043
 1814SOL    HW2 7340  11.064   1.153  13.047
 1815SOL     OW 7341  12.029   1.894  13.541
 1815SOL    HW1 7342  12.004   1.961  13.477
 1815SOL    HW2 7343  11.956   1.892  13.603
 1816SOL     OW 7344   4.404   3.189  11.731
 1816SOL    HW1 7345   4.382   3.217  11.819
 1816SOL    HW2 7346   4.499   3.176  11.732
 1817SOL     OW 7347  11.914  11.215  14.677
 1817SOL    HW1 7348  12.000  11.172  14.673
 1817SOL    HW2 7349  11.857  11.161  14.623
 1818SOL     OW 7350   5.008   9.223   1.704
 1818SOL    HW1 7351   5.071   9.224   1.776
 1818SOL    HW2 7352   4.996   9.316   1.682
 1819SOL     OW 7353   1.465   0.770   2.407
 1819SOL    HW1 7354   1.519   0.736   2.336
 1819SOL    HW2 7355   1.385   0.718   2.404
 1820SOL     OW 7356   5.275   5.830  12.883
 1820SOL    HW1 7357   5.314   5.778  12.813
 1820SOL    HW2 7358   5.285   5.921  12.854
 1821SOL     OW 7359   2.650   1.961  12.649
 1821SOL    HW1 7360   2.578   1.898  12.652
 1821SOL    HW2 7361   2.693   1.944  12.565
 1822SOL     OW 7362  12.495   7.924   7.585
 1822SOL    HW1 7363  12.422   7.982   7.564
 1822SOL    HW2 7364  12.469   7.880   7.666
 1823SOL     OW 7365  13.042  13.606  14.578
 1823SOL    HW1 7366  13.027  13.647  14.664
 1823SOL    HW2 7367  12.999  13.520  14.585
 1824SOL     OW 7368   2.590  14.269   4.802
 1824SOL    HW1 7369   2.606  14.179   4.772
 1824SOL    HW2 7370   2.551  14.258   4.889
 1825SOL     OW 7371   7.746   4.008   4.184
 1825SOL    HW1 7372   7.718   4.080   4.240
 1825SOL    HW2 7373   7.830   4.036   4.149
 1826SOL     OW 7374  14.177   2.407   9.760
 1826SOL    HW1 7375  14.248   2.395   9.697
 1826SOL    HW2 7376  14.110   2.456   9.713
 1827SOL     OW 7377   2.512   8.805   7.768
 1827SOL    HW1 7378   2.504   8.857   7.848
 1827SOL    HW2 7379   2.598   8.763   7.775
 1828SOL     OW 7380   6.622  14.529   9.445
 1828SOL    HW1 7381   6.602  14.619   9.420
 1828SOL    HW2 7382   6.694  14.536   9.508
 1829SOL     OW 7383   4.622   1.732   8.865
 1829SOL    HW1 7384   4.616   1.637   8.869
 1829SOL    HW2 7385   4.705   1.753   8.909
 1830SOL     OW 7386  11.067   4.431  10.438
 1830SOL    HW1 7387  11.010   4.386  10.501
 1830SOL    HW2 7388  11.153   4.432  10.479
 1831SOL     OW 7389   9.779   4.746   7.234
 1831SOL    HW1 7390   9.816   4.823   7.277
 1831SOL    HW2 7391   9.736   4.698   7.305
 1832SOL     OW 7392   9.738   0.192   9.752
 1832SOL    HW1 7393   9.821   0.237   9.736
 1832SOL    HW2 7394   9.716   0.153   9.668
 1833SOL     OW 7395   7.196   0.412  10.784
 1833SOL    HW1 7396   7.289   0.404  10.807
 1833SOL    HW2 7397   7.191   0.382  10.693
 1834SOL     OW 7398  13.819  12.380  13.907
 1834SOL    HW1 7399  13.854  12.445  13.846
 1834SOL    HW2 7400  13.891  12.320  13.922
 1835SOL     OW 7401   4.091  13.226   3.678
 1835SOL    HW1 7402   4.055  13.137   3.676
 1835SOL    HW2 7403   4.071  13.258   3.766
 1836SOL     OW 7404  12.151   6.704  10.538
 1836SOL    HW1 7405  12.108   6.628  10.576
 1836SOL    HW2 7406  12.162   6.681  10.446
 1837SOL     OW 7407   4.584   8.712   5.815
 1837SOL    HW1 7408   4.589   8.618   5.836
 1837SOL    HW2 7409   4.609   8.717   5.723
 1838SOL     OW 7410   3.065   0.331   1.974
 1838SOL    HW1 7411   3.044   0.280   2.052
 1838SOL    HW2 7412   2.993   0.312   1.914
 1839SOL     OW 7413  12.253   6.777   7.107
 1839SOL    HW1 7414  12.175   6.722   7.107
 1839SOL    HW2 7415  12.228   6.855   7.156
 1840SOL     OW 7416   1.817   9.974   1.320
 1840SOL    HW1 7417   1.893   9.932   1.361
 1840SOL    HW2 7418   1.853  10.049   1.273
 1841SOL     OW 7419   4.744   6.318   0.546
 1841SOL    HW1 7420   4.818   6.280   0.498
 1841SOL    HW2 7421   4.667   6.273   0.512
 1842SOL     OW 7422   9.462   3.290   5.779
 1842SOL    HW1 7423   9.423   3.254   5.699
 1842SOL    HW2 7424   9.477   3.382   5.759
 1843SOL     OW 7425  11.940   2.943  13.829
 1843SOL    HW1 7426  11.989   3.018  13.863
 1843SOL    HW2 7427  11.922   2.967  13.738
 1844SOL     OW 7428  10.648   6.764   5.635
 1844SOL    HW1 7429  10.731   6.804   5.662
 1844SOL    HW2 7430  10.584   6.834   5.644
 1845SOL     OW 7431   7.323   9.045   6.005
 1845SOL    HW1 7432   7.401   9.024   5.954
 1845SOL    HW2 7433   7.356   9.057   6.094
 1846SOL     OW 7434   0.989  11.039   8.464
 1846SOL    HW1 7435   1.030  10.954   8.448
 1846SOL    HW2 7436   1.043  11.101   8.415
 1847SOL     OW 7437   0.440   3.367   7.406
 1847SOL    HW1 7438   0.449   3.410   7.491
 1847SOL    HW2 7439   0.530   3.353   7.377
 1848SOL     OW 7440   9.065  12.777   7.453
 1848SOL    HW1 7441   8.971  12.796   7.446
 1848SOL    HW2 7442   9.104  12.858   7.485
 1849SOL     OW 7443   5.681   3.467  10.306
 1849SOL    HW1 7444   5.768   3.439  10.277
 1849SOL    HW2 7445   5.651   3.527  10.238
 1850SOL     OW 7446   3.280   5.303   2.511
 1850SOL    HW1 7447   3.315   5.347   2.433
 1850SOL    HW2 7448   3.352   5.303   2.573
 1851SOL     OW 7449  11.489  10.606   5.599
 1851SOL    HW1 7450  11.564  10.571   5.647
 1851SOL    HW2 7451  11.493  10.701   5.615
 1852SOL     OW 7452  10.664  14.156   4.933
 1852SOL    HW1 7453  10.627  14.229   4.983
 1852SOL    HW2 7454  10.723  14.113   4.994
 1853SOL     OW 7455  10.769   3.388   0.624
 1853SOL    HW1 7456  10.707   3.438   0.570
 1853SOL    HW2 7457  10.831   3.453   0.656
 1854SOL     OW 7458   0.995  11.783   9.570
 1854SOL    HW1 7459   1.037  11.744   9.646
 1854SOL    HW2 7460   1.010  11.721   9.499
 1855SOL     OW 7461   7.370  13.082   6.138
 1855SOL    HW1 7462   7.411  13.112   6.057
 1855SOL    HW2 7463   7.395  13.148   6.203
 1856SOL     OW 7464   8.596   9.545   4.378
 1856SOL    HW1 7465   8.564   9.634   4.361
 1856SOL    HW2 7466   8.596   9.502   4.293
 1857SOL     OW 7467   8.493  12.807  14.578
 1857SOL    HW1 7468   8.491  12.767  14.665
 1857SOL    HW2 7469   8.544  12.746  14.525
 1858SOL     OW 7470   5.264  14.261  14.490
 1858SOL    HW1 7471   5.332  14.196  14.469
 1858SOL    HW2 7472   5.189  14.208  14.519
 1859SOL     OW 7473  14.724   4.175   7.492
 1859SOL    HW1 7474  14.670   4.111   7.539
 1859SOL    HW2 7475  14.800   4.124   7.462
 1860SOL     OW 7476   4.855   5.191   1.171
 1860SOL    HW1 7477   4.827   5.101   1.184
 1860SOL    HW2 7478   4.944   5.195   1.208
 1861SOL     OW 7479  10.281   1.574   8.818
 1861SOL    HW1 7480  10.277   1.481   8.796
 1861SOL    HW2 7481  10.371   1.599   8.799
 1862SOL     OW 7482   4.414  10.217   4.131
 1862SOL    HW1 7483   4.378  10.203   4.043
 1862SOL    HW2 7484   4.351  10.276   4.173
 1863SOL     OW 7485  11.705   4.103   0.630
 1863SOL    HW1 7486  11.731   4.168   0.695
 1863SOL    HW2 7487  11.693   4.153   0.549
 1864SOL     OW 7488   8.644  10.818  12.164
 1864SOL    HW1 7489   8.556  10.806  12.131
 1864SOL    HW2 7490   8.674  10.731  12.188
 1865SOL     OW 7491   9.989  11.381  11.934
 1865SOL    HW1 7492   9.973  11.472  11.959
 1865SOL    HW2 7493   9.950  11.372  11.847
 1866SOL     OW 7494  13.400   4.372  11.756
 1866SOL    HW1 7495  13.436   4.404  11.674
 1866SOL    HW2 7496  13.396   4.449  11.813
 1867SOL     OW 7497   2.559   5.458  13.593
 1867SOL    HW1 7498   2.563   5.532  13.653
 1867SOL    HW2 7499   2.642   5.411  13.607
 1868SOL     OW 7500   5.199   3.387   9.558
 1868SOL    HW1 7501   5.143   3.331   9.505
 1868SOL    HW2 7502   5.195   3.473   9.515
 1869SOL     OW 7503  13.871   3.616  14.357
 1869SOL    HW1 7504  13.918   3.582  14.281
 1869SOL    HW2 7505  13.788   3.648  14.320
 1870SOL     OW 7506   2.520   3.638  12.512
 1870SOL    HW1 7507   2.446   3.685  12.550
 1870SOL    HW2 7508   2.483   3.554  12.483
 1871SOL     OW 7509   5.493   4.577  12.766
 1871SOL    HW1 7510   5.433   4.540  12.830
 1871SOL    HW2 7511   5.448   4.653  12.731
 1872SOL     OW 7512   8.289  14.364   7.579
 1872SOL    HW1 7513   8.280  14.282   7.530
 1872SOL    HW2 7514   8.262  14.342   7.668
 1873SOL     OW 7515  12.985  12.160   5.724
 1873SOL    HW1 7516  12.947  12.093   5.782
 1873SOL    HW2 7517  13.054  12.114   5.676
 1874SOL     OW 7518   6.467   0.349   6.915
 1874SOL    HW1 7519   6.496   0.418   6.975
 1874SOL    HW2 7520   6.406   0.296   6.968
 1875SOL     OW 7521  13.106   9.137   1.104
 1875SOL    HW1 7522  13.157   9.058   1.121
 1875SOL    HW2 7523  13.172   9.203   1.082
 1876SOL     OW 7524  10.600  10.137  13.742
 1876SOL    HW1 7525  10.642  10.223  13.743
 1876SOL    HW2 7526  10.509  10.155  13.766
 1877SOL     OW 7527   9.964   0.695  11.364
 1877SOL    HW1 7528   9.991   0.776  11.320
 1877SOL    HW2 7529   9.930   0.640  11.294
 1878SOL     OW 7530   9.561   2.117   4.681
 1878SOL    HW1 7531   9.498   2.126   4.753
 1878SOL    HW2 7532   9.566   2.022   4.665
 1879SOL     OW 7533   0.349   5.500  11.098
 1879SOL    HW1 7534   0.339   5.595  11.085
 1879SOL    HW2 7535   0.259   5.469  11.111
 1880SOL     OW 7536   7.451   6.116   7.675
 1880SOL    HW1 7537   7.499   6.199   7.675
 1880SOL    HW2 7538   7.360   6.141   7.686
 1881SOL     OW 7539  12.967   4.296   1.420
 1881SOL    HW1 7540  12.984   4.335   1.334
 1881SOL    HW2 7541  13.003   4.207   1.413
 1882SOL     OW 7542   8.050   9.725   2.698
 1882SOL    HW1 7543   8.114   9.655   2.704
 1882SOL    HW2 7544   8.045   9.746   2.605
 1883SOL     OW 7545   5.911   1.495   4.002
 1883SOL    HW1 7546   5.948   1.492   4.090
 1883SOL    HW2 7547   5.960   1.429   3.953
 1884SOL     OW 7548   4.684  10.885   4.598
 1884SOL    HW1 7549   4.740  10.867   4.523
 1884SOL    HW2 7550   4.595  10.876   4.565
 1885SOL     OW 7551  12.105   2.273   3.455
 1885SOL    HW1 7552  12.106   2.223   3.536
 1885SOL    HW2 7553  12.136   2.360   3.479
 1886SOL     OW 7554   6.398   9.246   7.362
 1886SOL    HW1 7555   6.381   9.245   7.268
 1886SOL    HW2 7556   6.416   9.154   7.384
 1887SOL     OW 7557   8.966   9.992   5.721
 1887SOL    HW1 7558   8.981  10.076   5.678
 1887SOL    HW2 7559   9.043   9.980   5.777
 1888SOL     OW 7560   3.830   9.779   0.745
 1888SOL    HW1 7561   3.799   9.689   0.745
 1888SOL    HW2 7562   3.757   9.831   0.712
 1889SOL     OW 7563  13.421  12.313   8.257
 1889SOL    HW1 7564  13.352  12.342   8.198
 1889SOL    HW2 7565  13.498  12.303   8.201
 1890SOL     OW 7566   3.462   4.302   4.073
 1890SOL    HW1 7567   3.381   4.262   4.041
 1890SOL    HW2 7568   3.434   4.385   4.113
 1891SOL     OW 7569  12.938   5.897   1.722
 1891SOL    HW1 7570  12.962   5.862   1.808
 1891SOL    HW2 7571  12.938   5.992   1.733
 1892SOL     OW 7572   1.617   8.728   1.808
 1892SOL    HW1 7573   1.659   8.800   1.853
 1892SOL    HW2 7574   1.656   8.728   1.720
 1893SOL     OW 7575   1.168   0.630  14.022
 1893SOL    HW1 7576   1.181   0.675  14.105
 1893SOL    HW2 7577   1.078   0.649  13.997
 1894SOL     OW 7578   9.466  14.410   6.933
 1894SOL    HW1 7579   9.371  14.421   6.932
 1894SOL    HW2 7580   9.497  14.473   6.998
 1895SOL     OW 7581   4.065   5.236  13.346
 1895SOL    HW1 7582   4.073   5.169  13.278
 1895SOL    HW2 7583   4.149   5.232  13.393
 1896SOL     OW 7584   9.793  12.846   6.403
 1896SOL    HW1 7585   9.885  12.862   6.380
 1896SOL    HW2 7586   9.784  12.885   6.490
 1897SOL     OW 7587   6.683   1.941   8.612
 1897SOL    HW1 7588   6.592   1.966   8.622
 1897SOL    HW2 7589   6.692   1.861   8.665
 1898SOL     OW 7590   5.866   3.978   4.148
 1898SOL    HW1 7591   5.948   4.009   4.108
 1898SOL    HW2 7592   5.818   4.057   4.169
 1899SOL     OW 7593   1.889   4.736   6.674
 1899SOL    HW1 7594   1.962   4.743   6.736
 1899SOL    HW2 7595   1.861   4.645   6.679
 1900SOL     OW 7596  11.365  11.988   3.518
 1900SOL    HW1 7597  11.456  11.985   3.490
 1900SOL    HW2 7598  11.365  12.050   3.591
 1901SOL     OW 7599   5.797   2.048   3.039
 1901SOL    HW1 7600   5.840   1.970   3.073
 1901SOL    HW2 7601   5.775   2.026   2.949
 1902SOL     OW 7602  12.878   1.890   6.014
 1902SOL    HW1 7603  12.850   1.834   5.941
 1902SOL    HW2 7604  12.941   1.951   5.976
 1903SOL     OW 7605   6.633   3.604   9.937
 1903SOL    HW1 7606   6.594   3.531   9.985
 1903SOL    HW2 7607   6.718   3.571   9.908
 1904SOL     OW 7608  14.217   5.337   5.567
 1904SOL    HW1 7609  14.235   5.350   5.660
 1904SOL    HW2 7610  14.231   5.424   5.528
 1905SOL     OW 7611   6.514   3.016   2.113
 1905SOL    HW1 7612   6.524   3.055   2.200
 1905SOL    HW2 7613   6.601   2.981   2.092
 1906SOL     OW 7614   8.383   4.046   6.841
 1906SOL    HW1 7615   8.342   4.007   6.919
 1906SOL    HW2 7616   8.346   4.135   6.838
 1907SOL     OW 7617   5.853   3.699   4.084
 1907SOL    HW1 7618   5.922   3.647   4.124
 1907SOL    HW2 7619   5.877   3.790   4.102
 1908SOL     OW 7620   0.679  10.725   9.924
 1908SOL    HW1 7621   0.725  10.775   9.991
 1908SOL    HW2 7622   0.614  10.673   9.971
 1909SOL     OW 7623   8.167   8.599  10.344
 1909SOL    HW1 7624   8.171   8.603  10.249
 1909SOL    HW2 7625   8.217   8.521  10.367
 1910SOL     OW 7626   0.458   7.238   2.859
 1910SOL    HW1 7627   0.481   7.330   2.854
 1910SOL    HW2 7628   0.377   7.230   2.809
 1911SOL     OW 7629  14.593   4.231  13.760
 1911SOL    HW1 7630  14.615   4.152  13.711
 1911SOL    HW2 7631  14.652   4.298  13.726
 1912SOL     OW 7632   2.202   9.296   4.819
 1912SOL    HW1 7633   2.273   9.355   4.794
 1912SOL    HW2 7634   2.183   9.317   4.910
 1913SOL     OW 7635   2.019   8.656   3.661
 1913SOL    HW1 7636   1.937   8.705   3.667
 1913SOL    HW2 7637   2.030   8.615   3.747
 1914SOL     OW 7638   4.573   7.974   4.230
 1914SOL    HW1 7639   4.618   7.890   4.217
 1914SOL    HW2 7640   4.624   8.036   4.178
 1915SOL     OW 7641  10.659  11.926  10.855
 1915SOL    HW1 7642  10.748  11.902  10.828
 1915SOL    HW2 7643  10.670  12.004  10.909
 1916SOL     OW 7644   5.967  10.306   6.267
 1916SOL    HW1 7645   5.935  10.371   6.330
 1916SOL    HW2 7646   5.943  10.221   6.305
 1917SOL     OW 7647   8.474   9.128   5.217
 1917SOL    HW1 7648   8.445   9.214   5.184
 1917SOL    HW2 7649   8.532   9.095   5.149
 1918SOL     OW 7650  13.418   8.024   2.684
 1918SOL    HW1 7651  13.418   7.929   2.698
 1918SOL    HW2 7652  13.375   8.060   2.761
 1919SOL     OW 7653  13.323  11.772  13.507
 1919SOL    HW1 7654  13.410  11.746  13.540
 1919SOL    HW2 7655  13.284  11.689  13.479
 1920SOL     OW 7656   2.111   9.212   6.482
 1920SOL    HW1 7657   2.184   9.270   6.502
 1920SOL    HW2 7658   2.150   9.139   6.433
 1921SOL     OW 7659  14.611   5.474   2.797
 1921SOL    HW1 7660  14.667   5.521   2.736
 1921SOL    HW2 7661  14.640   5.503   2.884
 1922SOL     OW 7662  11.685   3.293  10.161
 1922SOL    HW1 7663  11.689   3.377  10.206
 1922SOL    HW2 7664  11.594   3.286  10.130
 1923SOL     OW 7665   7.106  12.360   9.003
 1923SOL    HW1 7666   7.194  12.323   9.009
 1923SOL    HW2 7667   7.049  12.284   8.995
 1924SOL     OW 7668  14.207   9.193   5.508
 1924SOL    HW1 7669  14.222   9.287   5.498
 1924SOL    HW2 7670  14.199   9.160   5.419
 1925SOL     OW 7671   0.467  11.528   1.661
 1925SOL    HW1 7672   0.438  11.457   1.604
 1925SOL    HW2 7673   0.386  11.571   1.688
 1926SOL     OW 7674   3.896   0.999  14.630
 1926SOL    HW1 7675   3.904   1.075  14.687
 1926SOL    HW2 7676   3.890   1.037  14.542
 1927SOL     OW 7677   9.821   8.624   5.039
 1927SOL    HW1 7678   9.846   8.695   5.098
 1927SOL    HW2 7679   9.740   8.655   4.997
 1928SOL     OW 7680   0.115  12.984  14.419
 1928SOL    HW1 7681   0.047  13.049  14.401
 1928SOL    HW2 7682   0.156  12.967  14.334
 1929SOL     OW 7683  13.116  14.560   2.852
 1929SOL    HW1 7684  13.206  14.585   2.831
 1929SOL    HW2 7685  13.066  14.582   2.773
 1930SOL     OW 7686   8.040   4.161   7.699
 1930SOL    HW1 7687   8.006   4.250   7.708
 1930SOL    HW2 7688   8.017   4.136   7.610
 1931SOL     OW 7689  13.884   2.532   7.263
 1931SOL    HW1 7690  13.980   2.536   7.262
 1931SOL    HW2 7691  13.863   2.463   7.325
 1932SOL     OW 7692   7.451   0.499   1.584
 1932SOL    HW1 7693   7.493   0.463   1.662
 1932SOL    HW2 7694   7.513   0.484   1.513
 1933SOL     OW 7695   3.341   5.270   0.988
 1933SOL    HW1 7696   3.305   5.355   1.014
 1933SOL    HW2 7697   3.425   5.266   1.034
 1934SOL     OW 7698  11.672   3.498   1.478
 1934SOL    HW1 7699  11.631   3.527   1.397
 1934SOL    HW2 7700  11.622   3.541   1.547
 1935SOL     OW 7701   1.918  10.730   6.290
 1935SOL    HW1 7702   1.949  10.754   6.203
 1935SOL    HW2 7703   1.854  10.798   6.312
 1936SOL     OW 7704   0.546   2.804   8.774
 1936SOL    HW1 7705   0.467   2.799   8.828
 1936SOL    HW2 7706   0.522   2.759   8.692
 1937SOL     OW 7707   9.626   1.252   0.694
 1937SOL    HW1 7708   9.633   1.336   0.649
 1937SOL    HW2 7709   9.712   1.212   0.684
 1938SOL     OW 7710  13.640   9.505  10.913
 1938SOL    HW1 7711  13.623   9.411  10.916
 1938SOL    HW2 7712  13.573   9.544  10.969
 1939SOL     OW 7713   3.622   0.364  11.143
 1939SOL    HW1 7714   3.713   0.344  11.165
 1939SOL    HW2 7715   3.625   0.396  11.053
 1940SOL     OW 7716  11.569  14.050   4.676
 1940SOL    HW1 7717  11.646  14.106   4.681
 1940SOL    HW2 7718  11.495  14.109   4.686
 1941SOL     OW 7719   4.586   7.867   2.952
 1941SOL    HW1 7720   4.574   7.774   2.931
 1941SOL    HW2 7721   4.502   7.894   2.988
 1942SOL     OW 7722  10.782   8.923  10.700
 1942SOL    HW1 7723  10.715   8.912  10.632
 1942SOL    HW2 7724  10.734   8.958  10.775
 1943SOL     OW 7725   1.037  11.559   9.346
 1943SOL    HW1 7726   1.000  11.503   9.278
 1943SOL    HW2 7727   1.038  11.504   9.425
 1944SOL     OW 7728   8.189  10.873  11.021
 1944SOL    HW1 7729   8.095  10.871  11.004
 1944SOL    HW2 7730   8.204  10.800  11.081
 1945SOL     OW 7731  10.398   3.051   6.398
 1945SOL    HW1 7732  10.424   2.991   6.328
 1945SOL    HW2 7733  10.430   3.009   6.478
 1946SOL     OW 7734   4.047  12.728   7.734
 1946SOL    HW1 7735   4.142  12.724   7.751
 1946SOL    HW2 7736   4.014  12.791   7.797
 1947SOL     OW 7737  14.335  13.785   7.740
 1947SOL    HW1 7738  14.424  13.764   7.769
 1947SOL    HW2 7739  14.294  13.829   7.815
 1948SOL     OW 7740  11.887   0.026   8.348
 1948SOL    HW1 7741  11.816  14.851   8.376
 1948SOL    HW2 7742  11.866   0.111   8.387
 1949SOL     OW 7743  11.327  13.880   9.384
 1949SOL    HW1 7744  11.330  13.790   9.349
 1949SOL    HW2 7745  11.296  13.933   9.310
 1950SOL     OW 7746  10.031   9.934   9.149
 1950SOL    HW1 7747  10.001  10.011   9.198
 1950SOL    HW2 7748   9.965   9.922   9.080
 1951SOL     OW 7749   2.060  12.097   2.776
 1951SOL    HW1 7750   2.120  12.049   2.719
 1951SOL    HW2 7751   2.082  12.189   2.762
 1952SOL     OW 7752   7.640   1.489  10.156
 1952SOL    HW1 7753   7.596   1.406  10.173
 1952SOL    HW2 7754   7.579   1.556  10.187
 1953SOL     OW 7755  14.373   2.715  11.140
 1953SOL    HW1 7756  14.326   2.727  11.058
 1953SOL    HW2 7757  14.414   2.801  11.157
 1954SOL     OW 7758  13.154  12.554   0.051
 1954SOL    HW1 7759  13.164  12.459   0.064
 1954SOL    HW2 7760  13.242  12.583   0.027
 1955SOL     OW 7761   4.905   3.388   1.972
 1955SOL    HW1 7762   4.862   3.473   1.967
 1955SOL    HW2 7763   4.978   3.403   2.033
 1956SOL     OW 7764   6.168   7.136   6.636
 1956SOL    HW1 7765   6.205   7.052   6.663
 1956SOL    HW2 7766   6.228   7.169   6.569
 1957SOL     OW 7767  12.347   4.327   8.022
 1957SOL    HW1 7768  12.341   4.314   8.117
 1957SOL    HW2 7769  12.337   4.239   7.985
 1958SOL     OW 7770  14.248   0.468   9.574
 1958SOL    HW1 7771  14.248   0.446   9.480
 1958SOL    HW2 7772  14.156   0.460   9.600
 1959SOL     OW 7773  13.773   4.609   3.617
 1959SOL    HW1 7774  13.854   4.642   3.657
 1959SOL    HW2 7775  13.707   4.674   3.641
 1960SOL     OW 7776   2.800   4.954   0.163
 1960SOL    HW1 7777   2.724   4.943   0.105
 1960SOL    HW2 7778   2.826   4.864   0.183
 1961SOL     OW 7779   0.721  13.134  13.826
 1961SOL    HW1 7780   0.815  13.149  13.819
 1961SOL    HW2 7781   0.690  13.205  13.883
 1962SOL     OW 7782   9.446   3.831  13.177
 1962SOL    HW1 7783   9.353   3.849  13.192
 1962SOL    HW2 7784   9.468   3.883  13.100
 1963SOL     OW 7785   1.891   5.168  13.516
 1963SOL    HW1 7786   1.943   5.110  13.571
 1963SOL    HW2 7787   1.944   5.247  13.506
 1964SOL     OW 7788  11.218   3.914  12.060
 1964SOL    HW1 7789  11.164   3.982  12.019
 1964SOL    HW2 7790  11.239   3.855  11.988
 1965SOL     OW 7791  11.853   0.907   4.601
 1965SOL    HW1 7792  11.808   0.898   4.517
 1965SOL    HW2 7793  11.788   0.947   4.659
 1966SOL     OW 7794   3.756   2.789   4.973
 1966SOL    HW1 7795   3.768   2.856   4.906
 1966SOL    HW2 7796   3.665   2.797   5.000
 1967SOL     OW 7797   8.989   4.310   7.145
 1967SOL    HW1 7798   8.957   4.290   7.057
 1967SOL    HW2 7799   8.992   4.406   7.148
 1968SOL     OW 7800  11.700  12.659   3.547
 1968SOL    HW1 7801  11.658  12.697   3.470
 1968SOL    HW2 7802  11.704  12.732   3.610
 1969SOL     OW 7803  12.719   7.789   2.321
 1969SOL    HW1 7804  12.688   7.784   2.230
 1969SOL    HW2 7805  12.766   7.872   2.325
 1970SOL     OW 7806   4.926   8.852   8.584
 1970SOL    HW1 7807   4.988   8.906   8.535
 1970SOL    HW2 7808   4.954   8.762   8.567
 1971SOL     OW 7809  13.968  10.611   1.796
 1971SOL    HW1 7810  14.054  10.589   1.760
 1971SOL    HW2 7811  13.916  10.638   1.720
 1972SOL     OW 7812   8.329  10.311   5.024
 1972SOL    HW1 7813   8.341  10.225   5.064
 1972SOL    HW2 7814   8.280  10.293   4.944
 1973SOL     OW 7815   6.230   4.189   0.011
 1973SOL    HW1 7816   6.221   4.096  14.872
 1973SOL    HW2 7817   6.324   4.202   0.022
 1974SOL     OW 7818  13.331   5.602   5.008
 1974SOL    HW1 7819  13.294   5.515   4.995
 1974SOL    HW2 7820  13.274   5.660   4.958
 1975SOL     OW 7821  14.602   1.226   5.653
 1975SOL    HW1 7822  14.655   1.201   5.728
 1975SOL    HW2 7823  14.542   1.153   5.639
 1976SOL     OW 7824   7.085   0.944   6.610
 1976SOL    HW1 7825   7.108   1.036   6.620
 1976SOL    HW2 7826   6.995   0.945   6.578
 1977SOL     OW 7827  12.116  14.689  11.100
 1977SOL    HW1 7828  12.092  14.608  11.057
 1977SOL    HW2 7829  12.036  14.741  11.100
 1978SOL     OW 7830   2.467   9.217  13.857
 1978SOL    HW1 7831   2.537   9.281  13.872
 1978SOL    HW2 7832   2.465   9.165  13.937
 1979SOL     OW 7833  14.240  13.251   9.809
 1979SOL    HW1 7834  14.145  13.246   9.799
 1979SOL    HW2 7835  14.257  13.216   9.896
 1980SOL     OW 7836  13.502  13.483  11.094
 1980SOL    HW1 7837  13.454  13.558  11.059
 1980SOL    HW2 7838  13.520  13.428  11.018
 1981SOL     OW 7839  11.932   3.157  14.196
 1981SOL    HW1 7840  12.019   3.120  14.181
 1981SOL    HW2 7841  11.917   3.215  14.121
 1982SOL     OW 7842  13.121   2.737  10.894
 1982SOL    HW1 7843  13.170   2.691  10.962
 1982SOL    HW2 7844  13.111   2.826  10.929
 1983SOL     OW 7845   8.973   6.016  14.548
 1983SOL    HW1 7846   9.014   5.931  14.563
 1983SOL    HW2 7847   9.047   6.075  14.529
 1984SOL     OW 7848  10.201   6.674  11.401
 1984SOL    HW1 7849  10.216   6.768  11.391
 1984SOL    HW2 7850  10.284   6.640  11.434
 1985SOL     OW 7851   0.239  14.292   3.203
 1985SOL    HW1 7852   0.218  14.353   3.132
 1985SOL    HW2 7853   0.154  14.266   3.238
 1986SOL     OW 7854  14.668   4.822  12.616
 1986SOL    HW1 7855  14.581   4.814  12.576
 1986SOL    HW2 7856  14.702   4.733  12.617
 1987SOL     OW 7857   9.352   5.727   8.161
 1987SOL    HW1 7858   9.334   5.791   8.092
 1987SOL    HW2 7859   9.416   5.770   8.218
 1988SOL     OW 7860  14.238  14.038   2.832
 1988SOL    HW1 7861  14.226  13.993   2.916
 1988SOL    HW2 7862  14.320  14.003   2.798
 1989SOL     OW 7863   3.265  10.043   0.036
 1989SOL    HW1 7864   3.346   9.992   0.030
 1989SOL    HW2 7865   3.211   9.995   0.099
 1990SOL     OW 7866   9.767   9.766   5.638
 1990SOL    HW1 7867   9.831   9.837   5.641
 1990SOL    HW2 7868   9.737   9.756   5.728
 1991SOL     OW 7869  10.134   1.154   3.432
 1991SOL    HW1 7870  10.162   1.156   3.523
 1991SOL    HW2 7871  10.194   1.213   3.387
 1992SOL     OW 7872  13.395  10.688   8.721
 1992SOL    HW1 7873  13.410  10.714   8.812
 1992SOL    HW2 7874  13.339  10.756   8.685
 1993SOL     OW 7875   0.775  10.497   3.751
 1993SOL    HW1 7876   0.707  10.477   3.687
 1993SOL    HW2 7877   0.756  10.439   3.825
 1994SOL     OW 7878  12.750   7.486   1.313
 1994SOL    HW1 7879  12.804   7.408   1.305
 1994SOL    HW2 7880  12.662   7.453   1.333
 1995SOL     OW 7881   3.281  14.149   5.232
 1995SOL    HW1 7882   3.346  14.078   5.236
 1995SOL    HW2 7883   3.333  14.229   5.241
 1996SOL     OW 7884   7.705   3.900   2.586
 1996SOL    HW1 7885   7.630   3.840   2.588
 1996SOL    HW2 7886   7.678   3.971   2.528
 1997SOL     OW 7887   4.544   0.829   1.553
 1997SOL    HW1 7888   4.632   0.842   1.516
 1997SOL    HW2 7889   4.556   0.761   1.619
 1998SOL     OW 7890  12.464   4.496   1.361
 1998SOL    HW1 7891  12.477   4.458   1.274
 1998SOL    HW2 7892  12.369   4.496   1.374
 1999SOL     OW 7893   5.598   3.144   3.147
 1999SOL    HW1 7894   5.526   3.177   3.200
 1999SOL    HW2 7895   5.615   3.213   3.083
 2000SOL     OW 7896   1.804   0.369   9.359
 2000SOL    HW1 7897   1.826   0.423   9.435
 2000SOL    HW2 7898   1.715   0.397   9.335
 2001SOL     OW 7899  14.070   2.984  14.786
 2001SOL    HW1 7900  14.088   2.915  14.849
 2001SOL    HW2 7901  13.983   3.017  14.809
 2002SOL     OW 7902  11.785   6.839  12.822
 2002SOL    HW1 7903  11.811   6.906  12.759
 2002SOL    HW2 7904  11.868   6.802  12.853
 2003SOL     OW 7905   8.135  11.941  13.088
 2003SOL    HW1 7906   8.160  11.929  12.996
 2003SOL    HW2 7907   8.139  12.036  13.101
 2004SOL     OW 7908   4.264   7.448   3.293
 2004SOL    HW1 7909   4.344   7.463   3.242
 2004SOL    HW2 7910   4.286   7.481   3.381
 2005SOL     OW 7911   4.560   3.760  10.270
 2005SOL    HW1 7912   4.570   3.696  10.200
 2005SOL    HW2 7913   4.475   3.740  10.309
 2006SOL     OW 7914   3.766   5.213   4.599
 2006SOL    HW1 7915   3.680   5.204   4.638
 2006SOL    HW2 7916   3.789   5.305   4.612
 2007SOL     OW 7917   6.071  10.492   8.971
 2007SOL    HW1 7918   6.015  10.558   8.929
 2007SOL    HW2 7919   6.135  10.469   8.904
 2008SOL     OW 7920   1.346   3.154   2.180
 2008SOL    HW1 7921   1.283   3.143   2.109
 2008SOL    HW2 7922   1.328   3.081   2.240
 2009SOL     OW 7923   7.862  14.338   8.368
 2009SOL    HW1 7924   7.835  14.428   8.350
 2009SOL    HW2 7925   7.945  14.346   8.416
 2010SOL     OW 7926  10.614  10.550   4.122
 2010SOL    HW1 7927  10.564  10.468   4.128
 2010SOL    HW2 7928  10.551  10.618   4.144
 2011SOL     OW 7929   6.365  11.768   9.087
 2011SOL    HW1 7930   6.384  11.677   9.065
 2011SOL    HW2 7931   6.422  11.818   9.029
 2012SOL     OW 7932  11.821  10.429   2.764
 2012SOL    HW1 7933  11.753  10.476   2.812
 2012SOL    HW2 7934  11.852  10.362   2.825
 2013SOL     OW 7935   3.645   1.129   4.636
 2013SOL    HW1 7936   3.635   1.111   4.543
 2013SOL    HW2 7937   3.561   1.168   4.662
 2014SOL     OW 7938   2.883  11.330   5.302
 2014SOL    HW1 7939   2.876  11.426   5.304
 2014SOL    HW2 7940   2.968  11.312   5.342
 2015SOL     OW 7941   7.113  13.767   9.010
 2015SOL    HW1 7942   7.120  13.802   8.921
 2015SOL    HW2 7943   7.090  13.675   8.998
 2016SOL     OW 7944   4.475   8.256  12.219
 2016SOL    HW1 7945   4.535   8.203  12.166
 2016SOL    HW2 7946   4.417   8.192  12.260
 2017SOL     OW 7947   2.838  13.217   0.514
 2017SOL    HW1 7948   2.911  13.263   0.558
 2017SOL    HW2 7949   2.871  13.128   0.500
 2018SOL     OW 7950  14.040  12.579   8.858
 2018SOL    HW1 7951  14.041  12.484   8.870
 2018SOL    HW2 7952  14.060  12.592   8.766
 2019SOL     OW 7953   8.249   2.058   9.852
 2019SOL    HW1 7954   8.195   2.137   9.839
 2019SOL    HW2 7955   8.254   2.018   9.765
 2020SOL     OW 7956   3.641   3.962  13.363
 2020SOL    HW1 7957   3.552   3.998  13.362
 2020SOL    HW2 7958   3.629   3.872  13.392
 2021SOL     OW 7959  12.079   2.189   1.477
 2021SOL    HW1 7960  12.081   2.101   1.440
 2021SOL    HW2 7961  12.026   2.240   1.415
 2022SOL     OW 7962  14.604  11.011   4.270
 2022SOL    HW1 7963  14.627  11.102   4.293
 2022SOL    HW2 7964  14.637  11.000   4.181
 2023SOL     OW 7965  12.518   4.587   1.845
 2023SOL    HW1 7966  12.537   4.573   1.753
 2023SOL    HW2 7967  12.543   4.505   1.887
 2024SOL     OW 7968   4.932   3.242  10.947
 2024SOL    HW1 7969   4.879   3.321  10.938
 2024SOL    HW2 7970   5.020   3.270  10.921
 2025SOL     OW 7971   0.461  11.198  10.715
 2025SOL    HW1 7972   0.379  11.209  10.764
 2025SOL    HW2 7973   0.434  11.176  10.626
 2026SOL     OW 7974   0.534   1.422   0.649
 2026SOL    HW1 7975   0.462   1.474   0.614
 2026SOL    HW2 7976   0.585   1.397   0.572
 2027SOL     OW 7977  13.169   4.187  13.942
 2027SOL    HW1 7978  13.174   4.251  14.012
 2027SOL    HW2 7979  13.098   4.218  13.885
 2028SOL     OW 7980  14.399   5.431   3.647
 2028SOL    HW1 7981  14.343   5.367   3.605
 2028SOL    HW2 7982  14.423   5.391   3.731
 2029SOL     OW 7983  10.835   2.133   3.136
 2029SOL    HW1 7984  10.857   2.074   3.208
 2029SOL    HW2 7985  10.778   2.199   3.176
 2030SOL     OW 7986  14.061   1.839  14.292
 2030SOL    HW1 7987  14.073   1.908  14.227
 2030SOL    HW2 7988  14.069   1.758  14.243
 2031SOL     OW 7989   0.285   5.363   4.613
 2031SOL    HW1 7990   0.205   5.411   4.591
 2031SOL    HW2 7991   0.339   5.427   4.659
 2032SOL     OW 7992   1.125  13.415  14.542
 2032SOL    HW1 7993   1.103  13.406  14.635
 2032SOL    HW2 7994   1.043  13.438  14.500
 2033SOL     OW 7995  13.464   0.270  12.685
 2033SOL    HW1 7996  13.419   0.186  12.677
 2033SOL    HW2 7997  13.509   0.282  12.602
 2034SOL     OW 7998   1.564   1.040  12.452
 2034SOL    HW1 7999   1.625   0.969  12.431
 2034SOL    HW2 8000   1.583   1.061  12.543
 2035SOL     OW 8001  13.599   4.953   5.818
 2035SOL    HW1 8002  13.621   4.893   5.890
 2035SOL    HW2 8003  13.643   4.916   5.742
 2036SOL     OW 8004  11.696  13.302  14.796
 2036SOL    HW1 8005  11.763  13.305  14.865
 2036SOL    HW2 8006  11.721  13.228  14.741
 2037SOL     OW 8007   0.354  13.116  11.258
 2037SOL    HW1 8008   0.413  13.066  11.315
 2037SOL    HW2 8009   0.406  13.192  11.231
 2038SOL     OW 8010  13.417  13.919   0.184
 2038SOL    HW1 8011  13.501  13.902   0.141
 2038SOL    HW2 8012  13.432  13.998   0.236
 2039SOL     OW 8013   4.277   3.865  10.154
 2039SOL    HW1 8014   4.362   3.909  10.158
 2039SOL    HW2 8015   4.267   3.824  10.240
 2040SOL     OW 8016   9.045   5.694   2.339
 2040SOL    HW1 8017   9.134   5.727   2.345
 2040SOL    HW2 8018   9.033   5.672   2.247
 2041SOL     OW 8019   2.539   6.681  14.524
 2041SOL    HW1 8020   2.584   6.598  14.507
 2041SOL    HW2 8021   2.460   6.677  14.471
 2042SOL     OW 8022   5.829   4.981   4.478
 2042SOL    HW1 8023   5.896   5.031   4.524
 2042SOL    HW2 8024   5.874   4.901   4.449
 2043SOL     OW 8025   4.757   3.720   5.287
 2043SOL    HW1 8026   4.672   3.677   5.281
 2043SOL    HW2 8027   4.756   3.765   5.372
 2044SOL     OW 8028   4.705   9.230  12.271
 2044SOL    HW1 8029   4.758   9.151  12.259
 2044SOL    HW2 8030   4.751   9.298  12.222
 2045SOL     OW 8031   5.012   7.531   5.175
 2045SOL    HW1 8032   4.925   7.567   5.189
 2045SOL    HW2 8033   5.034   7.556   5.085
 2046SOL     OW 8034   8.061   1.281   8.289
 2046SOL    HW1 8035   8.014   1.221   8.231
 2046SOL    HW2 8036   8.141   1.235   8.312
 2047SOL     OW 8037   2.351   2.342  10.729
 2047SOL    HW1 8038   2.327   2.426  10.769
 2047SOL    HW2 8039   2.404   2.366  10.653
 2048SOL     OW 8040   2.605   3.601   3.900
 2048SOL    HW1 8041   2.606   3.696   3.908
 2048SOL    HW2 8042   2.682   3.572   3.949
 2049SOL     OW 8043   4.606   6.964   8.421
 2049SOL    HW1 8044   4.655   6.889   8.455
 2049SOL    HW2 8045   4.601   7.025   8.495
 2050SOL     OW 8046   9.294   1.110  10.166
 2050SOL    HW1 8047   9.225   1.127  10.230
 2050SOL    HW2 8048   9.294   1.188  10.110
 2051SOL     OW 8049  12.146  11.296   6.833
 2051SOL    HW1 8050  12.120  11.221   6.781
 2051SOL    HW2 8051  12.077  11.361   6.819
 2052SOL     OW 8052   5.376  10.367   3.493
 2052SOL    HW1 8053   5.330  10.429   3.436
 2052SOL    HW2 8054   5.326  10.286   3.485
 2053SOL     OW 8055   2.418   4.610  11.692
 2053SOL    HW1 8056   2.361   4.583  11.620
 2053SOL    HW2 8057   2.381   4.569  11.770
 2054SOL     OW 8058   6.501   1.899  14.446
 2054SOL    HW1 8059   6.574   1.944  14.490
 2054SOL    HW2 8060   6.471   1.835  14.510
 2055SOL     OW 8061   0.192   1.502   5.142
 2055SOL    HW1 8062   0.176   1.476   5.232
 2055SOL    HW2 8063   0.285   1.524   5.139
 2056SOL     OW 8064   5.887  13.567  12.464
 2056SOL    HW1 8065   5.878  13.487  12.413
 2056SOL    HW2 8066   5.799  13.584  12.499
 2057SOL     OW 8067   5.510   6.576   8.374
 2057SOL    HW1 8068   5.531   6.643   8.439
 2057SOL    HW2 8069   5.436   6.613   8.325
 2058SOL     OW 8070   1.685  12.290   5.128
 2058SOL    HW1 8071   1.780  12.296   5.141
 2058SOL    HW2 8072   1.671  12.317   5.038
 2059SOL     OW 8073  10.824   8.477   7.981
 2059SOL    HW1 8074  10.741   8.494   8.027
 2059SOL    HW2 8075  10.799   8.464   7.890
 2060SOL     OW 8076   4.147   9.835   9.654
 2060SOL    HW1 8077   4.077   9.831   9.589
 2060SOL    HW2 8078   4.105   9.872   9.732
 2061SOL     OW 8079   9.882   2.892  13.148
 2061SOL    HW1 8080   9.927   2.873  13.065
 2061SOL    HW2 8081   9.790   2.896  13.124
 2062SOL     OW 8082   1.812   7.172   9.233
 2062SOL    HW1 8083   1.723   7.204   9.247
 2062SOL    HW2 8084   1.847   7.228   9.164
 2063SOL     OW 8085   0.018   9.384   3.447
 2063SOL    HW1 8086   0.098   9.426   3.478
 2063SOL    HW2 8087   0.032   9.373   3.353
 2064SOL     OW 8088  11.725  11.220  11.771
 2064SOL    HW1 8089  11.644  11.199  11.725
 2064SOL    HW2 8090  11.700  11.287  11.835
 2065SOL     OW 8091  14.076   4.997   3.791
 2065SOL    HW1 8092  13.997   4.973   3.839
 2065SOL    HW2 8093  14.147   4.955   3.838
 2066SOL     OW 8094   0.898   9.213   9.924
 2066SOL    HW1 8095   0.945   9.143   9.878
 2066SOL    HW2 8096   0.954   9.234   9.998
 2067SOL     OW 8097   1.816  13.064   3.468
 2067SOL    HW1 8098   1.857  13.145   3.497
 2067SOL    HW2 8099   1.736  13.057   3.519
 2068SOL     OW 8100   7.874  14.718   0.006
 2068SOL    HW1 8101   7.815  14.644  14.877
 2068SOL    HW2 8102   7.920  14.726  14.804
 2069SOL     OW 8103  10.786   7.242   2.579
 2069SOL    HW1 8104  10.785   7.182   2.654
 2069SOL    HW2 8105  10.801   7.328   2.617
 2070SOL     OW 8106   3.978  13.296   0.044
 2070SOL    HW1 8107   3.981  13.374   0.100
 2070SOL    HW2 8108   4.062  13.298  14.880
 2071SOL     OW 8109   1.496   9.316   5.616
 2071SOL    HW1 8110   1.504   9.248   5.683
 2071SOL    HW2 8111   1.586   9.334   5.590
 2072SOL     OW 8112   2.007   1.341   3.003
 2072SOL    HW1 8113   1.913   1.354   2.993
 2072SOL    HW2 8114   2.046   1.414   2.954
 2073SOL     OW 8115   9.150   1.088   7.488
 2073SOL    HW1 8116   9.207   1.060   7.560
 2073SOL    HW2 8117   9.179   1.176   7.467
 2074SOL     OW 8118  12.147   6.526   4.767
 2074SOL    HW1 8119  12.116   6.513   4.857
 2074SOL    HW2 8120  12.104   6.606   4.738
 2075SOL     OW 8121   2.347   7.377   7.615
 2075SOL    HW1 8122   2.404   7.305   7.642
 2075SOL    HW2 8123   2.271   7.333   7.575
 2076SOL     OW 8124   5.386  10.029   9.421
 2076SOL    HW1 8125   5.466  10.006   9.468
 2076SOL    HW2 8126   5.341  10.091   9.479
 2077SOL     OW 8127   8.767  13.565   3.808
 2077SOL    HW1 8128   8.682  13.524   3.794
 2077SOL    HW2 8129   8.748  13.642   3.861
 2078SOL     OW 8130  13.906   2.325   7.927
 2078SOL    HW1 8131  13.864   2.254   7.976
 2078SOL    HW2 8132  13.999   2.304   7.930
 2079SOL     OW 8133  14.467   5.041   1.920
 2079SOL    HW1 8134  14.477   5.071   2.011
 2079SOL    HW2 8135  14.375   5.017   1.913
 2080SOL     OW 8136   7.065   4.059   4.980
 2080SOL    HW1 8137   7.052   4.140   4.932
 2080SOL    HW2 8138   7.085   3.994   4.912
 2081SOL     OW 8139   4.396   4.761   7.227
 2081SOL    HW1 8140   4.331   4.818   7.186
 2081SOL    HW2 8141   4.369   4.672   7.203
 2082SOL     OW 8142  12.480  14.743  11.477
 2082SOL    HW1 8143  12.473  14.710  11.567
 2082SOL    HW2 8144  12.389  14.755  11.449
 2083SOL     OW 8145  10.834   1.318  11.902
 2083SOL    HW1 8146  10.880   1.257  11.844
 2083SOL    HW2 8147  10.745   1.284  11.908
 2084SOL     OW 8148   0.046   9.816   3.494
 2084SOL    HW1 8149   0.121   9.857   3.452
 2084SOL    HW2 8150   0.078   9.790   3.580
 2085SOL     OW 8151   4.106  14.021   7.188
 2085SOL    HW1 8152   4.056  13.943   7.165
 2085SOL    HW2 8153   4.194  13.989   7.206
 2086SOL     OW 8154   7.360   5.103   3.867
 2086SOL    HW1 8155   7.370   5.152   3.949
 2086SOL    HW2 8156   7.354   5.011   3.894
 2087SOL     OW 8157   0.793   2.148   5.552
 2087SOL    HW1 8158   0.712   2.186   5.586
 2087SOL    HW2 8159   0.858   2.218   5.560
 2088SOL     OW 8160   2.018   9.561  12.706
 2088SOL    HW1 8161   2.003   9.558  12.612
 2088SOL    HW2 8162   2.029   9.470  12.732
 2089SOL     OW 8163  13.464   3.292  13.830
 2089SOL    HW1 8164  13.460   3.378  13.789
 2089SOL    HW2 8165  13.405   3.298  13.905
 2090SOL     OW 8166   3.041   9.271   5.161
 2090SOL    HW1 8167   3.051   9.209   5.233
 2090SOL    HW2 8168   3.000   9.347   5.201
 2091SOL     OW 8169   8.222   0.527   4.206
 2091SOL    HW1 8170   8.142   0.577   4.185
 2091SOL    HW2 8171   8.266   0.581   4.272
 2092SOL     OW 8172  13.717   3.240   2.231
 2092SOL    HW1 8173  13.717   3.155   2.188
 2092SOL    HW2 8174  13.637   3.283   2.199
 2093SOL     OW 8175   8.631   1.449   8.691
 2093SOL    HW1 8176   8.725   1.435   8.707
 2093SOL    HW2 8177   8.625   1.537   8.654
 2094SOL     OW 8178   7.782   2.984  13.542
 2094SOL    HW1 8179   7.795   3.028  13.458
 2094SOL    HW2 8180   7.828   3.039  13.605
 2095SOL     OW 8181   5.600   0.098   3.577
 2095SOL    HW1 8182   5.597   0.095   3.481
 2095SOL    HW2 8183   5.509   0.097   3.604
 2096SOL     OW 8184   5.235   8.786   3.726
 2096SOL    HW1 8185   5.202   8.804   3.814
 2096SOL    HW2 8186   5.204   8.697   3.707
 2097SOL     OW 8187   0.189  12.802  11.076
 2097SOL    HW1 8188   0.262  12.818  11.135
 2097SOL    HW2 8189   0.196  12.871  11.010
 2098SOL     OW 8190   2.219  11.744   6.636
 2098SOL    HW1 8191   2.247  11.793   6.559
 2098SOL    HW2 8192   2.183  11.662   6.600
 2099SOL     OW 8193   3.783   7.475   1.126
 2099SOL    HW1 8194   3.800   7.551   1.181
 2099SOL    HW2 8195   3.781   7.401   1.186
 2100SOL     OW 8196  14.138  12.123  10.454
 2100SOL    HW1 8197  14.190  12.191  10.497
 2100SOL    HW2 8198  14.164  12.041  10.496
 2101SOL     OW 8199  13.373   1.308  12.036
 2101SOL    HW1 8200  13.312   1.249  12.079
 2101SOL    HW2 8201  13.371   1.388  12.089
 2102SOL     OW 8202   2.801   2.730   4.469
 2102SOL    HW1 8203   2.721   2.758   4.514
 2102SOL    HW2 8204   2.844   2.812   4.444
 2103SOL     OW 8205   5.412  13.430   2.455
 2103SOL    HW1 8206   5.449  13.348   2.487
 2103SOL    HW2 8207   5.486  13.491   2.452
 2104SOL     OW 8208   7.314   3.835  13.966
 2104SOL    HW1 8209   7.220   3.845  13.983
 2104SOL    HW2 8210   7.344   3.774  14.034
 2105SOL     OW 8211  12.189   5.836   3.695
 2105SOL    HW1 8212  12.271   5.794   3.669
 2105SOL    HW2 8213  12.173   5.902   3.628
 2106SOL     OW 8214  13.798   2.634   0.745
 2106SOL    HW1 8215  13.796   2.719   0.790
 2106SOL    HW2 8216  13.786   2.655   0.653
 2107SOL     OW 8217  12.796  11.725   9.010
 2107SOL    HW1 8218  12.891  11.734   9.019
 2107SOL    HW2 8219  12.781  11.735   8.916
 2108SOL     OW 8220  12.403   6.655   2.717
 2108SOL    HW1 8221  12.309   6.638   2.719
 2108SOL    HW2 8222  12.415   6.727   2.780
 2109SOL     OW 8223   1.952   1.103   6.746
 2109SOL    HW1 8224   2.008   1.149   6.809
 2109SOL    HW2 8225   1.864   1.106   6.783
 2110SOL     OW 8226   4.345   2.775   0.101
 2110SOL    HW1 8227   4.419   2.773   0.041
 2110SOL    HW2 8228   4.369   2.714   0.171
 2111SOL     OW 8229   7.708   4.961   1.312
 2111SOL    HW1 8230   7.620   4.975   1.346
 2111SOL    HW2 8231   7.699   4.885   1.254
 2112SOL     OW 8232   0.087  10.930   9.024
 2112SOL    HW1 8233   0.021  10.982   9.070
 2112SOL    HW2 8234   0.079  10.843   9.064
 2113SOL     OW 8235  11.364   5.326   5.442
 2113SOL    HW1 8236  11.373   5.394   5.509
 2113SOL    HW2 8237  11.285   5.350   5.394
 2114SOL     OW 8238  11.875  14.663   2.571
 2114SOL    HW1 8239  11.896  14.744   2.524
 2114SOL    HW2 8240  11.868  14.597   2.503
 2115SOL     OW 8241   0.246  11.664   1.735
 2115SOL    HW1 8242   0.180  11.603   1.769
 2115SOL    HW2 8243   0.231  11.745   1.783
 2116SOL     OW 8244  11.908   9.664   5.783
 2116SOL    HW1 8245  11.939   9.582   5.744
 2116SOL    HW2 8246  11.868   9.712   5.711
 2117SOL     OW 8247   0.871   4.904  11.107
 2117SOL    HW1 8248   0.829   4.861  11.182
 2117SOL    HW2 8249   0.807   4.895  11.036
 2118SOL     OW 8250   9.727  11.373   3.435
 2118SOL    HW1 8251   9.657  11.388   3.497
 2118SOL    HW2 8252   9.794  11.327   3.485
 2119SOL     OW 8253  10.872  13.067  14.863
 2119SOL    HW1 8254  10.965  13.088  14.872
 2119SOL    HW2 8255  10.871  12.979  14.826
 2120SOL     OW 8256  13.147   8.142   1.663
 2120SOL    HW1 8257  13.197   8.084   1.606
 2120SOL    HW2 8258  13.207   8.215   1.681
 2121SOL     OW 8259   8.124  12.161   8.345
 2121SOL    HW1 8260   8.206  12.170   8.394
 2121SOL    HW2 8261   8.107  12.248   8.310
 2122SOL     OW 8262   1.091   3.780  10.510
 2122SOL    HW1 8263   1.139   3.711  10.557
 2122SOL    HW2 8264   1.094   3.753  10.418
 2123SOL     OW 8265   3.941   2.323  12.192
 2123SOL    HW1 8266   3.874   2.268  12.231
 2123SOL    HW2 8267   3.893   2.393  12.148
 2124SOL     OW 8268   7.098   9.698   8.396
 2124SOL    HW1 8269   7.065   9.668   8.312
 2124SOL    HW2 8270   7.041   9.657   8.461
 2125SOL     OW 8271   3.208   9.001   3.863
 2125SOL    HW1 8272   3.233   8.926   3.918
 2125SOL    HW2 8273   3.274   9.067   3.882
 2126SOL     OW 8274  11.155   1.801  12.328
 2126SOL    HW1 8275  11.077   1.762  12.289
 2126SOL    HW2 8276  11.187   1.734  12.389
 2127SOL     OW 8277   4.926  12.002  14.337
 2127SOL    HW1 8278   4.931  12.035  14.247
 2127SOL    HW2 8279   4.866  12.062  14.381
 2128SOL     OW 8280  11.195   3.548   8.954
 2128SOL    HW1 8281  11.169   3.587   8.871
 2128SOL    HW2 8282  11.235   3.621   9.003
 2129SOL     OW 8283   4.497   2.560   8.504
 2129SOL    HW1 8284   4.440   2.483   8.501
 2129SOL    HW2 8285   4.451   2.621   8.562
 2130SOL     OW 8286   8.397   2.545   1.801
 2130SOL    HW1 8287   8.475   2.492   1.819
 2130SOL    HW2 8288   8.416   2.588   1.718
 2131SOL     OW 8289   1.423   4.584   3.623
 2131SOL    HW1 8290   1.416   4.506   3.677
 2131SOL    HW2 8291   1.514   4.584   3.592
 2132SOL     OW 8292   2.766  12.783   8.066
 2132SOL    HW1 8293   2.727  12.766   7.980
 2132SOL    HW2 8294   2.736  12.710   8.120
 2133SOL     OW 8295   1.798  10.680   0.181
 2133SOL    HW1 8296   1.723  10.634   0.142
 2133SOL    HW2 8297   1.874  10.634   0.146
 2134SOL     OW 8298   9.384   0.102   9.487
 2134SOL    HW1 8299   9.405   0.008   9.491
 2134SOL    HW2 8300   9.451   0.144   9.542
 2135SOL     OW 8301   5.610  13.961  12.901
 2135SOL    HW1 8302   5.701  13.974  12.929
 2135SOL    HW2 8303   5.557  13.988  12.976
 2136SOL     OW 8304  14.849  13.407   6.117
 2136SOL    HW1 8305  14.828  13.493   6.154
 2136SOL    HW2 8306   0.062  13.406   6.111
 2137SOL     OW 8307   0.916   8.211   7.632
 2137SOL    HW1 8308   0.839   8.187   7.683
 2137SOL    HW2 8309   0.972   8.134   7.634
 2138SOL     OW 8310   0.047   1.515   0.797
 2138SOL    HW1 8311   0.043   1.601   0.755
 2138SOL    HW2 8312   0.126   1.519   0.852
 2139SOL     OW 8313   0.682  14.512   4.160
 2139SOL    HW1 8314   0.712  14.454   4.230
 2139SOL    HW2 8315   0.730  14.594   4.174
 2140SOL     OW 8316   2.564   8.723   8.802
 2140SOL    HW1 8317   2.563   8.819   8.812
 2140SOL    HW2 8318   2.511   8.691   8.875
 2141SOL     OW 8319   8.636   1.720   0.056
 2141SOL    HW1 8320   8.577   1.665   0.005
 2141SOL    HW2 8321   8.578   1.770   0.114
 2142SOL     OW 8322   4.048   4.853   6.252
 2142SOL    HW1 8323   3.989   4.905   6.305
 2142SOL    HW2 8324   4.134   4.893   6.265
 2143SOL     OW 8325  13.385  11.364   8.218
 2143SOL    HW1 8326  13.472  11.332   8.243
 2143SOL    HW2 8327  13.326  11.330   8.285
 2144SOL     OW 8328   0.444  14.721   2.026
 2144SOL    HW1 8329   0.441  14.798   2.082
 2144SOL    HW2 8330   0.400  14.748   1.945
 2145SOL     OW 8331  13.597   2.586   8.162
 2145SOL    HW1 8332  13.523   2.526   8.162
 2145SOL    HW2 8333  13.624   2.590   8.253
 2146SOL     OW 8334  14.508  14.767   7.310
 2146SOL    HW1 8335  14.460  14.762   7.392
 2146SOL    HW2 8336  14.544  14.856   7.309
 2147SOL     OW 8337   3.841   3.558   9.887
 2147SOL    HW1 8338   3.911   3.584   9.827
 2147SOL    HW2 8339   3.882   3.493   9.944
 2148SOL     OW 8340   4.883  10.812   7.672
 2148SOL    HW1 8341   4.866  10.771   7.757
 2148SOL    HW2 8342   4.823  10.887   7.670
 2149SOL     OW 8343  14.468   9.390   2.600
 2149SOL    HW1 8344  14.517   9.400   2.681
 2149SOL    HW2 8345  14.382   9.356   2.628
 2150SOL     OW 8346  12.571  14.441   4.564
 2150SOL    HW1 8347  12.530  14.359   4.535
 2150SOL    HW2 8348  12.620  14.471   4.488
 2151SOL     OW 8349  13.370   2.173  10.866
 2151SOL    HW1 8350  13.426   2.210  10.935
 2151SOL    HW2 8351  13.431   2.147  10.798
 2152SOL     OW 8352   8.110   2.750   6.420
 2152SOL    HW1 8353   8.021   2.783   6.408
 2152SOL    HW2 8354   8.125   2.757   6.515
 2153SOL     OW 8355  11.607   4.108   8.120
 2153SOL    HW1 8356  11.608   4.012   8.122
 2153SOL    HW2 8357  11.697   4.134   8.139
 2154SOL     OW 8358   3.936   0.685   2.743
 2154SOL    HW1 8359   3.917   0.604   2.696
 2154SOL    HW2 8360   3.927   0.754   2.677
 2155SOL     OW 8361   2.894   0.330  12.290
 2155SOL    HW1 8362   2.802   0.314  12.312
 2155SOL    HW2 8363   2.894   0.341  12.195
 2156SOL     OW 8364   9.700   0.005  10.045
 2156SOL    HW1 8365   9.758  14.811  10.038
 2156SOL    HW2 8366   9.760   0.080  10.044
 2157SOL     OW 8367   9.571   0.010   6.516
 2157SOL    HW1 8368   9.569   0.105   6.515
 2157SOL    HW2 8369   9.639  14.868   6.453
 2158SOL     OW 8370  10.429  12.958   6.116
 2158SOL    HW1 8371  10.359  13.019   6.095
 2158SOL    HW2 8372  10.490  12.965   6.043
 2159SOL     OW 8373   1.789  10.411  13.732
 2159SOL    HW1 8374   1.705  10.390  13.691
 2159SOL    HW2 8375   1.801  10.504  13.715
 2160SOL     OW 8376   3.411  10.268   0.627
 2160SOL    HW1 8377   3.414  10.362   0.641
 2160SOL    HW2 8378   3.341  10.255   0.563
 2161SOL     OW 8379   7.848   8.694   5.032
 2161SOL    HW1 8380   7.901   8.614   5.029
 2161SOL    HW2 8381   7.801   8.688   5.115
 2162SOL     OW 8382   0.786  11.234   1.152
 2162SOL    HW1 8383   0.725  11.227   1.225
 2162SOL    HW2 8384   0.770  11.155   1.100
 2163SOL     OW 8385  12.009   8.741   8.031
 2163SOL    HW1 8386  12.083   8.739   7.970
 2163SOL    HW2 8387  12.047   8.723   8.116
 2164SOL     OW 8388  14.548   9.744  11.744
 2164SOL    HW1 8389  14.619   9.688  11.775
 2164SOL    HW2 8390  14.577   9.773  11.657
 2165SOL     OW 8391   3.946   9.615   9.777
 2165SOL    HW1 8392   4.020   9.561   9.748
 2165SOL    HW2 8393   3.896   9.631   9.697
 2166SOL     OW 8394   8.756   6.055   1.351
 2166SOL    HW1 8395   8.805   6.001   1.289
 2166SOL    HW2 8396   8.739   6.137   1.304
 2167SOL     OW 8397   8.177   0.625   5.376
 2167SOL    HW1 8398   8.119   0.595   5.445
 2167SOL    HW2 8399   8.257   0.574   5.387
 2168SOL     OW 8400   0.087  14.011   6.175
 2168SOL    HW1 8401   0.128  14.018   6.261
 2168SOL    HW2 8402  14.877  13.996   6.195
 2169SOL     OW 8403  11.083  10.050  11.083
 2169SOL    HW1 8404  11.064  10.121  11.022
 2169SOL    HW2 8405  11.077  10.091  11.170
 2170SOL     OW 8406  14.692   2.767   4.639
 2170SOL    HW1 8407  14.682   2.761   4.545
 2170SOL    HW2 8408  14.629   2.705   4.675
 2171SOL     OW 8409   8.794  11.297  13.289
 2171SOL    HW1 8410   8.782  11.204  13.309
 2171SOL    HW2 8411   8.801  11.300  13.194
 2172SOL     OW 8412   7.301   5.482  11.314
 2172SOL    HW1 8413   7.300   5.400  11.363
 2172SOL    HW2 8414   7.387   5.485  11.273
 2173SOL     OW 8415   2.889   4.811   2.591
 2173SOL    HW1 8416   2.924   4.724   2.572
 2173SOL    HW2 8417   2.913   4.827   2.682
 2174SOL     OW 8418  13.535   8.716   2.603
 2174SOL    HW1 8419  13.567   8.767   2.677
 2174SOL    HW2 8420  13.533   8.777   2.530
 2175SOL     OW 8421   5.352   3.050   2.032
 2175SOL    HW1 8422   5.275   3.061   1.975
 2175SOL    HW2 8423   5.345   2.961   2.064
 2176SOL     OW 8424   6.580   7.332   8.205
 2176SOL    HW1 8425   6.528   7.330   8.285
 2176SOL    HW2 8426   6.525   7.288   8.140
 2177SOL     OW 8427   3.634  14.507  10.860
 2177SOL    HW1 8428   3.701  14.451  10.822
 2177SOL    HW2 8429   3.671  14.535  10.944
 2178SOL     OW 8430   0.782  14.557   6.257
 2178SOL    HW1 8431   0.785  14.647   6.226
 2178SOL    HW2 8432   0.718  14.558   6.328
 2179SOL     OW 8433   5.791  14.319  12.428
 2179SOL    HW1 8434   5.702  14.290  12.407
 2179SOL    HW2 8435   5.830  14.244  12.474
 2180SOL     OW 8436   3.368  13.728  12.024
 2180SOL    HW1 8437   3.354  13.637  12.047
 2180SOL    HW2 8438   3.430  13.725  11.951
 2181SOL     OW 8439  13.988   5.213   2.731
 2181SOL    HW1 8440  13.927   5.154   2.776
 2181SOL    HW2 8441  14.058   5.227   2.795
 2182SOL     OW 8442   0.137   9.124   7.900
 2182SOL    HW1 8443   0.123   9.200   7.845
 2182SOL    HW2 8444   0.093   9.145   7.983
 2183SOL     OW 8445  13.047   0.840   0.492
 2183SOL    HW1 8446  13.027   0.920   0.444
 2183SOL    HW2 8447  13.112   0.867   0.557
 2184SOL     OW 8448   8.302   5.719  14.757
 2184SOL    HW1 8449   8.302   5.791  14.693
 2184SOL    HW2 8450   8.392   5.685  14.755
 2185SOL     OW 8451   2.627  14.593  11.441
 2185SOL    HW1 8452   2.573  14.651  11.386
 2185SOL    HW2 8453   2.706  14.643  11.458
 2186SOL     OW 8454   1.799   9.189   3.970
 2186SOL    HW1 8455   1.763   9.264   4.017
 2186SOL    HW2 8456   1.729   9.163   3.910
 2187SOL     OW 8457   0.607  11.587   9.634
 2187SOL    HW1 8458   0.558  11.508   9.613
 2187SOL    HW2 8459   0.647  11.615   9.552
 2188SOL     OW 8460  13.382   8.485   9.234
 2188SOL    HW1 8461  13.370   8.430   9.311
 2188SOL    HW2 8462  13.342   8.569   9.258
 2189SOL     OW 8463   5.196  11.560   0.167
 2189SOL    HW1 8464   5.128  11.533   0.228
 2189SOL    HW2 8465   5.196  11.656   0.172
 2190SOL     OW 8466   3.727  11.523  12.078
 2190SOL    HW1 8467   3.807  11.478  12.104
 2190SOL    HW2 8468   3.743  11.615  12.099
 2191SOL     OW 8469   3.361  13.991   2.897
 2191SOL    HW1 8470   3.423  14.061   2.920
 2191SOL    HW2 8471   3.343  13.947   2.980
 2192SOL     OW 8472   0.714   6.340   4.836
 2192SOL    HW1 8473   0.677   6.265   4.884
 2192SOL    HW2 8474   0.717   6.310   4.745
 2193SOL     OW 8475   9.214   4.880  13.005
 2193SOL    HW1 8476   9.226   4.828  12.926
 2193SOL    HW2 8477   9.290   4.938  13.007
 2194SOL     OW 8478   3.437   7.181   0.278
 2194SOL    HW1 8479   3.469   7.272   0.282
 2194SOL    HW2 8480   3.410   7.169   0.187
 2195SOL     OW 8481   2.502   2.293   2.385
 2195SOL    HW1 8482   2.488   2.239   2.308
 2195SOL    HW2 8483   2.548   2.371   2.351
 2196SOL     OW 8484  10.625  10.066   7.323
 2196SOL    HW1 8485  10.691   9.998   7.336
 2196SOL    HW2 8486  10.619  10.109   7.409
 2197SOL     OW 8487  10.398  12.766   7.164
 2197SOL    HW1 8488  10.489  12.755   7.135
 2197SOL    HW2 8489  10.348  12.708   7.107
 2198SOL     OW 8490   3.039  13.222   3.756
 2198SOL    HW1 8491   3.108  13.224   3.822
 2198SOL    HW2 8492   2.960  13.248   3.804
 2199SOL     OW 8493  13.937  12.398   4.022
 2199SOL    HW1 8494  13.842  12.382   4.023
 2199SOL    HW2 8495  13.947  12.476   3.967
 2200SOL     OW 8496   0.177   8.857   2.661
 2200SOL    HW1 8497   0.195   8.950   2.672
 2200SOL    HW2 8498   0.236   8.813   2.722
 2201SOL     OW 8499   1.592   3.660   3.151
 2201SOL    HW1 8500   1.549   3.575   3.156
 2201SOL    HW2 8501   1.551   3.704   3.076
 2202SOL     OW 8502  14.471  12.715   5.251
 2202SOL    HW1 8503  14.463  12.636   5.304
 2202SOL    HW2 8504  14.561  12.713   5.219
 2203SOL     OW 8505   1.012   8.276   7.925
 2203SOL    HW1 8506   1.015   8.181   7.911
 2203SOL    HW2 8507   0.962   8.287   8.006
 2204SOL     OW 8508   9.817  11.069   2.181
 2204SOL    HW1 8509   9.742  11.060   2.240
 2204SOL    HW2 8510   9.823  11.163   2.164
 2205SOL     OW 8511   7.493   0.505   6.801
 2205SOL    HW1 8512   7.425   0.562   6.838
 2205SOL    HW2 8513   7.501   0.433   6.863
 2206SOL     OW 8514   6.581   0.921   4.687
 2206SOL    HW1 8515   6.556   0.942   4.777
 2206SOL    HW2 8516   6.644   0.989   4.663
 2207SOL     OW 8517  11.893   7.354   2.802
 2207SOL    HW1 8518  11.805   7.332   2.833
 2207SOL    HW2 8519  11.911   7.440   2.840
 2208SOL     OW 8520   3.869   3.539   0.508
 2208SOL    HW1 8521   3.898   3.500   0.590
 2208SOL    HW2 8522   3.945   3.590   0.478
 2209SOL     OW 8523   9.764  13.459   5.847
 2209SOL    HW1 8524   9.807  13.377   5.870
 2209SOL    HW2 8525   9.797  13.480   5.760
 2210SOL     OW 8526   7.884   0.119  10.619
 2210SOL    HW1 8527   7.862   0.100  10.528
 2210SOL    HW2 8528   7.803   0.104  10.668
 2211SOL     OW 8529   9.388  11.441   7.466
 2211SOL    HW1 8530   9.428  11.454   7.380
 2211SOL    HW2 8531   9.365  11.530   7.494
 2212SOL     OW 8532   8.641   9.795   3.340
 2212SOL    HW1 8533   8.557   9.767   3.305
 2212SOL    HW2 8534   8.703   9.729   3.310
 2213SOL     OW 8535  11.280   3.944   6.792
 2213SOL    HW1 8536  11.350   3.987   6.744
 2213SOL    HW2 8537  11.261   3.865   6.741
 2214SOL     OW 8538   0.992  14.782   7.097
 2214SOL    HW1 8539   0.979  14.782   7.192
 2214SOL    HW2 8540   0.911  14.819   7.062
 2215SOL     OW 8541   4.885   4.801  11.381
 2215SOL    HW1 8542   4.934   4.728  11.343
 2215SOL    HW2 8543   4.810   4.761  11.425
 2216SOL     OW 8544   7.666  13.960   3.418
 2216SOL    HW1 8545   7.719  13.882   3.434
 2216SOL    HW2 8546   7.723  14.033   3.444
 2217SOL     OW 8547   6.241  13.935   0.631
 2217SOL    HW1 8548   6.283  13.862   0.675
 2217SOL    HW2 8549   6.161  13.898   0.594
 2218SOL     OW 8550  10.373   2.481   3.343
 2218SOL    HW1 8551  10.319   2.428   3.286
 2218SOL    HW2 8552  10.455   2.493   3.295
 2219SOL     OW 8553   2.033   6.712  14.045
 2219SOL    HW1 8554   2.125   6.729  14.024
 2219SOL    HW2 8555   1.992   6.799  14.045
 2220SOL     OW 8556   8.153   6.659   4.230
 2220SOL    HW1 8557   8.186   6.629   4.145
 2220SOL    HW2 8558   8.059   6.639   4.228
 2221SOL     OW 8559  12.813   8.840  14.843
 2221SOL    HW1 8560  12.824   8.851   0.055
 2221SOL    HW2 8561  12.718   8.849  14.829
 2222SOL     OW 8562   0.686   4.786   3.991
 2222SOL    HW1 8563   0.778   4.769   4.010
 2222SOL    HW2 8564   0.687   4.841   3.913
 2223SOL     OW 8565  13.064   2.467   0.433
 2223SOL    HW1 8566  13.128   2.507   0.375
 2223SOL    HW2 8567  13.114   2.403   0.484
 2224SOL     OW 8568   0.455   9.900   6.623
 2224SOL    HW1 8569   0.545   9.925   6.602
 2224SOL    HW2 8570   0.464   9.845   6.701
 2225SOL     OW 8571   5.082   5.653   0.328
 2225SOL    HW1 8572   5.040   5.691   0.250
 2225SOL    HW2 8573   5.124   5.573   0.296
 2226SOL     OW 8574   2.461  11.215   5.048
 2226SOL    HW1 8575   2.472  11.226   5.142
 2226SOL    HW2 8576   2.371  11.243   5.031
 2227SOL     OW 8577   8.170   3.677  13.881
 2227SOL    HW1 8578   8.092   3.734  13.875
 2227SOL    HW2 8579   8.215   3.689  13.798
 2228SOL     OW 8580   8.720  12.014   8.216
 2228SOL    HW1 8581   8.641  11.961   8.208
 2228SOL    HW2 8582   8.710  12.061   8.298
 2229SOL     OW 8583   9.869   5.239  11.898
 2229SOL    HW1 8584   9.878   5.269  11.808
 2229SOL    HW2 8585   9.942   5.178  11.911
 2230SOL     OW 8586  14.499  10.457   3.819
 2230SOL    HW1 8587  14.420  10.450   3.767
 2230SOL    HW2 8588  14.568  10.476   3.756
 2231SOL     OW 8589  11.741   6.515  12.475
 2231SOL    HW1 8590  11.815   6.457  12.491
 2231SOL    HW2 8591  11.681   6.463  12.422
 2232SOL     OW 8592   1.838   0.175   5.534
 2232SOL    HW1 8593   1.813   0.108   5.598
 2232SOL    HW2 8594   1.756   0.222   5.516
 2233SOL     OW 8595   9.086  12.349   8.824
 2233SOL    HW1 8596   9.112  12.410   8.893
 2233SOL    HW2 8597   9.122  12.265   8.852
 2234SOL     OW 8598   8.715   8.560   4.555
 2234SOL    HW1 8599   8.675   8.474   4.538
 2234SOL    HW2 8600   8.641   8.619   4.570
 2235SOL     OW 8601  12.475  12.724  14.549
 2235SOL    HW1 8602  12.428  12.646  14.520
 2235SOL    HW2 8603  12.408  12.792  14.553
 2236SOL     OW 8604  12.030   6.504   1.594
 2236SOL    HW1 8605  12.087   6.579   1.576
 2236SOL    HW2 8606  12.022   6.458   1.510
 2237SOL     OW 8607   5.848  13.174  11.927
 2237SOL    HW1 8608   5.845  13.265  11.955
 2237SOL    HW2 8609   5.918  13.170  11.862
 2238SOL     OW 8610   9.450   4.683   9.912
 2238SOL    HW1 8611   9.379   4.735   9.949
 2238SOL    HW2 8612   9.409   4.600   9.888
 2239SOL     OW 8613   8.611   4.313   7.100
 2239SOL    HW1 8614   8.580   4.224   7.113
 2239SOL    HW2 8615   8.532   4.367   7.103
 2240SOL     OW 8616  14.614   4.830   1.626
 2240SOL    HW1 8617  14.585   4.770   1.695
 2240SOL    HW2 8618  14.589   4.787   1.545
 2241SOL     OW 8619   5.162  11.534  11.287
 2241SOL    HW1 8620   5.220  11.587  11.342
 2241SOL    HW2 8621   5.189  11.443  11.303
 2242SOL     OW 8622   5.963  11.136   3.703
 2242SOL    HW1 8623   5.911  11.059   3.722
 2242SOL    HW2 8624   6.018  11.148   3.781
 2243SOL     OW 8625  10.534  12.887  10.690
 2243SOL    HW1 8626  10.576  12.850  10.768
 2243SOL    HW2 8627  10.441  12.888  10.712
 2244SOL     OW 8628   6.042  13.276   8.470
 2244SOL    HW1 8629   6.116  13.317   8.515
 2244SOL    HW2 8630   5.978  13.347   8.460
 2245SOL     OW 8631  12.990   6.921   4.020
 2245SOL    HW1 8632  13.053   6.849   4.028
 2245SOL    HW2 8633  12.909   6.878   3.991
 2246SOL     OW 8634   6.131  11.489  13.753
 2246SOL    HW1 8635   6.056  11.441  13.717
 2246SOL    HW2 8636   6.168  11.429  13.819
 2247SOL     OW 8637   7.661   7.503   4.870
 2247SOL    HW1 8638   7.638   7.506   4.777
 2247SOL    HW2 8639   7.756   7.492   4.870
 2248SOL     OW 8640   0.217   8.276   6.432
 2248SOL    HW1 8641   0.284   8.249   6.496
 2248SOL    HW2 8642   0.195   8.195   6.386
 2249SOL     OW 8643   3.767   6.413  14.236
 2249SOL    HW1 8644   3.725   6.426  14.320
 2249SOL    HW2 8645   3.845   6.469  14.238
 2250SOL     OW 8646   7.978  14.167   2.373
 2250SOL    HW1 8647   7.921  14.223   2.425
 2250SOL    HW2 8648   7.921  14.131   2.305
 2251SOL     OW 8649   2.947   3.653   3.163
 2251SOL    HW1 8650   3.006   3.579   3.148
 2251SOL    HW2 8651   2.981   3.723   3.106
 2252SOL     OW 8652   1.162   1.856   3.979
 2252SOL    HW1 8653   1.103   1.796   3.934
 2252SOL    HW2 8654   1.228   1.880   3.914
 2253SOL     OW 8655  14.345   2.714  10.479
 2253SOL    HW1 8656  14.373   2.796  10.521
 2253SOL    HW2 8657  14.362   2.647  10.544
 2254SOL     OW 8658   0.276  13.325   1.255
 2254SOL    HW1 8659   0.245  13.291   1.171
 2254SOL    HW2 8660   0.344  13.388   1.231
 2255SOL     OW 8661  14.858   2.765  10.809
 2255SOL    HW1 8662   0.038   2.807  10.750
 2255SOL    HW2 8663  14.816   2.698  10.755
 2256SOL     OW 8664   3.747   7.540  12.509
 2256SOL    HW1 8665   3.672   7.590  12.542
 2256SOL    HW2 8666   3.734   7.452  12.544
 2257SOL     OW 8667  12.269  13.786  12.260
 2257SOL    HW1 8668  12.353  13.785  12.307
 2257SOL    HW2 8669  12.278  13.718  12.194
 2258SOL     OW 8670   7.908   9.782   6.519
 2258SOL    HW1 8671   7.828   9.752   6.476
 2258SOL    HW2 8672   7.964   9.814   6.448
 2259SOL     OW 8673  10.097   3.207  13.934
 2259SOL    HW1 8674  10.154   3.131  13.920
 2259SOL    HW2 8675  10.020   3.189  13.881
 2260SOL     OW 8676  11.152   9.042   6.012
 2260SOL    HW1 8677  11.224   8.984   6.037
 2260SOL    HW2 8678  11.099   8.990   5.952
 2261SOL     OW 8679  10.627  13.924  10.264
 2261SOL    HW1 8680  10.603  14.016  10.257
 2261SOL    HW2 8681  10.720  13.924  10.288
 2262SOL     OW 8682  13.431   5.888  13.472
 2262SOL    HW1 8683  13.473   5.971  13.495
 2262SOL    HW2 8684  13.419   5.843  13.555
 2263SOL     OW 8685   0.255  13.476   2.252
 2263SOL    HW1 8686   0.238  13.383   2.235
 2263SOL    HW2 8687   0.328  13.476   2.314
 2264SOL     OW 8688   8.832   6.406  13.224
 2264SOL    HW1 8689   8.786   6.460  13.288
 2264SOL    HW2 8690   8.911   6.455  13.204
 2265SOL     OW 8691   5.863   9.950   7.437
 2265SOL    HW1 8692   5.817   9.963   7.354
 2265SOL    HW2 8693   5.801   9.904   7.492
 2266SOL     OW 8694   5.115  11.887   3.192
 2266SOL    HW1 8695   5.199  11.844   3.175
 2266SOL    HW2 8696   5.073  11.832   3.257
 2267SOL     OW 8697  11.302   6.129  13.032
 2267SOL    HW1 8698  11.393   6.161  13.027
 2267SOL    HW2 8699  11.254   6.201  13.073
 2268SOL     OW 8700  13.659   4.797  12.292
 2268SOL    HW1 8701  13.640   4.891  12.290
 2268SOL    HW2 8702  13.621   4.767  12.375
 2269SOL     OW 8703   7.640   9.475  10.011
 2269SOL    HW1 8704   7.584   9.439   9.943
 2269SOL    HW2 8705   7.593   9.459  10.093
 2270SOL     OW 8706   3.836   6.188   8.903
 2270SOL    HW1 8707   3.771   6.255   8.881
 2270SOL    HW2 8708   3.794   6.105   8.882
 2271SOL     OW 8709   5.146   6.879   0.864
 2271SOL    HW1 8710   5.076   6.933   0.901
 2271SOL    HW2 8711   5.116   6.789   0.879
 2272SOL     OW 8712  12.583   6.421  11.633
 2272SOL    HW1 8713  12.550   6.409  11.544
 2272SOL    HW2 8714  12.567   6.513  11.653
 2273SOL     OW 8715   2.444  10.201   8.342
 2273SOL    HW1 8716   2.472  10.236   8.257
 2273SOL    HW2 8717   2.497  10.122   8.354
 2274SOL     OW 8718   6.154   8.145  13.986
 2274SOL    HW1 8719   6.122   8.075  13.928
 2274SOL    HW2 8720   6.199   8.098  14.056
 2275SOL     OW 8721   9.179   2.241   5.177
 2275SOL    HW1 8722   9.227   2.320   5.155
 2275SOL    HW2 8723   9.247   2.174   5.189
 2276SOL     OW 8724  10.239   1.928   2.485
 2276SOL    HW1 8725  10.307   1.936   2.551
 2276SOL    HW2 8726  10.213   2.018   2.466
 2277SOL     OW 8727  10.465   4.247  11.858
 2277SOL    HW1 8728  10.511   4.329  11.876
 2277SOL    HW2 8729  10.461   4.241  11.763
 2278SOL     OW 8730  10.797  12.351   8.658
 2278SOL    HW1 8731  10.891  12.351   8.640
 2278SOL    HW2 8732  10.775  12.444   8.670
 2279SOL     OW 8733   7.585   0.412  12.715
 2279SOL    HW1 8734   7.557   0.338  12.768
 2279SOL    HW2 8735   7.569   0.489  12.770
 2280SOL     OW 8736  12.150   2.228   0.669
 2280SOL    HW1 8737  12.126   2.213   0.577
 2280SOL    HW2 8738  12.071   2.265   0.709
 2281SOL     OW 8739   4.902  11.242   5.755
 2281SOL    HW1 8740   4.940  11.193   5.682
 2281SOL    HW2 8741   4.971  11.304   5.780
 2282SOL     OW 8742  14.754   7.540  14.671
 2282SOL    HW1 8743  14.740   7.624  14.715
 2282SOL    HW2 8744  14.753   7.563  14.578
 2283SOL     OW 8745  11.223   9.880  14.578
 2283SOL    HW1 8746  11.191   9.790  14.566
 2283SOL    HW2 8747  11.146   9.935  14.568
 2284SOL     OW 8748   9.114   0.447   5.409
 2284SOL    HW1 8749   9.112   0.543   5.417
 2284SOL    HW2 8750   9.083   0.430   5.320
 2285SOL     OW 8751  11.210  11.486   8.577
 2285SOL    HW1 8752  11.253  11.572   8.574
 2285SOL    HW2 8753  11.131  11.500   8.628
 2286SOL     OW 8754   4.155   9.618   9.385
 2286SOL    HW1 8755   4.174   9.525   9.372
 2286SOL    HW2 8756   4.109   9.623   9.469
 2287SOL     OW 8757  10.113   3.534  11.773
 2287SOL    HW1 8758  10.195   3.559  11.815
 2287SOL    HW2 8759  10.086   3.453  11.818
 2288SOL     OW 8760   0.805   4.760  13.442
 2288SOL    HW1 8761   0.890   4.765  13.398
 2288SOL    HW2 8762   0.746   4.722  13.376
 2289SOL     OW 8763  12.458  13.861   3.385
 2289SOL    HW1 8764  12.466  13.939   3.440
 2289SOL    HW2 8765  12.373  13.870   3.343
 2290SOL     OW 8766  13.499   4.534  12.217
 2290SOL    HW1 8767  13.495   4.438  12.221
 2290SOL    HW2 8768  13.590   4.555  12.238
 2291SOL     OW 8769  13.366   8.862   6.873
 2291SOL    HW1 8770  13.446   8.851   6.822
 2291SOL    HW2 8771  13.396   8.881   6.962
 2292SOL     OW 8772  13.947  10.035   4.467
 2292SOL    HW1 8773  13.875   9.980   4.500
 2292SOL    HW2 8774  13.904  10.097   4.409
 2293SOL     OW 8775   2.361   2.848  14.179
 2293SOL    HW1 8776   2.436   2.801  14.215
 2293SOL    HW2 8777   2.290   2.829  14.240
 2294SOL     OW 8778   2.896   4.124   6.516
 2294SOL    HW1 8779   2.991   4.111   6.516
 2294SOL    HW2 8780   2.869   4.100   6.427
 2295SOL     OW 8781   0.682   3.395  13.673
 2295SOL    HW1 8782   0.607   3.389  13.614
 2295SOL    HW2 8783   0.644   3.408  13.760
 2296SOL     OW 8784   3.929   3.148   4.139
 2296SOL    HW1 8785   4.001   3.167   4.080
 2296SOL    HW2 8786   3.918   3.053   4.134
 2297SOL     OW 8787   1.981  11.743   3.277
 2297SOL    HW1 8788   1.934  11.672   3.234
 2297SOL    HW2 8789   2.066  11.746   3.233
 2298SOL     OW 8790   8.138   0.985   7.979
 2298SOL    HW1 8791   8.224   1.023   7.958
 2298SOL    HW2 8792   8.134   0.905   7.927
 2299SOL     OW 8793   5.805  13.946   1.734
 2299SOL    HW1 8794   5.786  13.994   1.815
 2299SOL    HW2 8795   5.744  13.872   1.735
 2300SOL     OW 8796   6.807   5.664  10.167
 2300SOL    HW1 8797   6.743   5.694  10.231
 2300SOL    HW2 8798   6.891   5.673  10.211
 2301SOL     OW 8799  14.154   3.869   7.808
 2301SOL    HW1 8800  14.117   3.795   7.857
 2301SOL    HW2 8801  14.154   3.942   7.870
 2302SOL     OW 8802   7.345  10.837  12.946
 2302SOL    HW1 8803   7.306  10.774  13.006
 2302SOL    HW2 8804   7.393  10.784  12.883
 2303SOL     OW 8805  14.323   0.779   7.300
 2303SOL    HW1 8806  14.260   0.761   7.230
 2303SOL    HW2 8807  14.363   0.862   7.275
 2304SOL     OW 8808   9.484  10.574   7.738
 2304SOL    HW1 8809   9.475  10.481   7.717
 2304SOL    HW2 8810   9.395  10.608   7.735
 2305SOL     OW 8811  11.705   2.281   6.853
 2305SOL    HW1 8812  11.684   2.240   6.937
 2305SOL    HW2 8813  11.644   2.241   6.791
 2306SOL     OW 8814   3.451   8.343  12.180
 2306SOL    HW1 8815   3.415   8.432  12.173
 2306SOL    HW2 8816   3.377   8.288  12.205
 2307SOL     OW 8817   4.213  14.290   8.992
 2307SOL    HW1 8818   4.232  14.196   8.988
 2307SOL    HW2 8819   4.238  14.323   8.905
 2308SOL     OW 8820   3.095   1.445   1.173
 2308SOL    HW1 8821   3.186   1.419   1.158
 2308SOL    HW2 8822   3.061   1.378   1.233
 2309SOL     OW 8823  10.394   3.027   5.795
 2309SOL    HW1 8824  10.337   2.962   5.754
 2309SOL    HW2 8825  10.353   3.044   5.879
 2310SOL     OW 8826   8.432   7.457   9.775
 2310SOL    HW1 8827   8.380   7.504   9.839
 2310SOL    HW2 8828   8.442   7.369   9.811
 2311SOL     OW 8829  10.152  12.206   3.075
 2311SOL    HW1 8830  10.134  12.285   3.126
 2311SOL    HW2 8831  10.244  12.186   3.094
 2312SOL     OW 8832  14.126   3.962  14.861
 2312SOL    HW1 8833  14.186   3.924  14.797
 2312SOL    HW2 8834  14.053   3.900  14.866
 2313SOL     OW 8835   6.375  14.382  10.623
 2313SOL    HW1 8836   6.410  14.327  10.693
 2313SOL    HW2 8837   6.323  14.323  10.569
 2314SOL     OW 8838  13.559   9.283   8.796
 2314SOL    HW1 8839  13.610   9.362   8.776
 2314SOL    HW2 8840  13.623   9.224   8.837
 2315SOL     OW 8841  13.766   5.792  14.737
 2315SOL    HW1 8842  13.700   5.792  14.668
 2315SOL    HW2 8843  13.715   5.781  14.818
 2316SOL     OW 8844   4.764  10.065   2.541
 2316SOL    HW1 8845   4.679  10.065   2.496
 2316SOL    HW2 8846   4.776   9.975   2.570
 2317SOL     OW 8847   8.000   7.999  14.722
 2317SOL    HW1 8848   8.076   7.995  14.780
 2317SOL    HW2 8849   7.942   8.062  14.764
 2318SOL     OW 8850   8.212   6.956   8.169
 2318SOL    HW1 8851   8.266   7.018   8.218
 2318SOL    HW2 8852   8.122   6.986   8.185
 2319SOL     OW 8853  14.659   9.048  11.511
 2319SOL    HW1 8854  14.678   8.986  11.580
 2319SOL    HW2 8855  14.582   9.096  11.542
 2320SOL     OW 8856  10.600   6.525   8.478
 2320SOL    HW1 8857  10.675   6.576   8.507
 2320SOL    HW2 8858  10.524   6.568   8.516
 2321SOL     OW 8859  13.603   1.423  10.169
 2321SOL    HW1 8860  13.559   1.454  10.248
 2321SOL    HW2 8861  13.682   1.477  10.163
 2322SOL     OW 8862  13.641   5.933   2.065
 2322SOL    HW1 8863  13.684   6.014   2.091
 2322SOL    HW2 8864  13.592   5.956   1.986
 2323SOL     OW 8865   6.646  12.239   3.162
 2323SOL    HW1 8866   6.630  12.167   3.223
 2323SOL    HW2 8867   6.574  12.234   3.099
 2324SOL     OW 8868   7.450   7.159  11.523
 2324SOL    HW1 8869   7.528   7.189  11.568
 2324SOL    HW2 8870   7.401   7.239  11.502
 2325SOL     OW 8871   0.920  13.749   4.969
 2325SOL    HW1 8872   0.982  13.676   4.967
 2325SOL    HW2 8873   0.843  13.713   5.014
 2326SOL     OW 8874  10.162   7.384   6.038
 2326SOL    HW1 8875  10.105   7.360   6.112
 2326SOL    HW2 8876  10.212   7.458   6.071
 2327SOL     OW 8877   0.224  11.551   5.964
 2327SOL    HW1 8878   0.143  11.516   5.928
 2327SOL    HW2 8879   0.197  11.631   6.010
 2328SOL     OW 8880   0.797   7.796  12.363
 2328SOL    HW1 8881   0.824   7.886  12.380
 2328SOL    HW2 8882   0.868   7.742  12.399
 2329SOL     OW 8883  12.619  11.177   6.734
 2329SOL    HW1 8884  12.617  11.180   6.830
 2329SOL    HW2 8885  12.677  11.103   6.714
 2330SOL     OW 8886  10.422   2.496   9.626
 2330SOL    HW1 8887  10.516   2.513   9.632
 2330SOL    HW2 8888  10.386   2.574   9.585
 2331SOL     OW 8889   6.670   3.114   3.482
 2331SOL    HW1 8890   6.577   3.110   3.462
 2331SOL    HW2 8891   6.701   3.024   3.471
 2332SOL     OW 8892   2.144   9.442   5.079
 2332SOL    HW1 8893   2.112   9.373   5.138
 2332SOL    HW2 8894   2.234   9.457   5.105
 2333SOL     OW 8895   3.678   8.759   5.969
 2333SOL    HW1 8896   3.601   8.708   5.942
 2333SOL    HW2 8897   3.751   8.697   5.962
 2334SOL     OW 8898   2.624  10.566   8.931
 2334SOL    HW1 8899   2.630  10.604   8.843
 2334SOL    HW2 8900   2.692  10.499   8.934
 2335SOL     OW 8901   3.261  11.521   8.553
 2335SOL    HW1 8902   3.272  11.479   8.468
 2335SOL    HW2 8903   3.231  11.610   8.533
 2336SOL     OW 8904   6.251  10.382   7.599
 2336SOL    HW1 8905   6.310  10.399   7.525
 2336SOL    HW2 8906   6.163  10.384   7.561
 2337SOL     OW 8907   3.508   8.190  13.817
 2337SOL    HW1 8908   3.507   8.286  13.813
 2337SOL    HW2 8909   3.456   8.168  13.894
 2338SOL     OW 8910  13.364   1.269   1.564
 2338SOL    HW1 8911  13.285   1.297   1.518
 2338SOL    HW2 8912  13.415   1.221   1.498
 2339SOL     OW 8913   5.703   0.053  11.811
 2339SOL    HW1 8914   5.792   0.019  11.820
 2339SOL    HW2 8915   5.664   0.001  11.741
 2340SOL     OW 8916   0.494   1.367   4.997
 2340SOL    HW1 8917   0.583   1.383   4.967
 2340SOL    HW2 8918   0.493   1.393   5.089
 2341SOL     OW 8919   6.383   5.365  10.175
 2341SOL    HW1 8920   6.389   5.280  10.218
 2341SOL    HW2 8921   6.409   5.348  10.084
 2342SOL     OW 8922  12.140   2.770  11.649
 2342SOL    HW1 8923  12.141   2.838  11.717
 2342SOL    HW2 8924  12.226   2.728  11.657
 2343SOL     OW 8925   6.228  11.782   6.640
 2343SOL    HW1 8926   6.239  11.860   6.693
 2343SOL    HW2 8927   6.273  11.713   6.689
 2344SOL     OW 8928  10.271  13.862  13.455
 2344SOL    HW1 8929  10.341  13.811  13.495
 2344SOL    HW2 8930  10.273  13.945  13.503
 2345SOL     OW 8931   9.347   9.422  12.779
 2345SOL    HW1 8932   9.299   9.433  12.697
 2345SOL    HW2 8933   9.316   9.338  12.813
 2346SOL     OW 8934   4.661  12.791   4.632
 2346SOL    HW1 8935   4.636  12.742   4.710
 2346SOL    HW2 8936   4.621  12.877   4.645
 2347SOL     OW 8937  11.939  14.285  11.607
 2347SOL    HW1 8938  11.901  14.202  11.576
 2347SOL    HW2 8939  11.984  14.320  11.530
 2348SOL     OW 8940   2.379  10.426   8.939
 2348SOL    HW1 8941   2.335  10.462   8.861
 2348SOL    HW2 8942   2.446  10.491   8.960
 2349SOL     OW 8943  10.908   7.624   7.971
 2349SOL    HW1 8944  10.850   7.660   7.905
 2349SOL    HW2 8945  10.904   7.530   7.959
 2350SOL     OW 8946   3.047   3.732   4.300
 2350SOL    HW1 8947   3.131   3.770   4.327
 2350SOL    HW2 8948   2.989   3.808   4.294
 2351SOL     OW 8949  11.875   7.822  11.797
 2351SOL    HW1 8950  11.944   7.755  11.792
 2351SOL    HW2 8951  11.899   7.875  11.873
 2352SOL     OW 8952  11.657   2.992   9.621
 2352SOL    HW1 8953  11.589   2.936   9.660
 2352SOL    HW2 8954  11.717   2.931   9.578
 2353SOL     OW 8955  11.245   0.295   6.415
 2353SOL    HW1 8956  11.157   0.328   6.398
 2353SOL    HW2 8957  11.302   0.372   6.408
 2354SOL     OW 8958  10.286   6.101   8.753
 2354SOL    HW1 8959  10.297   6.172   8.689
 2354SOL    HW2 8960  10.203   6.060   8.730
 2355SOL     OW 8961   0.400  12.785   2.469
 2355SOL    HW1 8962   0.389  12.753   2.559
 2355SOL    HW2 8963   0.321  12.758   2.424
 2356SOL     OW 8964  14.871   4.614   7.016
 2356SOL    HW1 8965  14.822   4.643   6.939
 2356SOL    HW2 8966   0.055   4.554   6.981
 2357SOL     OW 8967   1.089  11.149   6.014
 2357SOL    HW1 8968   1.124  11.064   6.042
 2357SOL    HW2 8969   1.153  11.181   5.950
 2358SOL     OW 8970  11.263  12.659   6.801
 2358SOL    HW1 8971  11.264  12.725   6.870
 2358SOL    HW2 8972  11.181  12.675   6.755
 2359SOL     OW 8973   7.576   2.623   4.660
 2359SOL    HW1 8974   7.576   2.557   4.729
 2359SOL    HW2 8975   7.587   2.572   4.579
 2360SOL     OW 8976   2.826  11.885   2.419
 2360SOL    HW1 8977   2.813  11.948   2.349
 2360SOL    HW2 8978   2.920  11.890   2.439
 2361SOL     OW 8979   2.530   2.098  13.253
 2361SOL    HW1 8980   2.461   2.149  13.211
 2361SOL    HW2 8981   2.600   2.095  13.189
 2362SOL     OW 8982   7.249   7.004   6.501
 2362SOL    HW1 8983   7.322   6.970   6.450
 2362SOL    HW2 8984   7.280   7.089   6.534
 2363SOL     OW 8985   4.635   9.261  10.992
 2363SOL    HW1 8986   4.579   9.330  10.957
 2363SOL    HW2 8987   4.590   9.230  11.070
 2364SOL     OW 8988   2.342   5.762  13.933
 2364SOL    HW1 8989   2.381   5.845  13.961
 2364SOL    HW2 8990   2.248   5.775  13.946
 2365SOL     OW 8991   9.224  11.671   4.990
 2365SOL    HW1 8992   9.160  11.626   5.045
 2365SOL    HW2 8993   9.236  11.755   5.033
 2366SOL     OW 8994   9.452  12.530   0.630
 2366SOL    HW1 8995   9.399  12.608   0.611
 2366SOL    HW2 8996   9.539  12.565   0.649
 2367SOL     OW 8997   5.326   9.503  10.434
 2367SOL    HW1 8998   5.307   9.597  10.444
 2367SOL    HW2 8999   5.365   9.496  10.347
 2368SOL     OW 9000   8.474   4.103  13.857
 2368SOL    HW1 9001   8.554   4.154  13.842
 2368SOL    HW2 9002   8.413   4.134  13.791
 2369SOL     OW 9003   1.575   9.875   5.127
 2369SOL    HW1 9004   1.642   9.879   5.196
 2369SOL    HW2 9005   1.595   9.794   5.079
 2370SOL     OW 9006   9.783   2.237   9.922
 2370SOL    HW1 9007   9.707   2.181   9.939
 2370SOL    HW2 9008   9.855   2.194   9.968
 2371SOL     OW 9009   8.742   8.796   2.887
 2371SOL    HW1 9010   8.665   8.743   2.867
 2371SOL    HW2 9011   8.795   8.741   2.944
 2372SOL     OW 9012  11.514   3.041   7.936
 2372SOL    HW1 9013  11.549   3.061   8.022
 2372SOL    HW2 9014  11.571   2.972   7.902
 2373SOL     OW 9015  12.804   4.782   9.387
 2373SOL    HW1 9016  12.731   4.734   9.424
 2373SOL    HW2 9017  12.778   4.800   9.297
 2374SOL     OW 9018   1.698  12.140  11.047
 2374SOL    HW1 9019   1.753  12.157  11.123
 2374SOL    HW2 9020   1.758  12.105  10.981
 2375SOL     OW 9021  14.648   0.773  13.964
 2375SOL    HW1 9022  14.595   0.785  13.885
 2375SOL    HW2 9023  14.737   0.793  13.937
 2376SOL     OW 9024   5.686   5.548   0.524
 2376SOL    HW1 9025   5.751   5.480   0.540
 2376SOL    HW2 9026   5.639   5.518   0.445
 2377SOL     OW 9027   7.541   7.680  12.963
 2377SOL    HW1 9028   7.610   7.724  12.914
 2377SOL    HW2 9029   7.505   7.747  13.021
 2378SOL     OW 9030   0.365   5.103  13.392
 2378SOL    HW1 9031   0.367   5.084  13.485
 2378SOL    HW2 9032   0.378   5.198  13.386
 2379SOL     OW 9033  11.012   5.851   4.317
 2379SOL    HW1 9034  11.084   5.809   4.363
 2379SOL    HW2 9035  11.055   5.914   4.258
 2380SOL     OW 9036   2.354  12.974  10.799
 2380SOL    HW1 9037   2.385  12.915  10.730
 2380SOL    HW2 9038   2.321  13.050  10.752
 2381SOL     OW 9039   8.493   3.009  11.336
 2381SOL    HW1 9040   8.457   2.933  11.292
 2381SOL    HW2 9041   8.572   2.977  11.380
 2382SOL     OW 9042  14.397   8.637  12.197
 2382SOL    HW1 9043  14.302   8.622  12.198
 2382SOL    HW2 9044  14.408   8.725  12.233
 2383SOL     OW 9045   4.129  12.224  12.705
 2383SOL    HW1 9046   4.177  12.200  12.625
 2383SOL    HW2 9047   4.046  12.259  12.673
 2384SOL     OW 9048   2.137  13.161   9.402
 2384SOL    HW1 9049   2.088  13.103   9.461
 2384SOL    HW2 9050   2.097  13.248   9.416
 2385SOL     OW 9051  10.429  11.374   1.858
 2385SOL    HW1 9052  10.448  11.460   1.896
 2385SOL    HW2 9053  10.515  11.333   1.849
 2386SOL     OW 9054   4.774  12.683   4.289
 2386SOL    HW1 9055   4.695  12.717   4.330
 2386SOL    HW2 9056   4.756  12.590   4.273
 2387SOL     OW 9057  11.541   3.918  12.295
 2387SOL    HW1 9058  11.561   3.997  12.344
 2387SOL    HW2 9059  11.607   3.914  12.227
 2388SOL     OW 9060   1.484   9.040   2.010
 2388SOL    HW1 9061   1.500   9.132   2.032
 2388SOL    HW2 9062   1.563   9.013   1.962
 2389SOL     OW 9063  13.978   2.473  12.021
 2389SOL    HW1 9064  14.064   2.436  12.004
 2389SOL    HW2 9065  13.965   2.537  11.951
 2390SOL     OW 9066   5.306   3.732   0.410
 2390SOL    HW1 9067   5.372   3.801   0.404
 2390SOL    HW2 9068   5.250   3.758   0.483
 2391SOL     OW 9069   0.497  13.536   1.576
 2391SOL    HW1 9070   0.539  13.605   1.525
 2391SOL    HW2 9071   0.510  13.457   1.523
 2392SOL     OW 9072   1.490   7.500   0.175
 2392SOL    HW1 9073   1.585   7.506   0.176
 2392SOL    HW2 9074   1.463   7.521   0.264
 2393SOL     OW 9075  11.031   0.400   8.515
 2393SOL    HW1 9076  11.090   0.476   8.521
 2393SOL    HW2 9077  11.053   0.347   8.592
 2394SOL     OW 9078  12.149   2.697   8.442
 2394SOL    HW1 9079  12.128   2.664   8.529
 2394SOL    HW2 9080  12.169   2.790   8.455
 2395SOL     OW 9081   1.707   6.975   0.578
 2395SOL    HW1 9082   1.782   6.999   0.632
 2395SOL    HW2 9083   1.643   6.940   0.640
 2396SOL     OW 9084  11.682  10.996   9.460
 2396SOL    HW1 9085  11.775  11.012   9.445
 2396SOL    HW2 9086  11.640  11.014   9.376
 2397SOL     OW 9087   8.666  10.150   9.619
 2397SOL    HW1 9088   8.620  10.115   9.542
 2397SOL    HW2 9089   8.700  10.235   9.590
 2398SOL     OW 9090   7.037   1.468   9.372
 2398SOL    HW1 9091   7.021   1.487   9.279
 2398SOL    HW2 9092   6.966   1.409   9.397
 2399SOL     OW 9093  14.878  13.128   8.732
 2399SOL    HW1 9094  14.784  13.139   8.740
 2399SOL    HW2 9095   0.033  13.185   8.800
 2400SOL     OW 9096   1.975  14.212  10.895
 2400SOL    HW1 9097   1.927  14.284  10.853
 2400SOL    HW2 9098   2.033  14.178  10.827
 2401SOL     OW 9099  10.261   6.459   8.961
 2401SOL    HW1 9100  10.319   6.470   9.036
 2401SOL    HW2 9101  10.208   6.382   8.983
 2402SOL     OW 9102   9.810   2.426   6.894
 2402SOL    HW1 9103   9.795   2.391   6.806
 2402SOL    HW2 9104   9.905   2.437   6.899
 2403SOL     OW 9105   1.789   6.858  13.883
 2403SOL    HW1 9106   1.778   6.772  13.924
 2403SOL    HW2 9107   1.801   6.840  13.790
 2404SOL     OW 9108   6.490   1.776   9.391
 2404SOL    HW1 9109   6.467   1.732   9.473
 2404SOL    HW2 9110   6.428   1.849   9.385
 2405SOL     OW 9111   8.273   5.430   1.774
 2405SOL    HW1 9112   8.244   5.381   1.697
 2405SOL    HW2 9113   8.366   5.448   1.758
 2406SOL     OW 9114  14.677   6.815   3.793
 2406SOL    HW1 9115  14.652   6.907   3.808
 2406SOL    HW2 9116  14.719   6.816   3.707
 2407SOL     OW 9117  14.803  13.860   8.241
 2407SOL    HW1 9118  14.744  13.874   8.168
 2407SOL    HW2 9119   0.006  13.843   8.200
 2408SOL     OW 9120   5.766   7.524   2.677
 2408SOL    HW1 9121   5.695   7.481   2.726
 2408SOL    HW2 9122   5.755   7.492   2.587
 2409SOL     OW 9123   2.737   4.698  10.793
 2409SOL    HW1 9124   2.721   4.746  10.874
 2409SOL    HW2 9125   2.822   4.731  10.763
 2410SOL     OW 9126   1.157   4.318   0.874
 2410SOL    HW1 9127   1.207   4.242   0.843
 2410SOL    HW2 9128   1.202   4.345   0.954
 2411SOL     OW 9129   2.163   5.284  13.121
 2411SOL    HW1 9130   2.236   5.227  13.095
 2411SOL    HW2 9131   2.181   5.306  13.213
 2412SOL     OW 9132   8.156   1.611  11.262
 2412SOL    HW1 9133   8.084   1.642  11.208
 2412SOL    HW2 9134   8.207   1.554  11.204
 2413SOL     OW 9135  14.065   4.999  14.417
 2413SOL    HW1 9136  14.101   5.023  14.502
 2413SOL    HW2 9137  14.007   5.071  14.394
 2414SOL     OW 9138  14.465  13.848   8.654
 2414SOL    HW1 9139  14.413  13.769   8.644
 2414SOL    HW2 9140  14.407  13.919   8.626
 2415SOL     OW 9141  10.682   0.455   6.056
 2415SOL    HW1 9142  10.714   0.366   6.042
 2415SOL    HW2 9143  10.761   0.507   6.071
 2416SOL     OW 9144  11.314  10.284   2.648
 2416SOL    HW1 9145  11.254  10.212   2.667
 2416SOL    HW2 9146  11.310  10.294   2.553
 2417SOL     OW 9147   9.277  12.201  11.743
 2417SOL    HW1 9148   9.268  12.116  11.700
 2417SOL    HW2 9149   9.204  12.205  11.805
 2418SOL     OW 9150  13.356  11.742   5.859
 2418SOL    HW1 9151  13.361  11.799   5.936
 2418SOL    HW2 9152  13.263  11.723   5.850
 2419SOL     OW 9153  14.641   2.840   7.244
 2419SOL    HW1 9154  14.638   2.929   7.280
 2419SOL    HW2 9155  14.557   2.831   7.198
 2420SOL     OW 9156   3.825  11.258   5.993
 2420SOL    HW1 9157   3.769  11.184   6.018
 2420SOL    HW2 9158   3.899  11.253   6.053
 2421SOL     OW 9159  14.808   7.108   8.050
 2421SOL    HW1 9160  14.827   7.042   7.983
 2421SOL    HW2 9161  14.844   7.072   8.131
 2422SOL     OW 9162   8.097   5.076   5.117
 2422SOL    HW1 9163   8.072   5.026   5.039
 2422SOL    HW2 9164   8.014   5.113   5.148
 2423SOL     OW 9165   8.855   6.648   0.184
 2423SOL    HW1 9166   8.792   6.580   0.160
 2423SOL    HW2 9167   8.831   6.723   0.128
 2424SOL     OW 9168   8.877  12.663   6.259
 2424SOL    HW1 9169   8.841  12.696   6.177
 2424SOL    HW2 9170   8.972  12.665   6.247
 2425SOL     OW 9171  11.041   6.910   2.945
 2425SOL    HW1 9172  11.039   6.815   2.936
 2425SOL    HW2 9173  11.085   6.941   2.866
 2426SOL     OW 9174  13.890   5.876   8.912
 2426SOL    HW1 9175  13.854   5.943   8.854
 2426SOL    HW2 9176  13.948   5.923   8.971
 2427SOL     OW 9177   5.163  12.090   6.960
 2427SOL    HW1 9178   5.257  12.094   6.976
 2427SOL    HW2 9179   5.123  12.111   7.044
 2428SOL     OW 9180  12.781  14.140   2.619
 2428SOL    HW1 9181  12.821  14.054   2.631
 2428SOL    HW2 9182  12.708  14.141   2.681
 2429SOL     OW 9183   0.843  13.117  11.731
 2429SOL    HW1 9184   0.902  13.045  11.755
 2429SOL    HW2 9185   0.893  13.167  11.666
 2430SOL     OW 9186   8.865   3.145   2.396
 2430SOL    HW1 9187   8.829   3.208   2.333
 2430SOL    HW2 9188   8.866   3.062   2.348
 2431SOL     OW 9189  11.252   5.258  10.060
 2431SOL    HW1 9190  11.298   5.210   9.990
 2431SOL    HW2 9191  11.291   5.345  10.059
 2432SOL     OW 9192   3.715   7.946   7.966
 2432SOL    HW1 9193   3.740   7.995   7.887
 2432SOL    HW2 9194   3.647   7.999   8.007
 2433SOL     OW 9195   1.369  13.346   5.844
 2433SOL    HW1 9196   1.433  13.335   5.773
 2433SOL    HW2 9197   1.304  13.278   5.828
 2434SOL     OW 9198   1.055   9.968   5.069
 2434SOL    HW1 9199   1.002   9.927   5.001
 2434SOL    HW2 9200   1.011   9.946   5.151
 2435SOL     OW 9201   0.950   7.030   4.832
 2435SOL    HW1 9202   1.045   7.032   4.846
 2435SOL    HW2 9203   0.917   7.100   4.887
 2436SOL     OW 9204   7.962  11.109   8.867
 2436SOL    HW1 9205   8.025  11.111   8.939
 2436SOL    HW2 9206   7.884  11.153   8.901
 2437SOL     OW 9207   1.048  10.076  11.466
 2437SOL    HW1 9208   1.003  10.044  11.388
 2437SOL    HW2 9209   1.096   9.999  11.499
 2438SOL     OW 9210   2.188  14.447   5.775
 2438SOL    HW1 9211   2.273  14.429   5.816
 2438SOL    HW2 9212   2.133  14.373   5.799
 2439SOL     OW 9213   8.886   1.315   8.574
 2439SOL    HW1 9214   8.918   1.338   8.486
 2439SOL    HW2 9215   8.949   1.356   8.633
 2440SOL     OW 9216   3.314   4.946   1.502
 2440SOL    HW1 9217   3.295   5.002   1.578
 2440SOL    HW2 9218   3.234   4.951   1.449
 2441SOL     OW 9219  13.551   3.236   6.344
 2441SOL    HW1 9220  13.599   3.188   6.276
 2441SOL    HW2 9221  13.599   3.319   6.352
 2442SOL     OW 9222   1.947   5.818   3.627
 2442SOL    HW1 9223   1.869   5.874   3.632
 2442SOL    HW2 9224   2.003   5.861   3.562
 2443SOL     OW 9225   0.632   9.669   1.146
 2443SOL    HW1 9226   0.607   9.610   1.075
 2443SOL    HW2 9227   0.722   9.643   1.168
 2444SOL     OW 9228   3.145   3.787   9.741
 2444SOL    HW1 9229   3.144   3.813   9.649
 2444SOL    HW2 9230   3.056   3.804   9.772
 2445SOL     OW 9231   5.991  11.323  14.115
 2445SOL    HW1 9232   6.069  11.271  14.135
 2445SOL    HW2 9233   5.939  11.267  14.058
 2446SOL     OW 9234   9.494  11.759  14.148
 2446SOL    HW1 9235   9.533  11.726  14.229
 2446SOL    HW2 9236   9.492  11.854  14.159
 2447SOL     OW 9237  14.810   0.708   2.589
 2447SOL    HW1 9238  14.852   0.727   2.673
 2447SOL    HW2 9239  14.722   0.745   2.598
 2448SOL     OW 9240   5.682  13.377  10.798
 2448SOL    HW1 9241   5.693  13.361  10.891
 2448SOL    HW2 9242   5.590  13.401  10.788
 2449SOL     OW 9243   6.176   4.812   8.170
 2449SOL    HW1 9244   6.215   4.882   8.221
 2449SOL    HW2 9245   6.221   4.815   8.085
 2450SOL     OW 9246   0.621  10.994  11.727
 2450SOL    HW1 9247   0.696  10.935  11.733
 2450SOL    HW2 9248   0.656  11.074  11.688
 2451SOL     OW 9249   1.707   2.464   2.013
 2451SOL    HW1 9250   1.622   2.476   2.055
 2451SOL    HW2 9251   1.687   2.455   1.920
 2452SOL     OW 9252   4.644   8.954   6.007
 2452SOL    HW1 9253   4.651   8.870   5.961
 2452SOL    HW2 9254   4.729   8.996   5.995
 2453SOL     OW 9255   9.714   4.373  11.760
 2453SOL    HW1 9256   9.621   4.371  11.783
 2453SOL    HW2 9257   9.749   4.446  11.810
 2454SOL     OW 9258   9.814   9.320  10.067
 2454SOL    HW1 9259   9.821   9.273   9.984
 2454SOL    HW2 9260   9.776   9.256  10.127
 2455SOL     OW 9261   2.621   3.685   0.779
 2455SOL    HW1 9262   2.581   3.620   0.837
 2455SOL    HW2 9263   2.609   3.768   0.824
 2456SOL     OW 9264   7.975  14.399  10.131
 2456SOL    HW1 9265   8.035  14.331  10.102
 2456SOL    HW2 9266   7.896  14.352  10.159
 2457SOL     OW 9267  13.086   2.439  14.770
 2457SOL    HW1 9268  13.098   2.532  14.748
 2457SOL    HW2 9269  12.995   2.420  14.745
 2458SOL     OW 9270  11.186  10.808   7.067
 2458SOL    HW1 9271  11.247  10.880   7.082
 2458SOL    HW2 9272  11.219  10.737   7.121
 2459SOL     OW 9273   5.928   9.985   3.581
 2459SOL    HW1 9274   5.936  10.008   3.673
 2459SOL    HW2 9275   6.015   9.956   3.555
 2460SOL     OW 9276   1.184   5.308   4.448
 2460SOL    HW1 9277   1.091   5.322   4.431
 2460SOL    HW2 9278   1.228   5.377   4.398
 2461SOL     OW 9279  10.825   6.804   0.130
 2461SOL    HW1 9280  10.828   6.899   0.118
 2461SOL    HW2 9281  10.905   6.783   0.179
 2462SOL     OW 9282   2.384   4.919  12.434
 2462SOL    HW1 9283   2.449   4.965  12.381
 2462SOL    HW2 9284   2.436   4.859  12.488
 2463SOL     OW 9285   0.570   5.339   4.109
 2463SOL    HW1 9286   0.501   5.308   4.050
 2463SOL    HW2 9287   0.559   5.434   4.111
 2464SOL     OW 9288   2.994   7.945   3.374
 2464SOL    HW1 9289   2.930   7.920   3.441
 2464SOL    HW2 9290   2.980   8.039   3.361
 2465SOL     OW 9291  11.634  14.537  11.855
 2465SOL    HW1 9292  11.718  14.510  11.817
 2465SOL    HW2 9293  11.609  14.613  11.803
 2466SOL     OW 9294   0.820   7.003  12.054
 2466SOL    HW1 9295   0.845   7.094  12.069
 2466SOL    HW2 9296   0.725   7.001  12.068
 2467SOL     OW 9297  11.485   9.734   7.861
 2467SOL    HW1 9298  11.474   9.801   7.793
 2467SOL    HW2 9299  11.405   9.681   7.857
 2468SOL     OW 9300  10.759   7.076  11.976
 2468SOL    HW1 9301  10.793   7.083  11.886
 2468SOL    HW2 9302  10.686   7.138  11.979
 2469SOL     OW 9303  14.634   7.791  13.525
 2469SOL    HW1 9304  14.607   7.876  13.490
 2469SOL    HW2 9305  14.647   7.806  13.619
 2470SOL     OW 9306  14.128  11.709  13.480
 2470SOL    HW1 9307  14.039  11.699  13.444
 2470SOL    HW2 9308  14.115  11.746  13.567
 2471SOL     OW 9309  13.802   9.607   3.848
 2471SOL    HW1 9310  13.710   9.632   3.856
 2471SOL    HW2 9311  13.814   9.539   3.914
 2472SOL     OW 9312  14.200  10.507   1.118
 2472SOL    HW1 9313  14.227  10.599   1.120
 2472SOL    HW2 9314  14.106  10.509   1.134
 2473SOL     OW 9315   5.415   6.945   1.959
 2473SOL    HW1 9316   5.503   6.981   1.948
 2473SOL    HW2 9317   5.429   6.850   1.963
 2474SOL     OW 9318   3.883   0.097   8.232
 2474SOL    HW1 9319   3.937   0.151   8.175
 2474SOL    HW2 9320   3.882   0.144   8.316
 2475SOL     OW 9321  10.282   5.036   9.767
 2475SOL    HW1 9322  10.197   5.010   9.731
 2475SOL    HW2 9323  10.291   5.128   9.743
 2476SOL     OW 9324   2.494   6.567   0.985
 2476SOL    HW1 9325   2.577   6.602   0.953
 2476SOL    HW2 9326   2.430   6.634   0.962
 2477SOL     OW 9327   2.492   0.905   4.284
 2477SOL    HW1 9328   2.551   0.839   4.249
 2477SOL    HW2 9329   2.546   0.984   4.290
 2478SOL     OW 9330   8.319  11.485  10.500
 2478SOL    HW1 9331   8.332  11.392  10.517
 2478SOL    HW2 9332   8.267  11.517  10.574
 2479SOL     OW 9333   7.538   1.363  11.156
 2479SOL    HW1 9334   7.590   1.290  11.123
 2479SOL    HW2 9335   7.508   1.334  11.242
 2480SOL     OW 9336   2.680   7.829   8.998
 2480SOL    HW1 9337   2.668   7.734   8.987
 2480SOL    HW2 9338   2.689   7.840   9.092
 2481SOL     OW 9339  14.662   3.040  11.209
 2481SOL    HW1 9340  14.731   3.052  11.143
 2481SOL    HW2 9341  14.581   3.034  11.158
 2482SOL     OW 9342   1.653   8.602  11.658
 2482SOL    HW1 9343   1.616   8.521  11.694
 2482SOL    HW2 9344   1.576   8.657  11.641
 2483SOL     OW 9345  13.184  13.677   6.180
 2483SOL    HW1 9346  13.183  13.760   6.133
 2483SOL    HW2 9347  13.234  13.694   6.259
 2484SOL     OW 9348   2.657   0.705   3.049
 2484SOL    HW1 9349   2.632   0.671   2.963
 2484SOL    HW2 9350   2.581   0.688   3.104
 2485SOL     OW 9351   6.509  12.060   2.785
 2485SOL    HW1 9352   6.457  12.014   2.719
 2485SOL    HW2 9353   6.494  12.011   2.865
 2486SOL     OW 9354   2.131  12.982  10.463
 2486SOL    HW1 9355   2.069  13.054  10.455
 2486SOL    HW2 9356   2.149  12.955  10.373
 2487SOL     OW 9357   8.044  14.659   7.636
 2487SOL    HW1 9358   7.997  14.592   7.685
 2487SOL    HW2 9359   8.023  14.643   7.544
 2488SOL     OW 9360   8.651   6.333   1.298
 2488SOL    HW1 9361   8.615   6.351   1.211
 2488SOL    HW2 9362   8.695   6.414   1.323
 2489SOL     OW 9363   7.426   5.333  10.288
 2489SOL    HW1 9364   7.458   5.422  10.274
 2489SOL    HW2 9365   7.496   5.276  10.256
 2490SOL     OW 9366  10.896   2.801   5.216
 2490SOL    HW1 9367  10.830   2.734   5.198
 2490SOL    HW2 9368  10.918   2.788   5.308
 2491SOL     OW 9369  13.960   1.516   7.612
 2491SOL    HW1 9370  14.026   1.506   7.543
 2491SOL    HW2 9371  13.941   1.610   7.613
 2492SOL     OW 9372   7.844   0.267   1.323
 2492SOL    HW1 9373   7.800   0.319   1.256
 2492SOL    HW2 9374   7.777   0.206   1.354
 2493SOL     OW 9375   3.669   2.186  12.821
 2493SOL    HW1 9376   3.658   2.236  12.740
 2493SOL    HW2 9377   3.620   2.235  12.886
 2494SOL     OW 9378   3.092   9.626   3.615
 2494SOL    HW1 9379   3.029   9.646   3.685
 2494SOL    HW2 9380   3.051   9.556   3.565
 2495SOL     OW 9381  11.765  10.917   1.195
 2495SOL    HW1 9382  11.696  10.872   1.145
 2495SOL    HW2 9383  11.734  10.916   1.285
 2496SOL     OW 9384  10.369   3.945   3.562
 2496SOL    HW1 9385  10.342   3.926   3.652
 2496SOL    HW2 9386  10.354   3.862   3.515
 2497SOL     OW 9387  11.134   8.755  13.374
 2497SOL    HW1 9388  11.103   8.758  13.465
 2497SOL    HW2 9389  11.056   8.734  13.323
 2498SOL     OW 9390   8.191   5.307   4.767
 2498SOL    HW1 9391   8.211   5.334   4.856
 2498SOL    HW2 9392   8.103   5.342   4.749
 2499SOL     OW 9393   5.594  10.933   1.044
 2499SOL    HW1 9394   5.502  10.944   1.020
 2499SOL    HW2 9395   5.612  11.003   1.107
 2500SOL     OW 9396  11.812   8.869   9.719
 2500SOL    HW1 9397  11.806   8.793   9.661
 2500SOL    HW2 9398  11.814   8.944   9.660
 2501SOL     OW 9399   6.563  10.895   8.974
 2501SOL    HW1 9400   6.613  10.834   8.919
 2501SOL    HW2 9401   6.603  10.981   8.957
 2502SOL     OW 9402   9.147   5.604   9.436
 2502SOL    HW1 9403   9.087   5.657   9.383
 2502SOL    HW2 9404   9.096   5.527   9.460
 2503SOL     OW 9405   4.315   3.750   3.836
 2503SOL    HW1 9406   4.302   3.788   3.750
 2503SOL    HW2 9407   4.344   3.660   3.819
 2504SOL     OW 9408  13.518   4.205   9.426
 2504SOL    HW1 9409  13.479   4.284   9.464
 2504SOL    HW2 9410  13.478   4.198   9.339
 2505SOL     OW 9411   0.817   7.472  13.783
 2505SOL    HW1 9412   0.879   7.505  13.718
 2505SOL    HW2 9413   0.835   7.521  13.862
 2506SOL     OW 9414  14.072  14.117   9.721
 2506SOL    HW1 9415  14.050  14.162   9.639
 2506SOL    HW2 9416  13.987  14.093   9.758
 2507SOL     OW 9417   1.784  11.362  11.942
 2507SOL    HW1 9418   1.781  11.384  12.035
 2507SOL    HW2 9419   1.877  11.358  11.921
 2508SOL     OW 9420   2.063   8.857   4.100
 2508SOL    HW1 9421   2.079   8.776   4.052
 2508SOL    HW2 9422   2.139   8.912   4.080
 2509SOL     OW 9423  13.185   4.664   2.272
 2509SOL    HW1 9424  13.174   4.636   2.363
 2509SOL    HW2 9425  13.109   4.719   2.254
 2510SOL     OW 9426   5.600   7.084   9.597
 2510SOL    HW1 9427   5.514   7.093   9.638
 2510SOL    HW2 9428   5.606   6.992   9.573
 2511SOL     OW 9429   2.331   0.792   6.819
 2511SOL    HW1 9430   2.335   0.853   6.745
 2511SOL    HW2 9431   2.247   0.812   6.862
 2512SOL     OW 9432  13.082   8.966   8.666
 2512SOL    HW1 9433  13.047   9.051   8.641
 2512SOL    HW2 9434  13.107   8.976   8.758
 2513SOL     OW 9435   0.526   5.276   0.547
 2513SOL    HW1 9436   0.555   5.215   0.479
 2513SOL    HW2 9437   0.439   5.305   0.517
 2514SOL     OW 9438   4.636   3.154   8.009
 2514SOL    HW1 9439   4.634   3.069   8.053
 2514SOL    HW2 9440   4.727   3.182   8.015
 2515SOL     OW 9441   8.269  14.320   6.715
 2515SOL    HW1 9442   8.331  14.392   6.719
 2515SOL    HW2 9443   8.260  14.301   6.622
 2516SOL     OW 9444   2.821   9.638   8.496
 2516SOL    HW1 9445   2.751   9.648   8.431
 2516SOL    HW2 9446   2.835   9.727   8.529
 2517SOL     OW 9447  14.397   7.969  13.487
 2517SOL    HW1 9448  14.338   8.042  13.469
 2517SOL    HW2 9449  14.421   7.936  13.401
 2518SOL     OW 9450  13.131  14.351   7.552
 2518SOL    HW1 9451  13.040  14.363   7.581
 2518SOL    HW2 9452  13.183  14.403   7.613
 2519SOL     OW 9453  13.354   2.807   1.904
 2519SOL    HW1 9454  13.328   2.795   1.812
 2519SOL    HW2 9455  13.349   2.901   1.918
 2520SOL     OW 9456  11.495   1.918   2.139
 2520SOL    HW1 9457  11.485   1.972   2.217
 2520SOL    HW2 9458  11.446   1.838   2.158
 2521SOL     OW 9459  13.417   4.040  10.168
 2521SOL    HW1 9460  13.462   4.091  10.101
 2521SOL    HW2 9461  13.376   4.105  10.225
 2522SOL     OW 9462  11.023   6.713   5.920
 2522SOL    HW1 9463  11.027   6.799   5.963
 2522SOL    HW2 9464  11.114   6.690   5.904
 2523SOL     OW 9465  10.283  14.610  10.813
 2523SOL    HW1 9466  10.296  14.516  10.820
 2523SOL    HW2 9467  10.299  14.631  10.721
 2524SOL     OW 9468  14.379  12.421   3.047
 2524SOL    HW1 9469  14.361  12.506   3.008
 2524SOL    HW2 9470  14.402  12.365   2.973
 2525SOL     OW 9471   1.073   3.638   0.427
 2525SOL    HW1 9472   1.022   3.557   0.421
 2525SOL    HW2 9473   1.017   3.705   0.387
 2526SOL     OW 9474  11.089   9.481  13.648
 2526SOL    HW1 9475  11.108   9.403  13.699
 2526SOL    HW2 9476  11.024   9.453  13.583
 2527SOL     OW 9477   8.504   5.604  11.291
 2527SOL    HW1 9478   8.418   5.619  11.331
 2527SOL    HW2 9479   8.559   5.672  11.328
 2528SOL     OW 9480   7.827   3.266   1.180
 2528SOL    HW1 9481   7.796   3.177   1.160
 2528SOL    HW2 9482   7.922   3.258   1.177
 2529SOL     OW 9483   1.980   0.579  13.297
 2529SOL    HW1 9484   1.940   0.510  13.350
 2529SOL    HW2 9485   2.074   0.569  13.311
 2530SOL     OW 9486   5.006  10.386  14.157
 2530SOL    HW1 9487   5.031  10.315  14.216
 2530SOL    HW2 9488   5.019  10.466  14.207
 2531SOL     OW 9489   6.340  10.950   5.948
 2531SOL    HW1 9490   6.262  10.968   5.896
 2531SOL    HW2 9491   6.306  10.926   6.034
 2532SOL     OW 9492   1.226   0.586   4.090
 2532SOL    HW1 9493   1.153   0.648   4.079
 2532SOL    HW2 9494   1.229   0.569   4.184
 2533SOL     OW 9495   4.065   7.877  13.091
 2533SOL    HW1 9496   4.144   7.923  13.120
 2533SOL    HW2 9497   4.063   7.889  12.996
 2534SOL     OW 9498  11.170   3.766  12.514
 2534SOL    HW1 9499  11.126   3.712  12.580
 2534SOL    HW2 9500  11.140   3.855  12.533
 2535SOL     OW 9501   4.437   2.093   7.703
 2535SOL    HW1 9502   4.495   2.146   7.757
 2535SOL    HW2 9503   4.398   2.154   7.642
 2536SOL     OW 9504   0.401  12.330  10.603
 2536SOL    HW1 9505   0.490  12.347  10.632
 2536SOL    HW2 9506   0.407  12.247  10.555
 2537SOL     OW 9507  14.432  11.819  10.272
 2537SOL    HW1 9508  14.413  11.909  10.246
 2537SOL    HW2 9509  14.527  11.815  10.278
 2538SOL     OW 9510   6.939   4.740   2.642
 2538SOL    HW1 9511   6.846   4.761   2.651
 2538SOL    HW2 9512   6.958   4.756   2.550
 2539SOL     OW 9513  13.214  10.354  11.082
 2539SOL    HW1 9514  13.261  10.385  11.005
 2539SOL    HW2 9515  13.264  10.276  11.110
 2540SOL     OW 9516   4.873   3.392  14.143
 2540SOL    HW1 9517   4.836   3.431  14.064
 2540SOL    HW2 9518   4.966   3.382  14.124
 2541SOL     OW 9519   2.479   7.303   2.492
 2541SOL    HW1 9520   2.508   7.335   2.577
 2541SOL    HW2 9521   2.502   7.210   2.492
 2542SOL     OW 9522   3.610   8.942   1.057
 2542SOL    HW1 9523   3.554   8.892   1.117
 2542SOL    HW2 9524   3.551   8.969   0.987
 2543SOL     OW 9525  13.897   4.421   5.217
 2543SOL    HW1 9526  13.824   4.482   5.200
 2543SOL    HW2 9527  13.964   4.446   5.154
 2544SOL     OW 9528   1.796  13.725  13.906
 2544SOL    HW1 9529   1.743  13.653  13.872
 2544SOL    HW2 9530   1.737  13.772  13.966
 2545SOL     OW 9531  14.053   2.809  11.440
 2545SOL    HW1 9532  14.098   2.880  11.486
 2545SOL    HW2 9533  13.963   2.840  11.430
 2546SOL     OW 9534   1.703   4.096  12.052
 2546SOL    HW1 9535   1.662   4.011  12.068
 2546SOL    HW2 9536   1.690   4.144  12.133
 2547SOL     OW 9537  14.820  14.050  12.038
 2547SOL    HW1 9538  14.863  13.983  11.985
 2547SOL    HW2 9539   0.002  14.074  12.104
 2548SOL     OW 9540   0.417  14.254   7.865
 2548SOL    HW1 9541   0.421  14.158   7.857
 2548SOL    HW2 9542   0.415  14.285   7.775
 2549SOL     OW 9543   3.871  12.207  13.982
 2549SOL    HW1 9544   3.909  12.294  13.990
 2549SOL    HW2 9545   3.819  12.211  13.901
 2550SOL     OW 9546   8.434  10.765   4.524
 2550SOL    HW1 9547   8.443  10.699   4.593
 2550SOL    HW2 9548   8.524  10.786   4.499
 2551SOL     OW 9549  14.741   6.506  11.927
 2551SOL    HW1 9550  14.649   6.494  11.947
 2551SOL    HW2 9551  14.787   6.465  12.001
 2552SOL     OW 9552   3.981  13.327   3.918
 2552SOL    HW1 9553   3.981  13.297   4.009
 2552SOL    HW2 9554   3.892  13.312   3.887
 2553SOL     OW 9555  12.383   5.965   9.291
 2553SOL    HW1 9556  12.424   6.003   9.212
 2553SOL    HW2 9557  12.419   5.877   9.297
 2554SOL     OW 9558  14.532   4.126  13.999
 2554SOL    HW1 9559  14.447   4.083  13.988
 2554SOL    HW2 9560  14.543   4.179  13.920
 2555SOL     OW 9561  12.917   2.316  14.316
 2555SOL    HW1 9562  12.837   2.368  14.315
 2555SOL    HW2 9563  12.926   2.286  14.407
 2556SOL     OW 9564   2.090   1.821  12.536
 2556SOL    HW1 9565   2.061   1.909  12.558
 2556SOL    HW2 9566   2.177   1.833  12.496
 2557SOL     OW 9567   9.444   1.840   2.565
 2557SOL    HW1 9568   9.364   1.832   2.618
 2557SOL    HW2 9569   9.514   1.812   2.623
 2558SOL     OW 9570  11.583  13.777  14.053
 2558SOL    HW1 9571  11.568  13.703  14.112
 2558SOL    HW2 9572  11.503  13.784  14.002
 2559SOL     OW 9573   0.899   6.913   1.771
 2559SOL    HW1 9574   0.952   6.842   1.733
 2559SOL    HW2 9575   0.963   6.975   1.805
 2560SOL     OW 9576   4.602   6.639   0.850
 2560SOL    HW1 9577   4.559   6.570   0.801
 2560SOL    HW2 9578   4.531   6.680   0.901
 2561SOL     OW 9579   0.096   4.753   7.234
 2561SOL    HW1 9580   0.141   4.837   7.224
 2561SOL    HW2 9581   0.115   4.707   7.152
 2562SOL     OW 9582   6.591   4.157   6.851
 2562SOL    HW1 9583   6.675   4.197   6.872
 2562SOL    HW2 9584   6.565   4.114   6.933
 2563SOL     OW 9585   9.773   0.430   2.367
 2563SOL    HW1 9586   9.837   0.399   2.302
 2563SOL    HW2 9587   9.824   0.440   2.447
 2564SOL     OW 9588   8.538  11.816   8.214
 2564SOL    HW1 9589   8.536  11.740   8.156
 2564SOL    HW2 9590   8.463  11.803   8.273
 2565SOL     OW 9591   4.565   3.778  13.975
 2565SOL    HW1 9592   4.567   3.742  13.887
 2565SOL    HW2 9593   4.519   3.861  13.966
 2566SOL     OW 9594   2.674  11.168   7.350
 2566SOL    HW1 9595   2.652  11.137   7.438
 2566SOL    HW2 9596   2.676  11.263   7.359
 2567SOL     OW 9597   0.275   6.259  10.293
 2567SOL    HW1 9598   0.366   6.230  10.301
 2567SOL    HW2 9599   0.235   6.197  10.232
 2568SOL     OW 9600  11.960   8.787  11.751
 2568SOL    HW1 9601  11.991   8.876  11.773
 2568SOL    HW2 9602  12.033   8.730  11.776
 2569SOL     OW 9603   3.969  14.586   1.215
 2569SOL    HW1 9604   3.887  14.588   1.266
 2569SOL    HW2 9605   4.037  14.611   1.278
 2570SOL     OW 9606   2.793   7.714   1.182
 2570SOL    HW1 9607   2.753   7.652   1.120
 2570SOL    HW2 9608   2.793   7.667   1.265
 2571SOL     OW 9609   1.012   8.522   2.090
 2571SOL    HW1 9610   0.951   8.449   2.081
 2571SOL    HW2 9611   1.049   8.534   2.002
 2572SOL     OW 9612  12.219   4.499   7.421
 2572SOL    HW1 9613  12.225   4.415   7.466
 2572SOL    HW2 9614  12.292   4.498   7.359
 2573SOL     OW 9615  14.344   7.300   4.763
 2573SOL    HW1 9616  14.350   7.395   4.774
 2573SOL    HW2 9617  14.250   7.281   4.772
 2574SOL     OW 9618   7.015   6.997   2.121
 2574SOL    HW1 9619   6.995   7.086   2.150
 2574SOL    HW2 9620   6.935   6.967   2.077
 2575SOL     OW 9621  14.811   0.348   5.975
 2575SOL    HW1 9622  14.721   0.317   5.982
 2575SOL    HW2 9623  14.824   0.403   6.053
 2576SOL     OW 9624  13.944   5.551   1.555
 2576SOL    HW1 9625  13.999   5.531   1.631
 2576SOL    HW2 9626  13.858   5.515   1.578
 2577SOL     OW 9627   9.235   2.016  10.584
 2577SOL    HW1 9628   9.183   1.936  10.587
 2577SOL    HW2 9629   9.266   2.028  10.673
 2578SOL     OW 9630   6.790  10.453  11.550
 2578SOL    HW1 9631   6.800  10.524  11.487
 2578SOL    HW2 9632   6.831  10.377  11.508
 2579SOL     OW 9633  14.364   4.549   8.125
 2579SOL    HW1 9634  14.369   4.547   8.029
 2579SOL    HW2 9635  14.325   4.633   8.145
 2580SOL     OW 9636   2.428   2.476  12.301
 2580SOL    HW1 9637   2.477   2.508  12.226
 2580SOL    HW2 9638   2.431   2.549  12.364
 2581SOL     OW 9639  12.552  11.351   3.126
 2581SOL    HW1 9640  12.542  11.327   3.218
 2581SOL    HW2 9641  12.548  11.268   3.078
 2582SOL     OW 9642   6.525   9.769   0.699
 2582SOL    HW1 9643   6.578   9.775   0.619
 2582SOL    HW2 9644   6.589   9.748   0.768
 2583SOL     OW 9645   4.603  10.471   2.079
 2583SOL    HW1 9646   4.684  10.423   2.062
 2583SOL    HW2 9647   4.564  10.426   2.154
 2584SOL     OW 9648   8.805   1.384   9.514
 2584SOL    HW1 9649   8.820   1.440   9.590
 2584SOL    HW2 9650   8.727   1.334   9.536
 2585SOL     OW 9651  14.829   4.240   5.174
 2585SOL    HW1 9652  14.744   4.251   5.217
 2585SOL    HW2 9653   0.008   4.222   5.246
 2586SOL     OW 9654   2.300   5.615   9.833
 2586SOL    HW1 9655   2.212   5.611   9.871
 2586SOL    HW2 9656   2.294   5.681   9.764
 2587SOL     OW 9657   3.790  10.935  14.641
 2587SOL    HW1 9658   3.787  10.899  14.552
 2587SOL    HW2 9659   3.719  10.999  14.644
 2588SOL     OW 9660  13.217  11.324   7.672
 2588SOL    HW1 9661  13.247  11.249   7.723
 2588SOL    HW2 9662  13.229  11.298   7.580
 2589SOL     OW 9663  10.821   3.411   5.905
 2589SOL    HW1 9664  10.747   3.388   5.960
 2589SOL    HW2 9665  10.896   3.414   5.965
 2590SOL     OW 9666  13.134   2.562   5.470
 2590SOL    HW1 9667  13.206   2.609   5.428
 2590SOL    HW2 9668  13.069   2.629   5.489
 2591SOL     OW 9669   1.820  12.811   1.696
 2591SOL    HW1 9670   1.861  12.739   1.743
 2591SOL    HW2 9671   1.756  12.769   1.639
 2592SOL     OW 9672   5.253   1.578   4.867
 2592SOL    HW1 9673   5.335   1.569   4.915
 2592SOL    HW2 9674   5.196   1.629   4.926
 2593SOL     OW 9675  12.232  10.665   0.309
 2593SOL    HW1 9676  12.184  10.748   0.308
 2593SOL    HW2 9677  12.295  10.675   0.381
 2594SOL     OW 9678  14.312   1.930   5.159
 2594SOL    HW1 9679  14.342   1.841   5.141
 2594SOL    HW2 9680  14.375   1.986   5.115
 2595SOL     OW 9681  12.394   6.617  12.422
 2595SOL    HW1 9682  12.440   6.592  12.502
 2595SOL    HW2 9683  12.389   6.713  12.426
 2596SOL     OW 9684   2.874   0.732  10.725
 2596SOL    HW1 9685   2.788   0.730  10.767
 2596SOL    HW2 9686   2.856   0.730  10.631
 2597SOL     OW 9687  12.147   7.061   9.035
 2597SOL    HW1 9688  12.176   7.011   9.110
 2597SOL    HW2 9689  12.094   7.000   8.984
 2598SOL     OW 9690  12.393   9.233   0.384
 2598SOL    HW1 9691  12.326   9.207   0.321
 2598SOL    HW2 9692  12.418   9.152   0.428
 2599SOL     OW 9693   8.452  14.081   9.795
 2599SOL    HW1 9694   8.415  14.166   9.773
 2599SOL    HW2 9695   8.516  14.099   9.864
 2600SOL     OW 9696   3.868   2.866  10.696
 2600SOL    HW1 9697   3.951   2.842  10.655
 2600SOL    HW2 9698   3.884   2.857  10.790
 2601SOL     OW 9699   8.679   3.134   7.212
 2601SOL    HW1 9700   8.657   3.222   7.241
 2601SOL    HW2 9701   8.755   3.110   7.266
 2602SOL     OW 9702   9.194   2.812  13.850
 2602SOL    HW1 9703   9.122   2.874  13.865
 2602SOL    HW2 9704   9.160   2.728  13.878
 2603SOL     OW 9705  11.331   8.477   6.829
 2603SOL    HW1 9706  11.384   8.529   6.890
 2603SOL    HW2 9707  11.267   8.538   6.795
 2604SOL     OW 9708   2.863   9.840  10.166
 2604SOL    HW1 9709   2.898   9.810  10.250
 2604SOL    HW2 9710   2.794   9.776  10.145
 2605SOL     OW 9711   8.182   9.013   9.388
 2605SOL    HW1 9712   8.240   9.081   9.355
 2605SOL    HW2 9713   8.210   8.998   9.478
 2606SOL     OW 9714   1.263   0.361  13.918
 2606SOL    HW1 9715   1.210   0.348  13.839
 2606SOL    HW2 9716   1.239   0.449  13.948
 2607SOL     OW 9717  10.809   5.445   9.746
 2607SOL    HW1 9718  10.726   5.488   9.727
 2607SOL    HW2 9719  10.876   5.505   9.712
 2608SOL     OW 9720   5.410  14.445  10.467
 2608SOL    HW1 9721   5.397  14.518  10.405
 2608SOL    HW2 9722   5.475  14.478  10.529
 2609SOL     OW 9723   4.459  14.635  10.776
 2609SOL    HW1 9724   4.504  14.558  10.742
 2609SOL    HW2 9725   4.381  14.601  10.819
 2610SOL     OW 9726   4.393  13.655  14.643
 2610SOL    HW1 9727   4.443  13.612  14.574
 2610SOL    HW2 9728   4.302  13.636  14.622
 2611SOL     OW 9729   8.603   7.127   4.886
 2611SOL    HW1 9730   8.508   7.119   4.873
 2611SOL    HW2 9731   8.621   7.075   4.964
 2612SOL     OW 9732  10.956   7.618   3.256
 2612SOL    HW1 9733  10.903   7.698   3.254
 2612SOL    HW2 9734  10.895   7.549   3.229
 2613SOL     OW 9735   4.848   7.262   1.020
 2613SOL    HW1 9736   4.847   7.323   0.946
 2613SOL    HW2 9737   4.886   7.311   1.092
 2614SOL     OW 9738   2.270  13.924  10.270
 2614SOL    HW1 9739   2.215  14.001  10.285
 2614SOL    HW2 9740   2.247  13.864  10.341
 2615SOL     OW 9741  11.424   6.285   4.891
 2615SOL    HW1 9742  11.332   6.264   4.876
 2615SOL    HW2 9743  11.434   6.285   4.986
 2616SOL     OW 9744   4.669   8.902   4.411
 2616SOL    HW1 9745   4.601   8.923   4.476
 2616SOL    HW2 9746   4.750   8.930   4.452
 2617SOL     OW 9747   2.320   0.188   9.091
 2617SOL    HW1 9748   2.315   0.259   9.026
 2617SOL    HW2 9749   2.254   0.211   9.156
 2618SOL     OW 9750   0.257   6.166   9.661
 2618SOL    HW1 9751   0.289   6.076   9.662
 2618SOL    HW2 9752   0.171   6.161   9.703
 2619SOL     OW 9753   0.157   0.354   5.835
 2619SOL    HW1 9754   0.153   0.283   5.770
 2619SOL    HW2 9755   0.082   0.337   5.892
 2620SOL     OW 9756  14.729   3.864  10.737
 2620SOL    HW1 9757  14.808   3.811  10.750
 2620SOL    HW2 9758  14.667   3.805  10.696
 2621SOL     OW 9759  10.256   9.586  10.142
 2621SOL    HW1 9760  10.265   9.633  10.225
 2621SOL    HW2 9761  10.165   9.557  10.140
 2622SOL     OW 9762  10.775   6.361   7.065
 2622SOL    HW1 9763  10.732   6.446   7.054
 2622SOL    HW2 9764  10.851   6.379   7.121
 2623SOL     OW 9765   0.994   3.969   9.619
 2623SOL    HW1 9766   1.017   4.057   9.590
 2623SOL    HW2 9767   0.957   3.982   9.707
 2624SOL     OW 9768   2.242  14.431   7.250
 2624SOL    HW1 9769   2.210  14.512   7.289
 2624SOL    HW2 9770   2.294  14.459   7.175
 2625SOL     OW 9771  13.738   6.539   2.400
 2625SOL    HW1 9772  13.689   6.557   2.320
 2625SOL    HW2 9773  13.780   6.455   2.384
 2626SOL     OW 9774  14.826  13.266   2.987
 2626SOL    HW1 9775  14.731  13.276   3.000
 2626SOL    HW2 9776  14.843  13.306   2.902
 2627SOL     OW 9777  11.298   9.902  11.394
 2627SOL    HW1 9778  11.387   9.865  11.395
 2627SOL    HW2 9779  11.310   9.994  11.418
 2628SOL     OW 9780   2.944  13.706   1.450
 2628SOL    HW1 9781   2.863  13.726   1.496
 2628SOL    HW2 9782   3.000  13.667   1.518
 2629SOL     OW 9783   6.207   5.258   7.770
 2629SOL    HW1 9784   6.197   5.339   7.821
 2629SOL    HW2 9785   6.166   5.278   7.686
 2630SOL     OW 9786   2.067  14.243   9.881
 2630SOL    HW1 9787   2.147  14.228   9.931
 2630SOL    HW2 9788   2.001  14.263   9.947
 2631SOL     OW 9789  14.687   2.214  13.015
 2631SOL    HW1 9790  14.647   2.156  12.951
 2631SOL    HW2 9791  14.717   2.156  13.085
 2632SOL     OW 9792  10.903  13.095   2.465
 2632SOL    HW1 9793  10.885  13.177   2.511
 2632SOL    HW2 9794  10.816  13.064   2.439
 2633SOL     OW 9795   7.302   9.722   5.648
 2633SOL    HW1 9796   7.268   9.642   5.608
 2633SOL    HW2 9797   7.323   9.779   5.573
 2634SOL     OW 9798  12.680   7.046   0.801
 2634SOL    HW1 9799  12.677   6.951   0.803
 2634SOL    HW2 9800  12.772   7.067   0.781
 2635SOL     OW 9801   4.950   0.487  12.386
 2635SOL    HW1 9802   5.005   0.428  12.335
 2635SOL    HW2 9803   4.967   0.573  12.348
 2636SOL     OW 9804   6.251   4.391   6.688
 2636SOL    HW1 9805   6.346   4.388   6.695
 2636SOL    HW2 9806   6.229   4.484   6.685
 2637SOL     OW 9807   3.092  12.487  12.796
 2637SOL    HW1 9808   3.080  12.483  12.701
 2637SOL    HW2 9809   3.165  12.548  12.807
 2638SOL     OW 9810  14.809   7.849   0.155
 2638SOL    HW1 9811  14.801   7.932   0.203
 2638SOL    HW2 9812  14.858   7.792   0.214
 2639SOL     OW 9813   3.980   9.998  11.449
 2639SOL    HW1 9814   3.913   9.960  11.506
 2639SOL    HW2 9815   4.062   9.956  11.476
 2640SOL     OW 9816   5.832  14.681   0.665
 2640SOL    HW1 9817   5.764  14.716   0.608
 2640SOL    HW2 9818   5.799  14.694   0.753
 2641SOL     OW 9819  11.227   6.437  10.761
 2641SOL    HW1 9820  11.292   6.504  10.778
 2641SOL    HW2 9821  11.155   6.458  10.820
 2642SOL     OW 9822   4.885   3.519  10.339
 2642SOL    HW1 9823   4.950   3.489  10.276
 2642SOL    HW2 9824   4.865   3.609  10.312
 2643SOL     OW 9825   8.189   6.500   3.500
 2643SOL    HW1 9826   8.195   6.405   3.511
 2643SOL    HW2 9827   8.280   6.528   3.490
 2644SOL     OW 9828   8.917  11.063   8.210
 2644SOL    HW1 9829   8.908  11.134   8.147
 2644SOL    HW2 9830   9.007  11.033   8.201
 2645SOL     OW 9831   2.222   4.903   4.862
 2645SOL    HW1 9832   2.130   4.893   4.887
 2645SOL    HW2 9833   2.271   4.871   4.938
 2646SOL     OW 9834   4.619   4.112   3.043
 2646SOL    HW1 9835   4.586   4.030   3.005
 2646SOL    HW2 9836   4.692   4.084   3.098
 2647SOL     OW 9837   6.910   2.633   9.854
 2647SOL    HW1 9838   6.936   2.555   9.806
 2647SOL    HW2 9839   6.911   2.703   9.788
 2648SOL     OW 9840  11.381   8.998   0.053
 2648SOL    HW1 9841  11.320   9.022  14.865
 2648SOL    HW2 9842  11.383   9.074   0.110
 2649SOL     OW 9843  12.020   6.036   1.122
 2649SOL    HW1 9844  12.060   5.949   1.126
 2649SOL    HW2 9845  12.048   6.071   1.037
 2650SOL     OW 9846   4.049   3.863   3.451
 2650SOL    HW1 9847   3.958   3.890   3.454
 2650SOL    HW2 9848   4.062   3.830   3.362
 2651SOL     OW 9849   4.059   9.127  10.246
 2651SOL    HW1 9850   4.077   9.198  10.308
 2651SOL    HW2 9851   4.117   9.144  10.172
 2652SOL     OW 9852   8.840  13.244  12.605
 2652SOL    HW1 9853   8.862  13.162  12.650
 2652SOL    HW2 9854   8.784  13.218  12.533
 2653SOL     OW 9855   2.383   8.913   9.327
 2653SOL    HW1 9856   2.340   8.833   9.358
 2653SOL    HW2 9857   2.445   8.936   9.397
 2654SOL     OW 9858   9.133  12.594  10.654
 2654SOL    HW1 9859   9.143  12.678  10.609
 2654SOL    HW2 9860   9.104  12.617  10.742
 2655SOL     OW 9861   1.305   2.371   9.092
 2655SOL    HW1 9862   1.305   2.285   9.135
 2655SOL    HW2 9863   1.300   2.350   8.998
 2656SOL     OW 9864   9.598   2.280   1.718
 2656SOL    HW1 9865   9.692   2.295   1.735
 2656SOL    HW2 9866   9.583   2.189   1.741
 2657SOL     OW 9867   3.112   2.601   9.198
 2657SOL    HW1 9868   3.027   2.567   9.225
 2657SOL    HW2 9869   3.175   2.559   9.257
 2658SOL     OW 9870   6.507   3.935   1.836
 2658SOL    HW1 9871   6.434   3.985   1.873
 2658SOL    HW2 9872   6.585   3.987   1.855
 2659SOL     OW 9873   5.067   6.807   0.072
 2659SOL    HW1 9874   5.119   6.828  14.877
 2659SOL    HW2 9875   5.057   6.890   0.118
 2660SOL     OW 9876  11.640   8.746   6.387
 2660SOL    HW1 9877  11.623   8.766   6.479
 2660SOL    HW2 9878  11.570   8.790   6.339
 2661SOL     OW 9879  10.854   1.958  13.693
 2661SOL    HW1 9880  10.902   1.883  13.658
 2661SOL    HW2 9881  10.862   1.949  13.788
 2662SOL     OW 9882  14.707   6.317   3.539
 2662SOL    HW1 9883  14.728   6.279   3.454
 2662SOL    HW2 9884  14.616   6.347   3.530
 2663SOL     OW 9885   1.714  12.485  14.432
 2663SOL    HW1 9886   1.728  12.500  14.526
 2663SOL    HW2 9887   1.712  12.389  14.424
 2664SOL     OW 9888   0.230  14.269  13.564
 2664SOL    HW1 9889   0.201  14.304  13.648
 2664SOL    HW2 9890   0.304  14.325  13.539
 2665SOL     OW 9891   9.894  11.833   3.708
 2665SOL    HW1 9892   9.852  11.869   3.786
 2665SOL    HW2 9893   9.847  11.873   3.635
 2666SOL     OW 9894   5.028   2.698  11.750
 2666SOL    HW1 9895   4.939   2.703  11.784
 2666SOL    HW2 9896   5.084   2.701  11.828
 2667SOL     OW 9897   6.511   4.814   3.292
 2667SOL    HW1 9898   6.472   4.728   3.281
 2667SOL    HW2 9899   6.482   4.864   3.216
 2668SOL     OW 9900   6.372  12.820   1.496
 2668SOL    HW1 9901   6.417  12.739   1.522
 2668SOL    HW2 9902   6.443  12.881   1.476
 2669SOL     OW 9903   7.960  10.753   3.289
 2669SOL    HW1 9904   8.052  10.765   3.312
 2669SOL    HW2 9905   7.947  10.659   3.290
 2670SOL     OW 9906   3.271   6.526   8.598
 2670SOL    HW1 9907   3.319   6.450   8.631
 2670SOL    HW2 9908   3.284   6.523   8.503
 2671SOL     OW 9909   1.351  14.162  12.537
 2671SOL    HW1 9910   1.443  14.174  12.561
 2671SOL    HW2 9911   1.350  14.082  12.486
 2672SOL     OW 9912   2.788  12.757  13.436
 2672SOL    HW1 9913   2.863  12.812  13.459
 2672SOL    HW2 9914   2.714  12.818  13.428
 2673SOL     OW 9915   9.790   3.441  10.448
 2673SOL    HW1 9916   9.700   3.430  10.480
 2673SOL    HW2 9917   9.800   3.536  10.440
 2674SOL     OW 9918   8.708   4.475   8.239
 2674SOL    HW1 9919   8.668   4.399   8.280
 2674SOL    HW2 9920   8.793   4.483   8.281
 2675SOL     OW 9921   0.414   6.296  12.198
 2675SOL    HW1 9922   0.414   6.237  12.273
 2675SOL    HW2 9923   0.323   6.325  12.191
 2676SOL     OW 9924  12.573  13.725   4.390
 2676SOL    HW1 9925  12.519  13.793   4.350
 2676SOL    HW2 9926  12.656  13.728   4.343
 2677SOL     OW 9927  11.245   7.728   2.889
 2677SOL    HW1 9928  11.265   7.807   2.939
 2677SOL    HW2 9929  11.288   7.740   2.805
 2678SOL     OW 9930   8.079   6.152   0.539
 2678SOL    HW1 9931   8.109   6.118   0.454
 2678SOL    HW2 9932   7.987   6.175   0.524
 2679SOL     OW 9933  13.099   9.307   8.344
 2679SOL    HW1 9934  13.184   9.351   8.335
 2679SOL    HW2 9935  13.106   9.229   8.290
 2680SOL     OW 9936  12.993   3.518   8.383
 2680SOL    HW1 9937  12.945   3.473   8.313
 2680SOL    HW2 9938  13.038   3.589   8.338
 2681SOL     OW 9939   3.477  13.594  10.625
 2681SOL    HW1 9940   3.545  13.526  10.632
 2681SOL    HW2 9941   3.507  13.664  10.683
 2682SOL     OW 9942  14.311   5.264  14.508
 2682SOL    HW1 9943  14.284   5.318  14.434
 2682SOL    HW2 9944  14.356   5.189  14.468
 2683SOL     OW 9945  14.280  10.789   5.345
 2683SOL    HW1 9946  14.367  10.814   5.315
 2683SOL    HW2 9947  14.220  10.825   5.281
 2684SOL     OW 9948  14.042   0.222   0.899
 2684SOL    HW1 9949  14.019   0.151   0.839
 2684SOL    HW2 9950  14.129   0.251   0.870
 2685SOL     OW 9951   8.018   5.750   6.888
 2685SOL    HW1 9952   7.995   5.724   6.799
 2685SOL    HW2 9953   8.079   5.822   6.877
 2686SOL     OW 9954   0.910   8.936   0.127
 2686SOL    HW1 9955   0.990   8.982   0.151
 2686SOL    HW2 9956   0.854   9.002   0.087
 2687SOL     OW 9957   0.893   3.868   2.347
 2687SOL    HW1 9958   0.970   3.853   2.403
 2687SOL    HW2 9959   0.835   3.795   2.367
 2688SOL     OW 9960  10.316  14.596   7.675
 2688SOL    HW1 9961  10.299  14.657   7.746
 2688SOL    HW2 9962  10.267  14.631   7.601
 2689SOL     OW 9963  12.267   2.380   5.536
 2689SOL    HW1 9964  12.213   2.312   5.496
 2689SOL    HW2 9965  12.318   2.416   5.463
 2690SOL     OW 9966  12.557   3.493  14.817
 2690SOL    HW1 9967  12.607   3.415  14.838
 2690SOL    HW2 9968  12.512   3.516   0.016
 2691SOL     OW 9969  12.838   6.254  12.574
 2691SOL    HW1 9970  12.902   6.324  12.572
 2691SOL    HW2 9971  12.886   6.177  12.604
 2692SOL     OW 9972   7.935  11.843  10.277
 2692SOL    HW1 9973   7.948  11.766  10.221
 2692SOL    HW2 9974   7.951  11.917  10.218
 2693SOL     OW 9975   8.973   9.752   3.440
 2693SOL    HW1 9976   8.927   9.746   3.524
 2693SOL    HW2 9977   9.051   9.698   3.452
 2694SOL     OW 9978   7.968   9.522  10.948
 2694SOL    HW1 9979   8.045   9.537  11.002
 2694SOL    HW2 9980   7.895   9.516  11.010
 2695SOL     OW 9981   9.653  12.749   2.681
 2695SOL    HW1 9982   9.562  12.725   2.697
 2695SOL    HW2 9983   9.694  12.667   2.651
 2696SOL     OW 9984  11.454   3.188   0.183
 2696SOL    HW1 9985  11.511   3.201   0.259
 2696SOL    HW2 9986  11.425   3.276   0.159
 2697SOL     OW 9987  13.708   4.608   5.282
 2697SOL    HW1 9988  13.743   4.689   5.318
 2697SOL    HW2 9989  13.673   4.632   5.196
 2698SOL     OW 9990   2.494  14.805  12.238
 2698SOL    HW1 9991   2.412  14.832  12.279
 2698SOL    HW2 9992   2.500  14.711  12.257
 2699SOL     OW 9993  11.435   8.621   1.670
 2699SOL    HW1 9994  11.376   8.585   1.736
 2699SOL    HW2 9995  11.436   8.556   1.600
 2700SOL     OW 9996  12.135  12.270   0.652
 2700SOL    HW1 9997  12.117  12.203   0.585
 2700SOL    HW2 9998  12.225  12.296   0.636
 2701SOL     OW 9999  12.787   1.603   9.741
 2701SOL    HW110000  12.705   1.652   9.738
 2701SOL    HW210001  12.852   1.664   9.705
 2702SOL     OW10002   9.130   5.102   2.210
 2702SOL    HW110003   9.226   5.103   2.213
 2702SOL    HW210004   9.109   5.021   2.163
 2703SOL     OW10005   3.309   4.577  13.145
 2703SOL    HW110006   3.243   4.630  13.189
 2703SOL    HW210007   3.278   4.569  13.055
 2704SOL     OW10008   3.985  13.490   6.654
 2704SOL    HW110009   4.033  13.493   6.571
 2704SOL    HW210010   3.898  13.522   6.633
 2705SOL     OW10011   9.855   4.797  12.007
 2705SOL    HW110012   9.918   4.845  11.952
 2705SOL    HW210013   9.855   4.844  12.090
 2706SOL     OW10014   7.279   3.091   1.799
 2706SOL    HW110015   7.203   3.038   1.824
 2706SOL    HW210016   7.246   3.181   1.801
 2707SOL     OW10017   6.722  13.783   9.563
 2707SOL    HW110018   6.737  13.876   9.579
 2707SOL    HW210019   6.784  13.760   9.493
 2708SOL     OW10020   4.670  11.640   1.953
 2708SOL    HW110021   4.656  11.706   2.021
 2708SOL    HW210022   4.607  11.571   1.974
 2709SOL     OW10023   1.049   0.827   2.192
 2709SOL    HW110024   1.010   0.888   2.129
 2709SOL    HW210025   1.141   0.853   2.196
 2710SOL     OW10026   1.505   5.833   3.708
 2710SOL    HW110027   1.528   5.740   3.720
 2710SOL    HW210028   1.587   5.880   3.723
 2711SOL     OW10029  10.184   1.267  11.866
 2711SOL    HW110030  10.277   1.268  11.844
 2711SOL    HW210031  10.169   1.351  11.909
 2712SOL     OW10032   7.216   3.748   0.343
 2712SOL    HW110033   7.247   3.838   0.346
 2712SOL    HW210034   7.196   3.732   0.251
 2713SOL     OW10035   7.675   2.051   7.343
 2713SOL    HW110036   7.622   1.972   7.350
 2713SOL    HW210037   7.637   2.112   7.407
 2714SOL     OW10038   4.322  10.200   0.646
 2714SOL    HW110039   4.414  10.202   0.619
 2714SOL    HW210040   4.323  10.231   0.737
 2715SOL     OW10041  10.561   3.094  10.410
 2715SOL    HW110042  10.537   3.186  10.399
 2715SOL    HW210043  10.636   3.081  10.353
 2716SOL     OW10044  11.362  13.396   3.870
 2716SOL    HW110045  11.405  13.452   3.804
 2716SOL    HW210046  11.356  13.452   3.948
 2717SOL     OW10047  14.166  13.743  13.949
 2717SOL    HW110048  14.181  13.794  13.870
 2717SOL    HW210049  14.254  13.715  13.976
 2718SOL     OW10050  14.129  10.995   2.574
 2718SOL    HW110051  14.216  10.997   2.533
 2718SOL    HW210052  14.129  11.070   2.633
 2719SOL     OW10053   3.995   8.981   5.393
 2719SOL    HW110054   3.941   9.045   5.438
 2719SOL    HW210055   3.994   9.009   5.301
 2720SOL     OW10056  10.554   1.621  10.696
 2720SOL    HW110057  10.640   1.623  10.737
 2720SOL    HW210058  10.493   1.610  10.769
 2721SOL     OW10059   7.975  10.070  10.199
 2721SOL    HW110060   8.045  10.112  10.248
 2721SOL    HW210061   8.009   9.983  10.179
 2722SOL     OW10062   8.812  13.799   9.493
 2722SOL    HW110063   8.749  13.809   9.564
 2722SOL    HW210064   8.876  13.737   9.526
 2723SOL     OW10065  11.271  12.730   2.916
 2723SOL    HW110066  11.212  12.792   2.874
 2723SOL    HW210067  11.333  12.785   2.964
 2724SOL     OW10068   4.183   1.177   2.492
 2724SOL    HW110069   4.181   1.250   2.430
 2724SOL    HW210070   4.091   1.152   2.501
 2725SOL     OW10071   5.883  13.420  10.611
 2725SOL    HW110072   5.820  13.419  10.683
 2725SOL    HW210073   5.918  13.331  10.608
 2726SOL     OW10074  11.445   9.930   7.210
 2726SOL    HW110075  11.539   9.917   7.201
 2726SOL    HW210076  11.435  10.026   7.209
 2727SOL     OW10077   5.116   2.464   5.567
 2727SOL    HW110078   5.033   2.435   5.529
 2727SOL    HW210079   5.099   2.552   5.600
 2728SOL     OW10080  13.542  12.709   9.622
 2728SOL    HW110081  13.496  12.698   9.706
 2728SOL    HW210082  13.600  12.784   9.636
 2729SOL     OW10083   4.639   5.013   5.559
 2729SOL    HW110084   4.690   5.075   5.506
 2729SOL    HW210085   4.704   4.951   5.593
 2730SOL     OW10086  14.111  10.844   7.224
 2730SOL    HW110087  14.018  10.866   7.222
 2730SOL    HW210088  14.123  10.782   7.152
 2731SOL     OW10089   3.064  13.438   9.013
 2731SOL    HW110090   3.133  13.372   9.004
 2731SOL    HW210091   3.049  13.443   9.107
 2732SOL     OW10092   1.988   4.658   6.369
 2732SOL    HW110093   2.016   4.570   6.394
 2732SOL    HW210094   2.018   4.715   6.440
 2733SOL     OW10095   0.932   8.437  13.847
 2733SOL    HW110096   1.021   8.470  13.862
 2733SOL    HW210097   0.903   8.409  13.934
 2734SOL     OW10098  11.681   9.173  11.574
 2734SOL    HW110099  11.753   9.199  11.632
 2734SOL    HW210100  11.647   9.092  11.611
 2735SOL     OW10101  11.129   0.252   6.939
 2735SOL    HW110102  11.211   0.252   6.988
 2735SOL    HW210103  11.096   0.342   6.947
 2736SOL     OW10104   5.362   5.361  12.354
 2736SOL    HW110105   5.446   5.351  12.397
 2736SOL    HW210106   5.364   5.298  12.282
 2737SOL     OW10107   5.681   9.573   1.332
 2737SOL    HW110108   5.614   9.636   1.304
 2737SOL    HW210109   5.632   9.507   1.382
 2738SOL     OW10110  10.156  12.854   4.016
 2738SOL    HW110111  10.170  12.908   3.939
 2738SOL    HW210112  10.061  12.853   4.029
 2739SOL     OW10113  14.168   9.804   0.826
 2739SOL    HW110114  14.130   9.741   0.887
 2739SOL    HW210115  14.115   9.883   0.837
 2740SOL     OW10116  12.096  10.219   0.716
 2740SOL    HW110117  12.048  10.280   0.659
 2740SOL    HW210118  12.044  10.215   0.796
 2741SOL     OW10119   4.686   2.981   1.488
 2741SOL    HW110120   4.702   2.907   1.547
 2741SOL    HW210121   4.660   2.940   1.405
 2742SOL     OW10122   9.911  12.630   1.079
 2742SOL    HW110123   9.940  12.634   0.988
 2742SOL    HW210124   9.958  12.702   1.122
 2743SOL     OW10125   1.787  11.179   2.946
 2743SOL    HW110126   1.870  11.175   2.898
 2743SOL    HW210127   1.796  11.114   3.015
 2744SOL     OW10128   0.852   4.997   5.880
 2744SOL    HW110129   0.778   5.049   5.848
 2744SOL    HW210130   0.922   5.060   5.893
 2745SOL     OW10131  14.816  10.468   3.267
 2745SOL    HW110132  14.734  10.516   3.276
 2745SOL    HW210133  14.790  10.382   3.233
 2746SOL     OW10134   9.506  12.338   9.489
 2746SOL    HW110135   9.437  12.390   9.531
 2746SOL    HW210136   9.576  12.336   9.555
 2747SOL     OW10137   3.448  14.828  11.466
 2747SOL    HW110138   3.491   0.008  11.407
 2747SOL    HW210139   3.407  14.882  11.533
 2748SOL     OW10140  14.617   0.163   7.171
 2748SOL    HW110141  14.551   0.210   7.223
 2748SOL    HW210142  14.668   0.114   7.236
 2749SOL     OW10143   7.674  10.162  13.163
 2749SOL    HW110144   7.750  10.210  13.130
 2749SOL    HW210145   7.711  10.089  13.212
 2750SOL     OW10146  13.659   0.886  10.720
 2750SOL    HW110147  13.593   0.947  10.754
 2750SOL    HW210148  13.743   0.929  10.737
 2751SOL     OW10149  10.144   4.901   2.272
 2751SOL    HW110150  10.115   4.823   2.320
 2751SOL    HW210151  10.224   4.873   2.227
 2752SOL     OW10152   0.369   4.020   8.168
 2752SOL    HW110153   0.367   4.103   8.216
 2752SOL    HW210154   0.420   4.040   8.089
 2753SOL     OW10155   5.409   8.195  11.680
 2753SOL    HW110156   5.340   8.186  11.745
 2753SOL    HW210157   5.485   8.229  11.728
 2754SOL     OW10158   5.602  13.912   8.247
 2754SOL    HW110159   5.627  13.906   8.155
 2754SOL    HW210160   5.538  13.983   8.250
 2755SOL     OW10161  13.799  13.064  11.600
 2755SOL    HW110162  13.713  13.078  11.561
 2755SOL    HW210163  13.823  13.149  11.636
 2756SOL     OW10164   0.567   9.011   3.440
 2756SOL    HW110165   0.483   9.056   3.446
 2756SOL    HW210166   0.582   8.998   3.347
 2757SOL     OW10167  10.612   0.204   7.069
 2757SOL    HW110168  10.572   0.285   7.037
 2757SOL    HW210169  10.674   0.179   7.000
 2758SOL     OW10170  11.708   9.230  10.055
 2758SOL    HW110171  11.716   9.319  10.020
 2758SOL    HW210172  11.757   9.176   9.994
 2759SOL     OW10173  10.216   6.247   3.094
 2759SOL    HW110174  10.207   6.153   3.074
 2759SOL    HW210175  10.264   6.249   3.177
 2760SOL     OW10176  10.358   6.905   2.572
 2760SOL    HW110177  10.430   6.861   2.527
 2760SOL    HW210178  10.329   6.973   2.512
 2761SOL     OW10179   2.450   6.267  12.405
 2761SOL    HW110180   2.397   6.345  12.422
 2761SOL    HW210181   2.535   6.286  12.445
 2762SOL     OW10182  11.740   4.950   4.364
 2762SOL    HW110183  11.813   5.000   4.328
 2762SOL    HW210184  11.676   4.947   4.293
 2763SOL     OW10185   0.711   0.759   8.368
 2763SOL    HW110186   0.659   0.785   8.292
 2763SOL    HW210187   0.666   0.682   8.402
 2764SOL     OW10188   7.191  11.846   3.763
 2764SOL    HW110189   7.162  11.814   3.678
 2764SOL    HW210190   7.120  11.822   3.823
 2765SOL     OW10191   1.061  10.637   3.338
 2765SOL    HW110192   1.140  10.691   3.341
 2765SOL    HW210193   1.029  10.636   3.428
 2766SOL     OW10194   7.075   7.771   5.619
 2766SOL    HW110195   7.159   7.806   5.591
 2766SOL    HW210196   7.015   7.793   5.547
 2767SOL     OW10197   0.511   3.968  13.256
 2767SOL    HW110198   0.419   3.989  13.242
 2767SOL    HW210199   0.521   3.966  13.351
 2768SOL     OW10200   9.523   2.018   0.226
 2768SOL    HW110201   9.501   2.041   0.317
 2768SOL    HW210202   9.464   2.072   0.173
 2769SOL     OW10203  10.716   8.560   4.265
 2769SOL    HW110204  10.784   8.624   4.289
 2769SOL    HW210205  10.758   8.502   4.202
 2770SOL     OW10206  11.788  11.740   0.618
 2770SOL    HW110207  11.804  11.689   0.539
 2770SOL    HW210208  11.697  11.768   0.611
 2771SOL     OW10209   1.986  13.680   7.053
 2771SOL    HW110210   1.989  13.775   7.067
 2771SOL    HW210211   2.074  13.657   7.023
 2772SOL     OW10212   0.687   5.600  11.270
 2772SOL    HW110213   0.592   5.613  11.274
 2772SOL    HW210214   0.724   5.687  11.288
 2773SOL     OW10215   5.750   1.882   4.703
 2773SOL    HW110216   5.750   1.923   4.617
 2773SOL    HW210217   5.804   1.803   4.692
 2774SOL     OW10218   8.015  12.969  11.889
 2774SOL    HW110219   8.022  13.058  11.921
 2774SOL    HW210220   7.982  12.978  11.799
 2775SOL     OW10221   2.835  12.547   3.704
 2775SOL    HW110222   2.800  12.467   3.665
 2775SOL    HW210223   2.919  12.559   3.661
 2776SOL     OW10224  12.029  10.718   8.487
 2776SOL    HW110225  11.998  10.628   8.487
 2776SOL    HW210226  11.957  10.769   8.524
 2777SOL     OW10227   7.315   3.299   0.586
 2777SOL    HW110228   7.358   3.373   0.542
 2777SOL    HW210229   7.245   3.274   0.526
 2778SOL     OW10230   9.024  10.943   1.510
 2778SOL    HW110231   9.079  10.901   1.575
 2778SOL    HW210232   9.078  10.946   1.431
 2779SOL     OW10233  12.545   7.510  12.465
 2779SOL    HW110234  12.460   7.469  12.454
 2779SOL    HW210235  12.588   7.499  12.381
 2780SOL     OW10236  13.204   7.901   9.085
 2780SOL    HW110237  13.288   7.869   9.119
 2780SOL    HW210238  13.144   7.892   9.160
 2781SOL     OW10239   8.702   3.186   8.278
 2781SOL    HW110240   8.715   3.244   8.203
 2781SOL    HW210241   8.631   3.226   8.328
 2782SOL     OW10242   1.008   2.224  12.597
 2782SOL    HW110243   1.103   2.207  12.598
 2782SOL    HW210244   0.984   2.220  12.504
 2783SOL     OW10245  13.501   0.179  14.509
 2783SOL    HW110246  13.443   0.254  14.495
 2783SOL    HW210247  13.445   0.103  14.493
 2784SOL     OW10248   1.427   9.058  14.772
 2784SOL    HW110249   1.344   9.105  14.770
 2784SOL    HW210250   1.488   9.118  14.813
 2785SOL     OW10251  12.274   1.749   5.539
 2785SOL    HW110252  12.258   1.794   5.623
 2785SOL    HW210253  12.189   1.712   5.516
 2786SOL     OW10254  10.479   2.711  12.414
 2786SOL    HW110255  10.394   2.751  12.395
 2786SOL    HW210256  10.504   2.667  12.333
 2787SOL     OW10257   4.120   2.147   8.867
 2787SOL    HW110258   4.089   2.165   8.778
 2787SOL    HW210259   4.143   2.233   8.902
 2788SOL     OW10260  14.537   6.404  13.351
 2788SOL    HW110261  14.513   6.327  13.298
 2788SOL    HW210262  14.632   6.404  13.352
 2789SOL     OW10263  12.662   1.266   2.709
 2789SOL    HW110264  12.592   1.308   2.660
 2789SOL    HW210265  12.733   1.255   2.645
 2790SOL     OW10266   1.953  10.658   8.458
 2790SOL    HW110267   1.909  10.739   8.432
 2790SOL    HW210268   2.011  10.638   8.384
 2791SOL     OW10269  13.481   6.927  13.143
 2791SOL    HW110270  13.573   6.907  13.161
 2791SOL    HW210271  13.481   7.015  13.107
 2792SOL     OW10272   7.770  12.633  12.465
 2792SOL    HW110273   7.798  12.572  12.533
 2792SOL    HW210274   7.693  12.592  12.426
 2793SOL     OW10275  11.681  10.743   8.828
 2793SOL    HW110276  11.763  10.696   8.835
 2793SOL    HW210277  11.622  10.699   8.889
 2794SOL     OW10278   6.552   8.748   4.569
 2794SOL    HW110279   6.572   8.710   4.654
 2794SOL    HW210280   6.476   8.698   4.538
 2795SOL     OW10281  13.323   8.321   2.256
 2795SOL    HW110282  13.331   8.324   2.352
 2795SOL    HW210283  13.311   8.413   2.231
 2796SOL     OW10284  10.421   0.793   9.715
 2796SOL    HW110285  10.399   0.802   9.622
 2796SOL    HW210286  10.398   0.702   9.736
 2797SOL     OW10287   6.978  10.567   7.031
 2797SOL    HW110288   6.901  10.549   6.976
 2797SOL    HW210289   6.959  10.524   7.114
 2798SOL     OW10290   1.649  10.838  13.558
 2798SOL    HW110291   1.676  10.819  13.648
 2798SOL    HW210292   1.623  10.930  13.559
 2799SOL     OW10293   8.375   3.757   9.024
 2799SOL    HW110294   8.412   3.675   8.990
 2799SOL    HW210295   8.358   3.810   8.947
 2800SOL     OW10296  13.655   3.845   0.606
 2800SOL    HW110297  13.642   3.877   0.517
 2800SOL    HW210298  13.638   3.751   0.600
 2801SOL     OW10299   5.750   4.536   8.949
 2801SOL    HW110300   5.698   4.530   8.868
 2801SOL    HW210301   5.836   4.502   8.924
 2802SOL     OW10302   0.582   4.237   4.791
 2802SOL    HW110303   0.587   4.142   4.799
 2802SOL    HW210304   0.669   4.268   4.816
 2803SOL     OW10305  14.323   4.684  11.065
 2803SOL    HW110306  14.341   4.590  11.061
 2803SOL    HW210307  14.387   4.718  11.128
 2804SOL     OW10308   7.054  11.736   9.561
 2804SOL    HW110309   6.987  11.791   9.602
 2804SOL    HW210310   7.017  11.648   9.562
 2805SOL     OW10311   8.076   2.393   6.236
 2805SOL    HW110312   8.095   2.405   6.143
 2805SOL    HW210313   8.132   2.457   6.280
 2806SOL     OW10314   1.361   9.048   8.502
 2806SOL    HW110315   1.436   9.106   8.515
 2806SOL    HW210316   1.326   9.034   8.590
 2807SOL     OW10317   9.547   2.068   8.341
 2807SOL    HW110318   9.604   2.145   8.338
 2807SOL    HW210319   9.496   2.073   8.260
 2808SOL     OW10320   5.613   7.000   7.942
 2808SOL    HW110321   5.567   6.954   8.012
 2808SOL    HW210322   5.644   6.931   7.884
 2809SOL     OW10323   2.579   9.085   3.706
 2809SOL    HW110324   2.613   9.038   3.630
 2809SOL    HW210325   2.484   9.080   3.696
 2810SOL     OW10326   3.717  12.938  11.475
 2810SOL    HW110327   3.745  12.872  11.410
 2810SOL    HW210328   3.644  12.897  11.520
 2811SOL     OW10329   5.401   5.894   7.779
 2811SOL    HW110330   5.335   5.902   7.710
 2811SOL    HW210331   5.474   5.948   7.748
 2812SOL     OW10332   2.992   4.339  14.872
 2812SOL    HW110333   3.048   4.411   0.018
 2812SOL    HW210334   2.972   4.291   0.070
 2813SOL     OW10335  13.508   3.514   0.256
 2813SOL    HW110336  13.597   3.548   0.243
 2813SOL    HW210337  13.460   3.587   0.294
 2814SOL     OW10338   0.504   1.743   6.816
 2814SOL    HW110339   0.572   1.753   6.750
 2814SOL    HW210340   0.529   1.665   6.865
 2815SOL     OW10341   8.287  11.967   7.602
 2815SOL    HW110342   8.358  11.904   7.595
 2815SOL    HW210343   8.244  11.965   7.516
 2816SOL     OW10344   5.865  13.376  12.981
 2816SOL    HW110345   5.884  13.468  13.000
 2816SOL    HW210346   5.942  13.328  13.009
 2817SOL     OW10347   7.430   4.098   2.960
 2817SOL    HW110348   7.441   4.152   2.882
 2817SOL    HW210349   7.356   4.138   3.006
 2818SOL     OW10350   1.257  12.170   7.241
 2818SOL    HW110351   1.306  12.089   7.260
 2818SOL    HW210352   1.284  12.230   7.310
 2819SOL     OW10353  13.687   2.367  13.400
 2819SOL    HW110354  13.620   2.416  13.353
 2819SOL    HW210355  13.676   2.393  13.491
 2820SOL     OW10356   9.875  13.786   2.634
 2820SOL    HW110357   9.912  13.760   2.718
 2820SOL    HW210358   9.925  13.863   2.608
 2821SOL     OW10359  12.321  10.902   7.789
 2821SOL    HW110360  12.343  10.851   7.867
 2821SOL    HW210361  12.394  10.887   7.729
 2822SOL     OW10362   6.327   2.234  11.766
 2822SOL    HW110363   6.275   2.264  11.840
 2822SOL    HW210364   6.413   2.214  11.804
 2823SOL     OW10365  10.006   8.992   3.938
 2823SOL    HW110366   9.948   8.990   4.014
 2823SOL    HW210367  10.094   8.996   3.975
 2824SOL     OW10368   1.942   7.433  14.881
 2824SOL    HW110369   1.933   7.415  14.787
 2824SOL    HW210370   2.033   7.461   0.009
 2825SOL     OW10371   5.275   4.102   1.063
 2825SOL    HW110372   5.356   4.138   1.098
 2825SOL    HW210373   5.237   4.173   1.011
 2826SOL     OW10374   3.766   6.804  11.560
 2826SOL    HW110375   3.771   6.870  11.630
 2826SOL    HW210376   3.704   6.841  11.497
 2827SOL     OW10377   4.707   0.810   4.606
 2827SOL    HW110378   4.696   0.727   4.560
 2827SOL    HW210379   4.623   0.855   4.594
 2828SOL     OW10380   8.242   0.751   9.880
 2828SOL    HW110381   8.160   0.718   9.846
 2828SOL    HW210382   8.310   0.701   9.833
 2829SOL     OW10383  13.835   9.365   1.919
 2829SOL    HW110384  13.927   9.341   1.935
 2829SOL    HW210385  13.785   9.297   1.965
 2830SOL     OW10386   1.393   6.769  14.637
 2830SOL    HW110387   1.445   6.845  14.664
 2830SOL    HW210388   1.303   6.792  14.657
 2831SOL     OW10389   4.362   0.024  11.540
 2831SOL    HW110390   4.402   0.110  11.554
 2831SOL    HW210391   4.313   0.007  11.620
 2832SOL     OW10392   7.454   1.439   2.547
 2832SOL    HW110393   7.467   1.425   2.641
 2832SOL    HW210394   7.542   1.457   2.513
 2833SOL     OW10395   2.565   1.067   8.021
 2833SOL    HW110396   2.532   1.086   8.109
 2833SOL    HW210397   2.632   1.133   8.006
 2834SOL     OW10398   2.944  12.017   7.361
 2834SOL    HW110399   3.037  12.006   7.342
 2834SOL    HW210400   2.937  12.009   7.456
 2835SOL     OW10401   5.322  12.145   3.236
 2835SOL    HW110402   5.350  12.094   3.160
 2835SOL    HW210403   5.314  12.081   3.307
 2836SOL     OW10404   4.738  14.400   1.699
 2836SOL    HW110405   4.774  14.459   1.765
 2836SOL    HW210406   4.667  14.450   1.658
 2837SOL     OW10407   4.691  12.513   0.080
 2837SOL    HW110408   4.730  12.491   0.165
 2837SOL    HW210409   4.693  12.432   0.030
 2838SOL     OW10410  13.629   2.984  12.051
 2838SOL    HW110411  13.667   2.896  12.056
 2838SOL    HW210412  13.559   2.975  11.986
 2839SOL     OW10413   5.274  13.373   9.965
 2839SOL    HW110414   5.357  13.370   9.918
 2839SOL    HW210415   5.219  13.432   9.913
 2840SOL     OW10416   0.673  13.285  12.416
 2840SOL    HW110417   0.739  13.226  12.452
 2840SOL    HW210418   0.683  13.365  12.466
 2841SOL     OW10419   6.221   7.407  14.842
 2841SOL    HW110420   6.214   7.500  14.862
 2841SOL    HW210421   6.305   7.398  14.796
 2842SOL     OW10422  13.943   9.604  11.002
 2842SOL    HW110423  13.850   9.592  11.024
 2842SOL    HW210424  13.962   9.694  11.030
 2843SOL     OW10425   2.015   0.499   7.604
 2843SOL    HW110426   1.975   0.576   7.644
 2843SOL    HW210427   1.993   0.427   7.663
 2844SOL     OW10428   9.492   3.394   5.398
 2844SOL    HW110429   9.499   3.424   5.307
 2844SOL    HW210430   9.583   3.388   5.428
 2845SOL     OW10431   9.965  11.490  14.659
 2845SOL    HW110432   9.899  11.472  14.726
 2845SOL    HW210433  10.042  11.519  14.709
 2846SOL     OW10434  12.979   4.960   8.399
 2846SOL    HW110435  13.005   4.903   8.327
 2846SOL    HW210436  13.061   4.985   8.441
 2847SOL     OW10437   4.743   6.842   0.470
 2847SOL    HW110438   4.812   6.807   0.413
 2847SOL    HW210439   4.698   6.764   0.503
 2848SOL     OW10440   9.950  10.094   3.498
 2848SOL    HW110441   9.921  10.176   3.460
 2848SOL    HW210442   9.969  10.115   3.590
 2849SOL     OW10443   1.453   7.714   5.071
 2849SOL    HW110444   1.483   7.767   4.997
 2849SOL    HW210445   1.515   7.641   5.075
 2850SOL     OW10446   3.284   3.131   3.050
 2850SOL    HW110447   3.332   3.052   3.028
 2850SOL    HW210448   3.247   3.114   3.137
 2851SOL     OW10449   1.597  10.602   0.020
 2851SOL    HW110450   1.532  10.670   0.005
 2851SOL    HW210451   1.600  10.553  14.820
 2852SOL     OW10452  14.557   4.023  10.932
 2852SOL    HW110453  14.612   3.975  10.871
 2852SOL    HW210454  14.580   3.990  11.018
 2853SOL     OW10455   2.336   5.740  10.876
 2853SOL    HW110456   2.365   5.822  10.916
 2853SOL    HW210457   2.319   5.682  10.951
 2854SOL     OW10458   8.864   7.601   5.576
 2854SOL    HW110459   8.845   7.695   5.585
 2854SOL    HW210460   8.824   7.560   5.652
 2855SOL     OW10461   6.864   8.009   0.454
 2855SOL    HW110462   6.825   7.992   0.368
 2855SOL    HW210463   6.793   8.045   0.506
 2856SOL     OW10464   9.703  14.318  10.766
 2856SOL    HW110465   9.729  14.309  10.674
 2856SOL    HW210466   9.784  14.343  10.811
 2857SOL     OW10467   4.204  10.899   4.666
 2857SOL    HW110468   4.214  10.827   4.604
 2857SOL    HW210469   4.193  10.857   4.751
 2858SOL     OW10470   2.993   4.498  11.172
 2858SOL    HW110471   2.996   4.406  11.198
 2858SOL    HW210472   3.011   4.546  11.253
 2859SOL     OW10473  14.843   5.919   3.339
 2859SOL    HW110474   0.006   5.844   3.376
 2859SOL    HW210475  14.804   5.964   3.414
 2860SOL     OW10476  14.828   6.009  12.991
 2860SOL    HW110477  14.868   5.977  12.910
 2860SOL    HW210478  14.740   5.971  12.991
 2861SOL     OW10479  13.069  14.870   3.629
 2861SOL    HW110480  13.029  14.830   3.707
 2861SOL    HW210481  13.080   0.080   3.652
 2862SOL     OW10482   6.248  13.314  13.788
 2862SOL    HW110483   6.153  13.310  13.801
 2862SOL    HW210484   6.265  13.250  13.719
 2863SOL     OW10485   0.573   4.504   8.201
 2863SOL    HW110486   0.528   4.564   8.260
 2863SOL    HW210487   0.654   4.481   8.247
 2864SOL     OW10488   9.045  13.761   8.343
 2864SOL    HW110489   9.093  13.810   8.276
 2864SOL    HW210490   9.088  13.676   8.346
 2865SOL     OW10491   0.975  12.394   6.368
 2865SOL    HW110492   0.957  12.364   6.457
 2865SOL    HW210493   1.018  12.319   6.326
 2866SOL     OW10494   0.190   6.863  12.662
 2866SOL    HW110495   0.128   6.812  12.609
 2866SOL    HW210496   0.237   6.798  12.713
 2867SOL     OW10497   4.610   1.476   1.375
 2867SOL    HW110498   4.637   1.426   1.452
 2867SOL    HW210499   4.522   1.506   1.395
 2868SOL     OW10500  11.444   3.076  13.891
 2868SOL    HW110501  11.536   3.070  13.866
 2868SOL    HW210502  11.420   2.986  13.915
 2869SOL     OW10503   9.228   5.671   7.779
 2869SOL    HW110504   9.257   5.750   7.825
 2869SOL    HW210505   9.194   5.613   7.847
 2870SOL     OW10506   9.138   5.403   9.833
 2870SOL    HW110507   9.186   5.423   9.913
 2870SOL    HW210508   9.054   5.367   9.864
 2871SOL     OW10509   6.552   0.735   4.116
 2871SOL    HW110510   6.558   0.751   4.021
 2871SOL    HW210511   6.628   0.680   4.136
 2872SOL     OW10512   6.209   1.195   3.349
 2872SOL    HW110513   6.192   1.218   3.258
 2872SOL    HW210514   6.134   1.140   3.374
 2873SOL     OW10515   9.484  12.922   3.174
 2873SOL    HW110516   9.507  12.934   3.266
 2873SOL    HW210517   9.390  12.908   3.174
 2874SOL     OW10518   7.369   4.152   5.881
 2874SOL    HW110519   7.374   4.237   5.837
 2874SOL    HW210520   7.311   4.099   5.826
 2875SOL     OW10521   5.389   0.883   4.163
 2875SOL    HW110522   5.360   0.880   4.071
 2875SOL    HW210523   5.363   0.969   4.194
 2876SOL     OW10524   6.459   3.871   6.956
 2876SOL    HW110525   6.430   3.869   6.865
 2876SOL    HW210526   6.386   3.834   7.006
 2877SOL     OW10527   3.236   8.273   7.523
 2877SOL    HW110528   3.181   8.317   7.458
 2877SOL    HW210529   3.253   8.187   7.485
 2878SOL     OW10530  10.271   9.326  10.809
 2878SOL    HW110531  10.186   9.310  10.850
 2878SOL    HW210532  10.288   9.419  10.825
 2879SOL     OW10533   4.066   8.951  11.600
 2879SOL    HW110534   4.000   8.884  11.585
 2879SOL    HW210535   4.149   8.907  11.584
 2880SOL     OW10536   1.654  12.679   5.305
 2880SOL    HW110537   1.602  12.599   5.296
 2880SOL    HW210538   1.741  12.656   5.272
 2881SOL     OW10539  10.115   9.229   5.180
 2881SOL    HW110540  10.036   9.281   5.168
 2881SOL    HW210541  10.100   9.180   5.260
 2882SOL     OW10542  11.051   3.137   5.755
 2882SOL    HW110543  11.051   3.092   5.839
 2882SOL    HW210544  11.023   3.070   5.692
 2883SOL     OW10545   8.585  11.506   8.279
 2883SOL    HW110546   8.570  11.581   8.337
 2883SOL    HW210547   8.526  11.439   8.312
 2884SOL     OW10548   2.195  10.987   8.070
 2884SOL    HW110549   2.150  10.941   7.999
 2884SOL    HW210550   2.155  11.074   8.072
 2885SOL     OW10551   4.876   1.128   5.681
 2885SOL    HW110552   4.859   1.100   5.590
 2885SOL    HW210553   4.794   1.166   5.710
 2886SOL     OW10554   6.688   0.558  12.246
 2886SOL    HW110555   6.595   0.539  12.263
 2886SOL    HW210556   6.691   0.653  12.238
 2887SOL     OW10557  10.099   9.463  11.954
 2887SOL    HW110558  10.089   9.516  11.876
 2887SOL    HW210559  10.111   9.526  12.025
 2888SOL     OW10560   9.685   7.460   6.938
 2888SOL    HW110561   9.781   7.455   6.936
 2888SOL    HW210562   9.664   7.485   7.028
 2889SOL     OW10563   0.422   6.954   7.568
 2889SOL    HW110564   0.383   6.902   7.497
 2889SOL    HW210565   0.401   6.905   7.647
 2890SOL     OW10566  10.672  12.359  14.064
 2890SOL    HW110567  10.661  12.385  13.972
 2890SOL    HW210568  10.652  12.438  14.114
 2891SOL     OW10569  10.950  13.527   7.977
 2891SOL    HW110570  10.941  13.614   7.939
 2891SOL    HW210571  11.011  13.539   8.049
 2892SOL     OW10572   0.217   0.711  12.100
 2892SOL    HW110573   0.236   0.769  12.026
 2892SOL    HW210574   0.229   0.623  12.064
 2893SOL     OW10575   1.786   7.904  13.146
 2893SOL    HW110576   1.807   7.939  13.059
 2893SOL    HW210577   1.850   7.944  13.205
 2894SOL     OW10578   9.783  10.129   8.481
 2894SOL    HW110579   9.819  10.061   8.539
 2894SOL    HW210580   9.813  10.211   8.520
 2895SOL     OW10581   3.655   1.504   6.447
 2895SOL    HW110582   3.575   1.484   6.397
 2895SOL    HW210583   3.648   1.451   6.526
 2896SOL     OW10584   4.062  10.348  11.787
 2896SOL    HW110585   4.052  10.313  11.875
 2896SOL    HW210586   4.110  10.280  11.739
 2897SOL     OW10587   2.826   1.889   5.624
 2897SOL    HW110588   2.806   1.802   5.591
 2897SOL    HW210589   2.859   1.874   5.713
 2898SOL     OW10590   2.637  14.615   1.589
 2898SOL    HW110591   2.726  14.650   1.584
 2898SOL    HW210592   2.641  14.531   1.544
 2899SOL     OW10593  12.819   8.176   1.889
 2899SOL    HW110594  12.865   8.093   1.875
 2899SOL    HW210595  12.759   8.183   1.815
 2900SOL     OW10596   9.898   3.067   3.310
 2900SOL    HW110597   9.889   3.047   3.216
 2900SOL    HW210598   9.809   3.084   3.340
 2901SOL     OW10599  10.358   6.076  11.134
 2901SOL    HW110600  10.270   6.042  11.121
 2901SOL    HW210601  10.346   6.169  11.155
 2902SOL     OW10602  10.885  11.957   7.469
 2902SOL    HW110603  10.929  12.030   7.426
 2902SOL    HW210604  10.956  11.910   7.514
 2903SOL     OW10605   9.102   2.830   4.674
 2903SOL    HW110606   9.099   2.900   4.740
 2903SOL    HW210607   9.083   2.874   4.591
 2904SOL     OW10608   4.111  14.261   7.099
 2904SOL    HW110609   4.101  14.182   7.152
 2904SOL    HW210610   4.187  14.305   7.136
 2905SOL     OW10611  13.026   6.234   2.836
 2905SOL    HW110612  13.107   6.198   2.871
 2905SOL    HW210613  13.014   6.316   2.883
 2906SOL     OW10614  10.274   1.714  12.331
 2906SOL    HW110615  10.338   1.710  12.260
 2906SOL    HW210616  10.198   1.756  12.291
 2907SOL     OW10617   3.692   0.967   7.055
 2907SOL    HW110618   3.735   0.882   7.064
 2907SOL    HW210619   3.615   0.962   7.111
 2908SOL     OW10620  12.333  10.537  14.515
 2908SOL    HW110621  12.369  10.599  14.579
 2908SOL    HW210622  12.391  10.542  14.440
 2909SOL     OW10623   8.847   4.169   9.482
 2909SOL    HW110624   8.754   4.169   9.507
 2909SOL    HW210625   8.876   4.259   9.498
 2910SOL     OW10626   9.129   9.158  12.487
 2910SOL    HW110627   9.047   9.180  12.531
 2910SOL    HW210628   9.106   9.152  12.394
 2911SOL     OW10629  11.323   4.162   2.787
 2911SOL    HW110630  11.241   4.141   2.833
 2911SOL    HW210631  11.391   4.144   2.851
 2912SOL     OW10632   1.364  14.394   9.192
 2912SOL    HW110633   1.408  14.316   9.226
 2912SOL    HW210634   1.394  14.400   9.101
 2913SOL     OW10635   5.640   4.899   3.645
 2913SOL    HW110636   5.691   4.865   3.719
 2913SOL    HW210637   5.676   4.986   3.629
 2914SOL     OW10638  10.750   7.833   3.234
 2914SOL    HW110639  10.655   7.834   3.245
 2914SOL    HW210640  10.763   7.859   3.143
 2915SOL     OW10641   6.438   1.750  14.683
 2915SOL    HW110642   6.480   1.664  14.688
 2915SOL    HW210643   6.368   1.745  14.748
 2916SOL     OW10644  13.046   2.948  13.707
 2916SOL    HW110645  13.089   2.965  13.623
 2916SOL    HW210646  12.954   2.937  13.684
 2917SOL     OW10647   6.186   8.513   1.293
 2917SOL    HW110648   6.252   8.573   1.259
 2917SOL    HW210649   6.146   8.559   1.366
 2918SOL     OW10650   6.698  11.929   4.603
 2918SOL    HW110651   6.631  11.879   4.650
 2918SOL    HW210652   6.709  12.009   4.655
 2919SOL     OW10653   7.415  12.560   9.640
 2919SOL    HW110654   7.390  12.573   9.732
 2919SOL    HW210655   7.452  12.644   9.613
 2920SOL     OW10656   5.561   2.364  11.170
 2920SOL    HW110657   5.584   2.345  11.261
 2920SOL    HW210658   5.644   2.364  11.123
 2921SOL     OW10659   1.050   1.784   6.487
 2921SOL    HW110660   1.085   1.753   6.571
 2921SOL    HW210661   1.020   1.704   6.443
 2922SOL     OW10662   6.474   7.103  13.466
 2922SOL    HW110663   6.533   7.079  13.394
 2922SOL    HW210664   6.532   7.115  13.541
 2923SOL     OW10665  10.146  12.787   7.357
 2923SOL    HW110666  10.241  12.793   7.351
 2923SOL    HW210667  10.121  12.854   7.421
 2924SOL     OW10668   3.174   3.186  12.900
 2924SOL    HW110669   3.182   3.227  12.986
 2924SOL    HW210670   3.231   3.239  12.843
 2925SOL     OW10671   4.921   7.474  10.078
 2925SOL    HW110672   4.997   7.441  10.030
 2925SOL    HW210673   4.957   7.509  10.159
 2926SOL     OW10674  13.497   1.536   1.426
 2926SOL    HW110675  13.556   1.526   1.501
 2926SOL    HW210676  13.553   1.520   1.350
 2927SOL     OW10677   1.892   9.086   5.274
 2927SOL    HW110678   1.809   9.053   5.240
 2927SOL    HW210679   1.876   9.178   5.292
 2928SOL     OW10680   4.126   6.553   8.244
 2928SOL    HW110681   4.165   6.577   8.160
 2928SOL    HW210682   4.077   6.631   8.270
 2929SOL     OW10683   7.021   8.346   4.098
 2929SOL    HW110684   7.013   8.430   4.144
 2929SOL    HW210685   6.998   8.280   4.164
 2930SOL     OW10686   9.442   9.440   9.813
 2930SOL    HW110687   9.475   9.350   9.813
 2930SOL    HW210688   9.512   9.492   9.853
 2931SOL     OW10689  11.525   2.541  13.613
 2931SOL    HW110690  11.589   2.611  13.596
 2931SOL    HW210691  11.487   2.522  13.527
 2932SOL     OW10692  13.495  10.630  13.700
 2932SOL    HW110693  13.464  10.720  13.709
 2932SOL    HW210694  13.591  10.639  13.698
 2933SOL     OW10695   4.232  12.580   9.661
 2933SOL    HW110696   4.303  12.552   9.603
 2933SOL    HW210697   4.271  12.651   9.714
 2934SOL     OW10698   2.611  10.311   1.736
 2934SOL    HW110699   2.523  10.341   1.759
 2934SOL    HW210700   2.662  10.392   1.727
 2935SOL     OW10701   7.974   7.476  14.874
 2935SOL    HW110702   7.891   7.495  14.830
 2935SOL    HW210703   7.981   7.541   0.061
 2936SOL     OW10704   8.949   3.749  10.711
 2936SOL    HW110705   8.922   3.720  10.799
 2936SOL    HW210706   9.044   3.736  10.710
 2937SOL     OW10707   6.985  11.677  14.521
 2937SOL    HW110708   7.038  11.598  14.532
 2937SOL    HW210709   6.953  11.672  14.431
 2938SOL     OW10710   3.152  10.285   9.496
 2938SOL    HW110711   3.183  10.359   9.548
 2938SOL    HW210712   3.147  10.318   9.407
 2939SOL     OW10713   7.755   5.747  12.616
 2939SOL    HW110714   7.711   5.715  12.537
 2939SOL    HW210715   7.818   5.677  12.637
 2940SOL     OW10716   7.051   1.484  12.170
 2940SOL    HW110717   7.123   1.496  12.233
 2940SOL    HW210718   7.051   1.390  12.152
 2941SOL     OW10719   9.632   8.434   1.225
 2941SOL    HW110720   9.668   8.488   1.295
 2941SOL    HW210721   9.575   8.494   1.176
 2942SOL     OW10722  14.328  14.295  11.705
 2942SOL    HW110723  14.277  14.219  11.732
 2942SOL    HW210724  14.419  14.271  11.720
 2943SOL     OW10725   9.087  14.540   8.436
 2943SOL    HW110726   9.178  14.534   8.406
 2943SOL    HW210727   9.036  14.554   8.357
 2944SOL     OW10728  14.020  13.389  12.602
 2944SOL    HW110729  14.008  13.316  12.663
 2944SOL    HW210730  13.934  13.430  12.596
 2945SOL     OW10731   9.465   2.665  13.174
 2945SOL    HW110732   9.531   2.596  13.164
 2945SOL    HW210733   9.401   2.647  13.105
 2946SOL     OW10734   9.556   9.279  10.300
 2946SOL    HW110735   9.550   9.347  10.232
 2946SOL    HW210736   9.597   9.324  10.374
 2947SOL     OW10737   7.634   6.970  10.994
 2947SOL    HW110738   7.672   7.015  10.918
 2947SOL    HW210739   7.691   6.994  11.067
 2948SOL     OW10740   4.227   1.843  14.760
 2948SOL    HW110741   4.255   1.933  14.744
 2948SOL    HW210742   4.300   1.803  14.808
 2949SOL     OW10743   8.536   9.438   8.518
 2949SOL    HW110744   8.494   9.472   8.597
 2949SOL    HW210745   8.629   9.462   8.529
 2950SOL     OW10746   5.662  11.823   1.839
 2950SOL    HW110747   5.665  11.918   1.829
 2950SOL    HW210748   5.747  11.800   1.878
 2951SOL     OW10749   6.303   6.744   4.923
 2951SOL    HW110750   6.264   6.831   4.931
 2951SOL    HW210751   6.244   6.687   4.974
 2952SOL     OW10752  11.273   0.390   8.121
 2952SOL    HW110753  11.227   0.347   8.193
 2952SOL    HW210754  11.225   0.471   8.107
 2953SOL     OW10755  12.789  13.491   2.167
 2953SOL    HW110756  12.800  13.415   2.223
 2953SOL    HW210757  12.694  13.506   2.165
 2954SOL     OW10758   9.383   1.183  10.558
 2954SOL    HW110759   9.452   1.132  10.599
 2954SOL    HW210760   9.332   1.120  10.507
 2955SOL     OW10761   0.728   1.047   4.443
 2955SOL    HW110762   0.764   0.963   4.414
 2955SOL    HW210763   0.789   1.078   4.510
 2956SOL     OW10764   9.755  13.019  10.779
 2956SOL    HW110765   9.747  12.926  10.762
 2956SOL    HW210766   9.737  13.028  10.873
 2957SOL     OW10767   4.100  11.095   2.248
 2957SOL    HW110768   4.125  11.013   2.291
 2957SOL    HW210769   4.179  11.121   2.199
 2958SOL     OW10770   6.531   2.763   4.578
 2958SOL    HW110771   6.600   2.764   4.644
 2958SOL    HW210772   6.557   2.829   4.514
 2959SOL     OW10773   2.872  12.520   1.962
 2959SOL    HW110774   2.964  12.548   1.961
 2959SOL    HW210775   2.826  12.591   2.008
 2960SOL     OW10776   4.877   7.415  14.205
 2960SOL    HW110777   4.839   7.333  14.174
 2960SOL    HW210778   4.933   7.390  14.279
 2961SOL     OW10779  14.785   1.985   0.760
 2961SOL    HW110780  14.864   2.013   0.807
 2961SOL    HW210781  14.729   2.063   0.759
 2962SOL     OW10782  10.976   3.077  10.652
 2962SOL    HW110783  10.955   3.113  10.566
 2962SOL    HW210784  11.031   3.143  10.694
 2963SOL     OW10785  13.462   0.078   5.359
 2963SOL    HW110786  13.418  14.875   5.364
 2963SOL    HW210787  13.527   0.068   5.289
 2964SOL     OW10788   4.595   7.596   4.661
 2964SOL    HW110789   4.572   7.659   4.593
 2964SOL    HW210790   4.526   7.531   4.658
 2965SOL     OW10791   4.026  12.615   2.343
 2965SOL    HW110792   4.119  12.615   2.322
 2965SOL    HW210793   3.983  12.590   2.261
 2966SOL     OW10794  10.778  10.964  12.547
 2966SOL    HW110795  10.816  10.877  12.539
 2966SOL    HW210796  10.773  10.997  12.457
 2967SOL     OW10797   7.980   3.287   7.077
 2967SOL    HW110798   7.929   3.368   7.081
 2967SOL    HW210799   7.959   3.250   6.991
 2968SOL     OW10800   5.425   0.001   0.291
 2968SOL    HW110801   5.483  14.809   0.307
 2968SOL    HW210802   5.455   0.037   0.207
 2969SOL     OW10803   5.281   9.072   4.587
 2969SOL    HW110804   5.222   9.104   4.655
 2969SOL    HW210805   5.302   9.150   4.535
 2970SOL     OW10806  12.524   9.426   9.724
 2970SOL    HW110807  12.495   9.442   9.634
 2970SOL    HW210808  12.564   9.508   9.751
 2971SOL     OW10809   2.574  14.244   9.379
 2971SOL    HW110810   2.660  14.217   9.346
 2971SOL    HW210811   2.592  14.277   9.467
 2972SOL     OW10812  14.223   7.746   7.997
 2972SOL    HW110813  14.177   7.824   8.026
 2972SOL    HW210814  14.221   7.751   7.901
 2973SOL     OW10815   5.235   3.778   2.808
 2973SOL    HW110816   5.308   3.839   2.817
 2973SOL    HW210817   5.174   3.803   2.878
 2974SOL     OW10818   1.692  13.897   5.165
 2974SOL    HW110819   1.668  13.987   5.186
 2974SOL    HW210820   1.627  13.870   5.100
 2975SOL     OW10821   9.090   7.200   5.596
 2975SOL    HW110822   9.031   7.274   5.609
 2975SOL    HW210823   9.174   7.230   5.629
 2976SOL     OW10824   2.029  11.672   5.365
 2976SOL    HW110825   2.115  11.715   5.357
 2976SOL    HW210826   2.040  11.590   5.318
 2977SOL     OW10827  11.458  14.522   9.125
 2977SOL    HW110828  11.483  14.458   9.059
 2977SOL    HW210829  11.538  14.574   9.138
 2978SOL     OW10830   7.075   7.887   0.632
 2978SOL    HW110831   7.024   7.950   0.580
 2978SOL    HW210832   7.144   7.939   0.672
 2979SOL     OW10833  10.138   5.364   0.228
 2979SOL    HW110834  10.131   5.459   0.221
 2979SOL    HW210835  10.157   5.348   0.320
 2980SOL     OW10836   0.839   6.798   6.155
 2980SOL    HW110837   0.876   6.855   6.222
 2980SOL    HW210838   0.829   6.854   6.078
 2981SOL     OW10839   4.737   3.643  14.778
 2981SOL    HW110840   4.658   3.642  14.724
 2981SOL    HW210841   4.783   3.723  14.753
 2982SOL     OW10842   7.659   3.405   1.400
 2982SOL    HW110843   7.591   3.445   1.454
 2982SOL    HW210844   7.635   3.312   1.396
 2983SOL     OW10845  11.496   8.482   8.493
 2983SOL    HW110846  11.488   8.524   8.578
 2983SOL    HW210847  11.590   8.477   8.477
 2984SOL     OW10848   8.670   8.918   6.822
 2984SOL    HW110849   8.703   9.002   6.853
 2984SOL    HW210850   8.583   8.910   6.861
 2985SOL     OW10851   9.816  10.297   9.139
 2985SOL    HW110852   9.869  10.235   9.190
 2985SOL    HW210853   9.756  10.335   9.203
 2986SOL     OW10854   4.402   0.036  14.588
 2986SOL    HW110855   4.454  14.840  14.609
 2986SOL    HW210856   4.351   0.052  14.668
 2987SOL     OW10857   4.582   5.421   5.135
 2987SOL    HW110858   4.557   5.513   5.132
 2987SOL    HW210859   4.532   5.385   5.209
 2988SOL     OW10860   6.860  12.364  12.765
 2988SOL    HW110861   6.922  12.290  12.768
 2988SOL    HW210862   6.912  12.436  12.729
 2989SOL     OW10863   5.235   5.466  10.330
 2989SOL    HW110864   5.245   5.556  10.361
 2989SOL    HW210865   5.257   5.470  10.237
 2990SOL     OW10866   0.487   0.923   4.774
 2990SOL    HW110867   0.452   0.990   4.832
 2990SOL    HW210868   0.575   0.954   4.752
 2991SOL     OW10869  10.765  12.393  11.091
 2991SOL    HW110870  10.786  12.344  11.170
 2991SOL    HW210871  10.849  12.407  11.048
 2992SOL     OW10872  11.296  12.889   2.576
 2992SOL    HW110873  11.236  12.942   2.524
 2992SOL    HW210874  11.301  12.806   2.528
 2993SOL     OW10875   1.498   4.385  11.599
 2993SOL    HW110876   1.420   4.408  11.649
 2993SOL    HW210877   1.501   4.450  11.529
 2994SOL     OW10878   2.653   5.967   4.091
 2994SOL    HW110879   2.686   5.924   4.170
 2994SOL    HW210880   2.566   5.929   4.077
 2995SOL     OW10881  12.834   4.410   2.771
 2995SOL    HW110882  12.862   4.500   2.788
 2995SOL    HW210883  12.838   4.367   2.857
 2996SOL     OW10884  12.124  12.680  10.195
 2996SOL    HW110885  12.203  12.730  10.173
 2996SOL    HW210886  12.055  12.746  10.202
 2997SOL     OW10887   6.951   9.375   9.146
 2997SOL    HW110888   6.989   9.462   9.156
 2997SOL    HW210889   6.860   9.392   9.121
 2998SOL     OW10890   6.861   6.434  10.286
 2998SOL    HW110891   6.819   6.437  10.200
 2998SOL    HW210892   6.908   6.350  10.286
 2999SOL     OW10893   3.233   7.027   1.411
 2999SOL    HW110894   3.282   6.979   1.345
 2999SOL    HW210895   3.291   7.031   1.486
 3000SOL     OW10896   4.719   7.398  10.327
 3000SOL    HW110897   4.640   7.371  10.280
 3000SOL    HW210898   4.775   7.437  10.260
 3001SOL     OW10899   1.066   7.723  12.192
 3001SOL    HW110900   1.067   7.666  12.268
 3001SOL    HW210901   0.986   7.701  12.146
 3002SOL     OW10902   0.944  11.968   2.585
 3002SOL    HW110903   0.974  11.989   2.496
 3002SOL    HW210904   0.993  12.028   2.641
 3003SOL     OW10905   8.643   9.515   6.551
 3003SOL    HW110906   8.575   9.541   6.613
 3003SOL    HW210907   8.720   9.567   6.577
 3004SOL     OW10908   6.253  10.432  14.474
 3004SOL    HW110909   6.298  10.476  14.546
 3004SOL    HW210910   6.321  10.419  14.408
 3005SOL     OW10911   8.082  12.223   1.154
 3005SOL    HW110912   8.071  12.240   1.061
 3005SOL    HW210913   7.993  12.205   1.185
 3006SOL     OW10914  14.042   9.384   2.456
 3006SOL    HW110915  14.070   9.423   2.539
 3006SOL    HW210916  14.052   9.455   2.392
 3007SOL     OW10917  10.433   7.997  14.439
 3007SOL    HW110918  10.455   8.035  14.354
 3007SOL    HW210919  10.440   8.070  14.501
 3008SOL     OW10920  10.230   5.314   8.489
 3008SOL    HW110921  10.260   5.350   8.406
 3008SOL    HW210922  10.140   5.286   8.472
 3009SOL     OW10923   7.712   4.322   9.749
 3009SOL    HW110924   7.673   4.409   9.744
 3009SOL    HW210925   7.738   4.313   9.840
 3010SOL     OW10926   5.490   6.639   1.487
 3010SOL    HW110927   5.492   6.614   1.394
 3010SOL    HW210928   5.491   6.556   1.534
 3011SOL     OW10929  14.677  11.330   9.793
 3011SOL    HW110930  14.766  11.295   9.793
 3011SOL    HW210931  14.620  11.253   9.792
 3012SOL     OW10932   3.305  12.474   4.354
 3012SOL    HW110933   3.362  12.552   4.355
 3012SOL    HW210934   3.320  12.433   4.439
 3013SOL     OW10935  12.790   0.040  13.941
 3013SOL    HW110936  12.798   0.019  14.034
 3013SOL    HW210937  12.714  14.873  13.911
 3014SOL     OW10938   0.400  11.021   7.962
 3014SOL    HW110939   0.364  11.025   8.051
 3014SOL    HW210940   0.383  10.930   7.934
 3015SOL     OW10941  13.889   4.088   0.141
 3015SOL    HW110942  13.949   4.060   0.072
 3015SOL    HW210943  13.806   4.047   0.119
 3016SOL     OW10944  10.531   8.346   2.072
 3016SOL    HW110945  10.454   8.336   2.017
 3016SOL    HW210946  10.592   8.279   2.041
 3017SOL     OW10947   7.195  12.474  14.579
 3017SOL    HW110948   7.241  12.391  14.568
 3017SOL    HW210949   7.255  12.539  14.543
 3018SOL     OW10950   4.264   3.249  10.007
 3018SOL    HW110951   4.191   3.309   9.998
 3018SOL    HW210952   4.333   3.286   9.951
 3019SOL     OW10953  11.339   6.873   6.862
 3019SOL    HW110954  11.290   6.793   6.849
 3019SOL    HW210955  11.373   6.867   6.951
 3020SOL     OW10956   9.615   5.100   8.541
 3020SOL    HW110957   9.694   5.103   8.487
 3020SOL    HW210958   9.638   5.043   8.615
 3021SOL     OW10959  12.735  13.341   0.872
 3021SOL    HW110960  12.739  13.253   0.908
 3021SOL    HW210961  12.700  13.329   0.784
 3022SOL     OW10962  10.893   4.933   6.960
 3022SOL    HW110963  10.835   4.871   7.004
 3022SOL    HW210964  10.835   5.000   6.925
 3023SOL     OW10965   0.238   2.947  11.040
 3023SOL    HW110966   0.289   2.950  11.121
 3023SOL    HW210967   0.231   2.854  11.018
 3024SOL     OW10968   2.967  13.315  12.538
 3024SOL    HW110969   2.919  13.397  12.549
 3024SOL    HW210970   2.906  13.257  12.493
 3025SOL     OW10971   3.123   4.439   9.585
 3025SOL    HW110972   3.219   4.429   9.587
 3025SOL    HW210973   3.093   4.400   9.668
 3026SOL     OW10974   7.506   8.877  13.967
 3026SOL    HW110975   7.597   8.871  13.939
 3026SOL    HW210976   7.511   8.910  14.057
 3027SOL     OW10977   4.913   8.476  14.067
 3027SOL    HW110978   4.856   8.552  14.056
 3027SOL    HW210979   5.001   8.510  14.053
 3028SOL     OW10980  11.080   4.122  11.937
 3028SOL    HW110981  10.991   4.130  11.905
 3028SOL    HW210982  11.095   4.203  11.987
 3029SOL     OW10983   5.763   8.048   3.693
 3029SOL    HW110984   5.792   7.959   3.671
 3029SOL    HW210985   5.744   8.088   3.608
 3030SOL     OW10986   5.846   2.297   3.171
 3030SOL    HW110987   5.852   2.337   3.084
 3030SOL    HW210988   5.820   2.206   3.154
 3031SOL     OW10989   1.348   5.360   1.697
 3031SOL    HW110990   1.269   5.387   1.651
 3031SOL    HW210991   1.380   5.284   1.647
 3032SOL     OW10992  13.610   4.566   7.816
 3032SOL    HW110993  13.570   4.602   7.736
 3032SOL    HW210994  13.550   4.498   7.845
 3033SOL     OW10995   1.895   1.545  12.751
 3033SOL    HW110996   1.885   1.492  12.672
 3033SOL    HW210997   1.990   1.553  12.763
 3034SOL     OW10998   1.246   6.743   2.858
 3034SOL    HW110999   1.214   6.738   2.948
 3034SOL    HW211000   1.168   6.723   2.805
 3035SOL     OW11001   2.005   4.328   1.593
 3035SOL    HW111002   1.937   4.395   1.604
 3035SOL    HW211003   2.087   4.377   1.592
 3036SOL     OW11004   7.693  13.222   2.312
 3036SOL    HW111005   7.612  13.213   2.362
 3036SOL    HW211006   7.678  13.169   2.234
 3037SOL     OW11007   2.244   3.807  11.028
 3037SOL    HW111008   2.163   3.789  10.980
 3037SOL    HW211009   2.252   3.903  11.025
 3038SOL     OW11010  13.652   9.993   8.355
 3038SOL    HW111011  13.730  10.048   8.356
 3038SOL    HW211012  13.652   9.949   8.440
 3039SOL     OW11013  12.677   4.345  10.333
 3039SOL    HW111014  12.716   4.273  10.283
 3039SOL    HW211015  12.744   4.366  10.399
 3040SOL     OW11016  14.791   2.795   8.919
 3040SOL    HW111017  14.715   2.830   8.873
 3040SOL    HW211018  14.866   2.827   8.870
 3041SOL     OW11019   2.968  13.067   5.928
 3041SOL    HW111020   2.965  13.127   5.854
 3041SOL    HW211021   2.940  13.119   6.004
 3042SOL     OW11022  14.446  13.368   4.130
 3042SOL    HW111023  14.383  13.358   4.058
 3042SOL    HW211024  14.456  13.463   4.140
 3043SOL     OW11025   1.176   6.749   3.108
 3043SOL    HW111026   1.107   6.750   3.174
 3043SOL    HW211027   1.254   6.780   3.153
 3044SOL     OW11028  11.107   0.636   7.851
 3044SOL    HW111029  11.059   0.704   7.899
 3044SOL    HW211030  11.199   0.661   7.860
 3045SOL     OW11031   7.324  14.346   0.152
 3045SOL    HW111032   7.274  14.379   0.077
 3045SOL    HW211033   7.349  14.257   0.127
 3046SOL     OW11034   0.253   5.447  11.411
 3046SOL    HW111035   0.261   5.504  11.487
 3046SOL    HW211036   0.187   5.489  11.356
 3047SOL     OW11037   7.887   1.027   8.105
 3047SOL    HW111038   7.964   1.004   8.053
 3047SOL    HW211039   7.842   1.092   8.052
 3048SOL     OW11040   3.895  14.211   1.146
 3048SOL    HW111041   3.903  14.130   1.196
 3048SOL    HW211042   3.801  14.230   1.146
 3049SOL     OW11043   5.135  10.353   3.693
 3049SOL    HW111044   5.152  10.285   3.627
 3049SOL    HW211045   5.213  10.353   3.748
 3050SOL     OW11046   5.591   3.135   6.109
 3050SOL    HW111047   5.523   3.197   6.083
 3050SOL    HW211048   5.573   3.117   6.201
 3051SOL     OW11049   4.384   4.778   4.804
 3051SOL    HW111050   4.364   4.748   4.893
 3051SOL    HW211051   4.437   4.856   4.817
 3052SOL     OW11052   2.000  12.721   8.973
 3052SOL    HW111053   1.925  12.780   8.961
 3052SOL    HW211054   2.062  12.770   9.026
 3053SOL     OW11055   3.746   3.757   8.011
 3053SOL    HW111056   3.715   3.727   8.096
 3053SOL    HW211057   3.667   3.781   7.963
 3054SOL     OW11058   2.911  10.828  14.482
 3054SOL    HW111059   2.857  10.903  14.506
 3054SOL    HW211060   2.876  10.756  14.534
 3055SOL     OW11061   2.367   6.603   5.025
 3055SOL    HW111062   2.372   6.570   5.115
 3055SOL    HW211063   2.452   6.645   5.011
 3056SOL     OW11064  12.875  11.265   0.337
 3056SOL    HW111065  12.834  11.323   0.401
 3056SOL    HW211066  12.805  11.204   0.311
 3057SOL     OW11067   9.048   5.557  13.513
 3057SOL    HW111068   9.086   5.492  13.572
 3057SOL    HW211069   9.087   5.640  13.541
 3058SOL     OW11070  12.648   9.211   8.790
 3058SOL    HW111071  12.686   9.139   8.740
 3058SOL    HW211072  12.602   9.169   8.862
 3059SOL     OW11073  14.831   2.021   1.099
 3059SOL    HW111074   0.037   1.990   1.116
 3059SOL    HW211075  14.837   2.066   1.015
 3060SOL     OW11076   0.768   6.930  10.055
 3060SOL    HW111077   0.790   7.020  10.030
 3060SOL    HW211078   0.840   6.902  10.111
 3061SOL     OW11079  14.367   0.124   1.011
 3061SOL    HW111080  14.290   0.068   1.022
 3061SOL    HW211081  14.440   0.073   1.046
 3062SOL     OW11082  11.586   4.598   7.219
 3062SOL    HW111083  11.681   4.582   7.217
 3062SOL    HW211084  11.550   4.526   7.269
 3063SOL     OW11085  13.630   3.986  10.417
 3063SOL    HW111086  13.570   3.952  10.350
 3063SOL    HW211087  13.614   3.930  10.493
 3064SOL     OW11088   8.242   7.964   3.708
 3064SOL    HW111089   8.306   7.893   3.702
 3064SOL    HW211090   8.167   7.934   3.657
 3065SOL     OW11091   0.790   3.491  10.640
 3065SOL    HW111092   0.765   3.560  10.577
 3065SOL    HW211093   0.742   3.514  10.720
 3066SOL     OW11094   1.616   2.341   9.933
 3066SOL    HW111095   1.634   2.402  10.005
 3066SOL    HW211096   1.700   2.330   9.889
 3067SOL     OW11097   4.616  11.128   7.575
 3067SOL    HW111098   4.590  11.106   7.665
 3067SOL    HW211099   4.609  11.223   7.570
 3068SOL     OW11100   9.940   5.322  13.728
 3068SOL    HW111101  10.032   5.330  13.701
 3068SOL    HW211102   9.893   5.381  13.670
 3069SOL     OW11103   9.538  10.530   4.001
 3069SOL    HW111104   9.462  10.479   3.974
 3069SOL    HW211105   9.599  10.522   3.928
 3070SOL     OW11106   1.479   4.140   0.185
 3070SOL    HW111107   1.492   4.218   0.131
 3070SOL    HW211108   1.516   4.163   0.270
 3071SOL     OW11109  11.850  11.452   3.349
 3071SOL    HW111110  11.926  11.484   3.398
 3071SOL    HW211111  11.866  11.358   3.338
 3072SOL     OW11112   7.659  10.092  10.615
 3072SOL    HW111113   7.682  10.103  10.523
 3072SOL    HW211114   7.652   9.997  10.627
 3073SOL     OW11115  10.169   1.219   1.280
 3073SOL    HW111116  10.138   1.137   1.241
 3073SOL    HW211117  10.188   1.275   1.204
 3074SOL     OW11118   0.362   3.512   8.987
 3074SOL    HW111119   0.402   3.443   8.933
 3074SOL    HW211120   0.428   3.581   8.990
 3075SOL     OW11121   9.133  14.317   3.119
 3075SOL    HW111122   9.115  14.380   3.050
 3075SOL    HW211123   9.226  14.295   3.108
 3076SOL     OW11124  14.653   3.502  11.617
 3076SOL    HW111125  14.605   3.501  11.700
 3076SOL    HW211126  14.605   3.564  11.562
 3077SOL     OW11127   1.624  12.721   4.385
 3077SOL    HW111128   1.686  12.650   4.367
 3077SOL    HW211129   1.625  12.731   4.480
 3078SOL     OW11130   7.237   3.132   1.010
 3078SOL    HW111131   7.268   3.222   1.004
 3078SOL    HW211132   7.304   3.080   0.966
 3079SOL     OW11133  14.104   4.572   2.471
 3079SOL    HW111134  14.099   4.518   2.393
 3079SOL    HW211135  14.197   4.586   2.486
 3080SOL     OW11136   0.379   9.431   1.014
 3080SOL    HW111137   0.298   9.447   0.967
 3080SOL    HW211138   0.352   9.415   1.105
 3081SOL     OW11139   6.202   3.397  13.397
 3081SOL    HW111140   6.124   3.377  13.345
 3081SOL    HW211141   6.272   3.405  13.332
 3082SOL     OW11142   6.284  12.599   0.111
 3082SOL    HW111143   6.293  12.520   0.058
 3082SOL    HW211144   6.350  12.659   0.076
 3083SOL     OW11145   7.926   7.179  14.135
 3083SOL    HW111146   7.895   7.111  14.195
 3083SOL    HW211147   7.957   7.249  14.193
 3084SOL     OW11148   6.588   9.746   3.733
 3084SOL    HW111149   6.613   9.669   3.683
 3084SOL    HW211150   6.670   9.794   3.746
 3085SOL     OW11151  12.277   4.713  14.048
 3085SOL    HW111152  12.340   4.781  14.072
 3085SOL    HW211153  12.202   4.727  14.106
 3086SOL     OW11154   5.308   4.024   8.528
 3086SOL    HW111155   5.400   4.008   8.509
 3086SOL    HW211156   5.274   3.939   8.557
 3087SOL     OW11157  14.424  13.940  12.401
 3087SOL    HW111158  14.499  13.983  12.359
 3087SOL    HW211159  14.410  13.992  12.481
 3088SOL     OW11160   2.981  11.725   4.590
 3088SOL    HW111161   2.991  11.736   4.685
 3088SOL    HW211162   2.887  11.730   4.576
 3089SOL     OW11163  13.585   4.111  10.819
 3089SOL    HW111164  13.666   4.084  10.777
 3089SOL    HW211165  13.556   4.187  10.769
 3090SOL     OW11166   3.371   2.488   7.498
 3090SOL    HW111167   3.443   2.501   7.560
 3090SOL    HW211168   3.381   2.397   7.469
 3091SOL     OW11169   5.403  11.483   5.477
 3091SOL    HW111170   5.413  11.391   5.502
 3091SOL    HW211171   5.493  11.514   5.464
 3092SOL     OW11172   0.491  11.287   5.750
 3092SOL    HW111173   0.581  11.318   5.761
 3092SOL    HW211174   0.458  11.336   5.674
 3093SOL     OW11175   9.206   1.603   9.373
 3093SOL    HW111176   9.248   1.520   9.395
 3093SOL    HW211177   9.114   1.582   9.363
 3094SOL     OW11178   6.514   5.996   9.367
 3094SOL    HW111179   6.591   6.045   9.399
 3094SOL    HW211180   6.456   5.991   9.443
 3095SOL     OW11181   1.067  10.234   2.870
 3095SOL    HW111182   1.078  10.317   2.916
 3095SOL    HW211183   1.014  10.256   2.793
 3096SOL     OW11184  10.849   6.231   9.266
 3096SOL    HW111185  10.768   6.182   9.254
 3096SOL    HW211186  10.891   6.230   9.179
 3097SOL     OW11187   7.362  14.499   3.585
 3097SOL    HW111188   7.440  14.460   3.624
 3097SOL    HW211189   7.382  14.504   3.491
 3098SOL     OW11190   9.053   3.861   6.290
 3098SOL    HW111191   8.958   3.849   6.293
 3098SOL    HW211192   9.085   3.791   6.232
 3099SOL     OW11193  13.502  13.918  12.690
 3099SOL    HW111194  13.435  13.849  12.694
 3099SOL    HW211195  13.524  13.924  12.597
 3100SOL     OW11196   6.431   0.024   1.728
 3100SOL    HW111197   6.394   0.019   1.817
 3100SOL    HW211198   6.485   0.103   1.729
 3101SOL     OW11199  14.334  13.528   1.914
 3101SOL    HW111200  14.424  13.550   1.941
 3101SOL    HW211201  14.279  13.586   1.967
 3102SOL     OW11202   0.944  11.808  11.960
 3102SOL    HW111203   0.946  11.714  11.949
 3102SOL    HW211204   0.898  11.841  11.883
 3103SOL     OW11205   8.576   9.293  14.322
 3103SOL    HW111206   8.668   9.277  14.344
 3103SOL    HW211207   8.528   9.269  14.402
 3104SOL     OW11208   6.994  13.548  14.831
 3104SOL    HW111209   7.006  13.471  14.775
 3104SOL    HW211210   7.083  13.574  14.856
 3105SOL     OW11211   0.361  14.094   9.175
 3105SOL    HW111212   0.355  14.185   9.203
 3105SOL    HW211213   0.381  14.098   9.082
 3106SOL     OW11214  14.593   5.042   6.610
 3106SOL    HW111215  14.560   4.990   6.537
 3106SOL    HW211216  14.550   5.005   6.687
 3107SOL     OW11217  13.414   7.504   8.252
 3107SOL    HW111218  13.364   7.447   8.194
 3107SOL    HW211219  13.470   7.555   8.192
 3108SOL     OW11220  13.191   0.905   2.853
 3108SOL    HW111221  13.212   0.932   2.942
 3108SOL    HW211222  13.154   0.983   2.812
 3109SOL     OW11223   9.951  10.506   7.591
 3109SOL    HW111224   9.942  10.575   7.657
 3109SOL    HW211225   9.995  10.550   7.518
 3110SOL     OW11226   7.358   9.170  12.926
 3110SOL    HW111227   7.332   9.110  12.856
 3110SOL    HW211228   7.453   9.165  12.928
 3111SOL     OW11229   9.136  11.278   7.960
 3111SOL    HW111230   9.182  11.199   7.932
 3111SOL    HW211231   9.193  11.316   8.026
 3112SOL     OW11232   4.018   9.501  13.793
 3112SOL    HW111233   3.949   9.439  13.814
 3112SOL    HW211234   4.067   9.460  13.722
 3113SOL     OW11235   1.930  14.861   7.686
 3113SOL    HW111236   1.938   0.063   7.643
 3113SOL    HW211237   2.002  14.859   7.749
 3114SOL     OW11238   2.355   1.309   5.196
 3114SOL    HW111239   2.293   1.341   5.131
 3114SOL    HW211240   2.377   1.386   5.248
 3115SOL     OW11241  13.537  11.564  12.390
 3115SOL    HW111242  13.452  11.609  12.389
 3115SOL    HW211243  13.597  11.625  12.347
 3116SOL     OW11244   6.153   5.770   8.752
 3116SOL    HW111245   6.171   5.789   8.844
 3116SOL    HW211246   6.139   5.676   8.749
 3117SOL     OW11247  11.806  10.864   7.787
 3117SOL    HW111248  11.894  10.833   7.764
 3117SOL    HW211249  11.799  10.949   7.744
 3118SOL     OW11250  11.633   7.670   4.428
 3118SOL    HW111251  11.628   7.578   4.452
 3118SOL    HW211252  11.582   7.677   4.347
 3119SOL     OW11253   9.913  11.730  13.887
 3119SOL    HW111254   9.835  11.713  13.939
 3119SOL    HW211255   9.899  11.681  13.806
 3120SOL     OW11256   4.504   3.855   7.863
 3120SOL    HW111257   4.566   3.836   7.792
 3120SOL    HW211258   4.423   3.881   7.817
 3121SOL     OW11259  14.493   2.467   6.039
 3121SOL    HW111260  14.444   2.445   5.960
 3121SOL    HW211261  14.475   2.394   6.099
 3122SOL     OW11262   1.887   0.797  13.542
 3122SOL    HW111263   1.817   0.842  13.590
 3122SOL    HW211264   1.923   0.864  13.484
 3123SOL     OW11265   9.738   4.978  13.473
 3123SOL    HW111266   9.817   4.934  13.441
 3123SOL    HW211267   9.695   4.913  13.527
 3124SOL     OW11268   9.295   2.298   0.632
 3124SOL    HW111269   9.351   2.265   0.701
 3124SOL    HW211270   9.316   2.392   0.627
 3125SOL     OW11271   0.959   2.950   3.046
 3125SOL    HW111272   0.978   2.907   2.963
 3125SOL    HW211273   0.930   2.879   3.104
 3126SOL     OW11274  13.817  14.712  12.098
 3126SOL    HW111275  13.816  14.631  12.047
 3126SOL    HW211276  13.874  14.771  12.048
 3127SOL     OW11277   7.488   1.112   3.071
 3127SOL    HW111278   7.409   1.081   3.026
 3127SOL    HW211279   7.500   1.051   3.144
 3128SOL     OW11280   9.576   0.016  13.780
 3128SOL    HW111281   9.558  14.827  13.841
 3128SOL    HW211282   9.669   0.006  13.758
 3129SOL     OW11283   4.802   2.926  13.510
 3129SOL    HW111284   4.775   2.912  13.601
 3129SOL    HW211285   4.822   3.020  13.505
 3130SOL     OW11286   4.066  13.356   1.113
 3130SOL    HW111287   4.123  13.362   1.036
 3130SOL    HW211288   4.064  13.444   1.149
 3131SOL     OW11289  13.184  11.161   6.943
 3131SOL    HW111290  13.096  11.150   6.981
 3131SOL    HW211291  13.242  11.119   7.007
 3132SOL     OW11292  14.627  13.133  10.228
 3132SOL    HW111293  14.634  13.226  10.250
 3132SOL    HW211294  14.718  13.103  10.221
 3133SOL     OW11295  12.149   0.274  11.868
 3133SOL    HW111296  12.202   0.290  11.947
 3133SOL    HW211297  12.180   0.189  11.836
 3134SOL     OW11298   1.957   6.975  13.088
 3134SOL    HW111299   1.993   6.954  13.002
 3134SOL    HW211300   1.862   6.963  13.077
 3135SOL     OW11301   4.154  13.051   9.647
 3135SOL    HW111302   4.075  12.996   9.644
 3135SOL    HW211303   4.148  13.096   9.731
 3136SOL     OW11304   5.727  13.177   2.472
 3136SOL    HW111305   5.693  13.198   2.559
 3136SOL    HW211306   5.780  13.099   2.486
 3137SOL     OW11307  13.687  14.130  12.813
 3137SOL    HW111308  13.728  14.200  12.864
 3137SOL    HW211309  13.726  14.050  12.848
 3138SOL     OW11310   6.452  10.013   4.161
 3138SOL    HW111311   6.398  10.011   4.082
 3138SOL    HW211312   6.390   9.997   4.232
 3139SOL     OW11313   3.296   8.790  14.433
 3139SOL    HW111314   3.203   8.809  14.419
 3139SOL    HW211315   3.316   8.720  14.372
 3140SOL     OW11316   0.630   2.485   9.930
 3140SOL    HW111317   0.592   2.506   9.845
 3140SOL    HW211318   0.708   2.433   9.909
 3141SOL     OW11319  12.639  10.848   6.215
 3141SOL    HW111320  12.626  10.942   6.226
 3141SOL    HW211321  12.562  10.808   6.256
 3142SOL     OW11322   2.456  10.268   6.922
 3142SOL    HW111323   2.373  10.223   6.938
 3142SOL    HW211324   2.523  10.206   6.949
 3143SOL     OW11325   9.468  11.871   4.519
 3143SOL    HW111326   9.412  11.898   4.446
 3143SOL    HW211327   9.407  11.846   4.588
 3144SOL     OW11328   4.313   6.532  12.458
 3144SOL    HW111329   4.371   6.593  12.413
 3144SOL    HW211330   4.250   6.588  12.503
 3145SOL     OW11331  13.182   9.759  11.802
 3145SOL    HW111332  13.173   9.851  11.778
 3145SOL    HW211333  13.262   9.730  11.758
 3146SOL     OW11334   0.353  12.862   7.168
 3146SOL    HW111335   0.431  12.871   7.113
 3146SOL    HW211336   0.280  12.883   7.110
 3147SOL     OW11337   2.960   1.366   0.817
 3147SOL    HW111338   2.983   1.332   0.730
 3147SOL    HW211339   2.917   1.293   0.861
 3148SOL     OW11340   1.279   8.107   7.173
 3148SOL    HW111341   1.369   8.104   7.142
 3148SOL    HW211342   1.280   8.173   7.242
 3149SOL     OW11343  14.117  10.297   0.163
 3149SOL    HW111344  14.049  10.353   0.126
 3149SOL    HW211345  14.144  10.342   0.243
 3150SOL     OW11346   0.110  13.834   8.659
 3150SOL    HW111347   0.125  13.860   8.568
 3150SOL    HW211348   0.198  13.833   8.698
 3151SOL     OW11349   3.956   5.118   9.906
 3151SOL    HW111350   3.864   5.132   9.885
 3151SOL    HW211351   3.997   5.202   9.889
 3152SOL     OW11352   4.348   2.762  12.084
 3152SOL    HW111353   4.309   2.679  12.112
 3152SOL    HW211354   4.279   2.805  12.034
 3153SOL     OW11355   2.648   6.068   0.706
 3153SOL    HW111356   2.709   6.136   0.735
 3153SOL    HW211357   2.664   5.994   0.765
 3154SOL     OW11358  13.385   3.546   9.134
 3154SOL    HW111359  13.478   3.567   9.134
 3154SOL    HW211360  13.356   3.565   9.044
 3155SOL     OW11361   9.512   6.135   2.559
 3155SOL    HW111362   9.588   6.193   2.553
 3155SOL    HW211363   9.541   6.054   2.517
 3156SOL     OW11364  14.074  11.823   9.886
 3156SOL    HW111365  14.035  11.810   9.799
 3156SOL    HW211366  14.031  11.901   9.920
 3157SOL     OW11367  11.186  12.674   7.628
 3157SOL    HW111368  11.122  12.735   7.593
 3157SOL    HW211369  11.271  12.715   7.610
 3158SOL     OW11370   1.479   3.379   0.971
 3158SOL    HW111371   1.516   3.323   0.903
 3158SOL    HW211372   1.520   3.464   0.956
 3159SOL     OW11373   5.721   1.387   1.173
 3159SOL    HW111374   5.793   1.448   1.159
 3159SOL    HW211375   5.658   1.436   1.226
 3160SOL     OW11376  12.664   0.742  12.188
 3160SOL    HW111377  12.698   0.795  12.260
 3160SOL    HW211378  12.732   0.677  12.172
 3161SOL     OW11379  11.320   2.192   6.927
 3161SOL    HW111380  11.256   2.235   6.983
 3161SOL    HW211381  11.344   2.259   6.863
 3162SOL     OW11382   9.666  11.281   8.053
 3162SOL    HW111383   9.717  11.202   8.072
 3162SOL    HW211384   9.676  11.336   8.131
 3163SOL     OW11385   8.225  11.547  13.348
 3163SOL    HW111386   8.172  11.599  13.287
 3163SOL    HW211387   8.315  11.569  13.326
 3164SOL     OW11388   6.575   2.124   3.590
 3164SOL    HW111389   6.582   2.129   3.494
 3164SOL    HW211390   6.529   2.204   3.615
 3165SOL     OW11391   8.638   3.987   3.087
 3165SOL    HW111392   8.565   3.970   3.146
 3165SOL    HW211393   8.707   4.021   3.145
 3166SOL     OW11394   0.050   8.502  14.434
 3166SOL    HW111395   0.111   8.549  14.377
 3166SOL    HW211396   0.006   8.570  14.484
 3167SOL     OW11397  12.535  13.457   8.172
 3167SOL    HW111398  12.578  13.494   8.249
 3167SOL    HW211399  12.604  13.455   8.105
 3168SOL     OW11400   9.452   1.202   1.499
 3168SOL    HW111401   9.372   1.164   1.534
 3168SOL    HW211402   9.520   1.138   1.521
 3169SOL     OW11403   0.471   1.601  14.597
 3169SOL    HW111404   0.546   1.547  14.571
 3169SOL    HW211405   0.471   1.674  14.535
 3170SOL     OW11406   0.559  14.247   9.012
 3170SOL    HW111407   0.530  14.174   8.957
 3170SOL    HW211408   0.653  14.253   8.997
 3171SOL     OW11409   9.907   5.583  13.222
 3171SOL    HW111410   9.835   5.638  13.254
 3171SOL    HW211411   9.961   5.567  13.300
 3172SOL     OW11412   2.300  10.908  14.688
 3172SOL    HW111413   2.358  10.947  14.623
 3172SOL    HW211414   2.351  10.907  14.769
 3173SOL     OW11415  10.952  11.069  12.329
 3173SOL    HW111416  10.972  11.103  12.242
 3173SOL    HW211417  11.007  11.121  12.388
 3174SOL     OW11418   4.776  10.559   7.374
 3174SOL    HW111419   4.749  10.494   7.438
 3174SOL    HW211420   4.709  10.628   7.381
 3175SOL     OW11421   5.767  13.079   7.938
 3175SOL    HW111422   5.708  13.014   7.975
 3175SOL    HW211423   5.854  13.041   7.948
 3176SOL     OW11424   7.908   0.617   9.461
 3176SOL    HW111425   7.897   0.562   9.384
 3176SOL    HW211426   7.991   0.663   9.446
 3177SOL     OW11427   2.396   6.433   8.598
 3177SOL    HW111428   2.489   6.428   8.576
 3177SOL    HW211429   2.361   6.347   8.574
 3178SOL     OW11430   4.266   0.817  10.658
 3178SOL    HW111431   4.294   0.735  10.700
 3178SOL    HW211432   4.300   0.886  10.715
 3179SOL     OW11433   6.180  14.880   6.075
 3179SOL    HW111434   6.121   0.072   6.060
 3179SOL    HW211435   6.246   0.006   6.007
 3180SOL     OW11436   7.630  14.237   8.059
 3180SOL    HW111437   7.609  14.317   8.107
 3180SOL    HW211438   7.651  14.173   8.127
 3181SOL     OW11439  14.432  11.749   5.187
 3181SOL    HW111440  14.417  11.659   5.214
 3181SOL    HW211441  14.525  11.765   5.206
 3182SOL     OW11442  12.082  13.446   7.517
 3182SOL    HW111443  12.105  13.407   7.601
 3182SOL    HW211444  12.021  13.384   7.477
 3183SOL     OW11445  11.344  14.563   0.756
 3183SOL    HW111446  11.308  14.474   0.749
 3183SOL    HW211447  11.436  14.550   0.775
 3184SOL     OW11448   9.554   6.419   5.122
 3184SOL    HW111449   9.633   6.368   5.136
 3184SOL    HW211450   9.501   6.403   5.200
 3185SOL     OW11451  13.402  11.346  13.560
 3185SOL    HW111452  13.455  11.416  13.598
 3185SOL    HW211453  13.447  11.324  13.478
 3186SOL     OW11454   5.123  10.192  12.808
 3186SOL    HW111455   5.034  10.168  12.832
 3186SOL    HW211456   5.178  10.127  12.853
 3187SOL     OW11457   8.221   3.278   3.420
 3187SOL    HW111458   8.181   3.221   3.486
 3187SOL    HW211459   8.313   3.254   3.419
 3188SOL     OW11460   7.187   1.799   1.810
 3188SOL    HW111461   7.131   1.722   1.803
 3188SOL    HW211462   7.203   1.809   1.904
 3189SOL     OW11463  14.508   4.643   9.288
 3189SOL    HW111464  14.589   4.600   9.261
 3189SOL    HW211465  14.466   4.668   9.206
 3190SOL     OW11466  14.256   7.264   1.067
 3190SOL    HW111467  14.273   7.184   1.017
 3190SOL    HW211468  14.342   7.296   1.091
 3191SOL     OW11469   5.817   0.249   9.499
 3191SOL    HW111470   5.861   0.247   9.585
 3191SOL    HW211471   5.889   0.258   9.436
 3192SOL     OW11472  12.708  12.824   6.768
 3192SOL    HW111473  12.620  12.846   6.800
 3192SOL    HW211474  12.693  12.756   6.701
 3193SOL     OW11475   1.759  11.366  14.369
 3193SOL    HW111476   1.708  11.323  14.300
 3193SOL    HW211477   1.775  11.298  14.434
 3194SOL     OW11478  14.703   0.688   6.455
 3194SOL    HW111479  14.695   0.756   6.388
 3194SOL    HW211480  14.783   0.641   6.431
 3195SOL     OW11481  11.670   4.919   2.852
 3195SOL    HW111482  11.673   5.011   2.823
 3195SOL    HW211483  11.746   4.910   2.910
 3196SOL     OW11484   4.322  10.034  12.092
 3196SOL    HW111485   4.280   9.949  12.078
 3196SOL    HW211486   4.402  10.030  12.040
 3197SOL     OW11487   3.262   7.045  11.972
 3197SOL    HW111488   3.254   6.982  11.900
 3197SOL    HW211489   3.190   7.106  11.959
 3198SOL     OW11490   8.240  12.529   5.306
 3198SOL    HW111491   8.239  12.436   5.327
 3198SOL    HW211492   8.148  12.556   5.313
 3199SOL     OW11493   5.710  10.367  11.548
 3199SOL    HW111494   5.753  10.282  11.541
 3199SOL    HW211495   5.677  10.370  11.638
 3200SOL     OW11496  11.933  14.587   8.181
 3200SOL    HW111497  11.873  14.513   8.170
 3200SOL    HW211498  12.020  14.547   8.184
 3201SOL     OW11499   6.045   5.529   6.756
 3201SOL    HW111500   5.970   5.550   6.811
 3201SOL    HW211501   6.080   5.614   6.730
 3202SOL     OW11502   1.485  12.021   9.052
 3202SOL    HW111503   1.434  12.041   9.130
 3202SOL    HW211504   1.432  11.956   9.005
 3203SOL     OW11505  11.761  14.297  13.675
 3203SOL    HW111506  11.712  14.284  13.593
 3203SOL    HW211507  11.851  14.270  13.653
 3204SOL     OW11508   7.748   3.876  14.319
 3204SOL    HW111509   7.668   3.899  14.271
 3204SOL    HW211510   7.817   3.880  14.253
 3205SOL     OW11511   5.196   9.041   2.006
 3205SOL    HW111512   5.291   9.046   1.999
 3205SOL    HW211513   5.165   9.128   1.977
 3206SOL     OW11514  11.728   2.647   8.470
 3206SOL    HW111515  11.650   2.703   8.461
 3206SOL    HW211516  11.776   2.660   8.389
 3207SOL     OW11517  13.224   5.033  13.417
 3207SOL    HW111518  13.131   5.044  13.436
 3207SOL    HW211519  13.262   5.119  13.430
 3208SOL     OW11520  13.486  12.413   5.604
 3208SOL    HW111521  13.534  12.456   5.533
 3208SOL    HW211522  13.394  12.438   5.589
 3209SOL     OW11523   4.305   7.002  12.484
 3209SOL    HW111524   4.289   6.927  12.427
 3209SOL    HW211525   4.398   7.019  12.476
 3210SOL     OW11526   4.986   5.706  11.533
 3210SOL    HW111527   5.038   5.778  11.496
 3210SOL    HW211528   4.973   5.646  11.460
 3211SOL     OW11529   9.847   8.927   5.469
 3211SOL    HW111530   9.876   8.872   5.541
 3211SOL    HW211531   9.870   9.016   5.495
 3212SOL     OW11532   7.459  14.850   7.532
 3212SOL    HW111533   7.366  14.865   7.519
 3212SOL    HW211534   7.467  14.831   7.626
 3213SOL     OW11535   2.841   4.731   6.587
 3213SOL    HW111536   2.935   4.720   6.595
 3213SOL    HW211537   2.804   4.652   6.627
 3214SOL     OW11538   0.699   7.529  13.115
 3214SOL    HW111539   0.641   7.601  13.091
 3214SOL    HW211540   0.751   7.513  13.036
 3215SOL     OW11541  14.764  10.949  13.801
 3215SOL    HW111542  14.801  10.962  13.888
 3215SOL    HW211543  14.672  10.973  13.809
 3216SOL     OW11544  10.388   7.609  14.664
 3216SOL    HW111545  10.426   7.580  14.581
 3216SOL    HW211546  10.302   7.568  14.667
 3217SOL     OW11547   2.787   8.958  13.183
 3217SOL    HW111548   2.807   9.021  13.113
 3217SOL    HW211549   2.870   8.946  13.229
 3218SOL     OW11550   5.491   7.382   2.964
 3218SOL    HW111551   5.432   7.308   2.975
 3218SOL    HW211552   5.561   7.348   2.909
 3219SOL     OW11553  12.911   5.489   8.374
 3219SOL    HW111554  12.973   5.562   8.373
 3219SOL    HW211555  12.961   5.414   8.341
 3220SOL     OW11556   6.965  13.166   0.350
 3220SOL    HW111557   6.887  13.172   0.294
 3220SOL    HW211558   6.935  13.195   0.436
 3221SOL     OW11559   8.891   3.425   6.990
 3221SOL    HW111560   8.855   3.508   6.958
 3221SOL    HW211561   8.892   3.434   7.085
 3222SOL     OW11562  10.341   7.661  11.735
 3222SOL    HW111563  10.302   7.705  11.811
 3222SOL    HW211564  10.356   7.571  11.765
 3223SOL     OW11565  11.817  13.645   5.206
 3223SOL    HW111566  11.818  13.563   5.157
 3223SOL    HW211567  11.778  13.708   5.145
 3224SOL     OW11568   8.471   7.361   6.603
 3224SOL    HW111569   8.481   7.440   6.656
 3224SOL    HW211570   8.438   7.295   6.664
 3225SOL     OW11571   8.436   1.564   9.663
 3225SOL    HW111572   8.517   1.614   9.674
 3225SOL    HW211573   8.366   1.628   9.673
 3226SOL     OW11574   3.855  11.454   1.564
 3226SOL    HW111575   3.929  11.431   1.507
 3226SOL    HW211576   3.834  11.544   1.541
 3227SOL     OW11577  14.133   6.250  11.343
 3227SOL    HW111578  14.111   6.270  11.434
 3227SOL    HW211579  14.084   6.170  11.323
 3228SOL     OW11580   3.142  11.354  14.463
 3228SOL    HW111581   3.214  11.347  14.400
 3228SOL    HW211582   3.139  11.448  14.484
 3229SOL     OW11583   1.727   3.029  12.272
 3229SOL    HW111584   1.691   3.110  12.236
 3229SOL    HW211585   1.808   3.015  12.223
 3230SOL     OW11586  14.369  10.125   6.413
 3230SOL    HW111587  14.390  10.051   6.470
 3230SOL    HW211588  14.322  10.086   6.339
 3231SOL     OW11589   9.728   7.379   5.885
 3231SOL    HW111590   9.664   7.382   5.814
 3231SOL    HW211591   9.795   7.442   5.860
 3232SOL     OW11592   9.554   4.556  12.672
 3232SOL    HW111593   9.595   4.493  12.731
 3232SOL    HW211594   9.568   4.641  12.714
 3233SOL     OW11595  14.374  10.731   7.278
 3233SOL    HW111596  14.306  10.797   7.267
 3233SOL    HW211597  14.332  10.662   7.330
 3234SOL     OW11598  11.503   8.428   0.314
 3234SOL    HW111599  11.553   8.427   0.233
 3234SOL    HW211600  11.545   8.496   0.367
 3235SOL     OW11601   5.598   6.828   9.530
 3235SOL    HW111602   5.559   6.744   9.556
 3235SOL    HW211603   5.693   6.811   9.533
 3236SOL     OW11604   9.706   1.840  14.307
 3236SOL    HW111605   9.762   1.817  14.382
 3236SOL    HW211606   9.679   1.930  14.325
 3237SOL     OW11607  13.424   1.533  12.617
 3237SOL    HW111608  13.411   1.438  12.615
 3237SOL    HW211609  13.354   1.568  12.562
 3238SOL     OW11610   9.681  14.608   8.673
 3238SOL    HW111611   9.652  14.626   8.762
 3238SOL    HW211612   9.621  14.540   8.641
 3239SOL     OW11613   5.680   7.865   4.169
 3239SOL    HW111614   5.622   7.909   4.106
 3239SOL    HW211615   5.759   7.845   4.119
 3240SOL     OW11616   4.156   0.390  12.554
 3240SOL    HW111617   4.156   0.296  12.574
 3240SOL    HW211618   4.077   0.402  12.501
 3241SOL     OW11619   0.542   2.263   8.452
 3241SOL    HW111620   0.495   2.299   8.377
 3241SOL    HW211621   0.592   2.189   8.417
 3242SOL     OW11622   8.704  12.689  11.421
 3242SOL    HW111623   8.649  12.634  11.365
 3242SOL    HW211624   8.718  12.637  11.500
 3243SOL     OW11625  14.202  10.275   9.460
 3243SOL    HW111626  14.196  10.181   9.478
 3243SOL    HW211627  14.139  10.314   9.521
 3244SOL     OW11628   3.369  12.013   7.592
 3244SOL    HW111629   3.371  12.014   7.497
 3244SOL    HW211630   3.322  12.093   7.617
 3245SOL     OW11631   1.520   6.647   5.019
 3245SOL    HW111632   1.442   6.660   4.965
 3245SOL    HW211633   1.593   6.654   4.956
 3246SOL     OW11634   1.915   8.900  13.742
 3246SOL    HW111635   1.945   8.897  13.833
 3246SOL    HW211636   1.993   8.922  13.691
 3247SOL     OW11637  13.673   3.337   5.603
 3247SOL    HW111638  13.667   3.243   5.622
 3247SOL    HW211639  13.582   3.366   5.594
 3248SOL     OW11640   9.367   4.418  12.155
 3248SOL    HW111641   9.271   4.408  12.157
 3248SOL    HW211642   9.382   4.511  12.142
 3249SOL     OW11643   6.113   2.585   8.680
 3249SOL    HW111644   6.143   2.519   8.743
 3249SOL    HW211645   6.192   2.610   8.633
 3250SOL     OW11646  13.836   7.694   4.077
 3250SOL    HW111647  13.820   7.770   4.021
 3250SOL    HW211648  13.843   7.731   4.165
 3251SOL     OW11649  10.283  10.697  10.941
 3251SOL    HW111650  10.372  10.732  10.947
 3251SOL    HW211651  10.248  10.707  11.030
 3252SOL     OW11652  10.817   0.012   6.288
 3252SOL    HW111653  10.862   0.011   6.373
 3252SOL    HW211654  10.870   0.070   6.234
 3253SOL     OW11655   7.796  10.251   7.651
 3253SOL    HW111656   7.852  10.323   7.623
 3253SOL    HW211657   7.738  10.236   7.576
 3254SOL     OW11658   3.250   3.804   3.719
 3254SOL    HW111659   3.251   3.746   3.642
 3254SOL    HW211660   3.270   3.746   3.792
 3255SOL     OW11661   8.851   5.699  11.245
 3255SOL    HW111662   8.844   5.792  11.268
 3255SOL    HW211663   8.809   5.653  11.317
 3256SOL     OW11664   7.382  12.037   2.110
 3256SOL    HW111665   7.400  11.993   2.027
 3256SOL    HW211666   7.320  11.978   2.155
 3257SOL     OW11667  12.005   9.837   7.765
 3257SOL    HW111668  11.941   9.804   7.827
 3257SOL    HW211669  11.961   9.910   7.721
 3258SOL     OW11670  13.758  11.650  10.667
 3258SOL    HW111671  13.834  11.644  10.609
 3258SOL    HW211672  13.705  11.720  10.630
 3259SOL     OW11673  10.716  13.785  10.957
 3259SOL    HW111674  10.762  13.739  11.028
 3259SOL    HW211675  10.673  13.715  10.908
 3260SOL     OW11676   3.918  12.513   3.730
 3260SOL    HW111677   3.940  12.599   3.695
 3260SOL    HW211678   3.995  12.486   3.779
 3261SOL     OW11679  12.124   1.715   7.341
 3261SOL    HW111680  12.090   1.626   7.339
 3261SOL    HW211681  12.175   1.720   7.422
 3262SOL     OW11682   6.816  13.453   0.229
 3262SOL    HW111683   6.789  13.476   0.140
 3262SOL    HW211684   6.753  13.387   0.257
 3263SOL     OW11685   4.504   3.720   1.048
 3263SOL    HW111686   4.479   3.716   0.955
 3263SOL    HW211687   4.586   3.671   1.052
 3264SOL     OW11688  14.468  13.167   2.323
 3264SOL    HW111689  14.545  13.197   2.274
 3264SOL    HW211690  14.394  13.189   2.265
 3265SOL     OW11691   3.327   4.142   3.268
 3265SOL    HW111692   3.346   4.064   3.321
 3265SOL    HW211693   3.274   4.197   3.326
 3266SOL     OW11694  10.278  13.609   8.357
 3266SOL    HW111695  10.187  13.638   8.364
 3266SOL    HW211696  10.277  13.518   8.387
 3267SOL     OW11697  11.458  12.235  10.402
 3267SOL    HW111698  11.467  12.323  10.366
 3267SOL    HW211699  11.374  12.204  10.369
 3268SOL     OW11700   7.363   9.089   3.076
 3268SOL    HW111701   7.418   9.138   3.015
 3268SOL    HW211702   7.364   9.000   3.043
 3269SOL     OW11703  10.106   7.981   9.488
 3269SOL    HW111704  10.130   7.888   9.486
 3269SOL    HW211705  10.041   7.987   9.558
 3270SOL     OW11706   9.742  13.691   8.866
 3270SOL    HW111707   9.774  13.658   8.950
 3270SOL    HW211708   9.647  13.684   8.872
 3271SOL     OW11709  14.353   2.083   6.376
 3271SOL    HW111710  14.301   2.051   6.450
 3271SOL    HW211711  14.400   2.005   6.345
 3272SOL     OW11712   1.705   6.487   6.901
 3272SOL    HW111713   1.715   6.567   6.850
 3272SOL    HW211714   1.648   6.512   6.974
 3273SOL     OW11715  11.736   8.139  11.787
 3273SOL    HW111716  11.795   8.108  11.856
 3273SOL    HW211717  11.741   8.072  11.719
 3274SOL     OW11718   5.875   9.598   2.899
 3274SOL    HW111719   5.785   9.584   2.869
 3274SOL    HW211720   5.873   9.573   2.992
 3275SOL     OW11721  14.632   3.431  11.348
 3275SOL    HW111722  14.689   3.359  11.322
 3275SOL    HW211723  14.635   3.431  11.444
 3276SOL     OW11724   4.973   0.725   2.615
 3276SOL    HW111725   4.904   0.785   2.644
 3276SOL    HW211726   5.055   0.773   2.628
 3277SOL     OW11727   4.398   3.106   2.109
 3277SOL    HW111728   4.372   3.187   2.064
 3277SOL    HW211729   4.362   3.115   2.197
 3278SOL     OW11730   0.705  13.232  10.234
 3278SOL    HW111731   0.689  13.322  10.262
 3278SOL    HW211732   0.797  13.231  10.208
 3279SOL     OW11733  11.633   4.200   5.111
 3279SOL    HW111734  11.620   4.280   5.162
 3279SOL    HW211735  11.654   4.133   5.176
 3280SOL     OW11736   9.155  12.517   4.654
 3280SOL    HW111737   9.143  12.429   4.689
 3280SOL    HW211738   9.066  12.554   4.652
 3281SOL     OW11739   7.223  11.078   2.256
 3281SOL    HW111740   7.171  11.094   2.176
 3281SOL    HW211741   7.200  11.150   2.314
 3282SOL     OW11742  11.027  13.186   0.410
 3282SOL    HW111743  11.018  13.281   0.405
 3282SOL    HW211744  10.961  13.152   0.351
 3283SOL     OW11745   3.207   7.929   4.262
 3283SOL    HW111746   3.192   7.960   4.352
 3283SOL    HW211747   3.218   7.835   4.270
 3284SOL     OW11748   1.383  14.149  10.834
 3284SOL    HW111749   1.294  14.184  10.834
 3284SOL    HW211750   1.376  14.066  10.787
 3285SOL     OW11751  11.748   4.938   9.796
 3285SOL    HW111752  11.695   4.937   9.876
 3285SOL    HW211753  11.838   4.943   9.827
 3286SOL     OW11754   6.917   4.522  12.024
 3286SOL    HW111755   6.897   4.531  12.117
 3286SOL    HW211756   6.957   4.435  12.016
 3287SOL     OW11757   6.396   6.624   2.296
 3287SOL    HW111758   6.443   6.627   2.380
 3287SOL    HW211759   6.369   6.715   2.281
 3288SOL     OW11760   2.910   6.083   4.088
 3288SOL    HW111761   2.927   5.994   4.059
 3288SOL    HW211762   2.815   6.089   4.096
 3289SOL     OW11763   4.981  14.660   9.192
 3289SOL    HW111764   4.908  14.660   9.129
 3289SOL    HW211765   4.940  14.639   9.276
 3290SOL     OW11766   9.304   6.398   6.374
 3290SOL    HW111767   9.227   6.417   6.320
 3290SOL    HW211768   9.288   6.310   6.410
 3291SOL     OW11769   7.967   1.005   9.536
 3291SOL    HW111770   8.037   1.068   9.555
 3291SOL    HW211771   7.907   1.013   9.611
 3292SOL     OW11772  13.101   7.235   6.229
 3292SOL    HW111773  13.185   7.252   6.187
 3292SOL    HW211774  13.123   7.212   6.319
 3293SOL     OW11775  14.847   9.166  14.292
 3293SOL    HW111776  14.760   9.180  14.255
 3293SOL    HW211777   0.010   9.111  14.227
 3294SOL     OW11778  11.533   8.793  14.237
 3294SOL    HW111779  11.512   8.760  14.325
 3294SOL    HW211780  11.626   8.776  14.227
 3295SOL     OW11781  14.107  11.487   9.446
 3295SOL    HW111782  14.113  11.556   9.380
 3295SOL    HW211783  14.159  11.519   9.519
 3296SOL     OW11784   1.100   4.604  13.225
 3296SOL    HW111785   1.181   4.564  13.194
 3296SOL    HW211786   1.067   4.543  13.291
 3297SOL     OW11787  11.814   8.784   2.449
 3297SOL    HW111788  11.822   8.873   2.482
 3297SOL    HW211789  11.730   8.782   2.403
 3298SOL     OW11790  11.067   5.999   9.309
 3298SOL    HW111791  11.097   6.075   9.359
 3298SOL    HW211792  10.983   5.976   9.349
 3299SOL     OW11793   0.105  11.665  12.266
 3299SOL    HW111794   0.133  11.587  12.314
 3299SOL    HW211795   0.157  11.736  12.305
 3300SOL     OW11796   7.708   8.221  14.644
 3300SOL    HW111797   7.671   8.138  14.613
 3300SOL    HW211798   7.767   8.249  14.575
 3301SOL     OW11799   1.215   4.930   4.351
 3301SOL    HW111800   1.208   4.877   4.430
 3301SOL    HW211801   1.141   4.991   4.356
 3302SOL     OW11802   5.893  13.430   4.381
 3302SOL    HW111803   5.878  13.402   4.290
 3302SOL    HW211804   5.908  13.524   4.375
 3303SOL     OW11805   1.461  10.052   5.480
 3303SOL    HW111806   1.469  10.148   5.473
 3303SOL    HW211807   1.417  10.026   5.399
 3304SOL     OW11808   8.899  10.203  12.761
 3304SOL    HW111809   8.895  10.117  12.720
 3304SOL    HW211810   8.931  10.186  12.850
 3305SOL     OW11811  13.564  13.425  14.118
 3305SOL    HW111812  13.525  13.489  14.177
 3305SOL    HW211813  13.612  13.365  14.175
 3306SOL     OW11814  12.370   4.343  12.071
 3306SOL    HW111815  12.312   4.310  12.001
 3306SOL    HW211816  12.324   4.420  12.105
 3307SOL     OW11817  14.842   5.725   5.260
 3307SOL    HW111818   0.008   5.798   5.220
 3307SOL    HW211819  14.771   5.706   5.199
 3308SOL     OW11820   8.335  11.240  11.726
 3308SOL    HW111821   8.254  11.259  11.679
 3308SOL    HW211822   8.402  11.290  11.679
 3309SOL     OW11823   8.589   0.757   2.878
 3309SOL    HW111824   8.592   0.852   2.868
 3309SOL    HW211825   8.511   0.730   2.831
 3310SOL     OW11826  14.597   3.477   9.413
 3310SOL    HW111827  14.535   3.450   9.481
 3310SOL    HW211828  14.566   3.433   9.334
 3311SOL     OW11829  13.875   6.417   8.707
 3311SOL    HW111830  13.802   6.419   8.769
 3311SOL    HW211831  13.871   6.500   8.661
 3312SOL     OW11832  12.756  10.576  11.491
 3312SOL    HW111833  12.768  10.669  11.470
 3312SOL    HW211834  12.799  10.565  11.576
 3313SOL     OW11835   1.168   8.451   1.590
 3313SOL    HW111836   1.116   8.459   1.509
 3313SOL    HW211837   1.195   8.540   1.610
 3314SOL     OW11838   1.532   1.649  14.729
 3314SOL    HW111839   1.624   1.623  14.729
 3314SOL    HW211840   1.533   1.742  14.707
 3315SOL     OW11841   2.368   8.080   6.168
 3315SOL    HW111842   2.343   8.130   6.246
 3315SOL    HW211843   2.462   8.095   6.159
 3316SOL     OW11844  12.418   4.176   9.058
 3316SOL    HW111845  12.473   4.252   9.078
 3316SOL    HW211846  12.330   4.203   9.085
 3317SOL     OW11847   4.226   9.536   2.296
 3317SOL    HW111848   4.192   9.546   2.385
 3317SOL    HW211849   4.291   9.466   2.303
 3318SOL     OW11850   7.472   8.967   3.634
 3318SOL    HW111851   7.435   9.016   3.708
 3318SOL    HW211852   7.398   8.949   3.577
 3319SOL     OW11853   1.675   9.310   1.285
 3319SOL    HW111854   1.732   9.385   1.299
 3319SOL    HW211855   1.688   9.286   1.193
 3320SOL     OW11856   1.025   5.481   5.796
 3320SOL    HW111857   0.951   5.471   5.737
 3320SOL    HW211858   1.018   5.570   5.829
 3321SOL     OW11859   4.218   2.441   6.167
 3321SOL    HW111860   4.274   2.406   6.098
 3321SOL    HW211861   4.265   2.421   6.248
 3322SOL     OW11862  11.022  14.701  12.417
 3322SOL    HW111863  11.009  14.752  12.337
 3322SOL    HW211864  10.996  14.612  12.394
 3323SOL     OW11865   2.459   1.163  12.777
 3323SOL    HW111866   2.374   1.190  12.743
 3323SOL    HW211867   2.503   1.121  12.703
 3324SOL     OW11868   2.947  13.443  14.267
 3324SOL    HW111869   2.885  13.444  14.194
 3324SOL    HW211870   3.030  13.416  14.228
 3325SOL     OW11871  10.395  11.518   3.155
 3325SOL    HW111872  10.313  11.550   3.117
 3325SOL    HW211873  10.389  11.539   3.248
 3326SOL     OW11874  14.754   1.169  10.884
 3326SOL    HW111875  14.756   1.264  10.873
 3326SOL    HW211876  14.666   1.151  10.918
 3327SOL     OW11877   0.379   9.789   1.187
 3327SOL    HW111878   0.466   9.751   1.175
 3327SOL    HW211879   0.352   9.816   1.099
 3328SOL     OW11880  12.958   5.465  13.154
 3328SOL    HW111881  13.002   5.508  13.227
 3328SOL    HW211882  12.990   5.375  13.156
 3329SOL     OW11883   9.717   6.041   5.274
 3329SOL    HW111884   9.643   6.012   5.328
 3329SOL    HW211885   9.704   5.997   5.190
 3330SOL     OW11886   6.104  14.319   1.555
 3330SOL    HW111887   6.137  14.356   1.473
 3330SOL    HW211888   6.180  14.275   1.594
 3331SOL     OW11889   1.256   9.675   7.462
 3331SOL    HW111890   1.310   9.663   7.383
 3331SOL    HW211891   1.177   9.719   7.431
 3332SOL     OW11892   4.828   1.757  12.573
 3332SOL    HW111893   4.759   1.738  12.636
 3332SOL    HW211894   4.899   1.697  12.597
 3333SOL     OW11895  11.370   3.038  12.874
 3333SOL    HW111896  11.415   2.996  12.947
 3333SOL    HW211897  11.281   3.052  12.905
 3334SOL     OW11898  12.911   4.924  12.872
 3334SOL    HW111899  12.840   4.861  12.860
 3334SOL    HW211900  12.870   4.998  12.917
 3335SOL     OW11901  12.019   0.554  10.861
 3335SOL    HW111902  11.957   0.625  10.844
 3335SOL    HW211903  12.000   0.489  10.793
 3336SOL     OW11904   3.368  10.448  13.114
 3336SOL    HW111905   3.319  10.386  13.060
 3336SOL    HW211906   3.374  10.406  13.200
 3337SOL     OW11907   3.774   6.974  14.416
 3337SOL    HW111908   3.806   7.006  14.500
 3337SOL    HW211909   3.700   6.918  14.439
 3338SOL     OW11910   8.281   3.591  10.013
 3338SOL    HW111911   8.189   3.608  10.034
 3338SOL    HW211912   8.279   3.515   9.955
 3339SOL     OW11913  12.652  14.217   6.581
 3339SOL    HW111914  12.657  14.253   6.493
 3339SOL    HW211915  12.570  14.169   6.584
 3340SOL     OW11916   7.210  13.467   2.429
 3340SOL    HW111917   7.187  13.389   2.479
 3340SOL    HW211918   7.207  13.439   2.338
 3341SOL     OW11919   2.876   0.557   9.101
 3341SOL    HW111920   2.950   0.582   9.047
 3341SOL    HW211921   2.802   0.554   9.041
 3342SOL     OW11922   4.526   4.378  13.733
 3342SOL    HW111923   4.434   4.357  13.716
 3342SOL    HW211924   4.532   4.379  13.828
 3343SOL     OW11925  13.295   1.825   8.017
 3343SOL    HW111926  13.387   1.806   8.036
 3343SOL    HW211927  13.276   1.904   8.068
 3344SOL     OW11928   2.478   8.137   5.159
 3344SOL    HW111929   2.429   8.189   5.222
 3344SOL    HW211930   2.558   8.187   5.144
 3345SOL     OW11931   3.266   9.286  14.371
 3345SOL    HW111932   3.302   9.371  14.397
 3345SOL    HW211933   3.236   9.246  14.452
 3346SOL     OW11934  14.459   6.053  11.471
 3346SOL    HW111935  14.552   6.033  11.485
 3346SOL    HW211936  14.451   6.146  11.492
 3347SOL     OW11937  12.319  14.790   8.668
 3347SOL    HW111938  12.405  14.832   8.663
 3347SOL    HW211939  12.304  14.755   8.580
 3348SOL     OW11940   9.398   8.888  10.915
 3348SOL    HW111941   9.327   8.902  10.852
 3348SOL    HW211942   9.354   8.878  10.999
 3349SOL     OW11943   9.638   8.805   5.278
 3349SOL    HW111944   9.592   8.829   5.198
 3349SOL    HW211945   9.730   8.827   5.261
 3350SOL     OW11946  12.113   9.505   5.113
 3350SOL    HW111947  12.069   9.502   5.028
 3350SOL    HW211948  12.200   9.541   5.093
 3351SOL     OW11949   7.673   9.385  14.724
 3351SOL    HW111950   7.579   9.397  14.730
 3351SOL    HW211951   7.688   9.297  14.760
 3352SOL     OW11952   8.063   0.472   8.836
 3352SOL    HW111953   7.969   0.455   8.827
 3352SOL    HW211954   8.105   0.392   8.806
 3353SOL     OW11955   2.869   2.527   9.880
 3353SOL    HW111956   2.938   2.591   9.896
 3353SOL    HW211957   2.789   2.579   9.873
 3354SOL     OW11958  12.641   2.192   8.757
 3354SOL    HW111959  12.636   2.126   8.826
 3354SOL    HW211960  12.620   2.275   8.801
 3355SOL     OW11961   9.062   9.410  14.574
 3355SOL    HW111962   9.118   9.446  14.505
 3355SOL    HW211963   9.118   9.350  14.622
 3356SOL     OW11964  11.564   9.876   8.218
 3356SOL    HW111965  11.543   9.898   8.309
 3356SOL    HW211966  11.478   9.868   8.176
 3357SOL     OW11967   6.756   7.108  11.262
 3357SOL    HW111968   6.804   7.112  11.180
 3357SOL    HW211969   6.675   7.157  11.246
 3358SOL     OW11970   1.560  10.185  11.496
 3358SOL    HW111971   1.514  10.123  11.439
 3358SOL    HW211972   1.582  10.134  11.574
 3359SOL     OW11973  11.884   4.730   0.706
 3359SOL    HW111974  11.971   4.764   0.726
 3359SOL    HW211975  11.824   4.786   0.754
 3360SOL     OW11976  13.322  13.471   0.732
 3360SOL    HW111977  13.349  13.470   0.824
 3360SOL    HW211978  13.237  13.427   0.731
 3361SOL     OW11979   3.451   1.309   4.890
 3361SOL    HW111980   3.404   1.312   4.806
 3361SOL    HW211981   3.468   1.401   4.911
 3362SOL     OW11982   3.871   2.882   1.110
 3362SOL    HW111983   3.958   2.849   1.132
 3362SOL    HW211984   3.835   2.911   1.194
 3363SOL     OW11985   5.433   6.261   5.665
 3363SOL    HW111986   5.442   6.166   5.655
 3363SOL    HW211987   5.388   6.272   5.749
 3364SOL     OW11988   6.621  14.793  12.021
 3364SOL    HW111989   6.614  14.698  12.025
 3364SOL    HW211990   6.530  14.823  12.021
 3365SOL     OW11991  13.126  11.340   1.658
 3365SOL    HW111992  13.116  11.401   1.585
 3365SOL    HW211993  13.220  11.319   1.659
 3366SOL     OW11994   6.559  13.011   1.476
 3366SOL    HW111995   6.652  13.006   1.495
 3366SOL    HW211996   6.520  13.048   1.555
 3367SOL     OW11997  14.354   8.972   3.928
 3367SOL    HW111998  14.287   8.986   3.862
 3367SOL    HW211999  14.411   8.904   3.891
 3368SOL     OW12000  12.216   6.495  11.812
 3368SOL    HW112001  12.193   6.588  11.819
 3368SOL    HW212002  12.279   6.481  11.883
 3369SOL     OW12003  10.146   8.943   6.182
 3369SOL    HW112004  10.146   8.930   6.087
 3369SOL    HW212005  10.097   9.025   6.195
 3370SOL     OW12006   6.987   8.554  11.447
 3370SOL    HW112007   7.067   8.606  11.443
 3370SOL    HW212008   6.998   8.487  11.379
 3371SOL     OW12009   6.998   6.603  10.993
 3371SOL    HW112010   6.907   6.573  11.000
 3371SOL    HW212011   7.002   6.681  11.049
 3372SOL     OW12012  10.038   9.105  12.690
 3372SOL    HW112013  10.122   9.147  12.670
 3372SOL    HW212014   9.991   9.169  12.744
 3373SOL     OW12015   9.252  10.577   9.558
 3373SOL    HW112016   9.177  10.590   9.617
 3373SOL    HW212017   9.308  10.653   9.574
 3374SOL     OW12018   1.824  14.624  12.667
 3374SOL    HW112019   1.870  14.640  12.749
 3374SOL    HW212020   1.876  14.558  12.622
 3375SOL     OW12021   6.971  11.042   1.662
 3375SOL    HW112022   6.980  10.950   1.687
 3375SOL    HW212023   7.055  11.081   1.685
 3376SOL     OW12024   9.328   1.258   9.732
 3376SOL    HW112025   9.254   1.297   9.685
 3376SOL    HW212026   9.298   1.252   9.823
 3377SOL     OW12027  13.511  12.408   0.439
 3377SOL    HW112028  13.452  12.452   0.377
 3377SOL    HW212029  13.554  12.480   0.485
 3378SOL     OW12030  12.015  11.910   4.504
 3378SOL    HW112031  12.098  11.950   4.530
 3378SOL    HW212032  11.984  11.964   4.431
 3379SOL     OW12033   1.435  13.280   6.592
 3379SOL    HW112034   1.421  13.294   6.686
 3379SOL    HW212035   1.404  13.360   6.550
 3380SOL     OW12036   2.454  10.351  13.148
 3380SOL    HW112037   2.425  10.318  13.063
 3380SOL    HW212038   2.550  10.353  13.141
 3381SOL     OW12039   5.210  13.869   3.119
 3381SOL    HW112040   5.302  13.870   3.092
 3381SOL    HW212041   5.210  13.908   3.206
 3382SOL     OW12042  14.751  12.525   8.905
 3382SOL    HW112043  14.682  12.584   8.934
 3382SOL    HW212044  14.832  12.568   8.932
 3383SOL     OW12045   4.322  12.038   7.626
 3383SOL    HW112046   4.388  12.009   7.563
 3383SOL    HW212047   4.371  12.088   7.691
 3384SOL     OW12048   6.987  11.696  13.026
 3384SOL    HW112049   6.953  11.665  12.941
 3384SOL    HW212050   6.909  11.711  13.079
 3385SOL     OW12051   9.479   6.692   9.280
 3385SOL    HW112052   9.445   6.610   9.245
 3385SOL    HW212053   9.453   6.758   9.216
 3386SOL     OW12054   7.409   7.309  11.027
 3386SOL    HW112055   7.494   7.348  11.005
 3386SOL    HW212056   7.350   7.340  10.958
 3387SOL     OW12057   4.945  10.552   1.910
 3387SOL    HW112058   5.011  10.535   1.977
 3387SOL    HW212059   4.879  10.484   1.924
 3388SOL     OW12060   1.919   6.391   6.348
 3388SOL    HW112061   1.865   6.314   6.328
 3388SOL    HW212062   1.905   6.406   6.441
 3389SOL     OW12063   1.491  14.205   0.380
 3389SOL    HW112064   1.485  14.229   0.473
 3389SOL    HW212065   1.485  14.289   0.334
 3390SOL     OW12066   2.244   0.021   1.305
 3390SOL    HW112067   2.185   0.044   1.377
 3390SOL    HW212068   2.281  14.818   1.330
 3391SOL     OW12069   2.770   0.738  11.119
 3391SOL    HW112070   2.854   0.692  11.118
 3391SOL    HW212071   2.794   0.830  11.107
 3392SOL     OW12072   2.865  14.386  12.740
 3392SOL    HW112073   2.884  14.323  12.670
 3392SOL    HW212074   2.951  14.418  12.767
 3393SOL     OW12075   4.861   2.511  11.027
 3393SOL    HW112076   4.854   2.522  10.932
 3393SOL    HW212077   4.938   2.455  11.038
 3394SOL     OW12078   7.397   4.662   4.991
 3394SOL    HW112079   7.472   4.718   4.973
 3394SOL    HW212080   7.434   4.582   5.026
 3395SOL     OW12081   6.395   3.273   3.083
 3395SOL    HW112082   6.468   3.221   3.116
 3395SOL    HW212083   6.324   3.210   3.070
 3396SOL     OW12084   7.442   2.827  10.215
 3396SOL    HW112085   7.533   2.827  10.183
 3396SOL    HW212086   7.449   2.795  10.305
 3397SOL     OW12087   6.508   9.221   3.492
 3397SOL    HW112088   6.471   9.176   3.416
 3397SOL    HW212089   6.454   9.299   3.503
 3398SOL     OW12090   1.393  10.387  14.377
 3398SOL    HW112091   1.439  10.336  14.443
 3398SOL    HW212092   1.451  10.462  14.362
 3399SOL     OW12093   5.826   1.888  10.766
 3399SOL    HW112094   5.841   1.819  10.831
 3399SOL    HW212095   5.895   1.875  10.701
 3400SOL     OW12096  14.295  13.655   8.621
 3400SOL    HW112097  14.202  13.673   8.607
 3400SOL    HW212098  14.302  13.560   8.614
 3401SOL     OW12099   6.348  13.866   0.354
 3401SOL    HW112100   6.307  13.928   0.415
 3401SOL    HW212101   6.314  13.781   0.381
 3402SOL     OW12102  10.510   6.720   7.721
 3402SOL    HW112103  10.456   6.796   7.743
 3402SOL    HW212104  10.461   6.645   7.753
 3403SOL     OW12105  10.016   7.924   7.479
 3403SOL    HW112106  10.083   7.966   7.533
 3403SOL    HW212107  10.030   7.830   7.492
 3404SOL     OW12108   5.868  10.992   6.883
 3404SOL    HW112109   5.890  10.920   6.824
 3404SOL    HW212110   5.950  11.011   6.928
 3405SOL     OW12111  10.994   0.501  10.809
 3405SOL    HW112112  11.020   0.486  10.718
 3405SOL    HW212113  11.073   0.483  10.860
 3406SOL     OW12114   8.965   1.509   9.322
 3406SOL    HW112115   8.925   1.510   9.235
 3406SOL    HW212116   8.898   1.472   9.379
 3407SOL     OW12117  14.676   1.637  10.121
 3407SOL    HW112118  14.669   1.677  10.034
 3407SOL    HW212119  14.734   1.695  10.169
 3408SOL     OW12120  12.893  14.712   2.715
 3408SOL    HW112121  12.817  14.736   2.768
 3408SOL    HW212122  12.856  14.669   2.638
 3409SOL     OW12123   2.425   0.730  14.148
 3409SOL    HW112124   2.513   0.762  14.170
 3409SOL    HW212125   2.426   0.638  14.176
 3410SOL     OW12126   5.635   4.079   8.277
 3410SOL    HW112127   5.591   4.013   8.330
 3410SOL    HW212128   5.720   4.039   8.254
 3411SOL     OW12129   5.750  11.164  10.641
 3411SOL    HW112130   5.780  11.107  10.570
 3411SOL    HW212131   5.745  11.107  10.717
 3412SOL     OW12132   0.818   2.285   0.679
 3412SOL    HW112133   0.790   2.194   0.676
 3412SOL    HW212134   0.884   2.292   0.610
 3413SOL     OW12135  12.732  14.673   5.119
 3413SOL    HW112136  12.760  14.717   5.199
 3413SOL    HW212137  12.813  14.661   5.069
 3414SOL     OW12138   1.199  11.296   7.693
 3414SOL    HW112139   1.110  11.314   7.662
 3414SOL    HW212140   1.253  11.297   7.614
 3415SOL     OW12141  12.167   9.252  12.771
 3415SOL    HW112142  12.259   9.257  12.796
 3415SOL    HW212143  12.131   9.181  12.825
 3416SOL     OW12144   3.818   6.639   3.609
 3416SOL    HW112145   3.751   6.707   3.622
 3416SOL    HW212146   3.845   6.615   3.697
 3417SOL     OW12147  10.168  13.647  13.336
 3417SOL    HW112148  10.224  13.723  13.346
 3417SOL    HW212149  10.088  13.681  13.298
 3418SOL     OW12150   8.320  11.128   0.313
 3418SOL    HW112151   8.302  11.133   0.407
 3418SOL    HW212152   8.358  11.041   0.300
 3419SOL     OW12153   2.648  11.824   6.214
 3419SOL    HW112154   2.730  11.872   6.227
 3419SOL    HW212155   2.674  11.733   6.204
 3420SOL     OW12156   4.379   0.908  13.749
 3420SOL    HW112157   4.469   0.877  13.756
 3420SOL    HW212158   4.326   0.832  13.768
 3421SOL     OW12159   4.631   3.529  13.539
 3421SOL    HW112160   4.697   3.561  13.478
 3421SOL    HW212161   4.596   3.450  13.499
 3422SOL     OW12162   5.869   2.610   2.460
 3422SOL    HW112163   5.773   2.605   2.455
 3422SOL    HW212164   5.899   2.535   2.409
 3423SOL     OW12165   3.930  14.063   2.689
 3423SOL    HW112166   4.023  14.087   2.695
 3423SOL    HW212167   3.920  13.990   2.750
 3424SOL     OW12168   9.112  12.836  11.916
 3424SOL    HW112169   9.075  12.909  11.965
 3424SOL    HW212170   9.128  12.768  11.982
 3425SOL     OW12171   1.326   3.108   1.760
 3425SOL    HW112172   1.278   3.159   1.826
 3425SOL    HW212173   1.286   3.021   1.764
 3426SOL     OW12174   1.535   0.073  10.800
 3426SOL    HW112175   1.618   0.110  10.772
 3426SOL    HW212176   1.557  14.868  10.832
 3427SOL     OW12177   5.811  13.485   1.381
 3427SOL    HW112178   5.736  13.544   1.390
 3427SOL    HW212179   5.884  13.531   1.423
 3428SOL     OW12180   6.720   1.073   2.482
 3428SOL    HW112181   6.789   1.011   2.502
 3428SOL    HW212182   6.701   1.059   2.389
 3429SOL     OW12183   0.392   1.938   2.343
 3429SOL    HW112184   0.440   2.021   2.343
 3429SOL    HW212185   0.440   1.883   2.405
 3430SOL     OW12186   6.597   0.850  10.581
 3430SOL    HW112187   6.541   0.780  10.613
 3430SOL    HW212188   6.540   0.904  10.526
 3431SOL     OW12189   3.242  10.234   7.853
 3431SOL    HW112190   3.295  10.287   7.912
 3431SOL    HW212191   3.261  10.144   7.879
 3432SOL     OW12192  14.607  14.597  11.877
 3432SOL    HW112193  14.641  14.591  11.966
 3432SOL    HW212194  14.531  14.654  11.884
 3433SOL     OW12195   3.431  10.687   2.466
 3433SOL    HW112196   3.462  10.699   2.376
 3433SOL    HW212197   3.368  10.615   2.461
 3434SOL     OW12198  12.472  14.268   5.898
 3434SOL    HW112199  12.381  14.251   5.920
 3434SOL    HW212200  12.475  14.267   5.803
 3435SOL     OW12201   1.415   2.267   2.640
 3435SOL    HW112202   1.434   2.243   2.730
 3435SOL    HW212203   1.359   2.344   2.647
 3436SOL     OW12204  14.006   7.012   2.539
 3436SOL    HW112205  13.970   7.092   2.503
 3436SOL    HW212206  13.951   6.942   2.503
 3437SOL     OW12207   4.392   1.599   0.872
 3437SOL    HW112208   4.444   1.600   0.792
 3437SOL    HW212209   4.302   1.610   0.842
 3438SOL     OW12210  13.003   6.108   8.926
 3438SOL    HW112211  13.097   6.121   8.923
 3438SOL    HW212212  12.977   6.141   9.012
 3439SOL     OW12213   6.511  10.297   8.552
 3439SOL    HW112214   6.440  10.248   8.594
 3439SOL    HW212215   6.515  10.262   8.463
 3440SOL     OW12216   3.588   8.543  11.904
 3440SOL    HW112217   3.567   8.450  11.905
 3440SOL    HW212218   3.576   8.570  11.812
 3441SOL     OW12219  11.911   9.256  12.644
 3441SOL    HW112220  11.989   9.272  12.697
 3441SOL    HW212221  11.840   9.249  12.707
 3442SOL     OW12222   4.169   5.929   9.779
 3442SOL    HW112223   4.166   5.853   9.720
 3442SOL    HW212224   4.078   5.958   9.785
 3443SOL     OW12225   9.314   9.294   1.987
 3443SOL    HW112226   9.386   9.301   1.924
 3443SOL    HW212227   9.254   9.364   1.963
 3444SOL     OW12228   6.918  12.550   4.237
 3444SOL    HW112229   6.952  12.484   4.177
 3444SOL    HW212230   6.862  12.502   4.298
 3445SOL     OW12231  12.881  13.165   7.964
 3445SOL    HW112232  12.853  13.077   7.940
 3445SOL    HW212233  12.944  13.152   8.035
 3446SOL     OW12234  10.034  14.211   9.015
 3446SOL    HW112235  10.112  14.236   8.966
 3446SOL    HW212236   9.972  14.182   8.949
 3447SOL     OW12237   5.474   1.399   6.142
 3447SOL    HW112238   5.428   1.457   6.081
 3447SOL    HW212239   5.502   1.325   6.088
 3448SOL     OW12240   1.645   2.255  10.392
 3448SOL    HW112241   1.672   2.346  10.403
 3448SOL    HW212242   1.555   2.260  10.358
 3449SOL     OW12243   9.936   6.891  11.454
 3449SOL    HW112244   9.951   6.850  11.369
 3449SOL    HW212245   9.934   6.818  11.516
 3450SOL     OW12246   5.561   9.836   0.300
 3450SOL    HW112247   5.546   9.742   0.289
 3450SOL    HW212248   5.638   9.854   0.246
 3451SOL     OW12249   2.512  12.275  10.571
 3451SOL    HW112250   2.484  12.199  10.622
 3451SOL    HW212251   2.608  12.277  10.580
 3452SOL     OW12252   4.648   9.414   0.120
 3452SOL    HW112253   4.723   9.474   0.117
 3452SOL    HW212254   4.666   9.350   0.051
 3453SOL     OW12255   3.923   6.877  10.202
 3453SOL    HW112256   3.999   6.930  10.227
 3453SOL    HW212257   3.851   6.940  10.196
 3454SOL     OW12258   7.426  11.376   5.669
 3454SOL    HW112259   7.482  11.424   5.608
 3454SOL    HW212260   7.486  11.348   5.739
 3455SOL     OW12261  12.638   2.862   4.581
 3455SOL    HW112262  12.660   2.873   4.673
 3455SOL    HW212263  12.644   2.768   4.565
 3456SOL     OW12264   2.358   9.594  10.891
 3456SOL    HW112265   2.385   9.638  10.810
 3456SOL    HW212266   2.293   9.530  10.862
 3457SOL     OW12267   7.317  10.581  14.514
 3457SOL    HW112268   7.402  10.613  14.484
 3457SOL    HW212269   7.280  10.655  14.564
 3458SOL     OW12270   7.197   0.512  12.861
 3458SOL    HW112271   7.288   0.484  12.872
 3458SOL    HW212272   7.164   0.521  12.950
 3459SOL     OW12273   2.938   7.704   0.850
 3459SOL    HW112274   2.978   7.750   0.776
 3459SOL    HW212275   2.874   7.767   0.885
 3460SOL     OW12276  12.602   2.393  11.712
 3460SOL    HW112277  12.646   2.334  11.773
 3460SOL    HW212278  12.618   2.480  11.747
 3461SOL     OW12279   0.280  14.181  14.683
 3461SOL    HW112280   0.326  14.259  14.651
 3461SOL    HW212281   0.214  14.163  14.616
 3462SOL     OW12282  13.524  13.009  10.631
 3462SOL    HW112283  13.507  13.011  10.725
 3462SOL    HW212284  13.581  12.932  10.619
 3463SOL     OW12285  10.020   9.889   1.924
 3463SOL    HW112286  10.005   9.977   1.891
 3463SOL    HW212287  10.092   9.898   1.986
 3464SOL     OW12288  10.752   2.350   8.621
 3464SOL    HW112289  10.818   2.361   8.689
 3464SOL    HW212290  10.754   2.256   8.601
 3465SOL     OW12291   4.361  12.047   4.900
 3465SOL    HW112292   4.447  12.050   4.857
 3465SOL    HW212293   4.369  11.977   4.965
 3466SOL     OW12294   5.336   5.688   9.516
 3466SOL    HW112295   5.417   5.641   9.535
 3466SOL    HW212296   5.344   5.771   9.563
 3467SOL     OW12297   9.124  11.187   0.789
 3467SOL    HW112298   9.173  11.186   0.707
 3467SOL    HW212299   9.051  11.128   0.774
 3468SOL     OW12300   3.723   5.509   9.839
 3468SOL    HW112301   3.766   5.549   9.914
 3468SOL    HW212302   3.710   5.581   9.778
 3469SOL     OW12303   0.939   5.402   4.377
 3469SOL    HW112304   0.897   5.362   4.301
 3469SOL    HW212305   0.927   5.496   4.365
 3470SOL     OW12306  13.853   0.622   8.928
 3470SOL    HW112307  13.783   0.640   8.991
 3470SOL    HW212308  13.835   0.534   8.895
 3471SOL     OW12309   3.579   8.287   3.672
 3471SOL    HW112310   3.501   8.330   3.638
 3471SOL    HW212311   3.590   8.322   3.760
 3472SOL     OW12312   7.626   2.668   1.614
 3472SOL    HW112313   7.598   2.577   1.625
 3472SOL    HW212314   7.626   2.704   1.703
 3473SOL     OW12315   6.541   4.419   2.069
 3473SOL    HW112316   6.618   4.365   2.088
 3473SOL    HW212317   6.552   4.497   2.124
 3474SOL     OW12318   5.992   3.560   0.794
 3474SOL    HW112319   5.908   3.520   0.816
 3474SOL    HW212320   6.001   3.632   0.856
 3475SOL     OW12321   0.863  11.910  13.259
 3475SOL    HW112322   0.790  11.943  13.311
 3475SOL    HW212323   0.879  11.977  13.193
 3476SOL     OW12324   6.598  11.619   1.571
 3476SOL    HW112325   6.630  11.566   1.644
 3476SOL    HW212326   6.675  11.668   1.542
 3477SOL     OW12327   2.915   7.584   4.670
 3477SOL    HW112328   2.901   7.679   4.666
 3477SOL    HW212329   2.988   7.573   4.732
 3478SOL     OW12330   3.613  13.934  12.317
 3478SOL    HW112331   3.619  13.998  12.246
 3478SOL    HW212332   3.681  13.960  12.379
 3479SOL     OW12333   6.226   6.872   5.723
 3479SOL    HW112334   6.312   6.888   5.760
 3479SOL    HW212335   6.200   6.955   5.683
 3480SOL     OW12336  14.788   0.332   9.687
 3480SOL    HW112337  14.721   0.264   9.696
 3480SOL    HW212338  14.777   0.365   9.598
 3481SOL     OW12339   6.324  11.223   0.031
 3481SOL    HW112340   6.313  11.146  14.857
 3481SOL    HW212341   6.412  11.256   0.011
 3482SOL     OW12342  11.395   9.614   1.757
 3482SOL    HW112343  11.354   9.697   1.779
 3482SOL    HW212344  11.464   9.602   1.822
 3483SOL     OW12345   3.009   7.698  10.355
 3483SOL    HW112346   3.062   7.620  10.338
 3483SOL    HW212347   3.072   7.766  10.379
 3484SOL     OW12348   9.104   9.550   1.606
 3484SOL    HW112349   9.034   9.599   1.563
 3484SOL    HW212350   9.103   9.464   1.565
 3485SOL     OW12351   1.810  10.629  12.072
 3485SOL    HW112352   1.826  10.634  12.166
 3485SOL    HW212353   1.724  10.588  12.064
 3486SOL     OW12354   5.592   0.474   5.513
 3486SOL    HW112355   5.646   0.536   5.563
 3486SOL    HW212356   5.626   0.388   5.537
 3487SOL     OW12357   3.225   3.197  14.538
 3487SOL    HW112358   3.143   3.151  14.554
 3487SOL    HW212359   3.273   3.140  14.478
 3488SOL     OW12360   8.206  10.021  12.103
 3488SOL    HW112361   8.114  10.026  12.077
 3488SOL    HW212362   8.233   9.932  12.079
 3489SOL     OW12363   4.960  11.725   1.096
 3489SOL    HW112364   5.048  11.711   1.062
 3489SOL    HW212365   4.938  11.643   1.141
 3490SOL     OW12366   3.806  10.282   5.450
 3490SOL    HW112367   3.745  10.249   5.384
 3490SOL    HW212368   3.867  10.210   5.465
 3491SOL     OW12369  10.573   9.756   5.951
 3491SOL    HW112370  10.649   9.808   5.978
 3491SOL    HW212371  10.598   9.721   5.865
 3492SOL     OW12372   4.466  11.810   4.218
 3492SOL    HW112373   4.534  11.860   4.262
 3492SOL    HW212374   4.387  11.824   4.270
 3493SOL     OW12375   7.612  14.562   4.036
 3493SOL    HW112376   7.683  14.556   3.972
 3493SOL    HW212377   7.539  14.601   3.987
 3494SOL     OW12378   3.798   3.909   3.819
 3494SOL    HW112379   3.769   3.924   3.909
 3494SOL    HW212380   3.791   3.994   3.777
 3495SOL     OW12381  10.700   7.684   9.807
 3495SOL    HW112382  10.697   7.660   9.899
 3495SOL    HW212383  10.788   7.659   9.779
 3496SOL     OW12384   7.945  10.200   5.186
 3496SOL    HW112385   7.980  10.176   5.100
 3496SOL    HW212386   7.940  10.118   5.234
 3497SOL     OW12387  11.591  11.869  12.235
 3497SOL    HW112388  11.497  11.888  12.226
 3497SOL    HW212389  11.594  11.775  12.254
 3498SOL     OW12390   1.061  13.385   7.276
 3498SOL    HW112391   1.128  13.318   7.263
 3498SOL    HW212392   1.065  13.404   7.370
 3499SOL     OW12393  11.235  13.499   0.061
 3499SOL    HW112394  11.320  13.455   0.060
 3499SOL    HW212395  11.203  13.492  14.853
 3500SOL     OW12396  13.103  13.568   7.926
 3500SOL    HW112397  13.164  13.635   7.894
 3500SOL    HW212398  13.016  13.601   7.903
 3501SOL     OW12399  10.176  11.931  10.527
 3501SOL    HW112400  10.268  11.940  10.501
 3501SOL    HW212401  10.141  11.865  10.467
 3502SOL     OW12402   0.463   1.250   2.750
 3502SOL    HW112403   0.537   1.214   2.798
 3502SOL    HW212404   0.489   1.341   2.732
 3503SOL     OW12405   0.572   5.122   7.637
 3503SOL    HW112406   0.598   5.031   7.650
 3503SOL    HW212407   0.649   5.163   7.597
 3504SOL     OW12408   4.598   8.993   7.486
 3504SOL    HW112409   4.523   8.935   7.476
 3504SOL    HW212410   4.609   9.034   7.400
 3505SOL     OW12411   6.624  13.803  13.117
 3505SOL    HW112412   6.663  13.844  13.193
 3505SOL    HW212413   6.640  13.709  13.128
 3506SOL     OW12414   0.416   5.513   2.113
 3506SOL    HW112415   0.400   5.573   2.187
 3506SOL    HW212416   0.337   5.459   2.109
 3507SOL     OW12417   5.401  11.896   3.437
 3507SOL    HW112418   5.487  11.907   3.475
 3507SOL    HW212419   5.340  11.921   3.507
 3508SOL     OW12420  10.251   5.915   7.141
 3508SOL    HW112421  10.264   5.925   7.046
 3508SOL    HW212422  10.170   5.963   7.159
 3509SOL     OW12423   1.097   2.314   0.930
 3509SOL    HW112424   1.018   2.319   0.876
 3509SOL    HW212425   1.116   2.405   0.952
 3510SOL     OW12426   6.761   5.915  10.595
 3510SOL    HW112427   6.784   5.884  10.683
 3510SOL    HW212428   6.762   6.010  10.603
 3511SOL     OW12429   9.982  10.650   7.026
 3511SOL    HW112430   9.990  10.739   7.060
 3511SOL    HW212431  10.007  10.594   7.099
 3512SOL     OW12432  11.808   2.134  14.754
 3512SOL    HW112433  11.795   2.146  14.660
 3512SOL    HW212434  11.720   2.114  14.788
 3513SOL     OW12435  12.532   7.612   2.425
 3513SOL    HW112436  12.590   7.556   2.477
 3513SOL    HW212437  12.591   7.656   2.363
 3514SOL     OW12438   9.879   8.121  13.399
 3514SOL    HW112439   9.935   8.060  13.350
 3514SOL    HW212440   9.863   8.193  13.338
 3515SOL     OW12441  13.427   4.670   6.525
 3515SOL    HW112442  13.380   4.589   6.506
 3515SOL    HW212443  13.398   4.731   6.457
 3516SOL     OW12444   5.654   9.392   8.263
 3516SOL    HW112445   5.742   9.393   8.299
 3516SOL    HW212446   5.628   9.484   8.259
 3517SOL     OW12447   9.658   2.906   4.451
 3517SOL    HW112448   9.634   2.880   4.363
 3517SOL    HW212449   9.730   2.969   4.439
 3518SOL     OW12450  10.816   5.892   9.593
 3518SOL    HW112451  10.813   5.827   9.522
 3518SOL    HW212452  10.758   5.962   9.563
 3519SOL     OW12453   7.223   2.652   6.103
 3519SOL    HW112454   7.158   2.690   6.044
 3519SOL    HW212455   7.191   2.563   6.120
 3520SOL     OW12456   6.607  12.668   8.732
 3520SOL    HW112457   6.627  12.692   8.641
 3520SOL    HW212458   6.521  12.707   8.748
 3521SOL     OW12459  13.776   7.835   3.206
 3521SOL    HW112460  13.866   7.821   3.178
 3521SOL    HW212461  13.723   7.809   3.130
 3522SOL     OW12462   5.237   9.506   6.088
 3522SOL    HW112463   5.210   9.549   6.170
 3522SOL    HW212464   5.185   9.550   6.020
 3523SOL     OW12465   2.045  10.564   0.335
 3523SOL    HW112466   2.022  10.552   0.243
 3523SOL    HW212467   2.139  10.581   0.334
 3524SOL     OW12468   2.029   7.080  10.759
 3524SOL    HW112469   2.085   7.055  10.832
 3524SOL    HW212470   1.982   7.157  10.791
 3525SOL     OW12471   2.844   7.714  12.820
 3525SOL    HW112472   2.812   7.641  12.768
 3525SOL    HW212473   2.791   7.712  12.899
 3526SOL     OW12474  13.167   5.534   7.049
 3526SOL    HW112475  13.097   5.560   7.110
 3526SOL    HW212476  13.233   5.603   7.058
 3527SOL     OW12477  12.646   8.950   1.311
 3527SOL    HW112478  12.725   9.000   1.292
 3527SOL    HW212479  12.576   9.015   1.313
 3528SOL     OW12480   2.359   6.139  11.505
 3528SOL    HW112481   2.420   6.080  11.461
 3528SOL    HW212482   2.396   6.150  11.593
 3529SOL     OW12483   4.972  13.826  13.310
 3529SOL    HW112484   5.062  13.795  13.323
 3529SOL    HW212485   4.920  13.746  13.302
 3530SOL     OW12486  13.081   3.850  11.024
 3530SOL    HW112487  13.092   3.757  11.044
 3530SOL    HW212488  13.069   3.853  10.929
 3531SOL     OW12489   4.377   7.114   7.604
 3531SOL    HW112490   4.444   7.148   7.545
 3531SOL    HW212491   4.302   7.174   7.592
 3532SOL     OW12492   2.372  13.901   6.005
 3532SOL    HW112493   2.463  13.919   5.980
 3532SOL    HW212494   2.366  13.934   6.095
 3533SOL     OW12495  12.446   4.067   8.411
 3533SOL    HW112496  12.374   4.116   8.451
 3533SOL    HW212497  12.419   4.056   8.319
 3534SOL     OW12498  13.891   2.771  14.357
 3534SOL    HW112499  13.867   2.802  14.270
 3534SOL    HW212500  13.951   2.837  14.391
 3535SOL     OW12501   2.127   9.095   7.940
 3535SOL    HW112502   2.065   9.115   7.869
 3535SOL    HW212503   2.133   8.999   7.940
 3536SOL     OW12504   0.349   8.324   0.396
 3536SOL    HW112505   0.329   8.255   0.332
 3536SOL    HW212506   0.424   8.370   0.359
 3537SOL     OW12507   6.579   0.760  14.548
 3537SOL    HW112508   6.578   0.691  14.614
 3537SOL    HW212509   6.520   0.728  14.479
 3538SOL     OW12510  13.689   1.328   6.996
 3538SOL    HW112511  13.726   1.289   7.075
 3538SOL    HW212512  13.602   1.289   6.988
 3539SOL     OW12513  14.196   6.599   6.268
 3539SOL    HW112514  14.195   6.503   6.270
 3539SOL    HW212515  14.214   6.625   6.358
 3540SOL     OW12516  10.678   3.890   3.298
 3540SOL    HW112517  10.651   3.834   3.226
 3540SOL    HW212518  10.622   3.968   3.291
 3541SOL     OW12519   2.061  11.651   9.192
 3541SOL    HW112520   2.107  11.735   9.195
 3541SOL    HW212521   2.047  11.629   9.284
 3542SOL     OW12522   6.707   0.796   6.249
 3542SOL    HW112523   6.793   0.755   6.237
 3542SOL    HW212524   6.701   0.859   6.178
 3543SOL     OW12525  10.583  14.404   0.314
 3543SOL    HW112526  10.627  14.440   0.391
 3543SOL    HW212527  10.504  14.457   0.305
 3544SOL     OW12528  11.097   2.315   8.743
 3544SOL    HW112529  11.030   2.332   8.677
 3544SOL    HW212530  11.055   2.258   8.807
 3545SOL     OW12531   1.807   9.351   6.014
 3545SOL    HW112532   1.853   9.367   6.096
 3545SOL    HW212533   1.716   9.375   6.033
 3546SOL     OW12534   2.119   5.727   5.726
 3546SOL    HW112535   2.130   5.773   5.809
 3546SOL    HW212536   2.142   5.792   5.659
 3547SOL     OW12537   5.656   1.470   1.639
 3547SOL    HW112538   5.641   1.559   1.607
 3547SOL    HW212539   5.743   1.447   1.608
 3548SOL     OW12540  10.984   5.360   4.174
 3548SOL    HW112541  11.078   5.370   4.194
 3548SOL    HW212542  10.976   5.270   4.143
 3549SOL     OW12543  11.567   0.227   6.297
 3549SOL    HW112544  11.566   0.276   6.379
 3549SOL    HW212545  11.503   0.157   6.310
 3550SOL     OW12546   8.179  10.042   7.221
 3550SOL    HW112547   8.263  10.021   7.261
 3550SOL    HW212548   8.119  10.051   7.296
 3551SOL     OW12549   8.893   4.936   3.477
 3551SOL    HW112550   8.878   4.876   3.404
 3551SOL    HW212551   8.981   4.970   3.462
 3552SOL     OW12552  10.255   3.531  12.972
 3552SOL    HW112553  10.204   3.604  13.006
 3552SOL    HW212554  10.273   3.475  13.048
 3553SOL     OW12555   4.316  11.401  12.332
 3553SOL    HW112556   4.250  11.365  12.272
 3553SOL    HW212557   4.297  11.358  12.415
 3554SOL     OW12558  12.291   2.343   9.969
 3554SOL    HW112559  12.280   2.274  10.034
 3554SOL    HW212560  12.286   2.299   9.885
 3555SOL     OW12561   3.119  14.836   0.998
 3555SOL    HW112562   3.030  14.848   0.966
 3555SOL    HW212563   3.172   0.009   0.940
 3556SOL     OW12564  11.705   0.270   3.831
 3556SOL    HW112565  11.644   0.319   3.776
 3556SOL    HW212566  11.753   0.338   3.880
 3557SOL     OW12567   8.856   3.631   1.220
 3557SOL    HW112568   8.766   3.656   1.199
 3557SOL    HW212569   8.855   3.535   1.222
 3558SOL     OW12570  10.334   0.206  14.604
 3558SOL    HW112571  10.365   0.176  14.690
 3558SOL    HW212572  10.401   0.175  14.543
 3559SOL     OW12573  12.554  12.895   8.868
 3559SOL    HW112574  12.574  12.827   8.803
 3559SOL    HW212575  12.616  12.965   8.850
 3560SOL     OW12576  13.060   7.901  12.165
 3560SOL    HW112577  13.142   7.949  12.154
 3560SOL    HW212578  13.040   7.908  12.258
 3561SOL     OW12579   7.615  12.643   8.655
 3561SOL    HW112580   7.654  12.730   8.660
 3561SOL    HW212581   7.562  12.645   8.575
 3562SOL     OW12582   3.900  10.548   2.748
 3562SOL    HW112583   3.958  10.589   2.813
 3562SOL    HW212584   3.837  10.498   2.800
 3563SOL     OW12585   3.771   2.931   3.840
 3563SOL    HW112586   3.769   2.863   3.908
 3563SOL    HW212587   3.758   2.883   3.758
 3564SOL     OW12588   0.078   6.617   7.978
 3564SOL    HW112589  14.866   6.631   7.992
 3564SOL    HW212590   0.083   6.576   7.892
 3565SOL     OW12591   2.054  11.404   6.202
 3565SOL    HW112592   2.011  11.331   6.245
 3565SOL    HW212593   2.000  11.422   6.125
 3566SOL     OW12594   7.503   2.467   7.927
 3566SOL    HW112595   7.429   2.417   7.963
 3566SOL    HW212596   7.464   2.526   7.863
 3567SOL     OW12597  13.793  11.438  14.440
 3567SOL    HW112598  13.867  11.434  14.500
 3567SOL    HW212599  13.831  11.458  14.355
 3568SOL     OW12600  10.679   4.719   5.039
 3568SOL    HW112601  10.733   4.716   5.118
 3568SOL    HW212602  10.591   4.739   5.071
 3569SOL     OW12603  12.718   5.773   2.492
 3569SOL    HW112604  12.637   5.823   2.492
 3569SOL    HW212605  12.741   5.765   2.399
 3570SOL     OW12606  13.930  10.835   0.463
 3570SOL    HW112607  13.925  10.762   0.401
 3570SOL    HW212608  13.956  10.794   0.546
 3571SOL     OW12609   7.580   0.879  11.034
 3571SOL    HW112610   7.640   0.954  11.025
 3571SOL    HW212611   7.499   0.909  10.992
 3572SOL     OW12612  14.298   0.433   4.581
 3572SOL    HW112613  14.292   0.344   4.615
 3572SOL    HW212614  14.213   0.448   4.539
 3573SOL     OW12615   0.155   6.170  13.332
 3573SOL    HW112616   0.202   6.187  13.413
 3573SOL    HW212617   0.212   6.112  13.282
 3574SOL     OW12618   1.465   2.735  12.973
 3574SOL    HW112619   1.404   2.797  12.933
 3574SOL    HW212620   1.410   2.682  13.032
 3575SOL     OW12621   1.548   4.391  11.090
 3575SOL    HW112622   1.474   4.334  11.068
 3575SOL    HW212623   1.579   4.423  11.006
 3576SOL     OW12624  13.615   2.287   7.984
 3576SOL    HW112625  13.550   2.320   8.046
 3576SOL    HW212626  13.586   2.198   7.965
 3577SOL     OW12627   3.865  11.854   8.842
 3577SOL    HW112628   3.909  11.920   8.789
 3577SOL    HW212629   3.936  11.797   8.872
 3578SOL     OW12630   9.279   9.042  12.669
 3578SOL    HW112631   9.228   8.969  12.704
 3578SOL    HW212632   9.225   9.077  12.598
 3579SOL     OW12633  12.566   9.846   4.333
 3579SOL    HW112634  12.632   9.780   4.352
 3579SOL    HW212635  12.591   9.921   4.386
 3580SOL     OW12636   4.005   5.667   6.990
 3580SOL    HW112637   3.927   5.639   6.943
 3580SOL    HW212638   3.976   5.678   7.081
 3581SOL     OW12639   2.712   0.063   7.970
 3581SOL    HW112640   2.723   0.016   7.887
 3581SOL    HW212641   2.722  14.877   8.037
 3582SOL     OW12642   2.640   6.993  13.641
 3582SOL    HW112643   2.603   7.008  13.728
 3582SOL    HW212644   2.572   7.025  13.581
 3583SOL     OW12645   0.189  11.101   6.881
 3583SOL    HW112646   0.132  11.163   6.927
 3583SOL    HW212647   0.265  11.154   6.854
 3584SOL     OW12648   6.469   7.635   4.309
 3584SOL    HW112649   6.548   7.604   4.352
 3584SOL    HW212650   6.397   7.596   4.358
 3585SOL     OW12651   3.071  12.028  11.725
 3585SOL    HW112652   3.059  12.003  11.817
 3585SOL    HW212653   3.009  11.973  11.677
 3586SOL     OW12654  10.314   8.740   4.673
 3586SOL    HW112655  10.341   8.787   4.594
 3586SOL    HW212656  10.228   8.704   4.652
 3587SOL     OW12657   4.263  13.020   5.090
 3587SOL    HW112658   4.344  12.998   5.043
 3587SOL    HW212659   4.242  12.940   5.139
 3588SOL     OW12660   4.780   1.082   7.956
 3588SOL    HW112661   4.875   1.075   7.972
 3588SOL    HW212662   4.761   1.012   7.893
 3589SOL     OW12663   4.196   9.305   0.028
 3589SOL    HW112664   4.191   9.210   0.040
 3589SOL    HW212665   4.287   9.327   0.049
 3590SOL     OW12666   3.529   3.592   2.667
 3590SOL    HW112667   3.491   3.625   2.749
 3590SOL    HW212668   3.623   3.602   2.678
 3591SOL     OW12669   3.823  11.832   3.997
 3591SOL    HW112670   3.775  11.902   4.041
 3591SOL    HW212671   3.805  11.845   3.904
 3592SOL     OW12672   8.385  10.115   8.698
 3592SOL    HW112673   8.453  10.164   8.651
 3592SOL    HW212674   8.315  10.179   8.712
 3593SOL     OW12675  14.188  14.864  13.102
 3593SOL    HW112676  14.183   0.062  13.050
 3593SOL    HW212677  14.097  14.833  13.107
 3594SOL     OW12678   0.336   5.845   5.243
 3594SOL    HW112679   0.351   5.939   5.246
 3594SOL    HW212680   0.241   5.835   5.246
 3595SOL     OW12681  10.302  11.243  11.606
 3595SOL    HW112682  10.281  11.172  11.668
 3595SOL    HW212683  10.220  11.291  11.596
 3596SOL     OW12684   2.642   5.467   8.972
 3596SOL    HW112685   2.653   5.493   8.881
 3596SOL    HW212686   2.655   5.372   8.972
 3597SOL     OW12687  13.447   2.644  14.846
 3597SOL    HW112688  13.393   2.568  14.867
 3597SOL    HW212689  13.504   2.614  14.775
 3598SOL     OW12690  13.821  13.381   3.059
 3598SOL    HW112691  13.754  13.370   3.127
 3598SOL    HW212692  13.880  13.448   3.094
 3599SOL     OW12693  13.669   7.269  13.317
 3599SOL    HW112694  13.661   7.196  13.378
 3599SOL    HW212695  13.761   7.294  13.320
 3600SOL     OW12696   4.941   0.868   3.097
 3600SOL    HW112697   4.987   0.950   3.077
 3600SOL    HW212698   4.882   0.856   3.022
 3601SOL     OW12699   0.399  10.193   7.594
 3601SOL    HW112700   0.345  10.135   7.539
 3601SOL    HW212701   0.483  10.195   7.549
 3602SOL     OW12702  12.040   6.048   6.419
 3602SOL    HW112703  12.028   6.099   6.499
 3602SOL    HW212704  11.955   6.051   6.375
 3603SOL     OW12705   3.793  13.671  14.850
 3603SOL    HW112706   3.866  13.733  14.851
 3603SOL    HW212707   3.775  13.656  14.757
 3604SOL     OW12708   8.581  13.753   5.521
 3604SOL    HW112709   8.583  13.847   5.541
 3604SOL    HW212710   8.505  13.720   5.568
 3605SOL     OW12711   9.967   2.730   6.551
 3605SOL    HW112712   9.878   2.706   6.577
 3605SOL    HW212713   9.989   2.805   6.606
 3606SOL     OW12714   2.424  11.819   7.114
 3606SOL    HW112715   2.339  11.777   7.120
 3606SOL    HW212716   2.407  11.911   7.134
 3607SOL     OW12717   3.432  12.926   6.449
 3607SOL    HW112718   3.464  12.885   6.369
 3607SOL    HW212719   3.345  12.960   6.425
 3608SOL     OW12720   7.602   9.874   4.801
 3608SOL    HW112721   7.612   9.912   4.889
 3608SOL    HW212722   7.515   9.903   4.773
 3609SOL     OW12723  10.092   5.512   7.133
 3609SOL    HW112724  10.100   5.583   7.070
 3609SOL    HW212725   9.999   5.491   7.134
 3610SOL     OW12726   0.003   5.955  10.898
 3610SOL    HW112727   0.021   5.991  10.811
 3610SOL    HW212728  14.861   5.864  10.882
 3611SOL     OW12729   9.056   6.382   2.653
 3611SOL    HW112730   9.095   6.469   2.650
 3611SOL    HW212731   8.988   6.389   2.721
 3612SOL     OW12732   2.911   0.640   4.330
 3612SOL    HW112733   2.881   0.549   4.327
 3612SOL    HW212734   2.959   0.652   4.248
 3613SOL     OW12735   8.495   7.896  12.312
 3613SOL    HW112736   8.584   7.871  12.288
 3613SOL    HW212737   8.444   7.883  12.232
 3614SOL     OW12738   0.711  14.125   5.454
 3614SOL    HW112739   0.680  14.174   5.531
 3614SOL    HW212740   0.768  14.187   5.408
 3615SOL     OW12741   3.799   7.994  12.046
 3615SOL    HW112742   3.739   7.984  11.972
 3615SOL    HW212743   3.770   8.076  12.088
 3616SOL     OW12744  13.782  14.102   6.949
 3616SOL    HW112745  13.787  14.010   6.922
 3616SOL    HW212746  13.870  14.136   6.935
 3617SOL     OW12747  12.802  10.191   0.167
 3617SOL    HW112748  12.760  10.142   0.237
 3617SOL    HW212749  12.737  10.193   0.096
 3618SOL     OW12750  11.594  14.647   2.276
 3618SOL    HW112751  11.558  14.725   2.235
 3618SOL    HW212752  11.520  14.586   2.281
 3619SOL     OW12753   1.220   6.254  13.822
 3619SOL    HW112754   1.202   6.300  13.904
 3619SOL    HW212755   1.156   6.289  13.760
 3620SOL     OW12756   2.544   9.297  10.249
 3620SOL    HW112757   2.634   9.279  10.222
 3620SOL    HW212758   2.554   9.347  10.330
 3621SOL     OW12759   6.205   2.578   5.953
 3621SOL    HW112760   6.149   2.639   6.000
 3621SOL    HW212761   6.219   2.619   5.867
 3622SOL     OW12762  11.414  10.353   1.535
 3622SOL    HW112763  11.396  10.445   1.515
 3622SOL    HW212764  11.463  10.322   1.459
 3623SOL     OW12765  12.066  11.694   4.198
 3623SOL    HW112766  12.044  11.601   4.187
 3623SOL    HW212767  11.987  11.733   4.234
 3624SOL     OW12768   5.374   0.112   1.585
 3624SOL    HW112769   5.459   0.115   1.628
 3624SOL    HW212770   5.329   0.037   1.625
 3625SOL     OW12771   3.838   3.972  13.543
 3625SOL    HW112772   3.813   4.065  13.545
 3625SOL    HW212773   3.772   3.931  13.486
 3626SOL     OW12774   4.207   0.524   8.289
 3626SOL    HW112775   4.235   0.464   8.358
 3626SOL    HW212776   4.214   0.611   8.328
 3627SOL     OW12777  14.858  11.242  10.114
 3627SOL    HW112778   0.009  11.217  10.200
 3627SOL    HW212779  14.774  11.284  10.132
 3628SOL     OW12780  11.290   0.537   7.483
 3628SOL    HW112781  11.194   0.544   7.485
 3628SOL    HW212782  11.315   0.532   7.575
 3629SOL     OW12783   3.082   0.180   9.372
 3629SOL    HW112784   3.030   0.258   9.386
 3629SOL    HW212785   3.171   0.205   9.398
 3630SOL     OW12786   5.345  14.703  10.303
 3630SOL    HW112787   5.270  14.657  10.263
 3630SOL    HW212788   5.415  14.694  10.239
 3631SOL     OW12789   1.170   8.299   9.041
 3631SOL    HW112790   1.226   8.330   8.970
 3631SOL    HW212791   1.175   8.367   9.108
 3632SOL     OW12792  11.349   2.525   3.720
 3632SOL    HW112793  11.334   2.564   3.634
 3632SOL    HW212794  11.429   2.474   3.709
 3633SOL     OW12795  13.009  10.238   1.127
 3633SOL    HW112796  12.974  10.241   1.038
 3633SOL    HW212797  12.959  10.169   1.171
 3634SOL     OW12798   1.849   5.975   0.035
 3634SOL    HW112799   1.941   5.958   0.014
 3634SOL    HW212800   1.812   5.889   0.053
 3635SOL     OW12801   3.703   5.482   8.028
 3635SOL    HW112802   3.740   5.561   8.067
 3635SOL    HW212803   3.645   5.447   8.096
 3636SOL     OW12804   4.328   0.303  10.927
 3636SOL    HW112805   4.389   0.362  10.884
 3636SOL    HW212806   4.289   0.252  10.856
 3637SOL     OW12807   2.460  11.893   6.423
 3637SOL    HW112808   2.523  11.876   6.353
 3637SOL    HW212809   2.465  11.815   6.478
 3638SOL     OW12810   5.178  11.236   9.305
 3638SOL    HW112811   5.137  11.287   9.375
 3638SOL    HW212812   5.109  11.224   9.240
 3639SOL     OW12813   3.477   1.460   8.561
 3639SOL    HW112814   3.415   1.523   8.524
 3639SOL    HW212815   3.451   1.451   8.652
 3640SOL     OW12816  14.144   4.065  11.179
 3640SOL    HW112817  14.189   4.117  11.112
 3640SOL    HW212818  14.070   4.026  11.134
 3641SOL     OW12819   7.432   6.892  10.664
 3641SOL    HW112820   7.338   6.904  10.656
 3641SOL    HW212821   7.444   6.856  10.752
 3642SOL     OW12822  12.111   9.967   4.419
 3642SOL    HW112823  12.086  10.054   4.387
 3642SOL    HW212824  12.053   9.951   4.493
 3643SOL     OW12825   7.024   7.684   2.481
 3643SOL    HW112826   7.030   7.777   2.503
 3643SOL    HW212827   6.942   7.676   2.433
 3644SOL     OW12828   3.337  12.773   4.080
 3644SOL    HW112829   3.376  12.687   4.063
 3644SOL    HW212830   3.276  12.759   4.152
 3645SOL     OW12831   0.428  11.687  10.217
 3645SOL    HW112832   0.426  11.706  10.123
 3645SOL    HW212833   0.339  11.656  10.237
 3646SOL     OW12834  14.373   5.994   5.722
 3646SOL    HW112835  14.327   6.078   5.714
 3646SOL    HW212836  14.436   5.994   5.650
 3647SOL     OW12837   7.119  11.415   9.438
 3647SOL    HW112838   7.136  11.321   9.445
 3647SOL    HW212839   7.082  11.439   9.523
 3648SOL     OW12840   0.262   2.451  14.585
 3648SOL    HW112841   0.310   2.456  14.668
 3648SOL    HW212842   0.172   2.470  14.609
 3649SOL     OW12843  13.951   4.162   7.749
 3649SOL    HW112844  13.972   4.087   7.694
 3649SOL    HW212845  13.876   4.203   7.706
 3650SOL     OW12846   6.116   9.608   3.387
 3650SOL    HW112847   6.100   9.554   3.464
 3650SOL    HW212848   6.151   9.690   3.422
 3651SOL     OW12849   6.503  14.446   0.682
 3651SOL    HW112850   6.416  14.421   0.651
 3651SOL    HW212851   6.562  14.417   0.613
 3652SOL     OW12852  14.036  13.549   6.615
 3652SOL    HW112853  14.061  13.465   6.655
 3652SOL    HW212854  14.092  13.556   6.538
 3653SOL     OW12855   4.429  14.823   7.309
 3653SOL    HW112856   4.442   0.035   7.298
 3653SOL    HW212857   4.487  14.783   7.244
 3654SOL     OW12858  14.059   2.901   4.400
 3654SOL    HW112859  13.966   2.909   4.381
 3654SOL    HW212860  14.068   2.937   4.489
 3655SOL     OW12861  13.353   7.537   1.771
 3655SOL    HW112862  13.427   7.555   1.713
 3655SOL    HW212863  13.292   7.609   1.755
 3656SOL     OW12864  11.193   7.521  10.322
 3656SOL    HW112865  11.191   7.579  10.399
 3656SOL    HW212866  11.103   7.490  10.313
 3657SOL     OW12867  10.388   1.160   0.105
 3657SOL    HW112868  10.377   1.249   0.139
 3657SOL    HW212869  10.340   1.159   0.023
 3658SOL     OW12870  11.139   4.263   4.861
 3658SOL    HW112871  11.199   4.260   4.935
 3658SOL    HW212872  11.162   4.186   4.808
 3659SOL     OW12873   6.125   9.368  13.019
 3659SOL    HW112874   6.109   9.331  12.932
 3659SOL    HW212875   6.084   9.455  13.015
 3660SOL     OW12876   4.275   3.315   7.368
 3660SOL    HW112877   4.339   3.334   7.437
 3660SOL    HW212878   4.233   3.399   7.351
 3661SOL     OW12879   8.232  13.653   6.495
 3661SOL    HW112880   8.178  13.732   6.508
 3661SOL    HW212881   8.171  13.580   6.510
 3662SOL     OW12882   6.456   3.288  11.288
 3662SOL    HW112883   6.419   3.235  11.358
 3662SOL    HW212884   6.381   3.335  11.251
 3663SOL     OW12885   7.359   7.996   5.026
 3663SOL    HW112886   7.370   7.995   5.121
 3663SOL    HW212887   7.447   7.983   4.991
 3664SOL     OW12888  13.302   3.254  12.017
 3664SOL    HW112889  13.217   3.236  11.978
 3664SOL    HW212890  13.341   3.321  11.961
 3665SOL     OW12891   5.609   8.377   4.575
 3665SOL    HW112892   5.555   8.311   4.617
 3665SOL    HW212893   5.557   8.458   4.581
 3666SOL     OW12894   6.046   1.456  13.652
 3666SOL    HW112895   6.124   1.426  13.604
 3666SOL    HW212896   6.033   1.546  13.621
 3667SOL     OW12897   8.907  11.811   5.309
 3667SOL    HW112898   8.840  11.878   5.297
 3667SOL    HW212899   8.859  11.728   5.307
 3668SOL     OW12900   0.442  14.023   7.456
 3668SOL    HW112901   0.420  14.102   7.504
 3668SOL    HW212902   0.407  14.038   7.368
 3669SOL     OW12903   1.264   1.848   5.100
 3669SOL    HW112904   1.248   1.760   5.134
 3669SOL    HW212905   1.301   1.896   5.174
 3670SOL     OW12906   4.751   4.053   3.710
 3670SOL    HW112907   4.768   3.969   3.753
 3670SOL    HW212908   4.663   4.044   3.675
 3671SOL     OW12909   7.754  14.564  10.186
 3671SOL    HW112910   7.748  14.647  10.234
 3671SOL    HW212911   7.848  14.550  10.175
 3672SOL     OW12912   1.302  10.516   1.824
 3672SOL    HW112913   1.221  10.504   1.775
 3672SOL    HW212914   1.329  10.606   1.804
 3673SOL     OW12915   5.694   5.868   9.555
 3673SOL    HW112916   5.709   5.962   9.549
 3673SOL    HW212917   5.687   5.839   9.465
 3674SOL     OW12918   9.937  10.602   9.184
 3674SOL    HW112919   9.924  10.579   9.276
 3674SOL    HW212920   9.848  10.611   9.150
 3675SOL     OW12921   8.426   2.266  12.885
 3675SOL    HW112922   8.511   2.254  12.844
 3675SOL    HW212923   8.364   2.231  12.821
 3676SOL     OW12924   5.873   8.257   8.685
 3676SOL    HW112925   5.962   8.244   8.651
 3676SOL    HW212926   5.878   8.336   8.738
 3677SOL     OW12927   6.695   2.795   6.084
 3677SOL    HW112928   6.762   2.772   6.148
 3677SOL    HW212929   6.622   2.737   6.104
 3678SOL     OW12930   6.337   1.406  12.687
 3678SOL    HW112931   6.322   1.439  12.776
 3678SOL    HW212932   6.260   1.434  12.638
 3679SOL     OW12933   6.293   3.638   0.078
 3679SOL    HW112934   6.361   3.606   0.019
 3679SOL    HW212935   6.339   3.659   0.159
 3680SOL     OW12936   6.271  11.351   7.944
 3680SOL    HW112937   6.179  11.329   7.958
 3680SOL    HW212938   6.305  11.279   7.892
 3681SOL     OW12939   1.566   1.533   0.733
 3681SOL    HW112940   1.498   1.600   0.724
 3681SOL    HW212941   1.594   1.514   0.643
 3682SOL     OW12942  11.670   2.501  13.191
 3682SOL    HW112943  11.734   2.497  13.262
 3682SOL    HW212944  11.722   2.500  13.111
 3683SOL     OW12945   9.449   6.588   7.789
 3683SOL    HW112946   9.441   6.637   7.870
 3683SOL    HW212947   9.465   6.654   7.722
 3684SOL     OW12948   6.900  10.411   7.241
 3684SOL    HW112949   6.827  10.463   7.276
 3684SOL    HW212950   6.911  10.340   7.305
 3685SOL     OW12951   1.277   5.356   9.276
 3685SOL    HW112952   1.332   5.320   9.345
 3685SOL    HW212953   1.190   5.363   9.315
 3686SOL     OW12954   1.478   7.697  10.919
 3686SOL    HW112955   1.458   7.653  11.002
 3686SOL    HW212956   1.570   7.724  10.928
 3687SOL     OW12957   6.622  11.143  11.226
 3687SOL    HW112958   6.618  11.208  11.156
 3687SOL    HW212959   6.571  11.069  11.192
 3688SOL     OW12960   1.389   4.703  12.778
 3688SOL    HW112961   1.474   4.738  12.806
 3688SOL    HW212962   1.410   4.642  12.707
 3689SOL     OW12963   2.196   6.409   9.562
 3689SOL    HW112964   2.163   6.409   9.472
 3689SOL    HW212965   2.234   6.322   9.573
 3690SOL     OW12966   8.242   5.662   1.913
 3690SOL    HW112967   8.149   5.686   1.911
 3690SOL    HW212968   8.245   5.573   1.876
 3691SOL     OW12969   3.067   9.460   5.843
 3691SOL    HW112970   3.122   9.538   5.840
 3691SOL    HW212971   3.003   9.478   5.912
 3692SOL     OW12972  14.486   6.934   7.179
 3692SOL    HW112973  14.539   6.899   7.108
 3692SOL    HW212974  14.496   7.029   7.173
 3693SOL     OW12975   8.649   1.506   1.118
 3693SOL    HW112976   8.706   1.537   1.047
 3693SOL    HW212977   8.567   1.554   1.105
 3694SOL     OW12978   0.668   8.818   9.781
 3694SOL    HW112979   0.575   8.829   9.801
 3694SOL    HW212980   0.690   8.895   9.729
 3695SOL     OW12981   7.042   0.222   5.219
 3695SOL    HW112982   7.125   0.180   5.195
 3695SOL    HW212983   7.005   0.251   5.136
 3696SOL     OW12984  11.940   7.646  14.482
 3696SOL    HW112985  11.885   7.701  14.427
 3696SOL    HW212986  11.953   7.696  14.562
 3697SOL     OW12987   6.055   7.029  11.494
 3697SOL    HW112988   6.048   7.119  11.464
 3697SOL    HW212989   6.064   7.035  11.589
 3698SOL     OW12990  13.936   5.045   4.938
 3698SOL    HW112991  13.888   5.113   4.985
 3698SOL    HW212992  13.883   5.026   4.861
 3699SOL     OW12993   7.510   7.344  12.349
 3699SOL    HW112994   7.563   7.396  12.289
 3699SOL    HW212995   7.421   7.378  12.338
 3700SOL     OW12996   6.070  14.498   8.871
 3700SOL    HW112997   6.110  14.496   8.958
 3700SOL    HW212998   6.109  14.423   8.825
 3701SOL     OW12999   3.955  11.827  12.633
 3701SOL    HW113000   4.027  11.809  12.574
 3701SOL    HW213001   3.988  11.806  12.720
 3702SOL     OW13002  14.664   0.929   6.776
 3702SOL    HW113003  14.597   0.970   6.721
 3702SOL    HW213004  14.647   0.963   6.864
 3703SOL     OW13005   9.493   8.510   0.800
 3703SOL    HW113006   9.452   8.492   0.884
 3703SOL    HW213007   9.456   8.444   0.741
 3704SOL     OW13008   2.993  10.314  10.338
 3704SOL    HW113009   2.939  10.341  10.413
 3704SOL    HW213010   3.075  10.362  10.350
 3705SOL     OW13011   3.043   0.184  10.196
 3705SOL    HW113012   2.958   0.191  10.239
 3705SOL    HW213013   3.064   0.274  10.170
 3706SOL     OW13014   3.567   4.603  13.222
 3706SOL    HW113015   3.610   4.621  13.138
 3706SOL    HW213016   3.475   4.595  13.200
 3707SOL     OW13017   5.403   0.673   6.315
 3707SOL    HW113018   5.478   0.691   6.372
 3707SOL    HW213019   5.352   0.607   6.363
 3708SOL     OW13020   8.113   1.134   4.532
 3708SOL    HW113021   8.087   1.195   4.462
 3708SOL    HW213022   8.030   1.097   4.563
 3709SOL     OW13023  11.845  11.451   7.692
 3709SOL    HW113024  11.768  11.422   7.741
 3709SOL    HW213025  11.810  11.488   7.611
 3710SOL     OW13026  10.635   8.625   7.677
 3710SOL    HW113027  10.680   8.664   7.752
 3710SOL    HW213028  10.542   8.626   7.701
 3711SOL     OW13029  11.716   4.343  10.859
 3711SOL    HW113030  11.698   4.436  10.874
 3711SOL    HW213031  11.795   4.326  10.910
 3712SOL     OW13032  14.540  14.337   2.981
 3712SOL    HW113033  14.456  14.373   3.010
 3712SOL    HW213034  14.541  14.248   3.015
 3713SOL     OW13035   5.927  11.733  10.046
 3713SOL    HW113036   5.897  11.659  10.097
 3713SOL    HW213037   5.985  11.695   9.980
 3714SOL     OW13038  14.864   2.675   6.486
 3714SOL    HW113039   0.001   2.590   6.527
 3714SOL    HW213040   0.067   2.707   6.457
 3715SOL     OW13041   9.130   4.303   0.053
 3715SOL    HW113042   9.192   4.275  14.867
 3715SOL    HW213043   9.049   4.323   0.005
 3716SOL     OW13044   2.698   2.187  13.049
 3716SOL    HW113045   2.671   2.255  12.987
 3716SOL    HW213046   2.733   2.117  12.994
 3717SOL     OW13047  11.528   4.266   2.026
 3717SOL    HW113048  11.564   4.229   2.106
 3717SOL    HW213049  11.577   4.346   2.011
 3718SOL     OW13050   3.488   2.565   1.572
 3718SOL    HW113051   3.424   2.502   1.604
 3718SOL    HW213052   3.437   2.633   1.529
 3719SOL     OW13053   5.608   1.273   3.023
 3719SOL    HW113054   5.701   1.280   3.045
 3719SOL    HW213055   5.582   1.363   3.001
 3720SOL     OW13056  12.378   4.871   8.798
 3720SOL    HW113057  12.314   4.938   8.820
 3720SOL    HW213058  12.420   4.902   8.718
 3721SOL     OW13059   7.940  10.223   8.421
 3721SOL    HW113060   7.956  10.143   8.470
 3721SOL    HW213061   7.849  10.215   8.391
 3722SOL     OW13062   4.390   0.545   9.286
 3722SOL    HW113063   4.464   0.601   9.311
 3722SOL    HW213064   4.321   0.567   9.348
 3723SOL     OW13065   6.887   7.693  10.640
 3723SOL    HW113066   6.972   7.700  10.595
 3723SOL    HW213067   6.908   7.703  10.733
 3724SOL     OW13068   1.700   2.062  14.778
 3724SOL    HW113069   1.727   1.978  14.816
 3724SOL    HW213070   1.619   2.042  14.732
 3725SOL     OW13071   4.399   1.534   2.605
 3725SOL    HW113072   4.309   1.550   2.579
 3725SOL    HW213073   4.452   1.573   2.535
 3726SOL     OW13074  13.464   2.787   0.209
 3726SOL    HW113075  13.477   2.745   0.124
 3726SOL    HW213076  13.383   2.837   0.200
 3727SOL     OW13077  13.330   2.978   0.760
 3727SOL    HW113078  13.252   2.967   0.815
 3727SOL    HW213079  13.310   2.929   0.680
 3728SOL     OW13080   4.760   1.702   3.111
 3728SOL    HW113081   4.823   1.760   3.153
 3728SOL    HW213082   4.680   1.713   3.162
 3729SOL     OW13083   6.604   5.134   0.481
 3729SOL    HW113084   6.565   5.064   0.428
 3729SOL    HW213085   6.570   5.120   0.569
 3730SOL     OW13086  13.982   0.841   1.491
 3730SOL    HW113087  13.975   0.747   1.509
 3730SOL    HW213088  14.074   0.853   1.467
 3731SOL     OW13089   5.226   4.449  12.125
 3731SOL    HW113090   5.259   4.460  12.214
 3731SOL    HW213091   5.143   4.402  12.136
 3732SOL     OW13092   4.476   1.519  10.316
 3732SOL    HW113093   4.449   1.541  10.405
 3732SOL    HW213094   4.479   1.602  10.270
 3733SOL     OW13095   0.941   9.070   5.297
 3733SOL    HW113096   0.847   9.060   5.313
 3733SOL    HW213097   0.948   9.089   5.203
 3734SOL     OW13098   4.423  10.227   7.361
 3734SOL    HW113099   4.387  10.223   7.450
 3734SOL    HW213100   4.358  10.277   7.312
 3735SOL     OW13101   5.407  10.958   2.341
 3735SOL    HW113102   5.391  10.864   2.343
 3735SOL    HW213103   5.372  10.986   2.256
 3736SOL     OW13104   0.677   3.443  14.193
 3736SOL    HW113105   0.608   3.414  14.133
 3736SOL    HW213106   0.759   3.422  14.147
 3737SOL     OW13107   8.653   1.603   1.511
 3737SOL    HW113108   8.748   1.613   1.504
 3737SOL    HW213109   8.620   1.625   1.425
 3738SOL     OW13110   9.540   2.364  10.144
 3738SOL    HW113111   9.570   2.323  10.225
 3738SOL    HW213112   9.527   2.290  10.084
 3739SOL     OW13113  12.075   2.664   2.673
 3739SOL    HW113114  12.047   2.747   2.633
 3739SOL    HW213115  12.033   2.597   2.620
 3740SOL     OW13116   4.054   5.749   3.958
 3740SOL    HW113117   4.022   5.670   3.914
 3740SOL    HW213118   4.146   5.755   3.932
 3741SOL     OW13119   1.954   2.925   9.852
 3741SOL    HW113120   1.989   2.835   9.854
 3741SOL    HW213121   2.028   2.978   9.824
 3742SOL     OW13122  11.145   0.811  14.476
 3742SOL    HW113123  11.111   0.898  14.454
 3742SOL    HW213124  11.118   0.797  14.567
 3743SOL     OW13125  13.760   7.252   0.892
 3743SOL    HW113126  13.732   7.344   0.897
 3743SOL    HW213127  13.849   7.252   0.927
 3744SOL     OW13128  10.274  13.715   0.834
 3744SOL    HW113129  10.333  13.679   0.768
 3744SOL    HW213130  10.250  13.640   0.888
 3745SOL     OW13131  11.699   0.654  12.046
 3745SOL    HW113132  11.729   0.720  11.984
 3745SOL    HW213133  11.773   0.594  12.056
 3746SOL     OW13134   8.302   2.570   9.882
 3746SOL    HW113135   8.346   2.485   9.879
 3746SOL    HW213136   8.217   2.552   9.922
 3747SOL     OW13137   4.745   5.939   0.991
 3747SOL    HW113138   4.681   6.011   0.996
 3747SOL    HW213139   4.769   5.936   0.898
 3748SOL     OW13140   1.478  13.340  11.230
 3748SOL    HW113141   1.495  13.251  11.201
 3748SOL    HW213142   1.536  13.352  11.306
 3749SOL     OW13143   2.107   0.032   5.852
 3749SOL    HW113144   2.163   0.041   5.929
 3749SOL    HW213145   2.148   0.089   5.786
 3750SOL     OW13146  14.073   2.006   7.794
 3750SOL    HW113147  14.086   2.039   7.883
 3750SOL    HW213148  14.135   1.934   7.785
 3751SOL     OW13149  14.387   5.548   4.141
 3751SOL    HW113150  14.398   5.453   4.134
 3751SOL    HW213151  14.296   5.559   4.168
 3752SOL     OW13152   5.299   7.825   1.480
 3752SOL    HW113153   5.266   7.909   1.446
 3752SOL    HW213154   5.244   7.759   1.437
 3753SOL     OW13155  14.430   0.523   4.358
 3753SOL    HW113156  14.378   0.492   4.432
 3753SOL    HW213157  14.368   0.568   4.301
 3754SOL     OW13158  14.483   5.953   6.479
 3754SOL    HW113159  14.548   6.014   6.442
 3754SOL    HW213160  14.444   5.911   6.402
 3755SOL     OW13161   3.738  10.252  11.591
 3755SOL    HW113162   3.744  10.250  11.686
 3755SOL    HW213163   3.680  10.180  11.569
 3756SOL     OW13164   3.212   1.370  12.843
 3756SOL    HW113165   3.298   1.413  12.836
 3756SOL    HW213166   3.173   1.379  12.756
 3757SOL     OW13167   4.666  10.589   1.610
 3757SOL    HW113168   4.604  10.650   1.650
 3757SOL    HW213169   4.614  10.511   1.590
 3758SOL     OW13170   2.770   9.968   4.812
 3758SOL    HW113171   2.822   9.904   4.860
 3758SOL    HW213172   2.827   9.994   4.739
 3759SOL     OW13173  10.629  12.159   6.678
 3759SOL    HW113174  10.644  12.233   6.619
 3759SOL    HW213175  10.650  12.082   6.626
 3760SOL     OW13176   7.299   9.300   0.593
 3760SOL    HW113177   7.252   9.241   0.652
 3760SOL    HW213178   7.257   9.288   0.508
 3761SOL     OW13179   3.904   3.378   5.903
 3761SOL    HW113180   3.993   3.372   5.870
 3761SOL    HW213181   3.913   3.372   5.998
 3762SOL     OW13182   9.381   9.405   8.489
 3762SOL    HW113183   9.459   9.456   8.467
 3762SOL    HW213184   9.405   9.314   8.469
 3763SOL     OW13185   1.040   5.957   0.194
 3763SOL    HW113186   0.960   5.951   0.246
 3763SOL    HW213187   1.069   6.048   0.206
 3764SOL     OW13188   7.012  13.216   8.000
 3764SOL    HW113189   7.023  13.293   8.055
 3764SOL    HW213190   7.047  13.241   7.915
 3765SOL     OW13191   2.282   9.016   4.031
 3765SOL    HW113192   2.354   8.985   4.085
 3765SOL    HW213193   2.284   9.111   4.039
 3766SOL     OW13194   6.468   5.706   8.930
 3766SOL    HW113195   6.504   5.759   9.001
 3766SOL    HW213196   6.388   5.668   8.967
 3767SOL     OW13197   7.177  14.287   0.894
 3767SOL    HW113198   7.119  14.260   0.823
 3767SOL    HW213199   7.263  14.253   0.868
 3768SOL     OW13200  13.808  12.264   9.898
 3768SOL    HW113201  13.742  12.315   9.944
 3768SOL    HW213202  13.785  12.271   9.805
 3769SOL     OW13203   4.730   2.937   2.365
 3769SOL    HW113204   4.652   2.907   2.319
 3769SOL    HW213205   4.802   2.914   2.306
 3770SOL     OW13206  11.759   0.913   3.706
 3770SOL    HW113207  11.749   1.000   3.743
 3770SOL    HW213208  11.689   0.906   3.641
 3771SOL     OW13209   9.406   4.501   6.122
 3771SOL    HW113210   9.336   4.564   6.138
 3771SOL    HW213211   9.434   4.518   6.032
 3772SOL     OW13212  14.644   6.116   1.227
 3772SOL    HW113213  14.578   6.183   1.207
 3772SOL    HW213214  14.705   6.161   1.287
 3773SOL     OW13215   4.139   9.365  13.613
 3773SOL    HW113216   4.075   9.338  13.547
 3773SOL    HW213217   4.224   9.354  13.570
 3774SOL     OW13218   3.800   6.289   1.340
 3774SOL    HW113219   3.735   6.341   1.293
 3774SOL    HW213220   3.768   6.286   1.430
 3775SOL     OW13221   9.936   4.418   9.693
 3775SOL    HW113222   9.979   4.502   9.678
 3775SOL    HW213223   9.969   4.361   9.623
 3776SOL     OW13224  10.916   2.879  10.848
 3776SOL    HW113225  10.864   2.823  10.790
 3776SOL    HW213226  10.938   2.955  10.794
 3777SOL     OW13227   8.679   0.482   7.109
 3777SOL    HW113228   8.720   0.567   7.093
 3777SOL    HW213229   8.733   0.420   7.060
 3778SOL     OW13230   8.877  14.391  13.518
 3778SOL    HW113231   8.908  14.331  13.586
 3778SOL    HW213232   8.784  14.372  13.509
 3779SOL     OW13233  11.005   7.276  11.405
 3779SOL    HW113234  10.993   7.370  11.392
 3779SOL    HW213235  11.077   7.252  11.347
 3780SOL     OW13236  11.056  10.093   6.185
 3780SOL    HW113237  10.966  10.102   6.155
 3780SOL    HW213238  11.057  10.012   6.236
 3781SOL     OW13239  13.617  10.881   1.412
 3781SOL    HW113240  13.674  10.869   1.488
 3781SOL    HW213241  13.562  10.956   1.435
 3782SOL     OW13242   2.499   9.635  13.962
 3782SOL    HW113243   2.522   9.549  13.928
 3782SOL    HW213244   2.583   9.676  13.982
 3783SOL     OW13245   3.254  13.712   8.013
 3783SOL    HW113246   3.211  13.678   8.092
 3783SOL    HW213247   3.191  13.774   7.977
 3784SOL     OW13248  12.847  10.404  13.571
 3784SOL    HW113249  12.857  10.469  13.640
 3784SOL    HW213250  12.754  10.383  13.571
 3785SOL     OW13251   7.220   2.760  11.472
 3785SOL    HW113252   7.125   2.763  11.485
 3785SOL    HW213253   7.242   2.667  11.477
 3786SOL     OW13254   3.906  11.022  12.009
 3786SOL    HW113255   3.813  11.043  12.005
 3786SOL    HW213256   3.949  11.098  11.970
 3787SOL     OW13257   3.475   2.558   1.925
 3787SOL    HW113258   3.545   2.561   1.859
 3787SOL    HW213259   3.517   2.589   2.005
 3788SOL     OW13260   0.505   8.115  14.165
 3788SOL    HW113261   0.481   8.052  14.098
 3788SOL    HW213262   0.521   8.196  14.118
 3789SOL     OW13263   1.438   8.783  10.111
 3789SOL    HW113264   1.387   8.704  10.125
 3789SOL    HW213265   1.450   8.820  10.198
 3790SOL     OW13266   5.319  12.774   6.367
 3790SOL    HW113267   5.333  12.725   6.448
 3790SOL    HW213268   5.294  12.709   6.303
 3791SOL     OW13269   0.486  12.365   4.154
 3791SOL    HW113270   0.539  12.291   4.184
 3791SOL    HW213271   0.551  12.433   4.134
 3792SOL     OW13272   1.304  11.329   9.010
 3792SOL    HW113273   1.289  11.423   9.022
 3792SOL    HW213274   1.324  11.296   9.097
 3793SOL     OW13275  14.796   4.502   4.027
 3793SOL    HW113276  14.762   4.565   3.963
 3793SOL    HW213277  14.718   4.470   4.072
 3794SOL     OW13278   3.697   1.577   8.622
 3794SOL    HW113279   3.632   1.537   8.565
 3794SOL    HW213280   3.732   1.504   8.673
 3795SOL     OW13281   8.896   5.098   2.413
 3795SOL    HW113282   8.923   5.025   2.469
 3795SOL    HW213283   8.973   5.116   2.358
 3796SOL     OW13284   2.583   4.986  13.478
 3796SOL    HW113285   2.566   4.893  13.492
 3796SOL    HW213286   2.496   5.027  13.482
 3797SOL     OW13287  11.452   3.976   9.141
 3797SOL    HW113288  11.539   3.996   9.109
 3797SOL    HW213289  11.399   4.051   9.116
 3798SOL     OW13290  12.916   8.260  12.946
 3798SOL    HW113291  12.868   8.338  12.919
 3798SOL    HW213292  13.008   8.285  12.941
 3799SOL     OW13293   6.439   4.160  12.589
 3799SOL    HW113294   6.425   4.132  12.499
 3799SOL    HW213295   6.409   4.086  12.642
 3800SOL     OW13296   0.781  10.863   1.914
 3800SOL    HW113297   0.776  10.770   1.936
 3800SOL    HW213298   0.849  10.898   1.971
 3801SOL     OW13299   9.274   2.943   6.645
 3801SOL    HW113300   9.218   2.986   6.580
 3801SOL    HW213301   9.329   2.885   6.592
 3802SOL     OW13302   3.359  10.062   2.142
 3802SOL    HW113303   3.376   9.979   2.187
 3802SOL    HW213304   3.445  10.103   2.134
 3803SOL     OW13305   0.903   8.537   9.084
 3803SOL    HW113306   0.949   8.560   9.003
 3803SOL    HW213307   0.874   8.447   9.070
 3804SOL     OW13308   7.254   7.768   6.980
 3804SOL    HW113309   7.337   7.812   6.995
 3804SOL    HW213310   7.189   7.824   7.022
 3805SOL     OW13311  12.738   6.815   0.970
 3805SOL    HW113312  12.746   6.883   1.036
 3805SOL    HW213313  12.828   6.786   0.954
 3806SOL     OW13314   6.775  12.197   4.719
 3806SOL    HW113315   6.858  12.176   4.677
 3806SOL    HW213316   6.800  12.238   4.802
 3807SOL     OW13317   0.367  13.921  14.593
 3807SOL    HW113318   0.455  13.907  14.628
 3807SOL    HW213319   0.341  14.007  14.626
 3808SOL     OW13320  14.760   4.020  11.633
 3808SOL    HW113321  14.694   3.980  11.689
 3808SOL    HW213322  14.837   3.964  11.642
 3809SOL     OW13323   2.932  11.162   8.035
 3809SOL    HW113324   2.930  11.232   8.100
 3809SOL    HW213325   2.978  11.200   7.960
 3810SOL     OW13326   8.728   2.245  12.807
 3810SOL    HW113327   8.730   2.163  12.758
 3810SOL    HW213328   8.738   2.219  12.899
 3811SOL     OW13329   0.030   8.343   8.643
 3811SOL    HW113330   0.002   8.433   8.628
 3811SOL    HW213331   0.013   8.299   8.560
 3812SOL     OW13332  11.169  13.087   2.941
 3812SOL    HW113333  11.156  13.142   2.864
 3812SOL    HW213334  11.259  13.103   2.967
 3813SOL     OW13335   1.955  10.547   2.581
 3813SOL    HW113336   1.930  10.507   2.665
 3813SOL    HW213337   1.934  10.480   2.516
 3814SOL     OW13338   4.118   7.018   3.962
 3814SOL    HW113339   4.035   7.053   3.996
 3814SOL    HW213340   4.158   7.091   3.914
 3815SOL     OW13341  13.267  14.857  14.549
 3815SOL    HW113342  13.187  14.819  14.585
 3815SOL    HW213343  13.324  14.869  14.625
 3816SOL     OW13344   1.828   9.604   9.843
 3816SOL    HW113345   1.907   9.550   9.837
 3816SOL    HW213346   1.821   9.647   9.758
 3817SOL     OW13347  14.158  14.173   4.536
 3817SOL    HW113348  14.179  14.266   4.532
 3817SOL    HW213349  14.099  14.159   4.462
 3818SOL     OW13350  12.882  10.113   6.675
 3818SOL    HW113351  12.961  10.059   6.669
 3818SOL    HW213352  12.810  10.051   6.663
 3819SOL     OW13353  11.726  13.099  13.600
 3819SOL    HW113354  11.780  13.021  13.586
 3819SOL    HW213355  11.761  13.164  13.539
 3820SOL     OW13356   1.020  10.137   1.286
 3820SOL    HW113357   0.972  10.076   1.230
 3820SOL    HW213358   1.104  10.093   1.303
 3821SOL     OW13359   2.081  14.742   4.826
 3821SOL    HW113360   2.171  14.712   4.834
 3821SOL    HW213361   2.085  14.836   4.840
 3822SOL     OW13362   8.779  11.122   9.179
 3822SOL    HW113363   8.727  11.125   9.259
 3822SOL    HW213364   8.863  11.084   9.206
 3823SOL     OW13365  12.663   6.946   2.722
 3823SOL    HW113366  12.715   6.910   2.650
 3823SOL    HW213367  12.585   6.891   2.726
 3824SOL     OW13368   3.340   8.146  10.152
 3824SOL    HW113369   3.386   8.192  10.082
 3824SOL    HW213370   3.341   8.054  10.126
 3825SOL     OW13371   1.226  14.798  13.910
 3825SOL    HW113372   1.163  14.824  13.977
 3825SOL    HW213373   1.209  14.706  13.894
 3826SOL     OW13374  11.950  14.659   6.107
 3826SOL    HW113375  11.939  14.564   6.113
 3826SOL    HW213376  12.043  14.674   6.126
 3827SOL     OW13377  14.782   0.353   0.084
 3827SOL    HW113378  14.818   0.271   0.051
 3827SOL    HW213379  14.705   0.369   0.031
 3828SOL     OW13380  14.007  13.923   3.681
 3828SOL    HW113381  14.011  13.831   3.654
 3828SOL    HW213382  14.087  13.962   3.646
 3829SOL     OW13383   5.138  14.133   2.525
 3829SOL    HW113384   5.092  14.093   2.450
 3829SOL    HW213385   5.224  14.091   2.525
 3830SOL     OW13386   0.212   7.042   5.015
 3830SOL    HW113387   0.187   7.045   4.923
 3830SOL    HW213388   0.183   7.126   5.050
 3831SOL     OW13389  14.492   0.186   3.624
 3831SOL    HW113390  14.488   0.137   3.706
 3831SOL    HW213391  14.419   0.248   3.629
 3832SOL     OW13392   3.441   7.446   2.962
 3832SOL    HW113393   3.381   7.516   2.937
 3832SOL    HW213394   3.493   7.429   2.883
 3833SOL     OW13395   9.265   9.116   5.517
 3833SOL    HW113396   9.182   9.139   5.558
 3833SOL    HW213397   9.251   9.030   5.478
 3834SOL     OW13398   9.545   5.646   0.642
 3834SOL    HW113399   9.534   5.649   0.737
 3834SOL    HW213400   9.603   5.719   0.622
 3835SOL     OW13401   1.196  13.141   4.482
 3835SOL    HW113402   1.101  13.139   4.497
 3835SOL    HW213403   1.231  13.191   4.556
 3836SOL     OW13404   5.495  13.869  13.417
 3836SOL    HW113405   5.434  13.796  13.425
 3836SOL    HW213406   5.508  13.879  13.322
 3837SOL     OW13407  10.585   9.176   5.268
 3837SOL    HW113408  10.644   9.219   5.206
 3837SOL    HW213409  10.502   9.223   5.258
 3838SOL     OW13410   0.665   0.331   1.909
 3838SOL    HW113411   0.676   0.267   1.979
 3838SOL    HW213412   0.735   0.395   1.923
 3839SOL     OW13413   7.920  11.847  11.237
 3839SOL    HW113414   7.997  11.848  11.181
 3839SOL    HW213415   7.886  11.937  11.233
 3840SOL     OW13416   4.336   2.000  12.275
 3840SOL    HW113417   4.412   2.057  12.281
 3840SOL    HW213418   4.293   2.026  12.193
 3841SOL     OW13419  11.693   6.663   1.473
 3841SOL    HW113420  11.785   6.662   1.446
 3841SOL    HW213421  11.687   6.735   1.535
 3842SOL     OW13422   1.524   3.426   2.775
 3842SOL    HW113423   1.533   3.380   2.692
 3842SOL    HW213424   1.486   3.361   2.835
 3843SOL     OW13425   7.121   5.845   4.716
 3843SOL    HW113426   7.137   5.851   4.622
 3843SOL    HW213427   7.030   5.872   4.727
 3844SOL     OW13428   4.688   1.325   5.555
 3844SOL    HW113429   4.726   1.410   5.530
 3844SOL    HW213430   4.617   1.348   5.615
 3845SOL     OW13431   8.233  14.181   1.794
 3845SOL    HW113432   8.187  14.097   1.806
 3845SOL    HW213433   8.239  14.217   1.882
 3846SOL     OW13434   0.141  10.546   1.036
 3846SOL    HW113435   0.083  10.570   0.963
 3846SOL    HW213436   0.086  10.553   1.114
 3847SOL     OW13437  12.370  12.282  13.132
 3847SOL    HW113438  12.315  12.231  13.191
 3847SOL    HW213439  12.315  12.356  13.106
 3848SOL     OW13440  11.224  14.130   0.496
 3848SOL    HW113441  11.283  14.109   0.569
 3848SOL    HW213442  11.192  14.218   0.516
 3849SOL     OW13443  12.621   8.743   5.211
 3849SOL    HW113444  12.535   8.713   5.180
 3849SOL    HW213445  12.633   8.698   5.295
 3850SOL     OW13446   7.467   4.244  14.436
 3850SOL    HW113447   7.420   4.188  14.374
 3850SOL    HW213448   7.477   4.328  14.391
 3851SOL     OW13449   7.491  12.831   1.833
 3851SOL    HW113450   7.561  12.894   1.853
 3851SOL    HW213451   7.500  12.763   1.900
 3852SOL     OW13452   1.276   2.118   0.947
 3852SOL    HW113453   1.203   2.179   0.938
 3852SOL    HW213454   1.321   2.147   1.026
 3853SOL     OW13455   3.652  11.969  14.243
 3853SOL    HW113456   3.622  11.904  14.307
 3853SOL    HW213457   3.592  11.959  14.169
 3854SOL     OW13458  11.342   6.903  10.238
 3854SOL    HW113459  11.301   6.844  10.175
 3854SOL    HW213460  11.398   6.959  10.185
 3855SOL     OW13461   1.209  10.144  14.142
 3855SOL    HW113462   1.286  10.126  14.196
 3855SOL    HW213463   1.144  10.079  14.170
 3856SOL     OW13464   9.347  13.387  13.581
 3856SOL    HW113465   9.287  13.362  13.511
 3856SOL    HW213466   9.350  13.310  13.639
 3857SOL     OW13467  10.355   5.848   5.180
 3857SOL    HW113468  10.387   5.835   5.091
 3857SOL    HW213469  10.285   5.912   5.172
 3858SOL     OW13470  13.829  14.509  11.912
 3858SOL    HW113471  13.853  14.425  11.951
 3858SOL    HW213472  13.752  14.489  11.859
 3859SOL     OW13473   6.952  12.223   6.945
 3859SOL    HW113474   6.974  12.132   6.923
 3859SOL    HW213475   6.857  12.222   6.957
 3860SOL     OW13476  11.412   1.005   4.679
 3860SOL    HW113477  11.350   0.934   4.699
 3860SOL    HW213478  11.357   1.073   4.638
 3861SOL     OW13479   9.534   6.771  12.797
 3861SOL    HW113480   9.577   6.853  12.773
 3861SOL    HW213481   9.442   6.793  12.805
 3862SOL     OW13482  12.379   0.527  10.215
 3862SOL    HW113483  12.410   0.617  10.205
 3862SOL    HW213484  12.314   0.532  10.285
 3863SOL     OW13485  11.854   2.440  13.011
 3863SOL    HW113486  11.923   2.450  13.077
 3863SOL    HW213487  11.902   2.419  12.931
 3864SOL     OW13488  14.484   3.367   0.553
 3864SOL    HW113489  14.448   3.324   0.631
 3864SOL    HW213490  14.445   3.455   0.555
 3865SOL     OW13491  14.446   0.635  14.160
 3865SOL    HW113492  14.435   0.673  14.073
 3865SOL    HW213493  14.537   0.653  14.183
 3866SOL     OW13494   5.039   6.013  14.628
 3866SOL    HW113495   5.105   5.951  14.658
 3866SOL    HW213496   5.062   6.096  14.670
 3867SOL     OW13497   0.950   2.171   8.185
 3867SOL    HW113498   0.872   2.163   8.130
 3867SOL    HW213499   1.011   2.107   8.149
 3868SOL     OW13500  14.380  11.667   1.732
 3868SOL    HW113501  14.373  11.742   1.791
 3868SOL    HW213502  14.437  11.605   1.777
 3869SOL     OW13503   8.359   6.969   0.790
 3869SOL    HW113504   8.420   6.904   0.824
 3869SOL    HW213505   8.413   7.045   0.770
 3870SOL     OW13506   9.724   0.620   5.483
 3870SOL    HW113507   9.808   0.604   5.439
 3870SOL    HW213508   9.716   0.548   5.547
 3871SOL     OW13509   2.472   3.059  11.038
 3871SOL    HW113510   2.464   3.109  10.957
 3871SOL    HW213511   2.556   3.013  11.030
 3872SOL     OW13512   0.648   8.624  12.846
 3872SOL    HW113513   0.583   8.638  12.778
 3872SOL    HW213514   0.598   8.593  12.921
 3873SOL     OW13515   5.700   3.537   4.248
 3873SOL    HW113516   5.743   3.592   4.182
 3873SOL    HW213517   5.755   3.547   4.326
 3874SOL     OW13518   1.198  11.899   2.711
 3874SOL    HW113519   1.124  11.893   2.771
 3874SOL    HW213520   1.238  11.984   2.730
 3875SOL     OW13521   5.256   1.187   7.181
 3875SOL    HW113522   5.277   1.146   7.097
 3875SOL    HW213523   5.261   1.281   7.164
 3876SOL     OW13524  11.008   0.599   6.771
 3876SOL    HW113525  11.009   0.530   6.704
 3876SOL    HW213526  10.956   0.562   6.842
 3877SOL     OW13527   1.141  12.911  12.686
 3877SOL    HW113528   1.123  12.823  12.653
 3877SOL    HW213529   1.232  12.908  12.713
 3878SOL     OW13530   1.207  10.179   0.543
 3878SOL    HW113531   1.279  10.121   0.567
 3878SOL    HW213532   1.226  10.204   0.452
 3879SOL     OW13533  10.422   9.123   7.874
 3879SOL    HW113534  10.330   9.134   7.849
 3879SOL    HW213535  10.450   9.044   7.827
 3880SOL     OW13536  14.640   9.379   0.552
 3880SOL    HW113537  14.579   9.438   0.597
 3880SOL    HW213538  14.607   9.292   0.572
 3881SOL     OW13539   5.825   9.005   4.179
 3881SOL    HW113540   5.763   8.996   4.251
 3881SOL    HW213541   5.893   9.063   4.212
 3882SOL     OW13542   9.936   2.667   6.011
 3882SOL    HW113543   9.967   2.590   6.059
 3882SOL    HW213544   9.920   2.733   6.078
 3883SOL     OW13545  12.906  13.424  12.696
 3883SOL    HW113546  12.926  13.340  12.736
 3883SOL    HW213547  12.883  13.403  12.606
 3884SOL     OW13548  10.897  12.771   0.162
 3884SOL    HW113549  10.819  12.758   0.108
 3884SOL    HW213550  10.864  12.794   0.249
 3885SOL     OW13551   9.911   6.179  11.282
 3885SOL    HW113552   9.819   6.157  11.294
 3885SOL    HW213553   9.959   6.099  11.302
 3886SOL     OW13554   1.350   7.476  12.109
 3886SOL    HW113555   1.370   7.536  12.181
 3886SOL    HW213556   1.419   7.492  12.045
 3887SOL     OW13557   8.912   8.655   9.656
 3887SOL    HW113558   8.966   8.659   9.577
 3887SOL    HW213559   8.908   8.562   9.678
 3888SOL     OW13560   3.959  11.992   4.311
 3888SOL    HW113561   3.962  12.076   4.265
 3888SOL    HW213562   3.868  11.965   4.306
 3889SOL     OW13563  12.730  13.127   3.883
 3889SOL    HW113564  12.706  13.054   3.826
 3889SOL    HW213565  12.774  13.189   3.826
 3890SOL     OW13566   1.405   7.546   2.091
 3890SOL    HW113567   1.323   7.563   2.137
 3890SOL    HW213568   1.398   7.598   2.010
 3891SOL     OW13569  12.346   3.961   6.288
 3891SOL    HW113570  12.386   3.935   6.205
 3891SOL    HW213571  12.321   3.879   6.330
 3892SOL     OW13572  10.446   5.801   6.074
 3892SOL    HW113573  10.471   5.875   6.019
 3892SOL    HW213574  10.495   5.814   6.155
 3893SOL     OW13575   3.907   3.788   4.403
 3893SOL    HW113576   3.941   3.731   4.334
 3893SOL    HW213577   3.826   3.747   4.431
 3894SOL     OW13578  11.968  11.573   6.073
 3894SOL    HW113579  11.899  11.507   6.064
 3894SOL    HW213580  12.042  11.524   6.108
 3895SOL     OW13581  10.619   1.350  12.531
 3895SOL    HW113582  10.638   1.265  12.492
 3895SOL    HW213583  10.675   1.354  12.609
 3896SOL     OW13584   0.087   8.516  11.459
 3896SOL    HW113585   0.030   8.517  11.382
 3896SOL    HW213586   0.149   8.445  11.442
 3897SOL     OW13587  13.900  13.495   9.063
 3897SOL    HW113588  13.884  13.514   9.156
 3897SOL    HW213589  13.869  13.405   9.052
 3898SOL     OW13590   0.102   7.524   3.756
 3898SOL    HW113591   0.075   7.569   3.676
 3898SOL    HW213592   0.128   7.436   3.727
 3899SOL     OW13593   9.733  14.312   3.774
 3899SOL    HW113594   9.736  14.249   3.702
 3899SOL    HW213595   9.722  14.397   3.731
 3900SOL     OW13596   7.370  11.604   7.078
 3900SOL    HW113597   7.304  11.579   7.012
 3900SOL    HW213598   7.381  11.698   7.065
 3901SOL     OW13599   7.721  10.846  14.214
 3901SOL    HW113600   7.815  10.859  14.204
 3901SOL    HW213601   7.709  10.751  14.207
 3902SOL     OW13602   0.502  12.411   2.025
 3902SOL    HW113603   0.468  12.322   2.039
 3902SOL    HW213604   0.571  12.399   1.960
 3903SOL     OW13605   7.187   6.903   5.977
 3903SOL    HW113606   7.148   6.822   5.945
 3903SOL    HW213607   7.281   6.888   5.971
 3904SOL     OW13608  11.307   6.880   7.502
 3904SOL    HW113609  11.355   6.960   7.481
 3904SOL    HW213610  11.217   6.910   7.519
 3905SOL     OW13611   4.767  13.972  10.268
 3905SOL    HW113612   4.860  13.951  10.280
 3905SOL    HW213613   4.745  14.025  10.345
 3906SOL     OW13614   5.079   5.189  12.939
 3906SOL    HW113615   5.015   5.135  12.986
 3906SOL    HW213616   5.067   5.165  12.847
 3907SOL     OW13617   7.522  11.597  10.074
 3907SOL    HW113618   7.548  11.690  10.073
 3907SOL    HW213619   7.567  11.561  10.151
 3908SOL     OW13620   2.165  13.536   2.616
 3908SOL    HW113621   2.241  13.510   2.565
 3908SOL    HW213622   2.109  13.583   2.555
 3909SOL     OW13623  12.633   1.761   4.370
 3909SOL    HW113624  12.563   1.725   4.317
 3909SOL    HW213625  12.657   1.843   4.325
 3910SOL     OW13626  11.431   2.600   0.766
 3910SOL    HW113627  11.422   2.561   0.853
 3910SOL    HW213628  11.519   2.638   0.766
 3911SOL     OW13629   4.937   8.142   1.473
 3911SOL    HW113630   5.018   8.102   1.442
 3911SOL    HW213631   4.892   8.171   1.394
 3912SOL     OW13632   5.120   6.975   1.698
 3912SOL    HW113633   5.089   7.011   1.615
 3912SOL    HW213634   5.172   6.899   1.674
 3913SOL     OW13635   7.622   3.019   1.772
 3913SOL    HW113636   7.567   3.088   1.808
 3913SOL    HW213637   7.700   3.018   1.828
 3914SOL     OW13638   6.005   8.619  13.688
 3914SOL    HW113639   6.043   8.543  13.731
 3914SOL    HW213640   5.920   8.631  13.731
 3915SOL     OW13641   6.609   4.164  10.628
 3915SOL    HW113642   6.627   4.181  10.536
 3915SOL    HW213643   6.518   4.134  10.630
 3916SOL     OW13644   6.405   3.935   1.428
 3916SOL    HW113645   6.491   3.936   1.386
 3916SOL    HW213646   6.397   3.846   1.464
 3917SOL     OW13647   3.561   6.841   8.092
 3917SOL    HW113648   3.466   6.845   8.081
 3917SOL    HW213649   3.595   6.897   8.022
 3918SOL     OW13650   9.581   9.846   1.484
 3918SOL    HW113651   9.612   9.841   1.394
 3918SOL    HW213652   9.660   9.837   1.537
 3919SOL     OW13653   1.237   7.843   5.950
 3919SOL    HW113654   1.309   7.847   5.886
 3919SOL    HW213655   1.176   7.779   5.913
 3920SOL     OW13656   1.410   6.751   2.611
 3920SOL    HW113657   1.345   6.787   2.672
 3920SOL    HW213658   1.417   6.659   2.634
 3921SOL     OW13659   8.744  14.195   9.630
 3921SOL    HW113660   8.784  14.236   9.553
 3921SOL    HW213661   8.817  14.151   9.673
 3922SOL     OW13662   8.596   7.128   5.366
 3922SOL    HW113663   8.608   7.041   5.328
 3922SOL    HW213664   8.642   7.187   5.307
 3923SOL     OW13665  11.527   7.276  11.495
 3923SOL    HW113666  11.515   7.363  11.533
 3923SOL    HW213667  11.477   7.217  11.551
 3924SOL     OW13668   8.559   9.758  11.031
 3924SOL    HW113669   8.628   9.757  10.964
 3924SOL    HW213670   8.534   9.666  11.042
 3925SOL     OW13671   2.353  11.000   4.412
 3925SOL    HW113672   2.331  10.965   4.326
 3925SOL    HW213673   2.409  10.934   4.452
 3926SOL     OW13674  13.478  12.439   9.562
 3926SOL    HW113675  13.484  12.534   9.577
 3926SOL    HW213676  13.419  12.431   9.487
 3927SOL     OW13677   3.107  13.392  10.841
 3927SOL    HW113678   3.190  13.350  10.864
 3927SOL    HW213679   3.105  13.391  10.745
 3928SOL     OW13680  10.100   2.309   3.938
 3928SOL    HW113681  10.086   2.239   4.003
 3928SOL    HW213682  10.019   2.310   3.887
 3929SOL     OW13683  11.804  11.284   8.613
 3929SOL    HW113684  11.736  11.341   8.649
 3929SOL    HW213685  11.869  11.343   8.575
 3930SOL     OW13686   1.868  13.305   2.301
 3930SOL    HW113687   1.825  13.335   2.381
 3930SOL    HW213688   1.958  13.338   2.309
 3931SOL     OW13689   8.236   5.537   6.757
 3931SOL    HW113690   8.141   5.550   6.756
 3931SOL    HW213691   8.249   5.455   6.804
 3932SOL     OW13692   8.369   7.349   2.723
 3932SOL    HW113693   8.302   7.305   2.775
 3932SOL    HW213694   8.436   7.282   2.708
 3933SOL     OW13695   9.326  13.381   9.726
 3933SOL    HW113696   9.412  13.374   9.684
 3933SOL    HW213697   9.271  13.423   9.660
 3934SOL     OW13698   3.741   3.209   4.332
 3934SOL    HW113699   3.821   3.236   4.376
 3934SOL    HW213700   3.768   3.196   4.241
 3935SOL     OW13701   4.990   9.213   1.268
 3935SOL    HW113702   5.050   9.286   1.278
 3935SOL    HW213703   5.020   9.148   1.331
 3936SOL     OW13704  11.581   0.771   9.135
 3936SOL    HW113705  11.627   0.849   9.105
 3936SOL    HW213706  11.526   0.802   9.207
 3937SOL     OW13707  12.169   0.619   5.085
 3937SOL    HW113708  12.080   0.587   5.069
 3937SOL    HW213709  12.175   0.629   5.180
 3938SOL     OW13710   9.883  11.158   7.328
 3938SOL    HW113711   9.891  11.235   7.383
 3938SOL    HW213712   9.945  11.095   7.366
 3939SOL     OW13713  12.814   9.602   8.009
 3939SOL    HW113714  12.789   9.542   7.938
 3939SOL    HW213715  12.825   9.545   8.085
 3940SOL     OW13716   7.267   7.557  14.331
 3940SOL    HW113717   7.300   7.612  14.260
 3940SOL    HW213718   7.284   7.607  14.411
 3941SOL     OW13719   2.291   5.108   9.002
 3941SOL    HW113720   2.324   5.197   8.994
 3941SOL    HW213721   2.238   5.108   9.081
 3942SOL     OW13722   9.080   1.376  10.782
 3942SOL    HW113723   9.025   1.427  10.841
 3942SOL    HW213724   9.075   1.286  10.816
 3943SOL     OW13725   2.299  14.323  11.684
 3943SOL    HW113726   2.372  14.288  11.633
 3943SOL    HW213727   2.253  14.380  11.622
 3944SOL     OW13728  13.355   5.498   9.808
 3944SOL    HW113729  13.309   5.489   9.891
 3944SOL    HW213730  13.378   5.408   9.783
 3945SOL     OW13731  12.858   6.849   6.780
 3945SOL    HW113732  12.943   6.882   6.752
 3945SOL    HW213733  12.797   6.877   6.711
 3946SOL     OW13734   8.168   5.650   3.690
 3946SOL    HW113735   8.085   5.694   3.672
 3946SOL    HW213736   8.147   5.557   3.691
 3947SOL     OW13737   5.773   6.396   7.364
 3947SOL    HW113738   5.691   6.445   7.368
 3947SOL    HW213739   5.832   6.454   7.316
 3948SOL     OW13740   9.890   0.415  10.380
 3948SOL    HW113741   9.806   0.421  10.335
 3948SOL    HW213742   9.878   0.347  10.446
 3949SOL     OW13743  10.478   2.348   6.918
 3949SOL    HW113744  10.468   2.314   7.006
 3949SOL    HW213745  10.466   2.272   6.861
 3950SOL     OW13746  10.417   4.342  13.157
 3950SOL    HW113747  10.480   4.395  13.109
 3950SOL    HW213748  10.452   4.338  13.246
 3951SOL     OW13749   4.122   3.812  12.983
 3951SOL    HW113750   4.098   3.789  12.894
 3951SOL    HW213751   4.054   3.873  13.012
 3952SOL     OW13752   8.352  12.991  12.200
 3952SOL    HW113753   8.316  12.978  12.288
 3952SOL    HW213754   8.275  13.001  12.144
 3953SOL     OW13755  13.344  14.633   9.232
 3953SOL    HW113756  13.398  14.658   9.307
 3953SOL    HW213757  13.324  14.716   9.188
 3954SOL     OW13758   9.401   0.300   4.670
 3954SOL    HW113759   9.380   0.394   4.673
 3954SOL    HW213760   9.381   0.274   4.580
 3955SOL     OW13761   0.953   6.772   8.778
 3955SOL    HW113762   1.034   6.745   8.821
 3955SOL    HW213763   0.885   6.723   8.822
 3956SOL     OW13764  12.946  14.099   5.130
 3956SOL    HW113765  12.898  14.133   5.205
 3956SOL    HW213766  12.885  14.106   5.057
 3957SOL     OW13767   4.892   2.771   7.165
 3957SOL    HW113768   4.873   2.796   7.074
 3957SOL    HW213769   4.828   2.703   7.184
 3958SOL     OW13770  13.510   5.672  14.019
 3958SOL    HW113771  13.488   5.580  14.030
 3958SOL    HW213772  13.605   5.673  14.009
 3959SOL     OW13773  12.919   0.578   1.222
 3959SOL    HW113774  12.946   0.548   1.135
 3959SOL    HW213775  12.824   0.587   1.216
 3960SOL     OW13776   0.627  13.185   2.978
 3960SOL    HW113777   0.710  13.217   3.013
 3960SOL    HW213778   0.640  13.182   2.883
 3961SOL     OW13779   6.994   6.713  11.363
 3961SOL    HW113780   7.035   6.651  11.303
 3961SOL    HW213781   7.044   6.794  11.352
 3962SOL     OW13782   2.990  14.257   3.736
 3962SOL    HW113783   3.047  14.185   3.708
 3962SOL    HW213784   2.901  14.223   3.725
 3963SOL     OW13785   6.334   9.092  13.378
 3963SOL    HW113786   6.402   9.030  13.350
 3963SOL    HW213787   6.380   9.153  13.435
 3964SOL     OW13788   2.890   9.969  12.479
 3964SOL    HW113789   2.940   9.899  12.523
 3964SOL    HW213790   2.805   9.968  12.522
 3965SOL     OW13791   8.192   8.304   5.833
 3965SOL    HW113792   8.098   8.305   5.816
 3965SOL    HW213793   8.222   8.391   5.806
 3966SOL     OW13794  11.780   7.445   1.637
 3966SOL    HW113795  11.723   7.522   1.631
 3966SOL    HW213796  11.750   7.388   1.566
 3967SOL     OW13797   2.361  10.013   8.926
 3967SOL    HW113798   2.365  10.086   8.988
 3967SOL    HW213799   2.402  10.048   8.846
 3968SOL     OW13800  11.774   3.291   5.560
 3968SOL    HW113801  11.716   3.367   5.564
 3968SOL    HW213802  11.720   3.220   5.526
 3969SOL     OW13803  14.768   1.797  12.619
 3969SOL    HW113804  14.782   1.870  12.559
 3969SOL    HW213805  14.704   1.829  12.683
 3970SOL     OW13806   6.896   2.657   2.398
 3970SOL    HW113807   6.801   2.662   2.383
 3970SOL    HW213808   6.929   2.742   2.371
 3971SOL     OW13809   6.599   6.620  14.294
 3971SOL    HW113810   6.632   6.530  14.299
 3971SOL    HW213811   6.677   6.675  14.302
 3972SOL     OW13812   2.303   3.564   7.579
 3972SOL    HW113813   2.336   3.651   7.555
 3972SOL    HW213814   2.377   3.505   7.560
 3973SOL     OW13815   1.479  13.474   4.431
 3973SOL    HW113816   1.431  13.394   4.410
 3973SOL    HW213817   1.570  13.453   4.412
 3974SOL     OW13818   3.616   8.108   2.716
 3974SOL    HW113819   3.582   8.192   2.682
 3974SOL    HW213820   3.705   8.103   2.683
 3975SOL     OW13821   6.868   3.015  10.780
 3975SOL    HW113822   6.866   3.106  10.811
 3975SOL    HW213823   6.952   3.007  10.735
 3976SOL     OW13824   0.926   9.347   4.144
 3976SOL    HW113825   1.000   9.286   4.136
 3976SOL    HW213826   0.876   9.335   4.064
 3977SOL     OW13827   9.064  11.355   3.314
 3977SOL    HW113828   8.977  11.364   3.353
 3977SOL    HW213829   9.050  11.303   3.235
 3978SOL     OW13830   1.192   2.937   1.511
 3978SOL    HW113831   1.269   2.919   1.457
 3978SOL    HW213832   1.222   2.923   1.601
 3979SOL     OW13833   2.330  13.996   5.595
 3979SOL    HW113834   2.288  13.912   5.614
 3979SOL    HW213835   2.329  14.003   5.500
 3980SOL     OW13836  13.179   9.609   7.028
 3980SOL    HW113837  13.164   9.686   7.083
 3980SOL    HW213838  13.091   9.577   7.008
 3981SOL     OW13839  11.336  13.739   4.048
 3981SOL    HW113840  11.265  13.676   4.037
 3981SOL    HW213841  11.299  13.808   4.103
 3982SOL     OW13842   1.252   1.603   7.460
 3982SOL    HW113843   1.260   1.657   7.539
 3982SOL    HW213844   1.329   1.547   7.461
 3983SOL     OW13845  10.058   0.460   1.373
 3983SOL    HW113846  10.010   0.453   1.291
 3983SOL    HW213847  10.150   0.462   1.347
 3984SOL     OW13848   9.411  11.048  11.474
 3984SOL    HW113849   9.379  11.102  11.545
 3984SOL    HW213850   9.418  10.960  11.512
 3985SOL     OW13851   5.014   9.655   0.429
 3985SOL    HW113852   5.025   9.640   0.523
 3985SOL    HW213853   5.094   9.621   0.390
 3986SOL     OW13854   8.459  10.755   6.724
 3986SOL    HW113855   8.528  10.690   6.727
 3986SOL    HW213856   8.418  10.750   6.811
 3987SOL     OW13857   4.488   6.245   4.374
 3987SOL    HW113858   4.507   6.170   4.318
 3987SOL    HW213859   4.500   6.212   4.463
 3988SOL     OW13860  14.095   9.041   6.381
 3988SOL    HW113861  14.026   8.977   6.364
 3988SOL    HW213862  14.048   9.119   6.412
 3989SOL     OW13863   2.656   0.892   1.811
 3989SOL    HW113864   2.654   0.796   1.805
 3989SOL    HW213865   2.618   0.922   1.729
 3990SOL     OW13866   8.394  14.260  12.868
 3990SOL    HW113867   8.398  14.308  12.950
 3990SOL    HW213868   8.448  14.310  12.807
 3991SOL     OW13869  11.381   2.392   3.402
 3991SOL    HW113870  11.417   2.476   3.430
 3991SOL    HW213871  11.415   2.380   3.313
 3992SOL     OW13872  12.613  13.774  14.866
 3992SOL    HW113873  12.674  13.836   0.024
 3992SOL    HW213874  12.655  13.748  14.784
 3993SOL     OW13875  10.762  13.797   0.554
 3993SOL    HW113876  10.780  13.773   0.463
 3993SOL    HW213877  10.678  13.843   0.550
 3994SOL     OW13878  14.842  12.815   2.161
 3994SOL    HW113879  14.748  12.808   2.147
 3994SOL    HW213880  14.879  12.829   2.073
 3995SOL     OW13881   0.619   2.114   4.032
 3995SOL    HW113882   0.681   2.072   3.972
 3995SOL    HW213883   0.592   2.044   4.091
 3996SOL     OW13884  11.497  11.273   2.207
 3996SOL    HW113885  11.554  11.197   2.223
 3996SOL    HW213886  11.412  11.235   2.187
 3997SOL     OW13887  11.374   5.470   8.992
 3997SOL    HW113888  11.327   5.551   8.972
 3997SOL    HW213889  11.421   5.489   9.073
 3998SOL     OW13890  11.658   2.879   7.000
 3998SOL    HW113891  11.566   2.859   7.013
 3998SOL    HW213892  11.704   2.817   7.057
 3999SOL     OW13893  13.367   6.960   9.380
 3999SOL    HW113894  13.278   6.989   9.362
 3999SOL    HW213895  13.417   6.988   9.304
 4000SOL     OW13896   5.426   1.589  13.535
 4000SOL    HW113897   5.331   1.601  13.534
 4000SOL    HW213898   5.440   1.502  13.497
 4001SOL     OW13899   1.700   9.109   2.319
 4001SOL    HW113900   1.655   9.154   2.247
 4001SOL    HW213901   1.782   9.157   2.330
 4002SOL     OW13902   5.742   4.768   1.130
 4002SOL    HW113903   5.729   4.852   1.174
 4002SOL    HW213904   5.656   4.747   1.093
 4003SOL     OW13905   4.041   3.722   5.689
 4003SOL    HW113906   4.010   3.723   5.779
 4003SOL    HW213907   3.964   3.701   5.637
 4004SOL     OW13908  12.283   4.052   2.027
 4004SOL    HW113909  12.292   4.125   1.966
 4004SOL    HW213910  12.194   4.060   2.061
 4005SOL     OW13911  10.167  14.011  12.567
 4005SOL    HW113912  10.230  14.071  12.527
 4005SOL    HW213913  10.180  13.928  12.521
 4006SOL     OW13914  13.019   1.008  12.628
 4006SOL    HW113915  13.109   1.014  12.661
 4006SOL    HW213916  12.966   0.993  12.706
 4007SOL     OW13917   5.542   9.811  11.095
 4007SOL    HW113918   5.626   9.765  11.095
 4007SOL    HW213919   5.476   9.742  11.085
 4008SOL     OW13920   5.632   2.089  14.137
 4008SOL    HW113921   5.727   2.094  14.124
 4008SOL    HW213922   5.621   2.026  14.209
 4009SOL     OW13923   5.445   5.270   4.349
 4009SOL    HW113924   5.501   5.300   4.278
 4009SOL    HW213925   5.503   5.217   4.404
 4010SOL     OW13926  11.234   7.416   9.793
 4010SOL    HW113927  11.237   7.511   9.801
 4010SOL    HW213928  11.237   7.400   9.698
 4011SOL     OW13929   6.010  13.498   9.502
 4011SOL    HW113930   6.045  13.564   9.441
 4011SOL    HW213931   6.070  13.424   9.494
 4012SOL     OW13932   4.627  13.461   6.156
 4012SOL    HW113933   4.596  13.433   6.243
 4012SOL    HW213934   4.615  13.556   6.157
 4013SOL     OW13935   5.081   8.045   7.142
 4013SOL    HW113936   5.109   7.977   7.081
 4013SOL    HW213937   5.146   8.041   7.213
 4014SOL     OW13938   8.095  13.360  14.187
 4014SOL    HW113939   8.046  13.442  14.195
 4014SOL    HW213940   8.177  13.386  14.146
 4015SOL     OW13941  14.395   3.185   5.345
 4015SOL    HW113942  14.437   3.263   5.382
 4015SOL    HW213943  14.335   3.155   5.414
 4016SOL     OW13944   4.109  10.095   4.159
 4016SOL    HW113945   4.174  10.165   4.155
 4016SOL    HW213946   4.100  10.075   4.252
 4017SOL     OW13947   7.863   3.162  13.746
 4017SOL    HW113948   7.860   3.256  13.759
 4017SOL    HW213949   7.793   3.128  13.802
 4018SOL     OW13950  13.620  12.666   3.880
 4018SOL    HW113951  13.693  12.604   3.869
 4018SOL    HW213952  13.545  12.611   3.901
 4019SOL     OW13953   1.211   0.899   0.112
 4019SOL    HW113954   1.118   0.882   0.126
 4019SOL    HW213955   1.226   0.881   0.019
 4020SOL     OW13956   7.467   7.297   7.905
 4020SOL    HW113957   7.527   7.361   7.866
 4020SOL    HW213958   7.447   7.333   7.991
 4021SOL     OW13959   1.153  10.372  11.601
 4021SOL    HW113960   1.118  10.297  11.553
 4021SOL    HW213961   1.080  10.400  11.657
 4022SOL     OW13962   7.263   4.694   3.433
 4022SOL    HW113963   7.271   4.781   3.393
 4022SOL    HW213964   7.169   4.675   3.429
 4023SOL     OW13965   3.724  13.207   9.931
 4023SOL    HW113966   3.731  13.114   9.951
 4023SOL    HW213967   3.789  13.249   9.988
 4024SOL     OW13968   1.000   1.878  12.933
 4024SOL    HW113969   0.968   1.874  12.843
 4024SOL    HW213970   1.091   1.850  12.927
 4025SOL     OW13971  12.239  14.137  13.365
 4025SOL    HW113972  12.286  14.097  13.292
 4025SOL    HW213973  12.151  14.152  13.332
 4026SOL     OW13974  12.264  11.768  12.197
 4026SOL    HW113975  12.343  11.813  12.168
 4026SOL    HW213976  12.193  11.810  12.149
 4027SOL     OW13977   7.714  12.598   0.518
 4027SOL    HW113978   7.725  12.644   0.601
 4027SOL    HW213979   7.757  12.514   0.531
 4028SOL     OW13980  11.369   7.023   4.244
 4028SOL    HW113981  11.374   7.071   4.326
 4028SOL    HW213982  11.356   7.090   4.177
 4029SOL     OW13983   2.135   7.403   8.872
 4029SOL    HW113984   2.206   7.450   8.915
 4029SOL    HW213985   2.163   7.395   8.781
 4030SOL     OW13986   4.860   4.869   5.623
 4030SOL    HW113987   4.941   4.867   5.571
 4030SOL    HW213988   4.890   4.865   5.714
 4031SOL     OW13989  12.529  13.431  12.933
 4031SOL    HW113990  12.551  13.453  12.842
 4031SOL    HW213991  12.612  13.437  12.980
 4032SOL     OW13992   8.072  10.603   9.986
 4032SOL    HW113993   8.052  10.541  10.056
 4032SOL    HW213994   8.143  10.657  10.021
 4033SOL     OW13995   0.454   7.256   6.123
 4033SOL    HW113996   0.387   7.207   6.075
 4033SOL    HW213997   0.434   7.348   6.106
 4034SOL     OW13998  12.023  10.901   1.784
 4034SOL    HW113999  11.999  10.938   1.699
 4034SOL    HW214000  12.116  10.922   1.793
 4035SOL     OW14001   6.927   4.251   3.001
 4035SOL    HW114002   6.931   4.321   3.066
 4035SOL    HW214003   6.930   4.296   2.917
 4036SOL     OW14004   3.585   1.409  11.318
 4036SOL    HW114005   3.647   1.480  11.333
 4036SOL    HW214006   3.618   1.365  11.239
 4037SOL     OW14007   1.990   3.388  14.439
 4037SOL    HW114008   2.061   3.415  14.496
 4037SOL    HW214009   1.976   3.463  14.381
 4038SOL     OW14010   8.769   1.277   6.433
 4038SOL    HW114011   8.743   1.364   6.403
 4038SOL    HW214012   8.844   1.254   6.378
 4039SOL     OW14013  12.281   2.908   1.459
 4039SOL    HW114014  12.271   2.897   1.364
 4039SOL    HW214015  12.348   2.974   1.469
 4040SOL     OW14016   8.016   9.615  14.214
 4040SOL    HW114017   8.045   9.649  14.130
 4040SOL    HW214018   8.045   9.680  14.278
 4041SOL     OW14019   6.565  13.962  12.133
 4041SOL    HW114020   6.593  13.932  12.047
 4041SOL    HW214021   6.580  14.056  12.133
 4042SOL     OW14022   8.919   6.082  14.155
 4042SOL    HW114023   8.986   6.146  14.178
 4042SOL    HW214024   8.964   6.020  14.097
 4043SOL     OW14025   4.173   7.308   4.879
 4043SOL    HW114026   4.197   7.401   4.884
 4043SOL    HW214027   4.200   7.273   4.964
 4044SOL     OW14028   0.447   0.777   6.156
 4044SOL    HW114029   0.521   0.778   6.096
 4044SOL    HW214030   0.478   0.828   6.232
 4045SOL     OW14031   7.650   2.298  13.790
 4045SOL    HW114032   7.577   2.356  13.768
 4045SOL    HW214033   7.726   2.339  13.748
 4046SOL     OW14034   7.068   2.875   1.452
 4046SOL    HW114035   7.146   2.820   1.460
 4046SOL    HW214036   7.095   2.946   1.394
 4047SOL     OW14037   3.941  10.026   8.157
 4047SOL    HW114038   3.977  10.107   8.121
 4047SOL    HW214039   3.847  10.042   8.162
 4048SOL     OW14040   2.195   6.975   4.104
 4048SOL    HW114041   2.188   6.888   4.064
 4048SOL    HW214042   2.280   7.008   4.075
 4049SOL     OW14043   9.471   2.810  11.606
 4049SOL    HW114044   9.460   2.720  11.575
 4049SOL    HW214045   9.390   2.829  11.655
 4050SOL     OW14046   1.393   0.218  11.073
 4050SOL    HW114047   1.457   0.290  11.072
 4050SOL    HW214048   1.432   0.151  11.017
 4051SOL     OW14049   7.459   6.607   5.753
 4051SOL    HW114050   7.529   6.548   5.780
 4051SOL    HW214051   7.443   6.586   5.662
 4052SOL     OW14052   3.427   7.282   6.122
 4052SOL    HW114053   3.409   7.249   6.034
 4052SOL    HW214054   3.429   7.203   6.177
 4053SOL     OW14055  12.110   5.241  14.583
 4053SOL    HW114056  12.080   5.305  14.647
 4053SOL    HW214057  12.102   5.286  14.499
 4054SOL     OW14058  11.135   8.886  13.664
 4054SOL    HW114059  11.143   8.851  13.752
 4054SOL    HW214060  11.053   8.849  13.631
 4055SOL     OW14061  11.876   2.248   3.821
 4055SOL    HW114062  11.926   2.310   3.874
 4055SOL    HW214063  11.867   2.170   3.877
 4056SOL     OW14064   3.797   7.976   7.408
 4056SOL    HW114065   3.720   8.005   7.457
 4056SOL    HW214066   3.866   7.968   7.473
 4057SOL     OW14067  12.218   8.710   6.477
 4057SOL    HW114068  12.199   8.752   6.560
 4057SOL    HW214069  12.286   8.765   6.437
 4058SOL     OW14070  12.432   6.057   9.801
 4058SOL    HW114071  12.440   6.146   9.834
 4058SOL    HW214072  12.394   6.007   9.873
 4059SOL     OW14073   1.463   3.265  12.473
 4059SOL    HW114074   1.504   3.344  12.509
 4059SOL    HW214075   1.475   3.273  12.379
 4060SOL     OW14076   1.333   2.643   8.541
 4060SOL    HW114077   1.269   2.667   8.474
 4060SOL    HW214078   1.287   2.580   8.596
 4061SOL     OW14079   3.003  14.637  10.294
 4061SOL    HW114080   3.080  14.580  10.297
 4061SOL    HW214081   3.034  14.716  10.250
 4062SOL     OW14082   2.280   5.775   6.373
 4062SOL    HW114083   2.310   5.866   6.371
 4062SOL    HW214084   2.338   5.730   6.311
 4063SOL     OW14085  14.276   6.204   6.693
 4063SOL    HW114086  14.288   6.131   6.753
 4063SOL    HW214087  14.283   6.164   6.606
 4064SOL     OW14088   4.663  11.607   7.400
 4064SOL    HW114089   4.582  11.604   7.350
 4064SOL    HW214090   4.732  11.593   7.336
 4065SOL     OW14091   8.581   6.090  12.518
 4065SOL    HW114092   8.546   6.142  12.446
 4065SOL    HW214093   8.631   6.020  12.476
 4066SOL     OW14094  13.627   1.158  11.973
 4066SOL    HW114095  13.543   1.184  12.012
 4066SOL    HW214096  13.646   1.073  12.011
 4067SOL     OW14097   9.278   3.061   1.419
 4067SOL    HW114098   9.246   2.975   1.391
 4067SOL    HW214099   9.253   3.066   1.512
 4068SOL     OW14100   4.762  10.203   6.923
 4068SOL    HW114101   4.836  10.263   6.911
 4068SOL    HW214102   4.785  10.126   6.870
 4069SOL     OW14103  10.259   6.189   5.279
 4069SOL    HW114104  10.193   6.137   5.233
 4069SOL    HW214105  10.221   6.277   5.284
 4070SOL     OW14106   2.093   5.590   7.314
 4070SOL    HW114107   2.015   5.593   7.257
 4070SOL    HW214108   2.142   5.514   7.282
 4071SOL     OW14109  12.319   7.700   2.279
 4071SOL    HW114110  12.308   7.643   2.203
 4071SOL    HW214111  12.386   7.657   2.331
 4072SOL     OW14112  12.439   3.360  13.028
 4072SOL    HW114113  12.418   3.279  12.982
 4072SOL    HW214114  12.473   3.332  13.113
 4073SOL     OW14115   1.194  11.066   2.397
 4073SOL    HW114116   1.171  11.122   2.471
 4073SOL    HW214117   1.162  11.114   2.320
 4074SOL     OW14118   2.559   4.390  10.561
 4074SOL    HW114119   2.636   4.419  10.512
 4074SOL    HW214120   2.533   4.466  10.613
 4075SOL     OW14121  10.271   4.269   9.732
 4075SOL    HW114122  10.268   4.365   9.730
 4075SOL    HW214123  10.254   4.246   9.823
 4076SOL     OW14124   9.960   7.992   3.314
 4076SOL    HW114125   9.889   7.932   3.338
 4076SOL    HW214126   9.943   8.013   3.222
 4077SOL     OW14127  13.906   1.434  11.323
 4077SOL    HW114128  13.890   1.455  11.415
 4077SOL    HW214129  13.830   1.381  11.297
 4078SOL     OW14130  11.656  14.552   4.907
 4078SOL    HW114131  11.632  14.631   4.956
 4078SOL    HW214132  11.746  14.533   4.934
 4079SOL     OW14133   6.627   1.522   8.956
 4079SOL    HW114134   6.546   1.503   8.908
 4079SOL    HW214135   6.597   1.537   9.046
 4080SOL     OW14136   5.086   1.579  11.377
 4080SOL    HW114137   5.098   1.550  11.467
 4080SOL    HW214138   5.121   1.668  11.376
 4081SOL     OW14139  12.415   5.285   3.745
 4081SOL    HW114140  12.340   5.259   3.799
 4081SOL    HW214141  12.491   5.256   3.794
 4082SOL     OW14142   1.239   8.999   5.055
 4082SOL    HW114143   1.253   9.020   5.147
 4082SOL    HW214144   1.287   8.917   5.042
 4083SOL     OW14145   6.464   8.126   1.998
 4083SOL    HW114146   6.383   8.077   2.014
 4083SOL    HW214147   6.458   8.202   2.055
 4084SOL     OW14148  11.089   1.150   5.611
 4084SOL    HW114149  11.104   1.062   5.576
 4084SOL    HW214150  11.121   1.209   5.542
 4085SOL     OW14151  13.667   6.071   1.115
 4085SOL    HW114152  13.612   6.046   1.190
 4085SOL    HW214153  13.665   5.994   1.057
 4086SOL     OW14154   7.455   1.875   7.996
 4086SOL    HW114155   7.507   1.951   8.023
 4086SOL    HW214156   7.365   1.908   7.994
 4087SOL     OW14157  13.568   1.509   9.374
 4087SOL    HW114158  13.589   1.537   9.463
 4087SOL    HW214159  13.595   1.418   9.369
 4088SOL     OW14160   0.615  14.052   9.988
 4088SOL    HW114161   0.639  13.986   9.923
 4088SOL    HW214162   0.674  14.126   9.970
 4089SOL     OW14163  10.578   2.293  10.659
 4089SOL    HW114164  10.505   2.284  10.719
 4089SOL    HW214165  10.617   2.206  10.655
 4090SOL     OW14166  13.520  11.832   7.180
 4090SOL    HW114167  13.572  11.832   7.260
 4090SOL    HW214168  13.474  11.748   7.180
 4091SOL     OW14169   0.705  14.192  14.232
 4091SOL    HW114170   0.786  14.189  14.284
 4091SOL    HW214171   0.733  14.173  14.143
 4092SOL     OW14172  10.145   9.430   8.236
 4092SOL    HW114173  10.189   9.355   8.196
 4092SOL    HW214174  10.200   9.505   8.214
 4093SOL     OW14175   4.233   2.646   9.542
 4093SOL    HW114176   4.145   2.628   9.577
 4093SOL    HW214177   4.291   2.640   9.618
 4094SOL     OW14178  10.085   2.650  13.335
 4094SOL    HW114179  10.107   2.675  13.425
 4094SOL    HW214180  10.018   2.713  13.308
 4095SOL     OW14181  12.707  10.757   8.584
 4095SOL    HW114182  12.734  10.677   8.630
 4095SOL    HW214183  12.784  10.813   8.586
 4096SOL     OW14184   9.094   5.507   1.844
 4096SOL    HW114185   9.104   5.572   1.914
 4096SOL    HW214186   9.089   5.423   1.890
 4097SOL     OW14187   4.035  14.029   4.937
 4097SOL    HW114188   3.976  13.994   5.003
 4097SOL    HW214189   4.123  14.012   4.971
 4098SOL     OW14190  10.658   0.044  12.887
 4098SOL    HW114191  10.565   0.041  12.863
 4098SOL    HW214192  10.662   0.107  12.958
 4099SOL     OW14193  10.061  13.338  12.471
 4099SOL    HW114194   9.996  13.381  12.416
 4099SOL    HW214195  10.042  13.367  12.560
 4100SOL     OW14196   7.333   2.708   1.448
 4100SOL    HW114197   7.381   2.766   1.506
 4100SOL    HW214198   7.382   2.625   1.449
 4101SOL     OW14199   9.729  10.375  10.415
 4101SOL    HW114200   9.704  10.467  10.410
 4101SOL    HW214201   9.810  10.369  10.363
 4102SOL     OW14202   4.124   6.527   9.147
 4102SOL    HW114203   4.032   6.549   9.138
 4102SOL    HW214204   4.138   6.458   9.081
 4103SOL     OW14205   2.527   4.905   8.282
 4103SOL    HW114206   2.612   4.948   8.290
 4103SOL    HW214207   2.499   4.890   8.372
 4104SOL     OW14208   4.327  10.411   6.930
 4104SOL    HW114209   4.372  10.327   6.917
 4104SOL    HW214210   4.249  10.390   6.980
 4105SOL     OW14211   4.443  13.619   8.526
 4105SOL    HW114212   4.368  13.576   8.567
 4105SOL    HW214213   4.474  13.556   8.461
 4106SOL     OW14214   9.346   1.521   4.640
 4106SOL    HW114215   9.420   1.567   4.602
 4106SOL    HW214216   9.373   1.501   4.729
 4107SOL     OW14217   9.897   4.015  12.482
 4107SOL    HW114218   9.893   3.925  12.452
 4107SOL    HW214219   9.825   4.059  12.436
 4108SOL     OW14220  10.771   7.051   5.461
 4108SOL    HW114221  10.706   7.052   5.531
 4108SOL    HW214222  10.771   7.141   5.427
 4109SOL     OW14223   2.260  14.512   6.607
 4109SOL    HW114224   2.229  14.595   6.643
 4109SOL    HW214225   2.185  14.452   6.617
 4110SOL     OW14226   3.495   4.824   5.726
 4110SOL    HW114227   3.444   4.833   5.806
 4110SOL    HW214228   3.432   4.793   5.661
 4111SOL     OW14229  11.685  12.884  10.684
 4111SOL    HW114230  11.639  12.811  10.726
 4111SOL    HW214231  11.734  12.843  10.612
 4112SOL     OW14232  10.107   0.083   7.547
 4112SOL    HW114233  10.133   0.016   7.611
 4112SOL    HW214234  10.057   0.147   7.599
 4113SOL     OW14235   5.980   1.283  14.665
 4113SOL    HW114236   6.070   1.273  14.635
 4113SOL    HW214237   5.971   1.219  14.736
 4114SOL     OW14238  10.501  13.237  11.586
 4114SOL    HW114239  10.412  13.273  11.592
 4114SOL    HW214240  10.499  13.159  11.641
 4115SOL     OW14241   2.215   4.102   4.255
 4115SOL    HW114242   2.267   4.080   4.333
 4115SOL    HW214243   2.124   4.090   4.282
 4116SOL     OW14244  10.678  13.684   9.246
 4116SOL    HW114245  10.659  13.747   9.314
 4116SOL    HW214246  10.675  13.734   9.164
 4117SOL     OW14247   3.457  14.704  10.971
 4117SOL    HW114248   3.376  14.652  10.966
 4117SOL    HW214249   3.519  14.657  10.915
 4118SOL     OW14250   9.900  10.162   4.150
 4118SOL    HW114251   9.900  10.083   4.206
 4118SOL    HW214252   9.829  10.146   4.088
 4119SOL     OW14253   1.408  13.155  13.567
 4119SOL    HW114254   1.362  13.238  13.553
 4119SOL    HW214255   1.344  13.099  13.610
 4120SOL     OW14256   6.258  11.498   9.335
 4120SOL    HW114257   6.284  11.485   9.426
 4120SOL    HW214258   6.173  11.455   9.328
 4121SOL     OW14259  14.250  10.440   5.026
 4121SOL    HW114260  14.204  10.514   4.989
 4121SOL    HW214261  14.304  10.477   5.096
 4122SOL     OW14262   7.891   5.132  13.333
 4122SOL    HW114263   7.814   5.128  13.389
 4122SOL    HW214264   7.872   5.072  13.261
 4123SOL     OW14265   5.309   3.513  10.899
 4123SOL    HW114266   5.345   3.566  10.827
 4123SOL    HW214267   5.288   3.576  10.968
 4124SOL     OW14268   8.544   7.321   1.979
 4124SOL    HW114269   8.558   7.333   1.885
 4124SOL    HW214270   8.555   7.409   2.017
 4125SOL     OW14271  12.344  14.734   3.454
 4125SOL    HW114272  12.433  14.741   3.418
 4125SOL    HW214273  12.296  14.807   3.415
 4126SOL     OW14274  12.966   8.824   0.946
 4126SOL    HW114275  13.037   8.792   0.890
 4126SOL    HW214276  13.008   8.885   1.007
 4127SOL     OW14277   3.829   5.369   7.208
 4127SOL    HW114278   3.802   5.286   7.247
 4127SOL    HW214279   3.904   5.346   7.153
 4128SOL     OW14280   4.976   1.454  14.111
 4128SOL    HW114281   4.891   1.446  14.067
 4128SOL    HW214282   4.957   1.502  14.192
 4129SOL     OW14283   9.496   3.736   0.550
 4129SOL    HW114284   9.585   3.702   0.544
 4129SOL    HW214285   9.506   3.831   0.545
 4130SOL     OW14286   7.363   9.006   2.111
 4130SOL    HW114287   7.334   9.027   2.022
 4130SOL    HW214288   7.328   9.078   2.164
 4131SOL     OW14289  10.605   4.174   7.500
 4131SOL    HW114290  10.612   4.269   7.511
 4131SOL    HW214291  10.613   4.160   7.406
 4132SOL     OW14292  12.330  14.075   5.716
 4132SOL    HW114293  12.248  14.124   5.710
 4132SOL    HW214294  12.314  13.994   5.668
 4133SOL     OW14295   8.291   4.797   4.824
 4133SOL    HW114296   8.363   4.737   4.805
 4133SOL    HW214297   8.293   4.861   4.753
 4134SOL     OW14298  11.950  12.950   5.553
 4134SOL    HW114299  12.006  12.913   5.622
 4134SOL    HW214300  12.011  12.993   5.493
 4135SOL     OW14301   3.240   8.807   4.071
 4135SOL    HW114302   3.186   8.734   4.102
 4135SOL    HW214303   3.299   8.825   4.144
 4136SOL     OW14304  13.250   7.501  12.805
 4136SOL    HW114305  13.195   7.424  12.820
 4136SOL    HW214306  13.231   7.560  12.878
 4137SOL     OW14307  11.130   5.118   5.256
 4137SOL    HW114308  11.058   5.102   5.195
 4137SOL    HW214309  11.098   5.085   5.340
 4138SOL     OW14310  14.006  11.397  13.330
 4138SOL    HW114311  13.923  11.395  13.283
 4138SOL    HW214312  14.052  11.474  13.296
 4139SOL     OW14313  13.416  11.753   5.148
 4139SOL    HW114314  13.411  11.827   5.208
 4139SOL    HW214315  13.347  11.769   5.084
 4140SOL     OW14316   8.036   0.906  13.070
 4140SOL    HW114317   8.123   0.916  13.031
 4140SOL    HW214318   7.979   0.962  13.017
 4141SOL     OW14319   1.980  11.773   7.546
 4141SOL    HW114320   1.897  11.793   7.503
 4141SOL    HW214321   2.041  11.756   7.474
 4142SOL     OW14322  12.240  12.419   2.539
 4142SOL    HW114323  12.202  12.378   2.461
 4142SOL    HW214324  12.223  12.512   2.529
 4143SOL     OW14325  10.247   4.005   2.335
 4143SOL    HW114326  10.170   3.974   2.288
 4143SOL    HW214327  10.213   4.073   2.394
 4144SOL     OW14328   1.079  14.608   2.898
 4144SOL    HW114329   1.164  14.636   2.863
 4144SOL    HW214330   1.092  14.604   2.993
 4145SOL     OW14331  13.318   2.053  13.149
 4145SOL    HW114332  13.305   1.962  13.125
 4145SOL    HW214333  13.344   2.050  13.241
 4146SOL     OW14334   6.905   4.331   3.265
 4146SOL    HW114335   6.833   4.350   3.325
 4146SOL    HW214336   6.934   4.243   3.289
 4147SOL     OW14337   1.630   6.048   0.239
 4147SOL    HW114338   1.697   6.113   0.219
 4147SOL    HW214339   1.579   6.040   0.159
 4148SOL     OW14340   8.942   0.140   3.962
 4148SOL    HW114341   8.879   0.097   3.905
 4148SOL    HW214342   8.956   0.226   3.923
 4149SOL     OW14343  12.893   4.061   2.756
 4149SOL    HW114344  12.925   4.000   2.822
 4149SOL    HW214345  12.798   4.064   2.769
 4150SOL     OW14346  14.330   4.356   8.813
 4150SOL    HW114347  14.369   4.270   8.829
 4150SOL    HW214348  14.238   4.339   8.797
 4151SOL     OW14349   8.296   1.221   7.835
 4151SOL    HW114350   8.377   1.185   7.871
 4151SOL    HW214351   8.264   1.280   7.903
 4152SOL     OW14352   2.125   8.188   3.945
 4152SOL    HW114353   2.169   8.103   3.938
 4152SOL    HW214354   2.150   8.221   4.031
 4153SOL     OW14355   0.861   9.850   8.315
 4153SOL    HW114356   0.926   9.781   8.316
 4153SOL    HW214357   0.902   9.922   8.267
 4154SOL     OW14358   2.899  12.028   4.979
 4154SOL    HW114359   2.850  12.014   4.899
 4154SOL    HW214360   2.839  12.005   5.049
 4155SOL     OW14361  13.098   2.999   7.352
 4155SOL    HW114362  13.150   3.006   7.432
 4155SOL    HW214363  13.007   3.003   7.381
 4156SOL     OW14364   0.469   7.869   0.193
 4156SOL    HW114365   0.525   7.915   0.257
 4156SOL    HW214366   0.421   7.939   0.149
 4157SOL     OW14367   2.064  14.474   3.497
 4157SOL    HW114368   1.969  14.473   3.501
 4157SOL    HW214369   2.089  14.560   3.531
 4158SOL     OW14370   6.011   4.455   8.893
 4158SOL    HW114371   6.070   4.439   8.966
 4158SOL    HW214372   6.031   4.385   8.830
 4159SOL     OW14373   1.313  13.975   0.308
 4159SOL    HW114374   1.352  14.055   0.344
 4159SOL    HW214375   1.236  13.959   0.361
 4160SOL     OW14376   4.405   9.082   4.503
 4160SOL    HW114377   4.356   9.000   4.504
 4160SOL    HW214378   4.419   9.101   4.411
 4161SOL     OW14379  13.690  11.145   0.988
 4161SOL    HW114380  13.716  11.060   0.954
 4161SOL    HW214381  13.619  11.126   1.050
 4162SOL     OW14382   3.335   0.790   3.697
 4162SOL    HW114383   3.291   0.787   3.781
 4162SOL    HW214384   3.427   0.808   3.718
 4163SOL     OW14385   4.330  11.369  11.485
 4163SOL    HW114386   4.315  11.432  11.555
 4163SOL    HW214387   4.254  11.378  11.428
 4164SOL     OW14388  10.761   0.987  11.661
 4164SOL    HW114389  10.725   0.952  11.579
 4164SOL    HW214390  10.684   1.010  11.713
 4165SOL     OW14391   6.350   1.929   2.833
 4165SOL    HW114392   6.390   1.992   2.894
 4165SOL    HW214393   6.373   1.962   2.746
 4166SOL     OW14394   9.789   1.329   2.059
 4166SOL    HW114395   9.875   1.298   2.030
 4166SOL    HW214396   9.792   1.321   2.154
 4167SOL     OW14397   6.166  13.591   2.098
 4167SOL    HW114398   6.218  13.559   2.171
 4167SOL    HW214399   6.171  13.521   2.033
 4168SOL     OW14400   5.619   3.258  13.749
 4168SOL    HW114401   5.688   3.276  13.813
 4168SOL    HW214402   5.558   3.200  13.795
 4169SOL     OW14403  12.472   6.757  13.846
 4169SOL    HW114404  12.417   6.814  13.899
 4169SOL    HW214405  12.531   6.816  13.799
 4170SOL     OW14406   6.757  13.890   8.093
 4170SOL    HW114407   6.726  13.823   8.032
 4170SOL    HW214408   6.743  13.973   8.047
 4171SOL     OW14409   0.970   8.502   5.306
 4171SOL    HW114410   0.920   8.571   5.350
 4171SOL    HW214411   1.005   8.545   5.228
 4172SOL     OW14412   6.711  10.654  13.937
 4172SOL    HW114413   6.805  10.661  13.956
 4172SOL    HW214414   6.671  10.725  13.987
 4173SOL     OW14415   4.426   4.495   3.569
 4173SOL    HW114416   4.359   4.427   3.562
 4173SOL    HW214417   4.429   4.536   3.483
 4174SOL     OW14418   5.206   4.705   3.586
 4174SOL    HW114419   5.282   4.750   3.623
 4174SOL    HW214420   5.243   4.644   3.523
 4175SOL     OW14421  11.218   4.606  13.473
 4175SOL    HW114422  11.285   4.574  13.413
 4175SOL    HW214423  11.165   4.666  13.420
 4176SOL     OW14424  11.095  14.731  13.965
 4176SOL    HW114425  11.040  14.716  13.888
 4176SOL    HW214426  11.038  14.712  14.040
 4177SOL     OW14427  11.426   1.561   8.051
 4177SOL    HW114428  11.407   1.468   8.049
 4177SOL    HW214429  11.507   1.568   8.101
 4178SOL     OW14430   8.130   6.043   9.858
 4178SOL    HW114431   8.079   6.105   9.911
 4178SOL    HW214432   8.192   6.098   9.810
 4179SOL     OW14433   4.518   3.331   3.596
 4179SOL    HW114434   4.437   3.319   3.646
 4179SOL    HW214435   4.500   3.292   3.511
 4180SOL     OW14436  12.066  11.069   8.875
 4180SOL    HW114437  11.987  11.118   8.852
 4180SOL    HW214438  12.064  11.065   8.971
 4181SOL     OW14439   1.659   6.949  11.037
 4181SOL    HW114440   1.686   7.032  10.998
 4181SOL    HW214441   1.676   6.961  11.131
 4182SOL     OW14442   7.303   5.430   1.898
 4182SOL    HW114443   7.366   5.492   1.861
 4182SOL    HW214444   7.266   5.385   1.822
 4183SOL     OW14445  13.967   6.948   4.836
 4183SOL    HW114446  13.975   6.996   4.918
 4183SOL    HW214447  13.921   6.867   4.859
 4184SOL     OW14448   2.873   0.730  13.524
 4184SOL    HW114449   2.940   0.794  13.499
 4184SOL    HW214450   2.891   0.654  13.469
 4185SOL     OW14451   0.153   5.547   1.452
 4185SOL    HW114452   0.193   5.481   1.509
 4185SOL    HW214453   0.198   5.537   1.369
 4186SOL     OW14454   8.613   4.741  12.671
 4186SOL    HW114455   8.544   4.677  12.657
 4186SOL    HW214456   8.679   4.721  12.605
 4187SOL     OW14457   1.599   7.594   2.295
 4187SOL    HW114458   1.522   7.560   2.250
 4187SOL    HW214459   1.638   7.655   2.232
 4188SOL     OW14460   6.514   8.133  14.130
 4188SOL    HW114461   6.525   8.221  14.093
 4188SOL    HW214462   6.521   8.146  14.224
 4189SOL     OW14463  14.133   6.612   8.189
 4189SOL    HW114464  14.039   6.605   8.173
 4189SOL    HW214465  14.145   6.572   8.275
 4190SOL     OW14466   8.530   1.436   2.880
 4190SOL    HW114467   8.485   1.365   2.834
 4190SOL    HW214468   8.617   1.441   2.841
 4191SOL     OW14469   8.531  11.628   7.808
 4191SOL    HW114470   8.554  11.621   7.901
 4191SOL    HW214471   8.522  11.537   7.779
 4192SOL     OW14472   7.021   7.883   0.926
 4192SOL    HW114473   6.961   7.821   0.967
 4192SOL    HW214474   6.996   7.883   0.834
 4193SOL     OW14475   2.325  12.043   6.235
 4193SOL    HW114476   2.412  12.054   6.273
 4193SOL    HW214477   2.340  11.996   6.153
 4194SOL     OW14478   1.264   5.130   8.414
 4194SOL    HW114479   1.175   5.134   8.448
 4194SOL    HW214480   1.262   5.180   8.333
 4195SOL     OW14481  10.039  11.080   1.542
 4195SOL    HW114482   9.962  11.033   1.511
 4195SOL    HW214483  10.033  11.076   1.638
 4196SOL     OW14484  10.755   6.761   6.737
 4196SOL    HW114485  10.717   6.679   6.706
 4196SOL    HW214486  10.829   6.778   6.678
 4197SOL     OW14487  10.033   0.863  12.630
 4197SOL    HW114488  10.037   0.775  12.591
 4197SOL    HW214489  10.123   0.880  12.659
 4198SOL     OW14490   7.724   9.481  13.666
 4198SOL    HW114491   7.775   9.418  13.614
 4198SOL    HW214492   7.649   9.431  13.698
 4199SOL     OW14493   9.887   6.832  10.265
 4199SOL    HW114494   9.890   6.759  10.204
 4199SOL    HW214495   9.937   6.803  10.341
 4200SOL     OW14496  13.480  14.215  12.650
 4200SOL    HW114497  13.513  14.230  12.561
 4200SOL    HW214498  13.556  14.183  12.698
 4201SOL     OW14499  10.260  12.874  10.734
 4201SOL    HW114500  10.196  12.818  10.778
 4201SOL    HW214501  10.225  12.885  10.645
 4202SOL     OW14502   9.888   1.562   1.155
 4202SOL    HW114503   9.832   1.585   1.229
 4202SOL    HW214504   9.906   1.469   1.166
 4203SOL     OW14505  13.895   2.406  14.815
 4203SOL    HW114506  13.968   2.418  14.754
 4203SOL    HW214507  13.840   2.339  14.773
 4204SOL     OW14508  12.555   6.133  11.000
 4204SOL    HW114509  12.480   6.151  10.942
 4204SOL    HW214510  12.541   6.043  11.030
 4205SOL     OW14511   0.476   5.302   5.637
 4205SOL    HW114512   0.475   5.382   5.585
 4205SOL    HW214513   0.483   5.231   5.572
 4206SOL     OW14514  14.116  14.052  13.421
 4206SOL    HW114515  14.023  14.034  13.438
 4206SOL    HW214516  14.145  14.102  13.497
 4207SOL     OW14517   9.154  11.282  11.039
 4207SOL    HW114518   9.116  11.211  10.987
 4207SOL    HW214519   9.234  11.244  11.076
 4208SOL     OW14520  11.564   8.561   9.211
 4208SOL    HW114521  11.586   8.652   9.192
 4208SOL    HW214522  11.486   8.543   9.158
 4209SOL     OW14523  12.583  10.328  13.585
 4209SOL    HW114524  12.600  10.264  13.516
 4209SOL    HW214525  12.508  10.378  13.553
 4210SOL     OW14526  14.797   2.328   0.827
 4210SOL    HW114527   0.007   2.303   0.835
 4210SOL    HW214528  14.785   2.397   0.892
 4211SOL     OW14529   1.282   1.400   0.039
 4211SOL    HW114530   1.367   1.443   0.037
 4211SOL    HW214531   1.302   1.307   0.029
 4212SOL     OW14532   3.930   7.199   4.193
 4212SOL    HW114533   3.866   7.128   4.187
 4212SOL    HW214534   3.982   7.178   4.270
 4213SOL     OW14535   9.168   8.549   7.379
 4213SOL    HW114536   9.144   8.622   7.321
 4213SOL    HW214537   9.263   8.549   7.379
 4214SOL     OW14538   4.924   2.352  14.155
 4214SOL    HW114539   5.003   2.396  14.123
 4214SOL    HW214540   4.957   2.275  14.201
 4215SOL     OW14541   5.306   6.039   8.470
 4215SOL    HW114542   5.391   6.063   8.434
 4215SOL    HW214543   5.282   6.114   8.525
 4216SOL     OW14544   9.119   0.428  11.404
 4216SOL    HW114545   9.112   0.450  11.311
 4216SOL    HW214546   9.056   0.485  11.447
 4217SOL     OW14547   4.297   0.984  10.873
 4217SOL    HW114548   4.356   1.054  10.846
 4217SOL    HW214549   4.215   1.029  10.897
 4218SOL     OW14550  13.828  10.511   3.417
 4218SOL    HW114551  13.916  10.473   3.417
 4218SOL    HW214552  13.833  10.583   3.355
 4219SOL     OW14553   8.473   2.068   1.183
 4219SOL    HW114554   8.557   2.095   1.220
 4219SOL    HW214555   8.415   2.060   1.258
 4220SOL     OW14556   9.850  11.822   9.981
 4220SOL    HW114557   9.841  11.776  10.064
 4220SOL    HW214558   9.850  11.915  10.006
 4221SOL     OW14559  10.367   7.760   8.394
 4221SOL    HW114560  10.462   7.760   8.403
 4221SOL    HW214561  10.335   7.796   8.477
 4222SOL     OW14562   7.254   8.486   2.871
 4222SOL    HW114563   7.186   8.442   2.821
 4222SOL    HW214564   7.284   8.557   2.814
 4223SOL     OW14565  10.352   4.555  14.287
 4223SOL    HW114566  10.280   4.534  14.228
 4223SOL    HW214567  10.312   4.565  14.373
 4224SOL     OW14568   9.546   0.992  10.719
 4224SOL    HW114569   9.628   0.954  10.686
 4224SOL    HW214570   9.573   1.045  10.794
 4225SOL     OW14571   2.600   7.588   0.605
 4225SOL    HW114572   2.597   7.671   0.558
 4225SOL    HW214573   2.533   7.597   0.673
 4226SOL     OW14574  14.090   9.781   6.769
 4226SOL    HW114575  14.043   9.799   6.850
 4226SOL    HW214576  14.127   9.694   6.782
 4227SOL     OW14577   2.328  12.672   0.844
 4227SOL    HW114578   2.357  12.742   0.786
 4227SOL    HW214579   2.254  12.709   0.892
 4228SOL     OW14580  14.522  10.197  11.403
 4228SOL    HW114581  14.476  10.267  11.450
 4228SOL    HW214582  14.572  10.152  11.471
 4229SOL     OW14583   0.906   2.200  10.694
 4229SOL    HW114584   0.820   2.167  10.668
 4229SOL    HW214585   0.945   2.233  10.613
 4230SOL     OW14586   7.548   4.745   8.102
 4230SOL    HW114587   7.480   4.802   8.139
 4230SOL    HW214588   7.500   4.679   8.053
 4231SOL     OW14589  10.021   5.329   8.848
 4231SOL    HW114590  10.034   5.391   8.776
 4231SOL    HW214591  10.066   5.369   8.922
 4232SOL     OW14592  12.282   0.262   4.309
 4232SOL    HW114593  12.227   0.263   4.231
 4232SOL    HW214594  12.261   0.179   4.352
 4233SOL     OW14595  10.189   0.646  13.582
 4233SOL    HW114596  10.120   0.657  13.647
 4233SOL    HW214597  10.267   0.684  13.623
 4234SOL     OW14598  11.943  12.441  10.143
 4234SOL    HW114599  11.996  12.367  10.173
 4234SOL    HW214600  11.997  12.518  10.159
 4235SOL     OW14601  14.857   1.808  12.938
 4235SOL    HW114602  14.820   1.866  12.871
 4235SOL    HW214603  14.793   1.737  12.947
 4236SOL     OW14604   8.735  11.238   5.387
 4236SOL    HW114605   8.804  11.256   5.451
 4236SOL    HW214606   8.655  11.229   5.440
 4237SOL     OW14607   9.686   0.007   7.580
 4237SOL    HW114608   9.749   0.072   7.547
 4237SOL    HW214609   9.691   0.016   7.675
 4238SOL     OW14610  12.175   2.483   1.368
 4238SOL    HW114611  12.216   2.468   1.283
 4238SOL    HW214612  12.218   2.419   1.426
 4239SOL     OW14613   8.981   6.484  14.476
 4239SOL    HW114614   9.035   6.457  14.551
 4239SOL    HW214615   8.936   6.563  14.506
 4240SOL     OW14616   9.698   9.394   9.597
 4240SOL    HW114617   9.792   9.414   9.604
 4240SOL    HW214618   9.676   9.414   9.506
 4241SOL     OW14619   6.034   3.577   2.159
 4241SOL    HW114620   6.071   3.648   2.107
 4241SOL    HW214621   6.018   3.507   2.097
 4242SOL     OW14622   6.409   4.878   6.961
 4242SOL    HW114623   6.467   4.836   6.897
 4242SOL    HW214624   6.468   4.919   7.024
 4243SOL     OW14625  14.466   6.233  14.786
 4243SOL    HW114626  14.511   6.150  14.770
 4243SOL    HW214627  14.473   6.280  14.703
 4244SOL     OW14628   6.269  10.623  12.563
 4244SOL    HW114629   6.357  10.594  12.540
 4244SOL    HW214630   6.211  10.563  12.516
 4245SOL     OW14631   4.984   5.824   0.121
 4245SOL    HW114632   5.063   5.877   0.133
 4245SOL    HW214633   4.950   5.851   0.036
 4246SOL     OW14634   0.445  12.132   9.353
 4246SOL    HW114635   0.514  12.198   9.360
 4246SOL    HW214636   0.492  12.049   9.345
 4247SOL     OW14637   3.092  10.841   6.802
 4247SOL    HW114638   2.996  10.836   6.807
 4247SOL    HW214639   3.109  10.926   6.760
 4248SOL     OW14640   1.232   4.788   3.786
 4248SOL    HW114641   1.324   4.814   3.784
 4248SOL    HW214642   1.231   4.703   3.830
 4249SOL     OW14643   8.437   0.208   7.633
 4249SOL    HW114644   8.507   0.205   7.697
 4249SOL    HW214645   8.357   0.190   7.683
 4250SOL     OW14646   6.774   5.194   9.952
 4250SOL    HW114647   6.866   5.177   9.931
 4250SOL    HW214648   6.724   5.139   9.892
 4251SOL     OW14649  12.824   3.572  13.793
 4251SOL    HW114650  12.809   3.552  13.885
 4251SOL    HW214651  12.808   3.489  13.747
 4252SOL     OW14652  11.837   3.550   4.932
 4252SOL    HW114653  11.760   3.572   4.879
 4252SOL    HW214654  11.905   3.530   4.867
 4253SOL     OW14655   3.524   7.220  12.389
 4253SOL    HW114656   3.498   7.129  12.376
 4253SOL    HW214657   3.483   7.267  12.316
 4254SOL     OW14658   3.861  11.839  13.128
 4254SOL    HW114659   3.933  11.890  13.165
 4254SOL    HW214660   3.790  11.847  13.193
 4255SOL     OW14661   2.730   6.890   9.547
 4255SOL    HW114662   2.636   6.905   9.558
 4255SOL    HW214663   2.771   6.946   9.612
 4256SOL     OW14664   3.874  12.815   5.472
 4256SOL    HW114665   3.968  12.829   5.459
 4256SOL    HW214666   3.863  12.814   5.567
 4257SOL     OW14667   4.377   4.256   0.189
 4257SOL    HW114668   4.348   4.320   0.254
 4257SOL    HW214669   4.333   4.282   0.108
 4258SOL     OW14670  10.375   9.204   0.845
 4258SOL    HW114671  10.372   9.111   0.866
 4258SOL    HW214672  10.299   9.241   0.890
 4259SOL     OW14673   3.896  11.599   2.266
 4259SOL    HW114674   3.873  11.548   2.344
 4259SOL    HW214675   3.972  11.651   2.293
 4260SOL     OW14676   5.573   8.730   2.635
 4260SOL    HW114677   5.583   8.822   2.659
 4260SOL    HW214678   5.659   8.704   2.602
 4261SOL     OW14679   4.498  13.319   5.970
 4261SOL    HW114680   4.487  13.231   6.008
 4261SOL    HW214681   4.539  13.370   6.040
 4262SOL     OW14682   8.625   8.430   8.108
 4262SOL    HW114683   8.603   8.499   8.171
 4262SOL    HW214684   8.666   8.362   8.161
 4263SOL     OW14685  10.325   9.515   3.562
 4263SOL    HW114686  10.360   9.426   3.559
 4263SOL    HW214687  10.400   9.571   3.541
 4264SOL     OW14688   2.226  14.838  14.094
 4264SOL    HW114689   2.286  14.877  14.157
 4264SOL    HW214690   2.271  14.760  14.062
 4265SOL     OW14691   8.941   0.689   5.952
 4265SOL    HW114692   8.953   0.745   5.875
 4265SOL    HW214693   9.030   0.670   5.981
 4266SOL     OW14694  14.151  14.685   3.188
 4266SOL    HW114695  14.235  14.663   3.228
 4266SOL    HW214696  14.091  14.617   3.220
 4267SOL     OW14697   3.210   5.346  11.636
 4267SOL    HW114698   3.130   5.294  11.626
 4267SOL    HW214699   3.248   5.315  11.718
 4268SOL     OW14700   1.853   6.434   1.942
 4268SOL    HW114701   1.850   6.496   2.014
 4268SOL    HW214702   1.946   6.422   1.923
 4269SOL     OW14703   9.333  13.046   3.416
 4269SOL    HW114704   9.361  13.137   3.418
 4269SOL    HW214705   9.263  13.044   3.351
 4270SOL     OW14706   3.139   2.852   6.813
 4270SOL    HW114707   3.179   2.926   6.858
 4270SOL    HW214708   3.085   2.891   6.745
 4271SOL     OW14709  10.895   7.511  12.984
 4271SOL    HW114710  10.818   7.465  13.017
 4271SOL    HW214711  10.867   7.547  12.900
 4272SOL     OW14712   6.572   6.683   4.994
 4272SOL    HW114713   6.599   6.688   4.903
 4272SOL    HW214714   6.480   6.708   4.994
 4273SOL     OW14715   0.099   8.536   6.793
 4273SOL    HW114716   0.165   8.473   6.764
 4273SOL    HW214717   0.075   8.507   6.881
 4274SOL     OW14718   3.187   8.003   2.597
 4274SOL    HW114719   3.143   7.923   2.625
 4274SOL    HW214720   3.172   8.065   2.669
 4275SOL     OW14721  13.425  14.870  14.784
 4275SOL    HW114722  13.404   0.045  14.857
 4275SOL    HW214723  13.373  14.791  14.799
 4276SOL     OW14724  12.152  12.332   2.814
 4276SOL    HW114725  12.081  12.389   2.843
 4276SOL    HW214726  12.198  12.384   2.747
 4277SOL     OW14727  13.586  11.160   2.942
 4277SOL    HW114728  13.505  11.118   2.971
 4277SOL    HW214729  13.620  11.102   2.874
 4278SOL     OW14730   6.774   5.120   3.914
 4278SOL    HW114731   6.760   5.191   3.977
 4278SOL    HW214732   6.869   5.118   3.901
 4279SOL     OW14733  12.921  10.199   2.084
 4279SOL    HW114734  12.967  10.116   2.093
 4279SOL    HW214735  12.891  10.200   1.993
 4280SOL     OW14736   4.372   1.194   2.687
 4280SOL    HW114737   4.383   1.287   2.706
 4280SOL    HW214738   4.308   1.191   2.616
 4281SOL     OW14739  14.030   0.844   6.861
 4281SOL    HW114740  13.981   0.844   6.779
 4281SOL    HW214741  14.122   0.855   6.834
 4282SOL     OW14742  14.414  11.924   9.340
 4282SOL    HW114743  14.467  11.910   9.419
 4282SOL    HW214744  14.352  11.992   9.365
 4283SOL     OW14745   4.239   6.432   2.586
 4283SOL    HW114746   4.198   6.476   2.661
 4283SOL    HW214747   4.206   6.478   2.509
 4284SOL     OW14748  12.083   8.985   9.711
 4284SOL    HW114749  12.175   9.008   9.706
 4284SOL    HW214750  12.061   8.951   9.624
 4285SOL     OW14751   2.026  11.960  14.166
 4285SOL    HW114752   2.023  11.899  14.092
 4285SOL    HW214753   1.991  12.042  14.131
 4286SOL     OW14754   7.232  11.330   5.466
 4286SOL    HW114755   7.187  11.252   5.498
 4286SOL    HW214756   7.276  11.366   5.543
 4287SOL     OW14757   6.511  10.157  13.317
 4287SOL    HW114758   6.561  10.083  13.353
 4287SOL    HW214759   6.551  10.234  13.356
 4288SOL     OW14760   1.042  13.856  14.094
 4288SOL    HW114761   1.057  13.950  14.096
 4288SOL    HW214762   0.989  13.842  14.016
 4289SOL     OW14763  13.904   0.570   0.080
 4289SOL    HW114764  13.905   0.558  14.868
 4289SOL    HW214765  13.841   0.640   0.095
 4290SOL     OW14766  14.554  10.738   4.307
 4290SOL    HW114767  14.558  10.831   4.286
 4290SOL    HW214768  14.566  10.694   4.223
 4291SOL     OW14769  14.007   9.539   5.037
 4291SOL    HW114770  14.037   9.569   4.951
 4291SOL    HW214771  13.912   9.552   5.035
 4292SOL     OW14772   7.491   3.417   3.945
 4292SOL    HW114773   7.506   3.471   4.022
 4292SOL    HW214774   7.553   3.344   3.953
 4293SOL     OW14775  10.787   1.680   1.122
 4293SOL    HW114776  10.842   1.758   1.121
 4293SOL    HW214777  10.721   1.696   1.055
 4294SOL     OW14778   8.588  13.426   8.752
 4294SOL    HW114779   8.502  13.457   8.723
 4294SOL    HW214780   8.646  13.445   8.678
 4295SOL     OW14781  12.352   4.909   2.592
 4295SOL    HW114782  12.415   4.838   2.590
 4295SOL    HW214783  12.317   4.908   2.681
 4296SOL     OW14784  12.018  13.775  11.952
 4296SOL    HW114785  12.109  13.748  11.961
 4296SOL    HW214786  12.021  13.855  11.900
 4297SOL     OW14787   7.641   0.279   8.523
 4297SOL    HW114788   7.700   0.348   8.494
 4297SOL    HW214789   7.555   0.321   8.526
 4298SOL     OW14790   8.141   7.441   7.570
 4298SOL    HW114791   8.146   7.346   7.554
 4298SOL    HW214792   8.080   7.473   7.504
 4299SOL     OW14793   5.765  11.215   1.526
 4299SOL    HW114794   5.829  11.284   1.539
 4299SOL    HW214795   5.701  11.227   1.596
 4300SOL     OW14796   5.177  13.463  14.560
 4300SOL    HW114797   5.201  13.376  14.593
 4300SOL    HW214798   5.167  13.450  14.465
 4301SOL     OW14799   6.722   2.717  13.895
 4301SOL    HW114800   6.659   2.650  13.921
 4301SOL    HW214801   6.798   2.702  13.951
 4302SOL     OW14802   1.238   9.962   0.134
 4302SOL    HW114803   1.324   9.919   0.129
 4302SOL    HW214804   1.251  10.034   0.197
 4303SOL     OW14805  12.357   6.231  10.805
 4303SOL    HW114806  12.351   6.217  10.710
 4303SOL    HW214807  12.409   6.311  10.814
 4304SOL     OW14808   3.402  12.681  12.975
 4304SOL    HW114809   3.415  12.606  12.916
 4304SOL    HW214810   3.353  12.644  13.049
 4305SOL     OW14811  11.807  11.924   3.220
 4305SOL    HW114812  11.821  11.964   3.134
 4305SOL    HW214813  11.896  11.906   3.252
 4306SOL     OW14814  14.069   6.253  14.444
 4306SOL    HW114815  14.105   6.264  14.532
 4306SOL    HW214816  13.988   6.204  14.456
 4307SOL     OW14817   9.298   7.824   3.648
 4307SOL    HW114818   9.370   7.762   3.651
 4307SOL    HW214819   9.219   7.770   3.651
 4308SOL     OW14820   1.909   1.940   8.317
 4308SOL    HW114821   1.819   1.971   8.314
 4308SOL    HW214822   1.956   1.994   8.254
 4309SOL     OW14823  14.006  12.483   7.580
 4309SOL    HW114824  13.956  12.474   7.661
 4309SOL    HW214825  14.000  12.398   7.537
 4310SOL     OW14826  11.936   6.653   6.648
 4310SOL    HW114827  12.005   6.696   6.700
 4310SOL    HW214828  11.882   6.726   6.616
 4311SOL     OW14829   7.344  12.163   9.497
 4311SOL    HW114830   7.360  12.076   9.461
 4311SOL    HW214831   7.249  12.173   9.497
 4312SOL     OW14832   3.359   9.531  13.734
 4312SOL    HW114833   3.447   9.525  13.771
 4312SOL    HW214834   3.335   9.623  13.744
 4313SOL     OW14835  12.128   6.209  13.519
 4313SOL    HW114836  12.152   6.256  13.440
 4313SOL    HW214837  12.203   6.222  13.578
 4314SOL     OW14838   4.846   8.451   6.632
 4314SOL    HW114839   4.892   8.454   6.548
 4314SOL    HW214840   4.889   8.381   6.680
 4315SOL     OW14841   2.784  14.621   8.588
 4315SOL    HW114842   2.856  14.631   8.651
 4315SOL    HW214843   2.747  14.708   8.581
 4316SOL     OW14844   8.129   4.633   0.736
 4316SOL    HW114845   8.213   4.617   0.694
 4316SOL    HW214846   8.126   4.570   0.809
 4317SOL     OW14847   4.484   8.408   9.135
 4317SOL    HW114848   4.534   8.452   9.204
 4317SOL    HW214849   4.539   8.333   9.110
 4318SOL     OW14850   5.396   7.096   3.938
 4318SOL    HW114851   5.400   7.032   3.867
 4318SOL    HW214852   5.447   7.170   3.907
 4319SOL     OW14853   7.219   3.565  14.735
 4319SOL    HW114854   7.150   3.575  14.669
 4319SOL    HW214855   7.265   3.484  14.711
 4320SOL     OW14856  12.940   9.423  10.697
 4320SOL    HW114857  12.895   9.339  10.695
 4320SOL    HW214858  13.011   9.414  10.633
 4321SOL     OW14859   5.743   6.621   9.321
 4321SOL    HW114860   5.771   6.687   9.385
 4321SOL    HW214861   5.769   6.657   9.237
 4322SOL     OW14862  13.870   9.992   6.041
 4322SOL    HW114863  13.940  10.056   6.058
 4322SOL    HW214864  13.789  10.040   6.056
 4323SOL     OW14865   6.232   0.783  11.021
 4323SOL    HW114866   6.151   0.801  11.070
 4323SOL    HW214867   6.292   0.748  11.087
 4324SOL     OW14868   3.868  13.903   1.063
 4324SOL    HW114869   3.805  13.966   1.097
 4324SOL    HW214870   3.817  13.825   1.042
 4325SOL     OW14871  12.907   9.044  13.516
 4325SOL    HW114872  12.984   9.080  13.560
 4325SOL    HW214873  12.905   8.951  13.541
 4326SOL     OW14874   6.812   8.636   2.099
 4326SOL    HW114875   6.768   8.562   2.139
 4326SOL    HW214876   6.741   8.694   2.071
 4327SOL     OW14877   1.444  14.383   7.203
 4327SOL    HW114878   1.489  14.402   7.286
 4327SOL    HW214879   1.356  14.358   7.229
 4328SOL     OW14880   2.863   9.137   3.060
 4328SOL    HW114881   2.876   9.179   2.975
 4328SOL    HW214882   2.951   9.107   3.085
 4329SOL     OW14883   2.279   8.634   0.321
 4329SOL    HW114884   2.261   8.559   0.377
 4329SOL    HW214885   2.374   8.641   0.320
 4330SOL     OW14886   6.932  10.362   2.350
 4330SOL    HW114887   6.923  10.292   2.285
 4330SOL    HW214888   6.908  10.321   2.433
 4331SOL     OW14889   6.002   3.341   0.557
 4331SOL    HW114890   6.061   3.417   0.562
 4331SOL    HW214891   5.935   3.367   0.493
 4332SOL     OW14892   8.166   1.571   2.966
 4332SOL    HW114893   8.129   1.521   3.039
 4332SOL    HW214894   8.247   1.608   3.002
 4333SOL     OW14895  10.640   6.087  13.463
 4333SOL    HW114896  10.547   6.067  13.447
 4333SOL    HW214897  10.668   6.134  13.385
 4334SOL     OW14898   9.869   4.149   4.840
 4334SOL    HW114899   9.829   4.232   4.812
 4334SOL    HW214900   9.831   4.083   4.782
 4335SOL     OW14901   8.562   2.947   2.317
 4335SOL    HW114902   8.652   2.917   2.321
 4335SOL    HW214903   8.510   2.866   2.311
 4336SOL     OW14904  13.594   8.688   1.951
 4336SOL    HW114905  13.522   8.642   1.908
 4336SOL    HW214906  13.605   8.642   2.034
 4337SOL     OW14907   0.470  12.998   3.088
 4337SOL    HW114908   0.530  13.054   3.038
 4337SOL    HW214909   0.384  13.038   3.074
 4338SOL     OW14910   0.836  12.315  11.147
 4338SOL    HW114911   0.815  12.227  11.116
 4338SOL    HW214912   0.803  12.318  11.236
 4339SOL     OW14913   8.907  10.236   5.923
 4339SOL    HW114914   8.859  10.184   5.987
 4339SOL    HW214915   8.878  10.203   5.838
 4340SOL     OW14916   5.286   8.009  12.114
 4340SOL    HW114917   5.228   7.974  12.182
 4340SOL    HW214918   5.370   8.020  12.159
 4341SOL     OW14919   7.647   5.337  11.007
 4341SOL    HW114920   7.716   5.271  11.011
 4341SOL    HW214921   7.593   5.311  10.932
 4342SOL     OW14922  10.084   7.679   2.633
 4342SOL    HW114923  10.136   7.682   2.714
 4342SOL    HW214924  10.148   7.662   2.564
 4343SOL     OW14925  14.347   6.285   5.094
 4343SOL    HW114926  14.355   6.347   5.021
 4343SOL    HW214927  14.275   6.320   5.147
 4344SOL     OW14928   2.833   1.627   1.201
 4344SOL    HW114929   2.842   1.542   1.158
 4344SOL    HW214930   2.766   1.673   1.149
 4345SOL     OW14931   1.805  10.994  11.074
 4345SOL    HW114932   1.874  10.929  11.058
 4345SOL    HW214933   1.752  10.955  11.143
 4346SOL     OW14934   9.998   8.610  12.191
 4346SOL    HW114935   9.936   8.622  12.119
 4346SOL    HW214936  10.041   8.695  12.200
 4347SOL     OW14937  10.100   5.092  11.912
 4347SOL    HW114938  10.110   5.010  11.864
 4347SOL    HW214939  10.126   5.159  11.849
 4348SOL     OW14940   3.613   3.382   7.851
 4348SOL    HW114941   3.538   3.338   7.810
 4348SOL    HW214942   3.639   3.323   7.922
 4349SOL     OW14943  10.049   6.167  10.923
 4349SOL    HW114944  10.038   6.112  10.845
 4349SOL    HW214945  10.065   6.105  10.994
 4350SOL     OW14946   6.238   8.557  12.691
 4350SOL    HW114947   6.148   8.525  12.678
 4350SOL    HW214948   6.287   8.480  12.719
 4351SOL     OW14949   5.881  14.259   7.025
 4351SOL    HW114950   5.977  14.259   7.031
 4351SOL    HW214951   5.856  14.168   7.044
 4352SOL     OW14952  12.410   5.909   8.698
 4352SOL    HW114953  12.446   5.841   8.640
 4352SOL    HW214954  12.318   5.914   8.673
 4353SOL     OW14955   1.823  13.116  10.167
 4353SOL    HW114956   1.744  13.167  10.180
 4353SOL    HW214957   1.798  13.048  10.105
 4354SOL     OW14958   8.760   3.903   6.768
 4354SOL    HW114959   8.797   3.990   6.781
 4354SOL    HW214960   8.669   3.919   6.740
 4355SOL     OW14961   7.532   6.827   4.967
 4355SOL    HW114962   7.575   6.794   4.888
 4355SOL    HW214963   7.471   6.894   4.935
 4356SOL     OW14964   7.616   3.214  10.738
 4356SOL    HW114965   7.650   3.167  10.814
 4356SOL    HW214966   7.532   3.248  10.767
 4357SOL     OW14967   8.698  13.536  14.055
 4357SOL    HW114968   8.718  13.611  14.000
 4357SOL    HW214969   8.664  13.574  14.136
 4358SOL     OW14970  10.922   2.998   0.375
 4358SOL    HW114971  10.860   3.048   0.428
 4358SOL    HW214972  11.002   3.051   0.377
 4359SOL     OW14973   6.661   8.239   4.167
 4359SOL    HW114974   6.632   8.149   4.150
 4359SOL    HW214975   6.691   8.271   4.082
 4360SOL     OW14976  11.978   2.256  13.643
 4360SOL    HW114977  12.026   2.178  13.671
 4360SOL    HW214978  11.964   2.306  13.724
 4361SOL     OW14979   8.433  11.407  12.196
 4361SOL    HW114980   8.353  11.363  12.166
 4361SOL    HW214981   8.479  11.340  12.247
 4362SOL     OW14982   5.756   4.465   7.253
 4362SOL    HW114983   5.819   4.536   7.236
 4362SOL    HW214984   5.678   4.491   7.204
 4363SOL     OW14985   1.338   9.729  14.230
 4363SOL    HW114986   1.327   9.788  14.156
 4363SOL    HW214987   1.428   9.697  14.223
 4364SOL     OW14988   2.232   5.542  11.046
 4364SOL    HW114989   2.188   5.504  11.122
 4364SOL    HW214990   2.291   5.473  11.016
 4365SOL     OW14991   8.036   0.729   3.349
 4365SOL    HW114992   8.130   0.743   3.334
 4365SOL    HW214993   8.027   0.728   3.445
 4366SOL     OW14994  11.709   6.549   0.425
 4366SOL    HW114995  11.794   6.591   0.437
 4366SOL    HW214996  11.654   6.617   0.386
 4367SOL     OW14997  10.141   7.036   6.505
 4367SOL    HW114998  10.087   6.980   6.559
 4367SOL    HW214999  10.200   7.079   6.566
 4368SOL     OW15000  11.718   8.978   5.514
 4368SOL    HW115001  11.780   8.983   5.441
 4368SOL    HW215002  11.740   8.896   5.558
 4369SOL     OW15003   6.017  10.077  11.985
 4369SOL    HW115004   6.077  10.150  11.970
 4369SOL    HW215005   5.979  10.095  12.070
 4370SOL     OW15006   4.600   8.364   1.667
 4370SOL    HW115007   4.631   8.412   1.590
 4370SOL    HW215008   4.570   8.432   1.727
 4371SOL     OW15009   2.764   1.614  12.514
 4371SOL    HW115010   2.742   1.545  12.577
 4371SOL    HW215011   2.832   1.576  12.458
 4372SOL     OW15012  13.332   7.415   9.314
 4372SOL    HW115013  13.350   7.417   9.408
 4372SOL    HW215014  13.407   7.370   9.276
 4373SOL     OW15015   7.386   2.479   3.731
 4373SOL    HW115016   7.409   2.403   3.677
 4373SOL    HW215017   7.291   2.474   3.740
 4374SOL     OW15018   5.267  10.549   1.293
 4374SOL    HW115019   5.225  10.626   1.331
 4374SOL    HW215020   5.359  10.557   1.318
 4375SOL     OW15021   9.315   7.779  12.124
 4375SOL    HW115022   9.341   7.716  12.191
 4375SOL    HW215023   9.295   7.725  12.047
 4376SOL     OW15024   9.109  10.015   3.427
 4376SOL    HW115025   9.051   9.939   3.436
 4376SOL    HW215026   9.179   9.985   3.370
 4377SOL     OW15027  13.281   2.023   7.652
 4377SOL    HW115028  13.277   1.931   7.677
 4377SOL    HW215029  13.195   2.058   7.674
 4378SOL     OW15030   2.791   6.743  11.491
 4378SOL    HW115031   2.814   6.834  11.510
 4378SOL    HW215032   2.857   6.691  11.537
 4379SOL     OW15033  10.945   4.780   2.959
 4379SOL    HW115034  11.033   4.760   2.929
 4379SOL    HW215035  10.919   4.703   3.009
 4380SOL     OW15036   7.433   4.294  11.374
 4380SOL    HW115037   7.476   4.321  11.455
 4380SOL    HW215038   7.452   4.364  11.312
 4381SOL     OW15039   9.733   1.229   8.777
 4381SOL    HW115040   9.704   1.294   8.713
 4381SOL    HW215041   9.708   1.265   8.862
 4382SOL     OW15042  12.092   9.699  12.796
 4382SOL    HW115043  12.079   9.762  12.868
 4382SOL    HW215044  12.117   9.618  12.839
 4383SOL     OW15045  13.190   2.696  13.677
 4383SOL    HW115046  13.166   2.783  13.709
 4383SOL    HW215047  13.165   2.636  13.748
 4384SOL     OW15048  10.709  10.430   7.806
 4384SOL    HW115049  10.757  10.348   7.800
 4384SOL    HW215050  10.727  10.463   7.894
 4385SOL     OW15051   0.143   2.072  11.383
 4385SOL    HW115052   0.070   2.093  11.441
 4385SOL    HW215053   0.147   2.145  11.322
 4386SOL     OW15054   3.221   0.617   3.242
 4386SOL    HW115055   3.137   0.572   3.231
 4386SOL    HW215056   3.285   0.559   3.201
 4387SOL     OW15057   3.234   5.950  10.905
 4387SOL    HW115058   3.205   5.861  10.886
 4387SOL    HW215059   3.301   5.969  10.840
 4388SOL     OW15060  10.969  14.359   7.108
 4388SOL    HW115061  10.976  14.265   7.121
 4388SOL    HW215062  10.977  14.396   7.196
 4389SOL     OW15063   0.260   0.026   9.339
 4389SOL    HW115064   0.258   0.117   9.369
 4389SOL    HW215065   0.344  14.875   9.371
 4390SOL     OW15066  10.194   7.334   5.134
 4390SOL    HW115067  10.119   7.350   5.076
 4390SOL    HW215068  10.163   7.361   5.221
 4391SOL     OW15069   2.305  14.241   1.919
 4391SOL    HW115070   2.220  14.243   1.963
 4391SOL    HW215071   2.287  14.203   1.833
 4392SOL     OW15072  10.737   8.093  13.754
 4392SOL    HW115073  10.692   8.177  13.765
 4392SOL    HW215074  10.728   8.074  13.661
 4393SOL     OW15075   7.699  10.557   1.966
 4393SOL    HW115076   7.739  10.619   1.904
 4393SOL    HW215077   7.734  10.583   2.051
 4394SOL     OW15078   3.942  10.608  11.411
 4394SOL    HW115079   3.928  10.630  11.502
 4394SOL    HW215080   4.036  10.623  11.397
 4395SOL     OW15081   1.220   5.679   9.140
 4395SOL    HW115082   1.132   5.679   9.179
 4395SOL    HW215083   1.220   5.602   9.082
 4396SOL     OW15084  12.047  11.555  14.263
 4396SOL    HW115085  12.141  11.553  14.248
 4396SOL    HW215086  12.035  11.514  14.349
 4397SOL     OW15087   3.000   0.788   6.151
 4397SOL    HW115088   2.990   0.725   6.079
 4397SOL    HW215089   2.983   0.873   6.110
 4398SOL     OW15090  10.262  13.282  12.971
 4398SOL    HW115091  10.261  13.342  13.045
 4398SOL    HW215092  10.245  13.196  13.009
 4399SOL     OW15093   7.625  12.267  10.638
 4399SOL    HW115094   7.624  12.172  10.630
 4399SOL    HW215095   7.671  12.284  10.720
 4400SOL     OW15096   3.325   0.535  13.096
 4400SOL    HW115097   3.402   0.526  13.041
 4400SOL    HW215098   3.325   0.457  13.152
 4401SOL     OW15099   1.462  14.135   3.198
 4401SOL    HW115100   1.408  14.062   3.166
 4401SOL    HW215101   1.423  14.212   3.157
 4402SOL     OW15102   3.387   2.593   8.189
 4402SOL    HW115103   3.386   2.680   8.227
 4402SOL    HW215104   3.388   2.608   8.094
 4403SOL     OW15105   2.989   7.385   8.654
 4403SOL    HW115106   2.913   7.442   8.659
 4403SOL    HW215107   3.060   7.436   8.693
 4404SOL     OW15108  12.326   1.967   6.346
 4404SOL    HW115109  12.267   1.967   6.271
 4404SOL    HW215110  12.386   1.894   6.329
 4405SOL     OW15111  14.854   8.949   6.065
 4405SOL    HW115112  14.822   8.925   6.152
 4405SOL    HW215113  14.775   8.950   6.011
 4406SOL     OW15114   6.643   4.804   2.680
 4406SOL    HW115115   6.579   4.770   2.617
 4406SOL    HW215116   6.595   4.805   2.763
 4407SOL     OW15117  10.540   8.404   1.506
 4407SOL    HW115118  10.565   8.410   1.414
 4407SOL    HW215119  10.448   8.380   1.505
 4408SOL     OW15120   6.435  11.878  10.597
 4408SOL    HW115121   6.393  11.803  10.639
 4408SOL    HW215122   6.505  11.903  10.657
 4409SOL     OW15123  10.671  14.152   1.718
 4409SOL    HW115124  10.668  14.245   1.741
 4409SOL    HW215125  10.620  14.109   1.786
 4410SOL     OW15126   6.042   7.996   1.833
 4410SOL    HW115127   6.026   8.014   1.740
 4410SOL    HW215128   5.959   8.018   1.876
 4411SOL     OW15129   6.536   6.069  12.895
 4411SOL    HW115130   6.535   6.109  12.808
 4411SOL    HW215131   6.569   6.139  12.953
 4412SOL     OW15132   2.104  12.213  12.185
 4412SOL    HW115133   2.013  12.226  12.158
 4412SOL    HW215134   2.130  12.130  12.145
 4413SOL     OW15135  10.842  12.479  10.510
 4413SOL    HW115136  10.770  12.439  10.559
 4413SOL    HW215137  10.904  12.508  10.577
 4414SOL     OW15138  11.341  13.659  11.782
 4414SOL    HW115139  11.264  13.674  11.728
 4414SOL    HW215140  11.339  13.566  11.803
 4415SOL     OW15141   9.905   1.076   8.638
 4415SOL    HW115142   9.855   1.138   8.690
 4415SOL    HW215143   9.909   1.117   8.551
 4416SOL     OW15144  14.303  11.052  10.538
 4416SOL    HW115145  14.256  11.005  10.606
 4416SOL    HW215146  14.300  11.144  10.566
 4417SOL     OW15147  11.142  12.299  14.821
 4417SOL    HW115148  11.115  12.358   0.009
 4417SOL    HW215149  11.131  12.211  14.858
 4418SOL     OW15150   5.092   0.439  12.767
 4418SOL    HW115151   5.003   0.430  12.733
 4418SOL    HW215152   5.147   0.406  12.696
 4419SOL     OW15153  12.451   0.448   6.619
 4419SOL    HW115154  12.362   0.424   6.646
 4419SOL    HW215155  12.445   0.460   6.524
 4420SOL     OW15156   5.515   1.527   2.922
 4420SOL    HW115157   5.420   1.511   2.922
 4420SOL    HW215158   5.536   1.544   2.830
 4421SOL     OW15159   9.717   9.964   2.061
 4421SOL    HW115160   9.672   9.899   2.114
 4421SOL    HW215161   9.806   9.930   2.050
 4422SOL     OW15162   9.217   5.597   0.250
 4422SOL    HW115163   9.225   5.627   0.341
 4422SOL    HW215164   9.242   5.673   0.198
 4423SOL     OW15165   3.770   9.065  12.717
 4423SOL    HW115166   3.854   9.047  12.676
 4423SOL    HW215167   3.718   9.107  12.648
 4424SOL     OW15168   6.463  11.415  13.820
 4424SOL    HW115169   6.392  11.367  13.863
 4424SOL    HW215170   6.421  11.493  13.784
 4425SOL     OW15171   2.368  14.649  10.580
 4425SOL    HW115172   2.411  14.612  10.503
 4425SOL    HW215173   2.277  14.660  10.554
 4426SOL     OW15174   8.685   6.351   0.080
 4426SOL    HW115175   8.665   6.258   0.075
 4426SOL    HW215176   8.649   6.379   0.164
 4427SOL     OW15177   8.031  12.032  10.083
 4427SOL    HW115178   8.120  11.999  10.090
 4427SOL    HW215179   8.038  12.126  10.103
 4428SOL     OW15180  14.390   5.993  12.047
 4428SOL    HW115181  14.439   5.968  11.969
 4428SOL    HW215182  14.299   5.997  12.019
 4429SOL     OW15183   0.982   2.282  12.307
 4429SOL    HW115184   0.932   2.271  12.227
 4429SOL    HW215185   0.975   2.375  12.328
 4430SOL     OW15186  14.784   0.788   1.634
 4430SOL    HW115187  14.699   0.816   1.600
 4430SOL    HW215188  14.800   0.703   1.592
 4431SOL     OW15189   7.113  12.966   9.669
 4431SOL    HW115190   7.181  13.024   9.704
 4431SOL    HW215191   7.155  12.881   9.661
 4432SOL     OW15192  11.774   3.649   3.359
 4432SOL    HW115193  11.697   3.685   3.402
 4432SOL    HW215194  11.740   3.578   3.305
 4433SOL     OW15195  10.626   9.061   3.540
 4433SOL    HW115196  10.547   9.032   3.494
 4433SOL    HW215197  10.688   8.989   3.528
 4434SOL     OW15198   5.420  10.399   4.255
 4434SOL    HW115199   5.360  10.413   4.329
 4434SOL    HW215200   5.443  10.487   4.226
 4435SOL     OW15201   9.653   6.552   8.460
 4435SOL    HW115202   9.727   6.611   8.448
 4435SOL    HW215203   9.630   6.524   8.371
 4436SOL     OW15204   6.755   3.497   8.046
 4436SOL    HW115205   6.768   3.417   7.995
 4436SOL    HW215206   6.758   3.567   7.981
 4437SOL     OW15207   1.919   1.354   8.598
 4437SOL    HW115208   1.854   1.415   8.563
 4437SOL    HW215209   1.929   1.288   8.530
 4438SOL     OW15210   2.085   3.834   7.601
 4438SOL    HW115211   2.145   3.897   7.641
 4438SOL    HW215212   2.083   3.859   7.508
 4439SOL     OW15213  14.592  13.403  12.117
 4439SOL    HW115214  14.543  13.451  12.184
 4439SOL    HW215215  14.659  13.465  12.088
 4440SOL     OW15216  12.566   0.174   2.718
 4440SOL    HW115217  12.520   0.119   2.655
 4440SOL    HW215218  12.618   0.113   2.771
 4441SOL     OW15219   0.079   5.206   7.399
 4441SOL    HW115220   0.161   5.254   7.405
 4441SOL    HW215221   0.056   5.186   7.490
 4442SOL     OW15222   8.014   5.682  10.186
 4442SOL    HW115223   7.932   5.635  10.202
 4442SOL    HW215224   8.065   5.668  10.265
 4443SOL     OW15225  11.758  14.369   8.158
 4443SOL    HW115226  11.757  14.276   8.134
 4443SOL    HW215227  11.730  14.415   8.079
 4444SOL     OW15228   9.233  12.945   2.100
 4444SOL    HW115229   9.322  12.937   2.067
 4444SOL    HW215230   9.224  12.873   2.163
 4445SOL     OW15231  12.635  13.778  13.606
 4445SOL    HW115232  12.716  13.774  13.554
 4445SOL    HW215233  12.647  13.711  13.673
 4446SOL     OW15234   6.222   7.691   3.907
 4446SOL    HW115235   6.167   7.694   3.985
 4446SOL    HW215236   6.192   7.764   3.853
 4447SOL     OW15237   2.383   6.125   3.764
 4447SOL    HW115238   2.429   6.199   3.801
 4447SOL    HW215239   2.360   6.153   3.675
 4448SOL     OW15240  11.640  11.701   1.941
 4448SOL    HW115241  11.550  11.722   1.917
 4448SOL    HW215242  11.638  11.607   1.961
 4449SOL     OW15243   5.270   2.396   8.317
 4449SOL    HW115244   5.348   2.443   8.347
 4449SOL    HW215245   5.227   2.456   8.257
 4450SOL     OW15246  11.559   6.353  13.230
 4450SOL    HW115247  11.489   6.418  13.243
 4450SOL    HW215248  11.637   6.395  13.265
 4451SOL     OW15249   7.857   1.145   1.590
 4451SOL    HW115250   7.838   1.056   1.618
 4451SOL    HW215251   7.951   1.156   1.605
 4452SOL     OW15252  10.166   9.899   5.289
 4452SOL    HW115253  10.174   9.916   5.383
 4452SOL    HW215254  10.182   9.805   5.280
 4453SOL     OW15255   4.450   1.995  14.226
 4453SOL    HW115256   4.382   1.990  14.293
 4453SOL    HW215257   4.511   2.061  14.259
 4454SOL     OW15258   1.342  10.912   2.596
 4454SOL    HW115259   1.316  10.939   2.508
 4454SOL    HW215260   1.296  10.828   2.609
 4455SOL     OW15261   0.542   6.430   5.412
 4455SOL    HW115262   0.555   6.525   5.417
 4455SOL    HW215263   0.582   6.404   5.330
 4456SOL     OW15264  12.448  11.487   4.261
 4456SOL    HW115265  12.401  11.553   4.312
 4456SOL    HW215266  12.532  11.478   4.305
 4457SOL     OW15267   7.434   7.230   5.806
 4457SOL    HW115268   7.523   7.209   5.779
 4457SOL    HW215269   7.445   7.294   5.877
 4458SOL     OW15270   8.973   0.796   6.519
 4458SOL    HW115271   9.005   0.749   6.441
 4458SOL    HW215272   8.878   0.790   6.513
 4459SOL     OW15273   6.576   5.960   5.032
 4459SOL    HW115274   6.585   5.989   5.122
 4459SOL    HW215275   6.531   5.876   5.038
 4460SOL     OW15276   2.686   3.229   4.989
 4460SOL    HW115277   2.731   3.150   5.018
 4460SOL    HW215278   2.606   3.232   5.041
 4461SOL     OW15279   5.277  10.850  11.110
 4461SOL    HW115280   5.190  10.817  11.133
 4461SOL    HW215281   5.273  10.862  11.015
 4462SOL     OW15282   6.034  12.675   8.197
 4462SOL    HW115283   6.111  12.647   8.148
 4462SOL    HW215284   5.993  12.742   8.141
 4463SOL     OW15285  13.324   0.310   2.122
 4463SOL    HW115286  13.276   0.233   2.150
 4463SOL    HW215287  13.257   0.371   2.092
 4464SOL     OW15288  11.595   6.328   4.686
 4464SOL    HW115289  11.568   6.419   4.674
 4464SOL    HW215290  11.566   6.305   4.774
 4465SOL     OW15291  14.757   2.191   5.628
 4465SOL    HW115292  14.665   2.169   5.642
 4465SOL    HW215293  14.756   2.282   5.598
 4466SOL     OW15294   5.526   4.603   0.950
 4466SOL    HW115295   5.576   4.655   0.887
 4466SOL    HW215296   5.563   4.515   0.943
 4467SOL     OW15297   8.720   9.273   7.951
 4467SOL    HW115298   8.662   9.349   7.960
 4467SOL    HW215299   8.772   9.293   7.873
 4468SOL     OW15300   4.006  12.051   5.896
 4468SOL    HW115301   3.980  11.974   5.845
 4468SOL    HW215302   4.053  12.106   5.834
 4469SOL     OW15303   2.714   7.572   2.589
 4469SOL    HW115304   2.659   7.508   2.633
 4469SOL    HW215305   2.743   7.632   2.658
 4470SOL     OW15306   9.461   7.274   3.060
 4470SOL    HW115307   9.381   7.230   3.032
 4470SOL    HW215308   9.449   7.365   3.034
 4471SOL     OW15309  11.139   6.724   0.555
 4471SOL    HW115310  11.137   6.802   0.610
 4471SOL    HW215311  11.143   6.651   0.618
 4472SOL     OW15312  12.977  14.606  10.105
 4472SOL    HW115313  13.039  14.646  10.165
 4472SOL    HW215314  12.897  14.594  10.157
 4473SOL     OW15315   6.291   0.411   5.468
 4473SOL    HW115316   6.308   0.434   5.377
 4473SOL    HW215317   6.361   0.349   5.490
 4474SOL     OW15318   7.485   7.777   0.670
 4474SOL    HW115319   7.463   7.847   0.731
 4474SOL    HW215320   7.519   7.707   0.726
 4475SOL     OW15321   3.330   5.772   1.436
 4475SOL    HW115322   3.243   5.776   1.396
 4475SOL    HW215323   3.349   5.861   1.463
 4476SOL     OW15324  13.040  14.830   7.505
 4476SOL    HW115325  13.050  14.826   7.600
 4476SOL    HW215326  13.006  14.744   7.481
 4477SOL     OW15327  13.928  13.500   7.167
 4477SOL    HW115328  13.861  13.554   7.209
 4477SOL    HW215329  13.899  13.491   7.077
 4478SOL     OW15330   5.913   4.658   0.762
 4478SOL    HW115331   5.945   4.696   0.843
 4478SOL    HW215332   5.871   4.576   0.789
 4479SOL     OW15333   2.820  12.545   9.510
 4479SOL    HW115334   2.852  12.633   9.527
 4479SOL    HW215335   2.777  12.550   9.425
 4480SOL     OW15336   1.903   8.891   7.604
 4480SOL    HW115337   1.846   8.817   7.584
 4480SOL    HW215338   1.990   8.862   7.576
 4481SOL     OW15339   3.235   4.725   8.446
 4481SOL    HW115340   3.310   4.778   8.474
 4481SOL    HW215341   3.262   4.635   8.465
 4482SOL     OW15342  10.962   7.897   4.902
 4482SOL    HW115343  10.898   7.837   4.942
 4482SOL    HW215344  10.959   7.976   4.956
 4483SOL     OW15345   2.248   5.917  13.240
 4483SOL    HW115346   2.305   5.966  13.182
 4483SOL    HW215347   2.172   5.973  13.253
 4484SOL     OW15348   0.516  11.151   2.170
 4484SOL    HW115349   0.527  11.148   2.265
 4484SOL    HW215350   0.544  11.239   2.145
 4485SOL     OW15351   5.314   1.318  11.028
 4485SOL    HW115352   5.302   1.412  11.041
 4485SOL    HW215353   5.227   1.285  11.007
 4486SOL     OW15354   7.463   9.730   9.747
 4486SOL    HW115355   7.550   9.762   9.772
 4486SOL    HW215356   7.451   9.650   9.798
 4487SOL     OW15357  12.004   7.464  10.760
 4487SOL    HW115358  11.970   7.485  10.673
 4487SOL    HW215359  12.077   7.525  10.772
 4488SOL     OW15360  14.046   5.383   7.627
 4488SOL    HW115361  13.988   5.319   7.585
 4488SOL    HW215362  13.987   5.439   7.678
 4489SOL     OW15363   9.644  14.466   1.092
 4489SOL    HW115364   9.681  14.432   1.173
 4489SOL    HW215365   9.648  14.561   1.101
 4490SOL     OW15366  12.204   8.064   3.105
 4490SOL    HW115367  12.160   8.110   3.033
 4490SOL    HW215368  12.291   8.044   3.071
 4491SOL     OW15369  10.485   6.386   6.202
 4491SOL    HW115370  10.442   6.457   6.248
 4491SOL    HW215371  10.423   6.360   6.134
 4492SOL     OW15372  14.830  12.788  13.592
 4492SOL    HW115373  14.823  12.779  13.688
 4492SOL    HW215374   0.042  12.778  13.575
 4493SOL     OW15375   2.586  14.476   3.813
 4493SOL    HW115376   2.514  14.540   3.815
 4493SOL    HW215377   2.641  14.504   3.740
 4494SOL     OW15378   9.848  14.794  13.807
 4494SOL    HW115379   9.935  14.819  13.841
 4494SOL    HW215380   9.846  14.699  13.814
 4495SOL     OW15381  11.646   2.707  14.696
 4495SOL    HW115382  11.617   2.796  14.676
 4495SOL    HW215383  11.565   2.660  14.720
 4496SOL     OW15384  12.256  14.867   5.605
 4496SOL    HW115385  12.205   0.063   5.625
 4496SOL    HW215386  12.191  14.801   5.580
 4497SOL     OW15387   4.708   4.625   1.311
 4497SOL    HW115388   4.701   4.652   1.403
 4497SOL    HW215389   4.628   4.659   1.271
 4498SOL     OW15390   5.292   0.226  13.215
 4498SOL    HW115391   5.251   0.299  13.169
 4498SOL    HW215392   5.334   0.175  13.146
 4499SOL     OW15393   1.419   7.337   6.990
 4499SOL    HW115394   1.417   7.366   7.081
 4499SOL    HW215395   1.337   7.370   6.952
 4500SOL     OW15396   7.801   3.949  11.469
 4500SOL    HW115397   7.873   3.933  11.530
 4500SOL    HW215398   7.804   4.043  11.452
 4501SOL     OW15399  12.057   9.767  11.388
 4501SOL    HW115400  11.991   9.723  11.441
 4501SOL    HW215401  12.113   9.812  11.452
 4502SOL     OW15402  10.240   0.240  13.627
 4502SOL    HW115403  10.221   0.156  13.586
 4502SOL    HW215404  10.167   0.297  13.599
 4503SOL     OW15405   9.808   4.242   6.242
 4503SOL    HW115406   9.766   4.199   6.317
 4503SOL    HW215407   9.792   4.335   6.256
 4504SOL     OW15408   4.048   0.615   7.594
 4504SOL    HW115409   3.956   0.612   7.622
 4504SOL    HW215410   4.089   0.676   7.655
 4505SOL     OW15411   9.636  10.858   8.210
 4505SOL    HW115412   9.544  10.831   8.206
 4505SOL    HW215413   9.634  10.948   8.242
 4506SOL     OW15414  11.396   6.058  14.531
 4506SOL    HW115415  11.466   6.116  14.501
 4506SOL    HW215416  11.441   5.980  14.563
 4507SOL     OW15417  11.998   2.805  10.886
 4507SOL    HW115418  11.951   2.812  10.804
 4507SOL    HW215419  12.008   2.896  10.916
 4508SOL     OW15420   9.136   2.497   1.498
 4508SOL    HW115421   9.189   2.548   1.437
 4508SOL    HW215422   9.191   2.423   1.523
 4509SOL     OW15423   2.950  14.018  12.354
 4509SOL    HW115424   2.941  13.934  12.309
 4509SOL    HW215425   3.043  14.024  12.376
 4510SOL     OW15426   0.853   6.044  10.734
 4510SOL    HW115427   0.759   6.029  10.748
 4510SOL    HW215428   0.874   6.117  10.792
 4511SOL     OW15429  14.701  14.508   3.350
 4511SOL    HW115430  14.778  14.483   3.401
 4511SOL    HW215431  14.627  14.489   3.406
 4512SOL     OW15432   6.424   6.736   6.742
 4512SOL    HW115433   6.450   6.778   6.824
 4512SOL    HW215434   6.506   6.715   6.698
 4513SOL     OW15435  13.604  10.219   5.422
 4513SOL    HW115436  13.683  10.216   5.475
 4513SOL    HW215437  13.611  10.300   5.371
 4514SOL     OW15438   1.450   9.425   9.503
 4514SOL    HW115439   1.360   9.401   9.523
 4514SOL    HW215440   1.461   9.513   9.540
 4515SOL     OW15441   0.811   5.601   5.991
 4515SOL    HW115442   0.812   5.696   5.998
 4515SOL    HW215443   0.758   5.583   5.914
 4516SOL     OW15444  14.258  10.569  13.897
 4516SOL    HW115445  14.300  10.493  13.937
 4516SOL    HW215446  14.247  10.631  13.968
 4517SOL     OW15447  13.387   1.577   7.724
 4517SOL    HW115448  13.453   1.636   7.688
 4517SOL    HW215449  13.316   1.634   7.752
 4518SOL     OW15450   9.741   2.743  13.783
 4518SOL    HW115451   9.650   2.773  13.788
 4518SOL    HW215452   9.773   2.776  13.700
 4519SOL     OW15453   7.744   2.547   9.233
 4519SOL    HW115454   7.649   2.561   9.238
 4519SOL    HW215455   7.775   2.616   9.174
 4520SOL     OW15456   7.857   1.998  11.107
 4520SOL    HW115457   7.927   2.046  11.150
 4520SOL    HW215458   7.777   2.038  11.141
 4521SOL     OW15459  11.183   3.571  10.893
 4521SOL    HW115460  11.107   3.540  10.844
 4521SOL    HW215461  11.159   3.559  10.985
 4522SOL     OW15462   0.646   3.468   4.658
 4522SOL    HW115463   0.612   3.385   4.693
 4522SOL    HW215464   0.724   3.443   4.608
 4523SOL     OW15465   1.272   4.400  11.756
 4523SOL    HW115466   1.191   4.395  11.705
 4523SOL    HW215467   1.278   4.492  11.783
 4524SOL     OW15468   5.189   3.697   8.457
 4524SOL    HW115469   5.141   3.760   8.510
 4524SOL    HW215470   5.120   3.642   8.418
 4525SOL     OW15471   8.214   4.165   4.807
 4525SOL    HW115472   8.204   4.122   4.892
 4525SOL    HW215473   8.125   4.182   4.777
 4526SOL     OW15474   4.594   0.057  13.728
 4526SOL    HW115475   4.681   0.096  13.733
 4526SOL    HW215476   4.557   0.070  13.815
 4527SOL     OW15477   1.104   8.566  12.181
 4527SOL    HW115478   1.150   8.492  12.221
 4527SOL    HW215479   1.143   8.643  12.222
 4528SOL     OW15480   9.251  12.114  13.768
 4528SOL    HW115481   9.306  12.156  13.834
 4528SOL    HW215482   9.207  12.043  13.816
 4529SOL     OW15483  11.792   9.504   9.234
 4529SOL    HW115484  11.714   9.449   9.236
 4529SOL    HW215485  11.802   9.534   9.325
 4530SOL     OW15486  10.952   3.520   2.331
 4530SOL    HW115487  10.905   3.550   2.409
 4530SOL    HW215488  11.039   3.559   2.340
 4531SOL     OW15489   3.428   3.085   1.159
 4531SOL    HW115490   3.360   3.152   1.168
 4531SOL    HW215491   3.402   3.015   1.220
 4532SOL     OW15492   9.744   1.324   1.143
 4532SOL    HW115493   9.700   1.241   1.124
 4532SOL    HW215494   9.699   1.358   1.219
 4533SOL     OW15495   2.630  10.441  11.245
 4533SOL    HW115496   2.650  10.364  11.192
 4533SOL    HW215497   2.535  10.447  11.244
 4534SOL     OW15498   1.961   4.329  13.802
 4534SOL    HW115499   1.871   4.312  13.828
 4534SOL    HW215500   2.002   4.243  13.802
 4535SOL     OW15501   6.092   9.659   8.452
 4535SOL    HW115502   6.111   9.701   8.536
 4535SOL    HW215503   6.160   9.593   8.442
 4536SOL     OW15504  11.560   7.376  13.253
 4536SOL    HW115505  11.553   7.283  13.231
 4536SOL    HW215506  11.473   7.412  13.236
 4537SOL     OW15507   2.993   7.111  14.402
 4537SOL    HW115508   2.916   7.084  14.351
 4537SOL    HW215509   2.969   7.096  14.493
 4538SOL     OW15510   1.004  14.791   1.041
 4538SOL    HW115511   1.022  14.790   0.947
 4538SOL    HW215512   0.919  14.833   1.049
 4539SOL     OW15513   4.743   1.986   5.660
 4539SOL    HW115514   4.657   1.953   5.687
 4539SOL    HW215515   4.756   2.065   5.713
 4540SOL     OW15516   4.412  10.505  10.898
 4540SOL    HW115517   4.393  10.482  10.806
 4540SOL    HW215518   4.456  10.427  10.932
 4541SOL     OW15519  10.849   5.863   5.537
 4541SOL    HW115520  10.775   5.922   5.549
 4541SOL    HW215521  10.865   5.826   5.624
 4542SOL     OW15522   7.318   8.588   3.102
 4542SOL    HW115523   7.266   8.543   3.169
 4542SOL    HW215524   7.309   8.533   3.024
 4543SOL     OW15525   3.510  14.586  10.230
 4543SOL    HW115526   3.576  14.519  10.214
 4543SOL    HW215527   3.537  14.627  10.313
 4544SOL     OW15528   2.611  10.680   1.266
 4544SOL    HW115529   2.523  10.716   1.271
 4544SOL    HW215530   2.667  10.751   1.299
 4545SOL     OW15531   9.882   6.989   2.531
 4545SOL    HW115532   9.958   7.026   2.486
 4545SOL    HW215533   9.822   7.063   2.542
 4546SOL     OW15534   2.034   0.281  11.590
 4546SOL    HW115535   1.974   0.249  11.657
 4546SOL    HW215536   2.087   0.347  11.634
 4547SOL     OW15537   4.252   4.805  13.068
 4547SOL    HW115538   4.250   4.796  12.973
 4547SOL    HW215539   4.345   4.801  13.091
 4548SOL     OW15540  13.923  14.398   9.619
 4548SOL    HW115541  13.953  14.324   9.565
 4548SOL    HW215542  13.992  14.408   9.685
 4549SOL     OW15543   4.015   4.376  10.863
 4549SOL    HW115544   3.961   4.455  10.858
 4549SOL    HW215545   4.104   4.407  10.850
 4550SOL     OW15546   4.375   4.839   2.418
 4550SOL    HW115547   4.437   4.798   2.478
 4550SOL    HW215548   4.319   4.768   2.388
 4551SOL     OW15549  11.131  14.863  11.458
 4551SOL    HW115550  11.131   0.030  11.376
 4551SOL    HW215551  11.182   0.035  11.519
 4552SOL     OW15552  14.801   6.968   1.007
 4552SOL    HW115553  14.776   6.908   0.937
 4552SOL    HW215554  14.817   7.051   0.962
 4553SOL     OW15555   5.804   3.578  10.985
 4553SOL    HW115556   5.898   3.574  11.006
 4553SOL    HW215557   5.780   3.488  10.965
 4554SOL     OW15558   3.587   1.410  13.599
 4554SOL    HW115559   3.655   1.388  13.535
 4554SOL    HW215560   3.528   1.334  13.597
 4555SOL     OW15561   5.171   6.828  14.681
 4555SOL    HW115562   5.245   6.884  14.702
 4555SOL    HW215563   5.190   6.795  14.593
 4556SOL     OW15564   5.181   6.391   2.126
 4556SOL    HW115565   5.117   6.403   2.056
 4556SOL    HW215566   5.172   6.299   2.151
 4557SOL     OW15567   1.399   4.326   0.652
 4557SOL    HW115568   1.333   4.354   0.588
 4557SOL    HW215569   1.360   4.250   0.695
 4558SOL     OW15570  13.837   0.290   8.063
 4558SOL    HW115571  13.782   0.247   7.998
 4558SOL    HW215572  13.877   0.364   8.017
 4559SOL     OW15573   2.046   1.469  13.565
 4559SOL    HW115574   2.083   1.476  13.653
 4559SOL    HW215575   2.055   1.557  13.528
 4560SOL     OW15576  14.783  12.080  14.813
 4560SOL    HW115577  14.764  12.021   0.004
 4560SOL    HW215578  14.797  12.021  14.739
 4561SOL     OW15579   0.380   0.205   0.432
 4561SOL    HW115580   0.322   0.129   0.435
 4561SOL    HW215581   0.330   0.271   0.384
 4562SOL     OW15582   1.630   4.979  11.358
 4562SOL    HW115583   1.700   5.041  11.377
 4562SOL    HW215584   1.653   4.942  11.272
 4563SOL     OW15585  13.512   1.485   6.318
 4563SOL    HW115586  13.490   1.453   6.231
 4563SOL    HW215587  13.607   1.472   6.325
 4564SOL     OW15588   2.843  10.346  10.085
 4564SOL    HW115589   2.840  10.262  10.131
 4564SOL    HW215590   2.901  10.401  10.139
 4565SOL     OW15591   0.718  13.721   8.492
 4565SOL    HW115592   0.745  13.642   8.540
 4565SOL    HW215593   0.791  13.740   8.434
 4566SOL     OW15594   3.471   2.122   3.868
 4566SOL    HW115595   3.470   2.155   3.778
 4566SOL    HW215596   3.542   2.058   3.870
 4567SOL     OW15597  13.235   9.555   5.383
 4567SOL    HW115598  13.328   9.574   5.386
 4567SOL    HW215599  13.228   9.465   5.414
 4568SOL     OW15600   4.276   6.141   4.811
 4568SOL    HW115601   4.360   6.123   4.768
 4568SOL    HW215602   4.210   6.107   4.751
 4569SOL     OW15603   4.426  11.955  11.600
 4569SOL    HW115604   4.381  11.884  11.555
 4569SOL    HW215605   4.410  11.939  11.693
 4570SOL     OW15606  14.353  10.253   1.478
 4570SOL    HW115607  14.267  10.215   1.492
 4570SOL    HW215608  14.344  10.304   1.397
 4571SOL     OW15609  13.133   2.675   6.878
 4571SOL    HW115610  13.145   2.694   6.971
 4571SOL    HW215611  13.065   2.608   6.875
 4572SOL     OW15612   0.656  10.883   2.383
 4572SOL    HW115613   0.577  10.829   2.392
 4572SOL    HW215614   0.715  10.849   2.450
 4573SOL     OW15615   6.458   0.809   1.659
 4573SOL    HW115616   6.495   0.818   1.570
 4573SOL    HW215617   6.364   0.820   1.647
 4574SOL     OW15618   3.576   2.494  10.181
 4574SOL    HW115619   3.669   2.504  10.163
 4574SOL    HW215620   3.561   2.545  10.261
 4575SOL     OW15621  11.727   3.926  12.602
 4575SOL    HW115622  11.755   3.975  12.525
 4575SOL    HW215623  11.807   3.889  12.638
 4576SOL     OW15624  10.514  12.737   4.805
 4576SOL    HW115625  10.584  12.790   4.767
 4576SOL    HW215626  10.493  12.781   4.888
 4577SOL     OW15627   3.997   3.717  13.824
 4577SOL    HW115628   4.087   3.742  13.802
 4577SOL    HW215629   3.967   3.667  13.749
 4578SOL     OW15630  13.212  13.033   7.802
 4578SOL    HW115631  13.264  12.963   7.763
 4578SOL    HW215632  13.261  13.057   7.881
 4579SOL     OW15633   2.035  11.894   4.486
 4579SOL    HW115634   2.070  11.930   4.405
 4579SOL    HW215635   1.991  11.968   4.528
 4580SOL     OW15636   7.240  11.568  12.778
 4580SOL    HW115637   7.245  11.515  12.698
 4580SOL    HW215638   7.204  11.508  12.844
 4581SOL     OW15639   2.891  11.163  10.994
 4581SOL    HW115640   2.844  11.123  10.922
 4581SOL    HW215641   2.918  11.249  10.961
 4582SOL     OW15642  14.323  12.579  13.788
 4582SOL    HW115643  14.406  12.550  13.750
 4582SOL    HW215644  14.303  12.514  13.855
 4583SOL     OW15645   8.235   2.735   5.124
 4583SOL    HW115646   8.286   2.673   5.176
 4583SOL    HW215647   8.275   2.732   5.037
 4584SOL     OW15648   2.804  13.179   4.434
 4584SOL    HW115649   2.822  13.238   4.507
 4584SOL    HW215650   2.837  13.226   4.357
 4585SOL     OW15651  13.841   8.487   9.819
 4585SOL    HW115652  13.749   8.498   9.799
 4585SOL    HW215653  13.882   8.570   9.794
 4586SOL     OW15654  13.654  12.169   5.615
 4586SOL    HW115655  13.626  12.097   5.671
 4586SOL    HW215656  13.585  12.234   5.623
 4587SOL     OW15657   5.717   4.727  13.713
 4587SOL    HW115658   5.721   4.724  13.617
 4587SOL    HW215659   5.784   4.664  13.741
 4588SOL     OW15660  13.220   1.219   0.775
 4588SOL    HW115661  13.230   1.274   0.853
 4588SOL    HW215662  13.179   1.276   0.710
 4589SOL     OW15663   2.626   2.114   2.798
 4589SOL    HW115664   2.631   2.118   2.703
 4589SOL    HW215665   2.711   2.079   2.826
 4590SOL     OW15666   8.368   2.810   6.929
 4590SOL    HW115667   8.370   2.833   7.022
 4590SOL    HW215668   8.332   2.888   6.885
 4591SOL     OW15669   2.210  10.060   9.795
 4591SOL    HW115670   2.197  10.155   9.791
 4591SOL    HW215671   2.260  10.039   9.716
 4592SOL     OW15672  11.216   1.752   1.989
 4592SOL    HW115673  11.281   1.701   2.037
 4592SOL    HW215674  11.142   1.758   2.049
 4593SOL     OW15675  12.985   8.580   3.001
 4593SOL    HW115676  12.999   8.649   3.066
 4593SOL    HW215677  13.071   8.566   2.961
 4594SOL     OW15678  14.645   2.615  12.602
 4594SOL    HW115679  14.625   2.556  12.674
 4594SOL    HW215680  14.740   2.607  12.590
 4595SOL     OW15681   7.179   8.666   5.190
 4595SOL    HW115682   7.146   8.720   5.118
 4595SOL    HW215683   7.111   8.599   5.202
 4596SOL     OW15684  14.177  11.946  12.817
 4596SOL    HW115685  14.226  12.005  12.875
 4596SOL    HW215686  14.244  11.887  12.781
 4597SOL     OW15687   4.141   4.963   9.770
 4597SOL    HW115688   4.089   4.891   9.806
 4597SOL    HW215689   4.105   5.041   9.812
 4598SOL     OW15690   0.830   8.247   8.161
 4598SOL    HW115691   0.878   8.188   8.218
 4598SOL    HW215692   0.813   8.325   8.215
 4599SOL     OW15693   3.144   0.369  14.229
 4599SOL    HW115694   3.053   0.395  14.214
 4599SOL    HW215695   3.161   0.301  14.164
 4600SOL     OW15696  14.151   3.316  10.401
 4600SOL    HW115697  14.210   3.244  10.380
 4600SOL    HW215698  14.135   3.360  10.318
 4601SOL     OW15699  12.657   6.360  13.469
 4601SOL    HW115700  12.619   6.272  13.461
 4601SOL    HW215701  12.601   6.405  13.533
 4602SOL     OW15702  10.399   6.923   3.282
 4602SOL    HW115703  10.467   6.910   3.348
 4602SOL    HW215704  10.413   7.013   3.251
 4603SOL     OW15705  13.307   6.210  12.137
 4603SOL    HW115706  13.248   6.170  12.201
 4603SOL    HW215707  13.372   6.143  12.119
 4604SOL     OW15708   3.454   3.321   6.270
 4604SOL    HW115709   3.366   3.324   6.308
 4604SOL    HW215710   3.439   3.328   6.175
 4605SOL     OW15711   4.426   6.498   4.671
 4605SOL    HW115712   4.342   6.456   4.690
 4605SOL    HW215713   4.492   6.435   4.699
 4606SOL     OW15714  12.890   5.955  11.492
 4606SOL    HW115715  12.902   5.974  11.399
 4606SOL    HW215716  12.948   6.017  11.537
 4607SOL     OW15717  12.892  11.280  12.117
 4607SOL    HW115718  12.808  11.279  12.071
 4607SOL    HW215719  12.906  11.372  12.140
 4608SOL     OW15720  12.189   0.276   3.624
 4608SOL    HW115721  12.282   0.273   3.603
 4608SOL    HW215722  12.181   0.343   3.691
 4609SOL     OW15723   4.731   0.508   7.781
 4609SOL    HW115724   4.664   0.488   7.717
 4609SOL    HW215725   4.796   0.560   7.733
 4610SOL     OW15726  12.479  10.267   6.311
 4610SOL    HW115727  12.438  10.267   6.398
 4610SOL    HW215728  12.553  10.207   6.319
 4611SOL     OW15729   6.454   1.249  10.817
 4611SOL    HW115730   6.414   1.186  10.756
 4611SOL    HW215731   6.401   1.243  10.896
 4612SOL     OW15732   5.436   9.376   3.694
 4612SOL    HW115733   5.391   9.409   3.771
 4612SOL    HW215734   5.507   9.322   3.729
 4613SOL     OW15735  14.508  12.084  10.619
 4613SOL    HW115736  14.521  12.104  10.712
 4613SOL    HW215737  14.453  12.156  10.587
 4614SOL     OW15738   8.329   6.998  11.400
 4614SOL    HW115739   8.376   6.977  11.320
 4614SOL    HW215740   8.240   6.965  11.385
 4615SOL     OW15741  10.529  10.827   5.838
 4615SOL    HW115742  10.559  10.745   5.798
 4615SOL    HW215743  10.606  10.862   5.882
 4616SOL     OW15744   1.920  12.818  13.291
 4616SOL    HW115745   1.895  12.892  13.346
 4616SOL    HW215746   1.984  12.770  13.344
 4617SOL     OW15747  12.371   8.529   8.434
 4617SOL    HW115748  12.426   8.582   8.492
 4617SOL    HW215749  12.338   8.458   8.489
 4618SOL     OW15750   5.409  13.543   1.410
 4618SOL    HW115751   5.365  13.618   1.371
 4618SOL    HW215752   5.356  13.521   1.487
 4619SOL     OW15753   6.585   3.942   7.510
 4619SOL    HW115754   6.546   3.912   7.428
 4619SOL    HW215755   6.510   3.967   7.564
 4620SOL     OW15756  14.347   3.098  13.664
 4620SOL    HW115757  14.347   3.013  13.619
 4620SOL    HW215758  14.352   3.076  13.757
 4621SOL     OW15759  11.142   3.964  12.953
 4621SOL    HW115760  11.230   3.958  12.991
 4621SOL    HW215761  11.115   3.873  12.940
 4622SOL     OW15762   0.983  12.383   2.494
 4622SOL    HW115763   0.912  12.361   2.554
 4622SOL    HW215764   0.997  12.477   2.505
 4623SOL     OW15765   6.956   3.535   3.419
 4623SOL    HW115766   6.982   3.499   3.504
 4623SOL    HW215767   6.909   3.615   3.440
 4624SOL     OW15768   1.592  14.412  12.255
 4624SOL    HW115769   1.680  14.389  12.226
 4624SOL    HW215770   1.588  14.383  12.346
 4625SOL     OW15771   8.768  11.567   2.400
 4625SOL    HW115772   8.813  11.628   2.459
 4625SOL    HW215773   8.751  11.490   2.454
 4626SOL     OW15774   6.958  10.130   5.309
 4626SOL    HW115775   7.002  10.112   5.392
 4626SOL    HW215776   6.957  10.045   5.264
 4627SOL     OW15777  12.396   6.978   0.028
 4627SOL    HW115778  12.393   6.943  14.821
 4627SOL    HW215779  12.350   6.912   0.080
 4628SOL     OW15780  13.488  14.288   6.036
 4628SOL    HW115781  13.498  14.193   6.029
 4628SOL    HW215782  13.566  14.324   5.993
 4629SOL     OW15783   9.502   5.785   8.637
 4629SOL    HW115784   9.413   5.820   8.643
 4629SOL    HW215785   9.558   5.860   8.657
 4630SOL     OW15786   1.193   8.118   1.284
 4630SOL    HW115787   1.212   8.212   1.277
 4630SOL    HW215788   1.104   8.109   1.251
 4631SOL     OW15789   0.926   1.875  13.493
 4631SOL    HW115790   0.881   1.926  13.426
 4631SOL    HW215791   0.862   1.808  13.519
 4632SOL     OW15792   3.394   4.873  10.054
 4632SOL    HW115793   3.442   4.805  10.007
 4632SOL    HW215794   3.462   4.934  10.086
 4633SOL     OW15795   4.925   9.007  14.452
 4633SOL    HW115796   4.884   8.996  14.538
 4633SOL    HW215797   5.015   8.976  14.464
 4634SOL     OW15798  13.726  12.553   2.472
 4634SOL    HW115799  13.754  12.628   2.524
 4634SOL    HW215800  13.748  12.477   2.526
 4635SOL     OW15801  12.829  10.919  12.039
 4635SOL    HW115802  12.748  10.970  12.030
 4635SOL    HW215803  12.856  10.932  12.130
 4636SOL     OW15804   6.546   9.994   5.994
 4636SOL    HW115805   6.601  10.025   5.922
 4636SOL    HW215806   6.489  10.068   6.014
 4637SOL     OW15807  12.097   4.819   6.577
 4637SOL    HW115808  12.129   4.750   6.519
 4637SOL    HW215809  12.018   4.852   6.534
 4638SOL     OW15810  12.141   7.806   2.054
 4638SOL    HW115811  12.223   7.849   2.079
 4638SOL    HW215812  12.107   7.771   2.136
 4639SOL     OW15813   4.949   3.033  12.977
 4639SOL    HW115814   4.855   3.018  12.986
 4639SOL    HW215815   4.988   2.985  13.050
 4640SOL     OW15816   6.397  10.541  11.030
 4640SOL    HW115817   6.339  10.471  11.061
 4640SOL    HW215818   6.439  10.573  11.110
 4641SOL     OW15819   1.052   9.822   4.020
 4641SOL    HW115820   0.968   9.832   3.975
 4641SOL    HW215821   1.113   9.796   3.951
 4642SOL     OW15822   0.490  10.807  11.579
 4642SOL    HW115823   0.404  10.847  11.567
 4642SOL    HW215824   0.526  10.850  11.656
 4643SOL     OW15825  12.040   5.838   1.583
 4643SOL    HW115826  12.078   5.909   1.634
 4643SOL    HW215827  11.992   5.785   1.646
 4644SOL     OW15828   8.280  10.412  10.205
 4644SOL    HW115829   8.285  10.433  10.112
 4644SOL    HW215830   8.370  10.415  10.236
 4645SOL     OW15831   6.109   5.978   8.023
 4645SOL    HW115832   6.068   5.924   7.955
 4645SOL    HW215833   6.114   6.065   7.985
 4646SOL     OW15834   7.260   6.948   2.033
 4646SOL    HW115835   7.175   6.967   2.073
 4646SOL    HW215836   7.294   6.874   2.083
 4647SOL     OW15837  14.844   8.229   8.391
 4647SOL    HW115838  14.761   8.275   8.390
 4647SOL    HW215839   0.021   8.285   8.340
 4648SOL     OW15840  13.028   1.011   8.030
 4648SOL    HW115841  12.966   1.084   8.028
 4648SOL    HW215842  12.973   0.934   8.045
 4649SOL     OW15843  12.564   6.856   5.693
 4649SOL    HW115844  12.560   6.930   5.753
 4649SOL    HW215845  12.549   6.894   5.607
 4650SOL     OW15846   7.540   2.541   5.990
 4650SOL    HW115847   7.473   2.583   6.045
 4650SOL    HW215848   7.572   2.468   6.042
 4651SOL     OW15849   7.217   9.176  14.376
 4651SOL    HW115850   7.258   9.096  14.343
 4651SOL    HW215851   7.128   9.174  14.341
 4652SOL     OW15852   9.846   8.973   2.186
 4652SOL    HW115853   9.831   9.067   2.200
 4652SOL    HW215854   9.841   8.935   2.273
 4653SOL     OW15855  13.320   7.706   3.514
 4653SOL    HW115856  13.292   7.690   3.424
 4653SOL    HW215857  13.404   7.660   3.522
 4654SOL     OW15858   8.655   6.652   7.372
 4654SOL    HW115859   8.731   6.611   7.412
 4654SOL    HW215860   8.683   6.741   7.353
 4655SOL     OW15861   1.169   1.009  12.047
 4655SOL    HW115862   1.262   1.014  12.069
 4655SOL    HW215863   1.145   1.100  12.026
 4656SOL     OW15864  13.221  11.420  13.774
 4656SOL    HW115865  13.187  11.346  13.823
 4656SOL    HW215866  13.271  11.381  13.703
 4657SOL     OW15867  14.800   8.382  13.369
 4657SOL    HW115868  14.753   8.457  13.332
 4657SOL    HW215869  14.804   8.400  13.463
 4658SOL     OW15870   2.573  11.924  14.624
 4658SOL    HW115871   2.497  11.871  14.648
 4658SOL    HW215872   2.586  11.982  14.700
 4659SOL     OW15873   2.326   3.070  11.573
 4659SOL    HW115874   2.353   3.053  11.483
 4659SOL    HW215875   2.280   3.153  11.569
 4660SOL     OW15876   8.068   8.588   9.285
 4660SOL    HW115877   8.147   8.600   9.231
 4660SOL    HW215878   8.007   8.654   9.252
 4661SOL     OW15879   0.246  12.201   2.779
 4661SOL    HW115880   0.305  12.143   2.730
 4661SOL    HW215881   0.297  12.281   2.793
 4662SOL     OW15882   7.194   1.959  13.348
 4662SOL    HW115883   7.222   1.880  13.394
 4662SOL    HW215884   7.114   1.987  13.393
 4663SOL     OW15885   2.440  10.706   2.391
 4663SOL    HW115886   2.350  10.698   2.423
 4663SOL    HW215887   2.487  10.634   2.433
 4664SOL     OW15888   5.285  12.190  11.469
 4664SOL    HW115889   5.253  12.228  11.387
 4664SOL    HW215890   5.374  12.225  11.479
 4665SOL     OW15891  13.820  12.647  10.057
 4665SOL    HW115892  13.845  12.706  10.127
 4665SOL    HW215893  13.731  12.619  10.079
 4666SOL     OW15894   3.008   0.493   0.791
 4666SOL    HW115895   2.955   0.424   0.831
 4666SOL    HW215896   2.956   0.572   0.799
 4667SOL     OW15897  11.509   8.579   8.733
 4667SOL    HW115898  11.522   8.670   8.757
 4667SOL    HW215899  11.415   8.563   8.744
 4668SOL     OW15900   5.207   0.948  14.172
 4668SOL    HW115901   5.130   0.973  14.122
 4668SOL    HW215902   5.241   1.030  14.208
 4669SOL     OW15903  12.385   5.168  11.302
 4669SOL    HW115904  12.317   5.141  11.364
 4669SOL    HW215905  12.404   5.259  11.326
 4670SOL     OW15906   2.295   8.263  14.125
 4670SOL    HW115907   2.201   8.247  14.134
 4670SOL    HW215908   2.335   8.179  14.148
 4671SOL     OW15909   5.015   5.006   6.510
 4671SOL    HW115910   5.091   5.056   6.539
 4671SOL    HW215911   5.043   4.965   6.429
 4672SOL     OW15912   1.866  12.502   4.687
 4672SOL    HW115913   1.948  12.458   4.666
 4672SOL    HW215914   1.812  12.433   4.727
 4673SOL     OW15915   6.190  10.759   0.764
 4673SOL    HW115916   6.221  10.672   0.743
 4673SOL    HW215917   6.248  10.818   0.716
 4674SOL     OW15918   7.636  10.333  11.437
 4674SOL    HW115919   7.666  10.243  11.427
 4674SOL    HW215920   7.554  10.336  11.387
 4675SOL     OW15921   5.204  13.511   0.295
 4675SOL    HW115922   5.272  13.487   0.232
 4675SOL    HW215923   5.252  13.548   0.369
 4676SOL     OW15924   5.231   8.971   9.492
 4676SOL    HW115925   5.286   9.049   9.490
 4676SOL    HW215926   5.204   8.959   9.401
 4677SOL     OW15927   5.859  11.146   3.430
 4677SOL    HW115928   5.904  11.173   3.510
 4677SOL    HW215929   5.767  11.139   3.456
 4678SOL     OW15930   2.465   4.662  13.892
 4678SOL    HW115931   2.536   4.606  13.925
 4678SOL    HW215932   2.467   4.739  13.948
 4679SOL     OW15933  10.890   3.534  12.056
 4679SOL    HW115934  10.870   3.527  12.149
 4679SOL    HW215935  10.984   3.516  12.050
 4680SOL     OW15936  11.668   6.115   3.071
 4680SOL    HW115937  11.617   6.088   3.148
 4680SOL    HW215938  11.667   6.211   3.074
 4681SOL     OW15939   7.815  13.541  12.316
 4681SOL    HW115940   7.828  13.562  12.224
 4681SOL    HW215941   7.827  13.624  12.362
 4682SOL     OW15942   0.100  14.879  14.145
 4682SOL    HW115943   0.113  14.871  14.051
 4682SOL    HW215944   0.122   0.087  14.165
 4683SOL     OW15945   4.811   1.327  13.303
 4683SOL    HW115946   4.752   1.286  13.367
 4683SOL    HW215947   4.884   1.266  13.296
 4684SOL     OW15948  10.558  13.008  11.097
 4684SOL    HW115949  10.548  13.054  11.180
 4684SOL    HW215950  10.502  12.931  11.106
 4685SOL     OW15951   3.308   5.887   4.615
 4685SOL    HW115952   3.238   5.924   4.561
 4685SOL    HW215953   3.289   5.793   4.619
 4686SOL     OW15954  11.576   6.006  12.264
 4686SOL    HW115955  11.490   6.010  12.222
 4686SOL    HW215956  11.564   6.054  12.346
 4687SOL     OW15957   8.459   5.651  11.861
 4687SOL    HW115958   8.395   5.674  11.929
 4687SOL    HW215959   8.542   5.686  11.895
 4688SOL     OW15960  11.055   5.738  10.357
 4688SOL    HW115961  11.011   5.781  10.430
 4688SOL    HW215962  10.984   5.704  10.303
 4689SOL     OW15963  14.422   4.553   7.332
 4689SOL    HW115964  14.517   4.556   7.336
 4689SOL    HW215965  14.393   4.588   7.416
 4690SOL     OW15966   3.150  12.653   0.160
 4690SOL    HW115967   3.169  12.580   0.102
 4690SOL    HW215968   3.195  12.727   0.120
 4691SOL     OW15969   9.761   4.307   0.014
 4691SOL    HW115970   9.780   4.361   0.091
 4691SOL    HW215971   9.838   4.252   0.004
 4692SOL     OW15972   2.186   9.760   6.573
 4692SOL    HW115973   2.165   9.846   6.607
 4692SOL    HW215974   2.111   9.705   6.597
 4693SOL     OW15975   0.652  13.829   7.617
 4693SOL    HW115976   0.651  13.791   7.705
 4693SOL    HW215977   0.647  13.923   7.632
 4694SOL     OW15978   7.128  14.508  11.649
 4694SOL    HW115979   7.138  14.589  11.599
 4694SOL    HW215980   7.053  14.525  11.707
 4695SOL     OW15981   6.203  11.638   2.233
 4695SOL    HW115982   6.118  11.615   2.195
 4695SOL    HW215983   6.187  11.638   2.328
 4696SOL     OW15984  13.748   9.414   2.464
 4696SOL    HW115985  13.717   9.433   2.553
 4696SOL    HW215986  13.839   9.387   2.476
 4697SOL     OW15987   9.500  11.309   7.829
 4697SOL    HW115988   9.517  11.400   7.805
 4697SOL    HW215989   9.554  11.295   7.907
 4698SOL     OW15990   2.012   6.313   7.560
 4698SOL    HW115991   2.086   6.294   7.502
 4698SOL    HW215992   1.941   6.258   7.527
 4699SOL     OW15993   7.881  12.511   2.572
 4699SOL    HW115994   7.846  12.436   2.523
 4699SOL    HW215995   7.804  12.559   2.600
 4700SOL     OW15996   9.471  13.064   6.736
 4700SOL    HW115997   9.423  12.984   6.713
 4700SOL    HW215998   9.523  13.039   6.812
 4701SOL     OW15999  13.478  12.548   9.008
 4701SOL    HW116000  13.497  12.498   9.088
 4701SOL    HW216001  13.536  12.510   8.942
 4702SOL     OW16002   5.983   9.292  13.587
 4702SOL    HW116003   5.891   9.304  13.610
 4702SOL    HW216004   6.031   9.332  13.658
 4703SOL     OW16005   4.464   8.984   9.236
 4703SOL    HW116006   4.397   8.917   9.220
 4703SOL    HW216007   4.532   8.939   9.286
 4704SOL     OW16008   6.791   2.758  11.259
 4704SOL    HW116009   6.764   2.839  11.217
 4704SOL    HW216010   6.858   2.721  11.201
 4705SOL     OW16011   1.719  11.257   6.840
 4705SOL    HW116012   1.668  11.201   6.782
 4705SOL    HW216013   1.801  11.272   6.792
 4706SOL     OW16014   0.967   8.511   7.070
 4706SOL    HW116015   0.873   8.525   7.069
 4706SOL    HW216016   0.977   8.416   7.066
 4707SOL     OW16017  12.093  10.202  10.688
 4707SOL    HW116018  12.113  10.176  10.598
 4707SOL    HW216019  12.159  10.159  10.741
 4708SOL     OW16020  14.233   8.885  10.561
 4708SOL    HW116021  14.159   8.938  10.531
 4708SOL    HW216022  14.223   8.802  10.513
 4709SOL     OW16023   6.462   8.313   3.490
 4709SOL    HW116024   6.435   8.239   3.543
 4709SOL    HW216025   6.477   8.384   3.554
 4710SOL     OW16026   3.345  10.482   8.581
 4710SOL    HW116027   3.271  10.519   8.533
 4710SOL    HW216028   3.421  10.502   8.527
 4711SOL     OW16029   2.288  14.215  10.072
 4711SOL    HW116030   2.301  14.296  10.121
 4711SOL    HW216031   2.275  14.147  10.138
 4712SOL     OW16032   0.855   2.388  14.319
 4712SOL    HW116033   0.902   2.452  14.265
 4712SOL    HW216034   0.769   2.428  14.334
 4713SOL     OW16035   9.404  13.717   6.662
 4713SOL    HW116036   9.460  13.793   6.671
 4713SOL    HW216037   9.403  13.677   6.749
 4714SOL     OW16038  13.984   9.347   8.284
 4714SOL    HW116039  13.894   9.356   8.316
 4714SOL    HW216040  14.009   9.258   8.310
 4715SOL     OW16041  14.851   6.779   2.289
 4715SOL    HW116042  14.847   6.684   2.279
 4715SOL    HW216043   0.030   6.808   2.222
 4716SOL     OW16044   2.227   7.944   1.025
 4716SOL    HW116045   2.202   7.916   1.112
 4716SOL    HW216046   2.146   7.939   0.974
 4717SOL     OW16047  14.047  10.492  10.292
 4717SOL    HW116048  14.141  10.495  10.276
 4717SOL    HW216049  14.038  10.501  10.387
 4718SOL     OW16050  11.059  13.340   5.183
 4718SOL    HW116051  11.152  13.364   5.183
 4718SOL    HW216052  11.037  13.328   5.091
 4719SOL     OW16053   7.590   5.628   4.194
 4719SOL    HW116054   7.625   5.662   4.112
 4719SOL    HW216055   7.499   5.656   4.195
 4720SOL     OW16056  14.764   1.064   3.999
 4720SOL    HW116057  14.784   1.115   4.077
 4720SOL    HW216058  14.671   1.044   4.006
 4721SOL     OW16059  11.513   6.290   9.466
 4721SOL    HW116060  11.425   6.304   9.430
 4721SOL    HW216061  11.570   6.344   9.412
 4722SOL     OW16062   4.225   4.710   6.805
 4722SOL    HW116063   4.316   4.680   6.798
 4722SOL    HW216064   4.207   4.749   6.719
 4723SOL     OW16065   7.868  14.167   7.493
 4723SOL    HW116066   7.943  14.215   7.528
 4723SOL    HW216067   7.885  14.160   7.399
 4724SOL     OW16068   7.404   5.914   6.813
 4724SOL    HW116069   7.449   5.958   6.741
 4724SOL    HW216070   7.354   5.844   6.770
 4725SOL     OW16071   3.941   4.193   9.507
 4725SOL    HW116072   3.900   4.128   9.449
 4725SOL    HW216073   3.891   4.187   9.589
 4726SOL     OW16074   6.637   9.412  10.268
 4726SOL    HW116075   6.658   9.324  10.238
 4726SOL    HW216076   6.592   9.399  10.352
 4727SOL     OW16077  12.073  12.507   0.529
 4727SOL    HW116078  12.033  12.434   0.576
 4727SOL    HW216079  12.004  12.539   0.471
 4728SOL     OW16080   8.600   5.756   3.641
 4728SOL    HW116081   8.511   5.767   3.608
 4728SOL    HW216082   8.644   5.838   3.619
 4729SOL     OW16083   9.981  14.429   4.255
 4729SOL    HW116084   9.965  14.507   4.307
 4729SOL    HW216085   9.920  14.435   4.182
 4730SOL     OW16086  14.537   1.927  13.933
 4730SOL    HW116087  14.529   1.891  14.022
 4730SOL    HW216088  14.454   1.903  13.891
 4731SOL     OW16089   6.827   2.972  11.539
 4731SOL    HW116090   6.866   3.057  11.519
 4731SOL    HW216091   6.898   2.909  11.529
 4732SOL     OW16092  13.389   0.144   3.502
 4732SOL    HW116093  13.352   0.194   3.575
 4732SOL    HW216094  13.462   0.197   3.471
 4733SOL     OW16095  12.735   4.882   4.211
 4733SOL    HW116096  12.720   4.958   4.267
 4733SOL    HW216097  12.787   4.823   4.265
 4734SOL     OW16098  14.006  11.151   1.564
 4734SOL    HW116099  14.101  11.146   1.561
 4734SOL    HW216100  13.983  11.114   1.650
 4735SOL     OW16101   7.731   7.548   9.965
 4735SOL    HW116102   7.693   7.489  10.030
 4735SOL    HW216103   7.798   7.596  10.012
 4736SOL     OW16104  14.203   2.941   2.172
 4736SOL    HW116105  14.171   2.999   2.103
 4736SOL    HW216106  14.276   2.894   2.131
 4737SOL     OW16107   1.097  10.834   7.449
 4737SOL    HW116108   1.111  10.895   7.377
 4737SOL    HW216109   1.046  10.762   7.410
 4738SOL     OW16110   0.280   3.873  14.097
 4738SOL    HW116111   0.334   3.926  14.038
 4738SOL    HW216112   0.334   3.797  14.118
 4739SOL     OW16113   0.240  14.162  10.140
 4739SOL    HW116114   0.235  14.070  10.164
 4739SOL    HW216115   0.155  14.199  10.167
 4740SOL     OW16116  10.030  10.574   6.270
 4740SOL    HW116117   9.996  10.591   6.183
 4740SOL    HW216118  10.039  10.661   6.310
 4741SOL     OW16119  10.719   0.054   4.868
 4741SOL    HW116120  10.642   0.015   4.909
 4741SOL    HW216121  10.737   0.132   4.920
 4742SOL     OW16122   4.946  14.481   7.277
 4742SOL    HW116123   4.956  14.388   7.295
 4742SOL    HW216124   4.935  14.521   7.363
 4743SOL     OW16125  11.181  12.334   0.531
 4743SOL    HW116126  11.247  12.325   0.600
 4743SOL    HW216127  11.222  12.295   0.454
 4744SOL     OW16128   6.614   8.316   5.435
 4744SOL    HW116129   6.638   8.342   5.524
 4744SOL    HW216130   6.545   8.251   5.446
 4745SOL     OW16131  13.489  14.263   2.307
 4745SOL    HW116132  13.454  14.345   2.273
 4745SOL    HW216133  13.469  14.265   2.401
 4746SOL     OW16134   2.696   3.278   2.060
 4746SOL    HW116135   2.648   3.314   1.986
 4746SOL    HW216136   2.632   3.224   2.107
 4747SOL     OW16137   1.177  10.901  12.794
 4747SOL    HW116138   1.110  10.851  12.747
 4747SOL    HW216139   1.156  10.993  12.775
 4748SOL     OW16140  10.256  11.957   5.677
 4748SOL    HW116141  10.248  12.052   5.686
 4748SOL    HW216142  10.286  11.927   5.762
 4749SOL     OW16143  11.703   8.443   5.436
 4749SOL    HW116144  11.618   8.421   5.398
 4749SOL    HW216145  11.706   8.395   5.519
 4750SOL     OW16146   1.965   7.584   5.376
 4750SOL    HW116147   2.040   7.627   5.334
 4750SOL    HW216148   1.940   7.514   5.317
 4751SOL     OW16149   3.328   6.865   7.477
 4751SOL    HW116150   3.320   6.869   7.573
 4751SOL    HW216151   3.422   6.856   7.462
 4752SOL     OW16152   5.019  11.317  10.098
 4752SOL    HW116153   4.943  11.277  10.056
 4752SOL    HW216154   5.033  11.399  10.050
 4753SOL     OW16155  12.665   9.957   9.715
 4753SOL    HW116156  12.702   9.972   9.802
 4753SOL    HW216157  12.734   9.911   9.667
 4754SOL     OW16158  10.105  12.831  13.430
 4754SOL    HW116159  10.062  12.902  13.478
 4754SOL    HW216160  10.046  12.757  13.440
 4755SOL     OW16161  14.341   0.324  12.088
 4755SOL    HW116162  14.381   0.411  12.099
 4755SOL    HW216163  14.335   0.289  12.177
 4756SOL     OW16164   6.666   6.920   0.990
 4756SOL    HW116165   6.573   6.903   0.978
 4756SOL    HW216166   6.709   6.838   0.966
 4757SOL     OW16167  14.756   4.192   6.514
 4757SOL    HW116168  14.696   4.127   6.477
 4757SOL    HW216169  14.763   4.260   6.448
 4758SOL     OW16170  12.036  11.825   0.596
 4758SOL    HW116171  11.967  11.764   0.622
 4758SOL    HW216172  12.008  11.857   0.510
 4759SOL     OW16173   4.499  11.234   9.107
 4759SOL    HW116174   4.559  11.295   9.065
 4759SOL    HW216175   4.434  11.290   9.150
 4760SOL     OW16176   0.882   1.957  12.688
 4760SOL    HW116177   0.895   2.015  12.613
 4760SOL    HW216178   0.932   1.878  12.666
 4761SOL     OW16179   5.265   2.667   4.002
 4761SOL    HW116180   5.226   2.587   3.967
 4761SOL    HW216181   5.351   2.640   4.034
 4762SOL     OW16182   3.097   0.575  11.018
 4762SOL    HW116183   3.075   0.609  11.105
 4762SOL    HW216184   3.161   0.506  11.034
 4763SOL     OW16185   5.758   9.159   7.724
 4763SOL    HW116186   5.664   9.151   7.742
 4763SOL    HW216187   5.762   9.218   7.648
 4764SOL     OW16188   8.488   7.041   6.631
 4764SOL    HW116189   8.442   7.078   6.556
 4764SOL    HW216190   8.572   7.011   6.596
 4765SOL     OW16191   9.100  10.602   4.364
 4765SOL    HW116192   9.138  10.518   4.388
 4765SOL    HW216193   9.008  10.595   4.389
 4766SOL     OW16194   8.338   9.571  10.766
 4766SOL    HW116195   8.297   9.497  10.722
 4766SOL    HW216196   8.332   9.550  10.859
 4767SOL     OW16197   2.070  11.875  13.061
 4767SOL    HW116198   1.993  11.918  13.024
 4767SOL    HW216199   2.078  11.793  13.011
 4768SOL     OW16200   3.537   7.032   7.365
 4768SOL    HW116201   3.591   6.988   7.300
 4768SOL    HW216202   3.514   7.116   7.325
 4769SOL     OW16203   8.884   8.408  10.975
 4769SOL    HW116204   8.899   8.323  11.016
 4769SOL    HW216205   8.821   8.390  10.906
 4770SOL     OW16206   5.954   4.986  11.177
 4770SOL    HW116207   6.009   4.910  11.199
 4770SOL    HW216208   5.906   5.005  11.258
 4771SOL     OW16209  12.603   7.867   1.696
 4771SOL    HW116210  12.543   7.939   1.678
 4771SOL    HW216211  12.678   7.882   1.638
 4772SOL     OW16212  12.716   1.265   6.656
 4772SOL    HW116213  12.639   1.225   6.616
 4772SOL    HW216214  12.771   1.291   6.581
 4773SOL     OW16215   6.291  13.323   5.193
 4773SOL    HW116216   6.322  13.344   5.282
 4773SOL    HW216217   6.197  13.341   5.196
 4774SOL     OW16218   4.349   8.738  13.913
 4774SOL    HW116219   4.339   8.650  13.877
 4774SOL    HW216220   4.388   8.726  13.999
 4775SOL     OW16221  12.217  14.073   4.804
 4775SOL    HW116222  12.157  14.047   4.733
 4775SOL    HW216223  12.234  13.991   4.850
 4776SOL     OW16224  11.476   6.170   0.194
 4776SOL    HW116225  11.509   6.099   0.249
 4776SOL    HW216226  11.493   6.249   0.245
 4777SOL     OW16227   2.301  10.364   1.345
 4777SOL    HW116228   2.379  10.418   1.356
 4777SOL    HW216229   2.247  10.412   1.281
 4778SOL     OW16230  10.581  13.713  11.235
 4778SOL    HW116231  10.537  13.631  11.210
 4778SOL    HW216232  10.666  13.708  11.193
 4779SOL     OW16233   4.049   7.625  11.427
 4779SOL    HW116234   4.061   7.699  11.486
 4779SOL    HW216235   3.962   7.592  11.448
 4780SOL     OW16236   3.022   3.936   1.992
 4780SOL    HW116237   3.072   3.917   1.913
 4780SOL    HW216238   3.060   4.017   2.026
 4781SOL     OW16239   0.861  11.727  12.271
 4781SOL    HW116240   0.906  11.692  12.348
 4781SOL    HW216241   0.768  11.724  12.293
 4782SOL     OW16242   3.406   4.552  14.626
 4782SOL    HW116243   3.497   4.582  14.634
 4782SOL    HW216244   3.367   4.611  14.561
 4783SOL     OW16245   2.592   4.014   7.244
 4783SOL    HW116246   2.522   3.952   7.226
 4783SOL    HW216247   2.663   3.961   7.280
 4784SOL     OW16248  11.372  10.362   6.426
 4784SOL    HW116249  11.451  10.363   6.479
 4784SOL    HW216250  11.404  10.354   6.336
 4785SOL     OW16251  10.392   6.635   3.257
 4785SOL    HW116252  10.390   6.727   3.231
 4785SOL    HW216253  10.312   6.621   3.306
 4786SOL     OW16254  11.111   7.073  10.089
 4786SOL    HW116255  11.098   7.091  10.182
 4786SOL    HW216256  11.200   7.038  10.084
 4787SOL     OW16257   8.514   7.019   2.529
 4787SOL    HW116258   8.524   6.994   2.437
 4787SOL    HW216259   8.424   6.997   2.551
 4788SOL     OW16260   2.740   6.942   1.081
 4788SOL    HW116261   2.793   6.939   1.161
 4788SOL    HW216262   2.757   6.858   1.038
 4789SOL     OW16263  14.315   0.593  12.465
 4789SOL    HW116264  14.284   0.581  12.554
 4789SOL    HW216265  14.236   0.591  12.411
 4790SOL     OW16266   6.008   7.952   0.091
 4790SOL    HW116267   6.065   7.926   0.019
 4790SOL    HW216268   5.944   8.011   0.050
 4791SOL     OW16269   8.182   7.529   4.469
 4791SOL    HW116270   8.184   7.440   4.434
 4791SOL    HW216271   8.259   7.571   4.432
 4792SOL     OW16272   4.624  12.863   8.654
 4792SOL    HW116273   4.594  12.773   8.667
 4792SOL    HW216274   4.563  12.916   8.705
 4793SOL     OW16275  13.983   6.375   4.296
 4793SOL    HW116276  13.941   6.387   4.211
 4793SOL    HW216277  13.917   6.332   4.350
 4794SOL     OW16278   4.623   2.366  11.554
 4794SOL    HW116279   4.638   2.449  11.508
 4794SOL    HW216280   4.632   2.299  11.487
 4795SOL     OW16281   6.202  14.238  11.268
 4795SOL    HW116282   6.139  14.167  11.256
 4795SOL    HW216283   6.176  14.305  11.205
 4796SOL     OW16284   3.499   8.229   9.884
 4796SOL    HW116285   3.529   8.302   9.939
 4796SOL    HW216286   3.412   8.257   9.854
 4797SOL     OW16287  12.127  13.910   4.041
 4797SOL    HW116288  12.188  13.846   4.077
 4797SOL    HW216289  12.058  13.916   4.107
 4798SOL     OW16290   4.226  14.813   5.794
 4798SOL    HW116291   4.313  14.774   5.803
 4798SOL    HW216292   4.216  14.827   5.700
 4799SOL     OW16293   0.441   2.132   8.209
 4799SOL    HW116294   0.372   2.195   8.186
 4799SOL    HW216295   0.398   2.070   8.268
 4800SOL     OW16296   7.004  13.413  11.404
 4800SOL    HW116297   7.035  13.489  11.453
 4800SOL    HW216298   6.986  13.347  11.471
 4801SOL     OW16299   9.287   5.892  11.368
 4801SOL    HW116300   9.321   5.803  11.357
 4801SOL    HW216301   9.240   5.910  11.286
 4802SOL     OW16302   3.487   9.673   1.268
 4802SOL    HW116303   3.474   9.768   1.272
 4802SOL    HW216304   3.400   9.638   1.250
 4803SOL     OW16305   4.609   4.827   7.018
 4803SOL    HW116306   4.566   4.799   7.098
 4803SOL    HW216307   4.673   4.892   7.047
 4804SOL     OW16308   2.827   2.601   4.990
 4804SOL    HW116309   2.768   2.662   5.036
 4804SOL    HW216310   2.812   2.619   4.897
 4805SOL     OW16311  11.129  12.438  12.868
 4805SOL    HW116312  11.156  12.453  12.777
 4805SOL    HW216313  11.043  12.481  12.875
 4806SOL     OW16314  14.148   0.181   4.409
 4806SOL    HW116315  14.055   0.201   4.418
 4806SOL    HW216316  14.179   0.243   4.343
 4807SOL     OW16317  11.160  12.896   4.258
 4807SOL    HW116318  11.139  12.835   4.187
 4807SOL    HW216319  11.192  12.975   4.213
 4808SOL     OW16320   4.371   7.072  13.784
 4808SOL    HW116321   4.328   7.135  13.843
 4808SOL    HW216322   4.300   7.016  13.752
 4809SOL     OW16323   7.901   2.116   9.156
 4809SOL    HW116324   7.852   2.082   9.082
 4809SOL    HW216325   7.839   2.174   9.202
 4810SOL     OW16326   5.633  11.268  14.049
 4810SOL    HW116327   5.657  11.272  13.956
 4810SOL    HW216328   5.674  11.345  14.088
 4811SOL     OW16329  12.864   1.070   2.632
 4811SOL    HW116330  12.921   1.135   2.672
 4811SOL    HW216331  12.834   1.016   2.706
 4812SOL     OW16332  12.851   3.276   7.437
 4812SOL    HW116333  12.776   3.297   7.492
 4812SOL    HW216334  12.896   3.206   7.483
 4813SOL     OW16335   1.913   6.732   9.426
 4813SOL    HW116336   1.980   6.721   9.359
 4813SOL    HW216337   1.956   6.783   9.495
 4814SOL     OW16338  11.664   8.772  14.710
 4814SOL    HW116339  11.714   8.850  14.736
 4814SOL    HW216340  11.590   8.770  14.771
 4815SOL     OW16341   8.381   1.059   6.418
 4815SOL    HW116342   8.416   1.042   6.330
 4815SOL    HW216343   8.459   1.063   6.474
 4816SOL     OW16344   8.659   6.335  12.174
 4816SOL    HW116345   8.603   6.290  12.110
 4816SOL    HW216346   8.621   6.423  12.181
 4817SOL     OW16347  13.574  13.778  13.379
 4817SOL    HW116348  13.490  13.819  13.359
 4817SOL    HW216349  13.586  13.792  13.473
 4818SOL     OW16350   8.328   3.731   5.936
 4818SOL    HW116351   8.418   3.760   5.950
 4818SOL    HW216352   8.328   3.639   5.964
 4819SOL     OW16353   9.140   6.537   7.914
 4819SOL    HW116354   9.046   6.520   7.918
 4819SOL    HW216355   9.152   6.620   7.959
 4820SOL     OW16356   1.576   0.330   3.250
 4820SOL    HW116357   1.533   0.269   3.309
 4820SOL    HW216358   1.605   0.402   3.307
 4821SOL     OW16359  10.654   5.575   2.490
 4821SOL    HW116360  10.739   5.576   2.446
 4821SOL    HW216361  10.670   5.527   2.571
 4822SOL     OW16362   5.772  12.698  14.864
 4822SOL    HW116363   5.761  12.763  14.795
 4822SOL    HW216364   5.851  12.726   0.028
 4823SOL     OW16365   6.328   8.584  12.407
 4823SOL    HW116366   6.302   8.588  12.499
 4823SOL    HW216367   6.411   8.536  12.408
 4824SOL     OW16368   0.725   8.037   4.022
 4824SOL    HW116369   0.787   8.104   4.052
 4824SOL    HW216370   0.773   7.955   4.027
 4825SOL     OW16371  10.191   0.775  13.231
 4825SOL    HW116372  10.231   0.729  13.305
 4825SOL    HW216373  10.097   0.762  13.242
 4826SOL     OW16374   5.612   9.237   0.613
 4826SOL    HW116375   5.529   9.282   0.626
 4826SOL    HW216376   5.672   9.305   0.583
 4827SOL     OW16377   4.123   8.973   3.459
 4827SOL    HW116378   4.076   8.899   3.498
 4827SOL    HW216379   4.213   8.962   3.489
 4828SOL     OW16380   1.015   0.201   4.313
 4828SOL    HW116381   1.021   0.178   4.220
 4828SOL    HW216382   0.921   0.201   4.331
 4829SOL     OW16383   6.008  10.634   5.828
 4829SOL    HW116384   6.008  10.579   5.907
 4829SOL    HW216385   5.933  10.693   5.841
 4830SOL     OW16386   5.427   8.619   4.155
 4830SOL    HW116387   5.479   8.686   4.110
 4830SOL    HW216388   5.490   8.572   4.209
 4831SOL     OW16389   8.926   4.522  10.721
 4831SOL    HW116390   8.851   4.463  10.723
 4831SOL    HW216391   8.970   4.501  10.638
 4832SOL     OW16392   6.815   1.435  14.430
 4832SOL    HW116393   6.809   1.521  14.472
 4832SOL    HW216394   6.822   1.454  14.336
 4833SOL     OW16395  14.016  12.931   4.643
 4833SOL    HW116396  13.964  12.924   4.563
 4833SOL    HW216397  13.987  12.857   4.697
 4834SOL     OW16398   7.398   3.526   4.838
 4834SOL    HW116399   7.314   3.489   4.866
 4834SOL    HW216400   7.460   3.455   4.848
 4835SOL     OW16401  10.317   5.308   8.749
 4835SOL    HW116402  10.263   5.322   8.671
 4835SOL    HW216403  10.407   5.309   8.716
 4836SOL     OW16404   0.192  13.192   3.062
 4836SOL    HW116405   0.175  13.120   3.123
 4836SOL    HW216406   0.105  13.219   3.032
 4837SOL     OW16407   1.325  14.410  13.350
 4837SOL    HW116408   1.281  14.384  13.431
 4837SOL    HW216409   1.314  14.505  13.346
 4838SOL     OW16410   9.969   9.611   4.489
 4838SOL    HW116411   9.906   9.578   4.554
 4838SOL    HW216412   9.933   9.695   4.460
 4839SOL     OW16413  11.885   3.157   6.774
 4839SOL    HW116414  11.791   3.140   6.769
 4839SOL    HW216415  11.924   3.094   6.714
 4840SOL     OW16416   3.607  13.498  13.428
 4840SOL    HW116417   3.563  13.558  13.367
 4840SOL    HW216418   3.578  13.526  13.514
 4841SOL     OW16419   4.870   4.168   6.335
 4841SOL    HW116420   4.883   4.106   6.263
 4841SOL    HW216421   4.795   4.221   6.308
 4842SOL     OW16422   3.821   7.224  10.479
 4842SOL    HW116423   3.816   7.223  10.575
 4842SOL    HW216424   3.896   7.169  10.458
 4843SOL     OW16425   3.883   7.799  10.506
 4843SOL    HW116426   3.853   7.717  10.468
 4843SOL    HW216427   3.827   7.814  10.581
 4844SOL     OW16428   1.590   9.839  11.471
 4844SOL    HW116429   1.607   9.882  11.555
 4844SOL    HW216430   1.641   9.758  11.474
 4845SOL     OW16431   3.643   7.417  13.352
 4845SOL    HW116432   3.722   7.442  13.304
 4845SOL    HW216433   3.578   7.482  13.327
 4846SOL     OW16434   0.336  12.731   6.040
 4846SOL    HW116435   0.347  12.749   6.133
 4846SOL    HW216436   0.247  12.698   6.032
 4847SOL     OW16437  11.742   8.597  10.566
 4847SOL    HW116438  11.822   8.649  10.570
 4847SOL    HW216439  11.680   8.644  10.621
 4848SOL     OW16440   5.677   8.138   8.174
 4848SOL    HW116441   5.626   8.208   8.213
 4848SOL    HW216442   5.620   8.101   8.106
 4849SOL     OW16443   3.882  14.130   2.406
 4849SOL    HW116444   3.904  14.089   2.489
 4849SOL    HW216445   3.788  14.112   2.395
 4850SOL     OW16446   9.888  10.355  12.198
 4850SOL    HW116447   9.868  10.446  12.175
 4850SOL    HW216448   9.960  10.363  12.261
 4851SOL     OW16449  14.284  11.821   8.554
 4851SOL    HW116450  14.322  11.897   8.598
 4851SOL    HW216451  14.344  11.803   8.481
 4852SOL     OW16452   7.368  12.219   5.750
 4852SOL    HW116453   7.447  12.168   5.764
 4852SOL    HW216454   7.398  12.309   5.742
 4853SOL     OW16455  11.568  10.409   7.169
 4853SOL    HW116456  11.541  10.461   7.245
 4853SOL    HW216457  11.503  10.339   7.163
 4854SOL     OW16458   9.331   3.922  10.634
 4854SOL    HW116459   9.304   3.939  10.544
 4854SOL    HW216460   9.331   4.009  10.676
 4855SOL     OW16461   4.415  10.739   7.047
 4855SOL    HW116462   4.438  10.818   6.998
 4855SOL    HW216463   4.474  10.672   7.014
 4856SOL     OW16464   4.993   6.906   7.528
 4856SOL    HW116465   4.981   6.988   7.482
 4856SOL    HW216466   5.043   6.929   7.606
 4857SOL     OW16467   5.801  13.349  13.264
 4857SOL    HW116468   5.832  13.407  13.194
 4857SOL    HW216469   5.754  13.407  13.324
 4858SOL     OW16470  12.191   8.746   0.398
 4858SOL    HW116471  12.106   8.778   0.430
 4858SOL    HW216472  12.195   8.655   0.429
 4859SOL     OW16473  10.902   5.681   1.263
 4859SOL    HW116474  10.809   5.700   1.255
 4859SOL    HW216475  10.911   5.640   1.349
 4860SOL     OW16476   6.649   1.953  11.611
 4860SOL    HW116477   6.578   2.012  11.585
 4860SOL    HW216478   6.633   1.873  11.561
 4861SOL     OW16479   0.485   1.915  11.244
 4861SOL    HW116480   0.462   1.953  11.329
 4861SOL    HW216481   0.477   1.820  11.258
 4862SOL     OW16482   1.904   9.863  10.071
 4862SOL    HW116483   1.983   9.838  10.119
 4862SOL    HW216484   1.858   9.781  10.056
 4863SOL     OW16485  14.707   6.148   1.614
 4863SOL    HW116486  14.738   6.104   1.693
 4863SOL    HW216487  14.785   6.157   1.560
 4864SOL     OW16488   0.657  12.358  12.286
 4864SOL    HW116489   0.625  12.323  12.368
 4864SOL    HW216490   0.584  12.348  12.225
 4865SOL     OW16491  11.190   9.337   1.280
 4865SOL    HW116492  11.187   9.411   1.220
 4865SOL    HW216493  11.176   9.260   1.224
 4866SOL     OW16494  14.127  12.845   0.366
 4866SOL    HW116495  14.120  12.831   0.461
 4866SOL    HW216496  14.218  12.827   0.346
 4867SOL     OW16497   6.802   1.506   0.851
 4867SOL    HW116498   6.725   1.454   0.825
 4867SOL    HW216499   6.813   1.487   0.944
 4868SOL     OW16500  12.707   0.491  10.659
 4868SOL    HW116501  12.755   0.521  10.736
 4868SOL    HW216502  12.686   0.572  10.611
 4869SOL     OW16503  13.670  12.097   0.961
 4869SOL    HW116504  13.608  12.024   0.955
 4869SOL    HW216505  13.680  12.113   1.054
 4870SOL     OW16506   4.852  14.878   4.022
 4870SOL    HW116507   4.799  14.803   4.048
 4870SOL    HW216508   4.942  14.848   4.032
 4871SOL     OW16509  11.500  10.986   4.905
 4871SOL    HW116510  11.528  10.971   4.995
 4871SOL    HW216511  11.456  11.071   4.907
 4872SOL     OW16512  13.537   9.451  14.051
 4872SOL    HW116513  13.561   9.370  14.096
 4872SOL    HW216514  13.619   9.499  14.042
 4873SOL     OW16515   0.805  13.728  14.211
 4873SOL    HW116516   0.848  13.780  14.144
 4873SOL    HW216517   0.712  13.748  14.202
 4874SOL     OW16518  14.007   0.767   3.225
 4874SOL    HW116519  13.962   0.835   3.175
 4874SOL    HW216520  13.938   0.705   3.250
 4875SOL     OW16521   9.082   3.058  13.648
 4875SOL    HW116522   9.095   2.986  13.586
 4875SOL    HW216523   9.043   3.017  13.725
 4876SOL     OW16524   9.707  13.651   6.964
 4876SOL    HW116525   9.706  13.561   6.932
 4876SOL    HW216526   9.633  13.656   7.024
 4877SOL     OW16527   1.203  13.792   2.833
 4877SOL    HW116528   1.192  13.886   2.816
 4877SOL    HW216529   1.276  13.766   2.777
 4878SOL     OW16530   6.496  14.544   5.941
 4878SOL    HW116531   6.591  14.558   5.947
 4878SOL    HW216532   6.473  14.500   6.022
 4879SOL     OW16533   8.591   3.194   0.583
 4879SOL    HW116534   8.672   3.213   0.535
 4879SOL    HW216535   8.521   3.219   0.523
 4880SOL     OW16536   3.868  13.595   4.885
 4880SOL    HW116537   3.902  13.526   4.941
 4880SOL    HW216538   3.812  13.647   4.943
 4881SOL     OW16539   6.392  13.734   9.869
 4881SOL    HW116540   6.319  13.671   9.871
 4881SOL    HW216541   6.354  13.813   9.831
 4882SOL     OW16542   8.566  11.207   3.983
 4882SOL    HW116543   8.616  11.142   3.934
 4882SOL    HW216544   8.631  11.249   4.040
 4883SOL     OW16545  12.283  10.459   9.053
 4883SOL    HW116546  12.233  10.531   9.091
 4883SOL    HW216547  12.229  10.429   8.980
 4884SOL     OW16548   4.681   4.523  11.144
 4884SOL    HW116549   4.753   4.564  11.193
 4884SOL    HW216550   4.610   4.518  11.208
 4885SOL     OW16551   0.813   6.560   5.660
 4885SOL    HW116552   0.734   6.533   5.707
 4885SOL    HW216553   0.780   6.597   5.578
 4886SOL     OW16554  12.171   9.141  13.570
 4886SOL    HW116555  12.163   9.212  13.634
 4886SOL    HW216556  12.258   9.154  13.532
 4887SOL     OW16557  14.483  10.681   3.553
 4887SOL    HW116558  14.492  10.771   3.520
 4887SOL    HW216559  14.539  10.629   3.495
 4888SOL     OW16560   7.704   4.228   4.841
 4888SOL    HW116561   7.686   4.318   4.815
 4888SOL    HW216562   7.675   4.223   4.932
 4889SOL     OW16563  13.880   9.243  10.208
 4889SOL    HW116564  13.950   9.288  10.254
 4889SOL    HW216565  13.817   9.311  10.186
 4890SOL     OW16566   3.949   8.764   0.718
 4890SOL    HW116567   3.856   8.787   0.722
 4890SOL    HW216568   3.994   8.846   0.736
 4891SOL     OW16569   5.461   7.912  14.866
 4891SOL    HW116570   5.519   7.971  14.818
 4891SOL    HW216571   5.377   7.918  14.819
 4892SOL     OW16572   7.036  11.921   0.779
 4892SOL    HW116573   6.953  11.878   0.800
 4892SOL    HW216574   7.016  11.975   0.702
 4893SOL     OW16575   3.074   3.586   8.159
 4893SOL    HW116576   3.109   3.533   8.230
 4893SOL    HW216577   3.046   3.524   8.093
 4894SOL     OW16578  14.767   5.011   5.684
 4894SOL    HW116579  14.859   4.995   5.663
 4894SOL    HW216580  14.739   4.930   5.728
 4895SOL     OW16581   2.273   1.913   1.365
 4895SOL    HW116582   2.234   2.000   1.356
 4895SOL    HW216583   2.210   1.864   1.418
 4896SOL     OW16584   1.013   8.335   6.501
 4896SOL    HW116585   1.001   8.345   6.595
 4896SOL    HW216586   1.107   8.349   6.488
 4897SOL     OW16587   6.428   9.421   8.722
 4897SOL    HW116588   6.346   9.441   8.676
 4897SOL    HW216589   6.403   9.419   8.814
 4898SOL     OW16590  12.063   9.944   5.714
 4898SOL    HW116591  11.995  10.011   5.710
 4898SOL    HW216592  12.069   9.910   5.625
 4899SOL     OW16593  12.823   0.466   0.271
 4899SOL    HW116594  12.781   0.428   0.349
 4899SOL    HW216595  12.885   0.531   0.306
 4900SOL     OW16596   8.517  14.794   8.630
 4900SOL    HW116597   8.428  14.821   8.609
 4900SOL    HW216598   8.511  14.700   8.646
 4901SOL     OW16599   7.934   3.069  11.315
 4901SOL    HW116600   7.928   3.156  11.274
 4901SOL    HW216601   7.848   3.030  11.302
 4902SOL     OW16602  11.962   8.026  12.842
 4902SOL    HW116603  11.995   8.098  12.789
 4902SOL    HW216604  11.880   8.059  12.878
 4903SOL     OW16605   6.868   3.969   6.926
 4903SOL    HW116606   6.927   3.915   6.874
 4903SOL    HW216607   6.800   3.908   6.956
 4904SOL     OW16608   3.345   0.154  10.478
 4904SOL    HW116609   3.351   0.105  10.396
 4904SOL    HW216610   3.333   0.245  10.451
 4905SOL     OW16611  11.046   5.644   8.547
 4905SOL    HW116612  10.969   5.598   8.581
 4905SOL    HW216613  11.014   5.731   8.523
 4906SOL     OW16614   1.819  10.375   1.981
 4906SOL    HW116615   1.792  10.447   1.923
 4906SOL    HW216616   1.862  10.312   1.923
 4907SOL     OW16617   2.944  11.557   3.911
 4907SOL    HW116618   2.925  11.609   3.990
 4907SOL    HW216619   2.945  11.622   3.841
 4908SOL     OW16620  11.110   1.688   2.690
 4908SOL    HW116621  11.062   1.711   2.769
 4908SOL    HW216622  11.166   1.763   2.672
 4909SOL     OW16623  10.750   4.173  14.512
 4909SOL    HW116624  10.713   4.085  14.506
 4909SOL    HW216625  10.729   4.203  14.600
 4910SOL     OW16626   0.561  13.462   1.922
 4910SOL    HW116627   0.513  13.380   1.924
 4910SOL    HW216628   0.652  13.437   1.906
 4911SOL     OW16629   1.803   3.364  10.691
 4911SOL    HW116630   1.764   3.451  10.677
 4911SOL    HW216631   1.836   3.339  10.605
 4912SOL     OW16632   9.555   4.615  11.338
 4912SOL    HW116633   9.563   4.624  11.433
 4912SOL    HW216634   9.481   4.671  11.315
 4913SOL     OW16635   0.205   2.620   7.510
 4913SOL    HW116636   0.217   2.531   7.479
 4913SOL    HW216637   0.112   2.639   7.494
 4914SOL     OW16638   8.422   8.838   6.889
 4914SOL    HW116639   8.362   8.777   6.846
 4914SOL    HW216640   8.401   8.923   6.850
 4915SOL     OW16641   8.071  13.235  11.430
 4915SOL    HW116642   8.006  13.200  11.369
 4915SOL    HW216643   8.086  13.165  11.493
 4916SOL     OW16644   6.331   1.352  13.608
 4916SOL    HW116645   6.361   1.396  13.688
 4916SOL    HW216646   6.360   1.261  13.619
 4917SOL     OW16647  14.807  13.644   5.576
 4917SOL    HW116648  14.798  13.594   5.657
 4917SOL    HW216649  14.761  13.592   5.510
 4918SOL     OW16650  14.363  10.869   6.709
 4918SOL    HW116651  14.392  10.815   6.636
 4918SOL    HW216652  14.412  10.835   6.785
 4919SOL     OW16653  12.146  13.606   0.812
 4919SOL    HW116654  12.215  13.668   0.789
 4919SOL    HW216655  12.088  13.606   0.736
 4920SOL     OW16656   3.891  11.322   3.357
 4920SOL    HW116657   3.914  11.230   3.340
 4920SOL    HW216658   3.875  11.358   3.270
 4921SOL     OW16659   4.335  14.249  14.739
 4921SOL    HW116660   4.250  14.264  14.779
 4921SOL    HW216661   4.336  14.308  14.663
 4922SOL     OW16662   7.083   5.355   3.404
 4922SOL    HW116663   7.089   5.440   3.447
 4922SOL    HW216664   7.174   5.325   3.397
 4923SOL     OW16665  12.245   9.320   0.050
 4923SOL    HW116666  12.221   9.240   0.097
 4923SOL    HW216667  12.283   9.289  14.850
 4924SOL     OW16668  10.398   1.708   7.930
 4924SOL    HW116669  10.341   1.774   7.969
 4924SOL    HW216670  10.448   1.673   8.004
 4925SOL     OW16671   3.586   8.224  12.761
 4925SOL    HW116672   3.602   8.276  12.683
 4925SOL    HW216673   3.559   8.138  12.727
 4926SOL     OW16674   1.046  10.941  10.306
 4926SOL    HW116675   1.026  10.907  10.394
 4926SOL    HW216676   1.137  10.914  10.291
 4927SOL     OW16677  14.144   5.233  13.472
 4927SOL    HW116678  14.124   5.256  13.382
 4927SOL    HW216679  14.073   5.271  13.523
 4928SOL     OW16680  14.570   0.351  13.439
 4928SOL    HW116681  14.616   0.331  13.358
 4928SOL    HW216682  14.534   0.267  13.468
 4929SOL     OW16683   0.504   9.939   6.260
 4929SOL    HW116684   0.432   9.876   6.255
 4929SOL    HW216685   0.561   9.905   6.329
 4930SOL     OW16686   8.920   6.138   6.801
 4930SOL    HW116687   8.891   6.177   6.719
 4930SOL    HW216688   8.856   6.070   6.821
 4931SOL     OW16689  12.091  11.912   3.199
 4931SOL    HW116690  12.097  11.865   3.116
 4931SOL    HW216691  12.065  12.001   3.174
 4932SOL     OW16692  13.316   0.544  11.785
 4932SOL    HW116693  13.305   0.478  11.853
 4932SOL    HW216694  13.227   0.567  11.758
 4933SOL     OW16695  11.420  10.823  11.083
 4933SOL    HW116696  11.452  10.864  11.003
 4933SOL    HW216697  11.333  10.861  11.096
 4934SOL     OW16698   4.353   6.757   6.525
 4934SOL    HW116699   4.391   6.840   6.496
 4934SOL    HW216700   4.275   6.783   6.574
 4935SOL     OW16701   4.988  10.995   6.585
 4935SOL    HW116702   5.011  10.921   6.527
 4935SOL    HW216703   4.977  10.955   6.671
 4936SOL     OW16704  14.717   8.054  12.918
 4936SOL    HW116705  14.772   8.021  12.989
 4936SOL    HW216706  14.643   7.994  12.915
 4937SOL     OW16707   3.350   5.938   1.772
 4937SOL    HW116708   3.256   5.923   1.782
 4937SOL    HW216709   3.384   5.939   1.861
 4938SOL     OW16710  11.077   2.940   1.763
 4938SOL    HW116711  11.133   2.938   1.686
 4938SOL    HW216712  11.136   2.927   1.837
 4939SOL     OW16713   8.487   6.896   2.253
 4939SOL    HW116714   8.549   6.825   2.269
 4939SOL    HW216715   8.406   6.852   2.226
 4940SOL     OW16716   0.479   2.388   9.099
 4940SOL    HW116717   0.430   2.453   9.149
 4940SOL    HW216718   0.542   2.440   9.047
 4941SOL     OW16719  13.837  10.748   7.487
 4941SOL    HW116720  13.759  10.791   7.523
 4941SOL    HW216721  13.830  10.760   7.393
 4942SOL     OW16722   0.263  13.506  12.007
 4942SOL    HW116723   0.204  13.455  11.951
 4942SOL    HW216724   0.316  13.440  12.052
 4943SOL     OW16725  14.166   8.832   0.049
 4943SOL    HW116726  14.107   8.871  14.867
 4943SOL    HW216727  14.210   8.907   0.090
 4944SOL     OW16728   2.701   2.113   4.782
 4944SOL    HW116729   2.713   2.029   4.825
 4944SOL    HW216730   2.745   2.176   4.839
 4945SOL     OW16731   2.676   2.366  13.730
 4945SOL    HW116732   2.685   2.386  13.637
 4945SOL    HW216733   2.668   2.452  13.772
 4946SOL     OW16734  11.858  13.029   9.581
 4946SOL    HW116735  11.818  13.101   9.532
 4946SOL    HW216736  11.909  12.981   9.516
 4947SOL     OW16737  10.628   0.056   3.426
 4947SOL    HW116738  10.718   0.054   3.458
 4947SOL    HW216739  10.577   0.091   3.499
 4948SOL     OW16740   2.982   9.627  12.929
 4948SOL    HW116741   2.887   9.627  12.943
 4948SOL    HW216742   3.012   9.545  12.968
 4949SOL     OW16743   2.370   3.252   3.136
 4949SOL    HW116744   2.395   3.292   3.219
 4949SOL    HW216745   2.397   3.316   3.070
 4950SOL     OW16746   0.030   7.994   8.500
 4950SOL    HW116747  14.839   7.943   8.465
 4950SOL    HW216748   0.018   8.081   8.463
 4951SOL     OW16749   7.804  11.829   6.922
 4951SOL    HW116750   7.788  11.888   6.848
 4951SOL    HW216751   7.740  11.759   6.912
 4952SOL     OW16752   0.014   4.171  11.841
 4952SOL    HW116753  14.838   4.125  11.781
 4952SOL    HW216754   0.092   4.190  11.788
 4953SOL     OW16755   8.639  13.340   9.229
 4953SOL    HW116756   8.695  13.391   9.288
 4953SOL    HW216757   8.593  13.406   9.177
 4954SOL     OW16758   3.747   5.286  11.418
 4954SOL    HW116759   3.666   5.282  11.367
 4954SOL    HW216760   3.798   5.356  11.376
 4955SOL     OW16761   9.337   6.866   6.916
 4955SOL    HW116762   9.266   6.926   6.937
 4955SOL    HW216763   9.293   6.787   6.886
 4956SOL     OW16764  10.685  11.635   9.130
 4956SOL    HW116765  10.774  11.647   9.164
 4956SOL    HW216766  10.676  11.703   9.064
 4957SOL     OW16767  12.122  13.583  13.463
 4957SOL    HW116768  12.133  13.488  13.469
 4957SOL    HW216769  12.171  13.608  13.384
 4958SOL     OW16770  10.916   0.539  12.917
 4958SOL    HW116771  10.883   0.504  12.835
 4958SOL    HW216772  10.842   0.585  12.955
 4959SOL     OW16773   3.081  11.852   3.551
 4959SOL    HW116774   3.067  11.773   3.499
 4959SOL    HW216775   3.176  11.858   3.560
 4960SOL     OW16776   1.418   0.842   4.302
 4960SOL    HW116777   1.475   0.868   4.230
 4960SOL    HW216778   1.449   0.756   4.329
 4961SOL     OW16779   9.934   1.606  13.407
 4961SOL    HW116780  10.020   1.635  13.438
 4961SOL    HW216781   9.890   1.574  13.486
 4962SOL     OW16782   8.245   7.030   1.171
 4962SOL    HW116783   8.224   6.967   1.101
 4962SOL    HW216784   8.310   7.088   1.132
 4963SOL     OW16785   2.747   7.698  11.227
 4963SOL    HW116786   2.731   7.621  11.172
 4963SOL    HW216787   2.832   7.680  11.268
 4964SOL     OW16788  11.542   5.216  10.924
 4964SOL    HW116789  11.483   5.290  10.937
 4964SOL    HW216790  11.488   5.139  10.941
 4965SOL     OW16791   9.964   3.878   1.359
 4965SOL    HW116792   9.920   3.805   1.314
 4965SOL    HW216793   9.972   3.848   1.450
 4966SOL     OW16794  11.330   8.606  12.506
 4966SOL    HW116795  11.308   8.634  12.417
 4966SOL    HW216796  11.250   8.567  12.540
 4967SOL     OW16797  14.276   8.651   0.844
 4967SOL    HW116798  14.267   8.727   0.787
 4967SOL    HW216799  14.325   8.588   0.792
 4968SOL     OW16800  10.950  13.269   6.088
 4968SOL    HW116801  11.024  13.233   6.135
 4968SOL    HW216802  10.885  13.199   6.087
 4969SOL     OW16803   9.351  12.587  12.914
 4969SOL    HW116804   9.345  12.683  12.918
 4969SOL    HW216805   9.320  12.558  13.000
 4970SOL     OW16806   2.276   9.699   4.028
 4970SOL    HW116807   2.207   9.646   3.987
 4970SOL    HW216808   2.297   9.651   4.108
 4971SOL     OW16809   8.906   9.999   7.761
 4971SOL    HW116810   8.940   9.912   7.782
 4971SOL    HW216811   8.936  10.054   7.833
 4972SOL     OW16812   6.484   6.233   0.316
 4972SOL    HW116813   6.523   6.145   0.311
 4972SOL    HW216814   6.404   6.220   0.366
 4973SOL     OW16815  13.701  13.980  12.150
 4973SOL    HW116816  13.633  13.919  12.121
 4973SOL    HW216817  13.704  14.047  12.082
 4974SOL     OW16818   3.309   3.644  10.463
 4974SOL    HW116819   3.310   3.624  10.369
 4974SOL    HW216820   3.397   3.622  10.493
 4975SOL     OW16821   0.529  12.109   4.256
 4975SOL    HW116822   0.438  12.112   4.228
 4975SOL    HW216823   0.544  12.017   4.279
 4976SOL     OW16824   2.579  11.681   4.872
 4976SOL    HW116825   2.551  11.601   4.828
 4976SOL    HW216826   2.499  11.733   4.880
 4977SOL     OW16827   6.472  10.099   0.832
 4977SOL    HW116828   6.523  10.130   0.907
 4977SOL    HW216829   6.433  10.017   0.863
 4978SOL     OW16830  13.185   4.163   0.001
 4978SOL    HW116831  13.175   4.068   0.007
 4978SOL    HW216832  13.274   4.176  14.850
 4979SOL     OW16833   4.542   0.002   6.149
 4979SOL    HW116834   4.520   0.071   6.212
 4979SOL    HW216835   4.635  14.868   6.162
 4980SOL     OW16836   8.703  13.777  12.065
 4980SOL    HW116837   8.643  13.844  12.096
 4980SOL    HW216838   8.712  13.717  12.139
 4981SOL     OW16839  13.051  12.700   5.682
 4981SOL    HW116840  12.997  12.750   5.743
 4981SOL    HW216841  13.023  12.609   5.694
 4982SOL     OW16842  12.794  14.293   0.711
 4982SOL    HW116843  12.734  14.360   0.679
 4982SOL    HW216844  12.868  14.341   0.747
 4983SOL     OW16845   9.263  10.631  10.662
 4983SOL    HW116846   9.316  10.565  10.617
 4983SOL    HW216847   9.304  10.641  10.748
 4984SOL     OW16848   3.564   2.430   3.799
 4984SOL    HW116849   3.552   2.495   3.730
 4984SOL    HW216850   3.494   2.447   3.861
 4985SOL     OW16851   9.357  12.458   4.208
 4985SOL    HW116852   9.415  12.465   4.283
 4985SOL    HW216853   9.358  12.365   4.185
 4986SOL     OW16854   9.552  13.948   6.670
 4986SOL    HW116855   9.538  14.039   6.695
 4986SOL    HW216856   9.629  13.921   6.720
 4987SOL     OW16857   1.169  10.798   2.368
 4987SOL    HW116858   1.175  10.893   2.374
 4987SOL    HW216859   1.171  10.768   2.459
 4988SOL     OW16860  10.217   0.451   5.279
 4988SOL    HW116861  10.194   0.368   5.237
 4988SOL    HW216862  10.311   0.462   5.261
 4989SOL     OW16863  14.599   2.586   5.355
 4989SOL    HW116864  14.579   2.671   5.316
 4989SOL    HW216865  14.536   2.525   5.317
 4990SOL     OW16866   6.430  13.494   8.130
 4990SOL    HW116867   6.370  13.540   8.188
 4990SOL    HW216868   6.513  13.491   8.177
 4991SOL     OW16869   2.367  10.294  10.448
 4991SOL    HW116870   2.302  10.304  10.379
 4991SOL    HW216871   2.328  10.230  10.508
 4992SOL     OW16872  13.415  14.051   4.706
 4992SOL    HW116873  13.326  14.048   4.670
 4992SOL    HW216874  13.471  14.063   4.630
 4993SOL     OW16875  12.967  14.565   6.612
 4993SOL    HW116876  12.944  14.480   6.574
 4993SOL    HW216877  13.061  14.573   6.597
 4994SOL     OW16878   6.183   9.797   5.892
 4994SOL    HW116879   6.122   9.726   5.872
 4994SOL    HW216880   6.150   9.834   5.975
 4995SOL     OW16881   5.109   9.205  13.634
 4995SOL    HW116882   5.203   9.215  13.617
 4995SOL    HW216883   5.067   9.259  13.568
 4996SOL     OW16884   7.521   6.564  10.833
 4996SOL    HW116885   7.425   6.568  10.837
 4996SOL    HW216886   7.549   6.583  10.922
 4997SOL     OW16887   3.653   2.813   4.257
 4997SOL    HW116888   3.674   2.727   4.294
 4997SOL    HW216889   3.736   2.842   4.218
 4998SOL     OW16890   9.775  14.246  13.513
 4998SOL    HW116891   9.710  14.315  13.501
 4998SOL    HW216892   9.731  14.167  13.482
 4999SOL     OW16893   7.414   9.171  14.882
 4999SOL    HW116894   7.412   9.157  14.787
 4999SOL    HW216895   7.400   9.265   0.011
 5000SOL     OW16896  12.229   9.528  11.442
 5000SOL    HW116897  12.227   9.502  11.350
 5000SOL    HW216898  12.144   9.571  11.457
 5001SOL     OW16899  11.241   3.726  11.868
 5001SOL    HW116900  11.273   3.766  11.788
 5001SOL    HW216901  11.158   3.684  11.843
 5002SOL     OW16902  14.554  11.200  10.747
 5002SOL    HW116903  14.548  11.104  10.749
 5002SOL    HW216904  14.463  11.229  10.754
 5003SOL     OW16905   5.794   8.738   1.222
 5003SOL    HW116906   5.755   8.748   1.309
 5003SOL    HW216907   5.835   8.823   1.204
 5004SOL     OW16908  12.329  11.430   2.888
 5004SOL    HW116909  12.366  11.517   2.877
 5004SOL    HW216910  12.342  11.409   2.981
 5005SOL     OW16911  14.349   4.126   1.788
 5005SOL    HW116912  14.393   4.163   1.711
 5005SOL    HW216913  14.270   4.084   1.753
 5006SOL     OW16914  11.081   1.979   0.242
 5006SOL    HW116915  11.165   1.968   0.287
 5006SOL    HW216916  11.057   2.070   0.258
 5007SOL     OW16917   6.586   2.698   5.292
 5007SOL    HW116918   6.498   2.661   5.289
 5007SOL    HW216919   6.609   2.712   5.200
 5008SOL     OW16920  12.065  10.244   1.586
 5008SOL    HW116921  12.070  10.149   1.587
 5008SOL    HW216922  12.137  10.272   1.642
 5009SOL     OW16923   5.912   5.390   1.604
 5009SOL    HW116924   5.818   5.376   1.594
 5009SOL    HW216925   5.944   5.404   1.515
 5010SOL     OW16926   1.230   2.700  14.481
 5010SOL    HW116927   1.206   2.622  14.530
 5010SOL    HW216928   1.157   2.761  14.495
 5011SOL     OW16929   8.039  11.521   0.461
 5011SOL    HW116930   8.035  11.612   0.433
 5011SOL    HW216931   7.957  11.507   0.509
 5012SOL     OW16932   2.612   6.412   0.009
 5012SOL    HW116933   2.571   6.330  14.866
 5012SOL    HW216934   2.569   6.437   0.091
 5013SOL     OW16935   4.838   9.694  10.638
 5013SOL    HW116936   4.837   9.634  10.564
 5013SOL    HW216937   4.894   9.652  10.703
 5014SOL     OW16938  12.711   6.755  14.263
 5014SOL    HW116939  12.690   6.687  14.200
 5014SOL    HW216940  12.737   6.708  14.342
 5015SOL     OW16941  13.967  13.511   9.801
 5015SOL    HW116942  13.983  13.558   9.719
 5015SOL    HW216943  13.968  13.418   9.776
 5016SOL     OW16944   7.982   3.917   8.111
 5016SOL    HW116945   8.014   3.828   8.125
 5016SOL    HW216946   8.060   3.972   8.121
 5017SOL     OW16947   8.208   8.490   8.932
 5017SOL    HW116948   8.151   8.435   8.987
 5017SOL    HW216949   8.168   8.486   8.845
 5018SOL     OW16950   1.744  14.079   2.376
 5018SOL    HW116951   1.760  14.055   2.467
 5018SOL    HW216952   1.689  14.008   2.342
 5019SOL     OW16953   8.038  11.077   0.213
 5019SOL    HW116954   8.120  11.028   0.214
 5019SOL    HW216955   7.985  11.036   0.144
 5020SOL     OW16956  12.800   6.530   7.236
 5020SOL    HW116957  12.871   6.586   7.203
 5020SOL    HW216958  12.748   6.588   7.291
 5021SOL     OW16959   5.873   2.511   8.966
 5021SOL    HW116960   5.930   2.485   8.894
 5021SOL    HW216961   5.926   2.572   9.018
 5022SOL     OW16962   5.978   6.217  14.533
 5022SOL    HW116963   5.954   6.244  14.622
 5022SOL    HW216964   5.995   6.299  14.487
 5023SOL     OW16965   3.029  13.633   0.000
 5023SOL    HW116966   3.096  13.691   0.036
 5023SOL    HW216967   2.981  13.688  14.820
 5024SOL     OW16968  13.931   3.168   1.293
 5024SOL    HW116969  13.959   3.216   1.214
 5024SOL    HW216970  13.848   3.208   1.317
 5025SOL     OW16971  13.267   3.751   6.720
 5025SOL    HW116972  13.303   3.677   6.671
 5025SOL    HW216973  13.344   3.802   6.747
 5026SOL     OW16974   8.137   2.271  12.308
 5026SOL    HW116975   8.101   2.182  12.300
 5026SOL    HW216976   8.135   2.305  12.219
 5027SOL     OW16977  12.235   3.838  12.175
 5027SOL    HW116978  12.277   3.831  12.261
 5027SOL    HW216979  12.305   3.821  12.112
 5028SOL     OW16980   8.129  12.717   0.727
 5028SOL    HW116981   8.107  12.797   0.776
 5028SOL    HW216982   8.139  12.650   0.795
 5029SOL     OW16983   1.370   1.648   1.049
 5029SOL    HW116984   1.304   1.655   1.119
 5029SOL    HW216985   1.320   1.662   0.968
 5030SOL     OW16986  13.376   9.391   7.269
 5030SOL    HW116987  13.367   9.455   7.198
 5030SOL    HW216988  13.414   9.441   7.341
 5031SOL     OW16989   8.597   4.311   8.488
 5031SOL    HW116990   8.651   4.352   8.555
 5031SOL    HW216991   8.547   4.384   8.449
 5032SOL     OW16992   7.786  11.310  14.381
 5032SOL    HW116993   7.736  11.311  14.462
 5032SOL    HW216994   7.864  11.259  14.401
 5033SOL     OW16995   0.625  12.514   4.850
 5033SOL    HW116996   0.582  12.536   4.932
 5033SOL    HW216997   0.564  12.542   4.782
 5034SOL     OW16998  11.454   4.821  11.235
 5034SOL    HW116999  11.467   4.746  11.178
 5034SOL    HW217000  11.530   4.877  11.218
 5035SOL     OW17001   1.033  10.479   8.307
 5035SOL    HW117002   1.032  10.402   8.364
 5035SOL    HW217003   0.968  10.538   8.345
 5036SOL     OW17004  13.964  12.294  12.987
 5036SOL    HW117005  13.951  12.221  12.926
 5036SOL    HW217006  13.881  12.302  13.034
 5037SOL     OW17007   5.591  11.826   8.948
 5037SOL    HW117008   5.558  11.857   8.864
 5037SOL    HW217009   5.595  11.905   9.002
 5038SOL     OW17010   6.752  11.406  11.820
 5038SOL    HW117011   6.819  11.384  11.756
 5038SOL    HW217012   6.677  11.350  11.798
 5039SOL     OW17013  11.166   3.679   1.082
 5039SOL    HW117014  11.081   3.717   1.103
 5039SOL    HW217015  11.227   3.752   1.086
 5040SOL     OW17016   8.192  11.407   1.589
 5040SOL    HW117017   8.285  11.383   1.584
 5040SOL    HW217018   8.158  11.388   1.501
 5041SOL     OW17019   1.835  11.580  13.734
 5041SOL    HW117020   1.814  11.673  13.722
 5041SOL    HW217021   1.773  11.534  13.677
 5042SOL     OW17022  12.500   1.170   8.656
 5042SOL    HW117023  12.547   1.194   8.576
 5042SOL    HW217024  12.409   1.197   8.640
 5043SOL     OW17025   9.966   8.634   9.755
 5043SOL    HW117026   9.928   8.692   9.689
 5043SOL    HW217027   9.893   8.579   9.784
 5044SOL     OW17028   0.654  13.602   0.809
 5044SOL    HW117029   0.703  13.527   0.843
 5044SOL    HW217030   0.602  13.632   0.883
 5045SOL     OW17031  13.207  13.928  14.429
 5045SOL    HW117032  13.210  13.998  14.494
 5045SOL    HW217033  13.276  13.867  14.457
 5046SOL     OW17034  11.183   6.245  10.369
 5046SOL    HW117035  11.194   6.187  10.293
 5046SOL    HW217036  11.260   6.228  10.423
 5047SOL     OW17037  14.080   3.224   9.444
 5047SOL    HW117038  14.169   3.259   9.457
 5047SOL    HW217039  14.029   3.300   9.416
 5048SOL     OW17040   0.976   1.059   2.979
 5048SOL    HW117041   1.042   1.021   2.921
 5048SOL    HW217042   1.018   1.136   3.016
 5049SOL     OW17043   8.326   1.123   6.896
 5049SOL    HW117044   8.391   1.129   6.966
 5049SOL    HW217045   8.344   1.199   6.840
 5050SOL     OW17046   5.315   4.614   2.234
 5050SOL    HW117047   5.294   4.622   2.141
 5050SOL    HW217048   5.243   4.564   2.271
 5051SOL     OW17049   4.112   7.763  10.997
 5051SOL    HW117050   4.121   7.745  11.091
 5051SOL    HW217051   4.101   7.858  10.993
 5052SOL     OW17052   7.412  11.797  12.029
 5052SOL    HW117053   7.481  11.801  11.962
 5052SOL    HW217054   7.332  11.819  11.982
 5053SOL     OW17055  12.570  11.627   8.474
 5053SOL    HW117056  12.659  11.592   8.476
 5053SOL    HW217057  12.514  11.551   8.491
 5054SOL     OW17058  14.006  12.410  10.377
 5054SOL    HW117059  13.944  12.337  10.371
 5054SOL    HW217060  13.952  12.488  10.361
 5055SOL     OW17061  11.213   1.612   5.623
 5055SOL    HW117062  11.198   1.697   5.583
 5055SOL    HW217063  11.148   1.554   5.583
 5056SOL     OW17064   5.180  10.189   5.431
 5056SOL    HW117065   5.260  10.169   5.381
 5056SOL    HW217066   5.210  10.244   5.503
 5057SOL     OW17067   0.207   6.215   0.236
 5057SOL    HW117068   0.208   6.245   0.145
 5057SOL    HW217069   0.122   6.174   0.247
 5058SOL     OW17070  12.638  10.617   6.042
 5058SOL    HW117071  12.631  10.522   6.048
 5058SOL    HW217072  12.625  10.647   6.131
 5059SOL     OW17073  10.536  12.011  13.641
 5059SOL    HW117074  10.468  12.037  13.579
 5059SOL    HW217075  10.489  11.965  13.711
 5060SOL     OW17076   2.952   6.201   1.104
 5060SOL    HW117077   3.020   6.144   1.068
 5060SOL    HW217078   2.937   6.166   1.192
 5061SOL     OW17079  13.045   0.592   0.375
 5061SOL    HW117080  13.069   0.665   0.432
 5061SOL    HW217081  13.084   0.515   0.417
 5062SOL     OW17082   8.359   7.961   8.814
 5062SOL    HW117083   8.377   7.910   8.893
 5062SOL    HW217084   8.438   8.013   8.800
 5063SOL     OW17085  12.423   4.971  14.002
 5063SOL    HW117086  12.474   5.008  14.074
 5063SOL    HW217087  12.333   4.996  14.020
 5064SOL     OW17088   4.518   6.181  13.970
 5064SOL    HW117089   4.601   6.218  13.937
 5064SOL    HW217090   4.521   6.089  13.945
 5065SOL     OW17091   4.662   1.584   2.721
 5065SOL    HW117092   4.582   1.537   2.697
 5065SOL    HW217093   4.633   1.674   2.739
 5066SOL     OW17094   3.159  13.540  12.342
 5066SOL    HW117095   3.074  13.523  12.382
 5066SOL    HW217096   3.140  13.596  12.267
 5067SOL     OW17097   2.486   2.878   3.304
 5067SOL    HW117098   2.427   2.803   3.302
 5067SOL    HW217099   2.455   2.935   3.233
 5068SOL     OW17100   8.092   4.585   9.526
 5068SOL    HW117101   8.059   4.507   9.570
 5068SOL    HW217102   8.020   4.614   9.471
 5069SOL     OW17103   2.129  10.589   8.267
 5069SOL    HW117104   2.209  10.539   8.250
 5069SOL    HW217105   2.072  10.569   8.193
 5070SOL     OW17106   1.949  12.223  11.235
 5070SOL    HW117107   1.951  12.128  11.251
 5070SOL    HW217108   2.040  12.246  11.216
 5071SOL     OW17109  13.617   1.355  12.316
 5071SOL    HW117110  13.673   1.290  12.274
 5071SOL    HW217111  13.543   1.303  12.350
 5072SOL     OW17112   8.232   8.518   4.150
 5072SOL    HW117113   8.181   8.567   4.215
 5072SOL    HW217114   8.317   8.561   4.148
 5073SOL     OW17115   4.099  12.402  12.443
 5073SOL    HW117116   4.192  12.385  12.431
 5073SOL    HW217117   4.095  12.482  12.495
 5074SOL     OW17118   9.681  13.167   4.430
 5074SOL    HW117119   9.632  13.215   4.496
 5074SOL    HW217120   9.728  13.100   4.479
 5075SOL     OW17121   9.482  11.747   2.576
 5075SOL    HW117122   9.436  11.831   2.574
 5075SOL    HW217123   9.571  11.770   2.603
 5076SOL     OW17124   2.711  14.135   2.509
 5076SOL    HW117125   2.733  14.080   2.584
 5076SOL    HW217126   2.743  14.222   2.532
 5077SOL     OW17127  12.775   3.039   2.999
 5077SOL    HW117128  12.747   3.120   2.955
 5077SOL    HW217129  12.857   3.063   3.043
 5078SOL     OW17130   5.941   6.879   8.946
 5078SOL    HW117131   6.021   6.904   8.900
 5078SOL    HW217132   5.870   6.910   8.890
 5079SOL     OW17133   9.067   6.701   7.346
 5079SOL    HW117134   9.009   6.777   7.347
 5079SOL    HW217135   9.126   6.714   7.420
 5080SOL     OW17136   6.250  11.419   7.336
 5080SOL    HW117137   6.271  11.513   7.339
 5080SOL    HW217138   6.255  11.396   7.244
 5081SOL     OW17139  12.283   3.486   4.955
 5081SOL    HW117140  12.297   3.462   4.863
 5081SOL    HW217141  12.263   3.402   4.998
 5082SOL     OW17142  13.047  11.913   2.084
 5082SOL    HW117143  13.092  11.904   2.000
 5082SOL    HW217144  13.069  11.833   2.132
 5083SOL     OW17145   5.981   4.142  13.787
 5083SOL    HW117146   6.001   4.051  13.765
 5083SOL    HW217147   6.052   4.170  13.845
 5084SOL     OW17148   3.419   5.639  12.259
 5084SOL    HW117149   3.456   5.641  12.171
 5084SOL    HW217150   3.336   5.687  12.251
 5085SOL     OW17151  11.076   1.185   8.684
 5085SOL    HW117152  11.044   1.106   8.728
 5085SOL    HW217153  11.002   1.245   8.686
 5086SOL     OW17154   4.340   5.814   3.974
 5086SOL    HW117155   4.346   5.739   4.033
 5086SOL    HW217156   4.353   5.890   4.031
 5087SOL     OW17157  12.118  10.793   6.783
 5087SOL    HW117158  12.062  10.724   6.746
 5087SOL    HW217159  12.069  10.874   6.768
 5088SOL     OW17160   1.064   5.589  10.620
 5088SOL    HW117161   1.094   5.679  10.608
 5088SOL    HW217162   1.140   5.541  10.653
 5089SOL     OW17163   7.066   3.716   8.543
 5089SOL    HW117164   6.988   3.660   8.536
 5089SOL    HW217165   7.139   3.655   8.542
 5090SOL     OW17166  13.799   7.351   6.452
 5090SOL    HW117167  13.808   7.350   6.547
 5090SOL    HW217168  13.884   7.383   6.421
 5091SOL     OW17169  14.470   8.514   1.018
 5091SOL    HW117170  14.505   8.594   0.979
 5091SOL    HW217171  14.411   8.544   1.086
 5092SOL     OW17172   8.728   2.088   1.281
 5092SOL    HW117173   8.753   2.168   1.236
 5092SOL    HW217174   8.752   2.103   1.372
 5093SOL     OW17175   5.075   6.662   1.505
 5093SOL    HW117176   5.064   6.658   1.600
 5093SOL    HW217177   5.068   6.571   1.475
 5094SOL     OW17178   5.619   7.086   3.300
 5094SOL    HW117179   5.567   7.164   3.282
 5094SOL    HW217180   5.700   7.098   3.250
 5095SOL     OW17181   1.241  11.268  12.340
 5095SOL    HW117182   1.326  11.251  12.301
 5095SOL    HW217183   1.258  11.335  12.407
 5096SOL     OW17184   7.630  14.752   6.021
 5096SOL    HW117185   7.698  14.699   5.978
 5096SOL    HW217186   7.678  14.816   6.072
 5097SOL     OW17187   8.660   8.011  12.563
 5097SOL    HW117188   8.583   8.068  12.559
 5097SOL    HW217189   8.652   7.966  12.646
 5098SOL     OW17190  14.586  10.561   3.317
 5098SOL    HW117191  14.555  10.567   3.226
 5098SOL    HW217192  14.550  10.478   3.348
 5099SOL     OW17193  11.105   0.061   5.786
 5099SOL    HW117194  11.197   0.037   5.795
 5099SOL    HW217195  11.059   0.007   5.850
 5100SOL     OW17196  12.420  12.463   3.420
 5100SOL    HW117197  12.358  12.392   3.437
 5100SOL    HW217198  12.367  12.533   3.383
 5101SOL     OW17199   5.064   9.106   4.103
 5101SOL    HW117200   5.136   9.169   4.101
 5101SOL    HW217201   4.986   9.159   4.121
 5102SOL     OW17202  12.988   2.866   5.839
 5102SOL    HW117203  13.050   2.800   5.871
 5102SOL    HW217204  12.919   2.868   5.906
 5103SOL     OW17205  13.300   4.407   6.063
 5103SOL    HW117206  13.223   4.460   6.040
 5103SOL    HW217207  13.289   4.327   6.012
 5104SOL     OW17208   5.128   2.866  11.293
 5104SOL    HW117209   5.056   2.806  11.313
 5104SOL    HW217210   5.120   2.881  11.198
 5105SOL     OW17211  10.171  12.476   9.506
 5105SOL    HW117212  10.176  12.537   9.580
 5105SOL    HW217213  10.079  12.476   9.482
 5106SOL     OW17214  12.259   9.541   4.266
 5106SOL    HW117215  12.264   9.458   4.219
 5106SOL    HW217216  12.300   9.525   4.350
 5107SOL     OW17217   0.942   1.522   5.395
 5107SOL    HW117218   0.980   1.606   5.421
 5107SOL    HW217219   1.007   1.457   5.421
 5108SOL     OW17220   7.042  14.201   0.647
 5108SOL    HW117221   7.022  14.279   0.596
 5108SOL    HW217222   6.966  14.144   0.635
 5109SOL     OW17223  13.321  11.475   0.734
 5109SOL    HW117224  13.385  11.405   0.740
 5109SOL    HW217225  13.349  11.527   0.659
 5110SOL     OW17226  10.005  12.068  14.760
 5110SOL    HW117227  10.023  12.001  14.826
 5110SOL    HW217228   9.948  12.130  14.804
 5111SOL     OW17229   8.303   7.702   1.056
 5111SOL    HW117230   8.297   7.798   1.058
 5111SOL    HW217231   8.247   7.673   1.128
 5112SOL     OW17232   9.393   6.361   5.346
 5112SOL    HW117233   9.341   6.338   5.423
 5112SOL    HW217234   9.362   6.448   5.321
 5113SOL     OW17235   3.985  10.485  10.497
 5113SOL    HW117236   3.912  10.484  10.559
 5113SOL    HW217237   4.004  10.578  10.485
 5114SOL     OW17238   8.599   2.865   5.266
 5114SOL    HW117239   8.582   2.892   5.176
 5114SOL    HW217240   8.687   2.827   5.263
 5115SOL     OW17241   8.022   1.115  10.427
 5115SOL    HW117242   8.060   1.126  10.340
 5115SOL    HW217243   7.994   1.023  10.429
 5116SOL     OW17244   1.855  12.168   7.324
 5116SOL    HW117245   1.786  12.118   7.282
 5116SOL    HW217246   1.869  12.244   7.267
 5117SOL     OW17247   6.703  11.317   9.683
 5117SOL    HW117248   6.739  11.357   9.604
 5117SOL    HW217249   6.735  11.373   9.754
 5118SOL     OW17250  13.333   9.984   1.267
 5118SOL    HW117251  13.309   9.892   1.251
 5118SOL    HW217252  13.312  10.029   1.185
 5119SOL     OW17253   7.227  10.810  14.241
 5119SOL    HW117254   7.229  10.734  14.183
 5119SOL    HW217255   7.285  10.786  14.313
 5120SOL     OW17256   2.313   9.759  12.619
 5120SOL    HW117257   2.256   9.688  12.652
 5120SOL    HW217258   2.269   9.791  12.541
 5121SOL     OW17259  10.495   5.124  10.531
 5121SOL    HW117260  10.545   5.186  10.478
 5121SOL    HW217261  10.465   5.176  10.606
 5122SOL     OW17262   9.511   2.059   7.351
 5122SOL    HW117263   9.502   2.015   7.435
 5122SOL    HW217264   9.444   2.128   7.352
 5123SOL     OW17265   5.365  12.428   9.021
 5123SOL    HW117266   5.354  12.384   8.937
 5123SOL    HW217267   5.293  12.490   9.025
 5124SOL     OW17268   8.882   3.687   6.894
 5124SOL    HW117269   8.910   3.723   6.978
 5124SOL    HW217270   8.861   3.764   6.841
 5125SOL     OW17271  10.899   3.270   4.750
 5125SOL    HW117272  10.970   3.239   4.694
 5125SOL    HW217273  10.886   3.200   4.814
 5126SOL     OW17274   2.596   9.599   3.061
 5126SOL    HW117275   2.513   9.583   3.015
 5126SOL    HW217276   2.572   9.652   3.136
 5127SOL     OW17277  12.771   8.592   2.334
 5127SOL    HW117278  12.703   8.659   2.343
 5127SOL    HW217279  12.728   8.510   2.360
 5128SOL     OW17280   3.665  10.204  10.984
 5128SOL    HW117281   3.629  10.195  11.072
 5128SOL    HW217282   3.613  10.143  10.931
 5129SOL     OW17283  12.389   0.727   0.821
 5129SOL    HW117284  12.312   0.784   0.820
 5129SOL    HW217285  12.462   0.784   0.797
 5130SOL     OW17286  13.787   0.453   4.259
 5130SOL    HW117287  13.833   0.531   4.228
 5130SOL    HW217288  13.732   0.426   4.186
 5131SOL     OW17289  12.619  12.041  12.745
 5131SOL    HW117290  12.580  12.088  12.819
 5131SOL    HW217291  12.617  11.949  12.771
 5132SOL     OW17292   5.274   5.519   2.740
 5132SOL    HW117293   5.179   5.514   2.737
 5132SOL    HW217294   5.300   5.448   2.799
 5133SOL     OW17295   9.637  14.100   0.959
 5133SOL    HW117296   9.715  14.092   1.014
 5133SOL    HW217297   9.566  14.067   1.015
 5134SOL     OW17298  10.570   2.704   6.485
 5134SOL    HW117299  10.560   2.617   6.526
 5134SOL    HW217300  10.515   2.761   6.538
 5135SOL     OW17301  13.969   0.136  13.902
 5135SOL    HW117302  13.911   0.205  13.869
 5135SOL    HW217303  13.921   0.098  13.976
 5136SOL     OW17304  11.528  14.839  11.412
 5136SOL    HW117305  11.510   0.050  11.426
 5136SOL    HW217306  11.601  14.837  11.350
 5137SOL     OW17307   1.529   1.888  11.780
 5137SOL    HW117308   1.585   1.965  11.792
 5137SOL    HW217309   1.476   1.910  11.703
 5138SOL     OW17310   6.764   3.542   5.507
 5138SOL    HW117311   6.791   3.589   5.428
 5138SOL    HW217312   6.675   3.511   5.488
 5139SOL     OW17313   9.305   9.887   1.526
 5139SOL    HW117314   9.256   9.881   1.445
 5139SOL    HW217315   9.396   9.872   1.500
 5140SOL     OW17316  13.457  11.405  12.874
 5140SOL    HW117317  13.546  11.433  12.854
 5140SOL    HW217318  13.463  11.309  12.879
 5141SOL     OW17319   6.394   7.067   9.830
 5141SOL    HW117320   6.348   7.013   9.766
 5141SOL    HW217321   6.358   7.041   9.914
 5142SOL     OW17322  10.889   4.165   9.562
 5142SOL    HW117323  10.907   4.077   9.532
 5142SOL    HW217324  10.878   4.157   9.657
 5143SOL     OW17325   4.843   5.816   6.072
 5143SOL    HW117326   4.864   5.723   6.061
 5143SOL    HW217327   4.879   5.858   5.994
 5144SOL     OW17328   7.035  10.437   3.499
 5144SOL    HW117329   7.126  10.425   3.525
 5144SOL    HW217330   6.985  10.383   3.560
 5145SOL     OW17331   8.662   9.752   8.252
 5145SOL    HW117332   8.695   9.697   8.323
 5145SOL    HW217333   8.656   9.839   8.290
 5146SOL     OW17334   7.686   8.297   1.120
 5146SOL    HW117335   7.763   8.300   1.177
 5146SOL    HW217336   7.696   8.217   1.070
 5147SOL     OW17337   6.582  12.994  14.659
 5147SOL    HW117338   6.645  12.931  14.693
 5147SOL    HW217339   6.587  13.068  14.719
 5148SOL     OW17340   1.873  10.350   6.022
 5148SOL    HW117341   1.909  10.266   6.052
 5148SOL    HW217342   1.901  10.357   5.931
 5149SOL     OW17343   6.167   8.775  10.132
 5149SOL    HW117344   6.226   8.699  10.130
 5149SOL    HW217345   6.225   8.851  10.136
 5150SOL     OW17346  11.104  12.516   9.294
 5150SOL    HW117347  11.110  12.582   9.362
 5150SOL    HW217348  11.105  12.565   9.212
 5151SOL     OW17349   4.696  12.136   1.300
 5151SOL    HW117350   4.710  12.143   1.394
 5151SOL    HW217351   4.783  12.118   1.264
 5152SOL     OW17352   8.682  12.508   6.391
 5152SOL    HW117353   8.751  12.535   6.331
 5152SOL    HW217354   8.694  12.563   6.468
 5153SOL     OW17355  11.825   7.905  13.949
 5153SOL    HW117356  11.896   7.958  13.914
 5153SOL    HW217357  11.795   7.853  13.874
 5154SOL     OW17358  12.959  12.834   3.494
 5154SOL    HW117359  13.052  12.839   3.519
 5154SOL    HW217360  12.937  12.924   3.468
 5155SOL     OW17361   9.040   6.809   6.694
 5155SOL    HW117362   9.085   6.728   6.719
 5155SOL    HW217363   9.093   6.844   6.622
 5156SOL     OW17364  12.560  13.740   2.369
 5156SOL    HW117365  12.635  13.729   2.427
 5156SOL    HW217366  12.593  13.716   2.282
 5157SOL     OW17367  12.240   6.018   4.913
 5157SOL    HW117368  12.215   6.104   4.880
 5157SOL    HW217369  12.321   6.033   4.962
 5158SOL     OW17370  11.729   4.689   8.357
 5158SOL    HW117371  11.729   4.754   8.428
 5158SOL    HW217372  11.637   4.678   8.334
 5159SOL     OW17373   6.622   3.644  12.917
 5159SOL    HW117374   6.701   3.603  12.953
 5159SOL    HW217375   6.560   3.572  12.904
 5160SOL     OW17376   0.895  12.110   5.180
 5160SOL    HW117377   0.850  12.151   5.254
 5160SOL    HW217378   0.874  12.166   5.105
 5161SOL     OW17379   9.469   9.364   0.518
 5161SOL    HW117380   9.454   9.396   0.429
 5161SOL    HW217381   9.552   9.315   0.512
 5162SOL     OW17382   9.283   1.637  10.110
 5162SOL    HW117383   9.373   1.612  10.088
 5162SOL    HW217384   9.292   1.716  10.162
 5163SOL     OW17385  13.885  11.133  14.030
 5163SOL    HW117386  13.936  11.088  14.098
 5163SOL    HW217387  13.805  11.081  14.022
 5164SOL     OW17388   0.085   6.072   6.160
 5164SOL    HW117389   0.085   6.065   6.065
 5164SOL    HW217390   0.094   6.166   6.178
 5165SOL     OW17391   0.427   1.408   8.378
 5165SOL    HW117392   0.336   1.428   8.359
 5165SOL    HW217393   0.441   1.320   8.344
 5166SOL     OW17394  11.033  11.923  13.276
 5166SOL    HW117395  10.947  11.883  13.292
 5166SOL    HW217396  11.077  11.863  13.216
 5167SOL     OW17397   4.892   5.549   6.108
 5167SOL    HW117398   4.865   5.524   6.020
 5167SOL    HW217399   4.960   5.485   6.130
 5168SOL     OW17400   1.598  11.496  13.644
 5168SOL    HW117401   1.565  11.441  13.572
 5168SOL    HW217402   1.519  11.521  13.692
 5169SOL     OW17403   6.419   9.791  13.975
 5169SOL    HW117404   6.385   9.703  13.991
 5169SOL    HW217405   6.342   9.841  13.946
 5170SOL     OW17406  10.298   6.849   2.824
 5170SOL    HW117407  10.311   6.844   2.729
 5170SOL    HW217408  10.203   6.850   2.836
 5171SOL     OW17409  12.984   9.218   8.599
 5171SOL    HW117410  12.930   9.285   8.642
 5171SOL    HW217411  13.014   9.260   8.519
 5172SOL     OW17412   9.355   7.497   3.410
 5172SOL    HW117413   9.299   7.521   3.484
 5172SOL    HW217414   9.341   7.566   3.346
 5173SOL     OW17415  10.648  10.108  13.492
 5173SOL    HW117416  10.644  10.117  13.587
 5173SOL    HW217417  10.742  10.100  13.473
 5174SOL     OW17418  10.732   5.046   2.426
 5174SOL    HW117419  10.673   5.084   2.361
 5174SOL    HW217420  10.776   4.975   2.380
 5175SOL     OW17421  10.802  11.307   7.557
 5175SOL    HW117422  10.877  11.362   7.579
 5175SOL    HW217423  10.755  11.355   7.489
 5176SOL     OW17424  12.352  10.771   1.659
 5176SOL    HW117425  12.415  10.787   1.729
 5176SOL    HW217426  12.296  10.701   1.693
 5177SOL     OW17427   4.716  11.521   6.930
 5177SOL    HW117428   4.704  11.484   6.842
 5177SOL    HW217429   4.810  11.518   6.945
 5178SOL     OW17430   1.379  13.240   2.853
 5178SOL    HW117431   1.399  13.223   2.945
 5178SOL    HW217432   1.447  13.193   2.805
 5179SOL     OW17433   0.052   9.326  12.479
 5179SOL    HW117434  14.856   9.336  12.424
 5179SOL    HW217435   0.110   9.269  12.428
 5180SOL     OW17436   8.166   2.866   7.498
 5180SOL    HW117437   8.099   2.899   7.557
 5180SOL    HW217438   8.248   2.898   7.534
 5181SOL     OW17439   7.506  10.380   8.295
 5181SOL    HW117440   7.468  10.360   8.381
 5181SOL    HW217441   7.502  10.298   8.247
 5182SOL     OW17442  12.479   5.317  13.496
 5182SOL    HW117443  12.472   5.328  13.591
 5182SOL    HW217444  12.509   5.402  13.464
 5183SOL     OW17445   7.490   8.099   3.526
 5183SOL    HW117446   7.580   8.083   3.555
 5183SOL    HW217447   7.437   8.085   3.605
 5184SOL     OW17448  14.719   0.296  14.155
 5184SOL    HW117449  14.815   0.299  14.166
 5184SOL    HW217450  14.687   0.361  14.217
 5185SOL     OW17451   2.537  10.701   2.073
 5185SOL    HW117452   2.562  10.793   2.066
 5185SOL    HW217453   2.473  10.698   2.143
 5186SOL     OW17454   0.930   8.625   3.719
 5186SOL    HW117455   0.934   8.595   3.809
 5186SOL    HW217456   0.875   8.559   3.675
 5187SOL     OW17457   4.290   2.962  14.608
 5187SOL    HW117458   4.278   3.018  14.531
 5187SOL    HW217459   4.204   2.960  14.649
 5188SOL     OW17460  11.719  12.080   4.286
 5188SOL    HW117461  11.694  12.118   4.202
 5188SOL    HW217462  11.752  11.993   4.264
 5189SOL     OW17463   8.730   3.107   6.235
 5189SOL    HW117464   8.650   3.055   6.243
 5189SOL    HW217465   8.745   3.114   6.141
 5190SOL     OW17466   4.908   5.800  13.878
 5190SOL    HW117467   4.951   5.862  13.938
 5190SOL    HW217468   4.818   5.794  13.910
 5191SOL     OW17469   0.615   1.641   6.120
 5191SOL    HW117470   0.621   1.616   6.213
 5191SOL    HW217471   0.700   1.682   6.102
 5192SOL     OW17472  12.539   1.704   6.856
 5192SOL    HW117473  12.460   1.693   6.909
 5192SOL    HW217474  12.611   1.703   6.919
 5193SOL     OW17475  14.713   4.290   7.191
 5193SOL    HW117476  14.705   4.382   7.216
 5193SOL    HW217477  14.727   4.243   7.273
 5194SOL     OW17478   0.320  14.727   1.150
 5194SOL    HW117479   0.248  14.770   1.104
 5194SOL    HW217480   0.349  14.658   1.090
 5195SOL     OW17481   8.468   4.507   3.848
 5195SOL    HW117482   8.531   4.481   3.915
 5195SOL    HW217483   8.522   4.532   3.772
 5196SOL     OW17484  14.734   5.087  10.718
 5196SOL    HW117485  14.713   5.173  10.753
 5196SOL    HW217486  14.769   5.105  10.630
 5197SOL     OW17487   9.835  14.120   3.611
 5197SOL    HW117488   9.874  14.165   3.537
 5197SOL    HW217489   9.906  14.069   3.649
 5198SOL     OW17490   5.867   2.921   4.201
 5198SOL    HW117491   5.822   2.957   4.278
 5198SOL    HW217492   5.949   2.885   4.236
 5199SOL     OW17493   7.186   9.343   6.181
 5199SOL    HW117494   7.100   9.362   6.146
 5199SOL    HW217495   7.223   9.429   6.202
 5200SOL     OW17496   2.303   7.162   4.775
 5200SOL    HW117497   2.351   7.245   4.783
 5200SOL    HW217498   2.320   7.117   4.857
 5201SOL     OW17499   0.202  14.774   4.445
 5201SOL    HW117500   0.269  14.706   4.454
 5201SOL    HW217501   0.175  14.770   4.353
 5202SOL     OW17502   6.377   6.984   1.204
 5202SOL    HW117503   6.353   7.020   1.119
 5202SOL    HW217504   6.470   7.004   1.214
 5203SOL     OW17505   1.288  13.592   5.455
 5203SOL    HW117506   1.298  13.563   5.364
 5203SOL    HW217507   1.314  13.516   5.507
 5204SOL     OW17508   9.439  11.953   0.146
 5204SOL    HW117509   9.455  12.014   0.075
 5204SOL    HW217510   9.508  11.970   0.209
 5205SOL     OW17511  13.525   8.034   8.391
 5205SOL    HW117512  13.486   7.947   8.394
 5205SOL    HW217513  13.467   8.089   8.445
 5206SOL     OW17514   3.056  11.435   0.784
 5206SOL    HW117515   3.010  11.491   0.847
 5206SOL    HW217516   3.145  11.471   0.781
 5207SOL     OW17517   1.910  11.173   8.283
 5207SOL    HW117518   1.874  11.190   8.196
 5207SOL    HW217519   1.977  11.240   8.295
 5208SOL     OW17520  14.721  10.500   9.116
 5208SOL    HW117521  14.810  10.526   9.142
 5208SOL    HW217522  14.727  10.485   9.022
 5209SOL     OW17523   6.736   1.060  14.066
 5209SOL    HW117524   6.803   1.056  14.133
 5209SOL    HW217525   6.784   1.080  13.985
 5210SOL     OW17526   6.035   0.331  11.340
 5210SOL    HW117527   6.068   0.381  11.265
 5210SOL    HW217528   6.110   0.328  11.401
 5211SOL     OW17529  12.380   4.574  10.707
 5211SOL    HW117530  12.327   4.578  10.628
 5211SOL    HW217531  12.437   4.651  10.702
 5212SOL     OW17532   4.905   2.327   5.456
 5212SOL    HW117533   4.939   2.353   5.370
 5212SOL    HW217534   4.913   2.231   5.457
 5213SOL     OW17535  12.627  11.478   4.474
 5213SOL    HW117536  12.608  11.478   4.568
 5213SOL    HW217537  12.722  11.473   4.469
 5214SOL     OW17538  12.042   3.238  12.440
 5214SOL    HW117539  12.080   3.160  12.400
 5214SOL    HW217540  12.111   3.304  12.433
 5215SOL     OW17541   3.585   5.493  11.122
 5215SOL    HW117542   3.655   5.512  11.060
 5215SOL    HW217543   3.542   5.578  11.137
 5216SOL     OW17544  13.503   4.567   9.189
 5216SOL    HW117545  13.533   4.511   9.260
 5216SOL    HW217546  13.555   4.540   9.113
 5217SOL     OW17547   9.640   8.153   9.291
 5217SOL    HW117548   9.697   8.223   9.261
 5217SOL    HW217549   9.621   8.174   9.382
 5218SOL     OW17550  13.198   1.589  10.399
 5218SOL    HW117551  13.239   1.674  10.383
 5218SOL    HW217552  13.268   1.526  10.385
 5219SOL     OW17553   5.196   0.802   9.917
 5219SOL    HW117554   5.256   0.870   9.946
 5219SOL    HW217555   5.220   0.725   9.968
 5220SOL     OW17556   4.321   0.316   8.449
 5220SOL    HW117557   4.326   0.339   8.541
 5220SOL    HW217558   4.281   0.229   8.448
 5221SOL     OW17559   6.716   7.298   6.056
 5221SOL    HW117560   6.797   7.259   6.022
 5221SOL    HW217561   6.697   7.368   5.994
 5222SOL     OW17562  12.981  12.801   1.291
 5222SOL    HW117563  12.927  12.802   1.370
 5222SOL    HW217564  12.922  12.830   1.221
 5223SOL     OW17565  14.225   2.232   2.862
 5223SOL    HW117566  14.144   2.220   2.912
 5223SOL    HW217567  14.195   2.251   2.773
 5224SOL     OW17568   5.969   6.757   8.437
 5224SOL    HW117569   5.920   6.837   8.453
 5224SOL    HW217570   6.061   6.782   8.453
 5225SOL     OW17571   6.112   1.550  11.799
 5225SOL    HW117572   6.159   1.467  11.809
 5225SOL    HW217573   6.019   1.527  11.810
 5226SOL     OW17574   7.331  10.202   2.262
 5226SOL    HW117575   7.245  10.161   2.274
 5226SOL    HW217576   7.392  10.143   2.306
 5227SOL     OW17577   4.515   4.671   6.799
 5227SOL    HW117578   4.602   4.644   6.771
 5227SOL    HW217579   4.529   4.749   6.852
 5228SOL     OW17580  14.586   4.174   4.763
 5228SOL    HW117581  14.559   4.086   4.790
 5228SOL    HW217582  14.577   4.174   4.668
 5229SOL     OW17583   9.734   3.360   2.339
 5229SOL    HW117584   9.690   3.390   2.418
 5229SOL    HW217585   9.719   3.265   2.337
 5230SOL     OW17586  10.718  10.576   6.569
 5230SOL    HW117587  10.743  10.640   6.503
 5230SOL    HW217588  10.780  10.589   6.640
 5231SOL     OW17589   8.838   1.805   1.886
 5231SOL    HW117590   8.766   1.746   1.866
 5231SOL    HW217591   8.904   1.750   1.927
 5232SOL     OW17592  10.273   3.679   1.700
 5232SOL    HW117593  10.305   3.678   1.610
 5232SOL    HW217594  10.334   3.734   1.748
 5233SOL     OW17595   1.964  11.438   8.130
 5233SOL    HW117596   2.010  11.425   8.213
 5233SOL    HW217597   2.019  11.394   8.065
 5234SOL     OW17598   1.879   1.958  13.341
 5234SOL    HW117599   1.815   2.008  13.291
 5234SOL    HW217600   1.963   1.978  13.299
 5235SOL     OW17601   0.261  10.845  10.574
 5235SOL    HW117602   0.280  10.806  10.488
 5235SOL    HW217603   0.317  10.797  10.635
 5236SOL     OW17604   3.185   6.296   9.581
 5236SOL    HW117605   3.186   6.251   9.665
 5236SOL    HW217606   3.267   6.270   9.539
 5237SOL     OW17607   0.892  12.389   4.561
 5237SOL    HW117608   0.922  12.307   4.522
 5237SOL    HW217609   0.804  12.369   4.594
 5238SOL     OW17610   2.150   4.883   0.616
 5238SOL    HW117611   2.244   4.900   0.613
 5238SOL    HW217612   2.132   4.862   0.707
 5239SOL     OW17613   7.958   0.131  10.258
 5239SOL    HW117614   7.961   0.195  10.186
 5239SOL    HW217615   7.996   0.176  10.333
 5240SOL     OW17616  12.439  13.683  13.812
 5240SOL    HW117617  12.347  13.659  13.799
 5240SOL    HW217618  12.441  13.778  13.795
 5241SOL     OW17619   6.900  10.122  13.635
 5241SOL    HW117620   6.840  10.051  13.658
 5241SOL    HW217621   6.981  10.077  13.609
 5242SOL     OW17622  11.736   5.246   8.628
 5242SOL    HW117623  11.765   5.308   8.561
 5242SOL    HW217624  11.657   5.286   8.665
 5243SOL     OW17625  11.409   5.044  13.229
 5243SOL    HW117626  11.495   5.053  13.188
 5243SOL    HW217627  11.347   5.069  13.161
 5244SOL     OW17628   9.829   1.108  13.950
 5244SOL    HW117629   9.880   1.149  14.020
 5244SOL    HW217630   9.893   1.091  13.881
 5245SOL     OW17631   9.943   4.900  12.868
 5245SOL    HW117632   9.983   4.957  12.802
 5245SOL    HW217633   9.927   4.958  12.942
 5246SOL     OW17634  14.878   2.557  14.717
 5246SOL    HW117635   0.055   2.617  14.763
 5246SOL    HW217636  14.807   2.542  14.779
 5247SOL     OW17637   6.652   1.694   6.646
 5247SOL    HW117638   6.589   1.725   6.710
 5247SOL    HW217639   6.700   1.772   6.620
 5248SOL     OW17640  14.366   9.060   4.182
 5248SOL    HW117641  14.302   9.126   4.209
 5248SOL    HW217642  14.344   9.041   4.091
 5249SOL     OW17643   3.270   6.149   8.358
 5249SOL    HW117644   3.360   6.180   8.354
 5249SOL    HW217645   3.259   6.096   8.279
 5250SOL     OW17646  13.992   7.307  12.905
 5250SOL    HW117647  13.937   7.332  12.831
 5250SOL    HW217648  13.930   7.294  12.977
 5251SOL     OW17649   1.767   0.405   7.186
 5251SOL    HW117650   1.746   0.336   7.249
 5251SOL    HW217651   1.796   0.357   7.108
 5252SOL     OW17652   5.146  14.738   4.045
 5252SOL    HW117653   5.190  14.720   3.962
 5252SOL    HW217654   5.214  14.777   4.100
 5253SOL     OW17655  12.608   0.631   3.457
 5253SOL    HW117656  12.634   0.571   3.527
 5253SOL    HW217657  12.515   0.646   3.472
 5254SOL     OW17658  10.810  13.853   5.373
 5254SOL    HW117659  10.830  13.938   5.412
 5254SOL    HW217660  10.816  13.867   5.279
 5255SOL     OW17661   6.850  12.100  13.802
 5255SOL    HW117662   6.851  12.013  13.843
 5255SOL    HW217663   6.848  12.083  13.708
 5256SOL     OW17664  14.688   5.925   8.305
 5256SOL    HW117665  14.630   5.943   8.379
 5256SOL    HW217666  14.655   5.979   8.234
 5257SOL     OW17667  11.126   4.198   9.118
 5257SOL    HW117668  11.133   4.243   9.202
 5257SOL    HW217669  11.058   4.132   9.131
 5258SOL     OW17670   8.968   1.010   1.552
 5258SOL    HW117671   9.020   1.039   1.477
 5258SOL    HW217672   8.998   1.066   1.624
 5259SOL     OW17673   8.226   9.025  12.868
 5259SOL    HW117674   8.156   8.996  12.927
 5259SOL    HW217675   8.212   8.975  12.787
 5260SOL     OW17676   1.064   7.029   2.654
 5260SOL    HW117677   1.037   6.946   2.616
 5260SOL    HW217678   1.010   7.094   2.611
 5261SOL     OW17679   1.432   3.931  11.097
 5261SOL    HW117680   1.404   3.888  11.016
 5261SOL    HW217681   1.430   4.025  11.076
 5262SOL     OW17682   3.859  13.685  12.608
 5262SOL    HW117683   3.816  13.649  12.531
 5262SOL    HW217684   3.897  13.768  12.579
 5263SOL     OW17685  13.834  13.377   2.624
 5263SOL    HW117686  13.826  13.353   2.532
 5263SOL    HW217687  13.827  13.473   2.624
 5264SOL     OW17688  11.975   7.019  14.004
 5264SOL    HW117689  11.971   7.062  14.090
 5264SOL    HW217690  11.974   7.091  13.941
 5265SOL     OW17691   6.691   1.960  10.861
 5265SOL    HW117692   6.755   1.974  10.791
 5265SOL    HW217693   6.643   2.043  10.866
 5266SOL     OW17694   5.536  13.969   6.684
 5266SOL    HW117695   5.529  14.057   6.646
 5266SOL    HW217696   5.601  13.978   6.754
 5267SOL     OW17697   6.870   2.658   2.963
 5267SOL    HW117698   6.909   2.743   2.981
 5267SOL    HW217699   6.801   2.677   2.898
 5268SOL     OW17700  13.409   7.469   0.089
 5268SOL    HW117701  13.333   7.512   0.050
 5268SOL    HW217702  13.409   7.381   0.051
 5269SOL     OW17703   9.093  11.168   7.016
 5269SOL    HW117704   9.152  11.105   7.056
 5269SOL    HW217705   9.150  11.230   6.971
 5270SOL     OW17706   9.354   0.614   9.874
 5270SOL    HW117707   9.387   0.631   9.962
 5270SOL    HW217708   9.262   0.594   9.887
 5271SOL     OW17709   7.687   2.168   8.216
 5271SOL    HW117710   7.714   2.250   8.257
 5271SOL    HW217711   7.595   2.181   8.193
 5272SOL     OW17712   3.596   8.555   2.025
 5272SOL    HW117713   3.681   8.572   2.066
 5272SOL    HW217714   3.594   8.460   2.012
 5273SOL     OW17715   8.649   4.032  10.340
 5273SOL    HW117716   8.594   4.084  10.280
 5273SOL    HW217717   8.728   4.085  10.352
 5274SOL     OW17718   5.083  13.340  13.712
 5274SOL    HW117719   5.011  13.292  13.754
 5274SOL    HW217720   5.055  13.432  13.715
 5275SOL     OW17721  10.621   5.570   8.337
 5275SOL    HW117722  10.603   5.497   8.397
 5275SOL    HW217723  10.703   5.547   8.294
 5276SOL     OW17724  13.484   5.181   3.704
 5276SOL    HW117725  13.528   5.266   3.695
 5276SOL    HW217726  13.396   5.202   3.733
 5277SOL     OW17727   0.712   2.125   0.982
 5277SOL    HW117728   0.715   2.084   0.896
 5277SOL    HW217729   0.787   2.088   1.029
 5278SOL     OW17730  10.527   8.413   2.542
 5278SOL    HW117731  10.561   8.502   2.535
 5278SOL    HW217732  10.501   8.391   2.452
 5279SOL     OW17733   8.261  14.875   9.314
 5279SOL    HW117734   8.222  14.847   9.232
 5279SOL    HW217735   8.354  14.852   9.306
 5280SOL     OW17736   3.194  14.492   3.083
 5280SOL    HW117737   3.258  14.526   3.020
 5280SOL    HW217738   3.111  14.530   3.055
 5281SOL     OW17739   5.769   8.139  12.627
 5281SOL    HW117740   5.822   8.176  12.698
 5281SOL    HW217741   5.700   8.091  12.671
 5282SOL     OW17742   0.421   4.592   6.786
 5282SOL    HW117743   0.325   4.591   6.793
 5282SOL    HW217744   0.438   4.555   6.700
 5283SOL     OW17745   0.289   4.194   5.601
 5283SOL    HW117746   0.251   4.169   5.685
 5283SOL    HW217747   0.378   4.158   5.604
 5284SOL     OW17748   1.730   8.501   3.716
 5284SOL    HW117749   1.819   8.467   3.729
 5284SOL    HW217750   1.678   8.460   3.784
 5285SOL     OW17751  12.154   5.743   4.140
 5285SOL    HW117752  12.204   5.821   4.159
 5285SOL    HW217753  12.200   5.701   4.067
 5286SOL     OW17754  11.106   4.397  13.620
 5286SOL    HW117755  11.158   4.472  13.591
 5286SOL    HW217756  11.111   4.335  13.547
 5287SOL     OW17757   3.024   9.025  13.959
 5287SOL    HW117758   2.978   9.109  13.957
 5287SOL    HW217759   3.097   9.039  14.020
 5288SOL     OW17760  10.789   6.911  13.948
 5288SOL    HW117761  10.727   6.930  13.877
 5288SOL    HW217762  10.819   6.997  13.976
 5289SOL     OW17763   6.832   9.582   6.275
 5289SOL    HW117764   6.834   9.633   6.355
 5289SOL    HW217765   6.784   9.637   6.213
 5290SOL     OW17766   8.743   1.647   0.586
 5290SOL    HW117767   8.748   1.553   0.565
 5290SOL    HW217768   8.654   1.659   0.618
 5291SOL     OW17769   7.211   6.772   0.263
 5291SOL    HW117770   7.134   6.788   0.209
 5291SOL    HW217771   7.179   6.786   0.353
 5292SOL     OW17772  10.771   0.451  12.705
 5292SOL    HW117773  10.753   0.482  12.617
 5292SOL    HW217774  10.695   0.398  12.728
 5293SOL     OW17775  13.069   1.347   9.448
 5293SOL    HW117776  13.111   1.340   9.533
 5293SOL    HW217777  13.075   1.440   9.425
 5294SOL     OW17778   1.398   9.717   0.178
 5294SOL    HW117779   1.378   9.645   0.119
 5294SOL    HW217780   1.347   9.698   0.257
 5295SOL     OW17781   7.037   6.207   5.980
 5295SOL    HW117782   6.990   6.205   6.064
 5295SOL    HW217783   7.124   6.173   6.001
 5296SOL     OW17784   9.565   6.442   2.035
 5296SOL    HW117785   9.494   6.425   2.097
 5296SOL    HW217786   9.606   6.356   2.023
 5297SOL     OW17787   2.754   9.422   1.225
 5297SOL    HW117788   2.706   9.384   1.152
 5297SOL    HW217789   2.794   9.502   1.189
 5298SOL     OW17790   9.711  14.852   8.551
 5298SOL    HW117791   9.632   0.022   8.544
 5298SOL    HW217792   9.691  14.786   8.618
 5299SOL     OW17793   9.997   2.982   2.612
 5299SOL    HW117794  10.049   3.005   2.536
 5299SOL    HW217795   9.923   3.043   2.611
 5300SOL     OW17796  11.726   2.119   1.062
 5300SOL    HW117797  11.697   2.182   0.996
 5300SOL    HW217798  11.668   2.044   1.051
 5301SOL     OW17799   5.778  14.206  10.781
 5301SOL    HW117800   5.702  14.244  10.825
 5301SOL    HW217801   5.804  14.271  10.717
 5302SOL     OW17802  12.040  11.744   7.062
 5302SOL    HW117803  11.965  11.706   7.016
 5302SOL    HW217804  12.116  11.699   7.026
 5303SOL     OW17805   3.926   1.277   4.591
 5303SOL    HW117806   3.934   1.327   4.672
 5303SOL    HW217807   3.863   1.208   4.611
 5304SOL     OW17808  10.391  14.280   2.885
 5304SOL    HW117809  10.404  14.334   2.963
 5304SOL    HW217810  10.364  14.342   2.818
 5305SOL     OW17811  12.156  10.743   7.327
 5305SOL    HW117812  12.219  10.814   7.341
 5305SOL    HW217813  12.081  10.785   7.284
 5306SOL     OW17814   1.844  11.005  13.893
 5306SOL    HW117815   1.787  10.928  13.907
 5306SOL    HW217816   1.928  10.968  13.866
 5307SOL     OW17817   6.795  10.736   9.493
 5307SOL    HW117818   6.769  10.772   9.409
 5307SOL    HW217819   6.712  10.716   9.537
 5308SOL     OW17820   0.525  11.273   7.323
 5308SOL    HW117821   0.465  11.237   7.258
 5308SOL    HW217822   0.551  11.358   7.287
 5309SOL     OW17823   6.526  14.841  14.791
 5309SOL    HW117824   6.437  14.870  14.775
 5309SOL    HW217825   6.551  14.795  14.711
 5310SOL     OW17826   6.994   1.870   7.511
 5310SOL    HW117827   7.035   1.839   7.592
 5310SOL    HW217828   7.028   1.813   7.443
 5311SOL     OW17829   6.330  11.265   5.652
 5311SOL    HW117830   6.298  11.211   5.580
 5311SOL    HW217831   6.415  11.226   5.675
 5312SOL     OW17832   1.132   5.248  10.990
 5312SOL    HW117833   1.041   5.270  10.970
 5312SOL    HW217834   1.173   5.236  10.904
 5313SOL     OW17835   0.454   0.326   2.996
 5313SOL    HW117836   0.497   0.259   2.943
 5313SOL    HW217837   0.520   0.394   3.006
 5314SOL     OW17838  10.240  10.717   4.672
 5314SOL    HW117839  10.296  10.757   4.738
 5314SOL    HW217840  10.195  10.791   4.631
 5315SOL     OW17841  10.912   6.840   5.026
 5315SOL    HW117842  10.933   6.848   4.933
 5315SOL    HW217843  10.992   6.806   5.066
 5316SOL     OW17844   0.932  10.955   3.350
 5316SOL    HW117845   0.919  10.883   3.411
 5316SOL    HW217846   0.953  11.030   3.405
 5317SOL     OW17847   6.533   0.268   5.536
 5317SOL    HW117848   6.520   0.219   5.454
 5317SOL    HW217849   6.592   0.214   5.587
 5318SOL     OW17850  13.091   4.677   3.673
 5318SOL    HW117851  13.183   4.650   3.669
 5318SOL    HW217852  13.069   4.700   3.583
 5319SOL     OW17853  11.347   4.698   4.988
 5319SOL    HW117854  11.399   4.622   4.963
 5319SOL    HW217855  11.388   4.771   4.942
 5320SOL     OW17856   2.378   8.807   5.918
 5320SOL    HW117857   2.408   8.815   5.828
 5320SOL    HW217858   2.446   8.848   5.970
 5321SOL     OW17859  13.953   4.259  11.680
 5321SOL    HW117860  13.916   4.171  11.683
 5321SOL    HW217861  13.970   4.275  11.587
 5322SOL     OW17862   9.637  10.264   6.983
 5322SOL    HW117863   9.660  10.234   6.896
 5322SOL    HW217864   9.582  10.341   6.969
 5323SOL     OW17865   0.523  10.974  14.348
 5323SOL    HW117866   0.606  11.021  14.344
 5323SOL    HW217867   0.542  10.890  14.307
 5324SOL     OW17868  14.201   8.976   3.717
 5324SOL    HW117869  14.182   9.052   3.662
 5324SOL    HW217870  14.275   8.933   3.674
 5325SOL     OW17871  12.687   9.651  11.732
 5325SOL    HW117872  12.687   9.612  11.645
 5325SOL    HW217873  12.779   9.676  11.747
 5326SOL     OW17874   8.950   1.832   9.694
 5326SOL    HW117875   9.014   1.798   9.756
 5326SOL    HW217876   8.909   1.905   9.739
 5327SOL     OW17877   6.292  12.653   7.684
 5327SOL    HW117878   6.305  12.748   7.683
 5327SOL    HW217879   6.360  12.619   7.625
 5328SOL     OW17880  10.066  13.595   0.527
 5328SOL    HW117881  10.147  13.590   0.476
 5328SOL    HW217882  10.004  13.540   0.479
 5329SOL     OW17883   5.161  14.702   2.634
 5329SOL    HW117884   5.237  14.665   2.588
 5329SOL    HW217885   5.107  14.740   2.565
 5330SOL     OW17886   0.589   3.437  10.855
 5330SOL    HW117887   0.567   3.471  10.769
 5330SOL    HW217888   0.603   3.344  10.842
 5331SOL     OW17889   6.498   5.378   8.591
 5331SOL    HW117890   6.425   5.316   8.595
 5331SOL    HW217891   6.462   5.455   8.547
 5332SOL     OW17892  11.402   4.178   3.226
 5332SOL    HW117893  11.441   4.263   3.210
 5332SOL    HW217894  11.464   4.133   3.283
 5333SOL     OW17895   5.578   5.115  12.481
 5333SOL    HW117896   5.602   5.188  12.537
 5333SOL    HW217897   5.628   5.129  12.401
 5334SOL     OW17898   9.548   9.843  13.557
 5334SOL    HW117899   9.535   9.850  13.652
 5334SOL    HW217900   9.641   9.862  13.543
 5335SOL     OW17901   8.111   1.531   6.982
 5335SOL    HW117902   8.074   1.514   6.895
 5335SOL    HW217903   8.071   1.613   7.010
 5336SOL     OW17904   8.021   8.651   1.322
 5336SOL    HW117905   8.051   8.719   1.262
 5336SOL    HW217906   7.951   8.606   1.274
 5337SOL     OW17907  11.740  12.030  10.217
 5337SOL    HW117908  11.736  11.939  10.188
 5337SOL    HW217909  11.733  12.025  10.312
 5338SOL     OW17910   7.497  13.978   0.813
 5338SOL    HW117911   7.560  13.969   0.742
 5338SOL    HW217912   7.418  14.013   0.771
 5339SOL     OW17913  12.731  12.286   2.902
 5339SOL    HW117914  12.750  12.293   2.996
 5339SOL    HW217915  12.651  12.235   2.897
 5340SOL     OW17916   5.232   0.901   9.409
 5340SOL    HW117917   5.202   0.991   9.419
 5340SOL    HW217918   5.212   0.859   9.492
 5341SOL     OW17919   3.833   3.793   1.706
 5341SOL    HW117920   3.813   3.748   1.624
 5341SOL    HW217921   3.791   3.879   1.697
 5342SOL     OW17922   6.157   7.990   4.358
 5342SOL    HW117923   6.064   8.013   4.354
 5342SOL    HW217924   6.158   7.905   4.402
 5343SOL     OW17925   7.483  14.192  10.975
 5343SOL    HW117926   7.498  14.245  10.897
 5343SOL    HW217927   7.570  14.176  11.011
 5344SOL     OW17928   7.478   2.011   5.363
 5344SOL    HW117929   7.402   1.967   5.325
 5344SOL    HW217930   7.440   2.084   5.412
 5345SOL     OW17931   8.423   5.723  11.600
 5345SOL    HW117932   8.427   5.718  11.695
 5345SOL    HW217933   8.341   5.679  11.577
 5346SOL     OW17934  13.284   5.484   2.173
 5346SOL    HW117935  13.301   5.547   2.243
 5346SOL    HW217936  13.363   5.429   2.171
 5347SOL     OW17937   0.333  10.956   3.207
 5347SOL    HW117938   0.298  11.045   3.206
 5347SOL    HW217939   0.282  10.912   3.275
 5348SOL     OW17940   1.982   4.833  13.442
 5348SOL    HW117941   2.066   4.787  13.437
 5348SOL    HW217942   2.000   4.909  13.497
 5349SOL     OW17943  10.066   4.476  14.057
 5349SOL    HW117944  10.095   4.404  14.001
 5349SOL    HW217945  10.078   4.444  14.146
 5350SOL     OW17946  12.876   4.802  12.189
 5350SOL    HW117947  12.804   4.765  12.138
 5350SOL    HW217948  12.847   4.794  12.280
 5351SOL     OW17949   9.031   8.252   3.112
 5351SOL    HW117950   9.124   8.232   3.101
 5351SOL    HW217951   9.010   8.224   3.201
 5352SOL     OW17952  13.287   6.755   6.842
 5352SOL    HW117953  13.347   6.826   6.822
 5352SOL    HW217954  13.251   6.729   6.757
 5353SOL     OW17955   6.711   0.608   7.843
 5353SOL    HW117956   6.697   0.538   7.780
 5353SOL    HW217957   6.716   0.564   7.927
 5354SOL     OW17958   5.819   8.776  10.351
 5354SOL    HW117959   5.741   8.733  10.316
 5354SOL    HW217960   5.888   8.709  10.346
 5355SOL     OW17961   5.058   2.881  11.027
 5355SOL    HW117962   5.073   2.798  10.983
 5355SOL    HW217963   5.092   2.947  10.967
 5356SOL     OW17964   6.298   4.470  14.870
 5356SOL    HW117965   6.255   4.407   0.046
 5356SOL    HW217966   6.226   4.505  14.817
 5357SOL     OW17967   4.925  13.940   0.569
 5357SOL    HW117968   4.888  13.989   0.496
 5357SOL    HW217969   4.910  13.848   0.546
 5358SOL     OW17970   2.505   3.029  12.930
 5358SOL    HW117971   2.480   3.119  12.954
 5358SOL    HW217972   2.591   3.017  12.969
 5359SOL     OW17973  13.255   9.882  13.151
 5359SOL    HW117974  13.237   9.791  13.127
 5359SOL    HW217975  13.194   9.900  13.222
 5360SOL     OW17976   8.649   5.172  13.889
 5360SOL    HW117977   8.733   5.132  13.864
 5360SOL    HW217978   8.625   5.227  13.814
 5361SOL     OW17979  14.502  12.740   6.308
 5361SOL    HW117980  14.584  12.696   6.330
 5361SOL    HW217981  14.497  12.813   6.370
 5362SOL     OW17982   1.145   8.907   5.333
 5362SOL    HW117983   1.080   8.978   5.334
 5362SOL    HW217984   1.219   8.942   5.383
 5363SOL     OW17985  14.682  12.563  14.204
 5363SOL    HW117986  14.608  12.566  14.144
 5363SOL    HW217987  14.693  12.470  14.224
 5364SOL     OW17988   7.031   4.581   9.191
 5364SOL    HW117989   7.053   4.669   9.220
 5364SOL    HW217990   7.043   4.582   9.097
 5365SOL     OW17991  13.771   9.628  13.705
 5365SOL    HW117992  13.842   9.574  13.739
 5365SOL    HW217993  13.782   9.712  13.748
 5366SOL     OW17994  10.949  10.768   7.409
 5366SOL    HW117995  10.976  10.720   7.487
 5366SOL    HW217996  10.989  10.855   7.419
 5367SOL     OW17997   9.168   9.299  14.047
 5367SOL    HW117998   9.091   9.243  14.041
 5367SOL    HW217999   9.133   9.387  14.062
 5368SOL     OW18000   9.461  13.858  12.436
 5368SOL    HW118001   9.365  13.859  12.433
 5368SOL    HW218002   9.482  13.802  12.511
 5369SOL     OW18003   2.842   3.178  10.162
 5369SOL    HW118004   2.893   3.260  10.163
 5369SOL    HW218005   2.820   3.166  10.069
 5370SOL     OW18006  10.709  10.992   9.285
 5370SOL    HW118007  10.744  11.078   9.308
 5370SOL    HW218008  10.660  11.007   9.203
 5371SOL     OW18009  14.589   8.908   5.951
 5371SOL    HW118010  14.629   8.919   5.865
 5371SOL    HW218011  14.556   8.995   5.974
 5372SOL     OW18012   4.886   2.507   3.077
 5372SOL    HW118013   4.940   2.442   3.032
 5372SOL    HW218014   4.835   2.548   3.007
 5373SOL     OW18015  13.533  10.960   4.242
 5373SOL    HW118016  13.491  11.011   4.173
 5373SOL    HW218017  13.472  10.888   4.259
 5374SOL     OW18018   7.421  12.246   1.920
 5374SOL    HW118019   7.418  12.172   1.981
 5374SOL    HW218020   7.347  12.230   1.861
 5375SOL     OW18021  14.261  13.428   1.662
 5375SOL    HW118022  14.288  13.390   1.746
 5375SOL    HW218023  14.340  13.471   1.629
 5376SOL     OW18024  14.768   2.861   1.114
 5376SOL    HW118025  14.675   2.839   1.105
 5376SOL    HW218026  14.788   2.844   1.206
 5377SOL     OW18027   7.620   1.221  14.115
 5377SOL    HW118028   7.643   1.155  14.180
 5377SOL    HW218029   7.689   1.214  14.048
 5378SOL     OW18030  11.748  11.989  11.568
 5378SOL    HW118031  11.686  12.059  11.588
 5378SOL    HW218032  11.693  11.910  11.561
 5379SOL     OW18033  10.381   9.117   6.079
 5379SOL    HW118034  10.327   9.064   6.020
 5379SOL    HW218035  10.466   9.073   6.079
 5380SOL     OW18036  14.523   8.804  11.883
 5380SOL    HW118037  14.569   8.827  11.802
 5380SOL    HW218038  14.506   8.711  11.875
 5381SOL     OW18039  11.741  14.773   5.973
 5381SOL    HW118040  11.792  14.704   6.015
 5381SOL    HW218041  11.802  14.812   5.909
 5382SOL     OW18042   7.553  12.237   0.518
 5382SOL    HW118043   7.493  12.246   0.591
 5382SOL    HW218044   7.500  12.254   0.440
 5383SOL     OW18045  12.218   7.341   4.217
 5383SOL    HW118046  12.183   7.410   4.273
 5383SOL    HW218047  12.160   7.340   4.141
 5384SOL     OW18048   7.986   9.933   4.373
 5384SOL    HW118049   8.062   9.989   4.385
 5384SOL    HW218050   7.953   9.916   4.461
 5385SOL     OW18051   1.763  14.796   3.471
 5385SOL    HW118052   1.769  14.790   3.567
 5385SOL    HW218053   1.699  14.866   3.455
 5386SOL     OW18054  11.855   5.177  13.626
 5386SOL    HW118055  11.903   5.171  13.708
 5386SOL    HW218056  11.772   5.217  13.649
 5387SOL     OW18057   3.312  10.547   9.096
 5387SOL    HW118058   3.280  10.593   9.018
 5387SOL    HW218059   3.386  10.600   9.126
 5388SOL     OW18060   1.877   7.312  10.799
 5388SOL    HW118061   1.853   7.352  10.716
 5388SOL    HW218062   1.922   7.381  10.848
 5389SOL     OW18063   5.342  11.881   4.107
 5389SOL    HW118064   5.382  11.954   4.058
 5389SOL    HW218065   5.412  11.849   4.164
 5390SOL     OW18066   7.367   0.837   4.947
 5390SOL    HW118067   7.410   0.911   4.906
 5390SOL    HW218068   7.303   0.876   5.007
 5391SOL     OW18069   8.297  13.913  12.680
 5391SOL    HW118070   8.337  13.873  12.757
 5391SOL    HW218071   8.284  13.839  12.620
 5392SOL     OW18072   3.300  12.034   2.255
 5392SOL    HW118073   3.345  11.956   2.224
 5392SOL    HW218074   3.207  12.011   2.252
 5393SOL     OW18075   9.708   7.476   4.831
 5393SOL    HW118076   9.733   7.520   4.912
 5393SOL    HW218077   9.615   7.454   4.844
 5394SOL     OW18078  10.041  12.469  12.512
 5394SOL    HW118079  10.024  12.449  12.420
 5394SOL    HW218080   9.960  12.510  12.543
 5395SOL     OW18081  14.403   1.461   8.975
 5395SOL    HW118082  14.370   1.530   9.033
 5395SOL    HW218083  14.465   1.505   8.918
 5396SOL     OW18084   7.706   3.197  11.475
 5396SOL    HW118085   7.656   3.276  11.452
 5396SOL    HW218086   7.741   3.216  11.562
 5397SOL     OW18087   3.907   2.546   6.342
 5397SOL    HW118088   3.867   2.633   6.337
 5397SOL    HW218089   3.967   2.551   6.416
 5398SOL     OW18090   0.368   3.950   0.193
 5398SOL    HW118091   0.276   3.974   0.203
 5398SOL    HW218092   0.366   3.864   0.150
 5399SOL     OW18093   9.808   2.843  10.199
 5399SOL    HW118094   9.787   2.885  10.115
 5399SOL    HW218095   9.893   2.803  10.185
 5400SOL     OW18096   8.678   6.663   4.385
 5400SOL    HW118097   8.748   6.727   4.372
 5400SOL    HW218098   8.695   6.595   4.321
 5401SOL     OW18099   6.424  10.211   5.337
 5401SOL    HW118100   6.498  10.223   5.398
 5401SOL    HW218101   6.346  10.221   5.392
 5402SOL     OW18102  13.257   9.137   7.323
 5402SOL    HW118103  13.167   9.160   7.344
 5402SOL    HW218104  13.291   9.215   7.278
 5403SOL     OW18105   2.582   2.752  11.144
 5403SOL    HW118106   2.625   2.798  11.072
 5403SOL    HW218107   2.538   2.677  11.102
 5404SOL     OW18108   5.970   1.334   8.563
 5404SOL    HW118109   6.010   1.285   8.491
 5404SOL    HW218110   5.889   1.287   8.581
 5405SOL     OW18111   1.784  14.878   5.732
 5405SOL    HW118112   1.735   0.020   5.810
 5405SOL    HW218113   1.874  14.862   5.763
 5406SOL     OW18114   4.818   6.514  13.200
 5406SOL    HW118115   4.781   6.428  13.177
 5406SOL    HW218116   4.864   6.541  13.121
 5407SOL     OW18117   6.668  11.180   4.550
 5407SOL    HW118118   6.695  11.266   4.583
 5407SOL    HW218119   6.688  11.183   4.457
 5408SOL     OW18120   3.827   4.334  11.477
 5408SOL    HW118121   3.743   4.337  11.432
 5408SOL    HW218122   3.861   4.246  11.461
 5409SOL     OW18123   7.403   8.923   4.982
 5409SOL    HW118124   7.470   8.884   5.039
 5409SOL    HW218125   7.345   8.851   4.960
 5410SOL     OW18126   9.500   0.431  12.834
 5410SOL    HW118127   9.500   0.336  12.846
 5410SOL    HW218128   9.408   0.452  12.816
 5411SOL     OW18129   9.763  14.238   2.701
 5411SOL    HW118130   9.849  14.244   2.743
 5411SOL    HW218131   9.735  14.147   2.717
 5412SOL     OW18132   9.177  11.933   8.688
 5412SOL    HW118133   9.152  11.844   8.715
 5412SOL    HW218134   9.124  11.951   8.610
 5413SOL     OW18135   5.637   3.679   4.594
 5413SOL    HW118136   5.686   3.691   4.675
 5413SOL    HW218137   5.678   3.602   4.553
 5414SOL     OW18138  11.603  12.922  11.847
 5414SOL    HW118139  11.549  12.900  11.771
 5414SOL    HW218140  11.558  12.997  11.886
 5415SOL     OW18141   0.859  10.726   0.092
 5415SOL    HW118142   0.909  10.649   0.064
 5415SOL    HW218143   0.925  10.785   0.128
 5416SOL     OW18144  10.918   1.938  12.540
 5416SOL    HW118145  10.915   1.845  12.520
 5416SOL    HW218146  10.963   1.943  12.625
 5417SOL     OW18147  14.478  13.654  10.944
 5417SOL    HW118148  14.477  13.588  10.875
 5417SOL    HW218149  14.565  13.693  10.939
 5418SOL     OW18150   2.557   8.444  10.320
 5418SOL    HW118151   2.626   8.377  10.326
 5418SOL    HW218152   2.572   8.485  10.235
 5419SOL     OW18153   5.086   6.758   9.358
 5419SOL    HW118154   5.110   6.850   9.370
 5419SOL    HW218155   5.035   6.736   9.435
 5420SOL     OW18156  13.735   3.495  13.099
 5420SOL    HW118157  13.795   3.482  13.026
 5420SOL    HW218158  13.789   3.534  13.168
 5421SOL     OW18159   7.627  14.043  12.717
 5421SOL    HW118160   7.654  13.965  12.766
 5421SOL    HW218161   7.536  14.058  12.744
 5422SOL     OW18162   5.707   5.857   4.449
 5422SOL    HW118163   5.700   5.762   4.442
 5422SOL    HW218164   5.650   5.891   4.380
 5423SOL     OW18165   7.892  11.148  10.705
 5423SOL    HW118166   7.822  11.168  10.766
 5423SOL    HW218167   7.857  11.077  10.650
 5424SOL     OW18168  12.442   8.206   7.780
 5424SOL    HW118169  12.409   8.212   7.870
 5424SOL    HW218170  12.391   8.136   7.740
 5425SOL     OW18171   0.851   5.496  10.445
 5425SOL    HW118172   0.792   5.567  10.419
 5425SOL    HW218173   0.877   5.516  10.534
 5426SOL     OW18174  11.289   4.530   3.030
 5426SOL    HW118175  11.371   4.577   3.046
 5426SOL    HW218176  11.249   4.578   2.958
 5427SOL     OW18177  12.998   6.606  12.862
 5427SOL    HW118178  13.007   6.682  12.920
 5427SOL    HW218179  13.043   6.632  12.782
 5428SOL     OW18180  11.150  10.722   5.188
 5428SOL    HW118181  11.170  10.745   5.097
 5428SOL    HW218182  11.059  10.692   5.186
 5429SOL     OW18183  13.041  10.347   6.660
 5429SOL    HW118184  13.068  10.323   6.749
 5429SOL    HW218185  12.969  10.288   6.640
 5430SOL     OW18186  14.450   5.653   1.099
 5430SOL    HW118187  14.402   5.722   1.143
 5430SOL    HW218188  14.440   5.671   1.006
 5431SOL     OW18189   1.354  13.143  10.116
 5431SOL    HW118190   1.447  13.165  10.110
 5431SOL    HW218191   1.316  13.175  10.034
 5432SOL     OW18192   7.931  13.405   7.053
 5432SOL    HW118193   7.920  13.500   7.048
 5432SOL    HW218194   7.885  13.380   7.133
 5433SOL     OW18195   9.169   6.024   6.844
 5433SOL    HW118196   9.080   6.054   6.824
 5433SOL    HW218197   9.181   6.046   6.937
 5434SOL     OW18198   2.739   6.159   3.546
 5434SOL    HW118199   2.709   6.073   3.516
 5434SOL    HW218200   2.761   6.146   3.638
 5435SOL     OW18201   2.134   2.554  10.875
 5435SOL    HW118202   2.060   2.606  10.907
 5435SOL    HW218203   2.094   2.478  10.834
 5436SOL     OW18204   6.504  12.548   9.169
 5436SOL    HW118205   6.459  12.481   9.119
 5436SOL    HW218206   6.597  12.524   9.164
 5437SOL     OW18207   5.870   2.191   0.482
 5437SOL    HW118208   5.873   2.232   0.568
 5437SOL    HW218209   5.787   2.143   0.481
 5438SOL     OW18210  14.498  11.759   1.385
 5438SOL    HW118211  14.426  11.724   1.437
 5438SOL    HW218212  14.491  11.854   1.397
 5439SOL     OW18213   9.689  13.665  14.681
 5439SOL    HW118214   9.719  13.755  14.670
 5439SOL    HW218215   9.706  13.624  14.596
 5440SOL     OW18216   4.709  12.207   8.730
 5440SOL    HW118217   4.622  12.230   8.699
 5440SOL    HW218218   4.716  12.247   8.816
 5441SOL     OW18219  14.239   4.037   2.047
 5441SOL    HW118220  14.144   4.048   2.050
 5441SOL    HW218221  14.272   4.123   2.020
 5442SOL     OW18222   0.629  12.028  13.386
 5442SOL    HW118223   0.646  12.056  13.475
 5442SOL    HW218224   0.633  12.108  13.333
 5443SOL     OW18225   5.728  13.151  10.373
 5443SOL    HW118226   5.774  13.067  10.365
 5443SOL    HW218227   5.731  13.172  10.466
 5444SOL     OW18228   5.164  13.245   6.373
 5444SOL    HW118229   5.085  13.298   6.360
 5444SOL    HW218230   5.149  13.166   6.321
 5445SOL     OW18231  11.283  12.225   6.681
 5445SOL    HW118232  11.305  12.299   6.737
 5445SOL    HW218233  11.191  12.206   6.702
 5446SOL     OW18234   9.359   1.102  13.636
 5446SOL    HW118235   9.276   1.066  13.668
 5446SOL    HW218236   9.363   1.190  13.671
 5447SOL     OW18237  12.457   1.226   5.779
 5447SOL    HW118238  12.476   1.212   5.686
 5447SOL    HW218239  12.388   1.163   5.799
 5448SOL     OW18240   2.000  13.533   8.752
 5448SOL    HW118241   2.076  13.588   8.771
 5448SOL    HW218242   2.020  13.492   8.668
 5449SOL     OW18243   9.204   7.519   0.877
 5449SOL    HW118244   9.222   7.486   0.965
 5449SOL    HW218245   9.179   7.611   0.891
 5450SOL     OW18246   0.892   0.127   3.575
 5450SOL    HW118247   0.914   0.119   3.668
 5450SOL    HW218248   0.974   0.152   3.533
 5451SOL     OW18249   1.326   7.092   3.162
 5451SOL    HW118250   1.379   7.028   3.210
 5451SOL    HW218251   1.306   7.048   3.079
 5452SOL     OW18252   7.931   4.856  11.092
 5452SOL    HW118253   8.014   4.811  11.076
 5452SOL    HW218254   7.953   4.925  11.155
 5453SOL     OW18255  12.260  10.954   0.411
 5453SOL    HW118256  12.351  10.950   0.438
 5453SOL    HW218257  12.211  10.953   0.493
 5454SOL     OW18258   6.864   1.234   7.393
 5454SOL    HW118259   6.872   1.149   7.348
 5454SOL    HW218260   6.898   1.297   7.331
 5455SOL     OW18261   1.391   3.278   8.067
 5455SOL    HW118262   1.418   3.323   7.987
 5455SOL    HW218263   1.465   3.288   8.127
 5456SOL     OW18264  10.033   5.927   9.309
 5456SOL    HW118265  10.023   5.985   9.384
 5456SOL    HW218266  10.010   5.840   9.343
 5457SOL     OW18267  14.295   9.224  14.881
 5457SOL    HW118268  14.376   9.236   0.047
 5457SOL    HW218269  14.246   9.305   0.011
 5458SOL     OW18270  10.031   2.245  13.338
 5458SOL    HW118271  10.084   2.308  13.289
 5458SOL    HW218272  10.091   2.206  13.401
 5459SOL     OW18273   5.837  14.739   9.455
 5459SOL    HW118274   5.782  14.760   9.379
 5459SOL    HW218275   5.778  14.693   9.515
 5460SOL     OW18276   3.875   7.588   5.593
 5460SOL    HW118277   3.940   7.521   5.568
 5460SOL    HW218278   3.913   7.631   5.669
 5461SOL     OW18279  10.679   8.938  13.824
 5461SOL    HW118280  10.585   8.958  13.829
 5461SOL    HW218281  10.721   9.024  13.819
 5462SOL     OW18282   7.689   8.520  14.711
 5462SOL    HW118283   7.702   8.427  14.692
 5462SOL    HW218284   7.672   8.560  14.626
 5463SOL     OW18285   4.295   9.667   2.708
 5463SOL    HW118286   4.337   9.731   2.651
 5463SOL    HW218287   4.259   9.718   2.780
 5464SOL     OW18288   0.160   2.878  10.624
 5464SOL    HW118289   0.139   2.872  10.531
 5464SOL    HW218290   0.244   2.924  10.627
 5465SOL     OW18291   0.998   3.718   7.691
 5465SOL    HW118292   0.928   3.740   7.754
 5465SOL    HW218293   1.066   3.677   7.745
 5466SOL     OW18294  10.185  13.692  10.316
 5466SOL    HW118295  10.094  13.670  10.338
 5466SOL    HW218296  10.231  13.608  10.316
 5467SOL     OW18297   2.885  11.950   9.100
 5467SOL    HW118298   2.798  11.926   9.132
 5467SOL    HW218299   2.944  11.887   9.142
 5468SOL     OW18300  13.268   2.585   0.746
 5468SOL    HW118301  13.246   2.607   0.656
 5468SOL    HW218302  13.184   2.563   0.787
 5469SOL     OW18303   7.863   6.175   4.760
 5469SOL    HW118304   7.829   6.093   4.795
 5469SOL    HW218305   7.920   6.149   4.688
 5470SOL     OW18306   8.009   4.123  13.690
 5470SOL    HW118307   8.006   4.162  13.602
 5470SOL    HW218308   7.917   4.109  13.713
 5471SOL     OW18309   3.985   0.409   3.670
 5471SOL    HW118310   4.004   0.378   3.581
 5471SOL    HW218311   3.922   0.346   3.704
 5472SOL     OW18312   9.237   1.827   4.855
 5472SOL    HW118313   9.188   1.769   4.914
 5472SOL    HW218314   9.171   1.857   4.792
 5473SOL     OW18315  10.634   9.186   2.544
 5473SOL    HW118316  10.627   9.107   2.597
 5473SOL    HW218317  10.671   9.156   2.461
 5474SOL     OW18318   9.034   2.086   1.961
 5474SOL    HW118319   9.041   2.153   2.029
 5474SOL    HW218320   9.063   2.006   2.004
 5475SOL     OW18321   0.490  13.502   5.386
 5475SOL    HW118322   0.416  13.447   5.359
 5475SOL    HW218323   0.480  13.583   5.337
 5476SOL     OW18324  10.776   4.324   2.733
 5476SOL    HW118325  10.835   4.294   2.663
 5476SOL    HW218326  10.828   4.317   2.812
 5477SOL     OW18327  13.659   6.700   7.259
 5477SOL    HW118328  13.570   6.703   7.295
 5477SOL    HW218329  13.713   6.741   7.327
 5478SOL     OW18330   7.668  11.666  12.409
 5478SOL    HW118331   7.590  11.684  12.461
 5478SOL    HW218332   7.692  11.576  12.431
 5479SOL     OW18333   3.447   9.236  13.936
 5479SOL    HW118334   3.509   9.207  14.003
 5479SOL    HW218335   3.486   9.315  13.899
 5480SOL     OW18336  12.713   5.414   9.367
 5480SOL    HW118337  12.805   5.395   9.386
 5480SOL    HW218338  12.716   5.483   9.301
 5481SOL     OW18339  11.772  13.816  11.324
 5481SOL    HW118340  11.677  13.825  11.334
 5481SOL    HW218341  11.784  13.796  11.231
 5482SOL     OW18342  12.987  11.026  11.273
 5482SOL    HW118343  12.935  11.061  11.346
 5482SOL    HW218344  13.073  11.068  11.283
 5483SOL     OW18345   4.417  10.894  10.472
 5483SOL    HW118346   4.496  10.852  10.436
 5483SOL    HW218347   4.446  10.931  10.555
 5484SOL     OW18348  10.948  12.716  10.364
 5484SOL    HW118349  10.913  12.648  10.422
 5484SOL    HW218350  10.914  12.692  10.277
 5485SOL     OW18351  10.957   2.564   4.568
 5485SOL    HW118352  10.911   2.588   4.647
 5485SOL    HW218353  10.946   2.639   4.509
 5486SOL     OW18354   1.293   1.850  10.877
 5486SOL    HW118355   1.369   1.893  10.838
 5486SOL    HW218356   1.312   1.756  10.869
 5487SOL     OW18357  12.612   7.300  12.926
 5487SOL    HW118358  12.624   7.385  12.968
 5487SOL    HW218359  12.625   7.318  12.833
 5488SOL     OW18360  13.185  12.699   5.258
 5488SOL    HW118361  13.253  12.666   5.317
 5488SOL    HW218362  13.226  12.774   5.214
 5489SOL     OW18363  10.922   1.010   3.779
 5489SOL    HW118364  10.905   1.065   3.855
 5489SOL    HW218365  10.875   0.928   3.798
 5490SOL     OW18366   6.903   0.406   3.045
 5490SOL    HW118367   6.826   0.454   3.014
 5490SOL    HW218368   6.976   0.465   3.032
 5491SOL     OW18369  11.683   0.840  12.884
 5491SOL    HW118370  11.759   0.897  12.874
 5491SOL    HW218371  11.643   0.868  12.967
 5492SOL     OW18372   8.368  12.110   0.458
 5492SOL    HW118373   8.366  12.033   0.515
 5492SOL    HW218374   8.423  12.084   0.384
 5493SOL     OW18375   2.522   7.566  10.393
 5493SOL    HW118376   2.544   7.479  10.425
 5493SOL    HW218377   2.596   7.590  10.336
 5494SOL     OW18378   4.603   9.021   0.587
 5494SOL    HW118379   4.673   9.056   0.642
 5494SOL    HW218380   4.553   9.098   0.559
 5495SOL     OW18381   4.856   0.557   5.399
 5495SOL    HW118382   4.786   0.581   5.339
 5495SOL    HW218383   4.932   0.605   5.368
 5496SOL     OW18384   0.425   5.097   9.855
 5496SOL    HW118385   0.385   5.056   9.779
 5496SOL    HW218386   0.360   5.090   9.924
 5497SOL     OW18387   2.240  10.895   4.890
 5497SOL    HW118388   2.188  10.816   4.880
 5497SOL    HW218389   2.179  10.967   4.877
 5498SOL     OW18390   6.766  13.000   1.850
 5498SOL    HW118391   6.771  12.924   1.908
 5498SOL    HW218392   6.830  12.982   1.781
 5499SOL     OW18393   1.897   7.685   9.750
 5499SOL    HW118394   1.960   7.650   9.687
 5499SOL    HW218395   1.830   7.727   9.695
 5500SOL     OW18396  13.357  13.434  14.654
 5500SOL    HW118397  13.318  13.459  14.738
 5500SOL    HW218398  13.322  13.347  14.635
 5501SOL     OW18399   9.435   2.151   2.053
 5501SOL    HW118400   9.530   2.137   2.047
 5501SOL    HW218401   9.408   2.097   2.128
 5502SOL     OW18402   0.480   5.800  10.517
 5502SOL    HW118403   0.391   5.787  10.485
 5502SOL    HW218404   0.494   5.728  10.580
 5503SOL     OW18405   4.199   5.399  11.801
 5503SOL    HW118406   4.227   5.312  11.829
 5503SOL    HW218407   4.172   5.387  11.710
 5504SOL     OW18408   1.560   7.466   5.535
 5504SOL    HW118409   1.532   7.517   5.459
 5504SOL    HW218410   1.653   7.488   5.546
 5505SOL     OW18411  14.743   8.237   1.381
 5505SOL    HW118412  14.716   8.316   1.428
 5505SOL    HW218413  14.663   8.184   1.376
 5506SOL     OW18414  10.055   0.641  12.492
 5506SOL    HW118415  10.090   0.553  12.480
 5506SOL    HW218416   9.961   0.628  12.504
 5507SOL     OW18417   9.486  14.223   8.746
 5507SOL    HW118418   9.564  14.277   8.751
 5507SOL    HW218419   9.423  14.277   8.698
 5508SOL     OW18420   4.837   1.799  11.622
 5508SOL    HW118421   4.890   1.861  11.572
 5508SOL    HW218422   4.748   1.812  11.589
 5509SOL     OW18423  12.772   0.597   1.604
 5509SOL    HW118424  12.858   0.585   1.564
 5509SOL    HW218425  12.778   0.681   1.650
 5510SOL     OW18426   3.779   6.097  11.315
 5510SOL    HW118427   3.861   6.057  11.345
 5510SOL    HW218428   3.789   6.190  11.336
 5511SOL     OW18429  12.418  14.535   6.059
 5511SOL    HW118430  12.395  14.443   6.048
 5511SOL    HW218431  12.501  14.534   6.107
 5512SOL     OW18432  11.854  10.391  12.919
 5512SOL    HW118433  11.858  10.367  12.826
 5512SOL    HW218434  11.780  10.450  12.925
 5513SOL     OW18435   0.018  13.326   4.093
 5513SOL    HW118436  14.868  13.306   4.006
 5513SOL    HW218437   0.083  13.395   4.080
 5514SOL     OW18438  13.785   9.903   9.828
 5514SOL    HW118439  13.750   9.821   9.793
 5514SOL    HW218440  13.803   9.884   9.920
 5515SOL     OW18441  12.372  13.718  10.641
 5515SOL    HW118442  12.464  13.704  10.617
 5515SOL    HW218443  12.367  13.688  10.732
 5516SOL     OW18444  13.108   1.431  11.309
 5516SOL    HW118445  13.073   1.457  11.224
 5516SOL    HW218446  13.120   1.336  11.303
 5517SOL     OW18447   7.356  13.001   7.799
 5517SOL    HW118448   7.313  12.953   7.869
 5517SOL    HW218449   7.315  13.087   7.799
 5518SOL     OW18450  12.130   1.622   3.425
 5518SOL    HW118451  12.090   1.676   3.492
 5518SOL    HW218452  12.148   1.682   3.353
 5519SOL     OW18453   8.708   9.903  11.790
 5519SOL    HW118454   8.771   9.834  11.767
 5519SOL    HW218455   8.638   9.857  11.837
 5520SOL     OW18456  13.559   0.707   1.539
 5520SOL    HW118457  13.507   0.629   1.559
 5520SOL    HW218458  13.532   0.771   1.606
 5521SOL     OW18459  12.163  12.746   0.686
 5521SOL    HW118460  12.108  12.682   0.642
 5521SOL    HW218461  12.138  12.739   0.779
 5522SOL     OW18462   5.737   8.112   9.966
 5522SOL    HW118463   5.704   8.119   9.876
 5522SOL    HW218464   5.819   8.162   9.965
 5523SOL     OW18465   0.286   5.098   3.424
 5523SOL    HW118466   0.376   5.080   3.398
 5523SOL    HW218467   0.286   5.191   3.446
 5524SOL     OW18468   3.314   0.634  12.772
 5524SOL    HW118469   3.256   0.711  12.770
 5524SOL    HW218470   3.398   0.669  12.801
 5525SOL     OW18471  11.231   2.763   5.555
 5525SOL    HW118472  11.298   2.705   5.521
 5525SOL    HW218473  11.266   2.792   5.639
 5526SOL     OW18474  11.650   2.313   4.373
 5526SOL    HW118475  11.643   2.217   4.367
 5526SOL    HW218476  11.592   2.337   4.445
 5527SOL     OW18477   1.632   9.278  11.272
 5527SOL    HW118478   1.563   9.218  11.245
 5527SOL    HW218479   1.586   9.356  11.304
 5528SOL     OW18480   9.516   2.138  12.474
 5528SOL    HW118481   9.475   2.059  12.438
 5528SOL    HW218482   9.609   2.114  12.484
 5529SOL     OW18483  10.407   8.228   5.484
 5529SOL    HW118484  10.350   8.244   5.408
 5529SOL    HW218485  10.492   8.265   5.458
 5530SOL     OW18486   0.805   9.874   1.838
 5530SOL    HW118487   0.836   9.893   1.749
 5530SOL    HW218488   0.760   9.954   1.865
 5531SOL     OW18489   8.875   2.761   0.945
 5531SOL    HW118490   8.813   2.723   0.883
 5531SOL    HW218491   8.822   2.818   1.001
 5532SOL     OW18492   4.936   2.523   6.391
 5532SOL    HW118493   4.953   2.495   6.302
 5532SOL    HW218494   4.847   2.490   6.410
 5533SOL     OW18495   1.904  13.080  12.387
 5533SOL    HW118496   1.950  13.072  12.470
 5533SOL    HW218497   1.911  13.172  12.364
 5534SOL     OW18498   5.530  14.269  12.695
 5534SOL    HW118499   5.625  14.273  12.693
 5534SOL    HW218500   5.510  14.214  12.771
 5535SOL     OW18501   6.294   9.514   1.804
 5535SOL    HW118502   6.277   9.511   1.710
 5535SOL    HW218503   6.305   9.607   1.824
 5536SOL     OW18504  11.627   9.219   2.295
 5536SOL    HW118505  11.639   9.261   2.210
 5536SOL    HW218506  11.532   9.218   2.308
 5537SOL     OW18507   8.114   2.045   1.960
 5537SOL    HW118508   8.194   2.082   1.923
 5537SOL    HW218509   8.104   2.088   2.045
 5538SOL     OW18510   0.092  13.563  12.396
 5538SOL    HW118511   0.095  13.636  12.334
 5538SOL    HW218512   0.064  13.488  12.343
 5539SOL     OW18513  13.186   5.386   4.886
 5539SOL    HW118514  13.095   5.411   4.875
 5539SOL    HW218515  13.185   5.290   4.885
 5540SOL     OW18516   2.426   3.429   5.791
 5540SOL    HW118517   2.429   3.360   5.724
 5540SOL    HW218518   2.361   3.398   5.854
 5541SOL     OW18519  10.556   5.148  11.608
 5541SOL    HW118520  10.639   5.101  11.605
 5541SOL    HW218521  10.528   5.151  11.517
 5542SOL     OW18522   1.113   3.728   5.227
 5542SOL    HW118523   1.112   3.796   5.294
 5542SOL    HW218524   1.123   3.775   5.144
 5543SOL     OW18525  11.865  12.253   7.148
 5543SOL    HW118526  11.846  12.198   7.072
 5543SOL    HW218527  11.949  12.221   7.181
 5544SOL     OW18528   0.157   3.926   3.001
 5544SOL    HW118529   0.243   3.960   2.979
 5544SOL    HW218530   0.158   3.917   3.096
 5545SOL     OW18531   8.023   1.803  12.450
 5545SOL    HW118532   7.978   1.738  12.395
 5545SOL    HW218533   8.098   1.756  12.486
 5546SOL     OW18534   5.470   6.188   9.749
 5546SOL    HW118535   5.446   6.148   9.665
 5546SOL    HW218536   5.387   6.217   9.786
 5547SOL     OW18537   2.184  13.946   1.570
 5547SOL    HW118538   2.216  13.919   1.484
 5547SOL    HW218539   2.094  13.976   1.554
 5548SOL     OW18540   7.567   5.588  11.514
 5548SOL    HW118541   7.612   5.511  11.478
 5548SOL    HW218542   7.621   5.615  11.588
 5549SOL     OW18543   2.982  10.070  10.656
 5549SOL    HW118544   2.960   9.998  10.715
 5549SOL    HW218545   3.029  10.133  10.711
 5550SOL     OW18546   4.551   3.797  11.113
 5550SOL    HW118547   4.463   3.802  11.149
 5550SOL    HW218548   4.540   3.815  11.020
 5551SOL     OW18549   2.933  10.534   6.375
 5551SOL    HW118550   2.996  10.516   6.445
 5551SOL    HW218551   2.857  10.571   6.420
 5552SOL     OW18552   4.048  10.842   1.410
 5552SOL    HW118553   4.106  10.801   1.474
 5552SOL    HW218554   4.079  10.932   1.403
 5553SOL     OW18555  11.804  12.562  13.401
 5553SOL    HW118556  11.895  12.590  13.412
 5553SOL    HW218557  11.765  12.572  13.487
 5554SOL     OW18558   9.411  14.013   1.110
 5554SOL    HW118559   9.411  13.936   1.054
 5554SOL    HW218560   9.324  14.052   1.099
 5555SOL     OW18561   2.820  13.406  14.035
 5555SOL    HW118562   2.748  13.381  14.092
 5555SOL    HW218563   2.808  13.353  13.956
 5556SOL     OW18564   2.357   8.007   5.877
 5556SOL    HW118565   2.334   8.062   5.952
 5556SOL    HW218566   2.273   7.976   5.843
 5557SOL     OW18567   8.522   6.109   6.658
 5557SOL    HW118568   8.563   6.072   6.735
 5557SOL    HW218569   8.537   6.044   6.589
 5558SOL     OW18570   9.350   6.216   7.007
 5558SOL    HW118571   9.342   6.307   7.035
 5558SOL    HW218572   9.354   6.166   7.089
 5559SOL     OW18573   7.333   7.580   9.614
 5559SOL    HW118574   7.249   7.556   9.575
 5559SOL    HW218575   7.395   7.579   9.542
 5560SOL     OW18576   8.993   2.457   6.975
 5560SOL    HW118577   8.950   2.520   6.918
 5560SOL    HW218578   8.975   2.489   7.064
 5561SOL     OW18579   7.341   7.611   9.101
 5561SOL    HW118580   7.296   7.535   9.138
 5561SOL    HW218581   7.360   7.586   9.010
 5562SOL     OW18582   9.046  13.541   5.874
 5562SOL    HW118583   8.995  13.475   5.922
 5562SOL    HW218584   9.037  13.621   5.925
 5563SOL     OW18585   6.148   2.707   2.495
 5563SOL    HW118586   6.190   2.736   2.414
 5563SOL    HW218587   6.055   2.699   2.472
 5564SOL     OW18588   0.190   2.608  10.648
 5564SOL    HW118589   0.260   2.588  10.585
 5564SOL    HW218590   0.172   2.701  10.635
 5565SOL     OW18591   4.575   1.310  11.712
 5565SOL    HW118592   4.508   1.260  11.664
 5565SOL    HW218593   4.557   1.401  11.690
 5566SOL     OW18594   3.936   8.120   9.215
 5566SOL    HW118595   3.885   8.198   9.193
 5566SOL    HW218596   3.984   8.143   9.294
 5567SOL     OW18597  14.705  12.680  14.464
 5567SOL    HW118598  14.685  12.773  14.456
 5567SOL    HW218599  14.718  12.650  14.374
 5568SOL     OW18600   1.471   8.977   7.705
 5568SOL    HW118601   1.539   8.988   7.772
 5568SOL    HW218602   1.494   9.040   7.637
 5569SOL     OW18603   6.013  12.710   0.127
 5569SOL    HW118604   6.068  12.722   0.204
 5569SOL    HW218605   6.074  12.681   0.059
 5570SOL     OW18606   5.912  10.858   1.583
 5570SOL    HW118607   5.945  10.934   1.631
 5570SOL    HW218608   5.964  10.785   1.616
 5571SOL     OW18609  12.326   2.753   1.848
 5571SOL    HW118610  12.301   2.703   1.770
 5571SOL    HW218611  12.258   2.733   1.912
 5572SOL     OW18612   4.774   9.811  12.132
 5572SOL    HW118613   4.857   9.789  12.090
 5572SOL    HW218614   4.750   9.733  12.181
 5573SOL     OW18615   6.600   7.287   2.136
 5573SOL    HW118616   6.626   7.265   2.047
 5573SOL    HW218617   6.547   7.213   2.165
 5574SOL     OW18618  10.757   4.340  11.549
 5574SOL    HW118619  10.725   4.411  11.604
 5574SOL    HW218620  10.704   4.264  11.575
 5575SOL     OW18621   3.285  12.797   1.804
 5575SOL    HW118622   3.285  12.875   1.750
 5575SOL    HW218623   3.363  12.749   1.778
 5576SOL     OW18624   0.517   8.161  13.661
 5576SOL    HW118625   0.467   8.094  13.708
 5576SOL    HW218626   0.599   8.167  13.709
 5577SOL     OW18627   3.193  12.594   2.110
 5577SOL    HW118628   3.252  12.631   2.176
 5577SOL    HW218629   3.137  12.667   2.084
 5578SOL     OW18630   4.726   8.776   8.099
 5578SOL    HW118631   4.775   8.747   8.022
 5578SOL    HW218632   4.761   8.722   8.171
 5579SOL     OW18633  12.027   1.642   5.495
 5579SOL    HW118634  11.952   1.700   5.511
 5579SOL    HW218635  12.000   1.558   5.534
 5580SOL     OW18636   2.889   4.790  12.933
 5580SOL    HW118637   2.824   4.813  12.999
 5580SOL    HW218638   2.968   4.838  12.959
 5581SOL     OW18639   8.153   5.343   2.194
 5581SOL    HW118640   8.165   5.434   2.222
 5581SOL    HW218641   8.063   5.340   2.161
 5582SOL     OW18642   5.601   5.989   7.644
 5582SOL    HW118643   5.612   5.900   7.610
 5582SOL    HW218644   5.675   6.001   7.703
 5583SOL     OW18645   7.754   6.118   2.952
 5583SOL    HW118646   7.820   6.137   3.018
 5583SOL    HW218647   7.725   6.029   2.970
 5584SOL     OW18648   3.347  10.101  13.858
 5584SOL    HW118649   3.378  10.026  13.809
 5584SOL    HW218650   3.251  10.097  13.851
 5585SOL     OW18651   8.555  12.736   6.554
 5585SOL    HW118652   8.541  12.791   6.631
 5585SOL    HW218653   8.650  12.733   6.544
 5586SOL     OW18654   9.295   2.053   5.482
 5586SOL    HW118655   9.256   2.136   5.508
 5586SOL    HW218656   9.369   2.077   5.427
 5587SOL     OW18657   6.198   5.457  13.556
 5587SOL    HW118658   6.267   5.506  13.602
 5587SOL    HW218659   6.121   5.466  13.612
 5588SOL     OW18660  13.524   4.231  12.255
 5588SOL    HW118661  13.580   4.154  12.263
 5588SOL    HW218662  13.516   4.245  12.161
 5589SOL     OW18663   2.825   3.002   2.979
 5589SOL    HW118664   2.752   3.022   2.922
 5589SOL    HW218665   2.900   2.993   2.920
 5590SOL     OW18666  11.267  11.766   1.172
 5590SOL    HW118667  11.210  11.838   1.200
 5590SOL    HW218668  11.333  11.758   1.241
 5591SOL     OW18669   9.280   5.431  10.064
 5591SOL    HW118670   9.282   5.472  10.151
 5591SOL    HW218671   9.371   5.408  10.045
 5592SOL     OW18672  11.818   0.688   2.878
 5592SOL    HW118673  11.914   0.690   2.881
 5592SOL    HW218674  11.797   0.635   2.801
 5593SOL     OW18675  14.444   7.568   0.042
 5593SOL    HW118676  14.359   7.551   0.084
 5593SOL    HW218677  14.424   7.629  14.854
 5594SOL     OW18678   6.452  13.168  12.119
 5594SOL    HW118679   6.459  13.075  12.095
 5594SOL    HW218680   6.522  13.211  12.071
 5595SOL     OW18681   8.997   2.576   4.201
 5595SOL    HW118682   8.930   2.610   4.142
 5595SOL    HW218683   8.948   2.535   4.272
 5596SOL     OW18684  11.028   5.918   8.444
 5596SOL    HW118685  11.020   5.939   8.351
 5596SOL    HW218686  11.110   5.958   8.471
 5597SOL     OW18687   1.263   2.999  13.170
 5597SOL    HW118688   1.341   3.051  13.150
 5597SOL    HW218689   1.289   2.909  13.150
 5598SOL     OW18690   2.789   1.283  14.700
 5598SOL    HW118691   2.794   1.192  14.727
 5598SOL    HW218692   2.876   1.304  14.666
 5599SOL     OW18693  13.532   4.341   3.901
 5599SOL    HW118694  13.436   4.338   3.902
 5599SOL    HW218695  13.555   4.331   3.809
 5600SOL     OW18696   9.480  12.699   3.438
 5600SOL    HW118697   9.441  12.663   3.518
 5600SOL    HW218698   9.524  12.624   3.397
 5601SOL     OW18699   2.391   6.658  12.169
 5601SOL    HW118700   2.320   6.717  12.145
 5601SOL    HW218701   2.395   6.662  12.264
 5602SOL     OW18702  13.403   4.836   0.674
 5602SOL    HW118703  13.318   4.863   0.640
 5602SOL    HW218704  13.397   4.741   0.681
 5603SOL     OW18705  10.121   2.441  11.862
 5603SOL    HW118706  10.030   2.410  11.866
 5603SOL    HW218707  10.168   2.384  11.923
 5604SOL     OW18708  10.370  12.224  12.342
 5604SOL    HW118709  10.450  12.249  12.390
 5604SOL    HW218710  10.344  12.303  12.295
 5605SOL     OW18711  13.194  10.875   4.648
 5605SOL    HW118712  13.180  10.800   4.706
 5605SOL    HW218713  13.277  10.913   4.676
 5606SOL     OW18714  14.781  13.773  11.225
 5606SOL    HW118715  14.690  13.783  11.253
 5606SOL    HW218716  14.777  13.714  11.150
 5607SOL     OW18717  14.627   6.299   4.692
 5607SOL    HW118718  14.533   6.305   4.675
 5607SOL    HW218719  14.640   6.350   4.771
 5608SOL     OW18720  13.954  10.419   0.865
 5608SOL    HW118721  13.994  10.393   0.948
 5608SOL    HW218722  13.874  10.367   0.860
 5609SOL     OW18723  14.332   6.510   0.398
 5609SOL    HW118724  14.240   6.488   0.389
 5609SOL    HW218725  14.334   6.581   0.462
 5610SOL     OW18726  13.540   3.747   7.660
 5610SOL    HW118727  13.508   3.702   7.738
 5610SOL    HW218728  13.502   3.698   7.587
 5611SOL     OW18729  11.958   3.603  13.275
 5611SOL    HW118730  11.950   3.682  13.329
 5611SOL    HW218731  12.007   3.632  13.198
 5612SOL     OW18732  12.646  12.026   3.372
 5612SOL    HW118733  12.697  12.081   3.432
 5612SOL    HW218734  12.711  11.967   3.333
 5613SOL     OW18735  11.157   1.900   5.210
 5613SOL    HW118736  11.071   1.942   5.207
 5613SOL    HW218737  11.199   1.925   5.128
 5614SOL     OW18738  12.087   9.378   3.591
 5614SOL    HW118739  12.181   9.379   3.569
 5614SOL    HW218740  12.085   9.370   3.686
 5615SOL     OW18741   6.018  13.278   3.767
 5615SOL    HW118742   6.099  13.300   3.722
 5615SOL    HW218743   6.025  13.184   3.785
 5616SOL     OW18744   2.910   3.076   5.568
 5616SOL    HW118745   2.825   3.077   5.524
 5616SOL    HW218746   2.935   2.984   5.570
 5617SOL     OW18747   3.328   7.119  10.280
 5617SOL    HW118748   3.306   7.039  10.329
 5617SOL    HW218749   3.405   7.154  10.324
 5618SOL     OW18750  12.405  11.046  13.090
 5618SOL    HW118751  12.311  11.030  13.091
 5618SOL    HW218752  12.436  11.006  13.009
 5619SOL     OW18753   1.784   2.762  12.343
 5619SOL    HW118754   1.743   2.848  12.354
 5619SOL    HW218755   1.712   2.700  12.351
 5620SOL     OW18756   0.753   7.504  11.659
 5620SOL    HW118757   0.697   7.535  11.588
 5620SOL    HW218758   0.717   7.545  11.738
 5621SOL     OW18759   3.619  10.582   1.977
 5621SOL    HW118760   3.670  10.646   1.927
 5621SOL    HW218761   3.613  10.619   2.065
 5622SOL     OW18762  12.993  10.439  14.065
 5622SOL    HW118763  13.056  10.454  13.994
 5622SOL    HW218764  13.048  10.421  14.142
 5623SOL     OW18765   4.550   4.627  12.670
 5623SOL    HW118766   4.585   4.664  12.589
 5623SOL    HW218767   4.628   4.595  12.717
 5624SOL     OW18768  12.584   8.854   6.795
 5624SOL    HW118769  12.643   8.800   6.742
 5624SOL    HW218770  12.521   8.792   6.831
 5625SOL     OW18771   3.816   3.725  11.948
 5625SOL    HW118772   3.849   3.815  11.943
 5625SOL    HW218773   3.855   3.690  12.027
 5626SOL     OW18774   9.313   6.800   2.560
 5626SOL    HW118775   9.237   6.743   2.549
 5626SOL    HW218776   9.342   6.786   2.650
 5627SOL     OW18777   8.880   0.961   6.840
 5627SOL    HW118778   8.903   0.881   6.795
 5627SOL    HW218779   8.904   0.945   6.932
 5628SOL     OW18780   9.813  12.280   9.620
 5628SOL    HW118781   9.819  12.325   9.704
 5628SOL    HW218782   9.820  12.350   9.555
 5629SOL     OW18783  11.614  11.921   0.433
 5629SOL    HW118784  11.573  11.845   0.392
 5629SOL    HW218785  11.575  11.926   0.520
 5630SOL     OW18786  13.596   9.630  12.892
 5630SOL    HW118787  13.588   9.540  12.863
 5630SOL    HW218788  13.650   9.626  12.971
 5631SOL     OW18789   6.196  13.417  10.554
 5631SOL    HW118790   6.208  13.336  10.505
 5631SOL    HW218791   6.102  13.422  10.570
 5632SOL     OW18792   6.111   9.512  12.606
 5632SOL    HW118793   6.192   9.542  12.646
 5632SOL    HW218794   6.061   9.592  12.590
 5633SOL     OW18795   3.418  11.734  11.739
 5633SOL    HW118796   3.357  11.738  11.813
 5633SOL    HW218797   3.421  11.824  11.706
 5634SOL     OW18798   8.297   6.697   5.889
 5634SOL    HW118799   8.248   6.684   5.970
 5634SOL    HW218800   8.230   6.709   5.822
 5635SOL     OW18801   2.323   6.929   7.494
 5635SOL    HW118802   2.333   6.893   7.582
 5635SOL    HW218803   2.389   6.883   7.442
 5636SOL     OW18804   1.524  12.437   5.333
 5636SOL    HW118805   1.585  12.370   5.303
 5636SOL    HW218806   1.444  12.423   5.282
 5637SOL     OW18807   6.749   6.203   7.926
 5637SOL    HW118808   6.741   6.294   7.956
 5637SOL    HW218809   6.704   6.152   7.993
 5638SOL     OW18810  11.355  10.189  13.754
 5638SOL    HW118811  11.385  10.263  13.700
 5638SOL    HW218812  11.380  10.112  13.704
 5639SOL     OW18813  11.199  12.146   2.179
 5639SOL    HW118814  11.195  12.201   2.257
 5639SOL    HW218815  11.285  12.104   2.183
 5640SOL     OW18816   7.684   4.271   7.493
 5640SOL    HW118817   7.679   4.336   7.564
 5640SOL    HW218818   7.772   4.234   7.501
 5641SOL     OW18819   7.231  13.562   7.011
 5641SOL    HW118820   7.146  13.583   7.049
 5641SOL    HW218821   7.216  13.559   6.917
 5642SOL     OW18822   3.549  11.423   2.202
 5642SOL    HW118823   3.495  11.425   2.280
 5642SOL    HW218824   3.592  11.337   2.203
 5643SOL     OW18825   0.909  10.220   8.977
 5643SOL    HW118826   0.940  10.156   9.042
 5643SOL    HW218827   0.814  10.221   8.988
 5644SOL     OW18828   4.321   5.067   4.613
 5644SOL    HW118829   4.305   5.036   4.524
 5644SOL    HW218830   4.234   5.091   4.646
 5645SOL     OW18831   8.474   1.013   1.348
 5645SOL    HW118832   8.396   1.062   1.376
 5645SOL    HW218833   8.544   1.047   1.403
 5646SOL     OW18834   2.469  12.694   9.486
 5646SOL    HW118835   2.385  12.649   9.497
 5646SOL    HW218836   2.534  12.625   9.500
 5647SOL     OW18837   3.019   7.117   1.582
 5647SOL    HW118838   3.067   7.048   1.537
 5647SOL    HW218839   3.087   7.171   1.623
 5648SOL     OW18840   4.783   0.305  10.629
 5648SOL    HW118841   4.724   0.244  10.674
 5648SOL    HW218842   4.865   0.256  10.619
 5649SOL     OW18843   6.621   2.292   1.161
 5649SOL    HW118844   6.700   2.241   1.143
 5649SOL    HW218845   6.582   2.250   1.237
 5650SOL     OW18846  12.380   7.464   9.209
 5650SOL    HW118847  12.341   7.552   9.212
 5650SOL    HW218848  12.306   7.405   9.196
 5651SOL     OW18849   9.370   3.020  10.057
 5651SOL    HW118850   9.340   2.947  10.003
 5651SOL    HW218851   9.314   3.018  10.134
 5652SOL     OW18852  13.231  14.805  14.138
 5652SOL    HW118853  13.179  14.818  14.059
 5652SOL    HW218854  13.168  14.812  14.210
 5653SOL     OW18855   8.459   7.450  14.822
 5653SOL    HW118856   8.450   7.536  14.862
 5653SOL    HW218857   8.476   7.468  14.729
 5654SOL     OW18858  13.136   1.874   9.787
 5654SOL    HW118859  13.049   1.898   9.820
 5654SOL    HW218860  13.177   1.958   9.765
 5655SOL     OW18861  14.055  11.158  11.967
 5655SOL    HW118862  14.006  11.225  12.015
 5655SOL    HW218863  14.143  11.161  12.004
 5656SOL     OW18864   2.008   2.654   9.935
 5656SOL    HW118865   2.087   2.637   9.986
 5656SOL    HW218866   2.031   2.624   9.847
 5657SOL     OW18867  11.207   4.078   8.645
 5657SOL    HW118868  11.256   4.038   8.573
 5657SOL    HW218869  11.254   4.051   8.724
 5658SOL     OW18870  10.257  12.968   0.787
 5658SOL    HW118871  10.214  12.883   0.783
 5658SOL    HW218872  10.186  13.031   0.774
 5659SOL     OW18873   3.803   1.351  13.436
 5659SOL    HW118874   3.808   1.377  13.344
 5659SOL    HW218875   3.890   1.316  13.456
 5660SOL     OW18876  10.033   4.909   8.616
 5660SOL    HW118877  10.121   4.880   8.592
 5660SOL    HW218878  10.044   4.951   8.701
 5661SOL     OW18879  12.036   6.214   7.888
 5661SOL    HW118880  12.081   6.182   7.966
 5661SOL    HW218881  11.990   6.293   7.917
 5662SOL     OW18882   0.661  10.170  14.175
 5662SOL    HW118883   0.626  10.103  14.118
 5662SOL    HW218884   0.644  10.253  14.130
 5663SOL     OW18885   7.544  14.262  14.538
 5663SOL    HW118886   7.562  14.354  14.560
 5663SOL    HW218887   7.618  14.236  14.484
 5664SOL     OW18888   2.357  12.853  12.605
 5664SOL    HW118889   2.403  12.856  12.521
 5664SOL    HW218890   2.362  12.942  12.639
 5665SOL     OW18891   3.793   8.344   4.205
 5665SOL    HW118892   3.873   8.348   4.256
 5665SOL    HW218893   3.799   8.418   4.144
 5666SOL     OW18894   7.896  14.172   3.179
 5666SOL    HW118895   7.906  14.213   3.092
 5666SOL    HW218896   7.812  14.204   3.211
 5667SOL     OW18897   2.580  13.121   6.194
 5667SOL    HW118898   2.539  13.043   6.158
 5667SOL    HW218899   2.550  13.192   6.136
 5668SOL     OW18900   5.242  14.485   0.399
 5668SOL    HW118901   5.170  14.433   0.433
 5668SOL    HW218902   5.318  14.457   0.450
 5669SOL     OW18903   7.785  11.472   2.113
 5669SOL    HW118904   7.751  11.415   2.182
 5669SOL    HW218905   7.875  11.441   2.098
 5670SOL     OW18906   8.315   9.561   6.222
 5670SOL    HW118907   8.253   9.512   6.276
 5670SOL    HW218908   8.399   9.552   6.267
 5671SOL     OW18909  13.180   4.428  10.385
 5671SOL    HW118910  13.201   4.442  10.292
 5671SOL    HW218911  13.228   4.349  10.409
 5672SOL     OW18912   3.090  13.099   0.727
 5672SOL    HW118913   3.054  13.049   0.654
 5672SOL    HW218914   3.021  13.098   0.794
 5673SOL     OW18915  12.432   2.732   5.661
 5673SOL    HW118916  12.480   2.780   5.729
 5673SOL    HW218917  12.500   2.694   5.605
 5674SOL     OW18918   2.982   0.279   7.868
 5674SOL    HW118919   3.058   0.234   7.904
 5674SOL    HW218920   2.950   0.221   7.800
 5675SOL     OW18921   8.014   1.917   6.289
 5675SOL    HW118922   8.075   1.927   6.216
 5675SOL    HW218923   7.930   1.948   6.256
 5676SOL     OW18924  11.436   9.976   0.822
 5676SOL    HW118925  11.379  10.028   0.764
 5676SOL    HW218926  11.380   9.904   0.851
 5677SOL     OW18927   8.148  12.555   1.434
 5677SOL    HW118928   8.184  12.559   1.523
 5677SOL    HW218929   8.167  12.467   1.404
 5678SOL     OW18930  14.269  10.955   3.366
 5678SOL    HW118931  14.186  10.908   3.375
 5678SOL    HW218932  14.247  11.030   3.310
 5679SOL     OW18933   7.013   4.528   3.812
 5679SOL    HW118934   6.925   4.489   3.812
 5679SOL    HW218935   7.004   4.608   3.761
 5680SOL     OW18936   2.832   6.334   1.804
 5680SOL    HW118937   2.926   6.320   1.796
 5680SOL    HW218938   2.794   6.273   1.741
 5681SOL     OW18939  11.479  10.412  13.696
 5681SOL    HW118940  11.453  10.494  13.738
 5681SOL    HW218941  11.574  10.418  13.687
 5682SOL     OW18942   5.132   6.206   9.071
 5682SOL    HW118943   5.169   6.286   9.033
 5682SOL    HW218944   5.056   6.236   9.122
 5683SOL     OW18945  10.747   4.604  14.054
 5683SOL    HW118946  10.722   4.587  13.964
 5683SOL    HW218947  10.728   4.697  14.067
 5684SOL     OW18948   4.766   1.636   1.800
 5684SOL    HW118949   4.716   1.685   1.865
 5684SOL    HW218950   4.708   1.631   1.724
 5685SOL     OW18951   0.806   3.328   0.596
 5685SOL    HW118952   0.804   3.236   0.572
 5685SOL    HW218953   0.837   3.373   0.517
 5686SOL     OW18954   9.304  12.373   0.269
 5686SOL    HW118955   9.223  12.327   0.246
 5686SOL    HW218956   9.303  12.452   0.215
 5687SOL     OW18957  13.475   7.174   2.341
 5687SOL    HW118958  13.412   7.166   2.270
 5687SOL    HW218959  13.423   7.160   2.421
 5688SOL     OW18960   2.300  10.297   6.127
 5688SOL    HW118961   2.327  10.280   6.037
 5688SOL    HW218962   2.231  10.363   6.120
 5689SOL     OW18963  14.147   7.217   8.588
 5689SOL    HW118964  14.211   7.258   8.646
 5689SOL    HW218965  14.070   7.274   8.594
 5690SOL     OW18966  10.563   1.972  12.829
 5690SOL    HW118967  10.626   2.025  12.877
 5690SOL    HW218968  10.477   2.003  12.859
 5691SOL     OW18969   5.518  12.717   2.979
 5691SOL    HW118970   5.493  12.805   2.950
 5691SOL    HW218971   5.449  12.660   2.946
 5692SOL     OW18972  12.896   1.620  14.389
 5692SOL    HW118973  12.982   1.635  14.427
 5692SOL    HW218974  12.860   1.547  14.440
 5693SOL     OW18975   3.031   8.035  14.463
 5693SOL    HW118976   3.107   8.051  14.407
 5693SOL    HW218977   2.970   8.106  14.443
 5694SOL     OW18978  10.161   6.509  13.379
 5694SOL    HW118979  10.070   6.496  13.355
 5694SOL    HW218980  10.164   6.494  13.474
 5695SOL     OW18981   2.961  10.829   2.685
 5695SOL    HW118982   2.988  10.800   2.773
 5695SOL    HW218983   2.980  10.755   2.628
 5696SOL     OW18984   8.815   4.715  12.285
 5696SOL    HW118985   8.830   4.673  12.370
 5696SOL    HW218986   8.899   4.754  12.263
 5697SOL     OW18987  13.083   4.561  13.380
 5697SOL    HW118988  13.047   4.638  13.336
 5697SOL    HW218989  13.109   4.592  13.466
 5698SOL     OW18990  12.010   2.882   2.530
 5698SOL    HW118991  11.980   2.960   2.576
 5698SOL    HW218992  11.958   2.879   2.450
 5699SOL     OW18993   7.252   3.671   6.461
 5699SOL    HW118994   7.282   3.622   6.537
 5699SOL    HW218995   7.256   3.762   6.489
 5700SOL     OW18996   9.443   3.803   8.840
 5700SOL    HW118997   9.378   3.848   8.895
 5700SOL    HW218998   9.522   3.801   8.894
 5701SOL     OW18999   0.056   3.190   8.815
 5701SOL    HW119000   0.088   3.112   8.862
 5701SOL    HW219001   0.092   3.181   8.727
 5702SOL     OW19002   8.052   1.983   4.140
 5702SOL    HW119003   8.057   1.920   4.068
 5702SOL    HW219004   8.018   1.933   4.213
 5703SOL     OW19005  14.848   2.616  12.970
 5703SOL    HW119006  14.853   2.700  13.016
 5703SOL    HW219007   0.024   2.627  12.894
 5704SOL     OW19008   9.126   7.395   9.772
 5704SOL    HW119009   9.130   7.323   9.835
 5704SOL    HW219010   9.181   7.463   9.811
 5705SOL     OW19011  14.161   3.962  12.728
 5705SOL    HW119012  14.176   3.993  12.638
 5705SOL    HW219013  14.214   3.883  12.735
 5706SOL     OW19014   7.445  13.009   5.391
 5706SOL    HW119015   7.423  12.965   5.473
 5706SOL    HW219016   7.361  13.017   5.345
 5707SOL     OW19017  12.962  13.441   0.313
 5707SOL    HW119018  12.994  13.365   0.362
 5707SOL    HW219019  12.981  13.420   0.221
 5708SOL     OW19020   1.196   2.476   2.264
 5708SOL    HW119021   1.150   2.469   2.348
 5708SOL    HW219022   1.206   2.386   2.234
 5709SOL     OW19023   6.843   0.749  10.849
 5709SOL    HW119024   6.787   0.711  10.917
 5709SOL    HW219025   6.895   0.676  10.816
 5710SOL     OW19026   3.531   1.095   9.797
 5710SOL    HW119027   3.501   1.082   9.707
 5710SOL    HW219028   3.492   1.022   9.846
 5711SOL     OW19029   2.118   4.606   3.748
 5711SOL    HW119030   2.140   4.650   3.667
 5711SOL    HW219031   2.081   4.675   3.804
 5712SOL     OW19032  10.038  14.746   3.046
 5712SOL    HW119033  10.121  14.710   3.016
 5712SOL    HW219034   9.978  14.733   2.973
 5713SOL     OW19035   9.530   4.064  10.802
 5713SOL    HW119036   9.453   4.121  10.807
 5713SOL    HW219037   9.511   3.992  10.862
 5714SOL     OW19038   7.554  11.552   8.142
 5714SOL    HW119039   7.604  11.615   8.090
 5714SOL    HW219040   7.561  11.470   8.095
 5715SOL     OW19041   4.095   5.831  10.212
 5715SOL    HW119042   4.139   5.752  10.245
 5715SOL    HW219043   4.165   5.882  10.173
 5716SOL     OW19044   3.216   5.562   8.903
 5716SOL    HW119045   3.161   5.637   8.925
 5716SOL    HW219046   3.293   5.572   8.960
 5717SOL     OW19047   0.586   6.472   1.186
 5717SOL    HW119048   0.614   6.415   1.257
 5717SOL    HW219049   0.584   6.416   1.109
 5718SOL     OW19050  10.701   3.823   1.967
 5718SOL    HW119051  10.763   3.896   1.967
 5718SOL    HW219052  10.739   3.759   2.027
 5719SOL     OW19053  13.457   7.124   7.410
 5719SOL    HW119054  13.520   7.056   7.436
 5719SOL    HW219055  13.508   7.205   7.410
 5720SOL     OW19056  10.041   8.905  12.161
 5720SOL    HW119057   9.958   8.859  12.147
 5720SOL    HW219058  10.023   8.995  12.133
 5721SOL     OW19059   5.521   7.466   4.112
 5721SOL    HW119060   5.576   7.391   4.090
 5721SOL    HW219061   5.433   7.439   4.086
 5722SOL     OW19062   2.199   8.651  13.977
 5722SOL    HW119063   2.232   8.568  14.012
 5722SOL    HW219064   2.185   8.706  14.054
 5723SOL     OW19065   8.289   6.229   2.478
 5723SOL    HW119066   8.232   6.185   2.415
 5723SOL    HW219067   8.229   6.277   2.535
 5724SOL     OW19068   1.415  12.962  14.439
 5724SOL    HW119069   1.433  12.870  14.455
 5724SOL    HW219070   1.481  13.008  14.491
 5725SOL     OW19071   4.739  13.143   1.452
 5725SOL    HW119072   4.668  13.079   1.461
 5725SOL    HW219073   4.805  13.097   1.400
 5726SOL     OW19074   9.336   4.183   5.313
 5726SOL    HW119075   9.369   4.100   5.347
 5726SOL    HW219076   9.354   4.246   5.384
 5727SOL     OW19077   9.623   5.159   6.779
 5727SOL    HW119078   9.630   5.163   6.684
 5727SOL    HW219079   9.566   5.232   6.802
 5728SOL     OW19080  11.492   4.250   7.896
 5728SOL    HW119081  11.529   4.210   7.975
 5728SOL    HW219082  11.514   4.189   7.825
 5729SOL     OW19083  10.342   1.319  10.895
 5729SOL    HW119084  10.299   1.388  10.845
 5729SOL    HW219085  10.270   1.262  10.924
 5730SOL     OW19086   6.861  12.089  10.593
 5730SOL    HW119087   6.780  12.061  10.637
 5730SOL    HW219088   6.883  12.016  10.536
 5731SOL     OW19089   2.337  11.921   7.439
 5731SOL    HW119090   2.285  11.841   7.426
 5731SOL    HW219091   2.277  11.981   7.483
 5732SOL     OW19092   3.849   3.942  14.505
 5732SOL    HW119093   3.890   3.934  14.419
 5732SOL    HW219094   3.871   3.861  14.551
 5733SOL     OW19095   7.619   0.779   1.833
 5733SOL    HW119096   7.526   0.803   1.832
 5733SOL    HW219097   7.620   0.687   1.858
 5734SOL     OW19098  10.677   4.976  10.098
 5734SOL    HW119099  10.588   4.972  10.134
 5734SOL    HW219100  10.688   5.067  10.072
 5735SOL     OW19101   1.331  13.560   1.640
 5735SOL    HW119102   1.357  13.608   1.561
 5735SOL    HW219103   1.389  13.484   1.641
 5736SOL     OW19104  11.602   0.923   0.832
 5736SOL    HW119105  11.630   0.897   0.744
 5736SOL    HW219106  11.534   0.859   0.854
 5737SOL     OW19107   8.590  13.225  10.036
 5737SOL    HW119108   8.523  13.211   9.969
 5737SOL    HW219109   8.547  13.281  10.101
 5738SOL     OW19110   5.934   6.474   5.644
 5738SOL    HW119111   5.883   6.546   5.607
 5738SOL    HW219112   5.872   6.401   5.649
 5739SOL     OW19113   9.632  11.188   4.335
 5739SOL    HW119114   9.539  11.201   4.351
 5739SOL    HW219115   9.637  11.166   4.242
 5740SOL     OW19116   6.202   4.538   6.163
 5740SOL    HW119117   6.239   4.582   6.087
 5740SOL    HW219118   6.114   4.575   6.172
 5741SOL     OW19119  14.788   1.461  12.837
 5741SOL    HW119120  14.789   1.461  12.741
 5741SOL    HW219121  14.720   1.524  12.860
 5742SOL     OW19122   1.145  14.837  13.013
 5742SOL    HW119123   1.071  14.777  13.008
 5742SOL    HW219124   1.221  14.780  13.025
 5743SOL     OW19125   0.714   5.861   5.168
 5743SOL    HW119126   0.667   5.828   5.245
 5743SOL    HW219127   0.667   5.940   5.144
 5744SOL     OW19128   3.732  13.225   6.923
 5744SOL    HW119129   3.824  13.201   6.938
 5744SOL    HW219130   3.733  13.320   6.914
 5745SOL     OW19131  11.135   5.572   4.717
 5745SOL    HW119132  11.220   5.553   4.756
 5745SOL    HW219133  11.073   5.557   4.787
 5746SOL     OW19134   0.369   8.627  10.918
 5746SOL    HW119135   0.281   8.600  10.941
 5746SOL    HW219136   0.425   8.556  10.949
 5747SOL     OW19137   3.884  11.183   9.752
 5747SOL    HW119138   3.881  11.095   9.714
 5747SOL    HW219139   3.927  11.171   9.837
 5748SOL     OW19140   9.464  11.569   6.678
 5748SOL    HW119141   9.488  11.491   6.728
 5748SOL    HW219142   9.531  11.634   6.700
 5749SOL     OW19143   1.569   9.148   4.921
 5749SOL    HW119144   1.615   9.214   4.974
 5749SOL    HW219145   1.564   9.071   4.978
 5750SOL     OW19146   4.664  13.355  10.018
 5750SOL    HW119147   4.613  13.341   9.938
 5750SOL    HW219148   4.716  13.275  10.027
 5751SOL     OW19149   7.788   0.197   5.111
 5751SOL    HW119150   7.853   0.261   5.140
 5751SOL    HW219151   7.801   0.122   5.169
 5752SOL     OW19152   4.626   8.668  11.872
 5752SOL    HW119153   4.656   8.577  11.877
 5752SOL    HW219154   4.600   8.690  11.961
 5753SOL     OW19155   9.302  14.250  13.305
 5753SOL    HW119156   9.263  14.173  13.264
 5753SOL    HW219157   9.309  14.228  13.398
 5754SOL     OW19158   6.863   1.167  12.317
 5754SOL    HW119159   6.884   1.252  12.354
 5754SOL    HW219160   6.915   1.162  12.237
 5755SOL     OW19161  11.025   1.980   8.147
 5755SOL    HW119162  11.120   1.974   8.133
 5755SOL    HW219163  10.988   1.913   8.089
 5756SOL     OW19164  13.868   7.179  11.600
 5756SOL    HW119165  13.783   7.219  11.582
 5756SOL    HW219166  13.906   7.163  11.513
 5757SOL     OW19167  14.797   5.546  13.633
 5757SOL    HW119168  14.759   5.569  13.549
 5757SOL    HW219169  14.724   5.549  13.695
 5758SOL     OW19170  12.256   0.848   2.626
 5758SOL    HW119171  12.176   0.832   2.676
 5758SOL    HW219172  12.326   0.841   2.690
 5759SOL     OW19173   9.201   6.326   9.079
 5759SOL    HW119174   9.208   6.269   9.002
 5759SOL    HW219175   9.246   6.407   9.053
 5760SOL     OW19176  10.972  12.784   1.152
 5760SOL    HW119177  10.899  12.843   1.173
 5760SOL    HW219178  11.049  12.831   1.184
 5761SOL     OW19179  13.567  13.613   5.508
 5761SOL    HW119180  13.497  13.559   5.470
 5761SOL    HW219181  13.610  13.556   5.572
 5762SOL     OW19182   4.691   3.809   7.683
 5762SOL    HW119183   4.755   3.824   7.753
 5762SOL    HW219184   4.733   3.745   7.625
 5763SOL     OW19185  13.678   1.367  14.431
 5763SOL    HW119186  13.758   1.315  14.440
 5763SOL    HW219187  13.617   1.329  14.495
 5764SOL     OW19188  12.780   6.638  11.293
 5764SOL    HW119189  12.756   6.551  11.261
 5764SOL    HW219190  12.696   6.682  11.309
 5765SOL     OW19191  12.996   4.178   7.184
 5765SOL    HW119192  12.975   4.105   7.126
 5765SOL    HW219193  12.920   4.187   7.240
 5766SOL     OW19194   9.615   7.201   6.834
 5766SOL    HW119195   9.547   7.255   6.875
 5766SOL    HW219196   9.651   7.255   6.764
 5767SOL     OW19197  11.143   5.064   8.669
 5767SOL    HW119198  11.102   5.057   8.755
 5767SOL    HW219199  11.088   5.012   8.611
 5768SOL     OW19200  13.960   7.677   8.972
 5768SOL    HW119201  13.886   7.641   9.021
 5768SOL    HW219202  13.963   7.769   8.997
 5769SOL     OW19203   3.863  14.469   3.556
 5769SOL    HW119204   3.848  14.503   3.468
 5769SOL    HW219205   3.785  14.494   3.606
 5770SOL     OW19206   1.385   6.691   8.893
 5770SOL    HW119207   1.383   6.764   8.832
 5770SOL    HW219208   1.459   6.710   8.951
 5771SOL     OW19209  11.925  13.223   7.433
 5771SOL    HW119210  11.984  13.150   7.450
 5771SOL    HW219211  11.847  13.182   7.396
 5772SOL     OW19212   9.712   1.832  11.868
 5772SOL    HW119213   9.788   1.774  11.862
 5772SOL    HW219214   9.638   1.775  11.850
 5773SOL     OW19215   5.529   9.907   8.191
 5773SOL    HW119216   5.555   9.922   8.100
 5773SOL    HW219217   5.455   9.965   8.205
 5774SOL     OW19218   4.602   5.520   7.260
 5774SOL    HW119219   4.619   5.594   7.202
 5774SOL    HW219220   4.652   5.447   7.222
 5775SOL     OW19221   3.042   8.129   8.233
 5775SOL    HW119222   2.964   8.186   8.225
 5775SOL    HW219223   3.111   8.178   8.189
 5776SOL     OW19224  12.136   7.863   0.047
 5776SOL    HW119225  12.182   7.926  14.875
 5776SOL    HW219226  12.100   7.915   0.119
 5777SOL     OW19227  14.730   6.809  11.723
 5777SOL    HW119228  14.649   6.762  11.743
 5777SOL    HW219229  14.704   6.875  11.659
 5778SOL     OW19230  12.843  13.402  13.228
 5778SOL    HW119231  12.818  13.371  13.141
 5778SOL    HW219232  12.834  13.497  13.223
 5779SOL     OW19233   9.115   1.295   6.440
 5779SOL    HW119234   9.107   1.204   6.471
 5779SOL    HW219235   9.205   1.320   6.462
 5780SOL     OW19236   1.747  13.182   9.128
 5780SOL    HW119237   1.840  13.203   9.130
 5780SOL    HW219238   1.711  13.227   9.205
 5781SOL     OW19239   0.481   6.687   1.640
 5781SOL    HW119240   0.550   6.697   1.706
 5781SOL    HW219241   0.450   6.597   1.652
 5782SOL     OW19242  11.363   3.498   9.423
 5782SOL    HW119243  11.404   3.577   9.390
 5782SOL    HW219244  11.423   3.466   9.490
 5783SOL     OW19245  10.173   7.658   3.631
 5783SOL    HW119246  10.184   7.654   3.536
 5783SOL    HW219247  10.124   7.739   3.646
 5784SOL     OW19248   7.478   5.966   1.349
 5784SOL    HW119249   7.427   5.886   1.345
 5784SOL    HW219250   7.491   5.982   1.442
 5785SOL     OW19251   9.041   0.120  11.453
 5785SOL    HW119252   8.982   0.151  11.522
 5785SOL    HW219253   9.129   0.134  11.489
 5786SOL     OW19254   4.674  12.081   1.628
 5786SOL    HW119255   4.648  12.030   1.705
 5786SOL    HW219256   4.757  12.041   1.600
 5787SOL     OW19257   0.641   7.891   0.513
 5787SOL    HW119258   0.719   7.875   0.566
 5787SOL    HW219259   0.660   7.972   0.466
 5788SOL     OW19260   6.272   4.616   2.165
 5788SOL    HW119261   6.258   4.571   2.081
 5788SOL    HW219262   6.362   4.595   2.189
 5789SOL     OW19263   9.366   1.411  14.731
 5789SOL    HW119264   9.361   1.506  14.734
 5789SOL    HW219265   9.275   1.382  14.738
 5790SOL     OW19266  11.810  10.966  13.714
 5790SOL    HW119267  11.796  11.028  13.786
 5790SOL    HW219268  11.727  10.918  13.707
 5791SOL     OW19269  13.693   0.524  13.642
 5791SOL    HW119270  13.747   0.446  13.657
 5791SOL    HW219271  13.742   0.595  13.684
 5792SOL     OW19272  10.406  14.396   9.553
 5792SOL    HW119273  10.498  14.421   9.559
 5792SOL    HW219274  10.359  14.468   9.595
 5793SOL     OW19275   2.186  11.486  12.406
 5793SOL    HW119276   2.258  11.452  12.458
 5793SOL    HW219277   2.152  11.560  12.456
 5794SOL     OW19278  13.286   7.985   9.337
 5794SOL    HW119279  13.296   7.914   9.401
 5794SOL    HW219280  13.369   7.986   9.289
 5795SOL     OW19281   7.887   5.162  13.976
 5795SOL    HW119282   7.900   5.177  14.070
 5795SOL    HW219283   7.972   5.129  13.946
 5796SOL     OW19284  12.684   2.345   0.179
 5796SOL    HW119285  12.705   2.301   0.261
 5796SOL    HW219286  12.702   2.437   0.196
 5797SOL     OW19287   4.433   7.913   1.482
 5797SOL    HW119288   4.520   7.936   1.513
 5797SOL    HW219289   4.373   7.966   1.535
 5798SOL     OW19290   5.543   7.945  13.053
 5798SOL    HW119291   5.564   7.878  13.118
 5798SOL    HW219292   5.448   7.942  13.044
 5799SOL     OW19293   3.056   8.169   5.532
 5799SOL    HW119294   3.087   8.259   5.535
 5799SOL    HW219295   3.128   8.117   5.568
 5800SOL     OW19296   8.801  14.810   7.982
 5800SOL    HW119297   8.873  14.748   7.973
 5800SOL    HW219298   8.725  14.755   8.003
 5801SOL     OW19299  11.171   0.991   0.954
 5801SOL    HW119300  11.158   1.019   0.864
 5801SOL    HW219301  11.167   1.073   1.005
 5802SOL     OW19302  10.241   4.133  11.927
 5802SOL    HW119303  10.330   4.161  11.907
 5802SOL    HW219304  10.243   4.113  12.020
 5803SOL     OW19305   4.472  13.092   9.793
 5803SOL    HW119306   4.457  13.186   9.803
 5803SOL    HW219307   4.388  13.051   9.812
 5804SOL     OW19308   2.293   7.744  10.003
 5804SOL    HW119309   2.228   7.799   9.959
 5804SOL    HW219310   2.243   7.691  10.065
 5805SOL     OW19311   8.748  10.865  11.646
 5805SOL    HW119312   8.664  10.843  11.687
 5805SOL    HW219313   8.727  10.874  11.553
 5806SOL     OW19314   4.187  12.975   3.877
 5806SOL    HW119315   4.270  12.984   3.831
 5806SOL    HW219316   4.121  12.999   3.813
 5807SOL     OW19317  13.660  10.209  12.929
 5807SOL    HW119318  13.631  10.274  12.864
 5807SOL    HW219319  13.580  10.163  12.954
 5808SOL     OW19320   0.850  13.791   9.338
 5808SOL    HW119321   0.848  13.699   9.364
 5808SOL    HW219322   0.758  13.812   9.320
 5809SOL     OW19323  12.000  12.671   1.298
 5809SOL    HW119324  11.935  12.741   1.300
 5809SOL    HW219325  12.009  12.651   1.205
 5810SOL     OW19326  13.015   7.662  14.671
 5810SOL    HW119327  13.007   7.700  14.759
 5810SOL    HW219328  13.078   7.719  14.627
 5811SOL     OW19329   9.882   2.108   4.808
 5811SOL    HW119330   9.870   2.175   4.874
 5811SOL    HW219331   9.849   2.028   4.849
 5812SOL     OW19332   5.806   2.480  11.073
 5812SOL    HW119333   5.795   2.559  11.126
 5812SOL    HW219334   5.894   2.449  11.093
 5813SOL     OW19335   5.304  14.647   8.855
 5813SOL    HW119336   5.347  14.576   8.807
 5813SOL    HW219337   5.288  14.714   8.788
 5814SOL     OW19338   0.855  10.679  11.182
 5814SOL    HW119339   0.786  10.693  11.248
 5814SOL    HW219340   0.927  10.735  11.210
 5815SOL     OW19341  12.128  10.054   1.362
 5815SOL    HW119342  12.052  10.044   1.305
 5815SOL    HW219343  12.154  10.146   1.351
 5816SOL     OW19344  10.738   7.405   5.892
 5816SOL    HW119345  10.792   7.417   5.814
 5816SOL    HW219346  10.649   7.402   5.860
 5817SOL     OW19347   1.826  14.402  12.117
 5817SOL    HW119348   1.888  14.460  12.160
 5817SOL    HW219349   1.880  14.345  12.061
 5818SOL     OW19350   9.310   8.380   1.292
 5818SOL    HW119351   9.383   8.366   1.232
 5818SOL    HW219352   9.291   8.293   1.327
 5819SOL     OW19353   2.092   6.021   8.234
 5819SOL    HW119354   2.183   5.999   8.252
 5819SOL    HW219355   2.080   6.108   8.271
 5820SOL     OW19356   8.660   0.483   8.339
 5820SOL    HW119357   8.674   0.544   8.267
 5820SOL    HW219358   8.590   0.424   8.308
 5821SOL     OW19359   3.304  14.616   2.613
 5821SOL    HW119360   3.228  14.584   2.563
 5821SOL    HW219361   3.277  14.702   2.645
 5822SOL     OW19362   0.432   6.206   5.595
 5822SOL    HW119363   0.399   6.234   5.680
 5822SOL    HW219364   0.447   6.288   5.547
 5823SOL     OW19365   2.688   9.671   8.253
 5823SOL    HW119366   2.743   9.647   8.178
 5823SOL    HW219367   2.599   9.648   8.226
 5824SOL     OW19368   4.201   3.781   8.334
 5824SOL    HW119369   4.262   3.783   8.260
 5824SOL    HW219370   4.114   3.776   8.293
 5825SOL     OW19371   7.466   9.667  10.312
 5825SOL    HW119372   7.547   9.693  10.269
 5825SOL    HW219373   7.420   9.613  10.248
 5826SOL     OW19374  14.656   4.598   3.624
 5826SOL    HW119375  14.588   4.530   3.628
 5826SOL    HW219376  14.658   4.635   3.712
 5827SOL     OW19377  12.676  10.175   9.999
 5827SOL    HW119378  12.711  10.086  10.007
 5827SOL    HW219379  12.752  10.232  10.003
 5828SOL     OW19380   4.366   6.559   9.804
 5828SOL    HW119381   4.390   6.651   9.796
 5828SOL    HW219382   4.356   6.529   9.713
 5829SOL     OW19383   4.988   7.585   2.123
 5829SOL    HW119384   5.053   7.525   2.161
 5829SOL    HW219385   4.907   7.535   2.124
 5830SOL     OW19386  10.032  13.335   8.205
 5830SOL    HW119387  10.092  13.264   8.183
 5830SOL    HW219388   9.975  13.298   8.272
 5831SOL     OW19389   9.475  11.119   0.482
 5831SOL    HW119390   9.503  11.110   0.392
 5831SOL    HW219391   9.414  11.193   0.482
 5832SOL     OW19392   4.263   1.042  14.447
 5832SOL    HW119393   4.225   1.037  14.359
 5832SOL    HW219394   4.340   1.098  14.435
 5833SOL     OW19395  12.706   3.803  10.348
 5833SOL    HW119396  12.745   3.885  10.378
 5833SOL    HW219397  12.649   3.828  10.276
 5834SOL     OW19398  12.535   4.121  10.547
 5834SOL    HW119399  12.446   4.145  10.520
 5834SOL    HW219400  12.525   4.084  10.634
 5835SOL     OW19401   7.928  13.809   5.647
 5835SOL    HW119402   7.855  13.805   5.586
 5835SOL    HW219403   7.999  13.763   5.603
 5836SOL     OW19404   3.877  10.533   6.382
 5836SOL    HW119405   3.854  10.480   6.458
 5836SOL    HW219406   3.799  10.529   6.326
 5837SOL     OW19407   8.045   6.567   9.813
 5837SOL    HW119408   7.954   6.568   9.841
 5837SOL    HW219409   8.040   6.568   9.717
 5838SOL     OW19410   2.120   7.817   4.174
 5838SOL    HW119411   2.163   7.867   4.244
 5838SOL    HW219412   2.066   7.753   4.220
 5839SOL     OW19413   9.141   8.007   5.073
 5839SOL    HW119414   9.098   7.980   4.992
 5839SOL    HW219415   9.070   8.040   5.128
 5840SOL     OW19416   1.311  10.495  11.887
 5840SOL    HW119417   1.345  10.449  11.811
 5840SOL    HW219418   1.260  10.568  11.851
 5841SOL     OW19419  13.615   2.219   8.598
 5841SOL    HW119420  13.575   2.148   8.548
 5841SOL    HW219421  13.683   2.176   8.651
 5842SOL     OW19422   8.242  12.080   1.710
 5842SOL    HW119423   8.197  11.995   1.709
 5842SOL    HW219424   8.267  12.094   1.618
 5843SOL     OW19425   1.335  10.350   4.303
 5843SOL    HW119426   1.377  10.290   4.365
 5843SOL    HW219427   1.361  10.317   4.216
 5844SOL     OW19428   7.208  13.679   8.100
 5844SOL    HW119429   7.289  13.647   8.061
 5844SOL    HW219430   7.228  13.768   8.128
 5845SOL     OW19431  14.326   7.643   9.562
 5845SOL    HW119432  14.268   7.697   9.616
 5845SOL    HW219433  14.319   7.681   9.474
 5846SOL     OW19434   0.460   7.328   6.651
 5846SOL    HW119435   0.382   7.383   6.657
 5846SOL    HW219436   0.493   7.343   6.562
 5847SOL     OW19437   0.098   2.299   4.633
 5847SOL    HW119438   0.098   2.381   4.584
 5847SOL    HW219439   0.177   2.253   4.603
 5848SOL     OW19440   0.181  11.693   2.699
 5848SOL    HW119441   0.197  11.711   2.792
 5848SOL    HW219442   0.086  11.698   2.690
 5849SOL     OW19443  12.041   8.808   1.102
 5849SOL    HW119444  11.990   8.741   1.146
 5849SOL    HW219445  12.112   8.829   1.163
 5850SOL     OW19446  13.940   2.509   9.919
 5850SOL    HW119447  13.895   2.437   9.962
 5850SOL    HW219448  14.030   2.505   9.952
 5851SOL     OW19449   8.056  14.781  11.034
 5851SOL    HW119450   8.009  14.760  10.953
 5851SOL    HW219451   8.035  14.872  11.051
 5852SOL     OW19452  14.809   9.401  11.364
 5852SOL    HW119453  14.780   9.312  11.383
 5852SOL    HW219454  14.841   9.397  11.274
 5853SOL     OW19455   6.671   3.812   8.682
 5853SOL    HW119456   6.586   3.838   8.716
 5853SOL    HW219457   6.651   3.767   8.599
 5854SOL     OW19458  11.109  13.169  11.413
 5854SOL    HW119459  11.100  13.180  11.318
 5854SOL    HW219460  11.163  13.243  11.441
 5855SOL     OW19461  11.150   6.608   7.463
 5855SOL    HW119462  11.208   6.652   7.400
 5855SOL    HW219463  11.079   6.670   7.479
 5856SOL     OW19464   6.639   8.669   1.160
 5856SOL    HW119465   6.707   8.728   1.190
 5856SOL    HW219466   6.651   8.589   1.212
 5857SOL     OW19467   8.749  11.907  12.300
 5857SOL    HW119468   8.831  11.858  12.295
 5857SOL    HW219469   8.726  11.923  12.209
 5858SOL     OW19470  11.557   5.373   9.509
 5858SOL    HW119471  11.474   5.335   9.540
 5858SOL    HW219472  11.615   5.297   9.498
 5859SOL     OW19473   1.047   5.338   6.341
 5859SOL    HW119474   0.988   5.311   6.271
 5859SOL    HW219475   1.015   5.424   6.367
 5860SOL     OW19476   2.334  11.700  12.038
 5860SOL    HW119477   2.398  11.644  12.082
 5860SOL    HW219478   2.324  11.660  11.952
 5861SOL     OW19479   0.735   4.316  10.084
 5861SOL    HW119480   0.699   4.337   9.998
 5861SOL    HW219481   0.830   4.307  10.069
 5862SOL     OW19482   3.887   7.972   6.057
 5862SOL    HW119483   3.837   7.893   6.040
 5862SOL    HW219484   3.828   8.028   6.108
 5863SOL     OW19485   1.480   9.725  13.494
 5863SOL    HW119486   1.505   9.641  13.533
 5863SOL    HW219487   1.558   9.752  13.445
 5864SOL     OW19488  13.498  11.255   6.005
 5864SOL    HW119489  13.511  11.174   6.055
 5864SOL    HW219490  13.485  11.323   6.072
 5865SOL     OW19491   0.484   8.662   6.963
 5865SOL    HW119492   0.419   8.668   7.033
 5865SOL    HW219493   0.500   8.753   6.938
 5866SOL     OW19494  10.911   8.153   5.086
 5866SOL    HW119495  10.918   8.226   5.024
 5866SOL    HW219496  10.817   8.147   5.106
 5867SOL     OW19497  12.994   1.839  12.623
 5867SOL    HW119498  12.967   1.835  12.715
 5867SOL    HW219499  13.055   1.912  12.618
 5868SOL     OW19500  13.760   8.372   9.469
 5868SOL    HW119501  13.671   8.338   9.467
 5868SOL    HW219502  13.804   8.319   9.535
 5869SOL     OW19503   3.295   4.254  11.183
 5869SOL    HW119504   3.383   4.240  11.147
 5869SOL    HW219505   3.303   4.228  11.275
 5870SOL     OW19506   5.630   8.715  10.604
 5870SOL    HW119507   5.718   8.751  10.592
 5870SOL    HW219508   5.644   8.623  10.626
 5871SOL     OW19509   9.359  10.440   8.018
 5871SOL    HW119510   9.454  10.441   8.007
 5871SOL    HW219511   9.324  10.410   7.934
 5872SOL     OW19512  12.003   1.608  14.008
 5872SOL    HW119513  11.983   1.549  14.080
 5872SOL    HW219514  11.924   1.662  13.998
 5873SOL     OW19515   6.417  14.568  11.430
 5873SOL    HW119516   6.324  14.587  11.440
 5873SOL    HW219517   6.443  14.616  11.352
 5874SOL     OW19518   6.407  13.550   5.117
 5874SOL    HW119519   6.359  13.568   5.036
 5874SOL    HW219520   6.368  13.469   5.150
 5875SOL     OW19521   1.627  12.841  14.166
 5875SOL    HW119522   1.683  12.849  14.088
 5875SOL    HW219523   1.673  12.890  14.233
 5876SOL     OW19524  10.204   1.449  12.145
 5876SOL    HW119525  10.186   1.407  12.229
 5876SOL    HW219526  10.299   1.439  12.134
 5877SOL     OW19527  10.481  11.701  14.148
 5877SOL    HW119528  10.573  11.674  14.145
 5877SOL    HW219529  10.483  11.795  14.133
 5878SOL     OW19530  13.676   5.982   3.978
 5878SOL    HW119531  13.615   5.995   4.051
 5878SOL    HW219532  13.684   6.069   3.938
 5879SOL     OW19533   6.452  10.945   2.846
 5879SOL    HW119534   6.472  11.012   2.912
 5879SOL    HW219535   6.466  10.862   2.892
 5880SOL     OW19536   0.272   4.592   8.481
 5880SOL    HW119537   0.245   4.522   8.540
 5880SOL    HW219538   0.207   4.661   8.495
 5881SOL     OW19539   1.628   5.749   8.354
 5881SOL    HW119540   1.535   5.753   8.374
 5881SOL    HW219541   1.649   5.835   8.317
 5882SOL     OW19542  11.297   2.268   1.682
 5882SOL    HW119543  11.382   2.239   1.648
 5882SOL    HW219544  11.292   2.228   1.769
 5883SOL     OW19545   9.007   6.792  10.703
 5883SOL    HW119546   9.046   6.767  10.787
 5883SOL    HW219547   9.078   6.784  10.640
 5884SOL     OW19548  11.848   7.121   2.636
 5884SOL    HW119549  11.881   7.187   2.697
 5884SOL    HW219550  11.877   7.151   2.550
 5885SOL     OW19551   7.193   7.238  12.728
 5885SOL    HW119552   7.204   7.331  12.708
 5885SOL    HW219553   7.153   7.202  12.649
 5886SOL     OW19554  14.532   9.095   4.409
 5886SOL    HW119555  14.486   9.056   4.335
 5886SOL    HW219556  14.517   9.034   4.481
 5887SOL     OW19557   6.930  14.198  14.471
 5887SOL    HW119558   6.962  14.108  14.468
 5887SOL    HW219559   6.892  14.207  14.558
 5888SOL     OW19560   4.977  10.137  14.322
 5888SOL    HW119561   4.998  10.060  14.375
 5888SOL    HW219562   4.884  10.153  14.339
 5889SOL     OW19563   8.177   9.776  11.145
 5889SOL    HW119564   8.163   9.686  11.116
 5889SOL    HW219565   8.256   9.771  11.199
 5890SOL     OW19566  11.095   8.490   3.352
 5890SOL    HW119567  11.149   8.534   3.285
 5890SOL    HW219568  11.009   8.481   3.311
 5891SOL     OW19569   8.289   6.258   0.134
 5891SOL    HW119570   8.302   6.352   0.146
 5891SOL    HW219571   8.371   6.218   0.166
 5892SOL     OW19572  14.375   0.983   9.754
 5892SOL    HW119573  14.466   1.005   9.770
 5892SOL    HW219574  14.378   0.895   9.715
 5893SOL     OW19575  13.192  10.906   3.135
 5893SOL    HW119576  13.151  10.967   3.074
 5893SOL    HW219577  13.220  10.960   3.209
 5894SOL     OW19578   1.289  10.574   8.518
 5894SOL    HW119579   1.372  10.605   8.556
 5894SOL    HW219580   1.316  10.515   8.447
 5895SOL     OW19581  14.446   3.349   4.867
 5895SOL    HW119582  14.521   3.291   4.850
 5895SOL    HW219583  14.375   3.311   4.816
 5896SOL     OW19584   3.638   9.252   8.997
 5896SOL    HW119585   3.596   9.338   8.997
 5896SOL    HW219586   3.568   9.191   8.974
 5897SOL     OW19587   0.545  13.881   4.659
 5897SOL    HW119588   0.606  13.951   4.634
 5897SOL    HW219589   0.536  13.890   4.754
 5898SOL     OW19590  12.236   6.360  11.112
 5898SOL    HW119591  12.279   6.357  11.198
 5898SOL    HW219592  12.301   6.397  11.053
 5899SOL     OW19593   9.114   5.854   1.600
 5899SOL    HW119594   9.119   5.759   1.587
 5899SOL    HW219595   9.197   5.887   1.566
 5900SOL     OW19596  12.060   5.181   8.139
 5900SOL    HW119597  12.104   5.135   8.067
 5900SOL    HW219598  12.021   5.111   8.191
 5901SOL     OW19599   2.419   5.969  12.793
 5901SOL    HW119600   2.342   6.025  12.807
 5901SOL    HW219601   2.449   5.992  12.705
 5902SOL     OW19602  11.986   8.953   0.334
 5902SOL    HW119603  11.909   8.990   0.377
 5902SOL    HW219604  11.950   8.895   0.267
 5903SOL     OW19605   7.412   7.585   3.310
 5903SOL    HW119606   7.424   7.496   3.275
 5903SOL    HW219607   7.411   7.572   3.405
 5904SOL     OW19608  14.630   6.343   1.822
 5904SOL    HW119609  14.559   6.348   1.758
 5904SOL    HW219610  14.664   6.254   1.813
 5905SOL     OW19611  10.979  12.952   2.802
 5905SOL    HW119612  11.037  13.013   2.848
 5905SOL    HW219613  10.892  12.990   2.814
 5906SOL     OW19614   4.716   1.106  14.170
 5906SOL    HW119615   4.780   1.081  14.103
 5906SOL    HW219616   4.631   1.100  14.126
 5907SOL     OW19617  13.991   6.100  11.781
 5907SOL    HW119618  13.917   6.064  11.830
 5907SOL    HW219619  14.068   6.067  11.827
 5908SOL     OW19620   6.518   6.236   8.400
 5908SOL    HW119621   6.609   6.260   8.384
 5908SOL    HW219622   6.475   6.319   8.424
 5909SOL     OW19623   2.907   9.868   8.599
 5909SOL    HW119624   2.953   9.896   8.678
 5909SOL    HW219625   2.973   9.873   8.530
 5910SOL     OW19626   9.254   6.018  13.339
 5910SOL    HW119627   9.245   6.111  13.358
 5910SOL    HW219628   9.211   6.007  13.254
 5911SOL     OW19629   1.968   5.709   6.598
 5911SOL    HW119630   2.036   5.758   6.644
 5911SOL    HW219631   1.969   5.745   6.509
 5912SOL     OW19632   3.324   0.676   5.258
 5912SOL    HW119633   3.347   0.753   5.205
 5912SOL    HW219634   3.229   0.669   5.249
 5913SOL     OW19635   7.912   4.298   8.300
 5913SOL    HW119636   7.957   4.355   8.363
 5913SOL    HW219637   7.936   4.209   8.326
 5914SOL     OW19638   3.757   1.835  12.979
 5914SOL    HW119639   3.849   1.837  13.005
 5914SOL    HW219640   3.716   1.777  13.044
 5915SOL     OW19641   2.063   3.139   2.223
 5915SOL    HW119642   2.026   3.178   2.301
 5915SOL    HW219643   2.006   3.168   2.152
 5916SOL     OW19644   6.952   7.872  11.659
 5916SOL    HW119645   6.935   7.940  11.594
 5916SOL    HW219646   6.920   7.910  11.741
 5917SOL     OW19647   1.645   5.653  12.495
 5917SOL    HW119648   1.606   5.701  12.568
 5917SOL    HW219649   1.582   5.663  12.424
 5918SOL     OW19650   2.165   8.643   3.284
 5918SOL    HW119651   2.227   8.712   3.260
 5918SOL    HW219652   2.203   8.602   3.362
 5919SOL     OW19653  10.645   9.755   0.324
 5919SOL    HW119654  10.668   9.803   0.403
 5919SOL    HW219655  10.553   9.731   0.336
 5920SOL     OW19656   9.933   7.641   8.303
 5920SOL    HW119657   9.891   7.648   8.217
 5920SOL    HW219658  10.010   7.697   8.297
 5921SOL     OW19659   4.758   3.416   5.563
 5921SOL    HW119660   4.670   3.445   5.588
 5921SOL    HW219661   4.782   3.352   5.630
 5922SOL     OW19662   1.981  14.424   7.457
 5922SOL    HW119663   2.003  14.378   7.376
 5922SOL    HW219664   1.999  14.516   7.438
 5923SOL     OW19665   6.159   8.543  11.517
 5923SOL    HW119666   6.074   8.503  11.499
 5923SOL    HW219667   6.196   8.561  11.430
 5924SOL     OW19668   3.680  14.877   2.186
 5924SOL    HW119669   3.658   0.031   2.272
 5924SOL    HW219670   3.669   0.069   2.126
 5925SOL     OW19671   3.874   7.217  10.752
 5925SOL    HW119672   3.949   7.275  10.759
 5925SOL    HW219673   3.910   7.129  10.764
 5926SOL     OW19674   6.259  12.210  14.453
 5926SOL    HW119675   6.168  12.196  14.477
 5926SOL    HW219676   6.285  12.129  14.409
 5927SOL     OW19677  13.486   7.035   0.116
 5927SOL    HW119678  13.411   7.052   0.172
 5927SOL    HW219679  13.507   6.943   0.130
 5928SOL     OW19680   1.639  13.644   6.119
 5928SOL    HW119681   1.552  13.623   6.152
 5928SOL    HW219682   1.681  13.692   6.190
 5929SOL     OW19683  10.837  10.723  12.437
 5929SOL    HW119684  10.868  10.635  12.416
 5929SOL    HW219685  10.812  10.760  12.353
 5930SOL     OW19686   8.678  14.070   0.185
 5930SOL    HW119687   8.726  13.991   0.158
 5930SOL    HW219688   8.668  14.061   0.279
 5931SOL     OW19689  13.126   1.754   4.124
 5931SOL    HW119690  13.081   1.835   4.149
 5931SOL    HW219691  13.115   1.749   4.029
 5932SOL     OW19692  13.147   3.417   6.429
 5932SOL    HW119693  13.103   3.398   6.512
 5932SOL    HW219694  13.174   3.332   6.396
 5933SOL     OW19695   9.840   7.509   2.065
 5933SOL    HW119696   9.776   7.459   2.116
 5933SOL    HW219697   9.795   7.527   1.982
 5934SOL     OW19698   2.989  12.942   9.990
 5934SOL    HW119699   2.970  12.848   9.996
 5934SOL    HW219700   3.033  12.952   9.906
 5935SOL     OW19701   1.837   0.419   5.150
 5935SOL    HW119702   1.898   0.430   5.223
 5935SOL    HW219703   1.847   0.498   5.097
 5936SOL     OW19704  14.010  12.900   7.409
 5936SOL    HW119705  14.082  12.938   7.460
 5936SOL    HW219706  13.965  12.842   7.470
 5937SOL     OW19707   8.485   2.637  10.847
 5937SOL    HW119708   8.410   2.583  10.872
 5937SOL    HW219709   8.467   2.661  10.756
 5938SOL     OW19710   1.061  12.877   9.264
 5938SOL    HW119711   0.975  12.865   9.303
 5938SOL    HW219712   1.117  12.904   9.337
 5939SOL     OW19713  13.294  14.049   8.240
 5939SOL    HW119714  13.363  14.115   8.245
 5939SOL    HW219715  13.334  13.976   8.193
 5940SOL     OW19716   8.136   3.410   1.574
 5940SOL    HW119717   8.142   3.340   1.638
 5940SOL    HW219718   8.054   3.455   1.596
 5941SOL     OW19719   1.177  13.022  14.323
 5941SOL    HW119720   1.264  13.000  14.356
 5941SOL    HW219721   1.191  13.096  14.265
 5942SOL     OW19722   8.466   0.358   4.603
 5942SOL    HW119723   8.554   0.384   4.577
 5942SOL    HW219724   8.470   0.356   4.699
 5943SOL     OW19725   7.396  14.175   5.526
 5943SOL    HW119726   7.337  14.104   5.552
 5943SOL    HW219727   7.404  14.166   5.431
 5944SOL     OW19728   4.768   5.607   0.734
 5944SOL    HW119729   4.833   5.567   0.792
 5944SOL    HW219730   4.689   5.613   0.787
 5945SOL     OW19731   8.196  10.473   3.068
 5945SOL    HW119732   8.134  10.532   3.026
 5945SOL    HW219733   8.142  10.417   3.124
 5946SOL     OW19734  11.985   2.317   5.818
 5946SOL    HW119735  12.028   2.232   5.828
 5946SOL    HW219736  12.032   2.360   5.747
 5947SOL     OW19737   5.640   7.270   7.555
 5947SOL    HW119738   5.659   7.270   7.461
 5947SOL    HW219739   5.632   7.363   7.578
 5948SOL     OW19740   9.060   4.836   0.521
 5948SOL    HW119741   9.052   4.766   0.456
 5948SOL    HW219742   9.152   4.835   0.546
 5949SOL     OW19743  13.269  12.508  14.042
 5949SOL    HW119744  13.266  12.593  14.000
 5949SOL    HW219745  13.355  12.472  14.017
 5950SOL     OW19746   9.114   5.075   5.881
 5950SOL    HW119747   9.152   5.133   5.947
 5950SOL    HW219748   9.034   5.041   5.922
 5951SOL     OW19749  10.257  10.722  13.942
 5951SOL    HW119750  10.248  10.628  13.925
 5951SOL    HW219751  10.323  10.728  14.011
 5952SOL     OW19752   8.684   5.475   2.245
 5952SOL    HW119753   8.758   5.495   2.187
 5952SOL    HW219754   8.693   5.382   2.265
 5953SOL     OW19755   2.914  12.671   4.546
 5953SOL    HW119756   2.898  12.731   4.474
 5953SOL    HW219757   2.979  12.715   4.601
 5954SOL     OW19758  11.178   9.253  13.260
 5954SOL    HW119759  11.255   9.230  13.311
 5954SOL    HW219760  11.130   9.171  13.250
 5955SOL     OW19761   0.238   7.088   4.735
 5955SOL    HW119762   0.288   7.168   4.722
 5955SOL    HW219763   0.292   7.019   4.696
 5956SOL     OW19764  13.840   1.890  12.994
 5956SOL    HW119765  13.748   1.880  13.019
 5956SOL    HW219766  13.888   1.837  13.057
 5957SOL     OW19767  14.709  11.429  12.161
 5957SOL    HW119768  14.740  11.496  12.100
 5957SOL    HW219769  14.658  11.477  12.226
 5958SOL     OW19770   7.164   5.714   9.963
 5958SOL    HW119771   7.145   5.806   9.980
 5958SOL    HW219772   7.153   5.704   9.869
 5959SOL     OW19773   8.060  14.419   1.629
 5959SOL    HW119774   7.990  14.392   1.689
 5959SOL    HW219775   8.120  14.345   1.626
 5960SOL     OW19776  12.612  10.223   6.580
 5960SOL    HW119777  12.590  10.130   6.573
 5960SOL    HW219778  12.707  10.225   6.590
 5961SOL     OW19779   4.340  11.823  14.775
 5961SOL    HW119780   4.331  11.728  14.765
 5961SOL    HW219781   4.282  11.860  14.708
 5962SOL     OW19782   9.990   5.189  10.888
 5962SOL    HW119783   9.902   5.188  10.924
 5962SOL    HW219784   9.980   5.229  10.801
 5963SOL     OW19785   5.653   7.622   9.305
 5963SOL    HW119786   5.667   7.634   9.211
 5963SOL    HW219787   5.720   7.558   9.332
 5964SOL     OW19788   3.220   5.514   5.380
 5964SOL    HW119789   3.308   5.532   5.414
 5964SOL    HW219790   3.213   5.418   5.382
 5965SOL     OW19791   7.951   4.297   1.396
 5965SOL    HW119792   7.938   4.384   1.358
 5965SOL    HW219793   7.991   4.246   1.327
 5966SOL     OW19794   2.920   8.507   3.331
 5966SOL    HW119795   2.970   8.579   3.371
 5966SOL    HW219796   2.851   8.487   3.394
 5967SOL     OW19797   6.182   3.229  13.610
 5967SOL    HW119798   6.094   3.210  13.643
 5967SOL    HW219799   6.167   3.284  13.533
 5968SOL     OW19800   6.043  12.764  11.978
 5968SOL    HW119801   6.039  12.761  12.074
 5968SOL    HW219802   6.059  12.856  11.958
 5969SOL     OW19803   9.441  14.296   5.369
 5969SOL    HW119804   9.377  14.285   5.439
 5969SOL    HW219805   9.526  14.296   5.413
 5970SOL     OW19806   0.509  10.589  12.259
 5970SOL    HW119807   0.454  10.630  12.192
 5970SOL    HW219808   0.590  10.568  12.213
 5971SOL     OW19809   0.885   1.414   1.024
 5971SOL    HW119810   0.935   1.338   0.995
 5971SOL    HW219811   0.809   1.417   0.966
 5972SOL     OW19812  14.226   3.648  14.821
 5972SOL    HW119813  14.280   3.629   0.016
 5972SOL    HW219814  14.167   3.573  14.815
 5973SOL     OW19815   0.203   7.046   8.873
 5973SOL    HW119816   0.162   6.962   8.850
 5973SOL    HW219817   0.134   7.111   8.859
 5974SOL     OW19818   0.483  14.503  10.124
 5974SOL    HW119819   0.483  14.416  10.163
 5974SOL    HW219820   0.531  14.493  10.042
 5975SOL     OW19821  13.568   0.001   3.728
 5975SOL    HW119822  13.647  14.842   3.695
 5975SOL    HW219823  13.580   0.094   3.711
 5976SOL     OW19824  10.895   6.830   6.979
 5976SOL    HW119825  10.823   6.790   6.931
 5976SOL    HW219826  10.945   6.755   7.013
 5977SOL     OW19827   1.245   1.944   4.749
 5977SOL    HW119828   1.275   1.865   4.793
 5977SOL    HW219829   1.316   1.966   4.689
 5978SOL     OW19830  14.329   7.049   2.271
 5978SOL    HW119831  14.309   6.963   2.306
 5978SOL    HW219832  14.253   7.071   2.217
 5979SOL     OW19833   2.289  13.545  11.177
 5979SOL    HW119834   2.227  13.484  11.217
 5979SOL    HW219835   2.262  13.631  11.208
 5980SOL     OW19836   8.511   4.528  10.847
 5980SOL    HW119837   8.524   4.614  10.887
 5980SOL    HW219838   8.416   4.520  10.838
 5981SOL     OW19839   3.009  10.856   8.588
 5981SOL    HW119840   3.042  10.943   8.612
 5981SOL    HW219841   2.932  10.844   8.643
 5982SOL     OW19842   3.260   0.088   0.812
 5982SOL    HW119843   3.320   0.017   0.836
 5982SOL    HW219844   3.308   0.140   0.748
 5983SOL     OW19845   9.706  10.423  11.126
 5983SOL    HW119846   9.763  10.473  11.068
 5983SOL    HW219847   9.763  10.394  11.197
 5984SOL     OW19848   7.405   1.752   1.183
 5984SOL    HW119849   7.384   1.695   1.258
 5984SOL    HW219850   7.373   1.839   1.210
 5985SOL     OW19851   0.180  10.135  10.431
 5985SOL    HW119852   0.266  10.125  10.473
 5985SOL    HW219853   0.182  10.221  10.391
 5986SOL     OW19854   0.136   1.649   7.990
 5986SOL    HW119855   0.057   1.595   7.993
 5986SOL    HW219856   0.182   1.619   7.912
 5987SOL     OW19857  11.570   4.810   1.978
 5987SOL    HW119858  11.474   4.808   1.984
 5987SOL    HW219859  11.595   4.888   2.027
 5988SOL     OW19860   3.713  12.190   6.517
 5988SOL    HW119861   3.636  12.144   6.483
 5988SOL    HW219862   3.689  12.282   6.512
 5989SOL     OW19863  12.341   7.820   5.738
 5989SOL    HW119864  12.405   7.886   5.712
 5989SOL    HW219865  12.294   7.859   5.811
 5990SOL     OW19866  11.675   6.621   4.696
 5990SOL    HW119867  11.678   6.680   4.771
 5990SOL    HW219868  11.762   6.627   4.657
 5991SOL     OW19869   3.453  12.730   5.813
 5991SOL    HW119870   3.374  12.773   5.847
 5991SOL    HW219871   3.517  12.801   5.804
 5992SOL     OW19872   0.852   0.845  10.423
 5992SOL    HW119873   0.833   0.905  10.495
 5992SOL    HW219874   0.897   0.771  10.463
 5993SOL     OW19875   9.564   5.942   6.895
 5993SOL    HW119876   9.540   5.903   6.979
 5993SOL    HW219877   9.483   5.941   6.844
 5994SOL     OW19878   7.398  10.520   3.312
 5994SOL    HW119879   7.476  10.510   3.368
 5994SOL    HW219880   7.367  10.609   3.330
 5995SOL     OW19881  13.766   3.789   7.415
 5995SOL    HW119882  13.681   3.812   7.454
 5995SOL    HW219883  13.743   3.743   7.334
 5996SOL     OW19884  14.825   6.793  12.147
 5996SOL    HW119885   0.021   6.740  12.160
 5996SOL    HW219886  14.849   6.854  12.078
 5997SOL     OW19887   7.294   2.262   5.872
 5997SOL    HW119888   7.258   2.202   5.806
 5997SOL    HW219889   7.229   2.332   5.879
 5998SOL     OW19890   2.721  11.754   5.124
 5998SOL    HW119891   2.791  11.688   5.125
 5998SOL    HW219892   2.688  11.752   5.034
 5999SOL     OW19893  14.816  11.014   2.339
 5999SOL    HW119894  14.748  10.981   2.281
 5999SOL    HW219895  14.811  11.109   2.330
 6000SOL     OW19896   2.688  11.734  11.135
 6000SOL    HW119897   2.765  11.760  11.186
 6000SOL    HW219898   2.700  11.640  11.120
 6001SOL     OW19899  12.083  12.896  10.431
 6001SOL    HW119900  12.127  12.974  10.396
 6001SOL    HW219901  12.134  12.873  10.509
 6002SOL     OW19902   5.526   2.134   6.948
 6002SOL    HW119903   5.450   2.126   7.005
 6002SOL    HW219904   5.502   2.086   6.869
 6003SOL     OW19905   5.986   1.351  12.194
 6003SOL    HW119906   6.047   1.278  12.206
 6003SOL    HW219907   5.940   1.329  12.113
 6004SOL     OW19908  13.808   6.789   2.528
 6004SOL    HW119909  13.784   6.704   2.490
 6004SOL    HW219910  13.759   6.853   2.477
 6005SOL     OW19911  12.990   3.001   0.648
 6005SOL    HW119912  13.062   3.004   0.584
 6005SOL    HW219913  13.023   2.946   0.719
 6006SOL     OW19914   3.051  14.829   0.582
 6006SOL    HW119915   3.010   0.007   0.520
 6006SOL    HW219916   3.093   0.004   0.646
 6007SOL     OW19917   3.774  12.407   3.425
 6007SOL    HW119918   3.680  12.397   3.410
 6007SOL    HW219919   3.782  12.487   3.476
 6008SOL     OW19920  10.156   7.544   9.736
 6008SOL    HW119921  10.175   7.604   9.808
 6008SOL    HW219922  10.099   7.477   9.775
 6009SOL     OW19923   1.663   2.948   7.953
 6009SOL    HW119924   1.648   3.015   7.887
 6009SOL    HW219925   1.749   2.911   7.930
 6010SOL     OW19926   3.412   0.722   8.824
 6010SOL    HW119927   3.431   0.792   8.887
 6010SOL    HW219928   3.347   0.760   8.766
 6011SOL     OW19929   4.988   9.808  13.210
 6011SOL    HW119930   4.915   9.839  13.156
 6011SOL    HW219931   5.020   9.730  13.165
 6012SOL     OW19932   0.993   1.923   3.039
 6012SOL    HW119933   0.940   1.903   3.116
 6012SOL    HW219934   0.987   1.846   2.983
 6013SOL     OW19935   8.025  10.759   0.689
 6013SOL    HW119936   8.092  10.690   0.685
 6013SOL    HW219937   8.072  10.836   0.720
 6014SOL     OW19938  12.574  13.260   7.072
 6014SOL    HW119939  12.498  13.280   7.126
 6014SOL    HW219940  12.544  13.276   6.982
 6015SOL     OW19941   2.145   8.106   8.341
 6015SOL    HW119942   2.172   8.189   8.380
 6015SOL    HW219943   2.182   8.039   8.397
 6016SOL     OW19944  14.731  14.033   3.513
 6016SOL    HW119945  14.742  13.967   3.445
 6016SOL    HW219946  14.820  14.064   3.531
 6017SOL     OW19947   9.110   8.413   4.351
 6017SOL    HW119948   9.199   8.391   4.321
 6017SOL    HW219949   9.054   8.347   4.309
 6018SOL     OW19950  10.577   5.541   1.739
 6018SOL    HW119951  10.670   5.542   1.764
 6018SOL    HW219952  10.532   5.576   1.815
 6019SOL     OW19953   1.759  13.596   8.478
 6019SOL    HW119954   1.812  13.516   8.479
 6019SOL    HW219955   1.799  13.651   8.412
 6020SOL     OW19956  14.293   4.416   9.737
 6020SOL    HW119957  14.365   4.354   9.727
 6020SOL    HW219958  14.332   4.501   9.718
 6021SOL     OW19959  13.272   6.236   8.024
 6021SOL    HW119960  13.352   6.197   8.059
 6021SOL    HW219961  13.297   6.272   7.939
 6022SOL     OW19962  12.615   0.367   5.906
 6022SOL    HW119963  12.599   0.289   5.852
 6022SOL    HW219964  12.684   0.339   5.967
 6023SOL     OW19965   5.376   7.118   7.595
 6023SOL    HW119966   5.320   7.161   7.530
 6023SOL    HW219967   5.368   7.024   7.574
 6024SOL     OW19968  11.693  13.795   9.566
 6024SOL    HW119969  11.676  13.814   9.474
 6024SOL    HW219970  11.667  13.875   9.612
 6025SOL     OW19971   1.064  13.377   7.554
 6025SOL    HW119972   1.048  13.433   7.630
 6025SOL    HW219973   1.024  13.293   7.578
 6026SOL     OW19974   0.974  13.520   3.484
 6026SOL    HW119975   0.940  13.605   3.510
 6026SOL    HW219976   0.942  13.506   3.395
 6027SOL     OW19977  13.940   2.738  12.548
 6027SOL    HW119978  13.977   2.681  12.615
 6027SOL    HW219979  14.006   2.806  12.534
 6028SOL     OW19980   2.539  13.383   4.183
 6028SOL    HW119981   2.623  13.422   4.204
 6028SOL    HW219982   2.476  13.455   4.191
 6029SOL     OW19983   0.733   1.483   3.181
 6029SOL    HW119984   0.674   1.538   3.232
 6029SOL    HW219985   0.725   1.396   3.221
 6030SOL     OW19986  14.747   2.678   8.320
 6030SOL    HW119987  14.694   2.605   8.289
 6030SOL    HW219988  14.686   2.732   8.370
 6031SOL     OW19989   1.890  14.605   9.444
 6031SOL    HW119990   1.847  14.541   9.501
 6031SOL    HW219991   1.980  14.574   9.436
 6032SOL     OW19992   3.285  11.259   8.381
 6032SOL    HW119993   3.217  11.231   8.443
 6032SOL    HW219994   3.237  11.309   8.315
 6033SOL     OW19995  10.125   2.215   9.750
 6033SOL    HW119996  10.174   2.230   9.669
 6033SOL    HW219997  10.142   2.293   9.803
 6034SOL     OW19998   6.300  10.618  12.904
 6034SOL    HW119999   6.309  10.524  12.890
 6034SOL    HW220000   6.205  10.632  12.912
 6035SOL     OW20001  10.625   5.220   9.408
 6035SOL    HW120002  10.552   5.277   9.385
 6035SOL    HW220003  10.658   5.188   9.324
 6036SOL     OW20004  12.922  12.969   9.765
 6036SOL    HW120005  12.960  13.050   9.796
 6036SOL    HW220006  12.840  12.995   9.722
 6037SOL     OW20007  10.991   9.060  12.822
 6037SOL    HW120008  10.918   9.021  12.776
 6037SOL    HW220009  11.068   9.034  12.772
 6038SOL     OW20010   4.272  10.442  14.433
 6038SOL    HW120011   4.333  10.493  14.486
 6038SOL    HW220012   4.313  10.437  14.347
 6039SOL     OW20013  14.549  11.169  13.300
 6039SOL    HW120014  14.611  11.241  13.317
 6039SOL    HW220015  14.591  11.117  13.232
 6040SOL     OW20016  13.278  13.717  12.193
 6040SOL    HW120017  13.252  13.669  12.272
 6040SOL    HW220018  13.275  13.809  12.219
 6041SOL     OW20019  12.400   0.861   3.780
 6041SOL    HW120020  12.389   0.913   3.859
 6041SOL    HW220021  12.410   0.771   3.811
 6042SOL     OW20022  12.500   6.467  12.211
 6042SOL    HW120023  12.460   6.509  12.287
 6042SOL    HW220024  12.585   6.438  12.241
 6043SOL     OW20025  10.965   8.428  10.371
 6043SOL    HW120026  10.978   8.522  10.359
 6043SOL    HW220027  10.873   8.413  10.350
 6044SOL     OW20028   9.971   7.452   5.607
 6044SOL    HW120029   9.916   7.395   5.552
 6044SOL    HW220030   9.991   7.399   5.684
 6045SOL     OW20031   8.493  10.486  12.026
 6045SOL    HW120032   8.570  10.496  12.081
 6045SOL    HW220033   8.463  10.396  12.042
 6046SOL     OW20034   1.987   2.124   4.713
 6046SOL    HW120035   2.003   2.068   4.636
 6046SOL    HW220036   1.954   2.206   4.676
 6047SOL     OW20037  10.866   3.752  11.874
 6047SOL    HW120038  10.865   3.731  11.967
 6047SOL    HW220039  10.916   3.680  11.834
 6048SOL     OW20040   5.829   4.817   7.595
 6048SOL    HW120041   5.833   4.753   7.666
 6048SOL    HW220042   5.780   4.772   7.526
 6049SOL     OW20043  13.612   4.037   9.625
 6049SOL    HW120044  13.567   4.109   9.580
 6049SOL    HW220045  13.694   4.076   9.656
 6050SOL     OW20046  10.299   1.366   3.338
 6050SOL    HW120047  10.213   1.406   3.326
 6050SOL    HW220048  10.347   1.427   3.392
 6051SOL     OW20049   0.226   3.437  13.102
 6051SOL    HW120050   0.217   3.505  13.169
 6051SOL    HW220051   0.255   3.484  13.024
 6052SOL     OW20052  14.052  13.402   0.512
 6052SOL    HW120053  14.071  13.308   0.514
 6052SOL    HW220054  13.969  13.409   0.467
 6053SOL     OW20055  12.683  13.224   6.573
 6053SOL    HW120056  12.611  13.276   6.609
 6053SOL    HW220057  12.642  13.170   6.506
 6054SOL     OW20058  11.211  12.719  10.590
 6054SOL    HW120059  11.268  12.703  10.666
 6054SOL    HW220060  11.146  12.650  10.593
 6055SOL     OW20061   7.358   1.559  11.036
 6055SOL    HW120062   7.431   1.499  11.052
 6055SOL    HW220063   7.289   1.529  11.096
 6056SOL     OW20064  13.747   9.961  10.411
 6056SOL    HW120065  13.728  10.053  10.427
 6056SOL    HW220066  13.837   9.960  10.380
 6057SOL     OW20067   8.450  12.977   2.999
 6057SOL    HW120068   8.462  13.072   2.994
 6057SOL    HW220069   8.387  12.957   2.930
 6058SOL     OW20070  12.740   7.710   3.195
 6058SOL    HW120071  12.717   7.683   3.283
 6058SOL    HW220072  12.668   7.680   3.140
 6059SOL     OW20073   2.524   6.497   6.388
 6059SOL    HW120074   2.444   6.506   6.440
 6059SOL    HW220075   2.538   6.403   6.383
 6060SOL     OW20076   7.143   8.766  12.660
 6060SOL    HW120077   7.129   8.776  12.566
 6060SOL    HW220078   7.228   8.807  12.675
 6061SOL     OW20079  10.233   3.953  13.837
 6061SOL    HW120080  10.196   4.041  13.829
 6061SOL    HW220081  10.327   3.967  13.848
 6062SOL     OW20082   4.939   6.340   7.690
 6062SOL    HW120083   4.988   6.371   7.766
 6062SOL    HW220084   5.005   6.300   7.633
 6063SOL     OW20085   3.185  13.624  13.477
 6063SOL    HW120086   3.111  13.678  13.503
 6063SOL    HW220087   3.257  13.652  13.534
 6064SOL     OW20088   3.677  14.135   0.665
 6064SOL    HW120089   3.731  14.084   0.605
 6064SOL    HW220090   3.682  14.088   0.748
 6065SOL     OW20091   2.364   9.046   0.911
 6065SOL    HW120092   2.275   9.014   0.896
 6065SOL    HW220093   2.420   8.982   0.866
 6066SOL     OW20094   3.255  11.559   8.997
 6066SOL    HW120095   3.264  11.526   9.087
 6066SOL    HW220096   3.173  11.608   8.998
 6067SOL     OW20097  12.853  12.108  14.713
 6067SOL    HW120098  12.779  12.057  14.746
 6067SOL    HW220099  12.812  12.184  14.670
 6068SOL     OW20100   0.571   6.239  10.626
 6068SOL    HW120101   0.590   6.149  10.655
 6068SOL    HW220102   0.554   6.231  10.533
 6069SOL     OW20103   5.614   9.599   2.792
 6069SOL    HW120104   5.607   9.694   2.801
 6069SOL    HW220105   5.599   9.582   2.699
 6070SOL     OW20106   1.035  13.024   6.455
 6070SOL    HW120107   0.957  12.998   6.406
 6070SOL    HW220108   1.021  12.988   6.542
 6071SOL     OW20109  13.089  10.193   9.897
 6071SOL    HW120110  12.997  10.215   9.884
 6071SOL    HW220111  13.104  10.205   9.991
 6072SOL     OW20112   9.103   6.494   0.725
 6072SOL    HW120113   9.183   6.494   0.778
 6072SOL    HW220114   9.131   6.522   0.638
 6073SOL     OW20115   4.882   0.051   8.398
 6073SOL    HW120116   4.792   0.076   8.422
 6073SOL    HW220117   4.938   0.104   8.454
 6074SOL     OW20118   8.329   4.951   2.683
 6074SOL    HW120119   8.265   5.016   2.711
 6074SOL    HW220120   8.397   5.002   2.638
 6075SOL     OW20121   3.000  14.044   1.848
 6075SOL    HW120122   3.026  14.011   1.934
 6075SOL    HW220123   2.966  14.132   1.866
 6076SOL     OW20124  10.494   7.767   3.276
 6076SOL    HW120125  10.416   7.728   3.237
 6076SOL    HW220126  10.540   7.695   3.318
 6077SOL     OW20127   5.189   1.408  14.744
 6077SOL    HW120128   5.248   1.335  14.726
 6077SOL    HW220129   5.244   1.485  14.740
 6078SOL     OW20130   9.001  12.952   7.922
 6078SOL    HW120131   9.092  12.974   7.900
 6078SOL    HW220132   8.986  12.868   7.878
 6079SOL     OW20133  13.815   9.221   7.063
 6079SOL    HW120134  13.732   9.175   7.059
 6079SOL    HW220135  13.831   9.251   6.974
 6080SOL     OW20136   6.794  10.029   9.299
 6080SOL    HW120137   6.750   9.956   9.256
 6080SOL    HW220138   6.724  10.077   9.343
 6081SOL     OW20139  12.402  12.392   1.076
 6081SOL    HW120140  12.474  12.333   1.053
 6081SOL    HW220141  12.351  12.344   1.141
 6082SOL     OW20142  13.691   9.346   2.717
 6082SOL    HW120143  13.753   9.284   2.754
 6082SOL    HW220144  13.695   9.423   2.774
 6083SOL     OW20145  10.881   2.549   7.980
 6083SOL    HW120146  10.896   2.573   8.071
 6083SOL    HW220147  10.788   2.525   7.977
 6084SOL     OW20148   7.659   9.359   9.587
 6084SOL    HW120149   7.571   9.340   9.555
 6084SOL    HW220150   7.702   9.274   9.592
 6085SOL     OW20151  13.590   0.197  10.580
 6085SOL    HW120152  13.541   0.200  10.498
 6085SOL    HW220153  13.681   0.216  10.554
 6086SOL     OW20154   0.345  12.727   0.777
 6086SOL    HW120155   0.304  12.681   0.850
 6086SOL    HW220156   0.391  12.800   0.819
 6087SOL     OW20157   2.205   6.521  11.723
 6087SOL    HW120158   2.288   6.514  11.676
 6087SOL    HW220159   2.138   6.509  11.656
 6088SOL     OW20160   4.990   0.217  14.610
 6088SOL    HW120161   4.954   0.168  14.535
 6088SOL    HW220162   5.003   0.305  14.576
 6089SOL     OW20163  14.016  11.261  10.547
 6089SOL    HW120164  13.959  11.335  10.528
 6089SOL    HW220165  13.956  11.189  10.569
 6090SOL     OW20166   9.735  13.177  11.049
 6090SOL    HW120167   9.662  13.214  11.000
 6090SOL    HW220168   9.721  13.205  11.139
 6091SOL     OW20169  11.828   0.860   9.768
 6091SOL    HW120170  11.861   0.875   9.857
 6091SOL    HW220171  11.875   0.923   9.714
 6092SOL     OW20172   2.727  10.432   4.725
 6092SOL    HW120173   2.670  10.509   4.725
 6092SOL    HW220174   2.692  10.376   4.794
 6093SOL     OW20175  10.781   5.221  12.658
 6093SOL    HW120176  10.873   5.247  12.670
 6093SOL    HW220177  10.731   5.293  12.696
 6094SOL     OW20178   9.738   8.989   1.927
 6094SOL    HW120179   9.790   8.974   2.005
 6094SOL    HW220180   9.791   9.048   1.873
 6095SOL     OW20181   7.060   0.684   0.499
 6095SOL    HW120182   7.123   0.755   0.502
 6095SOL    HW220183   7.113   0.604   0.501
 6096SOL     OW20184   5.278   0.078   6.781
 6096SOL    HW120185   5.270  14.865   6.770
 6096SOL    HW220186   5.341   0.088   6.853
 6097SOL     OW20187   5.675   3.275   1.714
 6097SOL    HW120188   5.750   3.299   1.769
 6097SOL    HW220189   5.684   3.181   1.700
 6098SOL     OW20190   6.866   4.850   2.394
 6098SOL    HW120191   6.869   4.776   2.334
 6098SOL    HW220192   6.784   4.895   2.374
 6099SOL     OW20193   5.545  14.270  12.312
 6099SOL    HW120194   5.575  14.249  12.224
 6099SOL    HW220195   5.549  14.365  12.318
 6100SOL     OW20196  12.549  10.148   9.551
 6100SOL    HW120197  12.587  10.112   9.471
 6100SOL    HW220198  12.545  10.075   9.612
 6101SOL     OW20199   9.867   8.428   1.926
 6101SOL    HW120200   9.847   8.352   1.871
 6101SOL    HW220201   9.958   8.415   1.952
 6102SOL     OW20202   9.911   0.464   2.578
 6102SOL    HW120203  10.004   0.480   2.560
 6102SOL    HW220204   9.910   0.426   2.666
 6103SOL     OW20205  12.329   7.011   5.290
 6103SOL    HW120206  12.265   7.034   5.357
 6103SOL    HW220207  12.302   7.062   5.213
 6104SOL     OW20208   4.919  13.300   0.521
 6104SOL    HW120209   4.875  13.355   0.456
 6104SOL    HW220210   5.012  13.322   0.513
 6105SOL     OW20211  11.705   8.656   1.411
 6105SOL    HW120212  11.754   8.728   1.370
 6105SOL    HW220213  11.615   8.667   1.380
 6106SOL     OW20214   3.452   7.489  13.098
 6106SOL    HW120215   3.535   7.452  13.068
 6106SOL    HW220216   3.458   7.582  13.077
 6107SOL     OW20217   6.957  13.918   8.270
 6107SOL    HW120218   6.875  13.904   8.222
 6107SOL    HW220219   7.017  13.952   8.204
 6108SOL     OW20220   4.204  11.480   9.892
 6108SOL    HW120221   4.298  11.463   9.904
 6108SOL    HW220222   4.162  11.430   9.962
 6109SOL     OW20223   1.803  13.191  14.128
 6109SOL    HW120224   1.831  13.153  14.211
 6109SOL    HW220225   1.875  13.174  14.068
 6110SOL     OW20226   2.140   8.654   8.834
 6110SOL    HW120227   2.226   8.635   8.871
 6110SOL    HW220228   2.137   8.749   8.825
 6111SOL     OW20229   8.671  11.722  10.604
 6111SOL    HW120230   8.614  11.696  10.532
 6111SOL    HW220231   8.755  11.743  10.562
 6112SOL     OW20232   4.055  12.773   6.614
 6112SOL    HW120233   4.032  12.817   6.532
 6112SOL    HW220234   3.992  12.806   6.678
 6113SOL     OW20235   7.450   0.694  14.680
 6113SOL    HW120236   7.469   0.698  14.587
 6113SOL    HW220237   7.512   0.630  14.715
 6114SOL     OW20238   9.201   1.617   8.010
 6114SOL    HW120239   9.243   1.702   8.019
 6114SOL    HW220240   9.129   1.619   8.074
 6115SOL     OW20241   9.133  10.965   5.658
 6115SOL    HW120242   9.168  11.013   5.583
 6115SOL    HW220243   9.173  11.006   5.734
 6116SOL     OW20244   7.954   5.504   4.752
 6116SOL    HW120245   7.868   5.519   4.714
 6116SOL    HW220246   7.939   5.498   4.846
 6117SOL     OW20247   4.520   0.882   9.365
 6117SOL    HW120248   4.425   0.885   9.371
 6117SOL    HW220249   4.551   0.947   9.427
 6118SOL     OW20250   1.805   8.457   7.049
 6118SOL    HW120251   1.782   8.518   6.978
 6118SOL    HW220252   1.889   8.420   7.021
 6119SOL     OW20253   0.907   9.293  12.727
 6119SOL    HW120254   0.994   9.253  12.719
 6119SOL    HW220255   0.922   9.385  12.705
 6120SOL     OW20256   0.668   5.643   9.137
 6120SOL    HW120257   0.718   5.593   9.201
 6120SOL    HW220258   0.662   5.731   9.175
 6121SOL     OW20259   1.839   4.107   3.338
 6121SOL    HW120260   1.923   4.121   3.293
 6121SOL    HW220261   1.849   4.023   3.381
 6122SOL     OW20262  13.398   5.317   4.541
 6122SOL    HW120263  13.388   5.387   4.606
 6122SOL    HW220264  13.448   5.249   4.585
 6123SOL     OW20265   1.348  13.304   4.657
 6123SOL    HW120266   1.438  13.312   4.626
 6123SOL    HW220267   1.356  13.277   4.748
 6124SOL     OW20268  14.196   3.403  10.809
 6124SOL    HW120269  14.273   3.459  10.821
 6124SOL    HW220270  14.146   3.446  10.739
 6125SOL     OW20271   6.268   5.819   1.014
 6125SOL    HW120272   6.281   5.903   0.969
 6125SOL    HW220273   6.356   5.789   1.035
 6126SOL     OW20274   5.389  10.271  13.617
 6126SOL    HW120275   5.387  10.184  13.577
 6126SOL    HW220276   5.471  10.274  13.665
 6127SOL     OW20277   3.381   1.991   0.958
 6127SOL    HW120278   3.387   2.020   0.867
 6127SOL    HW220279   3.348   1.902   0.952
 6128SOL     OW20280   2.712  11.827   8.809
 6128SOL    HW120281   2.651  11.869   8.871
 6128SOL    HW220282   2.682  11.737   8.803
 6129SOL     OW20283   6.576   1.065   6.469
 6129SOL    HW120284   6.544   0.977   6.452
 6129SOL    HW220285   6.553   1.114   6.390
 6130SOL     OW20286   8.245  14.552   8.217
 6130SOL    HW120287   8.183  14.569   8.147
 6130SOL    HW220288   8.211  14.599   8.293
 6131SOL     OW20289   5.538   5.970   9.251
 6131SOL    HW120290   5.544   5.877   9.270
 6131SOL    HW220291   5.629   6.000   9.246
 6132SOL     OW20292   4.348   8.835   7.472
 6132SOL    HW120293   4.270   8.848   7.525
 6132SOL    HW220294   4.391   8.758   7.510
 6133SOL     OW20295   3.142  10.979  14.406
 6133SOL    HW120296   3.093  10.898  14.420
 6133SOL    HW220297   3.225  10.951  14.366
 6134SOL     OW20298   2.170   1.219   8.390
 6134SOL    HW120299   2.180   1.314   8.392
 6134SOL    HW220300   2.123   1.202   8.308
 6135SOL     OW20301  10.552   6.211   5.791
 6135SOL    HW120302  10.622   6.190   5.730
 6135SOL    HW220303  10.487   6.258   5.738
 6136SOL     OW20304   5.738  13.708  12.156
 6136SOL    HW120305   5.650  13.674  12.170
 6136SOL    HW220306   5.764  13.743  12.242
 6137SOL     OW20307   6.629   8.353  13.978
 6137SOL    HW120308   6.660   8.437  14.013
 6137SOL    HW220309   6.541   8.372  13.946
 6138SOL     OW20310   5.756   6.403   0.760
 6138SOL    HW120311   5.706   6.453   0.824
 6138SOL    HW220312   5.767   6.317   0.802
 6139SOL     OW20313   9.409  10.930  12.757
 6139SOL    HW120314   9.501  10.929  12.784
 6139SOL    HW220315   9.401  11.006  12.699
 6140SOL     OW20316   2.171   5.730   2.591
 6140SOL    HW120317   2.089   5.771   2.564
 6140SOL    HW220318   2.234   5.802   2.595
 6141SOL     OW20319   5.186  11.915   7.717
 6141SOL    HW120320   5.154  11.984   7.658
 6141SOL    HW220321   5.276  11.899   7.687
 6142SOL     OW20322   6.908   1.139  13.848
 6142SOL    HW120323   7.002   1.157  13.843
 6142SOL    HW220324   6.883   1.117  13.759
 6143SOL     OW20325  14.276   3.455  12.888
 6143SOL    HW120326  14.264   3.529  12.829
 6143SOL    HW220327  14.290   3.495  12.974
 6144SOL     OW20328  11.414   4.208  14.411
 6144SOL    HW120329  11.495   4.216  14.361
 6144SOL    HW220330  11.353   4.267  14.367
 6145SOL     OW20331   1.450  11.711   8.556
 6145SOL    HW120332   1.442  11.797   8.516
 6145SOL    HW220333   1.508  11.725   8.631
 6146SOL     OW20334   7.036  14.403   2.373
 6146SOL    HW120335   7.040  14.379   2.465
 6146SOL    HW220336   7.127  14.420   2.348
 6147SOL     OW20337   5.204   5.732   8.411
 6147SOL    HW120338   5.159   5.788   8.474
 6147SOL    HW220339   5.134   5.682   8.369
 6148SOL     OW20340   1.986   8.574   9.793
 6148SOL    HW120341   2.011   8.631   9.866
 6148SOL    HW220342   1.905   8.611   9.760
 6149SOL     OW20343  10.535  11.571   1.096
 6149SOL    HW120344  10.461  11.546   1.040
 6149SOL    HW220345  10.535  11.506   1.166
 6150SOL     OW20346  12.839   2.790  12.407
 6150SOL    HW120347  12.900   2.765  12.338
 6150SOL    HW220348  12.822   2.708  12.455
 6151SOL     OW20349  12.676   2.198   2.092
 6151SOL    HW120350  12.642   2.226   2.177
 6151SOL    HW220351  12.690   2.104   2.102
 6152SOL     OW20352  14.086  13.101  14.741
 6152SOL    HW120353  14.179  13.101  14.764
 6152SOL    HW220354  14.078  13.167  14.671
 6153SOL     OW20355   6.570   7.867   3.852
 6153SOL    HW120356   6.654   7.895   3.889
 6153SOL    HW220357   6.523   7.827   3.926
 6154SOL     OW20358   9.697   7.208   1.609
 6154SOL    HW120359   9.701   7.247   1.697
 6154SOL    HW220360   9.705   7.114   1.624
 6155SOL     OW20361   5.935  13.032   8.377
 6155SOL    HW120362   5.881  13.077   8.441
 6155SOL    HW220363   6.013  13.087   8.368
 6156SOL     OW20364   3.883   2.956   0.773
 6156SOL    HW120365   3.955   3.018   0.784
 6156SOL    HW220366   3.807   3.000   0.813
 6157SOL     OW20367  13.364   4.595   3.774
 6157SOL    HW120368  13.393   4.661   3.711
 6157SOL    HW220369  13.331   4.523   3.720
 6158SOL     OW20370  11.477   9.970   8.455
 6158SOL    HW120371  11.497  10.026   8.530
 6158SOL    HW220372  11.385   9.947   8.466
 6159SOL     OW20373  13.436   2.204   3.333
 6159SOL    HW120374  13.391   2.278   3.292
 6159SOL    HW220375  13.464   2.237   3.419
 6160SOL     OW20376  13.982   7.017  11.774
 6160SOL    HW120377  14.038   7.088  11.804
 6160SOL    HW220378  13.927   7.056  11.707
 6161SOL     OW20379   9.202   4.232  11.179
 6161SOL    HW120380   9.222   4.139  11.175
 6161SOL    HW220381   9.281   4.275  11.148
 6162SOL     OW20382  14.202   7.828   7.734
 6162SOL    HW120383  14.206   7.916   7.696
 6162SOL    HW220384  14.163   7.774   7.666
 6163SOL     OW20385   8.202   1.934  10.274
 6163SOL    HW120386   8.178   1.926  10.182
 6163SOL    HW220387   8.198   2.028  10.292
 6164SOL     OW20388   1.227   4.480   6.989
 6164SOL    HW120389   1.153   4.489   7.049
 6164SOL    HW220390   1.244   4.386   6.986
 6165SOL     OW20391   2.851  13.009   8.376
 6165SOL    HW120392   2.893  13.055   8.303
 6165SOL    HW220393   2.920  13.002   8.443
 6166SOL     OW20394   4.524   0.522  11.071
 6166SOL    HW120395   4.601   0.494  11.022
 6166SOL    HW220396   4.501   0.607  11.033
 6167SOL     OW20397  12.443   2.562  10.047
 6167SOL    HW120398  12.395   2.483  10.021
 6167SOL    HW220399  12.411   2.581  10.135
 6168SOL     OW20400   1.620  12.669   7.092
 6168SOL    HW120401   1.715  12.677   7.104
 6168SOL    HW220402   1.609  12.594   7.034
 6169SOL     OW20403   3.421   0.561  11.277
 6169SOL    HW120404   3.485   0.495  11.250
 6169SOL    HW220405   3.350   0.510  11.317
 6170SOL     OW20406   4.795   5.311   5.649
 6170SOL    HW120407   4.746   5.266   5.718
 6170SOL    HW220408   4.734   5.379   5.617
 6171SOL     OW20409   1.808  14.169  12.608
 6171SOL    HW120410   1.853  14.249  12.580
 6171SOL    HW220411   1.858  14.098  12.567
 6172SOL     OW20412  14.602  12.202   6.052
 6172SOL    HW120413  14.592  12.295   6.070
 6172SOL    HW220414  14.513  12.166   6.057
 6173SOL     OW20415   9.295   1.034   4.146
 6173SOL    HW120416   9.231   1.007   4.081
 6173SOL    HW220417   9.262   1.117   4.181
 6174SOL     OW20418   1.004   6.540   6.373
 6174SOL    HW120419   1.078   6.560   6.315
 6174SOL    HW220420   0.954   6.621   6.377
 6175SOL     OW20421  10.633   0.820   0.336
 6175SOL    HW120422  10.667   0.735   0.308
 6175SOL    HW220423  10.658   0.826   0.428
 6176SOL     OW20424   6.031   5.063  13.495
 6176SOL    HW120425   6.060   4.976  13.521
 6176SOL    HW220426   6.110   5.117  13.501
 6177SOL     OW20427   2.732   3.226  11.660
 6177SOL    HW120428   2.665   3.166  11.694
 6177SOL    HW220429   2.749   3.286  11.732
 6178SOL     OW20430   4.571   8.237  11.047
 6178SOL    HW120431   4.602   8.307  10.989
 6178SOL    HW220432   4.540   8.168  10.988
 6179SOL     OW20433   7.033  11.421   3.949
 6179SOL    HW120434   7.086  11.500   3.955
 6179SOL    HW220435   7.092  11.355   3.913
 6180SOL     OW20436   7.076   4.296   7.217
 6180SOL    HW120437   7.045   4.223   7.270
 6180SOL    HW220438   7.138   4.257   7.156
 6181SOL     OW20439  10.110  11.890   4.936
 6181SOL    HW120440  10.104  11.986   4.935
 6181SOL    HW220441  10.065  11.864   5.016
 6182SOL     OW20442   9.669   6.726   0.769
 6182SOL    HW120443   9.643   6.650   0.717
 6182SOL    HW220444   9.607   6.727   0.842
 6183SOL     OW20445   8.198   9.275   0.102
 6183SOL    HW120446   8.233   9.253   0.189
 6183SOL    HW220447   8.152   9.196   0.074
 6184SOL     OW20448   8.356   2.931  12.161
 6184SOL    HW120449   8.272   2.886  12.156
 6184SOL    HW220450   8.339   3.019  12.127
 6185SOL     OW20451   0.872   4.316  12.556
 6185SOL    HW120452   0.958   4.309  12.516
 6185SOL    HW220453   0.871   4.249  12.624
 6186SOL     OW20454  13.671   6.517   2.730
 6186SOL    HW120455  13.683   6.533   2.823
 6186SOL    HW220456  13.588   6.561   2.708
 6187SOL     OW20457   3.070   3.296  12.619
 6187SOL    HW120458   2.978   3.305  12.592
 6187SOL    HW220459   3.081   3.363  12.686
 6188SOL     OW20460  14.652  10.721   0.667
 6188SOL    HW120461  14.647  10.815   0.654
 6188SOL    HW220462  14.561  10.692   0.666
 6189SOL     OW20463   5.070  10.417   0.856
 6189SOL    HW120464   5.098  10.394   0.945
 6189SOL    HW220465   5.149  10.450   0.814
 6190SOL     OW20466  14.195  13.882  13.724
 6190SOL    HW120467  14.139  13.957  13.741
 6190SOL    HW220468  14.282  13.920  13.711
 6191SOL     OW20469   0.196   9.484   8.893
 6191SOL    HW120470   0.100   9.480   8.891
 6191SOL    HW220471   0.217   9.515   8.981
 6192SOL     OW20472   6.214   7.425  12.045
 6192SOL    HW120473   6.192   7.518  12.056
 6192SOL    HW220474   6.222   7.392  12.135
 6193SOL     OW20475  13.829   6.737  14.484
 6193SOL    HW120476  13.734   6.745  14.476
 6193SOL    HW220477  13.861   6.734  14.394
 6194SOL     OW20478  11.123   6.487  13.977
 6194SOL    HW120479  11.171   6.555  14.024
 6194SOL    HW220480  11.032   6.515  13.981
 6195SOL     OW20481  12.065  10.791  12.146
 6195SOL    HW120482  12.109  10.801  12.062
 6195SOL    HW220483  11.978  10.759  12.123
 6196SOL     OW20484   2.889  13.979   2.693
 6196SOL    HW120485   2.980  13.963   2.669
 6196SOL    HW220486   2.891  13.986   2.789
 6197SOL     OW20487   3.995   6.324  11.108
 6197SOL    HW120488   4.075   6.371  11.084
 6197SOL    HW220489   3.932   6.392  11.129
 6198SOL     OW20490   7.396   6.783  10.048
 6198SOL    HW120491   7.356   6.861  10.008
 6198SOL    HW220492   7.485   6.782  10.014
 6199SOL     OW20493   8.646   8.326  13.541
 6199SOL    HW120494   8.718   8.355  13.598
 6199SOL    HW220495   8.657   8.231  13.537
 6200SOL     OW20496  13.960   4.819   3.154
 6200SOL    HW120497  13.947   4.841   3.246
 6200SOL    HW220498  13.931   4.728   3.147
 6201SOL     OW20499   9.552   2.721  14.575
 6201SOL    HW120500   9.549   2.689  14.485
 6201SOL    HW220501   9.512   2.651  14.626
 6202SOL     OW20502   7.800   9.119   5.503
 6202SOL    HW120503   7.749   9.150   5.428
 6202SOL    HW220504   7.782   9.182   5.572
 6203SOL     OW20505  13.209  11.230  14.825
 6203SOL    HW120506  13.164  11.258   0.023
 6203SOL    HW220507  13.145  11.244  14.755
 6204SOL     OW20508   4.325  10.581  12.388
 6204SOL    HW120509   4.277  10.603  12.468
 6204SOL    HW220510   4.409  10.547  12.420
 6205SOL     OW20511  14.462   0.167   3.337
 6205SOL    HW120512  14.509   0.137   3.416
 6205SOL    HW220513  14.370   0.152   3.357
 6206SOL     OW20514  13.800   4.113   3.817
 6206SOL    HW120515  13.778   4.134   3.908
 6206SOL    HW220516  13.720   4.074   3.782
 6207SOL     OW20517   1.902  13.474  14.850
 6207SOL    HW120518   1.927  13.517   0.049
 6207SOL    HW220519   1.971  13.496  14.788
 6208SOL     OW20520   8.001   7.600   1.835
 6208SOL    HW120521   7.933   7.663   1.858
 6208SOL    HW220522   7.954   7.518   1.821
 6209SOL     OW20523   0.877   0.231   7.340
 6209SOL    HW120524   0.805   0.289   7.365
 6209SOL    HW220525   0.932   0.285   7.284
 6210SOL     OW20526   7.788  10.853  13.221
 6210SOL    HW120527   7.822  10.824  13.306
 6210SOL    HW220528   7.833  10.936  13.205
 6211SOL     OW20529   3.925   6.994   5.963
 6211SOL    HW120530   4.010   6.983   6.006
 6211SOL    HW220531   3.900   7.084   5.981
 6212SOL     OW20532   4.541  10.992   9.893
 6212SOL    HW120533   4.567  10.972   9.983
 6212SOL    HW220534   4.568  10.914   9.844
 6213SOL     OW20535  10.205   0.174   1.931
 6213SOL    HW120536  10.189   0.244   1.868
 6213SOL    HW220537  10.118   0.144   1.957
 6214SOL     OW20538  12.426   8.308   6.574
 6214SOL    HW120539  12.482   8.285   6.500
 6214SOL    HW220540  12.460   8.255   6.647
 6215SOL     OW20541   9.333  13.187   0.298
 6215SOL    HW120542   9.309  13.202   0.206
 6215SOL    HW220543   9.368  13.098   0.299
 6216SOL     OW20544  14.126   8.644  12.207
 6216SOL    HW120545  14.070   8.566  12.214
 6216SOL    HW220546  14.110   8.678  12.119
 6217SOL     OW20547   2.149   5.633  11.696
 6217SOL    HW120548   2.179   5.615  11.607
 6217SOL    HW220549   2.215   5.592  11.752
 6218SOL     OW20550  10.746   4.542   4.801
 6218SOL    HW120551  10.741   4.611   4.868
 6218SOL    HW220552  10.839   4.530   4.785
 6219SOL     OW20553  12.431   7.738   7.792
 6219SOL    HW120554  12.413   7.682   7.716
 6219SOL    HW220555  12.525   7.728   7.807
 6220SOL     OW20556  14.142  12.619   4.946
 6220SOL    HW120557  14.191  12.699   4.965
 6220SOL    HW220558  14.091  12.602   5.025
 6221SOL     OW20559   0.936   2.764   5.405
 6221SOL    HW120560   0.917   2.858   5.417
 6221SOL    HW220561   1.030   2.756   5.419
 6222SOL     OW20562  14.533   8.988   8.973
 6222SOL    HW120563  14.574   8.903   8.958
 6222SOL    HW220564  14.511   9.020   8.885
 6223SOL     OW20565   6.691   3.788   7.095
 6223SOL    HW120566   6.603   3.824   7.095
 6223SOL    HW220567   6.679   3.694   7.083
 6224SOL     OW20568   7.601  14.104  14.081
 6224SOL    HW120569   7.572  14.025  14.036
 6224SOL    HW220570   7.651  14.152  14.014
 6225SOL     OW20571   5.662  12.465   0.079
 6225SOL    HW120572   5.654  12.507   0.165
 6225SOL    HW220573   5.716  12.526   0.028
 6226SOL     OW20574   6.468   5.015  11.790
 6226SOL    HW120575   6.391   5.053  11.831
 6226SOL    HW220576   6.465   5.044  11.699
 6227SOL     OW20577   8.192   0.705  10.834
 6227SOL    HW120578   8.159   0.683  10.747
 6227SOL    HW220579   8.262   0.768  10.818
 6228SOL     OW20580  14.165   7.274   4.480
 6228SOL    HW120581  14.095   7.273   4.414
 6228SOL    HW220582  14.162   7.186   4.518
 6229SOL     OW20583  14.553  12.282  11.280
 6229SOL    HW120584  14.548  12.345  11.351
 6229SOL    HW220585  14.483  12.307  11.220
 6230SOL     OW20586   3.218   7.204   6.747
 6230SOL    HW120587   3.311   7.224   6.738
 6230SOL    HW220588   3.175   7.258   6.680
 6231SOL     OW20589  13.717   9.739  11.144
 6231SOL    HW120590  13.629   9.728  11.111
 6231SOL    HW220591  13.750   9.819  11.101
 6232SOL     OW20592   6.392   1.442   3.818
 6232SOL    HW120593   6.474   1.482   3.790
 6232SOL    HW220594   6.382   1.468   3.909
 6233SOL     OW20595   2.213   9.123   4.586
 6233SOL    HW120596   2.120   9.143   4.591
 6233SOL    HW220597   2.253   9.180   4.652
 6234SOL     OW20598   3.795  11.378   4.341
 6234SOL    HW120599   3.709  11.349   4.371
 6234SOL    HW220600   3.856  11.319   4.386
 6235SOL     OW20601   5.981  11.305  13.021
 6235SOL    HW120602   6.042  11.371  13.055
 6235SOL    HW220603   5.994  11.229  13.078
 6236SOL     OW20604   5.554   8.776   3.862
 6236SOL    HW120605   5.561   8.800   3.770
 6236SOL    HW220606   5.555   8.680   3.862
 6237SOL     OW20607  13.165   4.832   0.940
 6237SOL    HW120608  13.167   4.853   1.033
 6237SOL    HW220609  13.175   4.737   0.936
 6238SOL     OW20610  11.671  11.903   1.031
 6238SOL    HW120611  11.594  11.944   0.993
 6238SOL    HW220612  11.678  11.819   0.986
 6239SOL     OW20613  12.291   2.837  12.475
 6239SOL    HW120614  12.250   2.754  12.452
 6239SOL    HW220615  12.245   2.902  12.421
 6240SOL     OW20616   0.386   3.088   1.822
 6240SOL    HW120617   0.403   3.149   1.893
 6240SOL    HW220618   0.443   3.118   1.750
 6241SOL     OW20619  14.466   0.951   6.591
 6241SOL    HW120620  14.379   0.926   6.558
 6241SOL    HW220621  14.523   0.946   6.515
 6242SOL     OW20622   6.291   2.380  11.549
 6242SOL    HW120623   6.296   2.318  11.621
 6242SOL    HW220624   6.374   2.369  11.502
 6243SOL     OW20625   5.495   8.380   0.419
 6243SOL    HW120626   5.477   8.407   0.510
 6243SOL    HW220627   5.590   8.376   0.414
 6244SOL     OW20628   4.312  13.045   7.889
 6244SOL    HW120629   4.362  13.013   7.814
 6244SOL    HW220630   4.377  13.059   7.957
 6245SOL     OW20631  14.878  12.796   0.014
 6245SOL    HW120632   0.016  12.706  14.874
 6245SOL    HW220633  14.782  12.800   0.011
 6246SOL     OW20634   1.718   8.670  14.603
 6246SOL    HW120635   1.732   8.610  14.530
 6246SOL    HW220636   1.622   8.677  14.611
 6247SOL     OW20637  14.753   6.894   5.956
 6247SOL    HW120638  14.803   6.915   5.877
 6247SOL    HW220639  14.709   6.811   5.935
 6248SOL     OW20640   0.545   6.936   9.902
 6248SOL    HW120641   0.626   6.946   9.953
 6248SOL    HW220642   0.477   6.923   9.968
 6249SOL     OW20643  13.066  13.194   4.184
 6249SOL    HW120644  13.021  13.275   4.161
 6249SOL    HW220645  13.052  13.185   4.279
 6250SOL     OW20646   6.011   9.808   9.014
 6250SOL    HW120647   6.037   9.718   8.995
 6250SOL    HW220648   6.092   9.851   9.042
 6251SOL     OW20649  10.924   6.422   5.787
 6251SOL    HW120650  10.908   6.418   5.693
 6251SOL    HW220651  10.857   6.483   5.820
 6252SOL     OW20652   5.152   9.655   9.085
 6252SOL    HW120653   5.129   9.565   9.065
 6252SOL    HW220654   5.209   9.650   9.161
 6253SOL     OW20655  10.751   0.425  12.410
 6253SOL    HW120656  10.833   0.393  12.447
 6253SOL    HW220657  10.770   0.440  12.318
 6254SOL     OW20658   7.750   8.707   9.841
 6254SOL    HW120659   7.807   8.741   9.910
 6254SOL    HW220660   7.810   8.677   9.773
 6255SOL     OW20661   4.072   4.741   7.835
 6255SOL    HW120662   4.033   4.811   7.887
 6255SOL    HW220663   4.080   4.779   7.747
 6256SOL     OW20664   8.121   6.510   3.233
 6256SOL    HW120665   8.143   6.536   3.322
 6256SOL    HW220666   8.039   6.461   3.241
 6257SOL     OW20667   7.287   6.538   2.000
 6257SOL    HW120668   7.315   6.577   1.917
 6257SOL    HW220669   7.194   6.517   1.987
 6258SOL     OW20670  12.818   6.908   5.754
 6258SOL    HW120671  12.807   7.001   5.773
 6258SOL    HW220672  12.738   6.883   5.709
 6259SOL     OW20673   7.655  10.783  10.116
 6259SOL    HW120674   7.597  10.730  10.170
 6259SOL    HW220675   7.710  10.719  10.071
 6260SOL     OW20676   3.069   5.194   6.855
 6260SOL    HW120677   3.127   5.219   6.783
 6260SOL    HW220678   2.992   5.251   6.845
 6261SOL     OW20679   8.381  10.068   5.391
 6261SOL    HW120680   8.373  10.053   5.485
 6261SOL    HW220681   8.320  10.140   5.373
 6262SOL     OW20682   7.182  13.246   0.938
 6262SOL    HW120683   7.214  13.336   0.945
 6262SOL    HW220684   7.177  13.230   0.843
 6263SOL     OW20685   3.445   6.090   9.509
 6263SOL    HW120686   3.458   6.099   9.604
 6263SOL    HW220687   3.416   6.000   9.498
 6264SOL     OW20688   6.722   3.901  13.438
 6264SOL    HW120689   6.766   3.925  13.520
 6264SOL    HW220690   6.669   3.978  13.416
 6265SOL     OW20691   7.408  10.913   2.441
 6265SOL    HW120692   7.341  10.972   2.404
 6265SOL    HW220693   7.358  10.838   2.474
 6266SOL     OW20694   7.681   8.208  12.718
 6266SOL    HW120695   7.661   8.117  12.693
 6266SOL    HW220696   7.777   8.213  12.715
 6267SOL     OW20697   5.155   2.733   7.117
 6267SOL    HW120698   5.063   2.748   7.139
 6267SOL    HW220699   5.157   2.645   7.080
 6268SOL     OW20700   2.665   7.296  12.368
 6268SOL    HW120701   2.679   7.212  12.325
 6268SOL    HW220702   2.610   7.275  12.443
 6269SOL     OW20703  12.600   0.546   2.148
 6269SOL    HW120704  12.629   0.637   2.149
 6269SOL    HW220705  12.598   0.522   2.055
 6270SOL     OW20706  10.798  11.882  12.914
 6270SOL    HW120707  10.749  11.920  12.842
 6270SOL    HW220708  10.771  11.932  12.991
 6271SOL     OW20709   0.439   2.276   6.837
 6271SOL    HW120710   0.513   2.320   6.879
 6271SOL    HW220711   0.365   2.334   6.853
 6272SOL     OW20712   5.335   9.373   3.954
 6272SOL    HW120713   5.356   9.457   3.995
 6272SOL    HW220714   5.240   9.376   3.940
 6273SOL     OW20715  12.527   6.452   1.655
 6273SOL    HW120716  12.608   6.415   1.690
 6273SOL    HW220717  12.524   6.420   1.565
 6274SOL     OW20718   0.959  13.405  13.468
 6274SOL    HW120719   0.909  13.411  13.550
 6274SOL    HW220720   0.936  13.319  13.432
 6275SOL     OW20721   6.254  12.562  13.363
 6275SOL    HW120722   6.160  12.580  13.363
 6275SOL    HW220723   6.289  12.616  13.292
 6276SOL     OW20724  11.480  10.534   7.401
 6276SOL    HW120725  11.518  10.599   7.460
 6276SOL    HW220726  11.391  10.565   7.386
 6277SOL     OW20727   2.097   9.786  10.918
 6277SOL    HW120728   2.166   9.779  10.985
 6277SOL    HW220729   2.016   9.775  10.967
 6278SOL     OW20730  14.800  11.223  10.906
 6278SOL    HW120731  14.717  11.222  10.858
 6278SOL    HW220732  14.851  11.152  10.867
 6279SOL     OW20733  10.880   4.912   6.549
 6279SOL    HW120734  10.957   4.878   6.594
 6279SOL    HW220735  10.913   4.941   6.464
 6280SOL     OW20736   6.891   6.686  13.709
 6280SOL    HW120737   6.868   6.626  13.638
 6280SOL    HW220738   6.886   6.773  13.669
 6281SOL     OW20739  12.063  10.986   8.041
 6281SOL    HW120740  12.006  11.046   7.993
 6281SOL    HW220741  12.007  10.950   8.110
 6282SOL     OW20742   8.352   7.990  14.601
 6282SOL    HW120743   8.321   7.961  14.516
 6282SOL    HW220744   8.388   8.077  14.585
 6283SOL     OW20745   8.006   8.347   9.093
 6283SOL    HW120746   8.009   8.257   9.062
 6283SOL    HW220747   8.015   8.341   9.188
 6284SOL     OW20748   7.773   7.977   6.584
 6284SOL    HW120749   7.817   7.907   6.631
 6284SOL    HW220750   7.844   8.034   6.554
 6285SOL     OW20751   9.120   7.782   5.224
 6285SOL    HW120752   9.133   7.854   5.163
 6285SOL    HW220753   9.133   7.703   5.172
 6286SOL     OW20754   8.554  12.606  13.351
 6286SOL    HW120755   8.614  12.539  13.385
 6286SOL    HW220756   8.478  12.601  13.410
 6287SOL     OW20757   0.751  13.009  10.019
 6287SOL    HW120758   0.669  12.989   9.974
 6287SOL    HW220759   0.735  13.092  10.063
 6288SOL     OW20760   4.666  14.282  14.310
 6288SOL    HW120761   4.727  14.261  14.381
 6288SOL    HW220762   4.618  14.358  14.341
 6289SOL     OW20763   7.650   1.898  14.621
 6289SOL    HW120764   7.554   1.892  14.620
 6289SOL    HW220765   7.675   1.857  14.703
 6290SOL     OW20766   1.547   2.425   6.380
 6290SOL    HW120767   1.575   2.364   6.448
 6290SOL    HW220768   1.595   2.398   6.301
 6291SOL     OW20769   1.975   5.927   1.460
 6291SOL    HW120770   1.912   5.893   1.397
 6291SOL    HW220771   1.923   5.943   1.539
 6292SOL     OW20772   8.438   8.479   3.715
 6292SOL    HW120773   8.427   8.477   3.810
 6292SOL    HW220774   8.434   8.387   3.688
 6293SOL     OW20775   2.005   2.453   0.319
 6293SOL    HW120776   1.947   2.378   0.308
 6293SOL    HW220777   2.052   2.459   0.235
 6294SOL     OW20778   0.969   1.609   4.365
 6294SOL    HW120779   0.972   1.513   4.370
 6294SOL    HW220780   0.877   1.631   4.375
 6295SOL     OW20781   4.711  14.003  11.584
 6295SOL    HW120782   4.758  13.920  11.574
 6295SOL    HW220783   4.685  14.005  11.676
 6296SOL     OW20784   3.217   8.330  12.676
 6296SOL    HW120785   3.217   8.390  12.750
 6296SOL    HW220786   3.209   8.243  12.715
 6297SOL     OW20787  10.426  11.769   4.328
 6297SOL    HW120788  10.517  11.740   4.320
 6297SOL    HW220789  10.429  11.863   4.314
 6298SOL     OW20790  12.135  10.788  11.107
 6298SOL    HW120791  12.085  10.721  11.060
 6298SOL    HW220792  12.227  10.766  11.088
 6299SOL     OW20793   8.880   9.815  10.539
 6299SOL    HW120794   8.976   9.817  10.535
 6299SOL    HW220795   8.857   9.723  10.528
 6300SOL     OW20796   0.236   4.902  11.290
 6300SOL    HW120797   0.327   4.875  11.297
 6300SOL    HW220798   0.186   4.822  11.305
 6301SOL     OW20799   3.643   4.147   8.637
 6301SOL    HW120800   3.657   4.239   8.615
 6301SOL    HW220801   3.548   4.138   8.641
 6302SOL     OW20802   4.454  13.886  11.847
 6302SOL    HW120803   4.429  13.960  11.792
 6302SOL    HW220804   4.426  13.809  11.798
 6303SOL     OW20805   8.898   8.460   7.265
 6303SOL    HW120806   8.927   8.454   7.356
 6303SOL    HW220807   8.807   8.489   7.271
 6304SOL     OW20808   1.063   6.891  12.701
 6304SOL    HW120809   1.023   6.955  12.642
 6304SOL    HW220810   1.049   6.807  12.658
 6305SOL     OW20811   1.986   5.438  13.464
 6305SOL    HW120812   1.892   5.442  13.448
 6305SOL    HW220813   1.999   5.489  13.544
 6306SOL     OW20814  10.737  13.912  11.960
 6306SOL    HW120815  10.697  13.991  11.996
 6306SOL    HW220816  10.740  13.851  12.033
 6307SOL     OW20817   2.177  13.201   0.819
 6307SOL    HW120818   2.199  13.245   0.901
 6307SOL    HW220819   2.196  13.108   0.836
 6308SOL     OW20820   4.384   5.124  11.166
 6308SOL    HW120821   4.300   5.105  11.123
 6308SOL    HW220822   4.359   5.170  11.246
 6309SOL     OW20823   9.986   7.087   7.062
 6309SOL    HW120824  10.074   7.059   7.036
 6309SOL    HW220825   9.999   7.175   7.098
 6310SOL     OW20826  11.634   0.292   1.221
 6310SOL    HW120827  11.628   0.202   1.189
 6310SOL    HW220828  11.727   0.307   1.235
 6311SOL     OW20829   1.888   2.669   3.773
 6311SOL    HW120830   1.957   2.726   3.739
 6311SOL    HW220831   1.808   2.701   3.734
 6312SOL     OW20832   6.599   0.714  10.258
 6312SOL    HW120833   6.640   0.796  10.285
 6312SOL    HW220834   6.573   0.672  10.341
 6313SOL     OW20835   7.407   7.310   7.552
 6313SOL    HW120836   7.401   7.218   7.529
 6313SOL    HW220837   7.320   7.332   7.586
 6314SOL     OW20838   5.290   4.724  10.656
 6314SOL    HW120839   5.209   4.677  10.680
 6314SOL    HW220840   5.328   4.673  10.585
 6315SOL     OW20841   0.761  12.798   6.657
 6315SOL    HW120842   0.828  12.732   6.637
 6315SOL    HW220843   0.698  12.790   6.585
 6316SOL     OW20844  12.091   6.066   9.305
 6316SOL    HW120845  12.020   6.002   9.304
 6316SOL    HW220846  12.169   6.016   9.280
 6317SOL     OW20847   6.468   2.410   3.945
 6317SOL    HW120848   6.416   2.330   3.945
 6317SOL    HW220849   6.546   2.387   3.996
 6318SOL     OW20850  11.871  10.330   8.989
 6318SOL    HW120851  11.938  10.282   9.039
 6318SOL    HW220852  11.856  10.410   9.039
 6319SOL     OW20853   7.776  10.989   3.866
 6319SOL    HW120854   7.836  11.033   3.806
 6319SOL    HW220855   7.823  10.911   3.895
 6320SOL     OW20856   0.668  12.124  14.667
 6320SOL    HW120857   0.573  12.112  14.658
 6320SOL    HW220858   0.685  12.209  14.627
 6321SOL     OW20859   6.321   2.875   7.371
 6321SOL    HW120860   6.376   2.855   7.447
 6321SOL    HW220861   6.371   2.940   7.322
 6322SOL     OW20862   2.870   9.169  11.933
 6322SOL    HW120863   2.780   9.160  11.965
 6322SOL    HW220864   2.891   9.261  11.950
 6323SOL     OW20865   7.956   9.225   1.918
 6323SOL    HW120866   7.872   9.201   1.957
 6323SOL    HW220867   7.952   9.320   1.907
 6324SOL     OW20868   2.393  12.559   5.520
 6324SOL    HW120869   2.328  12.569   5.450
 6324SOL    HW220870   2.355  12.493   5.579
 6325SOL     OW20871  11.998  11.414   0.417
 6325SOL    HW120872  12.069  11.477   0.428
 6325SOL    HW220873  11.923  11.467   0.389
 6326SOL     OW20874   8.233   4.823   0.054
 6326SOL    HW120875   8.145   4.785   0.056
 6326SOL    HW220876   8.255   4.837   0.146
 6327SOL     OW20877   3.696   5.501   8.515
 6327SOL    HW120878   3.652   5.422   8.483
 6327SOL    HW220879   3.773   5.511   8.458
 6328SOL     OW20880   6.975  10.625  13.997
 6328SOL    HW120881   7.013  10.537  13.993
 6328SOL    HW220882   7.045  10.683  13.966
 6329SOL     OW20883  11.249   7.416   9.532
 6329SOL    HW120884  11.185   7.486   9.516
 6329SOL    HW220885  11.237   7.356   9.458
 6330SOL     OW20886   9.184   5.189  10.162
 6330SOL    HW120887   9.181   5.269  10.110
 6330SOL    HW220888   9.226   5.125  10.105
 6331SOL     OW20889   5.776   8.536   1.046
 6331SOL    HW120890   5.857   8.492   1.073
 6331SOL    HW220891   5.771   8.613   1.103
 6332SOL     OW20892   2.221   3.020   7.121
 6332SOL    HW120893   2.126   3.029   7.123
 6332SOL    HW220894   2.238   2.948   7.061
 6333SOL     OW20895   3.650   8.303  12.510
 6333SOL    HW120896   3.741   8.311  12.482
 6333SOL    HW220897   3.612   8.390  12.494
 6334SOL     OW20898  13.747   9.091   8.560
 6334SOL    HW120899  13.726   9.183   8.544
 6334SOL    HW220900  13.735   9.049   8.475
 6335SOL     OW20901  11.157  13.732   0.148
 6335SOL    HW120902  11.169  13.637   0.136
 6335SOL    HW220903  11.145  13.766   0.060
 6336SOL     OW20904  13.450   9.619   5.073
 6336SOL    HW120905  13.458   9.535   5.120
 6336SOL    HW220906  13.356   9.633   5.066
 6337SOL     OW20907   4.727   4.925   1.049
 6337SOL    HW120908   4.685   4.849   1.008
 6337SOL    HW220909   4.756   4.979   0.975
 6338SOL     OW20910  12.708   9.817   4.726
 6338SOL    HW120911  12.775   9.795   4.791
 6338SOL    HW220912  12.751   9.802   4.641
 6339SOL     OW20913  12.227   2.579   8.023
 6339SOL    HW120914  12.256   2.658   7.978
 6339SOL    HW220915  12.132   2.581   8.016
 6340SOL     OW20916  14.070   1.971  14.056
 6340SOL    HW120917  14.031   2.058  14.047
 6340SOL    HW220918  14.040   1.923  13.979
 6341SOL     OW20919   2.272  13.967   8.968
 6341SOL    HW120920   2.342  13.992   9.029
 6341SOL    HW220921   2.191  13.992   9.013
 6342SOL     OW20922  13.929   2.581  13.690
 6342SOL    HW120923  13.911   2.662  13.736
 6342SOL    HW220924  13.843   2.552  13.659
 6343SOL     OW20925   7.402  10.893   3.112
 6343SOL    HW120926   7.344  10.829   3.071
 6343SOL    HW220927   7.401  10.872   3.205
 6344SOL     OW20928   1.905  14.790  13.540
 6344SOL    HW120929   1.826  14.775  13.592
 6344SOL    HW220930   1.877  14.852  13.472
 6345SOL     OW20931  11.386   1.835   1.785
 6345SOL    HW120932  11.324   1.826   1.857
 6345SOL    HW220933  11.450   1.900   1.816
 6346SOL     OW20934  11.002   6.144   0.559
 6346SOL    HW120935  10.974   6.117   0.472
 6346SOL    HW220936  11.017   6.238   0.551
 6347SOL     OW20937   4.035   9.958   6.415
 6347SOL    HW120938   4.081  10.041   6.427
 6347SOL    HW220939   3.943   9.982   6.406
 6348SOL     OW20940  10.959  11.876   6.975
 6348SOL    HW120941  10.996  11.945   7.030
 6348SOL    HW220942  10.868  11.903   6.961
 6349SOL     OW20943   4.768  12.445   9.763
 6349SOL    HW120944   4.738  12.524   9.808
 6349SOL    HW220945   4.856  12.430   9.796
 6350SOL     OW20946  13.724   6.037   6.027
 6350SOL    HW120947  13.652   5.991   5.985
 6350SOL    HW220948  13.782   6.063   5.955
 6351SOL     OW20949   1.401  12.993  12.754
 6351SOL    HW120950   1.450  13.073  12.772
 6351SOL    HW220951   1.469  12.926  12.745
 6352SOL     OW20952   3.411   4.847   0.119
 6352SOL    HW120953   3.471   4.853   0.193
 6352SOL    HW220954   3.416   4.755   0.091
 6353SOL     OW20955   1.086   1.752   5.513
 6353SOL    HW120956   1.037   1.762   5.595
 6353SOL    HW220957   1.164   1.806   5.524
 6354SOL     OW20958   5.315  10.959  12.301
 6354SOL    HW120959   5.220  10.952  12.306
 6354SOL    HW220960   5.342  10.984  12.389
 6355SOL     OW20961  12.360   1.896  11.196
 6355SOL    HW120962  12.365   1.921  11.288
 6355SOL    HW220963  12.409   1.814  11.190
 6356SOL     OW20964   6.481   4.436  11.066
 6356SOL    HW120965   6.480   4.463  10.975
 6356SOL    HW220966   6.418   4.365  11.072
 6357SOL     OW20967   9.211   7.919   1.643
 6357SOL    HW120968   9.172   8.005   1.652
 6357SOL    HW220969   9.223   7.907   1.549
 6358SOL     OW20970   2.914   0.547   5.188
 6358SOL    HW120971   2.975   0.621   5.193
 6358SOL    HW220972   2.828   0.588   5.180
 6359SOL     OW20973   0.185  13.709   9.961
 6359SOL    HW120974   0.251  13.641   9.972
 6359SOL    HW220975   0.105  13.671   9.997
 6360SOL     OW20976   1.522  11.905   9.746
 6360SOL    HW120977   1.542  11.987   9.790
 6360SOL    HW220978   1.596  11.848   9.766
 6361SOL     OW20979   3.905   6.978   7.377
 6361SOL    HW120980   3.841   7.026   7.325
 6361SOL    HW220981   3.894   7.013   7.466
 6362SOL     OW20982   6.375   3.468  12.624
 6362SOL    HW120983   6.452   3.517  12.596
 6362SOL    HW220984   6.369   3.483  12.718
 6363SOL     OW20985   9.388  13.669   7.944
 6363SOL    HW120986   9.404  13.587   7.989
 6363SOL    HW220987   9.472  13.692   7.904
 6364SOL     OW20988   3.728   0.946   0.078
 6364SOL    HW120989   3.659   0.880   0.081
 6364SOL    HW220990   3.725   0.989   0.163
 6365SOL     OW20991   2.831   4.439  10.833
 6365SOL    HW120992   2.836   4.415  10.740
 6365SOL    HW220993   2.809   4.532  10.831
 6366SOL     OW20994   2.957   6.784  12.419
 6366SOL    HW120995   2.955   6.867  12.371
 6366SOL    HW220996   2.899   6.798  12.494
 6367SOL     OW20997   2.219   3.975   7.885
 6367SOL    HW120998   2.283   3.954   7.816
 6367SOL    HW220999   2.273   4.005   7.958
 6368SOL     OW21000  10.903  14.636  13.813
 6368SOL    HW121001  10.936  14.569  13.753
 6368SOL    HW221002  10.822  14.667  13.772
 6369SOL     OW21003   8.990   5.414   6.047
 6369SOL    HW121004   9.065   5.438   6.101
 6369SOL    HW221005   8.968   5.494   5.999
 6370SOL     OW21006   0.177   0.504   9.072
 6370SOL    HW121007   0.094   0.457   9.080
 6370SOL    HW221008   0.235   0.443   9.027
 6371SOL     OW21009   7.468  10.209   2.640
 6371SOL    HW121010   7.557  10.183   2.665
 6371SOL    HW221011   7.463  10.191   2.547
 6372SOL     OW21012   0.482   5.734   0.981
 6372SOL    HW121013   0.538   5.786   1.038
 6372SOL    HW221014   0.427   5.798   0.936
 6373SOL     OW21015   1.756  10.274  10.336
 6373SOL    HW121016   1.739  10.258  10.429
 6373SOL    HW221017   1.752  10.188  10.295
 6374SOL     OW21018   7.959  12.037   1.801
 6374SOL    HW121019   8.014  11.995   1.867
 6374SOL    HW221020   7.875  11.992   1.808
 6375SOL     OW21021   7.430  10.936  12.609
 6375SOL    HW121022   7.472  11.019  12.631
 6375SOL    HW221023   7.479  10.870  12.659
 6376SOL     OW21024   4.958  14.136   0.354
 6376SOL    HW121025   4.888  14.179   0.404
 6376SOL    HW221026   4.961  14.184   0.271
 6377SOL     OW21027  10.781  10.378   5.609
 6377SOL    HW121028  10.867  10.341   5.631
 6377SOL    HW221029  10.801  10.460   5.564
 6378SOL     OW21030   3.139   6.353   4.346
 6378SOL    HW121031   3.088   6.309   4.415
 6378SOL    HW221032   3.227   6.318   4.356
 6379SOL     OW21033   0.699  12.028  12.875
 6379SOL    HW121034   0.773  12.069  12.919
 6379SOL    HW221035   0.622  12.076  12.908
 6380SOL     OW21036  13.292   0.001  10.464
 6380SOL    HW121037  13.290   0.086  10.420
 6380SOL    HW221038  13.259   0.019  10.552
 6381SOL     OW21039  14.223  14.151   0.524
 6381SOL    HW121040  14.128  14.150   0.512
 6381SOL    HW221041  14.235  14.115   0.612
 6382SOL     OW21042   3.135   7.106  12.911
 6382SOL    HW121043   3.080   7.184  12.924
 6382SOL    HW221044   3.201   7.113  12.979
 6383SOL     OW21045   3.518  13.490  12.784
 6383SOL    HW121046   3.528  13.418  12.721
 6383SOL    HW221047   3.512  13.568  12.729
 6384SOL     OW21048   4.744   7.972   5.216
 6384SOL    HW121049   4.719   8.052   5.262
 6384SOL    HW221050   4.823   7.996   5.167
 6385SOL     OW21051   4.512   4.161   0.565
 6385SOL    HW121052   4.604   4.181   0.581
 6385SOL    HW221053   4.511   4.069   0.538
 6386SOL     OW21054  13.462   6.460   7.596
 6386SOL    HW121055  13.497   6.544   7.567
 6386SOL    HW221056  13.433   6.417   7.515
 6387SOL     OW21057   7.250  13.677  12.016
 6387SOL    HW121058   7.175  13.661  12.074
 6387SOL    HW221059   7.321  13.703  12.075
 6388SOL     OW21060   4.685   8.517   9.624
 6388SOL    HW121061   4.762   8.572   9.611
 6388SOL    HW221062   4.673   8.514   9.719
 6389SOL     OW21063  11.958   4.367  12.964
 6389SOL    HW121064  11.882   4.320  12.996
 6389SOL    HW221065  11.929   4.408  12.883
 6390SOL     OW21066   3.357   6.643   8.846
 6390SOL    HW121067   3.443   6.642   8.804
 6390SOL    HW221068   3.295   6.637   8.774
 6391SOL     OW21069   9.565  13.989   6.386
 6391SOL    HW121070   9.547  13.996   6.480
 6391SOL    HW221071   9.608  14.072   6.364
 6392SOL     OW21072   6.605   2.217  10.821
 6392SOL    HW121073   6.522   2.219  10.869
 6392SOL    HW221074   6.598   2.288  10.758
 6393SOL     OW21075   5.258  14.067   0.473
 6393SOL    HW121076   5.279  14.122   0.549
 6393SOL    HW221077   5.165  14.084   0.457
 6394SOL     OW21078  11.081   2.647   9.637
 6394SOL    HW121079  11.068   2.553   9.648
 6394SOL    HW221080  11.109   2.657   9.546
 6395SOL     OW21081   7.822   6.039   6.893
 6395SOL    HW121082   7.761   6.072   6.960
 6395SOL    HW221083   7.896   6.099   6.897
 6396SOL     OW21084  14.364   1.643   8.491
 6396SOL    HW121085  14.273   1.667   8.476
 6396SOL    HW221086  14.376   1.564   8.439
 6397SOL     OW21087   3.077   8.454  14.463
 6397SOL    HW121088   3.037   8.475  14.547
 6397SOL    HW221089   3.027   8.503  14.398
 6398SOL     OW21090   2.030  14.398   6.707
 6398SOL    HW121091   1.971  14.471   6.691
 6398SOL    HW221092   1.986  14.346   6.774
 6399SOL     OW21093   8.874  12.220  13.333
 6399SOL    HW121094   8.780  12.203  13.339
 6399SOL    HW221095   8.888  12.246  13.242
 6400SOL     OW21096   9.598  14.182   7.545
 6400SOL    HW121097   9.627  14.241   7.615
 6400SOL    HW221098   9.503  14.184   7.550
 6401SOL     OW21099   0.004  14.343   9.695
 6401SOL    HW121100   0.021  14.275   9.759
 6401SOL    HW221101   0.006  14.298   9.611
 6402SOL     OW21102   6.602  11.274  12.877
 6402SOL    HW121103   6.638  11.285  12.966
 6402SOL    HW221104   6.544  11.198  12.884
 6403SOL     OW21105   2.913  13.191   4.121
 6403SOL    HW121106   2.968  13.125   4.080
 6403SOL    HW221107   2.835  13.194   4.066
 6404SOL     OW21108  10.855   9.485   9.473
 6404SOL    HW121109  10.799   9.560   9.453
 6404SOL    HW221110  10.941   9.523   9.491
 6405SOL     OW21111   3.659  11.391   9.347
 6405SOL    HW121112   3.584  11.331   9.342
 6405SOL    HW221113   3.704  11.367   9.428
 6406SOL     OW21114   9.026   6.711  12.764
 6406SOL    HW121115   9.039   6.796  12.723
 6406SOL    HW221116   8.940   6.717  12.806
 6407SOL     OW21117   6.381  14.721  13.660
 6407SOL    HW121118   6.387  14.795  13.600
 6407SOL    HW221119   6.288  14.698  13.661
 6408SOL     OW21120   5.339   7.802  14.651
 6408SOL    HW121121   5.267   7.851  14.613
 6408SOL    HW221122   5.384   7.762  14.576
 6409SOL     OW21123   9.533   6.096   0.367
 6409SOL    HW121124   9.606   6.045   0.333
 6409SOL    HW221125   9.456   6.041   0.354
 6410SOL     OW21126   6.608   8.909   9.877
 6410SOL    HW121127   6.683   8.886   9.932
 6410SOL    HW221128   6.536   8.856   9.911
 6411SOL     OW21129   0.176   3.163   8.510
 6411SOL    HW121130   0.081   3.171   8.497
 6411SOL    HW221131   0.203   3.094   8.450
 6412SOL     OW21132  11.803   3.509   7.610
 6412SOL    HW121133  11.766   3.529   7.695
 6412SOL    HW221134  11.847   3.589   7.583
 6413SOL     OW21135  11.486  14.739   1.843
 6413SOL    HW121136  11.518  14.828   1.856
 6413SOL    HW221137  11.548  14.684   1.891
 6414SOL     OW21138  10.736   8.742   3.506
 6414SOL    HW121139  10.825   8.730   3.540
 6414SOL    HW221140  10.690   8.662   3.530
 6415SOL     OW21141   9.876  13.674   3.455
 6415SOL    HW121142   9.786  13.642   3.451
 6415SOL    HW221143   9.910  13.663   3.366
 6416SOL     OW21144  10.801   1.534  12.056
 6416SOL    HW121145  10.824   1.451  12.013
 6416SOL    HW221146  10.772   1.591  11.984
 6417SOL     OW21147   5.104   1.022  10.450
 6417SOL    HW121148   5.027   1.024  10.507
 6417SOL    HW221149   5.077   1.066  10.370
 6418SOL     OW21150   6.494   5.171   0.767
 6418SOL    HW121151   6.533   5.234   0.828
 6418SOL    HW221152   6.437   5.117   0.821
 6419SOL     OW21153   1.566   4.318   8.920
 6419SOL    HW121154   1.608   4.260   8.856
 6419SOL    HW221155   1.635   4.380   8.944
 6420SOL     OW21156   3.561   8.645   0.465
 6420SOL    HW121157   3.514   8.573   0.424
 6420SOL    HW221158   3.515   8.724   0.434
 6421SOL     OW21159   9.047   2.130   3.792
 6421SOL    HW121160   9.067   2.062   3.857
 6421SOL    HW221161   9.007   2.200   3.843
 6422SOL     OW21162  12.227   9.669  13.235
 6422SOL    HW121163  12.198   9.731  13.167
 6422SOL    HW221164  12.158   9.603  13.238
 6423SOL     OW21165  14.187   5.541   3.880
 6423SOL    HW121166  14.226   5.454   3.883
 6423SOL    HW221167  14.116   5.538   3.944
 6424SOL     OW21168  14.159   1.503   7.455
 6424SOL    HW121169  14.200   1.590   7.455
 6424SOL    HW221170  14.226   1.445   7.417
 6425SOL     OW21171   3.627   7.920  14.730
 6425SOL    HW121172   3.575   7.960  14.660
 6425SOL    HW221173   3.711   7.901  14.690
 6426SOL     OW21174   7.783  10.410   9.366
 6426SOL    HW121175   7.785  10.422   9.271
 6426SOL    HW221176   7.701  10.363   9.382
 6427SOL     OW21177   9.767   2.989   6.085
 6427SOL    HW121178   9.843   3.047   6.084
 6427SOL    HW221179   9.791   2.918   6.145
 6428SOL     OW21180   1.816   0.283   6.667
 6428SOL    HW121181   1.876   0.245   6.731
 6428SOL    HW221182   1.871   0.304   6.592
 6429SOL     OW21183   7.272   4.966   2.501
 6429SOL    HW121184   7.355   5.003   2.471
 6429SOL    HW221185   7.206   5.011   2.449
 6430SOL     OW21186   5.358  14.667   9.482
 6430SOL    HW121187   5.392  14.653   9.570
 6430SOL    HW221188   5.302  14.592   9.464
 6431SOL     OW21189  11.337   3.656   5.703
 6431SOL    HW121190  11.336   3.581   5.643
 6431SOL    HW221191  11.379   3.622   5.782
 6432SOL     OW21192   8.172   3.797   7.476
 6432SOL    HW121193   8.220   3.867   7.518
 6432SOL    HW221194   8.239   3.736   7.445
 6433SOL     OW21195   4.178  12.872   5.510
 6433SOL    HW121196   4.234  12.807   5.468
 6433SOL    HW221197   4.153  12.932   5.439
 6434SOL     OW21198  14.450   5.072   9.599
 6434SOL    HW121199  14.538   5.111   9.594
 6434SOL    HW221200  14.459   4.989   9.554
 6435SOL     OW21201  11.766  13.872   3.083
 6435SOL    HW121202  11.673  13.858   3.063
 6435SOL    HW221203  11.810  13.796   3.046
 6436SOL     OW21204   4.038   2.733   6.979
 6436SOL    HW121205   4.127   2.767   6.988
 6436SOL    HW221206   3.983   2.800   7.021
 6437SOL     OW21207  11.059  10.813   6.074
 6437SOL    HW121208  11.089  10.768   6.153
 6437SOL    HW221209  11.057  10.906   6.098
 6438SOL     OW21210   9.763  11.867   3.132
 6438SOL    HW121211   9.737  11.934   3.069
 6438SOL    HW221212   9.766  11.913   3.216
 6439SOL     OW21213  13.441   6.058   7.068
 6439SOL    HW121214  13.350   6.051   7.039
 6439SOL    HW221215  13.462   6.151   7.057
 6440SOL     OW21216   0.559  13.132   8.795
 6440SOL    HW121217   0.646  13.148   8.758
 6440SOL    HW221218   0.508  13.209   8.770
 6441SOL     OW21219   9.138  11.328  12.967
 6441SOL    HW121220   9.144  11.232  12.962
 6441SOL    HW221221   9.137  11.346  13.061
 6442SOL     OW21222   1.436   8.405  13.937
 6442SOL    HW121223   1.510   8.462  13.955
 6442SOL    HW221224   1.441   8.338  14.006
 6443SOL     OW21225  13.770   1.740  12.384
 6443SOL    HW121226  13.773   1.685  12.306
 6443SOL    HW221227  13.746   1.679  12.455
 6444SOL     OW21228   6.860  10.146   0.377
 6444SOL    HW121229   6.909  10.136   0.296
 6444SOL    HW221230   6.837  10.239   0.381
 6445SOL     OW21231  14.483   8.188   1.692
 6445SOL    HW121232  14.549   8.247   1.729
 6445SOL    HW221233  14.477   8.116   1.755
 6446SOL     OW21234   3.852  10.134   4.000
 6446SOL    HW121235   3.943  10.106   4.006
 6446SOL    HW221236   3.822  10.139   4.090
 6447SOL     OW21237   6.414  10.538   1.743
 6447SOL    HW121238   6.489  10.486   1.771
 6447SOL    HW221239   6.405  10.519   1.650
 6448SOL     OW21240   3.573   6.365   2.798
 6448SOL    HW121241   3.579   6.368   2.702
 6448SOL    HW221242   3.479   6.360   2.816
 6449SOL     OW21243   8.373   7.303  10.655
 6449SOL    HW121244   8.373   7.392  10.621
 6449SOL    HW221245   8.381   7.313  10.750
 6450SOL     OW21246  11.276   8.010   8.192
 6450SOL    HW121247  11.260   8.053   8.108
 6450SOL    HW221248  11.371   8.009   8.200
 6451SOL     OW21249   8.701  13.083  13.459
 6451SOL    HW121250   8.666  13.003  13.500
 6451SOL    HW221251   8.623  13.134  13.436
 6452SOL     OW21252   1.822   6.646   8.849
 6452SOL    HW121253   1.916   6.650   8.830
 6452SOL    HW221254   1.812   6.572   8.908
 6453SOL     OW21255  10.022  12.968   1.013
 6453SOL    HW121256   9.968  13.041   0.984
 6453SOL    HW221257  10.072  13.003   1.087
 6454SOL     OW21258  11.664   1.560  10.677
 6454SOL    HW121259  11.629   1.579  10.764
 6454SOL    HW221260  11.587   1.541  10.624
 6455SOL     OW21261  13.581  12.133   8.686
 6455SOL    HW121262  13.516  12.188   8.730
 6455SOL    HW221263  13.538  12.047   8.678
 6456SOL     OW21264   4.577   4.681   7.408
 6456SOL    HW121265   4.522   4.732   7.348
 6456SOL    HW221266   4.520   4.660   7.481
 6457SOL     OW21267   5.307   3.677  14.252
 6457SOL    HW121268   5.236   3.676  14.188
 6457SOL    HW221269   5.318   3.769  14.276
 6458SOL     OW21270   0.793   0.250   1.246
 6458SOL    HW121271   0.751   0.279   1.165
 6458SOL    HW221272   0.731   0.273   1.314
 6459SOL     OW21273   7.328  12.147   5.295
 6459SOL    HW121274   7.343  12.141   5.201
 6459SOL    HW221275   7.377  12.073   5.332
 6460SOL     OW21276   6.518   1.156  13.200
 6460SOL    HW121277   6.483   1.079  13.156
 6460SOL    HW221278   6.447   1.220  13.198
 6461SOL     OW21279   6.877   3.544  12.937
 6461SOL    HW121280   6.947   3.493  12.978
 6461SOL    HW221281   6.872   3.512  12.847
 6462SOL     OW21282  12.971   1.463   1.809
 6462SOL    HW121283  13.029   1.538   1.798
 6462SOL    HW221284  12.888   1.491   1.769
 6463SOL     OW21285   4.592  13.842   1.944
 6463SOL    HW121286   4.501  13.869   1.953
 6463SOL    HW221287   4.621  13.880   1.861
 6464SOL     OW21288  12.079  10.059  11.085
 6464SOL    HW121289  12.011  10.030  11.146
 6464SOL    HW221290  12.050  10.027  11.000
 6465SOL     OW21291  14.087   5.830  13.443
 6465SOL    HW121292  14.033   5.816  13.521
 6465SOL    HW221293  14.057   5.914  13.408
 6466SOL     OW21294   8.346  14.223  11.567
 6466SOL    HW121295   8.318  14.132  11.576
 6466SOL    HW221296   8.367  14.232  11.474
 6467SOL     OW21297   3.207   7.748   6.130
 6467SOL    HW121298   3.208   7.675   6.193
 6467SOL    HW221299   3.296   7.782   6.131
 6468SOL     OW21300  13.841   4.075  14.363
 6468SOL    HW121301  13.853   4.169  14.378
 6468SOL    HW221302  13.784   4.047  14.435
 6469SOL     OW21303  11.043   0.501   5.685
 6469SOL    HW121304  11.006   0.420   5.719
 6469SOL    HW221305  11.069   0.550   5.763
 6470SOL     OW21306   8.927  12.179   0.490
 6470SOL    HW121307   8.842  12.151   0.523
 6470SOL    HW221308   8.959  12.104   0.439
 6471SOL     OW21309   0.675  11.774  13.753
 6471SOL    HW121310   0.696  11.765  13.660
 6471SOL    HW221311   0.621  11.698  13.773
 6472SOL     OW21312   1.146  13.667   4.496
 6472SOL    HW121313   1.217  13.681   4.434
 6472SOL    HW221314   1.072  13.716   4.460
 6473SOL     OW21315  11.878   6.453  14.881
 6473SOL    HW121316  11.942   6.399   0.046
 6473SOL    HW221317  11.795   6.408   0.011
 6474SOL     OW21318   3.845  14.453  12.391
 6474SOL    HW121319   3.873  14.543  12.373
 6474SOL    HW221320   3.835  14.414  12.304
 6475SOL     OW21321   9.256   3.533   7.021
 6475SOL    HW121322   9.185   3.562   6.963
 6475SOL    HW221323   9.308   3.612   7.036
 6476SOL     OW21324  11.577  13.967   8.862
 6476SOL    HW121325  11.482  13.962   8.875
 6476SOL    HW221326  11.597  13.894   8.803
 6477SOL     OW21327   0.861   2.802  14.242
 6477SOL    HW121328   0.848   2.896  14.238
 6477SOL    HW221329   0.772   2.765  14.244
 6478SOL     OW21330  13.144  13.413   2.807
 6478SOL    HW121331  13.208  13.443   2.872
 6478SOL    HW221332  13.172  13.325   2.785
 6479SOL     OW21333   0.721   6.133   9.307
 6479SOL    HW121334   0.711   6.145   9.401
 6479SOL    HW221335   0.675   6.207   9.268
 6480SOL     OW21336   4.185   4.672  13.512
 6480SOL    HW121337   4.270   4.655  13.554
 6480SOL    HW221338   4.122   4.668  13.583
 6481SOL     OW21339   6.016  13.247   7.319
 6481SOL    HW121340   5.980  13.328   7.353
 6481SOL    HW221341   5.940  13.189   7.310
 6482SOL     OW21342   2.899   6.048   2.655
 6482SOL    HW121343   2.933   6.081   2.572
 6482SOL    HW221344   2.816   6.005   2.632
 6483SOL     OW21345  13.123  10.446   8.648
 6483SOL    HW121346  13.046  10.396   8.674
 6483SOL    HW221347  13.187  10.379   8.623
 6484SOL     OW21348   5.884   2.726   4.015
 6484SOL    HW121349   5.954   2.751   3.955
 6484SOL    HW221350   5.864   2.807   4.063
 6485SOL     OW21351   0.020  13.307  12.177
 6485SOL    HW121352  14.843  13.307  12.252
 6485SOL    HW221353   0.095  13.254  12.205
 6486SOL     OW21354   8.258   9.132   7.772
 6486SOL    HW121355   8.223   9.060   7.720
 6486SOL    HW221356   8.345   9.149   7.735
 6487SOL     OW21357   6.490  12.021   6.827
 6487SOL    HW121358   6.403  12.039   6.791
 6487SOL    HW221359   6.473  11.983   6.913
 6488SOL     OW21360   9.328   9.873   5.173
 6488SOL    HW121361   9.329   9.846   5.081
 6488SOL    HW221362   9.243   9.915   5.184
 6489SOL     OW21363  11.305   8.208   8.634
 6489SOL    HW121364  11.323   8.190   8.727
 6489SOL    HW221365  11.391   8.228   8.597
 6490SOL     OW21366   3.528  13.389  13.057
 6490SOL    HW121367   3.519  13.463  13.118
 6490SOL    HW221368   3.519  13.428  12.970
 6491SOL     OW21369   9.394   7.559  13.710
 6491SOL    HW121370   9.470   7.616  13.701
 6491SOL    HW221371   9.319   7.616  13.690
 6492SOL     OW21372  10.786  12.716  12.212
 6492SOL    HW121373  10.802  12.720  12.117
 6492SOL    HW221374  10.870  12.738  12.251
 6493SOL     OW21375   8.083  13.599  10.578
 6493SOL    HW121376   8.042  13.685  10.581
 6493SOL    HW221377   8.077  13.566  10.668
 6494SOL     OW21378   2.830   3.534   9.556
 6494SOL    HW121379   2.758   3.471   9.544
 6494SOL    HW221380   2.909   3.481   9.552
 6495SOL     OW21381   8.888  11.610   5.775
 6495SOL    HW121382   8.977  11.587   5.752
 6495SOL    HW221383   8.862  11.545   5.840
 6496SOL     OW21384   6.593   0.750   5.605
 6496SOL    HW121385   6.539   0.740   5.527
 6496SOL    HW221386   6.584   0.667   5.651
 6497SOL     OW21387  12.917  11.391   2.985
 6497SOL    HW121388  12.848  11.452   2.961
 6497SOL    HW221389  12.994  11.446   3.000
 6498SOL     OW21390   4.127   3.447  14.263
 6498SOL    HW121391   4.108   3.383  14.194
 6498SOL    HW221392   4.078   3.416  14.339
 6499SOL     OW21393   8.369   7.727   2.895
 6499SOL    HW121394   8.430   7.687   2.833
 6499SOL    HW221395   8.351   7.813   2.859
 6500SOL     OW21396   3.989   7.597  12.411
 6500SOL    HW121397   3.996   7.683  12.369
 6500SOL    HW221398   3.900   7.595  12.445
 6501SOL     OW21399   7.319   7.696   6.713
 6501SOL    HW121400   7.299   7.748   6.791
 6501SOL    HW221401   7.410   7.718   6.693
 6502SOL     OW21402   7.480   5.588   8.620
 6502SOL    HW121403   7.510   5.676   8.597
 6502SOL    HW221404   7.445   5.597   8.708
 6503SOL     OW21405  12.588  13.834   2.714
 6503SOL    HW121406  12.618  13.826   2.804
 6503SOL    HW221407  12.590  13.928   2.696
 6504SOL     OW21408  14.646   2.932  13.864
 6504SOL    HW121409  14.702   3.004  13.835
 6504SOL    HW221410  14.708   2.861  13.883
 6505SOL     OW21411  10.469   6.765  11.059
 6505SOL    HW121412  10.437   6.676  11.074
 6505SOL    HW221413  10.396   6.822  11.083
 6506SOL     OW21414  11.608  14.537   6.387
 6506SOL    HW121415  11.595  14.456   6.435
 6506SOL    HW221416  11.607  14.511   6.295
 6507SOL     OW21417  11.394   6.553  13.229
 6507SOL    HW121418  11.396   6.592  13.142
 6507SOL    HW221419  11.386   6.628  13.288
 6508SOL     OW21420   3.883  14.714   0.338
 6508SOL    HW121421   3.837  14.641   0.378
 6508SOL    HW221422   3.822  14.788   0.347
 6509SOL     OW21423  14.804   4.397  12.687
 6509SOL    HW121424  14.739   4.349  12.737
 6509SOL    HW221425   0.002   4.389  12.737
 6510SOL     OW21426   3.797   9.253   6.470
 6510SOL    HW121427   3.849   9.253   6.550
 6510SOL    HW221428   3.817   9.170   6.427
 6511SOL     OW21429   3.918   9.011  14.715
 6511SOL    HW121430   3.986   8.977  14.773
 6511SOL    HW221431   3.940   9.103  14.702
 6512SOL     OW21432  14.062  13.686   2.490
 6512SOL    HW121433  14.034  13.648   2.407
 6512SOL    HW221434  14.143  13.733   2.468
 6513SOL     OW21435  12.170   8.816   5.734
 6513SOL    HW121436  12.210   8.841   5.817
 6513SOL    HW221437  12.240   8.827   5.669
 6514SOL     OW21438  12.506  12.193  14.054
 6514SOL    HW121439  12.578  12.147  14.012
 6514SOL    HW221440  12.521  12.182  14.148
 6515SOL     OW21441   8.431   4.908   1.817
 6515SOL    HW121442   8.360   4.953   1.770
 6515SOL    HW221443   8.449   4.965   1.892
 6516SOL     OW21444  14.680   5.918  10.646
 6516SOL    HW121445  14.628   5.999  10.639
 6516SOL    HW221446  14.629   5.862  10.705
 6517SOL     OW21447   9.179   3.239   7.971
 6517SOL    HW121448   9.142   3.155   7.943
 6517SOL    HW221449   9.268   3.239   7.935
 6518SOL     OW21450   9.691   5.377   0.550
 6518SOL    HW121451   9.608   5.426   0.550
 6518SOL    HW221452   9.757   5.442   0.523
 6519SOL     OW21453   8.288  12.946  14.399
 6519SOL    HW121454   8.335  12.880  14.449
 6519SOL    HW221455   8.351  13.016  14.386
 6520SOL     OW21456   5.255   0.258   0.326
 6520SOL    HW121457   5.328   0.302   0.281
 6520SOL    HW221458   5.297   0.192   0.381
 6521SOL     OW21459   1.415   5.478   0.969
 6521SOL    HW121460   1.475   5.467   0.895
 6521SOL    HW221461   1.338   5.521   0.932
 6522SOL     OW21462   6.365  11.003  11.211
 6522SOL    HW121463   6.319  11.023  11.130
 6522SOL    HW221464   6.340  11.073  11.271
 6523SOL     OW21465   9.996  10.218   7.153
 6523SOL    HW121466   9.959  10.162   7.085
 6523SOL    HW221467   9.922  10.272   7.182
 6524SOL     OW21468   2.633   8.437  14.099
 6524SOL    HW121469   2.714   8.406  14.057
 6524SOL    HW221470   2.611   8.518  14.053
 6525SOL     OW21471  14.778   6.195  13.612
 6525SOL    HW121472  14.755   6.276  13.657
 6525SOL    HW221473  14.805   6.135  13.682
 6526SOL     OW21474  10.861   4.065   1.781
 6526SOL    HW121475  10.848   4.035   1.871
 6526SOL    HW221476  10.796   4.134   1.770
 6527SOL     OW21477   4.122  12.903  12.167
 6527SOL    HW121478   4.156  12.992  12.156
 6527SOL    HW221479   4.192  12.846  12.135
 6528SOL     OW21480  12.679  14.630   0.049
 6528SOL    HW121481  12.678  14.616   0.144
 6528SOL    HW221482  12.628  14.558   0.013
 6529SOL     OW21483   3.539   4.797   6.171
 6529SOL    HW121484   3.525   4.785   6.265
 6529SOL    HW221485   3.629   4.769   6.155
 6530SOL     OW21486  14.866  14.416   2.232
 6530SOL    HW121487  14.838  14.496   2.276
 6530SOL    HW221488   0.061  14.388   2.281
 6531SOL     OW21489   1.750   7.623   1.765
 6531SOL    HW121490   1.809   7.645   1.837
 6531SOL    HW221491   1.773   7.683   1.695
 6532SOL     OW21492   3.241   7.737   6.525
 6532SOL    HW121493   3.253   7.739   6.620
 6532SOL    HW221494   3.324   7.705   6.492
 6533SOL     OW21495   2.324  12.767  14.121
 6533SOL    HW121496   2.282  12.695  14.168
 6533SOL    HW221497   2.358  12.727  14.041
 6534SOL     OW21498   1.955  12.154  12.547
 6534SOL    HW121499   2.012  12.222  12.511
 6534SOL    HW221500   1.947  12.090  12.476
 6535SOL     OW21501   9.333   0.930  12.509
 6535SOL    HW121502   9.398   0.876  12.553
 6535SOL    HW221503   9.249   0.892  12.533
 6536SOL     OW21504   0.161   9.051   3.276
 6536SOL    HW121505   0.216   9.006   3.212
 6536SOL    HW221506   0.222   9.077   3.345
 6537SOL     OW21507  12.504  14.125   3.498
 6537SOL    HW121508  12.441  14.161   3.435
 6537SOL    HW221509  12.579  14.185   3.494
 6538SOL     OW21510   4.992  14.524   3.737
 6538SOL    HW121511   5.015  14.433   3.756
 6538SOL    HW221512   4.898  14.529   3.755
 6539SOL     OW21513   1.137  10.417   4.474
 6539SOL    HW121514   1.177  10.416   4.386
 6539SOL    HW221515   1.091  10.334   4.480
 6540SOL     OW21516   0.903   5.010  10.823
 6540SOL    HW121517   0.982   5.021  10.876
 6540SOL    HW221518   0.831   5.020  10.885
 6541SOL     OW21519   9.984   2.784  10.655
 6541SOL    HW121520   9.953   2.868  10.622
 6541SOL    HW221521   9.993   2.796  10.749
 6542SOL     OW21522   8.470   5.509   5.707
 6542SOL    HW121523   8.380   5.516   5.740
 6542SOL    HW221524   8.476   5.422   5.669
 6543SOL     OW21525  10.036   1.856   8.781
 6543SOL    HW121526  10.025   1.882   8.872
 6543SOL    HW221527  10.128   1.874   8.761
 6544SOL     OW21528   2.797  11.052   5.241
 6544SOL    HW121529   2.768  11.142   5.228
 6544SOL    HW221530   2.886  11.049   5.205
 6545SOL     OW21531  14.619  10.597   2.285
 6545SOL    HW121532  14.539  10.559   2.248
 6545SOL    HW221533  14.612  10.690   2.267
 6546SOL     OW21534   8.435  10.761  10.765
 6546SOL    HW121535   8.431  10.835  10.825
 6546SOL    HW221536   8.397  10.688  10.813
 6547SOL     OW21537   3.561   4.289   7.739
 6547SOL    HW121538   3.490   4.337   7.696
 6547SOL    HW221539   3.637   4.347   7.731
 6548SOL     OW21540  13.204   1.077   8.726
 6548SOL    HW121541  13.178   0.987   8.704
 6548SOL    HW221542  13.229   1.115   8.642
 6549SOL     OW21543  14.856   6.827   8.989
 6549SOL    HW121544   0.017   6.837   9.074
 6549SOL    HW221545  14.882   6.740   8.959
 6550SOL     OW21546   1.295   0.398  13.140
 6550SOL    HW121547   1.287   0.443  13.056
 6550SOL    HW221548   1.220   0.339  13.143
 6551SOL     OW21549  13.979   4.295  10.473
 6551SOL    HW121550  14.000   4.347  10.550
 6551SOL    HW221551  13.884   4.302  10.464
 6552SOL     OW21552   0.666  12.520   8.948
 6552SOL    HW121553   0.689  12.601   8.992
 6552SOL    HW221554   0.599  12.545   8.885
 6553SOL     OW21555   7.418  14.872   5.722
 6553SOL    HW121556   7.465  14.788   5.722
 6553SOL    HW221557   7.487   0.055   5.729
 6554SOL     OW21558   4.800   1.303   6.063
 6554SOL    HW121559   4.853   1.381   6.080
 6554SOL    HW221560   4.714   1.337   6.041
 6555SOL     OW21561  12.826  13.037  10.621
 6555SOL    HW121562  12.752  13.057  10.563
 6555SOL    HW221563  12.785  13.015  10.705
 6556SOL     OW21564   3.067   1.322   6.160
 6556SOL    HW121565   3.143   1.331   6.102
 6556SOL    HW221566   3.070   1.230   6.189
 6557SOL     OW21567   7.539   8.812  11.375
 6557SOL    HW121568   7.482   8.875  11.332
 6557SOL    HW221569   7.506   8.726  11.348
 6558SOL     OW21570   4.236   0.503  14.384
 6558SOL    HW121571   4.246   0.467  14.296
 6558SOL    HW221572   4.141   0.509  14.397
 6559SOL     OW21573   5.568   5.685   3.969
 6559SOL    HW121574   5.512   5.749   3.925
 6559SOL    HW221575   5.599   5.628   3.899
 6560SOL     OW21576  13.544  13.386   4.732
 6560SOL    HW121577  13.578  13.306   4.691
 6560SOL    HW221578  13.618  13.447   4.731
 6561SOL     OW21579  13.872   7.141   0.562
 6561SOL    HW121580  13.888   7.226   0.604
 6561SOL    HW221581  13.778   7.139   0.546
 6562SOL     OW21582  14.335  13.955   6.202
 6562SOL    HW121583  14.339  14.024   6.136
 6562SOL    HW221584  14.297  13.999   6.279
 6563SOL     OW21585  12.670   4.597   5.988
 6563SOL    HW121586  12.648   4.530   5.923
 6563SOL    HW221587  12.613   4.578   6.062
 6564SOL     OW21588   2.349   3.606  11.217
 6564SOL    HW121589   2.294   3.663  11.163
 6564SOL    HW221590   2.438   3.620  11.184
 6565SOL     OW21591  13.959   5.111   5.775
 6565SOL    HW121592  13.996   5.036   5.728
 6565SOL    HW221593  13.928   5.170   5.705
 6566SOL     OW21594  10.308   3.916   5.347
 6566SOL    HW121595  10.241   3.848   5.353
 6566SOL    HW221596  10.323   3.944   5.437
 6567SOL     OW21597  10.102  12.561   8.550
 6567SOL    HW121598  10.055  12.635   8.588
 6567SOL    HW221599  10.182  12.599   8.514
 6568SOL     OW21600   3.819   8.344   0.976
 6568SOL    HW121601   3.737   8.395   0.975
 6568SOL    HW221602   3.811   8.287   1.052
 6569SOL     OW21603  13.827  12.192   7.992
 6569SOL    HW121604  13.782  12.153   8.067
 6569SOL    HW221605  13.908  12.142   7.984
 6570SOL     OW21606  14.478  11.124   3.954
 6570SOL    HW121607  14.551  11.167   3.998
 6570SOL    HW221608  14.431  11.195   3.910
 6571SOL     OW21609  12.344   2.701   0.247
 6571SOL    HW121610  12.352   2.679   0.154
 6571SOL    HW221611  12.428   2.742   0.269
 6572SOL     OW21612  12.384  11.004   0.868
 6572SOL    HW121613  12.445  11.028   0.938
 6572SOL    HW221614  12.324  11.079   0.862
 6573SOL     OW21615  13.427   0.798   4.488
 6573SOL    HW121616  13.489   0.871   4.486
 6573SOL    HW221617  13.480   0.720   4.470
 6574SOL     OW21618  14.168   1.798   8.226
 6574SOL    HW121619  14.126   1.718   8.194
 6574SOL    HW221620  14.222   1.827   8.153
 6575SOL     OW21621   8.102   1.032  14.033
 6575SOL    HW121622   8.152   0.974  14.091
 6575SOL    HW221623   8.139   1.016  13.946
 6576SOL     OW21624  14.424   7.975   9.884
 6576SOL    HW121625  14.384   7.958   9.969
 6576SOL    HW221626  14.454   7.890   9.854
 6577SOL     OW21627   1.258   4.156  14.502
 6577SOL    HW121628   1.180   4.106  14.479
 6577SOL    HW221629   1.293   4.113  14.580
 6578SOL     OW21630  11.702   4.270  12.996
 6578SOL    HW121631  11.734   4.184  12.969
 6578SOL    HW221632  11.678   4.258  13.088
 6579SOL     OW21633   7.711   5.497   7.175
 6579SOL    HW121634   7.755   5.572   7.215
 6579SOL    HW221635   7.729   5.506   7.082
 6580SOL     OW21636   7.653   9.140  10.557
 6580SOL    HW121637   7.655   9.097  10.471
 6580SOL    HW221638   7.731   9.195  10.557
 6581SOL     OW21639   6.277  11.916  12.766
 6581SOL    HW121640   6.340  11.879  12.828
 6581SOL    HW221641   6.193  11.914  12.813
 6582SOL     OW21642   2.810   7.443   0.243
 6582SOL    HW121643   2.813   7.373   0.308
 6582SOL    HW221644   2.834   7.400   0.161
 6583SOL     OW21645   9.129   1.563   6.256
 6583SOL    HW121646   9.052   1.535   6.306
 6583SOL    HW221647   9.149   1.651   6.290
 6584SOL     OW21648   5.901   1.442   0.447
 6584SOL    HW121649   5.956   1.401   0.514
 6584SOL    HW221650   5.961   1.463   0.376
 6585SOL     OW21651   1.227   4.636   4.512
 6585SOL    HW121652   1.199   4.700   4.578
 6585SOL    HW221653   1.174   4.558   4.530
 6586SOL     OW21654  12.934  12.279   6.825
 6586SOL    HW121655  12.943  12.199   6.775
 6586SOL    HW221656  13.020  12.293   6.865
 6587SOL     OW21657   8.638   4.524   1.396
 6587SOL    HW121658   8.656   4.618   1.384
 6587SOL    HW221659   8.639   4.489   1.307
 6588SOL     OW21660   3.634   4.737   0.846
 6588SOL    HW121661   3.592   4.797   0.785
 6588SOL    HW221662   3.688   4.680   0.790
 6589SOL     OW21663   1.633   2.036   4.208
 6589SOL    HW121664   1.725   2.058   4.223
 6589SOL    HW221665   1.628   1.942   4.223
 6590SOL     OW21666   0.516   5.165  12.171
 6590SOL    HW121667   0.569   5.209  12.104
 6590SOL    HW221668   0.519   5.072  12.146
 6591SOL     OW21669  13.879  10.047   0.780
 6591SOL    HW121670  13.836  10.059   0.695
 6591SOL    HW221671  13.807  10.038   0.842
 6592SOL     OW21672  14.096   7.809  13.409
 6592SOL    HW121673  14.189   7.820  13.389
 6592SOL    HW221674  14.084   7.855  13.492
 6593SOL     OW21675   2.819   2.103   5.965
 6593SOL    HW121676   2.883   2.034   5.983
 6593SOL    HW221677   2.833   2.167   6.034
 6594SOL     OW21678   0.376   4.556  10.038
 6594SOL    HW121679   0.301   4.584   9.985
 6594SOL    HW221680   0.398   4.633  10.091
 6595SOL     OW21681   3.649   4.128  14.598
 6595SOL    HW121682   3.712   4.078  14.547
 6595SOL    HW221683   3.616   4.067  14.664
 6596SOL     OW21684   6.191   0.723   7.457
 6596SOL    HW121685   6.179   0.794   7.394
 6596SOL    HW221686   6.260   0.669   7.418
 6597SOL     OW21687  14.600   0.576  10.621
 6597SOL    HW121688  14.526   0.522  10.594
 6597SOL    HW221689  14.571   0.666  10.610
 6598SOL     OW21690   8.713  11.918  13.462
 6598SOL    HW121691   8.801  11.949  13.440
 6598SOL    HW221692   8.655  11.987  13.427
 6599SOL     OW21693   8.451   5.171   0.678
 6599SOL    HW121694   8.541   5.195   0.701
 6599SOL    HW221695   8.397   5.236   0.723
 6600SOL     OW21696   1.115   9.293   3.092
 6600SOL    HW121697   1.068   9.292   3.175
 6600SOL    HW221698   1.061   9.346   3.034
 6601SOL     OW21699  12.715   8.312  10.464
 6601SOL    HW121700  12.751   8.229  10.497
 6601SOL    HW221701  12.620   8.300  10.470
 6602SOL     OW21702   3.376   0.696  14.505
 6602SOL    HW121703   3.438   0.667  14.572
 6602SOL    HW221704   3.314   0.752  14.553
 6603SOL     OW21705   6.353  11.173  14.327
 6603SOL    HW121706   6.335  11.157  14.234
 6603SOL    HW221707   6.267  11.194  14.365
 6604SOL     OW21708  10.091  14.445   4.868
 6604SOL    HW121709  10.082  14.424   4.775
 6604SOL    HW221710  10.131  14.532   4.869
 6605SOL     OW21711   9.377   0.036   2.856
 6605SOL    HW121712   9.316   0.104   2.829
 6605SOL    HW221713   9.399  14.872   2.775
 6606SOL     OW21714   3.613   5.745   0.675
 6606SOL    HW121715   3.665   5.750   0.595
 6606SOL    HW221716   3.673   5.772   0.745
 6607SOL     OW21717  11.617   3.505   9.231
 6607SOL    HW121718  11.607   3.596   9.257
 6607SOL    HW221719  11.553   3.493   9.161
 6608SOL     OW21720   8.928  12.887   0.542
 6608SOL    HW121721   8.977  12.931   0.473
 6608SOL    HW221722   8.912  12.799   0.509
 6609SOL     OW21723   2.569   7.025  11.207
 6609SOL    HW121724   2.535   7.054  11.292
 6609SOL    HW221725   2.522   6.944  11.189
 6610SOL     OW21726   4.551   5.321   0.054
 6610SOL    HW121727   4.497   5.396   0.030
 6610SOL    HW221728   4.578   5.283  14.853
 6611SOL     OW21729  11.290  12.735   9.185
 6611SOL    HW121730  11.322  12.741   9.095
 6611SOL    HW221731  11.343  12.667   9.225
 6612SOL     OW21732   5.976   5.230   0.812
 6612SOL    HW121733   6.035   5.266   0.878
 6612SOL    HW221734   5.989   5.135   0.817
 6613SOL     OW21735   0.829   0.311   7.787
 6613SOL    HW121736   0.869   0.398   7.798
 6613SOL    HW221737   0.873   0.274   7.711
 6614SOL     OW21738   8.790  11.558  12.706
 6614SOL    HW121739   8.871  11.576  12.754
 6614SOL    HW221740   8.726  11.619  12.742
 6615SOL     OW21741   3.446   1.782  12.125
 6615SOL    HW121742   3.502   1.803  12.199
 6615SOL    HW221743   3.433   1.865  12.080
 6616SOL     OW21744   0.213  11.711   2.964
 6616SOL    HW121745   0.259  11.648   3.019
 6616SOL    HW221746   0.137  11.738   3.016
 6617SOL     OW21747   0.172   6.968   6.791
 6617SOL    HW121748   0.121   6.935   6.717
 6617SOL    HW221749   0.113   6.960   6.866
 6618SOL     OW21750   2.987  11.443   3.044
 6618SOL    HW121751   2.913  11.392   3.011
 6618SOL    HW221752   3.064  11.389   3.025
 6619SOL     OW21753   1.659   8.656  12.412
 6619SOL    HW121754   1.607   8.587  12.453
 6619SOL    HW221755   1.630   8.737  12.454
 6620SOL     OW21756   3.268  13.283   0.079
 6620SOL    HW121757   3.282  13.269   0.172
 6620SOL    HW221758   3.277  13.197   0.039
 6621SOL     OW21759   2.381  11.908  14.036
 6621SOL    HW121760   2.422  11.992  14.020
 6621SOL    HW221761   2.352  11.878  13.949
 6622SOL     OW21762   3.783   0.589   3.966
 6622SOL    HW121763   3.776   0.496   3.987
 6622SOL    HW221764   3.815   0.591   3.875
 6623SOL     OW21765   6.180   7.714  12.313
 6623SOL    HW121766   6.205   7.676  12.229
 6623SOL    HW221767   6.148   7.640  12.365
 6624SOL     OW21768  11.937  13.179   9.202
 6624SOL    HW121769  11.974  13.092   9.217
 6624SOL    HW221770  11.858  13.181   9.255
 6625SOL     OW21771  11.951   0.413   6.363
 6625SOL    HW121772  11.885   0.345   6.378
 6625SOL    HW221773  12.026   0.366   6.326
 6626SOL     OW21774  11.737   3.976  13.847
 6626SOL    HW121775  11.702   4.062  13.871
 6626SOL    HW221776  11.832   3.987  13.851
 6627SOL     OW21777  14.527   0.352   2.355
 6627SOL    HW121778  14.582   0.280   2.326
 6627SOL    HW221779  14.554   0.426   2.302
 6628SOL     OW21780  12.142   3.249   6.094
 6628SOL    HW121781  12.077   3.265   6.163
 6628SOL    HW221782  12.226   3.251   6.140
 6629SOL     OW21783  14.726   7.420   9.174
 6629SOL    HW121784  14.767   7.471   9.105
 6629SOL    HW221785  14.653   7.475   9.205
 6630SOL     OW21786  11.635   0.378   9.940
 6630SOL    HW121787  11.709   0.420   9.985
 6630SOL    HW221788  11.604   0.444   9.878
 6631SOL     OW21789   6.074   5.182  10.029
 6631SOL    HW121790   6.058   5.264   9.983
 6631SOL    HW221791   6.055   5.202  10.121
 6632SOL     OW21792  12.738  13.611   1.278
 6632SOL    HW121793  12.750  13.698   1.241
 6632SOL    HW221794  12.685  13.564   1.214
 6633SOL     OW21795   9.228  12.139  11.315
 6633SOL    HW121796   9.158  12.155  11.378
 6633SOL    HW221797   9.275  12.063  11.349
 6634SOL     OW21798   6.342   5.530  10.394
 6634SOL    HW121799   6.329   5.478  10.315
 6634SOL    HW221800   6.314   5.473  10.466
 6635SOL     OW21801   6.623  13.507  13.445
 6635SOL    HW121802   6.584  13.595  13.443
 6635SOL    HW221803   6.550  13.448  13.428
 6636SOL     OW21804   6.156   9.483   2.501
 6636SOL    HW121805   6.247   9.498   2.524
 6636SOL    HW221806   6.124   9.569   2.471
 6637SOL     OW21807   8.360   8.267   5.233
 6637SOL    HW121808   8.454   8.248   5.231
 6637SOL    HW221809   8.354   8.353   5.274
 6638SOL     OW21810  10.282   2.706  14.192
 6638SOL    HW121811  10.334   2.783  14.215
 6638SOL    HW221812  10.342   2.632  14.203
 6639SOL     OW21813   5.187  14.559  12.921
 6639SOL    HW121814   5.121  14.626  12.940
 6639SOL    HW221815   5.141  14.476  12.934
 6640SOL     OW21816   5.507   1.044   2.347
 6640SOL    HW121817   5.584   0.999   2.381
 6640SOL    HW221818   5.539   1.094   2.273
 6641SOL     OW21819   1.427  11.747   4.090
 6641SOL    HW121820   1.446  11.810   4.021
 6641SOL    HW221821   1.331  11.743   4.094
 6642SOL     OW21822   5.531   4.099  13.032
 6642SOL    HW121823   5.610   4.064  13.072
 6642SOL    HW221824   5.542   4.194  13.037
 6643SOL     OW21825  14.848  14.765  11.975
 6643SOL    HW121826  14.869  14.837  12.036
 6643SOL    HW221827  14.761  14.787  11.941
 6644SOL     OW21828   5.095   3.030   2.651
 6644SOL    HW121829   5.143   3.046   2.732
 6644SOL    HW221830   5.006   3.059   2.669
 6645SOL     OW21831   1.174  11.340  14.829
 6645SOL    HW121832   1.182  11.309   0.037
 6645SOL    HW221833   1.206  11.430  14.832
 6646SOL     OW21834  13.267   7.890   0.073
 6646SOL    HW121835  13.290   7.863   0.162
 6646SOL    HW221836  13.203   7.825   0.044
 6647SOL     OW21837   4.092   4.044   2.921
 6647SOL    HW121838   4.045   3.980   2.868
 6647SOL    HW221839   4.024   4.106   2.950
 6648SOL     OW21840  13.032   2.861   0.029
 6648SOL    HW121841  12.968   2.851  14.840
 6648SOL    HW221842  13.029   2.778   0.076
 6649SOL     OW21843  13.573   2.079   5.653
 6649SOL    HW121844  13.604   2.146   5.713
 6649SOL    HW221845  13.618   2.098   5.571
 6650SOL     OW21846  10.461   1.703  11.165
 6650SOL    HW121847  10.385   1.687  11.220
 6650SOL    HW221848  10.526   1.639  11.195
 6651SOL     OW21849  10.082   6.950  11.747
 6651SOL    HW121850  10.075   7.001  11.666
 6651SOL    HW221851  10.040   7.005  11.813
 6652SOL     OW21852  11.686  11.088   2.318
 6652SOL    HW121853  11.726  11.099   2.404
 6652SOL    HW221854  11.760  11.073   2.259
 6653SOL     OW21855   3.895   6.227   5.111
 6653SOL    HW121856   3.890   6.267   5.198
 6653SOL    HW221857   3.861   6.138   5.124
 6654SOL     OW21858   7.108   9.035   7.074
 6654SOL    HW121859   7.026   9.076   7.047
 6654SOL    HW221860   7.144   9.094   7.139
 6655SOL     OW21861   4.704   6.098   0.129
 6655SOL    HW121862   4.769   6.160   0.160
 6655SOL    HW221863   4.753   6.018   0.109
 6656SOL     OW21864  10.968   1.022  12.392
 6656SOL    HW121865  10.883   0.999  12.355
 6656SOL    HW221866  11.021   1.049  12.317
 6657SOL     OW21867   0.196   4.677   8.170
 6657SOL    HW121868   0.183   4.650   8.261
 6657SOL    HW221869   0.250   4.756   8.176
 6658SOL     OW21870  10.993   6.617  12.736
 6658SOL    HW121871  10.961   6.638  12.823
 6658SOL    HW221872  10.959   6.529  12.718
 6659SOL     OW21873  11.946   0.096  14.422
 6659SOL    HW121874  11.852   0.077  14.425
 6659SOL    HW221875  11.950   0.192  14.429
 6660SOL     OW21876   2.398   9.724  11.151
 6660SOL    HW121877   2.317   9.710  11.201
 6660SOL    HW221878   2.379   9.686  11.065
 6661SOL     OW21879   4.146   3.409  10.621
 6661SOL    HW121880   4.107   3.387  10.706
 6661SOL    HW221881   4.205   3.336  10.602
 6662SOL     OW21882   3.263   8.879   8.712
 6662SOL    HW121883   3.296   8.829   8.787
 6662SOL    HW221884   3.342   8.905   8.664
 6663SOL     OW21885   8.855   2.511  10.148
 6663SOL    HW121886   8.925   2.446  10.156
 6663SOL    HW221887   8.892   2.590  10.186
 6664SOL     OW21888   6.667  14.420   5.671
 6664SOL    HW121889   6.639  14.341   5.626
 6664SOL    HW221890   6.620  14.491   5.627
 6665SOL     OW21891   7.425   9.948   4.138
 6665SOL    HW121892   7.388   9.876   4.087
 6665SOL    HW221893   7.437   9.911   4.226
 6666SOL     OW21894   2.908  12.360  11.820
 6666SOL    HW121895   2.863  12.441  11.843
 6666SOL    HW221896   2.927  12.369  11.727
 6667SOL     OW21897   8.678   4.885   0.040
 6667SOL    HW121898   8.623   4.829   0.095
 6667SOL    HW221899   8.683   4.968   0.088
 6668SOL     OW21900   6.429   4.359   8.457
 6668SOL    HW121901   6.389   4.442   8.429
 6668SOL    HW221902   6.491   4.338   8.388
 6669SOL     OW21903   1.780  10.632   5.342
 6669SOL    HW121904   1.857  10.653   5.397
 6669SOL    HW221905   1.757  10.543   5.366
 6670SOL     OW21906   9.693  10.667   8.423
 6670SOL    HW121907   9.702  10.658   8.328
 6670SOL    HW221908   9.614  10.720   8.434
 6671SOL     OW21909   4.820   6.125   1.469
 6671SOL    HW121910   4.914   6.119   1.484
 6671SOL    HW221911   4.794   6.036   1.443
 6672SOL     OW21912  10.482  11.866  13.341
 6672SOL    HW121913  10.487  11.946  13.288
 6672SOL    HW221914  10.408  11.881  13.400
 6673SOL     OW21915   7.464  13.779   9.642
 6673SOL    HW121916   7.437  13.710   9.703
 6673SOL    HW221917   7.560  13.778   9.645
 6674SOL     OW21918   7.728   3.247   7.289
 6674SOL    HW121919   7.737   3.244   7.194
 6674SOL    HW221920   7.727   3.156   7.316
 6675SOL     OW21921  14.079   3.296   6.003
 6675SOL    HW121922  14.014   3.242   5.959
 6675SOL    HW221923  14.070   3.273   6.096
 6676SOL     OW21924  11.029  14.117   6.074
 6676SOL    HW121925  10.996  14.088   5.989
 6676SOL    HW221926  11.000  14.208   6.080
 6677SOL     OW21927  13.228  14.407   3.854
 6677SOL    HW121928  13.299  14.406   3.791
 6677SOL    HW221929  13.270  14.396   3.939
 6678SOL     OW21930   4.084  11.788   2.356
 6678SOL    HW121931   4.072  11.846   2.431
 6678SOL    HW221932   4.078  11.846   2.279
 6679SOL     OW21933  10.575  14.349   2.646
 6679SOL    HW121934  10.563  14.443   2.634
 6679SOL    HW221935  10.536  14.330   2.731
 6680SOL     OW21936   3.881   7.647   2.916
 6680SOL    HW121937   3.879   7.737   2.949
 6680SOL    HW221938   3.922   7.596   2.987
 6681SOL     OW21939   3.133   6.664  13.376
 6681SOL    HW121940   3.122   6.721  13.452
 6681SOL    HW221941   3.223   6.634  13.381
 6682SOL     OW21942  11.372  11.727   8.621
 6682SOL    HW121943  11.344  11.815   8.645
 6682SOL    HW221944  11.408  11.690   8.701
 6683SOL     OW21945   4.693  13.345   2.840
 6683SOL    HW121946   4.623  13.397   2.801
 6683SOL    HW221947   4.774  13.390   2.814
 6684SOL     OW21948  11.451  12.460   4.289
 6684SOL    HW121949  11.531  12.502   4.256
 6684SOL    HW221950  11.391  12.533   4.306
 6685SOL     OW21951   5.406   0.905  12.210
 6685SOL    HW121952   5.406   0.847  12.286
 6685SOL    HW221953   5.471   0.972  12.231
 6686SOL     OW21954  10.066   8.615   3.536
 6686SOL    HW121955   9.973   8.622   3.517
 6686SOL    HW221956  10.069   8.587   3.628
 6687SOL     OW21957   9.512   6.832   7.581
 6687SOL    HW121958   9.422   6.863   7.580
 6687SOL    HW221959   9.562   6.906   7.617
 6688SOL     OW21960  11.950  14.846   1.933
 6688SOL    HW121961  11.928  14.757   1.960
 6688SOL    HW221962  11.874   0.016   1.960
 6689SOL     OW21963   4.217  11.445   2.140
 6689SOL    HW121964   4.204  11.462   2.234
 6689SOL    HW221965   4.146  11.386   2.116
 6690SOL     OW21966   5.009   3.066  14.328
 6690SOL    HW121967   4.966   3.148  14.352
 6690SOL    HW221968   4.943   2.999  14.345
 6691SOL     OW21969   0.966  14.465   2.028
 6691SOL    HW121970   1.029  14.532   2.055
 6691SOL    HW221971   0.983  14.392   2.087
 6692SOL     OW21972  14.104   7.358  14.432
 6692SOL    HW121973  14.102   7.426  14.499
 6692SOL    HW221974  14.184   7.309  14.450
 6693SOL     OW21975  13.150   9.173   9.184
 6693SOL    HW121976  13.090   9.226   9.236
 6693SOL    HW221977  13.237   9.201   9.212
 6694SOL     OW21978  14.111   6.144   2.998
 6694SOL    HW121979  14.173   6.072   3.003
 6694SOL    HW221980  14.130   6.197   3.076
 6695SOL     OW21981   1.488   3.218   5.806
 6695SOL    HW121982   1.438   3.148   5.848
 6695SOL    HW221983   1.561   3.234   5.867
 6696SOL     OW21984   2.226  13.976  14.706
 6696SOL    HW121985   2.301  13.963  14.765
 6696SOL    HW221986   2.187  14.058  14.736
 6697SOL     OW21987   1.266   0.030   7.473
 6697SOL    HW121988   1.286   0.002   7.562
 6697SOL    HW221989   1.318  14.854   7.417
 6698SOL     OW21990  10.846   4.823   5.857
 6698SOL    HW121991  10.789   4.749   5.879
 6698SOL    HW221992  10.821   4.891   5.920
 6699SOL     OW21993   8.032   9.707   9.638
 6699SOL    HW121994   8.039   9.755   9.555
 6699SOL    HW221995   7.972   9.635   9.619
 6700SOL     OW21996   4.624  14.162   1.865
 6700SOL    HW121997   4.648  14.219   1.791
 6700SOL    HW221998   4.535  14.132   1.845
 6701SOL     OW21999   7.524   9.000   5.817
 6701SOL    HW122000   7.479   8.933   5.766
 6701SOL    HW222001   7.614   8.969   5.824
 6702SOL     OW22002  10.505  10.589   6.745
 6702SOL    HW122003  10.580  10.574   6.689
 6702SOL    HW222004  10.541  10.590   6.834
 6703SOL     OW22005   5.847  14.556  14.486
 6703SOL    HW122006   5.893  14.480  14.449
 6703SOL    HW222007   5.832  14.533  14.577
 6704SOL     OW22008   3.585   7.770   0.844
 6704SOL    HW122009   3.554   7.842   0.789
 6704SOL    HW222010   3.523   7.699   0.828
 6705SOL     OW22011   9.754  13.017  14.325
 6705SOL    HW122012   9.762  12.944  14.387
 6705SOL    HW222013   9.710  13.086  14.376
 6706SOL     OW22014  12.914   9.628   1.826
 6706SOL    HW122015  12.853   9.588   1.763
 6706SOL    HW222016  12.957   9.553   1.867
 6707SOL     OW22017  10.612  10.950  11.773
 6707SOL    HW122018  10.596  10.899  11.694
 6707SOL    HW222019  10.677  10.898  11.821
 6708SOL     OW22020   6.615   9.468   9.539
 6708SOL    HW122021   6.618   9.380   9.502
 6708SOL    HW222022   6.691   9.471   9.597
 6709SOL     OW22023   0.963   9.217   4.450
 6709SOL    HW122024   0.959   9.128   4.414
 6709SOL    HW222025   0.872   9.247   4.447
 6710SOL     OW22026  12.984   6.059   0.062
 6710SOL    HW122027  12.979   5.964   0.076
 6710SOL    HW222028  12.913   6.077  14.882
 6711SOL     OW22029   9.505  10.294   5.874
 6711SOL    HW122030   9.548  10.373   5.907
 6711SOL    HW222031   9.545  10.222   5.923
 6712SOL     OW22032   4.347  13.579  13.333
 6712SOL    HW122033   4.281  13.511  13.320
 6712SOL    HW222034   4.431  13.536  13.314
 6713SOL     OW22035  12.564   7.526  11.843
 6713SOL    HW122036  12.647   7.573  11.852
 6713SOL    HW222037  12.584   7.452  11.787
 6714SOL     OW22038   7.074  12.866   3.227
 6714SOL    HW122039   7.168  12.871   3.244
 6714SOL    HW222040   7.040  12.812   3.298
 6715SOL     OW22041   5.392   5.628   9.020
 6715SOL    HW122042   5.309   5.632   8.973
 6715SOL    HW222043   5.375   5.672   9.103
 6716SOL     OW22044   5.734  12.550  12.384
 6716SOL    HW122045   5.710  12.551  12.291
 6716SOL    HW222046   5.788  12.472  12.394
 6717SOL     OW22047   0.265   8.377   2.616
 6717SOL    HW122048   0.246   8.404   2.526
 6717SOL    HW222049   0.255   8.281   2.614
 6718SOL     OW22050  13.121  10.850  12.690
 6718SOL    HW122051  13.058  10.848  12.762
 6718SOL    HW222052  13.130  10.943  12.668
 6719SOL     OW22053   4.027   3.425   3.577
 6719SOL    HW122054   4.022   3.347   3.521
 6719SOL    HW222055   3.991   3.396   3.661
 6720SOL     OW22056  11.227   5.098  12.699
 6720SOL    HW122057  11.308   5.144  12.677
 6720SOL    HW222058  11.249   5.005  12.691
 6721SOL     OW22059   7.349   8.899   5.304
 6721SOL    HW122060   7.293   8.868   5.375
 6721SOL    HW222061   7.343   8.830   5.237
 6722SOL     OW22062   2.082   0.852   4.343
 6722SOL    HW122063   2.098   0.910   4.418
 6722SOL    HW222064   2.132   0.891   4.272
 6723SOL     OW22065   3.572   7.301  14.433
 6723SOL    HW122066   3.551   7.287  14.525
 6723SOL    HW222067   3.541   7.222  14.389
 6724SOL     OW22068   0.059  10.316   7.434
 6724SOL    HW122069   0.128  10.381   7.452
 6724SOL    HW222070   0.098  10.258   7.368
 6725SOL     OW22071   9.445   7.522   6.736
 6725SOL    HW122072   9.531   7.535   6.776
 6725SOL    HW222073   9.390   7.591   6.773
 6726SOL     OW22074   8.730   8.168   7.955
 6726SOL    HW122075   8.749   8.231   8.024
 6726SOL    HW222076   8.710   8.087   8.002
 6727SOL     OW22077   2.011   4.677  10.718
 6727SOL    HW122078   2.068   4.603  10.738
 6727SOL    HW222079   1.923   4.644  10.737
 6728SOL     OW22080   7.772  10.524   1.054
 6728SOL    HW122081   7.772  10.618   1.036
 6728SOL    HW222082   7.721  10.486   0.983
 6729SOL     OW22083  13.125  13.312   3.921
 6729SOL    HW122084  13.142  13.282   4.010
 6729SOL    HW222085  13.211  13.315   3.880
 6730SOL     OW22086   7.794   0.972  12.415
 6730SOL    HW122087   7.708   0.941  12.389
 6730SOL    HW222088   7.839   0.894  12.448
 6731SOL     OW22089   0.990   8.797   7.155
 6731SOL    HW122090   1.000   8.703   7.136
 6731SOL    HW222091   0.934   8.829   7.084
 6732SOL     OW22092  10.380   3.382  10.975
 6732SOL    HW122093  10.474   3.398  10.979
 6732SOL    HW222094  10.371   3.287  10.973
 6733SOL     OW22095   5.394   3.512   9.241
 6733SOL    HW122096   5.442   3.588   9.275
 6733SOL    HW222097   5.317   3.549   9.198
 6734SOL     OW22098   3.009  12.414   6.412
 6734SOL    HW122099   3.046  12.501   6.399
 6734SOL    HW222100   2.956  12.422   6.492
 6735SOL     OW22101   8.777   3.337   4.339
 6735SOL    HW122102   8.742   3.408   4.394
 6735SOL    HW222103   8.701   3.305   4.290
 6736SOL     OW22104   6.865  12.113  14.098
 6736SOL    HW122105   6.844  12.109  14.004
 6736SOL    HW222106   6.927  12.042  14.112
 6737SOL     OW22107  14.580  11.753   8.507
 6737SOL    HW122108  14.555  11.733   8.597
 6737SOL    HW222109  14.650  11.690   8.487
 6738SOL     OW22110   1.370   6.987   2.178
 6738SOL    HW122111   1.330   7.039   2.248
 6738SOL    HW222112   1.463   7.012   2.180
 6739SOL     OW22113  14.728   0.461   4.629
 6739SOL    HW122114  14.667   0.392   4.606
 6739SOL    HW222115  14.804   0.416   4.667
 6740SOL     OW22116   2.791  14.584   3.620
 6740SOL    HW122117   2.853  14.579   3.693
 6740SOL    HW222118   2.845  14.588   3.542
 6741SOL     OW22119  11.169  14.532   1.415
 6741SOL    HW122120  11.110  14.464   1.381
 6741SOL    HW222121  11.246  14.526   1.359
 6742SOL     OW22122   1.312   9.393   9.877
 6742SOL    HW122123   1.222   9.390   9.847
 6742SOL    HW222124   1.359   9.331   9.820
 6743SOL     OW22125  13.931   2.554   9.658
 6743SOL    HW122126  13.874   2.619   9.617
 6743SOL    HW222127  13.910   2.560   9.752
 6744SOL     OW22128  11.034   2.167   7.456
 6744SOL    HW122129  11.020   2.213   7.374
 6744SOL    HW222130  11.048   2.236   7.521
 6745SOL     OW22131   5.987  11.348   9.879
 6745SOL    HW122132   5.953  11.283   9.817
 6745SOL    HW222133   5.931  11.340   9.956
 6746SOL     OW22134   9.689   0.496   7.210
 6746SOL    HW122135   9.696   0.408   7.173
 6746SOL    HW222136   9.597   0.521   7.196
 6747SOL     OW22137  13.128  10.411   9.073
 6747SOL    HW122138  13.144  10.445   9.161
 6747SOL    HW222139  13.106  10.319   9.087
 6748SOL     OW22140  13.194  11.131   8.808
 6748SOL    HW122141  13.266  11.155   8.866
 6748SOL    HW222142  13.144  11.065   8.857
 6749SOL     OW22143   5.404   0.526   9.200
 6749SOL    HW122144   5.497   0.528   9.219
 6749SOL    HW222145   5.366   0.475   9.272
 6750SOL     OW22146  12.433   9.339  11.677
 6750SOL    HW122147  12.382   9.260  11.659
 6750SOL    HW222148  12.521   9.319  11.645
 6751SOL     OW22149   5.866   7.809  13.671
 6751SOL    HW122150   5.953   7.819  13.631
 6751SOL    HW222151   5.816   7.884  13.639
 6752SOL     OW22152  13.935  11.696   3.485
 6752SOL    HW122153  13.988  11.666   3.411
 6752SOL    HW222154  13.995  11.695   3.560
 6753SOL     OW22155   1.198   9.733   5.197
 6753SOL    HW122156   1.206   9.641   5.171
 6753SOL    HW222157   1.104   9.746   5.212
 6754SOL     OW22158  10.127  10.683   5.555
 6754SOL    HW122159  10.119  10.777   5.535
 6754SOL    HW222160  10.152  10.643   5.472
 6755SOL     OW22161  13.958   6.794   9.722
 6755SOL    HW122162  14.031   6.854   9.740
 6755SOL    HW222163  13.942   6.803   9.628
 6756SOL     OW22164   9.843  11.701   5.362
 6756SOL    HW122165   9.840  11.605   5.363
 6756SOL    HW222166   9.751  11.727   5.356
 6757SOL     OW22167   6.774   9.044  12.331
 6757SOL    HW122168   6.814   9.074  12.413
 6757SOL    HW222169   6.848   9.011  12.280
 6758SOL     OW22170   8.722  13.059   1.177
 6758SOL    HW122171   8.812  13.092   1.167
 6758SOL    HW222172   8.695  13.038   1.088
 6759SOL     OW22173   4.509   2.016  13.708
 6759SOL    HW122174   4.506   2.110  13.726
 6759SOL    HW222175   4.457   1.977  13.779
 6760SOL     OW22176   8.436   4.175   7.945
 6760SOL    HW122177   8.349   4.195   7.910
 6760SOL    HW222178   8.493   4.241   7.906
 6761SOL     OW22179  12.913   3.275   2.302
 6761SOL    HW122180  12.826   3.258   2.336
 6761SOL    HW222181  12.911   3.366   2.273
 6762SOL     OW22182  12.993   0.491   4.076
 6762SOL    HW122183  12.999   0.417   4.136
 6762SOL    HW222184  13.040   0.463   3.997
 6763SOL     OW22185  10.224  11.743   1.608
 6763SOL    HW122186  10.192  11.701   1.688
 6763SOL    HW222187  10.276  11.817   1.639
 6764SOL     OW22188   7.973   5.358  10.602
 6764SOL    HW122189   7.924   5.301  10.543
 6764SOL    HW222190   7.908   5.421  10.634
 6765SOL     OW22191   7.610   9.766   8.889
 6765SOL    HW122192   7.605   9.677   8.924
 6765SOL    HW222193   7.687   9.804   8.932
 6766SOL     OW22194   8.338  10.689  14.352
 6766SOL    HW122195   8.285  10.654  14.281
 6766SOL    HW222196   8.412  10.629  14.358
 6767SOL     OW22197   7.925  13.071   2.406
 6767SOL    HW122198   7.969  13.109   2.482
 6767SOL    HW222199   7.849  13.127   2.392
 6768SOL     OW22200   7.357   0.259  10.199
 6768SOL    HW122201   7.450   0.280  10.196
 6768SOL    HW222202   7.342   0.205  10.122
 6769SOL     OW22203   4.113  10.612  11.708
 6769SOL    HW122204   4.107  10.521  11.738
 6769SOL    HW222205   4.061  10.661  11.771
 6770SOL     OW22206  13.123   1.324  12.382
 6770SOL    HW122207  13.068   1.388  12.336
 6770SOL    HW222208  13.066   1.249  12.397
 6771SOL     OW22209   7.560   2.776   3.436
 6771SOL    HW122210   7.526   2.825   3.361
 6771SOL    HW222211   7.517   2.815   3.512
 6772SOL     OW22212   6.931  10.236   0.130
 6772SOL    HW122213   6.936  10.300   0.059
 6772SOL    HW222214   6.840  10.209   0.132
 6773SOL     OW22215   5.447   5.206  12.135
 6773SOL    HW122216   5.499   5.253  12.071
 6773SOL    HW222217   5.503   5.134  12.164
 6774SOL     OW22218  13.941   7.392   0.638
 6774SOL    HW122219  14.030   7.426   0.632
 6774SOL    HW222220  13.893   7.460   0.686
 6775SOL     OW22221  14.720   0.219   2.210
 6775SOL    HW122222  14.673   0.225   2.127
 6775SOL    HW222223  14.783   0.291   2.208
 6776SOL     OW22224   1.307   2.583   5.261
 6776SOL    HW122225   1.231   2.529   5.240
 6776SOL    HW222226   1.270   2.666   5.292
 6777SOL     OW22227   9.034  14.783   0.647
 6777SOL    HW122228   8.971  14.830   0.592
 6777SOL    HW222229   9.019  14.691   0.628
 6778SOL     OW22230  10.397   1.488  13.340
 6778SOL    HW122231  10.314   1.492  13.388
 6778SOL    HW222232  10.428   1.579  13.340
 6779SOL     OW22233   9.731   3.378   4.960
 6779SOL    HW122234   9.647   3.351   4.997
 6779SOL    HW222235   9.755   3.307   4.901
 6780SOL     OW22236   4.761   3.809   9.394
 6780SOL    HW122237   4.831   3.748   9.370
 6780SOL    HW222238   4.681   3.757   9.390
 6781SOL     OW22239  10.409  10.964   5.332
 6781SOL    HW122240  10.421  11.053   5.363
 6781SOL    HW222241  10.330  10.934   5.375
 6782SOL     OW22242   1.228   1.029   6.239
 6782SOL    HW122243   1.309   0.979   6.242
 6782SOL    HW222244   1.168   0.976   6.186
 6783SOL     OW22245   2.298  11.978   5.388
 6783SOL    HW122246   2.295  12.041   5.460
 6783SOL    HW222247   2.326  11.896   5.429
 6784SOL     OW22248   6.397  13.901   7.150
 6784SOL    HW122249   6.309  13.914   7.116
 6784SOL    HW222250   6.447  13.868   7.075
 6785SOL     OW22251   7.552   7.072   6.045
 6785SOL    HW122252   7.527   7.002   5.985
 6785SOL    HW222253   7.502   7.055   6.125
 6786SOL     OW22254   5.524   6.115   6.061
 6786SOL    HW122255   5.525   6.142   6.153
 6786SOL    HW222256   5.511   6.020   6.064
 6787SOL     OW22257   1.496  11.894   3.518
 6787SOL    HW122258   1.514  11.820   3.575
 6787SOL    HW222259   1.544  11.967   3.557
 6788SOL     OW22260   7.231   3.090  11.878
 6788SOL    HW122261   7.146   3.135  11.879
 6788SOL    HW222262   7.247   3.072  11.786
 6789SOL     OW22263  10.122   8.013   5.188
 6789SOL    HW122264  10.078   7.928   5.192
 6789SOL    HW222265  10.071   8.070   5.245
 6790SOL     OW22266   7.258   6.006   0.808
 6790SOL    HW122267   7.207   5.991   0.887
 6790SOL    HW222268   7.317   5.931   0.802
 6791SOL     OW22269   7.239  12.356  11.693
 6791SOL    HW122270   7.315  12.390  11.741
 6791SOL    HW222271   7.164  12.399  11.732
 6792SOL     OW22272   9.101   6.377   3.997
 6792SOL    HW122273   9.185   6.333   3.982
 6792SOL    HW222274   9.045   6.310   4.036
 6793SOL     OW22275  10.723   0.210   0.902
 6793SOL    HW122276  10.661   0.259   0.849
 6793SOL    HW222277  10.803   0.263   0.901
 6794SOL     OW22278  13.160   0.030   5.898
 6794SOL    HW122279  13.255   0.019   5.895
 6794SOL    HW222280  13.142   0.061   5.987
 6795SOL     OW22281   7.868   8.957   1.214
 6795SOL    HW122282   7.958   8.928   1.230
 6795SOL    HW222283   7.877   9.031   1.154
 6796SOL     OW22284   2.587   5.165   6.677
 6796SOL    HW122285   2.558   5.247   6.637
 6796SOL    HW222286   2.632   5.119   6.606
 6797SOL     OW22287   1.356   5.179   4.200
 6797SOL    HW122288   1.333   5.155   4.110
 6797SOL    HW222289   1.292   5.132   4.254
 6798SOL     OW22290   7.333   9.153  11.662
 6798SOL    HW122291   7.313   9.224  11.601
 6798SOL    HW222292   7.410   9.184  11.710
 6799SOL     OW22293  11.916   7.128  13.337
 6799SOL    HW122294  11.994   7.086  13.373
 6799SOL    HW222295  11.940   7.150  13.247
 6800SOL     OW22296   7.456   4.552   6.214
 6800SOL    HW122297   7.500   4.493   6.275
 6800SOL    HW222298   7.407   4.495   6.155
 6801SOL     OW22299   6.466   1.195   6.253
 6801SOL    HW122300   6.405   1.131   6.215
 6801SOL    HW222301   6.473   1.264   6.187
 6802SOL     OW22302  10.658  13.194  10.628
 6802SOL    HW122303  10.601  13.193  10.705
 6802SOL    HW222304  10.650  13.106  10.591
 6803SOL     OW22305   4.490   0.191   7.240
 6803SOL    HW122306   4.516   0.269   7.289
 6803SOL    HW222307   4.505   0.214   7.149
 6804SOL     OW22308  12.178   7.622   6.270
 6804SOL    HW122309  12.219   7.538   6.253
 6804SOL    HW222310  12.086   7.609   6.246
 6805SOL     OW22311  11.230   3.985   9.489
 6805SOL    HW122312  11.241   4.023   9.576
 6805SOL    HW222313  11.287   3.908   9.489
 6806SOL     OW22314  11.270   0.894   6.536
 6806SOL    HW122315  11.182   0.880   6.500
 6806SOL    HW222316  11.304   0.968   6.485
 6807SOL     OW22317   0.608   5.434   7.516
 6807SOL    HW122318   0.677   5.370   7.534
 6807SOL    HW222319   0.648   5.495   7.455
 6808SOL     OW22320   5.220  12.975   7.054
 6808SOL    HW122321   5.178  12.942   7.134
 6808SOL    HW222322   5.206  12.906   6.990
 6809SOL     OW22323  12.686   5.378  13.138
 6809SOL    HW122324  12.770   5.418  13.162
 6809SOL    HW222325  12.631   5.453  13.115
 6810SOL     OW22326   6.627  10.573   4.222
 6810SOL    HW122327   6.532  10.562   4.225
 6810SOL    HW222328   6.645  10.649   4.277
 6811SOL     OW22329  10.690  11.539   0.765
 6811SOL    HW122330  10.663  11.615   0.817
 6811SOL    HW222331  10.613  11.517   0.713
 6812SOL     OW22332   4.341  12.376   0.086
 6812SOL    HW122333   4.282  12.401   0.015
 6812SOL    HW222334   4.365  12.285   0.066
 6813SOL     OW22335   8.267   3.310  12.556
 6813SOL    HW122336   8.218   3.345  12.482
 6813SOL    HW222337   8.201   3.265  12.608
 6814SOL     OW22338   8.829   4.468   5.860
 6814SOL    HW122339   8.857   4.377   5.865
 6814SOL    HW222340   8.879   4.512   5.929
 6815SOL     OW22341   3.492   9.656   8.684
 6815SOL    HW122342   3.406   9.699   8.684
 6815SOL    HW222343   3.480   9.578   8.630
 6816SOL     OW22344   9.902   1.374  13.927
 6816SOL    HW122345   9.978   1.408  13.975
 6816SOL    HW222346   9.937   1.305  13.871
 6817SOL     OW22347   8.527   1.951   0.219
 6817SOL    HW122348   8.537   2.027   0.276
 6817SOL    HW222349   8.617   1.925   0.199
 6818SOL     OW22350   6.025   4.056   7.741
 6818SOL    HW122351   5.967   4.130   7.758
 6818SOL    HW222352   6.071   4.079   7.661
 6819SOL     OW22353  11.135   8.202   3.144
 6819SOL    HW122354  11.169   8.203   3.234
 6819SOL    HW222355  11.147   8.112   3.114
 6820SOL     OW22356   9.291   2.347   2.963
 6820SOL    HW122357   9.303   2.284   2.891
 6820SOL    HW222358   9.363   2.409   2.952
 6821SOL     OW22359   5.451   9.096   5.104
 6821SOL    HW122360   5.404   9.013   5.114
 6821SOL    HW222361   5.382   9.161   5.095
 6822SOL     OW22362  10.986  13.869  12.530
 6822SOL    HW122363  10.914  13.813  12.500
 6822SOL    HW222364  10.945  13.955  12.543
 6823SOL     OW22365   2.014   5.867   5.029
 6823SOL    HW122366   1.973   5.819   4.957
 6823SOL    HW222367   1.945   5.877   5.094
 6824SOL     OW22368   6.744   2.266   3.105
 6824SOL    HW122369   6.815   2.233   3.051
 6824SOL    HW222370   6.772   2.250   3.195
 6825SOL     OW22371   9.560   8.271   3.200
 6825SOL    HW122372   9.479   8.300   3.243
 6825SOL    HW222373   9.544   8.287   3.107
 6826SOL     OW22374  12.382  14.120   6.514
 6826SOL    HW122375  12.415  14.031   6.526
 6826SOL    HW222376  12.296  14.120   6.554
 6827SOL     OW22377   1.219  12.145   6.068
 6827SOL    HW122378   1.302  12.190   6.083
 6827SOL    HW222379   1.241  12.071   6.012
 6828SOL     OW22380   5.932   2.221  11.665
 6828SOL    HW122381   5.978   2.176  11.594
 6828SOL    HW222382   5.839   2.206  11.648
 6829SOL     OW22383   1.928  10.446  10.973
 6829SOL    HW122384   1.841  10.412  10.989
 6829SOL    HW222385   1.974  10.374  10.929
 6830SOL     OW22386   4.724   5.690  11.820
 6830SOL    HW122387   4.685   5.602  11.819
 6830SOL    HW222388   4.818   5.673  11.819
 6831SOL     OW22389   1.766  10.016  10.254
 6831SOL    HW122390   1.812   9.975  10.181
 6831SOL    HW222391   1.825  10.004  10.329
 6832SOL     OW22392   4.137   0.085  10.451
 6832SOL    HW122393   4.094   0.002  10.434
 6832SOL    HW222394   4.196   0.067  10.524
 6833SOL     OW22395  13.672   9.440   3.676
 6833SOL    HW122396  13.669   9.347   3.700
 6833SOL    HW222397  13.742   9.476   3.730
 6834SOL     OW22398  14.541   3.594  11.125
 6834SOL    HW122399  14.468   3.607  11.186
 6834SOL    HW222400  14.610   3.556  11.178
 6835SOL     OW22401   8.396   0.058  13.577
 6835SOL    HW122402   8.335   0.013  13.636
 6835SOL    HW222403   8.342   0.086  13.503
 6836SOL     OW22404   2.996   4.140   3.944
 6836SOL    HW122405   2.934   4.094   3.887
 6836SOL    HW222406   2.955   4.225   3.960
 6837SOL     OW22407  10.368   8.478   0.712
 6837SOL    HW122408  10.318   8.414   0.763
 6837SOL    HW222409  10.450   8.487   0.760
 6838SOL     OW22410   4.606   4.730   8.275
 6838SOL    HW122411   4.629   4.674   8.348
 6838SOL    HW222412   4.562   4.805   8.315
 6839SOL     OW22413   8.435   9.775   1.585
 6839SOL    HW122414   8.377   9.799   1.513
 6839SOL    HW222415   8.380   9.782   1.663
 6840SOL     OW22416   6.455   2.503   1.210
 6840SOL    HW122417   6.389   2.462   1.266
 6840SOL    HW222418   6.521   2.435   1.196
 6841SOL     OW22419   4.730   7.705   7.865
 6841SOL    HW122420   4.778   7.782   7.895
 6841SOL    HW222421   4.744   7.703   7.770
 6842SOL     OW22422   5.433   5.970   6.654
 6842SOL    HW122423   5.374   6.028   6.605
 6842SOL    HW222424   5.462   6.023   6.729
 6843SOL     OW22425   9.615   7.934  10.041
 6843SOL    HW122426   9.590   8.023  10.065
 6843SOL    HW222427   9.532   7.886  10.036
 6844SOL     OW22428   3.113  11.359  11.592
 6844SOL    HW122429   3.129  11.419  11.665
 6844SOL    HW222430   3.025  11.326  11.607
 6845SOL     OW22431   9.615   6.650   1.839
 6845SOL    HW122432   9.677   6.702   1.890
 6845SOL    HW222433   9.593   6.576   1.897
 6846SOL     OW22434   6.179  11.566   1.247
 6846SOL    HW122435   6.182  11.555   1.342
 6846SOL    HW222436   6.092  11.534   1.222
 6847SOL     OW22437   0.681  11.087   3.264
 6847SOL    HW122438   0.759  11.063   3.314
 6847SOL    HW222439   0.610  11.082   3.328
 6848SOL     OW22440   7.243   2.157   0.833
 6848SOL    HW122441   7.271   2.077   0.788
 6848SOL    HW222442   7.167   2.188   0.783
 6849SOL     OW22443   7.590  14.003   4.824
 6849SOL    HW122444   7.531  13.930   4.806
 6849SOL    HW222445   7.653  14.001   4.752
 6850SOL     OW22446  11.694   2.342  12.378
 6850SOL    HW122447  11.626   2.409  12.385
 6850SOL    HW222448  11.657   2.265  12.421
 6851SOL     OW22449   1.216  14.124   5.855
 6851SOL    HW122450   1.198  14.133   5.948
 6851SOL    HW222451   1.196  14.210   5.818
 6852SOL     OW22452   2.828   1.394  12.669
 6852SOL    HW122453   2.759   1.393  12.735
 6852SOL    HW222454   2.829   1.304  12.635
 6853SOL     OW22455  11.370   6.075  11.749
 6853SOL    HW122456  11.287   6.035  11.721
 6853SOL    HW222457  11.369   6.162  11.711
 6854SOL     OW22458   0.179   8.040   9.959
 6854SOL    HW122459   0.089   8.037   9.992
 6854SOL    HW222460   0.230   7.990  10.022
 6855SOL     OW22461   0.743   7.553   9.081
 6855SOL    HW122462   0.700   7.470   9.101
 6855SOL    HW222463   0.682   7.619   9.113
 6856SOL     OW22464  10.321   4.899  10.475
 6856SOL    HW122465  10.245   4.892  10.532
 6856SOL    HW222466  10.360   4.984  10.497
 6857SOL     OW22467   6.987   2.074   2.962
 6857SOL    HW122468   7.049   2.034   2.901
 6857SOL    HW222469   6.992   2.168   2.942
 6858SOL     OW22470  13.340  13.526   5.125
 6858SOL    HW122471  13.263  13.527   5.069
 6858SOL    HW222472  13.398  13.460   5.088
 6859SOL     OW22473   7.302   8.280   2.585
 6859SOL    HW122474   7.328   8.275   2.493
 6859SOL    HW222475   7.249   8.359   2.591
 6860SOL     OW22476  14.735   3.563   5.263
 6860SOL    HW122477  14.667   3.522   5.316
 6860SOL    HW222478  14.744   3.505   5.187
 6861SOL     OW22479   9.908   3.545   9.518
 6861SOL    HW122480   9.906   3.616   9.454
 6861SOL    HW222481   9.857   3.475   9.477
 6862SOL     OW22482   0.388  11.601   2.139
 6862SOL    HW122483   0.377  11.588   2.233
 6862SOL    HW222484   0.315  11.554   2.099
 6863SOL     OW22485   9.455   5.805   5.902
 6863SOL    HW122486   9.550   5.796   5.898
 6863SOL    HW222487   9.431   5.764   5.985
 6864SOL     OW22488   7.904   5.463  11.075
 6864SOL    HW122489   7.919   5.376  11.038
 6864SOL    HW222490   7.814   5.484  11.050
 6865SOL     OW22491   2.377   1.035  13.454
 6865SOL    HW122492   2.306   1.056  13.515
 6865SOL    HW222493   2.336   1.041  13.367
 6866SOL     OW22494   9.772   2.542   7.703
 6866SOL    HW122495   9.832   2.565   7.774
 6866SOL    HW222496   9.759   2.624   7.655
 6867SOL     OW22497   6.798  13.527  10.933
 6867SOL    HW122498   6.773  13.514  11.025
 6867SOL    HW222499   6.872  13.587  10.937
 6868SOL     OW22500   0.499   9.286  10.867
 6868SOL    HW122501   0.533   9.211  10.915
 6868SOL    HW222502   0.568   9.351  10.871
 6869SOL     OW22503   1.140   2.351   3.058
 6869SOL    HW122504   1.126   2.263   3.023
 6869SOL    HW222505   1.133   2.408   2.981
 6870SOL     OW22506   2.153  12.919   7.835
 6870SOL    HW122507   2.200  12.933   7.918
 6870SOL    HW222508   2.061  12.936   7.856
 6871SOL     OW22509  14.307  12.129  14.546
 6871SOL    HW122510  14.237  12.070  14.520
 6871SOL    HW222511  14.383  12.100  14.495
 6872SOL     OW22512   6.264  11.717   5.901
 6872SOL    HW122513   6.181  11.669   5.913
 6872SOL    HW222514   6.319  11.686   5.973
 6873SOL     OW22515   8.501   6.170   8.326
 6873SOL    HW122516   8.495   6.266   8.323
 6873SOL    HW222517   8.476   6.148   8.416
 6874SOL     OW22518  14.788  14.615   9.603
 6874SOL    HW122519  14.698  14.595   9.576
 6874SOL    HW222520  14.834  14.532   9.594
 6875SOL     OW22521   0.535   3.802   1.820
 6875SOL    HW122522   0.486   3.832   1.897
 6875SOL    HW222523   0.531   3.707   1.825
 6876SOL     OW22524  13.076  10.010  12.186
 6876SOL    HW122525  13.135   9.992  12.113
 6876SOL    HW222526  13.127   9.988  12.264
 6877SOL     OW22527   5.347   4.340   3.601
 6877SOL    HW122528   5.434   4.376   3.620
 6877SOL    HW222529   5.288   4.388   3.659
 6878SOL     OW22530   2.314  11.194   0.127
 6878SOL    HW122531   2.259  11.194   0.206
 6878SOL    HW222532   2.357  11.279   0.127
 6879SOL     OW22533   3.467   6.792   3.266
 6879SOL    HW122534   3.434   6.765   3.351
 6879SOL    HW222535   3.403   6.855   3.234
 6880SOL     OW22536  13.639   4.813   3.720
 6880SOL    HW122537  13.583   4.853   3.787
 6880SOL    HW222538  13.660   4.884   3.660
 6881SOL     OW22539   0.319  14.556   3.978
 6881SOL    HW122540   0.367  14.474   3.992
 6881SOL    HW222541   0.228  14.529   3.967
 6882SOL     OW22542   5.696  12.848   5.396
 6882SOL    HW122543   5.719  12.802   5.316
 6882SOL    HW222544   5.693  12.941   5.371
 6883SOL     OW22545   5.298   0.083  14.432
 6883SOL    HW122546   5.372   0.022  14.423
 6883SOL    HW222547   5.221   0.028  14.424
 6884SOL     OW22548  13.940   7.967   8.971
 6884SOL    HW122549  14.032   7.989   8.954
 6884SOL    HW222550  13.894   7.995   8.892
 6885SOL     OW22551   6.073   3.996   1.533
 6885SOL    HW122552   6.095   3.905   1.553
 6885SOL    HW222553   6.089   4.005   1.439
 6886SOL     OW22554   4.864   3.299   9.442
 6886SOL    HW122555   4.816   3.276   9.362
 6886SOL    HW222556   4.830   3.241   9.509
 6887SOL     OW22557   6.197   6.485   3.129
 6887SOL    HW122558   6.228   6.534   3.205
 6887SOL    HW222559   6.181   6.552   3.062
 6888SOL     OW22560   9.809   7.557   6.517
 6888SOL    HW122561   9.850   7.587   6.598
 6888SOL    HW222562   9.753   7.630   6.489
 6889SOL     OW22563   4.626  11.942   4.820
 6889SOL    HW122564   4.689  11.900   4.877
 6889SOL    HW222565   4.576  11.870   4.782
 6890SOL     OW22566   5.283   4.431   5.131
 6890SOL    HW122567   5.206   4.460   5.083
 6890SOL    HW222568   5.327   4.369   5.072
 6891SOL     OW22569  12.782   6.764   3.066
 6891SOL    HW122570  12.753   6.720   2.987
 6891SOL    HW222571  12.837   6.836   3.035
 6892SOL     OW22572  12.937   4.023   4.010
 6892SOL    HW122573  12.993   4.002   4.085
 6892SOL    HW222574  12.994   4.013   3.934
 6893SOL     OW22575  11.310   4.484   0.468
 6893SOL    HW122576  11.255   4.451   0.397
 6893SOL    HW222577  11.279   4.438   0.546
 6894SOL     OW22578   6.371   0.181   4.107
 6894SOL    HW122579   6.366   0.157   4.200
 6894SOL    HW222580   6.290   0.228   4.090
 6895SOL     OW22581  14.490   7.527  10.618
 6895SOL    HW122582  14.480   7.516  10.523
 6895SOL    HW222583  14.546   7.605  10.627
 6896SOL     OW22584  13.760   6.580   0.084
 6896SOL    HW122585  13.670   6.595   0.054
 6896SOL    HW222586  13.814   6.606   0.009
 6897SOL     OW22587   8.555  12.459  13.900
 6897SOL    HW122588   8.642  12.421  13.909
 6897SOL    HW222589   8.528  12.480  13.989
 6898SOL     OW22590   7.809   6.333   4.994
 6898SOL    HW122591   7.843   6.271   4.929
 6898SOL    HW222592   7.731   6.370   4.953
 6899SOL     OW22593  10.089   3.892   6.593
 6899SOL    HW122594  10.051   3.905   6.506
 6899SOL    HW222595  10.043   3.954   6.649
 6900SOL     OW22596   7.349  14.157   2.278
 6900SOL    HW122597   7.399  14.080   2.249
 6900SOL    HW222598   7.271  14.120   2.320
 6901SOL     OW22599   9.670  10.644   6.268
 6901SOL    HW122600   9.728  10.677   6.337
 6901SOL    HW222601   9.609  10.716   6.253
 6902SOL     OW22602   2.220   6.107   8.660
 6902SOL    HW122603   2.265   6.157   8.592
 6902SOL    HW222604   2.267   6.024   8.665
 6903SOL     OW22605  11.615  11.442   6.629
 6903SOL    HW122606  11.639  11.411   6.541
 6903SOL    HW222607  11.641  11.370   6.687
 6904SOL     OW22608   2.570   5.920   2.046
 6904SOL    HW122609   2.601   5.916   1.956
 6904SOL    HW222610   2.545   5.830   2.068
 6905SOL     OW22611   6.473   0.973   4.975
 6905SOL    HW122612   6.497   0.880   4.980
 6905SOL    HW222613   6.417   0.988   5.051
 6906SOL     OW22614   8.232   2.224  14.642
 6906SOL    HW122615   8.215   2.275  14.722
 6906SOL    HW222616   8.196   2.277  14.571
 6907SOL     OW22617   5.814   6.658   5.245
 6907SOL    HW122618   5.905   6.687   5.245
 6907SOL    HW222619   5.787   6.664   5.336
 6908SOL     OW22620  11.381  13.115   5.865
 6908SOL    HW122621  11.438  13.162   5.804
 6908SOL    HW222622  11.434  13.044   5.899
 6909SOL     OW22623   5.049   5.974  13.674
 6909SOL    HW122624   5.009   6.018  13.598
 6909SOL    HW222625   4.986   5.986  13.744
 6910SOL     OW22626   5.558   4.999   4.809
 6910SOL    HW122627   5.549   5.015   4.903
 6910SOL    HW222628   5.613   5.071   4.777
 6911SOL     OW22629   2.198  13.895   9.842
 6911SOL    HW122630   2.200  13.800   9.828
 6911SOL    HW222631   2.146  13.906   9.921
 6912SOL     OW22632   3.683   4.879  14.541
 6912SOL    HW122633   3.702   4.965  14.579
 6912SOL    HW222634   3.748   4.821  14.580
 6913SOL     OW22635  10.382   9.714   7.903
 6913SOL    HW122636  10.292   9.706   7.873
 6913SOL    HW222637  10.433   9.667   7.837
 6914SOL     OW22638   1.103   0.658   9.208
 6914SOL    HW122639   1.162   0.663   9.283
 6914SOL    HW222640   1.146   0.710   9.140
 6915SOL     OW22641   3.234   5.246   7.632
 6915SOL    HW122642   3.193   5.189   7.697
 6915SOL    HW222643   3.307   5.196   7.597
 6916SOL     OW22644  14.524   9.231   0.152
 6916SOL    HW122645  14.563   9.168   0.092
 6916SOL    HW222646  14.599   9.279   0.188
 6917SOL     OW22647  14.584   9.664   8.036
 6917SOL    HW122648  14.500   9.698   8.064
 6917SOL    HW222649  14.635   9.656   8.117
 6918SOL     OW22650   8.712  10.405   3.873
 6918SOL    HW122651   8.727  10.389   3.780
 6918SOL    HW222652   8.724  10.320   3.914
 6919SOL     OW22653   3.537  11.363  11.415
 6919SOL    HW122654   3.564  11.296  11.353
 6919SOL    HW222655   3.574  11.334  11.499
 6920SOL     OW22656   1.700   1.494   3.880
 6920SOL    HW122657   1.712   1.399   3.877
 6920SOL    HW222658   1.784   1.530   3.851
 6921SOL     OW22659   8.419   4.191  14.653
 6921SOL    HW122660   8.448   4.107  14.619
 6921SOL    HW222661   8.422   4.181  14.748
 6922SOL     OW22662  10.369  10.352   8.206
 6922SOL    HW122663  10.309  10.279   8.194
 6922SOL    HW222664  10.364  10.401   8.123
 6923SOL     OW22665   3.069   3.128   6.131
 6923SOL    HW122666   3.055   3.080   6.049
 6923SOL    HW222667   2.990   3.180   6.142
 6924SOL     OW22668  14.272   6.529   9.521
 6924SOL    HW122669  14.192   6.502   9.567
 6924SOL    HW222670  14.248   6.525   9.429
 6925SOL     OW22671   7.159   2.353  14.786
 6925SOL    HW122672   7.236   2.298  14.801
 6925SOL    HW222673   7.176   2.433  14.835
 6926SOL     OW22674  13.979   7.399   1.368
 6926SOL    HW122675  13.946   7.333   1.307
 6926SOL    HW222676  14.010   7.348   1.443
 6927SOL     OW22677   8.137   3.206   6.629
 6927SOL    HW122678   8.136   3.249   6.715
 6927SOL    HW222679   8.059   3.238   6.585
 6928SOL     OW22680   7.053   9.528   9.639
 6928SOL    HW122681   7.097   9.548   9.556
 6928SOL    HW222682   7.026   9.614   9.673
 6929SOL     OW22683   7.377  13.944  10.198
 6929SOL    HW122684   7.446  13.881  10.218
 6929SOL    HW222685   7.298  13.906  10.238
 6930SOL     OW22686   6.185   8.275   7.530
 6930SOL    HW122687   6.130   8.239   7.461
 6930SOL    HW222688   6.128   8.336   7.576
 6931SOL     OW22689   6.020   9.973   8.569
 6931SOL    HW122690   6.007   9.925   8.651
 6931SOL    HW222691   5.936   9.966   8.524
 6932SOL     OW22692   0.299  12.497  12.491
 6932SOL    HW122693   0.347  12.565  12.538
 6932SOL    HW222694   0.327  12.415  12.532
 6933SOL     OW22695   0.577  12.074   5.721
 6933SOL    HW122696   0.586  11.995   5.775
 6933SOL    HW222697   0.512  12.127   5.767
 6934SOL     OW22698  13.687  11.009   0.632
 6934SOL    HW122699  13.778  11.001   0.663
 6934SOL    HW222700  13.675  11.103   0.619
 6935SOL     OW22701  13.540   5.694  13.109
 6935SOL    HW122702  13.524   5.787  13.091
 6935SOL    HW222703  13.559   5.655  13.024
 6936SOL     OW22704   2.488   5.954   4.433
 6936SOL    HW122705   2.460   5.979   4.521
 6936SOL    HW222706   2.416   5.981   4.376
 6937SOL     OW22707   3.863   4.443  10.525
 6937SOL    HW122708   3.905   4.493  10.595
 6937SOL    HW222709   3.870   4.499  10.448
 6938SOL     OW22710   6.063   2.227   7.165
 6938SOL    HW122711   6.113   2.185   7.095
 6938SOL    HW222712   6.018   2.300   7.123
 6939SOL     OW22713   7.887  11.419   0.817
 6939SOL    HW122714   7.843  11.413   0.732
 6939SOL    HW222715   7.821  11.389   0.880
 6940SOL     OW22716   9.375  13.922   9.226
 6940SOL    HW122717   9.386  13.926   9.131
 6940SOL    HW222718   9.462  13.898   9.259
 6941SOL     OW22719   4.553  13.071   3.407
 6941SOL    HW122720   4.553  12.976   3.424
 6941SOL    HW222721   4.484  13.083   3.342
 6942SOL     OW22722   5.737   5.848   5.633
 6942SOL    HW122723   5.828   5.820   5.647
 6942SOL    HW222724   5.693   5.827   5.715
 6943SOL     OW22725  13.207   2.356  11.138
 6943SOL    HW122726  13.174   2.271  11.109
 6943SOL    HW222727  13.132   2.399  11.179
 6944SOL     OW22728   5.525   9.643  12.545
 6944SOL    HW122729   5.569   9.707  12.490
 6944SOL    HW222730   5.435   9.641  12.512
 6945SOL     OW22731   2.966  10.258   4.747
 6945SOL    HW122732   2.947  10.176   4.703
 6945SOL    HW222733   2.959  10.325   4.679
 6946SOL     OW22734   5.493  12.619  10.503
 6946SOL    HW122735   5.560  12.682  10.529
 6946SOL    HW222736   5.481  12.564  10.580
 6947SOL     OW22737   1.138   5.171   3.357
 6947SOL    HW122738   1.168   5.206   3.273
 6947SOL    HW222739   1.109   5.249   3.406
 6948SOL     OW22740   6.180  10.549   9.810
 6948SOL    HW122741   6.190  10.622   9.750
 6948SOL    HW222742   6.257  10.554   9.867
 6949SOL     OW22743   4.526   3.057  11.170
 6949SOL    HW122744   4.592   3.112  11.211
 6949SOL    HW222745   4.568   3.025  11.090
 6950SOL     OW22746   7.470   5.951   2.737
 6950SOL    HW122747   7.509   5.931   2.652
 6950SOL    HW222748   7.376   5.949   2.722
 6951SOL     OW22749  11.930  13.450   8.499
 6951SOL    HW122750  11.932  13.542   8.473
 6951SOL    HW222751  12.014  13.435   8.542
 6952SOL     OW22752   4.380   9.328   4.620
 6952SOL    HW122753   4.354   9.253   4.567
 6952SOL    HW222754   4.467   9.305   4.653
 6953SOL     OW22755  10.290   7.380   0.969
 6953SOL    HW122756  10.352   7.357   0.900
 6953SOL    HW222757  10.271   7.473   0.955
 6954SOL     OW22758   8.681   2.048  13.771
 6954SOL    HW122759   8.724   2.058  13.686
 6954SOL    HW222760   8.647   2.135  13.791
 6955SOL     OW22761  11.876  10.149   5.630
 6955SOL    HW122762  11.913  10.192   5.553
 6955SOL    HW222763  11.890  10.211   5.702
 6956SOL     OW22764   0.114  12.929   9.817
 6956SOL    HW122765   0.169  13.003   9.841
 6956SOL    HW222766   0.071  12.904   9.899
 6957SOL     OW22767   2.848   1.061   2.353
 6957SOL    HW122768   2.784   1.106   2.298
 6957SOL    HW222769   2.858   1.118   2.430
 6958SOL     OW22770   8.464   6.860   7.500
 6958SOL    HW122771   8.550   6.828   7.474
 6958SOL    HW222772   8.481   6.911   7.579
 6959SOL     OW22773   2.931  13.200   9.432
 6959SOL    HW122774   2.957  13.137   9.499
 6959SOL    HW222775   2.835  13.194   9.428
 6960SOL     OW22776   8.899   1.129   4.166
 6960SOL    HW122777   8.848   1.186   4.108
 6960SOL    HW222778   8.847   1.049   4.173
 6961SOL     OW22779   1.307  11.277  14.283
 6961SOL    HW122780   1.224  11.325  14.287
 6961SOL    HW222781   1.347  11.291  14.369
 6962SOL     OW22782   7.022  10.586  10.417
 6962SOL    HW122783   7.106  10.540  10.422
 6962SOL    HW222784   7.002  10.590  10.324
 6963SOL     OW22785   3.460  10.525  12.673
 6963SOL    HW122786   3.428  10.589  12.737
 6963SOL    HW222787   3.541  10.491  12.712
 6964SOL     OW22788   2.840   2.744   9.667
 6964SOL    HW122789   2.780   2.670   9.660
 6964SOL    HW222790   2.782   2.819   9.685
 6965SOL     OW22791  12.376   0.633   1.735
 6965SOL    HW122792  12.458   0.625   1.784
 6965SOL    HW222793  12.403   0.626   1.643
 6966SOL     OW22794   6.811   0.512   8.391
 6966SOL    HW122795   6.881   0.570   8.420
 6966SOL    HW222796   6.846   0.424   8.405
 6967SOL     OW22797   0.445   0.460   8.774
 6967SOL    HW122798   0.428   0.389   8.837
 6967SOL    HW222799   0.358   0.490   8.748
 6968SOL     OW22800   9.945   1.144   2.777
 6968SOL    HW122801   9.916   1.126   2.867
 6968SOL    HW222802  10.010   1.077   2.759
 6969SOL     OW22803  12.221   8.981   2.572
 6969SOL    HW122804  12.282   9.048   2.540
 6969SOL    HW222805  12.141   8.997   2.522
 6970SOL     OW22806   4.875  14.779   8.735
 6970SOL    HW122807   4.951  14.831   8.707
 6970SOL    HW222808   4.811  14.792   8.665
 6971SOL     OW22809   3.001   0.432   2.344
 6971SOL    HW122810   3.001   0.516   2.298
 6971SOL    HW222811   2.950   0.374   2.287
 6972SOL     OW22812  12.886   4.985  14.578
 6972SOL    HW122813  12.804   5.007  14.621
 6972SOL    HW222814  12.887   5.039  14.499
 6973SOL     OW22815   4.018   3.731   6.587
 6973SOL    HW122816   4.020   3.661   6.521
 6973SOL    HW222817   4.104   3.726   6.628
 6974SOL     OW22818  10.425   3.379   9.360
 6974SOL    HW122819  10.511   3.392   9.320
 6974SOL    HW222820  10.442   3.324   9.436
 6975SOL     OW22821   3.286   8.855   8.292
 6975SOL    HW122822   3.305   8.876   8.201
 6975SOL    HW222823   3.362   8.804   8.321
 6976SOL     OW22824   6.655  14.180  10.116
 6976SOL    HW122825   6.590  14.117  10.144
 6976SOL    HW222826   6.639  14.257  10.171
 6977SOL     OW22827   1.368   1.289   5.053
 6977SOL    HW122828   1.407   1.323   5.134
 6977SOL    HW222829   1.281   1.260   5.078
 6978SOL     OW22830  10.735  14.021   3.735
 6978SOL    HW122831  10.723  14.091   3.671
 6978SOL    HW222832  10.830  14.013   3.744
 6979SOL     OW22833   3.156  12.545  12.542
 6979SOL    HW122834   3.207  12.480  12.494
 6979SOL    HW222835   3.091  12.577  12.479
 6980SOL     OW22836   3.698  11.407   9.684
 6980SOL    HW122837   3.692  11.497   9.653
 6980SOL    HW222838   3.790  11.395   9.705
 6981SOL     OW22839   4.370  13.642   7.111
 6981SOL    HW122840   4.452  13.636   7.161
 6981SOL    HW222841   4.394  13.613   7.023
 6982SOL     OW22842   7.756   9.993  14.368
 6982SOL    HW122843   7.757  10.060  14.436
 6982SOL    HW222844   7.835  10.009  14.317
 6983SOL     OW22845   5.267   7.737   3.860
 6983SOL    HW122846   5.195   7.723   3.800
 6983SOL    HW222847   5.295   7.827   3.846
 6984SOL     OW22848   4.217  12.278   9.559
 6984SOL    HW122849   4.269  12.350   9.522
 6984SOL    HW222850   4.146  12.266   9.496
 6985SOL     OW22851  12.986   3.554   9.088
 6985SOL    HW122852  13.050   3.625   9.087
 6985SOL    HW222853  12.910   3.589   9.042
 6986SOL     OW22854   8.787   5.849   4.369
 6986SOL    HW122855   8.827   5.840   4.282
 6986SOL    HW222856   8.713   5.789   4.367
 6987SOL     OW22857  11.903  11.099   7.371
 6987SOL    HW122858  11.892  11.190   7.341
 6987SOL    HW222859  11.992  11.096   7.406
 6988SOL     OW22860   0.593   9.401   2.343
 6988SOL    HW122861   0.513   9.419   2.392
 6988SOL    HW222862   0.596   9.305   2.337
 6989SOL     OW22863   3.141  12.305   5.663
 6989SOL    HW122864   3.046  12.316   5.658
 6989SOL    HW222865   3.176  12.394   5.653
 6990SOL     OW22866   6.687  12.079   7.040
 6990SOL    HW122867   6.684  12.172   7.063
 6990SOL    HW222868   6.619  12.069   6.973
 6991SOL     OW22869  10.962   3.401   5.274
 6991SOL    HW122870  10.964   3.315   5.316
 6991SOL    HW222871  11.054   3.427   5.267
 6992SOL     OW22872   7.228  11.965   1.875
 6992SOL    HW122873   7.229  12.039   1.815
 6992SOL    HW222874   7.148  11.978   1.927
 6993SOL     OW22875   4.444   2.391  11.753
 6993SOL    HW122876   4.465   2.477  11.789
 6993SOL    HW222877   4.494   2.387  11.671
 6994SOL     OW22878   8.324  12.231   9.789
 6994SOL    HW122879   8.257  12.293   9.819
 6994SOL    HW222880   8.350  12.265   9.703
 6995SOL     OW22881   8.674   0.012   4.672
 6995SOL    HW122882   8.608   0.013   4.741
 6995SOL    HW222883   8.706   0.102   4.668
 6996SOL     OW22884   1.622   7.512  14.724
 6996SOL    HW122885   1.617   7.489  14.631
 6996SOL    HW222886   1.551   7.463  14.765
 6997SOL     OW22887   2.352  13.226   7.264
 6997SOL    HW122888   2.261  13.198   7.251
 6997SOL    HW222889   2.404  13.146   7.250
 6998SOL     OW22890   6.122   1.102   3.935
 6998SOL    HW122891   6.131   1.022   3.985
 6998SOL    HW222892   6.101   1.073   3.846
 6999SOL     OW22893   7.205  12.579   8.893
 6999SOL    HW122894   7.159  12.522   8.954
 6999SOL    HW222895   7.279  12.527   8.863
 7000SOL     OW22896   9.948   9.694   1.749
 7000SOL    HW122897   9.968   9.766   1.809
 7000SOL    HW222898  10.031   9.647   1.739
 7001SOL     OW22899  13.029   9.012   2.594
 7001SOL    HW122900  13.050   8.922   2.571
 7001SOL    HW222901  12.935   9.020   2.577
 7002SOL     OW22902   9.135   1.685   5.380
 7002SOL    HW122903   9.043   1.699   5.402
 7002SOL    HW222904   9.179   1.767   5.403
 7003SOL     OW22905   1.832   3.191  12.807
 7003SOL    HW122906   1.835   3.284  12.788
 7003SOL    HW222907   1.827   3.148  12.721
 7004SOL     OW22908   1.356   2.371   5.469
 7004SOL    HW122909   1.322   2.460   5.464
 7004SOL    HW222910   1.368   2.346   5.377
 7005SOL     OW22911   0.901  10.955  13.890
 7005SOL    HW122912   0.973  10.923  13.836
 7005SOL    HW222913   0.844  10.879  13.902
 7006SOL     OW22914   1.387   4.961   0.563
 7006SOL    HW122915   1.453   5.018   0.524
 7006SOL    HW222916   1.336   4.930   0.489
 7007SOL     OW22917  11.390   6.358  14.089
 7007SOL    HW122918  11.347   6.444  14.087
 7007SOL    HW222919  11.331   6.300  14.041
 7008SOL     OW22920   2.350  11.492  10.127
 7008SOL    HW122921   2.291  11.460  10.058
 7008SOL    HW222922   2.329  11.439  10.204
 7009SOL     OW22923   8.686   8.188   0.060
 7009SOL    HW122924   8.614   8.149   0.111
 7009SOL    HW222925   8.723   8.114   0.011
 7010SOL     OW22926   0.012  11.357   5.939
 7010SOL    HW122927  14.827  11.317   5.884
 7010SOL    HW222928   0.087  11.297   5.932
 7011SOL     OW22929  14.818  11.525   7.398
 7011SOL    HW122930  14.855  11.592   7.456
 7011SOL    HW222931   0.005  11.460   7.388
 7012SOL     OW22932  11.503  13.842   6.327
 7012SOL    HW122933  11.418  13.859   6.287
 7012SOL    HW222934  11.484  13.793   6.407
 7013SOL     OW22935  14.068  14.800  10.608
 7013SOL    HW122936  14.015  14.762  10.538
 7013SOL    HW222937  14.130  14.731  10.632
 7014SOL     OW22938   1.570   2.787   6.215
 7014SOL    HW122939   1.534   2.718   6.271
 7014SOL    HW222940   1.512   2.862   6.230
 7015SOL     OW22941   8.343  14.600  12.984
 7015SOL    HW122942   8.306  14.635  12.903
 7015SOL    HW222943   8.287  14.525  13.006
 7016SOL     OW22944  12.295   9.773   0.297
 7016SOL    HW122945  12.237   9.770   0.373
 7016SOL    HW222946  12.252   9.717   0.232
 7017SOL     OW22947  11.172   3.299   0.756
 7017SOL    HW122948  11.150   3.392   0.764
 7017SOL    HW222949  11.251   3.297   0.703
 7018SOL     OW22950  10.452   8.994  12.089
 7018SOL    HW122951  10.378   8.940  12.062
 7018SOL    HW222952  10.527   8.959  12.041
 7019SOL     OW22953   8.102   5.463  11.743
 7019SOL    HW122954   8.028   5.477  11.802
 7019SOL    HW222955   8.176   5.445  11.801
 7020SOL     OW22956   6.975   0.738  11.819
 7020SOL    HW122957   6.918   0.753  11.743
 7020SOL    HW222958   7.023   0.821  11.828
 7021SOL     OW22959   6.915   8.560   2.710
 7021SOL    HW122960   6.915   8.467   2.730
 7021SOL    HW222961   6.964   8.600   2.782
 7022SOL     OW22962   5.551   3.882   8.751
 7022SOL    HW122963   5.582   3.840   8.831
 7022SOL    HW222964   5.498   3.956   8.782
 7023SOL     OW22965   2.811   4.620   3.314
 7023SOL    HW122966   2.858   4.697   3.345
 7023SOL    HW222967   2.724   4.627   3.353
 7024SOL     OW22968  13.430   2.419   2.415
 7024SOL    HW122969  13.433   2.443   2.507
 7024SOL    HW222970  13.337   2.417   2.393
 7025SOL     OW22971  13.450   6.382  10.018
 7025SOL    HW122972  13.527   6.404  10.070
 7025SOL    HW222973  13.391   6.456  10.029
 7026SOL     OW22974   5.093  12.799   4.737
 7026SOL    HW122975   5.101  12.893   4.758
 7026SOL    HW222976   4.999  12.784   4.727
 7027SOL     OW22977   4.334   7.627   1.121
 7027SOL    HW122978   4.244   7.595   1.107
 7027SOL    HW222979   4.389   7.557   1.087
 7028SOL     OW22980   8.683  14.344   5.143
 7028SOL    HW122981   8.739  14.282   5.097
 7028SOL    HW222982   8.594  14.315   5.124
 7029SOL     OW22983  14.741  11.080   9.095
 7029SOL    HW122984  14.683  11.004   9.094
 7029SOL    HW222985  14.684  11.155   9.079
 7030SOL     OW22986   7.234   7.714   3.160
 7030SOL    HW122987   7.195   7.640   3.115
 7030SOL    HW222988   7.296   7.675   3.221
 7031SOL     OW22989   8.615  11.797  11.050
 7031SOL    HW122990   8.678  11.776  11.118
 7031SOL    HW222991   8.668  11.825  10.975
 7032SOL     OW22992   7.705   3.729  11.288
 7032SOL    HW122993   7.725   3.806  11.341
 7032SOL    HW222994   7.759   3.738  11.210
 7033SOL     OW22995   9.763  10.166   7.490
 7033SOL    HW122996   9.793  10.257   7.481
 7033SOL    HW222997   9.689  10.160   7.430
 7034SOL     OW22998  10.707  11.773   8.193
 7034SOL    HW122999  10.655  11.697   8.167
 7034SOL    HW223000  10.650  11.823   8.252
 7035SOL     OW23001  14.370   9.956  14.492
 7035SOL    HW123002  14.286  10.000  14.509
 7035SOL    HW223003  14.434  10.007  14.543
 7036SOL     OW23004  12.138  13.301   0.292
 7036SOL    HW123005  12.196  13.338   0.358
 7036SOL    HW223006  12.170  13.212   0.279
 7037SOL     OW23007   9.211  10.906   8.822
 7037SOL    HW123008   9.137  10.869   8.870
 7037SOL    HW223009   9.176  10.984   8.779
 7038SOL     OW23010  13.879   2.021   7.218
 7038SOL    HW123011  13.880   2.042   7.124
 7038SOL    HW223012  13.954   1.965   7.231
 7039SOL     OW23013   2.040   2.105   9.110
 7039SOL    HW123014   2.103   2.177   9.105
 7039SOL    HW223015   1.996   2.117   9.194
 7040SOL     OW23016  10.394   3.445   7.110
 7040SOL    HW123017  10.372   3.363   7.066
 7040SOL    HW223018  10.452   3.490   7.049
 7041SOL     OW23019  14.654   7.027  13.443
 7041SOL    HW123020  14.700   7.088  13.501
 7041SOL    HW223021  14.720   6.960  13.422
 7042SOL     OW23022  13.596   7.483  12.107
 7042SOL    HW123023  13.574   7.494  12.015
 7042SOL    HW223024  13.550   7.554  12.152
 7043SOL     OW23025   1.609  14.353  14.134
 7043SOL    HW123026   1.685  14.375  14.081
 7043SOL    HW223027   1.536  14.397  14.089
 7044SOL     OW23028   5.052  12.347   4.520
 7044SOL    HW123029   5.089  12.395   4.446
 7044SOL    HW223030   5.116  12.359   4.591
 7045SOL     OW23031   9.642  12.487   2.091
 7045SOL    HW123032   9.717  12.540   2.067
 7045SOL    HW223033   9.566  12.536   2.061
 7046SOL     OW23034   7.538  11.199  14.125
 7046SOL    HW123035   7.464  11.142  14.103
 7046SOL    HW223036   7.525  11.220  14.218
 7047SOL     OW23037   1.387  11.088  14.871
 7047SOL    HW123038   1.377  11.183  14.877
 7047SOL    HW223039   1.424  11.064   0.074
 7048SOL     OW23040   2.121   3.831   9.552
 7048SOL    HW123041   2.163   3.891   9.491
 7048SOL    HW223042   2.185   3.819   9.622
 7049SOL     OW23043   1.498   7.962  12.194
 7049SOL    HW123044   1.496   7.952  12.099
 7049SOL    HW223045   1.579   7.918  12.221
 7050SOL     OW23046  10.659  14.824   0.877
 7050SOL    HW123047  10.676   0.035   0.867
 7050SOL    HW223048  10.741  14.781   0.853
 7051SOL     OW23049  14.643   1.684   8.433
 7051SOL    HW123050  14.559   1.698   8.478
 7051SOL    HW223051  14.627   1.607   8.377
 7052SOL     OW23052   8.700   4.339  12.252
 7052SOL    HW123053   8.613   4.338  12.213
 7052SOL    HW223054   8.757   4.374  12.184
 7053SOL     OW23055  10.050   8.074   5.698
 7053SOL    HW123056   9.995   8.105   5.770
 7053SOL    HW223057  10.139   8.094   5.726
 7054SOL     OW23058   1.992   2.735   8.951
 7054SOL    HW123059   1.987   2.794   9.026
 7054SOL    HW223060   1.929   2.770   8.888
 7055SOL     OW23061   1.016  14.379   9.738
 7055SOL    HW123062   1.016  14.471   9.764
 7055SOL    HW223063   1.109  14.357   9.729
 7056SOL     OW23064  14.208  14.553   5.885
 7056SOL    HW123065  14.270  14.607   5.934
 7056SOL    HW223066  14.134  14.611   5.868
 7057SOL     OW23067   1.869  12.738   7.484
 7057SOL    HW123068   1.846  12.751   7.576
 7057SOL    HW223069   1.965  12.743   7.483
 7058SOL     OW23070   9.988  12.940   5.589
 7058SOL    HW123071  10.009  12.896   5.507
 7058SOL    HW223072   9.950  13.024   5.563
 7059SOL     OW23073  11.234  13.950  12.450
 7059SOL    HW123074  11.163  13.936  12.513
 7059SOL    HW223075  11.189  13.955  12.365
 7060SOL     OW23076   2.617   0.611  13.093
 7060SOL    HW123077   2.701   0.567  13.084
 7060SOL    HW223078   2.608   0.628  13.186
 7061SOL     OW23079   8.393   7.225   9.398
 7061SOL    HW123080   8.343   7.306   9.407
 7061SOL    HW223081   8.333   7.156   9.426
 7062SOL     OW23082  12.239  13.541   8.462
 7062SOL    HW123083  12.230  13.475   8.393
 7062SOL    HW223084  12.304  13.603   8.428
 7063SOL     OW23085  12.953  12.878  13.143
 7063SOL    HW123086  12.947  12.783  13.129
 7063SOL    HW223087  12.892  12.896  13.215
 7064SOL     OW23088   2.403   9.354  14.489
 7064SOL    HW123089   2.340   9.378  14.422
 7064SOL    HW223090   2.484   9.398  14.463
 7065SOL     OW23091   6.725  11.082   5.433
 7065SOL    HW123092   6.700  11.004   5.383
 7065SOL    HW223093   6.804  11.114   5.390
 7066SOL     OW23094   9.304   0.647   2.523
 7066SOL    HW123095   9.238   0.623   2.458
 7066SOL    HW223096   9.264   0.716   2.574
 7067SOL     OW23097   5.500   4.540  14.274
 7067SOL    HW123098   5.538   4.538  14.361
 7067SOL    HW223099   5.477   4.631  14.259
 7068SOL     OW23100  10.421  10.781   8.103
 7068SOL    HW123101  10.384  10.742   8.182
 7068SOL    HW223102  10.503  10.733   8.089
 7069SOL     OW23103   2.770  10.016  11.496
 7069SOL    HW123104   2.693   9.998  11.443
 7069SOL    HW223105   2.837  10.040  11.433
 7070SOL     OW23106   6.593   8.966   4.396
 7070SOL    HW123107   6.681   8.990   4.425
 7070SOL    HW223108   6.567   8.892   4.451
 7071SOL     OW23109   4.066   1.631   4.830
 7071SOL    HW123110   4.048   1.539   4.812
 7071SOL    HW223111   4.051   1.641   4.924
 7072SOL     OW23112  10.056   7.520   0.261
 7072SOL    HW123113  10.033   7.431   0.235
 7072SOL    HW223114  10.056   7.570   0.180
 7073SOL     OW23115  10.304   6.202   2.505
 7073SOL    HW123116  10.229   6.262   2.506
 7073SOL    HW223117  10.371   6.247   2.454
 7074SOL     OW23118  14.140   8.060   9.192
 7074SOL    HW123119  14.090   8.120   9.247
 7074SOL    HW223120  14.180   8.116   9.125
 7075SOL     OW23121   2.139   1.634   9.242
 7075SOL    HW123122   2.059   1.634   9.190
 7075SOL    HW223123   2.205   1.596   9.185
 7076SOL     OW23124   3.131  12.204  10.323
 7076SOL    HW123125   3.160  12.141  10.390
 7076SOL    HW223126   3.113  12.284  10.373
 7077SOL     OW23127   2.367   1.591  14.043
 7077SOL    HW123128   2.369   1.555  14.132
 7077SOL    HW223129   2.275   1.589  14.019
 7078SOL     OW23130   3.169  13.612   3.510
 7078SOL    HW123131   3.159  13.607   3.605
 7078SOL    HW223132   3.157  13.522   3.480
 7079SOL     OW23133   4.260   7.983   0.286
 7079SOL    HW123134   4.327   7.920   0.312
 7079SOL    HW223135   4.181   7.930   0.273
 7080SOL     OW23136   4.401   3.583   7.347
 7080SOL    HW123137   4.399   3.612   7.438
 7080SOL    HW223138   4.314   3.546   7.331
 7081SOL     OW23139   8.514  10.380   5.666
 7081SOL    HW123140   8.533  10.395   5.573
 7081SOL    HW223141   8.428  10.337   5.666
 7082SOL     OW23142   1.813   1.809  12.329
 7082SOL    HW123143   1.753   1.883  12.338
 7082SOL    HW223144   1.900   1.846  12.345
 7083SOL     OW23145   5.965  10.421   7.536
 7083SOL    HW123146   5.977  10.516   7.534
 7083SOL    HW223147   5.871  10.409   7.521
 7084SOL     OW23148   9.641   0.399  10.282
 7084SOL    HW123149   9.584   0.332  10.246
 7084SOL    HW223150   9.584   0.452  10.338
 7085SOL     OW23151   9.258   5.300   5.029
 7085SOL    HW123152   9.190   5.366   5.047
 7085SOL    HW223153   9.339   5.350   5.021
 7086SOL     OW23154  11.178   0.269  12.129
 7086SOL    HW123155  11.188   0.355  12.170
 7086SOL    HW223156  11.207   0.207  12.195
 7087SOL     OW23157  10.845   2.589   0.612
 7087SOL    HW123158  10.853   2.514   0.671
 7087SOL    HW223159  10.756   2.620   0.625
 7088SOL     OW23160   1.714  10.513   3.957
 7088SOL    HW123161   1.692  10.478   4.044
 7088SOL    HW223162   1.809  10.500   3.950
 7089SOL     OW23163   2.150   3.462  11.057
 7089SOL    HW123164   2.113   3.540  11.016
 7089SOL    HW223165   2.206   3.495  11.127
 7090SOL     OW23166   9.542  13.863   4.188
 7090SOL    HW123167   9.623  13.882   4.140
 7090SOL    HW223168   9.476  13.918   4.147
 7091SOL     OW23169   7.950   9.119   5.865
 7091SOL    HW123170   7.922   9.189   5.925
 7091SOL    HW223171   8.039   9.142   5.841
 7092SOL     OW23172   2.197   1.288   6.850
 7092SOL    HW123173   2.202   1.208   6.902
 7092SOL    HW223174   2.238   1.265   6.767
 7093SOL     OW23175   7.484  14.261  12.585
 7093SOL    HW123176   7.414  14.200  12.560
 7093SOL    HW223177   7.498  14.244  12.678
 7094SOL     OW23178   5.735   7.162  11.550
 7094SOL    HW123179   5.654   7.205  11.579
 7094SOL    HW223180   5.795   7.174  11.624
 7095SOL     OW23181   6.301   8.849  14.834
 7095SOL    HW123182   6.288   8.943  14.843
 7095SOL    HW223183   6.256   8.811   0.028
 7096SOL     OW23184   7.406   5.893  13.081
 7096SOL    HW123185   7.353   5.894  13.160
 7096SOL    HW223186   7.401   5.983  13.048
 7097SOL     OW23187   2.337  11.867   3.285
 7097SOL    HW123188   2.257  11.901   3.245
 7097SOL    HW223189   2.408  11.905   3.233
 7098SOL     OW23190  10.772   8.165   0.695
 7098SOL    HW123191  10.721   8.117   0.629
 7098SOL    HW223192  10.863   8.144   0.673
 7099SOL     OW23193   0.870  10.295  11.425
 7099SOL    HW123194   0.929  10.364  11.394
 7099SOL    HW223195   0.929  10.230  11.465
 7100SOL     OW23196   0.291  11.710   3.258
 7100SOL    HW123197   0.385  11.697   3.242
 7100SOL    HW223198   0.284  11.803   3.283
 7101SOL     OW23199  10.443   4.984   7.668
 7101SOL    HW123200  10.362   4.992   7.718
 7101SOL    HW223201  10.426   4.914   7.605
 7102SOL     OW23202   0.837  12.827   8.634
 7102SOL    HW123203   0.900  12.802   8.566
 7102SOL    HW223204   0.753  12.830   8.587
 7103SOL     OW23205   0.740   1.997   7.396
 7103SOL    HW123206   0.799   1.949   7.337
 7103SOL    HW223207   0.791   2.011   7.475
 7104SOL     OW23208   3.596   0.769   2.502
 7104SOL    HW123209   3.602   0.765   2.597
 7104SOL    HW223210   3.515   0.722   2.480
 7105SOL     OW23211   5.989  13.500   7.860
 7105SOL    HW123212   5.932  13.428   7.835
 7105SOL    HW223213   5.980  13.506   7.955
 7106SOL     OW23214   4.752   2.599   8.967
 7106SOL    HW123215   4.813   2.672   8.956
 7106SOL    HW223216   4.733   2.570   8.878
 7107SOL     OW23217   4.777   6.463  11.495
 7107SOL    HW123218   4.797   6.475  11.587
 7107SOL    HW223219   4.846   6.510  11.448
 7108SOL     OW23220  14.366   7.677  14.640
 7108SOL    HW123221  14.358   7.760  14.594
 7108SOL    HW223222  14.281   7.635  14.629
 7109SOL     OW23223  10.257   2.523  10.744
 7109SOL    HW123224  10.162   2.526  10.737
 7109SOL    HW223225  10.287   2.496  10.657
 7110SOL     OW23226   0.015  12.072   3.080
 7110SOL    HW123227   0.106  12.078   3.051
 7110SOL    HW223228   0.007  11.984   3.117
 7111SOL     OW23229  11.698   8.345   1.955
 7111SOL    HW123230  11.758   8.280   1.993
 7111SOL    HW223231  11.726   8.428   1.992
 7112SOL     OW23232   9.725   1.907   4.955
 7112SOL    HW123233   9.645   1.894   4.904
 7112SOL    HW223234   9.754   1.818   4.978
 7113SOL     OW23235   5.002  14.114  13.569
 7113SOL    HW123236   5.071  14.053  13.597
 7113SOL    HW223237   5.000  14.105  13.474
 7114SOL     OW23238  10.402   8.162   7.277
 7114SOL    HW123239  10.496   8.161   7.259
 7114SOL    HW223240  10.391   8.232   7.342
 7115SOL     OW23241  12.054   7.520  14.257
 7115SOL    HW123242  12.015   7.595  14.211
 7115SOL    HW223243  12.047   7.543  14.350
 7116SOL     OW23244  14.242   8.822  10.849
 7116SOL    HW123245  14.245   8.832  10.754
 7116SOL    HW223246  14.279   8.735  10.865
 7117SOL     OW23247   7.772  11.796  14.241
 7117SOL    HW123248   7.730  11.736  14.303
 7117SOL    HW223249   7.732  11.775  14.157
 7118SOL     OW23250   7.142   8.671   5.584
 7118SOL    HW123251   7.111   8.620   5.509
 7118SOL    HW223252   7.133   8.762   5.557
 7119SOL     OW23253   6.563   1.218   9.942
 7119SOL    HW123254   6.556   1.209   9.847
 7119SOL    HW223255   6.485   1.266   9.968
 7120SOL     OW23256   0.752   1.298   4.281
 7120SOL    HW123257   0.847   1.304   4.272
 7120SOL    HW223258   0.739   1.226   4.343
 7121SOL     OW23259   7.133  11.577   8.730
 7121SOL    HW123260   7.063  11.629   8.692
 7121SOL    HW223261   7.100  11.552   8.817
 7122SOL     OW23262   1.273   9.384   1.800
 7122SOL    HW123263   1.356   9.399   1.844
 7122SOL    HW223264   1.209   9.430   1.855
 7123SOL     OW23265   1.933   3.891   3.462
 7123SOL    HW123266   1.885   3.932   3.534
 7123SOL    HW223267   1.941   3.799   3.488
 7124SOL     OW23268  14.400   7.351  10.856
 7124SOL    HW123269  14.398   7.387  10.768
 7124SOL    HW223270  14.322   7.296  10.861
 7125SOL     OW23271   4.952   1.039   3.469
 7125SOL    HW123272   5.004   0.999   3.538
 7125SOL    HW223273   4.915   0.965   3.420
 7126SOL     OW23274   9.626   8.480   4.184
 7126SOL    HW123275   9.697   8.423   4.154
 7126SOL    HW223276   9.670   8.560   4.213
 7127SOL     OW23277   4.130  11.771   6.018
 7127SOL    HW123278   4.149  11.680   6.041
 7127SOL    HW223279   4.168  11.823   6.089
 7128SOL     OW23280   7.477   4.529  11.196
 7128SOL    HW123281   7.397   4.582  11.192
 7128SOL    HW223282   7.525   4.553  11.116
 7129SOL     OW23283   0.346   0.546  14.835
 7129SOL    HW123284   0.272   0.604  14.816
 7129SOL    HW223285   0.362   0.500  14.752
 7130SOL     OW23286   2.097   3.583   9.701
 7130SOL    HW123287   2.051   3.609   9.780
 7130SOL    HW223288   2.058   3.635   9.631
 7131SOL     OW23289   0.763   2.771   1.862
 7131SOL    HW123290   0.783   2.745   1.772
 7131SOL    HW223291   0.674   2.807   1.857
 7132SOL     OW23292  11.030  11.952   0.904
 7132SOL    HW123293  11.035  11.990   0.816
 7132SOL    HW223294  11.088  12.005   0.957
 7133SOL     OW23295   2.515   2.190   7.825
 7133SOL    HW123296   2.508   2.210   7.732
 7133SOL    HW223297   2.430   2.150   7.847
 7134SOL     OW23298  10.703   2.796   2.105
 7134SOL    HW123299  10.776   2.857   2.114
 7134SOL    HW223300  10.661   2.821   2.023
 7135SOL     OW23301   7.782  14.504   0.482
 7135SOL    HW123302   7.849  14.568   0.506
 7135SOL    HW223303   7.784  14.440   0.552
 7136SOL     OW23304   6.567   2.582  10.930
 7136SOL    HW123305   6.641   2.528  10.904
 7136SOL    HW223306   6.522   2.602  10.848
 7137SOL     OW23307   8.365   0.814   7.168
 7137SOL    HW123308   8.435   0.782   7.111
 7137SOL    HW223309   8.406   0.883   7.220
 7138SOL     OW23310  11.227  12.771   8.830
 7138SOL    HW123311  11.320  12.755   8.846
 7138SOL    HW223312  11.225  12.856   8.786
 7139SOL     OW23313   6.088  13.997   7.479
 7139SOL    HW123314   6.178  13.977   7.452
 7139SOL    HW223315   6.084  13.973   7.571
 7140SOL     OW23316  12.277  14.050  12.131
 7140SOL    HW123317  12.360  14.015  12.098
 7140SOL    HW223318  12.243  13.982  12.189
 7141SOL     OW23319   7.620   4.052   5.578
 7141SOL    HW123320   7.624   4.001   5.497
 7141SOL    HW223321   7.573   4.132   5.554
 7142SOL     OW23322  11.374   5.353   7.630
 7142SOL    HW123323  11.349   5.415   7.699
 7142SOL    HW223324  11.467   5.336   7.646
 7143SOL     OW23325  12.276   4.012   4.174
 7143SOL    HW123326  12.351   4.055   4.133
 7143SOL    HW223327  12.275   3.924   4.136
 7144SOL     OW23328  11.702   5.565   5.402
 7144SOL    HW123329  11.768   5.527   5.459
 7144SOL    HW223330  11.739   5.649   5.375
 7145SOL     OW23331   7.709   1.476   2.461
 7145SOL    HW123332   7.745   1.504   2.377
 7145SOL    HW223333   7.720   1.552   2.519
 7146SOL     OW23334  12.373   5.516  13.212
 7146SOL    HW123335  12.282   5.545  13.220
 7146SOL    HW223336  12.368   5.438  13.155
 7147SOL     OW23337   9.623   3.507   3.725
 7147SOL    HW123338   9.587   3.422   3.699
 7147SOL    HW223339   9.632   3.501   3.820
 7148SOL     OW23340   0.813  13.772   1.225
 7148SOL    HW123341   0.776  13.837   1.165
 7148SOL    HW223342   0.746  13.703   1.231
 7149SOL     OW23343  13.225   1.163   1.181
 7149SOL    HW123344  13.142   1.117   1.165
 7149SOL    HW223345  13.213   1.249   1.141
 7150SOL     OW23346   8.270   8.635   6.718
 7150SOL    HW123347   8.185   8.635   6.674
 7150SOL    HW223348   8.330   8.673   6.654
 7151SOL     OW23349   4.009   3.750   7.851
 7151SOL    HW123350   4.024   3.656   7.842
 7151SOL    HW223351   3.919   3.758   7.881
 7152SOL     OW23352   0.699  14.100  13.941
 7152SOL    HW123353   0.629  14.075  13.881
 7152SOL    HW223354   0.700  14.196  13.938
 7153SOL     OW23355  12.329   0.895  13.927
 7153SOL    HW123356  12.335   0.990  13.917
 7153SOL    HW223357  12.417   0.864  13.906
 7154SOL     OW23358   2.130  11.084  14.813
 7154SOL    HW123359   2.171  11.009  14.769
 7154SOL    HW223360   2.196  11.112  14.877
 7155SOL     OW23361   0.017   9.208   8.128
 7155SOL    HW123362  14.821   9.178   8.174
 7155SOL    HW223363   0.021   9.302   8.146
 7156SOL     OW23364   5.338   4.526   9.073
 7156SOL    HW123365   5.350   4.599   9.134
 7156SOL    HW223366   5.416   4.473   9.084
 7157SOL     OW23367   5.495   1.654   4.968
 7157SOL    HW123368   5.501   1.727   5.030
 7157SOL    HW223369   5.574   1.663   4.914
 7158SOL     OW23370   9.007   8.252   9.470
 7158SOL    HW123371   9.097   8.237   9.501
 7158SOL    HW223372   8.973   8.164   9.452
 7159SOL     OW23373   8.715  14.358  10.573
 7159SOL    HW123374   8.631  14.328  10.539
 7159SOL    HW223375   8.745  14.287  10.630
 7160SOL     OW23376   6.578   4.781  14.725
 7160SOL    HW123377   6.625   4.863  14.712
 7160SOL    HW223378   6.488   4.807  14.743
 7161SOL     OW23379   3.482   0.560   1.946
 7161SOL    HW123380   3.387   0.567   1.947
 7161SOL    HW223381   3.511   0.621   2.014
 7162SOL     OW23382   0.504  12.968   1.557
 7162SOL    HW123383   0.448  12.901   1.595
 7162SOL    HW223384   0.557  12.999   1.630
 7163SOL     OW23385   1.937   2.350   2.858
 7163SOL    HW123386   1.958   2.435   2.818
 7163SOL    HW223387   1.846   2.333   2.833
 7164SOL     OW23388  14.142   2.005  13.362
 7164SOL    HW123389  14.075   2.026  13.298
 7164SOL    HW223390  14.144   1.910  13.365
 7165SOL     OW23391   9.794   8.468   5.902
 7165SOL    HW123392   9.832   8.553   5.878
 7165SOL    HW223393   9.749   8.439   5.823
 7166SOL     OW23394   8.517  14.554   5.241
 7166SOL    HW123395   8.613  14.547   5.244
 7166SOL    HW223396   8.492  14.498   5.167
 7167SOL     OW23397  12.364   0.648   7.176
 7167SOL    HW123398  12.379   0.615   7.264
 7167SOL    HW223399  12.446   0.630   7.130
 7168SOL     OW23400  10.929   2.943   9.636
 7168SOL    HW123401  10.846   2.945   9.683
 7168SOL    HW223402  10.917   2.876   9.569
 7169SOL     OW23403   5.553   1.996   2.398
 7169SOL    HW123404   5.525   1.917   2.444
 7169SOL    HW223405   5.623   2.032   2.452
 7170SOL     OW23406   6.956  14.690  11.283
 7170SOL    HW123407   6.964  14.762  11.222
 7170SOL    HW223408   6.881  14.639  11.251
 7171SOL     OW23409   9.919  14.686   4.408
 7171SOL    HW123410   9.938  14.643   4.491
 7171SOL    HW223411   9.835  14.731   4.423
 7172SOL     OW23412   9.159   1.054   1.354
 7172SOL    HW123413   9.117   1.004   1.285
 7172SOL    HW223414   9.238   1.005   1.375
 7173SOL     OW23415  13.664   0.643   6.713
 7173SOL    HW123416  13.665   0.725   6.762
 7173SOL    HW223417  13.665   0.670   6.622
 7174SOL     OW23418   9.584   9.682   5.403
 7174SOL    HW123419   9.514   9.633   5.445
 7174SOL    HW223420   9.663   9.660   5.452
 7175SOL     OW23421   2.431   8.649  12.018
 7175SOL    HW123422   2.408   8.564  12.057
 7175SOL    HW223423   2.349   8.698  12.019
 7176SOL     OW23424   4.521   1.117   5.490
 7176SOL    HW123425   4.594   1.174   5.510
 7176SOL    HW223426   4.522   1.050   5.558
 7177SOL     OW23427  11.623   6.822   9.584
 7177SOL    HW123428  11.693   6.833   9.648
 7177SOL    HW223429  11.668   6.809   9.500
 7178SOL     OW23430   0.038   1.748   5.226
 7178SOL    HW123431   0.042   1.654   5.248
 7178SOL    HW223432   0.100   1.759   5.154
 7179SOL     OW23433   8.317  13.076   2.298
 7179SOL    HW123434   8.369  13.127   2.236
 7179SOL    HW223435   8.351  13.104   2.384
 7180SOL     OW23436  13.326   6.281   6.360
 7180SOL    HW123437  13.284   6.210   6.408
 7180SOL    HW223438  13.409   6.244   6.330
 7181SOL     OW23439   8.940  13.777  12.558
 7181SOL    HW123440   8.901  13.844  12.502
 7181SOL    HW223441   8.888  13.698  12.541
 7182SOL     OW23442   5.390  12.846  13.404
 7182SOL    HW123443   5.362  12.928  13.446
 7182SOL    HW223444   5.309  12.805  13.374
 7183SOL     OW23445   7.181   0.362   6.754
 7183SOL    HW123446   7.218   0.437   6.801
 7183SOL    HW223447   7.200   0.287   6.810
 7184SOL     OW23448  11.578  13.625   6.974
 7184SOL    HW123449  11.652  13.686   6.971
 7184SOL    HW223450  11.520  13.654   6.904
 7185SOL     OW23451  13.547  12.107   2.465
 7185SOL    HW123452  13.623  12.148   2.424
 7185SOL    HW223453  13.501  12.179   2.508
 7186SOL     OW23454   4.076   9.903   3.533
 7186SOL    HW123455   4.124   9.882   3.453
 7186SOL    HW223456   4.144   9.916   3.599
 7187SOL     OW23457   0.985   0.917  10.211
 7187SOL    HW123458   0.970   0.848  10.147
 7187SOL    HW223459   0.942   0.887  10.290
 7188SOL     OW23460  10.422  12.765  11.157
 7188SOL    HW123461  10.404  12.674  11.132
 7188SOL    HW223462  10.340  12.811  11.139
 7189SOL     OW23463   9.054   1.045   8.701
 7189SOL    HW123464   9.087   0.974   8.645
 7189SOL    HW223465   9.123   1.111   8.698
 7190SOL     OW23466   0.556   9.164   6.195
 7190SOL    HW123467   0.620   9.171   6.266
 7190SOL    HW223468   0.499   9.241   6.207
 7191SOL     OW23469  12.919  10.208   1.781
 7191SOL    HW123470  12.869  10.154   1.720
 7191SOL    HW223471  13.002  10.224   1.737
 7192SOL     OW23472  13.829   4.247   2.365
 7192SOL    HW123473  13.776   4.175   2.330
 7192SOL    HW223474  13.797   4.259   2.455
 7193SOL     OW23475   6.608  10.808   7.820
 7193SOL    HW123476   6.552  10.865   7.872
 7193SOL    HW223477   6.674  10.777   7.882
 7194SOL     OW23478   0.105  11.794   9.210
 7194SOL    HW123479   0.153  11.872   9.182
 7194SOL    HW223480   0.090  11.806   9.303
 7195SOL     OW23481   0.029  12.175   5.747
 7195SOL    HW123482   0.064  12.157   5.659
 7195SOL    HW223483   0.095  12.140   5.807
 7196SOL     OW23484  12.066  11.241   1.288
 7196SOL    HW123485  12.053  11.329   1.253
 7196SOL    HW223486  12.057  11.251   1.382
 7197SOL     OW23487   8.447   6.016  13.144
 7197SOL    HW123488   8.448   6.000  13.049
 7197SOL    HW223489   8.537   6.042  13.164
 7198SOL     OW23490   7.237   8.593   6.080
 7198SOL    HW123491   7.213   8.676   6.039
 7198SOL    HW223492   7.176   8.530   6.042
 7199SOL     OW23493   0.956  12.770  13.462
 7199SOL    HW123494   0.990  12.821  13.535
 7199SOL    HW223495   1.033  12.740  13.414
 7200SOL     OW23496   6.292  11.680   8.126
 7200SOL    HW123497   6.243  11.759   8.102
 7200SOL    HW223498   6.225  11.619   8.156
 7201SOL     OW23499   4.024   2.961   5.039
 7201SOL    HW123500   3.978   2.987   5.119
 7201SOL    HW223501   3.966   2.988   4.968
 7202SOL     OW23502   2.097  12.811   6.370
 7202SOL    HW123503   2.061  12.759   6.298
 7202SOL    HW223504   2.039  12.887   6.376
 7203SOL     OW23505  10.554  13.853   4.066
 7203SOL    HW123506  10.530  13.851   3.973
 7203SOL    HW223507  10.471  13.841   4.112
 7204SOL     OW23508   2.778  10.406   6.184
 7204SOL    HW123509   2.826  10.461   6.246
 7204SOL    HW223510   2.686  10.425   6.201
 7205SOL     OW23511   7.372   4.967   8.518
 7205SOL    HW123512   7.411   5.039   8.567
 7205SOL    HW223513   7.305   4.931   8.576
 7206SOL     OW23514   3.386  13.802  13.641
 7206SOL    HW123515   3.335  13.823  13.720
 7206SOL    HW223516   3.401  13.886  13.599
 7207SOL     OW23517  11.561  11.967   6.400
 7207SOL    HW123518  11.467  11.966   6.387
 7207SOL    HW223519  11.578  12.047   6.450
 7208SOL     OW23520   2.064   5.443   2.768
 7208SOL    HW123521   2.040   5.395   2.848
 7208SOL    HW223522   1.986   5.496   2.748
 7209SOL     OW23523  12.003   7.986   1.523
 7209SOL    HW123524  11.924   8.037   1.511
 7209SOL    HW223525  11.975   7.909   1.572
 7210SOL     OW23526   5.999  12.532  13.111
 7210SOL    HW123527   6.042  12.446  13.108
 7210SOL    HW223528   6.039  12.581  13.040
 7211SOL     OW23529   2.365   6.159   8.927
 7211SOL    HW123530   2.316   6.153   8.845
 7211SOL    HW223531   2.453   6.185   8.901
 7212SOL     OW23532   9.166   0.120   0.327
 7212SOL    HW123533   9.254   0.110   0.290
 7212SOL    HW223534   9.180   0.131   0.421
 7213SOL     OW23535  12.966   2.176  14.541
 7213SOL    HW123536  13.032   2.150  14.604
 7213SOL    HW223537  12.888   2.193  14.593
 7214SOL     OW23538  12.881   4.547   4.294
 7214SOL    HW123539  12.864   4.453   4.304
 7214SOL    HW223540  12.944   4.553   4.223
 7215SOL     OW23541   4.867   1.687  13.051
 7215SOL    HW123542   4.794   1.743  13.075
 7215SOL    HW223543   4.827   1.609  13.013
 7216SOL     OW23544   6.560   3.443  11.661
 7216SOL    HW123545   6.548   3.520  11.605
 7216SOL    HW223546   6.581   3.372  11.600
 7217SOL     OW23547   1.212   9.440   8.979
 7217SOL    HW123548   1.215   9.345   8.973
 7217SOL    HW223549   1.127   9.459   9.021
 7218SOL     OW23550   2.344   3.541   4.029
 7218SOL    HW123551   2.321   3.455   3.993
 7218SOL    HW223552   2.410   3.575   3.968
 7219SOL     OW23553  14.007  13.632  12.026
 7219SOL    HW123554  14.031  13.539  12.036
 7219SOL    HW223555  14.077  13.679  12.072
 7220SOL     OW23556   4.015   3.185   0.100
 7220SOL    HW123557   4.077   3.113   0.109
 7220SOL    HW223558   3.936   3.156   0.145
 7221SOL     OW23559  12.549  11.844   1.473
 7221SOL    HW123560  12.560  11.865   1.566
 7221SOL    HW223561  12.542  11.749   1.470
 7222SOL     OW23562   0.384   7.170   9.988
 7222SOL    HW123563   0.385   7.109  10.061
 7222SOL    HW223564   0.321   7.238  10.014
 7223SOL     OW23565   9.778   3.955  13.092
 7223SOL    HW123566   9.781   3.889  13.023
 7223SOL    HW223567   9.854   4.011  13.075
 7224SOL     OW23568  11.911  11.628  12.874
 7224SOL    HW123569  11.921  11.650  12.967
 7224SOL    HW223570  11.887  11.536  12.873
 7225SOL     OW23571   8.664   4.321   2.894
 7225SOL    HW123572   8.711   4.243   2.867
 7225SOL    HW223573   8.692   4.389   2.832
 7226SOL     OW23574   5.684   8.494   4.334
 7226SOL    HW123575   5.667   8.431   4.404
 7226SOL    HW223576   5.704   8.440   4.257
 7227SOL     OW23577   6.617   5.111   8.692
 7227SOL    HW123578   6.702   5.106   8.648
 7227SOL    HW223579   6.569   5.179   8.645
 7228SOL     OW23580   7.217   6.733  10.236
 7228SOL    HW123581   7.220   6.813  10.288
 7228SOL    HW223582   7.275   6.750  10.162
 7229SOL     OW23583  10.321   5.935  11.559
 7229SOL    HW123584  10.231   5.964  11.545
 7229SOL    HW223585  10.338   5.875  11.486
 7230SOL     OW23586   4.219  13.994   5.143
 7230SOL    HW123587   4.152  13.950   5.195
 7230SOL    HW223588   4.223  14.082   5.179
 7231SOL     OW23589   7.742  10.669   0.661
 7231SOL    HW123590   7.769  10.748   0.709
 7231SOL    HW223591   7.809  10.604   0.684
 7232SOL     OW23592   6.192   7.608  14.126
 7232SOL    HW123593   6.133   7.674  14.089
 7232SOL    HW223594   6.247   7.656  14.188
 7233SOL     OW23595   3.333  13.618  14.757
 7233SOL    HW123596   3.292  13.704  14.767
 7233SOL    HW223597   3.359  13.594  14.846
 7234SOL     OW23598   5.751   5.255  10.269
 7234SOL    HW123599   5.719   5.166  10.285
 7234SOL    HW223600   5.845   5.243  10.253
 7235SOL     OW23601  13.208   7.705   3.210
 7235SOL    HW123602  13.170   7.792   3.216
 7235SOL    HW223603  13.138   7.646   3.236
 7236SOL     OW23604   4.120   9.400  10.643
 7236SOL    HW123605   4.154   9.452  10.717
 7236SOL    HW223606   4.026   9.393  10.660
 7237SOL     OW23607   2.656   4.471   2.639
 7237SOL    HW123608   2.562   4.468   2.656
 7237SOL    HW223609   2.664   4.526   2.561
 7238SOL     OW23610  11.864  13.322   2.885
 7238SOL    HW123611  11.850  13.268   2.807
 7238SOL    HW223612  11.917  13.395   2.854
 7239SOL     OW23613   3.106   9.279   2.637
 7239SOL    HW123614   3.192   9.238   2.626
 7239SOL    HW223615   3.118   9.368   2.602
 7240SOL     OW23616   5.609   9.201   1.910
 7240SOL    HW123617   5.632   9.293   1.925
 7240SOL    HW223618   5.542   9.183   1.976
 7241SOL     OW23619   5.630  12.863   7.408
 7241SOL    HW123620   5.624  12.770   7.432
 7241SOL    HW223621   5.706  12.868   7.350
 7242SOL     OW23622   0.300  11.390  11.710
 7242SOL    HW123623   0.302  11.296  11.726
 7242SOL    HW223624   0.280  11.398  11.617
 7243SOL     OW23625   1.540   5.742   7.570
 7243SOL    HW123626   1.600   5.675   7.604
 7243SOL    HW223627   1.480   5.759   7.643
 7244SOL     OW23628  10.679   2.235  13.797
 7244SOL    HW123629  10.646   2.204  13.713
 7244SOL    HW223630  10.770   2.260  13.780
 7245SOL     OW23631   9.878   4.456  10.942
 7245SOL    HW123632   9.809   4.397  10.912
 7245SOL    HW223633   9.928   4.404  11.005
 7246SOL     OW23634   2.213   9.306  10.057
 7246SOL    HW123635   2.151   9.342  10.121
 7246SOL    HW223636   2.157   9.272   9.987
 7247SOL     OW23637  13.969   0.465   5.895
 7247SOL    HW123638  14.054   0.490   5.931
 7247SOL    HW223639  13.954   0.376   5.928
 7248SOL     OW23640  12.855   8.584  13.097
 7248SOL    HW123641  12.810   8.541  13.024
 7248SOL    HW223642  12.851   8.677  13.076
 7249SOL     OW23643   5.225   4.323   7.319
 7249SOL    HW123644   5.150   4.275   7.355
 7249SOL    HW223645   5.299   4.296   7.374
 7250SOL     OW23646   1.162   5.334  12.188
 7250SOL    HW123647   1.243   5.308  12.144
 7250SOL    HW223648   1.131   5.254  12.231
 7251SOL     OW23649   6.026   4.292   4.221
 7251SOL    HW123650   6.021   4.235   4.145
 7251SOL    HW223651   6.053   4.235   4.293
 7252SOL     OW23652  13.998   7.637   4.373
 7252SOL    HW123653  13.979   7.617   4.464
 7252SOL    HW223654  14.092   7.623   4.363
 7253SOL     OW23655   5.981   4.809   5.724
 7253SOL    HW123656   5.921   4.847   5.661
 7253SOL    HW223657   6.060   4.788   5.674
 7254SOL     OW23658   0.317   1.131   6.323
 7254SOL    HW123659   0.391   1.190   6.333
 7254SOL    HW223660   0.240   1.185   6.338
 7255SOL     OW23661  13.298   7.700   5.254
 7255SOL    HW123662  13.315   7.713   5.161
 7255SOL    HW223663  13.385   7.700   5.294
 7256SOL     OW23664   4.328   5.859   0.392
 7256SOL    HW123665   4.258   5.905   0.345
 7256SOL    HW223666   4.331   5.772   0.351
 7257SOL     OW23667  12.790   8.658   3.451
 7257SOL    HW123668  12.705   8.662   3.407
 7257SOL    HW223669  12.769   8.660   3.545
 7258SOL     OW23670   1.034   0.910   3.510
 7258SOL    HW123671   0.991   0.946   3.587
 7258SOL    HW223672   1.035   0.815   3.524
 7259SOL     OW23673   1.838   1.082   3.304
 7259SOL    HW123674   1.774   1.094   3.233
 7259SOL    HW223675   1.791   1.033   3.371
 7260SOL     OW23676   9.628   1.066   4.713
 7260SOL    HW123677   9.700   1.099   4.768
 7260SOL    HW223678   9.576   1.144   4.693
 7261SOL     OW23679   1.286   4.471  12.995
 7261SOL    HW123680   1.370   4.435  12.966
 7261SOL    HW223681   1.259   4.529  12.924
 7262SOL     OW23682   1.209  13.029  13.344
 7262SOL    HW123683   1.232  12.958  13.403
 7262SOL    HW223684   1.291  13.051  13.300
 7263SOL     OW23685   9.518   1.226  14.878
 7263SOL    HW123686   9.462   1.288  14.831
 7263SOL    HW223687   9.469   1.143  14.874
 7264SOL     OW23688   4.818   2.792  11.914
 7264SOL    HW123689   4.865   2.863  11.958
 7264SOL    HW223690   4.726   2.811  11.930
 7265SOL     OW23691   3.331   7.252   3.359
 7265SOL    HW123692   3.246   7.276   3.323
 7265SOL    HW223693   3.353   7.323   3.419
 7266SOL     OW23694   0.553   8.497  13.093
 7266SOL    HW123695   0.561   8.402  13.097
 7266SOL    HW223696   0.593   8.528  13.174
 7267SOL     OW23697   0.664   1.261  12.446
 7267SOL    HW123698   0.759   1.271  12.440
 7267SOL    HW223699   0.642   1.299  12.532
 7268SOL     OW23700   0.934   3.759   2.086
 7268SOL    HW123701   0.906   3.817   2.156
 7268SOL    HW223702   0.873   3.777   2.014
 7269SOL     OW23703  14.407  14.840   2.073
 7269SOL    HW123704  14.391  14.823   2.166
 7269SOL    HW223705  14.494  14.802   2.057
 7270SOL     OW23706   6.539   8.249   1.480
 7270SOL    HW123707   6.616   8.197   1.503
 7270SOL    HW223708   6.502   8.276   1.564
 7271SOL     OW23709   7.104   8.781   4.937
 7271SOL    HW123710   7.016   8.754   4.959
 7271SOL    HW223711   7.093   8.833   4.856
 7272SOL     OW23712   0.453   3.124  13.625
 7272SOL    HW123713   0.389   3.062  13.590
 7272SOL    HW223714   0.491   3.166  13.547
 7273SOL     OW23715   7.168  12.531  10.629
 7273SOL    HW123716   7.211  12.472  10.691
 7273SOL    HW223717   7.217  12.521  10.548
 7274SOL     OW23718   5.713   6.471  13.107
 7274SOL    HW123719   5.746   6.516  13.185
 7274SOL    HW223720   5.774   6.495  13.038
 7275SOL     OW23721   9.046  12.437   3.078
 7275SOL    HW123722   9.056  12.342   3.080
 7275SOL    HW223723   9.026  12.462   3.168
 7276SOL     OW23724  10.489   9.911   9.899
 7276SOL    HW123725  10.461   9.979   9.962
 7276SOL    HW223726  10.423   9.843   9.907
 7277SOL     OW23727   4.108   9.772  12.310
 7277SOL    HW123728   4.106   9.698  12.249
 7277SOL    HW223729   4.101   9.849  12.254
 7278SOL     OW23730  12.066  13.960   6.336
 7278SOL    HW123731  12.104  13.931   6.419
 7278SOL    HW223732  12.069  13.882   6.280
 7279SOL     OW23733  12.446   0.555   7.425
 7279SOL    HW123734  12.430   0.461   7.434
 7279SOL    HW223735  12.538   0.566   7.448
 7280SOL     OW23736   7.352   1.644   5.761
 7280SOL    HW123737   7.318   1.572   5.813
 7280SOL    HW223738   7.437   1.613   5.729
 7281SOL     OW23739  12.092   2.970   5.992
 7281SOL    HW123740  12.059   3.022   6.066
 7281SOL    HW223741  12.147   3.030   5.943
 7282SOL     OW23742  11.978   8.615   1.930
 7282SOL    HW123743  11.891   8.580   1.947
 7282SOL    HW223744  11.997   8.671   2.005
 7283SOL     OW23745   5.148  12.555  11.749
 7283SOL    HW123746   5.055  12.538  11.730
 7283SOL    HW223747   5.152  12.559  11.844
 7284SOL     OW23748   0.243   0.539   1.472
 7284SOL    HW123749   0.249   0.443   1.475
 7284SOL    HW223750   0.280   0.562   1.387
 7285SOL     OW23751   9.106   4.714   4.280
 7285SOL    HW123752   9.098   4.776   4.353
 7285SOL    HW223753   9.148   4.765   4.210
 7286SOL     OW23754   5.346   4.739   6.094
 7286SOL    HW123755   5.251   4.729   6.090
 7286SOL    HW223756   5.379   4.690   6.019
 7287SOL     OW23757  13.781   7.523   0.346
 7287SOL    HW123758  13.752   7.432   0.349
 7287SOL    HW223759  13.739   7.564   0.422
 7288SOL     OW23760   0.179  11.093  12.651
 7288SOL    HW123761   0.117  11.029  12.615
 7288SOL    HW223762   0.146  11.178  12.622
 7289SOL     OW23763   8.058   2.840   9.332
 7289SOL    HW123764   8.054   2.794   9.415
 7289SOL    HW223765   8.055   2.771   9.266
 7290SOL     OW23766   6.251   2.677  13.281
 7290SOL    HW123767   6.213   2.610  13.338
 7290SOL    HW223768   6.329   2.708  13.328
 7291SOL     OW23769  10.873   8.253   6.749
 7291SOL    HW123770  10.955   8.217   6.715
 7291SOL    HW223771  10.898   8.302   6.826
 7292SOL     OW23772   7.224   7.673  12.441
 7292SOL    HW123773   7.317   7.655  12.449
 7292SOL    HW223774   7.181   7.597  12.479
 7293SOL     OW23775   4.222   1.420  13.376
 7293SOL    HW123776   4.228   1.375  13.292
 7293SOL    HW223777   4.189   1.507  13.355
 7294SOL     OW23778   2.288   0.956  14.274
 7294SOL    HW123779   2.334   0.886  14.228
 7294SOL    HW223780   2.195   0.937  14.259
 7295SOL     OW23781   8.667   1.732  12.487
 7295SOL    HW123782   8.619   1.648  12.486
 7295SOL    HW223783   8.617   1.787  12.547
 7296SOL     OW23784  10.464   8.667   1.113
 7296SOL    HW123785  10.511   8.617   1.047
 7296SOL    HW223786  10.528   8.679   1.184
 7297SOL     OW23787  10.410  10.619   9.416
 7297SOL    HW123788  10.361  10.627   9.498
 7297SOL    HW223789  10.345  10.638   9.348
 7298SOL     OW23790   9.159   9.997  11.332
 7298SOL    HW123791   9.221  10.018  11.402
 7298SOL    HW223792   9.214   9.985  11.255
 7299SOL     OW23793  12.244   8.102   1.542
 7299SOL    HW123794  12.231   8.184   1.590
 7299SOL    HW223795  12.158   8.060   1.544
 7300SOL     OW23796   1.132   5.518   9.814
 7300SOL    HW123797   1.155   5.446   9.873
 7300SOL    HW223798   1.162   5.597   9.859
 7301SOL     OW23799  10.079   3.813   6.074
 7301SOL    HW123800   9.988   3.807   6.045
 7301SOL    HW223801  10.115   3.726   6.059
 7302SOL     OW23802  11.842   0.158   6.463
 7302SOL    HW123803  11.892   0.090   6.419
 7302SOL    HW223804  11.752   0.126   6.463
 7303SOL     OW23805   6.750  13.402   3.383
 7303SOL    HW123806   6.827  13.352   3.409
 7303SOL    HW223807   6.714  13.353   3.309
 7304SOL     OW23808   8.758  11.187  11.605
 7304SOL    HW123809   8.720  11.157  11.687
 7304SOL    HW223810   8.852  11.174  11.617
 7305SOL     OW23811  10.592   2.029   8.378
 7305SOL    HW123812  10.548   1.944   8.387
 7305SOL    HW223813  10.608   2.038   8.285
 7306SOL     OW23814   3.064   7.273  11.516
 7306SOL    HW123815   3.097   7.285  11.427
 7306SOL    HW223816   3.016   7.190  11.513
 7307SOL     OW23817   4.829   0.653   4.822
 7307SOL    HW123818   4.856   0.718   4.887
 7307SOL    HW223819   4.804   0.705   4.745
 7308SOL     OW23820   4.744   9.184   6.860
 7308SOL    HW123821   4.745   9.098   6.902
 7308SOL    HW223822   4.698   9.241   6.922
 7309SOL     OW23823   3.509   6.115   6.420
 7309SOL    HW123824   3.523   6.030   6.378
 7309SOL    HW223825   3.479   6.172   6.350
 7310SOL     OW23826   9.573   9.698   8.766
 7310SOL    HW123827   9.510   9.749   8.715
 7310SOL    HW223828   9.633   9.661   8.700
 7311SOL     OW23829  12.930   6.884  11.746
 7311SOL    HW123830  12.887   6.823  11.806
 7311SOL    HW223831  12.993   6.831  11.698
 7312SOL     OW23832  12.985  14.310   2.638
 7312SOL    HW123833  12.916  14.244   2.626
 7312SOL    HW223834  12.972  14.341   2.728
 7313SOL     OW23835   3.190   9.719  11.477
 7313SOL    HW123836   3.152   9.632  11.486
 7313SOL    HW223837   3.122   9.779  11.509
 7314SOL     OW23838   6.624   7.192   2.499
 7314SOL    HW123839   6.697   7.210   2.559
 7314SOL    HW223840   6.610   7.275   2.453
 7315SOL     OW23841   4.156   0.620   4.045
 7315SOL    HW123842   4.231   0.638   4.101
 7315SOL    HW223843   4.084   0.602   4.106
 7316SOL     OW23844   9.222   6.901   6.115
 7316SOL    HW123845   9.141   6.854   6.095
 7316SOL    HW223846   9.212   6.985   6.070
 7317SOL     OW23847   2.716  12.599   4.269
 7317SOL    HW123848   2.689  12.637   4.186
 7317SOL    HW223849   2.650  12.630   4.332
 7318SOL     OW23850   6.987   3.628   3.857
 7318SOL    HW123851   6.968   3.589   3.942
 7318SOL    HW223852   7.066   3.680   3.871
 7319SOL     OW23853   2.244  10.888  13.287
 7319SOL    HW123854   2.212  10.907  13.198
 7319SOL    HW223855   2.339  10.882  13.277
 7320SOL     OW23856   6.725   9.542  13.350
 7320SOL    HW123857   6.717   9.496  13.266
 7320SOL    HW223858   6.634   9.559  13.376
 7321SOL     OW23859   4.802   7.832   1.041
 7321SOL    HW123860   4.864   7.905   1.032
 7321SOL    HW223861   4.725   7.860   0.991
 7322SOL     OW23862  11.487   4.209  11.553
 7322SOL    HW123863  11.462   4.196  11.644
 7322SOL    HW223864  11.563   4.152  11.540
 7323SOL     OW23865   1.800   9.379   3.470
 7323SOL    HW123866   1.814   9.408   3.561
 7323SOL    HW223867   1.792   9.460   3.420
 7324SOL     OW23868   1.060   4.944   7.740
 7324SOL    HW123869   1.063   4.942   7.835
 7324SOL    HW223870   1.023   5.029   7.718
 7325SOL     OW23871   0.319  10.341  10.707
 7325SOL    HW123872   0.252  10.384  10.654
 7325SOL    HW223873   0.331  10.256  10.665
 7326SOL     OW23874  11.711   1.305   3.236
 7326SOL    HW123875  11.710   1.236   3.303
 7326SOL    HW223876  11.660   1.269   3.164
 7327SOL     OW23877  14.737   0.699   2.177
 7327SOL    HW123878  14.757   0.718   2.085
 7327SOL    HW223879  14.685   0.619   2.173
 7328SOL     OW23880   1.081   5.922  11.933
 7328SOL    HW123881   1.035   5.973  11.867
 7328SOL    HW223882   1.012   5.885  11.987
 7329SOL     OW23883   4.479   8.250   0.435
 7329SOL    HW123884   4.518   8.321   0.383
 7329SOL    HW223885   4.385   8.271   0.437
 7330SOL     OW23886   0.755  14.562   3.886
 7330SOL    HW123887   0.746  14.658   3.887
 7330SOL    HW223888   0.760  14.538   3.978
 7331SOL     OW23889  12.812   5.172  12.990
 7331SOL    HW123890  12.750   5.200  13.056
 7331SOL    HW223891  12.898   5.196  13.025
 7332SOL     OW23892   3.926   6.526  10.536
 7332SOL    HW123893   3.853   6.463  10.542
 7332SOL    HW223894   3.953   6.521  10.444
 7333SOL     OW23895   4.802   5.073   7.438
 7333SOL    HW123896   4.831   5.160   7.464
 7333SOL    HW223897   4.828   5.016   7.510
 7334SOL     OW23898   0.442   0.423   6.247
 7334SOL    HW123899   0.482   0.470   6.174
 7334SOL    HW223900   0.511   0.417   6.313
 7335SOL     OW23901   6.278   0.305   1.329
 7335SOL    HW123902   6.322   0.329   1.410
 7335SOL    HW223903   6.323   0.226   1.299
 7336SOL     OW23904  13.623  12.657   3.502
 7336SOL    HW123905  13.629  12.578   3.554
 7336SOL    HW223906  13.542  12.699   3.530
 7337SOL     OW23907   4.990   5.917   8.447
 7337SOL    HW123908   4.913   5.894   8.396
 7337SOL    HW223909   4.956   5.953   8.528
 7338SOL     OW23910   8.212   0.228  13.226
 7338SOL    HW123911   8.160   0.195  13.299
 7338SOL    HW223912   8.193   0.169  13.153
 7339SOL     OW23913  12.406   8.895   0.383
 7339SOL    HW123914  12.316   8.865   0.391
 7339SOL    HW223915  12.431   8.923   0.471
 7340SOL     OW23916   0.603   3.288   2.643
 7340SOL    HW123917   0.626   3.283   2.735
 7340SOL    HW223918   0.656   3.361   2.609
 7341SOL     OW23919   0.087  13.931  11.036
 7341SOL    HW123920   0.074  13.886  11.120
 7341SOL    HW223921   0.002  13.970  11.016
 7342SOL     OW23922  11.901   8.053  13.177
 7342SOL    HW123923  11.992   8.037  13.153
 7342SOL    HW223924  11.866   8.105  13.105
 7343SOL     OW23925   5.945   5.398   3.790
 7343SOL    HW123926   5.885   5.381   3.717
 7343SOL    HW223927   5.937   5.491   3.807
 7344SOL     OW23928   2.455   2.770   0.587
 7344SOL    HW123929   2.426   2.858   0.610
 7344SOL    HW223930   2.391   2.712   0.630
 7345SOL     OW23931   2.714   7.411   3.229
 7345SOL    HW123932   2.659   7.466   3.284
 7345SOL    HW223933   2.695   7.322   3.257
 7346SOL     OW23934  13.336   1.429   7.495
 7346SOL    HW123935  13.240   1.431   7.486
 7346SOL    HW223936  13.353   1.483   7.572
 7347SOL     OW23937   3.647  12.895   4.448
 7347SOL    HW123938   3.553  12.910   4.441
 7347SOL    HW223939   3.658  12.801   4.433
 7348SOL     OW23940  12.241  13.227   4.565
 7348SOL    HW123941  12.256  13.133   4.551
 7348SOL    HW223942  12.328  13.265   4.566
 7349SOL     OW23943   2.467  11.175   9.860
 7349SOL    HW123944   2.449  11.207   9.771
 7349SOL    HW223945   2.532  11.235   9.895
 7350SOL     OW23946   0.585   9.727  14.064
 7350SOL    HW123947   0.631   9.680  14.134
 7350SOL    HW223948   0.577   9.662  13.994
 7351SOL     OW23949   1.837   0.834  12.622
 7351SOL    HW123950   1.746   0.837  12.652
 7351SOL    HW223951   1.837   0.771  12.550
 7352SOL     OW23952  11.322  14.027  14.561
 7352SOL    HW123953  11.334  14.099  14.623
 7352SOL    HW223954  11.404  14.025  14.511
 7353SOL     OW23955   9.229   8.587  11.144
 7353SOL    HW123956   9.250   8.680  11.153
 7353SOL    HW223957   9.197   8.577  11.055
 7354SOL     OW23958  14.099   0.193   8.607
 7354SOL    HW123959  14.101   0.206   8.701
 7354SOL    HW223960  14.191   0.200   8.580
 7355SOL     OW23961   9.840   6.066  13.899
 7355SOL    HW123962   9.782   6.134  13.935
 7355SOL    HW223963   9.914   6.063  13.959
 7356SOL     OW23964   2.939   3.657  11.854
 7356SOL    HW123965   2.981   3.578  11.890
 7356SOL    HW223966   2.895   3.696  11.930
 7357SOL     OW23967  10.693   2.109  10.103
 7357SOL    HW123968  10.686   2.176  10.171
 7357SOL    HW223969  10.780   2.124  10.064
 7358SOL     OW23970   0.565   7.644   0.549
 7358SOL    HW123971   0.539   7.632   0.640
 7358SOL    HW223972   0.583   7.738   0.542
 7359SOL     OW23973   6.782  13.802   1.436
 7359SOL    HW123974   6.793  13.793   1.341
 7359SOL    HW223975   6.696  13.843   1.446
 7360SOL     OW23976  14.541  11.560  13.218
 7360SOL    HW123977  14.524  11.633  13.159
 7360SOL    HW223978  14.623  11.522  13.187
 7361SOL     OW23979   2.209   8.789   2.481
 7361SOL    HW123980   2.218   8.881   2.456
 7361SOL    HW223981   2.289   8.768   2.528
 7362SOL     OW23982   2.627  12.895  12.449
 7362SOL    HW123983   2.640  12.878  12.542
 7362SOL    HW223984   2.697  12.846  12.406
 7363SOL     OW23985   7.028   4.520   2.160
 7363SOL    HW123986   7.071   4.606   2.160
 7363SOL    HW223987   6.957   4.528   2.223
 7364SOL     OW23988  13.450  10.336   9.935
 7364SOL    HW123989  13.459  10.240   9.936
 7364SOL    HW223990  13.377  10.352   9.876
 7365SOL     OW23991   6.646   8.866   3.604
 7365SOL    HW123992   6.598   8.919   3.540
 7365SOL    HW223993   6.654   8.922   3.681
 7366SOL     OW23994   8.188   5.068   0.546
 7366SOL    HW123995   8.266   5.028   0.585
 7366SOL    HW223996   8.124   4.997   0.542
 7367SOL     OW23997   7.994   1.381   3.496
 7367SOL    HW123998   7.904   1.398   3.468
 7367SOL    HW223999   8.016   1.297   3.456
 7368SOL     OW24000   7.817  14.426  12.751
 7368SOL    HW124001   7.804  14.518  12.776
 7368SOL    HW224002   7.836  14.381  12.834
 7369SOL     OW24003  10.118   8.436  12.945
 7369SOL    HW124004  10.027   8.443  12.974
 7369SOL    HW224005  10.137   8.521  12.905
 7370SOL     OW24006   3.502   5.538   6.251
 7370SOL    HW124007   3.467   5.522   6.163
 7370SOL    HW224008   3.493   5.453   6.295
 7371SOL     OW24009   2.696  11.180  10.495
 7371SOL    HW124010   2.680  11.207  10.404
 7371SOL    HW224011   2.609  11.155  10.527
 7372SOL     OW24012   3.648   7.566  11.353
 7372SOL    HW124013   3.628   7.474  11.334
 7372SOL    HW224014   3.671   7.604  11.268
 7373SOL     OW24015   6.168   0.991   0.568
 7373SOL    HW124016   6.182   0.971   0.475
 7373SOL    HW224017   6.081   0.958   0.587
 7374SOL     OW24018   8.406   1.600  11.491
 7374SOL    HW124019   8.326   1.581  11.441
 7374SOL    HW224020   8.467   1.633  11.425
 7375SOL     OW24021   5.639   9.899  12.502
 7375SOL    HW124022   5.645   9.891  12.597
 7375SOL    HW224023   5.549   9.926  12.486
 7376SOL     OW24024   7.770  14.478   5.885
 7376SOL    HW124025   7.847  14.499   5.833
 7376SOL    HW224026   7.717  14.422   5.828
 7377SOL     OW24027  11.445   6.823  13.419
 7377SOL    HW124028  11.390   6.761  13.468
 7377SOL    HW224029  11.480   6.882  13.485
 7378SOL     OW24030   7.239   3.471  14.090
 7378SOL    HW124031   7.264   3.387  14.128
 7378SOL    HW224032   7.295   3.535  14.133
 7379SOL     OW24033   2.079   6.256  14.274
 7379SOL    HW124034   2.100   6.350  14.270
 7379SOL    HW224035   2.120   6.226  14.355
 7380SOL     OW24036   8.983   4.819  10.068
 7380SOL    HW124037   8.981   4.733  10.112
 7380SOL    HW224038   8.967   4.882  10.138
 7381SOL     OW24039   6.456   4.439  12.033
 7381SOL    HW124040   6.539   4.392  12.046
 7381SOL    HW224041   6.442   4.437  11.938
 7382SOL     OW24042   5.065   6.188   4.934
 7382SOL    HW124043   5.079   6.146   4.849
 7382SOL    HW224044   4.997   6.135   4.976
 7383SOL     OW24045   5.472   3.775   7.509
 7383SOL    HW124046   5.533   3.761   7.582
 7383SOL    HW224047   5.524   3.754   7.431
 7384SOL     OW24048   1.619   9.393  12.041
 7384SOL    HW124049   1.688   9.445  11.998
 7384SOL    HW224050   1.636   9.303  12.013
 7385SOL     OW24051  13.467  12.188   9.931
 7385SOL    HW124052  13.457  12.174   9.837
 7385SOL    HW224053  13.494  12.279   9.939
 7386SOL     OW24054   0.060   3.572  10.300
 7386SOL    HW124055   0.063   3.606  10.210
 7386SOL    HW224056  14.868   3.511  10.300
 7387SOL     OW24057  12.921   7.922  11.773
 7387SOL    HW124058  12.884   7.835  11.784
 7387SOL    HW224059  12.869   7.962  11.703
 7388SOL     OW24060   6.321  12.842  11.819
 7388SOL    HW124061   6.297  12.750  11.823
 7388SOL    HW224062   6.267  12.884  11.885
 7389SOL     OW24063   1.188  12.081  10.638
 7389SOL    HW124064   1.141  12.013  10.686
 7389SOL    HW224065   1.255  12.111  10.700
 7390SOL     OW24066   1.533  10.010  12.690
 7390SOL    HW124067   1.459  10.055  12.649
 7390SOL    HW224068   1.598  10.079  12.705
 7391SOL     OW24069   0.570   3.121  12.139
 7391SOL    HW124070   0.578   3.070  12.220
 7391SOL    HW224071   0.599   3.062  12.070
 7392SOL     OW24072  12.645   9.562   8.963
 7392SOL    HW124073  12.732   9.523   8.956
 7392SOL    HW224074  12.629   9.568   9.057
 7393SOL     OW24075   2.636  13.475  12.915
 7393SOL    HW124076   2.693  13.399  12.901
 7393SOL    HW224077   2.564  13.440  12.968
 7394SOL     OW24078  13.546   4.174   9.931
 7394SOL    HW124079  13.628   4.153   9.975
 7394SOL    HW224080  13.543   4.117   9.854
 7395SOL     OW24081   0.122   3.367   4.929
 7395SOL    HW124082   0.086   3.316   5.002
 7395SOL    HW224083   0.046   3.411   4.891
 7396SOL     OW24084   0.516   9.799   4.917
 7396SOL    HW124085   0.462   9.720   4.918
 7396SOL    HW224086   0.575   9.789   4.992
 7397SOL     OW24087   4.048   3.027   8.764
 7397SOL    HW124088   4.056   2.943   8.720
 7397SOL    HW224089   4.015   3.087   8.697
 7398SOL     OW24090   4.825   2.341   4.262
 7398SOL    HW124091   4.767   2.309   4.193
 7398SOL    HW224092   4.913   2.325   4.229
 7399SOL     OW24093   0.601  11.487   7.214
 7399SOL    HW124094   0.670  11.547   7.242
 7399SOL    HW224095   0.546  11.540   7.156
 7400SOL     OW24096   2.606   4.128   8.279
 7400SOL    HW124097   2.563   4.213   8.294
 7400SOL    HW224098   2.601   4.084   8.363
 7401SOL     OW24099  14.544   7.234  13.754
 7401SOL    HW124100  14.546   7.257  13.661
 7401SOL    HW224101  14.452   7.243  13.778
 7402SOL     OW24102   5.211   6.146   6.606
 7402SOL    HW124103   5.158   6.067   6.604
 7402SOL    HW224104   5.179   6.194   6.683
 7403SOL     OW24105   2.128   9.953  10.265
 7403SOL    HW124106   2.167  10.033  10.230
 7403SOL    HW224107   2.096   9.979  10.352
 7404SOL     OW24108  13.441   1.067   7.634
 7404SOL    HW124109  13.377   1.124   7.676
 7404SOL    HW224110  13.445   0.990   7.691
 7405SOL     OW24111   3.174  13.344  12.823
 7405SOL    HW124112   3.251  13.289  12.839
 7405SOL    HW224113   3.150  13.325  12.732
 7406SOL     OW24114   2.454   1.053   5.565
 7406SOL    HW124115   2.367   1.085   5.539
 7406SOL    HW224116   2.489   1.123   5.620
 7407SOL     OW24117   7.311  11.498   3.944
 7407SOL    HW124118   7.355  11.458   3.869
 7407SOL    HW224119   7.368  11.571   3.969
 7408SOL     OW24120   1.350  12.414  12.914
 7408SOL    HW124121   1.365  12.320  12.902
 7408SOL    HW224122   1.323  12.445  12.827
 7409SOL     OW24123   4.601  12.034   1.899
 7409SOL    HW124124   4.559  11.952   1.923
 7409SOL    HW224125   4.573  12.097   1.965
 7410SOL     OW24126   2.601   2.082   9.073
 7410SOL    HW124127   2.680   2.085   9.019
 7410SOL    HW224128   2.598   2.166   9.118
 7411SOL     OW24129  14.590   8.598   2.263
 7411SOL    HW124130  14.571   8.586   2.356
 7411SOL    HW224131  14.677   8.638   2.261
 7412SOL     OW24132   8.783   5.392   4.192
 7412SOL    HW124133   8.740   5.307   4.186
 7412SOL    HW224134   8.842   5.384   4.267
 7413SOL     OW24135  10.410   6.227  13.335
 7413SOL    HW124136  10.450   6.171  13.269
 7413SOL    HW224137  10.439   6.315  13.313
 7414SOL     OW24138  10.386  14.526   0.956
 7414SOL    HW124139  10.350  14.587   1.021
 7414SOL    HW224140  10.438  14.464   1.007
 7415SOL     OW24141  13.282  10.805   5.001
 7415SOL    HW124142  13.316  10.833   5.086
 7415SOL    HW224143  13.239  10.721   5.018
 7416SOL     OW24144   0.536   6.233   7.259
 7416SOL    HW124145   0.456   6.212   7.305
 7416SOL    HW224146   0.524   6.324   7.230
 7417SOL     OW24147   8.687  13.959  12.709
 7417SOL    HW124148   8.722  14.046  12.692
 7417SOL    HW224149   8.645  13.967  12.795
 7418SOL     OW24150  12.688   5.652  14.839
 7418SOL    HW124151  12.674   5.586   0.025
 7418SOL    HW224152  12.611   5.708  14.844
 7419SOL     OW24153   4.863   3.436   6.682
 7419SOL    HW124154   4.904   3.421   6.767
 7419SOL    HW224155   4.825   3.524   6.688
 7420SOL     OW24156  12.421  13.924  12.864
 7420SOL    HW124157  12.425  13.886  12.777
 7420SOL    HW224158  12.354  13.874  12.910
 7421SOL     OW24159   3.189  11.627   5.828
 7421SOL    HW124160   3.161  11.595   5.914
 7421SOL    HW224161   3.252  11.696   5.848
 7422SOL     OW24162  11.220   6.106  10.136
 7422SOL    HW124163  11.293   6.108  10.075
 7422SOL    HW224164  11.154   6.162  10.096
 7423SOL     OW24165   5.120   3.963  14.258
 7423SOL    HW124166   5.037   3.938  14.217
 7423SOL    HW224167   5.105   3.953  14.352
 7424SOL     OW24168   4.370  11.849   7.213
 7424SOL    HW124169   4.322  11.885   7.138
 7424SOL    HW224170   4.420  11.776   7.176
 7425SOL     OW24171  11.486  12.680   4.877
 7425SOL    HW124172  11.457  12.675   4.968
 7425SOL    HW224173  11.448  12.603   4.835
 7426SOL     OW24174   1.436   7.765   5.764
 7426SOL    HW124175   1.526   7.736   5.783
 7426SOL    HW224176   1.388   7.684   5.748
 7427SOL     OW24177   8.326   6.404   0.420
 7427SOL    HW124178   8.246   6.415   0.471
 7427SOL    HW224179   8.322   6.472   0.353
 7428SOL     OW24180   5.996   8.430   1.122
 7428SOL    HW124181   5.939   8.359   1.153
 7428SOL    HW224182   6.045   8.457   1.201
 7429SOL     OW24183   2.123   9.622   9.557
 7429SOL    HW124184   2.167   9.696   9.514
 7429SOL    HW224185   2.031   9.646   9.558
 7430SOL     OW24186  14.575   7.908  11.655
 7430SOL    HW124187  14.480   7.900  11.669
 7430SOL    HW224188  14.600   7.985  11.706
 7431SOL     OW24189   8.602  12.918  12.100
 7431SOL    HW124190   8.524  12.952  12.143
 7431SOL    HW224191   8.572  12.892  12.012
 7432SOL     OW24192   0.681  11.351   6.968
 7432SOL    HW124193   0.741  11.284   7.000
 7432SOL    HW224194   0.644  11.390   7.047
 7433SOL     OW24195   2.603   6.735   5.021
 7433SOL    HW124196   2.610   6.779   4.936
 7433SOL    HW224197   2.684   6.683   5.027
 7434SOL     OW24198   2.847   6.230  10.167
 7434SOL    HW124199   2.876   6.301  10.224
 7434SOL    HW224200   2.786   6.179  10.220
 7435SOL     OW24201   4.308  10.587   8.402
 7435SOL    HW124202   4.298  10.495   8.379
 7435SOL    HW224203   4.391  10.591   8.450
 7436SOL     OW24204   2.186  13.288   2.799
 7436SOL    HW124205   2.174  13.332   2.714
 7436SOL    HW224206   2.271  13.245   2.791
 7437SOL     OW24207  12.604   8.237   6.378
 7437SOL    HW124208  12.625   8.160   6.431
 7437SOL    HW224209  12.689   8.270   6.350
 7438SOL     OW24210   6.612  13.190  13.782
 7438SOL    HW124211   6.530  13.151  13.751
 7438SOL    HW224212   6.673  13.116  13.787
 7439SOL     OW24213  13.883   0.468   6.771
 7439SOL    HW124214  13.878   0.455   6.865
 7439SOL    HW224215  13.802   0.515   6.749
 7440SOL     OW24216  12.816   2.587   5.897
 7440SOL    HW124217  12.832   2.563   5.988
 7440SOL    HW224218  12.878   2.533   5.847
 7441SOL     OW24219  13.372  10.978   2.707
 7441SOL    HW124220  13.457  10.933   2.701
 7441SOL    HW224221  13.382  11.054   2.651
 7442SOL     OW24222   5.829   1.127   5.264
 7442SOL    HW124223   5.832   1.195   5.197
 7442SOL    HW224224   5.810   1.174   5.345
 7443SOL     OW24225   0.480   8.873  11.346
 7443SOL    HW124226   0.530   8.792  11.361
 7443SOL    HW224227   0.546   8.942  11.346
 7444SOL     OW24228   7.672   5.339   4.650
 7444SOL    HW124229   7.633   5.252   4.651
 7444SOL    HW224230   7.664   5.368   4.559
 7445SOL     OW24231   6.041   4.244  14.158
 7445SOL    HW124232   6.081   4.158  14.174
 7445SOL    HW224233   5.967   4.248  14.219
 7446SOL     OW24234  10.693   1.063   0.371
 7446SOL    HW124235  10.659   0.976   0.349
 7446SOL    HW224236  10.663   1.120   0.301
 7447SOL     OW24237   3.199   3.997   0.330
 7447SOL    HW124238   3.180   3.938   0.403
 7447SOL    HW224239   3.280   4.041   0.355
 7448SOL     OW24240  13.148  12.316   3.820
 7448SOL    HW124241  13.094  12.283   3.748
 7448SOL    HW224242  13.175  12.403   3.791
 7449SOL     OW24243  14.802  13.159   6.201
 7449SOL    HW124244  14.733  13.136   6.140
 7449SOL    HW224245  14.817  13.253   6.187
 7450SOL     OW24246  11.975   5.731   6.686
 7450SOL    HW124247  12.051   5.675   6.678
 7450SOL    HW224248  11.940   5.738   6.597
 7451SOL     OW24249   1.628   8.407  12.276
 7451SOL    HW124250   1.576   8.340  12.321
 7451SOL    HW224251   1.696   8.431  12.339
 7452SOL     OW24252   8.276   2.989   0.490
 7452SOL    HW124253   8.314   2.916   0.441
 7452SOL    HW224254   8.182   2.975   0.486
 7453SOL     OW24255   1.643   6.762  10.860
 7453SOL    HW124256   1.659   6.829  10.926
 7453SOL    HW224257   1.550   6.743  10.866
 7454SOL     OW24258   9.407   9.969   7.399
 7454SOL    HW124259   9.400   9.915   7.321
 7454SOL    HW224260   9.439  10.053   7.367
 7455SOL     OW24261  11.354   0.060  13.176
 7455SOL    HW124262  11.305  14.860  13.173
 7455SOL    HW224263  11.364   0.078  13.270
 7456SOL     OW24264   2.493   6.285   2.684
 7456SOL    HW124265   2.549   6.278   2.761
 7456SOL    HW224266   2.550   6.262   2.610
 7457SOL     OW24267   8.982   3.451   8.607
 7457SOL    HW124268   8.905   3.423   8.656
 7457SOL    HW224269   8.981   3.399   8.527
 7458SOL     OW24270  10.649  10.965  14.415
 7458SOL    HW124271  10.648  10.960  14.319
 7458SOL    HW224272  10.568  11.011  14.437
 7459SOL     OW24273   7.806  10.047   9.370
 7459SOL    HW124274   7.713  10.024   9.363
 7459SOL    HW224275   7.830  10.074   9.281
 7460SOL     OW24276   4.431   7.350  11.439
 7460SOL    HW124277   4.496   7.419  11.431
 7460SOL    HW224278   4.457   7.300  11.516
 7461SOL     OW24279  11.571  13.859   0.665
 7461SOL    HW124280  11.548  13.772   0.633
 7461SOL    HW224281  11.636  13.844   0.733
 7462SOL     OW24282  12.498   2.805  12.283
 7462SOL    HW124283  12.427   2.828  12.342
 7462SOL    HW224284  12.561   2.877  12.292
 7463SOL     OW24285   3.436   4.781  10.352
 7463SOL    HW124286   3.529   4.779  10.331
 7463SOL    HW224287   3.410   4.689  10.357
 7464SOL     OW24288   9.436   3.570  14.808
 7464SOL    HW124289   9.440   3.612  14.722
 7464SOL    HW224290   9.508   3.508  14.808
 7465SOL     OW24291   6.790   3.097  14.094
 7465SOL    HW124292   6.719   3.048  14.053
 7465SOL    HW224293   6.760   3.188  14.094
 7466SOL     OW24294   3.327   3.074   1.714
 7466SOL    HW124295   3.351   3.025   1.793
 7466SOL    HW224296   3.231   3.071   1.714
 7467SOL     OW24297  10.128   0.672   5.782
 7467SOL    HW124298  10.215   0.681   5.743
 7467SOL    HW224299  10.073   0.733   5.733
 7468SOL     OW24300   4.135  14.847  14.205
 7468SOL    HW124301   4.142   0.046  14.255
 7468SOL    HW224302   4.135  14.876  14.113
 7469SOL     OW24303   7.645   4.291   1.416
 7469SOL    HW124304   7.616   4.377   1.446
 7469SOL    HW224305   7.737   4.303   1.393
 7470SOL     OW24306  11.764   7.948  11.594
 7470SOL    HW124307  11.791   7.881  11.657
 7470SOL    HW224308  11.838   7.956  11.534
 7471SOL     OW24309   9.193   5.566   1.586
 7471SOL    HW124310   9.163   5.562   1.677
 7471SOL    HW224311   9.281   5.603   1.592
 7472SOL     OW24312  13.720   7.849  12.548
 7472SOL    HW124313  13.713   7.934  12.591
 7472SOL    HW224314  13.652   7.850  12.481
 7473SOL     OW24315   8.471  14.773   0.099
 7473SOL    HW124316   8.517  14.719   0.035
 7473SOL    HW224317   8.539  14.831   0.134
 7474SOL     OW24318   5.950  14.830  11.767
 7474SOL    HW124319   5.994  14.746  11.751
 7474SOL    HW224320   5.997   0.010  11.712
 7475SOL     OW24321   4.564  14.411   3.931
 7475SOL    HW124322   4.651  14.435   3.900
 7475SOL    HW224323   4.526  14.361   3.859
 7476SOL     OW24324   2.876   9.918   9.066
 7476SOL    HW124325   2.788   9.890   9.039
 7476SOL    HW224326   2.862  10.004   9.106
 7477SOL     OW24327  10.248   1.570  12.990
 7477SOL    HW124328  10.162   1.608  13.008
 7477SOL    HW224329  10.241   1.480  13.022
 7478SOL     OW24330  14.424   8.667   4.756
 7478SOL    HW124331  14.422   8.723   4.833
 7478SOL    HW224332  14.451   8.725   4.684
 7479SOL     OW24333   0.183  13.032   0.865
 7479SOL    HW124334   0.136  12.950   0.876
 7479SOL    HW224335   0.146  13.070   0.785
 7480SOL     OW24336   6.433   8.184   7.008
 7480SOL    HW124337   6.419   8.135   7.089
 7480SOL    HW224338   6.515   8.150   6.972
 7481SOL     OW24339   7.066   7.474  11.778
 7481SOL    HW124340   7.138   7.494  11.719
 7481SOL    HW224341   6.988   7.510  11.734
 7482SOL     OW24342  14.733   0.143  10.531
 7482SOL    HW124343  14.749   0.115  10.621
 7482SOL    HW224344  14.648   0.187  10.535
 7483SOL     OW24345   5.582  11.311   5.060
 7483SOL    HW124346   5.577  11.265   5.144
 7483SOL    HW224347   5.600  11.243   4.996
 7484SOL     OW24348   9.565   3.279  13.605
 7484SOL    HW124349   9.531   3.194  13.634
 7484SOL    HW224350   9.604   3.260  13.520
 7485SOL     OW24351  13.629  14.680   3.387
 7485SOL    HW124352  13.665  14.766   3.365
 7485SOL    HW224353  13.603  14.642   3.302
 7486SOL     OW24354  12.612   7.078   1.092
 7486SOL    HW124355  12.534   7.033   1.124
 7486SOL    HW224356  12.617   7.054   1.000
 7487SOL     OW24357   2.800   7.121   7.911
 7487SOL    HW124358   2.801   7.053   7.844
 7487SOL    HW224359   2.740   7.087   7.978
 7488SOL     OW24360   6.720   9.447  13.084
 7488SOL    HW124361   6.710   9.440  12.989
 7488SOL    HW224362   6.661   9.381  13.119
 7489SOL     OW24363   3.001   6.107   8.496
 7489SOL    HW124364   3.003   6.012   8.505
 7489SOL    HW224365   3.085   6.129   8.456
 7490SOL     OW24366   0.656   3.740   0.167
 7490SOL    HW124367   0.590   3.734   0.235
 7490SOL    HW224368   0.671   3.649   0.140
 7491SOL     OW24369   2.744  13.530  12.287
 7491SOL    HW124370   2.772  13.555  12.199
 7491SOL    HW224371   2.670  13.471  12.273
 7492SOL     OW24372   3.184   0.914   0.530
 7492SOL    HW124373   3.192   0.980   0.461
 7492SOL    HW224374   3.090   0.896   0.535
 7493SOL     OW24375  14.507   4.364   5.980
 7493SOL    HW124376  14.554   4.446   5.961
 7493SOL    HW224377  14.480   4.372   6.072
 7494SOL     OW24378  13.821   2.182   5.002
 7494SOL    HW124379  13.786   2.098   4.972
 7494SOL    HW224380  13.910   2.184   4.968
 7495SOL     OW24381   3.293  14.400  14.072
 7495SOL    HW124382   3.198  14.410  14.075
 7495SOL    HW224383   3.317  14.428  13.983
 7496SOL     OW24384   9.623  12.070   0.335
 7496SOL    HW124385   9.663  12.039   0.416
 7496SOL    HW224386   9.607  12.163   0.350
 7497SOL     OW24387  13.194   2.926   5.239
 7497SOL    HW124388  13.182   2.875   5.159
 7497SOL    HW224389  13.206   2.860   5.308
 7498SOL     OW24390   9.394  12.776  11.554
 7498SOL    HW124391   9.311  12.821  11.566
 7498SOL    HW224392   9.437  12.823  11.482
 7499SOL     OW24393  14.261   8.440  10.564
 7499SOL    HW124394  14.261   8.347  10.584
 7499SOL    HW224395  14.353   8.462  10.552
 7500SOL     OW24396  14.206   9.114   8.770
 7500SOL    HW124397  14.146   9.171   8.720
 7500SOL    HW224398  14.148   9.059   8.823
 7501SOL     OW24399   3.274   2.592   3.632
 7501SOL    HW124400   3.259   2.516   3.689
 7501SOL    HW224401   3.191   2.603   3.586
 7502SOL     OW24402   9.548  10.185   5.193
 7502SOL    HW124403   9.608  10.195   5.119
 7502SOL    HW224404   9.534  10.090   5.200
 7503SOL     OW24405   3.651   8.663  13.685
 7503SOL    HW124406   3.746   8.658  13.671
 7503SOL    HW224407   3.625   8.574  13.707
 7504SOL     OW24408   4.558  12.506   3.818
 7504SOL    HW124409   4.509  12.545   3.890
 7504SOL    HW224410   4.592  12.424   3.854
 7505SOL     OW24411   1.503  11.189   6.602
 7505SOL    HW124412   1.487  11.134   6.525
 7505SOL    HW224413   1.535  11.272   6.566
 7506SOL     OW24414   1.945  10.662   0.563
 7506SOL    HW124415   1.990  10.626   0.486
 7506SOL    HW224416   1.913  10.585   0.610
 7507SOL     OW24417  14.186   3.430  12.419
 7507SOL    HW124418  14.271   3.473  12.406
 7507SOL    HW224419  14.201   3.339  12.393
 7508SOL     OW24420  10.859   4.314   4.296
 7508SOL    HW124421  10.871   4.297   4.203
 7508SOL    HW224422  10.945   4.343   4.327
 7509SOL     OW24423  11.071  11.619   2.184
 7509SOL    HW124424  11.155  11.581   2.157
 7509SOL    HW224425  11.093  11.676   2.258
 7510SOL     OW24426   3.627  11.709   0.598
 7510SOL    HW124427   3.600  11.624   0.634
 7510SOL    HW224428   3.696  11.687   0.535
 7511SOL     OW24429   4.544   6.631  11.072
 7511SOL    HW124430   4.523   6.568  11.002
 7511SOL    HW224431   4.544   6.578  11.152
 7512SOL     OW24432   4.610   4.736   9.210
 7512SOL    HW124433   4.665   4.753   9.134
 7512SOL    HW224434   4.656   4.667   9.258
 7513SOL     OW24435  13.943  13.316   8.240
 7513SOL    HW124436  13.910  13.240   8.289
 7513SOL    HW224437  14.038  13.313   8.253
 7514SOL     OW24438  11.374   9.619  10.645
 7514SOL    HW124439  11.440   9.685  10.624
 7514SOL    HW224440  11.375   9.613  10.741
 7515SOL     OW24441   7.112   0.244  10.034
 7515SOL    HW124442   7.115   0.150  10.049
 7515SOL    HW224443   7.018   0.264  10.027
 7516SOL     OW24444   9.222   5.136   6.595
 7516SOL    HW124445   9.304   5.099   6.561
 7516SOL    HW224446   9.190   5.071   6.657
 7517SOL     OW24447   1.560  10.863  10.576
 7517SOL    HW124448   1.552  10.767  10.572
 7517SOL    HW224449   1.640  10.882  10.526
 7518SOL     OW24450   0.195   6.410   0.635
 7518SOL    HW124451   0.239   6.419   0.720
 7518SOL    HW224452   0.205   6.317   0.613
 7519SOL     OW24453   7.396   2.989   8.303
 7519SOL    HW124454   7.333   2.963   8.236
 7519SOL    HW224455   7.442   3.064   8.266
 7520SOL     OW24456   5.754   4.593  10.843
 7520SOL    HW124457   5.806   4.654  10.791
 7520SOL    HW224458   5.726   4.643  10.919
 7521SOL     OW24459   3.598   4.115   3.150
 7521SOL    HW124460   3.549   4.142   3.228
 7521SOL    HW224461   3.536   4.122   3.078
 7522SOL     OW24462   7.500   6.013  14.804
 7522SOL    HW124463   7.462   6.035  14.719
 7522SOL    HW224464   7.549   5.932  14.789
 7523SOL     OW24465   7.837   7.258   8.367
 7523SOL    HW124466   7.851   7.185   8.429
 7523SOL    HW224467   7.840   7.336   8.422
 7524SOL     OW24468  10.066  11.260  14.079
 7524SOL    HW124469  10.145  11.276  14.131
 7524SOL    HW224470  10.049  11.344  14.035
 7525SOL     OW24471   2.953   2.495   4.389
 7525SOL    HW124472   2.897   2.573   4.390
 7525SOL    HW224473   2.897   2.425   4.357
 7526SOL     OW24474  10.800  14.369   7.811
 7526SOL    HW124475  10.716  14.374   7.857
 7526SOL    HW224476  10.863  14.407   7.872
 7527SOL     OW24477  12.633  10.919   3.378
 7527SOL    HW124478  12.699  10.955   3.438
 7527SOL    HW224479  12.550  10.936   3.421
 7528SOL     OW24480  13.693   3.699  11.409
 7528SOL    HW124481  13.672   3.742  11.326
 7528SOL    HW224482  13.626   3.729  11.470
 7529SOL     OW24483   2.384  12.119   3.748
 7529SOL    HW124484   2.428  12.088   3.828
 7529SOL    HW224485   2.408  12.055   3.681
 7530SOL     OW24486   1.184   7.852  13.684
 7530SOL    HW124487   1.203   7.775  13.630
 7530SOL    HW224488   1.175   7.817  13.773
 7531SOL     OW24489   4.603   1.054  11.438
 7531SOL    HW124490   4.659   1.122  11.401
 7531SOL    HW224491   4.528   1.049  11.380
 7532SOL     OW24492   1.613  12.693  12.691
 7532SOL    HW124493   1.671  12.757  12.650
 7532SOL    HW224494   1.551  12.670  12.623
 7533SOL     OW24495  12.583   7.646   8.785
 7533SOL    HW124496  12.531   7.584   8.733
 7533SOL    HW224497  12.589   7.724   8.731
 7534SOL     OW24498  11.438   1.107  13.919
 7534SOL    HW124499  11.448   1.104  14.014
 7534SOL    HW224500  11.503   1.045  13.886
 7535SOL     OW24501   0.118  12.003   1.191
 7535SOL    HW124502   0.213  11.998   1.204
 7535SOL    HW224503   0.099  11.940   1.121
 7536SOL     OW24504   3.756  11.786   2.782
 7536SOL    HW124505   3.742  11.807   2.690
 7536SOL    HW224506   3.844  11.749   2.786
 7537SOL     OW24507   3.750   0.457   0.054
 7537SOL    HW124508   3.837   0.470   0.092
 7537SOL    HW224509   3.749   0.366   0.025
 7538SOL     OW24510   4.612   4.796   6.172
 7538SOL    HW124511   4.596   4.786   6.266
 7538SOL    HW224512   4.649   4.884   6.163
 7539SOL     OW24513  11.874   4.537  11.289
 7539SOL    HW124514  11.936   4.550  11.217
 7539SOL    HW224515  11.824   4.619  11.293
 7540SOL     OW24516  12.399   2.181   8.644
 7540SOL    HW124517  12.493   2.181   8.663
 7540SOL    HW224518  12.380   2.270   8.616
 7541SOL     OW24519  14.461   6.238  10.415
 7541SOL    HW124520  14.491   6.327  10.432
 7541SOL    HW224521  14.477   6.225  10.322
 7542SOL     OW24522  14.812  10.954  12.973
 7542SOL    HW124523   0.018  10.935  13.007
 7542SOL    HW224524  14.822  10.949  12.877
 7543SOL     OW24525  13.316   4.730  11.279
 7543SOL    HW124526  13.241   4.775  11.318
 7543SOL    HW224527  13.289   4.712  11.189
 7544SOL     OW24528   9.043   2.440   0.373
 7544SOL    HW124529   9.096   2.519   0.373
 7544SOL    HW224530   8.956   2.469   0.344
 7545SOL     OW24531   7.660   6.241  10.392
 7545SOL    HW124532   7.598   6.254  10.464
 7545SOL    HW224533   7.741   6.281  10.423
 7546SOL     OW24534  10.968   7.486  10.083
 7546SOL    HW124535  10.941   7.412  10.029
 7546SOL    HW224536  10.958   7.455  10.173
 7547SOL     OW24537   9.601  13.470  10.763
 7547SOL    HW124538   9.511  13.475  10.731
 7547SOL    HW224539   9.629  13.562  10.771
 7548SOL     OW24540   0.356  12.714  14.164
 7548SOL    HW124541   0.293  12.645  14.183
 7548SOL    HW224542   0.424  12.671  14.112
 7549SOL     OW24543  12.551   1.722   5.542
 7549SOL    HW124544  12.464   1.742   5.578
 7549SOL    HW224545  12.534   1.690   5.453
 7550SOL     OW24546   6.281   5.375  11.773
 7550SOL    HW124547   6.263   5.431  11.849
 7550SOL    HW224548   6.235   5.418  11.700
 7551SOL     OW24549  13.282   7.038   5.295
 7551SOL    HW124550  13.254   6.966   5.351
 7551SOL    HW224551  13.377   7.037   5.299
 7552SOL     OW24552   0.387  11.382   4.103
 7552SOL    HW124553   0.474  11.379   4.064
 7552SOL    HW224554   0.379  11.298   4.149
 7553SOL     OW24555  11.619   2.240  13.456
 7553SOL    HW124556  11.582   2.328  13.455
 7553SOL    HW224557  11.679   2.239  13.381
 7554SOL     OW24558   6.807  10.664   4.753
 7554SOL    HW124559   6.829  10.612   4.676
 7554SOL    HW224560   6.768  10.744   4.717
 7555SOL     OW24561   6.884   1.181   4.093
 7555SOL    HW124562   6.951   1.141   4.148
 7555SOL    HW224563   6.864   1.264   4.137
 7556SOL     OW24564   7.140   1.977   1.148
 7556SOL    HW124565   7.088   1.913   1.099
 7556SOL    HW224566   7.131   2.058   1.098
 7557SOL     OW24567   3.393   7.737   9.216
 7557SOL    HW124568   3.360   7.786   9.291
 7557SOL    HW224569   3.324   7.746   9.150
 7558SOL     OW24570   4.718   5.235   9.084
 7558SOL    HW124571   4.764   5.227   9.000
 7558SOL    HW224572   4.636   5.186   9.071
 7559SOL     OW24573   6.378   6.360  10.300
 7559SOL    HW124574   6.294   6.336  10.339
 7559SOL    HW224575   6.444   6.322  10.358
 7560SOL     OW24576   8.482   0.453   9.550
 7560SOL    HW124577   8.542   0.439   9.477
 7560SOL    HW224578   8.406   0.497   9.511
 7561SOL     OW24579  12.368   7.118   4.263
 7561SOL    HW124580  12.302   7.173   4.222
 7561SOL    HW224581  12.379   7.155   4.351
 7562SOL     OW24582   0.892   0.621   0.464
 7562SOL    HW124583   0.800   0.627   0.442
 7562SOL    HW224584   0.928   0.708   0.445
 7563SOL     OW24585  10.735   5.649  14.304
 7563SOL    HW124586  10.807   5.587  14.311
 7563SOL    HW224587  10.771   5.723  14.256
 7564SOL     OW24588   9.658   2.205   0.625
 7564SOL    HW124589   9.718   2.252   0.683
 7564SOL    HW224590   9.621   2.273   0.568
 7565SOL     OW24591   6.631   0.930  10.852
 7565SOL    HW124592   6.692   0.868  10.812
 7565SOL    HW224593   6.621   0.999  10.787
 7566SOL     OW24594   3.001   5.674   4.386
 7566SOL    HW124595   3.042   5.621   4.317
 7566SOL    HW224596   2.923   5.625   4.411
 7567SOL     OW24597   4.161   0.014   3.763
 7567SOL    HW124598   4.212  14.854   3.694
 7567SOL    HW224599   4.224   0.068   3.810
 7568SOL     OW24600   9.674   0.587   3.829
 7568SOL    HW124601   9.666   0.653   3.897
 7568SOL    HW224602   9.610   0.611   3.763
 7569SOL     OW24603   9.918   2.502   8.887
 7569SOL    HW124604   9.962   2.514   8.972
 7569SOL    HW224605   9.988   2.474   8.828
 7570SOL     OW24606   2.859   5.047   3.872
 7570SOL    HW124607   2.798   5.073   3.941
 7570SOL    HW224608   2.907   5.127   3.851
 7571SOL     OW24609  10.563   2.912   6.918
 7571SOL    HW124610  10.490   2.876   6.968
 7571SOL    HW224611  10.608   2.836   6.881
 7572SOL     OW24612   8.120  10.289   7.076
 7572SOL    HW124613   8.140  10.257   6.988
 7572SOL    HW224614   8.100  10.210   7.127
 7573SOL     OW24615   4.170  11.826   7.382
 7573SOL    HW124616   4.173  11.912   7.424
 7573SOL    HW224617   4.238  11.831   7.314
 7574SOL     OW24618   6.820  13.719   5.535
 7574SOL    HW124619   6.876  13.711   5.613
 7574SOL    HW224620   6.732  13.735   5.570
 7575SOL     OW24621  13.701  12.056  12.951
 7575SOL    HW124622  13.677  12.123  13.015
 7575SOL    HW224623  13.779  12.091  12.907
 7576SOL     OW24624   7.540   2.892  13.331
 7576SOL    HW124625   7.616   2.840  13.359
 7576SOL    HW224626   7.577   2.958  13.273
 7577SOL     OW24627   3.018   7.510   1.912
 7577SOL    HW124628   2.962   7.482   1.984
 7577SOL    HW224629   3.007   7.442   1.845
 7578SOL     OW24630   1.088  13.820   7.687
 7578SOL    HW124631   1.052  13.741   7.728
 7578SOL    HW224632   1.022  13.888   7.702
 7579SOL     OW24633  12.555   5.001  14.230
 7579SOL    HW124634  12.523   5.080  14.273
 7579SOL    HW224635  12.582   4.944  14.302
 7580SOL     OW24636  12.176  11.624  12.885
 7580SOL    HW124637  12.088  11.662  12.892
 7580SOL    HW224638  12.160  11.530  12.871
 7581SOL     OW24639  13.121   2.801   7.157
 7581SOL    HW124640  13.124   2.873   7.220
 7581SOL    HW224641  13.056   2.740   7.193
 7582SOL     OW24642   8.723   9.917  10.750
 7582SOL    HW124643   8.653   9.856  10.725
 7582SOL    HW224644   8.791   9.902  10.684
 7583SOL     OW24645   2.915  11.230   9.939
 7583SOL    HW124646   2.870  11.170   9.999
 7583SOL    HW224647   2.888  11.317   9.967
 7584SOL     OW24648  13.436   5.862   5.087
 7584SOL    HW124649  13.523   5.851   5.049
 7584SOL    HW224650  13.386   5.787   5.056
 7585SOL     OW24651   2.380  10.790   1.307
 7585SOL    HW124652   2.321  10.812   1.234
 7585SOL    HW224653   2.377  10.867   1.364
 7586SOL     OW24654  13.501   4.553  11.041
 7586SOL    HW124655  13.461   4.541  11.127
 7586SOL    HW224656  13.513   4.464  11.007
 7587SOL     OW24657   5.586   7.447  12.348
 7587SOL    HW124658   5.572   7.356  12.374
 7587SOL    HW224659   5.659   7.476  12.402
 7588SOL     OW24660  14.001   7.380  10.055
 7588SOL    HW124661  13.928   7.355  10.112
 7588SOL    HW224662  14.063   7.422  10.113
 7589SOL     OW24663  12.456   5.853   5.205
 7589SOL    HW124664  12.471   5.839   5.299
 7589SOL    HW224665  12.481   5.944   5.190
 7590SOL     OW24666   6.767  14.595   8.210
 7590SOL    HW124667   6.858  14.570   8.230
 7590SOL    HW224668   6.718  14.514   8.222
 7591SOL     OW24669  11.459  14.675   1.488
 7591SOL    HW124670  11.445  14.603   1.549
 7591SOL    HW224671  11.483  14.749   1.543
 7592SOL     OW24672   7.915   3.834   7.378
 7592SOL    HW124673   7.868   3.757   7.411
 7592SOL    HW224674   8.000   3.831   7.422
 7593SOL     OW24675   3.037  10.783   9.851
 7593SOL    HW124676   2.952  10.743   9.836
 7593SOL    HW224677   3.040  10.856   9.788
 7594SOL     OW24678   1.009  10.358   1.441
 7594SOL    HW124679   1.038  10.297   1.373
 7594SOL    HW224680   0.955  10.422   1.394
 7595SOL     OW24681   9.309   9.084   6.373
 7595SOL    HW124682   9.257   9.025   6.427
 7595SOL    HW224683   9.319   9.038   6.290
 7596SOL     OW24684  13.109   7.945   3.239
 7596SOL    HW124685  13.084   7.939   3.146
 7596SOL    HW224686  13.027   7.963   3.285
 7597SOL     OW24687   9.318   2.271   7.330
 7597SOL    HW124688   9.333   2.363   7.310
 7597SOL    HW224689   9.324   2.227   7.246
 7598SOL     OW24690   0.091  10.789   9.945
 7598SOL    HW124691   0.174  10.806   9.900
 7598SOL    HW224692   0.030  10.765   9.875
 7599SOL     OW24693   2.483  14.705   2.011
 7599SOL    HW124694   2.507  14.700   2.103
 7599SOL    HW224695   2.424  14.631   1.997
 7600SOL     OW24696   5.970   9.751   1.407
 7600SOL    HW124697   5.908   9.817   1.440
 7600SOL    HW224698   5.915   9.691   1.357
 7601SOL     OW24699  12.767   4.737   8.304
 7601SOL    HW124700  12.720   4.677   8.246
 7601SOL    HW224701  12.700   4.796   8.337
 7602SOL     OW24702  13.586   1.896   9.512
 7602SOL    HW124703  13.560   1.897   9.604
 7602SOL    HW224704  13.680   1.877   9.514
 7603SOL     OW24705   4.680  12.384   9.242
 7603SOL    HW124706   4.665  12.373   9.148
 7603SOL    HW224707   4.677  12.295   9.277
 7604SOL     OW24708   8.228   6.978   6.989
 7604SOL    HW124709   8.177   6.911   7.035
 7604SOL    HW224710   8.307   6.932   6.961
 7605SOL     OW24711  12.944  11.350   8.607
 7605SOL    HW124712  12.880  11.291   8.647
 7605SOL    HW224713  12.999  11.294   8.553
 7606SOL     OW24714   8.148  12.323   6.382
 7606SOL    HW124715   8.127  12.357   6.470
 7606SOL    HW224716   8.175  12.233   6.398
 7607SOL     OW24717   8.939  14.602   1.274
 7607SOL    HW124718   8.902  14.595   1.186
 7607SOL    HW224719   8.865  14.588   1.333
 7608SOL     OW24720   7.062   5.093  10.855
 7608SOL    HW124721   7.133   5.030  10.869
 7608SOL    HW224722   6.989   5.059  10.906
 7609SOL     OW24723   1.326  13.520  12.341
 7609SOL    HW124724   1.287  13.467  12.411
 7609SOL    HW224725   1.398  13.566  12.384
 7610SOL     OW24726   4.463  12.395   5.574
 7610SOL    HW124727   4.549  12.431   5.594
 7610SOL    HW224728   4.426  12.455   5.509
 7611SOL     OW24729  11.765  10.113   4.515
 7611SOL    HW124730  11.730  10.099   4.427
 7611SOL    HW224731  11.805  10.029   4.538
 7612SOL     OW24732   1.546   5.007   2.567
 7612SOL    HW124733   1.459   5.003   2.607
 7612SOL    HW224734   1.544   5.085   2.512
 7613SOL     OW24735   5.302  12.743  13.139
 7613SOL    HW124736   5.217  12.764  13.178
 7613SOL    HW224737   5.295  12.650  13.116
 7614SOL     OW24738  14.175  14.653  10.130
 7614SOL    HW124739  14.157  14.566  10.167
 7614SOL    HW224740  14.089  14.694  10.124
 7615SOL     OW24741   6.355   0.361   5.801
 7615SOL    HW124742   6.288   0.426   5.780
 7615SOL    HW224743   6.410   0.356   5.723
 7616SOL     OW24744   2.896  13.370   2.193
 7616SOL    HW124745   2.882  13.276   2.187
 7616SOL    HW224746   2.951  13.391   2.118
 7617SOL     OW24747   5.899   6.998   5.241
 7617SOL    HW124748   5.838   7.072   5.239
 7617SOL    HW224749   5.924   6.986   5.149
 7618SOL     OW24750   6.430   4.802  10.931
 7618SOL    HW124751   6.363   4.819  10.998
 7618SOL    HW224752   6.399   4.723  10.886
 7619SOL     OW24753   0.383   6.568  13.546
 7619SOL    HW124754   0.404   6.653  13.586
 7619SOL    HW224755   0.353   6.514  13.619
 7620SOL     OW24756   0.492  11.085   3.453
 7620SOL    HW124757   0.496  11.108   3.546
 7620SOL    HW224758   0.422  11.141   3.418
 7621SOL     OW24759  13.832  10.829   2.901
 7621SOL    HW124760  13.909  10.775   2.884
 7621SOL    HW224761  13.850  10.869   2.986
 7622SOL     OW24762   4.234   8.825   1.065
 7622SOL    HW124763   4.306   8.772   1.030
 7622SOL    HW224764   4.222   8.792   1.154
 7623SOL     OW24765   0.218  10.669   8.925
 7623SOL    HW124766   0.153  10.614   8.881
 7623SOL    HW224767   0.183  10.681   9.013
 7624SOL     OW24768   0.466   9.195   7.746
 7624SOL    HW124769   0.446   9.105   7.769
 7624SOL    HW224770   0.481   9.238   7.831
 7625SOL     OW24771   5.494   1.565   6.668
 7625SOL    HW124772   5.581   1.575   6.707
 7625SOL    HW224773   5.481   1.471   6.662
 7626SOL     OW24774   8.495  10.450  13.382
 7626SOL    HW124775   8.455  10.439  13.296
 7626SOL    HW224776   8.480  10.366  13.427
 7627SOL     OW24777   8.166   4.017   4.561
 7627SOL    HW124778   8.135   4.017   4.652
 7627SOL    HW224779   8.128   4.096   4.523
 7628SOL     OW24780  12.557  10.734   9.471
 7628SOL    HW124781  12.543  10.828   9.461
 7628SOL    HW224782  12.646  10.728   9.506
 7629SOL     OW24783   4.617   0.599   4.483
 7629SOL    HW124784   4.582   0.557   4.562
 7629SOL    HW224785   4.551   0.583   4.416
 7630SOL     OW24786   3.279  10.613  12.898
 7630SOL    HW124787   3.252  10.702  12.922
 7630SOL    HW224788   3.296  10.570  12.982
 7631SOL     OW24789  13.471   7.855   1.630
 7631SOL    HW124790  13.464   7.871   1.724
 7631SOL    HW224791  13.511   7.769   1.623
 7632SOL     OW24792  10.445   0.611  12.220
 7632SOL    HW124793  10.492   0.670  12.162
 7632SOL    HW224794  10.361   0.654  12.237
 7633SOL     OW24795   9.854  12.786  12.121
 7633SOL    HW124796   9.808  12.835  12.189
 7633SOL    HW224797   9.858  12.847  12.047
 7634SOL     OW24798   9.214   2.598  14.635
 7634SOL    HW124799   9.178   2.537  14.700
 7634SOL    HW224800   9.216   2.682  14.681
 7635SOL     OW24801  10.198  11.255   7.287
 7635SOL    HW124802  10.262  11.229   7.221
 7635SOL    HW224803  10.237  11.229   7.371
 7636SOL     OW24804  12.438  11.409   0.399
 7636SOL    HW124805  12.447  11.388   0.492
 7636SOL    HW224806  12.372  11.478   0.396
 7637SOL     OW24807   5.042   9.226   5.975
 7637SOL    HW124808   4.978   9.291   6.003
 7637SOL    HW224809   5.018   9.205   5.885
 7638SOL     OW24810   2.513   8.679   4.551
 7638SOL    HW124811   2.488   8.721   4.469
 7638SOL    HW224812   2.536   8.589   4.526
 7639SOL     OW24813   4.679   7.882  14.583
 7639SOL    HW124814   4.697   7.965  14.628
 7639SOL    HW224815   4.765   7.848  14.560
 7640SOL     OW24816   7.695   5.216   5.437
 7640SOL    HW124817   7.670   5.227   5.529
 7640SOL    HW224818   7.629   5.266   5.389
 7641SOL     OW24819  13.612  13.387   3.826
 7641SOL    HW124820  13.689  13.351   3.782
 7641SOL    HW224821  13.612  13.346   3.912
 7642SOL     OW24822   0.062   0.784  14.456
 7642SOL    HW124823   0.011   0.807  14.535
 7642SOL    HW224824   0.153   0.782  14.486
 7643SOL     OW24825   2.291   6.090   7.604
 7643SOL    HW124826   2.332   6.004   7.615
 7643SOL    HW224827   2.333   6.145   7.670
 7644SOL     OW24828   1.150   7.845  14.403
 7644SOL    HW124829   1.080   7.823  14.465
 7644SOL    HW224830   1.109   7.836  14.317
 7645SOL     OW24831   4.458   4.181  14.206
 7645SOL    HW124832   4.424   4.128  14.278
 7645SOL    HW224833   4.410   4.264  14.213
 7646SOL     OW24834  13.162   0.353   0.131
 7646SOL    HW124835  13.157   0.347   0.227
 7646SOL    HW224836  13.072   0.370   0.104
 7647SOL     OW24837  10.494   5.172  11.876
 7647SOL    HW124838  10.517   5.173  11.783
 7647SOL    HW224839  10.517   5.084  11.906
 7648SOL     OW24840  12.238  11.214  12.179
 7648SOL    HW124841  12.148  11.193  12.204
 7648SOL    HW224842  12.233  11.232  12.086
 7649SOL     OW24843  14.698  13.425   1.473
 7649SOL    HW124844  14.633  13.486   1.436
 7649SOL    HW224845  14.781  13.471   1.464
 7650SOL     OW24846   5.351  12.626   6.902
 7650SOL    HW124847   5.389  12.569   6.835
 7650SOL    HW224848   5.276  12.667   6.858
 7651SOL     OW24849   0.265  11.824  10.480
 7651SOL    HW124850   0.273  11.744  10.533
 7651SOL    HW224851   0.302  11.800  10.395
 7652SOL     OW24852   7.288   6.181  13.408
 7652SOL    HW124853   7.369   6.230  13.393
 7652SOL    HW224854   7.286   6.166  13.503
 7653SOL     OW24855  11.767   2.938   7.690
 7653SOL    HW124856  11.860   2.959   7.679
 7653SOL    HW224857  11.767   2.854   7.736
 7654SOL     OW24858  13.788  14.825   5.440
 7654SOL    HW124859  13.866  14.770   5.428
 7654SOL    HW224860  13.756  14.841   5.352
 7655SOL     OW24861  12.302   7.802   1.543
 7655SOL    HW124862  12.271   7.844   1.623
 7655SOL    HW224863  12.263   7.714   1.545
 7656SOL     OW24864   2.909   8.429   4.297
 7656SOL    HW124865   2.904   8.414   4.391
 7656SOL    HW224866   2.823   8.463   4.273
 7657SOL     OW24867   0.905   2.236   7.320
 7657SOL    HW124868   0.838   2.251   7.386
 7657SOL    HW224869   0.975   2.188   7.366
 7658SOL     OW24870  13.521   4.613  10.689
 7658SOL    HW124871  13.585   4.585  10.624
 7658SOL    HW224872  13.496   4.532  10.734
 7659SOL     OW24873  14.365   7.215   2.047
 7659SOL    HW124874  14.387   7.167   2.126
 7659SOL    HW224875  14.306   7.284   2.077
 7660SOL     OW24876  12.500   5.165   1.873
 7660SOL    HW124877  12.504   5.173   1.969
 7660SOL    HW224878  12.492   5.255   1.842
 7661SOL     OW24879   3.962  11.762  10.667
 7661SOL    HW124880   4.036  11.816  10.640
 7661SOL    HW224881   3.989  11.672  10.646
 7662SOL     OW24882  14.774  10.848  11.646
 7662SOL    HW124883  14.825  10.828  11.568
 7662SOL    HW224884  14.809  10.789  11.713
 7663SOL     OW24885   1.199   2.791   5.413
 7663SOL    HW124886   1.220   2.871   5.365
 7663SOL    HW224887   1.248   2.799   5.495
 7664SOL     OW24888   8.668   8.375   8.760
 7664SOL    HW124889   8.761   8.361   8.777
 7664SOL    HW224890   8.626   8.363   8.845
 7665SOL     OW24891   3.367  11.276   7.029
 7665SOL    HW124892   3.396  11.345   6.969
 7665SOL    HW224893   3.274  11.294   7.042
 7666SOL     OW24894   2.523   6.724   4.319
 7666SOL    HW124895   2.499   6.658   4.384
 7666SOL    HW224896   2.618   6.715   4.311
 7667SOL     OW24897   4.576   1.835  10.685
 7667SOL    HW124898   4.528   1.917  10.670
 7667SOL    HW224899   4.596   1.803  10.598
 7668SOL     OW24900   9.674   5.993   8.695
 7668SOL    HW124901   9.678   6.082   8.728
 7668SOL    HW224902   9.697   6.001   8.602
 7669SOL     OW24903   0.119   7.042  12.242
 7669SOL    HW124904   0.190   7.069  12.184
 7669SOL    HW224905   0.163   6.992  12.311
 7670SOL     OW24906   1.530   0.995   2.551
 7670SOL    HW124907   1.522   0.972   2.644
 7670SOL    HW224908   1.509   0.914   2.505
 7671SOL     OW24909   5.390   3.247   3.329
 7671SOL    HW124910   5.348   3.332   3.319
 7671SOL    HW224911   5.346   3.207   3.403
 7672SOL     OW24912  13.850   8.581   6.065
 7672SOL    HW124913  13.806   8.643   6.007
 7672SOL    HW224914  13.805   8.498   6.052
 7673SOL     OW24915   2.364  11.181   0.462
 7673SOL    HW124916   2.270  11.179   0.440
 7673SOL    HW224917   2.401  11.106   0.416
 7674SOL     OW24918   1.073  14.095   2.985
 7674SOL    HW124919   1.004  14.059   3.040
 7674SOL    HW224920   1.030  14.115   2.902
 7675SOL     OW24921  12.841   5.063   1.211
 7675SOL    HW124922  12.867   4.979   1.249
 7675SOL    HW224923  12.765   5.090   1.263
 7676SOL     OW24924   4.830  13.556  11.105
 7676SOL    HW124925   4.904  13.494  11.100
 7676SOL    HW224926   4.839  13.610  11.027
 7677SOL     OW24927  13.308   7.620  14.387
 7677SOL    HW124928  13.226   7.585  14.353
 7677SOL    HW224929  13.281   7.687  14.450
 7678SOL     OW24930   0.711   2.361   2.960
 7678SOL    HW124931   0.651   2.325   3.025
 7678SOL    HW224932   0.783   2.298   2.957
 7679SOL     OW24933   0.621   0.085   5.189
 7679SOL    HW124934   0.619   0.061   5.282
 7679SOL    HW224935   0.556   0.155   5.182
 7680SOL     OW24936  14.601   7.313   6.458
 7680SOL    HW124937  14.627   7.277   6.373
 7680SOL    HW224938  14.660   7.273   6.521
 7681SOL     OW24939  10.475  11.751   3.283
 7681SOL    HW124940  10.473  11.688   3.211
 7681SOL    HW224941  10.547  11.810   3.261
 7682SOL     OW24942   4.907  12.186   8.412
 7682SOL    HW124943   4.932  12.277   8.397
 7682SOL    HW224944   4.818  12.192   8.448
 7683SOL     OW24945   5.860   1.849   9.544
 7683SOL    HW124946   5.854   1.849   9.640
 7683SOL    HW224947   5.848   1.941   9.520
 7684SOL     OW24948   7.613  11.027  11.818
 7684SOL    HW124949   7.627  10.945  11.865
 7684SOL    HW224950   7.518  11.038  11.816
 7685SOL     OW24951   6.023  14.051   5.982
 7685SOL    HW124952   5.928  14.064   5.980
 7685SOL    HW224953   6.059  14.138   5.999
 7686SOL     OW24954  12.101   6.249   0.084
 7686SOL    HW124955  12.108   6.166   0.037
 7686SOL    HW224956  12.062   6.226   0.168
 7687SOL     OW24957   0.579   1.622   2.061
 7687SOL    HW124958   0.557   1.636   1.969
 7687SOL    HW224959   0.553   1.532   2.078
 7688SOL     OW24960   5.113   7.825   8.610
 7688SOL    HW124961   5.145   7.785   8.691
 7688SOL    HW224962   5.154   7.774   8.540
 7689SOL     OW24963   6.372   0.264   7.192
 7689SOL    HW124964   6.336   0.264   7.281
 7689SOL    HW224965   6.467   0.265   7.205
 7690SOL     OW24966  13.493   7.780  14.638
 7690SOL    HW124967  13.553   7.736  14.577
 7690SOL    HW224968  13.525   7.870  14.642
 7691SOL     OW24969  11.182  12.186   1.745
 7691SOL    HW124970  11.247  12.190   1.675
 7691SOL    HW224971  11.107  12.141   1.706
 7692SOL     OW24972   2.782  11.430  10.597
 7692SOL    HW124973   2.763  11.340  10.571
 7692SOL    HW224974   2.859  11.423  10.654
 7693SOL     OW24975   2.174   1.437   8.709
 7693SOL    HW124976   2.239   1.475   8.769
 7693SOL    HW224977   2.099   1.497   8.715
 7694SOL     OW24978   3.929   4.153  10.090
 7694SOL    HW124979   4.008   4.207  10.099
 7694SOL    HW224980   3.870   4.207  10.037
 7695SOL     OW24981   7.357  13.783   3.292
 7695SOL    HW124982   7.301  13.778   3.369
 7695SOL    HW224983   7.439  13.821   3.323
 7696SOL     OW24984  14.596  14.803   7.807
 7696SOL    HW124985  14.631  14.862   7.740
 7696SOL    HW224986  14.651  14.818   7.883
 7697SOL     OW24987   2.887   9.737   4.169
 7697SOL    HW124988   2.899   9.647   4.198
 7697SOL    HW224989   2.965   9.756   4.116
 7698SOL     OW24990   5.661  10.764  10.607
 7698SOL    HW124991   5.571  10.766  10.640
 7698SOL    HW224992   5.662  10.828  10.536
 7699SOL     OW24993   9.323   5.738  14.644
 7699SOL    HW124994   9.392   5.699  14.698
 7699SOL    HW224995   9.352   5.725  14.554
 7700SOL     OW24996   6.331  13.435   2.301
 7700SOL    HW124997   6.270  13.368   2.332
 7700SOL    HW224998   6.407  13.387   2.269
 7701SOL     OW24999  10.435   1.559   3.447
 7701SOL    HW125000  10.525   1.590   3.437
 7701SOL    HW225001  10.381   1.637   3.435
 7702SOL     OW25002   9.859  12.833   2.322
 7702SOL    HW125003   9.785  12.822   2.263
 7702SOL    HW225004   9.862  12.751   2.372
 7703SOL     OW25005   1.431   2.910  11.824
 7703SOL    HW125006   1.406   2.905  11.916
 7703SOL    HW225007   1.526   2.907  11.825
 7704SOL     OW25008   5.675   9.064   6.890
 7704SOL    HW125009   5.623   9.067   6.810
 7704SOL    HW225010   5.650   8.981   6.932
 7705SOL     OW25011   6.554  11.728   6.443
 7705SOL    HW125012   6.462  11.751   6.454
 7705SOL    HW225013   6.552  11.638   6.412
 7706SOL     OW25014  12.332   2.753   4.036
 7706SOL    HW125015  12.280   2.826   4.070
 7706SOL    HW225016  12.292   2.675   4.075
 7707SOL     OW25017   9.043  13.875  13.360
 7707SOL    HW125018   8.977  13.942  13.341
 7707SOL    HW225019   8.993  13.796  13.378
 7708SOL     OW25020   4.503  13.449  12.825
 7708SOL    HW125021   4.499  13.528  12.878
 7708SOL    HW225022   4.591  13.449  12.787
 7709SOL     OW25023   4.169   6.350  14.808
 7709SOL    HW125024   4.187   6.390  14.723
 7709SOL    HW225025   4.238   6.384  14.865
 7710SOL     OW25026   3.154  14.007  12.048
 7710SOL    HW125027   3.202  13.961  12.117
 7710SOL    HW225028   3.198  14.092  12.042
 7711SOL     OW25029  14.667   7.781   4.844
 7711SOL    HW125030  14.696   7.700   4.887
 7711SOL    HW225031  14.597   7.753   4.785
 7712SOL     OW25032   3.887  11.212   2.083
 7712SOL    HW125033   3.898  11.259   2.000
 7712SOL    HW225034   3.964  11.155   2.087
 7713SOL     OW25035   8.814  10.599   9.012
 7713SOL    HW125036   8.836  10.507   8.995
 7713SOL    HW225037   8.899  10.640   9.030
 7714SOL     OW25038  13.494  10.747   1.219
 7714SOL    HW125039  13.542  10.817   1.262
 7714SOL    HW225040  13.489  10.677   1.284
 7715SOL     OW25041   0.555   7.209  11.394
 7715SOL    HW125042   0.474   7.158  11.395
 7715SOL    HW225043   0.543   7.273  11.464
 7716SOL     OW25044   8.749   4.305  12.556
 7716SOL    HW125045   8.689   4.239  12.592
 7716SOL    HW225046   8.715   4.322  12.468
 7717SOL     OW25047   8.730   5.871  14.427
 7717SOL    HW125048   8.676   5.888  14.504
 7717SOL    HW225049   8.814   5.914  14.447
 7718SOL     OW25050   3.915   5.155   2.798
 7718SOL    HW125051   3.838   5.100   2.805
 7718SOL    HW225052   3.898   5.228   2.859
 7719SOL     OW25053   3.117   0.833   9.186
 7719SOL    HW125054   3.158   0.758   9.229
 7719SOL    HW225055   3.031   0.840   9.228
 7720SOL     OW25056   2.222   0.794   2.809
 7720SOL    HW125057   2.240   0.888   2.812
 7720SOL    HW225058   2.292   0.758   2.754
 7721SOL     OW25059  13.515   8.911   5.316
 7721SOL    HW125060  13.588   8.973   5.324
 7721SOL    HW225061  13.548   8.831   5.357
 7722SOL     OW25062  12.108  10.714   3.413
 7722SOL    HW125063  12.148  10.653   3.351
 7722SOL    HW225064  12.026  10.672   3.438
 7723SOL     OW25065  14.233  10.262  10.888
 7723SOL    HW125066  14.146  10.293  10.914
 7723SOL    HW225067  14.261  10.204  10.959
 7724SOL     OW25068  14.308   7.109   5.844
 7724SOL    HW125069  14.352   7.103   5.929
 7724SOL    HW225070  14.240   7.041   5.847
 7725SOL     OW25071   2.450   9.699   0.995
 7725SOL    HW125072   2.527   9.721   0.943
 7725SOL    HW225073   2.421   9.782   1.033
 7726SOL     OW25074   6.526  12.643   9.697
 7726SOL    HW125075   6.513  12.651   9.602
 7726SOL    HW225076   6.452  12.688   9.735
 7727SOL     OW25077   3.126   7.356   7.536
 7727SOL    HW125078   3.154   7.336   7.625
 7727SOL    HW225079   3.070   7.282   7.511
 7728SOL     OW25080   6.456   0.237  11.825
 7728SOL    HW125081   6.495   0.285  11.898
 7728SOL    HW225082   6.413   0.305  11.773
 7729SOL     OW25083  11.141   2.924   0.157
 7729SOL    HW125084  11.117   2.977   0.080
 7729SOL    HW225085  11.065   2.929   0.214
 7730SOL     OW25086  14.361  14.787  13.305
 7730SOL    HW125087  14.312  14.776  13.223
 7730SOL    HW225088  14.295  14.808  13.371
 7731SOL     OW25089  11.438   4.697  14.693
 7731SOL    HW125090  11.359   4.644  14.697
 7731SOL    HW225091  11.426   4.762  14.763
 7732SOL     OW25092  11.790   2.900   5.495
 7732SOL    HW125093  11.847   2.834   5.535
 7732SOL    HW225094  11.842   2.936   5.423
 7733SOL     OW25095   9.933   4.280  12.239
 7733SOL    HW125096   9.860   4.254  12.295
 7733SOL    HW225097   9.948   4.372  12.260
 7734SOL     OW25098  13.039   3.498   8.033
 7734SOL    HW125099  13.063   3.560   8.102
 7734SOL    HW225100  13.078   3.534   7.953
 7735SOL     OW25101   5.172   6.810  13.843
 7735SOL    HW125102   5.252   6.780  13.887
 7735SOL    HW225103   5.104   6.749  13.874
 7736SOL     OW25104  10.112   2.983  13.769
 7736SOL    HW125105  10.099   2.890  13.753
 7736SOL    HW225106  10.066   3.027  13.698
 7737SOL     OW25107   2.066  12.908   3.455
 7737SOL    HW125108   1.991  12.964   3.476
 7737SOL    HW225109   2.055  12.831   3.511
 7738SOL     OW25110  11.817  10.826   9.122
 7738SOL    HW125111  11.890  10.875   9.161
 7738SOL    HW225112  11.771  10.891   9.069
 7739SOL     OW25113   2.349  13.343   5.380
 7739SOL    HW125114   2.301  13.351   5.462
 7739SOL    HW225115   2.441  13.337   5.406
 7740SOL     OW25116   9.584   7.544   8.512
 7740SOL    HW125117   9.586   7.573   8.420
 7740SOL    HW225118   9.666   7.577   8.549
 7741SOL     OW25119   6.226   0.011   8.154
 7741SOL    HW125120   6.220   0.069   8.079
 7741SOL    HW225121   6.308  14.845   8.140
 7742SOL     OW25122  13.789   8.819   8.124
 7742SOL    HW125123  13.737   8.899   8.117
 7742SOL    HW225124  13.855   8.827   8.055
 7743SOL     OW25125   4.773   5.126   7.699
 7743SOL    HW125126   4.861   5.087   7.698
 7743SOL    HW225127   4.747   5.126   7.791
 7744SOL     OW25128  11.957   2.568   7.979
 7744SOL    HW125129  11.901   2.522   8.042
 7744SOL    HW225130  11.896   2.607   7.917
 7745SOL     OW25131   8.605   7.454   6.203
 7745SOL    HW125132   8.611   7.543   6.167
 7745SOL    HW225133   8.613   7.466   6.297
 7746SOL     OW25134   1.354   9.663   2.735
 7746SOL    HW125135   1.426   9.719   2.704
 7746SOL    HW225136   1.348   9.594   2.669
 7747SOL     OW25137   3.059   6.437   8.916
 7747SOL    HW125138   3.135   6.435   8.975
 7747SOL    HW225139   3.089   6.389   8.839
 7748SOL     OW25140   4.305  11.114   3.007
 7748SOL    HW125141   4.340  11.190   2.962
 7748SOL    HW225142   4.322  11.131   3.100
 7749SOL     OW25143   0.047  13.964   7.556
 7749SOL    HW125144  14.838  13.980   7.578
 7749SOL    HW225145   0.072  13.889   7.610
 7750SOL     OW25146   1.300  13.267  11.961
 7750SOL    HW125147   1.293  13.359  11.984
 7750SOL    HW225148   1.243  13.222  12.023
 7751SOL     OW25149   2.424  10.197   1.163
 7751SOL    HW125150   2.374  10.234   1.236
 7751SOL    HW225151   2.405  10.255   1.089
 7752SOL     OW25152   8.753   1.706   7.291
 7752SOL    HW125153   8.693   1.635   7.270
 7752SOL    HW225154   8.760   1.705   7.386
 7753SOL     OW25155   4.437   4.680   5.341
 7753SOL    HW125156   4.381   4.674   5.263
 7753SOL    HW225157   4.524   4.696   5.306
 7754SOL     OW25158  13.922   2.536   1.028
 7754SOL    HW125159  13.888   2.561   0.943
 7754SOL    HW225160  13.876   2.455   1.050
 7755SOL     OW25161   1.655  11.640   6.968
 7755SOL    HW125162   1.598  11.596   6.904
 7755SOL    HW225163   1.610  11.629   7.052
 7756SOL     OW25164  11.120  14.122   4.183
 7756SOL    HW125165  11.069  14.183   4.131
 7756SOL    HW225166  11.079  14.123   4.270
 7757SOL     OW25167  12.398   3.282   9.298
 7757SOL    HW125168  12.490   3.301   9.280
 7757SOL    HW225169  12.374   3.345   9.366
 7758SOL     OW25170   7.043   4.292   4.790
 7758SOL    HW125171   7.093   4.261   4.715
 7758SOL    HW225172   6.989   4.363   4.756
 7759SOL     OW25173  14.577   7.714   5.504
 7759SOL    HW125174  14.609   7.719   5.594
 7759SOL    HW225175  14.502   7.774   5.502
 7760SOL     OW25176   9.299  10.816   9.328
 7760SOL    HW125177   9.271  10.874   9.399
 7760SOL    HW225178   9.296  10.729   9.367
 7761SOL     OW25179  11.049  10.197  12.987
 7761SOL    HW125180  11.135  10.200  13.029
 7761SOL    HW225181  11.023  10.105  12.991
 7762SOL     OW25182  10.511   0.224   3.634
 7762SOL    HW125183  10.572   0.296   3.650
 7762SOL    HW225184  10.448   0.259   3.571
 7763SOL     OW25185  11.842  14.723  14.658
 7763SOL    HW125186  11.907  14.723  14.587
 7763SOL    HW225187  11.887  14.763  14.732
 7764SOL     OW25188   5.957   2.632  10.225
 7764SOL    HW125189   5.979   2.573  10.297
 7764SOL    HW225190   5.862   2.641  10.229
 7765SOL     OW25191  12.089   2.092   0.227
 7765SOL    HW125192  12.044   2.143   0.160
 7765SOL    HW225193  12.105   2.154   0.298
 7766SOL     OW25194   2.410   6.186   6.870
 7766SOL    HW125195   2.424   6.213   6.961
 7766SOL    HW225196   2.485   6.224   6.823
 7767SOL     OW25197   3.548  11.232   6.439
 7767SOL    HW125198   3.505  11.317   6.447
 7767SOL    HW225199   3.519  11.183   6.516
 7768SOL     OW25200   9.215  11.798   9.422
 7768SOL    HW125201   9.149  11.838   9.365
 7768SOL    HW225202   9.178  11.805   9.510
 7769SOL     OW25203   3.949   3.465   5.111
 7769SOL    HW125204   4.037   3.442   5.143
 7769SOL    HW225205   3.910   3.381   5.087
 7770SOL     OW25206  12.457  11.389   8.885
 7770SOL    HW125207  12.448  11.480   8.855
 7770SOL    HW225208  12.448  11.395   8.980
 7771SOL     OW25209  14.147   1.325  10.739
 7771SOL    HW125210  14.158   1.247  10.685
 7771SOL    HW225211  14.059   1.318  10.775
 7772SOL     OW25212   6.621  12.677   3.634
 7772SOL    HW125213   6.540  12.726   3.620
 7772SOL    HW225214   6.648  12.651   3.546
 7773SOL     OW25215  12.853   9.874   9.529
 7773SOL    HW125216  12.938   9.895   9.566
 7773SOL    HW225217  12.866   9.788   9.488
 7774SOL     OW25218  12.831  11.771  10.613
 7774SOL    HW125219  12.741  11.763  10.580
 7774SOL    HW225220  12.855  11.863  10.597
 7775SOL     OW25221  10.976   9.260   9.945
 7775SOL    HW125222  10.956   9.318  10.018
 7775SOL    HW225223  10.903   9.271   9.884
 7776SOL     OW25224   7.114   2.865   0.356
 7776SOL    HW125225   7.055   2.831   0.422
 7776SOL    HW225226   7.202   2.842   0.387
 7777SOL     OW25227   4.580  10.306  12.148
 7777SOL    HW125228   4.509  10.261  12.192
 7777SOL    HW225229   4.575  10.277  12.057
 7778SOL     OW25230   8.484  14.487   1.973
 7778SOL    HW125231   8.489  14.500   2.068
 7778SOL    HW225232   8.486  14.392   1.961
 7779SOL     OW25233  10.505   2.944  12.662
 7779SOL    HW125234  10.498   2.957  12.757
 7779SOL    HW225235  10.449   2.868  12.645
 7780SOL     OW25236   0.640   0.294  10.426
 7780SOL    HW125237   0.586   0.236  10.479
 7780SOL    HW225238   0.703   0.235  10.382
 7781SOL     OW25239   0.568   6.251   0.940
 7781SOL    HW125240   0.550   6.193   0.866
 7781SOL    HW225241   0.527   6.207   1.015
 7782SOL     OW25242   7.412   3.002  14.023
 7782SOL    HW125243   7.398   2.930  14.084
 7782SOL    HW225244   7.352   2.983  13.950
 7783SOL     OW25245  11.017  13.922  11.877
 7783SOL    HW125246  10.926  13.937  11.904
 7783SOL    HW225247  11.036  13.996  11.818
 7784SOL     OW25248   8.886   1.795   6.411
 7784SOL    HW125249   8.901   1.767   6.321
 7784SOL    HW225250   8.902   1.716   6.463
 7785SOL     OW25251  10.237  13.529   9.581
 7785SOL    HW125252  10.332  13.522   9.594
 7785SOL    HW225253  10.207  13.577   9.658
 7786SOL     OW25254   4.571  11.847   3.045
 7786SOL    HW125255   4.645  11.888   2.999
 7786SOL    HW225256   4.537  11.783   2.984
 7787SOL     OW25257   6.241   0.172   7.889
 7787SOL    HW125258   6.149   0.199   7.889
 7787SOL    HW225259   6.289   0.253   7.872
 7788SOL     OW25260  14.473   8.865   2.639
 7788SOL    HW125261  14.455   8.944   2.690
 7788SOL    HW225262  14.538   8.893   2.574
 7789SOL     OW25263   0.843   2.832   4.639
 7789SOL    HW125264   0.795   2.750   4.641
 7789SOL    HW225265   0.933   2.807   4.620
 7790SOL     OW25266  10.687   7.402   6.173
 7790SOL    HW125267  10.665   7.490   6.205
 7790SOL    HW225268  10.694   7.412   6.078
 7791SOL     OW25269   0.330  10.738  10.338
 7791SOL    HW125270   0.407  10.776  10.295
 7791SOL    HW225271   0.259  10.753  10.276
 7792SOL     OW25272   1.406   4.806  14.571
 7792SOL    HW125273   1.376   4.716  14.583
 7792SOL    HW225274   1.329   4.854  14.542
 7793SOL     OW25275   2.756   1.811   0.448
 7793SOL    HW125276   2.755   1.724   0.488
 7793SOL    HW225277   2.846   1.822   0.418
 7794SOL     OW25278   1.946  12.625   4.265
 7794SOL    HW125279   1.915  12.711   4.239
 7794SOL    HW225280   2.029  12.614   4.217
 7795SOL     OW25281   8.195   1.940   4.803
 7795SOL    HW125282   8.193   1.851   4.839
 7795SOL    HW225283   8.256   1.935   4.729
 7796SOL     OW25284  12.327  11.998   3.717
 7796SOL    HW125285  12.278  11.986   3.636
 7796SOL    HW225286  12.304  11.922   3.771
 7797SOL     OW25287   6.761   0.188   0.191
 7797SOL    HW125288   6.853   0.214   0.196
 7797SOL    HW225289   6.759   0.097   0.218
 7798SOL     OW25290   1.822   3.079   0.891
 7798SOL    HW125291   1.881   3.024   0.840
 7798SOL    HW225292   1.789   3.021   0.960
 7799SOL     OW25293   7.612   3.347   9.144
 7799SOL    HW125294   7.529   3.387   9.118
 7799SOL    HW225295   7.594   3.309   9.230
 7800SOL     OW25296   1.365  10.672   1.583
 7800SOL    HW125297   1.365  10.598   1.522
 7800SOL    HW225298   1.457  10.692   1.596
 7801SOL     OW25299   8.362   3.684   3.800
 7801SOL    HW125300   8.363   3.618   3.869
 7801SOL    HW225301   8.271   3.715   3.798
 7802SOL     OW25302  10.113   1.808  11.191
 7802SOL    HW125303  10.035   1.788  11.243
 7802SOL    HW225304  10.137   1.725  11.150
 7803SOL     OW25305   4.726  11.324  10.740
 7803SOL    HW125306   4.707  11.264  10.813
 7803SOL    HW225307   4.676  11.288  10.666
 7804SOL     OW25308   5.528  10.976   1.740
 7804SOL    HW125309   5.589  10.942   1.805
 7804SOL    HW225310   5.581  10.989   1.661
 7805SOL     OW25311  10.433   7.729   9.519
 7805SOL    HW125312  10.444   7.640   9.554
 7805SOL    HW225313  10.465   7.786   9.589
 7806SOL     OW25314  12.658   3.096  12.669
 7806SOL    HW125315  12.594   3.025  12.680
 7806SOL    HW225316  12.656   3.142  12.753
 7807SOL     OW25317  12.447   3.144   0.833
 7807SOL    HW125318  12.526   3.189   0.865
 7807SOL    HW225319  12.425   3.083   0.903
 7808SOL     OW25320   3.801   3.529   2.316
 7808SOL    HW125321   3.830   3.487   2.235
 7808SOL    HW225322   3.709   3.548   2.302
 7809SOL     OW25323  13.857   2.191  12.522
 7809SOL    HW125324  13.795   2.157  12.457
 7809SOL    HW225325  13.919   2.119  12.535
 7810SOL     OW25326   6.548  10.849  10.260
 7810SOL    HW125327   6.474  10.910  10.251
 7810SOL    HW225328   6.549  10.827  10.353
 7811SOL     OW25329   4.830  12.711   5.018
 7811SOL    HW125330   4.858  12.666   4.938
 7811SOL    HW225331   4.796  12.641   5.074
 7812SOL     OW25332  11.009   3.444   6.383
 7812SOL    HW125333  10.971   3.480   6.464
 7812SOL    HW225334  10.936   3.400   6.341
 7813SOL     OW25335  12.345   1.663   7.042
 7813SOL    HW125336  12.370   1.571   7.045
 7813SOL    HW225337  12.314   1.682   7.131
 7814SOL     OW25338   1.922  11.781   4.747
 7814SOL    HW125339   1.952  11.833   4.822
 7814SOL    HW225340   1.993  11.789   4.683
 7815SOL     OW25341  10.114  13.530   4.154
 7815SOL    HW125342  10.086  13.439   4.148
 7815SOL    HW225343  10.138  13.543   4.246
 7816SOL     OW25344   7.325   7.103   0.155
 7816SOL    HW125345   7.343   7.195   0.173
 7816SOL    HW225346   7.231   7.100   0.140
 7817SOL     OW25347   8.418   3.385   4.490
 7817SOL    HW125348   8.355   3.456   4.477
 7817SOL    HW225349   8.457   3.403   4.576
 7818SOL     OW25350   5.663  14.016   8.528
 7818SOL    HW125351   5.701  13.940   8.482
 7818SOL    HW225352   5.660  14.085   8.461
 7819SOL     OW25353  13.359   0.153   7.606
 7819SOL    HW125354  13.345   0.074   7.554
 7819SOL    HW225355  13.276   0.201   7.599
 7820SOL     OW25356  12.678   4.794  11.216
 7820SOL    HW125357  12.658   4.805  11.123
 7820SOL    HW225358  12.771   4.771  11.218
 7821SOL     OW25359  11.054  14.234   4.987
 7821SOL    HW125360  11.149  14.245   4.986
 7821SOL    HW225361  11.025  14.285   5.063
 7822SOL     OW25362  11.945   8.485   3.989
 7822SOL    HW125363  12.021   8.543   3.983
 7822SOL    HW225364  11.886   8.517   3.921
 7823SOL     OW25365   4.885   1.386   7.860
 7823SOL    HW125366   4.907   1.408   7.950
 7823SOL    HW225367   4.835   1.462   7.828
 7824SOL     OW25368  11.123  11.699   6.538
 7824SOL    HW125369  11.099  11.763   6.471
 7824SOL    HW225370  11.213  11.675   6.518
 7825SOL     OW25371  13.704  12.751   4.214
 7825SOL    HW125372  13.706  12.696   4.293
 7825SOL    HW225373  13.610  12.765   4.198
 7826SOL     OW25374   1.371   0.595  12.290
 7826SOL    HW125375   1.411   0.546  12.363
 7826SOL    HW225376   1.295   0.638  12.329
 7827SOL     OW25377   0.556   2.246  13.967
 7827SOL    HW125378   0.547   2.256  13.872
 7827SOL    HW225379   0.641   2.284  13.987
 7828SOL     OW25380   9.428   5.759   2.612
 7828SOL    HW125381   9.466   5.825   2.554
 7828SOL    HW225382   9.487   5.757   2.688
 7829SOL     OW25383   3.619   6.999   9.968
 7829SOL    HW125384   3.619   6.965   9.879
 7829SOL    HW225385   3.700   7.050   9.974
 7830SOL     OW25386  14.123  12.963   9.209
 7830SOL    HW125387  14.195  12.931   9.155
 7830SOL    HW225388  14.165  13.014   9.278
 7831SOL     OW25389   5.018  14.789   2.046
 7831SOL    HW125390   5.075  14.852   2.089
 7831SOL    HW225391   4.966  14.750   2.116
 7832SOL     OW25392   9.850   3.257   2.939
 7832SOL    HW125393   9.773   3.313   2.951
 7832SOL    HW225394   9.919   3.301   2.989
 7833SOL     OW25395   9.187   6.343   9.955
 7833SOL    HW125396   9.187   6.277  10.024
 7833SOL    HW225397   9.230   6.419   9.994
 7834SOL     OW25398  14.082   1.787   7.220
 7834SOL    HW125399  14.174   1.774   7.196
 7834SOL    HW225400  14.034   1.722   7.167
 7835SOL     OW25401   2.857   0.530  14.348
 7835SOL    HW125402   2.887   0.593  14.282
 7835SOL    HW225403   2.770   0.560  14.373
 7836SOL     OW25404   7.807  13.735   2.789
 7836SOL    HW125405   7.883  13.685   2.819
 7836SOL    HW225406   7.804  13.811   2.847
 7837SOL     OW25407   6.883  12.743   1.250
 7837SOL    HW125408   6.878  12.698   1.166
 7837SOL    HW225409   6.934  12.822   1.232
 7838SOL     OW25410   3.119   1.754   7.729
 7838SOL    HW125411   3.137   1.774   7.638
 7838SOL    HW225412   3.145   1.833   7.777
 7839SOL     OW25413  14.479   0.691   8.132
 7839SOL    HW125414  14.521   0.687   8.219
 7839SOL    HW225415  14.432   0.774   8.132
 7840SOL     OW25416  13.729   7.931   1.027
 7840SOL    HW125417  13.765   7.868   1.088
 7840SOL    HW225418  13.640   7.900   1.009
 7841SOL     OW25419  12.398   3.244   6.216
 7841SOL    HW125420  12.374   3.303   6.287
 7841SOL    HW225421  12.428   3.164   6.260
 7842SOL     OW25422   5.856  10.395   9.512
 7842SOL    HW125423   5.834  10.380   9.420
 7842SOL    HW225424   5.916  10.469   9.510
 7843SOL     OW25425  13.038   4.629   3.035
 7843SOL    HW125426  13.133   4.640   3.026
 7843SOL    HW225427  13.007   4.713   3.068
 7844SOL     OW25428   8.387   1.680   2.774
 7844SOL    HW125429   8.382   1.730   2.856
 7844SOL    HW225430   8.410   1.591   2.802
 7845SOL     OW25431  10.274   2.670   6.823
 7845SOL    HW125432  10.366   2.656   6.801
 7845SOL    HW225433  10.276   2.719   6.905
 7846SOL     OW25434   5.314   1.859   8.887
 7846SOL    HW125435   5.392   1.880   8.836
 7846SOL    HW225436   5.328   1.903   8.971
 7847SOL     OW25437   4.688   0.217   4.129
 7847SOL    HW125438   4.743   0.286   4.166
 7847SOL    HW225439   4.750   0.147   4.107
 7848SOL     OW25440  14.769  11.011   7.369
 7848SOL    HW125441  14.700  10.982   7.309
 7848SOL    HW225442  14.841  11.037   7.311
 7849SOL     OW25443   4.506   6.484  11.699
 7849SOL    HW125444   4.550   6.554  11.651
 7849SOL    HW225445   4.415   6.514  11.708
 7850SOL     OW25446   0.101   9.815  12.042
 7850SOL    HW125447   0.083   9.878  11.972
 7850SOL    HW225448   0.098   9.867  12.122
 7851SOL     OW25449   0.310   0.163   3.993
 7851SOL    HW125450   0.318   0.255   3.968
 7851SOL    HW225451   0.344   0.160   4.082
 7852SOL     OW25452   6.481   7.253  14.743
 7852SOL    HW125453   6.542   7.190  14.781
 7852SOL    HW225454   6.464   7.221  14.654
 7853SOL     OW25455  11.585   4.186  10.683
 7853SOL    HW125456  11.496   4.175  10.715
 7853SOL    HW225457  11.604   4.280  10.696
 7854SOL     OW25458   0.840   7.180  12.716
 7854SOL    HW125459   0.861   7.209  12.805
 7854SOL    HW225460   0.763   7.124  12.726
 7855SOL     OW25461  13.603   4.808  11.019
 7855SOL    HW125462  13.546   4.837  11.090
 7855SOL    HW225463  13.593   4.713  11.017
 7856SOL     OW25464  12.490  10.994   2.751
 7856SOL    HW125465  12.473  11.009   2.658
 7856SOL    HW225466  12.549  10.918   2.752
 7857SOL     OW25467  11.260   4.935   7.586
 7857SOL    HW125468  11.270   5.022   7.546
 7857SOL    HW225469  11.304   4.876   7.525
 7858SOL     OW25470   8.448  13.078  10.794
 7858SOL    HW125471   8.364  13.076  10.840
 7858SOL    HW225472   8.509  13.118  10.856
 7859SOL     OW25473  14.573   9.487  10.456
 7859SOL    HW125474  14.566   9.579  10.478
 7859SOL    HW225475  14.517   9.476  10.380
 7860SOL     OW25476  11.820  13.660   3.449
 7860SOL    HW125477  11.783  13.576   3.476
 7860SOL    HW225478  11.903  13.637   3.408
 7861SOL     OW25479   3.493  11.265   5.623
 7861SOL    HW125480   3.487  11.304   5.536
 7861SOL    HW225481   3.490  11.339   5.683
 7862SOL     OW25482   3.453  11.122   5.171
 7862SOL    HW125483   3.404  11.102   5.250
 7862SOL    HW225484   3.441  11.046   5.115
 7863SOL     OW25485   7.111  12.202   0.198
 7863SOL    HW125486   7.061  12.143   0.254
 7863SOL    HW225487   7.068  12.287   0.210
 7864SOL     OW25488   1.883  10.352   8.295
 7864SOL    HW125489   1.970  10.328   8.327
 7864SOL    HW225490   1.823  10.320   8.362
 7865SOL     OW25491  10.561  11.050  10.806
 7865SOL    HW125492  10.593  11.133  10.842
 7865SOL    HW225493  10.466  11.061  10.803
 7866SOL     OW25494  11.528   0.818   5.625
 7866SOL    HW125495  11.446   0.827   5.674
 7866SOL    HW225496  11.550   0.908   5.600
 7867SOL     OW25497   9.163   2.251  11.258
 7867SOL    HW125498   9.232   2.289  11.203
 7867SOL    HW225499   9.202   2.173  11.295
 7868SOL     OW25500   8.893  14.587   3.719
 7868SOL    HW125501   8.951  14.565   3.647
 7868SOL    HW225502   8.901  14.514   3.781
 7869SOL     OW25503  12.429   9.717   8.937
 7869SOL    HW125504  12.397   9.708   9.027
 7869SOL    HW225505  12.498   9.651   8.929
 7870SOL     OW25506   2.259  13.954   4.536
 7870SOL    HW125507   2.167  13.934   4.518
 7870SOL    HW225508   2.269  13.934   4.629
 7871SOL     OW25509   6.471   6.577  13.775
 7871SOL    HW125510   6.464   6.606  13.684
 7871SOL    HW225511   6.520   6.495  13.770
 7872SOL     OW25512   3.009  11.465   4.723
 7872SOL    HW125513   3.048  11.491   4.639
 7872SOL    HW225514   3.006  11.545   4.774
 7873SOL     OW25515   3.393   9.526   4.424
 7873SOL    HW125516   3.479   9.489   4.402
 7873SOL    HW225517   3.376   9.493   4.513
 7874SOL     OW25518   7.247   1.863   0.752
 7874SOL    HW125519   7.309   1.857   0.825
 7874SOL    HW225520   7.218   1.773   0.738
 7875SOL     OW25521  12.743  11.006   1.325
 7875SOL    HW125522  12.789  11.088   1.345
 7875SOL    HW225523  12.721  10.970   1.411
 7876SOL     OW25524  10.900   2.943  11.434
 7876SOL    HW125525  10.862   2.956  11.521
 7876SOL    HW225526  10.975   2.886  11.448
 7877SOL     OW25527   8.300   7.805   2.633
 7877SOL    HW125528   8.228   7.863   2.656
 7877SOL    HW225529   8.259   7.719   2.622
 7878SOL     OW25530  11.542  11.733   5.623
 7878SOL    HW125531  11.602  11.692   5.560
 7878SOL    HW225532  11.508  11.810   5.578
 7879SOL     OW25533   7.752   5.673   5.911
 7879SOL    HW125534   7.706   5.594   5.940
 7879SOL    HW225535   7.845   5.652   5.924
 7880SOL     OW25536  10.708   8.455  11.657
 7880SOL    HW125537  10.639   8.507  11.617
 7880SOL    HW225538  10.743   8.402  11.586
 7881SOL     OW25539   5.676  13.882   7.934
 7881SOL    HW125540   5.723  13.858   7.853
 7881SOL    HW225541   5.666  13.977   7.928
 7882SOL     OW25542   0.365  12.573  10.749
 7882SOL    HW125543   0.328  12.566  10.837
 7882SOL    HW225544   0.354  12.486  10.712
 7883SOL     OW25545  10.621   2.506   4.356
 7883SOL    HW125546  10.531   2.538   4.366
 7883SOL    HW225547  10.676   2.579   4.384
 7884SOL     OW25548   8.523  13.163   8.832
 7884SOL    HW125549   8.539  13.254   8.808
 7884SOL    HW225550   8.449  13.137   8.776
 7885SOL     OW25551   9.616   0.062   7.264
 7885SOL    HW125552   9.651   0.039   7.350
 7885SOL    HW225553   9.521   0.061   7.276
 7886SOL     OW25554   8.236   9.092   3.982
 7886SOL    HW125555   8.186   9.174   3.986
 7886SOL    HW225556   8.325   9.118   4.003
 7887SOL     OW25557   4.563  11.404   0.019
 7887SOL    HW125558   4.524  11.482  14.862
 7887SOL    HW225559   4.533  11.332  14.846
 7888SOL     OW25560  12.586   0.010  13.345
 7888SOL    HW125561  12.506   0.057  13.320
 7888SOL    HW225562  12.577  14.877  13.439
 7889SOL     OW25563  10.900   3.952   6.563
 7889SOL    HW125564  10.857   4.037   6.569
 7889SOL    HW225565  10.841   3.898   6.510
 7890SOL     OW25566  13.156   8.197   3.746
 7890SOL    HW125567  13.159   8.180   3.652
 7890SOL    HW225568  13.182   8.114   3.786
 7891SOL     OW25569   9.388  13.116  14.007
 7891SOL    HW125570   9.303  13.100  14.047
 7891SOL    HW225571   9.391  13.211  13.996
 7892SOL     OW25572  12.636  14.108   1.301
 7892SOL    HW125573  12.677  14.041   1.245
 7892SOL    HW225574  12.545  14.080   1.310
 7893SOL     OW25575  13.262   8.124  14.533
 7893SOL    HW125576  13.257   8.179  14.611
 7893SOL    HW225577  13.356   8.121  14.512
 7894SOL     OW25578   0.572   9.896  10.244
 7894SOL    HW125579   0.494   9.875  10.296
 7894SOL    HW225580   0.598   9.983  10.273
 7895SOL     OW25581   4.205   3.746   4.676
 7895SOL    HW125582   4.181   3.750   4.768
 7895SOL    HW225583   4.170   3.826   4.638
 7896SOL     OW25584  12.277   7.326   0.711
 7896SOL    HW125585  12.323   7.249   0.679
 7896SOL    HW225586  12.344   7.395   0.710
 7897SOL     OW25587   5.792   4.789   3.851
 7897SOL    HW125588   5.789   4.839   3.932
 7897SOL    HW225589   5.874   4.740   3.856
 7898SOL     OW25590  14.226  12.408  12.179
 7898SOL    HW125591  14.277  12.343  12.227
 7898SOL    HW225592  14.255  12.400  12.088
 7899SOL     OW25593  11.414   1.414   3.086
 7899SOL    HW125594  11.472   1.465   3.030
 7899SOL    HW225595  11.369   1.354   3.026
 7900SOL     OW25596   3.959   6.803   0.837
 7900SOL    HW125597   4.007   6.866   0.784
 7900SOL    HW225598   3.871   6.801   0.799
 7901SOL     OW25599   3.401  12.240   9.087
 7901SOL    HW125600   3.449  12.163   9.056
 7901SOL    HW225601   3.458  12.314   9.065
 7902SOL     OW25602   0.318   1.741   9.342
 7902SOL    HW125603   0.323   1.678   9.270
 7902SOL    HW225604   0.309   1.826   9.299
 7903SOL     OW25605   7.425   2.604   0.632
 7903SOL    HW125606   7.396   2.601   0.723
 7903SOL    HW225607   7.347   2.582   0.581
 7904SOL     OW25608   9.644  11.677   3.624
 7904SOL    HW125609   9.721  11.693   3.679
 7904SOL    HW225610   9.581  11.634   3.683
 7905SOL     OW25611  11.441   0.432  10.162
 7905SOL    HW125612  11.370   0.433  10.097
 7905SOL    HW225613  11.521   0.425  10.111
 7906SOL     OW25614   3.450  14.527   9.926
 7906SOL    HW125615   3.506  14.558   9.997
 7906SOL    HW225616   3.504  14.463   9.879
 7907SOL     OW25617  14.697  14.756   9.034
 7907SOL    HW125618  14.728  14.764   9.124
 7907SOL    HW225619  14.692  14.661   9.018
 7908SOL     OW25620   6.302  14.569   4.502
 7908SOL    HW125621   6.380  14.540   4.455
 7908SOL    HW225622   6.242  14.597   4.433
 7909SOL     OW25623   2.362  10.389   5.308
 7909SOL    HW125624   2.423  10.316   5.313
 7909SOL    HW225625   2.288  10.355   5.259
 7910SOL     OW25626  13.985  10.390  14.141
 7910SOL    HW125627  13.906  10.349  14.176
 7910SOL    HW225628  13.956  10.431  14.059
 7911SOL     OW25629   6.402   5.787   4.545
 7911SOL    HW125630   6.383   5.859   4.604
 7911SOL    HW225631   6.496   5.794   4.528
 7912SOL     OW25632   5.993  14.331  14.400
 7912SOL    HW125633   5.994  14.267  14.328
 7912SOL    HW225634   6.058  14.298  14.462
 7913SOL     OW25635   9.894   9.831   6.253
 7913SOL    HW125636   9.895   9.769   6.180
 7913SOL    HW225637   9.986   9.836   6.282
 7914SOL     OW25638   3.402   4.292   7.055
 7914SOL    HW125639   3.414   4.219   6.993
 7914SOL    HW225640   3.466   4.275   7.124
 7915SOL     OW25641  11.165   5.244   3.025
 7915SOL    HW125642  11.245   5.192   3.025
 7915SOL    HW225643  11.180   5.311   3.091
 7916SOL     OW25644   3.212   2.411   8.300
 7916SOL    HW125645   3.156   2.489   8.303
 7916SOL    HW225646   3.299   2.445   8.280
 7917SOL     OW25647   5.542  14.693   3.643
 7917SOL    HW125648   5.544  14.788   3.656
 7917SOL    HW225649   5.538  14.657   3.731
 7918SOL     OW25650   9.662   3.834   4.231
 7918SOL    HW125651   9.614   3.783   4.166
 7918SOL    HW225652   9.754   3.822   4.208
 7919SOL     OW25653   2.560  11.818   7.557
 7919SOL    HW125654   2.621  11.870   7.504
 7919SOL    HW225655   2.474  11.852   7.535
 7920SOL     OW25656   3.102   0.546   1.359
 7920SOL    HW125657   3.131   0.455   1.373
 7920SOL    HW225658   3.138   0.594   1.434
 7921SOL     OW25659   3.745   4.357   1.762
 7921SOL    HW125660   3.796   4.365   1.843
 7921SOL    HW225661   3.795   4.407   1.697
 7922SOL     OW25662   5.513  12.497   7.966
 7922SOL    HW125663   5.557  12.462   7.888
 7922SOL    HW225664   5.420  12.498   7.943
 7923SOL     OW25665  11.899   2.208  14.133
 7923SOL    HW125666  11.991   2.234  14.135
 7923SOL    HW225667  11.852   2.285  14.165
 7924SOL     OW25668  12.499   6.733   5.191
 7924SOL    HW125669  12.502   6.735   5.096
 7924SOL    HW225670  12.445   6.808   5.216
 7925SOL     OW25671   1.745  10.023  11.113
 7925SOL    HW125672   1.779   9.942  11.152
 7925SOL    HW225673   1.776  10.092  11.172
 7926SOL     OW25674   0.823   3.755  11.090
 7926SOL    HW125675   0.832   3.662  11.071
 7926SOL    HW225676   0.729   3.769  11.100
 7927SOL     OW25677  12.028  14.397  11.386
 7927SOL    HW125678  12.106  14.448  11.366
 7927SOL    HW225679  11.963  14.463  11.410
 7928SOL     OW25680   0.046   5.850   5.519
 7928SOL    HW125681   0.009   5.806   5.442
 7928SOL    HW225682   0.114   5.790   5.550
 7929SOL     OW25683   4.191   8.462  11.632
 7929SOL    HW125684   4.136   8.488  11.558
 7929SOL    HW225685   4.271   8.430  11.592
 7930SOL     OW25686   8.566  11.327  14.451
 7930SOL    HW125687   8.635  11.291  14.396
 7930SOL    HW225688   8.581  11.421  14.450
 7931SOL     OW25689  13.111  11.889   7.849
 7931SOL    HW125690  13.030  11.873   7.899
 7931SOL    HW225691  13.101  11.835   7.770
 7932SOL     OW25692   7.853   4.506   6.558
 7932SOL    HW125693   7.794   4.505   6.484
 7932SOL    HW225694   7.804   4.464   6.629
 7933SOL     OW25695  14.331   5.479   2.175
 7933SOL    HW125696  14.404   5.420   2.195
 7933SOL    HW225697  14.372   5.552   2.129
 7934SOL     OW25698   6.024  10.876   8.125
 7934SOL    HW125699   5.958  10.871   8.056
 7934SOL    HW225700   5.974  10.880   8.206
 7935SOL     OW25701   6.387   2.924  12.671
 7935SOL    HW125702   6.479   2.915  12.645
 7935SOL    HW225703   6.356   2.999  12.620
 7936SOL     OW25704   3.478  13.045   8.198
 7936SOL    HW125705   3.418  13.114   8.169
 7936SOL    HW225706   3.565  13.078   8.176
 7937SOL     OW25707   3.455   8.394   6.138
 7937SOL    HW125708   3.501   8.422   6.218
 7937SOL    HW225709   3.409   8.314   6.164
 7938SOL     OW25710   1.665   9.835  14.039
 7938SOL    HW125711   1.610   9.911  14.021
 7938SOL    HW225712   1.751   9.872  14.060
 7939SOL     OW25713  10.775  10.795  10.613
 7939SOL    HW125714  10.686  10.832  10.617
 7939SOL    HW225715  10.813  10.833  10.533
 7940SOL     OW25716  11.993   5.529  11.934
 7940SOL    HW125717  11.908   5.574  11.932
 7940SOL    HW225718  12.052   5.586  11.884
 7941SOL     OW25719   5.041  14.514  14.597
 7941SOL    HW125720   4.994  14.453  14.654
 7941SOL    HW225721   5.122  14.533  14.645
 7942SOL     OW25722   4.618   1.805  11.991
 7942SOL    HW125723   4.699   1.849  11.967
 7942SOL    HW225724   4.599   1.835  12.079
 7943SOL     OW25725   8.958  12.646   0.425
 7943SOL    HW125726   8.888  12.586   0.451
 7943SOL    HW225727   9.036  12.613   0.470
 7944SOL     OW25728  14.223   6.076   7.498
 7944SOL    HW125729  14.236   6.147   7.434
 7944SOL    HW225730  14.135   6.091   7.533
 7945SOL     OW25731   3.321  11.826   1.414
 7945SOL    HW125732   3.312  11.875   1.495
 7945SOL    HW225733   3.355  11.741   1.440
 7946SOL     OW25734   5.669   9.676   8.771
 7946SOL    HW125735   5.682   9.587   8.738
 7946SOL    HW225736   5.593   9.669   8.829
 7947SOL     OW25737   8.912   3.244  13.943
 7947SOL    HW125738   9.001   3.244  13.907
 7947SOL    HW225739   8.878   3.331  13.923
 7948SOL     OW25740   8.197  14.477  11.625
 7948SOL    HW125741   8.227  14.386  11.624
 7948SOL    HW225742   8.277  14.528  11.638
 7949SOL     OW25743  12.618   5.962   1.710
 7949SOL    HW125744  12.563   6.039   1.697
 7949SOL    HW225745  12.559   5.895   1.745
 7950SOL     OW25746   0.877   2.169   2.835
 7950SOL    HW125747   0.970   2.145   2.835
 7950SOL    HW225748   0.834   2.100   2.886
 7951SOL     OW25749   1.625   3.884   7.005
 7951SOL    HW125750   1.675   3.846   6.932
 7951SOL    HW225751   1.676   3.961   7.031
 7952SOL     OW25752   5.301  14.243  13.910
 7952SOL    HW125753   5.255  14.300  13.848
 7952SOL    HW225754   5.336  14.304  13.976
 7953SOL     OW25755   6.052   5.565   5.323
 7953SOL    HW125756   6.014   5.526   5.245
 7953SOL    HW225757   6.089   5.491   5.372
 7954SOL     OW25758   5.668   5.852   1.848
 7954SOL    HW125759   5.727   5.868   1.775
 7954SOL    HW225760   5.581   5.849   1.808
 7955SOL     OW25761  14.177  12.453   5.584
 7955SOL    HW125762  14.117  12.501   5.641
 7955SOL    HW225763  14.216  12.387   5.641
 7956SOL     OW25764   0.309  14.470   7.649
 7956SOL    HW125765   0.236  14.467   7.711
 7956SOL    HW225766   0.275  14.430   7.569
 7957SOL     OW25767   9.558   7.573   2.748
 7957SOL    HW125768   9.510   7.642   2.704
 7957SOL    HW225769   9.629   7.551   2.688
 7958SOL     OW25770   8.791   3.849   5.573
 7958SOL    HW125771   8.786   3.849   5.477
 7958SOL    HW225772   8.718   3.793   5.600
 7959SOL     OW25773  11.305   2.349  11.252
 7959SOL    HW125774  11.221   2.369  11.292
 7959SOL    HW225775  11.290   2.357  11.158
 7960SOL     OW25776   3.438  14.242   5.885
 7960SOL    HW125777   3.375  14.262   5.816
 7960SOL    HW225778   3.390  14.189   5.948
 7961SOL     OW25779   2.918  13.467   5.565
 7961SOL    HW125780   2.967  13.549   5.560
 7961SOL    HW225781   2.922  13.431   5.477
 7962SOL     OW25782   6.433  12.409   2.432
 7962SOL    HW125783   6.403  12.437   2.346
 7962SOL    HW225784   6.357  12.419   2.489
 7963SOL     OW25785  11.479   4.866  14.302
 7963SOL    HW125786  11.509   4.822  14.222
 7963SOL    HW225787  11.388   4.840  14.310
 7964SOL     OW25788   4.101   5.940   7.688
 7964SOL    HW125789   4.110   5.852   7.651
 7964SOL    HW225790   4.152   5.937   7.769
 7965SOL     OW25791  12.919  10.581   0.225
 7965SOL    HW125792  12.955  10.628   0.150
 7965SOL    HW225793  12.835  10.625   0.243
 7966SOL     OW25794  14.332  14.832   6.157
 7966SOL    HW125795  14.366  14.811   6.070
 7966SOL    HW225796  14.305  14.747   6.194
 7967SOL     OW25797   0.434  10.994   7.453
 7967SOL    HW125798   0.465  11.085   7.448
 7967SOL    HW225799   0.497  10.945   7.400
 7968SOL     OW25800   8.308  14.844   8.082
 7968SOL    HW125801   8.312  14.807   7.994
 7968SOL    HW225802   8.220  14.881   8.090
 7969SOL     OW25803  13.737   8.120   0.828
 7969SOL    HW125804  13.778   8.067   0.896
 7969SOL    HW225805  13.648   8.134   0.859
 7970SOL     OW25806  13.873  11.429  10.878
 7970SOL    HW125807  13.836  11.439  10.966
 7970SOL    HW225808  13.798  11.435  10.819
 7971SOL     OW25809   7.265  12.829  11.566
 7971SOL    HW125810   7.339  12.810  11.623
 7971SOL    HW225811   7.294  12.802  11.478
 7972SOL     OW25812   6.483   9.412  13.841
 7972SOL    HW125813   6.540   9.473  13.795
 7972SOL    HW225814   6.509   9.326  13.811
 7973SOL     OW25815  11.403   2.502  12.852
 7973SOL    HW125816  11.345   2.564  12.898
 7973SOL    HW225817  11.344   2.452  12.796
 7974SOL     OW25818   4.787   7.226   2.358
 7974SOL    HW125819   4.787   7.288   2.285
 7974SOL    HW225820   4.790   7.140   2.317
 7975SOL     OW25821   3.398  12.388  14.688
 7975SOL    HW125822   3.365  12.383  14.598
 7975SOL    HW225823   3.481  12.434  14.680
 7976SOL     OW25824   1.715   7.169  14.603
 7976SOL    HW125825   1.679   7.253  14.573
 7976SOL    HW225826   1.768   7.192  14.680
 7977SOL     OW25827   7.495   5.208  12.313
 7977SOL    HW125828   7.483   5.294  12.273
 7977SOL    HW225829   7.571   5.171  12.268
 7978SOL     OW25830  11.576  11.474  11.093
 7978SOL    HW125831  11.638  11.414  11.133
 7978SOL    HW225832  11.546  11.529  11.166
 7979SOL     OW25833   4.928   1.425   0.809
 7979SOL    HW125834   5.005   1.433   0.752
 7979SOL    HW225835   4.878   1.354   0.771
 7980SOL     OW25836   2.914  12.808   0.294
 7980SOL    HW125837   2.980  12.792   0.228
 7980SOL    HW225838   2.840  12.846   0.246
 7981SOL     OW25839  10.159   7.949  11.743
 7981SOL    HW125840  10.166   7.879  11.678
 7981SOL    HW225841  10.221   8.015  11.715
 7982SOL     OW25842  10.514   7.902  10.174
 7982SOL    HW125843  10.422   7.884  10.194
 7982SOL    HW225844  10.527   7.993  10.200
 7983SOL     OW25845  13.429  13.222   5.960
 7983SOL    HW125846  13.335  13.202   5.952
 7983SOL    HW225847  13.431  13.313   5.988
 7984SOL     OW25848   8.427   1.083   1.695
 7984SOL    HW125849   8.444   1.176   1.710
 7984SOL    HW225850   8.370   1.081   1.618
 7985SOL     OW25851   8.237  11.248   8.543
 7985SOL    HW125852   8.159  11.278   8.590
 7985SOL    HW225853   8.221  11.154   8.530
 7986SOL     OW25854  14.534   2.123   6.596
 7986SOL    HW125855  14.624   2.135   6.567
 7986SOL    HW225856  14.481   2.167   6.529
 7987SOL     OW25857   1.937   8.135   8.635
 7987SOL    HW125858   2.002   8.205   8.625
 7987SOL    HW225859   1.877   8.148   8.561
 7988SOL     OW25860   8.361   6.697   0.388
 7988SOL    HW125861   8.330   6.756   0.319
 7988SOL    HW225862   8.282   6.675   0.437
 7989SOL     OW25863   6.731   9.730  12.897
 7989SOL    HW125864   6.729   9.763  12.986
 7989SOL    HW225865   6.731   9.808  12.842
 7990SOL     OW25866   5.509   1.791   6.827
 7990SOL    HW125867   5.496   1.793   6.922
 7990SOL    HW225868   5.471   1.708   6.799
 7991SOL     OW25869   0.263   9.920   6.907
 7991SOL    HW125870   0.286   9.827   6.903
 7991SOL    HW225871   0.167   9.920   6.904
 7992SOL     OW25872  10.762  12.665   6.943
 7992SOL    HW125873  10.780  12.594   7.005
 7992SOL    HW225874  10.725  12.735   6.997
 7993SOL     OW25875   9.789   5.799  14.559
 7993SOL    HW125876   9.882   5.818  14.548
 7993SOL    HW225877   9.753   5.803  14.470
 7994SOL     OW25878   0.874   6.940   5.476
 7994SOL    HW125879   0.810   6.877   5.510
 7994SOL    HW225880   0.863   6.936   5.380
 7995SOL     OW25881  13.855   0.485   6.335
 7995SOL    HW125882  13.894   0.556   6.284
 7995SOL    HW225883  13.923   0.459   6.397
 7996SOL     OW25884  10.860   4.536   1.698
 7996SOL    HW125885  10.840   4.541   1.792
 7996SOL    HW225886  10.935   4.478   1.693
 7997SOL     OW25887   1.571   6.556   0.059
 7997SOL    HW125888   1.551   6.490   0.125
 7997SOL    HW225889   1.571   6.508  14.858
 7998SOL     OW25890   4.263   3.659  12.046
 7998SOL    HW125891   4.193   3.705  12.000
 7998SOL    HW225892   4.239   3.666  12.139
 7999SOL     OW25893   1.257   4.028  10.005
 7999SOL    HW125894   1.290   3.945   9.970
 7999SOL    HW225895   1.291   4.095   9.946
 8000SOL     OW25896   4.476   6.705   1.316
 8000SOL    HW125897   4.465   6.673   1.405
 8000SOL    HW225898   4.388   6.699   1.277
 8001SOL     OW25899   7.830  13.721   9.008
 8001SOL    HW125900   7.808  13.692   8.919
 8001SOL    HW225901   7.777  13.664   9.065
 8002SOL     OW25902   9.304   9.472   0.733
 8002SOL    HW125903   9.363   9.487   0.659
 8002SOL    HW225904   9.229   9.426   0.696
 8003SOL     OW25905   4.284   0.685  12.436
 8003SOL    HW125906   4.305   0.602  12.395
 8003SOL    HW225907   4.251   0.740  12.365
 8004SOL     OW25908  12.200  14.694   2.041
 8004SOL    HW125909  12.128  14.682   2.103
 8004SOL    HW225910  12.166  14.664   1.957
 8005SOL     OW25911   5.848   4.673   8.645
 8005SOL    HW125912   5.814   4.763   8.651
 8005SOL    HW225913   5.943   4.684   8.637
 8006SOL     OW25914   8.588  12.057   1.882
 8006SOL    HW125915   8.524  11.989   1.905
 8006SOL    HW225916   8.643  12.065   1.959
 8007SOL     OW25917   5.128   1.057  11.106
 8007SOL    HW125918   5.204   1.115  11.113
 8007SOL    HW225919   5.056   1.106  11.144
 8008SOL     OW25920   7.488  10.876   1.175
 8008SOL    HW125921   7.465  10.818   1.248
 8008SOL    HW225922   7.546  10.942   1.215
 8009SOL     OW25923   0.698   2.814   6.361
 8009SOL    HW125924   0.727   2.768   6.281
 8009SOL    HW225925   0.678   2.903   6.331
 8010SOL     OW25926   4.938   4.390   9.828
 8010SOL    HW125927   4.920   4.336   9.751
 8010SOL    HW225928   5.022   4.358   9.861
 8011SOL     OW25929  11.566   9.676  11.179
 8011SOL    HW125930  11.590   9.720  11.261
 8011SOL    HW225931  11.475   9.648  11.193
 8012SOL     OW25932   5.510   4.058  13.430
 8012SOL    HW125933   5.585   4.112  13.456
 8012SOL    HW225934   5.529   3.972  13.466
 8013SOL     OW25935  10.197  12.093  11.923
 8013SOL    HW125936  10.236  12.006  11.932
 8013SOL    HW225937  10.273  12.151  11.915
 8014SOL     OW25938   0.318   2.017   3.872
 8014SOL    HW125939   0.240   2.027   3.817
 8014SOL    HW225940   0.389   2.057   3.822
 8015SOL     OW25941   1.153   4.104   2.430
 8015SOL    HW125942   1.195   4.149   2.357
 8015SOL    HW225943   1.223   4.053   2.471
 8016SOL     OW25944   9.521  10.296  12.693
 8016SOL    HW125945   9.526  10.385  12.730
 8016SOL    HW225946   9.429  10.285  12.671
 8017SOL     OW25947   8.265   6.075  10.106
 8017SOL    HW125948   8.180   6.057  10.065
 8017SOL    HW225949   8.282   6.167  10.084
 8018SOL     OW25950   6.873   8.799   0.895
 8018SOL    HW125951   6.836   8.722   0.939
 8018SOL    HW225952   6.845   8.789   0.803
 8019SOL     OW25953   5.402   4.951  10.529
 8019SOL    HW125954   5.370   5.028  10.575
 8019SOL    HW225955   5.355   4.877  10.569
 8020SOL     OW25956   2.592  11.638   9.689
 8020SOL    HW125957   2.625  11.690   9.762
 8020SOL    HW225958   2.651  11.564   9.682
 8021SOL     OW25959  10.512   8.777   0.051
 8021SOL    HW125960  10.544   8.692   0.022
 8021SOL    HW225961  10.419   8.777   0.027
 8022SOL     OW25962  14.577   3.120   7.712
 8022SOL    HW125963  14.517   3.139   7.640
 8022SOL    HW225964  14.561   3.028   7.734
 8023SOL     OW25965  11.103  10.011  10.627
 8023SOL    HW125966  11.164   9.999  10.555
 8023SOL    HW225967  11.074   9.923  10.650
 8024SOL     OW25968   9.934   1.697   3.621
 8024SOL    HW125969   9.852   1.722   3.664
 8024SOL    HW225970   9.917   1.711   3.528
 8025SOL     OW25971   2.757  13.192   0.246
 8025SOL    HW125972   2.777  13.276   0.205
 8025SOL    HW225973   2.793  13.200   0.335
 8026SOL     OW25974   9.956  14.433  13.262
 8026SOL    HW125975   9.974  14.343  13.290
 8026SOL    HW225976   9.955  14.428  13.166
 8027SOL     OW25977   6.044  13.939  14.375
 8027SOL    HW125978   6.003  13.999  14.313
 8027SOL    HW225979   5.994  13.951  14.456
 8028SOL     OW25980   7.850   3.363   9.004
 8028SOL    HW125981   7.764   3.371   9.046
 8028SOL    HW225982   7.830   3.338   8.914
 8029SOL     OW25983   6.522   9.402   0.746
 8029SOL    HW125984   6.562   9.323   0.785
 8029SOL    HW225985   6.439   9.370   0.710
 8030SOL     OW25986   1.910   2.896   7.660
 8030SOL    HW125987   1.832   2.950   7.676
 8030SOL    HW225988   1.875   2.815   7.621
 8031SOL     OW25989   3.126  14.402   8.844
 8031SOL    HW125990   3.079  14.356   8.913
 8031SOL    HW225991   3.066  14.471   8.816
 8032SOL     OW25992   2.347  14.349   3.335
 8032SOL    HW125993   2.280  14.291   3.300
 8032SOL    HW225994   2.427  14.324   3.289
 8033SOL     OW25995   4.792   9.803   1.405
 8033SOL    HW125996   4.841   9.867   1.353
 8033SOL    HW225997   4.702   9.811   1.375
 8034SOL     OW25998   3.615   8.226   7.232
 8034SOL    HW125999   3.709   8.232   7.221
 8034SOL    HW226000   3.602   8.145   7.282
 8035SOL     OW26001   1.638   9.631   3.763
 8035SOL    HW126002   1.608   9.714   3.725
 8035SOL    HW226003   1.614   9.636   3.855
 8036SOL     OW26004   0.545   0.737   9.763
 8036SOL    HW126005   0.600   0.766   9.836
 8036SOL    HW226006   0.510   0.818   9.726
 8037SOL     OW26007  11.242   8.436  14.092
 8037SOL    HW126008  11.253   8.531  14.092
 8037SOL    HW226009  11.162   8.421  14.142
 8038SOL     OW26010   5.251   5.362   4.533
 8038SOL    HW126011   5.201   5.417   4.472
 8038SOL    HW226012   5.321   5.326   4.480
 8039SOL     OW26013   1.368   6.400   8.931
 8039SOL    HW126014   1.276   6.412   8.954
 8039SOL    HW226015   1.398   6.487   8.904
 8040SOL     OW26016  13.677  11.280   8.279
 8040SOL    HW126017  13.673  11.267   8.373
 8040SOL    HW226018  13.705  11.196   8.243
 8041SOL     OW26019   5.729   3.720   5.907
 8041SOL    HW126020   5.783   3.689   5.834
 8041SOL    HW226021   5.743   3.815   5.907
 8042SOL     OW26022   3.656   7.954  11.800
 8042SOL    HW126023   3.689   8.029  11.751
 8042SOL    HW226024   3.684   7.878  11.748
 8043SOL     OW26025   0.014   8.853   8.007
 8043SOL    HW126026   0.064   8.930   7.981
 8043SOL    HW226027  14.819   8.888   8.051
 8044SOL     OW26028   9.227  10.454  14.743
 8044SOL    HW126029   9.201  10.386  14.681
 8044SOL    HW226030   9.185  10.430  14.825
 8045SOL     OW26031   1.971   6.906   2.211
 8045SOL    HW126032   2.015   6.894   2.295
 8045SOL    HW226033   1.943   6.998   2.212
 8046SOL     OW26034   6.479   9.041   1.816
 8046SOL    HW126035   6.472   9.117   1.758
 8046SOL    HW226036   6.551   8.989   1.781
 8047SOL     OW26037  12.867   0.732   9.543
 8047SOL    HW126038  12.918   0.651   9.546
 8047SOL    HW226039  12.908   0.783   9.474
 8048SOL     OW26040  13.841   3.164   9.134
 8048SOL    HW126041  13.776   3.217   9.089
 8048SOL    HW226042  13.924   3.189   9.094
 8049SOL     OW26043   9.380  12.284   9.808
 8049SOL    HW126044   9.369  12.341   9.732
 8049SOL    HW226045   9.403  12.199   9.772
 8050SOL     OW26046   7.782  10.736  11.401
 8050SOL    HW126047   7.822  10.684  11.471
 8050SOL    HW226048   7.779  10.825  11.435
 8051SOL     OW26049   0.750   1.080  11.162
 8051SOL    HW126050   0.799   1.161  11.148
 8051SOL    HW226051   0.750   1.067  11.257
 8052SOL     OW26052   2.606   2.672   3.129
 8052SOL    HW126053   2.571   2.759   3.148
 8052SOL    HW226054   2.589   2.622   3.209
 8053SOL     OW26055  14.359   4.278   0.947
 8053SOL    HW126056  14.440   4.228   0.961
 8053SOL    HW226057  14.336   4.262   0.856
 8054SOL     OW26058   0.597  14.462   9.887
 8054SOL    HW126059   0.610  14.549   9.848
 8054SOL    HW226060   0.518  14.429   9.844
 8055SOL     OW26061  12.876   3.636   3.994
 8055SOL    HW126062  12.796   3.585   3.985
 8055SOL    HW226063  12.863   3.688   4.073
 8056SOL     OW26064   7.436   1.848  12.798
 8056SOL    HW126065   7.510   1.817  12.850
 8056SOL    HW226066   7.447   1.943  12.794
 8057SOL     OW26067   8.818  13.224   8.588
 8057SOL    HW126068   8.756  13.283   8.547
 8057SOL    HW226069   8.872  13.280   8.644
 8058SOL     OW26070   7.484  10.330   9.905
 8058SOL    HW126071   7.423  10.256   9.913
 8058SOL    HW226072   7.529  10.334   9.989
 8059SOL     OW26073  11.414   2.921   9.330
 8059SOL    HW126074  11.459   2.995   9.371
 8059SOL    HW226075  11.471   2.846   9.345
 8060SOL     OW26076  10.752  14.826   1.614
 8060SOL    HW126077  10.762   0.038   1.623
 8060SOL    HW226078  10.752  14.811   1.519
 8061SOL     OW26079   1.172   0.867   3.280
 8061SOL    HW126080   1.120   0.894   3.356
 8061SOL    HW226081   1.226   0.795   3.313
 8062SOL     OW26082  10.539   1.934   3.839
 8062SOL    HW126083  10.632   1.913   3.844
 8062SOL    HW226084  10.499   1.881   3.909
 8063SOL     OW26085  12.174  11.139  12.612
 8063SOL    HW126086  12.153  11.060  12.662
 8063SOL    HW226087  12.133  11.123  12.527
 8064SOL     OW26088  14.669  11.731   4.195
 8064SOL    HW126089  14.735  11.758   4.259
 8064SOL    HW226090  14.642  11.644   4.225
 8065SOL     OW26091   0.485   5.921   3.722
 8065SOL    HW126092   0.545   5.924   3.797
 8065SOL    HW226093   0.413   5.865   3.752
 8066SOL     OW26094   1.969   7.302  14.633
 8066SOL    HW126095   1.983   7.208  14.645
 8066SOL    HW226096   1.953   7.312  14.539
 8067SOL     OW26097   7.398   4.404   5.118
 8067SOL    HW126098   7.483   4.360   5.121
 8067SOL    HW226099   7.359   4.386   5.203
 8068SOL     OW26100   9.366   4.312  10.232
 8068SOL    HW126101   9.431   4.308  10.162
 8068SOL    HW226102   9.361   4.404  10.255
 8069SOL     OW26103  12.815  11.785   0.108
 8069SOL    HW126104  12.860  11.705   0.082
 8069SOL    HW226105  12.882  11.836   0.153
 8070SOL     OW26106  12.341   1.860  10.801
 8070SOL    HW126107  12.250   1.888  10.811
 8070SOL    HW226108  12.358   1.865  10.707
 8071SOL     OW26109   1.229  12.943   6.294
 8071SOL    HW126110   1.243  13.012   6.228
 8071SOL    HW226111   1.160  12.977   6.350
 8072SOL     OW26112  11.071  12.059   0.111
 8072SOL    HW126113  11.022  11.989   0.066
 8072SOL    HW226114  11.150  12.016   0.143
 8073SOL     OW26115   6.558  11.437  12.253
 8073SOL    HW126116   6.601  11.351  12.251
 8073SOL    HW226117   6.597  11.484  12.179
 8074SOL     OW26118   8.034  14.033  12.082
 8074SOL    HW126119   8.021  14.126  12.065
 8074SOL    HW226120   8.088  14.031  12.162
 8075SOL     OW26121   3.364   5.016  12.347
 8075SOL    HW126122   3.442   4.979  12.389
 8075SOL    HW226123   3.398   5.087  12.292
 8076SOL     OW26124   2.335   3.345  10.863
 8076SOL    HW126125   2.297   3.278  10.807
 8076SOL    HW226126   2.277   3.349  10.939
 8077SOL     OW26127   1.269  10.781   6.667
 8077SOL    HW126128   1.293  10.739   6.584
 8077SOL    HW226129   1.352  10.806   6.707
 8078SOL     OW26130  10.864   7.833   0.601
 8078SOL    HW126131  10.942   7.848   0.547
 8078SOL    HW226132  10.791   7.851   0.542
 8079SOL     OW26133   2.535   4.987   2.476
 8079SOL    HW126134   2.498   4.921   2.535
 8079SOL    HW226135   2.600   4.940   2.425
 8080SOL     OW26136   2.222   5.913   5.559
 8080SOL    HW126137   2.273   5.986   5.524
 8080SOL    HW226138   2.245   5.839   5.503
 8081SOL     OW26139   9.298  10.874   2.520
 8081SOL    HW126140   9.317  10.938   2.451
 8081SOL    HW226141   9.330  10.791   2.486
 8082SOL     OW26142   5.055  14.780  12.375
 8082SOL    HW126143   4.980  14.834  12.399
 8082SOL    HW226144   5.021  14.720  12.309
 8083SOL     OW26145   2.351   6.648  13.619
 8083SOL    HW126146   2.322   6.715  13.557
 8083SOL    HW226147   2.332   6.565  13.575
 8084SOL     OW26148  10.546   5.289   5.418
 8084SOL    HW126149  10.508   5.232   5.486
 8084SOL    HW226150  10.532   5.378   5.451
 8085SOL     OW26151  14.406  11.728   8.309
 8085SOL    HW126152  14.489  11.733   8.355
 8085SOL    HW226153  14.393  11.815   8.273
 8086SOL     OW26154   5.954   0.215   5.215
 8086SOL    HW126155   6.049   0.223   5.205
 8086SOL    HW226156   5.936   0.123   5.197
 8087SOL     OW26157   5.287   3.403  10.434
 8087SOL    HW126158   5.244   3.318  10.437
 8087SOL    HW226159   5.378   3.385  10.458
 8088SOL     OW26160   1.133   0.761   3.035
 8088SOL    HW126161   1.145   0.797   3.123
 8088SOL    HW226162   1.063   0.697   3.044
 8089SOL     OW26163   2.965   1.824   6.169
 8089SOL    HW126164   2.880   1.861   6.190
 8089SOL    HW226165   3.012   1.821   6.252
 8090SOL     OW26166  11.965   8.029   0.232
 8090SOL    HW126167  11.912   8.108   0.239
 8090SOL    HW226168  11.936   7.974   0.305
 8091SOL     OW26169   3.332   6.390   7.625
 8091SOL    HW126170   3.260   6.335   7.655
 8091SOL    HW226171   3.411   6.340   7.642
 8092SOL     OW26172   3.145  11.883   7.919
 8092SOL    HW126173   3.098  11.962   7.943
 8092SOL    HW226174   3.093  11.844   7.849
 8093SOL     OW26175  13.546   1.788  13.845
 8093SOL    HW126176  13.523   1.757  13.933
 8093SOL    HW226177  13.546   1.883  13.853
 8094SOL     OW26178   8.953  12.526   3.336
 8094SOL    HW126179   8.895  12.600   3.317
 8094SOL    HW226180   8.996  12.551   3.418
 8095SOL     OW26181   3.875   5.728   4.392
 8095SOL    HW126182   3.883   5.742   4.298
 8095SOL    HW226183   3.791   5.767   4.416
 8096SOL     OW26184  11.926  10.220   4.874
 8096SOL    HW126185  11.910  10.137   4.919
 8096SOL    HW226186  11.846  10.271   4.889
 8097SOL     OW26187   2.031   0.149  14.792
 8097SOL    HW126188   2.076   0.074  14.830
 8097SOL    HW226189   1.938   0.125  14.793
 8098SOL     OW26190  11.215   1.713   0.411
 8098SOL    HW126191  11.160   1.683   0.338
 8098SOL    HW226192  11.194   1.651   0.482
 8099SOL     OW26193  14.655  11.099   8.239
 8099SOL    HW126194  14.649  11.016   8.190
 8099SOL    HW226195  14.619  11.078   8.325
 8100SOL     OW26196  11.851   9.866  13.272
 8100SOL    HW126197  11.787   9.930  13.241
 8100SOL    HW226198  11.878   9.899  13.358
 8101SOL     OW26199  14.395  12.566   9.638
 8101SOL    HW126200  14.363  12.486   9.680
 8101SOL    HW226201  14.439  12.614   9.709
 8102SOL     OW26202   8.562   9.220   0.334
 8102SOL    HW126203   8.469   9.240   0.331
 8102SOL    HW226204   8.566   9.127   0.357
 8103SOL     OW26205  13.738  11.267   7.732
 8103SOL    HW126206  13.770  11.182   7.700
 8103SOL    HW226207  13.772  11.330   7.669
 8104SOL     OW26208  12.225   2.573  12.422
 8104SOL    HW126209  12.138   2.533  12.419
 8104SOL    HW226210  12.284   2.505  12.389
 8105SOL     OW26211  14.574   7.540   2.322
 8105SOL    HW126212  14.576   7.554   2.228
 8105SOL    HW226213  14.641   7.474   2.338
 8106SOL     OW26214  14.336  10.986  13.373
 8106SOL    HW126215  14.412  11.027  13.331
 8106SOL    HW226216  14.273  11.057  13.382
 8107SOL     OW26217   3.610   2.237   7.137
 8107SOL    HW126218   3.576   2.151   7.109
 8107SOL    HW226219   3.702   2.236   7.110
 8108SOL     OW26220  13.443   9.507   8.218
 8108SOL    HW126221  13.410   9.417   8.226
 8108SOL    HW226222  13.412   9.536   8.133
 8109SOL     OW26223  10.407   7.495   4.188
 8109SOL    HW126224  10.495   7.531   4.195
 8109SOL    HW226225  10.416   7.403   4.214
 8110SOL     OW26226   2.900   3.284   9.873
 8110SOL    HW126227   2.866   3.281   9.783
 8110SOL    HW226228   2.845   3.347   9.918
 8111SOL     OW26229  13.660   1.941   4.906
 8111SOL    HW126230  13.662   1.903   4.994
 8111SOL    HW226231  13.570   1.971   4.896
 8112SOL     OW26232   6.519   5.315   7.702
 8112SOL    HW126233   6.548   5.260   7.628
 8112SOL    HW226234   6.424   5.305   7.703
 8113SOL     OW26235  13.847   6.049  12.013
 8113SOL    HW126236  13.840   6.044  12.108
 8113SOL    HW226237  13.790   5.979  11.982
 8114SOL     OW26238   9.493   3.074  14.324
 8114SOL    HW126239   9.536   3.055  14.407
 8114SOL    HW226240   9.507   2.994  14.271
 8115SOL     OW26241   8.646   3.818  11.510
 8115SOL    HW126242   8.564   3.781  11.542
 8115SOL    HW226243   8.622   3.864  11.430
 8116SOL     OW26244   6.829   1.000  12.810
 8116SOL    HW126245   6.872   0.927  12.855
 8116SOL    HW226246   6.848   0.984  12.717
 8117SOL     OW26247  10.991   6.011   8.765
 8117SOL    HW126248  11.013   5.976   8.851
 8117SOL    HW226249  10.928   5.948   8.729
 8118SOL     OW26250   4.807  11.869   6.031
 8118SOL    HW126251   4.756  11.813   5.973
 8118SOL    HW226252   4.750  11.943   6.050
 8119SOL     OW26253  14.586  14.287   0.892
 8119SOL    HW126254  14.611  14.194   0.893
 8119SOL    HW226255  14.670  14.333   0.881
 8120SOL     OW26256  14.018   9.722   4.586
 8120SOL    HW126257  14.035   9.816   4.579
 8120SOL    HW226258  13.935   9.716   4.634
 8121SOL     OW26259  14.675   8.426   9.401
 8121SOL    HW126260  14.753   8.381   9.434
 8121SOL    HW226261  14.636   8.363   9.340
 8122SOL     OW26262  14.116   2.641  10.329
 8122SOL    HW126263  14.027   2.645  10.365
 8122SOL    HW226264  14.166   2.594  10.395
 8123SOL     OW26265   4.435   7.380   2.747
 8123SOL    HW126266   4.372   7.331   2.694
 8123SOL    HW226267   4.510   7.322   2.756
 8124SOL     OW26268   9.816   7.236   3.907
 8124SOL    HW126269   9.858   7.305   3.959
 8124SOL    HW226270   9.801   7.165   3.970
 8125SOL     OW26271  10.570  11.030   9.046
 8125SOL    HW126272  10.646  11.037   8.988
 8125SOL    HW226273  10.504  11.087   9.006
 8126SOL     OW26274   6.575   2.273   9.787
 8126SOL    HW126275   6.643   2.301   9.727
 8126SOL    HW226276   6.504   2.242   9.731
 8127SOL     OW26277   9.230  13.348   1.329
 8127SOL    HW126278   9.189  13.266   1.300
 8127SOL    HW226279   9.265  13.386   1.249
 8128SOL     OW26280   7.159  13.834   1.348
 8128SOL    HW126281   7.199  13.921   1.355
 8128SOL    HW226282   7.106  13.839   1.268
 8129SOL     OW26283   2.759   7.383   7.622
 8129SOL    HW126284   2.784   7.298   7.587
 8129SOL    HW226285   2.837   7.413   7.670
 8130SOL     OW26286  10.492  13.930   4.459
 8130SOL    HW126287  10.555  13.998   4.434
 8130SOL    HW226288  10.413  13.979   4.482
 8131SOL     OW26289   8.145  10.328   9.193
 8131SOL    HW126290   8.136  10.252   9.135
 8131SOL    HW226291   8.087  10.394   9.155
 8132SOL     OW26292   9.880   9.766   7.752
 8132SOL    HW126293   9.818   9.837   7.769
 8132SOL    HW226294   9.846   9.723   7.674
 8133SOL     OW26295   5.990   1.394  13.055
 8133SOL    HW126296   5.928   1.327  13.026
 8133SOL    HW226297   5.946   1.477  13.039
 8134SOL     OW26298   3.887  11.159  14.011
 8134SOL    HW126299   3.916  11.219  14.080
 8134SOL    HW226300   3.848  11.216  13.945
 8135SOL     OW26301   7.575   3.345  14.580
 8135SOL    HW126302   7.620   3.330  14.663
 8135SOL    HW226303   7.631   3.409  14.534
 8136SOL     OW26304   4.185   4.848  10.816
 8136SOL    HW126305   4.262   4.809  10.857
 8136SOL    HW226306   4.159   4.785  10.750
 8137SOL     OW26307   5.773  10.176   1.447
 8137SOL    HW126308   5.758  10.227   1.526
 8137SOL    HW226309   5.713  10.214   1.382
 8138SOL     OW26310   6.756  14.813  10.000
 8138SOL    HW126311   6.783  14.724  10.025
 8138SOL    HW226312   6.742  14.858  10.083
 8139SOL     OW26313  11.873  10.059   8.501
 8139SOL    HW126314  11.931  10.114   8.555
 8139SOL    HW226315  11.821  10.010   8.565
 8140SOL     OW26316   4.193   7.888   2.247
 8140SOL    HW126317   4.250   7.934   2.308
 8140SOL    HW226318   4.224   7.915   2.160
 8141SOL     OW26319  10.932   2.565   3.576
 8141SOL    HW126320  10.992   2.633   3.608
 8141SOL    HW226321  10.848   2.585   3.617
 8142SOL     OW26322  11.411   1.908   3.431
 8142SOL    HW126323  11.436   1.854   3.507
 8142SOL    HW226324  11.390   1.994   3.468
 8143SOL     OW26325   3.277   8.553  11.435
 8143SOL    HW126326   3.185   8.539  11.458
 8143SOL    HW226327   3.323   8.478  11.472
 8144SOL     OW26328   2.942  14.742  13.314
 8144SOL    HW126329   2.978  14.829  13.332
 8144SOL    HW226330   2.907  14.749  13.225
 8145SOL     OW26331   9.864   3.821   7.661
 8145SOL    HW126332   9.881   3.907   7.700
 8145SOL    HW226333   9.785   3.833   7.608
 8146SOL     OW26334   2.032   2.292   0.901
 8146SOL    HW126335   1.999   2.359   0.842
 8146SOL    HW226336   1.980   2.214   0.880
 8147SOL     OW26337   2.581   9.878  14.735
 8147SOL    HW126338   2.640   9.934  14.685
 8147SOL    HW226339   2.493   9.902  14.704
 8148SOL     OW26340   3.778   8.981   6.078
 8148SOL    HW126341   3.753   8.900   6.034
 8148SOL    HW226342   3.869   8.995   6.054
 8149SOL     OW26343   8.696   5.098   8.672
 8149SOL    HW126344   8.650   5.068   8.593
 8149SOL    HW226345   8.788   5.079   8.654
 8150SOL     OW26346   4.496  12.588   8.913
 8150SOL    HW126347   4.516  12.595   8.819
 8150SOL    HW226348   4.573  12.625   8.956
 8151SOL     OW26349   6.693   6.650   2.784
 8151SOL    HW126350   6.753   6.725   2.777
 8151SOL    HW226351   6.648   6.664   2.867
 8152SOL     OW26352  11.422   8.341   7.160
 8152SOL    HW126353  11.404   8.371   7.249
 8152SOL    HW226354  11.509   8.376   7.140
 8153SOL     OW26355  14.550   5.761  14.410
 8153SOL    HW126356  14.572   5.669  14.400
 8153SOL    HW226357  14.460   5.761  14.442
 8154SOL     OW26358   5.267   8.976  10.441
 8154SOL    HW126359   5.246   9.066  10.465
 8154SOL    HW226360   5.261   8.974  10.346
 8155SOL     OW26361   9.864   6.058  12.911
 8155SOL    HW126362   9.885   6.149  12.891
 8155SOL    HW226363   9.914   6.038  12.990
 8156SOL     OW26364   6.773  13.695   4.780
 8156SOL    HW126365   6.842  13.761   4.772
 8156SOL    HW226366   6.751  13.672   4.690
 8157SOL     OW26367  10.751  11.689  13.787
 8157SOL    HW126368  10.830  11.685  13.734
 8157SOL    HW226369  10.754  11.775  13.828
 8158SOL     OW26370  10.485   1.658   0.553
 8158SOL    HW126371  10.453   1.687   0.639
 8158SOL    HW226372  10.546   1.586   0.574
 8159SOL     OW26373   1.040   9.594   3.083
 8159SOL    HW126374   1.023   9.627   3.171
 8159SOL    HW226375   1.135   9.586   3.078
 8160SOL     OW26376  14.302  14.554  11.482
 8160SOL    HW126377  14.311  14.641  11.521
 8160SOL    HW226378  14.222  14.519  11.521
 8161SOL     OW26379   2.402   6.400  13.789
 8161SOL    HW126380   2.454   6.327  13.755
 8161SOL    HW226381   2.397   6.461  13.715
 8162SOL     OW26382   5.959   9.200   8.334
 8162SOL    HW126383   5.948   9.294   8.351
 8162SOL    HW226384   5.978   9.195   8.240
 8163SOL     OW26385  13.560   5.588   2.936
 8163SOL    HW126386  13.614   5.665   2.921
 8163SOL    HW226387  13.606   5.517   2.891
 8164SOL     OW26388   4.225   0.920  11.923
 8164SOL    HW126389   4.153   0.920  11.986
 8164SOL    HW226390   4.282   0.991  11.953
 8165SOL     OW26391  13.933  10.561   5.869
 8165SOL    HW126392  13.908  10.472   5.843
 8165SOL    HW226393  13.968  10.551   5.957
 8166SOL     OW26394  13.406   9.676  14.774
 8166SOL    HW126395  13.335   9.612  14.781
 8166SOL    HW226396  13.449   9.674  14.859
 8167SOL     OW26397   1.467  14.227  10.537
 8167SOL    HW126398   1.372  14.235  10.548
 8167SOL    HW226399   1.501  14.226  10.627
 8168SOL     OW26400  10.082  14.408   5.575
 8168SOL    HW126401  10.105  14.501   5.581
 8168SOL    HW226402  10.141  14.373   5.508
 8169SOL     OW26403  12.554  10.049   8.299
 8169SOL    HW126404  12.518   9.973   8.343
 8169SOL    HW226405  12.544  10.030   8.205
 8170SOL     OW26406   9.256   9.840   6.580
 8170SOL    HW126407   9.200   9.859   6.655
 8170SOL    HW226408   9.284   9.925   6.547
 8171SOL     OW26409  11.487   9.288  14.851
 8171SOL    HW126410  11.495   9.377  14.818
 8171SOL    HW226411  11.441   9.298   0.052
 8172SOL     OW26412  12.344  10.650   6.655
 8172SOL    HW126413  12.325  10.621   6.745
 8172SOL    HW226414  12.319  10.743   6.654
 8173SOL     OW26415   9.524   7.323  13.310
 8173SOL    HW126416   9.483   7.410  13.318
 8173SOL    HW226417   9.450   7.264  13.294
 8174SOL     OW26418  12.295   5.998  11.578
 8174SOL    HW126419  12.372   6.048  11.606
 8174SOL    HW226420  12.290   5.926  11.641
 8175SOL     OW26421   2.266   3.236   1.332
 8175SOL    HW126422   2.342   3.194   1.371
 8175SOL    HW226423   2.269   3.210   1.240
 8176SOL     OW26424   2.555   7.774   3.143
 8176SOL    HW126425   2.498   7.789   3.218
 8176SOL    HW226426   2.631   7.830   3.157
 8177SOL     OW26427  13.211   2.184   6.938
 8177SOL    HW126428  13.122   2.151   6.942
 8177SOL    HW226429  13.265   2.107   6.921
 8178SOL     OW26430  11.766   1.056   1.689
 8178SOL    HW126431  11.847   1.075   1.643
 8178SOL    HW226432  11.770   0.962   1.707
 8179SOL     OW26433   1.739  13.017   5.279
 8179SOL    HW126434   1.779  13.048   5.198
 8179SOL    HW226435   1.656  13.064   5.284
 8180SOL     OW26436   8.450   9.535  14.266
 8180SOL    HW126437   8.373   9.513  14.318
 8180SOL    HW226438   8.508   9.459  14.274
 8181SOL     OW26439   7.557   0.506   0.653
 8181SOL    HW126440   7.568   0.600   0.637
 8181SOL    HW226441   7.617   0.488   0.726
 8182SOL     OW26442   7.355   1.982   1.331
 8182SOL    HW126443   7.333   1.938   1.413
 8182SOL    HW226444   7.272   1.991   1.285
 8183SOL     OW26445   9.957   5.041   4.065
 8183SOL    HW126446   9.924   5.123   4.028
 8183SOL    HW226447   9.970   4.984   3.990
 8184SOL     OW26448   4.258  14.794  11.117
 8184SOL    HW126449   4.311  14.873  11.106
 8184SOL    HW226450   4.243  14.789  11.211
 8185SOL     OW26451   6.094   5.786  11.650
 8185SOL    HW126452   6.069   5.860  11.704
 8185SOL    HW226453   6.176   5.755  11.688
 8186SOL     OW26454  11.693   4.771   7.849
 8186SOL    HW126455  11.751   4.796   7.921
 8186SOL    HW226456  11.605   4.789   7.882
 8187SOL     OW26457   7.085  11.722   8.041
 8187SOL    HW126458   7.090  11.817   8.028
 8187SOL    HW226459   7.176  11.696   8.055
 8188SOL     OW26460  13.941   2.478  13.362
 8188SOL    HW126461  13.848   2.476  13.342
 8188SOL    HW226462  13.955   2.403  13.420
 8189SOL     OW26463   9.560   9.759   7.514
 8189SOL    HW126464   9.500   9.821   7.473
 8189SOL    HW226465   9.643   9.773   7.468
 8190SOL     OW26466   3.264   2.193   6.270
 8190SOL    HW126467   3.246   2.159   6.358
 8190SOL    HW226468   3.205   2.146   6.213
 8191SOL     OW26469  13.988   9.612   3.620
 8191SOL    HW126470  13.988   9.702   3.587
 8191SOL    HW226471  13.944   9.617   3.705
 8192SOL     OW26472  10.625   0.613   5.448
 8192SOL    HW126473  10.714   0.598   5.480
 8192SOL    HW226474  10.602   0.699   5.482
 8193SOL     OW26475  10.233  13.369   2.481
 8193SOL    HW126476  10.166  13.341   2.420
 8193SOL    HW226477  10.196  13.350   2.568
 8194SOL     OW26478  12.975  12.980   2.855
 8194SOL    HW126479  12.975  12.896   2.900
 8194SOL    HW226480  13.040  12.971   2.786
 8195SOL     OW26481   6.938  10.665  12.083
 8195SOL    HW126482   6.979  10.638  12.001
 8195SOL    HW226483   6.993  10.627  12.151
 8196SOL     OW26484  10.093   4.373   5.922
 8196SOL    HW126485  10.056   4.433   5.987
 8196SOL    HW226486  10.186   4.368   5.943
 8197SOL     OW26487   2.351   0.127  10.346
 8197SOL    HW126488   2.346   0.040  10.306
 8197SOL    HW226489   2.363   0.187  10.273
 8198SOL     OW26490  10.204  13.859   2.714
 8198SOL    HW126491  10.144  13.822   2.779
 8198SOL    HW226492  10.149  13.920   2.664
 8199SOL     OW26493  14.361   6.159   7.281
 8199SOL    HW126494  14.443   6.154   7.329
 8199SOL    HW226495  14.327   6.246   7.301
 8200SOL     OW26496  13.478   4.336   0.095
 8200SOL    HW126497  13.472   4.430   0.111
 8200SOL    HW226498  13.540   4.328   0.022
 8201SOL     OW26499   7.827   5.866   0.372
 8201SOL    HW126500   7.867   5.827   0.449
 8201SOL    HW226501   7.808   5.792   0.314
 8202SOL     OW26502  14.838   7.522   6.808
 8202SOL    HW126503  14.847   7.594   6.747
 8202SOL    HW226504  14.838   7.563   6.895
 8203SOL     OW26505   4.680  12.111   6.758
 8203SOL    HW126506   4.678  12.015   6.752
 8203SOL    HW226507   4.742  12.129   6.829
 8204SOL     OW26508  11.949   0.983   0.267
 8204SOL    HW126509  12.027   1.027   0.299
 8204SOL    HW226510  11.973   0.890   0.266
 8205SOL     OW26511  11.135   5.413   0.535
 8205SOL    HW126512  11.112   5.472   0.607
 8205SOL    HW226513  11.058   5.414   0.478
 8206SOL     OW26514  14.679  14.624   7.139
 8206SOL    HW126515  14.630  14.686   7.192
 8206SOL    HW226516  14.746  14.677   7.096
 8207SOL     OW26517  10.793  11.890   0.407
 8207SOL    HW126518  10.819  11.982   0.417
 8207SOL    HW226519  10.767  11.863   0.495
 8208SOL     OW26520  13.011  11.886   8.605
 8208SOL    HW126521  13.066  11.959   8.577
 8208SOL    HW226522  12.970  11.855   8.525
 8209SOL     OW26523  10.856   7.050   9.262
 8209SOL    HW126524  10.770   7.069   9.225
 8209SOL    HW226525  10.859   7.102   9.343
 8210SOL     OW26526  11.732   9.803   5.982
 8210SOL    HW126527  11.774   9.755   5.911
 8210SOL    HW226528  11.657   9.846   5.941
 8211SOL     OW26529   5.109   8.536   7.788
 8211SOL    HW126530   5.024   8.499   7.813
 8211SOL    HW226531   5.100   8.557   7.695
 8212SOL     OW26532  14.753  12.873   3.790
 8212SOL    HW126533  14.718  12.962   3.788
 8212SOL    HW226534  14.828  12.878   3.848
 8213SOL     OW26535  12.027  11.936  12.163
 8213SOL    HW126536  12.071  11.970  12.241
 8213SOL    HW226537  11.975  12.010  12.130
 8214SOL     OW26538  12.053   4.616  11.485
 8214SOL    HW126539  11.989   4.573  11.429
 8214SOL    HW226540  12.110   4.545  11.515
 8215SOL     OW26541   5.343   8.673  10.826
 8215SOL    HW126542   5.426   8.626  10.820
 8215SOL    HW226543   5.365   8.764  10.808
 8216SOL     OW26544   1.366  11.267   0.929
 8216SOL    HW126545   1.341  11.182   0.965
 8216SOL    HW226546   1.336  11.331   0.994
 8217SOL     OW26547   3.336   4.768   9.127
 8217SOL    HW126548   3.345   4.680   9.163
 8217SOL    HW226549   3.245   4.792   9.145
 8218SOL     OW26550   2.998   6.665  13.938
 8218SOL    HW126551   2.929   6.628  13.883
 8218SOL    HW226552   2.984   6.759  13.935
 8219SOL     OW26553  11.605   5.676   8.889
 8219SOL    HW126554  11.528   5.662   8.834
 8219SOL    HW226555  11.679   5.667   8.829
 8220SOL     OW26556   4.997   0.520   4.043
 8220SOL    HW126557   4.968   0.470   4.119
 8220SOL    HW226558   5.093   0.520   4.049
 8221SOL     OW26559   8.006   5.135   6.432
 8221SOL    HW126560   8.073   5.153   6.366
 8221SOL    HW226561   7.991   5.041   6.425
 8222SOL     OW26562  14.090   9.205   3.622
 8222SOL    HW126563  14.035   9.242   3.692
 8222SOL    HW226564  14.133   9.281   3.584
 8223SOL     OW26565   8.798   5.028   8.911
 8223SOL    HW126566   8.736   4.998   8.977
 8223SOL    HW226567   8.745   5.042   8.833
 8224SOL     OW26568   7.676  10.371  12.372
 8224SOL    HW126569   7.728  10.350  12.451
 8224SOL    HW226570   7.732  10.343  12.299
 8225SOL     OW26571  14.515   7.358   2.759
 8225SOL    HW126572  14.579   7.299   2.721
 8225SOL    HW226573  14.496   7.421   2.690
 8226SOL     OW26574   7.803   5.830  12.873
 8226SOL    HW126575   7.783   5.924  12.871
 8226SOL    HW226576   7.791   5.802  12.782
 8227SOL     OW26577  14.732   5.754  12.691
 8227SOL    HW126578  14.651   5.780  12.735
 8227SOL    HW226579  14.744   5.662  12.715
 8228SOL     OW26580   6.845   3.068   8.858
 8228SOL    HW126581   6.936   3.038   8.869
 8228SOL    HW226582   6.794   2.987   8.855
 8229SOL     OW26583   0.951   0.749   7.104
 8229SOL    HW126584   0.952   0.746   7.009
 8229SOL    HW226585   0.935   0.659   7.131
 8230SOL     OW26586   3.686   3.596   3.036
 8230SOL    HW126587   3.743   3.670   3.055
 8230SOL    HW226588   3.655   3.612   2.946
 8231SOL     OW26589   1.398   2.277  12.899
 8231SOL    HW126590   1.390   2.290  12.993
 8231SOL    HW226591   1.403   2.366  12.863
 8232SOL     OW26592   4.946  12.559  11.034
 8232SOL    HW126593   4.951  12.558  11.130
 8232SOL    HW226594   5.018  12.615  11.007
 8233SOL     OW26595   0.357  14.255   1.102
 8233SOL    HW126596   0.450  14.242   1.121
 8233SOL    HW226597   0.312  14.199   1.165
 8234SOL     OW26598   8.866  14.477   9.828
 8234SOL    HW126599   8.895  14.568   9.826
 8234SOL    HW226600   8.774  14.481   9.803
 8235SOL     OW26601   4.209  10.509   2.425
 8235SOL    HW126602   4.153  10.585   2.411
 8235SOL    HW226603   4.246  10.491   2.339
 8236SOL     OW26604   0.491   5.348   7.831
 8236SOL    HW126605   0.556   5.313   7.771
 8236SOL    HW226606   0.421   5.381   7.774
 8237SOL     OW26607  11.840  13.230   0.524
 8237SOL    HW126608  11.829  13.154   0.582
 8237SOL    HW226609  11.754  13.241   0.483
 8238SOL     OW26610  12.115   0.830   0.836
 8238SOL    HW126611  12.087   0.919   0.856
 8238SOL    HW226612  12.038   0.789   0.795
 8239SOL     OW26613   6.575   3.212   2.302
 8239SOL    HW126614   6.550   3.198   2.393
 8239SOL    HW226615   6.620   3.296   2.303
 8240SOL     OW26616   8.829   2.499   8.834
 8240SOL    HW126617   8.790   2.563   8.892
 8240SOL    HW226618   8.838   2.420   8.887
 8241SOL     OW26619  11.403   1.271   8.095
 8241SOL    HW126620  11.384   1.179   8.077
 8241SOL    HW226621  11.326   1.303   8.143
 8242SOL     OW26622   2.248   4.226   7.786
 8242SOL    HW126623   2.294   4.305   7.812
 8242SOL    HW226624   2.169   4.225   7.840
 8243SOL     OW26625   2.687   3.719  12.310
 8243SOL    HW126626   2.631   3.671  12.371
 8243SOL    HW226627   2.770   3.728  12.356
 8244SOL     OW26628   7.273  10.591  14.101
 8244SOL    HW126629   7.315  10.590  14.015
 8244SOL    HW226630   7.243  10.501  14.115
 8245SOL     OW26631   9.083   7.193   2.709
 8245SOL    HW126632   9.005   7.140   2.721
 8245SOL    HW226633   9.135   7.144   2.644
 8246SOL     OW26634  13.687   8.903   6.066
 8246SOL    HW126635  13.763   8.955   6.092
 8246SOL    HW226636  13.642   8.956   6.000
 8247SOL     OW26637   5.759  11.040   3.930
 8247SOL    HW126638   5.763  10.954   3.888
 8247SOL    HW226639   5.822  11.034   4.002
 8248SOL     OW26640   2.296  12.305   6.139
 8248SOL    HW126641   2.303  12.228   6.195
 8248SOL    HW226642   2.370  12.359   6.164
 8249SOL     OW26643  11.134   5.260  11.953
 8249SOL    HW126644  11.066   5.318  11.989
 8249SOL    HW226645  11.210   5.316  11.941
 8250SOL     OW26646   7.020   3.144   7.558
 8250SOL    HW126647   6.961   3.188   7.619
 8250SOL    HW226648   6.975   3.062   7.537
 8251SOL     OW26649  12.822   2.370  14.699
 8251SOL    HW126650  12.757   2.304  14.726
 8251SOL    HW226651  12.792   2.451  14.739
 8252SOL     OW26652  13.716   7.147   3.734
 8252SOL    HW126653  13.630   7.166   3.772
 8252SOL    HW226654  13.727   7.212   3.665
 8253SOL     OW26655   3.179   0.832   2.086
 8253SOL    HW126656   3.126   0.850   2.007
 8253SOL    HW226657   3.269   0.848   2.058
 8254SOL     OW26658  11.221  12.679   8.438
 8254SOL    HW126659  11.162  12.697   8.364
 8254SOL    HW226660  11.245  12.587   8.427
 8255SOL     OW26661  10.109   0.867   0.135
 8255SOL    HW126662  10.116   0.819   0.052
 8255SOL    HW226663  10.146   0.807   0.200
 8256SOL     OW26664   3.801   6.807   8.189
 8256SOL    HW126665   3.711   6.788   8.163
 8256SOL    HW226666   3.811   6.901   8.171
 8257SOL     OW26667   3.617   1.700   0.991
 8257SOL    HW126668   3.541   1.722   1.044
 8257SOL    HW226669   3.580   1.665   0.910
 8258SOL     OW26670  14.149   3.846   7.290
 8258SOL    HW126671  14.154   3.933   7.328
 8258SOL    HW226672  14.218   3.796   7.333
 8259SOL     OW26673   4.461   5.258   0.558
 8259SOL    HW126674   4.477   5.266   0.652
 8259SOL    HW226675   4.494   5.339   0.521
 8260SOL     OW26676  11.788   7.296   1.881
 8260SOL    HW126677  11.776   7.308   1.787
 8260SOL    HW226678  11.795   7.384   1.917
 8261SOL     OW26679   9.102   0.531   9.954
 8261SOL    HW126680   9.034   0.597   9.968
 8261SOL    HW226681   9.128   0.503  10.042
 8262SOL     OW26682   6.790   4.043  13.669
 8262SOL    HW126683   6.853   4.089  13.614
 8262SOL    HW226684   6.763   4.107  13.735
 8263SOL     OW26685   1.559   1.794   6.580
 8263SOL    HW126686   1.641   1.833   6.547
 8263SOL    HW226687   1.499   1.800   6.506
 8264SOL     OW26688  13.117   1.616   8.090
 8264SOL    HW126689  13.183   1.548   8.106
 8264SOL    HW226690  13.167   1.691   8.060
 8265SOL     OW26691   7.435  10.960  11.393
 8265SOL    HW126692   7.391  10.997  11.469
 8265SOL    HW226693   7.385  10.881  11.373
 8266SOL     OW26694  10.969   3.658   6.859
 8266SOL    HW126695  11.055   3.674   6.896
 8266SOL    HW226696  10.908   3.670   6.932
 8267SOL     OW26697   4.954  14.231  10.826
 8267SOL    HW126698   5.027  14.269  10.777
 8267SOL    HW226699   4.953  14.279  10.909
 8268SOL     OW26700  12.680   3.629   0.592
 8268SOL    HW126701  12.611   3.639   0.526
 8268SOL    HW226702  12.655   3.551   0.641
 8269SOL     OW26703  10.584   6.492   3.104
 8269SOL    HW126704  10.525   6.531   3.169
 8269SOL    HW226705  10.569   6.543   3.025
 8270SOL     OW26706  14.725  12.107  13.483
 8270SOL    HW126707  14.739  12.162  13.406
 8270SOL    HW226708  14.795  12.132  13.543
 8271SOL     OW26709   6.334   5.766  13.947
 8271SOL    HW126710   6.255   5.820  13.948
 8271SOL    HW226711   6.405   5.827  13.967
 8272SOL     OW26712   2.260   2.203   9.786
 8272SOL    HW126713   2.238   2.140   9.718
 8272SOL    HW226714   2.200   2.183   9.858
 8273SOL     OW26715  10.112  11.637   7.367
 8273SOL    HW126716  10.165  11.696   7.314
 8273SOL    HW226717  10.067  11.581   7.303
 8274SOL     OW26718   9.125   2.977   3.514
 8274SOL    HW126719   9.067   2.987   3.589
 8274SOL    HW226720   9.108   2.888   3.482
 8275SOL     OW26721   4.502  12.053  12.871
 8275SOL    HW126722   4.456  11.993  12.812
 8275SOL    HW226723   4.499  12.137  12.826
 8276SOL     OW26724   4.154   0.283   3.083
 8276SOL    HW126725   4.103   0.354   3.044
 8276SOL    HW226726   4.099   0.205   3.071
 8277SOL     OW26727   1.692   0.353   4.738
 8277SOL    HW126728   1.605   0.379   4.769
 8277SOL    HW226729   1.702   0.263   4.768
 8278SOL     OW26730   0.490   1.037  12.453
 8278SOL    HW126731   0.439   1.046  12.534
 8278SOL    HW226732   0.548   1.112  12.453
 8279SOL     OW26733   8.357   2.778   9.310
 8279SOL    HW126734   8.341   2.854   9.366
 8279SOL    HW226735   8.451   2.764   9.314
 8280SOL     OW26736   4.851   4.179   2.476
 8280SOL    HW126737   4.790   4.136   2.536
 8280SOL    HW226738   4.836   4.137   2.391
 8281SOL     OW26739   3.852  11.979   6.097
 8281SOL    HW126740   3.911  11.994   6.172
 8281SOL    HW226741   3.902  12.007   6.021
 8282SOL     OW26742   2.359  13.478   5.149
 8282SOL    HW126743   2.294  13.547   5.139
 8282SOL    HW226744   2.348  13.447   5.239
 8283SOL     OW26745  13.589   7.117  11.357
 8283SOL    HW126746  13.606   7.025  11.377
 8283SOL    HW226747  13.497   7.130  11.381
 8284SOL     OW26748  14.357  11.674   4.068
 8284SOL    HW126749  14.352  11.669   4.163
 8284SOL    HW226750  14.300  11.747   4.045
 8285SOL     OW26751  11.158   0.321  10.618
 8285SOL    HW126752  11.168   0.267  10.696
 8285SOL    HW226753  11.064   0.319  10.599
 8286SOL     OW26754   5.828   3.945   6.681
 8286SOL    HW126755   5.782   4.023   6.711
 8286SOL    HW226756   5.882   3.976   6.608
 8287SOL     OW26757   1.213   9.835  10.569
 8287SOL    HW126758   1.240   9.874  10.486
 8287SOL    HW226759   1.203   9.742  10.550
 8288SOL     OW26760  13.488   1.473   1.088
 8288SOL    HW126761  13.543   1.421   1.147
 8288SOL    HW226762  13.526   1.458   1.002
 8289SOL     OW26763  10.460  13.390  13.627
 8289SOL    HW126764  10.477  13.305  13.586
 8289SOL    HW226765  10.546  13.422  13.652
 8290SOL     OW26766   0.829   2.271  12.082
 8290SOL    HW126767   0.773   2.200  12.115
 8290SOL    HW226768   0.792   2.293  11.996
 8291SOL     OW26769   0.509  10.949   3.809
 8291SOL    HW126770   0.597  10.975   3.836
 8291SOL    HW226771   0.477  10.893   3.879
 8292SOL     OW26772   0.321  14.743  11.787
 8292SOL    HW126773   0.290  14.804  11.720
 8292SOL    HW226774   0.402  14.782  11.819
 8293SOL     OW26775  13.639   2.773   1.555
 8293SOL    HW126776  13.659   2.710   1.624
 8293SOL    HW226777  13.601   2.721   1.484
 8294SOL     OW26778  14.415  12.894   8.066
 8294SOL    HW126779  14.332  12.922   8.103
 8294SOL    HW226780  14.393  12.865   7.978
 8295SOL     OW26781   5.405  11.448   8.537
 8295SOL    HW126782   5.323  11.407   8.565
 8295SOL    HW226783   5.440  11.490   8.616
 8296SOL     OW26784  13.075   8.245  12.092
 8296SOL    HW126785  12.999   8.216  12.144
 8296SOL    HW226786  13.043   8.245  12.001
 8297SOL     OW26787  11.080   3.972   0.744
 8297SOL    HW126788  11.152   3.912   0.763
 8297SOL    HW226789  11.082   3.983   0.649
 8298SOL     OW26790   3.862  12.516  13.119
 8298SOL    HW126791   3.945  12.548  13.154
 8298SOL    HW226792   3.873  12.516  13.024
 8299SOL     OW26793   9.965   3.624   7.504
 8299SOL    HW126794   9.955   3.661   7.416
 8299SOL    HW226795   9.944   3.697   7.562
 8300SOL     OW26796  14.184  13.322  14.256
 8300SOL    HW126797  14.165  13.416  14.254
 8300SOL    HW226798  14.240  13.311  14.332
 8301SOL     OW26799   7.586   0.827  12.263
 8301SOL    HW126800   7.669   0.802  12.222
 8301SOL    HW226801   7.567   0.754  12.323
 8302SOL     OW26802   1.941  11.945  11.222
 8302SOL    HW126803   1.926  11.890  11.145
 8302SOL    HW226804   1.896  11.900  11.293
 8303SOL     OW26805  10.059   7.992  10.075
 8303SOL    HW126806  10.056   7.925  10.143
 8303SOL    HW226807  10.119   8.059  10.110
 8304SOL     OW26808  10.303   5.616  11.145
 8304SOL    HW126809  10.310   5.647  11.055
 8304SOL    HW226810  10.392   5.626  11.181
 8305SOL     OW26811  11.507  11.783   0.650
 8305SOL    HW126812  11.444  11.732   0.599
 8305SOL    HW226813  11.485  11.765   0.741
 8306SOL     OW26814  11.107  12.596  14.420
 8306SOL    HW126815  11.155  12.536  14.477
 8306SOL    HW226816  11.174  12.631  14.361
 8307SOL     OW26817  12.473   0.288   3.640
 8307SOL    HW126818  12.521   0.243   3.571
 8307SOL    HW226819  12.540   0.332   3.692
 8308SOL     OW26820  10.619   2.043  12.329
 8308SOL    HW126821  10.589   2.065  12.418
 8308SOL    HW226822  10.696   1.989  12.343
 8309SOL     OW26823   7.660   5.268   1.775
 8309SOL    HW126824   7.717   5.244   1.703
 8309SOL    HW226825   7.651   5.363   1.769
 8310SOL     OW26826   4.122  12.199   2.020
 8310SOL    HW126827   4.211  12.229   2.038
 8310SOL    HW226828   4.066  12.254   2.075
 8311SOL     OW26829   6.399  10.712  14.872
 8311SOL    HW126830   6.463  10.771  14.832
 8311SOL    HW226831   6.448  10.668   0.060
 8312SOL     OW26832   2.177   4.434  11.294
 8312SOL    HW126833   2.109   4.369  11.313
 8312SOL    HW226834   2.163   4.503  11.358
 8313SOL     OW26835   1.391   3.032   6.291
 8313SOL    HW126836   1.427   3.110   6.334
 8313SOL    HW226837   1.315   3.008   6.345
 8314SOL     OW26838   5.314   2.042   6.136
 8314SOL    HW126839   5.393   2.040   6.190
 8314SOL    HW226840   5.318   1.962   6.084
 8315SOL     OW26841  13.959   6.185   4.635
 8315SOL    HW126842  13.970   6.138   4.553
 8315SOL    HW226843  13.915   6.267   4.611
 8316SOL     OW26844  11.667   6.744   7.426
 8316SOL    HW126845  11.609   6.766   7.499
 8316SOL    HW226846  11.743   6.703   7.467
 8317SOL     OW26847   8.701  12.210   5.375
 8317SOL    HW126848   8.638  12.282   5.376
 8317SOL    HW226849   8.786  12.251   5.391
 8318SOL     OW26850   5.809   0.690   3.856
 8318SOL    HW126851   5.824   0.601   3.887
 8318SOL    HW226852   5.891   0.736   3.874
 8319SOL     OW26853   9.169  12.846  10.604
 8319SOL    HW126854   9.149  12.907  10.533
 8319SOL    HW226855   9.262  12.862  10.623
 8320SOL     OW26856   3.781   5.057   8.567
 8320SOL    HW126857   3.757   4.967   8.545
 8320SOL    HW226858   3.699   5.106   8.562
 8321SOL     OW26859   4.064   9.193  12.161
 8321SOL    HW126860   4.107   9.278  12.157
 8321SOL    HW226861   4.083   9.160  12.249
 8322SOL     OW26862   6.578  13.042   9.605
 8322SOL    HW126863   6.603  13.120   9.655
 8322SOL    HW226864   6.662  13.000   9.583
 8323SOL     OW26865   1.436   7.859   8.567
 8323SOL    HW126866   1.355   7.896   8.601
 8323SOL    HW226867   1.410   7.811   8.489
 8324SOL     OW26868   4.512   6.603   9.120
 8324SOL    HW126869   4.486   6.511   9.132
 8324SOL    HW226870   4.431   6.647   9.093
 8325SOL     OW26871   6.311   9.923  10.716
 8325SOL    HW126872   6.325  10.005  10.764
 8325SOL    HW226873   6.257   9.949  10.641
 8326SOL     OW26874  11.749   1.514   1.869
 8326SOL    HW126875  11.717   1.515   1.960
 8326SOL    HW226876  11.812   1.443   1.866
 8327SOL     OW26877   8.525   0.196   0.604
 8327SOL    HW126878   8.519   0.273   0.548
 8327SOL    HW226879   8.507   0.122   0.546
 8328SOL     OW26880   6.743  13.810   1.711
 8328SOL    HW126881   6.785  13.889   1.744
 8328SOL    HW226882   6.774  13.802   1.621
 8329SOL     OW26883   3.166   5.691   8.061
 8329SOL    HW126884   3.253   5.655   8.047
 8329SOL    HW226885   3.117   5.667   7.983
 8330SOL     OW26886   5.416   2.492  13.699
 8330SOL    HW126887   5.506   2.522  13.680
 8330SOL    HW226888   5.401   2.421  13.636
 8331SOL     OW26889   6.056   6.942  14.246
 8331SOL    HW126890   6.069   6.877  14.315
 8331SOL    HW226891   6.095   6.902  14.168
 8332SOL     OW26892  11.893   4.354   1.439
 8332SOL    HW126893  11.830   4.335   1.370
 8332SOL    HW226894  11.913   4.447   1.428
 8333SOL     OW26895   8.125  13.917   8.565
 8333SOL    HW126896   8.156  13.928   8.475
 8333SOL    HW226897   8.160  13.993   8.612
 8334SOL     OW26898   1.128   3.626   5.661
 8334SOL    HW126899   1.062   3.686   5.696
 8334SOL    HW226900   1.107   3.541   5.699
 8335SOL     OW26901   2.706   5.425   2.308
 8335SOL    HW126902   2.622   5.405   2.266
 8335SOL    HW226903   2.682   5.454   2.396
 8336SOL     OW26904   3.281  13.232   6.211
 8336SOL    HW126905   3.367  13.192   6.204
 8336SOL    HW226906   3.263  13.233   6.305
 8337SOL     OW26907   4.963  14.314   8.884
 8337SOL    HW126908   4.969  14.397   8.837
 8337SOL    HW226909   5.048  14.272   8.870
 8338SOL     OW26910   2.607   3.376   6.755
 8338SOL    HW126911   2.546   3.432   6.706
 8338SOL    HW226912   2.628   3.305   6.694
 8339SOL     OW26913   5.565   6.559   7.303
 8339SOL    HW126914   5.515   6.584   7.226
 8339SOL    HW226915   5.637   6.622   7.308
 8340SOL     OW26916  12.894  14.773  12.424
 8340SOL    HW126917  12.899  14.678  12.414
 8340SOL    HW226918  12.809  14.796  12.386
 8341SOL     OW26919   8.232   6.884  13.069
 8341SOL    HW126920   8.240   6.915  13.159
 8341SOL    HW226921   8.287   6.943  13.018
 8342SOL     OW26922   3.723   0.196  10.504
 8342SOL    HW126923   3.717   0.109  10.464
 8342SOL    HW226924   3.692   0.255  10.435
 8343SOL     OW26925   0.706  12.687   0.613
 8343SOL    HW126926   0.717  12.781   0.602
 8343SOL    HW226927   0.701  12.674   0.708
 8344SOL     OW26928   6.538  13.550   5.889
 8344SOL    HW126929   6.583  13.506   5.962
 8344SOL    HW226930   6.446  13.525   5.900
 8345SOL     OW26931   5.986   6.491   0.607
 8345SOL    HW126932   6.053   6.502   0.675
 8345SOL    HW226933   5.907   6.465   0.656
 8346SOL     OW26934   6.115   6.572   7.379
 8346SOL    HW126935   6.154   6.514   7.444
 8346SOL    HW226936   6.047   6.619   7.427
 8347SOL     OW26937  14.302   4.642  10.719
 8347SOL    HW126938  14.339   4.727  10.745
 8347SOL    HW226939  14.285   4.651  10.626
 8348SOL     OW26940   1.993  14.363  12.550
 8348SOL    HW126941   2.057  14.418  12.504
 8348SOL    HW226942   2.016  14.373  12.642
 8349SOL     OW26943   3.172  10.473   5.006
 8349SOL    HW126944   3.173  10.567   4.989
 8349SOL    HW226945   3.079  10.450   5.010
 8350SOL     OW26946  11.496   9.818  14.407
 8350SOL    HW126947  11.431   9.866  14.457
 8350SOL    HW226948  11.447   9.747  14.365
 8351SOL     OW26949   0.514  11.631   8.062
 8351SOL    HW126950   0.435  11.582   8.084
 8351SOL    HW226951   0.500  11.718   8.099
 8352SOL     OW26952   4.667   5.481  11.156
 8352SOL    HW126953   4.741   5.426  11.181
 8352SOL    HW226954   4.707   5.561  11.123
 8353SOL     OW26955  12.167   2.905   3.501
 8353SOL    HW126956  12.082   2.882   3.463
 8353SOL    HW226957  12.170   2.856   3.584
 8354SOL     OW26958  12.754   2.954   9.303
 8354SOL    HW126959  12.815   2.903   9.250
 8354SOL    HW226960  12.784   3.044   9.293
 8355SOL     OW26961   4.197  14.451  11.010
 8355SOL    HW126962   4.123  14.390  11.015
 8355SOL    HW226963   4.163  14.533  11.045
 8356SOL     OW26964   5.622   7.603   4.323
 8356SOL    HW126965   5.593   7.556   4.245
 8356SOL    HW226966   5.672   7.678   4.290
 8357SOL     OW26967  13.277  12.240   0.894
 8357SOL    HW126968  13.220  12.274   0.963
 8357SOL    HW226969  13.365  12.269   0.918
 8358SOL     OW26970   5.762   2.586   6.467
 8358SOL    HW126971   5.787   2.494   6.477
 8358SOL    HW226972   5.733   2.612   6.554
 8359SOL     OW26973   1.904   3.463  11.644
 8359SOL    HW126974   1.872   3.494  11.729
 8359SOL    HW226975   1.834   3.406  11.611
 8360SOL     OW26976   0.159   0.227   6.190
 8360SOL    HW126977   0.210   0.307   6.186
 8360SOL    HW226978   0.201   0.175   6.258
 8361SOL     OW26979  11.083  12.448   6.935
 8361SOL    HW126980  11.160  12.458   6.990
 8361SOL    HW226981  11.045  12.535   6.931
 8362SOL     OW26982   5.185   5.099  11.246
 8362SOL    HW126983   5.235   5.021  11.221
 8362SOL    HW226984   5.222   5.168  11.191
 8363SOL     OW26985   3.056  13.639   6.224
 8363SOL    HW126986   3.040  13.585   6.301
 8363SOL    HW226987   3.098  13.580   6.161
 8364SOL     OW26988   9.618   7.235  10.153
 8364SOL    HW126989   9.643   7.199  10.238
 8364SOL    HW226990   9.534   7.193  10.133
 8365SOL     OW26991  11.640   2.805   5.968
 8365SOL    HW126992  11.694   2.883   5.977
 8365SOL    HW226993  11.582   2.808   6.045
 8366SOL     OW26994   2.528   7.548  14.612
 8366SOL    HW126995   2.466   7.564  14.541
 8366SOL    HW226996   2.604   7.508  14.569
 8367SOL     OW26997   9.283  13.692  13.296
 8367SOL    HW126998   9.235  13.672  13.215
 8367SOL    HW226999   9.229  13.756  13.341
 8368SOL     OW27000   0.260   2.034   6.934
 8368SOL    HW127001   0.310   2.112   6.909
 8368SOL    HW227002   0.169   2.059   6.923
 8369SOL     OW27003   7.747   6.936   6.816
 8369SOL    HW127004   7.818   6.976   6.766
 8369SOL    HW227005   7.791   6.872   6.872
 8370SOL     OW27006  14.342  14.687  10.630
 8370SOL    HW127007  14.348  14.740  10.710
 8370SOL    HW227008  14.332  14.751  10.560
 8371SOL     OW27009   1.111   1.322   9.363
 8371SOL    HW127010   1.035   1.323   9.421
 8371SOL    HW227011   1.186   1.332   9.422
 8372SOL     OW27012  12.804   3.308   6.316
 8372SOL    HW127013  12.821   3.394   6.355
 8372SOL    HW227014  12.772   3.255   6.388
 8373SOL     OW27015   2.320  10.602   0.371
 8373SOL    HW127016   2.362  10.530   0.323
 8373SOL    HW227017   2.344  10.681   0.322
 8374SOL     OW27018   1.047  14.375   9.163
 8374SOL    HW127019   1.139  14.351   9.149
 8374SOL    HW227020   1.050  14.469   9.182
 8375SOL     OW27021  10.257  11.879  13.491
 8375SOL    HW127022  10.230  11.787  13.497
 8375SOL    HW227023  10.244  11.913  13.580
 8376SOL     OW27024   0.027   6.778   1.173
 8376SOL    HW127025  14.845   6.714   1.203
 8376SOL    HW227026  14.857   6.844   1.126
 8377SOL     OW27027   0.886   7.281   3.665
 8377SOL    HW127028   0.805   7.306   3.621
 8377SOL    HW227029   0.859   7.216   3.730
 8378SOL     OW27030   5.886   7.988   4.379
 8378SOL    HW127031   5.842   7.974   4.463
 8378SOL    HW227032   5.821   7.967   4.313
 8379SOL     OW27033   0.066   0.408   4.318
 8379SOL    HW127034   0.043   0.345   4.250
 8379SOL    HW227035  14.872   0.465   4.325
 8380SOL     OW27036   4.761   4.000  11.076
 8380SOL    HW127037   4.708   3.920  11.085
 8380SOL    HW227038   4.700   4.072  11.089
 8381SOL     OW27039   1.914   8.884   5.464
 8381SOL    HW127040   1.843   8.827   5.435
 8381SOL    HW227041   1.903   8.965   5.413
 8382SOL     OW27042   2.781  12.463   2.444
 8382SOL    HW127043   2.815  12.538   2.394
 8382SOL    HW227044   2.838  12.390   2.419
 8383SOL     OW27045   5.375   1.584  11.157
 8383SOL    HW127046   5.417   1.528  11.222
 8383SOL    HW227047   5.281   1.573  11.172
 8384SOL     OW27048   5.235   0.380  10.289
 8384SOL    HW127049   5.301   0.450  10.285
 8384SOL    HW227050   5.152   0.426  10.278
 8385SOL     OW27051   7.656   4.089  14.589
 8385SOL    HW127052   7.705   4.035  14.527
 8385SOL    HW227053   7.583   4.124  14.539
 8386SOL     OW27054   0.846   9.838  12.765
 8386SOL    HW127055   0.858   9.863  12.856
 8386SOL    HW227056   0.821   9.919  12.721
 8387SOL     OW27057   5.865   8.828  13.072
 8387SOL    HW127058   5.807   8.878  13.015
 8387SOL    HW227059   5.950   8.834  13.030
 8388SOL     OW27060   7.337  10.085  11.716
 8388SOL    HW127061   7.432  10.099  11.717
 8388SOL    HW227062   7.325  10.000  11.674
 8389SOL     OW27063  10.607   7.841   7.437
 8389SOL    HW127064  10.533   7.835   7.377
 8389SOL    HW227065  10.682   7.811   7.386
 8390SOL     OW27066   3.945   4.146   9.085
 8390SOL    HW127067   3.913   4.103   9.006
 8390SOL    HW227068   4.040   4.132   9.084
 8391SOL     OW27069   2.795   2.015   5.279
 8391SOL    HW127070   2.811   1.929   5.239
 8391SOL    HW227071   2.807   2.077   5.207
 8392SOL     OW27072   2.236   2.830   6.950
 8392SOL    HW127073   2.157   2.778   6.958
 8392SOL    HW227074   2.241   2.853   6.858
 8393SOL     OW27075   4.535  14.016   7.847
 8393SOL    HW127076   4.441  14.025   7.836
 8393SOL    HW227077   4.573  14.088   7.796
 8394SOL     OW27078   9.872  13.229   1.992
 8394SOL    HW127079   9.891  13.235   1.899
 8394SOL    HW227080   9.836  13.141   2.004
 8395SOL     OW27081   1.341  11.736   7.120
 8395SOL    HW127082   1.400  11.663   7.135
 8395SOL    HW227083   1.254  11.702   7.139
 8396SOL     OW27084  10.370   7.550   4.872
 8396SOL    HW127085  10.370   7.474   4.813
 8396SOL    HW227086  10.281   7.585   4.866
 8397SOL     OW27087  13.205  14.005   5.163
 8397SOL    HW127088  13.117  14.039   5.151
 8397SOL    HW227089  13.258  14.049   5.096
 8398SOL     OW27090   7.588   9.970  10.317
 8398SOL    HW127091   7.582   9.912  10.393
 8398SOL    HW227092   7.681   9.972  10.295
 8399SOL     OW27093   9.912  13.303   7.883
 8399SOL    HW127094   9.859  13.247   7.940
 8399SOL    HW227095   9.957  13.242   7.824
 8400SOL     OW27096   1.977   9.511   0.222
 8400SOL    HW127097   1.988   9.540   0.131
 8400SOL    HW227098   2.003   9.419   0.220
 8401SOL     OW27099   8.550   2.306   9.686
 8401SOL    HW127100   8.506   2.359   9.619
 8401SOL    HW227101   8.502   2.325   9.767
 8402SOL     OW27102  13.349  14.452   8.677
 8402SOL    HW127103  13.327  14.373   8.628
 8402SOL    HW227104  13.445  14.455   8.675
 8403SOL     OW27105  12.659   9.694  12.812
 8403SOL    HW127106  12.565   9.683  12.822
 8403SOL    HW227107  12.671   9.789  12.802
 8404SOL     OW27108   6.560   3.293   7.545
 8404SOL    HW127109   6.649   3.302   7.580
 8404SOL    HW227110   6.541   3.199   7.554
 8405SOL     OW27111  14.090   4.986   1.324
 8405SOL    HW127112  14.143   5.061   1.350
 8405SOL    HW227113  14.130   4.911   1.367
 8406SOL     OW27114   6.525   6.144   8.119
 8406SOL    HW127115   6.515   6.124   8.213
 8406SOL    HW227116   6.438   6.128   8.082
 8407SOL     OW27117   7.291   8.071   2.107
 8407SOL    HW127118   7.338   8.077   2.023
 8407SOL    HW227119   7.283   7.977   2.123
 8408SOL     OW27120   2.334   6.035   6.119
 8408SOL    HW127121   2.278   6.056   6.193
 8408SOL    HW227122   2.420   6.017   6.158
 8409SOL     OW27123   9.221  13.835   8.149
 8409SOL    HW127124   9.270  13.783   8.085
 8409SOL    HW227125   9.246  13.925   8.131
 8410SOL     OW27126  12.622   7.064   3.010
 8410SOL    HW127127  12.708   7.103   3.021
 8410SOL    HW227128  12.616   7.045   2.916
 8411SOL     OW27129   5.127  14.154   4.999
 8411SOL    HW127130   5.135  14.124   5.090
 8411SOL    HW227131   5.099  14.245   5.006
 8412SOL     OW27132   1.089   6.994  12.955
 8412SOL    HW127133   1.065   7.084  12.932
 8412SOL    HW227134   1.101   6.950  12.871
 8413SOL     OW27135   0.146   0.301  10.112
 8413SOL    HW127136   0.052   0.300  10.093
 8413SOL    HW227137   0.152   0.286  10.206
 8414SOL     OW27138   2.556   3.152   9.065
 8414SOL    HW127139   2.471   3.128   9.029
 8414SOL    HW227140   2.607   3.071   9.064
 8415SOL     OW27141  13.809   6.686   5.819
 8415SOL    HW127142  13.808   6.734   5.736
 8415SOL    HW227143  13.740   6.727   5.872
 8416SOL     OW27144  10.590   4.934  11.985
 8416SOL    HW127145  10.618   5.006  12.040
 8416SOL    HW227146  10.670   4.886  11.964
 8417SOL     OW27147   1.223  10.521  12.486
 8417SOL    HW127148   1.218  10.540  12.580
 8417SOL    HW227149   1.183  10.598  12.444
 8418SOL     OW27150  11.303   5.897   2.423
 8418SOL    HW127151  11.307   5.985   2.461
 8418SOL    HW227152  11.372   5.896   2.356
 8419SOL     OW27153  14.659   6.099   6.359
 8419SOL    HW127154  14.689   6.048   6.284
 8419SOL    HW227155  14.642   6.186   6.325
 8420SOL     OW27156   2.279  11.474   5.430
 8420SOL    HW127157   2.262  11.420   5.507
 8420SOL    HW227158   2.215  11.444   5.365
 8421SOL     OW27159  13.889   9.472   7.560
 8421SOL    HW127160  13.920   9.561   7.540
 8421SOL    HW227161  13.832   9.450   7.487
 8422SOL     OW27162   8.129   0.490   7.418
 8422SOL    HW127163   8.123   0.584   7.403
 8422SOL    HW227164   8.222   0.474   7.435
 8423SOL     OW27165  12.374   0.186  13.437
 8423SOL    HW127166  12.295   0.223  13.396
 8423SOL    HW227167  12.393   0.245  13.510
 8424SOL     OW27168   1.172  11.526   2.370
 8424SOL    HW127169   1.094  11.553   2.417
 8424SOL    HW227170   1.197  11.602   2.318
 8425SOL     OW27171  13.878   5.286  13.540
 8425SOL    HW127172  13.855   5.219  13.475
 8425SOL    HW227173  13.885   5.367  13.489
 8426SOL     OW27174   3.449   7.775   3.070
 8426SOL    HW127175   3.485   7.835   3.005
 8426SOL    HW227176   3.354   7.786   3.063
 8427SOL     OW27177  10.864   1.978   3.386
 8427SOL    HW127178  10.825   2.064   3.399
 8427SOL    HW227179  10.930   1.971   3.454
 8428SOL     OW27180   0.640   1.891   7.717
 8428SOL    HW127181   0.553   1.931   7.717
 8428SOL    HW227182   0.698   1.959   7.681
 8429SOL     OW27183   5.477   2.904   5.973
 8429SOL    HW127184   5.501   2.965   6.043
 8429SOL    HW227185   5.549   2.910   5.910
 8430SOL     OW27186   2.861   0.096  10.364
 8430SOL    HW127187   2.916   0.055  10.430
 8430SOL    HW227188   2.812   0.163  10.411
 8431SOL     OW27189   7.649   9.491   8.696
 8431SOL    HW127190   7.670   9.414   8.643
 8431SOL    HW227191   7.693   9.563   8.651
 8432SOL     OW27192   6.797   4.347  14.286
 8432SOL    HW127193   6.722   4.393  14.325
 8432SOL    HW227194   6.761   4.263  14.259
 8433SOL     OW27195   3.593  10.511   7.250
 8433SOL    HW127196   3.634  10.488   7.166
 8433SOL    HW227197   3.547  10.431   7.276
 8434SOL     OW27198  14.031   1.978  10.738
 8434SOL    HW127199  14.068   2.014  10.819
 8434SOL    HW227200  14.026   2.052  10.678
 8435SOL     OW27201  12.009  14.345   8.527
 8435SOL    HW127202  12.034  14.276   8.465
 8435SOL    HW227203  11.993  14.300   8.609
 8436SOL     OW27204   1.229  10.883  14.382
 8436SOL    HW127205   1.300  10.947  14.387
 8436SOL    HW227206   1.193  10.893  14.294
 8437SOL     OW27207  10.975   3.653   3.059
 8437SOL    HW127208  11.028   3.711   3.004
 8437SOL    HW227209  10.890   3.650   3.016
 8438SOL     OW27210  11.068   8.295   0.190
 8438SOL    HW127211  11.163   8.289   0.184
 8438SOL    HW227212  11.039   8.303   0.099
 8439SOL     OW27213  13.270   2.680   9.288
 8439SOL    HW127214  13.190   2.701   9.334
 8439SOL    HW227215  13.258   2.719   9.201
 8440SOL     OW27216   7.698   3.876   8.667
 8440SOL    HW127217   7.627   3.880   8.731
 8440SOL    HW227218   7.700   3.785   8.638
 8441SOL     OW27219   7.182   1.595   0.682
 8441SOL    HW127220   7.191   1.523   0.619
 8441SOL    HW227221   7.215   1.559   0.764
 8442SOL     OW27222   0.684  13.417  14.874
 8442SOL    HW127223   0.606  13.399  14.821
 8442SOL    HW227224   0.713  13.330   0.021
 8443SOL     OW27225   1.977   8.731  11.449
 8443SOL    HW127226   1.939   8.791  11.385
 8443SOL    HW227227   2.018   8.788  11.514
 8444SOL     OW27228   0.975   9.537   6.731
 8444SOL    HW127229   0.954   9.528   6.825
 8444SOL    HW227230   0.909   9.599   6.699
 8445SOL     OW27231   0.659   6.755   9.054
 8445SOL    HW127232   0.576   6.786   9.018
 8445SOL    HW227233   0.633   6.697   9.127
 8446SOL     OW27234  13.394   5.255  14.814
 8446SOL    HW127235  13.431   5.215   0.010
 8446SOL    HW227236  13.425   5.200  14.742
 8447SOL     OW27237  13.794   8.516   2.464
 8447SOL    HW127238  13.868   8.456   2.472
 8447SOL    HW227239  13.784   8.530   2.370
 8448SOL     OW27240  12.303  10.053   9.835
 8448SOL    HW127241  12.227  10.011   9.876
 8448SOL    HW227242  12.354   9.981   9.799
 8449SOL     OW27243   0.855  12.623   4.724
 8449SOL    HW127244   0.779  12.616   4.782
 8449SOL    HW227245   0.868  12.534   4.691
 8450SOL     OW27246   3.290   4.611   8.723
 8450SOL    HW127247   3.223   4.543   8.728
 8450SOL    HW227248   3.253   4.685   8.772
 8451SOL     OW27249  12.373   6.856   1.417
 8451SOL    HW127250  12.283   6.880   1.396
 8451SOL    HW227251  12.371   6.836   1.511
 8452SOL     OW27252   7.947   1.633  14.695
 8452SOL    HW127253   8.028   1.617  14.646
 8452SOL    HW227254   7.881   1.580  14.650
 8453SOL     OW27255   8.780  12.357  14.000
 8453SOL    HW127256   8.767  12.290  14.067
 8453SOL    HW227257   8.829  12.313  13.931
 8454SOL     OW27258  13.263   0.033  13.834
 8454SOL    HW127259  13.259   0.124  13.866
 8454SOL    HW227260  13.306   0.040  13.749
 8455SOL     OW27261  13.227   8.112  10.618
 8455SOL    HW127262  13.240   8.202  10.587
 8455SOL    HW227263  13.187   8.121  10.704
 8456SOL     OW27264   2.333   1.702   5.003
 8456SOL    HW127265   2.417   1.735   5.035
 8456SOL    HW227266   2.268   1.748   5.056
 8457SOL     OW27267  11.899   9.744   6.652
 8457SOL    HW127268  11.979   9.757   6.601
 8457SOL    HW227269  11.867   9.833   6.670
 8458SOL     OW27270   8.928   6.134   2.629
 8458SOL    HW127271   8.976   6.215   2.615
 8458SOL    HW227272   8.852   6.158   2.682
 8459SOL     OW27273   5.703  13.622   3.777
 8459SOL    HW127274   5.747  13.561   3.836
 8459SOL    HW227275   5.722  13.589   3.689
 8460SOL     OW27276   5.665  12.262  10.579
 8460SOL    HW127277   5.710  12.298  10.655
 8460SOL    HW227278   5.698  12.173  10.570
 8461SOL     OW27279   6.424  11.780   9.623
 8461SOL    HW127280   6.460  11.703   9.578
 8461SOL    HW227281   6.383  11.831   9.554
 8462SOL     OW27282  13.874   3.258   6.546
 8462SOL    HW127283  13.898   3.323   6.480
 8462SOL    HW227284  13.928   3.280   6.622
 8463SOL     OW27285  14.726   3.446   7.298
 8463SOL    HW127286  14.713   3.483   7.210
 8463SOL    HW227287  14.749   3.354   7.282
 8464SOL     OW27288  13.997  14.504   1.848
 8464SOL    HW127289  13.918  14.560   1.846
 8464SOL    HW227290  14.000  14.471   1.937
 8465SOL     OW27291   1.637   5.667   1.842
 8465SOL    HW127292   1.618   5.592   1.787
 8465SOL    HW227293   1.581   5.737   1.807
 8466SOL     OW27294   0.585   8.065   2.130
 8466SOL    HW127295   0.627   7.981   2.152
 8466SOL    HW227296   0.606   8.078   2.037
 8467SOL     OW27297  10.544   8.377   7.031
 8467SOL    HW127298  10.454   8.399   7.007
 8467SOL    HW227299  10.569   8.445   7.093
 8468SOL     OW27300  11.663  11.429   2.017
 8468SOL    HW127301  11.631  11.391   2.099
 8468SOL    HW227302  11.623  11.375   1.948
 8469SOL     OW27303   8.279   5.022   4.701
 8469SOL    HW127304   8.245   5.108   4.725
 8469SOL    HW227305   8.365   5.041   4.663
 8470SOL     OW27306   0.842  10.408  12.349
 8470SOL    HW127307   0.875  10.478  12.293
 8470SOL    HW227308   0.791  10.352  12.291
 8471SOL     OW27309  11.176  14.409   6.846
 8471SOL    HW127310  11.257  14.359   6.846
 8471SOL    HW227311  11.111  14.350   6.885
 8472SOL     OW27312   5.273   3.332   2.621
 8472SOL    HW127313   5.179   3.348   2.628
 8472SOL    HW227314   5.311   3.378   2.695
 8473SOL     OW27315   4.705   7.674  11.014
 8473SOL    HW127316   4.610   7.677  11.001
 8473SOL    HW227317   4.740   7.742  10.956
 8474SOL     OW27318   9.398   7.326  11.276
 8474SOL    HW127319   9.375   7.319  11.369
 8474SOL    HW227320   9.389   7.419  11.256
 8475SOL     OW27321  12.069   8.946   9.440
 8475SOL    HW127322  12.137   9.010   9.419
 8475SOL    HW227323  11.987   8.990   9.416
 8476SOL     OW27324   2.052   0.754   4.058
 8476SOL    HW127325   2.124   0.805   4.094
 8476SOL    HW227326   2.017   0.704   4.132
 8477SOL     OW27327   2.014  14.504   2.480
 8477SOL    HW127328   2.044  14.508   2.571
 8477SOL    HW227329   2.095  14.496   2.429
 8478SOL     OW27330   4.303   2.171   1.143
 8478SOL    HW127331   4.331   2.083   1.168
 8478SOL    HW227332   4.384   2.219   1.129
 8479SOL     OW27333   5.175   4.949   4.240
 8479SOL    HW127334   5.079   4.960   4.241
 8479SOL    HW227335   5.191   4.874   4.296
 8480SOL     OW27336   1.431   3.205  13.095
 8480SOL    HW127337   1.382   3.257  13.032
 8480SOL    HW227338   1.505   3.170  13.046
 8481SOL     OW27339   0.693   3.097   8.008
 8481SOL    HW127340   0.705   3.067   7.918
 8481SOL    HW227341   0.599   3.116   8.015
 8482SOL     OW27342   0.343   8.843  11.749
 8482SOL    HW127343   0.256   8.863  11.715
 8482SOL    HW227344   0.375   8.772  11.694
 8483SOL     OW27345   2.533   2.526   3.376
 8483SOL    HW127346   2.453   2.574   3.355
 8483SOL    HW227347   2.503   2.451   3.426
 8484SOL     OW27348   2.106   6.401   7.179
 8484SOL    HW127349   2.167   6.384   7.250
 8484SOL    HW227350   2.024   6.360   7.206
 8485SOL     OW27351  13.153  12.921   2.649
 8485SOL    HW127352  13.117  12.832   2.643
 8485SOL    HW227353  13.234  12.916   2.597
 8486SOL     OW27354  10.297   5.018   0.618
 8486SOL    HW127355  10.260   4.981   0.698
 8486SOL    HW227356  10.298   4.946   0.556
 8487SOL     OW27357   0.823   7.288   1.360
 8487SOL    HW127358   0.899   7.232   1.340
 8487SOL    HW227359   0.838   7.317   1.450
 8488SOL     OW27360   1.483   6.834  12.783
 8488SOL    HW127361   1.504   6.760  12.839
 8488SOL    HW227362   1.426   6.798  12.715
 8489SOL     OW27363   4.441   1.514   5.316
 8489SOL    HW127364   4.370   1.495   5.377
 8489SOL    HW227365   4.397   1.539   5.235
 8490SOL     OW27366   8.595  14.411  11.198
 8490SOL    HW127367   8.576  14.384  11.109
 8490SOL    HW227368   8.688  14.391  11.210
 8491SOL     OW27369  13.485   7.357   7.722
 8491SOL    HW127370  13.421   7.377   7.654
 8491SOL    HW227371  13.435   7.357   7.803
 8492SOL     OW27372  10.041   6.791   2.805
 8492SOL    HW127373   9.990   6.842   2.868
 8492SOL    HW227374   9.993   6.709   2.795
 8493SOL     OW27375   9.055   1.521   5.167
 8493SOL    HW127376   9.090   1.604   5.200
 8493SOL    HW227377   9.018   1.478   5.244
 8494SOL     OW27378  12.391   3.163   4.690
 8494SOL    HW127379  12.322   3.185   4.752
 8494SOL    HW227380  12.449   3.239   4.690
 8495SOL     OW27381  12.221   4.609   0.221
 8495SOL    HW127382  12.203   4.681   0.161
 8495SOL    HW227383  12.279   4.551   0.173
 8496SOL     OW27384   8.915  13.134  10.462
 8496SOL    HW127385   8.875  13.072  10.523
 8496SOL    HW227386   8.848  13.149  10.396
 8497SOL     OW27387   3.564  13.225   6.192
 8497SOL    HW127388   3.623  13.237   6.266
 8497SOL    HW227389   3.578  13.303   6.138
 8498SOL     OW27390  14.363   5.945   6.809
 8498SOL    HW127391  14.443   5.900   6.782
 8498SOL    HW227392  14.386   5.986   6.893
 8499SOL     OW27393   0.154  14.686   0.648
 8499SOL    HW127394   0.073  14.715   0.689
 8499SOL    HW227395   0.149  14.590   0.652
 8500SOL     OW27396   5.065   3.035   8.406
 8500SOL    HW127397   5.158   3.015   8.397
 8500SOL    HW227398   5.048   3.028   8.500
 8501SOL     OW27399   0.829   6.000   8.184
 8501SOL    HW127400   0.872   6.081   8.209
 8501SOL    HW227401   0.739   6.025   8.163
 8502SOL     OW27402  14.670   5.360   0.329
 8502SOL    HW127403  14.612   5.337   0.402
 8502SOL    HW227404  14.715   5.439   0.359
 8503SOL     OW27405   6.471   0.015   7.939
 8503SOL    HW127406   6.417  14.858   7.870
 8503SOL    HW227407   6.493  14.825   7.997
 8504SOL     OW27408  10.551  12.068   9.938
 8504SOL    HW127409  10.509  12.128   9.999
 8504SOL    HW227410  10.523  11.981   9.967
 8505SOL     OW27411   7.684  14.143   6.159
 8505SOL    HW127412   7.679  14.184   6.246
 8505SOL    HW227413   7.606  14.174   6.113
 8506SOL     OW27414   4.650   4.267  13.535
 8506SOL    HW127415   4.613   4.278  13.623
 8506SOL    HW227416   4.730   4.319  13.536
 8507SOL     OW27417  12.616   2.270  12.364
 8507SOL    HW127418  12.649   2.236  12.280
 8507SOL    HW227419  12.634   2.201  12.427
 8508SOL     OW27420  14.291   4.760   8.488
 8508SOL    HW127421  14.343   4.732   8.563
 8508SOL    HW227422  14.277   4.854   8.502
 8509SOL     OW27423  13.435  11.790   7.467
 8509SOL    HW127424  13.347  11.781   7.431
 8509SOL    HW227425  13.426  11.766   7.560
 8510SOL     OW27426   4.333   8.912   0.644
 8510SOL    HW127427   4.355   8.819   0.643
 8510SOL    HW227428   4.418   8.956   0.641
 8511SOL     OW27429   2.853  14.434   0.056
 8511SOL    HW127430   2.944  14.456   0.074
 8511SOL    HW227431   2.805  14.516   0.071
 8512SOL     OW27432   4.307   7.816  12.492
 8512SOL    HW127433   4.284   7.730  12.528
 8512SOL    HW227434   4.389   7.800  12.445
 8513SOL     OW27435   9.456   2.821   5.618
 8513SOL    HW127436   9.433   2.822   5.711
 8513SOL    HW227437   9.372   2.828   5.573
 8514SOL     OW27438   0.137  12.184  14.838
 8514SOL    HW127439   0.046  12.154  14.836
 8514SOL    HW227440   0.167  12.162   0.044
 8515SOL     OW27441   7.324   6.508   8.185
 8515SOL    HW127442   7.254   6.544   8.131
 8515SOL    HW227443   7.279   6.461   8.256
 8516SOL     OW27444  13.630  12.258   6.900
 8516SOL    HW127445  13.614  12.274   6.807
 8516SOL    HW227446  13.719  12.223   6.904
 8517SOL     OW27447   9.824  12.092  10.494
 8517SOL    HW127448   9.809  12.159  10.427
 8517SOL    HW227449   9.748  12.035  10.488
 8518SOL     OW27450   0.624   4.927   0.480
 8518SOL    HW127451   0.703   4.981   0.480
 8518SOL    HW227452   0.655   4.839   0.498
 8519SOL     OW27453   4.216   7.874  13.792
 8519SOL    HW127454   4.219   7.968  13.775
 8519SOL    HW227455   4.259   7.863  13.877
 8520SOL     OW27456   7.297   2.905   5.297
 8520SOL    HW127457   7.359   2.974   5.275
 8520SOL    HW227458   7.340   2.824   5.269
 8521SOL     OW27459  14.612   7.800   1.569
 8521SOL    HW127460  14.639   7.741   1.498
 8521SOL    HW227461  14.524   7.829   1.543
 8522SOL     OW27462   1.832   7.890   5.999
 8522SOL    HW127463   1.873   7.834   6.065
 8522SOL    HW227464   1.818   7.973   6.044
 8523SOL     OW27465   7.704   9.925  14.760
 8523SOL    HW127466   7.718   9.996  14.699
 8523SOL    HW227467   7.732   9.846  14.713
 8524SOL     OW27468   6.558   2.408  10.612
 8524SOL    HW127469   6.495   2.372  10.550
 8524SOL    HW227470   6.508   2.470  10.664
 8525SOL     OW27471   6.804   1.360   5.495
 8525SOL    HW127472   6.824   1.424   5.426
 8525SOL    HW227473   6.710   1.344   5.486
 8526SOL     OW27474   2.648  13.972   7.920
 8526SOL    HW127475   2.692  14.005   7.998
 8526SOL    HW227476   2.674  13.880   7.914
 8527SOL     OW27477  10.940  12.897   6.855
 8527SOL    HW127478  10.870  12.962   6.858
 8527SOL    HW227479  10.914  12.830   6.917
 8528SOL     OW27480   8.907   2.436   4.591
 8528SOL    HW127481   8.869   2.349   4.607
 8528SOL    HW227482   8.991   2.418   4.550
 8529SOL     OW27483  12.131   7.146   9.431
 8529SOL    HW127484  12.044   7.120   9.462
 8529SOL    HW227485  12.132   7.241   9.438
 8530SOL     OW27486   1.833  12.178   9.725
 8530SOL    HW127487   1.843  12.173   9.820
 8530SOL    HW227488   1.767  12.246   9.712
 8531SOL     OW27489  10.371   4.659   4.352
 8531SOL    HW127490  10.300   4.660   4.417
 8531SOL    HW227491  10.430   4.590   4.383
 8532SOL     OW27492   3.313   7.051  11.544
 8532SOL    HW127493   3.254   7.122  11.519
 8532SOL    HW227494   3.268   6.971  11.515
 8533SOL     OW27495   8.836   7.325   9.994
 8533SOL    HW127496   8.928   7.306   9.975
 8533SOL    HW227497   8.795   7.336   9.908
 8534SOL     OW27498   8.431   0.570   6.088
 8534SOL    HW127499   8.345   0.538   6.115
 8534SOL    HW227500   8.486   0.493   6.085
 8535SOL     OW27501   7.657   4.290   5.138
 8535SOL    HW127502   7.609   4.209   5.154
 8535SOL    HW227503   7.718   4.296   5.212
 8536SOL     OW27504   4.119   8.919  10.613
 8536SOL    HW127505   4.048   8.879  10.662
 8536SOL    HW227506   4.154   8.986  10.672
 8537SOL     OW27507   6.725   8.670  13.437
 8537SOL    HW127508   6.738   8.765  13.440
 8537SOL    HW227509   6.788   8.639  13.371
 8538SOL     OW27510   6.631   9.046   5.296
 8538SOL    HW127511   6.711   9.074   5.250
 8538SOL    HW227512   6.595   8.977   5.239
 8539SOL     OW27513  14.553   2.372   4.974
 8539SOL    HW127514  14.506   2.378   5.057
 8539SOL    HW227515  14.516   2.296   4.930
 8540SOL     OW27516  11.192   9.581   9.043
 8540SOL    HW127517  11.284   9.564   9.065
 8540SOL    HW227518  11.164   9.645   9.107
 8541SOL     OW27519   4.685   9.628   6.263
 8541SOL    HW127520   4.678   9.617   6.358
 8541SOL    HW227521   4.596   9.614   6.230
 8542SOL     OW27522  14.834  12.455   5.591
 8542SOL    HW127523  14.764  12.412   5.542
 8542SOL    HW227524   0.025  12.461   5.529
 8543SOL     OW27525  10.090   1.857   3.212
 8543SOL    HW127526  10.156   1.803   3.169
 8543SOL    HW227527  10.135   1.896   3.287
 8544SOL     OW27528   1.284  14.465  11.961
 8544SOL    HW127529   1.360  14.431  11.913
 8544SOL    HW227530   1.260  14.545  11.915
 8545SOL     OW27531   8.590   0.618   3.109
 8545SOL    HW127532   8.603   0.524   3.096
 8545SOL    HW227533   8.613   0.657   3.025
 8546SOL     OW27534   4.853   5.303  12.612
 8546SOL    HW127535   4.929   5.338  12.565
 8546SOL    HW227536   4.814   5.379  12.655
 8547SOL     OW27537   4.118   6.938   4.304
 8547SOL    HW127538   4.071   7.007   4.351
 8547SOL    HW227539   4.181   6.904   4.368
 8548SOL     OW27540   6.887  12.077   6.206
 8548SOL    HW127541   6.861  12.019   6.278
 8548SOL    HW227542   6.922  12.018   6.139
 8549SOL     OW27543   1.722   8.073   5.769
 8549SOL    HW127544   1.740   7.985   5.802
 8549SOL    HW227545   1.751   8.131   5.839
 8550SOL     OW27546   9.983   0.033   4.817
 8550SOL    HW127547   9.977   0.076   4.902
 8550SOL    HW227548   9.894   0.040   4.780
 8551SOL     OW27549   6.396   6.169   3.365
 8551SOL    HW127550   6.303   6.169   3.388
 8551SOL    HW227551   6.404   6.102   3.298
 8552SOL     OW27552  13.032   8.795   5.045
 8552SOL    HW127553  12.979   8.856   5.096
 8552SOL    HW227554  13.122   8.810   5.076
 8553SOL     OW27555  13.286  10.147   6.407
 8553SOL    HW127556  13.310  10.236   6.432
 8553SOL    HW227557  13.348  10.091   6.454
 8554SOL     OW27558   3.051   1.843   7.460
 8554SOL    HW127559   3.039   1.937   7.477
 8554SOL    HW227560   2.972   1.817   7.414
 8555SOL     OW27561   2.573   8.115   5.506
 8555SOL    HW127562   2.488   8.139   5.471
 8555SOL    HW227563   2.621   8.197   5.513
 8556SOL     OW27564   5.778  10.395  13.971
 8556SOL    HW127565   5.780  10.312  14.020
 8556SOL    HW227566   5.693  10.434  13.993
 8557SOL     OW27567   9.352  14.616  14.743
 8557SOL    HW127568   9.367  14.551  14.675
 8557SOL    HW227569   9.288  14.677  14.706
 8558SOL     OW27570  12.872  11.165  12.559
 8558SOL    HW127571  12.906  11.252  12.539
 8558SOL    HW227572  12.782  11.181  12.589
 8559SOL     OW27573   6.806   2.698   3.763
 8559SOL    HW127574   6.754   2.678   3.841
 8559SOL    HW227575   6.757   2.657   3.691
 8560SOL     OW27576   3.812  12.613   4.667
 8560SOL    HW127577   3.842  12.695   4.627
 8560SOL    HW227578   3.783  12.639   4.754
 8561SOL     OW27579   1.708  14.612  11.095
 8561SOL    HW127580   1.626  14.652  11.123
 8561SOL    HW227581   1.734  14.662  11.018
 8562SOL     OW27582   6.812   0.603   7.440
 8562SOL    HW127583   6.803   0.647   7.355
 8562SOL    HW227584   6.876   0.656   7.488
 8563SOL     OW27585   1.839   9.229  14.497
 8563SOL    HW127586   1.875   9.256  14.581
 8563SOL    HW227587   1.905   9.171  14.460
 8564SOL     OW27588   1.052  12.331   9.387
 8564SOL    HW127589   0.975  12.368   9.431
 8564SOL    HW227590   1.120  12.397   9.399
 8565SOL     OW27591  14.524   8.198  12.592
 8565SOL    HW127592  14.611   8.183  12.630
 8565SOL    HW227593  14.523   8.144  12.513
 8566SOL     OW27594  14.152  11.539   7.365
 8566SOL    HW127595  14.174  11.509   7.277
 8566SOL    HW227596  14.135  11.459   7.414
 8567SOL     OW27597  11.096   7.150   4.179
 8567SOL    HW127598  11.128   7.147   4.269
 8567SOL    HW227599  11.143   7.222   4.138
 8568SOL     OW27600   6.716   6.263   9.812
 8568SOL    HW127601   6.755   6.178   9.791
 8568SOL    HW227602   6.727   6.314   9.732
 8569SOL     OW27603   3.290   6.633  13.990
 8569SOL    HW127604   3.293   6.600  14.079
 8569SOL    HW227605   3.201   6.667  13.979
 8570SOL     OW27606   9.187   7.474  11.519
 8570SOL    HW127607   9.176   7.397  11.464
 8570SOL    HW227608   9.101   7.487  11.559
 8571SOL     OW27609  11.230   9.081   1.125
 8571SOL    HW127610  11.318   9.060   1.157
 8571SOL    HW227611  11.181   8.999   1.135
 8572SOL     OW27612  11.225   6.027   6.134
 8572SOL    HW127613  11.290   6.063   6.074
 8572SOL    HW227614  11.153   6.090   6.132
 8573SOL     OW27615   9.110   3.569   6.780
 8573SOL    HW127616   9.073   3.512   6.713
 8573SOL    HW227617   9.034   3.606   6.826
 8574SOL     OW27618   4.879  11.903  13.279
 8574SOL    HW127619   4.841  11.967  13.218
 8574SOL    HW227620   4.838  11.923  13.363
 8575SOL     OW27621  11.881   3.498  14.706
 8575SOL    HW127622  11.930   3.513  14.626
 8575SOL    HW227623  11.817   3.569  14.709
 8576SOL     OW27624   4.658  10.803  14.609
 8576SOL    HW127625   4.570  10.772  14.584
 8576SOL    HW227626   4.717  10.760  14.547
 8577SOL     OW27627  10.426  14.095   8.422
 8577SOL    HW127628  10.501  14.154   8.423
 8577SOL    HW227629  10.421  14.063   8.332
 8578SOL     OW27630   4.210   7.567   4.905
 8578SOL    HW127631   4.237   7.630   4.972
 8578SOL    HW227632   4.127   7.601   4.872
 8579SOL     OW27633   0.652  10.634  14.495
 8579SOL    HW127634   0.742  10.605  14.507
 8579SOL    HW227635   0.599  10.562  14.528
 8580SOL     OW27636   3.823  10.284  12.208
 8580SOL    HW127637   3.872  10.343  12.265
 8580SOL    HW227638   3.732  10.311  12.218
 8581SOL     OW27639  11.338   8.694   4.290
 8581SOL    HW127640  11.342   8.727   4.380
 8581SOL    HW227641  11.423   8.717   4.253
 8582SOL     OW27642  11.822  12.705  14.509
 8582SOL    HW127643  11.866  12.785  14.537
 8582SOL    HW227644  11.803  12.658  14.591
 8583SOL     OW27645   2.342   4.914   5.680
 8583SOL    HW127646   2.325   4.899   5.587
 8583SOL    HW227647   2.299   4.841   5.724
 8584SOL     OW27648   0.929   7.602  13.985
 8584SOL    HW127649   0.904   7.600  14.077
 8584SOL    HW227650   0.991   7.675  13.978
 8585SOL     OW27651   7.379  11.348   9.680
 8585SOL    HW127652   7.310  11.327   9.742
 8585SOL    HW227653   7.425  11.265   9.665
 8586SOL     OW27654   6.184   9.443  13.749
 8586SOL    HW127655   6.199   9.516  13.690
 8586SOL    HW227656   6.270   9.402  13.759
 8587SOL     OW27657   0.807   0.905   1.329
 8587SOL    HW127658   0.888   0.904   1.279
 8587SOL    HW227659   0.833   0.875   1.416
 8588SOL     OW27660   4.954   5.363   2.415
 8588SOL    HW127661   4.860   5.379   2.419
 8588SOL    HW227662   4.987   5.430   2.354
 8589SOL     OW27663   5.734  10.943   7.713
 8589SOL    HW127664   5.644  10.917   7.691
 8589SOL    HW227665   5.735  10.949   7.809
 8590SOL     OW27666   5.659   4.017   7.758
 8590SOL    HW127667   5.671   3.923   7.744
 8590SOL    HW227668   5.599   4.044   7.688
 8591SOL     OW27669   6.781   7.342   2.694
 8591SOL    HW127670   6.762   7.428   2.658
 8591SOL    HW227671   6.876   7.336   2.694
 8592SOL     OW27672  14.082   4.619  11.742
 8592SOL    HW127673  14.062   4.708  11.770
 8592SOL    HW227674  14.034   4.562  11.802
 8593SOL     OW27675  13.916   3.737  14.832
 8593SOL    HW127676  13.959   3.754  14.748
 8593SOL    HW227677  13.831   3.699  14.809
 8594SOL     OW27678   1.367   7.931   5.560
 8594SOL    HW127679   1.295   7.976   5.602
 8594SOL    HW227680   1.394   7.864   5.624
 8595SOL     OW27681  14.215   0.165  11.167
 8595SOL    HW127682  14.133   0.139  11.125
 8595SOL    HW227683  14.274   0.090  11.152
 8596SOL     OW27684   5.874   2.293   0.234
 8596SOL    HW127685   5.872   2.261   0.324
 8596SOL    HW227686   5.902   2.384   0.241
 8597SOL     OW27687  11.652   1.773   0.499
 8597SOL    HW127688  11.572   1.826   0.506
 8597SOL    HW227689  11.654   1.722   0.579
 8598SOL     OW27690   4.256   1.573   0.277
 8598SOL    HW127691   4.303   1.501   0.235
 8598SOL    HW227692   4.201   1.530   0.343
 8599SOL     OW27693  10.348   6.052   0.189
 8599SOL    HW127694  10.312   6.135   0.219
 8599SOL    HW227695  10.420   6.034   0.249
 8600SOL     OW27696   3.381  12.045  11.098
 8600SOL    HW127697   3.456  12.101  11.118
 8600SOL    HW227698   3.311  12.106  11.074
 8601SOL     OW27699   5.341   8.686   8.619
 8601SOL    HW127700   5.319   8.738   8.696
 8601SOL    HW227701   5.403   8.621   8.651
 8602SOL     OW27702   1.620  12.036   8.420
 8602SOL    HW127703   1.653  11.988   8.496
 8602SOL    HW227704   1.650  11.985   8.345
 8603SOL     OW27705   8.390   6.438   4.625
 8603SOL    HW127706   8.346   6.506   4.574
 8603SOL    HW227707   8.324   6.370   4.637
 8604SOL     OW27708   4.927   5.869   2.021
 8604SOL    HW127709   4.858   5.809   1.993
 8604SOL    HW227710   4.999   5.812   2.048
 8605SOL     OW27711   4.167  14.743   8.765
 8605SOL    HW127712   4.197  14.699   8.685
 8605SOL    HW227713   4.091  14.692   8.793
 8606SOL     OW27714  10.591  14.183  10.196
 8606SOL    HW127715  10.686  14.174  10.207
 8606SOL    HW227716  10.574  14.276  10.208
 8607SOL     OW27717   5.425   9.887   7.896
 8607SOL    HW127718   5.431   9.981   7.913
 8607SOL    HW227719   5.348   9.879   7.840
 8608SOL     OW27720   0.990   9.491  12.954
 8608SOL    HW127721   0.954   9.544  13.025
 8608SOL    HW227722   0.959   9.534  12.874
 8609SOL     OW27723   1.690  11.959   4.992
 8609SOL    HW127724   1.661  11.931   4.905
 8609SOL    HW227725   1.762  11.901   5.014
 8610SOL     OW27726   7.556   0.876   8.575
 8610SOL    HW127727   7.558   0.967   8.603
 8610SOL    HW227728   7.616   0.831   8.634
 8611SOL     OW27729   5.486   2.126   5.012
 8611SOL    HW127730   5.445   2.189   5.072
 8611SOL    HW227731   5.515   2.178   4.938
 8612SOL     OW27732   4.682   6.107   9.942
 8612SOL    HW127733   4.672   6.103  10.037
 8612SOL    HW227734   4.605   6.156   9.912
 8613SOL     OW27735   8.071   5.710  13.751
 8613SOL    HW127736   8.108   5.775  13.692
 8613SOL    HW227737   8.146   5.665  13.788
 8614SOL     OW27738  11.240   6.199   3.899
 8614SOL    HW127739  11.177   6.145   3.852
 8614SOL    HW227740  11.190   6.237   3.971
 8615SOL     OW27741  11.507   1.817  13.107
 8615SOL    HW127742  11.517   1.806  13.201
 8615SOL    HW227743  11.423   1.775  13.087
 8616SOL     OW27744  13.885   9.422  12.026
 8616SOL    HW127745  13.859   9.367  11.953
 8616SOL    HW227746  13.874   9.512  11.993
 8617SOL     OW27747   7.166  13.543  10.345
 8617SOL    HW127748   7.234  13.532  10.279
 8617SOL    HW227749   7.100  13.478  10.323
 8618SOL     OW27750  11.181   0.318   3.606
 8618SOL    HW127751  11.095   0.310   3.648
 8618SOL    HW227752  11.234   0.250   3.647
 8619SOL     OW27753  14.086   8.366   7.208
 8619SOL    HW127754  14.115   8.309   7.279
 8619SOL    HW227755  14.072   8.451   7.250
 8620SOL     OW27756   0.822   9.218   0.090
 8620SOL    HW127757   0.835   9.241   0.182
 8620SOL    HW227758   0.733   9.247   0.070
 8621SOL     OW27759   6.344  14.834   2.365
 8621SOL    HW127760   6.352  14.764   2.430
 8621SOL    HW227761   6.265  14.813   2.316
 8622SOL     OW27762  10.182   7.483   7.456
 8622SOL    HW127763  10.244   7.528   7.514
 8622SOL    HW227764  10.099   7.528   7.471
 8623SOL     OW27765   9.486  12.818   1.104
 8623SOL    HW127766   9.554  12.884   1.120
 8623SOL    HW227767   9.431  12.857   1.036
 8624SOL     OW27768   0.948   5.499  10.177
 8624SOL    HW127769   1.003   5.420  10.173
 8624SOL    HW227770   0.938   5.515  10.271
 8625SOL     OW27771   9.999   7.317  13.447
 8625SOL    HW127772  10.084   7.361  13.460
 8625SOL    HW227773   9.988   7.262  13.525
 8626SOL     OW27774   4.810   2.436  12.038
 8626SOL    HW127775   4.763   2.430  12.121
 8626SOL    HW227776   4.800   2.528  12.012
 8627SOL     OW27777   8.745   1.265   4.491
 8627SOL    HW127778   8.675   1.327   4.513
 8627SOL    HW227779   8.720   1.184   4.535
 8628SOL     OW27780   3.435  11.197   1.124
 8628SOL    HW127781   3.366  11.170   1.063
 8628SOL    HW227782   3.396  11.268   1.175
 8629SOL     OW27783   1.357  11.915   7.811
 8629SOL    HW127784   1.451  11.930   7.813
 8629SOL    HW227785   1.343  11.842   7.872
 8630SOL     OW27786  12.650  12.452   0.099
 8630SOL    HW127787  12.626  12.520   0.036
 8630SOL    HW227788  12.609  12.480   0.181
 8631SOL     OW27789   8.951  10.991  11.397
 8631SOL    HW127790   8.952  11.023  11.488
 8631SOL    HW227791   8.953  11.071  11.344
 8632SOL     OW27792   8.846   3.834  12.269
 8632SOL    HW127793   8.827   3.922  12.299
 8632SOL    HW227794   8.777   3.814  12.206
 8633SOL     OW27795  11.101   2.789  11.475
 8633SOL    HW127796  11.151   2.718  11.514
 8633SOL    HW227797  11.099   2.769  11.382
 8634SOL     OW27798   7.269   5.001   8.858
 8634SOL    HW127799   7.276   4.979   8.951
 8634SOL    HW227800   7.347   5.053   8.839
 8635SOL     OW27801   6.405   5.490  12.507
 8635SOL    HW127802   6.386   5.557  12.574
 8635SOL    HW227803   6.359   5.412  12.538
 8636SOL     OW27804   2.524  14.853  10.164
 8636SOL    HW127805   2.448  14.803  10.133
 8636SOL    HW227806   2.573  14.791  10.218
 8637SOL     OW27807  11.771   9.558   8.427
 8637SOL    HW127808  11.811   9.544   8.513
 8637SOL    HW227809  11.828   9.622   8.384
 8638SOL     OW27810  12.650   5.041  10.390
 8638SOL    HW127811  12.578   5.097  10.360
 8638SOL    HW227812  12.608   4.962  10.422
 8639SOL     OW27813   1.281   0.477   6.935
 8639SOL    HW127814   1.365   0.524   6.928
 8639SOL    HW227815   1.247   0.503   7.020
 8640SOL     OW27816   4.287  12.910   9.903
 8640SOL    HW127817   4.344  12.866   9.840
 8640SOL    HW227818   4.276  12.847   9.974
 8641SOL     OW27819   6.343   4.015  12.363
 8641SOL    HW127820   6.320   4.076  12.293
 8641SOL    HW227821   6.259   3.978  12.390
 8642SOL     OW27822  12.872   5.642   2.881
 8642SOL    HW127823  12.931   5.593   2.938
 8642SOL    HW227824  12.929   5.702   2.833
 8643SOL     OW27825   2.777   4.092   7.529
 8643SOL    HW127826   2.814   4.167   7.483
 8643SOL    HW227827   2.710   4.130   7.586
 8644SOL     OW27828   7.643   9.829   6.721
 8644SOL    HW127829   7.679   9.869   6.642
 8644SOL    HW227830   7.548   9.840   6.713
 8645SOL     OW27831   4.903   2.319  11.391
 8645SOL    HW127832   4.927   2.298  11.301
 8645SOL    HW227833   4.951   2.400  11.410
 8646SOL     OW27834   2.735  13.976  14.622
 8646SOL    HW127835   2.751  14.008  14.533
 8646SOL    HW227836   2.665  14.031  14.655
 8647SOL     OW27837   6.799  13.353   6.536
 8647SOL    HW127838   6.817  13.281   6.596
 8647SOL    HW227839   6.836  13.325   6.453
 8648SOL     OW27840   7.639   8.877   0.069
 8648SOL    HW127841   7.692   8.800   0.048
 8648SOL    HW227842   7.549   8.848   0.059
 8649SOL     OW27843  12.867   7.183   3.049
 8649SOL    HW127844  12.942   7.163   3.104
 8649SOL    HW227845  12.853   7.278   3.060
 8650SOL     OW27846  11.878  11.994  14.781
 8650SOL    HW127847  11.875  11.941  14.702
 8650SOL    HW227848  11.958  11.968  14.826
 8651SOL     OW27849   4.601   2.960   4.143
 8651SOL    HW127850   4.657   2.902   4.195
 8651SOL    HW227851   4.659   3.032   4.118
 8652SOL     OW27852   0.098  12.631   1.745
 8652SOL    HW127853   0.008  12.607   1.722
 8652SOL    HW227854   0.152  12.585   1.681
 8653SOL     OW27855  14.630   7.689   5.234
 8653SOL    HW127856  14.616   7.693   5.328
 8653SOL    HW227857  14.600   7.773   5.201
 8654SOL     OW27858   6.085  11.896   8.858
 8654SOL    HW127859   6.172  11.895   8.819
 8654SOL    HW227860   6.100  11.879   8.951
 8655SOL     OW27861  12.826   8.032  12.045
 8655SOL    HW127862  12.865   8.041  11.958
 8655SOL    HW227863  12.899   8.011  12.102
 8656SOL     OW27864  10.412   6.786   0.442
 8656SOL    HW127865  10.419   6.795   0.537
 8656SOL    HW227866  10.498   6.812   0.409
 8657SOL     OW27867  10.322   2.965   0.295
 8657SOL    HW127868  10.310   2.993   0.204
 8657SOL    HW227869  10.285   3.037   0.346
 8658SOL     OW27870   8.399   6.425   8.358
 8658SOL    HW127871   8.414   6.519   8.370
 8658SOL    HW227872   8.309   6.412   8.385
 8659SOL     OW27873   8.686   4.700   6.114
 8659SOL    HW127874   8.765   4.648   6.125
 8659SOL    HW227875   8.625   4.642   6.068
 8660SOL     OW27876   6.452  10.402   0.919
 8660SOL    HW127877   6.476  10.484   0.962
 8660SOL    HW227878   6.536  10.366   0.889
 8661SOL     OW27879   1.147   7.015   3.701
 8661SOL    HW127880   1.111   7.059   3.778
 8661SOL    HW227881   1.132   6.922   3.718
 8662SOL     OW27882   3.619   8.400  14.626
 8662SOL    HW127883   3.596   8.447  14.546
 8662SOL    HW227884   3.661   8.466  14.681
 8663SOL     OW27885   5.554   2.668  14.433
 8663SOL    HW127886   5.647   2.690  14.426
 8663SOL    HW227887   5.546   2.582  14.392
 8664SOL     OW27888   7.700   6.146   2.013
 8664SOL    HW127889   7.675   6.173   1.925
 8664SOL    HW227890   7.618   6.145   2.062
 8665SOL     OW27891  12.373   8.663  12.954
 8665SOL    HW127892  12.387   8.603  13.027
 8665SOL    HW227893  12.459   8.699  12.935
 8666SOL     OW27894  11.495   9.947   2.045
 8666SOL    HW127895  11.429   9.965   2.112
 8666SOL    HW227896  11.542   9.870   2.077
 8667SOL     OW27897   1.870   8.215   7.880
 8667SOL    HW127898   1.911   8.198   7.965
 8667SOL    HW227899   1.942   8.238   7.822
 8668SOL     OW27900   7.682   1.174   4.572
 8668SOL    HW127901   7.693   1.241   4.639
 8668SOL    HW227902   7.762   1.121   4.577
 8669SOL     OW27903  10.475  12.762   1.490
 8669SOL    HW127904  10.492  12.856   1.496
 8669SOL    HW227905  10.417  12.743   1.563
 8670SOL     OW27906  14.376  13.047   4.349
 8670SOL    HW127907  14.423  12.965   4.360
 8670SOL    HW227908  14.444  13.114   4.340
 8671SOL     OW27909   5.208   5.587  13.977
 8671SOL    HW127910   5.146   5.578  13.905
 8671SOL    HW227911   5.215   5.499  14.014
 8672SOL     OW27912  12.817  11.301   6.137
 8672SOL    HW127913  12.741  11.254   6.171
 8672SOL    HW227914  12.789  11.334   6.051
 8673SOL     OW27915  14.043  12.645   2.987
 8673SOL    HW127916  14.124  12.664   2.939
 8673SOL    HW227917  14.015  12.560   2.953
 8674SOL     OW27918   5.879   4.812  10.729
 8674SOL    HW127919   5.940   4.862  10.783
 8674SOL    HW227920   5.801   4.867  10.724
 8675SOL     OW27921   3.349   9.746   8.278
 8675SOL    HW127922   3.413   9.691   8.233
 8675SOL    HW227923   3.400   9.816   8.318
 8676SOL     OW27924   2.200   5.731  13.451
 8676SOL    HW127925   2.252   5.651  13.442
 8676SOL    HW227926   2.221   5.782  13.372
 8677SOL     OW27927   1.420  12.192   2.020
 8677SOL    HW127928   1.350  12.128   2.029
 8677SOL    HW227929   1.383  12.260   1.963
 8678SOL     OW27930   2.985  14.796   5.530
 8678SOL    HW127931   3.026  14.751   5.604
 8678SOL    HW227932   2.948  14.725   5.477
 8679SOL     OW27933  14.574   5.409   3.177
 8679SOL    HW127934  14.532   5.356   3.244
 8679SOL    HW227935  14.637   5.350   3.135
 8680SOL     OW27936  13.106   3.281   2.886
 8680SOL    HW127937  13.015   3.294   2.860
 8680SOL    HW227938  13.157   3.333   2.824
 8681SOL     OW27939   4.490   7.073   9.851
 8681SOL    HW127940   4.486   7.168   9.866
 8681SOL    HW227941   4.579   7.059   9.819
 8682SOL     OW27942  11.907   6.150   4.767
 8682SOL    HW127943  11.887   6.211   4.838
 8682SOL    HW227944  11.965   6.199   4.709
 8683SOL     OW27945  12.448   8.370  11.641
 8683SOL    HW127946  12.398   8.345  11.719
 8683SOL    HW227947  12.383   8.372  11.571
 8684SOL     OW27948  12.388   8.389  12.652
 8684SOL    HW127949  12.330   8.447  12.701
 8684SOL    HW227950  12.402   8.315  12.710
 8685SOL     OW27951  10.227   3.179   9.376
 8685SOL    HW127952  10.163   3.131   9.324
 8685SOL    HW227953  10.310   3.167   9.329
 8686SOL     OW27954  14.802  14.290  14.484
 8686SOL    HW127955  14.869  14.222  14.485
 8686SOL    HW227956  14.850  14.371  14.499
 8687SOL     OW27957  11.433   7.450   2.838
 8687SOL    HW127958  11.369   7.381   2.827
 8687SOL    HW227959  11.383   7.531   2.829
 8688SOL     OW27960  12.714   7.232   7.933
 8688SOL    HW127961  12.756   7.299   7.880
 8688SOL    HW227962  12.763   7.233   8.015
 8689SOL     OW27963   6.828   7.729   0.587
 8689SOL    HW127964   6.782   7.811   0.568
 8689SOL    HW227965   6.921   7.750   0.578
 8690SOL     OW27966   9.820  10.693  14.617
 8690SOL    HW127967   9.733  10.706  14.655
 8690SOL    HW227968   9.806  10.631  14.545
 8691SOL     OW27969  13.407   3.373   1.548
 8691SOL    HW127970  13.478   3.311   1.531
 8691SOL    HW227971  13.428   3.448   1.493
 8692SOL     OW27972   4.334  12.569  13.367
 8692SOL    HW127973   4.429  12.573  13.356
 8692SOL    HW227974   4.317  12.478  13.390
 8693SOL     OW27975  14.836   4.170   1.391
 8693SOL    HW127976  14.881   4.102   1.341
 8693SOL    HW227977   0.009   4.182   1.469
 8694SOL     OW27978   4.619   2.325   1.298
 8694SOL    HW127979   4.654   2.313   1.210
 8694SOL    HW227980   4.599   2.419   1.304
 8695SOL     OW27981   6.813  10.858   1.039
 8695SOL    HW127982   6.847  10.947   1.039
 8695SOL    HW227983   6.739  10.860   1.099
 8696SOL     OW27984   7.737   7.478   7.242
 8696SOL    HW127985   7.756   7.417   7.171
 8696SOL    HW227986   7.761   7.430   7.321
 8697SOL     OW27987   6.456  10.698   6.355
 8697SOL    HW127988   6.410  10.781   6.352
 8697SOL    HW227989   6.515  10.700   6.280
 8698SOL     OW27990  14.821  10.094   1.633
 8698SOL    HW127991  14.781  10.051   1.708
 8698SOL    HW227992  14.770  10.064   1.558
 8699SOL     OW27993   8.606   5.661  14.823
 8699SOL    HW127994   8.663   5.735  14.844
 8699SOL    HW227995   8.667   5.589  14.806
 8700SOL     OW27996   4.789   5.346   7.110
 8700SOL    HW127997   4.830   5.428   7.137
 8700SOL    HW227998   4.857   5.299   7.062
 8701SOL     OW27999  11.638   8.773   5.913
 8701SOL    HW128000  11.641   8.866   5.891
 8701SOL    HW228001  11.547   8.747   5.895
 8702SOL     OW28002   3.261   1.108   8.558
 8702SOL    HW128003   3.196   1.176   8.539
 8702SOL    HW228004   3.345   1.153   8.553
 8703SOL     OW28005  14.678   9.199   1.732
 8703SOL    HW128006  14.687   9.256   1.808
 8703SOL    HW228007  14.594   9.154   1.746
 8704SOL     OW28008   1.964   4.187   3.871
 8704SOL    HW128009   1.884   4.200   3.821
 8704SOL    HW228010   2.032   4.228   3.818
 8705SOL     OW28011  13.319   5.865  12.704
 8705SOL    HW128012  13.262   5.788  12.708
 8705SOL    HW228013  13.395   5.842  12.757
 8706SOL     OW28014  12.581  11.844   3.651
 8706SOL    HW128015  12.558  11.753   3.636
 8706SOL    HW228016  12.514  11.894   3.605
 8707SOL     OW28017   1.877  11.090  10.741
 8707SOL    HW128018   1.853  11.177  10.773
 8707SOL    HW228019   1.922  11.049  10.815
 8708SOL     OW28020  10.245  11.832   2.500
 8708SOL    HW128021  10.316  11.774   2.474
 8708SOL    HW228022  10.221  11.878   2.419
 8709SOL     OW28023   2.135   6.445   5.199
 8709SOL    HW128024   2.091   6.465   5.282
 8709SOL    HW228025   2.222   6.416   5.225
 8710SOL     OW28026   0.801  14.573   5.630
 8710SOL    HW128027   0.725  14.618   5.667
 8710SOL    HW228028   0.870  14.584   5.695
 8711SOL     OW28029   0.896   0.001   5.588
 8711SOL    HW128030   0.857  14.840   5.665
 8711SOL    HW228031   0.957  14.818   5.553
 8712SOL     OW28032  14.161   2.225   1.261
 8712SOL    HW128033  14.134   2.307   1.220
 8712SOL    HW228034  14.079   2.178   1.276
 8713SOL     OW28035   4.415  11.011   7.431
 8713SOL    HW128036   4.346  10.991   7.495
 8713SOL    HW228037   4.487  11.046   7.484
 8714SOL     OW28038  12.733  12.226  11.856
 8714SOL    HW128039  12.823  12.245  11.882
 8714SOL    HW228040  12.726  12.259  11.766
 8715SOL     OW28041  12.554  14.274  11.057
 8715SOL    HW128042  12.512  14.220  10.990
 8715SOL    HW228043  12.545  14.222  11.137
 8716SOL     OW28044   1.218   8.912   6.934
 8716SOL    HW128045   1.206   8.817   6.939
 8716SOL    HW228046   1.204   8.943   7.023
 8717SOL     OW28047   7.431   3.722   6.124
 8717SOL    HW128048   7.383   3.653   6.170
 8717SOL    HW228049   7.460   3.682   6.042
 8718SOL     OW28050   8.011   7.974   1.631
 8718SOL    HW128051   8.103   7.973   1.658
 8718SOL    HW228052   8.000   7.893   1.582
 8719SOL     OW28053  10.290   1.076   9.342
 8719SOL    HW128054  10.212   1.115   9.302
 8719SOL    HW228055  10.316   1.138   9.409
 8720SOL     OW28056   3.956   7.628   4.782
 8720SOL    HW128057   3.967   7.570   4.706
 8720SOL    HW228058   3.873   7.601   4.821
 8721SOL     OW28059   3.777   6.970  12.234
 8721SOL    HW128060   3.735   7.003  12.154
 8721SOL    HW228061   3.779   7.045  12.293
 8722SOL     OW28062   2.106   3.904  12.198
 8722SOL    HW128063   2.195   3.870  12.205
 8722SOL    HW228064   2.055   3.851  12.260
 8723SOL     OW28065   5.765  14.227   2.406
 8723SOL    HW128066   5.801  14.205   2.321
 8723SOL    HW228067   5.710  14.303   2.390
 8724SOL     OW28068  10.356  10.672   4.167
 8724SOL    HW128069  10.378  10.586   4.204
 8724SOL    HW228070  10.265  10.662   4.137
 8725SOL     OW28071   8.038  11.846   5.163
 8725SOL    HW128072   8.128  11.813   5.162
 8725SOL    HW228073   8.041  11.925   5.109
 8726SOL     OW28074  14.555  13.364  11.785
 8726SOL    HW128075  14.628  13.417  11.818
 8726SOL    HW228076  14.499  13.349  11.861
 8727SOL     OW28077   2.153   1.470   2.722
 8727SOL    HW128078   2.249   1.475   2.718
 8727SOL    HW228079   2.124   1.561   2.727
 8728SOL     OW28080   9.744  10.741   4.029
 8728SOL    HW128081   9.775  10.704   3.946
 8728SOL    HW228082   9.810  10.807   4.052
 8729SOL     OW28083  12.198   7.475  13.395
 8729SOL    HW128084  12.102   7.472  13.394
 8729SOL    HW228085  12.219   7.568  13.390
 8730SOL     OW28086   7.275   1.059   3.925
 8730SOL    HW128087   7.370   1.066   3.931
 8730SOL    HW228088   7.251   0.997   3.995
 8731SOL     OW28089   8.413  10.418   8.501
 8731SOL    HW128090   8.474  10.465   8.444
 8731SOL    HW228091   8.467  10.355   8.548
 8732SOL     OW28092   0.539   4.262   5.800
 8732SOL    HW128093   0.559   4.265   5.707
 8732SOL    HW228094   0.447   4.288   5.806
 8733SOL     OW28095  12.974   3.595   4.594
 8733SOL    HW128096  13.044   3.639   4.545
 8733SOL    HW228097  12.932   3.664   4.644
 8734SOL     OW28098   6.814   9.369   9.696
 8734SOL    HW128099   6.814   9.324   9.781
 8734SOL    HW228100   6.894   9.422   9.698
 8735SOL     OW28101   9.039   8.100   4.203
 8735SOL    HW128102   8.987   8.173   4.168
 8735SOL    HW228103   9.007   8.088   4.292
 8736SOL     OW28104   5.234  10.279   1.675
 8736SOL    HW128105   5.154  10.332   1.672
 8736SOL    HW228106   5.304  10.341   1.655
 8737SOL     OW28107   4.699  12.523   9.497
 8737SOL    HW128108   4.682  12.457   9.431
 8737SOL    HW228109   4.744  12.475   9.567
 8738SOL     OW28110   4.129  10.893   5.821
 8738SOL    HW128111   4.199  10.902   5.886
 8738SOL    HW228112   4.121  10.799   5.807
 8739SOL     OW28113   8.829   9.278   0.332
 8739SOL    HW128114   8.737   9.257   0.315
 8739SOL    HW228115   8.877   9.240   0.259
 8740SOL     OW28116   7.898  12.969   2.793
 8740SOL    HW128117   7.969  12.975   2.729
 8740SOL    HW228118   7.943  12.970   2.878
 8741SOL     OW28119  14.606   3.278   8.095
 8741SOL    HW128120  14.549   3.299   8.021
 8741SOL    HW228121  14.580   3.338   8.164
 8742SOL     OW28122   3.325   1.204  14.718
 8742SOL    HW128123   3.334   1.244  14.631
 8742SOL    HW228124   3.246   1.245  14.755
 8743SOL     OW28125  11.106   9.895   6.340
 8743SOL    HW128126  11.041   9.850   6.393
 8743SOL    HW228127  11.142   9.826   6.283
 8744SOL     OW28128  12.074  12.239  12.366
 8744SOL    HW128129  12.141  12.280  12.421
 8744SOL    HW228130  12.121  12.209  12.289
 8745SOL     OW28131   7.342   1.863   4.872
 8745SOL    HW128132   7.357   1.912   4.953
 8745SOL    HW228133   7.305   1.927   4.811
 8746SOL     OW28134  10.066   0.741   2.697
 8746SOL    HW128135  10.094   0.779   2.613
 8746SOL    HW228136  10.079   0.647   2.687
 8747SOL     OW28137   0.317   1.863   7.985
 8747SOL    HW128138   0.291   1.844   8.075
 8747SOL    HW228139   0.294   1.784   7.936
 8748SOL     OW28140   9.771   8.267  10.116
 8748SOL    HW128141   9.727   8.183  10.127
 8748SOL    HW228142   9.804   8.289  10.203
 8749SOL     OW28143  12.006  13.698   6.147
 8749SOL    HW128144  11.988  13.756   6.074
 8749SOL    HW228145  12.028  13.614   6.107
 8750SOL     OW28146   0.429   4.678   7.408
 8750SOL    HW128147   0.485   4.754   7.395
 8750SOL    HW228148   0.366   4.706   7.475
 8751SOL     OW28149   5.368  12.838   8.165
 8751SOL    HW128150   5.284  12.847   8.120
 8751SOL    HW228151   5.409  12.924   8.156
 8752SOL     OW28152   2.163   2.392  12.231
 8752SOL    HW128153   2.229   2.424  12.292
 8752SOL    HW228154   2.165   2.454  12.158
 8753SOL     OW28155   1.520   9.173   7.517
 8753SOL    HW128156   1.515   9.236   7.445
 8753SOL    HW228157   1.508   9.087   7.474
 8754SOL     OW28158  14.398   2.043  12.890
 8754SOL    HW128159  14.381   2.086  12.975
 8754SOL    HW228160  14.316   2.050  12.843
 8755SOL     OW28161  12.891   1.560  12.893
 8755SOL    HW128162  12.869   1.518  12.976
 8755SOL    HW228163  12.852   1.647  12.900
 8756SOL     OW28164  12.273  11.882   0.346
 8756SOL    HW128165  12.194  11.914   0.389
 8756SOL    HW228166  12.289  11.943   0.274
 8757SOL     OW28167  11.829   4.448  13.273
 8757SOL    HW128168  11.742   4.490  13.275
 8757SOL    HW228169  11.884   4.512  13.228
 8758SOL     OW28170  11.239   6.433   9.351
 8758SOL    HW128171  11.228   6.463   9.261
 8758SOL    HW228172  11.229   6.512   9.404
 8759SOL     OW28173   7.438   2.779  12.421
 8759SOL    HW128174   7.378   2.720  12.375
 8759SOL    HW228175   7.523   2.733  12.418
 8760SOL     OW28176   3.409   5.281   1.970
 8760SOL    HW128177   3.413   5.204   2.028
 8760SOL    HW228178   3.493   5.326   1.984
 8761SOL     OW28179   1.270  11.772   0.507
 8761SOL    HW128180   1.219  11.839   0.461
 8761SOL    HW228181   1.354  11.771   0.461
 8762SOL     OW28182   5.813   2.118   9.504
 8762SOL    HW128183   5.838   2.179   9.574
 8762SOL    HW228184   5.728   2.150   9.474
 8763SOL     OW28185   8.468   7.772   3.747
 8763SOL    HW128186   8.417   7.711   3.694
 8763SOL    HW228187   8.470   7.732   3.834
 8764SOL     OW28188   7.381   0.637   4.769
 8764SOL    HW128189   7.455   0.583   4.799
 8764SOL    HW228190   7.373   0.706   4.834
 8765SOL     OW28191   6.187   4.146   1.745
 8765SOL    HW128192   6.218   4.098   1.822
 8765SOL    HW228193   6.145   4.079   1.691
 8766SOL     OW28194   4.841   7.109  10.777
 8766SOL    HW128195   4.838   7.043  10.708
 8766SOL    HW228196   4.868   7.189  10.732
 8767SOL     OW28197   5.674   0.630   9.619
 8767SOL    HW128198   5.583   0.618   9.646
 8767SOL    HW228199   5.692   0.556   9.561
 8768SOL     OW28200   7.636   6.914  11.765
 8768SOL    HW128201   7.695   6.962  11.823
 8768SOL    HW228202   7.681   6.915  11.680
 8769SOL     OW28203  11.573  12.208   2.018
 8769SOL    HW128204  11.521  12.171   2.090
 8769SOL    HW228205  11.627  12.274   2.059
 8770SOL     OW28206   8.379   1.764   5.725
 8770SOL    HW128207   8.305   1.752   5.784
 8770SOL    HW228208   8.390   1.858   5.719
 8771SOL     OW28209   5.481   8.006   1.905
 8771SOL    HW128210   5.447   8.003   1.815
 8771SOL    HW228211   5.530   7.925   1.915
 8772SOL     OW28212   0.243   9.524   3.533
 8772SOL    HW128213   0.334   9.520   3.562
 8772SOL    HW228214   0.248   9.538   3.438
 8773SOL     OW28215   8.595  14.715   1.896
 8773SOL    HW128216   8.683  14.681   1.877
 8773SOL    HW228217   8.547  14.639   1.931
 8774SOL     OW28218   5.536   7.763   9.551
 8774SOL    HW128219   5.615   7.806   9.519
 8774SOL    HW228220   5.522   7.690   9.491
 8775SOL     OW28221   6.565  10.627   9.604
 8775SOL    HW128222   6.554  10.678   9.685
 8775SOL    HW228223   6.481  10.583   9.592
 8776SOL     OW28224   7.028   1.402   6.920
 8776SOL    HW128225   7.053   1.341   6.851
 8776SOL    HW228226   6.957   1.454   6.882
 8777SOL     OW28227   4.211   3.595  13.198
 8777SOL    HW128228   4.195   3.684  13.169
 8777SOL    HW228229   4.169   3.540  13.132
 8778SOL     OW28230   7.435  10.489   0.526
 8778SOL    HW128231   7.369  10.419   0.522
 8778SOL    HW228232   7.516  10.447   0.499
 8779SOL     OW28233   7.480   6.840   8.883
 8779SOL    HW128234   7.410   6.901   8.859
 8779SOL    HW228235   7.529   6.825   8.802
 8780SOL     OW28236   1.383   1.829  13.286
 8780SOL    HW128237   1.293   1.799  13.298
 8780SOL    HW228238   1.436   1.757  13.320
 8781SOL     OW28239   4.298  10.206   3.891
 8781SOL    HW128240   4.263  10.295   3.889
 8781SOL    HW228241   4.354  10.200   3.814
 8782SOL     OW28242   7.935   2.620   1.704
 8782SOL    HW128243   7.936   2.637   1.798
 8782SOL    HW228244   7.844   2.598   1.684
 8783SOL     OW28245   7.616   7.439   4.585
 8783SOL    HW128246   7.552   7.471   4.521
 8783SOL    HW228247   7.590   7.348   4.600
 8784SOL     OW28248  10.571   5.878   3.226
 8784SOL    HW128249  10.652   5.923   3.203
 8784SOL    HW228250  10.541   5.921   3.306
 8785SOL     OW28251   7.518   1.679   9.571
 8785SOL    HW128252   7.596   1.655   9.620
 8785SOL    HW228253   7.465   1.728   9.634
 8786SOL     OW28254  12.191  11.505   5.262
 8786SOL    HW128255  12.258  11.561   5.223
 8786SOL    HW228256  12.237  11.459   5.332
 8787SOL     OW28257   9.836   7.644   6.205
 8787SOL    HW128258   9.892   7.571   6.232
 8787SOL    HW228259   9.750   7.605   6.193
 8788SOL     OW28260   1.756   8.919   2.681
 8788SOL    HW128261   1.769   9.014   2.678
 8788SOL    HW228262   1.817   8.889   2.749
 8789SOL     OW28263  14.282   9.519   7.145
 8789SOL    HW128264  14.186   9.520   7.146
 8789SOL    HW228265  14.307   9.568   7.223
 8790SOL     OW28266   3.848   7.985   2.541
 8790SOL    HW128267   3.842   7.889   2.541
 8790SOL    HW228268   3.822   8.011   2.453
 8791SOL     OW28269  12.528   8.332   1.146
 8791SOL    HW128270  12.448   8.325   1.198
 8791SOL    HW228271  12.598   8.311   1.207
 8792SOL     OW28272   9.897   9.857   3.414
 8792SOL    HW128273   9.980   9.836   3.372
 8792SOL    HW228274   9.911   9.942   3.456
 8793SOL     OW28275  11.437  13.632  12.083
 8793SOL    HW128276  11.460  13.551  12.037
 8793SOL    HW228277  11.510  13.647  12.143
 8794SOL     OW28278   4.738   6.342  13.850
 8794SOL    HW128279   4.688   6.415  13.885
 8794SOL    HW228280   4.809   6.383  13.801
 8795SOL     OW28281  12.939   2.348   8.089
 8795SOL    HW128282  12.857   2.298   8.094
 8795SOL    HW228283  12.957   2.373   8.180
 8796SOL     OW28284   9.467   5.654   3.099
 8796SOL    HW128285   9.379   5.677   3.129
 8796SOL    HW228286   9.483   5.714   3.026
 8797SOL     OW28287  10.420   6.099   4.114
 8797SOL    HW128288  10.515   6.103   4.104
 8797SOL    HW228289  10.405   6.027   4.175
 8798SOL     OW28290   3.380   0.139  13.116
 8798SOL    HW128291   3.289   0.114  13.132
 8798SOL    HW228292   3.415   0.069  13.062
 8799SOL     OW28293   8.336  12.918  14.033
 8799SOL    HW128294   8.285  12.980  13.982
 8799SOL    HW228295   8.296  12.919  14.120
 8800SOL     OW28296  12.364   4.909   4.178
 8800SOL    HW128297  12.359   4.824   4.135
 8800SOL    HW228298  12.397   4.890   4.265
 8801SOL     OW28299  13.523   0.881   1.754
 8801SOL    HW128300  13.524   0.974   1.773
 8801SOL    HW228301  13.432   0.854   1.770
 8802SOL     OW28302  14.198   6.553  11.522
 8802SOL    HW128303  14.102   6.556  11.521
 8802SOL    HW228304  14.219   6.481  11.581
 8803SOL     OW28305   0.317   7.871   3.236
 8803SOL    HW128306   0.285   7.955   3.205
 8803SOL    HW228307   0.245   7.809   3.219
 8804SOL     OW28308   7.062   7.536   6.778
 8804SOL    HW128309   7.002   7.610   6.770
 8804SOL    HW228310   7.149   7.576   6.780
 8805SOL     OW28311   5.474  11.516   7.558
 8805SOL    HW128312   5.441  11.522   7.647
 8805SOL    HW228313   5.552  11.461   7.564
 8806SOL     OW28314   5.057   5.042   9.589
 8806SOL    HW128315   4.985   5.014   9.533
 8806SOL    HW228316   5.037   5.133   9.610
 8807SOL     OW28317   3.572   9.482  12.234
 8807SOL    HW128318   3.626   9.487  12.313
 8807SOL    HW228319   3.590   9.564  12.188
 8808SOL     OW28320   7.540   2.977   7.067
 8808SOL    HW128321   7.449   2.978   7.039
 8808SOL    HW228322   7.542   2.918   7.143
 8809SOL     OW28323  13.452  10.549   5.468
 8809SOL    HW128324  13.429  10.617   5.532
 8809SOL    HW228325  13.547  10.543   5.473
 8810SOL     OW28326   7.577  10.113   1.853
 8810SOL    HW128327   7.532  10.195   1.874
 8810SOL    HW228328   7.662  10.120   1.896
 8811SOL     OW28329   0.127   4.129   6.950
 8811SOL    HW128330   0.040   4.167   6.960
 8811SOL    HW228331   0.118   4.068   6.877
 8812SOL     OW28332   6.596   7.438   9.307
 8812SOL    HW128333   6.643   7.519   9.287
 8812SOL    HW228334   6.543   7.422   9.229
 8813SOL     OW28335   6.808   2.046   0.795
 8813SOL    HW128336   6.778   2.135   0.776
 8813SOL    HW228337   6.783   1.995   0.718
 8814SOL     OW28338   4.763  14.740   0.068
 8814SOL    HW128339   4.783  14.827   0.034
 8814SOL    HW228340   4.775  14.681  14.876
 8815SOL     OW28341   5.246   5.053   9.345
 8815SOL    HW128342   5.151   5.049   9.334
 8815SOL    HW228343   5.274   5.125   9.289
 8816SOL     OW28344  11.647   9.076   1.671
 8816SOL    HW128345  11.594   8.997   1.658
 8816SOL    HW228346  11.713   9.072   1.602
 8817SOL     OW28347   1.583   4.104  13.625
 8817SOL    HW128348   1.529   4.176  13.658
 8817SOL    HW228349   1.592   4.121  13.532
 8818SOL     OW28350   8.920   7.124   7.853
 8818SOL    HW128351   8.905   7.208   7.810
 8818SOL    HW228352   8.834   7.083   7.855
 8819SOL     OW28353  11.406   8.905  10.042
 8819SOL    HW128354  11.394   8.993  10.076
 8819SOL    HW228355  11.393   8.913   9.948
 8820SOL     OW28356   0.075  12.169   4.475
 8820SOL    HW128357   0.096  12.139   4.563
 8820SOL    HW228358   0.106  12.099   4.418
 8821SOL     OW28359   5.527   3.002  14.235
 8821SOL    HW128360   5.526   2.919  14.188
 8821SOL    HW228361   5.600   2.994  14.296
 8822SOL     OW28362  13.203   5.994   7.532
 8822SOL    HW128363  13.154   5.929   7.582
 8822SOL    HW228364  13.159   6.077   7.551
 8823SOL     OW28365   8.221   6.251   4.390
 8823SOL    HW128366   8.305   6.296   4.387
 8823SOL    HW228367   8.169   6.293   4.321
 8824SOL     OW28368   3.272   6.826   0.382
 8824SOL    HW128369   3.346   6.811   0.323
 8824SOL    HW228370   3.229   6.740   0.388
 8825SOL     OW28371   0.583   2.497  10.741
 8825SOL    HW128372   0.492   2.528  10.742
 8825SOL    HW228373   0.595   2.456  10.827
 8826SOL     OW28374  11.774   3.089   0.983
 8826SOL    HW128375  11.858   3.047   1.001
 8826SOL    HW228376  11.793   3.183   0.983
 8827SOL     OW28377   1.924   2.956  12.092
 8827SOL    HW128378   1.929   3.037  12.041
 8827SOL    HW228379   2.015   2.927  12.100
 8828SOL     OW28380   7.656   8.066   9.764
 8828SOL    HW128381   7.588   8.011   9.805
 8828SOL    HW228382   7.711   8.004   9.717
 8829SOL     OW28383  14.476   3.422   7.390
 8829SOL    HW128384  14.421   3.437   7.313
 8829SOL    HW228385  14.559   3.465   7.369
 8830SOL     OW28386   7.756   8.101   9.286
 8830SOL    HW128387   7.775   8.183   9.331
 8830SOL    HW228388   7.748   8.124   9.194
 8831SOL     OW28389   3.622   7.788   2.710
 8831SOL    HW128390   3.617   7.882   2.726
 8831SOL    HW228391   3.713   7.772   2.686
 8832SOL     OW28392   2.581  14.083   5.041
 8832SOL    HW128393   2.598  13.996   5.077
 8832SOL    HW228394   2.667  14.125   5.038
 8833SOL     OW28395   9.870   5.528   5.418
 8833SOL    HW128396   9.819   5.477   5.356
 8833SOL    HW228397   9.855   5.487   5.503
 8834SOL     OW28398   3.855  14.035   8.006
 8834SOL    HW128399   3.887  13.998   8.088
 8834SOL    HW228400   3.848  14.129   8.023
 8835SOL     OW28401   3.445  11.871   6.554
 8835SOL    HW128402   3.468  11.954   6.510
 8835SOL    HW228403   3.529  11.827   6.566
 8836SOL     OW28404   7.774   2.952   9.569
 8836SOL    HW128405   7.730   2.867   9.571
 8836SOL    HW228406   7.792   2.967   9.476
 8837SOL     OW28407   8.203  14.581   1.223
 8837SOL    HW128408   8.134  14.606   1.285
 8837SOL    HW228409   8.227  14.492   1.248
 8838SOL     OW28410   3.445   4.246   4.394
 8838SOL    HW128411   3.539   4.266   4.395
 8838SOL    HW228412   3.405   4.316   4.444
 8839SOL     OW28413   0.834   2.200  12.858
 8839SOL    HW128414   0.917   2.241  12.879
 8839SOL    HW228415   0.858   2.118  12.814
 8840SOL     OW28416   5.041   3.014   3.679
 8840SOL    HW128417   4.980   3.038   3.750
 8840SOL    HW228418   4.994   3.038   3.599
 8841SOL     OW28419   1.338  13.210  10.381
 8841SOL    HW128420   1.250  13.178  10.400
 8841SOL    HW228421   1.334  13.239  10.290
 8842SOL     OW28422  11.155   9.450   7.765
 8842SOL    HW128423  11.121   9.409   7.686
 8842SOL    HW228424  11.188   9.378   7.818
 8843SOL     OW28425   3.687  13.878   8.290
 8843SOL    HW128426   3.616  13.872   8.225
 8843SOL    HW228427   3.697  13.789   8.323
 8844SOL     OW28428   1.811   0.681   5.846
 8844SOL    HW128429   1.780   0.770   5.867
 8844SOL    HW228430   1.858   0.691   5.764
 8845SOL     OW28431   6.034  11.991  14.603
 8845SOL    HW128432   5.997  11.992  14.515
 8845SOL    HW228433   5.963  12.023  14.659
 8846SOL     OW28434   8.559   3.051   5.704
 8846SOL    HW128435   8.491   3.053   5.636
 8846SOL    HW228436   8.634   3.092   5.663
 8847SOL     OW28437   4.680  10.397   8.868
 8847SOL    HW128438   4.749  10.331   8.870
 8847SOL    HW228439   4.726  10.481   8.875
 8848SOL     OW28440  11.922   9.874   4.612
 8848SOL    HW128441  11.953   9.855   4.701
 8848SOL    HW228442  11.848   9.814   4.599
 8849SOL     OW28443   5.123   9.072   9.865
 8849SOL    HW128444   5.205   9.045   9.823
 8849SOL    HW228445   5.079   8.989   9.884
 8850SOL     OW28446   0.945   0.237   1.767
 8850SOL    HW128447   1.000   0.270   1.696
 8850SOL    HW228448   0.893   0.313   1.794
 8851SOL     OW28449   0.042  13.477   1.685
 8851SOL    HW128450   0.062  13.482   1.592
 8851SOL    HW228451   0.079  13.393   1.713
 8852SOL     OW28452   9.787  11.584   7.602
 8852SOL    HW128453   9.772  11.533   7.523
 8852SOL    HW228454   9.717  11.649   7.602
 8853SOL     OW28455  12.151   7.337   9.063
 8853SOL    HW128456  12.148   7.242   9.071
 8853SOL    HW228457  12.154   7.353   8.969
 8854SOL     OW28458   6.139   1.207  13.485
 8854SOL    HW128459   6.196   1.276  13.520
 8854SOL    HW228460   6.153   1.210  13.390
 8855SOL     OW28461   4.244  10.407   7.297
 8855SOL    HW128462   4.153  10.408   7.325
 8855SOL    HW228463   4.269  10.499   7.293
 8856SOL     OW28464   7.053   7.927   5.171
 8856SOL    HW128465   7.053   7.937   5.076
 8856SOL    HW228466   7.051   8.016   5.205
 8857SOL     OW28467  13.987   8.657   1.444
 8857SOL    HW128468  13.927   8.682   1.514
 8857SOL    HW228469  13.934   8.653   1.365
 8858SOL     OW28470   1.534   2.986   3.201
 8858SOL    HW128471   1.594   3.060   3.216
 8858SOL    HW228472   1.447   3.025   3.201
 8859SOL     OW28473   9.497   7.285   5.424
 8859SOL    HW128474   9.485   7.369   5.379
 8859SOL    HW228475   9.543   7.308   5.505
 8860SOL     OW28476   8.115   0.695   1.674
 8860SOL    HW128477   8.119   0.771   1.733
 8860SOL    HW228478   8.158   0.625   1.723
 8861SOL     OW28479   1.837   4.856  12.002
 8861SOL    HW128480   1.777   4.928  11.984
 8861SOL    HW228481   1.919   4.899  12.028
 8862SOL     OW28482   7.068  13.721   5.431
 8862SOL    HW128483   6.978  13.714   5.460
 8862SOL    HW228484   7.071  13.802   5.378
 8863SOL     OW28485   2.305   3.968   5.921
 8863SOL    HW128486   2.284   3.959   5.828
 8863SOL    HW228487   2.365   4.043   5.925
 8864SOL     OW28488  11.642  10.029  10.148
 8864SOL    HW128489  11.627  10.116  10.183
 8864SOL    HW228490  11.556   9.989  10.142
 8865SOL     OW28491   0.534   9.976   1.293
 8865SOL    HW128492   0.624   9.944   1.281
 8865SOL    HW228493   0.479   9.910   1.251
 8866SOL     OW28494   3.289  10.257   8.788
 8866SOL    HW128495   3.306  10.310   8.710
 8866SOL    HW228496   3.359  10.281   8.848
 8867SOL     OW28497   4.720   8.507   8.819
 8867SOL    HW128498   4.650   8.572   8.819
 8867SOL    HW228499   4.775   8.531   8.745
 8868SOL     OW28500  14.633   7.867  13.793
 8868SOL    HW128501  14.688   7.946  13.792
 8868SOL    HW228502  14.653   7.826  13.878
 8869SOL     OW28503  10.201   4.779  10.707
 8869SOL    HW128504  10.200   4.726  10.787
 8869SOL    HW228505  10.214   4.869  10.738
 8870SOL     OW28506   7.320  13.145  11.242
 8870SOL    HW128507   7.357  13.177  11.160
 8870SOL    HW228508   7.319  13.050  11.232
 8871SOL     OW28509   0.704   0.811  12.543
 8871SOL    HW128510   0.622   0.855  12.521
 8871SOL    HW228511   0.755   0.814  12.463
 8872SOL     OW28512   8.969   1.520   3.423
 8872SOL    HW128513   8.997   1.495   3.335
 8872SOL    HW228514   8.898   1.583   3.409
 8873SOL     OW28515   9.164   8.795  10.213
 8873SOL    HW128516   9.237   8.780  10.153
 8873SOL    HW228517   9.150   8.711  10.256
 8874SOL     OW28518  11.605   6.469  10.597
 8874SOL    HW128519  11.549   6.482  10.520
 8874SOL    HW228520  11.686   6.433  10.561
 8875SOL     OW28521   1.274  12.409   3.515
 8875SOL    HW128522   1.331  12.362   3.454
 8875SOL    HW228523   1.192  12.420   3.466
 8876SOL     OW28524   8.015   9.940   2.855
 8876SOL    HW128525   7.922   9.921   2.869
 8876SOL    HW228526   8.044   9.875   2.792
 8877SOL     OW28527  11.270   6.028  13.579
 8877SOL    HW128528  11.350   6.047  13.629
 8877SOL    HW228529  11.294   6.046  13.488
 8878SOL     OW28530   8.663   1.023  10.826
 8878SOL    HW128531   8.619   1.096  10.868
 8878SOL    HW228532   8.687   0.964  10.898
 8879SOL     OW28533   7.632   2.423   1.034
 8879SOL    HW128534   7.606   2.438   1.125
 8879SOL    HW228535   7.558   2.376   0.995
 8880SOL     OW28536   1.174  10.261  12.314
 8880SOL    HW128537   1.258  10.305  12.329
 8880SOL    HW228538   1.192  10.199  12.243
 8881SOL     OW28539   0.336  13.288  10.328
 8881SOL    HW128540   0.301  13.249  10.408
 8881SOL    HW228541   0.331  13.218  10.262
 8882SOL     OW28542   4.290  13.307  11.072
 8882SOL    HW128543   4.361  13.362  11.105
 8882SOL    HW228544   4.291  13.229  11.129
 8883SOL     OW28545   6.260   4.051   6.094
 8883SOL    HW128546   6.257   4.128   6.039
 8883SOL    HW228547   6.201   3.988   6.052
 8884SOL     OW28548   5.159  14.061   2.064
 8884SOL    HW128549   5.226  14.015   2.014
 8884SOL    HW228550   5.155  14.148   2.025
 8885SOL     OW28551  13.603  10.370   4.571
 8885SOL    HW128552  13.628  10.286   4.533
 8885SOL    HW228553  13.509  10.364   4.583
 8886SOL     OW28554   2.360   6.622   1.922
 8886SOL    HW128555   2.356   6.599   1.829
 8886SOL    HW228556   2.269   6.644   1.945
 8887SOL     OW28557  10.312   3.861   2.899
 8887SOL    HW128558  10.392   3.845   2.850
 8887SOL    HW228559  10.339   3.917   2.972
 8888SOL     OW28560   8.637   9.486   3.025
 8888SOL    HW128561   8.697   9.458   3.094
 8888SOL    HW228562   8.660   9.578   3.010
 8889SOL     OW28563  10.840  12.232   0.108
 8889SOL    HW128564  10.924  12.190   0.126
 8889SOL    HW228565  10.863  12.323   0.088
 8890SOL     OW28566   0.882   3.376   9.555
 8890SOL    HW128567   0.803   3.348   9.600
 8890SOL    HW228568   0.861   3.463   9.520
 8891SOL     OW28569   6.944   2.683  14.408
 8891SOL    HW128570   6.971   2.745  14.340
 8891SOL    HW228571   6.861   2.717  14.440
 8892SOL     OW28572   8.036  12.219   0.459
 8892SOL    HW128573   8.065  12.306   0.486
 8892SOL    HW228574   8.104  12.189   0.399
 8893SOL     OW28575   2.987   2.729   6.060
 8893SOL    HW128576   2.936   2.802   6.096
 8893SOL    HW228577   2.942   2.650   6.090
 8894SOL     OW28578  13.850   7.111  12.157
 8894SOL    HW128579  13.856   7.199  12.193
 8894SOL    HW228580  13.940   7.086  12.136
 8895SOL     OW28581   0.008   5.985  10.518
 8895SOL    HW128582   0.018   5.928  10.442
 8895SOL    HW228583  14.806   5.959  10.556
 8896SOL     OW28584  12.481   1.627  11.232
 8896SOL    HW128585  12.451   1.549  11.186
 8896SOL    HW228586  12.558   1.656  11.183
 8897SOL     OW28587  13.464   9.960  14.779
 8897SOL    HW128588  13.453   9.868  14.803
 8897SOL    HW228589  13.374   9.992  14.766
 8898SOL     OW28590  13.348   7.654   2.114
 8898SOL    HW128591  13.294   7.690   2.184
 8898SOL    HW228592  13.405   7.591   2.158
 8899SOL     OW28593   4.639   5.772  13.595
 8899SOL    HW128594   4.706   5.834  13.567
 8899SOL    HW228595   4.632   5.710  13.523
 8900SOL     OW28596   3.456   8.255  12.991
 8900SOL    HW128597   3.520   8.288  13.054
 8900SOL    HW228598   3.496   8.270  12.905
 8901SOL     OW28599  12.334   9.568   1.336
 8901SOL    HW128600  12.274   9.640   1.354
 8901SOL    HW228601  12.339   9.520   1.418
 8902SOL     OW28602   4.472   3.972   1.080
 8902SOL    HW128603   4.431   3.993   1.164
 8902SOL    HW228604   4.484   3.877   1.082
 8903SOL     OW28605   0.838   6.240   9.994
 8903SOL    HW128606   0.793   6.163  10.031
 8903SOL    HW228607   0.931   6.222  10.007
 8904SOL     OW28608  10.200   6.605   3.517
 8904SOL    HW128609  10.192   6.546   3.591
 8904SOL    HW228610  10.111   6.639   3.504
 8905SOL     OW28611  13.838   3.576  13.992
 8905SOL    HW128612  13.745   3.554  13.993
 8905SOL    HW228613  13.879   3.507  14.044
 8906SOL     OW28614  10.731   4.976  13.121
 8906SOL    HW128615  10.789   4.942  13.054
 8906SOL    HW228616  10.738   5.071  13.114
 8907SOL     OW28617   4.321  10.412   0.866
 8907SOL    HW128618   4.228  10.391   0.875
 8907SOL    HW228619   4.326  10.506   0.883
 8908SOL     OW28620   1.599   2.931   7.661
 8908SOL    HW128621   1.602   2.846   7.617
 8908SOL    HW228622   1.571   2.992   7.593
 8909SOL     OW28623   3.094   9.358  12.699
 8909SOL    HW128624   3.119   9.359  12.606
 8909SOL    HW228625   3.105   9.266  12.725
 8910SOL     OW28626   9.894   0.223   7.387
 8910SOL    HW128627   9.846   0.289   7.437
 8910SOL    HW228628   9.963   0.273   7.343
 8911SOL     OW28629  11.345   6.732  12.391
 8911SOL    HW128630  11.255   6.707  12.410
 8911SOL    HW228631  11.341   6.827  12.376
 8912SOL     OW28632   0.041  11.332   9.116
 8912SOL    HW128633   0.039  11.261   9.180
 8912SOL    HW228634   0.122  11.319   9.068
 8913SOL     OW28635  13.631  10.098   2.875
 8913SOL    HW128636  13.682  10.171   2.911
 8913SOL    HW228637  13.607  10.045   2.951
 8914SOL     OW28638   1.029  14.697   4.375
 8914SOL    HW128639   1.068  14.688   4.288
 8914SOL    HW228640   1.081  14.765   4.418
 8915SOL     OW28641  11.772   2.765  13.359
 8915SOL    HW128642  11.790   2.778  13.266
 8915SOL    HW228643  11.812   2.680  13.379
 8916SOL     OW28644   8.933  14.153  13.963
 8916SOL    HW128645   9.024  14.134  13.943
 8916SOL    HW228646   8.894  14.177  13.879
 8917SOL     OW28647  10.553   4.976   8.669
 8917SOL    HW128648  10.516   5.034   8.603
 8917SOL    HW228649  10.481   4.917   8.692
 8918SOL     OW28650   3.917   7.282   4.784
 8918SOL    HW128651   4.006   7.259   4.811
 8918SOL    HW228652   3.928   7.360   4.730
 8919SOL     OW28653   2.894  13.938  12.757
 8919SOL    HW128654   2.906  13.854  12.713
 8919SOL    HW228655   2.852  13.915  12.840
 8920SOL     OW28656   1.537   2.010  12.426
 8920SOL    HW128657   1.520   2.032  12.518
 8920SOL    HW228658   1.499   1.923  12.416
 8921SOL     OW28659  12.217  13.425   1.335
 8921SOL    HW128660  12.216  13.520   1.328
 8921SOL    HW228661  12.285  13.406   1.400
 8922SOL     OW28662   0.828   3.289   3.671
 8922SOL    HW128663   0.774   3.223   3.629
 8922SOL    HW228664   0.795   3.372   3.638
 8923SOL     OW28665  12.986   5.917  12.239
 8923SOL    HW128666  12.894   5.891  12.232
 8923SOL    HW228667  13.030   5.868  12.169
 8924SOL     OW28668   5.346  11.794  14.286
 8924SOL    HW128669   5.279  11.798  14.354
 8924SOL    HW228670   5.297  11.771  14.206
 8925SOL     OW28671  11.705   8.130  12.446
 8925SOL    HW128672  11.623   8.146  12.400
 8925SOL    HW228673  11.772   8.136  12.377
 8926SOL     OW28674  12.773  10.364   7.288
 8926SOL    HW128675  12.729  10.336   7.368
 8926SOL    HW228676  12.702  10.373   7.224
 8927SOL     OW28677   6.246   5.381  12.911
 8927SOL    HW128678   6.312   5.355  12.975
 8927SOL    HW228679   6.168   5.330  12.934
 8928SOL     OW28680  12.664  14.688   9.252
 8928SOL    HW128681  12.616  14.671   9.333
 8928SOL    HW228682  12.663  14.783   9.243
 8929SOL     OW28683   7.550   5.423  12.578
 8929SOL    HW128684   7.505   5.507  12.564
 8929SOL    HW228685   7.482   5.357  12.563
 8930SOL     OW28686   6.497  12.562   1.507
 8930SOL    HW128687   6.574  12.604   1.470
 8930SOL    HW228688   6.529  12.520   1.587
 8931SOL     OW28689   5.894   9.357   6.290
 8931SOL    HW128690   5.863   9.281   6.240
 8931SOL    HW228691   5.874   9.432   6.234
 8932SOL     OW28692   5.358  14.201   5.231
 8932SOL    HW128693   5.294  14.272   5.237
 8932SOL    HW228694   5.306  14.121   5.236
 8933SOL     OW28695  11.978   8.797   4.358
 8933SOL    HW128696  11.899   8.792   4.412
 8933SOL    HW228697  11.973   8.882   4.314
 8934SOL     OW28698   4.922   6.235  12.805
 8934SOL    HW128699   4.896   6.265  12.718
 8934SOL    HW228700   4.982   6.162  12.788
 8935SOL     OW28701   3.804  11.582  14.458
 8935SOL    HW128702   3.712  11.570  14.435
 8935SOL    HW228703   3.846  11.606  14.375
 8936SOL     OW28704  10.686   3.893   6.850
 8936SOL    HW128705  10.766   3.936   6.878
 8936SOL    HW228706  10.616   3.938   6.897
 8937SOL     OW28707   2.347  13.223  10.253
 8937SOL    HW128708   2.417  13.224  10.187
 8937SOL    HW228709   2.274  13.179  10.209
 8938SOL     OW28710  13.083  13.515   8.417
 8938SOL    HW128711  13.065  13.421   8.420
 8938SOL    HW228712  13.124  13.535   8.502
 8939SOL     OW28713   8.450  12.267   2.240
 8939SOL    HW128714   8.416  12.350   2.205
 8939SOL    HW228715   8.486  12.222   2.164
 8940SOL     OW28716   7.566   3.581  12.640
 8940SOL    HW128717   7.596   3.496  12.608
 8940SOL    HW228718   7.470   3.576  12.634
 8941SOL     OW28719   7.586  10.762   6.307
 8941SOL    HW128720   7.588  10.759   6.211
 8941SOL    HW228721   7.636  10.841   6.329
 8942SOL     OW28722   6.459  11.248   4.215
 8942SOL    HW128723   6.432  11.333   4.251
 8942SOL    HW228724   6.554  11.245   4.227
 8943SOL     OW28725  14.093   9.132  13.322
 8943SOL    HW128726  14.037   9.174  13.387
 8943SOL    HW228727  14.079   9.038  13.336
 8944SOL     OW28728  11.197   7.708   9.845
 8944SOL    HW128729  11.201   7.651   9.922
 8944SOL    HW228730  11.265   7.774   9.861
 8945SOL     OW28731   3.099   3.878   9.043
 8945SOL    HW128732   3.021   3.823   9.047
 8945SOL    HW228733   3.109   3.900   8.950
 8946SOL     OW28734   4.673   8.437  10.909
 8946SOL    HW128735   4.702   8.501  10.973
 8946SOL    HW228736   4.664   8.486  10.828
 8947SOL     OW28737   5.559   3.259  11.693
 8947SOL    HW128738   5.511   3.325  11.742
 8947SOL    HW228739   5.632   3.306  11.653
 8948SOL     OW28740   1.687   8.974   5.164
 8948SOL    HW128741   1.727   8.894   5.200
 8948SOL    HW228742   1.618   8.941   5.106
 8949SOL     OW28743  13.698   7.328   6.729
 8949SOL    HW128744  13.781   7.283   6.717
 8949SOL    HW228745  13.700   7.359   6.820
 8950SOL     OW28746   1.316   7.701   4.216
 8950SOL    HW128747   1.243   7.680   4.157
 8950SOL    HW228748   1.386   7.643   4.189
 8951SOL     OW28749   3.176  13.881  12.459
 8951SOL    HW128750   3.238  13.851  12.392
 8951SOL    HW228751   3.227  13.881  12.540
 8952SOL     OW28752   7.582   0.805  11.289
 8952SOL    HW128753   7.645   0.732  11.289
 8952SOL    HW228754   7.575   0.830  11.197
 8953SOL     OW28755   2.759   0.048  13.728
 8953SOL    HW128756   2.742   0.005  13.645
 8953SOL    HW228757   2.723   0.137  13.717
 8954SOL     OW28758  10.742   9.320   4.825
 8954SOL    HW128759  10.760   9.260   4.753
 8954SOL    HW228760  10.721   9.403   4.783
 8955SOL     OW28761   1.933   5.035  14.161
 8955SOL    HW128762   1.939   4.940  14.149
 8955SOL    HW228763   1.958   5.049  14.252
 8956SOL     OW28764   3.729   8.166   8.379
 8956SOL    HW128765   3.689   8.115   8.309
 8956SOL    HW228766   3.781   8.102   8.428
 8957SOL     OW28767   7.817  13.372   2.808
 8957SOL    HW128768   7.769  13.388   2.889
 8957SOL    HW228769   7.768  13.303   2.764
 8958SOL     OW28770   4.426   9.888   4.626
 8958SOL    HW128771   4.490   9.822   4.600
 8958SOL    HW228772   4.465   9.971   4.600
 8959SOL     OW28773   3.215   3.754   0.468
 8959SOL    HW128774   3.143   3.739   0.408
 8959SOL    HW228775   3.268   3.674   0.462
 8960SOL     OW28776   6.173   1.124  11.513
 8960SOL    HW128777   6.266   1.125  11.491
 8960SOL    HW228778   6.130   1.165  11.438
 8961SOL     OW28779  13.247  12.490   8.053
 8961SOL    HW128780  13.267  12.524   7.965
 8961SOL    HW228781  13.231  12.397   8.039
 8962SOL     OW28782   4.390  12.159  14.268
 8962SOL    HW128783   4.367  12.121  14.183
 8962SOL    HW228784   4.410  12.251  14.248
 8963SOL     OW28785  14.293   5.825   1.249
 8963SOL    HW128786  14.240   5.905   1.252
 8963SOL    HW228787  14.362   5.840   1.313
 8964SOL     OW28788  11.019   6.336   6.438
 8964SOL    HW128789  10.952   6.282   6.478
 8964SOL    HW228790  10.974   6.380   6.365
 8965SOL     OW28791   1.677   7.562  10.531
 8965SOL    HW128792   1.771   7.550  10.547
 8965SOL    HW228793   1.668   7.550  10.436
 8966SOL     OW28794   4.813  14.790   1.688
 8966SOL    HW128795   4.728  14.766   1.651
 8966SOL    HW228796   4.872  14.721   1.658
 8967SOL     OW28797   3.025   4.335  13.075
 8967SOL    HW128798   2.972   4.370  13.004
 8967SOL    HW228799   3.028   4.240  13.058
 8968SOL     OW28800   1.928  14.421  14.352
 8968SOL    HW128801   1.935  14.445  14.444
 8968SOL    HW228802   1.872  14.488  14.313
 8969SOL     OW28803   6.964  13.172   4.808
 8969SOL    HW128804   7.004  13.223   4.737
 8969SOL    HW228805   6.899  13.118   4.763
 8970SOL     OW28806   4.379  10.170  10.804
 8970SOL    HW128807   4.431  10.208  10.875
 8970SOL    HW228808   4.375  10.239  10.737
 8971SOL     OW28809  11.494  10.636   9.074
 8971SOL    HW128810  11.436  10.574   9.116
 8971SOL    HW228811  11.522  10.696   9.144
 8972SOL     OW28812   4.036  13.585  11.820
 8972SOL    HW128813   4.006  13.496  11.800
 8972SOL    HW228814   4.097  13.606  11.749
 8973SOL     OW28815  13.699  13.409   7.461
 8973SOL    HW128816  13.749  13.490   7.471
 8973SOL    HW228817  13.677  13.405   7.368
 8974SOL     OW28818   9.832   4.655   2.795
 8974SOL    HW128819   9.750   4.668   2.843
 8974SOL    HW228820   9.823   4.568   2.756
 8975SOL     OW28821  14.692   0.606   1.313
 8975SOL    HW128822  14.766   0.549   1.335
 8975SOL    HW228823  14.670   0.582   1.223
 8976SOL     OW28824   2.375   4.111   5.233
 8976SOL    HW128825   2.371   4.207   5.239
 8976SOL    HW228826   2.463   4.092   5.201
 8977SOL     OW28827   5.220   2.571  14.838
 8977SOL    HW128828   5.169   2.616   0.023
 8977SOL    HW228829   5.288   2.634  14.813
 8978SOL     OW28830  14.002   0.591   0.715
 8978SOL    HW128831  13.923   0.545   0.687
 8978SOL    HW228832  14.072   0.527   0.708
 8979SOL     OW28833  10.758   5.842   2.641
 8979SOL    HW128834  10.846   5.837   2.603
 8979SOL    HW228835  10.708   5.775   2.595
 8980SOL     OW28836   9.417   9.053   2.594
 8980SOL    HW128837   9.380   8.978   2.641
 8980SOL    HW228838   9.469   9.013   2.524
 8981SOL     OW28839   5.947  13.137   4.438
 8981SOL    HW128840   5.904  13.193   4.373
 8981SOL    HW228841   5.898  13.151   4.519
 8982SOL     OW28842   3.597  11.878   0.359
 8982SOL    HW128843   3.611  11.810   0.425
 8982SOL    HW228844   3.580  11.830   0.279
 8983SOL     OW28845   3.593   3.329   4.542
 8983SOL    HW128846   3.643   3.305   4.464
 8983SOL    HW228847   3.522   3.265   4.546
 8984SOL     OW28848   8.324   5.849  14.523
 8984SOL    HW128849   8.364   5.786  14.462
 8984SOL    HW228850   8.334   5.933  14.478
 8985SOL     OW28851  11.997   1.480   9.485
 8985SOL    HW128852  11.984   1.567   9.448
 8985SOL    HW228853  12.065   1.441   9.431
 8986SOL     OW28854   2.616   9.033   9.874
 8986SOL    HW128855   2.538   9.088   9.863
 8986SOL    HW228856   2.674   9.059   9.802
 8987SOL     OW28857   3.849   1.838  11.353
 8987SOL    HW128858   3.805   1.922  11.353
 8987SOL    HW228859   3.941   1.858  11.337
 8988SOL     OW28860  10.290  14.016   0.416
 8988SOL    HW128861  10.250  14.079   0.475
 8988SOL    HW228862  10.219  13.953   0.397
 8989SOL     OW28863   5.359   3.797  11.204
 8989SOL    HW128864   5.342   3.767  11.294
 8989SOL    HW228865   5.423   3.734  11.170
 8990SOL     OW28866  11.209  10.774   3.180
 8990SOL    HW128867  11.129  10.750   3.227
 8990SOL    HW228868  11.280  10.740   3.234
 8991SOL     OW28869   9.256   4.306  14.161
 8991SOL    HW128870   9.309   4.385  14.168
 8991SOL    HW228871   9.199   4.321  14.085
 8992SOL     OW28872   2.222   8.365   6.761
 8992SOL    HW128873   2.278   8.309   6.707
 8992SOL    HW228874   2.274   8.383   6.839
 8993SOL     OW28875  11.719  12.439  11.207
 8993SOL    HW128876  11.780  12.464  11.138
 8993SOL    HW228877  11.759  12.471  11.287
 8994SOL     OW28878   3.945   3.537   8.366
 8994SOL    HW128879   3.895   3.602   8.415
 8994SOL    HW228880   3.942   3.568   8.276
 8995SOL     OW28881   4.687  11.302  14.033
 8995SOL    HW128882   4.650  11.305  14.122
 8995SOL    HW228883   4.772  11.345  14.041
 8996SOL     OW28884  14.472   7.271  12.758
 8996SOL    HW128885  14.518   7.324  12.693
 8996SOL    HW228886  14.380   7.298  12.750
 8997SOL     OW28887   7.018  10.090   6.678
 8997SOL    HW128888   6.929  10.125   6.682
 8997SOL    HW228889   7.074  10.167   6.676
 8998SOL     OW28890   1.548   3.373  14.192
 8998SOL    HW128891   1.576   3.282  14.202
 8998SOL    HW228892   1.457   3.374  14.223
 8999SOL     OW28893   2.849  13.843   9.334
 8999SOL    HW128894   2.755  13.828   9.344
 8999SOL    HW228895   2.886  13.756   9.321
 9000SOL     OW28896   6.967   9.927   1.179
 9000SOL    HW128897   6.942   9.994   1.115
 9000SOL    HW228898   6.906   9.939   1.252
 9001SOL     OW28899   7.203   6.328   7.445
 9001SOL    HW128900   7.222   6.420   7.464
 9001SOL    HW228901   7.144   6.331   7.370
 9002SOL     OW28902   3.484   9.855   6.283
 9002SOL    HW128903   3.496   9.760   6.288
 9002SOL    HW228904   3.525   9.889   6.362
 9003SOL     OW28905   9.213   5.412  13.676
 9003SOL    HW128906   9.245   5.454  13.756
 9003SOL    HW228907   9.270   5.336  13.664
 9004SOL     OW28908   1.010  12.122  14.484
 9004SOL    HW128909   1.067  12.075  14.423
 9004SOL    HW228910   0.986  12.202  14.436
 9005SOL     OW28911   8.487   4.283   0.306
 9005SOL    HW128912   8.408   4.235   0.330
 9005SOL    HW228913   8.461   4.335   0.230
 9006SOL     OW28914  11.644   6.469  14.637
 9006SOL    HW128915  11.658   6.551  14.686
 9006SOL    HW228916  11.666   6.491  14.547
 9007SOL     OW28917  12.690   7.436   0.258
 9007SOL    HW128918  12.678   7.401   0.346
 9007SOL    HW228919  12.603   7.465   0.231
 9008SOL     OW28920   6.493  10.601   0.237
 9008SOL    HW128921   6.488  10.660   0.312
 9008SOL    HW228922   6.585  10.573   0.234
 9009SOL     OW28923   9.987  13.114   0.521
 9009SOL    HW128924   9.968  13.099   0.429
 9009SOL    HW228925  10.002  13.209   0.528
 9010SOL     OW28926   5.982  14.130   7.836
 9010SOL    HW128927   6.047  14.070   7.873
 9010SOL    HW228928   6.032  14.184   7.775
 9011SOL     OW28929  10.252  12.660   0.225
 9011SOL    HW128930  10.321  12.630   0.284
 9011SOL    HW228931  10.173  12.614   0.255
 9012SOL     OW28932   6.741   4.254   0.820
 9012SOL    HW128933   6.764   4.229   0.730
 9012SOL    HW228934   6.706   4.173   0.859
 9013SOL     OW28935   4.306   1.561   4.648
 9013SOL    HW128936   4.343   1.628   4.591
 9013SOL    HW228937   4.288   1.606   4.730
 9014SOL     OW28938  10.715   4.365   0.926
 9014SOL    HW128939  10.693   4.272   0.924
 9014SOL    HW228940  10.737   4.382   1.018
 9015SOL     OW28941  11.694   0.024   9.417
 9015SOL    HW128942  11.769   0.025   9.358
 9015SOL    HW228943  11.659  14.817   9.411
 9016SOL     OW28944   1.550  12.234   0.003
 9016SOL    HW128945   1.467  12.280   0.012
 9016SOL    HW228946   1.542  12.157   0.059
 9017SOL     OW28947  14.758  10.211  12.020
 9017SOL    HW128948  14.731  10.303  12.024
 9017SOL    HW228949  14.850  10.212  12.048
 9018SOL     OW28950   3.212   4.285  12.788
 9018SOL    HW128951   3.185   4.209  12.839
 9018SOL    HW228952   3.209   4.358  12.850
 9019SOL     OW28953  11.465   8.573   8.172
 9019SOL    HW128954  11.433   8.490   8.136
 9019SOL    HW228955  11.404   8.593   8.243
 9020SOL     OW28956  12.408   7.313   0.196
 9020SOL    HW128957  12.385   7.366   0.272
 9020SOL    HW228958  12.345   7.240   0.198
 9021SOL     OW28959   7.439   7.839   5.936
 9021SOL    HW128960   7.517   7.797   5.900
 9021SOL    HW228961   7.377   7.767   5.951
 9022SOL     OW28962   5.462  11.910  11.090
 9022SOL    HW128963   5.425  11.923  11.177
 9022SOL    HW228964   5.526  11.981  11.080
 9023SOL     OW28965  10.416  11.732  12.428
 9023SOL    HW128966  10.502  11.690  12.426
 9023SOL    HW228967  10.373  11.696  12.506
 9024SOL     OW28968   0.738   9.621   3.824
 9024SOL    HW128969   0.738   9.696   3.884
 9024SOL    HW228970   0.649   9.588   3.827
 9025SOL     OW28971  11.212  13.567   9.410
 9025SOL    HW128972  11.289  13.559   9.355
 9025SOL    HW228973  11.148  13.508   9.370
 9026SOL     OW28974   7.419   8.599  11.254
 9026SOL    HW128975   7.401   8.616  11.161
 9026SOL    HW228976   7.365   8.523  11.275
 9027SOL     OW28977   6.347   8.685  13.068
 9027SOL    HW128978   6.424   8.718  13.021
 9027SOL    HW228979   6.296   8.764  13.088
 9028SOL     OW28980   7.662  10.577   2.529
 9028SOL    HW128981   7.632  10.618   2.448
 9028SOL    HW228982   7.758  10.580   2.523
 9029SOL     OW28983  12.599   1.275  14.202
 9029SOL    HW128984  12.620   1.333  14.129
 9029SOL    HW228985  12.507   1.252  14.191
 9030SOL     OW28986  12.734   7.655   5.351
 9030SOL    HW128987  12.708   7.609   5.431
 9030SOL    HW228988  12.692   7.741   5.358
 9031SOL     OW28989  12.541   8.594  13.731
 9031SOL    HW128990  12.453   8.595  13.768
 9031SOL    HW228991  12.582   8.673  13.766
 9032SOL     OW28992  12.148  14.280  12.268
 9032SOL    HW128993  12.081  14.310  12.207
 9032SOL    HW228994  12.177  14.196  12.233
 9033SOL     OW28995   8.279   8.368   1.063
 9033SOL    HW128996   8.279   8.332   0.974
 9033SOL    HW228997   8.335   8.309   1.113
 9034SOL     OW28998   2.885  13.676   1.185
 9034SOL    HW128999   2.871  13.710   1.273
 9034SOL    HW229000   2.817  13.610   1.173
 9035SOL     OW29001   3.082   3.723  14.146
 9035SOL    HW129002   3.110   3.798  14.094
 9035SOL    HW229003   3.156   3.704  14.204
 9036SOL     OW29004   4.774   1.933   2.487
 9036SOL    HW129005   4.788   1.860   2.427
 9036SOL    HW229006   4.803   1.901   2.572
 9037SOL     OW29007  11.713   7.378  10.418
 9037SOL    HW129008  11.756   7.296  10.396
 9037SOL    HW229009  11.652   7.394  10.346
 9038SOL     OW29010   6.647   2.162   1.617
 9038SOL    HW129011   6.615   2.182   1.529
 9038SOL    HW229012   6.656   2.067   1.619
 9039SOL     OW29013  14.538   5.514   9.818
 9039SOL    HW129014  14.523   5.537   9.727
 9039SOL    HW229015  14.609   5.572   9.847
 9040SOL     OW29016   1.276   9.421   5.489
 9040SOL    HW129017   1.342   9.389   5.550
 9040SOL    HW229018   1.225   9.343   5.465
 9041SOL     OW29019   6.806  14.677   2.864
 9041SOL    HW129020   6.812  14.663   2.959
 9041SOL    HW229021   6.799  14.772   2.855
 9042SOL     OW29022   7.391   6.010   4.146
 9042SOL    HW129023   7.329   5.961   4.092
 9042SOL    HW229024   7.470   6.018   4.091
 9043SOL     OW29025   9.791   6.579   2.799
 9043SOL    HW129026   9.774   6.631   2.720
 9043SOL    HW229027   9.759   6.632   2.871
 9044SOL     OW29028   8.045   1.121   2.847
 9044SOL    HW129029   8.053   1.167   2.763
 9044SOL    HW229030   8.073   1.032   2.828
 9045SOL     OW29031  11.521   0.546   7.714
 9045SOL    HW129032  11.614   0.535   7.694
 9045SOL    HW229033  11.503   0.481   7.783
 9046SOL     OW29034   8.263   9.036   6.781
 9046SOL    HW129035   8.189   8.976   6.771
 9046SOL    HW229036   8.225   9.116   6.816
 9047SOL     OW29037   8.095  11.355  10.018
 9047SOL    HW129038   8.189  11.357   9.999
 9047SOL    HW229039   8.090  11.335  10.111
 9048SOL     OW29040   9.015   1.182  12.341
 9048SOL    HW129041   8.982   1.214  12.425
 9048SOL    HW229042   8.950   1.213  12.277
 9049SOL     OW29043   6.715  14.086  10.788
 9049SOL    HW129044   6.809  14.098  10.796
 9049SOL    HW229045   6.704  14.010  10.732
 9050SOL     OW29046   9.117   9.549  10.715
 9050SOL    HW129047   9.121   9.638  10.681
 9050SOL    HW229048   9.036   9.546  10.766
 9051SOL     OW29049   7.888   2.267   5.216
 9051SOL    HW129050   7.919   2.177   5.225
 9051SOL    HW229051   7.867   2.295   5.305
 9052SOL     OW29052   9.326  10.703  12.209
 9052SOL    HW129053   9.393  10.772  12.207
 9052SOL    HW229054   9.339  10.658  12.292
 9053SOL     OW29055  13.271   4.150  11.887
 9053SOL    HW129056  13.264   4.170  11.980
 9053SOL    HW229057  13.297   4.234  11.847
 9054SOL     OW29058   3.985   8.631   4.237
 9054SOL    HW129059   4.066   8.597   4.274
 9054SOL    HW229060   3.968   8.577   4.161
 9055SOL     OW29061   4.842   3.968   7.343
 9055SOL    HW129062   4.761   3.919   7.331
 9055SOL    HW229063   4.894   3.949   7.265
 9056SOL     OW29064   3.097   4.272   4.780
 9056SOL    HW129065   3.104   4.204   4.847
 9056SOL    HW229066   3.069   4.225   4.701
 9057SOL     OW29067  13.965   3.251   2.070
 9057SOL    HW129068  13.893   3.219   2.124
 9057SOL    HW229069  13.973   3.187   2.000
 9058SOL     OW29070   8.272   6.638  12.293
 9058SOL    HW129071   8.269   6.660  12.200
 9058SOL    HW229072   8.281   6.722  12.337
 9059SOL     OW29073  14.406   2.450  12.500
 9059SOL    HW129074  14.430   2.526  12.553
 9059SOL    HW229075  14.313   2.462  12.481
 9060SOL     OW29076   8.040   5.203  12.920
 9060SOL    HW129077   8.027   5.241  12.834
 9060SOL    HW229078   8.063   5.277  12.976
 9061SOL     OW29079  13.555   4.252   0.345
 9061SOL    HW129080  13.646   4.278   0.360
 9061SOL    HW229081  13.541   4.268   0.252
 9062SOL     OW29082   9.199  12.690  14.147
 9062SOL    HW129083   9.236  12.607  14.117
 9062SOL    HW229084   9.123  12.704  14.090
 9063SOL     OW29085   0.926  12.364  14.331
 9063SOL    HW129086   0.885  12.417  14.263
 9063SOL    HW229087   0.854  12.342  14.391
 9064SOL     OW29088   4.176   1.711  14.549
 9064SOL    HW129089   4.195   1.753  14.633
 9064SOL    HW229090   4.260   1.673  14.522
 9065SOL     OW29091  10.722  14.238   6.837
 9065SOL    HW129092  10.769  14.219   6.755
 9065SOL    HW229093  10.749  14.167   6.896
 9066SOL     OW29094  13.853   4.314   9.819
 9066SOL    HW129095  13.819   4.230   9.849
 9066SOL    HW229096  13.937   4.323   9.865
 9067SOL     OW29097  10.276  10.580   5.005
 9067SOL    HW129098  10.248  10.638   4.933
 9067SOL    HW229099  10.337  10.520   4.964
 9068SOL     OW29100   8.477   8.443   2.800
 9068SOL    HW129101   8.566   8.408   2.801
 9068SOL    HW229102   8.452   8.442   2.708
 9069SOL     OW29103   5.768   9.588   1.723
 9069SOL    HW129104   5.733   9.547   1.644
 9069SOL    HW229105   5.852   9.545   1.738
 9070SOL     OW29106   3.883   4.638   4.231
 9070SOL    HW129107   3.838   4.706   4.281
 9070SOL    HW229108   3.938   4.593   4.295
 9071SOL     OW29109   4.586  10.931   1.822
 9071SOL    HW129110   4.639  11.007   1.846
 9071SOL    HW229111   4.632  10.857   1.861
 9072SOL     OW29112   2.930   3.681   8.984
 9072SOL    HW129113   2.859   3.642   9.034
 9072SOL    HW229114   2.889   3.713   8.903
 9073SOL     OW29115  12.891   6.443  11.024
 9073SOL    HW129116  12.863   6.522  10.978
 9073SOL    HW229117  12.810   6.399  11.049
 9074SOL     OW29118   7.392   4.056   1.964
 9074SOL    HW129119   7.329   4.057   1.892
 9074SOL    HW229120   7.449   3.982   1.945
 9075SOL     OW29121   3.290   7.906  12.653
 9075SOL    HW129122   3.292   7.836  12.588
 9075SOL    HW229123   3.381   7.933  12.663
 9076SOL     OW29124  14.691  13.703  14.669
 9076SOL    HW129125  14.712  13.688  14.576
 9076SOL    HW229126  14.754  13.648  14.716
 9077SOL     OW29127   0.163   5.759   8.533
 9077SOL    HW129128   0.104   5.734   8.462
 9077SOL    HW229129   0.249   5.766   8.491
 9078SOL     OW29130   6.188  14.450   9.817
 9078SOL    HW129131   6.205  14.469   9.909
 9078SOL    HW229132   6.243  14.512   9.769
 9079SOL     OW29133  10.947   4.058   0.961
 9079SOL    HW129134  10.985   4.055   0.874
 9079SOL    HW229135  10.923   3.968   0.981
 9080SOL     OW29136   2.798   1.992   7.689
 9080SOL    HW129137   2.719   2.041   7.666
 9080SOL    HW229138   2.861   2.013   7.619
 9081SOL     OW29139   9.691   0.975   5.888
 9081SOL    HW129140   9.664   0.942   5.803
 9081SOL    HW229141   9.773   0.930   5.907
 9082SOL     OW29142  10.297   5.178   3.810
 9082SOL    HW129143  10.251   5.160   3.892
 9082SOL    HW229144  10.237   5.147   3.742
 9083SOL     OW29145  11.387   7.037   0.499
 9083SOL    HW129146  11.427   7.018   0.584
 9083SOL    HW229147  11.392   7.132   0.490
 9084SOL     OW29148   0.248  12.032   9.207
 9084SOL    HW129149   0.326  12.067   9.250
 9084SOL    HW229150   0.256  12.059   9.116
 9085SOL     OW29151   7.001   0.645   7.952
 9085SOL    HW129152   6.919   0.596   7.949
 9085SOL    HW229153   7.038   0.626   8.038
 9086SOL     OW29154  10.276   6.249   6.995
 9086SOL    HW129155  10.325   6.193   7.056
 9086SOL    HW229156  10.312   6.337   7.009
 9087SOL     OW29157   7.817   2.238  13.071
 9087SOL    HW129158   7.795   2.263  12.981
 9087SOL    HW229159   7.857   2.151  13.063
 9088SOL     OW29160   8.514   9.260   6.811
 9088SOL    HW129161   8.478   9.347   6.828
 9088SOL    HW229162   8.476   9.204   6.880
 9089SOL     OW29163   5.063  13.184  11.832
 9089SOL    HW129164   5.027  13.134  11.905
 9089SOL    HW229165   4.990  13.238  11.802
 9090SOL     OW29166   5.072  10.903   4.958
 9090SOL    HW129167   5.092  10.855   4.878
 9090SOL    HW229168   5.089  10.995   4.936
 9091SOL     OW29169   1.145   2.282  13.190
 9091SOL    HW129170   1.193   2.233  13.123
 9091SOL    HW229171   1.199   2.360  13.206
 9092SOL     OW29172   3.772   3.600   7.245
 9092SOL    HW129173   3.788   3.520   7.296
 9092SOL    HW229174   3.692   3.637   7.283
 9093SOL     OW29175   0.505  10.255   2.801
 9093SOL    HW129176   0.487  10.290   2.714
 9093SOL    HW229177   0.593  10.288   2.821
 9094SOL     OW29178   4.578  12.895   9.994
 9094SOL    HW129179   4.601  12.956  10.064
 9094SOL    HW229180   4.569  12.950   9.916
 9095SOL     OW29181  11.828   9.107  13.223
 9095SOL    HW129182  11.848   9.053  13.146
 9095SOL    HW229183  11.876   9.065  13.294
 9096SOL     OW29184   0.155   8.252   8.193
 9096SOL    HW129185   0.232   8.300   8.224
 9096SOL    HW229186   0.152   8.268   8.099
 9097SOL     OW29187   4.029   0.600   2.384
 9097SOL    HW129188   4.117   0.579   2.352
 9097SOL    HW229189   4.039   0.686   2.426
 9098SOL     OW29190   2.817  14.039   0.952
 9098SOL    HW129191   2.842  14.072   0.866
 9098SOL    HW229192   2.888  13.981   0.977
 9099SOL     OW29193   9.088   9.442   8.553
 9099SOL    HW129194   9.166   9.488   8.587
 9099SOL    HW229195   9.122   9.360   8.518
 9100SOL     OW29196  14.527   0.995   2.078
 9100SOL    HW129197  14.477   0.925   2.119
 9100SOL    HW229198  14.526   1.066   2.143
 9101SOL     OW29199   1.256   4.983  12.129
 9101SOL    HW129200   1.219   4.939  12.205
 9101SOL    HW229201   1.349   4.992  12.149
 9102SOL     OW29202   3.890   1.720   9.353
 9102SOL    HW129203   3.897   1.718   9.449
 9102SOL    HW229204   3.836   1.644   9.331
 9103SOL     OW29205   5.147   6.625   6.456
 9103SOL    HW129206   5.148   6.529   6.458
 9103SOL    HW229207   5.185   6.647   6.371
 9104SOL     OW29208   0.428   7.376   5.111
 9104SOL    HW129209   0.388   7.403   5.029
 9104SOL    HW229210   0.515   7.344   5.086
 9105SOL     OW29211   2.510   1.267  11.181
 9105SOL    HW129212   2.453   1.340  11.206
 9105SOL    HW229213   2.509   1.209  11.257
 9106SOL     OW29214  12.783   4.065  10.454
 9106SOL    HW129215  12.691   4.084  10.475
 9106SOL    HW229216  12.821   4.151  10.434
 9107SOL     OW29217   2.161  10.467  12.359
 9107SOL    HW129218   2.128  10.452  12.448
 9107SOL    HW229219   2.120  10.549  12.332
 9108SOL     OW29220   7.332   2.357   1.735
 9108SOL    HW129221   7.423   2.385   1.723
 9108SOL    HW229222   7.316   2.297   1.661
 9109SOL     OW29223   8.234  10.532   0.782
 9109SOL    HW129224   8.296  10.597   0.751
 9109SOL    HW229225   8.245  10.532   0.877
 9110SOL     OW29226  13.612   0.396  11.961
 9110SOL    HW129227  13.606   0.344  11.881
 9110SOL    HW229228  13.654   0.478  11.933
 9111SOL     OW29229  11.550   9.433  10.955
 9111SOL    HW129230  11.551   9.411  11.048
 9111SOL    HW229231  11.507   9.519  10.952
 9112SOL     OW29232   3.598   7.929   5.154
 9112SOL    HW129233   3.521   7.983   5.173
 9112SOL    HW229234   3.571   7.840   5.178
 9113SOL     OW29235   7.016  11.590  10.470
 9113SOL    HW129236   7.056  11.515  10.514
 9113SOL    HW229237   7.007  11.562  10.379
 9114SOL     OW29238   4.193   8.154  10.658
 9114SOL    HW129239   4.214   8.189  10.571
 9114SOL    HW229240   4.225   8.064  10.657
 9115SOL     OW29241   3.929   6.075   0.596
 9115SOL    HW129242   3.943   6.170   0.589
 9115SOL    HW229243   3.965   6.051   0.681
 9116SOL     OW29244   8.480  14.547   7.198
 9116SOL    HW129245   8.386  14.559   7.188
 9116SOL    HW229246   8.501  14.469   7.146
 9117SOL     OW29247   0.913   5.303   8.841
 9117SOL    HW129248   0.894   5.239   8.773
 9117SOL    HW229249   0.850   5.283   8.911
 9118SOL     OW29250   3.418  10.559   0.928
 9118SOL    HW129251   3.512  10.574   0.935
 9118SOL    HW229252   3.411  10.464   0.913
 9119SOL     OW29253   9.384  14.595   3.795
 9119SOL    HW129254   9.476  14.612   3.817
 9119SOL    HW229255   9.375  14.627   3.705
 9120SOL     OW29256   2.479   1.554   7.184
 9120SOL    HW129257   2.529   1.475   7.165
 9120SOL    HW229258   2.409   1.555   7.119
 9121SOL     OW29259  10.762  10.249  12.882
 9121SOL    HW129260  10.787  10.157  12.876
 9121SOL    HW229261  10.667  10.248  12.886
 9122SOL     OW29262   1.993  10.762  11.594
 9122SOL    HW129263   1.904  10.746  11.563
 9122SOL    HW229264   1.999  10.714  11.676
 9123SOL     OW29265   8.982  12.572  11.758
 9123SOL    HW129266   8.888  12.569  11.774
 9123SOL    HW229267   9.021  12.577  11.845
 9124SOL     OW29268   8.097   9.041   2.831
 9124SOL    HW129269   8.149   9.034   2.751
 9124SOL    HW229270   8.007   9.028   2.802
 9125SOL     OW29271  10.663   6.621   5.374
 9125SOL    HW129272  10.693   6.674   5.301
 9125SOL    HW229273  10.646   6.684   5.444
 9126SOL     OW29274  12.568   9.020   3.516
 9126SOL    HW129275  12.480   9.046   3.544
 9126SOL    HW229276  12.625   9.047   3.588
 9127SOL     OW29277  14.552  13.869  10.391
 9127SOL    HW129278  14.476  13.926  10.382
 9127SOL    HW229279  14.566  13.863  10.486
 9128SOL     OW29280  13.471   6.159  13.194
 9128SOL    HW129281  13.391   6.113  13.217
 9128SOL    HW229282  13.468   6.241  13.244
 9129SOL     OW29283   9.857   6.641   9.753
 9129SOL    HW129284   9.776   6.592   9.769
 9129SOL    HW229285   9.917   6.577   9.714
 9130SOL     OW29286   8.422  13.675  11.131
 9130SOL    HW129287   8.350  13.639  11.079
 9130SOL    HW229288   8.412  13.770  11.124
 9131SOL     OW29289  13.651   4.159   2.566
 9131SOL    HW129290  13.672   4.086   2.507
 9131SOL    HW229291  13.597   4.120   2.634
 9132SOL     OW29292   8.754  12.109   8.485
 9132SOL    HW129293   8.680  12.169   8.485
 9132SOL    HW229294   8.753  12.070   8.572
 9133SOL     OW29295  10.210   6.428   8.179
 9133SOL    HW129296  10.233   6.507   8.130
 9133SOL    HW229297  10.279   6.419   8.245
 9134SOL     OW29298   1.676  10.582  10.673
 9134SOL    HW129299   1.725  10.595  10.592
 9134SOL    HW229300   1.621  10.506  10.655
 9135SOL     OW29301   8.868   6.892   3.430
 9135SOL    HW129302   8.787   6.929   3.465
 9135SOL    HW229303   8.907   6.963   3.380
 9136SOL     OW29304   2.466  11.407   2.485
 9136SOL    HW129305   2.402  11.361   2.539
 9136SOL    HW229306   2.510  11.337   2.436
 9137SOL     OW29307  11.302   4.171   4.331
 9137SOL    HW129308  11.263   4.201   4.249
 9137SOL    HW229309  11.320   4.078   4.317
 9138SOL     OW29310  10.709   5.078   6.673
 9138SOL    HW129311  10.763   5.008   6.638
 9138SOL    HW229312  10.674   5.042   6.755
 9139SOL     OW29313   4.392   7.347   1.350
 9139SOL    HW129314   4.322   7.374   1.410
 9139SOL    HW229315   4.348   7.293   1.285
 9140SOL     OW29316   9.298   3.014   7.643
 9140SOL    HW129317   9.263   3.008   7.733
 9140SOL    HW229318   9.333   2.927   7.625
 9141SOL     OW29319   7.537   2.336   5.318
 9141SOL    HW129320   7.605   2.350   5.384
 9141SOL    HW229321   7.457   2.370   5.358
 9142SOL     OW29322   1.492   8.721   8.681
 9142SOL    HW129323   1.496   8.626   8.676
 9142SOL    HW229324   1.456   8.748   8.597
 9143SOL     OW29325   3.637   9.216   7.941
 9143SOL    HW129326   3.727   9.196   7.914
 9143SOL    HW229327   3.642   9.306   7.974
 9144SOL     OW29328  14.554   1.087   2.531
 9144SOL    HW129329  14.619   1.153   2.507
 9144SOL    HW229330  14.566   1.016   2.467
 9145SOL     OW29331   2.110  10.479  14.738
 9145SOL    HW129332   2.195  10.466  14.696
 9145SOL    HW229333   2.076  10.559  14.697
 9146SOL     OW29334  13.218  13.083   2.320
 9146SOL    HW129335  13.293  13.066   2.378
 9146SOL    HW229336  13.156  13.013   2.341
 9147SOL     OW29337   0.300   4.535  13.774
 9147SOL    HW129338   0.241   4.502  13.706
 9147SOL    HW229339   0.257   4.614  13.806
 9148SOL     OW29340   6.559   3.642   4.686
 9148SOL    HW129341   6.501   3.676   4.618
 9148SOL    HW229342   6.624   3.591   4.639
 9149SOL     OW29343  12.504  10.358   2.892
 9149SOL    HW129344  12.526  10.443   2.855
 9149SOL    HW229345  12.484  10.303   2.816
 9150SOL     OW29346   2.390  12.516  10.711
 9150SOL    HW129347   2.466  12.468  10.679
 9150SOL    HW229348   2.352  12.459  10.777
 9151SOL     OW29349   0.429   4.524   7.171
 9151SOL    HW129350   0.433   4.566   7.257
 9151SOL    HW229351   0.513   4.541   7.131
 9152SOL     OW29352  11.135   9.357   5.878
 9152SOL    HW129353  11.085   9.378   5.957
 9152SOL    HW229354  11.181   9.276   5.900
 9153SOL     OW29355  12.495   6.319   5.434
 9153SOL    HW129356  12.432   6.247   5.429
 9153SOL    HW229357  12.481   6.358   5.520
 9154SOL     OW29358  11.944  12.093  10.013
 9154SOL    HW129359  11.849  12.098  10.018
 9154SOL    HW229360  11.964  12.090   9.919
 9155SOL     OW29361   7.672  12.679   0.782
 9155SOL    HW129362   7.635  12.767   0.772
 9155SOL    HW229363   7.721  12.683   0.863
 9156SOL     OW29364   9.674   5.171  12.286
 9156SOL    HW129365   9.712   5.257  12.302
 9156SOL    HW229366   9.745   5.110  12.304
 9157SOL     OW29367   6.102   7.285  12.785
 9157SOL    HW129368   6.046   7.281  12.862
 9157SOL    HW229369   6.051   7.241  12.716
 9158SOL     OW29370  13.416   2.837   0.507
 9158SOL    HW129371  13.419   2.811   0.415
 9158SOL    HW229372  13.507   2.859   0.528
 9159SOL     OW29373   1.835   8.722   4.942
 9159SOL    HW129374   1.863   8.632   4.930
 9159SOL    HW229375   1.894   8.757   5.009
 9160SOL     OW29376   5.858  11.449   9.461
 9160SOL    HW129377   5.901  11.504   9.527
 9160SOL    HW229378   5.789  11.404   9.508
 9161SOL     OW29379   6.460   1.783  11.863
 9161SOL    HW129380   6.409   1.775  11.943
 9161SOL    HW229381   6.394   1.783  11.793
 9162SOL     OW29382   5.966   7.294  14.118
 9162SOL    HW129383   6.047   7.291  14.170
 9162SOL    HW229384   5.945   7.387  14.111
 9163SOL     OW29385  12.620   4.039  11.409
 9163SOL    HW129386  12.562   4.067  11.480
 9163SOL    HW229387  12.709   4.057  11.441
 9164SOL     OW29388  12.864  10.837   6.035
 9164SOL    HW129389  12.782  10.798   6.063
 9164SOL    HW229390  12.846  10.931   6.030
 9165SOL     OW29391   9.197   5.951   8.417
 9165SOL    HW129392   9.264   6.017   8.397
 9165SOL    HW229393   9.148   5.989   8.490
 9166SOL     OW29394   8.374   8.090   3.940
 9166SOL    HW129395   8.349   8.060   4.027
 9166SOL    HW229396   8.323   8.034   3.880
 9167SOL     OW29397   8.063   2.800  14.013
 9167SOL    HW129398   8.095   2.735  14.075
 9167SOL    HW229399   7.970   2.781  14.003
 9168SOL     OW29400   9.747  14.318  10.481
 9168SOL    HW129401   9.694  14.320  10.401
 9168SOL    HW229402   9.800  14.239  10.473
 9169SOL     OW29403   1.443  13.646  13.703
 9169SOL    HW129404   1.514  13.619  13.644
 9169SOL    HW229405   1.367  13.595  13.675
 9170SOL     OW29406  12.099   9.050  10.904
 9170SOL    HW129407  12.007   9.073  10.908
 9170SOL    HW229408  12.131   9.088  10.823
 9171SOL     OW29409   0.311   9.693  13.403
 9171SOL    HW129410   0.287   9.738  13.321
 9171SOL    HW229411   0.372   9.625  13.376
 9172SOL     OW29412   5.707   9.717   4.641
 9172SOL    HW129413   5.670   9.671   4.566
 9172SOL    HW229414   5.655   9.797   4.648
 9173SOL     OW29415   0.285   7.743   6.207
 9173SOL    HW129416   0.217   7.713   6.268
 9173SOL    HW229417   0.237   7.788   6.138
 9174SOL     OW29418  13.859   2.380  10.544
 9174SOL    HW129419  13.789   2.428  10.586
 9174SOL    HW229420  13.844   2.392  10.450
 9175SOL     OW29421  13.507  14.002   3.557
 9175SOL    HW129422  13.588  14.052   3.561
 9175SOL    HW229423  13.535  13.912   3.539
 9176SOL     OW29424   4.152  14.148  12.493
 9176SOL    HW129425   4.160  14.155  12.398
 9176SOL    HW229426   4.122  14.234  12.521
 9177SOL     OW29427   1.286   7.942   3.190
 9177SOL    HW129428   1.353   7.875   3.179
 9177SOL    HW229429   1.304   8.006   3.120
 9178SOL     OW29430   5.275   6.596   7.148
 9178SOL    HW129431   5.221   6.609   7.225
 9178SOL    HW229432   5.241   6.657   7.083
 9179SOL     OW29433  12.566   6.713   0.484
 9179SOL    HW129434  12.566   6.776   0.412
 9179SOL    HW229435  12.488   6.733   0.534
 9180SOL     OW29436  11.005   2.248   2.437
 9180SOL    HW129437  10.950   2.187   2.388
 9180SOL    HW229438  11.056   2.293   2.370
 9181SOL     OW29439  11.037  13.383  13.392
 9181SOL    HW129440  11.087  13.339  13.323
 9181SOL    HW229441  10.967  13.323  13.413
 9182SOL     OW29442  13.946  11.921   0.827
 9182SOL    HW129443  13.918  11.921   0.919
 9182SOL    HW229444  13.891  11.987   0.785
 9183SOL     OW29445   4.689   6.990   5.041
 9183SOL    HW129446   4.723   6.957   5.124
 9183SOL    HW229447   4.597   7.010   5.059
 9184SOL     OW29448   6.557   4.586   0.397
 9184SOL    HW129449   6.540   4.652   0.463
 9184SOL    HW229450   6.540   4.630   0.314
 9185SOL     OW29451  10.086  11.435  11.571
 9185SOL    HW129452  10.134  11.488  11.634
 9185SOL    HW229453  10.006  11.410  11.616
 9186SOL     OW29454  11.840   9.409   8.173
 9186SOL    HW129455  11.776   9.480   8.170
 9186SOL    HW229456  11.869   9.407   8.264
 9187SOL     OW29457  12.587   0.897   7.539
 9187SOL    HW129458  12.516   0.865   7.595
 9187SOL    HW229459  12.565   0.866   7.451
 9188SOL     OW29460   7.855   6.799   1.871
 9188SOL    HW129461   7.939   6.754   1.861
 9188SOL    HW229462   7.797   6.733   1.907
 9189SOL     OW29463   9.537   5.185   5.332
 9189SOL    HW129464   9.535   5.178   5.427
 9189SOL    HW229465   9.500   5.102   5.301
 9190SOL     OW29466   2.292  10.941   9.629
 9190SOL    HW129467   2.224  10.881   9.600
 9190SOL    HW229468   2.253  10.988   9.703
 9191SOL     OW29469   8.456  13.508   7.633
 9191SOL    HW129470   8.373  13.555   7.628
 9191SOL    HW229471   8.469  13.474   7.544
 9192SOL     OW29472   1.300   3.860  13.830
 9192SOL    HW129473   1.339   3.858  13.743
 9192SOL    HW229474   1.209   3.836  13.817
 9193SOL     OW29475   0.610   7.491   0.001
 9193SOL    HW129476   0.672   7.472   0.071
 9193SOL    HW229477   0.608   7.412  14.829
 9194SOL     OW29478  13.922   8.831   6.349
 9194SOL    HW129479  13.964   8.783   6.278
 9194SOL    HW229480  13.833   8.796   6.352
 9195SOL     OW29481   5.859   6.768   0.991
 9195SOL    HW129482   5.789   6.714   0.955
 9195SOL    HW229483   5.902   6.806   0.914
 9196SOL     OW29484   5.766   3.339   3.027
 9196SOL    HW129485   5.852   3.370   3.056
 9196SOL    HW229486   5.786   3.266   2.968
 9197SOL     OW29487  10.742  14.620   0.463
 9197SOL    HW129488  10.829  14.659   0.468
 9197SOL    HW229489  10.736  14.565   0.541
 9198SOL     OW29490   8.320   0.297   1.454
 9198SOL    HW129491   8.335   0.335   1.367
 9198SOL    HW229492   8.226   0.300   1.466
 9199SOL     OW29493   5.244   7.269  11.946
 9199SOL    HW129494   5.176   7.279  12.013
 9199SOL    HW229495   5.326   7.287  11.993
 9200SOL     OW29496  10.628   1.468  14.509
 9200SOL    HW129497  10.681   1.548  14.515
 9200SOL    HW229498  10.691   1.399  14.487
 9201SOL     OW29499   8.008   5.453  13.362
 9201SOL    HW129500   8.083   5.394  13.370
 9201SOL    HW229501   7.936   5.405  13.403
 9202SOL     OW29502   1.110  13.067  10.448
 9202SOL    HW129503   1.019  13.040  10.463
 9202SOL    HW229504   1.159  12.985  10.442
 9203SOL     OW29505   8.928   3.744   5.893
 9203SOL    HW129506   8.872   3.821   5.907
 9203SOL    HW229507   8.981   3.767   5.817
 9204SOL     OW29508  11.458  12.914   8.118
 9204SOL    HW129509  11.537  12.923   8.172
 9204SOL    HW229510  11.486  12.863   8.042
 9205SOL     OW29511   6.212  14.069   1.154
 9205SOL    HW129512   6.197  14.022   1.236
 9205SOL    HW229513   6.173  14.155   1.168
 9206SOL     OW29514  14.118   3.497   1.734
 9206SOL    HW129515  14.194   3.439   1.732
 9206SOL    HW229516  14.148   3.579   1.696
 9207SOL     OW29517   3.128  11.105   7.567
 9207SOL    HW129518   3.217  11.128   7.595
 9207SOL    HW229519   3.096  11.047   7.635
 9208SOL     OW29520   9.151  13.209   9.128
 9208SOL    HW129521   9.169  13.290   9.174
 9208SOL    HW229522   9.094  13.235   9.055
 9209SOL     OW29523   4.681   7.248   2.734
 9209SOL    HW129524   4.656   7.160   2.763
 9209SOL    HW229525   4.755   7.234   2.676
 9210SOL     OW29526   1.976   1.796  12.993
 9210SOL    HW129527   1.917   1.728  13.025
 9210SOL    HW229528   2.020   1.757  12.917
 9211SOL     OW29529   6.969   9.255  11.569
 9211SOL    HW129530   6.979   9.233  11.662
 9211SOL    HW229531   6.929   9.178  11.530
 9212SOL     OW29532   5.904   5.378   4.141
 9212SOL    HW129533   5.812   5.352   4.140
 9212SOL    HW229534   5.948   5.310   4.090
 9213SOL     OW29535  11.170   7.152   5.269
 9213SOL    HW129536  11.253   7.193   5.297
 9213SOL    HW229537  11.105   7.222   5.279
 9214SOL     OW29538   3.332   9.420   6.244
 9214SOL    HW129539   3.386   9.345   6.271
 9214SOL    HW229540   3.321   9.407   6.149
 9215SOL     OW29541  14.441   2.725   6.110
 9215SOL    HW129542  14.501   2.732   6.184
 9215SOL    HW229543  14.459   2.639   6.073
 9216SOL     OW29544   9.171   0.552  13.789
 9216SOL    HW129545   9.132   0.466  13.774
 9216SOL    HW229546   9.259   0.533  13.823
 9217SOL     OW29547   0.651  14.298   6.773
 9217SOL    HW129548   0.568  14.307   6.727
 9217SOL    HW229549   0.651  14.369   6.838
 9218SOL     OW29550   1.377   4.493  13.256
 9218SOL    HW129551   1.350   4.481  13.165
 9218SOL    HW229552   1.450   4.555  13.251
 9219SOL     OW29553  10.783   6.614   0.646
 9219SOL    HW129554  10.688   6.604   0.650
 9219SOL    HW229555  10.796   6.705   0.618
 9220SOL     OW29556   2.069  12.569   1.259
 9220SOL    HW129557   2.046  12.570   1.166
 9220SOL    HW229558   2.014  12.501   1.297
 9221SOL     OW29559   8.621   8.342   4.373
 9221SOL    HW129560   8.699   8.315   4.324
 9221SOL    HW229561   8.552   8.282   4.344
 9222SOL     OW29562   3.688   8.631   9.753
 9222SOL    HW129563   3.697   8.547   9.797
 9222SOL    HW229564   3.766   8.638   9.698
 9223SOL     OW29565   3.551   6.514  13.553
 9223SOL    HW129566   3.632   6.557  13.582
 9223SOL    HW229567   3.509   6.483  13.633
 9224SOL     OW29568   6.284   0.615  12.525
 9224SOL    HW129569   6.339   0.576  12.457
 9224SOL    HW229570   6.194   0.598  12.495
 9225SOL     OW29571  13.650  10.044  11.302
 9225SOL    HW129572  13.666  10.023  11.210
 9225SOL    HW229573  13.650  10.139  11.305
 9226SOL     OW29574  10.451   9.004   8.116
 9226SOL    HW129575  10.418   8.914   8.115
 9226SOL    HW229576  10.442   9.034   8.025
 9227SOL     OW29577   3.985   2.702   5.979
 9227SOL    HW129578   3.989   2.613   6.013
 9227SOL    HW229579   3.892   2.722   5.973
 9228SOL     OW29580  14.113  13.985   2.141
 9228SOL    HW129581  14.107  14.077   2.113
 9228SOL    HW229582  14.022  13.954   2.141
 9229SOL     OW29583  10.113   5.889   4.587
 9229SOL    HW129584  10.177   5.928   4.527
 9229SOL    HW229585  10.150   5.804   4.609
 9230SOL     OW29586   1.090   1.884   7.810
 9230SOL    HW129587   1.109   1.903   7.902
 9230SOL    HW229588   0.995   1.875   7.806
 9231SOL     OW29589   6.520  13.747   2.645
 9231SOL    HW129590   6.446  13.705   2.602
 9231SOL    HW229591   6.556  13.680   2.703
 9232SOL     OW29592   6.914  13.051   9.532
 9232SOL    HW129593   6.949  13.127   9.486
 9232SOL    HW229594   6.984  13.023   9.590
 9233SOL     OW29595   6.907  13.767  13.860
 9233SOL    HW129596   6.940  13.855  13.879
 9233SOL    HW229597   6.910  13.722  13.945
 9234SOL     OW29598   0.375  10.076  12.004
 9234SOL    HW129599   0.411  10.124  11.928
 9234SOL    HW229600   0.444  10.013  12.026
 9235SOL     OW29601   8.198  10.891  10.636
 9235SOL    HW129602   8.108  10.862  10.655
 9235SOL    HW229603   8.248  10.867  10.714
 9236SOL     OW29604   5.386   1.371  13.344
 9236SOL    HW129605   5.324   1.329  13.404
 9236SOL    HW229606   5.333   1.391  13.266
 9237SOL     OW29607  11.528   0.595   7.325
 9237SOL    HW129608  11.485   0.664   7.275
 9237SOL    HW229609  11.459   0.557   7.379
 9238SOL     OW29610  13.872  11.268   8.899
 9238SOL    HW129611  13.886  11.287   8.807
 9238SOL    HW229612  13.784  11.302   8.918
 9239SOL     OW29613   7.815   1.766   7.360
 9239SOL    HW129614   7.852   1.850   7.387
 9239SOL    HW229615   7.744   1.749   7.421
 9240SOL     OW29616   4.912   5.261  14.150
 9240SOL    HW129617   4.929   5.325  14.081
 9240SOL    HW229618   4.860   5.193  14.109
 9241SOL     OW29619  10.572  14.333   6.111
 9241SOL    HW129620  10.531  14.260   6.064
 9241SOL    HW229621  10.648  14.295   6.153
 9242SOL     OW29622   8.705   2.733   1.438
 9242SOL    HW129623   8.702   2.793   1.363
 9242SOL    HW229624   8.787   2.685   1.426
 9243SOL     OW29625   9.749   5.183  14.874
 9243SOL    HW129626   9.796   5.201   0.073
 9243SOL    HW229627   9.801   5.116  14.830
 9244SOL     OW29628  12.413  11.396   8.468
 9244SOL    HW129629  12.366  11.350   8.398
 9244SOL    HW229630  12.344  11.438   8.519
 9245SOL     OW29631   7.118   9.770   4.596
 9245SOL    HW129632   7.067   9.761   4.676
 9245SOL    HW229633   7.053   9.776   4.526
 9246SOL     OW29634   1.073   3.919   3.864
 9246SOL    HW129635   1.161   3.903   3.900
 9246SOL    HW229636   1.022   3.843   3.893
 9247SOL     OW29637   8.190   5.588   2.381
 9247SOL    HW129638   8.104   5.621   2.356
 9247SOL    HW229639   8.250   5.660   2.361
 9248SOL     OW29640   8.052  13.909   0.042
 9248SOL    HW129641   8.007  13.938   0.122
 9248SOL    HW229642   8.104  13.983   0.015
 9249SOL     OW29643  10.042   2.101   4.130
 9249SOL    HW129644   9.984   2.160   4.177
 9249SOL    HW229645   9.990   2.022   4.116
 9250SOL     OW29646  10.669   9.412   0.504
 9250SOL    HW129647  10.625   9.342   0.553
 9250SOL    HW229648  10.616   9.424   0.426
 9251SOL     OW29649   9.057   9.248   7.880
 9251SOL    HW129650   9.009   9.167   7.864
 9251SOL    HW229651   9.018   9.311   7.820
 9252SOL     OW29652   4.849   0.413  12.638
 9252SOL    HW129653   4.887   0.449  12.558
 9252SOL    HW229654   4.781   0.353  12.608
 9253SOL     OW29655  11.538   4.174   7.485
 9253SOL    HW129656  11.442   4.168   7.491
 9253SOL    HW229657  11.570   4.099   7.535
 9254SOL     OW29658   7.733   6.399  11.690
 9254SOL    HW129659   7.653   6.446  11.668
 9254SOL    HW229660   7.740   6.408  11.786
 9255SOL     OW29661   7.083  10.707   3.128
 9255SOL    HW129662   7.061  10.797   3.153
 9255SOL    HW229663   7.108  10.714   3.035
 9256SOL     OW29664   7.343   2.179  12.390
 9256SOL    HW129665   7.358   2.213  12.478
 9256SOL    HW229666   7.314   2.089  12.405
 9257SOL     OW29667   9.366   3.675   3.689
 9257SOL    HW129668   9.455   3.644   3.702
 9257SOL    HW229669   9.312   3.597   3.697
 9258SOL     OW29670   1.224  10.903   5.984
 9258SOL    HW129671   1.211  10.814   6.018
 9258SOL    HW229672   1.214  10.894   5.889
 9259SOL     OW29673  14.143   8.436   6.622
 9259SOL    HW129674  14.191   8.504   6.576
 9259SOL    HW229675  14.183   8.354   6.593
 9260SOL     OW29676  11.586   3.278  14.198
 9260SOL    HW129677  11.644   3.323  14.259
 9260SOL    HW229678  11.608   3.315  14.112
 9261SOL     OW29679   6.243   7.299   5.259
 9261SOL    HW129680   6.331   7.278   5.226
 9261SOL    HW229681   6.219   7.225   5.314
 9262SOL     OW29682   8.203   6.983   8.647
 9262SOL    HW129683   8.288   7.019   8.623
 9262SOL    HW229684   8.203   6.981   8.743
 9263SOL     OW29685   3.146   6.882  14.357
 9263SOL    HW129686   3.076   6.830  14.398
 9263SOL    HW229687   3.108   6.969  14.345
 9264SOL     OW29688   2.211   9.988   9.206
 9264SOL    HW129689   2.250   9.911   9.163
 9264SOL    HW229690   2.253  10.063   9.163
 9265SOL     OW29691  14.412  13.822   4.777
 9265SOL    HW129692  14.483  13.885   4.766
 9265SOL    HW229693  14.379  13.807   4.688
 9266SOL     OW29694  10.946   0.409  10.011
 9266SOL    HW129695  10.862   0.415   9.964
 9266SOL    HW229696  10.923   0.417  10.103
 9267SOL     OW29697  14.880   6.982   8.375
 9267SOL    HW129698   0.065   7.006   8.312
 9267SOL    HW229699   0.012   7.042   8.449
 9268SOL     OW29700  13.743  13.336   5.410
 9268SOL    HW129701  13.663  13.305   5.453
 9268SOL    HW229702  13.777  13.404   5.469
 9269SOL     OW29703   4.255   0.522  13.498
 9269SOL    HW129704   4.296   0.608  13.497
 9269SOL    HW229705   4.193   0.525  13.571
 9270SOL     OW29706   9.408   5.701   5.241
 9270SOL    HW129707   9.387   5.708   5.148
 9270SOL    HW229708   9.324   5.716   5.285
 9271SOL     OW29709  10.027   2.872  10.983
 9271SOL    HW129710   9.972   2.940  10.945
 9271SOL    HW229711  10.109   2.917  11.005
 9272SOL     OW29712   8.341  13.297  12.669
 9272SOL    HW129713   8.367  13.389  12.659
 9272SOL    HW229714   8.423  13.252  12.689
 9273SOL     OW29715   6.975   7.928   6.093
 9273SOL    HW129716   6.899   7.870   6.097
 9273SOL    HW229717   7.041   7.878   6.044
 9274SOL     OW29718   4.231   7.482  11.896
 9274SOL    HW129719   4.156   7.423  11.893
 9274SOL    HW229720   4.283   7.460  11.819
 9275SOL     OW29721  14.129  11.125   9.548
 9275SOL    HW129722  14.128  11.167   9.462
 9275SOL    HW229723  14.152  11.195   9.609
 9276SOL     OW29724   5.619  12.207   0.174
 9276SOL    HW129725   5.620  12.292   0.132
 9276SOL    HW229726   5.689  12.211   0.239
 9277SOL     OW29727   2.782   0.025   3.755
 9277SOL    HW129728   2.866  14.870   3.728
 9277SOL    HW229729   2.792   0.039   3.849
 9278SOL     OW29730  13.440   8.338   0.011
 9278SOL    HW129731  13.402   8.252  14.878
 9278SOL    HW229732  13.515   8.322   0.068
 9279SOL     OW29733   3.615  12.684   2.907
 9279SOL    HW129734   3.636  12.744   2.978
 9279SOL    HW229735   3.522  12.700   2.889
 9280SOL     OW29736   8.359   1.901   4.288
 9280SOL    HW129737   8.392   1.977   4.240
 9280SOL    HW229738   8.430   1.837   4.282
 9281SOL     OW29739   6.990  10.239   1.487
 9281SOL    HW129740   7.068  10.247   1.433
 9281SOL    HW229741   6.924  10.294   1.443
 9282SOL     OW29742  12.015   4.601  11.850
 9282SOL    HW129743  11.921   4.610  11.833
 9282SOL    HW229744  12.046   4.541  11.782
 9283SOL     OW29745  10.853   1.073   1.992
 9283SOL    HW129746  10.910   1.117   2.055
 9283SOL    HW229747  10.881   1.106   1.907
 9284SOL     OW29748   0.185   2.031   1.471
 9284SOL    HW129749   0.109   2.028   1.529
 9284SOL    HW229750   0.151   2.003   1.386
 9285SOL     OW29751  14.109   2.492  11.632
 9285SOL    HW129752  14.024   2.536  11.637
 9285SOL    HW229753  14.146   2.519  11.548
 9286SOL     OW29754   6.968   6.326   2.991
 9286SOL    HW129755   7.018   6.397   3.033
 9286SOL    HW229756   6.889   6.369   2.959
 9287SOL     OW29757   4.370   6.147   7.105
 9287SOL    HW129758   4.308   6.155   7.178
 9287SOL    HW229759   4.443   6.203   7.129
 9288SOL     OW29760   8.424   3.263   7.024
 9288SOL    HW129761   8.417   3.259   7.120
 9288SOL    HW229762   8.518   3.272   7.007
 9289SOL     OW29763   6.843  11.622   7.258
 9289SOL    HW129764   6.883  11.615   7.344
 9289SOL    HW229765   6.822  11.715   7.248
 9290SOL     OW29766  10.680   9.464   6.624
 9290SOL    HW129767  10.600   9.490   6.577
 9290SOL    HW229768  10.682   9.522   6.701
 9291SOL     OW29769   7.734   2.453  12.059
 9291SOL    HW129770   7.819   2.496  12.054
 9291SOL    HW229771   7.739   2.380  11.996
 9292SOL     OW29772   9.165   9.395   8.864
 9292SOL    HW129773   9.174   9.323   8.926
 9292SOL    HW229774   9.253   9.410   8.830
 9293SOL     OW29775   1.885   7.919  14.478
 9293SOL    HW129776   1.891   7.961  14.564
 9293SOL    HW229777   1.803   7.870  14.481
 9294SOL     OW29778   0.009   8.295   9.540
 9294SOL    HW129779   0.094   8.299   9.584
 9294SOL    HW229780  14.859   8.207   9.559
 9295SOL     OW29781   5.951   0.150  10.315
 9295SOL    HW129782   6.013   0.080  10.334
 9295SOL    HW229783   5.953   0.160  10.220
 9296SOL     OW29784   0.682   6.220  14.251
 9296SOL    HW129785   0.630   6.147  14.217
 9296SOL    HW229786   0.623   6.265  14.311
 9297SOL     OW29787   9.328   2.841   2.264
 9297SOL    HW129788   9.241   2.864   2.231
 9297SOL    HW229789   9.310   2.787   2.341
 9298SOL     OW29790   6.714  10.408   3.343
 9298SOL    HW129791   6.794  10.419   3.292
 9298SOL    HW229792   6.687  10.498   3.365
 9299SOL     OW29793   7.878  10.732   9.670
 9299SOL    HW129794   7.866  10.697   9.758
 9299SOL    HW229795   7.911  10.821   9.684
 9300SOL     OW29796  11.128   6.315   9.700
 9300SOL    HW129797  11.218   6.343   9.714
 9300SOL    HW229798  11.111   6.253   9.772
 9301SOL     OW29799   7.245  10.458  10.530
 9301SOL    HW129800   7.301  10.521  10.575
 9301SOL    HW229801   7.248  10.380  10.584
 9302SOL     OW29802   6.657  13.374  12.195
 9302SOL    HW129803   6.672  13.282  12.175
 9302SOL    HW229804   6.595  13.372  12.268
 9303SOL     OW29805   0.756  10.385   4.501
 9303SOL    HW129806   0.836  10.344   4.467
 9303SOL    HW229807   0.697  10.312   4.520
 9304SOL     OW29808   2.683   7.854   8.209
 9304SOL    HW129809   2.648   7.856   8.120
 9304SOL    HW229810   2.665   7.941   8.245
 9305SOL     OW29811   6.187  12.270   8.233
 9305SOL    HW129812   6.135  12.290   8.155
 9305SOL    HW229813   6.178  12.347   8.289
 9306SOL     OW29814   6.667  14.327  14.178
 9306SOL    HW129815   6.634  14.417  14.191
 9306SOL    HW229816   6.641  14.281  14.258
 9307SOL     OW29817   9.166   7.278   9.022
 9307SOL    HW129818   9.235   7.340   8.999
 9307SOL    HW229819   9.184   7.201   8.968
 9308SOL     OW29820   7.658  10.914  10.816
 9308SOL    HW129821   7.591  10.908  10.884
 9308SOL    HW229822   7.646  10.834  10.764
 9309SOL     OW29823   8.185   6.243   3.884
 9309SOL    HW129824   8.256   6.277   3.939
 9309SOL    HW229825   8.230   6.209   3.806
 9310SOL     OW29826   4.944  10.438   4.611
 9310SOL    HW129827   4.974  10.418   4.700
 9310SOL    HW229828   4.961  10.532   4.601
 9311SOL     OW29829   9.336   5.864   0.878
 9311SOL    HW129830   9.406   5.840   0.938
 9311SOL    HW229831   9.358   5.952   0.849
 9312SOL     OW29832   5.270   7.993  11.418
 9312SOL    HW129833   5.285   7.960  11.506
 9312SOL    HW229834   5.183   8.033  11.422
 9313SOL     OW29835   8.868   0.318   6.259
 9313SOL    HW129836   8.815   0.239   6.252
 9313SOL    HW229837   8.890   0.324   6.352
 9314SOL     OW29838  14.389   4.973   1.546
 9314SOL    HW129839  14.406   5.065   1.530
 9314SOL    HW229840  14.475   4.932   1.547
 9315SOL     OW29841   5.902   4.349   5.127
 9315SOL    HW129842   5.843   4.325   5.198
 9315SOL    HW229843   5.876   4.438   5.102
 9316SOL     OW29844   4.370   7.905  12.162
 9316SOL    HW129845   4.424   7.847  12.216
 9316SOL    HW229846   4.416   7.909  12.078
 9317SOL     OW29847  11.325   7.769   2.630
 9317SOL    HW129848  11.292   7.859   2.635
 9317SOL    HW229849  11.420   7.779   2.622
 9318SOL     OW29850   9.756   2.629  10.406
 9318SOL    HW129851   9.808   2.554  10.378
 9318SOL    HW229852   9.779   2.699  10.345
 9319SOL     OW29853   4.570   3.897   6.461
 9319SOL    HW129854   4.649   3.939   6.496
 9319SOL    HW229855   4.578   3.909   6.366
 9320SOL     OW29856  13.951   7.674  12.251
 9320SOL    HW129857  13.956   7.598  12.192
 9320SOL    HW229858  13.915   7.744  12.196
 9321SOL     OW29859  14.146   2.330   7.788
 9321SOL    HW129860  14.237   2.338   7.818
 9321SOL    HW229861  14.153   2.312   7.694
 9322SOL     OW29862   3.177   3.619   1.758
 9322SOL    HW129863   3.272   3.605   1.755
 9322SOL    HW229864   3.163   3.701   1.711
 9323SOL     OW29865  11.377   1.529   4.223
 9323SOL    HW129866  11.318   1.590   4.179
 9323SOL    HW229867  11.321   1.477   4.280
 9324SOL     OW29868  13.685  12.319  13.211
 9324SOL    HW129869  13.732  12.400  13.231
 9324SOL    HW229870  13.594  12.337  13.233
 9325SOL     OW29871   1.669  14.130  11.360
 9325SOL    HW129872   1.708  14.183  11.290
 9325SOL    HW229873   1.621  14.061  11.313
 9326SOL     OW29874  13.070  12.633   4.064
 9326SOL    HW129875  12.989  12.664   4.103
 9326SOL    HW229876  13.095  12.557   4.116
 9327SOL     OW29877   7.596  13.083   3.672
 9327SOL    HW129878   7.515  13.083   3.622
 9327SOL    HW229879   7.568  13.097   3.763
 9328SOL     OW29880   0.937  12.220   7.155
 9328SOL    HW129881   0.942  12.304   7.109
 9328SOL    HW229882   0.921  12.156   7.086
 9329SOL     OW29883   6.674   6.628   9.861
 9329SOL    HW129884   6.647   6.718   9.844
 9329SOL    HW229885   6.612   6.597   9.927
 9330SOL     OW29886   1.145  11.047   7.996
 9330SOL    HW129887   1.154  11.053   7.901
 9330SOL    HW229888   1.235  11.039   8.028
 9331SOL     OW29889  11.082   8.646   2.944
 9331SOL    HW129890  11.004   8.651   3.000
 9331SOL    HW229891  11.151   8.613   3.002
 9332SOL     OW29892   7.503   1.767   3.804
 9332SOL    HW129893   7.452   1.779   3.724
 9332SOL    HW229894   7.502   1.673   3.820
 9333SOL     OW29895  10.849   6.722  11.783
 9333SOL    HW129896  10.922   6.662  11.767
 9333SOL    HW229897  10.846   6.729  11.878
 9334SOL     OW29898   9.295   0.449  11.680
 9334SOL    HW129899   9.228   0.448  11.749
 9334SOL    HW229900   9.295   0.360  11.645
 9335SOL     OW29901   0.051   8.182  10.836
 9335SOL    HW129902   0.050   8.106  10.778
 9335SOL    HW229903   0.142   8.188  10.865
 9336SOL     OW29904  14.867  12.876   9.596
 9336SOL    HW129905   0.032  12.899   9.676
 9336SOL    HW229906   0.049  12.885   9.526
 9337SOL     OW29907   1.511  13.528   0.352
 9337SOL    HW129908   1.443  13.461   0.362
 9337SOL    HW229909   1.554  13.507   0.269
 9338SOL     OW29910  13.045   5.166   4.525
 9338SOL    HW129911  12.975   5.130   4.580
 9338SOL    HW229912  13.072   5.246   4.570
 9339SOL     OW29913   6.001  12.352  11.710
 9339SOL    HW129914   5.967  12.338  11.798
 9339SOL    HW229915   6.037  12.440  11.712
 9340SOL     OW29916   8.416  10.305  12.242
 9340SOL    HW129917   8.409  10.212  12.222
 9340SOL    HW229918   8.438  10.309  12.335
 9341SOL     OW29919  13.431   2.186  14.150
 9341SOL    HW129920  13.463   2.275  14.164
 9341SOL    HW229921  13.338   2.198  14.127
 9342SOL     OW29922   3.130   4.076  12.938
 9342SOL    HW129923   3.167   3.988  12.929
 9342SOL    HW229924   3.054   4.063  12.996
 9343SOL     OW29925  11.858   8.416   8.118
 9343SOL    HW129926  11.949   8.440   8.101
 9343SOL    HW229927  11.856   8.321   8.109
 9344SOL     OW29928   8.468  10.244  14.831
 9344SOL    HW129929   8.433  10.165  14.790
 9344SOL    HW229930   8.512  10.290  14.760
 9345SOL     OW29931  11.472   9.744  14.037
 9345SOL    HW129932  11.420   9.702  14.105
 9345SOL    HW229933  11.457   9.692  13.958
 9346SOL     OW29934  11.129   9.709   8.194
 9346SOL    HW129935  11.105   9.726   8.286
 9346SOL    HW229936  11.051   9.666   8.157
 9347SOL     OW29937   2.714   3.838  12.586
 9347SOL    HW129938   2.683   3.896  12.516
 9347SOL    HW229939   2.653   3.764  12.585
 9348SOL     OW29940  10.529  13.050   9.638
 9348SOL    HW129941  10.594  13.091   9.581
 9348SOL    HW229942  10.446  13.064   9.594
 9349SOL     OW29943  11.672   5.162   6.697
 9349SOL    HW129944  11.612   5.234   6.719
 9349SOL    HW229945  11.695   5.125   6.782
 9350SOL     OW29946   4.980   6.493   5.368
 9350SOL    HW129947   5.042   6.503   5.296
 9350SOL    HW229948   4.985   6.401   5.393
 9351SOL     OW29949   7.560   3.932  13.535
 9351SOL    HW129950   7.524   3.868  13.474
 9351SOL    HW229951   7.540   3.897  13.622
 9352SOL     OW29952   7.715   9.165   0.660
 9352SOL    HW129953   7.807   9.184   0.674
 9352SOL    HW229954   7.687   9.229   0.594
 9353SOL     OW29955   1.937   9.589   5.000
 9353SOL    HW129956   1.891   9.615   5.080
 9353SOL    HW229957   2.021   9.557   5.031
 9354SOL     OW29958   5.154   8.331   4.371
 9354SOL    HW129959   5.060   8.330   4.355
 9354SOL    HW229960   5.162   8.368   4.459
 9355SOL     OW29961   4.628   2.550   1.587
 9355SOL    HW129962   4.578   2.557   1.506
 9355SOL    HW229963   4.672   2.635   1.595
 9356SOL     OW29964   3.219   9.242   6.927
 9356SOL    HW129965   3.203   9.262   6.835
 9356SOL    HW229966   3.296   9.185   6.927
 9357SOL     OW29967   3.485   3.878  14.424
 9357SOL    HW129968   3.529   3.832  14.353
 9357SOL    HW229969   3.505   3.970  14.409
 9358SOL     OW29970   5.531   9.906  12.214
 9358SOL    HW129971   5.555   9.834  12.156
 9358SOL    HW229972   5.437   9.893  12.231
 9359SOL     OW29973   9.802   0.750   1.513
 9359SOL    HW129974   9.730   0.687   1.515
 9359SOL    HW229975   9.773   0.817   1.451
 9360SOL     OW29976   8.765   9.671   2.574
 9360SOL    HW129977   8.752   9.708   2.661
 9360SOL    HW229978   8.789   9.580   2.590
 9361SOL     OW29979  13.474   7.899   4.868
 9361SOL    HW129980  13.524   7.978   4.891
 9361SOL    HW229981  13.527   7.856   4.802
 9362SOL     OW29982  14.164   5.929   2.580
 9362SOL    HW129983  14.108   5.889   2.646
 9362SOL    HW229984  14.217   5.992   2.628
 9363SOL     OW29985   7.949  10.976   4.290
 9363SOL    HW129986   7.945  11.049   4.228
 9363SOL    HW229987   8.020  10.921   4.256
 9364SOL     OW29988   4.736  14.497  12.013
 9364SOL    HW129989   4.817  14.447  12.022
 9364SOL    HW229990   4.681  14.443  11.956
 9365SOL     OW29991   2.897  12.074   0.109
 9365SOL    HW129992   2.950  12.151   0.127
 9365SOL    HW229993   2.957  12.000   0.120
 9366SOL     OW29994   7.816  10.653   0.393
 9366SOL    HW129995   7.771  10.722   0.345
 9366SOL    HW229996   7.765  10.641   0.473
 9367SOL     OW29997   2.254   1.896   6.618
 9367SOL    HW129998   2.168   1.919   6.655
 9367SOL    HW229999   2.310   1.970   6.640
 9368SOL     OW30000   6.544   7.534   0.644
 9368SOL    HW130001   6.602   7.571   0.710
 9368SOL    HW230002   6.456   7.559   0.672
 9369SOL     OW30003   9.925   2.552   2.644
 9369SOL    HW130004   9.978   2.489   2.595
 9369SOL    HW230005   9.897   2.616   2.578
 9370SOL     OW30006  10.556  10.450  12.285
 9370SOL    HW130007  10.633  10.499  12.256
 9370SOL    HW230008  10.499  10.448  12.208
 9371SOL     OW30009   8.154  11.058  13.306
 9371SOL    HW130010   8.175  11.044  13.214
 9371SOL    HW230011   8.204  11.136  13.330
 9372SOL     OW30012   5.953   2.020  12.354
 9372SOL    HW130013   5.962   1.942  12.299
 9372SOL    HW230014   5.886   1.997  12.418
 9373SOL     OW30015  12.782  11.990   2.319
 9373SOL    HW130016  12.833  12.070   2.306
 9373SOL    HW230017  12.754  11.994   2.411
 9374SOL     OW30018   9.711   9.400   0.022
 9374SOL    HW130019   9.747   9.399   0.110
 9374SOL    HW230020   9.756   9.473  14.860
 9375SOL     OW30021   2.320   3.069   4.836
 9375SOL    HW130022   2.242   3.120   4.859
 9375SOL    HW230023   2.292   3.018   4.759
 9376SOL     OW30024  10.581   6.160   2.769
 9376SOL    HW130025  10.628   6.200   2.695
 9376SOL    HW230026  10.497   6.205   2.771
 9377SOL     OW30027   1.903   3.819   4.441
 9377SOL    HW130028   1.886   3.726   4.457
 9377SOL    HW230029   1.863   3.836   4.356
 9378SOL     OW30030   9.150   9.989   5.929
 9378SOL    HW130031   9.151  10.005   6.023
 9378SOL    HW230032   9.178  10.072   5.891
 9379SOL     OW30033   1.962   0.466  12.130
 9379SOL    HW130034   2.012   0.406  12.074
 9379SOL    HW230035   1.993   0.447  12.219
 9380SOL     OW30036   4.180  14.513  10.725
 9380SOL    HW130037   4.123  14.441  10.698
 9380SOL    HW230038   4.203  14.492  10.816
 9381SOL     OW30039   5.214  13.268  10.749
 9381SOL    HW130040   5.228  13.244  10.657
 9381SOL    HW230041   5.299  13.257  10.790
 9382SOL     OW30042   0.780   2.833   3.953
 9382SOL    HW130043   0.700   2.817   4.003
 9382SOL    HW230044   0.848   2.843   4.019
 9383SOL     OW30045  10.532   2.098  12.580
 9383SOL    HW130046  10.563   2.058  12.662
 9383SOL    HW230047  10.436   2.097  12.589
 9384SOL     OW30048   4.408  13.977   4.954
 9384SOL    HW130049   4.335  13.987   5.014
 9384SOL    HW230050   4.465  13.912   4.995
 9385SOL     OW30051   4.233   0.781  14.785
 9385SOL    HW130052   4.255   0.702  14.835
 9385SOL    HW230053   4.141   0.797  14.805
 9386SOL     OW30054   6.786   7.000  11.787
 9386SOL    HW130055   6.842   7.073  11.811
 9386SOL    HW230056   6.727   7.035  11.720
 9387SOL     OW30057   2.627  11.618  11.755
 9387SOL    HW130058   2.541  11.610  11.797
 9387SOL    HW230059   2.677  11.544  11.790
 9388SOL     OW30060  11.960   3.535   1.533
 9388SOL    HW130061  11.866   3.524   1.519
 9388SOL    HW230062  11.986   3.456   1.582
 9389SOL     OW30063   7.434   0.233   3.745
 9389SOL    HW130064   7.455   0.142   3.724
 9389SOL    HW230065   7.519   0.274   3.761
 9390SOL     OW30066   3.904  10.940   8.630
 9390SOL    HW130067   3.831  10.912   8.575
 9390SOL    HW230068   3.946  10.858   8.658
 9391SOL     OW30069   3.209  11.923  14.791
 9391SOL    HW130070   3.278  11.858  14.804
 9391SOL    HW230071   3.246  12.005  14.824
 9392SOL     OW30072   8.632   3.343  11.456
 9392SOL    HW130073   8.595   3.277  11.515
 9392SOL    HW230074   8.656   3.415  11.514
 9393SOL     OW30075   0.884  10.855  13.557
 9393SOL    HW130076   0.958  10.912  13.542
 9393SOL    HW230077   0.912  10.797  13.628
 9394SOL     OW30078   8.395  11.192   4.590
 9394SOL    HW130079   8.308  11.203   4.628
 9394SOL    HW230080   8.455  11.218   4.660
 9395SOL     OW30081   2.232   6.452   4.015
 9395SOL    HW130082   2.289   6.527   3.996
 9395SOL    HW230083   2.186   6.435   3.933
 9396SOL     OW30084  10.059   7.399   4.394
 9396SOL    HW130085  10.123   7.351   4.342
 9396SOL    HW230086  10.082   7.380   4.485
 9397SOL     OW30087  14.180  14.212   1.768
 9397SOL    HW130088  14.191  14.117   1.781
 9397SOL    HW230089  14.240  14.252   1.831
 9398SOL     OW30090  13.752   1.665   4.151
 9398SOL    HW130091  13.674   1.622   4.115
 9398SOL    HW230092  13.732   1.758   4.148
 9399SOL     OW30093   4.663   1.872  13.068
 9399SOL    HW130094   4.645   1.861  13.162
 9399SOL    HW230095   4.588   1.922  13.035
 9400SOL     OW30096   2.802   4.400   3.148
 9400SOL    HW130097   2.716   4.398   3.108
 9400SOL    HW230098   2.812   4.489   3.180
 9401SOL     OW30099   9.800   3.068   8.017
 9401SOL    HW130100   9.734   3.128   8.052
 9401SOL    HW230101   9.836   3.115   7.942
 9402SOL     OW30102   3.206  13.301   2.707
 9402SOL    HW130103   3.276  13.313   2.643
 9402SOL    HW230104   3.212  13.209   2.732
 9403SOL     OW30105  10.288   3.009   2.840
 9403SOL    HW130106  10.210   2.975   2.882
 9403SOL    HW230107  10.286   2.973   2.752
 9404SOL     OW30108  13.978   9.812  10.715
 9404SOL    HW130109  13.937   9.726  10.724
 9404SOL    HW230110  14.060   9.805  10.764
 9405SOL     OW30111   7.569   0.944   3.501
 9405SOL    HW130112   7.475   0.942   3.481
 9405SOL    HW230113   7.607   0.998   3.432
 9406SOL     OW30114  14.343   5.421  13.263
 9406SOL    HW130115  14.308   5.356  13.203
 9406SOL    HW230116  14.286   5.497  13.252
 9407SOL     OW30117  11.926  13.205   8.367
 9407SOL    HW130118  11.926  13.294   8.402
 9407SOL    HW230119  11.974  13.212   8.284
 9408SOL     OW30120   0.843  10.698  10.415
 9408SOL    HW130121   0.895  10.736  10.485
 9408SOL    HW230122   0.848  10.603  10.430
 9409SOL     OW30123   6.274   2.608   7.310
 9409SOL    HW130124   6.222   2.622   7.231
 9409SOL    HW230125   6.275   2.693   7.354
 9410SOL     OW30126  10.050   4.878  10.326
 9410SOL    HW130127  10.111   4.936  10.370
 9410SOL    HW230128  10.020   4.817  10.394
 9411SOL     OW30129   5.182   3.447   6.802
 9411SOL    HW130130   5.244   3.377   6.825
 9411SOL    HW230131   5.096   3.412   6.824
 9412SOL     OW30132   3.461   5.927   1.229
 9412SOL    HW130133   3.409   5.990   1.278
 9412SOL    HW230134   3.540   5.915   1.281
 9413SOL     OW30135  10.415   7.854   3.525
 9413SOL    HW130136  10.468   7.816   3.455
 9413SOL    HW230137  10.423   7.792   3.598
 9414SOL     OW30138  12.242   2.984   9.987
 9414SOL    HW130139  12.307   2.932   9.940
 9414SOL    HW230140  12.166   2.984   9.930
 9415SOL     OW30141   5.650   3.149  12.856
 9415SOL    HW130142   5.692   3.063  12.864
 9415SOL    HW230143   5.722   3.212  12.856
 9416SOL     OW30144   8.642   0.390  13.856
 9416SOL    HW130145   8.708   0.339  13.809
 9416SOL    HW230146   8.687   0.421  13.934
 9417SOL     OW30147   3.160   8.371  10.207
 9417SOL    HW130148   3.202   8.285  10.216
 9417SOL    HW230149   3.082   8.355  10.155
 9418SOL     OW30150   1.169   1.811   6.005
 9418SOL    HW130151   1.183   1.855   5.921
 9418SOL    HW230152   1.238   1.745   6.010
 9419SOL     OW30153  11.835  10.209  12.005
 9419SOL    HW130154  11.746  10.226  11.974
 9419SOL    HW230155  11.891  10.254  11.942
 9420SOL     OW30156   4.189   5.203   9.151
 9420SOL    HW130157   4.126   5.159   9.208
 9420SOL    HW230158   4.148   5.202   9.064
 9421SOL     OW30159  10.916   3.057   8.939
 9421SOL    HW130160  10.891   2.971   8.973
 9421SOL    HW230161  10.956   3.101   9.014
 9422SOL     OW30162   5.184  14.445   1.520
 9422SOL    HW130163   5.266  14.444   1.571
 9422SOL    HW230164   5.116  14.427   1.585
 9423SOL     OW30165   4.440   0.506   8.075
 9423SOL    HW130166   4.524   0.552   8.072
 9423SOL    HW230167   4.391   0.552   8.143
 9424SOL     OW30168   8.420   2.788  13.953
 9424SOL    HW130169   8.352   2.728  13.924
 9424SOL    HW230170   8.405   2.868  13.902
 9425SOL     OW30171  12.772   9.068  11.623
 9425SOL    HW130172  12.725   9.054  11.705
 9425SOL    HW230173  12.733   9.005  11.562
 9426SOL     OW30174   9.557   7.614   9.552
 9426SOL    HW130175   9.498   7.545   9.581
 9426SOL    HW230176   9.642   7.591   9.590
 9427SOL     OW30177  12.428  11.918   7.562
 9427SOL    HW130178  12.493  11.899   7.494
 9427SOL    HW230179  12.462  11.875   7.640
 9428SOL     OW30180   4.770   6.018   3.849
 9428SOL    HW130181   4.750   5.966   3.771
 9428SOL    HW230182   4.707   6.090   3.846
 9429SOL     OW30183  11.545   1.455   7.602
 9429SOL    HW130184  11.474   1.405   7.642
 9429SOL    HW230185  11.558   1.529   7.660
 9430SOL     OW30186   6.657   5.953   4.052
 9430SOL    HW130187   6.635   5.894   4.124
 9430SOL    HW230188   6.581   6.011   4.044
 9431SOL     OW30189   6.276   9.332   9.336
 9431SOL    HW130190   6.224   9.257   9.306
 9431SOL    HW230191   6.354   9.331   9.279
 9432SOL     OW30192  11.956   8.784  13.253
 9432SOL    HW130193  11.968   8.879  13.256
 9432SOL    HW230194  12.034   8.748  13.295
 9433SOL     OW30195  13.409  13.188  12.472
 9433SOL    HW130196  13.334  13.215  12.525
 9433SOL    HW230197  13.433  13.267  12.423
 9434SOL     OW30198   2.169  13.339   8.935
 9434SOL    HW130199   2.203  13.427   8.953
 9434SOL    HW230200   2.096  13.353   8.875
 9435SOL     OW30201  12.279   8.903   5.961
 9435SOL    HW130202  12.273   8.961   6.037
 9435SOL    HW230203  12.344   8.837   5.986
 9436SOL     OW30204  10.454  14.111   6.011
 9436SOL    HW130205  10.394  14.046   5.976
 9436SOL    HW230206  10.539  14.089   5.974
 9437SOL     OW30207  11.132  11.917  10.733
 9437SOL    HW130208  11.156  11.973  10.807
 9437SOL    HW230209  11.076  11.849  10.771
 9438SOL     OW30210   1.287  11.050  14.130
 9438SOL    HW130211   1.311  11.127  14.182
 9438SOL    HW230212   1.241  11.085  14.054
 9439SOL     OW30213   5.364  12.877   9.461
 9439SOL    HW130214   5.431  12.809   9.453
 9439SOL    HW230215   5.289  12.841   9.414
 9440SOL     OW30216   0.571   4.938   7.051
 9440SOL    HW130217   0.619   4.857   7.036
 9440SOL    HW230218   0.606   4.999   6.986
 9441SOL     OW30219   8.255  13.523   7.212
 9441SOL    HW130220   8.336  13.541   7.163
 9441SOL    HW230221   8.238  13.430   7.196
 9442SOL     OW30222  10.252  11.357   1.329
 9442SOL    HW130223  10.192  11.302   1.279
 9442SOL    HW230224  10.230  11.339   1.421
 9443SOL     OW30225  12.915   4.183   8.448
 9443SOL    HW130226  12.846   4.132   8.406
 9443SOL    HW230227  12.873   4.266   8.470
 9444SOL     OW30228   9.847   8.459  12.744
 9444SOL    HW130229   9.875   8.545  12.712
 9444SOL    HW230230   9.839   8.470  12.839
 9445SOL     OW30231   0.222   0.027   7.269
 9445SOL    HW130232   0.299  14.857   7.245
 9445SOL    HW230233   0.234   0.109   7.221
 9446SOL     OW30234  10.984   7.854  10.398
 9446SOL    HW130235  11.058   7.844  10.458
 9446SOL    HW230236  11.016   7.818  10.315
 9447SOL     OW30237   4.939   8.214  12.977
 9447SOL    HW130238   4.911   8.200  12.887
 9447SOL    HW230239   4.975   8.130  13.004
 9448SOL     OW30240  10.017  11.155  10.412
 9448SOL    HW130241   9.961  11.085  10.378
 9448SOL    HW230242  10.098  11.147  10.363
 9449SOL     OW30243   0.379   5.097  14.861
 9449SOL    HW130244   0.414   5.134   0.060
 9449SOL    HW230245   0.285   5.091  14.876
 9450SOL     OW30246   5.408   2.587   8.761
 9450SOL    HW130247   5.483   2.624   8.806
 9450SOL    HW230248   5.431   2.590   8.668
 9451SOL     OW30249  13.801  14.469   3.989
 9451SOL    HW130250  13.868  14.411   4.026
 9451SOL    HW230251  13.721  14.445   4.035
 9452SOL     OW30252  14.315  14.222  14.123
 9452SOL    HW130253  14.331  14.135  14.085
 9452SOL    HW230254  14.257  14.265  14.060
 9453SOL     OW30255   3.284  14.261   1.123
 9453SOL    HW130256   3.202  14.252   1.173
 9453SOL    HW230257   3.271  14.340   1.070
 9454SOL     OW30258   4.476  14.106  13.149
 9454SOL    HW130259   4.410  14.127  13.083
 9454SOL    HW230260   4.446  14.151  13.228
 9455SOL     OW30261  12.863   7.804   2.026
 9455SOL    HW130262  12.919   7.853   1.966
 9455SOL    HW230263  12.776   7.809   1.987
 9456SOL     OW30264   9.109   5.827   6.513
 9456SOL    HW130265   9.065   5.805   6.431
 9456SOL    HW230266   9.199   5.847   6.488
 9457SOL     OW30267  14.155   0.068   3.840
 9457SOL    HW130268  14.090   0.133   3.813
 9457SOL    HW230269  14.213   0.115   3.900
 9458SOL     OW30270   8.988  14.659   3.361
 9458SOL    HW130271   9.084  14.666   3.353
 9458SOL    HW230272   8.975  14.585   3.420
 9459SOL     OW30273  10.832   1.315   1.459
 9459SOL    HW130274  10.853   1.247   1.395
 9459SOL    HW230275  10.852   1.397   1.415
 9460SOL     OW30276   5.015   2.445  12.392
 9460SOL    HW130277   5.103   2.429  12.357
 9460SOL    HW230278   4.981   2.517  12.339
 9461SOL     OW30279   2.722   0.032   6.616
 9461SOL    HW130280   2.812   0.060   6.634
 9461SOL    HW230281   2.731  14.831   6.570
 9462SOL     OW30282   4.409   9.965   9.773
 9462SOL    HW130283   4.416   9.883   9.724
 9462SOL    HW230284   4.362   9.941   9.853
 9463SOL     OW30285  13.728  10.105   0.150
 9463SOL    HW130286  13.750  10.102   0.056
 9463SOL    HW230287  13.783  10.037   0.189
 9464SOL     OW30288   0.211  13.465   7.962
 9464SOL    HW130289   0.190  13.372   7.965
 9464SOL    HW230290   0.128  13.509   7.984
 9465SOL     OW30291  10.878   2.968   1.254
 9465SOL    HW130292  10.933   3.013   1.318
 9465SOL    HW230293  10.879   3.025   1.177
 9466SOL     OW30294  12.063   8.471  10.663
 9466SOL    HW130295  12.058   8.566  10.656
 9466SOL    HW230296  12.023   8.439  10.582
 9467SOL     OW30297   4.559   2.006   0.137
 9467SOL    HW130298   4.630   2.030   0.197
 9467SOL    HW230299   4.486   1.983   0.195
 9468SOL     OW30300   7.670   3.321  14.825
 9468SOL    HW130301   7.713   3.346   0.025
 9468SOL    HW230302   7.585   3.286  14.851
 9469SOL     OW30303   1.652   1.354   5.702
 9469SOL    HW130304   1.635   1.304   5.623
 9469SOL    HW230305   1.692   1.435   5.671
 9470SOL     OW30306   6.580   9.715  10.580
 9470SOL    HW130307   6.601   9.699  10.488
 9470SOL    HW230308   6.484   9.720  10.581
 9471SOL     OW30309   7.668  10.651   6.807
 9471SOL    HW130310   7.615  10.653   6.727
 9471SOL    HW230311   7.727  10.726   6.798
 9472SOL     OW30312   6.170   0.823  10.561
 9472SOL    HW130313   6.230   0.815  10.487
 9472SOL    HW230314   6.084   0.806  10.523
 9473SOL     OW30315  11.530  12.576   0.353
 9473SOL    HW130316  11.437  12.598   0.351
 9473SOL    HW230317  11.571  12.638   0.293
 9474SOL     OW30318   7.998   8.475   6.404
 9474SOL    HW130319   7.970   8.561   6.374
 9474SOL    HW230320   8.022   8.427   6.325
 9475SOL     OW30321  12.875   1.437   8.641
 9475SOL    HW130322  12.925   1.427   8.722
 9475SOL    HW230323  12.899   1.362   8.588
 9476SOL     OW30324  14.291   1.302  12.758
 9476SOL    HW130325  14.357   1.234  12.743
 9476SOL    HW230326  14.317   1.374  12.700
 9477SOL     OW30327  13.995   6.750   6.145
 9477SOL    HW130328  13.907   6.713   6.149
 9477SOL    HW230329  14.052   6.678   6.171
 9478SOL     OW30330  13.824   7.513   0.976
 9478SOL    HW130331  13.794   7.554   0.895
 9478SOL    HW230332  13.910   7.476   0.954
 9479SOL     OW30333   3.511  10.698   5.656
 9479SOL    HW130334   3.510  10.710   5.561
 9479SOL    HW230335   3.429  10.652   5.675
 9480SOL     OW30336   9.144  13.395  12.463
 9480SOL    HW130337   9.200  13.418  12.537
 9480SOL    HW230338   9.056  13.388  12.500
 9481SOL     OW30339  13.854   0.332   9.363
 9481SOL    HW130340  13.789   0.278   9.318
 9481SOL    HW230341  13.820   0.421   9.358
 9482SOL     OW30342   7.223   1.354   0.576
 9482SOL    HW130343   7.219   1.355   0.480
 9482SOL    HW230344   7.132   1.345   0.604
 9483SOL     OW30345   0.772   4.205   9.380
 9483SOL    HW130346   0.779   4.284   9.327
 9483SOL    HW230347   0.862   4.186   9.407
 9484SOL     OW30348   5.459  12.489   1.762
 9484SOL    HW130349   5.476  12.582   1.751
 9484SOL    HW230350   5.451  12.455   1.673
 9485SOL     OW30351   9.814  13.413   4.383
 9485SOL    HW130352   9.833  13.430   4.475
 9485SOL    HW230353   9.735  13.359   4.384
 9486SOL     OW30354  11.423   1.718   8.490
 9486SOL    HW130355  11.487   1.708   8.419
 9486SOL    HW230356  11.371   1.794   8.464
 9487SOL     OW30357  10.793  10.257   2.312
 9487SOL    HW130358  10.774  10.342   2.273
 9487SOL    HW230359  10.787  10.272   2.407
 9488SOL     OW30360   1.069  10.333   5.361
 9488SOL    HW130361   1.092  10.289   5.279
 9488SOL    HW230362   1.047  10.422   5.336
 9489SOL     OW30363   2.716   9.233   4.058
 9489SOL    HW130364   2.621   9.237   4.069
 9489SOL    HW230365   2.729   9.169   3.988
 9490SOL     OW30366   0.825   4.072   8.887
 9490SOL    HW130367   0.781   4.155   8.904
 9490SOL    HW230368   0.877   4.089   8.809
 9491SOL     OW30369  13.808   3.657  10.342
 9491SOL    HW130370  13.799   3.616  10.428
 9491SOL    HW230371  13.852   3.740  10.360
 9492SOL     OW30372  14.230  11.678  11.563
 9492SOL    HW130373  14.286  11.619  11.615
 9492SOL    HW230374  14.247  11.652  11.473
 9493SOL     OW30375   5.093   8.876   6.700
 9493SOL    HW130376   5.050   8.828   6.629
 9493SOL    HW230377   5.067   8.830   6.780
 9494SOL     OW30378   1.018   1.840   1.127
 9494SOL    HW130379   0.988   1.891   1.051
 9494SOL    HW230380   1.008   1.900   1.201
 9495SOL     OW30381   7.264   2.196   8.447
 9495SOL    HW130382   7.289   2.214   8.356
 9495SOL    HW230383   7.342   2.215   8.498
 9496SOL     OW30384  11.915  14.319   4.066
 9496SOL    HW130385  11.920  14.239   4.013
 9496SOL    HW230386  11.877  14.384   4.007
 9497SOL     OW30387   4.441  13.721   1.662
 9497SOL    HW130388   4.416  13.732   1.754
 9497SOL    HW230389   4.519  13.775   1.651
 9498SOL     OW30390   1.912   5.756  11.733
 9498SOL    HW130391   1.866   5.743  11.650
 9498SOL    HW230392   1.992   5.704  11.723
 9499SOL     OW30393   9.986   5.904   0.473
 9499SOL    HW130394   9.955   5.927   0.386
 9499SOL    HW230395  10.026   5.984   0.507
 9500SOL     OW30396  11.175   6.522   9.989
 9500SOL    HW130397  11.092   6.538   9.946
 9500SOL    HW230398  11.225   6.468   9.927
 9501SOL     OW30399  12.541  14.031  12.331
 9501SOL    HW130400  12.524  14.122  12.352
 9501SOL    HW230401  12.601  14.034  12.257
 9502SOL     OW30402   9.267  13.188  10.648
 9502SOL    HW130403   9.327  13.142  10.706
 9502SOL    HW230404   9.266  13.135  10.568
 9503SOL     OW30405  10.646   6.379  14.807
 9503SOL    HW130406  10.726   6.371  14.755
 9503SOL    HW230407  10.639   6.472  14.826
 9504SOL     OW30408   2.129  10.774   5.647
 9504SOL    HW130409   2.203  10.717   5.626
 9504SOL    HW230410   2.054  10.714   5.650
 9505SOL     OW30411   0.966   4.514  13.964
 9505SOL    HW130412   0.947   4.447  13.898
 9505SOL    HW230413   0.977   4.464  14.045
 9506SOL     OW30414   0.699  10.563   5.802
 9506SOL    HW130415   0.679  10.514   5.882
 9506SOL    HW230416   0.782  10.606   5.820
 9507SOL     OW30417   8.234   3.128   3.168
 9507SOL    HW130418   8.158   3.138   3.111
 9507SOL    HW230419   8.205   3.164   3.252
 9508SOL     OW30420  10.034   2.545   2.915
 9508SOL    HW130421   9.998   2.535   2.827
 9508SOL    HW230422   9.957   2.542   2.972
 9509SOL     OW30423   3.940   8.628  13.672
 9509SOL    HW130424   3.973   8.615  13.761
 9509SOL    HW230425   3.978   8.711  13.644
 9510SOL     OW30426   3.245   2.688   7.358
 9510SOL    HW130427   3.269   2.605   7.399
 9510SOL    HW230428   3.249   2.670   7.264
 9511SOL     OW30429   1.605  10.216   2.992
 9511SOL    HW130430   1.548  10.187   3.063
 9511SOL    HW230431   1.645  10.297   3.025
 9512SOL     OW30432   7.983   2.884  12.992
 9512SOL    HW130433   8.050   2.918  13.052
 9512SOL    HW230434   7.981   2.790  13.008
 9513SOL     OW30435  14.685  10.028   3.982
 9513SOL    HW130436  14.651  10.117   3.968
 9513SOL    HW230437  14.721  10.003   3.897
 9514SOL     OW30438   5.235   3.178   5.971
 9514SOL    HW130439   5.219   3.128   6.051
 9514SOL    HW230440   5.287   3.253   5.999
 9515SOL     OW30441  10.896   2.620  10.099
 9515SOL    HW130442  10.930   2.676  10.168
 9515SOL    HW230443  10.908   2.671  10.018
 9516SOL     OW30444  11.776   3.897  13.579
 9516SOL    HW130445  11.764   3.935  13.666
 9516SOL    HW230446  11.837   3.825  13.592
 9517SOL     OW30447   9.077   3.721  11.895
 9517SOL    HW130448   9.127   3.798  11.925
 9517SOL    HW230449   9.039   3.748  11.811
 9518SOL     OW30450   0.667   6.331  10.863
 9518SOL    HW130451   0.650   6.317  10.770
 9518SOL    HW230452   0.640   6.249  10.904
 9519SOL     OW30453   6.389  14.304   5.334
 9519SOL    HW130454   6.409  14.279   5.425
 9519SOL    HW230455   6.300  14.273   5.320
 9520SOL     OW30456   0.955   1.372   7.738
 9520SOL    HW130457   0.980   1.434   7.807
 9520SOL    HW230458   1.021   1.384   7.670
 9521SOL     OW30459  14.693  14.227  11.537
 9521SOL    HW130460  14.770  14.219  11.481
 9521SOL    HW230461  14.717  14.289  11.605
 9522SOL     OW30462  10.066   5.472   2.308
 9522SOL    HW130463  10.134   5.490   2.373
 9522SOL    HW230464  10.044   5.380   2.321
 9523SOL     OW30465   5.577   2.501  14.091
 9523SOL    HW130466   5.566   2.422  14.038
 9523SOL    HW230467   5.524   2.485  14.169
 9524SOL     OW30468   3.670   6.520   1.003
 9524SOL    HW130469   3.616   6.597   0.982
 9524SOL    HW230470   3.647   6.456   0.936
 9525SOL     OW30471   6.942   8.746   8.507
 9525SOL    HW130472   7.015   8.806   8.523
 9525SOL    HW230473   6.921   8.759   8.414
 9526SOL     OW30474   5.431   6.774   5.550
 9526SOL    HW130475   5.357   6.823   5.516
 9526SOL    HW230476   5.508   6.827   5.526
 9527SOL     OW30477  14.333   8.388   1.488
 9527SOL    HW130478  14.316   8.425   1.574
 9527SOL    HW230479  14.412   8.335   1.500
 9528SOL     OW30480  11.587  11.450  13.200
 9528SOL    HW130481  11.515  11.478  13.256
 9528SOL    HW230482  11.558  11.471  13.111
 9529SOL     OW30483  12.181   6.337   7.149
 9529SOL    HW130484  12.144   6.280   7.082
 9529SOL    HW230485  12.104   6.375   7.192
 9530SOL     OW30486   4.156   0.334   4.650
 9530SOL    HW130487   4.060   0.334   4.660
 9530SOL    HW230488   4.180   0.426   4.650
 9531SOL     OW30489   8.950  13.486   0.543
 9531SOL    HW130490   8.908  13.478   0.629
 9531SOL    HW230491   9.044  13.491   0.562
 9532SOL     OW30492   1.740  14.748   1.918
 9532SOL    HW130493   1.800  14.814   1.883
 9532SOL    HW230494   1.726  14.687   1.846
 9533SOL     OW30495   0.082   8.995  12.970
 9533SOL    HW130496  14.879   8.987  13.014
 9533SOL    HW230497   0.138   8.933  13.016
 9534SOL     OW30498   0.199   3.295   0.409
 9534SOL    HW130499   0.164   3.350   0.479
 9534SOL    HW230500   0.244   3.356   0.351
 9535SOL     OW30501   1.478  11.247   5.995
 9535SOL    HW130502   1.392  11.274   5.962
 9535SOL    HW230503   1.460  11.170   6.048
 9536SOL     OW30504   9.385  14.748   1.471
 9536SOL    HW130505   9.451  14.678   1.475
 9536SOL    HW230506   9.341  14.734   1.387
 9537SOL     OW30507  13.860   1.594   1.173
 9537SOL    HW130508  13.940   1.645   1.183
 9537SOL    HW230509  13.877   1.513   1.222
 9538SOL     OW30510  10.937   1.716   0.257
 9538SOL    HW130511  10.883   1.737   0.333
 9538SOL    HW230512  10.980   1.799   0.235
 9539SOL     OW30513  12.934   2.633   2.634
 9539SOL    HW130514  12.970   2.713   2.673
 9539SOL    HW230515  12.893   2.661   2.553
 9540SOL     OW30516  12.045   1.781   3.637
 9540SOL    HW130517  11.969   1.836   3.656
 9540SOL    HW230518  12.059   1.730   3.717
 9541SOL     OW30519   3.486   2.211   1.996
 9541SOL    HW130520   3.553   2.238   1.934
 9541SOL    HW230521   3.527   2.141   2.047
 9542SOL     OW30522  14.436   9.194  11.618
 9542SOL    HW130523  14.419   9.286  11.638
 9542SOL    HW230524  14.384   9.146  11.682
 9543SOL     OW30525   8.261   0.073   3.432
 9543SOL    HW130526   8.183   0.126   3.448
 9543SOL    HW230527   8.333   0.128   3.463
 9544SOL     OW30528  11.513  10.857  11.688
 9544SOL    HW130529  11.512  10.782  11.629
 9544SOL    HW230530  11.589  10.842  11.745
 9545SOL     OW30531   0.453  13.643  12.972
 9545SOL    HW130532   0.544  13.646  13.001
 9545SOL    HW230533   0.401  13.658  13.051
 9546SOL     OW30534   8.795   4.538   0.197
 9546SOL    HW130535   8.710   4.569   0.165
 9546SOL    HW230536   8.830   4.613   0.246
 9547SOL     OW30537  11.439   4.813   7.933
 9547SOL    HW130538  11.398   4.742   7.982
 9547SOL    HW230539  11.373   4.882   7.929
 9548SOL     OW30540  10.902   5.926  12.605
 9548SOL    HW130541  10.830   5.922  12.668
 9548SOL    HW230542  10.937   6.015  12.615
 9549SOL     OW30543   4.558   7.122  12.481
 9549SOL    HW130544   4.605   7.172  12.414
 9549SOL    HW230545   4.606   7.139  12.562
 9550SOL     OW30546   7.745   4.053  12.126
 9550SOL    HW130547   7.734   3.971  12.079
 9550SOL    HW230548   7.835   4.080  12.108
 9551SOL     OW30549   5.622   8.424  10.030
 9551SOL    HW130550   5.604   8.360  10.099
 9551SOL    HW230551   5.703   8.393   9.989
 9552SOL     OW30552  12.428  11.742   8.242
 9552SOL    HW130553  12.443  11.681   8.315
 9552SOL    HW230554  12.428  11.687   8.164
 9553SOL     OW30555   5.738   5.856   7.238
 9553SOL    HW130556   5.779   5.911   7.306
 9553SOL    HW230557   5.699   5.919   7.177
 9554SOL     OW30558   5.046   9.261  12.320
 9554SOL    HW130559   4.988   9.314  12.374
 9554SOL    HW230560   5.091   9.325  12.264
 9555SOL     OW30561  13.797   2.076  13.662
 9555SOL    HW130562  13.734   2.048  13.595
 9555SOL    HW230563  13.856   2.135  13.616
 9556SOL     OW30564   6.999   9.404   4.194
 9556SOL    HW130565   7.004   9.373   4.285
 9556SOL    HW230566   6.914   9.448   4.188
 9557SOL     OW30567   3.605  10.161  13.786
 9557SOL    HW130568   3.621  10.146  13.879
 9557SOL    HW230569   3.510  10.173  13.780
 9558SOL     OW30570   5.985   6.334   4.539
 9558SOL    HW130571   6.061   6.310   4.593
 9558SOL    HW230572   5.909   6.318   4.594
 9559SOL     OW30573   6.015   7.000   9.545
 9559SOL    HW130574   5.962   7.002   9.465
 9559SOL    HW230575   6.073   7.076   9.537
 9560SOL     OW30576   9.105   4.905  14.761
 9560SOL    HW130577   9.072   4.943  14.679
 9560SOL    HW230578   9.164   4.972  14.796
 9561SOL     OW30579   4.588   8.583   6.677
 9561SOL    HW130580   4.621   8.534   6.601
 9561SOL    HW230581   4.659   8.581   6.740
 9562SOL     OW30582   8.567   6.109   9.118
 9562SOL    HW130583   8.535   6.159   9.193
 9562SOL    HW230584   8.503   6.038   9.108
 9563SOL     OW30585  10.649   2.480   5.319
 9563SOL    HW130586  10.588   2.418   5.358
 9563SOL    HW230587  10.597   2.527   5.254
 9564SOL     OW30588   9.846   4.981   0.611
 9564SOL    HW130589   9.888   4.921   0.672
 9564SOL    HW230590   9.843   4.932   0.529
 9565SOL     OW30591   6.144   7.371   1.967
 9565SOL    HW130592   6.143   7.275   1.966
 9565SOL    HW230593   6.124   7.396   1.877
 9566SOL     OW30594   2.274   2.651   0.750
 9566SOL    HW130595   2.206   2.692   0.804
 9566SOL    HW230596   2.227   2.584   0.700
 9567SOL     OW30597   5.316   5.456   9.290
 9567SOL    HW130598   5.318   5.481   9.382
 9567SOL    HW230599   5.371   5.377   9.285
 9568SOL     OW30600  13.846   7.949  10.033
 9568SOL    HW130601  13.935   7.983  10.033
 9568SOL    HW230602  13.823   7.942   9.940
 9569SOL     OW30603   2.754   1.814  11.472
 9569SOL    HW130604   2.783   1.819  11.563
 9569SOL    HW230605   2.799   1.738  11.436
 9570SOL     OW30606  13.226   9.094   8.194
 9570SOL    HW130607  13.215   9.041   8.115
 9570SOL    HW230608  13.229   9.030   8.266
 9571SOL     OW30609   0.578   7.340   9.189
 9571SOL    HW130610   0.535   7.367   9.270
 9571SOL    HW230611   0.605   7.250   9.204
 9572SOL     OW30612  14.557   3.166   5.609
 9572SOL    HW130613  14.620   3.220   5.657
 9572SOL    HW230614  14.600   3.080   5.602
 9573SOL     OW30615   1.454   5.329  10.896
 9573SOL    HW130616   1.479   5.413  10.936
 9573SOL    HW230617   1.478   5.264  10.961
 9574SOL     OW30618   3.889  13.566  10.101
 9574SOL    HW130619   3.819  13.625  10.074
 9574SOL    HW230620   3.849  13.509  10.166
 9575SOL     OW30621   8.512  10.423   7.412
 9575SOL    HW130622   8.471  10.395   7.494
 9575SOL    HW230623   8.537  10.514   7.427
 9576SOL     OW30624   7.075   3.556  13.530
 9576SOL    HW130625   7.133   3.559  13.607
 9576SOL    HW230626   7.060   3.463  13.515
 9577SOL     OW30627  12.040  12.068   6.100
 9577SOL    HW130628  11.957  12.023   6.112
 9577SOL    HW230629  12.017  12.148   6.053
 9578SOL     OW30630  10.304   8.392   0.147
 9578SOL    HW130631  10.334   8.460   0.208
 9578SOL    HW230632  10.209   8.403   0.142
 9579SOL     OW30633  14.527   9.943   0.024
 9579SOL    HW130634  14.458   9.951   0.090
 9579SOL    HW230635  14.550  10.033   0.003
 9580SOL     OW30636  12.487   8.812  11.649
 9580SOL    HW130637  12.483   8.897  11.605
 9580SOL    HW230638  12.487   8.748  11.578
 9581SOL     OW30639  12.618   9.480   5.694
 9581SOL    HW130640  12.625   9.421   5.769
 9581SOL    HW230641  12.675   9.441   5.628
 9582SOL     OW30642   3.940   0.146   1.718
 9582SOL    HW130643   3.935   0.081   1.648
 9582SOL    HW230644   4.000   0.110   1.782
 9583SOL     OW30645   4.382   0.017   4.372
 9583SOL    HW130646   4.419   0.033   4.285
 9583SOL    HW230647   4.459   0.005   4.429
 9584SOL     OW30648  12.504   8.060  11.670
 9584SOL    HW130649  12.427   8.097  11.629
 9584SOL    HW230650  12.487   8.065  11.764
 9585SOL     OW30651   7.944   8.998  14.272
 9585SOL    HW130652   7.895   9.074  14.242
 9585SOL    HW230653   7.975   8.956  14.191
 9586SOL     OW30654  11.470   3.915   7.039
 9586SOL    HW130655  11.540   3.935   7.101
 9586SOL    HW230656  11.507   3.934   6.953
 9587SOL     OW30657   0.837  11.722   6.920
 9587SOL    HW130658   0.859  11.789   6.855
 9587SOL    HW230659   0.796  11.652   6.869
 9588SOL     OW30660   9.590  10.647  10.410
 9588SOL    HW130661   9.567  10.639  10.503
 9588SOL    HW230662   9.517  10.605  10.365
 9589SOL     OW30663  10.800   7.917   4.692
 9589SOL    HW130664  10.857   7.872   4.755
 9589SOL    HW230665  10.755   7.984   4.744
 9590SOL     OW30666   7.156   6.333  11.202
 9590SOL    HW130667   7.236   6.347  11.253
 9590SOL    HW230668   7.135   6.419  11.167
 9591SOL     OW30669   0.588   2.746  14.247
 9591SOL    HW130670   0.528   2.818  14.270
 9591SOL    HW230671   0.573   2.680  14.314
 9592SOL     OW30672   2.834   6.338   6.250
 9592SOL    HW130673   2.816   6.328   6.343
 9592SOL    HW230674   2.810   6.428   6.230
 9593SOL     OW30675   4.960   2.607   7.695
 9593SOL    HW130676   4.961   2.701   7.675
 9593SOL    HW230677   4.897   2.570   7.633
 9594SOL     OW30678   1.080   6.431   4.082
 9594SOL    HW130679   1.089   6.527   4.080
 9594SOL    HW230680   1.016   6.412   4.014
 9595SOL     OW30681  14.633   0.552  11.039
 9595SOL    HW130682  14.610   0.580  11.127
 9595SOL    HW230683  14.696   0.617  11.009
 9596SOL     OW30684  13.626   6.806  12.710
 9596SOL    HW130685  13.602   6.790  12.619
 9596SOL    HW230686  13.662   6.895  12.710
 9597SOL     OW30687   7.421   2.291   2.846
 9597SOL    HW130688   7.369   2.338   2.780
 9597SOL    HW230689   7.484   2.241   2.795
 9598SOL     OW30690  10.333  12.068   3.731
 9598SOL    HW130691  10.246  12.108   3.733
 9598SOL    HW230692  10.321  11.988   3.680
 9599SOL     OW30693   2.079   3.838   8.822
 9599SOL    HW130694   2.006   3.899   8.814
 9599SOL    HW230695   2.083   3.795   8.736
 9600SOL     OW30696   4.686   4.348   4.729
 9600SOL    HW130697   4.610   4.407   4.732
 9600SOL    HW230698   4.716   4.353   4.638
 9601SOL     OW30699   0.419  12.040   2.665
 9601SOL    HW130700   0.423  12.061   2.572
 9601SOL    HW230701   0.494  11.982   2.680
 9602SOL     OW30702   1.848  10.443  11.564
 9602SOL    HW130703   1.783  10.482  11.622
 9602SOL    HW230704   1.799  10.422  11.484
 9603SOL     OW30705  14.444   9.452   6.089
 9603SOL    HW130706  14.430   9.539   6.126
 9603SOL    HW230707  14.409   9.457   6.000
 9604SOL     OW30708   2.113  13.414   2.328
 9604SOL    HW130709   2.191  13.409   2.383
 9604SOL    HW230710   2.127  13.493   2.275
 9605SOL     OW30711   5.935  13.881   0.788
 9605SOL    HW130712   5.963  13.850   0.702
 9605SOL    HW230713   5.929  13.976   0.779
 9606SOL     OW30714  12.018  10.866   5.492
 9606SOL    HW130715  11.929  10.887   5.522
 9606SOL    HW230716  12.008  10.787   5.439
 9607SOL     OW30717   1.428  13.706   1.841
 9607SOL    HW130718   1.517  13.675   1.860
 9607SOL    HW230719   1.389  13.635   1.789
 9608SOL     OW30720   5.206   8.300   7.955
 9608SOL    HW130721   5.170   8.342   8.033
 9608SOL    HW230722   5.140   8.236   7.929
 9609SOL     OW30723   1.494   7.219  10.036
 9609SOL    HW130724   1.502   7.140  10.091
 9609SOL    HW230725   1.563   7.209   9.970
 9610SOL     OW30726   9.374   6.219   6.724
 9610SOL    HW130727   9.457   6.256   6.755
 9610SOL    HW230728   9.334   6.181   6.802
 9611SOL     OW30729  12.994   8.730   9.926
 9611SOL    HW130730  13.043   8.798   9.973
 9611SOL    HW230731  13.048   8.651   9.935
 9612SOL     OW30732   6.682   1.885   9.210
 9612SOL    HW130733   6.594   1.849   9.212
 9612SOL    HW230734   6.730   1.834   9.275
 9613SOL     OW30735   2.367   4.139  14.532
 9613SOL    HW130736   2.459   4.125  14.510
 9613SOL    HW230737   2.330   4.183  14.456
 9614SOL     OW30738  14.752  13.710   5.866
 9614SOL    HW130739  14.841  13.726   5.835
 9614SOL    HW230740  14.764  13.662   5.948
 9615SOL     OW30741   5.117  14.137   6.220
 9615SOL    HW130742   5.184  14.136   6.288
 9615SOL    HW230743   5.035  14.153   6.267
 9616SOL     OW30744   2.058  13.797   0.422
 9616SOL    HW130745   2.057  13.736   0.496
 9616SOL    HW230746   2.150  13.804   0.398
 9617SOL     OW30747  11.044   9.407   0.197
 9617SOL    HW130748  10.987   9.469   0.241
 9617SOL    HW230749  11.014   9.321   0.226
 9618SOL     OW30750   1.472   1.430   9.217
 9618SOL    HW130751   1.523   1.455   9.294
 9618SOL    HW230752   1.532   1.374   9.166
 9619SOL     OW30753  11.243   7.224   8.128
 9619SOL    HW130754  11.148   7.230   8.120
 9619SOL    HW230755  11.265   7.286   8.197
 9620SOL     OW30756   2.138   3.945   4.504
 9620SOL    HW130757   2.164   3.918   4.416
 9620SOL    HW230758   2.047   3.916   4.513
 9621SOL     OW30759   9.026  12.294   8.301
 9621SOL    HW130760   9.047  12.386   8.288
 9621SOL    HW230761   9.022  12.283   8.396
 9622SOL     OW30762   6.425   0.049   4.527
 9622SOL    HW130763   6.452   0.004   4.447
 9622SOL    HW230764   6.389  14.861   4.582
 9623SOL     OW30765  14.617   1.180   5.245
 9623SOL    HW130766  14.692   1.206   5.192
 9623SOL    HW230767  14.584   1.263   5.280
 9624SOL     OW30768   1.655   4.703   2.735
 9624SOL    HW130769   1.565   4.719   2.762
 9624SOL    HW230770   1.681   4.623   2.781
 9625SOL     OW30771  11.078   3.513   0.423
 9625SOL    HW130772  11.013   3.546   0.485
 9625SOL    HW230773  11.071   3.571   0.347
 9626SOL     OW30774  10.593   7.136  14.693
 9626SOL    HW130775  10.544   7.196  14.748
 9626SOL    HW230776  10.569   7.161  14.603
 9627SOL     OW30777  11.383   8.948  12.724
 9627SOL    HW130778  11.452   8.915  12.667
 9627SOL    HW230779  11.425   9.016  12.777
 9628SOL     OW30780   8.500   8.676  14.292
 9628SOL    HW130781   8.501   8.742  14.360
 9628SOL    HW230782   8.587   8.683  14.251
 9629SOL     OW30783   7.965  11.946  11.524
 9629SOL    HW130784   8.045  11.965  11.475
 9629SOL    HW230785   7.945  11.855  11.504
 9630SOL     OW30786   4.148   5.277   1.475
 9630SOL    HW130787   4.226   5.244   1.518
 9630SOL    HW230788   4.166   5.370   1.459
 9631SOL     OW30789   3.541  11.105  13.506
 9631SOL    HW130790   3.568  11.164  13.435
 9631SOL    HW230791   3.555  11.017  13.471
 9632SOL     OW30792  11.369   4.970   1.125
 9632SOL    HW130793  11.450   5.022   1.133
 9632SOL    HW230794  11.315   5.018   1.062
 9633SOL     OW30795   7.491   7.435   4.181
 9633SOL    HW130796   7.531   7.363   4.133
 9633SOL    HW230797   7.491   7.508   4.119
 9634SOL     OW30798   7.861  14.729  14.602
 9634SOL    HW130799   7.867  14.824  14.599
 9634SOL    HW230800   7.950  14.698  14.586
 9635SOL     OW30801   7.286   6.136  10.151
 9635SOL    HW130802   7.223   6.191  10.106
 9635SOL    HW230803   7.259   6.139  10.243
 9636SOL     OW30804  13.006  12.721   2.978
 9636SOL    HW130805  12.940  12.660   3.012
 9636SOL    HW230806  13.069  12.665   2.933
 9637SOL     OW30807  13.609  11.834  12.330
 9637SOL    HW130808  13.693  11.804  12.295
 9637SOL    HW230809  13.621  11.836  12.425
 9638SOL     OW30810   7.791  11.519   6.077
 9638SOL    HW130811   7.812  11.608   6.049
 9638SOL    HW230812   7.811  11.465   6.000
 9639SOL     OW30813   0.481   6.187  14.616
 9639SOL    HW130814   0.503   6.225  14.701
 9639SOL    HW230815   0.498   6.258  14.554
 9640SOL     OW30816  11.705   2.437  14.616
 9640SOL    HW130817  11.725   2.521  14.576
 9640SOL    HW230818  11.775   2.422  14.680
 9641SOL     OW30819   4.958   3.289   2.554
 9641SOL    HW130820   4.964   3.194   2.561
 9641SOL    HW230821   4.956   3.306   2.460
 9642SOL     OW30822   0.177   4.086   2.155
 9642SOL    HW130823   0.182   4.107   2.062
 9642SOL    HW230824   0.120   4.009   2.160
 9643SOL     OW30825   8.048   5.826   0.806
 9643SOL    HW130826   8.013   5.877   0.879
 9643SOL    HW230827   8.122   5.878   0.775
 9644SOL     OW30828   1.828   6.547  10.378
 9644SOL    HW130829   1.854   6.500  10.457
 9644SOL    HW230830   1.735   6.526  10.368
 9645SOL     OW30831   7.346   8.666   1.760
 9645SOL    HW130832   7.298   8.604   1.815
 9645SOL    HW230833   7.393   8.721   1.822
 9646SOL     OW30834   0.173   0.879   4.124
 9646SOL    HW130835   0.120   0.835   4.057
 9646SOL    HW230836   0.224   0.810   4.165
 9647SOL     OW30837   5.130   7.321   5.334
 9647SOL    HW130838   5.175   7.349   5.415
 9647SOL    HW230839   5.087   7.401   5.302
 9648SOL     OW30840   0.756  14.819   9.341
 9648SOL    HW130841   0.780   0.029   9.348
 9648SOL    HW230842   0.823  14.772   9.391
 9649SOL     OW30843   7.462   3.609   1.063
 9649SOL    HW130844   7.513   3.534   1.090
 9649SOL    HW230845   7.479   3.618   0.969
 9650SOL     OW30846  13.872  14.049   6.070
 9650SOL    HW130847  13.857  14.047   6.164
 9650SOL    HW230848  13.785  14.051   6.031
 9651SOL     OW30849  10.929  11.675   0.326
 9651SOL    HW130850  10.882  11.756   0.345
 9651SOL    HW230851  10.929  11.627   0.409
 9652SOL     OW30852   3.216   1.062  14.269
 9652SOL    HW130853   3.233   1.002  14.197
 9652SOL    HW230854   3.271   1.139  14.250
 9653SOL     OW30855  13.371  12.872   5.196
 9653SOL    HW130856  13.348  12.965   5.203
 9653SOL    HW230857  13.437  12.869   5.127
 9654SOL     OW30858   8.826  12.430   4.627
 9654SOL    HW130859   8.809  12.411   4.719
 9654SOL    HW230860   8.848  12.524   4.626
 9655SOL     OW30861  13.903   3.778  11.688
 9655SOL    HW130862  13.814   3.759  11.660
 9655SOL    HW230863  13.918   3.868  11.661
 9656SOL     OW30864  13.238   6.899  11.291
 9656SOL    HW130865  13.273   6.928  11.375
 9656SOL    HW230866  13.173   6.966  11.268
 9657SOL     OW30867  10.278  14.479   5.862
 9657SOL    HW130868  10.349  14.540   5.842
 9657SOL    HW230869  10.204  14.511   5.811
 9658SOL     OW30870   3.769   0.237  12.219
 9658SOL    HW130871   3.792   0.174  12.287
 9658SOL    HW230872   3.692   0.200  12.176
 9659SOL     OW30873   3.820   5.277   3.975
 9659SOL    HW130874   3.838   5.371   3.980
 9659SOL    HW230875   3.787   5.255   4.062
 9660SOL     OW30876   3.788   0.114  12.887
 9660SOL    HW130877   3.845   0.108  12.811
 9660SOL    HW230878   3.776   0.023  12.916
 9661SOL     OW30879   4.443   1.520   2.992
 9661SOL    HW130880   4.486   1.442   2.957
 9661SOL    HW230881   4.513   1.585   2.999
 9662SOL     OW30882  14.491   6.431  12.324
 9662SOL    HW130883  14.544   6.506  12.295
 9662SOL    HW230884  14.533   6.402  12.405
 9663SOL     OW30885   9.335  11.196  11.742
 9663SOL    HW130886   9.317  11.152  11.825
 9663SOL    HW230887   9.281  11.275  11.746
 9664SOL     OW30888  14.087   0.510  11.552
 9664SOL    HW130889  14.037   0.429  11.565
 9664SOL    HW230890  14.154   0.486  11.488
 9665SOL     OW30891  13.616  11.098   7.040
 9665SOL    HW130892  13.699  11.140   7.065
 9665SOL    HW230893  13.555  11.170   7.029
 9666SOL     OW30894  14.373   6.338   9.253
 9666SOL    HW130895  14.279   6.319   9.245
 9666SOL    HW230896  14.380   6.431   9.229
 9667SOL     OW30897   8.341   4.427   2.155
 9667SOL    HW130898   8.373   4.409   2.067
 9667SOL    HW230899   8.415   4.408   2.212
 9668SOL     OW30900   8.102  10.685   0.071
 9668SOL    HW130901   8.098  10.647   0.159
 9668SOL    HW230902   8.072  10.615   0.014
 9669SOL     OW30903  12.602  13.204  11.765
 9669SOL    HW130904  12.508  13.187  11.775
 9669SOL    HW230905  12.607  13.257  11.685
 9670SOL     OW30906   6.247   6.428   6.980
 9670SOL    HW130907   6.273   6.457   6.893
 9670SOL    HW230908   6.308   6.472   7.040
 9671SOL     OW30909   3.171  13.013  11.838
 9671SOL    HW130910   3.089  12.999  11.885
 9671SOL    HW230911   3.146  13.017  11.746
 9672SOL     OW30912   0.017   6.576  12.591
 9672SOL    HW130913   0.004   6.641  12.522
 9672SOL    HW230914  14.849   6.500  12.563
 9673SOL     OW30915   1.737   6.635   6.490
 9673SOL    HW130916   1.778   6.710   6.446
 9673SOL    HW230917   1.787   6.624   6.570
 9674SOL     OW30918   1.451   5.172   0.294
 9674SOL    HW130919   1.516   5.189   0.362
 9674SOL    HW230920   1.425   5.259   0.263
 9675SOL     OW30921  10.563   7.547   2.258
 9675SOL    HW130922  10.583   7.455   2.274
 9675SOL    HW230923  10.580   7.560   2.165
 9676SOL     OW30924  12.921   8.776   9.679
 9676SOL    HW130925  12.878   8.691   9.668
 9676SOL    HW230926  12.953   8.775   9.770
 9677SOL     OW30927   6.734  10.260  12.661
 9677SOL    HW130928   6.810  10.317  12.663
 9677SOL    HW230929   6.702  10.265  12.570
 9678SOL     OW30930   5.893   0.515   7.096
 9678SOL    HW130931   5.980   0.477   7.108
 9678SOL    HW230932   5.872   0.554   7.181
 9679SOL     OW30933  11.591  14.234   0.383
 9679SOL    HW130934  11.524  14.167   0.395
 9679SOL    HW230935  11.606  14.268   0.471
 9680SOL     OW30936  14.703   5.494  11.714
 9680SOL    HW130937  14.753   5.416  11.739
 9680SOL    HW230938  14.617   5.461  11.689
 9681SOL     OW30939   5.260   2.016   7.539
 9681SOL    HW130940   5.271   1.921   7.539
 9681SOL    HW230941   5.194   2.032   7.606
 9682SOL     OW30942   2.241  12.416  13.195
 9682SOL    HW130943   2.198  12.501  13.186
 9682SOL    HW230944   2.332  12.436  13.215
 9683SOL     OW30945   8.871   0.768   2.689
 9683SOL    HW130946   8.863   0.692   2.631
 9683SOL    HW230947   8.805   0.753   2.757
 9684SOL     OW30948   6.447   6.252   7.210
 9684SOL    HW130949   6.421   6.342   7.189
 9684SOL    HW230950   6.532   6.261   7.253
 9685SOL     OW30951   5.985  13.711   0.125
 9685SOL    HW130952   6.017  13.801   0.120
 9685SOL    HW230953   6.053  13.658   0.085
 9686SOL     OW30954  12.003  10.710  14.389
 9686SOL    HW130955  12.007  10.660  14.307
 9686SOL    HW230956  12.090  10.749  14.397
 9687SOL     OW30957   5.232  12.664  13.912
 9687SOL    HW130958   5.168  12.595  13.928
 9687SOL    HW230959   5.232  12.716  13.992
 9688SOL     OW30960   4.076   1.962   7.513
 9688SOL    HW130961   4.058   1.906   7.437
 9688SOL    HW230962   4.166   1.941   7.537
 9689SOL     OW30963   8.009   6.369  10.821
 9689SOL    HW130964   7.941   6.403  10.879
 9689SOL    HW230965   7.993   6.411  10.737
 9690SOL     OW30966   2.690   8.501   5.189
 9690SOL    HW130967   2.776   8.533   5.161
 9690SOL    HW230968   2.670   8.430   5.128
 9691SOL     OW30969   2.224  10.986   6.231
 9691SOL    HW130970   2.194  11.046   6.299
 9691SOL    HW230971   2.190  11.024   6.149
 9692SOL     OW30972   1.410  14.096   4.264
 9692SOL    HW130973   1.369  14.034   4.324
 9692SOL    HW230974   1.371  14.180   4.286
 9693SOL     OW30975  12.811   8.554   4.832
 9693SOL    HW130976  12.895   8.529   4.793
 9693SOL    HW230977  12.811   8.650   4.830
 9694SOL     OW30978   7.047   9.795   9.987
 9694SOL    HW130979   6.981   9.749   9.936
 9694SOL    HW230980   7.085   9.859   9.926
 9695SOL     OW30981   3.387   1.309   8.198
 9695SOL    HW130982   3.446   1.383   8.190
 9695SOL    HW230983   3.305   1.346   8.230
 9696SOL     OW30984   7.415   1.973  12.029
 9696SOL    HW130985   7.339   2.019  12.064
 9696SOL    HW230986   7.490   2.023  12.059
 9697SOL     OW30987   9.013  13.158   1.236
 9697SOL    HW130988   8.978  13.244   1.217
 9697SOL    HW230989   9.067  13.136   1.160
 9698SOL     OW30990   3.512   1.237   1.575
 9698SOL    HW130991   3.605   1.251   1.591
 9698SOL    HW230992   3.468   1.309   1.621
 9699SOL     OW30993  12.910   0.280   3.613
 9699SOL    HW130994  12.900   0.215   3.544
 9699SOL    HW230995  12.992   0.325   3.592
 9700SOL     OW30996   5.508   3.963  13.839
 9700SOL    HW130997   5.534   3.890  13.896
 9700SOL    HW230998   5.456   3.922  13.770
 9701SOL     OW30999   2.022   2.757   8.313
 9701SOL    HW131000   2.086   2.742   8.383
 9701SOL    HW231001   2.064   2.820   8.255
 9702SOL     OW31002   2.612  11.634  10.197
 9702SOL    HW131003   2.635  11.612  10.287
 9702SOL    HW231004   2.519  11.610  10.190
 9703SOL     OW31005  14.634   6.861  10.450
 9703SOL    HW131006  14.668   6.795  10.511
 9703SOL    HW231007  14.694   6.858  10.376
 9704SOL     OW31008   9.918   5.821   6.508
 9704SOL    HW131009   9.857   5.864   6.567
 9704SOL    HW231010   9.893   5.851   6.421
 9705SOL     OW31011   3.339  13.909   3.763
 9705SOL    HW131012   3.263  13.870   3.807
 9705SOL    HW231013   3.394  13.834   3.740
 9706SOL     OW31014  11.224  13.195   8.912
 9706SOL    HW131015  11.300  13.165   8.961
 9706SOL    HW231016  11.259  13.223   8.827
 9707SOL     OW31017   2.921   0.200  11.282
 9707SOL    HW131018   2.948   0.150  11.359
 9707SOL    HW231019   2.944   0.144  11.208
 9708SOL     OW31020   3.824   9.496   0.764
 9708SOL    HW131021   3.837   9.431   0.695
 9708SOL    HW231022   3.866   9.459   0.841
 9709SOL     OW31023   0.388  13.973   7.786
 9709SOL    HW131024   0.316  14.031   7.762
 9709SOL    HW231025   0.397  13.914   7.711
 9710SOL     OW31026   4.852   2.368   7.031
 9710SOL    HW131027   4.856   2.413   6.947
 9710SOL    HW231028   4.768   2.395   7.068
 9711SOL     OW31029  13.384  13.065  14.411
 9711SOL    HW131030  13.305  13.119  14.403
 9711SOL    HW231031  13.361  13.000  14.478
 9712SOL     OW31032   2.406  13.586   1.439
 9712SOL    HW131033   2.387  13.628   1.523
 9712SOL    HW231034   2.474  13.522   1.460
 9713SOL     OW31035  10.287   8.356   1.522
 9713SOL    HW131036  10.212   8.380   1.468
 9713SOL    HW231037  10.288   8.260   1.520
 9714SOL     OW31038   6.485  12.699   9.408
 9714SOL    HW131039   6.468  12.651   9.327
 9714SOL    HW231040   6.562  12.752   9.388
 9715SOL     OW31041   1.865   1.399   8.284
 9715SOL    HW131042   1.947   1.444   8.303
 9715SOL    HW231043   1.891   1.318   8.241
 9716SOL     OW31044   2.918   6.699   2.365
 9716SOL    HW131045   2.875   6.679   2.282
 9716SOL    HW231046   3.005   6.731   2.340
 9717SOL     OW31047   4.789   7.697   5.222
 9717SOL    HW131048   4.830   7.709   5.307
 9717SOL    HW231049   4.780   7.786   5.187
 9718SOL     OW31050   0.495   2.845   8.234
 9718SOL    HW131051   0.465   2.797   8.157
 9718SOL    HW231052   0.590   2.848   8.225
 9719SOL     OW31053   5.126   5.671   1.987
 9719SOL    HW131054   5.207   5.719   2.005
 9719SOL    HW231055   5.140   5.631   1.902
 9720SOL     OW31056   4.853   4.348   1.903
 9720SOL    HW131057   4.842   4.389   1.817
 9720SOL    HW231058   4.830   4.256   1.888
 9721SOL     OW31059  14.501   8.399  11.101
 9721SOL    HW131060  14.594   8.396  11.076
 9721SOL    HW231061  14.485   8.316  11.145
 9722SOL     OW31062  10.033   2.461   4.779
 9722SOL    HW131063   9.985   2.481   4.859
 9722SOL    HW231064  10.105   2.405   4.809
 9723SOL     OW31065  13.509   0.446  14.806
 9723SOL    HW131066  13.594   0.460  14.765
 9723SOL    HW231067  13.451   0.425  14.733
 9724SOL     OW31068   2.749   3.489  14.821
 9724SOL    HW131069   2.827   3.541  14.842
 9724SOL    HW231070   2.748   3.420   0.006
 9725SOL     OW31071   4.340   1.760   2.198
 9725SOL    HW131072   4.346   1.808   2.281
 9725SOL    HW231073   4.289   1.817   2.141
 9726SOL     OW31074  10.373   5.730   8.648
 9726SOL    HW131075  10.298   5.778   8.614
 9726SOL    HW231076  10.335   5.658   8.699
 9727SOL     OW31077   0.956   2.830   4.184
 9727SOL    HW131078   1.047   2.804   4.199
 9727SOL    HW231079   0.906   2.749   4.192
 9728SOL     OW31080  12.386  11.776  14.354
 9728SOL    HW131081  12.352  11.822  14.277
 9728SOL    HW231082  12.386  11.683  14.328
 9729SOL     OW31083   3.426  14.404   6.958
 9729SOL    HW131084   3.420  14.360   6.873
 9729SOL    HW231085   3.504  14.367   6.999
 9730SOL     OW31086  13.022  10.692   7.972
 9730SOL    HW131087  12.987  10.719   8.056
 9730SOL    HW231088  13.106  10.653   7.992
 9731SOL     OW31089   2.157   0.230   2.803
 9731SOL    HW131090   2.072   0.275   2.799
 9731SOL    HW231091   2.137   0.140   2.776
 9732SOL     OW31092   9.500   9.902   8.963
 9732SOL    HW131093   9.503   9.815   8.922
 9732SOL    HW231094   9.507   9.963   8.890
 9733SOL     OW31095   8.289   9.246   0.368
 9733SOL    HW131096   8.272   9.171   0.425
 9733SOL    HW231097   8.250   9.320   0.414
 9734SOL     OW31098  12.919  11.865   6.513
 9734SOL    HW131099  12.839  11.867   6.565
 9734SOL    HW231100  12.977  11.804   6.559
 9735SOL     OW31101   9.434  11.093   1.729
 9735SOL    HW131102   9.374  11.049   1.669
 9735SOL    HW231103   9.507  11.120   1.674
 9736SOL     OW31104  14.195   2.930  10.323
 9736SOL    HW131105  14.218   2.840  10.302
 9736SOL    HW231106  14.203   2.936  10.418
 9737SOL     OW31107   8.770   4.258   0.309
 9737SOL    HW131108   8.792   4.350   0.291
 9737SOL    HW231109   8.675   4.254   0.301
 9738SOL     OW31110   7.945  10.856   9.938
 9738SOL    HW131111   7.966  10.815  10.022
 9738SOL    HW231112   8.026  10.900   9.913
 9739SOL     OW31113  14.096   2.779  12.061
 9739SOL    HW131114  14.162   2.843  12.088
 9739SOL    HW231115  14.145   2.699  12.043
 9740SOL     OW31116   3.296  11.879   3.961
 9740SOL    HW131117   3.311  11.804   3.904
 9740SOL    HW231118   3.233  11.933   3.914
 9741SOL     OW31119   0.391   9.672   6.850
 9741SOL    HW131120   0.345   9.667   6.766
 9741SOL    HW231121   0.372   9.589   6.893
 9742SOL     OW31122  13.364  13.296   3.804
 9742SOL    HW131123  13.367  13.212   3.757
 9742SOL    HW231124  13.445  13.340   3.780
 9743SOL     OW31125  14.851  11.437  13.541
 9743SOL    HW131126  14.805  11.364  13.582
 9743SOL    HW231127   0.058  11.430  13.575
 9744SOL     OW31128   2.099   7.645   8.509
 9744SOL    HW131129   2.021   7.617   8.558
 9744SOL    HW231130   2.164   7.578   8.527
 9745SOL     OW31131   1.952   2.874  10.853
 9745SOL    HW131132   1.933   2.790  10.893
 9745SOL    HW231133   2.028   2.857  10.796
 9746SOL     OW31134   2.617  12.001  14.368
 9746SOL    HW131135   2.609  11.984  14.462
 9746SOL    HW231136   2.530  11.981  14.334
 9747SOL     OW31137  10.747   4.555  12.530
 9747SOL    HW131138  10.775   4.625  12.589
 9747SOL    HW231139  10.825   4.500  12.520
 9748SOL     OW31140   9.431   7.776  11.696
 9748SOL    HW131141   9.445   7.853  11.641
 9748SOL    HW231142   9.436   7.702  11.636
 9749SOL     OW31143  12.963   0.032  11.146
 9749SOL    HW131144  12.987   0.091  11.218
 9749SOL    HW231145  12.901  14.854  11.184
 9750SOL     OW31146   5.531   9.342   7.315
 9750SOL    HW131147   5.477   9.298   7.249
 9750SOL    HW231148   5.481   9.419   7.340
 9751SOL     OW31149   1.684   2.969  10.756
 9751SOL    HW131150   1.756   2.927  10.804
 9751SOL    HW231151   1.691   3.062  10.778
 9752SOL     OW31152   0.760   9.705  12.122
 9752SOL    HW131153   0.809   9.727  12.201
 9752SOL    HW231154   0.780   9.613  12.106
 9753SOL     OW31155  14.637   1.602   5.001
 9753SOL    HW131156  14.620   1.553   4.920
 9753SOL    HW231157  14.715   1.561   5.038
 9754SOL     OW31158  14.098  11.315   4.422
 9754SOL    HW131159  14.016  11.303   4.374
 9754SOL    HW231160  14.106  11.409   4.434
 9755SOL     OW31161   1.200   8.222   7.424
 9755SOL    HW131162   1.199   8.127   7.435
 9755SOL    HW231163   1.221   8.256   7.511
 9756SOL     OW31164   6.203   7.824  11.282
 9756SOL    HW131165   6.204   7.906  11.232
 9756SOL    HW231166   6.209   7.755  11.216
 9757SOL     OW31167  10.907  11.784   5.271
 9757SOL    HW131168  10.823  11.770   5.228
 9757SOL    HW231169  10.949  11.697   5.271
 9758SOL     OW31170   6.561   2.480   3.052
 9758SOL    HW131171   6.478   2.448   3.088
 9758SOL    HW231172   6.616   2.402   3.046
 9759SOL     OW31173   4.119   8.746  12.799
 9759SOL    HW131174   4.206   8.760  12.763
 9759SOL    HW231175   4.095   8.657  12.772
 9760SOL     OW31176  12.276  10.011   6.709
 9760SOL    HW131177  12.208  10.025   6.775
 9760SOL    HW231178  12.231   9.962   6.639
 9761SOL     OW31179  12.381   3.706  10.436
 9761SOL    HW131180  12.438   3.771  10.394
 9761SOL    HW231181  12.318   3.681  10.368
 9762SOL     OW31182   8.536  14.052   2.942
 9762SOL    HW131183   8.552  14.026   2.852
 9762SOL    HW231184   8.506  13.972   2.985
 9763SOL     OW31185  14.361   4.641   1.352
 9763SOL    HW131186  14.427   4.710   1.353
 9763SOL    HW231187  14.295   4.669   1.415
 9764SOL     OW31188  12.441  10.711   5.332
 9764SOL    HW131189  12.362  10.725   5.279
 9764SOL    HW231190  12.488  10.794   5.327
 9765SOL     OW31191   9.764   7.713   5.338
 9765SOL    HW131192   9.744   7.627   5.375
 9765SOL    HW231193   9.762   7.773   5.413
 9766SOL     OW31194  12.159   0.137   8.422
 9766SOL    HW131195  12.128   0.194   8.492
 9766SOL    HW231196  12.087   0.075   8.408
 9767SOL     OW31197   4.099   2.722   8.992
 9767SOL    HW131198   4.128   2.798   9.043
 9767SOL    HW231199   4.004   2.721   9.004
 9768SOL     OW31200  14.258   9.262  13.121
 9768SOL    HW131201  14.284   9.206  13.048
 9768SOL    HW231202  14.183   9.217  13.160
 9769SOL     OW31203  11.220   7.123  14.666
 9769SOL    HW131204  11.166   7.202  14.658
 9769SOL    HW231205  11.202   7.073  14.586
 9770SOL     OW31206  13.189  13.028   1.384
 9770SOL    HW131207  13.143  12.946   1.368
 9770SOL    HW231208  13.174  13.047   1.476
 9771SOL     OW31209   0.653  12.452   3.869
 9771SOL    HW131210   0.626  12.361   3.877
 9771SOL    HW231211   0.669  12.480   3.959
 9772SOL     OW31212   6.983  10.844  14.517
 9772SOL    HW131213   7.073  10.813  14.510
 9772SOL    HW231214   6.942  10.815  14.435
 9773SOL     OW31215   1.386  10.522   8.965
 9773SOL    HW131216   1.459  10.462   8.951
 9773SOL    HW231217   1.331  10.511   8.887
 9774SOL     OW31218  14.100  12.654  12.233
 9774SOL    HW131219  14.113  12.560  12.217
 9774SOL    HW231220  14.085  12.691  12.146
 9775SOL     OW31221   0.920   1.055  11.579
 9775SOL    HW131222   0.888   1.143  11.598
 9775SOL    HW231223   1.013   1.067  11.562
 9776SOL     OW31224   2.610   7.805   5.076
 9776SOL    HW131225   2.530   7.758   5.098
 9776SOL    HW231226   2.632   7.853   5.157
 9777SOL     OW31227   1.666   7.065  14.095
 9777SOL    HW131228   1.603   7.032  14.031
 9777SOL    HW231229   1.737   7.001  14.093
 9778SOL     OW31230  11.762   8.700   5.418
 9778SOL    HW131231  11.753   8.605   5.423
 9778SOL    HW231232  11.836   8.720   5.475
 9779SOL     OW31233   4.880   3.531  13.020
 9779SOL    HW131234   4.930   3.453  12.997
 9779SOL    HW231235   4.811   3.499  13.079
 9780SOL     OW31236   6.002   5.546   1.819
 9780SOL    HW131237   5.916   5.529   1.856
 9780SOL    HW231238   6.005   5.494   1.738
 9781SOL     OW31239   2.330  14.721   8.307
 9781SOL    HW131240   2.399  14.674   8.353
 9781SOL    HW231241   2.311  14.667   8.230
 9782SOL     OW31242   1.861   6.604   1.635
 9782SOL    HW131243   1.909   6.525   1.662
 9782SOL    HW231244   1.907   6.676   1.679
 9783SOL     OW31245   0.604   0.539   3.288
 9783SOL    HW131246   0.511   0.556   3.269
 9783SOL    HW231247   0.603   0.467   3.352
 9784SOL     OW31248  14.669   1.836   3.405
 9784SOL    HW131249  14.586   1.880   3.385
 9784SOL    HW231250  14.658   1.804   3.495
 9785SOL     OW31251  10.675   3.713   6.622
 9785SOL    HW131252  10.689   3.765   6.701
 9785SOL    HW231253  10.648   3.776   6.556
 9786SOL     OW31254   1.206  12.560   3.187
 9786SOL    HW131255   1.249  12.644   3.173
 9786SOL    HW231256   1.267  12.511   3.242
 9787SOL     OW31257  12.678   7.910  11.134
 9787SOL    HW131258  12.678   7.834  11.193
 9787SOL    HW231259  12.586   7.936  11.130
 9788SOL     OW31260   1.616   2.157   6.204
 9788SOL    HW131261   1.538   2.101   6.204
 9788SOL    HW231262   1.689   2.097   6.203
 9789SOL     OW31263   0.692  14.324   6.380
 9789SOL    HW131264   0.712  14.325   6.287
 9789SOL    HW231265   0.636  14.248   6.392
 9790SOL     OW31266   1.579  13.659  13.199
 9790SOL    HW131267   1.574  13.688  13.108
 9790SOL    HW231268   1.533  13.575  13.200
 9791SOL     OW31269  14.592  10.710  12.187
 9791SOL    HW131270  14.503  10.680  12.201
 9791SOL    HW231271  14.631  10.712  12.274
 9792SOL     OW31272   6.939   1.774   5.185
 9792SOL    HW131273   6.992   1.787   5.264
 9792SOL    HW231274   6.856   1.739   5.217
 9793SOL     OW31275  12.581   5.117  13.324
 9793SOL    HW131276  12.551   5.190  13.378
 9793SOL    HW231277  12.607   5.159  13.241
 9794SOL     OW31278   5.731   3.530   8.808
 9794SOL    HW131279   5.711   3.571   8.892
 9794SOL    HW231280   5.752   3.439   8.830
 9795SOL     OW31281  13.975   3.037  14.311
 9795SOL    HW131282  13.934   3.121  14.335
 9795SOL    HW231283  14.024   3.012  14.389
 9796SOL     OW31284  10.503   4.010  13.853
 9796SOL    HW131285  10.571   3.947  13.829
 9796SOL    HW231286  10.548   4.094  13.858
 9797SOL     OW31287   9.438   9.810   0.524
 9797SOL    HW131288   9.527   9.776   0.530
 9797SOL    HW231289   9.439   9.891   0.576
 9798SOL     OW31290   2.676  13.445   5.303
 9798SOL    HW131291   2.718  13.452   5.217
 9798SOL    HW231292   2.602  13.386   5.289
 9799SOL     OW31293   2.253   9.287   5.949
 9799SOL    HW131294   2.228   9.291   6.041
 9799SOL    HW231295   2.178   9.326   5.902
 9800SOL     OW31296   1.747   3.709  12.525
 9800SOL    HW131297   1.724   3.773  12.593
 9800SOL    HW231298   1.706   3.628  12.553
 9801SOL     OW31299  13.330  10.736   7.610
 9801SOL    HW131300  13.249  10.781   7.634
 9801SOL    HW231301  13.308  10.643   7.615
 9802SOL     OW31302   8.449   4.299   4.393
 9802SOL    HW131303   8.355   4.318   4.398
 9802SOL    HW231304   8.466   4.291   4.299
 9803SOL     OW31305  14.007   8.256  10.242
 9803SOL    HW131306  14.014   8.187  10.177
 9803SOL    HW231307  14.094   8.295  10.246
 9804SOL     OW31308   3.149   5.482  11.191
 9804SOL    HW131309   3.080   5.466  11.126
 9804SOL    HW231310   3.231   5.475  11.141
 9805SOL     OW31311   4.558   1.896   8.077
 9805SOL    HW131312   4.463   1.903   8.068
 9805SOL    HW231313   4.587   1.984   8.101
 9806SOL     OW31314   1.938  13.009   6.427
 9806SOL    HW131315   2.002  13.080   6.435
 9806SOL    HW231316   1.872  13.030   6.493
 9807SOL     OW31317  10.185  13.078   1.777
 9807SOL    HW131318  10.270  13.039   1.799
 9807SOL    HW231319  10.125  13.046   1.845
 9808SOL     OW31320   4.503   8.970  14.127
 9808SOL    HW131321   4.495   9.025  14.049
 9808SOL    HW231322   4.596   8.972  14.148
 9809SOL     OW31323   8.738  12.735   4.591
 9809SOL    HW131324   8.652  12.766   4.618
 9809SOL    HW231325   8.792  12.740   4.670
 9810SOL     OW31326   7.651   6.086  14.267
 9810SOL    HW131327   7.729   6.118  14.314
 9810SOL    HW231328   7.577   6.117  14.319
 9811SOL     OW31329  11.340   4.557  10.939
 9811SOL    HW131330  11.326   4.634  10.884
 9811SOL    HW231331  11.254   4.540  10.978
 9812SOL     OW31332   2.185  13.627   9.875
 9812SOL    HW131333   2.147  13.539   9.873
 9812SOL    HW231334   2.185  13.651   9.968
 9813SOL     OW31335   9.411   9.186  10.663
 9813SOL    HW131336   9.438   9.244  10.734
 9813SOL    HW231337   9.317   9.174  10.676
 9814SOL     OW31338  14.708   1.831   6.479
 9814SOL    HW131339  14.624   1.854   6.521
 9814SOL    HW231340  14.707   1.878   6.396
 9815SOL     OW31341   5.482  10.603  11.670
 9815SOL    HW131342   5.469  10.598  11.576
 9815SOL    HW231343   5.448  10.519  11.703
 9816SOL     OW31344   5.343   0.258  14.647
 9816SOL    HW131345   5.294   0.213  14.716
 9816SOL    HW231346   5.318   0.213  14.566
 9817SOL     OW31347   4.909   7.650   4.499
 9817SOL    HW131348   4.927   7.576   4.442
 9817SOL    HW231349   4.904   7.612   4.587
 9818SOL     OW31350   6.148   4.735   3.453
 9818SOL    HW131351   6.056   4.761   3.456
 9818SOL    HW231352   6.195   4.817   3.441
 9819SOL     OW31353  12.088   8.199   2.890
 9819SOL    HW131354  12.134   8.278   2.862
 9819SOL    HW231355  12.021   8.231   2.950
 9820SOL     OW31356   3.001   1.767  12.367
 9820SOL    HW131357   3.080   1.773  12.421
 9820SOL    HW231358   2.993   1.674  12.346
 9821SOL     OW31359   5.440   8.654   9.246
 9821SOL    HW131360   5.376   8.612   9.303
 9821SOL    HW231361   5.484   8.582   9.201
 9822SOL     OW31362   9.414   6.403  12.627
 9822SOL    HW131363   9.322   6.426  12.644
 9822SOL    HW231364   9.410   6.328  12.568
 9823SOL     OW31365   5.533  11.500  10.166
 9823SOL    HW131366   5.518  11.584  10.209
 9823SOL    HW231367   5.450  11.454  10.175
 9824SOL     OW31368   7.482  11.942   8.101
 9824SOL    HW131369   7.574  11.916   8.103
 9824SOL    HW231370   7.476  12.016   8.161
 9825SOL     OW31371   5.467   2.405   3.483
 9825SOL    HW131372   5.416   2.338   3.437
 9825SOL    HW231373   5.432   2.404   3.572
 9826SOL     OW31374   7.547  11.049  12.945
 9826SOL    HW131375   7.536  11.102  13.024
 9826SOL    HW231376   7.491  10.973  12.959
 9827SOL     OW31377   9.798   6.167  12.537
 9827SOL    HW131378   9.776   6.260  12.540
 9827SOL    HW231379   9.748   6.128  12.608
 9828SOL     OW31380   7.702  10.972   9.906
 9828SOL    HW131381   7.787  10.932   9.927
 9828SOL    HW231382   7.638  10.910   9.942
 9829SOL     OW31383  10.252   0.540  11.741
 9829SOL    HW131384  10.163   0.559  11.710
 9829SOL    HW231385  10.249   0.448  11.768
 9830SOL     OW31386   4.120   4.630   7.431
 9830SOL    HW131387   4.061   4.702   7.412
 9830SOL    HW231388   4.066   4.566   7.479
 9831SOL     OW31389   4.915   7.943  11.645
 9831SOL    HW131390   5.002   7.905  11.653
 9831SOL    HW231391   4.915   8.017  11.706
 9832SOL     OW31392   5.268   0.879  12.734
 9832SOL    HW131393   5.276   0.883  12.830
 9832SOL    HW231394   5.187   0.830  12.720
 9833SOL     OW31395  10.783  13.293   2.769
 9833SOL    HW131396  10.781  13.350   2.692
 9833SOL    HW231397  10.765  13.351   2.843
 9834SOL     OW31398   0.055  12.870   5.812
 9834SOL    HW131399   0.010  12.793   5.777
 9834SOL    HW231400  14.866  12.929   5.840
 9835SOL     OW31401   7.104   2.438  14.446
 9835SOL    HW131402   7.168   2.407  14.510
 9835SOL    HW231403   7.044   2.493  14.496
 9836SOL     OW31404   5.254   3.843   1.148
 9836SOL    HW131405   5.231   3.928   1.109
 9836SOL    HW231406   5.347   3.851   1.170
 9837SOL     OW31407   9.337   9.311   9.280
 9837SOL    HW131408   9.411   9.260   9.313
 9837SOL    HW231409   9.297   9.350   9.357
 9838SOL     OW31410  12.709  10.856   7.717
 9838SOL    HW131411  12.691  10.833   7.808
 9838SOL    HW231412  12.756  10.781   7.682
 9839SOL     OW31413   5.804   4.246  12.129
 9839SOL    HW131414   5.741   4.318  12.128
 9839SOL    HW231415   5.830   4.237  12.220
 9840SOL     OW31416   6.618   1.241   5.195
 9840SOL    HW131417   6.674   1.181   5.245
 9840SOL    HW231418   6.601   1.194   5.113
 9841SOL     OW31419   5.668   2.488  12.015
 9841SOL    HW131420   5.731   2.456  11.951
 9841SOL    HW231421   5.672   2.583  12.008
 9842SOL     OW31422   0.545   5.484   5.435
 9842SOL    HW131423   0.529   5.396   5.401
 9842SOL    HW231424   0.506   5.542   5.369
 9843SOL     OW31425  10.108   5.881   8.606
 9843SOL    HW131426  10.127   5.939   8.533
 9843SOL    HW231427  10.056   5.936   8.666
 9844SOL     OW31428   8.839   3.681   0.468
 9844SOL    HW131429   8.911   3.623   0.490
 9844SOL    HW231430   8.863   3.720   0.384
 9845SOL     OW31431  12.902   6.486   1.453
 9845SOL    HW131432  12.930   6.505   1.543
 9845SOL    HW231433  12.899   6.391   1.449
 9846SOL     OW31434   9.596   5.852  12.350
 9846SOL    HW131435   9.632   5.897  12.274
 9846SOL    HW231436   9.612   5.759  12.333
 9847SOL     OW31437  14.296   6.450   7.626
 9847SOL    HW131438  14.351   6.376   7.652
 9847SOL    HW231439  14.331   6.524   7.677
 9848SOL     OW31440   8.531   3.036   9.753
 9848SOL    HW131441   8.583   3.082   9.687
 9848SOL    HW231442   8.533   2.944   9.725
 9849SOL     OW31443   1.213   7.856   2.467
 9849SOL    HW131444   1.239   7.948   2.472
 9849SOL    HW231445   1.274   7.811   2.524
 9850SOL     OW31446  12.908   1.599   9.138
 9850SOL    HW131447  12.829   1.582   9.190
 9850SOL    HW231448  12.973   1.539   9.173
 9851SOL     OW31449   1.695  11.305  10.147
 9851SOL    HW131450   1.700  11.234  10.211
 9851SOL    HW231451   1.605  11.303  10.116
 9852SOL     OW31452   3.481   8.312   7.999
 9852SOL    HW131453   3.516   8.251   7.934
 9852SOL    HW231454   3.558   8.351   8.040
 9853SOL     OW31455   1.322   6.931  10.659
 9853SOL    HW131456   1.310   6.972  10.745
 9853SOL    HW231457   1.413   6.950  10.636
 9854SOL     OW31458   0.432   7.478  10.299
 9854SOL    HW131459   0.466   7.566  10.280
 9854SOL    HW231460   0.368   7.462  10.230
 9855SOL     OW31461   1.855   3.987   6.192
 9855SOL    HW131462   1.832   4.068   6.146
 9855SOL    HW231463   1.807   3.919   6.144
 9856SOL     OW31464  13.123   0.800  14.254
 9856SOL    HW131465  13.145   0.794  14.161
 9856SOL    HW231466  13.053   0.865  14.258
 9857SOL     OW31467   6.895   1.080   6.899
 9857SOL    HW131468   6.835   1.105   6.829
 9857SOL    HW231469   6.974   1.132   6.884
 9858SOL     OW31470   0.168  12.552  10.966
 9858SOL    HW131471   0.167  12.640  11.004
 9858SOL    HW231472   0.087  12.512  10.996
 9859SOL     OW31473  14.224  13.830  14.750
 9859SOL    HW131474  14.315  13.810  14.774
 9859SOL    HW231475  14.229  13.849  14.656
 9860SOL     OW31476   3.558  12.051  13.833
 9860SOL    HW131477   3.516  11.986  13.777
 9860SOL    HW231478   3.622  12.094  13.776
 9861SOL     OW31479   1.103  11.813   5.778
 9861SOL    HW131480   1.122  11.857   5.696
 9861SOL    HW231481   1.021  11.852   5.808
 9862SOL     OW31482  11.338  14.816   9.631
 9862SOL    HW131483  11.363  14.755   9.562
 9862SOL    HW231484  11.313  14.760   9.705
 9863SOL     OW31485   9.107   9.304   9.676
 9863SOL    HW131486   9.050   9.329   9.749
 9863SOL    HW231487   9.163   9.235   9.712
 9864SOL     OW31488   4.378  11.087  12.052
 9864SOL    HW131489   4.428  11.166  12.030
 9864SOL    HW231490   4.440  11.015  12.037
 9865SOL     OW31491   3.508  14.450   4.425
 9865SOL    HW131492   3.495  14.417   4.335
 9865SOL    HW231493   3.440  14.516   4.436
 9866SOL     OW31494   3.169  12.383   9.138
 9866SOL    HW131495   3.230  12.314   9.113
 9866SOL    HW231496   3.084  12.340   9.146
 9867SOL     OW31497   8.493  14.013   9.512
 9867SOL    HW131498   8.585  14.033   9.501
 9867SOL    HW231499   8.454  14.092   9.549
 9868SOL     OW31500  14.103   2.945  14.520
 9868SOL    HW131501  14.086   2.972  14.610
 9868SOL    HW231502  14.136   2.855  14.528
 9869SOL     OW31503   9.309   8.423   3.974
 9869SOL    HW131504   9.225   8.428   3.929
 9869SOL    HW231505   9.370   8.469   3.916
 9870SOL     OW31506  14.180   5.852   7.778
 9870SOL    HW131507  14.148   5.937   7.809
 9870SOL    HW231508  14.121   5.829   7.706
 9871SOL     OW31509   4.779  12.959   2.190
 9871SOL    HW131510   4.774  12.960   2.286
 9871SOL    HW231511   4.781  13.051   2.165
 9872SOL     OW31512  12.213  12.684  13.645
 9872SOL    HW131513  12.258  12.754  13.693
 9872SOL    HW231514  12.185  12.623  13.714
 9873SOL     OW31515   5.831   9.314   0.831
 9873SOL    HW131516   5.769   9.385   0.849
 9873SOL    HW231517   5.782   9.234   0.851
 9874SOL     OW31518  11.246   5.416   5.976
 9874SOL    HW131519  11.317   5.480   5.978
 9874SOL    HW231520  11.288   5.335   5.948
 9875SOL     OW31521   3.827   1.213  10.027
 9875SOL    HW131522   3.853   1.124  10.052
 9875SOL    HW231523   3.839   1.265  10.107
 9876SOL     OW31524   7.083   7.721  12.909
 9876SOL    HW131525   6.994   7.731  12.941
 9876SOL    HW231526   7.111   7.810  12.886
 9877SOL     OW31527  11.956   4.551   8.790
 9877SOL    HW131528  11.884   4.611   8.807
 9877SOL    HW231529  11.926   4.498   8.716
 9878SOL     OW31530   5.999  13.496  11.387
 9878SOL    HW131531   6.065  13.465  11.449
 9878SOL    HW231532   6.045  13.500  11.303
 9879SOL     OW31533  10.672   7.050  13.088
 9879SOL    HW131534  10.687   7.090  13.173
 9879SOL    HW231535  10.758   7.047  13.046
 9880SOL     OW31536   7.907   3.957  12.727
 9880SOL    HW131537   7.837   4.022  12.727
 9880SOL    HW231538   7.987   4.009  12.717
 9881SOL     OW31539  11.853  11.939   7.787
 9881SOL    HW131540  11.886  12.010   7.841
 9881SOL    HW231541  11.878  11.963   7.698
 9882SOL     OW31542   7.104   1.058   4.915
 9882SOL    HW131543   7.151   1.127   4.961
 9882SOL    HW231544   7.115   0.980   4.969
 9883SOL     OW31545   2.236   6.989  14.594
 9883SOL    HW131546   2.301   6.924  14.567
 9883SOL    HW231547   2.176   6.939  14.650
 9884SOL     OW31548  11.878   3.719  10.158
 9884SOL    HW131549  11.812   3.785  10.135
 9884SOL    HW231550  11.927   3.704  10.077
 9885SOL     OW31551   4.671   2.275   0.392
 9885SOL    HW131552   4.712   2.352   0.431
 9885SOL    HW231553   4.577   2.296   0.390
 9886SOL     OW31554   2.657  13.127   7.549
 9886SOL    HW131555   2.620  13.207   7.513
 9886SOL    HW231556   2.729  13.106   7.490
 9887SOL     OW31557  13.365  12.608  12.255
 9887SOL    HW131558  13.349  12.694  12.217
 9887SOL    HW231559  13.455  12.587  12.230
 9888SOL     OW31560  11.826   6.575   1.766
 9888SOL    HW131561  11.904   6.554   1.715
 9888SOL    HW231562  11.794   6.658   1.729
 9889SOL     OW31563  12.659  13.011   1.776
 9889SOL    HW131564  12.707  12.996   1.858
 9889SOL    HW231565  12.726  13.001   1.708
 9890SOL     OW31566   8.373  12.663   4.126
 9890SOL    HW131567   8.388  12.758   4.128
 9890SOL    HW231568   8.370  12.637   4.218
 9891SOL     OW31569  10.999  11.702  12.127
 9891SOL    HW131570  10.955  11.736  12.049
 9891SOL    HW231571  11.092  11.702  12.104
 9892SOL     OW31572   6.024   8.680  14.401
 9892SOL    HW131573   5.944   8.731  14.412
 9892SOL    HW231574   6.052   8.661  14.491
 9893SOL     OW31575  10.569   2.856   6.258
 9893SOL    HW131576  10.498   2.812   6.209
 9893SOL    HW231577  10.588   2.796   6.330
 9894SOL     OW31578   3.927   8.664   2.905
 9894SOL    HW131579   3.946   8.754   2.929
 9894SOL    HW231580   3.925   8.664   2.810
 9895SOL     OW31581  12.159   8.417   7.970
 9895SOL    HW131582  12.187   8.469   8.045
 9895SOL    HW231583  12.141   8.330   8.006
 9896SOL     OW31584   5.110   8.875   7.874
 9896SOL    HW131585   5.122   8.793   7.826
 9896SOL    HW231586   5.121   8.850   7.966
 9897SOL     OW31587   1.719   9.364   4.170
 9897SOL    HW131588   1.661   9.347   4.245
 9897SOL    HW231589   1.787   9.422   4.204
 9898SOL     OW31590  10.075  10.357  13.592
 9898SOL    HW131591  10.163  10.336  13.562
 9898SOL    HW231592  10.064  10.304  13.671
 9899SOL     OW31593  10.741  12.661  13.296
 9899SOL    HW131594  10.768  12.750  13.274
 9899SOL    HW231595  10.697  12.629  13.217
 9900SOL     OW31596   3.332   8.190   1.627
 9900SOL    HW131597   3.319   8.283   1.650
 9900SOL    HW231598   3.371   8.193   1.540
 9901SOL     OW31599   3.098   5.372   6.428
 9901SOL    HW131600   3.118   5.462   6.403
 9901SOL    HW231601   3.007   5.376   6.459
 9902SOL     OW31602   0.594   0.079   4.636
 9902SOL    HW131603   0.568  14.870   4.624
 9902SOL    HW231604   0.649   0.099   4.560
 9903SOL     OW31605  12.543   0.947  14.872
 9903SOL    HW131606  12.557   0.901  14.789
 9903SOL    HW231607  12.474   1.010  14.853
 9904SOL     OW31608   0.921  11.400   4.406
 9904SOL    HW131609   0.943  11.343   4.333
 9904SOL    HW231610   0.912  11.342   4.481
 9905SOL     OW31611   0.231   1.867   7.558
 9905SOL    HW131612   0.157   1.897   7.506
 9905SOL    HW231613   0.272   1.800   7.504
 9906SOL     OW31614   4.101   5.483   8.200
 9906SOL    HW131615   4.180   5.503   8.150
 9906SOL    HW231616   4.077   5.394   8.173
 9907SOL     OW31617   8.617   2.767  14.622
 9907SOL    HW131618   8.625   2.703  14.693
 9907SOL    HW231619   8.523   2.787  14.618
 9908SOL     OW31620   1.853  14.184  14.140
 9908SOL    HW131621   1.766  14.222  14.149
 9908SOL    HW231622   1.903  14.223  14.212
 9909SOL     OW31623   5.054  11.531   7.994
 9909SOL    HW131624   5.111  11.490   8.060
 9909SOL    HW231625   5.101  11.610   7.967
 9910SOL     OW31626   3.359  10.665  10.210
 9910SOL    HW131627   3.318  10.584  10.179
 9910SOL    HW231628   3.299  10.697  10.277
 9911SOL     OW31629   2.280  12.286   8.573
 9911SOL    HW131630   2.354  12.271   8.515
 9911SOL    HW231631   2.313  12.348   8.638
 9912SOL     OW31632  10.934  13.514  12.852
 9912SOL    HW131633  10.913  13.567  12.929
 9912SOL    HW231634  11.003  13.562  12.807
 9913SOL     OW31635  14.185   3.817  11.749
 9913SOL    HW131636  14.197   3.868  11.668
 9913SOL    HW231637  14.098   3.779  11.740
 9914SOL     OW31638   8.164  13.359  14.721
 9914SOL    HW131639   8.211  13.332  14.800
 9914SOL    HW231640   8.174  13.454  14.718
 9915SOL     OW31641   4.133   6.418  14.305
 9915SOL    HW131642   4.212   6.459  14.271
 9915SOL    HW231643   4.063   6.481  14.287
 9916SOL     OW31644   8.654   1.309  11.054
 9916SOL    HW131645   8.689   1.368  11.120
 9916SOL    HW231646   8.717   1.236  11.050
 9917SOL     OW31647   3.361  10.276  10.887
 9917SOL    HW131648   3.345  10.271  10.981
 9917SOL    HW231649   3.440  10.224  10.874
 9918SOL     OW31650  10.059   8.185  12.978
 9918SOL    HW131651  10.084   8.276  12.958
 9918SOL    HW231652  10.001   8.193  13.054
 9919SOL     OW31653   3.645   6.513   6.931
 9919SOL    HW131654   3.663   6.420   6.926
 9919SOL    HW231655   3.675   6.548   6.847
 9920SOL     OW31656  11.869   5.738  14.613
 9920SOL    HW131657  11.872   5.786  14.696
 9920SOL    HW231658  11.937   5.778  14.560
 9921SOL     OW31659   7.767   5.057  10.652
 9921SOL    HW131660   7.741   4.966  10.639
 9921SOL    HW231661   7.856   5.052  10.687
 9922SOL     OW31662   8.153  10.129   4.086
 9922SOL    HW131663   8.103  10.047   4.094
 9922SOL    HW231664   8.174  10.136   3.993
 9923SOL     OW31665   6.124   1.341   7.384
 9923SOL    HW131666   6.179   1.278   7.432
 9923SOL    HW231667   6.186   1.389   7.329
 9924SOL     OW31668   1.895   0.937   0.761
 9924SOL    HW131669   1.813   0.986   0.748
 9924SOL    HW231670   1.936   0.978   0.837
 9925SOL     OW31671   8.084  11.951   7.418
 9925SOL    HW131672   8.049  11.874   7.372
 9925SOL    HW231673   8.025  12.022   7.394
 9926SOL     OW31674  14.129   5.729   3.103
 9926SOL    HW131675  14.161   5.806   3.055
 9926SOL    HW231676  14.067   5.766   3.166
 9927SOL     OW31677  10.519   6.331   7.743
 9927SOL    HW131678  10.449   6.366   7.798
 9927SOL    HW231679  10.500   6.238   7.736
 9928SOL     OW31680   1.169   4.899   1.375
 9928SOL    HW131681   1.129   4.932   1.294
 9928SOL    HW231682   1.135   4.811   1.384
 9929SOL     OW31683   0.415   2.018   0.402
 9929SOL    HW131684   0.461   1.939   0.431
 9929SOL    HW231685   0.422   2.017   0.307
 9930SOL     OW31686   6.095  11.730   9.371
 9930SOL    HW131687   6.041  11.709   9.447
 9930SOL    HW231688   6.149  11.652   9.359
 9931SOL     OW31689   6.770  12.437   1.294
 9931SOL    HW131690   6.784  12.433   1.389
 9931SOL    HW231691   6.803  12.523   1.269
 9932SOL     OW31692   2.551   9.210   3.395
 9932SOL    HW131693   2.602   9.151   3.450
 9932SOL    HW231694   2.520   9.278   3.454
 9933SOL     OW31695   8.596   0.636  10.910
 9933SOL    HW131696   8.628   0.711  10.961
 9933SOL    HW231697   8.502   0.650  10.902
 9934SOL     OW31698   1.427   4.567   5.393
 9934SOL    HW131699   1.378   4.643   5.424
 9934SOL    HW231700   1.434   4.579   5.299
 9935SOL     OW31701   2.209   5.007   9.608
 9935SOL    HW131702   2.177   4.917   9.596
 9935SOL    HW231703   2.282   5.015   9.547
 9936SOL     OW31704   7.180   2.012   2.312
 9936SOL    HW131705   7.146   2.079   2.371
 9936SOL    HW231706   7.239   1.959   2.367
 9937SOL     OW31707   3.956   1.069   8.968
 9937SOL    HW131708   3.972   1.003   8.901
 9937SOL    HW231709   4.039   1.115   8.977
 9938SOL     OW31710  14.451   2.344   5.268
 9938SOL    HW131711  14.356   2.354   5.275
 9938SOL    HW231712  14.468   2.255   5.300
 9939SOL     OW31713   2.437   9.438   4.706
 9939SOL    HW131714   2.396   9.514   4.665
 9939SOL    HW231715   2.470   9.470   4.790
 9940SOL     OW31716  14.272   3.367  14.000
 9940SOL    HW131717  14.306   3.278  13.997
 9940SOL    HW231718  14.190   3.363  13.951
 9941SOL     OW31719   5.600   8.408   5.248
 9941SOL    HW131720   5.688   8.383   5.220
 9941SOL    HW231721   5.603   8.401   5.344
 9942SOL     OW31722   1.742  12.716   9.173
 9942SOL    HW131723   1.788  12.633   9.160
 9942SOL    HW231724   1.659  12.692   9.213
 9943SOL     OW31725  12.341   7.371  11.567
 9943SOL    HW131726  12.434   7.395  11.570
 9943SOL    HW231727  12.301   7.440  11.513
 9944SOL     OW31728   2.874   3.774   9.743
 9944SOL    HW131729   2.893   3.707   9.676
 9944SOL    HW231730   2.813   3.731   9.803
 9945SOL     OW31731   6.348   9.484  14.548
 9945SOL    HW131732   6.393   9.521  14.472
 9945SOL    HW231733   6.346   9.390  14.531
 9946SOL     OW31734   7.028  11.488   8.961
 9946SOL    HW131735   7.000  11.399   8.938
 9946SOL    HW231736   6.972  11.513   9.034
 9947SOL     OW31737   6.436   8.388   9.459
 9947SOL    HW131738   6.411   8.333   9.385
 9947SOL    HW231739   6.477   8.464   9.420
 9948SOL     OW31740   9.154   4.351  10.465
 9948SOL    HW131741   9.226   4.299  10.430
 9948SOL    HW231742   9.075   4.303  10.439
 9949SOL     OW31743   3.644  12.755  14.770
 9949SOL    HW131744   3.737  12.764  14.792
 9949SOL    HW231745   3.616  12.844  14.748
 9950SOL     OW31746   1.150   2.978  11.272
 9950SOL    HW131747   1.240   2.948  11.257
 9950SOL    HW231748   1.120   2.926  11.346
 9951SOL     OW31749   2.977   2.783   3.310
 9951SOL    HW131750   2.908   2.849   3.317
 9951SOL    HW231751   3.001   2.782   3.217
 9952SOL     OW31752   8.034   3.189   1.372
 9952SOL    HW131753   8.017   3.115   1.429
 9952SOL    HW231754   8.009   3.266   1.423
 9953SOL     OW31755   1.136  12.700   1.331
 9953SOL    HW131756   1.175  12.681   1.416
 9953SOL    HW231757   1.162  12.790   1.311
 9954SOL     OW31758  10.669   0.479   1.189
 9954SOL    HW131759  10.609   0.538   1.143
 9954SOL    HW231760  10.753   0.524   1.188
 9955SOL     OW31761   0.960   5.594   7.029
 9955SOL    HW131762   0.903   5.604   6.952
 9955SOL    HW231763   1.029   5.535   6.999
 9956SOL     OW31764   5.117   5.206  13.843
 9956SOL    HW131765   5.034   5.160  13.847
 9956SOL    HW231766   5.139   5.227  13.933
 9957SOL     OW31767  11.504  12.607   5.780
 9957SOL    HW131768  11.428  12.592   5.836
 9957SOL    HW231769  11.505  12.701   5.764
 9958SOL     OW31770   1.209   2.672  14.018
 9958SOL    HW131771   1.262   2.635  13.947
 9958SOL    HW231772   1.243   2.630  14.097
 9959SOL     OW31773   1.863   4.711   2.100
 9959SOL    HW131774   1.855   4.676   2.189
 9959SOL    HW231775   1.954   4.738   2.093
 9960SOL     OW31776   4.917   1.949  14.069
 9960SOL    HW131777   4.961   1.943  14.154
 9960SOL    HW231778   4.950   2.030  14.031
 9961SOL     OW31779   9.281  14.151   4.632
 9961SOL    HW131780   9.313  14.061   4.626
 9961SOL    HW231781   9.350  14.204   4.591
 9962SOL     OW31782   2.377  13.015   9.301
 9962SOL    HW131783   2.288  13.040   9.328
 9962SOL    HW231784   2.391  13.062   9.219
 9963SOL     OW31785  11.632   9.410   4.164
 9963SOL    HW131786  11.664   9.496   4.136
 9963SOL    HW231787  11.561   9.429   4.224
 9964SOL     OW31788  12.623   8.474   4.203
 9964SOL    HW131789  12.530   8.476   4.184
 9964SOL    HW231790  12.628   8.465   4.298
 9965SOL     OW31791  11.979   9.303  11.049
 9965SOL    HW131792  11.986   9.371  10.982
 9965SOL    HW231793  11.931   9.232  11.006
 9966SOL     OW31794   2.735   0.137   3.098
 9966SOL    HW131795   2.700   0.201   3.035
 9966SOL    HW231796   2.805   0.184   3.143
 9967SOL     OW31797  10.216  10.404   1.384
 9967SOL    HW131798  10.211  10.434   1.293
 9967SOL    HW231799  10.192  10.312   1.381
 9968SOL     OW31800  14.096  13.314   2.160
 9968SOL    HW131801  14.013  13.269   2.144
 9968SOL    HW231802  14.076  13.406   2.146
 9969SOL     OW31803   7.007   5.477  13.734
 9969SOL    HW131804   7.032   5.474  13.826
 9969SOL    HW231805   6.928   5.423  13.729
 9970SOL     OW31806  10.248   3.688  13.999
 9970SOL    HW131807  10.334   3.656  13.975
 9970SOL    HW231808  10.246   3.778  13.967
 9971SOL     OW31809   3.411   4.473   7.563
 9971SOL    HW131810   3.475   4.479   7.492
 9971SOL    HW231811   3.329   4.502   7.523
 9972SOL     OW31812   9.222   5.824   0.052
 9972SOL    HW131813   9.263   5.794  14.853
 9972SOL    HW231814   9.130   5.834   0.029
 9973SOL     OW31815   4.556   7.634  14.719
 9973SOL    HW131816   4.641   7.637  14.675
 9973SOL    HW231817   4.492   7.639  14.647
 9974SOL     OW31818  12.259   1.246   7.528
 9974SOL    HW131819  12.256   1.151   7.522
 9974SOL    HW231820  12.168   1.274   7.516
 9975SOL     OW31821   6.905   1.695  12.519
 9975SOL    HW131822   6.945   1.759  12.459
 9975SOL    HW231823   6.963   1.694  12.595
 9976SOL     OW31824  14.083   9.900  13.898
 9976SOL    HW131825  14.043   9.985  13.877
 9976SOL    HW231826  14.020   9.858  13.956
 9977SOL     OW31827  13.809   9.195  10.918
 9977SOL    HW131828  13.888   9.142  10.920
 9977SOL    HW231829  13.840   9.285  10.908
 9978SOL     OW31830   6.514   6.324   1.705
 9978SOL    HW131831   6.517   6.260   1.776
 9978SOL    HW231832   6.566   6.398   1.738
 9979SOL     OW31833   5.532  12.076   4.863
 9979SOL    HW131834   5.535  12.084   4.958
 9979SOL    HW231835   5.440  12.057   4.843
 9980SOL     OW31836  11.790   8.041   8.377
 9980SOL    HW131837  11.775   8.078   8.464
 9980SOL    HW231838  11.705   8.045   8.334
 9981SOL     OW31839   7.253   8.836   7.527
 9981SOL    HW131840   7.191   8.771   7.493
 9981SOL    HW231841   7.280   8.801   7.613
 9982SOL     OW31842   5.588   6.714   2.377
 9982SOL    HW131843   5.664   6.690   2.430
 9982SOL    HW231844   5.524   6.747   2.440
 9983SOL     OW31845   2.254  11.943   1.773
 9983SOL    HW131846   2.266  11.979   1.861
 9983SOL    HW231847   2.256  12.019   1.715
 9984SOL     OW31848  10.608  12.973   8.830
 9984SOL    HW131849  10.593  13.037   8.900
 9984SOL    HW231850  10.698  12.987   8.803
 9985SOL     OW31851   8.557  10.934   2.667
 9985SOL    HW131852   8.544  11.012   2.612
 9985SOL    HW231853   8.559  10.968   2.756
 9986SOL     OW31854   9.186   6.631  14.352
 9986SOL    HW131855   9.102   6.623  14.306
 9986SOL    HW231856   9.172   6.584  14.435
 9987SOL     OW31857  12.608   9.294   2.052
 9987SOL    HW131858  12.590   9.364   2.115
 9987SOL    HW231859  12.700   9.306   2.028
 9988SOL     OW31860   9.374   8.499   9.241
 9988SOL    HW131861   9.374   8.430   9.308
 9988SOL    HW231862   9.297   8.482   9.188
 9989SOL     OW31863   7.124   6.425  12.275
 9989SOL    HW131864   7.162   6.344  12.243
 9989SOL    HW231865   7.164   6.438  12.361
 9990SOL     OW31866   5.596  13.867   7.044
 9990SOL    HW131867   5.552  13.794   6.999
 9990SOL    HW231868   5.547  13.944   7.017
 9991SOL     OW31869  14.381   0.085   9.288
 9991SOL    HW131870  14.408   0.077   9.379
 9991SOL    HW231871  14.308   0.024   9.278
 9992SOL     OW31872   5.788   8.205  13.781
 9992SOL    HW131873   5.874   8.239  13.755
 9992SOL    HW231874   5.769   8.136  13.718
 9993SOL     OW31875   6.325   8.162  11.235
 9993SOL    HW131876   6.313   8.096  11.166
 9993SOL    HW231877   6.335   8.245  11.188
 9994SOL     OW31878   8.963  12.208  11.443
 9994SOL    HW131879   8.964  12.182  11.535
 9994SOL    HW231880   8.980  12.302  11.444
 9995SOL     OW31881   1.789   2.775   8.430
 9995SOL    HW131882   1.871   2.765   8.383
 9995SOL    HW231883   1.740   2.839   8.380
 9996SOL     OW31884  11.501  13.425   1.696
 9996SOL    HW131885  11.588  13.404   1.660
 9996SOL    HW231886  11.482  13.512   1.663
 9997SOL     OW31887   6.484  12.926  12.443
 9997SOL    HW131888   6.513  12.846  12.487
 9997SOL    HW231889   6.423  12.895  12.376
 9998SOL     OW31890  13.073  12.063   6.751
 9998SOL    HW131891  13.122  11.982   6.768
 9998SOL    HW231892  13.132  12.117   6.699
 9999SOL     OW31893   2.353   5.179  12.822
 9999SOL    HW131894   2.260   5.158  12.818
 9999SOL    HW231895   2.358   5.271  12.797
10000SOL     OW31896   2.752   3.455  10.649
10000SOL    HW131897   2.843   3.439  10.626
10000SOL    HW231898   2.755   3.494  10.737
10001SOL     OW31899   1.859   1.377  12.517
10001SOL    HW131900   1.867   1.374  12.421
10001SOL    HW231901   1.887   1.290  12.546
10002SOL     OW31902   8.365  14.049   0.201
10002SOL    HW131903   8.458  14.035   0.217
10002SOL    HW231904   8.350  14.013   0.114
10003SOL     OW31905   7.636   1.419   1.128
10003SOL    HW131906   7.713   1.477   1.132
10003SOL    HW231907   7.607   1.425   1.037
10004SOL     OW31908   0.495   8.194  11.733
10004SOL    HW131909   0.406   8.184  11.766
10004SOL    HW231910   0.513   8.112  11.687
10005SOL     OW31911   2.987   5.906   6.934
10005SOL    HW131912   3.007   5.977   6.873
10005SOL    HW231913   3.032   5.930   7.015
10006SOL     OW31914   6.492  13.635   8.772
10006SOL    HW131915   6.582  13.636   8.740
10006SOL    HW231916   6.480  13.721   8.812
10007SOL     OW31917   8.004  11.233   8.125
10007SOL    HW131918   7.939  11.168   8.099
10007SOL    HW231919   8.037  11.268   8.043
10008SOL     OW31920   1.886   4.590   9.582
10008SOL    HW131921   1.951   4.660   9.592
10008SOL    HW231922   1.810   4.634   9.543
10009SOL     OW31923   0.216   1.939  10.850
10009SOL    HW131924   0.241   1.975  10.936
10009SOL    HW231925   0.251   2.002  10.787
10010SOL     OW31926  12.806   5.362   2.837
10010SOL    HW131927  12.836   5.449   2.811
10010SOL    HW231928  12.723   5.378   2.884
10011SOL     OW31929   5.843  14.655   3.484
10011SOL    HW131930   5.767  14.711   3.502
10011SOL    HW231931   5.807  14.580   3.436
10012SOL     OW31932   1.414  11.510   6.458
10012SOL    HW131933   1.432  11.506   6.365
10012SOL    HW231934   1.346  11.444   6.473
10013SOL     OW31935  11.460  13.656  10.573
10013SOL    HW131936  11.500  13.726  10.625
10013SOL    HW231937  11.387  13.625  10.626
10014SOL     OW31938   6.520   5.440   4.979
10014SOL    HW131939   6.588   5.385   5.018
10014SOL    HW231940   6.495   5.395   4.899
10015SOL     OW31941   4.262  13.508  10.204
10015SOL    HW131942   4.262  13.546  10.292
10015SOL    HW231943   4.350  13.469  10.195
10016SOL     OW31944   0.205   8.178   3.870
10016SOL    HW131945   0.284   8.231   3.872
10016SOL    HW231946   0.189   8.155   3.962
10017SOL     OW31947  11.378   1.470   3.710
10017SOL    HW131948  11.405   1.384   3.678
10017SOL    HW231949  11.427   1.483   3.791
10018SOL     OW31950  10.976   5.280   3.857
10018SOL    HW131951  11.051   5.327   3.820
10018SOL    HW231952  10.999   5.188   3.848
10019SOL     OW31953   0.614   1.333   8.095
10019SOL    HW131954   0.597   1.262   8.033
10019SOL    HW231955   0.686   1.383   8.056
10020SOL     OW31956   1.922  11.327  13.436
10020SOL    HW131957   1.936  11.305  13.528
10020SOL    HW231958   1.984  11.273  13.388
10021SOL     OW31959  11.440   1.098  13.200
10021SOL    HW131960  11.535   1.100  13.197
10021SOL    HW231961  11.413   1.095  13.108
10022SOL     OW31962   9.136   6.366  14.708
10022SOL    HW131963   9.176   6.358  14.794
10022SOL    HW231964   9.172   6.293  14.658
10023SOL     OW31965  10.320   7.569   9.996
10023SOL    HW131966  10.331   7.583  10.090
10023SOL    HW231967  10.322   7.656   9.958
10024SOL     OW31968   8.132   9.348   4.002
10024SOL    HW131969   8.060   9.299   4.042
10024SOL    HW231970   8.089   9.411   3.944
10025SOL     OW31971   6.814   6.995   2.793
10025SOL    HW131972   6.796   6.945   2.714
10025SOL    HW231973   6.901   7.032   2.779
10026SOL     OW31974   7.596  11.259   3.818
10026SOL    HW131975   7.585  11.270   3.912
10026SOL    HW231976   7.634  11.171   3.809
10027SOL     OW31977   3.114   2.492  11.832
10027SOL    HW131978   3.025   2.524  11.817
10027SOL    HW231979   3.147   2.471  11.745
10028SOL     OW31980   2.907   5.830  14.702
10028SOL    HW131981   2.956   5.851  14.622
10028SOL    HW231982   2.839   5.769  14.673
10029SOL     OW31983   4.290   4.470   0.320
10029SOL    HW131984   4.230   4.542   0.303
10029SOL    HW231985   4.373   4.498   0.281
10030SOL     OW31986  13.456   9.943   3.962
10030SOL    HW131987  13.490   9.882   4.028
10030SOL    HW231988  13.461   9.895   3.880
10031SOL     OW31989  10.428  11.305   3.474
10031SOL    HW131990  10.462  11.254   3.401
10031SOL    HW231991  10.428  11.395   3.443
10032SOL     OW31992  13.078   2.657  12.646
10032SOL    HW131993  13.173   2.644  12.642
10032SOL    HW231994  13.067   2.745  12.682
10033SOL     OW31995   6.169   2.833  12.086
10033SOL    HW131996   6.083   2.799  12.106
10033SOL    HW231997   6.223   2.812  12.163
10034SOL     OW31998  13.036   8.976  10.366
10034SOL    HW131999  12.945   8.950  10.386
10034SOL    HW232000  13.081   8.971  10.450
10035SOL     OW32001   0.197   1.513  14.604
10035SOL    HW132002   0.221   1.426  14.638
10035SOL    HW232003   0.280   1.560  14.597
10036SOL     OW32004   5.043  13.091   8.608
10036SOL    HW132005   4.976  13.134   8.554
10036SOL    HW232006   5.043  13.141   8.690
10037SOL     OW32007   1.402   4.541  10.003
10037SOL    HW132008   1.492   4.519   9.980
10037SOL    HW232009   1.404   4.635  10.021
10038SOL     OW32010   2.085   0.470   4.913
10038SOL    HW132011   2.144   0.433   4.848
10038SOL    HW232012   2.132   0.460   4.996
10039SOL     OW32013   2.355   8.107   2.858
10039SOL    HW132014   2.313   8.038   2.909
10039SOL    HW232015   2.317   8.188   2.892
10040SOL     OW32016   5.315  14.685   6.812
10040SOL    HW132017   5.319  14.664   6.718
10040SOL    HW232018   5.390  14.638   6.850
10041SOL     OW32019   3.317   8.786   8.019
10041SOL    HW132020   3.275   8.710   7.980
10041SOL    HW232021   3.353   8.834   7.944
10042SOL     OW32022  13.371  10.980   2.333
10042SOL    HW132023  13.288  10.932   2.338
10042SOL    HW232024  13.397  10.972   2.241
10043SOL     OW32025  14.380   8.171  10.882
10043SOL    HW132026  14.344   8.258  10.901
10043SOL    HW232027  14.326   8.111  10.934
10044SOL     OW32028   3.462   7.282   6.433
10044SOL    HW132029   3.516   7.205   6.449
10044SOL    HW232030   3.376   7.246   6.410
10045SOL     OW32031   5.076  12.635   1.880
10045SOL    HW132032   5.039  12.550   1.902
10045SOL    HW232033   5.109  12.625   1.791
10046SOL     OW32034   2.052  10.946   5.436
10046SOL    HW132035   2.099  10.902   5.507
10046SOL    HW232036   2.107  10.931   5.359
10047SOL     OW32037  11.088   5.700   3.461
10047SOL    HW132038  11.022   5.706   3.392
10047SOL    HW232039  11.141   5.624   3.437
10048SOL     OW32040  11.002  10.397   0.649
10048SOL    HW132041  11.084  10.352   0.628
10048SOL    HW232042  10.933  10.334   0.627
10049SOL     OW32043   7.717  13.456   9.854
10049SOL    HW132044   7.782  13.394   9.887
10049SOL    HW232045   7.700  13.428   9.764
10050SOL     OW32046   7.141  10.544  12.482
10050SOL    HW132047   7.138  10.635  12.512
10050SOL    HW232048   7.077  10.499  12.536
10051SOL     OW32049   0.710  12.967  14.320
10051SOL    HW132050   0.616  12.958  14.332
10051SOL    HW232051   0.721  13.052  14.279
10052SOL     OW32052   9.446  11.226   5.337
10052SOL    HW132053   9.518  11.168   5.311
10052SOL    HW232054   9.438  11.288   5.265
10053SOL     OW32055   3.091  10.459   6.617
10053SOL    HW132056   3.129  10.372   6.633
10053SOL    HW232057   3.001  10.452   6.649
10054SOL     OW32058   0.887   2.739  10.985
10054SOL    HW132059   0.946   2.669  10.958
10054SOL    HW232060   0.939   2.819  10.977
10055SOL     OW32061   8.359  11.400   9.950
10055SOL    HW132062   8.400  11.469   9.897
10055SOL    HW232063   8.376  11.319   9.902
10056SOL     OW32064  13.060  13.400   6.690
10056SOL    HW132065  13.018  13.472   6.644
10056SOL    HW232066  13.044  13.323   6.634
10057SOL     OW32067   0.974   0.479   8.642
10057SOL    HW132068   0.908   0.547   8.655
10057SOL    HW232069   0.987   0.475   8.547
10058SOL     OW32070   3.549  12.315  13.249
10058SOL    HW132071   3.454  12.327  13.247
10058SOL    HW232072   3.584  12.403  13.259
10059SOL     OW32073   1.574  14.368  12.814
10059SOL    HW132074   1.532  14.305  12.873
10059SOL    HW232075   1.653  14.395  12.860
10060SOL     OW32076   5.222  13.153  13.923
10060SOL    HW132077   5.311  13.184  13.942
10060SOL    HW232078   5.166  13.229  13.941
10061SOL     OW32079  14.046   2.861   5.063
10061SOL    HW132080  13.996   2.912   5.000
10061SOL    HW232081  14.075   2.784   5.014
10062SOL     OW32082   2.370   3.449  11.726
10062SOL    HW132083   2.375   3.445  11.631
10062SOL    HW232084   2.351   3.542  11.745
10063SOL     OW32085  11.815  14.622  11.446
10063SOL    HW132086  11.754  14.557  11.412
10063SOL    HW232087  11.828  14.684  11.374
10064SOL     OW32088   2.723  14.184  12.930
10064SOL    HW132089   2.774  14.243  12.875
10064SOL    HW232090   2.722  14.101  12.882
10065SOL     OW32091   8.596   3.734   1.224
10065SOL    HW132092   8.619   3.826   1.234
10065SOL    HW232093   8.526   3.733   1.159
10066SOL     OW32094   3.745   3.243   8.076
10066SOL    HW132095   3.784   3.330   8.079
10066SOL    HW232096   3.773   3.200   8.157
10067SOL     OW32097  13.270   5.217   7.728
10067SOL    HW132098  13.234   5.223   7.639
10067SOL    HW232099  13.349   5.163   7.718
10068SOL     OW32100   0.172  11.500  10.738
10068SOL    HW132101   0.220  11.521  10.658
10068SOL    HW232102   0.213  11.553  10.806
10069SOL     OW32103   8.438   4.184  13.425
10069SOL    HW132104   8.384   4.228  13.360
10069SOL    HW232105   8.528   4.205  13.399
10070SOL     OW32106   1.156   0.357  12.754
10070SOL    HW132107   1.086   0.369  12.690
10070SOL    HW232108   1.118   0.300  12.821
10071SOL     OW32109  10.739  11.604   8.709
10071SOL    HW132110  10.736  11.698   8.729
10071SOL    HW232111  10.762  11.601   8.616
10072SOL     OW32112  13.703  13.406   5.122
10072SOL    HW132113  13.640  13.477   5.130
10072SOL    HW232114  13.725  13.383   5.213
10073SOL     OW32115   0.624   3.683   4.860
10073SOL    HW132116   0.621   3.758   4.800
10073SOL    HW232117   0.635   3.607   4.803
10074SOL     OW32118  13.841   1.564  14.021
10074SOL    HW132119  13.840   1.584  13.927
10074SOL    HW232120  13.760   1.603  14.054
10075SOL     OW32121   8.942   8.161   2.574
10075SOL    HW132122   8.991   8.141   2.494
10075SOL    HW232123   8.973   8.247   2.601
10076SOL     OW32124   1.615   2.407   7.790
10076SOL    HW132125   1.638   2.385   7.699
10076SOL    HW232126   1.546   2.472   7.782
10077SOL     OW32127   0.219  13.156  11.572
10077SOL    HW132128   0.244  13.248  11.580
10077SOL    HW232129   0.188  13.132  11.660
10078SOL     OW32130  12.598  13.626   9.826
10078SOL    HW132131  12.574  13.645   9.917
10078SOL    HW232132  12.692  13.645   9.821
10079SOL     OW32133   5.462   9.543  12.269
10079SOL    HW132134   5.483   9.615  12.209
10079SOL    HW232135   5.512   9.468  12.236
10080SOL     OW32136  11.625   0.141   5.770
10080SOL    HW132137  11.659   0.163   5.683
10080SOL    HW232138  11.666   0.205   5.828
10081SOL     OW32139   7.309   5.375   8.957
10081SOL    HW132140   7.217   5.353   8.941
10081SOL    HW232141   7.321   5.461   8.917
10082SOL     OW32142   6.600   8.611   2.813
10082SOL    HW132143   6.636   8.691   2.851
10082SOL    HW232144   6.671   8.577   2.759
10083SOL     OW32145   2.330   8.663  14.709
10083SOL    HW132146   2.287   8.670  14.623
10083SOL    HW232147   2.278   8.599  14.757
10084SOL     OW32148  12.046   1.224   6.316
10084SOL    HW132149  11.962   1.182   6.332
10084SOL    HW232150  12.070   1.264   6.400
10085SOL     OW32151   0.937   6.845   8.059
10085SOL    HW132152   1.012   6.793   8.029
10085SOL    HW232153   0.881   6.852   7.982
10086SOL     OW32154   2.838  11.481  13.461
10086SOL    HW132155   2.785  11.557  13.438
10086SOL    HW232156   2.780  11.427  13.514
10087SOL     OW32157   0.504   5.405   1.446
10087SOL    HW132158   0.445   5.398   1.370
10087SOL    HW232159   0.591   5.392   1.409
10088SOL     OW32160  12.847  14.567  10.797
10088SOL    HW132161  12.796  14.489  10.779
10088SOL    HW232162  12.938  14.537  10.800
10089SOL     OW32163   0.476  14.480  12.710
10089SOL    HW132164   0.421  14.527  12.646
10089SOL    HW232165   0.465  14.388  12.688
10090SOL     OW32166  13.608   7.343  11.570
10090SOL    HW132167  13.585   7.267  11.517
10090SOL    HW232168  13.534   7.355  11.629
10091SOL     OW32169  12.133  13.837   2.769
10091SOL    HW132170  12.047  13.794   2.775
10091SOL    HW232171  12.195  13.765   2.761
10092SOL     OW32172  12.763   2.521   8.519
10092SOL    HW132173  12.757   2.436   8.563
10092SOL    HW232174  12.703   2.514   8.445
10093SOL     OW32175   1.078  12.483   4.358
10093SOL    HW132176   1.147  12.417   4.364
10093SOL    HW232177   1.012  12.454   4.421
10094SOL     OW32178   4.705   7.729   4.109
10094SOL    HW132179   4.696   7.666   4.037
10094SOL    HW232180   4.683   7.679   4.187
10095SOL     OW32181   9.600  11.819   8.494
10095SOL    HW132182   9.645  11.742   8.530
10095SOL    HW232183   9.635  11.828   8.406
10096SOL     OW32184  13.926  13.936   0.653
10096SOL    HW132185  13.925  13.859   0.595
10096SOL    HW232186  13.891  13.903   0.736
10097SOL     OW32187   4.182   2.023  13.378
10097SOL    HW132188   4.201   1.959  13.448
10097SOL    HW232189   4.089   2.041  13.386
10098SOL     OW32190   6.513   2.120   2.947
10098SOL    HW132191   6.576   2.120   2.876
10098SOL    HW232192   6.564   2.143   3.025
10099SOL     OW32193   3.914  11.387   7.559
10099SOL    HW132194   3.828  11.355   7.585
10099SOL    HW232195   3.927  11.351   7.471
10100SOL     OW32196  11.126   2.935   4.793
10100SOL    HW132197  11.193   2.868   4.803
10100SOL    HW232198  11.097   2.926   4.702
10101SOL     OW32199  13.887   5.411  14.239
10101SOL    HW132200  13.794   5.430  14.227
10101SOL    HW232201  13.926   5.495  14.262
10102SOL     OW32202   1.412  12.162   7.960
10102SOL    HW132203   1.472  12.173   7.886
10102SOL    HW232204   1.384  12.071   7.955
10103SOL     OW32205   4.361   6.088   7.763
10103SOL    HW132206   4.367   6.109   7.670
10103SOL    HW232207   4.433   6.136   7.804
10104SOL     OW32208  14.539   2.255   0.002
10104SOL    HW132209  14.532   2.305   0.084
10104SOL    HW232210  14.460   2.201  14.882
10105SOL     OW32211   0.710   8.897  10.376
10105SOL    HW132212   0.712   8.923  10.284
10105SOL    HW232213   0.751   8.810  10.376
10106SOL     OW32214   1.030  12.477   8.702
10106SOL    HW132215   1.005  12.520   8.620
10106SOL    HW232216   1.122  12.452   8.688
10107SOL     OW32217  13.103  14.158  10.981
10107SOL    HW132218  13.153  14.094  10.931
10107SOL    HW232219  13.166  14.194  11.043
10108SOL     OW32220   9.200  14.606   5.602
10108SOL    HW132221   9.206  14.666   5.676
10108SOL    HW232222   9.110  14.572   5.605
10109SOL     OW32223   6.981   9.785   7.328
10109SOL    HW132224   7.016   9.716   7.272
10109SOL    HW232225   6.900   9.812   7.285
10110SOL     OW32226   7.438  10.798   9.454
10110SOL    HW132227   7.426  10.817   9.547
10110SOL    HW232228   7.531  10.778   9.445
10111SOL     OW32229   5.198   9.981   2.504
10111SOL    HW132230   5.170   9.932   2.427
10111SOL    HW232231   5.262   9.924   2.547
10112SOL     OW32232   9.422   9.380   3.744
10112SOL    HW132233   9.412   9.285   3.752
10112SOL    HW232234   9.383   9.402   3.660
10113SOL     OW32235   2.177   8.434  12.837
10113SOL    HW132236   2.232   8.510  12.819
10113SOL    HW232237   2.156   8.440  12.930
10114SOL     OW32238   9.501  14.562   6.694
10114SOL    HW132239   9.445  14.514   6.755
10114SOL    HW232240   9.561  14.611   6.750
10115SOL     OW32241   4.510  12.755  14.325
10115SOL    HW132242   4.567  12.810  14.378
10115SOL    HW232243   4.476  12.813  14.258
10116SOL     OW32244   9.328   5.137   7.371
10116SOL    HW132245   9.338   5.096   7.285
10116SOL    HW232246   9.234   5.149   7.381
10117SOL     OW32247   0.173   8.893   5.545
10117SOL    HW132248   0.197   8.829   5.612
10117SOL    HW232249   0.111   8.951   5.589
10118SOL     OW32250   2.555  12.054   1.792
10118SOL    HW132251   2.600  12.106   1.726
10118SOL    HW232252   2.464  12.053   1.764
10119SOL     OW32253   7.952   7.832  12.197
10119SOL    HW132254   7.982   7.808  12.285
10119SOL    HW232255   7.877   7.890  12.212
10120SOL     OW32256  10.207   9.993  11.705
10120SOL    HW132257  10.280   9.938  11.676
10120SOL    HW232258  10.162  10.019  11.625
10121SOL     OW32259   2.947   3.287   2.458
10121SOL    HW132260   2.915   3.299   2.369
10121SOL    HW232261   2.957   3.192   2.467
10122SOL     OW32262   4.181  13.715  14.217
10122SOL    HW132263   4.100  13.667  14.235
10122SOL    HW232264   4.161  13.806  14.241
10123SOL     OW32265   7.122   1.105  14.651
10123SOL    HW132266   7.181   1.174  14.623
10123SOL    HW232267   7.164   1.024  14.621
10124SOL     OW32268   7.860   8.400  14.499
10124SOL    HW132269   7.949   8.395  14.464
10124SOL    HW232270   7.837   8.493  14.493
10125SOL     OW32271  14.870   9.200  14.855
10125SOL    HW132272   0.001   9.215  14.762
10125SOL    HW232273   0.071   9.221   0.014
10126SOL     OW32274   0.258   0.134   8.166
10126SOL    HW132275   0.205   0.055   8.177
10126SOL    HW232276   0.268   0.143   8.071
10127SOL     OW32277   3.486   2.089   6.087
10127SOL    HW132278   3.571   2.077   6.130
10127SOL    HW232279   3.435   2.140   6.148
10128SOL     OW32280   5.724   6.683   0.106
10128SOL    HW132281   5.695   6.702   0.018
10128SOL    HW232282   5.780   6.606   0.096
10129SOL     OW32283   0.679   6.846  10.852
10129SOL    HW132284   0.690   6.918  10.913
10129SOL    HW232285   0.661   6.770  10.908
10130SOL     OW32286   7.205  12.192  13.947
10130SOL    HW132287   7.119  12.224  13.919
10130SOL    HW232288   7.256  12.187  13.866
10131SOL     OW32289   3.031  11.039   3.931
10131SOL    HW132290   3.024  11.130   3.958
10131SOL    HW232291   3.094  11.001   3.992
10132SOL     OW32292   6.963  10.023   6.150
10132SOL    HW132293   6.907  10.096   6.174
10132SOL    HW232294   7.023  10.013   6.224
10133SOL     OW32295   0.577  14.215  13.524
10133SOL    HW132296   0.534  14.257  13.598
10133SOL    HW232297   0.550  14.123  13.528
10134SOL     OW32298  10.297   9.363  11.742
10134SOL    HW132299  10.238   9.412  11.686
10134SOL    HW232300  10.305   9.416  11.822
10135SOL     OW32301  11.612   3.205   0.387
10135SOL    HW132302  11.698   3.163   0.377
10135SOL    HW232303  11.564   3.146   0.446
10136SOL     OW32304   9.061   9.476  12.850
10136SOL    HW132305   9.076   9.495  12.943
10136SOL    HW232306   9.093   9.386  12.839
10137SOL     OW32307   2.837  12.475   0.961
10137SOL    HW132308   2.870  12.385   0.955
10137SOL    HW232309   2.747  12.469   0.928
10138SOL     OW32310   0.125   4.174   9.721
10138SOL    HW132311   0.039   4.130   9.725
10138SOL    HW232312   0.107   4.264   9.746
10139SOL     OW32313  13.679   6.887   5.029
10139SOL    HW132314  13.660   6.797   5.004
10139SOL    HW232315  13.663   6.938   4.949
10140SOL     OW32316  13.834  12.210   6.544
10140SOL    HW132317  13.847  12.279   6.480
10140SOL    HW232318  13.748  12.229   6.583
10141SOL     OW32319   0.983   4.590  12.815
10141SOL    HW132320   1.030   4.508  12.827
10141SOL    HW232321   0.989   4.607  12.721
10142SOL     OW32322   7.953   2.450   7.883
10142SOL    HW132323   8.011   2.413   7.950
10142SOL    HW232324   7.971   2.544   7.886
10143SOL     OW32325   2.764   0.872  11.939
10143SOL    HW132326   2.690   0.884  11.880
10143SOL    HW232327   2.802   0.959  11.949
10144SOL     OW32328   7.638   9.065  11.210
10144SOL    HW132329   7.689   9.003  11.263
10144SOL    HW232330   7.697   9.092  11.141
10145SOL     OW32331   4.724   4.107   4.949
10145SOL    HW132332   4.734   4.115   4.855
10145SOL    HW232333   4.714   4.198   4.980
10146SOL     OW32334  12.976   2.420   5.737
10146SOL    HW132335  12.925   2.342   5.714
10146SOL    HW232336  13.039   2.429   5.666
10147SOL     OW32337  14.182   8.906  11.444
10147SOL    HW132338  14.222   8.856  11.373
10147SOL    HW232339  14.090   8.878  11.443
10148SOL     OW32340  10.318  11.261   6.525
10148SOL    HW132341  10.310  11.239   6.432
10148SOL    HW232342  10.399  11.219   6.553
10149SOL     OW32343   2.639   6.490   8.478
10149SOL    HW132344   2.687   6.463   8.557
10149SOL    HW232345   2.673   6.577   8.458
10150SOL     OW32346   1.902   2.421  13.951
10150SOL    HW132347   1.887   2.409  13.857
10150SOL    HW232348   1.879   2.336  13.989
10151SOL     OW32349  10.670   2.526   9.946
10151SOL    HW132350  10.606   2.465   9.981
10151SOL    HW232351  10.730   2.543  10.019
10152SOL     OW32352  13.051   4.687   4.668
10152SOL    HW132353  13.010   4.766   4.632
10152SOL    HW232354  12.982   4.644   4.717
10153SOL     OW32355   4.777   1.850   6.367
10153SOL    HW132356   4.871   1.857   6.355
10153SOL    HW232357   4.759   1.756   6.363
10154SOL     OW32358  13.401  11.630   5.604
10154SOL    HW132359  13.410  11.657   5.696
10154SOL    HW232360  13.470  11.678   5.558
10155SOL     OW32361   4.934   8.600  13.133
10155SOL    HW132362   5.003   8.572  13.073
10155SOL    HW232363   4.920   8.524  13.190
10156SOL     OW32364   0.479   6.353  14.355
10156SOL    HW132365   0.401   6.389  14.313
10156SOL    HW232366   0.546   6.421  14.345
10157SOL     OW32367   5.342   2.243   3.296
10157SOL    HW132368   5.248   2.221   3.293
10157SOL    HW232369   5.386   2.161   3.276
10158SOL     OW32370   1.379  10.752   3.778
10158SOL    HW132371   1.416  10.689   3.716
10158SOL    HW232372   1.284  10.740   3.771
10159SOL     OW32373  11.303  12.317   4.688
10159SOL    HW132374  11.251  12.240   4.710
10159SOL    HW232375  11.357  12.333   4.765
10160SOL     OW32376   3.172   6.477   8.022
10160SOL    HW132377   3.142   6.425   8.097
10160SOL    HW232378   3.142   6.565   8.040
10161SOL     OW32379  13.176   8.851   6.446
10161SOL    HW132380  13.267   8.860   6.418
10161SOL    HW232381  13.179   8.853   6.541
10162SOL     OW32382   5.362  14.873   9.040
10162SOL    HW132383   5.377  14.807   8.973
10162SOL    HW232384   5.415  14.844   9.114
10163SOL     OW32385   8.738  14.379   6.736
10163SOL    HW132386   8.649  14.374   6.770
10163SOL    HW232387   8.793  14.397   6.812
10164SOL     OW32388   9.577   1.809  13.232
10164SOL    HW132389   9.611   1.728  13.193
10164SOL    HW232390   9.484   1.808  13.211
10165SOL     OW32391  11.092   1.506   8.665
10165SOL    HW132392  11.081   1.554   8.583
10165SOL    HW232393  11.032   1.432   8.658
10166SOL     OW32394   6.253   4.416   6.405
10166SOL    HW132395   6.251   4.429   6.311
10166SOL    HW232396   6.210   4.494   6.441
10167SOL     OW32397   0.570   4.823   7.928
10167SOL    HW132398   0.588   4.825   8.022
10167SOL    HW232399   0.475   4.816   7.922
10168SOL     OW32400   0.075  13.007  13.162
10168SOL    HW132401   0.101  12.929  13.113
10168SOL    HW232402  14.871  12.986  13.197
10169SOL     OW32403   3.067   9.224   0.989
10169SOL    HW132404   3.069   9.129   0.994
10169SOL    HW232405   3.078   9.253   1.080
10170SOL     OW32406   5.712   7.187  13.799
10170SOL    HW132407   5.782   7.124  13.813
10170SOL    HW232408   5.754   7.263  13.761
10171SOL     OW32409   3.032   6.400   3.328
10171SOL    HW132410   3.013   6.335   3.260
10171SOL    HW232411   3.121   6.429   3.309
10172SOL     OW32412   8.336   0.147  10.515
10172SOL    HW132413   8.426   0.159  10.544
10172SOL    HW232414   8.299   0.085  10.578
10173SOL     OW32415   3.003   8.149  10.495
10173SOL    HW132416   2.939   8.079  10.509
10173SOL    HW232417   3.076   8.126  10.553
10174SOL     OW32418   1.513  12.205   4.157
10174SOL    HW132419   1.578  12.137   4.174
10174SOL    HW232420   1.515  12.260   4.236
10175SOL     OW32421   0.538   3.975  13.544
10175SOL    HW132422   0.627   3.995  13.572
10175SOL    HW232423   0.487   4.051  13.571
10176SOL     OW32424   1.185  13.068   1.632
10176SOL    HW132425   1.277  13.090   1.645
10176SOL    HW232426   1.162  13.015   1.708
10177SOL     OW32427   4.873   8.456  13.506
10177SOL    HW132428   4.897   8.383  13.563
10177SOL    HW232429   4.830   8.519  13.563
10178SOL     OW32430   5.421  10.219   5.788
10178SOL    HW132431   5.514  10.236   5.804
10178SOL    HW232432   5.420  10.145   5.727
10179SOL     OW32433   6.536   5.086   1.460
10179SOL    HW132434   6.579   5.052   1.538
10179SOL    HW232435   6.451   5.041   1.457
10180SOL     OW32436   6.136  13.326   5.816
10180SOL    HW132437   6.208  13.317   5.753
10180SOL    HW232438   6.171  13.382   5.885
10181SOL     OW32439   7.501   0.659   9.810
10181SOL    HW132440   7.455   0.667   9.726
10181SOL    HW232441   7.560   0.734   9.812
10182SOL     OW32442   4.208  13.484   9.923
10182SOL    HW132443   4.254  13.563   9.892
10182SOL    HW232444   4.236  13.475  10.014
10183SOL     OW32445   8.736   0.442  13.442
10183SOL    HW132446   8.644   0.416  13.434
10183SOL    HW232447   8.733   0.537  13.457
10184SOL     OW32448   9.220  10.361  13.578
10184SOL    HW132449   9.158  10.377  13.507
10184SOL    HW232450   9.289  10.308  13.537
10185SOL     OW32451   1.250   7.149   8.272
10185SOL    HW132452   1.168   7.116   8.236
10185SOL    HW232453   1.237   7.145   8.367
10186SOL     OW32454   4.754   6.610   0.627
10186SOL    HW132455   4.705   6.617   0.709
10186SOL    HW232456   4.730   6.524   0.593
10187SOL     OW32457   3.880   6.150   4.610
10187SOL    HW132458   3.841   6.126   4.694
10187SOL    HW232459   3.974   6.145   4.625
10188SOL     OW32460   8.192  13.913   6.873
10188SOL    HW132461   8.237  13.997   6.889
10188SOL    HW232462   8.105  13.925   6.911
10189SOL     OW32463  11.588   1.366  13.581
10189SOL    HW132464  11.578   1.399  13.671
10189SOL    HW232465  11.564   1.273  13.587
10190SOL     OW32466   4.389   9.505   7.487
10190SOL    HW132467   4.363   9.543   7.571
10190SOL    HW232468   4.317   9.446   7.464
10191SOL     OW32469   8.701   7.948   7.019
10191SOL    HW132470   8.684   7.909   7.105
10191SOL    HW232471   8.647   8.027   7.016
10192SOL     OW32472   9.009   6.587   6.331
10192SOL    HW132473   9.031   6.529   6.257
10192SOL    HW232474   9.015   6.530   6.408
10193SOL     OW32475   3.918   9.828   3.188
10193SOL    HW132476   3.946   9.920   3.184
10193SOL    HW232477   3.825   9.833   3.209
10194SOL     OW32478   3.013   2.021   5.484
10194SOL    HW132479   2.972   2.030   5.398
10194SOL    HW232480   2.945   1.981   5.538
10195SOL     OW32481  12.176   6.806   9.530
10195SOL    HW132482  12.134   6.864   9.592
10195SOL    HW232483  12.131   6.722   9.540
10196SOL     OW32484   1.883   3.439  11.311
10196SOL    HW132485   1.920   3.511  11.361
10196SOL    HW232486   1.788   3.449  11.322
10197SOL     OW32487   8.386   8.675   0.973
10197SOL    HW132488   8.359   8.585   0.989
10197SOL    HW232489   8.476   8.680   1.007
10198SOL     OW32490  12.920   7.522   5.018
10198SOL    HW132491  12.952   7.548   5.104
10198SOL    HW232492  12.975   7.447   4.994
10199SOL     OW32493   4.804  12.319  12.217
10199SOL    HW132494   4.850  12.300  12.135
10199SOL    HW232495   4.755  12.399  12.199
10200SOL     OW32496   0.567   2.338  12.859
10200SOL    HW132497   0.636   2.272  12.858
10200SOL    HW232498   0.497   2.301  12.804
10201SOL     OW32499  14.732   5.266   2.990
10201SOL    HW132500  14.682   5.287   2.911
10201SOL    HW232501  14.821   5.298   2.971
10202SOL     OW32502  12.390  11.583   3.991
10202SOL    HW132503  12.384  11.549   4.081
10202SOL    HW232504  12.419  11.508   3.939
10203SOL     OW32505  12.774   5.951   1.491
10203SOL    HW132506  12.723   5.944   1.571
10203SOL    HW232507  12.848   5.892   1.505
10204SOL     OW32508   1.235  11.404   4.397
10204SOL    HW132509   1.243  11.445   4.310
10204SOL    HW232510   1.255  11.312   4.382
10205SOL     OW32511   0.438   8.143   3.420
10205SOL    HW132512   0.428   8.048   3.413
10205SOL    HW232513   0.460   8.158   3.512
10206SOL     OW32514   7.809  10.274  12.584
10206SOL    HW132515   7.790  10.248  12.674
10206SOL    HW232516   7.890  10.230  12.562
10207SOL     OW32517   0.292   3.781   0.852
10207SOL    HW132518   0.250   3.800   0.936
10207SOL    HW232519   0.373   3.736   0.875
10208SOL     OW32520  10.038   1.340   0.430
10208SOL    HW132521   9.994   1.301   0.506
10208SOL    HW232522  10.069   1.425   0.462
10209SOL     OW32523  13.330  10.580  10.384
10209SOL    HW132524  13.378  10.523  10.323
10209SOL    HW232525  13.283  10.641  10.328
10210SOL     OW32526   7.160   2.045   3.218
10210SOL    HW132527   7.224   2.100   3.173
10210SOL    HW232528   7.091   2.029   3.154
10211SOL     OW32529   1.758  14.521  10.272
10211SOL    HW132530   1.701  14.447  10.294
10211SOL    HW232531   1.698  14.594  10.258
10212SOL     OW32532  13.012  11.112  10.385
10212SOL    HW132533  12.975  11.051  10.321
10212SOL    HW232534  13.017  11.196  10.338
10213SOL     OW32535   7.094  13.054   8.963
10213SOL    HW132536   7.090  13.034   9.056
10213SOL    HW232537   7.032  12.993   8.923
10214SOL     OW32538  10.755   4.118   9.966
10214SOL    HW132539  10.814   4.174  10.016
10214SOL    HW232540  10.813   4.056   9.921
10215SOL     OW32541   6.715   2.858   3.413
10215SOL    HW132542   6.797   2.835   3.369
10215SOL    HW232543   6.672   2.774   3.430
10216SOL     OW32544   2.887   8.019  11.266
10216SOL    HW132545   2.963   7.970  11.235
10216SOL    HW232546   2.841   8.045  11.186
10217SOL     OW32547  10.370  12.479  10.516
10217SOL    HW132548  10.290  12.432  10.491
10217SOL    HW232549  10.372  12.473  10.611
10218SOL     OW32550   4.829   6.177   4.157
10218SOL    HW132551   4.824   6.147   4.066
10218SOL    HW232552   4.739   6.177   4.188
10219SOL     OW32553   2.371   1.239   1.251
10219SOL    HW132554   2.285   1.280   1.241
10219SOL    HW232555   2.394   1.254   1.343
10220SOL     OW32556  13.966  13.006   2.715
10220SOL    HW132557  14.044  13.044   2.676
10220SOL    HW232558  13.930  13.077   2.769
10221SOL     OW32559   0.212  11.402  12.312
10221SOL    HW132560   0.151  11.371  12.245
10221SOL    HW232561   0.263  11.325  12.336
10222SOL     OW32562   1.043   0.568   1.260
10222SOL    HW132563   1.073   0.654   1.290
10222SOL    HW232564   0.965   0.550   1.312
10223SOL     OW32565   3.015  14.772   5.209
10223SOL    HW132566   3.099  14.733   5.233
10223SOL    HW232567   2.950  14.716   5.252
10224SOL     OW32568  12.374   9.309  10.109
10224SOL    HW132569  12.307   9.372  10.082
10224SOL    HW232570  12.330   9.224  10.104
10225SOL     OW32571  13.766   6.453  14.531
10225SOL    HW132572  13.791   6.400  14.456
10225SOL    HW232573  13.849   6.481  14.569
10226SOL     OW32574   2.618  10.873   5.042
10226SOL    HW132575   2.565  10.946   5.074
10226SOL    HW232576   2.694  10.915   5.002
10227SOL     OW32577   5.402   8.027   9.341
10227SOL    HW132578   5.496   8.025   9.356
10227SOL    HW232579   5.385   7.952   9.284
10228SOL     OW32580   2.880   3.252   3.407
10228SOL    HW132581   2.810   3.264   3.343
10228SOL    HW232582   2.951   3.211   3.358
10229SOL     OW32583   0.109  10.672   0.108
10229SOL    HW132584   0.187  10.629   0.073
10229SOL    HW232585   0.049  10.677   0.034
10230SOL     OW32586  14.087   4.790  11.336
10230SOL    HW132587  14.010   4.837  11.305
10230SOL    HW232588  14.149   4.795  11.263
10231SOL     OW32589  10.981   9.307  12.746
10231SOL    HW132590  10.971   9.216  12.775
10231SOL    HW232591  11.076   9.321  12.743
10232SOL     OW32592   4.894   2.817   2.137
10232SOL    HW132593   4.929   2.874   2.068
10232SOL    HW232594   4.863   2.740   2.092
10233SOL     OW32595  13.115   2.918   4.390
10233SOL    HW132596  13.050   2.852   4.364
10233SOL    HW232597  13.116   2.914   4.486
10234SOL     OW32598  12.362   6.023  14.745
10234SOL    HW132599  12.415   5.980  14.813
10234SOL    HW232600  12.383   6.116  14.754
10235SOL     OW32601  10.240  12.396  14.078
10235SOL    HW132602  10.231  12.302  14.097
10235SOL    HW232603  10.150  12.428  14.072
10236SOL     OW32604   8.691   7.917   6.327
10236SOL    HW132605   8.637   7.992   6.305
10236SOL    HW232606   8.641   7.871   6.395
10237SOL     OW32607  10.375   1.048   2.860
10237SOL    HW132608  10.422   0.966   2.849
10237SOL    HW232609  10.346   1.071   2.771
10238SOL     OW32610   5.713  14.652  11.682
10238SOL    HW132611   5.806  14.642  11.664
10238SOL    HW232612   5.672  14.656  11.596
10239SOL     OW32613  10.500   0.723  10.877
10239SOL    HW132614  10.543   0.751  10.796
10239SOL    HW232615  10.573   0.701  10.935
10240SOL     OW32616   8.629  10.090   1.901
10240SOL    HW132617   8.625  10.052   1.989
10240SOL    HW232618   8.562  10.159   1.902
10241SOL     OW32619   6.700   5.500   1.782
10241SOL    HW132620   6.674   5.549   1.860
10241SOL    HW232621   6.792   5.523   1.768
10242SOL     OW32622  14.852   4.981   2.889
10242SOL    HW132623  14.759   4.969   2.868
10242SOL    HW232624  14.855   5.063   2.939
10243SOL     OW32625   0.195  11.891   6.039
10243SOL    HW132626   0.173  11.982   6.021
10243SOL    HW232627   0.167  11.843   5.961
10244SOL     OW32628   0.869   2.393   9.823
10244SOL    HW132629   0.957   2.375   9.855
10244SOL    HW232630   0.878   2.474   9.772
10245SOL     OW32631   4.293  14.559   7.891
10245SOL    HW132632   4.366  14.498   7.899
10245SOL    HW232633   4.327  14.630   7.836
10246SOL     OW32634   9.959   2.507   7.320
10246SOL    HW132635   9.914   2.444   7.264
10246SOL    HW232636  10.052   2.485   7.311
10247SOL     OW32637  14.524  10.963   6.155
10247SOL    HW132638  14.430  10.946   6.161
10247SOL    HW232639  14.545  10.950   6.063
10248SOL     OW32640   0.418   6.449  13.284
10248SOL    HW132641   0.418   6.511  13.357
10248SOL    HW232642   0.382   6.368  13.320
10249SOL     OW32643  12.263  12.799   1.018
10249SOL    HW132644  12.275  12.873   1.078
10249SOL    HW232645  12.346  12.792   0.971
10250SOL     OW32646  12.578   4.227   1.809
10250SOL    HW132647  12.546   4.142   1.778
10250SOL    HW232648  12.510   4.289   1.781
10251SOL     OW32649  10.606   3.565   1.824
10251SOL    HW132650  10.690   3.608   1.842
10251SOL    HW232651  10.550   3.635   1.791
10252SOL     OW32652   5.821   9.562  12.330
10252SOL    HW132653   5.806   9.540  12.238
10252SOL    HW232654   5.860   9.483  12.367
10253SOL     OW32655   7.163   6.873   3.135
10253SOL    HW132656   7.176   6.963   3.107
10253SOL    HW232657   7.226   6.860   3.205
10254SOL     OW32658  13.496   9.368   8.543
10254SOL    HW132659  13.520   9.342   8.633
10254SOL    HW232660  13.423   9.429   8.554
10255SOL     OW32661  12.970   9.912  11.394
10255SOL    HW132662  13.041   9.849  11.381
10255SOL    HW232663  13.013   9.989  11.432
10256SOL     OW32664  10.660   0.976   9.782
10256SOL    HW132665  10.579   0.942   9.820
10256SOL    HW232666  10.674   1.059   9.826
10257SOL     OW32667   7.860  11.555   2.541
10257SOL    HW132668   7.822  11.577   2.456
10257SOL    HW232669   7.788  11.516   2.590
10258SOL     OW32670   7.055   9.874   9.070
10258SOL    HW132671   7.029   9.966   9.075
10258SOL    HW232672   7.147   9.873   9.095
10259SOL     OW32673   9.629   1.036  11.056
10259SOL    HW132674   9.716   1.035  11.017
10259SOL    HW232675   9.644   1.023  11.150
10260SOL     OW32676   8.744   3.223   1.521
10260SOL    HW132677   8.731   3.194   1.611
10260SOL    HW232678   8.657   3.219   1.481
10261SOL     OW32679   8.893   5.208  11.872
10261SOL    HW132680   8.812   5.236  11.914
10261SOL    HW232681   8.957   5.275  11.896
10262SOL     OW32682   6.146  10.983   3.565
10262SOL    HW132683   6.084  10.911   3.561
10262SOL    HW232684   6.116  11.037   3.638
10263SOL     OW32685   5.842  10.126  14.565
10263SOL    HW132686   5.756  10.141  14.604
10263SOL    HW232687   5.884  10.212  14.564
10264SOL     OW32688   2.673  11.946   1.169
10264SOL    HW132689   2.592  11.897   1.153
10264SOL    HW232690   2.651  12.007   1.238
10265SOL     OW32691   0.449   3.957   5.574
10265SOL    HW132692   0.392   3.911   5.636
10265SOL    HW232693   0.437   3.910   5.491
10266SOL     OW32694  10.708  14.154   9.083
10266SOL    HW132695  10.665  14.144   9.168
10266SOL    HW232696  10.742  14.243   9.084
10267SOL     OW32697  14.085  10.177   1.496
10267SOL    HW132698  14.053  10.096   1.456
10267SOL    HW232699  14.044  10.246   1.445
10268SOL     OW32700   1.463   6.563   5.951
10268SOL    HW132701   1.486   6.652   5.977
10268SOL    HW232702   1.380   6.572   5.904
10269SOL     OW32703   0.453   3.764  12.404
10269SOL    HW132704   0.490   3.852  12.416
10269SOL    HW232705   0.511   3.707  12.454
10270SOL     OW32706   7.235   6.795   6.734
10270SOL    HW132707   7.196   6.788   6.647
10270SOL    HW232708   7.329   6.806   6.717
10271SOL     OW32709   9.261  12.290  14.344
10271SOL    HW132710   9.307  12.369  14.314
10271SOL    HW232711   9.169  12.316  14.349
10272SOL     OW32712  13.735  12.786   7.285
10272SOL    HW132713  13.789  12.744   7.218
10272SOL    HW232714  13.784  12.775   7.366
10273SOL     OW32715   1.460   0.020   2.441
10273SOL    HW132716   1.440   0.096   2.387
10273SOL    HW232717   1.529  14.856   2.393
10274SOL     OW32718   5.962   9.275   2.367
10274SOL    HW132719   6.034   9.214   2.352
10274SOL    HW232720   6.005   9.355   2.398
10275SOL     OW32721   4.372   4.536   4.608
10275SOL    HW132722   4.423   4.556   4.530
10275SOL    HW232723   4.391   4.609   4.668
10276SOL     OW32724   9.743   6.942   5.130
10276SOL    HW132725   9.708   6.856   5.107
10276SOL    HW232726   9.677   6.981   5.188
10277SOL     OW32727   4.968  10.383   6.601
10277SOL    HW132728   5.008  10.407   6.518
10277SOL    HW232729   4.878  10.415   6.595
10278SOL     OW32730  14.214   9.821  10.245
10278SOL    HW132731  14.138   9.829  10.303
10278SOL    HW232732  14.275   9.889  10.276
10279SOL     OW32733   2.232   9.310   3.700
10279SOL    HW132734   2.178   9.290   3.624
10279SOL    HW232735   2.177   9.288   3.775
10280SOL     OW32736   9.187  10.144   6.504
10280SOL    HW132737   9.125  10.090   6.456
10280SOL    HW232738   9.219  10.207   6.439
10281SOL     OW32739   0.393   5.606  13.598
10281SOL    HW132740   0.445   5.538  13.639
10281SOL    HW232741   0.396   5.680  13.659
10282SOL     OW32742   0.275   8.945   7.413
10282SOL    HW132743   0.183   8.924   7.428
10282SOL    HW232744   0.274   9.010   7.342
10283SOL     OW32745   4.231   3.273   8.601
10283SOL    HW132746   4.232   3.356   8.554
10283SOL    HW232747   4.215   3.207   8.533
10284SOL     OW32748  12.593   6.611   0.139
10284SOL    HW132749  12.606   6.693   0.187
10284SOL    HW232750  12.545   6.637   0.060
10285SOL     OW32751  11.754   7.607  11.471
10285SOL    HW132752  11.831   7.551  11.468
10285SOL    HW232753  11.723   7.600  11.562
10286SOL     OW32754   8.626   3.546   8.504
10286SOL    HW132755   8.637   3.534   8.598
10286SOL    HW232756   8.704   3.594   8.477
10287SOL     OW32757   3.724   4.200   2.225
10287SOL    HW132758   3.807   4.175   2.185
10287SOL    HW232759   3.719   4.295   2.215
10288SOL     OW32760   6.682  12.979   0.775
10288SOL    HW132761   6.628  13.058   0.781
10288SOL    HW232762   6.742  12.985   0.849
10289SOL     OW32763   3.026   5.651  13.891
10289SOL    HW132764   3.014   5.592  13.816
10289SOL    HW232765   2.989   5.603  13.965
10290SOL     OW32766  11.684  11.265   1.533
10290SOL    HW132767  11.595  11.272   1.498
10290SOL    HW232768  11.738  11.314   1.472
10291SOL     OW32769  11.491  12.816   8.469
10291SOL    HW132770  11.406  12.836   8.430
10291SOL    HW232771  11.504  12.723   8.452
10292SOL     OW32772   0.634   8.741   7.215
10292SOL    HW132773   0.686   8.821   7.208
10292SOL    HW232774   0.544   8.768   7.195
10293SOL     OW32775   6.701   6.276   4.328
10293SOL    HW132776   6.615   6.235   4.316
10293SOL    HW232777   6.727   6.251   4.417
10294SOL     OW32778   1.156   5.852  11.481
10294SOL    HW132779   1.251   5.850  11.468
10294SOL    HW232780   1.119   5.855  11.393
10295SOL     OW32781   3.714  11.250   1.147
10295SOL    HW132782   3.647  11.196   1.105
10295SOL    HW232783   3.787  11.190   1.163
10296SOL     OW32784   3.780   5.947   6.959
10296SOL    HW132785   3.760   5.854   6.969
10296SOL    HW232786   3.867   5.957   6.998
10297SOL     OW32787  12.497   9.518  14.416
10297SOL    HW132788  12.444   9.530  14.494
10297SOL    HW232789  12.459   9.577  14.351
10298SOL     OW32790   4.336  14.161   3.985
10298SOL    HW132791   4.295  14.198   3.907
10298SOL    HW232792   4.277  14.091   4.012
10299SOL     OW32793  10.684   9.792   0.060
10299SOL    HW132794  10.777   9.812   0.070
10299SOL    HW232795  10.654   9.771   0.149
10300SOL     OW32796  12.122  14.557   5.168
10300SOL    HW132797  12.139  14.638   5.217
10300SOL    HW232798  12.207  14.531   5.133
10301SOL     OW32799   4.019   7.698   9.355
10301SOL    HW132800   4.072   7.629   9.395
10301SOL    HW232801   4.025   7.772   9.415
10302SOL     OW32802   9.178  12.124   8.896
10302SOL    HW132803   9.180  12.076   8.813
10302SOL    HW232804   9.221  12.064   8.958
10303SOL     OW32805  11.738  13.199   9.372
10303SOL    HW132806  11.723  13.289   9.401
10303SOL    HW232807  11.650  13.163   9.361
10304SOL     OW32808   0.804   8.980   1.122
10304SOL    HW132809   0.865   9.053   1.116
10304SOL    HW232810   0.825   8.937   1.205
10305SOL     OW32811   8.737   6.926   8.083
10305SOL    HW132812   8.765   6.836   8.104
10305SOL    HW232813   8.800   6.982   8.129
10306SOL     OW32814   9.880   6.334   1.330
10306SOL    HW132815   9.785   6.326   1.343
10306SOL    HW232816   9.917   6.318   1.417
10307SOL     OW32817   2.272   2.952  14.675
10307SOL    HW132818   2.292   2.867  14.714
10307SOL    HW232819   2.314   3.016  14.732
10308SOL     OW32820   4.519  11.690   5.433
10308SOL    HW132821   4.478  11.715   5.515
10308SOL    HW232822   4.571  11.613   5.455
10309SOL     OW32823   7.329   7.346  14.635
10309SOL    HW132824   7.334   7.366  14.728
10309SOL    HW232825   7.247   7.385  14.606
10310SOL     OW32826  12.773  11.751   4.126
10310SOL    HW132827  12.722  11.829   4.150
10310SOL    HW232828  12.770  11.749   4.030
10311SOL     OW32829  14.382  12.147  10.157
10311SOL    HW132830  14.328  12.083  10.111
10311SOL    HW232831  14.341  12.231  10.138
10312SOL     OW32832  10.833   5.559   2.138
10312SOL    HW132833  10.745   5.527   2.116
10312SOL    HW232834  10.888   5.481   2.137
10313SOL     OW32835  10.113   3.400   7.538
10313SOL    HW132836  10.136   3.379   7.447
10313SOL    HW232837  10.042   3.464   7.530
10314SOL     OW32838   7.339   6.651  12.220
10314SOL    HW132839   7.390   6.581  12.179
10314SOL    HW232840   7.249   6.635  12.192
10315SOL     OW32841   1.951   5.614   9.709
10315SOL    HW132842   2.028   5.624   9.654
10315SOL    HW232843   1.985   5.613   9.798
10316SOL     OW32844   1.935   5.600  10.871
10316SOL    HW132845   1.998   5.641  10.811
10316SOL    HW232846   1.955   5.507  10.868
10317SOL     OW32847   2.265   5.121   7.446
10317SOL    HW132848   2.232   5.205   7.478
10317SOL    HW232849   2.359   5.135   7.435
10318SOL     OW32850   2.277  11.730   5.194
10318SOL    HW132851   2.267  11.795   5.124
10318SOL    HW232852   2.314  11.653   5.150
10319SOL     OW32853   9.315  14.752   8.814
10319SOL    HW132854   9.259  14.741   8.737
10319SOL    HW232855   9.257  14.784   8.883
10320SOL     OW32856  14.672   0.793  11.800
10320SOL    HW132857  14.711   0.712  11.833
10320SOL    HW232858  14.693   0.793  11.707
10321SOL     OW32859   7.706   1.337   5.912
10321SOL    HW132860   7.799   1.342   5.933
10321SOL    HW232861   7.661   1.353   5.994
10322SOL     OW32862   4.680   8.948  12.861
10322SOL    HW132863   4.596   8.978  12.895
10322SOL    HW232864   4.745   8.999  12.910
10323SOL     OW32865  12.656   1.644   8.853
10323SOL    HW132866  12.610   1.648   8.937
10323SOL    HW232867  12.632   1.559   8.817
10324SOL     OW32868   0.223  12.208   1.743
10324SOL    HW132869   0.206  12.229   1.651
10324SOL    HW232870   0.287  12.138   1.740
10325SOL     OW32871   8.773  10.658   4.878
10325SOL    HW132872   8.773  10.565   4.857
10325SOL    HW232873   8.741  10.662   4.968
10326SOL     OW32874  13.386   7.277  13.753
10326SOL    HW132875  13.477   7.276  13.785
10326SOL    HW232876  13.377   7.362  13.710
10327SOL     OW32877   6.319   7.666   6.179
10327SOL    HW132878   6.291   7.661   6.088
10327SOL    HW232879   6.389   7.731   6.179
10328SOL     OW32880   9.890   0.658  10.585
10328SOL    HW132881   9.983   0.680  10.585
10328SOL    HW232882   9.876   0.612  10.502
10329SOL     OW32883   1.562  13.779   5.394
10329SOL    HW132884   1.551  13.807   5.485
10329SOL    HW232885   1.654  13.753   5.388
10330SOL     OW32886   5.768  12.515   1.406
10330SOL    HW132887   5.859  12.519   1.375
10330SOL    HW232888   5.774  12.542   1.498
10331SOL     OW32889   5.180   4.258   7.015
10331SOL    HW132890   5.196   4.259   7.109
10331SOL    HW232891   5.109   4.195   7.003
10332SOL     OW32892  10.721   1.894   2.157
10332SOL    HW132893  10.682   1.900   2.069
10332SOL    HW232894  10.809   1.860   2.143
10333SOL     OW32895   8.488   5.311  12.200
10333SOL    HW132896   8.412   5.306  12.257
10333SOL    HW232897   8.526   5.223  12.202
10334SOL     OW32898  10.017   8.434   1.656
10334SOL    HW132899  10.101   8.422   1.612
10334SOL    HW232900   9.987   8.520   1.627
10335SOL     OW32901   8.512   0.482   6.735
10335SOL    HW132902   8.443   0.547   6.740
10335SOL    HW232903   8.505   0.445   6.647
10336SOL     OW32904   7.116  13.534  13.389
10336SOL    HW132905   7.188  13.503  13.334
10336SOL    HW232906   7.135  13.626  13.404
10337SOL     OW32907   8.661  13.199  10.918
10337SOL    HW132908   8.740  13.249  10.936
10337SOL    HW232909   8.656  13.135  10.989
10338SOL     OW32910  14.385  10.970   7.554
10338SOL    HW132911  14.467  10.924   7.575
10338SOL    HW232912  14.377  11.037   7.622
10339SOL     OW32913   7.206   8.905  13.666
10339SOL    HW132914   7.270   8.848  13.709
10339SOL    HW232915   7.234   8.908  13.574
10340SOL     OW32916  12.351   0.781  14.191
10340SOL    HW132917  12.259   0.765  14.215
10340SOL    HW232918  12.346   0.845  14.120
10341SOL     OW32919   9.971   5.740   2.301
10341SOL    HW132920  10.055   5.760   2.259
10341SOL    HW232921   9.971   5.645   2.311
10342SOL     OW32922   9.875   3.605   2.778
10342SOL    HW132923   9.825   3.685   2.794
10342SOL    HW232924   9.940   3.629   2.712
10343SOL     OW32925   4.860   7.892   9.214
10343SOL    HW132926   4.887   7.848   9.134
10343SOL    HW232927   4.941   7.918   9.256
10344SOL     OW32928   8.668   8.580  10.159
10344SOL    HW132929   8.585   8.536  10.144
10344SOL    HW232930   8.725   8.514  10.199
10345SOL     OW32931   7.407   7.745   6.315
10345SOL    HW132932   7.379   7.668   6.265
10345SOL    HW232933   7.472   7.788   6.259
10346SOL     OW32934   3.131   2.348   3.744
10346SOL    HW132935   3.100   2.366   3.656
10346SOL    HW232936   3.105   2.257   3.761
10347SOL     OW32937  11.173   2.217   4.469
10347SOL    HW132938  11.241   2.151   4.482
10347SOL    HW232939  11.197   2.260   4.387
10348SOL     OW32940   0.288  12.712   7.415
10348SOL    HW132941   0.362  12.688   7.470
10348SOL    HW232942   0.321  12.784   7.361
10349SOL     OW32943   7.971  13.232   8.146
10349SOL    HW132944   7.899  13.269   8.095
10349SOL    HW232945   8.039  13.213   8.081
10350SOL     OW32946   0.483   7.005  14.496
10350SOL    HW132947   0.571   7.001  14.532
10350SOL    HW232948   0.487   7.073  14.429
10351SOL     OW32949  12.144   7.270   3.953
10351SOL    HW132950  12.172   7.239   3.867
10351SOL    HW232951  12.109   7.357   3.937
10352SOL     OW32952   2.196   6.959   1.561
10352SOL    HW132953   2.152   6.901   1.623
10352SOL    HW232954   2.289   6.946   1.577
10353SOL     OW32955   6.994   6.865   9.665
10353SOL    HW132956   6.960   6.851   9.754
10353SOL    HW232957   6.932   6.926   9.625
10354SOL     OW32958   2.659  10.732   5.664
10354SOL    HW132959   2.687  10.809   5.614
10354SOL    HW232960   2.648  10.663   5.599
10355SOL     OW32961  10.166  10.272   3.338
10355SOL    HW132962  10.153  10.184   3.304
10355SOL    HW232963  10.210  10.258   3.422
10356SOL     OW32964  13.101  12.422  10.030
10356SOL    HW132965  13.136  12.333  10.023
10356SOL    HW232966  13.143  12.458  10.108
10357SOL     OW32967  10.566   9.526   1.466
10357SOL    HW132968  10.494   9.481   1.511
10357SOL    HW232969  10.575   9.478   1.384
10358SOL     OW32970   9.055  12.500   6.111
10358SOL    HW132971   9.095  12.469   6.030
10358SOL    HW232972   8.968  12.529   6.085
10359SOL     OW32973  11.970   3.423   9.382
10359SOL    HW132974  11.944   3.466   9.301
10359SOL    HW232975  12.053   3.380   9.360
10360SOL     OW32976   9.559   6.164   3.539
10360SOL    HW132977   9.588   6.142   3.451
10360SOL    HW232978   9.620   6.233   3.567
10361SOL     OW32979  14.604   1.970   1.247
10361SOL    HW132980  14.638   1.925   1.324
10361SOL    HW232981  14.677   1.969   1.185
10362SOL     OW32982  11.360   6.104   2.636
10362SOL    HW132983  11.452   6.078   2.636
10362SOL    HW232984  11.362   6.196   2.610
10363SOL     OW32985   4.123   0.473  12.022
10363SOL    HW132986   4.143   0.545  11.962
10363SOL    HW232987   4.032   0.451  12.003
10364SOL     OW32988   4.243   8.588  14.759
10364SOL    HW132989   4.278   8.548  14.839
10364SOL    HW232990   4.160   8.626  14.786
10365SOL     OW32991   8.250  12.091   0.775
10365SOL    HW132992   8.186  12.162   0.782
10365SOL    HW232993   8.333  12.131   0.802
10366SOL     OW32994  11.406  12.143   1.542
10366SOL    HW132995  11.407  12.095   1.459
10366SOL    HW232996  11.480  12.108   1.591
10367SOL     OW32997   0.644   5.674   0.429
10367SOL    HW132998   0.561   5.638   0.397
10367SOL    HW232999   0.638   5.670   0.524
10368SOL     OW33000   9.070   4.104   8.702
10368SOL    HW133001   9.135   4.117   8.632
10368SOL    HW233002   9.122   4.096   8.781
10369SOL     OW33003   8.865   2.913  10.743
10369SOL    HW133004   8.905   2.835  10.780
10369SOL    HW233005   8.777   2.915  10.781
10370SOL     OW33006   0.701   1.034  11.413
10370SOL    HW133007   0.647   0.963  11.450
10370SOL    HW233008   0.787   1.022  11.454
10371SOL     OW33009   7.351  14.060   7.911
10371SOL    HW133010   7.399  14.095   7.986
10371SOL    HW233011   7.334  14.137   7.856
10372SOL     OW33012   7.706  12.698   7.804
10372SOL    HW133013   7.700  12.667   7.894
10372SOL    HW233014   7.757  12.778   7.809
10373SOL     OW33015   8.400  13.410   2.015
10373SOL    HW133016   8.363  13.491   1.980
10373SOL    HW233017   8.491  13.412   1.987
10374SOL     OW33018  14.064  12.908   5.258
10374SOL    HW133019  13.984  12.881   5.213
10374SOL    HW233020  14.052  12.877   5.347
10375SOL     OW33021   1.134   5.724  13.576
10375SOL    HW133022   1.089   5.641  13.591
10375SOL    HW233023   1.186   5.737  13.656
10376SOL     OW33024   8.734   2.047  10.089
10376SOL    HW133025   8.666   2.072  10.152
10376SOL    HW233026   8.787   2.126  10.080
10377SOL     OW33027  14.879   8.175   2.832
10377SOL    HW133028  14.809   8.125   2.792
10377SOL    HW233029   0.075   8.152   2.782
10378SOL     OW33030   0.081   0.427  12.245
10378SOL    HW133031   0.087   0.499  12.308
10378SOL    HW233032   0.117   0.352  12.291
10379SOL     OW33033   5.431  14.563  13.909
10379SOL    HW133034   5.365  14.620  13.949
10379SOL    HW233035   5.446  14.495  13.974
10380SOL     OW33036  12.823   5.487   2.343
10380SOL    HW133037  12.912   5.523   2.336
10380SOL    HW233038  12.776   5.525   2.269
10381SOL     OW33039  11.598   4.512  10.636
10381SOL    HW133040  11.670   4.552  10.587
10381SOL    HW233041  11.583   4.571  10.709
10382SOL     OW33042   0.769   3.437   6.005
10382SOL    HW133043   0.864   3.451   6.012
10382SOL    HW233044   0.753   3.433   5.910
10383SOL     OW33045  10.242  11.838   0.773
10383SOL    HW133046  10.225  11.872   0.860
10383SOL    HW233047  10.250  11.915   0.717
10384SOL     OW33048   6.655  14.667  12.582
10384SOL    HW133049   6.592  14.627  12.522
10384SOL    HW233050   6.694  14.593  12.628
10385SOL     OW33051   2.656  12.756  14.764
10385SOL    HW133052   2.717  12.685  14.786
10385SOL    HW233053   2.595  12.717  14.702
10386SOL     OW33054   1.414   8.931   3.290
10386SOL    HW133055   1.328   8.892   3.309
10386SOL    HW233056   1.396   8.994   3.220
10387SOL     OW33057  13.067  13.576   7.532
10387SOL    HW133058  13.060  13.602   7.624
10387SOL    HW233059  12.979  13.550   7.507
10388SOL     OW33060  14.258  14.786   5.320
10388SOL    HW133061  14.261  14.787   5.415
10388SOL    HW233062  14.348  14.767   5.293
10389SOL     OW33063  11.797  13.607  11.882
10389SOL    HW133064  11.887  13.635  11.897
10389SOL    HW233065  11.744  13.680  11.913
10390SOL     OW33066  14.165   2.362   8.723
10390SOL    HW133067  14.091   2.314   8.760
10390SOL    HW233068  14.143   2.454   8.737
10391SOL     OW33069   2.584   3.349   8.862
10391SOL    HW133070   2.594   3.283   8.930
10391SOL    HW233071   2.492   3.376   8.869
10392SOL     OW33072   9.719  13.788   9.504
10392SOL    HW133073   9.692  13.850   9.436
10392SOL    HW233074   9.636  13.755   9.539
10393SOL     OW33075  11.447   8.919   7.285
10393SOL    HW133076  11.469   8.879   7.369
10393SOL    HW233077  11.530   8.918   7.236
10394SOL     OW33078   1.569   3.640  12.267
10394SOL    HW133079   1.651   3.593  12.287
10394SOL    HW233080   1.575   3.721  12.319
10395SOL     OW33081   5.094  11.654  10.336
10395SOL    HW133082   5.037  11.580  10.319
10395SOL    HW233083   5.094  11.664  10.431
10396SOL     OW33084   0.348  10.192   6.254
10396SOL    HW133085   0.414  10.254   6.224
10396SOL    HW233086   0.398  10.111   6.270
10397SOL     OW33087  13.411   9.969   6.539
10397SOL    HW133088  13.490   9.979   6.486
10397SOL    HW233089  13.368   9.891   6.504
10398SOL     OW33090  12.995   4.668   9.853
10398SOL    HW133091  13.086   4.664   9.882
10398SOL    HW233092  12.947   4.693   9.932
10399SOL     OW33093  11.726   2.003  11.158
10399SOL    HW133094  11.641   1.986  11.201
10399SOL    HW233095  11.703   2.044  11.075
10400SOL     OW33096  14.652   3.937   3.135
10400SOL    HW133097  14.621   3.855   3.174
10400SOL    HW233098  14.673   3.914   3.045
10401SOL     OW33099  12.610   7.348   3.444
10401SOL    HW133100  12.662   7.289   3.499
10401SOL    HW233101  12.533   7.297   3.421
10402SOL     OW33102   5.707   8.724   8.764
10402SOL    HW133103   5.709   8.640   8.719
10402SOL    HW233104   5.761   8.712   8.842
10403SOL     OW33105   2.621  10.624   7.210
10403SOL    HW133106   2.605  10.716   7.193
10403SOL    HW233107   2.713  10.611   7.187
10404SOL     OW33108  11.497   3.077   1.560
10404SOL    HW133109  11.541   3.039   1.636
10404SOL    HW233110  11.470   3.164   1.589
10405SOL     OW33111   2.914   9.946   0.089
10405SOL    HW133112   2.995   9.936   0.138
10405SOL    HW233113   2.934   9.912   0.001
10406SOL     OW33114   8.028   6.932   7.462
10406SOL    HW133115   8.071   7.016   7.481
10406SOL    HW233116   8.020   6.889   7.546
10407SOL     OW33117   9.231   7.110   8.486
10407SOL    HW133118   9.247   7.171   8.559
10407SOL    HW233119   9.241   7.024   8.525
10408SOL     OW33120   7.323   9.938  10.231
10408SOL    HW133121   7.410   9.941  10.270
10408SOL    HW233122   7.267   9.985  10.293
10409SOL     OW33123  11.910   1.139  11.652
10409SOL    HW133124  11.892   1.206  11.587
10409SOL    HW233125  11.842   1.151  11.719
10410SOL     OW33126   0.833  13.491  14.045
10410SOL    HW133127   0.808  13.561  14.106
10410SOL    HW233128   0.927  13.481  14.058
10411SOL     OW33129   4.704  13.119   9.208
10411SOL    HW133130   4.725  13.075   9.126
10411SOL    HW233131   4.661  13.200   9.181
10412SOL     OW33132   1.185   7.084  14.397
10412SOL    HW133133   1.198   6.998  14.358
10412SOL    HW233134   1.271   7.107  14.433
10413SOL     OW33135   1.912  11.862   2.182
10413SOL    HW133136   1.894  11.856   2.276
10413SOL    HW233137   1.978  11.796   2.165
10414SOL     OW33138  13.594   1.668   0.536
10414SOL    HW133139  13.683   1.689   0.507
10414SOL    HW233140  13.580   1.578   0.506
10415SOL     OW33141  10.967   7.863   3.749
10415SOL    HW133142  11.035   7.797   3.733
10415SOL    HW233143  10.938   7.890   3.662
10416SOL     OW33144   7.510  13.721  11.199
10416SOL    HW133145   7.445  13.786  11.227
10416SOL    HW233146   7.465  13.637  11.207
10417SOL     OW33147   5.871   8.910   6.751
10417SOL    HW133148   5.885   8.905   6.656
10417SOL    HW233149   5.778   8.928   6.761
10418SOL     OW33150   4.524   9.062  14.447
10418SOL    HW133151   4.598   9.056  14.386
10418SOL    HW233152   4.498   8.971  14.462
10419SOL     OW33153   4.312   7.447   2.991
10419SOL    HW133154   4.352   7.405   2.915
10419SOL    HW233155   4.290   7.536   2.960
10420SOL     OW33156   5.532  13.561   4.105
10420SOL    HW133157   5.531  13.496   4.175
10420SOL    HW233158   5.606  13.618   4.125
10421SOL     OW33159   3.601  12.948   8.451
10421SOL    HW133160   3.694  12.966   8.437
10421SOL    HW233161   3.557  12.990   8.378
10422SOL     OW33162   3.583  11.053   3.064
10422SOL    HW133163   3.540  11.049   3.149
10422SOL    HW233164   3.632  10.971   3.057
10423SOL     OW33165   0.645   4.062   1.824
10423SOL    HW133166   0.584   3.990   1.812
10423SOL    HW233167   0.722   4.022   1.864
10424SOL     OW33168  12.438   0.382  13.107
10424SOL    HW133169  12.488   0.304  13.131
10424SOL    HW233170  12.445   0.388  13.012
10425SOL     OW33171  12.261  13.552  13.021
10425SOL    HW133172  12.340  13.515  12.981
10425SOL    HW233173  12.274  13.537  13.115
10426SOL     OW33174   5.332   6.633   5.756
10426SOL    HW133175   5.373   6.695   5.695
10426SOL    HW233176   5.358   6.664   5.843
10427SOL     OW33177   2.442   1.358   2.126
10427SOL    HW133178   2.397   1.305   2.060
10427SOL    HW233179   2.433   1.448   2.094
10428SOL     OW33180  12.781   7.414   0.742
10428SOL    HW133181  12.810   7.481   0.803
10428SOL    HW233182  12.831   7.336   0.765
10429SOL     OW33183  13.068   6.032   5.669
10429SOL    HW133184  13.070   5.960   5.605
10429SOL    HW233185  12.982   6.071   5.658
10430SOL     OW33186  11.783   3.237   2.622
10430SOL    HW133187  11.823   3.207   2.704
10430SOL    HW233188  11.696   3.196   2.622
10431SOL     OW33189   1.719  10.636   7.161
10431SOL    HW133190   1.634  10.677   7.179
10431SOL    HW233191   1.700  10.542   7.160
10432SOL     OW33192   5.487  13.000   7.020
10432SOL    HW133193   5.501  13.028   6.929
10432SOL    HW233194   5.391  12.995   7.029
10433SOL     OW33195   0.959   0.239   6.793
10433SOL    HW133196   0.930   0.151   6.769
10433SOL    HW233197   1.011   0.226   6.873
10434SOL     OW33198   0.715   9.769   7.473
10434SOL    HW133199   0.675   9.800   7.392
10434SOL    HW233200   0.678   9.825   7.541
10435SOL     OW33201  13.877   4.477   1.392
10435SOL    HW133202  13.812   4.511   1.453
10435SOL    HW233203  13.869   4.533   1.314
10436SOL     OW33204  12.537  12.489  11.304
10436SOL    HW133205  12.565  12.519  11.218
10436SOL    HW233206  12.571  12.554  11.365
10437SOL     OW33207   5.049   5.215   5.566
10437SOL    HW133208   5.037   5.229   5.472
10437SOL    HW233209   4.979   5.266   5.607
10438SOL     OW33210   2.575  10.924   6.542
10438SOL    HW133211   2.492  10.913   6.589
10438SOL    HW233212   2.551  10.915   6.449
10439SOL     OW33213   7.498   8.487   9.269
10439SOL    HW133214   7.555   8.545   9.320
10439SOL    HW233215   7.410   8.512   9.295
10440SOL     OW33216   1.432  12.344   3.941
10440SOL    HW133217   1.469  12.311   4.023
10440SOL    HW233218   1.445  12.438   3.945
10441SOL     OW33219  10.701   0.702  11.224
10441SOL    HW133220  10.769   0.750  11.178
10441SOL    HW233221  10.670   0.638  11.160
10442SOL     OW33222   8.195  12.493  12.466
10442SOL    HW133223   8.260  12.423  12.473
10442SOL    HW233224   8.171  12.514  12.556
10443SOL     OW33225   2.966   8.828   1.741
10443SOL    HW133226   3.039   8.875   1.781
10443SOL    HW233227   2.938   8.765   1.808
10444SOL     OW33228   2.234   7.314   9.121
10444SOL    HW133229   2.164   7.357   9.171
10444SOL    HW233230   2.195   7.294   9.037
10445SOL     OW33231   9.545   1.754   9.221
10445SOL    HW133232   9.559   1.811   9.146
10445SOL    HW233233   9.621   1.769   9.277
10446SOL     OW33234   8.139  11.194   6.127
10446SOL    HW133235   8.125  11.218   6.219
10446SOL    HW233236   8.063  11.140   6.104
10447SOL     OW33237   9.493  12.415   5.540
10447SOL    HW133238   9.416  12.374   5.578
10447SOL    HW233239   9.480  12.509   5.554
10448SOL     OW33240   8.943   2.846  12.230
10448SOL    HW133241   8.948   2.783  12.158
10448SOL    HW233242   9.031   2.844  12.269
10449SOL     OW33243   1.701  10.512  13.240
10449SOL    HW133244   1.719  10.522  13.334
10449SOL    HW233245   1.617  10.466  13.237
10450SOL     OW33246   1.968   0.633  14.804
10450SOL    HW133247   2.006   0.547  14.822
10450SOL    HW233248   2.040   0.695  14.815
10451SOL     OW33249  14.784  11.714  13.539
10451SOL    HW133250  14.815  11.625  13.522
10451SOL    HW233251  14.689  11.705  13.545
10452SOL     OW33252  14.084   3.454   2.587
10452SOL    HW133253  14.164   3.490   2.548
10452SOL    HW233254  14.068   3.373   2.538
10453SOL     OW33255   2.992   6.414   2.208
10453SOL    HW133256   3.022   6.456   2.288
10453SOL    HW233257   3.025   6.470   2.137
10454SOL     OW33258   9.682  14.536   3.582
10454SOL    HW133259   9.775  14.543   3.560
10454SOL    HW233260   9.639  14.520   3.498
10455SOL     OW33261   7.683   6.553  10.588
10455SOL    HW133262   7.635   6.547  10.670
10455SOL    HW233263   7.696   6.647  10.575
10456SOL     OW33264   9.139  14.327   9.683
10456SOL    HW133265   9.101  14.319   9.596
10456SOL    HW233266   9.065  14.314   9.743
10457SOL     OW33267   9.125   3.495  10.981
10457SOL    HW133268   9.064   3.510  10.908
10457SOL    HW233269   9.115   3.403  11.002
10458SOL     OW33270   1.354   4.915   1.071
10458SOL    HW133271   1.365   5.010   1.066
10458SOL    HW233272   1.351   4.887   0.980
10459SOL     OW33273   9.119  10.740  10.439
10459SOL    HW133274   9.095  10.653  10.406
10459SOL    HW233275   9.177  10.722  10.512
10460SOL     OW33276   0.094   1.845   0.085
10460SOL    HW133277   0.076   1.776   0.021
10460SOL    HW233278   0.100   1.925   0.033
10461SOL     OW33279  12.929   9.669  13.210
10461SOL    HW133280  12.839   9.643  13.228
10461SOL    HW233281  12.941   9.750  13.261
10462SOL     OW33282  10.929  12.701   2.931
10462SOL    HW133283  10.959  12.791   2.926
10462SOL    HW233284  10.946  12.665   2.844
10463SOL     OW33285   4.288  13.590   1.890
10463SOL    HW133286   4.324  13.510   1.928
10463SOL    HW233287   4.196  13.590   1.917
10464SOL     OW33288  10.905   6.586  14.223
10464SOL    HW133289  10.942   6.653  14.165
10464SOL    HW233290  10.945   6.602  14.308
10465SOL     OW33291   5.505   1.256   3.316
10465SOL    HW133292   5.584   1.305   3.337
10465SOL    HW233293   5.533   1.190   3.252
10466SOL     OW33294   0.831   6.010  13.290
10466SOL    HW133295   0.841   5.941  13.224
10466SOL    HW233296   0.827   5.963  13.373
10467SOL     OW33297  13.750   9.705   8.163
10467SOL    HW133298  13.685   9.765   8.126
10467SOL    HW233299  13.783   9.656   8.088
10468SOL     OW33300  10.383  10.590  10.300
10468SOL    HW133301  10.306  10.632  10.338
10468SOL    HW233302  10.385  10.503  10.340
10469SOL     OW33303   1.472  14.316   2.315
10469SOL    HW133304   1.460  14.388   2.253
10469SOL    HW233305   1.393  14.263   2.305
10470SOL     OW33306   1.697  11.478  11.672
10470SOL    HW133307   1.737  11.486  11.759
10470SOL    HW233308   1.603  11.478  11.689
10471SOL     OW33309  11.906  12.177   4.530
10471SOL    HW133310  11.816  12.208   4.519
10471SOL    HW233311  11.931  12.143   4.444
10472SOL     OW33312   7.648   9.195  12.894
10472SOL    HW133313   7.633   9.110  12.853
10472SOL    HW233314   7.743   9.199  12.907
10473SOL     OW33315   5.831   3.230  11.271
10473SOL    HW133316   5.775   3.260  11.200
10473SOL    HW233317   5.803   3.281  11.347
10474SOL     OW33318   0.483   3.555   4.279
10474SOL    HW133319   0.474   3.645   4.247
10474SOL    HW233320   0.481   3.564   4.374
10475SOL     OW33321  13.751  10.647   5.439
10475SOL    HW133322  13.842  10.654   5.410
10475SOL    HW233323  13.738  10.725   5.492
10476SOL     OW33324  11.809  13.299  12.616
10476SOL    HW133325  11.765  13.290  12.701
10476SOL    HW233326  11.902  13.289  12.636
10477SOL     OW33327  12.181   3.519   8.582
10477SOL    HW133328  12.159   3.497   8.673
10477SOL    HW233329  12.239   3.449   8.553
10478SOL     OW33330   6.480   6.664  13.501
10478SOL    HW133331   6.547   6.729  13.480
10478SOL    HW233332   6.485   6.600  13.429
10479SOL     OW33333   8.488   7.256   7.073
10479SOL    HW133334   8.458   7.257   6.982
10479SOL    HW233335   8.409   7.235   7.124
10480SOL     OW33336   9.479   5.107  10.283
10480SOL    HW133337   9.392   5.115  10.322
10480SOL    HW233338   9.489   5.014  10.264
10481SOL     OW33339  14.350   2.935  13.297
10481SOL    HW133340  14.318   2.893  13.218
10481SOL    HW233341  14.356   3.028  13.275
10482SOL     OW33342   6.854  11.526  12.854
10482SOL    HW133343   6.830  11.479  12.774
10482SOL    HW233344   6.770  11.541  12.898
10483SOL     OW33345   8.764   6.747  11.715
10483SOL    HW133346   8.672   6.728  11.734
10483SOL    HW233347   8.808   6.733  11.799
10484SOL     OW33348   2.489   0.164   6.729
10484SOL    HW133349   2.426   0.188   6.661
10484SOL    HW233350   2.551   0.106   6.686
10485SOL     OW33351   4.162   9.233  12.739
10485SOL    HW133352   4.119   9.188  12.667
10485SOL    HW233353   4.255   9.227  12.719
10486SOL     OW33354   8.985   5.645  13.964
10486SOL    HW133355   8.927   5.608  13.897
10486SOL    HW233356   9.060   5.586  13.966
10487SOL     OW33357   2.076   1.940   7.131
10487SOL    HW133358   2.128   1.860   7.133
10487SOL    HW233359   2.136   2.007   7.099
10488SOL     OW33360   3.048   7.961  11.593
10488SOL    HW133361   3.034   7.919  11.508
10488SOL    HW233362   3.105   8.035  11.573
10489SOL     OW33363   9.710   8.331   5.657
10489SOL    HW133364   9.618   8.306   5.662
10489SOL    HW233365   9.757   8.248   5.646
10490SOL     OW33366  13.013   9.949  13.299
10490SOL    HW133367  12.930   9.986  13.269
10490SOL    HW233368  13.040  10.005  13.371
10491SOL     OW33369   5.409  14.469   7.677
10491SOL    HW133370   5.387  14.377   7.685
10491SOL    HW233371   5.330  14.516   7.705
10492SOL     OW33372   4.397  12.878  12.648
10492SOL    HW133373   4.383  12.783  12.644
10492SOL    HW233374   4.426  12.895  12.738
10493SOL     OW33375   9.281   8.111   5.988
10493SOL    HW133376   9.304   8.082   6.076
10493SOL    HW233377   9.191   8.080   5.975
10494SOL     OW33378  14.322  12.565   7.608
10494SOL    HW133379  14.240  12.607   7.583
10494SOL    HW233380  14.361  12.536   7.526
10495SOL     OW33381  11.142   2.356  13.536
10495SOL    HW133382  11.224   2.324  13.574
10495SOL    HW233383  11.157   2.353  13.442
10496SOL     OW33384  10.610   8.053   7.600
10496SOL    HW133385  10.660   8.098   7.533
10496SOL    HW233386  10.592   7.966   7.564
10497SOL     OW33387   9.608  11.340  11.644
10497SOL    HW133388   9.535  11.279  11.650
10497SOL    HW233389   9.572  11.417  11.601
10498SOL     OW33390   6.632   0.286   7.230
10498SOL    HW133391   6.684   0.219   7.187
10498SOL    HW233392   6.640   0.265   7.324
10499SOL     OW33393   8.982  14.263  10.911
10499SOL    HW133394   8.952  14.216  10.833
10499SOL    HW233395   8.997  14.353  10.882
10500SOL     OW33396   9.636  12.749  10.080
10500SOL    HW133397   9.562  12.693  10.055
10500SOL    HW233398   9.606  12.794  10.159
10501SOL     OW33399   6.502   4.629   2.520
10501SOL    HW133400   6.543   4.547   2.548
10501SOL    HW233401   6.414   4.625   2.559
10502SOL     OW33402   7.923   0.419  13.349
10502SOL    HW133403   8.003   0.418  13.402
10502SOL    HW233404   7.871   0.490  13.386
10503SOL     OW33405   9.065   9.379   3.802
10503SOL    HW133406   8.977   9.342   3.788
10503SOL    HW233407   9.113   9.309   3.846
10504SOL     OW33408   2.646   6.674   9.775
10504SOL    HW133409   2.724   6.687   9.721
10504SOL    HW233410   2.574   6.710   9.722
10505SOL     OW33411   4.994  10.185  10.415
10505SOL    HW133412   5.075  10.147  10.449
10505SOL    HW233413   4.933  10.111  10.412
10506SOL     OW33414   7.603   8.688   8.777
10506SOL    HW133415   7.538   8.654   8.715
10506SOL    HW233416   7.582   8.644   8.860
10507SOL     OW33417   2.762  10.211   3.610
10507SOL    HW133418   2.814  10.260   3.547
10507SOL    HW233419   2.678  10.196   3.565
10508SOL     OW33420   8.211   3.111   3.702
10508SOL    HW133421   8.186   3.106   3.794
10508SOL    HW233422   8.135   3.079   3.654
10509SOL     OW33423  13.806   6.117   2.534
10509SOL    HW133424  13.732   6.174   2.554
10509SOL    HW233425  13.869   6.133   2.604
10510SOL     OW33426   0.937  14.407  10.397
10510SOL    HW133427   0.858  14.442  10.355
10510SOL    HW233428   0.967  14.478  10.454
10511SOL     OW33429   6.236   5.019   7.199
10511SOL    HW133430   6.164   5.039   7.259
10511SOL    HW233431   6.302   5.086   7.217
10512SOL     OW33432  11.203   9.891   0.697
10512SOL    HW133433  11.244   9.813   0.735
10512SOL    HW233434  11.185   9.868   0.606
10513SOL     OW33435  11.931  11.735   1.988
10513SOL    HW133436  11.917  11.672   2.059
10513SOL    HW233437  11.869  11.708   1.920
10514SOL     OW33438   1.424   0.938   9.612
10514SOL    HW133439   1.483   0.866   9.636
10514SOL    HW233440   1.478   1.016   9.615
10515SOL     OW33441  12.243  14.200   9.050
10515SOL    HW133442  12.236  14.209   9.145
10515SOL    HW233443  12.188  14.124   9.029
10516SOL     OW33444   4.628   9.855   3.655
10516SOL    HW133445   4.580   9.800   3.718
10516SOL    HW233446   4.719   9.826   3.663
10517SOL     OW33447  12.660   8.008   9.601
10517SOL    HW133448  12.568   8.026   9.624
10517SOL    HW233449  12.670   7.914   9.615
10518SOL     OW33450   7.893   3.790  10.998
10518SOL    HW133451   7.863   3.723  10.936
10518SOL    HW233452   7.935   3.856  10.943
10519SOL     OW33453  13.396  14.034   7.151
10519SOL    HW133454  13.436  14.118   7.173
10519SOL    HW233455  13.469  13.979   7.122
10520SOL     OW33456   3.600  12.583  10.862
10520SOL    HW133457   3.643  12.654  10.909
10520SOL    HW233458   3.627  12.504  10.910
10521SOL     OW33459   4.850  12.714   2.798
10521SOL    HW133460   4.796  12.739   2.873
10521SOL    HW233461   4.879  12.625   2.817
10522SOL     OW33462   5.481   5.480   2.036
10522SOL    HW133463   5.538   5.404   2.025
10522SOL    HW233464   5.540   5.555   2.022
10523SOL     OW33465   7.593   7.922  12.643
10523SOL    HW133466   7.528   7.860  12.677
10523SOL    HW233467   7.605   7.897  12.552
10524SOL     OW33468   3.266   7.152  14.617
10524SOL    HW133469   3.192   7.092  14.605
10524SOL    HW233470   3.344   7.097  14.608
10525SOL     OW33471   3.543   0.900  11.839
10525SOL    HW133472   3.602   0.891  11.764
10525SOL    HW233473   3.545   0.993  11.861
10526SOL     OW33474   8.587   9.540   1.476
10526SOL    HW133475   8.508   9.486   1.473
10526SOL    HW233476   8.556   9.629   1.459
10527SOL     OW33477   8.748   9.924  14.698
10527SOL    HW133478   8.783   9.850  14.749
10527SOL    HW233479   8.665   9.891  14.664
10528SOL     OW33480   8.937  10.976   1.947
10528SOL    HW133481   8.901  11.044   2.004
10528SOL    HW233482   8.982  10.916   2.008
10529SOL     OW33483  12.836   9.072  14.008
10529SOL    HW133484  12.828   8.978  13.988
10529SOL    HW233485  12.822   9.115  13.924
10530SOL     OW33486  10.155   8.649  13.764
10530SOL    HW133487  10.171   8.672  13.856
10530SOL    HW233488  10.077   8.699  13.740
10531SOL     OW33489  12.625   5.526   0.197
10531SOL    HW133490  12.536   5.559   0.206
10531SOL    HW233491  12.656   5.514   0.286
10532SOL     OW33492   1.775   7.312  11.303
10532SOL    HW133493   1.773   7.370  11.227
10532SOL    HW233494   1.684   7.284  11.314
10533SOL     OW33495  10.766  11.930  13.410
10533SOL    HW133496  10.673  11.926  13.432
10533SOL    HW233497  10.811  11.907  13.491
10534SOL     OW33498   3.809   4.084  11.866
10534SOL    HW133499   3.836   4.175  11.852
10534SOL    HW233500   3.755   4.063  11.790
10535SOL     OW33501   4.210   1.425  11.382
10535SOL    HW133502   4.215   1.352  11.320
10535SOL    HW233503   4.118   1.427  11.409
10536SOL     OW33504   6.671  12.410   3.946
10536SOL    HW133505   6.764  12.404   3.925
10536SOL    HW233506   6.649  12.326   3.985
10537SOL     OW33507   6.484   4.059  13.420
10537SOL    HW133508   6.537   4.131  13.455
10537SOL    HW233509   6.394   4.088  13.429
10538SOL     OW33510  14.347   8.909  12.403
10538SOL    HW133511  14.330   8.834  12.460
10538SOL    HW233512  14.261   8.929  12.364
10539SOL     OW33513   2.395   3.266   6.299
10539SOL    HW133514   2.426   3.179   6.323
10539SOL    HW233515   2.322   3.282   6.359
10540SOL     OW33516  12.263  12.954   4.109
10540SOL    HW133517  12.313  12.990   4.035
10540SOL    HW233518  12.321  12.966   4.184
10541SOL     OW33519  10.144   9.905  12.806
10541SOL    HW133520  10.184   9.953  12.879
10541SOL    HW233521  10.110   9.973  12.749
10542SOL     OW33522  13.589   8.405   3.519
10542SOL    HW133523  13.530   8.422   3.446
10542SOL    HW233524  13.577   8.479   3.579
10543SOL     OW33525   1.436  11.413  10.393
10543SOL    HW133526   1.416  11.322  10.374
10543SOL    HW233527   1.380  11.463  10.333
10544SOL     OW33528   6.917   5.897   2.719
10544SOL    HW133529   6.923   5.974   2.775
10544SOL    HW233530   6.853   5.840   2.762
10545SOL     OW33531  11.006  12.650  11.664
10545SOL    HW133532  11.006  12.724  11.603
10545SOL    HW233533  11.099  12.635  11.684
10546SOL     OW33534   6.019   2.291   8.406
10546SOL    HW133535   5.974   2.339   8.475
10546SOL    HW233536   5.951   2.271   8.342
10547SOL     OW33537   1.412   7.004   0.803
10547SOL    HW133538   1.433   7.094   0.782
10547SOL    HW233539   1.326   7.008   0.845
10548SOL     OW33540  11.467  13.367   9.666
10548SOL    HW133541  11.429  13.455   9.674
10548SOL    HW233542  11.495  13.360   9.575
10549SOL     OW33543   3.712  14.837  13.833
10549SOL    HW133544   3.621  14.852  13.859
10549SOL    HW233545   3.711  14.750  13.792
10550SOL     OW33546  13.525   6.620   4.066
10550SOL    HW133547  13.522   6.536   4.113
10550SOL    HW233548  13.581   6.602   3.990
10551SOL     OW33549  10.354   7.090   6.793
10551SOL    HW133550  10.284   7.150   6.767
10551SOL    HW233551  10.410   7.084   6.715
10552SOL     OW33552   6.079  10.689   4.389
10552SOL    HW133553   6.037  10.735   4.462
10552SOL    HW233554   6.170  10.718   4.391
10553SOL     OW33555   3.294   7.956   8.760
10553SOL    HW133556   3.315   7.983   8.850
10553SOL    HW233557   3.305   8.036   8.709
10554SOL     OW33558   5.266   9.741   7.609
10554SOL    HW133559   5.322   9.672   7.572
10554SOL    HW233560   5.177   9.711   7.592
10555SOL     OW33561   3.077   3.273   5.559
10555SOL    HW133562   3.009   3.207   5.571
10555SOL    HW233563   3.099   3.269   5.466
10556SOL     OW33564   6.769   2.957  11.819
10556SOL    HW133565   6.764   2.940  11.725
10556SOL    HW233566   6.723   3.041  11.831
10557SOL     OW33567   5.807   6.881  14.015
10557SOL    HW133568   5.828   6.960  14.067
10557SOL    HW233569   5.891   6.853  13.980
10558SOL     OW33570  14.251  12.128   9.426
10558SOL    HW133571  14.185  12.194   9.445
10558SOL    HW233572  14.328  12.157   9.475
10559SOL     OW33573   0.955   5.038  11.800
10559SOL    HW133574   0.953   5.133  11.806
10559SOL    HW233575   0.919   5.008  11.884
10560SOL     OW33576   7.497  10.547   4.435
10560SOL    HW133577   7.463  10.636   4.447
10560SOL    HW233578   7.430  10.491   4.473
10561SOL     OW33579   4.029   2.159   3.421
10561SOL    HW133580   4.035   2.072   3.381
10561SOL    HW233581   4.100   2.161   3.484
10562SOL     OW33582  12.356  12.980  13.249
10562SOL    HW133583  12.345  12.889  13.221
10562SOL    HW233584  12.417  13.018  13.186
10563SOL     OW33585   0.474   1.656  13.657
10563SOL    HW133586   0.569   1.664  13.663
10563SOL    HW233587   0.454   1.678  13.566
10564SOL     OW33588   9.813  14.867  12.841
10564SOL    HW133589   9.750   0.047  12.877
10564SOL    HW233590   9.767  14.826  12.768
10565SOL     OW33591   8.432   4.396  12.114
10565SOL    HW133592   8.462   4.465  12.055
10565SOL    HW233593   8.350   4.429  12.150
10566SOL     OW33594   7.365  14.221   2.966
10566SOL    HW133595   7.358  14.138   3.012
10566SOL    HW233596   7.275  14.252   2.957
10567SOL     OW33597   1.526   1.245   4.221
10567SOL    HW133598   1.552   1.215   4.308
10567SOL    HW233599   1.588   1.205   4.161
10568SOL     OW33600  10.627  12.989   5.936
10568SOL    HW133601  10.668  12.915   5.891
10568SOL    HW233602  10.694  13.020   5.996
10569SOL     OW33603   0.874   5.015   9.472
10569SOL    HW133604   0.873   4.930   9.428
10569SOL    HW233605   0.932   5.002   9.547
10570SOL     OW33606   2.766   9.227   2.467
10570SOL    HW133607   2.824   9.303   2.473
10570SOL    HW233608   2.700   9.253   2.403
10571SOL     OW33609   3.438   0.523   4.822
10571SOL    HW133610   3.387   0.496   4.898
10571SOL    HW233611   3.526   0.536   4.855
10572SOL     OW33612   6.097   7.226  12.228
10572SOL    HW133613   6.026   7.211  12.165
10572SOL    HW233614   6.150   7.146  12.224
10573SOL     OW33615  10.192   1.776  12.574
10573SOL    HW133616  10.143   1.694  12.575
10573SOL    HW233617  10.216   1.790  12.483
10574SOL     OW33618   9.205  10.027   2.142
10574SOL    HW133619   9.238  10.116   2.126
10574SOL    HW233620   9.150  10.008   2.066
10575SOL     OW33621   4.394   6.461   6.550
10575SOL    HW133622   4.345   6.539   6.526
10575SOL    HW233623   4.411   6.415   6.468
10576SOL     OW33624   5.367   5.254  14.370
10576SOL    HW133625   5.403   5.237  14.283
10576SOL    HW233626   5.354   5.349  14.372
10577SOL     OW33627   5.164   5.495   5.190
10577SOL    HW133628   5.221   5.562   5.229
10577SOL    HW233629   5.150   5.525   5.101
10578SOL     OW33630   0.217  14.551   8.209
10578SOL    HW133631   0.310  14.569   8.224
10578SOL    HW233632   0.216  14.478   8.147
10579SOL     OW33633   8.715   2.187  13.071
10579SOL    HW133634   8.672   2.265  13.105
10579SOL    HW233635   8.788   2.171  13.132
10580SOL     OW33636   2.443  11.732   3.006
10580SOL    HW133637   2.473  11.820   3.027
10580SOL    HW233638   2.513  11.675   3.038
10581SOL     OW33639  11.492   3.062   3.880
10581SOL    HW133640  11.464   3.125   3.813
10581SOL    HW233641  11.421   3.064   3.945
10582SOL     OW33642   1.197  12.972   9.483
10582SOL    HW133643   1.150  13.030   9.543
10582SOL    HW233644   1.289  12.990   9.500
10583SOL     OW33645   6.526   9.333   1.955
10583SOL    HW133646   6.442   9.318   1.998
10583SOL    HW233647   6.503   9.368   1.869
10584SOL     OW33648  12.190   1.991   9.886
10584SOL    HW133649  12.109   2.003   9.935
10584SOL    HW233650  12.213   1.899   9.900
10585SOL     OW33651   5.561   2.316   4.825
10585SOL    HW133652   5.475   2.359   4.817
10585SOL    HW233653   5.611   2.348   4.750
10586SOL     OW33654   1.964  11.766  10.954
10586SOL    HW133655   2.058  11.781  10.940
10586SOL    HW233656   1.954  11.671  10.947
10587SOL     OW33657  13.495  11.161  11.026
10587SOL    HW133658  13.582  11.137  10.995
10587SOL    HW233659  13.478  11.247  10.986
10588SOL     OW33660   7.091   7.022   2.746
10588SOL    HW133661   7.117   7.066   2.666
10588SOL    HW233662   7.155   6.952   2.757
10589SOL     OW33663  13.206   1.184  10.495
10589SOL    HW133664  13.271   1.250  10.519
10589SOL    HW233665  13.257   1.108  10.467
10590SOL     OW33666   6.685  13.528   7.573
10590SOL    HW133667   6.633  13.486   7.641
10590SOL    HW233668   6.639  13.508   7.491
10591SOL     OW33669   8.384   0.011   8.889
10591SOL    HW133670   8.338   0.020   8.805
10591SOL    HW233671   8.369  14.803   8.916
10592SOL     OW33672   3.849   6.059  13.511
10592SOL    HW133673   3.906   5.986  13.488
10592SOL    HW233674   3.774   6.051  13.452
10593SOL     OW33675   6.220   5.388   3.807
10593SOL    HW133676   6.237   5.418   3.717
10593SOL    HW233677   6.124   5.387   3.814
10594SOL     OW33678  10.602  14.473  12.016
10594SOL    HW133679  10.629  14.561  12.041
10594SOL    HW233680  10.624  14.466  11.923
10595SOL     OW33681   3.400  13.024   4.810
10595SOL    HW133682   3.434  13.113   4.806
10595SOL    HW233683   3.453  12.981   4.877
10596SOL     OW33684  13.621   0.907   7.995
10596SOL    HW133685  13.664   0.920   7.911
10596SOL    HW233686  13.682   0.852   8.045
10597SOL     OW33687  14.668   3.735   0.104
10597SOL    HW133688  14.676   3.707   0.013
10597SOL    HW233689  14.597   3.681   0.139
10598SOL     OW33690   8.773   5.516   5.652
10598SOL    HW133691   8.774   5.451   5.721
10598SOL    HW233692   8.712   5.481   5.587
10599SOL     OW33693  13.812  13.266  11.082
10599SOL    HW133694  13.823  13.180  11.123
10599SOL    HW233695  13.881  13.270  11.016
10600SOL     OW33696  13.836  13.890  14.012
10600SOL    HW133697  13.881  13.920  13.933
10600SOL    HW233698  13.878  13.807  14.034
10601SOL     OW33699  12.931   4.003  12.459
10601SOL    HW133700  12.893   3.918  12.482
10601SOL    HW233701  12.940   4.049  12.543
10602SOL     OW33702  11.256   4.858  10.525
10602SOL    HW133703  11.173   4.858  10.574
10602SOL    HW233704  11.230   4.867  10.434
10603SOL     OW33705  14.386   1.071   3.525
10603SOL    HW133706  14.413   1.010   3.457
10603SOL    HW233707  14.293   1.087   3.507
10604SOL     OW33708   3.810   4.732   1.584
10604SOL    HW133709   3.719   4.704   1.597
10604SOL    HW233710   3.808   4.827   1.593
10605SOL     OW33711  10.623  13.860   9.433
10605SOL    HW133712  10.654  13.947   9.457
10605SOL    HW233713  10.533  13.858   9.466
10606SOL     OW33714  12.112   1.546  10.710
10606SOL    HW133715  12.089   1.634  10.682
10606SOL    HW233716  12.032   1.512  10.751
10607SOL     OW33717   3.608   7.350   4.244
10607SOL    HW133718   3.617   7.420   4.308
10607SOL    HW233719   3.690   7.302   4.249
10608SOL     OW33720  12.775   1.537  13.165
10608SOL    HW133721  12.755   1.581  13.248
10608SOL    HW233722  12.690   1.507  13.133
10609SOL     OW33723   4.989   1.265   6.896
10609SOL    HW133724   4.990   1.176   6.861
10609SOL    HW233725   5.082   1.286   6.911
10610SOL     OW33726  13.163  11.795   5.419
10610SOL    HW133727  13.192  11.705   5.433
10610SOL    HW233728  13.226  11.832   5.357
10611SOL     OW33729   2.564  11.933   9.033
10611SOL    HW133730   2.534  11.883   9.108
10611SOL    HW233731   2.575  12.023   9.066
10612SOL     OW33732   9.769   2.449   3.596
10612SOL    HW133733   9.693   2.506   3.608
10612SOL    HW233734   9.798   2.467   3.506
10613SOL     OW33735   2.513   3.675  14.455
10613SOL    HW133736   2.437   3.729  14.478
10613SOL    HW233737   2.482   3.585  14.463
10614SOL     OW33738   0.722   9.823   3.416
10614SOL    HW133739   0.721   9.805   3.322
10614SOL    HW233740   0.769   9.750   3.455
10615SOL     OW33741   7.852   4.185   6.976
10615SOL    HW133742   7.923   4.209   7.036
10615SOL    HW233743   7.775   4.175   7.031
10616SOL     OW33744   0.250  11.422   0.865
10616SOL    HW133745   0.224  11.330   0.870
10616SOL    HW233746   0.299  11.429   0.783
10617SOL     OW33747   1.755   4.272   6.535
10617SOL    HW133748   1.786   4.223   6.458
10617SOL    HW233749   1.701   4.209   6.583
10618SOL     OW33750   8.492   5.600   7.082
10618SOL    HW133751   8.439   5.608   7.162
10618SOL    HW233752   8.569   5.654   7.100
10619SOL     OW33753  11.453   5.340   3.328
10619SOL    HW133754  11.528   5.376   3.375
10619SOL    HW233755  11.484   5.325   3.239
10620SOL     OW33756  14.813  11.052   8.696
10620SOL    HW133757  14.827  11.015   8.783
10620SOL    HW233758  14.879  11.010   8.641
10621SOL     OW33759   2.093   5.423  14.724
10621SOL    HW133760   2.150   5.413  14.800
10621SOL    HW233761   2.018   5.366  14.741
10622SOL     OW33762   8.865   5.903   2.111
10622SOL    HW133763   8.800   5.858   2.057
10622SOL    HW233764   8.827   5.903   2.199
10623SOL     OW33765  12.811  11.631  12.387
10623SOL    HW133766  12.731  11.578  12.382
10623SOL    HW233767  12.815  11.659  12.478
10624SOL     OW33768   9.929  14.089  12.025
10624SOL    HW133769   9.913  14.010  11.973
10624SOL    HW233770   9.962  14.056  12.109
10625SOL     OW33771  11.364  13.374  11.830
10625SOL    HW133772  11.432  13.372  11.897
10625SOL    HW233773  11.363  13.285  11.795
10626SOL     OW33774   4.248   8.218   9.611
10626SOL    HW133775   4.253   8.193   9.703
10626SOL    HW233776   4.295   8.302   9.607
10627SOL     OW33777   9.169   3.233   3.784
10627SOL    HW133778   9.191   3.297   3.716
10627SOL    HW233779   9.118   3.166   3.738
10628SOL     OW33780   1.536   3.361  10.923
10628SOL    HW133781   1.537   3.373  11.018
10628SOL    HW233782   1.572   3.273  10.909
10629SOL     OW33783  12.329  11.868  10.593
10629SOL    HW133784  12.422  11.849  10.606
10629SOL    HW233785  12.297  11.797  10.537
10630SOL     OW33786   8.621   6.214   5.618
10630SOL    HW133787   8.588   6.164   5.694
10630SOL    HW233788   8.568   6.293   5.617
10631SOL     OW33789   4.039  12.483   7.028
10631SOL    HW133790   4.124  12.481   7.072
10631SOL    HW233791   4.060  12.481   6.935
10632SOL     OW33792   3.383   7.637   3.308
10632SOL    HW133793   3.331   7.692   3.366
10632SOL    HW233794   3.400   7.691   3.232
10633SOL     OW33795   6.479  14.005   0.168
10633SOL    HW133796   6.524  13.929   0.130
10633SOL    HW233797   6.436  13.971   0.246
10634SOL     OW33798   5.208  14.059  10.066
10634SOL    HW133799   5.185  13.967  10.051
10634SOL    HW233800   5.159  14.107  10.000
10635SOL     OW33801   4.357  10.142   6.679
10635SOL    HW133802   4.382  10.182   6.762
10635SOL    HW233803   4.440  10.125   6.634
10636SOL     OW33804  13.045  11.783   4.083
10636SOL    HW133805  12.978  11.715   4.075
10636SOL    HW233806  13.106  11.748   4.148
10637SOL     OW33807  12.354  11.893   5.743
10637SOL    HW133808  12.283  11.905   5.806
10637SOL    HW233809  12.322  11.825   5.684
10638SOL     OW33810  13.476   0.006   6.636
10638SOL    HW133811  13.567   0.005   6.606
10638SOL    HW233812  13.482   0.023   6.730
10639SOL     OW33813  10.002   4.265   7.339
10639SOL    HW133814   9.992   4.302   7.251
10639SOL    HW233815  10.093   4.233   7.341
10640SOL     OW33816   6.476   1.073   5.946
10640SOL    HW133817   6.459   1.162   5.978
10640SOL    HW233818   6.422   1.064   5.868
10641SOL     OW33819   2.753   4.568   5.804
10641SOL    HW133820   2.680   4.562   5.865
10641SOL    HW233821   2.734   4.646   5.752
10642SOL     OW33822  14.203   6.025   4.003
10642SOL    HW133823  14.235   6.035   3.914
10642SOL    HW233824  14.248   5.946   4.036
10643SOL     OW33825  13.197  10.431   1.218
10643SOL    HW133826  13.111  10.396   1.244
10643SOL    HW233827  13.208  10.400   1.128
10644SOL     OW33828   4.414   7.530   5.570
10644SOL    HW133829   4.467   7.527   5.490
10644SOL    HW233830   4.457   7.597   5.623
10645SOL     OW33831   6.641  13.110   5.454
10645SOL    HW133832   6.683  13.034   5.494
10645SOL    HW233833   6.621  13.169   5.527
10646SOL     OW33834  13.927   0.145   0.504
10646SOL    HW133835  14.021   0.134   0.492
10646SOL    HW233836  13.900   0.199   0.430
10647SOL     OW33837   5.302   0.848   1.742
10647SOL    HW133838   5.264   0.835   1.655
10647SOL    HW233839   5.386   0.891   1.725
10648SOL     OW33840   5.433   7.457  13.604
10648SOL    HW133841   5.524   7.428  13.601
10648SOL    HW233842   5.382   7.379  13.587
10649SOL     OW33843  13.033  14.525   8.971
10649SOL    HW133844  12.945  14.492   8.992
10649SOL    HW233845  13.064  14.563   9.053
10650SOL     OW33846  10.828   7.258  14.370
10650SOL    HW133847  10.825   7.351  14.351
10650SOL    HW233848  10.740   7.226  14.351
10651SOL     OW33849   9.486   7.814   3.147
10651SOL    HW133850   9.415   7.751   3.134
10651SOL    HW233851   9.442   7.893   3.179
10652SOL     OW33852   5.324   8.725   1.825
10652SOL    HW133853   5.336   8.642   1.778
10652SOL    HW233854   5.230   8.743   1.818
10653SOL     OW33855   6.018  14.719   6.504
10653SOL    HW133856   6.089  14.773   6.537
10653SOL    HW233857   5.979  14.771   6.433
10654SOL     OW33858   2.297   1.064   2.690
10654SOL    HW133859   2.390   1.054   2.711
10654SOL    HW233860   2.260   1.110   2.765
10655SOL     OW33861  10.997   3.293   6.997
10655SOL    HW133862  10.939   3.274   7.072
10655SOL    HW233863  11.025   3.207   6.966
10656SOL     OW33864  13.263   1.118  13.215
10656SOL    HW133865  13.291   1.035  13.175
10656SOL    HW233866  13.177   1.136  13.176
10657SOL     OW33867   3.673   4.490   9.153
10657SOL    HW133868   3.671   4.414   9.094
10657SOL    HW233869   3.766   4.504   9.171
10658SOL     OW33870   2.258   2.440   2.054
10658SOL    HW133871   2.299   2.491   1.984
10658SOL    HW233872   2.174   2.413   2.018
10659SOL     OW33873   9.033   5.643  10.321
10659SOL    HW133874   8.953   5.686  10.351
10659SOL    HW233875   9.046   5.675  10.232
10660SOL     OW33876  11.160   0.424  13.676
10660SOL    HW133877  11.211   0.436  13.756
10660SOL    HW233878  11.186   0.338  13.644
10661SOL     OW33879   4.137   6.773  12.531
10661SOL    HW133880   4.078   6.832  12.578
10661SOL    HW233881   4.100   6.769  12.442
10662SOL     OW33882  13.035  11.849   9.326
10662SOL    HW133883  12.944  11.824   9.340
10662SOL    HW233884  13.048  11.842   9.231
10663SOL     OW33885  10.807   6.080  10.655
10663SOL    HW133886  10.730   6.041  10.698
10663SOL    HW233887  10.771   6.147  10.597
10664SOL     OW33888  12.044   7.418   2.556
10664SOL    HW133889  12.061   7.416   2.651
10664SOL    HW233890  12.129   7.435   2.517
10665SOL     OW33891   3.541   2.285   1.094
10665SOL    HW133892   3.526   2.354   1.159
10665SOL    HW233893   3.613   2.233   1.130
10666SOL     OW33894   4.481  14.297   3.684
10666SOL    HW133895   4.514  14.208   3.671
10666SOL    HW233896   4.393  14.296   3.648
10667SOL     OW33897   5.760  12.415   6.374
10667SOL    HW133898   5.812  12.410   6.294
10667SOL    HW233899   5.677  12.455   6.347
10668SOL     OW33900  11.821   9.359  14.320
10668SOL    HW133901  11.781   9.275  14.296
10668SOL    HW233902  11.902   9.336  14.366
10669SOL     OW33903   3.385   6.008   2.949
10669SOL    HW133904   3.477   6.009   2.924
10669SOL    HW233905   3.384   6.048   3.036
10670SOL     OW33906   2.426   8.248  12.873
10670SOL    HW133907   2.372   8.327  12.870
10670SOL    HW233908   2.502   8.272  12.925
10671SOL     OW33909   1.926   3.845   0.195
10671SOL    HW133910   1.941   3.756   0.161
10671SOL    HW233911   1.836   3.866   0.168
10672SOL     OW33912  13.864   7.484   5.948
10672SOL    HW133913  13.880   7.542   6.023
10672SOL    HW233914  13.935   7.420   5.953
10673SOL     OW33915  11.387  12.233   4.940
10673SOL    HW133916  11.385  12.141   4.913
10673SOL    HW233917  11.457  12.237   5.006
10674SOL     OW33918  13.483   9.205   2.526
10674SOL    HW133919  13.524   9.288   2.553
10674SOL    HW233920  13.420   9.186   2.595
10675SOL     OW33921   1.308   2.477  14.218
10675SOL    HW133922   1.354   2.415  14.162
10675SOL    HW233923   1.279   2.426  14.293
10676SOL     OW33924   7.723   3.239   2.007
10676SOL    HW133925   7.638   3.245   1.964
10676SOL    HW233926   7.707   3.268   2.097
10677SOL     OW33927  13.483  14.493  10.521
10677SOL    HW133928  13.579  14.491  10.529
10677SOL    HW233929  13.455  14.551  10.592
10678SOL     OW33930   2.600   3.397   7.776
10678SOL    HW133931   2.685   3.442   7.775
10678SOL    HW233932   2.555   3.434   7.852
10679SOL     OW33933  12.410   5.436   1.840
10679SOL    HW133934  12.339   5.439   1.776
10679SOL    HW233935  12.457   5.518   1.828
10680SOL     OW33936   4.428   3.535   1.691
10680SOL    HW133937   4.377   3.608   1.656
10680SOL    HW233938   4.392   3.458   1.647
10681SOL     OW33939  11.563   7.867   1.075
10681SOL    HW133940  11.512   7.948   1.078
10681SOL    HW233941  11.502   7.802   1.041
10682SOL     OW33942   4.050   0.833   1.937
10682SOL    HW133943   3.971   0.796   1.977
10682SOL    HW233944   4.115   0.763   1.942
10683SOL     OW33945   0.802  12.689  10.134
10683SOL    HW133946   0.791  12.607  10.085
10683SOL    HW233947   0.868  12.669  10.200
10684SOL     OW33948  12.603  13.605   1.693
10684SOL    HW133949  12.619  13.565   1.607
10684SOL    HW233950  12.679  13.579   1.746
10685SOL     OW33951  12.442   3.602   1.400
10685SOL    HW133952  12.409   3.597   1.310
10685SOL    HW233953  12.486   3.688   1.404
10686SOL     OW33954  12.020  13.796   5.293
10686SOL    HW133955  12.084  13.724   5.296
10686SOL    HW233956  11.936  13.752   5.279
10687SOL     OW33957   8.128  12.799   9.797
10687SOL    HW133958   8.078  12.763   9.724
10687SOL    HW233959   8.071  12.865   9.835
10688SOL     OW33960   1.302   7.347  10.792
10688SOL    HW133961   1.335   7.408  10.726
10688SOL    HW233962   1.338   7.379  10.874
10689SOL     OW33963   6.912   8.314  14.557
10689SOL    HW133964   6.838   8.352  14.604
10689SOL    HW233965   6.875   8.284  14.474
10690SOL     OW33966   3.129  10.428  14.442
10690SOL    HW133967   3.067  10.429  14.369
10690SOL    HW233968   3.201  10.373  14.411
10691SOL     OW33969  14.588   0.447   3.814
10691SOL    HW133970  14.663   0.504   3.800
10691SOL    HW233971  14.602   0.375   3.753
10692SOL     OW33972   2.053  11.406  11.935
10692SOL    HW133973   2.066  11.471  11.866
10692SOL    HW233974   2.077  11.452  12.016
10693SOL     OW33975   1.094  11.085   5.397
10693SOL    HW133976   1.055  11.144   5.462
10693SOL    HW233977   1.020  11.035   5.363
10694SOL     OW33978  11.837   1.268  12.031
10694SOL    HW133979  11.768   1.276  12.097
10694SOL    HW233980  11.838   1.175  12.008
10695SOL     OW33981  13.641   0.778  14.353
10695SOL    HW133982  13.579   0.706  14.369
10695SOL    HW233983  13.724   0.734  14.333
10696SOL     OW33984   2.119   5.051   3.146
10696SOL    HW133985   2.061   5.019   3.076
10696SOL    HW233986   2.187   4.984   3.153
10697SOL     OW33987   9.974   4.108   6.980
10697SOL    HW133988  10.031   4.165   6.929
10697SOL    HW233989   9.893   4.158   6.989
10698SOL     OW33990  10.870   2.143   6.130
10698SOL    HW133991  10.813   2.211   6.166
10698SOL    HW233992  10.844   2.136   6.038
10699SOL     OW33993  12.624   7.958   0.447
10699SOL    HW133994  12.592   7.995   0.528
10699SOL    HW233995  12.546   7.933   0.398
10700SOL     OW33996  14.830  13.936   0.514
10700SOL    HW133997  14.866  13.953   0.427
10700SOL    HW233998  14.803  14.022   0.546
10701SOL     OW33999  11.970  12.885  12.242
10701SOL    HW134000  11.908  12.935  12.294
10701SOL    HW234001  11.943  12.902  12.151
10702SOL     OW34002   8.678   3.696   5.068
10702SOL    HW134003   8.700   3.664   5.155
10702SOL    HW234004   8.726   3.779   5.059
10703SOL     OW34005  13.663   7.507  11.022
10703SOL    HW134006  13.580   7.490  10.977
10703SOL    HW234007  13.688   7.421  11.057
10704SOL     OW34008   4.022   9.651   1.107
10704SOL    HW134009   4.007   9.604   1.025
10704SOL    HW234010   3.934   9.681   1.134
10705SOL     OW34011   3.818   2.224   4.528
10705SOL    HW134012   3.834   2.177   4.610
10705SOL    HW234013   3.744   2.281   4.547
10706SOL     OW34014   8.551   9.123   4.051
10706SOL    HW134015   8.555   9.175   4.131
10706SOL    HW234016   8.625   9.063   4.057
10707SOL     OW34017  10.572   7.760   8.995
10707SOL    HW134018  10.643   7.709   8.958
10707SOL    HW234019  10.518   7.697   9.042
10708SOL     OW34020   2.331   9.360   6.535
10708SOL    HW134021   2.376   9.421   6.477
10708SOL    HW234022   2.392   9.347   6.608
10709SOL     OW34023  10.169   3.432  13.530
10709SOL    HW134024  10.201   3.347  13.500
10709SOL    HW234025  10.116   3.412  13.606
10710SOL     OW34026   7.563   0.267   7.712
10710SOL    HW134027   7.601   0.269   7.624
10710SOL    HW234028   7.468   0.264   7.697
10711SOL     OW34029  12.247  12.178   9.514
10711SOL    HW134030  12.327  12.126   9.515
10711SOL    HW234031  12.271  12.257   9.466
10712SOL     OW34032  12.231   9.668   5.671
10712SOL    HW134033  12.163   9.712   5.619
10712SOL    HW234034  12.237   9.720   5.751
10713SOL     OW34035   8.830   0.117  10.972
10713SOL    HW134036   8.867   0.150  11.054
10713SOL    HW234037   8.775   0.189  10.941
10714SOL     OW34038   7.854  13.391  11.133
10714SOL    HW134039   7.938  13.367  11.095
10714SOL    HW234040   7.790  13.372  11.065
10715SOL     OW34041   7.278  10.987   6.444
10715SOL    HW134042   7.357  11.038   6.427
10715SOL    HW234043   7.282  10.967   6.537
10716SOL     OW34044   5.688  11.742   8.370
10716SOL    HW134045   5.778  11.711   8.372
10716SOL    HW234046   5.638  11.669   8.333
10717SOL     OW34047   4.145   9.268   3.227
10717SOL    HW134048   4.172   9.255   3.317
10717SOL    HW234049   4.190   9.199   3.178
10718SOL     OW34050   3.554  11.616   6.264
10718SOL    HW134051   3.492  11.682   6.231
10718SOL    HW234052   3.628  11.666   6.298
10719SOL     OW34053  11.554   9.842   7.581
10719SOL    HW134054  11.627   9.894   7.547
10719SOL    HW234055  11.494   9.906   7.618
10720SOL     OW34056   6.485   6.772   1.716
10720SOL    HW134057   6.434   6.694   1.695
10720SOL    HW234058   6.516   6.805   1.631
10721SOL     OW34059   2.851   9.222   3.391
10721SOL    HW134060   2.885   9.197   3.305
10721SOL    HW234061   2.818   9.140   3.428
10722SOL     OW34062   1.879   1.716   0.844
10722SOL    HW134063   1.896   1.627   0.814
10722SOL    HW234064   1.799   1.709   0.896
10723SOL     OW34065   1.205  12.725  14.230
10723SOL    HW134066   1.196  12.795  14.294
10723SOL    HW234067   1.276  12.671  14.264
10724SOL     OW34068   6.955   8.177  12.494
10724SOL    HW134069   6.897   8.221  12.433
10724SOL    HW234070   6.960   8.087  12.463
10725SOL     OW34071   1.292  12.419   5.226
10725SOL    HW134072   1.314  12.383   5.140
10725SOL    HW234073   1.228  12.489   5.207
10726SOL     OW34074   0.191   3.453   3.538
10726SOL    HW134075   0.103   3.421   3.515
10726SOL    HW234076   0.193   3.449   3.633
10727SOL     OW34077  13.702   1.082   1.133
10727SOL    HW134078  13.626   1.028   1.155
10727SOL    HW234079  13.772   1.050   1.190
10728SOL     OW34080  12.171  13.501  11.442
10728SOL    HW134081  12.247  13.545  11.478
10728SOL    HW234082  12.099  13.525  11.501
10729SOL     OW34083  12.049   3.502   0.042
10729SOL    HW134084  12.059   3.596   0.030
10729SOL    HW234085  11.986   3.475  14.857
10730SOL     OW34086  12.482   6.469   4.384
10730SOL    HW134087  12.413   6.476   4.449
10730SOL    HW234088  12.454   6.526   4.312
10731SOL     OW34089  13.716   0.919   4.545
10731SOL    HW134090  13.774   0.843   4.550
10731SOL    HW234091  13.731   0.955   4.458
10732SOL     OW34092   3.482   1.057   0.855
10732SOL    HW134093   3.554   1.032   0.797
10732SOL    HW234094   3.450   0.975   0.890
10733SOL     OW34095   3.863   6.173  11.971
10733SOL    HW134096   3.943   6.222  11.953
10733SOL    HW234097   3.794   6.220  11.924
10734SOL     OW34098   8.623   7.401   0.721
10734SOL    HW134099   8.703   7.450   0.703
10734SOL    HW234100   8.588   7.441   0.801
10735SOL     OW34101   9.486  11.410   4.664
10735SOL    HW134102   9.532  11.494   4.671
10735SOL    HW234103   9.557  11.345   4.658
10736SOL     OW34104   3.264   1.455  10.319
10736SOL    HW134105   3.280   1.369  10.359
10736SOL    HW234106   3.265   1.437  10.225
10737SOL     OW34107  11.730  12.095  12.241
10737SOL    HW134108  11.760  12.097  12.150
10737SOL    HW234109  11.688  12.009  12.250
10738SOL     OW34110   8.011   9.509   3.855
10738SOL    HW134111   8.031   9.600   3.878
10738SOL    HW234112   7.925   9.513   3.814
10739SOL     OW34113   5.089   3.481   5.813
10739SOL    HW134114   5.022   3.550   5.812
10739SOL    HW234115   5.127   3.486   5.901
10740SOL     OW34116   6.253   3.949   5.046
10740SOL    HW134117   6.343   3.939   5.016
10740SOL    HW234118   6.241   4.043   5.057
10741SOL     OW34119   8.480   6.821   8.180
10741SOL    HW134120   8.400   6.859   8.144
10741SOL    HW234121   8.547   6.889   8.168
10742SOL     OW34122   0.505   6.160   0.658
10742SOL    HW134123   0.435   6.181   0.596
10742SOL    HW234124   0.582   6.204   0.623
10743SOL     OW34125   7.383   0.308   2.217
10743SOL    HW134126   7.375   0.361   2.297
10743SOL    HW234127   7.309   0.248   2.222
10744SOL     OW34128   6.696  13.622   5.056
10744SOL    HW134129   6.709  13.640   4.963
10744SOL    HW234130   6.601  13.630   5.069
10745SOL     OW34131   6.385   0.810   9.912
10745SOL    HW134132   6.444   0.863   9.966
10745SOL    HW234133   6.347   0.746   9.972
10746SOL     OW34134  10.576  10.710  11.591
10746SOL    HW134135  10.534  10.667  11.666
10746SOL    HW234136  10.507  10.765  11.553
10747SOL     OW34137  12.128   2.538   4.770
10747SOL    HW134138  12.206   2.571   4.813
10747SOL    HW234139  12.072   2.615   4.759
10748SOL     OW34140   3.004   1.405  14.560
10748SOL    HW134141   3.000   1.476  14.497
10748SOL    HW234142   3.054   1.441  14.633
10749SOL     OW34143  14.604   0.221   4.554
10749SOL    HW134144  14.521   0.197   4.596
10749SOL    HW234145  14.606   0.168   4.474
10750SOL     OW34146   7.083  11.334  12.981
10750SOL    HW134147   7.017  11.395  12.950
10750SOL    HW234148   7.077  11.260  12.920
10751SOL     OW34149  12.795   8.194  12.607
10751SOL    HW134150  12.733   8.267  12.616
10751SOL    HW234151  12.777   8.156  12.521
10752SOL     OW34152   6.576   0.553  11.686
10752SOL    HW134153   6.566   0.637  11.640
10752SOL    HW234154   6.493   0.508  11.669
10753SOL     OW34155   8.875  13.604  10.992
10753SOL    HW134156   8.812  13.632  11.058
10753SOL    HW234157   8.868  13.508  10.992
10754SOL     OW34158   8.258  11.422  14.630
10754SOL    HW134159   8.279  11.360  14.560
10754SOL    HW234160   8.254  11.368  14.709
10755SOL     OW34161   9.357  12.452   6.111
10755SOL    HW134162   9.384  12.538   6.077
10755SOL    HW234163   9.385  12.453   6.203
10756SOL     OW34164   7.134  12.231   1.354
10756SOL    HW134165   7.213  12.177   1.343
10756SOL    HW234166   7.062  12.169   1.345
10757SOL     OW34167   9.975  11.262   1.836
10757SOL    HW134168  10.000  11.170   1.841
10757SOL    HW234169   9.880  11.262   1.839
10758SOL     OW34170   2.548  13.742   0.431
10758SOL    HW134171   2.525  13.799   0.504
10758SOL    HW234172   2.630  13.700   0.458
10759SOL     OW34173  13.240   9.515   9.432
10759SOL    HW134174  13.325   9.559   9.439
10759SOL    HW234175  13.180   9.583   9.402
10760SOL     OW34176   7.753  11.512  10.210
10760SOL    HW134177   7.836  11.547  10.177
10760SOL    HW234178   7.746  11.425  10.170
10761SOL     OW34179  11.853  10.369   5.425
10761SOL    HW134180  11.861  10.440   5.489
10761SOL    HW234181  11.847  10.414   5.341
10762SOL     OW34182   1.856  11.431   5.577
10762SOL    HW134183   1.900  11.515   5.587
10762SOL    HW234184   1.763  11.451   5.590
10763SOL     OW34185   3.911   8.157   0.783
10763SOL    HW134186   3.908   8.190   0.872
10763SOL    HW234187   3.901   8.062   0.792
10764SOL     OW34188  10.329   4.692   3.579
10764SOL    HW134189  10.341   4.609   3.625
10764SOL    HW234190  10.409   4.741   3.598
10765SOL     OW34191   0.720  11.868   4.961
10765SOL    HW134192   0.793  11.809   4.942
10765SOL    HW234193   0.738  11.900   5.050
10766SOL     OW34194  12.193   2.206   7.525
10766SOL    HW134195  12.278   2.170   7.549
10766SOL    HW234196  12.148   2.220   7.609
10767SOL     OW34197   5.135   4.585   8.288
10767SOL    HW134198   5.199   4.582   8.360
10767SOL    HW234199   5.175   4.533   8.219
10768SOL     OW34200   8.146  14.681  14.681
10768SOL    HW134201   8.190  14.751  14.730
10768SOL    HW234202   8.211  14.653  14.616
10769SOL     OW34203  11.181  13.614  10.586
10769SOL    HW134204  11.188  13.540  10.525
10769SOL    HW234205  11.095  13.603  10.627
10770SOL     OW34206   7.561  12.446   3.996
10770SOL    HW134207   7.501  12.375   3.976
10770SOL    HW234208   7.641  12.424   3.948
10771SOL     OW34209   2.281  10.611  12.639
10771SOL    HW134210   2.355  10.583  12.692
10771SOL    HW234211   2.230  10.530  12.626
10772SOL     OW34212   5.321   0.834   8.151
10772SOL    HW134213   5.314   0.891   8.228
10772SOL    HW234214   5.412   0.805   8.150
10773SOL     OW34215   2.370   0.776   3.915
10773SOL    HW134216   2.384   0.682   3.900
10773SOL    HW234217   2.380   0.815   3.828
10774SOL     OW34218   2.051  13.091  12.598
10774SOL    HW134219   2.027  13.172  12.642
10774SOL    HW234220   2.141  13.074  12.625
10775SOL     OW34221  12.451  14.229  10.617
10775SOL    HW134222  12.541  14.197  10.611
10775SOL    HW234223  12.403  14.178  10.552
10776SOL     OW34224   8.831   9.266   8.221
10776SOL    HW134225   8.749   9.227   8.251
10776SOL    HW234226   8.828   9.260   8.126
10777SOL     OW34227  12.192   6.280   5.698
10777SOL    HW134228  12.101   6.269   5.668
10777SOL    HW234229  12.224   6.356   5.650
10778SOL     OW34230   5.251   7.320  14.506
10778SOL    HW134231   5.241   7.310  14.601
10778SOL    HW234232   5.338   7.358  14.495
10779SOL     OW34233   1.731   3.387   5.029
10779SOL    HW134234   1.764   3.475   5.012
10779SOL    HW234235   1.636   3.396   5.023
10780SOL     OW34236  12.892   7.527   8.406
10780SOL    HW134237  12.987   7.516   8.415
10780SOL    HW234238  12.879   7.540   8.312
10781SOL     OW34239   5.868   3.490   2.662
10781SOL    HW134240   5.873   3.520   2.571
10781SOL    HW234241   5.797   3.425   2.662
10782SOL     OW34242  13.038   4.139   4.925
10782SOL    HW134243  13.044   4.047   4.950
10782SOL    HW234244  13.124   4.176   4.944
10783SOL     OW34245  10.383   7.894   2.480
10783SOL    HW134246  10.393   7.866   2.572
10783SOL    HW234247  10.437   7.973   2.474
10784SOL     OW34248   7.104  14.524  11.036
10784SOL    HW134249   7.121  14.430  11.050
10784SOL    HW234250   7.073  14.555  11.121
10785SOL     OW34251   1.090   4.339  12.847
10785SOL    HW134252   1.031   4.279  12.801
10785SOL    HW234253   1.178   4.312  12.821
10786SOL     OW34254   6.693   2.373  13.601
10786SOL    HW134255   6.699   2.297  13.541
10786SOL    HW234256   6.778   2.417  13.592
10787SOL     OW34257   2.159  13.167   6.245
10787SOL    HW134258   2.233  13.176   6.305
10787SOL    HW234259   2.094  13.229   6.278
10788SOL     OW34260   4.387   9.714   7.287
10788SOL    HW134261   4.304   9.745   7.323
10788SOL    HW234262   4.414   9.643   7.346
10789SOL     OW34263   6.497   3.725   5.936
10789SOL    HW134264   6.516   3.701   5.846
10789SOL    HW234265   6.444   3.653   5.970
10790SOL     OW34266   7.179  14.074  11.610
10790SOL    HW134267   7.210  14.140  11.672
10790SOL    HW234268   7.256  14.021  11.590
10791SOL     OW34269  11.552   8.018   8.230
10791SOL    HW134270  11.563   7.933   8.189
10791SOL    HW234271  11.588   8.080   8.167
10792SOL     OW34272  12.429   2.542  14.056
10792SOL    HW134273  12.362   2.525  14.121
10792SOL    HW234274  12.488   2.605  14.098
10793SOL     OW34275  10.376  11.356   9.362
10793SOL    HW134276  10.394  11.414   9.288
10793SOL    HW234277  10.281  11.356   9.371
10794SOL     OW34278  13.815   2.212  14.548
10794SOL    HW134279  13.754   2.138  14.550
10794SOL    HW234280  13.817   2.240  14.457
10795SOL     OW34281  13.998   5.590   4.404
10795SOL    HW134282  14.027   5.681   4.408
10795SOL    HW234283  13.909   5.592   4.441
10796SOL     OW34284   8.258   3.262  10.615
10796SOL    HW134285   8.243   3.249  10.709
10796SOL    HW234286   8.177   3.301  10.583
10797SOL     OW34287   3.930  13.919   9.597
10797SOL    HW134288   3.873  13.842   9.605
10797SOL    HW234289   4.017  13.885   9.614
10798SOL     OW34290   9.400   1.503   4.918
10798SOL    HW134291   9.344   1.566   4.963
10798SOL    HW234292   9.418   1.435   4.983
10799SOL     OW34293   3.870   3.663   0.097
10799SOL    HW134294   3.881   3.758   0.106
10799SOL    HW234295   3.952   3.626   0.131
10800SOL     OW34296  11.994   8.254   5.763
10800SOL    HW134297  12.039   8.177   5.728
10800SOL    HW234298  11.901   8.230   5.761
10801SOL     OW34299  12.067   6.007  11.760
10801SOL    HW134300  12.041   5.985  11.671
10801SOL    HW234301  12.050   6.101  11.767
10802SOL     OW34302   3.567   2.422  14.529
10802SOL    HW134303   3.599   2.333  14.539
10802SOL    HW234304   3.508   2.435  14.603
10803SOL     OW34305   1.836   1.635  13.680
10803SOL    HW134306   1.905   1.680  13.631
10803SOL    HW234307   1.761   1.695  13.676
10804SOL     OW34308   4.775   6.918   5.288
10804SOL    HW134309   4.792   6.833   5.329
10804SOL    HW234310   4.861   6.960   5.284
10805SOL     OW34311  12.291   8.112   6.988
10805SOL    HW134312  12.285   8.106   6.892
10805SOL    HW234313  12.370   8.063   7.010
10806SOL     OW34314   1.875   2.222   3.481
10806SOL    HW134315   1.883   2.273   3.562
10806SOL    HW234316   1.917   2.138   3.502
10807SOL     OW34317   7.354  10.602   1.966
10807SOL    HW134318   7.376  10.539   2.035
10807SOL    HW234319   7.340  10.684   2.013
10808SOL     OW34320  10.977   2.272   1.673
10808SOL    HW134321  11.070   2.291   1.664
10808SOL    HW234322  10.953   2.230   1.590
10809SOL     OW34323   5.717  14.660   2.767
10809SOL    HW134324   5.758  14.693   2.847
10809SOL    HW234325   5.655  14.728   2.742
10810SOL     OW34326  10.933   4.506  13.298
10810SOL    HW134327  10.865   4.449  13.262
10810SOL    HW234328  10.912   4.513  13.391
10811SOL     OW34329   5.738   0.222   6.584
10811SOL    HW134330   5.651   0.211   6.622
10811SOL    HW234331   5.727   0.291   6.519
10812SOL     OW34332  10.188  14.355   0.328
10812SOL    HW134333  10.231  14.351   0.414
10812SOL    HW234334  10.105  14.309   0.340
10813SOL     OW34335   1.318  14.578   8.216
10813SOL    HW134336   1.328  14.531   8.300
10813SOL    HW234337   1.253  14.646   8.235
10814SOL     OW34338   7.134   4.188   7.957
10814SOL    HW134339   7.220   4.203   7.917
10814SOL    HW234340   7.111   4.272   7.996
10815SOL     OW34341   1.610  13.973  12.423
10815SOL    HW134342   1.681  13.954  12.362
10815SOL    HW234343   1.531  13.963  12.371
10816SOL     OW34344  10.605  12.281   7.420
10816SOL    HW134345  10.602  12.235   7.335
10816SOL    HW234346  10.558  12.224   7.480
10817SOL     OW34347  14.502   4.446   0.291
10817SOL    HW134348  14.415   4.408   0.281
10817SOL    HW234349  14.557   4.374   0.322
10818SOL     OW34350   5.518   0.514  11.959
10818SOL    HW134351   5.515   0.481  11.869
10818SOL    HW234352   5.449   0.581  11.962
10819SOL     OW34353   9.536  13.791  13.542
10819SOL    HW134354   9.588  13.718  13.507
10819SOL    HW234355   9.448  13.754  13.553
10820SOL     OW34356   0.216   6.411   5.505
10820SOL    HW134357   0.185   6.326   5.536
10820SOL    HW234358   0.162   6.474   5.554
10821SOL     OW34359   1.920  11.984   7.780
10821SOL    HW134360   1.944  11.902   7.736
10821SOL    HW234361   2.004  12.018   7.812
10822SOL     OW34362  10.580  11.923   0.187
10822SOL    HW134363  10.604  11.941   0.278
10822SOL    HW234364  10.643  11.857   0.158
10823SOL     OW34365   5.030   8.792   9.252
10823SOL    HW134366   5.088   8.725   9.289
10823SOL    HW234367   4.972   8.816   9.324
10824SOL     OW34368   2.680   4.917   3.673
10824SOL    HW134369   2.713   4.964   3.597
10824SOL    HW234370   2.700   4.975   3.747
10825SOL     OW34371   6.221   9.553   5.111
10825SOL    HW134372   6.169   9.479   5.078
10825SOL    HW234373   6.292   9.512   5.159
10826SOL     OW34374   4.244  13.041  12.517
10826SOL    HW134375   4.247  13.114  12.579
10826SOL    HW234376   4.294  12.971  12.559
10827SOL     OW34377   5.062  12.614   3.381
10827SOL    HW134378   5.148  12.597   3.344
10827SOL    HW234379   5.018  12.529   3.381
10828SOL     OW34380  11.575  12.993   4.221
10828SOL    HW134381  11.558  13.087   4.218
10828SOL    HW234382  11.624  12.981   4.303
10829SOL     OW34383   0.024   3.045   1.496
10829SOL    HW134384  14.813   3.064   1.485
10829SOL    HW234385   0.041   2.974   1.435
10830SOL     OW34386   5.211   0.426  13.017
10830SOL    HW134387   5.142   0.426  12.951
10830SOL    HW234388   5.252   0.512  13.010
10831SOL     OW34389   1.653   3.610  10.637
10831SOL    HW134390   1.585   3.638  10.575
10831SOL    HW234391   1.611   3.613  10.723
10832SOL     OW34392   1.518   4.396  12.642
10832SOL    HW134393   1.606   4.432  12.630
10832SOL    HW234394   1.517   4.364  12.732
10833SOL     OW34395  12.273   7.713   3.662
10833SOL    HW134396  12.324   7.638   3.692
10833SOL    HW234397  12.318   7.789   3.698
10834SOL     OW34398   6.954   4.324  12.946
10834SOL    HW134399   6.890   4.388  12.976
10834SOL    HW234400   7.033   4.344  12.996
10835SOL     OW34401  12.380   1.474   0.847
10835SOL    HW134402  12.296   1.456   0.888
10835SOL    HW234403  12.398   1.566   0.869
10836SOL     OW34404   2.300   3.154  12.624
10836SOL    HW134405   2.293   3.077  12.568
10836SOL    HW234406   2.277   3.122  12.711
10837SOL     OW34407  10.669   8.636   8.791
10837SOL    HW134408  10.623   8.573   8.847
10837SOL    HW234409  10.625   8.719   8.809
10838SOL     OW34410   6.798  12.712  11.241
10838SOL    HW134411   6.772  12.802  11.262
10838SOL    HW234412   6.828  12.717  11.150
10839SOL     OW34413   8.852   0.983  12.327
10839SOL    HW134414   8.881   0.894  12.345
10839SOL    HW234415   8.932   1.035  12.326
10840SOL     OW34416   7.685   2.705   2.359
10840SOL    HW134417   7.603   2.656   2.367
10840SOL    HW234418   7.749   2.653   2.409
10841SOL     OW34419   0.378   3.805   8.878
10841SOL    HW134420   0.419   3.853   8.950
10841SOL    HW234421   0.310   3.753   8.920
10842SOL     OW34422  10.903   2.937   8.359
10842SOL    HW134423  10.836   2.939   8.289
10842SOL    HW234424  10.923   3.029   8.375
10843SOL     OW34425  11.656   2.953  13.753
10843SOL    HW134426  11.727   2.961  13.817
10843SOL    HW234427  11.700   2.959  13.668
10844SOL     OW34428  12.474  12.974   9.624
10844SOL    HW134429  12.508  12.913   9.689
10844SOL    HW234430  12.415  13.031   9.673
10845SOL     OW34431  14.325   5.156   8.307
10845SOL    HW134432  14.365   5.156   8.220
10845SOL    HW234433  14.370   5.225   8.355
10846SOL     OW34434  11.752   1.756  13.963
10846SOL    HW134435  11.770   1.824  14.028
10846SOL    HW234436  11.725   1.680  14.015
10847SOL     OW34437   6.604   9.292  11.135
10847SOL    HW134438   6.596   9.347  11.057
10847SOL    HW234439   6.699   9.288  11.151
10848SOL     OW34440   0.582  12.135   6.218
10848SOL    HW134441   0.624  12.193   6.154
10848SOL    HW234442   0.499  12.110   6.177
10849SOL     OW34443   1.993  11.825  11.580
10849SOL    HW134444   1.986  11.920  11.567
10849SOL    HW234445   1.937  11.788  11.511
10850SOL     OW34446  13.061   2.173  13.198
10850SOL    HW134447  13.031   2.153  13.287
10850SOL    HW234448  13.154   2.147  13.199
10851SOL     OW34449   7.025   4.872   5.093
10851SOL    HW134450   6.987   4.948   5.137
10851SOL    HW234451   7.035   4.806   5.161
10852SOL     OW34452  13.057   3.212  13.561
10852SOL    HW134453  13.007   3.231  13.482
10852SOL    HW234454  13.130   3.158  13.532
10853SOL     OW34455  13.765   2.339   4.540
10853SOL    HW134456  13.713   2.349   4.620
10853SOL    HW234457  13.825   2.267   4.559
10854SOL     OW34458   4.946   8.043   4.996
10854SOL    HW134459   4.865   8.038   4.946
10854SOL    HW234460   5.000   8.105   4.946
10855SOL     OW34461   2.797   1.862  11.757
10855SOL    HW134462   2.740   1.933  11.728
10855SOL    HW234463   2.740   1.803  11.807
10856SOL     OW34464   5.183  11.378   6.916
10856SOL    HW134465   5.239  11.312   6.955
10856SOL    HW234466   5.244  11.439   6.873
10857SOL     OW34467  10.422   7.042   8.896
10857SOL    HW134468  10.350   6.991   8.930
10857SOL    HW234469  10.495   6.981   8.890
10858SOL     OW34470  11.103   7.799   2.110
10858SOL    HW134471  11.159   7.827   2.183
10858SOL    HW234472  11.090   7.705   2.124
10859SOL     OW34473   0.778  10.461   2.702
10859SOL    HW134474   0.785  10.369   2.677
10859SOL    HW234475   0.837  10.507   2.642
10860SOL     OW34476  13.415   6.098   1.247
10860SOL    HW134477  13.363   6.167   1.286
10860SOL    HW234478  13.363   6.065   1.174
10861SOL     OW34479   6.310  10.260   3.007
10861SOL    HW134480   6.397  10.238   2.975
10861SOL    HW234481   6.252  10.193   2.971
10862SOL     OW34482   8.446   6.725  14.471
10862SOL    HW134483   8.515   6.718  14.405
10862SOL    HW234484   8.375   6.770  14.426
10863SOL     OW34485   5.359  11.097  12.530
10863SOL    HW134486   5.278  11.133  12.567
10863SOL    HW234487   5.429  11.150  12.569
10864SOL     OW34488  10.700  11.422   1.803
10864SOL    HW134489  10.694  11.482   1.729
10864SOL    HW234490  10.772  11.458   1.856
10865SOL     OW34491   3.365   0.271   7.269
10865SOL    HW134492   3.436   0.285   7.206
10865SOL    HW234493   3.377   0.181   7.299
10866SOL     OW34494  10.608  13.336   4.907
10866SOL    HW134495  10.538  13.272   4.912
10866SOL    HW234496  10.687  13.286   4.929
10867SOL     OW34497   1.406   2.385  11.044
10867SOL    HW134498   1.454   2.336  10.977
10867SOL    HW234499   1.327   2.333  11.060
10868SOL     OW34500   9.575   1.676  12.158
10868SOL    HW134501   9.576   1.769  12.179
10868SOL    HW234502   9.560   1.673  12.063
10869SOL     OW34503   6.344   3.744   3.057
10869SOL    HW134504   6.329   3.801   2.982
10869SOL    HW234505   6.261   3.699   3.070
10870SOL     OW34506   9.869  13.039   9.989
10870SOL    HW134507   9.954  13.046  10.031
10870SOL    HW234508   9.877  13.092   9.910
10871SOL     OW34509   5.683  11.686   3.792
10871SOL    HW134510   5.620  11.676   3.864
10871SOL    HW234511   5.741  11.756   3.821
10872SOL     OW34512   7.503   8.491  13.946
10872SOL    HW134513   7.589   8.504  13.905
10872SOL    HW234514   7.497   8.560  14.012
10873SOL     OW34515   5.632   1.786  12.891
10873SOL    HW134516   5.709   1.791  12.835
10873SOL    HW234517   5.568   1.844  12.850
10874SOL     OW34518   1.547   0.517   1.609
10874SOL    HW134519   1.483   0.487   1.545
10874SOL    HW234520   1.572   0.438   1.657
10875SOL     OW34521   3.411   7.894   4.884
10875SOL    HW134522   3.499   7.866   4.857
10875SOL    HW234523   3.419   7.989   4.895
10876SOL     OW34524   5.702   1.543   3.199
10876SOL    HW134525   5.679   1.585   3.116
10876SOL    HW234526   5.623   1.551   3.253
10877SOL     OW34527   5.769  10.201   6.651
10877SOL    HW134528   5.797  10.124   6.699
10877SOL    HW234529   5.812  10.194   6.566
10878SOL     OW34530   9.256   1.034  14.041
10878SOL    HW134531   9.344   1.061  14.014
10878SOL    HW234532   9.271   0.962  14.101
10879SOL     OW34533  12.376  13.170  12.405
10879SOL    HW134534  12.325  13.105  12.357
10879SOL    HW234535  12.353  13.254  12.365
10880SOL     OW34536  10.533   0.104  11.196
10880SOL    HW134537  10.452   0.057  11.176
10880SOL    HW234538  10.524   0.187  11.150
10881SOL     OW34539   3.492   3.240  10.880
10881SOL    HW134540   3.435   3.314  10.902
10881SOL    HW234541   3.432   3.174  10.845
10882SOL     OW34542   2.034   1.896   8.601
10882SOL    HW134543   1.996   1.894   8.513
10882SOL    HW234544   1.993   1.972   8.642
10883SOL     OW34545  10.492   7.646  11.115
10883SOL    HW134546  10.502   7.551  11.121
10883SOL    HW234547  10.438   7.670  11.190
10884SOL     OW34548   8.382   5.833   7.885
10884SOL    HW134549   8.373   5.913   7.832
10884SOL    HW234550   8.471   5.837   7.918
10885SOL     OW34551   9.273  10.231  11.701
10885SOL    HW134552   9.214  10.184  11.642
10885SOL    HW234553   9.270  10.181  11.783
10886SOL     OW34554   3.900  14.305   8.026
10886SOL    HW134555   3.932  14.353   8.102
10886SOL    HW234556   3.967  14.319   7.959
10887SOL     OW34557  11.034   1.460   4.545
10887SOL    HW134558  11.014   1.486   4.456
10887SOL    HW234559  11.122   1.495   4.561
10888SOL     OW34560   3.689   2.481   1.704
10888SOL    HW134561   3.611   2.506   1.655
10888SOL    HW234562   3.745   2.558   1.702
10889SOL     OW34563   8.634   0.013  10.409
10889SOL    HW134564   8.629   0.097  10.454
10889SOL    HW234565   8.712  14.853  10.445
10890SOL     OW34566   7.118  12.523   1.374
10890SOL    HW134567   7.111  12.429   1.386
10890SOL    HW234568   7.078  12.540   1.289
10891SOL     OW34569  14.162  11.090   4.575
10891SOL    HW134570  14.125  11.164   4.528
10891SOL    HW234571  14.250  11.080   4.539
10892SOL     OW34572  13.008   5.319   3.545
10892SOL    HW134573  12.958   5.302   3.626
10892SOL    HW234574  12.953   5.378   3.495
10893SOL     OW34575  13.489   6.620   2.255
10893SOL    HW134576  13.479   6.546   2.315
10893SOL    HW234577  13.462   6.696   2.307
10894SOL     OW34578   0.836   0.725   9.902
10894SOL    HW134579   0.777   0.794   9.933
10894SOL    HW234580   0.857   0.750   9.812
10895SOL     OW34581   1.795   2.249   8.069
10895SOL    HW134582   1.765   2.285   8.152
10895SOL    HW234583   1.766   2.158   8.070
10896SOL     OW34584   0.253   7.617  14.342
10896SOL    HW134585   0.316   7.580  14.281
10896SOL    HW234586   0.253   7.556  14.416
10897SOL     OW34587   0.768   8.266   6.926
10897SOL    HW134588   0.728   8.347   6.956
10897SOL    HW234589   0.780   8.214   7.006
10898SOL     OW34590   2.813   0.456  10.223
10898SOL    HW134591   2.813   0.475  10.129
10898SOL    HW234592   2.876   0.516  10.261
10899SOL     OW34593  14.465  14.316  11.407
10899SOL    HW134594  14.537  14.275  11.456
10899SOL    HW234595  14.449  14.398  11.454
10900SOL     OW34596   3.779   1.872  13.941
10900SOL    HW134597   3.801   1.798  13.885
10900SOL    HW234598   3.863   1.911  13.965
10901SOL     OW34599  13.055   9.701  14.852
10901SOL    HW134600  13.101   9.618  14.838
10901SOL    HW234601  13.031   9.699   0.062
10902SOL     OW34602   8.092  13.006   1.714
10902SOL    HW134603   8.107  13.032   1.623
10902SOL    HW234604   8.016  12.948   1.710
10903SOL     OW34605  13.967   2.354   1.830
10903SOL    HW134606  14.020   2.418   1.781
10903SOL    HW234607  13.957   2.280   1.769
10904SOL     OW34608   7.877  14.655  14.297
10904SOL    HW134609   7.835  14.741  14.302
10904SOL    HW234610   7.964  14.674  14.262
10905SOL     OW34611  11.919   5.860  10.699
10905SOL    HW134612  11.854   5.910  10.749
10905SOL    HW234613  12.003   5.892  10.732
10906SOL     OW34614   9.558  14.799   9.808
10906SOL    HW134615   9.579  14.775   9.898
10906SOL    HW234616   9.631  14.854   9.780
10907SOL     OW34617  12.808   4.641   5.440
10907SOL    HW134618  12.777   4.596   5.519
10907SOL    HW234619  12.903   4.635   5.445
10908SOL     OW34620   8.702   0.757   1.132
10908SOL    HW134621   8.759   0.780   1.206
10908SOL    HW234622   8.633   0.823   1.133
10909SOL     OW34623   9.354   7.905   4.530
10909SOL    HW134624   9.383   7.934   4.444
10909SOL    HW234625   9.409   7.954   4.592
10910SOL     OW34626  13.617  13.995   6.561
10910SOL    HW134627  13.671  13.953   6.494
10910SOL    HW234628  13.560  14.054   6.511
10911SOL     OW34629   4.503  14.493   1.412
10911SOL    HW134630   4.486  14.400   1.423
10911SOL    HW234631   4.449  14.519   1.337
10912SOL     OW34632  14.448  11.111   5.506
10912SOL    HW134633  14.527  11.083   5.460
10912SOL    HW234634  14.471  11.105   5.598
10913SOL     OW34635  11.791   1.920   3.751
10913SOL    HW134636  11.851   1.974   3.803
10913SOL    HW234637  11.749   1.982   3.691
10914SOL     OW34638   7.997  10.819   1.600
10914SOL    HW134639   8.076  10.774   1.570
10914SOL    HW234640   8.029  10.903   1.633
10915SOL     OW34641   1.116  12.655   2.175
10915SOL    HW134642   1.071  12.585   2.127
10915SOL    HW234643   1.098  12.636   2.267
10916SOL     OW34644   5.120  11.891  12.015
10916SOL    HW134645   5.054  11.932  11.959
10916SOL    HW234646   5.158  11.822  11.962
10917SOL     OW34647   7.102  13.646   0.642
10917SOL    HW134648   7.080  13.555   0.664
10917SOL    HW234649   7.019  13.693   0.649
10918SOL     OW34650   2.566   4.325   0.100
10918SOL    HW134651   2.479   4.303   0.134
10918SOL    HW234652   2.626   4.304   0.172
10919SOL     OW34653   0.700  12.141   8.628
10919SOL    HW134654   0.721  12.052   8.601
10919SOL    HW234655   0.752  12.197   8.570
10920SOL     OW34656  12.888  13.215  10.267
10920SOL    HW134657  12.950  13.286  10.252
10920SOL    HW234658  12.939  13.145  10.308
10921SOL     OW34659   7.967   8.640   0.921
10921SOL    HW134660   7.915   8.682   0.853
10921SOL    HW234661   8.034   8.704   0.944
10922SOL     OW34662   3.692  10.488  11.444
10922SOL    HW134663   3.781  10.518  11.427
10922SOL    HW234664   3.703  10.418  11.509
10923SOL     OW34665  14.010  12.970   1.667
10923SOL    HW134666  14.098  12.988   1.700
10923SOL    HW234667  13.953  13.023   1.723
10924SOL     OW34668   9.750   0.132   3.877
10924SOL    HW134669   9.738   0.040   3.853
10924SOL    HW234670   9.844   0.146   3.866
10925SOL     OW34671   8.419   7.721  11.171
10925SOL    HW134672   8.429   7.808  11.132
10925SOL    HW234673   8.334   7.690  11.140
10926SOL     OW34674   1.811  11.177   0.263
10926SOL    HW134675   1.771  11.242   0.206
10926SOL    HW234676   1.807  11.095   0.212
10927SOL     OW34677   3.442  10.927  11.573
10927SOL    HW134678   3.366  10.870  11.575
10927SOL    HW234679   3.439  10.970  11.487
10928SOL     OW34680  14.216   9.572   4.372
10928SOL    HW134681  14.209   9.493   4.425
10928SOL    HW234682  14.127   9.607   4.369
10929SOL     OW34683  10.521   1.192  10.696
10929SOL    HW134684  10.486   1.264  10.748
10929SOL    HW234685  10.566   1.136  10.759
10930SOL     OW34686   8.474   9.182   2.714
10930SOL    HW134687   8.439   9.103   2.755
10930SOL    HW234688   8.469   9.249   2.782
10931SOL     OW34689   7.068   4.672   7.669
10931SOL    HW134690   7.151   4.700   7.631
10931SOL    HW234691   7.068   4.577   7.661
10932SOL     OW34692  14.250   8.620   4.412
10932SOL    HW134693  14.329   8.566   4.411
10932SOL    HW234694  14.239   8.649   4.321
10933SOL     OW34695   3.790   3.033   0.192
10933SOL    HW134696   3.799   2.959   0.132
10933SOL    HW234697   3.773   2.992   0.277
10934SOL     OW34698   4.376   9.693   9.655
10934SOL    HW134699   4.301   9.752   9.646
10934SOL    HW234700   4.340   9.606   9.638
10935SOL     OW34701   7.613   7.197   7.230
10935SOL    HW134702   7.678   7.127   7.246
10935SOL    HW234703   7.627   7.259   7.302
10936SOL     OW34704   4.782   5.142   9.489
10936SOL    HW134705   4.736   5.059   9.476
10936SOL    HW234706   4.745   5.177   9.571
10937SOL     OW34707   4.080  10.246   2.101
10937SOL    HW134708   4.007  10.235   2.040
10937SOL    HW234709   4.153  10.201   2.059
10938SOL     OW34710   2.630   9.005   6.657
10938SOL    HW134711   2.535   8.989   6.655
10938SOL    HW234712   2.653   9.016   6.565
10939SOL     OW34713  13.063  12.977   1.974
10939SOL    HW134714  12.985  12.937   2.012
10939SOL    HW234715  13.052  13.071   1.988
10940SOL     OW34716   1.891   4.458  14.542
10940SOL    HW134717   1.833   4.534  14.553
10940SOL    HW234718   1.861   4.396  14.608
10941SOL     OW34719   0.432   0.423   8.036
10941SOL    HW134720   0.371   0.352   8.054
10941SOL    HW234721   0.457   0.410   7.944
10942SOL     OW34722  12.714   9.983   5.816
10942SOL    HW134723  12.780  10.002   5.882
10942SOL    HW234724  12.757   9.920   5.758
10943SOL     OW34725  10.171   3.950   8.897
10943SOL    HW134726  10.095   3.991   8.940
10943SOL    HW234727  10.207   4.020   8.842
10944SOL     OW34728  13.659   9.956   3.673
10944SOL    HW134729  13.606  10.035   3.663
10944SOL    HW234730  13.733   9.984   3.727
10945SOL     OW34731   0.484   2.012   8.617
10945SOL    HW134732   0.474   1.921   8.645
10945SOL    HW234733   0.572   2.016   8.581
10946SOL     OW34734  10.164   6.970  10.861
10946SOL    HW134735  10.099   6.941  10.925
10946SOL    HW234736  10.212   7.040  10.905
10947SOL     OW34737   5.205  10.487   9.562
10947SOL    HW134738   5.135  10.458   9.504
10947SOL    HW234739   5.283  10.441   9.531
10948SOL     OW34740   9.787  12.681   9.165
10948SOL    HW134741   9.711  12.651   9.215
10948SOL    HW234742   9.788  12.624   9.088
10949SOL     OW34743   2.397   0.280  11.591
10949SOL    HW134744   2.411   0.347  11.525
10949SOL    HW234745   2.480   0.233  11.594
10950SOL     OW34746   7.213   5.573   9.347
10950SOL    HW134747   7.230   5.667   9.353
10950SOL    HW234748   7.297   5.535   9.322
10951SOL     OW34749   9.116   4.643   3.543
10951SOL    HW134750   9.156   4.725   3.573
10951SOL    HW234751   9.183   4.576   3.558
10952SOL     OW34752  11.870   4.283   6.964
10952SOL    HW134753  11.788   4.297   6.918
10952SOL    HW234754  11.867   4.345   7.037
10953SOL     OW34755   2.233   4.517   5.543
10953SOL    HW134756   2.197   4.437   5.582
10953SOL    HW234757   2.159   4.555   5.496
10954SOL     OW34758   8.662  12.124   9.471
10954SOL    HW134759   8.643  12.195   9.533
10954SOL    HW234760   8.624  12.046   9.512
10955SOL     OW34761   4.863   4.680   7.081
10955SOL    HW134762   4.785   4.710   7.036
10955SOL    HW234763   4.856   4.585   7.081
10956SOL     OW34764  11.595   1.700  11.498
10956SOL    HW134765  11.548   1.777  11.532
10956SOL    HW234766  11.590   1.710  11.402
10957SOL     OW34767   1.059  12.841   2.936
10957SOL    HW134768   1.149  12.841   2.903
10957SOL    HW234769   1.047  12.753   2.971
10958SOL     OW34770   4.492  14.497   0.127
10958SOL    HW134771   4.494  14.537   0.214
10958SOL    HW234772   4.432  14.424   0.135
10959SOL     OW34773   5.705   3.043   7.600
10959SOL    HW134774   5.682   3.130   7.632
10959SOL    HW234775   5.622   3.005   7.572
10960SOL     OW34776  11.030  11.989   9.475
10960SOL    HW134777  11.045  12.046   9.551
10960SOL    HW234778  11.117  11.956   9.452
10961SOL     OW34779  11.569   6.237  11.046
10961SOL    HW134780  11.634   6.303  11.023
10961SOL    HW234781  11.526   6.216  10.963
10962SOL     OW34782   3.444   7.570   2.692
10962SOL    HW134783   3.401   7.612   2.618
10962SOL    HW234784   3.522   7.623   2.708
10963SOL     OW34785   6.633  13.400   0.931
10963SOL    HW134786   6.635  13.426   1.023
10963SOL    HW234787   6.654  13.481   0.884
10964SOL     OW34788   5.994   5.131   7.375
10964SOL    HW134789   5.912   5.110   7.420
10964SOL    HW234790   6.032   5.202   7.427
10965SOL     OW34791   1.896  12.968   0.885
10965SOL    HW134792   1.815  12.997   0.843
10965SOL    HW234793   1.899  13.018   0.967
10966SOL     OW34794   4.682   9.812   0.974
10966SOL    HW134795   4.742   9.821   1.048
10966SOL    HW234796   4.672   9.901   0.940
10967SOL     OW34797   0.974   9.663   6.446
10967SOL    HW134798   1.045   9.713   6.487
10967SOL    HW234799   1.011   9.576   6.432
10968SOL     OW34800   7.932   5.921   7.455
10968SOL    HW134801   7.923   5.967   7.539
10968SOL    HW234802   7.860   5.858   7.456
10969SOL     OW34803   4.450   4.984   5.956
10969SOL    HW134804   4.453   5.012   6.048
10969SOL    HW234805   4.357   4.968   5.939
10970SOL     OW34806   4.561   4.534  14.377
10970SOL    HW134807   4.649   4.521  14.411
10970SOL    HW234808   4.573   4.560  14.286
10971SOL     OW34809   7.720   6.071  12.811
10971SOL    HW134810   7.772   6.151  12.801
10971SOL    HW234811   7.630   6.098  12.790
10972SOL     OW34812  11.075   2.072   2.075
10972SOL    HW134813  11.055   1.996   2.129
10972SOL    HW234814  11.048   2.147   2.128
10973SOL     OW34815   0.392   5.827  12.007
10973SOL    HW134816   0.315   5.785  11.968
10973SOL    HW234817   0.363   5.915  12.030
10974SOL     OW34818   6.494  13.461  12.993
10974SOL    HW134819   6.485  13.365  12.987
10974SOL    HW234820   6.570  13.475  13.049
10975SOL     OW34821   0.730   0.518   7.183
10975SOL    HW134822   0.710   0.482   7.269
10975SOL    HW234823   0.824   0.504   7.172
10976SOL     OW34824  10.493  13.185  12.874
10976SOL    HW134825  10.550  13.261  12.861
10976SOL    HW234826  10.413  13.222  12.913
10977SOL     OW34827  14.591   1.689   3.955
10977SOL    HW134828  14.594   1.706   4.049
10977SOL    HW234829  14.677   1.651   3.935
10978SOL     OW34830   8.871  10.719   0.861
10978SOL    HW134831   8.841  10.647   0.806
10978SOL    HW234832   8.795  10.777   0.868
10979SOL     OW34833   7.513   6.077   0.869
10979SOL    HW134834   7.439   6.086   0.808
10979SOL    HW234835   7.496   6.143   0.936
10980SOL     OW34836   6.114  11.289   2.368
10980SOL    HW134837   6.022  11.305   2.389
10980SOL    HW234838   6.163  11.344   2.430
10981SOL     OW34839  12.782  12.583  12.399
10981SOL    HW134840  12.762  12.499  12.439
10981SOL    HW234841  12.781  12.566  12.304
10982SOL     OW34842  14.718  14.312   2.581
10982SOL    HW134843  14.771  14.386   2.550
10982SOL    HW234844  14.779  14.238   2.581
10983SOL     OW34845   5.743   6.509  14.696
10983SOL    HW134846   5.672   6.447  14.676
10983SOL    HW234847   5.821   6.455  14.702
10984SOL     OW34848   0.691   1.391  14.562
10984SOL    HW134849   0.750   1.380  14.636
10984SOL    HW234850   0.747   1.380  14.485
10985SOL     OW34851  11.844   1.290  10.659
10985SOL    HW134852  11.799   1.328  10.583
10985SOL    HW234853  11.816   1.345  10.732
10986SOL     OW34854   0.873  10.871   0.815
10986SOL    HW134855   0.849  10.842   0.727
10986SOL    HW234856   0.894  10.791   0.862
10987SOL     OW34857   6.528  13.913   5.096
10987SOL    HW134858   6.495  13.878   5.179
10987SOL    HW234859   6.607  13.961   5.120
10988SOL     OW34860  13.941  12.041   7.242
10988SOL    HW134861  13.997  11.973   7.279
10988SOL    HW234862  13.880  11.993   7.185
10989SOL     OW34863  12.180  12.373   9.773
10989SOL    HW134864  12.198  12.317   9.698
10989SOL    HW234865  12.197  12.319   9.849
10990SOL     OW34866   6.154  12.049  13.441
10990SOL    HW134867   6.100  12.089  13.509
10990SOL    HW234868   6.222  12.115  13.423
10991SOL     OW34869   3.252  10.706   6.224
10991SOL    HW134870   3.316  10.775   6.205
10991SOL    HW234871   3.213  10.733   6.308
10992SOL     OW34872   5.468  13.068   2.404
10992SOL    HW134873   5.436  13.012   2.475
10992SOL    HW234874   5.558  13.088   2.428
10993SOL     OW34875   6.386  11.943  10.903
10993SOL    HW134876   6.409  11.899  10.984
10993SOL    HW234877   6.334  12.019  10.930
10994SOL     OW34878  14.337   0.104   4.562
10994SOL    HW134879  14.302   0.038   4.622
10994SOL    HW234880  14.272   0.110   4.491
10995SOL     OW34881  13.515   2.011  11.777
10995SOL    HW134882  13.469   2.054  11.850
10995SOL    HW234883  13.595   1.977  11.817
10996SOL     OW34884   2.895   6.271   9.885
10996SOL    HW134885   2.810   6.249   9.849
10996SOL    HW234886   2.885   6.261   9.980
10997SOL     OW34887  12.057  10.256   4.137
10997SOL    HW134888  12.091  10.212   4.059
10997SOL    HW234889  11.971  10.288   4.110
10998SOL     OW34890  11.395   3.867  14.326
10998SOL    HW134891  11.315   3.836  14.371
10998SOL    HW234892  11.466   3.844  14.386
10999SOL     OW34893  11.560   5.826   7.658
10999SOL    HW134894  11.615   5.779   7.721
10999SOL    HW234895  11.620   5.846   7.586
11000SOL     OW34896   7.084   9.411  12.288
11000SOL    HW134897   7.037   9.425  12.370
11000SOL    HW234898   7.157   9.472  12.291
11001SOL     OW34899   0.781   7.060   3.438
11001SOL    HW134900   0.720   7.036   3.507
11001SOL    HW234901   0.867   7.042   3.475
11002SOL     OW34902   6.446   2.856  10.258
11002SOL    HW134903   6.515   2.920  10.280
11002SOL    HW234904   6.374   2.910  10.224
11003SOL     OW34905   2.302  12.920  13.619
11003SOL    HW134906   2.342  12.839  13.586
11003SOL    HW234907   2.283  12.901  13.711
11004SOL     OW34908  11.170   6.029   6.721
11004SOL    HW134909  11.158   6.040   6.815
11004SOL    HW234910  11.169   6.118   6.686
11005SOL     OW34911  13.902   4.917  13.296
11005SOL    HW134912  13.906   4.923  13.200
11005SOL    HW234913  13.994   4.912  13.322
11006SOL     OW34914   0.360   0.589  10.924
11006SOL    HW134915   0.330   0.678  10.944
11006SOL    HW234916   0.456   0.597  10.921
11007SOL     OW34917   8.072  11.809   1.995
11007SOL    HW134918   8.029  11.823   2.080
11007SOL    HW234919   8.139  11.742   2.013
11008SOL     OW34920  11.526   8.871   9.368
11008SOL    HW134921  11.433   8.893   9.359
11008SOL    HW234922  11.549   8.827   9.286
11009SOL     OW34923   8.559   1.083   3.962
11009SOL    HW134924   8.587   0.994   3.985
11009SOL    HW234925   8.468   1.088   3.992
11010SOL     OW34926  13.795   6.361  14.276
11010SOL    HW134927  13.820   6.269  14.272
11010SOL    HW234928  13.720   6.369  14.217
11011SOL     OW34929   7.514   0.050   6.848
11011SOL    HW134930   7.533   0.106   6.773
11011SOL    HW234931   7.464  14.860   6.812
11012SOL     OW34932   9.397   7.736   6.937
11012SOL    HW134933   9.483   7.779   6.935
11012SOL    HW234934   9.365   7.751   7.026
11013SOL     OW34935   3.549   7.843  10.969
11013SOL    HW134936   3.618   7.831  10.905
11013SOL    HW234937   3.540   7.758  11.012
11014SOL     OW34938  14.547  13.089   3.423
11014SOL    HW134939  14.572  13.000   3.400
11014SOL    HW234940  14.599  13.145   3.366
11015SOL     OW34941  13.907   0.310  11.631
11015SOL    HW134942  13.914   0.331  11.724
11015SOL    HW234943  13.869   0.222  11.629
11016SOL     OW34944   6.749   4.244   2.066
11016SOL    HW134945   6.729   4.190   1.989
11016SOL    HW234946   6.807   4.190   2.119
11017SOL     OW34947   9.975  11.139   4.639
11017SOL    HW134948  10.016  11.182   4.714
11017SOL    HW234949  10.001  11.193   4.564
11018SOL     OW34950  10.291   1.378  12.622
11018SOL    HW134951  10.323   1.335  12.702
11018SOL    HW234952  10.305   1.471  12.638
11019SOL     OW34953  13.432   9.934   4.784
11019SOL    HW134954  13.520   9.912   4.813
11019SOL    HW234955  13.384   9.851   4.786
11020SOL     OW34956   9.490  13.600  12.615
11020SOL    HW134957   9.511  13.567  12.527
11020SOL    HW234958   9.442  13.529  12.657
11021SOL     OW34959   1.305  14.604  14.440
11021SOL    HW134960   1.291  14.512  14.464
11021SOL    HW234961   1.221  14.646  14.456
11022SOL     OW34962   9.819   2.201   8.008
11022SOL    HW134963   9.889   2.252   8.048
11022SOL    HW234964   9.801   2.246   7.925
11023SOL     OW34965  11.874  11.534   6.428
11023SOL    HW134966  11.809  11.596   6.462
11023SOL    HW234967  11.873  11.546   6.333
11024SOL     OW34968   7.031   3.281  13.538
11024SOL    HW134969   7.033   3.233  13.621
11024SOL    HW234970   7.100   3.240  13.486
11025SOL     OW34971  12.840  13.005   5.120
11025SOL    HW134972  12.767  12.945   5.139
11025SOL    HW234973  12.910  12.947   5.088
11026SOL     OW34974   5.102   1.321  13.673
11026SOL    HW134975   5.152   1.249  13.712
11026SOL    HW234976   5.048   1.354  13.745
11027SOL     OW34977   3.687  14.278   0.018
11027SOL    HW134978   3.650  14.289  14.813
11027SOL    HW234979   3.718  14.365   0.042
11028SOL     OW34980  10.777   0.846  14.667
11028SOL    HW134981  10.726   0.917  14.706
11028SOL    HW234982  10.712   0.785  14.633
11029SOL     OW34983   5.371   1.699  10.574
11029SOL    HW134984   5.440   1.696  10.508
11029SOL    HW234985   5.291   1.676  10.527
11030SOL     OW34986  10.509  13.760   8.371
11030SOL    HW134987  10.425  13.714   8.372
11030SOL    HW234988  10.490  13.842   8.326
11031SOL     OW34989   0.435   8.789   9.243
11031SOL    HW134990   0.418   8.728   9.315
11031SOL    HW234991   0.353   8.839   9.234
11032SOL     OW34992   3.628   7.104   0.621
11032SOL    HW134993   3.591   7.187   0.590
11032SOL    HW234994   3.615   7.106   0.715
11033SOL     OW34995   2.557   2.325   1.826
11033SOL    HW134996   2.624   2.366   1.880
11033SOL    HW234997   2.582   2.345   1.736
11034SOL     OW34998   0.676   6.762   1.848
11034SOL    HW134999   0.619   6.814   1.905
11034SOL    HW235000   0.756   6.814   1.840
11035SOL     OW35001  10.043  10.151   1.760
11035SOL    HW135002  10.000  10.171   1.676
11035SOL    HW235003  10.044  10.234   1.806
11036SOL     OW35004   3.244   5.061   9.615
11036SOL    HW135005   3.300   4.984   9.611
11036SOL    HW235006   3.213   5.064   9.706
11037SOL     OW35007   0.317   1.493  10.640
11037SOL    HW135008   0.341   1.552  10.711
11037SOL    HW235009   0.273   1.420  10.685
11038SOL     OW35010   2.515   0.009   4.120
11038SOL    HW135011   2.507   0.025   4.214
11038SOL    HW235012   2.497   0.094   4.079
11039SOL     OW35013   1.699   3.771   6.036
11039SOL    HW135014   1.641   3.699   6.015
11039SOL    HW235015   1.728   3.805   5.951
11040SOL     OW35016   6.568   3.794   3.882
11040SOL    HW135017   6.610   3.741   3.814
11040SOL    HW235018   6.622   3.779   3.960
11041SOL     OW35019   0.259   8.330   2.320
11041SOL    HW135020   0.198   8.384   2.271
11041SOL    HW235021   0.344   8.347   2.280
11042SOL     OW35022  13.658  14.235  10.654
11042SOL    HW135023  13.688  14.149  10.684
11042SOL    HW235024  13.572  14.246  10.695
11043SOL     OW35025  10.934   8.900  11.936
11043SOL    HW135026  10.984   8.826  11.970
11043SOL    HW235027  10.843   8.879  11.954
11044SOL     OW35028   8.252  14.337   4.453
11044SOL    HW135029   8.287  14.253   4.483
11044SOL    HW235030   8.325  14.399   4.464
11045SOL     OW35031  11.145   5.342   8.620
11045SOL    HW135032  11.083   5.350   8.548
11045SOL    HW235033  11.155   5.247   8.632
11046SOL     OW35034   8.690  12.323   2.935
11046SOL    HW135035   8.742  12.346   3.012
11046SOL    HW235036   8.643  12.404   2.912
11047SOL     OW35037   6.677   2.419   7.951
11047SOL    HW135038   6.616   2.469   8.005
11047SOL    HW235039   6.622   2.356   7.905
11048SOL     OW35040  12.657   2.281   8.069
11048SOL    HW135041  12.705   2.245   7.994
11048SOL    HW235042  12.610   2.206   8.105
11049SOL     OW35043   3.865   4.090   6.174
11049SOL    HW135044   3.923   4.085   6.098
11049SOL    HW235045   3.915   4.051   6.245
11050SOL     OW35046   7.937  10.062   4.684
11050SOL    HW135047   7.964  10.142   4.640
11050SOL    HW235048   7.859  10.033   4.635
11051SOL     OW35049   2.875   9.298   8.723
11051SOL    HW135050   2.912   9.211   8.737
11051SOL    HW235051   2.793   9.282   8.676
11052SOL     OW35052   1.417  11.001   6.134
11052SOL    HW135053   1.498  10.961   6.101
11052SOL    HW235054   1.349  10.973   6.072
11053SOL     OW35055  13.273  12.871   6.617
11053SOL    HW135056  13.217  12.795   6.600
11053SOL    HW235057  13.280  12.875   6.712
11054SOL     OW35058   3.529   6.550   3.123
11054SOL    HW135059   3.476   6.618   3.164
11054SOL    HW235060   3.474   6.471   3.126
11055SOL     OW35061   7.269  11.385   1.676
11055SOL    HW135062   7.295  11.371   1.767
11055SOL    HW235063   7.187  11.434   1.682
11056SOL     OW35064  10.673   3.781  13.118
11056SOL    HW135065  10.680   3.732  13.200
11056SOL    HW235066  10.588   3.824  13.123
11057SOL     OW35067   5.722   9.595  10.432
11057SOL    HW135068   5.669   9.669  10.402
11057SOL    HW235069   5.808   9.610  10.393
11058SOL     OW35070   2.625   0.340   0.259
11058SOL    HW135071   2.589   0.367   0.344
11058SOL    HW235072   2.649   0.248   0.273
11059SOL     OW35073   4.462   5.415   4.830
11059SOL    HW135074   4.465   5.459   4.915
11059SOL    HW235075   4.370   5.421   4.804
11060SOL     OW35076  13.454   2.060  13.408
11060SOL    HW135077  13.527   2.002  13.428
11060SOL    HW235078  13.395   2.050  13.483
11061SOL     OW35079  13.412   5.377   0.707
11061SOL    HW135080  13.437   5.333   0.789
11061SOL    HW235081  13.482   5.441   0.692
11062SOL     OW35082  10.925  12.540  13.462
11062SOL    HW135083  10.923  12.445  13.470
11062SOL    HW235084  10.856  12.560  13.398
11063SOL     OW35085   3.494   2.034   5.174
11063SOL    HW135086   3.497   1.938   5.169
11063SOL    HW235087   3.405   2.053   5.206
11064SOL     OW35088   9.290   6.461  10.656
11064SOL    HW135089   9.343   6.434  10.731
11064SOL    HW235090   9.343   6.438  10.579
11065SOL     OW35091   1.531  12.341  13.566
11065SOL    HW135092   1.580  12.406  13.617
11065SOL    HW235093   1.538  12.260  13.617
11066SOL     OW35094   8.813   2.847   4.347
11066SOL    HW135095   8.865   2.882   4.275
11066SOL    HW235096   8.828   2.909   4.419
11067SOL     OW35097   5.753  10.100   8.034
11067SOL    HW135098   5.713  10.158   7.969
11067SOL    HW235099   5.801  10.036   7.983
11068SOL     OW35100   2.920  12.951   2.944
11068SOL    HW135101   2.930  12.856   2.953
11068SOL    HW235102   2.909  12.982   3.034
11069SOL     OW35103  12.270   0.629   1.985
11069SOL    HW135104  12.284   0.649   1.892
11069SOL    HW235105  12.354   0.650   2.027
11070SOL     OW35106   5.580   6.743   3.914
11070SOL    HW135107   5.553   6.824   3.872
11070SOL    HW235108   5.506   6.683   3.902
11071SOL     OW35109  12.321   1.799   5.163
11071SOL    HW135110  12.299   1.772   5.074
11071SOL    HW235111  12.293   1.891   5.167
11072SOL     OW35112   5.529   1.371   5.051
11072SOL    HW135113   5.537   1.459   5.014
11072SOL    HW235114   5.616   1.351   5.085
11073SOL     OW35115  10.572  14.341   1.026
11073SOL    HW135116  10.664  14.343   1.000
11073SOL    HW235117  10.574  14.344   1.122
11074SOL     OW35118   8.207  10.421   2.541
11074SOL    HW135119   8.238  10.403   2.630
11074SOL    HW235120   8.245  10.352   2.487
11075SOL     OW35121   8.208   1.391   5.271
11075SOL    HW135122   8.247   1.393   5.359
11075SOL    HW235123   8.114   1.398   5.286
11076SOL     OW35124  12.017   6.708  12.908
11076SOL    HW135125  12.095   6.678  12.862
11076SOL    HW235126  12.015   6.657  12.989
11077SOL     OW35127   5.844   0.616  14.671
11077SOL    HW135128   5.835   0.530  14.710
11077SOL    HW235129   5.755   0.651  14.666
11078SOL     OW35130   8.353  13.661   5.607
11078SOL    HW135131   8.299  13.686   5.532
11078SOL    HW235132   8.306  13.696   5.683
11079SOL     OW35133  10.724   9.184  12.840
11079SOL    HW135134  10.707   9.174  12.747
11079SOL    HW235135  10.693   9.102  12.879
11080SOL     OW35136   2.920   3.324   3.930
11080SOL    HW135137   2.831   3.326   3.895
11080SOL    HW235138   2.920   3.388   4.001
11081SOL     OW35139  14.424  14.088   6.940
11081SOL    HW135140  14.489  14.020   6.955
11081SOL    HW235141  14.475  14.168   6.925
11082SOL     OW35142   8.869   9.221  10.818
11082SOL    HW135143   8.886   9.172  10.898
11082SOL    HW235144   8.781   9.256  10.828
11083SOL     OW35145   5.790   3.997   0.011
11083SOL    HW135146   5.697   3.975   0.001
11083SOL    HW235147   5.798   4.084  14.854
11084SOL     OW35148   9.803   9.345   0.682
11084SOL    HW135149   9.763   9.309   0.603
11084SOL    HW235150   9.734   9.345   0.748
11085SOL     OW35151   0.181  11.244   1.680
11085SOL    HW135152   0.123  11.303   1.632
11085SOL    HW235153   0.181  11.278   1.770
11086SOL     OW35154  12.474   2.996   6.315
11086SOL    HW135155  12.422   2.930   6.269
11086SOL    HW235156  12.429   3.008   6.399
11087SOL     OW35157   4.467   7.066   2.797
11087SOL    HW135158   4.473   7.058   2.892
11087SOL    HW235159   4.383   7.110   2.782
11088SOL     OW35160  10.164   1.021  13.392
11088SOL    HW135161  10.167   0.937  13.347
11088SOL    HW235162  10.094   1.069  13.347
11089SOL     OW35163   2.018   6.695   3.618
11089SOL    HW135164   1.954   6.666   3.554
11089SOL    HW235165   2.032   6.788   3.598
11090SOL     OW35166   0.641   2.972   2.558
11090SOL    HW135167   0.578   3.044   2.559
11090SOL    HW235168   0.703   2.994   2.628
11091SOL     OW35169  13.225   3.704  13.981
11091SOL    HW135170  13.137   3.728  14.010
11091SOL    HW235171  13.220   3.709  13.885
11092SOL     OW35172   7.249   8.035  13.766
11092SOL    HW135173   7.303   7.976  13.713
11092SOL    HW235174   7.313   8.081  13.821
11093SOL     OW35175   7.202  11.100   0.687
11093SOL    HW135176   7.252  11.039   0.633
11093SOL    HW235177   7.113  11.064   0.688
11094SOL     OW35178  14.385  14.720  10.286
11094SOL    HW135179  14.449  14.650  10.290
11094SOL    HW235180  14.309  14.681  10.242
11095SOL     OW35181   2.496   7.344   0.171
11095SOL    HW135182   2.462   7.339   0.260
11095SOL    HW235183   2.580   7.298   0.174
11096SOL     OW35184   2.194   3.634   2.896
11096SOL    HW135185   2.146   3.551   2.895
11096SOL    HW235186   2.178   3.670   2.983
11097SOL     OW35187   6.201   5.970   3.108
11097SOL    HW135188   6.164   6.034   3.169
11097SOL    HW235189   6.124   5.932   3.065
11098SOL     OW35190   1.245  14.024  14.684
11098SOL    HW135191   1.301  14.024  14.607
11098SOL    HW235192   1.287  13.965  14.745
11099SOL     OW35193   3.009  13.835  13.505
11099SOL    HW135194   3.015  13.912  13.561
11099SOL    HW235195   3.071  13.851  13.434
11100SOL     OW35196  11.519   4.746   3.548
11100SOL    HW135197  11.551   4.671   3.600
11100SOL    HW235198  11.425   4.730   3.539
11101SOL     OW35199  10.724  12.537   7.259
11101SOL    HW135200  10.666  12.549   7.184
11101SOL    HW235201  10.676  12.482   7.319
11102SOL     OW35202  10.903  14.338   0.066
11102SOL    HW135203  10.928  14.430   0.060
11102SOL    HW235204  10.978  14.290   0.030
11103SOL     OW35205   3.456   0.226   2.625
11103SOL    HW135206   3.506   0.296   2.666
11103SOL    HW235207   3.372   0.226   2.671
11104SOL     OW35208   3.109  10.178   9.056
11104SOL    HW135209   3.022  10.176   9.018
11104SOL    HW235210   3.168  10.197   8.983
11105SOL     OW35211   0.721   7.228   0.621
11105SOL    HW135212   0.730   7.133   0.624
11105SOL    HW235213   0.643   7.243   0.566
11106SOL     OW35214   2.994   5.516  10.763
11106SOL    HW135215   2.913   5.549  10.724
11106SOL    HW235216   3.028   5.454  10.699
11107SOL     OW35217   2.130   7.892  10.925
11107SOL    HW135218   2.049   7.886  10.874
11107SOL    HW235219   2.195   7.844  10.874
11108SOL     OW35220   5.831   7.976   3.060
11108SOL    HW135221   5.839   8.058   3.108
11108SOL    HW235222   5.796   8.002   2.974
11109SOL     OW35223  11.419  12.377   3.409
11109SOL    HW135224  11.336  12.420   3.387
11109SOL    HW235225  11.405  12.285   3.390
11110SOL     OW35226   0.004  13.326   7.818
11110SOL    HW135227   0.072  13.276   7.862
11110SOL    HW235228   0.013  13.302   7.726
11111SOL     OW35229   2.580   4.510  11.426
11111SOL    HW135230   2.658   4.516  11.482
11111SOL    HW235231   2.522   4.450  11.473
11112SOL     OW35232  13.136  12.302   7.456
11112SOL    HW135233  13.156  12.210   7.439
11112SOL    HW235234  13.203  12.350   7.408
11113SOL     OW35235   7.945  13.062   9.602
11113SOL    HW135236   8.000  12.992   9.567
11113SOL    HW235237   7.960  13.136   9.543
11114SOL     OW35238   5.316   2.400   9.362
11114SOL    HW135239   5.340   2.434   9.276
11114SOL    HW235240   5.223   2.419   9.371
11115SOL     OW35241   2.722   4.924   2.281
11115SOL    HW135242   2.747   4.852   2.224
11115SOL    HW235243   2.780   4.996   2.255
11116SOL     OW35244   7.709  13.593   4.216
11116SOL    HW135245   7.694  13.542   4.137
11116SOL    HW235246   7.686  13.682   4.193
11117SOL     OW35247   9.457   0.558  11.142
11117SOL    HW135248   9.445   0.584  11.234
11117SOL    HW235249   9.502   0.474  11.146
11118SOL     OW35250  14.390  14.868  12.814
11118SOL    HW135251  14.389   0.011  12.906
11118SOL    HW235252  14.341   0.055  12.770
11119SOL     OW35253   7.383   0.661   5.636
11119SOL    HW135254   7.334   0.587   5.674
11119SOL    HW235255   7.383   0.727   5.704
11120SOL     OW35256   6.458   1.336   5.597
11120SOL    HW135257   6.420   1.396   5.533
11120SOL    HW235258   6.460   1.387   5.678
11121SOL     OW35259   0.224  10.544   2.077
11121SOL    HW135260   0.180  10.602   2.139
11121SOL    HW235261   0.291  10.599   2.037
11122SOL     OW35262  14.428  13.557   7.446
11122SOL    HW135263  14.520  13.536   7.465
11122SOL    HW235264  14.432  13.601   7.361
11123SOL     OW35265   4.448   4.730   1.255
11123SOL    HW135266   4.383   4.665   1.230
11123SOL    HW235267   4.401   4.787   1.317
11124SOL     OW35268   3.538   6.862  10.276
11124SOL    HW135269   3.533   6.899  10.365
11124SOL    HW235270   3.575   6.932  10.223
11125SOL     OW35271   2.048   2.737  12.406
11125SOL    HW135272   1.961   2.764  12.377
11125SOL    HW235273   2.097   2.725  12.324
11126SOL     OW35274   3.501   4.883   3.038
11126SOL    HW135275   3.440   4.932   2.983
11126SOL    HW235276   3.536   4.949   3.099
11127SOL     OW35277   3.834   9.289   9.188
11127SOL    HW135278   3.760   9.281   9.127
11127SOL    HW235279   3.854   9.199   9.214
11128SOL     OW35280   2.999   6.772  10.378
11128SOL    HW135281   3.073   6.779  10.318
11128SOL    HW235282   2.928   6.737  10.324
11129SOL     OW35283   4.119   4.098   4.315
11129SOL    HW135284   4.152   4.175   4.269
11129SOL    HW235285   4.072   4.048   4.248
11130SOL     OW35286  13.230  13.336  13.744
11130SOL    HW135287  13.322  13.341  13.717
11130SOL    HW235288  13.215  13.242  13.760
11131SOL     OW35289  14.493   1.391   8.690
11131SOL    HW135290  14.527   1.395   8.601
11131SOL    HW235291  14.557   1.439   8.743
11132SOL     OW35292   9.458   0.952  11.946
11132SOL    HW135293   9.419   0.865  11.940
11132SOL    HW235294   9.396   1.003  11.998
11133SOL     OW35295  11.821   4.333   0.745
11133SOL    HW135296  11.815   4.356   0.837
11133SOL    HW235297  11.895   4.273   0.740
11134SOL     OW35298  12.445  14.144   1.792
11134SOL    HW135299  12.492  14.181   1.867
11134SOL    HW235300  12.507  14.080   1.755
11135SOL     OW35301  14.072   1.351   6.073
11135SOL    HW135302  14.000   1.407   6.044
11135SOL    HW235303  14.100   1.389   6.156
11136SOL     OW35304   8.797  12.970   0.147
11136SOL    HW135305   8.782  12.880   0.177
11136SOL    HW235306   8.760  12.971   0.058
11137SOL     OW35307   1.577  12.305   8.518
11137SOL    HW135308   1.671  12.321   8.527
11137SOL    HW235309   1.571  12.232   8.456
11138SOL     OW35310  10.290  12.468  12.247
11138SOL    HW135311  10.226  12.539  12.241
11138SOL    HW235312  10.349  12.482  12.172
11139SOL     OW35313  11.453   6.411   6.327
11139SOL    HW135314  11.486   6.358   6.254
11139SOL    HW235315  11.363   6.382   6.339
11140SOL     OW35316  11.769  10.558   1.939
11140SOL    HW135317  11.675  10.553   1.957
11140SOL    HW235318  11.802  10.470   1.956
11141SOL     OW35319   2.056   0.804  14.199
11141SOL    HW135320   2.012   0.805  14.115
11141SOL    HW235321   1.986   0.819  14.263
11142SOL     OW35322   3.877   6.030  12.287
11142SOL    HW135323   3.807   5.977  12.249
11142SOL    HW235324   3.848   6.121  12.272
11143SOL     OW35325   2.252   2.375   4.879
11143SOL    HW135326   2.298   2.382   4.963
11143SOL    HW235327   2.289   2.297   4.839
11144SOL     OW35328   3.169   3.647   5.041
11144SOL    HW135329   3.123   3.706   4.982
11144SOL    HW235330   3.101   3.587   5.072
11145SOL     OW35331   9.919   6.268   6.187
11145SOL    HW135332   9.864   6.281   6.109
11145SOL    HW235333   9.858   6.237   6.254
11146SOL     OW35334   7.185   1.658  10.273
11146SOL    HW135335   7.121   1.728  10.288
11146SOL    HW235336   7.137   1.593  10.220
11147SOL     OW35337   9.173  13.492  11.477
11147SOL    HW135338   9.131  13.547  11.544
11147SOL    HW235339   9.143  13.529  11.394
11148SOL     OW35340  14.747   0.999   2.325
11148SOL    HW135341  14.820   0.938   2.327
11148SOL    HW235342  14.671   0.946   2.301
11149SOL     OW35343   0.533  14.656   5.686
11149SOL    HW135344   0.481  14.718   5.736
11149SOL    HW235345   0.469  14.598   5.645
11150SOL     OW35346  14.288   3.678   7.448
11150SOL    HW135347  14.342   3.601   7.467
11150SOL    HW235348  14.315   3.742   7.514
11151SOL     OW35349   5.889   5.723   9.906
11151SOL    HW135350   5.823   5.788   9.930
11151SOL    HW235351   5.961   5.738   9.967
11152SOL     OW35352   7.421   2.402   8.816
11152SOL    HW135353   7.493   2.390   8.877
11152SOL    HW235354   7.357   2.335   8.840
11153SOL     OW35355   5.632   0.074   3.310
11153SOL    HW135356   5.620   0.165   3.285
11153SOL    HW235357   5.583   0.024   3.245
11154SOL     OW35358   1.608   0.120   4.816
11154SOL    HW135359   1.564   0.162   4.889
11154SOL    HW235360   1.648   0.042   4.854
11155SOL     OW35361   7.959   2.758   0.303
11155SOL    HW135362   7.928   2.668   0.312
11155SOL    HW235363   8.053   2.750   0.291
11156SOL     OW35364   8.608   6.189   7.955
11156SOL    HW135365   8.650   6.187   8.041
11156SOL    HW235366   8.647   6.115   7.908
11157SOL     OW35367   6.289  12.462   7.328
11157SOL    HW135368   6.362  12.450   7.268
11157SOL    HW235369   6.233  12.386   7.314
11158SOL     OW35370   7.418   8.345   3.406
11158SOL    HW135371   7.402   8.302   3.322
11158SOL    HW235372   7.447   8.274   3.464
11159SOL     OW35373   5.524   4.877   6.531
11159SOL    HW135374   5.579   4.926   6.470
11159SOL    HW235375   5.578   4.802   6.557
11160SOL     OW35376  10.052   2.351  14.867
11160SOL    HW135377  10.122   2.364  14.803
11160SOL    HW235378   9.980   2.313  14.816
11161SOL     OW35379  11.286   2.184   8.560
11161SOL    HW135380  11.203   2.143   8.585
11161SOL    HW235381  11.262   2.273   8.534
11162SOL     OW35382   4.277   9.559   5.070
11162SOL    HW135383   4.282   9.528   5.160
11162SOL    HW235384   4.335   9.500   5.021
11163SOL     OW35385  13.416   4.191   9.170
11163SOL    HW135386  13.392   4.229   9.085
11163SOL    HW235387  13.338   4.143   9.198
11164SOL     OW35388   6.324   2.957   8.414
11164SOL    HW135389   6.268   2.931   8.487
11164SOL    HW235390   6.413   2.946   8.446
11165SOL     OW35391   1.103   7.296  13.967
11165SOL    HW135392   1.150   7.227  14.015
11165SOL    HW235393   1.085   7.362  14.033
11166SOL     OW35394  12.287   8.922  11.891
11166SOL    HW135395  12.360   8.910  11.829
11166SOL    HW235396  12.233   8.843  11.879
11167SOL     OW35397   0.306  11.471   6.939
11167SOL    HW135398   0.360  11.395   6.918
11167SOL    HW235399   0.218  11.436   6.947
11168SOL     OW35400   5.663  14.195   1.763
11168SOL    HW135401   5.759  14.203   1.763
11168SOL    HW235402   5.641  14.174   1.672
11169SOL     OW35403   3.598  11.911   1.092
11169SOL    HW135404   3.645  11.836   1.055
11169SOL    HW235405   3.621  11.985   1.035
11170SOL     OW35406   4.208   8.854   7.237
11170SOL    HW135407   4.216   8.947   7.218
11170SOL    HW235408   4.274   8.837   7.305
11171SOL     OW35409  10.632   9.241   2.873
11171SOL    HW135410  10.657   9.211   2.785
11171SOL    HW235411  10.595   9.164   2.915
11172SOL     OW35412   9.294   6.456  13.998
11172SOL    HW135413   9.291   6.416  13.911
11172SOL    HW235414   9.360   6.525  13.990
11173SOL     OW35415   3.939   0.170   0.218
11173SOL    HW135416   3.904   0.181   0.306
11173SOL    HW235417   3.988   0.251   0.201
11174SOL     OW35418   6.970   1.360  13.118
11174SOL    HW135419   6.940   1.326  13.202
11174SOL    HW235420   6.913   1.319  13.053
11175SOL     OW35421   1.535   0.947   1.370
11175SOL    HW135422   1.468   1.003   1.410
11175SOL    HW235423   1.533   0.969   1.277
11176SOL     OW35424  13.371  11.784   0.036
11176SOL    HW135425  13.345  11.746  14.834
11176SOL    HW235426  13.433  11.853   0.012
11177SOL     OW35427   0.284  11.380  12.717
11177SOL    HW135428   0.357  11.398  12.775
11177SOL    HW235429   0.306  11.426  12.636
11178SOL     OW35430  14.474   1.472  12.628
11178SOL    HW135431  14.455   1.431  12.543
11178SOL    HW235432  14.568   1.460  12.640
11179SOL     OW35433   0.674   2.281   4.482
11179SOL    HW135434   0.583   2.305   4.499
11179SOL    HW235435   0.681   2.190   4.512
11180SOL     OW35436   7.721  10.481   9.091
11180SOL    HW135437   7.812  10.507   9.083
11180SOL    HW235438   7.672  10.556   9.057
11181SOL     OW35439   8.811   8.336  10.307
11181SOL    HW135440   8.722   8.323  10.339
11181SOL    HW235441   8.818   8.277  10.231
11182SOL     OW35442   2.798  13.841   3.583
11182SOL    HW135443   2.746  13.824   3.504
11182SOL    HW235444   2.848  13.920   3.562
11183SOL     OW35445   3.790   2.709  11.730
11183SOL    HW135446   3.862   2.745  11.678
11183SOL    HW235447   3.724   2.683  11.666
11184SOL     OW35448  13.887   2.758   7.033
11184SOL    HW135449  13.891   2.678   7.085
11184SOL    HW235450  13.794   2.771   7.016
11185SOL     OW35451   5.349  10.196   0.513
11185SOL    HW135452   5.332  10.232   0.426
11185SOL    HW235453   5.430  10.145   0.503
11186SOL     OW35454   1.970   2.514   7.643
11186SOL    HW135455   1.908   2.563   7.698
11186SOL    HW235456   2.010   2.451   7.703
11187SOL     OW35457   9.224   0.238  14.827
11187SOL    HW135458   9.133   0.267  14.819
11187SOL    HW235459   9.244   0.199  14.742
11188SOL     OW35460  10.042  14.472   6.289
11188SOL    HW135461  10.106  14.479   6.218
11188SOL    HW235462  10.005  14.385   6.279
11189SOL     OW35463  12.006   3.431   7.942
11189SOL    HW135464  11.933   3.447   8.003
11189SOL    HW235465  11.991   3.342   7.911
11190SOL     OW35466   0.633   4.669  13.243
11190SOL    HW135467   0.644   4.651  13.150
11190SOL    HW235468   0.568   4.738  13.247
11191SOL     OW35469   3.024  13.908   5.965
11191SOL    HW135470   3.022  13.816   5.994
11191SOL    HW235471   2.986  13.906   5.877
11192SOL     OW35472   6.782   3.436  12.177
11192SOL    HW135473   6.768   3.374  12.106
11192SOL    HW235474   6.770   3.385  12.257
11193SOL     OW35475  11.815   0.231  11.804
11193SOL    HW135476  11.720   0.242  11.814
11193SOL    HW235477  11.824   0.177  11.726
11194SOL     OW35478  11.590  10.434   0.748
11194SOL    HW135479  11.626  10.346   0.732
11194SOL    HW235480  11.504  10.417   0.786
11195SOL     OW35481  13.647  10.653  10.185
11195SOL    HW135482  13.660  10.738  10.144
11195SOL    HW235483  13.624  10.673  10.276
11196SOL     OW35484   7.625   7.152   0.051
11196SOL    HW135485   7.653   7.096  14.861
11196SOL    HW235486   7.530   7.140   0.055
11197SOL     OW35487   3.753   3.765  10.995
11197SOL    HW135488   3.806   3.698  10.952
11197SOL    HW235489   3.732   3.727  11.080
11198SOL     OW35490   7.844   8.106   2.672
11198SOL    HW135491   7.846   8.163   2.749
11198SOL    HW235492   7.812   8.022   2.706
11199SOL     OW35493   5.795   2.648  13.056
11199SOL    HW135494   5.725   2.586  13.075
11199SOL    HW235495   5.758   2.706  12.990
11200SOL     OW35496   5.406   3.422   5.227
11200SOL    HW135497   5.386   3.328   5.232
11200SOL    HW235498   5.383   3.455   5.314
11201SOL     OW35499   9.250   7.194  12.080
11201SOL    HW135500   9.326   7.149  12.044
11201SOL    HW235501   9.287   7.254  12.146
11202SOL     OW35502  13.003  14.047   4.018
11202SOL    HW135503  13.032  14.101   3.945
11202SOL    HW235504  12.926  14.001   3.983
11203SOL     OW35505   1.206  11.118   4.295
11203SOL    HW135506   1.277  11.064   4.329
11203SOL    HW235507   1.232  11.137   4.205
11204SOL     OW35508   0.843   7.592   8.218
11204SOL    HW135509   0.889   7.614   8.299
11204SOL    HW235510   0.839   7.674   8.169
11205SOL     OW35511   7.939   6.858   3.471
11205SOL    HW135512   7.944   6.765   3.495
11205SOL    HW235513   7.970   6.860   3.381
11206SOL     OW35514   7.933   0.778  10.682
11206SOL    HW135515   7.987   0.848  10.719
11206SOL    HW235516   7.871   0.757  10.752
11207SOL     OW35517   8.715  13.980  10.196
11207SOL    HW135518   8.753  13.966  10.110
11207SOL    HW235519   8.700  13.892  10.231
11208SOL     OW35520   5.910   0.921   0.596
11208SOL    HW135521   5.897   1.000   0.647
11208SOL    HW235522   5.825   0.878   0.594
11209SOL     OW35523   7.836   4.212  11.412
11209SOL    HW135524   7.914   4.263  11.388
11209SOL    HW235525   7.793   4.264  11.480
11210SOL     OW35526   1.860  14.674   8.499
11210SOL    HW135527   1.823  14.748   8.449
11210SOL    HW235528   1.917  14.714   8.563
11211SOL     OW35529   9.445  10.422   6.181
11211SOL    HW135530   9.449  10.496   6.122
11211SOL    HW235531   9.509  10.441   6.249
11212SOL     OW35532   6.584   6.414   8.057
11212SOL    HW135533   6.546   6.424   7.969
11212SOL    HW235534   6.570   6.323   8.079
11213SOL     OW35535   1.342   6.508  11.279
11213SOL    HW135536   1.253   6.531  11.308
11213SOL    HW235537   1.375   6.589  11.240
11214SOL     OW35538   1.748   5.066   5.741
11214SOL    HW135539   1.703   5.069   5.825
11214SOL    HW235540   1.797   5.148   5.737
11215SOL     OW35541   7.139  13.430  13.899
11215SOL    HW135542   7.185  13.346  13.909
11215SOL    HW235543   7.100  13.426  13.811
11216SOL     OW35544   8.255   1.840  13.271
11216SOL    HW135545   8.314   1.911  13.246
11216SOL    HW235546   8.309   1.761  13.265
11217SOL     OW35547   7.314   6.827  13.979
11217SOL    HW135548   7.336   6.914  13.948
11217SOL    HW235549   7.324   6.832  14.074
11218SOL     OW35550   3.111  12.501   6.963
11218SOL    HW135551   3.109  12.597   6.972
11218SOL    HW235552   3.125  12.486   6.869
11219SOL     OW35553  11.623   2.040  11.962
11219SOL    HW135554  11.599   2.080  11.879
11219SOL    HW235555  11.709   2.076  11.982
11220SOL     OW35556  12.321  12.379  12.534
11220SOL    HW135557  12.258  12.392  12.606
11220SOL    HW235558  12.385  12.318  12.569
11221SOL     OW35559  11.944   7.945   5.249
11221SOL    HW135560  12.008   8.016   5.255
11221SOL    HW235561  11.997   7.866   5.240
11222SOL     OW35562   4.628   3.609   1.342
11222SOL    HW135563   4.538   3.632   1.319
11222SOL    HW235564   4.641   3.523   1.303
11223SOL     OW35565   7.046   2.325   2.953
11223SOL    HW135566   7.095   2.358   3.028
11223SOL    HW235567   7.041   2.399   2.892
11224SOL     OW35568  14.471  10.283   9.020
11224SOL    HW135569  14.420  10.215   9.064
11224SOL    HW235570  14.413  10.359   9.020
11225SOL     OW35571   5.303  11.711   7.406
11225SOL    HW135572   5.255  11.639   7.366
11225SOL    HW235573   5.329  11.767   7.333
11226SOL     OW35574   5.997   7.323   7.666
11226SOL    HW135575   5.990   7.305   7.573
11226SOL    HW235576   6.020   7.416   7.671
11227SOL     OW35577   8.288  10.958   2.812
11227SOL    HW135578   8.368  10.944   2.863
11227SOL    HW235579   8.231  11.007   2.872
11228SOL     OW35580   2.808   9.234  10.301
11228SOL    HW135581   2.882   9.290  10.276
11228SOL    HW235582   2.822   9.153  10.252
11229SOL     OW35583   7.339  11.826   8.977
11229SOL    HW135584   7.352  11.870   9.061
11229SOL    HW235585   7.407  11.759   8.975
11230SOL     OW35586   2.637   6.382  13.145
11230SOL    HW135587   2.724   6.349  13.120
11230SOL    HW235588   2.576   6.330  13.092
11231SOL     OW35589   9.001  11.420  10.777
11231SOL    HW135590   8.929  11.463  10.825
11231SOL    HW235591   9.038  11.359  10.841
11232SOL     OW35592  14.707  11.523   5.492
11232SOL    HW135593  14.736  11.611   5.514
11232SOL    HW235594  14.637  11.505   5.555
11233SOL     OW35595   1.138   8.831  14.348
11233SOL    HW135596   1.215   8.883  14.325
11233SOL    HW235597   1.113   8.862  14.435
11234SOL     OW35598   8.411   4.861  10.298
11234SOL    HW135599   8.502   4.871  10.323
11234SOL    HW235600   8.404   4.769  10.270
11235SOL     OW35601   8.581  11.340   3.464
11235SOL    HW135602   8.632  11.259   3.463
11235SOL    HW235603   8.569  11.359   3.557
11236SOL     OW35604   9.645   3.652   4.667
11236SOL    HW135605   9.591   3.626   4.742
11236SOL    HW235606   9.685   3.735   4.694
11237SOL     OW35607   6.767  10.350   1.614
11237SOL    HW135608   6.761  10.389   1.527
11237SOL    HW235609   6.858  10.320   1.620
11238SOL     OW35610   0.558   4.524  13.861
11238SOL    HW135611   0.624   4.565  13.805
11238SOL    HW235612   0.479   4.523  13.807
11239SOL     OW35613  12.235   1.320  10.803
11239SOL    HW135614  12.237   1.249  10.739
11239SOL    HW235615  12.220   1.399  10.751
11240SOL     OW35616   4.649   9.500   0.796
11240SOL    HW135617   4.582   9.559   0.762
11240SOL    HW235618   4.654   9.521   0.889
11241SOL     OW35619   1.034  14.080  13.350
11241SOL    HW135620   1.129  14.094  13.352
11241SOL    HW235621   0.997  14.166  13.368
11242SOL     OW35622   0.603   1.333   1.620
11242SOL    HW135623   0.516   1.336   1.580
11242SOL    HW235624   0.641   1.251   1.589
11243SOL     OW35625  10.567   1.245   9.070
11243SOL    HW135626  10.640   1.298   9.101
11243SOL    HW235627  10.558   1.175   9.136
11244SOL     OW35628   4.912   5.028   4.835
11244SOL    HW135629   4.978   5.021   4.766
11244SOL    HW235630   4.846   4.963   4.811
11245SOL     OW35631   1.136   8.473   8.069
11245SOL    HW135632   1.074   8.433   8.008
11245SOL    HW235633   1.082   8.503   8.142
11246SOL     OW35634   0.973   4.097   5.661
11246SOL    HW135635   1.046   4.138   5.615
11246SOL    HW235636   0.928   4.169   5.705
11247SOL     OW35637   8.413  13.955   3.771
11247SOL    HW135638   8.495  13.962   3.722
11247SOL    HW235639   8.345  13.968   3.706
11248SOL     OW35640   3.205   3.053   3.283
11248SOL    HW135641   3.222   3.095   3.367
11248SOL    HW235642   3.136   2.989   3.302
11249SOL     OW35643  10.546  13.437  12.371
11249SOL    HW135644  10.452  13.446  12.358
11249SOL    HW235645  10.555  13.364  12.432
11250SOL     OW35646   6.090  13.018   3.840
11250SOL    HW135647   6.145  13.046   3.913
11250SOL    HW235648   6.106  12.924   3.832
11251SOL     OW35649   1.852   5.968   9.442
11251SOL    HW135650   1.858   6.061   9.421
11251SOL    HW235651   1.762   5.956   9.471
11252SOL     OW35652   1.093  11.512   8.307
11252SOL    HW135653   1.150  11.550   8.373
11252SOL    HW235654   1.145  11.512   8.227
11253SOL     OW35655   3.540   0.070  11.015
11253SOL    HW135656   3.604   0.081  10.944
11253SOL    HW235657   3.514  14.860  11.009
11254SOL     OW35658   0.315   6.241   1.540
11254SOL    HW135659   0.316   6.284   1.455
11254SOL    HW235660   0.396   6.192   1.543
11255SOL     OW35661   6.003  12.916  11.134
11255SOL    HW135662   6.003  13.006  11.167
11255SOL    HW235663   6.085  12.909  11.086
11256SOL     OW35664   5.032  11.330  14.526
11256SOL    HW135665   5.018  11.319  14.432
11256SOL    HW235666   5.089  11.407  14.532
11257SOL     OW35667   9.223  12.601   9.849
11257SOL    HW135668   9.232  12.653   9.769
11257SOL    HW235669   9.146  12.638   9.893
11258SOL     OW35670  10.493   2.885  14.194
11258SOL    HW135671  10.535   2.852  14.114
11258SOL    HW235672  10.452   2.967  14.167
11259SOL     OW35673   6.910  11.399  13.423
11259SOL    HW135674   6.952  11.397  13.337
11259SOL    HW235675   6.980  11.423  13.483
11260SOL     OW35676  11.525   9.596   2.084
11260SOL    HW135677  11.534   9.607   2.179
11260SOL    HW235678  11.520   9.501   2.072
11261SOL     OW35679   6.304   1.368   2.753
11261SOL    HW135680   6.222   1.357   2.705
11261SOL    HW235681   6.343   1.280   2.755
11262SOL     OW35682   4.649  12.692   2.591
11262SOL    HW135683   4.700  12.717   2.668
11262SOL    HW235684   4.690  12.610   2.562
11263SOL     OW35685   4.265   5.675   0.902
11263SOL    HW135686   4.303   5.677   0.814
11263SOL    HW235687   4.274   5.765   0.933
11264SOL     OW35688   2.196  14.263   2.946
11264SOL    HW135689   2.143  14.183   2.942
11264SOL    HW235690   2.181  14.296   3.035
11265SOL     OW35691   7.096  13.095  13.680
11265SOL    HW135692   7.106  13.181  13.641
11265SOL    HW235693   7.032  13.108  13.751
11266SOL     OW35694   7.935   9.902  13.732
11266SOL    HW135695   7.899   9.940  13.812
11266SOL    HW235696   7.860   9.864  13.687
11267SOL     OW35697   9.849   9.817   9.403
11267SOL    HW135698   9.857   9.775   9.489
11267SOL    HW235699   9.926   9.874   9.398
11268SOL     OW35700  13.063  14.670   2.053
11268SOL    HW135701  13.007  14.598   2.079
11268SOL    HW235702  13.020  14.706   1.975
11269SOL     OW35703  12.450   0.112   8.397
11269SOL    HW135704  12.490   0.074   8.475
11269SOL    HW235705  12.359   0.126   8.420
11270SOL     OW35706  14.112   9.260   7.075
11270SOL    HW135707  14.127   9.281   6.983
11270SOL    HW235708  14.033   9.205   7.075
11271SOL     OW35709  14.192   0.205  10.702
11271SOL    HW135710  14.124   0.231  10.765
11271SOL    HW235711  14.153   0.130  10.656
11272SOL     OW35712   4.225   0.024   1.412
11272SOL    HW135713   4.237   0.111   1.451
11272SOL    HW235714   4.304   0.011   1.360
11273SOL     OW35715  10.060   7.900  11.239
11273SOL    HW135716  10.042   7.981  11.190
11273SOL    HW235717  10.000   7.904  11.314
11274SOL     OW35718   3.247   9.629   1.153
11274SOL    HW135719   3.225   9.616   1.060
11274SOL    HW235720   3.202   9.711   1.176
11275SOL     OW35721   4.563   9.735   6.788
11275SOL    HW135722   4.617   9.813   6.781
11275SOL    HW235723   4.532   9.735   6.879
11276SOL     OW35724  11.046   1.954   3.581
11276SOL    HW135725  11.089   2.035   3.609
11276SOL    HW235726  11.099   1.884   3.620
11277SOL     OW35727   9.308   7.317   5.715
11277SOL    HW135728   9.385   7.268   5.685
11277SOL    HW235729   9.338   7.363   5.793
11278SOL     OW35730  12.084  10.377   5.944
11278SOL    HW135731  12.032  10.364   5.865
11278SOL    HW235732  12.174  10.383   5.912
11279SOL     OW35733   8.034   5.930  12.115
11279SOL    HW135734   7.956   5.875  12.109
11279SOL    HW235735   8.085   5.892  12.186
11280SOL     OW35736   1.919   7.509   1.374
11280SOL    HW135737   1.913   7.436   1.435
11280SOL    HW235738   1.988   7.565   1.410
11281SOL     OW35739  11.926   9.476   4.336
11281SOL    HW135740  11.969   9.508   4.415
11281SOL    HW235741  11.917   9.553   4.281
11282SOL     OW35742   8.919   6.551  10.953
11282SOL    HW135743   8.959   6.486  11.011
11282SOL    HW235744   8.954   6.532  10.867
11283SOL     OW35745   3.921  14.031   6.510
11283SOL    HW135746   3.984  14.070   6.571
11283SOL    HW235747   3.889  13.953   6.556
11284SOL     OW35748  13.866  10.755   4.199
11284SOL    HW135749  13.796  10.702   4.161
11284SOL    HW235750  13.858  10.841   4.158
11285SOL     OW35751   4.449   7.376  13.204
11285SOL    HW135752   4.418   7.336  13.286
11285SOL    HW235753   4.473   7.301  13.149
11286SOL     OW35754   8.750   9.849   0.204
11286SOL    HW135755   8.816   9.838   0.272
11286SOL    HW235756   8.796   9.830   0.122
11287SOL     OW35757  13.581  14.835   1.586
11287SOL    HW135758  13.499  14.787   1.589
11287SOL    HW235759  13.645  14.772   1.552
11288SOL     OW35760   7.065   2.286  11.952
11288SOL    HW135761   7.115   2.365  11.930
11288SOL    HW235762   6.981   2.319  11.983
11289SOL     OW35763   6.032   6.033  11.763
11289SOL    HW135764   6.018   6.031  11.858
11289SOL    HW235765   6.000   6.119  11.737
11290SOL     OW35766   4.655  10.917   4.206
11290SOL    HW135767   4.678  10.853   4.139
11290SOL    HW235768   4.720  10.904   4.275
11291SOL     OW35769  12.816   3.656  12.229
11291SOL    HW135770  12.817   3.629  12.321
11291SOL    HW235771  12.908   3.677  12.209
11292SOL     OW35772   8.332   7.234   5.191
11292SOL    HW135773   8.396   7.300   5.218
11292SOL    HW235774   8.349   7.222   5.098
11293SOL     OW35775  13.116   8.519  13.911
11293SOL    HW135776  13.161   8.465  13.975
11293SOL    HW235777  13.185   8.571  13.870
11294SOL     OW35778   5.169   8.453   0.343
11294SOL    HW135779   5.237   8.520   0.337
11294SOL    HW235780   5.195   8.387   0.278
11295SOL     OW35781   7.714  11.726  11.733
11295SOL    HW135782   7.689  11.810  11.695
11295SOL    HW235783   7.638  11.670  11.719
11296SOL     OW35784   5.213   2.401  12.196
11296SOL    HW135785   5.182   2.411  12.106
11296SOL    HW235786   5.286   2.462  12.204
11297SOL     OW35787  10.318  13.415   7.197
11297SOL    HW135788  10.322  13.509   7.180
11297SOL    HW235789  10.401  13.394   7.239
11298SOL     OW35790  10.136   0.474   6.909
11298SOL    HW135791  10.150   0.390   6.864
11298SOL    HW235792  10.222   0.516   6.908
11299SOL     OW35793  12.219  13.104   9.513
11299SOL    HW135794  12.151  13.070   9.454
11299SOL    HW235795  12.212  13.049   9.591
11300SOL     OW35796   7.117   4.043   8.194
11300SOL    HW135797   7.154   4.068   8.109
11300SOL    HW235798   7.181   4.073   8.258
11301SOL     OW35799  14.784   5.117   8.135
11301SOL    HW135800  14.727   5.077   8.069
11301SOL    HW235801  14.742   5.200   8.155
11302SOL     OW35802   4.451  11.952   4.505
11302SOL    HW135803   4.371  11.921   4.462
11302SOL    HW235804   4.467  11.887   4.574
11303SOL     OW35805   9.537  10.775   2.383
11303SOL    HW135806   9.487  10.714   2.436
11303SOL    HW235807   9.559  10.726   2.304
11304SOL     OW35808   4.116  14.238   2.945
11304SOL    HW135809   4.067  14.156   2.951
11304SOL    HW235810   4.199  14.215   2.905
11305SOL     OW35811   9.593   4.559   8.190
11305SOL    HW135812   9.651   4.508   8.133
11305SOL    HW235813   9.510   4.563   8.143
11306SOL     OW35814   5.211  10.522   5.421
11306SOL    HW135815   5.292  10.572   5.423
11306SOL    HW235816   5.219  10.459   5.493
11307SOL     OW35817   7.635   4.462  12.789
11307SOL    HW135818   7.582   4.443  12.712
11307SOL    HW235819   7.651   4.557  12.785
11308SOL     OW35820   4.345   8.749  10.838
11308SOL    HW135821   4.358   8.841  10.812
11308SOL    HW235822   4.296   8.711  10.765
11309SOL     OW35823  10.867  11.141  11.441
11309SOL    HW135824  10.819  11.142  11.358
11309SOL    HW235825  10.919  11.222  11.439
11310SOL     OW35826   6.678   6.213   8.690
11310SOL    HW135827   6.771   6.190   8.679
11310SOL    HW235828   6.679   6.308   8.703
11311SOL     OW35829  12.290  14.725   0.376
11311SOL    HW135830  12.313  14.716   0.284
11311SOL    HW235831  12.214  14.784   0.376
11312SOL     OW35832  13.983   6.951   6.846
11312SOL    HW135833  13.976   6.949   6.751
11312SOL    HW235834  14.059   7.006   6.864
11313SOL     OW35835   7.884  12.860  13.042
11313SOL    HW135836   7.930  12.847  12.959
11313SOL    HW235837   7.849  12.773  13.063
11314SOL     OW35838   1.922  12.208   3.163
11314SOL    HW135839   1.867  12.257   3.225
11314SOL    HW235840   1.971  12.275   3.116
11315SOL     OW35841  13.660  10.262   9.227
11315SOL    HW135842  13.571  10.247   9.195
11315SOL    HW235843  13.710  10.287   9.150
11316SOL     OW35844   7.450   8.690   0.663
11316SOL    HW135845   7.470   8.779   0.633
11316SOL    HW235846   7.516   8.672   0.730
11317SOL     OW35847   7.713   5.721   7.444
11317SOL    HW135848   7.638   5.769   7.481
11317SOL    HW235849   7.679   5.682   7.364
11318SOL     OW35850   7.159  14.273  10.696
11318SOL    HW135851   7.116  14.201  10.743
11318SOL    HW235852   7.241  14.235  10.664
11319SOL     OW35853  12.148   3.500  12.422
11319SOL    HW135854  12.242   3.516  12.417
11319SOL    HW235855  12.112   3.541  12.343
11320SOL     OW35856   5.457   2.678   0.198
11320SOL    HW135857   5.414   2.704   0.279
11320SOL    HW235858   5.476   2.585   0.210
11321SOL     OW35859   0.984   7.043  14.162
11321SOL    HW135860   1.078   7.049  14.147
11321SOL    HW235861   0.951   6.990  14.089
11322SOL     OW35862   1.514  12.040   3.058
11322SOL    HW135863   1.557  12.115   3.017
11322SOL    HW235864   1.568  12.020   3.135
11323SOL     OW35865   1.966   0.757   9.259
11323SOL    HW135866   2.021   0.836   9.262
11323SOL    HW235867   1.902   0.770   9.329
11324SOL     OW35868   6.574   0.967   3.155
11324SOL    HW135869   6.561   1.011   3.239
11324SOL    HW235870   6.523   0.886   3.162
11325SOL     OW35871   2.232  13.734   8.721
11325SOL    HW135872   2.192  13.767   8.640
11325SOL    HW235873   2.310  13.788   8.733
11326SOL     OW35874   2.483  12.540   4.890
11326SOL    HW135875   2.515  12.615   4.941
11326SOL    HW235876   2.531  12.546   4.807
11327SOL     OW35877  13.909   7.080   0.200
11327SOL    HW135878  13.954   7.065   0.284
11327SOL    HW235879  13.940   7.010   0.143
11328SOL     OW35880   5.407   8.604   0.300
11328SOL    HW135881   5.421   8.661   0.376
11328SOL    HW235882   5.434   8.517   0.331
11329SOL     OW35883  13.842  13.493   7.872
11329SOL    HW135884  13.883  13.485   7.786
11329SOL    HW235885  13.764  13.439   7.867
11330SOL     OW35886   2.722   5.772   2.344
11330SOL    HW135887   2.795   5.713   2.360
11330SOL    HW235888   2.762   5.855   2.320
11331SOL     OW35889   2.262   1.699  13.347
11331SOL    HW135890   2.194   1.710  13.413
11331SOL    HW235891   2.261   1.605  13.329
11332SOL     OW35892  11.320  14.365   3.148
11332SOL    HW135893  11.346  14.402   3.064
11332SOL    HW235894  11.393  14.308   3.173
11333SOL     OW35895  10.854  12.678   5.571
11333SOL    HW135896  10.932  12.657   5.518
11333SOL    HW235897  10.825  12.763   5.538
11334SOL     OW35898   8.433   2.739   9.736
11334SOL    HW135899   8.396   2.670   9.790
11334SOL    HW235900   8.362   2.803   9.726
11335SOL     OW35901   0.012   6.483   9.126
11335SOL    HW135902  14.801   6.470   9.113
11335SOL    HW235903   0.044   6.515   9.041
11336SOL     OW35904  14.377   8.158  12.899
11336SOL    HW135905  14.451   8.110  12.862
11336SOL    HW235906  14.321   8.177  12.824
11337SOL     OW35907   8.857   3.123   8.547
11337SOL    HW135908   8.913   3.112   8.624
11337SOL    HW235909   8.901   3.188   8.494
11338SOL     OW35910   2.030  13.714   6.737
11338SOL    HW135911   1.997  13.684   6.653
11338SOL    HW235912   2.066  13.636   6.779
11339SOL     OW35913   5.797   0.332   8.115
11339SOL    HW135914   5.726   0.352   8.053
11339SOL    HW235915   5.751   0.308   8.196
11340SOL     OW35916   6.247   4.205  11.080
11340SOL    HW135917   6.302   4.143  11.032
11340SOL    HW235918   6.169   4.216  11.025
11341SOL     OW35919  11.990  12.386  11.473
11341SOL    HW135920  11.915  12.325  11.473
11341SOL    HW235921  12.035  12.368  11.390
11342SOL     OW35922   9.809   9.046  11.952
11342SOL    HW135923   9.848   9.103  12.018
11342SOL    HW235924   9.823   9.092  11.869
11343SOL     OW35925   6.020   0.653  14.445
11343SOL    HW135926   6.096   0.685  14.494
11343SOL    HW235927   5.948   0.654  14.508
11344SOL     OW35928   6.581  10.001   3.068
11344SOL    HW135929   6.592  10.082   3.019
11344SOL    HW235930   6.666   9.958   3.065
11345SOL     OW35931   8.558   8.794   3.766
11345SOL    HW135932   8.524   8.708   3.741
11345SOL    HW235933   8.479   8.847   3.779
11346SOL     OW35934   2.858   3.549   5.544
11346SOL    HW135935   2.901   3.519   5.624
11346SOL    HW235936   2.778   3.591   5.574
11347SOL     OW35937  13.520   5.278   9.253
11347SOL    HW135938  13.488   5.189   9.269
11347SOL    HW235939  13.484   5.330   9.324
11348SOL     OW35940  12.143   6.477   2.460
11348SOL    HW135941  12.112   6.508   2.375
11348SOL    HW235942  12.238   6.474   2.451
11349SOL     OW35943   9.537   3.154   9.812
11349SOL    HW135944   9.596   3.092   9.855
11349SOL    HW235945   9.518   3.220   9.878
11350SOL     OW35946   6.065   2.087   9.383
11350SOL    HW135947   5.977   2.105   9.416
11350SOL    HW235948   6.077   2.149   9.311
11351SOL     OW35949   9.534   2.282  13.151
11351SOL    HW135950   9.583   2.206  13.182
11351SOL    HW235951   9.486   2.250  13.075
11352SOL     OW35952  12.777   6.079  14.779
11352SOL    HW135953  12.717   6.066  14.853
11352SOL    HW235954  12.719   6.085  14.703
11353SOL     OW35955   0.194  10.558  10.155
11353SOL    HW135956   0.142  10.535  10.078
11353SOL    HW235957   0.249  10.630  10.126
11354SOL     OW35958   5.018   4.319   0.576
11354SOL    HW135959   5.007   4.414   0.578
11354SOL    HW235960   5.109   4.305   0.601
11355SOL     OW35961  10.664  14.306  13.597
11355SOL    HW135962  10.667  14.212  13.614
11355SOL    HW235963  10.743  14.341  13.639
11356SOL     OW35964  11.852   3.383  11.173
11356SOL    HW135965  11.766   3.341  11.161
11356SOL    HW235966  11.872   3.422  11.088
11357SOL     OW35967  14.197   3.798  11.046
11357SOL    HW135968  14.215   3.859  11.118
11357SOL    HW235969  14.119   3.750  11.075
11358SOL     OW35970   1.490  11.567   2.739
11358SOL    HW135971   1.490  11.502   2.809
11358SOL    HW235972   1.397  11.585   2.723
11359SOL     OW35973   1.243  12.498   9.523
11359SOL    HW135974   1.166  12.551   9.500
11359SOL    HW235975   1.309  12.523   9.458
11360SOL     OW35976   2.838  14.399   6.756
11360SOL    HW135977   2.801  14.347   6.685
11360SOL    HW235978   2.891  14.337   6.806
11361SOL     OW35979   6.211   8.902   7.413
11361SOL    HW135980   6.207   8.807   7.420
11361SOL    HW235981   6.219   8.919   7.319
11362SOL     OW35982   5.328  14.868  12.444
11362SOL    HW135983   5.365   0.019  12.525
11362SOL    HW235984   5.235  14.855  12.463
11363SOL     OW35985   3.315   6.129   1.349
11363SOL    HW135986   3.348   6.179   1.424
11363SOL    HW235987   3.225   6.107   1.372
11364SOL     OW35988   3.339  14.482  14.553
11364SOL    HW135989   3.377  14.455  14.469
11364SOL    HW235990   3.267  14.541  14.528
11365SOL     OW35991   8.622   0.446  11.492
11365SOL    HW135992   8.636   0.377  11.427
11365SOL    HW235993   8.534   0.429  11.526
11366SOL     OW35994   9.928   2.996   9.683
11366SOL    HW135995   9.896   3.081   9.715
11366SOL    HW235996   9.894   2.990   9.594
11367SOL     OW35997   8.734   4.423   7.347
11367SOL    HW135998   8.708   4.515   7.346
11367SOL    HW235999   8.722   4.394   7.256
11368SOL     OW36000  11.301  10.555  11.011
11368SOL    HW136001  11.349  10.614  11.068
11368SOL    HW236002  11.359  10.541  10.936
11369SOL     OW36003   1.611   6.030  10.723
11369SOL    HW136004   1.643   5.943  10.749
11369SOL    HW236005   1.597   6.076  10.806
11370SOL     OW36006   7.186   3.627   8.136
11370SOL    HW136007   7.245   3.670   8.073
11370SOL    HW236008   7.124   3.694   8.161
11371SOL     OW36009   9.303   7.167  13.356
11371SOL    HW136010   9.255   7.148  13.276
11371SOL    HW236011   9.235   7.172  13.424
11372SOL     OW36012   5.187  12.651  10.994
11372SOL    HW136013   5.258  12.609  11.043
11372SOL    HW236014   5.228  12.728  10.954
11373SOL     OW36015   0.395   4.036  13.913
11373SOL    HW136016   0.432   4.086  13.839
11373SOL    HW236017   0.354   4.102  13.969
11374SOL     OW36018   6.989   0.287   0.443
11374SOL    HW136019   7.015   0.253   0.357
11374SOL    HW236020   7.070   0.282   0.495
11375SOL     OW36021   5.777   0.260   7.381
11375SOL    HW136022   5.846   0.194   7.388
11375SOL    HW236023   5.817   0.340   7.415
11376SOL     OW36024   7.472   9.335   3.228
11376SOL    HW136025   7.499   9.312   3.139
11376SOL    HW236026   7.397   9.278   3.245
11377SOL     OW36027   0.589  13.655  14.534
11377SOL    HW136028   0.671  13.607  14.540
11377SOL    HW236029   0.595  13.721  14.603
11378SOL     OW36030  12.659   1.255   8.440
11378SOL    HW136031  12.671   1.343   8.476
11378SOL    HW236032  12.614   1.269   8.357
11379SOL     OW36033  13.951  12.844   7.762
11379SOL    HW136034  13.958  12.762   7.811
11379SOL    HW236035  14.029  12.893   7.787
11380SOL     OW36036   8.508   7.333   4.687
11380SOL    HW136037   8.574   7.289   4.634
11380SOL    HW236038   8.504   7.283   4.768
11381SOL     OW36039   4.630  12.501   3.228
11381SOL    HW136040   4.639  12.539   3.140
11381SOL    HW236041   4.537  12.508   3.248
11382SOL     OW36042  12.649  10.334   1.883
11382SOL    HW136043  12.697  10.406   1.924
11382SOL    HW236044  12.608  10.374   1.806
11383SOL     OW36045  14.389   9.939   0.281
11383SOL    HW136046  14.394   9.862   0.337
11383SOL    HW236047  14.450  10.001   0.321
11384SOL     OW36048   8.844   1.360  14.490
11384SOL    HW136049   8.927   1.402  14.512
11384SOL    HW236050   8.825   1.390  14.401
11385SOL     OW36051   4.028  11.100   0.838
11385SOL    HW136052   4.066  11.187   0.824
11385SOL    HW236053   4.058  11.048   0.764
11386SOL     OW36054  11.361   3.813  10.186
11386SOL    HW136055  11.316   3.872  10.246
11386SOL    HW236056  11.382   3.736  10.239
11387SOL     OW36057  12.574   0.219  12.284
11387SOL    HW136058  12.662   0.253  12.303
11387SOL    HW236059  12.525   0.234  12.365
11388SOL     OW36060   4.255  11.796   4.396
11388SOL    HW136061   4.209  11.866   4.349
11388SOL    HW236062   4.186  11.732   4.416
11389SOL     OW36063  13.196   0.990   8.224
11389SOL    HW136064  13.272   0.955   8.177
11389SOL    HW236065  13.140   1.027   8.156
11390SOL     OW36066   8.180   6.067   2.082
11390SOL    HW136067   8.160   6.129   2.011
11390SOL    HW236068   8.116   6.087   2.149
11391SOL     OW36069   4.830   7.229   8.188
11391SOL    HW136070   4.865   7.314   8.162
11391SOL    HW236071   4.771   7.205   8.117
11392SOL     OW36072  12.883   2.393   4.934
11392SOL    HW136073  12.905   2.306   4.901
11392SOL    HW236074  12.908   2.392   5.026
11393SOL     OW36075   7.111   6.275   0.670
11393SOL    HW136076   7.078   6.304   0.585
11393SOL    HW236077   7.151   6.190   0.654
11394SOL     OW36078  10.078  14.767  12.854
11394SOL    HW136079  10.071  14.715  12.934
11394SOL    HW236080   9.998  14.819  12.852
11395SOL     OW36081   8.542   6.999   4.440
11395SOL    HW136082   8.541   6.949   4.521
11395SOL    HW236083   8.615   6.961   4.390
11396SOL     OW36084   5.248   2.207   5.554
11396SOL    HW136085   5.237   2.177   5.645
11396SOL    HW236086   5.198   2.288   5.549
11397SOL     OW36087   3.262   7.540   9.603
11397SOL    HW136088   3.319   7.539   9.526
11397SOL    HW236089   3.173   7.530   9.567
11398SOL     OW36090   5.480  12.217   3.746
11398SOL    HW136091   5.541  12.177   3.685
11398SOL    HW236092   5.505  12.310   3.748
11399SOL     OW36093   1.553  14.408  10.858
11399SOL    HW136094   1.582  14.385  10.946
11399SOL    HW236095   1.476  14.352  10.843
11400SOL     OW36096  11.508  13.030   0.572
11400SOL    HW136097  11.561  13.002   0.498
11400SOL    HW236098  11.434  13.077   0.532
11401SOL     OW36099   4.813  10.255   6.299
11401SOL    HW136100   4.817  10.275   6.205
11401SOL    HW236101   4.894  10.208   6.317
11402SOL     OW36102  10.261   8.649   2.062
11402SOL    HW136103  10.181   8.696   2.086
11402SOL    HW236104  10.330   8.694   2.111
11403SOL     OW36105   5.304  12.586   2.838
11403SOL    HW136106   5.261  12.654   2.891
11403SOL    HW236107   5.315  12.513   2.898
11404SOL     OW36108  10.158  10.387   5.421
11404SOL    HW136109  10.128  10.461   5.369
11404SOL    HW236110  10.082  10.361   5.472
11405SOL     OW36111  12.733   8.966  12.292
11405SOL    HW136112  12.684   8.913  12.230
11405SOL    HW236113  12.765   9.040  12.240
11406SOL     OW36114   3.513   2.734   3.603
11406SOL    HW136115   3.436   2.680   3.584
11406SOL    HW236116   3.508   2.806   3.540
11407SOL     OW36117   4.923   0.276   4.644
11407SOL    HW136118   4.974   0.203   4.612
11407SOL    HW236119   4.949   0.285   4.736
11408SOL     OW36120   8.035   6.341   6.611
11408SOL    HW136121   8.098   6.280   6.650
11408SOL    HW236122   7.969   6.285   6.571
11409SOL     OW36123   4.451   5.660   5.189
11409SOL    HW136124   4.418   5.657   5.279
11409SOL    HW236125   4.508   5.737   5.187
11410SOL     OW36126  10.767   8.123   5.601
11410SOL    HW136127  10.844   8.151   5.552
11410SOL    HW236128  10.787   8.033   5.628
11411SOL     OW36129   1.488  14.262  14.388
11411SOL    HW136130   1.512  14.290  14.300
11411SOL    HW236131   1.392  14.260  14.388
11412SOL     OW36132  13.154   5.185   3.325
11412SOL    HW136133  13.067   5.212   3.355
11412SOL    HW236134  13.181   5.118   3.388
11413SOL     OW36135  11.910  10.543   5.625
11413SOL    HW136136  12.003  10.556   5.604
11413SOL    HW236137  11.911  10.505   5.713
11414SOL     OW36138  10.120   0.991  11.821
11414SOL    HW136139  10.094   1.080  11.846
11414SOL    HW236140  10.212   0.985  11.848
11415SOL     OW36141  13.251   7.613   7.946
11415SOL    HW136142  13.341   7.632   7.920
11415SOL    HW236143  13.254   7.523   7.980
11416SOL     OW36144  14.194  12.585   9.226
11416SOL    HW136145  14.233  12.650   9.169
11416SOL    HW236146  14.100  12.593   9.211
11417SOL     OW36147   4.189   3.360   8.095
11417SOL    HW136148   4.268   3.316   8.062
11417SOL    HW236149   4.216   3.396   8.180
11418SOL     OW36150  11.242   6.403   7.584
11418SOL    HW136151  11.197   6.465   7.527
11418SOL    HW236152  11.203   6.417   7.670
11419SOL     OW36153  11.122  14.835   4.690
11419SOL    HW136154  11.079   0.027   4.732
11419SOL    HW236155  11.072  14.821   4.609
11420SOL     OW36156   8.296  10.595  12.821
11420SOL    HW136157   8.222  10.645  12.788
11420SOL    HW236158   8.293  10.513  12.773
11421SOL     OW36159  11.253  11.264   0.905
11421SOL    HW136160  11.288  11.175   0.895
11421SOL    HW236161  11.316  11.320   0.858
11422SOL     OW36162   2.130  13.368   3.088
11422SOL    HW136163   2.147  13.346   2.996
11422SOL    HW236164   2.040  13.339   3.103
11423SOL     OW36165   5.333   4.135   9.776
11423SOL    HW136166   5.283   4.053   9.769
11423SOL    HW236167   5.277   4.193   9.828
11424SOL     OW36168   2.752  12.365  11.133
11424SOL    HW136169   2.815  12.300  11.103
11424SOL    HW236170   2.726  12.336  11.220
11425SOL     OW36171   1.095   4.330   1.539
11425SOL    HW136172   1.108   4.418   1.504
11425SOL    HW236173   1.052   4.344   1.623
11426SOL     OW36174  14.299   6.465  13.100
11426SOL    HW136175  14.384   6.435  13.068
11426SOL    HW236176  14.252   6.494  13.022
11427SOL     OW36177   2.327  10.295  12.889
11427SOL    HW136178   2.317  10.252  12.805
11427SOL    HW236179   2.253  10.265  12.942
11428SOL     OW36180   5.020   0.740   3.875
11428SOL    HW136181   5.115   0.734   3.879
11428SOL    HW236182   4.989   0.654   3.905
11429SOL     OW36183   9.565  12.732  13.247
11429SOL    HW136184   9.632  12.760  13.310
11429SOL    HW236185   9.547  12.641  13.270
11430SOL     OW36186   7.057   8.038   4.018
11430SOL    HW136187   7.108   7.957   4.009
11430SOL    HW236188   7.040   8.064   3.927
11431SOL     OW36189   0.050   7.240  14.488
11431SOL    HW136190  14.868   7.245  14.559
11431SOL    HW236191   0.093   7.155  14.500
11432SOL     OW36192   2.281   6.189   2.427
11432SOL    HW136193   2.321   6.202   2.340
11432SOL    HW236194   2.189   6.169   2.408
11433SOL     OW36195  12.780   2.908   6.037
11433SOL    HW136196  12.763   2.866   6.121
11433SOL    HW236197  12.830   2.986   6.059
11434SOL     OW36198   0.747  12.417   5.279
11434SOL    HW136199   0.807  12.456   5.216
11434SOL    HW236200   0.792  12.337   5.308
11435SOL     OW36201  11.676   4.870   0.839
11435SOL    HW136202  11.659   4.964   0.832
11435SOL    HW236203  11.591   4.832   0.863
11436SOL     OW36204   4.923   5.188  10.816
11436SOL    HW136205   4.861   5.217  10.749
11436SOL    HW236206   4.954   5.103  10.784
11437SOL     OW36207  10.698   2.150  14.441
11437SOL    HW136208  10.681   2.125  14.532
11437SOL    HW236209  10.791   2.174  14.440
11438SOL     OW36210  14.313   0.062  14.431
11438SOL    HW136211  14.400   0.030  14.407
11438SOL    HW236212  14.330   0.141  14.483
11439SOL     OW36213  10.235  13.150  11.218
11439SOL    HW136214  10.231  13.125  11.126
11439SOL    HW236215  10.329  13.154  11.238
11440SOL     OW36216  10.708  14.615   8.124
11440SOL    HW136217  10.724  14.541   8.183
11440SOL    HW236218  10.640  14.583   8.064
11441SOL     OW36219  13.479  10.653   6.553
11441SOL    HW136220  13.403  10.710   6.536
11441SOL    HW236221  13.478  10.639   6.648
11442SOL     OW36222   1.016   6.830   5.844
11442SOL    HW136223   0.927   6.794   5.836
11442SOL    HW236224   1.004   6.912   5.892
11443SOL     OW36225   0.591  10.608  13.672
11443SOL    HW136226   0.623  10.634  13.585
11443SOL    HW236227   0.556  10.519  13.658
11444SOL     OW36228   0.621  13.241   2.213
11444SOL    HW136229   0.567  13.176   2.259
11444SOL    HW236230   0.661  13.293   2.283
11445SOL     OW36231   6.195  11.891  11.124
11445SOL    HW136232   6.171  11.973  11.167
11445SOL    HW236233   6.152  11.823  11.174
11446SOL     OW36234   7.412   7.440   1.767
11446SOL    HW136235   7.396   7.511   1.830
11446SOL    HW236236   7.493   7.466   1.723
11447SOL     OW36237   1.792   6.062   2.066
11447SOL    HW136238   1.883   6.089   2.079
11447SOL    HW236239   1.789   5.972   2.100
11448SOL     OW36240  14.574   6.106   3.074
11448SOL    HW136241  14.618   6.034   3.119
11448SOL    HW236242  14.610   6.105   2.985
11449SOL     OW36243   9.232   7.760  10.312
11449SOL    HW136244   9.221   7.694  10.381
11449SOL    HW236245   9.144   7.773  10.277
11450SOL     OW36246   2.424   6.166   5.050
11450SOL    HW136247   2.399   6.258   5.045
11450SOL    HW236248   2.351   6.120   5.009
11451SOL     OW36249   6.179  11.049   6.538
11451SOL    HW136250   6.170  11.006   6.623
11451SOL    HW236251   6.225  10.985   6.483
11452SOL     OW36252   4.339  12.522   2.720
11452SOL    HW136253   4.257  12.556   2.754
11452SOL    HW236254   4.374  12.592   2.665
11453SOL     OW36255   5.656   1.017   7.857
11453SOL    HW136256   5.681   0.979   7.941
11453SOL    HW236257   5.738   1.048   7.819
11454SOL     OW36258   9.610   6.776   4.440
11454SOL    HW136259   9.597   6.853   4.386
11454SOL    HW236260   9.522   6.737   4.449
11455SOL     OW36261   9.268   4.503   3.036
11455SOL    HW136262   9.353   4.477   2.999
11455SOL    HW236263   9.261   4.453   3.117
11456SOL     OW36264   2.468  12.098  12.771
11456SOL    HW136265   2.461  12.016  12.820
11456SOL    HW236266   2.408  12.157  12.816
11457SOL     OW36267  10.269   2.538   9.258
11457SOL    HW136268  10.218   2.559   9.337
11457SOL    HW236269  10.360   2.547   9.285
11458SOL     OW36270  10.237   1.231   1.624
11458SOL    HW136271  10.274   1.236   1.712
11458SOL    HW236272  10.205   1.142   1.616
11459SOL     OW36273  10.280   4.207   7.366
11459SOL    HW136274  10.305   4.282   7.420
11459SOL    HW236275  10.306   4.232   7.277
11460SOL     OW36276   6.239  11.021   8.086
11460SOL    HW136277   6.158  10.969   8.078
11460SOL    HW236278   6.208  11.111   8.096
11461SOL     OW36279   2.747   4.716   4.987
11461SOL    HW136280   2.747   4.693   5.080
11461SOL    HW236281   2.712   4.638   4.943
11462SOL     OW36282   5.684   2.496   3.779
11462SOL    HW136283   5.721   2.418   3.822
11462SOL    HW236284   5.592   2.474   3.765
11463SOL     OW36285   2.364   8.619   1.059
11463SOL    HW136286   2.432   8.686   1.059
11463SOL    HW236287   2.285   8.665   1.088
11464SOL     OW36288   2.185   7.371   2.838
11464SOL    HW136289   2.105   7.400   2.881
11464SOL    HW236290   2.164   7.372   2.745
11465SOL     OW36291  12.299  13.166  12.685
11465SOL    HW136292  12.311  13.164  12.590
11465SOL    HW236293  12.298  13.074  12.711
11466SOL     OW36294   4.144   3.390   5.762
11466SOL    HW136295   4.201   3.345   5.824
11466SOL    HW236296   4.198   3.459   5.724
11467SOL     OW36297   8.499   7.136  14.656
11467SOL    HW136298   8.483   7.168  14.567
11467SOL    HW236299   8.469   7.045  14.654
11468SOL     OW36300   1.991   5.247   1.409
11468SOL    HW136301   2.008   5.153   1.421
11468SOL    HW236302   2.068   5.290   1.446
11469SOL     OW36303   4.553   6.750   4.735
11469SOL    HW136304   4.599   6.718   4.812
11469SOL    HW236305   4.479   6.691   4.725
11470SOL     OW36306   6.551   7.070   6.768
11470SOL    HW136307   6.480   7.036   6.823
11470SOL    HW236308   6.625   7.081   6.828
11471SOL     OW36309   9.691   2.552   0.881
11471SOL    HW136310   9.704   2.549   0.787
11471SOL    HW236311   9.650   2.637   0.897
11472SOL     OW36312  13.312   5.238  12.316
11472SOL    HW136313  13.263   5.315  12.286
11472SOL    HW236314  13.359   5.268  12.393
11473SOL     OW36315   2.238   5.324   6.964
11473SOL    HW136316   2.238   5.242   6.915
11473SOL    HW236317   2.164   5.373   6.929
11474SOL     OW36318   7.982   9.643   3.191
11474SOL    HW136319   7.981   9.603   3.104
11474SOL    HW236320   8.006   9.735   3.175
11475SOL     OW36321   3.465   4.502   8.062
11475SOL    HW136322   3.462   4.575   8.000
11475SOL    HW236323   3.383   4.507   8.110
11476SOL     OW36324   6.475  11.944   9.869
11476SOL    HW136325   6.436  11.914   9.787
11476SOL    HW236326   6.537  11.875   9.893
11477SOL     OW36327  12.139   4.613   8.996
11477SOL    HW136328  12.079   4.555   8.950
11477SOL    HW236329  12.115   4.701   8.965
11478SOL     OW36330   7.467   6.387   7.089
11478SOL    HW136331   7.548   6.354   7.051
11478SOL    HW236332   7.456   6.338   7.170
11479SOL     OW36333   0.645  12.992  10.345
11479SOL    HW136334   0.657  13.064  10.283
11479SOL    HW236335   0.568  12.945  10.313
11480SOL     OW36336   4.074  10.091   0.538
11480SOL    HW136337   4.141  10.132   0.593
11480SOL    HW236338   4.089   9.997   0.550
11481SOL     OW36339   4.687   7.376   2.989
11481SOL    HW136340   4.706   7.319   2.915
11481SOL    HW236341   4.688   7.464   2.952
11482SOL     OW36342  13.619   8.458  12.175
11482SOL    HW136343  13.660   8.372  12.183
11482SOL    HW236344  13.688   8.521  12.195
11483SOL     OW36345   6.536   4.117   1.614
11483SOL    HW136346   6.472   4.186   1.633
11483SOL    HW236347   6.487   4.053   1.562
11484SOL     OW36348   4.693  12.857   8.136
11484SOL    HW136349   4.776  12.817   8.109
11484SOL    HW236350   4.699  12.864   8.231
11485SOL     OW36351   7.236   3.280   7.685
11485SOL    HW136352   7.197   3.193   7.678
11485SOL    HW236353   7.256   3.304   7.594
11486SOL     OW36354  12.768  11.699  13.785
11486SOL    HW136355  12.819  11.681  13.706
11486SOL    HW236356  12.832  11.692  13.857
11487SOL     OW36357  10.815   6.996   4.625
11487SOL    HW136358  10.750   7.029   4.687
11487SOL    HW236359  10.766   6.937   4.568
11488SOL     OW36360   3.242   5.051  12.680
11488SOL    HW136361   3.285   5.129  12.646
11488SOL    HW236362   3.297   5.023  12.754
11489SOL     OW36363  14.336   6.887   8.061
11489SOL    HW136364  14.250   6.930   8.053
11489SOL    HW236365  14.384   6.940   8.124
11490SOL     OW36366  11.476   6.111  14.803
11490SOL    HW136367  11.472   6.156   0.005
11490SOL    HW236368  11.412   6.040  14.812
11491SOL     OW36369   0.753   8.205   7.205
11491SOL    HW136370   0.841   8.168   7.207
11491SOL    HW236371   0.742   8.245   7.291
11492SOL     OW36372  12.407  13.055   3.887
11492SOL    HW136373  12.459  13.044   3.808
11492SOL    HW236374  12.393  13.149   3.893
11493SOL     OW36375   9.871  14.679   1.528
11493SOL    HW136376   9.878  14.759   1.477
11493SOL    HW236377   9.958  14.640   1.524
11494SOL     OW36378   5.069   0.612  10.323
11494SOL    HW136379   4.996   0.674  10.319
11494SOL    HW236380   5.063   0.573  10.410
11495SOL     OW36381   0.463  10.768   9.560
11495SOL    HW136382   0.514  10.840   9.598
11495SOL    HW236383   0.529  10.707   9.526
11496SOL     OW36384   5.115   2.494   0.498
11496SOL    HW136385   5.083   2.439   0.426
11496SOL    HW236386   5.149   2.572   0.454
11497SOL     OW36387   0.498  13.260   7.900
11497SOL    HW136388   0.495  13.288   7.992
11497SOL    HW236389   0.455  13.175   7.899
11498SOL     OW36390  12.318   7.162   1.551
11498SOL    HW136391  12.327   7.074   1.586
11498SOL    HW236392  12.279   7.212   1.622
11499SOL     OW36393  14.004   7.326   0.101
11499SOL    HW136394  13.980   7.243   0.143
11499SOL    HW236395  14.087   7.308   0.057
11500SOL     OW36396   0.220   9.890  13.086
11500SOL    HW136397   0.315   9.900  13.081
11500SOL    HW236398   0.207   9.796  13.098
11501SOL     OW36399  12.401  10.337  11.524
11501SOL    HW136400  12.381  10.413  11.469
11501SOL    HW236401  12.322  10.325  11.576
11502SOL     OW36402   6.026  13.183   5.093
11502SOL    HW136403   6.020  13.234   5.173
11502SOL    HW236404   6.017  13.092   5.122
11503SOL     OW36405   7.460   3.860  11.256
11503SOL    HW136406   7.462   3.901  11.170
11503SOL    HW236407   7.538   3.803  11.257
11504SOL     OW36408  11.563   1.194   4.183
11504SOL    HW136409  11.654   1.209   4.158
11504SOL    HW236410  11.516   1.192   4.100
11505SOL     OW36411   8.127  12.266   6.131
11505SOL    HW136412   8.210  12.305   6.102
11505SOL    HW236413   8.114  12.301   6.219
11506SOL     OW36414  10.161   5.458   3.575
11506SOL    HW136415  10.237   5.494   3.621
11506SOL    HW236416  10.089   5.518   3.595
11507SOL     OW36417  14.217   5.593  10.231
11507SOL    HW136418  14.266   5.568  10.153
11507SOL    HW236419  14.279   5.643  10.283
11508SOL     OW36420   7.847  10.092   9.077
11508SOL    HW136421   7.847  10.092   8.981
11508SOL    HW236422   7.754  10.090   9.101
11509SOL     OW36423   4.285   2.674   6.308
11509SOL    HW136424   4.201   2.664   6.354
11509SOL    HW236425   4.275   2.621   6.229
11510SOL     OW36426   0.239   1.556   9.555
11510SOL    HW136427   0.290   1.622   9.507
11510SOL    HW236428   0.165   1.536   9.498
11511SOL     OW36429   6.585  11.553  11.185
11511SOL    HW136430   6.658  11.496  11.161
11511SOL    HW236431   6.626  11.638  11.204
11512SOL     OW36432  12.096  11.935   9.497
11512SOL    HW136433  12.150  12.014   9.491
11512SOL    HW236434  12.146  11.867   9.452
11513SOL     OW36435   2.563   0.543   3.568
11513SOL    HW136436   2.572   0.632   3.602
11513SOL    HW236437   2.473   0.539   3.535
11514SOL     OW36438   4.050   5.310  13.797
11514SOL    HW136439   4.067   5.362  13.718
11514SOL    HW236440   4.005   5.232  13.765
11515SOL     OW36441   1.067   0.205  12.980
11515SOL    HW136442   1.104   0.116  12.979
11515SOL    HW236443   0.980   0.194  13.018
11516SOL     OW36444  12.672   3.216   3.249
11516SOL    HW136445  12.702   3.127   3.267
11516SOL    HW236446  12.590   3.205   3.201
11517SOL     OW36447   2.140   7.287   7.337
11517SOL    HW136448   2.195   7.364   7.347
11517SOL    HW236449   2.134   7.273   7.242
11518SOL     OW36450   5.185   7.799  13.337
11518SOL    HW136451   5.218   7.829  13.252
11518SOL    HW236452   5.121   7.866  13.362
11519SOL     OW36453   8.475   7.962   3.166
11519SOL    HW136454   8.383   7.967   3.137
11519SOL    HW236455   8.483   8.029   3.234
11520SOL     OW36456   5.848   2.178   1.436
11520SOL    HW136457   5.892   2.097   1.411
11520SOL    HW236458   5.816   2.161   1.525
11521SOL     OW36459   1.645   1.301   4.714
11521SOL    HW136460   1.585   1.367   4.679
11521SOL    HW236461   1.688   1.264   4.637
11522SOL     OW36462   6.921  11.560   5.221
11522SOL    HW136463   6.889  11.648   5.242
11522SOL    HW236464   6.846  11.503   5.235
11523SOL     OW36465  14.403   5.727  10.404
11523SOL    HW136466  14.339   5.696  10.468
11523SOL    HW236467  14.386   5.820  10.395
11524SOL     OW36468   0.299   7.777   2.928
11524SOL    HW136469   0.314   7.870   2.945
11524SOL    HW236470   0.380   7.735   2.956
11525SOL     OW36471   5.025   5.037   8.072
11525SOL    HW136472   5.085   5.018   8.000
11525SOL    HW236473   5.066   4.997   8.149
11526SOL     OW36474  11.964   9.897   6.154
11526SOL    HW136475  11.980   9.988   6.176
11526SOL    HW236476  11.872   9.895   6.125
11527SOL     OW36477  12.585   6.274   8.040
11527SOL    HW136478  12.658   6.216   8.060
11527SOL    HW236479  12.542   6.234   7.965
11528SOL     OW36480   2.489  11.485   1.580
11528SOL    HW136481   2.510  11.577   1.567
11528SOL    HW236482   2.465  11.453   1.492
11529SOL     OW36483   2.550   2.885   4.004
11529SOL    HW136484   2.604   2.961   3.984
11529SOL    HW236485   2.609   2.810   3.993
11530SOL     OW36486   6.949  10.223   4.582
11530SOL    HW136487   6.965  10.163   4.655
11530SOL    HW236488   7.002  10.300   4.602
11531SOL     OW36489   6.382   6.193   9.219
11531SOL    HW136490   6.426   6.162   9.298
11531SOL    HW236491   6.324   6.121   9.195
11532SOL     OW36492  11.488   0.851  12.356
11532SOL    HW136493  11.470   0.875  12.447
11532SOL    HW236494  11.552   0.781  12.362
11533SOL     OW36495   2.046   2.849  14.041
11533SOL    HW136496   2.100   2.906  13.986
11533SOL    HW236497   2.079   2.761  14.023
11534SOL     OW36498   8.822  14.376  13.184
11534SOL    HW136499   8.822  14.469  13.158
11534SOL    HW236500   8.915  14.356  13.197
11535SOL     OW36501  11.804  12.055   2.011
11535SOL    HW136502  11.727  12.107   1.985
11535SOL    HW236503  11.781  12.021   2.098
11536SOL     OW36504   3.823   5.917  12.045
11536SOL    HW136505   3.911   5.885  12.064
11536SOL    HW236506   3.831   6.012  12.044
11537SOL     OW36507  11.839   9.035   4.300
11537SOL    HW136508  11.747   9.011   4.290
11537SOL    HW236509  11.837   9.127   4.328
11538SOL     OW36510  13.916   8.279   7.580
11538SOL    HW136511  13.955   8.316   7.501
11538SOL    HW236512  13.915   8.351   7.643
11539SOL     OW36513   1.376   7.960   4.176
11539SOL    HW136514   1.357   7.869   4.197
11539SOL    HW236515   1.419   7.994   4.254
11540SOL     OW36516   4.333   2.256   9.345
11540SOL    HW136517   4.314   2.171   9.304
11540SOL    HW236518   4.301   2.320   9.281
11541SOL     OW36519   8.785   9.254  10.413
11541SOL    HW136520   8.852   9.313  10.379
11541SOL    HW236521   8.769   9.193  10.341
11542SOL     OW36522   5.111   2.979  14.076
11542SOL    HW136523   5.122   3.038  14.150
11542SOL    HW236524   5.037   2.923  14.100
11543SOL     OW36525   1.732   3.469  13.725
11543SOL    HW136526   1.745   3.437  13.814
11543SOL    HW236527   1.819   3.465  13.685
11544SOL     OW36528   6.771   3.638   5.986
11544SOL    HW136529   6.768   3.597   6.072
11544SOL    HW236530   6.688   3.685   5.978
11545SOL     OW36531   3.794   4.455  12.755
11545SOL    HW136532   3.802   4.404  12.675
11545SOL    HW236533   3.710   4.500  12.746
11546SOL     OW36534   8.821   7.344  14.699
11546SOL    HW136535   8.881   7.418  14.694
11546SOL    HW236536   8.738   7.382  14.730
11547SOL     OW36537  12.221   0.404   1.433
11547SOL    HW136538  12.289   0.399   1.500
11547SOL    HW236539  12.140   0.418   1.483
11548SOL     OW36540   7.904  11.754   7.300
11548SOL    HW136541   7.819  11.795   7.316
11548SOL    HW236542   7.906  11.679   7.358
11549SOL     OW36543   4.166   5.804  14.457
11549SOL    HW136544   4.073   5.827  14.457
11549SOL    HW236545   4.185   5.783  14.366
11550SOL     OW36546   5.568   9.542   2.535
11550SOL    HW136547   5.577   9.449   2.558
11550SOL    HW236548   5.551   9.542   2.441
11551SOL     OW36549  13.358  14.830   6.372
11551SOL    HW136550  13.403  14.844   6.456
11551SOL    HW236551  13.315  14.745   6.383
11552SOL     OW36552   4.368  11.618  12.761
11552SOL    HW136553   4.369  11.714  12.765
11552SOL    HW236554   4.439  11.597  12.699
11553SOL     OW36555  14.835  11.741   5.935
11553SOL    HW136556  14.763  11.687   5.966
11553SOL    HW236557  14.806  11.831   5.952
11554SOL     OW36558   1.645  14.754  10.139
11554SOL    HW136559   1.695  14.835  10.134
11554SOL    HW236560   1.617  14.738  10.048
11555SOL     OW36561  12.939  13.096   2.480
11555SOL    HW136562  12.979  13.031   2.423
11555SOL    HW236563  12.869  13.049   2.524
11556SOL     OW36564   4.726   6.130   9.456
11556SOL    HW136565   4.702   6.222   9.462
11556SOL    HW236566   4.763   6.120   9.369
11557SOL     OW36567   5.646   3.567   7.889
11557SOL    HW136568   5.568   3.594   7.938
11557SOL    HW236569   5.719   3.604   7.939
11558SOL     OW36570   5.408   6.083  11.235
11558SOL    HW136571   5.491   6.093  11.187
11558SOL    HW236572   5.435   6.070  11.326
11559SOL     OW36573   7.195   5.215  10.180
11559SOL    HW136574   7.146   5.275  10.124
11559SOL    HW236575   7.268   5.267  10.214
11560SOL     OW36576   9.841   0.669   0.508
11560SOL    HW136577   9.826   0.756   0.471
11560SOL    HW236578   9.754   0.632   0.521
11561SOL     OW36579   7.219   9.251  14.654
11561SOL    HW136580   7.139   9.217  14.693
11561SOL    HW236581   7.213   9.226  14.562
11562SOL     OW36582   6.903  12.480   0.883
11562SOL    HW136583   6.964  12.470   0.956
11562SOL    HW236584   6.825  12.519   0.922
11563SOL     OW36585  12.231   2.871   8.022
11563SOL    HW136586  12.193   2.934   8.083
11563SOL    HW236587  12.323   2.898   8.013
11564SOL     OW36588   5.255  11.155   4.026
11564SOL    HW136589   5.227  11.245   4.010
11564SOL    HW236590   5.193  11.122   4.091
11565SOL     OW36591   8.900  10.018  11.253
11565SOL    HW136592   8.844   9.965  11.309
11565SOL    HW236593   8.989   9.990  11.275
11566SOL     OW36594   9.227   0.071   8.063
11566SOL    HW136595   9.289   0.137   8.032
11566SOL    HW236596   9.150   0.082   8.008
11567SOL     OW36597   9.571   1.362   5.743
11567SOL    HW136598   9.553   1.303   5.670
11567SOL    HW236599   9.525   1.324   5.817
11568SOL     OW36600   6.600   2.311   0.163
11568SOL    HW136601   6.608   2.387   0.105
11568SOL    HW236602   6.592   2.237   0.103
11569SOL     OW36603  14.357   0.255  11.612
11569SOL    HW136604  14.376   0.338  11.569
11569SOL    HW236605  14.436   0.203  11.599
11570SOL     OW36606   7.026  12.563   4.753
11570SOL    HW136607   7.086  12.636   4.767
11570SOL    HW236608   7.026  12.516   4.837
11571SOL     OW36609   6.674   6.692   3.277
11571SOL    HW136610   6.766   6.676   3.298
11571SOL    HW236611   6.625   6.650   3.347
11572SOL     OW36612  14.025   6.974   0.432
11572SOL    HW136613  13.975   7.020   0.500
11572SOL    HW236614  13.961   6.918   0.389
11573SOL     OW36615   8.832  14.190   4.984
11573SOL    HW136616   8.905  14.251   4.996
11573SOL    HW236617   8.873  14.106   4.964
11574SOL     OW36618   6.208  10.760   6.901
11574SOL    HW136619   6.248  10.673   6.908
11574SOL    HW236620   6.263  10.816   6.955
11575SOL     OW36621   6.259   6.580   3.375
11575SOL    HW136622   6.351   6.575   3.402
11575SOL    HW236623   6.233   6.670   3.395
11576SOL     OW36624   1.618  13.715   5.698
11576SOL    HW136625   1.678  13.783   5.669
11576SOL    HW236626   1.664  13.633   5.685
11577SOL     OW36627   9.647   9.825  11.044
11577SOL    HW136628   9.717   9.878  11.083
11577SOL    HW236629   9.595   9.886  10.992
11578SOL     OW36630   5.032  12.074  13.027
11578SOL    HW136631   5.077  12.012  12.970
11578SOL    HW236632   4.941  12.071  12.998
11579SOL     OW36633  10.884   1.242   3.075
11579SOL    HW136634  10.957   1.183   3.057
11579SOL    HW236635  10.806   1.192   3.053
11580SOL     OW36636  12.273   7.765  12.419
11580SOL    HW136637  12.239   7.759  12.508
11580SOL    HW236638  12.204   7.810  12.370
11581SOL     OW36639   2.892   6.115  10.803
11581SOL    HW136640   2.942   6.036  10.823
11581SOL    HW236641   2.952   6.170  10.754
11582SOL     OW36642   2.946   5.650   6.920
11582SOL    HW136643   2.961   5.742   6.943
11582SOL    HW236644   2.971   5.601   6.998
11583SOL     OW36645   7.470   5.606   5.186
11583SOL    HW136646   7.451   5.693   5.221
11583SOL    HW236647   7.532   5.622   5.115
11584SOL     OW36648   2.795  10.738  11.164
11584SOL    HW136649   2.853  10.809  11.136
11584SOL    HW236650   2.788  10.682  11.087
11585SOL     OW36651  10.036   3.299   0.075
11585SOL    HW136652  10.072   3.319  14.870
11585SOL    HW236653  10.099   3.338   0.136
11586SOL     OW36654  13.810   7.020  12.907
11586SOL    HW136655  13.820   7.106  12.948
11586SOL    HW236656  13.744   7.034  12.839
11587SOL     OW36657  10.459   0.090   1.838
11587SOL    HW136658  10.501   0.005   1.846
11587SOL    HW236659  10.370   0.077   1.872
11588SOL     OW36660  12.077  14.574  13.890
11588SOL    HW136661  12.060  14.485  13.921
11588SOL    HW236662  12.083  14.566  13.795
11589SOL     OW36663   7.225  13.961   5.560
11589SOL    HW136664   7.230  13.884   5.617
11589SOL    HW236665   7.232  13.925   5.472
11590SOL     OW36666  12.800  12.800   8.529
11590SOL    HW136667  12.870  12.740   8.503
11590SOL    HW236668  12.804  12.871   8.466
11591SOL     OW36669   6.964   1.458   7.871
11591SOL    HW136670   7.050   1.468   7.830
11591SOL    HW236671   6.913   1.406   7.809
11592SOL     OW36672  14.665   3.903   8.332
11592SOL    HW136673  14.659   3.829   8.271
11592SOL    HW236674  14.730   3.961   8.292
11593SOL     OW36675   3.623   0.997   4.375
11593SOL    HW136676   3.634   0.903   4.384
11593SOL    HW236677   3.687   1.023   4.310
11594SOL     OW36678   0.694  10.777   0.609
11594SOL    HW136679   0.617  10.773   0.665
11594SOL    HW236680   0.691  10.863   0.568
11595SOL     OW36681   6.136  11.882   9.148
11595SOL    HW136682   6.107  11.828   9.222
11595SOL    HW236683   6.225  11.851   9.131
11596SOL     OW36684  10.305   4.957   6.303
11596SOL    HW136685  10.368   4.926   6.238
11596SOL    HW236686  10.357   5.011   6.363
11597SOL     OW36687   0.899   1.217  13.326
11597SOL    HW136688   0.976   1.241  13.378
11597SOL    HW236689   0.926   1.137  13.281
11598SOL     OW36690   8.093   1.065   0.645
11598SOL    HW136691   8.104   0.975   0.615
11598SOL    HW236692   8.166   1.081   0.704
11599SOL     OW36693   0.655   0.037   0.266
11599SOL    HW136694   0.579  14.875   0.228
11599SOL    HW236695   0.674  14.869   0.346
11600SOL     OW36696   9.058   1.555  14.513
11600SOL    HW136697   9.022   1.598  14.436
11600SOL    HW236698   9.128   1.613  14.542
11601SOL     OW36699   2.752  13.031   2.129
11601SOL    HW136700   2.750  12.964   2.198
11601SOL    HW236701   2.846  13.050   2.118
11602SOL     OW36702  14.307   9.497   4.903
11602SOL    HW136703  14.348   9.439   4.839
11602SOL    HW236704  14.267   9.566   4.850
11603SOL     OW36705   8.806  12.263   3.840
11603SOL    HW136706   8.885  12.278   3.893
11603SOL    HW236707   8.838  12.219   3.761
11604SOL     OW36708  14.857  10.487   1.942
11604SOL    HW136709  14.824  10.480   1.852
11604SOL    HW236710   0.067  10.511   1.932
11605SOL     OW36711  12.541  13.558   8.625
11605SOL    HW136712  12.595  13.543   8.548
11605SOL    HW236713  12.495  13.640   8.606
11606SOL     OW36714   4.304  12.707   7.386
11606SOL    HW136715   4.381  12.722   7.442
11606SOL    HW236716   4.283  12.793   7.351
11607SOL     OW36717   8.663   3.163   5.943
11607SOL    HW136718   8.637   3.110   5.867
11607SOL    HW236719   8.751   3.194   5.921
11608SOL     OW36720   3.741   7.119   5.718
11608SOL    HW136721   3.772   7.028   5.714
11608SOL    HW236722   3.789   7.158   5.791
11609SOL     OW36723   8.733   8.204   8.240
11609SOL    HW136724   8.665   8.161   8.292
11609SOL    HW236725   8.815   8.165   8.271
11610SOL     OW36726   5.950   0.111   2.366
11610SOL    HW136727   6.006   0.060   2.308
11610SOL    HW236728   6.005   0.131   2.442
11611SOL     OW36729   6.380   0.676  10.644
11611SOL    HW136730   6.306   0.731  10.618
11611SOL    HW236731   6.347   0.623  10.716
11612SOL     OW36732   3.761  14.838  11.167
11612SOL    HW136733   3.690   0.010  11.135
11612SOL    HW236734   3.792  14.882  11.246
11613SOL     OW36735   0.833   4.931  12.014
11613SOL    HW136736   0.741   4.923  12.038
11613SOL    HW236737   0.880   4.930  12.098
11614SOL     OW36738  13.362  12.763   7.347
11614SOL    HW136739  13.339  12.828   7.280
11614SOL    HW236740  13.284  12.707   7.353
11615SOL     OW36741   5.525  12.992  12.174
11615SOL    HW136742   5.479  12.927  12.227
11615SOL    HW236743   5.585  12.941  12.121
11616SOL     OW36744  11.574   8.305  11.604
11616SOL    HW136745  11.627   8.262  11.671
11616SOL    HW236746  11.619   8.286  11.521
11617SOL     OW36747  10.622  10.065   8.826
11617SOL    HW136748  10.633  10.060   8.731
11617SOL    HW236749  10.567  10.142   8.840
11618SOL     OW36750   7.044   6.221   6.624
11618SOL    HW136751   7.072   6.257   6.540
11618SOL    HW236752   7.088   6.137   6.631
11619SOL     OW36753  12.930  13.375  12.214
11619SOL    HW136754  12.977  13.457  12.202
11619SOL    HW236755  12.892  13.356  12.129
11620SOL     OW36756   4.337   3.047   3.062
11620SOL    HW136757   4.396   3.061   2.987
11620SOL    HW236758   4.381   2.978   3.113
11621SOL     OW36759  10.324   2.387   1.393
11621SOL    HW136760  10.334   2.304   1.440
11621SOL    HW236761  10.236   2.383   1.356
11622SOL     OW36762  12.683  14.591   1.094
11622SOL    HW136763  12.678  14.627   1.005
11622SOL    HW236764  12.659  14.499   1.085
11623SOL     OW36765   4.414  13.850  13.170
11623SOL    HW136766   4.448  13.940  13.169
11623SOL    HW236767   4.440  13.816  13.256
11624SOL     OW36768   1.656  14.242   1.228
11624SOL    HW136769   1.676  14.304   1.298
11624SOL    HW236770   1.569  14.208   1.251
11625SOL     OW36771   5.922  14.812  14.488
11625SOL    HW136772   5.852  14.869  14.456
11625SOL    HW236773   5.888  14.724  14.477
11626SOL     OW36774   9.146   3.027  12.940
11626SOL    HW136775   9.132   3.121  12.947
11626SOL    HW236776   9.143   3.010  12.846
11627SOL     OW36777  10.551  10.061  11.781
11627SOL    HW136778  10.605  10.068  11.702
11627SOL    HW236779  10.521   9.970  11.781
11628SOL     OW36780   8.756   5.523   6.855
11628SOL    HW136781   8.703   5.599   6.829
11628SOL    HW236782   8.727   5.452   6.798
11629SOL     OW36783   4.409   9.119   7.982
11629SOL    HW136784   4.450   9.070   7.911
11629SOL    HW236785   4.358   9.053   8.030
11630SOL     OW36786  11.039   7.535   9.031
11630SOL    HW136787  11.116   7.575   9.071
11630SOL    HW236788  10.996   7.607   8.984
11631SOL     OW36789   0.334  11.920   4.624
11631SOL    HW136790   0.426  11.940   4.644
11631SOL    HW236791   0.286  11.998   4.652
11632SOL     OW36792   4.255  12.450   8.192
11632SOL    HW136793   4.185  12.440   8.127
11632SOL    HW236794   4.304  12.367   8.187
11633SOL     OW36795  13.350   1.092  13.628
11633SOL    HW136796  13.331   1.166  13.569
11633SOL    HW236797  13.330   1.014  13.576
11634SOL     OW36798   0.197  12.591  10.230
11634SOL    HW136799   0.181  12.510  10.279
11634SOL    HW236800   0.265  12.636  10.279
11635SOL     OW36801   1.263   4.680  11.777
11635SOL    HW136802   1.223   4.747  11.721
11635SOL    HW236803   1.358   4.691  11.763
11636SOL     OW36804  10.569   6.786   2.426
11636SOL    HW136805  10.534   6.784   2.337
11636SOL    HW236806  10.645   6.844   2.420
11637SOL     OW36807   4.549  10.327   6.086
11637SOL    HW136808   4.625  10.269   6.076
11637SOL    HW236809   4.583  10.402   6.135
11638SOL     OW36810  12.255   1.041   2.437
11638SOL    HW136811  12.337   1.089   2.449
11638SOL    HW236812  12.266   0.963   2.491
11639SOL     OW36813   6.876   9.367   6.128
11639SOL    HW136814   6.867   9.414   6.211
11639SOL    HW236815   6.814   9.410   6.070
11640SOL     OW36816   9.681  12.932   9.380
11640SOL    HW136817   9.591  12.903   9.369
11640SOL    HW236818   9.729  12.853   9.405
11641SOL     OW36819  11.454   9.870   1.509
11641SOL    HW136820  11.429   9.948   1.560
11641SOL    HW236821  11.458   9.800   1.574
11642SOL     OW36822   8.779  13.536  12.532
11642SOL    HW136823   8.715  13.574  12.591
11642SOL    HW236824   8.789  13.445  12.562
11643SOL     OW36825  14.260   7.547   4.487
11643SOL    HW136826  14.209   7.468   4.470
11643SOL    HW236827  14.351   7.518   4.480
11644SOL     OW36828  12.655  10.892   4.779
11644SOL    HW136829  12.738  10.915   4.738
11644SOL    HW236830  12.593  10.884   4.706
11645SOL     OW36831   4.577   2.030   4.448
11645SOL    HW136832   4.572   2.098   4.516
11645SOL    HW236833   4.501   2.046   4.393
11646SOL     OW36834  11.392  14.506  12.023
11646SOL    HW136835  11.319  14.533  11.967
11646SOL    HW236836  11.470  14.516  11.968
11647SOL     OW36837  13.292   4.861  11.583
11647SOL    HW136838  13.277   4.920  11.656
11647SOL    HW236839  13.326   4.916  11.513
11648SOL     OW36840  11.251  11.991  13.029
11648SOL    HW136841  11.293  11.979  13.114
11648SOL    HW236842  11.303  11.938  12.969
11649SOL     OW36843   4.116   9.146   3.663
11649SOL    HW136844   4.079   9.087   3.598
11649SOL    HW236845   4.082   9.232   3.641
11650SOL     OW36846  12.636  14.295   1.107
11650SOL    HW136847  12.631  14.229   1.176
11650SOL    HW236848  12.555  14.283   1.057
11651SOL     OW36849   8.574   5.259   0.012
11651SOL    HW136850   8.630   5.196   0.056
11651SOL    HW236851   8.634   5.327  14.862
11652SOL     OW36852   8.344  11.651  14.735
11652SOL    HW136853   8.343  11.612  14.822
11652SOL    HW236854   8.308  11.583  14.677
11653SOL     OW36855   8.022   0.309   4.331
11653SOL    HW136856   8.111   0.325   4.297
11653SOL    HW236857   8.022   0.217   4.355
11654SOL     OW36858   0.108   2.508   9.719
11654SOL    HW136859   0.077   2.472   9.636
11654SOL    HW236860   0.029   2.513   9.774
11655SOL     OW36861  13.749   0.704   9.676
11655SOL    HW136862  13.815   0.774   9.683
11655SOL    HW236863  13.739   0.672   9.766
11656SOL     OW36864   9.815   7.271   4.516
11656SOL    HW136865   9.806   7.349   4.462
11656SOL    HW236866   9.903   7.238   4.498
11657SOL     OW36867   1.764   1.328  14.177
11657SOL    HW136868   1.855   1.327  14.207
11657SOL    HW236869   1.712   1.330  14.257
11658SOL     OW36870   4.245   9.190   2.096
11658SOL    HW136871   4.198   9.195   2.013
11658SOL    HW236872   4.307   9.263   2.092
11659SOL     OW36873   6.913   9.230   4.878
11659SOL    HW136874   6.972   9.283   4.932
11659SOL    HW236875   6.873   9.292   4.817
11660SOL     OW36876   9.070  14.323   0.161
11660SOL    HW136877   9.088  14.244   0.212
11660SOL    HW236878   8.996  14.298   0.105
11661SOL     OW36879   7.098  10.701  13.512
11661SOL    HW136880   7.039  10.688  13.586
11661SOL    HW236881   7.149  10.620  13.508
11662SOL     OW36882   1.169  10.693   2.637
11662SOL    HW136883   1.168  10.699   2.733
11662SOL    HW236884   1.099  10.631   2.617
11663SOL     OW36885   9.297  12.522   3.709
11663SOL    HW136886   9.273  12.507   3.801
11663SOL    HW236887   9.232  12.585   3.678
11664SOL     OW36888   7.190  12.175   1.725
11664SOL    HW136889   7.096  12.167   1.742
11664SOL    HW236890   7.201  12.267   1.699
11665SOL     OW36891   9.273   7.549   0.317
11665SOL    HW136892   9.337   7.480   0.300
11665SOL    HW236893   9.232   7.523   0.400
11666SOL     OW36894  14.312   6.554   2.194
11666SOL    HW136895  14.296   6.546   2.100
11666SOL    HW236896  14.405   6.538   2.205
11667SOL     OW36897  11.080  13.449  11.894
11667SOL    HW136898  11.170  13.424  11.870
11667SOL    HW236899  11.086  13.472  11.986
11668SOL     OW36900   7.210  10.280   5.192
11668SOL    HW136901   7.248  10.270   5.104
11668SOL    HW236902   7.152  10.205   5.202
11669SOL     OW36903   2.429  14.709   3.201
11669SOL    HW136904   2.459  14.654   3.274
11669SOL    HW236905   2.405  14.646   3.132
11670SOL     OW36906   5.898   7.149   1.257
11670SOL    HW136907   5.830   7.104   1.306
11670SOL    HW236908   5.853   7.224   1.217
11671SOL     OW36909   9.029   6.744   2.957
11671SOL    HW136910   8.989   6.683   3.019
11671SOL    HW236911   9.051   6.821   3.010
11672SOL     OW36912  13.073  13.986  11.675
11672SOL    HW136913  13.065  14.068  11.724
11672SOL    HW236914  12.994  13.982  11.621
11673SOL     OW36915  11.233   4.000   7.156
11673SOL    HW136916  11.182   3.921   7.173
11673SOL    HW236917  11.321   3.968   7.136
11674SOL     OW36918  11.644   7.818   7.062
11674SOL    HW136919  11.645   7.891   6.999
11674SOL    HW236920  11.551   7.804   7.080
11675SOL     OW36921   3.310  14.513   7.513
11675SOL    HW136922   3.276  14.545   7.596
11675SOL    HW236923   3.234  14.518   7.454
11676SOL     OW36924   3.530   4.539  12.715
11676SOL    HW136925   3.488   4.616  12.678
11676SOL    HW236926   3.512   4.469  12.652
11677SOL     OW36927   6.502   5.424   6.007
11677SOL    HW136928   6.561   5.357   5.973
11677SOL    HW236929   6.510   5.497   5.946
11678SOL     OW36930   9.827   0.085   0.941
11678SOL    HW136931   9.767   0.056   1.009
11678SOL    HW236932   9.853   0.005   0.896
11679SOL     OW36933   3.460   9.216  12.321
11679SOL    HW136934   3.536   9.216  12.378
11679SOL    HW236935   3.482   9.278  12.251
11680SOL     OW36936   6.340   3.292   7.311
11680SOL    HW136937   6.273   3.338   7.260
11680SOL    HW236938   6.386   3.361   7.359
11681SOL     OW36939  10.351  11.549   2.727
11681SOL    HW136940  10.362  11.636   2.767
11681SOL    HW236941  10.274  11.512   2.771
11682SOL     OW36942  13.605  14.250  13.863
11682SOL    HW136943  13.679  14.308  13.880
11682SOL    HW236944  13.566  14.235  13.950
11683SOL     OW36945  11.110  10.659  14.308
11683SOL    HW136946  11.135  10.734  14.254
11683SOL    HW236947  11.042  10.615  14.258
11684SOL     OW36948   2.964  10.611  11.336
11684SOL    HW136949   3.018  10.690  11.329
11684SOL    HW236950   2.897  10.622  11.269
11685SOL     OW36951   7.918   1.745   7.990
11685SOL    HW136952   7.962   1.809   8.046
11685SOL    HW236953   7.864   1.694   8.050
11686SOL     OW36954   2.176  11.725  12.549
11686SOL    HW136955   2.129  11.771  12.618
11686SOL    HW236956   2.221  11.795  12.500
11687SOL     OW36957  11.130  10.711   1.106
11687SOL    HW136958  11.055  10.651   1.102
11687SOL    HW236959  11.092  10.797   1.086
11688SOL     OW36960   9.976   9.177   2.968
11688SOL    HW136961  10.062   9.136   2.959
11688SOL    HW236962   9.947   9.151   3.056
11689SOL     OW36963  10.897   0.897   2.433
11689SOL    HW136964  10.873   0.865   2.346
11689SOL    HW236965  10.992   0.896   2.433
11690SOL     OW36966   5.834   2.666  14.353
11690SOL    HW136967   5.846   2.589  14.296
11690SOL    HW236968   5.922   2.699  14.367
11691SOL     OW36969   3.185  11.975  14.160
11691SOL    HW136970   3.133  11.921  14.219
11691SOL    HW236971   3.122  12.008  14.096
11692SOL     OW36972   5.461   2.005   1.191
11692SOL    HW136973   5.480   2.056   1.113
11692SOL    HW236974   5.475   2.067   1.264
11693SOL     OW36975   4.617   9.570   4.567
11693SOL    HW136976   4.678   9.612   4.507
11693SOL    HW236977   4.535   9.564   4.518
11694SOL     OW36978   2.199   0.834   9.825
11694SOL    HW136979   2.249   0.786   9.759
11694SOL    HW236980   2.265   0.881   9.876
11695SOL     OW36981   6.059   1.588  10.806
11695SOL    HW136982   6.050   1.649  10.732
11695SOL    HW236983   6.140   1.615  10.849
11696SOL     OW36984   1.610  13.574   3.687
11696SOL    HW136985   1.695  13.544   3.655
11696SOL    HW236986   1.552  13.567   3.611
11697SOL     OW36987  11.875   3.869   0.353
11697SOL    HW136988  11.868   3.963   0.336
11697SOL    HW236989  11.838   3.858   0.441
11698SOL     OW36990   5.940   0.367  12.818
11698SOL    HW136991   5.957   0.335  12.730
11698SOL    HW236992   5.868   0.313  12.850
11699SOL     OW36993  11.549   9.547  11.558
11699SOL    HW136994  11.597   9.516  11.635
11699SOL    HW236995  11.457   9.542  11.583
11700SOL     OW36996  10.555   5.412  14.198
11700SOL    HW136997  10.496   5.457  14.257
11700SOL    HW236998  10.498   5.362  14.139
11701SOL     OW36999  13.767   8.223   8.028
11701SOL    HW137000  13.802   8.308   8.056
11701SOL    HW237001  13.828   8.193   7.961
11702SOL     OW37002   9.155   8.789  14.379
11702SOL    HW137003   9.179   8.879  14.357
11702SOL    HW237004   9.059   8.788  14.377
11703SOL     OW37005  11.554  14.027   7.600
11703SOL    HW137006  11.573  14.074   7.682
11703SOL    HW237007  11.610  13.950   7.604
11704SOL     OW37008   3.580   9.431   4.252
11704SOL    HW137009   3.612   9.522   4.255
11704SOL    HW237010   3.660   9.378   4.252
11705SOL     OW37011  10.674  14.552   3.070
11705SOL    HW137012  10.654  14.467   3.109
11705SOL    HW237013  10.728  14.596   3.136
11706SOL     OW37014  12.007  14.110   6.867
11706SOL    HW137015  12.069  14.158   6.811
11706SOL    HW237016  11.941  14.176   6.891
11707SOL     OW37017   1.698  13.361   9.340
11707SOL    HW137018   1.729  13.420   9.271
11707SOL    HW237019   1.658  13.420   9.405
11708SOL     OW37020  13.367   7.014   8.702
11708SOL    HW137021  13.316   7.038   8.779
11708SOL    HW237022  13.343   6.924   8.684
11709SOL     OW37023   9.753  13.822   4.910
11709SOL    HW137024   9.712  13.780   4.986
11709SOL    HW237025   9.682  13.868   4.866
11710SOL     OW37026   2.084   8.994  10.252
11710SOL    HW137027   2.178   9.014  10.247
11710SOL    HW237028   2.081   8.907  10.293
11711SOL     OW37029   1.144  12.692   6.375
11711SOL    HW137030   1.080  12.717   6.307
11711SOL    HW237031   1.189  12.774   6.396
11712SOL     OW37032   7.738   3.538  14.484
11712SOL    HW137033   7.805   3.497  14.429
11712SOL    HW237034   7.787   3.595  14.544
11713SOL     OW37035   6.552  10.980   1.979
11713SOL    HW137036   6.491  10.919   1.937
11713SOL    HW237037   6.495  11.042   2.026
11714SOL     OW37038   8.197  10.985  12.966
11714SOL    HW137039   8.218  11.075  12.942
11714SOL    HW237040   8.107  10.972  12.934
11715SOL     OW37041   3.760  13.692   2.000
11715SOL    HW137042   3.717  13.755   2.059
11715SOL    HW237043   3.765  13.737   1.916
11716SOL     OW37044   1.944   1.063   2.343
11716SOL    HW137045   1.874   1.116   2.382
11716SOL    HW237046   2.012   1.127   2.319
11717SOL     OW37047   2.077   7.053   9.229
11717SOL    HW137048   2.018   7.113   9.183
11717SOL    HW237049   2.129   7.111   9.285
11718SOL     OW37050  11.467   1.298   0.106
11718SOL    HW137051  11.383   1.252   0.104
11718SOL    HW237052  11.513   1.260   0.182
11719SOL     OW37053   6.652   4.091   8.318
11719SOL    HW137054   6.718   4.145   8.276
11719SOL    HW237055   6.654   4.118   8.410
11720SOL     OW37056   1.639   9.814   7.472
11720SOL    HW137057   1.667   9.819   7.564
11720SOL    HW237058   1.630   9.720   7.455
11721SOL     OW37059   3.653   1.829  14.177
11721SOL    HW137060   3.654   1.734  14.187
11721SOL    HW237061   3.709   1.846  14.101
11722SOL     OW37062   1.610   9.428   8.687
11722SOL    HW137063   1.618   9.342   8.645
11722SOL    HW237064   1.698   9.464   8.684
11723SOL     OW37065  10.353   0.433  10.071
11723SOL    HW137066  10.358   0.345  10.035
11723SOL    HW237067  10.285   0.428  10.139
11724SOL     OW37068  13.319   8.014  12.138
11724SOL    HW137069  13.385   8.069  12.179
11724SOL    HW237070  13.304   8.053  12.052
11725SOL     OW37071  11.016   2.709   2.349
11725SOL    HW137072  11.091   2.761   2.321
11725SOL    HW237073  10.974   2.762   2.417
11726SOL     OW37074   6.128   0.805   2.993
11726SOL    HW137075   6.135   0.770   3.082
11726SOL    HW237076   6.050   0.860   2.995
11727SOL     OW37077  12.260  11.225  11.908
11727SOL    HW137078  12.326  11.245  11.842
11727SOL    HW237079  12.204  11.160  11.867
11728SOL     OW37080   8.884  12.873   3.060
11728SOL    HW137081   8.953  12.879   3.127
11728SOL    HW237082   8.862  12.779   3.057
11729SOL     OW37083   9.769   2.280   6.672
11729SOL    HW137084   9.692   2.239   6.712
11729SOL    HW237085   9.764   2.257   6.580
11730SOL     OW37086  12.716   0.382   6.645
11730SOL    HW137087  12.702   0.321   6.572
11730SOL    HW237088  12.633   0.429   6.654
11731SOL     OW37089   0.037  14.234   3.428
11731SOL    HW137090   0.005  14.307   3.481
11731SOL    HW237091   0.005  14.252   3.340
11732SOL     OW37092   2.447  12.324  11.126
11732SOL    HW137093   2.424  12.256  11.063
11732SOL    HW237094   2.542  12.315  11.137
11733SOL     OW37095   6.036   5.216  14.541
11733SOL    HW137096   6.075   5.282  14.485
11733SOL    HW237097   6.086   5.136  14.524
11734SOL     OW37098   2.015   9.211  12.079
11734SOL    HW137099   2.048   9.284  12.132
11734SOL    HW237100   1.978   9.150  12.142
11735SOL     OW37101   1.239   3.035  11.652
11735SOL    HW137102   1.316   2.984  11.675
11735SOL    HW237103   1.253   3.120  11.695
11736SOL     OW37104  13.164   7.241   0.321
11736SOL    HW137105  13.154   7.319   0.267
11736SOL    HW237106  13.193   7.173   0.260
11737SOL     OW37107  12.856   7.282   8.757
11737SOL    HW137108  12.782   7.232   8.720
11737SOL    HW237109  12.830   7.374   8.746
11738SOL     OW37110   4.986  10.379  11.116
11738SOL    HW137111   4.907  10.433  11.110
11738SOL    HW237112   5.031  10.411  11.194
11739SOL     OW37113   4.862   9.433   6.006
11739SOL    HW137114   4.866   9.488   5.928
11739SOL    HW237115   4.789   9.373   5.989
11740SOL     OW37116   8.962  12.105   7.530
11740SOL    HW137117   8.870  12.123   7.508
11740SOL    HW237118   9.000  12.192   7.541
11741SOL     OW37119   9.038   0.004   5.380
11741SOL    HW137120   8.975   0.055   5.329
11741SOL    HW237121   9.034  14.799   5.343
11742SOL     OW37122   4.474  14.770   0.676
11742SOL    HW137123   4.436  14.682   0.666
11742SOL    HW237124   4.479  14.804   0.587
11743SOL     OW37125   9.585   5.635   5.484
11743SOL    HW137126   9.543   5.634   5.398
11743SOL    HW237127   9.651   5.704   5.477
11744SOL     OW37128   7.267  14.806   8.570
11744SOL    HW137129   7.246   0.006   8.613
11744SOL    HW237130   7.336  14.767   8.625
11745SOL     OW37131  14.438  11.333   5.899
11745SOL    HW137132  14.514  11.359   5.951
11745SOL    HW237133  14.389  11.274   5.955
11746SOL     OW37134  14.555   9.502  12.767
11746SOL    HW137135  14.628   9.557  12.794
11746SOL    HW237136  14.484   9.525  12.827
11747SOL     OW37137   9.589  11.039   2.374
11747SOL    HW137138   9.620  10.989   2.449
11747SOL    HW237139   9.550  10.974   2.316
11748SOL     OW37140   8.627   7.589   4.756
11748SOL    HW137141   8.589   7.501   4.756
11748SOL    HW237142   8.554   7.647   4.778
11749SOL     OW37143   6.398   2.844   0.434
11749SOL    HW137144   6.398   2.820   0.527
11749SOL    HW237145   6.306   2.863   0.415
11750SOL     OW37146  10.599   5.786   8.490
11750SOL    HW137147  10.623   5.704   8.446
11750SOL    HW237148  10.515   5.767   8.531
11751SOL     OW37149   0.705  11.102   4.188
11751SOL    HW137150   0.761  11.025   4.197
11751SOL    HW237151   0.720  11.152   4.268
11752SOL     OW37152   7.361   0.830  13.184
11752SOL    HW137153   7.423   0.848  13.255
11752SOL    HW237154   7.351   0.734  13.186
11753SOL     OW37155  13.902  11.975   1.125
11753SOL    HW137156  13.888  11.883   1.147
11753SOL    HW237157  13.846  12.023   1.186
11754SOL     OW37158  12.213   8.846   1.311
11754SOL    HW137159  12.259   8.924   1.340
11754SOL    HW237160  12.228   8.781   1.379
11755SOL     OW37161   8.984   9.552  11.517
11755SOL    HW137162   9.012   9.523  11.604
11755SOL    HW237163   8.940   9.636  11.533
11756SOL     OW37164  14.297  11.956  10.007
11756SOL    HW137165  14.367  11.956   9.942
11756SOL    HW237166  14.233  11.893   9.974
11757SOL     OW37167   0.137  11.093  13.259
11757SOL    HW137168   0.121  11.020  13.320
11757SOL    HW237169   0.181  11.053  13.185
11758SOL     OW37170   9.207   7.932  14.151
11758SOL    HW137171   9.292   7.974  14.164
11758SOL    HW237172   9.193   7.935  14.056
11759SOL     OW37173   2.899  11.138   4.491
11759SOL    HW137174   2.930  11.134   4.401
11759SOL    HW237175   2.969  11.182   4.539
11760SOL     OW37176   0.191   8.007  12.355
11760SOL    HW137177   0.161   7.942  12.292
11760SOL    HW237178   0.264   7.964  12.400
11761SOL     OW37179   5.032   8.948  13.688
11761SOL    HW137180   5.113   8.910  13.722
11761SOL    HW237181   5.057   9.035  13.657
11762SOL     OW37182   9.227  13.074   5.894
11762SOL    HW137183   9.176  13.137   5.944
11762SOL    HW237184   9.316  13.110   5.894
11763SOL     OW37185  14.591   0.498   9.110
11763SOL    HW137186  14.525   0.549   9.063
11763SOL    HW237187  14.606   0.546   9.190
11764SOL     OW37188  14.440   1.117   8.746
11764SOL    HW137189  14.400   1.102   8.831
11764SOL    HW237190  14.453   1.211   8.742
11765SOL     OW37191   3.781   4.044  10.845
11765SOL    HW137192   3.776   4.087  10.931
11765SOL    HW237193   3.797   3.952  10.866
11766SOL     OW37194   2.701   3.719   6.754
11766SOL    HW137195   2.709   3.760   6.668
11766SOL    HW237196   2.682   3.627   6.734
11767SOL     OW37197  13.752   2.800  11.179
11767SOL    HW137198  13.661   2.787  11.152
11767SOL    HW237199  13.748   2.870  11.245
11768SOL     OW37200   9.199   9.280  12.174
11768SOL    HW137201   9.225   9.195  12.139
11768SOL    HW237202   9.197   9.337  12.098
11769SOL     OW37203  11.989   4.971   9.153
11769SOL    HW137204  11.895   4.976   9.170
11769SOL    HW237205  12.016   5.062   9.143
11770SOL     OW37206  13.797   2.495  10.309
11770SOL    HW137207  13.779   2.587  10.289
11770SOL    HW237208  13.711   2.458  10.332
11771SOL     OW37209  11.676  10.998   8.976
11771SOL    HW137210  11.724  11.056   8.917
11771SOL    HW237211  11.637  10.932   8.918
11772SOL     OW37212   4.728   7.503   2.475
11772SOL    HW137213   4.705   7.576   2.532
11772SOL    HW237214   4.817   7.525   2.444
11773SOL     OW37215   7.305   2.650  12.207
11773SOL    HW137216   7.390   2.652  12.163
11773SOL    HW237217   7.246   2.695  12.147
11774SOL     OW37218   9.034  10.780   9.611
11774SOL    HW137219   8.964  10.747   9.667
11774SOL    HW237220   9.012  10.871   9.596
11775SOL     OW37221  14.206   7.726  12.176
11775SOL    HW137222  14.122   7.692  12.205
11775SOL    HW237223  14.208   7.816  12.209
11776SOL     OW37224  11.343   9.065   5.089
11776SOL    HW137225  11.264   9.109   5.059
11776SOL    HW237226  11.409   9.134   5.094
11777SOL     OW37227  13.070  12.642   2.682
11777SOL    HW137228  12.987  12.605   2.711
11777SOL    HW237229  13.134  12.611   2.746
11778SOL     OW37230   3.497   7.643   8.633
11778SOL    HW137231   3.525   7.689   8.711
11778SOL    HW237232   3.526   7.552   8.647
11779SOL     OW37233   9.658  10.097   1.232
11779SOL    HW137234   9.685  10.136   1.149
11779SOL    HW237235   9.740  10.085   1.281
11780SOL     OW37236  12.356  14.390   8.746
11780SOL    HW137237  12.261  14.377   8.736
11780SOL    HW237238  12.363  14.452   8.819
11781SOL     OW37239   4.263   7.479  10.097
11781SOL    HW137240   4.204   7.553  10.087
11781SOL    HW237241   4.340   7.502  10.045
11782SOL     OW37242  12.730   2.118   2.614
11782SOL    HW137243  12.776   2.045   2.658
11782SOL    HW237244  12.676   2.075   2.548
11783SOL     OW37245  11.308   2.547   6.098
11783SOL    HW137246  11.349   2.511   6.176
11783SOL    HW237247  11.284   2.471   6.046
11784SOL     OW37248   9.456  10.982   4.672
11784SOL    HW137249   9.527  11.045   4.664
11784SOL    HW237250   9.494  10.909   4.720
11785SOL     OW37251   9.487   7.268  11.575
11785SOL    HW137252   9.448   7.220  11.649
11785SOL    HW237253   9.554   7.209  11.540
11786SOL     OW37254  11.496   8.318   1.031
11786SOL    HW137255  11.561   8.387   1.018
11786SOL    HW237256  11.440   8.322   0.953
11787SOL     OW37257   5.768   8.061   0.965
11787SOL    HW137258   5.725   8.139   0.931
11787SOL    HW237259   5.704   7.990   0.950
11788SOL     OW37260   8.592  10.420   6.605
11788SOL    HW137261   8.620  10.329   6.608
11788SOL    HW237262   8.506  10.417   6.563
11789SOL     OW37263   2.670  13.185   9.440
11789SOL    HW137264   2.641  13.249   9.374
11789SOL    HW237265   2.681  13.104   9.391
11790SOL     OW37266   3.790  12.781  11.275
11790SOL    HW137267   3.875  12.807  11.239
11790SOL    HW237268   3.809  12.703  11.327
11791SOL     OW37269  11.039   3.776   2.494
11791SOL    HW137270  11.118   3.739   2.533
11791SOL    HW237271  11.002   3.831   2.563
11792SOL     OW37272   1.938   6.536  12.382
11792SOL    HW137273   1.870   6.590  12.343
11792SOL    HW237274   1.896   6.452  12.400
11793SOL     OW37275   7.643  12.273   3.623
11793SOL    HW137276   7.689  12.351   3.592
11793SOL    HW237277   7.691  12.246   3.701
11794SOL     OW37278   1.784   0.770  14.655
11794SOL    HW137279   1.724   0.799  14.723
11794SOL    HW237280   1.851   0.721  14.702
11795SOL     OW37281   2.397   6.285   0.962
11795SOL    HW137282   2.407   6.374   0.997
11795SOL    HW237283   2.353   6.297   0.878
11796SOL     OW37284   1.698  10.081   3.864
11796SOL    HW137285   1.709  10.136   3.786
11796SOL    HW237286   1.603  10.074   3.875
11797SOL     OW37287   9.822   0.546   8.761
11797SOL    HW137288   9.916   0.526   8.760
11797SOL    HW237289   9.817   0.641   8.761
11798SOL     OW37290  13.992   2.424  12.570
11798SOL    HW137291  13.949   2.339  12.560
11798SOL    HW237292  13.973   2.470  12.489
11799SOL     OW37293   2.424  12.033   9.665
11799SOL    HW137294   2.421  12.070   9.753
11799SOL    HW237295   2.438  12.109   9.608
11800SOL     OW37296  11.205   8.639   7.858
11800SOL    HW137297  11.111   8.658   7.861
11800SOL    HW237298  11.210   8.544   7.849
11801SOL     OW37299   9.631  12.454  12.698
11801SOL    HW137300   9.536  12.466  12.698
11801SOL    HW237301   9.643  12.360  12.688
11802SOL     OW37302   1.441   5.818   9.745
11802SOL    HW137303   1.506   5.866   9.797
11802SOL    HW237304   1.486   5.739   9.717
11803SOL     OW37305  13.201  13.239   7.297
11803SOL    HW137306  13.279  13.209   7.344
11803SOL    HW237307  13.152  13.159   7.279
11804SOL     OW37308   2.198   0.486   2.326
11804SOL    HW137309   2.208   0.532   2.243
11804SOL    HW237310   2.266   0.524   2.382
11805SOL     OW37311  10.749   0.458   7.560
11805SOL    HW137312  10.665   0.491   7.528
11805SOL    HW237313  10.776   0.392   7.496
11806SOL     OW37314   1.800  11.996  13.016
11806SOL    HW137315   1.820  12.049  12.939
11806SOL    HW237316   1.738  12.049  13.066
11807SOL     OW37317  14.232   3.520   7.889
11807SOL    HW137318  14.155   3.572   7.865
11807SOL    HW237319  14.220   3.436   7.844
11808SOL     OW37320   1.301  13.346   9.899
11808SOL    HW137321   1.342  13.423   9.858
11808SOL    HW237322   1.209  13.354   9.876
11809SOL     OW37323   4.110   1.700  13.771
11809SOL    HW137324   4.130   1.612  13.802
11809SOL    HW237325   4.034   1.728  13.823
11810SOL     OW37326  11.590  12.317   0.399
11810SOL    HW137327  11.505  12.278   0.381
11810SOL    HW237328  11.579  12.410   0.378
11811SOL     OW37329   0.936   6.785   1.161
11811SOL    HW137330   1.028   6.759   1.156
11811SOL    HW237331   0.924   6.815   1.251
11812SOL     OW37332   6.494  12.928  13.803
11812SOL    HW137333   6.536  12.903  13.886
11812SOL    HW237334   6.402  12.940  13.826
11813SOL     OW37335   9.301   7.050   9.694
11813SOL    HW137336   9.302   6.962   9.658
11813SOL    HW237337   9.387   7.086   9.673
11814SOL     OW37338  10.301   8.029  12.878
11814SOL    HW137339  10.296   8.108  12.933
11814SOL    HW237340  10.270   7.959  12.935
11815SOL     OW37341   9.449   0.407   2.546
11815SOL    HW137342   9.407   0.493   2.549
11815SOL    HW237343   9.538   0.424   2.578
11816SOL     OW37344   7.132  11.848  11.971
11816SOL    HW137345   7.127  11.941  11.990
11816SOL    HW237346   7.140  11.805  12.056
11817SOL     OW37347   6.428   3.645   4.946
11817SOL    HW137348   6.450   3.670   4.856
11817SOL    HW237349   6.438   3.725   4.997
11818SOL     OW37350  13.056   6.793  10.605
11818SOL    HW137351  12.997   6.722  10.629
11818SOL    HW237352  13.050   6.855  10.678
11819SOL     OW37353  11.953   7.108   3.710
11819SOL    HW137354  11.996   7.060   3.640
11819SOL    HW237355  11.883   7.157   3.666
11820SOL     OW37356  11.855   8.211   6.151
11820SOL    HW137357  11.798   8.135   6.162
11820SOL    HW237358  11.867   8.219   6.056
11821SOL     OW37359   3.843   1.429  12.739
11821SOL    HW137360   3.858   1.522  12.753
11821SOL    HW237361   3.794   1.425  12.657
11822SOL     OW37362   9.307   5.274   8.260
11822SOL    HW137363   9.401   5.279   8.280
11822SOL    HW237364   9.277   5.365   8.265
11823SOL     OW37365   0.842   9.754  13.385
11823SOL    HW137366   0.886   9.839  13.383
11823SOL    HW237367   0.881   9.709  13.460
11824SOL     OW37368  12.943   0.265   9.738
11824SOL    HW137369  12.898   0.186   9.708
11824SOL    HW237370  12.967   0.246   9.829
11825SOL     OW37371  11.645   9.402  10.467
11825SOL    HW137372  11.700   9.343  10.416
11825SOL    HW237373  11.648   9.485  10.420
11826SOL     OW37374  13.116   0.550  12.194
11826SOL    HW137375  13.160   0.490  12.133
11826SOL    HW237376  13.150   0.525  12.280
11827SOL     OW37377   0.171   6.932  13.858
11827SOL    HW137378   0.173   6.971  13.946
11827SOL    HW237379   0.085   6.892  13.852
11828SOL     OW37380   7.150   0.062   6.267
11828SOL    HW137381   7.170   0.127   6.334
11828SOL    HW237382   7.174   0.105   6.185
11829SOL     OW37383  12.068   8.949  14.285
11829SOL    HW137384  12.147   9.003  14.285
11829SOL    HW237385  12.031   8.960  14.373
11830SOL     OW37386  13.542   4.055   0.753
11830SOL    HW137387  13.451   4.031   0.735
11830SOL    HW237388  13.594   3.996   0.699
11831SOL     OW37389   5.652  10.838   8.502
11831SOL    HW137390   5.679  10.747   8.510
11831SOL    HW237391   5.733  10.888   8.517
11832SOL     OW37392   2.845   4.985   8.412
11832SOL    HW137393   2.911   5.022   8.471
11832SOL    HW237394   2.887   4.907   8.376
11833SOL     OW37395   1.655   9.972   4.482
11833SOL    HW137396   1.751   9.973   4.478
11833SOL    HW237397   1.635   9.949   4.573
11834SOL     OW37398  12.364  11.193  11.196
11834SOL    HW137399  12.453  11.205  11.230
11834SOL    HW237400  12.334  11.281  11.176
11835SOL     OW37401  13.388  12.410  12.700
11835SOL    HW137402  13.480  12.436  12.696
11835SOL    HW237403  13.390  12.315  12.712
11836SOL     OW37404   0.578   7.953   4.460
11836SOL    HW137405   0.566   7.862   4.434
11836SOL    HW237406   0.491   7.992   4.451
11837SOL     OW37407  10.785   3.421   4.506
11837SOL    HW137408  10.840   3.343   4.515
11837SOL    HW237409  10.846   3.491   4.484
11838SOL     OW37410   9.016  12.013   6.500
11838SOL    HW137411   9.054  11.929   6.529
11838SOL    HW237412   8.933  11.989   6.458
11839SOL     OW37413  10.635   2.717  14.461
11839SOL    HW137414  10.610   2.778  14.391
11839SOL    HW237415  10.704   2.663  14.422
11840SOL     OW37416  14.795  10.196   3.143
11840SOL    HW137417  14.708  10.234   3.137
11840SOL    HW237418  14.802  10.138   3.068
11841SOL     OW37419   9.107  11.953   5.022
11841SOL    HW137420   9.139  11.983   4.936
11841SOL    HW237421   9.014  11.972   5.021
11842SOL     OW37422  11.161  10.193   1.812
11842SOL    HW137423  11.133  10.283   1.797
11842SOL    HW237424  11.175  10.187   1.906
11843SOL     OW37425   6.400  10.180   6.493
11843SOL    HW137426   6.426  10.088   6.491
11843SOL    HW237427   6.442  10.216   6.570
11844SOL     OW37428   3.083  14.497   2.470
11844SOL    HW137429   3.015  14.432   2.485
11844SOL    HW237430   3.159  14.446   2.442
11845SOL     OW37431   3.161  12.234  10.043
11845SOL    HW137432   3.195  12.159   9.994
11845SOL    HW237433   3.160  12.205  10.134
11846SOL     OW37434   9.703   4.270   8.363
11846SOL    HW137435   9.670   4.259   8.274
11846SOL    HW237436   9.628   4.304   8.412
11847SOL     OW37437  14.511  12.927  11.331
11847SOL    HW137438  14.504  13.006  11.277
11847SOL    HW237439  14.595  12.936  11.375
11848SOL     OW37440   0.233   8.088   2.685
11848SOL    HW137441   0.212   8.005   2.643
11848SOL    HW237442   0.252   8.066   2.776
11849SOL     OW37443  13.378   8.867   2.823
11849SOL    HW137444  13.467   8.887   2.794
11849SOL    HW237445  13.345   8.951   2.857
11850SOL     OW37446   7.260  12.886   6.284
11850SOL    HW137447   7.337  12.830   6.284
11850SOL    HW237448   7.281  12.955   6.220
11851SOL     OW37449   1.140  12.648  12.896
11851SOL    HW137450   1.211  12.628  12.834
11851SOL    HW237451   1.166  12.732  12.935
11852SOL     OW37452   2.830   6.199  11.698
11852SOL    HW137453   2.799   6.123  11.648
11852SOL    HW237454   2.803   6.182  11.788
11853SOL     OW37455   2.123   5.098   0.445
11853SOL    HW137456   2.158   5.132   0.527
11853SOL    HW237457   2.105   5.006   0.462
11854SOL     OW37458   4.758   5.955   9.122
11854SOL    HW137459   4.827   5.912   9.173
11854SOL    HW237460   4.779   6.048   9.127
11855SOL     OW37461   8.876   9.306  14.351
11855SOL    HW137462   8.883   9.211  14.365
11855SOL    HW237463   8.930   9.344  14.420
11856SOL     OW37464   7.022   6.455   9.037
11856SOL    HW137465   7.064   6.456   9.123
11856SOL    HW237466   6.929   6.464   9.055
11857SOL     OW37467  12.015  11.828   8.323
11857SOL    HW137468  12.073  11.809   8.249
11857SOL    HW237469  11.955  11.753   8.326
11858SOL     OW37470   3.626   8.884   6.931
11858SOL    HW137471   3.552   8.834   6.897
11858SOL    HW237472   3.657   8.833   7.006
11859SOL     OW37473   2.994   2.000  13.447
11859SOL    HW137474   3.050   1.923  13.438
11859SOL    HW237475   2.994   2.040  13.360
11860SOL     OW37476   0.058   3.990   3.658
11860SOL    HW137477   0.100   4.076   3.657
11860SOL    HW237478   0.033   3.975   3.567
11861SOL     OW37479   4.991   4.171  10.103
11861SOL    HW137480   4.900   4.178  10.131
11861SOL    HW237481   5.006   4.077  10.090
11862SOL     OW37482   7.128  11.453  13.611
11862SOL    HW137483   7.201  11.487  13.559
11862SOL    HW237484   7.157  11.368  13.642
11863SOL     OW37485   3.683   5.765   3.050
11863SOL    HW137486   3.755   5.725   3.097
11863SOL    HW237487   3.646   5.695   2.996
11864SOL     OW37488  11.108   2.647   2.928
11864SOL    HW137489  11.050   2.696   2.986
11864SOL    HW237490  11.060   2.641   2.845
11865SOL     OW37491  10.021  11.983   9.017
11865SOL    HW137492   9.999  11.963   9.108
11865SOL    HW237493   9.939  11.970   8.969
11866SOL     OW37494   1.834  14.000  11.543
11866SOL    HW137495   1.773  13.989  11.616
11866SOL    HW237496   1.782  14.040  11.473
11867SOL     OW37497   0.733  14.795   8.447
11867SOL    HW137498   0.789  14.827   8.517
11867SOL    HW237499   0.772  14.830   8.367
11868SOL     OW37500   2.059   8.925  14.745
11868SOL    HW137501   2.124   8.966  14.689
11868SOL    HW237502   2.109   8.869  14.805
11869SOL     OW37503   8.100   1.822   3.502
11869SOL    HW137504   8.010   1.855   3.502
11869SOL    HW237505   8.148   1.883   3.558
11870SOL     OW37506   7.478   0.337  10.529
11870SOL    HW137507   7.554   0.369  10.577
11870SOL    HW237508   7.512   0.265  10.475
11871SOL     OW37509  14.393   4.530  13.395
11871SOL    HW137510  14.391   4.624  13.381
11871SOL    HW237511  14.403   4.492  13.307
11872SOL     OW37512  13.412  14.732   8.594
11872SOL    HW137513  13.358  14.657   8.621
11872SOL    HW237514  13.500  14.711   8.627
11873SOL     OW37515   2.745   4.292   0.419
11873SOL    HW137516   2.779   4.304   0.508
11873SOL    HW237517   2.713   4.202   0.417
11874SOL     OW37518  14.326   0.533  10.708
11874SOL    HW137519  14.251   0.589  10.727
11874SOL    HW237520  14.303   0.489  10.626
11875SOL     OW37521   1.696   6.020   8.241
11875SOL    HW137522   1.747   6.039   8.162
11875SOL    HW237523   1.712   6.095   8.299
11876SOL     OW37524  13.182   0.295  10.585
11876SOL    HW137525  13.225   0.297  10.670
11876SOL    HW237526  13.111   0.360  10.592
11877SOL     OW37527  11.790   9.089  14.234
11877SOL    HW137528  11.789   9.060  14.142
11877SOL    HW237529  11.863   9.040  14.273
11878SOL     OW37530   6.794   1.922   1.298
11878SOL    HW137531   6.701   1.908   1.282
11878SOL    HW237532   6.805   1.904   1.392
11879SOL     OW37533   0.164   3.404   7.929
11879SOL    HW137534   0.196   3.381   8.017
11879SOL    HW237535   0.133   3.322   7.892
11880SOL     OW37536  12.694  10.052   9.354
11880SOL    HW137537  12.723   9.994   9.425
11880SOL    HW237538  12.639   9.997   9.299
11881SOL     OW37539   4.960   3.317   0.868
11881SOL    HW137540   4.997   3.239   0.827
11881SOL    HW237541   4.894   3.348   0.806
11882SOL     OW37542   1.192   8.618   6.947
11882SOL    HW137543   1.116   8.562   6.963
11882SOL    HW237544   1.254   8.593   7.016
11883SOL     OW37545  12.429  12.480   1.355
11883SOL    HW137546  12.513  12.515   1.385
11883SOL    HW237547  12.395  12.548   1.295
11884SOL     OW37548  11.933   9.027   5.354
11884SOL    HW137549  11.882   9.088   5.300
11884SOL    HW237550  12.005   9.079   5.389
11885SOL     OW37551   8.752   4.792   1.359
11885SOL    HW137552   8.730   4.835   1.276
11885SOL    HW237553   8.749   4.863   1.423
11886SOL     OW37554  12.624   9.388  14.635
11886SOL    HW137555  12.697   9.335  14.602
11886SOL    HW237556  12.600   9.444  14.562
11887SOL     OW37557  13.720   8.291   8.874
11887SOL    HW137558  13.716   8.238   8.954
11887SOL    HW237559  13.691   8.378   8.902
11888SOL     OW37560   0.272  14.665   4.199
11888SOL    HW137561   0.360  14.700   4.211
11888SOL    HW237562   0.278  14.611   4.120
11889SOL     OW37563   2.850   9.661  12.426
11889SOL    HW137564   2.798   9.665  12.506
11889SOL    HW237565   2.834   9.745  12.383
11890SOL     OW37566   5.788  12.189  14.220
11890SOL    HW137567   5.810  12.107  14.176
11890SOL    HW237568   5.814  12.175  14.311
11891SOL     OW37569  10.745   1.105   0.781
11891SOL    HW137570  10.760   1.057   0.863
11891SOL    HW237571  10.759   1.197   0.803
11892SOL     OW37572  14.760   4.791   3.490
11892SOL    HW137573  14.722   4.706   3.512
11892SOL    HW237574  14.804   4.819   3.571
11893SOL     OW37575   8.668   9.230   4.286
11893SOL    HW137576   8.618   9.286   4.346
11893SOL    HW237577   8.756   9.228   4.323
11894SOL     OW37578  10.483   1.659   8.656
11894SOL    HW137579  10.489   1.723   8.586
11894SOL    HW237580  10.565   1.667   8.704
11895SOL     OW37581  11.020   4.608   9.066
11895SOL    HW137582  11.067   4.534   9.026
11895SOL    HW237583  11.081   4.642   9.132
11896SOL     OW37584  10.722   1.447   0.545
11896SOL    HW137585  10.650   1.383   0.548
11896SOL    HW237586  10.772   1.422   0.467
11897SOL     OW37587  13.915   2.259   5.966
11897SOL    HW137588  14.002   2.227   5.990
11897SOL    HW237589  13.905   2.340   6.016
11898SOL     OW37590   0.502   0.749   3.632
11898SOL    HW137591   0.574   0.742   3.695
11898SOL    HW237592   0.542   0.792   3.556
11899SOL     OW37593   4.467  13.620   3.011
11899SOL    HW137594   4.557  13.652   3.023
11899SOL    HW237595   4.469  13.571   2.929
11900SOL     OW37596  13.523  13.872   3.870
11900SOL    HW137597  13.474  13.934   3.815
11900SOL    HW237598  13.522  13.912   3.957
11901SOL     OW37599  12.165   2.880   3.194
11901SOL    HW137600  12.077   2.870   3.159
11901SOL    HW237601  12.177   2.974   3.204
11902SOL     OW37602   3.520   5.661   9.394
11902SOL    HW137603   3.491   5.719   9.465
11902SOL    HW237604   3.609   5.690   9.374
11903SOL     OW37605   2.938   5.234   9.734
11903SOL    HW137606   2.938   5.326   9.759
11903SOL    HW237607   2.984   5.232   9.650
11904SOL     OW37608   5.884   0.763   4.167
11904SOL    HW137609   5.824   0.833   4.194
11904SOL    HW237610   5.905   0.717   4.248
11905SOL     OW37611   3.135  12.498  13.373
11905SOL    HW137612   3.072  12.548  13.322
11905SOL    HW237613   3.143  12.545  13.455
11906SOL     OW37614   1.580   7.224   3.432
11906SOL    HW137615   1.584   7.279   3.511
11906SOL    HW237616   1.510   7.162   3.450
11907SOL     OW37617  13.213   6.906  12.565
11907SOL    HW137618  13.270   6.948  12.501
11907SOL    HW237619  13.195   6.819  12.529
11908SOL     OW37620  14.293  12.448  10.355
11908SOL    HW137621  14.198  12.459  10.356
11908SOL    HW237622  14.314  12.424  10.265
11909SOL     OW37623   7.691   5.613  13.269
11909SOL    HW137624   7.599   5.602  13.244
11909SOL    HW237625   7.701   5.560  13.348
11910SOL     OW37626   9.675  14.208  13.096
11910SOL    HW137627   9.624  14.288  13.085
11910SOL    HW237628   9.615  14.147  13.138
11911SOL     OW37629   9.719   6.347   3.588
11911SOL    HW137630   9.747   6.431   3.625
11911SOL    HW237631   9.799   6.309   3.551
11912SOL     OW37632  11.573   4.086   0.195
11912SOL    HW137633  11.653   4.079   0.142
11912SOL    HW237634  11.560   3.998   0.230
11913SOL     OW37635   4.647   2.611   2.510
11913SOL    HW137636   4.685   2.524   2.508
11913SOL    HW237637   4.720   2.669   2.533
11914SOL     OW37638   7.155   6.271   1.120
11914SOL    HW137639   7.128   6.194   1.071
11914SOL    HW237640   7.250   6.259   1.133
11915SOL     OW37641  12.000   0.522   7.854
11915SOL    HW137642  11.961   0.436   7.872
11915SOL    HW237643  11.990   0.569   7.937
11916SOL     OW37644  11.794   8.293   0.246
11916SOL    HW137645  11.857   8.352   0.287
11916SOL    HW237646  11.722   8.350   0.220
11917SOL     OW37647   0.144  13.107   6.346
11917SOL    HW137648   0.083  13.146   6.283
11917SOL    HW237649   0.128  13.013   6.340
11918SOL     OW37650  13.615   7.760   4.693
11918SOL    HW137651  13.578   7.699   4.629
11918SOL    HW237652  13.709   7.763   4.672
11919SOL     OW37653  10.333   5.577   5.250
11919SOL    HW137654  10.252   5.603   5.294
11919SOL    HW237655  10.365   5.658   5.211
11920SOL     OW37656   7.389  10.866   5.274
11920SOL    HW137657   7.366  10.798   5.337
11920SOL    HW237658   7.450  10.923   5.320
11921SOL     OW37659  11.525   9.473   2.470
11921SOL    HW137660  11.449   9.531   2.470
11921SOL    HW237661  11.597   9.526   2.504
11922SOL     OW37662  11.441   2.591   9.351
11922SOL    HW137663  11.421   2.499   9.369
11922SOL    HW237664  11.511   2.587   9.285
11923SOL     OW37665   4.634  14.353  11.783
11923SOL    HW137666   4.727  14.329  11.785
11923SOL    HW237667   4.617  14.377  11.693
11924SOL     OW37668  14.716   0.961  13.541
11924SOL    HW137669  14.641   0.923  13.586
11924SOL    HW237670  14.769   0.886  13.515
11925SOL     OW37671   4.626   6.642   9.564
11925SOL    HW137672   4.652   6.650   9.656
11925SOL    HW237673   4.560   6.711   9.552
11926SOL     OW37674   9.120   1.362   9.590
11926SOL    HW137675   9.079   1.279   9.565
11926SOL    HW237676   9.047   1.421   9.605
11927SOL     OW37677  13.896  10.966  14.634
11927SOL    HW137678  13.841  11.043  14.626
11927SOL    HW237679  13.851  10.899  14.582
11928SOL     OW37680  11.555   4.001  14.693
11928SOL    HW137681  11.519   4.075  14.644
11928SOL    HW237682  11.650   4.017  14.695
11929SOL     OW37683   6.698   3.695   1.603
11929SOL    HW137684   6.778   3.644   1.594
11929SOL    HW237685   6.728   3.782   1.629
11930SOL     OW37686  10.268  13.903   3.008
11930SOL    HW137687  10.245  13.987   2.970
11930SOL    HW237688  10.351  13.879   2.965
11931SOL     OW37689  10.793   5.121   8.346
11931SOL    HW137690  10.806   5.080   8.261
11931SOL    HW237691  10.863   5.085   8.401
11932SOL     OW37692   9.257   5.475   2.174
11932SOL    HW137693   9.242   5.473   2.269
11932SOL    HW237694   9.348   5.505   2.165
11933SOL     OW37695   7.700  12.220   1.572
11933SOL    HW137696   7.680  12.248   1.661
11933SOL    HW237697   7.616  12.221   1.527
11934SOL     OW37698   1.865  10.476  14.030
11934SOL    HW137699   1.936  10.414  14.047
11934SOL    HW237700   1.815  10.436  13.959
11935SOL     OW37701  11.078   1.488   1.007
11935SOL    HW137702  11.080   1.582   0.987
11935SOL    HW237703  11.052   1.484   1.099
11936SOL     OW37704   2.115   9.034   4.901
11936SOL    HW137705   2.132   8.963   4.838
11936SOL    HW237706   2.133   9.114   4.851
11937SOL     OW37707  14.323   7.160  11.404
11937SOL    HW137708  14.351   7.099  11.336
11937SOL    HW237709  14.375   7.239  11.388
11938SOL     OW37710  10.378  11.201   2.261
11938SOL    HW137711  10.305  11.139   2.266
11938SOL    HW237712  10.344  11.272   2.206
11939SOL     OW37713  11.851   2.478   5.090
11939SOL    HW137714  11.839   2.573   5.081
11939SOL    HW237715  11.946   2.467   5.097
11940SOL     OW37716   4.260  14.125  11.956
11940SOL    HW137717   4.310  14.157  11.881
11940SOL    HW237718   4.223  14.042  11.927
11941SOL     OW37719   0.049   7.205   1.478
11941SOL    HW137720   0.017   7.122   1.442
11941SOL    HW237721   0.030   7.270   1.410
11942SOL     OW37722   6.862   9.127   8.558
11942SOL    HW137723   6.911   9.124   8.476
11942SOL    HW237724   6.913   9.186   8.614
11943SOL     OW37725   0.406  14.541  11.286
11943SOL    HW137726   0.401  14.494  11.203
11943SOL    HW237727   0.476  14.496  11.334
11944SOL     OW37728   8.593   2.403   0.106
11944SOL    HW137729   8.550   2.480   0.068
11944SOL    HW237730   8.524   2.359   0.156
11945SOL     OW37731   7.736   1.698  14.345
11945SOL    HW137732   7.766   1.622  14.396
11945SOL    HW237733   7.774   1.773  14.391
11946SOL     OW37734   5.826   2.294   8.161
11946SOL    HW137735   5.880   2.322   8.087
11946SOL    HW237736   5.794   2.207   8.136
11947SOL     OW37737   8.921   0.618   7.289
11947SOL    HW137738   8.930   0.584   7.200
11947SOL    HW237739   9.004   0.662   7.307
11948SOL     OW37740   2.131  12.626   0.355
11948SOL    HW137741   2.177  12.546   0.380
11948SOL    HW237742   2.070  12.599   0.287
11949SOL     OW37743   5.012  13.034   1.822
11949SOL    HW137744   5.006  13.117   1.775
11949SOL    HW237745   5.024  13.058   1.914
11950SOL     OW37746   0.574  12.083  11.531
11950SOL    HW137747   0.622  12.140  11.591
11950SOL    HW237748   0.482  12.097  11.553
11951SOL     OW37749  11.177   6.560   6.448
11951SOL    HW137750  11.129   6.479   6.433
11951SOL    HW237751  11.209   6.585   6.362
11952SOL     OW37752   7.158   7.164   4.661
11952SOL    HW137753   7.146   7.191   4.752
11952SOL    HW237754   7.193   7.242   4.618
11953SOL     OW37755   7.413   4.217   4.685
11953SOL    HW137756   7.473   4.290   4.699
11953SOL    HW237757   7.346   4.252   4.627
11954SOL     OW37758   9.629   1.395  13.601
11954SOL    HW137759   9.601   1.344  13.677
11954SOL    HW237760   9.606   1.486  13.623
11955SOL     OW37761   8.592   3.327  12.731
11955SOL    HW137762   8.555   3.293  12.649
11955SOL    HW237763   8.536   3.401  12.754
11956SOL     OW37764  12.828   1.461   4.918
11956SOL    HW137765  12.773   1.521   4.968
11956SOL    HW237766  12.915   1.502   4.917
11957SOL     OW37767   7.840   5.215   0.922
11957SOL    HW137768   7.865   5.295   0.968
11957SOL    HW237769   7.753   5.233   0.889
11958SOL     OW37770   6.365  11.480  12.564
11958SOL    HW137771   6.349  11.418  12.493
11958SOL    HW237772   6.295  11.463  12.628
11959SOL     OW37773  10.660   3.256   8.599
11959SOL    HW137774  10.690   3.346   8.587
11959SOL    HW237775  10.572   3.255   8.561
11960SOL     OW37776   4.667   6.880  12.745
11960SOL    HW137777   4.636   6.967  12.772
11960SOL    HW237778   4.707   6.844  12.824
11961SOL     OW37779  14.204   6.377   7.374
11961SOL    HW137780  14.222   6.399   7.465
11961SOL    HW237781  14.110   6.392   7.364
11962SOL     OW37782  13.496   7.647   9.761
11962SOL    HW137783  13.553   7.570   9.761
11962SOL    HW237784  13.540   7.710   9.704
11963SOL     OW37785  11.270   6.815  14.331
11963SOL    HW137786  11.214   6.861  14.393
11963SOL    HW237787  11.248   6.853  14.246
11964SOL     OW37788   6.287  13.036   6.426
11964SOL    HW137789   6.355  13.047   6.492
11964SOL    HW237790   6.265  12.943   6.430
11965SOL     OW37791   6.312   7.591   5.325
11965SOL    HW137792   6.264   7.576   5.244
11965SOL    HW237793   6.303   7.508   5.373
11966SOL     OW37794   2.284   8.137   3.716
11966SOL    HW137795   2.231   8.116   3.792
11966SOL    HW237796   2.235   8.102   3.642
11967SOL     OW37797  10.988   6.318   3.703
11967SOL    HW137798  10.908   6.337   3.752
11967SOL    HW237799  11.000   6.223   3.711
11968SOL     OW37800   1.136  11.754   5.017
11968SOL    HW137801   1.176  11.834   5.052
11968SOL    HW237802   1.207  11.691   5.012
11969SOL     OW37803  11.168  11.388   2.425
11969SOL    HW137804  11.209  11.441   2.356
11969SOL    HW237805  11.186  11.297   2.399
11970SOL     OW37806  12.760   8.940   5.559
11970SOL    HW137807  12.782   8.869   5.618
11970SOL    HW237808  12.666   8.955   5.572
11971SOL     OW37809   6.028  12.784   6.295
11971SOL    HW137810   6.115  12.803   6.332
11971SOL    HW237811   6.006  12.697   6.329
11972SOL     OW37812   7.191  12.492   9.478
11972SOL    HW137813   7.172  12.406   9.514
11972SOL    HW237814   7.268  12.522   9.527
11973SOL     OW37815  12.247   8.244  11.481
11973SOL    HW137816  12.201   8.275  11.403
11973SOL    HW237817  12.228   8.150  11.484
11974SOL     OW37818   9.978   9.494  12.296
11974SOL    HW137819   9.997   9.527  12.384
11974SOL    HW237820  10.037   9.543  12.239
11975SOL     OW37821  10.940   9.575  12.336
11975SOL    HW137822  10.908   9.545  12.421
11975SOL    HW237823  10.894   9.520  12.273
11976SOL     OW37824   3.706   6.397  10.380
11976SOL    HW137825   3.677   6.351  10.302
11976SOL    HW237826   3.733   6.484  10.349
11977SOL     OW37827  13.098   4.923  11.355
11977SOL    HW137828  13.109   4.910  11.449
11977SOL    HW237829  13.126   5.013  11.339
11978SOL     OW37830   5.151   6.417   3.657
11978SOL    HW137831   5.241   6.435   3.683
11978SOL    HW237832   5.098   6.450   3.729
11979SOL     OW37833   3.699   8.681   3.808
11979SOL    HW137834   3.610   8.712   3.792
11979SOL    HW237835   3.748   8.707   3.730
11980SOL     OW37836   2.837   0.316   3.750
11980SOL    HW137837   2.818   0.231   3.708
11980SOL    HW237838   2.895   0.360   3.687
11981SOL     OW37839   8.972   5.960   8.267
11981SOL    HW137840   8.973   5.866   8.289
11981SOL    HW237841   9.049   5.995   8.312
11982SOL     OW37842   6.156   4.192   6.860
11982SOL    HW137843   6.214   4.249   6.811
11982SOL    HW237844   6.205   4.170   6.939
11983SOL     OW37845   9.615   9.876   4.771
11983SOL    HW137846   9.640   9.872   4.678
11983SOL    HW237847   9.663   9.952   4.805
11984SOL     OW37848   5.408   7.070   5.249
11984SOL    HW137849   5.500   7.046   5.243
11984SOL    HW237850   5.403   7.156   5.208
11985SOL     OW37851   4.527   7.542  11.671
11985SOL    HW137852   4.575   7.624  11.676
11985SOL    HW237853   4.543   7.500  11.756
11986SOL     OW37854   7.713   8.695   1.383
11986SOL    HW137855   7.728   8.658   1.297
11986SOL    HW237856   7.698   8.788   1.367
11987SOL     OW37857  13.293   1.897   5.888
11987SOL    HW137858  13.227   1.960   5.918
11987SOL    HW237859  13.363   1.904   5.952
11988SOL     OW37860   4.736   2.014  13.556
11988SOL    HW137861   4.656   2.026  13.607
11988SOL    HW237862   4.782   1.942  13.599
11989SOL     OW37863   1.796   6.545  11.819
11989SOL    HW137864   1.851   6.498  11.882
11989SOL    HW237865   1.710   6.549  11.861
11990SOL     OW37866   2.722  11.845  12.900
11990SOL    HW137867   2.628  11.828  12.903
11990SOL    HW237868   2.748  11.853  12.992
11991SOL     OW37869   1.914   9.314   6.294
11991SOL    HW137870   1.915   9.402   6.331
11991SOL    HW237871   1.975   9.264   6.348
11992SOL     OW37872   7.772   4.112   3.843
11992SOL    HW137873   7.690   4.120   3.892
11992SOL    HW237874   7.818   4.194   3.859
11993SOL     OW37875   2.520  10.929  13.353
11993SOL    HW137876   2.499  10.854  13.409
11993SOL    HW237877   2.591  10.898  13.297
11994SOL     OW37878   6.191   2.581  11.723
11994SOL    HW137879   6.233   2.527  11.656
11994SOL    HW237880   6.103   2.546  11.731
11995SOL     OW37881  10.253   5.839  12.468
11995SOL    HW137882  10.293   5.908  12.520
11995SOL    HW237883  10.224   5.774  12.533
11996SOL     OW37884   7.787   1.844   2.488
11996SOL    HW137885   7.791   1.937   2.510
11996SOL    HW237886   7.829   1.838   2.402
11997SOL     OW37887  12.385   7.731   8.523
11997SOL    HW137888  12.432   7.697   8.446
11997SOL    HW237889  12.453   7.772   8.576
11998SOL     OW37890   0.121   4.656  11.522
11998SOL    HW137891   0.055   4.702  11.574
11998SOL    HW237892   0.172   4.607  11.586
11999SOL     OW37893   9.609   5.710   2.818
11999SOL    HW137894   9.610   5.627   2.865
11999SOL    HW237895   9.695   5.713   2.775
12000SOL     OW37896   9.339   3.407   0.331
12000SOL    HW137897   9.353   3.409   0.426
12000SOL    HW237898   9.414   3.453   0.294
12001SOL     OW37899   2.448  13.746   7.965
12001SOL    HW137900   2.504  13.707   8.033
12001SOL    HW237901   2.436  13.677   7.901
12002SOL     OW37902   3.683   2.079   5.436
12002SOL    HW137903   3.697   2.126   5.354
12002SOL    HW237904   3.682   2.147   5.503
12003SOL     OW37905  12.319   9.182   4.442
12003SOL    HW137906  12.323   9.273   4.474
12003SOL    HW237907  12.396   9.140   4.480
12004SOL     OW37908   8.826  10.225  14.400
12004SOL    HW137909   8.839  10.230  14.306
12004SOL    HW237910   8.743  10.178  14.410
12005SOL     OW37911   3.171  11.101  10.620
12005SOL    HW137912   3.205  11.124  10.706
12005SOL    HW237913   3.154  11.185  10.577
12006SOL     OW37914  14.374   1.744   7.182
12006SOL    HW137915  14.384   1.680   7.112
12006SOL    HW237916  14.427   1.819   7.154
12007SOL     OW37917  13.638  10.336  13.670
12007SOL    HW137918  13.633  10.245  13.700
12007SOL    HW237919  13.554  10.351  13.627
12008SOL     OW37920  14.155   4.744   0.069
12008SOL    HW137921  14.234   4.698   0.096
12008SOL    HW237922  14.161   4.750  14.856
12009SOL     OW37923   3.173   6.794   1.863
12009SOL    HW137924   3.243   6.851   1.895
12009SOL    HW237925   3.219   6.721   1.821
12010SOL     OW37926  12.686   5.064   0.679
12010SOL    HW137927  12.704   5.054   0.772
12010SOL    HW237928  12.681   4.975   0.645
12011SOL     OW37929  11.190   9.521  14.026
12011SOL    HW137930  11.202   9.595  13.967
12011SOL    HW237931  11.097   9.522  14.049
12012SOL     OW37932   2.234  11.157  11.119
12012SOL    HW137933   2.241  11.116  11.033
12012SOL    HW237934   2.211  11.085  11.178
12013SOL     OW37935   8.075   8.637  14.746
12013SOL    HW137936   8.104   8.586  14.822
12013SOL    HW237937   8.031   8.713  14.783
12014SOL     OW37938   1.506  12.519  12.495
12014SOL    HW137939   1.536  12.432  12.471
12014SOL    HW237940   1.491  12.562  12.411
12015SOL     OW37941   6.729   5.704  11.747
12015SOL    HW137942   6.717   5.711  11.652
12015SOL    HW237943   6.824   5.696  11.759
12016SOL     OW37944   2.530   0.474  10.206
12016SOL    HW137945   2.625   0.478  10.195
12016SOL    HW237946   2.511   0.380  10.212
12017SOL     OW37947  14.244  14.429   9.429
12017SOL    HW137948  14.325  14.471   9.401
12017SOL    HW237949  14.252  14.339   9.398
12018SOL     OW37950  14.831  10.945  14.360
12018SOL    HW137951   0.041  10.933  14.381
12018SOL    HW237952  14.813  11.036  14.382
12019SOL     OW37953  12.371  14.285   4.749
12019SOL    HW137954  12.310  14.216   4.775
12019SOL    HW237955  12.407  14.255   4.666
12020SOL     OW37956  14.095   7.030  14.484
12020SOL    HW137957  14.156   7.103  14.490
12020SOL    HW237958  14.086   6.998  14.574
12021SOL     OW37959   9.636  12.523   6.489
12021SOL    HW137960   9.564  12.460   6.494
12021SOL    HW237961   9.611  12.593   6.551
12022SOL     OW37962  11.971   5.201  13.872
12022SOL    HW137963  11.900   5.144  13.901
12022SOL    HW237964  11.976   5.270  13.938
12023SOL     OW37965  10.930   1.023   3.502
12023SOL    HW137966  10.998   1.090   3.499
12023SOL    HW237967  10.919   1.004   3.595
12024SOL     OW37968   6.771   6.146  14.132
12024SOL    HW137969   6.733   6.106  14.053
12024SOL    HW237970   6.796   6.071  14.186
12025SOL     OW37971  14.806   9.872   4.196
12025SOL    HW137972  14.793   9.933   4.122
12025SOL    HW237973  14.729   9.815   4.193
12026SOL     OW37974   6.902   8.364   3.433
12026SOL    HW137975   6.856   8.432   3.384
12026SOL    HW237976   6.883   8.384   3.525
12027SOL     OW37977   6.009   8.765   2.339
12027SOL    HW137978   6.098   8.733   2.358
12027SOL    HW237979   6.011   8.782   2.244
12028SOL     OW37980   8.330   4.607   7.390
12028SOL    HW137981   8.384   4.673   7.434
12028SOL    HW237982   8.317   4.642   7.302
12029SOL     OW37983   2.836   7.548   3.024
12029SOL    HW137984   2.879   7.609   3.084
12029SOL    HW237985   2.782   7.493   3.080
12030SOL     OW37986   2.551   7.445   6.797
12030SOL    HW137987   2.559   7.539   6.778
12030SOL    HW237988   2.631   7.423   6.844
12031SOL     OW37989   6.201  10.396   8.478
12031SOL    HW137990   6.190  10.304   8.501
12031SOL    HW237991   6.240  10.394   8.390
12032SOL     OW37992   3.634   0.945   6.779
12032SOL    HW137993   3.666   0.954   6.869
12032SOL    HW237994   3.552   0.994   6.777
12033SOL     OW37995  10.466   9.248   1.574
12033SOL    HW137996  10.427   9.168   1.609
12033SOL    HW237997  10.394   9.293   1.530
12034SOL     OW37998  11.133   7.894  11.890
12034SOL    HW137999  11.070   7.965  11.879
12034SOL    HW238000  11.106   7.828  11.826
12035SOL     OW38001   7.353   1.145  13.242
12035SOL    HW138002   7.276   1.112  13.289
12035SOL    HW238003   7.318   1.184  13.163
12036SOL     OW38004  13.894  10.175   7.647
12036SOL    HW138005  13.842  10.144   7.574
12036SOL    HW238006  13.861  10.263   7.665
12037SOL     OW38007   2.926  10.868  12.958
12037SOL    HW138008   3.005  10.897  12.912
12037SOL    HW238009   2.923  10.773  12.943
12038SOL     OW38010  14.507   7.115  10.508
12038SOL    HW138011  14.542   7.030  10.481
12038SOL    HW238012  14.472   7.153  10.428
12039SOL     OW38013  11.962  10.464   8.501
12039SOL    HW138014  11.981  10.380   8.543
12039SOL    HW238015  11.874  10.455   8.467
12040SOL     OW38016  10.070   3.082   1.124
12040SOL    HW138017   9.994   3.115   1.078
12040SOL    HW238018  10.058   2.987   1.124
12041SOL     OW38019   7.129  13.248   3.782
12041SOL    HW138020   7.165  13.298   3.855
12041SOL    HW238021   7.190  13.263   3.710
12042SOL     OW38022  11.756  10.707   6.494
12042SOL    HW138023  11.757  10.633   6.433
12042SOL    HW238024  11.838  10.700   6.542
12043SOL     OW38025   3.761   3.755   0.961
12043SOL    HW138026   3.680   3.704   0.960
12043SOL    HW238027   3.819   3.708   0.900
12044SOL     OW38028   0.257   7.557  12.857
12044SOL    HW138029   0.268   7.565  12.763
12044SOL    HW238030   0.180   7.612  12.877
12045SOL     OW38031  10.884  12.959  10.474
12045SOL    HW138032  10.941  12.963  10.550
12045SOL    HW238033  10.896  12.871  10.439
12046SOL     OW38034   0.736   0.726   1.809
12046SOL    HW138035   0.744   0.728   1.905
12046SOL    HW238036   0.672   0.795   1.789
12047SOL     OW38037   7.945   9.910   0.828
12047SOL    HW138038   7.957   9.998   0.793
12047SOL    HW238039   7.975   9.852   0.758
12048SOL     OW38040   9.332   0.580  12.519
12048SOL    HW138041   9.290   0.522  12.582
12048SOL    HW238042   9.385   0.640  12.571
12049SOL     OW38043   7.105  13.262   8.734
12049SOL    HW138044   7.139  13.199   8.797
12049SOL    HW238045   7.148  13.345   8.756
12050SOL     OW38046   5.079   4.840  11.785
12050SOL    HW138047   5.169   4.843  11.753
12050SOL    HW238048   5.047   4.930  11.777
12051SOL     OW38049   4.133  14.179   7.416
12051SOL    HW138050   4.074  14.254   7.407
12051SOL    HW238051   4.122  14.131   7.334
12052SOL     OW38052  13.074   5.710   6.730
12052SOL    HW138053  13.126   5.727   6.651
12052SOL    HW238054  13.125   5.749   6.801
12053SOL     OW38055  10.667   9.115   8.583
12053SOL    HW138056  10.608   9.090   8.512
12053SOL    HW238057  10.744   9.148   8.538
12054SOL     OW38058  10.835  14.122   5.524
12054SOL    HW138059  10.765  14.188   5.522
12054SOL    HW238060  10.911  14.168   5.488
12055SOL     OW38061  13.298   9.868  13.556
12055SOL    HW138062  13.296   9.794  13.495
12055SOL    HW238063  13.374   9.851  13.612
12056SOL     OW38064  12.278   2.842   6.148
12056SOL    HW138065  12.223   2.872   6.076
12056SOL    HW238066  12.277   2.747   6.142
12057SOL     OW38067   2.858   4.237  10.051
12057SOL    HW138068   2.833   4.266   9.963
12057SOL    HW238069   2.802   4.161  10.067
12058SOL     OW38070   3.287   0.103   4.612
12058SOL    HW138071   3.328   0.070   4.532
12058SOL    HW238072   3.293   0.198   4.604
12059SOL     OW38073  14.225   7.331   2.501
12059SOL    HW138074  14.162   7.323   2.571
12059SOL    HW238075  14.267   7.417   2.515
12060SOL     OW38076   5.663   9.629   0.083
12060SOL    HW138077   5.749   9.669   0.085
12060SOL    HW238078   5.677   9.544   0.041
12061SOL     OW38079  12.928   0.820  11.274
12061SOL    HW138080  12.974   0.879  11.214
12061SOL    HW238081  12.836   0.832  11.252
12062SOL     OW38082  12.026   3.731   8.600
12062SOL    HW138083  12.084   3.655   8.589
12062SOL    HW238084  11.940   3.699   8.573
12063SOL     OW38085  10.975   6.285   9.005
12063SOL    HW138086  10.976   6.380   8.989
12063SOL    HW238087  10.992   6.247   8.919
12064SOL     OW38088   0.314   2.111  10.539
12064SOL    HW138089   0.347   2.135  10.625
12064SOL    HW238090   0.233   2.063  10.557
12065SOL     OW38091  13.557   2.439   5.922
12065SOL    HW138092  13.497   2.497   5.876
12065SOL    HW238093  13.639   2.488   5.926
12066SOL     OW38094   7.836  13.993  10.843
12066SOL    HW138095   7.877  13.916  10.884
12066SOL    HW238096   7.803  14.044  10.917
12067SOL     OW38097   1.761   7.473  11.561
12067SOL    HW138098   1.829   7.531  11.529
12067SOL    HW238099   1.775   7.391  11.513
12068SOL     OW38100  11.469   8.402   1.484
12068SOL    HW138101  11.467   8.460   1.408
12068SOL    HW238102  11.544   8.345   1.468
12069SOL     OW38103  12.757  13.828   8.415
12069SOL    HW138104  12.691  13.882   8.459
12069SOL    HW238105  12.817  13.802   8.484
12070SOL     OW38106  14.698   5.177   5.143
12070SOL    HW138107  14.668   5.164   5.233
12070SOL    HW238108  14.719   5.089   5.111
12071SOL     OW38109   0.035   9.174  10.561
12071SOL    HW138110   0.085   9.142  10.636
12071SOL    HW238111   0.080   9.138  10.485
12072SOL     OW38112  14.409   1.212   4.921
12072SOL    HW138113  14.479   1.147   4.921
12072SOL    HW238114  14.335   1.167   4.879
12073SOL     OW38115  13.698   0.092  11.813
12073SOL    HW138116  13.614   0.055  11.783
12073SOL    HW238117  13.758   0.075  11.741
12074SOL     OW38118   9.903   9.608  12.866
12074SOL    HW138119   9.971   9.656  12.818
12074SOL    HW238120   9.852   9.676  12.910
12075SOL     OW38121  10.979   5.074   3.248
12075SOL    HW138122  11.047   5.033   3.194
12075SOL    HW238123  10.915   5.005   3.261
12076SOL     OW38124   8.394   5.005   4.356
12076SOL    HW138125   8.481   5.005   4.395
12076SOL    HW238126   8.389   4.921   4.309
12077SOL     OW38127   4.715  10.498   9.693
12077SOL    HW138128   4.663  10.438   9.640
12077SOL    HW238129   4.765  10.549   9.629
12078SOL     OW38130   6.387  11.506   8.448
12078SOL    HW138131   6.386  11.412   8.430
12078SOL    HW238132   6.478  11.524   8.474
12079SOL     OW38133   2.085   2.592   4.096
12079SOL    HW138134   2.178   2.605   4.113
12079SOL    HW238135   2.051   2.680   4.080
12080SOL     OW38136   6.035   1.483   3.461
12080SOL    HW138137   6.110   1.474   3.402
12080SOL    HW238138   6.073   1.521   3.541
12081SOL     OW38139   4.950  13.040   1.288
12081SOL    HW138140   5.045  13.028   1.293
12081SOL    HW238141   4.938  13.119   1.234
12082SOL     OW38142   0.597   1.092   8.812
12082SOL    HW138143   0.606   1.017   8.753
12082SOL    HW238144   0.504   1.113   8.810
12083SOL     OW38145   8.495   4.422   2.526
12083SOL    HW138146   8.506   4.339   2.573
12083SOL    HW238147   8.567   4.476   2.557
12084SOL     OW38148   9.067  12.167   3.185
12084SOL    HW138149   9.096  12.228   3.253
12084SOL    HW238150   9.046  12.087   3.233
12085SOL     OW38151  10.655   9.638   7.445
12085SOL    HW138152  10.717   9.600   7.507
12085SOL    HW238153  10.678   9.730   7.441
12086SOL     OW38154   5.314   3.874  10.682
12086SOL    HW138155   5.270   3.890  10.766
12086SOL    HW238156   5.242   3.864  10.619
12087SOL     OW38157  12.432   5.208   0.660
12087SOL    HW138158  12.520   5.174   0.675
12087SOL    HW238159  12.376   5.131   0.663
12088SOL     OW38160  13.783   0.320   1.187
12088SOL    HW138161  13.800   0.410   1.215
12088SOL    HW238162  13.722   0.286   1.252
12089SOL     OW38163   3.176  11.962   9.239
12089SOL    HW138164   3.237  11.961   9.165
12089SOL    HW238165   3.213  12.027   9.299
12090SOL     OW38166   0.497   7.269   4.305
12090SOL    HW138167   0.532   7.256   4.217
12090SOL    HW238168   0.541   7.349   4.336
12091SOL     OW38169   9.052   6.376   7.217
12091SOL    HW138170   9.025   6.286   7.200
12091SOL    HW238171   9.107   6.370   7.294
12092SOL     OW38172   0.045  13.804  10.458
12092SOL    HW138173   0.033  13.782  10.551
12092SOL    HW238174   0.076  13.895  10.459
12093SOL     OW38175  12.669  13.932  11.732
12093SOL    HW138176  12.755  13.950  11.695
12093SOL    HW238177  12.610  13.992  11.686
12094SOL     OW38178  11.709   8.580   5.729
12094SOL    HW138179  11.668   8.510   5.778
12094SOL    HW238180  11.675   8.660   5.769
12095SOL     OW38181   7.664  12.399   2.973
12095SOL    HW138182   7.649  12.355   2.890
12095SOL    HW238183   7.686  12.328   3.034
12096SOL     OW38184  10.051  10.834   5.199
12096SOL    HW138185  10.118  10.769   5.220
12096SOL    HW238186  10.099  10.915   5.188
12097SOL     OW38187  14.327   9.836   9.354
12097SOL    HW138188  14.351   9.786   9.432
12097SOL    HW238189  14.403   9.828   9.296
12098SOL     OW38190   0.805   8.878  13.117
12098SOL    HW138191   0.895   8.867  13.086
12098SOL    HW238192   0.752   8.881  13.037
12099SOL     OW38193   4.560   2.267   6.902
12099SOL    HW138194   4.469   2.244   6.920
12099SOL    HW238195   4.603   2.183   6.883
12100SOL     OW38196  10.774   9.697  11.479
12100SOL    HW138197  10.718   9.688  11.402
12100SOL    HW238198  10.851   9.743  11.447
12101SOL     OW38199   0.656   2.552  14.433
12101SOL    HW138200   0.563   2.548  14.413
12101SOL    HW238201   0.660   2.579  14.525
12102SOL     OW38202   2.420  11.721  13.775
12102SOL    HW138203   2.427  11.636  13.819
12102SOL    HW238204   2.326  11.740  13.775
12103SOL     OW38205   5.267   6.555  11.123
12103SOL    HW138206   5.192   6.611  11.103
12103SOL    HW238207   5.343   6.614  11.118
12104SOL     OW38208   3.799   9.455  14.161
12104SOL    HW138209   3.802   9.370  14.116
12104SOL    HW238210   3.707   9.480  14.157
12105SOL     OW38211   2.747  14.226  13.661
12105SOL    HW138212   2.692  14.249  13.737
12105SOL    HW238213   2.715  14.282  13.591
12106SOL     OW38214   4.971   5.500   5.731
12106SOL    HW138215   4.905   5.432   5.741
12106SOL    HW238216   4.956   5.536   5.643
12107SOL     OW38217  11.482  10.480  12.023
12107SOL    HW138218  11.511  10.406  11.970
12107SOL    HW238219  11.500  10.454  12.113
12108SOL     OW38220   4.899   5.872   0.415
12108SOL    HW138221   4.913   5.857   0.322
12108SOL    HW238222   4.980   5.841   0.457
12109SOL     OW38223   9.544   8.306   0.381
12109SOL    HW138224   9.548   8.395   0.415
12109SOL    HW238225   9.631   8.270   0.396
12110SOL     OW38226   8.325   1.514  11.069
12110SOL    HW138227   8.338   1.420  11.069
12110SOL    HW238228   8.412   1.551  11.082
12111SOL     OW38229   4.790  11.279  13.541
12111SOL    HW138230   4.724  11.258  13.607
12111SOL    HW238231   4.835  11.197  13.524
12112SOL     OW38232  11.726   3.198  12.756
12112SOL    HW138233  11.741   3.142  12.832
12112SOL    HW238234  11.757   3.284  12.784
12113SOL     OW38235   1.733   1.073   6.246
12113SOL    HW138236   1.656   1.036   6.289
12113SOL    HW238237   1.800   1.073   6.315
12114SOL     OW38238   7.410   1.587   7.188
12114SOL    HW138239   7.402   1.552   7.099
12114SOL    HW238240   7.458   1.668   7.178
12115SOL     OW38241  13.024   1.572  11.031
12115SOL    HW138242  12.968   1.647  11.052
12115SOL    HW238243  12.989   1.538  10.949
12116SOL     OW38244   1.330   1.043  12.613
12116SOL    HW138245   1.292   0.964  12.573
12116SOL    HW238246   1.374   1.087  12.540
12117SOL     OW38247   7.908   2.514  10.863
12117SOL    HW138248   7.837   2.451  10.854
12117SOL    HW238249   7.942   2.498  10.952
12118SOL     OW38250   4.151   3.268   7.107
12118SOL    HW138251   4.214   3.244   7.175
12118SOL    HW238252   4.199   3.331   7.052
12119SOL     OW38253   7.356   6.237   6.203
12119SOL    HW138254   7.443   6.207   6.178
12119SOL    HW238255   7.348   6.324   6.164
12120SOL     OW38256  11.327  13.453   3.557
12120SOL    HW138257  11.357  13.497   3.478
12120SOL    HW238258  11.384  13.485   3.626
12121SOL     OW38259   1.512   7.142   6.077
12121SOL    HW138260   1.433   7.191   6.055
12121SOL    HW238261   1.509   7.132   6.172
12122SOL     OW38262  13.264  14.320   0.791
12122SOL    HW138263  13.206  14.245   0.801
12122SOL    HW238264  13.215  14.393   0.828
12123SOL     OW38265   7.976   6.612   9.531
12123SOL    HW138266   7.910   6.664   9.576
12123SOL    HW238267   7.985   6.654   9.445
12124SOL     OW38268   8.244   0.102  14.493
12124SOL    HW138269   8.284   0.016  14.511
12124SOL    HW238270   8.254   0.150  14.575
12125SOL     OW38271  12.113  13.873   0.348
12125SOL    HW138272  12.057  13.907   0.279
12125SOL    HW238273  12.196  13.852   0.304
12126SOL     OW38274   1.905   3.171   5.086
12126SOL    HW138275   1.972   3.207   5.028
12126SOL    HW238276   1.835   3.237   5.085
12127SOL     OW38277  14.479  13.617   1.678
12127SOL    HW138278  14.548  13.656   1.732
12127SOL    HW238279  14.399  13.626   1.730
12128SOL     OW38280   9.854   5.315  14.430
12128SOL    HW138281   9.836   5.391  14.486
12128SOL    HW238282   9.934   5.276  14.466
12129SOL     OW38283   9.764  13.826   1.023
12129SOL    HW138284   9.805  13.864   0.945
12129SOL    HW238285   9.701  13.763   0.988
12130SOL     OW38286   4.529  10.259   2.236
12130SOL    HW138287   4.476  10.211   2.299
12130SOL    HW238288   4.553  10.194   2.170
12131SOL     OW38289   5.449  13.836   6.461
12131SOL    HW138290   5.428  13.745   6.482
12131SOL    HW238291   5.487  13.871   6.542
12132SOL     OW38292   3.405   4.517   6.357
12132SOL    HW138293   3.435   4.451   6.294
12132SOL    HW238294   3.315   4.535   6.330
12133SOL     OW38295  13.659   2.385   3.174
12133SOL    HW138296  13.583   2.442   3.170
12133SOL    HW238297  13.714   2.412   3.101
12134SOL     OW38298   4.999   0.728   6.547
12134SOL    HW138299   4.907   0.715   6.520
12134SOL    HW238300   5.035   0.786   6.480
12135SOL     OW38301   6.433   6.902   2.881
12135SOL    HW138302   6.467   6.901   2.792
12135SOL    HW238303   6.493   6.847   2.931
12136SOL     OW38304   0.063   1.066   3.810
12136SOL    HW138305   0.061   0.976   3.779
12136SOL    HW238306  14.879   1.070   3.878
12137SOL     OW38307  13.579   3.279   5.324
12137SOL    HW138308  13.527   3.354   5.353
12137SOL    HW238309  13.670   3.307   5.333
12138SOL     OW38310   9.500  11.447   6.943
12138SOL    HW138311   9.462  11.426   7.028
12138SOL    HW238312   9.575  11.504   6.963
12139SOL     OW38313   7.276  13.464   7.269
12139SOL    HW138314   7.250  13.501   7.185
12139SOL    HW238315   7.214  13.501   7.332
12140SOL     OW38316   9.538   2.670   8.150
12140SOL    HW138317   9.624   2.709   8.167
12140SOL    HW238318   9.476   2.735   8.181
12141SOL     OW38319   4.717   7.847  11.226
12141SOL    HW138320   4.716   7.815  11.136
12141SOL    HW238321   4.653   7.792  11.272
12142SOL     OW38322   5.133   5.204   1.893
12142SOL    HW138323   5.107   5.151   1.968
12142SOL    HW238324   5.160   5.288   1.931
12143SOL     OW38325  14.431   3.868  12.308
12143SOL    HW138326  14.517   3.842  12.276
12143SOL    HW238327  14.449   3.934  12.375
12144SOL     OW38328   4.996  14.595   9.481
12144SOL    HW138329   4.974  14.576   9.573
12144SOL    HW238330   4.998  14.691   9.477
12145SOL     OW38331   5.593  11.007   1.414
12145SOL    HW138332   5.568  11.049   1.331
12145SOL    HW238333   5.683  11.037   1.430
12146SOL     OW38334   5.393   0.297   4.236
12146SOL    HW138335   5.354   0.335   4.314
12146SOL    HW238336   5.474   0.345   4.224
12147SOL     OW38337   5.426   2.377  14.315
12147SOL    HW138338   5.349   2.383  14.371
12147SOL    HW238339   5.438   2.283  14.300
12148SOL     OW38340   8.286   9.118   6.142
12148SOL    HW138341   8.195   9.101   6.166
12148SOL    HW238342   8.314   9.038   6.098
12149SOL     OW38343   1.137  12.141   9.863
12149SOL    HW138344   1.108  12.176   9.947
12149SOL    HW238345   1.176  12.056   9.885
12150SOL     OW38346   2.345   2.607   4.194
12150SOL    HW138347   2.433   2.586   4.165
12150SOL    HW238348   2.305   2.523   4.215
12151SOL     OW38349   5.862   6.770   9.581
12151SOL    HW138350   5.856   6.698   9.644
12151SOL    HW238351   5.897   6.843   9.632
12152SOL     OW38352   4.408   4.861   9.321
12152SOL    HW138353   4.346   4.816   9.378
12152SOL    HW238354   4.463   4.791   9.286
12153SOL     OW38355   3.425  13.580   9.279
12153SOL    HW138356   3.332  13.560   9.284
12153SOL    HW238357   3.437  13.654   9.338
12154SOL     OW38358  11.448  13.958  13.680
12154SOL    HW138359  11.517  14.023  13.688
12154SOL    HW238360  11.457  13.924  13.591
12155SOL     OW38361   6.737  10.178  12.180
12155SOL    HW138362   6.762  10.092  12.145
12155SOL    HW238363   6.801  10.238  12.143
12156SOL     OW38364  10.705   7.424  14.677
12156SOL    HW138365  10.739   7.490  14.616
12156SOL    HW238366  10.745   7.342  14.647
12157SOL     OW38367  12.359   1.833  14.407
12157SOL    HW138368  12.301   1.905  14.430
12157SOL    HW238369  12.437   1.876  14.371
12158SOL     OW38370   4.110   1.795   5.933
12158SOL    HW138371   4.032   1.822   5.980
12158SOL    HW238372   4.174   1.776   6.002
12159SOL     OW38373  12.031   7.663   7.082
12159SOL    HW138374  12.074   7.593   7.131
12159SOL    HW238375  12.019   7.733   7.146
12160SOL     OW38376   1.590   9.913   0.954
12160SOL    HW138377   1.645   9.851   1.000
12160SOL    HW238378   1.504   9.904   0.995
12161SOL     OW38379   0.778  10.279   6.799
12161SOL    HW138380   0.761  10.307   6.709
12161SOL    HW238381   0.867  10.242   6.796
12162SOL     OW38382   1.519   8.149  12.392
12162SOL    HW138383   1.424   8.152  12.407
12162SOL    HW238384   1.529   8.088  12.319
12163SOL     OW38385  10.223   1.459   6.962
12163SOL    HW138386  10.316   1.445   6.980
12163SOL    HW238387  10.221   1.530   6.898
12164SOL     OW38388   7.357   4.575   8.428
12164SOL    HW138389   7.276   4.611   8.465
12164SOL    HW238390   7.369   4.491   8.472
12165SOL     OW38391   3.624  10.496   3.681
12165SOL    HW138392   3.685  10.484   3.608
12165SOL    HW238393   3.671  10.462   3.758
12166SOL     OW38394   7.015   0.927  10.749
12166SOL    HW138395   7.007   1.010  10.796
12166SOL    HW238396   6.963   0.866  10.801
12167SOL     OW38397   2.804   4.556   2.858
12167SOL    HW138398   2.735   4.538   2.922
12167SOL    HW238399   2.767   4.524   2.775
12168SOL     OW38400   8.011   7.317  10.188
12168SOL    HW138401   7.935   7.298  10.243
12168SOL    HW238402   8.020   7.412  10.193
12169SOL     OW38403   7.495  11.790  14.086
12169SOL    HW138404   7.549  11.721  14.047
12169SOL    HW238405   7.405  11.757  14.077
12170SOL     OW38406   9.988  13.714   2.864
12170SOL    HW138407   9.908  13.711   2.918
12170SOL    HW238408  10.042  13.643   2.899
12171SOL     OW38409   6.228   7.326   3.750
12171SOL    HW138410   6.293   7.397   3.744
12171SOL    HW238411   6.253   7.277   3.829
12172SOL     OW38412  11.456  13.101   6.162
12172SOL    HW138413  11.512  13.125   6.235
12172SOL    HW238414  11.484  13.012   6.139
12173SOL     OW38415   0.470   6.489   7.184
12173SOL    HW138416   0.518   6.549   7.126
12173SOL    HW238417   0.399   6.455   7.129
12174SOL     OW38418  12.693  11.841   7.623
12174SOL    HW138419  12.703  11.905   7.552
12174SOL    HW238420  12.723  11.887   7.701
12175SOL     OW38421  14.006   0.879   3.560
12175SOL    HW138422  14.043   0.924   3.484
12175SOL    HW238423  13.931   0.933   3.585
12176SOL     OW38424  12.950   1.118  10.581
12176SOL    HW138425  12.930   1.063  10.506
12176SOL    HW238426  13.032   1.161  10.559
12177SOL     OW38427   8.567   6.218   9.901
12177SOL    HW138428   8.538   6.307   9.880
12177SOL    HW238429   8.661   6.218   9.885
12178SOL     OW38430   9.865   5.658   1.065
12178SOL    HW138431   9.905   5.654   0.978
12178SOL    HW238432   9.938   5.646   1.125
12179SOL     OW38433  12.342  12.240  14.408
12179SOL    HW138434  12.421  12.213  14.361
12179SOL    HW238435  12.270  12.207  14.355
12180SOL     OW38436   4.292  14.650  10.347
12180SOL    HW138437   4.248  14.680  10.268
12180SOL    HW238438   4.222  14.640  10.411
12181SOL     OW38439  10.617   4.889   3.854
12181SOL    HW138440  10.615   4.893   3.759
12181SOL    HW238441  10.703   4.854   3.875
12182SOL     OW38442  14.465  11.544   3.868
12182SOL    HW138443  14.546  11.594   3.857
12182SOL    HW238444  14.417  11.591   3.936
12183SOL     OW38445  10.751  13.651   3.890
12183SOL    HW138446  10.710  13.736   3.875
12183SOL    HW238447  10.681  13.587   3.876
12184SOL     OW38448   1.356   5.827   5.066
12184SOL    HW138449   1.319   5.866   4.987
12184SOL    HW238450   1.441   5.871   5.078
12185SOL     OW38451   7.882   5.299   7.276
12185SOL    HW138452   7.850   5.309   7.365
12185SOL    HW238453   7.838   5.368   7.226
12186SOL     OW38454  14.650   3.401   5.709
12186SOL    HW138455  14.595   3.363   5.777
12186SOL    HW238456  14.714   3.454   5.757
12187SOL     OW38457   8.914   5.924  12.642
12187SOL    HW138458   8.999   5.883  12.623
12187SOL    HW238459   8.936   6.015  12.660
12188SOL     OW38460   3.713  11.670  12.623
12188SOL    HW138461   3.679  11.715  12.545
12188SOL    HW238462   3.793  11.716  12.645
12189SOL     OW38463   2.382  13.966   3.685
12189SOL    HW138464   2.408  13.874   3.695
12189SOL    HW238465   2.434  14.013   3.750
12190SOL     OW38466  12.878   4.416   5.260
12190SOL    HW138467  12.826   4.385   5.186
12190SOL    HW238468  12.814   4.442   5.326
12191SOL     OW38469   2.344  10.185  13.371
12191SOL    HW138470   2.411  10.163  13.436
12191SOL    HW238471   2.388  10.244  13.310
12192SOL     OW38472   4.019   6.860   5.735
12192SOL    HW138473   3.973   6.899   5.809
12192SOL    HW238474   4.008   6.923   5.664
12193SOL     OW38475   9.126   7.128   7.623
12193SOL    HW138476   9.073   7.077   7.684
12193SOL    HW238477   9.155   7.204   7.674
12194SOL     OW38478  11.140   0.081  11.065
12194SOL    HW138479  11.103   0.007  11.113
12194SOL    HW238480  11.143   0.153  11.128
12195SOL     OW38481  13.808   9.604   1.779
12195SOL    HW138482  13.790   9.525   1.830
12195SOL    HW238483  13.722   9.646   1.770
12196SOL     OW38484   7.624  11.637   6.871
12196SOL    HW138485   7.539  11.600   6.847
12196SOL    HW238486   7.681  11.615   6.798
12197SOL     OW38487   5.133   0.240  11.830
12197SOL    HW138488   5.093   0.274  11.750
12197SOL    HW238489   5.145   0.317  11.885
12198SOL     OW38490   4.643   6.887  11.040
12198SOL    HW138491   4.628   6.794  11.053
12198SOL    HW238492   4.582   6.912  10.970
12199SOL     OW38493   2.901   3.877   1.712
12199SOL    HW138494   2.822   3.869   1.659
12199SOL    HW238495   2.873   3.923   1.790
12200SOL     OW38496   7.642   8.841   7.196
12200SOL    HW138497   7.566   8.891   7.166
12200SOL    HW238498   7.609   8.751   7.205
12201SOL     OW38499   1.197  13.634   8.698
12201SOL    HW138500   1.191  13.619   8.604
12201SOL    HW238501   1.106  13.644   8.726
12202SOL     OW38502   1.991   9.002  13.355
12202SOL    HW138503   1.908   8.989  13.309
12202SOL    HW238504   2.052   8.942  13.312
12203SOL     OW38505   7.172   0.986  12.282
12203SOL    HW138506   7.187   1.028  12.367
12203SOL    HW238507   7.166   0.892  12.303
12204SOL     OW38508   8.527  14.292   9.059
12204SOL    HW138509   8.595  14.244   9.011
12204SOL    HW238510   8.574  14.338   9.128
12205SOL     OW38511  12.343   4.204   0.522
12205SOL    HW138512  12.262   4.254   0.519
12205SOL    HW238513  12.374   4.202   0.432
12206SOL     OW38514  12.164  11.314   9.243
12206SOL    HW138515  12.091  11.259   9.216
12206SOL    HW238516  12.146  11.399   9.203
12207SOL     OW38517   2.736   2.571   9.022
12207SOL    HW138518   2.807   2.635   9.010
12207SOL    HW238519   2.758   2.526   9.103
12208SOL     OW38520   5.722   2.033   8.030
12208SOL    HW138521   5.630   2.052   8.012
12208SOL    HW238522   5.722   1.995   8.118
12209SOL     OW38523   1.080  13.427  14.151
12209SOL    HW138524   1.073  13.341  14.192
12209SOL    HW238525   1.130  13.412  14.071
12210SOL     OW38526   9.252   4.188  11.663
12210SOL    HW138527   9.223   4.096  11.665
12210SOL    HW238528   9.346   4.183  11.647
12211SOL     OW38529  14.262   4.894   9.151
12211SOL    HW138530  14.353   4.910   9.173
12211SOL    HW238531  14.231   4.975   9.112
12212SOL     OW38532   5.649   8.703   0.712
12212SOL    HW138533   5.735   8.662   0.710
12212SOL    HW238534   5.666   8.793   0.739
12213SOL     OW38535   1.379  10.952   0.674
12213SOL    HW138536   1.302  10.904   0.642
12213SOL    HW238537   1.349  11.043   0.678
12214SOL     OW38538  13.092   1.526   8.802
12214SOL    HW138539  13.153   1.484   8.862
12214SOL    HW238540  13.139   1.530   8.719
12215SOL     OW38541   0.116   5.501  10.235
12215SOL    HW138542   0.060   5.446  10.180
12215SOL    HW238543   0.182   5.441  10.270
12216SOL     OW38544  10.775   1.463   5.139
12216SOL    HW138545  10.703   1.405   5.162
12216SOL    HW238546  10.841   1.448   5.206
12217SOL     OW38547   6.204   9.187  11.419
12217SOL    HW138548   6.291   9.163  11.450
12217SOL    HW238549   6.150   9.111  11.439
12218SOL     OW38550   6.348   5.369   0.631
12218SOL    HW138551   6.392   5.372   0.716
12218SOL    HW238552   6.286   5.442   0.633
12219SOL     OW38553   9.006   7.726   2.459
12219SOL    HW138554   9.026   7.804   2.510
12219SOL    HW238555   8.949   7.674   2.515
12220SOL     OW38556  14.156   7.043  14.744
12220SOL    HW138557  14.192   7.131  14.756
12220SOL    HW238558  14.201   6.990  14.810
12221SOL     OW38559  12.755  14.633  10.291
12221SOL    HW138560  12.715  14.703  10.239
12221SOL    HW238561  12.767  14.671  10.378
12222SOL     OW38562   6.142   7.380   0.986
12222SOL    HW138563   6.049   7.402   0.974
12222SOL    HW238564   6.188   7.460   0.960
12223SOL     OW38565   9.580   8.057   5.183
12223SOL    HW138566   9.634   8.035   5.107
12223SOL    HW238567   9.644   8.074   5.252
12224SOL     OW38568  12.402   2.124   5.969
12224SOL    HW138569  12.410   2.205   5.919
12224SOL    HW238570  12.391   2.055   5.903
12225SOL     OW38571  10.861   5.542   0.505
12225SOL    HW138572  10.901   5.623   0.537
12225SOL    HW238573  10.820   5.503   0.582
12226SOL     OW38574   4.377   2.113   4.300
12226SOL    HW138575   4.356   2.207   4.301
12226SOL    HW238576   4.357   2.085   4.211
12227SOL     OW38577  13.530   9.129   6.467
12227SOL    HW138578  13.473   9.204   6.450
12227SOL    HW238579  13.491   9.058   6.416
12228SOL     OW38580  10.465   1.750  12.150
12228SOL    HW138581  10.468   1.657  12.130
12228SOL    HW238582  10.557   1.777  12.158
12229SOL     OW38583   0.320   0.054   2.782
12229SOL    HW138584   0.360  14.856   2.816
12229SOL    HW238585   0.371   0.075   2.704
12230SOL     OW38586   7.334  13.342   3.601
12230SOL    HW138587   7.404  13.396   3.637
12230SOL    HW238588   7.379  13.273   3.553
12231SOL     OW38589   8.605  14.383   0.682
12231SOL    HW138590   8.519  14.373   0.723
12231SOL    HW238591   8.614  14.478   0.670
12232SOL     OW38592   7.207   4.320  13.064
12232SOL    HW138593   7.230   4.239  13.110
12232SOL    HW238594   7.292   4.361  13.044
12233SOL     OW38595   9.087   8.973  10.477
12233SOL    HW138596   8.997   8.991  10.452
12233SOL    HW238597   9.101   8.881  10.454
12234SOL     OW38598  12.686  12.276   3.962
12234SOL    HW138599  12.592  12.289   3.946
12234SOL    HW238600  12.704  12.329   4.040
12235SOL     OW38601  11.348  11.496  10.359
12235SOL    HW138602  11.328  11.581  10.321
12235SOL    HW238603  11.330  11.433  10.290
12236SOL     OW38604  12.700  14.460  10.088
12236SOL    HW138605  12.643  14.522  10.043
12236SOL    HW238606  12.722  14.502  10.171
12237SOL     OW38607  13.421   1.036   8.883
12237SOL    HW138608  13.413   1.101   8.953
12237SOL    HW238609  13.339   1.043   8.834
12238SOL     OW38610   2.308   6.217   8.409
12238SOL    HW138611   2.246   6.268   8.358
12238SOL    HW238612   2.306   6.130   8.370
12239SOL     OW38613   0.631  11.711  10.960
12239SOL    HW138614   0.706  11.768  10.940
12239SOL    HW238615   0.593  11.692  10.874
12240SOL     OW38616   5.276   7.210  11.276
12240SOL    HW138617   5.216   7.139  11.297
12240SOL    HW238618   5.354   7.167  11.241
12241SOL     OW38619   3.891   5.455  11.240
12241SOL    HW138620   3.978   5.450  11.201
12241SOL    HW238621   3.831   5.433  11.169
12242SOL     OW38622  12.425   1.438  12.107
12242SOL    HW138623  12.496   1.417  12.168
12242SOL    HW238624  12.403   1.354  12.067
12243SOL     OW38625   4.695  12.065  13.144
12243SOL    HW138626   4.636  12.137  13.165
12243SOL    HW238627   4.723  12.082  13.054
12244SOL     OW38628  11.247   7.661  12.017
12244SOL    HW138629  11.177   7.598  12.007
12244SOL    HW238630  11.210   7.744  11.988
12245SOL     OW38631   4.645  14.547  10.558
12245SOL    HW138632   4.697  14.627  10.562
12245SOL    HW238633   4.710  14.477  10.548
12246SOL     OW38634   5.340  10.692   3.303
12246SOL    HW138635   5.280  10.766   3.289
12246SOL    HW238636   5.287  10.615   3.282
12247SOL     OW38637   6.593  10.342   5.993
12247SOL    HW138638   6.519  10.316   5.939
12247SOL    HW238639   6.557  10.348   6.082
12248SOL     OW38640  13.347   6.733   8.501
12248SOL    HW138641  13.421   6.791   8.482
12248SOL    HW238642  13.334   6.683   8.421
12249SOL     OW38643   7.439   7.544   1.379
12249SOL    HW138644   7.452   7.463   1.329
12249SOL    HW238645   7.404   7.606   1.314
12250SOL     OW38646   4.549   1.126  11.898
12250SOL    HW138647   4.630   1.141  11.945
12250SOL    HW238648   4.549   1.191  11.828
12251SOL     OW38649   6.028  10.966   1.324
12251SOL    HW138650   5.971  10.926   1.390
12251SOL    HW238651   6.044  10.895   1.261
12252SOL     OW38652  12.084   5.315  10.676
12252SOL    HW138653  12.038   5.344  10.754
12252SOL    HW238654  12.160   5.267  10.709
12253SOL     OW38655   9.647   7.960  11.161
12253SOL    HW138656   9.720   7.928  11.109
12253SOL    HW238657   9.624   7.887  11.219
12254SOL     OW38658  12.864  11.034   6.660
12254SOL    HW138659  12.822  10.948   6.653
12254SOL    HW238660  12.860  11.069   6.571
12255SOL     OW38661   5.871   7.096  12.105
12255SOL    HW138662   5.836   7.022  12.056
12255SOL    HW238663   5.802   7.162  12.103
12256SOL     OW38664   8.776   9.975  13.248
12256SOL    HW138665   8.726   9.954  13.169
12256SOL    HW238666   8.806  10.065  13.235
12257SOL     OW38667   5.494   0.356  11.387
12257SOL    HW138668   5.574   0.362  11.441
12257SOL    HW238669   5.506   0.277  11.335
12258SOL     OW38670   9.845   0.101  11.691
12258SOL    HW138671   9.834   0.114  11.785
12258SOL    HW238672   9.759   0.073  11.660
12259SOL     OW38673  12.830   0.989   7.607
12259SOL    HW138674  12.756   0.938   7.573
12259SOL    HW238675  12.813   0.995   7.701
12260SOL     OW38676   2.755  13.522   7.451
12260SOL    HW138677   2.687  13.459   7.426
12260SOL    HW238678   2.776  13.569   7.371
12261SOL     OW38679   1.389   5.616   7.097
12261SOL    HW138680   1.386   5.525   7.124
12261SOL    HW238681   1.337   5.662   7.163
12262SOL     OW38682   6.646   8.203  12.099
12262SOL    HW138683   6.694   8.254  12.034
12262SOL    HW238684   6.661   8.112  12.075
12263SOL     OW38685   7.146  14.820   4.610
12263SOL    HW138686   7.067  14.770   4.586
12263SOL    HW238687   7.169  14.868   4.531
12264SOL     OW38688   7.765  13.214   0.597
12264SOL    HW138689   7.827  13.179   0.660
12264SOL    HW238690   7.776  13.309   0.604
12265SOL     OW38691   2.735   7.452  11.076
12265SOL    HW138692   2.802   7.401  11.030
12265SOL    HW238693   2.655   7.401  11.064
12266SOL     OW38694   3.054   0.157   6.396
12266SOL    HW138695   3.080   0.114   6.478
12266SOL    HW238696   3.048   0.085   6.333
12267SOL     OW38697  11.376  14.285   7.258
12267SOL    HW138698  11.356  14.374   7.287
12267SOL    HW238699  11.458  14.263   7.302
12268SOL     OW38700  11.236   1.825   4.421
12268SOL    HW138701  11.144   1.841   4.443
12268SOL    HW238702  11.282   1.903   4.451
12269SOL     OW38703   2.925   0.449  13.806
12269SOL    HW138704   2.948   0.394  13.881
12269SOL    HW238705   2.937   0.539  13.837
12270SOL     OW38706  10.388  12.455  10.195
12270SOL    HW138707  10.397  12.541  10.153
12270SOL    HW238708  10.359  12.475  10.284
12271SOL     OW38709   0.904   3.382   2.560
12271SOL    HW138710   0.870   3.330   2.487
12271SOL    HW238711   0.964   3.323   2.606
12272SOL     OW38712  14.682  13.890   7.980
12272SOL    HW138713  14.626  13.967   7.993
12272SOL    HW238714  14.630  13.831   7.926
12273SOL     OW38715  12.930   0.638  13.536
12273SOL    HW138716  12.969   0.654  13.450
12273SOL    HW238717  12.931   0.543  13.546
12274SOL     OW38718   8.693   3.270   3.034
12274SOL    HW138719   8.710   3.338   2.969
12274SOL    HW238720   8.630   3.211   2.992
12275SOL     OW38721   2.368  13.542   0.360
12275SOL    HW138722   2.440  13.602   0.339
12275SOL    HW238723   2.344  13.563   0.450
12276SOL     OW38724  10.295   6.948  13.263
12276SOL    HW138725  10.333   6.860  13.261
12276SOL    HW238726  10.362   7.004  13.223
12277SOL     OW38727   9.805  12.178   7.330
12277SOL    HW138728   9.857  12.202   7.407
12277SOL    HW238729   9.724  12.229   7.338
12278SOL     OW38730   8.321   9.631   5.271
12278SOL    HW138731   8.279   9.646   5.356
12278SOL    HW238732   8.316   9.537   5.257
12279SOL     OW38733   4.245  14.091  12.758
12279SOL    HW138734   4.200  14.149  12.819
12279SOL    HW238735   4.235  14.132  12.673
12280SOL     OW38736   9.448  14.230   1.265
12280SOL    HW138737   9.542  14.223   1.281
12280SOL    HW238738   9.430  14.161   1.201
12281SOL     OW38739  10.484   1.941   5.742
12281SOL    HW138740  10.425   1.997   5.693
12281SOL    HW238741  10.475   1.855   5.701
12282SOL     OW38742  10.087   1.643   4.755
12282SOL    HW138743  10.143   1.573   4.790
12282SOL    HW238744  10.133   1.724   4.776
12283SOL     OW38745   6.302   1.092   5.190
12283SOL    HW138746   6.314   1.026   5.259
12283SOL    HW238747   6.207   1.093   5.176
12284SOL     OW38748  12.730  10.859   2.122
12284SOL    HW138749  12.637  10.870   2.105
12284SOL    HW238750  12.773  10.914   2.056
12285SOL     OW38751  12.539   6.210   4.589
12285SOL    HW138752  12.480   6.153   4.639
12285SOL    HW238753  12.514   6.196   4.497
12286SOL     OW38754   5.506   0.844   5.421
12286SOL    HW138755   5.490   0.938   5.426
12286SOL    HW238756   5.600   0.837   5.404
12287SOL     OW38757  13.856  11.707  11.104
12287SOL    HW138758  13.787  11.670  11.049
12287SOL    HW238759  13.837  11.801  11.106
12288SOL     OW38760   6.058   1.411  11.015
12288SOL    HW138761   6.035   1.442  10.928
12288SOL    HW238762   6.064   1.491  11.068
12289SOL     OW38763   9.030   4.306   5.028
12289SOL    HW138764   9.047   4.269   5.115
12289SOL    HW238765   9.012   4.399   5.045
12290SOL     OW38766  13.597  12.110   9.409
12290SOL    HW138767  13.542  12.036   9.386
12290SOL    HW238768  13.544  12.162   9.469
12291SOL     OW38769  14.258  11.690   9.325
12291SOL    HW138770  14.332  11.654   9.374
12291SOL    HW238771  14.277  11.783   9.317
12292SOL     OW38772   8.878   3.852  11.243
12292SOL    HW138773   8.815   3.921  11.264
12292SOL    HW238774   8.828   3.771  11.247
12293SOL     OW38775  12.496   1.182  12.561
12293SOL    HW138776  12.483   1.112  12.497
12293SOL    HW238777  12.591   1.192  12.568
12294SOL     OW38778   9.078   9.196  10.266
12294SOL    HW138779   9.148   9.167  10.324
12294SOL    HW238780   9.062   9.122  10.208
12295SOL     OW38781   6.803   1.571  11.635
12295SOL    HW138782   6.797   1.666  11.631
12295SOL    HW238783   6.775   1.549  11.724
12296SOL     OW38784  13.136  11.111  12.631
12296SOL    HW138785  13.163  11.200  12.649
12296SOL    HW238786  13.041  11.116  12.619
12297SOL     OW38787  13.846   1.800  12.730
12297SOL    HW138788  13.775   1.833  12.676
12297SOL    HW238789  13.822   1.824  12.820
12298SOL     OW38790  12.194   8.305   0.889
12298SOL    HW138791  12.152   8.352   0.962
12298SOL    HW238792  12.249   8.240   0.932
12299SOL     OW38793  14.427   9.949   3.923
12299SOL    HW138794  14.503   9.965   3.980
12299SOL    HW238795  14.367  10.020   3.944
12300SOL     OW38796   4.138   5.167   6.586
12300SOL    HW138797   4.054   5.185   6.628
12300SOL    HW238798   4.190   5.124   6.654
12301SOL     OW38799  11.044   0.782   9.889
12301SOL    HW138800  10.999   0.795   9.805
12301SOL    HW238801  11.131   0.819   9.876
12302SOL     OW38802   9.321  14.610   7.757
12302SOL    HW138803   9.327  14.517   7.780
12302SOL    HW238804   9.385  14.621   7.687
12303SOL     OW38805   2.117  10.294   5.190
12303SOL    HW138806   2.060  10.371   5.186
12303SOL    HW238807   2.124  10.265   5.100
12304SOL     OW38808  13.770   9.938   1.841
12304SOL    HW138809  13.767   9.913   1.748
12304SOL    HW238810  13.854   9.905   1.872
12305SOL     OW38811   7.480   4.429  13.045
12305SOL    HW138812   7.490   4.344  13.001
12305SOL    HW238813   7.555   4.480  13.015
12306SOL     OW38814   9.583  13.372   5.488
12306SOL    HW138815   9.586  13.467   5.490
12306SOL    HW238816   9.570  13.350   5.396
12307SOL     OW38817  10.901   8.199  12.628
12307SOL    HW138818  10.865   8.213  12.540
12307SOL    HW238819  10.876   8.110  12.651
12308SOL     OW38820   1.652  12.436   7.983
12308SOL    HW138821   1.665  12.361   8.040
12308SOL    HW238822   1.617  12.399   7.902
12309SOL     OW38823  13.878   5.744   8.045
12309SOL    HW138824  13.848   5.752   7.954
12309SOL    HW238825  13.919   5.658   8.049
12310SOL     OW38826   3.906   1.961  10.815
12310SOL    HW138827   3.883   1.982  10.724
12310SOL    HW238828   3.978   2.020  10.836
12311SOL     OW38829   9.773  12.969   7.203
12311SOL    HW138830   9.855  12.928   7.174
12311SOL    HW238831   9.711  12.896   7.209
12312SOL     OW38832   9.655   2.439   0.459
12312SOL    HW138833   9.645   2.511   0.522
12312SOL    HW238834   9.633   2.478   0.375
12313SOL     OW38835  12.940   5.973  10.875
12313SOL    HW138836  12.883   5.935  10.942
12313SOL    HW238837  12.995   6.035  10.922
12314SOL     OW38838  10.813   3.265   6.317
12314SOL    HW138839  10.755   3.219   6.377
12314SOL    HW238840  10.769   3.262   6.233
12315SOL     OW38841   7.663  13.048   7.548
12315SOL    HW138842   7.712  13.116   7.502
12315SOL    HW238843   7.659  13.079   7.639
12316SOL     OW38844   9.452   5.378  11.297
12316SOL    HW138845   9.433   5.317  11.227
12316SOL    HW238846   9.449   5.326  11.377
12317SOL     OW38847   4.940   4.231  13.183
12317SOL    HW138848   4.874   4.162  13.177
12317SOL    HW238849   5.004   4.197  13.246
12318SOL     OW38850  11.455   7.023  14.553
12318SOL    HW138851  11.402   7.072  14.615
12318SOL    HW238852  11.544   7.055  14.567
12319SOL     OW38853   1.946   9.380   9.690
12319SOL    HW138854   1.874   9.385   9.627
12319SOL    HW238855   1.998   9.458   9.674
12320SOL     OW38856  10.229  14.200   3.324
12320SOL    HW138857  10.280  14.252   3.263
12320SOL    HW238858  10.270  14.114   3.322
12321SOL     OW38859  14.839   4.792   1.323
12321SOL    HW138860   0.033   4.747   1.286
12321SOL    HW238861  14.845   4.777   1.417
12322SOL     OW38862   6.102   5.849   0.764
12322SOL    HW138863   6.038   5.920   0.765
12322SOL    HW238864   6.185   5.891   0.788
12323SOL     OW38865   4.731  13.527  14.523
12323SOL    HW138866   4.696  13.441  14.546
12323SOL    HW238867   4.825  13.520  14.543
12324SOL     OW38868   8.509   5.402  11.730
12324SOL    HW138869   8.456   5.464  11.780
12324SOL    HW238870   8.477   5.410  11.641
12325SOL     OW38871   6.486   1.397  11.441
12325SOL    HW138872   6.397   1.431  11.454
12325SOL    HW238873   6.479   1.303  11.457
12326SOL     OW38874   8.321  10.177   2.433
12326SOL    HW138875   8.386  10.173   2.503
12326SOL    HW238876   8.333  10.096   2.384
12327SOL     OW38877   3.710   4.085  12.126
12327SOL    HW138878   3.743   4.104  12.038
12327SOL    HW238879   3.785   4.047  12.172
12328SOL     OW38880   9.901  13.253   1.707
12328SOL    HW138881   9.868  13.181   1.652
12328SOL    HW238882   9.996  13.237   1.712
12329SOL     OW38883   5.311  11.152   0.841
12329SOL    HW138884   5.308  11.107   0.757
12329SOL    HW238885   5.298  11.083   0.906
12330SOL     OW38886   9.630  10.006   9.408
12330SOL    HW138887   9.659  10.084   9.455
12330SOL    HW238888   9.709   9.954   9.396
12331SOL     OW38889  12.102   9.089  11.783
12331SOL    HW138890  12.128   9.121  11.697
12331SOL    HW238891  12.185   9.078  11.831
12332SOL     OW38892  12.783   5.988   6.355
12332SOL    HW138893  12.870   5.953   6.373
12332SOL    HW238894  12.743   5.999   6.441
12333SOL     OW38895  13.965   5.142   8.741
12333SOL    HW138896  14.036   5.189   8.785
12333SOL    HW238897  13.892   5.203   8.741
12334SOL     OW38898  14.330   9.851  11.618
12334SOL    HW138899  14.395   9.821  11.681
12334SOL    HW238900  14.319   9.944  11.636
12335SOL     OW38901   5.652   7.754   1.856
12335SOL    HW138902   5.709   7.677   1.853
12335SOL    HW238903   5.595   7.745   1.779
12336SOL     OW38904   1.508   4.868   4.713
12336SOL    HW138905   1.593   4.826   4.720
12336SOL    HW238906   1.445   4.800   4.737
12337SOL     OW38907  13.018   6.744   5.624
12337SOL    HW138908  12.982   6.823   5.665
12337SOL    HW238909  12.944   6.684   5.618
12338SOL     OW38910  11.042   8.236  14.523
12338SOL    HW138911  10.990   8.310  14.494
12338SOL    HW238912  11.109   8.226  14.455
12339SOL     OW38913   0.493   3.035  12.782
12339SOL    HW138914   0.465   3.018  12.692
12339SOL    HW238915   0.526   2.950  12.813
12340SOL     OW38916   9.282   5.893   1.923
12340SOL    HW138917   9.279   5.945   2.003
12340SOL    HW238918   9.206   5.923   1.872
12341SOL     OW38919   9.595   1.324   9.796
12341SOL    HW138920   9.523   1.289   9.744
12341SOL    HW238921   9.670   1.268   9.776
12342SOL     OW38922  11.194   4.816   1.261
12342SOL    HW138923  11.113   4.867   1.265
12342SOL    HW238924  11.263   4.880   1.245
12343SOL     OW38925   5.807  14.783   6.945
12343SOL    HW138926   5.793  14.700   6.898
12343SOL    HW238927   5.821  14.757   7.036
12344SOL     OW38928   9.675   4.612  11.902
12344SOL    HW138929   9.724   4.681  11.948
12344SOL    HW238930   9.586   4.647  11.894
12345SOL     OW38931   3.366   9.304  11.529
12345SOL    HW138932   3.273   9.286  11.511
12345SOL    HW238933   3.379   9.277  11.620
12346SOL     OW38934   1.426  10.904   5.678
12346SOL    HW138935   1.504  10.927   5.728
12346SOL    HW238936   1.457  10.842   5.612
12347SOL     OW38937  11.026  13.725   3.007
12347SOL    HW138938  10.960  13.674   3.054
12347SOL    HW238939  11.100  13.730   3.068
12348SOL     OW38940  14.377  14.865   2.382
12348SOL    HW138941  14.463   0.014   2.410
12348SOL    HW238942  14.374  14.773   2.411
12349SOL     OW38943   0.927   2.319   2.235
12349SOL    HW138944   0.940   2.375   2.312
12349SOL    HW238945   0.832   2.311   2.227
12350SOL     OW38946   4.675  14.176   2.679
12350SOL    HW138947   4.660  14.136   2.764
12350SOL    HW238948   4.680  14.102   2.618
12351SOL     OW38949   2.053   8.583   6.662
12351SOL    HW138950   1.988   8.517   6.685
12351SOL    HW238951   2.134   8.533   6.649
12352SOL     OW38952   0.562   4.179   3.436
12352SOL    HW138953   0.630   4.196   3.501
12352SOL    HW238954   0.608   4.176   3.352
12353SOL     OW38955  14.408   1.251   1.430
12353SOL    HW138956  14.356   1.286   1.502
12353SOL    HW238957  14.347   1.244   1.357
12354SOL     OW38958  10.036   6.843   6.738
12354SOL    HW138959   9.981   6.766   6.753
12354SOL    HW238960   9.976   6.917   6.736
12355SOL     OW38961  12.939   3.006  14.444
12355SOL    HW138962  12.964   2.975  14.357
12355SOL    HW238963  13.020   3.039  14.482
12356SOL     OW38964   6.829   3.643   9.418
12356SOL    HW138965   6.884   3.688   9.482
12356SOL    HW238966   6.803   3.561   9.461
12357SOL     OW38967   8.815   3.323  12.358
12357SOL    HW138968   8.891   3.278  12.323
12357SOL    HW238969   8.851   3.393  12.412
12358SOL     OW38970   0.784   5.740  10.893
12358SOL    HW138971   0.807   5.683  10.820
12358SOL    HW238972   0.835   5.820  10.878
12359SOL     OW38973   2.049  14.610  11.894
12359SOL    HW138974   2.083  14.611  11.983
12359SOL    HW238975   1.972  14.554  11.898
12360SOL     OW38976   1.809   3.060  11.370
12360SOL    HW138977   1.756   2.982  11.351
12360SOL    HW238978   1.874   3.063  11.300
12361SOL     OW38979  11.608   8.331   3.224
12361SOL    HW138980  11.536   8.371   3.273
12361SOL    HW238981  11.683   8.338   3.282
12362SOL     OW38982  13.581   1.665   4.394
12362SOL    HW138983  13.571   1.656   4.299
12362SOL    HW238984  13.600   1.758   4.407
12363SOL     OW38985   6.446   4.358   3.014
12363SOL    HW138986   6.377   4.299   2.983
12363SOL    HW238987   6.440   4.353   3.109
12364SOL     OW38988  11.911   0.288   0.874
12364SOL    HW138989  11.893   0.220   0.939
12364SOL    HW238990  11.825   0.323   0.851
12365SOL     OW38991   7.505   4.475  12.497
12365SOL    HW138992   7.504   4.386  12.532
12365SOL    HW238993   7.594   4.486  12.463
12366SOL     OW38994  12.918  13.277  11.640
12366SOL    HW138995  12.893  13.251  11.551
12366SOL    HW238996  13.012  13.296  11.634
12367SOL     OW38997  10.677  12.677   0.910
12367SOL    HW138998  10.706  12.769   0.909
12367SOL    HW238999  10.719  12.640   0.988
12368SOL     OW39000   0.164   3.523   3.805
12368SOL    HW139001   0.176   3.614   3.776
12368SOL    HW239002   0.237   3.506   3.864
12369SOL     OW39003   9.684   1.650   9.621
12369SOL    HW139004   9.652   1.586   9.557
12369SOL    HW239005   9.648   1.620   9.705
12370SOL     OW39006   7.656  11.484   0.327
12370SOL    HW139007   7.703  11.556   0.284
12370SOL    HW239008   7.572  11.480   0.281
12371SOL     OW39009   4.101  12.319   6.072
12371SOL    HW139010   4.148  12.257   6.128
12371SOL    HW239011   4.084  12.271   5.992
12372SOL     OW39012   7.202   3.917   6.834
12372SOL    HW139013   7.120   3.879   6.802
12372SOL    HW239014   7.259   3.922   6.757
12373SOL     OW39015  12.899   5.541  10.081
12373SOL    HW139016  12.823   5.520  10.026
12373SOL    HW239017  12.936   5.456  10.105
12374SOL     OW39018   5.373  14.603  11.036
12374SOL    HW139019   5.368  14.512  11.005
12374SOL    HW239020   5.416  14.650  10.964
12375SOL     OW39021   9.752   4.362  10.461
12375SOL    HW139022   9.672   4.403  10.493
12375SOL    HW239023   9.805   4.434  10.426
12376SOL     OW39024  14.354  11.686  12.671
12376SOL    HW139025  14.410  11.612  12.650
12376SOL    HW239026  14.292  11.691  12.598
12377SOL     OW39027  11.182   8.673   2.481
12377SOL    HW139028  11.211   8.680   2.572
12377SOL    HW239029  11.087   8.669   2.486
12378SOL     OW39030   7.407   8.589  10.945
12378SOL    HW139031   7.351   8.524  10.985
12378SOL    HW239032   7.347   8.652  10.904
12379SOL     OW39033  11.399  14.261  13.276
12379SOL    HW139034  11.318  14.214  13.298
12379SOL    HW239035  11.371  14.330  13.215
12380SOL     OW39036   2.424   3.148   9.757
12380SOL    HW139037   2.375   3.230   9.765
12380SOL    HW239038   2.463   3.135   9.844
12381SOL     OW39039  13.114  11.197  11.954
12381SOL    HW139040  13.047  11.243  12.005
12381SOL    HW239041  13.197  11.236  11.983
12382SOL     OW39042  11.844   5.910   2.267
12382SOL    HW139043  11.850   5.858   2.347
12382SOL    HW239044  11.839   5.846   2.196
12383SOL     OW39045   6.623   8.648   4.843
12383SOL    HW139046   6.692   8.585   4.862
12383SOL    HW239047   6.542   8.603   4.867
12384SOL     OW39048  12.954  11.875  12.253
12384SOL    HW139049  12.974  11.932  12.327
12384SOL    HW239050  12.890  11.813  12.287
12385SOL     OW39051  14.368   1.317  12.055
12385SOL    HW139052  14.333   1.340  12.140
12385SOL    HW239053  14.437   1.382  12.039
12386SOL     OW39054   0.346   3.055   9.520
12386SOL    HW139055   0.258   3.022   9.502
12386SOL    HW239056   0.332   3.128   9.582
12387SOL     OW39057  13.862  14.704  13.868
12387SOL    HW139058  13.802  14.712  13.794
12387SOL    HW239059  13.949  14.719  13.829
12388SOL     OW39060  12.342   3.178  14.215
12388SOL    HW139061  12.270   3.129  14.175
12388SOL    HW239062  12.418   3.157  14.160
12389SOL     OW39063   4.568   1.473  12.077
12389SOL    HW139064   4.580   1.566  12.093
12389SOL    HW239065   4.579   1.464  11.982
12390SOL     OW39066   3.206   4.066   1.322
12390SOL    HW139067   3.151   4.047   1.398
12390SOL    HW239068   3.154   4.125   1.268
12391SOL     OW39069   2.729  12.735   6.415
12391SOL    HW139070   2.784  12.701   6.486
12391SOL    HW239071   2.764  12.694   6.336
12392SOL     OW39072   4.961   5.600   3.316
12392SOL    HW139073   5.004   5.582   3.232
12392SOL    HW239074   5.029   5.644   3.367
12393SOL     OW39075   9.842   1.878  12.340
12393SOL    HW139076   9.813   1.924  12.419
12393SOL    HW239077   9.853   1.787  12.367
12394SOL     OW39078   9.879   2.196   5.385
12394SOL    HW139079   9.799   2.173   5.433
12394SOL    HW239080   9.905   2.115   5.341
12395SOL     OW39081  14.693   9.505   9.584
12395SOL    HW139082  14.774   9.509   9.635
12395SOL    HW239083  14.676   9.596   9.559
12396SOL     OW39084   5.876   4.567   6.619
12396SOL    HW139085   5.863   4.604   6.706
12396SOL    HW239086   5.888   4.473   6.633
12397SOL     OW39087  14.395   1.374   7.358
12397SOL    HW139088  14.434   1.298   7.401
12397SOL    HW239089  14.404   1.356   7.264
12398SOL     OW39090   5.286   4.446  14.152
12398SOL    HW139091   5.233   4.525  14.137
12398SOL    HW239092   5.364   4.478  14.199
12399SOL     OW39093   9.158   5.720  10.696
12399SOL    HW139094   9.095   5.765  10.752
12399SOL    HW239095   9.151   5.765  10.611
12400SOL     OW39096  10.770   0.204   1.168
12400SOL    HW139097  10.734   0.290   1.188
12400SOL    HW239098  10.740   0.185   1.079
12401SOL     OW39099   1.166  14.125   4.833
12401SOL    HW139100   1.159  14.038   4.872
12401SOL    HW239101   1.110  14.180   4.888
12402SOL     OW39102   0.339   6.234  13.523
12402SOL    HW139103   0.294   6.292  13.584
12402SOL    HW239104   0.429   6.230  13.555
12403SOL     OW39105   3.756   6.572   3.278
12403SOL    HW139106   3.680   6.550   3.225
12403SOL    HW239107   3.739   6.661   3.310
12404SOL     OW39108  11.341   9.617   5.850
12404SOL    HW139109  11.307   9.561   5.780
12404SOL    HW239110  11.330   9.565   5.929
12405SOL     OW39111   6.074   6.780   5.503
12405SOL    HW139112   6.106   6.862   5.466
12405SOL    HW239113   6.124   6.768   5.584
12406SOL     OW39114   2.342   9.391   4.374
12406SOL    HW139115   2.289   9.451   4.427
12406SOL    HW239116   2.431   9.426   4.381
12407SOL     OW39117   8.207   8.628   1.689
12407SOL    HW139118   8.296   8.653   1.666
12407SOL    HW239119   8.217   8.570   1.765
12408SOL     OW39120   3.728   2.270  13.578
12408SOL    HW139121   3.719   2.207  13.649
12408SOL    HW239122   3.639   2.287  13.549
12409SOL     OW39123  14.843  13.425   0.337
12409SOL    HW139124   0.030  13.436   0.271
12409SOL    HW239125  14.796  13.508   0.336
12410SOL     OW39126  13.817   5.733   5.947
12410SOL    HW139127  13.744   5.794   5.957
12410SOL    HW239128  13.809   5.700   5.858
12411SOL     OW39129   7.001   8.398   0.900
12411SOL    HW139130   6.935   8.463   0.924
12411SOL    HW239131   7.066   8.447   0.850
12412SOL     OW39132   7.941   1.460  13.945
12412SOL    HW139133   7.943   1.527  14.012
12412SOL    HW239134   7.881   1.494  13.878
12413SOL     OW39135   3.700   3.604   8.545
12413SOL    HW139136   3.612   3.641   8.548
12413SOL    HW239137   3.692   3.518   8.585
12414SOL     OW39138   6.521   7.443   2.325
12414SOL    HW139139   6.449   7.495   2.290
12414SOL    HW239140   6.544   7.384   2.253
12415SOL     OW39141   8.952   8.090   7.578
12415SOL    HW139142   8.876   8.108   7.632
12415SOL    HW239143   8.990   8.176   7.560
12416SOL     OW39144   4.632   4.358   5.093
12416SOL    HW139145   4.676   4.397   5.169
12416SOL    HW239146   4.621   4.432   5.032
12417SOL     OW39147  13.253  11.907   8.940
12417SOL    HW139148  13.176  11.865   8.902
12417SOL    HW239149  13.314  11.917   8.867
12418SOL     OW39150   1.119   3.766   2.841
12418SOL    HW139151   1.040   3.719   2.816
12418SOL    HW239152   1.114   3.849   2.793
12419SOL     OW39153   9.646   7.272   9.884
12419SOL    HW139154   9.656   7.276   9.979
12419SOL    HW239155   9.732   7.299   9.850
12420SOL     OW39156   6.101   3.050  10.768
12420SOL    HW139157   6.190   3.049  10.733
12420SOL    HW239158   6.066   2.963  10.747
12421SOL     OW39159  12.502   4.109   9.376
12421SOL    HW139160  12.457   4.108   9.292
12421SOL    HW239161  12.574   4.171   9.364
12422SOL     OW39162   2.648   9.086   0.611
12422SOL    HW139163   2.687   9.063   0.696
12422SOL    HW239164   2.568   9.133   0.633
12423SOL     OW39165   1.366  13.866   1.151
12423SOL    HW139166   1.374  13.960   1.166
12423SOL    HW239167   1.272  13.849   1.154
12424SOL     OW39168  13.697   2.628  14.065
12424SOL    HW139169  13.622   2.637  14.007
12424SOL    HW239170  13.743   2.550  14.034
12425SOL     OW39171   2.040   7.573   2.356
12425SOL    HW139172   2.112   7.550   2.416
12425SOL    HW239173   2.066   7.657   2.319
12426SOL     OW39174   6.064   0.063   7.074
12426SOL    HW139175   6.095   0.150   7.049
12426SOL    HW239176   5.977   0.056   7.034
12427SOL     OW39177  14.187   3.204   1.450
12427SOL    HW139178  14.112   3.236   1.399
12427SOL    HW239179  14.253   3.184   1.384
12428SOL     OW39180   3.956   8.907   2.311
12428SOL    HW139181   3.942   8.935   2.401
12428SOL    HW239182   4.047   8.878   2.309
12429SOL     OW39183  11.281  10.902   5.341
12429SOL    HW139184  11.222  10.977   5.335
12429SOL    HW239185  11.232  10.830   5.301
12430SOL     OW39186   7.399   0.668   9.560
12430SOL    HW139187   7.483   0.698   9.527
12430SOL    HW239188   7.344   0.747   9.560
12431SOL     OW39189  11.441   9.214   9.082
12431SOL    HW139190  11.420   9.215   8.989
12431SOL    HW239191  11.413   9.127   9.111
12432SOL     OW39192  10.789   7.140   8.330
12432SOL    HW139193  10.835   7.084   8.391
12432SOL    HW239194  10.793   7.227   8.369
12433SOL     OW39195   1.278   9.447   5.068
12433SOL    HW139196   1.299   9.443   4.974
12433SOL    HW239197   1.361   9.434   5.112
12434SOL     OW39198   5.164   3.460   3.339
12434SOL    HW139199   5.226   3.527   3.366
12434SOL    HW239200   5.092   3.467   3.402
12435SOL     OW39201  14.040   6.794  12.183
12435SOL    HW139202  14.091   6.853  12.127
12435SOL    HW239203  13.997   6.734  12.121
12436SOL     OW39204   6.885  14.687   1.910
12436SOL    HW139205   6.903  14.652   1.998
12436SOL    HW239206   6.890  14.782   1.921
12437SOL     OW39207  14.667   6.344   5.627
12437SOL    HW139208  14.703   6.301   5.550
12437SOL    HW239209  14.697   6.291   5.701
12438SOL     OW39210   9.468   7.369   4.953
12438SOL    HW139211   9.475   7.278   4.926
12438SOL    HW239212   9.415   7.366   5.033
12439SOL     OW39213  11.252   4.998   2.398
12439SOL    HW139214  11.202   5.072   2.434
12439SOL    HW239215  11.187   4.949   2.346
12440SOL     OW39216  11.260   4.431   1.590
12440SOL    HW139217  11.241   4.524   1.572
12440SOL    HW239218  11.178   4.396   1.624
12441SOL     OW39219   0.055   6.145   9.831
12441SOL    HW139220   0.108   6.122   9.908
12441SOL    HW239221  14.859   6.090   9.839
12442SOL     OW39222   2.473  12.205   9.893
12442SOL    HW139223   2.452  12.147   9.966
12442SOL    HW239224   2.569  12.213   9.897
12443SOL     OW39225  10.157  12.845   4.800
12443SOL    HW139226  10.181  12.757   4.830
12443SOL    HW239227  10.225  12.868   4.737
12444SOL     OW39228   5.218  12.229   1.543
12444SOL    HW139229   5.226  12.261   1.453
12444SOL    HW239230   5.292  12.170   1.555
12445SOL     OW39231   6.811  11.107   0.469
12445SOL    HW139232   6.768  11.076   0.389
12445SOL    HW239233   6.813  11.202   0.460
12446SOL     OW39234   5.105  13.484  13.132
12446SOL    HW139235   5.146  13.483  13.219
12446SOL    HW239236   5.174  13.515  13.074
12447SOL     OW39237   4.132   6.070   5.933
12447SOL    HW139238   4.067   6.009   5.968
12447SOL    HW239239   4.187   6.093   6.008
12448SOL     OW39240   0.362  12.755   6.304
12448SOL    HW139241   0.442  12.749   6.356
12448SOL    HW239242   0.291  12.737   6.366
12449SOL     OW39243   7.892   4.652   1.075
12449SOL    HW139244   7.933   4.622   1.156
12449SOL    HW239245   7.964   4.685   1.022
12450SOL     OW39246   6.681   3.401   8.576
12450SOL    HW139247   6.676   3.353   8.494
12450SOL    HW239248   6.608   3.463   8.572
12451SOL     OW39249  10.117  11.549  14.226
12451SOL    HW139250  10.053  11.616  14.249
12451SOL    HW239251  10.075  11.467  14.252
12452SOL     OW39252   3.203  14.248  10.469
12452SOL    HW139253   3.162  14.308  10.407
12452SOL    HW239254   3.241  14.304  10.536
12453SOL     OW39255  14.688   7.197   9.540
12453SOL    HW139256  14.623   7.262   9.566
12453SOL    HW239257  14.720   7.162   9.623
12454SOL     OW39258   1.739   4.449   8.300
12454SOL    HW139259   1.787   4.400   8.233
12454SOL    HW239260   1.723   4.535   8.259
12455SOL     OW39261   0.714   3.416   4.250
12455SOL    HW139262   0.630   3.459   4.265
12455SOL    HW239263   0.707   3.380   4.162
12456SOL     OW39264   9.924   0.213   1.972
12456SOL    HW139265   9.872   0.293   1.976
12456SOL    HW239266   9.861   0.145   1.951
12457SOL     OW39267  14.312   1.660   2.926
12457SOL    HW139268  14.262   1.664   2.844
12457SOL    HW239269  14.341   1.750   2.942
12458SOL     OW39270   4.964   9.199  10.029
12458SOL    HW139271   5.030   9.164   9.969
12458SOL    HW239272   5.011   9.218  10.110
12459SOL     OW39273   7.721   1.521   0.087
12459SOL    HW139274   7.774   1.446   0.115
12459SOL    HW239275   7.744   1.591   0.149
12460SOL     OW39276   2.085  13.329   5.043
12460SOL    HW139277   2.073  13.324   5.137
12460SOL    HW239278   2.153  13.395   5.031
12461SOL     OW39279   5.633   7.012   8.929
12461SOL    HW139280   5.657   6.927   8.892
12461SOL    HW239281   5.690   7.075   8.884
12462SOL     OW39282  14.226   3.361   2.149
12462SOL    HW139283  14.149   3.400   2.108
12462SOL    HW239284  14.196   3.276   2.182
12463SOL     OW39285  10.488   5.062  13.908
12463SOL    HW139286  10.453   5.068  13.997
12463SOL    HW239287  10.482   5.152  13.874
12464SOL     OW39288  13.996  12.977   2.024
12464SOL    HW139289  13.936  12.915   1.983
12464SOL    HW239290  13.948  13.009   2.100
12465SOL     OW39291  10.300   5.006   4.972
12465SOL    HW139292  10.213   5.044   4.987
12465SOL    HW239293  10.321   5.028   4.882
12466SOL     OW39294   9.113  11.446   7.409
12466SOL    HW139295   9.197  11.415   7.443
12466SOL    HW239296   9.047  11.400   7.461
12467SOL     OW39297  10.256   5.363   7.777
12467SOL    HW139298  10.200   5.330   7.848
12467SOL    HW239299  10.332   5.399   7.822
12468SOL     OW39300   7.895  11.711   3.561
12468SOL    HW139301   7.873  11.759   3.641
12468SOL    HW239302   7.926  11.626   3.592
12469SOL     OW39303  13.137  14.474  10.748
12469SOL    HW139304  13.123  14.387  10.786
12469SOL    HW239305  13.191  14.519  10.813
12470SOL     OW39306  12.410   9.934   1.024
12470SOL    HW139307  12.383  10.023   1.045
12470SOL    HW239308  12.330   9.882   1.031
12471SOL     OW39309   0.365   0.170   7.929
12471SOL    HW139310   0.430   0.226   7.886
12471SOL    HW239311   0.291   0.169   7.868
12472SOL     OW39312   7.055   0.272   2.460
12472SOL    HW139313   7.059   0.367   2.472
12472SOL    HW239314   7.100   0.257   2.377
12473SOL     OW39315   9.020   9.533   0.453
12473SOL    HW139316   8.987   9.453   0.493
12473SOL    HW239317   9.113   9.515   0.435
12474SOL     OW39318   2.791   5.926  13.321
12474SOL    HW139319   2.830   6.000  13.367
12474SOL    HW239320   2.865   5.874  13.291
12475SOL     OW39321  14.011   9.616   7.246
12475SOL    HW139322  13.996   9.689   7.306
12475SOL    HW239323  13.948   9.550   7.272
12476SOL     OW39324   4.981   9.187   0.792
12476SOL    HW139325   5.022   9.267   0.824
12476SOL    HW239326   4.888   9.197   0.814
12477SOL     OW39327   7.414  11.515  10.523
12477SOL    HW139328   7.509  11.517  10.514
12477SOL    HW239329   7.381  11.538  10.436
12478SOL     OW39330  14.551  12.937   8.395
12478SOL    HW139331  14.573  12.846   8.376
12478SOL    HW239332  14.511  12.935   8.482
12479SOL     OW39333   2.907   3.635   6.389
12479SOL    HW139334   2.824   3.674   6.419
12479SOL    HW239335   2.916   3.666   6.299
12480SOL     OW39336   4.204  11.660   5.738
12480SOL    HW139337   4.239  11.599   5.804
12480SOL    HW239338   4.142  11.714   5.787
12481SOL     OW39339  14.529   1.854   2.065
12481SOL    HW139340  14.534   1.789   1.995
12481SOL    HW239341  14.475   1.812   2.132
12482SOL     OW39342   3.347  10.267  12.639
12482SOL    HW139343   3.375  10.357  12.622
12482SOL    HW239344   3.426  10.214  12.627
12483SOL     OW39345   6.034  14.436   2.981
12483SOL    HW139346   5.979  14.391   3.045
12483SOL    HW239347   6.036  14.527   3.010
12484SOL     OW39348   5.796   8.520   3.622
12484SOL    HW139349   5.830   8.585   3.684
12484SOL    HW239350   5.874   8.482   3.581
12485SOL     OW39351   8.729  10.229  13.061
12485SOL    HW139352   8.698  10.288  12.992
12485SOL    HW239353   8.653  10.175  13.082
12486SOL     OW39354   6.415  10.989  13.108
12486SOL    HW139355   6.358  11.066  13.113
12486SOL    HW239356   6.361  10.917  13.140
12487SOL     OW39357  12.847  14.801   5.327
12487SOL    HW139358  12.806   0.005   5.325
12487SOL    HW239359  12.938  14.817   5.301
12488SOL     OW39360   0.104   1.652   9.792
12488SOL    HW139361   0.071   1.742   9.798
12488SOL    HW239362   0.148   1.649   9.707
12489SOL     OW39363  10.160  11.056   4.173
12489SOL    HW139364  10.219  10.995   4.129
12489SOL    HW239365  10.182  11.141   4.137
12490SOL     OW39366   7.119   1.034   2.287
12490SOL    HW139367   7.134   1.115   2.336
12490SOL    HW239368   7.031   1.045   2.251
12491SOL     OW39369   8.862   0.286   8.162
12491SOL    HW139370   8.798   0.351   8.190
12491SOL    HW239371   8.943   0.311   8.205
12492SOL     OW39372   0.415   2.519  14.838
12492SOL    HW139373   0.438   2.433  14.873
12492SOL    HW239374   0.492   2.547  14.789
12493SOL     OW39375  11.135   9.704   4.591
12493SOL    HW139376  11.110   9.797   4.590
12493SOL    HW239377  11.073   9.664   4.652
12494SOL     OW39378   8.553   3.293   2.459
12494SOL    HW139379   8.474   3.280   2.405
12494SOL    HW239380   8.587   3.205   2.473
12495SOL     OW39381   8.451   2.906   7.572
12495SOL    HW139382   8.509   2.844   7.528
12495SOL    HW239383   8.493   2.991   7.559
12496SOL     OW39384  11.177   7.857   1.836
12496SOL    HW139385  11.144   7.859   1.926
12496SOL    HW239386  11.213   7.945   1.823
12497SOL     OW39387   4.003  11.856   4.814
12497SOL    HW139388   3.955  11.938   4.824
12497SOL    HW239389   4.015  11.846   4.720
12498SOL     OW39390   5.825   0.722  11.368
12498SOL    HW139391   5.750   0.734  11.309
12498SOL    HW239392   5.894   0.688  11.312
12499SOL     OW39393  13.431   8.394   1.577
12499SOL    HW139394  13.360   8.454   1.551
12499SOL    HW239395  13.439   8.334   1.503
12500SOL     OW39396  10.994   1.203  10.570
12500SOL    HW139397  11.028   1.291  10.553
12500SOL    HW239398  10.983   1.199  10.665
12501SOL     OW39399   7.450   0.298   6.222
12501SOL    HW139400   7.466   0.375   6.167
12501SOL    HW239401   7.451   0.224   6.161
12502SOL     OW39402  14.609  12.070   8.480
12502SOL    HW139403  14.600  12.150   8.531
12502SOL    HW239404  14.568  12.002   8.534
12503SOL     OW39405   0.903   0.507   1.915
12503SOL    HW139406   0.857   0.578   1.871
12503SOL    HW239407   0.993   0.538   1.924
12504SOL     OW39408   7.327   8.066   6.037
12504SOL    HW139409   7.379   8.081   6.116
12504SOL    HW239410   7.356   7.981   6.004
12505SOL     OW39411   4.488   4.551  12.250
12505SOL    HW139412   4.560   4.596  12.294
12505SOL    HW239413   4.411   4.571  12.303
12506SOL     OW39414  10.481   2.634  13.933
12506SOL    HW139415  10.422   2.566  13.901
12506SOL    HW239416  10.486   2.619  14.027
12507SOL     OW39417   8.381   5.205   6.383
12507SOL    HW139418   8.437   5.281   6.365
12507SOL    HW239419   8.313   5.209   6.317
12508SOL     OW39420   4.502   7.786   0.624
12508SOL    HW139421   4.455   7.777   0.707
12508SOL    HW239422   4.527   7.878   0.621
12509SOL     OW39423   0.931   0.287   6.334
12509SOL    HW139424   0.940   0.192   6.339
12509SOL    HW239425   1.017   0.318   6.304
12510SOL     OW39426  13.598   5.403   3.589
12510SOL    HW139427  13.627   5.354   3.511
12510SOL    HW239428  13.583   5.492   3.557
12511SOL     OW39429   9.083   8.142  14.388
12511SOL    HW139430   9.078   8.236  14.370
12511SOL    HW239431   9.150   8.109  14.328
12512SOL     OW39432   5.590  10.631  13.080
12512SOL    HW139433   5.611  10.719  13.048
12512SOL    HW239434   5.605  10.636  13.175
12513SOL     OW39435  11.690   4.442  14.812
12513SOL    HW139436  11.633   4.405  14.746
12513SOL    HW239437  11.715   4.528  14.777
12514SOL     OW39438   4.259   2.739   0.445
12514SOL    HW139439   4.244   2.645   0.436
12514SOL    HW239440   4.189   2.779   0.394
12515SOL     OW39441   9.536   2.822   9.422
12515SOL    HW139442   9.444   2.803   9.404
12515SOL    HW239443   9.579   2.814   9.337
12516SOL     OW39444   2.626   0.835   6.957
12516SOL    HW139445   2.633   0.782   6.877
12516SOL    HW239446   2.564   0.787   7.012
12517SOL     OW39447   9.030  11.405  12.405
12517SOL    HW139448   9.059  11.374  12.492
12517SOL    HW239449   9.057  11.335  12.345
12518SOL     OW39450   9.638  10.439   1.490
12518SOL    HW139451   9.588  10.361   1.514
12518SOL    HW239452   9.649  10.433   1.395
12519SOL     OW39453   6.447   1.360   0.591
12519SOL    HW139454   6.440   1.444   0.544
12519SOL    HW239455   6.380   1.366   0.659
12520SOL     OW39456  12.587   0.961   6.899
12520SOL    HW139457  12.590   1.057   6.898
12520SOL    HW239458  12.503   0.940   6.858
12521SOL     OW39459   0.962   4.822   4.192
12521SOL    HW139460   1.056   4.804   4.183
12521SOL    HW239461   0.935   4.769   4.267
12522SOL     OW39462   8.999   6.180   7.985
12522SOL    HW139463   9.093   6.197   7.997
12522SOL    HW239464   8.967   6.257   7.938
12523SOL     OW39465   4.371   5.266   2.585
12523SOL    HW139466   4.308   5.203   2.619
12523SOL    HW239467   4.324   5.315   2.518
12524SOL     OW39468   8.074   4.510  12.882
12524SOL    HW139469   8.157   4.503  12.929
12524SOL    HW239470   8.080   4.443  12.814
12525SOL     OW39471   8.302   6.657   0.843
12525SOL    HW139472   8.360   6.665   0.767
12525SOL    HW239473   8.260   6.572   0.833
12526SOL     OW39474   4.155  14.342  12.848
12526SOL    HW139475   4.150  14.367  12.940
12526SOL    HW239476   4.218  14.403  12.810
12527SOL     OW39477   4.071   2.615   7.541
12527SOL    HW139478   4.062   2.563   7.621
12527SOL    HW239479   4.032   2.561   7.472
12528SOL     OW39480   3.042   9.840  13.629
12528SOL    HW139481   3.045   9.930  13.596
12528SOL    HW239482   3.002   9.790  13.557
12529SOL     OW39483   5.517   1.523   1.318
12529SOL    HW139484   5.447   1.467   1.354
12529SOL    HW239485   5.471   1.588   1.266
12530SOL     OW39486   7.950   6.251  12.789
12530SOL    HW139487   8.004   6.176  12.764
12530SOL    HW239488   8.003   6.298  12.853
12531SOL     OW39489  11.986   1.059  10.639
12531SOL    HW139490  11.938   1.141  10.632
12531SOL    HW239491  12.013   1.055  10.731
12532SOL     OW39492  11.892  11.349  12.389
12532SOL    HW139493  11.934  11.284  12.446
12532SOL    HW239494  11.893  11.430  12.440
12533SOL     OW39495   8.087   9.837   9.364
12533SOL    HW139496   8.178   9.811   9.351
12533SOL    HW239497   8.091   9.930   9.384
12534SOL     OW39498  14.582   5.653   9.557
12534SOL    HW139499  14.576   5.722   9.492
12534SOL    HW239500  14.674   5.654   9.585
12535SOL     OW39501   1.341   5.569   3.071
12535SOL    HW139502   1.372   5.643   3.019
12535SOL    HW239503   1.418   5.540   3.120
12536SOL     OW39504   2.149   8.328   6.022
12536SOL    HW139505   2.101   8.310   6.103
12536SOL    HW239506   2.163   8.422   6.023
12537SOL     OW39507   4.656   4.699  11.473
12537SOL    HW139508   4.581   4.678  11.417
12537SOL    HW239509   4.630   4.670  11.560
12538SOL     OW39510   7.896   7.336   0.861
12538SOL    HW139511   7.978   7.377   0.834
12538SOL    HW239512   7.867   7.289   0.783
12539SOL     OW39513   9.810   1.254   1.707
12539SOL    HW139514   9.728   1.207   1.696
12539SOL    HW239515   9.849   1.255   1.619
12540SOL     OW39516   4.497   5.889   1.382
12540SOL    HW139517   4.585   5.889   1.419
12540SOL    HW239518   4.479   5.982   1.365
12541SOL     OW39519  11.659   9.666   6.443
12541SOL    HW139520  11.736   9.665   6.500
12541SOL    HW239521  11.597   9.725   6.486
12542SOL     OW39522  12.698  10.320   2.231
12542SOL    HW139523  12.705  10.414   2.248
12542SOL    HW239524  12.776  10.300   2.179
12543SOL     OW39525   0.563   1.957   1.335
12543SOL    HW139526   0.631   1.999   1.387
12543SOL    HW239527   0.601   1.873   1.309
12544SOL     OW39528   1.953   7.654  10.813
12544SOL    HW139529   1.950   7.619  10.723
12544SOL    HW239530   2.032   7.616  10.850
12545SOL     OW39531   0.819   5.621   1.131
12545SOL    HW139532   0.752   5.668   1.182
12545SOL    HW239533   0.870   5.573   1.196
12546SOL     OW39534   8.101   8.436   1.488
12546SOL    HW139535   8.061   8.512   1.447
12546SOL    HW239536   8.159   8.472   1.555
12547SOL     OW39537   2.944   3.806  11.263
12547SOL    HW139538   2.896   3.888  11.255
12547SOL    HW239539   2.974   3.786  11.174
12548SOL     OW39540  14.804   7.824  14.008
12548SOL    HW139541  14.829   7.914  14.027
12548SOL    HW239542  14.844   7.773  14.079
12549SOL     OW39543  11.321   9.141   3.822
12549SOL    HW139544  11.271   9.217   3.854
12549SOL    HW239545  11.333   9.159   3.729
12550SOL     OW39546   6.207   6.865   6.407
12550SOL    HW139547   6.294   6.826   6.411
12550SOL    HW239548   6.180   6.874   6.499
12551SOL     OW39549  13.599   7.006   9.196
12551SOL    HW139550  13.570   6.996   9.105
12551SOL    HW239551  13.651   6.927   9.213
12552SOL     OW39552   3.959   9.140   0.926
12552SOL    HW139553   3.876   9.120   0.882
12552SOL    HW239554   4.024   9.087   0.879
12553SOL     OW39555  13.101   5.034  12.425
12553SOL    HW139556  13.134   4.955  12.381
12553SOL    HW239557  13.111   5.103  12.359
12554SOL     OW39558   9.190   2.393  10.283
12554SOL    HW139559   9.127   2.341  10.332
12554SOL    HW239560   9.232   2.448  10.349
12555SOL     OW39561   1.541   6.918   5.120
12555SOL    HW139562   1.546   6.825   5.097
12555SOL    HW239563   1.552   6.920   5.215
12556SOL     OW39564   7.222  13.775   8.486
12556SOL    HW139565   7.248  13.798   8.397
12556SOL    HW239566   7.236  13.681   8.492
12557SOL     OW39567  10.161  13.025  13.060
12557SOL    HW139568  10.066  13.022  13.048
12557SOL    HW239569  10.192  12.945  13.017
12558SOL     OW39570  13.185   9.343  12.959
12558SOL    HW139571  13.207   9.414  12.899
12558SOL    HW239572  13.249   9.352  13.031
12559SOL     OW39573  10.856   0.639  11.860
12559SOL    HW139574  10.898   0.559  11.893
12559SOL    HW239575  10.776   0.608  11.818
12560SOL     OW39576   9.610   4.704   6.986
12560SOL    HW139577   9.609   4.682   7.080
12560SOL    HW239578   9.695   4.745   6.972
12561SOL     OW39579  12.205   7.959  14.096
12561SOL    HW139580  12.261   7.883  14.108
12561SOL    HW239581  12.162   7.970  14.181
12562SOL     OW39582   0.987  14.711   9.450
12562SOL    HW139583   1.052  14.772   9.485
12562SOL    HW239584   1.038  14.648   9.399
12563SOL     OW39585  10.049   3.639   3.422
12563SOL    HW139586  10.115   3.573   3.439
12563SOL    HW239587   9.993   3.601   3.354
12564SOL     OW39588   1.187   5.036   6.657
12564SOL    HW139589   1.218   4.969   6.596
12564SOL    HW239590   1.252   5.106   6.651
12565SOL     OW39591  12.542  11.985  10.328
12565SOL    HW139592  12.565  12.075  10.352
12565SOL    HW239593  12.472  11.994  10.263
12566SOL     OW39594  12.025   2.718   1.780
12566SOL    HW139595  11.997   2.809   1.784
12566SOL    HW239596  12.099   2.718   1.720
12567SOL     OW39597  14.586   0.045   4.797
12567SOL    HW139598  14.639   0.103   4.852
12567SOL    HW239599  14.510   0.098   4.774
12568SOL     OW39600   7.239  10.089   6.061
12568SOL    HW139601   7.161  10.037   6.041
12568SOL    HW239602   7.208  10.180   6.060
12569SOL     OW39603  10.822   1.712  12.998
12569SOL    HW139604  10.787   1.730  12.911
12569SOL    HW239605  10.764   1.759  13.058
12570SOL     OW39606   9.969   2.543  12.999
12570SOL    HW139607   9.917   2.583  13.068
12570SOL    HW239608  10.010   2.467  13.040
12571SOL     OW39609   1.071  12.156   8.195
12571SOL    HW139610   1.163  12.156   8.221
12571SOL    HW239611   1.066  12.088   8.128
12572SOL     OW39612  12.943   2.619   7.239
12572SOL    HW139613  12.950   2.559   7.314
12572SOL    HW239614  12.893   2.571   7.174
12573SOL     OW39615   9.192   0.013   1.590
12573SOL    HW139616   9.250  14.830   1.551
12573SOL    HW239617   9.106  14.852   1.591
12574SOL     OW39618   4.868  12.867   8.706
12574SOL    HW139619   4.894  12.951   8.667
12574SOL    HW239620   4.780  12.852   8.672
12575SOL     OW39621   9.267   2.798   7.185
12575SOL    HW139622   9.240   2.888   7.204
12575SOL    HW239623   9.358   2.805   7.157
12576SOL     OW39624   9.752   1.411  11.093
12576SOL    HW139625   9.704   1.405  11.010
12576SOL    HW239626   9.694   1.369  11.156
12577SOL     OW39627  13.250   5.002   4.443
12577SOL    HW139628  13.320   5.020   4.380
12577SOL    HW239629  13.199   5.084   4.446
12578SOL     OW39630   7.989   3.026  13.312
12578SOL    HW139631   7.975   3.121  13.309
12578SOL    HW239632   8.060   3.011  13.249
12579SOL     OW39633  12.945  13.146   6.595
12579SOL    HW139634  12.940  13.085   6.521
12579SOL    HW239635  12.857  13.182   6.602
12580SOL     OW39636   7.291  13.552  11.778
12580SOL    HW139637   7.311  13.625  11.719
12580SOL    HW239638   7.284  13.591  11.865
12581SOL     OW39639   1.218   3.892   3.072
12581SOL    HW139640   1.141   3.942   3.099
12581SOL    HW239641   1.196   3.862   2.983
12582SOL     OW39642   4.239   4.340   9.622
12582SOL    HW139643   4.258   4.430   9.599
12582SOL    HW239644   4.314   4.290   9.589
12583SOL     OW39645   4.896   4.145  13.675
12583SOL    HW139646   4.918   4.143  13.768
12583SOL    HW239647   4.981   4.156  13.631
12584SOL     OW39648   1.515   8.536   0.262
12584SOL    HW139649   1.483   8.452   0.292
12584SOL    HW239650   1.489   8.540   0.170
12585SOL     OW39651  12.378   6.192   5.189
12585SOL    HW139652  12.355   6.139   5.265
12585SOL    HW239653  12.307   6.255   5.181
12586SOL     OW39654  11.223   6.818  13.815
12586SOL    HW139655  11.289   6.778  13.760
12586SOL    HW239656  11.152   6.840  13.755
12587SOL     OW39657  12.764   6.739  11.951
12587SOL    HW139658  12.781   6.645  11.954
12587SOL    HW239659  12.736   6.761  12.040
12588SOL     OW39660   8.528  11.625  10.386
12588SOL    HW139661   8.475  11.561  10.434
12588SOL    HW239662   8.485  11.631  10.300
12589SOL     OW39663  12.948   5.764   1.968
12589SOL    HW139664  12.983   5.717   2.044
12589SOL    HW239665  12.853   5.756   1.976
12590SOL     OW39666   7.080  10.396   4.924
12590SOL    HW139667   7.073  10.464   4.991
12590SOL    HW239668   7.021  10.326   4.954
12591SOL     OW39669   7.138   0.617  14.866
12591SOL    HW139670   7.069   0.605  14.802
12591SOL    HW239671   7.093   0.643   0.064
12592SOL     OW39672  12.947   1.367   4.162
12592SOL    HW139673  12.914   1.298   4.220
12592SOL    HW239674  12.999   1.320   4.097
12593SOL     OW39675  10.470  10.556  10.038
12593SOL    HW139676  10.562  10.584  10.049
12593SOL    HW239677  10.429  10.577  10.122
12594SOL     OW39678   1.076  10.122   9.955
12594SOL    HW139679   1.111  10.152   9.871
12594SOL    HW239680   1.105  10.031   9.962
12595SOL     OW39681   2.605  11.222   8.056
12595SOL    HW139682   2.659  11.154   8.015
12595SOL    HW239683   2.602  11.198   8.148
12596SOL     OW39684   0.307   1.293   7.001
12596SOL    HW139685   0.351   1.229   6.946
12596SOL    HW239686   0.357   1.373   6.990
12597SOL     OW39687   2.403   8.165   2.177
12597SOL    HW139688   2.336   8.218   2.219
12597SOL    HW239689   2.355   8.105   2.120
12598SOL     OW39690   1.916   1.252   9.880
12598SOL    HW139691   1.846   1.298   9.834
12598SOL    HW239692   1.908   1.161   9.850
12599SOL     OW39693   2.729  11.423   4.131
12599SOL    HW139694   2.764  11.484   4.065
12599SOL    HW239695   2.672  11.364   4.082
12600SOL     OW39696  10.855   2.773   0.275
12600SOL    HW139697  10.894   2.847   0.320
12600SOL    HW239698  10.761   2.784   0.287
12601SOL     OW39699   4.199  11.383   0.114
12601SOL    HW139700   4.124  11.422   0.160
12601SOL    HW239701   4.275  11.429   0.150
12602SOL     OW39702   3.833   6.299   3.597
12602SOL    HW139703   3.758   6.346   3.632
12602SOL    HW239704   3.837   6.326   3.505
12603SOL     OW39705  14.051  11.049  12.698
12603SOL    HW139706  14.052  10.987  12.771
12603SOL    HW239707  14.080  11.132  12.737
12604SOL     OW39708   7.734   4.388   6.817
12604SOL    HW139709   7.771   4.313   6.863
12604SOL    HW239710   7.758   4.463   6.873
12605SOL     OW39711  14.396  14.767  11.791
12605SOL    HW139712  14.443  14.786  11.709
12605SOL    HW239713  14.408  14.846  11.844
12606SOL     OW39714   1.800  10.513  10.435
12606SOL    HW139715   1.870  10.561  10.391
12606SOL    HW239716   1.800  10.427  10.393
12607SOL     OW39717  12.931   0.436   2.303
12607SOL    HW139718  12.900   0.380   2.374
12607SOL    HW239719  12.958   0.374   2.235
12608SOL     OW39720   1.038   5.249   1.320
12608SOL    HW139721   0.990   5.201   1.388
12608SOL    HW239722   0.981   5.243   1.243
12609SOL     OW39723  10.807   0.434  12.122
12609SOL    HW139724  10.858   0.458  12.045
12609SOL    HW239725  10.740   0.374  12.090
12610SOL     OW39726   1.629   5.798   7.990
12610SOL    HW139727   1.683   5.841   8.055
12610SOL    HW239728   1.655   5.838   7.907
12611SOL     OW39729   1.190   0.219   8.688
12611SOL    HW139730   1.248   0.229   8.763
12611SOL    HW239731   1.106   0.254   8.717
12612SOL     OW39732   3.635   3.312  11.682
12612SOL    HW139733   3.688   3.375  11.732
12612SOL    HW239734   3.546   3.345  11.688
12613SOL     OW39735   2.135  12.879   6.833
12613SOL    HW139736   2.098  12.791   6.831
12613SOL    HW239737   2.077  12.928   6.890
12614SOL     OW39738   2.589   1.993   6.499
12614SOL    HW139739   2.557   1.904   6.513
12614SOL    HW239740   2.684   1.988   6.513
12615SOL     OW39741  12.147  13.567   5.271
12615SOL    HW139742  12.202  13.500   5.312
12615SOL    HW239743  12.068  13.520   5.245
12616SOL     OW39744   2.789   2.912   6.130
12616SOL    HW139745   2.753   2.947   6.048
12616SOL    HW239746   2.800   2.990   6.186
12617SOL     OW39747   6.749  13.164   0.178
12617SOL    HW139748   6.813  13.168   0.107
12617SOL    HW239749   6.667  13.138   0.135
12618SOL     OW39750  13.426   4.510   3.057
12618SOL    HW139751  13.407   4.421   3.025
12618SOL    HW239752  13.420   4.565   2.978
12619SOL     OW39753  14.385   8.280   6.958
12619SOL    HW139754  14.474   8.299   6.929
12619SOL    HW239755  14.394   8.200   7.011
12620SOL     OW39756   4.695  10.462   7.622
12620SOL    HW139757   4.678  10.376   7.662
12620SOL    HW239758   4.668  10.525   7.689
12621SOL     OW39759   4.237  13.686   4.494
12621SOL    HW139760   4.276  13.770   4.517
12621SOL    HW239761   4.219  13.644   4.578
12622SOL     OW39762   6.641  14.174   4.550
12622SOL    HW139763   6.659  14.255   4.598
12622SOL    HW239764   6.641  14.106   4.618
12623SOL     OW39765  13.973  11.807   3.848
12623SOL    HW139766  14.061  11.794   3.885
12623SOL    HW239767  13.927  11.725   3.867
12624SOL     OW39768  13.574  12.857   5.783
12624SOL    HW139769  13.578  12.952   5.796
12624SOL    HW239770  13.487  12.842   5.745
12625SOL     OW39771   3.166   3.268   9.875
12625SOL    HW139772   3.216   3.312   9.806
12625SOL    HW239773   3.075   3.276   9.847
12626SOL     OW39774   5.649  14.242   4.042
12626SOL    HW139775   5.695  14.214   3.963
12626SOL    HW239776   5.573  14.184   4.048
12627SOL     OW39777  12.972   0.567  11.129
12627SOL    HW139778  12.973   0.638  11.065
12627SOL    HW239779  12.885   0.573  11.169
12628SOL     OW39780   6.297   9.421  10.278
12628SOL    HW139781   6.376   9.387  10.320
12628SOL    HW239782   6.255   9.475  10.346
12629SOL     OW39783  12.830  11.587   8.542
12629SOL    HW139784  12.871  11.501   8.547
12629SOL    HW239785  12.870  11.629   8.465
12630SOL     OW39786  11.087   0.171   2.907
12630SOL    HW139787  11.130   0.246   2.948
12630SOL    HW239788  11.157   0.127   2.858
12631SOL     OW39789  12.893   5.470   7.948
12631SOL    HW139790  12.827   5.418   7.994
12631SOL    HW239791  12.878   5.560   7.978
12632SOL     OW39792   0.644   2.103  10.573
12632SOL    HW139793   0.619   2.014  10.549
12632SOL    HW239794   0.563   2.142  10.606
12633SOL     OW39795   1.010   3.958  10.990
12633SOL    HW139796   0.979   3.906  10.916
12633SOL    HW239797   0.990   3.904  11.067
12634SOL     OW39798  14.403  11.520  10.279
12634SOL    HW139799  14.377  11.603  10.318
12634SOL    HW239800  14.330  11.461  10.296
12635SOL     OW39801   5.870   5.424   1.102
12635SOL    HW139802   5.810   5.359   1.063
12635SOL    HW239803   5.950   5.415   1.051
12636SOL     OW39804   6.363   7.155   2.559
12636SOL    HW139805   6.432   7.172   2.494
12636SOL    HW239806   6.313   7.237   2.563
12637SOL     OW39807  10.633   0.340   2.164
12637SOL    HW139808  10.583   0.295   2.232
12637SOL    HW239809  10.568   0.368   2.100
12638SOL     OW39810  11.234   7.484   1.467
12638SOL    HW139811  11.223   7.530   1.550
12638SOL    HW239812  11.151   7.498   1.421
12639SOL     OW39813   1.970   9.290   1.162
12639SOL    HW139814   2.040   9.315   1.101
12639SOL    HW239815   1.915   9.230   1.111
12640SOL     OW39816  14.603  10.301   6.476
12640SOL    HW139817  14.555  10.347   6.407
12640SOL    HW239818  14.556  10.219   6.488
12641SOL     OW39819  12.318  13.078   9.818
12641SOL    HW139820  12.347  13.157   9.864
12641SOL    HW239821  12.243  13.047   9.867
12642SOL     OW39822   1.104   7.076   1.837
12642SOL    HW139823   1.158   7.155   1.840
12642SOL    HW239824   1.164   7.005   1.861
12643SOL     OW39825   2.914  10.717  12.532
12643SOL    HW139826   2.986  10.683  12.478
12643SOL    HW239827   2.926  10.812  12.529
12644SOL     OW39828   6.212   4.352   9.418
12644SOL    HW139829   6.148   4.419   9.395
12644SOL    HW239830   6.186   4.275   9.368
12645SOL     OW39831   4.187   6.899  12.235
12645SOL    HW139832   4.202   6.986  12.198
12645SOL    HW239833   4.113   6.865  12.185
12646SOL     OW39834  12.188   4.936   5.370
12646SOL    HW139835  12.178   4.925   5.465
12646SOL    HW239836  12.154   4.854   5.333
12647SOL     OW39837   5.577   1.844   3.397
12647SOL    HW139838   5.656   1.790   3.389
12647SOL    HW239839   5.505   1.784   3.379
12648SOL     OW39840   4.220  13.039   6.820
12648SOL    HW139841   4.259  12.964   6.776
12648SOL    HW239842   4.293  13.080   6.867
12649SOL     OW39843   7.586   3.109  13.177
12649SOL    HW139844   7.607   3.063  13.095
12649SOL    HW239845   7.515   3.169  13.153
12650SOL     OW39846   9.056   7.019   9.524
12650SOL    HW139847   9.145   7.040   9.550
12650SOL    HW239848   9.005   7.021   9.605
12651SOL     OW39849  13.446  13.872   9.737
12651SOL    HW139850  13.466  13.966   9.740
12651SOL    HW239851  13.412  13.857   9.649
12652SOL     OW39852   1.035   2.129   3.946
12652SOL    HW139853   1.081   2.181   4.013
12652SOL    HW239854   1.105   2.090   3.895
12653SOL     OW39855   2.738  13.212  11.216
12653SOL    HW139856   2.812  13.214  11.277
12653SOL    HW239857   2.777  13.193  11.131
12654SOL     OW39858   2.489  14.819  10.785
12654SOL    HW139859   2.460  14.776  10.704
12654SOL    HW239860   2.561  14.765  10.816
12655SOL     OW39861  12.323   3.540  10.946
12655SOL    HW139862  12.399   3.595  10.965
12655SOL    HW239863  12.349   3.485  10.872
12656SOL     OW39864  12.753   0.444   9.833
12656SOL    HW139865  12.783   0.456   9.923
12656SOL    HW239866  12.821   0.390   9.792
12657SOL     OW39867  10.465  12.989   0.025
12657SOL    HW139868  10.515  13.046   0.084
12657SOL    HW239869  10.515  12.989  14.826
12658SOL     OW39870   8.518   9.402   0.129
12658SOL    HW139871   8.502   9.476   0.188
12658SOL    HW239872   8.560   9.336   0.184
12659SOL     OW39873  14.701   4.458  13.536
12659SOL    HW139874  14.687   4.518  13.463
12659SOL    HW239875  14.635   4.482  13.601
12660SOL     OW39876   5.033   5.348   6.525
12660SOL    HW139877   4.954   5.326   6.574
12660SOL    HW239878   5.103   5.348   6.590
12661SOL     OW39879   0.996   0.448   7.160
12661SOL    HW139880   1.080   0.479   7.196
12661SOL    HW239881   1.021   0.382   7.095
12662SOL     OW39882   6.474   9.346  12.017
12662SOL    HW139883   6.541   9.415  12.018
12662SOL    HW239884   6.520   9.268  12.050
12663SOL     OW39885  12.969   1.748   9.600
12663SOL    HW139886  13.028   1.797   9.658
12663SOL    HW239887  12.998   1.771   9.512
12664SOL     OW39888  14.633  14.418   7.402
12664SOL    HW139889  14.614  14.480   7.473
12664SOL    HW239890  14.692  14.465   7.344
12665SOL     OW39891   5.455   3.046   6.342
12665SOL    HW139892   5.462   3.128   6.392
12665SOL    HW239893   5.530   2.994   6.371
12666SOL     OW39894   8.081   6.667   1.797
12666SOL    HW139895   8.152   6.643   1.856
12666SOL    HW239896   8.079   6.597   1.732
12667SOL     OW39897  14.821   1.831   6.214
12667SOL    HW139898   0.009   1.846   6.150
12667SOL    HW239899  14.743   1.819   6.160
12668SOL     OW39900   3.959  12.959  14.054
12668SOL    HW139901   3.863  12.968  14.056
12668SOL    HW239902   3.991  13.039  14.096
12669SOL     OW39903   6.641  13.566   6.951
12669SOL    HW139904   6.620  13.522   6.868
12669SOL    HW239905   6.568  13.626   6.965
12670SOL     OW39906   0.372  10.920  12.356
12670SOL    HW139907   0.287  10.923  12.313
12670SOL    HW239908   0.362  10.856  12.427
12671SOL     OW39909  12.057  12.314  10.380
12671SOL    HW139910  11.992  12.267  10.432
12671SOL    HW239911  12.129  12.251  10.369
12672SOL     OW39912  13.795   3.160  11.932
12672SOL    HW139913  13.883   3.142  11.963
12672SOL    HW239914  13.739   3.099  11.981
12673SOL     OW39915   9.763   6.538   9.189
12673SOL    HW139916   9.791   6.629   9.179
12673SOL    HW239917   9.822   6.501   9.255
12674SOL     OW39918  13.718   1.703  13.648
12674SOL    HW139919  13.768   1.632  13.688
12674SOL    HW239920  13.661   1.734  13.719
12675SOL     OW39921   0.101  11.182   4.753
12675SOL    HW139922   0.079  11.143   4.837
12675SOL    HW239923   0.171  11.244   4.772
12676SOL     OW39924   0.750   1.667   1.506
12676SOL    HW139925   0.815   1.626   1.564
12676SOL    HW239926   0.714   1.738   1.558
12677SOL     OW39927  11.674   0.376  12.659
12677SOL    HW139928  11.628   0.303  12.700
12677SOL    HW239929  11.750   0.335  12.617
12678SOL     OW39930  11.438   7.578   1.299
12678SOL    HW139931  11.421   7.524   1.375
12678SOL    HW239932  11.531   7.566   1.280
12679SOL     OW39933   3.313   4.413  10.064
12679SOL    HW139934   3.335   4.491  10.115
12679SOL    HW239935   3.313   4.342  10.129
12680SOL     OW39936   7.092   4.506   5.970
12680SOL    HW139937   7.082   4.595   5.936
12680SOL    HW239938   7.007   4.485   6.008
12681SOL     OW39939  14.498  11.793   5.807
12681SOL    HW139940  14.407  11.765   5.820
12681SOL    HW239941  14.541  11.718   5.767
12682SOL     OW39942  12.676   2.694  13.528
12682SOL    HW139943  12.737   2.664  13.461
12682SOL    HW239944  12.633   2.614  13.558
12683SOL     OW39945  11.567   7.088  12.632
12683SOL    HW139946  11.572   6.994  12.614
12683SOL    HW239947  11.476   7.111  12.615
12684SOL     OW39948   0.038   0.850   5.974
12684SOL    HW139949  14.852   0.784   5.979
12684SOL    HW239950   0.033   0.897   6.057
12685SOL     OW39951   5.724   0.398   9.076
12685SOL    HW139952   5.784   0.409   9.002
12685SOL    HW239953   5.702   0.305   9.076
12686SOL     OW39954  12.658   2.545   4.922
12686SOL    HW139955  12.732   2.491   4.894
12686SOL    HW239956  12.698   2.616   4.973
12687SOL     OW39957   5.209   5.993   9.941
12687SOL    HW139958   5.163   6.045   9.875
12687SOL    HW239959   5.149   5.922   9.962
12688SOL     OW39960  10.686   0.714  12.102
12688SOL    HW139961  10.687   0.635  12.156
12688SOL    HW239962  10.751   0.697  12.034
12689SOL     OW39963   6.925   7.805  14.250
12689SOL    HW139964   6.847   7.840  14.205
12689SOL    HW239965   6.972   7.883  14.279
12690SOL     OW39966  11.651   3.503  10.340
12690SOL    HW139967  11.663   3.480  10.432
12690SOL    HW239968  11.731   3.549  10.315
12691SOL     OW39969   2.998   9.160  11.194
12691SOL    HW139970   3.060   9.104  11.146
12691SOL    HW239971   2.961   9.218  11.127
12692SOL     OW39972   4.514   8.095  13.343
12692SOL    HW139973   4.501   8.086  13.438
12692SOL    HW239974   4.587   8.156  13.335
12693SOL     OW39975   0.641   2.686   0.664
12693SOL    HW139976   0.561   2.645   0.696
12693SOL    HW239977   0.661   2.639   0.583
12694SOL     OW39978  13.650   0.157   9.040
12694SOL    HW139979  13.636   0.074   9.084
12694SOL    HW239980  13.714   0.137   8.972
12695SOL     OW39981   4.986   7.916   0.786
12695SOL    HW139982   4.916   7.979   0.803
12695SOL    HW239983   5.057   7.969   0.748
12696SOL     OW39984   0.934   0.341  10.532
12696SOL    HW139985   0.840   0.347  10.517
12696SOL    HW239986   0.962   0.432  10.545
12697SOL     OW39987   9.461   4.477   8.407
12697SOL    HW139988   9.477   4.542   8.476
12697SOL    HW239989   9.511   4.509   8.332
12698SOL     OW39990   9.095   0.869   8.192
12698SOL    HW139991   9.082   0.787   8.240
12698SOL    HW239992   9.071   0.937   8.255
12699SOL     OW39993   4.296  10.850   8.356
12699SOL    HW139994   4.327  10.854   8.265
12699SOL    HW239995   4.279  10.757   8.371
12700SOL     OW39996  10.970   8.062   8.806
12700SOL    HW139997  10.951   7.988   8.748
12700SOL    HW239998  10.884   8.095   8.832
12701SOL     OW39999   5.526   2.543   1.196
12701SOL    HW140000   5.450   2.595   1.169
12701SOL    HW240001   5.511   2.524   1.288
12702SOL     OW40002   6.409   9.793   3.449
12702SOL    HW140003   6.440   9.859   3.387
12702SOL    HW240004   6.465   9.804   3.526
12703SOL     OW40005   1.977   4.784  11.702
12703SOL    HW140006   2.069   4.790  11.729
12703SOL    HW240007   1.939   4.867  11.730
12704SOL     OW40008   4.555   2.643   1.839
12704SOL    HW140009   4.635   2.610   1.881
12704SOL    HW240010   4.578   2.654   1.747
12705SOL     OW40011   3.757   2.731   0.618
12705SOL    HW140012   3.787   2.792   0.686
12705SOL    HW240013   3.789   2.646   0.646
12706SOL     OW40014   3.046   4.910   7.699
12706SOL    HW140015   3.095   4.845   7.749
12706SOL    HW240016   3.097   4.922   7.618
12707SOL     OW40017   7.723  11.944   8.596
12707SOL    HW140018   7.655  12.007   8.622
12707SOL    HW240019   7.755  11.976   8.512
12708SOL     OW40020  14.480   4.676   9.909
12708SOL    HW140021  14.414   4.744   9.898
12708SOL    HW240022  14.446   4.620   9.978
12709SOL     OW40023  10.986   8.858   6.616
12709SOL    HW140024  10.895   8.830   6.609
12709SOL    HW240025  10.985   8.930   6.679
12710SOL     OW40026  13.779   0.647  10.639
12710SOL    HW140027  13.733   0.563  10.636
12710SOL    HW240028  13.723   0.703  10.692
12711SOL     OW40029   0.552  14.408  11.470
12711SOL    HW140030   0.488  14.349  11.510
12711SOL    HW240031   0.594  14.451  11.544
12712SOL     OW40032   8.912   7.735  12.723
12712SOL    HW140033   8.944   7.659  12.675
12712SOL    HW240034   8.902   7.803  12.656
12713SOL     OW40035   2.824   1.257  12.995
12713SOL    HW140036   2.784   1.179  13.035
12713SOL    HW240037   2.756   1.292  12.938
12714SOL     OW40038   8.353  11.224   1.064
12714SOL    HW140039   8.349  11.273   0.982
12714SOL    HW240040   8.402  11.280   1.124
12715SOL     OW40041   2.316   7.091   2.886
12715SOL    HW140042   2.373   7.074   2.961
12715SOL    HW240043   2.310   7.187   2.883
12716SOL     OW40044   3.129   7.551   8.232
12716SOL    HW140045   3.105   7.636   8.268
12716SOL    HW240046   3.219   7.562   8.202
12717SOL     OW40047  11.174   6.711   7.780
12717SOL    HW140048  11.166   6.617   7.799
12717SOL    HW240049  11.233   6.743   7.848
12718SOL     OW40050   7.218  11.516   7.309
12718SOL    HW140051   7.213  11.611   7.300
12718SOL    HW240052   7.310  11.495   7.291
12719SOL     OW40053  10.217   1.183   3.054
12719SOL    HW140054  10.282   1.159   3.120
12719SOL    HW240055  10.243   1.133   2.976
12720SOL     OW40056   8.537   2.627   0.462
12720SOL    HW140057   8.628   2.655   0.459
12720SOL    HW240058   8.504   2.641   0.373
12721SOL     OW40059   2.119   2.763  11.211
12721SOL    HW140060   2.080   2.742  11.296
12721SOL    HW240061   2.060   2.830  11.175
12722SOL     OW40062  14.533  11.874   2.703
12722SOL    HW140063  14.593  11.925   2.648
12722SOL    HW240064  14.548  11.907   2.791
12723SOL     OW40065   7.725   5.810   4.547
12723SOL    HW140066   7.737   5.899   4.514
12723SOL    HW240067   7.630   5.795   4.541
12724SOL     OW40068  13.621   9.239  14.213
12724SOL    HW140069  13.593   9.162  14.163
12724SOL    HW240070  13.553   9.250  14.280
12725SOL     OW40071   6.895   0.282  12.289
12725SOL    HW140072   6.897   0.371  12.254
12725SOL    HW240073   6.854   0.230  12.220
12726SOL     OW40074  10.803  12.076   1.457
12726SOL    HW140075  10.889  12.047   1.424
12726SOL    HW240076  10.780  12.150   1.400
12727SOL     OW40077   7.076   6.974  11.340
12727SOL    HW140078   7.071   6.999  11.432
12727SOL    HW240079   7.118   7.048  11.298
12728SOL     OW40080  11.621   8.160   8.016
12728SOL    HW140081  11.630   8.067   7.993
12728SOL    HW240082  11.600   8.204   7.934
12729SOL     OW40083  14.364  13.486  14.815
12729SOL    HW140084  14.274  13.510  14.839
12729SOL    HW240085  14.413  13.567  14.822
12730SOL     OW40086  14.711   2.254   4.266
12730SOL    HW140087  14.806   2.250   4.258
12730SOL    HW240088  14.695   2.331   4.320
12731SOL     OW40089  10.210   4.141   2.723
12731SOL    HW140090  10.150   4.066   2.720
12731SOL    HW240091  10.204   4.173   2.814
12732SOL     OW40092   1.368   3.573   0.577
12732SOL    HW140093   1.443   3.550   0.521
12732SOL    HW240094   1.295   3.522   0.541
12733SOL     OW40095  13.089  14.083   6.744
12733SOL    HW140096  13.004  14.125   6.757
12733SOL    HW240097  13.125  14.072   6.832
12734SOL     OW40098   5.617   5.548  10.083
12734SOL    HW140099   5.682   5.584  10.023
12734SOL    HW240100   5.665   5.529  10.163
12735SOL     OW40101  14.088  14.534   5.062
12735SOL    HW140102  14.133  14.603   5.013
12735SOL    HW240103  14.141  14.523   5.141
12736SOL     OW40104  12.852   2.533  10.035
12736SOL    HW140105  12.833   2.623  10.060
12736SOL    HW240106  12.812   2.480  10.105
12737SOL     OW40107   2.248  11.498   1.248
12737SOL    HW140108   2.225  11.519   1.339
12737SOL    HW240109   2.224  11.575   1.198
12738SOL     OW40110  12.386   3.790  12.416
12738SOL    HW140111  12.464   3.845  12.412
12738SOL    HW240112  12.417   3.705  12.448
12739SOL     OW40113  14.072  12.582   2.230
12739SOL    HW140114  14.083  12.527   2.307
12739SOL    HW240115  14.150  12.638   2.228
12740SOL     OW40116  11.101   8.333  13.431
12740SOL    HW140117  11.145   8.356  13.512
12740SOL    HW240118  11.056   8.413  13.404
12741SOL     OW40119   0.945  12.291   7.995
12741SOL    HW140120   0.867  12.237   7.977
12741SOL    HW240121   0.981  12.253   8.075
12742SOL     OW40122   1.436   6.359  12.419
12742SOL    HW140123   1.498   6.329  12.352
12742SOL    HW240124   1.397   6.438  12.381
12743SOL     OW40125   6.791   0.308   0.827
12743SOL    HW140126   6.723   0.247   0.796
12743SOL    HW240127   6.812   0.360   0.750
12744SOL     OW40128   0.043   0.661   2.848
12744SOL    HW140129   0.054   0.727   2.916
12744SOL    HW240130   0.132   0.627   2.833
12745SOL     OW40131   1.866   9.677   2.202
12745SOL    HW140132   1.794   9.637   2.153
12745SOL    HW240133   1.833   9.762   2.230
12746SOL     OW40134  14.502   1.322   4.114
12746SOL    HW140135  14.563   1.343   4.185
12746SOL    HW240136  14.558   1.301   4.039
12747SOL     OW40137   3.594   6.768   2.252
12747SOL    HW140138   3.501   6.788   2.259
12747SOL    HW240139   3.637   6.844   2.291
12748SOL     OW40140   1.222   3.916   9.044
12748SOL    HW140141   1.294   3.968   9.078
12748SOL    HW240142   1.255   3.826   9.044
12749SOL     OW40143   6.049   9.049  13.413
12749SOL    HW140144   6.009   9.130  13.447
12749SOL    HW240145   6.143   9.065  13.421
12750SOL     OW40146  10.553   5.883  11.936
12750SOL    HW140147  10.520   5.915  12.020
12750SOL    HW240148  10.622   5.821  11.959
12751SOL     OW40149   0.947   0.980  14.080
12751SOL    HW140150   0.916   1.015  13.996
12751SOL    HW240151   0.870   0.987  14.137
12752SOL     OW40152   6.822   9.807  11.785
12752SOL    HW140153   6.837   9.723  11.828
12752SOL    HW240154   6.765   9.785  11.711
12753SOL     OW40155  14.060   6.633   3.305
12753SOL    HW140156  14.057   6.578   3.384
12753SOL    HW240157  14.154   6.648   3.290
12754SOL     OW40158   9.260   9.299  10.048
12754SOL    HW140159   9.181   9.347  10.020
12754SOL    HW240160   9.228   9.233  10.109
12755SOL     OW40161  10.679   9.800  11.720
12755SOL    HW140162  10.745   9.779  11.655
12755SOL    HW240163  10.689   9.732  11.787
12756SOL     OW40164   0.199   1.635  13.705
12756SOL    HW140165   0.291   1.647  13.680
12756SOL    HW240166   0.155   1.610  13.624
12757SOL     OW40167  10.728   3.746   4.854
12757SOL    HW140168  10.641   3.773   4.825
12757SOL    HW240169  10.742   3.792   4.937
12758SOL     OW40170   2.799   8.826   6.804
12758SOL    HW140171   2.727   8.874   6.763
12758SOL    HW240172   2.830   8.766   6.736
12759SOL     OW40173  10.275  11.095  13.975
12759SOL    HW140174  10.284  11.040  14.053
12759SOL    HW240175  10.183  11.122  13.976
12760SOL     OW40176   3.343  14.093  14.036
12760SOL    HW140177   3.265  14.097  14.091
12760SOL    HW240178   3.371  14.185  14.029
12761SOL     OW40179   4.808   9.705  12.688
12761SOL    HW140180   4.762   9.788  12.673
12761SOL    HW240181   4.885   9.730  12.739
12762SOL     OW40182  13.218  10.595   8.173
12762SOL    HW140183  13.272  10.612   8.250
12762SOL    HW240184  13.234  10.503   8.152
12763SOL     OW40185  12.828   1.843  10.178
12763SOL    HW140186  12.851   1.935  10.186
12763SOL    HW240187  12.869   1.801  10.254
12764SOL     OW40188   9.610   9.233   1.394
12764SOL    HW140189   9.552   9.249   1.468
12764SOL    HW240190   9.611   9.315   1.345
12765SOL     OW40191   9.635  12.393   7.227
12765SOL    HW140192   9.563  12.352   7.178
12765SOL    HW240193   9.591  12.439   7.299
12766SOL     OW40194   4.946   4.439   1.608
12766SOL    HW140195   4.875   4.421   1.547
12766SOL    HW240196   5.005   4.498   1.561
12767SOL     OW40197   9.364  11.654   8.484
12767SOL    HW140198   9.335  11.734   8.441
12767SOL    HW240199   9.283  11.602   8.495
12768SOL     OW40200  10.699   0.790   9.347
12768SOL    HW140201  10.762   0.810   9.278
12768SOL    HW240202  10.739   0.717   9.394
12769SOL     OW40203  11.819  11.952  13.241
12769SOL    HW140204  11.824  11.954  13.337
12769SOL    HW240205  11.735  11.911  13.222
12770SOL     OW40206   4.427  13.145   6.961
12770SOL    HW140207   4.469  13.216   7.008
12770SOL    HW240208   4.489  13.122   6.892
12771SOL     OW40209   3.436  14.836  13.880
12771SOL    HW140210   3.472  14.764  13.932
12771SOL    HW240211   3.349  14.850  13.917
12772SOL     OW40212   0.073   6.461   4.138
12772SOL    HW140213   0.101   6.552   4.125
12772SOL    HW240214  14.871   6.469   4.184
12773SOL     OW40215   2.771   2.251   3.493
12773SOL    HW140216   2.856   2.289   3.469
12773SOL    HW240217   2.728   2.234   3.409
12774SOL     OW40218   5.545   6.552   4.320
12774SOL    HW140219   5.480   6.564   4.388
12774SOL    HW240220   5.624   6.525   4.366
12775SOL     OW40221   6.438   0.937  12.027
12775SOL    HW140222   6.422   0.846  12.051
12775SOL    HW240223   6.510   0.964  12.084
12776SOL     OW40224  13.209  12.127   5.585
12776SOL    HW140225  13.194  12.056   5.523
12776SOL    HW240226  13.281  12.096   5.640
12777SOL     OW40227  10.159   0.032   2.771
12777SOL    HW140228  10.179  14.846   2.835
12777SOL    HW240229  10.066   0.050   2.782
12778SOL     OW40230   1.650   9.693  12.364
12778SOL    HW140231   1.579   9.691  12.300
12778SOL    HW240232   1.687   9.605  12.362
12779SOL     OW40233   3.752   8.703  11.200
12779SOL    HW140234   3.715   8.655  11.274
12779SOL    HW240235   3.676   8.731  11.149
12780SOL     OW40236   9.895  10.801   2.937
12780SOL    HW140237   9.906  10.724   2.993
12780SOL    HW240238   9.927  10.772   2.851
12781SOL     OW40239  10.277  12.302  11.007
12781SOL    HW140240  10.222  12.297  10.928
12781SOL    HW240241  10.237  12.238  11.067
12782SOL     OW40242   7.399   7.643   9.855
12782SOL    HW140243   7.413   7.562   9.904
12782SOL    HW240244   7.364   7.614   9.770
12783SOL     OW40245   9.666   0.160   2.327
12783SOL    HW140246   9.689   0.252   2.344
12783SOL    HW240247   9.668   0.119   2.413
12784SOL     OW40248   0.106   1.191  11.172
12784SOL    HW140249   0.190   1.203  11.129
12784SOL    HW240250   0.056   1.269  11.148
12785SOL     OW40251   9.929   7.445   0.986
12785SOL    HW140252  10.015   7.453   1.028
12785SOL    HW240253   9.945   7.464   0.894
12786SOL     OW40254   9.738   4.276   9.278
12786SOL    HW140255   9.706   4.324   9.354
12786SOL    HW240256   9.825   4.313   9.260
12787SOL     OW40257  13.134  10.053  11.147
12787SOL    HW140258  13.040  10.064  11.164
12787SOL    HW240259  13.175  10.069  11.232
12788SOL     OW40260  13.758   9.602  13.101
12788SOL    HW140261  13.824   9.641  13.043
12788SOL    HW240262  13.756   9.661  13.177
12789SOL     OW40263   2.408  11.436   1.845
12789SOL    HW140264   2.401  11.480   1.760
12789SOL    HW240265   2.351  11.359   1.837
12790SOL     OW40266   8.820   7.118   2.388
12790SOL    HW140267   8.883   7.067   2.336
12790SOL    HW240268   8.746   7.133   2.328
12791SOL     OW40269   5.075   0.314  13.869
12791SOL    HW140270   5.044   0.402  13.846
12791SOL    HW240271   5.168   0.316  13.847
12792SOL     OW40272   3.237   3.341   8.034
12792SOL    HW140273   3.314   3.390   8.063
12792SOL    HW240274   3.222   3.369   7.944
12793SOL     OW40275  14.705   7.417   1.563
12793SOL    HW140276  14.712   7.472   1.486
12793SOL    HW240277  14.617   7.378   1.557
12794SOL     OW40278   9.127   4.384  10.923
12794SOL    HW140279   9.066   4.378  10.996
12794SOL    HW240280   9.074   4.416  10.850
12795SOL     OW40281   5.400  14.229  13.094
12795SOL    HW140282   5.322  14.222  13.038
12795SOL    HW240283   5.405  14.321  13.116
12796SOL     OW40284   1.526  13.242   9.002
12796SOL    HW140285   1.501  13.152   8.983
12796SOL    HW240286   1.610  13.234   9.048
12797SOL     OW40287   5.275   1.180   0.435
12797SOL    HW140288   5.259   1.095   0.395
12797SOL    HW240289   5.345   1.218   0.382
12798SOL     OW40290   7.538   4.145   9.556
12798SOL    HW140291   7.591   4.065   9.553
12798SOL    HW240292   7.477   4.130   9.628
12799SOL     OW40293   3.011   0.959   6.640
12799SOL    HW140294   2.962   0.888   6.682
12799SOL    HW240295   3.103   0.935   6.653
12800SOL     OW40296  12.251  13.319   5.022
12800SOL    HW140297  12.308  13.286   5.092
12800SOL    HW240298  12.210  13.240   4.987
12801SOL     OW40299   3.890   8.331  12.398
12801SOL    HW140300   3.951   8.291  12.336
12801SOL    HW240301   3.910   8.424  12.394
12802SOL     OW40302  11.684   6.482   8.689
12802SOL    HW140303  11.713   6.397   8.656
12802SOL    HW240304  11.762   6.519   8.730
12803SOL     OW40305   0.109   2.486   8.112
12803SOL    HW140306   0.129   2.414   8.053
12803SOL    HW240307   0.014   2.493   8.110
12804SOL     OW40308   1.138   0.142   1.069
12804SOL    HW140309   1.076   0.177   1.006
12804SOL    HW240310   1.112   0.051   1.080
12805SOL     OW40311   8.183   0.595  11.605
12805SOL    HW140312   8.254   0.629  11.658
12805SOL    HW240313   8.215   0.511  11.573
12806SOL     OW40314   0.712  10.623   8.676
12806SOL    HW140315   0.620  10.614   8.700
12806SOL    HW240316   0.752  10.670   8.749
12807SOL     OW40317   7.800  14.843   6.582
12807SOL    HW140318   7.727  14.794   6.621
12807SOL    HW240319   7.835  14.785   6.515
12808SOL     OW40320   7.209   3.350   4.445
12808SOL    HW140321   7.268   3.354   4.370
12808SOL    HW240322   7.210   3.258   4.471
12809SOL     OW40323  11.239   5.089   6.767
12809SOL    HW140324  11.258   4.999   6.743
12809SOL    HW240325  11.151   5.106   6.731
12810SOL     OW40326   2.456   6.807  13.372
12810SOL    HW140327   2.506   6.888  13.363
12810SOL    HW240328   2.496   6.747  13.309
12811SOL     OW40329   1.576   1.925   7.812
12811SOL    HW140330   1.633   1.872   7.757
12811SOL    HW240331   1.525   1.861   7.862
12812SOL     OW40332   9.829  11.612  14.441
12812SOL    HW140333   9.870  11.557  14.508
12812SOL    HW240334   9.735  11.605  14.459
12813SOL     OW40335   9.859   9.980   9.822
12813SOL    HW140336   9.918   9.920   9.867
12813SOL    HW240337   9.785   9.926   9.796
12814SOL     OW40338   8.482  12.375  13.127
12814SOL    HW140339   8.548  12.443  13.115
12814SOL    HW240340   8.494  12.315  13.053
12815SOL     OW40341  14.001   9.255   8.610
12815SOL    HW140342  13.983   9.194   8.538
12815SOL    HW240343  13.920   9.306   8.619
12816SOL     OW40344   3.446  11.292   0.758
12816SOL    HW140345   3.423  11.254   0.843
12816SOL    HW240346   3.371  11.270   0.702
12817SOL     OW40347   2.713  11.374   9.699
12817SOL    HW140348   2.658  11.367   9.777
12817SOL    HW240349   2.751  11.287   9.688
12818SOL     OW40350   4.040   3.071   2.135
12818SOL    HW140351   4.063   3.083   2.043
12818SOL    HW240352   4.122   3.086   2.183
12819SOL     OW40353   7.489  14.142  13.655
12819SOL    HW140354   7.411  14.098  13.620
12819SOL    HW240355   7.457  14.226  13.686
12820SOL     OW40356  11.158   8.225   6.345
12820SOL    HW140357  11.248   8.238   6.314
12820SOL    HW240358  11.156   8.266   6.432
12821SOL     OW40359   5.132   3.656   8.031
12821SOL    HW140360   5.195   3.711   8.078
12821SOL    HW240361   5.180   3.624   7.954
12822SOL     OW40362  11.730   1.319   4.802
12822SOL    HW140363  11.754   1.407   4.829
12822SOL    HW240364  11.684   1.330   4.719
12823SOL     OW40365   1.452   4.017   2.599
12823SOL    HW140366   1.503   3.977   2.529
12823SOL    HW240367   1.424   3.943   2.654
12824SOL     OW40368  13.960   7.282   6.668
12824SOL    HW140369  13.993   7.357   6.718
12824SOL    HW240370  14.009   7.285   6.585
12825SOL     OW40371   2.823   6.845   8.735
12825SOL    HW140372   2.788   6.900   8.805
12825SOL    HW240373   2.830   6.903   8.660
12826SOL     OW40374   4.079   2.795   0.874
12826SOL    HW140375   4.012   2.855   0.841
12826SOL    HW240376   4.096   2.826   0.963
12827SOL     OW40377   9.583  14.453   5.182
12827SOL    HW140378   9.553  14.381   5.238
12827SOL    HW240379   9.663  14.420   5.142
12828SOL     OW40380  14.142   4.673  14.621
12828SOL    HW140381  14.203   4.724  14.567
12828SOL    HW240382  14.193   4.597  14.650
12829SOL     OW40383  12.998   7.124  11.672
12829SOL    HW140384  13.068   7.149  11.733
12829SOL    HW240385  12.957   7.048  11.714
12830SOL     OW40386   9.643   4.663   7.835
12830SOL    HW140387   9.618   4.584   7.786
12830SOL    HW240388   9.571   4.724   7.820
12831SOL     OW40389   3.410   3.604  10.187
12831SOL    HW140390   3.396   3.513  10.213
12831SOL    HW240391   3.470   3.598  10.113
12832SOL     OW40392   9.028  13.545   2.033
12832SOL    HW140393   8.954  13.489   2.056
12832SOL    HW240394   9.094  13.484   1.999
12833SOL     OW40395   0.738   9.000  11.387
12833SOL    HW140396   0.785   9.077  11.419
12833SOL    HW240397   0.777   8.982  11.302
12834SOL     OW40398   4.711   3.182  14.011
12834SOL    HW140399   4.696   3.138  14.095
12834SOL    HW240400   4.778   3.248  14.031
12835SOL     OW40401  14.716  13.635   9.212
12835SOL    HW140402  14.626  13.664   9.225
12835SOL    HW240403  14.762  13.665   9.290
12836SOL     OW40404  12.331   0.623   3.492
12836SOL    HW140405  12.270   0.561   3.453
12836SOL    HW240406  12.288   0.708   3.484
12837SOL     OW40407  11.982   6.375  12.176
12837SOL    HW140408  11.896   6.412  12.157
12837SOL    HW240409  11.981   6.289  12.134
12838SOL     OW40410   9.005  11.420   4.289
12838SOL    HW140411   8.965  11.336   4.314
12838SOL    HW240412   9.014  11.467   4.372
12839SOL     OW40413   7.305   3.465   0.247
12839SOL    HW140414   7.300   3.392   0.186
12839SOL    HW240415   7.215   3.496   0.255
12840SOL     OW40416   3.613   3.303   0.115
12840SOL    HW140417   3.523   3.292   0.084
12840SOL    HW240418   3.646   3.214   0.125
12841SOL     OW40419  11.931   0.656  11.659
12841SOL    HW140420  11.948   0.562  11.657
12841SOL    HW240421  12.005   0.692  11.708
12842SOL     OW40422   5.905   5.166   6.909
12842SOL    HW140423   5.994   5.194   6.886
12842SOL    HW240424   5.862   5.153   6.825
12843SOL     OW40425   8.917   1.436   0.084
12843SOL    HW140426   8.962   1.516   0.056
12843SOL    HW240427   8.972   1.402   0.155
12844SOL     OW40428  13.692   0.621   8.179
12844SOL    HW140429  13.607   0.630   8.222
12844SOL    HW240430  13.756   0.638   8.248
12845SOL     OW40431  10.741   3.671  11.172
12845SOL    HW140432  10.729   3.693  11.264
12845SOL    HW240433  10.755   3.755  11.129
12846SOL     OW40434   0.994   5.972   9.487
12846SOL    HW140435   0.988   5.992   9.580
12846SOL    HW240436   1.064   5.908   9.481
12847SOL     OW40437  10.627   2.836   3.447
12847SOL    HW140438  10.601   2.927   3.431
12847SOL    HW240439  10.545   2.787   3.447
12848SOL     OW40440  14.126  14.490  14.825
12848SOL    HW140441  14.152  14.532   0.025
12848SOL    HW240442  14.095  14.404  14.851
12849SOL     OW40443  13.443  14.448   9.466
12849SOL    HW140444  13.534  14.422   9.477
12849SOL    HW240445  13.422  14.496   9.547
12850SOL     OW40446   7.902   5.357   2.517
12850SOL    HW140447   7.933   5.277   2.472
12850SOL    HW240448   7.981   5.394   2.556
12851SOL     OW40449  12.864  12.112   3.853
12851SOL    HW140450  12.803  12.180   3.884
12851SOL    HW240451  12.934  12.112   3.918
12852SOL     OW40452   7.420  12.742   4.641
12852SOL    HW140453   7.464  12.668   4.598
12852SOL    HW240454   7.464  12.749   4.726
12853SOL     OW40455   7.650  14.590   7.989
12853SOL    HW140456   7.741  14.562   7.972
12853SOL    HW240457   7.597  14.530   7.937
12854SOL     OW40458   9.074  10.486   2.164
12854SOL    HW140459   9.128  10.484   2.086
12854SOL    HW240460   8.995  10.437   2.140
12855SOL     OW40461  12.761   0.561   3.917
12855SOL    HW140462  12.826   0.534   3.981
12855SOL    HW240463  12.779   0.654   3.902
12856SOL     OW40464   3.864  12.625   4.165
12856SOL    HW140465   3.803  12.557   4.193
12856SOL    HW240466   3.850  12.697   4.227
12857SOL     OW40467   7.666  11.200  10.849
12857SOL    HW140468   7.612  11.121  10.839
12857SOL    HW240469   7.641  11.255  10.775
12858SOL     OW40470   3.575  10.638   9.842
12858SOL    HW140471   3.574  10.708   9.777
12858SOL    HW240472   3.537  10.678   9.921
12859SOL     OW40473   4.722  14.052  12.230
12859SOL    HW140474   4.679  14.116  12.173
12859SOL    HW240475   4.662  14.042  12.303
12860SOL     OW40476   6.705   6.265   5.796
12860SOL    HW140477   6.768   6.193   5.794
12860SOL    HW240478   6.656   6.256   5.715
12861SOL     OW40479   2.483   3.669   3.649
12861SOL    HW140480   2.534   3.592   3.672
12861SOL    HW240481   2.527   3.741   3.694
12862SOL     OW40482   1.265   4.115   5.293
12862SOL    HW140483   1.355   4.121   5.325
12862SOL    HW240484   1.274   4.091   5.200
12863SOL     OW40485  14.314   8.781  14.065
12863SOL    HW140486  14.356   8.789  13.980
12863SOL    HW240487  14.380   8.739  14.121
12864SOL     OW40488  12.107   2.862  10.545
12864SOL    HW140489  12.106   2.938  10.487
12864SOL    HW240490  12.200   2.843  10.557
12865SOL     OW40491   6.279   7.560   2.986
12865SOL    HW140492   6.272   7.465   2.975
12865SOL    HW240493   6.299   7.572   3.079
12866SOL     OW40494   8.256   8.089   9.977
12866SOL    HW140495   8.267   8.029  10.052
12866SOL    HW240496   8.179   8.056   9.932
12867SOL     OW40497   1.004  11.925   8.070
12867SOL    HW140498   1.011  11.856   8.005
12867SOL    HW240499   0.919  11.911   8.111
12868SOL     OW40500   5.064   5.855   2.727
12868SOL    HW140501   5.126   5.926   2.745
12868SOL    HW240502   5.092   5.820   2.643
12869SOL     OW40503   6.256   3.182   5.836
12869SOL    HW140504   6.239   3.105   5.782
12869SOL    HW240505   6.342   3.167   5.873
12870SOL     OW40506  12.963   9.708   8.379
12870SOL    HW140507  13.030   9.751   8.432
12870SOL    HW240508  12.887   9.765   8.386
12871SOL     OW40509   4.867   1.838   2.711
12871SOL    HW140510   4.798   1.889   2.753
12871SOL    HW240511   4.878   1.761   2.767
12872SOL     OW40512   6.947  14.115  11.168
12872SOL    HW140513   6.926  14.104  11.260
12872SOL    HW240514   6.869  14.085  11.121
12873SOL     OW40515   1.474   3.452   9.120
12873SOL    HW140516   1.421   3.419   9.048
12873SOL    HW240517   1.479   3.379   9.182
12874SOL     OW40518   2.571   5.718   7.152
12874SOL    HW140519   2.592   5.807   7.122
12874SOL    HW240520   2.546   5.672   7.072
12875SOL     OW40521   5.367   2.365   6.662
12875SOL    HW140522   5.304   2.376   6.591
12875SOL    HW240523   5.320   2.316   6.729
12876SOL     OW40524  10.587   1.138  14.213
12876SOL    HW140525  10.641   1.187  14.152
12876SOL    HW240526  10.550   1.067  14.162
12877SOL     OW40527  12.589  10.853   7.283
12877SOL    HW140528  12.511  10.853   7.228
12877SOL    HW240529  12.635  10.773   7.258
12878SOL     OW40530  14.376   8.800   3.599
12878SOL    HW140531  14.360   8.722   3.546
12878SOL    HW240532  14.471   8.813   3.594
12879SOL     OW40533   2.630   8.500  10.052
12879SOL    HW140534   2.589   8.566   9.996
12879SOL    HW240535   2.636   8.422   9.997
12880SOL     OW40536   7.834   7.353   7.771
12880SOL    HW140537   7.857   7.317   7.686
12880SOL    HW240538   7.754   7.403   7.755
12881SOL     OW40539  10.018  11.486  13.900
12881SOL    HW140540   9.959  11.475  13.826
12881SOL    HW240541   9.974  11.549  13.958
12882SOL     OW40542   5.208  14.287  10.426
12882SOL    HW140543   5.287  14.340  10.440
12882SOL    HW240544   5.178  14.312  10.339
12883SOL     OW40545  11.813  14.785   1.602
12883SOL    HW140546  11.905  14.781   1.576
12883SOL    HW240547  11.812  14.849   1.673
12884SOL     OW40548   2.006   5.244   4.763
12884SOL    HW140549   1.950   5.170   4.789
12884SOL    HW240550   2.028   5.226   4.672
12885SOL     OW40551   5.252  12.870  10.834
12885SOL    HW140552   5.205  12.916  10.765
12885SOL    HW240553   5.340  12.858  10.800
12886SOL     OW40554   2.581   7.979   2.344
12886SOL    HW140555   2.561   8.028   2.265
12886SOL    HW240556   2.547   8.032   2.415
12887SOL     OW40557  12.941   2.147   6.522
12887SOL    HW140558  12.913   2.056   6.533
12887SOL    HW240559  12.916   2.189   6.605
12888SOL     OW40560  14.582  12.303   0.349
12888SOL    HW140561  14.522  12.252   0.294
12888SOL    HW240562  14.558  12.394   0.332
12889SOL     OW40563  12.405   9.869   0.750
12889SOL    HW140564  12.450   9.941   0.792
12889SOL    HW240565  12.377   9.904   0.665
12890SOL     OW40566   9.639   8.418   9.115
12890SOL    HW140567   9.583   8.450   9.186
12890SOL    HW240568   9.724   8.459   9.131
12891SOL     OW40569  14.367   6.314   4.591
12891SOL    HW140570  14.380   6.399   4.550
12891SOL    HW240571  14.323   6.261   4.525
12892SOL     OW40572   3.812  10.911  13.764
12892SOL    HW140573   3.846  10.928  13.676
12892SOL    HW240574   3.725  10.873  13.749
12893SOL     OW40575   0.558   1.476   7.012
12893SOL    HW140576   0.543   1.410   7.080
12893SOL    HW240577   0.607   1.545   7.057
12894SOL     OW40578   3.222   9.685  10.917
12894SOL    HW140579   3.230   9.756  10.854
12894SOL    HW240580   3.284   9.619  10.887
12895SOL     OW40581  14.226  13.840  10.110
12895SOL    HW140582  14.131  13.846  10.122
12895SOL    HW240583  14.245  13.903  10.040
12896SOL     OW40584   7.501  14.565   2.770
12896SOL    HW140585   7.495  14.483   2.722
12896SOL    HW240586   7.464  14.546   2.856
12897SOL     OW40587   9.688   6.353   3.101
12897SOL    HW140588   9.677   6.445   3.125
12897SOL    HW240589   9.657   6.347   3.011
12898SOL     OW40590   4.636   7.585  14.195
12898SOL    HW140591   4.724   7.559  14.170
12898SOL    HW240592   4.623   7.670  14.152
12899SOL     OW40593  10.277   3.443  14.280
12899SOL    HW140594  10.304   3.430  14.189
12899SOL    HW240595  10.231   3.527  14.279
12900SOL     OW40596  12.434   8.677   1.891
12900SOL    HW140597  12.514   8.640   1.928
12900SOL    HW240598  12.448   8.677   1.796
12901SOL     OW40599   8.163   6.765   6.777
12901SOL    HW140600   8.253   6.779   6.808
12901SOL    HW240601   8.162   6.674   6.749
12902SOL     OW40602  10.281   4.363  14.551
12902SOL    HW140603  10.366   4.403  14.532
12902SOL    HW240604  10.301   4.272  14.571
12903SOL     OW40605  13.009   2.156   4.677
12903SOL    HW140606  12.965   2.072   4.661
12903SOL    HW240607  13.064   2.169   4.600
12904SOL     OW40608   8.670   5.760   5.257
12904SOL    HW140609   8.646   5.806   5.338
12904SOL    HW240610   8.720   5.823   5.207
12905SOL     OW40611  10.043   5.118   9.409
12905SOL    HW140612  10.121   5.174   9.411
12905SOL    HW240613   9.993   5.150   9.334
12906SOL     OW40614  12.812  11.490  10.555
12906SOL    HW140615  12.879  11.470  10.490
12906SOL    HW240616  12.817  11.584  10.567
12907SOL     OW40617   4.924   3.204  11.761
12907SOL    HW140618   4.929   3.109  11.757
12907SOL    HW240619   4.990   3.228  11.827
12908SOL     OW40620   1.341   5.412   3.696
12908SOL    HW140621   1.365   5.320   3.706
12908SOL    HW240622   1.285   5.413   3.619
12909SOL     OW40623   5.021   6.575  10.404
12909SOL    HW140624   5.021   6.585  10.500
12909SOL    HW240625   4.946   6.627  10.375
12910SOL     OW40626   3.789  10.615   6.033
12910SOL    HW140627   3.819  10.561   5.960
12910SOL    HW240628   3.743  10.555   6.091
12911SOL     OW40629   5.499   4.686  13.479
12911SOL    HW140630   5.410   4.715  13.497
12911SOL    HW240631   5.545   4.766  13.452
12912SOL     OW40632   9.051   3.103   9.338
12912SOL    HW140633   9.143   3.093   9.364
12912SOL    HW240634   9.053   3.160   9.262
12913SOL     OW40635  11.366  10.435   0.491
12913SOL    HW140636  11.344  10.364   0.552
12913SOL    HW240637  11.310  10.508   0.518
12914SOL     OW40638   1.423   3.968   0.578
12914SOL    HW140639   1.513   3.960   0.548
12914SOL    HW240640   1.372   3.917   0.515
12915SOL     OW40641   1.609   0.733   2.160
12915SOL    HW140642   1.674   0.682   2.113
12915SOL    HW240643   1.649   0.819   2.171
12916SOL     OW40644  11.871  10.566   8.815
12916SOL    HW140645  11.896  10.566   8.722
12916SOL    HW240646  11.855  10.473   8.834
12917SOL     OW40647   0.894  11.583   6.397
12917SOL    HW140648   0.941  11.654   6.355
12917SOL    HW240649   0.811  11.578   6.349
12918SOL     OW40650   4.731  12.981   7.693
12918SOL    HW140651   4.747  12.944   7.780
12918SOL    HW240652   4.729  13.076   7.707
12919SOL     OW40653   3.730   1.095   0.672
12919SOL    HW140654   3.692   1.065   0.589
12919SOL    HW240655   3.817   1.127   0.648
12920SOL     OW40656   1.060   9.086   7.443
12920SOL    HW140657   1.115   9.149   7.490
12920SOL    HW240658   1.077   9.002   7.487
12921SOL     OW40659  12.154  13.523   4.458
12921SOL    HW140660  12.230  13.538   4.514
12921SOL    HW240661  12.178  13.447   4.405
12922SOL     OW40662  10.262   9.628   8.666
12922SOL    HW140663  10.227   9.718   8.663
12922SOL    HW240664  10.204   9.578   8.609
12923SOL     OW40665  10.967   2.728   9.879
12923SOL    HW140666  11.006   2.719   9.792
12923SOL    HW240667  10.876   2.756   9.861
12924SOL     OW40668  14.012   1.038   0.237
12924SOL    HW140669  13.980   1.127   0.220
12924SOL    HW240670  13.944   0.998   0.291
12925SOL     OW40671   9.687  12.024   1.979
12925SOL    HW140672   9.717  11.934   1.965
12925SOL    HW240673   9.725  12.074   1.907
12926SOL     OW40674   7.929   0.740   7.597
12926SOL    HW140675   7.853   0.763   7.650
12926SOL    HW240676   7.897   0.742   7.507
12927SOL     OW40677   8.673   6.195  13.244
12927SOL    HW140678   8.715   6.279  13.225
12927SOL    HW240679   8.724   6.132  13.194
12928SOL     OW40680   3.227   8.874  13.472
12928SOL    HW140681   3.271   8.791  13.454
12928SOL    HW240682   3.265   8.904  13.555
12929SOL     OW40683  11.241  11.609   5.434
12929SOL    HW140684  11.157  11.643   5.464
12929SOL    HW240685  11.268  11.669   5.365
12930SOL     OW40686   8.513  11.092  13.203
12930SOL    HW140687   8.576  11.142  13.151
12930SOL    HW240688   8.468  11.158  13.257
12931SOL     OW40689   0.741  11.855   6.515
12931SOL    HW140690   0.743  11.929   6.456
12931SOL    HW240691   0.780  11.783   6.465
12932SOL     OW40692  13.836   0.279   3.182
12932SOL    HW140693  13.896   0.252   3.112
12932SOL    HW240694  13.880   0.353   3.224
12933SOL     OW40695   6.590   5.212   4.532
12933SOL    HW140696   6.547   5.175   4.610
12933SOL    HW240697   6.570   5.150   4.462
12934SOL     OW40698  13.842  12.215   5.991
12934SOL    HW140699  13.834  12.297   6.039
12934SOL    HW240700  13.884  12.155   6.052
12935SOL     OW40701   8.612   8.541   6.453
12935SOL    HW140702   8.605   8.571   6.544
12935SOL    HW240703   8.534   8.576   6.410
12936SOL     OW40704   3.535  12.600   9.920
12936SOL    HW140705   3.525  12.633  10.009
12936SOL    HW240706   3.515  12.507   9.926
12937SOL     OW40707   6.776  12.585   3.103
12937SOL    HW140708   6.693  12.605   3.059
12937SOL    HW240709   6.805  12.670   3.138
12938SOL     OW40710   1.246   0.101   0.178
12938SOL    HW140711   1.155   0.097   0.209
12938SOL    HW240712   1.274   0.190   0.200
12939SOL     OW40713   6.099   6.820   6.943
12939SOL    HW140714   6.025   6.863   6.986
12939SOL    HW240715   6.090   6.728   6.965
12940SOL     OW40716   7.644   3.111  13.888
12940SOL    HW140717   7.589   3.066  13.952
12940SOL    HW240718   7.645   3.202  13.916
12941SOL     OW40719   7.515   2.123   4.751
12941SOL    HW140720   7.564   2.204   4.745
12941SOL    HW240721   7.570   2.066   4.806
12942SOL     OW40722   8.879   2.223  10.697
12942SOL    HW140723   8.868   2.166  10.621
12942SOL    HW240724   8.792   2.230  10.735
12943SOL     OW40725   5.466   0.585   8.767
12943SOL    HW140726   5.502   0.512   8.717
12943SOL    HW240727   5.530   0.603   8.835
12944SOL     OW40728   4.557   0.749  14.578
12944SOL    HW140729   4.474   0.751  14.531
12944SOL    HW240730   4.590   0.839  14.572
12945SOL     OW40731   5.940   4.697   9.980
12945SOL    HW140732   6.006   4.661  10.039
12945SOL    HW240733   5.989   4.748   9.917
12946SOL     OW40734   7.501  10.730   6.600
12946SOL    HW140735   7.458  10.707   6.518
12946SOL    HW240736   7.528  10.821   6.588
12947SOL     OW40737   5.065   0.758   3.321
12947SOL    HW140738   5.065   0.786   3.229
12947SOL    HW240739   5.157   0.752   3.345
12948SOL     OW40740   7.001  14.772  11.820
12948SOL    HW140741   6.916  14.738  11.794
12948SOL    HW240742   7.044  14.795  11.738
12949SOL     OW40743  12.829  14.869   5.631
12949SOL    HW140744  12.774  14.816   5.573
12949SOL    HW240745  12.772   0.059   5.658
12950SOL     OW40746  10.390  14.869  12.903
12950SOL    HW140747  10.314   0.042  12.886
12950SOL    HW240748  10.370  14.787  12.858
12951SOL     OW40749   4.587   9.892  12.654
12951SOL    HW140750   4.530   9.926  12.723
12951SOL    HW240751   4.609   9.968  12.602
12952SOL     OW40752   9.302  10.285   0.523
12952SOL    HW140753   9.216  10.325   0.533
12952SOL    HW240754   9.306  10.258   0.431
12953SOL     OW40755   1.320   2.824   1.753
12953SOL    HW140756   1.398   2.797   1.705
12953SOL    HW240757   1.286   2.743   1.792
12954SOL     OW40758   6.675   0.395  11.071
12954SOL    HW140759   6.757   0.432  11.104
12954SOL    HW240760   6.665   0.433  10.984
12955SOL     OW40761  12.644   4.779  10.946
12955SOL    HW140762  12.608   4.771  10.858
12955SOL    HW240763  12.721   4.835  10.935
12956SOL     OW40764   5.330   4.399   6.244
12956SOL    HW140765   5.414   4.391   6.290
12956SOL    HW240766   5.285   4.470   6.290
12957SOL     OW40767   9.652   5.329   2.539
12957SOL    HW140768   9.708   5.283   2.475
12957SOL    HW240769   9.582   5.267   2.558
12958SOL     OW40770   9.795   4.519   6.344
12958SOL    HW140771   9.731   4.582   6.379
12958SOL    HW240772   9.858   4.507   6.415
12959SOL     OW40773  14.580   1.351   0.620
12959SOL    HW140774  14.565   1.300   0.541
12959SOL    HW240775  14.500   1.402   0.631
12960SOL     OW40776  14.633  10.897   1.751
12960SOL    HW140777  14.678  10.867   1.672
12960SOL    HW240778  14.679  10.977   1.777
12961SOL     OW40779  12.166   0.407   8.910
12961SOL    HW140780  12.099   0.472   8.931
12961SOL    HW240781  12.142   0.376   8.822
12962SOL     OW40782   5.803   6.746   2.867
12962SOL    HW140783   5.719   6.782   2.838
12962SOL    HW240784   5.817   6.783   2.954
12963SOL     OW40785   3.427   5.755   3.627
12963SOL    HW140786   3.372   5.754   3.706
12963SOL    HW240787   3.364   5.745   3.555
12964SOL     OW40788  13.693   9.187   2.064
12964SOL    HW140789  13.643   9.108   2.044
12964SOL    HW240790  13.636   9.238   2.121
12965SOL     OW40791   6.759   6.491  13.569
12965SOL    HW140792   6.692   6.426  13.590
12965SOL    HW240793   6.746   6.509  13.475
12966SOL     OW40794   0.248   5.414   1.708
12966SOL    HW140795   0.236   5.320   1.721
12966SOL    HW240796   0.339   5.431   1.729
12967SOL     OW40797  13.523   6.003   2.734
12967SOL    HW140798  13.545   6.079   2.788
12967SOL    HW240799  13.558   5.928   2.783
12968SOL     OW40800   0.544   9.398   5.981
12968SOL    HW140801   0.477   9.333   6.003
12968SOL    HW240802   0.524   9.472   6.037
12969SOL     OW40803   2.986  10.814  10.131
12969SOL    HW140804   3.007  10.807  10.038
12969SOL    HW240805   2.963  10.725  10.158
12970SOL     OW40806  14.045  14.544  14.188
12970SOL    HW140807  14.041  14.482  14.261
12970SOL    HW240808  13.970  14.601  14.201
12971SOL     OW40809  14.073   2.916   9.595
12971SOL    HW140810  14.101   2.833   9.556
12971SOL    HW240811  14.097   2.983   9.531
12972SOL     OW40812  11.784   6.892   0.593
12972SOL    HW140813  11.825   6.806   0.603
12972SOL    HW240814  11.728   6.901   0.671
12973SOL     OW40815  12.731  12.098  12.250
12973SOL    HW140816  12.636  12.085  12.240
12973SOL    HW240817  12.751  12.059  12.335
12974SOL     OW40818  11.777   5.128   2.472
12974SOL    HW140819  11.796   5.160   2.384
12974SOL    HW240820  11.685   5.100   2.468
12975SOL     OW40821   7.221   2.060   8.207
12975SOL    HW140822   7.135   2.085   8.242
12975SOL    HW240823   7.202   1.982   8.154
12976SOL     OW40824   6.028  13.779   3.300
12976SOL    HW140825   6.101  13.750   3.245
12976SOL    HW240826   6.006  13.866   3.265
12977SOL     OW40827   8.190  14.509   5.159
12977SOL    HW140828   8.198  14.600   5.188
12977SOL    HW240829   8.128  14.512   5.086
12978SOL     OW40830   0.582   4.467  12.993
12978SOL    HW140831   0.532   4.430  13.066
12978SOL    HW240832   0.535   4.547  12.970
12979SOL     OW40833  11.657   5.497   0.741
12979SOL    HW140834  11.721   5.449   0.689
12979SOL    HW240835  11.622   5.563   0.681
12980SOL     OW40836   3.605   3.121   3.977
12980SOL    HW140837   3.676   3.062   3.952
12980SOL    HW240838   3.593   3.178   3.901
12981SOL     OW40839   1.863   0.194  10.376
12981SOL    HW140840   1.820   0.156  10.453
12981SOL    HW240841   1.812   0.272  10.356
12982SOL     OW40842   9.660   1.711   0.520
12982SOL    HW140843   9.683   1.772   0.450
12982SOL    HW240844   9.645   1.767   0.596
12983SOL     OW40845  10.707   9.188   4.230
12983SOL    HW140846  10.724   9.258   4.167
12983SOL    HW240847  10.763   9.116   4.201
12984SOL     OW40848  14.731  10.091   5.092
12984SOL    HW140849  14.663  10.151   5.061
12984SOL    HW240850  14.732  10.105   5.187
12985SOL     OW40851   8.398   5.068  13.370
12985SOL    HW140852   8.318   5.028  13.336
12985SOL    HW240853   8.375   5.160  13.384
12986SOL     OW40854   9.596  14.377   0.836
12986SOL    HW140855   9.588  14.286   0.866
12986SOL    HW240856   9.604  14.429   0.916
12987SOL     OW40857   6.929   2.301  12.601
12987SOL    HW140858   6.911   2.240  12.673
12987SOL    HW240859   6.854   2.361  12.601
12988SOL     OW40860  11.954   7.395  11.855
12988SOL    HW140861  12.030   7.433  11.899
12988SOL    HW240862  11.879   7.429  11.903
12989SOL     OW40863   7.756   3.891   3.349
12989SOL    HW140864   7.791   3.961   3.404
12989SOL    HW240865   7.828   3.830   3.338
12990SOL     OW40866   0.419   4.231   7.217
12990SOL    HW140867   0.468   4.222   7.298
12990SOL    HW240868   0.418   4.325   7.200
12991SOL     OW40869   9.335  13.379   2.177
12991SOL    HW140870   9.347  13.460   2.228
12991SOL    HW240871   9.297  13.317   2.239
12992SOL     OW40872   4.980   1.837   3.531
12992SOL    HW140873   5.013   1.758   3.575
12992SOL    HW240874   4.908   1.867   3.586
12993SOL     OW40875   5.900   8.830  10.714
12993SOL    HW140876   5.953   8.806  10.790
12993SOL    HW240877   5.814   8.851  10.750
12994SOL     OW40878   5.693  11.778  10.349
12994SOL    HW140879   5.703  11.843  10.279
12994SOL    HW240880   5.598  11.772  10.363
12995SOL     OW40881   8.711   2.234   9.237
12995SOL    HW140882   8.751   2.273   9.160
12995SOL    HW240883   8.745   2.286   9.310
12996SOL     OW40884   4.761  12.597   3.615
12996SOL    HW140885   4.706  12.557   3.682
12996SOL    HW240886   4.786  12.524   3.558
12997SOL     OW40887  10.919   2.271   2.909
12997SOL    HW140888  10.953   2.211   2.843
12997SOL    HW240889  10.899   2.215   2.984
12998SOL     OW40890   1.130   7.545  13.010
12998SOL    HW140891   1.210   7.564  13.059
12998SOL    HW240892   1.123   7.617  12.947
12999SOL     OW40893  10.558   7.333   9.139
12999SOL    HW140894  10.633   7.391   9.123
12999SOL    HW240895  10.482   7.387   9.119
13000SOL     OW40896   6.118   5.165  10.753
13000SOL    HW140897   6.051   5.099  10.772
13000SOL    HW240898   6.078   5.248  10.778
13001SOL     OW40899  10.447   3.257   3.582
13001SOL    HW140900  10.533   3.235   3.619
13001SOL    HW240901  10.425   3.342   3.622
13002SOL     OW40902   8.662   4.709  13.200
13002SOL    HW140903   8.665   4.662  13.117
13002SOL    HW240904   8.650   4.801  13.174
13003SOL     OW40905  14.573   9.222   9.580
13003SOL    HW140906  14.629   9.300   9.574
13003SOL    HW240907  14.578   9.183   9.492
13004SOL     OW40908   5.491  13.349  14.303
13004SOL    HW140909   5.489  13.351  14.399
13004SOL    HW240910   5.412  13.395  14.276
13005SOL     OW40911  10.001   9.123  11.136
13005SOL    HW140912   9.963   9.085  11.215
13005SOL    HW240913  10.024   9.047  11.082
13006SOL     OW40914   9.974  12.328   8.435
13006SOL    HW140915  10.011  12.404   8.479
13006SOL    HW240916  10.047  12.267   8.427
13007SOL     OW40917   3.009   6.301   9.229
13007SOL    HW140918   3.099   6.328   9.246
13007SOL    HW240919   2.982   6.254   9.307
13008SOL     OW40920   8.614  11.074   3.433
13008SOL    HW140921   8.681  11.022   3.390
13008SOL    HW240922   8.538  11.067   3.375
13009SOL     OW40923   4.724   5.255  12.322
13009SOL    HW140924   4.673   5.322  12.368
13009SOL    HW240925   4.798   5.238  12.380
13010SOL     OW40926   0.142   8.103   3.176
13010SOL    HW140927   0.143   8.194   3.203
13010SOL    HW240928   0.069   8.064   3.226
13011SOL     OW40929   0.328   2.512  13.786
13011SOL    HW140930   0.304   2.437  13.839
13011SOL    HW240931   0.320   2.482  13.696
13012SOL     OW40932   3.702  10.002   7.695
13012SOL    HW140933   3.693  10.094   7.720
13012SOL    HW240934   3.643   9.956   7.754
13013SOL     OW40935   2.638   1.891   8.611
13013SOL    HW140936   2.627   1.920   8.520
13013SOL    HW240937   2.589   1.954   8.663
13014SOL     OW40938   4.270   2.097   1.715
13014SOL    HW140939   4.336   2.130   1.654
13014SOL    HW240940   4.271   2.159   1.788
13015SOL     OW40941   0.329   8.909  13.978
13015SOL    HW140942   0.408   8.953  13.946
13015SOL    HW240943   0.362   8.839  14.035
13016SOL     OW40944   0.057   6.082  11.328
13016SOL    HW140945   0.117   6.066  11.255
13016SOL    HW240946  14.854   6.093  11.285
13017SOL     OW40947  13.468   7.581  10.364
13017SOL    HW140948  13.525   7.649  10.399
13017SOL    HW240949  13.503   7.500  10.399
13018SOL     OW40950   9.654  12.146  13.816
13018SOL    HW140951   9.666  12.086  13.890
13018SOL    HW240952   9.578  12.198  13.839
13019SOL     OW40953  14.780   8.762   6.337
13019SOL    HW140954  14.685   8.761   6.345
13019SOL    HW240955  14.810   8.698   6.402
13020SOL     OW40956   4.101  11.421   3.073
13020SOL    HW140957   4.133  11.446   3.160
13020SOL    HW240958   4.178  11.387   3.028
13021SOL     OW40959   9.402  12.959  11.315
13021SOL    HW140960   9.327  13.018  11.307
13021SOL    HW240961   9.384  12.889  11.252
13022SOL     OW40962  11.440   6.742   5.101
13022SOL    HW140963  11.386   6.686   5.045
13022SOL    HW240964  11.432   6.703   5.188
13023SOL     OW40965   8.911   8.388   9.667
13023SOL    HW140966   8.949   8.333   9.598
13023SOL    HW240967   8.817   8.373   9.661
13024SOL     OW40968   0.336   8.796  10.241
13024SOL    HW140969   0.393   8.822  10.314
13024SOL    HW240970   0.248   8.822  10.270
13025SOL     OW40971  14.119   3.471   3.146
13025SOL    HW140972  14.093   3.489   3.236
13025SOL    HW240973  14.075   3.539   3.095
13026SOL     OW40974   3.168   1.357  11.105
13026SOL    HW140975   3.084   1.349  11.150
13026SOL    HW240976   3.233   1.334  11.171
13027SOL     OW40977   7.296   6.090   5.407
13027SOL    HW140978   7.370   6.031   5.422
13027SOL    HW240979   7.327   6.151   5.341
13028SOL     OW40980  12.694   2.776   1.067
13028SOL    HW140981  12.618   2.801   1.014
13028SOL    HW240982  12.750   2.854   1.068
13029SOL     OW40983   5.193  13.646   2.879
13029SOL    HW140984   5.123  13.628   2.942
13029SOL    HW240985   5.148  13.656   2.795
13030SOL     OW40986  14.469   7.271   6.789
13030SOL    HW140987  14.555   7.293   6.825
13030SOL    HW240988  14.488   7.209   6.718
13031SOL     OW40989  12.421  12.192   4.436
13031SOL    HW140990  12.464  12.122   4.387
13031SOL    HW240991  12.426  12.268   4.378
13032SOL     OW40992   0.657   0.687  13.688
13032SOL    HW140993   0.699   0.771  13.704
13032SOL    HW240994   0.667   0.672  13.594
13033SOL     OW40995  14.123   9.563  12.526
13033SOL    HW140996  14.186   9.634  12.521
13033SOL    HW240997  14.132   9.528  12.614
13034SOL     OW40998   8.150   5.378   7.230
13034SOL    HW140999   8.140   5.367   7.135
13034SOL    HW241000   8.070   5.341   7.267
13035SOL     OW41001   9.792  10.999   6.798
13035SOL    HW141002   9.877  10.991   6.755
13035SOL    HW241003   9.778  11.093   6.808
13036SOL     OW41004   3.677   9.758  12.198
13036SOL    HW141005   3.743   9.756  12.267
13036SOL    HW241006   3.644   9.848  12.199
13037SOL     OW41007   1.672   3.871   7.457
13037SOL    HW141008   1.718   3.954   7.444
13037SOL    HW241009   1.607   3.869   7.386
13038SOL     OW41010   3.358   6.544   5.748
13038SOL    HW141011   3.394   6.622   5.791
13038SOL    HW241012   3.416   6.473   5.774
13039SOL     OW41013   9.601   9.426   2.878
13039SOL    HW141014   9.522   9.479   2.864
13039SOL    HW241015   9.673   9.481   2.848
13040SOL     OW41016   3.194   6.735  12.768
13040SOL    HW141017   3.237   6.669  12.822
13040SOL    HW241018   3.116   6.759  12.817
13041SOL     OW41019   2.534   8.032  10.437
13041SOL    HW141020   2.579   7.961  10.392
13041SOL    HW241021   2.574   8.112  10.404
13042SOL     OW41022   9.059   4.241   0.320
13042SOL    HW141023   9.084   4.297   0.246
13042SOL    HW241024   8.964   4.251   0.327
13043SOL     OW41025   3.416  13.494  12.351
13043SOL    HW141026   3.321  13.483  12.340
13043SOL    HW241027   3.453  13.462  12.269
13044SOL     OW41028   7.913   4.681   1.577
13044SOL    HW141029   7.913   4.640   1.664
13044SOL    HW241030   8.002   4.715   1.567
13045SOL     OW41031   6.006   0.109   7.341
13045SOL    HW141032   6.044   0.069   7.262
13045SOL    HW241033   6.081   0.145   7.388
13046SOL     OW41034  12.833   1.164   5.932
13046SOL    HW141035  12.804   1.127   6.016
13046SOL    HW241036  12.929   1.157   5.935
13047SOL     OW41037   3.795   9.086   4.412
13047SOL    HW141038   3.884   9.085   4.447
13047SOL    HW241039   3.740   9.055   4.483
13048SOL     OW41040  11.371   9.833   2.945
13048SOL    HW141041  11.454   9.856   2.903
13048SOL    HW241042  11.384   9.745   2.978
13049SOL     OW41043  13.635   1.163   9.092
13049SOL    HW141044  13.561   1.132   9.144
13049SOL    HW241045  13.634   1.258   9.104
13050SOL     OW41046   8.957   7.047  11.762
13050SOL    HW141047   8.962   7.092  11.677
13050SOL    HW241048   8.969   7.117  11.826
13051SOL     OW41049  14.086   1.923  10.103
13051SOL    HW141050  14.154   1.878  10.153
13051SOL    HW241051  14.046   1.854  10.050
13052SOL     OW41052  11.460   6.075   5.999
13052SOL    HW141053  11.465   6.052   5.907
13052SOL    HW241054  11.522   6.016   6.043
13053SOL     OW41055   7.466   1.965  10.351
13053SOL    HW141056   7.469   1.983  10.444
13053SOL    HW241057   7.542   1.909  10.334
13054SOL     OW41058  13.491  13.198  10.430
13054SOL    HW141059  13.402  13.184  10.396
13054SOL    HW241060  13.492  13.150  10.513
13055SOL     OW41061   1.636  12.695   1.476
13055SOL    HW141062   1.588  12.762   1.426
13055SOL    HW241063   1.636  12.619   1.418
13056SOL     OW41064   2.454   8.835   5.657
13056SOL    HW141065   2.364   8.815   5.632
13056SOL    HW241066   2.502   8.837   5.574
13057SOL     OW41067  14.281   8.872   8.006
13057SOL    HW141068  14.226   8.947   7.987
13057SOL    HW241069  14.220   8.804   8.036
13058SOL     OW41070   7.155   7.722   7.514
13058SOL    HW141071   7.107   7.649   7.473
13058SOL    HW241072   7.188   7.685   7.596
13059SOL     OW41073  13.895  10.118  12.802
13059SOL    HW141074  13.918  10.198  12.754
13059SOL    HW241075  13.813  10.140  12.846
13060SOL     OW41076   7.848  13.436   2.379
13060SOL    HW141077   7.805  13.351   2.379
13060SOL    HW241078   7.786  13.494   2.335
13061SOL     OW41079   9.764  13.134   7.504
13061SOL    HW141080   9.840  13.149   7.448
13061SOL    HW241081   9.742  13.220   7.539
13062SOL     OW41082   7.825   5.868  13.860
13062SOL    HW141083   7.848   5.960  13.872
13062SOL    HW241084   7.900   5.830  13.815
13063SOL     OW41085   1.101   7.482   3.655
13063SOL    HW141086   1.033   7.414   3.649
13063SOL    HW241087   1.146   7.462   3.737
13064SOL     OW41088   7.962  13.905   3.286
13064SOL    HW141089   7.944  13.992   3.250
13064SOL    HW241090   7.930  13.909   3.377
13065SOL     OW41091   4.643   7.265   0.785
13065SOL    HW141092   4.667   7.338   0.729
13065SOL    HW241093   4.696   7.191   0.754
13066SOL     OW41094   2.590   2.857   4.565
13066SOL    HW141095   2.640   2.938   4.571
13066SOL    HW241096   2.538   2.866   4.485
13067SOL     OW41097   0.502   4.205  11.051
13067SOL    HW141098   0.407   4.190  11.051
13067SOL    HW241099   0.525   4.211  11.143
13068SOL     OW41100   1.115   6.489   2.173
13068SOL    HW141101   1.056   6.489   2.248
13068SOL    HW241102   1.187   6.431   2.198
13069SOL     OW41103   5.123   4.025   3.254
13069SOL    HW141104   5.126   4.119   3.269
13069SOL    HW241105   5.186   4.010   3.183
13070SOL     OW41106  14.752   5.859   7.393
13070SOL    HW141107  14.705   5.824   7.316
13070SOL    HW241108  14.832   5.806   7.397
13071SOL     OW41109   2.185   1.281   9.840
13071SOL    HW141110   2.219   1.329   9.916
13071SOL    HW241111   2.093   1.267   9.861
13072SOL     OW41112   8.280  10.238  10.742
13072SOL    HW141113   8.304  10.329  10.721
13072SOL    HW241114   8.341  10.185  10.691
13073SOL     OW41115   8.381  11.733   1.010
13073SOL    HW141116   8.385  11.821   1.046
13073SOL    HW241117   8.332  11.682   1.075
13074SOL     OW41118   6.700  13.638  11.559
13074SOL    HW141119   6.748  13.570  11.606
13074SOL    HW241120   6.764  13.675  11.498
13075SOL     OW41121  13.890   1.847   1.923
13075SOL    HW141122  13.849   1.929   1.949
13075SOL    HW241123  13.857   1.783   1.987
13076SOL     OW41124   4.773   5.341  14.385
13076SOL    HW141125   4.804   5.292  14.309
13076SOL    HW241126   4.686   5.372  14.360
13077SOL     OW41127   2.624   0.843   9.690
13077SOL    HW141128   2.543   0.818   9.646
13077SOL    HW241129   2.639   0.774   9.754
13078SOL     OW41130   9.786   3.339  12.338
13078SOL    HW141131   9.751   3.326  12.426
13078SOL    HW241132   9.710   3.334  12.281
13079SOL     OW41133   1.022   9.896   4.544
13079SOL    HW141134   1.016   9.910   4.638
13079SOL    HW241135   0.944   9.846   4.522
13080SOL     OW41136   1.933   2.927   7.042
13080SOL    HW141137   1.889   3.009   7.060
13080SOL    HW241138   1.943   2.885   7.127
13081SOL     OW41139   9.692  10.438   8.949
13081SOL    HW141140   9.752  10.378   8.994
13081SOL    HW241141   9.692  10.516   9.003
13082SOL     OW41142  10.035   7.943   3.902
13082SOL    HW141143  10.120   7.935   3.860
13082SOL    HW241144   9.972   7.945   3.830
13083SOL     OW41145   5.160  10.168   4.598
13083SOL    HW141146   5.185  10.108   4.527
13083SOL    HW241147   5.065  10.171   4.595
13084SOL     OW41148   5.864  14.186  11.379
13084SOL    HW141149   5.856  14.248  11.307
13084SOL    HW241150   5.922  14.117  11.346
13085SOL     OW41151   6.351  11.180   6.198
13085SOL    HW141152   6.284  11.246   6.217
13085SOL    HW241153   6.342  11.163   6.105
13086SOL     OW41154   1.677   9.154   8.129
13086SOL    HW141155   1.625   9.166   8.208
13086SOL    HW241156   1.768   9.158   8.158
13087SOL     OW41157   9.815   5.501   1.352
13087SOL    HW141158   9.730   5.511   1.310
13087SOL    HW241159   9.823   5.408   1.370
13088SOL     OW41160   0.087   5.904   5.117
13088SOL    HW141161   0.076   5.924   5.024
13088SOL    HW241162   0.143   5.974   5.150
13089SOL     OW41163  13.801  11.584   8.289
13089SOL    HW141164  13.744  11.508   8.272
13089SOL    HW241165  13.882  11.546   8.322
13090SOL     OW41166   5.367   5.382   2.973
13090SOL    HW141167   5.412   5.303   2.944
13090SOL    HW241168   5.278   5.354   2.993
13091SOL     OW41169   1.309   5.277   7.562
13091SOL    HW141170   1.363   5.341   7.515
13091SOL    HW241171   1.222   5.316   7.564
13092SOL     OW41172   6.899   3.707  10.913
13092SOL    HW141173   6.816   3.703  10.962
13092SOL    HW241174   6.873   3.739  10.826
13093SOL     OW41175  11.549   8.747   2.132
13093SOL    HW141176  11.529   8.746   2.225
13093SOL    HW241177  11.570   8.838   2.112
13094SOL     OW41178   2.086   9.582  11.958
13094SOL    HW141179   2.103   9.529  11.880
13094SOL    HW241180   2.130   9.665  11.941
13095SOL     OW41181   0.762  12.119   6.443
13095SOL    HW141182   0.711  12.119   6.362
13095SOL    HW241183   0.853  12.130   6.414
13096SOL     OW41184  13.808  13.867   3.402
13096SOL    HW141185  13.716  13.874   3.375
13096SOL    HW241186  13.812  13.787   3.453
13097SOL     OW41187  13.391   8.707   3.218
13097SOL    HW141188  13.414   8.763   3.292
13097SOL    HW241189  13.472   8.700   3.167
13098SOL     OW41190   6.445   1.990   8.754
13098SOL    HW141191   6.500   2.029   8.822
13098SOL    HW241192   6.410   1.910   8.794
13099SOL     OW41193  13.060   3.182  10.378
13099SOL    HW141194  13.074   3.257  10.320
13099SOL    HW241195  13.080   3.106  10.324
13100SOL     OW41196   3.751  11.075  12.454
13100SOL    HW141197   3.656  11.066  12.448
13100SOL    HW241198   3.764  11.164  12.486
13101SOL     OW41199  12.085   0.071   8.718
13101SOL    HW141200  12.120   0.154   8.688
13101SOL    HW241201  12.156   0.008   8.703
13102SOL     OW41202   4.913   2.042   9.688
13102SOL    HW141203   4.883   2.060   9.599
13102SOL    HW241204   4.953   2.124   9.717
13103SOL     OW41205   6.801   0.392   5.493
13103SOL    HW141206   6.848   0.315   5.460
13103SOL    HW241207   6.745   0.419   5.420
13104SOL     OW41208  10.018   0.308   2.281
13104SOL    HW141209  10.101   0.341   2.317
13104SOL    HW241210  10.029   0.314   2.186
13105SOL     OW41211  14.748   2.344   2.244
13105SOL    HW141212  14.708   2.317   2.327
13105SOL    HW241213  14.674   2.373   2.190
13106SOL     OW41214  11.546   3.125   1.835
13106SOL    HW141215  11.490   3.109   1.911
13106SOL    HW241216  11.501   3.193   1.786
13107SOL     OW41217   7.272  11.565   1.936
13107SOL    HW141218   7.294  11.473   1.953
13107SOL    HW241219   7.238  11.597   2.020
13108SOL     OW41220   0.700  14.791   6.122
13108SOL    HW141221   0.616  14.769   6.081
13108SOL    HW241222   0.690  14.882   6.149
13109SOL     OW41223  14.572   3.115   7.266
13109SOL    HW141224  14.537   3.137   7.353
13109SOL    HW241225  14.510   3.155   7.205
13110SOL     OW41226   9.808   5.528  14.603
13110SOL    HW141227   9.823   5.620  14.625
13110SOL    HW241228   9.713   5.520  14.594
13111SOL     OW41229   2.471  14.588   0.831
13111SOL    HW141230   2.517  14.669   0.808
13111SOL    HW241231   2.531  14.518   0.803
13112SOL     OW41232   5.840   0.857  12.971
13112SOL    HW141233   5.863   0.818  12.887
13112SOL    HW241234   5.922   0.858  13.020
13113SOL     OW41235   1.331  13.438   8.999
13113SOL    HW141236   1.389  13.361   9.000
13113SOL    HW241237   1.289  13.434   8.913
13114SOL     OW41238   3.188  10.069  13.013
13114SOL    HW141239   3.198  10.118  12.932
13114SOL    HW241240   3.275  10.032  13.030
13115SOL     OW41241   8.378  13.957   0.569
13115SOL    HW141242   8.293  13.997   0.550
13115SOL    HW241243   8.376  13.873   0.524
13116SOL     OW41244   5.214   4.539   2.607
13116SOL    HW141245   5.129   4.558   2.567
13116SOL    HW241246   5.211   4.446   2.627
13117SOL     OW41247   4.044   2.138  12.643
13117SOL    HW141248   4.128   2.168  12.608
13117SOL    HW241249   4.064   2.109  12.732
13118SOL     OW41250  14.862   9.054   2.357
13118SOL    HW141251  14.810   8.982   2.392
13118SOL    HW241252  14.820   9.077   2.275
13119SOL     OW41253  11.608  13.279  10.084
13119SOL    HW141254  11.671  13.283  10.011
13119SOL    HW241255  11.523  13.270  10.041
13120SOL     OW41256  12.439   1.522  14.358
13120SOL    HW141257  12.378   1.594  14.367
13120SOL    HW241258  12.431   1.473  14.440
13121SOL     OW41259  10.882   8.845   9.625
13121SOL    HW141260  10.945   8.832   9.554
13121SOL    HW241261  10.800   8.810   9.591
13122SOL     OW41262  11.153   1.456   8.958
13122SOL    HW141263  11.113   1.461   8.872
13122SOL    HW241264  11.152   1.546   8.991
13123SOL     OW41265   7.597   5.613   7.702
13123SOL    HW141266   7.606   5.707   7.719
13123SOL    HW241267   7.505   5.603   7.676
13124SOL     OW41268   5.176   3.338  11.942
13124SOL    HW141269   5.235   3.365  12.012
13124SOL    HW241270   5.125   3.416  11.921
13125SOL     OW41271   2.738  10.323  12.293
13125SOL    HW141272   2.687  10.357  12.366
13125SOL    HW241273   2.737  10.395  12.229
13126SOL     OW41274   1.196  10.821  13.061
13126SOL    HW141275   1.273  10.864  13.098
13126SOL    HW241276   1.184  10.862  12.976
13127SOL     OW41277  13.992   9.581   5.773
13127SOL    HW141278  13.953   9.499   5.804
13127SOL    HW241279  13.988   9.575   5.677
13128SOL     OW41280   1.504   7.044  13.212
13128SOL    HW141281   1.438   7.067  13.147
13128SOL    HW241282   1.500   7.115  13.277
13129SOL     OW41283   5.056   6.989  11.298
13129SOL    HW141284   5.055   6.913  11.240
13129SOL    HW241285   5.008   7.057  11.250
13130SOL     OW41286   2.206  13.872  12.342
13130SOL    HW141287   2.295  13.839  12.334
13130SOL    HW241288   2.216  13.966  12.355
13131SOL     OW41289   3.860   2.271   5.003
13131SOL    HW141290   3.947   2.279   5.042
13131SOL    HW241291   3.845   2.177   4.994
13132SOL     OW41292   8.614  13.321   5.554
13132SOL    HW141293   8.622  13.249   5.617
13132SOL    HW241294   8.526  13.356   5.569
13133SOL     OW41295   5.937   6.621   8.674
13133SOL    HW141296   5.862   6.674   8.703
13133SOL    HW241297   5.983   6.677   8.612
13134SOL     OW41298  11.509   8.002  11.540
13134SOL    HW141299  11.483   8.018  11.631
13134SOL    HW241300  11.603   7.985  11.545
13135SOL     OW41301   8.720   8.744  14.546
13135SOL    HW141302   8.789   8.762  14.483
13135SOL    HW241303   8.655   8.813  14.532
13136SOL     OW41304   2.604  11.828   6.921
13136SOL    HW141305   2.673  11.810   6.986
13136SOL    HW241306   2.523  11.832   6.972
13137SOL     OW41307   9.988   7.189   9.361
13137SOL    HW141308  10.017   7.102   9.334
13137SOL    HW241309   9.982   7.239   9.279
13138SOL     OW41310   7.039   3.163   9.583
13138SOL    HW141311   7.016   3.202   9.498
13138SOL    HW241312   7.132   3.184   9.594
13139SOL     OW41313  11.218   5.374   7.902
13139SOL    HW141314  11.174   5.303   7.854
13139SOL    HW241315  11.288   5.331   7.950
13140SOL     OW41316   7.075  13.765  14.204
13140SOL    HW141317   7.039  13.685  14.165
13140SOL    HW241318   7.155  13.736  14.247
13141SOL     OW41319   7.770   5.146  11.978
13141SOL    HW141320   7.761   5.092  12.056
13141SOL    HW241321   7.730   5.230  12.001
13142SOL     OW41322   2.127   8.873   4.481
13142SOL    HW141323   2.083   8.840   4.560
13142SOL    HW241324   2.148   8.964   4.502
13143SOL     OW41325   0.081  10.486  13.189
13143SOL    HW141326  14.877  10.460  13.218
13143SOL    HW241327   0.132  10.405  13.187
13144SOL     OW41328   0.745   9.018   7.265
13144SOL    HW141329   0.693   9.094   7.292
13144SOL    HW241330   0.809   9.054   7.203
13145SOL     OW41331  13.020  14.432   3.092
13145SOL    HW141332  13.048  14.482   3.015
13145SOL    HW241333  13.006  14.499   3.160
13146SOL     OW41334   3.168  13.936   4.603
13146SOL    HW141335   3.124  14.021   4.606
13146SOL    HW241336   3.239  13.948   4.540
13147SOL     OW41337   3.562   7.628  14.745
13147SOL    HW141338   3.582   7.721  14.732
13147SOL    HW241339   3.621   7.600  14.814
13148SOL     OW41340   5.060   8.931   3.550
13148SOL    HW141341   5.076   8.861   3.613
13148SOL    HW241342   4.969   8.919   3.523
13149SOL     OW41343  11.330  13.297  10.253
13149SOL    HW141344  11.363  13.386  10.258
13149SOL    HW241345  11.333  13.276  10.159
13150SOL     OW41346   1.125  11.576   6.866
13150SOL    HW141347   1.083  11.538   6.943
13150SOL    HW241348   1.073  11.546   6.792
13151SOL     OW41349   3.793   7.530   5.136
13151SOL    HW141350   3.777   7.623   5.147
13151SOL    HW241351   3.886   7.518   5.155
13152SOL     OW41352   4.417  13.410   3.370
13152SOL    HW141353   4.507  13.433   3.345
13152SOL    HW241354   4.401  13.326   3.327
13153SOL     OW41355   9.854   7.241   8.622
13153SOL    HW141356   9.856   7.293   8.542
13153SOL    HW241357   9.859   7.305   8.693
13154SOL     OW41358  13.335   1.868   2.320
13154SOL    HW141359  13.309   1.960   2.317
13154SOL    HW241360  13.254   1.821   2.339
13155SOL     OW41361   1.794   7.577   3.088
13155SOL    HW141362   1.876   7.561   3.040
13155SOL    HW241363   1.734   7.611   3.021
13156SOL     OW41364   9.266   9.591   7.462
13156SOL    HW141365   9.360   9.588   7.444
13156SOL    HW241366   9.251   9.520   7.523
13157SOL     OW41367  14.460  13.990  13.752
13157SOL    HW141368  14.498  13.968  13.667
13157SOL    HW241369  14.518  14.058  13.787
13158SOL     OW41370  14.741   5.435   1.559
13158SOL    HW141371  14.797   5.479   1.496
13158SOL    HW241372  14.762   5.342   1.550
13159SOL     OW41373   5.016   1.705  13.949
13159SOL    HW141374   4.974   1.625  13.982
13159SOL    HW241375   4.983   1.774  14.006
13160SOL     OW41376  12.858   9.499  12.786
13160SOL    HW141377  12.772   9.541  12.785
13160SOL    HW241378  12.920   9.572  12.782
13161SOL     OW41379  10.566   6.140   6.275
13161SOL    HW141380  10.529   6.228   6.269
13161SOL    HW241381  10.544   6.099   6.191
13162SOL     OW41382   6.530   7.498   7.959
13162SOL    HW141383   6.448   7.512   7.911
13162SOL    HW241384   6.530   7.565   8.027
13163SOL     OW41385  10.623  13.561   8.219
13163SOL    HW141386  10.590  13.625   8.282
13163SOL    HW241387  10.581  13.585   8.136
13164SOL     OW41388  13.434   0.409   0.167
13164SOL    HW141389  13.339   0.402   0.157
13164SOL    HW241390  13.465   0.437   0.081
13165SOL     OW41391   3.449  13.196   6.599
13165SOL    HW141392   3.482  13.194   6.689
13165SOL    HW241393   3.450  13.105   6.571
13166SOL     OW41394   4.035   5.495  10.823
13166SOL    HW141395   4.060   5.514  10.733
13166SOL    HW241396   4.117   5.479  10.868
13167SOL     OW41397  10.007   3.275   4.041
13167SOL    HW141398   9.932   3.264   4.099
13167SOL    HW241399  10.008   3.195   3.987
13168SOL     OW41400  14.026   6.727   1.776
13168SOL    HW141401  14.107   6.696   1.735
13168SOL    HW241402  13.960   6.661   1.752
13169SOL     OW41403  12.326   7.092   9.604
13169SOL    HW141404  12.253   7.083   9.544
13169SOL    HW241405  12.404   7.086   9.548
13170SOL     OW41406   9.939   9.853   2.342
13170SOL    HW141407   9.950   9.853   2.437
13170SOL    HW241408   9.994   9.926   2.311
13171SOL     OW41409   4.915   8.242   7.020
13171SOL    HW141410   4.955   8.252   6.934
13171SOL    HW241411   4.966   8.174   7.063
13172SOL     OW41412   9.782  10.077   0.575
13172SOL    HW141413   9.706  10.124   0.539
13172SOL    HW241414   9.836  10.058   0.498
13173SOL     OW41415  12.317   4.988   0.556
13173SOL    HW141416  12.391   4.978   0.497
13173SOL    HW241417  12.297   4.898   0.584
13174SOL     OW41418   2.394  13.988  14.509
13174SOL    HW141419   2.354  14.010  14.593
13174SOL    HW241420   2.385  13.893  14.502
13175SOL     OW41421   0.943   3.064   8.850
13175SOL    HW141422   0.915   2.984   8.805
13175SOL    HW241423   0.938   3.043   8.943
13176SOL     OW41424   8.993  11.219  12.224
13176SOL    HW141425   8.925  11.192  12.162
13176SOL    HW241426   9.061  11.152  12.215
13177SOL     OW41427   1.653   8.086   2.773
13177SOL    HW141428   1.711   8.034   2.717
13177SOL    HW241429   1.678   8.062   2.862
13178SOL     OW41430   4.594   9.419   2.990
13178SOL    HW141431   4.578   9.493   3.049
13178SOL    HW241432   4.512   9.409   2.941
13179SOL     OW41433  14.064   0.176   9.389
13179SOL    HW141434  13.997   0.245   9.387
13179SOL    HW241435  14.033   0.115   9.456
13180SOL     OW41436  10.601  11.202   1.541
13180SOL    HW141437  10.636  11.215   1.630
13180SOL    HW241438  10.560  11.115   1.544
13181SOL     OW41439   1.386   9.462   3.662
13181SOL    HW141440   1.473   9.501   3.668
13181SOL    HW241441   1.327   9.537   3.651
13182SOL     OW41442   7.908   9.226  12.946
13182SOL    HW141443   7.954   9.207  13.028
13182SOL    HW241444   7.943   9.311  12.918
13183SOL     OW41445  12.491  10.889   7.549
13183SOL    HW141446  12.566  10.899   7.608
13183SOL    HW241447  12.530  10.883   7.462
13184SOL     OW41448   9.861  13.754  12.424
13184SOL    HW141449   9.882  13.810  12.499
13184SOL    HW241450   9.828  13.815  12.358
13185SOL     OW41451   9.420  12.813   5.094
13185SOL    HW141452   9.397  12.882   5.032
13185SOL    HW241453   9.474  12.858   5.159
13186SOL     OW41454   1.509   0.921   8.830
13186SOL    HW141455   1.514   0.922   8.926
13186SOL    HW241456   1.511   0.828   8.807
13187SOL     OW41457  12.316   1.605   3.174
13187SOL    HW141458  12.241   1.546   3.180
13187SOL    HW241459  12.286   1.677   3.119
13188SOL     OW41460   4.922   7.019   0.900
13188SOL    HW141461   4.906   7.095   0.956
13188SOL    HW241462   4.855   7.024   0.832
13189SOL     OW41463   6.020   3.185   3.411
13189SOL    HW141464   5.953   3.151   3.470
13189SOL    HW241465   6.036   3.274   3.440
13190SOL     OW41466   3.761  10.086   6.613
13190SOL    HW141467   3.776  10.070   6.520
13190SOL    HW241468   3.843  10.127   6.643
13191SOL     OW41469  12.538   9.030   8.457
13191SOL    HW141470  12.609   9.012   8.519
13191SOL    HW241471  12.458   9.004   8.503
13192SOL     OW41472  12.114  13.263   2.101
13192SOL    HW141473  12.173  13.249   2.176
13192SOL    HW241474  12.037  13.209   2.121
13193SOL     OW41475  14.754   0.934  10.754
13193SOL    HW141476  14.662   0.909  10.762
13193SOL    HW241477  14.760   1.017  10.801
13194SOL     OW41478  10.051   8.027  10.407
13194SOL    HW141479  10.084   7.946  10.367
13194SOL    HW241480  10.048   8.009  10.501
13195SOL     OW41481  13.309  14.174   8.598
13195SOL    HW141482  13.265  14.099   8.558
13195SOL    HW241483  13.322  14.148   8.689
13196SOL     OW41484   6.694   3.133   8.408
13196SOL    HW141485   6.743   3.075   8.467
13196SOL    HW241486   6.760   3.166   8.347
13197SOL     OW41487  14.472  13.463  12.626
13197SOL    HW141488  14.554  13.449  12.673
13197SOL    HW241489  14.493  13.529  12.560
13198SOL     OW41490   7.865   4.732   9.449
13198SOL    HW141491   7.866   4.819   9.487
13198SOL    HW241492   7.773   4.704   9.454
13199SOL     OW41493   7.351   9.537   7.265
13199SOL    HW141494   7.352   9.450   7.226
13199SOL    HW241495   7.381   9.595   7.195
13200SOL     OW41496   7.099  11.228  11.692
13200SOL    HW141497   7.061  11.306  11.653
13200SOL    HW241498   7.044  11.209  11.768
13201SOL     OW41499   9.278  11.606   1.066
13201SOL    HW141500   9.198  11.645   1.031
13201SOL    HW241501   9.325  11.680   1.105
13202SOL     OW41502   9.472   8.590   8.254
13202SOL    HW141503   9.502   8.601   8.345
13202SOL    HW241504   9.436   8.675   8.230
13203SOL     OW41505  13.659  13.617   8.900
13203SOL    HW141506  13.639  13.600   8.808
13203SOL    HW241507  13.691  13.533   8.934
13204SOL     OW41508   1.841   8.254   5.370
13204SOL    HW141509   1.846   8.286   5.460
13204SOL    HW241510   1.880   8.167   5.374
13205SOL     OW41511   6.614   1.260  13.918
13205SOL    HW141512   6.571   1.186  13.873
13205SOL    HW241513   6.607   1.238  14.011
13206SOL     OW41514   1.003  12.854   7.967
13206SOL    HW141515   1.026  12.926   8.026
13206SOL    HW241516   1.087  12.815   7.942
13207SOL     OW41517   1.122   8.374  10.402
13207SOL    HW141518   1.165   8.307  10.456
13207SOL    HW241519   1.119   8.336  10.315
13208SOL     OW41520  14.817  10.434  10.752
13208SOL    HW141521  14.869  10.404  10.826
13208SOL    HW241522  14.776  10.515  10.783
13209SOL     OW41523   0.383   9.841   3.887
13209SOL    HW141524   0.313   9.812   3.828
13209SOL    HW241525   0.429   9.909   3.837
13210SOL     OW41526   8.925   3.941   5.337
13210SOL    HW141527   8.872   3.981   5.267
13210SOL    HW241528   8.943   3.852   5.306
13211SOL     OW41529  14.186   2.125   0.680
13211SOL    HW141530  14.143   2.191   0.735
13211SOL    HW241531  14.270   2.110   0.723
13212SOL     OW41532  14.692   8.885  13.335
13212SOL    HW141533  14.695   8.942  13.258
13212SOL    HW241534  14.777   8.896  13.377
13213SOL     OW41535   9.036  10.511   3.767
13213SOL    HW141536   9.110  10.500   3.826
13213SOL    HW241537   8.970  10.449   3.799
13214SOL     OW41538   9.104   7.854   0.331
13214SOL    HW141539   9.088   7.778   0.274
13214SOL    HW241540   9.144   7.817   0.410
13215SOL     OW41541  12.585  13.651   0.339
13215SOL    HW141542  12.559  13.613   0.423
13215SOL    HW241543  12.617  13.577   0.288
13216SOL     OW41544   0.688   2.674  11.952
13216SOL    HW141545   0.679   2.611  12.023
13216SOL    HW241546   0.779   2.703  11.956
13217SOL     OW41547   2.598  13.219   5.897
13217SOL    HW141548   2.611  13.262   5.812
13217SOL    HW241549   2.608  13.126   5.879
13218SOL     OW41550   8.862   4.257  14.371
13218SOL    HW141551   8.884   4.342  14.408
13218SOL    HW241552   8.862   4.271  14.276
13219SOL     OW41553   8.178   5.392  10.165
13219SOL    HW141554   8.113   5.462  10.160
13219SOL    HW241555   8.247   5.419  10.105
13220SOL     OW41556   0.294   2.099  10.269
13220SOL    HW141557   0.316   2.123  10.359
13220SOL    HW241558   0.350   2.156  10.215
13221SOL     OW41559   9.087  11.947  14.126
13221SOL    HW141560   9.096  11.928  14.032
13221SOL    HW241561   9.119  11.868  14.170
13222SOL     OW41562   0.245   3.582   6.449
13222SOL    HW141563   0.252   3.669   6.408
13222SOL    HW241564   0.261   3.598   6.542
13223SOL     OW41565   9.805   2.819  11.718
13223SOL    HW141566   9.897   2.842  11.730
13223SOL    HW241567   9.807   2.728  11.688
13224SOL     OW41568   6.218  10.337  12.556
13224SOL    HW141569   6.256  10.252  12.533
13224SOL    HW241570   6.269  10.366  12.632
13225SOL     OW41571  12.384   2.602   9.117
13225SOL    HW141572  12.375   2.696   9.102
13225SOL    HW241573  12.373   2.591   9.211
13226SOL     OW41574  14.264   8.521   8.830
13226SOL    HW141575  14.275   8.596   8.889
13226SOL    HW241576  14.314   8.451   8.872
13227SOL     OW41577  12.190   9.240  13.278
13227SOL    HW141578  12.179   9.195  13.194
13227SOL    HW241579  12.277   9.280  13.273
13228SOL     OW41580   4.014   0.096  11.579
13228SOL    HW141581   4.059   0.069  11.658
13228SOL    HW241582   4.065   0.170  11.546
13229SOL     OW41583  10.161   3.917   3.199
13229SOL    HW141584  10.100   3.982   3.233
13229SOL    HW241585  10.106   3.856   3.149
13230SOL     OW41586   4.799   1.763   0.261
13230SOL    HW141587   4.791   1.853   0.294
13230SOL    HW241588   4.884   1.733   0.295
13231SOL     OW41589  10.976   6.990   2.497
13231SOL    HW141590  10.886   7.014   2.472
13231SOL    HW241591  11.007   6.936   2.425
13232SOL     OW41592  13.845   5.505   7.776
13232SOL    HW141593  13.791   5.508   7.697
13232SOL    HW241594  13.849   5.596   7.806
13233SOL     OW41595   1.932   9.232  12.977
13233SOL    HW141596   2.006   9.234  13.038
13233SOL    HW241597   1.863   9.186  13.025
13234SOL     OW41598   9.739   6.961  11.131
13234SOL    HW141599   9.705   6.943  11.043
13234SOL    HW241600   9.674   6.922  11.190
13235SOL     OW41601  13.601  12.983  10.036
13235SOL    HW141602  13.696  12.987  10.047
13235SOL    HW241603  13.572  13.073  10.051
13236SOL     OW41604  12.735   0.838   3.893
13236SOL    HW141605  12.642   0.863   3.897
13236SOL    HW241606  12.781   0.910   3.934
13237SOL     OW41607   3.557   2.704  12.146
13237SOL    HW141608   3.560   2.797  12.167
13237SOL    HW241609   3.481   2.695  12.089
13238SOL     OW41610   0.291   0.972   1.924
13238SOL    HW141611   0.222   1.036   1.942
13238SOL    HW241612   0.353   1.018   1.869
13239SOL     OW41613   3.047   3.166   7.301
13239SOL    HW141614   3.124   3.111   7.310
13239SOL    HW241615   2.995   3.148   7.379
13240SOL     OW41616  13.148  11.060   6.696
13240SOL    HW141617  13.149  11.094   6.785
13240SOL    HW241618  13.057  11.036   6.679
13241SOL     OW41619   3.712   0.796  10.637
13241SOL    HW141620   3.782   0.828  10.693
13241SOL    HW241621   3.753   0.728  10.583
13242SOL     OW41622  11.403   8.304  13.544
13242SOL    HW141623  11.344   8.277  13.615
13242SOL    HW241624  11.435   8.221  13.508
13243SOL     OW41625   5.759   2.138   2.186
13243SOL    HW141626   5.736   2.056   2.141
13243SOL    HW241627   5.826   2.112   2.249
13244SOL     OW41628   9.738  11.812   2.679
13244SOL    HW141629   9.793  11.888   2.695
13244SOL    HW241630   9.799  11.741   2.663
13245SOL     OW41631  13.121   1.527   7.230
13245SOL    HW141632  13.193   1.496   7.176
13245SOL    HW241633  13.088   1.449   7.275
13246SOL     OW41634  14.053   8.696   9.996
13246SOL    HW141635  14.113   8.623  10.010
13246SOL    HW241636  14.111   8.773   9.990
13247SOL     OW41637   7.886   0.170   7.118
13247SOL    HW141638   7.797   0.138   7.107
13247SOL    HW241639   7.940   0.091   7.121
13248SOL     OW41640   2.136  14.188   2.166
13248SOL    HW141641   2.059  14.145   2.130
13248SOL    HW241642   2.183  14.119   2.214
13249SOL     OW41643   0.858   6.303   8.609
13249SOL    HW141644   0.939   6.258   8.633
13249SOL    HW241645   0.886   6.385   8.568
13250SOL     OW41646  10.932  10.888  10.099
13250SOL    HW141647  10.971  10.951  10.039
13250SOL    HW241648  10.997  10.879  10.169
13251SOL     OW41649   4.101   0.390   6.238
13251SOL    HW141650   4.090   0.441   6.158
13251SOL    HW241651   4.037   0.428   6.299
13252SOL     OW41652  11.236   4.520   7.748
13252SOL    HW141653  11.291   4.512   7.825
13252SOL    HW241654  11.194   4.434   7.740
13253SOL     OW41655   5.221  10.741   2.127
13253SOL    HW141656   5.213  10.646   2.135
13253SOL    HW241657   5.154  10.776   2.185
13254SOL     OW41658   6.203   4.175   6.548
13254SOL    HW141659   6.202   4.224   6.465
13254SOL    HW241660   6.236   4.238   6.612
13255SOL     OW41661   3.995  12.465   9.753
13255SOL    HW141662   3.967  12.374   9.751
13255SOL    HW241663   4.079  12.466   9.707
13256SOL     OW41664  10.361   6.817   0.121
13256SOL    HW141665  10.419   6.740   0.124
13256SOL    HW241666  10.290   6.790   0.063
13257SOL     OW41667   1.611   6.516   1.850
13257SOL    HW141668   1.574   6.440   1.896
13257SOL    HW241669   1.698   6.488   1.823
13258SOL     OW41670   4.008  14.699   7.165
13258SOL    HW141671   4.057  14.710   7.083
13258SOL    HW241672   4.072  14.719   7.234
13259SOL     OW41673   7.649  10.212   5.516
13259SOL    HW141674   7.579  10.277   5.514
13259SOL    HW241675   7.651  10.182   5.607
13260SOL     OW41676   1.990   1.185   8.165
13260SOL    HW141677   1.993   1.218   8.076
13260SOL    HW241678   1.954   1.097   8.157
13261SOL     OW41679   5.893  13.078  13.436
13261SOL    HW141680   5.863  13.000  13.391
13261SOL    HW241681   5.819  13.139  13.431
13262SOL     OW41682  12.046   4.175  13.664
13262SOL    HW141683  12.037   4.223  13.746
13262SOL    HW241684  11.989   4.220  13.603
13263SOL     OW41685  14.856   6.442   6.421
13263SOL    HW141686   0.051   6.393   6.395
13263SOL    HW241687  14.877   6.475   6.509
13264SOL     OW41688   2.875  14.253   6.420
13264SOL    HW141689   2.906  14.162   6.412
13264SOL    HW241690   2.808  14.249   6.488
13265SOL     OW41691  14.834  12.816   9.175
13265SOL    HW141692  14.790  12.881   9.119
13265SOL    HW241693  14.768  12.794   9.241
13266SOL     OW41694  11.515   3.513   6.303
13266SOL    HW141695  11.534   3.464   6.223
13266SOL    HW241696  11.420   3.514   6.308
13267SOL     OW41697   8.615   7.831  13.524
13267SOL    HW141698   8.553   7.848  13.453
13267SOL    HW241699   8.626   7.916  13.567
13268SOL     OW41700  10.708   0.579  11.608
13268SOL    HW141701  10.616   0.590  11.583
13268SOL    HW241702  10.752   0.549  11.529
13269SOL     OW41703   1.196   1.296  12.469
13269SOL    HW141704   1.196   1.306  12.374
13269SOL    HW241705   1.107   1.267  12.490
13270SOL     OW41706  14.655   2.631   5.038
13270SOL    HW141707  14.631   2.538   5.030
13270SOL    HW241708  14.571   2.675   5.052
13271SOL     OW41709  13.917   4.253   9.535
13271SOL    HW141710  14.008   4.228   9.515
13271SOL    HW241711  13.921   4.288   9.625
13272SOL     OW41712  12.095   3.028  12.031
13272SOL    HW141713  12.015   2.990  11.994
13272SOL    HW241714  12.146   3.056  11.955
13273SOL     OW41715  14.294   5.186   4.450
13273SOL    HW141716  14.363   5.248   4.476
13273SOL    HW241717  14.287   5.126   4.525
13274SOL     OW41718  10.760   7.794   2.629
13274SOL    HW141719  10.809   7.875   2.644
13274SOL    HW241720  10.722   7.805   2.542
13275SOL     OW41721   4.294  12.670  12.346
13275SOL    HW141722   4.291  12.636  12.435
13275SOL    HW241723   4.324  12.760  12.356
13276SOL     OW41724   5.000   8.350   6.427
13276SOL    HW141725   4.993   8.259   6.455
13276SOL    HW241726   5.030   8.345   6.336
13277SOL     OW41727   6.284   5.434   1.373
13277SOL    HW141728   6.304   5.347   1.340
13277SOL    HW241729   6.338   5.443   1.451
13278SOL     OW41730   7.837  14.475   8.805
13278SOL    HW141731   7.800  14.386   8.805
13278SOL    HW241732   7.930  14.462   8.824
13279SOL     OW41733  13.957   0.272  12.276
13279SOL    HW141734  13.982   0.255  12.186
13279SOL    HW241735  13.861   0.278  12.274
13280SOL     OW41736   7.552   5.913  11.991
13280SOL    HW141737   7.647   5.908  12.001
13280SOL    HW241738   7.538   5.987  11.932
13281SOL     OW41739   6.139  14.817   8.732
13281SOL    HW141740   6.158  14.725   8.712
13281SOL    HW241741   6.052  14.832   8.697
13282SOL     OW41742  13.591   6.209   1.457
13282SOL    HW141743  13.679   6.171   1.447
13282SOL    HW241744  13.533   6.147   1.412
13283SOL     OW41745  11.257   1.621   3.284
13283SOL    HW141746  11.196   1.692   3.266
13283SOL    HW241747  11.324   1.628   3.215
13284SOL     OW41748   5.576   6.523   2.738
13284SOL    HW141749   5.625   6.603   2.721
13284SOL    HW241750   5.512   6.517   2.667
13285SOL     OW41751  12.760   9.369   9.448
13285SOL    HW141752  12.683   9.313   9.460
13285SOL    HW241753  12.736   9.452   9.490
13286SOL     OW41754   8.355   5.754  12.555
13286SOL    HW141755   8.450   5.760  12.545
13286SOL    HW241756   8.331   5.836  12.597
13287SOL     OW41757   6.214  10.791  14.590
13287SOL    HW141758   6.238  10.835  14.671
13287SOL    HW241759   6.277  10.822  14.525
13288SOL     OW41760   9.690  10.941  13.579
13288SOL    HW141761   9.707  10.852  13.612
13288SOL    HW241762   9.763  10.959  13.520
13289SOL     OW41763   9.117   0.056   6.123
13289SOL    HW141764   9.136   0.008   6.204
13289SOL    HW241765   9.169   0.135   6.129
13290SOL     OW41766   0.081   1.315   7.545
13290SOL    HW141767   0.062   1.233   7.499
13290SOL    HW241768   0.035   1.382   7.493
13291SOL     OW41769   3.115   2.231  10.662
13291SOL    HW141770   3.051   2.169  10.628
13291SOL    HW241771   3.079   2.317  10.642
13292SOL     OW41772   1.428   8.833  12.236
13292SOL    HW141773   1.487   8.785  12.178
13292SOL    HW241774   1.419   8.776  12.313
13293SOL     OW41775  14.515   0.792  13.727
13293SOL    HW141776  14.501   0.738  13.648
13293SOL    HW241777  14.426   0.810  13.759
13294SOL     OW41778   8.862   8.476   9.334
13294SOL    HW141779   8.780   8.524   9.333
13294SOL    HW241780   8.840   8.392   9.376
13295SOL     OW41781   5.724   9.829   9.305
13295SOL    HW141782   5.686   9.900   9.253
13295SOL    HW241783   5.709   9.750   9.253
13296SOL     OW41784  12.511  13.638   3.827
13296SOL    HW141785  12.500  13.664   3.736
13296SOL    HW241786  12.423  13.618   3.858
13297SOL     OW41787  14.728  11.567  14.048
13297SOL    HW141788  14.685  11.518  13.978
13297SOL    HW241789  14.778  11.501  14.097
13298SOL     OW41790   8.141  12.956   8.549
13298SOL    HW141791   8.148  12.861   8.535
13298SOL    HW241792   8.132  12.993   8.461
13299SOL     OW41793   9.462   2.992   3.770
13299SOL    HW141794   9.394   2.974   3.835
13299SOL    HW241795   9.543   2.962   3.811
13300SOL     OW41796   1.201  13.172   3.734
13300SOL    HW141797   1.123  13.148   3.683
13300SOL    HW241798   1.174  13.250   3.784
13301SOL     OW41799   2.470  14.431   7.417
13301SOL    HW141800   2.390  14.414   7.367
13301SOL    HW241801   2.501  14.344   7.442
13302SOL     OW41802   1.075   8.726   5.147
13302SOL    HW141803   0.999   8.760   5.099
13302SOL    HW241804   1.106   8.801   5.198
13303SOL     OW41805   6.673   3.385  13.062
13303SOL    HW141806   6.768   3.386  13.071
13303SOL    HW241807   6.647   3.297  13.088
13304SOL     OW41808   0.602  10.305   5.928
13304SOL    HW141809   0.593  10.253   5.848
13304SOL    HW241810   0.582  10.243   5.998
13305SOL     OW41811  13.105   9.733   6.002
13305SOL    HW141812  13.122   9.647   6.042
13305SOL    HW241813  13.013   9.730   5.977
13306SOL     OW41814   0.099   9.669  14.156
13306SOL    HW141815   0.038   9.686  14.228
13306SOL    HW241816   0.132   9.580  14.174
13307SOL     OW41817   6.678  10.949   0.222
13307SOL    HW141818   6.695  10.967   0.130
13307SOL    HW241819   6.583  10.953   0.231
13308SOL     OW41820  13.212  11.724  14.325
13308SOL    HW141821  13.302  11.693  14.313
13308SOL    HW241822  13.175  11.665  14.390
13309SOL     OW41823   1.423   4.915   5.520
13309SOL    HW141824   1.509   4.883   5.545
13309SOL    HW241825   1.362   4.851   5.557
13310SOL     OW41826   9.843   9.559   7.503
13310SOL    HW141827   9.907   9.518   7.445
13310SOL    HW241828   9.844   9.652   7.480
13311SOL     OW41829   0.615  10.556   2.903
13311SOL    HW141830   0.674  10.528   2.833
13311SOL    HW241831   0.619  10.486   2.968
13312SOL     OW41832   4.318  13.871   1.940
13312SOL    HW141833   4.246  13.897   1.997
13312SOL    HW241834   4.320  13.775   1.946
13313SOL     OW41835   2.267   4.416   2.316
13313SOL    HW141836   2.343   4.471   2.295
13313SOL    HW241837   2.205   4.433   2.245
13314SOL     OW41838   2.790   3.177   1.002
13314SOL    HW141839   2.694   3.186   1.006
13314SOL    HW241840   2.819   3.253   0.951
13315SOL     OW41841   0.129   7.134   3.153
13315SOL    HW141842   0.099   7.099   3.069
13315SOL    HW241843   0.138   7.228   3.137
13316SOL     OW41844   2.836   7.168   0.893
13316SOL    HW141845   2.877   7.223   0.959
13316SOL    HW241846   2.793   7.098   0.944
13317SOL     OW41847  13.813  13.186   4.243
13317SOL    HW141848  13.816  13.099   4.283
13317SOL    HW241849  13.883  13.235   4.288
13318SOL     OW41850   5.386  11.549   7.819
13318SOL    HW141851   5.355  11.544   7.909
13318SOL    HW241852   5.445  11.624   7.817
13319SOL     OW41853   7.354   3.924   0.612
13319SOL    HW141854   7.344   3.833   0.640
13319SOL    HW241855   7.430   3.957   0.660
13320SOL     OW41856   5.198   5.953   8.206
13320SOL    HW141857   5.211   5.858   8.198
13320SOL    HW241858   5.190   5.968   8.300
13321SOL     OW41859  11.984   0.326  10.713
13321SOL    HW141860  12.070   0.309  10.750
13321SOL    HW241861  11.938   0.242  10.718
13322SOL     OW41862   7.480   1.884   8.484
13322SOL    HW141863   7.454   1.849   8.570
13322SOL    HW241864   7.399   1.886   8.434
13323SOL     OW41865   9.171  12.630   0.748
13323SOL    HW141866   9.189  12.578   0.670
13323SOL    HW241867   9.149  12.566   0.816
13324SOL     OW41868   7.193   9.027   1.904
13324SOL    HW141869   7.241   8.992   1.829
13324SOL    HW241870   7.167   9.115   1.877
13325SOL     OW41871   0.952  11.001   0.477
13325SOL    HW141872   0.985  10.917   0.510
13325SOL    HW241873   1.025  11.062   0.488
13326SOL     OW41874   7.863   3.886   0.659
13326SOL    HW141875   7.916   3.832   0.718
13326SOL    HW241876   7.879   3.975   0.688
13327SOL     OW41877   8.967   4.482   6.904
13327SOL    HW141878   9.000   4.406   6.857
13327SOL    HW241879   8.871   4.473   6.899
13328SOL     OW41880   0.118   1.782  11.248
13328SOL    HW141881   0.138   1.870  11.281
13328SOL    HW241882   0.034   1.760  11.289
13329SOL     OW41883  14.522   8.919   3.057
13329SOL    HW141884  14.613   8.893   3.072
13329SOL    HW241885  14.473   8.880   3.130
13330SOL     OW41886  13.044   6.634   0.506
13330SOL    HW141887  12.968   6.668   0.552
13330SOL    HW241888  13.009   6.565   0.449
13331SOL     OW41889  13.901   1.995   2.615
13331SOL    HW141890  13.929   1.950   2.695
13331SOL    HW241891  13.963   1.966   2.548
13332SOL     OW41892   5.594   9.353   1.483
13332SOL    HW141893   5.683   9.319   1.498
13332SOL    HW241894   5.537   9.280   1.506
13333SOL     OW41895   9.685   4.114   2.919
13333SOL    HW141896   9.728   4.092   3.001
13333SOL    HW241897   9.593   4.093   2.933
13334SOL     OW41898   8.048  11.111   7.666
13334SOL    HW141899   8.003  11.175   7.611
13334SOL    HW241900   7.987  11.037   7.673
13335SOL     OW41901   1.792   4.536   7.913
13335SOL    HW141902   1.712   4.486   7.926
13335SOL    HW241903   1.765   4.613   7.862
13336SOL     OW41904  11.941  12.455  12.267
13336SOL    HW141905  11.989  12.388  12.316
13336SOL    HW241906  11.947  12.428  12.176
13337SOL     OW41907  13.823  11.774   1.367
13337SOL    HW141908  13.812  11.723   1.447
13337SOL    HW241909  13.879  11.720   1.311
13338SOL     OW41910  14.052   7.397   0.925
13338SOL    HW141911  14.101   7.441   0.856
13338SOL    HW241912  14.114   7.332   0.959
13339SOL     OW41913  10.078  11.803  10.741
13339SOL    HW141914  10.162  11.844  10.720
13339SOL    HW241915  10.065  11.738  10.672
13340SOL     OW41916   4.979   3.889   3.438
13340SOL    HW141917   5.037   3.920   3.368
13340SOL    HW241918   4.893   3.884   3.396
13341SOL     OW41919  11.474   4.516   8.310
13341SOL    HW141920  11.436   4.538   8.395
13341SOL    HW241921  11.426   4.569   8.247
13342SOL     OW41922   2.927   4.140   3.123
13342SOL    HW141923   2.838   4.112   3.146
13342SOL    HW241924   2.915   4.228   3.087
13343SOL     OW41925  10.611   5.189   7.691
13343SOL    HW141926  10.545   5.129   7.654
13343SOL    HW241927  10.640   5.145   7.771
13344SOL     OW41928  10.160   7.741  11.557
13344SOL    HW141929  10.217   7.713  11.628
13344SOL    HW241930  10.112   7.663  11.531
13345SOL     OW41931   8.348  14.541  12.271
13345SOL    HW141932   8.337  14.590  12.189
13345SOL    HW241933   8.402  14.598  12.325
13346SOL     OW41934  14.303  11.693   4.354
13346SOL    HW141935  14.326  11.781   4.325
13346SOL    HW241936  14.386  11.653   4.379
13347SOL     OW41937  14.824  13.371   3.533
13347SOL    HW141938   0.015  13.430   3.513
13347SOL    HW241939  14.835  13.298   3.473
13348SOL     OW41940   7.500  13.188   2.967
13348SOL    HW141941   7.516  13.151   2.881
13348SOL    HW241942   7.505  13.283   2.954
13349SOL     OW41943   1.211   0.714  14.279
13349SOL    HW141944   1.161   0.784  14.322
13349SOL    HW241945   1.188   0.635  14.328
13350SOL     OW41946   6.729  12.230   8.186
13350SOL    HW141947   6.641  12.213   8.220
13350SOL    HW241948   6.721  12.213   8.092
13351SOL     OW41949   2.574   5.661   5.442
13351SOL    HW141950   2.571   5.744   5.394
13351SOL    HW241951   2.496   5.614   5.414
13352SOL     OW41952   1.277  11.828  11.618
13352SOL    HW141953   1.190  11.847  11.585
13352SOL    HW241954   1.292  11.736  11.595
13353SOL     OW41955   9.522   7.357   6.523
13353SOL    HW141956   9.561   7.438   6.491
13353SOL    HW241957   9.464   7.385   6.594
13354SOL     OW41958   3.272   0.387   4.613
13354SOL    HW141959   3.326   0.434   4.677
13354SOL    HW241960   3.204   0.450   4.588
13355SOL     OW41961  13.911   8.082   5.795
13355SOL    HW141962  13.985   8.027   5.821
13355SOL    HW241963  13.926   8.166   5.839
13356SOL     OW41964   5.580   2.296   7.848
13356SOL    HW141965   5.506   2.272   7.792
13356SOL    HW241966   5.657   2.286   7.792
13357SOL     OW41967   8.461  12.434   7.883
13357SOL    HW141968   8.430  12.365   7.825
13357SOL    HW241969   8.471  12.511   7.827
13358SOL     OW41970   1.090   5.755   3.716
13358SOL    HW141971   1.027   5.719   3.653
13358SOL    HW241972   1.149   5.809   3.663
13359SOL     OW41973   2.473   4.738   1.932
13359SOL    HW141974   2.566   4.761   1.932
13359SOL    HW241975   2.430   4.813   1.891
13360SOL     OW41976   5.092   0.610   4.706
13360SOL    HW141977   5.009   0.600   4.754
13360SOL    HW241978   5.073   0.574   4.619
13361SOL     OW41979   2.775   2.985   5.066
13361SOL    HW141980   2.788   2.989   4.972
13361SOL    HW241981   2.740   2.898   5.083
13362SOL     OW41982  10.892  13.501   4.146
13362SOL    HW141983  10.809  13.465   4.114
13362SOL    HW241984  10.868  13.586   4.184
13363SOL     OW41985  12.787   9.721   8.677
13363SOL    HW141986  12.747   9.670   8.606
13363SOL    HW241987  12.865   9.671   8.701
13364SOL     OW41988   3.224  13.225  12.516
13364SOL    HW141989   3.132  13.251  12.512
13364SOL    HW241990   3.238  13.174  12.436
13365SOL     OW41991   5.858  14.711   1.217
13365SOL    HW141992   5.946  14.732   1.247
13365SOL    HW241993   5.813  14.679   1.295
13366SOL     OW41994   0.692   8.515   7.075
13366SOL    HW141995   0.687   8.584   7.140
13366SOL    HW241996   0.642   8.549   7.000
13367SOL     OW41997   1.881   9.489  11.309
13367SOL    HW141998   1.804   9.505  11.255
13367SOL    HW241999   1.938   9.433  11.256
13368SOL     OW42000  14.081  13.595   5.952
13368SOL    HW142001  14.157  13.637   5.993
13368SOL    HW242002  14.015  13.664   5.948
13369SOL     OW42003   4.518   1.719   0.245
13369SOL    HW142004   4.520   1.645   0.305
13369SOL    HW242005   4.610   1.745   0.237
13370SOL     OW42006  12.365  11.403  10.238
13370SOL    HW142007  12.275  11.392  10.266
13370SOL    HW242008  12.418  11.379  10.314
13371SOL     OW42009   9.513   9.065   6.543
13371SOL    HW142010   9.445   9.063   6.476
13371SOL    HW242011   9.553   9.152   6.535
13372SOL     OW42012   7.797   1.529   2.213
13372SOL    HW142013   7.831   1.500   2.128
13372SOL    HW242014   7.874   1.543   2.267
13373SOL     OW42015  10.784   4.695   2.648
13373SOL    HW142016  10.750   4.628   2.589
13373SOL    HW242017  10.754   4.667   2.735
13374SOL     OW42018   2.816  14.363   3.158
13374SOL    HW142019   2.861  14.394   3.237
13374SOL    HW242020   2.855  14.415   3.087
13375SOL     OW42021  14.758   0.106   8.312
13375SOL    HW142022  14.663   0.103   8.325
13375SOL    HW242023  14.777   0.198   8.297
13376SOL     OW42024  14.504  12.844   0.805
13376SOL    HW142025  14.506  12.751   0.781
13376SOL    HW242026  14.441  12.884   0.745
13377SOL     OW42027   6.638  10.961   3.973
13377SOL    HW142028   6.660  10.870   3.951
13377SOL    HW242029   6.718  10.997   4.011
13378SOL     OW42030   6.177  13.232   1.666
13378SOL    HW142031   6.170  13.138   1.649
13378SOL    HW242032   6.197  13.270   1.580
13379SOL     OW42033   3.406   3.989   3.879
13379SOL    HW142034   3.374   3.928   3.813
13379SOL    HW242035   3.350   4.066   3.870
13380SOL     OW42036  13.696   8.278   0.115
13380SOL    HW142037  13.760   8.208   0.107
13380SOL    HW242038  13.746   8.354   0.143
13381SOL     OW42039   5.984   7.278   2.918
13381SOL    HW142040   6.007   7.263   2.826
13381SOL    HW242041   6.068   7.277   2.963
13382SOL     OW42042   3.338   4.860   5.229
13382SOL    HW142043   3.323   4.925   5.297
13382SOL    HW242044   3.267   4.796   5.242
13383SOL     OW42045   7.587   7.329   6.081
13383SOL    HW142046   7.557   7.238   6.075
13383SOL    HW242047   7.679   7.322   6.107
13384SOL     OW42048  14.197  14.044   8.611
13384SOL    HW142049  14.227  14.119   8.662
13384SOL    HW242050  14.111  14.023   8.647
13385SOL     OW42051   4.047   2.976  13.159
13385SOL    HW142052   4.113   3.034  13.119
13385SOL    HW242053   4.072   2.971  13.251
13386SOL     OW42054  10.212   5.150  13.001
13386SOL    HW142055  10.134   5.119  13.046
13386SOL    HW242056  10.285   5.113  13.051
13387SOL     OW42057   7.288   3.750   9.021
13387SOL    HW142058   7.321   3.826   9.069
13387SOL    HW242059   7.193   3.755   9.032
13388SOL     OW42060   4.159   1.771   8.252
13388SOL    HW142061   4.181   1.777   8.345
13388SOL    HW242062   4.185   1.682   8.227
13389SOL     OW42063   2.497  12.682  12.787
13389SOL    HW142064   2.585  12.719  12.799
13389SOL    HW242065   2.451  12.746  12.733
13390SOL     OW42066  10.470   2.267   2.887
13390SOL    HW142067  10.402   2.316   2.933
13390SOL    HW242068  10.480   2.186   2.937
13391SOL     OW42069   6.818  11.021   7.740
13391SOL    HW142070   6.733  11.025   7.697
13391SOL    HW242071   6.801  11.047   7.831
13392SOL     OW42072   1.716   2.127   1.890
13392SOL    HW142073   1.807   2.106   1.869
13392SOL    HW242074   1.701   2.212   1.850
13393SOL     OW42075   8.536   4.272  11.504
13393SOL    HW142076   8.467   4.325  11.544
13393SOL    HW242077   8.617   4.319  11.523
13394SOL     OW42078   6.861   5.289   2.972
13394SOL    HW142079   6.872   5.279   3.066
13394SOL    HW242080   6.766   5.296   2.959
13395SOL     OW42081   9.891   9.227   5.593
13395SOL    HW142082   9.864   9.316   5.569
13395SOL    HW242083   9.816   9.190   5.638
13396SOL     OW42084   8.699   3.500   4.534
13396SOL    HW142085   8.638   3.550   4.479
13396SOL    HW242086   8.650   3.485   4.615
13397SOL     OW42087  10.541   0.137  12.584
13397SOL    HW142088  10.497   0.156  12.501
13397SOL    HW242089  10.546   0.041  12.586
13398SOL     OW42090   8.128   4.449   0.962
13398SOL    HW142091   8.040   4.421   0.988
13398SOL    HW242092   8.183   4.430   1.038
13399SOL     OW42093   7.630  13.967  12.450
13399SOL    HW142094   7.542  13.928  12.445
13399SOL    HW242095   7.633  14.008  12.537
13400SOL     OW42096   3.260   9.936  10.810
13400SOL    HW142097   3.338   9.990  10.803
13400SOL    HW242098   3.196   9.991  10.855
13401SOL     OW42099   9.858  10.328  11.741
13401SOL    HW142100   9.923  10.399  11.744
13401SOL    HW242101   9.804  10.349  11.665
13402SOL     OW42102  12.418   8.551   5.511
13402SOL    HW142103  12.364   8.508   5.444
13402SOL    HW242104  12.391   8.511   5.593
13403SOL     OW42105  13.235   5.774   0.014
13403SOL    HW142106  13.224   5.835  14.824
13403SOL    HW242107  13.258   5.829   0.089
13404SOL     OW42108   5.070   2.935   3.231
13404SOL    HW142109   5.023   2.910   3.152
13404SOL    HW242110   5.009   2.991   3.279
13405SOL     OW42111  14.546  12.548   0.232
13405SOL    HW142112  14.498  12.629   0.215
13405SOL    HW242113  14.608  12.542   0.159
13406SOL     OW42114  11.618   7.472   4.909
13406SOL    HW142115  11.595   7.382   4.888
13406SOL    HW242116  11.702   7.486   4.866
13407SOL     OW42117   9.839  12.816   5.780
13407SOL    HW142118   9.892  12.817   5.701
13407SOL    HW242119   9.863  12.734   5.824
13408SOL     OW42120   1.062  13.682  11.467
13408SOL    HW142121   1.136  13.710  11.520
13408SOL    HW242122   1.101  13.628  11.398
13409SOL     OW42123   0.473   2.584   4.650
13409SOL    HW142124   0.396   2.617   4.697
13409SOL    HW242125   0.439   2.512   4.597
13410SOL     OW42126   9.832  10.518   4.577
13410SOL    HW142127   9.784  10.478   4.650
13410SOL    HW242128   9.867  10.600   4.613
13411SOL     OW42129   8.515   5.486   1.664
13411SOL    HW142130   8.570   5.524   1.733
13411SOL    HW242131   8.551   5.522   1.583
13412SOL     OW42132   7.518   5.876   7.539
13412SOL    HW142133   7.428   5.863   7.509
13412SOL    HW242134   7.520   5.967   7.569
13413SOL     OW42135   9.798  13.106   8.043
13413SOL    HW142136   9.794  13.054   7.963
13413SOL    HW242137   9.842  13.050   8.107
13414SOL     OW42138   6.953  14.806   8.734
13414SOL    HW142139   7.006  14.729   8.756
13414SOL    HW242140   6.884  14.808   8.800
13415SOL     OW42141   9.426  13.169   8.174
13415SOL    HW142142   9.460  13.084   8.201
13415SOL    HW242143   9.335  13.169   8.202
13416SOL     OW42144   7.874   4.620  11.287
13416SOL    HW142145   7.941   4.674  11.329
13416SOL    HW242146   7.793   4.671  11.295
13417SOL     OW42147   1.739  13.376  12.432
13417SOL    HW142148   1.735  13.423  12.516
13417SOL    HW242149   1.829  13.389  12.402
13418SOL     OW42150   8.483   6.539  11.317
13418SOL    HW142151   8.544   6.608  11.340
13418SOL    HW242152   8.418   6.541  11.388
13419SOL     OW42153  10.822  13.692   5.882
13419SOL    HW142154  10.804  13.766   5.823
13419SOL    HW242155  10.757  13.700   5.951
13420SOL     OW42156   6.986   5.349  12.288
13420SOL    HW142157   7.040   5.270  12.280
13420SOL    HW242158   6.975   5.361  12.382
13421SOL     OW42159   7.327  10.422   7.636
13421SOL    HW142160   7.258  10.357   7.645
13421SOL    HW242161   7.371  10.401   7.554
13422SOL     OW42162   5.487   3.492  12.379
13422SOL    HW142163   5.396   3.521  12.376
13422SOL    HW242164   5.498   3.457  12.468
13423SOL     OW42165   3.568   6.708  14.169
13423SOL    HW142166   3.647   6.760  14.158
13423SOL    HW242167   3.554   6.666  14.084
13424SOL     OW42168   3.786  14.868  11.477
13424SOL    HW142169   3.778  14.777  11.505
13424SOL    HW242170   3.870   0.014  11.513
13425SOL     OW42171  12.578   7.615  14.199
13425SOL    HW142172  12.642   7.546  14.179
13425SOL    HW242173  12.630   7.696  14.200
13426SOL     OW42174   8.017  11.317  10.526
13426SOL    HW142175   7.963  11.256  10.576
13426SOL    HW242176   8.018  11.397  10.578
13427SOL     OW42177   2.557  13.560  11.587
13427SOL    HW142178   2.593  13.479  11.550
13427SOL    HW242179   2.568  13.551  11.681
13428SOL     OW42180   1.787  11.321   5.130
13428SOL    HW142181   1.855  11.354   5.070
13428SOL    HW242182   1.716  11.292   5.072
13429SOL     OW42183  10.465  13.451   1.276
13429SOL    HW142184  10.470  13.370   1.226
13429SOL    HW242185  10.388  13.496   1.241
13430SOL     OW42186  14.149   7.474  10.290
13430SOL    HW142187  14.161   7.427  10.372
13430SOL    HW242188  14.147   7.567  10.315
13431SOL     OW42189  11.327   1.906   6.326
13431SOL    HW142190  11.375   1.943   6.252
13431SOL    HW242191  11.242   1.880   6.288
13432SOL     OW42192  10.262  10.860   7.733
13432SOL    HW142193  10.334  10.816   7.687
13432SOL    HW242194  10.233  10.796   7.798
13433SOL     OW42195   5.957  12.562   0.740
13433SOL    HW142196   6.034  12.561   0.682
13433SOL    HW242197   5.926  12.652   0.737
13434SOL     OW42198   9.058  14.323   0.866
13434SOL    HW142199   8.964  14.314   0.885
13434SOL    HW242200   9.092  14.233   0.868
13435SOL     OW42201   4.766  14.533  12.866
13435SOL    HW142202   4.783  14.550  12.774
13435SOL    HW242203   4.795  14.613  12.910
13436SOL     OW42204  12.502   8.705   4.617
13436SOL    HW142205  12.497   8.625   4.670
13436SOL    HW242206  12.593   8.734   4.625
13437SOL     OW42207   0.465   2.051   6.655
13437SOL    HW142208   0.438   1.995   6.729
13437SOL    HW242209   0.482   2.136   6.695
13438SOL     OW42210  14.456  11.148   8.727
13438SOL    HW142211  14.449  11.198   8.809
13438SOL    HW242212  14.452  11.056   8.754
13439SOL     OW42213   1.578   7.935   9.077
13439SOL    HW142214   1.601   7.928   8.985
13439SOL    HW242215   1.656   7.906   9.124
13440SOL     OW42216   4.260   2.485  10.247
13440SOL    HW142217   4.347   2.524  10.257
13440SOL    HW242218   4.204   2.557  10.220
13441SOL     OW42219   5.553   8.505   9.648
13441SOL    HW142220   5.606   8.544   9.578
13441SOL    HW242221   5.519   8.425   9.610
13442SOL     OW42222   9.263  14.278  10.613
13442SOL    HW142223   9.176  14.317  10.619
13442SOL    HW242224   9.256  14.212  10.544
13443SOL     OW42225   6.765  12.698   1.494
13443SOL    HW142226   6.816  12.710   1.414
13443SOL    HW242227   6.830  12.684   1.563
13444SOL     OW42228   5.614   2.709   8.868
13444SOL    HW142229   5.631   2.786   8.923
13444SOL    HW242230   5.690   2.653   8.882
13445SOL     OW42231  14.695  10.287  11.198
13445SOL    HW142232  14.647  10.343  11.137
13445SOL    HW242233  14.627  10.235  11.241
13446SOL     OW42234   7.282  14.033   0.641
13446SOL    HW142235   7.198  14.076   0.624
13446SOL    HW242236   7.311  14.001   0.555
13447SOL     OW42237   6.699   5.063   3.273
13447SOL    HW142238   6.711   4.980   3.319
13447SOL    HW242239   6.773   5.117   3.300
13448SOL     OW42240   1.246   6.722   3.744
13448SOL    HW142241   1.313   6.744   3.809
13448SOL    HW242242   1.293   6.672   3.677
13449SOL     OW42243  12.286   4.219   8.588
13449SOL    HW142244  12.195   4.190   8.598
13449SOL    HW242245  12.305   4.265   8.669
13450SOL     OW42246  10.429  14.590   3.885
13450SOL    HW142247  10.392  14.612   3.800
13450SOL    HW242248  10.510  14.640   3.890
13451SOL     OW42249   9.249   2.990   2.891
13451SOL    HW142250   9.247   3.055   2.821
13451SOL    HW242251   9.332   3.006   2.937
13452SOL     OW42252   6.668   2.184   2.476
13452SOL    HW142253   6.690   2.152   2.389
13452SOL    HW242254   6.713   2.268   2.483
13453SOL     OW42255   4.744   7.653   1.839
13453SOL    HW142256   4.720   7.582   1.778
13453SOL    HW242257   4.809   7.613   1.897
13454SOL     OW42258   1.444   5.425   4.284
13454SOL    HW142259   1.506   5.404   4.355
13454SOL    HW242260   1.423   5.340   4.246
13455SOL     OW42261  13.140   7.821   8.405
13455SOL    HW142262  13.153   7.865   8.489
13455SOL    HW242263  13.170   7.731   8.421
13456SOL     OW42264  13.034  12.656   8.521
13456SOL    HW142265  13.041  12.644   8.616
13456SOL    HW242266  13.099  12.723   8.501
13457SOL     OW42267   6.029   3.396   5.790
13457SOL    HW142268   6.092   3.347   5.844
13457SOL    HW242269   5.960   3.332   5.771
13458SOL     OW42270   8.058  13.817   8.862
13458SOL    HW142271   8.079  13.765   8.784
13458SOL    HW242272   8.028  13.754   8.927
13459SOL     OW42273   0.716   9.578   0.150
13459SOL    HW142274   0.761   9.587   0.066
13459SOL    HW242275   0.717   9.665   0.188
13460SOL     OW42276   3.430  14.331  10.897
13460SOL    HW142277   3.497  14.399  10.910
13460SOL    HW242278   3.473  14.265  10.843
13461SOL     OW42279   6.673  11.614   8.891
13461SOL    HW142280   6.658  11.574   8.977
13461SOL    HW242281   6.662  11.543   8.829
13462SOL     OW42282  10.296   0.714  10.065
13462SOL    HW142283  10.390   0.726  10.054
13462SOL    HW242284  10.285   0.619  10.070
13463SOL     OW42285   8.908  13.350  14.809
13463SOL    HW142286   8.858  13.321   0.003
13463SOL    HW242287   8.941  13.269  14.770
13464SOL     OW42288   6.279  12.759   1.878
13464SOL    HW142289   6.191  12.787   1.851
13464SOL    HW242290   6.330  12.840   1.877
13465SOL     OW42291  11.722  13.427   2.301
13465SOL    HW142292  11.673  13.356   2.260
13465SOL    HW242293  11.749  13.391   2.386
13466SOL     OW42294   3.454   2.243  10.269
13466SOL    HW142295   3.493   2.319  10.227
13466SOL    HW242296   3.438   2.181  10.197
13467SOL     OW42297   1.143   7.216   9.989
13467SOL    HW142298   1.186   7.248   9.909
13467SOL    HW242299   1.214   7.198  10.049
13468SOL     OW42300   1.533   0.450  10.511
13468SOL    HW142301   1.518   0.356  10.525
13468SOL    HW242302   1.615   0.454  10.462
13469SOL     OW42303  13.848   4.754  10.585
13469SOL    HW142304  13.779   4.692  10.608
13469SOL    HW242305  13.816   4.797  10.506
13470SOL     OW42306   0.847   7.247  11.396
13470SOL    HW142307   0.759   7.230  11.432
13470SOL    HW242308   0.892   7.294  11.466
13471SOL     OW42309   6.951  10.270  10.160
13471SOL    HW142310   6.921  10.186  10.124
13471SOL    HW242311   6.972  10.249  10.252
13472SOL     OW42312   5.762   5.163  10.924
13472SOL    HW142313   5.810   5.102  10.980
13472SOL    HW242314   5.752   5.116  10.841
13473SOL     OW42315   8.677   4.755  10.133
13473SOL    HW142316   8.662   4.684  10.071
13473SOL    HW242317   8.678   4.835  10.080
13474SOL     OW42318   2.173  10.495   2.915
13474SOL    HW142319   2.234  10.472   2.845
13474SOL    HW242320   2.105  10.429   2.911
13475SOL     OW42321   0.495   3.160   6.589
13475SOL    HW142322   0.459   3.090   6.534
13475SOL    HW242323   0.432   3.170   6.660
13476SOL     OW42324   4.130   8.102   4.424
13476SOL    HW142325   4.076   8.181   4.424
13476SOL    HW242326   4.178   8.106   4.507
13477SOL     OW42327   8.839   5.885   0.442
13477SOL    HW142328   8.847   5.817   0.375
13477SOL    HW242329   8.791   5.842   0.513
13478SOL     OW42330   9.950  13.118   0.260
13478SOL    HW142331   9.975  13.187   0.198
13478SOL    HW242332   9.908  13.051   0.206
13479SOL     OW42333   9.007   8.927   0.454
13479SOL    HW142334   9.033   8.850   0.404
13479SOL    HW242335   9.057   8.999   0.416
13480SOL     OW42336   4.533   1.905   0.632
13480SOL    HW142337   4.458   1.890   0.690
13480SOL    HW242338   4.564   1.992   0.655
13481SOL     OW42339   9.592   8.557  11.056
13481SOL    HW142340   9.585   8.493  10.985
13481SOL    HW242341   9.554   8.514  11.132
13482SOL     OW42342   5.050  14.878  11.764
13482SOL    HW142343   5.053  14.836  11.850
13482SOL    HW242344   5.063   0.089  11.783
13483SOL     OW42345  11.508  13.546   1.260
13483SOL    HW142346  11.457  13.615   1.304
13483SOL    HW242347  11.588  13.590   1.232
13484SOL     OW42348  11.231  12.994   9.287
13484SOL    HW142349  11.146  13.020   9.251
13484SOL    HW242350  11.253  12.913   9.241
13485SOL     OW42351  12.773  10.213  11.763
13485SOL    HW142352  12.768  10.223  11.668
13485SOL    HW242353  12.733  10.292  11.798
13486SOL     OW42354   5.249   6.691  14.459
13486SOL    HW142355   5.229   6.718  14.370
13486SOL    HW242356   5.341   6.667  14.457
13487SOL     OW42357  14.093  11.304  13.945
13487SOL    HW142358  14.009  11.266  13.973
13487SOL    HW242359  14.118  11.253  13.868
13488SOL     OW42360   0.515   6.831   7.196
13488SOL    HW142361   0.447   6.867   7.253
13488SOL    HW242362   0.481   6.843   7.107
13489SOL     OW42363   6.698   8.731   3.873
13489SOL    HW142364   6.656   8.682   3.944
13489SOL    HW242365   6.789   8.742   3.902
13490SOL     OW42366   4.401   9.934  13.034
13490SOL    HW142367   4.308   9.928  13.053
13490SOL    HW242368   4.438   9.851  13.064
13491SOL     OW42369   0.808   2.836   8.766
13491SOL    HW142370   0.714   2.855   8.759
13491SOL    HW242371   0.812   2.740   8.775
13492SOL     OW42372  12.830   3.286  11.150
13492SOL    HW142373  12.873   3.371  11.150
13492SOL    HW242374  12.843   3.252  11.061
13493SOL     OW42375  10.173  13.818   4.793
13493SOL    HW142376  10.261  13.834   4.759
13493SOL    HW242377  10.150  13.731   4.761
13494SOL     OW42378   8.821   7.785   2.721
13494SOL    HW142379   8.829   7.701   2.766
13494SOL    HW242380   8.729   7.808   2.729
13495SOL     OW42381   6.928   2.056  13.795
13495SOL    HW142382   6.833   2.068  13.786
13495SOL    HW242383   6.948   2.090  13.882
13496SOL     OW42384   6.818   1.838   3.345
13496SOL    HW142385   6.847   1.752   3.376
13496SOL    HW242386   6.826   1.895   3.421
13497SOL     OW42387   4.629  13.532   9.427
13497SOL    HW142388   4.670  13.531   9.341
13497SOL    HW242389   4.535  13.540   9.409
13498SOL     OW42390   7.986  10.782  12.094
13498SOL    HW142391   8.013  10.691  12.079
13498SOL    HW242392   8.034  10.832  12.027
13499SOL     OW42393  13.189   6.368   6.126
13499SOL    HW142394  13.117   6.430   6.132
13499SOL    HW242395  13.205   6.341   6.216
13500SOL     OW42396   2.801   1.270   7.891
13500SOL    HW142397   2.862   1.208   7.931
13500SOL    HW242398   2.834   1.283   7.803
13501SOL     OW42399  12.775   7.610   6.675
13501SOL    HW142400  12.692   7.643   6.709
13501SOL    HW242401  12.836   7.617   6.749
13502SOL     OW42402   2.146   7.825   1.796
13502SOL    HW142403   2.147   7.888   1.724
13502SOL    HW242404   2.215   7.762   1.774
13503SOL     OW42405  14.712  12.272  13.822
13503SOL    HW142406  14.665  12.207  13.874
13503SOL    HW242407  14.791  12.226  13.792
13504SOL     OW42408   7.715   2.348   7.767
13504SOL    HW142409   7.796   2.392   7.795
13504SOL    HW242410   7.651   2.370   7.834
13505SOL     OW42411   0.767  13.450   1.462
13505SOL    HW142412   0.719  13.514   1.409
13505SOL    HW242413   0.860  13.470   1.445
13506SOL     OW42414   8.462  13.147  14.366
13506SOL    HW142415   8.469  13.207  14.441
13506SOL    HW242416   8.477  13.202  14.290
13507SOL     OW42417   4.072  10.716   6.960
13507SOL    HW142418   4.101  10.770   7.034
13507SOL    HW242419   4.140  10.729   6.894
13508SOL     OW42420   3.729   9.534   8.834
13508SOL    HW142421   3.769   9.548   8.748
13508SOL    HW242422   3.802   9.510   8.891
13509SOL     OW42423   3.849  14.419  13.927
13509SOL    HW142424   3.756  14.394  13.936
13509SOL    HW242425   3.861  14.434  13.834
13510SOL     OW42426   5.133   5.319   3.241
13510SOL    HW142427   5.133   5.259   3.167
13510SOL    HW242428   5.067   5.385   3.219
13511SOL     OW42429   1.442  12.360   8.927
13511SOL    HW142430   1.382  12.348   9.001
13511SOL    HW242431   1.429  12.281   8.875
13512SOL     OW42432   8.477  14.086   8.787
13512SOL    HW142433   8.525  14.031   8.849
13512SOL    HW242434   8.545  14.128   8.734
13513SOL     OW42435   8.476   8.262   7.851
13513SOL    HW142436   8.412   8.204   7.891
13513SOL    HW242437   8.551   8.260   7.910
13514SOL     OW42438   6.700   0.923   0.364
13514SOL    HW142439   6.720   0.868   0.440
13514SOL    HW242440   6.657   1.000   0.401
13515SOL     OW42441  14.519   1.821   3.002
13515SOL    HW142442  14.578   1.751   3.029
13515SOL    HW242443  14.564   1.901   3.027
13516SOL     OW42444   1.228  14.559   3.124
13516SOL    HW142445   1.179  14.585   3.202
13516SOL    HW242446   1.205  14.467   3.111
13517SOL     OW42447   2.560   3.394  11.228
13517SOL    HW142448   2.637   3.375  11.174
13517SOL    HW242449   2.595   3.445  11.302
13518SOL     OW42450   2.193   3.892   9.247
13518SOL    HW142451   2.229   3.804   9.261
13518SOL    HW242452   2.267   3.942   9.212
13519SOL     OW42453   7.305   4.106   9.338
13519SOL    HW142454   7.257   4.189   9.330
13519SOL    HW242455   7.390   4.131   9.374
13520SOL     OW42456   3.605  13.596  10.969
13520SOL    HW142457   3.525  13.542  10.971
13520SOL    HW242458   3.676  13.534  10.985
13521SOL     OW42459   2.003   5.926  10.863
13521SOL    HW142460   2.083   5.965  10.900
13521SOL    HW242461   2.028   5.896  10.776
13522SOL     OW42462   9.057   8.081   2.318
13522SOL    HW142463   9.143   8.086   2.276
13522SOL    HW242464   9.000   8.041   2.253
13523SOL     OW42465  14.266   6.188   2.672
13523SOL    HW142466  14.267   6.239   2.753
13523SOL    HW242467  14.336   6.224   2.619
13524SOL     OW42468   4.894  10.627   3.953
13524SOL    HW142469   4.819  10.646   4.009
13524SOL    HW242470   4.891  10.532   3.940
13525SOL     OW42471   6.103   3.219  10.044
13525SOL    HW142472   6.133   3.306  10.017
13525SOL    HW242473   6.123   3.163   9.969
13526SOL     OW42474   1.333  10.548   7.720
13526SOL    HW142475   1.372  10.496   7.791
13526SOL    HW242476   1.246  10.570   7.752
13527SOL     OW42477  11.699  13.076   6.923
13527SOL    HW142478  11.672  12.987   6.944
13527SOL    HW242479  11.693  13.124   7.006
13528SOL     OW42480   7.292  14.688   6.238
13528SOL    HW142481   7.260  14.776   6.256
13528SOL    HW242482   7.387  14.695   6.247
13529SOL     OW42483  11.159  12.487   4.491
13529SOL    HW142484  11.223  12.435   4.539
13529SOL    HW242485  11.211  12.546   4.438
13530SOL     OW42486   2.061   0.172   4.387
13530SOL    HW142487   1.968   0.191   4.400
13530SOL    HW242488   2.063   0.112   4.313
13531SOL     OW42489   9.270  10.710   8.353
13531SOL    HW142490   9.300  10.686   8.265
13531SOL    HW242491   9.338  10.768   8.386
13532SOL     OW42492   5.367   0.449   6.701
13532SOL    HW142493   5.404   0.362   6.685
13532SOL    HW242494   5.374   0.461   6.795
13533SOL     OW42495   6.566   4.261   9.229
13533SOL    HW142496   6.534   4.234   9.143
13533SOL    HW242497   6.544   4.187   9.286
13534SOL     OW42498   1.592  14.534   7.758
13534SOL    HW142499   1.679  14.509   7.728
13534SOL    HW242500   1.603  14.554   7.851
13535SOL     OW42501  11.209   3.493  12.189
13535SOL    HW142502  11.240   3.580  12.213
13535SOL    HW242503  11.256   3.434  12.248
13536SOL     OW42504  14.140   9.315   6.815
13536SOL    HW142505  14.193   9.390   6.790
13536SOL    HW242506  14.052   9.350   6.829
13537SOL     OW42507   8.983  13.124   2.282
13537SOL    HW142508   8.971  13.038   2.324
13537SOL    HW242509   8.907  13.133   2.224
13538SOL     OW42510  14.030   1.080  10.149
13538SOL    HW142511  14.048   1.169  10.181
13538SOL    HW242512  14.091   1.068  10.076
13539SOL     OW42513  10.622   1.404   8.834
13539SOL    HW142514  10.552   1.374   8.776
13539SOL    HW242515  10.598   1.371   8.921
13540SOL     OW42516  14.599   1.886   9.295
13540SOL    HW142517  14.521   1.902   9.243
13540SOL    HW242518  14.619   1.793   9.279
13541SOL     OW42519  10.007  14.612  12.399
13541SOL    HW142520  10.100  14.623  12.417
13541SOL    HW242521  10.003  14.557  12.321
13542SOL     OW42522   3.010   6.193   6.393
13542SOL    HW142523   3.083   6.242   6.431
13542SOL    HW242524   2.973   6.253   6.328
13543SOL     OW42525   1.878   7.480   4.534
13543SOL    HW142526   1.934   7.423   4.587
13543SOL    HW242527   1.818   7.520   4.597
13544SOL     OW42528   1.765   7.191   8.475
13544SOL    HW142529   1.805   7.124   8.530
13544SOL    HW242530   1.813   7.271   8.496
13545SOL     OW42531  11.434   8.689   5.236
13545SOL    HW142532  11.372   8.758   5.258
13545SOL    HW242533  11.509   8.735   5.199
13546SOL     OW42534   9.307   4.753   9.618
13546SOL    HW142535   9.286   4.681   9.677
13546SOL    HW242536   9.400   4.742   9.597
13547SOL     OW42537  11.954  14.520   6.770
13547SOL    HW142538  12.039  14.476   6.779
13547SOL    HW242539  11.948  14.544   6.678
13548SOL     OW42540  11.961   4.881   7.417
13548SOL    HW142541  11.894   4.896   7.483
13548SOL    HW242542  12.018   4.814   7.455
13549SOL     OW42543   8.184  14.283   8.192
13549SOL    HW142544   8.237  14.258   8.116
13549SOL    HW242545   8.208  14.374   8.209
13550SOL     OW42546  13.326   3.971  13.843
13550SOL    HW142547  13.270   4.027  13.895
13550SOL    HW242548  13.413   4.011  13.850
13551SOL     OW42549   4.210   9.860   2.897
13551SOL    HW142550   4.121   9.887   2.873
13551SOL    HW242551   4.221   9.890   2.987
13552SOL     OW42552   3.908  13.601   8.963
13552SOL    HW142553   3.950  13.545   9.028
13552SOL    HW242554   3.824  13.559   8.944
13553SOL     OW42555  12.469   0.576   3.894
13553SOL    HW142556  12.555   0.536   3.885
13553SOL    HW242557  12.461   0.594   3.988
13554SOL     OW42558   2.222  10.759   8.878
13554SOL    HW142559   2.255  10.816   8.947
13554SOL    HW242560   2.239  10.806   8.796
13555SOL     OW42561   7.241  13.612   1.507
13555SOL    HW142562   7.238  13.697   1.464
13555SOL    HW242563   7.156  13.603   1.550
13556SOL     OW42564  13.869   0.299   1.894
13556SOL    HW142565  13.909   0.332   1.974
13556SOL    HW242566  13.868   0.204   1.905
13557SOL     OW42567   5.416  11.507   6.845
13557SOL    HW142568   5.466  11.553   6.912
13557SOL    HW242569   5.480  11.452   6.800
13558SOL     OW42570  12.360   8.088   2.702
13558SOL    HW142571  12.333   8.180   2.702
13558SOL    HW242572  12.454   8.090   2.684
13559SOL     OW42573   7.536   4.697   2.547
13559SOL    HW142574   7.471   4.699   2.478
13559SOL    HW242575   7.554   4.604   2.561
13560SOL     OW42576   6.757   2.311   0.743
13560SOL    HW142577   6.782   2.341   0.656
13560SOL    HW242578   6.663   2.297   0.737
13561SOL     OW42579   1.104   8.358   0.353
13561SOL    HW142580   1.100   8.320   0.441
13561SOL    HW242581   1.025   8.325   0.310
13562SOL     OW42582   2.745   0.264   8.813
13562SOL    HW142583   2.742   0.226   8.725
13562SOL    HW242584   2.820   0.221   8.855
13563SOL     OW42585  10.225   0.485  10.738
13563SOL    HW142586  10.272   0.517  10.815
13563SOL    HW242587  10.185   0.563  10.700
13564SOL     OW42588   9.673  12.852   0.654
13564SOL    HW142589   9.748  12.904   0.682
13564SOL    HW242590   9.683  12.769   0.701
13565SOL     OW42591   0.314  14.446   2.628
13565SOL    HW142592   0.396  14.408   2.597
13565SOL    HW242593   0.289  14.509   2.561
13566SOL     OW42594   8.305   9.728   9.174
13566SOL    HW142595   8.236   9.672   9.138
13566SOL    HW242596   8.302   9.807   9.120
13567SOL     OW42597   3.738  14.340   4.585
13567SOL    HW142598   3.714  14.423   4.542
13567SOL    HW242599   3.822  14.316   4.545
13568SOL     OW42600   3.867   9.058   9.470
13568SOL    HW142601   3.857   9.150   9.495
13568SOL    HW242602   3.790   9.015   9.508
13569SOL     OW42603  13.535   5.004   7.986
13569SOL    HW142604  13.492   4.969   8.064
13569SOL    HW242605  13.599   4.937   7.963
13570SOL     OW42606   9.218   8.521   3.616
13570SOL    HW142607   9.252   8.570   3.691
13570SOL    HW242608   9.147   8.468   3.651
13571SOL     OW42609   0.714   1.939   5.394
13571SOL    HW142610   0.743   2.011   5.450
13571SOL    HW242611   0.780   1.933   5.326
13572SOL     OW42612   9.112  10.123   0.226
13572SOL    HW142613   9.026  10.107   0.265
13572SOL    HW242614   9.168  10.054   0.262
13573SOL     OW42615  10.468   6.711   3.594
13573SOL    HW142616  10.398   6.685   3.535
13573SOL    HW242617  10.480   6.804   3.578
13574SOL     OW42618   5.155   6.404   3.363
13574SOL    HW142619   5.112   6.327   3.324
13574SOL    HW242620   5.129   6.401   3.455
13575SOL     OW42621   2.423   1.768   6.469
13575SOL    HW142622   2.351   1.794   6.526
13575SOL    HW242623   2.390   1.783   6.380
13576SOL     OW42624   4.820  14.629  11.176
13576SOL    HW142625   4.840  14.701  11.236
13576SOL    HW242626   4.728  14.607  11.194
13577SOL     OW42627   5.342   9.829   0.467
13577SOL    HW142628   5.428   9.834   0.426
13577SOL    HW242629   5.309   9.742   0.442
13578SOL     OW42630  10.551  12.607   5.936
13578SOL    HW142631  10.563  12.652   6.020
13578SOL    HW242632  10.506  12.671   5.881
13579SOL     OW42633  11.809   1.530  14.637
13579SOL    HW142634  11.777   1.449  14.676
13579SOL    HW242635  11.858   1.572  14.708
13580SOL     OW42636   7.365   6.592   7.718
13580SOL    HW142637   7.338   6.677   7.752
13580SOL    HW242638   7.345   6.530   7.788
13581SOL     OW42639   7.179   3.690   1.934
13581SOL    HW142640   7.228   3.745   1.995
13581SOL    HW242641   7.117   3.642   1.988
13582SOL     OW42642  14.126   3.985  13.770
13582SOL    HW142643  14.076   4.043  13.827
13582SOL    HW242644  14.059   3.938  13.719
13583SOL     OW42645  12.859   7.584   8.692
13583SOL    HW142646  12.769   7.613   8.705
13583SOL    HW242647  12.856   7.534   8.611
13584SOL     OW42648  11.523   6.147  12.490
13584SOL    HW142649  11.604   6.131  12.538
13584SOL    HW242650  11.458   6.168  12.558
13585SOL     OW42651   2.583  10.988   6.954
13585SOL    HW142652   2.564  11.063   7.011
13585SOL    HW242653   2.636  10.930   7.008
13586SOL     OW42654  13.237   7.326  11.944
13586SOL    HW142655  13.270   7.366  11.863
13586SOL    HW242656  13.232   7.399  12.006
13587SOL     OW42657  10.368   3.789  11.527
13587SOL    HW142658  10.413   3.731  11.587
13587SOL    HW242659  10.329   3.731  11.461
13588SOL     OW42660   1.231  14.882   9.488
13588SOL    HW142661   1.187   0.041   9.414
13588SOL    HW242662   1.263   0.072   9.541
13589SOL     OW42663   4.417  10.824  11.526
13589SOL    HW142664   4.393  10.916  11.538
13589SOL    HW242665   4.356  10.792  11.460
13590SOL     OW42666   9.330  13.524   6.974
13590SOL    HW142667   9.319  13.619   6.972
13590SOL    HW242668   9.418  13.511   7.011
13591SOL     OW42669   2.971  10.029   4.050
13591SOL    HW142670   3.066  10.013   4.057
13591SOL    HW242671   2.961  10.123   4.063
13592SOL     OW42672  12.671   5.712   2.179
13592SOL    HW142673  12.694   5.751   2.095
13592SOL    HW242674  12.601   5.767   2.214
13593SOL     OW42675  11.798  11.529   3.105
13593SOL    HW142676  11.810  11.450   3.051
13593SOL    HW242677  11.815  11.499   3.195
13594SOL     OW42678   6.887   4.055  12.984
13594SOL    HW142679   6.859   4.020  12.899
13594SOL    HW242680   6.906   4.147  12.966
13595SOL     OW42681   3.136  10.996  14.782
13595SOL    HW142682   3.203  11.013  14.849
13595SOL    HW242683   3.118  11.082  14.744
13596SOL     OW42684  11.437   0.096   1.547
13596SOL    HW142685  11.347   0.066   1.555
13596SOL    HW242686  11.441   0.139   1.461
13597SOL     OW42687   7.887   8.385   2.301
13597SOL    HW142688   7.877   8.473   2.263
13597SOL    HW242689   7.798   8.350   2.305
13598SOL     OW42690   7.393   5.285  13.915
13598SOL    HW142691   7.471   5.233  13.937
13598SOL    HW242692   7.319   5.227  13.933
13599SOL     OW42693   9.169  11.390   3.866
13599SOL    HW142694   9.187  11.458   3.931
13599SOL    HW242695   9.157  11.438   3.784
13600SOL     OW42696   7.014  14.439   1.664
13600SOL    HW142697   7.089  14.472   1.614
13600SOL    HW242698   7.044  14.355   1.699
13601SOL     OW42699   1.732   1.581   0.049
13601SOL    HW142700   1.650   1.536   0.069
13601SOL    HW242701   1.799   1.515   0.062
13602SOL     OW42702   9.997   9.921   0.470
13602SOL    HW142703  10.085   9.883   0.477
13602SOL    HW242704   9.951   9.864   0.409
13603SOL     OW42705  13.970  12.063   6.170
13603SOL    HW142706  14.023  11.984   6.179
13603SOL    HW242707  14.027  12.133   6.202
13604SOL     OW42708  13.421   3.272  14.116
13604SOL    HW142709  13.329   3.281  14.092
13604SOL    HW242710  13.451   3.362  14.128
13605SOL     OW42711   2.746   7.560  13.935
13605SOL    HW142712   2.753   7.474  13.977
13605SOL    HW242713   2.833   7.598  13.943
13606SOL     OW42714  13.725   9.957   1.210
13606SOL    HW142715  13.659   9.962   1.280
13606SOL    HW242716  13.695  10.019   1.144
13607SOL     OW42717   1.889   6.356  13.193
13607SOL    HW142718   1.815   6.313  13.235
13607SOL    HW242719   1.860   6.447  13.181
13608SOL     OW42720   7.614   1.935   1.556
13608SOL    HW142721   7.592   1.880   1.481
13608SOL    HW242722   7.645   1.873   1.623
13609SOL     OW42723   3.554  12.217   7.891
13609SOL    HW142724   3.463  12.245   7.883
13609SOL    HW242725   3.550  12.132   7.935
13610SOL     OW42726  12.346  12.973   8.231
13610SOL    HW142727  12.328  12.908   8.162
13610SOL    HW242728  12.298  12.941   8.307
13611SOL     OW42729   2.136   9.743   2.132
13611SOL    HW142730   2.052   9.703   2.156
13611SOL    HW242731   2.123   9.775   2.043
13612SOL     OW42732   2.016   6.403   1.674
13612SOL    HW142733   2.109   6.425   1.684
13612SOL    HW242734   2.014   6.336   1.606
13613SOL     OW42735  13.096   5.287   2.919
13613SOL    HW142736  13.091   5.318   2.828
13613SOL    HW242737  13.006   5.262   2.941
13614SOL     OW42738   5.021   7.033  14.711
13614SOL    HW142739   5.067   6.958  14.673
13614SOL    HW242740   5.091   7.092  14.739
13615SOL     OW42741  14.410  12.018   8.690
13615SOL    HW142742  14.427  12.055   8.777
13615SOL    HW242743  14.374  12.091   8.639
13616SOL     OW42744  11.058  11.537   4.259
13616SOL    HW142745  11.049  11.614   4.204
13616SOL    HW242746  11.125  11.484   4.216
13617SOL     OW42747   1.504  11.684  12.380
13617SOL    HW142748   1.445  11.640  12.442
13617SOL    HW242749   1.465  11.770  12.367
13618SOL     OW42750   3.057   8.613   6.680
13618SOL    HW142751   3.108   8.691   6.701
13618SOL    HW242752   2.986   8.646   6.624
13619SOL     OW42753   7.985   0.831  10.393
13619SOL    HW142754   7.930   0.814  10.317
13619SOL    HW242755   7.939   0.788  10.465
13620SOL     OW42756  11.720   2.875   1.401
13620SOL    HW142757  11.795   2.929   1.377
13620SOL    HW242758  11.693   2.908   1.487
13621SOL     OW42759   1.290   4.797   4.142
13621SOL    HW142760   1.307   4.707   4.169
13621SOL    HW242761   1.262   4.841   4.222
13622SOL     OW42762   8.950   0.552   7.037
13622SOL    HW142763   8.957   0.605   6.957
13622SOL    HW242764   8.980   0.465   7.011
13623SOL     OW42765   0.391   9.741   4.533
13623SOL    HW142766   0.309   9.702   4.502
13623SOL    HW242767   0.363   9.811   4.592
13624SOL     OW42768   4.122   6.521   6.805
13624SOL    HW142769   4.209   6.560   6.790
13624SOL    HW242770   4.140   6.429   6.821
13625SOL     OW42771   8.242   1.285   6.488
13625SOL    HW142772   8.303   1.212   6.489
13625SOL    HW242773   8.260   1.334   6.568
13626SOL     OW42774   6.945  12.045   2.966
13626SOL    HW142775   6.872  12.014   3.020
13626SOL    HW242776   7.018  12.054   3.026
13627SOL     OW42777  13.619  14.197  11.976
13627SOL    HW142778  13.569  14.207  12.057
13627SOL    HW242779  13.556  14.219  11.907
13628SOL     OW42780  12.652   3.810  10.046
13628SOL    HW142781  12.638   3.855   9.963
13628SOL    HW242782  12.564   3.783  10.073
13629SOL     OW42783   8.780   5.311   5.863
13629SOL    HW142784   8.824   5.248   5.807
13629SOL    HW242785   8.844   5.331   5.931
13630SOL     OW42786   3.098   8.019  10.226
13630SOL    HW142787   3.175   8.067  10.194
13630SOL    HW242788   3.116   8.004  10.319
13631SOL     OW42789   4.855  14.073   6.076
13631SOL    HW142790   4.943  14.096   6.047
13631SOL    HW242791   4.864  14.054   6.169
13632SOL     OW42792   8.696   3.127  13.802
13632SOL    HW142793   8.727   3.184  13.873
13632SOL    HW242794   8.731   3.166  13.722
13633SOL     OW42795  10.791  11.974   7.209
13633SOL    HW142796  10.753  11.911   7.148
13633SOL    HW242797  10.804  11.924   7.289
13634SOL     OW42798  14.146   4.141   7.407
13634SOL    HW142799  14.117   4.074   7.468
13634SOL    HW242800  14.191   4.206   7.461
13635SOL     OW42801  10.317   0.454  14.397
13635SOL    HW142802  10.370   0.443  14.476
13635SOL    HW242803  10.340   0.379  14.342
13636SOL     OW42804   6.109  12.739   1.475
13636SOL    HW142805   6.203  12.747   1.455
13636SOL    HW242806   6.104  12.666   1.536
13637SOL     OW42807   3.729   4.834   8.413
13637SOL    HW142808   3.777   4.858   8.333
13637SOL    HW242809   3.769   4.752   8.440
13638SOL     OW42810   9.109   6.067   1.811
13638SOL    HW142811   9.045   6.096   1.877
13638SOL    HW242812   9.066   6.084   1.727
13639SOL     OW42813   9.000  13.732   9.807
13639SOL    HW142814   8.919  13.759   9.851
13639SOL    HW242815   9.025  13.650   9.851
13640SOL     OW42816   8.684   2.645  12.966
13640SOL    HW142817   8.664   2.565  13.015
13640SOL    HW242818   8.603   2.664  12.918
13641SOL     OW42819  14.599  10.975  13.135
13641SOL    HW142820  14.602  10.888  13.175
13641SOL    HW242821  14.681  10.981  13.085
13642SOL     OW42822  14.320  10.071  10.357
13642SOL    HW142823  14.299  10.122  10.436
13642SOL    HW242824  14.415  10.078  10.349
13643SOL     OW42825   5.606  14.355   6.282
13643SOL    HW142826   5.681  14.353   6.341
13643SOL    HW242827   5.626  14.425   6.220
13644SOL     OW42828   8.092   3.688   0.416
13644SOL    HW142829   7.997   3.672   0.412
13644SOL    HW242830   8.127   3.610   0.460
13645SOL     OW42831   9.512   5.690  13.752
13645SOL    HW142832   9.585   5.751  13.768
13645SOL    HW242833   9.437   5.747  13.737
13646SOL     OW42834  14.613   2.471   4.463
13646SOL    HW142835  14.662   2.402   4.509
13646SOL    HW242836  14.556   2.508   4.530
13647SOL     OW42837   6.986  12.030   7.281
13647SOL    HW142838   7.036  12.013   7.361
13647SOL    HW242839   7.044  12.001   7.210
13648SOL     OW42840   3.258   5.349   8.656
13648SOL    HW142841   3.266   5.390   8.742
13648SOL    HW242842   3.193   5.402   8.611
13649SOL     OW42843  11.829  14.135   3.483
13649SOL    HW142844  11.776  14.103   3.556
13649SOL    HW242845  11.864  14.219   3.513
13650SOL     OW42846   5.734   1.965   5.331
13650SOL    HW142847   5.792   2.037   5.307
13650SOL    HW242848   5.655   2.008   5.364
13651SOL     OW42849   8.097  13.158   7.367
13651SOL    HW142850   8.093  13.210   7.287
13651SOL    HW242851   8.060  13.073   7.342
13652SOL     OW42852   4.167   5.968   3.603
13652SOL    HW142853   4.227   5.908   3.647
13652SOL    HW242854   4.205   5.980   3.516
13653SOL     OW42855   3.433   7.768   7.182
13653SOL    HW142856   3.525   7.784   7.161
13653SOL    HW242857   3.388   7.845   7.149
13654SOL     OW42858  10.691  11.699   6.230
13654SOL    HW142859  10.657  11.622   6.183
13654SOL    HW242860  10.783  11.679   6.245
13655SOL     OW42861  12.662  13.322   4.916
13655SOL    HW142862  12.591  13.366   4.962
13655SOL    HW242863  12.715  13.394   4.881
13656SOL     OW42864  12.305   3.515   8.095
13656SOL    HW142865  12.371   3.470   8.042
13656SOL    HW242866  12.229   3.458   8.091
13657SOL     OW42867  14.864   0.756  13.421
13657SOL    HW142868   0.056   0.752  13.360
13657SOL    HW242869  14.834   0.666  13.429
13658SOL     OW42870  12.093   7.505   3.837
13658SOL    HW142871  12.099   7.580   3.895
13658SOL    HW242872  12.001   7.501   3.812
13659SOL     OW42873   5.048   5.449   8.604
13659SOL    HW142874   5.099   5.522   8.567
13659SOL    HW242875   5.032   5.475   8.695
13660SOL     OW42876   9.432  14.678  13.911
13660SOL    HW142877   9.349  14.630  13.912
13660SOL    HW242878   9.496  14.614  13.878
13661SOL     OW42879   2.874   6.360   2.589
13661SOL    HW142880   2.871   6.455   2.584
13661SOL    HW242881   2.813   6.330   2.523
13662SOL     OW42882  14.602   6.636   0.069
13662SOL    HW142883  14.638   6.548   0.061
13662SOL    HW242884  14.602   6.653   0.163
13663SOL     OW42885  13.882  13.203   6.235
13663SOL    HW142886  13.817  13.151   6.282
13663SOL    HW242887  13.951  13.220   6.299
13664SOL     OW42888   2.490  10.500   4.450
13664SOL    HW142889   2.438  10.420   4.447
13664SOL    HW242890   2.435  10.563   4.497
13665SOL     OW42891  12.904  11.064  12.313
13665SOL    HW142892  12.895  11.100  12.402
13665SOL    HW242893  12.958  11.128  12.267
13666SOL     OW42894   5.239   3.556  10.215
13666SOL    HW142895   5.253   3.495  10.288
13666SOL    HW242896   5.263   3.506  10.137
13667SOL     OW42897   8.590   8.705   0.584
13667SOL    HW142898   8.501   8.727   0.609
13667SOL    HW242899   8.582   8.668   0.496
13668SOL     OW42900   6.711   7.603   7.142
13668SOL    HW142901   6.737   7.587   7.233
13668SOL    HW242902   6.765   7.543   7.091
13669SOL     OW42903   0.325   6.584  10.810
13669SOL    HW142904   0.324   6.490  10.792
13669SOL    HW242905   0.243   6.616  10.774
13670SOL     OW42906   7.503   5.476   3.614
13670SOL    HW142907   7.538   5.468   3.525
13670SOL    HW242908   7.575   5.448   3.670
13671SOL     OW42909   0.326   2.239   6.300
13671SOL    HW142910   0.388   2.229   6.227
13671SOL    HW242911   0.308   2.149   6.328
13672SOL     OW42912   6.441   9.080  13.949
13672SOL    HW142913   6.370   9.122  13.900
13672SOL    HW242914   6.427   8.986  13.936
13673SOL     OW42915   9.560  14.559   8.929
13673SOL    HW142916   9.549  14.625   8.997
13673SOL    HW242917   9.478  14.509   8.930
13674SOL     OW42918   0.531   4.081   7.019
13674SOL    HW142919   0.494   4.104   7.104
13674SOL    HW242920   0.520   4.160   6.966
13675SOL     OW42921  12.623   1.058  11.479
13675SOL    HW142922  12.597   1.029  11.567
13675SOL    HW242923  12.548   1.110  11.448
13676SOL     OW42924   9.302   6.308   1.959
13676SOL    HW142925   9.321   6.346   2.045
13676SOL    HW242926   9.213   6.338   1.939
13677SOL     OW42927   6.481   3.583   8.515
13677SOL    HW142928   6.402   3.634   8.532
13677SOL    HW242929   6.529   3.635   8.451
13678SOL     OW42930   8.828   0.140   5.276
13678SOL    HW142931   8.751   0.091   5.307
13678SOL    HW242932   8.819   0.227   5.315
13679SOL     OW42933   4.495   7.456   2.345
13679SOL    HW142934   4.577   7.494   2.377
13679SOL    HW242935   4.492   7.369   2.384
13680SOL     OW42936   8.201   1.868  11.316
13680SOL    HW142937   8.140   1.889  11.386
13680SOL    HW242938   8.182   1.777  11.294
13681SOL     OW42939   3.056   6.681   8.753
13681SOL    HW142940   3.078   6.616   8.819
13681SOL    HW242941   2.962   6.693   8.763
13682SOL     OW42942  11.393  13.168  14.291
13682SOL    HW142943  11.383  13.090  14.236
13682SOL    HW242944  11.483  13.196  14.277
13683SOL     OW42945  11.010   2.696   8.667
13683SOL    HW142946  11.057   2.744   8.599
13683SOL    HW242947  10.919   2.724   8.657
13684SOL     OW42948   2.314   5.873   0.981
13684SOL    HW142949   2.354   5.809   1.040
13684SOL    HW242950   2.363   5.863   0.899
13685SOL     OW42951  13.226   6.076   2.363
13685SOL    HW142952  13.233   6.046   2.272
13685SOL    HW242953  13.310   6.052   2.402
13686SOL     OW42954   3.212   3.533   2.815
13686SOL    HW142955   3.179   3.574   2.735
13686SOL    HW242956   3.285   3.479   2.786
13687SOL     OW42957  14.565  14.077   3.046
13687SOL    HW142958  14.617  14.021   2.989
13687SOL    HW242959  14.492  14.022   3.074
13688SOL     OW42960   5.805  11.441   6.975
13688SOL    HW142961   5.759  11.421   7.056
13688SOL    HW242962   5.769  11.379   6.911
13689SOL     OW42963   4.554   4.544   6.061
13689SOL    HW142964   4.543   4.624   6.113
13689SOL    HW242965   4.501   4.559   5.983
13690SOL     OW42966   8.780   5.896   3.898
13690SOL    HW142967   8.777   5.930   3.809
13690SOL    HW242968   8.695   5.919   3.936
13691SOL     OW42969   1.559  14.026   5.998
13691SOL    HW142970   1.527  14.107   6.038
13691SOL    HW242971   1.481  13.986   5.960
13692SOL     OW42972  11.308   9.286   6.650
13692SOL    HW142973  11.382   9.326   6.696
13692SOL    HW242974  11.277   9.355   6.591
13693SOL     OW42975   6.588   8.868  13.002
13693SOL    HW142976   6.608   8.861  12.908
13693SOL    HW242977   6.666   8.835  13.046
13694SOL     OW42978   0.861   8.330   5.473
13694SOL    HW142979   0.893   8.387   5.542
13694SOL    HW242980   0.872   8.381   5.392
13695SOL     OW42981   3.320  12.704   1.098
13695SOL    HW142982   3.415  12.713   1.089
13695SOL    HW242983   3.306  12.611   1.115
13696SOL     OW42984  13.895   8.745   5.650
13696SOL    HW142985  13.850   8.756   5.733
13696SOL    HW242986  13.943   8.663   5.659
13697SOL     OW42987  11.738   7.544   8.842
13697SOL    HW142988  11.680   7.621   8.851
13697SOL    HW242989  11.710   7.485   8.912
13698SOL     OW42990   8.090  11.201   1.262
13698SOL    HW142991   8.050  11.285   1.284
13698SOL    HW242992   8.017  11.138   1.267
13699SOL     OW42993   7.498  12.750   0.257
13699SOL    HW142994   7.572  12.774   0.312
13699SOL    HW242995   7.461  12.672   0.298
13700SOL     OW42996  11.805   1.686   9.894
13700SOL    HW142997  11.761   1.696   9.978
13700SOL    HW242998  11.747   1.730   9.831
13701SOL     OW42999   5.611   7.724   9.818
13701SOL    HW143000   5.587   7.750   9.729
13701SOL    HW243001   5.643   7.634   9.809
13702SOL     OW43002   3.776  10.075   6.348
13702SOL    HW143003   3.692  10.062   6.305
13702SOL    HW243004   3.819  10.143   6.296
13703SOL     OW43005   9.250   2.028  14.823
13703SOL    HW143006   9.230   1.947  14.871
13703SOL    HW243007   9.166   2.073  14.817
13704SOL     OW43008   5.549  12.415   2.130
13704SOL    HW143009   5.596  12.466   2.064
13704SOL    HW243010   5.469  12.465   2.146
13705SOL     OW43011  14.626   4.988   7.609
13705SOL    HW143012  14.699   4.962   7.552
13705SOL    HW243013  14.550   4.946   7.569
13706SOL     OW43014  11.432  13.524   5.580
13706SOL    HW143015  11.493  13.555   5.513
13706SOL    HW243016  11.379  13.601   5.602
13707SOL     OW43017  12.632  12.244   1.103
13707SOL    HW143018  12.652  12.204   1.188
13707SOL    HW243019  12.699  12.209   1.044
13708SOL     OW43020   5.224   1.548   3.158
13708SOL    HW143021   5.162   1.607   3.202
13708SOL    HW243022   5.181   1.528   3.075
13709SOL     OW43023   7.602  14.678  13.093
13709SOL    HW143024   7.611  14.725  13.010
13709SOL    HW243025   7.510  14.653  13.096
13710SOL     OW43026   6.820   5.411  12.101
13710SOL    HW143027   6.751   5.345  12.091
13710SOL    HW243028   6.881   5.373  12.163
13711SOL     OW43029   6.379  11.956   0.548
13711SOL    HW143030   6.353  12.021   0.613
13711SOL    HW243031   6.400  12.008   0.470
13712SOL     OW43032  11.756  11.223   5.619
13712SOL    HW143033  11.686  11.193   5.676
13712SOL    HW243034  11.721  11.302   5.578
13713SOL     OW43035   4.364   2.383   7.174
13713SOL    HW143036   4.450   2.395   7.212
13713SOL    HW243037   4.306   2.367   7.249
13714SOL     OW43038   1.823  14.481   0.997
13714SOL    HW143039   1.736  14.515   0.978
13714SOL    HW243040   1.812  14.386   0.998
13715SOL     OW43041   6.377  14.651   4.950
13715SOL    HW143042   6.298  14.678   4.997
13715SOL    HW243043   6.373  14.555   4.951
13716SOL     OW43044   2.513   0.748   5.066
13716SOL    HW143045   2.541   0.695   5.140
13716SOL    HW243046   2.520   0.689   4.990
13717SOL     OW43047   1.702   5.352  13.451
13717SOL    HW143048   1.668   5.344  13.362
13717SOL    HW243049   1.761   5.278  13.461
13718SOL     OW43050  12.968   7.287   5.586
13718SOL    HW143051  12.914   7.314   5.512
13718SOL    HW243052  12.966   7.362   5.645
13719SOL     OW43053   1.704  12.608   8.241
13719SOL    HW143054   1.611  12.594   8.226
13719SOL    HW243055   1.737  12.646   8.160
13720SOL     OW43056   9.303   0.999   8.442
13720SOL    HW143057   9.285   0.908   8.466
13720SOL    HW243058   9.346   1.035   8.519
13721SOL     OW43059   2.501  14.726   1.087
13721SOL    HW143060   2.478  14.688   1.001
13721SOL    HW243061   2.421  14.766   1.118
13722SOL     OW43062  12.048  13.034  11.608
13722SOL    HW143063  11.960  13.002  11.630
13722SOL    HW243064  12.097  12.956  11.582
13723SOL     OW43065  12.724   8.695   7.107
13723SOL    HW143066  12.770   8.612   7.122
13723SOL    HW243067  12.726   8.707   7.012
13724SOL     OW43068   8.373   3.620   2.125
13724SOL    HW143069   8.325   3.672   2.060
13724SOL    HW243070   8.306   3.594   2.189
13725SOL     OW43071   2.480  11.304  11.123
13725SOL    HW143072   2.530  11.244  11.068
13725SOL    HW243073   2.391  11.267  11.124
13726SOL     OW43074   2.008   8.451  11.665
13726SOL    HW143075   1.948   8.470  11.593
13726SOL    HW243076   2.076   8.396  11.626
13727SOL     OW43077  11.698   4.679   8.838
13727SOL    HW143078  11.605   4.694   8.818
13727SOL    HW243079  11.732   4.766   8.858
13728SOL     OW43080  11.315   3.290   2.883
13728SOL    HW143081  11.358   3.248   2.958
13728SOL    HW243082  11.322   3.226   2.812
13729SOL     OW43083   9.018   9.801  14.255
13729SOL    HW143084   9.106   9.810  14.219
13729SOL    HW243085   8.961   9.845  14.192
13730SOL     OW43086  11.572  11.988  11.859
13730SOL    HW143087  11.590  12.082  11.861
13730SOL    HW243088  11.653  11.948  11.890
13731SOL     OW43089  11.065  10.328   3.360
13731SOL    HW143090  11.125  10.257   3.384
13731SOL    HW243091  11.084  10.345   3.268
13732SOL     OW43092   1.921  10.130   6.543
13732SOL    HW143093   1.885  10.192   6.606
13732SOL    HW243094   1.868  10.142   6.464
13733SOL     OW43095   2.300   7.499  13.031
13733SOL    HW143096   2.376   7.441  13.033
13733SOL    HW243097   2.328   7.575  12.981
13734SOL     OW43098   5.008   7.495  12.432
13734SOL    HW143099   5.012   7.402  12.457
13734SOL    HW243100   5.089   7.532  12.467
13735SOL     OW43101   1.071   4.389   8.335
13735SOL    HW143102   1.073   4.444   8.413
13735SOL    HW243103   1.053   4.450   8.263
13736SOL     OW43104   7.040  13.447   7.589
13736SOL    HW143105   7.119  13.396   7.567
13736SOL    HW243106   7.039  13.517   7.524
13737SOL     OW43107   9.289  13.050   8.561
13737SOL    HW143108   9.370  13.086   8.597
13737SOL    HW243109   9.240  13.019   8.638
13738SOL     OW43110   0.855   6.075  10.461
13738SOL    HW143111   0.870   6.167  10.437
13738SOL    HW243112   0.886   6.069  10.551
13739SOL     OW43113   2.865  13.520   1.814
13739SOL    HW143114   2.925  13.447   1.798
13739SOL    HW243115   2.922  13.596   1.824
13740SOL     OW43116   2.423   2.102  11.270
13740SOL    HW143117   2.439   2.194  11.249
13740SOL    HW243118   2.510   2.062  11.271
13741SOL     OW43119  13.792   7.600   8.254
13741SOL    HW143120  13.804   7.650   8.173
13741SOL    HW243121  13.791   7.666   8.323
13742SOL     OW43122   2.859  13.122   0.890
13742SOL    HW143123   2.832  13.032   0.873
13742SOL    HW243124   2.777  13.171   0.896
13743SOL     OW43125   1.974   5.959   2.626
13743SOL    HW143126   2.002   6.040   2.581
13743SOL    HW243127   1.879   5.960   2.620
13744SOL     OW43128   8.502   1.673   2.509
13744SOL    HW143129   8.562   1.612   2.553
13744SOL    HW243130   8.440   1.699   2.577
13745SOL     OW43131   8.127   4.016  12.034
13745SOL    HW143132   8.089   3.999  11.948
13745SOL    HW243133   8.134   3.930  12.075
13746SOL     OW43134   6.881   3.791   0.027
13746SOL    HW143135   6.819   3.741   0.081
13746SOL    HW243136   6.826   3.836  14.845
13747SOL     OW43137   1.624   0.258   5.184
13747SOL    HW143138   1.640   0.238   5.277
13747SOL    HW243139   1.700   0.310   5.158
13748SOL     OW43140   6.779   7.254   5.088
13748SOL    HW143141   6.776   7.336   5.138
13748SOL    HW243142   6.832   7.275   5.011
13749SOL     OW43143   7.372   1.349  11.891
13749SOL    HW143144   7.280   1.353  11.864
13749SOL    HW243145   7.415   1.419  11.842
13750SOL     OW43146   3.595   9.054   0.469
13750SOL    HW143147   3.537   9.006   0.411
13750SOL    HW243148   3.543   9.129   0.499
13751SOL     OW43149   5.499  13.129   9.821
13751SOL    HW143150   5.581  13.118   9.774
13751SOL    HW243151   5.501  13.219   9.854
13752SOL     OW43152   1.893  11.689  14.725
13752SOL    HW143153   1.902  11.784  14.732
13752SOL    HW243154   1.869  11.674  14.633
13753SOL     OW43155   4.597  10.917  13.011
13753SOL    HW143156   4.675  10.961  13.045
13753SOL    HW243157   4.526  10.949  13.065
13754SOL     OW43158  13.875   7.885   1.575
13754SOL    HW143159  13.932   7.877   1.652
13754SOL    HW243160  13.866   7.795   1.544
13755SOL     OW43161   9.960   5.429   6.089
13755SOL    HW143162  10.035   5.375   6.115
13755SOL    HW243163   9.987   5.519   6.108
13756SOL     OW43164   8.415   3.953   0.859
13756SOL    HW143165   8.462   3.897   0.797
13756SOL    HW243166   8.351   4.000   0.805
13757SOL     OW43167   2.991  12.463   2.943
13757SOL    HW143168   2.940  12.429   2.870
13757SOL    HW243169   3.080  12.469   2.909
13758SOL     OW43170   5.150   4.397   6.585
13758SOL    HW143171   5.227   4.339   6.581
13758SOL    HW243172   5.184   4.478   6.623
13759SOL     OW43173  14.240   1.330   0.240
13759SOL    HW143174  14.254   1.417   0.277
13759SOL    HW243175  14.316   1.279   0.269
13760SOL     OW43176  13.999   3.260   8.039
13760SOL    HW143177  13.961   3.173   8.055
13760SOL    HW243178  14.047   3.250   7.957
13761SOL     OW43179   6.982  14.487  14.418
13761SOL    HW143180   6.987  14.392  14.426
13761SOL    HW243181   6.964  14.503  14.326
13762SOL     OW43182   9.643  10.746  10.156
13762SOL    HW143183   9.725  10.707  10.126
13762SOL    HW243184   9.629  10.710  10.243
13763SOL     OW43185   3.041   0.793   8.086
13763SOL    HW143186   3.065   0.818   7.997
13763SOL    HW243187   3.007   0.704   8.078
13764SOL     OW43188   4.351   3.266   6.034
13764SOL    HW143189   4.415   3.202   6.067
13764SOL    HW243190   4.403   3.323   5.977
13765SOL     OW43191   3.298   5.849  13.509
13765SOL    HW143192   3.308   5.864  13.603
13765SOL    HW243193   3.204   5.855  13.494
13766SOL     OW43194   1.070   3.110   5.799
13766SOL    HW143195   1.018   3.046   5.751
13766SOL    HW243196   1.160   3.079   5.792
13767SOL     OW43197  11.703   5.377   6.196
13767SOL    HW143198  11.704   5.297   6.248
13767SOL    HW243199  11.611   5.401   6.192
13768SOL     OW43200   6.100   0.062   2.988
13768SOL    HW143201   6.061   0.072   2.901
13768SOL    HW243202   6.113   0.151   3.019
13769SOL     OW43203  12.625   3.222   8.408
13769SOL    HW143204  12.709   3.193   8.443
13769SOL    HW243205  12.646   3.296   8.352
13770SOL     OW43206   0.828   1.306  11.611
13770SOL    HW143207   0.852   1.327  11.701
13770SOL    HW243208   0.745   1.351  11.597
13771SOL     OW43209   1.305  14.547   3.722
13771SOL    HW143210   1.331  14.466   3.680
13771SOL    HW243211   1.216  14.531   3.752
13772SOL     OW43212   1.883  11.460  11.234
13772SOL    HW143213   1.790  11.461  11.257
13772SOL    HW243214   1.919  11.387  11.283
13773SOL     OW43215   8.721   7.420  13.027
13773SOL    HW143216   8.772   7.350  13.069
13773SOL    HW243217   8.693   7.476  13.099
13774SOL     OW43218  14.752   1.543  12.555
13774SOL    HW143219  14.767   1.638  12.561
13774SOL    HW243220  14.789   1.519  12.470
13775SOL     OW43221   8.825  14.499  12.311
13775SOL    HW143222   8.815  14.410  12.344
13775SOL    HW243223   8.739  14.539  12.321
13776SOL     OW43224   6.178   2.589  13.625
13776SOL    HW143225   6.237   2.663  13.606
13776SOL    HW243226   6.094   2.630  13.645
13777SOL     OW43227   0.221   4.261  11.684
13777SOL    HW143228   0.292   4.218  11.732
13777SOL    HW243229   0.250   4.352  11.674
13778SOL     OW43230   6.345  10.966   1.382
13778SOL    HW143231   6.405  11.036   1.354
13778SOL    HW243232   6.258  11.000   1.363
13779SOL     OW43233   4.223  12.467   7.816
13779SOL    HW143234   4.247  12.558   7.832
13779SOL    HW243235   4.195  12.434   7.902
13780SOL     OW43236   7.851   7.889   9.665
13780SOL    HW143237   7.819   7.801   9.681
13780SOL    HW243238   7.862   7.894   9.570
13781SOL     OW43239   6.690   8.468  11.377
13781SOL    HW143240   6.597   8.451  11.387
13781SOL    HW243241   6.733   8.395  11.422
13782SOL     OW43242   0.072   1.049   6.523
13782SOL    HW143243   0.011   1.114   6.489
13782SOL    HW243244   0.159   1.082   6.499
13783SOL     OW43245   3.282   5.710  14.469
13783SOL    HW143246   3.337   5.720  14.547
13783SOL    HW243247   3.331   5.649  14.413
13784SOL     OW43248  12.621   4.657  14.055
13784SOL    HW143249  12.598   4.587  13.994
13784SOL    HW243250  12.564   4.643  14.131
13785SOL     OW43251   5.752   7.342   0.254
13785SOL    HW143252   5.833   7.327   0.303
13785SOL    HW243253   5.732   7.435   0.269
13786SOL     OW43254   0.171  11.987   9.844
13786SOL    HW143255   0.150  12.063   9.898
13786SOL    HW243256   0.265  11.993   9.829
13787SOL     OW43257   4.393  12.827  10.878
13787SOL    HW143258   4.454  12.832  10.951
13787SOL    HW243259   4.387  12.733  10.859
13788SOL     OW43260   9.007  10.523  14.369
13788SOL    HW143261   8.947  10.515  14.443
13788SOL    HW243262   9.076  10.581  14.400
13789SOL     OW43263   3.340   5.259   6.283
13789SOL    HW143264   3.289   5.304   6.350
13789SOL    HW243265   3.391   5.194   6.331
13790SOL     OW43266   8.303  11.545   0.123
13790SOL    HW143267   8.251  11.479   0.168
13790SOL    HW243268   8.348  11.592   0.193
13791SOL     OW43269   3.171   7.898  14.644
13791SOL    HW143270   3.109   7.918  14.714
13791SOL    HW243271   3.127   7.929  14.564
13792SOL     OW43272   1.446   3.282   9.353
13792SOL    HW143273   1.515   3.230   9.395
13792SOL    HW243274   1.384   3.300   9.423
13793SOL     OW43275   8.808   8.350  12.049
13793SOL    HW143276   8.838   8.308  11.969
13793SOL    HW243277   8.792   8.441  12.025
13794SOL     OW43278   9.059   1.030   3.975
13794SOL    HW143279   9.005   1.079   4.037
13794SOL    HW243280   9.006   1.026   3.895
13795SOL     OW43281  14.405   8.001   8.101
13795SOL    HW143282  14.326   8.027   8.054
13795SOL    HW243283  14.470   7.985   8.033
13796SOL     OW43284   9.162   2.226   9.848
13796SOL    HW143285   9.158   2.139   9.888
13796SOL    HW243286   9.252   2.234   9.817
13797SOL     OW43287   6.327  14.251  10.382
13797SOL    HW143288   6.415  14.289  10.392
13797SOL    HW243289   6.337  14.185  10.314
13798SOL     OW43290  10.742   8.272   9.801
13798SOL    HW143291  10.810   8.263   9.867
13798SOL    HW243292  10.754   8.360   9.766
13799SOL     OW43293   3.368  12.841  13.610
13799SOL    HW143294   3.437  12.806  13.667
13799SOL    HW243295   3.396  12.931  13.592
13800SOL     OW43296  12.611   4.710  12.157
13800SOL    HW143297  12.650   4.627  12.130
13800SOL    HW243298  12.607   4.705  12.252
13801SOL     OW43299   1.792   5.597   5.270
13801SOL    HW143300   1.722   5.658   5.293
13801SOL    HW243301   1.867   5.626   5.323
13802SOL     OW43302   2.991   0.045   5.992
13802SOL    HW143303   2.917   0.105   6.002
13802SOL    HW243304   3.057   0.078   6.053
13803SOL     OW43305   5.910   8.464   8.828
13803SOL    HW143306   5.945   8.547   8.794
13803SOL    HW243307   5.876   8.487   8.915
13804SOL     OW43308   2.660  14.528   5.198
13804SOL    HW143309   2.579  14.484   5.172
13804SOL    HW243310   2.631  14.598   5.257
13805SOL     OW43311  12.479   8.041  11.980
13805SOL    HW143312  12.571   8.068  11.983
13805SOL    HW243313  12.483   7.948  11.957
13806SOL     OW43314   8.718   5.177   7.489
13806SOL    HW143315   8.785   5.240   7.514
13806SOL    HW243316   8.713   5.183   7.394
13807SOL     OW43317   6.374   6.425   5.261
13807SOL    HW143318   6.345   6.418   5.170
13807SOL    HW243319   6.378   6.519   5.278
13808SOL     OW43320   4.799   4.924  10.911
13808SOL    HW143321   4.855   4.857  10.951
13808SOL    HW243322   4.749   4.960  10.983
13809SOL     OW43323  10.936  10.464   0.970
13809SOL    HW143324  10.891  10.407   1.033
13809SOL    HW243325  10.913  10.428   0.885
13810SOL     OW43326   1.378   6.218   1.199
13810SOL    HW143327   1.428   6.277   1.255
13810SOL    HW243328   1.433   6.140   1.190
13811SOL     OW43329   4.104   0.433   1.047
13811SOL    HW143330   4.087   0.438   1.141
13811SOL    HW243331   4.044   0.367   1.014
13812SOL     OW43332  14.474  13.135   1.124
13812SOL    HW143333  14.437  13.143   1.036
13812SOL    HW243334  14.414  13.185   1.179
13813SOL     OW43335   1.223   1.604   9.679
13813SOL    HW143336   1.132   1.575   9.670
13813SOL    HW243337   1.218   1.700   9.678
13814SOL     OW43338  10.479  12.481   4.762
13814SOL    HW143339  10.471  12.573   4.789
13814SOL    HW243340  10.549  12.482   4.697
13815SOL     OW43341   3.041  13.177  10.611
13815SOL    HW143342   3.050  13.082  10.624
13815SOL    HW243343   3.013  13.186  10.519
13816SOL     OW43344  12.174   3.022  12.328
13816SOL    HW143345  12.146   3.021  12.236
13816SOL    HW243346  12.260   3.063  12.327
13817SOL     OW43347   3.026   1.137   7.063
13817SOL    HW143348   2.994   1.051   7.092
13817SOL    HW243349   2.999   1.143   6.972
13818SOL     OW43350   4.392   2.702   2.547
13818SOL    HW143351   4.357   2.731   2.463
13818SOL    HW243352   4.480   2.670   2.527
13819SOL     OW43353   0.713  12.494  13.107
13819SOL    HW143354   0.789  12.444  13.137
13819SOL    HW243355   0.748  12.581  13.089
13820SOL     OW43356   9.790  12.473   4.463
13820SOL    HW143357   9.757  12.563   4.469
13820SOL    HW243358   9.814  12.451   4.553
13821SOL     OW43359   0.499  12.232   3.920
13821SOL    HW143360   0.434  12.166   3.896
13821SOL    HW243361   0.469  12.267   4.004
13822SOL     OW43362   3.697   6.863   5.310
13822SOL    HW143363   3.675   6.795   5.374
13822SOL    HW243364   3.773   6.907   5.347
13823SOL     OW43365   5.529   3.824   0.019
13823SOL    HW143366   5.435   3.804   0.019
13823SOL    HW243367   5.566   3.762   0.083
13824SOL     OW43368  14.618  11.192  14.040
13824SOL    HW143369  14.596  11.262  13.979
13824SOL    HW243370  14.708  11.210  14.067
13825SOL     OW43371   2.310   5.981  13.607
13825SOL    HW143372   2.386   5.926  13.626
13825SOL    HW243373   2.242   5.919  13.580
13826SOL     OW43374   8.717   0.159   6.533
13826SOL    HW143375   8.651   0.222   6.505
13826SOL    HW243376   8.796   0.211   6.546
13827SOL     OW43377   8.489   9.918   3.011
13827SOL    HW143378   8.583   9.900   3.008
13827SOL    HW243379   8.449   9.834   3.034
13828SOL     OW43380  14.870   2.839  13.145
13828SOL    HW143381  14.823   2.912  13.186
13828SOL    HW243382   0.078   2.848  13.176
13829SOL     OW43383   2.387  10.181   5.898
13829SOL    HW143384   2.472  10.152   5.931
13829SOL    HW243385   2.374  10.131   5.818
13830SOL     OW43386   5.894  11.016   9.274
13830SOL    HW143387   5.985  11.047   9.267
13830SOL    HW243388   5.896  10.928   9.235
13831SOL     OW43389   4.448   0.231  13.132
13831SOL    HW143390   4.453   0.316  13.088
13831SOL    HW243391   4.470   0.250  13.223
13832SOL     OW43392  14.003  13.968   9.998
13832SOL    HW143393  13.988  13.912   9.921
13832SOL    HW243394  13.945  14.044   9.983
13833SOL     OW43395   1.701  11.734  11.062
13833SOL    HW143396   1.708  11.798  10.991
13833SOL    HW243397   1.673  11.784  11.138
13834SOL     OW43398  12.229   8.348  13.563
13834SOL    HW143399  12.233   8.399  13.644
13834SOL    HW243400  12.315   8.306  13.557
13835SOL     OW43401   5.723   6.047   3.892
13835SOL    HW143402   5.704   6.053   3.986
13835SOL    HW243403   5.798   5.988   3.886
13836SOL     OW43404   0.562   1.077  10.181
13836SOL    HW143405   0.557   0.993  10.228
13836SOL    HW243406   0.652   1.106  10.194
13837SOL     OW43407   2.888   2.982   1.531
13837SOL    HW143408   2.949   2.993   1.604
13837SOL    HW243409   2.865   2.889   1.533
13838SOL     OW43410  10.096  12.529  11.979
13838SOL    HW143411  10.093  12.551  12.072
13838SOL    HW243412  10.183  12.556  11.951
13839SOL     OW43413   5.454  10.286   0.855
13839SOL    HW143414   5.539  10.315   0.887
13839SOL    HW243415   5.454  10.309   0.762
13840SOL     OW43416   3.310   3.043  10.807
13840SOL    HW143417   3.257   2.973  10.845
13840SOL    HW243418   3.271   3.059  10.721
13841SOL     OW43419   9.300  10.258  10.339
13841SOL    HW143420   9.218  10.232  10.379
13841SOL    HW243421   9.353  10.179  10.338
13842SOL     OW43422   9.902   6.979   5.726
13842SOL    HW143423   9.841   7.016   5.790
13842SOL    HW243424   9.989   7.001   5.760
13843SOL     OW43425   8.669  12.716   0.153
13843SOL    HW143426   8.596  12.691   0.095
13843SOL    HW243427   8.626  12.750   0.232
13844SOL     OW43428  10.132   1.536   3.710
13844SOL    HW143429  10.050   1.584   3.713
13844SOL    HW243430  10.194   1.591   3.759
13845SOL     OW43431   2.695   2.344  14.856
13845SOL    HW143432   2.736   2.293   0.044
13845SOL    HW243433   2.611   2.300  14.840
13846SOL     OW43434  12.539   0.867  14.584
13846SOL    HW143435  12.610   0.809  14.556
13846SOL    HW243436  12.460   0.823  14.554
13847SOL     OW43437  11.350   9.903  13.741
13847SOL    HW143438  11.424   9.892  13.801
13847SOL    HW243439  11.277   9.859  13.785
13848SOL     OW43440  12.974  10.962   2.797
13848SOL    HW143441  12.903  11.009   2.753
13848SOL    HW243442  12.935  10.878   2.822
13849SOL     OW43443   5.698   7.548   0.428
13849SOL    HW143444   5.778   7.596   0.409
13849SOL    HW243445   5.682   7.562   0.521
13850SOL     OW43446  13.475   5.289   6.210
13850SOL    HW143447  13.473   5.195   6.191
13850SOL    HW243448  13.561   5.304   6.249
13851SOL     OW43449   3.328   4.631  12.429
13851SOL    HW143450   3.254   4.633  12.367
13851SOL    HW243451   3.322   4.545  12.470
13852SOL     OW43452   8.485   4.808   7.521
13852SOL    HW143453   8.575   4.833   7.542
13852SOL    HW243454   8.431   4.867   7.573
13853SOL     OW43455  10.072   0.059   0.113
13853SOL    HW143456  10.045  14.869   0.170
13853SOL    HW243457  10.156   0.087   0.149
13854SOL     OW43458   6.764   1.249  12.946
13854SOL    HW143459   6.791   1.176  12.890
13854SOL    HW243460   6.670   1.235  12.960
13855SOL     OW43461   7.428  10.493   2.616
13855SOL    HW143462   7.435  10.402   2.646
13855SOL    HW243463   7.517  10.516   2.589
13856SOL     OW43464  12.693   0.953   7.232
13856SOL    HW143465  12.607   0.962   7.190
13856SOL    HW243466  12.694   0.864   7.266
13857SOL     OW43467  11.291   7.615  12.286
13857SOL    HW143468  11.248   7.598  12.202
13857SOL    HW243469  11.219   7.619  12.349
13858SOL     OW43470  12.530   1.088   5.562
13858SOL    HW143471  12.459   1.023   5.555
13858SOL    HW243472  12.591   1.050   5.625
13859SOL     OW43473  14.400  10.583   8.390
13859SOL    HW143474  14.372  10.667   8.426
13859SOL    HW243475  14.383  10.590   8.296
13860SOL     OW43476   6.626   3.628  14.607
13860SOL    HW143477   6.630   3.622  14.702
13860SOL    HW243478   6.566   3.558  14.580
13861SOL     OW43479   3.065  13.370   0.625
13861SOL    HW143480   3.104  13.307   0.685
13861SOL    HW243481   3.139  13.424   0.596
13862SOL     OW43482   4.285  11.166  14.657
13862SOL    HW143483   4.223  11.093  14.663
13862SOL    HW243484   4.320  11.175  14.746
13863SOL     OW43485  11.826  14.064   2.194
13863SOL    HW143486  11.742  14.018   2.197
13863SOL    HW243487  11.862  14.044   2.108
13864SOL     OW43488  12.959   3.360  10.713
13864SOL    HW143489  12.936   3.270  10.691
13864SOL    HW243490  12.874   3.404  10.724
13865SOL     OW43491  11.176  11.508   1.464
13865SOL    HW143492  11.099  11.465   1.501
13865SOL    HW243493  11.142  11.580   1.412
13866SOL     OW43494   3.846  12.594   1.282
13866SOL    HW143495   3.821  12.607   1.373
13866SOL    HW243496   3.860  12.683   1.248
13867SOL     OW43497  14.025   6.414   7.707
13867SOL    HW143498  14.115   6.430   7.681
13867SOL    HW243499  13.979   6.496   7.688
13868SOL     OW43500   6.240   9.132   0.002
13868SOL    HW143501   6.267   9.219  14.853
13868SOL    HW243502   6.223   9.145   0.095
13869SOL     OW43503  14.569   0.883   2.961
13869SOL    HW143504  14.476   0.894   2.981
13869SOL    HW243505  14.596   0.809   3.016
13870SOL     OW43506   3.101   6.024   2.125
13870SOL    HW143507   3.143   5.966   2.188
13870SOL    HW243508   3.147   6.108   2.135
13871SOL     OW43509   9.855  14.054   6.576
13871SOL    HW143510   9.805  14.116   6.522
13871SOL    HW243511   9.855  13.973   6.526
13872SOL     OW43512   3.894   6.317   2.821
13872SOL    HW143513   3.846   6.366   2.755
13872SOL    HW243514   3.934   6.385   2.876
13873SOL     OW43515   4.567  13.830   7.369
13873SOL    HW143516   4.557  13.741   7.403
13873SOL    HW243517   4.486  13.874   7.393
13874SOL     OW43518   2.591   5.935   7.413
13874SOL    HW143519   2.649   5.932   7.337
13874SOL    HW243520   2.534   5.859   7.402
13875SOL     OW43521  13.992   1.306   6.863
13875SOL    HW143522  13.942   1.226   6.848
13875SOL    HW243523  14.023   1.299   6.953
13876SOL     OW43524  14.838  12.468   9.276
13876SOL    HW143525  14.807  12.387   9.236
13876SOL    HW243526  14.865  12.523   9.202
13877SOL     OW43527   1.368   8.999   5.473
13877SOL    HW143528   1.336   9.021   5.561
13877SOL    HW243529   1.403   8.911   5.482
13878SOL     OW43530   5.848   8.439   1.706
13878SOL    HW143531   5.793   8.361   1.715
13878SOL    HW243532   5.810   8.502   1.766
13879SOL     OW43533   5.303   3.123   3.905
13879SOL    HW143534   5.312   3.120   3.810
13879SOL    HW243535   5.264   3.209   3.923
13880SOL     OW43536  14.150   8.812   2.984
13880SOL    HW143537  14.184   8.897   3.012
13880SOL    HW243538  14.213   8.781   2.919
13881SOL     OW43539   1.448   1.529   4.728
13881SOL    HW143540   1.415   1.595   4.789
13881SOL    HW243541   1.399   1.450   4.748
13882SOL     OW43542  11.610   2.118  12.529
13882SOL    HW143543  11.535   2.114  12.587
13882SOL    HW243544  11.669   2.049  12.560
13883SOL     OW43545  12.802   9.268  13.111
13883SOL    HW143546  12.739   9.340  13.122
13883SOL    HW243547  12.853   9.293  13.034
13884SOL     OW43548   9.692   4.305   9.754
13884SOL    HW143549   9.707   4.335   9.843
13884SOL    HW243550   9.768   4.336   9.705
13885SOL     OW43551  13.974   8.969  14.725
13885SOL    HW143552  14.025   8.919  14.660
13885SOL    HW243553  13.890   8.922  14.730
13886SOL     OW43554   5.461  10.212   5.385
13886SOL    HW143555   5.486  10.295   5.427
13886SOL    HW243556   5.494  10.221   5.295
13887SOL     OW43557   3.190   5.013   0.114
13887SOL    HW143558   3.148   5.028   0.199
13887SOL    HW243559   3.259   4.950   0.132
13888SOL     OW43560   1.376   2.789  12.302
13888SOL    HW143561   1.435   2.720  12.331
13888SOL    HW243562   1.328   2.751  12.229
13889SOL     OW43563   8.198   5.535   5.777
13889SOL    HW143564   8.206   5.630   5.770
13889SOL    HW243565   8.165   5.508   5.691
13890SOL     OW43566  12.406  11.436  12.697
13890SOL    HW143567  12.320  11.397  12.683
13890SOL    HW243568  12.389  11.530  12.703
13891SOL     OW43569   9.628  14.263   8.425
13891SOL    HW143570   9.600  14.277   8.515
13891SOL    HW243571   9.592  14.337   8.377
13892SOL     OW43572  10.725   3.840  14.544
13892SOL    HW143573  10.636   3.816  14.520
13892SOL    HW243574  10.746   3.782  14.617
13893SOL     OW43575   1.262   7.322   3.856
13893SOL    HW143576   1.242   7.300   3.947
13893SOL    HW243577   1.285   7.238   3.816
13894SOL     OW43578   7.095  14.880  14.877
13894SOL    HW143579   7.126   0.073  14.828
13894SOL    HW243580   7.174  14.829   0.014
13895SOL     OW43581  10.783  11.968  14.287
13895SOL    HW143582  10.768  12.006  14.201
13895SOL    HW243583  10.855  11.906  14.273
13896SOL     OW43584   0.099   7.476   9.443
13896SOL    HW143585   0.004   7.481   9.451
13896SOL    HW243586   0.126   7.563   9.411
13897SOL     OW43587   6.245   5.337   0.138
13897SOL    HW143588   6.188   5.279   0.087
13897SOL    HW243589   6.334   5.307   0.118
13898SOL     OW43590  11.290  11.739   2.001
13898SOL    HW143591  11.274  11.730   2.095
13898SOL    HW243592  11.298  11.833   1.987
13899SOL     OW43593   3.528   3.008  11.363
13899SOL    HW143594   3.621   3.031  11.353
13899SOL    HW243595   3.481   3.086  11.334
13900SOL     OW43596  11.574  10.296  10.183
13900SOL    HW143597  11.500  10.280  10.242
13900SOL    HW243598  11.543  10.364  10.124
13901SOL     OW43599  14.467   3.270   7.043
13901SOL    HW143600  14.437   3.192   6.996
13901SOL    HW243601  14.550   3.293   7.001
13902SOL     OW43602   2.376   1.599   9.122
13902SOL    HW143603   2.453   1.576   9.174
13902SOL    HW243604   2.365   1.693   9.137
13903SOL     OW43605  14.679  12.322   5.420
13903SOL    HW143606  14.721  12.329   5.334
13903SOL    HW243607  14.585  12.321   5.400
13904SOL     OW43608   4.557   5.325   3.858
13904SOL    HW143609   4.516   5.240   3.839
13904SOL    HW243610   4.498   5.389   3.818
13905SOL     OW43611   0.899   8.848  12.150
13905SOL    HW143612   0.935   8.848  12.239
13905SOL    HW243613   0.944   8.920  12.105
13906SOL     OW43614  12.440   4.352   3.490
13906SOL    HW143615  12.456   4.272   3.439
13906SOL    HW243616  12.521   4.402   3.483
13907SOL     OW43617   2.391   2.299   5.693
13907SOL    HW143618   2.420   2.332   5.608
13907SOL    HW243619   2.423   2.209   5.696
13908SOL     OW43620   3.082  13.882   7.243
13908SOL    HW143621   3.109  13.848   7.329
13908SOL    HW243622   3.152  13.941   7.218
13909SOL     OW43623  10.117   9.233   6.543
13909SOL    HW143624  10.134   9.305   6.603
13909SOL    HW243625  10.057   9.176   6.590
13910SOL     OW43626   8.070  14.274   9.707
13910SOL    HW143627   8.017  14.354   9.711
13910SOL    HW243628   8.047  14.226   9.787
13911SOL     OW43629  11.340  10.623  14.057
13911SOL    HW143630  11.257  10.630  14.011
13911SOL    HW243631  11.372  10.713  14.064
13912SOL     OW43632  14.380  10.315   9.760
13912SOL    HW143633  14.460  10.263   9.750
13912SOL    HW243634  14.311  10.250   9.769
13913SOL     OW43635   2.080  13.634   6.166
13913SOL    HW143636   2.098  13.700   6.233
13913SOL    HW243637   2.143  13.563   6.185
13914SOL     OW43638   0.220   8.132  11.823
13914SOL    HW143639   0.158   8.144  11.750
13914SOL    HW243640   0.178   8.174  11.898
13915SOL     OW43641   8.841   0.867   1.349
13915SOL    HW143642   8.784   0.942   1.364
13915SOL    HW243643   8.915   0.882   1.409
13916SOL     OW43644   5.901  14.181   2.171
13916SOL    HW143645   5.936  14.114   2.113
13916SOL    HW243646   5.832  14.224   2.120
13917SOL     OW43647  10.877   2.147   9.889
13917SOL    HW143648  10.843   2.171   9.803
13917SOL    HW243649  10.871   2.051   9.891
13918SOL     OW43650   3.587   5.856   4.655
13918SOL    HW143651   3.601   5.860   4.561
13918SOL    HW243652   3.493   5.864   4.667
13919SOL     OW43653   2.663   8.648   5.730
13919SOL    HW143654   2.635   8.565   5.690
13919SOL    HW243655   2.582   8.694   5.749
13920SOL     OW43656   3.382   3.604  12.269
13920SOL    HW143657   3.295   3.625  12.236
13920SOL    HW243658   3.375   3.615  12.363
13921SOL     OW43659   0.633  11.589   6.780
13921SOL    HW143660   0.593  11.634   6.854
13921SOL    HW243661   0.610  11.497   6.793
13922SOL     OW43662   6.586  13.937   5.498
13922SOL    HW143663   6.553  13.878   5.430
13922SOL    HW243664   6.604  13.880   5.572
13923SOL     OW43665  12.698  11.315   3.604
13923SOL    HW143666  12.721  11.222   3.599
13923SOL    HW243667  12.775  11.356   3.644
13924SOL     OW43668  14.551   9.549  14.313
13924SOL    HW143669  14.482   9.484  14.300
13924SOL    HW243670  14.504   9.630  14.335
13925SOL     OW43671   6.259   9.426   2.804
13925SOL    HW143672   6.221   9.487   2.740
13925SOL    HW243673   6.245   9.340   2.765
13926SOL     OW43674  10.663   5.458  13.938
13926SOL    HW143675  10.629   5.456  14.027
13926SOL    HW243676  10.757   5.476  13.949
13927SOL     OW43677  14.734   6.258  10.803
13927SOL    HW143678  14.681   6.181  10.782
13927SOL    HW243679  14.754   6.298  10.718
13928SOL     OW43680  10.316  14.131  11.964
13928SOL    HW143681  10.313  14.106  11.872
13928SOL    HW243682  10.340  14.050  12.011
13929SOL     OW43683  13.846   4.788   2.900
13929SOL    HW143684  13.884   4.709   2.862
13929SOL    HW243685  13.873   4.785   2.992
13930SOL     OW43686   1.083  12.697   2.452
13930SOL    HW143687   1.177  12.684   2.466
13930SOL    HW243688   1.044  12.679   2.537
13931SOL     OW43689  10.332  14.174  10.537
13931SOL    HW143690  10.397  14.105  10.551
13931SOL    HW243691  10.320  14.215  10.623
13932SOL     OW43692   9.573   4.188   4.116
13932SOL    HW143693   9.668   4.184   4.128
13932SOL    HW243694   9.537   4.147   4.194
13933SOL     OW43695   0.173   2.684  12.766
13933SOL    HW143696   0.112   2.723  12.703
13933SOL    HW243697   0.183   2.593  12.737
13934SOL     OW43698   0.223   9.949   9.186
13934SOL    HW143699   0.189   9.933   9.099
13934SOL    HW243700   0.283   9.877   9.203
13935SOL     OW43701   5.493  10.224  12.649
13935SOL    HW143702   5.543  10.242  12.569
13935SOL    HW243703   5.483  10.310  12.691
13936SOL     OW43704  13.587  12.253   9.068
13936SOL    HW143705  13.666  12.297   9.103
13936SOL    HW243706  13.598  12.162   9.093
13937SOL     OW43707   1.959   2.543  13.507
13937SOL    HW143708   1.911   2.625  13.517
13937SOL    HW243709   1.933   2.509  13.422
13938SOL     OW43710   3.428   6.975  12.360
13938SOL    HW143711   3.403   6.943  12.447
13938SOL    HW243712   3.362   7.041  12.340
13939SOL     OW43713   0.762   4.363  11.172
13939SOL    HW143714   0.852   4.371  11.140
13939SOL    HW243715   0.743   4.269  11.167
13940SOL     OW43716  14.478   2.637   0.463
13940SOL    HW143717  14.487   2.728   0.435
13940SOL    HW243718  14.392   2.633   0.505
13941SOL     OW43719   9.233   4.522   9.825
13941SOL    HW143720   9.143   4.552   9.828
13941SOL    HW243721   9.233   4.438   9.871
13942SOL     OW43722   1.783   1.863   7.639
13942SOL    HW143723   1.795   1.953   7.670
13942SOL    HW243724   1.848   1.813   7.688
13943SOL     OW43725   3.988   8.087   1.402
13943SOL    HW143726   3.998   8.083   1.307
13943SOL    HW243727   3.906   8.134   1.415
13944SOL     OW43728   7.722   1.122  11.925
13944SOL    HW143729   7.647   1.062  11.931
13944SOL    HW243730   7.780   1.094  11.995
13945SOL     OW43731   0.539   0.024   1.285
13945SOL    HW143732   0.616   0.022   1.227
13945SOL    HW243733   0.481  14.840   1.250
13946SOL     OW43734   2.800   7.849   3.547
13946SOL    HW143735   2.824   7.869   3.637
13946SOL    HW243736   2.705   7.861   3.544
13947SOL     OW43737  12.174   6.000   1.755
13947SOL    HW143738  12.119   6.076   1.739
13947SOL    HW243739  12.253   6.036   1.796
13948SOL     OW43740  10.772   4.805   6.250
13948SOL    HW143741  10.821   4.725   6.232
13948SOL    HW243742  10.835   4.862   6.294
13949SOL     OW43743   5.860   4.500   3.020
13949SOL    HW143744   5.838   4.531   3.108
13949SOL    HW243745   5.875   4.406   3.031
13950SOL     OW43746  10.726  14.147   8.437
13950SOL    HW143747  10.755  14.073   8.384
13950SOL    HW243748  10.786  14.148   8.512
13951SOL     OW43749   5.991   9.571   5.802
13951SOL    HW143750   5.904   9.610   5.798
13951SOL    HW243751   6.018   9.561   5.710
13952SOL     OW43752  14.011   8.482   1.812
13952SOL    HW143753  13.939   8.425   1.786
13952SOL    HW243754  14.014   8.476   1.907
13953SOL     OW43755   5.384   9.965   6.091
13953SOL    HW143756   5.351  10.050   6.062
13953SOL    HW243757   5.404   9.918   6.010
13954SOL     OW43758  11.033  10.436   1.917
13954SOL    HW143759  10.939  10.447   1.905
13954SOL    HW243760  11.044  10.419   2.010
13955SOL     OW43761   5.151   9.259   6.347
13955SOL    HW143762   5.215   9.257   6.276
13955SOL    HW243763   5.078   9.309   6.312
13956SOL     OW43764  10.699   8.450  14.725
13956SOL    HW143765  10.725   8.483  14.811
13956SOL    HW243766  10.610   8.417  14.737
13957SOL     OW43767   8.068  14.015   5.766
13957SOL    HW143768   8.037  13.946   5.707
13957SOL    HW243769   7.988  14.062   5.791
13958SOL     OW43770  13.889   2.540   4.304
13958SOL    HW143771  13.808   2.537   4.355
13958SOL    HW243772  13.958   2.533   4.370
13959SOL     OW43773   0.458   0.516   2.498
13959SOL    HW143774   0.508   0.467   2.432
13959SOL    HW243775   0.370   0.478   2.495
13960SOL     OW43776  13.960   9.342   9.905
13960SOL    HW143777  13.985   9.250   9.902
13960SOL    HW243778  14.010   9.378   9.978
13961SOL     OW43779   0.702   1.709  13.403
13961SOL    HW143780   0.657   1.629  13.377
13961SOL    HW243781   0.633   1.765  13.439
13962SOL     OW43782  10.086  12.997   9.135
13962SOL    HW143783  10.039  13.019   9.055
13962SOL    HW243784  10.134  13.077   9.157
13963SOL     OW43785   5.997   0.655  10.802
13963SOL    HW143786   6.051   0.727  10.833
13963SOL    HW243787   5.967   0.683  10.715
13964SOL     OW43788  14.692   5.690   4.816
13964SOL    HW143789  14.616   5.746   4.800
13964SOL    HW243790  14.687   5.623   4.748
13965SOL     OW43791   4.208   4.492  11.779
13965SOL    HW143792   4.195   4.480  11.685
13965SOL    HW243793   4.193   4.585  11.794
13966SOL     OW43794  10.876   1.703  14.519
13966SOL    HW143795  10.904   1.691  14.610
13966SOL    HW243796  10.791   1.745  14.526
13967SOL     OW43797   1.971   0.527  10.791
13967SOL    HW143798   1.878   0.532  10.769
13967SOL    HW243799   2.013   0.496  10.710
13968SOL     OW43800  11.427   4.798   0.912
13968SOL    HW143801  11.406   4.861   0.982
13968SOL    HW243802  11.394   4.714   0.945
13969SOL     OW43803  13.910   3.516   5.719
13969SOL    HW143804  13.885   3.434   5.677
13969SOL    HW243805  13.833   3.572   5.708
13970SOL     OW43806   2.782   9.740   2.927
13970SOL    HW143807   2.730   9.661   2.938
13970SOL    HW243808   2.725   9.811   2.957
13971SOL     OW43809   4.696   1.661   5.336
13971SOL    HW143810   4.606   1.630   5.336
13971SOL    HW243811   4.741   1.605   5.399
13972SOL     OW43812   5.376   9.664   8.052
13972SOL    HW143813   5.354   9.742   8.001
13972SOL    HW243814   5.347   9.685   8.141
13973SOL     OW43815  11.161  13.611  13.456
13973SOL    HW143816  11.093  13.679  13.455
13973SOL    HW243817  11.113  13.530  13.439
13974SOL     OW43818  13.542   8.436   8.539
13974SOL    HW143819  13.561   8.444   8.633
13974SOL    HW243820  13.478   8.365   8.535
13975SOL     OW43821   3.449  10.226   1.004
13975SOL    HW143822   3.372  10.273   1.036
13975SOL    HW243823   3.413  10.158   0.947
13976SOL     OW43824  14.214   4.782   1.531
13976SOL    HW143825  14.290   4.839   1.539
13976SOL    HW243826  14.175   4.782   1.619
13977SOL     OW43827   3.973   6.504   8.530
13977SOL    HW143828   3.941   6.588   8.497
13977SOL    HW243829   4.015   6.526   8.613
13978SOL     OW43830   7.153   9.592  14.236
13978SOL    HW143831   7.189   9.641  14.162
13978SOL    HW243832   7.094   9.653  14.280
13979SOL     OW43833   7.375   4.721   5.688
13979SOL    HW143834   7.440   4.773   5.641
13979SOL    HW243835   7.405   4.723   5.779
13980SOL     OW43836  13.080  10.453   3.743
13980SOL    HW143837  13.163  10.499   3.732
13980SOL    HW243838  13.042  10.451   3.656
13981SOL     OW43839   5.229   6.950  10.935
13981SOL    HW143840   5.158   7.007  10.964
13981SOL    HW243841   5.249   6.981  10.846
13982SOL     OW43842  13.339   2.314   6.705
13982SOL    HW143843  13.262   2.346   6.659
13982SOL    HW243844  13.305   2.269   6.782
13983SOL     OW43845   4.295   1.616  11.951
13983SOL    HW143846   4.346   1.640  12.029
13983SOL    HW243847   4.334   1.534  11.922
13984SOL     OW43848  14.848   4.257   2.812
13984SOL    HW143849   0.033   4.211   2.761
13984SOL    HW243850  14.811   4.320   2.751
13985SOL     OW43851  13.830  14.642   0.677
13985SOL    HW143852  13.876  14.565   0.645
13985SOL    HW243853  13.788  14.614   0.758
13986SOL     OW43854   1.368   2.639   4.957
13986SOL    HW143855   1.277   2.658   4.977
13986SOL    HW243856   1.369   2.546   4.934
13987SOL     OW43857   3.047   1.947   0.950
13987SOL    HW143858   2.972   1.934   0.892
13987SOL    HW243859   3.079   1.859   0.968
13988SOL     OW43860   0.050  14.182   1.996
13988SOL    HW143861   0.009  14.259   2.034
13988SOL    HW243862   0.130  14.214   1.956
13989SOL     OW43863   7.198  10.386   1.396
13989SOL    HW143864   7.247  10.397   1.478
13989SOL    HW243865   7.180  10.476   1.367
13990SOL     OW43866   3.155   7.082   6.051
13990SOL    HW143867   3.067   7.118   6.048
13990SOL    HW243868   3.206   7.136   5.991
13991SOL     OW43869   2.000   1.419   4.981
13991SOL    HW143870   2.035   1.330   4.975
13991SOL    HW243871   1.943   1.427   4.905
13992SOL     OW43872   1.243   1.726   8.418
13992SOL    HW143873   1.257   1.635   8.443
13992SOL    HW243874   1.205   1.767   8.495
13993SOL     OW43875  12.991  10.400   7.652
13993SOL    HW143876  13.026  10.383   7.739
13993SOL    HW243877  12.931  10.328   7.636
13994SOL     OW43878  11.557  12.543   8.384
13994SOL    HW143879  11.536  12.451   8.403
13994SOL    HW243880  11.532  12.555   8.292
13995SOL     OW43881  10.578   5.891  13.666
13995SOL    HW143882  10.636   5.965  13.652
13995SOL    HW243883  10.508   5.903  13.603
13996SOL     OW43884  11.228  11.510  12.300
13996SOL    HW143885  11.275  11.429  12.280
13996SOL    HW243886  11.291  11.580  12.280
13997SOL     OW43887   4.009  14.080  10.866
13997SOL    HW143888   4.039  13.989  10.872
13997SOL    HW243889   4.033  14.119  10.950
13998SOL     OW43890  14.347   6.935  10.260
13998SOL    HW143891  14.399   6.863  10.226
13998SOL    HW243892  14.291   6.895  10.327
13999SOL     OW43893   8.991   5.142   9.437
13999SOL    HW143894   8.921   5.129   9.501
13999SOL    HW243895   9.044   5.062   9.441
14000SOL     OW43896   7.028  13.880   7.981
14000SOL    HW143897   7.091  13.812   7.956
14000SOL    HW243898   6.951  13.831   8.010
14001SOL     OW43899  11.768   7.792   2.291
14001SOL    HW143900  11.860   7.802   2.265
14001SOL    HW243901  11.766   7.712   2.342
14002SOL     OW43902   5.317  12.182   7.191
14002SOL    HW143903   5.292  12.252   7.251
14002SOL    HW243904   5.400  12.211   7.153
14003SOL     OW43905   1.770   0.266   8.380
14003SOL    HW143906   1.828   0.272   8.456
14003SOL    HW243907   1.789   0.344   8.328
14004SOL     OW43908  14.249  11.805   1.155
14004SOL    HW143909  14.310  11.772   1.221
14004SOL    HW243910  14.282  11.893   1.134
14005SOL     OW43911   0.862  12.772   1.105
14005SOL    HW143912   0.782  12.732   1.071
14005SOL    HW243913   0.924  12.699   1.112
14006SOL     OW43914   8.412  13.100   8.202
14006SOL    HW143915   8.452  13.085   8.116
14006SOL    HW243916   8.374  13.188   8.196
14007SOL     OW43917  12.902   6.558  10.314
14007SOL    HW143918  12.835   6.606  10.363
14007SOL    HW243919  12.877   6.466  10.323
14008SOL     OW43920  11.508   1.026   8.652
14008SOL    HW143921  11.448   1.095   8.627
14008SOL    HW243922  11.590   1.048   8.609
14009SOL     OW43923   8.884  14.661   4.207
14009SOL    HW143924   8.905  14.580   4.253
14009SOL    HW243925   8.788  14.662   4.203
14010SOL     OW43926   6.228   2.541  11.337
14010SOL    HW143927   6.297   2.522  11.273
14010SOL    HW243928   6.240   2.476  11.406
14011SOL     OW43929  12.763   0.387   8.336
14011SOL    HW143930  12.841   0.333   8.341
14011SOL    HW243931  12.792   0.466   8.289
14012SOL     OW43932  10.415   5.347   6.645
14012SOL    HW143933  10.440   5.426   6.692
14012SOL    HW243934  10.335   5.317   6.688
14013SOL     OW43935  10.560   7.379  12.290
14013SOL    HW143936  10.467   7.356  12.295
14013SOL    HW243937  10.606   7.297  12.306
14014SOL     OW43938  13.254   8.378   0.814
14014SOL    HW143939  13.248   8.436   0.890
14014SOL    HW243940  13.164   8.348   0.799
14015SOL     OW43941   6.202   8.685   4.992
14015SOL    HW143942   6.230   8.726   4.911
14015SOL    HW243943   6.166   8.600   4.965
14016SOL     OW43944   2.941   7.808   6.049
14016SOL    HW143945   2.913   7.893   6.015
14016SOL    HW243946   3.034   7.819   6.067
14017SOL     OW43947   7.331  12.738   0.992
14017SOL    HW143948   7.348  12.648   0.966
14017SOL    HW243949   7.300  12.732   1.082
14018SOL     OW43950  11.922   3.823  11.914
14018SOL    HW143951  11.896   3.758  11.979
14018SOL    HW243952  11.886   3.790  11.832
14019SOL     OW43953   8.456   9.526   7.783
14019SOL    HW143954   8.525   9.585   7.752
14019SOL    HW243955   8.375   9.565   7.749
14020SOL     OW43956   2.779   6.145   8.834
14020SOL    HW143957   2.727   6.219   8.868
14020SOL    HW243958   2.823   6.180   8.756
14021SOL     OW43959   1.766   5.237  14.538
14021SOL    HW143960   1.682   5.206  14.505
14021SOL    HW243961   1.756   5.240  14.633
14022SOL     OW43962  12.533   9.903   8.625
14022SOL    HW143963  12.574   9.852   8.695
14022SOL    HW243964  12.567   9.863   8.544
14023SOL     OW43965   0.904   2.848   1.116
14023SOL    HW143966   0.864   2.861   1.203
14023SOL    HW243967   0.995   2.876   1.128
14024SOL     OW43968   9.497  14.017   5.354
14024SOL    HW143969   9.590  13.994   5.350
14024SOL    HW243970   9.495  14.112   5.344
14025SOL     OW43971   0.665   4.398   6.654
14025SOL    HW143972   0.591   4.423   6.598
14025SOL    HW243973   0.710   4.480   6.674
14026SOL     OW43974  10.281   0.266   1.565
14026SOL    HW143975  10.318   0.342   1.522
14026SOL    HW243976  10.246   0.299   1.648
14027SOL     OW43977   8.019  11.345  13.975
14027SOL    HW143978   7.963  11.279  14.018
14027SOL    HW243979   8.102  11.300  13.961
14028SOL     OW43980   1.443   2.808  10.669
14028SOL    HW143981   1.498   2.887  10.676
14028SOL    HW243982   1.366   2.827  10.722
14029SOL     OW43983   3.112   9.077   1.588
14029SOL    HW143984   3.147   9.039   1.669
14029SOL    HW243985   3.188   9.087   1.531
14030SOL     OW43986  12.622  10.115  13.397
14030SOL    HW143987  12.624  10.026  13.361
14030SOL    HW243988  12.529  10.137  13.398
14031SOL     OW43989   6.660   8.503  12.753
14031SOL    HW143990   6.625   8.443  12.688
14031SOL    HW243991   6.755   8.494  12.744
14032SOL     OW43992   3.433   0.954   3.450
14032SOL    HW143993   3.376   0.906   3.511
14032SOL    HW243994   3.380   1.028   3.421
14033SOL     OW43995   9.110  10.665   0.981
14033SOL    HW143996   9.024  10.697   0.954
14033SOL    HW243997   9.093  10.620   1.064
14034SOL     OW43998   2.112   7.504   3.789
14034SOL    HW143999   2.078   7.486   3.876
14034SOL    HW244000   2.207   7.514   3.802
14035SOL     OW44001  13.144   8.014   7.985
14035SOL    HW144002  13.092   7.970   8.051
14035SOL    HW244003  13.132   8.108   8.004
14036SOL     OW44004   4.171   8.441   9.969
14036SOL    HW144005   4.183   8.502   9.897
14036SOL    HW244006   4.255   8.395   9.976
14037SOL     OW44007   8.965   5.090   4.094
14037SOL    HW144008   8.933   5.078   4.005
14037SOL    HW244009   8.887   5.080   4.150
14038SOL     OW44010  13.149  13.554   4.940
14038SOL    HW144011  13.063  13.598   4.936
14038SOL    HW244012  13.169  13.533   4.849
14039SOL     OW44013   5.938   9.005  12.715
14039SOL    HW144014   5.853   8.982  12.750
14039SOL    HW244015   6.000   8.981  12.784
14040SOL     OW44016  10.861   6.801   4.049
14040SOL    HW144017  10.917   6.725   4.065
14040SOL    HW244018  10.868   6.853   4.128
14041SOL     OW44019  14.171  10.191  14.175
14041SOL    HW144020  14.118  10.269  14.159
14041SOL    HW244021  14.243  10.222  14.230
14042SOL     OW44022   8.557   4.907   0.430
14042SOL    HW144023   8.571   4.998   0.458
14042SOL    HW244024   8.638   4.884   0.385
14043SOL     OW44025   4.397   2.348  12.739
14043SOL    HW144026   4.335   2.286  12.701
14043SOL    HW244027   4.481   2.302  12.735
14044SOL     OW44028   8.894   7.296   6.104
14044SOL    HW144029   8.862   7.282   6.193
14044SOL    HW244030   8.820   7.269   6.049
14045SOL     OW44031  14.390   4.005  12.023
14045SOL    HW144032  14.323   3.939  12.041
14045SOL    HW244033  14.461   3.985  12.084
14046SOL     OW44034   6.383   4.085   9.359
14046SOL    HW144035   6.434   4.042   9.427
14046SOL    HW244036   6.298   4.102   9.399
14047SOL     OW44037   5.077   2.138  14.222
14047SOL    HW144038   5.074   2.060  14.278
14047SOL    HW244039   5.170   2.146  14.199
14048SOL     OW44040   9.153   4.980   3.169
14048SOL    HW144041   9.244   4.999   3.146
14048SOL    HW244042   9.158   4.907   3.230
14049SOL     OW44043   6.327  10.825  11.791
14049SOL    HW144044   6.277  10.890  11.840
14049SOL    HW244045   6.408  10.814  11.841
14050SOL     OW44046   3.726   6.705   9.862
14050SOL    HW144047   3.816   6.728   9.838
14050SOL    HW244048   3.671   6.757   9.803
14051SOL     OW44049  13.638   8.286   7.742
14051SOL    HW144050  13.576   8.215   7.755
14051SOL    HW244051  13.677   8.300   7.829
14052SOL     OW44052   4.973   3.421  10.031
14052SOL    HW144053   4.923   3.373   9.965
14052SOL    HW244054   5.061   3.426   9.995
14053SOL     OW44055   2.241  12.678  10.912
14053SOL    HW144056   2.215  12.586  10.914
14053SOL    HW244057   2.336  12.677  10.912
14054SOL     OW44058   7.178  12.836  11.847
14054SOL    HW144059   7.190  12.860  11.755
14054SOL    HW244060   7.191  12.742  11.849
14055SOL     OW44061   3.086  12.013  13.259
14055SOL    HW144062   3.125  11.936  13.301
14055SOL    HW244063   3.145  12.085  13.282
14056SOL     OW44064   2.123   9.293   8.145
14056SOL    HW144065   2.113   9.232   8.072
14056SOL    HW244066   2.214   9.322   8.140
14057SOL     OW44067   4.606  10.358   9.463
14057SOL    HW144068   4.662  10.351   9.385
14057SOL    HW244069   4.612  10.271   9.504
14058SOL     OW44070  12.025   1.342   3.747
14058SOL    HW144071  11.979   1.342   3.663
14058SOL    HW244072  12.093   1.276   3.738
14059SOL     OW44073   0.687   3.663   3.805
14059SOL    HW144074   0.755   3.693   3.744
14059SOL    HW244075   0.624   3.735   3.807
14060SOL     OW44076   3.027   3.192   7.946
14060SOL    HW144077   2.992   3.223   7.862
14060SOL    HW244078   3.103   3.248   7.962
14061SOL     OW44079   2.909  11.902  13.884
14061SOL    HW144080   2.908  11.824  13.828
14061SOL    HW244081   3.000  11.933  13.880
14062SOL     OW44082   3.605  11.404   6.118
14062SOL    HW144083   3.698  11.399   6.142
14062SOL    HW244084   3.575  11.486   6.156
14063SOL     OW44085   2.076   9.594   8.343
14063SOL    HW144086   2.075   9.664   8.409
14063SOL    HW244087   2.053   9.515   8.392
14064SOL     OW44088   6.063  14.681   2.593
14064SOL    HW144089   6.031  14.756   2.644
14064SOL    HW244090   5.990  14.659   2.534
14065SOL     OW44091   7.475   3.215   8.168
14065SOL    HW144092   7.438   3.246   8.085
14065SOL    HW244093   7.477   3.293   8.223
14066SOL     OW44094   8.323   4.917   3.998
14066SOL    HW144095   8.380   4.993   4.006
14066SOL    HW244096   8.272   4.933   3.919
14067SOL     OW44097   8.702  14.168   5.796
14067SOL    HW144098   8.757  14.244   5.773
14067SOL    HW244099   8.695  14.119   5.714
14068SOL     OW44100   8.070  10.629   2.905
14068SOL    HW144101   8.093  10.655   2.816
14068SOL    HW244102   7.978  10.652   2.914
14069SOL     OW44103   9.367   9.277  14.242
14069SOL    HW144104   9.446   9.231  14.215
14069SOL    HW244105   9.316   9.288  14.161
14070SOL     OW44106  11.154   2.613   7.525
14070SOL    HW144107  11.170   2.660   7.607
14070SOL    HW244108  11.218   2.650   7.464
14071SOL     OW44109   8.144  11.096   9.059
14071SOL    HW144110   8.232  11.095   9.097
14071SOL    HW244111   8.108  11.009   9.079
14072SOL     OW44112   4.159  11.708   1.080
14072SOL    HW144113   4.065  11.711   1.101
14072SOL    HW244114   4.163  11.660   0.997
14073SOL     OW44115  14.873  10.939   7.753
14073SOL    HW144116   0.026  10.862   7.797
14073SOL    HW244117   0.062  10.968   7.695
14074SOL     OW44118   0.864   5.128   1.463
14074SOL    HW144119   0.869   5.042   1.421
14074SOL    HW244120   0.920   5.120   1.540
14075SOL     OW44121   4.643   2.615   2.947
14075SOL    HW144122   4.562   2.665   2.935
14075SOL    HW244123   4.621   2.550   3.014
14076SOL     OW44124   2.851   5.242   1.332
14076SOL    HW144125   2.933   5.202   1.303
14076SOL    HW244126   2.798   5.248   1.252
14077SOL     OW44127   8.928   4.761   7.299
14077SOL    HW144128   8.986   4.718   7.235
14077SOL    HW244129   8.841   4.727   7.279
14078SOL     OW44130   7.765   0.543  11.900
14078SOL    HW144131   7.753   0.597  11.822
14078SOL    HW244132   7.854   0.561  11.929
14079SOL     OW44133   6.434   2.807   1.278
14079SOL    HW144134   6.491   2.732   1.298
14079SOL    HW244135   6.486   2.884   1.302
14080SOL     OW44136   4.587  12.494   7.289
14080SOL    HW144137   4.644  12.420   7.267
14080SOL    HW244138   4.500  12.464   7.265
14081SOL     OW44139   6.952   1.100   8.569
14081SOL    HW144140   6.936   1.193   8.584
14081SOL    HW244141   7.020   1.077   8.633
14082SOL     OW44142   3.194   1.196   9.932
14082SOL    HW144143   3.230   1.283   9.948
14082SOL    HW244144   3.217   1.146  10.010
14083SOL     OW44145  13.308   5.229   1.867
14083SOL    HW144146  13.239   5.190   1.920
14083SOL    HW244147  13.389   5.194   1.904
14084SOL     OW44148   7.692   8.670   4.528
14084SOL    HW144149   7.665   8.659   4.619
14084SOL    HW244150   7.729   8.584   4.504
14085SOL     OW44151   7.175   9.797  14.038
14085SOL    HW144152   7.089   9.832  14.015
14085SOL    HW244153   7.224   9.799  13.956
14086SOL     OW44154   9.828  14.670  10.962
14086SOL    HW144155   9.796  14.715  10.883
14086SOL    HW244156   9.903  14.619  10.931
14087SOL     OW44157   7.405  12.208   0.212
14087SOL    HW144158   7.310  12.201   0.202
14087SOL    HW244159   7.437  12.118   0.208
14088SOL     OW44160   9.747   7.349   9.455
14088SOL    HW144161   9.769   7.412   9.524
14088SOL    HW244162   9.811   7.278   9.467
14089SOL     OW44163  14.126   7.344   7.007
14089SOL    HW144164  14.114   7.398   6.929
14089SOL    HW244165  14.173   7.267   6.976
14090SOL     OW44166   7.244   2.745   4.636
14090SOL    HW144167   7.322   2.800   4.631
14090SOL    HW244168   7.181   2.787   4.579
14091SOL     OW44169   8.055  11.251   1.768
14091SOL    HW144170   7.975  11.300   1.751
14091SOL    HW244171   8.125  11.308   1.738
14092SOL     OW44172  14.247  11.900  14.011
14092SOL    HW144173  14.280  11.850  14.086
14092SOL    HW244174  14.168  11.943  14.045
14093SOL     OW44175   5.286   2.056   1.527
14093SOL    HW144176   5.235   1.999   1.469
14093SOL    HW244177   5.264   2.026   1.615
14094SOL     OW44178   8.417   3.576  14.747
14094SOL    HW144179   8.345   3.563  14.685
14094SOL    HW244180   8.389   3.651  14.799
14095SOL     OW44181   4.310   4.305   5.183
14095SOL    HW144182   4.239   4.295   5.246
14095SOL    HW244183   4.340   4.216   5.167
14096SOL     OW44184  10.719   8.054   9.220
14096SOL    HW144185  10.698   7.967   9.255
14096SOL    HW244186  10.667   8.115   9.272
14097SOL     OW44187  10.042   0.329   7.676
14097SOL    HW144188   9.989   0.393   7.629
14097SOL    HW244189  10.113   0.380   7.716
14098SOL     OW44190   3.827  13.801   6.879
14098SOL    HW144191   3.916  13.802   6.845
14098SOL    HW244192   3.837  13.773   6.970
14099SOL     OW44193   0.336   2.715   8.016
14099SOL    HW144194   0.274   2.650   8.050
14099SOL    HW244195   0.413   2.664   7.991
14100SOL     OW44196  11.528   3.740   9.268
14100SOL    HW144197  11.502   3.761   9.357
14100SOL    HW244198  11.495   3.814   9.216
14101SOL     OW44199  12.948   6.658   8.103
14101SOL    HW144200  12.873   6.651   8.043
14101SOL    HW244201  12.925   6.600   8.176
14102SOL     OW44202  11.096   0.941   9.071
14102SOL    HW144203  11.073   1.033   9.063
14102SOL    HW244204  11.173   0.930   9.015
14103SOL     OW44205   0.404   7.163   0.586
14103SOL    HW144206   0.459   7.143   0.510
14103SOL    HW244207   0.335   7.219   0.551
14104SOL     OW44208  11.970  12.238   3.649
14104SOL    HW144209  11.995  12.329   3.633
14104SOL    HW244210  11.945  12.236   3.741
14105SOL     OW44211  10.702  13.492   2.941
14105SOL    HW144212  10.628  13.551   2.930
14105SOL    HW244213  10.760  13.538   3.002
14106SOL     OW44214   6.237  11.166   4.485
14106SOL    HW144215   6.211  11.252   4.452
14106SOL    HW244216   6.154  11.120   4.502
14107SOL     OW44217   9.579  13.105   3.746
14107SOL    HW144218   9.567  13.045   3.672
14107SOL    HW244219   9.518  13.073   3.812
14108SOL     OW44220   6.696   6.959   1.485
14108SOL    HW144221   6.761   6.933   1.420
14108SOL    HW244222   6.611   6.942   1.443
14109SOL     OW44223   4.321   5.505  10.942
14109SOL    HW144224   4.337   5.599  10.933
14109SOL    HW244225   4.409   5.466  10.940
14110SOL     OW44226   0.358  10.644   9.931
14110SOL    HW144227   0.400  10.582   9.871
14110SOL    HW244228   0.386  10.730   9.901
14111SOL     OW44229   5.404   7.017   0.739
14111SOL    HW144230   5.341   6.945   0.730
14111SOL    HW244231   5.451   7.018   0.657
14112SOL     OW44232   8.109   1.687  13.507
14112SOL    HW144233   8.100   1.699  13.602
14112SOL    HW244234   8.161   1.762  13.478
14113SOL     OW44235   2.748  11.399   4.601
14113SOL    HW144236   2.821  11.387   4.662
14113SOL    HW244237   2.777  11.468   4.541
14114SOL     OW44238   2.281   5.643   4.994
14114SOL    HW144239   2.201   5.595   5.015
14114SOL    HW244240   2.275   5.724   5.044
14115SOL     OW44241   0.550   8.853   5.174
14115SOL    HW144242   0.571   8.946   5.175
14115SOL    HW244243   0.455   8.850   5.173
14116SOL     OW44244   4.235  14.274   9.807
14116SOL    HW144245   4.300  14.320   9.861
14116SOL    HW244246   4.257  14.182   9.817
14117SOL     OW44247   4.156  10.880  12.990
14117SOL    HW144248   4.129  10.792  13.015
14117SOL    HW244249   4.214  10.867  12.915
14118SOL     OW44250   8.736   9.468   3.518
14118SOL    HW144251   8.684   9.389   3.505
14118SOL    HW244252   8.711   9.499   3.605
14119SOL     OW44253  12.957  12.834  14.201
14119SOL    HW144254  12.996  12.811  14.285
14119SOL    HW244255  12.869  12.796  14.204
14120SOL     OW44256   5.814   4.007   5.458
14120SOL    HW144257   5.744   3.942   5.466
14120SOL    HW244258   5.875   3.970   5.395
14121SOL     OW44259   4.890  13.234  12.469
14121SOL    HW144260   4.955  13.302  12.487
14121SOL    HW244261   4.941  13.161  12.435
14122SOL     OW44262   4.682   7.260   1.334
14122SOL    HW144263   4.648   7.194   1.273
14122SOL    HW244264   4.605   7.302   1.370
14123SOL     OW44265   9.033   7.910   8.115
14123SOL    HW144266   9.098   7.933   8.049
14123SOL    HW244267   8.971   7.853   8.070
14124SOL     OW44268   6.617  10.889   1.218
14124SOL    HW144269   6.582  10.854   1.299
14124SOL    HW244270   6.573  10.973   1.207
14125SOL     OW44271   8.237   7.323   4.298
14125SOL    HW144272   8.294   7.246   4.300
14125SOL    HW244273   8.150   7.288   4.277
14126SOL     OW44274  14.622  14.381   9.827
14126SOL    HW144275  14.703  14.346   9.790
14126SOL    HW244276  14.573  14.416   9.753
14127SOL     OW44277   3.531  13.678   2.867
14127SOL    HW144278   3.558  13.586   2.876
14127SOL    HW244279   3.474  13.679   2.790
14128SOL     OW44280   2.896   8.032   5.370
14128SOL    HW144281   2.870   7.953   5.416
14128SOL    HW244282   2.960   8.074   5.427
14129SOL     OW44283  10.918   0.523   3.489
14129SOL    HW144284  10.970   0.602   3.475
14129SOL    HW244285  10.955   0.458   3.429
14130SOL     OW44286   8.037   0.932   6.539
14130SOL    HW144287   8.068   1.023   6.532
14130SOL    HW244288   7.963   0.928   6.478
14131SOL     OW44289   7.077   2.304   0.645
14131SOL    HW144290   7.060   2.352   0.564
14131SOL    HW244291   6.991   2.268   0.669
14132SOL     OW44292   8.167  11.761   4.160
14132SOL    HW144293   8.241  11.716   4.118
14132SOL    HW244294   8.152  11.712   4.241
14133SOL     OW44295   7.098   7.465   8.117
14133SOL    HW144296   7.074   7.520   8.044
14133SOL    HW244297   7.152   7.521   8.173
14134SOL     OW44298   9.921   4.044   7.855
14134SOL    HW144299   9.912   4.137   7.872
14134SOL    HW244300  10.009   4.034   7.818
14135SOL     OW44301   4.050   8.787   8.047
14135SOL    HW144302   4.048   8.734   7.967
14135SOL    HW244303   4.012   8.871   8.021
14136SOL     OW44304   2.141   3.590  11.978
14136SOL    HW144305   2.137   3.625  11.889
14136SOL    HW244306   2.054   3.606  12.014
14137SOL     OW44307  14.876   2.558   8.571
14137SOL    HW144308  14.831   2.631   8.528
14137SOL    HW244309   0.077   2.594   8.600
14138SOL     OW44310   6.436  12.578   6.813
14138SOL    HW144311   6.465  12.668   6.795
14138SOL    HW244312   6.341  12.582   6.807
14139SOL     OW44313   0.333   5.951   6.896
14139SOL    HW144314   0.314   6.012   6.967
14139SOL    HW244315   0.303   5.995   6.817
14140SOL     OW44316  13.405   1.325   3.649
14140SOL    HW144317  13.337   1.383   3.683
14140SOL    HW244318  13.483   1.346   3.700
14141SOL     OW44319   0.781  12.777   2.695
14141SOL    HW144320   0.865  12.792   2.738
14141SOL    HW244321   0.745  12.865   2.682
14142SOL     OW44322   1.212   2.120   1.863
14142SOL    HW144323   1.121   2.119   1.890
14142SOL    HW244324   1.257   2.066   1.928
14143SOL     OW44325  10.208   9.880   9.458
14143SOL    HW144326  10.276   9.922   9.407
14143SOL    HW244327  10.162   9.951   9.502
14144SOL     OW44328  14.308   9.064   2.406
14144SOL    HW144329  14.321   9.029   2.494
14144SOL    HW244330  14.334   8.992   2.348
14145SOL     OW44331   6.832   9.809  14.594
14145SOL    HW144332   6.846   9.886  14.650
14145SOL    HW244333   6.749   9.772  14.624
14146SOL     OW44334   7.542   4.123   6.668
14146SOL    HW144335   7.508   4.192   6.612
14146SOL    HW244336   7.625   4.156   6.701
14147SOL     OW44337   9.058   0.656   2.348
14147SOL    HW144338   9.092   0.627   2.263
14147SOL    HW244339   8.995   0.588   2.373
14148SOL     OW44340   4.056   2.520  11.397
14148SOL    HW144341   4.014   2.446  11.441
14148SOL    HW244342   4.140   2.531  11.443
14149SOL     OW44343   4.379  10.478   9.411
14149SOL    HW144344   4.402  10.567   9.385
14149SOL    HW244345   4.460  10.441   9.445
14150SOL     OW44346  11.126   2.797   7.282
14150SOL    HW144347  11.089   2.884   7.268
14150SOL    HW244348  11.221   2.810   7.274
14151SOL     OW44349  11.709   8.055  10.089
14151SOL    HW144350  11.677   8.143  10.105
14151SOL    HW244351  11.790   8.068  10.039
14152SOL     OW44352  10.137   4.452   0.988
14152SOL    HW144353  10.169   4.368   1.021
14152SOL    HW244354  10.067   4.428   0.927
14153SOL     OW44355   5.354  10.038   1.608
14153SOL    HW144356   5.315  10.122   1.635
14153SOL    HW244357   5.281   9.977   1.608
14154SOL     OW44358   7.340   4.954   2.192
14154SOL    HW144359   7.378   5.016   2.130
14154SOL    HW244360   7.375   4.980   2.277
14155SOL     OW44361  12.979  13.700   2.122
14155SOL    HW144362  12.916  13.630   2.141
14155SOL    HW244363  12.925  13.779   2.112
14156SOL     OW44364   1.924  11.596   6.892
14156SOL    HW144365   1.830  11.616   6.890
14156SOL    HW244366   1.931  11.526   6.957
14157SOL     OW44367  12.283   3.385  13.961
14157SOL    HW144368  12.281   3.429  14.046
14157SOL    HW244369  12.374   3.358  13.950
14158SOL     OW44370   6.055   6.783   1.983
14158SOL    HW144371   5.992   6.733   2.034
14158SOL    HW244372   6.102   6.717   1.932
14159SOL     OW44373   2.505  14.801   8.813
14159SOL    HW144374   2.502  14.719   8.862
14159SOL    HW244375   2.503  14.869   8.880
14160SOL     OW44376  14.495   4.098   7.673
14160SOL    HW144377  14.562   4.079   7.740
14160SOL    HW244378  14.452   4.177   7.705
14161SOL     OW44379   0.610  10.315   7.431
14161SOL    HW144380   0.629  10.311   7.337
14161SOL    HW244381   0.690  10.348   7.470
14162SOL     OW44382  11.521   5.398   6.792
14162SOL    HW144383  11.426   5.400   6.798
14162SOL    HW244384  11.542   5.461   6.724
14163SOL     OW44385   2.258  14.558   8.598
14163SOL    HW144386   2.260  14.504   8.677
14163SOL    HW244387   2.349  14.586   8.586
14164SOL     OW44388   7.702   4.391  11.582
14164SOL    HW144389   7.626   4.449  11.592
14164SOL    HW244390   7.769   4.429  11.639
14165SOL     OW44391  14.212  13.610   6.389
14165SOL    HW144392  14.160  13.691   6.398
14165SOL    HW244393  14.294  13.630   6.434
14166SOL     OW44394  10.710  12.692   1.396
14166SOL    HW144395  10.739  12.762   1.338
14166SOL    HW244396  10.628  12.724   1.433
14167SOL     OW44397  11.732   3.090   4.401
14167SOL    HW144398  11.758   3.129   4.485
14167SOL    HW244399  11.693   3.163   4.352
14168SOL     OW44400  10.271   9.613   7.116
14168SOL    HW144401  10.242   9.667   7.042
14168SOL    HW244402  10.287   9.676   7.186
14169SOL     OW44403   2.896   0.557  13.068
14169SOL    HW144404   2.917   0.546  13.161
14169SOL    HW244405   2.946   0.488  13.024
14170SOL     OW44406  11.745  12.490   2.312
14170SOL    HW144407  11.815  12.454   2.258
14170SOL    HW244408  11.742  12.433   2.389
14171SOL     OW44409   3.125  13.990  11.769
14171SOL    HW144410   3.165  13.963  11.852
14171SOL    HW244411   3.174  14.069  11.744
14172SOL     OW44412   4.719   8.218  13.224
14172SOL    HW144413   4.804   8.206  13.268
14172SOL    HW244414   4.742   8.242  13.134
14173SOL     OW44415   1.390   7.499   6.317
14173SOL    HW144416   1.360   7.586   6.342
14173SOL    HW244417   1.411   7.456   6.400
14174SOL     OW44418   7.896   4.149   9.497
14174SOL    HW144419   7.802   4.167   9.498
14174SOL    HW244420   7.903   4.057   9.473
14175SOL     OW44421   4.899   3.226  12.166
14175SOL    HW144422   4.831   3.205  12.229
14175SOL    HW244423   4.873   3.311  12.130
14176SOL     OW44424  12.229   8.822   0.131
14176SOL    HW144425  12.251   8.733   0.103
14176SOL    HW244426  12.190   8.811   0.218
14177SOL     OW44427  13.844  13.379  11.958
14177SOL    HW144428  13.916  13.380  12.022
14177SOL    HW244429  13.868  13.309  11.897
14178SOL     OW44430  12.974   0.972   0.229
14178SOL    HW144431  13.019   1.051   0.260
14178SOL    HW244432  12.920   1.002   0.157
14179SOL     OW44433   6.908   4.548   1.904
14179SOL    HW144434   6.818   4.565   1.931
14179SOL    HW244435   6.952   4.519   1.984
14180SOL     OW44436   8.564   1.041   2.887
14180SOL    HW144437   8.534   1.099   2.818
14180SOL    HW244438   8.640   1.086   2.924
14181SOL     OW44439   0.855   1.961   3.552
14181SOL    HW144440   0.817   2.047   3.535
14181SOL    HW244441   0.945   1.979   3.579
14182SOL     OW44442   5.969  10.679   7.436
14182SOL    HW144443   5.903  10.650   7.372
14182SOL    HW244444   6.051  10.683   7.386
14183SOL     OW44445  13.562   3.048   4.467
14183SOL    HW144446  13.483   3.045   4.521
14183SOL    HW244447  13.531   3.038   4.377
14184SOL     OW44448  14.380   0.195   8.129
14184SOL    HW144449  14.291   0.229   8.145
14184SOL    HW244450  14.369   0.135   8.056
14185SOL     OW44451  12.159  14.329  10.679
14185SOL    HW144452  12.195  14.401  10.628
14185SOL    HW244453  12.231  14.266  10.687
14186SOL     OW44454   7.529   5.173   9.060
14186SOL    HW144455   7.615   5.201   9.030
14186SOL    HW244456   7.468   5.214   8.998
14187SOL     OW44457   8.047  14.378   8.952
14187SOL    HW144458   8.138  14.354   8.969
14187SOL    HW244459   8.017  14.419   9.033
14188SOL     OW44460  14.450   9.191   7.898
14188SOL    HW144461  14.487   9.197   7.985
14188SOL    HW244462  14.478   9.106   7.865
14189SOL     OW44463   7.661  12.831   5.319
14189SOL    HW144464   7.624  12.918   5.337
14189SOL    HW244465   7.599  12.770   5.360
14190SOL     OW44466  10.482   2.391   5.583
14190SOL    HW144467  10.410   2.334   5.611
14190SOL    HW244468  10.548   2.381   5.652
14191SOL     OW44469   0.008   2.528   4.499
14191SOL    HW144470   0.063   2.598   4.466
14191SOL    HW244471  14.802   2.550   4.469
14192SOL     OW44472  12.865   8.462  11.378
14192SOL    HW144473  12.789   8.405  11.392
14192SOL    HW244474  12.868   8.518  11.455
14193SOL     OW44475   8.161  10.893   5.996
14193SOL    HW144476   8.224  10.890   5.923
14193SOL    HW244477   8.209  10.934   6.068
14194SOL     OW44478   8.395   2.133   1.863
14194SOL    HW144479   8.488   2.124   1.841
14194SOL    HW244480   8.394   2.136   1.959
14195SOL     OW44481   9.172   4.868   7.698
14195SOL    HW144482   9.142   4.858   7.789
14195SOL    HW244483   9.118   4.807   7.648
14196SOL     OW44484   8.308  12.369  13.851
14196SOL    HW144485   8.398  12.401  13.850
14196SOL    HW244486   8.258  12.441  13.889
14197SOL     OW44487  11.996   0.167   5.145
14197SOL    HW144488  12.062   0.200   5.084
14197SOL    HW244489  12.031   0.189   5.232
14198SOL     OW44490  13.869   8.185   7.086
14198SOL    HW144491  13.933   8.228   7.143
14198SOL    HW244492  13.902   8.200   6.997
14199SOL     OW44493   3.582   9.754   1.777
14199SOL    HW144494   3.537   9.810   1.714
14199SOL    HW244495   3.553   9.784   1.863
14200SOL     OW44496   0.030  13.140  10.197
14200SOL    HW144497   0.064  13.056  10.227
14200SOL    HW244498   0.031  13.196  10.274
14201SOL     OW44499   0.989   7.312  12.291
14201SOL    HW144500   1.056   7.244  12.300
14201SOL    HW244501   1.035   7.386  12.253
14202SOL     OW44502  13.419   9.784   3.728
14202SOL    HW144503  13.480   9.837   3.676
14202SOL    HW244504  13.410   9.702   3.680
14203SOL     OW44505  11.724   2.374  10.457
14203SOL    HW144506  11.658   2.339  10.397
14203SOL    HW244507  11.718   2.469  10.446
14204SOL     OW44508   4.762   3.261   4.379
14204SOL    HW144509   4.721   3.324   4.439
14204SOL    HW244510   4.854   3.289   4.375
14205SOL     OW44511  10.397  12.640   5.117
14205SOL    HW144512  10.458  12.596   5.176
14205SOL    HW244513  10.310  12.609   5.146
14206SOL     OW44514   8.493   8.477  13.369
14206SOL    HW144515   8.549   8.426  13.426
14206SOL    HW244516   8.523   8.457  13.281
14207SOL     OW44517   4.967   2.260   8.134
14207SOL    HW144518   5.060   2.240   8.146
14207SOL    HW244519   4.959   2.352   8.160
14208SOL     OW44520   9.563   6.813  13.154
14208SOL    HW144521   9.544   6.767  13.072
14208SOL    HW244522   9.559   6.906  13.131
14209SOL     OW44523   1.209   5.384   8.579
14209SOL    HW144524   1.263   5.376   8.500
14209SOL    HW244525   1.241   5.315   8.636
14210SOL     OW44526  10.338  12.748   1.066
14210SOL    HW144527  10.371  12.670   1.021
14210SOL    HW244528  10.328  12.720   1.157
14211SOL     OW44529   4.651   9.170  10.147
14211SOL    HW144530   4.741   9.146  10.125
14211SOL    HW244531   4.644   9.152  10.241
14212SOL     OW44532   3.114  12.065   6.720
14212SOL    HW144533   3.166  11.985   6.715
14212SOL    HW244534   3.121  12.092   6.812
14213SOL     OW44535   5.229   8.274   0.553
14213SOL    HW144536   5.197   8.318   0.631
14213SOL    HW244537   5.208   8.333   0.481
14214SOL     OW44538   4.666   0.801  12.498
14214SOL    HW144539   4.724   0.813  12.423
14214SOL    HW244540   4.722   0.759  12.564
14215SOL     OW44541   8.139   5.951   5.028
14215SOL    HW144542   8.160   6.036   4.989
14215SOL    HW244543   8.219   5.924   5.072
14216SOL     OW44544   8.351   4.591  11.502
14216SOL    HW144545   8.357   4.531  11.576
14216SOL    HW244546   8.436   4.635  11.500
14217SOL     OW44547  13.089  13.901  13.941
14217SOL    HW144548  12.993  13.893  13.945
14217SOL    HW244549  13.122  13.820  13.979
14218SOL     OW44550   0.794   4.925   2.428
14218SOL    HW144551   0.739   4.883   2.363
14218SOL    HW244552   0.874   4.948   2.381
14219SOL     OW44553  13.302  10.136  13.777
14219SOL    HW144554  13.351  10.154  13.857
14219SOL    HW244555  13.343  10.192  13.710
14220SOL     OW44556   7.190   8.197  14.570
14220SOL    HW144557   7.229   8.226  14.652
14220SOL    HW244558   7.108   8.247  14.563
14221SOL     OW44559   9.894   6.113   8.250
14221SOL    HW144560   9.814   6.125   8.199
14221SOL    HW244561   9.940   6.042   8.206
14222SOL     OW44562  11.476  11.395   3.590
14222SOL    HW144563  11.541  11.444   3.538
14222SOL    HW244564  11.520  11.313   3.611
14223SOL     OW44565   0.620   1.405  10.646
14223SOL    HW144566   0.661   1.483  10.608
14223SOL    HW244567   0.534   1.400  10.604
14224SOL     OW44568  14.805   4.661   0.410
14224SOL    HW144569  14.794   4.670   0.315
14224SOL    HW244570  14.718   4.681   0.446
14225SOL     OW44571  12.785   5.976  12.884
14225SOL    HW144572  12.743   5.905  12.931
14225SOL    HW244573  12.728   6.051  12.897
14226SOL     OW44574   9.344   4.055  13.952
14226SOL    HW144575   9.282   4.070  14.023
14226SOL    HW244576   9.304   3.986  13.899
14227SOL     OW44577  13.867  12.095   2.501
14227SOL    HW144578  13.900  12.064   2.586
14227SOL    HW244579  13.942  12.140   2.461
14228SOL     OW44580  14.735  10.237   9.148
14228SOL    HW144581  14.660  10.280   9.108
14228SOL    HW244582  14.784  10.308   9.190
14229SOL     OW44583   6.050   1.346   9.700
14229SOL    HW144584   6.139   1.379   9.709
14229SOL    HW244585   6.052   1.294   9.619
14230SOL     OW44586   3.648   2.399  12.638
14230SOL    HW144587   3.578   2.432  12.582
14230SOL    HW244588   3.723   2.390  12.579
14231SOL     OW44589   1.404   3.792   9.935
14231SOL    HW144590   1.483   3.824   9.979
14231SOL    HW244591   1.432   3.775   9.845
14232SOL     OW44592   8.087   6.045   1.799
14232SOL    HW144593   8.179   6.020   1.793
14232SOL    HW244594   8.089   6.141   1.803
14233SOL     OW44595   5.660  12.505  12.131
14233SOL    HW144596   5.697  12.417  12.135
14233SOL    HW244597   5.617  12.510  12.045
14234SOL     OW44598   3.452   0.002  12.785
14234SOL    HW144599   3.404   0.084  12.772
14234SOL    HW244600   3.384  14.819  12.804
14235SOL     OW44601   8.896   9.423   9.787
14235SOL    HW144602   8.881   9.488   9.856
14235SOL    HW244603   8.808   9.399   9.757
14236SOL     OW44604  14.450   8.903   1.046
14236SOL    HW144605  14.512   8.955   1.098
14236SOL    HW244606  14.389   8.867   1.110
14237SOL     OW44607   6.506   5.436   3.370
14237SOL    HW144608   6.591   5.477   3.354
14237SOL    HW244609   6.511   5.403   3.460
14238SOL     OW44610   7.224   1.337   3.929
14238SOL    HW144611   7.210   1.367   3.839
14238SOL    HW244612   7.282   1.262   3.921
14239SOL     OW44613   3.016   1.329   4.430
14239SOL    HW144614   3.097   1.364   4.467
14239SOL    HW244615   3.044   1.278   4.354
14240SOL     OW44616   1.813   7.182   6.059
14240SOL    HW144617   1.737   7.127   6.042
14240SOL    HW244618   1.780   7.271   6.054
14241SOL     OW44619   1.996   8.827   1.619
14241SOL    HW144620   2.053   8.877   1.677
14241SOL    HW244621   2.055   8.787   1.556
14242SOL     OW44622  14.333   2.132  10.446
14242SOL    HW144623  14.394   2.058  10.444
14242SOL    HW244624  14.331   2.163  10.355
14243SOL     OW44625   9.164  10.900   5.954
14243SOL    HW144626   9.090  10.865   6.004
14243SOL    HW244627   9.190  10.828   5.897
14244SOL     OW44628   0.074   6.363   2.455
14244SOL    HW144629   0.085   6.275   2.493
14244SOL    HW244630   0.125   6.420   2.512
14245SOL     OW44631   2.217  11.100   9.381
14245SOL    HW144632   2.192  11.009   9.361
14245SOL    HW244633   2.273  11.093   9.459
14246SOL     OW44634  13.020   8.477  13.262
14246SOL    HW144635  12.964   8.493  13.186
14246SOL    HW244636  13.031   8.564  13.302
14247SOL     OW44637   0.086   8.621   3.414
14247SOL    HW144638   0.034   8.674   3.475
14247SOL    HW244639   0.021   8.580   3.357
14248SOL     OW44640  12.807   2.473   5.414
14248SOL    HW144641  12.866   2.432   5.350
14248SOL    HW244642  12.775   2.400   5.467
14249SOL     OW44643   6.849   3.427   7.634
14249SOL    HW144644   6.933   3.429   7.681
14249SOL    HW244645   6.859   3.493   7.565
14250SOL     OW44646   4.577   1.748   6.950
14250SOL    HW144647   4.507   1.683   6.942
14250SOL    HW244648   4.649   1.711   6.899
14251SOL     OW44649   1.025  11.388   5.207
14251SOL    HW144650   1.014  11.476   5.242
14251SOL    HW244651   1.064  11.338   5.279
14252SOL     OW44652  10.922   2.251   4.567
14252SOL    HW144653  11.012   2.223   4.549
14252SOL    HW244654  10.926   2.346   4.569
14253SOL     OW44655  10.356   5.387   1.630
14253SOL    HW144656  10.444   5.411   1.662
14253SOL    HW244657  10.308   5.364   1.709
14254SOL     OW44658   5.389  11.748   8.047
14254SOL    HW144659   5.299  11.771   8.022
14254SOL    HW244660   5.379  11.709   8.134
14255SOL     OW44661   5.441  12.878   5.683
14255SOL    HW144662   5.416  12.959   5.728
14255SOL    HW244663   5.535  12.885   5.673
14256SOL     OW44664  13.317   4.411  13.305
14256SOL    HW144665  13.255   4.439  13.373
14256SOL    HW244666  13.289   4.457  13.226
14257SOL     OW44667   9.509  11.829  12.978
14257SOL    HW144668   9.518  11.754  12.920
14257SOL    HW244669   9.599  11.856  12.998
14258SOL     OW44670  14.762   4.209   4.012
14258SOL    HW144671  14.822   4.268   3.967
14258SOL    HW244672  14.818   4.146   4.057
14259SOL     OW44673   2.119   5.976  14.136
14259SOL    HW144674   2.122   6.070  14.122
14259SOL    HW244675   2.118   5.938  14.048
14260SOL     OW44676   2.804   6.665   0.368
14260SOL    HW144677   2.818   6.641   0.276
14260SOL    HW244678   2.711   6.688   0.373
14261SOL     OW44679   9.997  13.934   3.164
14261SOL    HW144680   9.934  13.870   3.129
14261SOL    HW244681  10.046  13.964   3.087
14262SOL     OW44682  11.380  12.258   4.099
14262SOL    HW144683  11.418  12.313   4.168
14262SOL    HW244684  11.300  12.304   4.073
14263SOL     OW44685  14.876  10.444  13.866
14263SOL    HW144686   0.013  10.396  13.947
14263SOL    HW244687  14.837  10.526  13.896
14264SOL     OW44688   5.117   4.893   5.474
14264SOL    HW144689   5.112   4.966   5.413
14264SOL    HW244690   5.122   4.815   5.418
14265SOL     OW44691   0.981   0.403   8.069
14265SOL    HW144692   0.935   0.481   8.040
14265SOL    HW244693   0.950   0.333   8.011
14266SOL     OW44694  13.150   2.534  13.886
14266SOL    HW144695  13.188   2.452  13.857
14266SOL    HW244696  13.104   2.512  13.967
14267SOL     OW44697   8.247  14.366  11.129
14267SOL    HW144698   8.178  14.327  11.182
14267SOL    HW244699   8.252  14.457  11.159
14268SOL     OW44700   3.316  11.801   4.850
14268SOL    HW144701   3.381  11.746   4.895
14268SOL    HW244702   3.258  11.830   4.920
14269SOL     OW44703  14.542   4.015   3.606
14269SOL    HW144704  14.601   3.993   3.534
14269SOL    HW244705  14.562   4.107   3.625
14270SOL     OW44706   6.579   5.702   5.870
14270SOL    HW144707   6.647   5.769   5.878
14270SOL    HW244708   6.603   5.652   5.792
14271SOL     OW44709  13.538   1.081   2.457
14271SOL    HW144710  13.537   1.002   2.402
14271SOL    HW244711  13.447   1.092   2.484
14272SOL     OW44712   7.844   3.199   1.597
14272SOL    HW144713   7.761   3.188   1.552
14272SOL    HW244714   7.891   3.117   1.582
14273SOL     OW44715  13.346   3.607  10.497
14273SOL    HW144716  13.362   3.534  10.438
14273SOL    HW244717  13.260   3.588  10.535
14274SOL     OW44718  13.144  13.265   6.957
14274SOL    HW144719  13.106  13.345   6.995
14274SOL    HW244720  13.151  13.285   6.863
14275SOL     OW44721   0.013   0.063   1.324
14275SOL    HW144722  14.843   0.000   1.375
14275SOL    HW244723  14.840   0.141   1.320
14276SOL     OW44724   8.636   2.213  10.844
14276SOL    HW144725   8.645   2.130  10.797
14276SOL    HW244726   8.565   2.259  10.799
14277SOL     OW44727   9.358  14.627  12.279
14277SOL    HW144728   9.329  14.543  12.243
14277SOL    HW244729   9.288  14.688  12.258
14278SOL     OW44730  12.412  11.712  12.994
14278SOL    HW144731  12.319  11.693  12.983
14278SOL    HW244732  12.455  11.628  12.984
14279SOL     OW44733   8.610   7.028   3.558
14279SOL    HW144734   8.557   7.108   3.561
14279SOL    HW244735   8.548   6.957   3.571
14280SOL     OW44736  10.996   2.285   3.550
14280SOL    HW144737  10.914   2.275   3.503
14280SOL    HW244738  10.991   2.373   3.588
14281SOL     OW44739   7.217   7.440   9.257
14281SOL    HW144740   7.144   7.474   9.309
14281SOL    HW244741   7.240   7.357   9.299
14282SOL     OW44742  12.033   1.144  14.058
14282SOL    HW144743  12.009   1.237  14.066
14282SOL    HW244744  12.034   1.128  13.964
14283SOL     OW44745   1.958   2.981   4.647
14283SOL    HW144746   1.959   2.889   4.673
14283SOL    HW244747   1.876   2.991   4.599
14284SOL     OW44748   2.689  13.513   6.682
14284SOL    HW144749   2.744  13.589   6.663
14284SOL    HW244750   2.728  13.474   6.760
14285SOL     OW44751   8.628  13.435   4.270
14285SOL    HW144752   8.585  13.386   4.200
14285SOL    HW244753   8.562  13.497   4.300
14286SOL     OW44754  11.758   7.512  12.002
14286SOL    HW144755  11.755   7.464  12.085
14286SOL    HW244756  11.816   7.586  12.019
14287SOL     OW44757   9.625   3.952  14.293
14287SOL    HW144758   9.602   3.864  14.264
14287SOL    HW244759   9.656   3.996  14.214
14288SOL     OW44760  14.677  10.693   6.822
14288SOL    HW144761  14.589  10.702   6.858
14288SOL    HW244762  14.670  10.622   6.758
14289SOL     OW44763  14.295  10.346  12.747
14289SOL    HW144764  14.313  10.258  12.713
14289SOL    HW244765  14.227  10.333  12.812
14290SOL     OW44766   0.157  14.634   1.644
14290SOL    HW144767   0.124  14.551   1.608
14290SOL    HW244768   0.186  14.683   1.567
14291SOL     OW44769  11.697  11.330   7.436
14291SOL    HW144770  11.724  11.309   7.346
14291SOL    HW244771  11.729  11.420   7.450
14292SOL     OW44772   3.366  11.885   3.623
14292SOL    HW144773   3.441  11.940   3.645
14292SOL    HW244774   3.359  11.823   3.695
14293SOL     OW44775   2.108   4.093   5.046
14293SOL    HW144776   2.195   4.055   5.030
14293SOL    HW244777   2.049   4.041   4.992
14294SOL     OW44778   8.563   2.709   0.027
14294SOL    HW144779   8.473   2.677   0.022
14294SOL    HW244780   8.568   2.754   0.112
14295SOL     OW44781   5.638   6.124   0.762
14295SOL    HW144782   5.570   6.144   0.828
14295SOL    HW244783   5.590   6.122   0.679
14296SOL     OW44784   7.331  14.675   4.411
14296SOL    HW144785   7.372  14.648   4.494
14296SOL    HW244786   7.349  14.768   4.405
14297SOL     OW44787   1.300   5.871   3.352
14297SOL    HW144788   1.287   5.895   3.444
14297SOL    HW244789   1.360   5.937   3.318
14298SOL     OW44790   4.714   8.461   1.430
14298SOL    HW144791   4.745   8.534   1.484
14298SOL    HW244792   4.635   8.495   1.387
14299SOL     OW44793  11.682   7.228  12.854
14299SOL    HW144794  11.626   7.292  12.898
14299SOL    HW244795  11.620   7.164  12.819
14300SOL     OW44796   1.935   0.255   1.088
14300SOL    HW144797   2.027   0.241   1.065
14300SOL    HW244798   1.891   0.176   1.058
14301SOL     OW44799   0.849   7.101   5.734
14301SOL    HW144800   0.768   7.139   5.702
14301SOL    HW244801   0.897   7.076   5.655
14302SOL     OW44802   7.714  11.711   9.833
14302SOL    HW144803   7.806  11.725   9.857
14302SOL    HW244804   7.666  11.777   9.882
14303SOL     OW44805   6.853   8.598   6.216
14303SOL    HW144806   6.779   8.640   6.172
14303SOL    HW244807   6.871   8.654   6.291
14304SOL     OW44808   5.677   9.523  13.438
14304SOL    HW144809   5.770   9.530  13.415
14304SOL    HW244810   5.639   9.470  13.368
14305SOL     OW44811   1.474  10.441   9.614
14305SOL    HW144812   1.479  10.449   9.519
14305SOL    HW244813   1.386  10.409   9.631
14306SOL     OW44814   0.009  14.197   0.566
14306SOL    HW144815   0.081  14.217   0.626
14306SOL    HW244816   0.022  14.255   0.492
14307SOL     OW44817   8.811   2.329   0.761
14307SOL    HW144818   8.724   2.358   0.732
14307SOL    HW244819   8.801   2.235   0.776
14308SOL     OW44820   3.135   9.663   5.346
14308SOL    HW144821   3.150   9.740   5.402
14308SOL    HW244822   3.150   9.695   5.257
14309SOL     OW44823   0.642   1.411   1.359
14309SOL    HW144824   0.637   1.357   1.438
14309SOL    HW244825   0.682   1.493   1.389
14310SOL     OW44826   5.554  10.193   1.739
14310SOL    HW144827   5.493  10.266   1.740
14310SOL    HW244828   5.527  10.140   1.663
14311SOL     OW44829  13.632  14.677   2.730
14311SOL    HW144830  13.646  14.715   2.644
14311SOL    HW244831  13.720  14.653   2.761
14312SOL     OW44832   5.594   0.129   2.099
14312SOL    HW144833   5.643   0.061   2.053
14312SOL    HW244834   5.529   0.081   2.151
14313SOL     OW44835   2.453  10.186   8.710
14313SOL    HW144836   2.429  10.277   8.696
14313SOL    HW244837   2.541  10.178   8.672
14314SOL     OW44838  14.865   1.215  13.517
14314SOL    HW144839  14.871   1.271  13.594
14314SOL    HW244840  14.800   1.148  13.541
14315SOL     OW44841   0.630   5.914   6.522
14315SOL    HW144842   0.595   6.003   6.520
14315SOL    HW244843   0.694   5.915   6.593
14316SOL     OW44844  12.273  10.125   2.466
14316SOL    HW144845  12.241  10.038   2.490
14316SOL    HW244846  12.238  10.139   2.378
14317SOL     OW44847   8.775   8.797   8.109
14317SOL    HW144848   8.729   8.829   8.187
14317SOL    HW244849   8.759   8.863   8.042
14318SOL     OW44850   9.421   2.100   9.608
14318SOL    HW144851   9.345   2.071   9.557
14318SOL    HW244852   9.469   2.020   9.627
14319SOL     OW44853  12.398  11.930  11.113
14319SOL    HW144854  12.440  11.879  11.044
14319SOL    HW244855  12.351  11.866  11.165
14320SOL     OW44856   5.102   0.658   1.323
14320SOL    HW144857   5.038   0.708   1.373
14320SOL    HW244858   5.186   0.680   1.362
14321SOL     OW44859  12.916   5.069  12.037
14321SOL    HW144860  12.825   5.092  12.018
14321SOL    HW244861  12.911   5.016  12.117
14322SOL     OW44862   5.030   8.337   1.624
14322SOL    HW144863   4.995   8.258   1.584
14322SOL    HW244864   5.026   8.403   1.554
14323SOL     OW44865  10.453  11.076   8.078
14323SOL    HW144866  10.437  10.981   8.080
14323SOL    HW244867  10.501  11.093   8.159
14324SOL     OW44868   6.121   3.944   3.318
14324SOL    HW144869   6.196   3.974   3.267
14324SOL    HW244870   6.141   3.853   3.340
14325SOL     OW44871   8.299   1.050  11.391
14325SOL    HW144872   8.365   0.999  11.344
14325SOL    HW244873   8.320   1.141  11.371
14326SOL     OW44874   3.516   6.474   6.510
14326SOL    HW144875   3.541   6.541   6.573
14326SOL    HW244876   3.421   6.471   6.514
14327SOL     OW44877  10.736   0.843   7.228
14327SOL    HW144878  10.689   0.762   7.245
14327SOL    HW244879  10.828   0.821   7.243
14328SOL     OW44880   6.281   8.551  11.286
14328SOL    HW144881   6.318   8.495  11.219
14328SOL    HW244882   6.250   8.628  11.239
14329SOL     OW44883  14.429   9.476  10.222
14329SOL    HW144884  14.449   9.550  10.165
14329SOL    HW244885  14.476   9.402  10.183
14330SOL     OW44886   2.872  14.792   1.796
14330SOL    HW144887   2.875  14.769   1.703
14330SOL    HW244888   2.783  14.824   1.810
14331SOL     OW44889  10.205   1.687   8.266
14331SOL    HW144890  10.134   1.715   8.208
14331SOL    HW244891  10.161   1.665   8.348
14332SOL     OW44892   9.473  10.608   5.973
14332SOL    HW144893   9.379  10.620   5.967
14332SOL    HW244894   9.510  10.691   5.943
14333SOL     OW44895   5.800   9.647  14.250
14333SOL    HW144896   5.830   9.556  14.241
14333SOL    HW244897   5.764   9.651  14.339
14334SOL     OW44898  13.916   3.743   9.368
14334SOL    HW144899  13.831   3.774   9.398
14334SOL    HW244900  13.980   3.796   9.416
14335SOL     OW44901   5.086   0.250   1.086
14335SOL    HW144902   5.032   0.172   1.101
14335SOL    HW244903   5.077   0.301   1.167
14336SOL     OW44904  11.610   4.100   3.396
14336SOL    HW144905  11.645   4.083   3.483
14336SOL    HW244906  11.685   4.087   3.337
14337SOL     OW44907  14.662   7.709   2.591
14337SOL    HW144908  14.701   7.769   2.654
14337SOL    HW244909  14.615   7.766   2.530
14338SOL     OW44910   3.022  13.388  11.204
14338SOL    HW144911   3.101  13.336  11.218
14338SOL    HW244912   3.021  13.449  11.278
14339SOL     OW44913   1.949  10.219   7.726
14339SOL    HW144914   1.885  10.284   7.753
14339SOL    HW244915   2.031  10.248   7.763
14340SOL     OW44916   8.786   1.313  10.540
14340SOL    HW144917   8.859   1.320  10.601
14340SOL    HW244918   8.711   1.290  10.595
14341SOL     OW44919  12.082   9.586   4.558
14341SOL    HW144920  12.050   9.591   4.648
14341SOL    HW244921  12.139   9.662   4.548
14342SOL     OW44922  12.179   3.160   8.018
14342SOL    HW144923  12.203   3.252   8.032
14342SOL    HW244924  12.122   3.139   8.092
14343SOL     OW44925   6.255   0.309  12.198
14343SOL    HW144926   6.258   0.246  12.270
14343SOL    HW244927   6.237   0.256  12.120
14344SOL     OW44928  10.068   4.934   6.999
14344SOL    HW144929  10.092   4.926   7.092
14344SOL    HW244930  10.146   4.905   6.952
14345SOL     OW44931   5.338  12.784  12.072
14345SOL    HW144932   5.319  12.739  12.154
14345SOL    HW244933   5.338  12.714  12.006
14346SOL     OW44934   5.508   8.890  11.798
14346SOL    HW144935   5.512   8.874  11.704
14346SOL    HW244936   5.591   8.856  11.832
14347SOL     OW44937   0.373  12.212  14.305
14347SOL    HW144938   0.406  12.302  14.310
14347SOL    HW244939   0.451  12.160  14.285
14348SOL     OW44940   8.172   3.047   9.002
14348SOL    HW144941   8.236   3.110   8.971
14348SOL    HW244942   8.113   3.098   9.057
14349SOL     OW44943  11.241   7.953  13.056
14349SOL    HW144944  11.205   8.007  13.126
14349SOL    HW244945  11.275   7.876  13.100
14350SOL     OW44946   7.510  11.827  10.262
14350SOL    HW144947   7.595  11.828  10.220
14350SOL    HW244948   7.474  11.914  10.246
14351SOL     OW44949  11.316   1.924   1.270
14351SOL    HW144950  11.355   1.901   1.355
14351SOL    HW244951  11.262   1.848   1.247
14352SOL     OW44952   0.391   1.947   5.719
14352SOL    HW144953   0.450   1.930   5.793
14352SOL    HW244954   0.388   2.042   5.713
14353SOL     OW44955   9.526   3.613   1.105
14353SOL    HW144956   9.446   3.655   1.137
14353SOL    HW244957   9.573   3.586   1.183
14354SOL     OW44958   9.609   1.264  14.423
14354SOL    HW144959   9.567   1.319  14.357
14354SOL    HW244960   9.702   1.271  14.404
14355SOL     OW44961  14.426  14.180  14.792
14355SOL    HW144962  14.449  14.139  14.875
14355SOL    HW244963  14.477  14.132  14.727
14356SOL     OW44964   7.688   1.014  14.265
14356SOL    HW144965   7.780   1.010  14.291
14356SOL    HW244966   7.669   0.927  14.230
14357SOL     OW44967   5.216  10.344   2.900
14357SOL    HW144968   5.183  10.274   2.842
14357SOL    HW244969   5.292  10.379   2.854
14358SOL     OW44970   3.927  11.498   6.860
14358SOL    HW144971   3.948  11.415   6.817
14358SOL    HW244972   3.987  11.561   6.820
14359SOL     OW44973   3.592   1.697   6.792
14359SOL    HW144974   3.636   1.766   6.841
14359SOL    HW244975   3.599   1.725   6.700
14360SOL     OW44976   1.125   9.233   8.648
14360SOL    HW144977   1.172   9.300   8.598
14360SOL    HW244978   1.084   9.178   8.582
14361SOL     OW44979  12.733  10.711   5.591
14361SOL    HW144980  12.712  10.779   5.527
14361SOL    HW244981  12.806  10.748   5.641
14362SOL     OW44982   7.597  10.854   4.292
14362SOL    HW144983   7.639  10.918   4.348
14362SOL    HW244984   7.516  10.831   4.338
14363SOL     OW44985   4.335   8.058  10.419
14363SOL    HW144986   4.348   8.087  10.328
14363SOL    HW244987   4.396   7.985  10.429
14364SOL     OW44988   2.629   4.946   0.657
14364SOL    HW144989   2.588   4.874   0.608
14364SOL    HW244990   2.719   4.948   0.624
14365SOL     OW44991   3.395   2.232   2.961
14365SOL    HW144992   3.442   2.205   2.882
14365SOL    HW244993   3.303   2.219   2.940
14366SOL     OW44994   4.126   2.530  13.838
14366SOL    HW144995   4.214   2.541  13.803
14366SOL    HW244996   4.138   2.527  13.933
14367SOL     OW44997   6.391   1.718   0.553
14367SOL    HW144998   6.313   1.761   0.518
14367SOL    HW244999   6.425   1.666   0.480
14368SOL     OW45000   2.102   5.098   5.850
14368SOL    HW145001   2.139   5.145   5.776
14368SOL    HW245002   2.170   5.036   5.875
14369SOL     OW45003   0.083  14.505  14.530
14369SOL    HW145004   0.032  14.586  14.526
14369SOL    HW245005   0.172  14.531  14.504
14370SOL     OW45006  12.465  11.103   1.731
14370SOL    HW145007  12.407  11.128   1.802
14370SOL    HW245008  12.416  11.124   1.651
14371SOL     OW45009   2.898   5.916   6.088
14371SOL    HW145010   2.988   5.947   6.077
14371SOL    HW245011   2.882   5.863   6.011
14372SOL     OW45012  11.436   4.339  14.668
14372SOL    HW145013  11.445   4.313  14.577
14372SOL    HW245014  11.354   4.388  14.671
14373SOL     OW45015  12.534   7.934   6.227
14373SOL    HW145016  12.627   7.915   6.239
14373SOL    HW245017  12.533   8.021   6.187
14374SOL     OW45018   5.953   6.386   6.865
14374SOL    HW145019   5.973   6.471   6.904
14374SOL    HW245020   6.037   6.342   6.860
14375SOL     OW45021   6.720  11.914   3.091
14375SOL    HW145022   6.634  11.946   3.065
14375SOL    HW245023   6.728  11.828   3.049
14376SOL     OW45024   1.220   4.870   5.986
14376SOL    HW145025   1.284   4.813   5.943
14376SOL    HW245026   1.193   4.932   5.918
14377SOL     OW45027   1.391  11.507  11.825
14377SOL    HW145028   1.299  11.533  11.817
14377SOL    HW245029   1.437  11.587  11.850
14378SOL     OW45030   8.216   9.093   5.037
14378SOL    HW145031   8.178   9.048   5.112
14378SOL    HW245032   8.247   9.022   4.980
14379SOL     OW45033  14.248  11.944   3.475
14379SOL    HW145034  14.326  11.908   3.518
14379SOL    HW245035  14.240  11.895   3.394
14380SOL     OW45036   6.237   1.315  11.753
14380SOL    HW145037   6.276   1.244  11.702
14380SOL    HW245038   6.269   1.300  11.842
14381SOL     OW45039  11.104   0.424   1.167
14381SOL    HW145040  11.155   0.491   1.121
14381SOL    HW245041  11.056   0.472   1.234
14382SOL     OW45042  13.546   1.673   1.918
14382SOL    HW145043  13.636   1.642   1.910
14382SOL    HW245044  13.530   1.723   1.838
14383SOL     OW45045   6.669  14.154  13.252
14383SOL    HW145046   6.601  14.151  13.184
14383SOL    HW245047   6.670  14.065  13.288
14384SOL     OW45048  11.482  13.485   7.209
14384SOL    HW145049  11.518  13.512   7.125
14384SOL    HW245050  11.534  13.533   7.274
14385SOL     OW45051   0.973   1.380  10.257
14385SOL    HW145052   0.958   1.286  10.245
14385SOL    HW245053   0.894   1.421  10.222
14386SOL     OW45054  14.609   5.487  14.352
14386SOL    HW145055  14.540   5.484  14.285
14386SOL    HW245056  14.681   5.436  14.315
14387SOL     OW45057   6.646   7.467   5.853
14387SOL    HW145058   6.605   7.552   5.865
14387SOL    HW245059   6.597   7.427   5.781
14388SOL     OW45060   7.622   2.441   4.889
14388SOL    HW145061   7.657   2.393   4.814
14388SOL    HW245062   7.597   2.373   4.952
14389SOL     OW45063   0.346   3.253  13.836
14389SOL    HW145064   0.379   3.227  13.751
14389SOL    HW245065   0.254   3.275  13.820
14390SOL     OW45066  10.430   6.674   4.879
14390SOL    HW145067  10.372   6.599   4.870
14390SOL    HW245068  10.453   6.698   4.789
14391SOL     OW45069   6.466  10.450   7.461
14391SOL    HW145070   6.525  10.495   7.400
14391SOL    HW245071   6.486  10.490   7.546
14392SOL     OW45072  12.290   7.559   9.861
14392SOL    HW145073  12.360   7.624   9.867
14392SOL    HW245074  12.306   7.513   9.780
14393SOL     OW45075  13.453  13.815   8.949
14393SOL    HW145076  13.404  13.819   8.867
14393SOL    HW245077  13.528  13.759   8.930
14394SOL     OW45078   4.125  13.611   0.320
14394SOL    HW145079   4.078  13.564   0.251
14394SOL    HW245080   4.096  13.702   0.311
14395SOL     OW45081   7.980  11.325   3.344
14395SOL    HW145082   8.075  11.335   3.334
14395SOL    HW245083   7.963  11.233   3.324
14396SOL     OW45084  12.175  10.903   4.591
14396SOL    HW145085  12.146  10.891   4.500
14396SOL    HW245086  12.119  10.845   4.642
14397SOL     OW45087   7.099   0.268  13.754
14397SOL    HW145088   7.021   0.223  13.785
14397SOL    HW245089   7.166   0.200  13.747
14398SOL     OW45090   6.112   3.979  11.311
14398SOL    HW145091   6.106   4.069  11.343
14398SOL    HW245092   6.033   3.967  11.259
14399SOL     OW45093   4.915  12.713  10.066
14399SOL    HW145094   4.924  12.807  10.081
14399SOL    HW245095   4.986  12.690  10.007
14400SOL     OW45096   4.137  13.529   1.635
14400SOL    HW145097   4.205  13.528   1.568
14400SOL    HW245098   4.182  13.555   1.716
14401SOL     OW45099   5.635  11.745   6.816
14401SOL    HW145100   5.684  11.732   6.734
14401SOL    HW245101   5.612  11.837   6.816
14402SOL     OW45102   0.211  11.884  14.845
14402SOL    HW145103   0.263  11.955   0.001
14402SOL    HW245104   0.132  11.881   0.017
14403SOL     OW45105   8.189   4.241   7.924
14403SOL    HW145106   8.137   4.220   7.846
14403SOL    HW245107   8.146   4.318   7.961
14404SOL     OW45108  12.941   0.610   2.112
14404SOL    HW145109  13.019   0.661   2.132
14404SOL    HW245110  12.931   0.551   2.187
14405SOL     OW45111   8.048   0.936  11.386
14405SOL    HW145112   8.140   0.960  11.392
14405SOL    HW245113   8.031   0.884  11.464
14406SOL     OW45114   1.832  14.028  14.667
14406SOL    HW145115   1.758  14.064  14.617
14406SOL    HW245116   1.868  13.959  14.611
14407SOL     OW45117  11.908  10.342  11.789
14407SOL    HW145118  11.918  10.432  11.819
14407SOL    HW245119  11.835  10.346  11.727
14408SOL     OW45120  14.220   0.234  13.346
14408SOL    HW145121  14.175   0.208  13.265
14408SOL    HW245122  14.175   0.186  13.415
14409SOL     OW45123  11.837  13.338  10.600
14409SOL    HW145124  11.789  13.263  10.635
14409SOL    HW245125  11.832  13.328  10.505
14410SOL     OW45126  13.466   3.086  10.511
14410SOL    HW145127  13.481   3.059  10.602
14410SOL    HW245128  13.544   3.137  10.488
14411SOL     OW45129  10.068   1.892   6.320
14411SOL    HW145130  10.081   1.813   6.373
14411SOL    HW245131  10.103   1.868   6.234
14412SOL     OW45132   4.666   6.306   1.621
14412SOL    HW145133   4.574   6.306   1.593
14412SOL    HW245134   4.710   6.245   1.561
14413SOL     OW45135  11.828   9.319   7.417
14413SOL    HW145136  11.752   9.302   7.472
14413SOL    HW245137  11.893   9.356   7.477
14414SOL     OW45138   0.815   7.805   0.697
14414SOL    HW145139   0.793   7.716   0.724
14414SOL    HW245140   0.805   7.857   0.777
14415SOL     OW45141   8.323  12.453   0.293
14415SOL    HW145142   8.262  12.461   0.366
14415SOL    HW245143   8.396  12.512   0.315
14416SOL     OW45144   9.262   9.390   2.843
14416SOL    HW145145   9.296   9.468   2.888
14416SOL    HW245146   9.323   9.320   2.869
14417SOL     OW45147  10.307   9.846  14.723
14417SOL    HW145148  10.361   9.881  14.653
14417SOL    HW245149  10.244   9.790  14.680
14418SOL     OW45150   7.140   8.607   7.441
14418SOL    HW145151   7.060   8.614   7.493
14418SOL    HW245152   7.166   8.515   7.449
14419SOL     OW45153  14.205  10.762   7.757
14419SOL    HW145154  14.171  10.798   7.675
14419SOL    HW245155  14.128  10.743   7.809
14420SOL     OW45156   5.285   8.800   2.910
14420SOL    HW145157   5.222   8.757   2.967
14420SOL    HW245158   5.346   8.731   2.886
14421SOL     OW45159   6.941   8.185   7.215
14421SOL    HW145160   6.874   8.144   7.269
14421SOL    HW245161   6.964   8.118   7.150
14422SOL     OW45162   6.548   2.509  14.241
14422SOL    HW145163   6.457   2.486  14.259
14422SOL    HW245164   6.559   2.495  14.147
14423SOL     OW45165  10.608  11.995   1.033
14423SOL    HW145166  10.585  11.961   1.119
14423SOL    HW245167  10.662  11.926   0.994
14424SOL     OW45168   2.501  12.767   8.408
14424SOL    HW145169   2.476  12.725   8.325
14424SOL    HW245170   2.424  12.756   8.464
14425SOL     OW45171   9.591   7.461   5.667
14425SOL    HW145172   9.665   7.519   5.647
14425SOL    HW245173   9.514   7.511   5.639
14426SOL     OW45174  10.962  10.762  11.047
14426SOL    HW145175  10.925  10.746  11.134
14426SOL    HW245176  10.914  10.837  11.014
14427SOL     OW45177   4.008   4.651  14.403
14427SOL    HW145178   3.931   4.708  14.405
14427SOL    HW245179   4.062   4.685  14.331
14428SOL     OW45180   2.406   2.406  14.017
14428SOL    HW145181   2.425   2.389  13.925
14428SOL    HW245182   2.366   2.493  14.018
14429SOL     OW45183   1.083   6.458   7.250
14429SOL    HW145184   1.099   6.429   7.160
14429SOL    HW245185   1.048   6.380   7.294
14430SOL     OW45186   1.263   8.974   8.258
14430SOL    HW145187   1.290   8.993   8.348
14430SOL    HW245188   1.335   8.921   8.223
14431SOL     OW45189  12.681   3.231  14.862
14431SOL    HW145190  12.606   3.200   0.031
14431SOL    HW245191  12.755   3.179   0.013
14432SOL     OW45192   6.118  11.717  11.370
14432SOL    HW145193   6.209  11.694  11.391
14432SOL    HW245194   6.092  11.654  11.303
14433SOL     OW45195   2.137  11.915   6.388
14433SOL    HW145196   2.059  11.942   6.340
14433SOL    HW245197   2.211  11.941   6.333
14434SOL     OW45198  13.297   6.238  11.844
14434SOL    HW145199  13.391   6.253  11.841
14434SOL    HW245200  13.275   6.242  11.937
14435SOL     OW45201   3.993  12.776   1.808
14435SOL    HW145202   3.943  12.730   1.740
14435SOL    HW245203   4.056  12.711   1.840
14436SOL     OW45204  12.745   9.925  11.533
14436SOL    HW145205  12.767  10.019  11.533
14436SOL    HW245206  12.830   9.881  11.526
14437SOL     OW45207   3.856  13.674   9.358
14437SOL    HW145208   3.891  13.591   9.326
14437SOL    HW245209   3.859  13.665   9.454
14438SOL     OW45210   9.318  12.422  11.969
14438SOL    HW145211   9.361  12.337  11.962
14438SOL    HW245212   9.325  12.460  11.881
14439SOL     OW45213  11.173  11.135  10.186
14439SOL    HW145214  11.158  11.046  10.219
14439SOL    HW245215  11.172  11.190  10.264
14440SOL     OW45216   2.601   2.770   7.058
14440SOL    HW145217   2.528   2.717   7.089
14440SOL    HW245218   2.652   2.789   7.138
14441SOL     OW45219   0.990  11.770  13.739
14441SOL    HW145220   0.935  11.744  13.665
14441SOL    HW245221   0.953  11.853  13.768
14442SOL     OW45222   7.995   9.787   2.423
14442SOL    HW145223   7.963   9.877   2.419
14442SOL    HW245224   7.917   9.733   2.413
14443SOL     OW45225   3.919   6.748   0.225
14443SOL    HW145226   3.961   6.734   0.140
14443SOL    HW245227   3.890   6.661   0.252
14444SOL     OW45228   2.549   4.147  11.911
14444SOL    HW145229   2.579   4.191  11.991
14444SOL    HW245230   2.622   4.091  11.885
14445SOL     OW45231  12.784   9.627   2.706
14445SOL    HW145232  12.742   9.693   2.649
14445SOL    HW245233  12.717   9.607   2.771
14446SOL     OW45234  13.281  14.379  12.798
14446SOL    HW145235  13.335  14.301  12.780
14446SOL    HW245236  13.341  14.452  12.785
14447SOL     OW45237   8.018   5.780  11.801
14447SOL    HW145238   7.990   5.757  11.712
14447SOL    HW245239   7.972   5.718  11.858
14448SOL     OW45240  11.454  11.917   5.426
14448SOL    HW145241  11.404  11.869   5.361
14448SOL    HW245242  11.396  11.988   5.454
14449SOL     OW45243  10.523  14.063  13.119
14449SOL    HW145244  10.563  14.048  13.033
14449SOL    HW245245  10.451  14.123  13.102
14450SOL     OW45246   5.387   5.210   1.558
14450SOL    HW145247   5.292   5.203   1.567
14450SOL    HW245248   5.401   5.229   1.465
14451SOL     OW45249   2.797   1.758  14.036
14451SOL    HW145250   2.870   1.762  13.975
14451SOL    HW245251   2.832   1.789  14.119
14452SOL     OW45252  13.126  14.718  13.379
14452SOL    HW145253  13.185  14.776  13.428
14452SOL    HW245254  13.049  14.772  13.360
14453SOL     OW45255  11.018   6.208   6.186
14453SOL    HW145256  10.932   6.238   6.156
14453SOL    HW245257  11.078   6.280   6.164
14454SOL     OW45258   7.023   2.010   7.878
14454SOL    HW145259   7.028   1.951   7.803
14454SOL    HW245260   7.060   1.961   7.951
14455SOL     OW45261   4.750   7.533   5.868
14455SOL    HW145262   4.743   7.536   5.964
14455SOL    HW245263   4.698   7.457   5.843
14456SOL     OW45264  14.012   2.818   8.667
14456SOL    HW145265  14.023   2.863   8.751
14456SOL    HW245266  14.026   2.726   8.687
14457SOL     OW45267  10.927   8.837   5.523
14457SOL    HW145268  10.970   8.771   5.577
14457SOL    HW245269  10.837   8.807   5.515
14458SOL     OW45270  11.614   1.698   8.268
14458SOL    HW145271  11.699   1.725   8.303
14458SOL    HW245272  11.576   1.778   8.231
14459SOL     OW45273   6.792   4.841   7.025
14459SOL    HW145274   6.798   4.932   7.054
14459SOL    HW245275   6.751   4.846   6.938
14460SOL     OW45276   6.628   5.225   5.638
14460SOL    HW145277   6.561   5.290   5.616
14460SOL    HW245278   6.710   5.274   5.641
14461SOL     OW45279   8.910   1.844   6.114
14461SOL    HW145280   8.911   1.936   6.088
14461SOL    HW245281   8.822   1.831   6.150
14462SOL     OW45282  14.010   2.888   9.858
14462SOL    HW145283  14.016   2.922   9.768
14462SOL    HW245284  14.087   2.831   9.867
14463SOL     OW45285   4.264  14.619   8.557
14463SOL    HW145286   4.268  14.532   8.518
14463SOL    HW245287   4.310  14.675   8.496
14464SOL     OW45288   6.162   3.830  11.530
14464SOL    HW145289   6.217   3.902  11.561
14464SOL    HW245290   6.118   3.865  11.453
14465SOL     OW45291   1.733   5.649   0.645
14465SOL    HW145292   1.730   5.740   0.676
14465SOL    HW245293   1.827   5.629   0.640
14466SOL     OW45294   5.674   8.643   0.212
14466SOL    HW145295   5.587   8.611   0.235
14466SOL    HW245296   5.674   8.735   0.236
14467SOL     OW45297   3.803  13.741  12.875
14467SOL    HW145298   3.888  13.709  12.905
14467SOL    HW245299   3.808  13.738  12.780
14468SOL     OW45300   2.794  14.839   4.062
14468SOL    HW145301   2.716  14.846   4.116
14468SOL    HW245302   2.796  14.748   4.033
14469SOL     OW45303   2.756   3.377   0.672
14469SOL    HW145304   2.662   3.385   0.686
14469SOL    HW245305   2.795   3.424   0.746
14470SOL     OW45306   0.240   7.723  10.556
14470SOL    HW145307   0.211   7.742  10.645
14470SOL    HW245308   0.282   7.804  10.527
14471SOL     OW45309   8.012   3.091   3.505
14471SOL    HW145310   7.984   3.089   3.413
14471SOL    HW245311   7.931   3.097   3.555
14472SOL     OW45312   5.958   0.382   0.464
14472SOL    HW145313   6.006   0.331   0.397
14472SOL    HW245314   5.964   0.472   0.434
14473SOL     OW45315  12.657   8.393   3.760
14473SOL    HW145316  12.705   8.476   3.752
14473SOL    HW245317  12.603   8.403   3.838
14474SOL     OW45318   9.390   9.964  11.170
14474SOL    HW145319   9.332   9.888  11.179
14474SOL    HW245320   9.437   9.948  11.088
14475SOL     OW45321   0.718  13.404  12.707
14475SOL    HW145322   0.697  13.315  12.736
14475SOL    HW245323   0.676  13.460  12.772
14476SOL     OW45324   8.737   2.017   9.473
14476SOL    HW145325   8.750   1.999   9.380
14476SOL    HW245326   8.703   2.107   9.475
14477SOL     OW45327  12.451   8.380  14.484
14477SOL    HW145328  12.383   8.349  14.424
14477SOL    HW245329  12.502   8.301  14.503
14478SOL     OW45330   9.346  13.906   0.625
14478SOL    HW145331   9.436  13.939   0.630
14478SOL    HW245332   9.291  13.983   0.640
14479SOL     OW45333   5.674   5.154  13.924
14479SOL    HW145334   5.661   5.059  13.924
14479SOL    HW245335   5.653   5.181  13.835
14480SOL     OW45336   1.240   2.637   9.713
14480SOL    HW145337   1.327   2.646   9.753
14480SOL    HW245338   1.252   2.571   9.645
14481SOL     OW45339   2.702   5.022  11.992
14481SOL    HW145340   2.659   5.083  12.052
14481SOL    HW245341   2.796   5.033  12.008
14482SOL     OW45342   8.699  11.764   9.145
14482SOL    HW145343   8.639  11.718   9.087
14482SOL    HW245344   8.643  11.824   9.195
14483SOL     OW45345  11.814   7.938   1.828
14483SOL    HW145346  11.841   8.027   1.847
14483SOL    HW245347  11.718   7.942   1.823
14484SOL     OW45348  11.442   8.136  12.331
14484SOL    HW145349  11.386   8.059  12.320
14484SOL    HW245350  11.384   8.203  12.368
14485SOL     OW45351  12.938   4.744  11.232
14485SOL    HW145352  12.970   4.783  11.313
14485SOL    HW245353  12.999   4.775  11.165
14486SOL     OW45354   1.611   0.119   0.989
14486SOL    HW145355   1.558   0.063   0.933
14486SOL    HW245356   1.574   0.207   0.976
14487SOL     OW45357   3.813  13.066   4.589
14487SOL    HW145358   3.878  12.996   4.599
14487SOL    HW245359   3.733  13.022   4.564
14488SOL     OW45360  12.527   7.016   2.252
14488SOL    HW145361  12.502   6.991   2.341
14488SOL    HW245362  12.615   6.981   2.240
14489SOL     OW45363  11.704  11.601   3.962
14489SOL    HW145364  11.626  11.570   3.917
14489SOL    HW245365  11.715  11.691   3.933
14490SOL     OW45366  10.579   1.261   5.174
14490SOL    HW145367  10.508   1.212   5.133
14490SOL    HW245368  10.608   1.206   5.247
14491SOL     OW45369  13.215   3.007   0.481
14491SOL    HW145370  13.293   2.954   0.497
14491SOL    HW245371  13.183   2.979   0.395
14492SOL     OW45372  13.962   2.081  11.491
14492SOL    HW145373  14.049   2.081  11.451
14492SOL    HW245374  13.976   2.110  11.581
14493SOL     OW45375   6.310  11.385  12.314
14493SOL    HW145376   6.401  11.406  12.293
14493SOL    HW245377   6.261  11.412  12.236
14494SOL     OW45378   6.722   4.132   1.810
14494SOL    HW145379   6.781   4.189   1.760
14494SOL    HW245380   6.644   4.125   1.755
14495SOL     OW45381  11.099   2.776   6.376
14495SOL    HW145382  11.159   2.845   6.347
14495SOL    HW245383  11.037   2.766   6.304
14496SOL     OW45384   0.927  11.297   9.492
14496SOL    HW145385   0.996  11.289   9.426
14496SOL    HW245386   0.845  11.281   9.444
14497SOL     OW45387  14.233  14.365   1.278
14497SOL    HW145388  14.329  14.362   1.288
14497SOL    HW245389  14.204  14.278   1.306
14498SOL     OW45390  14.367   9.892   2.132
14498SOL    HW145391  14.380   9.933   2.046
14498SOL    HW245392  14.293   9.832   2.118
14499SOL     OW45393   4.470  10.634   8.192
14499SOL    HW145394   4.411  10.618   8.265
14499SOL    HW245395   4.419  10.687   8.130
14500SOL     OW45396  10.013   0.848   8.291
14500SOL    HW145397  10.065   0.911   8.341
14500SOL    HW245398   9.930   0.844   8.337
14501SOL     OW45399   4.877  14.676   2.252
14501SOL    HW145400   4.799  14.729   2.265
14501SOL    HW245401   4.854  14.591   2.292
14502SOL     OW45402   7.018   4.090   3.308
14502SOL    HW145403   6.974   4.013   3.342
14502SOL    HW245404   7.094   4.056   3.261
14503SOL     OW45405   2.485   5.131  11.883
14503SOL    HW145406   2.550   5.065  11.907
14503SOL    HW245407   2.512   5.161  11.796
14504SOL     OW45408   6.467  11.990   8.009
14504SOL    HW145409   6.532  12.036   8.062
14504SOL    HW245410   6.504  11.902   7.999
14505SOL     OW45411   7.567  13.417  11.777
14505SOL    HW145412   7.494  13.475  11.795
14505SOL    HW245413   7.642  13.475  11.766
14506SOL     OW45414  11.642   3.043   4.761
14506SOL    HW145415  11.688   3.064   4.843
14506SOL    HW245416  11.627   2.948   4.765
14507SOL     OW45417  10.623  11.111   6.486
14507SOL    HW145418  10.614  11.111   6.581
14507SOL    HW245419  10.557  11.048   6.456
14508SOL     OW45420  11.221  11.872   7.972
14508SOL    HW145421  11.126  11.871   7.986
14508SOL    HW245422  11.250  11.784   7.997
14509SOL     OW45423   9.312  11.268   5.745
14509SOL    HW145424   9.271  11.222   5.819
14509SOL    HW245425   9.357  11.199   5.696
14510SOL     OW45426  13.321   9.759   0.624
14510SOL    HW145427  13.397   9.713   0.588
14510SOL    HW245428  13.264   9.689   0.655
14511SOL     OW45429  13.367   3.721  12.015
14511SOL    HW145430  13.297   3.713  12.080
14511SOL    HW245431  13.328   3.769  11.943
14512SOL     OW45432  13.628   3.661  14.232
14512SOL    HW145433  13.558   3.621  14.181
14512SOL    HW245434  13.584   3.721  14.292
14513SOL     OW45435   8.436   5.569   4.799
14513SOL    HW145436   8.365   5.535   4.853
14513SOL    HW245437   8.443   5.508   4.726
14514SOL     OW45438   2.604   6.805   0.670
14514SOL    HW145439   2.549   6.858   0.726
14514SOL    HW245440   2.623   6.727   0.722
14515SOL     OW45441  10.436   1.584   0.299
14515SOL    HW145442  10.488   1.634   0.237
14515SOL    HW245443  10.432   1.639   0.378
14516SOL     OW45444   5.349   6.404  11.717
14516SOL    HW145445   5.316   6.369  11.800
14516SOL    HW245446   5.444   6.386  11.720
14517SOL     OW45447   6.164   7.771   4.503
14517SOL    HW145448   6.195   7.683   4.526
14517SOL    HW245449   6.124   7.804   4.583
14518SOL     OW45450   1.164   7.766   4.448
14518SOL    HW145451   1.168   7.862   4.449
14518SOL    HW245452   1.237   7.739   4.392
14519SOL     OW45453   4.325   7.614  10.526
14519SOL    HW145454   4.304   7.676  10.596
14519SOL    HW245455   4.298   7.529  10.561
14520SOL     OW45456   4.529   3.454   5.857
14520SOL    HW145457   4.606   3.457   5.913
14520SOL    HW245458   4.521   3.543   5.821
14521SOL     OW45459  10.148   0.980   1.511
14521SOL    HW145460  10.187   0.975   1.424
14521SOL    HW245461  10.108   0.894   1.524
14522SOL     OW45462  13.272   5.643   7.636
14522SOL    HW145463  13.206   5.689   7.686
14522SOL    HW245464  13.285   5.560   7.682
14523SOL     OW45465   1.770  14.654   8.999
14523SOL    HW145466   1.849  14.707   8.986
14523SOL    HW245467   1.799  14.582   9.055
14524SOL     OW45468  11.990   4.072   4.512
14524SOL    HW145469  11.904   4.113   4.498
14524SOL    HW245470  11.970   3.979   4.523
14525SOL     OW45471  10.199  12.308   5.442
14525SOL    HW145472  10.235  12.344   5.523
14525SOL    HW245473  10.108  12.337   5.442
14526SOL     OW45474   8.428   4.278  12.779
14526SOL    HW145475   8.506   4.230  12.748
14526SOL    HW245476   8.358   4.249  12.720
14527SOL     OW45477  11.392  12.100   8.189
14527SOL    HW145478  11.415  12.008   8.171
14527SOL    HW245479  11.455  12.151   8.138
14528SOL     OW45480  10.667   8.036   2.232
14528SOL    HW145481  10.726   7.969   2.268
14528SOL    HW245482  10.720   8.083   2.169
14529SOL     OW45483   8.280   6.794   6.242
14529SOL    HW145484   8.260   6.861   6.177
14529SOL    HW245485   8.201   6.789   6.297
14530SOL     OW45486  13.597  14.544   8.656
14530SOL    HW145487  13.632  14.543   8.567
14530SOL    HW245488  13.660  14.493   8.707
14531SOL     OW45489   3.837   3.049   5.228
14531SOL    HW145490   3.790   3.094   5.298
14531SOL    HW245491   3.821   2.956   5.245
14532SOL     OW45492   6.597   1.888  11.101
14532SOL    HW145493   6.586   1.969  11.151
14532SOL    HW245494   6.628   1.917  11.015
14533SOL     OW45495   7.148  13.972   6.965
14533SOL    HW145496   7.054  13.978   6.983
14533SOL    HW245497   7.186  13.937   7.046
14534SOL     OW45498   2.940  10.177  14.549
14534SOL    HW145499   3.007  10.131  14.600
14534SOL    HW245500   2.940  10.266  14.584
14535SOL     OW45501   0.528   0.728  11.295
14535SOL    HW145502   0.531   0.805  11.238
14535SOL    HW245503   0.551   0.655  11.238
14536SOL     OW45504   3.155   7.629  11.202
14536SOL    HW145505   3.234   7.579  11.223
14536SOL    HW245506   3.113   7.580  11.131
14537SOL     OW45507   5.649   8.979   7.471
14537SOL    HW145508   5.664   9.016   7.384
14537SOL    HW245509   5.584   9.037   7.512
14538SOL     OW45510   3.833  13.033   2.532
14538SOL    HW145511   3.833  12.971   2.605
14538SOL    HW245512   3.774  12.994   2.468
14539SOL     OW45513   4.502   7.499   6.584
14539SOL    HW145514   4.494   7.584   6.540
14539SOL    HW245515   4.542   7.519   6.668
14540SOL     OW45516   7.405   8.129  13.461
14540SOL    HW145517   7.451   8.205  13.425
14540SOL    HW245518   7.475   8.067  13.481
14541SOL     OW45519  13.692   0.320  12.219
14541SOL    HW145520  13.664   0.228  12.222
14541SOL    HW245521  13.651   0.354  12.139
14542SOL     OW45522   2.039   1.339  14.298
14542SOL    HW145523   2.107   1.292  14.250
14542SOL    HW245524   2.034   1.294  14.383
14543SOL     OW45525   9.372   5.955  10.724
14543SOL    HW145526   9.293   5.961  10.670
14543SOL    HW245527   9.429   6.023  10.688
14544SOL     OW45528  13.187  12.051   0.599
14544SOL    HW145529  13.242  12.017   0.670
14544SOL    HW245530  13.238  12.124   0.562
14545SOL     OW45531   7.861   0.125  13.160
14545SOL    HW145532   7.803   0.201  13.156
14545SOL    HW245533   7.852   0.092  13.249
14546SOL     OW45534  13.067  14.846   6.979
14546SOL    HW145535  13.101   0.023   6.912
14546SOL    HW245536  13.084   0.009   7.062
14547SOL     OW45537   3.116   1.373   8.973
14547SOL    HW145538   3.119   1.291   8.925
14547SOL    HW245539   3.024   1.386   8.993
14548SOL     OW45540   8.674   8.165   3.822
14548SOL    HW145541   8.719   8.243   3.855
14548SOL    HW245542   8.587   8.170   3.861
14549SOL     OW45543   4.190   7.161  14.604
14549SOL    HW145544   4.144   7.086  14.641
14549SOL    HW245545   4.269   7.169  14.658
14550SOL     OW45546   9.291   6.703   4.772
14550SOL    HW145547   9.218   6.648   4.745
14550SOL    HW245548   9.331   6.655   4.845
14551SOL     OW45549  10.104  12.206   2.518
14551SOL    HW145550  10.069  12.135   2.572
14551SOL    HW245551  10.026  12.252   2.487
14552SOL     OW45552   2.359  10.953   7.201
14552SOL    HW145553   2.435  11.007   7.178
14552SOL    HW245554   2.286  10.991   7.153
14553SOL     OW45555   2.181  10.712   2.466
14553SOL    HW145556   2.126  10.652   2.516
14553SOL    HW245557   2.120  10.761   2.412
14554SOL     OW45558  11.442   4.514   7.567
14554SOL    HW145559  11.509   4.510   7.636
14554SOL    HW245560  11.364   4.545   7.612
14555SOL     OW45561   6.054   8.271  13.093
14555SOL    HW145562   6.095   8.309  13.171
14555SOL    HW245563   6.109   8.300  13.020
14556SOL     OW45564   0.016   0.967   3.147
14556SOL    HW145565  14.835   0.974   3.076
14556SOL    HW245566   0.097   0.941   3.104
14557SOL     OW45567   7.406  10.699   4.837
14557SOL    HW145568   7.445  10.717   4.923
14557SOL    HW245569   7.459  10.629   4.800
14558SOL     OW45570  10.272   9.936   6.559
14558SOL    HW145571  10.295  10.023   6.525
14558SOL    HW245572  10.346   9.912   6.615
14559SOL     OW45573  13.460   6.165   1.739
14559SOL    HW145574  13.412   6.096   1.695
14559SOL    HW245575  13.427   6.164   1.829
14560SOL     OW45576   8.329   3.549   5.367
14560SOL    HW145577   8.317   3.598   5.449
14560SOL    HW245578   8.243   3.550   5.326
14561SOL     OW45579   3.442  12.029   4.711
14561SOL    HW145580   3.495  12.046   4.789
14561SOL    HW245581   3.386  11.955   4.736
14562SOL     OW45582   1.726   0.003  11.613
14562SOL    HW145583   1.810  14.839  11.621
14562SOL    HW245584   1.742   0.071  11.548
14563SOL     OW45585   1.133  10.576  13.150
14563SOL    HW145586   1.160  10.665  13.127
14563SOL    HW245587   1.089  10.586  13.234
14564SOL     OW45588   4.585   7.485   0.049
14564SOL    HW145589   4.584   7.543  14.855
14564SOL    HW245590   4.532   7.410   0.022
14565SOL     OW45591   6.720   6.464   2.401
14565SOL    HW145592   6.784   6.501   2.463
14565SOL    HW245593   6.640   6.456   2.452
14566SOL     OW45594  10.124   9.613  11.682
14566SOL    HW145595  10.191   9.677  11.709
14566SOL    HW245596  10.117   9.624  11.588
14567SOL     OW45597   3.272   0.767   6.249
14567SOL    HW145598   3.206   0.821   6.205
14567SOL    HW245599   3.295   0.817   6.327
14568SOL     OW45600  13.971   4.006   4.302
14568SOL    HW145601  13.963   3.925   4.250
14568SOL    HW245602  13.889   4.011   4.351
14569SOL     OW45603   0.141   1.013  11.646
14569SOL    HW145604   0.104   1.033  11.732
14569SOL    HW245605   0.111   1.085  11.590
14570SOL     OW45606  12.861   5.226   6.944
14570SOL    HW145607  12.780   5.273   6.963
14570SOL    HW245608  12.870   5.164   7.016
14571SOL     OW45609   1.822   7.965   1.384
14571SOL    HW145610   1.748   7.911   1.358
14571SOL    HW245611   1.881   7.905   1.430
14572SOL     OW45612   8.539   0.842   9.111
14572SOL    HW145613   8.541   0.932   9.145
14572SOL    HW245614   8.524   0.853   9.017
14573SOL     OW45615   0.925  11.992  14.704
14573SOL    HW145616   0.952  12.020  14.616
14573SOL    HW245617   0.849  12.046  14.724
14574SOL     OW45618   2.681   4.282  12.121
14574SOL    HW145619   2.699   4.351  12.185
14574SOL    HW245620   2.755   4.222  12.128
14575SOL     OW45621   2.771   7.375   4.945
14575SOL    HW145622   2.793   7.287   4.914
14575SOL    HW245623   2.767   7.428   4.866
14576SOL     OW45624  10.838   0.846   1.679
14576SOL    HW145625  10.805   0.762   1.710
14576SOL    HW245626  10.762   0.889   1.640
14577SOL     OW45627   7.118   6.835   6.246
14577SOL    HW145628   7.053   6.888   6.293
14577SOL    HW245629   7.120   6.873   6.158
14578SOL     OW45630   1.152   3.866   3.580
14578SOL    HW145631   1.071   3.909   3.554
14578SOL    HW245632   1.141   3.845   3.672
14579SOL     OW45633   9.775   2.990   9.437
14579SOL    HW145634   9.715   3.060   9.413
14579SOL    HW245635   9.717   2.918   9.464
14580SOL     OW45636   8.957   4.370  11.152
14580SOL    HW145637   9.041   4.348  11.193
14580SOL    HW245638   8.914   4.427  11.216
14581SOL     OW45639  14.661   0.714   4.051
14581SOL    HW145640  14.604   0.790   4.054
14581SOL    HW245641  14.668   0.693   3.958
14582SOL     OW45642   7.983   2.011  11.735
14582SOL    HW145643   7.902   1.976  11.775
14582SOL    HW245644   8.050   1.994  11.801
14583SOL     OW45645  12.005   6.660   9.893
14583SOL    HW145646  12.022   6.581   9.944
14583SOL    HW245647  11.917   6.687   9.918
14584SOL     OW45648   9.354   6.913  11.915
14584SOL    HW145649   9.260   6.926  11.922
14584SOL    HW245650   9.364   6.824  11.881
14585SOL     OW45651  13.949  12.835  12.363
14585SOL    HW145652  13.967  12.744  12.339
14585SOL    HW245653  14.036  12.875  12.372
14586SOL     OW45654  10.781   1.946  11.152
14586SOL    HW145655  10.770   1.861  11.195
14586SOL    HW245656  10.706   1.997  11.181
14587SOL     OW45657  12.885  12.642   4.485
14587SOL    HW145658  12.795  12.610   4.484
14587SOL    HW245659  12.920  12.611   4.569
14588SOL     OW45660  14.843  12.060  11.172
14588SOL    HW145661   0.039  12.029  11.127
14588SOL    HW245662  14.791  12.103  11.104
14589SOL     OW45663  12.333   9.610   2.870
14589SOL    HW145664  12.379   9.616   2.786
14589SOL    HW245665  12.275   9.534   2.861
14590SOL     OW45666   0.056   0.566  13.911
14590SOL    HW145667   0.031   0.656  13.934
14590SOL    HW245668   0.132   0.548  13.966
14591SOL     OW45669  12.068   5.356   0.089
14591SOL    HW145670  12.007   5.393   0.025
14591SOL    HW245671  12.023   5.277   0.120
14592SOL     OW45672   1.970   2.580  10.587
14592SOL    HW145673   1.913   2.521  10.636
14592SOL    HW245674   2.057   2.541  10.593
14593SOL     OW45675   5.428   5.836   3.802
14593SOL    HW145676   5.342   5.795   3.806
14593SOL    HW245677   5.450   5.838   3.708
14594SOL     OW45678  11.954   7.458  12.388
14594SOL    HW145679  11.956   7.538  12.335
14594SOL    HW245680  11.914   7.392  12.331
14595SOL     OW45681   2.498   7.793  12.247
14595SOL    HW145682   2.464   7.797  12.158
14595SOL    HW245683   2.556   7.869  12.254
14596SOL     OW45684   9.480   7.132   6.380
14596SOL    HW145685   9.536   7.071   6.428
14596SOL    HW245686   9.484   7.213   6.431
14597SOL     OW45687   9.724   4.605   5.208
14597SOL    HW145688   9.754   4.514   5.202
14597SOL    HW245689   9.696   4.627   5.120
14598SOL     OW45690   3.563   3.685  13.414
14598SOL    HW145691   3.624   3.612  13.416
14598SOL    HW245692   3.500   3.662  13.345
14599SOL     OW45693   2.985  10.367   1.034
14599SOL    HW145694   2.920  10.340   1.098
14599SOL    HW245695   2.960  10.321   0.953
14600SOL     OW45696  10.642   7.390   4.552
14600SOL    HW145697  10.696   7.419   4.625
14600SOL    HW245698  10.674   7.439   4.477
14601SOL     OW45699   1.459  11.953   7.274
14601SOL    HW145700   1.428  11.884   7.216
14601SOL    HW245701   1.405  11.945   7.353
14602SOL     OW45702   2.958   3.846  12.711
14602SOL    HW145703   2.961   3.813  12.801
14602SOL    HW245704   2.878   3.810  12.675
14603SOL     OW45705   4.445  14.649   4.678
14603SOL    HW145706   4.432  14.726   4.624
14603SOL    HW245707   4.495  14.588   4.622
14604SOL     OW45708   4.776   1.635   4.168
14604SOL    HW145709   4.717   1.565   4.198
14604SOL    HW245710   4.785   1.620   4.073
14605SOL     OW45711   9.616   2.227   9.217
14605SOL    HW145712   9.656   2.172   9.284
14605SOL    HW245713   9.541   2.267   9.260
14606SOL     OW45714  14.389   8.826   2.298
14606SOL    HW145715  14.345   8.753   2.255
14606SOL    HW245716  14.448   8.785   2.361
14607SOL     OW45717   1.540   5.569   9.677
14607SOL    HW145718   1.575   5.486   9.710
14607SOL    HW245719   1.515   5.550   9.587
14608SOL     OW45720   4.631  14.670   7.218
14608SOL    HW145721   4.637  14.669   7.314
14608SOL    HW245722   4.721  14.688   7.189
14609SOL     OW45723   5.286   4.900   5.169
14609SOL    HW145724   5.244   4.820   5.202
14609SOL    HW245725   5.227   4.970   5.196
14610SOL     OW45726  11.125   0.785  10.153
14610SOL    HW145727  11.094   0.768  10.064
14610SOL    HW245728  11.076   0.862  10.181
14611SOL     OW45729   7.084   7.455   7.258
14611SOL    HW145730   7.035   7.529   7.292
14611SOL    HW245731   7.176   7.479   7.269
14612SOL     OW45732  12.670  12.530  11.040
14612SOL    HW145733  12.727  12.608  11.039
14612SOL    HW245734  12.718  12.466  10.987
14613SOL     OW45735   4.875   5.436   7.769
14613SOL    HW145736   4.806   5.379   7.735
14613SOL    HW245737   4.868   5.516   7.717
14614SOL     OW45738   4.365   9.696   8.150
14614SOL    HW145739   4.433   9.638   8.186
14614SOL    HW245740   4.368   9.679   8.056
14615SOL     OW45741   6.945   4.168   0.463
14615SOL    HW145742   6.972   4.235   0.400
14615SOL    HW245743   7.020   4.160   0.522
14616SOL     OW45744   5.249   3.581   0.200
14616SOL    HW145745   5.261   3.499   0.246
14616SOL    HW245746   5.272   3.648   0.264
14617SOL     OW45747   1.249   1.398  10.222
14617SOL    HW145748   1.154   1.405  10.231
14617SOL    HW245749   1.268   1.426  10.132
14618SOL     OW45750   8.774   4.387   8.667
14618SOL    HW145751   8.801   4.333   8.742
14618SOL    HW245752   8.851   4.441   8.647
14619SOL     OW45753  13.946   4.603  13.884
14619SOL    HW145754  13.881   4.573  13.820
14619SOL    HW245755  13.980   4.523  13.924
14620SOL     OW45756   6.875   7.374   5.709
14620SOL    HW145757   6.942   7.441   5.719
14620SOL    HW245758   6.820   7.381   5.787
14621SOL     OW45759   0.587  14.577  13.870
14621SOL    HW145760   0.634  14.654  13.838
14621SOL    HW245761   0.522  14.612  13.931
14622SOL     OW45762   7.774  11.571  10.746
14622SOL    HW145763   7.687  11.569  10.785
14622SOL    HW245764   7.758  11.571  10.652
14623SOL     OW45765   8.385   9.160   4.737
14623SOL    HW145766   8.404   9.150   4.644
14623SOL    HW245767   8.346   9.247   4.745
14624SOL     OW45768   4.729   9.658   2.869
14624SOL    HW145769   4.651   9.651   2.925
14624SOL    HW245770   4.752   9.567   2.850
14625SOL     OW45771  10.062   1.947   5.807
14625SOL    HW145772  10.130   1.988   5.755
14625SOL    HW245773  10.080   1.853   5.800
14626SOL     OW45774   6.613   4.668   9.614
14626SOL    HW145775   6.591   4.585   9.657
14626SOL    HW245776   6.661   4.642   9.535
14627SOL     OW45777  10.306   2.546   4.921
14627SOL    HW145778  10.263   2.538   4.836
14627SOL    HW245779  10.271   2.627   4.958
14628SOL     OW45780  13.786   0.819   9.319
14628SOL    HW145781  13.881   0.818   9.314
14628SOL    HW245782  13.763   0.730   9.349
14629SOL     OW45783   4.894  12.121   1.877
14629SOL    HW145784   4.803  12.099   1.898
14629SOL    HW245785   4.944  12.042   1.901
14630SOL     OW45786  12.096   3.074   0.829
14630SOL    HW145787  12.018   3.087   0.775
14630SOL    HW245788  12.070   3.010   0.895
14631SOL     OW45789  12.461   2.838   0.917
14631SOL    HW145790  12.475   2.854   0.824
14631SOL    HW245791  12.420   2.751   0.920
14632SOL     OW45792   2.267   3.179  10.619
14632SOL    HW145793   2.186   3.176  10.568
14632SOL    HW245794   2.329   3.224  10.562
14633SOL     OW45795   0.549   1.730   9.771
14633SOL    HW145796   0.493   1.711   9.847
14633SOL    HW245797   0.496   1.789   9.717
14634SOL     OW45798   5.360  13.571   0.498
14634SOL    HW145799   5.451  13.547   0.486
14634SOL    HW245800   5.363  13.658   0.538
14635SOL     OW45801   0.414   5.164   4.342
14635SOL    HW145802   0.342   5.183   4.402
14635SOL    HW245803   0.382   5.195   4.257
14636SOL     OW45804   3.623  14.542   6.460
14636SOL    HW145805   3.598  14.451   6.478
14636SOL    HW245806   3.701  14.556   6.513
14637SOL     OW45807  11.262  10.260   2.066
14637SOL    HW145808  11.305  10.178   2.091
14637SOL    HW245809  11.332  10.326   2.070
14638SOL     OW45810  10.286   2.297  11.626
14638SOL    HW145811  10.213   2.297  11.687
14638SOL    HW245812  10.343   2.368  11.656
14639SOL     OW45813  10.456   0.053  14.854
14639SOL    HW145814  10.399   0.009   0.035
14639SOL    HW245815  10.474  14.870  14.788
14640SOL     OW45816   8.459   6.801  11.198
14640SOL    HW145817   8.431   6.714  11.225
14640SOL    HW245818   8.545   6.812  11.239
14641SOL     OW45819   6.748   9.434   1.696
14641SOL    HW145820   6.792   9.435   1.782
14641SOL    HW245821   6.799   9.372   1.644
14642SOL     OW45822   1.457  11.905  13.878
14642SOL    HW145823   1.504  11.987  13.889
14642SOL    HW245824   1.416  11.912  13.792
14643SOL     OW45825  10.680   8.134   3.308
14643SOL    HW145826  10.640   8.200   3.252
14643SOL    HW245827  10.607   8.098   3.359
14644SOL     OW45828  12.408   7.030  11.395
14644SOL    HW145829  12.357   7.111  11.384
14644SOL    HW245830  12.470   7.050  11.465
14645SOL     OW45831  10.300   4.749   2.593
14645SOL    HW145832  10.243   4.764   2.668
14645SOL    HW245833  10.384   4.785   2.619
14646SOL     OW45834   2.186   1.085  13.643
14646SOL    HW145835   2.193   1.078  13.739
14646SOL    HW245836   2.096   1.115  13.628
14647SOL     OW45837   0.063   8.328   2.106
14647SOL    HW145838   0.118   8.371   2.040
14647SOL    HW245839   0.057   8.237   2.076
14648SOL     OW45840   0.389   3.147   8.020
14648SOL    HW145841   0.319   3.206   8.050
14648SOL    HW245842   0.344   3.082   7.966
14649SOL     OW45843  14.426  12.119   8.947
14649SOL    HW145844  14.392  12.135   9.035
14649SOL    HW245845  14.444  12.207   8.912
14650SOL     OW45846   9.533   7.085   5.241
14650SOL    HW145847   9.473   7.135   5.185
14650SOL    HW245848   9.529   7.130   5.325
14651SOL     OW45849   1.910   4.612   2.345
14651SOL    HW145850   1.991   4.651   2.379
14651SOL    HW245851   1.859   4.592   2.424
14652SOL     OW45852   5.806   2.600   9.650
14652SOL    HW145853   5.899   2.611   9.670
14652SOL    HW245854   5.760   2.635   9.726
14653SOL     OW45855  14.791   1.255  12.353
14653SOL    HW145856  14.814   1.337  12.309
14653SOL    HW245857  14.707   1.230  12.314
14654SOL     OW45858   6.615   5.745   7.925
14654SOL    HW145859   6.648   5.656   7.937
14654SOL    HW245860   6.685   5.802   7.957
14655SOL     OW45861  11.706   0.361  12.132
14655SOL    HW145862  11.781   0.420  12.128
14655SOL    HW245863  11.743   0.275  12.152
14656SOL     OW45864   1.966   3.896   0.941
14656SOL    HW145865   1.912   3.826   0.978
14656SOL    HW245866   1.934   3.976   0.983
14657SOL     OW45867  11.555   7.793  13.420
14657SOL    HW145868  11.505   7.793  13.501
14657SOL    HW245869  11.596   7.707  13.417
14658SOL     OW45870  11.323   7.087  11.531
14658SOL    HW145871  11.238   7.047  11.549
14658SOL    HW245872  11.322   7.104  11.437
14659SOL     OW45873  12.465   4.431  12.616
14659SOL    HW145874  12.398   4.427  12.548
14659SOL    HW245875  12.517   4.352  12.602
14660SOL     OW45876  11.704  12.155   5.626
14660SOL    HW145877  11.649  12.128   5.699
14660SOL    HW245878  11.683  12.248   5.614
14661SOL     OW45879  13.041   8.609  14.189
14661SOL    HW145880  12.976   8.612  14.260
14661SOL    HW245881  13.027   8.691  14.140
14662SOL     OW45882   0.130   9.713   1.684
14662SOL    HW145883   0.114   9.802   1.715
14662SOL    HW245884   0.189   9.675   1.748
14663SOL     OW45885   9.128  13.120  12.679
14663SOL    HW145886   9.150  13.104  12.587
14663SOL    HW245887   9.041  13.082  12.690
14664SOL     OW45888  12.444  10.047  12.032
14664SOL    HW145889  12.496   9.987  12.085
14664SOL    HW245890  12.492  10.055  11.950
14665SOL     OW45891  10.669   6.633   2.063
14665SOL    HW145892  10.597   6.695   2.069
14665SOL    HW245893  10.673   6.591   2.149
14666SOL     OW45894  13.067  12.314   2.903
14666SOL    HW145895  13.115  12.360   2.971
14666SOL    HW245896  13.135  12.272   2.850
14667SOL     OW45897  13.521   4.450   9.617
14667SOL    HW145898  13.469   4.530   9.613
14667SOL    HW245899  13.480   4.397   9.685
14668SOL     OW45900   9.981   6.766  12.772
14668SOL    HW145901  10.030   6.768  12.854
14668SOL    HW245902   9.895   6.802  12.794
14669SOL     OW45903   0.792  14.499   7.573
14669SOL    HW145904   0.763  14.449   7.649
14669SOL    HW245905   0.799  14.589   7.604
14670SOL     OW45906   3.415  11.559   4.541
14670SOL    HW145907   3.348  11.626   4.534
14670SOL    HW245908   3.391  11.493   4.475
14671SOL     OW45909  11.704   9.437  11.747
14671SOL    HW145910  11.773   9.377  11.720
14671SOL    HW245911  11.746   9.496  11.809
14672SOL     OW45912   1.067  12.063   4.185
14672SOL    HW145913   1.133  12.121   4.148
14672SOL    HW245914   0.999  12.058   4.119
14673SOL     OW45915  13.389   2.397   8.160
14673SOL    HW145916  13.349   2.344   8.229
14673SOL    HW245917  13.322   2.405   8.093
14674SOL     OW45918  10.710  10.584  10.801
14674SOL    HW145919  10.641  10.650  10.790
14674SOL    HW245920  10.692  10.545  10.887
14675SOL     OW45921   3.425   1.825   2.526
14675SOL    HW145922   3.346   1.868   2.559
14675SOL    HW245923   3.415   1.826   2.431
14676SOL     OW45924  14.286   3.369  13.366
14676SOL    HW145925  14.324   3.444  13.412
14676SOL    HW245926  14.233   3.325  13.433
14677SOL     OW45927   5.141  14.055  11.498
14677SOL    HW145928   5.203  13.982  11.504
14677SOL    HW245929   5.059  14.014  11.471
14678SOL     OW45930   1.957  14.779   3.854
14678SOL    HW145931   1.976  14.704   3.910
14678SOL    HW245932   2.014  14.849   3.886
14679SOL     OW45933   9.193   0.777   4.461
14679SOL    HW145934   9.102   0.785   4.489
14679SOL    HW245935   9.189   0.738   4.374
14680SOL     OW45936   8.900  14.876  10.120
14680SOL    HW145937   8.939   0.065  10.170
14680SOL    HW245938   8.875  14.811  10.186
14681SOL     OW45939  13.757  14.550  12.796
14681SOL    HW145940  13.739  14.508  12.880
14681SOL    HW245941  13.825  14.615  12.815
14682SOL     OW45942   5.027  11.183   8.242
14682SOL    HW145943   4.992  11.234   8.314
14682SOL    HW245944   4.955  11.178   8.179
14683SOL     OW45945   4.159   3.497  11.532
14683SOL    HW145946   4.184   3.409  11.562
14683SOL    HW245947   4.230   3.553  11.563
14684SOL     OW45948  13.945   7.781  12.953
14684SOL    HW145949  13.929   7.728  13.031
14684SOL    HW245950  14.002   7.851  12.984
14685SOL     OW45951   6.081   4.782  10.506
14685SOL    HW145952   6.150   4.742  10.558
14685SOL    HW245953   6.003   4.775  10.560
14686SOL     OW45954   2.461   7.420   0.421
14686SOL    HW145955   2.448   7.333   0.458
14686SOL    HW245956   2.530   7.460   0.475
14687SOL     OW45957   5.182   4.494   4.852
14687SOL    HW145958   5.099   4.457   4.882
14687SOL    HW245959   5.222   4.424   4.799
14688SOL     OW45960   3.530  14.402   4.150
14688SOL    HW145961   3.602  14.458   4.179
14688SOL    HW245962   3.573  14.330   4.103
14689SOL     OW45963   5.789   6.087   7.834
14689SOL    HW145964   5.786   6.066   7.927
14689SOL    HW245965   5.866   6.142   7.824
14690SOL     OW45966   6.901   1.766   7.127
14690SOL    HW145967   6.856   1.840   7.169
14690SOL    HW245968   6.965   1.737   7.191
14691SOL     OW45969   8.339   0.375  10.861
14691SOL    HW145970   8.284   0.419  10.926
14691SOL    HW245971   8.277   0.331  10.803
14692SOL     OW45972  12.189   5.663  13.474
14692SOL    HW145973  12.230   5.678  13.559
14692SOL    HW245974  12.103   5.627  13.496
14693SOL     OW45975  10.963   5.584   1.519
14693SOL    HW145976  10.975   5.622   1.606
14693SOL    HW245977  11.021   5.508   1.518
14694SOL     OW45978  11.211  14.740   3.842
14694SOL    HW145979  11.247  14.696   3.766
14694SOL    HW245980  11.186  14.669   3.902
14695SOL     OW45981   3.213   5.722   2.448
14695SOL    HW145982   3.211   5.718   2.353
14695SOL    HW245983   3.155   5.651   2.476
14696SOL     OW45984   2.901   8.731   0.667
14696SOL    HW145985   2.975   8.770   0.714
14696SOL    HW245986   2.854   8.682   0.734
14697SOL     OW45987   0.310   2.701  11.912
14697SOL    HW145988   0.219   2.703  11.882
14697SOL    HW245989   0.341   2.615  11.887
14698SOL     OW45990   4.225   9.991  13.454
14698SOL    HW145991   4.230   9.901  13.421
14698SOL    HW245992   4.311  10.008  13.490
14699SOL     OW45993   9.005   8.500   5.029
14699SOL    HW145994   9.095   8.506   5.061
14699SOL    HW245995   8.984   8.589   4.999
14700SOL     OW45996  11.116   8.156   6.714
14700SOL    HW145997  11.124   8.085   6.650
14700SOL    HW245998  11.197   8.152   6.764
14701SOL     OW45999  10.592  11.724  10.215
14701SOL    HW146000  10.628  11.729  10.126
14701SOL    HW246001  10.557  11.635  10.222
14702SOL     OW46002   3.547   5.417   6.008
14702SOL    HW146003   3.596   5.371   6.077
14702SOL    HW246004   3.572   5.373   5.927
14703SOL     OW46005   1.779   5.044   4.845
14703SOL    HW146006   1.744   4.955   4.846
14703SOL    HW246007   1.727   5.091   4.909
14704SOL     OW46008   7.393  13.012  10.525
14704SOL    HW146009   7.398  12.921  10.494
14704SOL    HW246010   7.317  13.013  10.583
14705SOL     OW46011  11.809   4.394   9.510
14705SOL    HW146012  11.759   4.463   9.552
14705SOL    HW246013  11.790   4.316   9.561
14706SOL     OW46014   9.522   9.353   4.444
14706SOL    HW146015   9.613   9.354   4.472
14706SOL    HW246016   9.521   9.402   4.362
14707SOL     OW46017   8.769   5.068  12.501
14707SOL    HW146018   8.761   5.142  12.561
14707SOL    HW246019   8.851   5.025  12.527
14708SOL     OW46020   3.084  12.614   7.444
14708SOL    HW146021   3.089  12.709   7.438
14708SOL    HW246022   2.991  12.596   7.459
14709SOL     OW46023  13.797   2.737   4.095
14709SOL    HW146024  13.702   2.734   4.104
14709SOL    HW246025  13.829   2.682   4.167
14710SOL     OW46026   5.397   7.821   5.144
14710SOL    HW146027   5.385   7.789   5.234
14710SOL    HW246028   5.309   7.850   5.118
14711SOL     OW46029   7.930   7.518  12.433
14711SOL    HW146030   7.998   7.468  12.387
14711SOL    HW246031   7.942   7.494  12.525
14712SOL     OW46032   0.950  10.667  11.548
14712SOL    HW146033   0.931  10.757  11.576
14712SOL    HW246034   0.870  10.638  11.504
14713SOL     OW46035   4.773  14.456   2.940
14713SOL    HW146036   4.849  14.509   2.965
14713SOL    HW246037   4.698  14.501   2.978
14714SOL     OW46038   7.949   1.234  13.539
14714SOL    HW146039   8.013   1.225  13.609
14714SOL    HW246040   7.901   1.151  13.540
14715SOL     OW46041   7.309   2.168   3.417
14715SOL    HW146042   7.239   2.125   3.368
14715SOL    HW246043   7.272   2.182   3.504
14716SOL     OW46044   6.256   4.848  11.601
14716SOL    HW146045   6.305   4.780  11.646
14716SOL    HW246046   6.280   4.929  11.646
14717SOL     OW46047  13.569   4.316   1.769
14717SOL    HW146048  13.543   4.241   1.715
14717SOL    HW246049  13.511   4.313   1.845
14718SOL     OW46050   8.429  10.186  13.480
14718SOL    HW146051   8.433  10.138  13.563
14718SOL    HW246052   8.395  10.122  13.417
14719SOL     OW46053   4.127   9.032   0.048
14719SOL    HW146054   4.089   9.000   0.130
14719SOL    HW246055   4.198   8.971   0.029
14720SOL     OW46056   2.191   1.640   8.454
14720SOL    HW146057   2.231   1.713   8.500
14720SOL    HW246058   2.159   1.583   8.525
14721SOL     OW46059   1.484  12.835  12.373
14721SOL    HW146060   1.397  12.799  12.357
14721SOL    HW246061   1.542  12.789  12.313
14722SOL     OW46062   8.984   7.540   4.404
14722SOL    HW146063   9.064   7.501   4.369
14722SOL    HW246064   8.939   7.575   4.327
14723SOL     OW46065   3.818   1.007   4.825
14723SOL    HW146066   3.768   0.931   4.855
14723SOL    HW246067   3.756   1.056   4.770
14724SOL     OW46068   3.706  11.655  13.329
14724SOL    HW146069   3.745  11.625  13.247
14724SOL    HW246070   3.741  11.596  13.395
14725SOL     OW46071   5.695   1.891   6.447
14725SOL    HW146072   5.640   1.826   6.404
14725SOL    HW246073   5.716   1.954   6.377
14726SOL     OW46074   5.038  14.326   7.898
14726SOL    HW146075   4.994  14.344   7.981
14726SOL    HW246076   4.969  14.333   7.832
14727SOL     OW46077   0.885   5.375   5.155
14727SOL    HW146078   0.918   5.432   5.085
14727SOL    HW246079   0.791   5.394   5.159
14728SOL     OW46080   8.352  12.178   8.073
14728SOL    HW146081   8.382  12.153   8.161
14728SOL    HW246082   8.386  12.267   8.061
14729SOL     OW46083  13.256   6.352  14.349
14729SOL    HW146084  13.208   6.369  14.268
14729SOL    HW246085  13.321   6.286  14.326
14730SOL     OW46086   7.823  14.252   4.583
14730SOL    HW146087   7.886  14.290   4.644
14730SOL    HW246088   7.779  14.327   4.545
14731SOL     OW46089  12.072   4.890  12.198
14731SOL    HW146090  12.066   4.887  12.103
14731SOL    HW246091  12.148   4.836  12.220
14732SOL     OW46092   2.423   6.929   7.773
14732SOL    HW146093   2.480   6.877   7.830
14732SOL    HW246094   2.336   6.917   7.810
14733SOL     OW46095  14.864   4.846   3.755
14733SOL    HW146096   0.008   4.895   3.832
14733SOL    HW246097  14.769   4.840   3.760
14734SOL     OW46098  11.317   3.635   9.987
14734SOL    HW146099  11.366   3.564  10.028
14734SOL    HW246100  11.328   3.709  10.047
14735SOL     OW46101  13.596   5.855   0.358
14735SOL    HW146102  13.554   5.805   0.428
14735SOL    HW246103  13.666   5.904   0.401
14736SOL     OW46104   0.217  11.918  13.354
14736SOL    HW146105   0.133  11.964  13.350
14736SOL    HW246106   0.274  11.976  13.405
14737SOL     OW46107   7.059   6.307  10.087
14737SOL    HW146108   7.008   6.226  10.082
14737SOL    HW246109   7.020   6.365  10.022
14738SOL     OW46110  11.849   8.611   3.103
14738SOL    HW146111  11.781   8.632   3.167
14738SOL    HW246112  11.930   8.641   3.143
14739SOL     OW46113   7.977   4.940   9.587
14739SOL    HW146114   7.974   4.899   9.674
14739SOL    HW246115   7.927   5.022   9.598
14740SOL     OW46116   3.988  14.147   8.787
14740SOL    HW146117   4.015  14.239   8.790
14740SOL    HW246118   3.902  14.149   8.744
14741SOL     OW46119   6.547  12.493   4.180
14741SOL    HW146120   6.561  12.489   4.085
14741SOL    HW246121   6.604  12.425   4.216
14742SOL     OW46122  12.371  14.610   3.700
14742SOL    HW146123  12.441  14.583   3.641
14742SOL    HW246124  12.316  14.668   3.647
14743SOL     OW46125   9.158  11.317   9.190
14743SOL    HW146126   9.182  11.409   9.176
14743SOL    HW246127   9.123  11.315   9.279
14744SOL     OW46128  10.507   4.067  13.128
14744SOL    HW146129  10.432   4.047  13.072
14744SOL    HW246130  10.499   4.161  13.145
14745SOL     OW46131   9.473   4.498   3.265
14745SOL    HW146132   9.393   4.524   3.312
14745SOL    HW246133   9.515   4.581   3.242
14746SOL     OW46134  11.898   4.940   6.424
14746SOL    HW146135  11.977   4.995   6.425
14746SOL    HW246136  11.883   4.922   6.331
14747SOL     OW46137   7.367   4.498   9.458
14747SOL    HW146138   7.362   4.594   9.458
14747SOL    HW246139   7.461   4.479   9.452
14748SOL     OW46140   1.375   5.925   2.539
14748SOL    HW146141   1.298   5.886   2.581
14748SOL    HW246142   1.357   5.917   2.445
14749SOL     OW46143   1.186   5.298  10.001
14749SOL    HW146144   1.210   5.336  10.086
14749SOL    HW246145   1.179   5.204  10.018
14750SOL     OW46146   1.156   6.725   5.485
14750SOL    HW146147   1.073   6.773   5.490
14750SOL    HW246148   1.207   6.758   5.559
14751SOL     OW46149   6.092   0.686   9.454
14751SOL    HW146150   6.002   0.713   9.475
14751SOL    HW246151   6.137   0.768   9.433
14752SOL     OW46152   7.955  13.755   9.651
14752SOL    HW146153   8.000  13.709   9.722
14752SOL    HW246154   7.909  13.686   9.604
14753SOL     OW46155  12.509   9.330   9.122
14753SOL    HW146156  12.417   9.328   9.095
14753SOL    HW246157  12.547   9.252   9.082
14754SOL     OW46158   9.075   2.822   8.280
14754SOL    HW146159   9.068   2.755   8.212
14754SOL    HW246160   9.091   2.903   8.231
14755SOL     OW46161   4.959  10.013   0.822
14755SOL    HW146162   4.933  10.094   0.865
14755SOL    HW246163   4.996  10.042   0.738
14756SOL     OW46164  12.807   4.712   2.856
14756SOL    HW146165  12.897   4.697   2.884
14756SOL    HW246166  12.760   4.731   2.937
14757SOL     OW46167  13.003   5.252  10.087
14757SOL    HW146168  12.930   5.202  10.123
14757SOL    HW246169  13.049   5.286  10.164
14758SOL     OW46170  14.339  13.196   0.865
14758SOL    HW146171  14.297  13.142   0.800
14758SOL    HW246172  14.268  13.231   0.919
14759SOL     OW46173   6.985   5.504   5.413
14759SOL    HW146174   6.943   5.434   5.463
14759SOL    HW246175   7.011   5.462   5.331
14760SOL     OW46176   6.916  12.385   3.790
14760SOL    HW146177   6.903  12.476   3.819
14760SOL    HW246178   7.011  12.375   3.782
14761SOL     OW46179  14.553  11.043  10.411
14761SOL    HW146180  14.475  11.037  10.467
14761SOL    HW246181  14.560  11.136  10.390
14762SOL     OW46182   2.785   5.465   0.153
14762SOL    HW146183   2.828   5.405   0.090
14762SOL    HW246184   2.851   5.532   0.171
14763SOL     OW46185   6.488   6.463   0.862
14763SOL    HW146186   6.495   6.383   0.811
14763SOL    HW246187   6.513   6.438   0.950
14764SOL     OW46188   9.207   3.507   2.273
14764SOL    HW146189   9.245   3.421   2.253
14764SOL    HW246190   9.131   3.487   2.327
14765SOL     OW46191   9.819   2.674   0.265
14765SOL    HW146192   9.888   2.739   0.265
14765SOL    HW246193   9.864   2.591   0.252
14766SOL     OW46194   2.857  13.682  14.014
14766SOL    HW146195   2.839  13.589  14.020
14766SOL    HW246196   2.950  13.691  14.038
14767SOL     OW46197  11.744  13.346   6.535
14767SOL    HW146198  11.838  13.328   6.533
14767SOL    HW246199  11.727  13.373   6.625
14768SOL     OW46200  13.558   4.356   3.344
14768SOL    HW146201  13.632   4.414   3.322
14768SOL    HW246202  13.570   4.336   3.436
14769SOL     OW46203  11.858   8.951  10.181
14769SOL    HW146204  11.861   8.966  10.086
14769SOL    HW246205  11.765   8.956  10.203
14770SOL     OW46206  14.542  13.384  10.369
14770SOL    HW146207  14.601  13.419  10.436
14770SOL    HW246208  14.541  13.449  10.300
14771SOL     OW46209   0.304   4.430   5.190
14771SOL    HW146210   0.370   4.362   5.184
14771SOL    HW246211   0.330   4.495   5.125
14772SOL     OW46212   2.463  13.661   0.885
14772SOL    HW146213   2.487  13.587   0.830
14772SOL    HW246214   2.540  13.717   0.886
14773SOL     OW46215  10.801   5.459   2.695
14773SOL    HW146216  10.880   5.510   2.680
14773SOL    HW246217  10.831   5.379   2.738
14774SOL     OW46218  12.570  13.232   9.121
14774SOL    HW146219  12.619  13.174   9.062
14774SOL    HW246220  12.563  13.182   9.203
14775SOL     OW46221   7.417   0.255   5.495
14775SOL    HW146222   7.346   0.311   5.464
14775SOL    HW246223   7.485   0.264   5.428
14776SOL     OW46224  13.298  12.262   4.306
14776SOL    HW146225  13.290  12.187   4.365
14776SOL    HW246226  13.362  12.319   4.349
14777SOL     OW46227  12.651   9.931  12.530
14777SOL    HW146228  12.584   9.867  12.505
14777SOL    HW246229  12.612   9.977  12.605
14778SOL     OW46230  14.714   8.215   8.789
14778SOL    HW146231  14.779   8.265   8.741
14778SOL    HW246232  14.744   8.217   8.880
14779SOL     OW46233   4.234  11.074   1.584
14779SOL    HW146234   4.322  11.056   1.553
14779SOL    HW246235   4.181  11.079   1.504
14780SOL     OW46236   5.795   1.064   8.932
14780SOL    HW146237   5.765   1.041   9.020
14780SOL    HW246238   5.817   0.981   8.892
14781SOL     OW46239   8.174   8.247   0.574
14781SOL    HW146240   8.164   8.314   0.642
14781SOL    HW246241   8.205   8.295   0.497
14782SOL     OW46242   3.197   2.464   4.919
14782SOL    HW146243   3.162   2.551   4.903
14782SOL    HW246244   3.140   2.427   4.986
14783SOL     OW46245  14.326   6.841   6.927
14783SOL    HW146246  14.416   6.824   6.955
14783SOL    HW246247  14.297   6.758   6.890
14784SOL     OW46248   3.828   7.964   1.167
14784SOL    HW146249   3.887   8.037   1.148
14784SOL    HW246250   3.875   7.911   1.231
14785SOL     OW46251   3.068  13.209   3.502
14785SOL    HW146252   2.997  13.145   3.492
14785SOL    HW246253   3.080  13.217   3.597
14786SOL     OW46254  12.303   8.458   3.326
14786SOL    HW146255  12.370   8.431   3.389
14786SOL    HW246256  12.352   8.478   3.246
14787SOL     OW46257   0.535   9.860  12.176
14787SOL    HW146258   0.482   9.785  12.202
14787SOL    HW246259   0.624   9.825  12.165
14788SOL     OW46260   8.622   5.371   0.906
14788SOL    HW146261   8.655   5.400   0.991
14788SOL    HW246262   8.528   5.362   0.920
14789SOL     OW46263  13.382   6.175   0.662
14789SOL    HW146264  13.389   6.232   0.586
14789SOL    HW246265  13.288   6.160   0.672
14790SOL     OW46266  14.041  14.440   2.122
14790SOL    HW146267  14.098  14.364   2.135
14790SOL    HW246268  14.098  14.515   2.138
14791SOL     OW46269  12.254  10.172   2.870
14791SOL    HW146270  12.241  10.078   2.876
14791SOL    HW246271  12.186  10.202   2.809
14792SOL     OW46272  14.598   9.403  11.063
14792SOL    HW146273  14.588   9.317  11.103
14792SOL    HW246274  14.532   9.458  11.106
14793SOL     OW46275   3.534  14.041   7.587
14793SOL    HW146276   3.568  13.953   7.568
14793SOL    HW246277   3.495  14.070   7.505
14794SOL     OW46278  13.091   7.134   1.387
14794SOL    HW146279  13.173   7.144   1.436
14794SOL    HW246280  13.041   7.070   1.438
14795SOL     OW46281  11.786  13.160  11.838
14795SOL    HW146282  11.854  13.177  11.903
14795SOL    HW246283  11.754  13.072  11.858
14796SOL     OW46284  11.711   8.632   4.881
14796SOL    HW146285  11.733   8.616   4.973
14796SOL    HW246286  11.734   8.723   4.866
14797SOL     OW46287  11.847   9.107  11.955
14797SOL    HW146288  11.940   9.087  11.944
14797SOL    HW246289  11.837   9.195  11.917
14798SOL     OW46290   0.267   6.423  14.598
14798SOL    HW146291   0.361   6.434  14.612
14798SOL    HW246292   0.244   6.491  14.535
14799SOL     OW46293  12.092  10.966  13.134
14799SOL    HW146294  12.059  11.026  13.201
14799SOL    HW246295  12.013  10.935  13.090
14800SOL     OW46296   1.968  13.913   4.520
14800SOL    HW146297   1.928  13.914   4.434
14800SOL    HW246298   1.924  13.842   4.567
14801SOL     OW46299   1.464   9.088  13.320
14801SOL    HW146300   1.429   9.176  13.302
14801SOL    HW246301   1.387   9.038  13.349
14802SOL     OW46302   6.983  11.130   4.569
14802SOL    HW146303   6.948  11.204   4.619
14802SOL    HW246304   7.025  11.170   4.493
14803SOL     OW46305   4.464   4.942   8.391
14803SOL    HW146306   4.401   5.002   8.430
14803SOL    HW246307   4.527   4.998   8.346
14804SOL     OW46308   3.329   0.768  11.964
14804SOL    HW146309   3.311   0.687  11.915
14804SOL    HW246310   3.418   0.792  11.937
14805SOL     OW46311   7.950  13.175   1.491
14805SOL    HW146312   7.860  13.175   1.459
14805SOL    HW246313   8.002  13.149   1.414
14806SOL     OW46314   7.603   5.100   3.732
14806SOL    HW146315   7.509   5.092   3.747
14806SOL    HW246316   7.633   5.163   3.798
14807SOL     OW46317  11.088   1.248   7.930
14807SOL    HW146318  11.016   1.231   7.870
14807SOL    HW246319  11.096   1.168   7.982
14808SOL     OW46320   9.421   4.236   7.517
14808SOL    HW146321   9.482   4.166   7.543
14808SOL    HW246322   9.349   4.189   7.475
14809SOL     OW46323  14.435   0.807   9.168
14809SOL    HW146324  14.510   0.803   9.227
14809SOL    HW246325  14.371   0.746   9.206
14810SOL     OW46326   0.390   7.741   5.456
14810SOL    HW146327   0.417   7.723   5.366
14810SOL    HW246328   0.310   7.793   5.448
14811SOL     OW46329   7.448  12.287  11.455
14811SOL    HW146330   7.362  12.303  11.418
14811SOL    HW246331   7.500  12.251  11.383
14812SOL     OW46332   6.204   6.085   2.674
14812SOL    HW146333   6.296   6.115   2.672
14812SOL    HW246334   6.153   6.165   2.658
14813SOL     OW46335   6.388   3.336   4.291
14813SOL    HW146336   6.302   3.300   4.313
14813SOL    HW246337   6.434   3.340   4.375
14814SOL     OW46338  14.574   2.764   8.528
14814SOL    HW146339  14.512   2.834   8.506
14814SOL    HW246340  14.641   2.807   8.580
14815SOL     OW46341  11.854   1.003  11.960
14815SOL    HW146342  11.784   0.967  11.906
14815SOL    HW246343  11.926   0.940  11.953
14816SOL     OW46344   2.208  12.730   9.729
14816SOL    HW146345   2.295  12.704   9.698
14816SOL    HW246346   2.153  12.655   9.706
14817SOL     OW46347   3.817   4.241  10.352
14817SOL    HW146348   3.903   4.221  10.316
14817SOL    HW246349   3.833   4.304  10.422
14818SOL     OW46350   6.553  12.292  10.822
14818SOL    HW146351   6.575  12.372  10.871
14818SOL    HW246352   6.600  12.301  10.739
14819SOL     OW46353   3.666   2.700  10.844
14819SOL    HW146354   3.698   2.650  10.768
14819SOL    HW246355   3.738   2.697  10.907
14820SOL     OW46356   4.544   1.246   7.515
14820SOL    HW146357   4.470   1.212   7.565
14820SOL    HW246358   4.616   1.249   7.579
14821SOL     OW46359   0.694  13.746  13.204
14821SOL    HW146360   0.749  13.779  13.134
14821SOL    HW246361   0.613  13.796  13.197
14822SOL     OW46362   6.636  13.803   0.046
14822SOL    HW146363   6.552  13.796  14.881
14822SOL    HW246364   6.679  13.719   0.032
14823SOL     OW46365   4.133  13.986   4.030
14823SOL    HW146366   4.054  14.030   4.000
14823SOL    HW246367   4.122  13.895   4.004
14824SOL     OW46368  10.832   1.971   1.461
14824SOL    HW146369  10.759   1.921   1.425
14824SOL    HW246370  10.840   2.046   1.402
14825SOL     OW46371   8.268  11.070  11.194
14825SOL    HW146372   8.225  11.053  11.278
14825SOL    HW246373   8.239  10.999  11.138
14826SOL     OW46374  10.111   4.673   8.021
14826SOL    HW146375  10.128   4.579   8.014
14826SOL    HW246376  10.022   4.679   8.057
14827SOL     OW46377   1.058  14.545   3.846
14827SOL    HW146378   0.986  14.584   3.895
14827SOL    HW246379   1.032  14.455   3.832
14828SOL     OW46380   6.876  11.087   4.008
14828SOL    HW146381   6.909  11.047   4.089
14828SOL    HW246382   6.935  11.054   3.940
14829SOL     OW46383   7.696  11.730   7.982
14829SOL    HW146384   7.729  11.810   8.023
14829SOL    HW246385   7.761  11.708   7.916
14830SOL     OW46386   1.674  10.982  11.331
14830SOL    HW146387   1.705  11.008  11.418
14830SOL    HW246388   1.686  10.887  11.329
14831SOL     OW46389  13.136   7.483   3.825
14831SOL    HW146390  13.106   7.412   3.769
14831SOL    HW246391  13.120   7.563   3.775
14832SOL     OW46392   6.658   9.546   7.199
14832SOL    HW146393   6.696   9.520   7.115
14832SOL    HW246394   6.702   9.490   7.263
14833SOL     OW46395  14.448   0.549  12.192
14833SOL    HW146396  14.419   0.520  12.278
14833SOL    HW246397  14.387   0.618  12.168
14834SOL     OW46398  14.027   3.683   8.566
14834SOL    HW146399  13.954   3.722   8.613
14834SOL    HW246400  14.102   3.739   8.587
14835SOL     OW46401   2.733   5.970   9.784
14835SOL    HW146402   2.644   5.936   9.780
14835SOL    HW246403   2.722   6.065   9.784
14836SOL     OW46404  11.346   3.505   4.263
14836SOL    HW146405  11.424   3.452   4.247
14836SOL    HW246406  11.342   3.514   4.358
14837SOL     OW46407  14.594  10.683   0.988
14837SOL    HW146408  14.637  10.610   1.032
14837SOL    HW246409  14.514  10.645   0.951
14838SOL     OW46410   4.219   8.438   4.632
14838SOL    HW146411   4.265   8.354   4.620
14838SOL    HW246412   4.241   8.465   4.720
14839SOL     OW46413   9.882   2.826   3.516
14839SOL    HW146414   9.822   2.898   3.534
14839SOL    HW246415   9.963   2.868   3.486
14840SOL     OW46416  10.027  11.331  10.801
14840SOL    HW146417  10.074  11.345  10.718
14840SOL    HW246418  10.026  11.418  10.842
14841SOL     OW46419  12.743   2.336   1.245
14841SOL    HW146420  12.761   2.392   1.321
14841SOL    HW246421  12.695   2.261   1.281
14842SOL     OW46422  13.861   8.728   3.983
14842SOL    HW146423  13.784   8.769   3.943
14842SOL    HW246424  13.929   8.734   3.916
14843SOL     OW46425   0.531  12.369  14.781
14843SOL    HW146426   0.471  12.301  14.750
14843SOL    HW246427   0.476  12.429  14.832
14844SOL     OW46428   6.804  10.804   1.488
14844SOL    HW146429   6.753  10.759   1.555
14844SOL    HW246430   6.892  10.809   1.524
14845SOL     OW46431  14.881  14.071   2.494
14845SOL    HW146432  14.816  14.026   2.547
14845SOL    HW246433   0.045  14.128   2.555
14846SOL     OW46434   7.748   4.068  13.745
14846SOL    HW146435   7.703   4.002  13.692
14846SOL    HW246436   7.747   4.032  13.834
14847SOL     OW46437  10.208  13.519   7.642
14847SOL    HW146438  10.249  13.592   7.688
14847SOL    HW246439  10.269  13.446   7.651
14848SOL     OW46440   2.664  13.097  11.981
14848SOL    HW146441   2.638  13.005  11.978
14848SOL    HW246442   2.607  13.136  12.048
14849SOL     OW46443   2.095   5.635   1.209
14849SOL    HW146444   2.168   5.667   1.155
14849SOL    HW246445   2.025   5.698   1.195
14850SOL     OW46446   1.907   5.085   4.323
14850SOL    HW146447   1.959   5.004   4.329
14850SOL    HW246448   1.844   5.078   4.394
14851SOL     OW46449   4.602  14.881   4.556
14851SOL    HW146450   4.693  14.852   4.545
14851SOL    HW246451   4.605   0.063   4.627
14852SOL     OW46452   5.131   3.423   2.136
14852SOL    HW146453   5.216   3.395   2.171
14852SOL    HW246454   5.067   3.369   2.184
14853SOL     OW46455  14.145   4.261   6.896
14853SOL    HW146456  14.181   4.227   6.978
14853SOL    HW246457  14.162   4.192   6.832
14854SOL     OW46458  12.085  13.109   1.413
14854SOL    HW146459  12.033  13.168   1.359
14854SOL    HW246460  12.166  13.096   1.363
14855SOL     OW46461   9.543   7.204   2.740
14855SOL    HW146462   9.569   7.263   2.811
14855SOL    HW246463   9.465   7.160   2.774
14856SOL     OW46464   0.064   0.456   0.602
14856SOL    HW146465   0.054   0.431   0.510
14856SOL    HW246466  14.857   0.465   0.634
14857SOL     OW46467   6.302   6.358   3.570
14857SOL    HW146468   6.285   6.403   3.487
14857SOL    HW246469   6.236   6.288   3.573
14858SOL     OW46470  13.459   8.702  12.440
14858SOL    HW146471  13.539   8.666  12.480
14858SOL    HW246472  13.402   8.627  12.429
14859SOL     OW46473  12.357  12.022   0.982
14859SOL    HW146474  12.409  11.948   1.014
14859SOL    HW246475  12.299  11.984   0.917
14860SOL     OW46476   8.874   6.487   6.071
14860SOL    HW146477   8.831   6.556   6.121
14860SOL    HW246478   8.892   6.527   5.986
14861SOL     OW46479   3.188  10.247  11.353
14861SOL    HW146480   3.251  10.292  11.409
14861SOL    HW246481   3.235  10.231  11.272
14862SOL     OW46482   0.308  11.702   1.343
14862SOL    HW146483   0.372  11.773   1.352
14862SOL    HW246484   0.339  11.633   1.401
14863SOL     OW46485  13.527   2.036   7.953
14863SOL    HW146486  13.510   2.047   7.859
14863SOL    HW246487  13.544   1.943   7.964
14864SOL     OW46488   5.897  13.402   8.912
14864SOL    HW146489   5.967  13.338   8.926
14864SOL    HW246490   5.931  13.461   8.845
14865SOL     OW46491   2.851  12.110   2.976
14865SOL    HW146492   2.830  12.190   2.928
14865SOL    HW246493   2.881  12.049   2.908
14866SOL     OW46494   6.625   6.099   3.077
14866SOL    HW146495   6.572   6.040   3.132
14866SOL    HW246496   6.636   6.178   3.131
14867SOL     OW46497   5.076   6.970   5.000
14867SOL    HW146498   5.163   6.983   4.962
14867SOL    HW246499   5.017   7.016   4.941
14868SOL     OW46500   7.907   5.422  14.188
14868SOL    HW146501   7.812   5.420  14.191
14868SOL    HW246502   7.933   5.480  14.260
14869SOL     OW46503   4.749   2.838   3.131
14869SOL    HW146504   4.662   2.797   3.132
14869SOL    HW246505   4.806   2.771   3.093
14870SOL     OW46506   5.149   9.374  14.473
14870SOL    HW146507   5.223   9.339  14.423
14870SOL    HW246508   5.155   9.468  14.462
14871SOL     OW46509   2.625   8.891   9.119
14871SOL    HW146510   2.552   8.889   9.180
14871SOL    HW246511   2.652   8.800   9.110
14872SOL     OW46512   8.914  11.677  10.427
14872SOL    HW146513   8.970  11.611  10.467
14872SOL    HW246514   8.860  11.629  10.364
14873SOL     OW46515  10.613   0.520  10.552
14873SOL    HW146516  10.524   0.488  10.537
14873SOL    HW246517  10.601   0.610  10.584
14874SOL     OW46518  13.622   3.147   4.936
14874SOL    HW146519  13.554   3.135   5.002
14874SOL    HW246520  13.627   3.062   4.892
14875SOL     OW46521  11.680   0.683   1.708
14875SOL    HW146522  11.634   0.766   1.719
14875SOL    HW246523  11.704   0.681   1.615
14876SOL     OW46524   6.208   4.990   7.824
14876SOL    HW146525   6.160   4.920   7.778
14876SOL    HW246526   6.197   5.067   7.768
14877SOL     OW46527   2.559  13.796   9.316
14877SOL    HW146528   2.526  13.866   9.260
14877SOL    HW246529   2.505  13.800   9.395
14878SOL     OW46530  11.126   6.686   5.190
14878SOL    HW146531  11.084   6.745   5.252
14878SOL    HW246532  11.206   6.658   5.234
14879SOL     OW46533  13.572   5.987   0.666
14879SOL    HW146534  13.499   6.044   0.640
14879SOL    HW246535  13.551   5.902   0.627
14880SOL     OW46536   2.781   5.461  11.476
14880SOL    HW146537   2.695   5.440  11.512
14880SOL    HW246538   2.834   5.384  11.493
14881SOL     OW46539   8.798  13.248   7.370
14881SOL    HW146540   8.849  13.308   7.315
14881SOL    HW246541   8.851  13.237   7.449
14882SOL     OW46542   9.947   4.987  10.052
14882SOL    HW146543   9.931   4.937  10.132
14882SOL    HW246544   9.889   4.948   9.987
14883SOL     OW46545   6.734  12.261   8.483
14883SOL    HW146546   6.706  12.266   8.392
14883SOL    HW246547   6.827  12.241   8.480
14884SOL     OW46548   9.557   2.325   0.914
14884SOL    HW146549   9.600   2.409   0.898
14884SOL    HW246550   9.629   2.265   0.935
14885SOL     OW46551  12.221  10.902   8.376
14885SOL    HW146552  12.227  10.975   8.438
14885SOL    HW246553  12.144  10.853   8.404
14886SOL     OW46554  14.277   4.633  10.460
14886SOL    HW146555  14.306   4.703  10.402
14886SOL    HW246556  14.329   4.557  10.435
14887SOL     OW46557   6.545   8.731   0.705
14887SOL    HW146558   6.491   8.805   0.680
14887SOL    HW246559   6.485   8.670   0.746
14888SOL     OW46560   4.908   0.350  10.315
14888SOL    HW146561   4.911   0.275  10.374
14888SOL    HW246562   4.837   0.404  10.348
14889SOL     OW46563   5.268  10.431  13.840
14889SOL    HW146564   5.174  10.447  13.845
14889SOL    HW246565   5.276  10.358  13.778
14890SOL     OW46566  12.775   0.807   6.145
14890SOL    HW146567  12.801   0.796   6.237
14890SOL    HW246568  12.687   0.846   6.150
14891SOL     OW46569   7.221  12.888   1.891
14891SOL    HW146570   7.310  12.884   1.857
14891SOL    HW246571   7.222  12.962   1.953
14892SOL     OW46572   6.192   0.106   4.803
14892SOL    HW146573   6.143   0.156   4.739
14892SOL    HW246574   6.232   0.035   4.753
14893SOL     OW46575  13.158   9.609  13.999
14893SOL    HW146576  13.120   9.696  14.008
14893SOL    HW246577  13.252   9.623  13.994
14894SOL     OW46578  12.522  10.611   0.769
14894SOL    HW146579  12.445  10.561   0.793
14894SOL    HW246580  12.536  10.591   0.676
14895SOL     OW46581   6.681   8.387   7.464
14895SOL    HW146582   6.738   8.350   7.531
14895SOL    HW246583   6.597   8.342   7.476
14896SOL     OW46584  12.257   3.963   8.912
14896SOL    HW146585  12.300   3.923   8.836
14896SOL    HW246586  12.297   4.049   8.919
14897SOL     OW46587   5.131   1.712  10.786
14897SOL    HW146588   5.105   1.768  10.713
14897SOL    HW246589   5.211   1.753  10.821
14898SOL     OW46590   9.697   5.764   2.176
14898SOL    HW146591   9.697   5.822   2.099
14898SOL    HW246592   9.779   5.784   2.221
14899SOL     OW46593   5.641   9.000   4.378
14899SOL    HW146594   5.625   8.913   4.414
14899SOL    HW246595   5.557   9.027   4.341
14900SOL     OW46596  11.599  13.651   2.288
14900SOL    HW146597  11.643  13.568   2.309
14900SOL    HW246598  11.566  13.639   2.199
14901SOL     OW46599  13.819   3.469  11.513
14901SOL    HW146600  13.776   3.548  11.480
14901SOL    HW246601  13.768   3.445  11.590
14902SOL     OW46602  13.768   3.634   0.309
14902SOL    HW146603  13.808   3.582   0.240
14902SOL    HW246604  13.819   3.614   0.387
14903SOL     OW46605   0.801   0.602   1.004
14903SOL    HW146606   0.776   0.515   0.974
14903SOL    HW246607   0.788   0.600   1.099
14904SOL     OW46608   1.002   1.047  10.570
14904SOL    HW146609   1.091   1.063  10.539
14904SOL    HW246610   1.007   1.059  10.665
14905SOL     OW46611  13.664   2.145   5.400
14905SOL    HW146612  13.743   2.094   5.379
14905SOL    HW246613  13.656   2.207   5.328
14906SOL     OW46614  11.164   6.870  11.299
14906SOL    HW146615  11.111   6.881  11.378
14906SOL    HW246616  11.180   6.776  11.293
14907SOL     OW46617   0.174  14.190   7.354
14907SOL    HW146618   0.236  14.156   7.290
14907SOL    HW246619   0.133  14.112   7.392
14908SOL     OW46620   9.479   5.867  12.590
14908SOL    HW146621   9.519   5.856  12.504
14908SOL    HW246622   9.550   5.899  12.645
14909SOL     OW46623   8.890   7.872  11.576
14909SOL    HW146624   8.976   7.881  11.616
14909SOL    HW246625   8.859   7.961  11.564
14910SOL     OW46626   9.054   0.570  13.503
14910SOL    HW146627   8.976   0.570  13.559
14910SOL    HW246628   9.056   0.658  13.466
14911SOL     OW46629   4.770  11.982  13.771
14911SOL    HW146630   4.790  11.890  13.788
14911SOL    HW246631   4.765  11.988  13.676
14912SOL     OW46632  10.221   0.176  12.851
14912SOL    HW146633  10.237   0.251  12.794
14912SOL    HW246634  10.152   0.205  12.910
14913SOL     OW46635   1.621  13.297  12.192
14913SOL    HW146636   1.534  13.259  12.208
14913SOL    HW246637   1.647  13.332  12.277
14914SOL     OW46638  11.448  14.814   0.364
14914SOL    HW146639  11.436  14.776   0.277
14914SOL    HW246640  11.509   0.005   0.349
14915SOL     OW46641   5.406   2.631   8.224
14915SOL    HW146642   5.335   2.622   8.160
14915SOL    HW246643   5.479   2.583   8.184
14916SOL     OW46644  12.688   8.210   2.566
14916SOL    HW146645  12.679   8.229   2.659
14916SOL    HW246646  12.667   8.117   2.557
14917SOL     OW46647   3.102  13.938  11.158
14917SOL    HW146648   3.055  14.004  11.106
14917SOL    HW246649   3.103  13.974  11.247
14918SOL     OW46650   2.293   2.733   7.822
14918SOL    HW146651   2.304   2.639   7.810
14918SOL    HW246652   2.379   2.770   7.802
14919SOL     OW46653  13.245  13.797   7.512
14919SOL    HW146654  13.336  13.767   7.511
14919SOL    HW246655  13.194  13.716   7.519
14920SOL     OW46656   5.624  14.408   2.683
14920SOL    HW146657   5.626  14.493   2.727
14920SOL    HW246658   5.698  14.360   2.719
14921SOL     OW46659  13.842   5.192   9.990
14921SOL    HW146660  13.936   5.205   9.994
14921SOL    HW246661  13.830   5.117   9.932
14922SOL     OW46662  11.985  13.474   2.407
14922SOL    HW146663  11.929  13.429   2.470
14922SOL    HW246664  11.951  13.446   2.321
14923SOL     OW46665   7.406   1.255  10.351
14923SOL    HW146666   7.473   1.199  10.391
14923SOL    HW246667   7.425   1.252  10.257
14924SOL     OW46668  11.596   7.738   2.973
14924SOL    HW146669  11.601   7.832   2.956
14924SOL    HW246670  11.684   7.713   2.999
14925SOL     OW46671  14.341   4.340  10.506
14925SOL    HW146672  14.372   4.364  10.594
14925SOL    HW246673  14.420   4.311  10.461
14926SOL     OW46674  14.738   6.580   1.251
14926SOL    HW146675  14.650   6.615   1.235
14926SOL    HW246676  14.725   6.516   1.322
14927SOL     OW46677   3.529   2.603   0.409
14927SOL    HW146678   3.620   2.612   0.434
14927SOL    HW246679   3.519   2.659   0.332
14928SOL     OW46680   8.569   0.403  14.568
14928SOL    HW146681   8.496   0.397  14.506
14928SOL    HW246682   8.640   0.356  14.526
14929SOL     OW46683   8.665   5.828  10.144
14929SOL    HW146684   8.664   5.754  10.084
14929SOL    HW246685   8.576   5.863  10.141
14930SOL     OW46686  13.028   4.523   8.947
14930SOL    HW146687  13.111   4.553   8.984
14930SOL    HW246688  13.025   4.430   8.969
14931SOL     OW46689   0.211   0.758  11.582
14931SOL    HW146690   0.192   0.850  11.599
14931SOL    HW246691   0.193   0.715  11.665
14932SOL     OW46692   5.167   6.478   8.885
14932SOL    HW146693   5.208   6.545   8.939
14932SOL    HW246694   5.129   6.526   8.811
14933SOL     OW46695  12.664  11.157   8.957
14933SOL    HW146696  12.588  11.201   8.920
14933SOL    HW246697  12.646  11.064   8.946
14934SOL     OW46698  11.138  10.331   6.109
14934SOL    HW146699  11.089  10.251   6.128
14934SOL    HW246700  11.074  10.401   6.116
14935SOL     OW46701   9.892  10.953  14.717
14935SOL    HW146702   9.884  11.001  14.635
14935SOL    HW246703   9.869  10.863  14.694
14936SOL     OW46704  10.154   0.505   6.007
14936SOL    HW146705  10.121   0.557   5.934
14936SOL    HW246706  10.247   0.527   6.011
14937SOL     OW46707   6.230   7.012   4.965
14937SOL    HW146708   6.319   7.045   4.955
14937SOL    HW246709   6.175   7.091   4.961
14938SOL     OW46710   8.918   2.964   0.554
14938SOL    HW146711   8.985   2.973   0.622
14938SOL    HW246712   8.921   3.047   0.507
14939SOL     OW46713   5.774   2.590  10.822
14939SOL    HW146714   5.706   2.635  10.872
14939SOL    HW246715   5.811   2.526  10.884
14940SOL     OW46716   5.576   1.010   6.357
14940SOL    HW146717   5.512   0.989   6.290
14940SOL    HW246718   5.572   0.936   6.418
14941SOL     OW46719  13.791   9.765   5.390
14941SOL    HW146720  13.712   9.795   5.345
14941SOL    HW246721  13.848   9.842   5.392
14942SOL     OW46722   7.793  12.949  10.412
14942SOL    HW146723   7.863  12.888  10.435
14942SOL    HW246724   7.734  12.899  10.356
14943SOL     OW46725   0.285   7.652   8.257
14943SOL    HW146726   0.217   7.624   8.196
14943SOL    HW246727   0.319   7.733   8.219
14944SOL     OW46728  13.507   6.870  11.803
14944SOL    HW146729  13.563   6.795  11.827
14944SOL    HW246730  13.565   6.945  11.808
14945SOL     OW46731   0.898  14.669   4.959
14945SOL    HW146732   0.871  14.578   4.945
14945SOL    HW246733   0.986  14.662   4.996
14946SOL     OW46734   8.762  13.616   9.261
14946SOL    HW146735   8.725  13.694   9.221
14946SOL    HW246736   8.794  13.645   9.347
14947SOL     OW46737   6.837   2.395   0.487
14947SOL    HW146738   6.787   2.333   0.435
14947SOL    HW246739   6.863   2.463   0.424
14948SOL     OW46740   8.708   5.219   2.263
14948SOL    HW146741   8.759   5.157   2.315
14948SOL    HW246742   8.740   5.208   2.174
14949SOL     OW46743   8.176  11.853  11.108
14949SOL    HW146744   8.175  11.763  11.074
14949SOL    HW246745   8.235  11.900  11.050
14950SOL     OW46746  13.786   1.968   1.537
14950SOL    HW146747  13.709   1.936   1.490
14950SOL    HW246748  13.845   1.893   1.539
14951SOL     OW46749  12.024  10.022   2.105
14951SOL    HW146750  12.079  10.096   2.132
14951SOL    HW246751  12.022  10.028   2.009
14952SOL     OW46752   4.765   6.527   3.403
14952SOL    HW146753   4.738   6.481   3.325
14952SOL    HW246754   4.703   6.599   3.412
14953SOL     OW46755   2.902   5.062   6.488
14953SOL    HW146756   2.880   5.155   6.474
14953SOL    HW246757   2.820   5.022   6.516
14954SOL     OW46758   4.950   6.573  14.515
14954SOL    HW146759   4.878   6.615  14.562
14954SOL    HW246760   4.949   6.614  14.429
14955SOL     OW46761   9.170   3.451  10.506
14955SOL    HW146762   9.163   3.399  10.426
14955SOL    HW246763   9.109   3.524  10.493
14956SOL     OW46764   9.699  10.235   2.082
14956SOL    HW146765   9.740  10.251   1.997
14956SOL    HW246766   9.696  10.139   2.089
14957SOL     OW46767  10.208  14.406  12.528
14957SOL    HW146768  10.121  14.375  12.552
14957SOL    HW246769  10.254  14.327  12.500
14958SOL     OW46770  11.529  11.452   4.281
14958SOL    HW146771  11.549  11.538   4.243
14958SOL    HW246772  11.474  11.472   4.357
14959SOL     OW46773   0.280   4.697   1.916
14959SOL    HW146774   0.253   4.654   1.998
14959SOL    HW246775   0.200   4.734   1.881
14960SOL     OW46776  13.462  14.056   4.981
14960SOL    HW146777  13.468  13.961   4.991
14960SOL    HW246778  13.440  14.069   4.888
14961SOL     OW46779  11.565   9.639   5.682
14961SOL    HW146780  11.508   9.635   5.758
14961SOL    HW246781  11.575   9.547   5.655
14962SOL     OW46782   6.112   2.710  12.362
14962SOL    HW146783   6.019   2.728  12.348
14962SOL    HW246784   6.146   2.791  12.400
14963SOL     OW46785   1.429   0.012   9.860
14963SOL    HW146786   1.348  14.853   9.892
14963SOL    HW246787   1.492  14.823   9.856
14964SOL     OW46788   8.970  10.705   0.048
14964SOL    HW146789   8.987  10.709   0.142
14964SOL    HW246790   8.987  10.794   0.017
14965SOL     OW46791   0.116   5.286   9.358
14965SOL    HW146792   0.119   5.338   9.438
14965SOL    HW246793   0.204   5.294   9.321
14966SOL     OW46794   0.543   0.562   8.531
14966SOL    HW146795   0.540   0.515   8.447
14966SOL    HW246796   0.518   0.496   8.596
14967SOL     OW46797  13.450  13.844   2.295
14967SOL    HW146798  13.455  13.919   2.355
14967SOL    HW246799  13.398  13.876   2.222
14968SOL     OW46800   3.116   3.508   1.462
14968SOL    HW146801   3.148   3.563   1.391
14968SOL    HW246802   3.122   3.563   1.540
14969SOL     OW46803   7.852   4.949   7.305
14969SOL    HW146804   7.836   5.011   7.376
14969SOL    HW246805   7.945   4.960   7.285
14970SOL     OW46806   3.899  11.952   1.026
14970SOL    HW146807   3.831  12.003   0.982
14970SOL    HW246808   3.955  11.921   0.954
14971SOL     OW46809   6.402  12.061   8.523
14971SOL    HW146810   6.367  11.996   8.462
14971SOL    HW246811   6.411  12.014   8.606
14972SOL     OW46812   9.267   2.409   6.254
14972SOL    HW146813   9.316   2.357   6.318
14972SOL    HW246814   9.268   2.498   6.289
14973SOL     OW46815   3.519   6.896   8.973
14973SOL    HW146816   3.577   6.973   8.969
14973SOL    HW246817   3.563   6.830   8.919
14974SOL     OW46818   9.513  13.235   3.356
14974SOL    HW146819   9.595  13.205   3.316
14974SOL    HW246820   9.459  13.263   3.282
14975SOL     OW46821  14.563  14.468   7.910
14975SOL    HW146822  14.593  14.533   7.973
14975SOL    HW246823  14.490  14.509   7.865
14976SOL     OW46824   6.994   4.425   2.686
14976SOL    HW146825   7.069   4.365   2.694
14976SOL    HW246826   7.027   4.509   2.718
14977SOL     OW46827   9.252  14.293   1.685
14977SOL    HW146828   9.187  14.322   1.621
14977SOL    HW246829   9.304  14.228   1.638
14978SOL     OW46830   0.066   6.713   4.490
14978SOL    HW146831   0.130   6.652   4.452
14978SOL    HW246832   0.033   6.763   4.415
14979SOL     OW46833   9.253  14.675   3.302
14979SOL    HW146834   9.275  14.582   3.291
14979SOL    HW246835   9.262  14.711   3.214
14980SOL     OW46836   7.901  11.095  11.164
14980SOL    HW146837   7.817  11.080  11.206
14980SOL    HW246838   7.961  11.034  11.208
14981SOL     OW46839   9.436   0.711   6.290
14981SOL    HW146840   9.510   0.772   6.300
14981SOL    HW246841   9.421   0.707   6.196
14982SOL     OW46842   7.964   3.292  13.246
14982SOL    HW146843   7.888   3.307  13.303
14982SOL    HW246844   7.925   3.266  13.162
14983SOL     OW46845   2.258   9.795   0.211
14983SOL    HW146846   2.347   9.769   0.234
14983SOL    HW246847   2.220   9.824   0.294
14984SOL     OW46848  12.395   1.455  12.571
14984SOL    HW146849  12.378   1.452  12.477
14984SOL    HW246850  12.418   1.365  12.595
14985SOL     OW46851  14.442   2.448   7.540
14985SOL    HW146852  14.463   2.540   7.553
14985SOL    HW246853  14.472   2.405   7.620
14986SOL     OW46854   5.055  14.272   3.847
14986SOL    HW146855   4.998  14.220   3.905
14986SOL    HW246856   5.066  14.217   3.769
14987SOL     OW46857   2.361   1.876   9.116
14987SOL    HW146858   2.414   1.954   9.131
14987SOL    HW246859   2.296   1.903   9.051
14988SOL     OW46860  10.174   7.356   1.210
14988SOL    HW146861  10.205   7.355   1.119
14988SOL    HW246862  10.217   7.281   1.251
14989SOL     OW46863  14.515   9.868   3.670
14989SOL    HW146864  14.457   9.883   3.744
14989SOL    HW246865  14.592   9.923   3.688
14990SOL     OW46866   0.974  12.886   0.228
14990SOL    HW146867   0.907  12.911   0.292
14990SOL    HW246868   0.980  12.791   0.235
14991SOL     OW46869   9.112   1.882   5.106
14991SOL    HW146870   9.071   1.901   5.191
14991SOL    HW246871   9.089   1.957   5.051
14992SOL     OW46872  11.862   4.935   6.122
14992SOL    HW146873  11.792   4.879   6.089
14992SOL    HW246874  11.864   5.009   6.061
14993SOL     OW46875  10.391   3.730  10.550
14993SOL    HW146876  10.469   3.739  10.496
14993SOL    HW246877  10.386   3.637  10.571
14994SOL     OW46878   0.130  11.364   3.069
14994SOL    HW146879   0.057  11.363   3.007
14994SOL    HW246880   0.191  11.299   3.035
14995SOL     OW46881   2.700  11.506  13.112
14995SOL    HW146882   2.672  11.554  13.190
14995SOL    HW246883   2.694  11.414  13.137
14996SOL     OW46884   8.504   1.291   8.504
14996SOL    HW146885   8.556   1.211   8.493
14996SOL    HW246886   8.555   1.344   8.565
14997SOL     OW46887   2.998  11.142   3.109
14997SOL    HW146888   2.911  11.120   3.075
14997SOL    HW246889   2.993  11.123   3.203
14998SOL     OW46890   6.526  10.076   3.714
14998SOL    HW146891   6.526  10.147   3.650
14998SOL    HW246892   6.604  10.025   3.693
14999SOL     OW46893  14.606   2.438   1.549
14999SOL    HW146894  14.542   2.369   1.528
14999SOL    HW246895  14.664   2.398   1.614
15000SOL     OW46896  13.470   8.379  11.641
15000SOL    HW146897  13.388   8.413  11.607
15000SOL    HW246898  13.531   8.453  11.635
15001SOL     OW46899  13.625   1.158  11.493
15001SOL    HW146900  13.597   1.204  11.572
15001SOL    HW246901  13.670   1.080  11.525
15002SOL     OW46902   6.328   3.751   9.273
15002SOL    HW146903   6.309   3.842   9.296
15002SOL    HW246904   6.415   3.735   9.310
15003SOL     OW46905   3.281   6.994  12.695
15003SOL    HW146906   3.231   7.033  12.767
15003SOL    HW246907   3.250   6.903  12.691
15004SOL     OW46908   9.449   8.066   8.790
15004SOL    HW146909   9.506   7.990   8.794
15004SOL    HW246910   9.487   8.128   8.852
15005SOL     OW46911  10.807   9.874   7.453
15005SOL    HW146912  10.813   9.899   7.545
15005SOL    HW246913  10.898   9.856   7.427
15006SOL     OW46914   8.906   5.496   2.878
15006SOL    HW146915   8.861   5.432   2.932
15006SOL    HW246916   8.837   5.549   2.838
15007SOL     OW46917   4.325  13.243   6.336
15007SOL    HW146918   4.355  13.191   6.409
15007SOL    HW246919   4.277  13.182   6.280
15008SOL     OW46920   1.996  10.565   8.021
15008SOL    HW146921   1.902  10.560   8.037
15008SOL    HW246922   2.005  10.631   7.952
15009SOL     OW46923   0.265   4.503  14.096
15009SOL    HW146924   0.292   4.578  14.148
15009SOL    HW246925   0.262   4.536  14.006
15010SOL     OW46926   8.114  13.306   1.688
15010SOL    HW146927   8.067  13.255   1.622
15010SOL    HW246928   8.148  13.240   1.749
15011SOL     OW46929   3.712   1.682   8.282
15011SOL    HW146930   3.755   1.768   8.278
15011SOL    HW246931   3.734   1.641   8.198
15012SOL     OW46932  13.110   4.471  12.110
15012SOL    HW146933  13.034   4.452  12.054
15012SOL    HW246934  13.148   4.385  12.128
15013SOL     OW46935  11.594  13.833  10.707
15013SOL    HW146936  11.678  13.877  10.691
15013SOL    HW246937  11.595  13.814  10.801
15014SOL     OW46938   1.466   6.783   1.352
15014SOL    HW146939   1.536   6.772   1.287
15014SOL    HW246940   1.497   6.734   1.429
15015SOL     OW46941   1.127   6.536   4.750
15015SOL    HW146942   1.168   6.497   4.673
15015SOL    HW246943   1.086   6.462   4.795
15016SOL     OW46944   1.023  10.627   0.910
15016SOL    HW146945   1.063  10.616   0.824
15016SOL    HW246946   1.096  10.644   0.969
15017SOL     OW46947  13.179  12.547   6.281
15017SOL    HW146948  13.172  12.530   6.187
15017SOL    HW246949  13.231  12.474   6.315
15018SOL     OW46950   8.811   2.854   2.665
15018SOL    HW146951   8.870   2.846   2.589
15018SOL    HW246952   8.866   2.836   2.741
15019SOL     OW46953   5.104   4.292  10.735
15019SOL    HW146954   5.078   4.218  10.680
15019SOL    HW246955   5.158   4.253  10.804
15020SOL     OW46956  12.334  13.009   6.253
15020SOL    HW146957  12.309  12.916   6.263
15020SOL    HW246958  12.253  13.052   6.226
15021SOL     OW46959   5.119  10.547  11.331
15021SOL    HW146960   5.131  10.457  11.359
15021SOL    HW246961   5.205  10.588  11.345
15022SOL     OW46962  12.693   9.311   3.034
15022SOL    HW146963  12.610   9.280   3.070
15022SOL    HW246964  12.682   9.405   3.023
15023SOL     OW46965   2.764   8.655   6.568
15023SOL    HW146966   2.708   8.601   6.624
15023SOL    HW246967   2.704   8.719   6.530
15024SOL     OW46968  13.531   6.172   8.078
15024SOL    HW146969  13.607   6.144   8.027
15024SOL    HW246970  13.565   6.187   8.166
15025SOL     OW46971   5.618   8.220   9.311
15025SOL    HW146972   5.693   8.178   9.353
15025SOL    HW246973   5.558   8.241   9.383
15026SOL     OW46974  12.442   9.809   7.859
15026SOL    HW146975  12.359   9.827   7.903
15026SOL    HW246976  12.447   9.714   7.855
15027SOL     OW46977   6.380  14.600   1.290
15027SOL    HW146978   6.418  14.664   1.229
15027SOL    HW246979   6.449  14.583   1.354
15028SOL     OW46980   1.581  11.057   1.924
15028SOL    HW146981   1.674  11.080   1.922
15028SOL    HW246982   1.535  11.137   1.900
15029SOL     OW46983   8.268   1.156   0.866
15029SOL    HW146984   8.220   1.167   0.948
15029SOL    HW246985   8.353   1.196   0.883
15030SOL     OW46986  13.416   3.633   3.115
15030SOL    HW146987  13.483   3.572   3.084
15030SOL    HW246988  13.464   3.698   3.166
15031SOL     OW46989  13.234  14.829   2.938
15031SOL    HW146990  13.222   0.042   2.934
15031SOL    HW246991  13.294  14.809   2.867
15032SOL     OW46992   4.434  13.227   9.507
15032SOL    HW146993   4.421  13.232   9.601
15032SOL    HW246994   4.355  13.266   9.470
15033SOL     OW46995   3.406  10.525   1.307
15033SOL    HW146996   3.443  10.604   1.347
15033SOL    HW246997   3.337  10.497   1.367
15034SOL     OW46998   7.425  10.681   7.669
15034SOL    HW146999   7.393  10.591   7.676
15034SOL    HW247000   7.385  10.713   7.588
15035SOL     OW47001  10.032   6.649   7.523
15035SOL    HW147002  10.045   6.568   7.474
15035SOL    HW247003   9.998   6.711   7.459
15036SOL     OW47004  10.239  11.268  10.192
15036SOL    HW147005  10.318  11.322  10.202
15036SOL    HW247006  10.272  11.179  10.185
15037SOL     OW47007   4.377   5.610  11.827
15037SOL    HW147008   4.398   5.625  11.735
15037SOL    HW247009   4.318   5.535  11.826
15038SOL     OW47010   2.512  14.328   8.510
15038SOL    HW147011   2.512  14.296   8.420
15038SOL    HW247012   2.569  14.268   8.557
15039SOL     OW47013   3.323   5.029   6.094
15039SOL    HW147014   3.406   5.038   6.141
15039SOL    HW247015   3.259   5.070   6.152
15040SOL     OW47016   2.243   4.295   8.632
15040SOL    HW147017   2.208   4.375   8.592
15040SOL    HW247018   2.185   4.278   8.707
15041SOL     OW47019   9.625   7.730  13.750
15041SOL    HW147020   9.675   7.732  13.669
15041SOL    HW247021   9.567   7.806  13.744
15042SOL     OW47022  10.238   5.782  11.359
15042SOL    HW147023  10.249   5.756  11.267
15042SOL    HW247024  10.160   5.735  11.388
15043SOL     OW47025   4.441  11.389   9.944
15043SOL    HW147026   4.480  11.313   9.901
15043SOL    HW247027   4.488  11.464   9.907
15044SOL     OW47028  11.999   9.995  12.047
15044SOL    HW147029  11.926  10.056  12.040
15044SOL    HW247030  11.989   9.936  11.972
15045SOL     OW47031  12.032   2.424  10.905
15045SOL    HW147032  11.957   2.472  10.940
15045SOL    HW247033  12.041   2.455  10.815
15046SOL     OW47034   0.815  10.916  12.348
15046SOL    HW147035   0.733  10.960  12.368
15046SOL    HW247036   0.883  10.981  12.369
15047SOL     OW47037   6.256  12.053   4.996
15047SOL    HW147038   6.207  11.983   4.953
15047SOL    HW247039   6.280  12.113   4.925
15048SOL     OW47040  13.710   8.745   5.862
15048SOL    HW147041  13.698   8.786   5.947
15048SOL    HW247042  13.622   8.744   5.824
15049SOL     OW47043  11.543  14.807   3.634
15049SOL    HW147044  11.530  14.714   3.650
15049SOL    HW247045  11.579  14.841   3.717
15050SOL     OW47046   5.110   5.578   3.077
15050SOL    HW147047   5.092   5.546   2.988
15050SOL    HW247048   5.172   5.650   3.064
15051SOL     OW47049  12.469   2.860  13.418
15051SOL    HW147050  12.555   2.829  13.446
15051SOL    HW247051  12.407   2.806  13.468
15052SOL     OW47052   3.272   1.341  13.892
15052SOL    HW147053   3.310   1.255  13.906
15052SOL    HW247054   3.201   1.326  13.829
15053SOL     OW47055   5.290   7.248  12.494
15053SOL    HW147056   5.217   7.240  12.433
15053SOL    HW247057   5.265   7.193  12.569
15054SOL     OW47058   0.080   5.890  12.781
15054SOL    HW147059   0.166   5.906  12.743
15054SOL    HW247060   0.040   5.825  12.723
15055SOL     OW47061   0.265   7.000   7.942
15055SOL    HW147062   0.301   6.920   7.980
15055SOL    HW247063   0.192   6.970   7.888
15056SOL     OW47064  11.179   5.383  13.020
15056SOL    HW147065  11.195   5.303  13.071
15056SOL    HW247066  11.258   5.436  13.032
15057SOL     OW47067  11.265   8.529  14.375
15057SOL    HW147068  11.193   8.567  14.325
15057SOL    HW247069  11.311   8.604  14.412
15058SOL     OW47070  14.257   6.633   1.665
15058SOL    HW147071  14.319   6.567   1.633
15058SOL    HW247072  14.294   6.716   1.637
15059SOL     OW47073   0.600   0.080  10.894
15059SOL    HW147074   0.512   0.080  10.858
15059SOL    HW247075   0.635  14.876  10.873
15060SOL     OW47076  10.700  14.033  12.308
15060SOL    HW147077  10.658  14.063  12.228
15060SOL    HW247078  10.726  14.113  12.354
15061SOL     OW47079   4.386   0.088   6.478
15061SOL    HW147080   4.301   0.122   6.453
15061SOL    HW247081   4.449   0.147   6.437
15062SOL     OW47082   8.331   7.180   6.804
15062SOL    HW147083   8.262   7.135   6.852
15062SOL    HW247084   8.366   7.114   6.744
15063SOL     OW47085  11.571   1.576   1.436
15063SOL    HW147086  11.658   1.615   1.434
15063SOL    HW247087  11.560   1.548   1.528
15064SOL     OW47088  12.184  10.246   2.226
15064SOL    HW147089  12.271  10.276   2.198
15064SOL    HW247090  12.123  10.308   2.186
15065SOL     OW47091   5.419  13.003  11.887
15065SOL    HW147092   5.417  12.938  11.956
15065SOL    HW247093   5.354  12.973  11.823
15066SOL     OW47094   0.466   7.406   7.289
15066SOL    HW147095   0.536   7.351   7.254
15066SOL    HW247096   0.502   7.445   7.368
15067SOL     OW47097   6.408  13.714   7.982
15067SOL    HW147098   6.384  13.622   7.989
15067SOL    HW247099   6.344  13.760   8.037
15068SOL     OW47100   6.534   3.023   8.599
15068SOL    HW147101   6.460   3.073   8.632
15068SOL    HW247102   6.571   3.078   8.530
15069SOL     OW47103  10.754  14.200   3.530
15069SOL    HW147104  10.710  14.280   3.555
15069SOL    HW247105  10.841  14.228   3.502
15070SOL     OW47106  10.502   6.373   6.666
15070SOL    HW147107  10.420   6.403   6.626
15070SOL    HW247108  10.504   6.416   6.751
15071SOL     OW47109  13.048  11.135   9.149
15071SOL    HW147110  13.114  11.067   9.163
15071SOL    HW247111  12.966  11.087   9.141
15072SOL     OW47112   4.204   0.186   7.842
15072SOL    HW147113   4.194   0.110   7.786
15072SOL    HW247114   4.220   0.259   7.782
15073SOL     OW47115   8.579  12.679   0.620
15073SOL    HW147116   8.636  12.648   0.691
15073SOL    HW247117   8.534  12.599   0.590
15074SOL     OW47118  14.653  13.871   5.297
15074SOL    HW147119  14.658  13.921   5.216
15074SOL    HW247120  14.717  13.800   5.286
15075SOL     OW47121  13.863   9.109   6.141
15075SOL    HW147122  13.950   9.073   6.123
15075SOL    HW247123  13.876   9.174   6.209
15076SOL     OW47124   1.132   4.470   9.443
15076SOL    HW147125   1.076   4.411   9.392
15076SOL    HW247126   1.121   4.555   9.401
15077SOL     OW47127   8.300  14.698   4.759
15077SOL    HW147128   8.222  14.661   4.717
15077SOL    HW247129   8.363  14.627   4.758
15078SOL     OW47130   1.262   1.095   7.841
15078SOL    HW147131   1.284   1.108   7.934
15078SOL    HW247132   1.167   1.085   7.840
15079SOL     OW47133   2.039   2.700   1.874
15079SOL    HW147134   2.048   2.609   1.902
15079SOL    HW247135   1.945   2.718   1.885
15080SOL     OW47136  12.175   5.320   5.213
15080SOL    HW147137  12.221   5.330   5.297
15080SOL    HW247138  12.245   5.309   5.149
15081SOL     OW47139  10.356   1.422  10.004
15081SOL    HW147140  10.339   1.515  10.015
15081SOL    HW247141  10.305   1.379  10.073
15082SOL     OW47142   1.456  12.289   1.362
15082SOL    HW147143   1.423  12.199   1.369
15082SOL    HW247144   1.393  12.333   1.305
15083SOL     OW47145  13.844  10.514   8.658
15083SOL    HW147146  13.774  10.482   8.715
15083SOL    HW247147  13.882  10.588   8.705
15084SOL     OW47148   0.131   0.883   4.830
15084SOL    HW147149   0.088   0.954   4.782
15084SOL    HW247150   0.112   0.805   4.778
15085SOL     OW47151  13.275  14.054   4.094
15085SOL    HW147152  13.186  14.019   4.090
15085SOL    HW247153  13.267  14.134   4.146
15086SOL     OW47154  12.513   8.102  10.557
15086SOL    HW147155  12.502   8.022  10.506
15086SOL    HW247156  12.456   8.166  10.515
15087SOL     OW47157  10.544  11.689  10.904
15087SOL    HW147158  10.529  11.673  10.811
15087SOL    HW247159  10.583  11.776  10.908
15088SOL     OW47160   2.255   9.492  14.297
15088SOL    HW147161   2.321   9.553  14.264
15088SOL    HW247162   2.206   9.465  14.220
15089SOL     OW47163   1.669   9.853   4.729
15089SOL    HW147164   1.757   9.832   4.760
15089SOL    HW247165   1.612   9.788   4.770
15090SOL     OW47166   5.891   9.879   2.984
15090SOL    HW147167   5.987   9.884   2.985
15090SOL    HW247168   5.872   9.786   2.970
15091SOL     OW47169  11.349   5.703  12.103
15091SOL    HW147170  11.377   5.782  12.056
15091SOL    HW247171  11.357   5.726  12.195
15092SOL     OW47172  12.184   1.696   9.216
15092SOL    HW147173  12.234   1.748   9.280
15092SOL    HW247174  12.203   1.738   9.132
15093SOL     OW47175   7.164   3.558   9.319
15093SOL    HW147176   7.092   3.589   9.264
15093SOL    HW247177   7.169   3.623   9.390
15094SOL     OW47178   4.367   3.907  11.368
15094SOL    HW147179   4.330   3.994  11.359
15094SOL    HW247180   4.334   3.859  11.292
15095SOL     OW47181   3.899  12.138   0.700
15095SOL    HW147182   3.847  12.082   0.758
15095SOL    HW247183   3.989  12.123   0.727
15096SOL     OW47184   9.072   3.991  11.733
15096SOL    HW147185   8.980   3.991  11.704
15096SOL    HW247186   9.119   3.951  11.661
15097SOL     OW47187   0.657   9.923   4.479
15097SOL    HW147188   0.715   9.852   4.451
15097SOL    HW247189   0.571   9.880   4.490
15098SOL     OW47190   5.038   7.661  12.886
15098SOL    HW147191   5.041   7.706  12.802
15098SOL    HW247192   5.017   7.570  12.863
15099SOL     OW47193  10.552   2.883  13.859
15099SOL    HW147194  10.640   2.911  13.884
15099SOL    HW247195  10.545   2.794  13.892
15100SOL     OW47196  14.171   5.114  11.443
15100SOL    HW147197  14.236   5.051  11.413
15100SOL    HW247198  14.088   5.079  11.412
15101SOL     OW47199  14.010   7.140   5.058
15101SOL    HW147200  14.051   7.208   5.112
15101SOL    HW247201  14.017   7.060   5.110
15102SOL     OW47202   1.396  14.511  11.283
15102SOL    HW147203   1.422  14.477  11.369
15102SOL    HW247204   1.433  14.599  11.279
15103SOL     OW47205  11.585  11.399   5.864
15103SOL    HW147206  11.537  11.320   5.889
15103SOL    HW247207  11.516  11.461   5.839
15104SOL     OW47208  12.262  10.760  13.300
15104SOL    HW147209  12.220  10.762  13.214
15104SOL    HW247210  12.196  10.723  13.359
15105SOL     OW47211   7.463  12.639  12.435
15105SOL    HW147212   7.473  12.545  12.449
15105SOL    HW247213   7.443  12.674  12.522
15106SOL     OW47214   0.671   5.410  12.920
15106SOL    HW147215   0.764   5.419  12.942
15106SOL    HW247216   0.627   5.399  13.004
15107SOL     OW47217   2.268   0.732  13.341
15107SOL    HW147218   2.258   0.770  13.429
15107SOL    HW247219   2.250   0.804  13.281
15108SOL     OW47220   6.026  14.789  14.161
15108SOL    HW147221   5.989  14.840  14.090
15108SOL    HW247222   6.052  14.854  14.227
15109SOL     OW47223   0.089  12.877   7.097
15109SOL    HW147224   0.025  12.817   7.134
15109SOL    HW247225   0.084  12.862   7.002
15110SOL     OW47226  10.532   2.340  11.486
15110SOL    HW147227  10.539   2.400  11.412
15110SOL    HW247228  10.503   2.257  11.448
15111SOL     OW47229   0.815  14.262   9.889
15111SOL    HW147230   0.751  14.331   9.872
15111SOL    HW247231   0.888  14.281   9.831
15112SOL     OW47232   5.542  12.444   4.723
15112SOL    HW147233   5.600  12.371   4.700
15112SOL    HW247234   5.498  12.467   4.641
15113SOL     OW47235   8.988   9.475   7.249
15113SOL    HW147236   9.070   9.456   7.295
15113SOL    HW247237   9.015   9.527   7.174
15114SOL     OW47238   6.193  12.798   0.369
15114SOL    HW147239   6.228  12.720   0.326
15114SOL    HW247240   6.269  12.855   0.381
15115SOL     OW47241   0.211  13.529  14.578
15115SOL    HW147242   0.183  13.568  14.660
15115SOL    HW247243   0.129  13.506  14.533
15116SOL     OW47244  11.793   2.780  12.315
15116SOL    HW147245  11.778   2.868  12.349
15116SOL    HW247246  11.714   2.759  12.266
15117SOL     OW47247   9.286   1.722   0.779
15117SOL    HW147248   9.312   1.664   0.707
15117SOL    HW247249   9.301   1.810   0.747
15118SOL     OW47250  13.444  11.294   6.974
15118SOL    HW147251  13.466  11.387   6.968
15118SOL    HW247252  13.351  11.289   6.952
15119SOL     OW47253  13.281  12.420  12.979
15119SOL    HW147254  13.292  12.426  12.884
15119SOL    HW247255  13.332  12.493  13.014
15120SOL     OW47256  13.241  13.946   3.585
15120SOL    HW147257  13.228  13.992   3.669
15120SOL    HW247258  13.334  13.927   3.582
15121SOL     OW47259  10.272   9.028  10.236
15121SOL    HW147260  10.316   9.107  10.267
15121SOL    HW247261  10.199   9.016  10.297
15122SOL     OW47262   0.384  14.389  13.346
15122SOL    HW147263   0.476  14.412  13.333
15122SOL    HW247264   0.337  14.435  13.275
15123SOL     OW47265   9.198   3.861   8.254
15123SOL    HW147266   9.146   3.848   8.175
15123SOL    HW247267   9.151   3.812   8.322
15124SOL     OW47268   1.131  14.554  11.217
15124SOL    HW147269   1.089  14.483  11.266
15124SOL    HW247270   1.224  14.544  11.235
15125SOL     OW47271   8.944   5.071   0.474
15125SOL    HW147272   8.896   5.097   0.552
15125SOL    HW247273   8.966   4.979   0.489
15126SOL     OW47274   8.110   4.544   6.681
15126SOL    HW147275   8.027   4.541   6.634
15126SOL    HW247276   8.155   4.621   6.645
15127SOL     OW47277  10.587   5.299   5.845
15127SOL    HW147278  10.578   5.392   5.864
15127SOL    HW247279  10.648   5.295   5.771
15128SOL     OW47280   2.311   1.183   3.346
15128SOL    HW147281   2.222   1.198   3.313
15128SOL    HW247282   2.368   1.213   3.275
15129SOL     OW47283   2.344  13.055  11.806
15129SOL    HW147284   2.372  13.137  11.847
15129SOL    HW247285   2.295  13.081  11.729
15130SOL     OW47286   9.401   4.322   6.767
15130SOL    HW147287   9.312   4.287   6.763
15130SOL    HW247288   9.418   4.354   6.679
15131SOL     OW47289  12.055  10.133   3.892
15131SOL    HW147290  12.009  10.050   3.904
15131SOL    HW247291  12.089  10.128   3.802
15132SOL     OW47292   9.143   3.533   8.280
15132SOL    HW147293   9.090   3.599   8.327
15132SOL    HW247294   9.104   3.529   8.193
15133SOL     OW47295   0.017  14.769   7.023
15133SOL    HW147296   0.016  14.854   6.978
15133SOL    HW247297   0.055  14.709   6.960
15134SOL     OW47298   7.253   3.853   3.574
15134SOL    HW147299   7.218   3.941   3.561
15134SOL    HW247300   7.340   3.855   3.534
15135SOL     OW47301   0.598  11.060   5.066
15135SOL    HW147302   0.664  11.112   5.112
15135SOL    HW247303   0.634  10.971   5.065
15136SOL     OW47304   9.724   0.970  11.972
15136SOL    HW147305   9.629   0.971  11.971
15136SOL    HW247306   9.747   0.882  11.943
15137SOL     OW47307   3.929   6.297  10.152
15137SOL    HW147308   3.995   6.365  10.162
15137SOL    HW247309   3.860   6.337  10.099
15138SOL     OW47310   0.264   3.020  13.935
15138SOL    HW147311   0.336   2.966  13.902
15138SOL    HW247312   0.282   3.108  13.900
15139SOL     OW47313   6.280   3.658  10.162
15139SOL    HW147314   6.232   3.597  10.105
15139SOL    HW247315   6.233   3.656  10.245
15140SOL     OW47316   5.500  11.174   5.636
15140SOL    HW147317   5.546  11.097   5.602
15140SOL    HW247318   5.505  11.165   5.731
15141SOL     OW47319  12.041   6.396   2.959
15141SOL    HW147320  12.006   6.480   2.988
15141SOL    HW247321  11.980   6.367   2.891
15142SOL     OW47322   2.480   7.559   7.915
15142SOL    HW147323   2.443   7.476   7.887
15142SOL    HW247324   2.494   7.549   8.009
15143SOL     OW47325   7.579   6.819   4.460
15143SOL    HW147326   7.655   6.767   4.488
15143SOL    HW247327   7.503   6.769   4.488
15144SOL     OW47328   8.986  12.293  11.115
15144SOL    HW147329   8.981  12.378  11.158
15144SOL    HW247330   9.048  12.242  11.167
15145SOL     OW47331   6.472   3.649   1.428
15145SOL    HW147332   6.543   3.616   1.484
15145SOL    HW247333   6.516   3.673   1.346
15146SOL     OW47334   8.543  12.501  14.181
15146SOL    HW147335   8.584  12.456  14.255
15146SOL    HW247336   8.462  12.538  14.217
15147SOL     OW47337  14.343   9.720   8.102
15147SOL    HW147338  14.342   9.808   8.064
15147SOL    HW247339  14.274   9.673   8.055
15148SOL     OW47340   6.048  11.369   6.186
15148SOL    HW147341   6.044  11.436   6.254
15148SOL    HW247342   6.049  11.286   6.234
15149SOL     OW47343   0.537  12.960   8.103
15149SOL    HW147344   0.607  13.014   8.064
15149SOL    HW247345   0.471  12.953   8.034
15150SOL     OW47346   9.227   6.113   7.690
15150SOL    HW147347   9.229   6.204   7.719
15150SOL    HW247348   9.308   6.103   7.639
15151SOL     OW47349   6.232   8.313   0.947
15151SOL    HW147350   6.268   8.232   0.981
15151SOL    HW247351   6.197   8.358   1.024
15152SOL     OW47352   9.234  12.784  12.693
15152SOL    HW147353   9.319  12.790  12.649
15152SOL    HW247354   9.172  12.771  12.622
15153SOL     OW47355   8.628   6.203   4.988
15153SOL    HW147356   8.616   6.164   5.074
15153SOL    HW247357   8.686   6.143   4.941
15154SOL     OW47358   9.018  10.595  10.781
15154SOL    HW147359   9.031  10.596  10.876
15154SOL    HW247360   9.098  10.635  10.746
15155SOL     OW47361  10.763  11.968   3.856
15155SOL    HW147362  10.835  11.972   3.793
15155SOL    HW247363  10.715  12.050   3.843
15156SOL     OW47364   6.961  12.521  11.331
15156SOL    HW147365   7.030  12.553  11.272
15156SOL    HW247366   6.897  12.591  11.334
15157SOL     OW47367   8.269  14.602   3.993
15157SOL    HW147368   8.290  14.517   4.033
15157SOL    HW247369   8.194  14.634   4.044
15158SOL     OW47370  13.303  10.507   6.929
15158SOL    HW147371  13.231  10.563   6.957
15158SOL    HW247372  13.261  10.428   6.895
15159SOL     OW47373  13.296   5.309   3.123
15159SOL    HW147374  13.234   5.286   3.054
15159SOL    HW247375  13.261   5.266   3.202
15160SOL     OW47376   0.098   7.825   0.821
15160SOL    HW147377   0.142   7.880   0.757
15160SOL    HW247378   0.168   7.796   0.880
15161SOL     OW47379  13.650  12.146   1.220
15161SOL    HW147380  13.584  12.215   1.220
15161SOL    HW247381  13.615  12.079   1.279
15162SOL     OW47382  14.862   4.395   6.087
15162SOL    HW147383  14.874   4.469   6.029
15162SOL    HW247384  14.846   4.321   6.029
15163SOL     OW47385   8.672   2.061   1.829
15163SOL    HW147386   8.703   2.141   1.871
15163SOL    HW247387   8.698   1.991   1.889
15164SOL     OW47388  11.671  14.407  11.315
15164SOL    HW147389  11.613  14.469  11.269
15164SOL    HW247390  11.612  14.341  11.350
15165SOL     OW47391  12.700   3.534  10.335
15165SOL    HW147392  12.613   3.504  10.307
15165SOL    HW247393  12.692   3.629  10.341
15166SOL     OW47394  11.260  12.398  10.597
15166SOL    HW147395  11.216  12.317  10.572
15166SOL    HW247396  11.296  12.432  10.515
15167SOL     OW47397   6.438   4.656   8.441
15167SOL    HW147398   6.518   4.659   8.389
15167SOL    HW247399   6.367   4.659   8.377
15168SOL     OW47400   4.533   4.991   7.651
15168SOL    HW147401   4.476   5.000   7.575
15168SOL    HW247402   4.602   5.055   7.638
15169SOL     OW47403  11.873   9.654  10.330
15169SOL    HW147404  11.841   9.700  10.408
15169SOL    HW247405  11.866   9.720  10.260
15170SOL     OW47406   0.015   6.298   1.241
15170SOL    HW147407   0.059   6.266   1.163
15170SOL    HW247408   0.042   6.389   1.248
15171SOL     OW47409   6.464   9.988  14.244
15171SOL    HW147410   6.438  10.057  14.183
15171SOL    HW247411   6.517   9.928  14.192
15172SOL     OW47412   0.200  10.839   0.700
15172SOL    HW147413   0.130  10.777   0.719
15172SOL    HW247414   0.265  10.825   0.770
15173SOL     OW47415  14.087  13.110   6.938
15173SOL    HW147416  13.995  13.095   6.959
15173SOL    HW247417  14.125  13.144   7.018
15174SOL     OW47418  14.811   6.774  13.849
15174SOL    HW147419  14.755   6.851  13.834
15174SOL    HW247420  14.763   6.722  13.913
15175SOL     OW47421   5.635   2.574  12.589
15175SOL    HW147422   5.665   2.657  12.552
15175SOL    HW247423   5.715   2.523  12.602
15176SOL     OW47424  12.128   7.782   9.536
15176SOL    HW147425  12.177   7.706   9.569
15176SOL    HW247426  12.190   7.830   9.482
15177SOL     OW47427   7.468   3.766   4.968
15177SOL    HW147428   7.409   3.701   4.931
15177SOL    HW247429   7.451   3.845   4.917
15178SOL     OW47430  11.694  14.511   1.057
15178SOL    HW147431  11.778  14.485   1.096
15178SOL    HW247432  11.643  14.545   1.130
15179SOL     OW47433   0.504   9.792  11.404
15179SOL    HW147434   0.505   9.877  11.448
15179SOL    HW247435   0.456   9.734  11.464
15180SOL     OW47436   4.886  13.241  13.873
15180SOL    HW147437   4.795  13.267  13.855
15180SOL    HW247438   4.882  13.146  13.885
15181SOL     OW47439   0.997  12.561  14.653
15181SOL    HW147440   0.969  12.652  14.641
15181SOL    HW247441   1.058  12.546  14.581
15182SOL     OW47442  10.845  11.110   1.478
15182SOL    HW147443  10.924  11.151   1.514
15182SOL    HW247444  10.774  11.169   1.503
15183SOL     OW47445   2.433   3.205  10.384
15183SOL    HW147446   2.429   3.109  10.388
15183SOL    HW247447   2.525   3.226  10.402
15184SOL     OW47448  12.695  12.984   0.353
15184SOL    HW147449  12.639  12.907   0.344
15184SOL    HW247450  12.635  13.058   0.353
15185SOL     OW47451  14.417   2.076   7.861
15185SOL    HW147452  14.493   2.017   7.865
15185SOL    HW247453  14.435   2.142   7.928
15186SOL     OW47454   9.085   7.194   2.287
15186SOL    HW147455   9.166   7.225   2.328
15186SOL    HW247456   9.086   7.099   2.304
15187SOL     OW47457   5.977   4.984   5.303
15187SOL    HW147458   5.977   5.079   5.310
15187SOL    HW247459   5.910   4.955   5.364
15188SOL     OW47460  11.882   4.230   4.114
15188SOL    HW147461  11.851   4.305   4.164
15188SOL    HW247462  11.813   4.164   4.123
15189SOL     OW47463   7.474   3.174   4.468
15189SOL    HW147464   7.510   3.262   4.453
15189SOL    HW247465   7.545   3.115   4.445
15190SOL     OW47466   0.093  13.884  11.880
15190SOL    HW147467   0.075  13.817  11.814
15190SOL    HW247468   0.162  13.846  11.934
15191SOL     OW47469   8.089   0.569   5.686
15191SOL    HW147470   8.074   0.475   5.698
15191SOL    HW247471   8.005   0.603   5.657
15192SOL     OW47472   5.089   0.513   2.765
15192SOL    HW147473   5.096   0.597   2.721
15192SOL    HW247474   5.000   0.484   2.749
15193SOL     OW47475   9.274   3.968  11.125
15193SOL    HW147476   9.333   3.948  11.052
15193SOL    HW247477   9.224   3.887  11.138
15194SOL     OW47478   0.522   6.522   2.964
15194SOL    HW147479   0.548   6.516   2.873
15194SOL    HW247480   0.599   6.554   3.010
15195SOL     OW47481  10.371   0.042   6.699
15195SOL    HW147482  10.318  14.872   6.759
15195SOL    HW247483  10.458   0.000   6.701
15196SOL     OW47484   1.901   6.830  10.706
15196SOL    HW147485   1.810   6.844  10.734
15196SOL    HW247486   1.953   6.878  10.771
15197SOL     OW47487   2.764  14.642  11.987
15197SOL    HW147488   2.683  14.592  11.990
15197SOL    HW247489   2.771  14.682  12.074
15198SOL     OW47490   3.147   5.041   2.687
15198SOL    HW147491   3.096   5.104   2.635
15198SOL    HW247492   3.082   4.999   2.744
15199SOL     OW47493   2.585  11.540   4.344
15199SOL    HW147494   2.532  11.464   4.368
15199SOL    HW247495   2.657  11.504   4.292
15200SOL     OW47496  14.603  12.922   6.494
15200SOL    HW147497  14.671  12.894   6.433
15200SOL    HW247498  14.606  13.017   6.491
15201SOL     OW47499   3.319  11.728   7.002
15201SOL    HW147500   3.251  11.729   7.069
15201SOL    HW247501   3.383  11.665   7.034
15202SOL     OW47502  14.756   3.440   8.746
15202SOL    HW147503  14.825   3.503   8.727
15202SOL    HW247504  14.786   3.396   8.826
15203SOL     OW47505   3.972  13.076   8.183
15203SOL    HW147506   4.065  13.087   8.202
15203SOL    HW247507   3.970  13.014   8.110
15204SOL     OW47508  13.577   5.692   2.150
15204SOL    HW147509  13.595   5.632   2.077
15204SOL    HW247510  13.583   5.779   2.110
15205SOL     OW47511   8.951  14.518   5.592
15205SOL    HW147512   8.944  14.481   5.504
15205SOL    HW247513   8.862  14.545   5.614
15206SOL     OW47514   5.849   2.542   5.362
15206SOL    HW147515   5.760   2.509   5.351
15206SOL    HW247516   5.897   2.506   5.288
15207SOL     OW47517  11.992   4.112  11.541
15207SOL    HW147518  12.057   4.082  11.478
15207SOL    HW247519  12.028   4.090  11.626
15208SOL     OW47520   1.520   3.100  11.363
15208SOL    HW147521   1.485   3.187  11.385
15208SOL    HW247522   1.614   3.108  11.380
15209SOL     OW47523   1.599   7.705   6.328
15209SOL    HW147524   1.675   7.678   6.277
15209SOL    HW247525   1.533   7.729   6.262
15210SOL     OW47526  10.410   0.659   6.474
15210SOL    HW147527  10.465   0.652   6.395
15210SOL    HW247528  10.402   0.568   6.505
15211SOL     OW47529  14.260   4.443   6.662
15211SOL    HW147530  14.322   4.408   6.725
15211SOL    HW247531  14.191   4.482   6.715
15212SOL     OW47532   3.385  11.560  10.698
15212SOL    HW147533   3.399  11.650  10.668
15212SOL    HW247534   3.343  11.516  10.624
15213SOL     OW47535   0.350   7.154   3.304
15213SOL    HW147536   0.417   7.132   3.239
15213SOL    HW247537   0.268   7.129   3.263
15214SOL     OW47538   5.368  14.846   4.145
15214SOL    HW147539   5.446  14.806   4.184
15214SOL    HW247540   5.379   0.058   4.161
15215SOL     OW47541  13.404   4.098  11.024
15215SOL    HW147542  13.339   4.143  10.971
15215SOL    HW247543  13.480   4.088  10.966
15216SOL     OW47544  10.166   1.516   1.808
15216SOL    HW147545  10.253   1.495   1.775
15216SOL    HW247546  10.182   1.568   1.887
15217SOL     OW47547  10.047  12.866   2.529
15217SOL    HW147548  10.095  12.783   2.527
15217SOL    HW247549  10.003  12.871   2.444
15218SOL     OW47550   7.827  12.114   0.012
15218SOL    HW147551   7.865  12.046  14.838
15218SOL    HW247552   7.807  12.069   0.094
15219SOL     OW47553   0.093   7.110   9.544
15219SOL    HW147554   0.090   7.206   9.540
15219SOL    HW247555   0.005   7.083   9.518
15220SOL     OW47556   7.468   5.251   1.478
15220SOL    HW147557   7.420   5.174   1.448
15220SOL    HW247558   7.546   5.254   1.422
15221SOL     OW47559  11.941  14.871   2.384
15221SOL    HW147560  11.982   0.063   2.340
15221SOL    HW247561  11.855   0.021   2.410
15222SOL     OW47562   2.868   1.398   9.047
15222SOL    HW147563   2.791   1.399   8.990
15222SOL    HW247564   2.834   1.377   9.133
15223SOL     OW47565  13.385   1.168  12.958
15223SOL    HW147566  13.321   1.239  12.959
15223SOL    HW247567  13.423   1.169  13.045
15224SOL     OW47568   1.642  11.627   9.975
15224SOL    HW147569   1.693  11.703   9.947
15224SOL    HW247570   1.694  11.551   9.949
15225SOL     OW47571   6.692  10.871   5.295
15225SOL    HW147572   6.675  10.844   5.205
15225SOL    HW247573   6.655  10.801   5.349
15226SOL     OW47574   2.538   9.752   9.288
15226SOL    HW147575   2.466   9.755   9.226
15226SOL    HW247576   2.617   9.750   9.233
15227SOL     OW47577  12.561  11.540  12.360
15227SOL    HW147578  12.562  11.515  12.267
15227SOL    HW247579  12.523  11.464  12.405
15228SOL     OW47580   7.269   1.801  14.766
15228SOL    HW147581   7.216   1.858  14.710
15228SOL    HW247582   7.318   1.747  14.704
15229SOL     OW47583   4.466   1.788   2.809
15229SOL    HW147584   4.397   1.726   2.832
15229SOL    HW247585   4.428   1.840   2.738
15230SOL     OW47586  11.203  11.672   9.396
15230SOL    HW147587  11.247  11.748   9.436
15230SOL    HW247588  11.262  11.645   9.326
15231SOL     OW47589   9.455   4.202   0.012
15231SOL    HW147590   9.541   4.221  14.858
15231SOL    HW247591   9.393   4.237  14.829
15232SOL     OW47592   3.954   0.632   9.577
15232SOL    HW147593   3.872   0.678   9.562
15232SOL    HW247594   3.993   0.676   9.653
15233SOL     OW47595   1.939   1.417   0.051
15233SOL    HW147596   1.977   1.496   0.012
15233SOL    HW247597   2.001   1.347   0.029
15234SOL     OW47598   1.045   0.151   7.588
15234SOL    HW147599   0.985   0.177   7.518
15234SOL    HW247600   1.110   0.095   7.544
15235SOL     OW47601   3.773   5.391  14.478
15235SOL    HW147602   3.735   5.475  14.503
15235SOL    HW247603   3.772   5.392  14.383
15236SOL     OW47604   3.359   1.611   3.150
15236SOL    HW147605   3.289   1.595   3.087
15236SOL    HW247606   3.410   1.530   3.150
15237SOL     OW47607   3.363   1.069  13.191
15237SOL    HW147608   3.389   1.077  13.099
15237SOL    HW247609   3.347   0.976  13.203
15238SOL     OW47610   3.646   1.604   7.573
15238SOL    HW147611   3.649   1.670   7.642
15238SOL    HW247612   3.567   1.554   7.592
15239SOL     OW47613  11.217   3.415   6.856
15239SOL    HW147614  11.128   3.378   6.855
15239SOL    HW247615  11.258   3.382   6.776
15240SOL     OW47616   2.020   6.913   6.583
15240SOL    HW147617   2.082   6.982   6.606
15240SOL    HW247618   2.024   6.852   6.656
15241SOL     OW47619  13.457   6.317   3.280
15241SOL    HW147620  13.551   6.320   3.262
15241SOL    HW247621  13.446   6.245   3.341
15242SOL     OW47622   8.830  10.645   9.733
15242SOL    HW147623   8.823  10.585   9.658
15242SOL    HW247624   8.796  10.595   9.807
15243SOL     OW47625   3.381   3.433  14.018
15243SOL    HW147626   3.359   3.340  14.009
15243SOL    HW247627   3.299   3.478  14.001
15244SOL     OW47628   3.108   5.839   7.173
15244SOL    HW147629   3.171   5.779   7.135
15244SOL    HW247630   3.079   5.796   7.254
15245SOL     OW47631   7.982   9.499   1.821
15245SOL    HW147632   7.951   9.495   1.731
15245SOL    HW247633   7.951   9.584   1.854
15246SOL     OW47634   4.373   4.323   4.926
15246SOL    HW147635   4.357   4.339   5.019
15246SOL    HW247636   4.433   4.249   4.924
15247SOL     OW47637   2.803  13.622   9.566
15247SOL    HW147638   2.768  13.709   9.587
15247SOL    HW247639   2.738  13.562   9.603
15248SOL     OW47640   4.465  11.753   5.688
15248SOL    HW147641   4.529  11.706   5.743
15248SOL    HW247642   4.383  11.704   5.700
15249SOL     OW47643   8.639   5.870  10.553
15249SOL    HW147644   8.577   5.801  10.575
15249SOL    HW247645   8.619   5.941  10.614
15250SOL     OW47646   8.956  10.119  13.533
15250SOL    HW147647   8.993  10.046  13.483
15250SOL    HW247648   8.972  10.196  13.478
15251SOL     OW47649   2.626   8.145  11.488
15251SOL    HW147650   2.576   8.150  11.569
15251SOL    HW247651   2.635   8.051  11.471
15252SOL     OW47652  14.502   2.848  12.821
15252SOL    HW147653  14.575   2.891  12.867
15252SOL    HW247654  14.518   2.867  12.728
15253SOL     OW47655  11.506   5.635  11.664
15253SOL    HW147656  11.584   5.687  11.685
15253SOL    HW247657  11.441   5.700  11.637
15254SOL     OW47658  14.348   7.250   1.764
15254SOL    HW147659  14.253   7.247   1.778
15254SOL    HW247660  14.385   7.240   1.852
15255SOL     OW47661   8.704  11.511   4.426
15255SOL    HW147662   8.642  11.581   4.445
15255SOL    HW247663   8.789  11.554   4.423
15256SOL     OW47664   2.280  14.794  13.160
15256SOL    HW147665   2.251  14.702  13.161
15256SOL    HW247666   2.200  14.844  13.174
15257SOL     OW47667   0.925   7.254   8.378
15257SOL    HW147668   0.961   7.181   8.327
15257SOL    HW247669   0.850   7.216   8.424
15258SOL     OW47670   0.317   5.803   6.562
15258SOL    HW147671   0.400   5.828   6.603
15258SOL    HW247672   0.307   5.711   6.583
15259SOL     OW47673   3.895  12.220   3.255
15259SOL    HW147674   3.856  12.133   3.248
15259SOL    HW247675   3.827  12.274   3.294
15260SOL     OW47676   4.661   3.263   6.756
15260SOL    HW147677   4.716   3.310   6.694
15260SOL    HW247678   4.643   3.327   6.825
15261SOL     OW47679   5.127   9.406  12.126
15261SOL    HW147680   5.169   9.487  12.097
15261SOL    HW247681   5.172   9.337  12.078
15262SOL     OW47682   1.257   5.576  14.470
15262SOL    HW147683   1.262   5.645  14.404
15262SOL    HW247684   1.178   5.596  14.520
15263SOL     OW47685   0.385   5.051  10.405
15263SOL    HW147686   0.369   5.126  10.462
15263SOL    HW247687   0.354   5.079  10.319
15264SOL     OW47688   5.029   6.313  14.369
15264SOL    HW147689   5.001   6.319  14.278
15264SOL    HW247690   5.004   6.398  14.407
15265SOL     OW47691   7.104   2.947   2.195
15265SOL    HW147692   7.080   2.927   2.104
15265SOL    HW247693   7.023   2.932   2.244
15266SOL     OW47694   7.949   3.661   2.117
15266SOL    HW147695   8.011   3.718   2.073
15266SOL    HW247696   7.915   3.603   2.049
15267SOL     OW47697  13.105   0.648   0.923
15267SOL    HW147698  13.044   0.682   0.857
15267SOL    HW247699  13.058   0.576   0.965
15268SOL     OW47700  12.039   3.642   4.389
15268SOL    HW147701  12.131   3.614   4.388
15268SOL    HW247702  12.010   3.630   4.298
15269SOL     OW47703  14.156   5.735   4.778
15269SOL    HW147704  14.190   5.811   4.825
15269SOL    HW247705  14.069   5.762   4.748
15270SOL     OW47706   0.261   0.416  13.212
15270SOL    HW147707   0.172   0.442  13.189
15270SOL    HW247708   0.276   0.456  13.298
15271SOL     OW47709   3.939  10.093   1.427
15271SOL    HW147710   4.024  10.050   1.422
15271SOL    HW247711   3.950  10.175   1.378
15272SOL     OW47712  12.637   3.849   5.771
15272SOL    HW147713  12.664   3.902   5.845
15272SOL    HW247714  12.713   3.848   5.713
15273SOL     OW47715   0.350   8.636   3.375
15273SOL    HW147716   0.350   8.551   3.331
15273SOL    HW247717   0.258   8.653   3.393
15274SOL     OW47718   5.098  14.709   0.981
15274SOL    HW147719   5.126  14.625   1.016
15274SOL    HW247720   5.046  14.749   1.051
15275SOL     OW47721   6.539   7.805   6.140
15275SOL    HW147722   6.494   7.864   6.079
15275SOL    HW247723   6.622   7.786   6.097
15276SOL     OW47724   7.324   9.686   1.633
15276SOL    HW147725   7.355   9.618   1.574
15276SOL    HW247726   7.404   9.721   1.672
15277SOL     OW47727  11.492  13.636   6.007
15277SOL    HW147728  11.462  13.545   6.010
15277SOL    HW247729  11.545  13.647   6.086
15278SOL     OW47730   3.560   7.946  11.432
15278SOL    HW147731   3.633   7.906  11.383
15278SOL    HW247732   3.502   7.872  11.451
15279SOL     OW47733   4.533  13.629   7.769
15279SOL    HW147734   4.590  13.629   7.846
15279SOL    HW247735   4.457  13.680   7.796
15280SOL     OW47736   6.587   0.588  14.772
15280SOL    HW147737   6.585   0.502  14.816
15280SOL    HW247738   6.500   0.624  14.788
15281SOL     OW47739   7.718   1.928  11.455
15281SOL    HW147740   7.642   1.909  11.400
15281SOL    HW247741   7.713   2.022  11.471
15282SOL     OW47742   4.962   7.711  12.109
15282SOL    HW147743   4.900   7.686  12.178
15282SOL    HW247744   4.935   7.661  12.033
15283SOL     OW47745   3.743   3.034   3.515
15283SOL    HW147746   3.807   2.977   3.472
15283SOL    HW247747   3.662   3.018   3.467
15284SOL     OW47748   5.608   1.895   2.150
15284SOL    HW147749   5.677   1.838   2.183
15284SOL    HW247750   5.562   1.924   2.229
15285SOL     OW47751  13.460  12.900   4.352
15285SOL    HW147752  13.465  12.886   4.257
15285SOL    HW247753  13.387  12.961   4.364
15286SOL     OW47754   8.282   6.932  14.370
15286SOL    HW147755   8.306   7.014  14.328
15286SOL    HW247756   8.277   6.869  14.298
15287SOL     OW47757   4.049  14.644  14.656
15287SOL    HW147758   4.058  14.738  14.648
15287SOL    HW247759   3.980  14.621  14.594
15288SOL     OW47760   3.861  10.892   9.742
15288SOL    HW147761   3.869  10.807   9.698
15288SOL    HW247762   3.842  10.871   9.833
15289SOL     OW47763  13.000   2.423  11.288
15289SOL    HW147764  12.961   2.486  11.349
15289SOL    HW247765  13.031   2.352  11.343
15290SOL     OW47766  11.755   1.554  12.172
15290SOL    HW147767  11.715   1.580  12.089
15290SOL    HW247768  11.681   1.552  12.234
15291SOL     OW47769  14.222   0.449   1.079
15291SOL    HW147770  14.295   0.399   1.115
15291SOL    HW247771  14.144   0.398   1.103
15292SOL     OW47772  10.041  10.496  11.852
15292SOL    HW147773  10.036  10.558  11.924
15292SOL    HW247774  10.124  10.516  11.808
15293SOL     OW47775   8.712   4.361  10.708
15293SOL    HW147776   8.692   4.274  10.673
15293SOL    HW247777   8.637   4.382  10.763
15294SOL     OW47778   0.361   8.566   9.828
15294SOL    HW147779   0.374   8.588   9.736
15294SOL    HW247780   0.272   8.532   9.832
15295SOL     OW47781   5.936  10.769   4.651
15295SOL    HW147782   5.955  10.677   4.667
15295SOL    HW247783   6.002  10.817   4.701
15296SOL     OW47784   4.230   6.167  11.426
15296SOL    HW147785   4.164   6.234  11.443
15296SOL    HW247786   4.210   6.098  11.489
15297SOL     OW47787   5.216  12.135   3.785
15297SOL    HW147788   5.307  12.163   3.799
15297SOL    HW247789   5.219  12.083   3.705
15298SOL     OW47790   0.407  14.681   5.177
15298SOL    HW147791   0.384  14.713   5.264
15298SOL    HW247792   0.343  14.722   5.118
15299SOL     OW47793   0.947   0.643   2.774
15299SOL    HW147794   1.003   0.653   2.698
15299SOL    HW247795   0.920   0.733   2.796
15300SOL     OW47796   9.224   1.074  11.255
15300SOL    HW147797   9.288   1.117  11.198
15300SOL    HW247798   9.241   0.981  11.245
15301SOL     OW47799  14.452   7.635   4.264
15301SOL    HW147800  14.440   7.632   4.169
15301SOL    HW247801  14.392   7.704   4.292
15302SOL     OW47802   3.020   1.235  12.435
15302SOL    HW147803   2.959   1.186  12.490
15302SOL    HW247804   3.077   1.169  12.396
15303SOL     OW47805   0.183   4.096   6.527
15303SOL    HW147806   0.219   4.166   6.582
15303SOL    HW247807   0.098   4.131   6.497
15304SOL     OW47808   6.201   1.383   5.992
15304SOL    HW147809   6.196   1.438   5.913
15304SOL    HW247810   6.265   1.427   6.048
15305SOL     OW47811   3.644   5.694  13.861
15305SOL    HW147812   3.641   5.760  13.792
15305SOL    HW247813   3.706   5.728  13.925
15306SOL     OW47814   2.470  12.044   5.121
15306SOL    HW147815   2.419  12.021   5.198
15306SOL    HW247816   2.556  12.068   5.155
15307SOL     OW47817   1.254   6.140   4.797
15307SOL    HW147818   1.242   6.155   4.891
15307SOL    HW247819   1.340   6.177   4.777
15308SOL     OW47820  11.273   4.987   1.597
15308SOL    HW147821  11.188   4.954   1.626
15308SOL    HW247822  11.273   5.079   1.624
15309SOL     OW47823   2.828   3.100  10.774
15309SOL    HW147824   2.758   3.165  10.784
15309SOL    HW247825   2.906   3.143  10.808
15310SOL     OW47826   8.153   2.846   7.214
15310SOL    HW147827   8.151   2.823   7.307
15310SOL    HW247828   8.245   2.868   7.198
15311SOL     OW47829   4.457   8.972  12.472
15311SOL    HW147830   4.524   8.966  12.404
15311SOL    HW247831   4.492   8.920  12.545
15312SOL     OW47832   6.376   9.939   5.466
15312SOL    HW147833   6.368   9.875   5.396
15312SOL    HW247834   6.392  10.022   5.421
15313SOL     OW47835  10.930   0.757  12.463
15313SOL    HW147836  10.973   0.840  12.445
15313SOL    HW247837  10.946   0.704  12.385
15314SOL     OW47838   8.200  10.288   0.034
15314SOL    HW147839   8.249  10.351   0.086
15314SOL    HW247840   8.174  10.336  14.838
15315SOL     OW47841  13.307   5.591   1.350
15315SOL    HW147842  13.398   5.568   1.331
15315SOL    HW247843  13.259   5.509   1.340
15316SOL     OW47844   2.524   8.455  10.587
15316SOL    HW147845   2.533   8.447  10.492
15316SOL    HW247846   2.477   8.376  10.613
15317SOL     OW47847  11.165   0.084  12.373
15317SOL    HW147848  11.156   0.029  12.451
15317SOL    HW247849  11.114   0.039  12.306
15318SOL     OW47850   5.662   9.843   4.129
15318SOL    HW147851   5.670   9.901   4.054
15318SOL    HW247852   5.698   9.893   4.202
15319SOL     OW47853   4.292   8.239   2.000
15319SOL    HW147854   4.385   8.223   1.981
15319SOL    HW247855   4.270   8.176   2.069
15320SOL     OW47856  11.748   6.830   6.565
15320SOL    HW147857  11.705   6.872   6.639
15320SOL    HW247858  11.682   6.772   6.527
15321SOL     OW47859   2.629   3.306   3.848
15321SOL    HW147860   2.599   3.266   3.766
15321SOL    HW247861   2.586   3.392   3.849
15322SOL     OW47862  10.326   0.687   8.502
15322SOL    HW147863  10.287   0.695   8.415
15322SOL    HW247864  10.333   0.778   8.533
15323SOL     OW47865   7.420   7.938   3.881
15323SOL    HW147866   7.491   7.943   3.946
15323SOL    HW247867   7.348   7.895   3.927
15324SOL     OW47868   9.527  12.339   0.411
15324SOL    HW147869   9.480  12.368   0.489
15324SOL    HW247870   9.463  12.344   0.341
15325SOL     OW47871  14.839  10.683   3.459
15325SOL    HW147872  14.822  10.639   3.375
15325SOL    HW247873   0.024  10.748   3.439
15326SOL     OW47874   0.149   2.048   0.862
15326SOL    HW147875   0.194   2.091   0.790
15326SOL    HW247876   0.208   1.979   0.891
15327SOL     OW47877   3.064  14.629   5.754
15327SOL    HW147878   2.991  14.571   5.776
15327SOL    HW247879   3.121  14.627   5.831
15328SOL     OW47880  12.200   4.570  12.888
15328SOL    HW147881  12.197   4.475  12.900
15328SOL    HW247882  12.114   4.600  12.916
15329SOL     OW47883   9.446   1.754   3.212
15329SOL    HW147884   9.409   1.762   3.300
15329SOL    HW247885   9.437   1.661   3.190
15330SOL     OW47886  10.702  11.290  10.782
15330SOL    HW147887  10.715  11.309  10.689
15330SOL    HW247888  10.789  11.266  10.814
15331SOL     OW47889  12.444   6.604   5.642
15331SOL    HW147890  12.471   6.694   5.660
15331SOL    HW247891  12.441   6.562   5.728
15332SOL     OW47892   9.870   8.585  11.410
15332SOL    HW147893   9.904   8.570  11.498
15332SOL    HW247894   9.776   8.598  11.423
15333SOL     OW47895  11.107  13.796   4.872
15333SOL    HW147896  11.147  13.767   4.954
15333SOL    HW247897  11.181  13.812   4.814
15334SOL     OW47898   8.180  11.355   4.758
15334SOL    HW147899   8.229  11.324   4.834
15334SOL    HW247900   8.091  11.323   4.772
15335SOL     OW47901   5.528   0.417  12.602
15335SOL    HW147902   5.461   0.422  12.670
15335SOL    HW247903   5.508   0.490  12.543
15336SOL     OW47904  11.114   7.860  11.371
15336SOL    HW147905  11.071   7.919  11.433
15336SOL    HW247906  11.093   7.897  11.285
15337SOL     OW47907   8.883  12.654   7.855
15337SOL    HW147908   8.846  12.676   7.941
15337SOL    HW247909   8.920  12.567   7.866
15338SOL     OW47910   1.131  11.241  10.937
15338SOL    HW147911   1.189  11.259  11.011
15338SOL    HW247912   1.088  11.325  10.919
15339SOL     OW47913   2.542   1.046  12.532
15339SOL    HW147914   2.528   1.025  12.440
15339SOL    HW247915   2.564   0.962  12.572
15340SOL     OW47916  10.496  14.406   9.109
15340SOL    HW147917  10.529  14.484   9.153
15340SOL    HW247918  10.507  14.425   9.015
15341SOL     OW47919   0.370   3.698   0.062
15341SOL    HW147920   0.413   3.625   0.105
15341SOL    HW247921   0.399   3.693  14.853
15342SOL     OW47922   6.223  11.524  10.948
15342SOL    HW147923   6.183  11.444  10.913
15342SOL    HW247924   6.150  11.570  10.989
15343SOL     OW47925  10.771   6.748  12.050
15343SOL    HW147926  10.695   6.712  12.004
15343SOL    HW247927  10.758   6.843  12.047
15344SOL     OW47928   1.841  11.114   8.037
15344SOL    HW147929   1.777  11.059   8.080
15344SOL    HW247930   1.899  11.053   7.992
15345SOL     OW47931   9.623  14.165   5.852
15345SOL    HW147932   9.701  14.109   5.861
15345SOL    HW247933   9.657  14.249   5.820
15346SOL     OW47934   8.435  13.751   0.926
15346SOL    HW147935   8.498  13.796   0.982
15346SOL    HW247936   8.359  13.809   0.924
15347SOL     OW47937   8.703   4.729   8.538
15347SOL    HW147938   8.645   4.714   8.464
15347SOL    HW247939   8.647   4.771   8.604
15348SOL     OW47940   2.390  10.107   3.223
15348SOL    HW147941   2.380  10.179   3.160
15348SOL    HW247942   2.329  10.040   3.193
15349SOL     OW47943   3.291   6.868   8.065
15349SOL    HW147944   3.246   6.820   8.135
15349SOL    HW247945   3.233   6.861   7.990
15350SOL     OW47946  11.646   1.660   6.465
15350SOL    HW147947  11.562   1.639   6.423
15350SOL    HW247948  11.639   1.621   6.553
15351SOL     OW47949   7.089   7.479  14.634
15351SOL    HW147950   7.045   7.528  14.565
15351SOL    HW247951   7.022   7.465  14.701
15352SOL     OW47952   3.081   2.966   8.327
15352SOL    HW147953   3.014   2.923   8.275
15352SOL    HW247954   3.034   3.004   8.401
15353SOL     OW47955  14.021  11.989  13.797
15353SOL    HW147956  14.067  11.960  13.876
15353SOL    HW247957  14.089  11.991  13.729
15354SOL     OW47958   7.913   7.546   2.599
15354SOL    HW147959   7.888   7.626   2.554
15354SOL    HW247960   8.005   7.533   2.575
15355SOL     OW47961   9.794   5.172   8.879
15355SOL    HW147962   9.860   5.232   8.844
15355SOL    HW247963   9.845   5.106   8.928
15356SOL     OW47964   7.369   2.963   3.569
15356SOL    HW147965   7.332   3.050   3.586
15356SOL    HW247966   7.356   2.949   3.476
15357SOL     OW47967   7.615  12.066   9.018
15357SOL    HW147968   7.626  12.114   9.099
15357SOL    HW247969   7.550  11.999   9.038
15358SOL     OW47970   4.442  13.932   3.219
15358SOL    HW147971   4.409  13.930   3.129
15358SOL    HW247972   4.449  13.840   3.244
15359SOL     OW47973   3.879   4.611  10.304
15359SOL    HW147974   3.883   4.561  10.223
15359SOL    HW247975   3.956   4.667  10.301
15360SOL     OW47976  14.845   2.049   7.148
15360SOL    HW147977  14.814   2.095   7.227
15360SOL    HW247978  14.767   2.040   7.094
15361SOL     OW47979   1.780  11.593   3.185
15361SOL    HW147980   1.695  11.630   3.208
15361SOL    HW247981   1.769  11.562   3.096
15362SOL     OW47982   1.478  12.577   3.588
15362SOL    HW147983   1.446  12.580   3.678
15362SOL    HW247984   1.411  12.527   3.541
15363SOL     OW47985  12.425   5.621  14.061
15363SOL    HW147986  12.490   5.601  14.128
15363SOL    HW247987  12.476   5.649  13.985
15364SOL     OW47988   2.931  11.263   7.475
15364SOL    HW147989   2.871  11.226   7.409
15364SOL    HW247990   2.996  11.195   7.489
15365SOL     OW47991   7.831  12.910   0.382
15365SOL    HW147992   7.841  13.006   0.385
15365SOL    HW247993   7.823  12.884   0.473
15366SOL     OW47994  10.183   5.783  10.382
15366SOL    HW147995  10.158   5.855  10.324
15366SOL    HW247996  10.279   5.779  10.375
15367SOL     OW47997   1.071  10.796   2.083
15367SOL    HW147998   1.090  10.793   2.177
15367SOL    HW247999   1.105  10.880   2.054
15368SOL     OW48000   3.777  12.361   2.483
15368SOL    HW148001   3.740  12.272   2.488
15368SOL    HW248002   3.870  12.349   2.502
15369SOL     OW48003   6.718  13.318   2.361
15369SOL    HW148004   6.727  13.407   2.329
15369SOL    HW248005   6.668  13.327   2.442
15370SOL     OW48006   4.572   1.675   2.026
15370SOL    HW148007   4.656   1.699   2.066
15370SOL    HW248008   4.506   1.708   2.087
15371SOL     OW48009  10.542   7.094   2.711
15371SOL    HW148010  10.630   7.058   2.715
15371SOL    HW248011  10.484   7.018   2.708
15372SOL     OW48012   5.993   4.062   2.878
15372SOL    HW148013   6.010   4.005   2.953
15372SOL    HW248014   5.996   4.151   2.914
15373SOL     OW48015  11.322  13.118   4.490
15373SOL    HW148016  11.311  13.024   4.476
15373SOL    HW248017  11.276  13.135   4.572
15374SOL     OW48018   0.449  10.101  12.367
15374SOL    HW148019   0.502  10.037  12.320
15374SOL    HW248020   0.424  10.165  12.300
15375SOL     OW48021   1.642   4.032   4.274
15375SOL    HW148022   1.569   3.986   4.314
15375SOL    HW248023   1.697   3.963   4.236
15376SOL     OW48024   0.747  10.188  11.742
15376SOL    HW148025   0.654  10.176  11.725
15376SOL    HW248026   0.790  10.119  11.691
15377SOL     OW48027   8.071   9.107   7.992
15377SOL    HW148028   8.116   9.123   8.076
15377SOL    HW248029   8.141   9.098   7.928
15378SOL     OW48030   0.161   6.111   2.521
15378SOL    HW148031   0.093   6.044   2.527
15378SOL    HW248032   0.234   6.067   2.478
15379SOL     OW48033   7.135   9.479   2.443
15379SOL    HW148034   7.207   9.423   2.411
15379SOL    HW248035   7.056   9.437   2.409
15380SOL     OW48036   5.621   9.516   0.777
15380SOL    HW148037   5.532   9.488   0.756
15380SOL    HW248038   5.652   9.558   0.696
15381SOL     OW48039  13.973   6.097  13.186
15381SOL    HW148040  13.901   6.159  13.192
15381SOL    HW248041  14.025   6.113  13.265
15382SOL     OW48042   9.805   6.764   6.876
15382SOL    HW148043   9.742   6.821   6.831
15382SOL    HW248044   9.750   6.698   6.919
15383SOL     OW48045   9.274   4.195   3.640
15383SOL    HW148046   9.209   4.126   3.624
15383SOL    HW248047   9.358   4.155   3.616
15384SOL     OW48048  12.847  10.852   5.280
15384SOL    HW148049  12.888  10.910   5.216
15384SOL    HW248050  12.914  10.787   5.300
15385SOL     OW48051   3.069   5.419  12.827
15385SOL    HW148052   3.031   5.341  12.788
15385SOL    HW248053   3.105   5.389  12.911
15386SOL     OW48054   3.141   3.343   4.583
15386SOL    HW148055   3.170   3.372   4.669
15386SOL    HW248056   3.184   3.404   4.522
15387SOL     OW48057   4.521   2.196  11.944
15387SOL    HW148058   4.615   2.177  11.939
15387SOL    HW248059   4.508   2.268  11.882
15388SOL     OW48060   4.128   0.874   6.119
15388SOL    HW148061   4.084   0.851   6.201
15388SOL    HW248062   4.067   0.847   6.050
15389SOL     OW48063   1.548   8.266   3.596
15389SOL    HW148064   1.578   8.340   3.544
15389SOL    HW248065   1.453   8.272   3.595
15390SOL     OW48066  13.996  11.730  12.752
15390SOL    HW148067  13.929  11.730  12.821
15390SOL    HW248068  14.053  11.804  12.774
15391SOL     OW48069   2.678   7.543   0.988
15391SOL    HW148070   2.719   7.524   0.903
15391SOL    HW248071   2.594   7.584   0.965
15392SOL     OW48072   8.267   3.108   4.954
15392SOL    HW148073   8.221   3.158   4.887
15392SOL    HW248074   8.354   3.094   4.918
15393SOL     OW48075  11.269  12.490   5.277
15393SOL    HW148076  11.203  12.427   5.306
15393SOL    HW248077  11.244  12.511   5.187
15394SOL     OW48078  14.477   2.826   6.987
15394SOL    HW148079  14.415   2.898   6.979
15394SOL    HW248080  14.558   2.866   7.019
15395SOL     OW48081  11.567   7.360   5.196
15395SOL    HW148082  11.592   7.403   5.114
15395SOL    HW248083  11.639   7.379   5.256
15396SOL     OW48084   7.836  14.184  14.680
15396SOL    HW148085   7.828  14.200  14.586
15396SOL    HW248086   7.898  14.111  14.688
15397SOL     OW48087  14.543   9.984  11.070
15397SOL    HW148088  14.517   9.931  10.995
15397SOL    HW248089  14.600  10.052  11.033
15398SOL     OW48090   0.958   1.942   5.300
15398SOL    HW148091   1.033   1.999   5.284
15398SOL    HW248092   0.988   1.882   5.368
15399SOL     OW48093  12.107   0.252  12.619
15399SOL    HW148094  12.028   0.230  12.570
15399SOL    HW248095  12.105   0.348  12.627
15400SOL     OW48096   9.655   5.688   7.832
15400SOL    HW148097   9.637   5.652   7.919
15400SOL    HW248098   9.646   5.614   7.773
15401SOL     OW48099   9.691   5.205   2.260
15401SOL    HW148100   9.676   5.111   2.245
15401SOL    HW248101   9.784   5.217   2.243
15402SOL     OW48102   9.431   7.925  10.583
15402SOL    HW148103   9.337   7.946  10.577
15402SOL    HW248104   9.445   7.858  10.516
15403SOL     OW48105   7.792  12.392  13.296
15403SOL    HW148106   7.702  12.364  13.276
15403SOL    HW248107   7.838  12.310  13.314
15404SOL     OW48108   5.053   4.906   6.254
15404SOL    HW148109   5.106   4.925   6.177
15404SOL    HW248110   5.037   4.812   6.250
15405SOL     OW48111   7.239   7.659   5.999
15405SOL    HW148112   7.224   7.600   5.924
15405SOL    HW248113   7.273   7.602   6.068
15406SOL     OW48114   1.919   0.005   6.283
15406SOL    HW148115   1.929  14.854   6.193
15406SOL    HW248116   1.978  14.832   6.335
15407SOL     OW48117  13.585   8.102  14.444
15407SOL    HW148118  13.650   8.071  14.381
15407SOL    HW248119  13.604   8.053  14.524
15408SOL     OW48120   6.448  11.565  10.473
15408SOL    HW148121   6.542  11.551  10.474
15408SOL    HW248122   6.438  11.658  10.494
15409SOL     OW48123  10.802   9.245  13.277
15409SOL    HW148124  10.719   9.200  13.263
15409SOL    HW248125  10.856   9.220  13.201
15410SOL     OW48126  10.965  11.279  10.859
15410SOL    HW148127  10.959  11.294  10.954
15410SOL    HW248128  11.037  11.337  10.831
15411SOL     OW48129   4.410   1.943   0.379
15411SOL    HW148130   4.418   1.926   0.473
15411SOL    HW248131   4.390   1.857   0.341
15412SOL     OW48132  11.850  11.359   2.856
15412SOL    HW148133  11.891  11.325   2.776
15412SOL    HW248134  11.851  11.454   2.845
15413SOL     OW48135   7.390   7.458   3.577
15413SOL    HW148136   7.334   7.455   3.655
15413SOL    HW248137   7.479   7.458   3.612
15414SOL     OW48138   9.776   4.599   5.978
15414SOL    HW148139   9.864   4.586   6.014
15414SOL    HW248140   9.734   4.513   5.985
15415SOL     OW48141   7.500   4.961  14.346
15415SOL    HW148142   7.490   4.928  14.257
15415SOL    HW248143   7.593   4.981  14.354
15416SOL     OW48144   6.112   6.300   0.113
15416SOL    HW148145   6.134   6.352   0.190
15416SOL    HW248146   6.177   6.230   0.111
15417SOL     OW48147  13.267  11.203   5.076
15417SOL    HW148148  13.334  11.185   5.140
15417SOL    HW248149  13.257  11.298   5.077
15418SOL     OW48150   3.413  14.621   1.511
15418SOL    HW148151   3.488  14.584   1.463
15418SOL    HW248152   3.442  14.622   1.602
15419SOL     OW48153   5.421   1.943  13.356
15419SOL    HW148154   5.463   1.857  13.361
15419SOL    HW248155   5.452   1.980  13.273
15420SOL     OW48156   7.884   0.445   7.673
15420SOL    HW148157   7.809   0.453   7.732
15420SOL    HW248158   7.894   0.532   7.634
15421SOL     OW48159   9.621   9.481   3.300
15421SOL    HW148160   9.629   9.397   3.345
15421SOL    HW248161   9.709   9.503   3.272
15422SOL     OW48162  14.280  12.212   0.472
15422SOL    HW148163  14.213  12.258   0.522
15422SOL    HW248164  14.250  12.214   0.382
15423SOL     OW48165   1.344  10.904  13.744
15423SOL    HW148166   1.436  10.904  13.770
15423SOL    HW248167   1.339  10.965  13.671
15424SOL     OW48168  11.982  14.050  13.827
15424SOL    HW148169  12.017  14.078  13.911
15424SOL    HW248170  11.898  14.010  13.847
15425SOL     OW48171   5.687   2.664  13.863
15425SOL    HW148172   5.649   2.614  13.935
15425SOL    HW248173   5.657   2.619  13.784
15426SOL     OW48174   6.092   0.546  12.347
15426SOL    HW148175   6.101   0.453  12.329
15426SOL    HW248176   6.090   0.588  12.261
15427SOL     OW48177  10.552   9.788   1.551
15427SOL    HW148178  10.645   9.767   1.559
15427SOL    HW248179  10.521   9.733   1.480
15428SOL     OW48180   0.416   0.423   1.919
15428SOL    HW148181   0.441   0.515   1.920
15428SOL    HW248182   0.499   0.377   1.902
15429SOL     OW48183   8.431  10.943  13.492
15429SOL    HW148184   8.359  10.997  13.462
15429SOL    HW248185   8.445  10.880  13.422
15430SOL     OW48186  13.059  13.325   4.746
15430SOL    HW148187  13.086  13.259   4.810
15430SOL    HW248188  13.141  13.361   4.713
15431SOL     OW48189  14.634   8.805   1.332
15431SOL    HW148190  14.666   8.716   1.347
15431SOL    HW248191  14.616   8.839   1.420
15432SOL     OW48192   5.422   2.831  10.174
15432SOL    HW148193   5.455   2.920  10.191
15432SOL    HW248194   5.500   2.776  10.173
15433SOL     OW48195   5.938  14.725  12.810
15433SOL    HW148196   5.959  14.676  12.730
15433SOL    HW248197   5.850  14.694  12.834
15434SOL     OW48198   5.959   4.689   9.190
15434SOL    HW148199   5.959   4.601   9.151
15434SOL    HW248200   5.930   4.746   9.119
15435SOL     OW48201   1.203   8.201  12.866
15435SOL    HW148202   1.116   8.184  12.904
15435SOL    HW248203   1.260   8.213  12.942
15436SOL     OW48204  11.388   7.580   4.989
15436SOL    HW148205  11.355   7.650   4.933
15436SOL    HW248206  11.475   7.560   4.954
15437SOL     OW48207  13.402   9.812   6.287
15437SOL    HW148208  13.449   9.733   6.259
15437SOL    HW248209  13.414   9.873   6.214
15438SOL     OW48210   7.837   7.858   5.935
15438SOL    HW148211   7.863   7.833   6.024
15438SOL    HW248212   7.916   7.846   5.883
15439SOL     OW48213  14.577  10.064  10.352
15439SOL    HW148214  14.583  10.118  10.431
15439SOL    HW248215  14.644  10.099  10.294
15440SOL     OW48216  12.160   0.304   6.600
15440SOL    HW148217  12.116   0.384   6.631
15440SOL    HW248218  12.110   0.279   6.522
15441SOL     OW48219   9.793   5.808   3.087
15441SOL    HW148220   9.859   5.810   3.018
15441SOL    HW248221   9.771   5.716   3.097
15442SOL     OW48222   0.649  14.558   6.492
15442SOL    HW148223   0.642  14.464   6.473
15442SOL    HW248224   0.738  14.569   6.526
15443SOL     OW48225   6.034   0.838   6.806
15443SOL    HW148226   5.976   0.776   6.849
15443SOL    HW248227   6.115   0.835   6.857
15444SOL     OW48228   9.390   3.094  10.875
15444SOL    HW148229   9.305   3.094  10.918
15444SOL    HW248230   9.382   3.161  10.807
15445SOL     OW48231   0.846   3.207  14.486
15445SOL    HW148232   0.883   3.290  14.455
15445SOL    HW248233   0.809   3.228  14.572
15446SOL     OW48234  14.258   0.352   9.309
15446SOL    HW148235  14.195   0.289   9.345
15446SOL    HW248236  14.311   0.301   9.249
15447SOL     OW48237   2.379   6.384   0.547
15447SOL    HW148238   2.417   6.471   0.558
15447SOL    HW248239   2.330   6.389   0.465
15448SOL     OW48240   7.231  12.688   8.310
15448SOL    HW148241   7.205  12.720   8.397
15448SOL    HW248242   7.159  12.713   8.253
15449SOL     OW48243   9.426   7.807   2.296
15449SOL    HW148244   9.348   7.849   2.261
15449SOL    HW248245   9.483   7.880   2.320
15450SOL     OW48246  10.267  11.934   6.530
15450SOL    HW148247  10.201  11.883   6.483
15450SOL    HW248248  10.349  11.913   6.485
15451SOL     OW48249   2.181  13.244   5.860
15451SOL    HW148250   2.096  13.289   5.868
15451SOL    HW248251   2.168  13.161   5.905
15452SOL     OW48252   7.260   9.981  14.725
15452SOL    HW148253   7.321   9.913  14.755
15452SOL    HW248254   7.291  10.061  14.766
15453SOL     OW48255   4.628  14.598   4.883
15453SOL    HW148256   4.546  14.629   4.845
15453SOL    HW248257   4.629  14.504   4.863
15454SOL     OW48258   6.093   3.659  11.946
15454SOL    HW148259   6.134   3.616  11.871
15454SOL    HW248260   6.155   3.727  11.973
15455SOL     OW48261   2.560   3.280   2.394
15455SOL    HW148262   2.592   3.209   2.450
15455SOL    HW248263   2.517   3.235   2.321
15456SOL     OW48264   8.665  14.748  12.861
15456SOL    HW148265   8.604  14.775  12.792
15456SOL    HW248266   8.751  14.772  12.827
15457SOL     OW48267   4.649  10.576  12.075
15457SOL    HW148268   4.658  10.482  12.090
15457SOL    HW248269   4.557  10.595  12.089
15458SOL     OW48270  11.609   1.006   1.095
15458SOL    HW148271  11.622   0.973   1.006
15458SOL    HW248272  11.582   0.929   1.146
15459SOL     OW48273  10.417  14.595   7.969
15459SOL    HW148274  10.328  14.583   8.003
15459SOL    HW248275  10.433  14.689   7.974
15460SOL     OW48276  12.959  11.737  10.845
15460SOL    HW148277  12.941  11.742  10.751
15460SOL    HW248278  12.923  11.652  10.871
15461SOL     OW48279   5.706  12.917   1.539
15461SOL    HW148280   5.613  12.932   1.523
15461SOL    HW248281   5.740  13.003   1.564
15462SOL     OW48282   5.887   9.238  12.192
15462SOL    HW148283   5.939   9.159  12.208
15462SOL    HW248284   5.917   9.300  12.259
15463SOL     OW48285   8.270  10.810  13.707
15463SOL    HW148286   8.363  10.833  13.700
15463SOL    HW248287   8.255  10.749  13.635
15464SOL     OW48288   0.279   6.124   5.175
15464SOL    HW148289   0.371   6.138   5.199
15464SOL    HW248290   0.233   6.199   5.213
15465SOL     OW48291   6.867   0.655   7.169
15465SOL    HW148292   6.916   0.702   7.102
15465SOL    HW248293   6.918   0.575   7.185
15466SOL     OW48294   1.946  12.439  11.614
15466SOL    HW148295   2.027  12.401  11.579
15466SOL    HW248296   1.878  12.374  11.595
15467SOL     OW48297   6.426   7.353   5.033
15467SOL    HW148298   6.500   7.403   4.999
15467SOL    HW248299   6.351   7.412   5.023
15468SOL     OW48300   4.556   3.512   2.675
15468SOL    HW148301   4.625   3.562   2.631
15468SOL    HW248302   4.563   3.538   2.767
15469SOL     OW48303   8.020   7.687   1.501
15469SOL    HW148304   7.929   7.681   1.471
15469SOL    HW248305   8.071   7.641   1.435
15470SOL     OW48306   5.680   9.699   4.915
15470SOL    HW148307   5.719   9.726   4.832
15470SOL    HW248308   5.590   9.676   4.892
15471SOL     OW48309   6.750  12.995   7.720
15471SOL    HW148310   6.682  13.050   7.681
15471SOL    HW248311   6.702  12.922   7.760
15472SOL     OW48312   3.995   3.500   3.186
15472SOL    HW148313   3.967   3.521   3.097
15472SOL    HW248314   3.917   3.463   3.228
15473SOL     OW48315  14.595  12.215   4.641
15473SOL    HW148316  14.675  12.236   4.689
15473SOL    HW248317  14.525  12.221   4.706
15474SOL     OW48318  14.546   1.432   4.401
15474SOL    HW148319  14.512   1.511   4.359
15474SOL    HW248320  14.617   1.463   4.457
15475SOL     OW48321   4.377  10.949   0.828
15475SOL    HW148322   4.322  11.016   0.867
15475SOL    HW248323   4.415  10.991   0.751
15476SOL     OW48324   4.257   6.929   0.019
15476SOL    HW148325   4.324   6.973  14.849
15476SOL    HW248326   4.296   6.921   0.106
15477SOL     OW48327  12.608   3.127   9.475
15477SOL    HW148328  12.595   3.201   9.416
15477SOL    HW248329  12.638   3.056   9.418
15478SOL     OW48330  13.716   5.925   9.845
15478SOL    HW148331  13.644   5.879   9.803
15478SOL    HW248332  13.794   5.874   9.825
15479SOL     OW48333   0.016  14.640   0.392
15479SOL    HW148334   0.048  14.652   0.303
15479SOL    HW248335   0.095  14.630   0.445
15480SOL     OW48336   7.653   9.558   5.565
15480SOL    HW148337   7.649   9.626   5.633
15480SOL    HW248338   7.686   9.481   5.610
15481SOL     OW48339  10.402   6.754   8.349
15481SOL    HW148340  10.488   6.746   8.307
15481SOL    HW248341  10.421   6.780   8.439
15482SOL     OW48342   5.884  11.038  11.979
15482SOL    HW148343   5.792  11.032  11.955
15482SOL    HW248344   5.888  11.109  12.044
15483SOL     OW48345   9.122   8.947   6.516
15483SOL    HW148346   9.072   8.887   6.461
15483SOL    HW248347   9.117   8.909   6.603
15484SOL     OW48348   3.120   5.085   8.601
15484SOL    HW148349   3.127   5.169   8.647
15484SOL    HW248350   3.184   5.092   8.530
15485SOL     OW48351   6.986   1.510  10.992
15485SOL    HW148352   7.069   1.496  11.038
15485SOL    HW248353   6.921   1.517  11.061
15486SOL     OW48354   3.643   5.925   1.460
15486SOL    HW148355   3.604   6.007   1.488
15486SOL    HW248356   3.692   5.893   1.536
15487SOL     OW48357   3.112   3.837   1.549
15487SOL    HW148358   3.036   3.849   1.607
15487SOL    HW248359   3.180   3.892   1.587
15488SOL     OW48360   2.951  13.923   2.431
15488SOL    HW148361   2.920  14.014   2.426
15488SOL    HW248362   2.871  13.871   2.426
15489SOL     OW48363   4.213   8.217   3.510
15489SOL    HW148364   4.159   8.268   3.449
15489SOL    HW248365   4.295   8.204   3.463
15490SOL     OW48366   7.320  10.777   5.705
15490SOL    HW148367   7.330  10.729   5.787
15490SOL    HW248368   7.226  10.797   5.700
15491SOL     OW48369   7.968  13.931   5.375
15491SOL    HW148370   8.059  13.954   5.356
15491SOL    HW248371   7.934  14.004   5.426
15492SOL     OW48372   7.613  14.630  14.623
15492SOL    HW148373   7.630  14.555  14.679
15492SOL    HW248374   7.694  14.682  14.628
15493SOL     OW48375   4.442   1.721  14.850
15493SOL    HW148376   4.430   1.630  14.821
15493SOL    HW248377   4.457   1.715   0.062
15494SOL     OW48378   8.437   2.890   3.994
15494SOL    HW148379   8.502   2.867   4.060
15494SOL    HW248380   8.433   2.986   3.997
15495SOL     OW48381  10.223   7.739   9.216
15495SOL    HW148382  10.180   7.684   9.282
15495SOL    HW248383  10.154   7.762   9.154
15496SOL     OW48384   0.154  10.219  13.221
15496SOL    HW148385   0.151  10.224  13.317
15496SOL    HW248386   0.227  10.160  13.203
15497SOL     OW48387  11.798   0.473   2.681
15497SOL    HW148388  11.843   0.398   2.643
15497SOL    HW248389  11.707   0.445   2.690
15498SOL     OW48390  10.236  13.035   3.854
15498SOL    HW148391  10.310  12.991   3.812
15498SOL    HW248392  10.183  13.066   3.781
15499SOL     OW48393   3.182   9.314   6.662
15499SOL    HW148394   3.208   9.405   6.677
15499SOL    HW248395   3.233   9.286   6.586
15500SOL     OW48396   5.509   8.241   4.790
15500SOL    HW148397   5.514   8.152   4.826
15500SOL    HW248398   5.433   8.280   4.833
15501SOL     OW48399   9.666   8.400  12.340
15501SOL    HW148400   9.721   8.459  12.391
15501SOL    HW248401   9.728   8.340  12.299
15502SOL     OW48402   5.404   8.747   5.691
15502SOL    HW148403   5.393   8.807   5.765
15502SOL    HW248404   5.414   8.661   5.732
15503SOL     OW48405  11.683   1.330  14.751
15503SOL    HW148406  11.598   1.288  14.754
15503SOL    HW248407  11.744   1.263  14.783
15504SOL     OW48408   1.163  11.272   2.193
15504SOL    HW148409   1.259  11.266   2.201
15504SOL    HW248410   1.140  11.353   2.238
15505SOL     OW48411  11.817  13.002  14.292
15505SOL    HW148412  11.909  13.015  14.269
15505SOL    HW248413  11.818  12.984  14.386
15506SOL     OW48414   6.880   6.515   0.523
15506SOL    HW148415   6.904   6.554   0.608
15506SOL    HW248416   6.963   6.510   0.475
15507SOL     OW48417   9.424   7.817   5.997
15507SOL    HW148418   9.353   7.874   6.026
15507SOL    HW248419   9.423   7.744   6.058
15508SOL     OW48420   9.418   2.869   2.019
15508SOL    HW148421   9.432   2.964   2.026
15508SOL    HW248422   9.404   2.840   2.110
15509SOL     OW48423   9.846   7.331  13.993
15509SOL    HW148424   9.889   7.247  13.986
15509SOL    HW248425   9.912   7.395  13.966
15510SOL     OW48426   0.059  14.602   5.463
15510SOL    HW148427  14.881  14.677   5.464
15510SOL    HW248428   0.044  14.558   5.547
15511SOL     OW48429  14.693  13.396   4.527
15511SOL    HW148430  14.782  13.369   4.504
15511SOL    HW248431  14.640  13.372   4.452
15512SOL     OW48432   9.029   9.067   1.830
15512SOL    HW148433   8.975   9.146   1.825
15512SOL    HW248434   8.966   8.996   1.841
15513SOL     OW48435   5.613  10.027  13.815
15513SOL    HW148436   5.656   9.946  13.787
15513SOL    HW248437   5.629  10.088  13.743
15514SOL     OW48438   2.768  13.629  12.038
15514SOL    HW148439   2.799  13.690  11.971
15514SOL    HW248440   2.801  13.543  12.010
15515SOL     OW48441   8.762  10.495  11.265
15515SOL    HW148442   8.762  10.399  11.266
15515SOL    HW248443   8.721  10.519  11.348
15516SOL     OW48444   1.201  11.832  13.303
15516SOL    HW148445   1.161  11.910  13.341
15516SOL    HW248446   1.128  11.776  13.278
15517SOL     OW48447   0.963   7.475   6.286
15517SOL    HW148448   1.015   7.554   6.296
15517SOL    HW248449   0.970   7.430   6.370
15518SOL     OW48450  14.307   3.668   6.993
15518SOL    HW148451  14.264   3.586   7.018
15518SOL    HW248452  14.358   3.693   7.071
15519SOL     OW48453  14.107  11.947  14.571
15519SOL    HW148454  14.038  12.012  14.563
15519SOL    HW248455  14.062  11.863  14.564
15520SOL     OW48456   2.556   6.748   5.868
15520SOL    HW148457   2.646   6.777   5.855
15520SOL    HW248458   2.549   6.666   5.819
15521SOL     OW48459   2.126   1.593  11.697
15521SOL    HW148460   2.220   1.592  11.716
15521SOL    HW248461   2.091   1.517  11.743
15522SOL     OW48462  10.206   3.457  13.843
15522SOL    HW148463  10.152   3.386  13.879
15522SOL    HW248464  10.173   3.536  13.886
15523SOL     OW48465   4.062   3.760   0.404
15523SOL    HW148466   4.120   3.716   0.342
15523SOL    HW248467   4.039   3.842   0.361
15524SOL     OW48468  13.586   1.813   3.505
15524SOL    HW148469  13.578   1.763   3.423
15524SOL    HW248470  13.676   1.798   3.533
15525SOL     OW48471   2.809   7.657   1.781
15525SOL    HW148472   2.717   7.636   1.799
15525SOL    HW248473   2.858   7.586   1.823
15526SOL     OW48474   6.197   0.567  11.423
15526SOL    HW148475   6.214   0.506  11.351
15526SOL    HW248476   6.215   0.653  11.387
15527SOL     OW48477   6.766  12.093   2.676
15527SOL    HW148478   6.751  12.118   2.585
15527SOL    HW248479   6.680  12.065   2.708
15528SOL     OW48480  12.342   5.602   3.978
15528SOL    HW148481  12.358   5.693   3.954
15528SOL    HW248482  12.333   5.557   3.894
15529SOL     OW48483   3.458   7.472   1.531
15529SOL    HW148484   3.514   7.532   1.581
15529SOL    HW248485   3.370   7.493   1.561
15530SOL     OW48486   0.519  12.837   9.668
15530SOL    HW148487   0.606  12.811   9.699
15530SOL    HW248488   0.484  12.759   9.625
15531SOL     OW48489   5.184   8.473  14.491
15531SOL    HW148490   5.136   8.549  14.460
15531SOL    HW248491   5.141   8.398  14.449
15532SOL     OW48492   2.540  14.162   1.676
15532SOL    HW148493   2.543  14.219   1.753
15532SOL    HW248494   2.600  14.090   1.696
15533SOL     OW48495   2.421   9.297   5.731
15533SOL    HW148496   2.376   9.282   5.814
15533SOL    HW248497   2.383   9.233   5.671
15534SOL     OW48498   3.649  11.904   0.028
15534SOL    HW148499   3.686  11.874  14.827
15534SOL    HW248500   3.615  11.824   0.068
15535SOL     OW48501   7.453   5.828  10.817
15535SOL    HW148502   7.459   5.846  10.911
15535SOL    HW248503   7.396   5.897  10.784
15536SOL     OW48504   4.838   8.932  10.370
15536SOL    HW148505   4.816   9.024  10.387
15536SOL    HW248506   4.762   8.883  10.398
15537SOL     OW48507  10.087   5.695   3.951
15537SOL    HW148508  10.165   5.685   4.006
15537SOL    HW248509  10.022   5.737   4.007
15538SOL     OW48510   1.957   4.272  11.019
15538SOL    HW148511   1.978   4.365  11.006
15538SOL    HW248512   1.965   4.233  10.932
15539SOL     OW48513   3.056  10.813   4.406
15539SOL    HW148514   2.990  10.787   4.342
15539SOL    HW248515   3.137  10.771   4.377
15540SOL     OW48516   0.972   1.489   0.408
15540SOL    HW148517   0.973   1.485   0.312
15540SOL    HW248518   1.016   1.571   0.429
15541SOL     OW48519   6.387   4.937   8.704
15541SOL    HW148520   6.465   4.991   8.716
15541SOL    HW248521   6.314   4.996   8.725
15542SOL     OW48522   6.126  12.065   9.841
15542SOL    HW148523   6.045  12.017   9.858
15542SOL    HW248524   6.187  12.031   9.906
15543SOL     OW48525   3.089   5.468  11.945
15543SOL    HW148526   3.182   5.489  11.942
15543SOL    HW248527   3.083   5.376  11.921
15544SOL     OW48528   0.591   7.173  13.541
15544SOL    HW148529   0.549   7.256  13.520
15544SOL    HW248530   0.523   7.122  13.585
15545SOL     OW48531  10.986  14.855  12.201
15545SOL    HW148532  10.934   0.039  12.247
15545SOL    HW248533  10.924  14.810  12.145
15546SOL     OW48534   9.739   7.222   4.783
15546SOL    HW148535   9.742   7.237   4.689
15546SOL    HW248536   9.730   7.310   4.821
15547SOL     OW48537  11.407  13.882   5.855
15547SOL    HW148538  11.443  13.836   5.931
15547SOL    HW248539  11.339  13.823   5.821
15548SOL     OW48540   6.903  11.327  11.353
15548SOL    HW148541   6.822  11.342  11.401
15548SOL    HW248542   6.954  11.407  11.366
15549SOL     OW48543   5.939   2.162   5.246
15549SOL    HW148544   5.964   2.252   5.222
15549SOL    HW248545   6.015   2.129   5.294
15550SOL     OW48546   2.321   9.432   8.373
15550SOL    HW148547   2.319   9.366   8.442
15550SOL    HW248548   2.230   9.461   8.366
15551SOL     OW48549   6.688   4.295  12.088
15551SOL    HW148550   6.738   4.325  12.164
15551SOL    HW248551   6.737   4.219  12.056
15552SOL     OW48552   8.450   0.019   4.865
15552SOL    HW148553   8.401   0.100   4.875
15552SOL    HW248554   8.391  14.843   4.817
15553SOL     OW48555   9.274   7.575   2.494
15553SOL    HW148556   9.358   7.622   2.499
15553SOL    HW248557   9.210   7.645   2.480
15554SOL     OW48558   1.979   7.601   9.132
15554SOL    HW148559   1.974   7.505   9.139
15554SOL    HW248560   1.949   7.620   9.043
15555SOL     OW48561  10.378   8.472   5.092
15555SOL    HW148562  10.346   8.559   5.113
15555SOL    HW248563  10.473   8.478   5.101
15556SOL     OW48564   7.709   8.866   6.170
15556SOL    HW148565   7.751   8.854   6.085
15556SOL    HW248566   7.709   8.961   6.184
15557SOL     OW48567  13.592   0.619   0.677
15557SOL    HW148568  13.512   0.571   0.651
15557SOL    HW248569  13.656   0.550   0.695
15558SOL     OW48570  13.944   4.936   8.918
15558SOL    HW148571  14.032   4.921   8.954
15558SOL    HW248572  13.959   4.992   8.841
15559SOL     OW48573   2.134   6.017   0.535
15559SOL    HW148574   2.122   5.962   0.458
15559SOL    HW248575   2.229   6.024   0.545
15560SOL     OW48576  11.407   6.105   6.950
15560SOL    HW148577  11.463   6.123   7.025
15560SOL    HW248578  11.341   6.044   6.984
15561SOL     OW48579  14.372  12.846   6.099
15561SOL    HW148580  14.423  12.803   6.168
15561SOL    HW248581  14.292  12.876   6.143
15562SOL     OW48582   5.258  11.798   0.674
15562SOL    HW148583   5.181  11.742   0.688
15562SOL    HW248584   5.289  11.820   0.762
15563SOL     OW48585  10.218  14.658   0.290
15563SOL    HW148586  10.128  14.665   0.260
15563SOL    HW248587  10.234  14.564   0.298
15564SOL     OW48588  14.334  11.337   6.247
15564SOL    HW148589  14.324  11.261   6.189
15564SOL    HW248590  14.333  11.300   6.335
15565SOL     OW48591  11.274  13.968   4.450
15565SOL    HW148592  11.237  14.043   4.403
15565SOL    HW248593  11.217  13.957   4.526
15566SOL     OW48594   2.061   1.250   3.247
15566SOL    HW148595   1.980   1.214   3.285
15566SOL    HW248596   2.034   1.285   3.162
15567SOL     OW48597   7.831  13.416   2.052
15567SOL    HW148598   7.859  13.420   1.960
15567SOL    HW248599   7.813  13.323   2.068
15568SOL     OW48600   9.894   3.291   0.467
15568SOL    HW148601   9.874   3.232   0.394
15568SOL    HW248602   9.887   3.379   0.429
15569SOL     OW48603  11.744   0.234   4.186
15569SOL    HW148604  11.794   0.162   4.148
15569SOL    HW248605  11.771   0.237   4.277
15570SOL     OW48606   3.527   9.470   6.638
15570SOL    HW148607   3.507   9.377   6.633
15570SOL    HW248608   3.573   9.490   6.557
15571SOL     OW48609  14.517   6.726  14.100
15571SOL    HW148610  14.455   6.711  14.172
15571SOL    HW248611  14.546   6.638  14.076
15572SOL     OW48612   9.070  12.571   9.210
15572SOL    HW148613   9.114  12.502   9.159
15572SOL    HW248614   8.977  12.560   9.190
15573SOL     OW48615   8.457  10.343   1.977
15573SOL    HW148616   8.485  10.434   1.984
15573SOL    HW248617   8.459  10.311   2.068
15574SOL     OW48618   0.877   9.576   7.591
15574SOL    HW148619   0.954   9.619   7.555
15574SOL    HW248620   0.804   9.633   7.567
15575SOL     OW48621  11.044  10.139   6.854
15575SOL    HW148622  11.073  10.057   6.815
15575SOL    HW248623  11.009  10.190   6.781
15576SOL     OW48624   1.627   8.082   8.548
15576SOL    HW148625   1.687   8.007   8.549
15576SOL    HW248626   1.543   8.046   8.576
15577SOL     OW48627  12.799   5.219   4.068
15577SOL    HW148628  12.852   5.209   4.147
15577SOL    HW248629  12.732   5.152   4.075
15578SOL     OW48630   8.747   9.570  14.256
15578SOL    HW148631   8.798   9.565  14.337
15578SOL    HW248632   8.811   9.552  14.186
15579SOL     OW48633   2.931   8.734   9.296
15579SOL    HW148634   2.910   8.800   9.361
15579SOL    HW248635   2.846   8.712   9.256
15580SOL     OW48636   7.210   5.554   8.490
15580SOL    HW148637   7.177   5.636   8.526
15580SOL    HW248638   7.297   5.544   8.527
15581SOL     OW48639  14.091   0.573  12.325
15581SOL    HW148640  14.046   0.491  12.307
15581SOL    HW248641  14.027   0.625  12.375
15582SOL     OW48642  12.737  14.444   6.769
15582SOL    HW148643  12.728  14.374   6.704
15582SOL    HW248644  12.803  14.503   6.732
15583SOL     OW48645   2.839   9.662   9.188
15583SOL    HW148646   2.892   9.730   9.147
15583SOL    HW248647   2.820   9.601   9.117
15584SOL     OW48648   1.099  10.784  13.770
15584SOL    HW148649   1.187  10.821  13.770
15584SOL    HW248650   1.109  10.698  13.809
15585SOL     OW48651   6.944   5.190   3.231
15585SOL    HW148652   7.006   5.117   3.230
15585SOL    HW248653   6.989   5.259   3.280
15586SOL     OW48654   9.377   6.641  11.817
15586SOL    HW148655   9.295   6.631  11.767
15586SOL    HW248656   9.358   6.601  11.902
15587SOL     OW48657   4.869   2.590   3.979
15587SOL    HW148658   4.776   2.604   3.963
15587SOL    HW248659   4.885   2.629   4.065
15588SOL     OW48660   2.161  10.072  11.284
15588SOL    HW148661   2.226  10.032  11.343
15588SOL    HW248662   2.136  10.153  11.328
15589SOL     OW48663  14.573  13.682   7.840
15589SOL    HW148664  14.660  13.654   7.811
15589SOL    HW248665  14.528  13.601   7.864
15590SOL     OW48666   9.439   0.053   4.944
15590SOL    HW148667   9.507   0.094   4.891
15590SOL    HW248668   9.429  14.848   4.906
15591SOL     OW48669   2.435   2.716  13.250
15591SOL    HW148670   2.361   2.656  13.258
15591SOL    HW248671   2.418   2.783  13.317
15592SOL     OW48672   4.961  10.876  13.982
15592SOL    HW148673   5.009  10.842  14.057
15592SOL    HW248674   5.024  10.873  13.910
15593SOL     OW48675   0.831   1.532   1.751
15593SOL    HW148676   0.743   1.495   1.755
15593SOL    HW248677   0.857   1.542   1.843
15594SOL     OW48678   6.074  14.578   3.338
15594SOL    HW148679   5.988  14.593   3.377
15594SOL    HW248680   6.068  14.617   3.251
15595SOL     OW48681  11.086   5.519  12.219
15595SOL    HW148682  11.104   5.608  12.188
15595SOL    HW248683  11.096   5.524  12.314
15596SOL     OW48684  14.583  11.714  12.103
15596SOL    HW148685  14.632  11.655  12.046
15596SOL    HW248686  14.498  11.725  12.059
15597SOL     OW48687   6.350   4.331   1.654
15597SOL    HW148688   6.297   4.345   1.575
15597SOL    HW248689   6.305   4.261   1.701
15598SOL     OW48690   8.681   1.972   4.368
15598SOL    HW148691   8.756   1.978   4.428
15598SOL    HW248692   8.704   2.031   4.296
15599SOL     OW48693   6.055  12.882   9.823
15599SOL    HW148694   6.064  12.977   9.837
15599SOL    HW248695   5.961  12.865   9.834
15600SOL     OW48696  14.380   9.896   6.561
15600SOL    HW148697  14.305   9.838   6.567
15600SOL    HW248698  14.424   9.887   6.646
15601SOL     OW48699  10.668  13.137   9.401
15601SOL    HW148700  10.680  13.225   9.367
15601SOL    HW248701  10.695  13.080   9.329
15602SOL     OW48702   2.640   6.975  12.829
15602SOL    HW148703   2.658   6.967  12.923
15602SOL    HW248704   2.726   6.985  12.789
15603SOL     OW48705  10.912   9.854   5.601
15603SOL    HW148706  10.892   9.932   5.550
15603SOL    HW248707  10.851   9.787   5.568
15604SOL     OW48708   4.889   4.842   8.313
15604SOL    HW148709   4.849   4.788   8.380
15604SOL    HW248710   4.835   4.828   8.235
15605SOL     OW48711   5.038  12.458   9.856
15605SOL    HW148712   5.063  12.424   9.942
15605SOL    HW248713   5.056  12.552   9.860
15606SOL     OW48714   9.168   3.320   3.043
15606SOL    HW148715   9.116   3.278   2.975
15606SOL    HW248716   9.104   3.366   3.098
15607SOL     OW48717   6.810   8.897   2.638
15607SOL    HW148718   6.859   8.901   2.556
15607SOL    HW248719   6.845   8.970   2.690
15608SOL     OW48720   9.605   8.767   1.355
15608SOL    HW148721   9.660   8.699   1.394
15608SOL    HW248722   9.621   8.761   1.261
15609SOL     OW48723   8.575  13.386   7.406
15609SOL    HW148724   8.663  13.349   7.419
15609SOL    HW248725   8.526  13.316   7.363
15610SOL     OW48726  13.308  11.588   7.662
15610SOL    HW148727  13.339  11.606   7.751
15610SOL    HW248728  13.264  11.503   7.670
15611SOL     OW48729  14.640   4.556   5.305
15611SOL    HW148730  14.729   4.573   5.274
15611SOL    HW248731  14.630   4.461   5.298
15612SOL     OW48732   8.630   0.940   9.886
15612SOL    HW148733   8.623   0.923   9.792
15612SOL    HW248734   8.684   1.019   9.891
15613SOL     OW48735   3.475   3.531   8.788
15613SOL    HW148736   3.543   3.484   8.836
15613SOL    HW248737   3.417   3.566   8.856
15614SOL     OW48738   2.939   2.899  14.710
15614SOL    HW148739   2.911   2.870  14.797
15614SOL    HW248740   2.858   2.921  14.664
15615SOL     OW48741   0.437  10.810   4.042
15615SOL    HW148742   0.389  10.838   4.119
15615SOL    HW248743   0.432  10.714   4.045
15616SOL     OW48744  12.695   4.908   0.005
15616SOL    HW148745  12.655   4.923   0.091
15616SOL    HW248746  12.677   4.988  14.838
15617SOL     OW48747   3.907  11.221   3.900
15617SOL    HW148748   3.981  11.245   3.956
15617SOL    HW248749   3.831  11.265   3.939
15618SOL     OW48750   0.237  10.284  11.438
15618SOL    HW148751   0.263  10.192  11.441
15618SOL    HW248752   0.141  10.281  11.429
15619SOL     OW48753   4.730   6.937  10.009
15619SOL    HW148754   4.744   7.031  10.019
15619SOL    HW248755   4.647   6.921  10.054
15620SOL     OW48756   6.502   1.069  13.741
15620SOL    HW148757   6.410   1.054  13.766
15620SOL    HW248758   6.498   1.093  13.649
15621SOL     OW48759   8.496   6.373   1.747
15621SOL    HW148760   8.581   6.408   1.774
15621SOL    HW248761   8.503   6.364   1.652
15622SOL     OW48762   6.911  10.276   3.705
15622SOL    HW148763   6.965  10.199   3.687
15622SOL    HW248764   6.824  10.251   3.675
15623SOL     OW48765   0.932  10.437  11.782
15623SOL    HW148766   0.862  10.493  11.748
15623SOL    HW248767   0.888  10.356  11.808
15624SOL     OW48768   7.360   4.043   2.569
15624SOL    HW148769   7.302   4.115   2.544
15624SOL    HW248770   7.441   4.060   2.520
15625SOL     OW48771   3.681  13.291   8.667
15625SOL    HW148772   3.630  13.354   8.718
15625SOL    HW248773   3.676  13.210   8.716
15626SOL     OW48774   1.241   7.938  10.319
15626SOL    HW148775   1.227   7.866  10.381
15626SOL    HW248776   1.330   7.926  10.288
15627SOL     OW48777   3.509   8.247   1.390
15627SOL    HW148778   3.455   8.177   1.354
15627SOL    HW248779   3.575   8.263   1.322
15628SOL     OW48780   6.964  13.011  13.020
15628SOL    HW148781   7.016  13.091  13.030
15628SOL    HW248782   6.873  13.042  13.015
15629SOL     OW48783  13.798   4.911   1.386
15629SOL    HW148784  13.709   4.877   1.391
15629SOL    HW248785  13.849   4.839   1.348
15630SOL     OW48786   1.306   7.566  14.126
15630SOL    HW148787   1.331   7.477  14.102
15630SOL    HW248788   1.254   7.556  14.205
15631SOL     OW48789   0.633   6.513  12.647
15631SOL    HW148790   0.694   6.444  12.669
15631SOL    HW248791   0.548   6.469  12.639
15632SOL     OW48792   6.071   6.906  12.764
15632SOL    HW148793   6.140   6.914  12.830
15632SOL    HW248794   6.112   6.856  12.692
15633SOL     OW48795   8.496   4.415   1.605
15633SOL    HW148796   8.563   4.449   1.546
15633SOL    HW248797   8.414   4.451   1.572
15634SOL     OW48798   4.899   2.629   6.121
15634SOL    HW148799   4.867   2.567   6.055
15634SOL    HW248800   4.958   2.687   6.073
15635SOL     OW48801  11.798  10.429   7.619
15635SOL    HW148802  11.874  10.444   7.675
15635SOL    HW248803  11.829  10.454   7.531
15636SOL     OW48804   2.562   8.992   8.481
15636SOL    HW148805   2.482   8.997   8.428
15636SOL    HW248806   2.629   8.961   8.420
15637SOL     OW48807   7.949   9.625   9.048
15637SOL    HW148808   7.913   9.661   9.130
15637SOL    HW248809   7.908   9.539   9.040
15638SOL     OW48810   1.745   4.841  11.163
15638SOL    HW148811   1.829   4.828  11.208
15638SOL    HW248812   1.756   4.797  11.079
15639SOL     OW48813  11.354   5.937  12.841
15639SOL    HW148814  11.346   6.001  12.770
15639SOL    HW248815  11.345   5.988  12.921
15640SOL     OW48816   3.332   6.923  10.514
15640SOL    HW148817   3.399   6.920  10.582
15640SOL    HW248818   3.267   6.858  10.541
15641SOL     OW48819   8.175   5.495  14.632
15641SOL    HW148820   8.166   5.450  14.716
15641SOL    HW248821   8.220   5.577  14.654
15642SOL     OW48822   2.423   6.147   1.731
15642SOL    HW148823   2.472   6.216   1.776
15642SOL    HW248824   2.345   6.134   1.786
15643SOL     OW48825   1.093   6.588  14.742
15643SOL    HW148826   1.172   6.534  14.748
15643SOL    HW248827   1.024   6.533  14.778
15644SOL     OW48828   1.897   1.154   7.111
15644SOL    HW148829   1.950   1.075   7.110
15644SOL    HW248830   1.847   1.149   7.193
15645SOL     OW48831  10.545   6.233   1.846
15645SOL    HW148832  10.636   6.230   1.875
15645SOL    HW248833  10.542   6.308   1.786
15646SOL     OW48834  12.759   5.378  14.314
15646SOL    HW148835  12.829   5.397  14.377
15646SOL    HW248836  12.744   5.461  14.269
15647SOL     OW48837   2.327   6.334  11.880
15647SOL    HW148838   2.290   6.406  11.830
15647SOL    HW248839   2.390   6.293  11.821
15648SOL     OW48840   0.559  13.616   4.971
15648SOL    HW148841   0.563  13.524   4.999
15648SOL    HW248842   0.466  13.637   4.971
15649SOL     OW48843   4.702   2.982  12.432
15649SOL    HW148844   4.666   3.070  12.436
15649SOL    HW248845   4.785   2.988  12.480
15650SOL     OW48846   3.947   6.043   1.915
15650SOL    HW148847   3.970   6.072   2.003
15650SOL    HW248848   3.857   6.075   1.902
15651SOL     OW48849  11.364   8.985   2.477
15651SOL    HW148850  11.382   9.071   2.514
15651SOL    HW248851  11.348   9.002   2.384
15652SOL     OW48852   5.147  11.467  12.580
15652SOL    HW148853   5.057  11.461  12.610
15652SOL    HW248854   5.198  11.429  12.652
15653SOL     OW48855   5.745   9.969   4.335
15653SOL    HW148856   5.809  10.027   4.376
15653SOL    HW248857   5.662   9.993   4.375
15654SOL     OW48858   5.963   8.536   5.292
15654SOL    HW148859   5.899   8.552   5.222
15654SOL    HW248860   6.048   8.550   5.250
15655SOL     OW48861  10.924  12.499   8.108
15655SOL    HW148862  11.014  12.478   8.132
15655SOL    HW248863  10.871  12.436   8.157
15656SOL     OW48864  12.174  14.198   6.209
15656SOL    HW148865  12.264  14.219   6.234
15656SOL    HW248866  12.170  14.102   6.216
15657SOL     OW48867   0.850   2.944  12.915
15657SOL    HW148868   0.825   2.994  12.838
15657SOL    HW248869   0.864   2.855  12.882
15658SOL     OW48870  13.029   0.884   1.575
15658SOL    HW148871  12.940   0.907   1.603
15658SOL    HW248872  13.019   0.799   1.531
15659SOL     OW48873   8.164   0.613   0.651
15659SOL    HW148874   8.076   0.614   0.688
15659SOL    HW248875   8.216   0.563   0.714
15660SOL     OW48876   6.198  12.159  11.672
15660SOL    HW148877   6.153  12.075  11.680
15660SOL    HW248878   6.130  12.224  11.692
15661SOL     OW48879   6.639  12.554   6.097
15661SOL    HW148880   6.694  12.592   6.028
15661SOL    HW248881   6.702  12.519   6.161
15662SOL     OW48882   6.719  13.568  12.853
15662SOL    HW148883   6.738  13.493  12.798
15662SOL    HW248884   6.640  13.544  12.901
15663SOL     OW48885  14.025  10.297  14.444
15663SOL    HW148886  14.023  10.292  14.349
15663SOL    HW248887  14.074  10.219  14.471
15664SOL     OW48888   0.074   4.657   4.511
15664SOL    HW148889   0.153   4.628   4.465
15664SOL    HW248890   0.075   4.607   4.593
15665SOL     OW48891   7.818  10.196  10.415
15665SOL    HW148892   7.879  10.141  10.367
15665SOL    HW248893   7.874  10.260  10.460
15666SOL     OW48894  13.903   5.507  12.675
15666SOL    HW148895  13.872   5.559  12.602
15666SOL    HW248896  13.920   5.420  12.639
15667SOL     OW48897   8.344  14.761   4.465
15667SOL    HW148898   8.354  14.737   4.557
15667SOL    HW248899   8.338  14.856   4.465
15668SOL     OW48900   9.988  14.729   8.870
15668SOL    HW148901   9.994  14.760   8.780
15668SOL    HW248902   9.904  14.761   8.901
15669SOL     OW48903   4.846   9.395  12.119
15669SOL    HW148904   4.941   9.402  12.126
15669SOL    HW248905   4.824   9.442  12.039
15670SOL     OW48906   7.893   5.146   2.305
15670SOL    HW148907   7.841   5.072   2.336
15670SOL    HW248908   7.951   5.109   2.239
15671SOL     OW48909   7.316  10.802  11.717
15671SOL    HW148910   7.280  10.735  11.775
15671SOL    HW248911   7.405  10.774  11.700
15672SOL     OW48912   3.906   3.879  14.251
15672SOL    HW148913   3.983   3.828  14.226
15672SOL    HW248914   3.927   3.968  14.222
15673SOL     OW48915  10.480   0.622   4.964
15673SOL    HW148916  10.537   0.629   5.041
15673SOL    HW248917  10.533   0.579   4.898
15674SOL     OW48918   3.650   1.709   3.223
15674SOL    HW148919   3.621   1.752   3.143
15674SOL    HW248920   3.580   1.647   3.244
15675SOL     OW48921  12.880  11.389   4.616
15675SOL    HW148922  12.831  11.361   4.693
15675SOL    HW248923  12.879  11.484   4.619
15676SOL     OW48924  14.740   0.671   6.727
15676SOL    HW148925  14.749   0.673   6.632
15676SOL    HW248926  14.718   0.761   6.751
15677SOL     OW48927   5.467  11.908   2.566
15677SOL    HW148928   5.454  11.933   2.657
15677SOL    HW248929   5.552  11.946   2.543
15678SOL     OW48930   1.370   5.878   2.238
15678SOL    HW148931   1.307   5.886   2.167
15678SOL    HW248932   1.397   5.787   2.237
15679SOL     OW48933  12.660   1.659  14.241
15679SOL    HW148934  12.600   1.588  14.265
15679SOL    HW248935  12.729   1.656  14.308
15680SOL     OW48936  14.657   2.163   7.972
15680SOL    HW148937  14.733   2.137   7.919
15680SOL    HW248938  14.685   2.149   8.063
15681SOL     OW48939   7.551   2.474   4.405
15681SOL    HW148940   7.551   2.379   4.394
15681SOL    HW248941   7.459   2.499   4.403
15682SOL     OW48942   8.095   9.506   6.378
15682SOL    HW148943   8.034   9.436   6.354
15682SOL    HW248944   8.087   9.515   6.473
15683SOL     OW48945  12.540  14.124  13.318
15683SOL    HW148946  12.496  14.154  13.239
15683SOL    HW248947  12.504  14.036  13.334
15684SOL     OW48948   9.273   1.389   1.615
15684SOL    HW148949   9.359   1.358   1.588
15684SOL    HW248950   9.260   1.351   1.701
15685SOL     OW48951  14.287   7.717   6.816
15685SOL    HW148952  14.356   7.745   6.875
15685SOL    HW248953  14.322   7.639   6.773
15686SOL     OW48954  11.806   0.570   1.026
15686SOL    HW148955  11.721   0.607   1.050
15686SOL    HW248956  11.793   0.538   0.936
15687SOL     OW48957  10.150  12.006  13.274
15687SOL    HW148958  10.070  12.009  13.326
15687SOL    HW248959  10.208  11.948  13.322
15688SOL     OW48960   8.704  12.451   5.123
15688SOL    HW148961   8.757  12.530   5.112
15688SOL    HW248962   8.673  12.455   5.213
15689SOL     OW48963  13.271  10.178   9.254
15689SOL    HW148964  13.325  10.171   9.175
15689SOL    HW248965  13.184  10.148   9.227
15690SOL     OW48966  13.531   8.086  12.924
15690SOL    HW148967  13.576   8.066  12.842
15690SOL    HW248968  13.445   8.117  12.897
15691SOL     OW48969   9.935   6.314   1.585
15691SOL    HW148970   9.947   6.266   1.667
15691SOL    HW248971   9.885   6.392   1.610
15692SOL     OW48972   9.506   3.446   0.640
15692SOL    HW148973   9.487   3.493   0.721
15692SOL    HW248974   9.521   3.514   0.575
15693SOL     OW48975   8.166   6.633  10.072
15693SOL    HW148976   8.094   6.685  10.109
15693SOL    HW248977   8.123   6.559  10.029
15694SOL     OW48978   4.200   7.369   9.768
15694SOL    HW148979   4.171   7.448   9.722
15694SOL    HW248980   4.293   7.362   9.748
15695SOL     OW48981   7.362   0.098   3.463
15695SOL    HW148982   7.292   0.067   3.521
15695SOL    HW248983   7.372   0.029   3.397
15696SOL     OW48984   5.555  13.655  11.089
15696SOL    HW148985   5.647  13.627  11.091
15696SOL    HW248986   5.536  13.680  11.179
15697SOL     OW48987  14.325   0.882   4.197
15697SOL    HW148988  14.289   0.968   4.217
15697SOL    HW248989  14.385   0.864   4.269
15698SOL     OW48990   7.410  13.252   8.353
15698SOL    HW148991   7.491  13.299   8.374
15698SOL    HW248992   7.402  13.262   8.258
15699SOL     OW48993  14.288   5.679   9.170
15699SOL    HW148994  14.278   5.631   9.252
15699SOL    HW248995  14.214   5.650   9.116
15700SOL     OW48996  14.022   5.873   4.193
15700SOL    HW148997  14.082   5.898   4.123
15700SOL    HW248998  13.976   5.796   4.160
15701SOL     OW48999   7.249   8.776   4.069
15701SOL    HW149000   7.272   8.694   4.114
15701SOL    HW249001   7.321   8.836   4.091
15702SOL     OW49002   4.125   5.104  13.104
15702SOL    HW149003   4.091   5.014  13.106
15702SOL    HW249004   4.088   5.141  13.023
15703SOL     OW49005   2.374  13.220  14.727
15703SOL    HW149006   2.428  13.181  14.659
15703SOL    HW249007   2.423  13.297  14.756
15704SOL     OW49008   2.168  12.903   0.903
15704SOL    HW149009   2.075  12.922   0.918
15704SOL    HW249010   2.210  12.925   0.986
15705SOL     OW49011   7.307   6.584   0.420
15705SOL    HW149012   7.286   6.649   0.353
15705SOL    HW249013   7.402   6.572   0.412
15706SOL     OW49014   4.168  10.924   7.137
15706SOL    HW149015   4.239  10.989   7.144
15706SOL    HW249016   4.100  10.969   7.087
15707SOL     OW49017  10.623   2.050   8.759
15707SOL    HW149018  10.574   1.989   8.814
15707SOL    HW249019  10.590   2.136   8.784
15708SOL     OW49020   0.684   4.595   2.198
15708SOL    HW149021   0.736   4.664   2.157
15708SOL    HW249022   0.739   4.517   2.191
15709SOL     OW49023   5.203   2.127   4.782
15709SOL    HW149024   5.260   2.051   4.766
15709SOL    HW249025   5.117   2.098   4.753
15710SOL     OW49026   2.773   0.099   8.277
15710SOL    HW149027   2.846   0.085   8.338
15710SOL    HW249028   2.694   0.083   8.328
15711SOL     OW49029  10.603   1.370   5.619
15711SOL    HW149030  10.556   1.372   5.536
15711SOL    HW249031  10.682   1.319   5.601
15712SOL     OW49032   1.065  11.391   9.719
15712SOL    HW149033   1.026  11.373   9.634
15712SOL    HW249034   1.045  11.314   9.772
15713SOL     OW49035  11.089  13.074  13.510
15713SOL    HW149036  11.150  13.001  13.522
15713SOL    HW249037  11.034  13.048  13.436
15714SOL     OW49038   7.299   1.721  13.078
15714SOL    HW149039   7.207   1.700  13.066
15714SOL    HW249040   7.345   1.657  13.022
15715SOL     OW49041   8.428  12.860   2.001
15715SOL    HW149042   8.371  12.937   2.002
15715SOL    HW249043   8.517  12.896   2.006
15716SOL     OW49044   2.291  10.646   4.042
15716SOL    HW149045   2.237  10.723   4.026
15716SOL    HW249046   2.363  10.678   4.096
15717SOL     OW49047   2.943   0.718  12.193
15717SOL    HW149048   2.910   0.718  12.103
15717SOL    HW249049   2.909   0.637  12.231
15718SOL     OW49050   9.843   8.139  11.505
15718SOL    HW149051   9.883   8.052  11.498
15718SOL    HW249052   9.858   8.179  11.419
15719SOL     OW49053   3.717   1.369  11.839
15719SOL    HW149054   3.655   1.434  11.873
15719SOL    HW249055   3.663   1.312  11.784
15720SOL     OW49056   4.341   0.861   5.384
15720SOL    HW149057   4.411   0.920   5.353
15720SOL    HW249058   4.353   0.859   5.479
15721SOL     OW49059  11.538   7.988   1.841
15721SOL    HW149060  11.499   7.989   1.928
15721SOL    HW249061  11.473   7.947   1.785
15722SOL     OW49062  14.245   2.964   5.221
15722SOL    HW149063  14.173   2.939   5.163
15722SOL    HW249064  14.222   3.053   5.250
15723SOL     OW49065   5.038  11.386  13.388
15723SOL    HW149066   5.113  11.431  13.427
15723SOL    HW249067   4.969  11.453  13.384
15724SOL     OW49068  11.769  14.664   3.906
15724SOL    HW149069  11.721  14.743   3.883
15724SOL    HW249070  11.861  14.690   3.905
15725SOL     OW49071  14.170  12.163   4.652
15725SOL    HW149072  14.176  12.193   4.561
15725SOL    HW249073  14.215  12.078   4.652
15726SOL     OW49074   1.412   8.214   2.706
15726SOL    HW149075   1.479   8.169   2.758
15726SOL    HW249076   1.332   8.206   2.757
15727SOL     OW49077  10.471  12.679   6.864
15727SOL    HW149078  10.412  12.614   6.826
15727SOL    HW249079  10.531  12.629   6.919
15728SOL     OW49080   4.653  10.138   5.386
15728SOL    HW149081   4.745  10.124   5.366
15728SOL    HW249082   4.613  10.164   5.302
15729SOL     OW49083  12.272  14.362   9.581
15729SOL    HW149084  12.275  14.417   9.659
15729SOL    HW249085  12.241  14.277   9.612
15730SOL     OW49086   3.013  12.843  10.988
15730SOL    HW149087   3.059  12.831  10.905
15730SOL    HW249088   2.933  12.792  10.980
15731SOL     OW49089   9.277   5.945   9.322
15731SOL    HW149090   9.303   6.034   9.345
15731SOL    HW249091   9.270   5.899   9.406
15732SOL     OW49092  13.164   8.593   6.110
15732SOL    HW149093  13.111   8.513   6.105
15732SOL    HW249094  13.105   8.662   6.081
15733SOL     OW49095   9.770   5.449   1.769
15733SOL    HW149096   9.715   5.517   1.731
15733SOL    HW249097   9.803   5.487   1.850
15734SOL     OW49098   2.039  13.450  12.111
15734SOL    HW149099   2.061  13.543  12.117
15734SOL    HW249100   1.956  13.447  12.064
15735SOL     OW49101  11.725   2.172   5.801
15735SOL    HW149102  11.652   2.212   5.849
15735SOL    HW249103  11.795   2.237   5.804
15736SOL     OW49104  14.822   6.143  14.767
15736SOL    HW149105  14.766   6.168  14.840
15736SOL    HW249106  14.778   6.067  14.728
15737SOL     OW49107   1.911   0.694  12.324
15737SOL    HW149108   1.905   0.626  12.258
15737SOL    HW249109   1.999   0.683  12.362
15738SOL     OW49110  13.757   9.579   6.096
15738SOL    HW149111  13.758   9.491   6.060
15738SOL    HW249112  13.721   9.634   6.026
15739SOL     OW49113   3.961   5.265   2.304
15739SOL    HW149114   3.988   5.254   2.212
15739SOL    HW249115   4.030   5.222   2.354
15740SOL     OW49116  14.641   2.334  12.006
15740SOL    HW149117  14.585   2.286  11.944
15740SOL    HW249118  14.719   2.357  11.955
15741SOL     OW49119   9.221   3.714   0.498
15741SOL    HW149120   9.203   3.807   0.489
15741SOL    HW249121   9.316   3.706   0.490
15742SOL     OW49122   3.349  10.819  12.612
15742SOL    HW149123   3.264  10.778  12.627
15742SOL    HW249124   3.378  10.785  12.527
15743SOL     OW49125   1.765   5.296   1.945
15743SOL    HW149126   1.713   5.280   1.867
15743SOL    HW249127   1.838   5.350   1.915
15744SOL     OW49128  14.541   8.854   8.604
15744SOL    HW149129  14.632   8.884   8.607
15744SOL    HW249130  14.547   8.761   8.581
15745SOL     OW49131   4.362  13.870  10.727
15745SOL    HW149132   4.295  13.849  10.792
15745SOL    HW249133   4.387  13.785  10.690
15746SOL     OW49134   1.942   6.262   7.864
15746SOL    HW149135   2.031   6.268   7.899
15746SOL    HW249136   1.954   6.228   7.775
15747SOL     OW49137   2.431   8.259  14.757
15747SOL    HW149138   2.491   8.280  14.829
15747SOL    HW249139   2.487   8.255  14.680
15748SOL     OW49140   1.140   0.997   5.865
15748SOL    HW149141   1.169   0.925   5.810
15748SOL    HW249142   1.217   1.055   5.871
15749SOL     OW49143   5.462   5.069   5.052
15749SOL    HW149144   5.390   5.007   5.061
15749SOL    HW249145   5.424   5.153   5.076
15750SOL     OW49146   5.255  14.217   7.133
15750SOL    HW149147   5.320  14.170   7.185
15750SOL    HW249148   5.302  14.246   7.055
15751SOL     OW49149   5.852   6.857   6.246
15751SOL    HW149150   5.858   6.950   6.223
15751SOL    HW249151   5.878   6.853   6.338
15752SOL     OW49152   0.765  10.692  13.363
15752SOL    HW149153   0.796  10.760  13.423
15752SOL    HW249154   0.832  10.624  13.367
15753SOL     OW49155   5.147   2.057  13.328
15753SOL    HW149156   5.114   2.078  13.415
15753SOL    HW249157   5.233   2.017  13.344
15754SOL     OW49158   9.808   9.229   3.757
15754SOL    HW149159   9.753   9.150   3.758
15754SOL    HW249160   9.807   9.257   3.665
15755SOL     OW49161   8.714   1.342  11.908
15755SOL    HW149162   8.670   1.425  11.926
15755SOL    HW249163   8.761   1.357  11.826
15756SOL     OW49164  14.046  10.656  14.294
15756SOL    HW149165  13.988  10.630  14.223
15756SOL    HW249166  14.039  10.584  14.358
15757SOL     OW49167  14.139   6.405  10.067
15757SOL    HW149168  14.177   6.474  10.013
15757SOL    HW249169  14.175   6.324  10.031
15758SOL     OW49170   2.375   3.407  12.237
15758SOL    HW149171   2.423   3.423  12.156
15758SOL    HW249172   2.328   3.325  12.222
15759SOL     OW49173  10.678   9.190   6.901
15759SOL    HW149174  10.693   9.271   6.949
15759SOL    HW249175  10.604   9.209   6.843
15760SOL     OW49176   7.091   2.169  14.344
15760SOL    HW149177   7.136   2.180  14.260
15760SOL    HW249178   7.069   2.257  14.372
15761SOL     OW49179   9.340   8.616  13.500
15761SOL    HW149180   9.351   8.569  13.417
15761SOL    HW249181   9.416   8.674  13.504
15762SOL     OW49182   9.997   3.327   5.598
15762SOL    HW149183   9.967   3.327   5.688
15762SOL    HW249184  10.088   3.300   5.603
15763SOL     OW49185  13.462   2.824  12.569
15763SOL    HW149186  13.387   2.858  12.618
15763SOL    HW249187  13.479   2.889  12.502
15764SOL     OW49188   9.450   7.061  13.083
15764SOL    HW149189   9.389   7.124  13.121
15764SOL    HW249190   9.527   7.113  13.060
15765SOL     OW49191   0.788  11.011   3.910
15765SOL    HW149192   0.813  10.920   3.927
15765SOL    HW249193   0.822  11.060   3.984
15766SOL     OW49194   8.862  11.775  14.771
15766SOL    HW149195   8.949  11.794  14.736
15766SOL    HW249196   8.831  11.701  14.719
15767SOL     OW49197  11.366   8.377  11.056
15767SOL    HW149198  11.352   8.390  10.963
15767SOL    HW249199  11.455   8.341  11.062
15768SOL     OW49200   2.533   5.900   3.790
15768SOL    HW149201   2.484   5.982   3.781
15768SOL    HW249202   2.533   5.883   3.884
15769SOL     OW49203   0.292  12.894  13.796
15769SOL    HW149204   0.342  12.945  13.860
15769SOL    HW249205   0.254  12.960  13.738
15770SOL     OW49206  13.482   8.174  13.253
15770SOL    HW149207  13.431   8.230  13.194
15770SOL    HW249208  13.420   8.109  13.285
15771SOL     OW49209   8.070   6.185  11.798
15771SOL    HW149210   8.133   6.117  11.822
15771SOL    HW249211   8.015   6.197  11.876
15772SOL     OW49212   1.317  14.801   8.780
15772SOL    HW149213   1.397  14.854   8.775
15772SOL    HW249214   1.263  14.846   8.845
15773SOL     OW49215   3.459   9.930   3.901
15773SOL    HW149216   3.492   9.995   3.839
15773SOL    HW249217   3.506   9.949   3.982
15774SOL     OW49218   5.625   1.667  13.703
15774SOL    HW149219   5.584   1.670  13.789
15774SOL    HW249220   5.552   1.670  13.641
15775SOL     OW49221  13.560  11.375   9.878
15775SOL    HW149222  13.505  11.453   9.867
15775SOL    HW249223  13.549  11.326   9.797
15776SOL     OW49224   7.735   0.988   1.351
15776SOL    HW149225   7.765   1.021   1.436
15776SOL    HW249226   7.763   1.055   1.288
15777SOL     OW49227   6.788  14.806   8.990
15777SOL    HW149228   6.780  14.861   9.068
15777SOL    HW249229   6.783  14.717   9.023
15778SOL     OW49230  10.434   0.956   2.436
15778SOL    HW149231  10.522   0.980   2.465
15778SOL    HW249232  10.426   0.863   2.457
15779SOL     OW49233   1.266   0.184   9.187
15779SOL    HW149234   1.254   0.279   9.193
15779SOL    HW249235   1.180   0.147   9.208
15780SOL     OW49236   9.266   9.096   9.779
15780SOL    HW149237   9.231   9.029   9.838
15780SOL    HW249238   9.351   9.119   9.815
15781SOL     OW49239   2.973  13.091   1.138
15781SOL    HW149240   3.069  13.081   1.140
15781SOL    HW249241   2.954  13.123   1.050
15782SOL     OW49242   1.981   0.622   6.527
15782SOL    HW149243   2.067   0.605   6.488
15782SOL    HW249244   1.980   0.716   6.544
15783SOL     OW49245  11.848  14.495   2.348
15783SOL    HW149246  11.838  14.401   2.364
15783SOL    HW249247  11.763  14.524   2.314
15784SOL     OW49248  13.470   9.220   6.797
15784SOL    HW149249  13.439   9.293   6.743
15784SOL    HW249250  13.402   9.153   6.788
15785SOL     OW49251   5.896   7.026   4.603
15785SOL    HW149252   5.869   7.027   4.511
15785SOL    HW249253   5.814   7.021   4.652
15786SOL     OW49254   8.759  11.429   8.667
15786SOL    HW149255   8.724  11.426   8.756
15786SOL    HW249256   8.724  11.350   8.625
15787SOL     OW49257   9.124  12.498   2.185
15787SOL    HW149258   9.072  12.490   2.105
15787SOL    HW249259   9.105  12.587   2.216
15788SOL     OW49260   0.013   5.923  11.861
15788SOL    HW149261  14.860   6.008  11.886
15788SOL    HW249262  14.819   5.868  11.846
15789SOL     OW49263   1.669   1.542   8.631
15789SOL    HW149264   1.707   1.628   8.646
15789SOL    HW249265   1.611   1.554   8.556
15790SOL     OW49266   9.469   4.563   5.828
15790SOL    HW149267   9.543   4.504   5.816
15790SOL    HW249268   9.481   4.631   5.761
15791SOL     OW49269   3.648  12.561  11.805
15791SOL    HW149270   3.659  12.553  11.900
15791SOL    HW249271   3.555  12.582  11.794
15792SOL     OW49272  13.632  13.037  13.792
15792SOL    HW149273  13.685  13.108  13.757
15792SOL    HW249274  13.550  13.079  13.819
15793SOL     OW49275   5.851   1.598   4.615
15793SOL    HW149276   5.824   1.579   4.525
15793SOL    HW249277   5.943   1.574   4.617
15794SOL     OW49278   7.905   8.537   0.292
15794SOL    HW149279   7.833   8.551   0.231
15794SOL    HW249280   7.981   8.522   0.235
15795SOL     OW49281   3.028   6.626  11.529
15795SOL    HW149282   3.100   6.687  11.514
15795SOL    HW249283   2.999   6.601  11.441
15796SOL     OW49284  10.847   0.746  10.404
15796SOL    HW149285  10.940   0.765  10.417
15796SOL    HW249286  10.826   0.788  10.321
15797SOL     OW49287   5.052   1.812  12.852
15797SOL    HW149288   5.042   1.865  12.931
15797SOL    HW249289   4.986   1.743  12.860
15798SOL     OW49290   0.351  14.400   2.902
15798SOL    HW149291   0.355  14.452   2.822
15798SOL    HW249292   0.260  14.408   2.931
15799SOL     OW49293   3.600   9.735  11.167
15799SOL    HW149294   3.586   9.739  11.262
15799SOL    HW249295   3.571   9.647  11.142
15800SOL     OW49296   0.474   2.570   3.738
15800SOL    HW149297   0.473   2.662   3.763
15800SOL    HW249298   0.384   2.540   3.752
15801SOL     OW49299   4.348   3.190   0.273
15801SOL    HW149300   4.385   3.263   0.324
15801SOL    HW249301   4.368   3.113   0.325
15802SOL     OW49302  13.509   5.080  10.233
15802SOL    HW149303  13.576   5.056  10.169
15802SOL    HW249304  13.498   5.175  10.221
15803SOL     OW49305  13.196   1.647   2.925
15803SOL    HW149306  13.170   1.559   2.901
15803SOL    HW249307  13.137   1.672   2.996
15804SOL     OW49308   4.296  10.722   4.872
15804SOL    HW149309   4.272  10.629   4.874
15804SOL    HW249310   4.391  10.723   4.880
15805SOL     OW49311   0.308  12.907   2.831
15805SOL    HW149312   0.224  12.914   2.877
15805SOL    HW249313   0.347  12.826   2.865
15806SOL     OW49314   6.576   1.975   5.859
15806SOL    HW149315   6.511   2.041   5.885
15806SOL    HW249316   6.659   2.009   5.892
15807SOL     OW49317   5.565   9.970  14.849
15807SOL    HW149318   5.477   9.933  14.856
15807SOL    HW249319   5.617   9.902  14.806
15808SOL     OW49320   8.295   5.306   7.554
15808SOL    HW149321   8.202   5.320   7.537
15808SOL    HW249322   8.339   5.333   7.474
15809SOL     OW49323   8.717  14.880   0.315
15809SOL    HW149324   8.685   0.044   0.238
15809SOL    HW249325   8.806  14.852   0.291
15810SOL     OW49326   3.023   9.667   6.183
15810SOL    HW149327   3.078   9.628   6.251
15810SOL    HW249328   2.995   9.750   6.220
15811SOL     OW49329   8.395   6.463   1.137
15811SOL    HW149330   8.480   6.506   1.141
15811SOL    HW249331   8.333   6.531   1.165
15812SOL     OW49332   2.035   5.281   9.436
15812SOL    HW149333   2.012   5.369   9.465
15812SOL    HW249334   1.957   5.228   9.454
15813SOL     OW49335  11.296   4.730  13.223
15813SOL    HW149336  11.244   4.810  13.223
15813SOL    HW249337  11.287   4.695  13.135
15814SOL     OW49338   0.972   0.505  13.217
15814SOL    HW149339   0.975   0.421  13.264
15814SOL    HW249340   0.904   0.555  13.262
15815SOL     OW49341   0.129   6.186  10.666
15815SOL    HW149342   0.061   6.253  10.659
15815SOL    HW249343   0.105   6.120  10.601
15816SOL     OW49344   0.004   7.225   8.796
15816SOL    HW149345   0.046   7.244   8.712
15816SOL    HW249346  14.816   7.164   8.774
15817SOL     OW49347  12.965   2.140  10.500
15817SOL    HW149348  13.028   2.108  10.565
15817SOL    HW249349  12.962   2.235  10.514
15818SOL     OW49350   9.010  13.144   5.549
15818SOL    HW149351   8.993  13.233   5.579
15818SOL    HW249352   9.106  13.138   5.541
15819SOL     OW49353   5.757   0.882  11.611
15819SOL    HW149354   5.788   0.830  11.537
15819SOL    HW249355   5.733   0.967  11.573
15820SOL     OW49356  12.165   4.384  11.646
15820SOL    HW149357  12.255   4.389  11.611
15820SOL    HW249358  12.172   4.328  11.723
15821SOL     OW49359   6.563  14.822   7.653
15821SOL    HW149360   6.625   0.008   7.624
15821SOL    HW249361   6.482  14.870   7.670
15822SOL     OW49362   3.330  11.148  14.588
15822SOL    HW149363   3.296  11.098  14.514
15822SOL    HW249364   3.260  11.211  14.608
15823SOL     OW49365  10.926   1.615   9.791
15823SOL    HW149366  10.904   1.560   9.715
15823SOL    HW249367  10.893   1.566   9.866
15824SOL     OW49368   7.354   4.505   8.158
15824SOL    HW149369   7.259   4.498   8.150
15824SOL    HW249370   7.369   4.532   8.248
15825SOL     OW49371  14.334   6.010   0.955
15825SOL    HW149372  14.283   5.996   0.875
15825SOL    HW249373  14.269   6.028   1.023
15826SOL     OW49374   8.758   3.351  11.206
15826SOL    HW149375   8.736   3.323  11.295
15826SOL    HW249376   8.681   3.326  11.154
15827SOL     OW49377   7.592   7.893   6.172
15827SOL    HW149378   7.554   7.968   6.217
15827SOL    HW249379   7.543   7.886   6.090
15828SOL     OW49380   5.197  10.907  10.055
15828SOL    HW149381   5.249  10.934  10.131
15828SOL    HW249382   5.254  10.923   9.980
15829SOL     OW49383  14.421  12.034   1.374
15829SOL    HW149384  14.486  12.102   1.389
15829SOL    HW249385  14.368  12.067   1.302
15830SOL     OW49386   6.578   6.365   3.588
15830SOL    HW149387   6.487   6.348   3.562
15830SOL    HW249388   6.588   6.317   3.671
15831SOL     OW49389  13.467   0.324   8.078
15831SOL    HW149390  13.408   0.330   8.153
15831SOL    HW249391  13.552   0.354   8.111
15832SOL     OW49392   1.188   3.176  12.551
15832SOL    HW149393   1.272   3.210  12.519
15832SOL    HW249394   1.167   3.230  12.627
15833SOL     OW49395  11.077   1.973  10.281
15833SOL    HW149396  11.036   2.056  10.258
15833SOL    HW249397  11.110   1.986  10.370
15834SOL     OW49398   0.615   5.923   1.172
15834SOL    HW149399   0.592   5.997   1.229
15834SOL    HW249400   0.618   5.848   1.231
15835SOL     OW49401   2.255   9.215   2.163
15835SOL    HW149402   2.300   9.231   2.080
15835SOL    HW249403   2.169   9.182   2.137
15836SOL     OW49404   2.234   5.149  10.613
15836SOL    HW149405   2.147   5.133  10.649
15836SOL    HW249406   2.219   5.205  10.537
15837SOL     OW49407  13.206   7.946   1.219
15837SOL    HW149408  13.232   7.858   1.243
15837SOL    HW249409  13.221   7.999   1.298
15838SOL     OW49410  11.759   5.612  12.321
15838SOL    HW149411  11.729   5.671  12.390
15838SOL    HW249412  11.801   5.670  12.257
15839SOL     OW49413  12.009  11.453   8.531
15839SOL    HW149414  12.021  11.543   8.563
15839SOL    HW249415  12.098  11.422   8.513
15840SOL     OW49416   6.728   1.312   8.451
15840SOL    HW149417   6.654   1.301   8.510
15840SOL    HW249418   6.746   1.406   8.451
15841SOL     OW49419   7.692   2.004   5.164
15841SOL    HW149420   7.621   2.014   5.227
15841SOL    HW249421   7.771   2.005   5.218
15842SOL     OW49422   7.358   5.119  10.670
15842SOL    HW149423   7.440   5.167  10.679
15842SOL    HW249424   7.383   5.035  10.630
15843SOL     OW49425   4.301   5.625   8.793
15843SOL    HW149426   4.389   5.641   8.759
15843SOL    HW249427   4.303   5.534   8.822
15844SOL     OW49428   6.045   8.924   7.015
15844SOL    HW149429   6.009   9.013   7.018
15844SOL    HW249430   6.003   8.879   7.088
15845SOL     OW49431   7.161  12.553   9.211
15845SOL    HW149432   7.107  12.484   9.173
15845SOL    HW249433   7.126  12.565   9.300
15846SOL     OW49434   5.261  12.549   9.552
15846SOL    HW149435   5.267  12.613   9.623
15846SOL    HW249436   5.248  12.602   9.473
15847SOL     OW49437  10.574   2.380   3.568
15847SOL    HW149438  10.486   2.340   3.568
15847SOL    HW249439  10.560   2.470   3.538
15848SOL     OW49440   5.838  13.948   3.709
15848SOL    HW149441   5.889  13.923   3.787
15848SOL    HW249442   5.871  14.034   3.686
15849SOL     OW49443   5.380   1.279  10.057
15849SOL    HW149444   5.436   1.203  10.042
15849SOL    HW249445   5.320   1.279   9.981
15850SOL     OW49446   9.110  13.511  14.780
15850SOL    HW149447   9.025  13.467  14.773
15850SOL    HW249448   9.165  13.466  14.716
15851SOL     OW49449   2.350   0.357  11.134
15851SOL    HW149450   2.297   0.287  11.173
15851SOL    HW249451   2.437   0.318  11.125
15852SOL     OW49452  14.142  12.649   1.318
15852SOL    HW149453  14.151  12.558   1.292
15852SOL    HW249454  14.230  12.686   1.308
15853SOL     OW49455  12.036   1.392   5.076
15853SOL    HW149456  12.021   1.451   5.150
15853SOL    HW249457  12.123   1.416   5.044
15854SOL     OW49458  14.428   7.530   2.571
15854SOL    HW149459  14.484   7.581   2.513
15854SOL    HW249460  14.389   7.595   2.630
15855SOL     OW49461  11.817   4.347   7.900
15855SOL    HW149462  11.882   4.284   7.869
15855SOL    HW249463  11.863   4.396   7.969
15856SOL     OW49464  14.840  12.119  14.468
15856SOL    HW149465   0.003  12.203  14.457
15856SOL    HW249466   0.027  12.056  14.488
15857SOL     OW49467  11.943   9.539  11.909
15857SOL    HW149468  11.996   9.480  11.963
15857SOL    HW249469  11.887   9.585  11.971
15858SOL     OW49470   4.707   0.767   8.427
15858SOL    HW149471   4.682   0.685   8.385
15858SOL    HW249472   4.802   0.772   8.416
15859SOL     OW49473   2.461   1.832  13.199
15859SOL    HW149474   2.474   1.925  13.216
15859SOL    HW249475   2.370   1.816  13.225
15860SOL     OW49476   4.977   0.350  11.090
15860SOL    HW149477   5.073   0.348  11.084
15860SOL    HW249478   4.952   0.262  11.118
15861SOL     OW49479   4.120   2.875   7.656
15861SOL    HW149480   4.037   2.907   7.689
15861SOL    HW249481   4.103   2.785   7.628
15862SOL     OW49482  10.737  11.537  14.327
15862SOL    HW149483  10.826  11.542  14.292
15862SOL    HW249484  10.717  11.444  14.326
15863SOL     OW49485   2.011  13.101  14.289
15863SOL    HW149486   2.036  13.057  14.371
15863SOL    HW249487   2.036  13.040  14.220
15864SOL     OW49488   3.588   8.828  13.196
15864SOL    HW149489   3.549   8.914  13.182
15864SOL    HW249490   3.571   8.808  13.288
15865SOL     OW49491   9.322  14.782   7.339
15865SOL    HW149492   9.321  14.872   7.304
15865SOL    HW249493   9.235  14.748   7.320
15866SOL     OW49494   5.975  10.194  10.465
15866SOL    HW149495   5.938  10.217  10.550
15866SOL    HW249496   5.960  10.272  10.411
15867SOL     OW49497   0.655   8.722  12.052
15867SOL    HW149498   0.725   8.782  12.077
15867SOL    HW249499   0.585   8.779  12.019
15868SOL     OW49500   8.324   4.680   9.663
15868SOL    HW149501   8.296   4.709   9.749
15868SOL    HW249502   8.244   4.652   9.619
15869SOL     OW49503  11.726  13.229  11.572
15869SOL    HW149504  11.762  13.173  11.503
15869SOL    HW249505  11.728  13.175  11.650
15870SOL     OW49506  10.792   7.546  14.428
15870SOL    HW149507  10.704   7.509  14.418
15870SOL    HW249508  10.824   7.557  14.339
15871SOL     OW49509   5.779  13.365  11.061
15871SOL    HW149510   5.710  13.378  11.125
15871SOL    HW249511   5.842  13.308  11.105
15872SOL     OW49512   7.272  13.478   6.412
15872SOL    HW149513   7.295  13.503   6.502
15872SOL    HW249514   7.305  13.388   6.403
15873SOL     OW49515  10.247  13.811  10.065
15873SOL    HW149516  10.304  13.752  10.114
15873SOL    HW249517  10.182  13.840  10.128
15874SOL     OW49518   2.398  11.605  13.098
15874SOL    HW149519   2.360  11.693  13.096
15874SOL    HW249520   2.453  11.600  13.020
15875SOL     OW49521   0.543   5.063   3.309
15875SOL    HW149522   0.527   4.996   3.242
15875SOL    HW249523   0.604   5.022   3.370
15876SOL     OW49524   7.852   8.805  10.645
15876SOL    HW149525   7.869   8.899  10.650
15876SOL    HW249526   7.919   8.771  10.586
15877SOL     OW49527   4.831   7.264   3.259
15877SOL    HW149528   4.866   7.277   3.347
15877SOL    HW249529   4.756   7.323   3.253
15878SOL     OW49530  11.777  11.786  11.949
15878SOL    HW149531  11.720  11.710  11.951
15878SOL    HW249532  11.839  11.772  12.021
15879SOL     OW49533   0.583   5.014  11.272
15879SOL    HW149534   0.557   5.103  11.296
15879SOL    HW249535   0.595   5.017  11.177
15880SOL     OW49536   6.435   1.481   5.835
15880SOL    HW149537   6.496   1.453   5.904
15880SOL    HW249538   6.437   1.577   5.839
15881SOL     OW49539   2.163   9.666  11.266
15881SOL    HW149540   2.075   9.702  11.275
15881SOL    HW249541   2.188   9.638  11.354
15882SOL     OW49542   4.162  10.475   1.202
15882SOL    HW149543   4.245  10.464   1.156
15882SOL    HW249544   4.108  10.526   1.142
15883SOL     OW49545  13.303   6.166  10.750
15883SOL    HW149546  13.395   6.141  10.747
15883SOL    HW249547  13.280   6.159  10.843
15884SOL     OW49548   4.226   7.182   2.810
15884SOL    HW149549   4.206   7.270   2.841
15884SOL    HW249550   4.141   7.137   2.812
15885SOL     OW49551   2.053   6.785   8.464
15885SOL    HW149552   2.140   6.752   8.443
15885SOL    HW249553   2.051   6.873   8.427
15886SOL     OW49554  11.029  10.800   9.580
15886SOL    HW149555  11.011  10.841   9.496
15886SOL    HW249556  11.039  10.874   9.641
15887SOL     OW49557   0.912  13.157  13.430
15887SOL    HW149558   0.831  13.112  13.454
15887SOL    HW249559   0.970  13.088  13.400
15888SOL     OW49560   9.540   6.511   6.515
15888SOL    HW149561   9.622   6.476   6.480
15888SOL    HW249562   9.473   6.451   6.480
15889SOL     OW49563   5.321   0.779   9.148
15889SOL    HW149564   5.375   0.708   9.183
15889SOL    HW249565   5.309   0.839   9.221
15890SOL     OW49566   4.803  14.702  14.577
15890SOL    HW149567   4.870  14.638  14.602
15890SOL    HW249568   4.721  14.662  14.604
15891SOL     OW49569  14.688   3.025   9.994
15891SOL    HW149570  14.670   3.042  10.086
15891SOL    HW249571  14.606   2.987   9.960
15892SOL     OW49572   1.044  12.187   8.897
15892SOL    HW149573   0.951  12.173   8.882
15892SOL    HW249574   1.086  12.161   8.815
15893SOL     OW49575   1.697   6.034   5.947
15893SOL    HW149576   1.612   5.996   5.927
15893SOL    HW249577   1.712   6.011   6.039
15894SOL     OW49578   9.532  10.578  11.349
15894SOL    HW149579   9.587  10.596  11.272
15894SOL    HW249580   9.530  10.661  11.397
15895SOL     OW49581   5.937  13.491   7.398
15895SOL    HW149582   5.957  13.525   7.485
15895SOL    HW249583   5.848  13.521   7.380
15896SOL     OW49584   3.971  12.266   4.223
15896SOL    HW149585   3.973  12.299   4.313
15896SOL    HW249586   4.024  12.328   4.173
15897SOL     OW49587   7.569   6.126  10.155
15897SOL    HW149588   7.596   6.169  10.237
15897SOL    HW249589   7.479   6.155  10.142
15898SOL     OW49590   5.132  12.550  13.331
15898SOL    HW149591   5.065  12.535  13.265
15898SOL    HW249592   5.202  12.489  13.308
15899SOL     OW49593  14.787   9.146   9.743
15899SOL    HW149594  14.700   9.154   9.706
15899SOL    HW249595  14.841   9.114   9.671
15900SOL     OW49596   5.271  13.378   5.152
15900SOL    HW149597   5.342  13.442   5.154
15900SOL    HW249598   5.236  13.384   5.063
15901SOL     OW49599   7.270  12.003   8.798
15901SOL    HW149600   7.305  12.073   8.854
15901SOL    HW249601   7.281  11.924   8.850
15902SOL     OW49602   8.254   8.068  11.875
15902SOL    HW149603   8.334   8.115  11.851
15902SOL    HW249604   8.252   7.992  11.816
15903SOL     OW49605  10.328  14.485  12.052
15903SOL    HW149606  10.423  14.475  12.058
15903SOL    HW249607  10.315  14.539  11.974
15904SOL     OW49608  12.941  14.014  13.643
15904SOL    HW149609  13.013  14.029  13.705
15904SOL    HW249610  12.865  14.053  13.686
15905SOL     OW49611  10.436  13.723   6.757
15905SOL    HW149612  10.524  13.730   6.719
15905SOL    HW249613  10.417  13.630   6.759
15906SOL     OW49614   1.452   1.143   1.803
15906SOL    HW149615   1.444   1.067   1.859
15906SOL    HW249616   1.380   1.200   1.828
15907SOL     OW49617  10.290   5.592   1.994
15907SOL    HW149618  10.319   5.648   1.922
15907SOL    HW249619  10.260   5.512   1.951
15908SOL     OW49620   1.222   7.535   5.164
15908SOL    HW149621   1.250   7.593   5.093
15908SOL    HW249622   1.243   7.447   5.133
15909SOL     OW49623   1.797   8.888   9.697
15909SOL    HW149624   1.774   8.892   9.790
15909SOL    HW249625   1.757   8.966   9.659
15910SOL     OW49626   3.530   8.457  13.835
15910SOL    HW149627   3.546   8.474  13.928
15910SOL    HW249628   3.435   8.449  13.828
15911SOL     OW49629   1.606  12.972  13.819
15911SOL    HW149630   1.634  13.032  13.749
15911SOL    HW249631   1.688  12.937  13.854
15912SOL     OW49632   3.779   6.608   5.092
15912SOL    HW149633   3.750   6.581   5.179
15912SOL    HW249634   3.699   6.639   5.049
15913SOL     OW49635  14.706  13.666  12.208
15913SOL    HW149636  14.654  13.717  12.147
15913SOL    HW249637  14.795  13.700  12.200
15914SOL     OW49638   0.987   6.281  13.673
15914SOL    HW149639   0.920   6.350  13.667
15914SOL    HW249640   0.977   6.232  13.592
15915SOL     OW49641   7.364  13.815   5.355
15915SOL    HW149642   7.368  13.840   5.263
15915SOL    HW249643   7.377  13.720   5.355
15916SOL     OW49644  13.526   0.787  10.954
15916SOL    HW149645  13.538   0.792  10.859
15916SOL    HW249646  13.607   0.822  10.991
15917SOL     OW49647   6.079  12.298  11.003
15917SOL    HW149648   6.099  12.391  11.013
15917SOL    HW249649   6.147  12.265  10.945
15918SOL     OW49650  12.530  10.336   0.434
15918SOL    HW149651  12.524  10.251   0.390
15918SOL    HW249652  12.568  10.316   0.519
15919SOL     OW49653  14.635   8.384   0.682
15919SOL    HW149654  14.549   8.366   0.720
15919SOL    HW249655  14.671   8.298   0.660
15920SOL     OW49656   0.679   7.935   9.796
15920SOL    HW149657   0.643   8.007   9.744
15920SOL    HW249658   0.745   7.976   9.852
15921SOL     OW49659   9.164  12.119   0.284
15921SOL    HW149660   9.170  12.084   0.373
15921SOL    HW249661   9.254  12.122   0.253
15922SOL     OW49662   7.999   9.233  13.199
15922SOL    HW149663   8.080   9.184  13.215
15922SOL    HW249664   8.023   9.325  13.210
15923SOL     OW49665  12.685   6.590   1.359
15923SOL    HW149666  12.767   6.548   1.385
15923SOL    HW249667  12.620   6.519   1.365
15924SOL     OW49668  14.248  10.372   6.257
15924SOL    HW149669  14.235  10.371   6.352
15924SOL    HW249670  14.336  10.336   6.245
15925SOL     OW49671  11.186   1.348  12.560
15925SOL    HW149672  11.100   1.354  12.520
15925SOL    HW249673  11.191   1.259  12.595
15926SOL     OW49674   3.172  13.359   2.272
15926SOL    HW149675   3.079  13.343   2.255
15926SOL    HW249676   3.213  13.354   2.186
15927SOL     OW49677   7.586   6.156   6.568
15927SOL    HW149678   7.513   6.205   6.607
15927SOL    HW249679   7.560   6.141   6.477
15928SOL     OW49680   0.949   9.703   2.839
15928SOL    HW149681   0.961   9.658   2.923
15928SOL    HW249682   0.946   9.632   2.775
15929SOL     OW49683   0.695  10.328   4.018
15929SOL    HW149684   0.707  10.375   4.101
15929SOL    HW249685   0.607  10.292   4.024
15930SOL     OW49686   8.375   5.754   6.873
15930SOL    HW149687   8.406   5.706   6.950
15930SOL    HW249688   8.325   5.689   6.824
15931SOL     OW49689  14.081  10.241   4.154
15931SOL    HW149690  14.025  10.297   4.101
15931SOL    HW249691  14.035  10.231   4.237
15932SOL     OW49692  12.742   1.136   6.189
15932SOL    HW149693  12.717   1.098   6.273
15932SOL    HW249694  12.665   1.185   6.161
15933SOL     OW49695   1.928   2.365  10.781
15933SOL    HW149696   1.835   2.357  10.761
15933SOL    HW249697   1.937   2.323  10.867
15934SOL     OW49698  11.899   9.875   9.353
15934SOL    HW149699  11.808   9.848   9.343
15934SOL    HW249700  11.900   9.967   9.325
15935SOL     OW49701   6.264   5.719   9.686
15935SOL    HW149702   6.236   5.722   9.778
15935SOL    HW249703   6.279   5.810   9.662
15936SOL     OW49704   2.563   3.707  10.178
15936SOL    HW149705   2.548   3.623  10.219
15936SOL    HW249706   2.504   3.768  10.224
15937SOL     OW49707   1.737  14.498   8.805
15937SOL    HW149708   1.736  14.559   8.878
15937SOL    HW249709   1.713  14.551   8.729
15938SOL     OW49710   2.118   6.631   0.540
15938SOL    HW149711   2.196   6.677   0.509
15938SOL    HW249712   2.116   6.550   0.489
15939SOL     OW49713  12.109   8.630   6.000
15939SOL    HW149714  12.035   8.650   6.057
15939SOL    HW249715  12.125   8.711   5.951
15940SOL     OW49716  14.333   0.223   4.873
15940SOL    HW149717  14.238   0.234   4.876
15940SOL    HW249718  14.364   0.253   4.959
15941SOL     OW49719  12.504   6.915  10.074
15941SOL    HW149720  12.531   6.825  10.055
15941SOL    HW249721  12.521   6.963   9.993
15942SOL     OW49722   1.263   9.501  12.373
15942SOL    HW149723   1.317   9.532  12.300
15942SOL    HW249724   1.313   9.524  12.451
15943SOL     OW49725   9.896  10.172  12.981
15943SOL    HW149726   9.985  10.162  12.947
15943SOL    HW249727   9.854  10.236  12.923
15944SOL     OW49728  10.970  10.554  10.636
15944SOL    HW149729  10.911  10.625  10.612
15944SOL    HW249730  10.978  10.561  10.731
15945SOL     OW49731  13.694  11.709   3.070
15945SOL    HW149732  13.599  11.713   3.081
15945SOL    HW249733  13.723  11.799   3.083
15946SOL     OW49734   8.807   0.233   4.194
15946SOL    HW149735   8.887   0.236   4.140
15946SOL    HW249736   8.765   0.150   4.168
15947SOL     OW49737  11.663   9.966  13.076
15947SOL    HW149738  11.571   9.944  13.066
15947SOL    HW249739  11.708   9.881  13.075
15948SOL     OW49740   4.326   8.336   1.022
15948SOL    HW149741   4.300   8.247   1.000
15948SOL    HW249742   4.288   8.351   1.109
15949SOL     OW49743   3.326   1.200  12.051
15949SOL    HW149744   3.250   1.153  12.085
15949SOL    HW249745   3.308   1.292  12.068
15950SOL     OW49746   0.778   2.868   9.563
15950SOL    HW149747   0.728   2.939   9.603
15950SOL    HW249748   0.869   2.899   9.563
15951SOL     OW49749   2.135  13.345  10.522
15951SOL    HW149750   2.072  13.280  10.491
15951SOL    HW249751   2.164  13.390  10.443
15952SOL     OW49752   6.146   0.285  10.033
15952SOL    HW149753   6.215   0.253  10.091
15952SOL    HW249754   6.100   0.205  10.005
15953SOL     OW49755   6.522  12.105   5.112
15953SOL    HW149756   6.437  12.061   5.109
15953SOL    HW249757   6.555  12.087   5.200
15954SOL     OW49758   0.415   2.920  10.177
15954SOL    HW149759   0.498   2.887  10.212
15954SOL    HW249760   0.376   2.845  10.132
15955SOL     OW49761   0.580  12.372   2.314
15955SOL    HW149762   0.547  12.353   2.226
15955SOL    HW249763   0.502  12.398   2.363
15956SOL     OW49764   0.489   1.033   9.770
15956SOL    HW149765   0.445   1.079   9.699
15956SOL    HW249766   0.437   1.052   9.848
15957SOL     OW49767   1.557   3.376   4.476
15957SOL    HW149768   1.533   3.295   4.521
15957SOL    HW249769   1.632   3.352   4.422
15958SOL     OW49770   2.236   9.312  11.309
15958SOL    HW149771   2.291   9.388  11.293
15958SOL    HW249772   2.181   9.305  11.231
15959SOL     OW49773  10.025   8.326  12.578
15959SOL    HW149774  10.052   8.375  12.500
15959SOL    HW249775   9.958   8.381  12.619
15960SOL     OW49776   3.948   8.859   9.164
15960SOL    HW149777   3.966   8.826   9.076
15960SOL    HW249778   3.898   8.940   9.150
15961SOL     OW49779  11.389   3.679  13.246
15961SOL    HW149780  11.395   3.761  13.294
15961SOL    HW249781  11.453   3.689  13.175
15962SOL     OW49782  14.653  14.498   1.690
15962SOL    HW149783  14.709  14.485   1.766
15962SOL    HW249784  14.606  14.579   1.708
15963SOL     OW49785   9.427   6.040   2.790
15963SOL    HW149786   9.419   6.088   2.707
15963SOL    HW249787   9.514   6.062   2.823
15964SOL     OW49788  10.958   9.768  10.595
15964SOL    HW149789  10.876   9.722  10.576
15964SOL    HW249790  11.026   9.714  10.554
15965SOL     OW49791   7.190   6.630   5.349
15965SOL    HW149792   7.142   6.681   5.415
15965SOL    HW249793   7.214   6.694   5.282
15966SOL     OW49794   0.758   4.164   4.184
15966SOL    HW149795   0.806   4.213   4.118
15966SOL    HW249796   0.777   4.209   4.266
15967SOL     OW49797   5.723   4.562   8.380
15967SOL    HW149798   5.783   4.591   8.450
15967SOL    HW249799   5.780   4.543   8.306
15968SOL     OW49800   2.119   6.708   2.061
15968SOL    HW149801   2.152   6.645   2.125
15968SOL    HW249802   2.091   6.783   2.114
15969SOL     OW49803   6.270   3.218   3.747
15969SOL    HW149804   6.360   3.218   3.779
15969SOL    HW249805   6.271   3.279   3.673
15970SOL     OW49806   1.640   6.533   0.507
15970SOL    HW149807   1.568   6.596   0.514
15970SOL    HW249808   1.631   6.497   0.418
15971SOL     OW49809  12.960   9.753  11.654
15971SOL    HW149810  13.042   9.728  11.696
15971SOL    HW249811  12.917   9.811  11.717
15972SOL     OW49812   8.916   8.377   5.318
15972SOL    HW149813   8.982   8.376   5.248
15972SOL    HW249814   8.939   8.303   5.374
15973SOL     OW49815   1.417   0.050   1.901
15973SOL    HW149816   1.475   0.012   1.967
15973SOL    HW249817   1.377   0.125   1.944
15974SOL     OW49818  11.946  10.504  13.877
15974SOL    HW149819  11.862  10.539  13.906
15974SOL    HW249820  11.928  10.411  13.859
15975SOL     OW49821   6.228   6.936  13.463
15975SOL    HW149822   6.287   7.011  13.457
15975SOL    HW249823   6.283   6.860  13.446
15976SOL     OW49824  11.095   3.221   0.365
15976SOL    HW149825  11.150   3.287   0.407
15976SOL    HW249826  11.127   3.218   0.274
15977SOL     OW49827   8.312  12.743   7.149
15977SOL    HW149828   8.365  12.719   7.073
15977SOL    HW249829   8.375  12.765   7.217
15978SOL     OW49830   0.081  11.526   3.305
15978SOL    HW149831   0.087  11.479   3.221
15978SOL    HW249832   0.152  11.590   3.301
15979SOL     OW49833  12.509   5.579  12.889
15979SOL    HW149834  12.554   5.561  12.807
15979SOL    HW249835  12.569   5.634  12.939
15980SOL     OW49836   6.272   4.537  13.368
15980SOL    HW149837   6.255   4.561  13.278
15980SOL    HW249838   6.211   4.466  13.386
15981SOL     OW49839  14.234   1.068   9.970
15981SOL    HW149840  14.315   1.081  10.019
15981SOL    HW249841  14.260   1.019   9.892
15982SOL     OW49842   0.182  13.759  14.433
15982SOL    HW149843   0.248  13.815  14.472
15982SOL    HW249844   0.216  13.670  14.443
15983SOL     OW49845   2.790  13.980  11.660
15983SOL    HW149846   2.717  14.017  11.610
15983SOL    HW249847   2.864  14.037  11.641
15984SOL     OW49848   2.368   6.821   5.577
15984SOL    HW149849   2.341   6.906   5.541
15984SOL    HW249850   2.290   6.789   5.624
15985SOL     OW49851   7.403  13.948   8.870
15985SOL    HW149852   7.386  14.040   8.847
15985SOL    HW249853   7.466  13.953   8.942
15986SOL     OW49854   3.893  11.228  13.337
15986SOL    HW149855   3.915  11.152  13.391
15986SOL    HW249856   3.975  11.253  13.295
15987SOL     OW49857   5.939   9.319   6.788
15987SOL    HW149858   5.910   9.287   6.703
15987SOL    HW249859   5.902   9.257   6.851
15988SOL     OW49860  13.388   0.764  11.458
15988SOL    HW149861  13.445   0.812  11.519
15988SOL    HW249862  13.358   0.831  11.396
15989SOL     OW49863  14.273   6.028  12.747
15989SOL    HW149864  14.228   5.953  12.707
15989SOL    HW249865  14.218   6.052  12.821
15990SOL     OW49866   1.418   2.571  11.234
15990SOL    HW149867   1.328   2.601  11.248
15990SOL    HW249868   1.409   2.495  11.176
15991SOL     OW49869  12.366  12.722   8.068
15991SOL    HW149870  12.437  12.686   8.121
15991SOL    HW249871  12.391  12.703   7.977
15992SOL     OW49872   7.261   6.515   3.022
15992SOL    HW149873   7.284   6.443   3.081
15992SOL    HW249874   7.208   6.574   3.076
15993SOL     OW49875   9.027  11.403   0.109
15993SOL    HW149876   8.943  11.358   0.112
15993SOL    HW249877   9.091  11.337   0.137
15994SOL     OW49878   2.980  10.359  14.234
15994SOL    HW149879   3.034  10.280  14.226
15994SOL    HW249880   2.989  10.403  14.149
15995SOL     OW49881  12.436   3.534  12.490
15995SOL    HW149882  12.442   3.497  12.402
15995SOL    HW249883  12.498   3.483  12.542
15996SOL     OW49884   3.107   5.189  12.466
15996SOL    HW149885   3.149   5.262  12.422
15996SOL    HW249886   3.179   5.132  12.493
15997SOL     OW49887   1.422   3.668   5.838
15997SOL    HW149888   1.382   3.587   5.870
15997SOL    HW249889   1.376   3.686   5.755
15998SOL     OW49890   6.417   2.325   3.664
15998SOL    HW149891   6.321   2.321   3.668
15998SOL    HW249892   6.444   2.341   3.754
15999SOL     OW49893   4.993   3.389  11.535
15999SOL    HW149894   5.038   3.306  11.548
15999SOL    HW249895   4.917   3.367  11.481
16000SOL     OW49896   9.077   3.815   1.354
16000SOL    HW149897   9.022   3.888   1.327
16000SOL    HW249898   9.038   3.739   1.312
16001SOL     OW49899  13.064   4.612   5.410
16001SOL    HW149900  13.111   4.529   5.423
16001SOL    HW249901  13.126   4.679   5.439
16002SOL     OW49902  14.249   9.153  13.550
16002SOL    HW149903  14.340   9.180  13.565
16002SOL    HW249904  14.238   9.158  13.455
16003SOL     OW49905   7.579   6.661   4.001
16003SOL    HW149906   7.609   6.716   3.929
16003SOL    HW249907   7.555   6.722   4.070
16004SOL     OW49908  14.385   5.730  13.855
16004SOL    HW149909  14.318   5.663  13.869
16004SOL    HW249910  14.358   5.772  13.773
16005SOL     OW49911   4.074   2.087   3.805
16005SOL    HW149912   4.026   2.005   3.802
16005SOL    HW249913   4.097   2.098   3.897
16006SOL     OW49914   5.309   5.791  10.313
16006SOL    HW149915   5.326   5.747  10.230
16006SOL    HW249916   5.283   5.879  10.288
16007SOL     OW49917   8.508   4.242   5.893
16007SOL    HW149918   8.502   4.226   5.798
16007SOL    HW249919   8.483   4.159   5.932
16008SOL     OW49920   5.772   2.454   7.691
16008SOL    HW149921   5.807   2.527   7.742
16008SOL    HW249922   5.828   2.450   7.614
16009SOL     OW49923  13.391  12.367   7.613
16009SOL    HW149924  13.354  12.284   7.585
16009SOL    HW249925  13.484  12.349   7.627
16010SOL     OW49926  10.041   2.148   8.526
16010SOL    HW149927   9.990   2.077   8.566
16010SOL    HW249928  10.090   2.105   8.456
16011SOL     OW49929   9.841   9.164   6.148
16011SOL    HW149930   9.799   9.105   6.210
16011SOL    HW249931   9.920   9.194   6.193
16012SOL     OW49932   0.728   6.990   3.156
16012SOL    HW149933   0.726   6.968   3.249
16012SOL    HW249934   0.648   7.040   3.141
16013SOL     OW49935   4.834  14.490  10.339
16013SOL    HW149936   4.780  14.420  10.302
16013SOL    HW249937   4.799  14.570  10.299
16014SOL     OW49938   8.816  10.044   9.368
16014SOL    HW149939   8.737  10.094   9.386
16014SOL    HW249940   8.879  10.110   9.338
16015SOL     OW49941   1.709   8.102   1.644
16015SOL    HW149942   1.791   8.097   1.693
16015SOL    HW249943   1.728   8.062   1.560
16016SOL     OW49944   5.392  10.152  12.894
16016SOL    HW149945   5.372  10.245  12.896
16016SOL    HW249946   5.400  10.131  12.801
16017SOL     OW49947   2.108   9.428   5.389
16017SOL    HW149948   2.135   9.339   5.368
16017SOL    HW249949   2.172   9.457   5.455
16018SOL     OW49950   1.375   7.624   8.371
16018SOL    HW149951   1.293   7.582   8.394
16018SOL    HW249952   1.427   7.555   8.328
16019SOL     OW49953   5.653   6.067  12.252
16019SOL    HW149954   5.606   6.118  12.187
16019SOL    HW249955   5.608   6.085  12.334
16020SOL     OW49956   8.231   2.495  14.472
16020SOL    HW149957   8.187   2.574  14.502
16020SOL    HW249958   8.325   2.514  14.480
16021SOL     OW49959   0.261  11.527   9.255
16021SOL    HW149960   0.199  11.600   9.256
16021SOL    HW249961   0.223  11.463   9.315
16022SOL     OW49962  13.558   6.735   5.926
16022SOL    HW149963  13.527   6.815   5.885
16022SOL    HW249964  13.479   6.688   5.950
16023SOL     OW49965   7.007   5.943   9.949
16023SOL    HW149966   6.946   5.954   9.876
16023SOL    HW249967   6.951   5.938  10.026
16024SOL     OW49968  10.113   1.550  11.068
16024SOL    HW149969  10.135   1.549  10.975
16024SOL    HW249970  10.075   1.463  11.084
16025SOL     OW49971  14.669   0.582   5.717
16025SOL    HW149972  14.660   0.627   5.801
16025SOL    HW249973  14.763   0.575   5.704
16026SOL     OW49974  11.387  13.891  10.373
16026SOL    HW149975  11.381  13.796  10.364
16026SOL    HW249976  11.450  13.904  10.445
16027SOL     OW49977  13.450   3.193  11.538
16027SOL    HW149978  13.484   3.157  11.456
16027SOL    HW249979  13.514   3.165  11.604
16028SOL     OW49980   4.015   6.592  11.305
16028SOL    HW149981   4.019   6.673  11.254
16028SOL    HW249982   4.097   6.590  11.353
16029SOL     OW49983   6.801   9.400  13.983
16029SOL    HW149984   6.878   9.389  14.039
16029SOL    HW249985   6.791   9.315  13.941
16030SOL     OW49986  13.054  11.527   2.227
16030SOL    HW149987  12.990  11.475   2.178
16030SOL    HW249988  13.003  11.597   2.267
16031SOL     OW49989  11.677   6.448   9.307
16031SOL    HW149990  11.759   6.474   9.348
16031SOL    HW249991  11.637   6.530   9.278
16032SOL     OW49992   8.766   3.119   5.278
16032SOL    HW149993   8.738   3.038   5.321
16032SOL    HW249994   8.844   3.095   5.229
16033SOL     OW49995   7.650   4.371  10.734
16033SOL    HW149996   7.691   4.457  10.739
16033SOL    HW249997   7.622   4.363  10.643
16034SOL     OW49998   1.739  11.433  13.943
16034SOL    HW149999   1.816  11.400  13.989
16034SOL    HW250000   1.774  11.469  13.861
16035SOL     OW50001   2.208   5.125   9.279
16035SOL    HW150002   2.147   5.168   9.339
16035SOL    HW250003   2.290   5.120   9.329
16036SOL     OW50004  13.403   0.126  12.026
16036SOL    HW150005  13.497   0.117  12.015
16036SOL    HW250006  13.380   0.063  12.095
16037SOL     OW50007  10.080   4.583  12.983
16037SOL    HW150008   9.995   4.618  12.955
16037SOL    HW250009  10.113   4.535  12.907
16038SOL     OW50010  14.402   0.093   3.059
16038SOL    HW150011  14.494   0.066   3.060
16038SOL    HW250012  14.369   0.069   3.146
16039SOL     OW50013   4.728   9.394  13.490
16039SOL    HW150014   4.756   9.334  13.559
16039SOL    HW250015   4.803   9.399  13.431
16040SOL     OW50016   8.104   8.104   6.903
16040SOL    HW150017   8.192   8.114   6.937
16040SOL    HW250018   8.067   8.031   6.953
16041SOL     OW50019   9.410   6.336  10.858
16041SOL    HW150020   9.405   6.247  10.892
16041SOL    HW250021   9.436   6.389  10.933
16042SOL     OW50022   6.055  12.688   2.649
16042SOL    HW150023   5.993  12.696   2.576
16042SOL    HW250024   6.087  12.778   2.663
16043SOL     OW50025   4.456   5.115   9.144
16043SOL    HW150026   4.471   5.067   9.226
16043SOL    HW250027   4.365   5.145   9.151
16044SOL     OW50028   7.426  11.164   5.348
16044SOL    HW150029   7.370  11.193   5.420
16044SOL    HW250030   7.501  11.224   5.350
16045SOL     OW50031   3.161   8.705   0.211
16045SOL    HW150032   3.190   8.678   0.123
16045SOL    HW250033   3.144   8.623   0.257
16046SOL     OW50034  13.009   2.245   9.666
16046SOL    HW150035  13.101   2.218   9.667
16046SOL    HW250036  13.011   2.338   9.691
16047SOL     OW50037  13.934  10.747   2.645
16047SOL    HW150038  13.974  10.828   2.613
16047SOL    HW250039  14.008  10.692   2.670
16048SOL     OW50040   4.784   2.904  11.462
16048SOL    HW150041   4.695   2.940  11.455
16048SOL    HW250042   4.812   2.892  11.371
16049SOL     OW50043   0.931   0.227  13.701
16049SOL    HW150044   0.836   0.220  13.688
16049SOL    HW250045   0.964   0.139  13.684
16050SOL     OW50046   4.411  11.663   8.469
16050SOL    HW150047   4.378  11.750   8.447
16050SOL    HW250048   4.373  11.606   8.403
16051SOL     OW50049  14.728  14.507  10.059
16051SOL    HW150050  14.660  14.473  10.001
16051SOL    HW250051  14.788  14.552  10.000
16052SOL     OW50052  12.951  10.559   9.814
16052SOL    HW150053  12.986  10.544   9.727
16052SOL    HW250054  12.896  10.636   9.806
16053SOL     OW50055  14.813  10.270   6.278
16053SOL    HW150056   0.008  10.321   6.301
16053SOL    HW250057  14.750  10.290   6.347
16054SOL     OW50058  10.202   2.251   2.657
16054SOL    HW150059  10.271   2.313   2.683
16054SOL    HW250060  10.185   2.200   2.736
16055SOL     OW50061  11.946  13.819  14.086
16055SOL    HW150062  12.015  13.755  14.103
16055SOL    HW250063  11.936  13.820  13.991
16056SOL     OW50064   3.268   0.844   6.726
16056SOL    HW150065   3.271   0.808   6.637
16056SOL    HW250066   3.213   0.784   6.775
16057SOL     OW50067  12.972   4.723  14.548
16057SOL    HW150068  12.921   4.714  14.628
16057SOL    HW250069  12.989   4.817  14.541
16058SOL     OW50070   7.035   9.248   6.449
16058SOL    HW150071   6.985   9.213   6.522
16058SOL    HW250072   7.059   9.337   6.478
16059SOL     OW50073   7.521  13.136   9.523
16059SOL    HW150074   7.439  13.101   9.488
16059SOL    HW250075   7.519  13.114   9.616
16060SOL     OW50076   7.498   3.749  14.438
16060SOL    HW150077   7.439   3.697  14.492
16060SOL    HW250078   7.582   3.702  14.442
16061SOL     OW50079   5.630   1.436   3.983
16061SOL    HW150080   5.714   1.452   4.026
16061SOL    HW250081   5.645   1.359   3.929
16062SOL     OW50082   2.496   0.256   8.249
16062SOL    HW150083   2.574   0.293   8.209
16062SOL    HW250084   2.435   0.329   8.258
16063SOL     OW50085  13.461   5.689  11.522
16063SOL    HW150086  13.501   5.747  11.457
16063SOL    HW250087  13.371   5.721  11.530
16064SOL     OW50088   1.755  14.116   7.370
16064SOL    HW150089   1.720  14.027   7.363
16064SOL    HW250090   1.789  14.122   7.459
16065SOL     OW50091   3.561   3.348   1.988
16065SOL    HW150092   3.512   3.282   1.939
16065SOL    HW250093   3.493   3.405   2.024
16066SOL     OW50094   9.851   1.958  12.076
16066SOL    HW150095   9.801   1.901  12.017
16066SOL    HW250096   9.864   1.905  12.155
16067SOL     OW50097   1.366   9.347  10.914
16067SOL    HW150098   1.414   9.311  10.839
16067SOL    HW250099   1.297   9.284  10.932
16068SOL     OW50100   0.115  12.560   3.336
16068SOL    HW150101   0.094  12.467   3.327
16068SOL    HW250102   0.073  12.586   3.418
16069SOL     OW50103   4.360  14.712   9.464
16069SOL    HW150104   4.332  14.656   9.536
16069SOL    HW250105   4.426  14.769   9.502
16070SOL     OW50106   4.896   2.528   8.214
16070SOL    HW150107   4.842   2.567   8.282
16070SOL    HW250108   4.975   2.583   8.212
16071SOL     OW50109   1.097   3.220   9.599
16071SOL    HW150110   1.022   3.270   9.567
16071SOL    HW250111   1.171   3.280   9.589
16072SOL     OW50112  14.363  12.188  12.868
16072SOL    HW150113  14.314  12.255  12.916
16072SOL    HW250114  14.452  12.193  12.904
16073SOL     OW50115   5.673   5.736   9.314
16073SOL    HW150116   5.703   5.662   9.367
16073SOL    HW250117   5.671   5.702   9.225
16074SOL     OW50118   0.014   5.222   0.256
16074SOL    HW150119  14.810   5.249   0.289
16074SOL    HW250120   0.055   5.176   0.330
16075SOL     OW50121  14.490  13.756   3.349
16075SOL    HW150122  14.498  13.736   3.442
16075SOL    HW250123  14.488  13.852   3.345
16076SOL     OW50124   3.545  11.179   4.729
16076SOL    HW150125   3.630  11.186   4.771
16076SOL    HW250126   3.507  11.266   4.736
16077SOL     OW50127   3.817  14.674   9.208
16077SOL    HW150128   3.746  14.704   9.151
16077SOL    HW250129   3.862  14.607   9.156
16078SOL     OW50130   3.216  11.090   2.423
16078SOL    HW150131   3.222  11.076   2.329
16078SOL    HW250132   3.287  11.038   2.460
16079SOL     OW50133   3.952   6.039  10.066
16079SOL    HW150134   4.016   5.980  10.106
16079SOL    HW250135   3.956   6.118  10.120
16080SOL     OW50136   9.091   8.330   7.046
16080SOL    HW150137   9.036   8.334   7.124
16080SOL    HW250138   9.034   8.358   6.975
16081SOL     OW50139   7.088   5.715   8.917
16081SOL    HW150140   7.051   5.655   8.983
16081SOL    HW250141   7.018   5.778   8.900
16082SOL     OW50142  14.681  13.431   4.894
16082SOL    HW150143  14.679  13.376   4.972
16082SOL    HW250144  14.774  13.447   4.878
16083SOL     OW50145  14.703   0.700   3.771
16083SOL    HW150146  14.781   0.755   3.777
16083SOL    HW250147  14.637   0.757   3.732
16084SOL     OW50148   1.377   9.927  13.964
16084SOL    HW150149   1.429   9.899  13.889
16084SOL    HW250150   1.291   9.888  13.949
16085SOL     OW50151   6.356  13.532   4.365
16085SOL    HW150152   6.308  13.576   4.436
16085SOL    HW250153   6.347  13.439   4.385
16086SOL     OW50154   3.570   1.008   0.474
16086SOL    HW150155   3.527   1.044   0.396
16086SOL    HW250156   3.503   0.956   0.517
16087SOL     OW50157   2.105   8.328   8.565
16087SOL    HW150158   2.189   8.311   8.610
16087SOL    HW250159   2.070   8.405   8.610
16088SOL     OW50160  13.404   9.514   0.469
16088SOL    HW150161  13.474   9.501   0.406
16088SOL    HW250162  13.324   9.513   0.417
16089SOL     OW50163  14.231  14.613   7.108
16089SOL    HW150164  14.260  14.682   7.048
16089SOL    HW250165  14.239  14.652   7.195
16090SOL     OW50166   2.295  13.510   9.653
16090SOL    HW150167   2.251  13.430   9.681
16090SOL    HW250168   2.266  13.577   9.714
16091SOL     OW50169   8.025   0.311   8.387
16091SOL    HW150170   8.078   0.387   8.363
16091SOL    HW250171   8.013   0.263   8.305
16092SOL     OW50172   1.253   0.373   8.074
16092SOL    HW150173   1.236   0.316   7.998
16092SOL    HW250174   1.166   0.398   8.105
16093SOL     OW50175   2.870   9.629   1.507
16093SOL    HW150176   2.831   9.543   1.525
16093SOL    HW250177   2.803   9.676   1.458
16094SOL     OW50178   5.189  10.819  13.774
16094SOL    HW150179   5.220  10.907  13.753
16094SOL    HW250180   5.137  10.794  13.698
16095SOL     OW50181   2.861  14.677  14.165
16095SOL    HW150182   2.783  14.654  14.215
16095SOL    HW250183   2.826  14.721  14.087
16096SOL     OW50184   9.890   9.582  13.187
16096SOL    HW150185   9.959   9.648  13.197
16096SOL    HW250186   9.919   9.528  13.114
16097SOL     OW50187   1.494   9.429   4.383
16097SOL    HW150188   1.517   9.521   4.386
16097SOL    HW250189   1.406   9.427   4.344
16098SOL     OW50190   3.771   9.046  12.981
16098SOL    HW150191   3.806   8.958  12.995
16098SOL    HW250192   3.752   9.050  12.887
16099SOL     OW50193   0.450   7.655  13.111
16099SOL    HW150194   0.448   7.734  13.057
16099SOL    HW250195   0.362   7.619  13.104
16100SOL     OW50196   8.586   1.934  11.010
16100SOL    HW150197   8.547   1.932  10.922
16100SOL    HW250198   8.522   1.890  11.065
16101SOL     OW50199  12.996   8.319  13.601
16101SOL    HW150200  12.999   8.287  13.511
16101SOL    HW250201  13.087   8.315  13.631
16102SOL     OW50202  10.328  10.162   4.740
16102SOL    HW150203  10.249  10.165   4.794
16102SOL    HW250204  10.354  10.070   4.740
16103SOL     OW50205   7.679   2.824   7.831
16103SOL    HW150206   7.603   2.788   7.878
16103SOL    HW250207   7.643   2.855   7.748
16104SOL     OW50208   2.684   7.147  14.729
16104SOL    HW150209   2.711   7.145  14.638
16104SOL    HW250210   2.630   7.226  14.736
16105SOL     OW50211   3.622   0.453  12.384
16105SOL    HW150212   3.681   0.400  12.330
16105SOL    HW250213   3.680   0.500  12.444
16106SOL     OW50214   2.810   1.482   8.070
16106SOL    HW150215   2.804   1.464   7.976
16106SOL    HW250216   2.806   1.395   8.111
16107SOL     OW50217   1.122   1.983   8.119
16107SOL    HW150218   1.215   1.964   8.131
16107SOL    HW250219   1.077   1.906   8.152
16108SOL     OW50220  11.475   5.258   8.061
16108SOL    HW150221  11.525   5.262   7.980
16108SOL    HW250222  11.518   5.321   8.119
16109SOL     OW50223   6.012   6.107   4.865
16109SOL    HW150224   6.013   6.024   4.818
16109SOL    HW250225   6.065   6.166   4.812
16110SOL     OW50226   1.807   4.141  13.980
16110SOL    HW150227   1.740   4.072  13.977
16110SOL    HW250228   1.762   4.219  13.947
16111SOL     OW50229   0.872   7.123   2.187
16111SOL    HW150230   0.920   7.042   2.172
16111SOL    HW250231   0.815   7.104   2.262
16112SOL     OW50232   1.688   0.643   2.847
16112SOL    HW150233   1.769   0.614   2.887
16112SOL    HW250234   1.631   0.566   2.847
16113SOL     OW50235  10.118   5.990   3.099
16113SOL    HW150236  10.091   5.941   3.022
16113SOL    HW250237  10.190   5.939   3.136
16114SOL     OW50238   1.650   9.289   0.766
16114SOL    HW150239   1.683   9.308   0.679
16114SOL    HW250240   1.564   9.250   0.751
16115SOL     OW50241   4.940   9.639   8.092
16115SOL    HW150242   5.009   9.693   8.055
16115SOL    HW250243   4.897   9.599   8.016
16116SOL     OW50244   9.830   8.500   2.473
16116SOL    HW150245   9.850   8.472   2.562
16116SOL    HW250246   9.916   8.509   2.431
16117SOL     OW50247   0.396  10.018  12.751
16117SOL    HW150248   0.337  10.093  12.766
16117SOL    HW250249   0.418   9.988  12.839
16118SOL     OW50250  11.661   4.021  13.195
16118SOL    HW150251  11.651   3.957  13.266
16118SOL    HW250252  11.704   3.972  13.124
16119SOL     OW50253  12.494  10.679   1.925
16119SOL    HW150254  12.586  10.667   1.903
16119SOL    HW250255  12.494  10.751   1.989
16120SOL     OW50256   1.505  12.664   3.243
16120SOL    HW150257   1.598  12.659   3.220
16120SOL    HW250258   1.503  12.720   3.321
16121SOL     OW50259  10.263  14.725  14.505
16121SOL    HW150260  10.356  14.704  14.498
16121SOL    HW250261  10.230  14.717  14.415
16122SOL     OW50262  14.733   1.623   2.225
16122SOL    HW150263  14.789   1.699   2.236
16122SOL    HW250264  14.697   1.607   2.313
16123SOL     OW50265  11.302   3.729   0.721
16123SOL    HW150266  11.353   3.776   0.786
16123SOL    HW250267  11.366   3.703   0.654
16124SOL     OW50268   9.146  12.991   8.805
16124SOL    HW150269   9.052  12.980   8.794
16124SOL    HW250270   9.171  12.927   8.872
16125SOL     OW50271   0.825   8.488   1.742
16125SOL    HW150272   0.898   8.429   1.760
16125SOL    HW250273   0.862   8.555   1.685
16126SOL     OW50274   9.381   3.815   0.041
16126SOL    HW150275   9.413   3.740  14.872
16126SOL    HW250276   9.437   3.816   0.118
16127SOL     OW50277   5.332   8.519  11.378
16127SOL    HW150278   5.296   8.496  11.464
16127SOL    HW250279   5.360   8.435  11.340
16128SOL     OW50280   0.558   6.109   5.223
16128SOL    HW150281   0.610   6.186   5.200
16128SOL    HW250282   0.564   6.104   5.319
16129SOL     OW50283   3.870  12.493  11.089
16129SOL    HW150284   3.919  12.558  11.038
16129SOL    HW250285   3.863  12.532  11.176
16130SOL     OW50286   2.041  12.126   2.313
16130SOL    HW150287   2.133  12.101   2.326
16130SOL    HW250288   2.003  12.052   2.266
16131SOL     OW50289   2.204   3.036  10.259
16131SOL    HW150290   2.262   2.996  10.194
16131SOL    HW250291   2.145   2.965  10.285
16132SOL     OW50292   9.201   3.260   7.039
16132SOL    HW150293   9.163   3.287   6.955
16132SOL    HW250294   9.228   3.342   7.080
16133SOL     OW50295   4.105   5.693   7.607
16133SOL    HW150296   4.048   5.637   7.555
16133SOL    HW250297   4.191   5.687   7.564
16134SOL     OW50298   2.168  12.485   3.521
16134SOL    HW150299   2.245  12.500   3.576
16134SOL    HW250300   2.109  12.557   3.542
16135SOL     OW50301   9.826   8.921   7.413
16135SOL    HW150302   9.802   8.942   7.323
16135SOL    HW250303   9.754   8.866   7.445
16136SOL     OW50304   7.445   6.375   9.280
16136SOL    HW150305   7.436   6.450   9.222
16136SOL    HW250306   7.436   6.412   9.368
16137SOL     OW50307   2.788   4.678   0.293
16137SOL    HW150308   2.736   4.600   0.307
16137SOL    HW250309   2.854   4.676   0.363
16138SOL     OW50310  11.093   5.393   2.412
16138SOL    HW150311  11.028   5.464   2.412
16138SOL    HW250312  11.056   5.327   2.471
16139SOL     OW50313   6.105   5.542  11.920
16139SOL    HW150314   6.180   5.554  11.977
16139SOL    HW250315   6.141   5.544  11.832
16140SOL     OW50316  11.908   2.631   0.924
16140SOL    HW150317  11.869   2.662   1.006
16140SOL    HW250318  11.858   2.677   0.856
16141SOL     OW50319   9.539   7.145  13.568
16141SOL    HW150320   9.575   7.068  13.524
16141SOL    HW250321   9.509   7.202  13.496
16142SOL     OW50322   2.829   3.847  14.253
16142SOL    HW150323   2.912   3.803  14.239
16142SOL    HW250324   2.797   3.812  14.337
16143SOL     OW50325   1.320   2.958  12.082
16143SOL    HW150326   1.368   2.937  12.162
16143SOL    HW250327   1.301   3.052  12.090
16144SOL     OW50328   0.061   5.214   5.318
16144SOL    HW150329   0.099   5.210   5.231
16144SOL    HW250330   0.012   5.296   5.319
16145SOL     OW50331   2.783   8.333  12.028
16145SOL    HW150332   2.753   8.275  12.099
16145SOL    HW250333   2.762   8.421  12.059
16146SOL     OW50334   0.756   4.921   3.408
16146SOL    HW150335   0.817   4.948   3.476
16146SOL    HW250336   0.803   4.938   3.326
16147SOL     OW50337   0.484   8.308   2.178
16147SOL    HW150338   0.501   8.220   2.144
16147SOL    HW250339   0.487   8.365   2.101
16148SOL     OW50340  13.483   3.639   7.426
16148SOL    HW150341  13.458   3.661   7.336
16148SOL    HW250342  13.521   3.551   7.420
16149SOL     OW50343   4.758   1.325  12.210
16149SOL    HW150344   4.833   1.384  12.210
16149SOL    HW250345   4.687   1.375  12.169
16150SOL     OW50346   9.994   7.660   7.546
16150SOL    HW150347   9.927   7.658   7.477
16150SOL    HW250348   9.953   7.707   7.618
16151SOL     OW50349   1.963   2.436  13.207
16151SOL    HW150350   1.943   2.358  13.156
16151SOL    HW250351   1.879   2.460  13.248
16152SOL     OW50352   1.158   1.689   9.166
16152SOL    HW150353   1.067   1.675   9.189
16152SOL    HW250354   1.191   1.602   9.143
16153SOL     OW50355   5.169   0.427  10.794
16153SOL    HW150356   5.204   0.393  10.876
16153SOL    HW250357   5.211   0.375  10.726
16154SOL     OW50358   6.940   0.494   3.866
16154SOL    HW150359   6.990   0.532   3.938
16154SOL    HW250360   6.988   0.521   3.787
16155SOL     OW50361   0.904  12.733   5.436
16155SOL    HW150362   0.920  12.652   5.486
16155SOL    HW250363   0.984  12.746   5.385
16156SOL     OW50364  13.060   7.098   3.226
16156SOL    HW150365  13.154   7.079   3.218
16156SOL    HW250366  13.020   7.011   3.233
16157SOL     OW50367  10.328   9.658   5.159
16157SOL    HW150368  10.297   9.568   5.160
16157SOL    HW250369  10.277   9.701   5.090
16158SOL     OW50370   3.491   7.291   1.051
16158SOL    HW150371   3.498   7.375   1.096
16158SOL    HW250372   3.544   7.301   0.972
16159SOL     OW50373   9.016   2.809   2.881
16159SOL    HW150374   8.955   2.835   2.950
16159SOL    HW250375   9.081   2.879   2.879
16160SOL     OW50376  13.336  13.802   4.963
16160SOL    HW150377  13.263  13.855   4.995
16160SOL    HW250378  13.316  13.713   4.994
16161SOL     OW50379  11.953   9.324   4.118
16161SOL    HW150380  11.955   9.370   4.202
16161SOL    HW250381  11.860   9.321   4.094
16162SOL     OW50382  14.095   2.543   4.489
16162SOL    HW150383  14.169   2.603   4.487
16162SOL    HW250384  14.134   2.458   4.511
16163SOL     OW50385   6.133  12.219   8.550
16163SOL    HW150386   6.209  12.161   8.548
16163SOL    HW250387   6.132  12.260   8.463
16164SOL     OW50388  14.697  13.862   2.318
16164SOL    HW150389  14.636  13.873   2.245
16164SOL    HW250390  14.784  13.864   2.278
16165SOL     OW50391  14.303   2.162   1.483
16165SOL    HW150392  14.338   2.234   1.535
16165SOL    HW250393  14.247   2.204   1.418
16166SOL     OW50394   9.579   1.657   7.235
16166SOL    HW150395   9.674   1.644   7.246
16166SOL    HW250396   9.542   1.569   7.245
16167SOL     OW50397   3.352   1.758  14.476
16167SOL    HW150398   3.289   1.801  14.419
16167SOL    HW250399   3.436   1.799  14.455
16168SOL     OW50400   9.639  11.869  14.498
16168SOL    HW150401   9.600  11.815  14.567
16168SOL    HW250402   9.663  11.951  14.542
16169SOL     OW50403   7.832   7.792   3.794
16169SOL    HW150404   7.775   7.842   3.853
16169SOL    HW250405   7.911   7.776   3.845
16170SOL     OW50406   7.981   0.703   2.389
16170SOL    HW150407   7.946   0.653   2.316
16170SOL    HW250408   7.911   0.764   2.412
16171SOL     OW50409   1.725   0.572  13.484
16171SOL    HW150410   1.783   0.646  13.505
16171SOL    HW250411   1.701   0.536  13.570
16172SOL     OW50412   6.109   9.063   0.655
16172SOL    HW150413   6.018   9.033   0.663
16172SOL    HW250414   6.158   9.007   0.716
16173SOL     OW50415  12.673   1.394  11.518
16173SOL    HW150416  12.698   1.365  11.605
16173SOL    HW250417  12.658   1.313  11.469
16174SOL     OW50418  10.051  13.263   5.712
16174SOL    HW150419   9.979  13.272   5.649
16174SOL    HW250420  10.017  13.202   5.777
16175SOL     OW50421   4.661   2.379   8.256
16175SOL    HW150422   4.741   2.426   8.233
16175SOL    HW250423   4.668   2.363   8.350
16176SOL     OW50424   4.564   5.867   8.937
16176SOL    HW150425   4.538   5.789   8.985
16176SOL    HW250426   4.620   5.916   8.998
16177SOL     OW50427  10.351   8.023  10.415
16177SOL    HW150428  10.294   8.058  10.483
16177SOL    HW250429  10.389   7.944  10.453
16178SOL     OW50430   6.479  13.786   0.891
16178SOL    HW150431   6.398  13.837   0.901
16178SOL    HW250432   6.492  13.745   0.977
16179SOL     OW50433   1.467   9.980   9.645
16179SOL    HW150434   1.540  10.011   9.698
16179SOL    HW250435   1.464  10.041   9.570
16180SOL     OW50436   3.099   4.421   3.244
16180SOL    HW150437   3.083   4.494   3.304
16180SOL    HW250438   3.011   4.394   3.215
16181SOL     OW50439  10.719   3.700   5.344
16181SOL    HW150440  10.704   3.767   5.411
16181SOL    HW250441  10.679   3.621   5.379
16182SOL     OW50442   1.253  13.575   5.977
16182SOL    HW150443   1.296  13.641   5.923
16182SOL    HW250444   1.258  13.495   5.925
16183SOL     OW50445   9.537   3.809  12.754
16183SOL    HW150446   9.614   3.826  12.699
16183SOL    HW250447   9.548   3.719  12.783
16184SOL     OW50448   6.249  13.505   8.692
16184SOL    HW150449   6.342  13.517   8.714
16184SOL    HW250450   6.238  13.410   8.689
16185SOL     OW50451   5.529   6.840   8.511
16185SOL    HW150452   5.460   6.878   8.456
16185SOL    HW250453   5.610   6.882   8.482
16186SOL     OW50454  10.137   0.607   4.949
16186SOL    HW150455  10.086   0.536   4.910
16186SOL    HW250456  10.197   0.634   4.880
16187SOL     OW50457   3.121   0.778   8.419
16187SOL    HW150458   3.036   0.776   8.375
16187SOL    HW250459   3.169   0.848   8.375
16188SOL     OW50460  11.985  10.484   7.807
16188SOL    HW150461  12.012  10.551   7.870
16188SOL    HW250462  12.059  10.476   7.747
16189SOL     OW50463   7.221  14.255   3.892
16189SOL    HW150464   7.201  14.347   3.911
16189SOL    HW250465   7.138  14.209   3.904
16190SOL     OW50466   6.201   1.871   7.767
16190SOL    HW150467   6.153   1.953   7.780
16190SOL    HW250468   6.279   1.897   7.717
16191SOL     OW50469  13.996   3.779   5.630
16191SOL    HW150470  13.955   3.710   5.578
16191SOL    HW250471  14.036   3.732   5.703
16192SOL     OW50472  14.292   4.804   8.224
16192SOL    HW150473  14.233   4.879   8.235
16192SOL    HW250474  14.313   4.777   8.314
16193SOL     OW50475   5.752   2.606   7.292
16193SOL    HW150476   5.810   2.546   7.339
16193SOL    HW250477   5.803   2.632   7.215
16194SOL     OW50478  12.774   0.854  12.470
16194SOL    HW150479  12.729   0.855  12.554
16194SOL    HW250480  12.867   0.859  12.492
16195SOL     OW50481  11.299   2.133   5.123
16195SOL    HW150482  11.298   2.160   5.215
16195SOL    HW250483  11.217   2.167   5.087
16196SOL     OW50484  13.693   0.257   3.621
16196SOL    HW150485  13.683   0.192   3.551
16196SOL    HW250486  13.718   0.338   3.576
16197SOL     OW50487  11.701  10.748   8.020
16197SOL    HW150488  11.735  10.792   7.942
16197SOL    HW250489  11.761  10.775   8.090
16198SOL     OW50490   0.009  10.611   0.809
16198SOL    HW150491   0.038  10.560   0.734
16198SOL    HW250492  14.803  10.640   0.785
16199SOL     OW50493   9.545  13.875  13.201
16199SOL    HW150494   9.608  13.803  13.201
16199SOL    HW250495   9.512  13.878  13.291
16200SOL     OW50496   6.629   2.975   4.416
16200SOL    HW150497   6.649   3.063   4.447
16200SOL    HW250498   6.580   2.988   4.335
16201SOL     OW50499   1.229   4.132  12.194
16201SOL    HW150500   1.294   4.063  12.187
16201SOL    HW250501   1.279   4.213  12.192
16202SOL     OW50502   0.402   2.082  12.835
16202SOL    HW150503   0.485   2.050  12.871
16202SOL    HW250504   0.335   2.045  12.893
16203SOL     OW50505  12.948   6.319  13.428
16203SOL    HW150506  12.958   6.274  13.512
16203SOL    HW250507  12.854   6.333  13.420
16204SOL     OW50508   7.097  11.458  11.170
16204SOL    HW150509   7.035  11.529  11.150
16204SOL    HW250510   7.152  11.493  11.239
16205SOL     OW50511  12.266   6.944   6.809
16205SOL    HW150512  12.295   6.928   6.719
16205SOL    HW250513  12.175   6.974   6.799
16206SOL     OW50514   6.106   0.532   0.903
16206SOL    HW150515   6.188   0.534   0.951
16206SOL    HW250516   6.111   0.453   0.850
16207SOL     OW50517   9.554   0.908   9.687
16207SOL    HW150518   9.568   0.897   9.781
16207SOL    HW250519   9.605   0.985   9.663
16208SOL     OW50520   6.269   7.958  12.393
16208SOL    HW150521   6.202   8.000  12.447
16208SOL    HW250522   6.250   7.864  12.400
16209SOL     OW50523   1.678  12.775  14.533
16209SOL    HW150524   1.658  12.845  14.595
16209SOL    HW250525   1.772  12.760  14.543
16210SOL     OW50526   5.606   3.144  13.462
16210SOL    HW150527   5.634   3.147  13.371
16210SOL    HW250528   5.684   3.166  13.512
16211SOL     OW50529   7.766   6.642   9.786
16211SOL    HW150530   7.733   6.575   9.845
16211SOL    HW250531   7.705   6.715   9.795
16212SOL     OW50532   3.192   8.848   6.730
16212SOL    HW150533   3.287   8.856   6.728
16212SOL    HW250534   3.162   8.927   6.776
16213SOL     OW50535  11.677   5.735   8.380
16213SOL    HW150536  11.767   5.750   8.408
16213SOL    HW250537  11.632   5.708   8.460
16214SOL     OW50538   1.984   8.432   2.289
16214SOL    HW150539   1.982   8.407   2.196
16214SOL    HW250540   1.902   8.480   2.302
16215SOL     OW50541  10.770   8.727   3.975
16215SOL    HW150542  10.725   8.774   3.906
16215SOL    HW250543  10.722   8.749   4.055
16216SOL     OW50544  11.505   4.532   1.538
16216SOL    HW150545  11.429   4.474   1.539
16216SOL    HW250546  11.574   4.481   1.581
16217SOL     OW50547   2.565   0.956  12.278
16217SOL    HW150548   2.482   0.930  12.238
16217SOL    HW250549   2.623   0.882  12.261
16218SOL     OW50550   9.859   4.182  14.575
16218SOL    HW150551   9.914   4.169  14.653
16218SOL    HW250552   9.774   4.145  14.600
16219SOL     OW50553  10.682  13.975   0.206
16219SOL    HW150554  10.655  14.067   0.202
16219SOL    HW250555  10.706  13.954   0.116
16220SOL     OW50556   0.050  11.178  13.680
16220SOL    HW150557   0.018  11.094  13.646
16220SOL    HW250558   0.034  11.174  13.774
16221SOL     OW50559   6.439  11.829   4.235
16221SOL    HW150560   6.421  11.922   4.227
16221SOL    HW250561   6.384  11.800   4.308
16222SOL     OW50562   7.557  11.345  13.914
16222SOL    HW150563   7.612  11.276  13.877
16222SOL    HW250564   7.535  11.314  14.002
16223SOL     OW50565   8.451  10.198   2.662
16223SOL    HW150566   8.452  10.241   2.748
16223SOL    HW250567   8.462  10.105   2.681
16224SOL     OW50568   4.751   5.294   6.227
16224SOL    HW150569   4.839   5.326   6.249
16224SOL    HW250570   4.693   5.366   6.248
16225SOL     OW50571  12.081  12.188   1.963
16225SOL    HW150572  11.989  12.188   1.936
16225SOL    HW250573  12.128  12.218   1.885
16226SOL     OW50574  13.167   8.955   6.707
16226SOL    HW150575  13.237   8.927   6.767
16226SOL    HW250576  13.108   9.007   6.761
16227SOL     OW50577   9.330  12.740   0.472
16227SOL    HW150578   9.254  12.788   0.505
16227SOL    HW250579   9.355  12.787   0.392
16228SOL     OW50580   0.489   7.416  12.317
16228SOL    HW150581   0.534   7.480  12.373
16228SOL    HW250582   0.557   7.385  12.257
16229SOL     OW50583  10.467   9.842   7.199
16229SOL    HW150584  10.462   9.776   7.268
16229SOL    HW250585  10.419   9.917   7.234
16230SOL     OW50586  13.455   9.582   3.561
16230SOL    HW150587  13.527   9.529   3.596
16230SOL    HW250588  13.476   9.592   3.468
16231SOL     OW50589   8.453  14.477   4.696
16231SOL    HW150590   8.539  14.447   4.725
16231SOL    HW250591   8.452  14.459   4.602
16232SOL     OW50592   2.882  14.717  11.511
16232SOL    HW150593   2.933  14.739  11.590
16232SOL    HW250594   2.945  14.673  11.454
16233SOL     OW50595   7.308   8.834   2.949
16233SOL    HW150596   7.339   8.763   3.005
16233SOL    HW250597   7.301   8.794   2.862
16234SOL     OW50598   4.274  11.177   7.635
16234SOL    HW150599   4.209  11.167   7.566
16234SOL    HW250600   4.316  11.261   7.616
16235SOL     OW50601   1.074   4.862  13.614
16235SOL    HW150602   1.030   4.875  13.530
16235SOL    HW250603   1.101   4.770  13.612
16236SOL     OW50604  13.117   1.558   3.463
16236SOL    HW150605  13.154   1.599   3.385
16236SOL    HW250606  13.184   1.570   3.531
16237SOL     OW50607  11.078   7.392   8.543
16237SOL    HW150608  11.066   7.328   8.613
16237SOL    HW250609  11.009   7.457   8.558
16238SOL     OW50610  13.728   6.597  12.374
16238SOL    HW150611  13.791   6.592  12.447
16238SOL    HW250612  13.718   6.690  12.357
16239SOL     OW50613  13.962  10.854   4.554
16239SOL    HW150614  14.021  10.926   4.577
16239SOL    HW250615  13.891  10.896   4.505
16240SOL     OW50616   4.770  14.219  14.074
16240SOL    HW150617   4.728  14.256  14.152
16240SOL    HW250618   4.709  14.240  14.003
16241SOL     OW50619   0.405   4.176   1.174
16241SOL    HW150620   0.415   4.246   1.108
16241SOL    HW250621   0.472   4.195   1.239
16242SOL     OW50622  10.207   0.435   5.545
16242SOL    HW150623  10.199   0.436   5.450
16242SOL    HW250624  10.236   0.523   5.568
16243SOL     OW50625   4.750  12.112   8.157
16243SOL    HW150626   4.733  12.151   8.244
16243SOL    HW250627   4.670  12.129   8.108
16244SOL     OW50628  12.927   9.996   0.608
16244SOL    HW150629  12.928   9.963   0.698
16244SOL    HW250630  13.019   9.992   0.581
16245SOL     OW50631   4.695   8.193   7.193
16245SOL    HW150632   4.764   8.207   7.128
16245SOL    HW250633   4.706   8.264   7.255
16246SOL     OW50634  10.674  10.125  11.153
16246SOL    HW150635  10.642  10.202  11.200
16246SOL    HW250636  10.704  10.159  11.069
16247SOL     OW50637   2.180   3.481  14.633
16247SOL    HW150638   2.133   3.560  14.607
16247SOL    HW250639   2.224   3.505  14.715
16248SOL     OW50640  13.737   4.888   3.412
16248SOL    HW150641  13.787   4.894   3.493
16248SOL    HW250642  13.726   4.979   3.384
16249SOL     OW50643  12.774  13.785  11.286
16249SOL    HW150644  12.788  13.703  11.239
16249SOL    HW250645  12.719  13.837  11.229
16250SOL     OW50646  11.634   4.213  14.251
16250SOL    HW150647  11.602   4.152  14.184
16250SOL    HW250648  11.708   4.258  14.209
16251SOL     OW50649  13.738   3.619   1.795
16251SOL    HW150650  13.746   3.700   1.847
16251SOL    HW250651  13.752   3.549   1.858
16252SOL     OW50652   6.398   9.973   9.951
16252SOL    HW150653   6.446   9.921  10.015
16252SOL    HW250654   6.372   9.911   9.883
16253SOL     OW50655   2.239   9.813   4.332
16253SOL    HW150656   2.225   9.847   4.243
16253SOL    HW250657   2.247   9.892   4.386
16254SOL     OW50658   4.588   6.103   4.994
16254SOL    HW150659   4.526   6.175   5.005
16254SOL    HW250660   4.549   6.047   4.927
16255SOL     OW50661  14.862   8.569  11.870
16255SOL    HW150662  14.798   8.639  11.857
16255SOL    HW250663   0.057   8.612  11.907
16256SOL     OW50664  12.206   7.623  13.061
16256SOL    HW150665  12.206   7.530  13.083
16256SOL    HW250666  12.272   7.631  12.992
16257SOL     OW50667   7.617   6.511   5.366
16257SOL    HW150668   7.573   6.521   5.450
16257SOL    HW250669   7.660   6.426   5.371
16258SOL     OW50670  13.141   0.297  10.243
16258SOL    HW150671  13.097   0.347  10.312
16258SOL    HW250672  13.209   0.355  10.210
16259SOL     OW50673  11.457   7.802  11.175
16259SOL    HW150674  11.491   7.735  11.115
16259SOL    HW250675  11.431   7.752  11.253
16260SOL     OW50676   0.876  13.191   1.619
16260SOL    HW150677   0.956  13.148   1.649
16260SOL    HW250678   0.893  13.284   1.631
16261SOL     OW50679   4.413   7.306   5.297
16261SOL    HW150680   4.453   7.378   5.345
16261SOL    HW250681   4.464   7.229   5.321
16262SOL     OW50682   8.621   1.802   1.022
16262SOL    HW150683   8.571   1.878   1.050
16262SOL    HW250684   8.651   1.761   1.103
16263SOL     OW50685   0.303   6.842   0.790
16263SOL    HW150686   0.256   6.788   0.853
16263SOL    HW250687   0.395   6.818   0.801
16264SOL     OW50688  11.199   5.386   3.761
16264SOL    HW150689  11.158   5.472   3.772
16264SOL    HW250690  11.206   5.374   3.666
16265SOL     OW50691  10.166   4.888  14.814
16265SOL    HW150692  10.116   4.964  14.843
16265SOL    HW250693  10.190   4.908  14.724
16266SOL     OW50694   7.498   1.736   4.200
16266SOL    HW150695   7.427   1.718   4.261
16266SOL    HW250696   7.492   1.667   4.134
16267SOL     OW50697   8.452   0.009   1.701
16267SOL    HW150698   8.378  14.838   1.730
16267SOL    HW250699   8.525  14.861   1.756
16268SOL     OW50700   7.273   9.279   7.972
16268SOL    HW150701   7.348   9.337   7.981
16268SOL    HW250702   7.312   9.192   7.960
16269SOL     OW50703   0.456  10.872   2.954
16269SOL    HW150704   0.409  10.912   3.027
16269SOL    HW250705   0.402  10.799   2.926
16270SOL     OW50706   7.815   6.293   7.448
16270SOL    HW150707   7.732   6.310   7.492
16270SOL    HW250708   7.821   6.362   7.382
16271SOL     OW50709   7.707   5.181   2.597
16271SOL    HW150710   7.766   5.247   2.561
16271SOL    HW250711   7.697   5.205   2.689
16272SOL     OW50712   6.930   3.144   5.414
16272SOL    HW150713   6.838   3.165   5.400
16272SOL    HW250714   6.960   3.209   5.478
16273SOL     OW50715   1.437   7.210  12.107
16273SOL    HW150716   1.365   7.267  12.134
16273SOL    HW250717   1.514   7.250  12.148
16274SOL     OW50718  13.300   0.854  13.499
16274SOL    HW150719  13.255   0.845  13.415
16274SOL    HW250720  13.389   0.821  13.482
16275SOL     OW50721   0.946  13.302   8.174
16275SOL    HW150722   0.948  13.217   8.220
16275SOL    HW250723   1.038  13.326   8.164
16276SOL     OW50724   8.636   9.547  11.482
16276SOL    HW150725   8.666   9.459  11.503
16276SOL    HW250726   8.596   9.579  11.563
16277SOL     OW50727   5.791   0.529  13.200
16277SOL    HW150728   5.710   0.581  13.196
16277SOL    HW250729   5.765   0.441  13.175
16278SOL     OW50730   1.525  12.287   3.396
16278SOL    HW150731   1.530  12.231   3.473
16278SOL    HW250732   1.599  12.260   3.341
16279SOL     OW50733   9.360   2.540   2.720
16279SOL    HW150734   9.435   2.539   2.779
16279SOL    HW250735   9.389   2.491   2.643
16280SOL     OW50736  13.483   9.334  12.835
16280SOL    HW150737  13.468   9.239  12.836
16280SOL    HW250738  13.404   9.370  12.794
16281SOL     OW50739  10.589   7.868  12.921
16281SOL    HW150740  10.680   7.852  12.946
16281SOL    HW250741  10.594   7.907  12.834
16282SOL     OW50742   1.005   2.593   4.581
16282SOL    HW150743   0.911   2.576   4.577
16282SOL    HW250744   1.045   2.521   4.534
16283SOL     OW50745  10.243   1.254  14.318
16283SOL    HW150746  10.174   1.316  14.340
16283SOL    HW250747  10.288   1.294  14.243
16284SOL     OW50748   2.449  10.176   1.507
16284SOL    HW150749   2.389  10.247   1.483
16284SOL    HW250750   2.529  10.220   1.534
16285SOL     OW50751   8.003  10.763  14.384
16285SOL    HW150752   8.068  10.763  14.454
16285SOL    HW250753   7.942  10.833  14.408
16286SOL     OW50754  13.456  13.578   2.347
16286SOL    HW150755  13.448  13.672   2.363
16286SOL    HW250756  13.428  13.537   2.429
16287SOL     OW50757   0.365   2.434  11.812
16287SOL    HW150758   0.368   2.449  11.718
16287SOL    HW250759   0.322   2.349  11.822
16288SOL     OW50760   5.028  12.986  14.575
16288SOL    HW150761   4.990  13.074  14.563
16288SOL    HW250762   4.960  12.926  14.543
16289SOL     OW50763   8.152   6.423   1.374
16289SOL    HW150764   8.181   6.499   1.323
16289SOL    HW250765   8.058   6.417   1.356
16290SOL     OW50766   5.422   8.742  10.428
16290SOL    HW150767   5.500   8.725  10.480
16290SOL    HW250768   5.397   8.831  10.450
16291SOL     OW50769  12.224   6.978   5.788
16291SOL    HW150770  12.142   6.976   5.739
16291SOL    HW250771  12.277   7.044   5.743
16292SOL     OW50772  13.413   3.890   1.453
16292SOL    HW150773  13.346   3.822   1.440
16292SOL    HW250774  13.469   3.856   1.522
16293SOL     OW50775   3.475  13.523   0.560
16293SOL    HW150776   3.512  13.460   0.622
16293SOL    HW250777   3.522  13.604   0.577
16294SOL     OW50778  10.731   4.004  12.774
16294SOL    HW150779  10.751   4.024  12.682
16294SOL    HW250780  10.688   4.083  12.807
16295SOL     OW50781  10.518  10.151   5.985
16295SOL    HW150782  10.457  10.128   5.914
16295SOL    HW250783  10.600  10.108   5.960
16296SOL     OW50784   5.897   3.766  10.259
16296SOL    HW150785   5.844   3.800  10.331
16296SOL    HW250786   5.951   3.698  10.299
16297SOL     OW50787  11.358   3.067   0.429
16297SOL    HW150788  11.385   3.092   0.341
16297SOL    HW250789  11.266   3.091   0.434
16298SOL     OW50790   8.684   0.111   6.147
16298SOL    HW150791   8.638   0.066   6.218
16298SOL    HW250792   8.746   0.046   6.115
16299SOL     OW50793  14.456  10.020   5.898
16299SOL    HW150794  14.508   9.996   5.974
16299SOL    HW250795  14.506  10.089   5.855
16300SOL     OW50796  11.311   1.461  13.568
16300SOL    HW150797  11.281   1.434  13.482
16300SOL    HW250798  11.398   1.422  13.577
16301SOL     OW50799   2.031   1.067   7.812
16301SOL    HW150800   2.108   1.024   7.850
16301SOL    HW250801   2.031   1.155   7.852
16302SOL     OW50802   5.906  11.890   8.560
16302SOL    HW150803   5.929  11.974   8.600
16302SOL    HW250804   5.816  11.902   8.529
16303SOL     OW50805   4.725  12.719  14.748
16303SOL    HW150806   4.727  12.639  14.800
16303SOL    HW250807   4.737  12.691  14.658
16304SOL     OW50808   9.968   7.389  12.337
16304SOL    HW150809   9.976   7.484  12.330
16304SOL    HW250810   9.908   7.375  12.411
16305SOL     OW50811   5.915   1.809   8.120
16305SOL    HW150812   5.984   1.767   8.068
16305SOL    HW250813   5.848   1.834   8.056
16306SOL     OW50814  10.603   4.480  13.029
16306SOL    HW150815  10.567   4.562  12.996
16306SOL    HW250816  10.697   4.497  13.037
16307SOL     OW50817   0.948   7.664   1.926
16307SOL    HW150818   0.897   7.721   1.869
16307SOL    HW250819   1.021   7.634   1.871
16308SOL     OW50820   5.634  13.252  12.127
16308SOL    HW150821   5.720  13.211  12.127
16308SOL    HW250822   5.575  13.182  12.099
16309SOL     OW50823   4.826   5.592   7.458
16309SOL    HW150824   4.851   5.679   7.426
16309SOL    HW250825   4.744   5.573   7.414
16310SOL     OW50826   2.011  13.148  13.050
16310SOL    HW150827   1.927  13.116  13.084
16310SOL    HW250828   2.044  13.075  12.997
16311SOL     OW50829   1.740   1.172   7.936
16311SOL    HW150830   1.675   1.229   7.978
16311SOL    HW250831   1.745   1.095   7.993
16312SOL     OW50832   4.500   1.966   9.716
16312SOL    HW150833   4.525   2.056   9.697
16312SOL    HW250834   4.419   1.953   9.666
16313SOL     OW50835   1.695  12.422   9.740
16313SOL    HW150836   1.687  12.515   9.719
16313SOL    HW250837   1.619  12.382   9.696
16314SOL     OW50838   1.296   7.843  13.280
16314SOL    HW150839   1.371   7.902  13.284
16314SOL    HW250840   1.220   7.901  13.284
16315SOL     OW50841   3.908   1.844   0.314
16315SOL    HW150842   3.949   1.889   0.388
16315SOL    HW250843   3.979   1.793   0.275
16316SOL     OW50844   5.985  11.123   6.341
16316SOL    HW150845   6.053  11.107   6.406
16316SOL    HW250846   5.904  11.095   6.384
16317SOL     OW50847   7.499   3.218  14.361
16317SOL    HW150848   7.468   3.143  14.410
16317SOL    HW250849   7.530   3.280  14.428
16318SOL     OW50850  10.157   5.942   7.820
16318SOL    HW150851  10.208   5.953   7.739
16318SOL    HW250852  10.125   5.852   7.815
16319SOL     OW50853   5.092   3.294  13.436
16319SOL    HW150854   5.115   3.385  13.416
16319SOL    HW250855   5.175   3.247  13.432
16320SOL     OW50856   6.587   9.290   2.509
16320SOL    HW150857   6.586   9.195   2.519
16320SOL    HW250858   6.532   9.307   2.433
16321SOL     OW50859   8.679   5.583  10.896
16321SOL    HW150860   8.738   5.532  10.951
16321SOL    HW250861   8.700   5.557  10.806
16322SOL     OW50862  12.053  13.349  12.773
16322SOL    HW150863  12.037  13.316  12.862
16322SOL    HW250864  12.135  13.307  12.746
16323SOL     OW50865  10.884  12.862   0.633
16323SOL    HW150866  10.957  12.924   0.634
16323SOL    HW250867  10.837  12.878   0.715
16324SOL     OW50868  13.343  11.586   3.733
16324SOL    HW150869  13.305  11.668   3.766
16324SOL    HW250870  13.280  11.555   3.668
16325SOL     OW50871   4.219   4.416  11.137
16325SOL    HW150872   4.178   4.487  11.188
16325SOL    HW250873   4.238   4.456  11.052
16326SOL     OW50874   4.685   4.408   3.681
16326SOL    HW150875   4.675   4.338   3.746
16326SOL    HW250876   4.596   4.427   3.653
16327SOL     OW50877  12.233  12.100  10.484
16327SOL    HW150878  12.286  12.025  10.509
16327SOL    HW250879  12.177  12.067  10.413
16328SOL     OW50880   1.190   4.418   2.533
16328SOL    HW150881   1.177   4.340   2.479
16328SOL    HW250882   1.254   4.470   2.484
16329SOL     OW50883   5.051   0.744   0.567
16329SOL    HW150884   5.005   0.696   0.636
16329SOL    HW250885   5.070   0.830   0.606
16330SOL     OW50886   3.426   9.841   2.299
16330SOL    HW150887   3.378   9.773   2.251
16330SOL    HW250888   3.504   9.797   2.332
16331SOL     OW50889  13.119  12.936  11.923
16331SOL    HW150890  13.176  13.012  11.925
16331SOL    HW250891  13.168  12.869  11.875
16332SOL     OW50892   8.132   4.268   2.272
16332SOL    HW150893   8.190   4.223   2.332
16332SOL    HW250894   8.188   4.332   2.228
16333SOL     OW50895   2.474   2.638   2.504
16333SOL    HW150896   2.528   2.695   2.450
16333SOL    HW250897   2.411   2.696   2.546
16334SOL     OW50898   6.372  10.399   0.098
16334SOL    HW150899   6.436  10.469   0.116
16334SOL    HW250900   6.287  10.441   0.110
16335SOL     OW50901   9.537   6.116   6.516
16335SOL    HW150902   9.480   6.142   6.589
16335SOL    HW250903   9.480   6.065   6.458
16336SOL     OW50904  13.459   3.025  13.245
16336SOL    HW150905  13.390   3.087  13.224
16336SOL    HW250906  13.488   2.992  13.160
16337SOL     OW50907   1.913  13.113   8.472
16337SOL    HW150908   1.840  13.064   8.435
16337SOL    HW250909   1.929  13.073   8.557
16338SOL     OW50910   2.973   5.290  13.546
16338SOL    HW150911   2.948   5.227  13.478
16338SOL    HW250912   2.896   5.298  13.601
16339SOL     OW50913   3.662   5.658   3.760
16339SOL    HW150914   3.598   5.717   3.720
16339SOL    HW250915   3.631   5.646   3.850
16340SOL     OW50916  11.067   7.125  13.167
16340SOL    HW150917  11.025   7.076  13.096
16340SOL    HW250918  11.093   7.207  13.127
16341SOL     OW50919  13.629   6.001  13.040
16341SOL    HW150920  13.572   6.062  13.087
16341SOL    HW250921  13.660   6.050  12.964
16342SOL     OW50922   3.625  13.935   0.865
16342SOL    HW150923   3.639  13.844   0.894
16342SOL    HW250924   3.542  13.960   0.904
16343SOL     OW50925   2.398   6.424   5.280
16343SOL    HW150926   2.484   6.424   5.238
16343SOL    HW250927   2.414   6.391   5.368
16344SOL     OW50928   5.531  12.312   8.455
16344SOL    HW150929   5.447  12.328   8.499
16344SOL    HW250930   5.511  12.317   8.362
16345SOL     OW50931   0.226  10.606   9.634
16345SOL    HW150932   0.306  10.648   9.602
16345SOL    HW250933   0.256  10.526   9.677
16346SOL     OW50934   6.213  14.384   4.187
16346SOL    HW150935   6.181  14.307   4.142
16346SOL    HW250936   6.273  14.350   4.254
16347SOL     OW50937  11.299   0.439   0.165
16347SOL    HW150938  11.276   0.371   0.229
16347SOL    HW250939  11.219   0.451   0.114
16348SOL     OW50940   1.571  11.754   2.385
16348SOL    HW150941   1.521  11.833   2.407
16348SOL    HW250942   1.583  11.759   2.290
16349SOL     OW50943   6.377   6.936  12.237
16349SOL    HW150944   6.459   6.889  12.252
16349SOL    HW250945   6.385   6.972  12.148
16350SOL     OW50946  12.348   6.608   4.608
16350SOL    HW150947  12.271   6.567   4.647
16350SOL    HW250948  12.313   6.668   4.542
16351SOL     OW50949  11.273  14.262  10.355
16351SOL    HW150950  11.226  14.341  10.330
16351SOL    HW250951  11.288  14.272  10.450
16352SOL     OW50952   8.662   4.231   6.141
16352SOL    HW150953   8.630   4.241   6.051
16352SOL    HW250954   8.583   4.226   6.194
16353SOL     OW50955   1.477   2.937   0.765
16353SOL    HW150956   1.432   2.874   0.822
16353SOL    HW250957   1.552   2.889   0.730
16354SOL     OW50958   1.611  13.907  14.870
16354SOL    HW150959   1.702  13.937  14.862
16354SOL    HW250960   1.616  13.812  14.857
16355SOL     OW50961   1.637   5.928   4.434
16355SOL    HW150962   1.706   5.933   4.500
16355SOL    HW250963   1.661   5.993   4.368
16356SOL     OW50964  11.855   8.933   1.924
16356SOL    HW150965  11.780   8.965   1.975
16356SOL    HW250966  11.908   8.885   1.987
16357SOL     OW50967   4.890   0.814   1.903
16357SOL    HW150968   4.795   0.808   1.912
16357SOL    HW250969   4.923   0.807   1.992
16358SOL     OW50970   4.357  11.350  14.446
16358SOL    HW150971   4.332  11.291  14.517
16358SOL    HW250972   4.285  11.343  14.383
16359SOL     OW50973   8.822   3.689   2.665
16359SOL    HW150974   8.837   3.783   2.663
16359SOL    HW250975   8.749   3.674   2.605
16360SOL     OW50976   2.428  14.310   7.827
16360SOL    HW150977   2.443  14.220   7.800
16360SOL    HW250978   2.470  14.363   7.759
16361SOL     OW50979   7.956  10.542   2.507
16361SOL    HW150980   7.950  10.636   2.523
16361SOL    HW250981   8.045  10.519   2.535
16362SOL     OW50982  13.992   5.774   7.559
16362SOL    HW150983  13.961   5.692   7.520
16362SOL    HW250984  13.957   5.843   7.503
16363SOL     OW50985   2.331  12.149   4.366
16363SOL    HW150986   2.371  12.112   4.445
16363SOL    HW250987   2.383  12.112   4.295
16364SOL     OW50988   3.215  12.948  14.582
16364SOL    HW150989   3.125  12.978  14.589
16364SOL    HW250990   3.223  12.916  14.492
16365SOL     OW50991   9.135   6.716   8.763
16365SOL    HW150992   9.160   6.632   8.723
16365SOL    HW250993   9.080   6.691   8.838
16366SOL     OW50994  11.759   3.834   0.633
16366SOL    HW150995  11.830   3.817   0.694
16366SOL    HW250996  11.736   3.926   0.647
16367SOL     OW50997  13.647   6.986  10.797
16367SOL    HW150998  13.738   7.002  10.775
16367SOL    HW250999  13.626   6.904  10.751
16368SOL     OW51000  10.548   5.923  11.353
16368SOL    HW151001  10.577   5.961  11.436
16368SOL    HW251002  10.491   5.989  11.315
16369SOL     OW51003   0.602   6.940   6.380
16369SOL    HW151004   0.578   7.014   6.436
16369SOL    HW251005   0.534   6.939   6.313
16370SOL     OW51006  13.203  13.525   1.153
16370SOL    HW151007  13.286  13.486   1.181
16370SOL    HW251008  13.174  13.470   1.080
16371SOL     OW51009  10.774  12.155   5.271
16371SOL    HW151010  10.828  12.113   5.204
16371SOL    HW251011  10.833  12.220   5.310
16372SOL     OW51012  10.146   0.180   3.244
16372SOL    HW151013  10.237   0.172   3.216
16372SOL    HW251014  10.129   0.100   3.294
16373SOL     OW51015   1.338   3.830  14.423
16373SOL    HW151016   1.338   3.915  14.467
16373SOL    HW251017   1.272   3.778  14.469
16374SOL     OW51018  13.744   0.098  12.690
16374SOL    HW151019  13.703   0.127  12.771
16374SOL    HW251020  13.729   0.169  12.628
16375SOL     OW51021  10.235   8.457  10.355
16375SOL    HW151022  10.307   8.441  10.417
16375SOL    HW251023  10.231   8.553  10.348
16376SOL     OW51024   8.346   7.121  12.980
16376SOL    HW151025   8.331   7.169  13.061
16376SOL    HW251026   8.268   7.140  12.927
16377SOL     OW51027   2.661  13.561   9.162
16377SOL    HW151028   2.651  13.642   9.210
16377SOL    HW251029   2.724  13.510   9.213
16378SOL     OW51030  10.361   8.783   3.845
16378SOL    HW151031  10.451   8.809   3.827
16378SOL    HW251032  10.343   8.818   3.932
16379SOL     OW51033   2.438  12.124   4.128
16379SOL    HW151034   2.387  12.178   4.069
16379SOL    HW251035   2.521  12.170   4.137
16380SOL     OW51036   4.366   8.151   2.697
16380SOL    HW151037   4.342   8.130   2.606
16380SOL    HW251038   4.282   8.168   2.740
16381SOL     OW51039  11.057   1.024   7.595
16381SOL    HW151040  11.013   1.036   7.679
16381SOL    HW251041  10.999   0.966   7.546
16382SOL     OW51042   0.704  11.015   0.970
16382SOL    HW151043   0.689  11.069   0.892
16382SOL    HW251044   0.763  10.945   0.939
16383SOL     OW51045  10.689   2.034   5.924
16383SOL    HW151046  10.712   1.955   5.974
16383SOL    HW251047  10.619   2.005   5.866
16384SOL     OW51048  13.887   9.064   8.786
16384SOL    HW151049  13.929   9.147   8.764
16384SOL    HW251050  13.821   9.052   8.718
16385SOL     OW51051   0.799  10.466  14.092
16385SOL    HW151052   0.759  10.549  14.116
16385SOL    HW251053   0.827  10.478  14.001
16386SOL     OW51054   7.820   2.295   7.200
16386SOL    HW151055   7.816   2.201   7.220
16386SOL    HW251056   7.836   2.337   7.285
16387SOL     OW51057   7.604  10.119   0.609
16387SOL    HW151058   7.521  10.081   0.581
16387SOL    HW251059   7.612  10.097   0.701
16388SOL     OW51060   6.445   2.475   7.150
16388SOL    HW151061   6.398   2.524   7.217
16388SOL    HW251062   6.403   2.388   7.151
16389SOL     OW51063  10.663   7.993   5.280
16389SOL    HW151064  10.722   7.993   5.356
16389SOL    HW251065  10.670   7.904   5.245
16390SOL     OW51066  10.963   2.362  11.661
16390SOL    HW151067  11.027   2.398  11.723
16390SOL    HW251068  10.911   2.438  11.634
16391SOL     OW51069   3.001   7.290   4.669
16391SOL    HW151070   2.920   7.248   4.697
16391SOL    HW251071   2.974   7.377   4.638
16392SOL     OW51072   7.422   3.773  14.717
16392SOL    HW151073   7.354   3.714  14.748
16392SOL    HW251074   7.503   3.739  14.755
16393SOL     OW51075  11.266   6.844   9.722
16393SOL    HW151076  11.308   6.911   9.668
16393SOL    HW251077  11.179   6.879   9.740
16394SOL     OW51078  11.575  14.283   0.950
16394SOL    HW151079  11.629  14.342   1.003
16394SOL    HW251080  11.637  14.234   0.898
16395SOL     OW51081   2.530   5.799   1.455
16395SOL    HW151082   2.552   5.891   1.440
16395SOL    HW251083   2.435   5.796   1.455
16396SOL     OW51084   0.416   8.884   6.550
16396SOL    HW151085   0.432   8.919   6.463
16396SOL    HW251086   0.376   8.798   6.535
16397SOL     OW51087   0.933   7.399   6.544
16397SOL    HW151088   0.939   7.494   6.546
16397SOL    HW251089   0.877   7.376   6.618
16398SOL     OW51090   5.997   0.188   6.032
16398SOL    HW151091   5.952   0.255   6.085
16398SOL    HW251092   5.931   0.159   5.969
16399SOL     OW51093   6.736   5.371  13.603
16399SOL    HW151094   6.806   5.329  13.554
16399SOL    HW251095   6.707   5.443  13.546
16400SOL     OW51096   1.375   6.509   9.795
16400SOL    HW151097   1.281   6.491   9.798
16400SOL    HW251098   1.395   6.540   9.883
16401SOL     OW51099   5.181  13.133   7.337
16401SOL    HW151100   5.206  13.147   7.429
16401SOL    HW251101   5.086  13.146   7.337
16402SOL     OW51102   9.413  12.704   5.483
16402SOL    HW151103   9.383  12.753   5.559
16402SOL    HW251104   9.332  12.672   5.442
16403SOL     OW51105   7.205  11.527  10.710
16403SOL    HW151106   7.170  11.611  10.737
16403SOL    HW251107   7.269  11.548  10.642
16404SOL     OW51108   1.843  11.762  14.250
16404SOL    HW151109   1.808  11.730  14.167
16404SOL    HW251110   1.869  11.852  14.232
16405SOL     OW51111   9.800   8.964   4.868
16405SOL    HW151112   9.732   8.983   4.932
16405SOL    HW251113   9.867   8.916   4.917
16406SOL     OW51114  13.106  13.510  10.949
16406SOL    HW151115  13.153  13.430  10.925
16406SOL    HW251116  13.095  13.557  10.867
16407SOL     OW51117  14.749   6.289   3.277
16407SOL    HW151118  14.713   6.375   3.253
16407SOL    HW251119  14.735   6.234   3.200
16408SOL     OW51120  14.593   8.515   4.166
16408SOL    HW151121  14.522   8.451   4.165
16408SOL    HW251122  14.602   8.543   4.075
16409SOL     OW51123   6.399   2.756  13.839
16409SOL    HW151124   6.445   2.698  13.898
16409SOL    HW251125   6.363   2.825  13.896
16410SOL     OW51126   0.142  10.448  12.726
16410SOL    HW151127   0.089  10.374  12.756
16410SOL    HW251128   0.232  10.422  12.744
16411SOL     OW51129   0.446  10.720  13.059
16411SOL    HW151130   0.482  10.655  13.119
16411SOL    HW251131   0.353  10.698  13.053
16412SOL     OW51132  10.868   7.729  13.951
16412SOL    HW151133  10.822   7.808  13.979
16412SOL    HW251134  10.844   7.718  13.859
16413SOL     OW51135   1.160   6.160   9.988
16413SOL    HW151136   1.228   6.132   9.928
16413SOL    HW251137   1.207   6.204  10.059
16414SOL     OW51138   5.687  10.468   5.673
16414SOL    HW151139   5.769  10.442   5.715
16414SOL    HW251140   5.629  10.491   5.746
16415SOL     OW51141  12.069  12.975   6.813
16415SOL    HW151142  12.017  12.897   6.834
16415SOL    HW251143  12.134  12.944   6.749
16416SOL     OW51144   1.420   0.159   5.053
16416SOL    HW151145   1.495   0.181   5.108
16416SOL    HW251146   1.375   0.090   5.100
16417SOL     OW51147   6.747   8.883  11.204
16417SOL    HW151148   6.744   8.921  11.116
16417SOL    HW251149   6.829   8.835  11.207
16418SOL     OW51150   0.296   6.738  10.265
16418SOL    HW151151   0.316   6.819  10.218
16418SOL    HW251152   0.373   6.722  10.320
16419SOL     OW51153   3.238  12.531   5.461
16419SOL    HW151154   3.190  12.546   5.379
16419SOL    HW251155   3.192  12.584   5.526
16420SOL     OW51156   6.560  11.118   7.344
16420SOL    HW151157   6.576  11.025   7.361
16420SOL    HW251158   6.596  11.162   7.421
16421SOL     OW51159  12.487  13.690  10.931
16421SOL    HW151160  12.573  13.727  10.911
16421SOL    HW251161  12.457  13.739  11.008
16422SOL     OW51162   6.741   0.250   3.782
16422SOL    HW151163   6.808   0.255   3.714
16422SOL    HW251164   6.764   0.319   3.844
16423SOL     OW51165   0.975   6.024   5.020
16423SOL    HW151166   0.946   5.936   4.997
16423SOL    HW251167   1.000   6.017   5.112
16424SOL     OW51168   5.392   8.522   0.691
16424SOL    HW151169   5.474   8.550   0.734
16424SOL    HW251170   5.358   8.602   0.651
16425SOL     OW51171   1.868   9.976  11.508
16425SOL    HW151172   1.861   9.882  11.520
16425SOL    HW251173   1.916  10.007  11.585
16426SOL     OW51174   2.918   2.237  13.269
16426SOL    HW151175   3.002   2.203  13.240
16426SOL    HW251176   2.855   2.204  13.204
16427SOL     OW51177  11.273   5.225   9.277
16427SOL    HW151178  11.301   5.317   9.281
16427SOL    HW251179  11.257   5.209   9.184
16428SOL     OW51180   2.917   2.715   5.801
16428SOL    HW151181   2.957   2.732   5.887
16428SOL    HW251182   2.978   2.656   5.758
16429SOL     OW51183   7.291   0.836   0.176
16429SOL    HW151184   7.206   0.792   0.181
16429SOL    HW251185   7.294   0.871   0.087
16430SOL     OW51186  12.023  14.217   0.772
16430SOL    HW151187  12.006  14.310   0.756
16430SOL    HW251188  12.103  14.198   0.723
16431SOL     OW51189  10.452   4.762   1.391
16431SOL    HW151190  10.497   4.691   1.346
16431SOL    HW251191  10.378   4.784   1.333
16432SOL     OW51192   2.493   6.370   9.711
16432SOL    HW151193   2.416   6.314   9.706
16432SOL    HW251194   2.461   6.458   9.691
16433SOL     OW51195   7.363  12.311  12.771
16433SOL    HW151196   7.342  12.219  12.789
16433SOL    HW251197   7.437  12.331  12.828
16434SOL     OW51198   5.557   9.965  14.232
16434SOL    HW151199   5.517   9.945  14.317
16434SOL    HW251200   5.482   9.989  14.177
16435SOL     OW51201   4.889   6.760   1.082
16435SOL    HW151202   4.870   6.839   1.032
16435SOL    HW251203   4.964   6.783   1.137
16436SOL     OW51204  14.057   9.608  11.342
16436SOL    HW151205  14.032   9.698  11.320
16436SOL    HW251206  13.976   9.566  11.369
16437SOL     OW51207  13.989   3.617  12.446
16437SOL    HW151208  13.982   3.647  12.356
16437SOL    HW251209  14.046   3.540  12.441
16438SOL     OW51210   3.227   4.632   4.961
16438SOL    HW151211   3.322   4.644   4.962
16438SOL    HW251212   3.194   4.694   5.026
16439SOL     OW51213  11.207   0.928  11.986
16439SOL    HW151214  11.284   0.918  12.042
16439SOL    HW251215  11.202   0.845  11.938
16440SOL     OW51216   6.006   8.158  11.787
16440SOL    HW151217   6.024   8.121  11.873
16440SOL    HW251218   5.978   8.248  11.804
16441SOL     OW51219  12.236   5.120   9.831
16441SOL    HW151220  12.222   5.204   9.874
16441SOL    HW251221  12.316   5.132   9.779
16442SOL     OW51222   5.489   9.000   8.772
16442SOL    HW151223   5.566   9.057   8.762
16442SOL    HW251224   5.525   8.911   8.776
16443SOL     OW51225  10.703   7.166   9.685
16443SOL    HW151226  10.685   7.259   9.671
16443SOL    HW251227  10.652   7.143   9.763
16444SOL     OW51228   3.033   8.990   1.260
16444SOL    HW151229   3.100   9.055   1.283
16444SOL    HW251230   3.068   8.946   1.183
16445SOL     OW51231   5.964   9.282   9.186
16445SOL    HW151232   6.016   9.362   9.187
16445SOL    HW251233   5.881   9.306   9.228
16446SOL     OW51234   0.494   1.379   8.636
16446SOL    HW151235   0.469   1.375   8.544
16446SOL    HW251236   0.573   1.325   8.642
16447SOL     OW51237   6.381   5.774   1.447
16447SOL    HW151238   6.355   5.733   1.365
16447SOL    HW251239   6.370   5.868   1.431
16448SOL     OW51240   0.596   8.043  10.655
16448SOL    HW151241   0.585   7.963  10.604
16448SOL    HW251242   0.578   8.016  10.745
16449SOL     OW51243   0.136   7.277   8.532
16449SOL    HW151244   0.228   7.297   8.515
16449SOL    HW251245   0.094   7.284   8.446
16450SOL     OW51246   0.052   3.610  10.564
16450SOL    HW151247   0.053   3.619  10.468
16450SOL    HW251248  14.853   3.564  10.583
16451SOL     OW51249   7.034   3.798   8.260
16451SOL    HW151250   7.026   3.776   8.352
16451SOL    HW251251   7.072   3.887   8.259
16452SOL     OW51252  13.153   4.129   8.353
16452SOL    HW151253  13.204   4.106   8.430
16452SOL    HW251254  13.067   4.153   8.388
16453SOL     OW51255   5.127   1.040   5.497
16453SOL    HW151256   5.195   1.107   5.488
16453SOL    HW251257   5.090   1.032   5.410
16454SOL     OW51258   5.975  14.065   9.069
16454SOL    HW151259   6.053  14.083   9.121
16454SOL    HW251260   5.902  14.099   9.121
16455SOL     OW51261   5.715  11.630  12.053
16455SOL    HW151262   5.667  11.556  12.090
16455SOL    HW251263   5.807  11.609  12.069
16456SOL     OW51264   8.332   1.455   5.025
16456SOL    HW151265   8.422   1.421   5.022
16456SOL    HW251266   8.298   1.425   5.110
16457SOL     OW51267   9.306  11.510  14.243
16457SOL    HW151268   9.258  11.583  14.204
16457SOL    HW251269   9.397  11.540  14.246
16458SOL     OW51270  11.769  13.769  10.283
16458SOL    HW151271  11.694  13.713  10.260
16458SOL    HW251272  11.730  13.847  10.320
16459SOL     OW51273   1.585   1.526   9.795
16459SOL    HW151274   1.572   1.475   9.875
16459SOL    HW251275   1.669   1.496   9.760
16460SOL     OW51276   7.289   0.981   2.892
16460SOL    HW151277   7.225   0.911   2.881
16460SOL    HW251278   7.244   1.060   2.864
16461SOL     OW51279   6.328   5.855   6.438
16461SOL    HW151280   6.322   5.768   6.478
16461SOL    HW251281   6.361   5.837   6.349
16462SOL     OW51282   5.661  10.281   4.105
16462SOL    HW151283   5.721  10.354   4.089
16462SOL    HW251284   5.604  10.312   4.175
16463SOL     OW51285  13.685  13.918  13.170
16463SOL    HW151286  13.651  13.855  13.233
16463SOL    HW251287  13.673  13.875  13.085
16464SOL     OW51288   6.950  10.602   8.212
16464SOL    HW151289   7.013  10.577   8.144
16464SOL    HW251290   6.950  10.528   8.272
16465SOL     OW51291   3.696   4.732   3.304
16465SOL    HW151292   3.716   4.810   3.253
16465SOL    HW251293   3.678   4.766   3.392
16466SOL     OW51294   8.735  10.594   7.095
16466SOL    HW151295   8.755  10.687   7.083
16466SOL    HW251296   8.659  10.578   7.040
16467SOL     OW51297  13.717   2.790  10.189
16467SOL    HW151298  13.640   2.803  10.245
16467SOL    HW251299  13.792   2.805  10.247
16468SOL     OW51300  14.587  10.934   7.194
16468SOL    HW151301  14.494  10.957   7.191
16468SOL    HW251302  14.587  10.842   7.221
16469SOL     OW51303   1.033   4.086   1.411
16469SOL    HW151304   1.079   4.074   1.327
16469SOL    HW251305   1.064   4.170   1.443
16470SOL     OW51306   3.696  12.477   3.122
16470SOL    HW151307   3.606  12.465   3.152
16470SOL    HW251308   3.721  12.563   3.156
16471SOL     OW51309   2.908   4.947   7.985
16471SOL    HW151310   2.812   4.947   7.976
16471SOL    HW251311   2.931   4.854   7.991
16472SOL     OW51312   6.560  11.089   1.673
16472SOL    HW151313   6.552  10.994   1.684
16472SOL    HW251314   6.478  11.124   1.708
16473SOL     OW51315   9.288  11.633   7.660
16473SOL    HW151316   9.362  11.614   7.717
16473SOL    HW251317   9.223  11.565   7.681
16474SOL     OW51318   9.142  13.075  13.327
16474SOL    HW151319   9.144  13.061  13.421
16474SOL    HW251320   9.223  13.036  13.295
16475SOL     OW51321   8.776   2.927   3.957
16475SOL    HW151322   8.776   3.022   3.945
16475SOL    HW251323   8.715   2.912   4.029
16476SOL     OW51324  12.798   4.252   0.764
16476SOL    HW151325  12.707   4.257   0.734
16476SOL    HW251326  12.825   4.344   0.772
16477SOL     OW51327   4.386   2.417   5.688
16477SOL    HW151328   4.357   2.502   5.654
16477SOL    HW251329   4.482   2.421   5.682
16478SOL     OW51330  10.644   7.679   6.204
16478SOL    HW151331  10.679   7.756   6.249
16478SOL    HW251332  10.562   7.710   6.164
16479SOL     OW51333   1.763   9.460  13.012
16479SOL    HW151334   1.782   9.368  12.994
16479SOL    HW251335   1.764   9.501  12.926
16480SOL     OW51336  13.818  14.279   5.669
16480SOL    HW151337  13.880  14.293   5.596
16480SOL    HW251338  13.872  14.283   5.747
16481SOL     OW51339  11.530   0.412   2.645
16481SOL    HW151340  11.490   0.487   2.689
16481SOL    HW251341  11.461   0.378   2.588
16482SOL     OW51342   1.699   2.979  11.696
16482SOL    HW151343   1.789   2.967  11.664
16482SOL    HW251344   1.698   2.934  11.780
16483SOL     OW51345  10.274   5.224   2.985
16483SOL    HW151346  10.368   5.242   2.992
16483SOL    HW251347  10.236   5.305   2.950
16484SOL     OW51348  14.131   2.577  12.746
16484SOL    HW151349  14.095   2.514  12.683
16484SOL    HW251350  14.214   2.538  12.773
16485SOL     OW51351  12.457   6.033   3.729
16485SOL    HW151352  12.420   6.079   3.653
16485SOL    HW251353  12.468   5.943   3.700
16486SOL     OW51354  11.081  12.139   8.748
16486SOL    HW151355  11.053  12.221   8.707
16486SOL    HW251356  11.147  12.103   8.688
16487SOL     OW51357   6.747  10.314   6.483
16487SOL    HW151358   6.760  10.292   6.575
16487SOL    HW251359   6.762  10.409   6.479
16488SOL     OW51360  13.486   4.077   7.309
16488SOL    HW151361  13.541   4.137   7.360
16488SOL    HW251362  13.409   4.063   7.364
16489SOL     OW51363   3.616  10.162  12.742
16489SOL    HW151364   3.660  10.126  12.820
16489SOL    HW251365   3.550  10.221  12.778
16490SOL     OW51366  13.763  13.374  11.537
16490SOL    HW151367  13.732  13.370  11.447
16490SOL    HW251368  13.856  13.396  11.530
16491SOL     OW51369   0.677   1.616  11.020
16491SOL    HW151370   0.601   1.558  11.025
16491SOL    HW251371   0.680   1.644  10.929
16492SOL     OW51372  14.023   1.823  10.981
16492SOL    HW151373  13.976   1.851  10.903
16492SOL    HW251374  13.954   1.797  11.043
16493SOL     OW51375   0.479   1.101  10.493
16493SOL    HW151376   0.563   1.110  10.448
16493SOL    HW251377   0.421   1.062  10.428
16494SOL     OW51378   2.760   6.235   4.368
16494SOL    HW151379   2.668   6.211   4.377
16494SOL    HW251380   2.808   6.153   4.380
16495SOL     OW51381   6.643   7.523   4.924
16495SOL    HW151382   6.566   7.574   4.951
16495SOL    HW251383   6.700   7.523   5.001
16496SOL     OW51384  13.002  10.282   5.617
16496SOL    HW151385  13.071  10.266   5.553
16496SOL    HW251386  12.923  10.293   5.565
16497SOL     OW51387   3.790   7.153  13.305
16497SOL    HW151388   3.715   7.094  13.292
16497SOL    HW251389   3.754   7.240  13.292
16498SOL     OW51390   2.844  13.593  12.523
16498SOL    HW151391   2.771  13.602  12.585
16498SOL    HW251392   2.802  13.576  12.439
16499SOL     OW51393   6.847  11.749   3.325
16499SOL    HW151394   6.817  11.811   3.258
16499SOL    HW251395   6.767  11.719   3.368
16500SOL     OW51396   4.153   5.558   1.850
16500SOL    HW151397   4.131   5.636   1.901
16500SOL    HW251398   4.177   5.593   1.764
16501SOL     OW51399   2.542   9.212  13.535
16501SOL    HW151400   2.543   9.223  13.630
16501SOL    HW251401   2.460   9.167  13.516
16502SOL     OW51402   2.552   6.470  10.081
16502SOL    HW151403   2.547   6.487  10.175
16502SOL    HW251404   2.625   6.523  10.050
16503SOL     OW51405   4.924   4.915  12.881
16503SOL    HW151406   4.862   4.854  12.921
16503SOL    HW251407   5.007   4.866  12.878
16504SOL     OW51408  13.838   1.961   3.336
16504SOL    HW151409  13.799   1.980   3.250
16504SOL    HW251410  13.922   1.919   3.315
16505SOL     OW51411  13.485   2.953   2.367
16505SOL    HW151412  13.575   2.977   2.345
16505SOL    HW251413  13.449   3.031   2.409
16506SOL     OW51414   0.141   4.406   3.251
16506SOL    HW151415   0.154   4.455   3.332
16506SOL    HW251416   0.203   4.445   3.190
16507SOL     OW51417  14.716   3.854   9.249
16507SOL    HW151418  14.723   3.775   9.195
16507SOL    HW251419  14.761   3.922   9.198
16508SOL     OW51420   1.459  11.389   1.350
16508SOL    HW151421   1.536  11.424   1.305
16508SOL    HW251422   1.389  11.392   1.285
16509SOL     OW51423   9.972  10.201  11.001
16509SOL    HW151424  10.029  10.212  11.077
16509SOL    HW251425   9.982  10.282  10.951
16510SOL     OW51426   8.584   4.846  14.171
16510SOL    HW151427   8.562   4.867  14.080
16510SOL    HW251428   8.529   4.905  14.223
16511SOL     OW51429  13.780   3.372   7.283
16511SOL    HW151430  13.759   3.300   7.223
16511SOL    HW251431  13.752   3.451   7.236
16512SOL     OW51432  10.066   2.063   1.831
16512SOL    HW151433  10.055   2.015   1.749
16512SOL    HW251434  10.147   2.113   1.818
16513SOL     OW51435   2.675   6.456   4.073
16513SOL    HW151436   2.765   6.473   4.101
16513SOL    HW251437   2.632   6.419   4.150
16514SOL     OW51438   3.471  13.176   7.558
16514SOL    HW151439   3.553  13.223   7.572
16514SOL    HW251440   3.498  13.092   7.520
16515SOL     OW51441   8.968   1.379   5.371
16515SOL    HW151442   8.883   1.403   5.334
16515SOL    HW251443   8.947   1.333   5.453
16516SOL     OW51444   7.449   7.331   0.270
16516SOL    HW151445   7.541   7.321   0.295
16516SOL    HW251446   7.412   7.385   0.340
16517SOL     OW51447  12.549   9.046   5.747
16517SOL    HW151448  12.494   8.968   5.738
16517SOL    HW251449  12.499   9.115   5.704
16518SOL     OW51450  14.842   9.034   4.527
16518SOL    HW151451  14.880   9.112   4.567
16518SOL    HW251452  14.809   9.063   4.442
16519SOL     OW51453   3.195  11.452   2.621
16519SOL    HW151454   3.264  11.428   2.683
16519SOL    HW251455   3.123  11.392   2.641
16520SOL     OW51456  14.881   1.539   4.265
16520SOL    HW151457   0.086   1.569   4.242
16520SOL    HW251458  14.861   1.584   4.348
16521SOL     OW51459   6.480  14.659   0.821
16521SOL    HW151460   6.507  14.570   0.796
16521SOL    HW251461   6.386  14.661   0.803
16522SOL     OW51462   6.985   9.622  13.414
16522SOL    HW151463   6.999   9.583  13.500
16522SOL    HW251464   6.898   9.592  13.388
16523SOL     OW51465   6.206   5.647   9.357
16523SOL    HW151466   6.205   5.672   9.450
16523SOL    HW251467   6.129   5.689   9.320
16524SOL     OW51468  14.485  11.167   2.274
16524SOL    HW151469  14.428  11.241   2.251
16524SOL    HW251470  14.571  11.206   2.287
16525SOL     OW51471  11.631   7.704   1.985
16525SOL    HW151472  11.717   7.665   1.972
16525SOL    HW251473  11.649   7.792   2.018
16526SOL     OW51474  12.633   9.276   5.328
16526SOL    HW151475  12.589   9.193   5.308
16526SOL    HW251476  12.691   9.256   5.401
16527SOL     OW51477   6.548  14.817  12.782
16527SOL    HW151478   6.469  14.765  12.798
16527SOL    HW251479   6.597  14.768  12.715
16528SOL     OW51480   5.612  12.760   7.962
16528SOL    HW151481   5.613  12.665   7.977
16528SOL    HW251482   5.547  12.793   8.024
16529SOL     OW51483  11.778  10.604   0.212
16529SOL    HW151484  11.704  10.573   0.265
16529SOL    HW251485  11.831  10.526   0.198
16530SOL     OW51486   4.417   1.008   6.060
16530SOL    HW151487   4.459   0.923   6.045
16530SOL    HW251488   4.478   1.056   6.114
16531SOL     OW51489  10.639   5.481  11.129
16531SOL    HW151490  10.595   5.489  11.044
16531SOL    HW251491  10.621   5.564  11.173
16532SOL     OW51492   7.829   3.608   4.493
16532SOL    HW151493   7.859   3.606   4.402
16532SOL    HW251494   7.779   3.527   4.504
16533SOL     OW51495   6.518  13.143   0.041
16533SOL    HW151496   6.562  13.209  14.868
16533SOL    HW251497   6.432  13.181   0.059
16534SOL     OW51498   8.641  12.198  11.441
16534SOL    HW151499   8.627  12.201  11.346
16534SOL    HW251500   8.732  12.224  11.452
16535SOL     OW51501   8.007   8.068   5.039
16535SOL    HW151502   8.064   8.013   5.091
16535SOL    HW251503   7.978   8.137   5.099
16536SOL     OW51504  14.637   5.088   1.378
16536SOL    HW151505  14.678   5.129   1.301
16536SOL    HW251506  14.711   5.068   1.436
16537SOL     OW51507   1.290   2.202   2.200
16537SOL    HW151508   1.369   2.236   2.241
16537SOL    HW251509   1.319   2.122   2.155
16538SOL     OW51510   4.118   6.063   9.151
16538SOL    HW151511   4.069   6.074   9.070
16538SOL    HW251512   4.059   6.013   9.208
16539SOL     OW51513   9.063  14.016  10.712
16539SOL    HW151514   9.078  13.923  10.730
16539SOL    HW251515   9.111  14.062  10.780
16540SOL     OW51516   4.455  13.927  12.811
16540SOL    HW151517   4.378  13.983  12.806
16540SOL    HW251518   4.524  13.986  12.842
16541SOL     OW51519   1.826   0.434   1.649
16541SOL    HW151520   1.757   0.496   1.630
16541SOL    HW251521   1.839   0.386   1.567
16542SOL     OW51522   0.458  11.332   8.304
16542SOL    HW151523   0.461  11.428   8.304
16542SOL    HW251524   0.497  11.307   8.221
16543SOL     OW51525  10.146  11.795   6.832
16543SOL    HW151526  10.082  11.738   6.875
16543SOL    HW251527  10.124  11.789   6.739
16544SOL     OW51528   0.187   5.129  10.887
16544SOL    HW151529   0.204   5.133  10.981
16544SOL    HW251530   0.138   5.048  10.874
16545SOL     OW51531  10.367  13.290  13.916
16545SOL    HW151532  10.402  13.294  13.828
16545SOL    HW251533  10.387  13.201  13.946
16546SOL     OW51534  11.989   3.682   2.615
16546SOL    HW151535  12.048   3.704   2.687
16546SOL    HW251536  12.019   3.735   2.541
16547SOL     OW51537   0.181   8.796   6.816
16547SOL    HW151538   0.164   8.702   6.812
16547SOL    HW251539   0.267   8.804   6.856
16548SOL     OW51540   3.488   3.152   6.666
16548SOL    HW151541   3.514   3.121   6.579
16548SOL    HW251542   3.494   3.247   6.660
16549SOL     OW51543  14.599  13.004   6.014
16549SOL    HW151544  14.590  13.097   5.990
16549SOL    HW251545  14.519  12.984   6.063
16550SOL     OW51546   4.144  10.287   3.525
16550SOL    HW151547   4.052  10.277   3.551
16550SOL    HW251548   4.193  10.249   3.598
16551SOL     OW51549   7.770   6.511   1.550
16551SOL    HW151550   7.797   6.593   1.509
16551SOL    HW251551   7.803   6.442   1.492
16552SOL     OW51552   0.742  11.071  10.860
16552SOL    HW151553   0.691  11.136  10.909
16552SOL    HW251554   0.739  11.103  10.769
16553SOL     OW51555   3.515   4.983   6.776
16553SOL    HW151556   3.479   5.071   6.790
16553SOL    HW251557   3.606   4.990   6.803
16554SOL     OW51558  13.291   4.477   6.382
16554SOL    HW151559  13.245   4.394   6.398
16554SOL    HW251560  13.225   4.534   6.344
16555SOL     OW51561  14.814   6.231  12.274
16555SOL    HW151562  14.793   6.141  12.251
16555SOL    HW251563   0.000   6.224  12.340
16556SOL     OW51564   5.857  12.256   5.712
16556SOL    HW151565   5.788  12.300   5.662
16556SOL    HW251566   5.875  12.315   5.785
16557SOL     OW51567   0.828   8.510   5.858
16557SOL    HW151568   0.902   8.491   5.801
16557SOL    HW251569   0.861   8.495   5.947
16558SOL     OW51570   4.378   9.529   4.453
16558SOL    HW151571   4.350   9.444   4.486
16558SOL    HW251572   4.297   9.581   4.452
16559SOL     OW51573   0.463  13.534   8.582
16559SOL    HW151574   0.517  13.613   8.582
16559SOL    HW251575   0.376  13.564   8.555
16560SOL     OW51576   1.072   5.096   7.058
16560SOL    HW151577   1.069   5.078   7.152
16560SOL    HW251578   1.010   5.168   7.045
16561SOL     OW51579   8.523   1.985   3.019
16561SOL    HW151580   8.542   2.071   2.983
16561SOL    HW251581   8.550   1.991   3.111
16562SOL     OW51582  13.453   3.110   7.129
16562SOL    HW151583  13.446   3.018   7.154
16562SOL    HW251584  13.547   3.128   7.132
16563SOL     OW51585  14.866  12.127   8.317
16563SOL    HW151586  14.858  12.210   8.365
16563SOL    HW251587  14.849  12.059   8.382
16564SOL     OW51588   7.596   4.701   2.164
16564SOL    HW151589   7.609   4.641   2.092
16564SOL    HW251590   7.602   4.646   2.243
16565SOL     OW51591  11.448   1.965   6.963
16565SOL    HW151592  11.395   2.044   6.950
16565SOL    HW251593  11.525   1.995   7.011
16566SOL     OW51594  14.319  11.028  11.412
16566SOL    HW151595  14.275  11.112  11.402
16566SOL    HW251596  14.248  10.966  11.428
16567SOL     OW51597  13.151   8.483   8.227
16567SOL    HW151598  13.202   8.402   8.219
16567SOL    HW251599  13.173   8.533   8.148
16568SOL     OW51600   0.790  14.315   7.767
16568SOL    HW151601   0.885  14.313   7.770
16568SOL    HW251602   0.763  14.337   7.857
16569SOL     OW51603   3.908  12.823   5.169
16569SOL    HW151604   3.869  12.859   5.249
16569SOL    HW251605   3.918  12.729   5.187
16570SOL     OW51606   9.047   2.227   9.339
16570SOL    HW151607   8.957   2.256   9.358
16570SOL    HW251608   9.073   2.177   9.417
16571SOL     OW51609   9.534   3.614   2.739
16571SOL    HW151610   9.571   3.691   2.784
16571SOL    HW251611   9.464   3.584   2.796
16572SOL     OW51612   1.421  10.137  10.443
16572SOL    HW151613   1.386  10.176  10.524
16572SOL    HW251614   1.482  10.070  10.474
16573SOL     OW51615   6.036   5.289   4.423
16573SOL    HW151616   6.011   5.309   4.333
16573SOL    HW251617   6.131   5.287   4.422
16574SOL     OW51618  14.532  11.657  10.032
16574SOL    HW151619  14.517  11.628  10.122
16574SOL    HW251620  14.600  11.723  10.039
16575SOL     OW51621  14.723   8.106  11.823
16575SOL    HW151622  14.798   8.054  11.852
16575SOL    HW251623  14.763   8.182  11.780
16576SOL     OW51624   7.625  13.021  12.763
16576SOL    HW151625   7.559  13.087  12.740
16576SOL    HW251626   7.614  13.009  12.857
16577SOL     OW51627   3.958  10.216   5.910
16577SOL    HW151628   3.959  10.279   5.838
16577SOL    HW251629   3.890  10.154   5.887
16578SOL     OW51630   0.894   9.826   5.302
16578SOL    HW151631   0.801   9.815   5.322
16578SOL    HW251632   0.939   9.797   5.381
16579SOL     OW51633   4.780   6.997  14.850
16579SOL    HW151634   4.861   7.022  14.805
16579SOL    HW251635   4.762   7.070   0.027
16580SOL     OW51636  13.608   3.898   5.610
16580SOL    HW151637  13.616   3.993   5.610
16580SOL    HW251638  13.682   3.867   5.558
16581SOL     OW51639  13.552   0.678   6.177
16581SOL    HW151640  13.614   0.686   6.105
16581SOL    HW251641  13.469   0.652   6.136
16582SOL     OW51642   5.484  13.219  14.026
16582SOL    HW151643   5.526  13.132  14.027
16582SOL    HW251644   5.549  13.276  14.067
16583SOL     OW51645  11.803   7.637   0.416
16583SOL    HW151646  11.866   7.709   0.423
16583SOL    HW251647  11.788   7.627   0.322
16584SOL     OW51648   9.788   9.222   2.266
16584SOL    HW151649   9.771   9.260   2.352
16584SOL    HW251650   9.801   9.298   2.209
16585SOL     OW51651   2.507   6.802  11.462
16585SOL    HW151652   2.599   6.777  11.464
16585SOL    HW251653   2.460   6.720  11.446
16586SOL     OW51654   2.201   4.054   3.490
16586SOL    HW151655   2.113   4.092   3.497
16586SOL    HW251656   2.221   4.027   3.580
16587SOL     OW51657  14.466  10.347  13.340
16587SOL    HW151658  14.519  10.389  13.407
16587SOL    HW251659  14.527  10.290  13.294
16588SOL     OW51660  12.238   8.943  13.228
16588SOL    HW151661  12.302   8.874  13.246
16588SOL    HW251662  12.230   8.945  13.133
16589SOL     OW51663   8.510  13.985  12.088
16589SOL    HW151664   8.488  14.070  12.126
16589SOL    HW251665   8.487  13.993  11.996
16590SOL     OW51666  12.948   5.705  10.631
16590SOL    HW151667  12.887   5.773  10.602
16590SOL    HW251668  12.943   5.637  10.564
16591SOL     OW51669  13.602  12.645   2.025
16591SOL    HW151670  13.679  12.620   2.076
16591SOL    HW251671  13.558  12.711   2.079
16592SOL     OW51672   9.803   0.941  13.022
16592SOL    HW151673   9.765   0.961  12.936
16592SOL    HW251674   9.736   0.966  13.085
16593SOL     OW51675   4.937   6.176  12.154
16593SOL    HW151676   4.915   6.204  12.066
16593SOL    HW251677   4.934   6.256  12.206
16594SOL     OW51678  14.164   9.815   5.202
16594SOL    HW151679  14.124   9.806   5.115
16594SOL    HW251680  14.257   9.799   5.187
16595SOL     OW51681  10.456   8.208   4.998
16595SOL    HW151682  10.494   8.258   5.071
16595SOL    HW251683  10.424   8.275   4.937
16596SOL     OW51684   2.322  14.003  11.617
16596SOL    HW151685   2.302  13.938  11.684
16596SOL    HW251686   2.245  14.004  11.561
16597SOL     OW51687   0.638   5.785  12.120
16597SOL    HW151688   0.543   5.787  12.107
16597SOL    HW251689   0.664   5.877  12.118
16598SOL     OW51690   4.861  13.776  11.579
16598SOL    HW151691   4.874  13.799  11.487
16598SOL    HW251692   4.942  13.803  11.622
16599SOL     OW51693   9.775   8.196   0.419
16599SOL    HW151694   9.783   8.130   0.351
16599SOL    HW251695   9.861   8.198   0.461
16600SOL     OW51696   1.133   6.535  11.013
16600SOL    HW151697   1.098   6.526  11.101
16600SOL    HW251698   1.055   6.540  10.957
16601SOL     OW51699   2.899  14.071  10.969
16601SOL    HW151700   2.899  14.102  10.879
16601SOL    HW251701   2.844  13.992  10.967
16602SOL     OW51702  10.717   0.743   4.301
16602SOL    HW151703  10.787   0.747   4.366
16602SOL    HW251704  10.725   0.655   4.263
16603SOL     OW51705   0.409  10.535   4.079
16603SOL    HW151706   0.418  10.478   4.003
16603SOL    HW251707   0.431  10.480   4.154
16604SOL     OW51708   5.713   0.906  13.291
16604SOL    HW151709   5.650   0.959  13.243
16604SOL    HW251710   5.764   0.970  13.341
16605SOL     OW51711   6.361   3.060   1.585
16605SOL    HW151712   6.430   3.050   1.519
16605SOL    HW251713   6.368   3.150   1.615
16606SOL     OW51714   4.236   3.787  13.704
16606SOL    HW151715   4.307   3.829  13.657
16606SOL    HW251716   4.272   3.703  13.731
16607SOL     OW51717   8.929   2.198  12.491
16607SOL    HW151718   9.008   2.217  12.541
16607SOL    HW251719   8.943   2.241  12.407
16608SOL     OW51720   1.671   0.463   9.653
16608SOL    HW151721   1.636   0.383   9.690
16608SOL    HW251722   1.646   0.532   9.715
16609SOL     OW51723   4.436   6.569   3.666
16609SOL    HW151724   4.430   6.494   3.608
16609SOL    HW251725   4.360   6.623   3.644
16610SOL     OW51726  10.630  13.013   3.375
16610SOL    HW151727  10.653  13.053   3.291
16610SOL    HW251728  10.546  13.053   3.398
16611SOL     OW51729  14.402  10.639   2.597
16611SOL    HW151730  14.483  10.590   2.588
16611SOL    HW251731  14.388  10.678   2.511
16612SOL     OW51732   4.524  11.867  14.588
16612SOL    HW151733   4.457  11.838  14.650
16612SOL    HW251734   4.605  11.831  14.622
16613SOL     OW51735   9.077   6.813  14.781
16613SOL    HW151736   9.091   6.884  14.719
16613SOL    HW251737   9.122   6.841  14.861
16614SOL     OW51738   8.069   9.741   3.956
16614SOL    HW151739   8.159   9.732   3.987
16614SOL    HW251740   8.029   9.803   4.017
16615SOL     OW51741   9.948   8.895  12.882
16615SOL    HW151742   9.945   8.974  12.827
16615SOL    HW251743   9.981   8.925  12.966
16616SOL     OW51744   5.499   5.961   2.827
16616SOL    HW151745   5.408   5.954   2.855
16616SOL    HW251746   5.507   6.050   2.794
16617SOL     OW51747   0.516   6.159   6.537
16617SOL    HW151748   0.553   6.247   6.534
16617SOL    HW251749   0.438   6.167   6.591
16618SOL     OW51750   9.266   1.237   4.623
16618SOL    HW151751   9.281   1.171   4.555
16618SOL    HW251752   9.353   1.275   4.637
16619SOL     OW51753  13.218  13.268  10.885
16619SOL    HW151754  13.154  13.234  10.823
16619SOL    HW251755  13.284  13.199  10.892
16620SOL     OW51756   7.548   9.287   2.970
16620SOL    HW151757   7.558   9.382   2.963
16620SOL    HW251758   7.636   9.252   2.959
16621SOL     OW51759  13.790   8.867   1.881
16621SOL    HW151760  13.731   8.796   1.906
16621SOL    HW251761  13.799   8.858   1.786
16622SOL     OW51762   3.793   8.267   4.612
16622SOL    HW151763   3.773   8.196   4.551
16622SOL    HW251764   3.744   8.244   4.691
16623SOL     OW51765   1.486   5.019   6.817
16623SOL    HW151766   1.507   5.030   6.724
16623SOL    HW251767   1.416   5.082   6.834
16624SOL     OW51768  14.562   8.745   6.593
16624SOL    HW151769  14.521   8.796   6.523
16624SOL    HW251770  14.530   8.786   6.674
16625SOL     OW51771   6.115  12.307  13.192
16625SOL    HW151772   6.189  12.301  13.252
16625SOL    HW251773   6.083  12.217  13.184
16626SOL     OW51774  14.043  13.161   3.447
16626SOL    HW151775  14.136  13.175   3.465
16626SOL    HW251776  14.013  13.104   3.518
16627SOL     OW51777   4.737   2.478   4.898
16627SOL    HW151778   4.721   2.499   4.806
16627SOL    HW251779   4.827   2.444   4.899
16628SOL     OW51780   5.277   7.073  13.380
16628SOL    HW151781   5.253   7.151  13.329
16628SOL    HW251782   5.285   7.105  13.470
16629SOL     OW51783   3.461   7.310  11.539
16629SOL    HW151784   3.423   7.222  11.539
16629SOL    HW251785   3.407   7.360  11.600
16630SOL     OW51786   7.391   8.774   4.717
16630SOL    HW151787   7.413   8.780   4.624
16630SOL    HW251788   7.444   8.843   4.759
16631SOL     OW51789   2.418  13.030  12.341
16631SOL    HW151790   2.491  12.977  12.375
16631SOL    HW251791   2.352  12.966  12.315
16632SOL     OW51792  10.848   0.207  14.576
16632SOL    HW151793  10.900   0.227  14.653
16632SOL    HW251794  10.864   0.280  14.516
16633SOL     OW51795   3.376  10.219   6.501
16633SOL    HW151796   3.294  10.261   6.476
16633SOL    HW251797   3.440  10.250   6.437
16634SOL     OW51798   0.381  12.480   3.761
16634SOL    HW151799   0.392  12.524   3.677
16634SOL    HW251800   0.469  12.470   3.795
16635SOL     OW51801  14.496  12.014  11.329
16635SOL    HW151802  14.581  11.971  11.341
16635SOL    HW251803  14.518  12.104  11.304
16636SOL     OW51804   0.610  12.201   0.798
16636SOL    HW151805   0.668  12.266   0.757
16636SOL    HW251806   0.668  12.133   0.831
16637SOL     OW51807   5.093  10.454   5.139
16637SOL    HW151808   5.184  10.455   5.111
16637SOL    HW251809   5.096  10.461   5.234
16638SOL     OW51810   0.855   1.581   0.785
16638SOL    HW151811   0.902   1.500   0.764
16638SOL    HW251812   0.763   1.559   0.772
16639SOL     OW51813  14.019  11.997   6.514
16639SOL    HW151814  13.943  12.049   6.541
16639SOL    HW251815  14.092  12.059   6.514
16640SOL     OW51816  11.658   4.522   0.180
16640SOL    HW151817  11.667   4.481   0.094
16640SOL    HW251818  11.565   4.513   0.201
16641SOL     OW51819   6.003   5.392   7.974
16641SOL    HW151820   6.010   5.434   8.059
16641SOL    HW251821   6.023   5.461   7.911
16642SOL     OW51822   0.719  11.208  10.418
16642SOL    HW151823   0.714  11.137  10.482
16642SOL    HW251824   0.638  11.200  10.367
16643SOL     OW51825   1.959  13.959  12.471
16643SOL    HW151826   1.917  13.941  12.387
16643SOL    HW251827   2.041  13.908  12.468
16644SOL     OW51828   1.571   3.985   1.888
16644SOL    HW151829   1.511   4.013   1.958
16644SOL    HW251830   1.557   4.049   1.818
16645SOL     OW51831  12.147   2.203  11.752
16645SOL    HW151832  12.241   2.213  11.765
16645SOL    HW251833  12.139   2.162  11.666
16646SOL     OW51834   2.224  11.957  12.675
16646SOL    HW151835   2.319  11.960  12.671
16646SOL    HW251836   2.196  12.008  12.598
16647SOL     OW51837   5.162  14.178   3.134
16647SOL    HW151838   5.175  14.135   3.218
16647SOL    HW251839   5.235  14.148   3.080
16648SOL     OW51840  12.929  14.309   6.442
16648SOL    HW151841  12.996  14.326   6.376
16648SOL    HW251842  12.899  14.220   6.423
16649SOL     OW51843  11.027   1.616   4.320
16649SOL    HW151844  11.089   1.675   4.277
16649SOL    HW251845  10.963   1.595   4.252
16650SOL     OW51846  14.748  14.153   6.656
16650SOL    HW151847  14.691  14.204   6.713
16650SOL    HW251848  14.799  14.219   6.608
16651SOL     OW51849   3.187  11.943   5.947
16651SOL    HW151850   3.109  11.994   5.926
16651SOL    HW251851   3.159  11.884   6.017
16652SOL     OW51852  11.377   9.736  12.124
16652SOL    HW151853  11.346   9.646  12.127
16652SOL    HW251854  11.461   9.734  12.170
16653SOL     OW51855  13.213  12.729  13.121
16653SOL    HW151856  13.258  12.649  13.148
16653SOL    HW251857  13.121  12.703  13.111
16654SOL     OW51858   4.011   5.087   9.340
16654SOL    HW151859   3.984   5.002   9.306
16654SOL    HW251860   3.959   5.099   9.419
16655SOL     OW51861  14.152  12.014   1.502
16655SOL    HW151862  14.189  12.030   1.588
16655SOL    HW251863  14.210  12.060   1.441
16656SOL     OW51864   1.513   2.302   0.129
16656SOL    HW151865   1.465   2.381   0.105
16656SOL    HW251866   1.550   2.320   0.215
16657SOL     OW51867  14.192   4.933   1.815
16657SOL    HW151868  14.110   4.883   1.816
16657SOL    HW251869  14.186   4.991   1.890
16658SOL     OW51870   8.121  10.749  12.650
16658SOL    HW151871   8.090  10.834  12.682
16658SOL    HW251872   8.177  10.771  12.576
16659SOL     OW51873  10.186  11.642   8.235
16659SOL    HW151874  10.199  11.683   8.321
16659SOL    HW251875  10.272  11.605   8.213
16660SOL     OW51876   2.391   4.818   1.174
16660SOL    HW151877   2.365   4.908   1.154
16660SOL    HW251878   2.419   4.821   1.266
16661SOL     OW51879   4.562   0.449  13.873
16661SOL    HW151880   4.603   0.463  13.959
16661SOL    HW251881   4.479   0.405  13.893
16662SOL     OW51882  11.956  10.437   1.144
16662SOL    HW151883  11.900  10.465   1.216
16662SOL    HW251884  11.896  10.417   1.073
16663SOL     OW51885   3.751   8.160  13.638
16663SOL    HW151886   3.666   8.155  13.683
16663SOL    HW251887   3.770   8.253  13.632
16664SOL     OW51888  11.324  12.002   0.129
16664SOL    HW151889  11.366  12.034   0.049
16664SOL    HW251890  11.368  11.919   0.148
16665SOL     OW51891  11.190   9.714   6.154
16665SOL    HW151892  11.223   9.776   6.089
16665SOL    HW251893  11.262   9.654   6.168
16666SOL     OW51894   8.189   2.817   2.356
16666SOL    HW151895   8.280   2.788   2.356
16666SOL    HW251896   8.191   2.900   2.404
16667SOL     OW51897   4.664   2.604   7.177
16667SOL    HW151898   4.604   2.624   7.105
16667SOL    HW251899   4.641   2.515   7.203
16668SOL     OW51900   3.758   6.656   3.988
16668SOL    HW151901   3.806   6.585   3.946
16668SOL    HW251902   3.819   6.692   4.052
16669SOL     OW51903  12.046   1.737   0.600
16669SOL    HW151904  12.006   1.653   0.579
16669SOL    HW251905  12.139   1.724   0.583
16670SOL     OW51906   6.538  14.746   6.519
16670SOL    HW151907   6.590  14.730   6.598
16670SOL    HW251908   6.490  14.827   6.539
16671SOL     OW51909   0.422   6.250   3.062
16671SOL    HW151910   0.476   6.329   3.053
16671SOL    HW251911   0.420   6.233   3.156
16672SOL     OW51912   8.373  12.329   4.606
16672SOL    HW151913   8.343  12.365   4.690
16672SOL    HW251914   8.445  12.386   4.580
16673SOL     OW51915   2.922   9.618   0.058
16673SOL    HW151916   2.940   9.680  14.869
16673SOL    HW251917   2.849   9.657   0.106
16674SOL     OW51918  11.029  14.166   4.481
16674SOL    HW151919  10.971  14.242   4.482
16674SOL    HW251920  11.101  14.190   4.540
16675SOL     OW51921   8.768   8.944   1.889
16675SOL    HW151922   8.676   8.939   1.864
16675SOL    HW251923   8.769   9.005   1.963
16676SOL     OW51924   8.011   4.422   3.388
16676SOL    HW151925   7.919   4.419   3.361
16676SOL    HW251926   8.031   4.333   3.415
16677SOL     OW51927   3.455   7.188   4.919
16677SOL    HW151928   3.486   7.120   4.860
16677SOL    HW251929   3.511   7.180   4.997
16678SOL     OW51930   9.375  12.346   7.117
16678SOL    HW151931   9.301  12.363   7.176
16678SOL    HW251932   9.366  12.254   7.092
16679SOL     OW51933   5.824   7.623   4.530
16679SOL    HW151934   5.738   7.619   4.488
16679SOL    HW251935   5.824   7.707   4.576
16680SOL     OW51936   9.037   6.304   3.096
16680SOL    HW151937   8.950   6.271   3.075
16680SOL    HW251938   9.090   6.284   3.019
16681SOL     OW51939  14.139  11.161   2.238
16681SOL    HW151940  14.082  11.094   2.199
16681SOL    HW251941  14.158  11.221   2.166
16682SOL     OW51942   2.944  11.850   4.349
16682SOL    HW151943   2.968  11.789   4.420
16682SOL    HW251944   2.874  11.903   4.386
16683SOL     OW51945   4.030  13.275   2.133
16683SOL    HW151946   4.108  13.258   2.079
16683SOL    HW251947   4.025  13.371   2.138
16684SOL     OW51948   0.774  10.714   8.924
16684SOL    HW151949   0.870  10.717   8.924
16684SOL    HW251950   0.748  10.783   8.984
16685SOL     OW51951  13.681   2.517   3.443
16685SOL    HW151952  13.614   2.478   3.499
16685SOL    HW251953  13.683   2.460   3.366
16686SOL     OW51954   3.619   9.528   3.358
16686SOL    HW151955   3.543   9.564   3.404
16686SOL    HW251956   3.683   9.512   3.427
16687SOL     OW51957  14.031  12.039  14.108
16687SOL    HW151958  13.945  12.009  14.137
16687SOL    HW251959  14.075  12.069  14.187
16688SOL     OW51960  13.636   1.971  10.171
16688SOL    HW151961  13.714   2.025  10.165
16688SOL    HW251962  13.574   2.010  10.109
16689SOL     OW51963   5.492   9.816   6.268
16689SOL    HW151964   5.456   9.876   6.203
16689SOL    HW251965   5.417   9.787   6.319
16690SOL     OW51966  13.119   3.892  14.823
16690SOL    HW151967  13.055   3.954  14.788
16690SOL    HW251968  13.171   3.866  14.747
16691SOL     OW51969  11.961   0.912  11.488
16691SOL    HW151970  11.924   0.973  11.553
16691SOL    HW251971  11.943   0.825  11.525
16692SOL     OW51972   6.568   5.829   2.412
16692SOL    HW151973   6.585   5.776   2.334
16692SOL    HW251974   6.522   5.906   2.378
16693SOL     OW51975   2.572  10.079  12.314
16693SOL    HW151976   2.543  10.079  12.405
16693SOL    HW251977   2.623  10.160  12.306
16694SOL     OW51978   0.848  12.132   9.161
16694SOL    HW151979   0.800  12.198   9.111
16694SOL    HW251980   0.787  12.059   9.170
16695SOL     OW51981   5.386  10.288  10.680
16695SOL    HW151982   5.447  10.214  10.688
16695SOL    HW251983   5.335  10.286  10.761
16696SOL     OW51984   2.451   0.328   5.937
16696SOL    HW151985   2.467   0.358   5.847
16696SOL    HW251986   2.516   0.375   5.990
16697SOL     OW51987   6.170   3.006   1.816
16697SOL    HW151988   6.207   3.021   1.903
16697SOL    HW251989   6.204   3.077   1.763
16698SOL     OW51990   7.400   3.462   1.505
16698SOL    HW151991   7.432   3.543   1.466
16698SOL    HW251992   7.335   3.490   1.570
16699SOL     OW51993   1.700  12.628   8.651
16699SOL    HW151994   1.656  12.583   8.578
16699SOL    HW251995   1.631  12.679   8.693
16700SOL     OW51996  10.948  10.536   6.097
16700SOL    HW151997  10.860  10.551   6.063
16700SOL    HW251998  10.955  10.595   6.172
16701SOL     OW51999   6.870  10.138   9.827
16701SOL    HW152000   6.931  10.192   9.777
16701SOL    HW252001   6.822  10.088   9.761
16702SOL     OW52002   5.904  14.465   4.710
16702SOL    HW152003   5.874  14.468   4.801
16702SOL    HW252004   5.998  14.482   4.715
16703SOL     OW52005  10.293   4.211  10.555
16703SOL    HW152006  10.320   4.132  10.602
16703SOL    HW252007  10.247   4.178  10.477
16704SOL     OW52008  12.854   1.554   1.480
16704SOL    HW152009  12.806   1.474   1.458
16704SOL    HW252010  12.946   1.526   1.487
16705SOL     OW52011  11.000  12.730  12.792
16705SOL    HW152012  11.059  12.772  12.729
16705SOL    HW252013  10.956  12.662  12.741
16706SOL     OW52014  13.723   6.991  11.914
16706SOL    HW152015  13.726   7.050  11.989
16706SOL    HW252016  13.813   6.992  11.880
16707SOL     OW52017  11.714   9.388   7.732
16707SOL    HW152018  11.650   9.358   7.667
16707SOL    HW252019  11.739   9.475   7.702
16708SOL     OW52020   8.603  10.321   5.418
16708SOL    HW152021   8.568  10.352   5.335
16708SOL    HW252022   8.678  10.266   5.394
16709SOL     OW52023   9.104   9.509   2.474
16709SOL    HW152024   9.038   9.569   2.442
16709SOL    HW252025   9.064   9.468   2.551
16710SOL     OW52026   2.491  14.734   3.888
16710SOL    HW152027   2.500  14.771   3.976
16710SOL    HW252028   2.522  14.803   3.830
16711SOL     OW52029  10.034   0.204   5.005
16711SOL    HW152030  10.027   0.279   4.946
16711SOL    HW252031  10.126   0.178   5.000
16712SOL     OW52032   4.774   0.324   0.460
16712SOL    HW152033   4.764   0.256   0.393
16712SOL    HW252034   4.686   0.356   0.476
16713SOL     OW52035   1.235   1.633  13.994
16713SOL    HW152036   1.241   1.697  14.066
16713SOL    HW252037   1.231   1.686  13.915
16714SOL     OW52038  12.084   0.401   3.375
16714SOL    HW152039  12.128   0.356   3.302
16714SOL    HW252040  12.107   0.349   3.452
16715SOL     OW52041  14.784  12.310  14.189
16715SOL    HW152042  14.713  12.265  14.143
16715SOL    HW252043  14.859  12.250  14.182
16716SOL     OW52044  10.342  14.529   6.732
16716SOL    HW152045  10.404  14.525   6.659
16716SOL    HW252046  10.386  14.481   6.802
16717SOL     OW52047   8.886   2.269   8.993
16717SOL    HW152048   8.828   2.194   8.976
16717SOL    HW252049   8.971   2.230   9.013
16718SOL     OW52050  11.808   2.259   2.003
16718SOL    HW152051  11.823   2.307   1.921
16718SOL    HW252052  11.891   2.266   2.050
16719SOL     OW52053   7.981   3.429   2.454
16719SOL    HW152054   8.062   3.478   2.438
16719SOL    HW252055   7.911   3.491   2.431
16720SOL     OW52056  10.830   7.319   7.623
16720SOL    HW152057  10.853   7.338   7.714
16720SOL    HW252058  10.794   7.231   7.625
16721SOL     OW52059  14.557   7.300  11.325
16721SOL    HW152060  14.579   7.390  11.301
16721SOL    HW252061  14.624   7.275  11.387
16722SOL     OW52062   1.913   0.263   6.127
16722SOL    HW152063   1.958   0.179   6.128
16722SOL    HW252064   1.912   0.292   6.218
16723SOL     OW52065   9.595  10.142  10.444
16723SOL    HW152066   9.608  10.126  10.350
16723SOL    HW252067   9.609  10.236  10.454
16724SOL     OW52068   2.972  10.939  10.363
16724SOL    HW152069   3.055  10.911  10.402
16724SOL    HW252070   2.965  10.887  10.283
16725SOL     OW52071   3.285   2.723  10.055
16725SOL    HW152072   3.200   2.711  10.013
16725SOL    HW252073   3.330   2.785   9.998
16726SOL     OW52074  14.206   8.267   6.388
16726SOL    HW152075  14.132   8.311   6.347
16726SOL    HW252076  14.283   8.309   6.350
16727SOL     OW52077   0.939   1.954  14.809
16727SOL    HW152078   0.950   1.984  14.719
16727SOL    HW252079   0.860   1.901  14.808
16728SOL     OW52080  10.657   9.049  11.282
16728SOL    HW152081  10.717   9.002  11.224
16728SOL    HW252082  10.571   9.013  11.262
16729SOL     OW52083  10.220   5.156   3.346
16729SOL    HW152084  10.168   5.180   3.270
16729SOL    HW252085  10.261   5.238   3.374
16730SOL     OW52086   4.197   8.518   8.526
16730SOL    HW152087   4.204   8.562   8.441
16730SOL    HW252088   4.157   8.434   8.507
16731SOL     OW52089  10.633   9.688   9.124
16731SOL    HW152090  10.624   9.600   9.161
16731SOL    HW252091  10.619   9.746   9.199
16732SOL     OW52092   7.549  12.922   1.331
16732SOL    HW152093   7.638  12.924   1.295
16732SOL    HW252094   7.510  13.005   1.303
16733SOL     OW52095   7.768   4.422   6.068
16733SOL    HW152096   7.781   4.426   5.973
16733SOL    HW252097   7.727   4.336   6.082
16734SOL     OW52098  12.532  11.334   6.414
16734SOL    HW152099  12.620  11.310   6.444
16734SOL    HW252100  12.481  11.344   6.494
16735SOL     OW52101  14.220  14.627   1.225
16735SOL    HW152102  14.195  14.535   1.232
16735SOL    HW252103  14.315  14.625   1.211
16736SOL     OW52104   3.640  11.886   1.368
16736SOL    HW152105   3.549  11.886   1.399
16736SOL    HW252106   3.633  11.898   1.273
16737SOL     OW52107   8.108   7.474   3.595
16737SOL    HW152108   8.072   7.494   3.509
16737SOL    HW252109   8.197   7.510   3.593
16738SOL     OW52110  12.392  10.095   3.947
16738SOL    HW152111  12.469  10.052   3.984
16738SOL    HW252112  12.344  10.128   4.023
16739SOL     OW52113  13.565   3.769  13.439
16739SOL    HW152114  13.545   3.718  13.361
16739SOL    HW252115  13.640   3.724  13.479
16740SOL     OW52116  12.700  10.310  12.127
16740SOL    HW152117  12.619  10.353  12.155
16740SOL    HW252118  12.718  10.247  12.197
16741SOL     OW52119   4.579   9.604   8.489
16741SOL    HW152120   4.535   9.653   8.559
16741SOL    HW252121   4.600   9.520   8.530
16742SOL     OW52122   2.004   3.132  13.057
16742SOL    HW152123   1.970   3.147  12.969
16742SOL    HW252124   1.985   3.040  13.075
16743SOL     OW52125   5.542   6.451  10.947
16743SOL    HW152126   5.631   6.416  10.948
16743SOL    HW252127   5.491   6.385  10.900
16744SOL     OW52128   0.311   5.684  14.163
16744SOL    HW152129   0.220   5.712  14.174
16744SOL    HW252130   0.332   5.636  14.244
16745SOL     OW52131   4.954   6.846   7.132
16745SOL    HW152132   5.001   6.925   7.158
16745SOL    HW252133   4.944   6.855   7.037
16746SOL     OW52134   9.105   4.735   0.273
16746SOL    HW152135   9.156   4.657   0.250
16746SOL    HW252136   9.148   4.807   0.226
16747SOL     OW52137  12.332   6.097   6.317
16747SOL    HW152138  12.342   6.048   6.398
16747SOL    HW252139  12.254   6.152   6.332
16748SOL     OW52140   9.430  11.165   6.266
16748SOL    HW152141   9.471  11.082   6.241
16748SOL    HW252142   9.410  11.156   6.359
16749SOL     OW52143  10.783   8.010   8.147
16749SOL    HW152144  10.696   7.983   8.117
16749SOL    HW252145  10.826   7.929   8.173
16750SOL     OW52146   6.736   0.169   2.659
16750SOL    HW152147   6.792   0.237   2.619
16750SOL    HW252148   6.696   0.213   2.734
16751SOL     OW52149  12.194   5.124  12.647
16751SOL    HW152150  12.251   5.180  12.699
16751SOL    HW252151  12.245   5.102  12.570
16752SOL     OW52152  11.234   1.906   4.942
16752SOL    HW152153  11.302   1.960   4.903
16752SOL    HW252154  11.167   1.899   4.875
16753SOL     OW52155  10.655   9.559   8.602
16753SOL    HW152156  10.676   9.595   8.688
16753SOL    HW252157  10.738   9.528   8.568
16754SOL     OW52158   1.558   7.555   4.512
16754SOL    HW152159   1.592   7.511   4.590
16754SOL    HW252160   1.493   7.495   4.476
16755SOL     OW52161   1.421  12.781  11.448
16755SOL    HW152162   1.482  12.832  11.394
16755SOL    HW252163   1.429  12.820  11.535
16756SOL     OW52164   9.686  14.014  12.743
16756SOL    HW152165   9.643  14.067  12.810
16756SOL    HW252166   9.659  13.924  12.763
16757SOL     OW52167   8.647   2.623  14.077
16757SOL    HW152168   8.589   2.695  14.050
16757SOL    HW252169   8.674   2.646  14.165
16758SOL     OW52170   3.090   3.857   7.858
16758SOL    HW152171   3.048   3.875   7.774
16758SOL    HW252172   3.096   3.943   7.900
16759SOL     OW52173   5.237   7.877  10.452
16759SOL    HW152174   5.218   7.786  10.429
16759SOL    HW252175   5.231   7.925  10.369
16760SOL     OW52176   3.055   2.182  13.637
16760SOL    HW152177   3.149   2.180  13.620
16760SOL    HW252178   3.020   2.109  13.585
16761SOL     OW52179   3.292   8.187   6.755
16761SOL    HW152180   3.331   8.226   6.833
16761SOL    HW252181   3.270   8.261   6.699
16762SOL     OW52182  13.632  12.848   9.254
16762SOL    HW152183  13.564  12.893   9.304
16762SOL    HW252184  13.714  12.885   9.287
16763SOL     OW52185   8.510   2.060   6.189
16763SOL    HW152186   8.435   2.113   6.163
16763SOL    HW252187   8.568   2.120   6.236
16764SOL     OW52188   5.316  12.198   0.513
16764SOL    HW152189   5.317  12.247   0.595
16764SOL    HW252190   5.342  12.109   0.538
16765SOL     OW52191   3.972   7.664   4.153
16765SOL    HW152192   4.059   7.639   4.123
16765SOL    HW252193   3.985   7.745   4.202
16766SOL     OW52194  13.974   6.814   1.496
16766SOL    HW152195  13.929   6.748   1.443
16766SOL    HW252196  13.970   6.780   1.586
16767SOL     OW52197  13.887   5.211   1.760
16767SOL    HW152198  13.843   5.139   1.713
16767SOL    HW252199  13.976   5.210   1.724
16768SOL     OW52200   6.330   5.297   4.359
16768SOL    HW152201   6.364   5.212   4.388
16768SOL    HW252202   6.378   5.361   4.412
16769SOL     OW52203   9.768   4.116   8.712
16769SOL    HW152204   9.783   4.060   8.788
16769SOL    HW252205   9.801   4.202   8.739
16770SOL     OW52206   4.251  14.736  10.078
16770SOL    HW152207   4.203  14.700  10.004
16770SOL    HW252208   4.322  14.787  10.039
16771SOL     OW52209  13.244   0.809  10.741
16771SOL    HW152210  13.315   0.809  10.677
16771SOL    HW252211  13.259   0.730  10.793
16772SOL     OW52212   8.657   5.227  14.252
16772SOL    HW152213   8.717   5.163  14.216
16772SOL    HW252214   8.686   5.239  14.342
16773SOL     OW52215   2.599   9.837   8.996
16773SOL    HW152216   2.570   9.920   9.034
16773SOL    HW252217   2.534   9.817   8.929
16774SOL     OW52218   4.547   9.711  10.656
16774SOL    HW152219   4.640   9.689  10.648
16774SOL    HW252220   4.531   9.773  10.585
16775SOL     OW52221  12.235   0.894   3.172
16775SOL    HW152222  12.197   0.883   3.084
16775SOL    HW252223  12.329   0.899   3.156
16776SOL     OW52224   2.696  10.236   8.585
16776SOL    HW152225   2.731  10.211   8.499
16776SOL    HW252226   2.766  10.287   8.626
16777SOL     OW52227   7.478   6.636  13.823
16777SOL    HW152228   7.423   6.667  13.895
16777SOL    HW252229   7.416   6.600  13.759
16778SOL     OW52230   2.954   1.030   0.806
16778SOL    HW152231   2.951   1.102   0.743
16778SOL    HW252232   3.046   1.022   0.830
16779SOL     OW52233   2.191   7.428   1.657
16779SOL    HW152234   2.226   7.342   1.634
16779SOL    HW252235   2.105   7.410   1.696
16780SOL     OW52236   9.770  14.565   9.102
16780SOL    HW152237   9.728  14.519   9.029
16780SOL    HW252238   9.856  14.589   9.069
16781SOL     OW52239   7.018  11.187   2.705
16781SOL    HW152240   7.106  11.174   2.741
16781SOL    HW252241   7.021  11.145   2.619
16782SOL     OW52242   2.250  11.662   8.549
16782SOL    HW152243   2.179  11.604   8.575
16782SOL    HW252244   2.314  11.605   8.507
16783SOL     OW52245   3.171  10.525   1.456
16783SOL    HW152246   3.092  10.579   1.451
16783SOL    HW252247   3.219  10.560   1.532
16784SOL     OW52248  13.726   7.079   9.815
16784SOL    HW152249  13.719   6.990   9.782
16784SOL    HW252250  13.650   7.090   9.872
16785SOL     OW52251   7.871   9.384   7.645
16785SOL    HW152252   7.966   9.380   7.641
16785SOL    HW252253   7.852   9.440   7.720
16786SOL     OW52254   6.632   4.624   1.888
16786SOL    HW152255   6.576   4.701   1.900
16786SOL    HW252256   6.580   4.551   1.922
16787SOL     OW52257   2.583  11.393   6.216
16787SOL    HW152258   2.603  11.462   6.153
16787SOL    HW252259   2.553  11.440   6.294
16788SOL     OW52260   9.249   7.652   3.139
16788SOL    HW152261   9.163   7.680   3.109
16788SOL    HW252262   9.280   7.593   3.070
16789SOL     OW52263  10.322   8.448   0.441
16789SOL    HW152264  10.315   8.471   0.534
16789SOL    HW252265  10.308   8.530   0.395
16790SOL     OW52266   7.977   1.119   0.400
16790SOL    HW152267   8.021   1.062   0.463
16790SOL    HW252268   8.027   1.200   0.403
16791SOL     OW52269  13.429   9.489  12.191
16791SOL    HW152270  13.416   9.581  12.217
16791SOL    HW252271  13.451   9.444  12.273
16792SOL     OW52272  14.768   8.587   2.969
16792SOL    HW152273  14.842   8.638   3.003
16792SOL    HW252274  14.779   8.500   3.007
16793SOL     OW52275   2.929   3.620  12.470
16793SOL    HW152276   2.947   3.703  12.427
16793SOL    HW252277   2.983   3.621  12.549
16794SOL     OW52278   7.299  10.204  14.229
16794SOL    HW152279   7.322  10.111  14.234
16794SOL    HW252280   7.212  10.204  14.190
16795SOL     OW52281  14.130   6.111   1.475
16795SOL    HW152282  14.153   6.055   1.401
16795SOL    HW252283  14.157   6.061   1.552
16796SOL     OW52284   7.887   1.927  12.646
16796SOL    HW152285   7.927   1.882  12.572
16796SOL    HW252286   7.952   1.918  12.717
16797SOL     OW52287  12.068   2.713  13.040
16797SOL    HW152288  12.070   2.783  12.974
16797SOL    HW252289  12.160   2.692  13.056
16798SOL     OW52290   2.485   9.575   7.194
16798SOL    HW152291   2.489   9.570   7.290
16798SOL    HW252292   2.519   9.491   7.165
16799SOL     OW52293   7.843   7.547   4.165
16799SOL    HW152294   7.829   7.473   4.224
16799SOL    HW252295   7.756   7.582   4.149
16800SOL     OW52296  13.723  11.861   3.993
16800SOL    HW152297  13.790  11.847   3.927
16800SOL    HW252298  13.640  11.857   3.945
16801SOL     OW52299   7.048  11.031   8.182
16801SOL    HW152300   7.096  11.071   8.254
16801SOL    HW252301   6.963  11.006   8.220
16802SOL     OW52302   7.483   0.913   6.523
16802SOL    HW152303   7.566   0.942   6.561
16802SOL    HW252304   7.420   0.924   6.594
16803SOL     OW52305   3.870  14.421  13.631
16803SOL    HW152306   3.822  14.343  13.603
16803SOL    HW252307   3.929  14.441  13.558
16804SOL     OW52308   4.594  14.784  11.555
16804SOL    HW152309   4.623  14.762  11.644
16804SOL    HW252310   4.509  14.826  11.568
16805SOL     OW52311   4.969  12.807  11.583
16805SOL    HW152312   4.929  12.721  11.591
16805SOL    HW252313   5.034  12.797  11.514
16806SOL     OW52314   6.246   6.327   4.081
16806SOL    HW152315   6.322   6.381   4.102
16806SOL    HW252316   6.171   6.384   4.101
16807SOL     OW52317   6.347   5.535  12.063
16807SOL    HW152318   6.408   5.542  11.989
16807SOL    HW252319   6.381   5.462  12.115
16808SOL     OW52320  10.723   4.550   1.473
16808SOL    HW152321  10.778   4.538   1.550
16808SOL    HW252322  10.741   4.474   1.417
16809SOL     OW52323  11.632   0.848   6.374
16809SOL    HW152324  11.694   0.780   6.344
16809SOL    HW252325  11.550   0.825   6.331
16810SOL     OW52326   4.701  11.196   1.102
16810SOL    HW152327   4.647  11.137   1.050
16810SOL    HW252328   4.743  11.140   1.168
16811SOL     OW52329   1.763   0.949   2.155
16811SOL    HW152330   1.816   0.949   2.076
16811SOL    HW252331   1.824   0.929   2.225
16812SOL     OW52332  13.826   7.244   9.628
16812SOL    HW152333  13.818   7.175   9.694
16812SOL    HW252334  13.839   7.196   9.545
16813SOL     OW52335   0.240   8.909   4.511
16813SOL    HW152336   0.258   8.844   4.579
16813SOL    HW252337   0.166   8.959   4.545
16814SOL     OW52338  12.261   8.816   9.908
16814SOL    HW152339  12.249   8.813   9.813
16814SOL    HW252340  12.351   8.844   9.920
16815SOL     OW52341  12.442   7.431   5.083
16815SOL    HW152342  12.383   7.373   5.033
16815SOL    HW252343  12.490   7.479   5.016
16816SOL     OW52344   2.009   1.947   3.456
16816SOL    HW152345   2.026   1.901   3.538
16816SOL    HW252346   1.931   1.905   3.420
16817SOL     OW52347   0.141   3.727   5.940
16817SOL    HW152348   0.219   3.739   5.994
16817SOL    HW252349   0.072   3.706   6.003
16818SOL     OW52350   2.173  12.708   7.462
16818SOL    HW152351   2.166  12.614   7.450
16818SOL    HW252352   2.246  12.720   7.522
16819SOL     OW52353  12.441   6.464  11.934
16819SOL    HW152354  12.482   6.391  11.888
16819SOL    HW252355  12.481   6.463  12.021
16820SOL     OW52356   4.309   2.570  11.531
16820SOL    HW152357   4.398   2.595  11.553
16820SOL    HW252358   4.319   2.499  11.466
16821SOL     OW52359  14.404  13.876   9.617
16821SOL    HW152360  14.324  13.861   9.566
16821SOL    HW252361  14.375  13.933   9.689
16822SOL     OW52362   8.860  11.784   8.101
16822SOL    HW152363   8.891  11.765   8.190
16822SOL    HW252364   8.795  11.853   8.114
16823SOL     OW52365  14.473   1.515   9.775
16823SOL    HW152366  14.567   1.516   9.791
16823SOL    HW252367  14.461   1.453   9.703
16824SOL     OW52368   1.881   9.908   3.634
16824SOL    HW152369   1.947   9.961   3.678
16824SOL    HW252370   1.890   9.821   3.673
16825SOL     OW52371  12.859   2.028   0.245
16825SOL    HW152372  12.835   1.986   0.163
16825SOL    HW252373  12.921   2.097   0.220
16826SOL     OW52374  11.398  12.494   2.995
16826SOL    HW152375  11.346  12.414   3.003
16826SOL    HW252376  11.337  12.560   2.964
16827SOL     OW52377  12.573   2.736  14.191
16827SOL    HW152378  12.665   2.723  14.166
16827SOL    HW252379  12.574   2.739  14.286
16828SOL     OW52380   5.584   5.460  11.387
16828SOL    HW152381   5.624   5.376  11.409
16828SOL    HW252382   5.541   5.488  11.468
16829SOL     OW52383  11.822  10.754   9.902
16829SOL    HW152384  11.823  10.670   9.855
16829SOL    HW252385  11.794  10.732   9.991
16830SOL     OW52386   2.049   6.825   0.273
16830SOL    HW152387   1.990   6.874   0.217
16830SOL    HW252388   2.042   6.867   0.358
16831SOL     OW52389   7.858   8.044   7.985
16831SOL    HW152390   7.783   7.986   7.981
16831SOL    HW252391   7.849   8.090   8.069
16832SOL     OW52392   3.379  14.497   3.309
16832SOL    HW152393   3.442  14.569   3.317
16832SOL    HW252394   3.315  14.527   3.245
16833SOL     OW52395   4.774   7.673   9.954
16833SOL    HW152396   4.826   7.607  10.000
16833SOL    HW252397   4.831   7.749   9.948
16834SOL     OW52398  13.677   4.438   6.992
16834SOL    HW152399  13.602   4.383   7.015
16834SOL    HW252400  13.638   4.514   6.948
16835SOL     OW52401   9.190   2.828   1.730
16835SOL    HW152402   9.268   2.851   1.780
16835SOL    HW252403   9.167   2.740   1.760
16836SOL     OW52404   1.503  14.259   6.179
16836SOL    HW152405   1.475  14.202   6.251
16836SOL    HW252406   1.422  14.289   6.139
16837SOL     OW52407  12.034   8.391   7.727
16837SOL    HW152408  12.075   8.464   7.682
16837SOL    HW252409  12.078   8.387   7.812
16838SOL     OW52410   6.528  14.200   3.088
16838SOL    HW152411   6.564  14.238   3.008
16838SOL    HW252412   6.466  14.133   3.057
16839SOL     OW52413   3.009  12.180   6.193
16839SOL    HW152414   2.987  12.263   6.235
16839SOL    HW252415   3.043  12.205   6.107
16840SOL     OW52416   7.416  13.428   2.609
16840SOL    HW152417   7.340  13.467   2.566
16840SOL    HW252418   7.478  13.501   2.619
16841SOL     OW52419   7.747  12.497   0.242
16841SOL    HW152420   7.704  12.424   0.198
16841SOL    HW252421   7.694  12.512   0.321
16842SOL     OW52422  10.627   9.494   8.133
16842SOL    HW152423  10.587   9.455   8.055
16842SOL    HW252424  10.570   9.467   8.205
16843SOL     OW52425  11.331  11.486   4.474
16843SOL    HW152426  11.340  11.522   4.562
16843SOL    HW252427  11.237  11.473   4.463
16844SOL     OW52428   4.115   9.490  12.256
16844SOL    HW152429   4.041   9.509  12.199
16844SOL    HW252430   4.076   9.459  12.337
16845SOL     OW52431  10.478  14.801   0.279
16845SOL    HW152432  10.401  14.746   0.294
16845SOL    HW252433  10.506  14.827   0.366
16846SOL     OW52434   4.502  13.788   2.646
16846SOL    HW152435   4.524  13.804   2.738
16846SOL    HW252436   4.574  13.827   2.597
16847SOL     OW52437   9.596   1.958   5.593
16847SOL    HW152438   9.683   1.922   5.578
16847SOL    HW252439   9.542   1.918   5.525
16848SOL     OW52440  10.642   1.864   6.439
16848SOL    HW152441  10.628   1.953   6.471
16848SOL    HW252442  10.717   1.832   6.488
16849SOL     OW52443   9.093  13.072   1.506
16849SOL    HW152444   9.183  13.067   1.475
16849SOL    HW252445   9.040  13.067   1.427
16850SOL     OW52446   5.007   0.046   1.329
16850SOL    HW152447   4.948   0.061   1.255
16850SOL    HW252448   5.048  14.843   1.311
16851SOL     OW52449  11.495  11.834  10.204
16851SOL    HW152450  11.568  11.804  10.149
16851SOL    HW252451  11.484  11.764  10.268
16852SOL     OW52452  10.048  14.163   9.498
16852SOL    HW152453  10.013  14.107   9.429
16852SOL    HW252454  10.143  14.150   9.494
16853SOL     OW52455   8.376  10.988   3.307
16853SOL    HW152456   8.316  11.011   3.236
16853SOL    HW252457   8.356  10.896   3.327
16854SOL     OW52458   5.343  10.766   6.702
16854SOL    HW152459   5.331  10.852   6.743
16854SOL    HW252460   5.417  10.779   6.642
16855SOL     OW52461  11.147   7.902  13.594
16855SOL    HW152462  11.182   7.988  13.617
16855SOL    HW252463  11.102   7.916  13.511
16856SOL     OW52464  13.959   7.031   4.206
16856SOL    HW152465  13.971   7.112   4.257
16856SOL    HW252466  13.986   6.961   4.266
16857SOL     OW52467  14.083   1.910   9.100
16857SOL    HW152468  14.123   1.899   9.186
16857SOL    HW252469  13.995   1.874   9.110
16858SOL     OW52470   8.493   7.559   1.292
16858SOL    HW152471   8.497   7.646   1.252
16858SOL    HW252472   8.520   7.574   1.383
16859SOL     OW52473   9.360   2.381   6.621
16859SOL    HW152474   9.329   2.457   6.669
16859SOL    HW252475   9.397   2.324   6.688
16860SOL     OW52476  12.808   3.944  14.458
16860SOL    HW152477  12.721   3.917  14.428
16860SOL    HW252478  12.852   3.861  14.478
16861SOL     OW52479   7.450   8.953   4.176
16861SOL    HW152480   7.532   8.922   4.136
16861SOL    HW252481   7.478   9.022   4.236
16862SOL     OW52482   3.016  11.666   8.982
16862SOL    HW152483   2.965  11.618   8.917
16862SOL    HW252484   2.969  11.653   9.064
16863SOL     OW52485   7.562  12.874   1.023
16863SOL    HW152486   7.596  12.822   1.096
16863SOL    HW252487   7.471  12.846   1.014
16864SOL     OW52488  14.102   9.307  10.380
16864SOL    HW152489  14.118   9.398  10.407
16864SOL    HW252490  14.043   9.272  10.448
16865SOL     OW52491  14.017  13.776   7.012
16865SOL    HW152492  14.087  13.787   6.948
16865SOL    HW252493  14.063  13.759   7.095
16866SOL     OW52494   4.608   4.034   2.587
16866SOL    HW152495   4.555   4.079   2.652
16866SOL    HW252496   4.554   4.035   2.508
16867SOL     OW52497   0.801  11.965   9.526
16867SOL    HW152498   0.886  11.924   9.545
16867SOL    HW252499   0.747  11.945   9.602
16868SOL     OW52500   7.561   8.954   8.886
16868SOL    HW152501   7.556   8.890   8.815
16868SOL    HW252502   7.655   8.963   8.903
16869SOL     OW52503  11.085   8.835   3.249
16869SOL    HW152504  11.002   8.807   3.210
16869SOL    HW252505  11.108   8.914   3.201
16870SOL     OW52506  12.566   8.670   9.374
16870SOL    HW152507  12.593   8.750   9.418
16870SOL    HW252508  12.472   8.664   9.388
16871SOL     OW52509   3.408   0.130  13.655
16871SOL    HW152510   3.418   0.066  13.725
16871SOL    HW252511   3.376   0.209  13.700
16872SOL     OW52512   7.645   0.124  12.620
16872SOL    HW152513   7.617   0.214  12.631
16872SOL    HW252514   7.605   0.096  12.537
16873SOL     OW52515   7.225  12.221   8.618
16873SOL    HW152516   7.214  12.139   8.667
16873SOL    HW252517   7.136  12.248   8.597
16874SOL     OW52518  14.284   8.391  14.436
16874SOL    HW152519  14.371   8.418  14.465
16874SOL    HW252520  14.294   8.301  14.406
16875SOL     OW52521   1.387  12.848   2.915
16875SOL    HW152522   1.479  12.860   2.938
16875SOL    HW252523   1.339  12.894   2.983
16876SOL     OW52524  11.848  14.114  11.905
16876SOL    HW152525  11.853  14.205  11.876
16876SOL    HW252526  11.825  14.119  11.998
16877SOL     OW52527   6.156   8.548   6.421
16877SOL    HW152528   6.170   8.454   6.418
16877SOL    HW252529   6.207   8.583   6.348
16878SOL     OW52530   6.759   6.505   9.074
16878SOL    HW152531   6.680   6.517   9.128
16878SOL    HW252532   6.738   6.548   8.992
16879SOL     OW52533  11.229   7.841   3.431
16879SOL    HW152534  11.140   7.838   3.397
16879SOL    HW252535  11.253   7.750   3.447
16880SOL     OW52536  14.074  14.142   7.748
16880SOL    HW152537  13.985  14.108   7.760
16880SOL    HW252538  14.126  14.065   7.725
16881SOL     OW52539   5.866  14.520   5.684
16881SOL    HW152540   5.875  14.443   5.739
16881SOL    HW252541   5.922  14.586   5.724
16882SOL     OW52542  11.464   9.307   1.029
16882SOL    HW152543  11.542   9.356   1.003
16882SOL    HW252544  11.401   9.324   0.959
16883SOL     OW52545  10.056   2.542   7.014
16883SOL    HW152546  10.010   2.620   6.983
16883SOL    HW252547  10.139   2.543   6.966
16884SOL     OW52548   9.938   0.880   5.986
16884SOL    HW152549  10.027   0.879   6.022
16884SOL    HW252550   9.936   0.807   5.926
16885SOL     OW52551  10.252  12.376   3.864
16885SOL    HW152552  10.246  12.470   3.846
16885SOL    HW252553  10.191  12.336   3.803
16886SOL     OW52554  12.174   7.401   5.229
16886SOL    HW152555  12.268   7.387   5.235
16886SOL    HW252556  12.149   7.431   5.317
16887SOL     OW52557   7.389  14.080   1.584
16887SOL    HW152558   7.373  14.159   1.635
16887SOL    HW252559   7.366  14.008   1.642
16888SOL     OW52560  13.202  11.467   5.477
16888SOL    HW152561  13.276  11.520   5.508
16888SOL    HW252562  13.242  11.397   5.426
16889SOL     OW52563  12.437   2.362  14.427
16889SOL    HW152564  12.456   2.279  14.471
16889SOL    HW252565  12.517   2.381  14.377
16890SOL     OW52566  13.678  12.434   3.710
16890SOL    HW152567  13.675  12.378   3.786
16890SOL    HW252568  13.634  12.385   3.641
16891SOL     OW52569   3.267   9.174   6.436
16891SOL    HW152570   3.264   9.084   6.402
16891SOL    HW252571   3.358   9.200   6.426
16892SOL     OW52572   9.381   7.875   4.985
16892SOL    HW152573   9.306   7.921   5.023
16892SOL    HW252574   9.418   7.938   4.923
16893SOL     OW52575  10.955  11.465  12.253
16893SOL    HW152576  11.044  11.480  12.286
16893SOL    HW252577  10.946  11.525  12.180
16894SOL     OW52578   6.103  11.844   8.052
16894SOL    HW152579   6.064  11.901   8.119
16894SOL    HW252580   6.028  11.805   8.008
16895SOL     OW52581   8.508  10.581   9.151
16895SOL    HW152582   8.513  10.583   9.056
16895SOL    HW252583   8.540  10.667   9.178
16896SOL     OW52584  12.795  11.172   5.458
16896SOL    HW152585  12.822  11.196   5.546
16896SOL    HW252586  12.874  11.140   5.415
16897SOL     OW52587   4.415  13.898  13.858
16897SOL    HW152588   4.360  13.905  13.780
16897SOL    HW252589   4.499  13.868  13.825
16898SOL     OW52590   3.654   8.689   1.771
16898SOL    HW152591   3.701   8.679   1.854
16898SOL    HW252592   3.562   8.671   1.793
16899SOL     OW52593   8.540   0.246  13.320
16899SOL    HW152594   8.574   0.241  13.230
16899SOL    HW252595   8.557   0.159  13.356
16900SOL     OW52596  13.547   2.657   7.911
16900SOL    HW152597  13.452   2.663   7.903
16900SOL    HW252598  13.563   2.656   8.005
16901SOL     OW52599   7.588   8.461  12.812
16901SOL    HW152600   7.598   8.542  12.760
16901SOL    HW252601   7.633   8.394  12.760
16902SOL     OW52602   2.271  11.303  11.701
16902SOL    HW152603   2.191  11.314  11.752
16902SOL    HW252604   2.289  11.209  11.704
16903SOL     OW52605  14.015   0.608   4.799
16903SOL    HW152606  13.967   0.650   4.728
16903SOL    HW252607  14.099   0.654   4.801
16904SOL     OW52608   0.680   9.024   9.617
16904SOL    HW152609   0.702   9.117   9.618
16904SOL    HW252610   0.591   9.021   9.581
16905SOL     OW52611   2.565  13.760   2.299
16905SOL    HW152612   2.484  13.714   2.273
16905SOL    HW252613   2.614  13.769   2.217
16906SOL     OW52614   2.047   8.412  14.393
16906SOL    HW152615   1.961   8.432  14.355
16906SOL    HW252616   2.028   8.369  14.476
16907SOL     OW52617   8.618  10.760   0.396
16907SOL    HW152618   8.675  10.832   0.369
16907SOL    HW252619   8.627  10.695   0.327
16908SOL     OW52620   3.760   5.384   6.179
16908SOL    HW152621   3.747   5.478   6.169
16908SOL    HW252622   3.786   5.373   6.271
16909SOL     OW52623  13.754  11.112  10.847
16909SOL    HW152624  13.727  11.175  10.781
16909SOL    HW252625  13.848  11.128  10.858
16910SOL     OW52626   8.613   4.783   2.814
16910SOL    HW152627   8.585   4.813   2.728
16910SOL    HW252628   8.628   4.863   2.864
16911SOL     OW52629   9.310  11.101   7.873
16911SOL    HW152630   9.343  11.043   7.805
16911SOL    HW252631   9.372  11.174   7.874
16912SOL     OW52632   7.729   0.102   1.724
16912SOL    HW152633   7.636   0.123   1.724
16912SOL    HW252634   7.736   0.024   1.780
16913SOL     OW52635  14.514   3.091   4.123
16913SOL    HW152636  14.519   3.081   4.218
16913SOL    HW252637  14.564   3.170   4.104
16914SOL     OW52638   1.670   7.157  10.855
16914SOL    HW152639   1.748   7.211  10.846
16914SOL    HW252640   1.633   7.154  10.767
16915SOL     OW52641  14.168   8.093  13.203
16915SOL    HW152642  14.181   8.096  13.298
16915SOL    HW252643  14.150   8.183  13.179
16916SOL     OW52644   4.223   3.167  13.546
16916SOL    HW152645   4.283   3.204  13.611
16916SOL    HW252646   4.176   3.243  13.512
16917SOL     OW52647   3.474  10.543   4.709
16917SOL    HW152648   3.403  10.526   4.647
16917SOL    HW252649   3.458  10.481   4.780
16918SOL     OW52650   6.455   5.270   9.921
16918SOL    HW152651   6.513   5.333   9.878
16918SOL    HW252652   6.499   5.186   9.911
16919SOL     OW52653  14.519   4.272   2.852
16919SOL    HW152654  14.490   4.335   2.786
16919SOL    HW252655  14.598   4.311   2.889
16920SOL     OW52656   9.372   2.152  12.068
16920SOL    HW152657   9.357   2.222  12.131
16920SOL    HW252658   9.417   2.194  11.995
16921SOL     OW52659   5.347   0.827   5.793
16921SOL    HW152660   5.267   0.880   5.790
16921SOL    HW252661   5.357   0.803   5.885
16922SOL     OW52662   5.131   2.093   9.481
16922SOL    HW152663   5.190   2.114   9.553
16922SOL    HW252664   5.157   2.005   9.454
16923SOL     OW52665   5.043   8.886   8.991
16923SOL    HW152666   5.023   8.832   9.068
16923SOL    HW252667   4.978   8.860   8.926
16924SOL     OW52668   0.861  12.875  11.491
16924SOL    HW152669   0.853  12.796  11.437
16924SOL    HW252670   0.787  12.929  11.466
16925SOL     OW52671   9.626   8.772   4.799
16925SOL    HW152672   9.658   8.685   4.775
16925SOL    HW252673   9.705   8.823   4.818
16926SOL     OW52674  13.171   5.944   4.522
16926SOL    HW152675  13.125   5.910   4.446
16926SOL    HW252676  13.222   5.870   4.554
16927SOL     OW52677  14.545  10.207  14.854
16927SOL    HW152678  14.466  10.261  14.853
16927SOL    HW252679  14.579  10.213  14.764
16928SOL     OW52680  11.954  10.629  11.784
16928SOL    HW152681  12.012  10.652  11.712
16928SOL    HW252682  11.905  10.709  11.802
16929SOL     OW52683   6.777  11.203   7.946
16929SOL    HW152684   6.869  11.210   7.972
16929SOL    HW252685   6.729  11.214   8.028
16930SOL     OW52686   4.490  13.058  10.266
16930SOL    HW152687   4.575  13.086  10.301
16930SOL    HW252688   4.490  12.963  10.276
16931SOL     OW52689   7.485  13.399  12.974
16931SOL    HW152690   7.425  13.433  12.908
16931SOL    HW252691   7.560  13.366  12.923
16932SOL     OW52692  10.606   3.386  13.547
16932SOL    HW152693  10.564   3.469  13.525
16932SOL    HW252694  10.556   3.352  13.621
16933SOL     OW52695   6.889   4.899  11.030
16933SOL    HW152696   6.825   4.858  10.972
16933SOL    HW252697   6.846   4.978  11.061
16934SOL     OW52698  10.863   6.642   8.720
16934SOL    HW152699  10.863   6.682   8.633
16934SOL    HW252700  10.854   6.715   8.781
16935SOL     OW52701   3.729   2.103  11.325
16935SOL    HW152702   3.655   2.042  11.324
16935SOL    HW252703   3.699   2.175  11.381
16936SOL     OW52704   7.942  12.251  10.626
16936SOL    HW152705   7.981  12.206  10.701
16936SOL    HW252706   7.854  12.276  10.656
16937SOL     OW52707   9.663   5.403   5.225
16937SOL    HW152708   9.603   5.359   5.285
16937SOL    HW252709   9.685   5.337   5.160
16938SOL     OW52710   1.289   5.175   6.936
16938SOL    HW152711   1.213   5.135   6.979
16938SOL    HW252712   1.252   5.237   6.873
16939SOL     OW52713   1.458   1.305  12.579
16939SOL    HW152714   1.365   1.316  12.559
16939SOL    HW252715   1.496   1.271  12.498
16940SOL     OW52716   3.642   0.819   3.608
16940SOL    HW152717   3.677   0.734   3.631
16940SOL    HW252718   3.609   0.808   3.518
16941SOL     OW52719   3.449  11.966   9.712
16941SOL    HW152720   3.432  11.956   9.619
16941SOL    HW252721   3.442  11.877   9.748
16942SOL     OW52722   2.215   2.441   6.431
16942SOL    HW152723   2.226   2.536   6.430
16942SOL    HW252724   2.236   2.416   6.521
16943SOL     OW52725   9.411   0.259   6.071
16943SOL    HW152726   9.495   0.243   6.114
16943SOL    HW252727   9.432   0.263   5.977
16944SOL     OW52728   8.279   4.034  10.959
16944SOL    HW152729   8.314   3.962  11.012
16944SOL    HW252730   8.345   4.103  10.966
16945SOL     OW52731   7.008   6.656  11.625
16945SOL    HW152732   6.946   6.709  11.675
16945SOL    HW252733   6.989   6.676  11.534
16946SOL     OW52734   4.156   3.094   8.170
16946SOL    HW152735   4.185   3.173   8.126
16946SOL    HW252736   4.228   3.032   8.159
16947SOL     OW52737   8.123  10.349   0.436
16947SOL    HW152738   8.203  10.398   0.415
16947SOL    HW252739   8.150  10.286   0.503
16948SOL     OW52740   0.659   0.741   6.718
16948SOL    HW152741   0.612   0.679   6.661
16948SOL    HW252742   0.612   0.736   6.802
16949SOL     OW52743   5.026   9.204   9.296
16949SOL    HW152744   5.005   9.195   9.203
16949SOL    HW252745   5.109   9.251   9.298
16950SOL     OW52746   8.871  13.828   2.627
16950SOL    HW152747   8.949  13.787   2.664
16950SOL    HW252748   8.887  13.922   2.634
16951SOL     OW52749  10.437   2.936   4.795
16951SOL    HW152750  10.372   2.942   4.865
16951SOL    HW252751  10.497   3.008   4.813
16952SOL     OW52752  13.527   7.269   5.192
16952SOL    HW152753  13.614   7.280   5.154
16952SOL    HW252754  13.526   7.178   5.223
16953SOL     OW52755  11.412  13.733   8.358
16953SOL    HW152756  11.384  13.761   8.271
16953SOL    HW252757  11.365  13.790   8.418
16954SOL     OW52758   2.839   7.818   7.615
16954SOL    HW152759   2.890   7.871   7.677
16954SOL    HW252760   2.767   7.783   7.667
16955SOL     OW52761  14.597   7.327   5.009
16955SOL    HW152762  14.626   7.255   4.954
16955SOL    HW252763  14.558   7.389   4.948
16956SOL     OW52764  11.389  11.341   8.186
16956SOL    HW152765  11.425  11.428   8.171
16956SOL    HW252766  11.437  11.308   8.263
16957SOL     OW52767   8.088  12.468   8.018
16957SOL    HW152768   8.154  12.405   7.988
16957SOL    HW252769   8.086  12.535   7.950
16958SOL     OW52770  13.820   4.302  12.135
16958SOL    HW152771  13.731   4.287  12.101
16958SOL    HW252772  13.848   4.217  12.167
16959SOL     OW52773   7.695  12.740   4.366
16959SOL    HW152774   7.788  12.749   4.387
16959SOL    HW252775   7.658  12.825   4.388
16960SOL     OW52776   0.116  13.746   7.693
16960SOL    HW152777   0.202  13.705   7.684
16960SOL    HW252778   0.054  13.675   7.676
16961SOL     OW52779   2.048  14.046   7.349
16961SOL    HW152780   2.058  14.113   7.281
16961SOL    HW252781   1.959  14.056   7.381
16962SOL     OW52782   7.057   2.998   5.229
16962SOL    HW152783   7.142   2.972   5.264
16962SOL    HW252784   7.020   3.055   5.296
16963SOL     OW52785  12.563   9.642   2.347
16963SOL    HW152786  12.576   9.722   2.399
16963SOL    HW252787  12.599   9.664   2.261
16964SOL     OW52788  14.218   3.099  11.418
16964SOL    HW152789  14.273   3.021  11.424
16964SOL    HW252790  14.271   3.162  11.370
16965SOL     OW52791   9.195   6.073   0.186
16965SOL    HW152792   9.203   5.991   0.137
16965SOL    HW252793   9.186   6.045   0.277
16966SOL     OW52794   0.643  12.897   0.070
16966SOL    HW152795   0.628  12.804   0.052
16966SOL    HW252796   0.714  12.898   0.134
16967SOL     OW52797   1.103  11.071   9.952
16967SOL    HW152798   1.165  11.062   9.879
16967SOL    HW252799   1.145  11.134  10.011
16968SOL     OW52800   6.185  11.947   3.939
16968SOL    HW152801   6.126  12.009   3.981
16968SOL    HW252802   6.184  11.870   3.995
16969SOL     OW52803   9.540   5.569   4.248
16969SOL    HW152804   9.529   5.574   4.343
16969SOL    HW252805   9.467   5.620   4.212
16970SOL     OW52806  11.224   8.414   6.564
16970SOL    HW152807  11.163   8.474   6.607
16970SOL    HW252808  11.237   8.344   6.628
16971SOL     OW52809   0.364   2.103   8.846
16971SOL    HW152810   0.389   2.073   8.759
16971SOL    HW252811   0.282   2.057   8.865
16972SOL     OW52812  11.553   3.705   0.538
16972SOL    HW152813  11.618   3.763   0.576
16972SOL    HW252814  11.588   3.617   0.554
16973SOL     OW52815  11.957  12.182   7.876
16973SOL    HW152816  12.040  12.221   7.903
16973SOL    HW252817  11.896  12.256   7.871
16974SOL     OW52818   7.827   1.698  10.061
16974SOL    HW152819   7.795   1.607  10.063
16974SOL    HW252820   7.792   1.734   9.980
16975SOL     OW52821   3.774  10.092  10.548
16975SOL    HW152822   3.835  10.098  10.621
16975SOL    HW252823   3.818  10.038  10.483
16976SOL     OW52824  14.117  13.607   5.630
16976SOL    HW152825  14.099  13.657   5.550
16976SOL    HW252826  14.168  13.667   5.685
16977SOL     OW52827  10.550  11.154   8.320
16977SOL    HW152828  10.623  11.167   8.380
16977SOL    HW252829  10.489  11.225   8.340
16978SOL     OW52830   3.079  13.566   4.062
16978SOL    HW152831   3.019  13.610   4.122
16978SOL    HW252832   3.114  13.492   4.112
16979SOL     OW52833  13.784   5.062   6.034
16979SOL    HW152834  13.839   5.022   5.966
16979SOL    HW252835  13.697   5.068   5.994
16980SOL     OW52836  13.824   4.041   0.441
16980SOL    HW152837  13.773   3.971   0.399
16980SOL    HW252838  13.884   4.070   0.373
16981SOL     OW52839   5.258   0.421  12.495
16981SOL    HW152840   5.197   0.450  12.427
16981SOL    HW252841   5.296   0.340  12.460
16982SOL     OW52842  13.519  14.046   6.809
16982SOL    HW152843  13.544  14.030   6.718
16982SOL    HW252844  13.587  14.002   6.860
16983SOL     OW52845   0.919   6.149  13.907
16983SOL    HW152846   0.894   6.223  13.962
16983SOL    HW252847   0.958   6.189  13.830
16984SOL     OW52848   8.293  14.646   1.702
16984SOL    HW152849   8.206  14.607   1.709
16984SOL    HW252850   8.353  14.576   1.728
16985SOL     OW52851  14.321  14.010  11.585
16985SOL    HW152852  14.254  13.943  11.593
16985SOL    HW252853  14.304  14.052  11.501
16986SOL     OW52854  10.529   6.377   8.247
16986SOL    HW152855  10.605   6.318   8.247
16986SOL    HW252856  10.546   6.438   8.319
16987SOL     OW52857  11.639  12.279   3.042
16987SOL    HW152858  11.625  12.364   3.083
16987SOL    HW252859  11.570  12.224   3.077
16988SOL     OW52860   5.273   4.246  14.367
16988SOL    HW152861   5.267   4.296  14.285
16988SOL    HW252862   5.313   4.307  14.429
16989SOL     OW52863   9.164   5.387   7.745
16989SOL    HW152864   9.138   5.366   7.835
16989SOL    HW252865   9.153   5.305   7.697
16990SOL     OW52866   3.721  12.656   4.927
16990SOL    HW152867   3.747  12.747   4.938
16990SOL    HW252868   3.653  12.642   4.993
16991SOL     OW52869   7.224   5.014  14.753
16991SOL    HW152870   7.295   4.990  14.694
16991SOL    HW252871   7.250   4.979  14.838
16992SOL     OW52872  10.824   3.233   4.036
16992SOL    HW152873  10.904   3.224   3.985
16992SOL    HW252874  10.774   3.302   3.992
16993SOL     OW52875   8.691   9.558   1.178
16993SOL    HW152876   8.656   9.626   1.237
16993SOL    HW252877   8.663   9.476   1.218
16994SOL     OW52878  11.280   2.142   1.123
16994SOL    HW152879  11.331   2.190   1.188
16994SOL    HW252880  11.292   2.050   1.147
16995SOL     OW52881   8.605   4.781   5.233
16995SOL    HW152882   8.687   4.807   5.274
16995SOL    HW252883   8.559   4.730   5.300
16996SOL     OW52884   8.600   2.989  14.041
16996SOL    HW152885   8.618   3.027  13.955
16996SOL    HW252886   8.539   2.918  14.023
16997SOL     OW52887   2.273  12.785  11.204
16997SOL    HW152888   2.271  12.746  11.116
16997SOL    HW252889   2.332  12.860  11.195
16998SOL     OW52890   5.809   4.062  13.573
16998SOL    HW152891   5.737   4.112  13.611
16998SOL    HW252892   5.887   4.090  13.621
16999SOL     OW52893   3.682   9.218  12.494
16999SOL    HW152894   3.667   9.309  12.521
16999SOL    HW252895   3.777   9.210  12.487
17000SOL     OW52896   8.761   0.671   2.009
17000SOL    HW152897   8.795   0.759   1.994
17000SOL    HW252898   8.715   0.649   1.929
17001SOL     OW52899   9.952   9.133   4.694
17001SOL    HW152900   9.886   9.079   4.737
17001SOL    HW252901   9.996   9.074   4.634
17002SOL     OW52902   4.750   1.217   8.656
17002SOL    HW152903   4.817   1.161   8.616
17002SOL    HW252904   4.711   1.163   8.725
17003SOL     OW52905   8.428  10.337   9.249
17003SOL    HW152906   8.334  10.334   9.231
17003SOL    HW252907   8.456  10.422   9.215
17004SOL     OW52908   0.241   3.895  13.083
17004SOL    HW152909   0.209   3.811  13.115
17004SOL    HW252910   0.300   3.872  13.011
17005SOL     OW52911   7.498   1.220  10.074
17005SOL    HW152912   7.563   1.149  10.082
17005SOL    HW252913   7.465   1.212   9.985
17006SOL     OW52914  12.150  14.618   2.697
17006SOL    HW152915  12.056  14.623   2.709
17006SOL    HW252916  12.167  14.526   2.675
17007SOL     OW52917   3.445   9.974  13.002
17007SOL    HW152918   3.516   9.911  13.013
17007SOL    HW252919   3.451  10.003  12.911
17008SOL     OW52920  11.217  13.237   6.186
17008SOL    HW152921  11.289  13.176   6.169
17008SOL    HW252922  11.234  13.270   6.274
17009SOL     OW52923   3.679   6.042  11.638
17009SOL    HW152924   3.773   6.061  11.642
17009SOL    HW252925   3.636   6.127  11.634
17010SOL     OW52926  10.837   5.408   7.166
17010SOL    HW152927  10.865   5.389   7.255
17010SOL    HW252928  10.883   5.489   7.143
17011SOL     OW52929   9.585   9.000   1.210
17011SOL    HW152930   9.570   8.946   1.287
17011SOL    HW252931   9.555   9.088   1.236
17012SOL     OW52932   7.149   3.275   2.131
17012SOL    HW152933   7.193   3.360   2.120
17012SOL    HW252934   7.199   3.231   2.200
17013SOL     OW52935   1.168   7.748  11.725
17013SOL    HW152936   1.103   7.715  11.787
17013SOL    HW252937   1.251   7.743  11.773
17014SOL     OW52938  13.716  10.224   1.850
17014SOL    HW152939  13.761  10.142   1.833
17014SOL    HW252940  13.765  10.265   1.921
17015SOL     OW52941   9.833   9.933   8.661
17015SOL    HW152942   9.813   9.850   8.703
17015SOL    HW252943   9.854   9.992   8.733
17016SOL     OW52944  11.178   2.020  13.283
17016SOL    HW152945  11.215   1.932  13.294
17016SOL    HW252946  11.126   2.034  13.362
17017SOL     OW52947   8.139  14.766  11.508
17017SOL    HW152948   8.052  14.742  11.540
17017SOL    HW252949   8.187  14.684  11.504
17018SOL     OW52950   7.293  11.700   2.774
17018SOL    HW152951   7.287  11.785   2.731
17018SOL    HW252952   7.232  11.706   2.848
17019SOL     OW52953  10.754   4.974   2.991
17019SOL    HW152954  10.799   4.991   2.908
17019SOL    HW252955  10.778   4.884   3.013
17020SOL     OW52956   8.351  13.422   9.800
17020SOL    HW152957   8.283  13.381   9.854
17020SOL    HW252958   8.314  13.424   9.712
17021SOL     OW52959   0.248   5.419   7.326
17021SOL    HW152960   0.168   5.458   7.290
17021SOL    HW252961   0.302   5.493   7.352
17022SOL     OW52962   6.205  10.974   1.003
17022SOL    HW152963   6.295  10.992   1.030
17022SOL    HW252964   6.212  10.958   0.909
17023SOL     OW52965   9.854   4.312   0.415
17023SOL    HW152966   9.898   4.381   0.366
17023SOL    HW252967   9.869   4.233   0.364
17024SOL     OW52968   4.146   3.652   0.174
17024SOL    HW152969   4.159   3.560   0.152
17024SOL    HW252970   4.192   3.701   0.105
17025SOL     OW52971   2.434   1.730   7.612
17025SOL    HW152972   2.369   1.721   7.682
17025SOL    HW252973   2.519   1.718   7.657
17026SOL     OW52974   1.188   0.384   6.245
17026SOL    HW152975   1.218   0.354   6.159
17026SOL    HW252976   1.250   0.452   6.270
17027SOL     OW52977   4.273   9.586  12.607
17027SOL    HW152978   4.369   9.585  12.617
17027SOL    HW252979   4.240   9.562  12.693
17028SOL     OW52980   9.976   2.177  11.578
17028SOL    HW152981   9.919   2.103  11.595
17028SOL    HW252982   9.986   2.178  11.482
17029SOL     OW52983   2.333   5.701   5.967
17029SOL    HW152984   2.277   5.779   5.973
17029SOL    HW252985   2.275   5.632   5.936
17030SOL     OW52986   0.394   6.167   1.125
17030SOL    HW152987   0.405   6.211   1.210
17030SOL    HW252988   0.332   6.096   1.143
17031SOL     OW52989   2.146  13.252  11.923
17031SOL    HW152990   2.102  13.327  11.964
17031SOL    HW252991   2.075  13.196  11.894
17032SOL     OW52992   5.421  10.747   8.883
17032SOL    HW152993   5.353  10.807   8.854
17032SOL    HW252994   5.441  10.693   8.806
17033SOL     OW52995   6.902   5.099   4.679
17033SOL    HW152996   6.826   5.102   4.737
17033SOL    HW252997   6.918   5.006   4.665
17034SOL     OW52998   6.774   9.604  10.732
17034SOL    HW152999   6.699   9.632  10.680
17034SOL    HW253000   6.778   9.509  10.721
17035SOL     OW53001   5.391  14.505  12.686
17035SOL    HW153002   5.312  14.488  12.737
17035SOL    HW253003   5.442  14.425  12.693
17036SOL     OW53004   3.976   6.745   6.825
17036SOL    HW153005   4.009   6.655   6.827
17036SOL    HW253006   3.983   6.771   6.733
17037SOL     OW53007   3.664  14.236   7.696
17037SOL    HW153008   3.746  14.186   7.698
17037SOL    HW253009   3.599  14.174   7.662
17038SOL     OW53010   9.037   7.817  13.617
17038SOL    HW153011   9.117   7.809  13.565
17038SOL    HW253012   9.018   7.911  13.618
17039SOL     OW53013  14.646   6.658  12.294
17039SOL    HW153014  14.692   6.698  12.368
17039SOL    HW253015  14.710   6.657  12.223
17040SOL     OW53016   1.749  10.678   5.070
17040SOL    HW153017   1.740  10.660   5.164
17040SOL    HW253018   1.761  10.773   5.065
17041SOL     OW53019   5.472  12.178   6.297
17041SOL    HW153020   5.486  12.085   6.282
17041SOL    HW253021   5.452  12.214   6.211
17042SOL     OW53022   7.078  11.274  14.630
17042SOL    HW153023   7.021  11.198  14.616
17042SOL    HW253024   7.032  11.326  14.696
17043SOL     OW53025  11.295  10.599   3.768
17043SOL    HW153026  11.239  10.665   3.808
17043SOL    HW253027  11.254  10.580   3.683
17044SOL     OW53028   0.910  14.323   3.781
17044SOL    HW153029   0.886  14.288   3.696
17044SOL    HW253030   0.834  14.376   3.807
17045SOL     OW53031   8.727   6.479  10.371
17045SOL    HW153032   8.637   6.500  10.395
17045SOL    HW253033   8.780   6.510  10.445
17046SOL     OW53034  13.651   6.722  13.910
17046SOL    HW153035  13.694   6.801  13.879
17046SOL    HW253036  13.718   6.654  13.904
17047SOL     OW53037   0.279  14.367   9.002
17047SOL    HW153038   0.344  14.406   9.061
17047SOL    HW253039   0.331  14.333   8.929
17048SOL     OW53040   2.887   0.925   3.991
17048SOL    HW153041   2.977   0.952   3.974
17048SOL    HW253042   2.867   0.862   3.921
17049SOL     OW53043   3.331   5.474  14.679
17049SOL    HW153044   3.385   5.399  14.653
17049SOL    HW253045   3.250   5.463  14.629
17050SOL     OW53046   6.918   9.327   2.327
17050SOL    HW153047   6.904   9.344   2.234
17050SOL    HW253048   6.953   9.238   2.330
17051SOL     OW53049   0.516   7.500  12.005
17051SOL    HW153050   0.586   7.472  12.065
17051SOL    HW253051   0.497   7.422  11.953
17052SOL     OW53052  14.358  11.422   2.681
17052SOL    HW153053  14.352  11.364   2.606
17052SOL    HW253054  14.348  11.510   2.645
17053SOL     OW53055   4.549   8.006  14.346
17053SOL    HW153056   4.613   7.972  14.283
17053SOL    HW253057   4.600   8.028  14.423
17054SOL     OW53058  14.677  12.939  14.372
17054SOL    HW153059  14.719  13.025  14.377
17054SOL    HW253060  14.591  12.957  14.334
17055SOL     OW53061   0.338   9.401  11.666
17055SOL    HW153062   0.243   9.397  11.655
17055SOL    HW253063   0.355   9.361  11.751
17056SOL     OW53064   9.348  12.682   8.428
17056SOL    HW153065   9.296  12.757   8.398
17056SOL    HW253066   9.357  12.695   8.523
17057SOL     OW53067   7.070   7.400   0.155
17057SOL    HW153068   7.077   7.305   0.141
17057SOL    HW253069   7.015   7.431   0.084
17058SOL     OW53070   5.843  11.324   0.614
17058SOL    HW153071   5.820  11.378   0.539
17058SOL    HW253072   5.780  11.347   0.681
17059SOL     OW53073   0.497   0.098   2.540
17059SOL    HW153074   0.523   0.010   2.512
17059SOL    HW253075   0.579   0.147   2.546
17060SOL     OW53076   9.093  10.105   2.408
17060SOL    HW153077   9.154  10.069   2.343
17060SOL    HW253078   9.006  10.089   2.371
17061SOL     OW53079  14.652  11.540   9.355
17061SOL    HW153080  14.681  11.591   9.279
17061SOL    HW253081  14.706  11.572   9.428
17062SOL     OW53082   4.705   0.335  14.453
17062SOL    HW153083   4.708   0.240  14.467
17062SOL    HW253084   4.702   0.345  14.358
17063SOL     OW53085   8.168   4.608  12.595
17063SOL    HW153086   8.253   4.571  12.620
17063SOL    HW253087   8.105   4.537  12.608
17064SOL     OW53088   7.343  10.870   8.782
17064SOL    HW153089   7.360  10.827   8.866
17064SOL    HW253090   7.427  10.908   8.757
17065SOL     OW53091  13.216   9.251   4.117
17065SOL    HW153092  13.155   9.268   4.045
17065SOL    HW253093  13.217   9.155   4.126
17066SOL     OW53094  12.071   4.338   3.110
17066SOL    HW153095  12.026   4.396   3.049
17066SOL    HW253096  12.114   4.397   3.172
17067SOL     OW53097   6.338   1.785  10.439
17067SOL    HW153098   6.250   1.817  10.422
17067SOL    HW253099   6.392   1.823  10.369
17068SOL     OW53100   5.864  14.195   3.590
17068SOL    HW153101   5.833  14.145   3.514
17068SOL    HW253102   5.938  14.245   3.556
17069SOL     OW53103   8.488  13.456   3.775
17069SOL    HW153104   8.414  13.506   3.740
17069SOL    HW253105   8.481  13.370   3.732
17070SOL     OW53106  11.860   5.980   4.082
17070SOL    HW153107  11.900   5.941   4.005
17070SOL    HW253108  11.930   6.027   4.125
17071SOL     OW53109  11.947   5.786   8.507
17071SOL    HW153110  11.944   5.870   8.554
17071SOL    HW253111  12.020   5.796   8.446
17072SOL     OW53112   3.186   4.652   4.704
17072SOL    HW153113   3.102   4.697   4.704
17072SOL    HW253114   3.208   4.640   4.796
17073SOL     OW53115  13.259  11.775   3.409
17073SOL    HW153116  13.260  11.680   3.401
17073SOL    HW253117  13.351  11.800   3.414
17074SOL     OW53118  10.201   4.701  13.431
17074SOL    HW153119  10.143   4.671  13.500
17074SOL    HW253120  10.213   4.625  13.374
17075SOL     OW53121  12.021   6.648   6.368
17075SOL    HW153122  11.998   6.652   6.461
17075SOL    HW253123  12.021   6.554   6.348
17076SOL     OW53124   1.802   4.018   9.551
17076SOL    HW153125   1.839   4.094   9.597
17076SOL    HW253126   1.839   4.023   9.463
17077SOL     OW53127   3.962  10.381  10.901
17077SOL    HW153128   3.938  10.430  10.823
17077SOL    HW253129   4.019  10.311  10.869
17078SOL     OW53130  12.999   4.375   0.067
17078SOL    HW153131  12.910   4.339   0.066
17078SOL    HW253132  13.051   4.308   0.023
17079SOL     OW53133   0.475  14.007  11.877
17079SOL    HW153134   0.394  14.027  11.828
17079SOL    HW253135   0.543  14.056  11.831
17080SOL     OW53136   5.154   1.309   4.905
17080SOL    HW153137   5.183   1.400   4.898
17080SOL    HW253138   5.074   1.305   4.853
17081SOL     OW53139  11.849  11.663   2.873
17081SOL    HW153140  11.821  11.628   2.958
17081SOL    HW253141  11.937  11.626   2.860
17082SOL     OW53142  11.068   4.255   3.849
17082SOL    HW153143  11.050   4.321   3.782
17082SOL    HW253144  11.154   4.220   3.827
17083SOL     OW53145   4.361   5.386   8.965
17083SOL    HW153146   4.296   5.345   9.023
17083SOL    HW253147   4.403   5.312   8.920
17084SOL     OW53148  12.256   4.903   1.750
17084SOL    HW153149  12.242   4.965   1.679
17084SOL    HW253150  12.351   4.905   1.765
17085SOL     OW53151   8.045   7.552  12.987
17085SOL    HW153152   8.093   7.629  12.958
17085SOL    HW253153   7.970   7.546  12.928
17086SOL     OW53154  12.829   0.006   0.936
17086SOL    HW153155  12.809  14.861   1.025
17086SOL    HW253156  12.925   0.004   0.931
17087SOL     OW53157   6.402  13.934   5.805
17087SOL    HW153158   6.398  14.015   5.857
17087SOL    HW253159   6.314  13.898   5.809
17088SOL     OW53160   7.874  11.483   4.639
17088SOL    HW153161   7.900  11.535   4.714
17088SOL    HW253162   7.925  11.519   4.566
17089SOL     OW53163   5.731   3.814  12.126
17089SOL    HW153164   5.814   3.834  12.082
17089SOL    HW253165   5.757   3.777  12.211
17090SOL     OW53166   7.508   1.820  14.280
17090SOL    HW153167   7.569   1.760  14.322
17090SOL    HW253168   7.563   1.877  14.227
17091SOL     OW53169   9.183   3.471  13.548
17091SOL    HW153170   9.127   3.445  13.475
17091SOL    HW253171   9.269   3.487  13.508
17092SOL     OW53172   2.698   0.383  13.453
17092SOL    HW153173   2.712   0.342  13.538
17092SOL    HW253174   2.627   0.445  13.468
17093SOL     OW53175  11.190   8.544   4.899
17093SOL    HW153176  11.283   8.524   4.904
17093SOL    HW253177  11.167   8.532   4.807
17094SOL     OW53178   4.341   3.065   2.550
17094SOL    HW153179   4.410   3.129   2.565
17094SOL    HW253180   4.297   3.096   2.471
17095SOL     OW53181   7.062   6.070  13.782
17095SOL    HW153182   7.094   6.002  13.724
17095SOL    HW253183   7.083   6.038  13.870
17096SOL     OW53184   6.588   1.490   7.344
17096SOL    HW153185   6.640   1.440   7.282
17096SOL    HW253186   6.594   1.581   7.314
17097SOL     OW53187   9.941   1.900   6.888
17097SOL    HW153188  10.020   1.944   6.921
17097SOL    HW253189   9.879   1.905   6.960
17098SOL     OW53190   0.737  10.990   4.760
17098SOL    HW153191   0.650  11.014   4.791
17098SOL    HW253192   0.748  10.899   4.787
17099SOL     OW53193  11.491   3.079   3.009
17099SOL    HW153194  11.448   3.038   2.934
17099SOL    HW253195  11.569   3.120   2.973
17100SOL     OW53196  11.678  12.533   1.634
17100SOL    HW153197  11.584  12.552   1.636
17100SOL    HW253198  11.686  12.461   1.571
17101SOL     OW53199   7.459  14.043   5.797
17101SOL    HW153200   7.372  14.002   5.796
17101SOL    HW253201   7.509  13.994   5.731
17102SOL     OW53202  13.429  13.053   9.544
17102SOL    HW153203  13.340  13.039   9.576
17102SOL    HW253204  13.479  13.079   9.621
17103SOL     OW53205  10.818  10.240   5.853
17103SOL    HW153206  10.777  10.287   5.926
17103SOL    HW253207  10.789  10.287   5.775
17104SOL     OW53208   6.252   6.739  13.803
17104SOL    HW153209   6.337   6.696  13.802
17104SOL    HW253210   6.228   6.747  13.711
17105SOL     OW53211  10.723  12.937   0.836
17105SOL    HW153212  10.643  12.926   0.785
17105SOL    HW253213  10.712  13.021   0.881
17106SOL     OW53214  14.733   9.782   9.539
17106SOL    HW153215  14.678   9.743   9.471
17106SOL    HW253216  14.800   9.830   9.490
17107SOL     OW53217   8.541  13.802   3.959
17107SOL    HW153218   8.484  13.822   3.885
17107SOL    HW253219   8.481  13.779   4.030
17108SOL     OW53220  13.964  14.725   2.551
17108SOL    HW153221  13.974  14.752   2.643
17108SOL    HW253222  13.962  14.808   2.503
17109SOL     OW53223   6.436   1.350  14.402
17109SOL    HW153224   6.498   1.297  14.452
17109SOL    HW253225   6.375   1.287  14.364
17110SOL     OW53226   8.334   6.835   9.619
17110SOL    HW153227   8.334   6.917   9.668
17110SOL    HW253228   8.272   6.850   9.547
17111SOL     OW53229  12.437   4.762  10.253
17111SOL    HW153230  12.488   4.776  10.173
17111SOL    HW253231  12.481   4.688  10.296
17112SOL     OW53232   9.619   4.262   3.298
17112SOL    HW153233   9.657   4.259   3.385
17112SOL    HW253234   9.592   4.353   3.286
17113SOL     OW53235   2.520   7.146   7.656
17113SOL    HW153236   2.478   7.064   7.683
17113SOL    HW253237   2.537   7.135   7.563
17114SOL     OW53238   5.494   3.551   5.885
17114SOL    HW153239   5.572   3.608   5.883
17114SOL    HW253240   5.432   3.599   5.940
17115SOL     OW53241  13.391   5.464  12.025
17115SOL    HW153242  13.333   5.491  12.096
17115SOL    HW253243  13.355   5.380  11.995
17116SOL     OW53244   8.008   3.724   3.975
17116SOL    HW153245   8.039   3.752   3.889
17116SOL    HW253246   8.079   3.747   4.035
17117SOL     OW53247  13.939  12.845  10.274
17117SOL    HW153248  13.877  12.877  10.339
17117SOL    HW253249  14.003  12.916  10.264
17118SOL     OW53250   6.248   0.410   9.205
17118SOL    HW153251   6.333   0.371   9.187
17118SOL    HW253252   6.252   0.497   9.164
17119SOL     OW53253   4.777   0.293  13.888
17119SOL    HW153254   4.698   0.340  13.863
17119SOL    HW253255   4.796   0.324  13.977
17120SOL     OW53256  13.060   5.166  10.709
17120SOL    HW153257  13.144   5.124  10.687
17120SOL    HW253258  13.017   5.178  10.624
17121SOL     OW53259   0.602   5.157   2.451
17121SOL    HW153260   0.607   5.061   2.449
17121SOL    HW253261   0.509   5.176   2.440
17122SOL     OW53262  11.774   9.935   0.227
17122SOL    HW153263  11.739   9.847   0.214
17122SOL    HW253264  11.713   9.993   0.181
17123SOL     OW53265   7.804  13.577   8.539
17123SOL    HW153266   7.888  13.618   8.558
17123SOL    HW253267   7.811  13.489   8.575
17124SOL     OW53268  10.964  13.616  10.723
17124SOL    HW153269  10.903  13.675  10.679
17124SOL    HW253270  10.910  13.543  10.752
17125SOL     OW53271   2.848   7.684   0.004
17125SOL    HW153272   2.815   7.684  14.796
17125SOL    HW253273   2.935   7.644  14.880
17126SOL     OW53274   5.559  11.504   4.687
17126SOL    HW153275   5.645  11.474   4.716
17126SOL    HW253276   5.527  11.558   4.759
17127SOL     OW53277   0.308   4.174   8.852
17127SOL    HW153278   0.262   4.095   8.824
17127SOL    HW253279   0.353   4.149   8.932
17128SOL     OW53280  11.750   2.276   2.817
17128SOL    HW153281  11.796   2.217   2.877
17128SOL    HW253282  11.789   2.259   2.732
17129SOL     OW53283  12.166   4.077   3.018
17129SOL    HW153284  12.225   4.037   3.082
17129SOL    HW253285  12.111   4.136   3.070
17130SOL     OW53286  14.686   2.578  10.666
17130SOL    HW153287  14.719   2.498  10.624
17130SOL    HW253288  14.647   2.628  10.595
17131SOL     OW53289   8.847  11.790   8.385
17131SOL    HW153290   8.861  11.695   8.392
17131SOL    HW253291   8.752  11.800   8.388
17132SOL     OW53292   9.399   1.699   7.416
17132SOL    HW153293   9.458   1.690   7.341
17132SOL    HW253294   9.436   1.771   7.467
17133SOL     OW53295   7.767   4.521  12.396
17133SOL    HW153296   7.780   4.562  12.311
17133SOL    HW253297   7.828   4.448  12.398
17134SOL     OW53298  13.089   9.732  10.355
17134SOL    HW153299  13.149   9.669  10.393
17134SOL    HW253300  13.051   9.778  10.430
17135SOL     OW53301   1.453   7.736   3.110
17135SOL    HW153302   1.525   7.697   3.060
17135SOL    HW253303   1.475   7.720   3.201
17136SOL     OW53304  12.578  11.013  12.010
17136SOL    HW153305  12.549  11.098  11.977
17136SOL    HW253306  12.498  10.966  12.033
17137SOL     OW53307   1.243   3.039   6.565
17137SOL    HW153308   1.204   3.107   6.511
17137SOL    HW253309   1.330   3.073   6.587
17138SOL     OW53310  14.823   5.771  14.617
17138SOL    HW153311  14.751   5.833  14.625
17138SOL    HW253312  14.863   5.791  14.532
17139SOL     OW53313   7.171   1.425   2.203
17139SOL    HW153314   7.131   1.419   2.116
17139SOL    HW253315   7.237   1.357   2.204
17140SOL     OW53316  14.427   9.651   0.951
17140SOL    HW153317  14.507   9.638   1.002
17140SOL    HW253318  14.362   9.682   1.015
17141SOL     OW53319   0.326   2.692   5.600
17141SOL    HW153320   0.245   2.658   5.638
17141SOL    HW253321   0.314   2.681   5.506
17142SOL     OW53322   9.346  12.108   4.812
17142SOL    HW153323   9.257  12.134   4.787
17142SOL    HW253324   9.369  12.169   4.882
17143SOL     OW53325  10.331  13.109   9.244
17143SOL    HW153326  10.349  13.163   9.321
17143SOL    HW253327  10.288  13.031   9.278
17144SOL     OW53328   1.460   3.434   7.847
17144SOL    HW153329   1.423   3.503   7.792
17144SOL    HW253330   1.528   3.478   7.898
17145SOL     OW53331   0.002   1.556   8.521
17145SOL    HW153332   0.040   1.618   8.584
17145SOL    HW253333  14.812   1.605   8.481
17146SOL     OW53334   4.613   9.807  13.774
17146SOL    HW153335   4.637   9.880  13.718
17146SOL    HW253336   4.651   9.730  13.731
17147SOL     OW53337   2.640   5.683   3.622
17147SOL    HW153338   2.613   5.759   3.673
17147SOL    HW253339   2.718   5.650   3.668
17148SOL     OW53340   7.801   9.730   6.908
17148SOL    HW153341   7.756   9.752   6.990
17148SOL    HW253342   7.751   9.774   6.840
17149SOL     OW53343   8.287  10.658  13.437
17149SOL    HW153344   8.209  10.674  13.384
17149SOL    HW253345   8.360  10.684  13.381
17150SOL     OW53346  11.270   7.903   3.832
17150SOL    HW153347  11.219   7.922   3.911
17150SOL    HW253348  11.260   7.982   3.778
17151SOL     OW53349   9.741   3.003  12.452
17151SOL    HW153350   9.805   3.001  12.380
17151SOL    HW253351   9.739   2.913  12.484
17152SOL     OW53352  14.861   7.213   5.996
17152SOL    HW153353   0.072   7.230   5.981
17152SOL    HW253354  14.841   7.139   5.939
17153SOL     OW53355   8.722  12.995   1.441
17153SOL    HW153356   8.727  13.049   1.362
17153SOL    HW253357   8.681  12.914   1.412
17154SOL     OW53358  14.731   3.353   6.945
17154SOL    HW153359  14.724   3.383   6.854
17154SOL    HW253360  14.699   3.426   6.997
17155SOL     OW53361   6.654   5.878   5.624
17155SOL    HW153362   6.722   5.873   5.557
17155SOL    HW253363   6.620   5.789   5.631
17156SOL     OW53364   1.481  12.864   2.525
17156SOL    HW153365   1.462  12.780   2.483
17156SOL    HW253366   1.554  12.900   2.474
17157SOL     OW53367   6.399   7.192  12.423
17157SOL    HW153368   6.466   7.149  12.370
17157SOL    HW253369   6.428   7.283  12.429
17158SOL     OW53370  13.351   0.553   1.869
17158SOL    HW153371  13.415   0.492   1.832
17158SOL    HW253372  13.398   0.598   1.939
17159SOL     OW53373  10.158   3.830  11.133
17159SOL    HW153374  10.208   3.755  11.101
17159SOL    HW253375  10.092   3.847  11.066
17160SOL     OW53376  11.733  14.763  11.654
17160SOL    HW153377  11.791  14.836  11.634
17160SOL    HW253378  11.762  14.692  11.597
17161SOL     OW53379  13.194  12.051   7.407
17161SOL    HW153380  13.106  12.013   7.400
17161SOL    HW253381  13.239  12.021   7.328
17162SOL     OW53382   3.445   8.039   2.916
17162SOL    HW153383   3.512   8.047   2.848
17162SOL    HW253384   3.372   8.093   2.885
17163SOL     OW53385  12.337   5.957   5.705
17163SOL    HW153386  12.364   5.866   5.712
17163SOL    HW253387  12.307   5.981   5.793
17164SOL     OW53388  11.390  11.612   8.150
17164SOL    HW153389  11.352  11.682   8.203
17164SOL    HW253390  11.478  11.644   8.129
17165SOL     OW53391   1.793   5.788  13.292
17165SOL    HW153392   1.799   5.775  13.387
17165SOL    HW253393   1.709   5.749  13.268
17166SOL     OW53394   4.056   9.260   8.445
17166SOL    HW153395   4.088   9.258   8.355
17166SOL    HW253396   3.996   9.335   8.448
17167SOL     OW53397   8.437   1.160   3.304
17167SOL    HW153398   8.458   1.250   3.327
17167SOL    HW253399   8.452   1.156   3.209
17168SOL     OW53400  13.271  11.824   2.240
17168SOL    HW153401  13.226  11.837   2.324
17168SOL    HW253402  13.280  11.729   2.233
17169SOL     OW53403   4.687  10.935   7.946
17169SOL    HW153404   4.757  11.000   7.938
17169SOL    HW253405   4.621  10.961   7.882
17170SOL     OW53406   4.634   5.447  11.755
17170SOL    HW153407   4.620   5.362  11.796
17170SOL    HW253408   4.546   5.478  11.733
17171SOL     OW53409   9.342   3.319  13.233
17171SOL    HW153410   9.257   3.299  13.273
17171SOL    HW253411   9.320   3.343  13.142
17172SOL     OW53412   2.741   3.045   2.555
17172SOL    HW153413   2.693   3.035   2.473
17172SOL    HW253414   2.782   2.959   2.569
17173SOL     OW53415   5.438   7.027  13.056
17173SOL    HW153416   5.374   7.085  13.013
17173SOL    HW253417   5.392   6.944  13.065
17174SOL     OW53418   3.318   4.876   7.990
17174SOL    HW153419   3.380   4.844   8.055
17174SOL    HW253420   3.289   4.796   7.944
17175SOL     OW53421   6.073  11.502  10.274
17175SOL    HW153422   6.153  11.453  10.292
17175SOL    HW253423   6.034  11.516  10.360
17176SOL     OW53424   8.887  12.923  10.058
17176SOL    HW153425   8.825  12.878  10.116
17176SOL    HW253426   8.833  12.953   9.984
17177SOL     OW53427   5.867   0.566   4.908
17177SOL    HW153428   5.951   0.612   4.901
17177SOL    HW253429   5.807   0.630   4.945
17178SOL     OW53430  11.591  10.750  13.696
17178SOL    HW153431  11.638  10.710  13.769
17178SOL    HW253432  11.500  10.725  13.710
17179SOL     OW53433   2.671  11.726   7.188
17179SOL    HW153434   2.578  11.741   7.170
17179SOL    HW253435   2.701  11.808   7.228
17180SOL     OW53436   3.114   9.455   5.564
17180SOL    HW153437   3.172   9.528   5.585
17180SOL    HW253438   3.096   9.414   5.649
17181SOL     OW53439   6.021  10.437   7.989
17181SOL    HW153440   6.005  10.354   7.943
17181SOL    HW253441   5.958  10.498   7.951
17182SOL     OW53442   9.451   5.681  12.802
17182SOL    HW153443   9.406   5.750  12.851
17182SOL    HW253444   9.468   5.720  12.716
17183SOL     OW53445   6.028   8.245   4.631
17183SOL    HW153446   5.980   8.166   4.654
17183SOL    HW253447   6.120   8.218   4.629
17184SOL     OW53448   2.369   5.955   7.974
17184SOL    HW153449   2.410   6.022   7.918
17184SOL    HW253450   2.428   5.879   7.967
17185SOL     OW53451  13.540  11.501   5.853
17185SOL    HW153452  13.550  11.431   5.918
17185SOL    HW253453  13.509  11.576   5.904
17186SOL     OW53454   4.058   1.067   4.115
17186SOL    HW153455   4.127   1.066   4.182
17186SOL    HW253456   4.060   0.979   4.077
17187SOL     OW53457   9.308   9.526   4.600
17187SOL    HW153458   9.271   9.438   4.612
17187SOL    HW253459   9.398   9.510   4.570
17188SOL     OW53460   5.429   0.683   7.775
17188SOL    HW153461   5.444   0.624   7.701
17188SOL    HW253462   5.401   0.765   7.735
17189SOL     OW53463   2.994  11.641  14.240
17189SOL    HW153464   3.008  11.552  14.207
17189SOL    HW253465   3.046  11.645  14.320
17190SOL     OW53466   3.007   3.964   5.550
17190SOL    HW153467   2.965   3.922   5.475
17190SOL    HW253468   3.086   4.004   5.513
17191SOL     OW53469   9.960   5.702  11.062
17191SOL    HW153470   9.933   5.664  10.978
17191SOL    HW253471   9.973   5.627  11.120
17192SOL     OW53472  12.997   0.657  10.230
17192SOL    HW153473  12.952   0.737  10.204
17192SOL    HW253474  13.079   0.686  10.270
17193SOL     OW53475   1.917  11.244  14.715
17193SOL    HW153476   1.898  11.219  14.625
17193SOL    HW253477   1.989  11.186  14.741
17194SOL     OW53478   2.130  13.311  14.573
17194SOL    HW153479   2.112  13.253  14.500
17194SOL    HW253480   2.224  13.301  14.590
17195SOL     OW53481   7.921   4.607   5.376
17195SOL    HW153482   7.989   4.659   5.331
17195SOL    HW253483   7.898   4.539   5.314
17196SOL     OW53484   4.173   4.078   9.647
17196SOL    HW153485   4.189   4.064   9.740
17196SOL    HW253486   4.153   4.171   9.639
17197SOL     OW53487  13.188   6.701   4.339
17197SOL    HW153488  13.113   6.753   4.369
17197SOL    HW253489  13.200   6.727   4.248
17198SOL     OW53490   9.973   5.840  12.758
17198SOL    HW153491   9.925   5.900  12.816
17198SOL    HW253492   9.911   5.823  12.686
17199SOL     OW53493  11.373  10.244  10.985
17199SOL    HW153494  11.457  10.226  10.943
17199SOL    HW253495  11.320  10.285  10.916
17200SOL     OW53496  14.321   4.056  11.595
17200SOL    HW153497  14.411   4.071  11.569
17200SOL    HW253498  14.288   3.994  11.529
17201SOL     OW53499   2.076   4.980  12.082
17201SOL    HW153500   2.100   4.957  12.171
17201SOL    HW253501   2.035   5.066  12.089
17202SOL     OW53502  11.253   4.076   9.740
17202SOL    HW153503  11.206   4.081   9.823
17202SOL    HW253504  11.292   4.163   9.729
17203SOL     OW53505  10.576   3.435   1.113
17203SOL    HW153506  10.510   3.367   1.125
17203SOL    HW253507  10.652   3.405   1.164
17204SOL     OW53508   7.133   1.610   3.921
17204SOL    HW153509   7.185   1.532   3.937
17204SOL    HW253510   7.063   1.581   3.862
17205SOL     OW53511   8.483   8.212   9.925
17205SOL    HW153512   8.403   8.162   9.942
17205SOL    HW253513   8.497   8.262  10.005
17206SOL     OW53514  12.636   7.961   7.350
17206SOL    HW153515  12.554   7.966   7.399
17206SOL    HW253516  12.700   7.927   7.413
17207SOL     OW53517   7.385   5.574  13.831
17207SOL    HW153518   7.457   5.593  13.892
17207SOL    HW253519   7.380   5.478  13.829
17208SOL     OW53520   8.279   2.408   7.221
17208SOL    HW153521   8.188   2.416   7.191
17208SOL    HW253522   8.276   2.436   7.312
17209SOL     OW53523   2.171   9.888   5.697
17209SOL    HW153524   2.097   9.843   5.657
17209SOL    HW253525   2.202   9.829   5.765
17210SOL     OW53526   8.283  14.164   3.212
17210SOL    HW153527   8.277  14.236   3.149
17210SOL    HW253528   8.224  14.097   3.178
17211SOL     OW53529   6.695   8.814   2.943
17211SOL    HW153530   6.726   8.821   3.033
17211SOL    HW253531   6.760   8.862   2.892
17212SOL     OW53532  14.483  10.311  12.255
17212SOL    HW153533  14.446  10.362  12.327
17212SOL    HW253534  14.408  10.290  12.199
17213SOL     OW53535   0.436  10.968  13.290
17213SOL    HW153536   0.446  10.944  13.198
17213SOL    HW253537   0.468  10.892  13.339
17214SOL     OW53538   4.727   5.498   5.432
17214SOL    HW153539   4.723   5.480   5.338
17214SOL    HW253540   4.807   5.549   5.443
17215SOL     OW53541  11.339   4.249  13.297
17215SOL    HW153542  11.347   4.166  13.249
17215SOL    HW253543  11.262   4.237  13.353
17216SOL     OW53544   1.589  13.092   2.779
17216SOL    HW153545   1.615  13.067   2.868
17216SOL    HW253546   1.669  13.084   2.727
17217SOL     OW53547  12.651   8.682   4.001
17217SOL    HW153548  12.596   8.726   4.066
17217SOL    HW253549  12.655   8.591   4.031
17218SOL     OW53550  10.209  11.529   7.883
17218SOL    HW153551  10.243  11.440   7.888
17218SOL    HW253552  10.137  11.523   7.820
17219SOL     OW53553   1.170   6.357  11.697
17219SOL    HW153554   1.214   6.344  11.781
17219SOL    HW253555   1.236   6.396  11.641
17220SOL     OW53556  11.748   7.150   7.756
17220SOL    HW153557  11.813   7.134   7.687
17220SOL    HW253558  11.761   7.078   7.818
17221SOL     OW53559  11.644   4.445   6.020
17221SOL    HW153560  11.602   4.400   5.946
17221SOL    HW253561  11.614   4.397   6.097
17222SOL     OW53562   0.358  10.517   1.206
17222SOL    HW153563   0.277  10.537   1.159
17222SOL    HW253564   0.390  10.437   1.165
17223SOL     OW53565   9.838  14.762  12.525
17223SOL    HW153566   9.898  14.705  12.478
17223SOL    HW253567   9.752  14.721  12.516
17224SOL     OW53568   1.567  12.905   0.654
17224SOL    HW153569   1.531  12.835   0.601
17224SOL    HW253570   1.638  12.942   0.601
17225SOL     OW53571   6.212  10.082  13.495
17225SOL    HW153572   6.286  10.115  13.546
17225SOL    HW253573   6.211  10.136  13.416
17226SOL     OW53574   7.658   3.650  11.655
17226SOL    HW153575   7.648   3.557  11.638
17226SOL    HW253576   7.585   3.691  11.608
17227SOL     OW53577   6.152   1.112   1.618
17227SOL    HW153578   6.237   1.110   1.660
17227SOL    HW253579   6.130   1.205   1.613
17228SOL     OW53580   4.400   6.806  12.113
17228SOL    HW153581   4.367   6.760  12.036
17228SOL    HW253582   4.321   6.831  12.161
17229SOL     OW53583   8.801   8.465   0.676
17229SOL    HW153584   8.779   8.556   0.656
17229SOL    HW253585   8.827   8.428   0.592
17230SOL     OW53586  13.660   4.279   8.626
17230SOL    HW153587  13.720   4.352   8.632
17230SOL    HW253588  13.674   4.230   8.707
17231SOL     OW53589   4.716   3.563  11.129
17231SOL    HW153590   4.795   3.595  11.172
17231SOL    HW253591   4.660   3.640  11.121
17232SOL     OW53592   9.943   4.283   7.616
17232SOL    HW153593   9.870   4.344   7.613
17232SOL    HW253594   9.976   4.281   7.525
17233SOL     OW53595  10.064  11.634   9.987
17233SOL    HW153596  10.040  11.547  10.019
17233SOL    HW253597   9.985  11.687   9.998
17234SOL     OW53598   4.499   9.559  13.382
17234SOL    HW153599   4.509   9.519  13.469
17234SOL    HW253600   4.577   9.530  13.334
17235SOL     OW53601   9.257  10.165   9.646
17235SOL    HW153602   9.249  10.142   9.554
17235SOL    HW253603   9.336  10.219   9.652
17236SOL     OW53604   1.752  13.046   6.652
17236SOL    HW153605   1.791  12.968   6.692
17236SOL    HW253606   1.658  13.031   6.656
17237SOL     OW53607  14.274   0.616   1.333
17237SOL    HW153608  14.180   0.603   1.344
17237SOL    HW253609  14.290   0.598   1.240
17238SOL     OW53610  13.185   8.587  14.735
17238SOL    HW153611  13.114   8.648  14.722
17238SOL    HW253612  13.219   8.570  14.647
17239SOL     OW53613   5.452   4.286  10.996
17239SOL    HW153614   5.496   4.266  11.079
17239SOL    HW253615   5.522   4.286  10.931
17240SOL     OW53616  14.704   5.743  11.846
17240SOL    HW153617  14.665   5.714  11.928
17240SOL    HW253618  14.690   5.671  11.785
17241SOL     OW53619  10.250  13.154   0.133
17241SOL    HW153620  10.196  13.086   0.174
17241SOL    HW253621  10.328  13.108   0.102
17242SOL     OW53622  12.165  12.396   0.914
17242SOL    HW153623  12.242  12.360   0.958
17242SOL    HW253624  12.161  12.349   0.831
17243SOL     OW53625   3.088   9.096   4.379
17243SOL    HW153626   3.108   9.040   4.454
17243SOL    HW253627   3.173   9.114   4.339
17244SOL     OW53628   9.451   4.886   7.995
17244SOL    HW153629   9.381   4.823   8.013
17244SOL    HW253630   9.459   4.936   8.076
17245SOL     OW53631  10.444   9.659  12.415
17245SOL    HW153632  10.470   9.638  12.505
17245SOL    HW253633  10.396   9.741  12.422
17246SOL     OW53634  14.405   2.496   4.283
17246SOL    HW153635  14.365   2.577   4.314
17246SOL    HW253636  14.487   2.490   4.331
17247SOL     OW53637  10.403   8.597   9.163
17247SOL    HW153638  10.344   8.605   9.088
17247SOL    HW253639  10.370   8.523   9.213
17248SOL     OW53640   0.751   3.423   5.415
17248SOL    HW153641   0.839   3.460   5.409
17248SOL    HW253642   0.715   3.434   5.327
17249SOL     OW53643   5.828   1.723   5.713
17249SOL    HW153644   5.797   1.654   5.653
17249SOL    HW253645   5.750   1.749   5.761
17250SOL     OW53646   5.342   3.492   2.324
17250SOL    HW153647   5.318   3.565   2.266
17250SOL    HW253648   5.341   3.530   2.412
17251SOL     OW53649   3.414   3.335   2.744
17251SOL    HW153650   3.435   3.415   2.697
17251SOL    HW253651   3.399   3.270   2.675
17252SOL     OW53652  10.451   4.615  12.283
17252SOL    HW153653  10.418   4.684  12.225
17252SOL    HW253654  10.526   4.654  12.327
17253SOL     OW53655  12.976   1.404   2.574
17253SOL    HW153656  12.905   1.401   2.509
17253SOL    HW253657  13.052   1.434   2.524
17254SOL     OW53658   1.550   1.972   7.026
17254SOL    HW153659   1.575   2.059   6.996
17254SOL    HW253660   1.633   1.925   7.035
17255SOL     OW53661   5.584  13.810   7.341
17255SOL    HW153662   5.616  13.800   7.251
17255SOL    HW253663   5.492  13.836   7.331
17256SOL     OW53664   8.100   2.583  10.621
17256SOL    HW153665   8.028   2.632  10.582
17256SOL    HW253666   8.061   2.538  10.696
17257SOL     OW53667   2.074   8.403   4.602
17257SOL    HW153668   2.143   8.339   4.584
17257SOL    HW253669   2.064   8.450   4.519
17258SOL     OW53670   1.619   7.905   8.815
17258SOL    HW153671   1.598   7.817   8.785
17258SOL    HW253672   1.678   7.939   8.747
17259SOL     OW53673   8.843  14.221  10.294
17259SOL    HW153674   8.824  14.128  10.302
17259SOL    HW253675   8.861  14.235  10.201
17260SOL     OW53676   8.295   6.156   7.968
17260SOL    HW153677   8.294   6.201   8.053
17260SOL    HW253678   8.388   6.138   7.952
17261SOL     OW53679   2.700   9.619   2.233
17261SOL    HW153680   2.683   9.637   2.140
17261SOL    HW253681   2.620   9.648   2.277
17262SOL     OW53682   5.061  12.347   3.564
17262SOL    HW153683   5.067  12.253   3.546
17262SOL    HW253684   4.977  12.373   3.525
17263SOL     OW53685  10.033  12.125  10.689
17263SOL    HW153686   9.958  12.168  10.647
17263SOL    HW253687  10.045  12.044  10.639
17264SOL     OW53688  13.562  12.678   1.563
17264SOL    HW153689  13.467  12.688   1.554
17264SOL    HW253690  13.581  12.593   1.524
17265SOL     OW53691   9.958   1.403   6.496
17265SOL    HW153692   9.937   1.349   6.420
17265SOL    HW253693  10.015   1.346   6.549
17266SOL     OW53694  12.395  10.380  10.952
17266SOL    HW153695  12.473  10.425  10.984
17266SOL    HW253696  12.391  10.403  10.859
17267SOL     OW53697   3.079   8.052   6.697
17267SOL    HW153698   3.165   8.088   6.718
17267SOL    HW253699   3.017   8.122   6.719
17268SOL     OW53700   5.288   4.237   0.371
17268SOL    HW153701   5.205   4.258   0.328
17268SOL    HW253702   5.345   4.311   0.350
17269SOL     OW53703   4.958  14.408   6.933
17269SOL    HW153704   4.989  14.438   7.018
17269SOL    HW253705   4.867  14.439   6.929
17270SOL     OW53706   8.453  14.331   2.373
17270SOL    HW153707   8.472  14.254   2.319
17270SOL    HW253708   8.365  14.315   2.406
17271SOL     OW53709   2.752   1.746  12.125
17271SOL    HW153710   2.817   1.679  12.146
17271SOL    HW253711   2.802   1.827  12.119
17272SOL     OW53712   3.176  11.706   5.540
17272SOL    HW153713   3.195  11.631   5.597
17272SOL    HW253714   3.108  11.754   5.586
17273SOL     OW53715   0.180   0.632  11.819
17273SOL    HW153716   0.244   0.567  11.848
17273SOL    HW253717   0.096   0.586  11.822
17274SOL     OW53718   9.885   6.945   2.973
17274SOL    HW153719   9.799   6.906   2.958
17274SOL    HW253720   9.882   6.975   3.064
17275SOL     OW53721  14.219  10.707   0.501
17275SOL    HW153722  14.297  10.691   0.554
17275SOL    HW253723  14.149  10.660   0.547
17276SOL     OW53724   2.599   4.106   6.199
17276SOL    HW153725   2.547   4.053   6.259
17276SOL    HW253726   2.552   4.103   6.116
17277SOL     OW53727   5.983  10.418   0.674
17277SOL    HW153728   6.023  10.332   0.686
17277SOL    HW253729   5.966  10.449   0.763
17278SOL     OW53730   4.556   0.822  13.533
17278SOL    HW153731   4.603   0.751  13.489
17278SOL    HW253732   4.466   0.814  13.501
17279SOL     OW53733  12.824  13.396   6.179
17279SOL    HW153734  12.920  13.396   6.187
17279SOL    HW253735  12.802  13.487   6.158
17280SOL     OW53736   4.935   7.128   4.788
17280SOL    HW153737   4.863   7.073   4.757
17280SOL    HW253738   4.895   7.214   4.804
17281SOL     OW53739   2.347   7.694   2.265
17281SOL    HW153740   2.391   7.704   2.349
17281SOL    HW253741   2.260   7.731   2.279
17282SOL     OW53742   5.150   9.090  12.909
17282SOL    HW153743   5.168   8.997  12.900
17282SOL    HW253744   5.229   9.127  12.948
17283SOL     OW53745  12.601  12.998  14.761
17283SOL    HW153746  12.592  12.962  14.849
17283SOL    HW253747  12.675  12.951  14.724
17284SOL     OW53748   4.224   0.607   1.324
17284SOL    HW153749   4.312   0.592   1.291
17284SOL    HW253750   4.187   0.519   1.336
17285SOL     OW53751   3.249   2.850   0.945
17285SOL    HW153752   3.276   2.878   1.033
17285SOL    HW253753   3.291   2.765   0.933
17286SOL     OW53754   9.894  12.456   6.424
17286SOL    HW153755   9.810  12.487   6.457
17286SOL    HW253756   9.959  12.510   6.467
17287SOL     OW53757   3.275  11.197   0.356
17287SOL    HW153758   3.294  11.144   0.433
17287SOL    HW253759   3.184  11.178   0.335
17288SOL     OW53760  12.160   7.093  12.211
17288SOL    HW153761  12.161   7.188  12.199
17288SOL    HW253762  12.068   7.071  12.224
17289SOL     OW53763  12.083  10.161  10.071
17289SOL    HW153764  12.152  10.135  10.132
17289SOL    HW253765  12.063  10.081  10.022
17290SOL     OW53766   4.579   8.250   1.924
17290SOL    HW153767   4.637   8.238   1.849
17290SOL    HW253768   4.565   8.345   1.928
17291SOL     OW53769   2.032   6.293   5.597
17291SOL    HW153770   2.016   6.256   5.510
17291SOL    HW253771   2.052   6.386   5.581
17292SOL     OW53772   8.499  10.171   3.486
17292SOL    HW153773   8.423  10.115   3.471
17292SOL    HW253774   8.568  10.132   3.432
17293SOL     OW53775   3.358   4.819  12.127
17293SOL    HW153776   3.370   4.854  12.215
17293SOL    HW253777   3.263   4.810  12.118
17294SOL     OW53778   5.665   8.238  12.386
17294SOL    HW153779   5.727   8.295  12.342
17294SOL    HW253780   5.699   8.229  12.475
17295SOL     OW53781   2.503  13.067   2.517
17295SOL    HW153782   2.473  13.121   2.590
17295SOL    HW253783   2.568  13.008   2.556
17296SOL     OW53784  11.429   2.591  11.143
17296SOL    HW153785  11.500   2.572  11.204
17296SOL    HW253786  11.373   2.514  11.147
17297SOL     OW53787   1.760   0.502   8.189
17297SOL    HW153788   1.673   0.484   8.224
17297SOL    HW253789   1.756   0.593   8.159
17298SOL     OW53790  10.331   5.363   6.375
17298SOL    HW153791  10.362   5.383   6.463
17298SOL    HW253792  10.318   5.448   6.334
17299SOL     OW53793   4.927   6.185  11.139
17299SOL    HW153794   5.013   6.147  11.155
17299SOL    HW253795   4.930   6.215  11.048
17300SOL     OW53796  12.786   2.905  13.691
17300SOL    HW153797  12.737   2.980  13.657
17300SOL    HW253798  12.761   2.832  13.634
17301SOL     OW53799  10.975  12.328   4.971
17301SOL    HW153800  10.959  12.259   5.036
17301SOL    HW253801  10.903  12.318   4.909
17302SOL     OW53802  13.358   7.853   4.180
17302SOL    HW153803  13.363   7.786   4.113
17302SOL    HW253804  13.270   7.845   4.218
17303SOL     OW53805  12.150   8.455   1.117
17303SOL    HW153806  12.131   8.382   1.175
17303SOL    HW253807  12.091   8.525   1.145
17304SOL     OW53808   3.540   2.423   8.433
17304SOL    HW153809   3.463   2.372   8.456
17304SOL    HW253810   3.608   2.393   8.494
17305SOL     OW53811  11.489   7.241   8.444
17305SOL    HW153812  11.404   7.282   8.426
17305SOL    HW253813  11.537   7.307   8.494
17306SOL     OW53814   0.066   7.018  10.530
17306SOL    HW153815   0.132   7.088  10.528
17306SOL    HW253816   0.001   7.050  10.592
17307SOL     OW53817   5.842   3.075  12.070
17307SOL    HW153818   5.879   3.006  12.015
17307SOL    HW253819   5.894   3.072  12.151
17308SOL     OW53820   8.108   2.300   8.991
17308SOL    HW153821   8.065   2.227   9.035
17308SOL    HW253822   8.074   2.378   9.036
17309SOL     OW53823   3.746  13.583  11.630
17309SOL    HW153824   3.755  13.584  11.535
17309SOL    HW253825   3.671  13.525  11.647
17310SOL     OW53826   9.660   2.500  13.627
17310SOL    HW153827   9.706   2.447  13.562
17310SOL    HW253828   9.704   2.585  13.624
17311SOL     OW53829   7.738   3.168  12.192
17311SOL    HW153830   7.663   3.117  12.222
17311SOL    HW253831   7.810   3.105  12.188
17312SOL     OW53832   0.302   4.201  13.248
17312SOL    HW153833   0.282   4.203  13.154
17312SOL    HW253834   0.381   4.254  13.256
17313SOL     OW53835   9.777   4.810   8.014
17313SOL    HW153836   9.718   4.751   7.967
17313SOL    HW253837   9.720   4.879   8.048
17314SOL     OW53838   3.469   8.847   6.727
17314SOL    HW153839   3.474   8.780   6.658
17314SOL    HW253840   3.500   8.927   6.685
17315SOL     OW53841  10.308   6.324  14.379
17315SOL    HW153842  10.311   6.244  14.431
17315SOL    HW253843  10.361   6.304  14.302
17316SOL     OW53844   0.166  11.813   5.623
17316SOL    HW153845   0.210  11.854   5.549
17316SOL    HW253846   0.235  11.764   5.668
17317SOL     OW53847  11.051   1.240   2.190
17317SOL    HW153848  10.962   1.264   2.214
17317SOL    HW253849  11.081   1.312   2.134
17318SOL     OW53850   0.896  12.981   7.149
17318SOL    HW153851   0.951  12.913   7.187
17318SOL    HW253852   0.839  12.934   7.087
17319SOL     OW53853   2.993   3.383  10.467
17319SOL    HW153854   3.019   3.304  10.419
17319SOL    HW253855   3.024   3.456  10.413
17320SOL     OW53856   1.122  10.549   0.650
17320SOL    HW153857   1.032  10.555   0.618
17320SOL    HW253858   1.170  10.506   0.579
17321SOL     OW53859  12.041   5.866  14.448
17321SOL    HW153860  12.093   5.786  14.445
17321SOL    HW253861  12.102   5.935  14.422
17322SOL     OW53862   2.034  12.940  11.177
17322SOL    HW153863   2.122  12.909  11.194
17322SOL    HW253864   2.035  12.967  11.085
17323SOL     OW53865   4.116  10.688   9.445
17323SOL    HW153866   4.191  10.653   9.494
17323SOL    HW253867   4.148  10.769   9.407
17324SOL     OW53868  12.711  11.568   8.036
17324SOL    HW153869  12.678  11.496   7.981
17324SOL    HW253870  12.635  11.625   8.047
17325SOL     OW53871   2.657  10.390   5.920
17325SOL    HW153872   2.684  10.358   6.006
17325SOL    HW253873   2.680  10.483   5.921
17326SOL     OW53874  13.550   1.700   7.541
17326SOL    HW153875  13.568   1.787   7.506
17326SOL    HW253876  13.585   1.639   7.476
17327SOL     OW53877  14.130  10.766   0.122
17327SOL    HW153878  14.154  10.809   0.204
17327SOL    HW253879  14.046  10.806   0.098
17328SOL     OW53880   3.449  12.703   5.510
17328SOL    HW153881   3.506  12.714   5.434
17328SOL    HW253882   3.365  12.676   5.473
17329SOL     OW53883   5.381  10.122   4.270
17329SOL    HW153884   5.434  10.117   4.350
17329SOL    HW253885   5.395  10.212   4.238
17330SOL     OW53886   6.897   7.132   5.931
17330SOL    HW153887   6.869   7.062   5.871
17330SOL    HW253888   6.973   7.171   5.888
17331SOL     OW53889  12.142  10.872   0.966
17331SOL    HW153890  12.207  10.923   0.918
17331SOL    HW253891  12.071  10.934   0.983
17332SOL     OW53892  13.897   9.037  14.399
17332SOL    HW153893  13.993   9.031  14.403
17332SOL    HW253894  13.872   8.977  14.329
17333SOL     OW53895   0.304   7.245   6.350
17333SOL    HW153896   0.374   7.250   6.286
17333SOL    HW253897   0.318   7.321   6.407
17334SOL     OW53898   9.892   0.775   9.874
17334SOL    HW153899   9.856   0.732   9.797
17334SOL    HW253900   9.980   0.803   9.848
17335SOL     OW53901   4.633   4.235  11.131
17335SOL    HW153902   4.561   4.253  11.071
17335SOL    HW253903   4.677   4.319  11.143
17336SOL     OW53904   0.877   2.541   5.035
17336SOL    HW153905   0.899   2.487   4.959
17336SOL    HW253906   0.785   2.564   5.022
17337SOL     OW53907  12.148  11.060   8.615
17337SOL    HW153908  12.121  11.052   8.706
17337SOL    HW253909  12.068  11.083   8.568
17338SOL     OW53910   3.393   1.547  13.275
17338SOL    HW153911   3.316   1.496  13.301
17338SOL    HW253912   3.385   1.556  13.180
17339SOL     OW53913   7.233  13.186   1.973
17339SOL    HW153914   7.240  13.192   1.878
17339SOL    HW253915   7.141  13.162   1.989
17340SOL     OW53916   2.010   1.597   1.223
17340SOL    HW153917   2.075   1.627   1.160
17340SOL    HW253918   2.056   1.597   1.307
17341SOL     OW53919   4.466   3.313   0.805
17341SOL    HW153920   4.548   3.358   0.788
17341SOL    HW253921   4.404   3.383   0.824
17342SOL     OW53922   7.509   9.603   5.884
17342SOL    HW153923   7.416   9.626   5.892
17342SOL    HW253924   7.514   9.512   5.913
17343SOL     OW53925  14.265  12.825   5.076
17343SOL    HW153926  14.308  12.788   5.153
17343SOL    HW253927  14.194  12.878   5.111
17344SOL     OW53928   4.860  13.471  10.180
17344SOL    HW153929   4.802  13.407  10.139
17344SOL    HW253930   4.940  13.423  10.199
17345SOL     OW53931   7.401   9.438  14.719
17345SOL    HW153932   7.328   9.382  14.696
17345SOL    HW253933   7.403   9.505  14.651
17346SOL     OW53934   7.430   5.022   1.341
17346SOL    HW153935   7.355   4.963   1.342
17346SOL    HW253936   7.457   5.025   1.249
17347SOL     OW53937   8.722   1.080   7.233
17347SOL    HW153938   8.772   1.011   7.189
17347SOL    HW253939   8.783   1.117   7.297
17348SOL     OW53940   7.937   6.782   2.493
17348SOL    HW153941   7.953   6.869   2.456
17348SOL    HW253942   7.842   6.776   2.499
17349SOL     OW53943   2.504   9.986  11.244
17349SOL    HW153944   2.496   9.896  11.212
17349SOL    HW253945   2.457   9.987  11.327
17350SOL     OW53946   0.993  14.705  11.513
17350SOL    HW153947   1.060  14.763  11.477
17350SOL    HW253948   0.915  14.725  11.462
17351SOL     OW53949  10.006   1.863   8.135
17351SOL    HW153950   9.918   1.875   8.170
17351SOL    HW253951   9.995   1.872   8.040
17352SOL     OW53952   8.519  11.765   5.990
17352SOL    HW153953   8.442  11.782   6.044
17352SOL    HW253954   8.588  11.742   6.052
17353SOL     OW53955   2.887   0.344   8.526
17353SOL    HW153956   2.900   0.257   8.487
17353SOL    HW253957   2.841   0.394   8.459
17354SOL     OW53958   0.685   2.516   2.446
17354SOL    HW153959   0.659   2.441   2.393
17354SOL    HW253960   0.738   2.479   2.516
17355SOL     OW53961   7.483   0.758  10.598
17355SOL    HW153962   7.399   0.796  10.624
17355SOL    HW253963   7.460   0.686  10.540
17356SOL     OW53964  11.625   7.039  11.313
17356SOL    HW153965  11.530   7.032  11.307
17356SOL    HW253966  11.647   7.110  11.253
17357SOL     OW53967  13.886   9.635  12.356
17357SOL    HW153968  13.824   9.674  12.418
17357SOL    HW253969  13.961   9.608  12.410
17358SOL     OW53970   5.006   4.157   3.571
17358SOL    HW153971   5.042   4.098   3.504
17358SOL    HW253972   4.920   4.120   3.591
17359SOL     OW53973   1.291  11.033  11.610
17359SOL    HW153974   1.245  11.088  11.674
17359SOL    HW253975   1.384  11.052  11.625
17360SOL     OW53976   7.255   6.765   4.379
17360SOL    HW153977   7.198   6.809   4.443
17360SOL    HW253978   7.265   6.676   4.414
17361SOL     OW53979  10.265   1.926   2.844
17361SOL    HW153980  10.259   1.854   2.906
17361SOL    HW253981  10.209   1.994   2.881
17362SOL     OW53982   9.954   6.008   8.813
17362SOL    HW153983   9.939   5.982   8.904
17362SOL    HW253984   9.869   5.994   8.770
17363SOL     OW53985   5.987   1.086   2.266
17363SOL    HW153986   6.050   1.124   2.327
17363SOL    HW253987   5.915   1.149   2.263
17364SOL     OW53988  12.547   4.922   6.580
17364SOL    HW153989  12.553   4.971   6.662
17364SOL    HW253990  12.638   4.916   6.550
17365SOL     OW53991   6.824  11.657  11.480
17365SOL    HW153992   6.786  11.693  11.560
17365SOL    HW253993   6.819  11.729  11.416
17366SOL     OW53994   6.066   0.601   4.520
17366SOL    HW153995   6.097   0.542   4.589
17366SOL    HW253996   6.068   0.547   4.441
17367SOL     OW53997   7.228  10.099   4.413
17367SOL    HW153998   7.264  10.012   4.396
17367SOL    HW253999   7.159  10.085   4.478
17368SOL     OW54000   8.652   1.756  11.387
17368SOL    HW154001   8.723   1.747  11.450
17368SOL    HW254002   8.616   1.843  11.403
17369SOL     OW54003   4.247  14.013   1.356
17369SOL    HW154004   4.212  13.990   1.270
17369SOL    HW254005   4.210  13.948   1.416
17370SOL     OW54006   8.086   3.937   5.419
17370SOL    HW154007   8.027   3.887   5.475
17370SOL    HW254008   8.091   3.887   5.337
17371SOL     OW54009   0.263   4.159   0.822
17371SOL    HW154010   0.243   4.173   0.915
17371SOL    HW254011   0.190   4.107   0.789
17372SOL     OW54012   4.340   4.564   1.010
17372SOL    HW154013   4.276   4.634   1.020
17372SOL    HW254014   4.338   4.518   1.094
17373SOL     OW54015   0.247   6.648   6.898
17373SOL    HW154016   0.257   6.637   6.804
17373SOL    HW254017   0.254   6.560   6.934
17374SOL     OW54018   7.055  12.484   2.817
17374SOL    HW154019   7.063  12.513   2.726
17374SOL    HW254020   6.985  12.418   2.815
17375SOL     OW54021   4.594  14.358   0.395
17375SOL    HW154022   4.498  14.366   0.391
17375SOL    HW254023   4.613  14.279   0.345
17376SOL     OW54024  10.963   8.082   3.922
17376SOL    HW154025  10.989   8.011   3.863
17376SOL    HW254026  10.874   8.104   3.896
17377SOL     OW54027   8.191   6.439   8.022
17377SOL    HW154028   8.280   6.436   7.986
17377SOL    HW254029   8.200   6.493   8.101
17378SOL     OW54030   4.181   9.588  12.983
17378SOL    HW154031   4.168   9.565  13.075
17378SOL    HW254032   4.229   9.515  12.946
17379SOL     OW54033   3.158   7.896   1.858
17379SOL    HW154034   3.103   7.967   1.825
17379SOL    HW254035   3.202   7.862   1.780
17380SOL     OW54036   9.590   4.010  11.172
17380SOL    HW154037   9.600   3.998  11.267
17380SOL    HW254038   9.524   3.946  11.146
17381SOL     OW54039   7.009  11.328  10.753
17381SOL    HW154040   6.998  11.328  10.658
17381SOL    HW254041   7.091  11.374  10.768
17382SOL     OW54042   2.439   3.629   5.029
17382SOL    HW154043   2.416   3.565   5.096
17382SOL    HW254044   2.416   3.713   5.068
17383SOL     OW54045   1.214   7.006   7.161
17383SOL    HW154046   1.225   6.972   7.072
17383SOL    HW254047   1.300   6.995   7.201
17384SOL     OW54048   6.512  14.707   0.364
17384SOL    HW154049   6.542  14.678   0.278
17384SOL    HW254050   6.434  14.654   0.381
17385SOL     OW54051   6.366   2.408   3.236
17385SOL    HW154052   6.386   2.469   3.307
17385SOL    HW254053   6.272   2.392   3.245
17386SOL     OW54054  13.350  10.117   9.500
17386SOL    HW154055  13.330  10.144   9.410
17386SOL    HW254056  13.342  10.022   9.498
17387SOL     OW54057   3.412   8.723   0.971
17387SOL    HW154058   3.429   8.651   0.910
17387SOL    HW254059   3.427   8.802   0.919
17388SOL     OW54060  13.838   4.519   9.350
17388SOL    HW154061  13.830   4.504   9.444
17388SOL    HW254062  13.828   4.433   9.311
17389SOL     OW54063   0.016  12.711   7.459
17389SOL    HW154064   0.012  12.638   7.520
17389SOL    HW254065   0.108  12.719   7.436
17390SOL     OW54066   3.813   5.736   1.892
17390SOL    HW154067   3.899   5.769   1.918
17390SOL    HW254068   3.760   5.743   1.972
17391SOL     OW54069  12.181   7.493  11.122
17391SOL    HW154070  12.174   7.413  11.070
17391SOL    HW254071  12.261   7.535  11.090
17392SOL     OW54072   1.881  10.720  13.720
17392SOL    HW154073   1.933  10.800  13.727
17392SOL    HW254074   1.940  10.650  13.745
17393SOL     OW54075   7.990  11.680   9.355
17393SOL    HW154076   7.983  11.624   9.432
17393SOL    HW254077   7.942  11.634   9.286
17394SOL     OW54078   1.581  11.854  12.109
17394SOL    HW154079   1.638  11.857  12.032
17394SOL    HW254080   1.549  11.764  12.113
17395SOL     OW54081  14.067  11.928   5.796
17395SOL    HW154082  14.063  12.023   5.786
17395SOL    HW254083  13.980  11.898   5.772
17396SOL     OW54084   3.537   5.921   8.128
17396SOL    HW154085   3.611   5.901   8.185
17396SOL    HW254086   3.576   5.930   8.041
17397SOL     OW54087   5.079   9.695   7.180
17397SOL    HW154088   5.055   9.669   7.091
17397SOL    HW254089   5.057   9.620   7.234
17398SOL     OW54090   3.978   6.829   1.124
17398SOL    HW154091   3.967   6.767   1.052
17398SOL    HW254092   3.892   6.870   1.134
17399SOL     OW54093   1.533  14.503  13.589
17399SOL    HW154094   1.578  14.472  13.510
17399SOL    HW254095   1.538  14.429  13.650
17400SOL     OW54096   3.690  10.410   8.705
17400SOL    HW154097   3.611  10.381   8.749
17400SOL    HW254098   3.758  10.349   8.734
17401SOL     OW54099   2.831  13.863   5.735
17401SOL    HW154100   2.761  13.830   5.792
17401SOL    HW254101   2.798  13.948   5.704
17402SOL     OW54102   3.065  13.944   8.447
17402SOL    HW154103   2.981  13.920   8.488
17402SOL    HW254104   3.047  13.939   8.353
17403SOL     OW54105   4.291   5.165  11.903
17403SOL    HW154106   4.384   5.184  11.893
17403SOL    HW254107   4.285   5.070  11.897
17404SOL     OW54108   2.825   1.727   1.914
17404SOL    HW154109   2.912   1.764   1.904
17404SOL    HW254110   2.831   1.670   1.990
17405SOL     OW54111   7.692   2.256   5.959
17405SOL    HW154112   7.778   2.257   6.002
17405SOL    HW254113   7.638   2.199   6.014
17406SOL     OW54114   5.063  14.840  14.375
17406SOL    HW154115   4.990   0.018  14.389
17406SOL    HW254116   5.022  14.756  14.355
17407SOL     OW54117   3.128   8.191   4.687
17407SOL    HW154118   3.217   8.204   4.719
17407SOL    HW254119   3.135   8.122   4.621
17408SOL     OW54120   1.554  10.622   9.826
17408SOL    HW154121   1.630  10.578   9.864
17408SOL    HW254122   1.526  10.566   9.753
17409SOL     OW54123   0.985   3.019   1.804
17409SOL    HW154124   0.890   3.024   1.809
17409SOL    HW254125   1.003   2.936   1.762
17410SOL     OW54126   4.438   3.407   0.441
17410SOL    HW154127   4.523   3.404   0.485
17410SOL    HW254128   4.449   3.473   0.372
17411SOL     OW54129   7.166   7.902   6.339
17411SOL    HW154130   7.250   7.876   6.300
17411SOL    HW254131   7.138   7.824   6.387
17412SOL     OW54132   7.735  12.625  11.322
17412SOL    HW154133   7.707  12.578  11.400
17412SOL    HW254134   7.814  12.672  11.350
17413SOL     OW54135   8.667  12.013   5.553
17413SOL    HW154136   8.665  12.060   5.470
17413SOL    HW254137   8.655  11.921   5.528
17414SOL     OW54138   3.991   1.180  14.024
17414SOL    HW154139   3.976   1.087  14.005
17414SOL    HW254140   3.908   1.210  14.061
17415SOL     OW54141   4.171   4.882   9.500
17415SOL    HW154142   4.135   4.918   9.580
17415SOL    HW254143   4.095   4.866   9.444
17416SOL     OW54144   8.701   6.689   2.997
17416SOL    HW154145   8.728   6.678   3.088
17416SOL    HW254146   8.715   6.781   2.978
17417SOL     OW54147   2.848  12.502   1.336
17417SOL    HW154148   2.825  12.575   1.394
17417SOL    HW254149   2.879  12.545   1.256
17418SOL     OW54150   6.883  13.301   7.760
17418SOL    HW154151   6.930  13.356   7.698
17418SOL    HW254152   6.888  13.349   7.843
17419SOL     OW54153  13.464   6.483  12.305
17419SOL    HW154154  13.438   6.439  12.386
17419SOL    HW254155  13.543   6.532  12.328
17420SOL     OW54156   1.252   9.587   9.229
17420SOL    HW154157   1.218   9.504   9.195
17420SOL    HW254158   1.347   9.578   9.223
17421SOL     OW54159   2.669   6.942   0.029
17421SOL    HW154160   2.655   6.853  14.880
17421SOL    HW254161   2.646   6.997  14.836
17422SOL     OW54162   4.086   9.163   6.025
17422SOL    HW154163   4.086   9.095   6.092
17422SOL    HW254164   4.135   9.235   6.065
17423SOL     OW54165   8.353  13.798  12.917
17423SOL    HW154166   8.437  13.783  12.962
17423SOL    HW254167   8.295  13.831  12.986
17424SOL     OW54168   5.936   5.200  13.270
17424SOL    HW154169   5.883   5.149  13.209
17424SOL    HW254170   5.967   5.136  13.334
17425SOL     OW54171   7.500  14.391   7.861
17425SOL    HW154172   7.446  14.338   7.803
17425SOL    HW254173   7.549  14.328   7.914
17426SOL     OW54174   1.491   9.918   8.052
17426SOL    HW154175   1.483   9.838   8.000
17426SOL    HW254176   1.402   9.940   8.077
17427SOL     OW54177   5.341  14.651   6.542
17427SOL    HW154178   5.352  14.736   6.501
17427SOL    HW254179   5.325  14.591   6.469
17428SOL     OW54180  10.318  12.978   4.183
17428SOL    HW154181  10.284  12.920   4.251
17428SOL    HW254182  10.269  12.954   4.105
17429SOL     OW54183   7.070   4.380  14.349
17429SOL    HW154184   7.090   4.322  14.423
17429SOL    HW254185   6.986   4.349  14.316
17430SOL     OW54186  11.383   0.489  13.109
17430SOL    HW154187  11.427   0.496  13.194
17430SOL    HW254188  11.437   0.429  13.059
17431SOL     OW54189   8.410   2.324   9.930
17431SOL    HW154190   8.481   2.345   9.991
17431SOL    HW254191   8.370   2.244   9.965
17432SOL     OW54192   7.992  10.248  14.208
17432SOL    HW154193   7.941  10.310  14.259
17432SOL    HW254194   8.041  10.302  14.145
17433SOL     OW54195  10.481   9.819   8.594
17433SOL    HW154196  10.453   9.728   8.587
17433SOL    HW254197  10.561   9.823   8.542
17434SOL     OW54198  12.104   3.202   9.605
17434SOL    HW154199  12.082   3.114   9.636
17434SOL    HW254200  12.079   3.202   9.513
17435SOL     OW54201   7.898   0.995   7.161
17435SOL    HW154202   7.950   1.071   7.136
17435SOL    HW254203   7.941   0.920   7.120
17436SOL     OW54204   2.074   1.803   4.615
17436SOL    HW154205   2.148   1.779   4.558
17436SOL    HW254206   2.003   1.746   4.587
17437SOL     OW54207   9.848   2.612   1.282
17437SOL    HW154208   9.873   2.570   1.200
17437SOL    HW254209   9.803   2.544   1.331
17438SOL     OW54210   2.554   8.116   3.765
17438SOL    HW154211   2.572   8.032   3.723
17438SOL    HW254212   2.471   8.145   3.727
17439SOL     OW54213   9.118  10.569   9.839
17439SOL    HW154214   9.091  10.481   9.811
17439SOL    HW254215   9.050  10.627   9.803
17440SOL     OW54216   2.596   5.708   6.683
17440SOL    HW154217   2.655   5.678   6.615
17440SOL    HW254218   2.646   5.774   6.731
17441SOL     OW54219  12.278   0.917   9.491
17441SOL    HW154220  12.317   0.899   9.577
17441SOL    HW254221  12.348   0.958   9.441
17442SOL     OW54222  11.415   1.178  14.699
17442SOL    HW154223  11.431   1.257  14.649
17442SOL    HW254224  11.320   1.174  14.710
17443SOL     OW54225   0.676   0.605   4.246
17443SOL    HW154226   0.770   0.619   4.239
17443SOL    HW254227   0.667   0.524   4.295
17444SOL     OW54228   5.675  13.589   5.597
17444SOL    HW154229   5.658  13.576   5.690
17444SOL    HW254230   5.696  13.683   5.590
17445SOL     OW54231  12.124   7.278  10.956
17445SOL    HW154232  12.060   7.328  10.905
17445SOL    HW254233  12.176   7.232  10.891
17446SOL     OW54234  10.024   3.461   7.094
17446SOL    HW154235   9.928   3.458   7.098
17446SOL    HW254236  10.044   3.554   7.082
17447SOL     OW54237  11.795   1.024  10.479
17447SOL    HW154238  11.868   0.986  10.528
17447SOL    HW254239  11.736   0.950  10.463
17448SOL     OW54240   8.172   1.843  12.795
17448SOL    HW154241   8.206   1.774  12.851
17448SOL    HW254242   8.186   1.810  12.706
17449SOL     OW54243   5.371  11.552  13.166
17449SOL    HW154244   5.336  11.558  13.255
17449SOL    HW254245   5.448  11.609  13.167
17450SOL     OW54246   3.944   4.136  14.184
17450SOL    HW154247   3.957   4.147  14.090
17450SOL    HW254248   3.994   4.208  14.224
17451SOL     OW54249  11.083  14.684   6.211
17451SOL    HW154250  11.164  14.728   6.237
17451SOL    HW254251  11.073  14.614   6.275
17452SOL     OW54252  10.991   7.827   6.846
17452SOL    HW154253  10.951   7.874   6.920
17452SOL    HW254254  11.085   7.842   6.856
17453SOL     OW54255  10.856  11.219   2.963
17453SOL    HW154256  10.761  11.228   2.957
17453SOL    HW254257  10.875  11.136   2.921
17454SOL     OW54258   7.611  12.685  13.261
17454SOL    HW154259   7.522  12.685  13.226
17454SOL    HW254260   7.599  12.672  13.355
17455SOL     OW54261   3.247  10.552   1.935
17455SOL    HW154262   3.158  10.535   1.965
17455SOL    HW254263   3.277  10.469   1.898
17456SOL     OW54264  14.634   7.277   3.012
17456SOL    HW154265  14.598   7.337   2.947
17456SOL    HW254266  14.680   7.211   2.960
17457SOL     OW54267   9.311  14.277   5.091
17457SOL    HW154268   9.399  14.275   5.131
17457SOL    HW254269   9.255  14.314   5.160
17458SOL     OW54270   2.199   2.802   5.780
17458SOL    HW154271   2.245   2.848   5.849
17458SOL    HW254272   2.118   2.772   5.820
17459SOL     OW54273   8.146  11.418   5.080
17459SOL    HW154274   8.214  11.350   5.079
17459SOL    HW254275   8.072  11.376   5.123
17460SOL     OW54276   2.305   0.189   8.029
17460SOL    HW154277   2.348   0.256   7.975
17460SOL    HW254278   2.319   0.218   8.119
17461SOL     OW54279   3.867  14.081  13.877
17461SOL    HW154280   3.874  14.172  13.907
17461SOL    HW254281   3.956  14.059  13.848
17462SOL     OW54282  11.941  13.435   0.400
17462SOL    HW154283  11.994  13.375   0.347
17462SOL    HW254284  11.906  13.381   0.470
17463SOL     OW54285   3.017   9.659   9.913
17463SOL    HW154286   2.955   9.595   9.948
17463SOL    HW254287   3.020   9.640   9.819
17464SOL     OW54288   4.800   4.865  13.909
17464SOL    HW154289   4.750   4.900  13.982
17464SOL    HW254290   4.760   4.781  13.889
17465SOL     OW54291  14.745   7.493   5.513
17465SOL    HW154292  14.709   7.573   5.473
17465SOL    HW254293  14.840   7.505   5.510
17466SOL     OW54294   3.460  12.534   4.048
17466SOL    HW154295   3.529  12.482   4.088
17466SOL    HW254296   3.463  12.511   3.955
17467SOL     OW54297   0.520   1.652  12.214
17467SOL    HW154298   0.551   1.581  12.157
17467SOL    HW254299   0.481   1.715  12.154
17468SOL     OW54300   4.445  12.423   1.954
17468SOL    HW154301   4.537  12.445   1.967
17468SOL    HW254302   4.445  12.361   1.882
17469SOL     OW54303   7.098   5.141   2.926
17469SOL    HW154304   7.066   5.088   2.853
17469SOL    HW254305   7.021   5.191   2.954
17470SOL     OW54306   2.505   7.524   3.464
17470SOL    HW154307   2.437   7.458   3.476
17470SOL    HW254308   2.552   7.525   3.547
17471SOL     OW54309  10.115  12.376  13.498
17471SOL    HW154310  10.073  12.307  13.549
17471SOL    HW254311  10.178  12.416  13.558
17472SOL     OW54312   4.664   5.213   4.912
17472SOL    HW154313   4.746   5.230   4.865
17472SOL    HW254314   4.622   5.299   4.919
17473SOL     OW54315   2.154  12.961   2.744
17473SOL    HW154316   2.130  13.046   2.707
17473SOL    HW254317   2.070  12.922   2.772
17474SOL     OW54318   6.072  14.322   1.254
17474SOL    HW154319   5.993  14.364   1.289
17474SOL    HW254320   6.099  14.379   1.182
17475SOL     OW54321   3.683   0.477  13.491
17475SOL    HW154322   3.730   0.452  13.411
17475SOL    HW254323   3.661   0.394  13.533
17476SOL     OW54324   3.435   4.547   9.243
17476SOL    HW154325   3.523   4.522   9.214
17476SOL    HW254326   3.436   4.532   9.338
17477SOL     OW54327   2.542   2.283  10.007
17477SOL    HW154328   2.515   2.253   9.920
17477SOL    HW254329   2.621   2.234  10.026
17478SOL     OW54330  12.110   2.947  10.268
17478SOL    HW154331  12.166   2.966  10.193
17478SOL    HW254332  12.089   2.854  10.260
17479SOL     OW54333   4.161   8.363   1.253
17479SOL    HW154334   4.074   8.380   1.289
17479SOL    HW254335   4.221   8.385   1.324
17480SOL     OW54336   0.072   7.969   2.478
17480SOL    HW154337   0.151   7.978   2.426
17480SOL    HW254338   0.090   7.897   2.538
17481SOL     OW54339   4.551  11.651   0.590
17481SOL    HW154340   4.623  11.589   0.603
17481SOL    HW254341   4.581  11.731   0.632
17482SOL     OW54342  11.839  10.360   1.561
17482SOL    HW154343  11.917  10.306   1.574
17482SOL    HW254344  11.823  10.356   1.466
17483SOL     OW54345   5.629   2.411   5.272
17483SOL    HW154346   5.631   2.385   5.364
17483SOL    HW254347   5.536   2.411   5.249
17484SOL     OW54348   3.704  12.729  14.315
17484SOL    HW154349   3.612  12.712  14.336
17484SOL    HW254350   3.702  12.794  14.245
17485SOL     OW54351   3.870  11.031   4.132
17485SOL    HW154352   3.793  11.039   4.189
17485SOL    HW254353   3.912  11.117   4.136
17486SOL     OW54354   3.499   6.066   9.765
17486SOL    HW154355   3.529   6.115   9.841
17486SOL    HW254356   3.449   5.993   9.802
17487SOL     OW54357  12.514   3.407   4.746
17487SOL    HW154358  12.514   3.502   4.733
17487SOL    HW254359  12.598   3.388   4.788
17488SOL     OW54360   7.916  13.364   3.774
17488SOL    HW154361   7.880  13.276   3.772
17488SOL    HW254362   8.002  13.354   3.816
17489SOL     OW54363   7.084   5.293   6.712
17489SOL    HW154364   7.073   5.333   6.798
17489SOL    HW254365   7.029   5.214   6.715
17490SOL     OW54366   1.218  10.816   6.954
17490SOL    HW154367   1.231  10.721   6.953
17490SOL    HW254368   1.228  10.843   6.863
17491SOL     OW54369  10.669   2.813  14.714
17491SOL    HW154370  10.629   2.897  14.734
17491SOL    HW254371  10.644   2.795  14.623
17492SOL     OW54372  11.828  10.322   3.783
17492SOL    HW154373  11.875  10.337   3.701
17492SOL    HW254374  11.864  10.240   3.817
17493SOL     OW54375   6.551  12.681   5.778
17493SOL    HW154376   6.623  12.695   5.840
17493SOL    HW254377   6.492  12.755   5.793
17494SOL     OW54378  14.088   6.908  10.043
17494SOL    HW154379  14.138   6.937  10.120
17494SOL    HW254380  14.042   6.986  10.013
17495SOL     OW54381   8.623   0.424   5.183
17495SOL    HW154382   8.696   0.425   5.244
17495SOL    HW254383   8.663   0.403   5.098
17496SOL     OW54384  13.801  14.684   4.736
17496SOL    HW154385  13.778  14.712   4.647
17496SOL    HW254386  13.802  14.588   4.731
17497SOL     OW54387   5.860   7.715   8.563
17497SOL    HW154388   5.865   7.677   8.651
17497SOL    HW254389   5.879   7.642   8.505
17498SOL     OW54390   6.114   8.626   7.691
17498SOL    HW154391   6.102   8.716   7.721
17498SOL    HW254392   6.137   8.577   7.770
17499SOL     OW54393   9.150  11.492   8.507
17499SOL    HW154394   9.090  11.428   8.546
17499SOL    HW254395   9.110  11.515   8.423
17500SOL     OW54396  10.841   1.728   3.235
17500SOL    HW154397  10.793   1.708   3.316
17500SOL    HW254398  10.886   1.810   3.253
17501SOL     OW54399   2.223   4.576  12.070
17501SOL    HW154400   2.236   4.641  12.140
17501SOL    HW254401   2.297   4.517  12.079
17502SOL     OW54402  12.776  11.160   2.752
17502SOL    HW154403  12.810  11.249   2.761
17502SOL    HW254404  12.721  11.164   2.674
17503SOL     OW54405   9.499   8.963   1.767
17503SOL    HW154406   9.472   8.874   1.789
17503SOL    HW254407   9.590   8.969   1.798
17504SOL     OW54408   6.798   7.788   5.112
17504SOL    HW154409   6.893   7.794   5.124
17504SOL    HW254410   6.775   7.869   5.067
17505SOL     OW54411   1.276   8.325  11.113
17505SOL    HW154412   1.239   8.348  11.028
17505SOL    HW254413   1.351   8.383  11.124
17506SOL     OW54414   6.627   3.276   4.488
17506SOL    HW154415   6.549   3.305   4.534
17506SOL    HW254416   6.695   3.339   4.514
17507SOL     OW54417   4.489   1.886   5.734
17507SOL    HW154418   4.465   1.799   5.765
17507SOL    HW254419   4.465   1.886   5.641
17508SOL     OW54420  12.437   1.821   2.271
17508SOL    HW154421  12.503   1.755   2.250
17508SOL    HW254422  12.389   1.833   2.189
17509SOL     OW54423   5.601   8.602  11.421
17509SOL    HW154424   5.515   8.579  11.387
17509SOL    HW254425   5.623   8.530  11.481
17510SOL     OW54426  12.934   1.904   7.452
17510SOL    HW154427  12.929   1.989   7.409
17510SOL    HW254428  12.887   1.917   7.535
17511SOL     OW54429   9.293   9.425   3.482
17511SOL    HW154430   9.327   9.502   3.438
17511SOL    HW254431   9.198   9.435   3.481
17512SOL     OW54432   2.421   6.789   2.510
17512SOL    HW154433   2.497   6.770   2.565
17512SOL    HW254434   2.445   6.756   2.423
17513SOL     OW54435   0.118  11.850  10.799
17513SOL    HW154436   0.083  11.910  10.733
17513SOL    HW254437   0.145  11.907  10.871
17514SOL     OW54438   4.245   3.487   8.452
17514SOL    HW154439   4.158   3.519   8.429
17514SOL    HW254440   4.305   3.556   8.422
17515SOL     OW54441  10.391  14.670  11.826
17515SOL    HW154442  10.341  14.688  11.746
17515SOL    HW254443  10.434  14.587  11.808
17516SOL     OW54444  13.318   2.920  11.674
17516SOL    HW154445  13.256   2.862  11.720
17516SOL    HW254446  13.263   2.989  11.637
17517SOL     OW54447  14.288   1.835   4.308
17517SOL    HW154448  14.375   1.806   4.337
17517SOL    HW254449  14.227   1.782   4.359
17518SOL     OW54450   4.243  10.905   9.979
17518SOL    HW154451   4.339  10.906   9.982
17518SOL    HW254452   4.217  10.868  10.064
17519SOL     OW54453   4.888   9.540  14.625
17519SOL    HW154454   4.906   9.448  14.606
17519SOL    HW254455   4.957   9.565  14.688
17520SOL     OW54456   5.055   2.085   9.202
17520SOL    HW154457   5.117   2.085   9.129
17520SOL    HW254458   5.105   2.123   9.275
17521SOL     OW54459   8.152   1.352  10.250
17521SOL    HW154460   8.068   1.378  10.288
17521SOL    HW254461   8.217   1.389  10.310
17522SOL     OW54462   9.316   6.703  10.280
17522SOL    HW154463   9.268   6.779  10.247
17522SOL    HW254464   9.352   6.661  10.202
17523SOL     OW54465   2.802  14.589   6.220
17523SOL    HW154466   2.897  14.582   6.209
17523SOL    HW254467   2.770  14.620   6.136
17524SOL     OW54468  10.804  10.791   1.945
17524SOL    HW154469  10.769  10.722   1.889
17524SOL    HW254470  10.847  10.743   2.016
17525SOL     OW54471  14.680  14.789   3.308
17525SOL    HW154472  14.656  14.808   3.218
17525SOL    HW254473  14.709  14.698   3.307
17526SOL     OW54474   0.579   9.832   2.230
17526SOL    HW154475   0.641   9.762   2.209
17526SOL    HW254476   0.533   9.801   2.308
17527SOL     OW54477   7.086   1.484   5.295
17527SOL    HW154478   7.045   1.514   5.214
17527SOL    HW254479   7.089   1.562   5.351
17528SOL     OW54480   0.073   1.222  11.473
17528SOL    HW154481   0.105   1.176  11.395
17528SOL    HW254482  14.862   1.232  11.458
17529SOL     OW54483   5.567   6.851   2.772
17529SOL    HW154484   5.607   6.925   2.728
17529SOL    HW254485   5.498   6.889   2.827
17530SOL     OW54486   9.024   2.453   0.654
17530SOL    HW154487   9.034   2.427   0.562
17530SOL    HW254488   8.948   2.404   0.685
17531SOL     OW54489  11.666   9.304  13.319
17531SOL    HW154490  11.713   9.221  13.307
17531SOL    HW254491  11.733   9.371  13.305
17532SOL     OW54492  12.213   8.551  12.751
17532SOL    HW154493  12.134   8.540  12.803
17532SOL    HW254494  12.271   8.604  12.806
17533SOL     OW54495   5.987   2.744   5.671
17533SOL    HW154496   6.031   2.790   5.742
17533SOL    HW254497   5.960   2.812   5.610
17534SOL     OW54498  13.184   2.738  11.823
17534SOL    HW154499  13.160   2.657  11.777
17534SOL    HW254500  13.238   2.709  11.896
17535SOL     OW54501   6.354   9.451   3.204
17535SOL    HW154502   6.297   9.377   3.186
17535SOL    HW254503   6.297   9.517   3.245
17536SOL     OW54504  11.169   3.259  11.802
17536SOL    HW154505  11.265   3.265  11.806
17536SOL    HW254506  11.153   3.178  11.754
17537SOL     OW54507   7.780   7.139   6.542
17537SOL    HW154508   7.754   7.231   6.541
17537SOL    HW254509   7.873   7.141   6.564
17538SOL     OW54510  11.554  11.844   2.581
17538SOL    HW154511  11.468  11.805   2.596
17538SOL    HW254512  11.595  11.787   2.516
17539SOL     OW54513   3.399   9.107   4.491
17539SOL    HW154514   3.472   9.079   4.546
17539SOL    HW254515   3.409   9.202   4.484
17540SOL     OW54516  11.102  10.184  12.161
17540SOL    HW154517  11.146  10.122  12.103
17540SOL    HW254518  11.013  10.150  12.168
17541SOL     OW54519   8.647   0.506   0.221
17541SOL    HW154520   8.710   0.563   0.266
17541SOL    HW254521   8.672   0.511   0.129
17542SOL     OW54522  10.535   6.084   1.258
17542SOL    HW154523  10.459   6.121   1.214
17542SOL    HW254524  10.499   6.016   1.316
17543SOL     OW54525   7.687   1.689  13.491
17543SOL    HW154526   7.694   1.594  13.484
17543SOL    HW254527   7.639   1.704  13.573
17544SOL     OW54528  12.621  13.917   7.829
17544SOL    HW154529  12.643  13.871   7.748
17544SOL    HW254530  12.595  13.848   7.890
17545SOL     OW54531   2.179  10.761   6.711
17545SOL    HW154532   2.111  10.708   6.668
17545SOL    HW254533   2.179  10.730   6.801
17546SOL     OW54534  10.667   0.767   6.520
17546SOL    HW154535  10.596   0.707   6.541
17546SOL    HW254536  10.739   0.741   6.577
17547SOL     OW54537   4.405  13.260  10.087
17547SOL    HW154538   4.453  13.197  10.141
17547SOL    HW254539   4.473  13.314  10.046
17548SOL     OW54540   5.392  13.585  13.519
17548SOL    HW154541   5.486  13.578  13.504
17548SOL    HW254542   5.384  13.642  13.596
17549SOL     OW54543   6.200  13.704  12.670
17549SOL    HW154544   6.255  13.678  12.745
17549SOL    HW254545   6.213  13.635  12.605
17550SOL     OW54546   8.190  10.719   6.411
17550SOL    HW154547   8.128  10.744   6.479
17550SOL    HW254548   8.142  10.729   6.329
17551SOL     OW54549   4.936   9.427   2.103
17551SOL    HW154550   4.918   9.423   2.197
17551SOL    HW254551   4.883   9.358   2.065
17552SOL     OW54552   8.321  13.694   0.429
17552SOL    HW154553   8.258  13.669   0.496
17552SOL    HW254554   8.295  13.644   0.351
17553SOL     OW54555   9.978  14.774   3.305
17553SOL    HW154556   9.903  14.829   3.328
17553SOL    HW254557  10.003  14.803   3.218
17554SOL     OW54558  11.809   9.676   8.943
17554SOL    HW154559  11.748   9.634   9.004
17554SOL    HW254560  11.755   9.738   8.893
17555SOL     OW54561   7.030   3.162   6.810
17555SOL    HW154562   7.068   3.214   6.881
17555SOL    HW254563   7.102   3.149   6.749
17556SOL     OW54564   2.051   2.559   7.179
17556SOL    HW154565   2.022   2.632   7.234
17556SOL    HW254566   2.017   2.579   7.092
17557SOL     OW54567   5.807   0.544   3.572
17557SOL    HW154568   5.748   0.512   3.639
17557SOL    HW254569   5.889   0.496   3.588
17558SOL     OW54570   5.731  11.484   1.639
17558SOL    HW154571   5.772  11.511   1.722
17558SOL    HW254572   5.638  11.498   1.654
17559SOL     OW54573  10.606  14.313   5.562
17559SOL    HW154574  10.608  14.337   5.655
17559SOL    HW254575  10.538  14.246   5.556
17560SOL     OW54576   6.572   8.235  14.393
17560SOL    HW154577   6.543   8.326  14.389
17560SOL    HW254578   6.578   8.216  14.487
17561SOL     OW54579   0.710  13.221   9.383
17561SOL    HW154580   0.676  13.155   9.443
17561SOL    HW254581   0.802  13.232   9.409
17562SOL     OW54582   3.928   8.588   5.977
17562SOL    HW154583   3.972   8.523   5.922
17562SOL    HW254584   3.976   8.586   6.060
17563SOL     OW54585   7.353   0.884   3.274
17563SOL    HW154586   7.327   0.958   3.330
17563SOL    HW254587   7.298   0.811   3.303
17564SOL     OW54588  12.849  13.677   6.212
17564SOL    HW154589  12.773  13.720   6.172
17564SOL    HW254590  12.873  13.734   6.285
17565SOL     OW54591   8.026  13.966   3.992
17565SOL    HW154592   7.987  13.884   4.023
17565SOL    HW254593   8.067  14.004   4.070
17566SOL     OW54594  11.419  10.850   1.711
17566SOL    HW154595  11.410  10.785   1.781
17566SOL    HW254596  11.511  10.874   1.711
17567SOL     OW54597  12.949   3.610   7.440
17567SOL    HW154598  12.943   3.703   7.420
17567SOL    HW254599  13.042   3.595   7.457
17568SOL     OW54600   7.594   1.533   5.767
17568SOL    HW154601   7.672   1.567   5.722
17568SOL    HW254602   7.629   1.468   5.829
17569SOL     OW54603  12.909  13.167  11.375
17569SOL    HW154604  12.866  13.088  11.342
17569SOL    HW254605  12.962  13.199  11.302
17570SOL     OW54606  12.416   5.073   7.855
17570SOL    HW154607  12.438   5.059   7.763
17570SOL    HW254608  12.429   5.167   7.868
17571SOL     OW54609   5.227  13.686   8.085
17571SOL    HW154610   5.241  13.752   8.153
17571SOL    HW254611   5.311  13.681   8.040
17572SOL     OW54612  13.742   5.601  10.402
17572SOL    HW154613  13.714   5.664  10.336
17572SOL    HW254614  13.808   5.547  10.358
17573SOL     OW54615   0.229   5.601  12.843
17573SOL    HW154616   0.216   5.679  12.897
17573SOL    HW254617   0.295   5.550  12.891
17574SOL     OW54618  10.287  13.846   8.064
17574SOL    HW154619  10.269  13.875   7.974
17574SOL    HW254620  10.201  13.839   8.104
17575SOL     OW54621  10.716   9.833   7.028
17575SOL    HW154622  10.648   9.844   7.095
17575SOL    HW254623  10.790   9.884   7.061
17576SOL     OW54624  11.503   2.763   2.139
17576SOL    HW154625  11.552   2.759   2.221
17576SOL    HW254626  11.498   2.857   2.120
17577SOL     OW54627   5.147   8.018  13.706
17577SOL    HW154628   5.235   8.056  13.712
17577SOL    HW254629   5.159   7.927  13.731
17578SOL     OW54630  10.950   9.984   7.071
17578SOL    HW154631  10.967  10.053   7.008
17578SOL    HW254632  11.006   9.912   7.044
17579SOL     OW54633  10.483   7.718   0.906
17579SOL    HW154634  10.568   7.762   0.895
17579SOL    HW254635  10.450   7.709   0.817
17580SOL     OW54636   6.900   9.051   2.244
17580SOL    HW154637   6.931   9.096   2.166
17580SOL    HW254638   6.813   9.090   2.261
17581SOL     OW54639  14.339   5.523   7.653
17581SOL    HW154640  14.339   5.431   7.628
17581SOL    HW254641  14.341   5.571   7.571
17582SOL     OW54642   1.442   7.381  12.764
17582SOL    HW154643   1.506   7.334  12.819
17582SOL    HW254644   1.494   7.431  12.702
17583SOL     OW54645  13.608  10.622   4.418
17583SOL    HW154646  13.623  10.542   4.469
17583SOL    HW254647  13.512  10.627   4.411
17584SOL     OW54648   1.704   8.074  11.831
17584SOL    HW154649   1.669   8.091  11.743
17584SOL    HW254650   1.671   8.146  11.884
17585SOL     OW54651   8.791   6.513  11.557
17585SOL    HW154652   8.775   6.586  11.617
17585SOL    HW254653   8.876   6.533  11.518
17586SOL     OW54654  12.194   1.415  12.837
17586SOL    HW154655  12.278   1.453  12.866
17586SOL    HW254656  12.185   1.445  12.747
17587SOL     OW54657   2.940  11.119   1.398
17587SOL    HW154658   2.946  11.095   1.490
17587SOL    HW254659   2.859  11.171   1.392
17588SOL     OW54660   6.735   8.302  11.610
17588SOL    HW154661   6.795   8.369  11.644
17588SOL    HW254662   6.792   8.234  11.575
17589SOL     OW54663   5.039   8.696  14.425
17589SOL    HW154664   4.952   8.676  14.391
17589SOL    HW254665   5.023   8.736  14.510
17590SOL     OW54666   9.846  14.781   5.695
17590SOL    HW154667   9.897  14.855   5.660
17590SOL    HW254668   9.911  14.725   5.737
17591SOL     OW54669  12.287  13.601   7.025
17591SOL    HW154670  12.257  13.510   7.015
17591SOL    HW254671  12.216  13.644   7.072
17592SOL     OW54672   8.519   9.511   9.028
17592SOL    HW154673   8.427   9.534   9.034
17592SOL    HW254674   8.523   9.445   8.958
17593SOL     OW54675   8.238   2.577  13.850
17593SOL    HW154676   8.293   2.516  13.802
17593SOL    HW254677   8.207   2.526  13.926
17594SOL     OW54678   5.441   8.290   4.084
17594SOL    HW154679   5.364   8.345   4.103
17594SOL    HW254680   5.439   8.280   3.988
17595SOL     OW54681   7.122  14.217   1.779
17595SOL    HW154682   7.110  14.223   1.873
17595SOL    HW254683   7.214  14.240   1.765
17596SOL     OW54684   8.983  14.326  10.504
17596SOL    HW154685   8.952  14.300  10.418
17596SOL    HW254686   8.904  14.351  10.552
17597SOL     OW54687  14.172  11.586   4.582
17597SOL    HW154688  14.208  11.631   4.506
17597SOL    HW254689  14.091  11.634   4.603
17598SOL     OW54690  13.255   6.048   6.525
17598SOL    HW154691  13.325   5.999   6.568
17598SOL    HW254692  13.183   6.047   6.588
17599SOL     OW54693  13.507   0.651  13.847
17599SOL    HW154694  13.487   0.741  13.823
17599SOL    HW254695  13.558   0.617  13.773
17600SOL     OW54696   8.391   4.075   7.385
17600SOL    HW154697   8.458   4.135   7.420
17600SOL    HW254698   8.389   4.003   7.448
17601SOL     OW54699  11.986   4.067   6.006
17601SOL    HW154700  12.019   4.117   5.933
17601SOL    HW254701  12.002   3.975   5.982
17602SOL     OW54702   0.407   2.317   2.698
17602SOL    HW154703   0.458   2.238   2.683
17602SOL    HW254704   0.330   2.307   2.642
17603SOL     OW54705   6.050  12.710  12.297
17603SOL    HW154706   6.084  12.682  12.382
17603SOL    HW254707   6.056  12.631  12.243
17604SOL     OW54708   0.383   1.893   2.772
17604SOL    HW154709   0.417   1.815   2.728
17604SOL    HW254710   0.333   1.939   2.704
17605SOL     OW54711   5.976  13.458  12.712
17605SOL    HW154712   5.900  13.513  12.733
17605SOL    HW254713   5.971  13.446  12.617
17606SOL     OW54714   1.613   1.437   1.843
17606SOL    HW154715   1.532   1.413   1.797
17606SOL    HW254716   1.611   1.386   1.924
17607SOL     OW54717   6.595  11.161  12.579
17607SOL    HW154718   6.595  11.163  12.674
17607SOL    HW254719   6.667  11.219  12.553
17608SOL     OW54720   7.248   1.500   0.914
17608SOL    HW154721   7.263   1.523   1.005
17608SOL    HW254722   7.203   1.415   0.917
17609SOL     OW54723  13.439  13.655   0.545
17609SOL    HW154724  13.407  13.575   0.585
17609SOL    HW254725  13.377  13.673   0.474
17610SOL     OW54726  11.936  14.104   5.394
17610SOL    HW154727  11.927  14.099   5.489
17610SOL    HW254728  11.954  14.197   5.377
17611SOL     OW54729   7.815   6.084   3.529
17611SOL    HW154730   7.738   6.089   3.472
17611SOL    HW254731   7.850   6.174   3.529
17612SOL     OW54732   1.200   3.269   3.407
17612SOL    HW154733   1.201   3.363   3.385
17612SOL    HW254734   1.112   3.239   3.384
17613SOL     OW54735   3.752   7.643  12.160
17613SOL    HW154736   3.808   7.718  12.181
17613SOL    HW254737   3.664   7.672  12.186
17614SOL     OW54738   0.174   6.577   9.878
17614SOL    HW154739   0.198   6.661   9.837
17614SOL    HW254740   0.112   6.602   9.947
17615SOL     OW54741   4.102  11.627   3.897
17615SOL    HW154742   4.192  11.596   3.909
17615SOL    HW254743   4.110  11.722   3.888
17616SOL     OW54744   4.546   0.059   5.856
17616SOL    HW154745   4.571   0.027   5.943
17616SOL    HW254746   4.467   0.110   5.871
17617SOL     OW54747   0.605  13.194   0.327
17617SOL    HW154748   0.511  13.181   0.343
17617SOL    HW254749   0.645  13.111   0.354
17618SOL     OW54750  13.225   4.726   0.462
17618SOL    HW154751  13.226   4.821   0.477
17618SOL    HW254752  13.311   4.707   0.424
17619SOL     OW54753   6.810   7.683  13.521
17619SOL    HW154754   6.780   7.685  13.612
17619SOL    HW254755   6.867   7.760  13.513
17620SOL     OW54756   2.415  14.269  14.781
17620SOL    HW154757   2.479  14.263  14.852
17620SOL    HW254758   2.330  14.255  14.824
17621SOL     OW54759   8.923   5.553   7.743
17621SOL    HW154760   9.000   5.505   7.712
17621SOL    HW254761   8.952   5.597   7.823
17622SOL     OW54762  10.493  13.882  11.414
17622SOL    HW154763  10.529  13.820  11.350
17622SOL    HW254764  10.502  13.837  11.498
17623SOL     OW54765   8.586   1.972   8.718
17623SOL    HW154766   8.641   2.006   8.647
17623SOL    HW254767   8.632   1.997   8.798
17624SOL     OW54768   9.430   0.744   8.496
17624SOL    HW154769   9.495   0.793   8.546
17624SOL    HW254770   9.481   0.700   8.427
17625SOL     OW54771   7.112  11.123  12.678
17625SOL    HW154772   7.147  11.098  12.763
17625SOL    HW254773   7.174  11.085  12.615
17626SOL     OW54774   7.879   7.642   0.721
17626SOL    HW154775   7.859   7.719   0.775
17626SOL    HW254776   7.975   7.638   0.720
17627SOL     OW54777   8.723  10.555  12.202
17627SOL    HW154778   8.731  10.460  12.217
17627SOL    HW254779   8.787  10.573  12.133
17628SOL     OW54780   6.291   5.835  12.687
17628SOL    HW154781   6.251   5.774  12.748
17628SOL    HW254782   6.292   5.919  12.734
17629SOL     OW54783   4.852  11.927   0.891
17629SOL    HW154784   4.764  11.924   0.928
17629SOL    HW254785   4.895  11.848   0.924
17630SOL     OW54786  14.283   2.755  11.729
17630SOL    HW154787  14.247   2.700  11.660
17630SOL    HW254788  14.301   2.695  11.801
17631SOL     OW54789   6.973  13.359  10.351
17631SOL    HW154790   6.975  13.285  10.412
17631SOL    HW254791   6.882  13.365  10.323
17632SOL     OW54792  13.590   5.570   8.924
17632SOL    HW154793  13.598   5.570   8.829
17632SOL    HW254794  13.553   5.485   8.946
17633SOL     OW54795  11.914  12.855   4.667
17633SOL    HW154796  11.909  12.896   4.580
17633SOL    HW254797  11.840  12.891   4.715
17634SOL     OW54798   3.176  14.478   0.291
17634SOL    HW154799   3.232  14.457   0.366
17634SOL    HW254800   3.237  14.495   0.220
17635SOL     OW54801   7.853  14.087   2.136
17635SOL    HW154802   7.828  14.060   2.047
17635SOL    HW254803   7.864  14.182   2.129
17636SOL     OW54804   3.143   6.660   2.921
17636SOL    HW154805   3.050   6.682   2.918
17636SOL    HW254806   3.182   6.728   2.976
17637SOL     OW54807   6.527   6.218  12.652
17637SOL    HW154808   6.527   6.312  12.634
17637SOL    HW254809   6.521   6.177  12.566
17638SOL     OW54810   5.898  11.180   1.927
17638SOL    HW154811   5.815  11.152   1.967
17638SOL    HW254812   5.958  11.192   2.000
17639SOL     OW54813   2.329   6.727   6.046
17639SOL    HW154814   2.397   6.751   5.983
17639SOL    HW254815   2.338   6.632   6.056
17640SOL     OW54816  12.675   0.825   9.264
17640SOL    HW154817  12.766   0.831   9.291
17640SOL    HW254818  12.667   0.886   9.191
17641SOL     OW54819   3.279   5.051   4.982
17641SOL    HW154820   3.230   5.079   5.059
17641SOL    HW254821   3.266   5.120   4.918
17642SOL     OW54822   5.691   2.087  14.508
17642SOL    HW154823   5.756   2.156  14.516
17642SOL    HW254824   5.718   2.020  14.571
17643SOL     OW54825   2.156   7.910   3.259
17643SOL    HW154826   2.149   7.963   3.338
17643SOL    HW254827   2.235   7.858   3.271
17644SOL     OW54828  10.260   8.330   1.123
17644SOL    HW154829  10.233   8.336   1.031
17644SOL    HW254830  10.350   8.362   1.124
17645SOL     OW54831   5.579  11.746   7.856
17645SOL    HW154832   5.537  11.794   7.785
17645SOL    HW254833   5.515  11.748   7.927
17646SOL     OW54834  12.005   0.894   6.139
17646SOL    HW154835  12.093   0.923   6.116
17646SOL    HW254836  12.013   0.799   6.149
17647SOL     OW54837  12.754   3.962   3.572
17647SOL    HW154838  12.715   3.891   3.624
17647SOL    HW254839  12.820   3.919   3.518
17648SOL     OW54840   7.419   3.169   4.726
17648SOL    HW154841   7.436   3.183   4.633
17648SOL    HW254842   7.466   3.089   4.748
17649SOL     OW54843  11.633  14.340   8.429
17649SOL    HW154844  11.537  14.340   8.434
17649SOL    HW254845  11.652  14.338   8.335
17650SOL     OW54846   6.237   1.830   6.730
17650SOL    HW154847   6.197   1.902   6.680
17650SOL    HW254848   6.179   1.756   6.715
17651SOL     OW54849   1.178   1.236   9.725
17651SOL    HW154850   1.096   1.200   9.760
17651SOL    HW254851   1.232   1.252   9.803
17652SOL     OW54852   6.156   0.146   9.166
17652SOL    HW154853   6.089   0.119   9.104
17652SOL    HW254854   6.153   0.242   9.164
17653SOL     OW54855   2.626   6.661  13.213
17653SOL    HW154856   2.712   6.639  13.247
17653SOL    HW254857   2.595   6.580  13.173
17654SOL     OW54858  14.324   6.457   8.048
17654SOL    HW154859  14.278   6.405   7.982
17654SOL    HW254860  14.259   6.521   8.078
17655SOL     OW54861   3.708  10.150   4.726
17655SOL    HW154862   3.801  10.168   4.742
17655SOL    HW254863   3.673  10.128   4.812
17656SOL     OW54864   2.096   9.724   5.934
17656SOL    HW154865   2.099   9.662   5.861
17656SOL    HW254866   2.167   9.696   5.992
17657SOL     OW54867   3.878   7.868   6.916
17657SOL    HW154868   3.887   7.903   6.828
17657SOL    HW254869   3.800   7.912   6.951
17658SOL     OW54870   1.467   1.584   3.910
17658SOL    HW154871   1.560   1.564   3.897
17658SOL    HW254872   1.451   1.563   4.002
17659SOL     OW54873   1.933   2.563   0.812
17659SOL    HW154874   1.967   2.615   0.740
17659SOL    HW254875   1.841   2.551   0.792
17660SOL     OW54876  11.833   6.028  11.962
17660SOL    HW154877  11.900   6.034  11.894
17660SOL    HW254878  11.756   6.069  11.922
17661SOL     OW54879  13.273   7.514   9.600
17661SOL    HW154880  13.188   7.476   9.622
17661SOL    HW254881  13.323   7.512   9.681
17662SOL     OW54882   6.242   7.338  14.204
17662SOL    HW154883   6.223   7.429  14.181
17662SOL    HW254884   6.330   7.323  14.170
17663SOL     OW54885   0.931  13.351   9.054
17663SOL    HW154886   0.842  13.317   9.048
17663SOL    HW254887   0.986  13.274   9.069
17664SOL     OW54888   7.091   2.551  11.156
17664SOL    HW154889   7.050   2.626  11.115
17664SOL    HW254890   7.153   2.519  11.091
17665SOL     OW54891  13.722   4.350   6.728
17665SOL    HW154892  13.749   4.437   6.700
17665SOL    HW254893  13.700   4.360   6.821
17666SOL     OW54894  14.709   8.498   3.282
17666SOL    HW154895  14.733   8.450   3.361
17666SOL    HW254896  14.738   8.441   3.210
17667SOL     OW54897   2.554   6.822   2.274
17667SOL    HW154898   2.610   6.749   2.248
17667SOL    HW254899   2.560   6.884   2.202
17668SOL     OW54900   3.307   4.303  14.535
17668SOL    HW154901   3.355   4.380  14.565
17668SOL    HW254902   3.255   4.276  14.610
17669SOL     OW54903   2.096   2.891   0.473
17669SOL    HW154904   2.083   2.922   0.384
17669SOL    HW254905   2.186   2.858   0.473
17670SOL     OW54906   9.484   5.504   1.911
17670SOL    HW154907   9.483   5.408   1.911
17670SOL    HW254908   9.488   5.528   2.004
17671SOL     OW54909   1.781   7.625  14.321
17671SOL    HW154910   1.752   7.590  14.237
17671SOL    HW254911   1.875   7.609  14.323
17672SOL     OW54912  10.129   6.799   4.998
17672SOL    HW154913  10.097   6.733   4.937
17672SOL    HW254914  10.198   6.755   5.047
17673SOL     OW54915  11.878  12.220   0.115
17673SOL    HW154916  11.861  12.310   0.144
17673SOL    HW254917  11.821  12.167   0.169
17674SOL     OW54918   6.930  14.056   1.680
17674SOL    HW154919   6.855  14.112   1.658
17674SOL    HW254920   6.985  14.110   1.736
17675SOL     OW54921   9.068   2.372   4.825
17675SOL    HW154922   9.107   2.453   4.860
17675SOL    HW254923   9.089   2.373   4.732
17676SOL     OW54924   5.168  11.601   4.623
17676SOL    HW154925   5.145  11.535   4.557
17676SOL    HW254926   5.088  11.612   4.675
17677SOL     OW54927   1.320   9.544   3.977
17677SOL    HW154928   1.296   9.570   4.066
17677SOL    HW254929   1.416   9.551   3.976
17678SOL     OW54930  11.636   7.262  13.639
17678SOL    HW154931  11.633   7.271  13.735
17678SOL    HW254932  11.559   7.310  13.609
17679SOL     OW54933   1.969  12.460   1.020
17679SOL    HW154934   1.988  12.482   0.929
17679SOL    HW254935   2.001  12.371   1.030
17680SOL     OW54936   2.443  12.496   5.178
17680SOL    HW154937   2.350  12.517   5.190
17680SOL    HW254938   2.456  12.499   5.084
17681SOL     OW54939   0.668   9.201   4.436
17681SOL    HW154940   0.604   9.176   4.503
17681SOL    HW254941   0.691   9.119   4.393
17682SOL     OW54942   1.429   8.108   8.875
17682SOL    HW154943   1.480   8.029   8.856
17682SOL    HW254944   1.356   8.078   8.928
17683SOL     OW54945   4.746  12.925   0.187
17683SOL    HW154946   4.812  12.995   0.185
17683SOL    HW254947   4.760  12.881   0.271
17684SOL     OW54948  10.771   7.744  13.457
17684SOL    HW154949  10.682   7.744  13.422
17684SOL    HW254950  10.825   7.704  13.389
17685SOL     OW54951   6.713   5.889  13.271
17685SOL    HW154952   6.655   5.816  13.252
17685SOL    HW254953   6.730   5.929  13.186
17686SOL     OW54954  13.597  12.769  14.007
17686SOL    HW154955  13.609  12.706  14.078
17686SOL    HW254956  13.517  12.742  13.963
17687SOL     OW54957   1.427  14.850   9.154
17687SOL    HW154958   1.369   0.043   9.154
17687SOL    HW254959   1.372  14.777   9.183
17688SOL     OW54960   9.037   6.983   8.052
17688SOL    HW154961   9.026   7.047   8.122
17688SOL    HW254962   8.994   7.023   7.976
17689SOL     OW54963  14.810   5.803   5.769
17689SOL    HW154964   0.010   5.814   5.720
17689SOL    HW254965  14.761   5.737   5.721
17690SOL     OW54966   2.039   9.062   5.777
17690SOL    HW154967   2.041   8.993   5.710
17690SOL    HW254968   1.985   9.026   5.848
17691SOL     OW54969   3.608  13.700   4.717
17691SOL    HW154970   3.680  13.651   4.757
17691SOL    HW254971   3.593  13.773   4.778
17692SOL     OW54972   2.512   0.021   8.396
17692SOL    HW154973   2.500   0.102   8.345
17692SOL    HW254974   2.438  14.848   8.370
17693SOL     OW54975  12.560   3.692   7.181
17693SOL    HW154976  12.636   3.642   7.210
17693SOL    HW254977  12.571   3.700   7.087
17694SOL     OW54978   5.344   3.933   7.328
17694SOL    HW154979   5.256   3.941   7.364
17694SOL    HW254980   5.387   3.869   7.385
17695SOL     OW54981   7.010  14.494   1.229
17695SOL    HW154982   7.062  14.516   1.152
17695SOL    HW254983   6.968  14.411   1.207
17696SOL     OW54984  13.285   8.300  13.581
17696SOL    HW154985  13.333   8.345  13.511
17696SOL    HW254986  13.336   8.221  13.599
17697SOL     OW54987  12.091  10.267   9.811
17697SOL    HW154988  12.086  10.235   9.902
17697SOL    HW254989  12.148  10.205   9.767
17698SOL     OW54990   7.217  13.270   7.517
17698SOL    HW154991   7.205  13.203   7.449
17698SOL    HW254992   7.312  13.274   7.529
17699SOL     OW54993   7.349   0.925  11.359
17699SOL    HW154994   7.433   0.880  11.358
17699SOL    HW254995   7.315   0.910  11.447
17700SOL     OW54996  12.787  13.184   0.172
17700SOL    HW154997  12.795  13.089   0.174
17700SOL    HW254998  12.863  13.214   0.123
17701SOL     OW54999  10.152   6.789  14.753
17701SOL    HW155000  10.187   6.822  14.670
17701SOL    HW255001  10.139   6.695  14.737
17702SOL     OW55002  12.447  11.745  13.946
17702SOL    HW155003  12.450  11.653  13.921
17702SOL    HW255004  12.468  11.792  13.865
17703SOL     OW55005  14.736  11.225   7.553
17703SOL    HW155006  14.815  11.265   7.516
17703SOL    HW255007  14.739  11.135   7.520
17704SOL     OW55008  14.060   3.492  12.109
17704SOL    HW155009  14.014   3.419  12.150
17704SOL    HW255010  14.010   3.570  12.134
17705SOL     OW55011   1.092   8.820   5.795
17705SOL    HW155012   1.119   8.732   5.818
17705SOL    HW255013   1.174   8.869   5.784
17706SOL     OW55014   3.375   4.790   5.966
17706SOL    HW155015   3.441   4.792   6.036
17706SOL    HW255016   3.324   4.870   5.980
17707SOL     OW55017   5.889   8.205  11.123
17707SOL    HW155018   5.897   8.190  11.029
17707SOL    HW255019   5.798   8.182  11.143
17708SOL     OW55020   1.124   3.141  14.110
17708SOL    HW155021   1.037   3.126  14.073
17708SOL    HW255022   1.182   3.088  14.055
17709SOL     OW55023   9.353   7.373   2.334
17709SOL    HW155024   9.315   7.438   2.394
17709SOL    HW255025   9.378   7.424   2.256
17710SOL     OW55026   9.507   4.852   2.447
17710SOL    HW155027   9.454   4.779   2.414
17710SOL    HW255028   9.560   4.814   2.517
17711SOL     OW55029  13.441  13.425   0.986
17711SOL    HW155030  13.508  13.368   1.023
17711SOL    HW255031  13.365  13.368   0.973
17712SOL     OW55032   7.510  13.027   3.205
17712SOL    HW155033   7.598  13.002   3.177
17712SOL    HW255034   7.483  13.095   3.143
17713SOL     OW55035   4.934  11.612   2.357
17713SOL    HW155036   4.850  11.568   2.361
17713SOL    HW255037   4.917  11.694   2.312
17714SOL     OW55038  10.161   3.878  10.645
17714SOL    HW155039  10.126   3.940  10.580
17714SOL    HW255040  10.240   3.843  10.605
17715SOL     OW55041   8.178  13.742   9.202
17715SOL    HW155042   8.093  13.756   9.245
17715SOL    HW255043   8.235  13.809   9.239
17716SOL     OW55044   5.513  12.700   2.350
17716SOL    HW155045   5.505  12.677   2.442
17716SOL    HW255046   5.515  12.796   2.349
17717SOL     OW55047   9.069   4.640  11.499
17717SOL    HW155048   9.067   4.665  11.406
17717SOL    HW255049   9.105   4.551  11.499
17718SOL     OW55050  12.958   2.469   6.885
17718SOL    HW155051  12.932   2.392   6.835
17718SOL    HW255052  12.885   2.484   6.946
17719SOL     OW55053   5.177  11.792   9.901
17719SOL    HW155054   5.150  11.878   9.934
17719SOL    HW255055   5.191  11.805   9.807
17720SOL     OW55056  12.297  13.008   1.182
17720SOL    HW155057  12.382  13.002   1.138
17720SOL    HW255058  12.268  13.097   1.165
17721SOL     OW55059   9.460  13.957   2.475
17721SOL    HW155060   9.513  14.026   2.436
17721SOL    HW255061   9.509  13.876   2.459
17722SOL     OW55062   3.972   9.632  14.036
17722SOL    HW155063   3.915   9.574  14.087
17722SOL    HW255064   4.018   9.574  13.976
17723SOL     OW55065  12.408   0.189   9.337
17723SOL    HW155066  12.331   0.153   9.292
17723SOL    HW255067  12.371   0.243   9.407
17724SOL     OW55068   2.039   4.526  10.268
17724SOL    HW155069   1.975   4.595  10.286
17724SOL    HW255070   2.065   4.494  10.355
17725SOL     OW55071   3.003  13.384  13.044
17725SOL    HW155072   3.087  13.364  13.001
17725SOL    HW255073   3.017  13.359  13.135
17726SOL     OW55074   1.066   6.644   5.178
17726SOL    HW155075   1.072   6.674   5.268
17726SOL    HW255076   1.016   6.712   5.133
17727SOL     OW55077   0.996   9.132   7.829
17727SOL    HW155078   0.954   9.205   7.784
17727SOL    HW255079   1.088   9.158   7.836
17728SOL     OW55080   2.284  10.304   4.573
17728SOL    HW155081   2.195  10.336   4.559
17728SOL    HW255082   2.281  10.212   4.546
17729SOL     OW55083  12.422  12.072  14.651
17729SOL    HW155084  12.446  12.096  14.741
17729SOL    HW255085  12.451  12.146  14.598
17730SOL     OW55086  14.165   6.500   3.521
17730SOL    HW155087  14.223   6.504   3.597
17730SOL    HW255088  14.182   6.414   3.482
17731SOL     OW55089   5.997   1.300   4.712
17731SOL    HW155090   5.985   1.376   4.656
17731SOL    HW255091   6.075   1.321   4.764
17732SOL     OW55092   7.954  10.269   9.907
17732SOL    HW155093   7.912  10.290   9.824
17732SOL    HW255094   7.958  10.173   9.908
17733SOL     OW55095   0.110  13.586   2.637
17733SOL    HW155096   0.108  13.490   2.628
17733SOL    HW255097   0.076  13.619   2.554
17734SOL     OW55098   7.034  10.072  12.643
17734SOL    HW155099   6.996  10.125  12.572
17734SOL    HW255100   7.087  10.006  12.597
17735SOL     OW55101   6.093   1.850   4.920
17735SOL    HW155102   6.128   1.932   4.885
17735SOL    HW255103   6.002   1.870   4.940
17736SOL     OW55104  12.646   1.207   4.876
17736SOL    HW155105  12.661   1.290   4.921
17736SOL    HW255106  12.673   1.140   4.939
17737SOL     OW55107   1.861   6.865   6.360
17737SOL    HW155108   1.895   6.871   6.271
17737SOL    HW255109   1.936   6.882   6.417
17738SOL     OW55110   0.879  11.317   0.684
17738SOL    HW155111   0.900  11.333   0.776
17738SOL    HW255112   0.960  11.336   0.638
17739SOL     OW55113   6.425  11.936   3.010
17739SOL    HW155114   6.360  12.006   3.013
17739SOL    HW255115   6.395  11.873   3.075
17740SOL     OW55116   4.508  12.339   2.601
17740SOL    HW155117   4.575  12.375   2.543
17740SOL    HW255118   4.478  12.413   2.653
17741SOL     OW55119   1.370   5.868  14.734
17741SOL    HW155120   1.391   5.777  14.715
17741SOL    HW255121   1.299   5.863  14.798
17742SOL     OW55122  12.476   7.595   6.325
17742SOL    HW155123  12.448   7.629   6.240
17742SOL    HW255124  12.477   7.671   6.383
17743SOL     OW55125   0.522   7.972   9.309
17743SOL    HW155126   0.586   8.042   9.322
17743SOL    HW255127   0.503   7.940   9.397
17744SOL     OW55128   7.506   1.205   0.193
17744SOL    HW155129   7.438   1.206   0.261
17744SOL    HW255130   7.586   1.182   0.240
17745SOL     OW55131  10.798   4.954   8.130
17745SOL    HW155132  10.776   5.004   8.051
17745SOL    HW255133  10.893   4.945   8.126
17746SOL     OW55134   0.984  12.866   8.402
17746SOL    HW155135   1.047  12.931   8.435
17746SOL    HW255136   0.991  12.872   8.307
17747SOL     OW55137  12.492   6.730  10.708
17747SOL    HW155138  12.417   6.752  10.762
17747SOL    HW255139  12.455   6.715  10.621
17748SOL     OW55140  10.004  12.161  13.644
17748SOL    HW155141  10.027  12.072  13.671
17748SOL    HW255142   9.973  12.203  13.724
17749SOL     OW55143  10.282  13.298   1.944
17749SOL    HW155144  10.276  13.275   2.037
17749SOL    HW255145  10.218  13.241   1.901
17750SOL     OW55146   5.515   0.751  13.480
17750SOL    HW155147   5.445   0.816  13.488
17750SOL    HW255148   5.587   0.798  13.438
17751SOL     OW55149  13.595   1.600  11.037
17751SOL    HW155150  13.514   1.560  11.007
17751SOL    HW255151  13.604   1.679  10.983
17752SOL     OW55152   8.356  10.607   2.298
17752SOL    HW155153   8.357  10.691   2.251
17752SOL    HW255154   8.388  10.629   2.386
17753SOL     OW55155   2.803   9.789  11.312
17753SOL    HW155156   2.869   9.858  11.301
17753SOL    HW255157   2.830   9.742  11.391
17754SOL     OW55158  13.251  12.391   9.095
17754SOL    HW155159  13.310  12.435   9.034
17754SOL    HW255160  13.224  12.311   9.050
17755SOL     OW55161  12.596  13.611   6.099
17755SOL    HW155162  12.519  13.646   6.143
17755SOL    HW255163  12.584  13.516   6.100
17756SOL     OW55164   0.451   7.398   9.718
17756SOL    HW155165   0.506   7.453   9.774
17756SOL    HW255166   0.482   7.309   9.733
17757SOL     OW55167  12.987   2.854   1.105
17757SOL    HW155168  12.963   2.788   1.169
17757SOL    HW255169  13.076   2.880   1.128
17758SOL     OW55170   4.327   0.892   8.820
17758SOL    HW155171   4.335   0.968   8.878
17758SOL    HW255172   4.255   0.841   8.857
17759SOL     OW55173  11.464   8.269   4.729
17759SOL    HW155174  11.547   8.247   4.687
17759SOL    HW255175  11.459   8.364   4.725
17760SOL     OW55176  10.234  14.818   5.815
17760SOL    HW155177  10.313  14.770   5.787
17760SOL    HW255178  10.266  14.878   5.882
17761SOL     OW55179   0.915   3.605   2.699
17761SOL    HW155180   0.846   3.588   2.763
17761SOL    HW255181   0.927   3.521   2.654
17762SOL     OW55182   8.939   1.167   8.100
17762SOL    HW155183   8.876   1.149   8.030
17762SOL    HW255184   9.018   1.196   8.054
17763SOL     OW55185  13.115   0.947   9.612
17763SOL    HW155186  13.094   1.040   9.625
17763SOL    HW255187  13.030   0.904   9.606
17764SOL     OW55188   8.825  13.734  10.482
17764SOL    HW155189   8.770  13.689  10.417
17764SOL    HW255190   8.851  13.664  10.542
17765SOL     OW55191  12.255  10.977   7.414
17765SOL    HW155192  12.212  11.060   7.434
17765SOL    HW255193  12.335  10.978   7.467
17766SOL     OW55194  13.850  13.652   8.428
17766SOL    HW155195  13.848  13.624   8.337
17766SOL    HW255196  13.918  13.720   8.431
17767SOL     OW55197   1.527   3.926   5.507
17767SOL    HW155198   1.440   3.887   5.511
17767SOL    HW255199   1.570   3.897   5.588
17768SOL     OW55200   6.995   9.635   9.207
17768SOL    HW155201   7.064   9.640   9.274
17768SOL    HW255202   7.007   9.713   9.153
17769SOL     OW55203  13.158  12.773   1.714
17769SOL    HW155204  13.080  12.795   1.765
17769SOL    HW255205  13.211  12.720   1.773
17770SOL     OW55206   1.330   8.493   0.595
17770SOL    HW155207   1.410   8.441   0.581
17770SOL    HW255208   1.259   8.429   0.587
17771SOL     OW55209  14.835   6.558  11.059
17771SOL    HW155210  14.833   6.463  11.054
17771SOL    HW255211  14.878   6.577  11.143
17772SOL     OW55212   4.071   4.462  12.082
17772SOL    HW155213   4.139   4.499  12.024
17772SOL    HW255214   4.084   4.367  12.075
17773SOL     OW55215  12.113   8.411   8.692
17773SOL    HW155216  12.033   8.447   8.653
17773SOL    HW255217  12.163   8.487   8.719
17774SOL     OW55218   8.627   7.006   0.580
17774SOL    HW155219   8.712   6.996   0.623
17774SOL    HW255220   8.638   7.080   0.521
17775SOL     OW55221  12.765   0.524   6.245
17775SOL    HW155222  12.785   0.605   6.292
17775SOL    HW255223  12.849   0.497   6.209
17776SOL     OW55224  14.404   2.196   2.172
17776SOL    HW155225  14.390   2.291   2.168
17776SOL    HW255226  14.448   2.181   2.255
17777SOL     OW55227   2.239   6.837   2.825
17777SOL    HW155228   2.258   6.928   2.848
17777SOL    HW255229   2.154   6.820   2.863
17778SOL     OW55230   8.337  11.655  12.553
17778SOL    HW155231   8.409  11.602  12.587
17778SOL    HW255232   8.380  11.723  12.501
17779SOL     OW55233   3.264   9.386   9.637
17779SOL    HW155234   3.261   9.291   9.629
17779SOL    HW255235   3.319   9.403   9.713
17780SOL     OW55236   5.843  13.510  10.096
17780SOL    HW155237   5.894  13.485  10.019
17780SOL    HW255238   5.768  13.449  10.096
17781SOL     OW55239   8.319   7.880   7.455
17781SOL    HW155240   8.351   7.863   7.367
17781SOL    HW255241   8.225   7.898   7.443
17782SOL     OW55242   2.311   5.325  10.353
17782SOL    HW155243   2.225   5.340  10.392
17782SOL    HW255244   2.322   5.398  10.292
17783SOL     OW55245   8.003   3.351  11.669
17783SOL    HW155246   7.983   3.414  11.600
17783SOL    HW255247   7.964   3.389  11.748
17784SOL     OW55248  14.783  12.478  11.043
17784SOL    HW155249  14.691  12.473  11.018
17784SOL    HW255250  14.782  12.508  11.134
17785SOL     OW55251   1.488   4.201   2.272
17785SOL    HW155252   1.418   4.179   2.211
17785SOL    HW255253   1.544   4.261   2.223
17786SOL     OW55254  10.959   4.126   3.241
17786SOL    HW155255  10.980   4.054   3.301
17786SOL    HW255256  10.869   4.149   3.263
17787SOL     OW55257   0.517   8.580  13.854
17787SOL    HW155258   0.548   8.670  13.868
17787SOL    HW255259   0.424   8.589  13.835
17788SOL     OW55260   0.621   0.505   8.224
17788SOL    HW155261   0.558   0.498   8.152
17788SOL    HW255262   0.667   0.421   8.225
17789SOL     OW55263   8.337  11.710   5.448
17789SOL    HW155264   8.426  11.740   5.469
17789SOL    HW255265   8.341  11.615   5.460
17790SOL     OW55266  12.274   0.803   9.213
17790SOL    HW155267  12.240   0.850   9.289
17790SOL    HW255268  12.298   0.717   9.247
17791SOL     OW55269   6.152   0.734  13.876
17791SOL    HW155270   6.154   0.643  13.846
17791SOL    HW255271   6.185   0.785  13.802
17792SOL     OW55272   7.100  12.787   0.599
17792SOL    HW155273   7.034  12.723   0.624
17792SOL    HW255274   7.075  12.814   0.511
17793SOL     OW55275  10.453  11.964  10.691
17793SOL    HW155276  10.418  11.880  10.662
17793SOL    HW255277  10.520  11.942  10.756
17794SOL     OW55278  11.310  11.019  14.272
17794SOL    HW155279  11.367  10.980  14.206
17794SOL    HW255280  11.277  10.945  14.322
17795SOL     OW55281   3.659   1.436  10.992
17795SOL    HW155282   3.576   1.479  10.971
17795SOL    HW255283   3.670   1.371  10.923
17796SOL     OW55284   1.181  14.239   1.705
17796SOL    HW155285   1.172  14.229   1.610
17796SOL    HW255286   1.192  14.333   1.718
17797SOL     OW55287   2.825  10.663  14.023
17797SOL    HW155288   2.841  10.660  14.117
17797SOL    HW255289   2.765  10.737  14.011
17798SOL     OW55290  10.826  13.435   2.498
17798SOL    HW155291  10.892  13.504   2.491
17798SOL    HW255292  10.745  13.476   2.468
17799SOL     OW55293   5.998   5.305   5.755
17799SOL    HW155294   5.965   5.334   5.840
17799SOL    HW255295   6.065   5.240   5.776
17800SOL     OW55296   4.725  13.508  11.621
17800SOL    HW155297   4.744  13.602  11.622
17800SOL    HW255298   4.714  13.487  11.528
17801SOL     OW55299   0.446   3.418   3.907
17801SOL    HW155300   0.461   3.334   3.866
17801SOL    HW255301   0.525   3.469   3.888
17802SOL     OW55302   0.653   7.768  10.505
17802SOL    HW155303   0.637   7.773  10.410
17802SOL    HW255304   0.691   7.680  10.518
17803SOL     OW55305  13.327   4.157   5.960
17803SOL    HW155306  13.411   4.142   6.002
17803SOL    HW255307  13.279   4.075   5.973
17804SOL     OW55308   4.051   3.651   1.430
17804SOL    HW155309   4.058   3.741   1.463
17804SOL    HW255310   3.958   3.640   1.411
17805SOL     OW55311  10.331   3.524   8.054
17805SOL    HW155312  10.408   3.507   7.998
17805SOL    HW255313  10.355   3.487   8.139
17806SOL     OW55314  10.980   1.400   4.850
17806SOL    HW155315  11.014   1.419   4.762
17806SOL    HW255316  10.886   1.419   4.844
17807SOL     OW55317   5.231   8.086   4.814
17807SOL    HW155318   5.177   8.091   4.735
17807SOL    HW255319   5.293   8.015   4.796
17808SOL     OW55320   5.750  12.291  11.593
17808SOL    HW155321   5.754  12.197  11.608
17808SOL    HW255322   5.837  12.323  11.617
17809SOL     OW55323   9.004   7.740   8.393
17809SOL    HW155324   9.031   7.813   8.337
17809SOL    HW255325   9.084   7.688   8.403
17810SOL     OW55326   9.900   5.591  10.829
17810SOL    HW155327   9.981   5.607  10.781
17810SOL    HW255328   9.837   5.565  10.762
17811SOL     OW55329   7.901  11.587   4.896
17811SOL    HW155330   7.880  11.531   4.971
17811SOL    HW255331   7.933  11.668   4.935
17812SOL     OW55332   3.401   8.574   5.946
17812SOL    HW155333   3.421   8.491   5.990
17812SOL    HW255334   3.316   8.558   5.904
17813SOL     OW55335   9.257   0.725  12.287
17813SOL    HW155336   9.272   0.694  12.376
17813SOL    HW255337   9.335   0.776  12.266
17814SOL     OW55338   1.866   5.783   5.497
17814SOL    HW155339   1.835   5.820   5.580
17814SOL    HW255340   1.926   5.713   5.523
17815SOL     OW55341   5.538  10.391   3.129
17815SOL    HW155342   5.445  10.372   3.141
17815SOL    HW255343   5.581  10.305   3.137
17816SOL     OW55344   7.305   9.780  12.757
17816SOL    HW155345   7.382   9.747  12.803
17816SOL    HW255346   7.230   9.740  12.801
17817SOL     OW55347   6.988  11.422   8.066
17817SOL    HW155348   6.908  11.476   8.064
17817SOL    HW255349   7.051  11.475   8.115
17818SOL     OW55350   0.554  12.118   8.077
17818SOL    HW155351   0.587  12.195   8.031
17818SOL    HW255352   0.488  12.081   8.019
17819SOL     OW55353   8.712  13.332   5.278
17819SOL    HW155354   8.796  13.287   5.269
17819SOL    HW255355   8.692  13.327   5.371
17820SOL     OW55356   2.577   8.622   2.380
17820SOL    HW155357   2.643   8.660   2.438
17820SOL    HW255358   2.559   8.692   2.316
17821SOL     OW55359  10.679   1.388   3.652
17821SOL    HW155360  10.712   1.408   3.564
17821SOL    HW255361  10.754   1.348   3.697
17822SOL     OW55362  10.364  11.803  14.819
17822SOL    HW155363  10.456  11.821  14.804
17822SOL    HW255364  10.320  11.834  14.739
17823SOL     OW55365  12.306   7.542   2.597
17823SOL    HW155366  12.373   7.487   2.555
17823SOL    HW255367  12.306   7.515   2.688
17824SOL     OW55368   2.992  14.545   1.833
17824SOL    HW155369   3.088  14.551   1.838
17824SOL    HW255370   2.963  14.636   1.822
17825SOL     OW55371  12.029   2.882   8.963
17825SOL    HW155372  12.029   2.787   8.963
17825SOL    HW255373  11.993   2.906   9.048
17826SOL     OW55374   0.790  10.727  12.666
17826SOL    HW155375   0.728  10.742  12.738
17826SOL    HW255376   0.792  10.632  12.656
17827SOL     OW55377   0.783   6.632  11.762
17827SOL    HW155378   0.794   6.591  11.677
17827SOL    HW255379   0.851   6.591  11.817
17828SOL     OW55380   2.572  12.346  12.178
17828SOL    HW155381   2.646  12.297  12.216
17828SOL    HW255382   2.508  12.278  12.157
17829SOL     OW55383   6.559   4.265   5.995
17829SOL    HW155384   6.565   4.298   6.085
17829SOL    HW255385   6.465   4.261   5.977
17830SOL     OW55386   9.826   4.967   7.381
17830SOL    HW155387   9.857   4.937   7.466
17830SOL    HW255388   9.785   5.051   7.398
17831SOL     OW55389  10.196  11.374   5.467
17831SOL    HW155390  10.280  11.328   5.465
17831SOL    HW255391  10.216  11.461   5.434
17832SOL     OW55392   7.088   8.466  14.419
17832SOL    HW155393   7.022   8.465  14.349
17832SOL    HW255394   7.044   8.429  14.495
17833SOL     OW55395  13.911   3.593  12.908
17833SOL    HW155396  13.981   3.576  12.845
17833SOL    HW255397  13.943   3.666  12.961
17834SOL     OW55398   6.388   9.796   1.826
17834SOL    HW155399   6.409   9.792   1.733
17834SOL    HW255400   6.403   9.888   1.850
17835SOL     OW55401   0.309   1.174   0.906
17835SOL    HW155402   0.257   1.187   0.827
17835SOL    HW255403   0.254   1.210   0.976
17836SOL     OW55404   7.487   6.787   5.417
17836SOL    HW155405   7.490   6.875   5.378
17836SOL    HW255406   7.465   6.729   5.343
17837SOL     OW55407   1.078  12.148   6.320
17837SOL    HW155408   1.140  12.136   6.249
17837SOL    HW255409   1.127  12.128   6.399
17838SOL     OW55410   9.526   9.150   9.872
17838SOL    HW155411   9.618   9.158   9.844
17838SOL    HW255412   9.527   9.078   9.935
17839SOL     OW55413   3.016   7.969  14.838
17839SOL    HW155414   2.922   7.982  14.842
17839SOL    HW255415   3.040   7.937   0.043
17840SOL     OW55416   9.372  12.820  13.820
17840SOL    HW155417   9.304  12.753  13.814
17840SOL    HW255418   9.350  12.870  13.899
17841SOL     OW55419  14.409   0.106  11.940
17841SOL    HW155420  14.399   0.199  11.956
17841SOL    HW255421  14.365   0.064  12.014
17842SOL     OW55422   0.762   1.163  10.479
17842SOL    HW155423   0.743   1.244  10.526
17842SOL    HW255424   0.844   1.131  10.518
17843SOL     OW55425   4.071   2.194   2.540
17843SOL    HW155426   4.069   2.238   2.626
17843SOL    HW255427   4.017   2.116   2.551
17844SOL     OW55428   8.700   1.744   7.582
17844SOL    HW155429   8.721   1.820   7.637
17844SOL    HW255430   8.783   1.696   7.576
17845SOL     OW55431   5.279   9.109   5.419
17845SOL    HW155432   5.252   9.079   5.332
17845SOL    HW255433   5.197   9.122   5.467
17846SOL     OW55434   9.039   6.300   6.234
17846SOL    HW155435   9.091   6.221   6.215
17846SOL    HW255436   9.035   6.346   6.150
17847SOL     OW55437  12.199   3.336  12.076
17847SOL    HW155438  12.128   3.273  12.063
17847SOL    HW255439  12.155   3.418  12.097
17848SOL     OW55440   7.084   1.288   2.428
17848SOL    HW155441   6.989   1.296   2.440
17848SOL    HW255442   7.104   1.344   2.353
17849SOL     OW55443   0.361   7.706  11.283
17849SOL    HW155444   0.299   7.701  11.356
17849SOL    HW255445   0.307   7.698  11.204
17850SOL     OW55446   6.968   3.623   2.117
17850SOL    HW155447   6.895   3.561   2.125
17850SOL    HW255448   6.927   3.706   2.093
17851SOL     OW55449  11.084   7.568  11.396
17851SOL    HW155450  11.053   7.656  11.419
17851SOL    HW255451  11.176   7.567  11.423
17852SOL     OW55452  12.908   7.263   6.824
17852SOL    HW155453  12.871   7.199   6.885
17852SOL    HW255454  13.003   7.252   6.832
17853SOL     OW55455   0.324   2.655   5.301
17853SOL    HW155456   0.336   2.597   5.226
17853SOL    HW255457   0.300   2.739   5.262
17854SOL     OW55458   2.941  13.396   1.326
17854SOL    HW155459   2.978  13.343   1.256
17854SOL    HW255460   2.966  13.486   1.304
17855SOL     OW55461  14.044   2.760   5.829
17855SOL    HW155462  14.047   2.827   5.897
17855SOL    HW255463  14.017   2.807   5.750
17856SOL     OW55464   9.139   7.898   7.617
17856SOL    HW155465   9.080   7.973   7.610
17856SOL    HW255466   9.141   7.861   7.529
17857SOL     OW55467  11.239  14.768   4.333
17857SOL    HW155468  11.244  14.686   4.381
17857SOL    HW255469  11.176  14.752   4.262
17858SOL     OW55470   4.717   3.949   3.414
17858SOL    HW155471   4.654   3.880   3.391
17858SOL    HW255472   4.667   4.011   3.466
17859SOL     OW55473   4.625   7.609  12.050
17859SOL    HW155474   4.644   7.703  12.055
17859SOL    HW255475   4.709   7.569  12.025
17860SOL     OW55476   8.519   2.717   3.456
17860SOL    HW155477   8.435   2.747   3.421
17860SOL    HW255478   8.518   2.745   3.547
17861SOL     OW55479  11.699   9.317   7.175
17861SOL    HW155480  11.740   9.314   7.262
17861SOL    HW255481  11.763   9.362   7.120
17862SOL     OW55482   7.486   4.289   2.070
17862SOL    HW155483   7.414   4.350   2.051
17862SOL    HW255484   7.458   4.206   2.031
17863SOL     OW55485   8.296   1.185   1.457
17863SOL    HW155486   8.362   1.253   1.446
17863SOL    HW255487   8.237   1.218   1.525
17864SOL     OW55488   1.566  10.214   7.420
17864SOL    HW155489   1.589  10.156   7.493
17864SOL    HW255490   1.649  10.239   7.382
17865SOL     OW55491   3.425  14.412  11.561
17865SOL    HW155492   3.467  14.458  11.634
17865SOL    HW255493   3.416  14.479  11.493
17866SOL     OW55494  13.913  11.599   4.850
17866SOL    HW155495  13.928  11.583   4.944
17866SOL    HW255496  13.944  11.688   4.835
17867SOL     OW55497   0.287   7.782  10.107
17867SOL    HW155498   0.344   7.769  10.031
17867SOL    HW255499   0.229   7.705  10.108
17868SOL     OW55500   3.289  11.413   7.336
17868SOL    HW155501   3.202  11.454   7.330
17868SOL    HW255502   3.303  11.402   7.430
17869SOL     OW55503   8.345   3.649   7.328
17869SOL    HW155504   8.290   3.594   7.272
17869SOL    HW255505   8.432   3.646   7.288
17870SOL     OW55506  14.251  10.235  12.089
17870SOL    HW155507  14.165  10.205  12.118
17870SOL    HW255508  14.287  10.161  12.039
17871SOL     OW55509   8.592  12.828   4.969
17871SOL    HW155510   8.613  12.920   4.951
17871SOL    HW255511   8.537  12.801   4.895
17872SOL     OW55512   7.325   0.187  11.539
17872SOL    HW155513   7.355   0.262  11.592
17872SOL    HW255514   7.292   0.226  11.459
17873SOL     OW55515   6.792   5.978   9.448
17873SOL    HW155516   6.871   5.940   9.409
17873SOL    HW255517   6.814   6.070   9.463
17874SOL     OW55518   5.430   7.343   1.466
17874SOL    HW155519   5.389   7.303   1.543
17874SOL    HW255520   5.454   7.269   1.411
17875SOL     OW55521   2.456  10.572  10.657
17875SOL    HW155522   2.413  10.487  10.651
17875SOL    HW255523   2.541  10.559  10.615
17876SOL     OW55524  13.304  13.156   5.196
17876SOL    HW155525  13.232  13.191   5.248
17876SOL    HW255526  13.318  13.221   5.128
17877SOL     OW55527   9.972  10.476   0.367
17877SOL    HW155528  10.050  10.510   0.411
17877SOL    HW255529  10.005  10.409   0.307
17878SOL     OW55530   3.549   1.257   1.291
17878SOL    HW155531   3.478   1.304   1.247
17878SOL    HW255532   3.534   1.272   1.384
17879SOL     OW55533  14.816   9.545   7.758
17879SOL    HW155534  14.722   9.530   7.757
17879SOL    HW255535  14.834   9.584   7.843
17880SOL     OW55536   8.497  14.136   7.646
17880SOL    HW155537   8.500  14.081   7.568
17880SOL    HW255538   8.404  14.137   7.670
17881SOL     OW55539   9.797   9.816   7.416
17881SOL    HW155540   9.865   9.873   7.452
17881SOL    HW255541   9.815   9.816   7.322
17882SOL     OW55542   0.717   1.629   7.158
17882SOL    HW155543   0.811   1.643   7.163
17882SOL    HW255544   0.679   1.698   7.212
17883SOL     OW55545  10.039  11.236   4.389
17883SOL    HW155546   9.983  11.240   4.312
17883SOL    HW255547  10.119  11.192   4.359
17884SOL     OW55548   0.311   6.152   4.790
17884SOL    HW155549   0.278   6.235   4.755
17884SOL    HW255550   0.380   6.178   4.852
17885SOL     OW55551   7.324  12.442   1.713
17885SOL    HW155552   7.306  12.513   1.775
17885SOL    HW255553   7.419  12.429   1.719
17886SOL     OW55554  13.568   0.135   1.323
17886SOL    HW155555  13.536   0.059   1.373
17886SOL    HW255556  13.530   0.211   1.368
17887SOL     OW55557   2.103   6.680  14.699
17887SOL    HW155558   2.188   6.721  14.715
17887SOL    HW255559   2.114   6.589  14.726
17888SOL     OW55560   5.316   6.743   1.663
17888SOL    HW155561   5.270   6.682   1.720
17888SOL    HW255562   5.353   6.689   1.594
17889SOL     OW55563   5.440  12.634   8.334
17889SOL    HW155564   5.436  12.566   8.267
17889SOL    HW255565   5.426  12.716   8.286
17890SOL     OW55566   2.728   2.542  14.369
17890SOL    HW155567   2.710   2.492  14.289
17890SOL    HW255568   2.823   2.551  14.371
17891SOL     OW55569  13.150   4.227   4.428
17891SOL    HW155570  13.173   4.296   4.490
17891SOL    HW255571  13.054   4.222   4.433
17892SOL     OW55572   4.209  13.602  10.452
17892SOL    HW155573   4.158  13.529  10.488
17892SOL    HW255574   4.169  13.680  10.489
17893SOL     OW55575   2.115   0.070  11.037
17893SOL    HW155576   2.144   0.101  11.122
17893SOL    HW255577   2.090   0.149  10.989
17894SOL     OW55578   8.800   0.395   5.403
17894SOL    HW155579   8.872   0.401   5.465
17894SOL    HW255580   8.725   0.434   5.449
17895SOL     OW55581  12.333   3.783   0.267
17895SOL    HW155582  12.389   3.716   0.228
17895SOL    HW255583  12.301   3.744   0.348
17896SOL     OW55584  10.911   5.784  13.778
17896SOL    HW155585  10.897   5.695  13.746
17896SOL    HW255586  10.901   5.778  13.873
17897SOL     OW55587  11.979   0.252   9.670
17897SOL    HW155588  11.980   0.243   9.765
17897SOL    HW255589  11.931   0.333   9.654
17898SOL     OW55590   4.551   1.179   6.221
17898SOL    HW155591   4.531   1.272   6.218
17898SOL    HW255592   4.540   1.155   6.313
17899SOL     OW55593   8.235   8.458   0.397
17899SOL    HW155594   8.325   8.480   0.371
17899SOL    HW255595   8.213   8.521   0.465
17900SOL     OW55596  14.418   4.937   5.628
17900SOL    HW155597  14.495   4.890   5.659
17900SOL    HW255598  14.387   4.986   5.704
17901SOL     OW55599   5.398  14.264   2.715
17901SOL    HW155600   5.379  14.254   2.621
17901SOL    HW255601   5.483  14.308   2.717
17902SOL     OW55602  13.268   5.687   9.224
17902SOL    HW155603  13.286   5.713   9.133
17902SOL    HW255604  13.221   5.762   9.261
17903SOL     OW55605   9.519   5.675  12.033
17903SOL    HW155606   9.604   5.676  11.989
17903SOL    HW255607   9.530   5.614  12.106
17904SOL     OW55608   9.036  14.029   5.519
17904SOL    HW155609   9.074  14.053   5.604
17904SOL    HW255610   8.955  13.984   5.541
17905SOL     OW55611   5.965   7.700   9.332
17905SOL    HW155612   6.051   7.741   9.340
17905SOL    HW255613   5.956   7.679   9.239
17906SOL     OW55614   6.036  13.225  13.603
17906SOL    HW155615   6.022  13.144  13.554
17906SOL    HW255616   5.973  13.221  13.675
17907SOL     OW55617  13.535   9.796  10.462
17907SOL    HW155618  13.629   9.810  10.473
17907SOL    HW255619  13.498   9.805  10.549
17908SOL     OW55620   0.465  11.182   9.175
17908SOL    HW155621   0.431  11.157   9.089
17908SOL    HW255622   0.408  11.138   9.238
17909SOL     OW55623   8.332  11.442   5.389
17909SOL    HW155624   8.411  11.402   5.424
17909SOL    HW255625   8.266  11.373   5.394
17910SOL     OW55626  14.064  13.125   1.256
17910SOL    HW155627  14.029  13.046   1.297
17910SOL    HW255628  14.100  13.176   1.328
17911SOL     OW55629  13.366  12.404  10.341
17911SOL    HW155630  13.306  12.363  10.403
17911SOL    HW255631  13.419  12.463  10.394
17912SOL     OW55632  10.808   8.517   1.038
17912SOL    HW155633  10.823   8.462   0.961
17912SOL    HW255634  10.871   8.589   1.027
17913SOL     OW55635   4.885   0.117  12.419
17913SOL    HW155636   4.861   0.124  12.511
17913SOL    HW255637   4.805   0.089  12.374
17914SOL     OW55638  11.574   3.789  14.497
17914SOL    HW155639  11.567   3.821  14.587
17914SOL    HW255640  11.663   3.756  14.489
17915SOL     OW55641   2.470  12.762  10.651
17915SOL    HW155642   2.547  12.747  10.596
17915SOL    HW255643   2.453  12.677  10.692
17916SOL     OW55644   7.573   4.084  11.697
17916SOL    HW155645   7.592   4.032  11.774
17916SOL    HW255646   7.598   4.028  11.623
17917SOL     OW55647   4.770  10.688   8.490
17917SOL    HW155648   4.687  10.696   8.536
17917SOL    HW255649   4.793  10.596   8.496
17918SOL     OW55650  11.852   8.227   8.628
17918SOL    HW155651  11.817   8.302   8.676
17918SOL    HW255652  11.938   8.212   8.669
17919SOL     OW55653  11.190   3.697  11.250
17919SOL    HW155654  11.244   3.729  11.178
17919SOL    HW255655  11.111   3.663  11.207
17920SOL     OW55656  11.254  12.585   3.626
17920SOL    HW155657  11.258  12.622   3.538
17920SOL    HW255658  11.325  12.628   3.674
17921SOL     OW55659  10.208  12.612  12.701
17921SOL    HW155660  10.289  12.588  12.656
17921SOL    HW255661  10.142  12.553  12.664
17922SOL     OW55662   4.085   0.348   3.435
17922SOL    HW155663   4.164   0.319   3.481
17922SOL    HW255664   4.093   0.311   3.348
17923SOL     OW55665   4.808   0.700   3.459
17923SOL    HW155666   4.760   0.763   3.406
17923SOL    HW255667   4.894   0.694   3.419
17924SOL     OW55668   9.975   4.734  10.579
17924SOL    HW155669  10.053   4.728  10.635
17924SOL    HW255670   9.922   4.803  10.619
17925SOL     OW55671  10.196   9.337  12.594
17925SOL    HW155672  10.185   9.431  12.606
17925SOL    HW255673  10.245   9.329  12.512
17926SOL     OW55674   6.719   8.042   8.501
17926SOL    HW155675   6.624   8.048   8.491
17926SOL    HW255676   6.737   8.089   8.583
17927SOL     OW55677   3.306   9.819   3.056
17927SOL    HW155678   3.275   9.742   3.104
17927SOL    HW255679   3.321   9.884   3.124
17928SOL     OW55680   5.996   0.968   5.126
17928SOL    HW155681   5.926   1.018   5.167
17928SOL    HW255682   5.985   0.983   5.032
17929SOL     OW55683   4.319  10.036   5.778
17929SOL    HW155684   4.278  10.096   5.715
17929SOL    HW255685   4.291   9.949   5.750
17930SOL     OW55686   7.623   8.026   1.053
17930SOL    HW155687   7.668   8.027   0.969
17930SOL    HW255688   7.530   8.031   1.031
17931SOL     OW55689   0.128   4.916  14.595
17931SOL    HW155690   0.223   4.919  14.588
17931SOL    HW255691   0.109   4.950  14.683
17932SOL     OW55692   4.590   5.708  10.803
17932SOL    HW155693   4.636   5.674  10.879
17932SOL    HW255694   4.593   5.636  10.739
17933SOL     OW55695   2.115  12.116   7.029
17933SOL    HW155696   2.036  12.071   6.997
17933SOL    HW255697   2.180  12.102   6.960
17934SOL     OW55698   3.178   7.477   3.837
17934SOL    HW155699   3.264   7.457   3.802
17934SOL    HW255700   3.132   7.392   3.838
17935SOL     OW55701   4.405   1.890   3.514
17935SOL    HW155702   4.385   1.796   3.509
17935SOL    HW255703   4.376   1.916   3.602
17936SOL     OW55704   2.757  12.786  10.940
17936SOL    HW155705   2.677  12.750  10.978
17936SOL    HW255706   2.727  12.858  10.885
17937SOL     OW55707   7.856   8.198   7.752
17937SOL    HW155708   7.807   8.279   7.768
17937SOL    HW255709   7.868   8.159   7.839
17938SOL     OW55710   3.752  11.042   3.785
17938SOL    HW155711   3.706  11.089   3.716
17938SOL    HW255712   3.789  11.111   3.841
17939SOL     OW55713   4.560  13.169   0.203
17939SOL    HW155714   4.494  13.152   0.136
17939SOL    HW255715   4.572  13.085   0.248
17940SOL     OW55716   0.222  12.749   7.934
17940SOL    HW155717   0.263  12.708   8.011
17940SOL    HW255718   0.240  12.688   7.862
17941SOL     OW55719   8.160  10.634   1.412
17941SOL    HW155720   8.102  10.580   1.465
17941SOL    HW255721   8.132  10.619   1.321
17942SOL     OW55722   4.871   6.491   1.012
17942SOL    HW155723   4.826   6.469   1.094
17942SOL    HW255724   4.839   6.578   0.990
17943SOL     OW55725   1.035   0.643   3.505
17943SOL    HW155726   1.003   0.607   3.587
17943SOL    HW255727   0.976   0.608   3.438
17944SOL     OW55728  11.257   1.026   8.066
17944SOL    HW155729  11.235   0.997   8.155
17944SOL    HW255730  11.336   0.977   8.044
17945SOL     OW55731   8.109   3.007   2.732
17945SOL    HW155732   8.194   3.029   2.770
17945SOL    HW255733   8.091   3.078   2.671
17946SOL     OW55734   0.584   9.471   7.012
17946SOL    HW155735   0.490   9.460   7.024
17946SOL    HW255736   0.618   9.382   7.014
17947SOL     OW55737   5.798   2.669   2.053
17947SOL    HW155738   5.749   2.603   2.003
17947SOL    HW255739   5.738   2.742   2.061
17948SOL     OW55740  13.393   3.714  12.964
17948SOL    HW155741  13.358   3.632  12.998
17948SOL    HW255742  13.488   3.704  12.971
17949SOL     OW55743   2.446   2.339   0.287
17949SOL    HW155744   2.447   2.261   0.232
17949SOL    HW255745   2.371   2.389   0.256
17950SOL     OW55746   3.446   2.959   9.609
17950SOL    HW155747   3.404   2.874   9.618
17950SOL    HW255748   3.464   2.968   9.516
17951SOL     OW55749   7.096  13.666   1.765
17951SOL    HW155750   7.030  13.678   1.697
17951SOL    HW255751   7.146  13.748   1.765
17952SOL     OW55752  13.499   4.694  14.189
17952SOL    HW155753  13.479   4.687  14.282
17952SOL    HW255754  13.467   4.781  14.164
17953SOL     OW55755   3.931   9.623  11.846
17953SOL    HW155756   3.920   9.530  11.827
17953SOL    HW255757   4.024   9.640  11.830
17954SOL     OW55758   8.406   5.411   9.292
17954SOL    HW155759   8.474   5.452   9.345
17954SOL    HW255760   8.411   5.456   9.208
17955SOL     OW55761  10.314   9.046   6.428
17955SOL    HW155762  10.258   9.105   6.478
17955SOL    HW255763  10.259   9.015   6.356
17956SOL     OW55764  14.056   1.674   9.364
17956SOL    HW155765  14.087   1.599   9.413
17956SOL    HW255766  14.117   1.744   9.385
17957SOL     OW55767   7.064  13.425   8.166
17957SOL    HW155768   7.101  13.512   8.153
17957SOL    HW255769   7.044  13.421   8.259
17958SOL     OW55770   6.295   3.940  10.295
17958SOL    HW155771   6.217   3.991  10.274
17958SOL    HW255772   6.286   3.860  10.242
17959SOL     OW55773   1.871  12.038  11.839
17959SOL    HW155774   1.868  11.961  11.895
17959SOL    HW255775   1.860  12.112  11.899
17960SOL     OW55776   9.043   7.677   3.616
17960SOL    HW155777   9.003   7.671   3.529
17960SOL    HW255778   8.979   7.725   3.668
17961SOL     OW55779   0.981   5.909   7.957
17961SOL    HW155780   1.046   5.960   8.006
17961SOL    HW255781   0.903   5.910   8.013
17962SOL     OW55782  14.331   4.235   3.904
17962SOL    HW155783  14.278   4.214   3.827
17962SOL    HW255784  14.415   4.192   3.887
17963SOL     OW55785  13.827   8.043   2.962
17963SOL    HW155786  13.883   8.088   3.025
17963SOL    HW255787  13.761   8.108   2.938
17964SOL     OW55788   1.835   4.398  11.771
17964SOL    HW155789   1.768   4.335  11.800
17964SOL    HW255790   1.791   4.449  11.703
17965SOL     OW55791  12.699  14.567   7.668
17965SOL    HW155792  12.702  14.662   7.684
17965SOL    HW255793  12.731  14.528   7.749
17966SOL     OW55794  11.762   6.379   3.894
17966SOL    HW155795  11.838   6.330   3.864
17966SOL    HW255796  11.693   6.314   3.903
17967SOL     OW55797   6.409   9.538   2.568
17967SOL    HW155798   6.424   9.587   2.649
17967SOL    HW255799   6.479   9.473   2.565
17968SOL     OW55800  10.290  14.451   8.487
17968SOL    HW155801  10.269  14.510   8.560
17968SOL    HW255802  10.386  14.449   8.486
17969SOL     OW55803  14.452   6.184   4.229
17969SOL    HW155804  14.460   6.267   4.183
17969SOL    HW255805  14.364   6.186   4.266
17970SOL     OW55806   1.468   5.637   8.795
17970SOL    HW155807   1.478   5.562   8.736
17970SOL    HW255808   1.486   5.713   8.740
17971SOL     OW55809   6.490   5.014  13.347
17971SOL    HW155810   6.456   5.055  13.268
17971SOL    HW255811   6.581   5.043  13.352
17972SOL     OW55812   6.058   6.664   9.392
17972SOL    HW155813   5.993   6.704   9.450
17972SOL    HW255814   6.021   6.674   9.304
17973SOL     OW55815  10.986   4.873   5.171
17973SOL    HW155816  11.069   4.826   5.181
17973SOL    HW255817  10.975   4.881   5.076
17974SOL     OW55818   9.928   3.560   9.951
17974SOL    HW155819   9.885   3.646   9.958
17974SOL    HW255820   9.871   3.502  10.002
17975SOL     OW55821  11.451  14.576  10.102
17975SOL    HW155822  11.521  14.642  10.099
17975SOL    HW255823  11.425  14.574  10.194
17976SOL     OW55824   4.083   9.500   0.295
17976SOL    HW155825   4.093   9.404   0.295
17976SOL    HW255826   4.003   9.516   0.245
17977SOL     OW55827   7.951   5.299  11.344
17977SOL    HW155828   7.926   5.207  11.353
17977SOL    HW255829   8.021   5.299  11.278
17978SOL     OW55830   7.903   6.919   9.083
17978SOL    HW155831   7.903   6.954   9.173
17978SOL    HW255832   7.837   6.972   9.038
17979SOL     OW55833  10.936   2.994   5.560
17979SOL    HW155834  10.947   2.900   5.551
17979SOL    HW255835  10.841   3.007   5.571
17980SOL     OW55836   2.868   9.235   7.250
17980SOL    HW155837   2.924   9.271   7.320
17980SOL    HW255838   2.923   9.237   7.172
17981SOL     OW55839   8.322  13.446   2.280
17981SOL    HW155840   8.334  13.425   2.187
17981SOL    HW255841   8.238  13.492   2.284
17982SOL     OW55842   5.848  11.741   4.935
17982SOL    HW155843   5.847  11.832   4.964
17982SOL    HW255844   5.863  11.691   5.015
17983SOL     OW55845   1.230   4.589  12.055
17983SOL    HW155846   1.295   4.650  12.090
17983SOL    HW255847   1.208   4.623  11.969
17984SOL     OW55848   0.621   1.321   9.576
17984SOL    HW155849   0.597   1.279   9.494
17984SOL    HW255850   0.542   1.315   9.630
17985SOL     OW55851  11.275   7.839  10.958
17985SOL    HW155852  11.348   7.837  11.020
17985SOL    HW255853  11.212   7.899  10.998
17986SOL     OW55854   0.789  12.060  11.071
17986SOL    HW155855   0.815  11.995  11.005
17986SOL    HW255856   0.706  12.027  11.105
17987SOL     OW55857   7.390   4.391   7.007
17987SOL    HW155858   7.326   4.321   7.003
17987SOL    HW255859   7.348   4.460   7.059
17988SOL     OW55860   1.814  10.197  11.330
17988SOL    HW155861   1.743  10.163  11.384
17988SOL    HW255862   1.894  10.170  11.376
17989SOL     OW55863   6.468  12.845   0.100
17989SOL    HW155864   6.543  12.817   0.047
17989SOL    HW255865   6.478  12.940   0.106
17990SOL     OW55866  13.390  14.187  10.742
17990SOL    HW155867  13.318  14.132  10.772
17990SOL    HW255868  13.354  14.237  10.669
17991SOL     OW55869   9.362   6.375   2.982
17991SOL    HW155870   9.452   6.379   2.948
17991SOL    HW255871   9.311   6.334   2.912
17992SOL     OW55872   9.033   6.923   9.061
17992SOL    HW155873   9.029   6.994   8.997
17992SOL    HW255874   9.058   6.966   9.143
17993SOL     OW55875   7.080  14.135   3.150
17993SOL    HW155876   7.025  14.193   3.097
17993SOL    HW255877   7.022  14.104   3.220
17994SOL     OW55878  14.871  13.463  10.736
17994SOL    HW155879  14.874  13.369  10.753
17994SOL    HW255880   0.079  13.493  10.749
17995SOL     OW55881  10.761   3.291   1.244
17995SOL    HW155882  10.817   3.240   1.185
17995SOL    HW255883  10.753   3.237   1.322
17996SOL     OW55884  13.849  13.423   4.551
17996SOL    HW155885  13.819  13.336   4.578
17996SOL    HW255886  13.835  13.478   4.628
17997SOL     OW55887   4.528   2.399   4.394
17997SOL    HW155888   4.506   2.370   4.483
17997SOL    HW255889   4.620   2.376   4.384
17998SOL     OW55890   4.372   4.726   3.191
17998SOL    HW155891   4.412   4.716   3.105
17998SOL    HW255892   4.348   4.637   3.217
17999SOL     OW55893   7.209  13.050   5.247
17999SOL    HW155894   7.122  13.088   5.232
17999SOL    HW255895   7.251  13.052   5.161
18000SOL     OW55896   1.144  12.571  11.124
18000SOL    HW155897   1.183  12.513  11.189
18000SOL    HW255898   1.069  12.521  11.090
18001SOL     OW55899  11.783   2.439   1.375
18001SOL    HW155900  11.707   2.473   1.423
18001SOL    HW255901  11.858   2.462   1.429
18002SOL     OW55902   5.171  11.323   5.461
18002SOL    HW155903   5.197  11.274   5.383
18002SOL    HW255904   5.202  11.412   5.445
18003SOL     OW55905  12.589   2.559  12.166
18003SOL    HW155906  12.673   2.568  12.120
18003SOL    HW255907  12.561   2.649  12.183
18004SOL     OW55908  12.495  11.136   2.311
18004SOL    HW155909  12.526  11.184   2.388
18004SOL    HW255910  12.449  11.060   2.347
18005SOL     OW55911  13.386   4.968   8.217
18005SOL    HW155912  13.351   4.918   8.292
18005SOL    HW255913  13.384   5.059   8.246
18006SOL     OW55914   7.867  10.685   4.563
18006SOL    HW155915   7.855  10.647   4.476
18006SOL    HW255916   7.947  10.645   4.597
18007SOL     OW55917  10.454   0.743   3.177
18007SOL    HW155918  10.469   0.682   3.249
18007SOL    HW255919  10.541   0.766   3.146
18008SOL     OW55920   5.038  10.611  11.859
18008SOL    HW155921   4.987  10.541  11.899
18008SOL    HW255922   5.096  10.642  11.928
18009SOL     OW55923  14.293  11.939   4.577
18009SOL    HW155924  14.345  11.860   4.591
18009SOL    HW255925  14.288  11.949   4.482
18010SOL     OW55926   7.853   1.120   3.060
18010SOL    HW155927   7.785   1.186   3.053
18010SOL    HW255928   7.894   1.118   2.973
18011SOL     OW55929   4.718   0.901   9.768
18011SOL    HW155930   4.758   0.929   9.686
18011SOL    HW255931   4.792   0.877   9.825
18012SOL     OW55932   5.887   5.488   4.767
18012SOL    HW155933   5.932   5.551   4.824
18012SOL    HW255934   5.895   5.524   4.679
18013SOL     OW55935   8.787   3.594   3.793
18013SOL    HW155936   8.726   3.641   3.851
18013SOL    HW255937   8.755   3.504   3.793
18014SOL     OW55938   9.980   9.813  10.766
18014SOL    HW155939   9.944   9.727  10.790
18014SOL    HW255940   9.905   9.864  10.737
18015SOL     OW55941   8.842   8.361  14.648
18015SOL    HW155942   8.768   8.303  14.663
18015SOL    HW255943   8.884   8.371  14.733
18016SOL     OW55944   5.150   2.086   5.287
18016SOL    HW155945   5.194   2.001   5.279
18016SOL    HW255946   5.099   2.079   5.368
18017SOL     OW55947   6.325   1.061  10.635
18017SOL    HW155948   6.298   1.137  10.583
18017SOL    HW255949   6.266   0.991  10.606
18018SOL     OW55950  14.184  10.710   7.005
18018SOL    HW155951  14.127  10.633   7.007
18018SOL    HW255952  14.145  10.766   6.938
18019SOL     OW55953   8.432   9.329   1.933
18019SOL    HW155954   8.371   9.309   1.862
18019SOL    HW255955   8.379   9.378   1.996
18020SOL     OW55956   5.664   1.115  11.467
18020SOL    HW155957   5.570   1.125  11.478
18020SOL    HW255958   5.681   1.142  11.377
18021SOL     OW55959   4.017  14.301   4.894
18021SOL    HW155960   3.987  14.212   4.877
18021SOL    HW255961   4.107  14.290   4.926
18022SOL     OW55962   8.833   5.442   7.479
18022SOL    HW155963   8.841   5.501   7.554
18022SOL    HW255964   8.743   5.454   7.449
18023SOL     OW55965  10.650  11.369   3.927
18023SOL    HW155966  10.609  11.450   3.959
18023SOL    HW255967  10.593  11.340   3.856
18024SOL     OW55968   2.087  11.922   0.023
18024SOL    HW155969   2.022  11.852   0.028
18024SOL    HW255970   2.155  11.897   0.086
18025SOL     OW55971   2.486   3.387   7.515
18025SOL    HW155972   2.507   3.296   7.496
18025SOL    HW255973   2.518   3.400   7.605
18026SOL     OW55974  12.141   3.130   6.560
18026SOL    HW155975  12.130   3.116   6.466
18026SOL    HW255976  12.085   3.063   6.601
18027SOL     OW55977  14.118   9.090   7.916
18027SOL    HW155978  14.094   9.177   7.949
18027SOL    HW255979  14.144   9.106   7.825
18028SOL     OW55980   2.643   3.844  13.102
18028SOL    HW155981   2.691   3.892  13.169
18028SOL    HW255982   2.637   3.754  13.135
18029SOL     OW55983   0.046   9.438   0.554
18029SOL    HW155984   0.074   9.489   0.478
18029SOL    HW255985  14.832   9.442   0.551
18030SOL     OW55986  11.634   2.734   4.807
18030SOL    HW155987  11.666   2.679   4.736
18030SOL    HW255988  11.673   2.696   4.886
18031SOL     OW55989   0.071   8.022   5.271
18031SOL    HW155990   0.053   8.108   5.309
18031SOL    HW255991   0.020   8.020   5.190
18032SOL     OW55992   3.112   9.850  12.821
18032SOL    HW155993   3.098   9.827  12.729
18032SOL    HW255994   3.101   9.768  12.869
18033SOL     OW55995  10.319   9.446   3.074
18033SOL    HW155996  10.227   9.446   3.050
18033SOL    HW255997  10.365   9.456   2.991
18034SOL     OW55998  14.253   3.764  12.006
18034SOL    HW155999  14.226   3.795  11.919
18034SOL    HW256000  14.223   3.673  12.009
18035SOL     OW56001   4.820   0.865   6.069
18035SOL    HW156002   4.894   0.808   6.049
18035SOL    HW256003   4.858   0.953   6.072
18036SOL     OW56004  14.054  10.019   7.516
18036SOL    HW156005  13.986  10.043   7.579
18036SOL    HW256006  14.069  10.099   7.466
18037SOL     OW56007   9.267  13.942  12.771
18037SOL    HW156008   9.224  13.930  12.856
18037SOL    HW256009   9.361  13.939  12.792
18038SOL     OW56010  13.267  12.965  13.922
18038SOL    HW156011  13.331  13.029  13.954
18038SOL    HW256012  13.238  13.001  13.838
18039SOL     OW56013   7.245   9.548   8.921
18039SOL    HW156014   7.151   9.562   8.916
18039SOL    HW256015   7.281   9.601   8.850
18040SOL     OW56016  12.295   9.569  11.744
18040SOL    HW156017  12.354   9.500  11.713
18040SOL    HW256018  12.239   9.589  11.669
18041SOL     OW56019   2.109   1.361   4.578
18041SOL    HW156020   2.170   1.371   4.651
18041SOL    HW256021   2.164   1.366   4.500
18042SOL     OW56022  12.421   3.316   5.379
18042SOL    HW156023  12.471   3.361   5.447
18042SOL    HW256024  12.408   3.382   5.311
18043SOL     OW56025   6.497   7.420   9.598
18043SOL    HW156026   6.460   7.507   9.611
18043SOL    HW256027   6.531   7.421   9.508
18044SOL     OW56028   4.567   9.729  10.969
18044SOL    HW156029   4.557   9.700  10.878
18044SOL    HW256030   4.479   9.729  11.005
18045SOL     OW56031  11.992   3.504   4.163
18045SOL    HW156032  11.931   3.539   4.098
18045SOL    HW256033  12.073   3.490   4.114
18046SOL     OW56034  12.473   5.382   0.457
18046SOL    HW156035  12.461   5.305   0.513
18046SOL    HW256036  12.483   5.347   0.369
18047SOL     OW56037   2.288   2.980  12.015
18047SOL    HW156038   2.384   2.977  12.010
18047SOL    HW256039   2.259   2.954  11.927
18048SOL     OW56040   2.343  11.205  12.296
18048SOL    HW156041   2.305  11.119  12.280
18048SOL    HW256042   2.369  11.202  12.388
18049SOL     OW56043  12.475  14.445   9.111
18049SOL    HW156044  12.382  14.434   9.092
18049SOL    HW256045  12.491  14.390   9.188
18050SOL     OW56046  11.529   4.395  10.031
18050SOL    HW156047  11.527   4.457  10.103
18050SOL    HW256048  11.532   4.450   9.952
18051SOL     OW56049   9.498  10.841   8.476
18051SOL    HW156050   9.451  10.804   8.550
18051SOL    HW256051   9.567  10.894   8.515
18052SOL     OW56052   0.191  11.130   0.191
18052SOL    HW156053   0.107  11.175   0.196
18052SOL    HW256054   0.256  11.200   0.196
18053SOL     OW56055   1.834   5.827  11.470
18053SOL    HW156056   1.750   5.848  11.430
18053SOL    HW256057   1.883   5.909  11.467
18054SOL     OW56058   7.892   5.342  10.298
18054SOL    HW156059   7.882   5.431  10.329
18054SOL    HW256060   7.986   5.332  10.282
18055SOL     OW56061  14.573  11.986   1.795
18055SOL    HW156062  14.577  12.059   1.856
18055SOL    HW256063  14.662  11.980   1.759
18056SOL     OW56064   7.247   2.004  13.096
18056SOL    HW156065   7.244   1.985  13.190
18056SOL    HW256066   7.289   1.928  13.057
18057SOL     OW56067  13.707   6.448   9.882
18057SOL    HW156068  13.622   6.422   9.917
18057SOL    HW256069  13.744   6.506   9.949
18058SOL     OW56070  11.999   1.210   1.637
18058SOL    HW156071  12.092   1.206   1.617
18058SOL    HW256072  11.994   1.254   1.722
18059SOL     OW56073  10.638   5.526  14.817
18059SOL    HW156074  10.721   5.484  14.840
18059SOL    HW256075  10.593   5.538   0.018
18060SOL     OW56076   4.784   2.078  10.219
18060SOL    HW156077   4.833   2.160  10.212
18060SOL    HW256078   4.711   2.089  10.157
18061SOL     OW56079   3.162   3.360   5.068
18061SOL    HW156080   3.093   3.351   5.002
18061SOL    HW256081   3.224   3.423   5.030
18062SOL     OW56082  11.466  11.322  14.558
18062SOL    HW156083  11.461  11.418  14.556
18062SOL    HW256084  11.395  11.295  14.616
18063SOL     OW56085  14.217  13.075  13.203
18063SOL    HW156086  14.287  13.068  13.138
18063SOL    HW256087  14.154  13.007  13.179
18064SOL     OW56088   5.353   2.878  13.972
18064SOL    HW156089   5.335   2.786  13.954
18064SOL    HW256090   5.284   2.904  14.033
18065SOL     OW56091   9.381   9.659   6.122
18065SOL    HW156092   9.347   9.749   6.128
18065SOL    HW256093   9.318   9.606   6.169
18066SOL     OW56094   4.925   3.547   8.486
18066SOL    HW156095   4.856   3.594   8.440
18066SOL    HW256096   4.936   3.465   8.437
18067SOL     OW56097   7.166   4.543   7.113
18067SOL    HW156098   7.099   4.576   7.053
18067SOL    HW256099   7.128   4.464   7.151
18068SOL     OW56100  14.522  12.976  14.687
18068SOL    HW156101  14.486  12.917  14.621
18068SOL    HW256102  14.545  13.055  14.638
18069SOL     OW56103   7.427   0.589   1.121
18069SOL    HW156104   7.452   0.496   1.122
18069SOL    HW256105   7.348   0.591   1.067
18070SOL     OW56106   9.656  11.041  13.058
18070SOL    HW156107   9.672  10.958  13.104
18070SOL    HW256108   9.730  11.050  12.998
18071SOL     OW56109   6.851   3.036   1.528
18071SOL    HW156110   6.924   3.091   1.500
18071SOL    HW256111   6.879   2.947   1.509
18072SOL     OW56112   5.218  10.644   7.216
18072SOL    HW156113   5.225  10.732   7.252
18072SOL    HW256114   5.161  10.597   7.277
18073SOL     OW56115   9.950  14.147   3.341
18073SOL    HW156116  10.036  14.178   3.313
18073SOL    HW256117   9.935  14.067   3.291
18074SOL     OW56118   9.792  11.699  12.817
18074SOL    HW156119   9.882  11.669  12.804
18074SOL    HW256120   9.800  11.791  12.842
18075SOL     OW56121   8.219   0.871  12.748
18075SOL    HW156122   8.132   0.840  12.726
18075SOL    HW256123   8.262   0.884  12.663
18076SOL     OW56124   2.119  12.585  10.313
18076SOL    HW156125   2.084  12.660  10.264
18076SOL    HW256126   2.193  12.555  10.260
18077SOL     OW56127  12.772   2.608  14.819
18077SOL    HW156128  12.734   2.598   0.024
18077SOL    HW256129  12.753   2.699  14.795
18078SOL     OW56130   0.885   2.690   2.409
18078SOL    HW156131   0.803   2.644   2.425
18078SOL    HW256132   0.890   2.697   2.313
18079SOL     OW56133   4.968   9.179  10.538
18079SOL    HW156134   5.015   9.125  10.602
18079SOL    HW256135   5.036   9.228  10.493
18080SOL     OW56136   0.803  14.387  14.782
18080SOL    HW156137   0.792  14.459  14.720
18080SOL    HW256138   0.805  14.309  14.727
18081SOL     OW56139   6.819   6.013   2.296
18081SOL    HW156140   6.734   5.994   2.336
18081SOL    HW256141   6.879   5.951   2.337
18082SOL     OW56142  14.723   4.013   5.034
18082SOL    HW156143  14.792   4.051   5.088
18082SOL    HW256144  14.756   3.925   5.012
18083SOL     OW56145   3.472   4.862   8.502
18083SOL    HW156146   3.555   4.882   8.458
18083SOL    HW256147   3.497   4.823   8.585
18084SOL     OW56148   8.067  12.720   5.528
18084SOL    HW156149   8.004  12.679   5.469
18084SOL    HW256150   8.098  12.648   5.583
18085SOL     OW56151   4.556   6.365  10.965
18085SOL    HW156152   4.585   6.274  10.973
18085SOL    HW256153   4.461   6.359  10.960
18086SOL     OW56154   6.673   0.554  13.245
18086SOL    HW156155   6.672   0.520  13.334
18086SOL    HW256156   6.728   0.632  13.250
18087SOL     OW56157   4.527   4.275   3.852
18087SOL    HW156158   4.598   4.228   3.896
18087SOL    HW256159   4.452   4.215   3.859
18088SOL     OW56160  13.841   5.058   2.926
18088SOL    HW156161  13.751   5.091   2.935
18088SOL    HW256162  13.833   4.963   2.935
18089SOL     OW56163   3.577  11.232   4.465
18089SOL    HW156164   3.589  11.189   4.549
18089SOL    HW256165   3.485  11.261   4.466
18090SOL     OW56166   8.151   6.141  14.746
18090SOL    HW156167   8.234   6.190  14.746
18090SOL    HW256168   8.127   6.134  14.839
18091SOL     OW56169  12.708   3.152   7.753
18091SOL    HW156170  12.635   3.208   7.731
18091SOL    HW256171  12.783   3.211   7.762
18092SOL     OW56172  10.862   3.749   4.078
18092SOL    HW156173  10.802   3.805   4.127
18092SOL    HW256174  10.867   3.669   4.130
18093SOL     OW56175  13.924  14.632   9.944
18093SOL    HW156176  13.979  14.567   9.900
18093SOL    HW256177  13.865  14.581   9.998
18094SOL     OW56178   9.705   3.704   2.460
18094SOL    HW156179   9.734   3.620   2.495
18094SOL    HW256180   9.610   3.693   2.449
18095SOL     OW56181   2.465   7.779  12.509
18095SOL    HW156182   2.492   7.771  12.418
18095SOL    HW256183   2.520   7.849  12.545
18096SOL     OW56184   3.080  11.329   6.626
18096SOL    HW156185   3.152  11.267   6.609
18096SOL    HW256186   3.115  11.388   6.693
18097SOL     OW56187   4.563   2.713  14.392
18097SOL    HW156188   4.577   2.795  14.441
18097SOL    HW256189   4.570   2.739  14.300
18098SOL     OW56190   5.627  10.896   5.580
18098SOL    HW156191   5.719  10.889   5.556
18098SOL    HW256192   5.592  10.808   5.564
18099SOL     OW56193   8.042   5.423   8.798
18099SOL    HW156194   7.971   5.370   8.761
18099SOL    HW256195   8.023   5.426   8.892
18100SOL     OW56196  14.328   0.106  10.337
18100SOL    HW156197  14.379   0.027  10.317
18100SOL    HW256198  14.360   0.134  10.423
18101SOL     OW56199  11.529  12.608   0.954
18101SOL    HW156200  11.618  12.644   0.958
18101SOL    HW256201  11.510  12.603   0.860
18102SOL     OW56202  10.430   4.686   8.029
18102SOL    HW156203  10.521   4.715   8.021
18102SOL    HW256204  10.399   4.677   7.939
18103SOL     OW56205   9.656   2.518   2.636
18103SOL    HW156206   9.749   2.530   2.658
18103SOL    HW256207   9.635   2.431   2.669
18104SOL     OW56208   9.319   8.443   5.978
18104SOL    HW156209   9.368   8.360   5.970
18104SOL    HW256210   9.341   8.474   6.066
18105SOL     OW56211   7.208   7.531  13.051
18105SOL    HW156212   7.164   7.600  13.002
18105SOL    HW256213   7.140   7.466  13.068
18106SOL     OW56214   2.236   1.488   0.810
18106SOL    HW156215   2.230   1.394   0.827
18106SOL    HW256216   2.207   1.498   0.719
18107SOL     OW56217   8.167  14.046   9.077
18107SOL    HW156218   8.152  13.993   8.998
18107SOL    HW256219   8.079  14.069   9.107
18108SOL     OW56220   1.280   3.624   3.083
18108SOL    HW156221   1.343   3.621   3.011
18108SOL    HW256222   1.268   3.717   3.101
18109SOL     OW56223  12.713   2.105   5.893
18109SOL    HW156224  12.695   2.141   5.980
18109SOL    HW256225  12.709   2.010   5.904
18110SOL     OW56226  11.087  13.389  14.052
18110SOL    HW156227  11.061  13.302  14.083
18110SOL    HW256228  11.010  13.444  14.069
18111SOL     OW56229  13.732  14.701  14.814
18111SOL    HW156230  13.700  14.763  14.749
18111SOL    HW256231  13.654  14.674  14.862
18112SOL     OW56232   9.326   6.146   1.213
18112SOL    HW156233   9.353   6.204   1.284
18112SOL    HW256234   9.233   6.163   1.201
18113SOL     OW56235   1.874   4.079   1.855
18113SOL    HW156236   1.929   4.040   1.787
18113SOL    HW256237   1.785   4.068   1.822
18114SOL     OW56238   7.603   6.365   8.799
18114SOL    HW156239   7.585   6.294   8.737
18114SOL    HW256240   7.523   6.374   8.850
18115SOL     OW56241  10.539   9.622   3.415
18115SOL    HW156242  10.565   9.712   3.436
18115SOL    HW256243  10.621   9.580   3.389
18116SOL     OW56244   2.713  12.671   7.538
18116SOL    HW156245   2.742  12.672   7.447
18116SOL    HW256246   2.703  12.578   7.560
18117SOL     OW56247   0.006  12.673   8.508
18117SOL    HW156248   0.058  12.593   8.498
18117SOL    HW256249   0.042  12.715   8.587
18118SOL     OW56250  13.474   6.133   5.300
18118SOL    HW156251  13.456   6.126   5.394
18118SOL    HW256252  13.458   6.044   5.266
18119SOL     OW56253   9.494   6.661  13.930
18119SOL    HW156254   9.422   6.656  13.867
18119SOL    HW256255   9.502   6.755  13.949
18120SOL     OW56256  12.794   2.758   2.898
18120SOL    HW156257  12.779   2.849   2.924
18120SOL    HW256258  12.717   2.736   2.846
18121SOL     OW56259   7.899  13.999   8.750
18121SOL    HW156260   7.947  13.996   8.668
18121SOL    HW256261   7.926  13.921   8.798
18122SOL     OW56262   6.438  11.003  10.602
18122SOL    HW156263   6.357  11.052  10.589
18122SOL    HW256264   6.505  11.070  10.613
18123SOL     OW56265  12.567   8.577  11.491
18123SOL    HW156266  12.660   8.583  11.510
18123SOL    HW256267  12.533   8.516  11.556
18124SOL     OW56268   0.738  11.911   8.120
18124SOL    HW156269   0.671  11.979   8.121
18124SOL    HW256270   0.719  11.858   8.043
18125SOL     OW56271  12.834  10.022  14.014
18125SOL    HW156272  12.794  10.075  14.083
18125SOL    HW256273  12.802  10.062  13.932
18126SOL     OW56274   4.484   3.655   8.430
18126SOL    HW156275   4.572   3.680   8.403
18126SOL    HW256276   4.458   3.722   8.493
18127SOL     OW56277  11.731   5.287   2.191
18127SOL    HW156278  11.744   5.328   2.106
18127SOL    HW256279  11.741   5.358   2.254
18128SOL     OW56280   1.423   7.036   1.258
18128SOL    HW156281   1.440   6.949   1.295
18128SOL    HW256282   1.418   7.094   1.334
18129SOL     OW56283   8.102  10.815   3.718
18129SOL    HW156284   8.061  10.807   3.805
18129SOL    HW256285   8.030  10.840   3.660
18130SOL     OW56286   0.669  11.551   6.257
18130SOL    HW156287   0.616  11.522   6.183
18130SOL    HW256288   0.605  11.578   6.322
18131SOL     OW56289  11.435  11.864   7.096
18131SOL    HW156290  11.388  11.818   7.026
18131SOL    HW256291  11.499  11.918   7.050
18132SOL     OW56292  12.343   9.978  11.131
18132SOL    HW156293  12.393  10.041  11.183
18132SOL    HW256294  12.256   9.977  11.172
18133SOL     OW56295   6.261  14.145   4.472
18133SOL    HW156296   6.352  14.126   4.451
18133SOL    HW256297   6.218  14.155   4.387
18134SOL     OW56298   7.038   3.279   7.315
18134SOL    HW156299   7.037   3.240   7.402
18134SOL    HW256300   7.101   3.226   7.266
18135SOL     OW56301   8.342  12.997   4.842
18135SOL    HW156302   8.322  13.089   4.824
18135SOL    HW256303   8.318  12.983   4.933
18136SOL     OW56304   2.056   1.038   3.849
18136SOL    HW156305   1.993   0.967   3.834
18136SOL    HW256306   2.102   1.047   3.766
18137SOL     OW56307   1.272   0.448   9.071
18137SOL    HW156308   1.268   0.515   9.139
18137SOL    HW256309   1.229   0.488   8.995
18138SOL     OW56310   5.872   8.246  13.384
18138SOL    HW156311   5.892   8.339  13.370
18138SOL    HW256312   5.881   8.206  13.297
18139SOL     OW56313  12.424   0.373   6.363
18139SOL    HW156314  12.438   0.423   6.283
18139SOL    HW256315  12.500   0.316   6.370
18140SOL     OW56316   3.847   9.695   1.808
18140SOL    HW156317   3.776   9.757   1.790
18140SOL    HW256318   3.868   9.658   1.722
18141SOL     OW56319   3.393   2.275   4.859
18141SOL    HW156320   3.331   2.348   4.870
18141SOL    HW256321   3.473   2.306   4.901
18142SOL     OW56322   9.308  11.917   1.659
18142SOL    HW156323   9.287  11.848   1.722
18142SOL    HW256324   9.361  11.980   1.708
18143SOL     OW56325  13.533   7.077   3.041
18143SOL    HW156326  13.460   7.066   3.102
18143SOL    HW256327  13.597   7.129   3.089
18144SOL     OW56328   7.977   0.825   6.764
18144SOL    HW156329   7.979   0.881   6.687
18144SOL    HW256330   8.061   0.840   6.808
18145SOL     OW56331  10.099  13.861   8.814
18145SOL    HW156332  10.086  13.832   8.904
18145SOL    HW256333  10.194  13.872   8.806
18146SOL     OW56334  10.219   5.434  10.451
18146SOL    HW156335  10.185   5.365  10.508
18146SOL    HW256336  10.144   5.460  10.397
18147SOL     OW56337   1.236  14.275   3.610
18147SOL    HW156338   1.222  14.192   3.563
18147SOL    HW256339   1.194  14.341   3.554
18148SOL     OW56340   1.762  12.019   0.703
18148SOL    HW156341   1.673  12.013   0.737
18148SOL    HW256342   1.758  12.086   0.636
18149SOL     OW56343   4.956   9.458  10.251
18149SOL    HW156344   4.865   9.446  10.223
18149SOL    HW256345   4.951   9.463  10.346
18150SOL     OW56346  10.529   3.459   6.560
18150SOL    HW156347  10.478   3.486   6.483
18150SOL    HW256348  10.587   3.533   6.577
18151SOL     OW56349   5.083   9.439   4.631
18151SOL    HW156350   5.069   9.412   4.540
18151SOL    HW256351   5.046   9.527   4.636
18152SOL     OW56352   1.320   4.086  12.974
18152SOL    HW156353   1.377   4.029  12.923
18152SOL    HW256354   1.355   4.080  13.063
18153SOL     OW56355   7.596   8.314   5.821
18153SOL    HW156356   7.585   8.230   5.865
18153SOL    HW256357   7.656   8.363   5.877
18154SOL     OW56358   5.207   0.716  13.643
18154SOL    HW156359   5.267   0.789  13.658
18154SOL    HW256360   5.224   0.656  13.716
18155SOL     OW56361  10.650  13.031  10.374
18155SOL    HW156362  10.735  13.000  10.405
18155SOL    HW256363  10.668  13.117  10.336
18156SOL     OW56364   8.601   5.922   3.279
18156SOL    HW156365   8.668   5.989   3.273
18156SOL    HW256366   8.640   5.844   3.240
18157SOL     OW56367   2.614   6.161   1.328
18157SOL    HW156368   2.638   6.254   1.328
18157SOL    HW256369   2.535   6.156   1.274
18158SOL     OW56370   3.775   6.139   3.201
18158SOL    HW156371   3.722   6.190   3.139
18158SOL    HW256372   3.814   6.205   3.259
18159SOL     OW56373   5.907  11.460  11.356
18159SOL    HW156374   5.950  11.396  11.300
18159SOL    HW256375   5.917  11.425  11.445
18160SOL     OW56376   4.825  14.593  10.874
18160SOL    HW156377   4.779  14.510  10.881
18160SOL    HW256378   4.834  14.624  10.964
18161SOL     OW56379  12.375   8.243   5.627
18161SOL    HW156380  12.329   8.321   5.657
18161SOL    HW256381  12.465   8.256   5.657
18162SOL     OW56382   0.737   0.043  11.865
18162SOL    HW156383   0.830   0.032  11.847
18162SOL    HW256384   0.693   0.018  11.784
18163SOL     OW56385   1.518   1.272  11.232
18163SOL    HW156386   1.605   1.234  11.236
18163SOL    HW256387   1.526   1.355  11.280
18164SOL     OW56388  14.348   7.249   0.730
18164SOL    HW156389  14.421   7.268   0.789
18164SOL    HW256390  14.347   7.154   0.724
18165SOL     OW56391   5.266   4.994  13.749
18165SOL    HW156392   5.226   5.076  13.778
18165SOL    HW256393   5.357   5.018  13.730
18166SOL     OW56394   5.974  14.668  11.157
18166SOL    HW156395   6.020  14.585  11.171
18166SOL    HW256396   6.043  14.730  11.132
18167SOL     OW56397   4.543  10.752  10.843
18167SOL    HW156398   4.510  10.818  10.781
18167SOL    HW256399   4.467  10.734  10.899
18168SOL     OW56400  13.709   0.221  10.826
18168SOL    HW156401  13.755   0.305  10.828
18168SOL    HW256402  13.634   0.236  10.768
18169SOL     OW56403  10.949   3.816  13.106
18169SOL    HW156404  10.854   3.804  13.101
18169SOL    HW256405  10.985   3.747  13.049
18170SOL     OW56406   3.542  10.699   6.946
18170SOL    HW156407   3.597  10.777   6.952
18170SOL    HW256408   3.456  10.728   6.977
18171SOL     OW56409  13.645   8.235   3.879
18171SOL    HW156410  13.600   8.246   3.963
18171SOL    HW256411  13.578   8.198   3.821
18172SOL     OW56412   6.423  10.037   4.545
18172SOL    HW156413   6.518  10.046   4.556
18172SOL    HW256414   6.391  10.010   4.631
18173SOL     OW56415   0.277   9.622   1.905
18173SOL    HW156416   0.276   9.612   2.000
18173SOL    HW256417   0.368   9.606   1.880
18174SOL     OW56418  11.232   3.823   4.877
18174SOL    HW156419  11.307   3.765   4.886
18174SOL    HW256420  11.156   3.769   4.899
18175SOL     OW56421   9.353   3.657   9.256
18175SOL    HW156422   9.275   3.624   9.211
18175SOL    HW256423   9.319   3.704   9.331
18176SOL     OW56424  11.919   9.425   6.988
18176SOL    HW156425  11.988   9.460   6.931
18176SOL    HW256426  11.944   9.454   7.076
18177SOL     OW56427  10.808   7.957  14.351
18177SOL    HW156428  10.794   7.996  14.264
18177SOL    HW256429  10.900   7.976  14.371
18178SOL     OW56430   3.314   2.157  13.612
18178SOL    HW156431   3.371   2.221  13.654
18178SOL    HW256432   3.361   2.131  13.533
18179SOL     OW56433   2.893   0.743   6.735
18179SOL    HW156434   2.902   0.661   6.783
18179SOL    HW256435   2.807   0.737   6.693
18180SOL     OW56436  12.910  11.163   9.990
18180SOL    HW156437  12.935  11.216   9.915
18180SOL    HW256438  12.826  11.198  10.017
18181SOL     OW56439   5.848   7.075   8.773
18181SOL    HW156440   5.805   7.099   8.691
18181SOL    HW256441   5.922   7.020   8.746
18182SOL     OW56442  13.448   5.478  10.606
18182SOL    HW156443  13.420   5.434  10.525
18182SOL    HW256444  13.494   5.410  10.655
18183SOL     OW56445   8.849  13.593   2.446
18183SOL    HW156446   8.889  13.633   2.368
18183SOL    HW256447   8.839  13.665   2.507
18184SOL     OW56448   6.059  10.935  12.965
18184SOL    HW156449   6.010  10.861  13.001
18184SOL    HW256450   6.034  11.009  13.021
18185SOL     OW56451  12.619   7.392  10.408
18185SOL    HW156452  12.681   7.319  10.416
18185SOL    HW256453  12.616   7.412  10.314
18186SOL     OW56454   1.454   3.162   1.287
18186SOL    HW156455   1.475   3.255   1.281
18186SOL    HW256456   1.482   3.137   1.375
18187SOL     OW56457   6.365  12.933   7.534
18187SOL    HW156458   6.411  12.888   7.464
18187SOL    HW256459   6.336  13.016   7.494
18188SOL     OW56460  10.491   3.437  11.448
18188SOL    HW156461  10.489   3.343  11.467
18188SOL    HW256462  10.408   3.454  11.404
18189SOL     OW56463  13.482  13.159  11.911
18189SOL    HW156464  13.453  13.080  11.865
18189SOL    HW256465  13.506  13.128  11.999
18190SOL     OW56466  12.291   3.768   7.942
18190SOL    HW156467  12.260   3.734   7.858
18190SOL    HW256468  12.317   3.691   7.992
18191SOL     OW56469   0.209  10.765  14.195
18191SOL    HW156470   0.198  10.776  14.289
18191SOL    HW256471   0.240  10.675  14.185
18192SOL     OW56472   7.116   1.955  14.612
18192SOL    HW156473   7.101   2.041  14.653
18192SOL    HW256474   7.052   1.952  14.541
18193SOL     OW56475   8.847  12.819  13.269
18193SOL    HW156476   8.751  12.822  13.266
18193SOL    HW256477   8.873  12.911  13.278
18194SOL     OW56478   0.944   8.192   4.135
18194SOL    HW156479   0.990   8.245   4.200
18194SOL    HW256480   1.009   8.126   4.108
18195SOL     OW56481   8.576   4.964   7.838
18195SOL    HW156482   8.481   4.961   7.825
18195SOL    HW256483   8.587   4.995   7.928
18196SOL     OW56484  11.030  13.518  13.788
18196SOL    HW156485  10.995  13.449  13.846
18196SOL    HW256486  11.116  13.485  13.761
18197SOL     OW56487  10.614   4.542  10.457
18197SOL    HW156488  10.563   4.620  10.474
18197SOL    HW256489  10.702   4.574  10.435
18198SOL     OW56490   4.644  14.484  14.752
18198SOL    HW156491   4.676  14.394  14.748
18198SOL    HW256492   4.596  14.489  14.834
18199SOL     OW56493   1.846   8.580  11.186
18199SOL    HW156494   1.766   8.582  11.239
18199SOL    HW256495   1.889   8.498  11.211
18200SOL     OW56496   4.271   3.739  11.138
18200SOL    HW156497   4.252   3.645  11.134
18200SOL    HW256498   4.236   3.774  11.056
18201SOL     OW56499  11.382   7.150   3.290
18201SOL    HW156500  11.338   7.162   3.206
18201SOL    HW256501  11.317   7.107   3.346
18202SOL     OW56502  10.509   0.719   1.450
18202SOL    HW156503  10.481   0.765   1.371
18202SOL    HW256504  10.536   0.789   1.510
18203SOL     OW56505   7.299   6.846   2.735
18203SOL    HW156506   7.346   6.842   2.652
18203SOL    HW256507   7.366   6.830   2.801
18204SOL     OW56508  13.139   6.553   7.494
18204SOL    HW156509  13.106   6.484   7.436
18204SOL    HW256510  13.111   6.527   7.582
18205SOL     OW56511   1.682   0.969   3.489
18205SOL    HW156512   1.668   0.955   3.582
18205SOL    HW256513   1.608   0.926   3.446
18206SOL     OW56514  12.816  13.880   1.543
18206SOL    HW156515  12.837  13.903   1.453
18206SOL    HW256516  12.892  13.908   1.594
18207SOL     OW56517   2.304   9.779  13.565
18207SOL    HW156518   2.296   9.841  13.492
18207SOL    HW256519   2.253   9.703  13.537
18208SOL     OW56520   6.053   9.683  12.959
18208SOL    HW156521   6.128   9.705  13.013
18208SOL    HW256522   6.011   9.767  12.940
18209SOL     OW56523   3.138   9.787  14.310
18209SOL    HW156524   3.081   9.862  14.323
18209SOL    HW256525   3.216   9.823  14.269
18210SOL     OW56526   4.519  11.924  13.334
18210SOL    HW156527   4.446  11.958  13.386
18210SOL    HW256528   4.570  12.001  13.310
18211SOL     OW56529   8.738   0.524   5.853
18211SOL    HW156530   8.679   0.509   5.927
18211SOL    HW256531   8.819   0.556   5.893
18212SOL     OW56532  13.073   2.813   9.456
18212SOL    HW156533  13.093   2.882   9.520
18212SOL    HW256534  13.053   2.861   9.375
18213SOL     OW56535   1.653   3.158   9.488
18213SOL    HW156536   1.674   3.068   9.511
18213SOL    HW256537   1.728   3.209   9.521
18214SOL     OW56538   1.976  12.218   8.968
18214SOL    HW156539   1.886  12.250   8.973
18214SOL    HW256540   2.025  12.292   8.931
18215SOL     OW56541   1.520   1.820   3.486
18215SOL    HW156542   1.606   1.815   3.529
18215SOL    HW256543   1.505   1.914   3.476
18216SOL     OW56544  13.357   3.039  13.817
18216SOL    HW156545  13.318   3.020  13.732
18216SOL    HW256546  13.404   3.121  13.804
18217SOL     OW56547  14.342   4.720   0.938
18217SOL    HW156548  14.406   4.651   0.920
18217SOL    HW256549  14.394   4.799   0.946
18218SOL     OW56550   1.604  11.992   2.664
18218SOL    HW156551   1.522  12.041   2.676
18218SOL    HW256552   1.645  12.033   2.588
18219SOL     OW56553   6.274   6.867  10.637
18219SOL    HW156554   6.264   6.890  10.545
18219SOL    HW256555   6.362   6.831  10.644
18220SOL     OW56556   2.313   9.175   9.250
18220SOL    HW156557   2.293   9.224   9.330
18220SOL    HW256558   2.358   9.097   9.281
18221SOL     OW56559  10.693   9.942   6.239
18221SOL    HW156560  10.663   9.916   6.327
18221SOL    HW256561  10.720   9.860   6.198
18222SOL     OW56562   7.858  11.424  13.089
18222SOL    HW156563   7.923  11.406  13.022
18222SOL    HW256564   7.909  11.440  13.168
18223SOL     OW56565   2.246   8.416   9.437
18223SOL    HW156566   2.230   8.475   9.510
18223SOL    HW256567   2.169   8.359   9.434
18224SOL     OW56568   0.822  12.876  12.655
18224SOL    HW156569   0.833  12.806  12.719
18224SOL    HW256570   0.783  12.833  12.579
18225SOL     OW56571   0.697   8.508   7.725
18225SOL    HW156572   0.705   8.587   7.672
18225SOL    HW256573   0.688   8.437   7.661
18226SOL     OW56574   9.077  14.555  12.603
18226SOL    HW156575   9.035  14.470  12.592
18226SOL    HW256576   9.113  14.575  12.517
18227SOL     OW56577  10.612  12.737   4.406
18227SOL    HW156578  10.694  12.752   4.360
18227SOL    HW256579  10.577  12.824   4.422
18228SOL     OW56580   3.588   4.993  14.836
18228SOL    HW156581   3.670   5.021  14.879
18228SOL    HW256582   3.557   4.921   0.008
18229SOL     OW56583   1.294   2.411  10.526
18229SOL    HW156584   1.320   2.467  10.452
18229SOL    HW256585   1.276   2.325  10.486
18230SOL     OW56586  13.672   8.074   4.952
18230SOL    HW156587  13.713   7.989   4.968
18230SOL    HW256588  13.697   8.098   4.863
18231SOL     OW56589  11.168  12.494  13.309
18231SOL    HW156590  11.108  12.534  13.372
18231SOL    HW256591  11.130  12.408  13.291
18232SOL     OW56592  14.533  10.853  11.490
18232SOL    HW156593  14.561  10.864  11.581
18232SOL    HW256594  14.475  10.928  11.474
18233SOL     OW56595   7.032  11.027  14.248
18233SOL    HW156596   7.081  10.946  14.263
18233SOL    HW256597   6.942  10.997  14.231
18234SOL     OW56598   8.421   4.307  10.999
18234SOL    HW156599   8.458   4.366  10.934
18234SOL    HW256600   8.493   4.291  11.061
18235SOL     OW56601   5.555   1.200   9.031
18235SOL    HW156602   5.605   1.128   9.070
18235SOL    HW256603   5.572   1.193   8.937
18236SOL     OW56604  13.305  13.550   5.404
18236SOL    HW156605  13.296  13.543   5.309
18236SOL    HW256606  13.277  13.639   5.424
18237SOL     OW56607  10.823  13.656  10.238
18237SOL    HW156608  10.839  13.599  10.313
18237SOL    HW256609  10.850  13.604  10.162
18238SOL     OW56610   8.107   9.576  13.757
18238SOL    HW156611   8.161   9.513  13.805
18238SOL    HW256612   8.101   9.539  13.669
18239SOL     OW56613   0.544  11.498  12.721
18239SOL    HW156614   0.532  11.494  12.627
18239SOL    HW256615   0.563  11.408  12.747
18240SOL     OW56616   3.313   7.540  10.870
18240SOL    HW156617   3.231   7.554  10.917
18240SOL    HW256618   3.309   7.599  10.795
18241SOL     OW56619   0.635   0.750   7.047
18241SOL    HW156620   0.685   0.680   7.091
18241SOL    HW256621   0.550   0.711   7.029
18242SOL     OW56622  14.148   1.011  11.719
18242SOL    HW156623  14.107   0.961  11.789
18242SOL    HW256624  14.238   0.979  11.717
18243SOL     OW56625   6.086   9.512   9.265
18243SOL    HW156626   6.159   9.467   9.306
18243SOL    HW256627   6.126   9.580   9.211
18244SOL     OW56628   9.208   7.188  13.110
18244SOL    HW156629   9.158   7.126  13.057
18244SOL    HW256630   9.210   7.268  13.057
18245SOL     OW56631  11.983   2.487   2.462
18245SOL    HW156632  11.921   2.415   2.473
18245SOL    HW256633  11.982   2.506   2.368
18246SOL     OW56634  14.837   3.252   5.369
18246SOL    HW156635  14.763   3.306   5.398
18246SOL    HW256636   0.024   3.270   5.432
18247SOL     OW56637   8.257   5.558   8.452
18247SOL    HW156638   8.233   5.642   8.489
18247SOL    HW256639   8.260   5.498   8.526
18248SOL     OW56640  11.721  14.552  12.749
18248SOL    HW156641  11.689  14.550  12.839
18248SOL    HW256642  11.806  14.510  12.752
18249SOL     OW56643   4.028   6.391   7.279
18249SOL    HW156644   3.946   6.436   7.257
18249SOL    HW256645   4.078   6.456   7.330
18250SOL     OW56646   6.653   2.112  13.351
18250SOL    HW156647   6.569   2.101  13.396
18250SOL    HW256648   6.633   2.100  13.258
18251SOL     OW56649   2.315   1.281  10.410
18251SOL    HW156650   2.389   1.249  10.461
18251SOL    HW256651   2.355   1.333  10.340
18252SOL     OW56652   9.204   7.198   2.957
18252SOL    HW156653   9.125   7.225   3.004
18252SOL    HW256654   9.181   7.211   2.865
18253SOL     OW56655   9.438  12.915   6.292
18253SOL    HW156656   9.368  12.980   6.299
18253SOL    HW256657   9.508  12.950   6.346
18254SOL     OW56658   3.763  14.002   5.075
18254SOL    HW156659   3.701  14.006   5.002
18254SOL    HW256660   3.739  14.077   5.131
18255SOL     OW56661  10.567   2.518   8.721
18255SOL    HW156662  10.537   2.487   8.806
18255SOL    HW256663  10.624   2.448   8.689
18256SOL     OW56664  13.640  13.187   2.759
18256SOL    HW156665  13.597  13.212   2.841
18256SOL    HW256666  13.719  13.240   2.757
18257SOL     OW56667  10.908  13.999   4.918
18257SOL    HW156668  10.982  13.939   4.909
18257SOL    HW256669  10.941  14.070   4.974
18258SOL     OW56670   3.984   4.565  14.788
18258SOL    HW156671   4.058   4.505  14.775
18258SOL    HW256672   4.021   4.635  14.842
18259SOL     OW56673  12.663  14.193   2.363
18259SOL    HW156674  12.720  14.196   2.440
18259SOL    HW256675  12.582  14.154   2.395
18260SOL     OW56676   1.200   9.599  10.102
18260SOL    HW156677   1.250   9.517  10.094
18260SOL    HW256678   1.138   9.596  10.029
18261SOL     OW56679   4.593   8.897  10.968
18261SOL    HW156680   4.612   8.944  11.049
18261SOL    HW256681   4.531   8.954  10.922
18262SOL     OW56682   8.084  13.877   7.635
18262SOL    HW156683   8.120  13.945   7.578
18262SOL    HW256684   8.161  13.838   7.676
18263SOL     OW56685   2.534   3.929   9.532
18263SOL    HW156686   2.599   3.994   9.557
18263SOL    HW256687   2.452   3.978   9.527
18264SOL     OW56688   4.763  12.015   7.703
18264SOL    HW156689   4.702  12.083   7.674
18264SOL    HW256690   4.841  12.062   7.731
18265SOL     OW56691  13.169   3.659  12.210
18265SOL    HW156692  13.199   3.738  12.255
18265SOL    HW256693  13.204   3.587  12.262
18266SOL     OW56694  11.603  12.018   3.392
18266SOL    HW156695  11.676  11.997   3.333
18266SOL    HW256696  11.625  12.104   3.428
18267SOL     OW56697  12.919   6.029  13.623
18267SOL    HW156698  12.960   6.017  13.708
18267SOL    HW256699  12.913   5.941  13.586
18268SOL     OW56700   6.482   9.560  13.438
18268SOL    HW156701   6.441   9.621  13.500
18268SOL    HW256702   6.422   9.485  13.436
18269SOL     OW56703   3.580  10.711   7.402
18269SOL    HW156704   3.593  10.641   7.337
18269SOL    HW256705   3.661  10.762   7.399
18270SOL     OW56706  14.795  13.662  13.026
18270SOL    HW156707  14.723  13.640  12.967
18270SOL    HW256708  14.817  13.580  13.069
18271SOL     OW56709  13.913   6.822  11.136
18271SOL    HW156710  13.833   6.837  11.186
18271SOL    HW256711  13.974   6.889  11.167
18272SOL     OW56712  11.886  10.074  14.541
18272SOL    HW156713  11.951  10.117  14.485
18272SOL    HW256714  11.805  10.125  14.527
18273SOL     OW56715  12.015   2.926   7.821
18273SOL    HW156716  12.086   2.913   7.759
18273SOL    HW256717  12.042   2.879   7.900
18274SOL     OW56718  14.230  14.454   9.100
18274SOL    HW156719  14.190  14.369   9.082
18274SOL    HW256720  14.323  14.442   9.081
18275SOL     OW56721   6.548   1.363   8.103
18275SOL    HW156722   6.549   1.267   8.105
18275SOL    HW256723   6.482   1.385   8.037
18276SOL     OW56724  10.766   8.143   7.406
18276SOL    HW156725  10.746   8.130   7.313
18276SOL    HW256726  10.838   8.205   7.407
18277SOL     OW56727  13.170  12.270   0.086
18277SOL    HW156728  13.100  12.217   0.049
18277SOL    HW256729  13.202  12.220   0.160
18278SOL     OW56730   3.835   1.893   3.343
18278SOL    HW156731   3.764   1.842   3.303
18278SOL    HW256732   3.914   1.843   3.323
18279SOL     OW56733   8.159   1.222   1.198
18279SOL    HW156734   8.126   1.304   1.159
18279SOL    HW256735   8.208   1.251   1.275
18280SOL     OW56736  13.579   7.592   3.567
18280SOL    HW156737  13.613   7.593   3.657
18280SOL    HW256738  13.612   7.673   3.529
18281SOL     OW56739   9.733   7.568   0.274
18281SOL    HW156740   9.827   7.565   0.292
18281SOL    HW256741   9.726   7.607   0.187
18282SOL     OW56742  10.949   0.771   8.326
18282SOL    HW156743  10.920   0.775   8.417
18282SOL    HW256744  10.947   0.862   8.296
18283SOL     OW56745  11.358   6.467   2.626
18283SOL    HW156746  11.320   6.522   2.558
18283SOL    HW256747  11.283   6.428   2.671
18284SOL     OW56748  13.773   9.398   8.578
18284SOL    HW156749  13.691   9.382   8.533
18284SOL    HW256750  13.750   9.456   8.651
18285SOL     OW56751  14.408   8.386  12.380
18285SOL    HW156752  14.454   8.467  12.358
18285SOL    HW256753  14.461   8.346  12.449
18286SOL     OW56754   4.615   3.206   1.633
18286SOL    HW156755   4.552   3.248   1.575
18286SOL    HW256756   4.656   3.138   1.580
18287SOL     OW56757  11.223   6.469   8.628
18287SOL    HW156758  11.271   6.513   8.699
18287SOL    HW256759  11.175   6.399   8.671
18288SOL     OW56760   0.306   2.140  11.854
18288SOL    HW156761   0.233   2.163  11.912
18288SOL    HW256762   0.384   2.154  11.907
18289SOL     OW56763  12.418  12.332  12.096
18289SOL    HW156764  12.427  12.386  12.174
18289SOL    HW256765  12.471  12.376  12.030
18290SOL     OW56766   5.821   3.553   1.900
18290SOL    HW156767   5.755   3.602   1.851
18290SOL    HW256768   5.876   3.620   1.939
18291SOL     OW56769   1.401  12.467   2.180
18291SOL    HW156770   1.482  12.429   2.214
18291SOL    HW256771   1.403  12.448   2.086
18292SOL     OW56772   0.615   7.870   6.899
18292SOL    HW156773   0.579   7.952   6.933
18292SOL    HW256774   0.563   7.852   6.821
18293SOL     OW56775  12.368   7.402   5.473
18293SOL    HW156776  12.351   7.464   5.545
18293SOL    HW256777  12.333   7.319   5.504
18294SOL     OW56778   5.219  12.297  14.122
18294SOL    HW156779   5.250  12.208  14.109
18294SOL    HW256780   5.296  12.352  14.108
18295SOL     OW56781   0.136   1.826   8.199
18295SOL    HW156782   0.121   1.759   8.133
18295SOL    HW256783   0.051   1.840   8.240
18296SOL     OW56784   8.009  13.647  10.272
18296SOL    HW156785   7.984  13.688  10.188
18296SOL    HW256786   7.989  13.714  10.338
18297SOL     OW56787  14.378  10.005   5.468
18297SOL    HW156788  14.287   9.976   5.464
18297SOL    HW256789  14.404  10.016   5.376
18298SOL     OW56790   0.645   8.126   2.756
18298SOL    HW156791   0.601   8.202   2.718
18298SOL    HW256792   0.710   8.100   2.691
18299SOL     OW56793   5.814   4.243   7.789
18299SOL    HW156794   5.753   4.316   7.789
18299SOL    HW256795   5.758   4.165   7.781
18300SOL     OW56796   7.649   3.109   8.541
18300SOL    HW156797   7.559   3.079   8.536
18300SOL    HW256798   7.697   3.054   8.479
18301SOL     OW56799   5.855   3.603  12.834
18301SOL    HW156800   5.831   3.521  12.790
18301SOL    HW256801   5.871   3.577  12.925
18302SOL     OW56802   0.547   0.045   6.646
18302SOL    HW156803   0.556   0.134   6.613
18302SOL    HW256804   0.635   0.023   6.678
18303SOL     OW56805   0.242   5.151   0.915
18303SOL    HW156806   0.199   5.072   0.882
18303SOL    HW256807   0.177   5.220   0.905
18304SOL     OW56808   9.275  13.622  11.834
18304SOL    HW156809   9.194  13.629  11.784
18304SOL    HW256810   9.323  13.702  11.812
18305SOL     OW56811   1.588   3.849   9.441
18305SOL    HW156812   1.554   3.891   9.362
18305SOL    HW256813   1.627   3.921   9.491
18306SOL     OW56814  13.370   9.854   5.999
18306SOL    HW156815  13.374   9.947   5.977
18306SOL    HW256816  13.281   9.827   5.978
18307SOL     OW56817   4.147   7.434   5.569
18307SOL    HW156818   4.237   7.424   5.601
18307SOL    HW256819   4.138   7.528   5.553
18308SOL     OW56820   2.930   6.946   4.964
18308SOL    HW156821   3.005   6.974   4.911
18308SOL    HW256822   2.969   6.890   5.032
18309SOL     OW56823  14.437   6.365  10.892
18309SOL    HW156824  14.507   6.410  10.845
18309SOL    HW256825  14.479   6.288  10.932
18310SOL     OW56826   3.281  14.626  12.507
18310SOL    HW156827   3.312  14.709  12.470
18310SOL    HW256828   3.361  14.580  12.533
18311SOL     OW56829   1.450  12.606  13.521
18311SOL    HW156830   1.430  12.515  13.541
18311SOL    HW256831   1.495  12.603  13.437
18312SOL     OW56832   5.317  13.275   1.051
18312SOL    HW156833   5.309  13.181   1.063
18312SOL    HW256834   5.239  13.300   1.001
18313SOL     OW56835   5.721   0.357   5.934
18313SOL    HW156836   5.794   0.367   5.874
18313SOL    HW256837   5.739   0.419   6.005
18314SOL     OW56838   3.322   2.964   1.961
18314SOL    HW156839   3.277   3.039   1.999
18314SOL    HW256840   3.399   2.951   2.018
18315SOL     OW56841   1.098   2.838   2.545
18315SOL    HW156842   1.055   2.763   2.505
18315SOL    HW256843   1.096   2.906   2.477
18316SOL     OW56844  14.662  11.294  14.758
18316SOL    HW156845  14.714  11.218  14.734
18316SOL    HW256846  14.581  11.258  14.795
18317SOL     OW56847   6.791  14.572   5.988
18317SOL    HW156848   6.785  14.667   5.981
18317SOL    HW256849   6.853  14.557   6.059
18318SOL     OW56850   1.578   3.880  11.681
18318SOL    HW156851   1.545   3.962  11.644
18318SOL    HW256852   1.550   3.812  11.620
18319SOL     OW56853  10.399   2.431   0.674
18319SOL    HW156854  10.355   2.512   0.647
18319SOL    HW256855  10.484   2.460   0.708
18320SOL     OW56856   8.733   8.124   6.749
18320SOL    HW156857   8.652   8.072   6.742
18320SOL    HW256858   8.728   8.164   6.836
18321SOL     OW56859   0.590  12.942   0.578
18321SOL    HW156860   0.578  12.947   0.673
18321SOL    HW256861   0.506  12.970   0.542
18322SOL     OW56862  11.771  11.694   1.325
18322SOL    HW156863  11.750  11.672   1.416
18322SOL    HW256864  11.831  11.768   1.332
18323SOL     OW56865  12.592   6.997   4.220
18323SOL    HW156866  12.511   7.044   4.238
18323SOL    HW256867  12.607   6.944   4.298
18324SOL     OW56868  12.137  13.749  10.897
18324SOL    HW156869  12.043  13.756  10.880
18324SOL    HW256870  12.177  13.814  10.840
18325SOL     OW56871  11.748   0.536   3.099
18325SOL    HW156872  11.746   0.579   3.013
18325SOL    HW256873  11.801   0.458   3.085
18326SOL     OW56874   8.582   1.610   4.837
18326SOL    HW156875   8.566   1.539   4.774
18326SOL    HW256876   8.651   1.577   4.893
18327SOL     OW56877   2.705   0.316  13.722
18327SOL    HW156878   2.630   0.363  13.760
18327SOL    HW256879   2.782   0.365  13.751
18328SOL     OW56880   2.263  14.755  10.956
18328SOL    HW156881   2.310  14.781  10.877
18328SOL    HW256882   2.206  14.829  10.977
18329SOL     OW56883   5.304   4.127   4.256
18329SOL    HW156884   5.346   4.081   4.183
18329SOL    HW256885   5.368   4.193   4.283
18330SOL     OW56886   5.150   9.405   9.005
18330SOL    HW156887   5.133   9.315   9.032
18330SOL    HW256888   5.162   9.401   8.910
18331SOL     OW56889   6.367  10.170   0.307
18331SOL    HW156890   6.381  10.178   0.212
18331SOL    HW256891   6.398  10.082   0.328
18332SOL     OW56892   9.846   4.038   5.758
18332SOL    HW156893   9.800   4.073   5.834
18332SOL    HW256894   9.860   4.114   5.701
18333SOL     OW56895   0.080  14.770   2.312
18333SOL    HW156896   0.127  14.812   2.384
18333SOL    HW256897   0.118  14.809   2.233
18334SOL     OW56898  11.425  14.839   7.069
18334SOL    HW156899  11.455  14.799   6.987
18334SOL    HW256900  11.494  14.819   7.132
18335SOL     OW56901   4.446  11.409   2.546
18335SOL    HW156902   4.541  11.400   2.551
18335SOL    HW256903   4.417  11.331   2.499
18336SOL     OW56904   6.341  13.064  10.782
18336SOL    HW156905   6.422  13.013  10.787
18336SOL    HW256906   6.323  13.071  10.688
18337SOL     OW56907  11.776  14.315  10.169
18337SOL    HW156908  11.840  14.297  10.237
18337SOL    HW256909  11.692  14.292  10.208
18338SOL     OW56910   0.487   3.120  10.010
18338SOL    HW156911   0.551   3.173  10.058
18338SOL    HW256912   0.469   3.046  10.067
18339SOL     OW56913   2.560   5.205  10.442
18339SOL    HW156914   2.595   5.284  10.401
18339SOL    HW256915   2.466   5.222  10.450
18340SOL     OW56916  10.241   7.247  11.587
18340SOL    HW156917  10.153   7.212  11.582
18340SOL    HW256918  10.242   7.321  11.527
18341SOL     OW56919   0.554  13.505  12.084
18341SOL    HW156920   0.506  13.580  12.047
18341SOL    HW256921   0.602  13.469  12.010
18342SOL     OW56922  13.218   3.607  11.066
18342SOL    HW156923  13.262   3.618  11.150
18342SOL    HW256924  13.288   3.609  11.001
18343SOL     OW56925   9.532   4.443   7.685
18343SOL    HW156926   9.463   4.503   7.716
18343SOL    HW256927   9.488   4.388   7.621
18344SOL     OW56928   7.216   6.036   8.848
18344SOL    HW156929   7.198   6.000   8.935
18344SOL    HW256930   7.155   6.110   8.840
18345SOL     OW56931   9.218   7.346   4.809
18345SOL    HW156932   9.224   7.409   4.738
18345SOL    HW256933   9.295   7.364   4.864
18346SOL     OW56934   0.747  13.193   3.379
18346SOL    HW156935   0.815  13.128   3.362
18346SOL    HW256936   0.667  13.141   3.388
18347SOL     OW56937  12.311  11.688   0.011
18347SOL    HW156938  12.310  11.725  14.804
18347SOL    HW256939  12.387  11.728   0.052
18348SOL     OW56940  14.547   2.017   3.992
18348SOL    HW156941  14.499   2.085   3.946
18348SOL    HW256942  14.549   1.943   3.931
18349SOL     OW56943   9.911  12.045  12.428
18349SOL    HW156944  10.007  12.038  12.426
18349SOL    HW256945   9.891  12.054  12.521
18350SOL     OW56946   4.679  13.433   1.714
18350SOL    HW156947   4.754  13.450   1.657
18350SOL    HW256948   4.603  13.447   1.658
18351SOL     OW56949  11.766   8.934  12.982
18351SOL    HW156950  11.747   8.933  12.888
18351SOL    HW256951  11.681   8.952  13.023
18352SOL     OW56952   6.870  10.949  12.074
18352SOL    HW156953   6.926  10.976  12.001
18352SOL    HW256954   6.899  10.860  12.095
18353SOL     OW56955   5.121   0.280   4.842
18353SOL    HW156956   5.058   0.252   4.908
18353SOL    HW256957   5.190   0.324   4.893
18354SOL     OW56958   9.095   1.732   9.914
18354SOL    HW156959   9.168   1.719   9.975
18354SOL    HW256960   9.028   1.670   9.942
18355SOL     OW56961  13.178  14.045   1.936
18355SOL    HW156962  13.185  14.122   1.992
18355SOL    HW256963  13.210  13.973   1.990
18356SOL     OW56964   2.485   8.843   7.289
18356SOL    HW156965   2.557   8.906   7.282
18356SOL    HW256966   2.436   8.870   7.366
18357SOL     OW56967   6.157  13.180   6.632
18357SOL    HW156968   6.072  13.135   6.637
18357SOL    HW256969   6.208  13.127   6.570
18358SOL     OW56970   8.951   4.748  10.420
18358SOL    HW156971   8.975   4.837  10.394
18358SOL    HW256972   9.012   4.727  10.491
18359SOL     OW56973   2.843  12.319   2.182
18359SOL    HW156974   2.938  12.305   2.175
18359SOL    HW256975   2.830  12.408   2.150
18360SOL     OW56976   1.873  10.029   2.576
18360SOL    HW156977   1.875  10.114   2.532
18360SOL    HW256978   1.823  10.045   2.657
18361SOL     OW56979  14.257   9.639   1.409
18361SOL    HW156980  14.286   9.573   1.472
18361SOL    HW256981  14.162   9.644   1.422
18362SOL     OW56982   7.965   8.866   8.196
18362SOL    HW156983   8.032   8.829   8.138
18362SOL    HW256984   8.011   8.932   8.248
18363SOL     OW56985   8.099   3.324   5.338
18363SOL    HW156986   8.121   3.417   5.333
18363SOL    HW256987   8.068   3.311   5.428
18364SOL     OW56988   5.448   7.584   7.736
18364SOL    HW156989   5.436   7.565   7.643
18364SOL    HW256990   5.528   7.638   7.739
18365SOL     OW56991  11.325   6.756   9.239
18365SOL    HW156992  11.240   6.801   9.244
18365SOL    HW256993  11.310   6.684   9.177
18366SOL     OW56994   5.133   4.137   9.125
18366SOL    HW156995   5.178   4.218   9.149
18366SOL    HW256996   5.090   4.158   9.042
18367SOL     OW56997  13.253  11.414   4.681
18367SOL    HW156998  13.266  11.508   4.684
18367SOL    HW256999  13.215  11.392   4.766
18368SOL     OW57000  14.154   7.838   0.855
18368SOL    HW157001  14.114   7.915   0.896
18368SOL    HW257002  14.134   7.766   0.914
18369SOL     OW57003   8.627   3.861  13.641
18369SOL    HW157004   8.663   3.779  13.675
18369SOL    HW257005   8.564   3.889  13.707
18370SOL     OW57006   2.747   4.679   0.929
18370SOL    HW157007   2.731   4.647   0.841
18370SOL    HW257008   2.829   4.728   0.922
18371SOL     OW57009  13.470   5.357   0.969
18371SOL    HW157010  13.527   5.335   1.042
18371SOL    HW257011  13.381   5.356   1.006
18372SOL     OW57012  12.399  12.662   1.873
18372SOL    HW157013  12.349  12.716   1.812
18372SOL    HW257014  12.433  12.591   1.820
18373SOL     OW57015   6.514   4.408   9.637
18373SOL    HW157016   6.522   4.433   9.545
18373SOL    HW257017   6.431   4.446   9.666
18374SOL     OW57018  14.667   2.798   0.758
18374SOL    HW157019  14.634   2.887   0.746
18374SOL    HW257020  14.594   2.750   0.798
18375SOL     OW57021  13.404   7.319  14.115
18375SOL    HW157022  13.470   7.289  14.053
18375SOL    HW257023  13.382   7.407  14.085
18376SOL     OW57024   3.948  10.014  13.426
18376SOL    HW157025   3.961   9.920  13.436
18376SOL    HW257026   4.036  10.049  13.409
18377SOL     OW57027   4.154   3.929  10.439
18377SOL    HW157028   4.129   3.969  10.356
18377SOL    HW257029   4.081   3.949  10.498
18378SOL     OW57030   6.297   6.887   2.343
18378SOL    HW157031   6.243   6.956   2.305
18378SOL    HW257032   6.336   6.926   2.421
18379SOL     OW57033   9.305  14.559  10.256
18379SOL    HW157034   9.343  14.472  10.249
18379SOL    HW257035   9.257  14.571  10.174
18380SOL     OW57036   9.525   9.488   5.166
18380SOL    HW157037   9.463   9.520   5.101
18380SOL    HW257038   9.516   9.549   5.240
18381SOL     OW57039  12.564   5.803   6.005
18381SOL    HW157040  12.593   5.745   6.075
18381SOL    HW257041  12.549   5.887   6.048
18382SOL     OW57042  14.084  12.461  11.747
18382SOL    HW157043  14.073  12.406  11.824
18382SOL    HW257044  14.152  12.418  11.696
18383SOL     OW57045   2.829  11.821   8.215
18383SOL    HW157046   2.869  11.887   8.271
18383SOL    HW257047   2.751  11.864   8.179
18384SOL     OW57048   2.608   1.504   0.840
18384SOL    HW157049   2.571   1.421   0.869
18384SOL    HW257050   2.533   1.561   0.826
18385SOL     OW57051  14.720   9.404  12.320
18385SOL    HW157052  14.711   9.476  12.383
18385SOL    HW257053  14.671   9.432  12.243
18386SOL     OW57054  12.849   2.907  11.411
18386SOL    HW157055  12.928   2.956  11.429
18386SOL    HW257056  12.833   2.921  11.317
18387SOL     OW57057  12.850   1.526  10.204
18387SOL    HW157058  12.871   1.582  10.279
18387SOL    HW257059  12.821   1.586  10.136
18388SOL     OW57060   1.428   2.109   9.529
18388SOL    HW157061   1.426   2.022   9.489
18388SOL    HW257062   1.516   2.141   9.512
18389SOL     OW57063   2.353   2.134  14.125
18389SOL    HW157064   2.375   2.218  14.083
18389SOL    HW257065   2.364   2.070  14.055
18390SOL     OW57066   5.407  10.277   8.916
18390SOL    HW157067   5.349  10.209   8.950
18390SOL    HW257068   5.457  10.306   8.993
18391SOL     OW57069  13.193   4.224  11.430
18391SOL    HW157070  13.109   4.268  11.419
18391SOL    HW257071  13.182   4.140  11.387
18392SOL     OW57072   9.842   4.565  13.261
18392SOL    HW157073   9.932   4.585  13.286
18392SOL    HW257074   9.806   4.518  13.336
18393SOL     OW57075  11.413   5.123   9.859
18393SOL    HW157076  11.505   5.144   9.872
18393SOL    HW257077  11.389   5.168   9.778
18394SOL     OW57078   2.287  13.621  10.533
18394SOL    HW157079   2.270  13.611  10.440
18394SOL    HW257080   2.303  13.533  10.565
18395SOL     OW57081   5.373  13.374   6.899
18395SOL    HW157082   5.374  13.330   6.984
18395SOL    HW257083   5.281  13.374   6.873
18396SOL     OW57084  10.507  10.114   7.880
18396SOL    HW157085  10.459  10.162   7.947
18396SOL    HW257086  10.509  10.173   7.805
18397SOL     OW57087   7.694  10.809  11.930
18397SOL    HW157088   7.680  10.715  11.938
18397SOL    HW257089   7.763  10.828  11.994
18398SOL     OW57090   5.276   2.809   9.847
18398SOL    HW157091   5.185   2.791   9.868
18398SOL    HW257092   5.325   2.785   9.925
18399SOL     OW57093   4.705   8.934   0.061
18399SOL    HW157094   4.631   8.900   0.111
18399SOL    HW257095   4.760   8.858   0.044
18400SOL     OW57096   7.307   0.126   5.118
18400SOL    HW157097   7.369   0.177   5.065
18400SOL    HW257098   7.254   0.079   5.054
18401SOL     OW57099   0.399   5.679   8.148
18401SOL    HW157100   0.315   5.647   8.115
18401SOL    HW257101   0.464   5.628   8.099
18402SOL     OW57102  12.893  12.673   0.307
18402SOL    HW157103  12.972  12.620   0.304
18402SOL    HW257104  12.841  12.634   0.378
18403SOL     OW57105   0.768   2.921   8.202
18403SOL    HW157106   0.862   2.936   8.212
18403SOL    HW257107   0.738   2.988   8.142
18404SOL     OW57108   5.832   8.998   7.911
18404SOL    HW157109   5.806   9.058   7.841
18404SOL    HW257110   5.784   8.917   7.893
18405SOL     OW57111  10.693   0.819   3.079
18405SOL    HW157112  10.714   0.906   3.114
18405SOL    HW257113  10.752   0.760   3.125
18406SOL     OW57114   0.609   6.854   0.305
18406SOL    HW157115   0.614   6.765   0.340
18406SOL    HW257116   0.696   6.891   0.320
18407SOL     OW57117  10.883  12.439  12.689
18407SOL    HW157118  10.884  12.465  12.597
18407SOL    HW257119  10.954  12.375  12.697
18408SOL     OW57120   2.490   6.539  11.657
18408SOL    HW157121   2.562   6.571  11.603
18408SOL    HW257122   2.503   6.581  11.742
18409SOL     OW57123  12.668  13.877  13.133
18409SOL    HW157124  12.622  13.856  13.052
18409SOL    HW257125  12.599  13.881  13.199
18410SOL     OW57126   8.336   2.755  14.675
18410SOL    HW157127   8.289   2.808  14.739
18410SOL    HW257128   8.349   2.671  14.718
18411SOL     OW57129   6.423   3.046  11.084
18411SOL    HW157130   6.470   3.019  11.005
18411SOL    HW257131   6.415   2.967  11.137
18412SOL     OW57132  12.274   5.961  10.618
18412SOL    HW157133  12.325   5.881  10.604
18412SOL    HW257134  12.249   5.959  10.710
18413SOL     OW57135   8.649   7.619  13.195
18413SOL    HW157136   8.620   7.697  13.148
18413SOL    HW257137   8.720   7.650  13.251
18414SOL     OW57138   0.169   6.303  11.859
18414SOL    HW157139   0.205   6.214  11.864
18414SOL    HW257140   0.074   6.289  11.860
18415SOL     OW57141   3.657   4.828  11.504
18415SOL    HW157142   3.586   4.769  11.478
18415SOL    HW257143   3.644   4.906  11.450
18416SOL     OW57144   0.720   4.631  12.505
18416SOL    HW157145   0.645   4.611  12.561
18416SOL    HW257146   0.755   4.713  12.539
18417SOL     OW57147   0.309  12.878  14.705
18417SOL    HW157148   0.248  12.952  14.700
18417SOL    HW257149   0.265  12.808  14.657
18418SOL     OW57150   4.518   1.610  13.377
18418SOL    HW157151   4.561   1.537  13.332
18418SOL    HW257152   4.474   1.569  13.451
18419SOL     OW57153   2.855   9.457   9.978
18419SOL    HW157154   2.822   9.485  10.063
18419SOL    HW257155   2.780   9.468   9.919
18420SOL     OW57156   1.310   6.938   0.530
18420SOL    HW157157   1.253   6.885   0.586
18420SOL    HW257158   1.331   7.014   0.584
18421SOL     OW57159   5.206   7.120   1.171
18421SOL    HW157160   5.175   7.210   1.156
18421SOL    HW257161   5.146   7.065   1.122
18422SOL     OW57162  10.831   5.596  12.891
18422SOL    HW157163  10.819   5.552  12.975
18422SOL    HW257164  10.780   5.544  12.829
18423SOL     OW57165   2.922   6.242   7.320
18423SOL    HW157166   2.967   6.246   7.405
18423SOL    HW257167   2.986   6.276   7.258
18424SOL     OW57168   3.230   8.785   4.492
18424SOL    HW157169   3.215   8.855   4.555
18424SOL    HW257170   3.152   8.730   4.497
18425SOL     OW57171  10.117   2.775   2.233
18425SOL    HW157172  10.179   2.702   2.229
18425SOL    HW257173  10.147   2.837   2.166
18426SOL     OW57174  12.325   0.190   7.737
18426SOL    HW157175  12.333   0.113   7.681
18426SOL    HW257176  12.266   0.249   7.689
18427SOL     OW57177   9.198   2.584   5.630
18427SOL    HW157178   9.239   2.595   5.544
18427SOL    HW257179   9.251   2.518   5.674
18428SOL     OW57180  10.096  12.488   7.299
18428SOL    HW157181  10.098  12.578   7.331
18428SOL    HW257182  10.030  12.444   7.353
18429SOL     OW57183   0.475   4.672   3.313
18429SOL    HW157184   0.443   4.738   3.251
18429SOL    HW257185   0.553   4.712   3.351
18430SOL     OW57186   2.115  14.273  10.625
18430SOL    HW157187   2.158  14.345  10.670
18430SOL    HW257188   2.150  14.277  10.536
18431SOL     OW57189   9.686   1.302   5.282
18431SOL    HW157190   9.618   1.364   5.259
18431SOL    HW257191   9.660   1.269   5.369
18432SOL     OW57192   0.376   8.376   3.268
18432SOL    HW157193   0.394   8.307   3.333
18432SOL    HW257194   0.455   8.379   3.214
18433SOL     OW57195   8.723  13.256   6.494
18433SOL    HW157196   8.781  13.185   6.468
18433SOL    HW257197   8.769  13.335   6.468
18434SOL     OW57198  11.961   0.923  10.023
18434SOL    HW157199  11.978   0.911  10.116
18434SOL    HW257200  12.043   0.896   9.980
18435SOL     OW57201   8.707   4.807   6.979
18435SOL    HW157202   8.711   4.714   6.956
18435SOL    HW257203   8.679   4.851   6.899
18436SOL     OW57204   3.872   0.677   4.413
18436SOL    HW157205   3.802   0.741   4.403
18436SOL    HW257206   3.827   0.593   4.424
18437SOL     OW57207   7.285   8.365   3.989
18437SOL    HW157208   7.208   8.354   4.045
18437SOL    HW257209   7.360   8.354   4.047
18438SOL     OW57210   3.973  12.637   0.576
18438SOL    HW157211   3.982  12.624   0.481
18438SOL    HW257212   4.056  12.676   0.602
18439SOL     OW57213   9.556   2.052  12.879
18439SOL    HW157214   9.595   1.965  12.873
18439SOL    HW257215   9.483   2.042  12.941
18440SOL     OW57216  13.408  14.086  12.926
18440SOL    HW157217  13.478  14.129  12.875
18440SOL    HW257218  13.415  13.994  12.902
18441SOL     OW57219  14.785   2.990   0.524
18441SOL    HW157220  14.718   3.002   0.592
18441SOL    HW257221  14.787   2.895   0.509
18442SOL     OW57222  11.362  13.886  11.989
18442SOL    HW157223  11.419  13.819  12.029
18442SOL    HW257224  11.323  13.841  11.913
18443SOL     OW57225   5.973  14.574   4.083
18443SOL    HW157226   5.941  14.487   4.104
18443SOL    HW257227   6.051  14.585   4.137
18444SOL     OW57228  14.671   5.055   4.434
18444SOL    HW157229  14.751   5.097   4.404
18444SOL    HW257230  14.683   4.962   4.411
18445SOL     OW57231   8.824  10.628  10.213
18445SOL    HW157232   8.909  10.586  10.201
18445SOL    HW257233   8.798  10.604  10.302
18446SOL     OW57234  12.308   3.205   1.943
18446SOL    HW157235  12.238   3.200   2.008
18446SOL    HW257236  12.286   3.137   1.879
18447SOL     OW57237   1.375  13.875   7.011
18447SOL    HW157238   1.282  13.897   7.017
18447SOL    HW257239   1.420  13.956   7.036
18448SOL     OW57240   2.481   2.091   2.179
18448SOL    HW157241   2.566   2.069   2.141
18448SOL    HW257242   2.421   2.095   2.105
18449SOL     OW57243   9.853  13.635   6.113
18449SOL    HW157244   9.796  13.667   6.182
18449SOL    HW257245   9.808  13.657   6.032
18450SOL     OW57246  12.576   2.442   5.720
18450SOL    HW157247  12.645   2.503   5.693
18450SOL    HW257248  12.531   2.487   5.791
18451SOL     OW57249  13.636   4.960   6.411
18451SOL    HW157250  13.616   4.907   6.334
18451SOL    HW257251  13.682   4.899   6.470
18452SOL     OW57252   8.195  14.148  10.656
18452SOL    HW157253   8.243  14.081  10.607
18452SOL    HW257254   8.203  14.121  10.748
18453SOL     OW57255   5.827   5.673   6.558
18453SOL    HW157256   5.921   5.676   6.572
18453SOL    HW257257   5.791   5.737   6.619
18454SOL     OW57258   2.915  11.946  14.306
18454SOL    HW157259   2.911  11.850  14.311
18454SOL    HW257260   2.824  11.974  14.300
18455SOL     OW57261  14.186  10.852  10.727
18455SOL    HW157262  14.123  10.787  10.696
18455SOL    HW257263  14.240  10.804  10.790
18456SOL     OW57264   1.457   6.161   7.964
18456SOL    HW157265   1.543   6.199   7.984
18456SOL    HW257266   1.451   6.164   7.869
18457SOL     OW57267   2.164  13.467   1.640
18457SOL    HW157268   2.165  13.512   1.724
18457SOL    HW257269   2.222  13.392   1.653
18458SOL     OW57270  14.029  12.707  10.552
18458SOL    HW157271  14.098  12.669  10.497
18458SOL    HW257272  13.949  12.692  10.502
18459SOL     OW57273   8.898   5.473  14.512
18459SOL    HW157274   8.814   5.428  14.523
18459SOL    HW257275   8.874   5.557  14.473
18460SOL     OW57276   4.425  13.062  10.753
18460SOL    HW157277   4.410  12.979  10.799
18460SOL    HW257278   4.431  13.037  10.661
18461SOL     OW57279  11.547   4.967  12.126
18461SOL    HW157280  11.633   5.005  12.109
18461SOL    HW257281  11.520   5.004  12.210
18462SOL     OW57282   3.367   6.136   3.991
18462SOL    HW157283   3.413   6.214   4.024
18462SOL    HW257284   3.436   6.082   3.953
18463SOL     OW57285   4.155   6.068   4.585
18463SOL    HW157286   4.120   5.980   4.573
18463SOL    HW257287   4.174   6.099   4.496
18464SOL     OW57288   9.193  13.540   8.341
18464SOL    HW157289   9.212  13.486   8.418
18464SOL    HW257290   9.279  13.565   8.307
18465SOL     OW57291  12.195   4.443  14.048
18465SOL    HW157292  12.134   4.420  13.978
18465SOL    HW257293  12.227   4.530  14.025
18466SOL     OW57294   1.162  11.980  12.512
18466SOL    HW157295   1.079  12.026  12.526
18466SOL    HW257296   1.223  12.048  12.484
18467SOL     OW57297   7.587   0.590   8.266
18467SOL    HW157298   7.523   0.613   8.198
18467SOL    HW257299   7.638   0.670   8.278
18468SOL     OW57300  12.361  10.488   6.093
18468SOL    HW157301  12.373  10.475   5.999
18468SOL    HW257302  12.440  10.451   6.133
18469SOL     OW57303  14.247  10.528   4.080
18469SOL    HW157304  14.168  10.503   4.032
18469SOL    HW257305  14.299  10.577   4.016
18470SOL     OW57306   3.675  10.324  10.739
18470SOL    HW157307   3.642  10.247  10.692
18470SOL    HW257308   3.697  10.291  10.826
18471SOL     OW57309   8.714   6.098   1.757
18471SOL    HW157310   8.742   6.007   1.748
18471SOL    HW257311   8.744   6.140   1.676
18472SOL     OW57312   5.262   5.629   9.890
18472SOL    HW157313   5.278   5.581   9.809
18472SOL    HW257314   5.180   5.676   9.874
18473SOL     OW57315   5.463   9.378   5.446
18473SOL    HW157316   5.512   9.419   5.374
18473SOL    HW257317   5.477   9.284   5.433
18474SOL     OW57318   1.111   6.042   1.762
18474SOL    HW157319   1.164   5.964   1.746
18474SOL    HW257320   1.148   6.109   1.704
18475SOL     OW57321  10.759  13.991   6.956
18475SOL    HW157322  10.821  13.992   7.029
18475SOL    HW257323  10.682  13.946   6.990
18476SOL     OW57324   4.900   0.955  13.995
18476SOL    HW157325   4.945   0.872  14.011
18476SOL    HW257326   4.914   0.972  13.902
18477SOL     OW57327   9.831   7.530  10.761
18477SOL    HW157328   9.748   7.540  10.807
18477SOL    HW257329   9.897   7.533  10.831
18478SOL     OW57330   7.989   1.779  10.434
18478SOL    HW157331   7.973   1.685  10.433
18478SOL    HW257332   8.062   1.792  10.374
18479SOL     OW57333  11.257  13.534  14.300
18479SOL    HW157334  11.352  13.530  14.311
18479SOL    HW257335  11.243  13.537  14.205
18480SOL     OW57336   4.086  12.267  11.055
18480SOL    HW157337   4.073  12.216  10.975
18480SOL    HW257338   4.005  12.318  11.064
18481SOL     OW57339   7.668  13.120   7.193
18481SOL    HW157340   7.706  13.196   7.238
18481SOL    HW257341   7.700  13.128   7.103
18482SOL     OW57342   3.274  14.090   4.122
18482SOL    HW157343   3.339  14.116   4.056
18482SOL    HW257344   3.320  14.024   4.175
18483SOL     OW57345   7.492  12.728  11.719
18483SOL    HW157346   7.581  12.694  11.704
18483SOL    HW257347   7.453  12.665  11.779
18484SOL     OW57348   1.962  10.529   3.267
18484SOL    HW157349   1.966  10.601   3.331
18484SOL    HW257350   2.053  10.502   3.256
18485SOL     OW57351   5.156  14.689   1.287
18485SOL    HW157352   5.234  14.738   1.312
18485SOL    HW257353   5.180  14.597   1.299
18486SOL     OW57354  10.710  11.752   0.975
18486SOL    HW157355  10.670  11.676   1.019
18486SOL    HW257356  10.804  11.741   0.990
18487SOL     OW57357  11.492   9.599   7.469
18487SOL    HW157358  11.498   9.687   7.507
18487SOL    HW257359  11.402   9.591   7.440
18488SOL     OW57360   9.055   4.318   9.094
18488SOL    HW157361   9.021   4.277   9.174
18488SOL    HW257362   9.043   4.412   9.109
18489SOL     OW57363   0.469  11.219  13.734
18489SOL    HW157364   0.532  11.239  13.803
18489SOL    HW257365   0.471  11.124  13.727
18490SOL     OW57366  11.735  11.631  14.207
18490SOL    HW157367  11.818  11.610  14.164
18490SOL    HW257368  11.672  11.569  14.171
18491SOL     OW57369   8.372  12.390  11.406
18491SOL    HW157370   8.448  12.363  11.457
18491SOL    HW257371   8.409  12.422  11.323
18492SOL     OW57372   6.467  10.730  11.256
18492SOL    HW157373   6.430  10.816  11.239
18492SOL    HW257374   6.562  10.743  11.252
18493SOL     OW57375   8.426  13.524  14.403
18493SOL    HW157376   8.488  13.484  14.464
18493SOL    HW257377   8.341  13.487  14.426
18494SOL     OW57378   0.610  14.060   2.390
18494SOL    HW157379   0.630  13.994   2.456
18494SOL    HW257380   0.638  14.020   2.307
18495SOL     OW57381   4.170   0.042  13.940
18495SOL    HW157382   4.155   0.094  13.862
18495SOL    HW257383   4.192  14.837  13.908
18496SOL     OW57384   0.923   5.587   2.360
18496SOL    HW157385   0.871   5.623   2.431
18496SOL    HW257386   0.922   5.492   2.375
18497SOL     OW57387   6.331   6.065  11.651
18497SOL    HW157388   6.240   6.043  11.670
18497SOL    HW257389   6.330   6.158  11.631
18498SOL     OW57390  12.999   6.040   5.136
18498SOL    HW157391  13.052   6.055   5.215
18498SOL    HW257392  13.063   6.042   5.064
18499SOL     OW57393   2.054   6.810   1.772
18499SOL    HW157394   1.995   6.884   1.785
18499SOL    HW257395   2.068   6.774   1.859
18500SOL     OW57396   3.783   4.689   0.602
18500SOL    HW157397   3.742   4.637   0.534
18500SOL    HW257398   3.792   4.776   0.565
18501SOL     OW57399  11.266   6.480   8.362
18501SOL    HW157400  11.248   6.454   8.452
18501SOL    HW257401  11.269   6.575   8.364
18502SOL     OW57402  14.151   6.243   5.996
18502SOL    HW157403  14.174   6.287   6.078
18502SOL    HW257404  14.192   6.157   6.002
18503SOL     OW57405  11.319  12.323   7.763
18503SOL    HW157406  11.379  12.256   7.732
18503SOL    HW257407  11.241  12.275   7.790
18504SOL     OW57408   6.814  12.837  13.910
18504SOL    HW157409   6.860  12.755  13.931
18504SOL    HW257410   6.734  12.833  13.963
18505SOL     OW57411  13.666   8.951  12.609
18505SOL    HW157412  13.581   8.925  12.644
18505SOL    HW257413  13.723   8.957  12.686
18506SOL     OW57414   2.948   3.261   9.533
18506SOL    HW157415   2.961   3.246   9.440
18506SOL    HW257416   3.022   3.315   9.559
18507SOL     OW57417   0.116   3.442   2.702
18507SOL    HW157418   0.024   3.417   2.703
18507SOL    HW257419   0.126   3.501   2.777
18508SOL     OW57420   2.712   8.244  10.438
18508SOL    HW157421   2.701   8.243  10.533
18508SOL    HW257422   2.807   8.241  10.425
18509SOL     OW57423   9.440   3.621   5.605
18509SOL    HW157424   9.493   3.604   5.527
18509SOL    HW257425   9.502   3.658   5.668
18510SOL     OW57426   1.194   4.884   3.502
18510SOL    HW157427   1.227   4.864   3.589
18510SOL    HW257428   1.197   4.979   3.496
18511SOL     OW57429  12.473   8.364   0.106
18511SOL    HW157430  12.543   8.331   0.162
18511SOL    HW257431  12.508   8.356   0.017
18512SOL     OW57432   5.556  11.184   0.604
18512SOL    HW157433   5.634  11.211   0.654
18512SOL    HW257434   5.563  11.089   0.599
18513SOL     OW57435  12.288   4.411  12.390
18513SOL    HW157436  12.284   4.331  12.338
18513SOL    HW257437  12.203   4.454  12.375
18514SOL     OW57438   9.237  13.431   6.705
18514SOL    HW157439   9.271  13.474   6.783
18514SOL    HW257440   9.184  13.498   6.662
18515SOL     OW57441   1.324  14.146   8.376
18515SOL    HW157442   1.368  14.224   8.410
18515SOL    HW257443   1.332  14.081   8.447
18516SOL     OW57444   8.009   9.728   9.923
18516SOL    HW157445   8.012   9.644   9.969
18516SOL    HW257446   8.037   9.706   9.834
18517SOL     OW57447  12.131   1.470  14.400
18517SOL    HW157448  12.137   1.380  14.432
18517SOL    HW257449  12.105   1.521  14.476
18518SOL     OW57450  11.969   7.955  11.405
18518SOL    HW157451  11.932   7.909  11.329
18518SOL    HW257452  12.023   8.024  11.367
18519SOL     OW57453   2.180   4.145  13.751
18519SOL    HW157454   2.260   4.189  13.722
18519SOL    HW257455   2.190   4.055  13.719
18520SOL     OW57456   8.626   8.861   6.214
18520SOL    HW157457   8.571   8.847   6.291
18520SOL    HW257458   8.665   8.947   6.228
18521SOL     OW57459   5.972   4.769   1.350
18521SOL    HW157460   5.914   4.839   1.381
18521SOL    HW257461   5.956   4.765   1.256
18522SOL     OW57462   1.390  13.587   9.832
18522SOL    HW157463   1.472  13.635   9.845
18522SOL    HW257464   1.339  13.644   9.774
18523SOL     OW57465   4.616   3.369   1.886
18523SOL    HW157466   4.611   3.443   1.826
18523SOL    HW257467   4.626   3.293   1.829
18524SOL     OW57468   7.863  14.076   0.199
18524SOL    HW157469   7.882  14.167   0.220
18524SOL    HW257470   7.800  14.080   0.127
18525SOL     OW57471   3.987   2.102   1.508
18525SOL    HW157472   3.985   2.034   1.576
18525SOL    HW257473   4.070   2.147   1.522
18526SOL     OW57474   2.990   0.061  10.890
18526SOL    HW157475   2.976  14.881  10.819
18526SOL    HW257476   3.002   0.145  10.847
18527SOL     OW57477  11.559   6.518   0.099
18527SOL    HW157478  11.513   6.539   0.181
18527SOL    HW257479  11.492   6.477   0.044
18528SOL     OW57480   5.757   4.825   3.210
18528SOL    HW157481   5.788   4.765   3.142
18528SOL    HW257482   5.833   4.838   3.267
18529SOL     OW57483  14.707  10.084   2.594
18529SOL    HW157484  14.773  10.122   2.536
18529SOL    HW257485  14.627  10.081   2.540
18530SOL     OW57486  10.195  13.498   0.969
18530SOL    HW157487  10.251  13.421   0.970
18530SOL    HW257488  10.109  13.465   0.940
18531SOL     OW57489  11.451  11.632  11.319
18531SOL    HW157490  11.412  11.589  11.395
18531SOL    HW257491  11.430  11.725  11.331
18532SOL     OW57492   9.412  10.927  13.551
18532SOL    HW157493   9.507  10.931  13.553
18532SOL    HW257494   9.392  10.849  13.500
18533SOL     OW57495   3.600   5.234  11.194
18533SOL    HW157496   3.577   5.323  11.167
18533SOL    HW257497   3.628   5.191  11.113
18534SOL     OW57498  14.422   5.149   3.341
18534SOL    HW157499  14.394   5.119   3.255
18534SOL    HW257500  14.508   5.108   3.354
18535SOL     OW57501   9.176  12.315   3.381
18535SOL    HW157502   9.144  12.347   3.466
18535SOL    HW257503   9.205  12.394   3.335
18536SOL     OW57504  14.131   9.924   5.632
18536SOL    HW157505  14.047   9.893   5.666
18536SOL    HW257506  14.170   9.848   5.591
18537SOL     OW57507   1.681  11.539   5.262
18537SOL    HW157508   1.605  11.492   5.228
18537SOL    HW257509   1.756  11.487   5.233
18538SOL     OW57510   8.303   1.448   8.634
18538SOL    HW157511   8.355   1.529   8.635
18538SOL    HW257512   8.337   1.399   8.559
18539SOL     OW57513  11.749   6.300   8.485
18539SOL    HW157514  11.804   6.367   8.446
18539SOL    HW257515  11.677   6.289   8.422
18540SOL     OW57516   9.448  10.720   1.346
18540SOL    HW157517   9.493  10.740   1.263
18540SOL    HW257518   9.403  10.637   1.329
18541SOL     OW57519   1.100   6.302   4.315
18541SOL    HW157520   1.089   6.348   4.232
18541SOL    HW257521   1.180   6.338   4.352
18542SOL     OW57522   0.627   2.036   9.866
18542SOL    HW157523   0.665   2.091   9.797
18542SOL    HW257524   0.665   1.950   9.852
18543SOL     OW57525   5.228   1.635  13.812
18543SOL    HW157526   5.243   1.680  13.729
18543SOL    HW257527   5.149   1.676  13.848
18544SOL     OW57528   4.735   8.131   4.052
18544SOL    HW157529   4.800   8.199   4.067
18544SOL    HW257530   4.784   8.058   4.014
18545SOL     OW57531   7.126   5.111  12.415
18545SOL    HW157532   7.086   5.143  12.495
18545SOL    HW257533   7.123   5.016  12.422
18546SOL     OW57534  11.083   0.977   9.552
18546SOL    HW157535  11.024   0.902   9.556
18546SOL    HW257536  11.051   1.030   9.479
18547SOL     OW57537  11.135  11.851  14.191
18547SOL    HW157538  11.216  11.888  14.226
18547SOL    HW257539  11.164  11.776  14.138
18548SOL     OW57540   9.158   8.840   6.083
18548SOL    HW157541   9.233   8.846   6.023
18548SOL    HW257542   9.093   8.900   6.046
18549SOL     OW57543   7.979   9.905   3.747
18549SOL    HW157544   7.996   9.838   3.680
18549SOL    HW257545   8.022   9.872   3.826
18550SOL     OW57546   1.949   4.115   5.798
18550SOL    HW157547   1.927   4.163   5.877
18550SOL    HW257548   1.866   4.106   5.752
18551SOL     OW57549   0.789   8.875   9.283
18551SOL    HW157550   0.861   8.932   9.255
18551SOL    HW257551   0.720   8.936   9.310
18552SOL     OW57552   4.697   4.439   7.381
18552SOL    HW157553   4.669   4.530   7.375
18552SOL    HW257554   4.776   4.435   7.327
18553SOL     OW57555   6.308   5.858   4.064
18553SOL    HW157556   6.278   5.943   4.031
18553SOL    HW257557   6.318   5.872   4.158
18554SOL     OW57558  11.376   2.079   6.523
18554SOL    HW157559  11.370   2.026   6.444
18554SOL    HW257560  11.463   2.061   6.558
18555SOL     OW57561   6.583   6.528   5.865
18555SOL    HW157562   6.539   6.498   5.786
18555SOL    HW257563   6.641   6.455   5.889
18556SOL     OW57564   4.039  12.283   8.540
18556SOL    HW157565   3.957  12.240   8.566
18556SOL    HW257566   4.032  12.372   8.575
18557SOL     OW57567   9.601  11.227   8.604
18557SOL    HW157568   9.690  11.245   8.573
18557SOL    HW257569   9.545  11.283   8.549
18558SOL     OW57570   8.673   7.391   9.025
18558SOL    HW157571   8.643   7.379   9.116
18558SOL    HW257572   8.768   7.395   9.031
18559SOL     OW57573  13.691   5.962  12.620
18559SOL    HW157574  13.642   6.018  12.559
18559SOL    HW257575  13.730   6.024  12.682
18560SOL     OW57576   3.207   2.256   6.761
18560SOL    HW157577   3.195   2.273   6.854
18560SOL    HW257578   3.142   2.312   6.718
18561SOL     OW57579   0.517   4.086   0.817
18561SOL    HW157580   0.516   4.020   0.885
18561SOL    HW257581   0.433   4.132   0.826
18562SOL     OW57582   4.766   3.266   9.143
18562SOL    HW157583   4.719   3.183   9.132
18562SOL    HW257584   4.763   3.305   9.056
18563SOL     OW57585   1.621   1.559   2.764
18563SOL    HW157586   1.527   1.541   2.759
18563SOL    HW257587   1.659   1.507   2.693
18564SOL     OW57588   3.032   8.661   1.550
18564SOL    HW157589   2.948   8.663   1.504
18564SOL    HW257590   3.022   8.724   1.621
18565SOL     OW57591   5.164   8.546   2.262
18565SOL    HW157592   5.231   8.614   2.266
18565SOL    HW257593   5.083   8.593   2.241
18566SOL     OW57594   7.456   7.614   4.001
18566SOL    HW157595   7.475   7.674   4.073
18566SOL    HW257596   7.360   7.611   3.998
18567SOL     OW57597  13.118   6.882   0.942
18567SOL    HW157598  13.169   6.903   0.864
18567SOL    HW257599  13.156   6.936   1.011
18568SOL     OW57600   1.113   8.452   7.695
18568SOL    HW157601   1.054   8.444   7.620
18568SOL    HW257602   1.084   8.383   7.755
18569SOL     OW57603  10.977   6.411  13.359
18569SOL    HW157604  10.923   6.421  13.438
18569SOL    HW257605  11.062   6.382  13.392
18570SOL     OW57606  11.042  13.245   4.612
18570SOL    HW157607  11.040  13.220   4.705
18570SOL    HW257608  10.985  13.321   4.607
18571SOL     OW57609   9.199   3.993   5.671
18571SOL    HW157610   9.292   3.971   5.670
18571SOL    HW257611   9.188   4.049   5.748
18572SOL     OW57612  11.787   6.181   7.488
18572SOL    HW157613  11.820   6.112   7.545
18572SOL    HW257614  11.813   6.263   7.531
18573SOL     OW57615   8.724   7.526   6.704
18573SOL    HW157616   8.758   7.513   6.793
18573SOL    HW257617   8.632   7.550   6.717
18574SOL     OW57618   1.149   6.279   5.398
18574SOL    HW157619   1.089   6.335   5.446
18574SOL    HW257620   1.232   6.286   5.445
18575SOL     OW57621   6.557   7.342  11.706
18575SOL    HW157622   6.463   7.336  11.723
18575SOL    HW257623   6.582   7.256  11.673
18576SOL     OW57624   8.355   8.362   3.942
18576SOL    HW157625   8.286   8.388   4.004
18576SOL    HW257626   8.365   8.267   3.956
18577SOL     OW57627   0.030   9.692   2.535
18577SOL    HW157628  14.830   9.672   2.490
18577SOL    HW257629   0.064   9.607   2.561
18578SOL     OW57630   5.847   0.990   8.560
18578SOL    HW157631   5.791   1.059   8.596
18578SOL    HW257632   5.874   1.023   8.475
18579SOL     OW57633   9.099  11.808   6.053
18579SOL    HW157634   9.156  11.862   5.999
18579SOL    HW257635   9.131  11.821   6.142
18580SOL     OW57636   3.062   4.890   1.387
18580SOL    HW157637   3.004   4.893   1.464
18580SOL    HW257638   3.047   4.974   1.343
18581SOL     OW57639   2.010  13.970   2.694
18581SOL    HW157640   1.981  14.050   2.650
18581SOL    HW257641   2.093  13.948   2.652
18582SOL     OW57642  14.204   2.278  12.084
18582SOL    HW157643  14.140   2.238  12.142
18582SOL    HW257644  14.286   2.278  12.135
18583SOL     OW57645   7.972   4.572   5.926
18583SOL    HW157646   7.962   4.636   5.996
18583SOL    HW257647   7.979   4.625   5.846
18584SOL     OW57648  10.652  13.931   7.887
18584SOL    HW157649  10.722  13.971   7.937
18584SOL    HW257650  10.683  13.932   7.796
18585SOL     OW57651   3.793   0.642   9.963
18585SOL    HW157652   3.781   0.699   9.887
18585SOL    HW257653   3.840   0.566   9.929
18586SOL     OW57654   4.021   9.223   6.682
18586SOL    HW157655   4.067   9.307   6.682
18586SOL    HW257656   4.072   9.167   6.624
18587SOL     OW57657   0.014  11.147   9.315
18587SOL    HW157658  14.860  11.199   9.388
18587SOL    HW257659  14.821  11.103   9.277
18588SOL     OW57660   9.937  12.716   2.730
18588SOL    HW157661   9.842  12.728   2.733
18588SOL    HW257662   9.969  12.794   2.684
18589SOL     OW57663   5.566   3.690   9.323
18589SOL    HW157664   5.660   3.688   9.340
18589SOL    HW257665   5.541   3.781   9.335
18590SOL     OW57666  10.235  14.345  10.121
18590SOL    HW157667  10.259  14.253  10.131
18590SOL    HW257668  10.167  14.359  10.187
18591SOL     OW57669   6.442  13.766   5.318
18591SOL    HW157670   6.419  13.685   5.272
18591SOL    HW257671   6.361  13.793   5.361
18592SOL     OW57672   0.763  13.773  12.925
18592SOL    HW157673   0.779  13.864  12.951
18592SOL    HW257674   0.837  13.751  12.868
18593SOL     OW57675   7.764   1.651  10.948
18593SOL    HW157676   7.685   1.703  10.965
18593SOL    HW257677   7.731   1.570  10.909
18594SOL     OW57678   5.154   9.369   7.457
18594SOL    HW157679   5.151   9.307   7.384
18594SOL    HW257680   5.066   9.407   7.459
18595SOL     OW57681   9.981   4.616   9.346
18595SOL    HW157682  10.047   4.675   9.383
18595SOL    HW257683   9.936   4.668   9.280
18596SOL     OW57684   1.049  13.697   7.000
18596SOL    HW157685   0.954  13.712   6.999
18596SOL    HW257686   1.087  13.780   6.969
18597SOL     OW57687  11.773  12.213  13.521
18597SOL    HW157688  11.841  12.263  13.476
18597SOL    HW257689  11.794  12.222  13.614
18598SOL     OW57690   6.694  11.245   5.925
18598SOL    HW157691   6.643  11.322   5.950
18598SOL    HW257692   6.642  11.203   5.858
18599SOL     OW57693  14.510   4.497   0.891
18599SOL    HW157694  14.495   4.496   0.796
18599SOL    HW257695  14.436   4.448   0.927
18600SOL     OW57696  10.496  11.852   5.054
18600SOL    HW157697  10.455  11.905   4.985
18600SOL    HW257698  10.484  11.902   5.134
18601SOL     OW57699   0.344  11.222   2.955
18601SOL    HW157700   0.434  11.238   2.983
18601SOL    HW257701   0.330  11.283   2.882
18602SOL     OW57702   3.422   5.296  13.469
18602SOL    HW157703   3.406   5.211  13.510
18602SOL    HW257704   3.431   5.356  13.544
18603SOL     OW57705  14.056   1.077  12.331
18603SOL    HW157706  14.130   1.105  12.277
18603SOL    HW257707  14.095   1.018  12.396
18604SOL     OW57708   3.365   1.546  13.730
18604SOL    HW157709   3.441   1.503  13.691
18604SOL    HW257710   3.327   1.479  13.788
18605SOL     OW57711   8.594   4.887  13.457
18605SOL    HW157712   8.522   4.935  13.416
18605SOL    HW257713   8.636   4.839  13.385
18606SOL     OW57714   0.103   2.032  13.635
18606SOL    HW157715   0.126   1.963  13.697
18606SOL    HW257716   0.125   1.996  13.549
18607SOL     OW57717   6.301   2.616   8.481
18607SOL    HW157718   6.292   2.547   8.416
18607SOL    HW257719   6.383   2.660   8.458
18608SOL     OW57720   0.314   9.527   2.803
18608SOL    HW157721   0.225   9.500   2.782
18608SOL    HW257722   0.306   9.578   2.884
18609SOL     OW57723   3.850   9.639   5.254
18609SOL    HW157724   3.762   9.603   5.268
18609SOL    HW257725   3.894   9.574   5.199
18610SOL     OW57726  11.135  13.504   6.396
18610SOL    HW157727  11.049  13.465   6.384
18610SOL    HW257728  11.189  13.434   6.434
18611SOL     OW57729   8.342   4.968   2.295
18611SOL    HW157730   8.336   4.886   2.344
18611SOL    HW257731   8.376   5.031   2.358
18612SOL     OW57732  10.781  12.244   4.780
18612SOL    HW157733  10.715  12.209   4.839
18612SOL    HW257734  10.740  12.243   4.694
18613SOL     OW57735   5.899   6.377  12.255
18613SOL    HW157736   5.804   6.384  12.264
18613SOL    HW257737   5.919   6.424  12.174
18614SOL     OW57738   8.075   9.927   2.147
18614SOL    HW157739   8.077  10.018   2.117
18614SOL    HW257740   8.109   9.931   2.236
18615SOL     OW57741   6.384  10.768   5.583
18615SOL    HW157742   6.411  10.852   5.548
18615SOL    HW257743   6.353  10.787   5.671
18616SOL     OW57744   1.175   8.627   1.884
18616SOL    HW157745   1.244   8.606   1.947
18616SOL    HW257746   1.220   8.678   1.816
18617SOL     OW57747   6.990   4.652   6.940
18617SOL    HW157748   6.912   4.703   6.963
18617SOL    HW257749   7.044   4.713   6.890
18618SOL     OW57750   7.838   7.525  12.807
18618SOL    HW157751   7.772   7.489  12.748
18618SOL    HW257752   7.795   7.599  12.850
18619SOL     OW57753  14.435   6.286  12.074
18619SOL    HW157754  14.472   6.198  12.069
18619SOL    HW257755  14.431   6.305  12.168
18620SOL     OW57756   0.547  11.248   8.062
18620SOL    HW157757   0.579  11.308   7.995
18620SOL    HW257758   0.514  11.172   8.012
18621SOL     OW57759   4.132  13.093   3.426
18621SOL    HW157760   4.089  13.165   3.473
18621SOL    HW257761   4.172  13.135   3.350
18622SOL     OW57762   0.832  14.090  14.809
18622SOL    HW157763   0.795  14.095   0.014
18622SOL    HW257764   0.880  14.008  14.807
18623SOL     OW57765   4.181   6.165  12.285
18623SOL    HW157766   4.212   6.137  12.199
18623SOL    HW257767   4.129   6.092  12.318
18624SOL     OW57768   9.230   7.655  11.297
18624SOL    HW157769   9.228   7.607  11.380
18624SOL    HW257770   9.164   7.723  11.307
18625SOL     OW57771  10.191   5.718   3.216
18625SOL    HW157772  10.146   5.735   3.299
18625SOL    HW257773  10.280   5.695   3.241
18626SOL     OW57774   6.236   8.504  11.849
18626SOL    HW157775   6.285   8.577  11.812
18626SOL    HW257776   6.216   8.531  11.939
18627SOL     OW57777   4.861  14.635  11.710
18627SOL    HW157778   4.875  14.705  11.646
18627SOL    HW257779   4.816  14.679  11.782
18628SOL     OW57780   9.362   4.275   7.161
18628SOL    HW157781   9.418   4.300   7.088
18628SOL    HW257782   9.275   4.307   7.137
18629SOL     OW57783   5.149   7.870   5.079
18629SOL    HW157784   5.092   7.942   5.052
18629SOL    HW257785   5.107   7.792   5.044
18630SOL     OW57786   4.320  14.591   5.537
18630SOL    HW157787   4.391  14.533   5.564
18630SOL    HW257788   4.346  14.621   5.449
18631SOL     OW57789  11.672  11.917   3.854
18631SOL    HW157790  11.667  11.927   3.759
18631SOL    HW257791  11.582  11.898   3.881
18632SOL     OW57792  11.680   1.971  10.337
18632SOL    HW157793  11.590   1.941  10.352
18632SOL    HW257794  11.734   1.905  10.381
18633SOL     OW57795   8.434  10.114  10.543
18633SOL    HW157796   8.530  10.113  10.541
18633SOL    HW257797   8.409  10.022  10.530
18634SOL     OW57798   1.726   6.155   9.730
18634SOL    HW157799   1.807   6.179   9.685
18634SOL    HW257800   1.658   6.202   9.681
18635SOL     OW57801   9.791   9.346   8.774
18635SOL    HW157802   9.737   9.339   8.695
18635SOL    HW257803   9.810   9.439   8.782
18636SOL     OW57804   2.823   5.086   3.488
18636SOL    HW157805   2.833   5.157   3.551
18636SOL    HW257806   2.812   5.130   3.404
18637SOL     OW57807   5.884   5.226   2.341
18637SOL    HW157808   5.908   5.260   2.428
18637SOL    HW257809   5.818   5.160   2.359
18638SOL     OW57810   6.725  13.475   1.181
18638SOL    HW157811   6.730  13.427   1.263
18638SOL    HW257812   6.816  13.483   1.152
18639SOL     OW57813  13.916  12.197   3.291
18639SOL    HW157814  13.992  12.190   3.348
18639SOL    HW257815  13.857  12.127   3.319
18640SOL     OW57816   8.498  10.526   2.692
18640SOL    HW157817   8.548  10.445   2.693
18640SOL    HW257818   8.411  10.500   2.723
18641SOL     OW57819   0.550   9.501  11.964
18641SOL    HW157820   0.500   9.543  12.034
18641SOL    HW257821   0.584   9.574  11.912
18642SOL     OW57822   6.104  10.919   0.249
18642SOL    HW157823   6.090  10.847   0.187
18642SOL    HW257824   6.085  10.881   0.335
18643SOL     OW57825   0.170   9.808  11.010
18643SOL    HW157826   0.180   9.762  11.093
18643SOL    HW257827   0.077   9.801  10.989
18644SOL     OW57828   8.124  10.581  13.801
18644SOL    HW157829   8.163  10.668  13.789
18644SOL    HW257830   8.155  10.530  13.725
18645SOL     OW57831   4.524  13.060   4.972
18645SOL    HW157832   4.611  13.039   5.006
18645SOL    HW257833   4.526  13.029   4.881
18646SOL     OW57834   2.573   4.219  13.968
18646SOL    HW157835   2.614   4.139  13.936
18646SOL    HW257836   2.559   4.204  14.062
18647SOL     OW57837  11.912   0.587   5.006
18647SOL    HW157838  11.855   0.630   5.070
18647SOL    HW257839  11.934   0.656   4.943
18648SOL     OW57840   3.151   0.004   9.096
18648SOL    HW157841   3.078   0.063   9.110
18648SOL    HW257842   3.135  14.847   9.010
18649SOL     OW57843   4.023  12.256   9.037
18649SOL    HW157844   4.005  12.225   8.949
18649SOL    HW257845   4.058  12.179   9.083
18650SOL     OW57846  13.326  14.722   3.582
18650SOL    HW157847  13.256  14.786   3.573
18650SOL    HW257848  13.406  14.774   3.587
18651SOL     OW57849   2.269   6.266   7.399
18651SOL    HW157850   2.336   6.328   7.428
18651SOL    HW257851   2.286   6.187   7.450
18652SOL     OW57852   0.162   1.452  14.147
18652SOL    HW157853   0.090   1.401  14.109
18652SOL    HW257854   0.168   1.530  14.092
18653SOL     OW57855   8.601   1.991  12.028
18653SOL    HW157856   8.657   2.069  12.035
18653SOL    HW257857   8.661   1.917  12.040
18654SOL     OW57858   0.045  11.493   1.808
18654SOL    HW157859  14.843  11.530   1.834
18654SOL    HW257860   0.037  11.478   1.713
18655SOL     OW57861   5.113  10.241  11.352
18655SOL    HW157862   5.049  10.192  11.299
18655SOL    HW257863   5.191  10.185  11.353
18656SOL     OW57864  10.680   7.365   0.969
18656SOL    HW157865  10.727   7.449   0.965
18656SOL    HW257866  10.710   7.317   0.892
18657SOL     OW57867   5.521  13.625  14.013
18657SOL    HW157868   5.442  13.590  13.971
18657SOL    HW257869   5.488  13.697  14.067
18658SOL     OW57870  12.607   4.598   3.080
18658SOL    HW157871  12.660   4.630   3.153
18658SOL    HW257872  12.561   4.522   3.115
18659SOL     OW57873   1.376  12.679   0.622
18659SOL    HW157874   1.294  12.720   0.651
18659SOL    HW257875   1.348  12.607   0.565
18660SOL     OW57876   7.888  12.411   8.968
18660SOL    HW157877   7.816  12.440   9.024
18660SOL    HW257878   7.960  12.471   8.990
18661SOL     OW57879  13.285  13.383  14.348
18661SOL    HW157880  13.210  13.394  14.288
18661SOL    HW257881  13.285  13.463  14.400
18662SOL     OW57882   3.534  11.842  10.953
18662SOL    HW157883   3.482  11.904  11.004
18662SOL    HW257884   3.513  11.862  10.862
18663SOL     OW57885   1.331  12.676   8.376
18663SOL    HW157886   1.372  12.625   8.306
18663SOL    HW257887   1.247  12.632   8.391
18664SOL     OW57888  12.139  12.424   6.089
18664SOL    HW157889  12.069  12.413   6.154
18664SOL    HW257890  12.218  12.439   6.141
18665SOL     OW57891   1.124   7.684   6.212
18665SOL    HW157892   1.160   7.640   6.135
18665SOL    HW257893   1.064   7.749   6.176
18666SOL     OW57894  10.024   9.500   7.308
18666SOL    HW157895  10.088   9.518   7.239
18666SOL    HW257896   9.985   9.416   7.284
18667SOL     OW57897  13.584  13.708   4.886
18667SOL    HW157898  13.616  13.700   4.976
18667SOL    HW257899  13.499  13.750   4.895
18668SOL     OW57900   5.554   3.754  10.407
18668SOL    HW157901   5.581   3.672  10.448
18668SOL    HW257902   5.463   3.739  10.381
18669SOL     OW57903  12.505  13.865  11.425
18669SOL    HW157904  12.574  13.931  11.435
18669SOL    HW257905  12.429  13.904  11.468
18670SOL     OW57906   1.351  11.750   2.036
18670SOL    HW157907   1.309  11.785   2.115
18670SOL    HW257908   1.442  11.739   2.060
18671SOL     OW57909   8.388   3.789   0.036
18671SOL    HW157910   8.441   3.865   0.058
18671SOL    HW257911   8.300   3.810   0.070
18672SOL     OW57912   7.830   9.269   6.091
18672SOL    HW157913   7.735   9.279   6.096
18672SOL    HW257914   7.854   9.226   6.173
18673SOL     OW57915   7.127   6.030   1.572
18673SOL    HW157916   7.185   6.099   1.540
18673SOL    HW257917   7.100   6.061   1.658
18674SOL     OW57918  10.809  13.404   0.652
18674SOL    HW157919  10.847  13.465   0.590
18674SOL    HW257920  10.836  13.436   0.738
18675SOL     OW57921   0.993  11.685   7.381
18675SOL    HW157922   1.059  11.616   7.389
18675SOL    HW257923   1.007  11.740   7.457
18676SOL     OW57924   8.900  13.405   2.830
18676SOL    HW157925   8.836  13.355   2.880
18676SOL    HW257926   8.913  13.355   2.750
18677SOL     OW57927   5.075   6.409   6.050
18677SOL    HW157928   5.007   6.415   6.117
18677SOL    HW257929   5.047   6.336   5.994
18678SOL     OW57930   6.625   5.597   5.602
18678SOL    HW157931   6.688   5.606   5.530
18678SOL    HW257932   6.563   5.532   5.571
18679SOL     OW57933   4.649   2.609  13.401
18679SOL    HW157934   4.581   2.614  13.335
18679SOL    HW257935   4.662   2.516  13.417
18680SOL     OW57936   9.496   9.215   8.764
18680SOL    HW157937   9.546   9.251   8.691
18680SOL    HW257938   9.484   9.289   8.824
18681SOL     OW57939   9.268   7.550  12.683
18681SOL    HW157940   9.356   7.587  12.686
18681SOL    HW257941   9.215   7.609  12.737
18682SOL     OW57942   9.235   0.611   4.227
18682SOL    HW157943   9.285   0.531   4.211
18682SOL    HW257944   9.277   0.677   4.172
18683SOL     OW57945  13.696   8.405  10.990
18683SOL    HW157946  13.662   8.331  10.940
18683SOL    HW257947  13.752   8.365  11.056
18684SOL     OW57948   4.258   4.601   2.303
18684SOL    HW157949   4.341   4.562   2.331
18684SOL    HW257950   4.191   4.541   2.337
18685SOL     OW57951   0.661  11.244   4.411
18685SOL    HW157952   0.600  11.315   4.429
18685SOL    HW257953   0.722  11.245   4.485
18686SOL     OW57954   0.202   7.072  14.075
18686SOL    HW157955   0.184   7.055  14.167
18686SOL    HW257956   0.259   7.149  14.075
18687SOL     OW57957   7.362  10.779   7.429
18687SOL    HW157958   7.317  10.739   7.354
18687SOL    HW257959   7.438  10.823   7.390
18688SOL     OW57960  10.491   9.008  13.464
18688SOL    HW157961  10.435   9.003  13.386
18688SOL    HW257962  10.460   8.937  13.520
18689SOL     OW57963   6.199   8.616   7.447
18689SOL    HW157964   6.169   8.637   7.535
18689SOL    HW257965   6.120   8.597   7.398
18690SOL     OW57966   5.007  13.089   8.981
18690SOL    HW157967   5.073  13.021   8.993
18690SOL    HW257968   4.924  13.041   8.976
18691SOL     OW57969   7.110   1.100   3.709
18691SOL    HW157970   7.148   1.061   3.788
18691SOL    HW257971   7.025   1.135   3.738
18692SOL     OW57972  12.055  14.327   0.429
18692SOL    HW157973  11.999  14.347   0.504
18692SOL    HW257974  12.026  14.387   0.360
18693SOL     OW57975  11.507   3.106   5.718
18693SOL    HW157976  11.574   3.154   5.767
18693SOL    HW257977  11.540   3.104   5.628
18694SOL     OW57978   9.440  11.834  10.834
18694SOL    HW157979   9.397  11.823  10.919
18694SOL    HW257980   9.526  11.871  10.856
18695SOL     OW57981   4.637   4.369   4.185
18695SOL    HW157982   4.700   4.426   4.231
18695SOL    HW257983   4.681   4.346   4.103
18696SOL     OW57984   8.129   0.118  14.258
18696SOL    HW157985   8.121   0.028  14.225
18696SOL    HW257986   8.186   0.111  14.334
18697SOL     OW57987   9.939  11.284   3.565
18697SOL    HW157988   9.994  11.212   3.533
18697SOL    HW257989  10.001  11.351   3.593
18698SOL     OW57990  12.106   8.524  14.298
18698SOL    HW157991  12.165   8.449  14.289
18698SOL    HW257992  12.131   8.564  14.381
18699SOL     OW57993  12.426   2.126   6.863
18699SOL    HW157994  12.399   2.102   6.774
18699SOL    HW257995  12.345   2.154   6.906
18700SOL     OW57996   4.209   8.524   4.362
18700SOL    HW157997   4.281   8.462   4.354
18700SOL    HW257998   4.210   8.551   4.454
18701SOL     OW57999  10.856  12.067   7.805
18701SOL    HW158000  10.858  12.105   7.718
18701SOL    HW258001  10.801  12.126   7.856
18702SOL     OW58002   6.781  10.065   0.747
18702SOL    HW158003   6.748  10.061   0.837
18702SOL    HW258004   6.713  10.113   0.699
18703SOL     OW58005  10.041  12.607  13.963
18703SOL    HW158006  10.079  12.635  14.046
18703SOL    HW258007   9.952  12.579  13.986
18704SOL     OW58008  11.902  13.644   4.119
18704SOL    HW158009  11.954  13.568   4.145
18704SOL    HW258010  11.901  13.701   4.195
18705SOL     OW58011   2.116   3.153   4.086
18705SOL    HW158012   2.160   3.090   4.144
18705SOL    HW258013   2.171   3.157   4.008
18706SOL     OW58014   3.394   6.982   2.333
18706SOL    HW158015   3.318   7.039   2.347
18706SOL    HW258016   3.462   7.041   2.300
18707SOL     OW58017   6.167   8.816  14.170
18707SOL    HW158018   6.189   8.767  14.091
18707SOL    HW258019   6.118   8.753  14.224
18708SOL     OW58020   0.094   0.333   4.988
18708SOL    HW158021   0.121   0.302   4.901
18708SOL    HW258022   0.016   0.283   5.009
18709SOL     OW58023  13.019   2.398   3.228
18709SOL    HW158024  12.967   2.454   3.169
18709SOL    HW258025  13.008   2.310   3.193
18710SOL     OW58026   1.681  12.457   0.154
18710SOL    HW158027   1.649  12.541   0.188
18710SOL    HW258028   1.619  12.433   0.086
18711SOL     OW58029   3.478  12.132   3.421
18711SOL    HW158030   3.412  12.138   3.490
18711SOL    HW258031   3.434  12.086   3.350
18712SOL     OW58032   0.743   4.364   3.572
18712SOL    HW158033   0.694   4.371   3.654
18712SOL    HW258034   0.695   4.420   3.511
18713SOL     OW58035   9.072  11.095  10.164
18713SOL    HW158036   9.144  11.036  10.184
18713SOL    HW258037   9.110  11.183  10.176
18714SOL     OW58038  14.631   7.901  10.285
18714SOL    HW158039  14.715   7.859  10.304
18714SOL    HW258040  14.650   7.995  10.285
18715SOL     OW58041   1.357   6.814   4.252
18715SOL    HW158042   1.374   6.896   4.299
18715SOL    HW258043   1.297   6.766   4.310
18716SOL     OW58044   0.940   2.304  10.150
18716SOL    HW158045   0.889   2.228  10.123
18716SOL    HW258046   0.989   2.329  10.072
18717SOL     OW58047   5.998  11.389   4.993
18717SOL    HW158048   6.012  11.307   5.041
18717SOL    HW258049   5.981  11.454   5.061
18718SOL     OW58050  13.976   5.026   4.608
18718SOL    HW158051  13.963   5.118   4.586
18718SOL    HW258052  14.071   5.015   4.614
18719SOL     OW58053  13.782   1.652   8.558
18719SOL    HW158054  13.821   1.611   8.481
18719SOL    HW258055  13.774   1.581   8.622
18720SOL     OW58056   5.231  13.373   3.255
18720SOL    HW158057   5.138  13.352   3.244
18720SOL    HW258058   5.275  13.318   3.190
18721SOL     OW58059   9.046  11.635   0.243
18721SOL    HW158060   9.132  11.674   0.230
18721SOL    HW258061   9.048  11.555   0.190
18722SOL     OW58062   6.521  12.659  14.495
18722SOL    HW158063   6.612  12.652  14.466
18722SOL    HW258064   6.474  12.595  14.441
18723SOL     OW58065   8.712   9.538   0.401
18723SOL    HW158066   8.624   9.546   0.364
18723SOL    HW258067   8.757   9.475   0.344
18724SOL     OW58068  11.955   7.384   6.443
18724SOL    HW158069  11.862   7.362   6.443
18724SOL    HW258070  11.971   7.421   6.530
18725SOL     OW58071  11.928  14.566   1.907
18725SOL    HW158072  11.974  14.577   1.823
18725SOL    HW258073  11.996  14.535   1.967
18726SOL     OW58074  13.892   6.736   3.521
18726SOL    HW158075  13.908   6.823   3.557
18726SOL    HW258076  13.968   6.685   3.548
18727SOL     OW58077   0.095   5.238   5.063
18727SOL    HW158078   0.093   5.150   5.025
18727SOL    HW258079   0.022   5.283   5.022
18728SOL     OW58080   2.495   3.937  13.667
18728SOL    HW158081   2.474   3.865  13.727
18728SOL    HW258082   2.587   3.925  13.646
18729SOL     OW58083   0.967  13.030  12.877
18729SOL    HW158084   1.022  12.989  12.810
18729SOL    HW258085   0.904  13.082  12.829
18730SOL     OW58086   0.512  10.072  13.297
18730SOL    HW158087   0.544   9.994  13.341
18730SOL    HW258088   0.576  10.140  13.318
18731SOL     OW58089   2.676   7.310   1.942
18731SOL    HW158090   2.644   7.235   1.891
18731SOL    HW258091   2.642   7.296   2.030
18732SOL     OW58092   7.478  10.510   3.627
18732SOL    HW158093   7.570  10.533   3.618
18732SOL    HW258094   7.476  10.447   3.700
18733SOL     OW58095  10.307   7.461   1.613
18733SOL    HW158096  10.260   7.540   1.585
18733SOL    HW258097  10.399   7.484   1.602
18734SOL     OW58098   8.695  13.921   7.869
18734SOL    HW158099   8.789  13.904   7.867
18734SOL    HW258100   8.666  13.908   7.778
18735SOL     OW58101   0.391   9.780   2.957
18735SOL    HW158102   0.439   9.742   2.883
18735SOL    HW258103   0.328   9.839   2.915
18736SOL     OW58104   0.319   5.230  13.645
18736SOL    HW158105   0.393   5.290  13.649
18736SOL    HW258106   0.242   5.286  13.645
18737SOL     OW58107   6.335  14.565   1.973
18737SOL    HW158108   6.390  14.612   2.036
18737SOL    HW258109   6.269  14.630   1.947
18738SOL     OW58110  12.872   7.404   7.517
18738SOL    HW158111  12.861   7.478   7.457
18738SOL    HW258112  12.841   7.329   7.467
18739SOL     OW58113  12.246   5.133   3.455
18739SOL    HW158114  12.184   5.061   3.446
18739SOL    HW258115  12.255   5.144   3.550
18740SOL     OW58116   9.837  13.194   3.478
18740SOL    HW158117   9.858  13.275   3.523
18740SOL    HW258118   9.779  13.219   3.406
18741SOL     OW58119   5.587   9.194   6.438
18741SOL    HW158120   5.557   9.234   6.357
18741SOL    HW258121   5.633   9.115   6.411
18742SOL     OW58122   2.838   2.987  10.500
18742SOL    HW158123   2.811   3.006  10.590
18742SOL    HW258124   2.919   2.937  10.509
18743SOL     OW58125   5.921  11.504   1.222
18743SOL    HW158126   5.834  11.514   1.260
18743SOL    HW258127   5.905  11.471   1.133
18744SOL     OW58128   2.036   1.851   3.698
18744SOL    HW158129   1.942   1.838   3.709
18744SOL    HW258130   2.056   1.929   3.750
18745SOL     OW58131  13.576   8.971  12.884
18745SOL    HW158132  13.493   9.018  12.885
18745SOL    HW258133  13.631   9.016  12.948
18746SOL     OW58134   8.934  12.724  13.910
18746SOL    HW158135   8.892  12.659  13.965
18746SOL    HW258136   8.887  12.720  13.827
18747SOL     OW58137  10.260  13.098  12.155
18747SOL    HW158138  10.316  13.022  12.135
18747SOL    HW258139  10.227  13.081  12.243
18748SOL     OW58140   8.205   7.728   1.945
18748SOL    HW158141   8.141   7.687   1.886
18748SOL    HW258142   8.264   7.656   1.969
18749SOL     OW58143   5.853  14.433  13.337
18749SOL    HW158144   5.941  14.459  13.308
18749SOL    HW258145   5.821  14.375  13.268
18750SOL     OW58146  13.759   6.118   4.269
18750SOL    HW158147  13.725   6.071   4.346
18750SOL    HW258148  13.824   6.058   4.232
18751SOL     OW58149   6.836   0.497  11.308
18751SOL    HW158150   6.900   0.556  11.349
18751SOL    HW258151   6.888   0.426  11.272
18752SOL     OW58152   4.691   3.551   1.615
18752SOL    HW158153   4.698   3.546   1.520
18752SOL    HW258154   4.597   3.560   1.632
18753SOL     OW58155  14.090   4.035   9.901
18753SOL    HW158156  14.113   3.944   9.886
18753SOL    HW258157  14.174   4.079   9.917
18754SOL     OW58158   9.428   4.234   0.287
18754SOL    HW158159   9.357   4.173   0.306
18754SOL    HW258160   9.429   4.242   0.191
18755SOL     OW58161   8.537  14.821   3.178
18755SOL    HW158162   8.616  14.768   3.189
18755SOL    HW258163   8.528  14.831   3.084
18756SOL     OW58164  13.281   5.400  14.607
18756SOL    HW158165  13.245   5.329  14.553
18756SOL    HW258166  13.332   5.356  14.675
18757SOL     OW58167   4.185  13.701   8.976
18757SOL    HW158168   4.146  13.753   9.046
18757SOL    HW258169   4.258  13.755   8.944
18758SOL     OW58170   6.253   1.866  11.425
18758SOL    HW158171   6.278   1.819  11.504
18758SOL    HW258172   6.290   1.813  11.354
18759SOL     OW58173  10.476  13.544   7.486
18759SOL    HW158174  10.406  13.608   7.472
18759SOL    HW258175  10.430  13.460   7.494
18760SOL     OW58176  13.704   3.379   1.963
18760SOL    HW158177  13.733   3.334   2.042
18760SOL    HW258178  13.615   3.408   1.984
18761SOL     OW58179   7.473   4.896  10.861
18761SOL    HW158180   7.415   4.972  10.869
18761SOL    HW258181   7.488   4.887  10.767
18762SOL     OW58182   3.732   9.183  10.019
18762SOL    HW158183   3.781   9.109  10.052
18762SOL    HW258184   3.772   9.260  10.060
18763SOL     OW58185  13.200   5.075  12.918
18763SOL    HW158186  13.225   5.003  12.975
18763SOL    HW258187  13.258   5.067  12.842
18764SOL     OW58188   4.338   0.283   8.712
18764SOL    HW158189   4.257   0.303   8.760
18764SOL    HW258190   4.406   0.282   8.779
18765SOL     OW58191  14.001  11.466   5.114
18765SOL    HW158192  13.951  11.405   5.169
18765SOL    HW258193  14.089  11.430   5.112
18766SOL     OW58194   9.937   9.554   8.719
18766SOL    HW158195   9.982   9.542   8.635
18766SOL    HW258196  10.005   9.541   8.785
18767SOL     OW58197  12.277   8.447   4.136
18767SOL    HW158198  12.195   8.398   4.129
18767SOL    HW258199  12.301   8.437   4.228
18768SOL     OW58200  14.161   7.897   4.497
18768SOL    HW158201  14.203   7.879   4.413
18768SOL    HW258202  14.225   7.948   4.546
18769SOL     OW58203  10.419  13.148  10.108
18769SOL    HW158204  10.507  13.184  10.093
18769SOL    HW258205  10.412  13.141  10.203
18770SOL     OW58206   9.771   0.964   2.357
18770SOL    HW158207   9.679   0.952   2.380
18770SOL    HW258208   9.814   0.883   2.384
18771SOL     OW58209   0.552   1.775   8.083
18771SOL    HW158210   0.494   1.848   8.060
18771SOL    HW258211   0.629   1.817   8.122
18772SOL     OW58212   4.441   5.737   7.034
18772SOL    HW158213   4.459   5.822   6.992
18772SOL    HW258214   4.368   5.701   6.983
18773SOL     OW58215  12.207   3.315   1.561
18773SOL    HW158216  12.285   3.277   1.603
18773SOL    HW258217  12.134   3.280   1.611
18774SOL     OW58218   4.077   0.904  13.514
18774SOL    HW158219   4.113   0.985  13.549
18774SOL    HW258220   4.017   0.932  13.445
18775SOL     OW58221   9.665   2.503  13.198
18775SOL    HW158222   9.677   2.478  13.290
18775SOL    HW258223   9.621   2.427  13.158
18776SOL     OW58224   1.805   8.948  14.624
18776SOL    HW158225   1.774   8.861  14.597
18776SOL    HW258226   1.875   8.930  14.686
18777SOL     OW58227   7.606   3.146   6.409
18777SOL    HW158228   7.577   3.084   6.476
18777SOL    HW258229   7.594   3.100   6.326
18778SOL     OW58230   8.958  11.143   3.679
18778SOL    HW158231   8.879  11.123   3.730
18778SOL    HW258232   8.946  11.234   3.652
18779SOL     OW58233   3.361   7.062   9.964
18779SOL    HW158234   3.451   7.060   9.993
18779SOL    HW258235   3.312   7.098  10.038
18780SOL     OW58236   8.056   1.054  10.784
18780SOL    HW158237   8.142   1.068  10.823
18780SOL    HW258238   8.054   1.112  10.708
18781SOL     OW58239   7.412   4.747   3.698
18781SOL    HW158240   7.503   4.776   3.706
18781SOL    HW258241   7.419   4.652   3.685
18782SOL     OW58242   3.141  14.877  13.569
18782SOL    HW158243   3.233   0.019  13.580
18782SOL    HW258244   3.103   0.067  13.520
18783SOL     OW58245  10.493   1.155   3.653
18783SOL    HW158246  10.546   1.099   3.710
18783SOL    HW258247  10.547   1.233   3.638
18784SOL     OW58248   4.084   4.247  11.689
18784SOL    HW158249   4.007   4.299  11.663
18784SOL    HW258250   4.090   4.259  11.784
18785SOL     OW58251  14.671  14.851   5.909
18785SOL    HW158252  14.730  14.878   5.839
18785SOL    HW258253  14.728  14.841   5.985
18786SOL     OW58254  14.586  10.707   0.101
18786SOL    HW158255  14.569  10.736   0.011
18786SOL    HW258256  14.521  10.639   0.117
18787SOL     OW58257   4.342   8.781   4.174
18787SOL    HW158258   4.434   8.759   4.193
18787SOL    HW258259   4.301   8.697   4.155
18788SOL     OW58260  12.297   5.676   9.486
18788SOL    HW158261  12.237   5.649   9.415
18788SOL    HW258262  12.384   5.660   9.451
18789SOL     OW58263   3.738   9.520   2.740
18789SOL    HW158264   3.759   9.590   2.802
18789SOL    HW258265   3.646   9.534   2.718
18790SOL     OW58266   4.600  14.101   0.240
18790SOL    HW158267   4.598  14.006   0.224
18790SOL    HW258268   4.632  14.138   0.158
18791SOL     OW58269  10.524   2.567   9.283
18791SOL    HW158270  10.607   2.547   9.327
18791SOL    HW258271  10.522   2.662   9.277
18792SOL     OW58272   1.560   9.149   5.831
18792SOL    HW158273   1.503   9.125   5.904
18792SOL    HW258274   1.645   9.165   5.872
18793SOL     OW58275   6.578   4.151   8.592
18793SOL    HW158276   6.534   4.084   8.644
18793SOL    HW258277   6.508   4.197   8.547
18794SOL     OW58278   4.244  12.703   9.003
18794SOL    HW158279   4.239  12.790   9.042
18794SOL    HW258280   4.337  12.689   8.988
18795SOL     OW58281   1.306  11.345   0.190
18795SOL    HW158282   1.391  11.377   0.221
18795SOL    HW258283   1.255  11.332   0.270
18796SOL     OW58284   3.688   6.773   7.212
18796SOL    HW158285   3.610   6.783   7.158
18796SOL    HW258286   3.735   6.699   7.173
18797SOL     OW58287  13.791   5.944   8.463
18797SOL    HW158288  13.772   6.031   8.497
18797SOL    HW258289  13.744   5.939   8.380
18798SOL     OW58290   9.494   3.975  12.951
18798SOL    HW158291   9.508   3.918  12.875
18798SOL    HW258292   9.550   4.051  12.935
18799SOL     OW58293   0.768   9.672  10.446
18799SOL    HW158294   0.793   9.671  10.354
18799SOL    HW258295   0.689   9.617  10.450
18800SOL     OW58296  10.760   4.022   7.631
18800SOL    HW158297  10.697   4.075   7.582
18800SOL    HW258298  10.757   4.058   7.720
18801SOL     OW58299  10.333   0.757  11.897
18801SOL    HW158300  10.332   0.686  11.833
18801SOL    HW258301  10.262   0.736  11.957
18802SOL     OW58302   9.687  10.633   2.714
18802SOL    HW158303   9.623  10.625   2.785
18802SOL    HW258304   9.702  10.544   2.684
18803SOL     OW58305   8.370   0.859  11.725
18803SOL    HW158306   8.352   0.944  11.685
18803SOL    HW258307   8.420   0.812  11.659
18804SOL     OW58308   7.087  11.156   3.422
18804SOL    HW158309   7.029  11.179   3.495
18804SOL    HW258310   7.171  11.137   3.464
18805SOL     OW58311   6.458   7.026  14.545
18805SOL    HW158312   6.366   7.049  14.556
18805SOL    HW258313   6.457   6.939  14.507
18806SOL     OW58314   4.329  13.339   7.185
18806SOL    HW158315   4.340  13.244   7.185
18806SOL    HW258316   4.402  13.371   7.238
18807SOL     OW58317   4.943  13.222  10.787
18807SOL    HW158318   4.913  13.194  10.700
18807SOL    HW258319   5.035  13.245  10.774
18808SOL     OW58320   9.311   8.107   2.130
18808SOL    HW158321   9.284   8.198   2.124
18808SOL    HW258322   9.342   8.096   2.219
18809SOL     OW58323   1.431   2.443   3.422
18809SOL    HW158324   1.522   2.438   3.453
18809SOL    HW258325   1.409   2.536   3.425
18810SOL     OW58326   8.221   1.328   2.327
18810SOL    HW158327   8.264   1.370   2.252
18810SOL    HW258328   8.208   1.237   2.299
18811SOL     OW58329   5.885   5.969   3.170
18811SOL    HW158330   5.820   5.976   3.101
18811SOL    HW258331   5.904   5.876   3.177
18812SOL     OW58332   1.170   7.605   7.615
18812SOL    HW158333   1.212   7.523   7.639
18812SOL    HW258334   1.080   7.580   7.592
18813SOL     OW58335   9.231  12.864   2.916
18813SOL    HW158336   9.175  12.844   2.991
18813SOL    HW258337   9.171  12.864   2.841
18814SOL     OW58338   1.293   2.366   4.219
18814SOL    HW158339   1.348   2.300   4.177
18814SOL    HW258340   1.204   2.343   4.194
18815SOL     OW58341   6.530   8.981  11.003
18815SOL    HW158342   6.439   8.962  10.982
18815SOL    HW258343   6.532   8.994  11.098
18816SOL     OW58344   2.523   0.073   1.391
18816SOL    HW158345   2.463   0.145   1.412
18816SOL    HW258346   2.509   0.010   1.461
18817SOL     OW58347   1.403   9.042  11.399
18817SOL    HW158348   1.477   9.015  11.454
18817SOL    HW258349   1.353   9.102  11.454
18818SOL     OW58350  13.012   2.865  10.576
18818SOL    HW158351  12.994   2.774  10.600
18818SOL    HW258352  13.017   2.864  10.481
18819SOL     OW58353   2.156   3.451  12.412
18819SOL    HW158354   2.099   3.520  12.378
18819SOL    HW258355   2.234   3.455  12.357
18820SOL     OW58356   2.542  10.165   4.369
18820SOL    HW158357   2.613  10.116   4.329
18820SOL    HW258358   2.579  10.200   4.450
18821SOL     OW58359   1.954   5.563   4.332
18821SOL    HW158360   1.861   5.582   4.334
18821SOL    HW258361   1.968   5.517   4.249
18822SOL     OW58362   7.962  14.337   0.226
18822SOL    HW158363   8.022  14.275   0.270
18822SOL    HW258364   8.020  14.393   0.174
18823SOL     OW58365   1.106   0.484   6.743
18823SOL    HW158366   1.171   0.485   6.813
18823SOL    HW258367   1.055   0.404   6.758
18824SOL     OW58368   3.771   1.279   9.199
18824SOL    HW158369   3.681   1.269   9.168
18824SOL    HW258370   3.799   1.191   9.225
18825SOL     OW58371   9.219   2.747   7.471
18825SOL    HW158372   9.231   2.765   7.378
18825SOL    HW258373   9.286   2.682   7.492
18826SOL     OW58374   9.116  13.655   7.146
18826SOL    HW158375   9.093  13.668   7.054
18826SOL    HW258376   9.197  13.705   7.157
18827SOL     OW58377   1.049  10.945   4.555
18827SOL    HW158378   1.129  10.966   4.603
18827SOL    HW258379   1.034  10.852   4.571
18828SOL     OW58380  14.066  12.112  12.253
18828SOL    HW158381  14.116  12.087  12.330
18828SOL    HW258382  14.004  12.178  12.284
18829SOL     OW58383   0.174   8.882   4.017
18829SOL    HW158384   0.201   8.903   4.106
18829SOL    HW258385   0.105   8.945   3.997
18830SOL     OW58386   0.143  12.188  14.163
18830SOL    HW158387   0.170  12.115  14.107
18830SOL    HW258388   0.207  12.188  14.234
18831SOL     OW58389  13.026  14.473  12.135
18831SOL    HW158390  13.076  14.446  12.058
18831SOL    HW258391  13.093  14.497  12.200
18832SOL     OW58392  13.212   5.308   8.628
18832SOL    HW158393  13.214   5.393   8.584
18832SOL    HW258394  13.262   5.322   8.709
18833SOL     OW58395   8.714  11.481   3.266
18833SOL    HW158396   8.655  11.429   3.320
18833SOL    HW258397   8.714  11.438   3.181
18834SOL     OW58398  10.396   9.735   1.841
18834SOL    HW158399  10.457   9.780   1.899
18834SOL    HW258400  10.422   9.762   1.753
18835SOL     OW58401  11.715   9.003   9.507
18835SOL    HW158402  11.741   9.061   9.435
18835SOL    HW258403  11.669   8.931   9.464
18836SOL     OW58404  13.147  12.283   9.493
18836SOL    HW158405  13.207  12.353   9.467
18836SOL    HW258406  13.139  12.228   9.414
18837SOL     OW58407  13.212   6.420   3.187
18837SOL    HW158408  13.305   6.403   3.200
18837SOL    HW258409  13.169   6.336   3.204
18838SOL     OW58410   3.081   5.067  10.534
18838SOL    HW158411   3.172   5.047  10.511
18838SOL    HW258412   3.087   5.113  10.618
18839SOL     OW58413   2.429   1.014  13.015
18839SOL    HW158414   2.473   0.933  12.989
18839SOL    HW258415   2.422   1.065  12.934
18840SOL     OW58416  10.480   9.007  11.734
18840SOL    HW158417  10.495   9.101  11.746
18840SOL    HW258418  10.527   8.986  11.653
18841SOL     OW58419   1.518   6.946  13.712
18841SOL    HW158420   1.484   6.887  13.779
18841SOL    HW258421   1.539   7.027  13.760
18842SOL     OW58422   4.902  10.839   3.767
18842SOL    HW158423   4.930  10.753   3.798
18842SOL    HW258424   4.940  10.901   3.830
18843SOL     OW58425  14.721   5.607   6.305
18843SOL    HW158426  14.743   5.628   6.214
18843SOL    HW258427  14.771   5.527   6.324
18844SOL     OW58428  13.139  12.365   3.369
18844SOL    HW158429  13.067  12.420   3.338
18844SOL    HW258430  13.096  12.289   3.408
18845SOL     OW58431   1.807   4.259  10.288
18845SOL    HW158432   1.741   4.202  10.250
18845SOL    HW258433   1.787   4.346  10.254
18846SOL     OW58434  11.985   9.076   1.180
18846SOL    HW158435  11.949   9.132   1.111
18846SOL    HW258436  12.056   9.028   1.137
18847SOL     OW58437   1.675  13.004   2.342
18847SOL    HW158438   1.719  12.975   2.263
18847SOL    HW258439   1.663  13.098   2.330
18848SOL     OW58440   8.224   4.412   1.493
18848SOL    HW158441   8.180   4.328   1.480
18848SOL    HW258442   8.185   4.448   1.573
18849SOL     OW58443  13.515  10.724   7.849
18849SOL    HW158444  13.562  10.807   7.855
18849SOL    HW258445  13.475  10.725   7.762
18850SOL     OW58446  10.082  10.918   7.140
18850SOL    HW158447  10.143  10.937   7.212
18850SOL    HW258448  10.013  10.984   7.148
18851SOL     OW58449  13.824  11.473   7.575
18851SOL    HW158450  13.901  11.524   7.602
18851SOL    HW258451  13.751  11.533   7.584
18852SOL     OW58452  13.956  13.588   2.266
18852SOL    HW158453  13.880  13.548   2.307
18852SOL    HW258454  13.920  13.653   2.206
18853SOL     OW58455   8.065   3.178   7.772
18853SOL    HW158456   8.009   3.253   7.751
18853SOL    HW258457   8.127   3.174   7.700
18854SOL     OW58458  10.194  12.518  13.728
18854SOL    HW158459  10.150  12.574  13.792
18854SOL    HW258460  10.250  12.460  13.780
18855SOL     OW58461   1.503   9.527   0.764
18855SOL    HW158462   1.558   9.449   0.771
18855SOL    HW258463   1.424   9.505   0.814
18856SOL     OW58464  13.346   3.781   5.475
18856SOL    HW158465  13.371   3.867   5.510
18856SOL    HW258466  13.252   3.775   5.491
18857SOL     OW58467  12.405   9.453   5.374
18857SOL    HW158468  12.481   9.410   5.334
18857SOL    HW258469  12.432   9.544   5.385
18858SOL     OW58470  14.870  14.552   6.606
18858SOL    HW158471   0.032  14.602   6.538
18858SOL    HW258472   0.054  14.492   6.640
18859SOL     OW58473  11.912   1.236  10.352
18859SOL    HW158474  11.988   1.208  10.403
18859SOL    HW258475  11.842   1.175  10.377
18860SOL     OW58476   0.210  14.358   8.391
18860SOL    HW158477   0.124  14.317   8.400
18860SOL    HW258478   0.195  14.431   8.331
18861SOL     OW58479  10.945   0.275   3.787
18861SOL    HW158480  10.988   0.243   3.867
18861SOL    HW258481  10.937   0.370   3.801
18862SOL     OW58482   1.547   6.252   6.913
18862SOL    HW158483   1.466   6.276   6.958
18862SOL    HW258484   1.577   6.333   6.872
18863SOL     OW58485   4.857   7.871  12.476
18863SOL    HW158486   4.784   7.886  12.536
18863SOL    HW258487   4.832   7.793  12.427
18864SOL     OW58488  12.202   8.240   9.641
18864SOL    HW158489  12.266   8.274   9.579
18864SOL    HW258490  12.129   8.211   9.586
18865SOL     OW58491  14.527   2.200   8.345
18865SOL    HW158492  14.510   2.217   8.437
18865SOL    HW258493  14.443   2.173   8.309
18866SOL     OW58494  12.200  12.082  13.844
18866SOL    HW158495  12.277  12.136  13.865
18866SOL    HW258496  12.178  12.105  13.754
18867SOL     OW58497  11.010  10.348   2.171
18867SOL    HW158498  11.088  10.292   2.164
18867SOL    HW258499  10.938  10.288   2.187
18868SOL     OW58500   2.686  14.647  10.866
18868SOL    HW158501   2.765  14.626  10.816
18868SOL    HW258502   2.640  14.563  10.873
18869SOL     OW58503   1.030  12.026   2.884
18869SOL    HW158504   1.075  12.055   2.963
18869SOL    HW258505   0.941  12.060   2.892
18870SOL     OW58506  12.249   8.872   8.303
18870SOL    HW158507  12.300   8.885   8.383
18870SOL    HW258508  12.169   8.923   8.318
18871SOL     OW58509   5.991   5.081   6.276
18871SOL    HW158510   5.988   5.142   6.350
18871SOL    HW258511   6.082   5.083   6.247
18872SOL     OW58512  10.759  10.781  11.951
18872SOL    HW158513  10.753  10.689  11.925
18872SOL    HW258514  10.851  10.804  11.937
18873SOL     OW58515   0.822   1.433  13.888
18873SOL    HW158516   0.793   1.405  13.801
18873SOL    HW258517   0.795   1.525  13.894
18874SOL     OW58518   4.778   1.047  12.333
18874SOL    HW158519   4.783   1.115  12.265
18874SOL    HW258520   4.808   1.090  12.413
18875SOL     OW58521  12.013   2.718  14.875
18875SOL    HW158522  11.965   2.681   0.067
18875SOL    HW258523  12.080   2.653  14.854
18876SOL     OW58524   0.565   8.196   2.411
18876SOL    HW158525   0.539   8.259   2.478
18876SOL    HW258526   0.532   8.234   2.329
18877SOL     OW58527  13.439  13.679   1.921
18877SOL    HW158528  13.401  13.624   1.989
18877SOL    HW258529  13.456  13.619   1.848
18878SOL     OW58530   5.965   5.759   7.968
18878SOL    HW158531   5.889   5.716   8.007
18878SOL    HW258532   6.031   5.758   8.036
18879SOL     OW58533   2.911   1.298   7.648
18879SOL    HW158534   2.985   1.243   7.674
18879SOL    HW258535   2.931   1.325   7.558
18880SOL     OW58536   9.370   9.232   8.194
18880SOL    HW158537   9.439   9.297   8.206
18880SOL    HW258538   9.288   9.280   8.211
18881SOL     OW58539  12.090   7.988  12.379
18881SOL    HW158540  12.080   8.051  12.307
18881SOL    HW258541  12.006   7.989  12.423
18882SOL     OW58542   7.470   7.585   9.379
18882SOL    HW158543   7.393   7.572   9.324
18882SOL    HW258544   7.521   7.505   9.367
18883SOL     OW58545   7.896   4.232   5.876
18883SOL    HW158546   7.901   4.230   5.972
18883SOL    HW258547   7.808   4.202   5.856
18884SOL     OW58548  11.589   5.604   2.061
18884SOL    HW158549  11.574   5.698   2.072
18884SOL    HW258550  11.501   5.566   2.053
18885SOL     OW58551  13.505  11.308   8.564
18885SOL    HW158552  13.574  11.243   8.551
18885SOL    HW258553  13.552  11.387   8.590
18886SOL     OW58554   7.810   7.976  13.090
18886SOL    HW158555   7.861   8.053  13.064
18886SOL    HW258556   7.871   7.923  13.141
18887SOL     OW58557  13.129  12.211   8.923
18887SOL    HW158558  13.047  12.254   8.946
18887SOL    HW258559  13.104  12.140   8.864
18888SOL     OW58560  14.010  13.965   1.574
18888SOL    HW158561  13.986  14.006   1.657
18888SOL    HW258562  13.927  13.931   1.539
18889SOL     OW58563   4.133   9.239   4.696
18889SOL    HW158564   4.143   9.163   4.753
18889SOL    HW258565   4.223   9.268   4.680
18890SOL     OW58566   7.258  14.576   5.776
18890SOL    HW158567   7.322  14.582   5.846
18890SOL    HW258568   7.176  14.554   5.820
18891SOL     OW58569   6.275  11.437  10.007
18891SOL    HW158570   6.237  11.350   9.999
18891SOL    HW258571   6.332  11.431  10.084
18892SOL     OW58572  10.495   8.669  14.590
18892SOL    HW158573  10.521   8.603  14.654
18892SOL    HW258574  10.572   8.677  14.532
18893SOL     OW58575   0.339   3.752  13.482
18893SOL    HW158576   0.370   3.834  13.519
18893SOL    HW258577   0.278   3.718  13.548
18894SOL     OW58578   8.053   6.519   7.127
18894SOL    HW158579   8.123   6.574   7.163
18894SOL    HW258580   8.095   6.467   7.059
18895SOL     OW58581   5.328  12.195  14.765
18895SOL    HW158582   5.298  12.286  14.767
18895SOL    HW258583   5.255  12.147  14.725
18896SOL     OW58584   2.551   7.449   1.417
18896SOL    HW158585   2.628   7.434   1.362
18896SOL    HW258586   2.567   7.534   1.458
18897SOL     OW58587   5.387   6.908  11.663
18897SOL    HW158588   5.398   6.824  11.708
18897SOL    HW258589   5.399   6.887  11.570
18898SOL     OW58590   4.027   2.196   8.618
18898SOL    HW158591   3.954   2.242   8.577
18898SOL    HW258592   4.068   2.147   8.547
18899SOL     OW58593   0.778   5.649   6.824
18899SOL    HW158594   0.740   5.726   6.867
18899SOL    HW258595   0.704   5.590   6.812
18900SOL     OW58596   1.365  13.823  14.403
18900SOL    HW158597   1.393  13.771  14.478
18900SOL    HW258598   1.320  13.760  14.347
18901SOL     OW58599   2.199   0.260   7.654
18901SOL    HW158600   2.142   0.324   7.612
18901SOL    HW258601   2.230   0.205   7.582
18902SOL     OW58602   4.967   1.504   6.092
18902SOL    HW158603   4.920   1.578   6.055
18902SOL    HW258604   5.031   1.543   6.152
18903SOL     OW58605   1.716   1.982   4.578
18903SOL    HW158606   1.795   1.993   4.526
18903SOL    HW258607   1.661   2.057   4.555
18904SOL     OW58608  14.374   9.846   4.194
18904SOL    HW158609  14.425   9.888   4.264
18904SOL    HW258610  14.330   9.772   4.237
18905SOL     OW58611   5.380   2.677   6.782
18905SOL    HW158612   5.422   2.742   6.725
18905SOL    HW258613   5.289   2.677   6.755
18906SOL     OW58614   4.245   5.236   5.046
18906SOL    HW158615   4.224   5.178   5.119
18906SOL    HW258616   4.232   5.324   5.081
18907SOL     OW58617  11.312   6.803   2.993
18907SOL    HW158618  11.252   6.794   3.067
18907SOL    HW258619  11.274   6.872   2.939
18908SOL     OW58620   1.858  10.949   9.890
18908SOL    HW158621   1.833  10.956   9.798
18908SOL    HW258622   1.786  10.992   9.937
18909SOL     OW58623   0.167   1.728  14.086
18909SOL    HW158624   0.082   1.773  14.084
18909SOL    HW258625   0.232   1.798  14.092
18910SOL     OW58626  11.853   7.268   4.881
18910SOL    HW158627  11.880   7.276   4.973
18910SOL    HW258628  11.867   7.356   4.845
18911SOL     OW58629   3.240   4.236   0.574
18911SOL    HW158630   3.302   4.244   0.647
18911SOL    HW258631   3.177   4.171   0.603
18912SOL     OW58632   6.292   5.392   6.177
18912SOL    HW158633   6.358   5.379   6.109
18912SOL    HW258634   6.271   5.304   6.208
18913SOL     OW58635   7.338   6.310   3.169
18913SOL    HW158636   7.277   6.236   3.169
18913SOL    HW258637   7.423   6.270   3.189
18914SOL     OW58638   0.658   5.421   2.992
18914SOL    HW158639   0.725   5.439   3.058
18914SOL    HW258640   0.652   5.325   2.991
18915SOL     OW58641  11.223   7.235   6.812
18915SOL    HW158642  11.294   7.196   6.761
18915SOL    HW258643  11.143   7.198   6.776
18916SOL     OW58644  13.755  14.455   0.267
18916SOL    HW158645  13.756  14.537   0.316
18916SOL    HW258646  13.841  14.417   0.282
18917SOL     OW58647   9.725  13.918   3.993
18917SOL    HW158648   9.794  13.852   3.989
18917SOL    HW258649   9.770  14.001   3.977
18918SOL     OW58650  14.270   5.494   4.773
18918SOL    HW158651  14.254   5.587   4.788
18918SOL    HW258652  14.281   5.487   4.678
18919SOL     OW58653   6.749  12.695   2.208
18919SOL    HW158654   6.779  12.768   2.262
18919SOL    HW258655   6.771  12.719   2.119
18920SOL     OW58656   8.014   3.939   9.767
18920SOL    HW158657   7.924   3.924   9.796
18920SOL    HW258658   8.048   4.005   9.828
18921SOL     OW58659   4.048   0.437   2.849
18921SOL    HW158660   4.096   0.404   2.773
18921SOL    HW258661   4.040   0.531   2.835
18922SOL     OW58662   3.454   4.153   2.920
18922SOL    HW158663   3.359   4.149   2.929
18922SOL    HW258664   3.468   4.208   2.843
18923SOL     OW58665   7.357  11.295   4.214
18923SOL    HW158666   7.332  11.300   4.306
18923SOL    HW258667   7.274  11.300   4.167
18924SOL     OW58668  11.270  10.808   8.983
18924SOL    HW158669  11.339  10.753   9.020
18924SOL    HW258670  11.265  10.884   9.041
18925SOL     OW58671   8.703   4.643   4.731
18925SOL    HW158672   8.655   4.584   4.672
18925SOL    HW258673   8.676   4.616   4.819
18926SOL     OW58674   2.916  11.443   3.328
18926SOL    HW158675   2.947  11.424   3.239
18926SOL    HW258676   2.966  11.520   3.355
18927SOL     OW58677   2.230   4.480   9.535
18927SOL    HW158678   2.187   4.431   9.465
18927SOL    HW258679   2.316   4.439   9.543
18928SOL     OW58680   3.438  13.185   9.403
18928SOL    HW158681   3.386  13.248   9.452
18928SOL    HW258682   3.514  13.168   9.458
18929SOL     OW58683   8.714  10.834  13.642
18929SOL    HW158684   8.714  10.922  13.604
18929SOL    HW258685   8.656  10.841  13.718
18930SOL     OW58686   0.946   5.078   0.979
18930SOL    HW158687   0.986   5.013   1.036
18930SOL    HW258688   0.964   5.047   0.890
18931SOL     OW58689   3.246  12.571   8.128
18931SOL    HW158690   3.183  12.626   8.174
18931SOL    HW258691   3.322  12.626   8.115
18932SOL     OW58692   0.852   1.777  11.155
18932SOL    HW158693   0.827   1.856  11.107
18932SOL    HW258694   0.788   1.711  11.127
18933SOL     OW58695   3.071   7.104   0.138
18933SOL    HW158696   3.043   7.025   0.183
18933SOL    HW258697   3.161   7.086   0.111
18934SOL     OW58698  12.563   3.289   5.872
18934SOL    HW158699  12.640   3.284   5.816
18934SOL    HW258700  12.598   3.293   5.961
18935SOL     OW58701  10.002   2.689   4.437
18935SOL    HW158702  10.009   2.599   4.406
18935SOL    HW258703   9.970   2.739   4.362
18936SOL     OW58704   1.905   4.421   5.702
18936SOL    HW158705   1.951   4.373   5.633
18936SOL    HW258706   1.812   4.398   5.689
18937SOL     OW58707   7.402  11.815   0.275
18937SOL    HW158708   7.443  11.865   0.346
18937SOL    HW258709   7.429  11.860   0.195
18938SOL     OW58710  11.504   0.765   7.093
18938SOL    HW158711  11.456   0.838   7.054
18938SOL    HW258712  11.591   0.800   7.111
18939SOL     OW58713   4.783   6.078   6.855
18939SOL    HW158714   4.836   6.023   6.798
18939SOL    HW258715   4.741   6.141   6.796
18940SOL     OW58716   9.672   4.562  12.256
18940SOL    HW158717   9.746   4.521  12.211
18940SOL    HW258718   9.595   4.535  12.205
18941SOL     OW58719   6.610   5.983   7.778
18941SOL    HW158720   6.630   5.913   7.840
18941SOL    HW258721   6.693   6.027   7.763
18942SOL     OW58722   4.987  10.412  13.888
18942SOL    HW158723   4.934  10.335  13.867
18942SOL    HW258724   5.001  10.406  13.983
18943SOL     OW58725   1.864  12.140   6.106
18943SOL    HW158726   1.934  12.197   6.074
18943SOL    HW258727   1.843  12.173   6.193
18944SOL     OW58728   4.212  11.553   2.734
18944SOL    HW158729   4.172  11.466   2.727
18944SOL    HW258730   4.277  11.555   2.664
18945SOL     OW58731  11.190   0.945  13.847
18945SOL    HW158732  11.221   0.908  13.764
18945SOL    HW258733  11.254   1.012  13.869
18946SOL     OW58734  13.259   8.126  14.821
18946SOL    HW158735  13.191   8.174  14.868
18946SOL    HW258736  13.255   8.038  14.858
18947SOL     OW58737  11.972   2.693   5.568
18947SOL    HW158738  12.038   2.675   5.634
18947SOL    HW258739  11.889   2.682   5.613
18948SOL     OW58740   2.147   7.862  13.800
18948SOL    HW158741   2.230   7.910  13.791
18948SOL    HW258742   2.165   7.777  13.759
18949SOL     OW58743   6.783   8.796  10.634
18949SOL    HW158744   6.715   8.827  10.574
18949SOL    HW258745   6.740   8.789  10.719
18950SOL     OW58746  10.530   4.125   2.836
18950SOL    HW158747  10.442   4.101   2.865
18950SOL    HW258748  10.536   4.219   2.852
18951SOL     OW58749  11.500   1.386  14.527
18951SOL    HW158750  11.560   1.422  14.592
18951SOL    HW258751  11.415   1.424  14.548
18952SOL     OW58752   3.973   6.443   5.871
18952SOL    HW158753   4.044   6.385   5.843
18952SOL    HW258754   3.952   6.494   5.793
18953SOL     OW58755   7.663  14.303   6.387
18953SOL    HW158756   7.601  14.374   6.406
18953SOL    HW258757   7.667  14.253   6.468
18954SOL     OW58758   5.009   7.992   8.806
18954SOL    HW158759   4.952   8.057   8.765
18954SOL    HW258760   5.050   7.948   8.732
18955SOL     OW58761  11.181   1.518  14.346
18955SOL    HW158762  11.160   1.608  14.323
18955SOL    HW258763  11.191   1.519  14.442
18956SOL     OW58764   3.174   6.744   5.000
18956SOL    HW158765   3.255   6.795   4.987
18956SOL    HW258766   3.185   6.704   5.086
18957SOL     OW58767  12.141   9.722  13.923
18957SOL    HW158768  12.112   9.693  14.010
18957SOL    HW258769  12.236   9.729  13.931
18958SOL     OW58770  13.442  12.923   6.937
18958SOL    HW158771  13.496  12.972   6.999
18958SOL    HW258772  13.352  12.948   6.958
18959SOL     OW58773   9.079   4.135  10.127
18959SOL    HW158774   9.155   4.078  10.111
18959SOL    HW258775   9.027   4.087  10.191
18960SOL     OW58776   6.657   5.754   4.257
18960SOL    HW158777   6.571   5.712   4.256
18960SOL    HW258778   6.719   5.681   4.257
18961SOL     OW58779   5.532  11.367   9.121
18961SOL    HW158780   5.581  11.448   9.108
18961SOL    HW258781   5.572  11.328   9.199
18962SOL     OW58782   0.655  10.250   9.067
18962SOL    HW158783   0.572  10.206   9.087
18962SOL    HW258784   0.631  10.318   9.004
18963SOL     OW58785   3.953   0.817  14.845
18963SOL    HW158786   3.881   0.828   0.025
18963SOL    HW258787   3.931   0.878  14.774
18964SOL     OW58788  11.314   8.884  12.204
18964SOL    HW158789  11.335   8.928  12.121
18964SOL    HW258790  11.281   8.798  12.177
18965SOL     OW58791   9.140   8.572   7.686
18965SOL    HW158792   9.163   8.657   7.649
18965SOL    HW258793   9.063   8.544   7.636
18966SOL     OW58794   4.685   6.721   2.447
18966SOL    HW158795   4.635   6.640   2.460
18966SOL    HW258796   4.633   6.788   2.492
18967SOL     OW58797   0.464   4.919   5.107
18967SOL    HW158798   0.505   4.850   5.161
18967SOL    HW258799   0.470   4.886   5.017
18968SOL     OW58800  10.108   8.083   1.846
18968SOL    HW158801  10.048   8.156   1.828
18968SOL    HW258802  10.066   8.007   1.806
18969SOL     OW58803   8.782   9.829  14.399
18969SOL    HW158804   8.765   9.817  14.492
18969SOL    HW258805   8.870   9.796  14.385
18970SOL     OW58806   8.786  12.512   6.751
18970SOL    HW158807   8.867  12.545   6.712
18970SOL    HW258808   8.810  12.426   6.786
18971SOL     OW58809   6.165  14.528   6.146
18971SOL    HW158810   6.193  14.614   6.115
18971SOL    HW258811   6.069  14.530   6.141
18972SOL     OW58812   0.591   5.479   8.054
18972SOL    HW158813   0.677   5.442   8.076
18972SOL    HW258814   0.567   5.437   7.971
18973SOL     OW58815  13.835   1.448   3.791
18973SOL    HW158816  13.897   1.514   3.822
18973SOL    HW258817  13.847   1.447   3.696
18974SOL     OW58818  12.116   3.835   2.407
18974SOL    HW158819  12.205   3.870   2.407
18974SOL    HW258820  12.115   3.770   2.337
18975SOL     OW58821   7.997  12.775   0.035
18975SOL    HW158822   7.922  12.803  14.865
18975SOL    HW258823   8.043  12.856   0.057
18976SOL     OW58824   7.914  10.925  10.942
18976SOL    HW158825   7.830  10.928  10.896
18976SOL    HW258826   7.906  10.989  11.012
18977SOL     OW58827   7.413   5.053  12.542
18977SOL    HW158828   7.362   4.980  12.508
18977SOL    HW258829   7.443   5.100  12.464
18978SOL     OW58830   7.650   8.170  13.800
18978SOL    HW158831   7.573   8.172  13.857
18978SOL    HW258832   7.630   8.103  13.734
18979SOL     OW58833   6.570   2.122  11.831
18979SOL    HW158834   6.587   2.044  11.779
18979SOL    HW258835   6.642   2.181  11.811
18980SOL     OW58836  12.750  13.086   4.852
18980SOL    HW158837  12.738  13.178   4.875
18980SOL    HW258838  12.783  13.045   4.932
18981SOL     OW58839   5.485  10.581   7.078
18981SOL    HW158840   5.525  10.667   7.091
18981SOL    HW258841   5.424  10.572   7.152
18982SOL     OW58842  13.107   3.730  12.647
18982SOL    HW158843  13.079   3.675  12.720
18982SOL    HW258844  13.052   3.808  12.652
18983SOL     OW58845   3.025   0.695  14.669
18983SOL    HW158846   3.060   0.612  14.638
18983SOL    HW258847   3.065   0.708  14.755
18984SOL     OW58848  10.873  14.681  14.847
18984SOL    HW158849  10.789  14.662   0.005
18984SOL    HW258850  10.937  14.672   0.036
18985SOL     OW58851  12.359   2.735   2.612
18985SOL    HW158852  12.274   2.693   2.602
18985SOL    HW258853  12.350   2.819   2.567
18986SOL     OW58854   4.820   7.729   3.061
18986SOL    HW158855   4.743   7.781   3.038
18986SOL    HW258856   4.891   7.767   3.011
18987SOL     OW58857   5.630   8.457   1.278
18987SOL    HW158858   5.692   8.388   1.256
18987SOL    HW258859   5.655   8.530   1.222
18988SOL     OW58860   4.632  12.408  13.872
18988SOL    HW158861   4.543  12.417  13.906
18988SOL    HW258862   4.661  12.323  13.903
18989SOL     OW58863   0.833   4.586  11.781
18989SOL    HW158864   0.866   4.589  11.871
18989SOL    HW258865   0.872   4.663  11.740
18990SOL     OW58866  13.804  13.949  11.464
18990SOL    HW158867  13.781  13.870  11.512
18990SOL    HW258868  13.751  13.945  11.384
18991SOL     OW58869   4.581   5.968  10.715
18991SOL    HW158870   4.567   5.884  10.757
18991SOL    HW258871   4.632   5.948  10.637
18992SOL     OW58872   6.926  10.052  10.847
18992SOL    HW158873   6.881  10.112  10.787
18992SOL    HW258874   6.865   9.978  10.857
18993SOL     OW58875   6.794   3.195  12.710
18993SOL    HW158876   6.777   3.119  12.655
18993SOL    HW258877   6.719   3.200  12.769
18994SOL     OW58878   0.364   3.619  11.819
18994SOL    HW158879   0.418   3.616  11.740
18994SOL    HW258880   0.295   3.555  11.803
18995SOL     OW58881   3.119   4.531   1.567
18995SOL    HW158882   3.079   4.553   1.651
18995SOL    HW258883   3.156   4.444   1.581
18996SOL     OW58884   6.127   5.949  13.926
18996SOL    HW158885   6.084   5.921  13.845
18996SOL    HW258886   6.145   6.042  13.913
18997SOL     OW58887   6.374   6.660  14.766
18997SOL    HW158888   6.331   6.584  14.728
18997SOL    HW258889   6.412   6.628  14.848
18998SOL     OW58890   8.368   3.338   9.021
18998SOL    HW158891   8.290   3.365   9.071
18998SOL    HW258892   8.424   3.295   9.086
18999SOL     OW58893   5.697   2.509   9.410
18999SOL    HW158894   5.688   2.415   9.427
18999SOL    HW258895   5.748   2.543   9.483
19000SOL     OW58896   3.152  10.873   1.032
19000SOL    HW158897   3.112  10.789   1.009
19000SOL    HW258898   3.188  10.859   1.120
19001SOL     OW58899   5.947   2.343   7.919
19001SOL    HW158900   5.918   2.303   7.838
19001SOL    HW258901   6.036   2.375   7.900
19002SOL     OW58902  12.943  10.227   7.128
19002SOL    HW158903  12.899  10.142   7.126
19002SOL    HW258904  12.903  10.273   7.202
19003SOL     OW58905  13.447  14.110   7.563
19003SOL    HW158906  13.486  14.087   7.648
19003SOL    HW258907  13.476  14.040   7.504
19004SOL     OW58908  12.940  12.339  12.663
19004SOL    HW158909  13.007  12.406  12.668
19004SOL    HW258910  12.928  12.324  12.569
19005SOL     OW58911   1.668   0.051   6.293
19005SOL    HW158912   1.762   0.046   6.311
19005SOL    HW258913   1.649  14.856   6.240
19006SOL     OW58914   9.434   6.907  13.877
19006SOL    HW158915   9.489   6.984  13.867
19006SOL    HW258916   9.344   6.941  13.872
19007SOL     OW58917   6.586   0.799  12.628
19007SOL    HW158918   6.502   0.843  12.617
19007SOL    HW258919   6.651   0.865  12.604
19008SOL     OW58920   1.394  14.403  11.703
19008SOL    HW158921   1.369  14.487  11.664
19008SOL    HW258922   1.483  14.417  11.735
19009SOL     OW58923   1.314   8.962  13.520
19009SOL    HW158924   1.253   8.897  13.485
19009SOL    HW258925   1.399   8.919  13.518
19010SOL     OW58926   5.023  12.013   3.941
19010SOL    HW158927   5.052  11.922   3.948
19010SOL    HW258928   5.076  12.050   3.871
19011SOL     OW58929  14.197   4.278  12.724
19011SOL    HW158930  14.265   4.253  12.661
19011SOL    HW258931  14.209   4.218  12.797
19012SOL     OW58932   5.321  10.030   1.319
19012SOL    HW158933   5.333  10.101   1.257
19012SOL    HW258934   5.311  10.073   1.404
19013SOL     OW58935  11.202  13.037   1.057
19013SOL    HW158936  11.120  13.088   1.061
19013SOL    HW258937  11.194  12.973   1.128
19014SOL     OW58938  10.723   0.063   4.066
19014SOL    HW158939  10.715   0.077   3.971
19014SOL    HW258940  10.743   0.149   4.102
19015SOL     OW58941   8.496  10.812  11.792
19015SOL    HW158942   8.414  10.811  11.742
19015SOL    HW258943   8.469  10.803  11.883
19016SOL     OW58944   3.235   4.642   2.740
19016SOL    HW158945   3.304   4.636   2.806
19016SOL    HW258946   3.168   4.581   2.770
19017SOL     OW58947   6.227   9.222  10.135
19017SOL    HW158948   6.238   9.294  10.196
19017SOL    HW258949   6.137   9.231  10.103
19018SOL     OW58950   6.334   2.991   5.623
19018SOL    HW158951   6.279   3.051   5.574
19018SOL    HW258952   6.392   2.951   5.558
19019SOL     OW58953  14.409  11.050  12.948
19019SOL    HW158954  14.476  11.032  13.014
19019SOL    HW258955  14.347  11.108  12.993
19020SOL     OW58956  11.829   1.796  10.473
19020SOL    HW158957  11.829   1.705  10.443
19020SOL    HW258958  11.861   1.792  10.563
19021SOL     OW58959   9.653  11.610   1.662
19021SOL    HW158960   9.575  11.569   1.624
19021SOL    HW258961   9.637  11.610   1.756
19022SOL     OW58962  14.133   4.488   1.976
19022SOL    HW158963  14.224   4.513   1.993
19022SOL    HW258964  14.120   4.507   1.883
19023SOL     OW58965   2.334   3.893  11.340
19023SOL    HW158966   2.387   3.858  11.268
19023SOL    HW258967   2.256   3.837  11.343
19024SOL     OW58968   5.208   7.715   0.799
19024SOL    HW158969   5.258   7.635   0.814
19024SOL    HW258970   5.117   7.686   0.802
19025SOL     OW58971  13.531   5.647   9.315
19025SOL    HW158972  13.438   5.647   9.294
19025SOL    HW258973  13.574   5.677   9.234
19026SOL     OW58974   6.455  10.767   2.309
19026SOL    HW158975   6.496  10.688   2.343
19026SOL    HW258976   6.388  10.735   2.248
19027SOL     OW58977   2.078   5.161   3.675
19027SOL    HW158978   2.015   5.091   3.695
19027SOL    HW258979   2.127   5.128   3.600
19028SOL     OW58980   0.428   9.667  10.852
19028SOL    HW158981   0.342   9.689  10.886
19028SOL    HW258982   0.411   9.631  10.765
19029SOL     OW58983   4.500   9.472  13.667
19029SOL    HW158984   4.543   9.423  13.738
19029SOL    HW258985   4.557   9.548  13.654
19030SOL     OW58986   2.547   5.636   8.499
19030SOL    HW158987   2.498   5.569   8.452
19030SOL    HW258988   2.555   5.708   8.436
19031SOL     OW58989  14.686  14.406   6.441
19031SOL    HW158990  14.756  14.439   6.497
19031SOL    HW258991  14.605  14.423   6.490
19032SOL     OW58992  12.655  14.256  13.937
19032SOL    HW158993  12.659  14.345  13.972
19032SOL    HW258994  12.741  14.242  13.897
19033SOL     OW58995   0.886  10.893   7.834
19033SOL    HW158996   0.969  10.917   7.793
19033SOL    HW258997   0.887  10.939   7.918
19034SOL     OW58998  13.513   8.742   7.858
19034SOL    HW158999  13.565   8.687   7.800
19034SOL    HW259000  13.525   8.704   7.945
19035SOL     OW59001  10.252   0.808  10.925
19035SOL    HW159002  10.345   0.796  10.907
19035SOL    HW259003  10.223   0.724  10.961
19036SOL     OW59004   1.747  10.401  11.161
19036SOL    HW159005   1.699  10.455  11.225
19036SOL    HW259006   1.777  10.325  11.212
19037SOL     OW59007   1.066  14.061   3.297
19037SOL    HW159008   1.048  14.052   3.391
19037SOL    HW259009   1.136  13.997   3.280
19038SOL     OW59010   3.120   5.028   8.169
19038SOL    HW159011   3.043   5.013   8.113
19038SOL    HW259012   3.190   4.979   8.127
19039SOL     OW59013  14.302   9.774   1.173
19039SOL    HW159014  14.217   9.735   1.153
19039SOL    HW259015  14.342   9.712   1.235
19040SOL     OW59016  12.358  13.218  12.972
19040SOL    HW159017  12.345  13.190  12.881
19040SOL    HW259018  12.418  13.292  12.967
19041SOL     OW59019   4.317  10.523   3.128
19041SOL    HW159020   4.290  10.572   3.206
19041SOL    HW259021   4.412  10.529   3.127
19042SOL     OW59022   5.408   0.704   6.040
19042SOL    HW159023   5.434   0.618   6.007
19042SOL    HW259024   5.393   0.690   6.133
19043SOL     OW59025   5.945   7.846   5.053
19043SOL    HW159026   5.961   7.837   5.147
19043SOL    HW259027   6.026   7.885   5.019
19044SOL     OW59028   1.636   0.417  13.718
19044SOL    HW159029   1.614   0.414  13.812
19044SOL    HW259030   1.554   0.396  13.674
19045SOL     OW59031   6.896   5.786   9.216
19045SOL    HW159032   6.916   5.697   9.189
19045SOL    HW259033   6.821   5.778   9.274
19046SOL     OW59034   4.787  12.371   7.778
19046SOL    HW159035   4.731  12.351   7.853
19046SOL    HW259036   4.733  12.349   7.702
19047SOL     OW59037   8.584   3.392  14.351
19047SOL    HW159038   8.571   3.369  14.443
19047SOL    HW259039   8.598   3.309  14.307
19048SOL     OW59040  10.214   9.036   0.408
19048SOL    HW159041  10.246   9.099   0.473
19048SOL    HW259042  10.292   8.993   0.375
19049SOL     OW59043  13.850   5.974   3.038
19049SOL    HW159044  13.916   6.043   3.045
19049SOL    HW259045  13.797   5.983   3.117
19050SOL     OW59046   3.875   3.737  10.674
19050SOL    HW159047   3.880   3.677  10.748
19050SOL    HW259048   3.966   3.763  10.658
19051SOL     OW59049  11.231   6.602  11.327
19051SOL    HW159050  11.251   6.509  11.336
19051SOL    HW259051  11.295   6.635  11.264
19052SOL     OW59052   5.124  12.561   9.053
19052SOL    HW159053   5.078  12.574   8.971
19052SOL    HW259054   5.056  12.532   9.115
19053SOL     OW59055  14.286   3.019   6.894
19053SOL    HW159056  14.279   3.097   6.839
19053SOL    HW259057  14.199   3.008   6.931
19054SOL     OW59058  10.704   1.472  10.460
19054SOL    HW159059  10.777   1.534  10.462
19054SOL    HW259060  10.703   1.432  10.546
19055SOL     OW59061   4.774   8.578  11.383
19055SOL    HW159062   4.746   8.506  11.326
19055SOL    HW259063   4.823   8.535  11.453
19056SOL     OW59064   8.540   2.512   4.715
19056SOL    HW159065   8.601   2.446   4.750
19056SOL    HW259066   8.453   2.480   4.741
19057SOL     OW59067   9.837  10.004   5.881
19057SOL    HW159068   9.868   9.990   5.792
19057SOL    HW259069   9.913   9.986   5.936
19058SOL     OW59070  12.474  12.385   9.516
19058SOL    HW159071  12.475  12.475   9.547
19058SOL    HW259072  12.469  12.393   9.420
19059SOL     OW59073   6.489   6.238   1.434
19059SOL    HW159074   6.522   6.302   1.372
19059SOL    HW259075   6.497   6.280   1.520
19060SOL     OW59076   4.155  11.740  10.002
19060SOL    HW159077   4.096  11.727  10.076
19060SOL    HW259078   4.158  11.655   9.958
19061SOL     OW59079   7.361   9.047   6.530
19061SOL    HW159080   7.323   8.965   6.563
19061SOL    HW259081   7.449   9.050   6.568
19062SOL     OW59082   4.441   5.838   4.574
19062SOL    HW159083   4.461   5.842   4.480
19062SOL    HW259084   4.386   5.760   4.582
19063SOL     OW59085   5.692   5.513   0.222
19063SOL    HW159086   5.784   5.519   0.250
19063SOL    HW259087   5.694   5.539   0.130
19064SOL     OW59088  11.630  12.617  11.888
19064SOL    HW159089  11.623  12.613  11.983
19064SOL    HW259090  11.623  12.710  11.867
19065SOL     OW59091   7.965   2.424  14.064
19065SOL    HW159092   8.059   2.410  14.050
19065SOL    HW259093   7.940   2.354  14.124
19066SOL     OW59094   2.567   8.120  10.847
19066SOL    HW159095   2.523   8.190  10.895
19066SOL    HW259096   2.497   8.069  10.807
19067SOL     OW59097  11.961  13.735   2.131
19067SOL    HW159098  11.887  13.795   2.119
19067SOL    HW259099  11.929  13.651   2.098
19068SOL     OW59100   9.036  10.771   2.607
19068SOL    HW159101   9.101  10.713   2.647
19068SOL    HW259102   9.020  10.733   2.521
19069SOL     OW59103   1.658  11.296   4.495
19069SOL    HW159104   1.644  11.226   4.431
19069SOL    HW259105   1.753  11.305   4.501
19070SOL     OW59106   7.731  14.877   5.321
19070SOL    HW159107   7.733   0.040   5.405
19070SOL    HW259108   7.781  14.797   5.336
19071SOL     OW59109  11.983  11.142   8.300
19071SOL    HW159110  11.971  11.078   8.230
19071SOL    HW259111  11.934  11.105   8.374
19072SOL     OW59112   7.426   2.035  13.693
19072SOL    HW159113   7.425   1.939  13.700
19072SOL    HW259114   7.336   2.058  13.667
19073SOL     OW59115   9.219   3.408   3.574
19073SOL    HW159116   9.190   3.487   3.529
19073SOL    HW259117   9.298   3.380   3.526
19074SOL     OW59118   3.540  14.483  13.492
19074SOL    HW159119   3.473  14.459  13.429
19074SOL    HW259120   3.622  14.483  13.442
19075SOL     OW59121   7.353   1.287   6.769
19075SOL    HW159122   7.339   1.196   6.796
19075SOL    HW259123   7.366   1.282   6.675
19076SOL     OW59124   9.971  13.890   7.098
19076SOL    HW159125   9.943  13.811   7.052
19076SOL    HW259126  10.046  13.863   7.150
19077SOL     OW59127  14.614   9.121   9.944
19077SOL    HW159128  14.686   9.151   9.889
19077SOL    HW259129  14.592   9.034   9.909
19078SOL     OW59130   5.108   1.609  13.553
19078SOL    HW159131   5.082   1.540  13.614
19078SOL    HW259132   5.088   1.573  13.466
19079SOL     OW59133  13.873   4.146   6.622
19079SOL    HW159134  13.930   4.104   6.686
19079SOL    HW259135  13.840   4.224   6.666
19080SOL     OW59136   2.722   8.964   2.722
19080SOL    HW159137   2.649   8.979   2.783
19080SOL    HW259138   2.743   9.051   2.688
19081SOL     OW59139   5.127   7.109  12.286
19081SOL    HW159140   5.130   7.049  12.361
19081SOL    HW259141   5.035   7.136  12.281
19082SOL     OW59142   9.944   3.854  14.289
19082SOL    HW159143   9.896   3.832  14.209
19082SOL    HW259144   9.877   3.869  14.354
19083SOL     OW59145   4.543  12.864  11.634
19083SOL    HW159146   4.600  12.789  11.616
19083SOL    HW259147   4.604  12.938  11.640
19084SOL     OW59148  11.802  11.560  13.928
19084SOL    HW159149  11.741  11.488  13.942
19084SOL    HW259150  11.842  11.541  13.844
19085SOL     OW59151   0.866   8.536  11.188
19085SOL    HW159152   0.831   8.466  11.132
19085SOL    HW259153   0.944   8.497  11.228
19086SOL     OW59154  11.440   4.295  14.024
19086SOL    HW159155  11.501   4.292  13.951
19086SOL    HW259156  11.452   4.211  14.069
19087SOL     OW59157   7.952   8.650   5.838
19087SOL    HW159158   7.858   8.632   5.837
19087SOL    HW259159   7.975   8.645   5.931
19088SOL     OW59160  12.149   7.256   6.810
19088SOL    HW159161  12.123   7.177   6.763
19088SOL    HW259162  12.110   7.247   6.897
19089SOL     OW59163   0.567  13.897   4.942
19089SOL    HW159164   0.579  13.808   4.974
19089SOL    HW259165   0.653  13.923   4.909
19090SOL     OW59166  12.021   1.157   4.588
19090SOL    HW159167  12.002   1.063   4.586
19090SOL    HW259168  12.024   1.179   4.681
19091SOL     OW59169   6.400   0.657   7.296
19091SOL    HW159170   6.409   0.590   7.229
19091SOL    HW259171   6.429   0.738   7.253
19092SOL     OW59172   3.260   3.060   9.240
19092SOL    HW159173   3.333   2.999   9.249
19092SOL    HW259174   3.193   3.011   9.192
19093SOL     OW59175  12.465  14.270   0.870
19093SOL    HW159176  12.394  14.331   0.847
19093SOL    HW259177  12.542  14.307   0.828
19094SOL     OW59178  10.394   3.590  13.509
19094SOL    HW159179  10.322   3.535  13.538
19094SOL    HW259180  10.356   3.677  13.500
19095SOL     OW59181   3.595   0.681   0.104
19095SOL    HW159182   3.638   0.597   0.085
19095SOL    HW259183   3.584   0.680   0.199
19096SOL     OW59184  11.216  14.134  12.745
19096SOL    HW159185  11.212  14.039  12.728
19096SOL    HW259186  11.296  14.163  12.702
19097SOL     OW59187  11.944   0.779  14.125
19097SOL    HW159188  11.963   0.866  14.088
19097SOL    HW259189  11.999   0.775  14.204
19098SOL     OW59190   6.126   2.093   0.341
19098SOL    HW159191   6.079   2.136   0.413
19098SOL    HW259192   6.059   2.081   0.273
19099SOL     OW59193  11.551  10.248   0.377
19099SOL    HW159194  11.489  10.307   0.421
19099SOL    HW259195  11.530  10.162   0.413
19100SOL     OW59196  13.121   8.511  12.191
19100SOL    HW159197  13.094   8.466  12.111
19100SOL    HW259198  13.138   8.601  12.163
19101SOL     OW59199  12.147   0.215   6.348
19101SOL    HW159200  12.153   0.120   6.360
19101SOL    HW259201  12.238   0.245   6.355
19102SOL     OW59202   1.495   6.064   0.013
19102SOL    HW159203   1.402   6.085   0.000
19102SOL    HW259204   1.525   6.036  14.809
19103SOL     OW59205  13.379  10.710   4.293
19103SOL    HW159206  13.318  10.763   4.345
19103SOL    HW259207  13.327  10.636   4.263
19104SOL     OW59208   4.892  12.792  13.710
19104SOL    HW159209   4.969  12.761  13.662
19104SOL    HW259210   4.874  12.722  13.773
19105SOL     OW59211  12.204  12.250   7.961
19105SOL    HW159212  12.222  12.160   7.990
19105SOL    HW259213  12.258  12.304   8.018
19106SOL     OW59214   6.733   9.552   3.600
19106SOL    HW159215   6.818   9.573   3.561
19106SOL    HW259216   6.718   9.460   3.578
19107SOL     OW59217   9.332   8.433  11.616
19107SOL    HW159218   9.289   8.432  11.701
19107SOL    HW259219   9.352   8.526  11.601
19108SOL     OW59220   5.356   5.184   0.473
19108SOL    HW159221   5.324   5.260   0.521
19108SOL    HW259222   5.421   5.220   0.412
19109SOL     OW59223   1.722   6.221   1.833
19109SOL    HW159224   1.734   6.151   1.897
19109SOL    HW259225   1.766   6.297   1.871
19110SOL     OW59226  10.447   2.145   6.192
19110SOL    HW159227  10.373   2.202   6.213
19110SOL    HW259228  10.523   2.202   6.197
19111SOL     OW59229   3.070   4.710   0.176
19111SOL    HW159230   3.086   4.661   0.256
19111SOL    HW259231   3.093   4.801   0.198
19112SOL     OW59232  13.656   3.978   3.461
19112SOL    HW159233  13.724   4.045   3.457
19112SOL    HW259234  13.596   4.009   3.529
19113SOL     OW59235  11.004   8.020  13.928
19113SOL    HW159236  10.940   7.999  13.860
19113SOL    HW259237  11.070   7.951  13.921
19114SOL     OW59238   4.092   4.434   7.620
19114SOL    HW159239   4.076   4.485   7.699
19114SOL    HW259240   4.186   4.415   7.622
19115SOL     OW59241   8.413  14.312  13.578
19115SOL    HW159242   8.485  14.250  13.594
19115SOL    HW259243   8.444  14.394  13.616
19116SOL     OW59244   3.532   1.744   8.771
19116SOL    HW159245   3.599   1.687   8.733
19116SOL    HW259246   3.459   1.684   8.789
19117SOL     OW59247  14.416   9.544  13.640
19117SOL    HW159248  14.498   9.536  13.592
19117SOL    HW259249  14.419   9.631  13.678
19118SOL     OW59250   3.870   8.254   3.636
19118SOL    HW159251   3.900   8.191   3.571
19118SOL    HW259252   3.775   8.240   3.639
19119SOL     OW59253  13.174   6.982   7.751
19119SOL    HW159254  13.101   6.968   7.811
19119SOL    HW259255  13.209   6.895   7.734
19120SOL     OW59256   1.891   7.029   1.824
19120SOL    HW159257   1.860   7.055   1.911
19120SOL    HW259258   1.812   7.021   1.771
19121SOL     OW59259   4.620  11.436   6.080
19121SOL    HW159260   4.688  11.487   6.124
19121SOL    HW259261   4.669  11.373   6.027
19122SOL     OW59262   4.669   7.367   3.711
19122SOL    HW159263   4.604   7.400   3.649
19122SOL    HW259264   4.619   7.312   3.771
19123SOL     OW59265   2.032   7.829   9.952
19123SOL    HW159266   2.002   7.802   9.865
19123SOL    HW259267   1.988   7.769  10.012
19124SOL     OW59268   3.787   1.490  10.462
19124SOL    HW159269   3.723   1.549  10.503
19124SOL    HW259270   3.816   1.433  10.533
19125SOL     OW59271   0.330   1.605   5.834
19125SOL    HW159272   0.363   1.516   5.823
19125SOL    HW259273   0.335   1.644   5.747
19126SOL     OW59274   1.073   8.905   9.197
19126SOL    HW159275   1.081   8.999   9.213
19126SOL    HW259276   1.158   8.878   9.164
19127SOL     OW59277   4.497  12.139   2.417
19127SOL    HW159278   4.502  12.059   2.468
19127SOL    HW259279   4.504  12.209   2.481
19128SOL     OW59280   8.735   7.719   9.239
19128SOL    HW159281   8.795   7.692   9.169
19128SOL    HW259282   8.753   7.657   9.310
19129SOL     OW59283   5.442   7.980   9.732
19129SOL    HW159284   5.525   8.013   9.766
19129SOL    HW259285   5.468   7.913   9.669
19130SOL     OW59286   8.632  13.686   0.689
19130SOL    HW159287   8.583  13.753   0.737
19130SOL    HW259288   8.714  13.729   0.664
19131SOL     OW59289   5.182   8.639   9.402
19131SOL    HW159290   5.222   8.669   9.484
19131SOL    HW259291   5.133   8.561   9.427
19132SOL     OW59292  14.363   1.939  10.924
19132SOL    HW159293  14.305   2.015  10.918
19132SOL    HW259294  14.350   1.894  10.840
19133SOL     OW59295  13.454   5.245  10.767
19133SOL    HW159296  13.371   5.223  10.726
19133SOL    HW259297  13.516   5.181  10.733
19134SOL     OW59298   2.884   1.763   2.208
19134SOL    HW159299   2.966   1.809   2.229
19134SOL    HW259300   2.899   1.673   2.239
19135SOL     OW59301   5.862   0.384   3.013
19135SOL    HW159302   5.921   0.438   2.961
19135SOL    HW259303   5.775   0.399   2.974
19136SOL     OW59304   5.566   6.385  12.867
19136SOL    HW159305   5.586   6.398  12.960
19136SOL    HW259306   5.471   6.376  12.865
19137SOL     OW59307  12.182   6.851  13.589
19137SOL    HW159308  12.264   6.822  13.549
19137SOL    HW259309  12.156   6.780  13.647
19138SOL     OW59310   9.761   4.254   2.226
19138SOL    HW159311   9.842   4.205   2.212
19138SOL    HW259312   9.774   4.298   2.310
19139SOL     OW59313  12.754  11.616   4.744
19139SOL    HW159314  12.668  11.589   4.776
19139SOL    HW259315  12.739  11.700   4.701
19140SOL     OW59316   0.273   8.973   4.259
19140SOL    HW159317   0.288   9.068   4.254
19140SOL    HW259318   0.276   8.953   4.352
19141SOL     OW59319  14.057   9.654   1.121
19141SOL    HW159320  13.997   9.688   1.187
19141SOL    HW259321  14.005   9.593   1.069
19142SOL     OW59322  13.696   4.020  12.247
19142SOL    HW159323  13.686   3.942  12.192
19142SOL    HW259324  13.785   4.015  12.280
19143SOL     OW59325  12.195   7.156   5.105
19143SOL    HW159326  12.159   7.240   5.132
19143SOL    HW259327  12.230   7.171   5.017
19144SOL     OW59328   0.702   4.660   3.610
19144SOL    HW159329   0.720   4.747   3.573
19144SOL    HW259330   0.608   4.659   3.624
19145SOL     OW59331   7.786   9.138   2.209
19145SOL    HW159332   7.777   9.179   2.295
19145SOL    HW259333   7.747   9.201   2.148
19146SOL     OW59334  12.568   1.757  10.384
19146SOL    HW159335  12.617   1.759  10.302
19146SOL    HW259336  12.561   1.664  10.406
19147SOL     OW59337  11.098   9.549  10.186
19147SOL    HW159338  11.017   9.498  10.185
19147SOL    HW259339  11.136   9.532  10.272
19148SOL     OW59340  11.988  10.809  12.479
19148SOL    HW159341  11.897  10.782  12.488
19148SOL    HW259342  12.039  10.737  12.517
19149SOL     OW59343   8.071   0.719  12.198
19149SOL    HW159344   7.977   0.716  12.215
19149SOL    HW259345   8.110   0.742  12.282
19150SOL     OW59346   0.842   9.194   6.991
19150SOL    HW159347   0.852   9.288   6.976
19150SOL    HW259348   0.884   9.153   6.915
19151SOL     OW59349  11.799  13.324   3.899
19151SOL    HW159350  11.720  13.278   3.869
19151SOL    HW259351  11.766  13.387   3.963
19152SOL     OW59352  13.151   3.724   7.079
19152SOL    HW159353  13.178   3.809   7.113
19152SOL    HW259354  13.064   3.709   7.117
19153SOL     OW59355  14.264   3.426  11.924
19153SOL    HW159356  14.228   3.369  11.856
19153SOL    HW259357  14.193   3.436  11.988
19154SOL     OW59358  11.793   5.260   0.524
19154SOL    HW159359  11.700   5.280   0.511
19154SOL    HW259360  11.801   5.166   0.504
19155SOL     OW59361   2.827   2.960   2.023
19155SOL    HW159362   2.861   2.889   1.969
19155SOL    HW259363   2.754   2.996   1.971
19156SOL     OW59364  10.703  10.385   9.986
19156SOL    HW159365  10.614  10.372  10.018
19156SOL    HW259366  10.719  10.479   9.998
19157SOL     OW59367  10.304   9.994   3.980
19157SOL    HW159368  10.387   9.994   3.932
19157SOL    HW259369  10.326   9.955   4.065
19158SOL     OW59370   9.663   8.270  12.829
19158SOL    HW159371   9.675   8.204  12.898
19158SOL    HW259372   9.740   8.326  12.836
19159SOL     OW59373   5.327  10.695   4.566
19159SOL    HW159374   5.340  10.601   4.575
19159SOL    HW259375   5.348  10.712   4.474
19160SOL     OW59376   8.149  14.402  13.073
19160SOL    HW159377   8.094  14.332  13.038
19160SOL    HW259378   8.186  14.366  13.153
19161SOL     OW59379  11.760   2.730   5.056
19161SOL    HW159380  11.701   2.802   5.080
19161SOL    HW259381  11.846   2.771   5.047
19162SOL     OW59382   9.022   3.000  14.803
19162SOL    HW159383   8.992   2.980  14.715
19162SOL    HW259384   9.088   3.069  14.791
19163SOL     OW59385   7.418  12.026   6.594
19163SOL    HW159386   7.329  12.046   6.565
19163SOL    HW259387   7.474  12.080   6.539
19164SOL     OW59388   4.168  10.658  13.609
19164SOL    HW159389   4.145  10.705  13.689
19164SOL    HW259390   4.152  10.566  13.629
19165SOL     OW59391   3.748  14.555   4.226
19165SOL    HW159392   3.730  14.643   4.258
19165SOL    HW259393   3.825  14.527   4.276
19166SOL     OW59394   3.371   9.685   4.728
19166SOL    HW159395   3.405   9.661   4.814
19166SOL    HW259396   3.312   9.613   4.705
19167SOL     OW59397   4.971   9.977   6.044
19167SOL    HW159398   4.952   9.974   6.138
19167SOL    HW259399   5.038   9.911   6.031
19168SOL     OW59400   5.258   1.238  14.282
19168SOL    HW159401   5.352   1.252  14.281
19168SOL    HW259402   5.233   1.256  14.373
19169SOL     OW59403   7.481   2.569  10.574
19169SOL    HW159404   7.521   2.652  10.601
19169SOL    HW259405   7.398   2.566  10.622
19170SOL     OW59406   9.021   3.828   7.089
19170SOL    HW159407   9.026   3.920   7.063
19170SOL    HW259408   9.110   3.805   7.116
19171SOL     OW59409   0.667   5.586   5.772
19171SOL    HW159410   0.652   5.672   5.732
19171SOL    HW259411   0.676   5.526   5.698
19172SOL     OW59412   9.769  12.518   2.597
19172SOL    HW159413   9.854  12.544   2.631
19172SOL    HW259414   9.765  12.424   2.611
19173SOL     OW59415   4.288   5.399   0.939
19173SOL    HW159416   4.294   5.491   0.914
19173SOL    HW259417   4.295   5.400   1.035
19174SOL     OW59418   0.070   2.506   2.207
19174SOL    HW159419  14.866   2.473   2.230
19174SOL    HW259420   0.127   2.429   2.210
19175SOL     OW59421   9.251   0.286   7.059
19175SOL    HW159422   9.315   0.238   7.007
19175SOL    HW259423   9.259   0.377   7.030
19176SOL     OW59424  13.698  12.529  12.386
19176SOL    HW159425  13.661  12.608  12.424
19176SOL    HW259426  13.665  12.526  12.297
19177SOL     OW59427   9.380   7.428  10.841
19177SOL    HW159428   9.353   7.460  10.927
19177SOL    HW259429   9.301   7.432  10.787
19178SOL     OW59430   3.267   4.717  11.371
19178SOL    HW159431   3.310   4.709  11.286
19178SOL    HW259432   3.312   4.791  11.412
19179SOL     OW59433  14.574  12.831   2.172
19179SOL    HW159434  14.566  12.920   2.136
19179SOL    HW259435  14.515  12.830   2.247
19180SOL     OW59436   5.714  10.882   4.402
19180SOL    HW159437   5.727  10.936   4.323
19180SOL    HW259438   5.745  10.795   4.377
19181SOL     OW59439  10.345   1.169   4.370
19181SOL    HW159440  10.347   1.106   4.299
19181SOL    HW259441  10.367   1.253   4.329
19182SOL     OW59442   8.340  12.328   5.975
19182SOL    HW159443   8.313  12.241   5.948
19182SOL    HW259444   8.419  12.314   6.027
19183SOL     OW59445   8.662  10.919   7.564
19183SOL    HW159446   8.734  10.900   7.504
19183SOL    HW259447   8.706  10.949   7.644
19184SOL     OW59448  10.704   1.678   8.835
19184SOL    HW159449  10.698   1.583   8.849
19184SOL    HW259450  10.763   1.709   8.903
19185SOL     OW59451   6.853  10.468   7.950
19185SOL    HW159452   6.828  10.546   8.000
19185SOL    HW259453   6.948  10.461   7.962
19186SOL     OW59454  12.236   7.983  11.526
19186SOL    HW159455  12.277   7.916  11.581
19186SOL    HW259456  12.154   7.944  11.497
19187SOL     OW59457   7.975   6.942   0.781
19187SOL    HW159458   8.031   6.920   0.706
19187SOL    HW259459   7.974   7.038   0.783
19188SOL     OW59460  11.471   0.049  12.044
19188SOL    HW159461  11.403   0.011  11.989
19188SOL    HW259462  11.517  14.856  12.080
19189SOL     OW59463   9.598  10.137   8.273
19189SOL    HW159464   9.601  10.042   8.258
19189SOL    HW259465   9.676  10.155   8.325
19190SOL     OW59466  13.153   0.121  12.936
19190SOL    HW159467  13.088   0.062  12.899
19190SOL    HW259468  13.149   0.105  13.030
19191SOL     OW59469   1.726   8.008   0.434
19191SOL    HW159470   1.791   7.989   0.366
19191SOL    HW259471   1.763   8.081   0.483
19192SOL     OW59472   2.181   7.512  14.668
19192SOL    HW159473   2.263   7.476  14.636
19192SOL    HW259474   2.125   7.435  14.680
19193SOL     OW59475  13.024   4.298   2.252
19193SOL    HW159476  13.025   4.240   2.329
19193SOL    HW259477  12.935   4.334   2.251
19194SOL     OW59478  11.383  11.320   6.404
19194SOL    HW159479  11.346  11.276   6.327
19194SOL    HW259480  11.470  11.281   6.415
19195SOL     OW59481  14.025   9.669  11.873
19195SOL    HW159482  13.953   9.700  11.818
19195SOL    HW259483  14.073   9.607  11.817
19196SOL     OW59484   8.771   6.435   2.204
19196SOL    HW159485   8.696   6.411   2.260
19196SOL    HW259486   8.780   6.529   2.216
19197SOL     OW59487   9.681   7.907  12.679
19197SOL    HW159488   9.633   7.911  12.761
19197SOL    HW259489   9.676   7.996  12.644
19198SOL     OW59490   6.825  13.071   1.361
19198SOL    HW159491   6.898  13.066   1.300
19198SOL    HW259492   6.762  13.006   1.329
19199SOL     OW59493  14.756  12.617  12.695
19199SOL    HW159494  14.793  12.601  12.609
19199SOL    HW259495  14.675  12.666  12.678
19200SOL     OW59496   0.163   1.896   7.194
19200SOL    HW159497   0.236   1.906   7.134
19200SOL    HW259498   0.090   1.941   7.152
19201SOL     OW59499  13.923   8.439   4.995
19201SOL    HW159500  13.943   8.346   4.982
19201SOL    HW259501  13.838   8.451   4.953
19202SOL     OW59502  11.635   0.002   3.384
19202SOL    HW159503  11.638  14.857   3.475
19202SOL    HW259504  11.725   0.025   3.362
19203SOL     OW59505   4.955   6.098   9.863
19203SOL    HW159506   4.880   6.088   9.922
19203SOL    HW259507   4.925   6.062   9.779
19204SOL     OW59508   6.699   3.157   3.129
19204SOL    HW159509   6.668   3.220   3.194
19204SOL    HW259510   6.726   3.211   3.054
19205SOL     OW59511   7.037  11.054  13.196
19205SOL    HW159512   6.995  11.036  13.112
19205SOL    HW259513   7.127  11.079  13.173
19206SOL     OW59514   1.596   7.185   8.755
19206SOL    HW159515   1.592   7.266   8.805
19206SOL    HW259516   1.585   7.116   8.821
19207SOL     OW59517   4.669   4.185  12.780
19207SOL    HW159518   4.610   4.118  12.816
19207SOL    HW259519   4.611   4.252  12.746
19208SOL     OW59520   2.645   5.138   6.290
19208SOL    HW159521   2.553   5.163   6.298
19208SOL    HW259522   2.650   5.052   6.331
19209SOL     OW59523   9.342   5.570   6.604
19209SOL    HW159524   9.390   5.614   6.534
19209SOL    HW259525   9.314   5.642   6.661
19210SOL     OW59526   8.423  12.929   9.260
19210SOL    HW159527   8.479  12.998   9.294
19210SOL    HW259528   8.476  12.886   9.192
19211SOL     OW59529   6.527   9.251   0.114
19211SOL    HW159530   6.546   9.345   0.117
19211SOL    HW259531   6.587   9.213   0.179
19212SOL     OW59532   8.891  13.811   5.603
19212SOL    HW159533   8.903  13.716   5.608
19212SOL    HW259534   8.927  13.844   5.686
19213SOL     OW59535  10.345  14.234   5.759
19213SOL    HW159536  10.283  14.273   5.697
19213SOL    HW259537  10.353  14.298   5.829
19214SOL     OW59538  13.593   4.246   4.684
19214SOL    HW159539  13.579   4.158   4.650
19214SOL    HW259540  13.620   4.298   4.608
19215SOL     OW59541   4.732  10.348  14.137
19215SOL    HW159542   4.729  10.391  14.222
19215SOL    HW259543   4.824  10.343  14.115
19216SOL     OW59544   8.019  13.611  14.248
19216SOL    HW159545   8.070  13.653  14.317
19216SOL    HW259546   7.943  13.667  14.237
19217SOL     OW59547   5.059   2.754   2.345
19217SOL    HW159548   5.089   2.839   2.377
19217SOL    HW259549   5.003   2.776   2.271
19218SOL     OW59550   8.296  14.077  14.184
19218SOL    HW159551   8.212  14.030  14.178
19218SOL    HW259552   8.306  14.095  14.278
19219SOL     OW59553   2.654   8.827  12.023
19219SOL    HW159554   2.653   8.874  11.940
19219SOL    HW259555   2.580   8.767  12.018
19220SOL     OW59556   5.799   6.242   2.576
19220SOL    HW159557   5.801   6.278   2.487
19220SOL    HW259558   5.885   6.264   2.612
19221SOL     OW59559   1.279   9.551  10.559
19221SOL    HW159560   1.234   9.490  10.618
19221SOL    HW259561   1.370   9.550  10.589
19222SOL     OW59562   5.610   1.297   9.699
19222SOL    HW159563   5.541   1.231   9.710
19222SOL    HW259564   5.576   1.355   9.631
19223SOL     OW59565  11.481   0.163  12.736
19223SOL    HW159566  11.411   0.109  12.772
19223SOL    HW259567  11.445   0.196  12.653
19224SOL     OW59568   2.487   7.391  10.088
19224SOL    HW159569   2.446   7.333  10.152
19224SOL    HW259570   2.581   7.379  10.103
19225SOL     OW59571  10.205  13.107  13.381
19225SOL    HW159572  10.151  13.041  13.338
19225SOL    HW259573  10.230  13.068  13.464
19226SOL     OW59574  11.728   6.887   7.869
19226SOL    HW159575  11.704   6.821   7.934
19226SOL    HW259576  11.651   6.894   7.812
19227SOL     OW59577  10.462   4.270  11.585
19227SOL    HW159578  10.496   4.218  11.512
19227SOL    HW259579  10.415   4.342  11.543
19228SOL     OW59580  13.180   4.198   0.688
19228SOL    HW159581  13.259   4.223   0.640
19228SOL    HW259582  13.113   4.189   0.621
19229SOL     OW59583   0.478   2.839   4.539
19229SOL    HW159584   0.408   2.820   4.477
19229SOL    HW259585   0.459   2.783   4.615
19230SOL     OW59586   2.890   8.065   5.973
19230SOL    HW159587   2.859   8.066   5.883
19230SOL    HW259588   2.959   8.132   5.976
19231SOL     OW59589   7.874   8.219   6.263
19231SOL    HW159590   7.936   8.153   6.231
19231SOL    HW259591   7.845   8.186   6.348
19232SOL     OW59592   0.197   7.861   2.025
19232SOL    HW159593   0.217   7.785   2.080
19232SOL    HW259594   0.267   7.923   2.045
19233SOL     OW59595  12.238   0.037   7.364
19233SOL    HW159596  12.206   0.017   7.452
19233SOL    HW259597  12.185  14.864   7.306
19234SOL     OW59598  10.105   4.942   0.841
19234SOL    HW159599  10.034   4.987   0.888
19234SOL    HW259600  10.060   4.877   0.787
19235SOL     OW59601   5.575  11.348   9.526
19235SOL    HW159602   5.547  11.416   9.587
19235SOL    HW259603   5.497  11.294   9.513
19236SOL     OW59604   7.689  14.619   4.290
19236SOL    HW159605   7.745  14.697   4.282
19236SOL    HW259606   7.632  14.622   4.213
19237SOL     OW59607   4.581   9.982   0.216
19237SOL    HW159608   4.589  10.004   0.123
19237SOL    HW259609   4.491  10.004   0.239
19238SOL     OW59610  13.399   9.192  10.289
19238SOL    HW159611  13.347   9.161  10.363
19238SOL    HW259612  13.486   9.154  10.302
19239SOL     OW59613   4.144   8.600   9.716
19239SOL    HW159614   4.198   8.553   9.653
19239SOL    HW259615   4.168   8.692   9.704
19240SOL     OW59616   0.339  13.510  11.600
19240SOL    HW159617   0.340  13.494  11.506
19240SOL    HW259618   0.429  13.533  11.622
19241SOL     OW59619   8.207   3.327   6.867
19241SOL    HW159620   8.154   3.366   6.937
19241SOL    HW259621   8.297   3.335   6.897
19242SOL     OW59622   4.480   3.663   9.363
19242SOL    HW159623   4.480   3.578   9.408
19242SOL    HW259624   4.472   3.642   9.270
19243SOL     OW59625  12.503   2.075   4.065
19243SOL    HW159626  12.431   2.091   4.126
19243SOL    HW259627  12.558   2.154   4.072
19244SOL     OW59628   4.586   0.997  11.053
19244SOL    HW159629   4.563   0.905  11.038
19244SOL    HW259630   4.516   1.030  11.109
19245SOL     OW59631   3.666   1.549   5.309
19245SOL    HW159632   3.725   1.497   5.364
19245SOL    HW259633   3.709   1.552   5.224
19246SOL     OW59634   9.850   2.879  12.236
19246SOL    HW159635   9.915   2.916  12.176
19246SOL    HW259636   9.881   2.791  12.255
19247SOL     OW59637  14.843  10.273   2.102
19247SOL    HW159638  14.839  10.364   2.072
19247SOL    HW259639   0.025  10.232   2.044
19248SOL     OW59640   3.980   0.483   5.447
19248SOL    HW159641   4.032   0.542   5.502
19248SOL    HW259642   3.891   0.489   5.484
19249SOL     OW59643  10.304   6.715  13.662
19249SOL    HW159644  10.327   6.623  13.673
19249SOL    HW259645  10.223   6.726  13.711
19250SOL     OW59646  12.107   4.477   1.201
19250SOL    HW159647  12.019   4.485   1.167
19250SOL    HW259648  12.152   4.420   1.139
19251SOL     OW59649  14.332   8.144   3.214
19251SOL    HW159650  14.378   8.152   3.298
19251SOL    HW259651  14.240   8.161   3.236
19252SOL     OW59652   6.353   0.469   9.454
19252SOL    HW159653   6.322   0.557   9.432
19252SOL    HW259654   6.328   0.416   9.379
19253SOL     OW59655  11.342   7.430   8.907
19253SOL    HW159656  11.321   7.471   8.991
19253SOL    HW259657  11.414   7.370   8.927
19254SOL     OW59658   5.689  14.531   1.706
19254SOL    HW159659   5.724  14.546   1.618
19254SOL    HW259660   5.730  14.449   1.735
19255SOL     OW59661   2.982   0.432  11.427
19255SOL    HW159662   3.057   0.384  11.391
19255SOL    HW259663   2.905   0.391  11.388
19256SOL     OW59664  14.731   8.022   2.679
19256SOL    HW159665  14.779   7.985   2.605
19256SOL    HW259666  14.658   8.069   2.639
19257SOL     OW59667   9.250   7.825  13.855
19257SOL    HW159668   9.320   7.889  13.848
19257SOL    HW259669   9.189   7.848  13.784
19258SOL     OW59670   5.088   3.179  11.160
19258SOL    HW159671   5.175   3.146  11.140
19258SOL    HW259672   5.044   3.184  11.075
19259SOL     OW59673  13.249  14.245  10.511
19259SOL    HW159674  13.284  14.299  10.440
19259SOL    HW259675  13.212  14.168  10.466
19260SOL     OW59676   6.476   5.115  14.045
19260SOL    HW159677   6.556   5.148  14.005
19260SOL    HW259678   6.407   5.138  13.983
19261SOL     OW59679   0.054   4.876   8.870
19261SOL    HW159680   0.069   4.946   8.806
19261SOL    HW259681  14.841   4.865   8.871
19262SOL     OW59682   1.653  14.446   6.595
19262SOL    HW159683   1.729  14.448   6.536
19262SOL    HW259684   1.607  14.365   6.573
19263SOL     OW59685  13.137   3.795   4.437
19263SOL    HW159686  13.173   3.718   4.393
19263SOL    HW259687  13.213   3.836   4.478
19264SOL     OW59688   2.869  11.988   6.995
19264SOL    HW159689   2.923  11.921   7.039
19264SOL    HW259690   2.840  11.946   6.914
19265SOL     OW59691  14.734  11.396   1.075
19265SOL    HW159692  14.708  11.432   0.990
19265SOL    HW259693  14.830  11.401   1.074
19266SOL     OW59694  13.912   8.559  11.346
19266SOL    HW159695  13.998   8.557  11.387
19266SOL    HW259696  13.930   8.545  11.253
19267SOL     OW59697  13.979   9.335   8.008
19267SOL    HW159698  13.990   9.333   8.103
19267SOL    HW259699  13.885   9.352   7.995
19268SOL     OW59700   8.332  12.271  13.339
19268SOL    HW159701   8.395  12.323  13.290
19268SOL    HW259702   8.265  12.247  13.275
19269SOL     OW59703  11.664  12.347  12.266
19269SOL    HW159704  11.711  12.264  12.274
19269SOL    HW259705  11.734  12.413  12.261
19270SOL     OW59706  13.371   4.912   8.655
19270SOL    HW159707  13.439   4.892   8.719
19270SOL    HW259708  13.291   4.921   8.707
19271SOL     OW59709   9.414   4.734   3.386
19271SOL    HW159710   9.504   4.764   3.399
19271SOL    HW259711   9.372   4.745   3.471
19272SOL     OW59712  12.806   3.103   0.343
19272SOL    HW159713  12.747   3.027   0.342
19272SOL    HW259714  12.826   3.119   0.251
19273SOL     OW59715  14.483   1.323  10.053
19273SOL    HW159716  14.419   1.392  10.037
19273SOL    HW259717  14.535   1.319   9.973
19274SOL     OW59718  12.183  12.422   6.928
19274SOL    HW159719  12.159  12.330   6.918
19274SOL    HW259720  12.178  12.459   6.840
19275SOL     OW59721   9.930   0.489   6.167
19275SOL    HW159722   9.937   0.394   6.174
19275SOL    HW259723  10.002   0.514   6.109
19276SOL     OW59724   4.034   0.873   7.331
19276SOL    HW159725   4.093   0.945   7.311
19276SOL    HW259726   4.074   0.797   7.286
19277SOL     OW59727  14.493   4.321  11.308
19277SOL    HW159728  14.536   4.239  11.335
19277SOL    HW259729  14.444   4.348  11.386
19278SOL     OW59730   7.066  12.873   3.748
19278SOL    HW159731   7.001  12.918   3.695
19278SOL    HW259732   7.149  12.886   3.701
19279SOL     OW59733   9.844   1.636  12.902
19279SOL    HW159734   9.818   1.639  12.995
19279SOL    HW259735   9.878   1.547  12.890
19280SOL     OW59736   4.916  13.282   1.961
19280SOL    HW159737   5.012  13.274   1.968
19280SOL    HW259738   4.898  13.373   1.986
19281SOL     OW59739   7.546   9.320   6.172
19281SOL    HW159740   7.514   9.253   6.233
19281SOL    HW259741   7.494   9.307   6.093
19282SOL     OW59742   1.661   2.167   9.014
19282SOL    HW159743   1.613   2.192   8.935
19282SOL    HW259744   1.684   2.250   9.055
19283SOL     OW59745   2.820  10.479  11.991
19283SOL    HW159746   2.834  10.522  11.907
19283SOL    HW259747   2.743  10.522  12.027
19284SOL     OW59748  14.846   3.056   5.634
19284SOL    HW159749   0.011   2.977   5.609
19284SOL    HW259750   0.029   3.126   5.628
19285SOL     OW59751   7.815   9.043   7.292
19285SOL    HW159752   7.746   8.977   7.292
19285SOL    HW259753   7.774   9.120   7.330
19286SOL     OW59754   3.068  14.540   7.391
19286SOL    HW159755   3.035  14.569   7.476
19286SOL    HW259756   3.008  14.470   7.365
19287SOL     OW59757  10.126   2.719   8.849
19287SOL    HW159758  10.058   2.787   8.848
19287SOL    HW259759  10.113   2.673   8.932
19288SOL     OW59760  13.077   0.076   0.872
19288SOL    HW159761  13.173   0.082   0.878
19288SOL    HW259762  13.057   0.104   0.783
19289SOL     OW59763  13.883   6.168   6.615
19289SOL    HW159764  13.945   6.180   6.543
19289SOL    HW259765  13.910   6.233   6.681
19290SOL     OW59766   5.536  11.594  12.572
19290SOL    HW159767   5.450  11.554  12.581
19290SOL    HW259768   5.560  11.580  12.480
19291SOL     OW59769   0.598  12.113   1.820
19291SOL    HW159770   0.587  12.191   1.765
19291SOL    HW259771   0.591  12.039   1.759
19292SOL     OW59772   3.453   9.302  12.028
19292SOL    HW159773   3.357   9.306  12.036
19292SOL    HW259774   3.484   9.378  12.076
19293SOL     OW59775   6.295  13.782  10.171
19293SOL    HW159776   6.312  13.724  10.246
19293SOL    HW259777   6.208  13.757  10.141
19294SOL     OW59778   3.340   5.598   0.667
19294SOL    HW159779   3.376   5.659   0.730
19294SOL    HW259780   3.364   5.634   0.582
19295SOL     OW59781  12.920   1.443  13.654
19295SOL    HW159782  12.962   1.384  13.717
19295SOL    HW259783  12.941   1.531  13.685
19296SOL     OW59784   6.491   2.379   5.663
19296SOL    HW159785   6.404   2.396   5.626
19296SOL    HW259786   6.549   2.439   5.616
19297SOL     OW59787   2.738  12.003   5.199
19297SOL    HW159788   2.773  12.031   5.284
19297SOL    HW259789   2.731  11.908   5.207
19298SOL     OW59790   1.006   1.838   2.214
19298SOL    HW159791   1.013   1.790   2.131
19298SOL    HW259792   1.095   1.840   2.248
19299SOL     OW59793  11.624  12.378  14.554
19299SOL    HW159794  11.686  12.324  14.603
19299SOL    HW259795  11.596  12.444  14.618
19300SOL     OW59796   9.615  12.134   5.193
19300SOL    HW159797   9.704  12.169   5.197
19300SOL    HW259798   9.583  12.140   5.283
19301SOL     OW59799  10.984   5.098   4.127
19301SOL    HW159800  11.015   5.067   4.042
19301SOL    HW259801  11.048   5.065   4.190
19302SOL     OW59802  14.559   4.232   9.130
19302SOL    HW159803  14.514   4.148   9.135
19302SOL    HW259804  14.601   4.232   9.044
19303SOL     OW59805   6.527  14.369   0.225
19303SOL    HW159806   6.576  14.403   0.150
19303SOL    HW259807   6.436  14.386   0.203
19304SOL     OW59808  12.112  12.094  10.742
19304SOL    HW159809  12.157  12.106  10.658
19304SOL    HW259810  12.164  12.027  10.787
19305SOL     OW59811  12.635   1.527  12.717
19305SOL    HW159812  12.612   1.499  12.628
19305SOL    HW259813  12.639   1.622  12.712
19306SOL     OW59814  12.108   3.939  13.519
19306SOL    HW159815  12.092   4.000  13.591
19306SOL    HW259816  12.049   3.866  13.537
19307SOL     OW59817   4.657   4.760   5.192
19307SOL    HW159818   4.665   4.702   5.116
19307SOL    HW259819   4.672   4.848   5.156
19308SOL     OW59820  10.704  14.750   8.818
19308SOL    HW159821  10.695  14.796   8.901
19308SOL    HW259822  10.796  14.721   8.818
19309SOL     OW59823  13.189  12.821  10.898
19309SOL    HW159824  13.131  12.807  10.823
19309SOL    HW259825  13.161  12.755  10.962
19310SOL     OW59826   3.221   1.205   1.536
19310SOL    HW159827   3.260   1.268   1.596
19310SOL    HW259828   3.295   1.165   1.491
19311SOL     OW59829   5.965  11.708  12.354
19311SOL    HW159830   6.044  11.751  12.320
19311SOL    HW259831   5.929  11.660  12.279
19312SOL     OW59832   5.801   6.992   6.855
19312SOL    HW159833   5.869   7.059   6.846
19312SOL    HW259834   5.810   6.961   6.945
19313SOL     OW59835  11.686   8.003   2.922
19313SOL    HW159836  11.700   8.079   2.867
19313SOL    HW259837  11.762   8.001   2.980
19314SOL     OW59838   7.768   1.603   8.220
19314SOL    HW159839   7.840   1.612   8.282
19314SOL    HW259840   7.701   1.554   8.268
19315SOL     OW59841  14.652   5.956   8.631
19315SOL    HW159842  14.593   5.984   8.560
19315SOL    HW259843  14.615   5.996   8.710
19316SOL     OW59844  10.275   5.930   3.661
19316SOL    HW159845  10.277   5.869   3.735
19316SOL    HW259846  10.363   5.926   3.623
19317SOL     OW59847  13.656   1.352   1.257
19317SOL    HW159848  13.749   1.333   1.271
19317SOL    HW259849  13.610   1.285   1.308
19318SOL     OW59850   7.833  10.384   9.652
19318SOL    HW159851   7.835  10.428   9.567
19318SOL    HW259852   7.752  10.332   9.650
19319SOL     OW59853  14.541   3.405   5.437
19319SOL    HW159854  14.508   3.474   5.495
19319SOL    HW259855  14.574   3.337   5.496
19320SOL     OW59856  10.240   3.699   4.037
19320SOL    HW159857  10.178   3.627   4.047
19320SOL    HW259858  10.201   3.756   3.972
19321SOL     OW59859   7.188   5.298   4.574
19321SOL    HW159860   7.237   5.277   4.653
19321SOL    HW259861   7.136   5.375   4.599
19322SOL     OW59862   7.410   0.049   1.770
19322SOL    HW159863   7.362   0.092   1.699
19322SOL    HW259864   7.342   0.012   1.826
19323SOL     OW59865   6.651   1.505  10.078
19323SOL    HW159866   6.723   1.442  10.083
19323SOL    HW259867   6.594   1.484  10.152
19324SOL     OW59868   5.936  10.871  13.674
19324SOL    HW159869   5.863  10.829  13.628
19324SOL    HW259870   5.992  10.799  13.702
19325SOL     OW59871   4.562   2.946  13.824
19325SOL    HW159872   4.467   2.938  13.816
19325SOL    HW259873   4.584   3.025  13.774
19326SOL     OW59874  12.733  10.439  13.972
19326SOL    HW159875  12.822  10.430  14.008
19326SOL    HW259876  12.713  10.353  13.936
19327SOL     OW59877   2.373   0.973   1.871
19327SOL    HW159878   2.393   0.880   1.866
19327SOL    HW259879   2.327   0.983   1.955
19328SOL     OW59880   1.589  10.834  13.856
19328SOL    HW159881   1.592  10.747  13.815
19328SOL    HW259882   1.535  10.822  13.934
19329SOL     OW59883   5.723   3.688  10.055
19329SOL    HW159884   5.758   3.701   9.967
19329SOL    HW259885   5.793   3.718  10.113
19330SOL     OW59886   8.048  11.952  13.552
19330SOL    HW159887   7.991  12.027  13.537
19330SOL    HW259888   8.136  11.990  13.560
19331SOL     OW59889  10.896   7.653   2.806
19331SOL    HW159890  10.848   7.710   2.747
19331SOL    HW259891  10.916   7.708   2.882
19332SOL     OW59892   9.927   7.966   9.293
19332SOL    HW159893   9.882   8.050   9.288
19332SOL    HW259894  10.011   7.986   9.334
19333SOL     OW59895   0.173  10.333   3.506
19333SOL    HW159896   0.253  10.374   3.471
19333SOL    HW259897   0.102  10.373   3.455
19334SOL     OW59898   7.849   4.739   2.458
19334SOL    HW159899   7.927   4.683   2.452
19334SOL    HW259900   7.776   4.677   2.455
19335SOL     OW59901   3.172   6.854  14.841
19335SOL    HW159902   3.081   6.855  14.872
19335SOL    HW259903   3.209   6.773  14.877
19336SOL     OW59904  11.673   4.522   2.061
19336SOL    HW159905  11.713   4.486   1.982
19336SOL    HW259906  11.653   4.613   2.038
19337SOL     OW59907   4.693   2.569   4.653
19337SOL    HW159908   4.740   2.573   4.570
19337SOL    HW259909   4.604   2.596   4.631
19338SOL     OW59910   4.038   1.943  14.504
19338SOL    HW159911   3.976   1.933  14.432
19338SOL    HW259912   4.082   1.858  14.510
19339SOL     OW59913   1.288   0.686  11.125
19339SOL    HW159914   1.301   0.640  11.042
19339SOL    HW259915   1.270   0.617  11.188
19340SOL     OW59916   7.256   6.354  13.818
19340SOL    HW159917   7.179   6.409  13.803
19340SOL    HW259918   7.249   6.286  13.750
19341SOL     OW59919  13.679  13.215   1.555
19341SOL    HW159920  13.594  13.183   1.525
19341SOL    HW259921  13.699  13.160   1.632
19342SOL     OW59922   2.055   1.102   9.339
19342SOL    HW159923   2.076   1.073   9.427
19342SOL    HW259924   2.074   1.196   9.340
19343SOL     OW59925  12.348   5.990   0.931
19343SOL    HW159926  12.281   5.922   0.938
19343SOL    HW259927  12.430   5.945   0.953
19344SOL     OW59928  13.676   7.628  10.033
19344SOL    HW159929  13.745   7.636   9.967
19344SOL    HW259930  13.601   7.674   9.995
19345SOL     OW59931   8.958  14.412   6.194
19345SOL    HW159932   8.899  14.478   6.159
19345SOL    HW259933   8.957  14.426   6.289
19346SOL     OW59934   7.955   5.931   5.262
19346SOL    HW159935   7.998   6.000   5.211
19346SOL    HW259936   7.998   5.850   5.234
19347SOL     OW59937  14.016   6.059   7.827
19347SOL    HW159938  13.989   6.096   7.743
19347SOL    HW259939  13.936   6.055   7.879
19348SOL     OW59940   7.888   0.668   9.738
19348SOL    HW159941   7.958   0.623   9.787
19348SOL    HW259942   7.880   0.620   9.656
19349SOL     OW59943  14.611   9.605   6.947
19349SOL    HW159944  14.666   9.559   6.883
19349SOL    HW259945  14.530   9.554   6.950
19350SOL     OW59946   6.196   6.121  12.106
19350SOL    HW159947   6.184   6.045  12.049
19350SOL    HW259948   6.186   6.196  12.047
19351SOL     OW59949   1.604   7.405  14.482
19351SOL    HW159950   1.521   7.394  14.435
19351SOL    HW259951   1.671   7.397  14.414
19352SOL     OW59952   7.663   8.641   7.771
19352SOL    HW159953   7.734   8.646   7.706
19352SOL    HW259954   7.690   8.701   7.840
19353SOL     OW59955   9.955   9.705   9.633
19353SOL    HW159956  10.030   9.647   9.622
19353SOL    HW259957   9.951   9.720   9.728
19354SOL     OW59958   1.906   4.296   2.029
19354SOL    HW159959   1.880   4.217   1.982
19354SOL    HW259960   1.826   4.324   2.074
19355SOL     OW59961   2.903  12.581  12.980
19355SOL    HW159962   2.826  12.548  12.934
19355SOL    HW259963   2.977  12.556  12.925
19356SOL     OW59964   6.991  14.769   6.451
19356SOL    HW159965   6.986  14.840   6.515
19356SOL    HW259966   7.041  14.805   6.378
19357SOL     OW59967  10.846   6.029  14.727
19357SOL    HW159968  10.918   6.080  14.690
19357SOL    HW259969  10.771   6.088  14.727
19358SOL     OW59970   8.344  11.094  12.339
19358SOL    HW159971   8.320  11.095  12.246
19358SOL    HW259972   8.435  11.124  12.340
19359SOL     OW59973   3.257  10.619   0.063
19359SOL    HW159974   3.314  10.543   0.058
19359SOL    HW259975   3.187  10.601   0.000
19360SOL     OW59976   5.093  13.360   0.859
19360SOL    HW159977   5.118  13.330   0.772
19360SOL    HW259978   5.078  13.454   0.848
19361SOL     OW59979   9.213   6.232   5.884
19361SOL    HW159980   9.261   6.161   5.840
19361SOL    HW259981   9.135   6.244   5.830
19362SOL     OW59982   2.448   4.740   5.019
19362SOL    HW159983   2.481   4.829   5.019
19362SOL    HW259984   2.502   4.693   5.083
19363SOL     OW59985   0.058   5.386   6.008
19363SOL    HW159986  14.862   5.373   5.955
19363SOL    HW259987   0.080   5.299   6.041
19364SOL     OW59988   2.848  13.648  14.483
19364SOL    HW159989   2.772  13.620  14.432
19364SOL    HW259990   2.813  13.666  14.570
19365SOL     OW59991   1.981   4.928   5.021
19365SOL    HW159992   1.941   4.979   5.092
19365SOL    HW259993   1.926   4.946   4.945
19366SOL     OW59994   3.423  13.089  12.149
19366SOL    HW159995   3.351  13.151  12.157
19366SOL    HW259996   3.452  13.072  12.238
19367SOL     OW59997   8.158   1.908   0.097
19367SOL    HW159998   8.142   1.937   0.008
19367SOL    HW259999   8.223   1.838   0.089
19368SOL     OW60000   2.552   4.621  12.846
19368SOL    HW160001   2.529   4.530  12.827
19368SOL    HW260002   2.648   4.622  12.846
19369SOL     OW60003  12.625   5.085   7.667
19369SOL    HW160004  12.669   5.014   7.713
19369SOL    HW260005  12.678   5.162   7.684
19370SOL     OW60006   2.047  14.472   8.420
19370SOL    HW160007   2.124  14.488   8.475
19370SOL    HW260008   1.991  14.548   8.435
19371SOL     OW60009   4.690   2.288  14.652
19371SOL    HW160010   4.702   2.383  14.655
19371SOL    HW260011   4.604   2.276  14.613
19372SOL     OW60012   5.561   7.230  13.485
19372SOL    HW160013   5.611   7.148  13.482
19372SOL    HW260014   5.551   7.255  13.394
19373SOL     OW60015   2.767  13.631   3.202
19373SOL    HW160016   2.741  13.579   3.125
19373SOL    HW260017   2.849  13.592   3.231
19374SOL     OW60018   4.087   1.009   3.606
19374SOL    HW160019   4.087   0.921   3.567
19374SOL    HW260020   4.178   1.024   3.633
19375SOL     OW60021   4.767  10.222  13.825
19375SOL    HW160022   4.709  10.224  13.901
19375SOL    HW260023   4.710  10.237  13.750
19376SOL     OW60024   0.540   3.920   5.079
19376SOL    HW160025   0.554   3.863   5.155
19376SOL    HW260026   0.447   3.942   5.081
19377SOL     OW60027   4.767   8.907  11.821
19377SOL    HW160028   4.815   8.886  11.740
19377SOL    HW260029   4.730   8.823  11.849
19378SOL     OW60030   1.476   0.121   6.912
19378SOL    HW160031   1.435   0.121   6.999
19378SOL    HW260032   1.512   0.033   6.903
19379SOL     OW60033   6.579  13.758   5.705
19379SOL    HW160034   6.539  13.672   5.718
19379SOL    HW260035   6.525  13.818   5.756
19380SOL     OW60036   4.243   8.318   7.757
19380SOL    HW160037   4.275   8.315   7.667
19380SOL    HW260038   4.317   8.353   7.807
19381SOL     OW60039   8.269   0.167   2.861
19381SOL    HW160040   8.344   0.226   2.853
19381SOL    HW260041   8.272   0.136   2.952
19382SOL     OW60042   9.268   2.525   7.895
19382SOL    HW160043   9.245   2.491   7.809
19382SOL    HW260044   9.358   2.557   7.885
19383SOL     OW60045  11.178  14.533   8.109
19383SOL    HW160046  11.196  14.625   8.089
19383SOL    HW260047  11.264  14.494   8.124
19384SOL     OW60048  10.169  10.925   4.461
19384SOL    HW160049  10.204  10.933   4.372
19384SOL    HW260050  10.074  10.928   4.449
19385SOL     OW60051  11.343   1.453   8.436
19385SOL    HW160052  11.339   1.548   8.432
19385SOL    HW260053  11.293   1.424   8.359
19386SOL     OW60054   0.800   8.013  13.399
19386SOL    HW160055   0.879   8.063  13.378
19386SOL    HW260056   0.780   7.965  13.318
19387SOL     OW60057   6.334  11.769   8.584
19387SOL    HW160058   6.372  11.684   8.563
19387SOL    HW260059   6.270  11.785   8.515
19388SOL     OW60060   5.826   2.427   2.238
19388SOL    HW160061   5.797   2.479   2.164
19388SOL    HW260062   5.801   2.337   2.216
19389SOL     OW60063   4.928   7.454   8.785
19389SOL    HW160064   4.979   7.535   8.786
19389SOL    HW260065   4.991   7.385   8.804
19390SOL     OW60066   2.450  14.290   6.314
19390SOL    HW160067   2.491  14.360   6.365
19390SOL    HW260068   2.479  14.305   6.224
19391SOL     OW60069  13.928   5.143   7.509
19391SOL    HW160070  13.870   5.067   7.506
19391SOL    HW260071  13.964   5.150   7.420
19392SOL     OW60072   5.100   6.571   8.627
19392SOL    HW160073   5.053   6.498   8.587
19392SOL    HW260074   5.033   6.635   8.648
19393SOL     OW60075  12.878   7.450   3.013
19393SOL    HW160076  12.965   7.459   2.976
19393SOL    HW260077  12.820   7.487   2.947
19394SOL     OW60078   9.149   6.016  10.400
19394SOL    HW160079   9.124   6.078  10.469
19394SOL    HW260080   9.066   5.993  10.358
19395SOL     OW60081  11.524   6.193   1.286
19395SOL    HW160082  11.575   6.181   1.206
19395SOL    HW260083  11.566   6.266   1.331
19396SOL     OW60084   7.687   0.482   1.168
19396SOL    HW160085   7.693   0.550   1.235
19396SOL    HW260086   7.608   0.433   1.190
19397SOL     OW60087   4.942  14.501   8.693
19397SOL    HW160088   4.928  14.593   8.717
19397SOL    HW260089   4.993  14.504   8.613
19398SOL     OW60090   6.417  11.253   9.743
19398SOL    HW160091   6.399  11.181   9.683
19398SOL    HW260092   6.513  11.259   9.745
19399SOL     OW60093  13.800   6.384   4.568
19399SOL    HW160094  13.719   6.407   4.523
19399SOL    HW260095  13.828   6.465   4.611
19400SOL     OW60096   5.846   0.393   3.910
19400SOL    HW160097   5.770   0.374   3.854
19400SOL    HW260098   5.901   0.315   3.903
19401SOL     OW60099   5.759   9.310  11.016
19401SOL    HW160100   5.791   9.269  10.936
19401SOL    HW260101   5.829   9.370  11.042
19402SOL     OW60102   7.833  12.889  12.572
19402SOL    HW160103   7.754  12.918  12.618
19402SOL    HW260104   7.803  12.817  12.516
19403SOL     OW60105  10.776   1.657   2.719
19403SOL    HW160106  10.684   1.629   2.723
19403SOL    HW260107  10.794   1.691   2.807
19404SOL     OW60108   7.151  13.972   2.380
19404SOL    HW160109   7.094  13.977   2.456
19404SOL    HW260110   7.133  13.887   2.341
19405SOL     OW60111   9.921  12.946   0.717
19405SOL    HW160112   9.998  12.889   0.711
19405SOL    HW260113   9.945  13.024   0.668
19406SOL     OW60114   9.761   2.939   3.880
19406SOL    HW160115   9.846   2.904   3.854
19406SOL    HW260116   9.763   3.030   3.848
19407SOL     OW60117   2.579  14.351   1.866
19407SOL    HW160118   2.487  14.339   1.891
19407SOL    HW260119   2.579  14.428   1.809
19408SOL     OW60120   3.480  10.088  11.501
19408SOL    HW160121   3.485  10.031  11.424
19408SOL    HW260122   3.434  10.036  11.566
19409SOL     OW60123   3.090   8.245   6.002
19409SOL    HW160124   3.179   8.260   5.971
19409SOL    HW260125   3.056   8.333   6.021
19410SOL     OW60126   9.073   7.678   0.576
19410SOL    HW160127   8.997   7.660   0.520
19410SOL    HW260128   9.113   7.593   0.591
19411SOL     OW60129  13.589  14.210   3.901
19411SOL    HW160130  13.574  14.254   3.985
19411SOL    HW260131  13.671  14.163   3.914
19412SOL     OW60132  12.212  13.198   6.551
19412SOL    HW160133  12.276  13.172   6.618
19412SOL    HW260134  12.226  13.136   6.480
19413SOL     OW60135   4.803  12.891  12.674
19413SOL    HW160136   4.735  12.956  12.654
19413SOL    HW260137   4.854  12.930  12.745
19414SOL     OW60138   6.860   2.698   1.746
19414SOL    HW160139   6.955   2.703   1.755
19414SOL    HW260140   6.846   2.672   1.655
19415SOL     OW60141   8.142   2.454   5.973
19415SOL    HW160142   8.205   2.522   5.949
19415SOL    HW260143   8.058   2.499   5.978
19416SOL     OW60144   5.607  10.508   0.396
19416SOL    HW160145   5.642  10.448   0.462
19416SOL    HW260146   5.538  10.556   0.442
19417SOL     OW60147  11.920   1.979   4.143
19417SOL    HW160148  11.920   1.965   4.238
19417SOL    HW260149  11.862   1.911   4.109
19418SOL     OW60150   0.151   1.967   4.666
19418SOL    HW160151   0.116   1.885   4.698
19418SOL    HW260152   0.246   1.960   4.680
19419SOL     OW60153   1.038   0.067  10.496
19419SOL    HW160154   1.085   0.147  10.519
19419SOL    HW260155   1.097  14.878  10.524
19420SOL     OW60156   9.269   8.945   4.195
19420SOL    HW160157   9.205   8.877   4.215
19420SOL    HW260158   9.279   8.994   4.277
19421SOL     OW60159   4.403  14.758   7.580
19421SOL    HW160160   4.441  14.774   7.493
19421SOL    HW260161   4.476  14.770   7.640
19422SOL     OW60162   5.065  11.711   8.416
19422SOL    HW160163   5.044  11.644   8.480
19422SOL    HW260164   5.029  11.792   8.453
19423SOL     OW60165   2.980   0.717  14.206
19423SOL    HW160166   3.066   0.725  14.247
19423SOL    HW260167   2.949   0.807  14.198
19424SOL     OW60168  10.501  12.623   3.614
19424SOL    HW160169  10.570  12.665   3.665
19424SOL    HW260170  10.426  12.618   3.673
19425SOL     OW60171   6.379  12.735   3.183
19425SOL    HW160172   6.303  12.750   3.126
19425SOL    HW260173   6.395  12.641   3.176
19426SOL     OW60174   1.448   0.784  14.524
19426SOL    HW160175   1.472   0.698  14.489
19426SOL    HW260176   1.456   0.843  14.449
19427SOL     OW60177   5.011   2.587  13.803
19427SOL    HW160178   5.006   2.625  13.716
19427SOL    HW260179   4.993   2.494  13.790
19428SOL     OW60180   8.119   6.936   2.801
19428SOL    HW160181   8.118   6.849   2.842
19428SOL    HW260182   8.037   6.976   2.830
19429SOL     OW60183   7.924   2.875   6.574
19429SOL    HW160184   8.010   2.879   6.616
19429SOL    HW260185   7.870   2.828   6.638
19430SOL     OW60186   0.329  14.565  13.135
19430SOL    HW160187   0.364  14.650  13.159
19430SOL    HW260188   0.244  14.584  13.094
19431SOL     OW60189  14.409   9.131   6.986
19431SOL    HW160190  14.478   9.065   6.977
19431SOL    HW260191  14.391   9.134   7.080
19432SOL     OW60192   2.600  14.656  12.885
19432SOL    HW160193   2.536  14.727  12.872
19432SOL    HW260194   2.622  14.628  12.796
19433SOL     OW60195   3.455   4.384   1.478
19433SOL    HW160196   3.467   4.340   1.393
19433SOL    HW260197   3.398   4.458   1.458
19434SOL     OW60198  11.637  13.328   1.373
19434SOL    HW160199  11.590  13.254   1.335
19434SOL    HW260200  11.595  13.405   1.336
19435SOL     OW60201  12.437   8.331  11.249
19435SOL    HW160202  12.356   8.371  11.217
19435SOL    HW260203  12.505   8.366  11.190
19436SOL     OW60204   5.421  12.423  13.942
19436SOL    HW160205   5.452  12.341  13.904
19436SOL    HW260206   5.400  12.478  13.867
19437SOL     OW60207  10.460  11.278   4.694
19437SOL    HW160208  10.377  11.230   4.698
19437SOL    HW260209  10.443  11.349   4.631
19438SOL     OW60210   8.680   8.466   4.962
19438SOL    HW160211   8.759   8.441   4.914
19438SOL    HW260212   8.616   8.485   4.894
19439SOL     OW60213  12.168  14.264   7.647
19439SOL    HW160214  12.087  14.224   7.616
19439SOL    HW260215  12.236  14.201   7.625
19440SOL     OW60216   6.083   6.267   8.957
19440SOL    HW160217   6.013   6.326   8.931
19440SOL    HW260218   6.071   6.189   8.902
19441SOL     OW60219  10.970   0.317   0.925
19441SOL    HW160220  10.949   0.411   0.924
19441SOL    HW260221  11.008   0.302   1.012
19442SOL     OW60222  13.181  10.331  11.655
19442SOL    HW160223  13.268  10.370  11.658
19442SOL    HW260224  13.121  10.404  11.668
19443SOL     OW60225   2.690  14.814  13.979
19443SOL    HW160226   2.738  14.820  13.897
19443SOL    HW260227   2.614  14.870  13.967
19444SOL     OW60228   5.491   1.233   1.107
19444SOL    HW160229   5.567   1.283   1.136
19444SOL    HW260230   5.476   1.169   1.177
19445SOL     OW60231  14.188  13.750   2.004
19445SOL    HW160232  14.157  13.816   2.066
19445SOL    HW260233  14.125  13.752   1.932
19446SOL     OW60234   2.054   3.073   7.921
19446SOL    HW160235   2.044   3.159   7.881
19446SOL    HW260236   2.080   3.016   7.849
19447SOL     OW60237   2.316  11.457  10.473
19447SOL    HW160238   2.226  11.465  10.440
19447SOL    HW260239   2.305  11.443  10.567
19448SOL     OW60240   0.602   0.721   4.530
19448SOL    HW160241   0.606   0.673   4.448
19448SOL    HW260242   0.513   0.755   4.534
19449SOL     OW60243  13.346   9.282   1.039
19449SOL    HW160244  13.439   9.258   1.040
19449SOL    HW260245  13.333   9.333   1.119
19450SOL     OW60246   5.559   8.853   3.558
19450SOL    HW160247   5.529   8.764   3.536
19450SOL    HW260248   5.646   8.859   3.519
19451SOL     OW60249   2.912  11.334  12.339
19451SOL    HW160250   2.990  11.293  12.377
19451SOL    HW260251   2.873  11.383  12.411
19452SOL     OW60252   0.034   0.693   7.199
19452SOL    HW160253   0.037   0.741   7.282
19452SOL    HW260254  14.823   0.689   7.178
19453SOL     OW60255  12.239   0.944  11.720
19453SOL    HW160256  12.232   0.887  11.644
19453SOL    HW260257  12.203   1.028  11.690
19454SOL     OW60258   8.556   9.751   9.367
19454SOL    HW160259   8.601   9.750   9.282
19454SOL    HW260260   8.606   9.691   9.422
19455SOL     OW60261  10.727  11.542   6.797
19455SOL    HW160262  10.678  11.556   6.878
19455SOL    HW260263  10.684  11.598   6.733
19456SOL     OW60264   0.581  14.825   3.231
19456SOL    HW160265   0.529  14.745   3.243
19456SOL    HW260266   0.620  14.815   3.144
19457SOL     OW60267   8.008   9.023   9.790
19457SOL    HW160268   8.039   8.933   9.783
19457SOL    HW260269   8.021   9.045   9.882
19458SOL     OW60270   2.898  13.214   6.145
19458SOL    HW160271   2.926  13.191   6.233
19458SOL    HW260272   2.803  13.215   6.149
19459SOL     OW60273   8.240  10.742   3.369
19459SOL    HW160274   8.269  10.752   3.460
19459SOL    HW260275   8.304  10.683   3.330
19460SOL     OW60276   5.189   9.290  10.189
19460SOL    HW160277   5.268   9.333  10.157
19460SOL    HW260278   5.122   9.358  10.190
19461SOL     OW60279   6.186  12.999  14.390
19461SOL    HW160280   6.143  12.956  14.316
19461SOL    HW260281   6.278  12.972  14.384
19462SOL     OW60282   0.268   8.277   4.470
19462SOL    HW160283   0.323   8.336   4.419
19462SOL    HW260284   0.311   8.192   4.463
19463SOL     OW60285   9.799  11.012  12.522
19463SOL    HW160286   9.758  10.968  12.448
19463SOL    HW260287   9.887  11.035  12.491
19464SOL     OW60288   1.965   2.851  13.070
19464SOL    HW160289   2.031   2.837  13.002
19464SOL    HW260290   1.883   2.823  13.030
19465SOL     OW60291   6.896   2.815   0.101
19465SOL    HW160292   6.874   2.882   0.166
19465SOL    HW260293   6.984   2.839   0.071
19466SOL     OW60294   7.895   3.810   1.658
19466SOL    HW160295   7.809   3.838   1.625
19466SOL    HW260296   7.943   3.892   1.671
19467SOL     OW60297  11.852   9.091   9.265
19467SOL    HW160298  11.783   9.121   9.207
19467SOL    HW260299  11.923   9.062   9.207
19468SOL     OW60300  11.330  11.994   4.847
19468SOL    HW160301  11.388  11.925   4.813
19468SOL    HW260302  11.273  11.949   4.909
19469SOL     OW60303   6.128  10.968   8.704
19469SOL    HW160304   6.188  10.919   8.647
19469SOL    HW260305   6.165  11.057   8.705
19470SOL     OW60306   8.094   2.041   8.459
19470SOL    HW160307   8.177   2.079   8.430
19470SOL    HW260308   8.054   2.109   8.513
19471SOL     OW60309   5.315  14.362  10.907
19471SOL    HW160310   5.242  14.380  10.848
19471SOL    HW260311   5.351  14.278  10.876
19472SOL     OW60312   7.530   7.153  10.061
19472SOL    HW160313   7.580   7.071  10.067
19472SOL    HW260314   7.439   7.126  10.073
19473SOL     OW60315   5.697   9.632   3.875
19473SOL    HW160316   5.661   9.719   3.858
19473SOL    HW260317   5.684   9.619   3.969
19474SOL     OW60318  13.942  12.515  12.710
19474SOL    HW160319  13.984  12.581  12.765
19474SOL    HW260320  14.006  12.495  12.643
19475SOL     OW60321   3.372   3.715   6.815
19475SOL    HW160322   3.460   3.697   6.848
19475SOL    HW260323   3.385   3.779   6.745
19476SOL     OW60324   2.572  13.255  12.303
19476SOL    HW160325   2.647  13.236  12.359
19476SOL    HW260326   2.526  13.171  12.296
19477SOL     OW60327   0.127   6.443   4.409
19477SOL    HW160328   0.056   6.390   4.445
19477SOL    HW260329   0.109   6.446   4.315
19478SOL     OW60330   2.326   4.426   1.271
19478SOL    HW160331   2.395   4.457   1.330
19478SOL    HW260332   2.359   4.344   1.236
19479SOL     OW60333   6.200   2.196  14.589
19479SOL    HW160334   6.113   2.209  14.553
19479SOL    HW260335   6.187   2.194  14.684
19480SOL     OW60336  11.373   0.811  14.861
19480SOL    HW160337  11.437   0.876  14.830
19480SOL    HW260338  11.365   0.829   0.072
19481SOL     OW60339   1.191  13.381   3.159
19481SOL    HW160340   1.210  13.471   3.132
19481SOL    HW260341   1.127  13.350   3.095
19482SOL     OW60342   9.144   1.936  12.087
19482SOL    HW160343   9.088   2.005  12.053
19482SOL    HW260344   9.230   1.977  12.097
19483SOL     OW60345  11.227  14.447  11.174
19483SOL    HW160346  11.142  14.485  11.151
19483SOL    HW260347  11.221  14.356  11.148
19484SOL     OW60348   2.747   5.566  13.322
19484SOL    HW160349   2.693   5.644  13.309
19484SOL    HW260350   2.694   5.494  13.288
19485SOL     OW60351   8.007   1.053  11.688
19485SOL    HW160352   7.983   0.967  11.654
19485SOL    HW260353   7.935   1.111  11.663
19486SOL     OW60354   0.863   4.542   9.564
19486SOL    HW160355   0.771   4.514   9.566
19486SOL    HW260356   0.865   4.623   9.614
19487SOL     OW60357   3.935   4.790   7.259
19487SOL    HW160358   3.872   4.842   7.209
19487SOL    HW260359   3.915   4.699   7.237
19488SOL     OW60360  11.158  13.629   6.134
19488SOL    HW160361  11.119  13.564   6.075
19488SOL    HW260362  11.154  13.589   6.220
19489SOL     OW60363   7.134   8.830  12.387
19489SOL    HW160364   7.076   8.892  12.343
19489SOL    HW260365   7.222   8.862  12.370
19490SOL     OW60366  14.205  11.871   3.991
19490SOL    HW160367  14.133  11.917   4.035
19490SOL    HW260368  14.222  11.923   3.912
19491SOL     OW60369   8.437   9.943   5.681
19491SOL    HW160370   8.487   9.911   5.606
19491SOL    HW260371   8.468   9.891   5.755
19492SOL     OW60372  11.483   8.727  10.252
19492SOL    HW160373  11.461   8.780  10.176
19492SOL    HW260374  11.482   8.788  10.325
19493SOL     OW60375   1.824   9.688  10.512
19493SOL    HW160376   1.799   9.602  10.479
19493SOL    HW260377   1.894   9.670  10.575
19494SOL     OW60378  13.938  11.405  10.148
19494SOL    HW160379  13.843  11.393  10.141
19494SOL    HW260380  13.949  11.456  10.228
19495SOL     OW60381   8.240   3.399   4.242
19495SOL    HW160382   8.182   3.357   4.179
19495SOL    HW260383   8.297   3.329   4.273
19496SOL     OW60384   2.460   8.302  11.766
19496SOL    HW160385   2.409   8.342  11.695
19496SOL    HW260386   2.404   8.310  11.843
19497SOL     OW60387   9.413   6.612   8.657
19497SOL    HW160388   9.453   6.535   8.698
19497SOL    HW260389   9.485   6.674   8.646
19498SOL     OW60390   3.501  10.861   7.623
19498SOL    HW160391   3.555  10.837   7.547
19498SOL    HW260392   3.556  10.839   7.699
19499SOL     OW60393   6.602   1.450  12.622
19499SOL    HW160394   6.625   1.388  12.552
19499SOL    HW260395   6.515   1.423  12.650
19500SOL     OW60396   2.774   9.280   6.763
19500SOL    HW160397   2.832   9.299   6.836
19500SOL    HW260398   2.834   9.264   6.689
19501SOL     OW60399   9.402   2.882   8.246
19501SOL    HW160400   9.359   2.875   8.331
19501SOL    HW260401   9.384   2.972   8.217
19502SOL     OW60402   2.761   3.907  13.593
19502SOL    HW160403   2.772   3.826  13.542
19502SOL    HW260404   2.826   3.901  13.663
19503SOL     OW60405   7.518   2.536  11.357
19503SOL    HW160406   7.572   2.504  11.285
19503SOL    HW260407   7.433   2.494  11.343
19504SOL     OW60408   8.730  10.075   0.728
19504SOL    HW160409   8.643  10.065   0.767
19504SOL    HW260410   8.724  10.029   0.644
19505SOL     OW60411   4.505   5.924   6.634
19505SOL    HW160412   4.554   5.924   6.716
19505SOL    HW260413   4.413   5.921   6.661
19506SOL     OW60414   0.936  11.369  12.570
19506SOL    HW160415   0.877  11.424  12.621
19506SOL    HW260416   0.974  11.427  12.505
19507SOL     OW60417  11.017   8.363  11.820
19507SOL    HW160418  11.087   8.422  11.845
19507SOL    HW260419  10.966   8.412  11.756
19508SOL     OW60420   2.629   5.630   9.758
19508SOL    HW160421   2.670   5.651   9.842
19508SOL    HW260422   2.581   5.710   9.734
19509SOL     OW60423   3.166  11.720  10.102
19509SOL    HW160424   3.172  11.643  10.158
19509SOL    HW260425   3.102  11.697  10.035
19510SOL     OW60426   4.993   4.439  10.388
19510SOL    HW160427   4.986   4.508  10.454
19510SOL    HW260428   5.004   4.485  10.305
19511SOL     OW60429  11.454  11.004  14.825
19511SOL    HW160430  11.536  10.984  14.781
19511SOL    HW260431  11.446  10.936   0.010
19512SOL     OW60432  14.132  14.478  12.441
19512SOL    HW160433  14.135  14.517  12.353
19512SOL    HW260434  14.150  14.385  12.426
19513SOL     OW60435   2.778  10.196   2.821
19513SOL    HW160436   2.789  10.124   2.760
19513SOL    HW260437   2.755  10.153   2.904
19514SOL     OW60438   5.231   2.174   6.804
19514SOL    HW160439   5.139   2.185   6.828
19514SOL    HW260440   5.244   2.080   6.798
19515SOL     OW60441   4.112  11.467   6.100
19515SOL    HW160442   4.111  11.373   6.080
19515SOL    HW260443   4.038  11.479   6.160
19516SOL     OW60444   0.351   2.250   2.276
19516SOL    HW160445   0.357   2.334   2.231
19516SOL    HW260446   0.326   2.273   2.366
19517SOL     OW60447   5.860   6.079   8.100
19517SOL    HW160448   5.932   6.016   8.099
19517SOL    HW260449   5.902   6.162   8.122
19518SOL     OW60450   3.359   7.617  13.349
19518SOL    HW160451   3.449   7.641  13.329
19518SOL    HW260452   3.326   7.576  13.270
19519SOL     OW60453   2.872   1.442   5.414
19519SOL    HW160454   2.831   1.375   5.359
19519SOL    HW260455   2.904   1.393   5.490
19520SOL     OW60456   2.130  13.483  12.554
19520SOL    HW160457   2.077  13.533  12.616
19520SOL    HW260458   2.212  13.532  12.548
19521SOL     OW60459   5.527   0.141   6.994
19521SOL    HW160460   5.596   0.075   6.992
19521SOL    HW260461   5.574   0.225   6.997
19522SOL     OW60462  14.749   8.166   6.674
19522SOL    HW160463  14.823   8.134   6.727
19522SOL    HW260464  14.706   8.231   6.730
19523SOL     OW60465  12.706   8.869   6.101
19523SOL    HW160466  12.710   8.872   6.197
19523SOL    HW260467  12.632   8.812   6.082
19524SOL     OW60468   1.733   5.211   7.066
19524SOL    HW160469   1.757   5.124   7.036
19524SOL    HW260470   1.654   5.234   7.015
19525SOL     OW60471  10.644  13.983  10.754
19525SOL    HW160472  10.660  13.929  10.831
19525SOL    HW260473  10.711  13.955  10.691
19526SOL     OW60474  11.711   1.088   8.315
19526SOL    HW160475  11.637   1.146   8.331
19526SOL    HW260476  11.752   1.122   8.236
19527SOL     OW60477   2.321  13.728  14.488
19527SOL    HW160478   2.239  13.733  14.537
19527SOL    HW260479   2.295  13.696  14.402
19528SOL     OW60480   5.760   0.978   4.689
19528SOL    HW160481   5.672   0.942   4.700
19528SOL    HW260482   5.804   0.917   4.630
19529SOL     OW60483  12.639   7.389   4.333
19529SOL    HW160484  12.580   7.404   4.259
19529SOL    HW260485  12.727   7.388   4.294
19530SOL     OW60486   3.397  10.267   8.295
19530SOL    HW160487   3.318  10.231   8.336
19530SOL    HW260488   3.458  10.194   8.291
19531SOL     OW60489  10.440  14.392  10.398
19531SOL    HW160490  10.372  14.450  10.362
19531SOL    HW260491  10.392  14.315  10.429
19532SOL     OW60492   3.675  12.154   0.134
19532SOL    HW160493   3.676  12.138   0.229
19532SOL    HW260494   3.669  12.066   0.096
19533SOL     OW60495  10.139  13.812   3.567
19533SOL    HW160496  10.156  13.771   3.652
19533SOL    HW260497  10.068  13.759   3.529
19534SOL     OW60498   7.479   3.621   5.870
19534SOL    HW160499   7.399   3.588   5.830
19534SOL    HW260500   7.496   3.704   5.825
19535SOL     OW60501   9.369   9.629  12.957
19535SOL    HW160502   9.360   9.562  12.890
19535SOL    HW260503   9.280   9.642  12.990
19536SOL     OW60504  10.518   4.413  10.165
19536SOL    HW160505  10.487   4.492  10.120
19536SOL    HW260506  10.451   4.393  10.229
19537SOL     OW60507   7.023   5.134   0.899
19537SOL    HW160508   7.009   5.128   0.994
19537SOL    HW260509   6.990   5.221   0.876
19538SOL     OW60510   4.702   5.655   6.709
19538SOL    HW160511   4.776   5.595   6.710
19538SOL    HW260512   4.716   5.710   6.632
19539SOL     OW60513   9.089   9.449   4.214
19539SOL    HW160514   9.123   9.390   4.147
19539SOL    HW260515   9.012   9.489   4.174
19540SOL     OW60516   0.123  11.008   5.871
19540SOL    HW160517   0.107  11.062   5.794
19540SOL    HW260518   0.190  11.056   5.920
19541SOL     OW60519   5.812   1.302  13.719
19541SOL    HW160520   5.897   1.339  13.742
19541SOL    HW260521   5.753   1.333  13.788
19542SOL     OW60522   2.573   6.353  12.838
19542SOL    HW160523   2.488   6.335  12.879
19542SOL    HW260524   2.552   6.410  12.765
19543SOL     OW60525   8.896   2.871   9.873
19543SOL    HW160526   8.892   2.791   9.822
19543SOL    HW260527   8.989   2.881   9.895
19544SOL     OW60528  11.390   5.447  12.758
19544SOL    HW160529  11.411   5.438  12.665
19544SOL    HW260530  11.395   5.358  12.793
19545SOL     OW60531   2.233  14.222   5.928
19545SOL    HW160532   2.156  14.260   5.971
19545SOL    HW260533   2.280  14.176   5.998
19546SOL     OW60534   7.194   5.722  14.851
19546SOL    HW160535   7.198   5.629  14.833
19546SOL    HW260536   7.255   5.736   0.042
19547SOL     OW60537  12.426   6.490   5.890
19547SOL    HW160538  12.422   6.397   5.911
19547SOL    HW260539  12.356   6.529   5.942
19548SOL     OW60540   5.213   1.152  11.921
19548SOL    HW160541   5.286   1.214  11.930
19548SOL    HW260542   5.134   1.206  11.926
19549SOL     OW60543   1.902   8.139   7.473
19549SOL    HW160544   1.818   8.169   7.507
19549SOL    HW260545   1.932   8.210   7.416
19550SOL     OW60546   4.797  10.239   1.663
19550SOL    HW160547   4.834  10.218   1.577
19550SOL    HW260548   4.704  10.252   1.646
19551SOL     OW60549   9.435   9.127   8.473
19551SOL    HW160550   9.452   9.138   8.379
19551SOL    HW260551   9.407   9.036   8.481
19552SOL     OW60552   4.001   3.436   6.512
19552SOL    HW160553   4.071   3.376   6.536
19552SOL    HW260554   3.977   3.411   6.422
19553SOL     OW60555   0.225  13.731  13.913
19553SOL    HW160556   0.231  13.770  14.000
19553SOL    HW260557   0.195  13.802  13.857
19554SOL     OW60558   7.672   9.576   2.222
19554SOL    HW160559   7.684   9.581   2.316
19554SOL    HW260560   7.748   9.621   2.186
19555SOL     OW60561   6.696   9.571   8.244
19555SOL    HW160562   6.625   9.572   8.180
19555SOL    HW260563   6.735   9.484   8.234
19556SOL     OW60564  14.824  11.490   2.427
19556SOL    HW160565  14.854  11.466   2.515
19556SOL    HW260566  14.744  11.541   2.441
19557SOL     OW60567   8.368  12.072   8.723
19557SOL    HW160568   8.442  12.014   8.704
19557SOL    HW260569   8.296  12.037   8.672
19558SOL     OW60570   7.070   9.416   2.908
19558SOL    HW160571   7.089   9.462   2.827
19558SOL    HW260572   7.150   9.423   2.959
19559SOL     OW60573   2.144   9.837  13.828
19559SOL    HW160574   2.141   9.820  13.733
19559SOL    HW260575   2.236   9.855  13.846
19560SOL     OW60576  14.500   8.050   3.493
19560SOL    HW160577  14.431   8.053   3.559
19560SOL    HW260578  14.582   8.045   3.543
19561SOL     OW60579   9.084   9.566  14.021
19561SOL    HW160580   8.995   9.549  13.989
19561SOL    HW260581   9.130   9.604  13.946
19562SOL     OW60582   1.814   1.193   3.636
19562SOL    HW160583   1.749   1.179   3.567
19562SOL    HW260584   1.851   1.280   3.616
19563SOL     OW60585   4.252  12.620  12.638
19563SOL    HW160586   4.159  12.615  12.615
19563SOL    HW260587   4.265  12.549  12.700
19564SOL     OW60588   9.182   9.049   2.060
19564SOL    HW160589   9.123   9.038   1.985
19564SOL    HW260590   9.231   9.129   2.041
19565SOL     OW60591   9.753  14.477   4.079
19565SOL    HW160592   9.689  14.545   4.098
19565SOL    HW260593   9.702  14.396   4.076
19566SOL     OW60594   6.039   0.104  11.578
19566SOL    HW160595   5.948   0.091  11.551
19566SOL    HW260596   6.042   0.195  11.609
19567SOL     OW60597  13.137   2.702   8.203
19567SOL    HW160598  13.205   2.647   8.242
19567SOL    HW260599  13.132   2.779   8.260
19568SOL     OW60600   7.411  12.320  14.148
19568SOL    HW160601   7.321  12.298  14.172
19568SOL    HW260602   7.444  12.243  14.102
19569SOL     OW60603  14.446   8.978  10.274
19569SOL    HW160604  14.384   9.050  10.292
19569SOL    HW260605  14.503   9.011  10.206
19570SOL     OW60606  10.523   1.660  11.512
19570SOL    HW160607  10.490   1.713  11.585
19570SOL    HW260608  10.456   1.666  11.445
19571SOL     OW60609   2.641   4.596  13.427
19571SOL    HW160610   2.657   4.664  13.361
19571SOL    HW260611   2.552   4.566  13.409
19572SOL     OW60612   6.680  11.297   7.513
19572SOL    HW160613   6.768  11.261   7.525
19572SOL    HW260614   6.657  11.334   7.598
19573SOL     OW60615   9.812   9.583  10.695
19573SOL    HW160616   9.760   9.632  10.631
19573SOL    HW260617   9.753   9.570  10.769
19574SOL     OW60618  14.314  11.262   1.043
19574SOL    HW160619  14.303  11.277   0.949
19574SOL    HW260620  14.310  11.167   1.052
19575SOL     OW60621  10.808   6.411  12.883
19575SOL    HW160622  10.815   6.438  12.975
19575SOL    HW260623  10.860   6.330  12.879
19576SOL     OW60624   9.039  14.481  11.617
19576SOL    HW160625   9.025  14.573  11.593
19576SOL    HW260626   9.000  14.431  11.545
19577SOL     OW60627   6.756   2.626   3.223
19577SOL    HW160628   6.826   2.615   3.159
19577SOL    HW260629   6.678   2.589   3.180
19578SOL     OW60630  14.506  11.490   1.184
19578SOL    HW160631  14.440  11.426   1.155
19578SOL    HW260632  14.589  11.454   1.152
19579SOL     OW60633   3.962   2.426  12.489
19579SOL    HW160634   4.052   2.458  12.501
19579SOL    HW260635   3.960   2.399  12.397
19580SOL     OW60636  13.886  12.101  14.393
19580SOL    HW160637  13.803  12.139  14.422
19580SOL    HW260638  13.860  12.021  14.346
19581SOL     OW60639   0.555   7.840   2.701
19581SOL    HW160640   0.569   7.765   2.759
19581SOL    HW260641   0.544   7.915   2.760
19582SOL     OW60642  10.250  11.644   2.272
19582SOL    HW160643  10.327  11.697   2.290
19582SOL    HW260644  10.234  11.655   2.178
19583SOL     OW60645   8.866   9.383  14.067
19583SOL    HW160646   8.864   9.366  14.161
19583SOL    HW260647   8.776   9.369  14.038
19584SOL     OW60648   4.728   4.485   9.277
19584SOL    HW160649   4.678   4.418   9.231
19584SOL    HW260650   4.728   4.455   9.368
19585SOL     OW60651   9.807   0.897  12.241
19585SOL    HW160652   9.875   0.932  12.299
19585SOL    HW260653   9.817   0.948  12.160
19586SOL     OW60654   2.943   8.499   2.134
19586SOL    HW160655   3.006   8.523   2.202
19586SOL    HW260656   2.867   8.466   2.182
19587SOL     OW60657   8.101   5.391   5.219
19587SOL    HW160658   8.146   5.326   5.274
19587SOL    HW260659   8.026   5.343   5.182
19588SOL     OW60660   1.804   0.015   8.334
19588SOL    HW160661   1.822   0.104   8.363
19588SOL    HW260662   1.830   0.015   8.242
19589SOL     OW60663   0.934   0.912   0.105
19589SOL    HW160664   0.883   0.906   0.025
19589SOL    HW260665   0.888   0.975   0.159
19590SOL     OW60666  10.529   9.361   9.891
19590SOL    HW160667  10.606   9.391   9.842
19590SOL    HW260668  10.463   9.346   9.823
19591SOL     OW60669   5.001  11.556   6.989
19591SOL    HW160670   5.075  11.613   7.004
19591SOL    HW260671   5.038  11.477   6.950
19592SOL     OW60672  10.134   1.761   0.152
19592SOL    HW160673  10.138   1.753   0.247
19592SOL    HW260674  10.218   1.727   0.121
19593SOL     OW60675  11.886   1.889   0.179
19593SOL    HW160676  11.886   1.799   0.214
19593SOL    HW260677  11.975   1.920   0.194
19594SOL     OW60678   1.456  12.015  11.012
19594SOL    HW160679   1.409  12.055  10.939
19594SOL    HW260680   1.542  12.056  11.011
19595SOL     OW60681   9.560   8.785   4.262
19595SOL    HW160682   9.512   8.737   4.329
19595SOL    HW260683   9.508   8.864   4.247
19596SOL     OW60684   3.889   7.829   9.852
19596SOL    HW160685   3.807   7.877   9.843
19596SOL    HW260686   3.952   7.894   9.883
19597SOL     OW60687   9.785  13.996   7.525
19597SOL    HW160688   9.736  14.078   7.531
19597SOL    HW260689   9.765  13.963   7.437
19598SOL     OW60690   0.280  10.356   5.661
19598SOL    HW160691   0.326  10.438   5.681
19598SOL    HW260692   0.323  10.290   5.715
19599SOL     OW60693   3.947   3.248  12.799
19599SOL    HW160694   3.897   3.166  12.803
19599SOL    HW260695   4.036   3.221  12.776
19600SOL     OW60696   8.272   0.823  14.159
19600SOL    HW160697   8.256   0.730  14.144
19600SOL    HW260698   8.316   0.853  14.079
19601SOL     OW60699  12.726   6.631  12.447
19601SOL    HW160700  12.748   6.538  12.442
19601SOL    HW260701  12.674   6.639  12.527
19602SOL     OW60702   7.357   8.577   0.425
19602SOL    HW160703   7.263   8.560   0.421
19602SOL    HW260704   7.370   8.617   0.511
19603SOL     OW60705   9.197   7.670   9.586
19603SOL    HW160706   9.230   7.732   9.651
19603SOL    HW260707   9.267   7.663   9.521
19604SOL     OW60708  12.901   7.465   5.800
19604SOL    HW160709  12.918   7.546   5.752
19604SOL    HW260710  12.819   7.480   5.846
19605SOL     OW60711   5.172   2.667  12.584
19605SOL    HW160712   5.099   2.658  12.644
19605SOL    HW260713   5.187   2.579  12.550
19606SOL     OW60714  14.564  13.594   2.010
19606SOL    HW160715  14.632  13.571   1.947
19606SOL    HW260716  14.605  13.583   2.096
19607SOL     OW60717   3.084   9.494   1.570
19607SOL    HW160718   3.027   9.568   1.548
19607SOL    HW260719   3.172   9.531   1.569
19608SOL     OW60720   8.151   6.376  12.914
19608SOL    HW160721   8.160   6.444  12.982
19608SOL    HW260722   8.232   6.326  12.920
19609SOL     OW60723   1.785  13.843   6.788
19609SOL    HW160724   1.788  13.863   6.881
19609SOL    HW260725   1.857  13.781   6.774
19610SOL     OW60726   7.301  12.878   7.188
19610SOL    HW160727   7.288  12.806   7.127
19610SOL    HW260728   7.297  12.957   7.133
19611SOL     OW60729  11.820   1.212   4.402
19611SOL    HW160730  11.867   1.181   4.480
19611SOL    HW260731  11.879   1.275   4.362
19612SOL     OW60732   3.511  14.173   8.863
19612SOL    HW160733   3.501  14.125   8.945
19612SOL    HW260734   3.551  14.256   8.888
19613SOL     OW60735   7.465   4.550   2.923
19613SOL    HW160736   7.423   4.602   2.855
19613SOL    HW260737   7.534   4.607   2.957
19614SOL     OW60738   9.454   0.452   4.130
19614SOL    HW160739   9.467   0.384   4.064
19614SOL    HW260740   9.486   0.414   4.211
19615SOL     OW60741   3.945   3.631  10.184
19615SOL    HW160742   3.885   3.641  10.258
19615SOL    HW260743   3.918   3.699  10.122
19616SOL     OW60744   6.040   7.885  12.836
19616SOL    HW160745   6.016   7.871  12.928
19616SOL    HW260746   6.067   7.977  12.832
19617SOL     OW60747   3.927   9.488   8.223
19617SOL    HW160748   3.988   9.553   8.260
19617SOL    HW260749   3.984   9.422   8.184
19618SOL     OW60750  12.660   2.849   9.015
19618SOL    HW160751  12.578   2.851   9.064
19618SOL    HW260752  12.647   2.913   8.945
19619SOL     OW60753  14.248   5.028   4.654
19619SOL    HW160754  14.312   4.969   4.694
19619SOL    HW260755  14.229   5.093   4.722
19620SOL     OW60756   2.471   1.001   9.868
19620SOL    HW160757   2.525   0.969   9.795
19620SOL    HW260758   2.426   1.077   9.832
19621SOL     OW60759   6.637   9.290  11.563
19621SOL    HW160760   6.717   9.334  11.534
19621SOL    HW260761   6.592   9.266  11.482
19622SOL     OW60762  14.424   5.023  11.331
19622SOL    HW160763  14.465   5.109  11.325
19622SOL    HW260764  14.433   4.986  11.243
19623SOL     OW60765   7.067   4.583   1.414
19623SOL    HW160766   7.077   4.488   1.407
19623SOL    HW260767   7.103   4.605   1.500
19624SOL     OW60768   2.874  13.066   3.194
19624SOL    HW160769   2.888  13.160   3.195
19624SOL    HW260770   2.891  13.038   3.284
19625SOL     OW60771  10.980  14.188   8.904
19625SOL    HW160772  10.988  14.168   8.811
19625SOL    HW260773  10.886  14.201   8.917
19626SOL     OW60774   1.688   0.354  11.158
19626SOL    HW160775   1.729   0.401  11.086
19626SOL    HW260776   1.699   0.412  11.234
19627SOL     OW60777   1.725   8.248   8.801
19627SOL    HW160778   1.711   8.183   8.731
19627SOL    HW260779   1.821   8.256   8.807
19628SOL     OW60780   7.665   1.777   1.326
19628SOL    HW160781   7.608   1.728   1.267
19628SOL    HW260782   7.698   1.710   1.387
19629SOL     OW60783   1.844   3.855   5.832
19629SOL    HW160784   1.854   3.843   5.738
19629SOL    HW260785   1.890   3.937   5.851
19630SOL     OW60786  10.601  12.242  14.327
19630SOL    HW160787  10.510  12.253  14.355
19630SOL    HW260788  10.597  12.247  14.231
19631SOL     OW60789   5.895  13.069   2.089
19631SOL    HW160790   5.835  13.018   2.035
19631SOL    HW260791   5.950  13.004   2.133
19632SOL     OW60792  11.316   0.675   4.941
19632SOL    HW160793  11.266   0.681   5.021
19632SOL    HW260794  11.277   0.739   4.882
19633SOL     OW60795   1.305   6.635  10.494
19633SOL    HW160796   1.242   6.587  10.548
19633SOL    HW260797   1.343   6.699  10.553
19634SOL     OW60798  10.164   6.030  10.685
19634SOL    HW160799  10.209   5.949  10.708
19634SOL    HW260800  10.222   6.100  10.715
19635SOL     OW60801  11.865   9.393   9.694
19635SOL    HW160802  11.865   9.437   9.779
19635SOL    HW260803  11.816   9.312   9.709
19636SOL     OW60804  13.972   1.685   2.482
19636SOL    HW160805  14.060   1.710   2.509
19636SOL    HW260806  13.939   1.761   2.435
19637SOL     OW60807   0.888  11.540  12.068
19637SOL    HW160808   0.872  11.612  12.129
19637SOL    HW260809   0.833  11.560  11.992
19638SOL     OW60810  14.447   1.081   1.835
19638SOL    HW160811  14.472   1.009   1.892
19638SOL    HW260812  14.382   1.130   1.884
19639SOL     OW60813   3.571   2.037  11.710
19639SOL    HW160814   3.536   2.021  11.797
19639SOL    HW260815   3.654   1.989  11.708
19640SOL     OW60816   0.268   7.489   4.467
19640SOL    HW160817   0.214   7.566   4.482
19640SOL    HW260818   0.264   7.475   4.372
19641SOL     OW60819  12.791   3.364   5.238
19641SOL    HW160820  12.881   3.396   5.234
19641SOL    HW260821  12.796   3.276   5.201
19642SOL     OW60822   1.021   6.600   3.776
19642SOL    HW160823   0.997   6.603   3.684
19642SOL    HW260824   1.095   6.660   3.784
19643SOL     OW60825   5.308  13.188   0.432
19643SOL    HW160826   5.314  13.102   0.390
19643SOL    HW260827   5.324  13.251   0.361
19644SOL     OW60828  13.871   6.798   1.080
19644SOL    HW160829  13.897   6.863   1.015
19644SOL    HW260830  13.783   6.824   1.107
19645SOL     OW60831   8.861  12.643   1.410
19645SOL    HW160832   8.854  12.685   1.324
19645SOL    HW260833   8.953  12.617   1.417
19646SOL     OW60834   1.968   4.008  11.989
19646SOL    HW160835   1.877   4.021  12.017
19646SOL    HW260836   2.011   3.967  12.063
19647SOL     OW60837   7.361   1.331  12.510
19647SOL    HW160838   7.416   1.376  12.575
19647SOL    HW260839   7.419   1.269  12.468
19648SOL     OW60840   5.056  11.824   7.275
19648SOL    HW160841   5.144  11.791   7.294
19648SOL    HW260842   5.038  11.888   7.344
19649SOL     OW60843  12.659   4.025   9.014
19649SOL    HW160844  12.688   4.115   9.002
19649SOL    HW260845  12.564   4.028   9.003
19650SOL     OW60846   8.376   2.209  13.166
19650SOL    HW160847   8.284   2.235  13.178
19650SOL    HW260848   8.400   2.242  13.080
19651SOL     OW60849   8.404  13.142   1.474
19651SOL    HW160850   8.472  13.118   1.411
19651SOL    HW260851   8.372  13.227   1.442
19652SOL     OW60852   8.481  11.679   4.521
19652SOL    HW160853   8.454  11.644   4.606
19652SOL    HW260854   8.494  11.772   4.537
19653SOL     OW60855  14.442  10.554   5.478
19653SOL    HW160856  14.427  10.472   5.525
19653SOL    HW260857  14.365  10.607   5.496
19654SOL     OW60858   8.589   3.959   3.602
19654SOL    HW160859   8.521   3.891   3.606
19654SOL    HW260860   8.564   4.013   3.527
19655SOL     OW60861   3.423   9.901   3.374
19655SOL    HW160862   3.342   9.940   3.338
19655SOL    HW260863   3.407   9.896   3.468
19656SOL     OW60864   4.707  13.793   4.809
19656SOL    HW160865   4.798  13.793   4.779
19656SOL    HW260866   4.714  13.797   4.904
19657SOL     OW60867   3.663   9.280   5.065
19657SOL    HW160868   3.616   9.324   5.136
19657SOL    HW260869   3.754   9.305   5.077
19658SOL     OW60870  10.055  12.940   6.350
19658SOL    HW160871  10.032  13.023   6.309
19658SOL    HW260872  10.111  12.965   6.424
19659SOL     OW60873  10.949  10.509   8.347
19659SOL    HW160874  10.986  10.465   8.424
19659SOL    HW260875  10.866  10.546   8.378
19660SOL     OW60876   9.407   5.870   0.259
19660SOL    HW160877   9.385   5.803   0.194
19660SOL    HW260878   9.429   5.821   0.338
19661SOL     OW60879  12.749   3.240  10.435
19661SOL    HW160880  12.668   3.203  10.402
19661SOL    HW260881  12.815   3.215  10.370
19662SOL     OW60882   9.167   8.651   1.818
19662SOL    HW160883   9.250   8.689   1.789
19662SOL    HW260884   9.112   8.652   1.740
19663SOL     OW60885   4.840   7.412   6.253
19663SOL    HW160886   4.901   7.385   6.185
19663SOL    HW260887   4.862   7.504   6.269
19664SOL     OW60888   7.794  13.915   2.587
19664SOL    HW160889   7.842  13.881   2.511
19664SOL    HW260890   7.801  13.846   2.653
19665SOL     OW60891  11.391   1.198  11.084
19665SOL    HW160892  11.395   1.264  11.154
19665SOL    HW260893  11.453   1.131  11.111
19666SOL     OW60894   8.839   5.072   7.102
19666SOL    HW160895   8.800   4.986   7.092
19666SOL    HW260896   8.914   5.072   7.042
19667SOL     OW60897  14.806   2.439  12.200
19667SOL    HW160898  14.805   2.531  12.174
19667SOL    HW260899  14.745   2.396  12.140
19668SOL     OW60900   5.203  13.372   0.603
19668SOL    HW160901   5.249  13.305   0.551
19668SOL    HW260902   5.252  13.452   0.587
19669SOL     OW60903   7.023   8.061  14.310
19669SOL    HW160904   6.969   8.131  14.274
19669SOL    HW260905   7.050   8.092  14.396
19670SOL     OW60906   6.153   4.942   9.967
19670SOL    HW160907   6.121   5.030   9.986
19670SOL    HW260908   6.215   4.924  10.037
19671SOL     OW60909  10.146   0.479   8.281
19671SOL    HW160910  10.211   0.412   8.304
19671SOL    HW260911  10.102   0.499   8.364
19672SOL     OW60912   8.370   4.356   4.123
19672SOL    HW160913   8.424   4.420   4.076
19672SOL    HW260914   8.297   4.407   4.158
19673SOL     OW60915  14.185  11.058   4.865
19673SOL    HW160916  14.128  10.995   4.911
19673SOL    HW260917  14.151  11.059   4.775
19674SOL     OW60918   1.003  11.655  13.209
19674SOL    HW160919   0.964  11.742  13.217
19674SOL    HW260920   1.008  11.640  13.114
19675SOL     OW60921   0.836   6.359  14.052
19675SOL    HW160922   0.792   6.442  14.034
19675SOL    HW260923   0.790   6.324  14.129
19676SOL     OW60924   7.634   9.434   1.796
19676SOL    HW160925   7.692   9.460   1.725
19676SOL    HW260926   7.568   9.378   1.754
19677SOL     OW60927   4.128   5.752  11.090
19677SOL    HW160928   4.210   5.765  11.043
19677SOL    HW260929   4.154   5.708  11.171
19678SOL     OW60930  10.458   2.841  13.326
19678SOL    HW160931  10.458   2.924  13.374
19678SOL    HW260932  10.543   2.802  13.345
19679SOL     OW60933  11.823   3.076   6.351
19679SOL    HW160934  11.779   3.108   6.272
19679SOL    HW260935  11.909   3.117   6.349
19680SOL     OW60936   9.924   9.607  10.420
19680SOL    HW160937   9.840   9.654  10.418
19680SOL    HW260938   9.934   9.579  10.511
19681SOL     OW60939  12.441  11.359  10.840
19681SOL    HW160940  12.524  11.335  10.798
19681SOL    HW260941  12.374  11.317  10.787
19682SOL     OW60942  14.652  10.058  10.825
19682SOL    HW160943  14.712   9.985  10.809
19682SOL    HW260944  14.617  10.080  10.739
19683SOL     OW60945   5.202   7.641   8.806
19683SOL    HW160946   5.274   7.703   8.796
19683SOL    HW260947   5.244   7.555   8.809
19684SOL     OW60948   6.835  10.741   3.699
19684SOL    HW160949   6.826  10.776   3.787
19684SOL    HW260950   6.796  10.653   3.703
19685SOL     OW60951   0.409   3.204   0.625
19685SOL    HW160952   0.440   3.118   0.597
19685SOL    HW260953   0.329   3.218   0.573
19686SOL     OW60954   3.447   3.500  13.062
19686SOL    HW160955   3.370   3.462  13.103
19686SOL    HW260956   3.443   3.593  13.086
19687SOL     OW60957   8.316  10.900   2.271
19687SOL    HW160958   8.227  10.917   2.240
19687SOL    HW260959   8.305  10.872   2.362
19688SOL     OW60960   7.811   5.768  12.073
19688SOL    HW160961   7.743   5.724  12.125
19688SOL    HW260962   7.854   5.698  12.025
19689SOL     OW60963   6.671  11.955  10.734
19689SOL    HW160964   6.704  11.868  10.758
19689SOL    HW260965   6.657  11.999  10.817
19690SOL     OW60966   6.050   0.382   3.468
19690SOL    HW160967   6.016   0.296   3.446
19690SOL    HW260968   6.027   0.437   3.393
19691SOL     OW60969   9.604   8.781   7.428
19691SOL    HW160970   9.618   8.756   7.337
19691SOL    HW260971   9.573   8.701   7.471
19692SOL     OW60972  10.595   9.515   4.716
19692SOL    HW160973  10.554   9.522   4.803
19692SOL    HW260974  10.536   9.563   4.658
19693SOL     OW60975   5.427  12.771   5.969
19693SOL    HW160976   5.490  12.707   5.937
19693SOL    HW260977   5.463  12.856   5.944
19694SOL     OW60978  10.893   7.143   4.924
19694SOL    HW160979  10.885   7.051   4.948
19694SOL    HW260980  10.804   7.178   4.934
19695SOL     OW60981   0.731   7.479   5.809
19695SOL    HW160982   0.649   7.528   5.804
19695SOL    HW260983   0.759   7.487   5.901
19696SOL     OW60984  13.690   5.752  13.615
19696SOL    HW160985  13.614   5.768  13.671
19696SOL    HW260986  13.743   5.832  13.623
19697SOL     OW60987   7.019   4.592   3.437
19697SOL    HW160988   7.075   4.525   3.476
19697SOL    HW260989   6.938   4.590   3.489
19698SOL     OW60990   9.262   9.960   7.988
19698SOL    HW160991   9.295   9.910   8.064
19698SOL    HW260992   9.177   9.992   8.016
19699SOL     OW60993  11.891   8.297  11.153
19699SOL    HW160994  11.817   8.237  11.140
19699SOL    HW260995  11.904   8.337  11.067
19700SOL     OW60996   7.595   1.284   6.232
19700SOL    HW160997   7.572   1.355   6.172
19700SOL    HW260998   7.515   1.231   6.238
19701SOL     OW60999  10.375   6.477  10.496
19701SOL    HW161000  10.371   6.385  10.470
19701SOL    HW261001  10.450   6.512  10.449
19702SOL     OW61002   2.261  12.123   9.101
19702SOL    HW161003   2.310  12.204   9.113
19702SOL    HW261004   2.186  12.148   9.046
19703SOL     OW61005   0.462  14.040   1.828
19703SOL    HW161006   0.398  14.110   1.813
19703SOL    HW261007   0.416  13.977   1.884
19704SOL     OW61008   2.794   6.540   3.486
19704SOL    HW161009   2.705   6.518   3.458
19704SOL    HW261010   2.851   6.485   3.432
19705SOL     OW61011   7.720   4.272   2.820
19705SOL    HW161012   7.734   4.292   2.913
19705SOL    HW261013   7.639   4.318   2.798
19706SOL     OW61014  13.821   9.419   7.267
19706SOL    HW161015  13.840   9.347   7.208
19706SOL    HW261016  13.747   9.465   7.226
19707SOL     OW61017  11.908   1.778   0.842
19707SOL    HW161018  11.932   1.793   0.751
19707SOL    HW261019  11.992   1.777   0.888
19708SOL     OW61020   9.209   3.212  11.102
19708SOL    HW161021   9.169   3.223  11.188
19708SOL    HW261022   9.147   3.158  11.053
19709SOL     OW61023   5.276   0.619  10.118
19709SOL    HW161024   5.336   0.589  10.187
19709SOL    HW261025   5.191   0.627  10.161
19710SOL     OW61026   4.685   1.717  12.299
19710SOL    HW161027   4.740   1.685  12.371
19710SOL    HW261028   4.727   1.798  12.271
19711SOL     OW61029   9.015   2.704  11.480
19711SOL    HW161030   9.023   2.648  11.402
19711SOL    HW261031   9.093   2.685  11.532
19712SOL     OW61032   6.721   5.294   4.117
19712SOL    HW161033   6.788   5.257   4.173
19712SOL    HW261034   6.698   5.377   4.159
19713SOL     OW61035  11.243   9.239  13.983
19713SOL    HW161036  11.263   9.333  13.985
19713SOL    HW261037  11.320   9.198  14.023
19714SOL     OW61038   5.660   1.514   9.519
19714SOL    HW161039   5.639   1.591   9.572
19714SOL    HW261040   5.624   1.533   9.433
19715SOL     OW61041   2.431   0.642   2.373
19715SOL    HW161042   2.447   0.735   2.386
19715SOL    HW261043   2.479   0.621   2.293
19716SOL     OW61044   9.311   4.584  10.965
19716SOL    HW161045   9.391   4.561  10.917
19716SOL    HW261046   9.260   4.503  10.966
19717SOL     OW61047   4.699   3.357   3.353
19717SOL    HW161048   4.755   3.434   3.340
19717SOL    HW261049   4.626   3.370   3.294
19718SOL     OW61050  14.289   8.865   1.798
19718SOL    HW161051  14.231   8.841   1.725
19718SOL    HW261052  14.271   8.798   1.865
19719SOL     OW61053   6.969  11.821   9.286
19719SOL    HW161054   6.885  11.776   9.284
19719SOL    HW261055   7.009  11.793   9.368
19720SOL     OW61056  14.093   1.762   1.204
19720SOL    HW161057  14.133   1.685   1.243
19720SOL    HW261058  14.167   1.818   1.181
19721SOL     OW61059   4.165   5.683  12.412
19721SOL    HW161060   4.154   5.699  12.318
19721SOL    HW261061   4.234   5.616  12.417
19722SOL     OW61062  14.549   3.314  11.009
19722SOL    HW161063  14.482   3.250  11.031
19722SOL    HW261064  14.500   3.393  10.984
19723SOL     OW61065   9.018  13.842   0.348
19723SOL    HW161066   8.925  13.825   0.330
19723SOL    HW261067   9.062  13.761   0.325
19724SOL     OW61068   7.449   2.242   4.336
19724SOL    HW161069   7.397   2.203   4.266
19724SOL    HW261070   7.439   2.181   4.409
19725SOL     OW61071   5.697   4.574  14.574
19725SOL    HW161072   5.612   4.615  14.559
19725SOL    HW261073   5.685   4.483  14.547
19726SOL     OW61074   6.457   1.660  13.045
19726SOL    HW161075   6.392   1.606  13.000
19726SOL    HW261076   6.489   1.720  12.977
19727SOL     OW61077  10.277   7.613   6.170
19727SOL    HW161078  10.309   7.703   6.183
19727SOL    HW261079  10.268   7.578   6.258
19728SOL     OW61080   1.439   9.613   9.771
19728SOL    HW161081   1.416   9.692   9.820
19728SOL    HW261082   1.393   9.542   9.817
19729SOL     OW61083  13.504  13.747   6.079
19729SOL    HW161084  13.438  13.677   6.079
19729SOL    HW261085  13.585  13.704   6.051
19730SOL     OW61086   1.022   2.364   4.869
19730SOL    HW161087   1.009   2.277   4.905
19730SOL    HW261088   1.009   2.354   4.775
19731SOL     OW61089   3.790   1.998   5.844
19731SOL    HW161090   3.820   1.954   5.764
19731SOL    HW261091   3.844   2.077   5.849
19732SOL     OW61092   7.206   1.059  10.419
19732SOL    HW161093   7.249   1.143  10.404
19732SOL    HW261094   7.259   1.017  10.487
19733SOL     OW61095   8.109   3.718   0.739
19733SOL    HW161096   8.085   3.627   0.758
19733SOL    HW261097   8.198   3.713   0.705
19734SOL     OW61098  11.082   5.031   9.984
19734SOL    HW161099  11.105   5.052   9.894
19734SOL    HW261100  11.121   5.101  10.036
19735SOL     OW61101   2.219   4.500   1.586
19735SOL    HW161102   2.166   4.571   1.550
19735SOL    HW261103   2.305   4.539   1.602
19736SOL     OW61104  10.477   9.246  10.294
19736SOL    HW161105  10.486   9.321  10.235
19736SOL    HW261106  10.566   9.228  10.324
19737SOL     OW61107   8.776  10.756   5.895
19737SOL    HW161108   8.845  10.781   5.957
19737SOL    HW261109   8.815  10.684   5.844
19738SOL     OW61110   4.726   2.052   1.322
19738SOL    HW161111   4.807   2.050   1.373
19738SOL    HW261112   4.717   2.143   1.295
19739SOL     OW61113   1.685   3.324   8.745
19739SOL    HW161114   1.756   3.380   8.713
19739SOL    HW261115   1.605   3.373   8.726
19740SOL     OW61116   7.405  14.533   5.276
19740SOL    HW161117   7.403  14.628   5.261
19740SOL    HW261118   7.324  14.501   5.237
19741SOL     OW61119  11.650  12.431   5.254
19741SOL    HW161120  11.592  12.398   5.323
19741SOL    HW261121  11.723  12.368   5.253
19742SOL     OW61122   0.021  11.551   0.091
19742SOL    HW161123  14.879  11.638   0.121
19742SOL    HW261124   0.066  11.512   0.166
19743SOL     OW61125  10.228   0.921   4.666
19743SOL    HW161126  10.303   0.981   4.662
19743SOL    HW261127  10.268   0.834   4.673
19744SOL     OW61128  10.124   8.538   2.992
19744SOL    HW161129  10.091   8.571   3.076
19744SOL    HW261130  10.188   8.471   3.015
19745SOL     OW61131   5.900   6.002   4.594
19745SOL    HW161132   5.949   5.941   4.649
19745SOL    HW261133   5.851   5.946   4.534
19746SOL     OW61134   1.182   6.190   9.216
19746SOL    HW161135   1.126   6.145   9.153
19746SOL    HW261136   1.123   6.214   9.288
19747SOL     OW61137   1.200   8.641   5.456
19747SOL    HW161138   1.239   8.575   5.398
19747SOL    HW261139   1.155   8.701   5.398
19748SOL     OW61140   9.676   0.410  11.975
19748SOL    HW161141   9.639   0.404  11.887
19748SOL    HW261142   9.717   0.325  11.990
19749SOL     OW61143   3.902   6.979   5.445
19749SOL    HW161144   3.925   7.056   5.496
19749SOL    HW261145   3.954   6.986   5.365
19750SOL     OW61146   5.962  10.911   7.598
19750SOL    HW161147   5.872  10.901   7.629
19750SOL    HW261148   5.981  10.828   7.553
19751SOL     OW61149   6.834   8.766  13.071
19751SOL    HW161150   6.845   8.727  12.984
19751SOL    HW261151   6.873   8.701  13.131
19752SOL     OW61152   8.047  10.204   2.079
19752SOL    HW161153   8.056  10.285   2.130
19752SOL    HW261154   8.106  10.217   2.005
19753SOL     OW61155   0.390  13.199   6.320
19753SOL    HW161156   0.300  13.168   6.325
19753SOL    HW261157   0.429  13.148   6.248
19754SOL     OW61158   0.338   9.744   0.025
19754SOL    HW161159   0.281   9.765  14.833
19754SOL    HW261160   0.426   9.762  14.874
19755SOL     OW61161   8.004  11.664  11.557
19755SOL    HW161162   7.963  11.581  11.532
19755SOL    HW261163   7.985  11.672  11.651
19756SOL     OW61164   9.587   3.567   0.295
19756SOL    HW161165   9.567   3.648   0.249
19756SOL    HW261166   9.607   3.504   0.225
19757SOL     OW61167  12.378  10.741   7.114
19757SOL    HW161168  12.373  10.793   7.034
19757SOL    HW261169  12.294  10.757   7.158
19758SOL     OW61170   9.711   8.009  12.109
19758SOL    HW161171   9.717   7.915  12.090
19758SOL    HW261172   9.652   8.015  12.184
19759SOL     OW61173  10.806   6.112   4.365
19759SOL    HW161174  10.892   6.118   4.406
19759SOL    HW261175  10.761   6.191   4.394
19760SOL     OW61176   5.740   1.302  10.167
19760SOL    HW161177   5.682   1.252  10.225
19760SOL    HW261178   5.715   1.275  10.079
19761SOL     OW61179   6.706  12.395  13.262
19761SOL    HW161180   6.758  12.467  13.296
19761SOL    HW261181   6.644  12.436  13.201
19762SOL     OW61182   0.519   1.136   1.066
19762SOL    HW161183   0.449   1.124   1.001
19762SOL    HW261184   0.566   1.213   1.036
19763SOL     OW61185   1.212   4.547  10.845
19763SOL    HW161186   1.231   4.569  10.936
19763SOL    HW261187   1.129   4.499  10.849
19764SOL     OW61188  10.138  11.869  10.237
19764SOL    HW161189  10.170  11.958  10.225
19764SOL    HW261190  10.196  11.815  10.182
19765SOL     OW61191  14.013  12.357   2.939
19765SOL    HW161192  14.066  12.338   3.017
19765SOL    HW261193  14.077  12.359   2.867
19766SOL     OW61194   5.184   6.541   2.337
19766SOL    HW161195   5.187   6.478   2.265
19766SOL    HW261196   5.092   6.567   2.343
19767SOL     OW61197  10.137   7.245   7.351
19767SOL    HW161198  10.146   7.319   7.412
19767SOL    HW261199  10.216   7.194   7.364
19768SOL     OW61200   4.132   8.698  14.215
19768SOL    HW161201   4.132   8.745  14.132
19768SOL    HW261202   4.199   8.630  14.204
19769SOL     OW61203  12.160   2.569  10.529
19769SOL    HW161204  12.224   2.597  10.464
19769SOL    HW261205  12.106   2.647  10.543
19770SOL     OW61206   5.736   2.205   7.163
19770SOL    HW161207   5.681   2.155   7.103
19770SOL    HW261208   5.800   2.248   7.106
19771SOL     OW61209   6.855   8.331   5.144
19771SOL    HW161210   6.941   8.291   5.137
19771SOL    HW261211   6.803   8.269   5.195
19772SOL     OW61212   3.670   8.850  13.937
19772SOL    HW161213   3.584   8.879  13.967
19772SOL    HW261214   3.653   8.777  13.878
19773SOL     OW61215   2.449   1.273   4.459
19773SOL    HW161216   2.526   1.241   4.410
19773SOL    HW261217   2.396   1.195   4.473
19774SOL     OW61218   3.952   6.816   9.754
19774SOL    HW161219   4.003   6.742   9.721
19774SOL    HW261220   3.994   6.893   9.715
19775SOL     OW61221   5.137   6.583   1.113
19775SOL    HW161222   5.212   6.560   1.060
19775SOL    HW261223   5.063   6.540   1.071
19776SOL     OW61224  12.212   0.676   4.644
19776SOL    HW161225  12.178   0.592   4.613
19776SOL    HW261226  12.247   0.658   4.731
19777SOL     OW61227   6.453  12.169   8.916
19777SOL    HW161228   6.381  12.227   8.941
19777SOL    HW261229   6.410  12.089   8.886
19778SOL     OW61230  12.570   0.073   8.636
19778SOL    HW161231  12.649   0.023   8.616
19778SOL    HW261232  12.594   0.164   8.619
19779SOL     OW61233   8.410  14.080  13.176
19779SOL    HW161234   8.363  14.097  13.258
19779SOL    HW261235   8.434  14.167  13.143
19780SOL     OW61236  12.451  11.684  13.390
19780SOL    HW161237  12.497  11.685  13.473
19780SOL    HW261238  12.451  11.592  13.363
19781SOL     OW61239   2.413   5.543   0.617
19781SOL    HW161240   2.398   5.454   0.586
19781SOL    HW261241   2.391   5.599   0.543
19782SOL     OW61242  13.987   8.936  10.432
19782SOL    HW161243  13.982   8.850  10.389
19782SOL    HW261244  13.914   8.936  10.494
19783SOL     OW61245   2.298   9.010   5.126
19783SOL    HW161246   2.279   9.006   5.032
19783SOL    HW261247   2.389   9.039   5.131
19784SOL     OW61248  11.795  10.439  10.922
19784SOL    HW161249  11.824  10.379  10.853
19784SOL    HW261250  11.876  10.472  10.960
19785SOL     OW61251   7.748   3.939   5.132
19785SOL    HW161252   7.831   3.983   5.149
19785SOL    HW261253   7.770   3.870   5.069
19786SOL     OW61254   5.556  10.189  12.172
19786SOL    HW161255   5.545  10.095  12.178
19786SOL    HW261256   5.622  10.201  12.104
19787SOL     OW61257  12.437   3.136   1.125
19787SOL    HW161258  12.386   3.171   1.198
19787SOL    HW261259  12.485   3.212   1.090
19788SOL     OW61260   2.753  14.741   7.749
19788SOL    HW161261   2.745  14.688   7.828
19788SOL    HW261262   2.689  14.703   7.688
19789SOL     OW61263  13.002   7.954   1.834
19789SOL    HW161264  13.069   7.887   1.846
19789SOL    HW261265  13.049   8.029   1.798
19790SOL     OW61266  10.979  14.673  14.192
19790SOL    HW161267  10.917  14.601  14.201
19790SOL    HW261268  10.932  14.750  14.223
19791SOL     OW61269   0.084   9.425   2.633
19791SOL    HW161270   0.055   9.375   2.556
19791SOL    HW261271   0.055   9.372   2.707
19792SOL     OW61272   9.884   2.960   5.443
19792SOL    HW161273   9.977   2.941   5.456
19792SOL    HW261274   9.857   3.005   5.523
19793SOL     OW61275   3.591   6.786   3.669
19793SOL    HW161276   3.608   6.796   3.762
19793SOL    HW261277   3.607   6.873   3.632
19794SOL     OW61278   0.848  13.425   3.246
19794SOL    HW161279   0.851  13.334   3.276
19794SOL    HW261280   0.759  13.437   3.215
19795SOL     OW61281   2.594   3.749   2.949
19795SOL    HW161282   2.550   3.818   2.900
19795SOL    HW261283   2.682   3.744   2.910
19796SOL     OW61284   1.493   8.110   9.498
19796SOL    HW161285   1.471   8.203   9.486
19796SOL    HW261286   1.434   8.064   9.439
19797SOL     OW61287  13.058  11.461   7.474
19797SOL    HW161288  12.996  11.489   7.543
19797SOL    HW261289  13.134  11.430   7.523
19798SOL     OW61290   6.191  10.875   7.785
19798SOL    HW161291   6.106  10.853   7.746
19798SOL    HW261292   6.223  10.792   7.822
19799SOL     OW61293   4.536  13.110  13.630
19799SOL    HW161294   4.495  13.152  13.554
19799SOL    HW261295   4.620  13.078  13.598
19800SOL     OW61296  13.782   6.078  14.250
19800SOL    HW161297  13.701   6.103  14.206
19800SOL    HW261298  13.779   5.982  14.254
19801SOL     OW61299   6.066   9.110   1.409
19801SOL    HW161300   6.121   9.100   1.487
19801SOL    HW261301   6.127   9.128   1.338
19802SOL     OW61302   2.231  12.901   0.626
19802SOL    HW161303   2.216  12.917   0.719
19802SOL    HW261304   2.149  12.861   0.595
19803SOL     OW61305   9.551  12.581  14.816
19803SOL    HW161306   9.462  12.580  14.780
19803SOL    HW261307   9.554  12.659  14.871
19804SOL     OW61308   5.201   3.091   1.821
19804SOL    HW161309   5.146   3.107   1.744
19804SOL    HW261310   5.262   3.165   1.823
19805SOL     OW61311   5.369   9.598   0.087
19805SOL    HW161312   5.456   9.623   0.053
19805SOL    HW261313   5.316   9.587   0.008
19806SOL     OW61314  11.703  13.837  12.003
19806SOL    HW161315  11.748  13.816  12.084
19806SOL    HW261316  11.730  13.927  11.983
19807SOL     OW61317   6.669  10.605   9.086
19807SOL    HW161318   6.592  10.550   9.099
19807SOL    HW261319   6.697  10.587   8.996
19808SOL     OW61320  10.176   4.287   8.051
19808SOL    HW161321  10.201   4.280   7.959
19808SOL    HW261322  10.159   4.197   8.078
19809SOL     OW61323  12.340   1.409  14.137
19809SOL    HW161324  12.292   1.338  14.180
19809SOL    HW261325  12.370   1.464  14.209
19810SOL     OW61326   4.848  12.945   5.998
19810SOL    HW161327   4.919  12.992   6.041
19810SOL    HW261328   4.877  12.935   5.907
19811SOL     OW61329  11.659  11.171   1.114
19811SOL    HW161330  11.676  11.090   1.162
19811SOL    HW261331  11.569  11.193   1.135
19812SOL     OW61332   5.492  13.906   3.188
19812SOL    HW161333   5.499  13.812   3.177
19812SOL    HW261334   5.473  13.918   3.281
19813SOL     OW61335   1.367   2.643   0.926
19813SOL    HW161336   1.287   2.688   0.902
19813SOL    HW261337   1.360   2.556   0.885
19814SOL     OW61338   0.589   0.822  10.265
19814SOL    HW161339   0.677   0.806  10.299
19814SOL    HW261340   0.532   0.768  10.320
19815SOL     OW61341   1.211  13.607   0.054
19815SOL    HW161342   1.237  13.688   0.010
19815SOL    HW261343   1.146  13.634   0.119
19816SOL     OW61344   6.525  11.414   7.042
19816SOL    HW161345   6.579  11.401   7.120
19816SOL    HW261346   6.582  11.461   6.981
19817SOL     OW61347  13.076  10.674   4.809
19817SOL    HW161348  13.086  10.590   4.855
19817SOL    HW261349  12.991  10.706   4.839
19818SOL     OW61350  12.569   3.301   7.569
19818SOL    HW161351  12.547   3.388   7.601
19818SOL    HW261352  12.549   3.304   7.475
19819SOL     OW61353  12.241   7.456   2.843
19819SOL    HW161354  12.166   7.513   2.864
19819SOL    HW261355  12.303   7.471   2.914
19820SOL     OW61356  11.701   2.846   2.666
19820SOL    HW161357  11.630   2.805   2.715
19820SOL    HW261358  11.780   2.825   2.716
19821SOL     OW61359   0.465  12.315   5.874
19821SOL    HW161360   0.488  12.357   5.791
19821SOL    HW261361   0.540  12.329   5.931
19822SOL     OW61362  14.742  11.385  10.594
19822SOL    HW161363  14.682  11.312  10.577
19822SOL    HW261364  14.819  11.343  10.634
19823SOL     OW61365   6.364   9.908   8.480
19823SOL    HW161366   6.363   9.839   8.414
19823SOL    HW261367   6.288   9.890   8.536
19824SOL     OW61368   7.606  10.940   7.025
19824SOL    HW161369   7.620  11.031   7.000
19824SOL    HW261370   7.527  10.914   6.977
19825SOL     OW61371  14.264   9.874   8.684
19825SOL    HW161372  14.254   9.838   8.772
19825SOL    HW261373  14.236   9.804   8.625
19826SOL     OW61374  14.675   7.386   7.403
19826SOL    HW161375  14.736   7.349   7.467
19826SOL    HW261376  14.591   7.344   7.423
19827SOL     OW61377   7.119   9.305  11.297
19827SOL    HW161378   7.148   9.377  11.240
19827SOL    HW261379   7.153   9.327  11.383
19828SOL     OW61380   4.128   0.474   8.042
19828SOL    HW161381   4.184   0.523   7.981
19828SOL    HW261382   4.155   0.505   8.129
19829SOL     OW61383  14.055  14.647   1.472
19829SOL    HW161384  14.102  14.568   1.498
19829SOL    HW261385  14.111  14.688   1.406
19830SOL     OW61386   4.918   3.807   2.464
19830SOL    HW161387   4.876   3.833   2.546
19830SOL    HW261388   4.897   3.714   2.455
19831SOL     OW61389   3.344   2.354  13.267
19831SOL    HW161390   3.392   2.379  13.346
19831SOL    HW261391   3.311   2.267  13.285
19832SOL     OW61392  12.405  13.624  11.519
19832SOL    HW161393  12.432  13.714  11.499
19832SOL    HW261394  12.486  13.573  11.515
19833SOL     OW61395   9.954   3.818   5.180
19833SOL    HW161396   9.899   3.874   5.125
19833SOL    HW261397   9.927   3.729   5.159
19834SOL     OW61398  10.280   9.155   7.592
19834SOL    HW161399  10.236   9.124   7.672
19834SOL    HW261400  10.277   9.080   7.533
19835SOL     OW61401   2.350   1.170   6.668
19835SOL    HW161402   2.387   1.217   6.593
19835SOL    HW261403   2.323   1.086   6.633
19836SOL     OW61404   5.105   7.366   1.450
19836SOL    HW161405   5.120   7.274   1.429
19836SOL    HW261406   5.167   7.385   1.521
19837SOL     OW61407   5.335   2.985   3.174
19837SOL    HW161408   5.244   2.985   3.205
19837SOL    HW261409   5.386   2.956   3.250
19838SOL     OW61410  14.791  12.224  10.928
19838SOL    HW161411  14.868  12.261  10.971
19838SOL    HW261412  14.760  12.293  10.869
19839SOL     OW61413   6.176  11.330  12.737
19839SOL    HW161414   6.252  11.291  12.780
19839SOL    HW261415   6.120  11.255  12.716
19840SOL     OW61416   5.339   5.687   6.304
19840SOL    HW161417   5.370   5.597   6.307
19840SOL    HW261418   5.410   5.736   6.261
19841SOL     OW61419  14.601  14.111  14.498
19841SOL    HW161420  14.658  14.035  14.506
19841SOL    HW261421  14.660  14.184  14.483
19842SOL     OW61422   9.445   6.571  11.356
19842SOL    HW161423   9.365   6.610  11.391
19842SOL    HW261424   9.514   6.603  11.414
19843SOL     OW61425   8.259   9.905   0.467
19843SOL    HW161426   8.229   9.924   0.378
19843SOL    HW261427   8.354   9.905   0.461
19844SOL     OW61428  10.462   0.876   8.900
19844SOL    HW161429  10.440   0.932   8.975
19844SOL    HW261430  10.379   0.835   8.876
19845SOL     OW61431  10.388  10.166   6.459
19845SOL    HW161432  10.388  10.233   6.391
19845SOL    HW261433  10.469  10.180   6.508
19846SOL     OW61434   1.767   0.241  12.112
19846SOL    HW161435   1.816   0.320  12.090
19846SOL    HW261436   1.746   0.203  12.027
19847SOL     OW61437  13.948  10.538   4.342
19847SOL    HW161438  14.038  10.538   4.310
19847SOL    HW261439  13.905  10.609   4.293
19848SOL     OW61440  14.576  10.606  13.765
19848SOL    HW161441  14.485  10.634  13.775
19848SOL    HW261442  14.615  10.616  13.852
19849SOL     OW61443  12.384  14.836   9.766
19849SOL    HW161444  12.454  14.841   9.831
19849SOL    HW261445  12.372   0.043   9.736
19850SOL     OW61446  12.169   8.400  11.739
19850SOL    HW161447  12.184   8.319  11.789
19850SOL    HW261448  12.116   8.372  11.664
19851SOL     OW61449  10.214  12.897   2.814
19851SOL    HW161450  10.271  12.916   2.889
19851SOL    HW261451  10.125  12.899   2.851
19852SOL     OW61452   7.885  11.227   4.979
19852SOL    HW161453   7.926  11.142   4.994
19852SOL    HW261454   7.860  11.225   4.886
19853SOL     OW61455  13.351   4.346   9.802
19853SOL    HW161456  13.311   4.422   9.844
19853SOL    HW261457  13.311   4.270   9.846
19854SOL     OW61458  13.653   7.394   2.041
19854SOL    HW161459  13.708   7.465   2.008
19854SOL    HW261460  13.715   7.334   2.082
19855SOL     OW61461  13.121  10.774   3.409
19855SOL    HW161462  13.209  10.778   3.448
19855SOL    HW261463  13.137  10.756   3.316
19856SOL     OW61464   3.824   9.330  13.762
19856SOL    HW161465   3.877   9.252  13.779
19856SOL    HW261466   3.791   9.318  13.673
19857SOL     OW61467  13.524  10.034  14.395
19857SOL    HW161468  13.599   9.980  14.419
19857SOL    HW261469  13.448   9.983  14.424
19858SOL     OW61470   3.395   0.258   9.946
19858SOL    HW161471   3.470   0.213   9.986
19858SOL    HW261472   3.344   0.188   9.905
19859SOL     OW61473   0.199   5.062   9.656
19859SOL    HW161474   0.219   5.090   9.567
19859SOL    HW261475   0.137   4.989   9.645
19860SOL     OW61476   6.445   0.025  10.772
19860SOL    HW161477   6.363   0.054  10.812
19860SOL    HW261478   6.504   0.011  10.845
19861SOL     OW61479  11.774   4.402   4.298
19861SOL    HW161480  11.816   4.488   4.306
19861SOL    HW261481  11.688   4.420   4.261
19862SOL     OW61482  13.172   3.773  11.521
19862SOL    HW161483  13.137   3.750  11.435
19862SOL    HW261484  13.139   3.862  11.538
19863SOL     OW61485  14.136  12.879   4.330
19863SOL    HW161486  14.174  12.967   4.334
19863SOL    HW261487  14.196  12.825   4.382
19864SOL     OW61488  11.095   7.644  13.630
19864SOL    HW161489  11.108   7.737  13.613
19864SOL    HW261490  11.104   7.603  13.544
19865SOL     OW61491   5.675   3.282   3.372
19865SOL    HW161492   5.770   3.292   3.363
19865SOL    HW261493   5.650   3.220   3.304
19866SOL     OW61494   9.213  12.075   7.323
19866SOL    HW161495   9.178  12.006   7.381
19866SOL    HW261496   9.271  12.126   7.380
19867SOL     OW61497   2.266  12.135  14.222
19867SOL    HW161498   2.313  12.157  14.141
19867SOL    HW261499   2.188  12.089  14.192
19868SOL     OW61500  13.384   1.321   9.517
19868SOL    HW161501  13.435   1.387   9.565
19868SOL    HW261502  13.309   1.369   9.482
19869SOL     OW61503  13.868   2.772   7.897
19869SOL    HW161504  13.824   2.804   7.975
19869SOL    HW261505  13.893   2.682   7.919
19870SOL     OW61506   9.861   0.156   3.424
19870SOL    HW161507   9.802   0.232   3.427
19870SOL    HW261508   9.815   0.088   3.473
19871SOL     OW61509   7.866   7.197   4.551
19871SOL    HW161510   7.932   7.237   4.607
19871SOL    HW261511   7.789   7.187   4.607
19872SOL     OW61512   7.475   3.360   6.145
19872SOL    HW161513   7.514   3.438   6.105
19872SOL    HW261514   7.381   3.378   6.144
19873SOL     OW61515   8.777   7.439  10.923
19873SOL    HW161516   8.761   7.385  10.846
19873SOL    HW261517   8.749   7.526  10.897
19874SOL     OW61518  13.824   3.097   9.403
19874SOL    HW161519  13.912   3.129   9.424
19874SOL    HW261520  13.819   3.102   9.307
19875SOL     OW61521  13.319  12.917   8.056
19875SOL    HW161522  13.380  12.853   8.019
19875SOL    HW261523  13.241  12.867   8.077
19876SOL     OW61524   3.984  12.931   7.471
19876SOL    HW161525   4.034  12.945   7.551
19876SOL    HW261526   3.987  12.836   7.456
19877SOL     OW61527   8.166   6.038  12.998
19877SOL    HW161528   8.219   6.104  13.043
19877SOL    HW261529   8.084   6.037  13.047
19878SOL     OW61530   8.887  12.422   5.782
19878SOL    HW161531   8.893  12.340   5.734
19878SOL    HW261532   8.856  12.396   5.869
19879SOL     OW61533   0.989  12.807   1.716
19879SOL    HW161534   0.991  12.890   1.764
19879SOL    HW261535   1.078  12.772   1.726
19880SOL     OW61536   3.637  14.679  12.003
19880SOL    HW161537   3.584  14.621  12.057
19880SOL    HW261538   3.629  14.765  12.045
19881SOL     OW61539   8.578   0.652  13.101
19881SOL    HW161540   8.484   0.638  13.108
19881SOL    HW261541   8.590   0.686  13.012
19882SOL     OW61542   2.397   1.845   8.308
19882SOL    HW161543   2.420   1.808   8.393
19882SOL    HW261544   2.329   1.787   8.274
19883SOL     OW61545   1.166  11.358  12.930
19883SOL    HW161546   1.091  11.301  12.948
19883SOL    HW261547   1.210  11.317  12.856
19884SOL     OW61548  11.445   2.876  11.997
19884SOL    HW161549  11.424   2.917  12.081
19884SOL    HW261550  11.491   2.795  12.021
19885SOL     OW61551   5.045   7.379  12.134
19885SOL    HW161552   5.084   7.443  12.193
19885SOL    HW261553   4.962   7.355  12.175
19886SOL     OW61554  12.187   3.272   9.102
19886SOL    HW161555  12.257   3.298   9.162
19886SOL    HW261556  12.233   3.241   9.024
19887SOL     OW61557  13.404   0.045   7.084
19887SOL    HW161558  13.460   0.062   7.008
19887SOL    HW261559  13.362   0.130   7.102
19888SOL     OW61560   5.935   4.165   8.959
19888SOL    HW161561   6.010   4.194   8.907
19888SOL    HW261562   5.903   4.087   8.915
19889SOL     OW61563  12.467   4.011   1.667
19889SOL    HW161564  12.374   4.002   1.645
19889SOL    HW261565  12.512   3.959   1.599
19890SOL     OW61566  13.039   5.522  10.837
19890SOL    HW161567  13.008   5.567  10.759
19890SOL    HW261568  12.985   5.556  10.908
19891SOL     OW61569  12.199   3.260   0.034
19891SOL    HW161570  12.245   3.285  14.837
19891SOL    HW261571  12.170   3.342   0.073
19892SOL     OW61572  12.722   8.306   0.231
19892SOL    HW161573  12.815   8.330   0.231
19892SOL    HW261574  12.697   8.309   0.323
19893SOL     OW61575  14.476  12.558   7.365
19893SOL    HW161576  14.415  12.508   7.310
19893SOL    HW261577  14.472  12.647   7.330
19894SOL     OW61578   8.557   1.461  12.446
19894SOL    HW161579   8.497   1.406  12.497
19894SOL    HW261580   8.529   1.450  12.356
19895SOL     OW61581   7.394   5.657   2.476
19895SOL    HW161582   7.338   5.647   2.553
19895SOL    HW261583   7.413   5.567   2.449
19896SOL     OW61584   9.359  10.489   6.536
19896SOL    HW161585   9.445  10.530   6.543
19896SOL    HW261586   9.376  10.404   6.496
19897SOL     OW61587   0.148   9.974   3.165
19897SOL    HW161588   0.176   9.998   3.253
19897SOL    HW261589   0.188  10.039   3.108
19898SOL     OW61590  12.795   4.788  12.490
19898SOL    HW161591  12.726   4.731  12.456
19898SOL    HW261592  12.749   4.863  12.526
19899SOL     OW61593   8.259  11.529   9.302
19899SOL    HW161594   8.262  11.479   9.220
19899SOL    HW261595   8.178  11.580   9.295
19900SOL     OW61596   5.823   0.994  11.867
19900SOL    HW161597   5.802   0.948  11.786
19900SOL    HW261598   5.772   0.950  11.935
19901SOL     OW61599   4.970   4.719   6.593
19901SOL    HW161600   4.916   4.677   6.526
19901SOL    HW261601   4.971   4.812   6.569
19902SOL     OW61602   0.985  14.789  11.779
19902SOL    HW161603   0.899  14.747  11.789
19902SOL    HW261604   1.000  14.790  11.684
19903SOL     OW61605   8.300   7.463  14.404
19903SOL    HW161606   8.347   7.516  14.469
19903SOL    HW261607   8.264   7.390  14.455
19904SOL     OW61608  10.305   7.171   2.048
19904SOL    HW161609  10.361   7.123   1.986
19904SOL    HW261610  10.305   7.261   2.017
19905SOL     OW61611  14.000  13.855  10.923
19905SOL    HW161612  14.083  13.874  10.878
19905SOL    HW261613  13.981  13.935  10.972
19906SOL     OW61614   8.772   1.497   5.829
19906SOL    HW161615   8.853   1.542   5.854
19906SOL    HW261616   8.799   1.436   5.761
19907SOL     OW61617   0.598   5.727   2.629
19907SOL    HW161618   0.579   5.745   2.536
19907SOL    HW261619   0.693   5.721   2.633
19908SOL     OW61620   7.986  10.353  13.563
19908SOL    HW161621   7.941  10.413  13.504
19908SOL    HW261622   8.029  10.290  13.505
19909SOL     OW61623   4.162  13.568   4.142
19909SOL    HW161624   4.080  13.611   4.168
19909SOL    HW261625   4.190  13.522   4.221
19910SOL     OW61626  11.598  13.941   2.268
19910SOL    HW161627  11.607  13.885   2.191
19910SOL    HW261628  11.640  13.893   2.339
19911SOL     OW61629  13.235  11.127  10.871
19911SOL    HW161630  13.311  11.149  10.925
19911SOL    HW261631  13.223  11.032  10.883
19912SOL     OW61632   2.219   6.083  10.916
19912SOL    HW161633   2.288   6.047  10.971
19912SOL    HW261634   2.263   6.110  10.835
19913SOL     OW61635   0.438  14.201   1.464
19913SOL    HW161636   0.434  14.268   1.532
19913SOL    HW261637   0.499  14.237   1.399
19914SOL     OW61638   0.933   9.216   2.592
19914SOL    HW161639   0.960   9.285   2.530
19914SOL    HW261640   1.000   9.148   2.582
19915SOL     OW61641   0.708   2.031   8.452
19915SOL    HW161642   0.746   2.031   8.540
19915SOL    HW261643   0.781   2.010   8.394
19916SOL     OW61644   7.552  12.618   1.208
19916SOL    HW161645   7.474  12.617   1.264
19916SOL    HW261646   7.519  12.598   1.121
19917SOL     OW61647  11.393   6.802   1.585
19917SOL    HW161648  11.458   6.787   1.516
19917SOL    HW261649  11.319   6.746   1.562
19918SOL     OW61650  13.890   6.112  12.332
19918SOL    HW161651  13.834   6.135  12.406
19918SOL    HW261652  13.972   6.159  12.348
19919SOL     OW61653   6.658   9.705  11.565
19919SOL    HW161654   6.652   9.699  11.470
19919SOL    HW261655   6.711   9.630  11.591
19920SOL     OW61656  14.327   3.633  14.002
19920SOL    HW161657  14.327   3.537  13.999
19920SOL    HW261658  14.244   3.658  13.961
19921SOL     OW61659   6.632   8.255   2.462
19921SOL    HW161660   6.603   8.164   2.457
19921SOL    HW261661   6.723   8.249   2.493
19922SOL     OW61662   6.998  10.382  13.710
19922SOL    HW161663   6.923  10.437  13.687
19922SOL    HW261664   6.969  10.293  13.692
19923SOL     OW61665   0.791   3.177   4.376
19923SOL    HW161666   0.749   3.091   4.373
19923SOL    HW261667   0.720   3.239   4.359
19924SOL     OW61668   0.372  11.635  12.126
19924SOL    HW161669   0.289  11.643  12.174
19924SOL    HW261670   0.406  11.550  12.153
19925SOL     OW61671   7.511  12.918  12.199
19925SOL    HW161672   7.448  12.943  12.131
19925SOL    HW261673   7.595  12.915  12.153
19926SOL     OW61674   8.059   2.803   6.938
19926SOL    HW161675   8.101   2.778   7.021
19926SOL    HW261676   8.081   2.896   6.928
19927SOL     OW61677  12.161   8.882   6.684
19927SOL    HW161678  12.105   8.895   6.761
19927SOL    HW261679  12.112   8.922   6.612
19928SOL     OW61680   3.195  14.797  13.965
19928SOL    HW161681   3.110  14.812  13.924
19928SOL    HW261682   3.197  14.703  13.983
19929SOL     OW61683   6.398  10.892  14.353
19929SOL    HW161684   6.380  10.862  14.264
19929SOL    HW261685   6.421  10.985  14.342
19930SOL     OW61686   7.273   2.116   2.088
19930SOL    HW161687   7.326   2.050   2.045
19930SOL    HW261688   7.241   2.073   2.168
19931SOL     OW61689   8.492  13.294  13.376
19931SOL    HW161690   8.473  13.227  13.311
19931SOL    HW261691   8.408  13.309  13.420
19932SOL     OW61692  10.356  11.352  13.492
19932SOL    HW161693  10.320  11.390  13.572
19932SOL    HW261694  10.377  11.428  13.437
19933SOL     OW61695  14.514   6.335  11.265
19933SOL    HW161696  14.472   6.299  11.344
19933SOL    HW261697  14.554   6.416  11.295
19934SOL     OW61698  14.070  14.850  12.321
19934SOL    HW161699  14.024  14.806  12.392
19934SOL    HW261700  14.007   0.031  12.286
19935SOL     OW61701  10.111   3.797   9.514
19935SOL    HW161702  10.119   3.781   9.608
19935SOL    HW261703  10.147   3.718   9.473
19936SOL     OW61704  14.171   2.054   4.462
19936SOL    HW161705  14.097   2.045   4.403
19936SOL    HW261706  14.234   1.988   4.432
19937SOL     OW61707   0.943   4.062   0.982
19937SOL    HW161708   0.918   4.004   0.910
19937SOL    HW261709   0.986   4.136   0.939
19938SOL     OW61710   7.655   2.500  13.220
19938SOL    HW161711   7.719   2.448  13.172
19938SOL    HW261712   7.708   2.549  13.283
19939SOL     OW61713   5.502  13.766   9.922
19939SOL    HW161714   5.558  13.817   9.980
19939SOL    HW261715   5.453  13.708   9.981
19940SOL     OW61716   5.990   6.790  12.115
19940SOL    HW161717   5.933   6.775  12.190
19940SOL    HW261718   6.020   6.881  12.125
19941SOL     OW61719  14.183   6.635   7.230
19941SOL    HW161720  14.136   6.712   7.198
19941SOL    HW261721  14.126   6.598   7.297
19942SOL     OW61722   6.580  11.169   5.668
19942SOL    HW161723   6.633  11.164   5.588
19942SOL    HW261724   6.578  11.079   5.701
19943SOL     OW61725   0.396   0.894   3.372
19943SOL    HW161726   0.487   0.897   3.400
19943SOL    HW261727   0.370   0.985   3.360
19944SOL     OW61728   8.803   5.574  10.661
19944SOL    HW161729   8.794   5.537  10.574
19944SOL    HW261730   8.833   5.664  10.645
19945SOL     OW61731   7.306   0.745   7.419
19945SOL    HW161732   7.357   0.751   7.338
19945SOL    HW261733   7.224   0.790   7.398
19946SOL     OW61734  11.829   5.271   3.048
19946SOL    HW161735  11.911   5.232   3.078
19946SOL    HW261736  11.855   5.356   3.012
19947SOL     OW61737   7.023  11.404   2.865
19947SOL    HW161738   7.014  11.459   2.787
19947SOL    HW261739   6.992  11.318   2.838
19948SOL     OW61740  12.762   9.288  12.432
19948SOL    HW161741  12.703   9.355  12.468
19948SOL    HW261742  12.804   9.331  12.357
19949SOL     OW61743  13.341   3.354  10.330
19949SOL    HW161744  13.419   3.360  10.276
19949SOL    HW261745  13.268   3.351  10.268
19950SOL     OW61746  10.817   5.303  11.760
19950SOL    HW161747  10.757   5.364  11.717
19950SOL    HW261748  10.852   5.352  11.834
19951SOL     OW61749   1.006   1.218  12.038
19951SOL    HW161750   0.928   1.163  12.037
19951SOL    HW261751   1.007   1.256  12.126
19952SOL     OW61752   9.678  14.788   5.126
19952SOL    HW161753   9.593  14.821   5.099
19952SOL    HW261754   9.668  14.692   5.123
19953SOL     OW61755   0.145  12.175   8.638
19953SOL    HW161756   0.170  12.177   8.730
19953SOL    HW261757   0.221  12.139   8.593
19954SOL     OW61758   3.447   7.874  11.951
19954SOL    HW161759   3.377   7.930  11.917
19954SOL    HW261760   3.527   7.913  11.916
19955SOL     OW61761   8.879   5.265   9.166
19955SOL    HW161762   8.893   5.238   9.257
19955SOL    HW261763   8.784   5.269   9.157
19956SOL     OW61764   8.387   4.888   6.012
19956SOL    HW161765   8.430   4.894   6.097
19956SOL    HW261766   8.416   4.965   5.964
19957SOL     OW61767  12.388   9.015   6.730
19957SOL    HW161768  12.469   8.966   6.744
19957SOL    HW261769  12.320   8.948   6.727
19958SOL     OW61770  14.124   5.625   5.207
19958SOL    HW161771  14.091   5.687   5.142
19958SOL    HW261772  14.161   5.554   5.156
19959SOL     OW61773   7.382   0.316  13.937
19959SOL    HW161774   7.435   0.249  13.980
19959SOL    HW261775   7.296   0.309  13.980
19960SOL     OW61776   0.421  11.449  11.263
19960SOL    HW161777   0.411  11.544  11.270
19960SOL    HW261778   0.367  11.414  11.334
19961SOL     OW61779   8.272   5.084   0.271
19961SOL    HW161780   8.278   4.991   0.295
19961SOL    HW261781   8.269   5.130   0.355
19962SOL     OW61782  10.696   2.674   3.656
19962SOL    HW161783  10.643   2.726   3.716
19962SOL    HW261784  10.690   2.720   3.573
19963SOL     OW61785   8.149   3.857   2.525
19963SOL    HW161786   8.179   3.848   2.615
19963SOL    HW261787   8.165   3.949   2.503
19964SOL     OW61788   6.092  11.572   6.406
19964SOL    HW161789   6.104  11.646   6.465
19964SOL    HW261790   6.174  11.523   6.412
19965SOL     OW61791   6.553  10.398  10.868
19965SOL    HW161792   6.496  10.453  10.922
19965SOL    HW261793   6.639  10.441  10.873
19966SOL     OW61794  14.163  11.391   4.065
19966SOL    HW161795  14.115  11.469   4.094
19966SOL    HW261796  14.122  11.318   4.111
19967SOL     OW61797  10.155   4.321   4.895
19967SOL    HW161798  10.069   4.358   4.914
19967SOL    HW261799  10.152   4.233   4.933
19968SOL     OW61800   9.923   6.538  13.106
19968SOL    HW161801   9.913   6.531  13.201
19968SOL    HW261802   9.957   6.626  13.092
19969SOL     OW61803   2.994  13.123   2.283
19969SOL    HW161804   3.067  13.131   2.222
19969SOL    HW261805   3.023  13.058   2.347
19970SOL     OW61806  10.225   0.185   2.478
19970SOL    HW161807  10.216   0.187   2.573
19970SOL    HW261808  10.136   0.175   2.445
19971SOL     OW61809   3.324  10.546   2.261
19971SOL    HW161810   3.237  10.506   2.259
19971SOL    HW261811   3.329  10.599   2.181
19972SOL     OW61812   1.440   8.764   1.200
19972SOL    HW161813   1.474   8.848   1.231
19972SOL    HW261814   1.470   8.757   1.110
19973SOL     OW61815   7.916   1.090   9.872
19973SOL    HW161816   8.010   1.094   9.860
19973SOL    HW261817   7.897   1.151   9.943
19974SOL     OW61818  14.778  11.089   1.850
19974SOL    HW161819  14.756  11.129   1.934
19974SOL    HW261820  14.848  11.027   1.871
19975SOL     OW61821   3.581   5.672   1.377
19975SOL    HW161822   3.618   5.758   1.394
19975SOL    HW261823   3.488   5.681   1.399
19976SOL     OW61824  10.612  11.855   2.909
19976SOL    HW161825  10.632  11.856   3.002
19976SOL    HW261826  10.517  11.840   2.905
19977SOL     OW61827   3.305   8.291   2.506
19977SOL    HW161828   3.307   8.386   2.523
19977SOL    HW261829   3.296   8.251   2.592
19978SOL     OW61830   6.382   0.885   6.372
19978SOL    HW161831   6.328   0.936   6.312
19978SOL    HW261832   6.399   0.803   6.324
19979SOL     OW61833   5.177   9.392   1.265
19979SOL    HW161834   5.265   9.400   1.227
19979SOL    HW261835   5.184   9.437   1.349
19980SOL     OW61836  10.817  10.519  13.456
19980SOL    HW161837  10.846  10.460  13.386
19980SOL    HW261838  10.725  10.496  13.471
19981SOL     OW61839   0.227   8.278  11.345
19981SOL    HW161840   0.269   8.197  11.374
19981SOL    HW261841   0.296   8.344  11.352
19982SOL     OW61842   5.837   2.722   7.081
19982SOL    HW161843   5.932   2.717   7.073
19982SOL    HW261844   5.814   2.808   7.046
19983SOL     OW61845   2.224  11.835  10.016
19983SOL    HW161846   2.289  11.904  10.020
19983SOL    HW261847   2.253  11.770  10.080
19984SOL     OW61848   2.668   0.513   8.875
19984SOL    HW161849   2.683   0.419   8.867
19984SOL    HW261850   2.673   0.546   8.785
19985SOL     OW61851   5.177   2.317   3.537
19985SOL    HW161852   5.189   2.226   3.563
19985SOL    HW261853   5.088   2.339   3.567
19986SOL     OW61854   5.615   0.172   9.040
19986SOL    HW161855   5.526   0.138   9.031
19986SOL    HW261856   5.671   0.096   9.027
19987SOL     OW61857   9.064   5.814   7.563
19987SOL    HW161858   9.117   5.777   7.634
19987SOL    HW261859   9.011   5.882   7.605
19988SOL     OW61860  13.100   5.899   3.077
19988SOL    HW161861  13.078   5.880   2.986
19988SOL    HW261862  13.047   5.838   3.128
19989SOL     OW61863   9.693  13.689   7.646
19989SOL    HW161864   9.761  13.756   7.648
19989SOL    HW261865   9.692  13.653   7.734
19990SOL     OW61866   2.865  14.779   9.780
19990SOL    HW161867   2.803  14.851   9.794
19990SOL    HW261868   2.887  14.784   9.687
19991SOL     OW61869  12.893  14.046   3.238
19991SOL    HW161870  12.851  13.962   3.258
19991SOL    HW261871  12.849  14.076   3.159
19992SOL     OW61872   3.989  11.719   9.490
19992SOL    HW161873   3.977  11.640   9.438
19992SOL    HW261874   3.930  11.709   9.565
19993SOL     OW61875   1.574   8.463   8.064
19993SOL    HW161876   1.519   8.393   8.099
19993SOL    HW261877   1.618   8.423   7.989
19994SOL     OW61878   0.705   5.835   1.628
19994SOL    HW161879   0.759   5.757   1.620
19994SOL    HW261880   0.763   5.900   1.668
19995SOL     OW61881   5.038   6.861   2.645
19995SOL    HW161882   5.097   6.912   2.590
19995SOL    HW261883   5.030   6.777   2.600
19996SOL     OW61884   2.420  11.961  10.336
19996SOL    HW161885   2.332  11.924  10.326
19996SOL    HW261886   2.407  12.055  10.325
19997SOL     OW61887  13.317  13.530   6.713
19997SOL    HW161888  13.221  13.530   6.710
19997SOL    HW261889  13.342  13.615   6.676
19998SOL     OW61890   5.711   9.380   8.736
19998SOL    HW161891   5.668   9.357   8.819
19998SOL    HW261892   5.761   9.302   8.712
19999SOL     OW61893   7.760   0.286   7.466
19999SOL    HW161894   7.834   0.292   7.527
19999SOL    HW261895   7.795   0.241   7.389
20000SOL     OW61896   6.047   1.043   9.027
20000SOL    HW161897   6.091   1.097   8.961
20000SOL    HW261898   5.956   1.072   9.025
20001SOL     OW61899   0.176   1.131   9.784
20001SOL    HW161900   0.134   1.097   9.705
20001SOL    HW261901   0.213   1.053   9.827
20002SOL     OW61902  13.548   0.874   0.791
20002SOL    HW161903  13.459   0.859   0.825
20002SOL    HW261904  13.584   0.786   0.781
20003SOL     OW61905   1.852  13.750   7.416
20003SOL    HW161906   1.767  13.790   7.396
20003SOL    HW261907   1.855  13.672   7.361
20004SOL     OW61908  10.484   0.817   7.523
20004SOL    HW161909  10.479   0.846   7.614
20004SOL    HW261910  10.403   0.847   7.483
20005SOL     OW61911   7.572  12.498  10.532
20005SOL    HW161912   7.593  12.410  10.563
20005SOL    HW261913   7.526  12.538  10.606
20006SOL     OW61914  12.008   2.615  13.311
20006SOL    HW161915  12.037   2.676  13.379
20006SOL    HW261916  12.047   2.649  13.230
20007SOL     OW61917   7.680   9.473  12.457
20007SOL    HW161918   7.665   9.428  12.374
20007SOL    HW261919   7.771   9.452  12.480
20008SOL     OW61920  11.630   6.672  12.237
20008SOL    HW161921  11.541   6.668  12.272
20008SOL    HW261922  11.669   6.589  12.263
20009SOL     OW61923   0.168   3.635   2.898
20009SOL    HW161924   0.147   3.719   2.939
20009SOL    HW261925   0.229   3.593   2.959
20010SOL     OW61926   2.796  12.045   6.290
20010SOL    HW161927   2.839  12.034   6.375
20010SOL    HW261928   2.855  12.101   6.240
20011SOL     OW61929   6.156   9.895   3.435
20011SOL    HW161930   6.159   9.923   3.344
20011SOL    HW261931   6.247   9.873   3.456
20012SOL     OW61932  10.620   2.217  13.186
20012SOL    HW161933  10.687   2.149  13.189
20012SOL    HW261934  10.645   2.279  13.255
20013SOL     OW61935   4.016   6.105   6.519
20013SOL    HW161936   3.943   6.162   6.497
20013SOL    HW261937   4.035   6.125   6.611
20014SOL     OW61938  13.568   0.258  12.458
20014SOL    HW161939  13.621   0.311  12.399
20014SOL    HW261940  13.599   0.168  12.443
20015SOL     OW61941   4.120  12.845   0.300
20015SOL    HW161942   4.047  12.886   0.255
20015SOL    HW261943   4.174  12.809   0.229
20016SOL     OW61944   8.596   8.483   6.776
20016SOL    HW161945   8.528   8.541   6.810
20016SOL    HW261946   8.612   8.420   6.847
20017SOL     OW61947  13.520  10.691   8.398
20017SOL    HW161948  13.591  10.661   8.342
20017SOL    HW261949  13.525  10.786   8.395
20018SOL     OW61950  12.434  10.931   4.561
20018SOL    HW161951  12.451  10.876   4.485
20018SOL    HW261952  12.339  10.926   4.574
20019SOL     OW61953  11.516   0.430  13.378
20019SOL    HW161954  11.592   0.372  13.382
20019SOL    HW261955  11.553   0.518  13.380
20020SOL     OW61956  11.992  13.731   8.470
20020SOL    HW161957  12.032  13.752   8.385
20020SOL    HW261958  12.066  13.723   8.530
20021SOL     OW61959   3.554   3.613   2.238
20021SOL    HW161960   3.497   3.580   2.168
20021SOL    HW261961   3.506   3.595   2.319
20022SOL     OW61962  13.196   1.353   6.106
20022SOL    HW161963  13.188   1.417   6.035
20022SOL    HW261964  13.129   1.379   6.169
20023SOL     OW61965   2.296   9.548   5.539
20023SOL    HW161966   2.238   9.551   5.615
20023SOL    HW261967   2.376   9.506   5.571
20024SOL     OW61968   6.023   7.113   0.228
20024SOL    HW161969   6.089   7.131   0.161
20024SOL    HW261970   6.008   7.019   0.220
20025SOL     OW61971   7.661  11.784   9.232
20025SOL    HW161972   7.614  11.739   9.162
20025SOL    HW261973   7.694  11.714   9.288
20026SOL     OW61974  13.592  11.331   1.405
20026SOL    HW161975  13.679  11.327   1.365
20026SOL    HW261976  13.545  11.396   1.353
20027SOL     OW61977   5.802  11.428   2.802
20027SOL    HW161978   5.766  11.484   2.871
20027SOL    HW261979   5.841  11.355   2.849
20028SOL     OW61980   0.435   7.480   7.006
20028SOL    HW161981   0.514   7.532   6.999
20028SOL    HW261982   0.430   7.455   7.098
20029SOL     OW61983  13.958   8.138   6.813
20029SOL    HW161984  14.014   8.101   6.744
20029SOL    HW261985  13.977   8.231   6.811
20030SOL     OW61986   9.898  14.408   6.889
20030SOL    HW161987   9.819  14.443   6.931
20030SOL    HW261988   9.922  14.332   6.943
20031SOL     OW61989  13.712  14.544   0.908
20031SOL    HW161990  13.771  14.516   0.979
20031SOL    HW261991  13.644  14.478   0.906
20032SOL     OW61992   2.421   6.771   8.999
20032SOL    HW161993   2.445   6.855   9.039
20032SOL    HW261994   2.335   6.787   8.960
20033SOL     OW61995  12.371   0.193   9.703
20033SOL    HW161996  12.403   0.268   9.754
20033SOL    HW261997  12.344   0.231   9.619
20034SOL     OW61998   4.050   3.673  14.122
20034SOL    HW161999   4.081   3.595  14.168
20034SOL    HW262000   4.053   3.649  14.029
20035SOL     OW62001  11.426   6.566   4.075
20035SOL    HW162002  11.509   6.613   4.085
20035SOL    HW262003  11.386   6.605   3.997
20036SOL     OW62004  13.445   1.795  12.121
20036SOL    HW162005  13.376   1.861  12.115
20036SOL    HW262006  13.494   1.804  12.040
20037SOL     OW62007   3.221  12.161   2.947
20037SOL    HW162008   3.181  12.074   2.957
20037SOL    HW262009   3.296  12.147   2.890
20038SOL     OW62010   6.833  14.275   9.307
20038SOL    HW162011   6.790  14.300   9.225
20038SOL    HW262012   6.838  14.357   9.356
20039SOL     OW62013  11.361   0.219  12.511
20039SOL    HW162014  11.369   0.287  12.444
20039SOL    HW262015  11.281   0.173  12.488
20040SOL     OW62016   0.412   7.166   9.016
20040SOL    HW162017   0.444   7.252   8.990
20040SOL    HW262018   0.350   7.141   8.948
20041SOL     OW62019  13.240   0.033   4.783
20041SOL    HW162020  13.178  14.857   4.826
20041SOL    HW262021  13.281  14.861   4.715
20042SOL     OW62022   0.405  10.010  13.779
20042SOL    HW162023   0.407   9.923  13.739
20042SOL    HW262024   0.465  10.063  13.727
20043SOL     OW62025   9.345  11.372   2.962
20043SOL    HW162026   9.392  11.326   2.892
20043SOL    HW262027   9.413  11.421   3.008
20044SOL     OW62028  13.247   1.547   3.710
20044SOL    HW162029  13.318   1.611   3.721
20044SOL    HW262030  13.175   1.582   3.763
20045SOL     OW62031  10.987  12.358   1.252
20045SOL    HW162032  10.985  12.420   1.179
20045SOL    HW262033  11.010  12.412   1.328
20046SOL     OW62034  10.573   7.552   1.609
20046SOL    HW162035  10.620   7.634   1.590
20046SOL    HW262036  10.619   7.515   1.684
20047SOL     OW62037  11.037  13.288   3.260
20047SOL    HW162038  10.963  13.227   3.258
20047SOL    HW262039  11.066  13.287   3.351
20048SOL     OW62040   4.883   2.382   1.365
20048SOL    HW162041   4.792   2.357   1.349
20048SOL    HW262042   4.893   2.466   1.321
20049SOL     OW62043   5.026   3.602   1.547
20049SOL    HW162044   5.087   3.564   1.610
20049SOL    HW262045   4.949   3.546   1.550
20050SOL     OW62046   8.084   5.772   4.207
20050SOL    HW162047   8.111   5.832   4.277
20050SOL    HW262048   7.994   5.749   4.230
20051SOL     OW62049  10.819  12.020   9.944
20051SOL    HW162050  10.725  12.035   9.957
20051SOL    HW262051  10.835  12.046   9.853
20052SOL     OW62052  14.521  10.247   5.612
20052SOL    HW162053  14.521  10.218   5.521
20052SOL    HW262054  14.612  10.238   5.640
20053SOL     OW62055   7.279   2.617   9.068
20053SOL    HW162056   7.223   2.670   9.125
20053SOL    HW262057   7.357   2.598   9.121
20054SOL     OW62058  11.747  10.209   5.123
20054SOL    HW162059  11.819  10.184   5.182
20054SOL    HW262060  11.773  10.293   5.087
20055SOL     OW62061   6.717   6.309   4.597
20055SOL    HW162062   6.743   6.388   4.643
20055SOL    HW262063   6.623   6.301   4.615
20056SOL     OW62064   5.236   2.639   4.971
20056SOL    HW162065   5.279   2.724   4.961
20056SOL    HW262066   5.220   2.610   4.881
20057SOL     OW62067  14.635   7.791  10.611
20057SOL    HW162068  14.708   7.772  10.670
20057SOL    HW262069  14.583   7.857  10.658
20058SOL     OW62070  10.474   6.683   1.587
20058SOL    HW162071  10.423   6.613   1.627
20058SOL    HW262072  10.548   6.696   1.646
20059SOL     OW62073  12.756  13.243   5.267
20059SOL    HW162074  12.757  13.167   5.209
20059SOL    HW262075  12.740  13.206   5.354
20060SOL     OW62076   5.429   5.375   7.106
20060SOL    HW162077   5.451   5.400   7.196
20060SOL    HW262078   5.514   5.362   7.064
20061SOL     OW62079   0.111   6.563  10.161
20061SOL    HW162080   0.116   6.486  10.217
20061SOL    HW262081   0.168   6.628  10.204
20062SOL     OW62082   6.770   8.415   0.557
20062SOL    HW162083   6.763   8.391   0.649
20062SOL    HW262084   6.760   8.510   0.557
20063SOL     OW62085   3.060   2.140   2.676
20063SOL    HW162086   2.999   2.184   2.617
20063SOL    HW262087   3.093   2.210   2.733
20064SOL     OW62088   4.863   1.998   8.075
20064SOL    HW162089   4.931   2.062   8.092
20064SOL    HW262090   4.897   1.916   8.111
20065SOL     OW62091   0.812   6.570   7.201
20065SOL    HW162092   0.905   6.546   7.207
20065SOL    HW262093   0.811   6.648   7.146
20066SOL     OW62094   7.838  11.714   5.546
20066SOL    HW162095   7.871  11.735   5.458
20066SOL    HW262096   7.917  11.700   5.598
20067SOL     OW62097  12.256   2.377   7.301
20067SOL    HW162098  12.185   2.387   7.239
20067SOL    HW262099  12.232   2.300   7.353
20068SOL     OW62100  13.651  12.272   3.924
20068SOL    HW162101  13.669  12.226   4.006
20068SOL    HW262102  13.556  12.265   3.913
20069SOL     OW62103   6.207   1.436   6.359
20069SOL    HW162104   6.271   1.467   6.295
20069SOL    HW262105   6.128   1.421   6.308
20070SOL     OW62106   8.511   7.212   0.274
20070SOL    HW162107   8.569   7.275   0.317
20070SOL    HW262108   8.542   7.208   0.184
20071SOL     OW62109   7.724   8.327   9.439
20071SOL    HW162110   7.716   8.338   9.534
20071SOL    HW262111   7.634   8.335   9.407
20072SOL     OW62112   7.976  11.268   2.805
20072SOL    HW162113   7.948  11.180   2.778
20072SOL    HW262114   8.065  11.277   2.770
20073SOL     OW62115  13.612   6.541   6.371
20073SOL    HW162116  13.644   6.540   6.280
20073SOL    HW262117  13.628   6.452   6.402
20074SOL     OW62118   7.332  13.020  12.027
20074SOL    HW162119   7.256  12.983  11.981
20074SOL    HW262120   7.320  13.115  12.021
20075SOL     OW62121   9.088   3.375   1.881
20075SOL    HW162122   9.078   3.470   1.893
20075SOL    HW262123   9.046   3.357   1.798
20076SOL     OW62124   0.505   2.841  10.675
20076SOL    HW162125   0.468   2.926  10.697
20076SOL    HW262126   0.588   2.838  10.722
20077SOL     OW62127   3.786  10.821   4.660
20077SOL    HW162128   3.822  10.906   4.686
20077SOL    HW262129   3.854  10.758   4.681
20078SOL     OW62130   2.002   8.504   1.381
20078SOL    HW162131   1.916   8.543   1.371
20078SOL    HW262132   2.004   8.433   1.317
20079SOL     OW62133  14.853  14.154   9.489
20079SOL    HW162134   0.033  14.120   9.426
20079SOL    HW262135  14.771  14.109   9.469
20080SOL     OW62136  10.717   9.889   3.356
20080SOL    HW162137  10.713   9.807   3.307
20080SOL    HW262138  10.808   9.894   3.386
20081SOL     OW62139   9.202   4.484  12.741
20081SOL    HW162140   9.284   4.441  12.764
20081SOL    HW262141   9.160   4.425  12.679
20082SOL     OW62142   1.982   1.581   1.596
20082SOL    HW162143   2.025   1.498   1.574
20082SOL    HW262144   2.047   1.648   1.578
20083SOL     OW62145  10.071   0.013  13.895
20083SOL    HW162146  10.124  14.870  13.820
20083SOL    HW262147  10.130   0.005  13.970
20084SOL     OW62148   8.322  13.652   9.942
20084SOL    HW162149   8.350  13.583   9.882
20084SOL    HW262150   8.230  13.667   9.921
20085SOL     OW62151   8.475  14.786  10.202
20085SOL    HW162152   8.540  14.723  10.173
20085SOL    HW262153   8.515  14.830  10.277
20086SOL     OW62154  12.676   3.835   7.487
20086SOL    HW162155  12.583   3.827   7.466
20086SOL    HW262156  12.689   3.774   7.560
20087SOL     OW62157  11.197  11.254   7.570
20087SOL    HW162158  11.178  11.336   7.616
20087SOL    HW262159  11.290  11.261   7.547
20088SOL     OW62160  13.267   1.206  11.299
20088SOL    HW162161  13.334   1.139  11.285
20088SOL    HW262162  13.195   1.161  11.342
20089SOL     OW62163  14.342   5.628   6.696
20089SOL    HW162164  14.377   5.622   6.607
20089SOL    HW262165  14.290   5.708   6.697
20090SOL     OW62166   2.650  11.450   1.252
20090SOL    HW162167   2.739  11.458   1.220
20090SOL    HW262168   2.636  11.356   1.262
20091SOL     OW62169  13.775  10.428   9.401
20091SOL    HW162170  13.778  10.504   9.343
20091SOL    HW262171  13.725  10.362   9.352
20092SOL     OW62172   3.316  14.654   5.582
20092SOL    HW162173   3.267  14.614   5.654
20092SOL    HW262174   3.395  14.601   5.574
20093SOL     OW62175   1.325   4.338   8.429
20093SOL    HW162176   1.234   4.352   8.401
20093SOL    HW262177   1.317   4.291   8.512
20094SOL     OW62178  14.428   8.460   9.566
20094SOL    HW162179  14.518   8.444   9.538
20094SOL    HW262180  14.430   8.548   9.605
20095SOL     OW62181  11.176   2.363   9.413
20095SOL    HW162182  11.263   2.331   9.391
20095SOL    HW262183  11.188   2.457   9.430
20096SOL     OW62184   2.111  14.714   6.709
20096SOL    HW162185   2.018  14.736   6.697
20096SOL    HW262186   2.127  14.729   6.802
20097SOL     OW62187   6.607   4.520   4.107
20097SOL    HW162188   6.632   4.500   4.198
20097SOL    HW262189   6.543   4.590   4.115
20098SOL     OW62190  11.834   6.530  11.851
20098SOL    HW162191  11.789   6.532  11.767
20098SOL    HW262192  11.870   6.618  11.861
20099SOL     OW62193   1.758   5.415   1.354
20099SOL    HW162194   1.815   5.370   1.415
20099SOL    HW262195   1.816   5.448   1.285
20100SOL     OW62196   0.071   4.170   0.446
20100SOL    HW162197   0.079   4.260   0.417
20100SOL    HW262198   0.070   4.119   0.366
20101SOL     OW62199  12.204   3.161   6.945
20101SOL    HW162200  12.157   3.190   6.866
20101SOL    HW262201  12.245   3.240   6.979
20102SOL     OW62202   7.963  14.595  13.025
20102SOL    HW162203   7.928  14.566  13.110
20102SOL    HW262204   8.048  14.551  13.019
20103SOL     OW62205   5.761  14.111  13.360
20103SOL    HW162206   5.847  14.130  13.323
20103SOL    HW262207   5.772  14.027  13.404
20104SOL     OW62208   1.634   3.327   1.890
20104SOL    HW162209   1.560   3.357   1.943
20104SOL    HW262210   1.623   3.232   1.884
20105SOL     OW62211   0.177   4.871  12.986
20105SOL    HW162212   0.085   4.871  12.960
20105SOL    HW262213   0.183   4.939  13.054
20106SOL     OW62214  13.635  14.873  14.623
20106SOL    HW162215  13.609   0.073  14.582
20106SOL    HW262216  13.569  14.858  14.691
20107SOL     OW62217   0.955   3.705  14.257
20107SOL    HW162218   0.907   3.623  14.252
20107SOL    HW262219   1.045   3.682  14.235
20108SOL     OW62220   6.536  14.373   6.200
20108SOL    HW162221   6.627  14.358   6.226
20108SOL    HW262222   6.504  14.440   6.261
20109SOL     OW62223   9.274   4.299  14.709
20109SOL    HW162224   9.190   4.275  14.670
20109SOL    HW262225   9.313   4.360  14.647
20110SOL     OW62226   2.516  10.343   7.703
20110SOL    HW162227   2.572  10.336   7.625
20110SOL    HW262228   2.560  10.289   7.768
20111SOL     OW62229   0.873  12.903  10.439
20111SOL    HW162230   0.790  12.944  10.414
20111SOL    HW262231   0.880  12.826  10.383
20112SOL     OW62232   3.412  10.019   0.297
20112SOL    HW162233   3.438  10.110   0.281
20112SOL    HW262234   3.463   9.968   0.233
20113SOL     OW62235   6.617  14.269  12.858
20113SOL    HW162236   6.654  14.187  12.888
20113SOL    HW262237   6.554  14.244  12.790
20114SOL     OW62238   4.271   3.458   6.255
20114SOL    HW162239   4.301   3.443   6.345
20114SOL    HW262240   4.287   3.375   6.210
20115SOL     OW62241  13.013   8.496   2.172
20115SOL    HW162242  13.089   8.552   2.154
20115SOL    HW262243  13.004   8.498   2.267
20116SOL     OW62244   4.091   4.360  10.314
20116SOL    HW162245   4.156   4.303  10.274
20116SOL    HW262246   4.050   4.405  10.241
20117SOL     OW62247  14.665  13.055   2.793
20117SOL    HW162248  14.749  13.100   2.791
20117SOL    HW262249  14.660  13.017   2.880
20118SOL     OW62250  11.995   8.122   6.534
20118SOL    HW162251  12.073   8.109   6.588
20118SOL    HW262252  11.999   8.053   6.468
20119SOL     OW62253   5.701  11.985  10.558
20119SOL    HW162254   5.712  11.929  10.481
20119SOL    HW262255   5.726  11.929  10.631
20120SOL     OW62256   1.197   7.820   1.002
20120SOL    HW162257   1.105   7.797   0.992
20120SOL    HW262258   1.235   7.749   1.054
20121SOL     OW62259   5.876  13.187   1.040
20121SOL    HW162260   5.955  13.177   1.092
20121SOL    HW262261   5.805  13.161   1.098
20122SOL     OW62262  13.331   4.331   2.289
20122SOL    HW162263  13.394   4.403   2.293
20122SOL    HW262264  13.246   4.375   2.287
20123SOL     OW62265   3.365   0.068   8.710
20123SOL    HW162266   3.354   0.162   8.696
20123SOL    HW262267   3.329   0.027   8.631
20124SOL     OW62268   3.934   6.079   8.483
20124SOL    HW162269   3.897   5.997   8.518
20124SOL    HW262270   4.021   6.084   8.523
20125SOL     OW62271   3.299   8.842   3.255
20125SOL    HW162272   3.387   8.864   3.228
20125SOL    HW262273   3.274   8.768   3.199
20126SOL     OW62274   8.411   9.240  10.296
20126SOL    HW162275   8.440   9.328  10.322
20126SOL    HW262276   8.489   9.199  10.258
20127SOL     OW62277   1.007   6.889   9.311
20127SOL    HW162278   1.065   6.817   9.288
20127SOL    HW262279   0.923   6.848   9.333
20128SOL     OW62280   9.925   6.619   0.008
20128SOL    HW162281   9.978   6.569   0.069
20128SOL    HW262282   9.914   6.560  14.815
20129SOL     OW62283  13.119   0.044  10.712
20129SOL    HW162284  13.199   0.026  10.762
20129SOL    HW262285  13.048   0.035  10.775
20130SOL     OW62286   4.628  11.358  10.160
20130SOL    HW162287   4.621  11.427  10.225
20130SOL    HW262288   4.553  11.371  10.103
20131SOL     OW62289  13.701  14.527   3.588
20131SOL    HW162290  13.672  14.582   3.516
20131SOL    HW262291  13.621  14.489   3.624
20132SOL     OW62292   9.195   9.289   2.299
20132SOL    HW162293   9.276   9.238   2.310
20132SOL    HW262294   9.180   9.330   2.384
20133SOL     OW62295   3.119   8.880  11.682
20133SOL    HW162296   3.049   8.823  11.712
20133SOL    HW262297   3.076   8.963  11.662
20134SOL     OW62298   8.617  13.817   9.696
20134SOL    HW162299   8.599  13.907   9.668
20134SOL    HW262300   8.573  13.762   9.631
20135SOL     OW62301   8.770   8.764   0.086
20135SOL    HW162302   8.815   8.793   0.007
20135SOL    HW262303   8.689   8.723   0.054
20136SOL     OW62304   6.372   0.447   4.353
20136SOL    HW162305   6.402   0.389   4.423
20136SOL    HW262306   6.277   0.449   4.362
20137SOL     OW62307   1.296  14.574   0.088
20137SOL    HW162308   1.227  14.625   0.129
20137SOL    HW262309   1.312  14.617   0.004
20138SOL     OW62310   5.113   6.473   4.055
20138SOL    HW162311   5.116   6.568   4.066
20138SOL    HW262312   5.027   6.456   4.017
20139SOL     OW62313   1.226   0.388   4.291
20139SOL    HW162314   1.146   0.337   4.303
20139SOL    HW262315   1.278   0.369   4.368
20140SOL     OW62316  13.509   0.623   7.926
20140SOL    HW162317  13.549   0.547   7.883
20140SOL    HW262318  13.535   0.614   8.018
20141SOL     OW62319   9.286   2.901   5.097
20141SOL    HW162320   9.298   2.945   5.013
20141SOL    HW262321   9.371   2.860   5.115
20142SOL     OW62322   9.508   2.779   9.689
20142SOL    HW162323   9.523   2.823   9.606
20142SOL    HW262324   9.596   2.753   9.719
20143SOL     OW62325  10.175   9.565   9.613
20143SOL    HW162326  10.246   9.515   9.572
20143SOL    HW262327  10.219   9.619   9.679
20144SOL     OW62328   1.795  10.227   3.336
20144SOL    HW162329   1.802  10.263   3.248
20144SOL    HW262330   1.874  10.256   3.381
20145SOL     OW62331   1.283  14.118   2.259
20145SOL    HW162332   1.353  14.090   2.201
20145SOL    HW262333   1.275  14.049   2.324
20146SOL     OW62334  10.709  11.907  11.602
20146SOL    HW162335  10.666  11.907  11.516
20146SOL    HW262336  10.668  11.979  11.650
20147SOL     OW62337   2.747  12.746  11.355
20147SOL    HW162338   2.818  12.788  11.305
20147SOL    HW262339   2.677  12.810  11.356
20148SOL     OW62340   1.092   3.392   7.709
20148SOL    HW162341   1.102   3.458   7.777
20148SOL    HW262342   1.139   3.427   7.633
20149SOL     OW62343   6.363  11.418  11.657
20149SOL    HW162344   6.325  11.403  11.743
20149SOL    HW262345   6.377  11.331  11.621
20150SOL     OW62346  13.042  13.265   1.724
20150SOL    HW162347  13.036  13.352   1.684
20150SOL    HW262348  12.962  13.221   1.698
20151SOL     OW62349   8.251  10.351   5.609
20151SOL    HW162350   8.245  10.317   5.519
20151SOL    HW262351   8.220  10.441   5.602
20152SOL     OW62352   1.821  12.862   7.212
20152SOL    HW162353   1.784  12.822   7.290
20152SOL    HW262354   1.761  12.933   7.190
20153SOL     OW62355   7.287   6.417  13.023
20153SOL    HW162356   7.279   6.457  13.110
20153SOL    HW262357   7.343   6.477  12.974
20154SOL     OW62358   3.361   6.567   7.840
20154SOL    HW162359   3.274   6.552   7.878
20154SOL    HW262360   3.361   6.517   7.759
20155SOL     OW62361   1.391   5.264   6.656
20155SOL    HW162362   1.445   5.214   6.596
20155SOL    HW262363   1.453   5.319   6.705
20156SOL     OW62364   7.907   9.775   1.849
20156SOL    HW162365   7.970   9.847   1.844
20156SOL    HW262366   7.866   9.772   1.763
20157SOL     OW62367  10.252  13.694  10.848
20157SOL    HW162368  10.302  13.686  10.767
20157SOL    HW262369  10.165  13.720  10.820
20158SOL     OW62370  13.323  11.389   7.342
20158SOL    HW162371  13.390  11.456   7.325
20158SOL    HW262372  13.307  11.350   7.256
20159SOL     OW62373   6.563   1.382   2.397
20159SOL    HW162374   6.487   1.323   2.401
20159SOL    HW262375   6.584   1.400   2.489
20160SOL     OW62376   2.651  12.494   9.245
20160SOL    HW162377   2.697  12.442   9.179
20160SOL    HW262378   2.577  12.439   9.271
20161SOL     OW62379  11.570  13.294   5.462
20161SOL    HW162380  11.517  13.352   5.518
20161SOL    HW262381  11.524  13.293   5.379
20162SOL     OW62382   0.171  14.634  12.906
20162SOL    HW162383   0.252  14.646  12.856
20162SOL    HW262384   0.106  14.606  12.842
20163SOL     OW62385  10.889  12.568  11.923
20163SOL    HW162386  10.966  12.587  11.978
20163SOL    HW262387  10.903  12.620  11.844
20164SOL     OW62388  14.581  10.657  13.115
20164SOL    HW162389  14.639  10.606  13.059
20164SOL    HW262390  14.620  10.653  13.202
20165SOL     OW62391   2.060  10.946  13.717
20165SOL    HW162392   2.087  10.892  13.642
20165SOL    HW262393   2.097  10.901  13.793
20166SOL     OW62394   8.013  10.185   4.933
20166SOL    HW162395   8.017  10.111   4.873
20166SOL    HW262396   7.970  10.254   4.882
20167SOL     OW62397   0.265   0.611   3.615
20167SOL    HW162398   0.285   0.520   3.635
20167SOL    HW262399   0.350   0.655   3.617
20168SOL     OW62400  12.302   6.385   1.781
20168SOL    HW162401  12.367   6.426   1.725
20168SOL    HW262402  12.270   6.456   1.837
20169SOL     OW62403   2.146   4.339   3.707
20169SOL    HW162404   2.122   4.431   3.718
20169SOL    HW262405   2.110   4.314   3.622
20170SOL     OW62406   5.370   2.629  12.190
20170SOL    HW162407   5.403   2.599  12.275
20170SOL    HW262408   5.358   2.723  12.201
20171SOL     OW62409   9.738   1.919  10.803
20171SOL    HW162410   9.666   1.959  10.754
20171SOL    HW262411   9.743   1.830  10.767
20172SOL     OW62412   2.993   9.824  12.167
20172SOL    HW162413   2.992   9.820  12.071
20172SOL    HW262414   2.901   9.824  12.193
20173SOL     OW62415   2.881   9.096  10.920
20173SOL    HW162416   2.966   9.069  10.885
20173SOL    HW262417   2.858   9.173  10.868
20174SOL     OW62418   4.867   7.537   9.699
20174SOL    HW162419   4.819   7.585   9.766
20174SOL    HW262420   4.886   7.602   9.631
20175SOL     OW62421   6.478  10.573  14.633
20175SOL    HW162422   6.404  10.633  14.644
20175SOL    HW262423   6.551  10.618  14.677
20176SOL     OW62424   5.689   7.366   3.613
20176SOL    HW162425   5.652   7.424   3.546
20176SOL    HW262426   5.783   7.383   3.609
20177SOL     OW62427   4.821   3.039   6.737
20177SOL    HW162428   4.764   3.011   6.666
20177SOL    HW262429   4.780   3.118   6.771
20178SOL     OW62430  11.718   2.145   8.102
20178SOL    HW162431  11.798   2.093   8.116
20178SOL    HW262432  11.672   2.141   8.186
20179SOL     OW62433   6.103  12.521   4.970
20179SOL    HW162434   6.144  12.479   5.044
20179SOL    HW262435   6.175  12.542   4.911
20180SOL     OW62436  14.098  12.775   5.533
20180SOL    HW162437  14.040  12.748   5.605
20180SOL    HW262438  14.160  12.703   5.524
20181SOL     OW62439  14.171   9.479  11.122
20181SOL    HW162440  14.106   9.484  11.052
20181SOL    HW262441  14.123   9.504  11.201
20182SOL     OW62442   3.466   5.546  13.999
20182SOL    HW162443   3.533   5.604  13.963
20182SOL    HW262444   3.384   5.590  13.982
20183SOL     OW62445  13.170   8.051   0.447
20183SOL    HW162446  13.208   8.072   0.532
20183SOL    HW262447  13.082   8.089   0.450
20184SOL     OW62448   6.869   6.100  10.127
20184SOL    HW162449   6.777   6.107  10.102
20184SOL    HW262450   6.868   6.108  10.222
20185SOL     OW62451   0.130  11.771   9.474
20185SOL    HW162452   0.093  11.850   9.514
20185SOL    HW262453   0.224  11.783   9.479
20186SOL     OW62454   7.076   0.530   4.500
20186SOL    HW162455   7.037   0.589   4.564
20186SOL    HW262456   7.165   0.561   4.488
20187SOL     OW62457   9.522   6.931  10.489
20187SOL    HW162458   9.560   6.854  10.531
20187SOL    HW262459   9.543   6.922  10.397
20188SOL     OW62460  14.725   2.722   5.930
20188SOL    HW162461  14.690   2.792   5.984
20188SOL    HW262462  14.795   2.683   5.983
20189SOL     OW62463   2.130  10.514   6.102
20189SOL    HW162464   2.180  10.504   6.183
20189SOL    HW262465   2.125  10.608   6.089
20190SOL     OW62466  12.635   9.258  10.457
20190SOL    HW162467  12.643   9.255  10.553
20190SOL    HW262468  12.704   9.318  10.429
20191SOL     OW62469  11.543   0.156   5.024
20191SOL    HW162470  11.603   0.132   4.954
20191SOL    HW262471  11.483   0.219   4.984
20192SOL     OW62472  10.659  14.846  13.836
20192SOL    HW162473  10.747  14.877  13.856
20192SOL    HW262474  10.634   0.013  13.757
20193SOL     OW62475   5.200   2.205   3.836
20193SOL    HW162476   5.219   2.146   3.763
20193SOL    HW262477   5.106   2.224   3.828
20194SOL     OW62478   6.355   9.854  13.413
20194SOL    HW162479   6.300   9.932  13.416
20194SOL    HW262480   6.389   9.851  13.323
20195SOL     OW62481   8.462   5.413   0.451
20195SOL    HW162482   8.376   5.416   0.407
20195SOL    HW262483   8.450   5.463   0.531
20196SOL     OW62484   2.308  14.511   3.067
20196SOL    HW162485   2.379  14.448   3.081
20196SOL    HW262486   2.236  14.478   3.121
20197SOL     OW62487  13.225   9.171  10.965
20197SOL    HW162488  13.175   9.250  10.945
20197SOL    HW262489  13.177   9.100  10.923
20198SOL     OW62490   3.237   9.580  11.922
20198SOL    HW162491   3.315   9.577  11.868
20198SOL    HW262492   3.256   9.647  11.989
20199SOL     OW62493   1.744   9.335   7.878
20199SOL    HW162494   1.810   9.285   7.830
20199SOL    HW262495   1.793   9.380   7.947
20200SOL     OW62496   9.084   8.127   9.092
20200SOL    HW162497   9.173   8.095   9.079
20200SOL    HW262498   9.035   8.051   9.124
20201SOL     OW62499  11.332   8.902   8.748
20201SOL    HW162500  11.287   8.857   8.677
20201SOL    HW262501  11.415   8.931   8.710
20202SOL     OW62502  13.373   8.894  11.607
20202SOL    HW162503  13.426   8.889  11.528
20202SOL    HW262504  13.424   8.848  11.674
20203SOL     OW62505   1.753  14.014   9.377
20203SOL    HW162506   1.826  14.063   9.338
20203SOL    HW262507   1.793  13.933   9.408
20204SOL     OW62508  11.420  11.690   9.688
20204SOL    HW162509  11.433  11.753   9.759
20204SOL    HW262510  11.327  11.669   9.691
20205SOL     OW62511   9.758   0.991   7.015
20205SOL    HW162512   9.846   0.997   6.980
20205SOL    HW262513   9.703   0.965   6.941
20206SOL     OW62514  10.710  10.500  11.919
20206SOL    HW162515  10.649  10.429  11.900
20206SOL    HW262516  10.796  10.459  11.921
20207SOL     OW62517   3.540   3.049   8.238
20207SOL    HW162518   3.622   3.038   8.286
20207SOL    HW262519   3.556   3.007   8.153
20208SOL     OW62520  12.721   0.168  13.615
20208SOL    HW162521  12.635   0.183  13.654
20208SOL    HW262522  12.774   0.132  13.687
20209SOL     OW62523  14.120   7.986   8.065
20209SOL    HW162524  14.128   8.081   8.061
20209SOL    HW262525  14.056   7.970   8.134
20210SOL     OW62526   6.827   6.000   8.996
20210SOL    HW162527   6.803   5.909   9.013
20210SOL    HW262528   6.746   6.050   9.010
20211SOL     OW62529   5.071   3.118   0.706
20211SOL    HW162530   5.100   3.046   0.762
20211SOL    HW262531   5.021   3.076   0.636
20212SOL     OW62532  10.718   3.198  12.805
20212SOL    HW162533  10.679   3.169  12.723
20212SOL    HW262534  10.657   3.264  12.839
20213SOL     OW62535   6.833  11.767  14.265
20213SOL    HW162536   6.868  11.752  14.177
20213SOL    HW262537   6.745  11.729  14.263
20214SOL     OW62538   9.522   0.183  10.181
20214SOL    HW162539   9.436   0.203  10.144
20214SOL    HW262540   9.552   0.107  10.130
20215SOL     OW62541   4.381  13.688   3.359
20215SOL    HW162542   4.369  13.709   3.452
20215SOL    HW262543   4.391  13.593   3.357
20216SOL     OW62544   1.195   9.868   8.419
20216SOL    HW162545   1.161   9.801   8.478
20216SOL    HW262546   1.262   9.914   8.470
20217SOL     OW62547  12.896   2.773   4.261
20217SOL    HW162548  12.824   2.712   4.279
20217SOL    HW262549  12.915   2.759   4.168
20218SOL     OW62550   2.458  11.281   4.291
20218SOL    HW162551   2.401  11.235   4.353
20218SOL    HW262552   2.403  11.296   4.214
20219SOL     OW62553   4.790   1.339   9.729
20219SOL    HW162554   4.873   1.380   9.705
20219SOL    HW262555   4.815   1.262   9.780
20220SOL     OW62556   9.816   0.862  14.437
20220SOL    HW162557   9.808   0.823  14.350
20220SOL    HW262558   9.737   0.915  14.448
20221SOL     OW62559  12.868   2.621  10.873
20221SOL    HW162560  12.957   2.655  10.866
20221SOL    HW262561  12.854   2.608  10.967
20222SOL     OW62562  13.755   8.011   5.506
20222SOL    HW162563  13.749   8.070   5.430
20222SOL    HW262564  13.805   8.061   5.570
20223SOL     OW62565  10.918   0.336  11.075
20223SOL    HW162566  10.937   0.243  11.091
20223SOL    HW262567  10.998   0.371  11.037
20224SOL     OW62568  11.041  13.267  12.806
20224SOL    HW162569  11.008  13.354  12.826
20224SOL    HW262570  10.977  13.231  12.744
20225SOL     OW62571  10.815   3.419   2.117
20225SOL    HW162572  10.828   3.425   2.212
20225SOL    HW262573  10.904   3.416   2.081
20226SOL     OW62574   1.724  14.477   1.770
20226SOL    HW162575   1.791  14.409   1.779
20226SOL    HW262576   1.650  14.445   1.821
20227SOL     OW62577  12.925   0.363   8.961
20227SOL    HW162578  12.952   0.455   8.957
20227SOL    HW262579  12.880   0.355   9.045
20228SOL     OW62580  10.003   9.747   8.197
20228SOL    HW162581  10.094   9.716   8.200
20228SOL    HW262582  10.008   9.830   8.149
20229SOL     OW62583   4.831  11.558  13.621
20229SOL    HW162584   4.827  11.464  13.607
20229SOL    HW262585   4.832  11.595  13.532
20230SOL     OW62586   4.911  10.172   5.391
20230SOL    HW162587   4.894  10.265   5.404
20230SOL    HW262588   5.001  10.160   5.421
20231SOL     OW62589   7.055   8.964   8.012
20231SOL    HW162590   7.121   8.895   8.016
20231SOL    HW262591   7.058   8.995   7.921
20232SOL     OW62592   2.913  11.587   5.097
20232SOL    HW162593   2.997  11.616   5.133
20232SOL    HW262594   2.922  11.493   5.089
20233SOL     OW62595   1.011  14.264   6.049
20233SOL    HW162596   0.941  14.321   6.078
20233SOL    HW262597   1.011  14.191   6.111
20234SOL     OW62598   5.996   1.011   5.475
20234SOL    HW162599   6.037   1.037   5.393
20234SOL    HW262600   6.022   1.080   5.537
20235SOL     OW62601   6.240  12.875  12.743
20235SOL    HW162602   6.170  12.938  12.727
20235SOL    HW262603   6.321  12.926  12.737
20236SOL     OW62604   8.053  13.134   1.223
20236SOL    HW162605   7.977  13.173   1.180
20236SOL    HW262606   8.124  13.196   1.206
20237SOL     OW62607   8.935  11.485  13.426
20237SOL    HW162608   8.975  11.538  13.358
20237SOL    HW262609   8.886  11.418  13.378
20238SOL     OW62610  13.070   3.073   5.020
20238SOL    HW162611  13.122   3.060   5.100
20238SOL    HW262612  13.089   3.163   4.993
20239SOL     OW62613  10.828   6.456  13.605
20239SOL    HW162614  10.898   6.417  13.658
20239SOL    HW262615  10.804   6.536  13.653
20240SOL     OW62616  11.767   1.118  13.168
20240SOL    HW162617  11.822   1.044  13.141
20240SOL    HW262618  11.807   1.150  13.249
20241SOL     OW62619  11.216   0.894   2.900
20241SOL    HW162620  11.222   0.886   2.805
20241SOL    HW262621  11.173   0.813   2.928
20242SOL     OW62622  13.100   3.467   1.236
20242SOL    HW162623  13.190   3.457   1.204
20242SOL    HW262624  13.110   3.512   1.320
20243SOL     OW62625   2.986   2.432  10.554
20243SOL    HW162626   2.929   2.477  10.492
20243SOL    HW262627   3.050   2.498  10.580
20244SOL     OW62628   1.138   9.705   1.027
20244SOL    HW162629   1.079   9.668   1.093
20244SOL    HW262630   1.221   9.718   1.074
20245SOL     OW62631   9.835   5.881   2.511
20245SOL    HW162632   9.903   5.841   2.458
20245SOL    HW262633   9.882   5.924   2.583
20246SOL     OW62634   3.612   7.023   3.535
20246SOL    HW162635   3.528   7.059   3.507
20246SOL    HW262636   3.656   7.095   3.580
20247SOL     OW62637  11.325   6.963   8.148
20247SOL    HW162638  11.402   6.984   8.094
20247SOL    HW262639  11.274   7.044   8.150
20248SOL     OW62640   2.214   1.949   2.769
20248SOL    HW162641   2.142   1.996   2.810
20248SOL    HW262642   2.190   1.943   2.676
20249SOL     OW62643  12.816  13.497   1.854
20249SOL    HW162644  12.775  13.475   1.938
20249SOL    HW262645  12.909  13.507   1.875
20250SOL     OW62646   3.176   9.186   0.179
20250SOL    HW162647   3.188   9.099   0.141
20250SOL    HW262648   3.263   9.225   0.177
20251SOL     OW62649   3.409  10.126   4.794
20251SOL    HW162650   3.504  10.116   4.799
20251SOL    HW262651   3.388  10.098   4.704
20252SOL     OW62652   2.396   4.903   0.235
20252SOL    HW162653   2.435   4.856   0.161
20252SOL    HW262654   2.445   4.873   0.311
20253SOL     OW62655   1.769   3.302   5.628
20253SOL    HW162656   1.684   3.311   5.585
20253SOL    HW262657   1.748   3.295   5.721
20254SOL     OW62658   4.991   9.091   9.551
20254SOL    HW162659   4.997   9.131   9.464
20254SOL    HW262660   5.068   9.035   9.557
20255SOL     OW62661   3.272  12.860  12.051
20255SOL    HW162662   3.241  12.906  11.973
20255SOL    HW262663   3.338  12.918  12.088
20256SOL     OW62664   9.186   5.582   5.381
20256SOL    HW162665   9.205   5.491   5.359
20256SOL    HW262666   9.243   5.600   5.456
20257SOL     OW62667  14.319   2.883   4.828
20257SOL    HW162668  14.361   2.970   4.825
20257SOL    HW262669  14.346   2.847   4.913
20258SOL     OW62670   9.734   8.445   9.865
20258SOL    HW162671   9.743   8.388   9.942
20258SOL    HW262672   9.645   8.432   9.835
20259SOL     OW62673  11.929   3.873   3.211
20259SOL    HW162674  11.901   3.815   3.282
20259SOL    HW262675  11.994   3.931   3.252
20260SOL     OW62676  12.491   3.120   9.722
20260SOL    HW162677  12.519   3.132   9.631
20260SOL    HW262678  12.514   3.202   9.765
20261SOL     OW62679   7.756   1.717   3.079
20261SOL    HW162680   7.688   1.706   3.145
20261SOL    HW262681   7.804   1.796   3.105
20262SOL     OW62682   4.561   0.662   0.489
20262SOL    HW162683   4.558   0.652   0.584
20262SOL    HW262684   4.644   0.708   0.473
20263SOL     OW62685  13.834   8.643  13.346
20263SOL    HW162686  13.819   8.624  13.438
20263SOL    HW262687  13.922   8.610  13.328
20264SOL     OW62688   9.188   7.929   7.914
20264SOL    HW162689   9.181   7.913   7.820
20264SOL    HW262690   9.244   7.859   7.947
20265SOL     OW62691   1.180   5.847   2.038
20265SOL    HW162692   1.219   5.875   1.955
20265SOL    HW262693   1.093   5.886   2.038
20266SOL     OW62694   5.364   6.492   7.490
20266SOL    HW162695   5.398   6.434   7.559
20266SOL    HW262696   5.440   6.508   7.434
20267SOL     OW62697   4.803  13.483  14.186
20267SOL    HW162698   4.708  13.481  14.192
20267SOL    HW262699   4.833  13.453  14.272
20268SOL     OW62700   2.779   3.355  12.827
20268SOL    HW162701   2.779   3.310  12.743
20268SOL    HW262702   2.790   3.285  12.892
20269SOL     OW62703   6.208   0.905   0.278
20269SOL    HW162704   6.169   0.990   0.256
20269SOL    HW262705   6.204   0.855   0.196
20270SOL     OW62706   7.709  10.705   7.585
20270SOL    HW162707   7.751  10.668   7.662
20270SOL    HW262708   7.618  10.718   7.610
20271SOL     OW62709   6.166   8.029   0.308
20271SOL    HW162710   6.132   7.977   0.236
20271SOL    HW262711   6.228   7.971   0.353
20272SOL     OW62712   0.394   7.632   0.100
20272SOL    HW162713   0.425   7.713   0.142
20272SOL    HW262714   0.473   7.579   0.090
20273SOL     OW62715   3.109  14.255  14.535
20273SOL    HW162716   3.051  14.300  14.596
20273SOL    HW262717   3.125  14.318  14.465
20274SOL     OW62718   0.464   7.883   3.544
20274SOL    HW162719   0.378   7.842   3.556
20274SOL    HW262720   0.526   7.811   3.546
20275SOL     OW62721   1.054   5.808  14.400
20275SOL    HW162722   1.038   5.897  14.432
20275SOL    HW262723   1.009   5.752  14.463
20276SOL     OW62724   1.407   3.380  10.684
20276SOL    HW162725   1.325   3.400  10.730
20276SOL    HW262726   1.465   3.346  10.752
20277SOL     OW62727   2.356  13.403   5.999
20277SOL    HW162728   2.436  13.352   5.984
20277SOL    HW262729   2.288  13.356   5.950
20278SOL     OW62730   7.691   7.522  12.269
20278SOL    HW162731   7.773   7.562  12.297
20278SOL    HW262732   7.644   7.592  12.224
20279SOL     OW62733  12.917   4.843  10.056
20279SOL    HW162734  13.003   4.874  10.085
20279SOL    HW262735  12.867   4.922  10.040
20280SOL     OW62736   7.835   7.802   6.188
20280SOL    HW162737   7.752   7.850   6.186
20280SOL    HW262738   7.813   7.719   6.231
20281SOL     OW62739  11.924   3.082  11.644
20281SOL    HW162740  11.926   3.102  11.550
20281SOL    HW262741  11.831   3.084  11.667
20282SOL     OW62742  12.374  14.373   2.073
20282SOL    HW162743  12.443  14.436   2.051
20282SOL    HW262744  12.414  14.287   2.062
20283SOL     OW62745   3.808   7.800   8.544
20283SOL    HW162746   3.847   7.715   8.563
20283SOL    HW262747   3.739   7.810   8.609
20284SOL     OW62748   1.288   9.612   5.747
20284SOL    HW162749   1.299   9.553   5.672
20284SOL    HW262750   1.308   9.699   5.712
20285SOL     OW62751   4.550   5.579  13.379
20285SOL    HW162752   4.531   5.645  13.311
20285SOL    HW262753   4.476   5.519  13.374
20286SOL     OW62754   2.923  12.895   3.770
20286SOL    HW162755   2.933  12.829   3.702
20286SOL    HW262756   2.842  12.940   3.747
20287SOL     OW62757   8.466  10.351   2.260
20287SOL    HW162758   8.420  10.316   2.336
20287SOL    HW262759   8.443  10.444   2.259
20288SOL     OW62760   1.634   1.345   1.448
20288SOL    HW162761   1.545   1.365   1.418
20288SOL    HW262762   1.674   1.431   1.463
20289SOL     OW62763   1.881   3.228  14.239
20289SOL    HW162764   1.804   3.178  14.266
20289SOL    HW262765   1.899   3.287  14.312
20290SOL     OW62766  10.018   7.924  13.226
20290SOL    HW162767   9.956   7.911  13.153
20290SOL    HW262768  10.104   7.908  13.187
20291SOL     OW62769   2.196   6.360   6.900
20291SOL    HW162770   2.257   6.287   6.891
20291SOL    HW262771   2.185   6.370   6.995
20292SOL     OW62772  12.910  12.579  12.099
20292SOL    HW162773  12.923  12.485  12.101
20292SOL    HW262774  12.998  12.616  12.100
20293SOL     OW62775  13.840  11.096   0.410
20293SOL    HW162776  13.872  11.007   0.427
20293SOL    HW262777  13.765  11.083   0.351
20294SOL     OW62778  13.721  13.166   4.990
20294SOL    HW162779  13.811  13.139   5.009
20294SOL    HW262780  13.719  13.258   5.014
20295SOL     OW62781  13.090   7.326   9.415
20295SOL    HW162782  13.023   7.394   9.417
20295SOL    HW262783  13.160   7.362   9.360
20296SOL     OW62784  10.341   9.316   8.071
20296SOL    HW162785  10.384   9.335   8.154
20296SOL    HW262786  10.410   9.276   8.017
20297SOL     OW62787  11.917   7.661  13.089
20297SOL    HW162788  12.013   7.664  13.091
20297SOL    HW262789  11.897   7.588  13.032
20298SOL     OW62790   7.141  14.450  14.842
20298SOL    HW162791   7.199  14.479  14.772
20298SOL    HW262792   7.056  14.487  14.819
20299SOL     OW62793   5.351   8.268  14.815
20299SOL    HW162794   5.363   8.247   0.026
20299SOL    HW262795   5.357   8.364  14.811
20300SOL     OW62796   6.896   9.244   3.022
20300SOL    HW162797   6.833   9.302   3.065
20300SOL    HW262798   6.955   9.303   2.975
20301SOL     OW62799   4.819  11.059   7.411
20301SOL    HW162800   4.747  11.076   7.472
20301SOL    HW262801   4.897  11.094   7.455
20302SOL     OW62802   6.088   8.902  12.917
20302SOL    HW162803   6.161   8.879  12.860
20302SOL    HW262804   6.128   8.939  12.995
20303SOL     OW62805   3.783  13.316   2.468
20303SOL    HW162806   3.763  13.316   2.374
20303SOL    HW262807   3.789  13.223   2.491
20304SOL     OW62808  14.370   5.348  10.561
20304SOL    HW162809  14.335   5.307  10.482
20304SOL    HW262810  14.330   5.299  10.633
20305SOL     OW62811   7.416   9.422   5.445
20305SOL    HW162812   7.427   9.327   5.458
20305SOL    HW262813   7.505   9.454   5.433
20306SOL     OW62814   1.881   2.833   0.312
20306SOL    HW162815   1.840   2.766   0.366
20306SOL    HW262816   1.831   2.912   0.330
20307SOL     OW62817   5.035   1.329   5.576
20307SOL    HW162818   4.980   1.253   5.593
20307SOL    HW262819   5.064   1.358   5.662
20308SOL     OW62820   3.332   1.561   7.963
20308SOL    HW162821   3.359   1.575   8.054
20308SOL    HW262822   3.275   1.484   7.966
20309SOL     OW62823   1.740   1.337   6.989
20309SOL    HW162824   1.779   1.262   7.035
20309SOL    HW262825   1.811   1.371   6.934
20310SOL     OW62826   6.711   7.561   6.704
20310SOL    HW162827   6.710   7.471   6.738
20310SOL    HW262828   6.619   7.582   6.689
20311SOL     OW62829   5.718   1.818   0.678
20311SOL    HW162830   5.806   1.854   0.673
20311SOL    HW262831   5.701   1.783   0.591
20312SOL     OW62832  10.764   5.077  13.579
20312SOL    HW162833  10.670   5.093  13.580
20312SOL    HW262834  10.774   4.995  13.531
20313SOL     OW62835   0.964  14.084  12.476
20313SOL    HW162836   0.891  14.078  12.537
20313SOL    HW262837   0.981  14.178  12.467
20314SOL     OW62838   3.885  10.414   4.228
20314SOL    HW162839   3.790  10.421   4.226
20314SOL    HW262840   3.904  10.355   4.301
20315SOL     OW62841   6.443   8.923  11.963
20315SOL    HW162842   6.498   9.001  11.976
20315SOL    HW262843   6.364   8.956  11.921
20316SOL     OW62844   8.709  14.167   3.132
20316SOL    HW162845   8.665  14.164   3.217
20316SOL    HW262846   8.652  14.117   3.073
20317SOL     OW62847  10.986   5.832   7.558
20317SOL    HW162848  11.038   5.807   7.482
20317SOL    HW262849  10.998   5.760   7.621
20318SOL     OW62850  14.837  13.185   3.293
20318SOL    HW162851  14.835  13.240   3.215
20318SOL    HW262852   0.032  13.129   3.281
20319SOL     OW62853   1.172   4.788  12.359
20319SOL    HW162854   1.157   4.697  12.332
20319SOL    HW262855   1.263   4.791  12.388
20320SOL     OW62856   2.774   8.333   0.711
20320SOL    HW162857   2.700   8.290   0.666
20320SOL    HW262858   2.835   8.262   0.729
20321SOL     OW62859  14.211   9.712   5.478
20321SOL    HW162860  14.128   9.663   5.475
20321SOL    HW262861  14.217   9.755   5.393
20322SOL     OW62862  12.941  12.774   5.398
20322SOL    HW162863  12.973  12.762   5.488
20322SOL    HW262864  13.020  12.767   5.344
20323SOL     OW62865   6.308  12.247   4.804
20323SOL    HW162866   6.317  12.339   4.777
20323SOL    HW262867   6.395  12.209   4.790
20324SOL     OW62868   0.280   2.694  12.410
20324SOL    HW162869   0.298   2.749  12.334
20324SOL    HW262870   0.290   2.604  12.378
20325SOL     OW62871   3.280   3.305   1.237
20325SOL    HW162872   3.287   3.399   1.220
20325SOL    HW262873   3.262   3.299   1.330
20326SOL     OW62874   7.829   9.809  14.059
20326SOL    HW162875   7.802   9.729  14.014
20326SOL    HW262876   7.768   9.817  14.132
20327SOL     OW62877   2.697   7.913   9.281
20327SOL    HW162878   2.673   7.919   9.374
20327SOL    HW262879   2.786   7.878   9.281
20328SOL     OW62880   3.460   0.738  13.922
20328SOL    HW162881   3.493   0.733  13.832
20328SOL    HW262882   3.525   0.791  13.968
20329SOL     OW62883   6.617  11.297  10.984
20329SOL    HW162884   6.620  11.202  10.981
20329SOL    HW262885   6.556  11.322  10.915
20330SOL     OW62886  11.275   0.526   6.127
20330SOL    HW162887  11.278   0.565   6.215
20330SOL    HW262888  11.355   0.474   6.121
20331SOL     OW62889   3.609   9.829   3.629
20331SOL    HW162890   3.514   9.836   3.642
20331SOL    HW262891   3.647   9.893   3.689
20332SOL     OW62892   4.505   1.316   3.246
20332SOL    HW162893   4.426   1.264   3.237
20332SOL    HW262894   4.531   1.337   3.156
20333SOL     OW62895  12.216   3.976   8.213
20333SOL    HW162896  12.134   3.944   8.175
20333SOL    HW262897  12.277   3.903   8.203
20334SOL     OW62898   0.973   6.957  10.639
20334SOL    HW162899   0.971   7.027  10.705
20334SOL    HW262900   1.064   6.951  10.613
20335SOL     OW62901   5.545   1.248  14.278
20335SOL    HW162902   5.609   1.246  14.350
20335SOL    HW262903   5.598   1.236  14.199
20336SOL     OW62904  11.477   0.200   9.420
20336SOL    HW162905  11.541   0.164   9.481
20336SOL    HW262906  11.429   0.266   9.471
20337SOL     OW62907  14.428   4.107   5.357
20337SOL    HW162908  14.344   4.141   5.388
20337SOL    HW262909  14.445   4.031   5.413
20338SOL     OW62910  12.777   9.651   3.503
20338SOL    HW162911  12.850   9.598   3.471
20338SOL    HW262912  12.741   9.691   3.423
20339SOL     OW62913   7.414   4.175   0.531
20339SOL    HW162914   7.458   4.164   0.446
20339SOL    HW262915   7.375   4.090   0.548
20340SOL     OW62916  12.914  10.831   8.185
20340SOL    HW162917  12.957  10.809   8.268
20340SOL    HW262918  12.933  10.924   8.173
20341SOL     OW62919   9.263   3.282   0.665
20341SOL    HW162920   9.291   3.332   0.741
20341SOL    HW262921   9.333   3.296   0.601
20342SOL     OW62922  10.599   4.569  13.621
20342SOL    HW162923  10.511   4.585  13.586
20342SOL    HW262924  10.624   4.652  13.661
20343SOL     OW62925   4.215   0.566   8.610
20343SOL    HW162926   4.165   0.530   8.683
20343SOL    HW262927   4.305   0.572   8.644
20344SOL     OW62928  13.569   3.170   7.738
20344SOL    HW162929  13.650   3.126   7.712
20344SOL    HW262930  13.598   3.254   7.776
20345SOL     OW62931   5.393   9.875   4.107
20345SOL    HW162932   5.485   9.854   4.121
20345SOL    HW262933   5.385   9.967   4.133
20346SOL     OW62934   6.947   3.277   6.304
20346SOL    HW162935   6.911   3.191   6.326
20346SOL    HW262936   6.985   3.308   6.386
20347SOL     OW62937   1.156   2.115   2.469
20347SOL    HW162938   1.183   2.161   2.549
20347SOL    HW262939   1.184   2.172   2.398
20348SOL     OW62940   5.487   3.219   9.565
20348SOL    HW162941   5.424   3.277   9.521
20348SOL    HW262942   5.432   3.151   9.606
20349SOL     OW62943   7.542  13.736   0.084
20349SOL    HW162944   7.616  13.780   0.042
20349SOL    HW262945   7.560  13.643   0.071
20350SOL     OW62946  13.333  14.236   6.916
20350SOL    HW162947  13.389  14.163   6.888
20350SOL    HW262948  13.246  14.198   6.925
20351SOL     OW62949   9.735  10.029  11.523
20351SOL    HW162950   9.683  10.019  11.602
20351SOL    HW262951   9.681   9.990  11.454
20352SOL     OW62952   2.063   8.696   2.698
20352SOL    HW162953   2.022   8.772   2.740
20352SOL    HW262954   2.104   8.732   2.619
20353SOL     OW62955  12.973   3.002   5.615
20353SOL    HW162956  12.941   2.948   5.688
20353SOL    HW262957  13.031   3.065   5.657
20354SOL     OW62958  12.321   7.411  10.565
20354SOL    HW162959  12.340   7.354  10.491
20354SOL    HW262960  12.300   7.496  10.526
20355SOL     OW62961   0.740  10.540   6.922
20355SOL    HW162962   0.769  10.452   6.901
20355SOL    HW262963   0.649  10.544   6.894
20356SOL     OW62964   3.513  11.335   3.653
20356SOL    HW162965   3.463  11.283   3.716
20356SOL    HW262966   3.576  11.384   3.706
20357SOL     OW62967   3.957  10.622   1.780
20357SOL    HW162968   3.897  10.683   1.736
20357SOL    HW262969   4.043  10.641   1.742
20358SOL     OW62970  13.666  12.003   5.856
20358SOL    HW162971  13.615  11.970   5.929
20358SOL    HW262972  13.722  12.071   5.894
20359SOL     OW62973   7.737  13.376  13.779
20359SOL    HW162974   7.688  13.368  13.860
20359SOL    HW262975   7.671  13.371  13.710
20360SOL     OW62976   3.624  11.128   7.317
20360SOL    HW162977   3.692  11.063   7.300
20360SOL    HW262978   3.557  11.111   7.251
20361SOL     OW62979   1.329  13.968   8.589
20361SOL    HW162980   1.254  13.910   8.576
20361SOL    HW262981   1.404  13.909   8.597
20362SOL     OW62982  13.087   4.009  11.643
20362SOL    HW162983  13.142   4.072  11.690
20362SOL    HW262984  13.042   3.960  11.712
20363SOL     OW62985  11.013  14.739   9.322
20363SOL    HW162986  11.104  14.724   9.295
20363SOL    HW262987  10.978  14.652   9.340
20364SOL     OW62988   6.685   9.491   9.995
20364SOL    HW162989   6.639   9.519  10.074
20364SOL    HW262990   6.622   9.438   9.947
20365SOL     OW62991   0.053   0.394   3.877
20365SOL    HW162992   0.147   0.388   3.894
20365SOL    HW262993   0.046   0.390   3.781
20366SOL     OW62994  13.420  12.273   8.844
20366SOL    HW162995  13.339  12.228   8.870
20366SOL    HW262996  13.472  12.278   8.924
20367SOL     OW62997   0.534   7.989   4.993
20367SOL    HW162998   0.525   8.078   5.026
20367SOL    HW262999   0.466   7.980   4.926
20368SOL     OW63000  11.493   7.145   8.024
20368SOL    HW163001  11.523   7.168   7.936
20368SOL    HW263002  11.400   7.168   8.024
20369SOL     OW63003   1.675  10.811   2.568
20369SOL    HW163004   1.654  10.802   2.475
20369SOL    HW263005   1.590  10.819   2.611
20370SOL     OW63006  13.478   7.546   7.120
20370SOL    HW163007  13.386   7.564   7.140
20370SOL    HW263008  13.522   7.629   7.137
20371SOL     OW63009  11.514  10.591  13.444
20371SOL    HW163010  11.581  10.614  13.508
20371SOL    HW263011  11.495  10.499  13.461
20372SOL     OW63012  10.547   8.960  10.481
20372SOL    HW163013  10.463   9.000  10.506
20372SOL    HW263014  10.592   9.029  10.431
20373SOL     OW63015  14.397   4.467   3.635
20373SOL    HW163016  14.387   4.548   3.584
20373SOL    HW263017  14.308   4.432   3.641
20374SOL     OW63018   3.828  12.345   2.091
20374SOL    HW163019   3.806  12.405   2.162
20374SOL    HW263020   3.839  12.260   2.134
20375SOL     OW63021  10.975   6.852  11.477
20375SOL    HW163022  10.901   6.905  11.508
20375SOL    HW263023  10.936   6.767  11.458
20376SOL     OW63024   7.248   5.855  12.666
20376SOL    HW163025   7.253   5.799  12.743
20376SOL    HW263026   7.165   5.901  12.674
20377SOL     OW63027   3.191   7.881  10.454
20377SOL    HW163028   3.186   7.884  10.550
20377SOL    HW263029   3.283   7.863  10.435
20378SOL     OW63030   9.803  10.649   0.256
20378SOL    HW163031   9.863  10.585   0.294
20378SOL    HW263032   9.720  10.602   0.249
20379SOL     OW63033  13.874   0.086   8.867
20379SOL    HW163034  13.866   0.025   8.794
20379SOL    HW263035  13.936   0.044   8.927
20380SOL     OW63036  11.846   8.508   9.171
20380SOL    HW163037  11.753   8.511   9.194
20380SOL    HW263038  11.889   8.562   9.238
20381SOL     OW63039   4.614   1.345   6.745
20381SOL    HW163040   4.632   1.438   6.762
20381SOL    HW263041   4.621   1.303   6.831
20382SOL     OW63042   6.974   6.046   0.361
20382SOL    HW163043   6.963   5.955   0.334
20382SOL    HW263044   7.040   6.042   0.430
20383SOL     OW63045   9.695   3.938   1.617
20383SOL    HW163046   9.743   3.872   1.667
20383SOL    HW263047   9.682   4.010   1.678
20384SOL     OW63048   0.310  12.409   8.975
20384SOL    HW163049   0.378  12.477   8.972
20384SOL    HW263050   0.228  12.457   8.963
20385SOL     OW63051   7.350   6.800  12.445
20385SOL    HW163052   7.443   6.814  12.461
20385SOL    HW263053   7.348   6.743  12.368
20386SOL     OW63054  13.624   9.012   9.592
20386SOL    HW163055  13.635   8.920   9.567
20386SOL    HW263056  13.574   9.051   9.520
20387SOL     OW63057   0.823  12.047   5.551
20387SOL    HW163058   0.826  11.951   5.556
20387SOL    HW263059   0.801  12.075   5.640
20388SOL     OW63060   6.994   1.718   9.652
20388SOL    HW163061   7.023   1.630   9.675
20388SOL    HW263062   7.075   1.769   9.643
20389SOL     OW63063  10.966  14.816   6.842
20389SOL    HW163064  10.895  14.752   6.849
20389SOL    HW263065  11.037  14.779   6.894
20390SOL     OW63066  14.558  14.321   6.808
20390SOL    HW163067  14.511  14.379   6.748
20390SOL    HW263068  14.570  14.373   6.888
20391SOL     OW63069  11.160   1.774  10.995
20391SOL    HW163070  11.113   1.837  10.942
20391SOL    HW263071  11.232   1.744  10.939
20392SOL     OW63072   2.408   7.150  11.943
20392SOL    HW163073   2.458   7.209  11.999
20392SOL    HW263074   2.468   7.078  11.923
20393SOL     OW63075  14.464   1.306   9.614
20393SOL    HW163076  14.544   1.260   9.641
20393SOL    HW263077  14.396   1.239   9.620
20394SOL     OW63078  13.953   4.357   4.635
20394SOL    HW163079  13.936   4.428   4.573
20394SOL    HW263080  14.038   4.378   4.674
20395SOL     OW63081   8.683   6.240   2.686
20395SOL    HW163082   8.600   6.195   2.700
20395SOL    HW263083   8.676   6.276   2.598
20396SOL     OW63084   4.939   9.360   5.162
20396SOL    HW163085   5.020   9.353   5.212
20396SOL    HW263086   4.966   9.384   5.074
20397SOL     OW63087   9.152   3.649  14.613
20397SOL    HW163088   9.115   3.706  14.681
20397SOL    HW263089   9.188   3.709  14.548
20398SOL     OW63090   3.722   2.017   6.221
20398SOL    HW163091   3.810   2.035   6.188
20398SOL    HW263092   3.734   2.008   6.316
20399SOL     OW63093  14.469   5.298  13.728
20399SOL    HW163094  14.482   5.339  13.642
20399SOL    HW263095  14.407   5.356  13.773
20400SOL     OW63096   3.886   4.117   4.046
20400SOL    HW163097   3.907   4.206   4.075
20400SOL    HW263098   3.791   4.116   4.040
20401SOL     OW63099   7.183   0.377   5.397
20401SOL    HW163100   7.148   0.349   5.481
20401SOL    HW263101   7.136   0.324   5.332
20402SOL     OW63102   1.535   7.061   8.989
20402SOL    HW163103   1.473   7.125   9.024
20402SOL    HW263104   1.549   7.000   9.061
20403SOL     OW63105   7.639   2.613   8.485
20403SOL    HW163106   7.558   2.570   8.459
20403SOL    HW263107   7.642   2.692   8.431
20404SOL     OW63108   3.569  12.173   5.392
20404SOL    HW163109   3.636  12.114   5.426
20404SOL    HW263110   3.493  12.118   5.378
20405SOL     OW63111   1.802   3.885   2.940
20405SOL    HW163112   1.751   3.963   2.965
20405SOL    HW263113   1.842   3.856   3.021
20406SOL     OW63114   0.816   9.222   0.711
20406SOL    HW163115   0.765   9.141   0.709
20406SOL    HW263116   0.794   9.262   0.795
20407SOL     OW63117   6.632   3.487   7.050
20407SOL    HW163118   6.663   3.417   6.992
20407SOL    HW263119   6.679   3.473   7.132
20408SOL     OW63120  12.344   5.779   9.912
20408SOL    HW163121  12.284   5.748   9.979
20408SOL    HW263122  12.427   5.793   9.958
20409SOL     OW63123   6.380   3.856   4.272
20409SOL    HW163124   6.382   3.931   4.332
20409SOL    HW263125   6.417   3.890   4.191
20410SOL     OW63126   2.461   5.964  11.002
20410SOL    HW163127   2.461   5.904  11.077
20410SOL    HW263128   2.541   6.015  11.012
20411SOL     OW63129   9.225   0.665   7.690
20411SOL    HW163130   9.197   0.711   7.611
20411SOL    HW263131   9.262   0.733   7.746
20412SOL     OW63132  13.228   6.996   0.212
20412SOL    HW163133  13.261   6.922   0.263
20412SOL    HW263134  13.139   6.971   0.188
20413SOL     OW63135   9.863   4.737  14.295
20413SOL    HW163136   9.885   4.701  14.381
20413SOL    HW263137   9.823   4.821  14.314
20414SOL     OW63138  11.734   5.652  11.916
20414SOL    HW163139  11.642   5.648  11.889
20414SOL    HW263140  11.742   5.735  11.963
20415SOL     OW63141  10.324   3.420   9.019
20415SOL    HW163142  10.355   3.380   9.100
20415SOL    HW263143  10.310   3.512   9.041
20416SOL     OW63144   7.485   7.195   0.586
20416SOL    HW163145   7.533   7.258   0.533
20416SOL    HW263146   7.552   7.147   0.634
20417SOL     OW63147   0.535   5.521  10.632
20417SOL    HW163148   0.473   5.507  10.704
20417SOL    HW263149   0.615   5.551  10.675
20418SOL     OW63150   8.602   8.907   1.340
20418SOL    HW163151   8.664   8.979   1.349
20418SOL    HW263152   8.651   8.829   1.369
20419SOL     OW63153   6.898   3.822   2.664
20419SOL    HW163154   6.930   3.764   2.733
20419SOL    HW263155   6.810   3.846   2.693
20420SOL     OW63156   5.501  10.488  12.784
20420SOL    HW163157   5.432  10.454  12.841
20420SOL    HW263158   5.456  10.549  12.725
20421SOL     OW63159   3.609  10.184   9.761
20421SOL    HW163160   3.542  10.140   9.709
20421SOL    HW263161   3.584  10.168   9.852
20422SOL     OW63162   2.071   7.103   6.006
20422SOL    HW163163   2.092   7.024   6.057
20422SOL    HW263164   1.982   7.125   6.031
20423SOL     OW63165   7.627   3.230   4.137
20423SOL    HW163166   7.658   3.145   4.168
20423SOL    HW263167   7.532   3.223   4.140
20424SOL     OW63168  13.830   9.352   5.907
20424SOL    HW163169  13.884   9.347   5.986
20424SOL    HW263170  13.833   9.264   5.870
20425SOL     OW63171   1.308   1.685   1.682
20425SOL    HW163172   1.354   1.601   1.684
20425SOL    HW263173   1.224   1.666   1.641
20426SOL     OW63174   2.390   8.174   9.363
20426SOL    HW163175   2.337   8.249   9.387
20426SOL    HW263176   2.451   8.163   9.436
20427SOL     OW63177  13.161   6.517  10.688
20427SOL    HW163178  13.133   6.436  10.729
20427SOL    HW263179  13.137   6.585  10.751
20428SOL     OW63180   3.861   3.632  12.507
20428SOL    HW163181   3.942   3.592  12.475
20428SOL    HW263182   3.810   3.649  12.427
20429SOL     OW63183   9.288   9.771   8.631
20429SOL    HW163184   9.232   9.735   8.562
20429SOL    HW263185   9.277   9.866   8.624
20430SOL     OW63186   6.322   0.446   7.883
20430SOL    HW163187   6.361   0.532   7.903
20430SOL    HW263188   6.234   0.467   7.851
20431SOL     OW63189  12.841   6.805  13.717
20431SOL    HW163190  12.818   6.713  13.710
20431SOL    HW263191  12.764   6.852  13.685
20432SOL     OW63192  10.055   9.205   8.620
20432SOL    HW163193  10.021   9.167   8.701
20432SOL    HW263194  10.010   9.157   8.551
20433SOL     OW63195  11.450  13.632   4.592
20433SOL    HW163196  11.386  13.633   4.521
20433SOL    HW263197  11.467  13.539   4.608
20434SOL     OW63198   1.986   1.250   2.668
20434SOL    HW163199   2.032   1.330   2.694
20434SOL    HW263200   2.048   1.203   2.613
20435SOL     OW63201   2.384  14.449   2.083
20435SOL    HW163202   2.378  14.356   2.063
20435SOL    HW263203   2.473  14.460   2.118
20436SOL     OW63204   2.319   0.918   8.313
20436SOL    HW163205   2.226   0.898   8.305
20436SOL    HW263206   2.361   0.861   8.249
20437SOL     OW63207  14.367   1.590   6.128
20437SOL    HW163208  14.276   1.620   6.128
20437SOL    HW263209  14.362   1.499   6.157
20438SOL     OW63210   7.930   4.093   5.269
20438SOL    HW163211   7.992   4.066   5.337
20438SOL    HW263212   7.866   4.147   5.315
20439SOL     OW63213   7.057  12.898   0.343
20439SOL    HW163214   7.127  12.898   0.278
20439SOL    HW263215   7.014  12.982   0.331
20440SOL     OW63216   5.377  11.075   4.586
20440SOL    HW163217   5.343  11.149   4.636
20440SOL    HW263218   5.456  11.108   4.544
20441SOL     OW63219   0.787   0.066   6.990
20441SOL    HW163220   0.728   0.002   6.949
20441SOL    HW263221   0.729   0.121   7.044
20442SOL     OW63222   2.242   9.267   8.805
20442SOL    HW163223   2.196   9.350   8.820
20442SOL    HW263224   2.332   9.285   8.832
20443SOL     OW63225   4.943   2.684   2.847
20443SOL    HW163226   4.963   2.769   2.887
20443SOL    HW263227   5.029   2.642   2.836
20444SOL     OW63228   6.995   3.162   4.524
20444SOL    HW163229   6.922   3.114   4.562
20444SOL    HW263230   7.048   3.189   4.600
20445SOL     OW63231  10.786   6.386  10.683
20445SOL    HW163232  10.796   6.479  10.704
20445SOL    HW263233  10.867   6.364  10.636
20446SOL     OW63234  13.815   8.805   9.888
20446SOL    HW163235  13.817   8.901   9.895
20446SOL    HW263236  13.887   8.776   9.944
20447SOL     OW63237   4.391  14.871  13.576
20447SOL    HW163238   4.478   0.026  13.591
20447SOL    HW263239   4.363  14.841  13.662
20448SOL     OW63240   0.878  12.919   3.356
20448SOL    HW163241   0.955  12.868   3.329
20448SOL    HW263242   0.888  12.929   3.450
20449SOL     OW63243   5.389  10.445  13.412
20449SOL    HW163244   5.412  10.395  13.490
20449SOL    HW263245   5.436  10.403  13.341
20450SOL     OW63246   4.025   7.777   1.214
20450SOL    HW163247   4.096   7.781   1.279
20450SOL    HW263248   4.048   7.704   1.157
20451SOL     OW63249  12.423  12.619  10.985
20451SOL    HW163250  12.502  12.565  10.981
20451SOL    HW263251  12.354  12.557  11.010
20452SOL     OW63252   6.445   8.180   2.972
20452SOL    HW163253   6.386   8.215   3.040
20452SOL    HW263254   6.440   8.244   2.901
20453SOL     OW63255   9.178  14.773  12.950
20453SOL    HW163256   9.225  14.710  12.894
20453SOL    HW263257   9.232  14.780  13.028
20454SOL     OW63258   7.456   4.820   0.933
20454SOL    HW163259   7.408   4.742   0.905
20454SOL    HW263260   7.400   4.893   0.907
20455SOL     OW63261   1.309   1.349  13.996
20455SOL    HW163262   1.278   1.439  14.007
20455SOL    HW263263   1.258   1.315  13.922
20456SOL     OW63264   2.808   4.398  12.874
20456SOL    HW163265   2.837   4.461  12.807
20456SOL    HW263266   2.731   4.356  12.836
20457SOL     OW63267  13.745   7.686   6.838
20457SOL    HW163268  13.767   7.706   6.747
20457SOL    HW263269  13.823   7.712   6.888
20458SOL     OW63270  12.658  13.023   3.383
20458SOL    HW163271  12.665  12.978   3.298
20458SOL    HW263272  12.749  13.040   3.408
20459SOL     OW63273  10.557   9.153  13.211
20459SOL    HW163274  10.489   9.086  13.217
20459SOL    HW263275  10.520   9.219  13.152
20460SOL     OW63276   6.286   0.663   9.122
20460SOL    HW163277   6.339   0.696   9.195
20460SOL    HW263278   6.349   0.639   9.055
20461SOL     OW63279   6.436   3.366   9.762
20461SOL    HW163280   6.410   3.353   9.853
20461SOL    HW263281   6.481   3.285   9.739
20462SOL     OW63282   1.478   1.683   5.469
20462SOL    HW163283   1.421   1.657   5.542
20462SOL    HW263284   1.546   1.615   5.468
20463SOL     OW63285  13.341  13.408   8.831
20463SOL    HW163286  13.349  13.385   8.924
20463SOL    HW263287  13.421  13.373   8.791
20464SOL     OW63288   6.154   5.983  13.499
20464SOL    HW163289   6.102   5.949  13.426
20464SOL    HW263290   6.139   6.078  13.496
20465SOL     OW63291   9.900  12.187   9.279
20465SOL    HW163292   9.925  12.098   9.254
20465SOL    HW263293   9.804  12.187   9.276
20466SOL     OW63294   9.859  12.908   7.685
20466SOL    HW163295   9.814  12.979   7.639
20466SOL    HW263296   9.815  12.903   7.770
20467SOL     OW63297   5.954  13.577   8.699
20467SOL    HW163298   6.042  13.614   8.695
20467SOL    HW263299   5.924  13.575   8.608
20468SOL     OW63300   2.902   4.357   7.800
20468SOL    HW163301   2.882   4.415   7.726
20468SOL    HW263302   2.817   4.337   7.839
20469SOL     OW63303   5.484   3.331  11.081
20469SOL    HW163304   5.442   3.250  11.049
20469SOL    HW263305   5.458   3.397  11.017
20470SOL     OW63306   3.845   6.828  12.940
20470SOL    HW163307   3.842   6.734  12.960
20470SOL    HW263308   3.892   6.867  13.014
20471SOL     OW63309   9.113   5.223   9.039
20471SOL    HW163310   9.019   5.242   9.051
20471SOL    HW263311   9.117   5.180   8.953
20472SOL     OW63312  11.375  10.528  13.043
20472SOL    HW163313  11.457  10.534  12.995
20472SOL    HW263314  11.398  10.488  13.127
20473SOL     OW63315  12.559  12.018   4.272
20473SOL    HW163316  12.614  11.989   4.345
20473SOL    HW263317  12.512  11.940   4.244
20474SOL     OW63318   7.223   1.316  11.620
20474SOL    HW163319   7.178   1.378  11.677
20474SOL    HW263320   7.161   1.245  11.608
20475SOL     OW63321   4.885  10.939   3.527
20475SOL    HW163322   4.830  10.885   3.470
20475SOL    HW263323   4.887  10.893   3.610
20476SOL     OW63324   6.440   6.198   8.827
20476SOL    HW163325   6.390   6.119   8.806
20476SOL    HW263326   6.513   6.199   8.766
20477SOL     OW63327   1.178   7.586   0.738
20477SOL    HW163328   1.144   7.517   0.681
20477SOL    HW263329   1.228   7.539   0.805
20478SOL     OW63330   5.025   0.280   2.047
20478SOL    HW163331   5.055   0.363   2.084
20478SOL    HW263332   5.104   0.225   2.045
20479SOL     OW63333   9.714  13.197   2.802
20479SOL    HW163334   9.653  13.156   2.740
20479SOL    HW263335   9.741  13.126   2.859
20480SOL     OW63336   6.778   6.197  10.660
20480SOL    HW163337   6.729   6.276  10.637
20480SOL    HW263338   6.869   6.226  10.667
20481SOL     OW63339   0.537   1.832   7.262
20481SOL    HW163340   0.515   1.865   7.175
20481SOL    HW263341   0.570   1.908   7.309
20482SOL     OW63342   6.141   8.874  13.730
20482SOL    HW163343   6.069   8.811  13.742
20482SOL    HW263344   6.199   8.831  13.667
20483SOL     OW63345   7.665  14.096   0.016
20483SOL    HW163346   7.570  14.098   0.005
20483SOL    HW263347   7.699  14.075  14.811
20484SOL     OW63348   0.051   2.775   2.022
20484SOL    HW163349   0.113   2.789   1.950
20484SOL    HW263350   0.104   2.779   2.101
20485SOL     OW63351   0.501   9.496  12.929
20485SOL    HW163352   0.573   9.438  12.956
20485SOL    HW263353   0.439   9.439  12.884
20486SOL     OW63354   9.288   8.074   8.412
20486SOL    HW163355   9.327   8.140   8.355
20486SOL    HW263356   9.215   8.118   8.454
20487SOL     OW63357   2.099   7.063   6.925
20487SOL    HW163358   2.126   7.026   6.841
20487SOL    HW263359   2.013   7.023   6.943
20488SOL     OW63360   2.909  10.545   7.207
20488SOL    HW163361   2.942  10.471   7.155
20488SOL    HW263362   2.966  10.547   7.283
20489SOL     OW63363   5.216  13.609  13.999
20489SOL    HW163364   5.196  13.655  14.080
20489SOL    HW263365   5.157  13.533  14.000
20490SOL     OW63366  14.703   5.357  10.840
20490SOL    HW163367  14.627   5.394  10.796
20490SOL    HW263368  14.671   5.334  10.927
20491SOL     OW63369  10.449   3.128   4.552
20491SOL    HW163370  10.476   3.113   4.643
20491SOL    HW263371  10.531   3.132   4.503
20492SOL     OW63372  12.899  14.219   8.414
20492SOL    HW163373  12.905  14.216   8.509
20492SOL    HW263374  12.835  14.152   8.391
20493SOL     OW63375   9.288  10.504  11.277
20493SOL    HW163376   9.375  10.513  11.315
20493SOL    HW263377   9.272  10.410  11.274
20494SOL     OW63378   3.087   6.457   1.144
20494SOL    HW163379   3.040   6.540   1.150
20494SOL    HW263380   3.028   6.398   1.098
20495SOL     OW63381   2.076   9.258   3.909
20495SOL    HW163382   1.981   9.253   3.903
20495SOL    HW263383   2.095   9.262   4.002
20496SOL     OW63384   5.896   8.380   9.999
20496SOL    HW163385   5.912   8.445  10.067
20496SOL    HW263386   5.962   8.398   9.932
20497SOL     OW63387   5.595  10.984   7.416
20497SOL    HW163388   5.660  10.924   7.452
20497SOL    HW263389   5.556  11.027   7.492
20498SOL     OW63390  10.240   9.793   9.072
20498SOL    HW163391  10.165   9.847   9.097
20498SOL    HW263392  10.291   9.848   9.013
20499SOL     OW63393   4.173  13.582   0.015
20499SOL    HW163394   4.231  13.506   0.012
20499SOL    HW263395   4.134  13.586  14.810
20500SOL     OW63396   3.261  10.882   9.953
20500SOL    HW163397   3.179  10.847   9.918
20500SOL    HW263398   3.245  10.893  10.046
20501SOL     OW63399   5.965   3.722   7.258
20501SOL    HW163400   5.910   3.651   7.291
20501SOL    HW263401   5.979   3.700   7.166
20502SOL     OW63402   4.139   3.622   7.060
20502SOL    HW163403   4.179   3.562   6.998
20502SOL    HW263404   4.076   3.672   7.008
20503SOL     OW63405  10.185  12.964  14.133
20503SOL    HW163406  10.235  12.997  14.059
20503SOL    HW263407  10.101  12.937  14.096
20504SOL     OW63408   1.178  14.060  13.014
20504SOL    HW163409   1.181  14.090  12.923
20504SOL    HW263410   1.243  13.990  13.018
20505SOL     OW63411  13.009   9.216   6.472
20505SOL    HW163412  12.918   9.186   6.478
20505SOL    HW263413  13.056   9.161   6.535
20506SOL     OW63414   4.209   3.026   3.890
20506SOL    HW163415   4.118   3.037   3.916
20506SOL    HW263416   4.224   3.094   3.825
20507SOL     OW63417   0.978   1.892   1.422
20507SOL    HW163418   0.893   1.857   1.396
20507SOL    HW263419   0.961   1.938   1.504
20508SOL     OW63420  14.827  11.834   6.579
20508SOL    HW163421  14.835  11.918   6.533
20508SOL    HW263422  14.733  11.823   6.591
20509SOL     OW63423  11.295  12.058   9.273
20509SOL    HW163424  11.318  12.151   9.278
20509SOL    HW263425  11.241  12.050   9.195
20510SOL     OW63426   1.457  14.853   0.807
20510SOL    HW163427   1.395  14.782   0.824
20510SOL    HW263428   1.428   0.008   0.724
20511SOL     OW63429   6.032   3.543  10.363
20511SOL    HW163430   5.999   3.460  10.329
20511SOL    HW263431   6.127   3.529  10.372
20512SOL     OW63432  10.504  13.449   3.853
20512SOL    HW163433  10.413  13.441   3.882
20512SOL    HW263434  10.553  13.467   3.933
20513SOL     OW63435   8.586  11.313   4.959
20513SOL    HW163436   8.505  11.271   4.930
20513SOL    HW263437   8.557  11.395   4.998
20514SOL     OW63438   6.227   8.222  14.347
20514SOL    HW163439   6.146   8.244  14.301
20514SOL    HW263440   6.257   8.141  14.305
20515SOL     OW63441   8.232   3.180   9.852
20515SOL    HW163442   8.281   3.149   9.928
20515SOL    HW263443   8.287   3.248   9.813
20516SOL     OW63444  13.586  13.036   7.211
20516SOL    HW163445  13.669  13.073   7.181
20516SOL    HW263446  13.610  12.950   7.246
20517SOL     OW63447   6.295  10.749  10.467
20517SOL    HW163448   6.285  10.716  10.377
20517SOL    HW263449   6.352  10.684  10.509
20518SOL     OW63450  13.436   4.831   2.933
20518SOL    HW163451  13.459   4.869   3.018
20518SOL    HW263452  13.464   4.896   2.869
20519SOL     OW63453   0.920   2.576  14.105
20519SOL    HW163454   0.922   2.671  14.105
20519SOL    HW263455   1.012   2.550  14.098
20520SOL     OW63456   6.839  13.092  12.637
20520SOL    HW163457   6.933  13.094  12.619
20520SOL    HW263458   6.826  13.009  12.683
20521SOL     OW63459   5.932   0.637   0.563
20521SOL    HW163460   5.948   0.730   0.548
20521SOL    HW263461   5.941   0.626   0.657
20522SOL     OW63462   5.433  13.813   9.513
20522SOL    HW163463   5.344  13.779   9.509
20522SOL    HW263464   5.434  13.885   9.451
20523SOL     OW63465   4.706   7.443   8.916
20523SOL    HW163466   4.777   7.463   8.856
20523SOL    HW263467   4.716   7.350   8.937
20524SOL     OW63468   6.078   0.668   1.236
20524SOL    HW163469   6.122   0.723   1.171
20524SOL    HW263470   6.143   0.654   1.304
20525SOL     OW63471  13.579   7.655  11.803
20525SOL    HW163472  13.581   7.732  11.859
20525SOL    HW263473  13.617   7.684  11.720
20526SOL     OW63474   2.139  13.780  11.234
20526SOL    HW163475   2.139  13.778  11.330
20526SOL    HW263476   2.121  13.871  11.212
20527SOL     OW63477   8.180   1.703   9.737
20527SOL    HW163478   8.140   1.631   9.786
20527SOL    HW263479   8.107   1.763   9.720
20528SOL     OW63480  10.203   3.323  10.148
20528SOL    HW163481  10.212   3.228  10.159
20528SOL    HW263482  10.216   3.338  10.054
20529SOL     OW63483   5.233   4.126   3.763
20529SOL    HW163484   5.186   4.064   3.708
20529SOL    HW263485   5.280   4.183   3.701
20530SOL     OW63486   4.764  12.801   9.688
20530SOL    HW163487   4.820  12.878   9.684
20530SOL    HW263488   4.790  12.749   9.612
20531SOL     OW63489  14.645   2.768   6.613
20531SOL    HW163490  14.720   2.734   6.565
20531SOL    HW263491  14.592   2.691   6.632
20532SOL     OW63492   1.512   9.813   3.628
20532SOL    HW163493   1.562   9.877   3.578
20532SOL    HW263494   1.453   9.774   3.564
20533SOL     OW63495   0.340   0.040   0.709
20533SOL    HW163496   0.381   0.035   0.622
20533SOL    HW263497   0.270  14.857   0.706
20534SOL     OW63498   7.463  13.273   5.504
20534SOL    HW163499   7.447  13.179   5.497
20534SOL    HW263500   7.406  13.302   5.575
20535SOL     OW63501   6.038   9.527   8.919
20535SOL    HW163502   6.030   9.491   8.830
20535SOL    HW263503   5.958   9.500   8.963
20536SOL     OW63504  12.499  10.245   4.761
20536SOL    HW163505  12.424  10.268   4.815
20536SOL    HW263506  12.483  10.290   4.678
20537SOL     OW63507   8.138   7.935   8.657
20537SOL    HW163508   8.220   7.949   8.703
20537SOL    HW263509   8.159   7.870   8.589
20538SOL     OW63510  10.416   2.439  13.236
20538SOL    HW163511  10.467   2.519  13.228
20538SOL    HW263512  10.482   2.369  13.242
20539SOL     OW63513  14.097   9.960   4.073
20539SOL    HW163514  14.182   9.927   4.104
20539SOL    HW263515  14.096  10.052   4.100
20540SOL     OW63516  10.124   3.565   2.256
20540SOL    HW163517  10.207   3.613   2.253
20540SOL    HW263518  10.116   3.525   2.169
20541SOL     OW63519  13.635   1.174  10.514
20541SOL    HW163520  13.722   1.134  10.514
20541SOL    HW263521  13.651   1.265  10.541
20542SOL     OW63522   4.671   1.314  13.582
20542SOL    HW163523   4.608   1.294  13.513
20542SOL    HW263524   4.710   1.229  13.604
20543SOL     OW63525  12.841   1.363  10.571
20543SOL    HW163526  12.826   1.375  10.478
20543SOL    HW263527  12.845   1.268  10.583
20544SOL     OW63528   1.277   2.988  14.329
20544SOL    HW163529   1.228   2.907  14.314
20544SOL    HW263530   1.216   3.058  14.307
20545SOL     OW63531   1.802   1.023   0.308
20545SOL    HW163532   1.893   1.040   0.332
20545SOL    HW263533   1.795   1.056   0.218
20546SOL     OW63534   4.017   1.690   7.096
20546SOL    HW163535   3.942   1.637   7.067
20546SOL    HW263536   4.058   1.637   7.164
20547SOL     OW63537  11.894  13.105   5.037
20547SOL    HW163538  11.875  13.025   5.085
20547SOL    HW263539  11.983  13.094   5.006
20548SOL     OW63540   5.596   2.933   4.372
20548SOL    HW163541   5.588   2.921   4.466
20548SOL    HW263542   5.517   2.981   4.347
20549SOL     OW63543   8.956  10.752   5.180
20549SOL    HW163544   8.896  10.823   5.202
20549SOL    HW263545   9.025  10.759   5.246
20550SOL     OW63546   4.421   7.762   0.368
20550SOL    HW163547   4.366   7.684   0.379
20550SOL    HW263548   4.454   7.781   0.456
20551SOL     OW63549  11.973   4.729   1.133
20551SOL    HW163550  11.930   4.661   1.080
20551SOL    HW263551  12.059   4.740   1.093
20552SOL     OW63552   9.784   3.168   7.257
20552SOL    HW163553   9.729   3.120   7.196
20552SOL    HW263554   9.777   3.260   7.229
20553SOL     OW63555   0.270   6.164   0.529
20553SOL    HW163556   0.221   6.181   0.448
20553SOL    HW263557   0.241   6.076   0.555
20554SOL     OW63558  14.512   1.401   5.320
20554SOL    HW163559  14.501   1.456   5.242
20554SOL    HW263560  14.518   1.463   5.393
20555SOL     OW63561  10.550   8.238   6.007
20555SOL    HW163562  10.529   8.215   6.098
20555SOL    HW263563  10.469   8.221   5.959
20556SOL     OW63564  13.480  10.955   9.576
20556SOL    HW163565  13.490  10.931   9.484
20556SOL    HW263566  13.519  10.882   9.624
20557SOL     OW63567   1.469   7.910  14.697
20557SOL    HW163568   1.556   7.875  14.716
20557SOL    HW263569   1.428   7.919  14.784
20558SOL     OW63570  12.560  12.759   3.386
20558SOL    HW163571  12.588  12.850   3.396
20558SOL    HW263572  12.603  12.713   3.458
20559SOL     OW63573   5.079  12.936   2.789
20559SOL    HW163574   5.038  12.979   2.863
20559SOL    HW263575   5.050  12.845   2.794
20560SOL     OW63576   8.176   5.283   2.827
20560SOL    HW163577   8.128   5.277   2.745
20560SOL    HW263578   8.221   5.367   2.823
20561SOL     OW63579   6.906   8.796   2.338
20561SOL    HW163580   6.895   8.747   2.256
20561SOL    HW263581   6.897   8.888   2.313
20562SOL     OW63582   1.722  13.959  10.228
20562SOL    HW163583   1.634  13.955  10.191
20562SOL    HW263584   1.751  14.048  10.209
20563SOL     OW63585  12.236   9.521  13.549
20563SOL    HW163586  12.255   9.606  13.591
20563SOL    HW263587  12.201   9.467  13.620
20564SOL     OW63588   8.344  14.580   2.273
20564SOL    HW163589   8.353  14.515   2.343
20564SOL    HW263590   8.407  14.649   2.297
20565SOL     OW63591   6.157  11.940   5.777
20565SOL    HW163592   6.245  11.975   5.762
20565SOL    HW263593   6.171  11.863   5.832
20566SOL     OW63594   0.758   3.074  12.692
20566SOL    HW163595   0.672   3.078  12.650
20566SOL    HW263596   0.819   3.102  12.624
20567SOL     OW63597  14.778   0.867  14.653
20567SOL    HW163598  14.725   0.940  14.621
20567SOL    HW263599  14.781   0.880  14.748
20568SOL     OW63600   4.337   6.409   6.267
20568SOL    HW163601   4.307   6.320   6.249
20568SOL    HW263602   4.273   6.466   6.224
20569SOL     OW63603  14.704   1.946   2.260
20569SOL    HW163604  14.758   2.013   2.219
20569SOL    HW263605  14.642   1.919   2.192
20570SOL     OW63606  11.313  11.736   2.635
20570SOL    HW163607  11.306  11.640   2.632
20570SOL    HW263608  11.244  11.763   2.697
20571SOL     OW63609  12.298   2.270   4.003
20571SOL    HW163610  12.227   2.256   4.065
20571SOL    HW263611  12.369   2.305   4.057
20572SOL     OW63612  10.551   2.625   6.873
20572SOL    HW163613  10.538   2.616   6.968
20572SOL    HW263614  10.534   2.537   6.839
20573SOL     OW63615   8.618   4.809  14.651
20573SOL    HW163616   8.631   4.903  14.640
20573SOL    HW263617   8.637   4.792  14.743
20574SOL     OW63618  14.024   6.539   5.845
20574SOL    HW163619  13.973   6.621   5.840
20574SOL    HW263620  13.994   6.497   5.925
20575SOL     OW63621   0.457   9.747  13.732
20575SOL    HW163622   0.422   9.696  13.659
20575SOL    HW263623   0.459   9.685  13.805
20576SOL     OW63624  11.752   6.074  14.042
20576SOL    HW163625  11.690   6.126  13.991
20576SOL    HW263626  11.743   6.106  14.132
20577SOL     OW63627   5.604  14.381  10.915
20577SOL    HW163628   5.512  14.397  10.894
20577SOL    HW263629   5.638  14.466  10.941
20578SOL     OW63630   5.335  10.849   2.773
20578SOL    HW163631   5.418  10.814   2.804
20578SOL    HW263632   5.273  10.776   2.783
20579SOL     OW63633  12.232  14.376   1.656
20579SOL    HW163634  12.295  14.338   1.595
20579SOL    HW263635  12.225  14.312   1.726
20580SOL     OW63636   9.031   4.822  12.151
20580SOL    HW163637   9.049   4.747  12.095
20580SOL    HW263638   9.093   4.889  12.121
20581SOL     OW63639  13.459   9.617  11.065
20581SOL    HW163640  13.433   9.592  11.154
20581SOL    HW263641  13.384   9.666  11.031
20582SOL     OW63642   2.655   4.209   5.268
20582SOL    HW163643   2.668   4.126   5.222
20582SOL    HW263644   2.695   4.275   5.211
20583SOL     OW63645   0.622  12.665  14.518
20583SOL    HW163646   0.561  12.653  14.591
20583SOL    HW263647   0.703  12.694  14.560
20584SOL     OW63648   9.503  11.662   9.135
20584SOL    HW163649   9.485  11.617   9.218
20584SOL    HW263650   9.554  11.599   9.084
20585SOL     OW63651   0.348  14.227   8.607
20585SOL    HW163652   0.315  14.142   8.576
20585SOL    HW263653   0.329  14.288   8.535
20586SOL     OW63654   9.039   0.148  12.217
20586SOL    HW163655   9.028   0.164  12.123
20586SOL    HW263656   9.107   0.209  12.244
20587SOL     OW63657   8.220   6.962   1.758
20587SOL    HW163658   8.130   6.929   1.757
20587SOL    HW263659   8.232   6.994   1.847
20588SOL     OW63660   6.709  10.812  14.151
20588SOL    HW163661   6.801  10.793  14.167
20588SOL    HW263662   6.697  10.902  14.182
20589SOL     OW63663   3.145   0.930   5.785
20589SOL    HW163664   3.228   0.885   5.772
20589SOL    HW263665   3.103   0.931   5.699
20590SOL     OW63666  11.848   0.287   8.371
20590SOL    HW163667  11.893   0.365   8.405
20590SOL    HW263668  11.822   0.312   8.282
20591SOL     OW63669   3.480   1.259   4.075
20591SOL    HW163670   3.558   1.302   4.041
20591SOL    HW263671   3.488   1.169   4.046
20592SOL     OW63672   8.850  13.072   1.646
20592SOL    HW163673   8.777  13.045   1.590
20592SOL    HW263674   8.927  13.062   1.591
20593SOL     OW63675   6.534   2.512  13.973
20593SOL    HW163676   6.443   2.501  13.945
20593SOL    HW263677   6.578   2.432  13.944
20594SOL     OW63678  10.494   9.670   6.317
20594SOL    HW163679  10.441   9.609   6.367
20594SOL    HW263680  10.569   9.689   6.375
20595SOL     OW63681   8.722  13.380   4.993
20595SOL    HW163682   8.774  13.433   4.932
20595SOL    HW263683   8.756  13.402   5.079
20596SOL     OW63684   6.721   2.829  13.309
20596SOL    HW163685   6.772   2.847  13.388
20596SOL    HW263686   6.659   2.761  13.336
20597SOL     OW63687   6.800   8.832   5.493
20597SOL    HW163688   6.722   8.776   5.491
20597SOL    HW263689   6.769   8.914   5.530
20598SOL     OW63690   5.919  14.260  12.884
20598SOL    HW163691   5.983  14.190  12.894
20598SOL    HW263692   5.875  14.265  12.969
20599SOL     OW63693   5.508   8.972  14.209
20599SOL    HW163694   5.595   8.932  14.216
20599SOL    HW263695   5.475   8.943  14.124
20600SOL     OW63696  14.182  14.228   2.632
20600SOL    HW163697  14.260  14.279   2.650
20600SOL    HW263698  14.171  14.172   2.709
20601SOL     OW63699   1.935   5.127   8.458
20601SOL    HW163700   1.917   5.179   8.379
20601SOL    HW263701   1.899   5.179   8.529
20602SOL     OW63702   1.265   7.503   0.036
20602SOL    HW163703   1.224   7.588   0.018
20602SOL    HW263704   1.350   7.526   0.075
20603SOL     OW63705   9.876   8.010  13.976
20603SOL    HW163706   9.951   8.049  14.021
20603SOL    HW263707   9.803   8.021  14.036
20604SOL     OW63708   3.778  12.800  11.863
20604SOL    HW163709   3.699  12.747  11.854
20604SOL    HW263710   3.788  12.811  11.957
20605SOL     OW63711   0.488   4.163   0.297
20605SOL    HW163712   0.511   4.154   0.389
20605SOL    HW263713   0.447   4.080   0.274
20606SOL     OW63714   7.168   0.394   9.823
20606SOL    HW163715   7.130   0.352   9.900
20606SOL    HW263716   7.262   0.388   9.837
20607SOL     OW63717   1.861   8.939   6.290
20607SOL    HW163718   1.870   8.991   6.370
20607SOL    HW263719   1.800   8.989   6.236
20608SOL     OW63720  11.958   1.376   2.289
20608SOL    HW163721  12.021   1.311   2.320
20608SOL    HW263722  12.003   1.421   2.217
20609SOL     OW63723   3.337  10.644   1.605
20609SOL    HW163724   3.357  10.695   1.683
20609SOL    HW263725   3.402  10.672   1.541
20610SOL     OW63726   7.008   6.393  14.819
20610SOL    HW163727   6.939   6.332  14.796
20610SOL    HW263728   6.981   6.430   0.021
20611SOL     OW63729  12.329  12.643   8.574
20611SOL    HW163730  12.415  12.636   8.532
20611SOL    HW263731  12.335  12.721   8.628
20612SOL     OW63732  12.414  11.444   0.686
20612SOL    HW163733  12.451  11.532   0.696
20612SOL    HW263734  12.409  11.410   0.775
20613SOL     OW63735  11.943  10.548  13.141
20613SOL    HW163736  11.947  10.522  13.049
20613SOL    HW263737  11.878  10.618  13.143
20614SOL     OW63738  10.300   5.085   7.207
20614SOL    HW163739  10.257   4.999   7.211
20614SOL    HW263740  10.356   5.082   7.130
20615SOL     OW63741   6.099   2.514   6.865
20615SOL    HW163742   6.079   2.436   6.813
20615SOL    HW263743   6.190   2.534   6.844
20616SOL     OW63744   7.638   2.401   1.749
20616SOL    HW163745   7.676   2.318   1.720
20616SOL    HW263746   7.649   2.401   1.844
20617SOL     OW63747   9.339  12.535   5.167
20617SOL    HW163748   9.414  12.557   5.111
20617SOL    HW263749   9.306  12.620   5.195
20618SOL     OW63750   6.423  10.160  10.858
20618SOL    HW163751   6.472  10.240  10.880
20618SOL    HW263752   6.456  10.094  10.919
20619SOL     OW63753   1.617  13.704  13.467
20619SOL    HW163754   1.603  13.683  13.375
20619SOL    HW263755   1.558  13.777  13.485
20620SOL     OW63756   3.904   0.528  14.299
20620SOL    HW163757   3.813   0.529  14.269
20620SOL    HW263758   3.934   0.439  14.282
20621SOL     OW63759   3.838   6.611  13.763
20621SOL    HW163760   3.917   6.605  13.815
20621SOL    HW263761   3.853   6.552  13.689
20622SOL     OW63762   1.282   1.073  11.698
20622SOL    HW163763   1.219   1.038  11.762
20622SOL    HW263764   1.231   1.082  11.617
20623SOL     OW63765   4.201   0.725   3.284
20623SOL    HW163766   4.264   0.773   3.232
20623SOL    HW263767   4.240   0.638   3.296
20624SOL     OW63768   9.681  12.900  12.319
20624SOL    HW163769   9.612  12.963  12.335
20624SOL    HW263770   9.653  12.821  12.365
20625SOL     OW63771   0.749  13.391  11.858
20625SOL    HW163772   0.708  13.422  11.777
20625SOL    HW263773   0.791  13.308  11.833
20626SOL     OW63774   8.130  11.163  12.513
20626SOL    HW163775   8.104  11.083  12.559
20626SOL    HW263776   8.210  11.139  12.467
20627SOL     OW63777   4.809   5.441   8.832
20627SOL    HW163778   4.764   5.423   8.750
20627SOL    HW263779   4.747   5.494   8.883
20628SOL     OW63780  12.496   5.356   6.630
20628SOL    HW163781  12.474   5.437   6.677
20628SOL    HW263782  12.584   5.335   6.658
20629SOL     OW63783   5.433   6.393  14.486
20629SOL    HW163784   5.380   6.317  14.465
20629SOL    HW263785   5.468   6.375  14.573
20630SOL     OW63786  11.282  13.555  11.164
20630SOL    HW163787  11.373  13.554  11.195
20630SOL    HW263788  11.291  13.563  11.069
20631SOL     OW63789  11.144   9.274   8.973
20631SOL    HW163790  11.162   9.364   9.000
20631SOL    HW263791  11.206   9.257   8.902
20632SOL     OW63792   5.769   7.075   0.910
20632SOL    HW163793   5.861   7.057   0.893
20632SOL    HW263794   5.726   6.990   0.899
20633SOL     OW63795   1.309  13.039   2.643
20633SOL    HW163796   1.348  13.125   2.627
20633SOL    HW263797   1.377  12.976   2.619
20634SOL     OW63798   7.299   3.520   7.494
20634SOL    HW163799   7.352   3.449   7.531
20634SOL    HW263800   7.271   3.571   7.571
20635SOL     OW63801  13.824   2.088   9.402
20635SOL    HW163802  13.805   2.125   9.488
20635SOL    HW263803  13.764   2.135   9.343
20636SOL     OW63804   7.079  12.057   9.680
20636SOL    HW163805   7.140  11.986   9.702
20636SOL    HW263806   7.003  12.042   9.736
20637SOL     OW63807   6.076   4.729   1.031
20637SOL    HW163808   6.160   4.686   1.012
20637SOL    HW263809   6.025   4.663   1.078
20638SOL     OW63810   8.386   0.779   5.929
20638SOL    HW163811   8.388   0.855   5.986
20638SOL    HW263812   8.399   0.704   5.988
20639SOL     OW63813   8.242   0.562  10.330
20639SOL    HW163814   8.230   0.614  10.250
20639SOL    HW263815   8.321   0.597  10.370
20640SOL     OW63816   6.988  12.150  12.113
20640SOL    HW163817   7.028  12.153  12.026
20640SOL    HW263818   7.054  12.190  12.171
20641SOL     OW63819   0.542  12.967   5.437
20641SOL    HW163820   0.544  12.875   5.465
20641SOL    HW263821   0.570  12.964   5.345
20642SOL     OW63822   2.258  10.775  12.417
20642SOL    HW163823   2.267  10.705  12.482
20642SOL    HW263824   2.258  10.856  12.470
20643SOL     OW63825  14.172   9.356   4.530
20643SOL    HW163826  14.109   9.348   4.602
20643SOL    HW263827  14.148   9.287   4.469
20644SOL     OW63828  12.889   1.289   0.859
20644SOL    HW163829  12.923   1.200   0.869
20644SOL    HW263830  12.804   1.278   0.818
20645SOL     OW63831  12.551   9.832   2.901
20645SOL    HW163832  12.620   9.787   2.950
20645SOL    HW263833  12.598   9.892   2.842
20646SOL     OW63834   2.229   0.986   7.980
20646SOL    HW163835   2.168   0.934   8.034
20646SOL    HW263836   2.246   1.064   8.033
20647SOL     OW63837   4.865  14.235  12.654
20647SOL    HW163838   4.895  14.185  12.579
20647SOL    HW263839   4.936  14.227  12.718
20648SOL     OW63840   4.776  10.271   9.243
20648SOL    HW163841   4.734  10.231   9.168
20648SOL    HW263842   4.863  10.229   9.247
20649SOL     OW63843  11.347  13.291  12.172
20649SOL    HW163844  11.367  13.362  12.233
20649SOL    HW263845  11.252  13.296  12.160
20650SOL     OW63846  10.367  14.822   4.276
20650SOL    HW163847  10.280  14.862   4.274
20650SOL    HW263848  10.355  14.735   4.238
20651SOL     OW63849  10.307   7.206   1.576
20651SOL    HW163850  10.259   7.150   1.637
20651SOL    HW263851  10.312   7.291   1.620
20652SOL     OW63852   0.205   4.972  12.136
20652SOL    HW163853   0.198   4.933  12.224
20652SOL    HW263854   0.251   4.905  12.085
20653SOL     OW63855   0.145   0.932   1.164
20653SOL    HW163856   0.167   0.932   1.257
20653SOL    HW263857   0.051   0.952   1.162
20654SOL     OW63858   5.006   7.916   1.850
20654SOL    HW163859   5.022   8.006   1.822
20654SOL    HW263860   4.946   7.925   1.924
20655SOL     OW63861   2.690  11.983   0.321
20655SOL    HW163862   2.770  11.994   0.269
20655SOL    HW263863   2.632  11.932   0.266
20656SOL     OW63864  13.155   7.945   4.573
20656SOL    HW163865  13.198   7.864   4.547
20656SOL    HW263866  13.062   7.921   4.579
20657SOL     OW63867  13.956   0.224  14.670
20657SOL    HW163868  13.903   0.176  14.734
20657SOL    HW263869  14.032   0.169  14.655
20658SOL     OW63870   5.950   5.072   1.991
20658SOL    HW163871   6.044   5.084   1.975
20658SOL    HW263872   5.946   5.008   2.062
20659SOL     OW63873  11.134   2.456   5.372
20659SOL    HW163874  11.215   2.407   5.375
20659SOL    HW263875  11.134   2.498   5.286
20660SOL     OW63876  14.665   3.658   8.144
20660SOL    HW163877  14.574   3.630   8.133
20660SOL    HW263878  14.708   3.632   8.063
20661SOL     OW63879   3.559  14.829   4.716
20661SOL    HW163880   3.594  14.751   4.672
20661SOL    HW263881   3.557   0.014   4.648
20662SOL     OW63882   4.935   4.205   7.440
20662SOL    HW163883   4.886   4.128   7.411
20662SOL    HW263884   4.885   4.237   7.516
20663SOL     OW63885   2.134  11.729   1.178
20663SOL    HW163886   2.073  11.716   1.105
20663SOL    HW263887   2.089  11.792   1.235
20664SOL     OW63888   4.145   9.383   7.870
20664SOL    HW163889   4.094   9.461   7.849
20664SOL    HW263890   4.100   9.312   7.824
20665SOL     OW63891   3.992   5.286  10.565
20665SOL    HW163892   3.970   5.314  10.476
20665SOL    HW263893   3.972   5.192  10.566
20666SOL     OW63894   9.503   9.155  12.598
20666SOL    HW163895   9.420   9.115  12.626
20666SOL    HW263896   9.525   9.110  12.517
20667SOL     OW63897  12.801   3.933   9.248
20667SOL    HW163898  12.812   4.011   9.303
20667SOL    HW263899  12.758   3.965   9.169
20668SOL     OW63900   2.004   4.699  10.029
20668SOL    HW163901   2.059   4.777  10.027
20668SOL    HW263902   2.037   4.649  10.104
20669SOL     OW63903  11.951   8.633  12.466
20669SOL    HW163904  11.870   8.624  12.517
20669SOL    HW263905  11.967   8.728  12.464
20670SOL     OW63906   0.984  13.862   6.312
20670SOL    HW163907   1.059  13.803   6.321
20670SOL    HW263908   0.960  13.855   6.219
20671SOL     OW63909   3.067   8.292  13.521
20671SOL    HW163910   3.106   8.362  13.469
20671SOL    HW263911   3.045   8.224  13.457
20672SOL     OW63912  10.476   6.564   0.793
20672SOL    HW163913  10.385   6.541   0.778
20672SOL    HW263914  10.526   6.493   0.753
20673SOL     OW63915  12.266   8.044   7.624
20673SOL    HW163916  12.208   8.003   7.689
20673SOL    HW263917  12.213   8.114   7.587
20674SOL     OW63918   6.270   7.340   9.394
20674SOL    HW163919   6.196   7.343   9.455
20674SOL    HW263920   6.341   7.298   9.445
20675SOL     OW63921  12.490  12.031   2.804
20675SOL    HW163922  12.546  11.996   2.873
20675SOL    HW263923  12.440  12.101   2.846
20676SOL     OW63924   7.204   4.553  10.761
20676SOL    HW163925   7.290   4.556  10.803
20676SOL    HW263926   7.203   4.629  10.703
20677SOL     OW63927   6.255   9.942   8.919
20677SOL    HW163928   6.328   9.909   8.866
20677SOL    HW263929   6.272  10.036   8.927
20678SOL     OW63930   1.059  10.147   7.336
20678SOL    HW163931   1.149  10.127   7.309
20678SOL    HW263932   1.030  10.069   7.383
20679SOL     OW63933  13.991   9.517   3.269
20679SOL    HW163934  13.953   9.548   3.187
20679SOL    HW263935  13.922   9.531   3.334
20680SOL     OW63936   8.136   0.272   4.664
20680SOL    HW163937   8.208   0.332   4.684
20680SOL    HW263938   8.100   0.248   4.750
20681SOL     OW63939   6.843   2.177   8.784
20681SOL    HW163940   6.917   2.123   8.812
20681SOL    HW263941   6.769   2.145   8.836
20682SOL     OW63942   1.036  13.054   1.912
20682SOL    HW163943   1.115  13.007   1.941
20682SOL    HW263944   0.978  13.052   1.988
20683SOL     OW63945  12.414  14.285  13.797
20683SOL    HW163946  12.397  14.218  13.731
20683SOL    HW263947  12.506  14.273  13.820
20684SOL     OW63948   3.748   0.623   6.685
20684SOL    HW163949   3.770   0.704   6.731
20684SOL    HW263950   3.752   0.646   6.592
20685SOL     OW63951   1.589   8.890  12.552
20685SOL    HW163952   1.522   8.923  12.612
20685SOL    HW263953   1.615   8.966  12.501
20686SOL     OW63954  13.592   1.293  14.754
20686SOL    HW163955  13.530   1.338  14.811
20686SOL    HW263956  13.569   1.200  14.761
20687SOL     OW63957  14.433   2.495  13.889
20687SOL    HW163958  14.471   2.549  13.820
20687SOL    HW263959  14.341   2.523  13.893
20688SOL     OW63960   5.767   6.516   1.167
20688SOL    HW163961   5.687   6.544   1.212
20688SOL    HW263962   5.759   6.554   1.079
20689SOL     OW63963   2.021   8.576   4.372
20689SOL    HW163964   2.011   8.671   4.375
20689SOL    HW263965   2.083   8.560   4.301
20690SOL     OW63966   7.376  10.583  13.841
20690SOL    HW163967   7.328  10.550  13.765
20690SOL    HW263968   7.430  10.654  13.807
20691SOL     OW63969  12.315  11.901  14.121
20691SOL    HW163970  12.356  11.848  14.053
20691SOL    HW263971  12.354  11.987  14.111
20692SOL     OW63972   2.811   6.154  10.478
20692SOL    HW163973   2.845   6.237  10.510
20692SOL    HW263974   2.876   6.089  10.507
20693SOL     OW63975   8.830   5.364   6.607
20693SOL    HW163976   8.809   5.277   6.641
20693SOL    HW263977   8.925   5.371   6.618
20694SOL     OW63978  12.244   2.851   7.700
20694SOL    HW163979  12.253   2.846   7.605
20694SOL    HW263980  12.244   2.759   7.728
20695SOL     OW63981   2.560  12.492  10.050
20695SOL    HW163982   2.601  12.487   9.964
20695SOL    HW263983   2.494  12.560  10.042
20696SOL     OW63984  11.120   1.545   2.240
20696SOL    HW163985  11.205   1.570   2.277
20696SOL    HW263986  11.073   1.506   2.313
20697SOL     OW63987   0.262  11.985  11.561
20697SOL    HW163988   0.257  12.014  11.652
20697SOL    HW263989   0.181  11.935  11.547
20698SOL     OW63990   6.772  13.205  10.558
20698SOL    HW163991   6.679  13.205  10.577
20698SOL    HW263992   6.808  13.273  10.615
20699SOL     OW63993   9.705   9.639   7.979
20699SOL    HW163994   9.626   9.693   7.988
20699SOL    HW263995   9.773   9.701   7.952
20700SOL     OW63996   8.679   2.159  14.781
20700SOL    HW163997   8.595   2.114  14.775
20700SOL    HW263998   8.660   2.240  14.830
20701SOL     OW63999  10.224   8.548   8.227
20701SOL    HW164000  10.231   8.478   8.293
20701SOL    HW264001  10.189   8.623   8.275
20702SOL     OW64002   1.174   8.026  14.649
20702SOL    HW164003   1.160   7.941  14.691
20702SOL    HW264004   1.118   8.024  14.572
20703SOL     OW64005   1.112   0.165   7.036
20703SOL    HW164006   1.190   0.162   7.091
20703SOL    HW264007   1.091   0.074   7.018
20704SOL     OW64008   3.240   0.209  14.015
20704SOL    HW164009   3.222   0.121  13.983
20704SOL    HW264010   3.302   0.197  14.087
20705SOL     OW64011  13.091   5.849   6.042
20705SOL    HW164012  13.095   5.941   6.015
20705SOL    HW264013  13.048   5.851   6.127
20706SOL     OW64014  11.627   4.831   1.255
20706SOL    HW164015  11.621   4.739   1.228
20706SOL    HW264016  11.585   4.834   1.340
20707SOL     OW64017   6.276   5.169  11.327
20707SOL    HW164018   6.225   5.190  11.249
20707SOL    HW264019   6.211   5.150  11.394
20708SOL     OW64020  10.224   7.467   2.220
20708SOL    HW164021  10.149   7.416   2.250
20708SOL    HW264022  10.244   7.431   2.134
20709SOL     OW64023  13.016   7.793  13.545
20709SOL    HW164024  12.976   7.719  13.500
20709SOL    HW264025  12.990   7.782  13.636
20710SOL     OW64026   2.802  12.217  10.868
20710SOL    HW164027   2.796  12.188  10.777
20710SOL    HW264028   2.813  12.312  10.862
20711SOL     OW64029  14.071   3.383  10.137
20711SOL    HW164030  14.131   3.351  10.070
20711SOL    HW264031  13.992   3.409  10.088
20712SOL     OW64032   0.546   1.941   6.424
20712SOL    HW164033   0.604   2.006   6.382
20712SOL    HW264034   0.527   1.978   6.510
20713SOL     OW64035   2.400  14.375   9.198
20713SOL    HW164036   2.341  14.301   9.184
20713SOL    HW264037   2.471  14.340   9.252
20714SOL     OW64038   8.349  14.066  10.196
20714SOL    HW164039   8.331  14.136  10.259
20714SOL    HW264040   8.422  14.099  10.144
20715SOL     OW64041   5.923   5.973   8.405
20715SOL    HW164042   5.900   6.066   8.404
20715SOL    HW264043   5.846   5.930   8.369
20716SOL     OW64044   6.288  13.072   0.578
20716SOL    HW164045   6.198  13.063   0.547
20716SOL    HW264046   6.308  12.987   0.618
20717SOL     OW64047   2.924  12.787   1.453
20717SOL    HW164048   2.976  12.778   1.373
20717SOL    HW264049   2.857  12.851   1.431
20718SOL     OW64050  10.661   5.474   1.510
20718SOL    HW164051  10.634   5.489   1.601
20718SOL    HW264052  10.747   5.432   1.517
20719SOL     OW64053   9.904   5.644  11.812
20719SOL    HW164054   9.879   5.736  11.811
20719SOL    HW264055   9.835   5.600  11.763
20720SOL     OW64056  13.232   5.089   8.483
20720SOL    HW164057  13.223   5.169   8.534
20720SOL    HW264058  13.290   5.033   8.534
20721SOL     OW64059   9.237  10.866  10.221
20721SOL    HW164060   9.257  10.800  10.154
20721SOL    HW264061   9.192  10.817  10.290
20722SOL     OW64062  10.479   7.998   9.402
20722SOL    HW164063  10.509   7.912   9.432
20722SOL    HW264064  10.434   8.035   9.478
20723SOL     OW64065   0.650   8.654   0.461
20723SOL    HW164066   0.649   8.689   0.371
20723SOL    HW264067   0.647   8.731   0.517
20724SOL     OW64068   2.480  14.324  12.724
20724SOL    HW164069   2.437  14.245  12.759
20724SOL    HW264070   2.532  14.357  12.797
20725SOL     OW64071   6.858   0.998   6.455
20725SOL    HW164072   6.769   1.005   6.420
20725SOL    HW264073   6.915   1.003   6.379
20726SOL     OW64074  10.355   7.908   1.106
20726SOL    HW164075  10.409   7.842   1.064
20726SOL    HW264076  10.336   7.872   1.193
20727SOL     OW64077   3.655   0.440   1.756
20727SOL    HW164078   3.597   0.481   1.820
20727SOL    HW264079   3.643   0.493   1.677
20728SOL     OW64080   7.804   5.238   8.592
20728SOL    HW164081   7.752   5.171   8.546
20728SOL    HW264082   7.869   5.188   8.641
20729SOL     OW64083  13.580   3.224   6.752
20729SOL    HW164084  13.527   3.146   6.769
20729SOL    HW264085  13.522   3.298   6.775
20730SOL     OW64086  11.825   9.739   8.223
20730SOL    HW164087  11.773   9.796   8.280
20730SOL    HW264088  11.762   9.697   8.166
20731SOL     OW64089   6.656   7.962   0.613
20731SOL    HW164090   6.586   7.987   0.553
20731SOL    HW264091   6.621   7.981   0.700
20732SOL     OW64092   0.861   9.337   2.931
20732SOL    HW164093   0.923   9.387   2.877
20732SOL    HW264094   0.874   9.246   2.904
20733SOL     OW64095  11.448   8.713   6.938
20733SOL    HW164096  11.464   8.806   6.919
20733SOL    HW264097  11.392   8.714   7.016
20734SOL     OW64098  10.792  11.709   2.262
20734SOL    HW164099  10.844  11.778   2.221
20734SOL    HW264100  10.850  11.633   2.261
20735SOL     OW64101   4.812   7.315  12.244
20735SOL    HW164102   4.817   7.220  12.260
20735SOL    HW264103   4.718   7.333  12.238
20736SOL     OW64104   2.667  11.468   7.822
20736SOL    HW164105   2.667  11.485   7.917
20736SOL    HW264106   2.758  11.445   7.802
20737SOL     OW64107   0.147   4.249   3.675
20737SOL    HW164108   0.103   4.324   3.634
20737SOL    HW264109   0.154   4.273   3.768
20738SOL     OW64110   8.315   3.111  14.651
20738SOL    HW164111   8.267   3.172  14.595
20738SOL    HW264112   8.340   3.039  14.593
20739SOL     OW64113   9.415   1.859   4.440
20739SOL    HW164114   9.330   1.862   4.483
20739SOL    HW264115   9.460   1.784   4.481
20740SOL     OW64116   0.881   9.650   3.597
20740SOL    HW164117   0.821   9.579   3.620
20740SOL    HW264118   0.894   9.697   3.679
20741SOL     OW64119  11.980   7.431   3.171
20741SOL    HW164120  11.894   7.391   3.158
20741SOL    HW264121  11.978   7.464   3.261
20742SOL     OW64122  12.858   7.833   6.524
20742SOL    HW164123  12.766   7.813   6.543
20742SOL    HW264124  12.906   7.755   6.553
20743SOL     OW64125   3.340   5.466  10.958
20743SOL    HW164126   3.415   5.467  11.018
20743SOL    HW264127   3.364   5.404  10.889
20744SOL     OW64128   0.862   7.462  12.915
20744SOL    HW164129   0.903   7.543  12.884
20744SOL    HW264130   0.934   7.401  12.927
20745SOL     OW64131  13.635   3.206   0.515
20745SOL    HW164132  13.681   3.248   0.442
20745SOL    HW264133  13.544   3.234   0.505
20746SOL     OW64134   0.654   3.645   6.915
20746SOL    HW164135   0.576   3.683   6.875
20746SOL    HW264136   0.631   3.553   6.930
20747SOL     OW64137   5.985  10.240   0.014
20747SOL    HW164138   5.958  10.158  14.856
20747SOL    HW264139   6.067  10.263  14.853
20748SOL     OW64140   5.389   0.510   3.231
20748SOL    HW164141   5.323   0.511   3.162
20748SOL    HW264142   5.363   0.581   3.290
20749SOL     OW64143   2.694   9.708   7.077
20749SOL    HW164144   2.620   9.680   7.130
20749SOL    HW264145   2.665   9.696   6.987
20750SOL     OW64146  11.867   6.356   9.673
20750SOL    HW164147  11.780   6.384   9.702
20750SOL    HW264148  11.855   6.265   9.645
20751SOL     OW64149   4.872   1.084  10.267
20751SOL    HW164150   4.800   1.103  10.206
20751SOL    HW264151   4.881   1.164  10.319
20752SOL     OW64152  12.908   7.675  13.215
20752SOL    HW164153  12.825   7.648  13.256
20752SOL    HW264154  12.914   7.621  13.136
20753SOL     OW64155   8.456   2.784   6.673
20753SOL    HW164156   8.437   2.784   6.767
20753SOL    HW264157   8.501   2.701   6.657
20754SOL     OW64158   4.534   8.056   0.083
20754SOL    HW164159   4.453   8.058   0.135
20754SOL    HW264160   4.506   8.028  14.878
20755SOL     OW64161   4.506   1.397   2.002
20755SOL    HW164162   4.543   1.485   1.995
20755SOL    HW264163   4.429   1.399   1.946
20756SOL     OW64164   0.137  10.697   4.424
20756SOL    HW164165   0.143  10.782   4.379
20756SOL    HW264166   0.117  10.634   4.355
20757SOL     OW64167  11.569   4.687  12.118
20757SOL    HW164168  11.549   4.779  12.099
20757SOL    HW264169  11.527   4.638  12.047
20758SOL     OW64170  12.665   3.601   5.176
20758SOL    HW164171  12.707   3.522   5.211
20758SOL    HW264172  12.673   3.665   5.246
20759SOL     OW64173  13.693   7.803  11.548
20759SOL    HW164174  13.740   7.838  11.472
20759SOL    HW264175  13.618   7.861  11.559
20760SOL     OW64176   9.835   0.800   3.590
20760SOL    HW164177   9.847   0.791   3.684
20760SOL    HW264178   9.768   0.868   3.581
20761SOL     OW64179   0.503   5.791  13.768
20761SOL    HW164180   0.458   5.815  13.849
20761SOL    HW264181   0.596   5.792  13.792
20762SOL     OW64182   5.635   3.471   9.119
20762SOL    HW164183   5.577   3.520   9.061
20762SOL    HW264184   5.592   3.474   9.205
20763SOL     OW64185   3.835   4.978   4.768
20763SOL    HW164186   3.791   4.907   4.721
20763SOL    HW264187   3.838   5.050   4.705
20764SOL     OW64188  14.280   3.423   7.168
20764SOL    HW164189  14.197   3.375   7.175
20764SOL    HW264190  14.340   3.360   7.128
20765SOL     OW64191   3.295   2.732   1.466
20765SOL    HW164192   3.254   2.668   1.524
20765SOL    HW264193   3.272   2.702   1.378
20766SOL     OW64194  13.851  10.983   3.164
20766SOL    HW164195  13.892  11.033   3.234
20766SOL    HW264196  13.881  11.025   3.084
20767SOL     OW64197  10.590   6.363   2.214
20767SOL    HW164198  10.525   6.402   2.156
20767SOL    HW264199  10.575   6.268   2.207
20768SOL     OW64200  10.945  10.824   8.084
20768SOL    HW164201  11.021  10.856   8.034
20768SOL    HW264202  10.982  10.791   8.166
20769SOL     OW64203   2.628   1.348  10.547
20769SOL    HW164204   2.657   1.431  10.509
20769SOL    HW264205   2.550   1.372  10.598
20770SOL     OW64206  14.072   0.615  10.937
20770SOL    HW164207  14.158   0.647  10.965
20770SOL    HW264208  14.012   0.646  11.005
20771SOL     OW64209   1.337   3.044   6.000
20771SOL    HW164210   1.286   2.975   5.957
20771SOL    HW264211   1.349   3.012   6.090
20772SOL     OW64212   7.265   5.453  14.241
20772SOL    HW164213   7.234   5.465  14.330
20772SOL    HW264214   7.265   5.358  14.228
20773SOL     OW64215   7.797  11.148  12.436
20773SOL    HW164216   7.789  11.126  12.529
20773SOL    HW264217   7.881  11.109  12.410
20774SOL     OW64218   0.027   5.060  14.088
20774SOL    HW164219  14.880   5.067  13.997
20774SOL    HW264220   0.087   4.985  14.087
20775SOL     OW64221   8.491   3.785   1.740
20775SOL    HW164222   8.399   3.757   1.737
20775SOL    HW264223   8.529   3.753   1.659
20776SOL     OW64224   2.607   2.756  14.261
20776SOL    HW164225   2.600   2.813  14.337
20776SOL    HW264226   2.657   2.680  14.292
20777SOL     OW64227   5.146   4.306   0.940
20777SOL    HW164228   5.066   4.356   0.953
20777SOL    HW264229   5.154   4.297   0.845
20778SOL     OW64230  11.463  10.062  12.755
20778SOL    HW164231  11.447   9.976  12.716
20778SOL    HW264232  11.376  10.097  12.774
20779SOL     OW64233   1.884   9.582   7.949
20779SOL    HW164234   1.891   9.586   7.854
20779SOL    HW264235   1.823   9.652   7.972
20780SOL     OW64236   5.400   5.551   0.384
20780SOL    HW164237   5.341   5.511   0.320
20780SOL    HW264238   5.371   5.514   0.468
20781SOL     OW64239  14.551   6.138  10.188
20781SOL    HW164240  14.592   6.182  10.114
20781SOL    HW264241  14.570   6.045  10.174
20782SOL     OW64242  10.489   4.003  12.505
20782SOL    HW164243  10.511   3.910  12.512
20782SOL    HW264244  10.548   4.046  12.567
20783SOL     OW64245  10.443  12.693   0.564
20783SOL    HW164246  10.350  12.698   0.544
20783SOL    HW264247  10.484  12.668   0.482
20784SOL     OW64248   1.415   5.636   9.401
20784SOL    HW164249   1.394   5.554   9.357
20784SOL    HW264250   1.473   5.682   9.340
20785SOL     OW64251   5.967   8.954   1.103
20785SOL    HW164252   6.037   8.988   1.048
20785SOL    HW264253   5.977   8.999   1.187
20786SOL     OW64254   5.306   9.240   6.112
20786SOL    HW164255   5.276   9.327   6.087
20786SOL    HW264256   5.252   9.180   6.062
20787SOL     OW64257   7.888   5.466   1.134
20787SOL    HW164258   7.934   5.387   1.163
20787SOL    HW264259   7.956   5.523   1.099
20788SOL     OW64260   1.078  14.763  12.406
20788SOL    HW164261   1.037  14.677  12.399
20788SOL    HW264262   1.169  14.749  12.377
20789SOL     OW64263   8.978   2.149   9.612
20789SOL    HW164264   8.906   2.095   9.643
20789SOL    HW264265   9.011   2.193   9.691
20790SOL     OW64266   6.290  11.894  13.077
20790SOL    HW164267   6.342  11.822  13.039
20790SOL    HW264268   6.355  11.948  13.124
20791SOL     OW64269  10.376   2.144  11.415
20791SOL    HW164270  10.338   2.191  11.488
20791SOL    HW264271  10.301   2.110  11.366
20792SOL     OW64272  14.806   0.562   9.819
20792SOL    HW164273  14.821   0.469   9.799
20792SOL    HW264274  14.797   0.565   9.914
20793SOL     OW64275   5.197   9.753   5.034
20793SOL    HW164276   5.214   9.659   5.032
20793SOL    HW264277   5.124   9.763   5.095
20794SOL     OW64278   4.032  13.558   2.850
20794SOL    HW164279   3.963  13.608   2.807
20794SOL    HW264280   4.018  13.572   2.944
20795SOL     OW64281   6.973   8.192   8.389
20795SOL    HW164282   6.883   8.168   8.367
20795SOL    HW264283   7.027   8.139   8.330
20796SOL     OW64284   7.103   6.663   5.784
20796SOL    HW164285   7.060   6.592   5.833
20796SOL    HW264286   7.171   6.619   5.733
20797SOL     OW64287  11.544   9.320   8.054
20797SOL    HW164288  11.597   9.395   8.027
20797SOL    HW264289  11.571   9.249   7.996
20798SOL     OW64290  13.799   9.285   4.604
20798SOL    HW164291  13.850   9.277   4.685
20798SOL    HW264292  13.744   9.206   4.602
20799SOL     OW64293   4.617   2.284   7.876
20799SOL    HW164294   4.679   2.356   7.886
20799SOL    HW264295   4.610   2.245   7.963
20800SOL     OW64296  11.348   2.414   9.070
20800SOL    HW164297  11.294   2.490   9.090
20800SOL    HW264298  11.357   2.415   8.974
20801SOL     OW64299   6.260  12.672  12.957
20801SOL    HW164300   6.311  12.598  12.923
20801SOL    HW264301   6.245  12.727  12.880
20802SOL     OW64302   6.482  11.516   0.941
20802SOL    HW164303   6.400  11.470   0.923
20802SOL    HW264304   6.464  11.564   1.022
20803SOL     OW64305   9.934  10.885   0.605
20803SOL    HW164306   9.933  10.981   0.606
20803SOL    HW264307   9.971  10.862   0.520
20804SOL     OW64308  13.659  10.198   6.008
20804SOL    HW164309  13.575  10.183   5.964
20804SOL    HW264310  13.636  10.233   6.094
20805SOL     OW64311  14.194   9.143   6.020
20805SOL    HW164312  14.214   9.139   5.926
20805SOL    HW264313  14.275   9.174   6.060
20806SOL     OW64314   6.716   9.594  14.236
20806SOL    HW164315   6.752   9.544  14.162
20806SOL    HW264316   6.662   9.530  14.283
20807SOL     OW64317   7.063   6.497   3.213
20807SOL    HW164318   7.045   6.440   3.287
20807SOL    HW264319   7.005   6.573   3.227
20808SOL     OW64320   7.002  11.877   0.007
20808SOL    HW164321   7.013  11.847   0.097
20808SOL    HW264322   6.927  11.936   0.010
20809SOL     OW64323   6.745  11.688   9.385
20809SOL    HW164324   6.653  11.714   9.374
20809SOL    HW264325   6.742  11.595   9.407
20810SOL     OW64326  10.013   0.324   5.775
20810SOL    HW164327  10.068   0.367   5.839
20810SOL    HW264328  10.027   0.374   5.694
20811SOL     OW64329   9.478   1.431   8.014
20811SOL    HW164330   9.462   1.517   7.975
20811SOL    HW264331   9.540   1.389   7.955
20812SOL     OW64332   7.581   8.217   2.080
20812SOL    HW164333   7.648   8.253   2.139
20812SOL    HW264334   7.505   8.204   2.136
20813SOL     OW64335   4.067   7.640  10.759
20813SOL    HW164336   4.100   7.666  10.846
20813SOL    HW264337   4.092   7.713  10.702
20814SOL     OW64338  12.229   8.023  10.081
20814SOL    HW164339  12.174   7.977  10.145
20814SOL    HW264340  12.257   8.102  10.126
20815SOL     OW64341   7.172   7.348   4.111
20815SOL    HW164342   7.199   7.340   4.202
20815SOL    HW264343   7.232   7.290   4.063
20816SOL     OW64344  12.734  13.640  12.323
20816SOL    HW164345  12.723  13.611  12.233
20816SOL    HW264346  12.744  13.559  12.373
20817SOL     OW64347   9.031   8.583   3.962
20817SOL    HW164348   8.952   8.629   3.931
20817SOL    HW264349   9.101   8.647   3.951
20818SOL     OW64350   8.017  12.806   3.819
20818SOL    HW164351   7.967  12.821   3.899
20818SOL    HW264352   7.966  12.741   3.770
20819SOL     OW64353  14.690  11.797  12.340
20819SOL    HW164354  14.634  11.750  12.278
20819SOL    HW264355  14.770  11.745  12.346
20820SOL     OW64356   6.910  11.073  10.380
20820SOL    HW164357   6.959  10.999  10.415
20820SOL    HW264358   6.855  11.035  10.311
20821SOL     OW64359   2.565   0.153   7.506
20821SOL    HW164360   2.634   0.092   7.481
20821SOL    HW264361   2.585   0.175   7.597
20822SOL     OW64362   7.149   6.981   1.116
20822SOL    HW164363   7.096   6.967   1.037
20822SOL    HW264364   7.151   6.896   1.159
20823SOL     OW64365   6.232   3.273   6.399
20823SOL    HW164366   6.229   3.348   6.339
20823SOL    HW264367   6.269   3.308   6.480
20824SOL     OW64368   8.151   8.870   1.223
20824SOL    HW164369   8.238   8.856   1.187
20824SOL    HW264370   8.164   8.937   1.291
20825SOL     OW64371  12.554   1.753  11.854
20825SOL    HW164372  12.601   1.802  11.787
20825SOL    HW264373  12.475   1.805  11.871
20826SOL     OW64374   9.516   2.388  12.043
20826SOL    HW164375   9.591   2.442  12.068
20826SOL    HW264376   9.445   2.451  12.031
20827SOL     OW64377   0.656   9.585   2.165
20827SOL    HW164378   0.599   9.579   2.089
20827SOL    HW264379   0.622   9.519   2.226
20828SOL     OW64380  13.574   9.771  11.950
20828SOL    HW164381  13.524   9.699  11.911
20828SOL    HW264382  13.608   9.736  12.032
20829SOL     OW64383   0.942  13.573   5.597
20829SOL    HW164384   1.032  13.605   5.588
20829SOL    HW264385   0.889  13.645   5.562
20830SOL     OW64386   5.630  11.423   6.302
20830SOL    HW164387   5.537  11.400   6.300
20830SOL    HW264388   5.632  11.518   6.313
20831SOL     OW64389   4.114   5.402   1.164
20831SOL    HW164390   4.107   5.308   1.183
20831SOL    HW264391   4.041   5.420   1.105
20832SOL     OW64392  14.181   6.967   0.857
20832SOL    HW164393  14.086   6.976   0.848
20832SOL    HW264394  14.211   6.943   0.769
20833SOL     OW64395   4.046   2.471   6.555
20833SOL    HW164396   4.000   2.479   6.639
20833SOL    HW264397   4.121   2.414   6.574
20834SOL     OW64398   4.431   6.895  10.056
20834SOL    HW164399   4.340   6.870  10.068
20834SOL    HW264400   4.428   6.973  10.000
20835SOL     OW64401   8.051   0.532   1.176
20835SOL    HW164402   8.048   0.437   1.165
20835SOL    HW264403   7.959   0.558   1.185
20836SOL     OW64404  14.466  11.831   3.597
20836SOL    HW164405  14.520  11.814   3.520
20836SOL    HW264406  14.520  11.884   3.654
20837SOL     OW64407   9.087  13.974   8.480
20837SOL    HW164408   9.024  13.984   8.552
20837SOL    HW264409   9.066  13.889   8.442
20838SOL     OW64410   3.949   3.382  14.453
20838SOL    HW164411   3.941   3.384  14.548
20838SOL    HW264412   3.859   3.390  14.421
20839SOL     OW64413   8.457   3.490   1.336
20839SOL    HW164414   8.470   3.498   1.431
20839SOL    HW264415   8.362   3.487   1.325
20840SOL     OW64416   9.391   7.645   6.199
20840SOL    HW164417   9.426   7.685   6.278
20840SOL    HW264418   9.304   7.615   6.224
20841SOL     OW64419   9.431  11.331   3.616
20841SOL    HW164420   9.425  11.351   3.523
20841SOL    HW264421   9.391  11.406   3.660
20842SOL     OW64422   0.430   8.570   6.078
20842SOL    HW164423   0.399   8.485   6.110
20842SOL    HW264424   0.454   8.554   5.987
20843SOL     OW64425   9.681   1.142   2.708
20843SOL    HW164426   9.774   1.149   2.729
20843SOL    HW264427   9.637   1.145   2.792
20844SOL     OW64428  13.974  14.172  11.463
20844SOL    HW164429  13.940  14.206  11.545
20844SOL    HW264430  13.942  14.082  11.459
20845SOL     OW64431   0.109   7.190   1.819
20845SOL    HW164432   0.080   7.144   1.898
20845SOL    HW264433   0.201   7.164   1.809
20846SOL     OW64434   1.753  13.181   3.815
20846SOL    HW164435   1.725  13.112   3.754
20846SOL    HW264436   1.676  13.238   3.823
20847SOL     OW64437   6.488  13.066   1.759
20847SOL    HW164438   6.497  13.146   1.706
20847SOL    HW264439   6.557  13.072   1.824
20848SOL     OW64440   2.943   0.073   0.177
20848SOL    HW164441   3.008   0.118   0.232
20848SOL    HW264442   2.859   0.105   0.209
20849SOL     OW64443   4.956  14.531   7.577
20849SOL    HW164444   4.907  14.517   7.659
20849SOL    HW264445   5.035  14.578   7.604
20850SOL     OW64446   7.783  11.180   2.584
20850SOL    HW164447   7.782  11.108   2.647
20850SOL    HW264448   7.784  11.259   2.638
20851SOL     OW64449   7.944   8.325   1.229
20851SOL    HW164450   8.034   8.340   1.201
20851SOL    HW264451   7.952   8.293   1.319
20852SOL     OW64452  10.230  11.829  12.255
20852SOL    HW164453  10.258  11.808  12.165
20852SOL    HW264454  10.304  11.802  12.309
20853SOL     OW64455  10.619  14.238   0.118
20853SOL    HW164456  10.589  14.301   0.184
20853SOL    HW264457  10.695  14.280   0.078
20854SOL     OW64458  12.653  11.328  10.694
20854SOL    HW164459  12.700  11.245  10.707
20854SOL    HW264460  12.715  11.383  10.646
20855SOL     OW64461   2.913   1.340  13.502
20855SOL    HW164462   2.829   1.301  13.525
20855SOL    HW264463   2.899   1.381  13.417
20856SOL     OW64464  12.411   6.630   9.821
20856SOL    HW164465  12.354   6.706   9.832
20856SOL    HW264466  12.488   6.650   9.875
20857SOL     OW64467  10.526   8.442   3.385
20857SOL    HW164468  10.436   8.411   3.398
20857SOL    HW264469  10.553   8.473   3.472
20858SOL     OW64470   9.118   5.556  11.167
20858SOL    HW164471   9.118   5.462  11.147
20858SOL    HW264472   9.030   5.573  11.202
20859SOL     OW64473  13.363   9.456   4.443
20859SOL    HW164474  13.274   9.420   4.446
20859SOL    HW264475  13.366   9.504   4.360
20860SOL     OW64476   0.247   4.078  13.495
20860SOL    HW164477   0.260   4.103  13.404
20860SOL    HW264478   0.301   4.138  13.545
20861SOL     OW64479  11.855   8.205   3.872
20861SOL    HW164480  11.828   8.294   3.896
20861SOL    HW264481  11.946   8.199   3.901
20862SOL     OW64482   1.823  13.484  10.500
20862SOL    HW164483   1.803  13.447  10.586
20862SOL    HW264484   1.745  13.464  10.447
20863SOL     OW64485  12.093   2.331   7.782
20863SOL    HW164486  12.178   2.339   7.824
20863SOL    HW264487  12.050   2.259   7.829
20864SOL     OW64488   8.947  13.393   4.326
20864SOL    HW164489   9.042  13.391   4.319
20864SOL    HW264490   8.917  13.439   4.248
20865SOL     OW64491   4.874   9.998   6.779
20865SOL    HW164492   4.959  10.008   6.736
20865SOL    HW264493   4.813   9.979   6.708
20866SOL     OW64494  12.517  12.402   6.033
20866SOL    HW164495  12.570  12.403   6.113
20866SOL    HW264496  12.496  12.309   6.019
20867SOL     OW64497   4.350   8.493   3.353
20867SOL    HW164498   4.334   8.521   3.443
20867SOL    HW264499   4.314   8.563   3.298
20868SOL     OW64500  12.080   8.785   3.126
20868SOL    HW164501  12.129   8.842   3.185
20868SOL    HW264502  12.076   8.833   3.044
20869SOL     OW64503  13.342  11.071   7.165
20869SOL    HW164504  13.318  10.988   7.125
20869SOL    HW264505  13.342  11.054   7.259
20870SOL     OW64506   3.958   9.396   0.994
20870SOL    HW164507   3.952   9.303   0.971
20870SOL    HW264508   4.049   9.408   1.022
20871SOL     OW64509   0.782   0.023  14.192
20871SOL    HW164510   0.717   0.071  14.243
20871SOL    HW264511   0.865   0.065  14.215
20872SOL     OW64512  14.718   2.943  12.082
20872SOL    HW164513  14.789   2.959  12.144
20872SOL    HW264514  14.683   3.030  12.063
20873SOL     OW64515  13.984   7.976  12.766
20873SOL    HW164516  14.060   8.013  12.811
20873SOL    HW264517  13.956   7.904  12.823
20874SOL     OW64518   2.320   1.593   5.667
20874SOL    HW164519   2.335   1.658   5.736
20874SOL    HW264520   2.407   1.577   5.630
20875SOL     OW64521   6.932   5.651  14.257
20875SOL    HW164522   6.968   5.605  14.181
20875SOL    HW264523   6.974   5.609  14.332
20876SOL     OW64524   2.827   0.951   9.246
20876SOL    HW164525   2.733   0.932   9.251
20876SOL    HW264526   2.857   0.946   9.337
20877SOL     OW64527   6.895   3.524   9.908
20877SOL    HW164528   6.960   3.515   9.977
20877SOL    HW264529   6.910   3.448   9.851
20878SOL     OW64530   3.164   9.663   4.065
20878SOL    HW164531   3.258   9.654   4.046
20878SOL    HW264532   3.124   9.585   4.027
20879SOL     OW64533  10.069   9.320   4.433
20879SOL    HW164534  10.035   9.408   4.450
20879SOL    HW264535   9.991   9.269   4.411
20880SOL     OW64536   7.675   5.161   2.034
20880SOL    HW164537   7.657   5.068   2.042
20880SOL    HW264538   7.647   5.183   1.945
20881SOL     OW64539   8.819   6.854  13.259
20881SOL    HW164540   8.881   6.781  13.255
20881SOL    HW264541   8.868   6.929  13.223
20882SOL     OW64542   7.469   3.733   3.902
20882SOL    HW164543   7.524   3.734   3.824
20882SOL    HW264544   7.482   3.819   3.942
20883SOL     OW64545   9.110   1.634   4.305
20883SOL    HW164546   9.036   1.572   4.308
20883SOL    HW264547   9.187   1.578   4.298
20884SOL     OW64548   7.105   0.659  14.115
20884SOL    HW164549   7.185   0.650  14.063
20884SOL    HW264550   7.130   0.710  14.191
20885SOL     OW64551   9.105   3.008   1.015
20885SOL    HW164552   9.062   2.962   1.088
20885SOL    HW264553   9.128   3.093   1.051
20886SOL     OW64554  10.324   1.363   8.042
20886SOL    HW164555  10.257   1.336   8.106
20886SOL    HW264556  10.379   1.425   8.089
20887SOL     OW64557   0.297   2.713   2.626
20887SOL    HW164558   0.350   2.733   2.703
20887SOL    HW264559   0.207   2.725   2.655
20888SOL     OW64560   8.866   9.412   9.477
20888SOL    HW164561   8.849   9.318   9.482
20888SOL    HW264562   8.938   9.427   9.537
20889SOL     OW64563   7.822   6.052  11.036
20889SOL    HW164564   7.858   6.110  10.969
20889SOL    HW264565   7.855   5.965  11.014
20890SOL     OW64566   4.561   6.292   9.083
20890SOL    HW164567   4.484   6.334   9.044
20890SOL    HW264568   4.526   6.234   9.150
20891SOL     OW64569   2.836  10.264   7.128
20891SOL    HW164570   2.786  10.196   7.082
20891SOL    HW264571   2.860  10.327   7.060
20892SOL     OW64572   9.930  14.393   9.394
20892SOL    HW164573   9.989  14.333   9.441
20892SOL    HW264574   9.982  14.424   9.320
20893SOL     OW64575  12.412  11.492  13.864
20893SOL    HW164576  12.318  11.505  13.876
20893SOL    HW264577  12.420  11.401  13.835
20894SOL     OW64578   3.356   1.910  12.856
20894SOL    HW164579   3.389   1.945  12.938
20894SOL    HW264580   3.434   1.900  12.801
20895SOL     OW64581  10.711  11.517   4.805
20895SOL    HW164582  10.695  11.431   4.845
20895SOL    HW264583  10.627  11.542   4.767
20896SOL     OW64584   2.871   0.962   4.267
20896SOL    HW164585   2.852   0.922   4.182
20896SOL    HW264586   2.964   0.942   4.282
20897SOL     OW64587   7.102   5.559   0.951
20897SOL    HW164588   7.140   5.557   0.862
20897SOL    HW264589   7.173   5.529   1.007
20898SOL     OW64590   4.375   5.946  11.256
20898SOL    HW164591   4.460   5.958  11.297
20898SOL    HW264592   4.336   5.872  11.304
20899SOL     OW64593   1.543   9.793   2.236
20899SOL    HW164594   1.604   9.866   2.221
20899SOL    HW264595   1.498   9.815   2.317
20900SOL     OW64596   5.143   6.558   4.848
20900SOL    HW164597   5.228   6.531   4.812
20900SOL    HW264598   5.083   6.554   4.773
20901SOL     OW64599   4.152   3.772   8.661
20901SOL    HW164600   4.064   3.781   8.622
20901SOL    HW264601   4.209   3.756   8.587
20902SOL     OW64602   3.099   2.303   7.239
20902SOL    HW164603   3.005   2.288   7.250
20902SOL    HW264604   3.106   2.351   7.157
20903SOL     OW64605  11.879   6.928   1.256
20903SOL    HW164606  11.797   6.975   1.273
20903SOL    HW264607  11.886   6.866   1.327
20904SOL     OW64608  13.372  12.086  13.635
20904SOL    HW164609  13.305  12.052  13.695
20904SOL    HW264610  13.350  12.178  13.624
20905SOL     OW64611  10.628   0.176   8.085
20905SOL    HW164612  10.712   0.142   8.052
20905SOL    HW264613  10.639   0.271   8.084
20906SOL     OW64614  11.258   7.935  14.566
20906SOL    HW164615  11.199   7.904  14.498
20906SOL    HW264616  11.328   7.870  14.569
20907SOL     OW64617  14.627  10.840   2.183
20907SOL    HW164618  14.547  10.867   2.138
20907SOL    HW264619  14.677  10.792   2.116
20908SOL     OW64620   1.860   0.087  14.148
20908SOL    HW164621   1.923   0.022  14.119
20908SOL    HW264622   1.912   0.166  14.165
20909SOL     OW64623  11.802   7.284   3.963
20909SOL    HW164624  11.837   7.338   3.892
20909SOL    HW264625  11.807   7.194   3.929
20910SOL     OW64626   7.341   3.991  14.365
20910SOL    HW164627   7.412   3.927  14.364
20910SOL    HW264628   7.281   3.961  14.296
20911SOL     OW64629  14.849   1.270   5.487
20911SOL    HW164630  14.753   1.273   5.485
20911SOL    HW264631  14.876   1.348   5.440
20912SOL     OW64632   9.171   0.844   2.649
20912SOL    HW164633   9.079   0.829   2.674
20912SOL    HW264634   9.199   0.915   2.707
20913SOL     OW64635  11.187  11.470   8.002
20913SOL    HW164636  11.179  11.378   7.976
20913SOL    HW264637  11.276  11.478   8.034
20914SOL     OW64638   7.466  13.187   5.881
20914SOL    HW164639   7.396  13.158   5.823
20914SOL    HW264640   7.496  13.270   5.844
20915SOL     OW64641   9.911   9.146   3.253
20915SOL    HW164642   9.880   9.208   3.319
20915SOL    HW264643   9.839   9.084   3.243
20916SOL     OW64644   9.085  12.048   5.696
20916SOL    HW164645   9.041  11.967   5.671
20916SOL    HW264646   9.016  12.114   5.697
20917SOL     OW64647   7.680   2.556   6.910
20917SOL    HW164648   7.656   2.513   6.992
20917SOL    HW264649   7.728   2.490   6.860
20918SOL     OW64650  11.524   9.590  10.176
20918SOL    HW164651  11.444   9.577  10.124
20918SOL    HW264652  11.584   9.523  10.145
20919SOL     OW64653   4.923  14.581   5.769
20919SOL    HW164654   4.880  14.605   5.851
20919SOL    HW264655   4.943  14.488   5.778
20920SOL     OW64656   6.329   1.801  13.228
20920SOL    HW164657   6.365   1.889  13.237
20920SOL    HW264658   6.372   1.765  13.150
20921SOL     OW64659   2.022   1.398   9.402
20921SOL    HW164660   2.083   1.455   9.355
20921SOL    HW264661   2.030   1.424   9.494
20922SOL     OW64662   4.827  11.529   1.774
20922SOL    HW164663   4.853  11.598   1.714
20922SOL    HW264664   4.789  11.575   1.849
20923SOL     OW64665   0.408   8.694   7.471
20923SOL    HW164666   0.494   8.707   7.509
20923SOL    HW264667   0.370   8.781   7.466
20924SOL     OW64668  11.839   0.230  14.697
20924SOL    HW164669  11.817   0.179  14.775
20924SOL    HW264670  11.925   0.268  14.717
20925SOL     OW64671  10.399   0.448  13.549
20925SOL    HW164672  10.466   0.444  13.618
20925SOL    HW264673  10.320   0.412  13.590
20926SOL     OW64674   1.111   8.532   2.656
20926SOL    HW164675   1.159   8.561   2.578
20926SOL    HW264676   1.161   8.458   2.689
20927SOL     OW64677   8.369   1.538   0.177
20927SOL    HW164678   8.301   1.541   0.109
20927SOL    HW264679   8.439   1.485   0.138
20928SOL     OW64680   3.854   3.983   6.782
20928SOL    HW164681   3.831   4.063   6.829
20928SOL    HW264682   3.914   4.011   6.714
20929SOL     OW64683  13.020  13.852   8.847
20929SOL    HW164684  13.107  13.868   8.811
20929SOL    HW264685  12.965  13.833   8.770
20930SOL     OW64686   3.893   3.429   7.039
20930SOL    HW164687   3.820   3.476   7.079
20930SOL    HW264688   3.962   3.429   7.105
20931SOL     OW64689   3.477  10.124   8.672
20931SOL    HW164690   3.406  10.167   8.720
20931SOL    HW264691   3.440  10.106   8.586
20932SOL     OW64692  11.759  14.572  14.190
20932SOL    HW164693  11.671  14.585  14.155
20932SOL    HW264694  11.746  14.513  14.264
20933SOL     OW64695  10.128  13.677  11.742
20933SOL    HW164696  10.085  13.745  11.793
20933SOL    HW264697  10.056  13.621  11.712
20934SOL     OW64698   1.405  12.972   8.972
20934SOL    HW164699   1.333  13.018   8.928
20934SOL    HW264700   1.404  12.884   8.933
20935SOL     OW64701   4.023  10.475   7.828
20935SOL    HW164702   4.119  10.475   7.831
20935SOL    HW264703   4.003  10.520   7.745
20936SOL     OW64704   0.228  12.762  13.511
20936SOL    HW164705   0.286  12.791  13.440
20936SOL    HW264706   0.280  12.700  13.561
20937SOL     OW64707  12.061   3.503   9.114
20937SOL    HW164708  12.134   3.563   9.126
20937SOL    HW264709  12.102   3.417   9.107
20938SOL     OW64710  11.101   8.536  12.636
20938SOL    HW164711  11.066   8.533  12.726
20938SOL    HW264712  11.052   8.607  12.594
20939SOL     OW64713  14.761   2.602   7.715
20939SOL    HW164714  14.741   2.680   7.663
20939SOL    HW264715  14.829   2.631   7.776
20940SOL     OW64716   5.222   1.896   0.226
20940SOL    HW164717   5.277   1.963   0.186
20940SOL    HW264718   5.270   1.868   0.304
20941SOL     OW64719  13.692   9.611   2.071
20941SOL    HW164720  13.681   9.631   2.164
20941SOL    HW264721  13.760   9.544   2.069
20942SOL     OW64722   6.660  11.267  11.453
20942SOL    HW164723   6.651  11.229  11.366
20942SOL    HW264724   6.703  11.200  11.505
20943SOL     OW64725   6.440   5.210   4.787
20943SOL    HW164726   6.382   5.279   4.756
20943SOL    HW264727   6.381   5.137   4.808
20944SOL     OW64728   6.307  12.612   4.231
20944SOL    HW164729   6.309  12.685   4.169
20944SOL    HW264730   6.381  12.557   4.204
20945SOL     OW64731  14.228   4.436   4.712
20945SOL    HW164732  14.312   4.449   4.756
20945SOL    HW264733  14.213   4.518   4.665
20946SOL     OW64734   4.619   7.214   7.420
20946SOL    HW164735   4.682   7.147   7.394
20946SOL    HW264736   4.571   7.235   7.340
20947SOL     OW64737   1.852   4.832   1.414
20947SOL    HW164738   1.777   4.889   1.427
20947SOL    HW264739   1.815   4.751   1.378
20948SOL     OW64740   1.578   4.506   5.628
20948SOL    HW164741   1.609   4.577   5.685
20948SOL    HW264742   1.520   4.549   5.565
20949SOL     OW64743  11.902   6.146  11.521
20949SOL    HW164744  11.828   6.139  11.460
20949SOL    HW264745  11.872   6.208  11.587
20950SOL     OW64746  14.807   0.302   5.597
20950SOL    HW164747  14.730   0.338   5.642
20950SOL    HW264748  14.825   0.366   5.528
20951SOL     OW64749  13.396   1.860   5.256
20951SOL    HW164750  13.359   1.948   5.253
20951SOL    HW264751  13.384   1.833   5.347
20952SOL     OW64752   3.730   6.814   5.725
20952SOL    HW164753   3.658   6.786   5.670
20952SOL    HW264754   3.788   6.738   5.730
20953SOL     OW64755  11.798   5.437  10.431
20953SOL    HW164756  11.743   5.397  10.499
20953SOL    HW264757  11.860   5.491  10.480
20954SOL     OW64758  14.392   7.812   7.233
20954SOL    HW164759  14.432   7.859   7.307
20954SOL    HW264760  14.348   7.738   7.274
20955SOL     OW64761  13.398  11.393  14.558
20955SOL    HW164762  13.475  11.450  14.566
20955SOL    HW264763  13.409  11.328  14.628
20956SOL     OW64764  11.142   8.679  10.749
20956SOL    HW164765  11.054   8.688  10.786
20956SOL    HW264766  11.136   8.602  10.693
20957SOL     OW64767   9.661   3.997  10.083
20957SOL    HW164768   9.639   3.905  10.099
20957SOL    HW264769   9.757   3.999  10.085
20958SOL     OW64770   6.512   7.089   6.464
20958SOL    HW164771   6.525   7.081   6.558
20958SOL    HW264772   6.427   7.132   6.455
20959SOL     OW64773   3.783  11.106   0.355
20959SOL    HW164774   3.875  11.096   0.331
20959SOL    HW264775   3.739  11.033   0.310
20960SOL     OW64776  10.984   7.595   6.456
20960SOL    HW164777  10.985   7.554   6.542
20960SOL    HW264778  11.000   7.524   6.395
20961SOL     OW64779   1.132  10.407   9.971
20961SOL    HW164780   1.157  10.375  10.058
20961SOL    HW264781   1.036  10.414   9.974
20962SOL     OW64782   7.599   1.117  11.446
20962SOL    HW164783   7.617   1.083  11.359
20962SOL    HW264784   7.533   1.185  11.433
20963SOL     OW64785   7.077   9.955   0.444
20963SOL    HW164786   7.013  10.025   0.457
20963SOL    HW264787   7.034   9.877   0.479
20964SOL     OW64788   8.905  13.688   3.038
20964SOL    HW164789   8.970  13.710   2.971
20964SOL    HW264790   8.928  13.743   3.113
20965SOL     OW64791  11.448  10.667  11.510
20965SOL    HW164792  11.493  10.704  11.434
20965SOL    HW264793  11.436  10.575  11.489
20966SOL     OW64794  14.237   7.048   6.479
20966SOL    HW164795  14.173   7.072   6.411
20966SOL    HW264796  14.185   7.003   6.545
20967SOL     OW64797  12.507  14.519   7.477
20967SOL    HW164798  12.534  14.573   7.552
20967SOL    HW264799  12.517  14.577   7.402
20968SOL     OW64800  13.502  14.373   0.931
20968SOL    HW164801  13.457  14.298   0.971
20968SOL    HW264802  13.442  14.404   0.863
20969SOL     OW64803  11.993   3.804   6.004
20969SOL    HW164804  12.083   3.774   6.016
20969SOL    HW264805  11.973   3.786   5.912
20970SOL     OW64806  10.728   3.502   5.146
20970SOL    HW164807  10.806   3.452   5.172
20970SOL    HW264808  10.744   3.590   5.181
20971SOL     OW64809   5.740  14.752   5.165
20971SOL    HW164810   5.693  14.835   5.177
20971SOL    HW264811   5.768  14.754   5.074
20972SOL     OW64812  10.418   8.903   5.053
20972SOL    HW164813  10.344   8.912   4.993
20972SOL    HW264814  10.389   8.839   5.117
20973SOL     OW64815  12.698  14.685   3.611
20973SOL    HW164816  12.664  14.744   3.544
20973SOL    HW264817  12.668  14.722   3.694
20974SOL     OW64818   2.949   3.183   7.690
20974SOL    HW164819   3.009   3.116   7.656
20974SOL    HW264820   2.956   3.255   7.627
20975SOL     OW64821   8.652  11.929  12.560
20975SOL    HW164822   8.616  12.017  12.553
20975SOL    HW264823   8.681  11.908  12.471
20976SOL     OW64824   4.492   6.821  10.827
20976SOL    HW164825   4.432   6.814  10.753
20976SOL    HW264826   4.553   6.748  10.816
20977SOL     OW64827   9.451   5.208   4.384
20977SOL    HW164828   9.506   5.203   4.462
20977SOL    HW264829   9.362   5.200   4.417
20978SOL     OW64830  11.210  11.710  10.549
20978SOL    HW164831  11.166  11.786  10.586
20978SOL    HW264832  11.225  11.733  10.457
20979SOL     OW64833  13.617   1.677  14.162
20979SOL    HW164834  13.561   1.754  14.161
20979SOL    HW264835  13.630   1.657  14.255
20980SOL     OW64836   5.828   1.425   9.824
20980SOL    HW164837   5.757   1.363   9.812
20980SOL    HW264838   5.896   1.397   9.762
20981SOL     OW64839   0.217   5.087  13.154
20981SOL    HW164840   0.261   5.170  13.135
20981SOL    HW264841   0.242   5.067  13.244
20982SOL     OW64842   1.304   8.765   9.139
20982SOL    HW164843   1.334   8.810   9.218
20982SOL    HW264844   1.384   8.742   9.092
20983SOL     OW64845  13.985  11.066   6.659
20983SOL    HW164846  14.076  11.096   6.663
20983SOL    HW264847  13.934  11.147   6.658
20984SOL     OW64848  11.384   0.070   9.195
20984SOL    HW164849  11.334  14.875   9.222
20984SOL    HW264850  11.412   0.110   9.276
20985SOL     OW64851   0.995   0.272   9.072
20985SOL    HW164852   0.929   0.255   9.005
20985SOL    HW264853   1.066   0.316   9.024
20986SOL     OW64854   3.920  10.233   7.948
20986SOL    HW164855   3.928  10.326   7.928
20986SOL    HW264856   3.943  10.189   7.866
20987SOL     OW64857   2.874   9.993  12.895
20987SOL    HW164858   2.885  10.075  12.847
20987SOL    HW264859   2.957   9.946  12.882
20988SOL     OW64860   8.324   7.666   8.987
20988SOL    HW164861   8.419   7.661   9.001
20988SOL    HW264862   8.299   7.751   9.022
20989SOL     OW64863   8.386   9.863  10.477
20989SOL    HW164864   8.396   9.865  10.382
20989SOL    HW264865   8.291   9.866  10.491
20990SOL     OW64866  12.028  14.245  13.653
20990SOL    HW164867  12.025  14.166  13.707
20990SOL    HW264868  12.119  14.252  13.626
20991SOL     OW64869  11.623  13.284   3.038
20991SOL    HW164870  11.703  13.280   2.986
20991SOL    HW264871  11.594  13.375   3.030
20992SOL     OW64872   0.564   2.443   5.744
20992SOL    HW164873   0.552   2.496   5.823
20992SOL    HW264874   0.480   2.400   5.730
20993SOL     OW64875   0.560   9.265   0.092
20993SOL    HW164876   0.509   9.346   0.096
20993SOL    HW264877   0.517   9.214   0.023
20994SOL     OW64878  12.249   9.304   6.324
20994SOL    HW164879  12.314   9.241   6.295
20994SOL    HW264880  12.199   9.258   6.391
20995SOL     OW64881   2.835   8.020  10.156
20995SOL    HW164882   2.926   8.008  10.183
20995SOL    HW264883   2.784   8.007  10.235
20996SOL     OW64884   1.027   4.753   7.049
20996SOL    HW164885   1.064   4.842   7.047
20996SOL    HW264886   1.027   4.725   6.958
20997SOL     OW64887   2.390   0.949   5.966
20997SOL    HW164888   2.394   1.045   5.968
20997SOL    HW264889   2.312   0.927   6.016
20998SOL     OW64890   2.747   4.318  11.081
20998SOL    HW164891   2.815   4.274  11.132
20998SOL    HW264892   2.795   4.383  11.029
20999SOL     OW64893   5.245   4.024   1.418
20999SOL    HW164894   5.325   3.998   1.372
20999SOL    HW264895   5.184   3.953   1.401
21000SOL     OW64896   1.921  13.942   4.197
21000SOL    HW164897   1.868  14.017   4.169
21000SOL    HW264898   2.011  13.975   4.195
21001SOL     OW64899   6.061  10.404   5.661
21001SOL    HW164900   6.043  10.496   5.680
21001SOL    HW264901   5.997  10.356   5.712
21002SOL     OW64902   2.157   1.179   9.604
21002SOL    HW164903   2.179   1.206   9.693
21002SOL    HW264904   2.069   1.141   9.612
21003SOL     OW64905   9.298  14.496  12.860
21003SOL    HW164906   9.288  14.401  12.861
21003SOL    HW264907   9.249  14.524  12.782
21004SOL     OW64908  13.818   7.191   2.180
21004SOL    HW164909  13.843   7.196   2.272
21004SOL    HW264910  13.808   7.097   2.163
21005SOL     OW64911  11.527  14.021   7.140
21005SOL    HW164912  11.515  14.073   7.061
21005SOL    HW264913  11.558  14.083   7.206
21006SOL     OW64914  14.392   0.914  11.752
21006SOL    HW164915  14.414   0.889  11.662
21006SOL    HW264916  14.475   0.907  11.800
21007SOL     OW64917   3.468  13.022   2.109
21007SOL    HW164918   3.381  13.060   2.094
21007SOL    HW264919   3.451  12.945   2.163
21008SOL     OW64920  14.726   4.395   6.318
21008SOL    HW164921  14.791   4.421   6.252
21008SOL    HW264922  14.645   4.435   6.288
21009SOL     OW64923  13.211   3.078   9.157
21009SOL    HW164924  13.281   3.115   9.211
21009SOL    HW264925  13.163   3.154   9.123
21010SOL     OW64926   7.787   8.606   5.582
21010SOL    HW164927   7.757   8.680   5.529
21010SOL    HW264928   7.731   8.608   5.659
21011SOL     OW64929   2.883  11.366   5.742
21011SOL    HW164930   2.884  11.384   5.836
21011SOL    HW264931   2.802  11.406   5.711
21012SOL     OW64932   2.601   1.616  13.306
21012SOL    HW164933   2.522   1.588  13.352
21012SOL    HW264934   2.571   1.679  13.241
21013SOL     OW64935   9.304   2.330   9.126
21013SOL    HW164936   9.300   2.426   9.125
21013SOL    HW264937   9.356   2.308   9.203
21014SOL     OW64938  14.076   9.001   2.739
21014SOL    HW164939  14.170   8.998   2.758
21014SOL    HW264940  14.057   8.916   2.700
21015SOL     OW64941  13.561  11.027  11.633
21015SOL    HW164942  13.555  10.971  11.710
21015SOL    HW264943  13.483  11.004  11.581
21016SOL     OW64944   4.701   0.906   7.772
21016SOL    HW164945   4.745   0.822   7.787
21016SOL    HW264946   4.613   0.883   7.742
21017SOL     OW64947   9.326   9.188  10.390
21017SOL    HW164948   9.339   9.208  10.482
21017SOL    HW264949   9.404   9.221  10.346
21018SOL     OW64950   2.963   2.492   0.740
21018SOL    HW164951   3.024   2.543   0.793
21018SOL    HW264952   2.899   2.459   0.803
21019SOL     OW64953   9.588   0.067   1.440
21019SOL    HW164954   9.546   0.132   1.383
21019SOL    HW264955   9.522  14.882   1.453
21020SOL     OW64956   9.360   7.837  14.446
21020SOL    HW164957   9.444   7.792  14.455
21020SOL    HW264958   9.380   7.929  14.466
21021SOL     OW64959   5.025   4.625  10.192
21021SOL    HW164960   5.116   4.651  10.179
21021SOL    HW264961   4.977   4.667  10.120
21022SOL     OW64962  11.203   3.961   3.980
21022SOL    HW164963  11.215   3.881   4.031
21022SOL    HW264964  11.140   4.012   4.031
21023SOL     OW64965   1.604   7.495   0.688
21023SOL    HW164966   1.636   7.579   0.718
21023SOL    HW264967   1.571   7.512   0.600
21024SOL     OW64968   2.018  13.229  13.498
21024SOL    HW164969   2.002  13.301  13.436
21024SOL    HW264970   2.112  13.234  13.516
21025SOL     OW64971  11.846   3.176   4.630
21025SOL    HW164972  11.772   3.132   4.671
21025SOL    HW264973  11.861   3.254   4.683
21026SOL     OW64974   3.541   0.703   6.172
21026SOL    HW164975   3.552   0.611   6.148
21026SOL    HW264976   3.447   0.714   6.180
21027SOL     OW64977  11.010   0.694  13.424
21027SOL    HW164978  11.028   0.608  13.387
21027SOL    HW264979  11.066   0.754  13.374
21028SOL     OW64980  12.375  13.138   2.915
21028SOL    HW164981  12.329  13.100   2.990
21028SOL    HW264982  12.440  13.196   2.954
21029SOL     OW64983   7.516  11.994  12.965
21029SOL    HW164984   7.464  11.918  12.937
21029SOL    HW264985   7.578  11.958  13.028
21030SOL     OW64986   4.334   3.724  10.420
21030SOL    HW164987   4.284   3.801  10.447
21030SOL    HW264988   4.370   3.688  10.501
21031SOL     OW64989   6.664  14.108  13.648
21031SOL    HW164990   6.704  14.075  13.567
21031SOL    HW264991   6.625  14.030  13.688
21032SOL     OW64992   8.191  10.328   5.887
21032SOL    HW164993   8.162  10.413   5.920
21032SOL    HW264994   8.193  10.339   5.792
21033SOL     OW64995   6.409   2.023   7.232
21033SOL    HW164996   6.424   2.079   7.156
21033SOL    HW264997   6.314   2.007   7.231
21034SOL     OW64998   1.847   6.398   8.940
21034SOL    HW164999   1.769   6.370   8.893
21034SOL    HW265000   1.919   6.349   8.899
21035SOL     OW65001  14.386   8.104   7.160
21035SOL    HW165002  14.337   8.096   7.242
21035SOL    HW265003  14.391   8.014   7.126
21036SOL     OW65004  11.821  13.446   1.979
21036SOL    HW165005  11.843  13.380   2.046
21036SOL    HW265006  11.755  13.501   2.021
21037SOL     OW65007   8.077   2.929  11.846
21037SOL    HW165008   8.053   2.969  11.762
21037SOL    HW265009   8.142   2.863  11.823
21038SOL     OW65010  11.349  13.990   3.844
21038SOL    HW165011  11.394  13.932   3.905
21038SOL    HW265012  11.328  14.068   3.896
21039SOL     OW65013   1.620  11.271   3.870
21039SOL    HW165014   1.653  11.307   3.788
21039SOL    HW265015   1.587  11.347   3.918
21040SOL     OW65016   6.842   6.767  14.244
21040SOL    HW165017   6.861   6.854  14.209
21040SOL    HW265018   6.809   6.718  14.169
21041SOL     OW65019  14.529  14.460   5.313
21041SOL    HW165020  14.580  14.408   5.376
21041SOL    HW265021  14.438  14.434   5.328
21042SOL     OW65022   3.691   9.307  13.502
21042SOL    HW165023   3.643   9.365  13.443
21042SOL    HW265024   3.631   9.234  13.519
21043SOL     OW65025  11.794   3.083   5.797
21043SOL    HW165026  11.819   2.992   5.806
21043SOL    HW265027  11.829   3.110   5.712
21044SOL     OW65028  11.256  12.717   0.322
21044SOL    HW165029  11.175  12.668   0.340
21044SOL    HW265030  11.263  12.779   0.395
21045SOL     OW65031   9.818   1.745   0.124
21045SOL    HW165032   9.913   1.739   0.126
21045SOL    HW265033   9.799   1.817   0.063
21046SOL     OW65034   8.982   4.882   8.227
21046SOL    HW165035   8.976   4.842   8.314
21046SOL    HW265036   8.893   4.877   8.193
21047SOL     OW65037   1.767   7.292  12.585
21047SOL    HW165038   1.848   7.243  12.603
21047SOL    HW265039   1.710   7.228  12.543
21048SOL     OW65040   2.577   6.086   3.011
21048SOL    HW165041   2.621   6.017   2.960
21048SOL    HW265042   2.617   6.167   2.981
21049SOL     OW65043   7.229   2.307   7.097
21049SOL    HW165044   7.293   2.339   7.033
21049SOL    HW265045   7.282   2.268   7.166
21050SOL     OW65046   4.089   5.346   4.190
21050SOL    HW165047   4.114   5.254   4.194
21050SOL    HW265048   4.090   5.367   4.096
21051SOL     OW65049   6.296   6.033   7.235
21051SOL    HW165050   6.361   5.980   7.189
21051SOL    HW265051   6.323   6.123   7.220
21052SOL     OW65052   6.875   9.574   0.409
21052SOL    HW165053   6.887   9.598   0.317
21052SOL    HW265054   6.948   9.616   0.454
21053SOL     OW65055  10.342  13.887  12.135
21053SOL    HW165056  10.377  13.853  12.217
21053SOL    HW265057  10.340  13.810  12.077
21054SOL     OW65058  13.167  14.832   0.518
21054SOL    HW165059  13.250  14.790   0.495
21054SOL    HW265060  13.100  14.774   0.482
21055SOL     OW65061  13.571  10.304   5.002
21055SOL    HW165062  13.482  10.271   4.984
21055SOL    HW265063  13.583  10.374   4.938
21056SOL     OW65064  10.188   4.262   2.015
21056SOL    HW165065  10.202   4.309   1.933
21056SOL    HW265066  10.249   4.188   2.011
21057SOL     OW65067   3.988  12.450  12.055
21057SOL    HW165068   4.009  12.408  11.972
21057SOL    HW265069   4.069  12.495  12.080
21058SOL     OW65070  13.810  13.770  13.721
21058SOL    HW165071  13.861  13.850  13.735
21058SOL    HW265072  13.875  13.706  13.691
21059SOL     OW65073   6.761   5.439  11.545
21059SOL    HW165074   6.800   5.412  11.628
21059SOL    HW265075   6.666   5.434  11.560
21060SOL     OW65076   2.271   1.608   1.394
21060SOL    HW165077   2.350   1.585   1.344
21060SOL    HW265078   2.302   1.616   1.484
21061SOL     OW65079   8.638   6.692   1.677
21061SOL    HW165080   8.640   6.709   1.772
21061SOL    HW265081   8.565   6.744   1.645
21062SOL     OW65082  14.681   7.369  13.258
21062SOL    HW165083  14.726   7.442  13.302
21062SOL    HW265084  14.698   7.383  13.165
21063SOL     OW65085   4.157  14.367  12.143
21063SOL    HW165086   4.163  14.273  12.154
21063SOL    HW265087   4.089  14.379  12.077
21064SOL     OW65088   1.763   1.860  10.913
21064SOL    HW165089   1.752   1.911  10.993
21064SOL    HW265090   1.841   1.806  10.930
21065SOL     OW65091   7.340   1.194   2.132
21065SOL    HW165092   7.388   1.114   2.152
21065SOL    HW265093   7.264   1.165   2.082
21066SOL     OW65094   7.299  13.531   7.800
21066SOL    HW165095   7.249  13.586   7.739
21066SOL    HW265096   7.355  13.592   7.847
21067SOL     OW65097   8.140   2.821   1.970
21067SOL    HW165098   8.063   2.764   1.979
21067SOL    HW265099   8.130   2.885   2.041
21068SOL     OW65100   8.773  13.737  11.249
21068SOL    HW165101   8.710  13.692  11.306
21068SOL    HW265102   8.843  13.673  11.238
21069SOL     OW65103   1.673   1.797   8.852
21069SOL    HW165104   1.735   1.847   8.905
21069SOL    HW265105   1.615   1.757   8.917
21070SOL     OW65106  13.507   6.458   5.811
21070SOL    HW165107  13.480   6.547   5.835
21070SOL    HW265108  13.507   6.410   5.894
21071SOL     OW65109   3.654   9.655   0.151
21071SOL    HW165110   3.597   9.644   0.075
21071SOL    HW265111   3.738   9.682   0.114
21072SOL     OW65112  12.289   2.837   1.197
21072SOL    HW165113  12.330   2.866   1.115
21072SOL    HW265114  12.262   2.747   1.180
21073SOL     OW65115  11.878  13.910   7.377
21073SOL    HW165116  11.836  13.887   7.294
21073SOL    HW265117  11.972  13.896   7.361
21074SOL     OW65118  10.530   3.282   9.589
21074SOL    HW165119  10.504   3.261   9.679
21074SOL    HW265120  10.571   3.368   9.595
21075SOL     OW65121   3.925   9.347   9.442
21075SOL    HW165122   3.945   9.437   9.468
21075SOL    HW265123   3.884   9.355   9.356
21076SOL     OW65124  14.734  10.916   1.054
21076SOL    HW165125  14.824  10.906   1.084
21076SOL    HW265126  14.707  10.827   1.030
21077SOL     OW65127   5.544  14.205   6.557
21077SOL    HW165128   5.537  14.291   6.600
21077SOL    HW265129   5.471  14.202   6.496
21078SOL     OW65130   0.028   4.326  14.046
21078SOL    HW165131   0.081   4.392  14.092
21078SOL    HW265132   0.093   4.273  13.999
21079SOL     OW65133   4.891  11.651   5.683
21079SOL    HW165134   4.951  11.679   5.614
21079SOL    HW265135   4.947  11.609   5.748
21080SOL     OW65136   3.314   2.489  13.764
21080SOL    HW165137   3.227   2.481  13.723
21080SOL    HW265138   3.296   2.492  13.858
21081SOL     OW65139   6.426   0.267   6.269
21081SOL    HW165140   6.380   0.263   6.185
21081SOL    HW265141   6.518   0.278   6.245
21082SOL     OW65142   4.355   9.798   0.817
21082SOL    HW165143   4.260   9.805   0.803
21082SOL    HW265144   4.388   9.755   0.738
21083SOL     OW65145   5.977   6.868   0.093
21083SOL    HW165146   5.899   6.814   0.094
21083SOL    HW265147   5.951   6.946   0.043
21084SOL     OW65148   0.999  13.691   8.030
21084SOL    HW165149   0.948  13.668   8.107
21084SOL    HW265150   1.053  13.765   8.058
21085SOL     OW65151   3.424   1.482   1.981
21085SOL    HW165152   3.484   1.548   2.016
21085SOL    HW265153   3.481   1.420   1.936
21086SOL     OW65154  14.355  10.583  12.262
21086SOL    HW165155  14.268  10.608  12.231
21086SOL    HW265156  14.340  10.546  12.349
21087SOL     OW65157   0.514  12.990   9.900
21087SOL    HW165158   0.502  12.917   9.839
21087SOL    HW265159   0.497  13.068   9.848
21088SOL     OW65160   4.366   8.078   8.545
21088SOL    HW165161   4.353   7.984   8.554
21088SOL    HW265162   4.442   8.086   8.488
21089SOL     OW65163   8.909  14.738   9.897
21089SOL    HW165164   8.937  14.803   9.833
21089SOL    HW265165   8.918  14.782   9.982
21090SOL     OW65166  13.708  11.891   9.592
21090SOL    HW165167  13.804  11.891   9.596
21090SOL    HW265168  13.687  11.973   9.547
21091SOL     OW65169   5.537  14.282   5.451
21091SOL    HW165170   5.496  14.232   5.381
21091SOL    HW265171   5.550  14.370   5.414
21092SOL     OW65172  11.925  14.166   8.749
21092SOL    HW165173  11.986  14.092   8.751
21092SOL    HW265174  11.971  14.237   8.793
21093SOL     OW65175   8.160   4.828   4.208
21093SOL    HW165176   8.105   4.901   4.179
21093SOL    HW265177   8.229   4.823   4.142
21094SOL     OW65178   7.460   1.879   9.392
21094SOL    HW165179   7.542   1.899   9.347
21094SOL    HW265180   7.484   1.817   9.461
21095SOL     OW65181   5.845  12.840   0.665
21095SOL    HW165182   5.878  12.923   0.699
21095SOL    HW265183   5.751  12.841   0.685
21096SOL     OW65184  12.457   1.578  13.946
21096SOL    HW165185  12.453   1.672  13.966
21096SOL    HW265186  12.399   1.538  14.011
21097SOL     OW65187   6.249   9.717  13.650
21097SOL    HW165188   6.322   9.777  13.637
21097SOL    HW265189   6.233   9.719  13.745
21098SOL     OW65190   4.703   1.568  14.486
21098SOL    HW165191   4.739   1.521  14.562
21098SOL    HW265192   4.703   1.503  14.416
21099SOL     OW65193   9.559   1.556   1.663
21099SOL    HW165194   9.644   1.568   1.620
21099SOL    HW265195   9.580   1.536   1.754
21100SOL     OW65196   8.326   7.876   2.380
21100SOL    HW165197   8.284   7.955   2.345
21100SOL    HW265198   8.307   7.879   2.474
21101SOL     OW65199   1.078  12.706   7.626
21101SOL    HW165200   1.061  12.710   7.721
21101SOL    HW265201   0.996  12.677   7.588
21102SOL     OW65202   4.903  11.620  13.391
21102SOL    HW165203   4.957  11.696  13.370
21102SOL    HW265204   4.825  11.629  13.336
21103SOL     OW65205   4.293   3.135  11.043
21103SOL    HW165206   4.384   3.139  11.075
21103SOL    HW265207   4.242   3.117  11.122
21104SOL     OW65208   1.765   3.380   1.138
21104SOL    HW165209   1.670   3.386   1.139
21104SOL    HW265210   1.795   3.463   1.177
21105SOL     OW65211   9.455  10.398  11.586
21105SOL    HW165212   9.393  10.352  11.642
21105SOL    HW265213   9.433  10.491  11.598
21106SOL     OW65214   0.824  12.731  13.060
21106SOL    HW165215   0.816  12.714  12.966
21106SOL    HW265216   0.913  12.762  13.072
21107SOL     OW65217   1.029   3.122   9.161
21107SOL    HW165218   1.029   3.214   9.135
21107SOL    HW265219   0.938   3.095   9.157
21108SOL     OW65220  14.497  14.062   0.645
21108SOL    HW165221  14.555  13.991   0.672
21108SOL    HW265222  14.430  14.065   0.714
21109SOL     OW65223   9.550   5.227   7.981
21109SOL    HW165224   9.560   5.166   8.055
21109SOL    HW265225   9.460   5.215   7.952
21110SOL     OW65226   6.915   9.884  13.345
21110SOL    HW165227   6.964   9.818  13.394
21110SOL    HW265228   6.977   9.918  13.281
21111SOL     OW65229  11.177   9.234  13.735
21111SOL    HW165230  11.181   9.217  13.829
21111SOL    HW265231  11.147   9.151  13.698
21112SOL     OW65232   9.908  13.482  13.314
21112SOL    HW165233   9.969  13.525  13.374
21112SOL    HW265234   9.955  13.404  13.284
21113SOL     OW65235  11.853  14.085   0.448
21113SOL    HW165236  11.910  14.145   0.399
21113SOL    HW265237  11.767  14.127   0.448
21114SOL     OW65238   2.390  11.897   3.564
21114SOL    HW165239   2.467  11.846   3.587
21114SOL    HW265240   2.380  11.884   3.469
21115SOL     OW65241   0.249   6.294   3.746
21115SOL    HW165242   0.297   6.350   3.807
21115SOL    HW265243   0.177   6.349   3.715
21116SOL     OW65244  13.365  13.125   0.718
21116SOL    HW165245  13.359  13.046   0.663
21116SOL    HW265246  13.369  13.197   0.655
21117SOL     OW65247   1.148   4.214  14.143
21117SOL    HW165248   1.103   4.134  14.170
21117SOL    HW265249   1.240   4.197  14.162
21118SOL     OW65250   6.091   3.039   3.766
21118SOL    HW165251   6.157   3.108   3.767
21118SOL    HW265252   6.022   3.072   3.709
21119SOL     OW65253  13.575   5.522   1.334
21119SOL    HW165254  13.633   5.581   1.286
21119SOL    HW265255  13.572   5.442   1.281
21120SOL     OW65256   7.361  12.878  14.670
21120SOL    HW165257   7.366  12.810  14.602
21120SOL    HW265258   7.433  12.857  14.730
21121SOL     OW65259  12.850  12.454   8.585
21121SOL    HW165260  12.906  12.522   8.547
21121SOL    HW265261  12.888  12.372   8.554
21122SOL     OW65262   1.152  13.501   4.903
21122SOL    HW165263   1.206  13.567   4.859
21122SOL    HW265264   1.076  13.490   4.845
21123SOL     OW65265   8.298   4.628   8.239
21123SOL    HW165266   8.215   4.594   8.206
21123SOL    HW265267   8.355   4.630   8.163
21124SOL     OW65268  10.443   7.749   2.711
21124SOL    HW165269  10.401   7.672   2.751
21124SOL    HW265270  10.524   7.715   2.672
21125SOL     OW65271   4.562  10.863   4.877
21125SOL    HW165272   4.546  10.936   4.817
21125SOL    HW265273   4.589  10.791   4.820
21126SOL     OW65274   2.699   8.140  14.174
21126SOL    HW165275   2.710   8.173  14.085
21126SOL    HW265276   2.609   8.106  14.176
21127SOL     OW65277   2.272  10.224   7.803
21127SOL    HW165278   2.257  10.318   7.805
21127SOL    HW265279   2.362  10.214   7.772
21128SOL     OW65280  10.979  10.530  13.085
21128SOL    HW165281  10.907  10.583  13.119
21128SOL    HW265282  11.051  10.592  13.073
21129SOL     OW65283   2.715  13.142  14.312
21129SOL    HW165284   2.770  13.083  14.260
21129SOL    HW265285   2.652  13.177  14.249
21130SOL     OW65286  13.254  10.757   6.458
21130SOL    HW165287  13.253  10.787   6.367
21130SOL    HW265288  13.195  10.682   6.460
21131SOL     OW65289  13.798   8.997  10.125
21131SOL    HW165290  13.762   9.024  10.041
21131SOL    HW265291  13.851   9.072  10.154
21132SOL     OW65292   0.256   8.039   5.986
21132SOL    HW165293   0.186   7.975   6.001
21132SOL    HW265294   0.217   8.123   6.008
21133SOL     OW65295  14.470   1.789  13.277
21133SOL    HW165296  14.385   1.745  13.282
21133SOL    HW265297  14.528   1.735  13.330
21134SOL     OW65298   3.232  14.501   1.321
21134SOL    HW165299   3.282  14.509   1.402
21134SOL    HW265300   3.151  14.456   1.346
21135SOL     OW65301   4.311   8.484   9.523
21135SOL    HW165302   4.260   8.517   9.449
21135SOL    HW265303   4.402   8.507   9.502
21136SOL     OW65304   4.607  11.386   3.140
21136SOL    HW165305   4.595  11.468   3.187
21136SOL    HW265306   4.682  11.404   3.082
21137SOL     OW65307  14.276   1.302  10.989
21137SOL    HW165308  14.270   1.386  11.033
21137SOL    HW265309  14.233   1.315  10.904
21138SOL     OW65310  10.353   1.309   8.647
21138SOL    HW165311  10.341   1.219   8.677
21138SOL    HW265312  10.266   1.348   8.654
21139SOL     OW65313   1.639   1.641   8.080
21139SOL    HW165314   1.613   1.576   8.145
21139SOL    HW265315   1.732   1.623   8.063
21140SOL     OW65316   1.461  14.809  11.917
21140SOL    HW165317   1.485  14.717  11.932
21140SOL    HW265318   1.517  14.859  11.977
21141SOL     OW65319   8.657   9.402   5.882
21141SOL    HW165320   8.699   9.488   5.894
21141SOL    HW265321   8.566   9.417   5.908
21142SOL     OW65322   0.578  13.546   3.244
21142SOL    HW165323   0.579  13.522   3.337
21142SOL    HW265324   0.550  13.637   3.243
21143SOL     OW65325  11.994   3.952   4.142
21143SOL    HW165326  11.973   4.045   4.138
21143SOL    HW265327  12.075   3.948   4.193
21144SOL     OW65328   9.768  10.386   0.517
21144SOL    HW165329   9.711  10.463   0.527
21144SOL    HW265330   9.840  10.417   0.462
21145SOL     OW65331   0.259   1.482   0.950
21145SOL    HW165332   0.230   1.550   1.011
21145SOL    HW265333   0.353   1.499   0.940
21146SOL     OW65334   1.330   6.534   1.119
21146SOL    HW165335   1.390   6.592   1.072
21146SOL    HW265336   1.296   6.475   1.052
21147SOL     OW65337   1.787  12.950   0.459
21147SOL    HW165338   1.860  12.903   0.502
21147SOL    HW265339   1.820  13.039   0.446
21148SOL     OW65340   4.706  13.736   3.110
21148SOL    HW165341   4.711  13.713   3.203
21148SOL    HW265342   4.797  13.736   3.081
21149SOL     OW65343   3.660   4.228  14.161
21149SOL    HW165344   3.634   4.141  14.129
21149SOL    HW265345   3.748   4.215  14.196
21150SOL     OW65346   6.028   0.357  11.692
21150SOL    HW165347   5.957   0.329  11.750
21150SOL    HW265348   6.008   0.450  11.674
21151SOL     OW65349  12.930  13.131   9.172
21151SOL    HW165350  12.915  13.171   9.258
21151SOL    HW265351  13.018  13.094   9.178
21152SOL     OW65352  10.322  14.197   1.223
21152SOL    HW165353  10.362  14.165   1.141
21152SOL    HW265354  10.393  14.243   1.267
21153SOL     OW65355   5.412   2.825  12.557
21153SOL    HW165356   5.328   2.790  12.585
21153SOL    HW265357   5.427   2.900  12.615
21154SOL     OW65358   1.716   1.407  11.814
21154SOL    HW165359   1.638   1.387  11.763
21154SOL    HW265360   1.712   1.501  11.828
21155SOL     OW65361   0.306  14.219  10.642
21155SOL    HW165362   0.279  14.192  10.730
21155SOL    HW265363   0.313  14.137  10.593
21156SOL     OW65364   3.541   1.553   4.502
21156SOL    HW165365   3.500   1.639   4.501
21156SOL    HW265366   3.517   1.514   4.418
21157SOL     OW65367   8.949  13.463   1.700
21157SOL    HW165368   8.927  13.393   1.762
21157SOL    HW265369   9.019  13.426   1.646
21158SOL     OW65370   5.940  14.267   8.506
21158SOL    HW165371   5.861  14.272   8.451
21158SOL    HW265372   5.909  14.233   8.589
21159SOL     OW65373   1.522   7.631   6.577
21159SOL    HW165374   1.529   7.536   6.565
21159SOL    HW265375   1.537   7.667   6.489
21160SOL     OW65376   6.914   2.940   3.103
21160SOL    HW165377   6.858   3.017   3.113
21160SOL    HW265378   6.979   2.966   3.038
21161SOL     OW65379   7.103   9.586   2.695
21161SOL    HW165380   7.115   9.525   2.622
21161SOL    HW265381   7.063   9.664   2.655
21162SOL     OW65382  13.906  10.694  11.581
21162SOL    HW165383  13.914  10.599  11.574
21162SOL    HW265384  13.945  10.728  11.501
21163SOL     OW65385   9.479   0.704   4.992
21163SOL    HW165386   9.417   0.719   4.921
21163SOL    HW265387   9.507   0.613   4.981
21164SOL     OW65388  12.117  11.046   0.664
21164SOL    HW165389  12.139  11.111   0.731
21164SOL    HW265390  12.060  11.092   0.603
21165SOL     OW65391  13.826   8.702   1.668
21165SOL    HW165392  13.773   8.625   1.648
21165SOL    HW265393  13.895   8.668   1.725
21166SOL     OW65394  14.505  12.757   7.181
21166SOL    HW165395  14.501  12.674   7.134
21166SOL    HW265396  14.474  12.822   7.118
21167SOL     OW65397   5.958  14.779   4.773
21167SOL    HW165398   6.004  14.713   4.824
21167SOL    HW265399   6.025  14.844   4.751
21168SOL     OW65400   2.680   6.920   8.253
21168SOL    HW165401   2.622   6.979   8.301
21168SOL    HW265402   2.629   6.838   8.246
21169SOL     OW65403   1.530   8.464   8.636
21169SOL    HW165404   1.499   8.459   8.546
21169SOL    HW265405   1.605   8.405   8.639
21170SOL     OW65406  13.510  14.190   8.204
21170SOL    HW165407  13.587  14.170   8.151
21170SOL    HW265408  13.537  14.265   8.258
21171SOL     OW65409   2.562   0.757  11.316
21171SOL    HW165410   2.603   0.741  11.231
21171SOL    HW265411   2.574   0.850  11.331
21172SOL     OW65412  14.295  11.825  12.270
21172SOL    HW165413  14.373  11.866  12.306
21172SOL    HW265414  14.279  11.750  12.327
21173SOL     OW65415   8.381   0.281   5.199
21173SOL    HW165416   8.321   0.304   5.129
21173SOL    HW265417   8.453   0.344   5.191
21174SOL     OW65418   3.930   7.665  10.060
21174SOL    HW165419   3.927   7.712   9.977
21174SOL    HW265420   3.856   7.700  10.110
21175SOL     OW65421  14.092   7.924   5.509
21175SOL    HW165422  14.030   7.860   5.475
21175SOL    HW265423  14.134   7.880   5.583
21176SOL     OW65424   6.816   3.425   7.258
21176SOL    HW165425   6.827   3.482   7.334
21176SOL    HW265426   6.897   3.375   7.253
21177SOL     OW65427   4.043   5.148   7.289
21177SOL    HW165428   4.043   5.223   7.230
21177SOL    HW265429   3.960   5.156   7.336
21178SOL     OW65430   1.178   6.691   6.648
21178SOL    HW165431   1.158   6.783   6.633
21178SOL    HW265432   1.178   6.652   6.560
21179SOL     OW65433  12.301   3.478   3.754
21179SOL    HW165434  12.303   3.572   3.772
21179SOL    HW265435  12.386   3.460   3.713
21180SOL     OW65436   5.812   7.169   1.589
21180SOL    HW165437   5.854   7.218   1.517
21180SOL    HW265438   5.886   7.138   1.642
21181SOL     OW65439   7.047   2.085   4.134
21181SOL    HW165440   7.136   2.063   4.162
21181SOL    HW265441   7.006   2.120   4.213
21182SOL     OW65442   0.095   5.348   9.695
21182SOL    HW165443   0.110   5.370   9.787
21182SOL    HW265444   0.174   5.378   9.649
21183SOL     OW65445   7.498  11.596   9.680
21183SOL    HW165446   7.478  11.507   9.708
21183SOL    HW265447   7.567  11.625   9.739
21184SOL     OW65448  14.742   4.549   1.021
21184SOL    HW165449  14.660   4.550   0.971
21184SOL    HW265450  14.720   4.504   1.103
21185SOL     OW65451  11.264  14.193  14.763
21185SOL    HW165452  11.173  14.198  14.736
21185SOL    HW265453  11.262  14.209  14.858
21186SOL     OW65454  13.960   9.033  11.211
21186SOL    HW165455  13.994   9.120  11.235
21186SOL    HW265456  13.988   9.021  11.120
21187SOL     OW65457  10.039   2.762   0.712
21187SOL    HW165458  10.032   2.856   0.724
21187SOL    HW265459  10.045   2.750   0.617
21188SOL     OW65460  13.026   3.474   5.152
21188SOL    HW165461  13.085   3.399   5.142
21188SOL    HW265462  13.039   3.526   5.073
21189SOL     OW65463  11.492   8.620  13.828
21189SOL    HW165464  11.464   8.656  13.744
21189SOL    HW265465  11.489   8.525  13.816
21190SOL     OW65466   4.338  14.563  12.771
21190SOL    HW165467   4.311  14.644  12.813
21190SOL    HW265468   4.412  14.532  12.823
21191SOL     OW65469   0.999   1.998   4.642
21191SOL    HW165470   0.929   1.966   4.699
21191SOL    HW265471   1.079   1.963   4.680
21192SOL     OW65472   8.041  13.320   3.062
21192SOL    HW165473   8.038  13.253   2.993
21192SOL    HW265474   7.975  13.291   3.126
21193SOL     OW65475  13.566   8.348  13.475
21193SOL    HW165476  13.563   8.301  13.392
21193SOL    HW265477  13.660   8.359  13.493
21194SOL     OW65478   6.661  13.616   9.766
21194SOL    HW165479   6.686  13.676   9.696
21194SOL    HW265480   6.593  13.662   9.814
21195SOL     OW65481   5.002   2.354  13.300
21195SOL    HW165482   4.988   2.293  13.228
21195SOL    HW265483   4.951   2.317  13.373
21196SOL     OW65484  11.470   2.048   2.819
21196SOL    HW165485  11.531   1.974   2.824
21196SOL    HW265486  11.467   2.081   2.909
21197SOL     OW65487  14.626   4.817   2.244
21197SOL    HW165488  14.646   4.783   2.157
21197SOL    HW265489  14.669   4.756   2.304
21198SOL     OW65490   8.904   7.213   6.363
21198SOL    HW165491   8.887   7.302   6.396
21198SOL    HW265492   8.996   7.214   6.338
21199SOL     OW65493   8.900   5.330   1.058
21199SOL    HW165494   8.953   5.325   1.137
21199SOL    HW265495   8.964   5.335   0.987
21200SOL     OW65496  11.350   3.399   3.232
21200SOL    HW165497  11.271   3.406   3.179
21200SOL    HW265498  11.373   3.306   3.229
21201SOL     OW65499   6.942  13.122   2.458
21201SOL    HW165500   6.915  13.033   2.435
21201SOL    HW265501   6.886  13.179   2.406
21202SOL     OW65502   8.982  12.828  11.063
21202SOL    HW165503   8.975  12.872  10.979
21202SOL    HW265504   8.981  12.899  11.128
21203SOL     OW65505  12.284  12.793   2.210
21203SOL    HW165506  12.335  12.867   2.242
21203SOL    HW265507  12.246  12.825   2.127
21204SOL     OW65508   8.455  12.902  12.582
21204SOL    HW165509   8.540  12.865  12.603
21204SOL    HW265510   8.432  12.864  12.497
21205SOL     OW65511  11.898   6.903   6.920
21205SOL    HW165512  11.815   6.866   6.950
21205SOL    HW265513  11.916   6.976   6.980
21206SOL     OW65514  11.034   8.691  14.246
21206SOL    HW165515  11.065   8.736  14.167
21206SOL    HW265516  10.952   8.650  14.219
21207SOL     OW65517   5.407  14.846  11.953
21207SOL    HW165518   5.443  14.841  12.042
21207SOL    HW265519   5.467   0.022  11.906
21208SOL     OW65520   4.612   6.325   4.778
21208SOL    HW165521   4.703   6.343   4.802
21208SOL    HW265522   4.565   6.325   4.862
21209SOL     OW65523   0.646   3.375  12.541
21209SOL    HW165524   0.599   3.452  12.573
21209SOL    HW265525   0.649   3.386  12.446
21210SOL     OW65526  14.111   9.571   7.938
21210SOL    HW165527  14.065   9.488   7.955
21210SOL    HW265528  14.128   9.571   7.844
21211SOL     OW65529  10.314  14.640  14.031
21211SOL    HW165530  10.372  14.626  13.956
21211SOL    HW265531  10.231  14.600  14.006
21212SOL     OW65532  13.969   6.160   7.577
21212SOL    HW165533  13.979   6.250   7.608
21212SOL    HW265534  13.923   6.168   7.493
21213SOL     OW65535  14.235   5.342   6.664
21213SOL    HW165536  14.281   5.422   6.689
21213SOL    HW265537  14.219   5.351   6.571
21214SOL     OW65538   2.977  13.244   5.722
21214SOL    HW165539   2.947  13.331   5.696
21214SOL    HW265540   2.953  13.187   5.649
21215SOL     OW65541  12.862  13.796   5.775
21215SOL    HW165542  12.783  13.833   5.814
21215SOL    HW265543  12.909  13.872   5.739
21216SOL     OW65544   0.871   0.821   5.619
21216SOL    HW165545   0.783   0.843   5.590
21216SOL    HW265546   0.860   0.745   5.676
21217SOL     OW65547  14.434   3.622   5.551
21217SOL    HW165548  14.468   3.657   5.633
21217SOL    HW265549  14.348   3.586   5.573
21218SOL     OW65550   9.228  14.018   7.416
21218SOL    HW165551   9.223  14.060   7.330
21218SOL    HW265552   9.266  14.085   7.473
21219SOL     OW65553   8.095   8.716   5.609
21219SOL    HW165554   8.039   8.698   5.684
21219SOL    HW265555   8.053   8.790   5.565
21220SOL     OW65556  14.198   3.958  10.776
21220SOL    HW165557  14.261   4.027  10.794
21220SOL    HW265558  14.193   3.908  10.857
21221SOL     OW65559   3.002   1.542   8.298
21221SOL    HW165560   2.933   1.511   8.356
21221SOL    HW265561   2.956   1.572   8.219
21222SOL     OW65562   7.869  14.043  10.228
21222SOL    HW165563   7.823  14.122  10.257
21222SOL    HW265564   7.947  14.039  10.284
21223SOL     OW65565   4.119  10.301  12.507
21223SOL    HW165566   4.214  10.296  12.512
21223SOL    HW265567   4.091  10.325  12.596
21224SOL     OW65568   7.927  12.578   9.820
21224SOL    HW165569   7.885  12.599   9.903
21224SOL    HW265570   7.858  12.587   9.755
21225SOL     OW65571   0.304   0.727   5.925
21225SOL    HW165572   0.313   0.762   6.013
21225SOL    HW265573   0.214   0.748   5.900
21226SOL     OW65574  13.549   7.683  14.260
21226SOL    HW165575  13.474   7.639  14.300
21226SOL    HW265576  13.617   7.680  14.326
21227SOL     OW65577   0.608   3.281   9.335
21227SOL    HW165578   0.633   3.309   9.423
21227SOL    HW265579   0.534   3.337   9.312
21228SOL     OW65580   0.391  10.360  14.425
21228SOL    HW165581   0.311  10.385  14.471
21228SOL    HW265582   0.460  10.363  14.492
21229SOL     OW65583   1.057  11.198  13.693
21229SOL    HW165584   0.964  11.188  13.674
21229SOL    HW265585   1.060  11.227  13.784
21230SOL     OW65586  14.186   7.045  13.099
21230SOL    HW165587  14.126   7.120  13.091
21230SOL    HW265588  14.266   7.074  13.056
21231SOL     OW65589   8.413   6.040   4.215
21231SOL    HW165590   8.394   6.133   4.200
21231SOL    HW265591   8.352   6.015   4.285
21232SOL     OW65592   2.753   2.723   1.510
21232SOL    HW165593   2.673   2.762   1.473
21232SOL    HW265594   2.773   2.651   1.450
21233SOL     OW65595   0.216  12.107  12.515
21233SOL    HW165596   0.229  12.111  12.420
21233SOL    HW265597   0.127  12.074  12.525
21234SOL     OW65598   5.737  12.789   8.818
21234SOL    HW165599   5.742  12.799   8.723
21234SOL    HW265600   5.643  12.787   8.837
21235SOL     OW65601   6.869   9.634   9.858
21235SOL    HW165602   6.802   9.575   9.892
21235SOL    HW265603   6.820   9.710   9.828
21236SOL     OW65604  11.734   5.454   2.713
21236SOL    HW165605  11.711   5.381   2.771
21236SOL    HW265606  11.749   5.528   2.773
21237SOL     OW65607   9.346   5.639   6.925
21237SOL    HW165608   9.260   5.604   6.905
21237SOL    HW265609   9.336   5.680   7.011
21238SOL     OW65610   8.948   0.762  14.649
21238SOL    HW165611   8.893   0.738  14.574
21238SOL    HW265612   9.036   0.768  14.613
21239SOL     OW65613  11.218  13.427   9.121
21239SOL    HW165614  11.169  13.389   9.194
21239SOL    HW265615  11.154  13.437   9.051
21240SOL     OW65616   9.624  14.479   2.740
21240SOL    HW165617   9.672  14.396   2.736
21240SOL    HW265618   9.570  14.481   2.661
21241SOL     OW65619  14.744   4.378   0.649
21241SOL    HW165620  14.819   4.333   0.610
21241SOL    HW265621  14.776   4.466   0.668
21242SOL     OW65622   9.724   9.067  10.209
21242SOL    HW165623   9.685   9.133  10.266
21242SOL    HW265624   9.650   9.028  10.162
21243SOL     OW65625   5.196  10.394   9.184
21243SOL    HW165626   5.137  10.385   9.110
21243SOL    HW265627   5.144  10.369   9.260
21244SOL     OW65628   2.328   0.440   7.832
21244SOL    HW165629   2.287   0.369   7.783
21244SOL    HW265630   2.356   0.503   7.765
21245SOL     OW65631  10.690   4.064   9.295
21245SOL    HW165632  10.645   3.980   9.290
21245SOL    HW265633  10.657   4.105   9.375
21246SOL     OW65634   4.805  12.048  13.505
21246SOL    HW165635   4.885  12.094  13.531
21246SOL    HW265636   4.734  12.102  13.539
21247SOL     OW65637  14.796   9.192   4.287
21247SOL    HW165638  14.847   9.207   4.207
21247SOL    HW265639  14.710   9.164   4.256
21248SOL     OW65640  14.706   0.254   1.307
21248SOL    HW165641  14.643   0.300   1.252
21248SOL    HW265642  14.784   0.310   1.306
21249SOL     OW65643  12.256   6.583   1.443
21249SOL    HW165644  12.301   6.514   1.393
21249SOL    HW265645  12.279   6.664   1.397
21250SOL     OW65646   0.038  12.453   6.142
21250SOL    HW165647   0.094  12.378   6.166
21250SOL    HW265648  14.841  12.413   6.106
21251SOL     OW65649   1.869  13.259  11.649
21251SOL    HW165650   1.784  13.240  11.689
21251SOL    HW265651   1.920  13.179  11.661
21252SOL     OW65652  12.023   5.418   6.736
21252SOL    HW165653  11.970   5.418   6.816
21252SOL    HW265654  11.964   5.385   6.668
21253SOL     OW65655  11.325   6.553  13.823
21253SOL    HW165656  11.323   6.643  13.853
21253SOL    HW265657  11.240   6.517  13.848
21254SOL     OW65658   3.706   6.367   6.315
21254SOL    HW165659   3.633   6.363   6.254
21254SOL    HW265660   3.676   6.426   6.384
21255SOL     OW65661   8.466   6.936  11.643
21255SOL    HW165662   8.436   6.962  11.555
21255SOL    HW265663   8.528   7.005  11.668
21256SOL     OW65664  12.523  12.173  12.557
21256SOL    HW165665  12.462  12.112  12.515
21256SOL    HW265666  12.564  12.122  12.627
21257SOL     OW65667  13.898   3.003   6.411
21257SOL    HW165668  13.845   3.076   6.442
21257SOL    HW265669  13.835   2.943   6.370
21258SOL     OW65670  11.686   6.918  13.967
21258SOL    HW165671  11.709   7.008  13.989
21258SOL    HW265672  11.766   6.868  13.984
21259SOL     OW65673   3.261  13.735   1.108
21259SOL    HW165674   3.268  13.804   1.041
21259SOL    HW265675   3.198  13.673   1.073
21260SOL     OW65676   8.024   0.041   0.299
21260SOL    HW165677   8.036  14.830   0.280
21260SOL    HW265678   8.113   0.075   0.308
21261SOL     OW65679  12.429   8.414   3.915
21261SOL    HW165680  12.378   8.404   3.834
21261SOL    HW265681  12.364   8.417   3.985
21262SOL     OW65682   8.456  10.054  11.443
21262SOL    HW165683   8.539  10.092  11.472
21262SOL    HW265684   8.470  10.032  11.351
21263SOL     OW65685   9.865   6.573  13.716
21263SOL    HW165686   9.900   6.659  13.691
21263SOL    HW265687   9.786   6.593  13.767
21264SOL     OW65688   8.340   9.474   4.138
21264SOL    HW165689   8.275   9.422   4.091
21264SOL    HW265690   8.320   9.459   4.230
21265SOL     OW65691   7.122   0.977   0.615
21265SOL    HW165692   7.043   0.982   0.668
21265SOL    HW265693   7.097   1.013   0.530
21266SOL     OW65694   3.837  11.419   8.141
21266SOL    HW165695   3.917  11.471   8.147
21266SOL    HW265696   3.790  11.458   8.067
21267SOL     OW65697   8.034   4.473  12.190
21267SOL    HW165698   8.094   4.544  12.168
21267SOL    HW265699   8.091   4.397  12.205
21268SOL     OW65700   0.545   4.268   0.046
21268SOL    HW165701   0.501   4.208  14.868
21268SOL    HW265702   0.527   4.233   0.133
21269SOL     OW65703   6.640   3.791   6.353
21269SOL    HW165704   6.571   3.820   6.294
21269SOL    HW265705   6.656   3.700   6.328
21270SOL     OW65706  13.288   2.748   6.666
21270SOL    HW165707  13.374   2.722   6.702
21270SOL    HW265708  13.225   2.717   6.732
21271SOL     OW65709   9.947   4.735   8.341
21271SOL    HW165710   9.948   4.650   8.296
21271SOL    HW265711   9.871   4.780   8.304
21272SOL     OW65712   5.277   1.791   9.973
21272SOL    HW165713   5.213   1.851   9.937
21272SOL    HW265714   5.300   1.733   9.900
21273SOL     OW65715   0.650   1.034   9.086
21273SOL    HW165716   0.716   0.972   9.115
21273SOL    HW265717   0.664   1.042   8.991
21274SOL     OW65718   9.470   2.245  12.711
21274SOL    HW165719   9.518   2.192  12.775
21274SOL    HW265720   9.493   2.207  12.626
21275SOL     OW65721   7.265   6.945   3.796
21275SOL    HW165722   7.213   6.967   3.718
21275SOL    HW265723   7.215   6.876   3.839
21276SOL     OW65724   3.701   7.563   0.084
21276SOL    HW165725   3.729   7.621   0.155
21276SOL    HW265726   3.686   7.478   0.127
21277SOL     OW65727   7.003   1.027   0.337
21277SOL    HW165728   6.919   1.047   0.378
21277SOL    HW265729   6.979   0.983   0.255
21278SOL     OW65730   6.098  14.736   3.627
21278SOL    HW165731   6.024  14.700   3.578
21278SOL    HW265732   6.121  14.668   3.690
21279SOL     OW65733   6.038  10.513   2.503
21279SOL    HW165734   6.007  10.445   2.563
21279SOL    HW265735   6.133  10.498   2.497
21280SOL     OW65736   9.147   2.117   0.523
21280SOL    HW165737   9.178   2.196   0.568
21280SOL    HW265738   9.062   2.142   0.487
21281SOL     OW65739   9.535  11.862  12.019
21281SOL    HW165740   9.517  11.770  11.996
21281SOL    HW265741   9.604  11.857  12.084
21282SOL     OW65742   1.876   2.264  11.016
21282SOL    HW165743   1.832   2.291  11.096
21282SOL    HW265744   1.927   2.187  11.041
21283SOL     OW65745  10.153   1.109   5.444
21283SOL    HW165746  10.153   1.127   5.539
21283SOL    HW265747  10.060   1.099   5.422
21284SOL     OW65748   3.065  12.342   7.637
21284SOL    HW165749   3.023  12.331   7.552
21284SOL    HW265750   3.157  12.355   7.616
21285SOL     OW65751   8.559  14.254  11.757
21285SOL    HW165752   8.507  14.229  11.680
21285SOL    HW265753   8.596  14.172  11.789
21286SOL     OW65754   6.157   1.424  13.937
21286SOL    HW165755   6.144   1.404  13.844
21286SOL    HW265756   6.070   1.448  13.969
21287SOL     OW65757   4.553   8.144  10.654
21287SOL    HW165758   4.515   8.184  10.576
21287SOL    HW265759   4.647   8.156  10.644
21288SOL     OW65760   3.295  10.085   0.823
21288SOL    HW165761   3.320  10.136   0.747
21288SOL    HW265762   3.283   9.996   0.789
21289SOL     OW65763  14.472   2.113   4.238
21289SOL    HW165764  14.540   2.170   4.272
21289SOL    HW265765  14.508   2.078   4.156
21290SOL     OW65766  10.905   2.468  14.825
21290SOL    HW165767  10.949   2.433   0.020
21290SOL    HW265768  10.916   2.563  14.832
21291SOL     OW65769   3.109   1.762   9.268
21291SOL    HW165770   3.065   1.756   9.183
21291SOL    HW265771   3.153   1.678   9.278
21292SOL     OW65772   2.156   5.069   6.876
21292SOL    HW165773   2.140   4.982   6.840
21292SOL    HW265774   2.094   5.076   6.949
21293SOL     OW65775   7.901   8.552   1.697
21293SOL    HW165776   7.811   8.572   1.719
21293SOL    HW265777   7.927   8.621   1.635
21294SOL     OW65778   6.738  10.810   9.221
21294SOL    HW165779   6.685  10.757   9.163
21294SOL    HW265780   6.825  10.811   9.180
21295SOL     OW65781  10.609  14.324   3.233
21295SOL    HW165782  10.617  14.231   3.253
21295SOL    HW265783  10.634  14.368   3.314
21296SOL     OW65784   2.118  12.138  12.877
21296SOL    HW165785   2.033  12.161  12.840
21296SOL    HW265786   2.146  12.061  12.828
21297SOL     OW65787   7.918   7.393   5.754
21297SOL    HW165788   7.852   7.430   5.696
21297SOL    HW265789   7.904   7.436   5.838
21298SOL     OW65790  14.518  12.799   3.251
21298SOL    HW165791  14.468  12.817   3.331
21298SOL    HW265792  14.455  12.811   3.180
21299SOL     OW65793   4.918   9.281  14.558
21299SOL    HW165794   5.006   9.300  14.527
21299SOL    HW265795   4.899   9.193  14.524
21300SOL     OW65796   8.316  14.560  14.061
21300SOL    HW165797   8.251  14.548  13.991
21300SOL    HW265798   8.352  14.472  14.075
21301SOL     OW65799   9.651   9.545  10.008
21301SOL    HW165800   9.566   9.537  10.051
21301SOL    HW265801   9.699   9.467  10.035
21302SOL     OW65802   7.202  10.320  12.729
21302SOL    HW165803   7.208  10.226  12.744
21302SOL    HW265804   7.113  10.334  12.697
21303SOL     OW65805   9.370   3.579   4.839
21303SOL    HW165806   9.397   3.504   4.785
21303SOL    HW265807   9.355   3.650   4.776
21304SOL     OW65808   9.093   7.455   1.164
21304SOL    HW165809   9.143   7.498   1.234
21304SOL    HW265810   9.105   7.362   1.180
21305SOL     OW65811   9.924   8.963   8.498
21305SOL    HW165812   9.855   9.022   8.466
21305SOL    HW265813   9.887   8.924   8.577
21306SOL     OW65814   7.433   4.005   4.388
21306SOL    HW165815   7.441   4.061   4.310
21306SOL    HW265816   7.450   3.916   4.355
21307SOL     OW65817   8.092  14.348   8.537
21307SOL    HW165818   8.135  14.265   8.556
21307SOL    HW265819   8.112  14.403   8.613
21308SOL     OW65820   4.765  12.654   2.220
21308SOL    HW165821   4.781  12.739   2.262
21308SOL    HW265822   4.853  12.620   2.200
21309SOL     OW65823  11.841   4.674   0.289
21309SOL    HW165824  11.773   4.630   0.237
21309SOL    HW265825  11.830   4.638   0.377
21310SOL     OW65826   9.585  10.551  12.800
21310SOL    HW165827   9.570  10.485  12.868
21310SOL    HW265828   9.541  10.629  12.833
21311SOL     OW65829  10.144   5.568   0.564
21311SOL    HW165830  10.123   5.475   0.550
21311SOL    HW265831  10.204   5.590   0.493
21312SOL     OW65832   4.973   2.948   8.119
21312SOL    HW165833   5.066   2.955   8.137
21312SOL    HW265834   4.930   2.961   8.204
21313SOL     OW65835   9.707  10.580   9.667
21313SOL    HW165836   9.729  10.517   9.736
21313SOL    HW265837   9.673  10.656   9.714
21314SOL     OW65838   7.751   8.343  12.417
21314SOL    HW165839   7.748   8.437  12.435
21314SOL    HW265840   7.665   8.322  12.381
21315SOL     OW65841   2.579   8.280   0.311
21315SOL    HW165842   2.505   8.310   0.258
21315SOL    HW265843   2.573   8.185   0.308
21316SOL     OW65844   5.488   0.089  13.008
21316SOL    HW165845   5.572   0.052  12.980
21316SOL    HW265846   5.423   0.042  12.955
21317SOL     OW65847  10.281   7.340  10.390
21317SOL    HW165848  10.262   7.258  10.434
21317SOL    HW265849  10.200   7.390  10.396
21318SOL     OW65850   4.839  12.770   7.543
21318SOL    HW165851   4.837  12.841   7.608
21318SOL    HW265852   4.747  12.754   7.521
21319SOL     OW65853  12.194   7.263  10.161
21319SOL    HW165854  12.207   7.348  10.204
21319SOL    HW265855  12.181   7.202  10.234
21320SOL     OW65856  10.713   9.775   9.459
21320SOL    HW165857  10.700   9.779   9.554
21320SOL    HW265858  10.628   9.751   9.424
21321SOL     OW65859   0.014   9.656   3.954
21321SOL    HW165860  14.837   9.582   3.971
21321SOL    HW265861   0.041   9.685   4.041
21322SOL     OW65862  11.069   9.193   7.299
21322SOL    HW165863  11.148   9.196   7.246
21322SOL    HW265864  11.017   9.122   7.260
21323SOL     OW65865   9.742   1.748   5.924
21323SOL    HW165866   9.759   1.663   5.965
21323SOL    HW265867   9.675   1.731   5.859
21324SOL     OW65868  11.084   6.834   4.464
21324SOL    HW165869  11.147   6.796   4.402
21324SOL    HW265870  11.106   6.927   4.466
21325SOL     OW65871   6.064   0.925  14.262
21325SOL    HW165872   6.124   0.999  14.250
21325SOL    HW265873   6.119   0.854  14.293
21326SOL     OW65874   9.139  10.911   9.906
21326SOL    HW165875   9.170  10.822   9.886
21326SOL    HW265876   9.068  10.897   9.969
21327SOL     OW65877  10.435   1.468  10.434
21327SOL    HW165878  10.425   1.522  10.512
21327SOL    HW265879  10.529   1.456  10.424
21328SOL     OW65880   2.633   5.765  12.505
21328SOL    HW165881   2.586   5.845  12.528
21328SOL    HW265882   2.569   5.711  12.459
21329SOL     OW65883   4.347   2.456   4.851
21329SOL    HW165884   4.355   2.513   4.775
21329SOL    HW265885   4.393   2.501   4.921
21330SOL     OW65886  12.546   6.458   3.103
21330SOL    HW165887  12.592   6.518   3.044
21330SOL    HW265888  12.456   6.459   3.073
21331SOL     OW65889   4.906   4.610   9.588
21331SOL    HW165890   4.952   4.544   9.536
21331SOL    HW265891   4.825   4.567   9.614
21332SOL     OW65892   0.359   0.430   3.970
21332SOL    HW165893   0.366   0.515   3.928
21332SOL    HW265894   0.345   0.449   4.063
21333SOL     OW65895   0.543   8.596   6.338
21333SOL    HW165896   0.485   8.633   6.271
21333SOL    HW265897   0.502   8.619   6.421
21334SOL     OW65898  10.650   5.109  12.180
21334SOL    HW165899  10.647   5.119  12.275
21334SOL    HW265900  10.743   5.114  12.158
21335SOL     OW65901   4.328   2.158  10.993
21335SOL    HW165902   4.291   2.126  11.075
21335SOL    HW265903   4.252   2.179  10.939
21336SOL     OW65904   7.613  13.760   5.753
21336SOL    HW165905   7.625  13.828   5.687
21336SOL    HW265906   7.638  13.801   5.835
21337SOL     OW65907   6.480  10.417  10.323
21337SOL    HW165908   6.570  10.430  10.293
21337SOL    HW265909   6.437  10.370  10.252
21338SOL     OW65910  12.543  10.855  12.921
21338SOL    HW165911  12.482  10.829  12.852
21338SOL    HW265912  12.628  10.822  12.891
21339SOL     OW65913   4.308   1.380   0.527
21339SOL    HW165914   4.218   1.391   0.497
21339SOL    HW265915   4.346   1.316   0.467
21340SOL     OW65916   2.247  12.723   8.550
21340SOL    HW165917   2.239  12.817   8.534
21340SOL    HW265918   2.156  12.692   8.556
21341SOL     OW65919   6.548  10.806  13.500
21341SOL    HW165920   6.572  10.725  13.455
21341SOL    HW265921   6.613  10.870  13.470
21342SOL     OW65922  13.098  12.070  12.447
21342SOL    HW165923  13.077  12.160  12.424
21342SOL    HW265924  13.181  12.052  12.404
21343SOL     OW65925   6.552   4.237   4.853
21343SOL    HW165926   6.628   4.180   4.868
21343SOL    HW265927   6.560   4.305   4.920
21344SOL     OW65928   3.674   0.097   0.911
21344SOL    HW165929   3.626   0.095   0.828
21344SOL    HW265930   3.732   0.020   0.906
21345SOL     OW65931  12.208   9.514   1.843
21345SOL    HW165932  12.276   9.453   1.872
21345SOL    HW265933  12.177   9.555   1.923
21346SOL     OW65934   0.942   6.342   1.158
21346SOL    HW165935   0.875   6.286   1.197
21346SOL    HW265936   1.024   6.314   1.200
21347SOL     OW65937  11.902   7.586   6.639
21347SOL    HW165938  11.871   7.588   6.730
21347SOL    HW265939  11.862   7.662   6.598
21348SOL     OW65940   8.941   8.173  11.075
21348SOL    HW165941   8.864   8.123  11.047
21348SOL    HW265942   8.939   8.168  11.171
21349SOL     OW65943  10.962   4.029   9.249
21349SOL    HW165944  10.993   3.981   9.325
21349SOL    HW265945  10.884   4.075   9.280
21350SOL     OW65946   4.932   7.217   2.605
21350SOL    HW165947   4.903   7.259   2.524
21350SOL    HW265948   4.908   7.125   2.593
21351SOL     OW65949   5.232   6.817   6.919
21351SOL    HW165950   5.218   6.912   6.911
21351SOL    HW265951   5.327   6.808   6.928
21352SOL     OW65952   1.492   5.352   6.983
21352SOL    HW165953   1.420   5.290   6.981
21352SOL    HW265954   1.493   5.391   6.895
21353SOL     OW65955  11.670   7.753   2.681
21353SOL    HW165956  11.631   7.678   2.635
21353SOL    HW265957  11.642   7.743   2.772
21354SOL     OW65958  11.314   7.073   9.578
21354SOL    HW165959  11.244   7.116   9.528
21354SOL    HW265960  11.394   7.098   9.532
21355SOL     OW65961   3.471   9.288   2.647
21355SOL    HW165962   3.453   9.322   2.735
21355SOL    HW265963   3.500   9.364   2.598
21356SOL     OW65964   6.179   6.473  11.473
21356SOL    HW165965   6.253   6.424  11.508
21356SOL    HW265966   6.172   6.444  11.382
21357SOL     OW65967  11.773   3.636  10.624
21357SOL    HW165968  11.755   3.726  10.653
21357SOL    HW265969  11.848   3.644  10.565
21358SOL     OW65970  12.868   1.928   2.377
21358SOL    HW165971  12.925   1.990   2.333
21358SOL    HW265972  12.789   1.925   2.324
21359SOL     OW65973  11.187  12.446   9.717
21359SOL    HW165974  11.160  12.376   9.657
21359SOL    HW265975  11.263  12.486   9.675
21360SOL     OW65976   2.194   1.817   9.443
21360SOL    HW165977   2.151   1.757   9.505
21360SOL    HW265978   2.198   1.768   9.361
21361SOL     OW65979   5.545   1.254  14.634
21361SOL    HW165980   5.579   1.306  14.706
21361SOL    HW265981   5.614   1.254  14.569
21362SOL     OW65982   3.795  11.085   8.381
21362SOL    HW165983   3.739  11.015   8.415
21362SOL    HW265984   3.734  11.157   8.364
21363SOL     OW65985  13.965  11.325  12.158
21363SOL    HW165986  13.895  11.389  12.143
21363SOL    HW265987  14.024  11.368  12.219
21364SOL     OW65988   1.697   6.493   4.052
21364SOL    HW165989   1.672   6.477   4.143
21364SOL    HW265990   1.663   6.581   4.034
21365SOL     OW65991   1.539   1.395   2.311
21365SOL    HW165992   1.575   1.447   2.239
21365SOL    HW265993   1.570   1.440   2.390
21366SOL     OW65994   3.769  11.858  11.118
21366SOL    HW165995   3.703  11.851  11.049
21366SOL    HW265996   3.748  11.785  11.177
21367SOL     OW65997   5.423  13.182  11.383
21367SOL    HW165998   5.436  13.217  11.295
21367SOL    HW265999   5.331  13.155  11.384
21368SOL     OW66000  13.088  13.147   8.552
21368SOL    HW166001  13.052  13.149   8.641
21368SOL    HW266002  13.027  13.199   8.500
21369SOL     OW66003  12.890  14.499   3.510
21369SOL    HW166004  12.840  14.545   3.577
21369SOL    HW266005  12.974  14.545   3.506
21370SOL     OW66006   5.809  12.958   3.808
21370SOL    HW166007   5.756  12.967   3.887
21370SOL    HW266008   5.897  12.984   3.835
21371SOL     OW66009   4.043   9.862   4.758
21371SOL    HW166010   3.969   9.832   4.705
21371SOL    HW266011   4.074   9.940   4.714
21372SOL     OW66012   5.070   4.995  10.465
21372SOL    HW166013   5.058   4.983  10.559
21372SOL    HW266014   5.070   5.090  10.452
21373SOL     OW66015  14.348   0.670   2.005
21373SOL    HW166016  14.278   0.735   2.008
21373SOL    HW266017  14.373   0.666   1.913
21374SOL     OW66018   6.578  11.044  10.894
21374SOL    HW166019   6.632  11.052  10.815
21374SOL    HW266020   6.608  10.964  10.936
21375SOL     OW66021   2.865  11.723   6.632
21375SOL    HW166022   2.908  11.741   6.715
21375SOL    HW266023   2.872  11.628   6.622
21376SOL     OW66024  13.662   6.325   1.016
21376SOL    HW166025  13.667   6.237   1.052
21376SOL    HW266026  13.654   6.382   1.092
21377SOL     OW66027   6.185  11.299   3.520
21377SOL    HW166028   6.126  11.223   3.514
21377SOL    HW266029   6.130  11.368   3.558
21378SOL     OW66030   2.687  11.881   2.665
21378SOL    HW166031   2.708  11.905   2.575
21378SOL    HW266032   2.695  11.785   2.666
21379SOL     OW66033   7.026  11.296  10.472
21379SOL    HW166034   7.085  11.307  10.397
21379SOL    HW266035   6.984  11.211  10.457
21380SOL     OW66036   8.115   5.541   2.638
21380SOL    HW166037   8.139   5.537   2.545
21380SOL    HW266038   8.197   5.524   2.685
21381SOL     OW66039  12.270   6.524   7.597
21381SOL    HW166040  12.272   6.544   7.504
21381SOL    HW266041  12.185   6.555   7.628
21382SOL     OW66042   4.618  11.403  11.402
21382SOL    HW166043   4.636  11.496  11.386
21382SOL    HW266044   4.523  11.400  11.417
21383SOL     OW66045   7.188  12.101   6.403
21383SOL    HW166046   7.195  12.077   6.311
21383SOL    HW266047   7.143  12.186   6.403
21384SOL     OW66048   6.935   9.159   0.574
21384SOL    HW166049   7.006   9.204   0.528
21384SOL    HW266050   6.917   9.214   0.651
21385SOL     OW66051   8.563   9.106   5.857
21385SOL    HW166052   8.620   9.168   5.905
21385SOL    HW266053   8.544   9.150   5.775
21386SOL     OW66054   8.934  12.341   5.341
21386SOL    HW166055   9.009  12.296   5.301
21386SOL    HW266056   8.959  12.433   5.342
21387SOL     OW66057   9.342   1.516   5.476
21387SOL    HW166058   9.263   1.560   5.445
21387SOL    HW266059   9.358   1.554   5.562
21388SOL     OW66060   9.319   3.363  10.755
21388SOL    HW166061   9.293   3.428  10.689
21388SOL    HW266062   9.299   3.404  10.839
21389SOL     OW66063   0.232   2.222  13.773
21389SOL    HW166064   0.210   2.133  13.744
21389SOL    HW266065   0.152   2.272  13.759
21390SOL     OW66066  11.796  10.315   9.547
21390SOL    HW166067  11.764  10.243   9.601
21390SOL    HW266068  11.780  10.286   9.457
21391SOL     OW66069   6.203   0.788   1.034
21391SOL    HW166070   6.155   0.859   0.991
21391SOL    HW266071   6.232   0.732   0.962
21392SOL     OW66072   0.864  12.060  12.665
21392SOL    HW166073   0.948  12.068  12.709
21392SOL    HW266074   0.806  12.020  12.730
21393SOL     OW66075   9.493   5.644   6.381
21393SOL    HW166076   9.583   5.629   6.411
21393SOL    HW266077   9.471   5.566   6.331
21394SOL     OW66078   9.156   1.679  13.350
21394SOL    HW166079   9.065   1.700  13.373
21394SOL    HW266080   9.161   1.584  13.356
21395SOL     OW66081  10.821  12.412  11.583
21395SOL    HW166082  10.895  12.454  11.627
21395SOL    HW266083  10.762  12.484  11.562
21396SOL     OW66084  12.625   1.275   1.980
21396SOL    HW166085  12.617   1.369   1.966
21396SOL    HW266086  12.692   1.266   2.048
21397SOL     OW66087  12.844   0.890   6.854
21397SOL    HW166088  12.840   0.803   6.814
21397SOL    HW266089  12.752   0.913   6.868
21398SOL     OW66090   4.916  13.050  12.031
21398SOL    HW166091   5.004  13.034  12.065
21398SOL    HW266092   4.901  12.980  11.968
21399SOL     OW66093  12.836   7.779   3.835
21399SOL    HW166094  12.835   7.700   3.889
21399SOL    HW266095  12.837   7.852   3.897
21400SOL     OW66096  11.833  10.096   7.689
21400SOL    HW166097  11.868  10.128   7.772
21400SOL    HW266098  11.756  10.151   7.672
21401SOL     OW66099   7.821  10.983   6.353
21401SOL    HW166100   7.810  11.038   6.275
21401SOL    HW266101   7.816  11.044   6.426
21402SOL     OW66102  13.326   3.005  12.736
21402SOL    HW166103  13.262   3.070  12.706
21402SOL    HW266104  13.411   3.048  12.723
21403SOL     OW66105   6.000   3.875   7.984
21403SOL    HW166106   6.016   3.932   7.910
21403SOL    HW266107   6.087   3.841   8.007
21404SOL     OW66108   5.317   4.145  11.379
21404SOL    HW166109   5.286   4.096  11.456
21404SOL    HW266110   5.239   4.155  11.325
21405SOL     OW66111  12.795   3.135   4.804
21405SOL    HW166112  12.866   3.166   4.860
21405SOL    HW266113  12.801   3.189   4.725
21406SOL     OW66114   7.195  11.196   4.873
21406SOL    HW166115   7.230  11.120   4.825
21406SOL    HW266116   7.270  11.228   4.924
21407SOL     OW66117  13.528   0.531  10.585
21407SOL    HW166118  13.524   0.459  10.522
21407SOL    HW266119  13.482   0.498  10.663
21408SOL     OW66120  11.592  11.084   2.654
21408SOL    HW166121  11.569  11.037   2.734
21408SOL    HW266122  11.540  11.042   2.586
21409SOL     OW66123   8.609  14.640  14.782
21409SOL    HW166124   8.636  14.587  14.707
21409SOL    HW266125   8.678  14.625  14.847
21410SOL     OW66126  11.334   3.851  10.543
21410SOL    HW166127  11.411   3.898  10.576
21410SOL    HW266128  11.297   3.909  10.476
21411SOL     OW66129   7.186   3.447  11.747
21411SOL    HW166130   7.166   3.354  11.746
21411SOL    HW266131   7.260   3.455  11.808
21412SOL     OW66132   3.196  14.524   9.137
21412SOL    HW166133   3.250  14.516   9.216
21412SOL    HW266134   3.253  14.568   9.074
21413SOL     OW66135  13.189  11.377   3.305
21413SOL    HW166136  13.147  11.418   3.230
21413SOL    HW266137  13.283  11.381   3.285
21414SOL     OW66138   4.322   9.570   3.344
21414SOL    HW166139   4.315   9.571   3.248
21414SOL    HW266140   4.232   9.581   3.374
21415SOL     OW66141   6.059   5.482   8.926
21415SOL    HW166142   6.034   5.429   9.002
21415SOL    HW266143   6.118   5.548   8.962
21416SOL     OW66144  14.221   1.501  14.269
21416SOL    HW166145  14.290   1.435  14.277
21416SOL    HW266146  14.152   1.458  14.220
21417SOL     OW66147   8.411   3.624  14.294
21417SOL    HW166148   8.410   3.712  14.332
21417SOL    HW266149   8.479   3.578  14.343
21418SOL     OW66150  11.747   2.127  11.737
21418SOL    HW166151  11.830   2.148  11.780
21418SOL    HW266152  11.750   2.175  11.655
21419SOL     OW66153  13.810   1.124  12.556
21419SOL    HW166154  13.853   1.182  12.493
21419SOL    HW266155  13.854   1.141  12.639
21420SOL     OW66156  10.448   8.571  11.620
21420SOL    HW166157  10.395   8.643  11.587
21420SOL    HW266158  10.390   8.495  11.614
21421SOL     OW66159   6.153  10.529   3.315
21421SOL    HW166160   6.201  10.584   3.375
21421SOL    HW266161   6.117  10.459   3.369
21422SOL     OW66162   0.545   6.005  11.230
21422SOL    HW166163   0.479   5.937  11.245
21422SOL    HW266164   0.625   5.969  11.270
21423SOL     OW66165   6.126   2.917   3.420
21423SOL    HW166166   6.084   2.996   3.388
21423SOL    HW266167   6.144   2.865   3.342
21424SOL     OW66168  11.473   4.449   4.936
21424SOL    HW166169  11.548   4.391   4.931
21424SOL    HW266170  11.427   4.437   4.853
21425SOL     OW66171   3.954   8.585   9.895
21425SOL    HW166172   4.001   8.583   9.812
21425SOL    HW266173   4.011   8.539   9.957
21426SOL     OW66174   5.626   0.200  10.981
21426SOL    HW166175   5.634   0.269  10.916
21426SOL    HW266176   5.682   0.229  11.053
21427SOL     OW66177   5.214   0.051  10.806
21427SOL    HW166178   5.266   0.026  10.882
21427SOL    HW266179   5.264   0.120  10.764
21428SOL     OW66180   3.434  10.019   9.116
21428SOL    HW166181   3.458   9.998   9.206
21428SOL    HW266182   3.384  10.100   9.122
21429SOL     OW66183   6.603   8.489  12.353
21429SOL    HW166184   6.692   8.501  12.387
21429SOL    HW266185   6.588   8.566  12.298
21430SOL     OW66186   8.823   7.832  12.426
21430SOL    HW166187   8.768   7.900  12.464
21430SOL    HW266188   8.779   7.750  12.448
21431SOL     OW66189   5.817   3.805   0.563
21431SOL    HW166190   5.795   3.789   0.471
21431SOL    HW266191   5.870   3.730   0.588
21432SOL     OW66192   2.025   2.564   3.113
21432SOL    HW166193   2.024   2.629   3.042
21432SOL    HW266194   1.972   2.492   3.080
21433SOL     OW66195  11.409  12.199   7.468
21433SOL    HW166196  11.435  12.212   7.376
21433SOL    HW266197  11.319  12.167   7.463
21434SOL     OW66198   7.782   3.181  11.794
21434SOL    HW166199   7.832   3.099  11.790
21434SOL    HW266200   7.842   3.243  11.835
21435SOL     OW66201  13.861   0.334   0.308
21435SOL    HW166202  13.884   0.391   0.234
21435SOL    HW266203  13.777   0.296   0.284
21436SOL     OW66204  10.922   6.568  11.440
21436SOL    HW166205  10.915   6.540  11.349
21436SOL    HW266206  10.987   6.510  11.478
21437SOL     OW66207  11.038   8.893  12.290
21437SOL    HW166208  10.979   8.832  12.244
21437SOL    HW266209  11.125   8.871  12.257
21438SOL     OW66210   5.291  12.622  12.319
21438SOL    HW166211   5.356  12.624  12.389
21438SOL    HW266212   5.208  12.638  12.363
21439SOL     OW66213  12.638   6.324   9.285
21439SOL    HW166214  12.550   6.287   9.287
21439SOL    HW266215  12.637   6.390   9.354
21440SOL     OW66216   2.384  10.313   4.121
21440SOL    HW166217   2.291  10.296   4.139
21440SOL    HW266218   2.430  10.274   4.196
21441SOL     OW66219  14.220   8.411   0.503
21441SOL    HW166220  14.255   8.363   0.427
21441SOL    HW266221  14.200   8.343   0.567
21442SOL     OW66222   8.367  13.835   7.709
21442SOL    HW166223   8.382  13.816   7.801
21442SOL    HW266224   8.451  13.816   7.666
21443SOL     OW66225   1.519  10.906   6.691
21443SOL    HW166226   1.509  10.997   6.664
21443SOL    HW266227   1.613  10.895   6.705
21444SOL     OW66228  10.590   9.653   1.134
21444SOL    HW166229  10.590   9.740   1.095
21444SOL    HW266230  10.539   9.662   1.214
21445SOL     OW66231   8.202   4.425   0.083
21445SOL    HW166232   8.120   4.428   0.132
21445SOL    HW266233   8.175   4.413  14.874
21446SOL     OW66234  11.428   3.389   9.024
21446SOL    HW166235  11.344   3.430   9.002
21446SOL    HW266236  11.493   3.446   8.983
21447SOL     OW66237   0.290   6.306   8.784
21447SOL    HW166238   0.281   6.295   8.690
21447SOL    HW266239   0.202   6.291   8.819
21448SOL     OW66240  13.009   2.207   0.072
21448SOL    HW166241  13.089   2.186   0.121
21448SOL    HW266242  13.037   2.271   0.006
21449SOL     OW66243   2.065   8.125   2.304
21449SOL    HW166244   1.972   8.120   2.327
21449SOL    HW266245   2.097   8.202   2.351
21450SOL     OW66246   9.519  14.077  12.076
21450SOL    HW166247   9.539  14.032  12.158
21450SOL    HW266248   9.573  14.156  12.078
21451SOL     OW66249  12.146   2.265   2.818
21451SOL    HW166250  12.154   2.338   2.879
21451SOL    HW266251  12.143   2.306   2.731
21452SOL     OW66252  13.327   0.823  14.494
21452SOL    HW166253  13.288   0.856  14.413
21452SOL    HW266254  13.294   0.733  14.502
21453SOL     OW66255  13.508   5.118  14.590
21453SOL    HW166256  13.570   5.180  14.552
21453SOL    HW266257  13.441   5.106  14.522
21454SOL     OW66258   6.072   5.715   3.278
21454SOL    HW166259   6.020   5.682   3.205
21454SOL    HW266260   6.160   5.680   3.263
21455SOL     OW66261   6.709   5.099   3.628
21455SOL    HW166262   6.738   5.072   3.715
21455SOL    HW266263   6.775   5.163   3.599
21456SOL     OW66264   8.043  12.781   9.515
21456SOL    HW166265   8.134  12.760   9.494
21456SOL    HW266266   7.994  12.703   9.491
21457SOL     OW66267   3.226   7.299   4.822
21457SOL    HW166268   3.150   7.265   4.774
21457SOL    HW266269   3.275   7.220   4.849
21458SOL     OW66270  10.415   5.060   6.948
21458SOL    HW166271  10.363   4.984   6.922
21458SOL    HW266272  10.379   5.132   6.896
21459SOL     OW66273   7.445  12.321  12.142
21459SOL    HW166274   7.482  12.409  12.156
21459SOL    HW266275   7.473  12.297  12.054
21460SOL     OW66276   3.646   1.867   0.362
21460SOL    HW166277   3.658   1.948   0.412
21460SOL    HW266278   3.734   1.848   0.328
21461SOL     OW66279   1.868  13.443   6.187
21461SOL    HW166280   1.937  13.492   6.143
21461SOL    HW266281   1.796  13.441   6.124
21462SOL     OW66282   5.443  14.502  13.611
21462SOL    HW166283   5.437  14.541  13.698
21462SOL    HW266284   5.531  14.525  13.581
21463SOL     OW66285  11.692  14.872  14.353
21463SOL    HW166286  11.624  14.806  14.359
21463SOL    HW266287  11.656   0.056  14.293
21464SOL     OW66288  13.318  12.738   8.758
21464SOL    HW166289  13.238  12.696   8.791
21464SOL    HW266290  13.386  12.711   8.820
21465SOL     OW66291   9.790  12.580  14.036
21465SOL    HW166292   9.739  12.520  14.091
21465SOL    HW266293   9.769  12.667  14.071
21466SOL     OW66294   9.045   2.823   2.493
21466SOL    HW166295   9.125   2.868   2.465
21466SOL    HW266296   9.068   2.730   2.490
21467SOL     OW66297   6.618   9.504   0.109
21467SOL    HW166298   6.704   9.545   0.107
21467SOL    HW266299   6.557   9.578   0.098
21468SOL     OW66300   3.898   2.227   1.266
21468SOL    HW166301   3.831   2.279   1.311
21468SOL    HW266302   3.943   2.180   1.336
21469SOL     OW66303   6.227   1.164   6.454
21469SOL    HW166304   6.318   1.145   6.434
21469SOL    HW266305   6.215   1.256   6.430
21470SOL     OW66306   8.878  10.546  14.722
21470SOL    HW166307   8.857  10.464  14.766
21470SOL    HW266308   8.920  10.600  14.790
21471SOL     OW66309   6.184   1.378  14.252
21471SOL    HW166310   6.124   1.404  14.322
21471SOL    HW266311   6.223   1.459  14.221
21472SOL     OW66312   3.663  14.423   9.766
21472SOL    HW166313   3.666  14.341   9.815
21472SOL    HW266314   3.662  14.395   9.674
21473SOL     OW66315   6.904  12.662   7.495
21473SOL    HW166316   6.975  12.688   7.555
21473SOL    HW266317   6.854  12.597   7.544
21474SOL     OW66318  11.014   4.065   4.451
21474SOL    HW166319  11.012   4.083   4.357
21474SOL    HW266320  10.943   4.118   4.487
21475SOL     OW66321   7.038  14.322   2.024
21475SOL    HW166322   6.971  14.386   1.998
21475SOL    HW266323   6.995  14.267   2.089
21476SOL     OW66324   9.605   4.539  11.077
21476SOL    HW166325   9.664   4.469  11.104
21476SOL    HW266326   9.567   4.572  11.159
21477SOL     OW66327   2.982  13.868   1.032
21477SOL    HW166328   2.934  13.804   1.085
21477SOL    HW266329   3.027  13.923   1.096
21478SOL     OW66330   5.252  13.392   9.162
21478SOL    HW166331   5.294  13.307   9.174
21478SOL    HW266332   5.160  13.371   9.145
21479SOL     OW66333  13.947  11.176   2.898
21479SOL    HW166334  13.975  11.242   2.960
21479SOL    HW266335  13.873  11.216   2.852
21480SOL     OW66336  12.483   9.828  10.757
21480SOL    HW166337  12.489   9.749  10.702
21480SOL    HW266338  12.524   9.802  10.839
21481SOL     OW66339  12.632  12.762  12.598
21481SOL    HW166340  12.579  12.796  12.526
21481SOL    HW266341  12.681  12.690  12.560
21482SOL     OW66342   0.265   3.570   5.645
21482SOL    HW166343   0.256   3.498   5.707
21482SOL    HW266344   0.223   3.538   5.565
21483SOL     OW66345   2.435   9.536   7.961
21483SOL    HW166346   2.519   9.573   7.988
21483SOL    HW266347   2.375   9.559   8.032
21484SOL     OW66348  10.156   7.071  14.030
21484SOL    HW166349  10.183   6.980  14.038
21484SOL    HW266350  10.205   7.104  13.954
21485SOL     OW66351  11.140   5.257   1.251
21485SOL    HW166352  11.214   5.282   1.196
21485SOL    HW266353  11.096   5.188   1.201
21486SOL     OW66354   5.090   6.217   1.489
21486SOL    HW166355   5.177   6.249   1.468
21486SOL    HW266356   5.030   6.278   1.445
21487SOL     OW66357  12.235   0.147  12.901
21487SOL    HW166358  12.143   0.174  12.895
21487SOL    HW266359  12.245   0.120  12.993
21488SOL     OW66360  12.611   5.616  11.690
21488SOL    HW166361  12.677   5.581  11.750
21488SOL    HW266362  12.661   5.639  11.611
21489SOL     OW66363   4.485  11.770   7.640
21489SOL    HW166364   4.465  11.847   7.693
21489SOL    HW266365   4.548  11.802   7.575
21490SOL     OW66366   1.041  10.290  10.432
21490SOL    HW166367   0.952  10.255  10.424
21490SOL    HW266368   1.088  10.254  10.357
21491SOL     OW66369   0.339   4.669   2.787
21491SOL    HW166370   0.340   4.750   2.737
21491SOL    HW266371   0.330   4.696   2.878
21492SOL     OW66372  13.827   8.369  10.609
21492SOL    HW166373  13.915   8.390  10.641
21492SOL    HW266374  13.783   8.328  10.683
21493SOL     OW66375   8.603   1.981   2.739
21493SOL    HW166376   8.611   1.962   2.832
21493SOL    HW266377   8.509   1.989   2.724
21494SOL     OW66378   1.631   3.804   6.312
21494SOL    HW166379   1.661   3.771   6.228
21494SOL    HW266380   1.541   3.833   6.296
21495SOL     OW66381   1.030   0.020  10.998
21495SOL    HW166382   1.049   0.098  11.051
21495SOL    HW266383   1.008   0.054  10.912
21496SOL     OW66384  12.827  10.805  11.122
21496SOL    HW166385  12.856  10.892  11.150
21496SOL    HW266386  12.855  10.798  11.031
21497SOL     OW66387   4.671   0.430   0.877
21497SOL    HW166388   4.692   0.339   0.856
21497SOL    HW266389   4.656   0.430   0.971
21498SOL     OW66390   5.669  13.141   8.289
21498SOL    HW166391   5.658  13.099   8.375
21498SOL    HW266392   5.764  13.154   8.281
21499SOL     OW66393  14.208   7.747   1.308
21499SOL    HW166394  14.125   7.795   1.305
21499SOL    HW266395  14.216   7.708   1.221
21500SOL     OW66396   9.338   5.890   9.045
21500SOL    HW166397   9.320   5.919   9.134
21500SOL    HW266398   9.412   5.830   9.054
21501SOL     OW66399  13.797  11.675   6.351
21501SOL    HW166400  13.702  11.674   6.358
21501SOL    HW266401  13.825  11.605   6.410
21502SOL     OW66402  10.022   1.563  12.651
21502SOL    HW166403  10.007   1.507  12.727
21502SOL    HW266404   9.939   1.562  12.603
21503SOL     OW66405  12.719  14.668   3.046
21503SOL    HW166406  12.807  14.699   3.025
21503SOL    HW266407  12.730  14.616   3.125
21504SOL     OW66408   3.632   3.931  11.401
21504SOL    HW166409   3.574   3.944  11.326
21504SOL    HW266410   3.598   3.853  11.445
21505SOL     OW66411   4.066   3.853   9.333
21505SOL    HW166412   4.114   3.886   9.257
21505SOL    HW266413   4.134   3.836   9.399
21506SOL     OW66414   3.585   9.334   0.412
21506SOL    HW166415   3.561   9.425   0.395
21506SOL    HW266416   3.515   9.300   0.467
21507SOL     OW66417   6.431   3.329   8.453
21507SOL    HW166418   6.436   3.303   8.361
21507SOL    HW266419   6.426   3.424   8.451
21508SOL     OW66420   0.701   3.146   3.187
21508SOL    HW166421   0.656   3.171   3.268
21508SOL    HW266422   0.712   3.228   3.140
21509SOL     OW66423   4.960   4.862   5.896
21509SOL    HW166424   4.903   4.919   5.947
21509SOL    HW266425   5.043   4.910   5.890
21510SOL     OW66426  11.332  13.224   7.312
21510SOL    HW166427  11.394  13.297   7.315
21510SOL    HW266428  11.342  13.187   7.224
21511SOL     OW66429   5.148  11.122   8.503
21511SOL    HW166430   5.115  11.212   8.497
21511SOL    HW266431   5.103  11.085   8.579
21512SOL     OW66432   2.649   9.061   9.414
21512SOL    HW166433   2.726   9.119   9.412
21512SOL    HW266434   2.681   8.981   9.455
21513SOL     OW66435   3.669   5.031   2.661
21513SOL    HW166436   3.697   5.093   2.594
21513SOL    HW266437   3.574   5.028   2.652
21514SOL     OW66438   5.919   1.191   6.408
21514SOL    HW166439   5.975   1.205   6.332
21514SOL    HW266440   5.965   1.127   6.461
21515SOL     OW66441  10.410   1.385   1.478
21515SOL    HW166442  10.352   1.365   1.405
21515SOL    HW266443  10.380   1.329   1.550
21516SOL     OW66444  11.066  14.222  14.174
21516SOL    HW166445  11.118  14.176  14.108
21516SOL    HW266446  11.013  14.284  14.123
21517SOL     OW66447  12.024  10.212   9.216
21517SOL    HW166448  12.031  10.247   9.304
21517SOL    HW266449  12.102  10.245   9.171
21518SOL     OW66450   8.507   6.184   0.305
21518SOL    HW166451   8.436   6.226   0.353
21518SOL    HW266452   8.566   6.152   0.373
21519SOL     OW66453  14.272   0.465   5.793
21519SOL    HW166454  14.245   0.373   5.796
21519SOL    HW266455  14.273   0.487   5.700
21520SOL     OW66456   8.824  13.428   6.012
21520SOL    HW166457   8.801  13.492   6.079
21520SOL    HW266458   8.743  13.380   5.995
21521SOL     OW66459   1.729   8.962   1.904
21521SOL    HW166460   1.782   8.899   1.953
21521SOL    HW266461   1.792   9.014   1.855
21522SOL     OW66462   6.967   2.960   2.581
21522SOL    HW166463   6.879   2.958   2.620
21522SOL    HW266464   7.020   2.909   2.641
21523SOL     OW66465  11.872  13.699  13.452
21523SOL    HW166466  11.834  13.698  13.540
21523SOL    HW266467  11.966  13.691  13.466
21524SOL     OW66468   7.595   5.193   9.905
21524SOL    HW166469   7.623   5.285   9.914
21524SOL    HW266470   7.508   5.191   9.945
21525SOL     OW66471  10.884   4.665  10.427
21525SOL    HW166472  10.890   4.739  10.366
21525SOL    HW266473  10.948   4.602  10.395
21526SOL     OW66474  13.295   6.939   7.281
21526SOL    HW166475  13.232   6.918   7.350
21526SOL    HW266476  13.353   7.004   7.321
21527SOL     OW66477   5.632  12.733   7.659
21527SOL    HW166478   5.537  12.747   7.659
21527SOL    HW266479   5.659  12.752   7.749
21528SOL     OW66480  12.564  12.603   8.193
21528SOL    HW166481  12.638  12.624   8.136
21528SOL    HW266482  12.589  12.520   8.234
21529SOL     OW66483   6.519   7.888  10.549
21529SOL    HW166484   6.569   7.814  10.514
21529SOL    HW266485   6.583   7.938  10.600
21530SOL     OW66486   0.898   4.728   1.589
21530SOL    HW166487   0.939   4.813   1.576
21530SOL    HW266488   0.804   4.745   1.575
21531SOL     OW66489   5.364   5.308   5.120
21531SOL    HW166490   5.423   5.344   5.053
21531SOL    HW266491   5.291   5.370   5.123
21532SOL     OW66492  14.455   5.028   4.252
21532SOL    HW166493  14.432   4.942   4.287
21532SOL    HW266494  14.504   5.070   4.323
21533SOL     OW66495   5.896   3.602   7.990
21533SOL    HW166496   5.919   3.693   7.970
21533SOL    HW266497   5.964   3.573   8.051
21534SOL     OW66498  13.195   8.166  12.371
21534SOL    HW166499  13.284   8.201  12.369
21534SOL    HW266500  13.155   8.195  12.289
21535SOL     OW66501   9.693  14.339   3.040
21535SOL    HW166502   9.788  14.330   3.054
21535SOL    HW266503   9.661  14.249   3.033
21536SOL     OW66504  13.319   2.701  10.694
21536SOL    HW166505  13.239   2.735  10.735
21536SOL    HW266506  13.303   2.607  10.684
21537SOL     OW66507   9.259  13.064   7.054
21537SOL    HW166508   9.252  13.160   7.059
21537SOL    HW266509   9.352  13.048   7.041
21538SOL     OW66510   4.996   7.438  10.970
21538SOL    HW166511   5.079   7.479  10.994
21538SOL    HW266512   5.020   7.376  10.901
21539SOL     OW66513   3.608   2.081   3.551
21539SOL    HW166514   3.601   2.062   3.457
21539SOL    HW266515   3.546   2.021   3.592
21540SOL     OW66516   3.439  10.852   9.340
21540SOL    HW166517   3.490  10.786   9.387
21540SOL    HW266518   3.463  10.840   9.249
21541SOL     OW66519   3.078  11.413   9.208
21541SOL    HW166520   3.097  11.354   9.280
21541SOL    HW266521   3.074  11.357   9.130
21542SOL     OW66522  13.294   1.262  11.759
21542SOL    HW166523  13.207   1.303  11.752
21542SOL    HW266524  13.320   1.277  11.850
21543SOL     OW66525  11.546   0.576   0.132
21543SOL    HW166526  11.458   0.541   0.145
21543SOL    HW266527  11.540   0.629   0.052
21544SOL     OW66528   8.511   0.666   0.610
21544SOL    HW166529   8.540   0.739   0.555
21544SOL    HW266530   8.521   0.698   0.700
21545SOL     OW66531   3.830   7.645   1.342
21545SOL    HW166532   3.818   7.658   1.436
21545SOL    HW266533   3.884   7.718   1.313
21546SOL     OW66534   1.105  14.568   6.271
21546SOL    HW166535   1.148  14.613   6.344
21546SOL    HW266536   1.045  14.506   6.312
21547SOL     OW66537  13.504   3.281  12.318
21547SOL    HW166538  13.457   3.289  12.235
21547SOL    HW266539  13.563   3.356  12.319
21548SOL     OW66540   1.095   2.788   0.311
21548SOL    HW166541   1.135   2.771   0.226
21548SOL    HW266542   1.136   2.868   0.342
21549SOL     OW66543   1.115   3.181   2.633
21549SOL    HW166544   1.188   3.120   2.639
21549SOL    HW266545   1.153   3.267   2.650
21550SOL     OW66546   4.236   7.493   0.742
21550SOL    HW166547   4.207   7.436   0.814
21550SOL    HW266548   4.159   7.548   0.724
21551SOL     OW66549   9.992  13.254  14.828
21551SOL    HW166550  10.084  13.276  14.813
21551SOL    HW266551   9.992  13.161  14.848
21552SOL     OW66552   1.683   9.703  14.674
21552SOL    HW166553   1.624   9.632  14.700
21552SOL    HW266554   1.744   9.663  14.612
21553SOL     OW66555   8.714   8.731   8.914
21553SOL    HW166556   8.690   8.652   8.962
21553SOL    HW266557   8.784   8.771   8.966
21554SOL     OW66558  13.938   1.743   1.670
21554SOL    HW166559  13.908   1.779   1.753
21554SOL    HW266560  14.004   1.805   1.639
21555SOL     OW66561   2.238   3.599   0.032
21555SOL    HW166562   2.333   3.591   0.028
21555SOL    HW266563   2.207   3.514   0.063
21556SOL     OW66564   7.917   9.529   3.419
21556SOL    HW166565   7.927   9.584   3.342
21556SOL    HW266566   7.823   9.510   3.423
21557SOL     OW66567  11.158   1.470  11.413
21557SOL    HW166568  11.139   1.388  11.458
21557SOL    HW266569  11.073   1.505  11.387
21558SOL     OW66570   0.130  11.733   8.928
21558SOL    HW166571   0.138  11.704   9.019
21558SOL    HW266572   0.221  11.740   8.898
21559SOL     OW66573   1.822   8.212   3.609
21559SOL    HW166574   1.730   8.203   3.635
21559SOL    HW266575   1.829   8.161   3.529
21560SOL     OW66576   9.656   5.134   4.583
21560SOL    HW166577   9.640   5.042   4.605
21560SOL    HW266578   9.719   5.132   4.511
21561SOL     OW66579   7.253   3.044  11.608
21561SOL    HW166580   7.231   3.100  11.533
21561SOL    HW266581   7.254   2.955  11.571
21562SOL     OW66582   0.262   0.963   5.358
21562SOL    HW166583   0.304   0.978   5.273
21562SOL    HW266584   0.281   0.871   5.378
21563SOL     OW66585   8.872  13.909   5.898
21563SOL    HW166586   8.833  13.971   5.960
21563SOL    HW266587   8.799  13.852   5.873
21564SOL     OW66588   5.591   3.921   8.002
21564SOL    HW166589   5.573   3.979   8.076
21564SOL    HW266590   5.640   3.976   7.941
21565SOL     OW66591   6.980   8.519   3.149
21565SOL    HW166592   7.055   8.534   3.207
21565SOL    HW266593   6.993   8.580   3.077
21566SOL     OW66594   2.176   3.178   6.454
21566SOL    HW166595   2.171   3.082   6.453
21566SOL    HW266596   2.089   3.206   6.423
21567SOL     OW66597   0.463   1.260  13.539
21567SOL    HW166598   0.397   1.235  13.603
21567SOL    HW266599   0.422   1.241  13.454
21568SOL     OW66600   2.488   6.426   7.442
21568SOL    HW166601   2.469   6.515   7.413
21568SOL    HW266602   2.557   6.395   7.383
21569SOL     OW66603   1.079  13.907  11.301
21569SOL    HW166604   1.079  13.826  11.354
21569SOL    HW266605   1.002  13.955  11.332
21570SOL     OW66606   3.411   8.852   9.929
21570SOL    HW166607   3.390   8.929   9.877
21570SOL    HW266608   3.361   8.864  10.010
21571SOL     OW66609   5.709   5.421   6.529
21571SOL    HW166610   5.713   5.366   6.607
21571SOL    HW266611   5.749   5.504   6.557
21572SOL     OW66612   6.434  11.119   2.623
21572SOL    HW166613   6.351  11.087   2.659
21572SOL    HW266614   6.501  11.082   2.680
21573SOL     OW66615   5.908  11.859   0.462
21573SOL    HW166616   5.870  11.828   0.380
21573SOL    HW266617   6.001  11.837   0.454
21574SOL     OW66618   8.100  12.927   7.069
21574SOL    HW166619   8.076  12.934   7.161
21574SOL    HW266620   8.187  12.888   7.070
21575SOL     OW66621  13.115  10.288   6.914
21575SOL    HW166622  13.141  10.200   6.886
21575SOL    HW266623  13.045  10.273   6.977
21576SOL     OW66624  14.262   5.720   0.832
21576SOL    HW166625  14.203   5.717   0.907
21576SOL    HW266626  14.269   5.629   0.804
21577SOL     OW66627   4.884   2.907   7.646
21577SOL    HW166628   4.846   2.957   7.718
21577SOL    HW266629   4.810   2.884   7.591
21578SOL     OW66630   9.157  12.642   6.317
21578SOL    HW166631   9.228  12.595   6.361
21578SOL    HW266632   9.142  12.593   6.236
21579SOL     OW66633  11.100   4.356   2.310
21579SOL    HW166634  11.051   4.436   2.332
21579SOL    HW266635  11.123   4.318   2.395
21580SOL     OW66636  13.255  13.135  12.167
21580SOL    HW166637  13.258  13.213  12.112
21580SOL    HW266638  13.174  13.145  12.217
21581SOL     OW66639   2.833  10.533  11.725
21581SOL    HW166640   2.779  10.480  11.667
21581SOL    HW266641   2.830  10.621  11.687
21582SOL     OW66642   2.896   4.325   7.414
21582SOL    HW166643   2.974   4.274   7.437
21582SOL    HW266644   2.910   4.350   7.323
21583SOL     OW66645   1.659   0.147  12.798
21583SOL    HW166646   1.625   0.066  12.759
21583SOL    HW266647   1.584   0.183  12.847
21584SOL     OW66648   9.676   4.582   2.363
21584SOL    HW166649   9.746   4.644   2.384
21584SOL    HW266650   9.704   4.500   2.404
21585SOL     OW66651   5.378   2.730  14.624
21585SOL    HW166652   5.314   2.790  14.586
21585SOL    HW266653   5.434   2.706  14.551
21586SOL     OW66654   3.586  10.563   2.652
21586SOL    HW166655   3.533  10.607   2.586
21586SOL    HW266656   3.673  10.555   2.612
21587SOL     OW66657  12.718  11.832   5.515
21587SOL    HW166658  12.627  11.848   5.489
21587SOL    HW266659  12.724  11.737   5.524
21588SOL     OW66660  13.745   3.773   4.327
21588SOL    HW166661  13.793   3.697   4.359
21588SOL    HW266662  13.657   3.764   4.365
21589SOL     OW66663   4.920   2.578   0.159
21589SOL    HW166664   4.913   2.638   0.234
21589SOL    HW266665   4.911   2.634   0.083
21590SOL     OW66666   0.328   1.517   2.875
21590SOL    HW166667   0.344   1.604   2.913
21590SOL    HW266668   0.343   1.528   2.781
21591SOL     OW66669   5.074   0.901   4.690
21591SOL    HW166670   5.082   0.805   4.685
21591SOL    HW266671   4.996   0.920   4.637
21592SOL     OW66672  12.007   0.387  11.615
21592SOL    HW166673  12.010   0.340  11.698
21592SOL    HW266674  12.098   0.414  11.600
21593SOL     OW66675  10.844   5.900  11.294
21593SOL    HW166676  10.885   5.945  11.220
21593SOL    HW266677  10.750   5.910  11.279
21594SOL     OW66678  11.912   9.018   6.550
21594SOL    HW166679  11.845   9.033   6.484
21594SOL    HW266680  11.865   8.982   6.625
21595SOL     OW66681   5.962  11.224   1.256
21595SOL    HW166682   5.972  11.148   1.313
21595SOL    HW266683   5.907  11.285   1.305
21596SOL     OW66684  14.111   8.394   0.883
21596SOL    HW166685  14.079   8.305   0.900
21596SOL    HW266686  14.085   8.444   0.961
21597SOL     OW66687  14.574   6.806  12.878
21597SOL    HW166688  14.589   6.884  12.825
21597SOL    HW266689  14.620   6.823  12.960
21598SOL     OW66690   4.248  11.470  14.107
21598SOL    HW166691   4.281  11.547  14.155
21598SOL    HW266692   4.317  11.450  14.044
21599SOL     OW66693   1.623  13.645  14.833
21599SOL    HW166694   1.553  13.601  14.882
21599SOL    HW266695   1.694  13.581  14.832
21600SOL     OW66696  14.330  13.422  13.332
21600SOL    HW166697  14.248  13.375  13.318
21600SOL    HW266698  14.314  13.510  13.299
21601SOL     OW66699  11.012  10.934   1.054
21601SOL    HW166700  10.993  10.968   0.966
21601SOL    HW266701  10.935  10.956   1.105
21602SOL     OW66702   8.717  11.565   4.106
21602SOL    HW166703   8.750  11.551   4.017
21602SOL    HW266704   8.744  11.487   4.154
21603SOL     OW66705   7.672   6.898   9.952
21603SOL    HW166706   7.732   6.950  10.005
21603SOL    HW266707   7.696   6.807   9.972
21604SOL     OW66708  13.469  13.165  14.844
21604SOL    HW166709  13.527  13.120   0.023
21604SOL    HW266710  13.527  13.193  14.773
21605SOL     OW66711   2.345  10.674  11.068
21605SOL    HW166712   2.405  10.696  10.996
21605SOL    HW266713   2.364  10.583  11.088
21606SOL     OW66714   6.607   6.013  10.088
21606SOL    HW166715   6.534   6.075  10.088
21606SOL    HW266716   6.574   5.937  10.135
21607SOL     OW66717  14.694   9.430   3.648
21607SOL    HW166718  14.761   9.412   3.583
21607SOL    HW266719  14.649   9.508   3.616
21608SOL     OW66720   3.522  13.435   3.465
21608SOL    HW166721   3.487  13.427   3.376
21608SOL    HW266722   3.482  13.363   3.513
21609SOL     OW66723   8.453   1.626   7.382
21609SOL    HW166724   8.433   1.687   7.311
21609SOL    HW266725   8.437   1.676   7.462
21610SOL     OW66726   7.394   6.532   6.813
21610SOL    HW166727   7.448   6.598   6.769
21610SOL    HW266728   7.423   6.535   6.904
21611SOL     OW66729   6.664   6.673   6.632
21611SOL    HW166730   6.705   6.642   6.552
21611SOL    HW266731   6.725   6.737   6.668
21612SOL     OW66732  10.612  13.716  10.457
21612SOL    HW166733  10.696  13.730  10.500
21612SOL    HW266734  10.627  13.740  10.365
21613SOL     OW66735   3.551   0.202   1.269
21613SOL    HW166736   3.483   0.204   1.336
21613SOL    HW266737   3.615   0.267   1.297
21614SOL     OW66738  10.099   5.514   9.099
21614SOL    HW166739  10.143   5.595   9.124
21614SOL    HW266740  10.006   5.533   9.112
21615SOL     OW66741   0.129   8.351   7.921
21615SOL    HW166742   0.223   8.357   7.939
21615SOL    HW266743   0.106   8.437   7.886
21616SOL     OW66744  12.547  11.693   9.100
21616SOL    HW166745  12.643  11.694   9.098
21616SOL    HW266746  12.526  11.614   9.149
21617SOL     OW66747   1.158  12.272   4.029
21617SOL    HW166748   1.254  12.271   4.024
21617SOL    HW266749   1.130  12.268   3.937
21618SOL     OW66750   6.777  13.600   9.243
21618SOL    HW166751   6.808  13.572   9.329
21618SOL    HW266752   6.802  13.692   9.237
21619SOL     OW66753   3.244  10.535   5.644
21619SOL    HW166754   3.154  10.503   5.637
21619SOL    HW266755   3.297  10.468   5.600
21620SOL     OW66756   8.775  13.924   3.340
21620SOL    HW166757   8.710  13.864   3.303
21620SOL    HW266758   8.726  14.006   3.354
21621SOL     OW66759  11.862   4.837   0.041
21621SOL    HW166760  11.832   4.777  14.855
21621SOL    HW266761  11.875   4.781   0.118
21622SOL     OW66762   2.500   9.583   1.504
21622SOL    HW166763   2.408   9.593   1.479
21622SOL    HW266764   2.549   9.630   1.436
21623SOL     OW66765  11.982   2.833  12.790
21623SOL    HW166766  11.916   2.791  12.735
21623SOL    HW266767  12.036   2.883  12.730
21624SOL     OW66768   1.097   6.205   8.677
21624SOL    HW166769   1.145   6.220   8.759
21624SOL    HW266770   1.152   6.244   8.609
21625SOL     OW66771  11.772  12.832   7.500
21625SOL    HW166772  11.808  12.744   7.489
21625SOL    HW266773  11.771  12.847   7.595
21626SOL     OW66774  11.229  11.488   2.975
21626SOL    HW166775  11.277  11.454   2.901
21626SOL    HW266776  11.149  11.526   2.937
21627SOL     OW66777   0.288  10.913   4.931
21627SOL    HW166778   0.215  10.880   4.984
21627SOL    HW266779   0.261  10.898   4.841
21628SOL     OW66780   7.263  10.507   6.148
21628SOL    HW166781   7.192  10.449   6.122
21628SOL    HW266782   7.336  10.448   6.167
21629SOL     OW66783   0.392   3.864   3.513
21629SOL    HW166784   0.483   3.893   3.503
21629SOL    HW266785   0.341   3.944   3.512
21630SOL     OW66786  12.292  13.718   4.211
21630SOL    HW166787  12.315  13.807   4.237
21630SOL    HW266788  12.348  13.662   4.265
21631SOL     OW66789   1.820   4.815  13.132
21631SOL    HW166790   1.814   4.821  13.036
21631SOL    HW266791   1.886   4.880  13.156
21632SOL     OW66792  10.535  12.383   0.553
21632SOL    HW166793  10.519  12.343   0.638
21632SOL    HW266794  10.610  12.441   0.566
21633SOL     OW66795   5.398  10.710  13.371
21633SOL    HW166796   5.309  10.741  13.352
21633SOL    HW266797   5.395  10.616  13.353
21634SOL     OW66798  11.770  13.333   1.615
21634SOL    HW166799  11.862  13.358   1.614
21634SOL    HW266800  11.750  13.309   1.524
21635SOL     OW66801  11.133  13.251   3.564
21635SOL    HW166802  11.205  13.312   3.582
21635SOL    HW266803  11.088  13.241   3.648
21636SOL     OW66804   8.481  13.138   2.061
21636SOL    HW166805   8.493  13.215   2.004
21636SOL    HW266806   8.392  13.108   2.040
21637SOL     OW66807   6.492   6.514   9.238
21637SOL    HW166808   6.434   6.575   9.283
21637SOL    HW266809   6.435   6.443   9.208
21638SOL     OW66810  11.595   9.996   2.843
21638SOL    HW166811  11.575  10.088   2.825
21638SOL    HW266812  11.566   9.950   2.764
21639SOL     OW66813   1.071   2.061  13.648
21639SOL    HW166814   1.004   2.011  13.601
21639SOL    HW266815   1.072   2.146  13.606
21640SOL     OW66816   9.765  13.737   1.646
21640SOL    HW166817   9.724  13.706   1.565
21640SOL    HW266818   9.784  13.656   1.694
21641SOL     OW66819  13.936   5.725   9.845
21641SOL    HW166820  14.001   5.742   9.913
21641SOL    HW266821  13.867   5.675   9.888
21642SOL     OW66822  10.181  10.277  12.878
21642SOL    HW166823  10.234  10.330  12.938
21642SOL    HW266824  10.195  10.318  12.792
21643SOL     OW66825   3.445   1.715   3.769
21643SOL    HW166826   3.387   1.652   3.811
21643SOL    HW266827   3.508   1.662   3.721
21644SOL     OW66828   9.649   6.514  12.720
21644SOL    HW166829   9.577   6.453  12.705
21644SOL    HW266830   9.609   6.601  12.712
21645SOL     OW66831   7.093   3.021   1.212
21645SOL    HW166832   7.153   3.030   1.138
21645SOL    HW266833   7.021   2.969   1.178
21646SOL     OW66834   4.166  10.469   4.799
21646SOL    HW166835   4.222  10.393   4.814
21646SOL    HW266836   4.156  10.473   4.704
21647SOL     OW66837  10.745   9.004   9.095
21647SOL    HW166838  10.770   8.931   9.037
21647SOL    HW266839  10.810   9.001   9.165
21648SOL     OW66840  13.540  14.172  14.874
21648SOL    HW166841  13.604  14.209  14.814
21648SOL    HW266842  13.471  14.137  14.816
21649SOL     OW66843  13.495  14.715   4.818
21649SOL    HW166844  13.516  14.808   4.832
21649SOL    HW266845  13.572  14.668   4.849
21650SOL     OW66846   0.684   2.775  13.642
21650SOL    HW166847   0.732   2.857  13.650
21650SOL    HW266848   0.720   2.733  13.564
21651SOL     OW66849   5.023   0.334  10.063
21651SOL    HW166850   5.099   0.285  10.093
21651SOL    HW266851   4.969   0.345  10.141
21652SOL     OW66852   1.038   9.910  10.767
21652SOL    HW166853   1.109   9.888  10.707
21652SOL    HW266854   0.960   9.915  10.712
21653SOL     OW66855   8.095  12.278  11.786
21653SOL    HW166856   8.112  12.254  11.695
21653SOL    HW266857   8.058  12.198  11.825
21654SOL     OW66858   3.136  14.371   6.878
21654SOL    HW166859   3.141  14.441   6.813
21654SOL    HW266860   3.218  14.379   6.928
21655SOL     OW66861   5.442  14.717   1.385
21655SOL    HW166862   5.431  14.668   1.466
21655SOL    HW266863   5.450  14.808   1.413
21656SOL     OW66864   1.893   1.904   4.236
21656SOL    HW166865   1.982   1.871   4.240
21656SOL    HW266866   1.838   1.827   4.245
21657SOL     OW66867   7.950   2.051  12.184
21657SOL    HW166868   7.880   2.050  12.119
21657SOL    HW266869   8.030   2.032  12.135
21658SOL     OW66870  10.586  13.835   7.403
21658SOL    HW166871  10.633  13.752   7.399
21658SOL    HW266872  10.494  13.811   7.405
21659SOL     OW66873  12.196   4.760   7.201
21659SOL    HW166874  12.189   4.720   7.288
21659SOL    HW266875  12.151   4.844   7.209
21660SOL     OW66876  10.157   9.979   7.929
21660SOL    HW166877  10.144  10.028   7.848
21660SOL    HW266878  10.172   9.889   7.900
21661SOL     OW66879  13.838   6.114   0.723
21661SOL    HW166880  13.765   6.071   0.679
21661SOL    HW266881  13.846   6.067   0.807
21662SOL     OW66882   0.822  11.198   8.123
21662SOL    HW166883   0.735  11.236   8.111
21662SOL    HW266884   0.805  11.115   8.168
21663SOL     OW66885  13.791   2.976   7.730
21663SOL    HW166886  13.848   3.023   7.790
21663SOL    HW266887  13.767   2.896   7.777
21664SOL     OW66888   8.643   7.914   0.771
21664SOL    HW166889   8.676   7.861   0.843
21664SOL    HW266890   8.553   7.882   0.757
21665SOL     OW66891   1.586   2.526   2.349
21665SOL    HW166892   1.545   2.576   2.420
21665SOL    HW266893   1.664   2.576   2.326
21666SOL     OW66894   2.933   0.063   8.479
21666SOL    HW166895   2.870   0.049   8.549
21666SOL    HW266896   2.978  14.861   8.469
21667SOL     OW66897   1.021  13.260   2.964
21667SOL    HW166898   1.058  13.210   2.891
21667SOL    HW266899   0.974  13.195   3.016
21668SOL     OW66900  11.853  13.380   6.210
21668SOL    HW166901  11.940  13.401   6.176
21668SOL    HW266902  11.803  13.460   6.201
21669SOL     OW66903  14.067   8.151   4.636
21669SOL    HW166904  14.117   8.072   4.655
21669SOL    HW266905  14.076   8.205   4.715
21670SOL     OW66906   4.988  14.588  10.547
21670SOL    HW166907   4.930  14.558  10.476
21670SOL    HW266908   4.932  14.642  10.603
21671SOL     OW66909   9.097  12.940  12.891
21671SOL    HW166910   9.019  12.888  12.911
21671SOL    HW266911   9.126  12.907  12.806
21672SOL     OW66912   6.501   2.824  11.239
21672SOL    HW166913   6.532   2.825  11.330
21672SOL    HW266914   6.581   2.834  11.187
21673SOL     OW66915  12.106  13.549   8.868
21673SOL    HW166916  12.198  13.523   8.859
21673SOL    HW266917  12.099  13.631   8.819
21674SOL     OW66918   3.691   5.536  10.314
21674SOL    HW166919   3.598   5.545  10.332
21674SOL    HW266920   3.734   5.592  10.378
21675SOL     OW66921   9.558  13.280  14.628
21675SOL    HW166922   9.566  13.367  14.590
21675SOL    HW266923   9.629  13.230  14.589
21676SOL     OW66924   7.849   6.712   0.938
21676SOL    HW166925   7.873   6.782   0.877
21676SOL    HW266926   7.757   6.729   0.959
21677SOL     OW66927   9.420  10.466  10.224
21677SOL    HW166928   9.390  10.392  10.276
21677SOL    HW266929   9.474  10.428  10.156
21678SOL     OW66930  13.657   2.942   0.553
21678SOL    HW166931  13.735   2.941   0.609
21678SOL    HW266932  13.644   3.034   0.533
21679SOL     OW66933  13.368   5.701   6.206
21679SOL    HW166934  13.335   5.782   6.244
21679SOL    HW266935  13.342   5.704   6.114
21680SOL     OW66936  14.616   1.423   0.045
21680SOL    HW166937  14.612   1.452   0.136
21680SOL    HW266938  14.537   1.370   0.033
21681SOL     OW66939   1.064   5.272   4.860
21681SOL    HW166940   1.040   5.361   4.886
21681SOL    HW266941   1.160   5.273   4.859
21682SOL     OW66942   4.004   4.381   3.639
21682SOL    HW166943   3.986   4.435   3.716
21682SOL    HW266944   3.944   4.414   3.573
21683SOL     OW66945  11.487  11.148   5.919
21683SOL    HW166946  11.467  11.124   5.828
21683SOL    HW266947  11.451  11.077   5.971
21684SOL     OW66948   3.436  13.032   4.029
21684SOL    HW166949   3.527  13.012   4.053
21684SOL    HW266950   3.390  12.948   4.037
21685SOL     OW66951  14.197  10.013   9.503
21685SOL    HW166952  14.242   9.956   9.441
21685SOL    HW266953  14.127   9.959   9.540
21686SOL     OW66954   7.391   8.987   7.155
21686SOL    HW166955   7.397   9.015   7.246
21686SOL    HW266956   7.302   8.953   7.146
21687SOL     OW66957  11.992   9.593   3.774
21687SOL    HW166958  11.959   9.545   3.699
21687SOL    HW266959  12.040   9.528   3.826
21688SOL     OW66960   5.590   0.741   3.740
21688SOL    HW166961   5.590   0.837   3.734
21688SOL    HW266962   5.673   0.720   3.782
21689SOL     OW66963   7.186   1.969   4.479
21689SOL    HW166964   7.190   2.010   4.565
21689SOL    HW266965   7.215   1.879   4.494
21690SOL     OW66966  12.122  10.379   4.742
21690SOL    HW166967  12.153  10.419   4.823
21690SOL    HW266968  12.078  10.299   4.771
21691SOL     OW66969  14.820   2.665  13.646
21691SOL    HW166970  14.790   2.730  13.710
21691SOL    HW266971  14.740   2.639  13.600
21692SOL     OW66972   6.752  11.740   0.539
21692SOL    HW166973   6.727  11.808   0.601
21692SOL    HW266974   6.672  11.718   0.493
21693SOL     OW66975   1.406  13.681   1.403
21693SOL    HW166976   1.433  13.686   1.312
21693SOL    HW266977   1.337  13.747   1.412
21694SOL     OW66978   3.590   9.376   1.104
21694SOL    HW166979   3.505   9.333   1.098
21694SOL    HW266980   3.569   9.469   1.115
21695SOL     OW66981   9.168   2.408   9.602
21695SOL    HW166982   9.128   2.353   9.669
21695SOL    HW266983   9.239   2.454   9.647
21696SOL     OW66984  12.214  10.674  10.296
21696SOL    HW166985  12.234  10.613  10.367
21696SOL    HW266986  12.283  10.658  10.231
21697SOL     OW66987   0.207  12.234  12.080
21697SOL    HW166988   0.204  12.318  12.035
21697SOL    HW266989   0.115  12.212  12.096
21698SOL     OW66990   0.501  11.526  13.569
21698SOL    HW166991   0.486  11.467  13.643
21698SOL    HW266992   0.482  11.473  13.492
21699SOL     OW66993   5.734   7.009  13.524
21699SOL    HW166994   5.827   7.008  13.545
21699SOL    HW266995   5.693   6.960  13.595
21700SOL     OW66996   7.352   2.736   2.127
21700SOL    HW166997   7.315   2.666   2.073
21700SOL    HW266998   7.288   2.807   2.122
21701SOL     OW66999  13.048  13.610  12.119
21701SOL    HW167000  12.993  13.680  12.086
21701SOL    HW267001  13.136  13.648  12.124
21702SOL     OW67002   8.291  13.195  11.662
21702SOL    HW167003   8.227  13.242  11.716
21702SOL    HW267004   8.367  13.183  11.719
21703SOL     OW67005   9.256  11.998   5.901
21703SOL    HW167006   9.293  12.084   5.923
21703SOL    HW267007   9.190  12.017   5.834
21704SOL     OW67008   2.563   8.546   0.631
21704SOL    HW167009   2.617   8.564   0.708
21704SOL    HW267010   2.550   8.452   0.632
21705SOL     OW67011   4.101  13.800  10.761
21705SOL    HW167012   4.039  13.728  10.776
21705SOL    HW267013   4.086  13.826  10.671
21706SOL     OW67014   8.879   1.407   3.714
21706SOL    HW167015   8.814   1.337   3.723
21706SOL    HW267016   8.961   1.362   3.694
21707SOL     OW67017   6.235   3.327   8.881
21707SOL    HW167018   6.157   3.318   8.936
21707SOL    HW267019   6.293   3.384   8.931
21708SOL     OW67020   9.309   0.394   3.837
21708SOL    HW167021   9.402   0.375   3.822
21708SOL    HW267022   9.281   0.328   3.900
21709SOL     OW67023  10.323   9.883   4.255
21709SOL    HW167024  10.383   9.920   4.320
21709SOL    HW267025  10.302   9.796   4.290
21710SOL     OW67026   4.944   9.452  10.515
21710SOL    HW167027   5.019   9.464  10.573
21710SOL    HW267028   4.908   9.367  10.540
21711SOL     OW67029   8.063  14.475   2.636
21711SOL    HW167030   7.994  14.463   2.571
21711SOL    HW267031   8.025  14.535   2.700
21712SOL     OW67032  10.622  13.341   0.123
21712SOL    HW167033  10.643  13.291   0.044
21712SOL    HW267034  10.550  13.398   0.097
21713SOL     OW67035   3.258   5.773  10.533
21713SOL    HW167036   3.246   5.749  10.625
21713SOL    HW267037   3.195   5.718  10.485
21714SOL     OW67038   6.441   3.443  12.887
21714SOL    HW167039   6.502   3.393  12.942
21714SOL    HW267040   6.372   3.471  12.947
21715SOL     OW67041   8.994  10.559   4.111
21715SOL    HW167042   9.027  10.596   4.193
21715SOL    HW267043   9.058  10.585   4.045
21716SOL     OW67044   7.126   8.439   4.917
21716SOL    HW167045   7.048   8.492   4.938
21716SOL    HW267046   7.094   8.349   4.918
21717SOL     OW67047   0.680   1.591   3.731
21717SOL    HW167048   0.590   1.560   3.739
21717SOL    HW267049   0.676   1.657   3.661
21718SOL     OW67050  14.743   0.802   5.362
21718SOL    HW167051  14.800   0.808   5.285
21718SOL    HW267052  14.797   0.833   5.435
21719SOL     OW67053  11.077   3.455  14.336
21719SOL    HW167054  11.065   3.447  14.430
21719SOL    HW267055  11.142   3.388  14.314
21720SOL     OW67056   0.612   9.272   0.393
21720SOL    HW167057   0.706   9.260   0.406
21720SOL    HW267058   0.595   9.239   0.305
21721SOL     OW67059   3.365   9.850   6.966
21721SOL    HW167060   3.415   9.925   6.932
21721SOL    HW267061   3.283   9.889   6.996
21722SOL     OW67062  11.286  11.401   5.593
21722SOL    HW167063  11.211  11.341   5.584
21722SOL    HW267064  11.262  11.477   5.540
21723SOL     OW67065   5.688   2.894   7.822
21723SOL    HW167066   5.658   2.809   7.789
21723SOL    HW267067   5.708   2.945   7.744
21724SOL     OW67068   8.357   2.072  11.128
21724SOL    HW167069   8.320   2.043  11.045
21724SOL    HW267070   8.448   2.093  11.108
21725SOL     OW67071   0.317   4.630   1.283
21725SOL    HW167072   0.371   4.572   1.335
21725SOL    HW267073   0.235   4.582   1.271
21726SOL     OW67074  12.910   7.883   5.706
21726SOL    HW167075  12.841   7.847   5.762
21726SOL    HW267076  12.895   7.978   5.710
21727SOL     OW67077  13.450   4.150  12.754
21727SOL    HW167078  13.401   4.067  12.748
21727SOL    HW267079  13.535   4.125  12.790
21728SOL     OW67080   3.461   1.194   7.177
21728SOL    HW167081   3.375   1.165   7.206
21728SOL    HW267082   3.443   1.259   7.109
21729SOL     OW67083   0.971  12.330   6.634
21729SOL    HW167084   1.041  12.279   6.676
21729SOL    HW267085   0.897  12.321   6.694
21730SOL     OW67086   2.653   1.301  10.950
21730SOL    HW167087   2.741   1.263  10.951
21730SOL    HW267088   2.626   1.302  11.041
21731SOL     OW67089   2.692   9.075   1.965
21731SOL    HW167090   2.697   9.129   1.886
21731SOL    HW267091   2.621   9.013   1.947
21732SOL     OW67092   5.552   7.408   5.214
21732SOL    HW167093   5.558   7.373   5.303
21732SOL    HW267094   5.461   7.392   5.189
21733SOL     OW67095   0.326   3.426   1.453
21733SOL    HW167096   0.324   3.330   1.450
21733SOL    HW267097   0.353   3.452   1.365
21734SOL     OW67098   3.588   8.537   3.135
21734SOL    HW167099   3.569   8.626   3.106
21734SOL    HW267100   3.614   8.491   3.055
21735SOL     OW67101   5.761  14.146   5.934
21735SOL    HW167102   5.815  14.223   5.916
21735SOL    HW267103   5.703  14.139   5.858
21736SOL     OW67104   3.699  12.710  12.649
21736SOL    HW167105   3.716  12.798  12.683
21736SOL    HW267106   3.719  12.652  12.723
21737SOL     OW67107   3.051   2.963   9.068
21737SOL    HW167108   2.975   2.910   9.090
21737SOL    HW267109   3.062   2.950   8.974
21738SOL     OW67110  10.191  13.682   3.794
21738SOL    HW167111  10.138  13.730   3.858
21738SOL    HW267112  10.174  13.590   3.813
21739SOL     OW67113  13.438   6.112   3.457
21739SOL    HW167114  13.431   6.028   3.411
21739SOL    HW267115  13.377   6.103   3.531
21740SOL     OW67116   7.341   7.999   1.845
21740SOL    HW167117   7.373   7.943   1.775
21740SOL    HW267118   7.246   7.989   1.844
21741SOL     OW67119  14.353  12.381  11.133
21741SOL    HW167120  14.379  12.473  11.146
21741SOL    HW267121  14.298  12.383  11.054
21742SOL     OW67122   9.531   1.916   3.553
21742SOL    HW167123   9.514   1.981   3.484
21742SOL    HW267124   9.476   1.841   3.530
21743SOL     OW67125   7.641  12.753  14.577
21743SOL    HW167126   7.715  12.731  14.520
21743SOL    HW267127   7.674  12.740  14.666
21744SOL     OW67128   7.330   5.622   8.829
21744SOL    HW167129   7.393   5.669   8.883
21744SOL    HW267130   7.247   5.666   8.846
21745SOL     OW67131  11.981   1.006   8.865
21745SOL    HW167132  12.056   1.055   8.898
21745SOL    HW267133  11.974   0.930   8.923
21746SOL     OW67134   2.660   7.391   9.802
21746SOL    HW167135   2.737   7.372   9.748
21746SOL    HW267136   2.690   7.456   9.865
21747SOL     OW67137   5.823  13.886  12.358
21747SOL    HW167138   5.754  13.878  12.424
21747SOL    HW267139   5.901  13.909  12.408
21748SOL     OW67140  12.452   3.568   7.556
21748SOL    HW167141  12.419   3.508   7.489
21748SOL    HW267142  12.433   3.656   7.521
21749SOL     OW67143   7.685  11.494  10.479
21749SOL    HW167144   7.719  11.411  10.512
21749SOL    HW267145   7.699  11.490  10.385
21750SOL     OW67146  12.323  10.280   9.336
21750SOL    HW167147  12.331  10.312   9.426
21750SOL    HW267148  12.305  10.359   9.285
21751SOL     OW67149  12.384  10.700   2.385
21751SOL    HW167150  12.401  10.665   2.473
21751SOL    HW267151  12.307  10.652   2.355
21752SOL     OW67152  12.820   7.374   2.261
21752SOL    HW167153  12.804   7.456   2.306
21752SOL    HW267154  12.898   7.390   2.208
21753SOL     OW67155   6.653  14.658  11.766
21753SOL    HW167156   6.649  14.747  11.800
21753SOL    HW267157   6.565  14.642  11.731
21754SOL     OW67158   2.244   5.142   8.581
21754SOL    HW167159   2.171   5.186   8.625
21754SOL    HW267160   2.223   5.150   8.488
21755SOL     OW67161   8.601   9.704   2.180
21755SOL    HW167162   8.571   9.768   2.116
21755SOL    HW267163   8.684   9.672   2.144
21756SOL     OW67164   9.147   8.466  10.896
21756SOL    HW167165   9.171   8.406  10.825
21756SOL    HW267166   9.074   8.422  10.940
21757SOL     OW67167  11.697  14.589   2.768
21757SOL    HW167168  11.709  14.497   2.743
21757SOL    HW267169  11.752  14.638   2.706
21758SOL     OW67170   4.422   6.569  13.085
21758SOL    HW167171   4.467   6.587  13.003
21758SOL    HW267172   4.488   6.530  13.141
21759SOL     OW67173   3.175   6.966  11.201
21759SOL    HW167174   3.128   6.907  11.143
21759SOL    HW267175   3.263   6.972  11.162
21760SOL     OW67176   7.711  14.283  13.198
21760SOL    HW167177   7.687  14.266  13.290
21760SOL    HW267178   7.657  14.221  13.148
21761SOL     OW67179  14.768   1.862  13.797
21761SOL    HW167180  14.696   1.884  13.857
21761SOL    HW267181  14.744   1.904  13.715
21762SOL     OW67182   4.233   8.245   6.114
21762SOL    HW167183   4.242   8.265   6.207
21762SOL    HW267184   4.285   8.312   6.069
21763SOL     OW67185   5.897   5.102  12.608
21763SOL    HW167186   5.924   5.183  12.566
21763SOL    HW267187   5.960   5.089  12.679
21764SOL     OW67188  13.025   0.707   2.776
21764SOL    HW167189  13.075   0.629   2.754
21764SOL    HW267190  13.087   0.766   2.818
21765SOL     OW67191   4.692  11.845   6.788
21765SOL    HW167192   4.784  11.840   6.813
21765SOL    HW267193   4.659  11.756   6.800
21766SOL     OW67194   3.503   7.067  11.109
21766SOL    HW167195   3.542   7.083  11.023
21766SOL    HW267196   3.504   6.972  11.119
21767SOL     OW67197   6.269  11.414   2.639
21767SOL    HW167198   6.358  11.399   2.671
21767SOL    HW267199   6.269  11.504   2.607
21768SOL     OW67200  10.329  12.114   0.941
21768SOL    HW167201  10.244  12.073   0.933
21768SOL    HW267202  10.367  12.076   1.020
21769SOL     OW67203   5.557   5.300   0.908
21769SOL    HW167204   5.495   5.231   0.885
21769SOL    HW267205   5.607   5.264   0.982
21770SOL     OW67206  13.121   5.420   2.697
21770SOL    HW167207  13.100   5.440   2.606
21770SOL    HW267208  13.173   5.495   2.726
21771SOL     OW67209   2.649   0.168   4.769
21771SOL    HW167210   2.653   0.179   4.864
21771SOL    HW267211   2.662   0.256   4.734
21772SOL     OW67212   0.558  11.879   2.920
21772SOL    HW167213   0.560  11.820   2.844
21772SOL    HW267214   0.486  11.938   2.902
21773SOL     OW67215  10.355   0.374   4.842
21773SOL    HW167216  10.410   0.322   4.783
21773SOL    HW267217  10.284   0.406   4.787
21774SOL     OW67218   1.948   5.507   4.798
21774SOL    HW167219   1.960   5.415   4.772
21774SOL    HW267220   1.930   5.502   4.892
21775SOL     OW67221   6.972   5.933   7.110
21775SOL    HW167222   6.921   5.869   7.159
21775SOL    HW267223   6.929   6.017   7.128
21776SOL     OW67224   0.940   7.848   7.166
21776SOL    HW167225   1.034   7.855   7.184
21776SOL    HW267226   0.924   7.912   7.097
21777SOL     OW67227   4.720   9.547   2.465
21777SOL    HW167228   4.726   9.635   2.428
21777SOL    HW267229   4.626   9.530   2.473
21778SOL     OW67230   9.295   4.030   9.611
21778SOL    HW167231   9.324   4.121   9.611
21778SOL    HW267232   9.250   4.019   9.695
21779SOL     OW67233   1.122   2.123  11.350
21779SOL    HW167234   1.174   2.141  11.428
21779SOL    HW267235   1.053   2.064  11.381
21780SOL     OW67236   5.464   3.606   6.945
21780SOL    HW167237   5.429   3.681   6.897
21780SOL    HW267238   5.552   3.633   6.971
21781SOL     OW67239   9.882   5.964   3.557
21781SOL    HW167240   9.872   6.030   3.488
21781SOL    HW267241   9.952   5.907   3.525
21782SOL     OW67242   2.298   6.771  11.739
21782SOL    HW167243   2.296   6.790  11.645
21782SOL    HW267244   2.261   6.683  11.746
21783SOL     OW67245   8.599   2.995   0.778
21783SOL    HW167246   8.655   3.041   0.840
21783SOL    HW267247   8.611   3.043   0.695
21784SOL     OW67248   2.846   4.245  13.888
21784SOL    HW167249   2.925   4.262  13.939
21784SOL    HW267250   2.797   4.180  13.939
21785SOL     OW67251   2.376  13.373   3.239
21785SOL    HW167252   2.292  13.415   3.220
21785SOL    HW267253   2.429  13.389   3.160
21786SOL     OW67254   6.097  11.365   0.700
21786SOL    HW167255   6.033  11.333   0.637
21786SOL    HW267256   6.133  11.285   0.740
21787SOL     OW67257   5.639   6.984  10.160
21787SOL    HW167258   5.600   7.052  10.105
21787SOL    HW267259   5.721   7.024  10.192
21788SOL     OW67260  10.273   8.296  11.824
21788SOL    HW167261  10.260   8.391  11.829
21788SOL    HW267262  10.199   8.265  11.771
21789SOL     OW67263  12.313   6.558  11.562
21789SOL    HW167264  12.277   6.540  11.649
21789SOL    HW267265  12.392   6.609  11.579
21790SOL     OW67266  11.398   6.558   2.917
21790SOL    HW167267  11.353   6.520   2.841
21790SOL    HW267268  11.338   6.626   2.949
21791SOL     OW67269   3.817   2.965   3.211
21791SOL    HW167270   3.891   3.008   3.168
21791SOL    HW267271   3.857   2.905   3.274
21792SOL     OW67272  11.967   7.135  14.843
21792SOL    HW167273  11.959   7.199  14.772
21792SOL    HW267274  11.931   7.054  14.806
21793SOL     OW67275  10.438  13.529   3.238
21793SOL    HW167276  10.414  13.618   3.211
21793SOL    HW267277  10.354  13.483   3.240
21794SOL     OW67278  11.371   8.781   4.546
21794SOL    HW167279  11.453   8.830   4.557
21794SOL    HW267280  11.316   8.808   4.620
21795SOL     OW67281   7.799   3.555  12.767
21795SOL    HW167282   7.869   3.541  12.704
21795SOL    HW267283   7.730   3.597  12.717
21796SOL     OW67284   8.851   8.866   9.826
21796SOL    HW167285   8.782   8.876   9.892
21796SOL    HW267286   8.834   8.781   9.786
21797SOL     OW67287  11.042   3.607   7.690
21797SOL    HW167288  11.076   3.684   7.644
21797SOL    HW267289  11.101   3.536   7.665
21798SOL     OW67290  11.010   7.303  13.551
21798SOL    HW167291  11.046   7.357  13.481
21798SOL    HW267292  10.999   7.363  13.625
21799SOL     OW67293   9.859  10.456  13.449
21799SOL    HW167294   9.854  10.374  13.399
21799SOL    HW267295   9.933  10.444  13.508
21800SOL     OW67296   4.245   9.308   6.188
21800SOL    HW167297   4.233   9.243   6.257
21800SOL    HW267298   4.204   9.388   6.223
21801SOL     OW67299   9.173   6.622   9.336
21801SOL    HW167300   9.209   6.646   9.251
21801SOL    HW267301   9.099   6.682   9.348
21802SOL     OW67302   0.909   8.603   4.363
21802SOL    HW167303   0.861   8.540   4.308
21802SOL    HW267304   0.903   8.567   4.451
21803SOL     OW67305  11.739  10.747  12.519
21803SOL    HW167306  11.650  10.773  12.494
21803SOL    HW267307  11.736  10.740  12.614
21804SOL     OW67308   7.047   6.613   8.585
21804SOL    HW167309   7.092   6.690   8.551
21804SOL    HW267310   6.965   6.610   8.536
21805SOL     OW67311   5.835   2.466  14.708
21805SOL    HW167312   5.742   2.452  14.725
21805SOL    HW267313   5.857   2.544  14.758
21806SOL     OW67314   0.418  14.796   6.168
21806SOL    HW167315   0.344  14.741   6.142
21806SOL    HW267316   0.435  14.772   6.260
21807SOL     OW67317   0.200   7.168  10.860
21807SOL    HW167318   0.172   7.079  10.839
21807SOL    HW267319   0.122   7.222  10.846
21808SOL     OW67320   9.892   3.014   5.813
21808SOL    HW167321   9.828   2.980   5.876
21808SOL    HW267322   9.888   3.109   5.823
21809SOL     OW67323   6.333   6.073  10.303
21809SOL    HW167324   6.365   5.991  10.343
21809SOL    HW267325   6.270   6.107  10.366
21810SOL     OW67326  10.093   8.657   7.762
21810SOL    HW167327  10.018   8.623   7.809
21810SOL    HW267328  10.120   8.734   7.811
21811SOL     OW67329  12.490   6.495  10.165
21811SOL    HW167330  12.556   6.426  10.156
21811SOL    HW267331  12.417   6.453  10.210
21812SOL     OW67332   4.581  11.224   6.302
21812SOL    HW167333   4.571  11.189   6.213
21812SOL    HW267334   4.611  11.314   6.288
21813SOL     OW67335   4.006   4.787   3.967
21813SOL    HW167336   3.967   4.874   3.962
21813SOL    HW267337   3.969   4.748   4.046
21814SOL     OW67338   5.536   6.389   9.952
21814SOL    HW167339   5.554   6.431   9.868
21814SOL    HW267340   5.549   6.296   9.936
21815SOL     OW67341  10.517   6.032   4.636
21815SOL    HW167342  10.435   5.995   4.669
21815SOL    HW267343  10.491   6.112   4.590
21816SOL     OW67344  12.382  14.722  12.122
21816SOL    HW167345  12.286  14.720  12.124
21816SOL    HW267346  12.408  14.756  12.207
21817SOL     OW67347   8.657   7.955   3.652
21817SOL    HW167348   8.582   7.908   3.688
21817SOL    HW267349   8.673   8.026   3.715
21818SOL     OW67350  13.363   0.766   7.523
21818SOL    HW167351  13.373   0.769   7.618
21818SOL    HW267352  13.435   0.819   7.489
21819SOL     OW67353   5.856   0.776   4.509
21819SOL    HW167354   5.792   0.710   4.483
21819SOL    HW267355   5.939   0.729   4.513
21820SOL     OW67356   5.911   0.553   7.366
21820SOL    HW167357   5.914   0.645   7.394
21820SOL    HW267358   5.970   0.508   7.426
21821SOL     OW67359   9.032  12.427   9.630
21821SOL    HW167360   8.988  12.506   9.597
21821SOL    HW267361   9.009  12.424   9.723
21822SOL     OW67362  12.634   1.251   0.222
21822SOL    HW167363  12.643   1.164   0.183
21822SOL    HW267364  12.714   1.263   0.273
21823SOL     OW67365   0.968   6.922   6.354
21823SOL    HW167366   1.062   6.912   6.340
21823SOL    HW267367   0.958   7.010   6.391
21824SOL     OW67368   2.898   8.263  13.047
21824SOL    HW167369   2.967   8.196  13.048
21824SOL    HW267370   2.943   8.344  13.071
21825SOL     OW67371   5.065   5.211  14.392
21825SOL    HW167372   5.016   5.220  14.310
21825SOL    HW267373   5.157   5.225  14.367
21826SOL     OW67374  13.237   5.286   1.370
21826SOL    HW167375  13.217   5.210   1.316
21826SOL    HW267376  13.158   5.301   1.422
21827SOL     OW67377   4.338   9.001   2.699
21827SOL    HW167378   4.284   8.923   2.686
21827SOL    HW267379   4.426   8.966   2.719
21828SOL     OW67380  11.411   9.171  13.390
21828SOL    HW167381  11.409   9.077  13.372
21828SOL    HW267382  11.498   9.199  13.362
21829SOL     OW67383   8.921   0.584   4.624
21829SOL    HW167384   8.930   0.639   4.546
21829SOL    HW267385   9.001   0.601   4.673
21830SOL     OW67386   4.330   2.309   7.540
21830SOL    HW167387   4.261   2.274   7.485
21830SOL    HW267388   4.287   2.374   7.595
21831SOL     OW67389  14.816  10.057   0.579
21831SOL    HW167390  14.856  10.064   0.666
21831SOL    HW267391   0.002  10.083   0.518
21832SOL     OW67392   1.514   7.319  11.017
21832SOL    HW167393   1.489   7.260  11.088
21832SOL    HW267394   1.562   7.263  10.956
21833SOL     OW67395   5.986   6.364   1.582
21833SOL    HW167396   5.983   6.440   1.524
21833SOL    HW267397   5.956   6.291   1.528
21834SOL     OW67398   2.979   9.532   8.811
21834SOL    HW167399   2.965   9.589   8.736
21834SOL    HW267400   2.933   9.451   8.789
21835SOL     OW67401   7.912   4.440   2.200
21835SOL    HW167402   7.981   4.380   2.228
21835SOL    HW267403   7.950   4.527   2.212
21836SOL     OW67404   2.353   5.059   3.739
21836SOL    HW167405   2.279   5.115   3.763
21836SOL    HW267406   2.430   5.113   3.752
21837SOL     OW67407  12.974  13.239   9.826
21837SOL    HW167408  12.898  13.289   9.796
21837SOL    HW267409  12.991  13.271   9.915
21838SOL     OW67410   2.595   0.778   6.359
21838SOL    HW167411   2.682   0.738   6.348
21838SOL    HW267412   2.558   0.779   6.271
21839SOL     OW67413   5.992   4.655   5.223
21839SOL    HW167414   5.980   4.618   5.311
21839SOL    HW267415   5.905   4.686   5.199
21840SOL     OW67416   9.549   1.236   3.332
21840SOL    HW167417   9.507   1.176   3.270
21840SOL    HW267418   9.530   1.198   3.418
21841SOL     OW67419   2.501  10.871   6.027
21841SOL    HW167420   2.518  10.964   6.043
21841SOL    HW267421   2.424  10.870   5.970
21842SOL     OW67422  11.764   0.344   5.044
21842SOL    HW167423  11.814   0.284   5.100
21842SOL    HW267424  11.821   0.420   5.034
21843SOL     OW67425   9.996   8.222   5.933
21843SOL    HW167426   9.905   8.228   5.961
21843SOL    HW267427  10.043   8.192   6.011
21844SOL     OW67428   1.998   3.646  10.916
21844SOL    HW167429   1.929   3.585  10.941
21844SOL    HW267430   1.970   3.681  10.832
21845SOL     OW67431  13.060   5.525   3.037
21845SOL    HW167432  13.097   5.446   2.997
21845SOL    HW267433  13.112   5.539   3.116
21846SOL     OW67434  11.167  13.940   6.514
21846SOL    HW167435  11.094  13.936   6.452
21846SOL    HW267436  11.206  13.852   6.511
21847SOL     OW67437   0.300   1.140   9.385
21847SOL    HW167438   0.334   1.230   9.388
21847SOL    HW267439   0.322   1.108   9.298
21848SOL     OW67440   8.079   6.314   5.250
21848SOL    HW167441   7.990   6.276   5.252
21848SOL    HW267442   8.067   6.402   5.215
21849SOL     OW67443   3.778   4.823   4.410
21849SOL    HW167444   3.807   4.914   4.401
21849SOL    HW267445   3.714   4.825   4.481
21850SOL     OW67446   6.967   3.444   4.355
21850SOL    HW167447   6.999   3.358   4.383
21850SOL    HW267448   7.045   3.489   4.322
21851SOL     OW67449   7.816   9.239   3.020
21851SOL    HW167450   7.889   9.289   2.985
21851SOL    HW267451   7.856   9.161   3.058
21852SOL     OW67452   1.557   3.124  13.636
21852SOL    HW167453   1.514   3.110  13.720
21852SOL    HW267454   1.487   3.159  13.580
21853SOL     OW67455   7.419   4.899  14.584
21853SOL    HW167456   7.461   4.942  14.510
21853SOL    HW267457   7.488   4.893  14.651
21854SOL     OW67458   5.555  10.066   4.487
21854SOL    HW167459   5.526  10.016   4.563
21854SOL    HW267460   5.563  10.156   4.518
21855SOL     OW67461  10.141  13.103   5.131
21855SOL    HW167462  10.168  13.188   5.095
21855SOL    HW267463  10.223  13.053   5.138
21856SOL     OW67464   9.697   2.123   9.469
21856SOL    HW167465   9.781   2.146   9.508
21856SOL    HW267466   9.637   2.116   9.544
21857SOL     OW67467   4.161   1.773   9.377
21857SOL    HW167468   4.170   1.733   9.290
21857SOL    HW267469   4.067   1.766   9.397
21858SOL     OW67470  11.084   1.852  13.889
21858SOL    HW167471  11.130   1.771  13.866
21858SOL    HW267472  11.146   1.922  13.870
21859SOL     OW67473   8.357   7.726   4.017
21859SOL    HW167474   8.396   7.652   4.063
21859SOL    HW267475   8.391   7.804   4.062
21860SOL     OW67476   5.722   3.860   3.100
21860SOL    HW167477   5.631   3.837   3.122
21860SOL    HW267478   5.722   3.870   3.005
21861SOL     OW67479   7.133   5.985  14.054
21861SOL    HW167480   7.064   5.953  14.113
21861SOL    HW267481   7.172   5.905  14.019
21862SOL     OW67482   8.364   4.508  13.003
21862SOL    HW167483   8.331   4.458  13.077
21862SOL    HW267484   8.453   4.476  12.990
21863SOL     OW67485  13.498   7.307  10.402
21863SOL    HW167486  13.526   7.250  10.330
21863SOL    HW267487  13.559   7.287  10.473
21864SOL     OW67488   5.168   9.945   9.702
21864SOL    HW167489   5.239  10.007   9.717
21864SOL    HW267490   5.125   9.975   9.622
21865SOL     OW67491  12.082   1.956  11.553
21865SOL    HW167492  12.004   1.947  11.498
21865SOL    HW267493  12.068   1.896  11.626
21866SOL     OW67494   3.477   7.708   4.370
21866SOL    HW167495   3.480   7.787   4.424
21866SOL    HW267496   3.441   7.641   4.429
21867SOL     OW67497   3.743   9.789   6.423
21867SOL    HW167498   3.787   9.705   6.439
21867SOL    HW267499   3.790   9.827   6.349
21868SOL     OW67500   5.669  14.095  14.290
21868SOL    HW167501   5.706  14.179  14.264
21868SOL    HW267502   5.726  14.030  14.250
21869SOL     OW67503   6.955   6.684  10.176
21869SOL    HW167504   6.944   6.604  10.227
21869SOL    HW267505   7.045   6.712  10.194
21870SOL     OW67506   6.928   2.619  12.548
21870SOL    HW167507   6.996   2.685  12.532
21870SOL    HW267508   6.905   2.630  12.641
21871SOL     OW67509   0.383   7.442   8.988
21871SOL    HW167510   0.456   7.425   9.048
21871SOL    HW267511   0.305   7.436   9.042
21872SOL     OW67512   9.442   3.186  10.352
21872SOL    HW167513   9.368   3.130  10.378
21872SOL    HW267514   9.517   3.127  10.352
21873SOL     OW67515  13.572   3.363  14.822
21873SOL    HW167516  13.535   3.322   0.018
21873SOL    HW267517  13.584   3.291  14.761
21874SOL     OW67518   3.606   3.054  10.018
21874SOL    HW167519   3.687   3.080   9.975
21874SOL    HW267520   3.606   3.102  10.101
21875SOL     OW67521  12.258   1.135  14.235
21875SOL    HW167522  12.207   1.080  14.294
21875SOL    HW267523  12.224   1.114  14.148
21876SOL     OW67524  10.062  14.096   5.350
21876SOL    HW167525   9.981  14.091   5.401
21876SOL    HW267526  10.057  14.181   5.305
21877SOL     OW67527   3.563   5.792   6.346
21877SOL    HW167528   3.560   5.707   6.302
21877SOL    HW267529   3.528   5.776   6.434
21878SOL     OW67530   1.378  13.766   5.833
21878SOL    HW167531   1.314  13.801   5.772
21878SOL    HW267532   1.448  13.732   5.778
21879SOL     OW67533  10.196   1.234   0.798
21879SOL    HW167534  10.112   1.199   0.767
21879SOL    HW267535  10.259   1.164   0.781
21880SOL     OW67536   5.121   6.806  13.573
21880SOL    HW167537   5.215   6.816  13.591
21880SOL    HW267538   5.078   6.858  13.641
21881SOL     OW67539  12.269  12.338   7.714
21881SOL    HW167540  12.352  12.291   7.710
21881SOL    HW267541  12.231  12.314   7.798
21882SOL     OW67542   3.688  11.617   9.201
21882SOL    HW167543   3.700  11.554   9.272
21882SOL    HW267544   3.593  11.629   9.196
21883SOL     OW67545   2.445  14.039  10.589
21883SOL    HW167546   2.444  14.110  10.653
21883SOL    HW267547   2.443  13.959  10.642
21884SOL     OW67548  12.187  14.226   7.919
21884SOL    HW167549  12.175  14.234   7.825
21884SOL    HW267550  12.280  14.245   7.933
21885SOL     OW67551   5.063   5.051   5.263
21885SOL    HW167552   5.069   5.040   5.168
21885SOL    HW267553   5.079   5.144   5.277
21886SOL     OW67554   2.227   7.289   0.600
21886SOL    HW167555   2.200   7.315   0.512
21886SOL    HW267556   2.239   7.194   0.594
21887SOL     OW67557   5.836   7.298  11.343
21887SOL    HW167558   5.925   7.306  11.376
21887SOL    HW267559   5.792   7.243  11.408
21888SOL     OW67560   4.422   2.282   2.641
21888SOL    HW167561   4.416   2.188   2.627
21888SOL    HW267562   4.499   2.294   2.696
21889SOL     OW67563   9.106   5.285   2.011
21889SOL    HW167564   9.167   5.346   2.052
21889SOL    HW267565   9.062   5.242   2.085
21890SOL     OW67566  11.621   1.526   0.120
21890SOL    HW167567  11.580   1.454   0.072
21890SOL    HW267568  11.594   1.513   0.211
21891SOL     OW67569   3.898  14.733   2.085
21891SOL    HW167570   3.954  14.748   2.161
21891SOL    HW267571   3.811  14.763   2.113
21892SOL     OW67572   7.975   1.027   1.175
21892SOL    HW167573   7.900   1.078   1.145
21892SOL    HW267574   8.044   1.092   1.191
21893SOL     OW67575   9.080  10.115  10.761
21893SOL    HW167576   9.052  10.061  10.834
21893SOL    HW267577   9.024  10.193  10.765
21894SOL     OW67578   7.331  12.596  13.274
21894SOL    HW167579   7.314  12.506  13.301
21894SOL    HW267580   7.245  12.639  13.278
21895SOL     OW67581   9.826   3.493   0.782
21895SOL    HW167582   9.743   3.502   0.831
21895SOL    HW267583   9.802   3.510   0.691
21896SOL     OW67584   7.274   3.535   3.205
21896SOL    HW167585   7.202   3.594   3.185
21896SOL    HW267586   7.290   3.488   3.122
21897SOL     OW67587   0.349   0.068   4.797
21897SOL    HW167588   0.418   0.087   4.733
21897SOL    HW267589   0.365   0.132   4.868
21898SOL     OW67590   1.369   9.887   7.794
21898SOL    HW167591   1.303   9.900   7.726
21898SOL    HW267592   1.396   9.796   7.786
21899SOL     OW67593  12.298  11.164   4.446
21899SOL    HW167594  12.252  11.248   4.443
21899SOL    HW267595  12.231  11.099   4.424
21900SOL     OW67596  13.755   0.121  11.073
21900SOL    HW167597  13.740   0.138  10.980
21900SOL    HW267598  13.678   0.157  11.117
21901SOL     OW67599   6.044   8.595   1.845
21901SOL    HW167600   6.116   8.543   1.880
21901SOL    HW267601   6.087   8.672   1.806
21902SOL     OW67602   3.595   5.607   4.484
21902SOL    HW167603   3.660   5.540   4.460
21902SOL    HW267604   3.523   5.558   4.522
21903SOL     OW67605  11.521  12.315  12.832
21903SOL    HW167606  11.498  12.408  12.834
21903SOL    HW267607  11.445  12.270  12.869
21904SOL     OW67608  12.632   2.650  11.816
21904SOL    HW167609  12.657   2.727  11.766
21904SOL    HW267610  12.693   2.647  11.889
21905SOL     OW67611  10.550   3.006  11.443
21905SOL    HW167612  10.475   3.060  11.417
21905SOL    HW267613  10.604   3.064  11.497
21906SOL     OW67614  11.822   5.680  11.324
21906SOL    HW167615  11.842   5.749  11.387
21906SOL    HW267616  11.830   5.722  11.239
21907SOL     OW67617   7.720   5.940   0.778
21907SOL    HW167618   7.740   5.862   0.831
21907SOL    HW267619   7.654   5.988   0.829
21908SOL     OW67620  14.668   2.016   9.761
21908SOL    HW167621  14.671   2.065   9.679
21908SOL    HW267622  14.748   1.963   9.760
21909SOL     OW67623  11.167   2.643   9.127
21909SOL    HW167624  11.197   2.732   9.144
21909SOL    HW267625  11.150   2.641   9.032
21910SOL     OW67626  10.309   5.080   4.696
21910SOL    HW167627  10.383   5.092   4.636
21910SOL    HW267628  10.232   5.102   4.643
21911SOL     OW67629  11.992   4.924   8.303
21911SOL    HW167630  11.968   4.960   8.389
21911SOL    HW267631  12.016   4.833   8.322
21912SOL     OW67632  10.746  14.466   0.714
21912SOL    HW167633  10.774  14.421   0.794
21912SOL    HW267634  10.683  14.531   0.745
21913SOL     OW67635   0.764   5.631   2.003
21913SOL    HW167636   0.686   5.682   1.980
21913SOL    HW267637   0.816   5.691   2.056
21914SOL     OW67638  10.388   3.683   2.222
21914SOL    HW167639  10.443   3.617   2.179
21914SOL    HW267640  10.395   3.760   2.166
21915SOL     OW67641   4.625  12.885   1.203
21915SOL    HW167642   4.589  12.799   1.182
21915SOL    HW267643   4.584  12.909   1.286
21916SOL     OW67644   9.157   0.053   6.850
21916SOL    HW167645   9.183   0.043   6.758
21916SOL    HW267646   9.231   0.019   6.900
21917SOL     OW67647  11.442   0.899  12.612
21917SOL    HW167648  11.508   0.955  12.654
21917SOL    HW267649  11.436   0.822  12.668
21918SOL     OW67650   5.880  12.287   1.105
21918SOL    HW167651   5.973  12.296   1.084
21918SOL    HW267652   5.870  12.331   1.190
21919SOL     OW67653  10.271  10.661   5.277
21919SOL    HW167654  10.314  10.631   5.197
21919SOL    HW267655  10.340  10.659   5.343
21920SOL     OW67656  13.594   7.167   0.520
21920SOL    HW167657  13.617   7.177   0.428
21920SOL    HW267658  13.556   7.251   0.545
21921SOL     OW67659  10.071   6.484   4.542
21921SOL    HW167660  10.054   6.437   4.460
21921SOL    HW267661   9.990   6.532   4.558
21922SOL     OW67662  12.994   9.380   5.233
21922SOL    HW167663  12.984   9.357   5.141
21922SOL    HW267664  12.951   9.309   5.281
21923SOL     OW67665   7.142  13.207   7.023
21923SOL    HW167666   7.133  13.213   7.118
21923SOL    HW267667   7.236  13.216   7.007
21924SOL     OW67668  12.528   0.057   6.156
21924SOL    HW167669  12.517   0.049   6.251
21924SOL    HW267670  12.571  14.858   6.130
21925SOL     OW67671  13.369   5.897   8.016
21925SOL    HW167672  13.424   5.826   7.984
21925SOL    HW267673  13.430   5.958   8.057
21926SOL     OW67674   3.032  13.249  13.666
21926SOL    HW167675   2.990  13.317  13.612
21926SOL    HW267676   3.078  13.194  13.603
21927SOL     OW67677  10.849  10.444   3.079
21927SOL    HW167678  10.915  10.377   3.102
21927SOL    HW267679  10.812  10.471   3.164
21928SOL     OW67680   3.195   3.305   1.980
21928SOL    HW167681   3.168   3.225   2.025
21928SOL    HW267682   3.113   3.350   1.959
21929SOL     OW67683  13.491   6.747   1.033
21929SOL    HW167684  13.550   6.737   0.958
21929SOL    HW267685  13.439   6.667   1.034
21930SOL     OW67686   5.293   5.557  12.685
21930SOL    HW167687   5.290   5.577  12.591
21930SOL    HW267688   5.377   5.514  12.697
21931SOL     OW67689   8.329  10.410   8.001
21931SOL    HW167690   8.252  10.418   8.058
21931SOL    HW267691   8.325  10.321   7.968
21932SOL     OW67692   0.389  10.144   5.775
21932SOL    HW167693   0.350  10.118   5.858
21932SOL    HW267694   0.374  10.069   5.717
21933SOL     OW67695   5.507   2.532   7.195
21933SOL    HW167696   5.505   2.529   7.099
21933SOL    HW267697   5.587   2.580   7.216
21934SOL     OW67698   8.300   9.842   6.220
21934SOL    HW167699   8.295   9.752   6.189
21934SOL    HW267700   8.377   9.878   6.176
21935SOL     OW67701   4.875   7.927   3.361
21935SOL    HW167702   4.895   7.850   3.414
21935SOL    HW267703   4.904   8.001   3.414
21936SOL     OW67704   4.996   5.407  14.559
21936SOL    HW167705   5.011   5.338  14.495
21936SOL    HW267706   4.903   5.402  14.579
21937SOL     OW67707   4.821   1.324   5.089
21937SOL    HW167708   4.742   1.281   5.122
21937SOL    HW267709   4.796   1.416   5.081
21938SOL     OW67710   0.991   0.972   9.309
21938SOL    HW167711   1.072   0.980   9.360
21938SOL    HW267712   0.975   0.878   9.303
21939SOL     OW67713  10.894   9.959   4.511
21939SOL    HW167714  10.863  10.039   4.467
21939SOL    HW267715  10.815   9.923   4.552
21940SOL     OW67716  10.412   7.366   6.339
21940SOL    HW167717  10.469   7.328   6.272
21940SOL    HW267718  10.326   7.328   6.323
21941SOL     OW67719   2.979   7.283   3.910
21941SOL    HW167720   3.048   7.242   3.857
21941SOL    HW267721   2.945   7.213   3.965
21942SOL     OW67722   7.801   7.382   1.803
21942SOL    HW167723   7.733   7.432   1.849
21942SOL    HW267724   7.775   7.385   1.711
21943SOL     OW67725   3.350  12.199   8.649
21943SOL    HW167726   3.310  12.117   8.678
21943SOL    HW267727   3.280  12.264   8.654
21944SOL     OW67728  12.341   9.824   1.986
21944SOL    HW167729  12.332   9.895   1.924
21944SOL    HW267730  12.433   9.827   2.013
21945SOL     OW67731  13.395   4.384  12.983
21945SOL    HW167732  13.408   4.306  12.929
21945SOL    HW267733  13.302   4.404  12.975
21946SOL     OW67734   0.631   2.106   0.127
21946SOL    HW167735   0.661   2.110   0.036
21946SOL    HW267736   0.551   2.053   0.123
21947SOL     OW67737  12.924  10.045   1.304
21947SOL    HW167738  12.914   9.952   1.326
21947SOL    HW267739  12.853  10.089   1.351
21948SOL     OW67740   6.080   7.552  14.628
21948SOL    HW167741   6.098   7.484  14.692
21948SOL    HW267742   5.989   7.577  14.643
21949SOL     OW67743   8.151   9.465   2.588
21949SOL    HW167744   8.140   9.411   2.666
21949SOL    HW267745   8.244   9.487   2.588
21950SOL     OW67746  10.983  12.548   5.766
21950SOL    HW167747  10.930  12.580   5.694
21950SOL    HW267748  10.920  12.517   5.831
21951SOL     OW67749   3.505   2.726  12.494
21951SOL    HW167750   3.532   2.793  12.557
21951SOL    HW267751   3.574   2.726  12.428
21952SOL     OW67752   8.760  11.933  10.374
21952SOL    HW167753   8.756  11.970  10.286
21952SOL    HW267754   8.848  11.896  10.381
21953SOL     OW67755   6.642   4.874   5.359
21953SOL    HW167756   6.715   4.833   5.407
21953SOL    HW267757   6.574   4.887   5.425
21954SOL     OW67758   5.538  10.013  10.366
21954SOL    HW167759   5.482  10.076  10.321
21954SOL    HW267760   5.526  10.033  10.459
21955SOL     OW67761   0.337   5.670   2.316
21955SOL    HW167762   0.395   5.740   2.344
21955SOL    HW267763   0.348   5.602   2.383
21956SOL     OW67764   4.932   9.171   4.521
21956SOL    HW167765   4.850   9.204   4.557
21956SOL    HW267766   4.974   9.248   4.483
21957SOL     OW67767  13.156   3.710   5.767
21957SOL    HW167768  13.081   3.761   5.799
21957SOL    HW267769  13.225   3.775   5.756
21958SOL     OW67770   9.065  12.747  11.573
21958SOL    HW167771   9.035  12.677  11.631
21958SOL    HW267772   9.133  12.793  11.622
21959SOL     OW67773   2.593   1.083   6.313
21959SOL    HW167774   2.635   1.044   6.389
21959SOL    HW267775   2.606   1.020   6.243
21960SOL     OW67776  10.972   8.658  13.641
21960SOL    HW167777  10.926   8.656  13.725
21960SOL    HW267778  10.917   8.608  13.581
21961SOL     OW67779  12.767  12.741  10.598
21961SOL    HW167780  12.682  12.711  10.628
21961SOL    HW267781  12.748  12.797  10.523
21962SOL     OW67782  12.143  14.879  12.352
21962SOL    HW167783  12.130  14.793  12.392
21962SOL    HW267784  12.092   0.057  12.407
21963SOL     OW67785  10.577   9.669  12.668
21963SOL    HW167786  10.560   9.732  12.738
21963SOL    HW267787  10.631   9.602  12.709
21964SOL     OW67788   6.878   0.663   2.207
21964SOL    HW167789   6.790   0.695   2.184
21964SOL    HW267790   6.917   0.637   2.123
21965SOL     OW67791   1.108   5.403   1.561
21965SOL    HW167792   1.111   5.330   1.499
21965SOL    HW267793   1.156   5.473   1.517
21966SOL     OW67794  10.221   4.705   2.005
21966SOL    HW167795  10.148   4.736   1.952
21966SOL    HW267796  10.191   4.622   2.042
21967SOL     OW67797  12.103   3.379  10.344
21967SOL    HW167798  12.141   3.351  10.261
21967SOL    HW267799  12.067   3.299  10.382
21968SOL     OW67800  10.968   7.371  10.343
21968SOL    HW167801  10.965   7.278  10.318
21968SOL    HW267802  10.956   7.370  10.438
21969SOL     OW67803   2.136  10.862   4.009
21969SOL    HW167804   2.078  10.858   4.085
21969SOL    HW267805   2.175  10.950   4.014
21970SOL     OW67806   4.700   9.064   3.797
21970SOL    HW167807   4.727   9.155   3.804
21970SOL    HW267808   4.662   9.057   3.709
21971SOL     OW67809   0.680  11.225   9.763
21971SOL    HW167810   0.741  11.159   9.730
21971SOL    HW267811   0.621  11.242   9.689
21972SOL     OW67812   0.403  13.613   3.501
21972SOL    HW167813   0.410  13.656   3.587
21972SOL    HW267814   0.484  13.563   3.493
21973SOL     OW67815  11.572   7.631   1.715
21973SOL    HW167816  11.514   7.599   1.783
21973SOL    HW267817  11.636   7.685   1.761
21974SOL     OW67818  10.890   5.410   6.296
21974SOL    HW167819  10.884   5.347   6.224
21974SOL    HW267820  10.839   5.371   6.366
21975SOL     OW67821   5.914  14.067  14.877
21975SOL    HW167822   5.833  14.069   0.045
21975SOL    HW267823   5.906  14.141  14.816
21976SOL     OW67824   1.143  12.915  11.920
21976SOL    HW167825   1.108  12.922  11.831
21976SOL    HW267826   1.070  12.941  11.977
21977SOL     OW67827  12.388   5.668   0.495
21977SOL    HW167828  12.301   5.677   0.534
21977SOL    HW267829  12.385   5.584   0.450
21978SOL     OW67830   0.689  10.807   5.451
21978SOL    HW167831   0.637  10.835   5.525
21978SOL    HW267832   0.627  10.800   5.379
21979SOL     OW67833  11.822  14.081  12.167
21979SOL    HW167834  11.773  14.122  12.238
21979SOL    HW267835  11.846  13.995  12.202
21980SOL     OW67836  11.500   0.379   3.698
21980SOL    HW167837  11.406   0.364   3.704
21980SOL    HW267838  11.510   0.473   3.713
21981SOL     OW67839   9.672   1.800  13.504
21981SOL    HW167840   9.752   1.852  13.506
21981SOL    HW267841   9.664   1.771  13.414
21982SOL     OW67842   2.966   0.981   5.978
21982SOL    HW167843   2.910   1.036   5.923
21982SOL    HW267844   3.043   0.962   5.923
21983SOL     OW67845   2.575   3.395   1.825
21983SOL    HW167846   2.505   3.336   1.795
21983SOL    HW267847   2.547   3.482   1.796
21984SOL     OW67848  13.731   3.011   1.759
21984SOL    HW167849  13.685   3.091   1.731
21984SOL    HW267850  13.720   2.950   1.687
21985SOL     OW67851  13.162   1.534   2.427
21985SOL    HW167852  13.219   1.528   2.350
21985SOL    HW267853  13.117   1.619   2.417
21986SOL     OW67854   6.006   9.200   4.235
21986SOL    HW167855   6.045   9.194   4.148
21986SOL    HW267856   6.072   9.245   4.288
21987SOL     OW67857   7.916   0.946   0.829
21987SOL    HW167858   7.971   0.916   0.901
21987SOL    HW267859   7.962   1.022   0.794
21988SOL     OW67860   7.187   8.986   9.784
21988SOL    HW167861   7.105   8.988   9.834
21988SOL    HW267862   7.162   9.013   9.696
21989SOL     OW67863   6.909  10.917  12.354
21989SOL    HW167864   6.970  10.973  12.402
21989SOL    HW267865   6.918  10.944  12.263
21990SOL     OW67866  13.708   7.736  14.485
21990SOL    HW167867  13.758   7.817  14.483
21990SOL    HW267868  13.769   7.671  14.522
21991SOL     OW67869   6.097  10.998  11.056
21991SOL    HW167870   6.168  11.025  10.998
21991SOL    HW267871   6.036  11.072  11.055
21992SOL     OW67872   4.746   4.599   6.687
21992SOL    HW167873   4.825   4.644   6.658
21992SOL    HW267874   4.777   4.524   6.737
21993SOL     OW67875  10.514   0.617   1.721
21993SOL    HW167876  10.480   0.627   1.632
21993SOL    HW267877  10.482   0.531   1.749
21994SOL     OW67878   6.200  12.874   6.757
21994SOL    HW167879   6.288  12.902   6.784
21994SOL    HW267880   6.215  12.823   6.677
21995SOL     OW67881   8.832  12.452   7.104
21995SOL    HW167882   8.753  12.484   7.062
21995SOL    HW267883   8.874  12.397   7.037
21996SOL     OW67884  12.405  12.866  12.091
21996SOL    HW167885  12.492  12.864  12.052
21996SOL    HW267886  12.417  12.833  12.180
21997SOL     OW67887  11.730   2.415  14.017
21997SOL    HW167888  11.672   2.370  13.955
21997SOL    HW267889  11.680   2.492  14.045
21998SOL     OW67890  11.868   6.811  11.105
21998SOL    HW167891  11.936   6.783  11.167
21998SOL    HW267892  11.851   6.902  11.128
21999SOL     OW67893   4.726   1.984  11.084
21999SOL    HW167894   4.756   1.922  11.017
21999SOL    HW267895   4.668   2.044  11.038
22000SOL     OW67896   5.586   7.011   0.495
22000SOL    HW167897   5.682   7.017   0.503
22000SOL    HW267898   5.572   6.950   0.422
22001SOL     OW67899  10.309   2.184   0.091
22001SOL    HW167900  10.236   2.245   0.097
22001SOL    HW267901  10.288   2.128   0.016
22002SOL     OW67902  11.277   5.241   5.033
22002SOL    HW167903  11.245   5.216   4.947
22002SOL    HW267904  11.203   5.228   5.092
22003SOL     OW67905   4.103   1.540   7.304
22003SOL    HW167906   4.182   1.528   7.356
22003SOL    HW267907   4.041   1.584   7.363
22004SOL     OW67908   0.149   5.945  14.763
22004SOL    HW167909   0.092   6.022  14.764
22004SOL    HW267910   0.126   5.899  14.682
22005SOL     OW67911   8.524  12.032   0.226
22005SOL    HW167912   8.572  12.113   0.243
22005SOL    HW267913   8.569  11.992   0.152
22006SOL     OW67914   3.953   7.070   1.975
22006SOL    HW167915   3.902   7.041   1.899
22006SOL    HW267916   4.032   7.107   1.938
22007SOL     OW67917  10.316  13.527  11.459
22007SOL    HW167918  10.346  13.476  11.383
22007SOL    HW267919  10.230  13.560  11.434
22008SOL     OW67920  10.941   8.011   2.129
22008SOL    HW167921  10.947   8.038   2.037
22008SOL    HW267922  10.984   7.926   2.132
22009SOL     OW67923   4.840   1.616   7.200
22009SOL    HW167924   4.844   1.705   7.164
22009SOL    HW267925   4.817   1.628   7.292
22010SOL     OW67926   2.715   2.819   0.268
22010SOL    HW167927   2.639   2.761   0.267
22010SOL    HW267928   2.762   2.797   0.349
22011SOL     OW67929  11.956  14.275  14.325
22011SOL    HW167930  12.030  14.327  14.356
22011SOL    HW267931  11.879  14.318  14.361
22012SOL     OW67932  12.881  13.802  12.027
22012SOL    HW167933  12.857  13.753  11.949
22012SOL    HW267934  12.960  13.850  12.003
22013SOL     OW67935   7.629  11.056   7.461
22013SOL    HW167936   7.534  11.055   7.453
22013SOL    HW267937   7.658  10.986   7.402
22014SOL     OW67938   4.041   7.744   5.814
22014SOL    HW167939   4.003   7.801   5.748
22014SOL    HW267940   4.131   7.775   5.824
22015SOL     OW67941   9.657   2.991   1.378
22015SOL    HW167942   9.631   2.905   1.345
22015SOL    HW267943   9.745   2.978   1.413
22016SOL     OW67944  12.482  12.459   1.694
22016SOL    HW167945  12.568  12.462   1.652
22016SOL    HW267946  12.428  12.405   1.635
22017SOL     OW67947   9.432  13.670   0.512
22017SOL    HW167948   9.378  13.744   0.541
22017SOL    HW267949   9.474  13.702   0.432
22018SOL     OW67950   8.537  12.052  11.635
22018SOL    HW167951   8.495  12.100  11.707
22018SOL    HW267952   8.578  12.120  11.581
22019SOL     OW67953  13.978  10.994  10.370
22019SOL    HW167954  14.044  11.052  10.407
22019SOL    HW267955  13.931  10.961  10.446
22020SOL     OW67956  11.466   3.340   6.079
22020SOL    HW167957  11.374   3.321   6.063
22020SOL    HW267958  11.504   3.355   5.992
22021SOL     OW67959  12.360  10.471  10.704
22021SOL    HW167960  12.318  10.461  10.618
22021SOL    HW267961  12.441  10.519  10.685
22022SOL     OW67962  12.086   4.045  12.073
22022SOL    HW167963  12.129   3.963  12.097
22022SOL    HW267964  12.048   4.028  11.987
22023SOL     OW67965   8.798  11.241   4.104
22023SOL    HW167966   8.880  11.264   4.062
22023SOL    HW267967   8.823  11.200   4.186
22024SOL     OW67968  14.775  13.736  11.563
22024SOL    HW167969  14.801  13.774  11.479
22024SOL    HW267970  14.732  13.808  11.609
22025SOL     OW67971   2.156   7.550   1.132
22025SOL    HW167972   2.211   7.525   1.058
22025SOL    HW267973   2.201   7.514   1.209
22026SOL     OW67974  12.240   6.301   3.338
22026SOL    HW167975  12.217   6.277   3.428
22026SOL    HW267976  12.262   6.218   3.296
22027SOL     OW67977  10.318   4.355  13.758
22027SOL    HW167978  10.331   4.450  13.756
22027SOL    HW267979  10.405   4.320  13.779
22028SOL     OW67980   2.634   6.814   2.675
22028SOL    HW167981   2.716   6.770   2.650
22028SOL    HW267982   2.662   6.901   2.704
22029SOL     OW67983   8.485   1.592  14.715
22029SOL    HW167984   8.551   1.594  14.646
22029SOL    HW267985   8.430   1.516  14.694
22030SOL     OW67986  13.724  13.214  14.732
22030SOL    HW167987  13.780  13.209  14.810
22030SOL    HW267988  13.726  13.126  14.696
22031SOL     OW67989  14.798   1.259  14.036
22031SOL    HW167990   0.004   1.223  14.029
22031SOL    HW267991  14.757   1.209  14.107
22032SOL     OW67992   6.849   4.632  12.941
22032SOL    HW167993   6.901   4.617  13.020
22032SOL    HW267994   6.768   4.582  12.956
22033SOL     OW67995   7.540   2.183   2.133
22033SOL    HW167996   7.485   2.205   2.058
22033SOL    HW267997   7.525   2.089   2.146
22034SOL     OW67998   4.845  13.441   4.901
22034SOL    HW167999   4.885  13.382   4.966
22034SOL    HW268000   4.800  13.382   4.840
22035SOL     OW68001  13.395   0.417  10.791
22035SOL    HW168002  13.365   0.495  10.838
22035SOL    HW268003  13.406   0.351  10.859
22036SOL     OW68004  13.230   7.182  14.753
22036SOL    HW168005  13.265   7.188  14.664
22036SOL    HW268006  13.306   7.196  14.810
22037SOL     OW68007  14.160   9.391  10.128
22037SOL    HW168008  14.186   9.483  10.136
22037SOL    HW268009  14.175   9.354  10.215
22038SOL     OW68010   4.111  12.235   5.323
22038SOL    HW168011   4.104  12.239   5.227
22038SOL    HW268012   4.163  12.157   5.340
22039SOL     OW68013   4.459   6.695  13.771
22039SOL    HW168014   4.447   6.750  13.849
22039SOL    HW268015   4.373   6.655  13.756
22040SOL     OW68016   6.078   4.136  11.661
22040SOL    HW168017   6.028   4.184  11.727
22040SOL    HW268018   6.019   4.066  11.632
22041SOL     OW68019   5.083   2.083   6.546
22041SOL    HW168020   5.020   2.088   6.617
22041SOL    HW268021   5.164   2.053   6.587
22042SOL     OW68022   3.712  11.186   3.525
22042SOL    HW168023   3.633  11.240   3.532
22042SOL    HW268024   3.778  11.245   3.487
22043SOL     OW68025   3.162   0.860   1.259
22043SOL    HW168026   3.210   0.781   1.236
22043SOL    HW268027   3.079   0.853   1.212
22044SOL     OW68028   0.887   3.824  11.342
22044SOL    HW168029   0.920   3.753  11.397
22044SOL    HW268030   0.866   3.783  11.258
22045SOL     OW68031   0.955   3.477   1.711
22045SOL    HW168032   0.866   3.499   1.682
22045SOL    HW268033   0.951   3.383   1.730
22046SOL     OW68034  14.752   8.622   7.832
22046SOL    HW168035  14.760   8.654   7.921
22046SOL    HW268036  14.827   8.660   7.786
22047SOL     OW68037   0.747   1.518  14.823
22047SOL    HW168038   0.713   1.543   0.027
22047SOL    HW268039   0.748   1.600  14.773
22048SOL     OW68040   9.661   2.374  11.437
22048SOL    HW168041   9.751   2.391  11.465
22048SOL    HW268042   9.635   2.453  11.390
22049SOL     OW68043   0.220   1.306   0.400
22049SOL    HW168044   0.230   1.388   0.448
22049SOL    HW268045   0.126   1.291   0.397
22050SOL     OW68046  11.636   0.325  10.455
22050SOL    HW168047  11.726   0.356  10.451
22050SOL    HW268048  11.629   0.262  10.383
22051SOL     OW68049   1.038   3.935   6.017
22051SOL    HW168050   1.127   3.931   5.980
22051SOL    HW268051   0.992   3.862   5.977
22052SOL     OW68052  13.237   4.225   1.648
22052SOL    HW168053  13.212   4.154   1.707
22052SOL    HW268054  13.327   4.204   1.621
22053SOL     OW68055   8.147   8.545  13.711
22053SOL    HW168056   8.142   8.459  13.754
22053SOL    HW268057   8.186   8.602  13.777
22054SOL     OW68058  14.323  12.620   5.955
22054SOL    HW168059  14.393  12.606   5.891
22054SOL    HW268060  14.338  12.709   5.988
22055SOL     OW68061   0.428   0.654   3.889
22055SOL    HW168062   0.409   0.717   3.819
22055SOL    HW268063   0.522   0.666   3.907
22056SOL     OW68064   0.186  11.265   3.721
22056SOL    HW168065   0.147  11.343   3.760
22056SOL    HW268066   0.118  11.198   3.727
22057SOL     OW68067   6.746   9.093   7.301
22057SOL    HW168068   6.813   9.026   7.317
22057SOL    HW268069   6.668   9.060   7.346
22058SOL     OW68070   6.834  10.004   7.522
22058SOL    HW168071   6.876   9.919   7.535
22058SOL    HW268072   6.766  10.007   7.589
22059SOL     OW68073   8.816   1.588   7.829
22059SOL    HW168074   8.765   1.509   7.846
22059SOL    HW268075   8.789   1.649   7.898
22060SOL     OW68076  11.599  13.320   0.397
22060SOL    HW168077  11.564  13.238   0.362
22060SOL    HW268078  11.531  13.385   0.377
22061SOL     OW68079   4.047   5.512  12.015
22061SOL    HW168080   4.106   5.477  11.949
22061SOL    HW268081   3.959   5.492  11.982
22062SOL     OW68082  11.451   7.272   3.529
22062SOL    HW168083  11.358   7.286   3.550
22062SOL    HW268084  11.449   7.224   3.446
22063SOL     OW68085  14.239  11.381   3.014
22063SOL    HW168086  14.328  11.396   2.982
22063SOL    HW268087  14.198  11.467   3.015
22064SOL     OW68088   2.537  11.219   5.773
22064SOL    HW168089   2.547  11.309   5.742
22064SOL    HW268090   2.519  11.168   5.694
22065SOL     OW68091   6.843  10.615  13.668
22065SOL    HW168092   6.809  10.666  13.741
22065SOL    HW268093   6.769  10.607  13.608
22066SOL     OW68094   8.647  13.803   7.608
22066SOL    HW168095   8.725  13.747   7.613
22066SOL    HW268096   8.601  13.773   7.530
22067SOL     OW68097  13.042   0.100  12.304
22067SOL    HW168098  13.007   0.021  12.344
22067SOL    HW268099  13.111   0.130  12.363
22068SOL     OW68100   8.641   1.347   0.456
22068SOL    HW168101   8.550   1.355   0.486
22068SOL    HW268102   8.645   1.403   0.378
22069SOL     OW68103  12.633   0.082   9.244
22069SOL    HW168104  12.709   0.107   9.296
22069SOL    HW268105  12.559   0.126   9.288
22070SOL     OW68106  10.085   2.403   8.706
22070SOL    HW168107  10.079   2.341   8.633
22070SOL    HW268108  10.096   2.488   8.664
22071SOL     OW68109   5.617  13.674   6.704
22071SOL    HW168110   5.544  13.663   6.764
22071SOL    HW268111   5.602  13.609   6.635
22072SOL     OW68112   8.715  12.677  14.373
22072SOL    HW168113   8.703  12.765  14.337
22072SOL    HW268114   8.770  12.632  14.309
22073SOL     OW68115   9.021   7.543  13.540
22073SOL    HW168116   9.077   7.499  13.604
22073SOL    HW268117   8.987   7.620  13.586
22074SOL     OW68118   6.106  11.484   7.054
22074SOL    HW168119   6.025  11.497   7.004
22074SOL    HW268120   6.135  11.396   7.030
22075SOL     OW68121   7.231   1.811  14.218
22075SOL    HW168122   7.317   1.831  14.256
22075SOL    HW268123   7.183   1.768  14.288
22076SOL     OW68124   9.371   8.686   3.367
22076SOL    HW168125   9.406   8.728   3.445
22076SOL    HW268126   9.407   8.597   3.369
22077SOL     OW68127   4.782  10.623   7.092
22077SOL    HW168128   4.807  10.595   7.180
22077SOL    HW268129   4.694  10.587   7.080
22078SOL     OW68130   1.440  11.176   1.515
22078SOL    HW168131   1.481  11.244   1.462
22078SOL    HW268132   1.512  11.116   1.536
22079SOL     OW68133   9.684  14.121   2.379
22079SOL    HW168134   9.723  14.047   2.333
22079SOL    HW268135   9.725  14.120   2.466
22080SOL     OW68136  14.518   1.897   6.745
22080SOL    HW168137  14.430   1.898   6.783
22080SOL    HW268138  14.532   1.986   6.714
22081SOL     OW68139   8.810  11.357   5.141
22081SOL    HW168140   8.732  11.346   5.088
22081SOL    HW268141   8.781  11.340   5.231
22082SOL     OW68142  12.011   4.132   2.075
22082SOL    HW168143  11.929   4.085   2.061
22082SOL    HW268144  11.988   4.202   2.137
22083SOL     OW68145   0.550   7.639   4.665
22083SOL    HW168146   0.503   7.560   4.691
22083SOL    HW268147   0.485   7.709   4.672
22084SOL     OW68148   4.381   1.605   5.085
22084SOL    HW168149   4.311   1.662   5.053
22084SOL    HW268150   4.461   1.646   5.053
22085SOL     OW68151   5.387  11.013   5.027
22085SOL    HW168152   5.454  11.036   5.091
22085SOL    HW268153   5.430  10.951   4.968
22086SOL     OW68154   5.655   6.498   6.601
22086SOL    HW168155   5.648   6.408   6.570
22086SOL    HW268156   5.681   6.491   6.692
22087SOL     OW68157  12.698   6.101   2.072
22087SOL    HW168158  12.676   6.192   2.054
22087SOL    HW268159  12.615   6.060   2.098
22088SOL     OW68160  11.813   5.225   5.975
22088SOL    HW168161  11.893   5.263   6.013
22088SOL    HW268162  11.742   5.267   6.023
22089SOL     OW68163  12.427  12.562   9.876
22089SOL    HW168164  12.384  12.542   9.959
22089SOL    HW268165  12.355  12.587   9.817
22090SOL     OW68166   4.865   4.816  10.342
22090SOL    HW168167   4.903   4.728  10.344
22090SOL    HW268168   4.929   4.871  10.388
22091SOL     OW68169   6.454   7.628  12.640
22091SOL    HW168170   6.494   7.714  12.633
22091SOL    HW268171   6.381   7.640  12.701
22092SOL     OW68172   9.373   9.627   2.866
22092SOL    HW168173   9.412   9.673   2.792
22092SOL    HW268174   9.314   9.692   2.905
22093SOL     OW68175  10.206  10.981   5.969
22093SOL    HW168176  10.114  10.981   5.993
22093SOL    HW268177  10.245  10.909   6.019
22094SOL     OW68178  11.592   2.781   8.825
22094SOL    HW168179  11.500   2.796   8.803
22094SOL    HW268180  11.608   2.837   8.901
22095SOL     OW68181   8.200   6.272  13.291
22095SOL    HW168182   8.202   6.177  13.302
22095SOL    HW268183   8.109   6.292  13.267
22096SOL     OW68184   4.421  14.858  13.061
22096SOL    HW168185   4.420   0.065  13.096
22096SOL    HW268186   4.412  14.802  13.138
22097SOL     OW68187   7.413   2.848  14.248
22097SOL    HW168188   7.463   2.877  14.324
22097SOL    HW268189   7.369   2.768  14.278
22098SOL     OW68190  13.747   9.019   6.557
22098SOL    HW168191  13.671   9.072   6.534
22098SOL    HW268192  13.754   8.956   6.485
22099SOL     OW68193   7.467   8.572   9.773
22099SOL    HW168194   7.534   8.517   9.731
22099SOL    HW268195   7.433   8.626   9.702
22100SOL     OW68196   1.299  10.432   5.936
22100SOL    HW168197   1.283  10.390   5.852
22100SOL    HW268198   1.365  10.499   5.918
22101SOL     OW68199  14.406  14.283   3.836
22101SOL    HW168200  14.387  14.376   3.823
22101SOL    HW268201  14.320  14.243   3.847
22102SOL     OW68202  11.992   7.144  10.575
22102SOL    HW168203  11.918   7.198  10.603
22102SOL    HW268204  12.068   7.182  10.618
22103SOL     OW68205  12.867   3.812   0.572
22103SOL    HW168206  12.805   3.875   0.538
22103SOL    HW268207  12.817   3.730   0.580
22104SOL     OW68208  12.681  12.488  12.926
22104SOL    HW168209  12.633  12.542  12.988
22104SOL    HW268210  12.628  12.489  12.847
22105SOL     OW68211   4.647   7.547  13.163
22105SOL    HW168212   4.658   7.577  13.073
22105SOL    HW268213   4.566   7.496  13.162
22106SOL     OW68214   3.678   6.654   0.421
22106SOL    HW168215   3.735   6.580   0.400
22106SOL    HW268216   3.594   6.614   0.445
22107SOL     OW68217   7.490   2.985   3.929
22107SOL    HW168218   7.401   2.952   3.910
22107SOL    HW268219   7.521   2.928   4.000
22108SOL     OW68220   5.984   5.803   4.048
22108SOL    HW168221   6.054   5.867   4.048
22108SOL    HW268222   5.951   5.802   3.958
22109SOL     OW68223   1.698   9.712   6.999
22109SOL    HW168224   1.674   9.803   6.980
22109SOL    HW268225   1.707   9.671   6.914
22110SOL     OW68226  14.473   0.666   7.048
22110SOL    HW168227  14.437   0.590   7.093
22110SOL    HW268228  14.403   0.695   6.990
22111SOL     OW68229   0.224   0.528   7.822
22111SOL    HW168230   0.182   0.553   7.904
22111SOL    HW268231   0.248   0.611   7.781
22112SOL     OW68232   3.514   9.199   1.477
22112SOL    HW168233   3.537   9.291   1.476
22112SOL    HW268234   3.498   9.178   1.569
22113SOL     OW68235   9.201   0.565  11.018
22113SOL    HW168236   9.293   0.572  11.044
22113SOL    HW268237   9.190   0.474  10.993
22114SOL     OW68238   3.275  12.430   1.910
22114SOL    HW168239   3.236  12.489   1.973
22114SOL    HW268240   3.259  12.342   1.945
22115SOL     OW68241   6.552   7.460  14.085
22115SOL    HW168242   6.537   7.512  14.163
22115SOL    HW268243   6.483   7.487  14.024
22116SOL     OW68244  12.772   4.552  13.724
22116SOL    HW168245  12.819   4.630  13.754
22116SOL    HW268246  12.838   4.501  13.677
22117SOL     OW68247   9.367  12.501  12.642
22117SOL    HW168248   9.349  12.556  12.566
22117SOL    HW268249   9.355  12.558  12.717
22118SOL     OW68250  14.469   6.613  14.567
22118SOL    HW168251  14.385   6.569  14.551
22118SOL    HW268252  14.497   6.644  14.481
22119SOL     OW68253   5.530  12.781  10.804
22119SOL    HW168254   5.512  12.687  10.808
22119SOL    HW268255   5.624  12.787  10.821
22120SOL     OW68256  11.578  14.149  14.120
22120SOL    HW168257  11.641  14.078  14.133
22120SOL    HW268258  11.601  14.186  14.035
22121SOL     OW68259   1.629   8.303  12.651
22121SOL    HW168260   1.606   8.216  12.621
22121SOL    HW268261   1.659   8.291  12.741
22122SOL     OW68262  12.704  14.281   5.682
22122SOL    HW168263  12.684  14.201   5.633
22122SOL    HW268264  12.643  14.346   5.648
22123SOL     OW68265   9.375   1.718   1.505
22123SOL    HW168266   9.432   1.664   1.560
22123SOL    HW268267   9.289   1.710   1.546
22124SOL     OW68268   3.283   6.876  11.767
22124SOL    HW168269   3.274   6.785  11.738
22124SOL    HW268270   3.335   6.918  11.698
22125SOL     OW68271  11.660  13.236  14.207
22125SOL    HW168272  11.652  13.242  14.111
22125SOL    HW268273  11.730  13.173  14.221
22126SOL     OW68274   5.358   9.675   2.957
22126SOL    HW168275   5.446   9.710   2.973
22126SOL    HW268276   5.369   9.619   2.880
22127SOL     OW68277  13.950   5.472  11.088
22127SOL    HW168278  13.876   5.440  11.035
22127SOL    HW268279  13.931   5.565  11.102
22128SOL     OW68280   3.250   8.939   0.016
22128SOL    HW168281   3.274   8.885  14.822
22128SOL    HW268282   3.155   8.929   0.023
22129SOL     OW68283   2.444   7.004  10.854
22129SOL    HW168284   2.496   6.928  10.827
22129SOL    HW268285   2.508   7.072  10.874
22130SOL     OW68286   6.142   9.676   6.799
22130SOL    HW168287   6.181   9.733   6.865
22130SOL    HW268288   6.164   9.717   6.715
22131SOL     OW68289  10.509   3.689   4.030
22131SOL    HW168290  10.534   3.619   4.089
22131SOL    HW268291  10.414   3.694   4.038
22132SOL     OW68292   0.274   7.831   1.613
22132SOL    HW168293   0.358   7.784   1.608
22132SOL    HW268294   0.285   7.905   1.553
22133SOL     OW68295   2.222   7.456   0.095
22133SOL    HW168296   2.257   7.545   0.098
22133SOL    HW268297   2.300   7.400   0.091
22134SOL     OW68298  13.293   4.689  10.199
22134SOL    HW168299  13.284   4.689  10.294
22134SOL    HW268300  13.258   4.773  10.172
22135SOL     OW68301   4.509  12.790   2.094
22135SOL    HW168302   4.522  12.857   2.027
22135SOL    HW268303   4.597  12.759   2.115
22136SOL     OW68304   1.573  11.484   9.150
22136SOL    HW168305   1.623  11.566   9.153
22136SOL    HW268306   1.490  11.509   9.110
22137SOL     OW68307   2.520  10.763   9.806
22137SOL    HW168308   2.501  10.778   9.899
22137SOL    HW268309   2.457  10.819   9.760
22138SOL     OW68310  13.253   1.657   6.752
22138SOL    HW168311  13.228   1.584   6.696
22138SOL    HW268312  13.171   1.684   6.793
22139SOL     OW68313  12.999  14.017   1.709
22139SOL    HW168314  13.019  14.022   1.802
22139SOL    HW268315  13.046  13.939   1.678
22140SOL     OW68316   8.217   6.688   7.622
22140SOL    HW168317   8.156   6.726   7.686
22140SOL    HW268318   8.276   6.760   7.599
22141SOL     OW68319   0.108   9.041  14.083
22141SOL    HW168320   0.178   8.992  14.040
22141SOL    HW268321   0.106   9.125  14.037
22142SOL     OW68322   4.982   4.606   0.552
22142SOL    HW168323   4.987   4.694   0.514
22142SOL    HW268324   4.897   4.572   0.523
22143SOL     OW68325   3.478   1.513   4.234
22143SOL    HW168326   3.519   1.472   4.158
22143SOL    HW268327   3.384   1.508   4.217
22144SOL     OW68328   2.482  13.524   8.146
22144SOL    HW168329   2.562  13.573   8.128
22144SOL    HW268330   2.502  13.472   8.223
22145SOL     OW68331   9.373   2.420   5.769
22145SOL    HW168332   9.461   2.398   5.740
22145SOL    HW268333   9.370   2.391   5.861
22146SOL     OW68334   0.238   5.130  11.160
22146SOL    HW168335   0.172   5.178  11.209
22146SOL    HW268336   0.228   5.039  11.189
22147SOL     OW68337   1.204  14.330   7.321
22147SOL    HW168338   1.274  14.290   7.373
22147SOL    HW268339   1.124  14.284   7.348
22148SOL     OW68340   4.458  10.782   1.631
22148SOL    HW168341   4.466  10.844   1.559
22148SOL    HW268342   4.504  10.825   1.704
22149SOL     OW68343   2.148  12.235   8.263
22149SOL    HW168344   2.071  12.272   8.306
22149SOL    HW268345   2.174  12.162   8.319
22150SOL     OW68346  10.055   5.147  14.516
22150SOL    HW168347  10.126   5.212  14.515
22150SOL    HW268348  10.082   5.082  14.451
22151SOL     OW68349   7.446  12.166   8.245
22151SOL    HW168350   7.456  12.141   8.336
22151SOL    HW268351   7.432  12.261   8.246
22152SOL     OW68352   1.058   3.290   5.101
22152SOL    HW168353   1.044   3.319   5.191
22152SOL    HW268354   1.075   3.371   5.052
22153SOL     OW68355  14.385   4.760  10.243
22153SOL    HW168356  14.472   4.798  10.258
22153SOL    HW268357  14.400   4.690  10.179
22154SOL     OW68358  10.661  14.162  12.056
22154SOL    HW168359  10.715  14.231  12.094
22154SOL    HW268360  10.619  14.204  11.980
22155SOL     OW68361  13.781   9.808  13.307
22155SOL    HW168362  13.825   9.875  13.255
22155SOL    HW268363  13.689   9.834  13.308
22156SOL     OW68364  10.626   2.118   5.488
22156SOL    HW168365  10.577   2.159   5.416
22156SOL    HW268366  10.649   2.191   5.546
22157SOL     OW68367   5.324   6.472  10.698
22157SOL    HW168368   5.238   6.480  10.739
22157SOL    HW268369   5.382   6.445  10.769
22158SOL     OW68370   1.145   4.893  14.503
22158SOL    HW168371   1.108   4.965  14.554
22158SOL    HW268372   1.154   4.929  14.414
22159SOL     OW68373  14.821   8.595   8.558
22159SOL    HW168374  14.830   8.602   8.463
22159SOL    HW268375  14.728   8.575   8.572
22160SOL     OW68376   0.735   0.975   3.109
22160SOL    HW168377   0.800   1.002   3.043
22160SOL    HW268378   0.771   0.896   3.148
22161SOL     OW68379   4.589   0.424   7.341
22161SOL    HW168380   4.575   0.515   7.314
22161SOL    HW268381   4.685   0.414   7.342
22162SOL     OW68382   8.083   0.451   7.989
22162SOL    HW168383   8.175   0.470   8.005
22162SOL    HW268384   8.041   0.537   7.987
22163SOL     OW68385   2.664   5.435   9.571
22163SOL    HW168386   2.685   5.492   9.645
22163SOL    HW268387   2.577   5.464   9.543
22164SOL     OW68388   8.700   1.539  10.385
22164SOL    HW168389   8.615   1.496  10.386
22164SOL    HW268390   8.757   1.481  10.436
22165SOL     OW68391  13.035  11.217   3.585
22165SOL    HW168392  13.001  11.141   3.538
22165SOL    HW268393  12.956  11.265   3.613
22166SOL     OW68394  11.378   2.295   7.943
22166SOL    HW168395  11.446   2.341   7.991
22166SOL    HW268396  11.320   2.364   7.911
22167SOL     OW68397   8.729  11.006   0.340
22167SOL    HW168398   8.819  11.006   0.375
22167SOL    HW268399   8.712  11.097   0.318
22168SOL     OW68400   3.495  13.908  11.591
22168SOL    HW168401   3.451  13.900  11.507
22168SOL    HW268402   3.462  13.834  11.642
22169SOL     OW68403   7.686   6.859  14.519
22169SOL    HW168404   7.594   6.884  14.524
22169SOL    HW268405   7.685   6.763  14.527
22170SOL     OW68406   8.243  13.052   1.942
22170SOL    HW168407   8.172  13.061   2.006
22170SOL    HW268408   8.198  13.040   1.859
22171SOL     OW68409   2.951  10.749   1.469
22171SOL    HW168410   2.914  10.820   1.522
22171SOL    HW268411   2.877  10.718   1.416
22172SOL     OW68412   8.900   4.534   6.115
22172SOL    HW168413   8.892   4.563   6.206
22172SOL    HW268414   8.943   4.449   6.121
22173SOL     OW68415  12.414   2.268  11.864
22173SOL    HW168416  12.471   2.333  11.825
22173SOL    HW268417  12.386   2.307  11.947
22174SOL     OW68418  13.532  14.792  13.831
22174SOL    HW168419  13.453  14.846  13.842
22174SOL    HW268420  13.530  14.733  13.907
22175SOL     OW68421   0.439   0.131   6.937
22175SOL    HW168422   0.485   0.051   6.911
22175SOL    HW268423   0.456   0.139   7.031
22176SOL     OW68424   5.282   6.694   8.146
22176SOL    HW168425   5.347   6.671   8.081
22176SOL    HW268426   5.272   6.789   8.138
22177SOL     OW68427   4.756  13.960   9.404
22177SOL    HW168428   4.789  13.928   9.488
22177SOL    HW268429   4.812  14.036   9.384
22178SOL     OW68430   3.778   9.615   3.607
22178SOL    HW168431   3.715   9.683   3.629
22178SOL    HW268432   3.864   9.656   3.619
22179SOL     OW68433  11.057   7.439  11.973
22179SOL    HW168434  11.119   7.376  12.010
22179SOL    HW268435  10.971   7.410  12.005
22180SOL     OW68436  11.190  13.731  13.005
22180SOL    HW168437  11.209  13.820  13.035
22180SOL    HW268438  11.104  13.711  13.042
22181SOL     OW68439  10.347   2.721  10.889
22181SOL    HW168440  10.319   2.650  10.832
22181SOL    HW268441  10.280   2.788  10.879
22182SOL     OW68442  12.307  14.483   0.751
22182SOL    HW168443  12.338  14.568   0.782
22182SOL    HW268444  12.333  14.479   0.659
22183SOL     OW68445   6.186   8.409   7.199
22183SOL    HW168446   6.112   8.468   7.216
22183SOL    HW268447   6.226   8.395   7.285
22184SOL     OW68448   4.755   2.146   2.319
22184SOL    HW168449   4.746   2.081   2.389
22184SOL    HW268450   4.727   2.100   2.240
22185SOL     OW68451   4.770   3.614   9.132
22185SOL    HW168452   4.807   3.552   9.069
22185SOL    HW268453   4.813   3.697   9.112
22186SOL     OW68454   3.853   4.584   8.429
22186SOL    HW168455   3.836   4.544   8.344
22186SOL    HW268456   3.931   4.540   8.462
22187SOL     OW68457  11.098  11.829   8.366
22187SOL    HW168458  11.061  11.747   8.334
22187SOL    HW268459  11.046  11.897   8.324
22188SOL     OW68460  10.209  11.677  13.150
22188SOL    HW168461  10.139  11.743  13.156
22188SOL    HW268462  10.265  11.708  13.079
22189SOL     OW68463   4.420  10.574   0.300
22189SOL    HW168464   4.429  10.645   0.364
22189SOL    HW268465   4.470  10.501   0.337
22190SOL     OW68466  14.806  11.287   2.231
22190SOL    HW168467  14.877  11.325   2.179
22190SOL    HW268468  14.798  11.345   2.307
22191SOL     OW68469   2.631   0.779   6.057
22191SOL    HW168470   2.563   0.839   6.025
22191SOL    HW268471   2.712   0.814   6.020
22192SOL     OW68472   0.083   4.978   2.563
22192SOL    HW168473   0.027   4.918   2.614
22192SOL    HW268474   0.030   5.000   2.486
22193SOL     OW68475   9.960  14.234   5.738
22193SOL    HW168476  10.013  14.286   5.677
22193SOL    HW268477   9.924  14.298   5.799
22194SOL     OW68478   1.889   5.864  14.233
22194SOL    HW168479   1.969   5.909  14.205
22194SOL    HW268480   1.818   5.919  14.201
22195SOL     OW68481   0.103   9.503   7.166
22195SOL    HW168482   0.008   9.497   7.166
22195SOL    HW268483   0.122   9.591   7.197
22196SOL     OW68484   9.921  11.488   6.056
22196SOL    HW168485   9.898  11.493   5.963
22196SOL    HW268486   9.927  11.394   6.074
22197SOL     OW68487   9.845  10.362   8.211
22197SOL    HW168488   9.907  10.415   8.161
22197SOL    HW268489   9.880  10.361   8.300
22198SOL     OW68490   5.621  10.517  12.242
22198SOL    HW168491   5.700  10.535  12.191
22198SOL    HW268492   5.574  10.600  12.245
22199SOL     OW68493   8.692  10.590   8.731
22199SOL    HW168494   8.733  10.565   8.648
22199SOL    HW268495   8.753  10.652   8.771
22200SOL     OW68496   2.893  14.430   5.852
22200SOL    HW168497   2.843  14.357   5.814
22200SOL    HW268498   2.960  14.387   5.905
22201SOL     OW68499   2.857   2.331   2.587
22201SOL    HW168500   2.809   2.260   2.543
22201SOL    HW268501   2.789   2.387   2.623
22202SOL     OW68502   4.219   2.687   1.626
22202SOL    HW168503   4.257   2.668   1.712
22202SOL    HW268504   4.127   2.706   1.645
22203SOL     OW68505   9.944  13.229   8.834
22203SOL    HW168506   9.985  13.311   8.863
22203SOL    HW268507  10.015  13.180   8.793
22204SOL     OW68508   6.304  10.099   1.571
22204SOL    HW168509   6.282  10.027   1.512
22204SOL    HW268510   6.349  10.163   1.515
22205SOL     OW68511   1.562  10.794   7.999
22205SOL    HW168512   1.587  10.719   8.053
22205SOL    HW268513   1.599  10.870   8.044
22206SOL     OW68514   6.275   5.770   9.976
22206SOL    HW168515   6.354   5.718   9.990
22206SOL    HW268516   6.206   5.719  10.018
22207SOL     OW68517   7.808  11.468   3.144
22207SOL    HW168518   7.757  11.507   3.215
22207SOL    HW268519   7.883  11.428   3.188
22208SOL     OW68520   2.409   9.996  11.892
22208SOL    HW168521   2.407  10.056  11.818
22208SOL    HW268522   2.441  10.049  11.965
22209SOL     OW68523  14.117  10.399   2.495
22209SOL    HW168524  14.179  10.368   2.429
22209SOL    HW268525  14.037  10.418   2.446
22210SOL     OW68526   7.966  11.697  11.836
22210SOL    HW168527   7.964  11.720  11.929
22210SOL    HW268528   7.876  11.709  11.806
22211SOL     OW68529  11.034   7.194  12.740
22211SOL    HW168530  11.057   7.276  12.784
22211SOL    HW268531  11.087   7.194  12.660
22212SOL     OW68532   8.909   0.444   0.541
22212SOL    HW168533   8.933   0.368   0.594
22212SOL    HW268534   8.941   0.519   0.592
22213SOL     OW68535  13.282   0.980   7.033
22213SOL    HW168536  13.213   1.004   6.971
22213SOL    HW268537  13.291   0.885   7.024
22214SOL     OW68538   4.873  13.346   6.909
22214SOL    HW168539   4.907  13.363   6.998
22214SOL    HW268540   4.919  13.267   6.881
22215SOL     OW68541   8.444  10.002  10.862
22215SOL    HW168542   8.520   9.992  10.805
22215SOL    HW268543   8.470  10.069  10.925
22216SOL     OW68544   5.997   4.107  10.714
22216SOL    HW168545   6.008   4.015  10.689
22216SOL    HW268546   5.916   4.109  10.763
22217SOL     OW68547  11.029   6.920   6.289
22217SOL    HW168548  10.969   6.852   6.258
22217SOL    HW268549  11.019   6.919   6.384
22218SOL     OW68550  11.700   3.701  14.766
22218SOL    HW168551  11.748   3.778  14.795
22218SOL    HW268552  11.636   3.685  14.835
22219SOL     OW68553   1.339   1.545   5.664
22219SOL    HW168554   1.247   1.534   5.690
22219SOL    HW268555   1.373   1.456   5.655
22220SOL     OW68556   4.229   1.203   6.082
22220SOL    HW168557   4.301   1.143   6.060
22220SOL    HW268558   4.152   1.164   6.042
22221SOL     OW68559  10.491  11.394   0.391
22221SOL    HW168560  10.428  11.430   0.453
22221SOL    HW268561  10.477  11.444   0.311
22222SOL     OW68562  12.111  13.487   3.660
22222SOL    HW168563  12.049  13.506   3.730
22222SOL    HW268564  12.170  13.422   3.697
22223SOL     OW68565   9.516   8.363   2.036
22223SOL    HW168566   9.561   8.447   2.043
22223SOL    HW268567   9.442   8.370   2.096
22224SOL     OW68568   3.573   9.576   0.843
22224SOL    HW168569   3.659   9.557   0.805
22224SOL    HW268570   3.580   9.666   0.876
22225SOL     OW68571   2.248  14.845   6.233
22225SOL    HW168572   2.240  14.763   6.184
22225SOL    HW268573   2.188  14.836   6.307
22226SOL     OW68574   9.320   4.295   6.288
22226SOL    HW168575   9.371   4.360   6.241
22226SOL    HW268576   9.266   4.253   6.221
22227SOL     OW68577  13.488  13.648   7.487
22227SOL    HW168578  13.501  13.711   7.417
22227SOL    HW268579  13.429  13.583   7.450
22228SOL     OW68580   2.543  12.220   3.012
22228SOL    HW168581   2.632  12.234   3.044
22228SOL    HW268582   2.497  12.302   3.030
22229SOL     OW68583  12.736   0.890   0.335
22229SOL    HW168584  12.693   0.859   0.256
22229SOL    HW268585  12.828   0.902   0.310
22230SOL     OW68586   2.347  11.856   4.953
22230SOL    HW168587   2.394  11.923   5.003
22230SOL    HW268588   2.294  11.906   4.890
22231SOL     OW68589   5.237   9.544  12.428
22231SOL    HW168590   5.310   9.532  12.368
22231SOL    HW268591   5.238   9.465  12.482
22232SOL     OW68592  14.513   9.141  11.175
22232SOL    HW168593  14.584   9.079  11.189
22232SOL    HW268594  14.459   9.134  11.254
22233SOL     OW68595  10.098   0.526   8.783
22233SOL    HW168596  10.131   0.600   8.833
22233SOL    HW268597  10.175   0.486   8.743
22234SOL     OW68598   2.324   3.266   2.032
22234SOL    HW168599   2.302   3.348   1.986
22234SOL    HW268600   2.244   3.215   2.030
22235SOL     OW68601  10.925   4.159   2.566
22235SOL    HW168602  10.925   4.081   2.622
22235SOL    HW268603  10.927   4.124   2.477
22236SOL     OW68604   8.568   9.184   4.935
22236SOL    HW168605   8.501   9.175   4.867
22236SOL    HW268606   8.576   9.096   4.973
22237SOL     OW68607   9.888   3.145   6.512
22237SOL    HW168608   9.835   3.220   6.484
22237SOL    HW268609   9.920   3.170   6.599
22238SOL     OW68610   5.031   1.979  13.073
22238SOL    HW168611   5.059   1.999  13.163
22238SOL    HW268612   4.941   2.011  13.068
22239SOL     OW68613   1.135   9.132  13.271
22239SOL    HW168614   1.092   9.056  13.231
22239SOL    HW268615   1.078   9.157  13.344
22240SOL     OW68616   5.453  12.532   2.606
22240SOL    HW168617   5.423  12.563   2.692
22240SOL    HW268618   5.396  12.457   2.587
22241SOL     OW68619   6.599   3.610  12.547
22241SOL    HW168620   6.665   3.574  12.606
22241SOL    HW268621   6.588   3.543  12.479
22242SOL     OW68622   0.894   8.729   2.196
22242SOL    HW168623   0.822   8.732   2.132
22242SOL    HW268624   0.948   8.656   2.167
22243SOL     OW68625  14.731   1.112   5.870
22243SOL    HW168626  14.724   1.020   5.843
22243SOL    HW268627  14.817   1.140   5.836
22244SOL     OW68628   2.566   9.985   2.802
22244SOL    HW168629   2.476   9.952   2.808
22244SOL    HW268630   2.591  10.003   2.893
22245SOL     OW68631   3.534   6.068   8.544
22245SOL    HW168632   3.528   6.130   8.471
22245SOL    HW268633   3.594   6.000   8.513
22246SOL     OW68634   3.594   0.811   7.538
22246SOL    HW168635   3.586   0.750   7.465
22246SOL    HW268636   3.677   0.857   7.523
22247SOL     OW68637   8.306   8.894   4.890
22247SOL    HW168638   8.272   8.816   4.935
22247SOL    HW268639   8.340   8.860   4.807
22248SOL     OW68640   9.318   3.860   7.368
22248SOL    HW168641   9.242   3.899   7.410
22248SOL    HW268642   9.358   3.805   7.436
22249SOL     OW68643   5.731   9.631   3.596
22249SOL    HW168644   5.814   9.678   3.607
22249SOL    HW268645   5.708   9.603   3.685
22250SOL     OW68646   9.020   8.448  14.436
22250SOL    HW168647   8.954   8.395  14.482
22250SOL    HW268648   8.976   8.478  14.357
22251SOL     OW68649  11.713   9.718  12.913
22251SOL    HW168650  11.650   9.650  12.939
22251SOL    HW268651  11.799   9.682  12.938
22252SOL     OW68652   5.502   2.167   0.804
22252SOL    HW168653   5.537   2.255   0.818
22252SOL    HW268654   5.411   2.181   0.780
22253SOL     OW68655   6.924   3.989   9.425
22253SOL    HW168656   6.932   4.068   9.477
22253SOL    HW268657   6.896   3.922   9.487
22254SOL     OW68658  14.661   3.637   3.056
22254SOL    HW168659  14.597   3.567   3.063
22254SOL    HW268660  14.658   3.664   2.965
22255SOL     OW68661   2.444   9.814  13.180
22255SOL    HW168662   2.436   9.823  13.085
22255SOL    HW268663   2.441   9.719  13.195
22256SOL     OW68664   2.145   3.558   2.292
22256SOL    HW168665   2.094   3.482   2.319
22256SOL    HW268666   2.122   3.571   2.200
22257SOL     OW68667   8.385   9.543  10.417
22257SOL    HW168668   8.306   9.495  10.442
22257SOL    HW268669   8.366   9.634  10.440
22258SOL     OW68670   1.795   3.626   7.522
22258SOL    HW168671   1.847   3.625   7.602
22258SOL    HW268672   1.760   3.715   7.516
22259SOL     OW68673   3.650  14.708   0.638
22259SOL    HW168674   3.622  14.640   0.699
22259SOL    HW268675   3.700  14.661   0.571
22260SOL     OW68676   7.001   4.630   8.932
22260SOL    HW168677   6.983   4.542   8.899
22260SOL    HW268678   7.003   4.685   8.853
22261SOL     OW68679   7.538  13.577   1.349
22261SOL    HW168680   7.602  13.586   1.279
22261SOL    HW268681   7.580  13.617   1.425
22262SOL     OW68682  14.738   2.691   1.600
22262SOL    HW168683  14.717   2.597   1.602
22262SOL    HW268684  14.824   2.697   1.642
22263SOL     OW68685   7.278   8.115  13.160
22263SOL    HW168686   7.271   8.173  13.237
22263SOL    HW268687   7.371   8.113  13.140
22264SOL     OW68688   7.133  14.522  14.100
22264SOL    HW168689   7.141  14.556  14.011
22264SOL    HW268690   7.048  14.478  14.102
22265SOL     OW68691   6.201   8.548   9.640
22265SOL    HW168692   6.221   8.480   9.575
22265SOL    HW268693   6.161   8.500   9.713
22266SOL     OW68694   7.057  11.913   5.157
22266SOL    HW168695   6.982  11.862   5.188
22266SOL    HW268696   7.070  11.979   5.225
22267SOL     OW68697   7.790   6.971  10.236
22267SOL    HW168698   7.800   7.066  10.235
22267SOL    HW268699   7.722   6.955  10.302
22268SOL     OW68700   1.520   9.913   9.304
22268SOL    HW168701   1.552   9.860   9.231
22268SOL    HW268702   1.473   9.850   9.359
22269SOL     OW68703   6.852   7.062   0.730
22269SOL    HW168704   6.765   7.077   0.766
22269SOL    HW268705   6.871   7.140   0.677
22270SOL     OW68706   4.539  11.050   5.163
22270SOL    HW168707   4.454  11.094   5.150
22270SOL    HW268708   4.600  11.120   5.184
22271SOL     OW68709   1.729   1.628   1.498
22271SOL    HW168710   1.823   1.627   1.514
22271SOL    HW268711   1.701   1.716   1.525
22272SOL     OW68712  10.397   0.513  13.973
22272SOL    HW168713  10.416   0.522  14.066
22272SOL    HW268714  10.303   0.494  13.969
22273SOL     OW68715   8.543   7.018   3.214
22273SOL    HW168716   8.498   6.952   3.267
22273SOL    HW268717   8.509   7.101   3.247
22274SOL     OW68718  12.256   8.355   2.667
22274SOL    HW168719  12.344   8.389   2.655
22274SOL    HW268720  12.217   8.412   2.733
22275SOL     OW68721   4.374   7.563  12.782
22275SOL    HW168722   4.302   7.554  12.720
22275SOL    HW268723   4.368   7.653  12.813
22276SOL     OW68724  14.654  12.473   9.492
22276SOL    HW168725  14.717  12.464   9.421
22276SOL    HW268726  14.568  12.466   9.449
22277SOL     OW68727   8.725   7.045   6.497
22277SOL    HW168728   8.690   6.986   6.430
22277SOL    HW268729   8.790   7.098   6.451
22278SOL     OW68730  11.629   5.218  13.785
22278SOL    HW168731  11.556   5.158  13.795
22278SOL    HW268732  11.613   5.287  13.849
22279SOL     OW68733   6.573   8.917  10.477
22279SOL    HW168734   6.488   8.960  10.491
22279SOL    HW268735   6.554   8.845  10.418
22280SOL     OW68736  11.013   8.616  11.321
22280SOL    HW168737  11.067   8.572  11.255
22280SOL    HW268738  11.036   8.709  11.313
22281SOL     OW68739   0.585   4.361  14.317
22281SOL    HW168740   0.618   4.369  14.228
22281SOL    HW268741   0.647   4.411  14.370
22282SOL     OW68742   8.560   8.932  14.415
22282SOL    HW168743   8.496   8.956  14.349
22282SOL    HW268744   8.552   9.000  14.482
22283SOL     OW68745   8.283  13.806  10.187
22283SOL    HW168746   8.293  13.765  10.101
22283SOL    HW268747   8.333  13.887  10.182
22284SOL     OW68748   6.559   7.106   6.160
22284SOL    HW168749   6.607   7.171   6.109
22284SOL    HW268750   6.527   7.153   6.237
22285SOL     OW68751   4.512   0.894   5.632
22285SOL    HW168752   4.561   0.814   5.612
22285SOL    HW268753   4.549   0.924   5.715
22286SOL     OW68754  10.972   8.400  14.161
22286SOL    HW168755  10.927   8.479  14.130
22286SOL    HW268756  10.902   8.341  14.189
22287SOL     OW68757   5.231   7.560  11.870
22287SOL    HW168758   5.246   7.467  11.888
22287SOL    HW268759   5.249   7.604  11.953
22288SOL     OW68760   4.351   7.975   3.115
22288SOL    HW168761   4.337   7.985   3.209
22288SOL    HW268762   4.319   8.057   3.077
22289SOL     OW68763  10.039   3.700   8.192
22289SOL    HW168764  10.046   3.634   8.123
22289SOL    HW268765  10.012   3.780   8.146
22290SOL     OW68766   2.087   2.331   5.199
22290SOL    HW168767   2.038   2.392   5.254
22290SOL    HW268768   2.025   2.306   5.130
22291SOL     OW68769  11.948  10.642  10.276
22291SOL    HW168770  11.953  10.567  10.217
22291SOL    HW268771  12.040  10.666  10.290
22292SOL     OW68772   2.255  13.005  11.487
22292SOL    HW168773   2.264  12.910  11.498
22292SOL    HW268774   2.176  13.027  11.537
22293SOL     OW68775  12.669   6.789   1.606
22293SOL    HW168776  12.661   6.751   1.518
22293SOL    HW268777  12.687   6.881   1.591
22294SOL     OW68778   3.821  13.193   3.537
22294SOL    HW168779   3.780  13.262   3.588
22294SOL    HW268780   3.783  13.201   3.450
22295SOL     OW68781  14.693   7.373   2.063
22295SOL    HW168782  14.635   7.446   2.085
22295SOL    HW268783  14.776   7.414   2.039
22296SOL     OW68784  12.420  11.212   4.712
22296SOL    HW168785  12.434  11.117   4.717
22296SOL    HW268786  12.386  11.227   4.624
22297SOL     OW68787   6.359   2.670   0.978
22297SOL    HW168788   6.287   2.732   0.990
22297SOL    HW268789   6.370   2.628   1.063
22298SOL     OW68790   4.129   2.800   9.306
22298SOL    HW168791   4.178   2.744   9.367
22298SOL    HW268792   4.045   2.814   9.349
22299SOL     OW68793  11.485   0.068  10.391
22299SOL    HW168794  11.517   0.081  10.481
22299SOL    HW268795  11.407   0.123  10.385
22300SOL     OW68796  11.203   6.005   1.296
22300SOL    HW168797  11.125   6.042   1.255
22300SOL    HW268798  11.181   6.001   1.390
22301SOL     OW68799  10.932   4.740  10.690
22301SOL    HW168800  10.899   4.740  10.600
22301SOL    HW268801  10.893   4.662  10.729
22302SOL     OW68802   1.517   4.283   2.552
22302SOL    HW168803   1.541   4.266   2.460
22302SOL    HW268804   1.472   4.204   2.580
22303SOL     OW68805   8.956   9.964  10.982
22303SOL    HW168806   8.871   9.935  10.949
22303SOL    HW268807   8.936  10.020  11.056
22304SOL     OW68808  11.832   1.457   8.269
22304SOL    HW168809  11.766   1.495   8.326
22304SOL    HW268810  11.793   1.460   8.182
22305SOL     OW68811   4.863   0.816  10.236
22305SOL    HW168812   4.869   0.911  10.244
22305SOL    HW268813   4.805   0.789  10.306
22306SOL     OW68814  11.471  11.026   3.413
22306SOL    HW168815  11.415  11.097   3.382
22306SOL    HW268816  11.442  11.010   3.503
22307SOL     OW68817  10.073   8.681   1.353
22307SOL    HW168818  10.038   8.768   1.337
22307SOL    HW268819  10.135   8.693   1.426
22308SOL     OW68820  12.009   4.192  14.316
22308SOL    HW168821  11.990   4.225  14.403
22308SOL    HW268822  11.961   4.250  14.257
22309SOL     OW68823  14.002  11.923   8.812
22309SOL    HW168824  14.091  11.900   8.836
22309SOL    HW268825  13.955  11.927   8.896
22310SOL     OW68826   1.767   1.752  13.946
22310SOL    HW168827   1.681   1.770  13.983
22310SOL    HW268828   1.793   1.834  13.905
22311SOL     OW68829  10.158   5.348  10.014
22311SOL    HW168830  10.213   5.416  10.053
22311SOL    HW268831  10.131   5.293  10.088
22312SOL     OW68832   2.928   2.542   1.671
22312SOL    HW168833   2.871   2.524   1.596
22312SOL    HW268834   3.017   2.539   1.634
22313SOL     OW68835   1.129   6.920   0.793
22313SOL    HW168836   1.064   6.884   0.854
22313SOL    HW268837   1.112   6.876   0.710
22314SOL     OW68838  10.011   9.907   4.248
22314SOL    HW168839  10.087   9.907   4.305
22314SOL    HW268840  10.047   9.899   4.160
22315SOL     OW68841  13.717   7.837   3.470
22315SOL    HW168842  13.750   7.838   3.380
22315SOL    HW268843  13.682   7.924   3.484
22316SOL     OW68844   9.405   4.360   1.200
22316SOL    HW168845   9.435   4.368   1.110
22316SOL    HW268846   9.318   4.319   1.193
22317SOL     OW68847   4.858   1.555   5.530
22317SOL    HW168848   4.892   1.622   5.588
22317SOL    HW268849   4.919   1.482   5.538
22318SOL     OW68850  13.243   9.231   7.806
22318SOL    HW168851  13.165   9.223   7.861
22318SOL    HW268852  13.230   9.167   7.736
22319SOL     OW68853  10.275  14.450   5.105
22319SOL    HW168854  10.222  14.444   5.025
22319SOL    HW268855  10.220  14.500   5.165
22320SOL     OW68856   7.164   1.973   8.554
22320SOL    HW168857   7.205   1.893   8.522
22320SOL    HW268858   7.205   2.043   8.504
22321SOL     OW68859  13.069   7.098  11.989
22321SOL    HW168860  13.122   7.177  11.979
22321SOL    HW268861  13.133   7.026  11.991
22322SOL     OW68862  11.526  11.025  10.674
22322SOL    HW168863  11.584  11.055  10.605
22322SOL    HW268864  11.573  10.951  10.714
22323SOL     OW68865   7.895  13.980   8.245
22323SOL    HW168866   7.831  14.040   8.284
22323SOL    HW268867   7.871  13.894   8.281
22324SOL     OW68868  11.886   8.285   5.169
22324SOL    HW168869  11.880   8.298   5.263
22324SOL    HW268870  11.835   8.206   5.152
22325SOL     OW68871  10.956  11.487   2.907
22325SOL    HW168872  10.871  11.485   2.951
22325SOL    HW268873  10.972  11.396   2.882
22326SOL     OW68874   8.651   2.277  10.476
22326SOL    HW168875   8.576   2.300  10.531
22326SOL    HW268876   8.707   2.354  10.479
22327SOL     OW68877   5.473   3.103   9.911
22327SOL    HW168878   5.459   3.080   9.819
22327SOL    HW268879   5.386   3.099   9.951
22328SOL     OW68880   7.511  10.153  12.936
22328SOL    HW168881   7.438  10.212  12.955
22328SOL    HW268882   7.556  10.143  13.020
22329SOL     OW68883   5.634  14.599  10.537
22329SOL    HW168884   5.635  14.650  10.456
22329SOL    HW268885   5.627  14.664  10.607
22330SOL     OW68886  10.249   6.453  11.842
22330SOL    HW168887  10.163   6.426  11.874
22330SOL    HW268888  10.236   6.542  11.809
22331SOL     OW68889   0.906   1.848   0.827
22331SOL    HW168890   0.891   1.753   0.830
22331SOL    HW268891   0.983   1.858   0.772
22332SOL     OW68892   2.918  14.360  10.616
22332SOL    HW168893   2.976  14.285  10.613
22332SOL    HW268894   2.881  14.366  10.528
22333SOL     OW68895   2.185  13.378  13.049
22333SOL    HW168896   2.141  13.453  13.089
22333SOL    HW268897   2.122  13.307  13.056
22334SOL     OW68898  12.243   9.217   4.176
22334SOL    HW168899  12.242   9.211   4.271
22334SOL    HW268900  12.153   9.195   4.150
22335SOL     OW68901   0.619  12.672   7.162
22335SOL    HW168902   0.704  12.628   7.168
22335SOL    HW268903   0.627  12.729   7.086
22336SOL     OW68904  14.711  10.291   0.846
22336SOL    HW168905  14.671  10.244   0.919
22336SOL    HW268906  14.781  10.234   0.816
22337SOL     OW68907   9.469  13.654  10.396
22337SOL    HW168908   9.498  13.567  10.367
22337SOL    HW268909   9.536  13.683  10.457
22338SOL     OW68910   9.866   5.542   0.467
22338SOL    HW168911   9.954   5.572   0.493
22338SOL    HW268912   9.869   5.539   0.372
22339SOL     OW68913   0.653   4.814   8.188
22339SOL    HW168914   0.634   4.754   8.260
22339SOL    HW268915   0.746   4.833   8.197
22340SOL     OW68916  13.153   2.326   7.349
22340SOL    HW168917  13.165   2.357   7.259
22340SOL    HW268918  13.073   2.273   7.345
22341SOL     OW68919   1.595   4.116  10.176
22341SOL    HW168920   1.518   4.101  10.230
22341SOL    HW268921   1.561   4.132  10.088
22342SOL     OW68922  10.906   4.300   3.011
22342SOL    HW168923  10.845   4.231   3.035
22342SOL    HW268924  10.993   4.264   3.029
22343SOL     OW68925   7.825  12.097   1.238
22343SOL    HW168926   7.820  12.068   1.147
22343SOL    HW268927   7.754  12.161   1.247
22344SOL     OW68928  13.395  12.103  14.811
22344SOL    HW168929  13.301  12.094  14.828
22344SOL    HW268930  13.433  12.116   0.016
22345SOL     OW68931  12.294  12.062   0.134
22345SOL    HW168932  12.377  12.106   0.113
22345SOL    HW268933  12.231  12.134   0.144
22346SOL     OW68934   0.274   4.042   4.695
22346SOL    HW168935   0.330   4.098   4.641
22346SOL    HW268936   0.296   3.953   4.668
22347SOL     OW68937   9.646   0.963   6.767
22347SOL    HW168938   9.603   0.884   6.735
22347SOL    HW268939   9.599   1.035   6.724
22348SOL     OW68940   5.467   1.696   6.398
22348SOL    HW168941   5.373   1.683   6.409
22348SOL    HW268942   5.507   1.639   6.464
22349SOL     OW68943  11.460  13.091  14.808
22349SOL    HW168944  11.487  13.182  14.820
22349SOL    HW268945  11.480  13.072  14.716
22350SOL     OW68946   7.088   5.823   1.401
22350SOL    HW168947   7.182   5.812   1.387
22350SOL    HW268948   7.081   5.903   1.455
22351SOL     OW68949   1.615   5.454  12.242
22351SOL    HW168950   1.653   5.461  12.155
22351SOL    HW268951   1.674   5.396  12.290
22352SOL     OW68952  12.813  10.248   8.633
22352SOL    HW168953  12.722  10.229   8.656
22352SOL    HW268954  12.823  10.214   8.544
22353SOL     OW68955  14.250   8.626   6.842
22353SOL    HW168956  14.262   8.640   6.748
22353SOL    HW268957  14.202   8.543   6.848
22354SOL     OW68958   2.860   9.917   8.167
22354SOL    HW168959   2.921   9.856   8.127
22354SOL    HW268960   2.782   9.865   8.186
22355SOL     OW68961   6.556   5.974   0.664
22355SOL    HW168962   6.595   5.992   0.579
22355SOL    HW268963   6.580   5.884   0.684
22356SOL     OW68964   0.769   2.548   2.739
22356SOL    HW168965   0.742   2.509   2.822
22356SOL    HW268966   0.688   2.587   2.705
22357SOL     OW68967   9.639   0.114  13.230
22357SOL    HW168968   9.593   0.173  13.289
22357SOL    HW268969   9.662   0.038  13.284
22358SOL     OW68970   2.332  12.143  13.243
22358SOL    HW168971   2.303  12.229  13.212
22358SOL    HW268972   2.399  12.163  13.309
22359SOL     OW68973   4.594   7.056  11.297
22359SOL    HW168974   4.540   7.133  11.277
22359SOL    HW268975   4.572   6.993  11.229
22360SOL     OW68976   5.263   9.856   3.772
22360SOL    HW168977   5.181   9.820   3.806
22360SOL    HW268978   5.286   9.924   3.834
22361SOL     OW68979  14.277   1.680   9.128
22361SOL    HW168980  14.181   1.675   9.134
22361SOL    HW268981  14.293   1.759   9.076
22362SOL     OW68982   3.587  14.272  11.339
22362SOL    HW168983   3.544  14.348  11.379
22362SOL    HW268984   3.674  14.271  11.379
22363SOL     OW68985   3.010   7.972   9.700
22363SOL    HW168986   2.968   8.058   9.707
22363SOL    HW268987   3.079   7.974   9.767
22364SOL     OW68988   5.620  10.497   6.595
22364SOL    HW168989   5.673  10.417   6.601
22364SOL    HW268990   5.558  10.491   6.667
22365SOL     OW68991  10.207   1.351  13.492
22365SOL    HW168992  10.174   1.273  13.448
22365SOL    HW268993  10.292   1.325  13.526
22366SOL     OW68994   7.403   7.952   0.881
22366SOL    HW168995   7.341   8.018   0.850
22366SOL    HW268996   7.351   7.895   0.937
22367SOL     OW68997  12.150   4.601   4.740
22367SOL    HW168998  12.120   4.676   4.689
22367SOL    HW268999  12.095   4.528   4.710
22368SOL     OW69000  13.401  12.091   7.588
22368SOL    HW169001  13.477  12.101   7.530
22368SOL    HW269002  13.332  12.058   7.531
22369SOL     OW69003   5.565   3.629   7.284
22369SOL    HW169004   5.580   3.535   7.284
22369SOL    HW269005   5.588   3.657   7.195
22370SOL     OW69006   9.506  13.156   8.706
22370SOL    HW169007   9.491  13.210   8.783
22370SOL    HW269008   9.582  13.102   8.729
22371SOL     OW69009   7.288  12.615   1.912
22371SOL    HW169010   7.248  12.702   1.920
22371SOL    HW269011   7.243  12.562   1.977
22372SOL     OW69012  11.371  14.735  10.623
22372SOL    HW169013  11.442  14.764  10.680
22372SOL    HW269014  11.299  14.714  10.683
22373SOL     OW69015  10.825   0.001   3.069
22373SOL    HW169016  10.862  14.867   2.983
22373SOL    HW269017  10.778   0.083   3.061
22374SOL     OW69018   7.440  12.584   7.886
22374SOL    HW169019   7.470  12.573   7.796
22374SOL    HW269020   7.363  12.641   7.879
22375SOL     OW69021   2.180   2.394   4.304
22375SOL    HW169022   2.111   2.430   4.247
22375SOL    HW269023   2.215   2.320   4.254
22376SOL     OW69024  10.095   0.828  10.218
22376SOL    HW169025  10.172   0.786  10.180
22376SOL    HW269026  10.131   0.897  10.274
22377SOL     OW69027   8.472   3.229   9.236
22377SOL    HW169028   8.512   3.143   9.247
22377SOL    HW269029   8.395   3.226   9.293
22378SOL     OW69030  13.553   8.802  11.824
22378SOL    HW169031  13.601   8.798  11.741
22378SOL    HW269032  13.615   8.771  11.889
22379SOL     OW69033   6.743  11.241  12.170
22379SOL    HW169034   6.832  11.205  12.171
22379SOL    HW269035   6.687  11.164  12.163
22380SOL     OW69036   3.338  14.151   5.603
22380SOL    HW169037   3.303  14.089   5.538
22380SOL    HW269038   3.430  14.162   5.578
22381SOL     OW69039   8.456   5.587   7.687
22381SOL    HW169040   8.372   5.578   7.733
22381SOL    HW269041   8.517   5.620   7.753
22382SOL     OW69042   5.097  12.039   9.937
22382SOL    HW169043   5.092  12.100   9.863
22382SOL    HW269044   5.037  12.077  10.002
22383SOL     OW69045   8.128   8.388   7.688
22383SOL    HW169046   8.129   8.292   7.686
22383SOL    HW269047   8.219   8.412   7.702
22384SOL     OW69048  13.663   5.505   7.559
22384SOL    HW169049  13.597   5.568   7.529
22384SOL    HW269050  13.731   5.507   7.491
22385SOL     OW69051   9.886   8.033   8.124
22385SOL    HW169052   9.922   7.974   8.058
22385SOL    HW269053   9.814   8.078   8.079
22386SOL     OW69054  14.646   8.456  12.152
22386SOL    HW169055  14.642   8.528  12.215
22386SOL    HW269056  14.622   8.378  12.202
22387SOL     OW69057  12.587   5.177  14.445
22387SOL    HW169058  12.634   5.125  14.510
22387SOL    HW269059  12.654   5.232  14.405
22388SOL     OW69060   7.670  14.155   6.609
22388SOL    HW169061   7.619  14.164   6.689
22388SOL    HW269062   7.734  14.086   6.629
22389SOL     OW69063  13.541   8.834  11.058
22389SOL    HW169064  13.632   8.852  11.034
22389SOL    HW269065  13.509   8.776  10.988
22390SOL     OW69066   6.145   0.580   5.777
22390SOL    HW169067   6.080   0.600   5.845
22390SOL    HW269068   6.154   0.662   5.728
22391SOL     OW69069   6.266   1.600   7.619
22391SOL    HW169070   6.227   1.688   7.624
22391SOL    HW269071   6.275   1.583   7.525
22392SOL     OW69072  11.222  10.619   0.759
22392SOL    HW169073  11.190  10.575   0.681
22392SOL    HW269074  11.185  10.707   0.754
22393SOL     OW69075   9.696  12.814  14.124
22393SOL    HW169076   9.753  12.884  14.156
22393SOL    HW269077   9.608  12.841  14.148
22394SOL     OW69078  14.540  10.499   6.675
22394SOL    HW169079  14.603  10.436   6.642
22394SOL    HW269080  14.510  10.462   6.758
22395SOL     OW69081   7.766  13.914   7.511
22395SOL    HW169082   7.796  14.005   7.519
22395SOL    HW269083   7.672  13.918   7.531
22396SOL     OW69084   2.345   4.710   3.972
22396SOL    HW169085   2.266   4.719   3.919
22396SOL    HW269086   2.323   4.644   4.038
22397SOL     OW69087  11.016  14.173  11.042
22397SOL    HW169088  10.988  14.173  11.133
22397SOL    HW269089  10.939  14.199  10.992
22398SOL     OW69090   1.341   3.358   8.903
22398SOL    HW169091   1.260   3.399   8.932
22398SOL    HW269092   1.366   3.406   8.824
22399SOL     OW69093   3.727   6.300   4.438
22399SOL    HW169094   3.784   6.253   4.498
22399SOL    HW269095   3.753   6.391   4.446
22400SOL     OW69096   5.862  12.564   3.396
22400SOL    HW169097   5.957  12.569   3.384
22400SOL    HW269098   5.825  12.596   3.314
22401SOL     OW69099  11.398  10.191   7.150
22401SOL    HW169100  11.338  10.202   7.223
22401SOL    HW269101  11.346  10.212   7.072
22402SOL     OW69102  10.405   0.601  11.532
22402SOL    HW169103  10.379   0.680  11.485
22402SOL    HW269104  10.341   0.593  11.603
22403SOL     OW69105  14.183   0.903   6.588
22403SOL    HW169106  14.191   0.822   6.536
22403SOL    HW269107  14.095   0.899   6.625
22404SOL     OW69108   0.813   7.617  12.128
22404SOL    HW169109   0.791   7.681  12.196
22404SOL    HW269110   0.801   7.532  12.171
22405SOL     OW69111  10.111   8.827   2.211
22405SOL    HW169112  10.116   8.906   2.265
22405SOL    HW269113  10.033   8.841   2.156
22406SOL     OW69114   2.097   4.111   5.364
22406SOL    HW169115   2.188   4.100   5.337
22406SOL    HW269116   2.047   4.090   5.285
22407SOL     OW69117   0.303   7.784   4.680
22407SOL    HW169118   0.247   7.786   4.603
22407SOL    HW269119   0.243   7.767   4.753
22408SOL     OW69120   7.067  12.846  12.646
22408SOL    HW169121   6.991  12.822  12.699
22408SOL    HW269122   7.033  12.854  12.557
22409SOL     OW69123  14.876  12.151   7.578
22409SOL    HW169124   0.046  12.207   7.635
22409SOL    HW269125  14.785  12.175   7.596
22410SOL     OW69126   4.395   7.141   0.739
22410SOL    HW169127   4.467   7.203   0.754
22410SOL    HW269128   4.367   7.158   0.649
22411SOL     OW69129   6.508  11.360  14.149
22411SOL    HW169130   6.486  11.442  14.104
22411SOL    HW269131   6.531  11.387  14.237
22412SOL     OW69132   9.491  14.108  10.830
22412SOL    HW169133   9.553  14.175  10.800
22412SOL    HW269134   9.499  14.038  10.764
22413SOL     OW69135   1.246  14.356  14.569
22413SOL    HW169136   1.288  14.376  14.653
22413SOL    HW269137   1.180  14.290  14.591
22414SOL     OW69138   4.893   3.905  14.579
22414SOL    HW169139   4.924   3.921  14.668
22414SOL    HW269140   4.963   3.938  14.523
22415SOL     OW69141   3.318   5.028   4.028
22415SOL    HW169142   3.269   4.999   4.105
22415SOL    HW269143   3.302   4.959   3.963
22416SOL     OW69144  13.367   3.764  13.674
22416SOL    HW169145  13.429   3.785  13.604
22416SOL    HW269146  13.357   3.846  13.722
22417SOL     OW69147  14.002  14.625  11.241
22417SOL    HW169148  14.053  14.648  11.318
22417SOL    HW269149  13.935  14.693  11.236
22418SOL     OW69150   4.218  14.638   1.311
22418SOL    HW169151   4.198  14.699   1.382
22418SOL    HW269152   4.275  14.688   1.252
22419SOL     OW69153   7.441  11.956   9.251
22419SOL    HW169154   7.514  11.897   9.270
22419SOL    HW269155   7.368  11.920   9.302
22420SOL     OW69156  11.564   4.110   3.872
22420SOL    HW169157  11.581   4.035   3.929
22420SOL    HW269158  11.560   4.185   3.931
22421SOL     OW69159   9.682  14.290   5.459
22421SOL    HW169160   9.757  14.330   5.415
22421SOL    HW269161   9.700  14.304   5.552
22422SOL     OW69162  11.984   6.684   0.070
22422SOL    HW169163  11.946   6.617   0.014
22422SOL    HW269164  11.912   6.712   0.126
22423SOL     OW69165  10.888   0.787   5.274
22423SOL    HW169166  10.961   0.840   5.305
22423SOL    HW269167  10.819   0.850   5.254
22424SOL     OW69168   0.769  11.380  14.574
22424SOL    HW169169   0.848  11.327  14.584
22424SOL    HW269170   0.769  11.406  14.482
22425SOL     OW69171   4.356   2.873   4.782
22425SOL    HW169172   4.375   2.944   4.844
22425SOL    HW269173   4.264   2.854   4.795
22426SOL     OW69174   4.456  11.127  11.755
22426SOL    HW169175   4.501  11.049  11.789
22426SOL    HW269176   4.447  11.185  11.831
22427SOL     OW69177  12.111   1.682   6.570
22427SOL    HW169178  12.144   1.717   6.653
22427SOL    HW269179  12.030   1.732   6.554
22428SOL     OW69180  10.792   1.421   3.390
22428SOL    HW169181  10.887   1.418   3.399
22428SOL    HW269182  10.777   1.424   3.295
22429SOL     OW69183   1.865  13.694   0.986
22429SOL    HW169184   1.901  13.687   1.074
22429SOL    HW269185   1.771  13.683   0.997
22430SOL     OW69186  10.106  14.660   8.342
22430SOL    HW169187  10.021  14.670   8.384
22430SOL    HW269188  10.164  14.631   8.413
22431SOL     OW69189   5.439   3.832   9.864
22431SOL    HW169190   5.430   3.827   9.768
22431SOL    HW269191   5.439   3.741   9.893
22432SOL     OW69192   3.161  12.354   1.663
22432SOL    HW169193   3.180  12.362   1.757
22432SOL    HW269194   3.233  12.302   1.629
22433SOL     OW69195   9.231   6.528   1.011
22433SOL    HW169196   9.275   6.586   1.074
22433SOL    HW269197   9.140   6.557   1.012
22434SOL     OW69198  11.010  12.269   6.232
22434SOL    HW169199  11.064  12.301   6.304
22434SOL    HW269200  11.046  12.312   6.154
22435SOL     OW69201   1.927  10.945   8.958
22435SOL    HW169202   2.006  10.993   8.935
22435SOL    HW269203   1.856  10.997   8.921
22436SOL     OW69204  10.511   8.692  10.978
22436SOL    HW169205  10.426   8.737  10.973
22436SOL    HW269206  10.489   8.600  10.963
22437SOL     OW69207   0.338  13.245   6.879
22437SOL    HW169208   0.374  13.326   6.916
22437SOL    HW269209   0.250  13.240   6.916
22438SOL     OW69210  13.465   9.381   3.132
22438SOL    HW169211  13.382   9.356   3.173
22438SOL    HW269212  13.531   9.360   3.197
22439SOL     OW69213  11.497   2.544   7.360
22439SOL    HW169214  11.490   2.485   7.285
22439SOL    HW269215  11.537   2.490   7.429
22440SOL     OW69216  13.731  13.607   4.388
22440SOL    HW169217  13.780  13.538   4.431
22440SOL    HW269218  13.741  13.590   4.294
22441SOL     OW69219   1.478   0.042  13.963
22441SOL    HW169220   1.395   0.001  13.987
22441SOL    HW269221   1.544  14.878  14.015
22442SOL     OW69222  11.928   5.696   1.808
22442SOL    HW169223  11.973   5.651   1.879
22442SOL    HW269224  11.898   5.779   1.846
22443SOL     OW69225  13.305  10.394   7.393
22443SOL    HW169226  13.274  10.436   7.473
22443SOL    HW269227  13.243  10.322   7.379
22444SOL     OW69228   3.526   5.429   7.792
22444SOL    HW169229   3.434   5.434   7.817
22444SOL    HW269230   3.573   5.414   7.875
22445SOL     OW69231  12.360  14.326   2.983
22445SOL    HW169232  12.267  14.324   3.007
22445SOL    HW269233  12.360  14.330   2.887
22446SOL     OW69234   5.507  12.683   1.008
22446SOL    HW169235   5.479  12.601   0.968
22446SOL    HW269236   5.513  12.744   0.935
22447SOL     OW69237  10.645  13.376   6.675
22447SOL    HW169238  10.657  13.388   6.580
22447SOL    HW269239  10.550  13.375   6.686
22448SOL     OW69240   7.785   2.411   8.400
22448SOL    HW169241   7.790   2.474   8.328
22448SOL    HW269242   7.763   2.464   8.477
22449SOL     OW69243  10.280   0.290   7.425
22449SOL    HW169244  10.224   0.215   7.446
22449SOL    HW269245  10.355   0.282   7.484
22450SOL     OW69246  13.323   3.543   1.054
22450SOL    HW169247  13.402   3.572   1.100
22450SOL    HW269248  13.330   3.581   0.967
22451SOL     OW69249   4.216   0.613   1.964
22451SOL    HW169250   4.283   0.570   1.912
22451SOL    HW269251   4.174   0.541   2.013
22452SOL     OW69252   4.655  12.685   5.277
22452SOL    HW169253   4.688  12.613   5.331
22452SOL    HW269254   4.685  12.764   5.321
22453SOL     OW69255   8.102   6.704   2.952
22453SOL    HW169256   8.118   6.759   3.029
22453SOL    HW269257   8.042   6.637   2.983
22454SOL     OW69258  13.441  11.874   8.749
22454SOL    HW169259  13.535  11.882   8.734
22454SOL    HW269260  13.412  11.806   8.687
22455SOL     OW69261   3.443  11.899  14.062
22455SOL    HW169262   3.368  11.958  14.072
22455SOL    HW269263   3.488  11.930  13.983
22456SOL     OW69264   5.198  10.681   1.656
22456SOL    HW169265   5.232  10.632   1.732
22456SOL    HW269266   5.194  10.771   1.686
22457SOL     OW69267   1.648   8.454  10.890
22457SOL    HW169268   1.698   8.535  10.895
22457SOL    HW269269   1.715   8.385  10.891
22458SOL     OW69270  10.980   8.652   3.559
22458SOL    HW169271  11.035   8.604   3.497
22458SOL    HW269272  11.014   8.629   3.645
22459SOL     OW69273  12.621  11.576  10.845
22459SOL    HW169274  12.692  11.527  10.886
22459SOL    HW269275  12.558  11.510  10.816
22460SOL     OW69276  13.404   3.475   4.128
22460SOL    HW169277  13.397   3.402   4.066
22460SOL    HW269278  13.468   3.534   4.088
22461SOL     OW69279   2.185   7.800  12.475
22461SOL    HW169280   2.141   7.756  12.547
22461SOL    HW269281   2.274   7.765  12.476
22462SOL     OW69282  11.231  10.940   8.486
22462SOL    HW169283  11.213  10.946   8.580
22462SOL    HW269284  11.157  10.982   8.444
22463SOL     OW69285   5.189  14.154   3.646
22463SOL    HW169286   5.202  14.076   3.700
22463SOL    HW269287   5.274  14.198   3.646
22464SOL     OW69288   1.538   3.246  11.937
22464SOL    HW169289   1.555   3.308  11.866
22464SOL    HW269290   1.461   3.197  11.908
22465SOL     OW69291   0.307  12.608   8.172
22465SOL    HW169292   0.383  12.560   8.139
22465SOL    HW269293   0.277  12.556   8.247
22466SOL     OW69294  10.691   6.862   5.207
22466SOL    HW169295  10.720   6.909   5.285
22466SOL    HW269296  10.770   6.854   5.153
22467SOL     OW69297   7.668   5.155  13.483
22467SOL    HW169298   7.665   5.159  13.579
22467SOL    HW269299   7.595   5.209  13.454
22468SOL     OW69300  12.722  11.942   5.804
22468SOL    HW169301  12.741  11.905   5.718
22468SOL    HW269302  12.675  12.023   5.786
22469SOL     OW69303   7.279  14.746   1.388
22469SOL    HW169304   7.279  14.814   1.455
22469SOL    HW269305   7.281  14.794   1.305
22470SOL     OW69306   8.748   2.484   4.306
22470SOL    HW169307   8.689   2.517   4.238
22470SOL    HW269308   8.702   2.501   4.388
22471SOL     OW69309   3.451   5.331   4.307
22471SOL    HW169310   3.456   5.369   4.394
22471SOL    HW269311   3.365   5.290   4.303
22472SOL     OW69312   2.470   8.926   1.305
22472SOL    HW169313   2.536   8.995   1.292
22472SOL    HW269314   2.491   8.890   1.392
22473SOL     OW69315   1.543   9.536  10.599
22473SOL    HW169316   1.612   9.593  10.565
22473SOL    HW269317   1.564   9.449  10.566
22474SOL     OW69318   1.618  12.146   3.635
22474SOL    HW169319   1.682  12.103   3.692
22474SOL    HW269320   1.535  12.135   3.681
22475SOL     OW69321  13.445   6.110  13.818
22475SOL    HW169322  13.506   6.117  13.744
22475SOL    HW269323  13.359   6.097  13.778
22476SOL     OW69324  10.737  12.531   0.626
22476SOL    HW169325  10.755  12.619   0.595
22476SOL    HW269326  10.777  12.527   0.713
22477SOL     OW69327   9.196   3.124   6.228
22477SOL    HW169328   9.216   3.210   6.266
22477SOL    HW269329   9.274   3.102   6.177
22478SOL     OW69330   8.056  10.602   5.959
22478SOL    HW169331   8.122  10.653   6.006
22478SOL    HW269332   7.998  10.668   5.922
22479SOL     OW69333  13.353   4.456   4.812
22479SOL    HW169334  13.406   4.377   4.802
22479SOL    HW269335  13.284   4.448   4.746
22480SOL     OW69336   9.781  11.858   5.614
22480SOL    HW169337   9.827  11.818   5.541
22480SOL    HW269338   9.830  11.830   5.692
22481SOL     OW69339   0.128   8.330  11.117
22481SOL    HW169340   0.156   8.313  11.207
22481SOL    HW269341   0.140   8.247  11.072
22482SOL     OW69342   5.702  12.874  11.793
22482SOL    HW169343   5.630  12.921  11.835
22482SOL    HW269344   5.749  12.942  11.744
22483SOL     OW69345   4.835   1.280   4.305
22483SOL    HW169346   4.797   1.242   4.383
22483SOL    HW269347   4.772   1.346   4.277
22484SOL     OW69348   7.019   4.704   1.147
22484SOL    HW169349   6.965   4.783   1.155
22484SOL    HW269350   6.985   4.645   1.213
22485SOL     OW69351   8.158   0.354   4.960
22485SOL    HW169352   8.121   0.387   5.041
22485SOL    HW269353   8.140   0.260   4.962
22486SOL     OW69354  10.171   8.170  13.509
22486SOL    HW169355  10.118   8.247  13.487
22486SOL    HW269356  10.147   8.149  13.599
22487SOL     OW69357   6.798   1.524   1.508
22487SOL    HW169358   6.864   1.462   1.539
22487SOL    HW269359   6.846   1.605   1.491
22488SOL     OW69360  12.245  12.816  11.553
22488SOL    HW169361  12.257  12.854  11.466
22488SOL    HW269362  12.319  12.755  11.563
22489SOL     OW69363   6.541   8.049   7.221
22489SOL    HW169364   6.581   7.962   7.228
22489SOL    HW269365   6.603   8.107   7.264
22490SOL     OW69366   7.160   3.222   4.042
22490SOL    HW169367   7.216   3.266   3.977
22490SOL    HW269368   7.085   3.191   3.992
22491SOL     OW69369   1.372   5.814   8.057
22491SOL    HW169370   1.467   5.802   8.050
22491SOL    HW269371   1.353   5.796   8.149
22492SOL     OW69372   5.291  10.209  14.087
22492SOL    HW169373   5.341  10.132  14.061
22492SOL    HW269374   5.204  10.196  14.050
22493SOL     OW69375  10.614  11.909   7.499
22493SOL    HW169376  10.707  11.932   7.495
22493SOL    HW269377  10.606  11.828   7.448
22494SOL     OW69378   9.174  12.774   2.310
22494SOL    HW169379   9.246  12.749   2.369
22494SOL    HW269380   9.114  12.824   2.365
22495SOL     OW69381   8.053  12.503   5.729
22495SOL    HW169382   8.002  12.504   5.810
22495SOL    HW269383   8.023  12.425   5.682
22496SOL     OW69384   9.092   7.913   2.680
22496SOL    HW169385   9.028   7.984   2.676
22496SOL    HW269386   9.078   7.872   2.765
22497SOL     OW69387  14.148  10.605  10.952
22497SOL    HW169388  14.057  10.626  10.971
22497SOL    HW269389  14.182  10.568  11.034
22498SOL     OW69390   1.180   8.883   4.473
22498SOL    HW169391   1.230   8.959   4.443
22498SOL    HW269392   1.199   8.814   4.410
22499SOL     OW69393   6.416  11.606   0.260
22499SOL    HW169394   6.424  11.544   0.187
22499SOL    HW269395   6.400  11.690   0.218
22500SOL     OW69396   9.102  11.422   7.724
22500SOL    HW169397   9.014  11.458   7.713
22500SOL    HW269398   9.103  11.389   7.814
22501SOL     OW69399   2.259   6.252   7.995
22501SOL    HW169400   2.349   6.223   7.981
22501SOL    HW269401   2.223   6.261   7.906
22502SOL     OW69402   7.493  14.581  10.775
22502SOL    HW169403   7.494  14.641  10.701
22502SOL    HW269404   7.400  14.568  10.794
22503SOL     OW69405   1.868   4.831   2.586
22503SOL    HW169406   1.791   4.799   2.633
22503SOL    HW269407   1.937   4.769   2.609
22504SOL     OW69408   7.400  14.144  14.849
22504SOL    HW169409   7.366  14.192  14.774
22504SOL    HW269410   7.329  14.084  14.873
22505SOL     OW69411   4.864  12.899   4.105
22505SOL    HW169412   4.835  12.820   4.150
22505SOL    HW269413   4.900  12.955   4.174
22506SOL     OW69414   6.486   3.059  13.555
22506SOL    HW169415   6.562   3.012  13.590
22506SOL    HW269416   6.462   3.120  13.625
22507SOL     OW69417  10.138   9.164   9.440
22507SOL    HW169418  10.083   9.198   9.511
22507SOL    HW269419  10.139   9.233   9.374
22508SOL     OW69420  13.657   4.518  10.482
22508SOL    HW169421  13.651   4.423  10.475
22508SOL    HW269422  13.679   4.547  10.394
22509SOL     OW69423   4.306   6.880   9.751
22509SOL    HW169424   4.340   6.867   9.663
22509SOL    HW269425   4.374   6.930   9.796
22510SOL     OW69426  13.860   4.690  13.072
22510SOL    HW169427  13.882   4.700  13.164
22510SOL    HW269428  13.774   4.650  13.071
22511SOL     OW69429   7.724  11.271  11.818
22511SOL    HW169430   7.646  11.318  11.788
22511SOL    HW269431   7.691  11.186  11.848
22512SOL     OW69432  10.077   3.718  13.124
22512SOL    HW169433  10.081   3.737  13.218
22512SOL    HW269434   9.993   3.675  13.112
22513SOL     OW69435   3.645  10.195   0.525
22513SOL    HW169436   3.658  10.225   0.435
22513SOL    HW269437   3.561  10.232   0.551
22514SOL     OW69438   9.152   2.021  14.466
22514SOL    HW169439   9.247   2.008  14.471
22514SOL    HW269440   9.139   2.112  14.490
22515SOL     OW69441  11.420   9.102   8.180
22515SOL    HW169442  11.474   9.030   8.148
22515SOL    HW269443  11.462   9.181   8.145
22516SOL     OW69444   5.677   1.655   0.437
22516SOL    HW169445   5.738   1.581   0.438
22516SOL    HW269446   5.609   1.629   0.374
22517SOL     OW69447  11.965   5.431  12.378
22517SOL    HW169448  11.884   5.472  12.347
22517SOL    HW269449  11.945   5.338  12.381
22518SOL     OW69450   1.511  12.734  11.128
22518SOL    HW169451   1.590  12.785  11.109
22518SOL    HW269452   1.543  12.656  11.173
22519SOL     OW69453  11.486   1.101   3.090
22519SOL    HW169454  11.428   1.103   3.014
22519SOL    HW269455  11.534   1.018   3.081
22520SOL     OW69456   8.939   9.098   6.705
22520SOL    HW169457   8.986   9.015   6.700
22520SOL    HW269458   8.922   9.111   6.799
22521SOL     OW69459  10.656   4.843   7.727
22521SOL    HW169460  10.583   4.891   7.687
22521SOL    HW269461  10.651   4.864   7.820
22522SOL     OW69462   4.393  12.315   0.544
22522SOL    HW169463   4.368  12.228   0.511
22522SOL    HW269464   4.469  12.299   0.600
22523SOL     OW69465   1.130   4.927  11.036
22523SOL    HW169466   1.143   5.022  11.040
22523SOL    HW269467   1.040   4.914  11.067
22524SOL     OW69468   8.187  13.026   9.174
22524SOL    HW169469   8.224  13.099   9.123
22524SOL    HW269470   8.257  12.961   9.176
22525SOL     OW69471  11.493   6.362   5.482
22525SOL    HW169472  11.518   6.276   5.448
22525SOL    HW269473  11.520   6.360   5.574
22526SOL     OW69474   3.323   7.391   5.138
22526SOL    HW169475   3.405   7.370   5.182
22526SOL    HW269476   3.338   7.475   5.096
22527SOL     OW69477   1.369  14.881   7.722
22527SOL    HW169478   1.461  14.857   7.711
22527SOL    HW269479   1.342  14.837   7.802
22528SOL     OW69480   0.637  12.705   8.140
22528SOL    HW169481   0.731  12.723   8.151
22528SOL    HW269482   0.598  12.790   8.123
22529SOL     OW69483   5.258   7.459  11.116
22529SOL    HW169484   5.212   7.390  11.164
22529SOL    HW269485   5.351   7.437  11.126
22530SOL     OW69486  10.899   0.820   9.679
22530SOL    HW169487  10.844   0.743   9.666
22530SOL    HW269488  10.838   0.893   9.685
22531SOL     OW69489  14.531   9.229   5.711
22531SOL    HW169490  14.444   9.202   5.739
22531SOL    HW269491  14.590   9.190   5.776
22532SOL     OW69492  10.599   5.653   3.507
22532SOL    HW169493  10.533   5.703   3.557
22532SOL    HW269494  10.652   5.610   3.575
22533SOL     OW69495  12.683   9.530   7.635
22533SOL    HW169496  12.651   9.529   7.545
22533SOL    HW269497  12.733   9.612   7.642
22534SOL     OW69498  11.899   0.493   9.782
22534SOL    HW169499  11.824   0.553   9.788
22534SOL    HW269500  11.946   0.505   9.865
22535SOL     OW69501   7.016  10.411   9.893
22535SOL    HW169502   7.006  10.379   9.982
22535SOL    HW269503   7.110  10.418   9.879
22536SOL     OW69504   7.237   4.440  11.853
22536SOL    HW169505   7.263   4.523  11.894
22536SOL    HW269506   7.319   4.402  11.821
22537SOL     OW69507   6.101   0.061   3.444
22537SOL    HW169508   6.097  14.855   3.480
22537SOL    HW269509   6.157   0.109   3.505
22538SOL     OW69510   4.219  11.240  13.912
22538SOL    HW169511   4.186  11.245  14.001
22538SOL    HW269512   4.177  11.161  13.876
22539SOL     OW69513   8.714   3.542  11.608
22539SOL    HW169514   8.670   3.622  11.580
22539SOL    HW269515   8.791   3.573  11.656
22540SOL     OW69516  13.786  10.230  14.251
22540SOL    HW169517  13.735  10.222  14.332
22540SOL    HW269518  13.756  10.157  14.197
22541SOL     OW69519  10.792   7.792   4.453
22541SOL    HW169520  10.880   7.793   4.416
22541SOL    HW269521  10.803   7.823   4.543
22542SOL     OW69522  10.147  10.237  11.213
22542SOL    HW169523  10.169  10.325  11.243
22542SOL    HW269524  10.178  10.179  11.282
22543SOL     OW69525  13.167   4.968   5.097
22543SOL    HW169526  13.163   4.875   5.117
22543SOL    HW269527  13.241   5.001   5.147
22544SOL     OW69528  11.865   8.366   0.732
22544SOL    HW169529  11.808   8.443   0.735
22544SOL    HW269530  11.952   8.401   0.751
22545SOL     OW69531  14.184   7.799   3.711
22545SOL    HW169532  14.185   7.885   3.754
22545SOL    HW269533  14.091   7.785   3.690
22546SOL     OW69534   2.240  13.710   0.646
22546SOL    HW169535   2.322  13.760   0.640
22546SOL    HW269536   2.228  13.694   0.739
22547SOL     OW69537   6.088   2.387   0.857
22547SOL    HW169538   6.175   2.380   0.819
22547SOL    HW269539   6.103   2.420   0.945
22548SOL     OW69540  10.439  10.716   7.549
22548SOL    HW169541  10.524  10.723   7.592
22548SOL    HW269542  10.455  10.665   7.470
22549SOL     OW69543   5.038   5.351   8.265
22549SOL    HW169544   5.029   5.350   8.170
22549SOL    HW269545   5.105   5.285   8.284
22550SOL     OW69546   7.910  14.831   9.854
22550SOL    HW169547   7.987  14.879   9.824
22550SOL    HW269548   7.944  14.769   9.919
22551SOL     OW69549   0.227   2.437  12.164
22551SOL    HW169550   0.179   2.362  12.129
22551SOL    HW269551   0.166   2.511  12.155
22552SOL     OW69552  14.778  10.352   0.444
22552SOL    HW169553  14.807  10.442   0.460
22552SOL    HW269554  14.695  10.345   0.491
22553SOL     OW69555   9.942   6.696   3.479
22553SOL    HW169556   9.959   6.682   3.386
22553SOL    HW269557   9.878   6.767   3.482
22554SOL     OW69558   1.331   9.543   2.982
22554SOL    HW169559   1.425   9.546   2.999
22554SOL    HW269560   1.320   9.596   2.903
22555SOL     OW69561  12.792   6.353   1.170
22555SOL    HW169562  12.869   6.316   1.215
22555SOL    HW269563  12.763   6.424   1.228
22556SOL     OW69564   6.263   1.599   4.031
22556SOL    HW169565   6.196   1.650   4.076
22556SOL    HW269566   6.243   1.508   4.054
22557SOL     OW69567   0.665   5.754   8.282
22557SOL    HW169568   0.595   5.778   8.221
22557SOL    HW269569   0.727   5.826   8.278
22558SOL     OW69570   6.756   5.846   5.359
22558SOL    HW169571   6.725   5.761   5.327
22558SOL    HW269572   6.811   5.879   5.287
22559SOL     OW69573   3.027   1.486   0.150
22559SOL    HW169574   2.970   1.561   0.165
22559SOL    HW269575   3.115   1.523   0.144
22560SOL     OW69576   0.213   7.356   0.498
22560SOL    HW169577   0.268   7.405   0.438
22560SOL    HW269578   0.182   7.421   0.561
22561SOL     OW69579   4.532   0.654   0.759
22561SOL    HW169580   4.596   0.608   0.813
22561SOL    HW269581   4.448   0.638   0.802
22562SOL     OW69582  13.697   9.545   6.739
22562SOL    HW169583  13.710   9.500   6.655
22562SOL    HW269584  13.618   9.505   6.775
22563SOL     OW69585  11.924  10.343   0.537
22563SOL    HW169586  11.969  10.334   0.454
22563SOL    HW269587  11.862  10.415   0.523
22564SOL     OW69588   1.855  14.246   9.172
22564SOL    HW169589   1.791  14.182   9.141
22564SOL    HW269590   1.804  14.322   9.198
22565SOL     OW69591  14.602  14.325   0.579
22565SOL    HW169592  14.593  14.232   0.597
22565SOL    HW269593  14.625  14.364   0.664
22566SOL     OW69594  10.827  10.777   4.289
22566SOL    HW169595  10.783  10.859   4.309
22566SOL    HW269596  10.804  10.719   4.362
22567SOL     OW69597  14.472  13.662   5.113
22567SOL    HW169598  14.532  13.735   5.130
22567SOL    HW269599  14.470  13.613   5.196
22568SOL     OW69600  10.354  10.245   9.725
22568SOL    HW169601  10.433  10.265   9.676
22568SOL    HW269602  10.302  10.191   9.665
22569SOL     OW69603   4.544   7.552   9.436
22569SOL    HW169604   4.460   7.552   9.391
22569SOL    HW269605   4.608   7.574   9.368
22570SOL     OW69606  12.965   5.760   8.676
22570SOL    HW169607  12.914   5.839   8.693
22570SOL    HW269608  13.053   5.791   8.657
22571SOL     OW69609  13.606   5.715  10.589
22571SOL    HW169610  13.656   5.669  10.521
22571SOL    HW269611  13.525   5.664  10.597
22572SOL     OW69612   3.165   9.988  12.359
22572SOL    HW169613   3.110  10.009  12.434
22572SOL    HW269614   3.108   9.939  12.300
22573SOL     OW69615   3.384   5.275   9.918
22573SOL    HW169616   3.299   5.274   9.875
22573SOL    HW269617   3.445   5.306   9.851
22574SOL     OW69618   3.795   3.263   4.787
22574SOL    HW169619   3.716   3.303   4.751
22574SOL    HW269620   3.864   3.328   4.775
22575SOL     OW69621   1.075   5.776   5.747
22575SOL    HW169622   1.084   5.768   5.652
22575SOL    HW269623   1.093   5.868   5.765
22576SOL     OW69624   9.980   1.158  10.198
22576SOL    HW169625  10.033   1.162  10.119
22576SOL    HW269626  10.038   1.121  10.264
22577SOL     OW69627   4.059  13.729   2.003
22577SOL    HW169628   3.968  13.706   1.985
22577SOL    HW269629   4.060  13.747   2.097
22578SOL     OW69630  14.244   7.956   1.943
22578SOL    HW169631  14.166   8.005   1.918
22578SOL    HW269632  14.237   7.945   2.038
22579SOL     OW69633  14.761   3.672  10.968
22579SOL    HW169634  14.782   3.584  10.999
22579SOL    HW269635  14.666   3.681  10.981
22580SOL     OW69636   9.297   1.893  13.221
22580SOL    HW169637   9.232   1.823  13.222
22580SOL    HW269638   9.325   1.901  13.312
22581SOL     OW69639  11.514   7.773   9.130
22581SOL    HW169640  11.483   7.850   9.083
22581SOL    HW269641  11.562   7.808   9.205
22582SOL     OW69642   4.809   3.395  12.597
22582SOL    HW169643   4.823   3.478  12.642
22582SOL    HW269644   4.871   3.334  12.638
22583SOL     OW69645   5.547   8.981   3.161
22583SOL    HW169646   5.539   8.886   3.169
22583SOL    HW269647   5.605   9.007   3.232
22584SOL     OW69648   0.631  12.810   6.400
22584SOL    HW169649   0.593  12.886   6.445
22584SOL    HW269650   0.666  12.846   6.318
22585SOL     OW69651   0.879   2.746  12.115
22585SOL    HW169652   0.894   2.766  12.208
22585SOL    HW269653   0.934   2.670  12.097
22586SOL     OW69654   8.027  14.770   3.160
22586SOL    HW169655   8.107  14.820   3.174
22586SOL    HW269656   8.057  14.681   3.141
22587SOL     OW69657   2.625   6.016   2.601
22587SOL    HW169658   2.630   5.970   2.684
22587SOL    HW269659   2.538   5.994   2.566
22588SOL     OW69660   0.130  12.923  10.290
22588SOL    HW169661   0.095  12.915  10.379
22588SOL    HW269662   0.201  12.858  10.287
22589SOL     OW69663   5.717  14.131  11.682
22589SOL    HW169664   5.751  14.118  11.594
22589SOL    HW269665   5.740  14.221  11.705
22590SOL     OW69666   8.145   6.101   8.555
22590SOL    HW169667   8.094   6.126   8.477
22590SOL    HW269668   8.134   6.175   8.615
22591SOL     OW69669   0.642   4.106   2.568
22591SOL    HW169670   0.658   4.036   2.631
22591SOL    HW269671   0.617   4.060   2.487
22592SOL     OW69672   8.768   3.970  13.461
22592SOL    HW169673   8.712   3.917  13.516
22592SOL    HW269674   8.829   4.012  13.522
22593SOL     OW69675   3.639  14.589   3.595
22593SOL    HW169676   3.552  14.572   3.633
22593SOL    HW269677   3.660  14.678   3.624
22594SOL     OW69678   9.861   6.824   4.719
22594SOL    HW169679   9.881   6.752   4.778
22594SOL    HW269680   9.872   6.903   4.772
22595SOL     OW69681  11.413   7.943  13.997
22595SOL    HW169682  11.349   7.920  13.929
22595SOL    HW269683  11.413   8.039  13.998
22596SOL     OW69684  10.023  13.073  12.001
22596SOL    HW169685  10.071  12.997  11.970
22596SOL    HW269686  10.065  13.096  12.084
22597SOL     OW69687   9.742  12.257   7.019
22597SOL    HW169688   9.727  12.351   7.027
22597SOL    HW269689   9.814  12.239   7.080
22598SOL     OW69690   5.643  13.577   9.782
22598SOL    HW169691   5.605  13.659   9.812
22598SOL    HW269692   5.726  13.603   9.742
22599SOL     OW69693  14.835  14.168   4.760
22599SOL    HW169694  14.773  14.236   4.788
22599SOL    HW269695  14.872  14.135   4.841
22600SOL     OW69696   4.045  10.076   1.018
22600SOL    HW169697   4.128  10.085   1.064
22600SOL    HW269698   3.985  10.135   1.064
22601SOL     OW69699   6.278   8.240   3.193
22601SOL    HW169700   6.337   8.259   3.265
22601SOL    HW269701   6.250   8.150   3.208
22602SOL     OW69702  10.912  12.505   4.186
22602SOL    HW169703  10.991  12.551   4.156
22602SOL    HW269704  10.930  12.413   4.168
22603SOL     OW69705   1.557   4.871   9.737
22603SOL    HW169706   1.559   4.792   9.791
22603SOL    HW269707   1.600   4.937   9.790
22604SOL     OW69708  11.349   8.457   7.394
22604SOL    HW169709  11.408   8.429   7.463
22604SOL    HW269710  11.264   8.467   7.437
22605SOL     OW69711   0.256   0.624   8.116
22605SOL    HW169712   0.332   0.584   8.075
22605SOL    HW269713   0.280   0.715   8.130
22606SOL     OW69714   3.186   5.970   0.532
22606SOL    HW169715   3.281   5.956   0.538
22606SOL    HW269716   3.156   5.901   0.473
22607SOL     OW69717  10.783  13.741   4.852
22607SOL    HW169718  10.873  13.774   4.849
22607SOL    HW269719  10.732  13.806   4.805
22608SOL     OW69720   0.100  14.645   3.703
22608SOL    HW169721   0.109  14.698   3.623
22608SOL    HW269722   0.117  14.707   3.774
22609SOL     OW69723   2.212   0.832   5.282
22609SOL    HW169724   2.285   0.888   5.254
22609SOL    HW269725   2.255   0.756   5.323
22610SOL     OW69726   0.208   0.882  14.134
22610SOL    HW169727   0.131   0.891  14.189
22610SOL    HW269728   0.275   0.937  14.177
22611SOL     OW69729   9.213   2.719   6.228
22611SOL    HW169730   9.219   2.676   6.143
22611SOL    HW269731   9.297   2.764   6.238
22612SOL     OW69732  10.531   0.984  11.843
22612SOL    HW169733  10.548   1.006  11.935
22612SOL    HW269734  10.485   0.900  11.846
22613SOL     OW69735   8.424   6.009   3.454
22613SOL    HW169736   8.475   5.974   3.381
22613SOL    HW269737   8.362   5.940   3.475
22614SOL     OW69738   2.127   1.533   1.904
22614SOL    HW169739   2.032   1.540   1.894
22614SOL    HW269740   2.149   1.600   1.969
22615SOL     OW69741  10.526  14.161   3.932
22615SOL    HW169742  10.606  14.195   3.890
22615SOL    HW269743  10.552  14.075   3.966
22616SOL     OW69744   3.846   5.716  11.650
22616SOL    HW169745   3.796   5.742  11.572
22616SOL    HW269746   3.779   5.697  11.716
22617SOL     OW69747   1.446   1.335   3.589
22617SOL    HW169748   1.522   1.389   3.570
22617SOL    HW269749   1.415   1.306   3.502
22618SOL     OW69750   1.753   8.895   4.761
22618SOL    HW169751   1.758   8.837   4.837
22618SOL    HW269752   1.664   8.882   4.727
22619SOL     OW69753  11.214  13.774   0.637
22619SOL    HW169754  11.294  13.821   0.617
22619SOL    HW269755  11.187  13.734   0.554
22620SOL     OW69756   3.077   2.715   4.882
22620SOL    HW169757   3.004   2.710   4.943
22620SOL    HW269758   3.119   2.799   4.900
22621SOL     OW69759   9.128   0.208   4.715
22621SOL    HW169760   9.152   0.296   4.743
22621SOL    HW269761   9.151   0.152   4.789
22622SOL     OW69762  10.004   6.842   9.905
22622SOL    HW169763  10.008   6.784   9.981
22622SOL    HW269764   9.980   6.784   9.833
22623SOL     OW69765  11.369   8.714   0.569
22623SOL    HW169766  11.389   8.691   0.660
22623SOL    HW269767  11.280   8.681   0.556
22624SOL     OW69768   4.865   8.837  13.496
22624SOL    HW169769   4.910   8.756  13.474
22624SOL    HW269770   4.916   8.874  13.568
22625SOL     OW69771   4.781   2.779   1.638
22625SOL    HW169772   4.767   2.829   1.719
22625SOL    HW269773   4.866   2.738   1.650
22626SOL     OW69774  10.930   0.267   5.784
22626SOL    HW169775  10.866   0.238   5.849
22626SOL    HW269776  11.006   0.210   5.798
22627SOL     OW69777  12.320  12.414  13.571
22627SOL    HW169778  12.396  12.467  13.546
22627SOL    HW269779  12.352  12.324  13.571
22628SOL     OW69780  12.791   8.603   1.589
22628SOL    HW169781  12.702   8.609   1.624
22628SOL    HW269782  12.803   8.683   1.538
22629SOL     OW69783   4.153   1.133   4.838
22629SOL    HW169784   4.218   1.140   4.908
22629SOL    HW269785   4.160   1.042   4.809
22630SOL     OW69786  13.432   6.054   8.550
22630SOL    HW169787  13.436   6.001   8.471
22630SOL    HW269788  13.416   6.143   8.519
22631SOL     OW69789   2.605  12.812  12.024
22631SOL    HW169790   2.602  12.773  11.937
22631SOL    HW269791   2.561  12.748  12.080
22632SOL     OW69792  10.059  13.777   5.986
22632SOL    HW169793  10.064  13.824   6.069
22632SOL    HW269794   9.994  13.708   6.001
22633SOL     OW69795   1.771   3.043  13.480
22633SOL    HW169796   1.805   3.132  13.472
22633SOL    HW269797   1.700   3.049  13.544
22634SOL     OW69798   2.770   5.542  11.212
22634SOL    HW169799   2.687   5.511  11.174
22634SOL    HW269800   2.778   5.493  11.294
22635SOL     OW69801   5.455   6.908   3.744
22635SOL    HW169802   5.480   6.965   3.672
22635SOL    HW269803   5.456   6.820   3.707
22636SOL     OW69804  13.203  12.210   8.026
22636SOL    HW169805  13.160  12.209   7.941
22636SOL    HW269806  13.160  12.139   8.075
22637SOL     OW69807   4.017   7.670   1.979
22637SOL    HW169808   3.953   7.613   2.022
22637SOL    HW269809   3.964   7.731   1.928
22638SOL     OW69810  11.237   5.061   6.231
22638SOL    HW169811  11.178   5.011   6.174
22638SOL    HW269812  11.195   5.147   6.240
22639SOL     OW69813   9.467  12.159   5.414
22639SOL    HW169814   9.466  12.242   5.461
22639SOL    HW269815   9.380  12.122   5.427
22640SOL     OW69816   3.199   6.455  10.615
22640SOL    HW169817   3.210   6.379  10.672
22640SOL    HW269818   3.186   6.417  10.528
22641SOL     OW69819   4.101   1.222   5.699
22641SOL    HW169820   4.159   1.229   5.623
22641SOL    HW269821   4.052   1.304   5.699
22642SOL     OW69822   5.834  13.470   3.187
22642SOL    HW169823   5.755  13.518   3.210
22642SOL    HW269824   5.870  13.517   3.112
22643SOL     OW69825   9.361  13.940  11.275
22643SOL    HW169826   9.437  13.941  11.217
22643SOL    HW269827   9.326  14.029  11.272
22644SOL     OW69828  11.764  14.353   2.667
22644SOL    HW169829  11.760  14.349   2.571
22644SOL    HW269830  11.791  14.264   2.693
22645SOL     OW69831   3.869   9.759   2.085
22645SOL    HW169832   3.859   9.717   2.000
22645SOL    HW269833   3.914   9.841   2.065
22646SOL     OW69834   5.844   1.649   9.039
22646SOL    HW169835   5.821   1.625   8.949
22646SOL    HW269836   5.811   1.576   9.092
22647SOL     OW69837   0.102   9.275   4.522
22647SOL    HW169838   0.065   9.270   4.434
22647SOL    HW269839   0.197   9.281   4.507
22648SOL     OW69840   7.380  12.055  12.436
22648SOL    HW169841   7.391  12.060  12.341
22648SOL    HW269842   7.294  12.015  12.449
22649SOL     OW69843   2.273   5.533   5.597
22649SOL    HW169844   2.359   5.537   5.640
22649SOL    HW269845   2.215   5.582   5.655
22650SOL     OW69846   9.216   9.297  11.327
22650SOL    HW169847   9.299   9.253  11.308
22650SOL    HW269848   9.226   9.329  11.417
22651SOL     OW69849   0.566  13.793  12.734
22651SOL    HW169850   0.628  13.773  12.805
22651SOL    HW269851   0.481  13.796  12.777
22652SOL     OW69852   6.874   9.347  13.463
22652SOL    HW169853   6.817   9.417  13.431
22652SOL    HW269854   6.916   9.312  13.384
22653SOL     OW69855   3.471  13.985  11.224
22653SOL    HW169856   3.404  14.020  11.166
22653SOL    HW269857   3.464  14.039  11.304
22654SOL     OW69858  13.043   8.346   6.106
22654SOL    HW169859  13.020   8.383   6.020
22654SOL    HW269860  13.080   8.260   6.085
22655SOL     OW69861   8.657  13.675  10.224
22655SOL    HW169862   8.743  13.653  10.188
22655SOL    HW269863   8.634  13.599  10.277
22656SOL     OW69864   3.773   8.362  12.914
22656SOL    HW169865   3.736   8.280  12.880
22656SOL    HW269866   3.778   8.349  13.009
22657SOL     OW69867   3.153  11.877   3.017
22657SOL    HW169868   3.080  11.817   3.028
22657SOL    HW269869   3.231  11.824   3.033
22658SOL     OW69870   4.804   7.216   9.967
22658SOL    HW169871   4.831   7.195   9.878
22658SOL    HW269872   4.822   7.310   9.976
22659SOL     OW69873   5.738   2.416   9.884
22659SOL    HW169874   5.789   2.411   9.965
22659SOL    HW269875   5.795   2.377   9.817
22660SOL     OW69876  13.311  11.733  12.422
22660SOL    HW169877  13.319  11.806  12.361
22660SOL    HW269878  13.296  11.774  12.507
22661SOL     OW69879   3.437  13.148   5.560
22661SOL    HW169880   3.361  13.099   5.593
22661SOL    HW269881   3.406  13.187   5.479
22662SOL     OW69882   7.598  11.133   0.422
22662SOL    HW169883   7.688  11.166   0.424
22662SOL    HW269884   7.547  11.200   0.468
22663SOL     OW69885   3.610   9.484  11.486
22663SOL    HW169886   3.588   9.576  11.468
22663SOL    HW269887   3.525   9.440  11.491
22664SOL     OW69888  12.158   1.816   5.861
22664SOL    HW169889  12.227   1.755   5.887
22664SOL    HW269890  12.077   1.765   5.865
22665SOL     OW69891   2.659   1.225   2.200
22665SOL    HW169892   2.591   1.291   2.186
22665SOL    HW269893   2.665   1.179   2.117
22666SOL     OW69894  14.212   6.320  13.397
22666SOL    HW169895  14.301   6.296  13.371
22666SOL    HW269896  14.201   6.410  13.366
22667SOL     OW69897   7.069   4.256   2.146
22667SOL    HW169898   7.034   4.345   2.152
22667SOL    HW269899   7.016   4.205   2.207
22668SOL     OW69900   7.887   1.537   1.915
22668SOL    HW169901   7.920   1.601   1.852
22668SOL    HW269902   7.823   1.486   1.866
22669SOL     OW69903   9.435   0.203   6.889
22669SOL    HW169904   9.485   0.204   6.970
22669SOL    HW269905   9.478   0.137   6.834
22670SOL     OW69906  14.398   3.145   1.884
22670SOL    HW169907  14.450   3.207   1.834
22670SOL    HW269908  14.307   3.164   1.861
22671SOL     OW69909   5.036  11.277  13.157
22671SOL    HW169910   5.011  11.185  13.162
22671SOL    HW269911   5.044  11.305  13.248
22672SOL     OW69912  11.481   9.141   1.251
22672SOL    HW169913  11.453   9.198   1.179
22672SOL    HW269914  11.570   9.170   1.271
22673SOL     OW69915   3.953  14.180  11.668
22673SOL    HW169916   3.900  14.100  11.675
22673SOL    HW269917   4.028  14.154  11.615
22674SOL     OW69918   7.892  14.792   9.325
22674SOL    HW169919   7.800  14.764   9.326
22674SOL    HW269920   7.928  14.756   9.406
22675SOL     OW69921   9.277  14.228  10.930
22675SOL    HW169922   9.228  14.280  10.867
22675SOL    HW269923   9.342  14.181  10.878
22676SOL     OW69924  10.916   9.164  14.856
22676SOL    HW169925  10.871   9.110   0.039
22676SOL    HW269926  10.846   9.207  14.807
22677SOL     OW69927  13.085  10.917  11.932
22677SOL    HW169928  12.990  10.912  11.937
22677SOL    HW269929  13.106  11.008  11.956
22678SOL     OW69930  11.954  14.708  12.533
22678SOL    HW169931  11.932  14.647  12.604
22678SOL    HW269932  11.975  14.651  12.459
22679SOL     OW69933   4.843   0.506  10.912
22679SOL    HW169934   4.806   0.432  10.864
22679SOL    HW269935   4.902   0.468  10.976
22680SOL     OW69936   3.783   9.692   7.667
22680SOL    HW169937   3.700   9.727   7.699
22680SOL    HW269938   3.794   9.732   7.581
22681SOL     OW69939   2.378   0.841  11.072
22681SOL    HW169940   2.334   0.825  11.155
22681SOL    HW269941   2.410   0.755  11.045
22682SOL     OW69942   1.506   4.298   4.696
22682SOL    HW169943   1.432   4.332   4.747
22682SOL    HW269944   1.576   4.287   4.761
22683SOL     OW69945  11.211  10.481   6.756
22683SOL    HW169946  11.290  10.496   6.808
22683SOL    HW269947  11.161  10.416   6.807
22684SOL     OW69948   6.884  14.524   0.812
22684SOL    HW169949   6.837  14.445   0.839
22684SOL    HW269950   6.966  14.491   0.774
22685SOL     OW69951  12.125   3.351   8.272
22685SOL    HW169952  12.055   3.311   8.323
22685SOL    HW269953  12.201   3.350   8.330
22686SOL     OW69954  12.137  12.461   6.653
22686SOL    HW169955  12.216  12.411   6.630
22686SOL    HW269956  12.076  12.442   6.582
22687SOL     OW69957   7.430  14.154   5.266
22687SOL    HW169958   7.521  14.161   5.237
22687SOL    HW269959   7.391  14.091   5.206
22688SOL     OW69960  14.232   9.441   0.305
22688SOL    HW169961  14.321   9.476   0.312
22688SOL    HW269962  14.207   9.455   0.214
22689SOL     OW69963   1.763  12.724  11.993
22689SOL    HW169964   1.789  12.714  11.901
22689SOL    HW269965   1.710  12.804  11.995
22690SOL     OW69966   8.146   7.047   5.880
22690SOL    HW169967   8.058   7.035   5.845
22690SOL    HW269968   8.137   7.117   5.946
22691SOL     OW69969  14.674  14.173  14.059
22691SOL    HW169970  14.625  14.228  14.120
22691SOL    HW269971  14.651  14.207  13.973
22692SOL     OW69972   5.510   5.908  13.874
22692SOL    HW169973   5.425   5.913  13.830
22692SOL    HW269974   5.500   5.838  13.939
22693SOL     OW69975   7.807  12.860   3.398
22693SOL    HW169976   7.774  12.896   3.316
22693SOL    HW269977   7.863  12.929   3.433
22694SOL     OW69978  13.331  12.625  10.574
22694SOL    HW169979  13.241  12.635  10.605
22694SOL    HW269980  13.381  12.604  10.653
22695SOL     OW69981   6.215  12.972   2.873
22695SOL    HW169982   6.194  13.044   2.815
22695SOL    HW269983   6.301  12.942   2.844
22696SOL     OW69984  11.426  11.569   7.777
22696SOL    HW169985  11.333  11.555   7.759
22696SOL    HW269986  11.454  11.632   7.710
22697SOL     OW69987   3.941   0.112   3.102
22697SOL    HW169988   3.959   0.095   3.010
22697SOL    HW269989   3.854   0.151   3.103
22698SOL     OW69990   3.787   7.498   3.409
22698SOL    HW169991   3.871   7.539   3.431
22698SOL    HW269992   3.768   7.529   3.320
22699SOL     OW69993  11.942   3.939  12.310
22699SOL    HW169994  12.014   3.929  12.372
22699SOL    HW269995  11.984   3.972  12.230
22700SOL     OW69996   9.526  10.967  11.938
22700SOL    HW169997   9.457  11.030  11.959
22700SOL    HW269998   9.606  11.019  11.939
22701SOL     OW69999   5.392  13.416   8.449
22701SOL    HW170000   5.366  13.328   8.476
22701SOL    HW270001   5.325  13.443   8.387
22702SOL     OW70002   7.027  13.976   5.306
22702SOL    HW170003   6.950  13.997   5.359
22702SOL    HW270004   7.087  14.049   5.322
22703SOL     OW70005  11.416   5.278  14.140
22703SOL    HW170006  11.395   5.359  14.186
22703SOL    HW270007  11.368   5.210  14.187
22704SOL     OW70008   6.050   1.301   5.327
22704SOL    HW170009   6.041   1.341   5.241
22704SOL    HW270010   5.971   1.328   5.374
22705SOL     OW70011   9.290   5.753  10.198
22705SOL    HW170012   9.245   5.697  10.261
22705SOL    HW270013   9.285   5.706  10.115
22706SOL     OW70014   7.239  10.018   6.344
22706SOL    HW170015   7.281   9.950   6.292
22706SOL    HW270016   7.189   9.971   6.411
22707SOL     OW70017   7.422   3.840   1.673
22707SOL    HW170018   7.457   3.811   1.757
22707SOL    HW270019   7.497   3.835   1.613
22708SOL     OW70020   1.247   3.264   6.986
22708SOL    HW170021   1.258   3.299   6.898
22708SOL    HW270022   1.249   3.169   6.976
22709SOL     OW70023  11.157  10.340   4.121
22709SOL    HW170024  11.105  10.406   4.167
22709SOL    HW270025  11.243  10.381   4.110
22710SOL     OW70026   0.666   3.887  14.814
22710SOL    HW170027   0.581   3.887  14.769
22710SOL    HW270028   0.651   3.839   0.012
22711SOL     OW70029   1.211   2.502   4.758
22711SOL    HW170030   1.168   2.561   4.696
22711SOL    HW270031   1.139   2.457   4.802
22712SOL     OW70032   1.227   7.320   4.149
22712SOL    HW170033   1.311   7.330   4.193
22712SOL    HW270034   1.162   7.329   4.219
22713SOL     OW70035   6.514   1.223   4.827
22713SOL    HW170036   6.603   1.210   4.860
22713SOL    HW270037   6.466   1.147   4.859
22714SOL     OW70038   2.924  14.151   9.728
22714SOL    HW170039   2.908  14.236   9.688
22714SOL    HW270040   2.845  14.100   9.706
22715SOL     OW70041   0.572  11.105  12.286
22715SOL    HW170042   0.615  11.115  12.201
22715SOL    HW270043   0.525  11.022  12.279
22716SOL     OW70044  10.910   5.438   3.078
22716SOL    HW170045  10.902   5.374   3.007
22716SOL    HW270046  10.930   5.520   3.034
22717SOL     OW70047  11.922  11.637  11.446
22717SOL    HW170048  11.928  11.720  11.399
22717SOL    HW270049  11.965  11.653  11.530
22718SOL     OW70050   0.324   2.616   9.182
22718SOL    HW170051   0.242   2.566   9.182
22718SOL    HW270052   0.300   2.700   9.221
22719SOL     OW70053  11.050   5.667  11.133
22719SOL    HW170054  11.096   5.748  11.110
22719SOL    HW270055  10.958   5.687  11.117
22720SOL     OW70056   4.823   7.833  10.850
22720SOL    HW170057   4.834   7.814  10.757
22720SOL    HW270058   4.873   7.914  10.864
22721SOL     OW70059  12.593  11.659   9.858
22721SOL    HW170060  12.545  11.579   9.877
22721SOL    HW270061  12.684  11.631   9.850
22722SOL     OW70062  13.307   5.952   6.279
22722SOL    HW170063  13.288   5.997   6.362
22722SOL    HW270064  13.283   6.016   6.212
22723SOL     OW70065   9.478   8.367   9.768
22723SOL    HW170066   9.388   8.398   9.761
22723SOL    HW270067   9.470   8.279   9.805
22724SOL     OW70068   2.468  14.304   2.518
22724SOL    HW170069   2.471  14.307   2.614
22724SOL    HW270070   2.492  14.214   2.496
22725SOL     OW70071   8.044  10.180  11.634
22725SOL    HW170072   8.117  10.201  11.692
22725SOL    HW270073   8.054  10.239  11.559
22726SOL     OW70074   4.365  11.094   0.026
22726SOL    HW170075   4.441  11.072  14.853
22726SOL    HW270076   4.316  11.012   0.032
22727SOL     OW70077   0.270  10.146   2.907
22727SOL    HW170078   0.259  10.063   2.861
22727SOL    HW270079   0.337  10.192   2.857
22728SOL     OW70080   5.817   9.782   6.936
22728SOL    HW170081   5.736   9.750   6.977
22728SOL    HW270082   5.872   9.704   6.928
22729SOL     OW70083  10.281   7.247   8.304
22729SOL    HW170084  10.228   7.172   8.277
22729SOL    HW270085  10.341   7.212   8.369
22730SOL     OW70086   1.078   5.266   5.320
22730SOL    HW170087   1.026   5.308   5.251
22730SOL    HW270088   1.147   5.329   5.339
22731SOL     OW70089  12.982  13.293   7.557
22731SOL    HW170090  12.994  13.246   7.639
22731SOL    HW270091  13.071  13.313   7.527
22732SOL     OW70092  11.677   5.875  11.642
22732SOL    HW170093  11.749   5.905  11.586
22732SOL    HW270094  11.668   5.945  11.708
22733SOL     OW70095  10.648   6.997   3.712
22733SOL    HW170096  10.629   7.022   3.803
22733SOL    HW270097  10.729   6.946   3.719
22734SOL     OW70098   3.261   8.882   5.876
22734SOL    HW170099   3.189   8.941   5.857
22734SOL    HW270100   3.291   8.851   5.791
22735SOL     OW70101   1.097  13.859   3.899
22735SOL    HW170102   1.130  13.949   3.896
22735SOL    HW270103   1.129  13.818   3.819
22736SOL     OW70104  13.126   3.881   9.928
22736SOL    HW170105  13.210   3.857   9.968
22736SOL    HW270106  13.060   3.853   9.992
22737SOL     OW70107   3.695   6.715   9.454
22737SOL    HW170108   3.657   6.736   9.539
22737SOL    HW270109   3.632   6.748   9.390
22738SOL     OW70110   6.077   4.183   5.035
22738SOL    HW170111   6.006   4.246   5.049
22738SOL    HW270112   6.032   4.102   5.010
22739SOL     OW70113   1.562   4.295   7.277
22739SOL    HW170114   1.491   4.336   7.326
22739SOL    HW270115   1.633   4.284   7.340
22740SOL     OW70116   2.451  10.705   9.298
22740SOL    HW170117   2.378  10.731   9.242
22740SOL    HW270118   2.410  10.673   9.378
22741SOL     OW70119  11.855   8.358   3.378
22741SOL    HW170120  11.811   8.316   3.452
22741SOL    HW270121  11.942   8.378   3.411
22742SOL     OW70122   6.692  12.656   6.573
22742SOL    HW170123   6.754  12.727   6.557
22742SOL    HW270124   6.722  12.616   6.655
22743SOL     OW70125   9.643   7.790  10.320
22743SOL    HW170126   9.586   7.719  10.350
22743SOL    HW270127   9.633   7.789  10.224
22744SOL     OW70128   6.809   6.318  14.616
22744SOL    HW170129   6.813   6.413  14.612
22744SOL    HW270130   6.755   6.292  14.542
22745SOL     OW70131   4.015   6.445   1.339
22745SOL    HW170132   4.006   6.466   1.246
22745SOL    HW270133   3.941   6.386   1.357
22746SOL     OW70134  14.849   6.067  13.875
22746SOL    HW170135   0.020   6.112  13.940
22746SOL    HW270136   0.030   6.034  13.811
22747SOL     OW70137   8.972   3.409   6.120
22747SOL    HW170138   9.034   3.479   6.143
22747SOL    HW270139   8.930   3.387   6.203
22748SOL     OW70140   6.378   4.604   3.196
22748SOL    HW170141   6.321   4.592   3.120
22748SOL    HW270142   6.390   4.516   3.231
22749SOL     OW70143   9.272   4.565   4.423
22749SOL    HW170144   9.226   4.612   4.353
22749SOL    HW270145   9.328   4.503   4.377
22750SOL     OW70146   0.479  14.725   7.270
22750SOL    HW170147   0.452  14.684   7.353
22750SOL    HW270148   0.559  14.771   7.292
22751SOL     OW70149  12.090   0.903   0.535
22751SOL    HW170150  12.031   0.849   0.484
22751SOL    HW270151  12.089   0.865   0.623
22752SOL     OW70152  10.747   3.440   3.879
22752SOL    HW170153  10.701   3.481   3.807
22752SOL    HW270154  10.777   3.514   3.933
22753SOL     OW70155  13.827  11.042   6.061
22753SOL    HW170156  13.778  11.056   5.980
22753SOL    HW270157  13.803  10.953   6.088
22754SOL     OW70158   1.307   9.393   7.240
22754SOL    HW170159   1.381   9.344   7.206
22754SOL    HW270160   1.335   9.485   7.236
22755SOL     OW70161   8.032  10.970   6.914
22755SOL    HW170162   8.016  10.894   6.858
22755SOL    HW270163   7.989  10.948   6.997
22756SOL     OW70164   2.204  14.753   6.969
22756SOL    HW170165   2.133  14.746   7.033
22756SOL    HW270166   2.254  14.830   6.996
22757SOL     OW70167   6.394   1.002   3.601
22757SOL    HW170168   6.398   1.066   3.531
22757SOL    HW270169   6.412   1.052   3.681
22758SOL     OW70170   6.469   4.825   1.936
22758SOL    HW170171   6.486   4.912   1.899
22758SOL    HW270172   6.392   4.837   1.991
22759SOL     OW70173   6.218   8.302  13.427
22759SOL    HW170174   6.289   8.328  13.484
22759SOL    HW270175   6.242   8.214  13.398
22760SOL     OW70176   9.654   0.771   2.743
22760SOL    HW170177   9.696   0.694   2.782
22760SOL    HW270178   9.579   0.788   2.800
22761SOL     OW70179   8.638  14.711   1.161
22761SOL    HW170180   8.655  14.623   1.128
22761SOL    HW270181   8.617  14.699   1.253
22762SOL     OW70182   4.647   9.902   9.244
22762SOL    HW170183   4.704   9.826   9.249
22762SOL    HW270184   4.607   9.909   9.331
22763SOL     OW70185   8.805  11.876   4.516
22763SOL    HW170186   8.847  11.797   4.548
22763SOL    HW270187   8.780  11.856   4.426
22764SOL     OW70188   0.193   1.632   7.197
22764SOL    HW170189   0.163   1.616   7.108
22764SOL    HW270190   0.189   1.727   7.207
22765SOL     OW70191   3.973  10.561   3.816
22765SOL    HW170192   3.968  10.601   3.903
22765SOL    HW270193   3.922  10.480   3.824
22766SOL     OW70194  11.814  12.840   1.249
22766SOL    HW170195  11.798  12.903   1.178
22766SOL    HW270196  11.751  12.865   1.317
22767SOL     OW70197  14.791  12.979   7.541
22767SOL    HW170198  14.825  12.895   7.510
22767SOL    HW270199  14.822  12.985   7.632
22768SOL     OW70200  10.727   3.791   7.134
22768SOL    HW170201  10.759   3.782   7.224
22768SOL    HW270202  10.773   3.867   7.099
22769SOL     OW70203  14.337   3.556  13.150
22769SOL    HW170204  14.293   3.504  13.218
22769SOL    HW270205  14.428   3.528  13.155
22770SOL     OW70206  12.842   3.769  13.126
22770SOL    HW170207  12.785   3.746  13.199
22770SOL    HW270208  12.898   3.838  13.160
22771SOL     OW70209   0.335   1.018  10.014
22771SOL    HW170210   0.276   1.094  10.011
22771SOL    HW270211   0.403   1.043  10.076
22772SOL     OW70212   3.991   8.892  10.365
22772SOL    HW170213   4.005   8.972  10.314
22772SOL    HW270214   4.048   8.902  10.442
22773SOL     OW70215   4.555   2.876  11.972
22773SOL    HW170216   4.534   2.965  11.998
22773SOL    HW270217   4.491   2.822  12.016
22774SOL     OW70218  10.871  10.855   6.676
22774SOL    HW170219  10.915  10.791   6.732
22774SOL    HW270220  10.815  10.905   6.736
22775SOL     OW70221  11.754  11.653  13.622
22775SOL    HW170222  11.779  11.737  13.660
22775SOL    HW270223  11.837  11.610  13.601
22776SOL     OW70224  13.738   1.348   3.267
22776SOL    HW170225  13.661   1.291   3.268
22776SOL    HW270226  13.741   1.382   3.178
22777SOL     OW70227  10.146  10.331   6.645
22777SOL    HW170228  10.134  10.284   6.563
22777SOL    HW270229  10.231  10.300   6.678
22778SOL     OW70230   2.873   6.897   6.596
22778SOL    HW170231   2.911   6.908   6.509
22778SOL    HW270232   2.847   6.985   6.623
22779SOL     OW70233  10.028  12.114   4.298
22779SOL    HW170234  10.096  12.109   4.365
22779SOL    HW270235  10.074  12.102   4.215
22780SOL     OW70236   2.704  10.681   5.954
22780SOL    HW170237   2.702  10.720   5.866
22780SOL    HW270238   2.620  10.704   5.992
22781SOL     OW70239   0.352   6.627   5.822
22781SOL    HW170240   0.370   6.607   5.730
22781SOL    HW270241   0.427   6.679   5.851
22782SOL     OW70242   9.171  10.694   3.015
22782SOL    HW170243   9.192  10.657   3.101
22782SOL    HW270244   9.088  10.740   3.029
22783SOL     OW70245   0.334  12.085  11.818
22783SOL    HW170246   0.404  12.042  11.867
22783SOL    HW270247   0.280  12.127  11.886
22784SOL     OW70248   8.269   1.989   8.691
22784SOL    HW170249   8.246   2.070   8.645
22784SOL    HW270250   8.361   2.002   8.717
22785SOL     OW70251  12.486  13.328   9.540
22785SOL    HW170252  12.494  13.234   9.522
22785SOL    HW270253  12.393  13.347   9.529
22786SOL     OW70254   9.257   8.853  11.178
22786SOL    HW170255   9.170   8.891  11.191
22786SOL    HW270256   9.303   8.869  11.261
22787SOL     OW70257   4.029   7.847  11.586
22787SOL    HW170258   3.941   7.822  11.615
22787SOL    HW270259   4.069   7.888  11.662
22788SOL     OW70260  12.837   9.980  14.390
22788SOL    HW170261  12.801  10.020  14.310
22788SOL    HW270262  12.790  10.023  14.461
22789SOL     OW70263   4.184  10.975   5.248
22789SOL    HW170264   4.202  11.067   5.227
22789SOL    HW270265   4.223  10.962   5.334
22790SOL     OW70266   1.020   9.143   1.036
22790SOL    HW170267   1.068   9.162   1.117
22790SOL    HW270268   0.958   9.216   1.028
22791SOL     OW70269   4.101  10.288   2.780
22791SOL    HW170270   4.066  10.322   2.698
22791SOL    HW270271   4.061  10.201   2.788
22792SOL     OW70272   0.191   8.523  10.443
22792SOL    HW170273   0.285   8.526  10.463
22792SOL    HW270274   0.155   8.463  10.509
22793SOL     OW70275  13.064  14.760  14.338
22793SOL    HW170276  13.024  14.805  14.413
22793SOL    HW270277  13.081  14.671  14.370
22794SOL     OW70278   7.050  13.989  13.944
22794SOL    HW170279   6.975  14.041  13.970
22794SOL    HW270280   7.089  14.037  13.871
22795SOL     OW70281   1.893   3.563   5.641
22795SOL    HW170282   1.843   3.482   5.632
22795SOL    HW270283   1.913   3.568   5.734
22796SOL     OW70284   7.054   1.308  14.378
22796SOL    HW170285   6.985   1.339  14.436
22796SOL    HW270286   7.048   1.365  14.301
22797SOL     OW70287   5.418  13.451   6.137
22797SOL    HW170288   5.364  13.487   6.067
22797SOL    HW270289   5.480  13.521   6.158
22798SOL     OW70290   9.177   0.605   6.050
22798SOL    HW170291   9.206   0.527   6.097
22798SOL    HW270292   9.258   0.647   6.022
22799SOL     OW70293   1.173   7.899   1.464
22799SOL    HW170294   1.256   7.892   1.512
22799SOL    HW270295   1.181   7.979   1.413
22800SOL     OW70296  13.909   2.968   0.360
22800SOL    HW170297  13.838   2.942   0.418
22800SOL    HW270298  13.880   2.939   0.273
22801SOL     OW70299  14.094  10.940   5.224
22801SOL    HW170300  14.039  10.966   5.298
22801SOL    HW270301  14.032  10.920   5.154
22802SOL     OW70302  13.045   9.260   5.626
22802SOL    HW170303  13.051   9.325   5.697
22802SOL    HW270304  13.115   9.284   5.566
22803SOL     OW70305   1.834  10.995   0.804
22803SOL    HW170306   1.924  10.963   0.813
22803SOL    HW270307   1.834  11.046   0.723
22804SOL     OW70308   4.712  13.347   1.254
22804SOL    HW170309   4.633  13.343   1.201
22804SOL    HW270310   4.700  13.280   1.322
22805SOL     OW70311   5.398  12.231   1.935
22805SOL    HW170312   5.418  12.277   2.017
22805SOL    HW270313   5.331  12.286   1.894
22806SOL     OW70314   1.037   2.679   5.805
22806SOL    HW170315   1.108   2.626   5.841
22806SOL    HW270316   0.986   2.618   5.751
22807SOL     OW70317   4.371   1.638  14.021
22807SOL    HW170318   4.437   1.632  14.090
22807SOL    HW270319   4.374   1.729  13.992
22808SOL     OW70320  14.291   1.943   2.742
22808SOL    HW170321  14.386   1.937   2.754
22808SOL    HW270322  14.272   2.036   2.753
22809SOL     OW70323   2.720  13.108   8.658
22809SOL    HW170324   2.674  13.096   8.575
22809SOL    HW270325   2.806  13.068   8.643
22810SOL     OW70326  10.532  10.722  14.059
22810SOL    HW170327  10.520  10.682  14.146
22810SOL    HW270328  10.597  10.666  14.016
22811SOL     OW70329  11.776   1.964  14.160
22811SOL    HW170330  11.815   2.050  14.148
22811SOL    HW270331  11.828   1.924  14.230
22812SOL     OW70332   7.918  13.531   1.188
22812SOL    HW170333   7.905  13.614   1.235
22812SOL    HW270334   7.888  13.549   1.099
22813SOL     OW70335   6.552   9.019   1.174
22813SOL    HW170336   6.630   8.985   1.217
22813SOL    HW270337   6.488   8.948   1.180
22814SOL     OW70338   2.770   6.780   3.956
22814SOL    HW170339   2.837   6.731   3.908
22814SOL    HW270340   2.709   6.809   3.888
22815SOL     OW70341  12.351   1.715  13.067
22815SOL    HW170342  12.340   1.787  13.130
22815SOL    HW270343  12.271   1.718  13.014
22816SOL     OW70344   3.584   5.603   4.838
22816SOL    HW170345   3.590   5.681   4.783
22816SOL    HW270346   3.493   5.573   4.829
22817SOL     OW70347   4.599   6.136   0.741
22817SOL    HW170348   4.678   6.083   0.750
22817SOL    HW270349   4.583   6.139   0.646
22818SOL     OW70350   8.381   2.236   8.141
22818SOL    HW170351   8.319   2.227   8.068
22818SOL    HW270352   8.426   2.319   8.124
22819SOL     OW70353   8.642   6.094  12.874
22819SOL    HW170354   8.677   6.165  12.821
22819SOL    HW270355   8.621   6.025  12.811
22820SOL     OW70356  13.246   2.114   9.711
22820SOL    HW170357  13.267   2.117   9.618
22820SOL    HW270358  13.292   2.189   9.749
22821SOL     OW70359   5.068   9.967   5.604
22821SOL    HW170360   5.157   9.979   5.570
22821SOL    HW270361   5.052   9.873   5.596
22822SOL     OW70362   6.040   4.231  11.415
22822SOL    HW170363   6.057   4.325  11.414
22822SOL    HW270364   6.057   4.204  11.505
22823SOL     OW70365   5.020   7.453   6.040
22823SOL    HW170366   5.069   7.455   5.958
22823SOL    HW270367   5.078   7.494   6.104
22824SOL     OW70368  10.077   2.374   3.328
22824SOL    HW170369  10.016   2.309   3.363
22824SOL    HW270370  10.030   2.457   3.337
22825SOL     OW70371   9.857   4.373  13.467
22825SOL    HW170372   9.841   4.278  13.465
22825SOL    HW270373   9.951   4.382  13.456
22826SOL     OW70374   4.082  12.535   6.764
22826SOL    HW170375   4.044  12.620   6.741
22826SOL    HW270376   4.099  12.493   6.679
22827SOL     OW70377   1.703   2.471   8.856
22827SOL    HW170378   1.640   2.408   8.821
22827SOL    HW270379   1.657   2.516   8.926
22828SOL     OW70380   1.455   2.643  14.343
22828SOL    HW170381   1.420   2.591  14.271
22828SOL    HW270382   1.378   2.678  14.388
22829SOL     OW70383  11.899   7.306   5.161
22829SOL    HW170384  11.853   7.316   5.245
22829SOL    HW270385  11.984   7.346   5.176
22830SOL     OW70386  11.631   6.577   2.712
22830SOL    HW170387  11.577   6.535   2.645
22830SOL    HW270388  11.588   6.556   2.795
22831SOL     OW70389   5.280   0.737   4.855
22831SOL    HW170390   5.217   0.727   4.784
22831SOL    HW270391   5.252   0.816   4.901
22832SOL     OW70392   9.330   8.616   5.385
22832SOL    HW170393   9.424   8.599   5.391
22832SOL    HW270394   9.322   8.709   5.405
22833SOL     OW70395   1.081   0.439   3.756
22833SOL    HW170396   1.050   0.495   3.827
22833SOL    HW270397   1.001   0.410   3.711
22834SOL     OW70398   8.994  12.721  12.386
22834SOL    HW170399   8.951  12.802  12.360
22834SOL    HW270400   9.057  12.705  12.316
22835SOL     OW70401   3.126   7.570   4.905
22835SOL    HW170402   3.039   7.561   4.944
22835SOL    HW270403   3.150   7.481   4.881
22836SOL     OW70404  10.185   5.691  11.768
22836SOL    HW170405  10.210   5.705  11.859
22836SOL    HW270406  10.089   5.688  11.769
22837SOL     OW70407   8.295  14.030   6.456
22837SOL    HW170408   8.332  13.961   6.401
22837SOL    HW270409   8.219  13.989   6.498
22838SOL     OW70410  13.659   7.986   5.929
22838SOL    HW170411  13.716   8.034   5.868
22838SOL    HW270412  13.586   7.957   5.874
22839SOL     OW70413   4.856   2.571   6.693
22839SOL    HW170414   4.795   2.549   6.764
22839SOL    HW270415   4.804   2.558   6.613
22840SOL     OW70416  11.317   6.550   3.330
22840SOL    HW170417  11.253   6.592   3.273
22840SOL    HW270418  11.381   6.511   3.270
22841SOL     OW70419  14.200   3.204  12.948
22841SOL    HW170420  14.218   3.143  12.876
22841SOL    HW270421  14.193   3.289  12.906
22842SOL     OW70422  13.294   9.284   5.506
22842SOL    HW170423  13.383   9.306   5.479
22842SOL    HW270424  13.300   9.192   5.533
22843SOL     OW70425   2.841   4.012   9.573
22843SOL    HW170426   2.920   4.065   9.576
22843SOL    HW270427   2.852   3.948   9.643
22844SOL     OW70428   1.055   8.544   0.807
22844SOL    HW170429   1.149   8.534   0.792
22844SOL    HW270430   1.017   8.549   0.719
22845SOL     OW70431   8.702   7.560  12.407
22845SOL    HW170432   8.627   7.532  12.459
22845SOL    HW270433   8.665   7.595  12.326
22846SOL     OW70434   0.993   4.168   1.996
22846SOL    HW170435   0.972   4.140   2.085
22846SOL    HW270436   1.041   4.095   1.958
22847SOL     OW70437   4.722   4.439   2.388
22847SOL    HW170438   4.719   4.444   2.483
22847SOL    HW270439   4.796   4.382   2.369
22848SOL     OW70440   0.407   8.826   3.810
22848SOL    HW170441   0.446   8.811   3.724
22848SOL    HW270442   0.340   8.893   3.795
22849SOL     OW70443   6.727   9.513   5.946
22849SOL    HW170444   6.677   9.459   5.885
22849SOL    HW270445   6.745   9.594   5.898
22850SOL     OW70446   3.547  12.319  10.044
22850SOL    HW170447   3.603  12.371  10.100
22850SOL    HW270448   3.537  12.236  10.090
22851SOL     OW70449   5.045   2.576  11.510
22851SOL    HW170450   5.026   2.604  11.600
22851SOL    HW270451   4.986   2.628  11.456
22852SOL     OW70452   5.291  11.775  10.150
22852SOL    HW170453   5.226  11.727  10.203
22852SOL    HW270454   5.263  11.761  10.060
22853SOL     OW70455   1.837  10.263   7.299
22853SOL    HW170456   1.913  10.287   7.246
22853SOL    HW270457   1.866  10.188   7.350
22854SOL     OW70458   6.970   2.973  12.369
22854SOL    HW170459   7.019   2.939  12.294
22854SOL    HW270460   7.038   2.999  12.432
22855SOL     OW70461   0.722   2.942  14.613
22855SOL    HW170462   0.633   2.909  14.627
22855SOL    HW270463   0.717   3.034  14.638
22856SOL     OW70464  13.401  11.914   1.637
22856SOL    HW170465  13.454  11.904   1.716
22856SOL    HW270466  13.387  12.009   1.631
22857SOL     OW70467   8.316  11.251  12.919
22857SOL    HW170468   8.388  11.302  12.956
22857SOL    HW270469   8.304  11.285  12.831
22858SOL     OW70470   5.461   0.539   7.493
22858SOL    HW170471   5.390   0.570   7.437
22858SOL    HW270472   5.532   0.602   7.480
22859SOL     OW70473   4.884  14.863  13.915
22859SOL    HW170474   4.910   0.037  13.842
22859SOL    HW270475   4.883   0.040  13.991
22860SOL     OW70476   8.219   2.673   3.180
22860SOL    HW170477   8.283   2.739   3.205
22860SOL    HW270478   8.206   2.686   3.086
22861SOL     OW70479   9.715   5.984   0.212
22861SOL    HW170480   9.685   5.999   0.122
22861SOL    HW270481   9.807   5.963   0.203
22862SOL     OW70482   4.456   9.205   5.923
22862SOL    HW170483   4.392   9.137   5.903
22862SOL    HW270484   4.494   9.178   6.007
22863SOL     OW70485   9.894   1.106   3.064
22863SOL    HW170486   9.893   1.108   3.160
22863SOL    HW270487   9.982   1.134   3.041
22864SOL     OW70488   5.970   9.536  13.354
22864SOL    HW170489   6.046   9.484  13.327
22864SOL    HW270490   6.007   9.620  13.381
22865SOL     OW70491   8.691  11.085  14.855
22865SOL    HW170492   8.615  11.141  14.842
22865SOL    HW270493   8.724  11.069  14.767
22866SOL     OW70494   6.359  12.234  13.324
22866SOL    HW170495   6.425  12.183  13.277
22866SOL    HW270496   6.410  12.293  13.380
22867SOL     OW70497  11.790   0.043  13.537
22867SOL    HW170498  11.879   0.064  13.509
22867SOL    HW270499  11.797   0.032  13.632
22868SOL     OW70500   7.122   8.255  11.470
22868SOL    HW170501   7.115   8.244  11.565
22868SOL    HW270502   7.043   8.217  11.435
22869SOL     OW70503   8.969   3.575   4.574
22869SOL    HW170504   8.992   3.495   4.620
22869SOL    HW270505   8.877   3.563   4.549
22870SOL     OW70506  11.595   1.071   7.779
22870SOL    HW170507  11.542   1.080   7.701
22870SOL    HW270508  11.541   1.021   7.840
22871SOL     OW70509  11.915  13.933   3.302
22871SOL    HW170510  11.848  13.916   3.235
22871SOL    HW270511  11.879  14.005   3.353
22872SOL     OW70512   4.005   3.131  10.761
22872SOL    HW170513   4.027   3.107  10.671
22872SOL    HW270514   3.912   3.154  10.759
22873SOL     OW70515  11.028   3.020  14.770
22873SOL    HW170516  11.012   2.926  14.778
22873SOL    HW270517  10.946   3.060  14.798
22874SOL     OW70518  12.738  12.934  13.312
22874SOL    HW170519  12.690  12.984  13.245
22874SOL    HW270520  12.710  12.973  13.395
22875SOL     OW70521  14.610   0.579   9.622
22875SOL    HW170522  14.665   0.570   9.700
22875SOL    HW270523  14.650   0.521   9.558
22876SOL     OW70524   5.587  12.072   5.181
22876SOL    HW170525   5.659  12.102   5.236
22876SOL    HW270526   5.508  12.089   5.232
22877SOL     OW70527   9.192  13.202   0.768
22877SOL    HW170528   9.256  13.142   0.729
22877SOL    HW270529   9.143  13.236   0.693
22878SOL     OW70530   6.546   2.471   4.452
22878SOL    HW170531   6.464   2.464   4.500
22878SOL    HW270532   6.562   2.565   4.444
22879SOL     OW70533   2.651   5.313  14.137
22879SOL    HW170534   2.648   5.266  14.220
22879SOL    HW270535   2.601   5.258  14.077
22880SOL     OW70536   0.250  13.652   9.328
22880SOL    HW170537   0.300  13.690   9.401
22880SOL    HW270538   0.197  13.584   9.368
22881SOL     OW70539  14.673  11.132   6.819
22881SOL    HW170540  14.736  11.143   6.747
22881SOL    HW270541  14.599  11.085   6.780
22882SOL     OW70542  10.761   8.008  11.653
22882SOL    HW170543  10.741   7.931  11.707
22882SOL    HW270544  10.848   8.036  11.682
22883SOL     OW70545   6.526  13.010  10.092
22883SOL    HW170546   6.464  13.053  10.034
22883SOL    HW270547   6.491  12.921  10.102
22884SOL     OW70548   9.858   1.702   7.309
22884SOL    HW170549   9.941   1.653   7.306
22884SOL    HW270550   9.833   1.698   7.402
22885SOL     OW70551   1.696   1.081  14.597
22885SOL    HW170552   1.633   1.132  14.648
22885SOL    HW270553   1.705   0.999  14.645
22886SOL     OW70554   7.383  12.549   3.457
22886SOL    HW170555   7.292  12.528   3.437
22886SOL    HW270556   7.420  12.577   3.373
22887SOL     OW70557   3.365  10.929   6.519
22887SOL    HW170558   3.339  10.845   6.557
22887SOL    HW270559   3.349  10.919   6.425
22888SOL     OW70560   3.659  13.974  11.793
22888SOL    HW170561   3.713  13.897  11.809
22888SOL    HW270562   3.610  13.952  11.714
22889SOL     OW70563  10.512  13.571   9.573
22889SOL    HW170564  10.570  13.623   9.517
22889SOL    HW270565  10.534  13.596   9.662
22890SOL     OW70566   3.391   3.616   9.705
22890SOL    HW170567   3.447   3.646   9.776
22890SOL    HW270568   3.304   3.649   9.726
22891SOL     OW70569  11.528   2.818  10.041
22891SOL    HW170570  11.466   2.749  10.064
22891SOL    HW270571  11.487   2.899  10.074
22892SOL     OW70572   5.870   1.280   7.275
22892SOL    HW170573   5.951   1.309   7.317
22892SOL    HW270574   5.831   1.220   7.338
22893SOL     OW70575   8.904  11.230   9.661
22893SOL    HW170576   8.922  11.165   9.729
22893SOL    HW270577   8.825  11.275   9.692
22894SOL     OW70578  12.362   7.535   7.058
22894SOL    HW170579  12.355   7.492   6.973
22894SOL    HW270580  12.361   7.629   7.037
22895SOL     OW70581  14.253   3.223   6.715
22895SOL    HW170582  14.232   3.171   6.637
22895SOL    HW270583  14.306   3.295   6.681
22896SOL     OW70584   4.858   4.358   3.145
22896SOL    HW170585   4.764   4.343   3.148
22896SOL    HW270586   4.871   4.439   3.193
22897SOL     OW70587  12.725   5.419   6.043
22897SOL    HW170588  12.742   5.491   5.982
22897SOL    HW270589  12.733   5.458   6.130
22898SOL     OW70590   2.526   8.267  13.325
22898SOL    HW170591   2.552   8.273  13.233
22898SOL    HW270592   2.607   8.251  13.372
22899SOL     OW70593   0.521  13.729   8.945
22899SOL    HW170594   0.563  13.771   8.871
22899SOL    HW270595   0.575  13.652   8.964
22900SOL     OW70596   4.450  14.387  11.088
22900SOL    HW170597   4.361  14.412  11.060
22900SOL    HW270598   4.494  14.363  11.007
22901SOL     OW70599  10.625  10.001   8.276
22901SOL    HW170600  10.619  10.089   8.239
22901SOL    HW270601  10.570   9.947   8.219
22902SOL     OW70602  10.448   0.176   2.311
22902SOL    HW170603  10.391   0.132   2.247
22902SOL    HW270604  10.388   0.214   2.374
22903SOL     OW70605   6.103   6.437   6.125
22903SOL    HW170606   6.120   6.513   6.180
22903SOL    HW270607   6.073   6.370   6.187
22904SOL     OW70608  11.788  14.834  11.285
22904SOL    HW170609  11.766   0.021  11.222
22904SOL    HW270610  11.813  14.881  11.365
22905SOL     OW70611   0.784  10.825   3.592
22905SOL    HW170612   0.835  10.769   3.650
22905SOL    HW270613   0.782  10.910   3.636
22906SOL     OW70614  12.506   2.673   7.408
22906SOL    HW170615  12.452   2.751   7.417
22906SOL    HW270616  12.596   2.706   7.405
22907SOL     OW70617   4.550   6.287   7.812
22907SOL    HW170618   4.594   6.350   7.755
22907SOL    HW270619   4.619   6.226   7.838
22908SOL     OW70620   5.929   6.427   8.429
22908SOL    HW170621   5.934   6.468   8.515
22908SOL    HW270622   5.849   6.374   8.432
22909SOL     OW70623  14.754   1.593  14.512
22909SOL    HW170624  14.744   1.526  14.579
22909SOL    HW270625  14.690   1.569  14.445
22910SOL     OW70626   1.924  13.746   2.007
22910SOL    HW170627   2.012  13.783   1.999
22910SOL    HW270628   1.920  13.713   2.096
22911SOL     OW70629  12.913  13.340   1.210
22911SOL    HW170630  12.858  13.393   1.151
22911SOL    HW270631  12.910  13.386   1.294
22912SOL     OW70632  12.964   9.625  12.110
22912SOL    HW170633  12.875   9.659  12.106
22912SOL    HW270634  13.019   9.696  12.077
22913SOL     OW70635  13.154   1.802  13.621
22913SOL    HW170636  13.126   1.750  13.696
22913SOL    HW270637  13.085   1.789  13.556
22914SOL     OW70638   5.080  12.020   5.105
22914SOL    HW170639   5.018  12.083   5.069
22914SOL    HW270640   5.097  12.050   5.194
22915SOL     OW70641   9.867   8.529   8.202
22915SOL    HW170642   9.878   8.434   8.206
22915SOL    HW270643   9.869   8.558   8.293
22916SOL     OW70644   9.244  14.349   8.599
22916SOL    HW170645   9.214  14.278   8.542
22916SOL    HW270646   9.183  14.420   8.582
22917SOL     OW70647   5.260  11.436   0.784
22917SOL    HW170648   5.275  11.353   0.830
22917SOL    HW270649   5.343  11.454   0.740
22918SOL     OW70650   5.726  12.606  11.012
22918SOL    HW170651   5.744  12.534  10.953
22918SOL    HW270652   5.780  12.589  11.089
22919SOL     OW70653   9.560   2.374  14.279
22919SOL    HW170654   9.565   2.470  14.275
22919SOL    HW270655   9.489   2.357  14.341
22920SOL     OW70656   8.924   4.363   1.133
22920SOL    HW170657   8.950   4.340   1.222
22920SOL    HW270658   9.002   4.405   1.096
22921SOL     OW70659  13.964   6.821   5.473
22921SOL    HW170660  13.874   6.799   5.499
22921SOL    HW270661  13.960   6.827   5.377
22922SOL     OW70662   9.386   7.398   9.888
22922SOL    HW170663   9.337   7.319   9.866
22922SOL    HW270664   9.478   7.375   9.871
22923SOL     OW70665   2.274  11.501  11.047
22923SOL    HW170666   2.189  11.458  11.047
22923SOL    HW270667   2.310  11.483  11.133
22924SOL     OW70668   1.615   3.669  11.490
22924SOL    HW170669   1.569   3.710  11.417
22924SOL    HW270670   1.571   3.585  11.502
22925SOL     OW70671   5.400  11.015   3.368
22925SOL    HW170672   5.378  11.023   3.275
22925SOL    HW270673   5.320  10.981   3.409
22926SOL     OW70674   3.434   8.849  14.148
22926SOL    HW170675   3.345   8.815  14.140
22926SOL    HW270676   3.450   8.854  14.242
22927SOL     OW70677   5.177  11.140   6.326
22927SOL    HW170678   5.217  11.133   6.413
22927SOL    HW270679   5.252  11.147   6.266
22928SOL     OW70680   1.477   3.859   7.215
22928SOL    HW170681   1.407   3.919   7.187
22928SOL    HW270682   1.536   3.854   7.139
22929SOL     OW70683  11.238   9.916   1.207
22929SOL    HW170684  11.218   9.934   1.116
22929SOL    HW270685  11.197   9.831   1.224
22930SOL     OW70686  14.471   6.627  13.717
22930SOL    HW170687  14.508   6.715  13.725
22930SOL    HW270688  14.446   6.620  13.625
22931SOL     OW70689   8.531   3.647   0.412
22931SOL    HW170690   8.532   3.646   0.316
22931SOL    HW270691   8.615   3.609   0.437
22932SOL     OW70692   6.784  13.224  14.168
22932SOL    HW170693   6.701  13.176  14.173
22932SOL    HW270694   6.761  13.307  14.125
22933SOL     OW70695  10.008   1.309  11.172
22933SOL    HW170696   9.922   1.301  11.132
22933SOL    HW270697   9.992   1.355  11.254
22934SOL     OW70698  12.975  14.418   8.255
22934SOL    HW170699  13.060  14.399   8.214
22934SOL    HW270700  12.951  14.336   8.297
22935SOL     OW70701   8.373   9.179   3.622
22935SOL    HW170702   8.356   9.085   3.620
22935SOL    HW270703   8.289   9.220   3.602
22936SOL     OW70704  11.576  10.309   5.467
22936SOL    HW170705  11.532  10.383   5.424
22936SOL    HW270706  11.666  10.313   5.434
22937SOL     OW70707  11.118   0.821  12.793
22937SOL    HW170708  11.039   0.854  12.836
22937SOL    HW270709  11.142   0.890  12.731
22938SOL     OW70710   7.381   5.187   7.799
22938SOL    HW170711   7.311   5.134   7.761
22938SOL    HW270712   7.421   5.231   7.724
22939SOL     OW70713  11.105   2.656  13.291
22939SOL    HW170714  11.061   2.715  13.229
22939SOL    HW270715  11.112   2.707  13.372
22940SOL     OW70716  13.616   4.737  11.357
22940SOL    HW170717  13.524   4.750  11.331
22940SOL    HW270718  13.660   4.818  11.331
22941SOL     OW70719   4.275   8.250   3.114
22941SOL    HW170720   4.222   8.306   3.172
22941SOL    HW270721   4.352   8.303   3.094
22942SOL     OW70722   1.494   7.092   6.351
22942SOL    HW170723   1.425   7.033   6.383
22942SOL    HW270724   1.574   7.061   6.394
22943SOL     OW70725   0.850   9.995  13.919
22943SOL    HW170726   0.756   9.990  13.905
22943SOL    HW270727   0.866   9.939  13.995
22944SOL     OW70728   8.172  10.046  11.074
22944SOL    HW170729   8.163   9.958  11.110
22944SOL    HW270730   8.250  10.041  11.019
22945SOL     OW70731   5.891  12.998  13.850
22945SOL    HW170732   5.936  12.917  13.827
22945SOL    HW270733   5.818  13.003  13.789
22946SOL     OW70734   6.477   2.435   8.696
22946SOL    HW170735   6.520   2.447   8.611
22946SOL    HW270736   6.409   2.370   8.679
22947SOL     OW70737   6.275   7.399  11.344
22947SOL    HW170738   6.371   7.402  11.345
22947SOL    HW270739   6.251   7.437  11.260
22948SOL     OW70740   6.828   4.322   4.970
22948SOL    HW170741   6.833   4.377   5.048
22948SOL    HW270742   6.912   4.336   4.926
22949SOL     OW70743  14.861  13.798   6.552
22949SOL    HW170744   0.014  13.720   6.510
22949SOL    HW270745  14.803  13.837   6.487
22950SOL     OW70746   1.684   0.257   3.718
22950SOL    HW170747   1.663   0.181   3.771
22950SOL    HW270748   1.676   0.332   3.777
22951SOL     OW70749   6.503   5.124   7.480
22951SOL    HW170750   6.457   5.040   7.471
22951SOL    HW270751   6.596   5.100   7.473
22952SOL     OW70752  13.238   4.980   7.515
22952SOL    HW170753  13.321   5.010   7.478
22952SOL    HW270754  13.262   4.944   7.600
22953SOL     OW70755   5.508   9.948   7.331
22953SOL    HW170756   5.499   9.864   7.375
22953SOL    HW270757   5.581   9.936   7.271
22954SOL     OW70758  10.775   8.580   0.478
22954SOL    HW170759  10.698   8.553   0.429
22954SOL    HW270760  10.847   8.574   0.415
22955SOL     OW70761   4.467   6.269  11.302
22955SOL    HW170762   4.382   6.249  11.341
22955SOL    HW270763   4.504   6.183  11.279
22956SOL     OW70764   2.532   4.895   5.418
22956SOL    HW170765   2.441   4.869   5.408
22956SOL    HW270766   2.536   4.984   5.385
22957SOL     OW70767   1.203  10.864  11.901
22957SOL    HW170768   1.164  10.932  11.846
22957SOL    HW270769   1.185  10.782  11.856
22958SOL     OW70770   7.477   8.118   7.844
22958SOL    HW170771   7.504   8.145   7.756
22958SOL    HW270772   7.534   8.044   7.865
22959SOL     OW70773   1.109   3.650   7.337
22959SOL    HW170774   1.014   3.650   7.329
22959SOL    HW270775   1.134   3.742   7.333
22960SOL     OW70776   8.250   2.183   2.501
22960SOL    HW170777   8.327   2.239   2.493
22960SOL    HW270778   8.282   2.103   2.544
22961SOL     OW70779  10.338  10.864  11.478
22961SOL    HW170780  10.301  10.951  11.462
22961SOL    HW270781  10.263  10.804  11.471
22962SOL     OW70782   7.920   3.759   5.525
22962SOL    HW170783   7.943   3.770   5.617
22962SOL    HW270784   7.842   3.704   5.526
22963SOL     OW70785  10.934  14.333   5.834
22963SOL    HW170786  10.972  14.269   5.775
22963SOL    HW270787  11.008  14.385   5.865
22964SOL     OW70788   8.958  10.082   1.394
22964SOL    HW170789   9.035  10.049   1.348
22964SOL    HW270790   8.901  10.005   1.404
22965SOL     OW70791  12.074   3.882   3.666
22965SOL    HW170792  12.057   3.909   3.576
22965SOL    HW270793  12.040   3.793   3.671
22966SOL     OW70794  12.504   2.928   3.201
22966SOL    HW170795  12.477   2.946   3.291
22966SOL    HW270796  12.599   2.914   3.206
22967SOL     OW70797   8.979   0.001   1.253
22967SOL    HW170798   8.968  14.791   1.278
22967SOL    HW270799   8.945   0.050   1.328
22968SOL     OW70800  13.863   1.135   1.609
22968SOL    HW170801  13.878   1.213   1.555
22968SOL    HW270802  13.915   1.066   1.566
22969SOL     OW70803   8.616   0.637  12.528
22969SOL    HW170804   8.571   0.572  12.474
22969SOL    HW270805   8.578   0.626  12.615
22970SOL     OW70806   4.384   7.677   4.291
22970SOL    HW170807   4.318   7.629   4.342
22970SOL    HW270808   4.468   7.645   4.324
22971SOL     OW70809   7.395   6.216   5.196
22971SOL    HW170810   7.477   6.171   5.178
22971SOL    HW270811   7.416   6.309   5.188
22972SOL     OW70812   2.062   2.258  10.250
22972SOL    HW170813   2.086   2.240  10.341
22972SOL    HW270814   2.010   2.338  10.255
22973SOL     OW70815   8.241   3.985   7.664
22973SOL    HW170816   8.182   4.054   7.693
22973SOL    HW270817   8.229   3.914   7.727
22974SOL     OW70818   7.119   0.551   3.637
22974SOL    HW170819   7.187   0.501   3.591
22974SOL    HW270820   7.166   0.623   3.678
22975SOL     OW70821  10.315  12.118   9.418
22975SOL    HW170822  10.236  12.143   9.466
22975SOL    HW270823  10.384  12.116   9.484
22976SOL     OW70824   9.231  14.534   9.224
22976SOL    HW170825   9.252  14.536   9.130
22976SOL    HW270826   9.312  14.507   9.266
22977SOL     OW70827   3.131  10.192   1.911
22977SOL    HW170828   3.161  10.128   1.846
22977SOL    HW270829   3.135  10.144   1.994
22978SOL     OW70830  14.671   3.012   6.168
22978SOL    HW170831  14.746   2.952   6.159
22978SOL    HW270832  14.671   3.062   6.086
22979SOL     OW70833   7.694   1.839  10.259
22979SOL    HW170834   7.753   1.857  10.332
22979SOL    HW270835   7.752   1.815  10.186
22980SOL     OW70836   6.813   9.279   5.641
22980SOL    HW170837   6.794   9.257   5.733
22980SOL    HW270838   6.774   9.208   5.591
22981SOL     OW70839   7.893   7.490  12.030
22981SOL    HW170840   7.806   7.461  12.004
22981SOL    HW270841   7.880   7.531  12.116
22982SOL     OW70842   3.163   5.230  13.982
22982SOL    HW170843   3.173   5.314  14.027
22982SOL    HW270844   3.078   5.198  14.011
22983SOL     OW70845   4.895  14.614   5.099
22983SOL    HW170846   4.831  14.668   5.053
22983SOL    HW270847   4.843  14.561   5.160
22984SOL     OW70848   1.533  11.327  12.383
22984SOL    HW170849   1.508  11.356  12.295
22984SOL    HW270850   1.512  11.401  12.440
22985SOL     OW70851   6.596  12.421  14.181
22985SOL    HW170852   6.567  12.335  14.211
22985SOL    HW270853   6.685  12.430  14.215
22986SOL     OW70854   8.768   9.753   9.991
22986SOL    HW170855   8.829   9.763   9.917
22986SOL    HW270856   8.684   9.736   9.949
22987SOL     OW70857   1.175   8.028   4.457
22987SOL    HW170858   1.248   8.062   4.405
22987SOL    HW270859   1.171   8.086   4.533
22988SOL     OW70860   7.609   3.298  12.568
22988SOL    HW170861   7.539   3.234  12.556
22988SOL    HW270862   7.681   3.248  12.607
22989SOL     OW70863  13.926  11.390   3.548
22989SOL    HW170864  13.994  11.350   3.493
22989SOL    HW270865  13.901  11.469   3.502
22990SOL     OW70866   7.074   7.507  10.905
22990SOL    HW170867   7.044   7.584  10.856
22990SOL    HW270868   7.168   7.522  10.917
22991SOL     OW70869   6.628   8.892   7.967
22991SOL    HW170870   6.550   8.863   7.919
22991SOL    HW270871   6.640   8.825   8.035
22992SOL     OW70872   3.376  10.875  11.856
22992SOL    HW170873   3.388  10.872  11.761
22992SOL    HW270874   3.288  10.910  11.868
22993SOL     OW70875  10.341   1.397   3.977
22993SOL    HW170876  10.344   1.302   3.964
22993SOL    HW270877  10.382   1.434   3.899
22994SOL     OW70878  14.196   0.473   8.728
22994SOL    HW170879  14.150   0.539   8.676
22994SOL    HW270880  14.261   0.436   8.669
22995SOL     OW70881   5.785   3.535   8.524
22995SOL    HW170882   5.767   3.552   8.616
22995SOL    HW270883   5.730   3.597   8.476
22996SOL     OW70884   5.554   3.908   1.465
22996SOL    HW170885   5.512   3.828   1.496
22996SOL    HW270886   5.560   3.896   1.370
22997SOL     OW70887   0.266   4.773  13.978
22997SOL    HW170888   0.186   4.812  14.015
22997SOL    HW270889   0.316   4.847  13.946
22998SOL     OW70890  13.650  12.516   7.002
22998SOL    HW170891  13.731  12.531   6.953
22998SOL    HW270892  13.639  12.421   7.001
22999SOL     OW70893  10.492  12.525  13.537
22999SOL    HW170894  10.512  12.432  13.530
22999SOL    HW270895  10.504  12.559  13.448
23000SOL     OW70896  13.891   4.415   8.608
23000SOL    HW170897  13.934   4.369   8.536
23000SOL    HW270898  13.897   4.507   8.585
23001SOL     OW70899   5.841  11.320   2.375
23001SOL    HW170900   5.789  11.378   2.319
23001SOL    HW270901   5.785  11.243   2.388
23002SOL     OW70902   4.333   7.826   9.755
23002SOL    HW170903   4.388   7.841   9.831
23002SOL    HW270904   4.393   7.826   9.681
23003SOL     OW70905   0.850   7.749  10.083
23003SOL    HW170906   0.906   7.694  10.138
23003SOL    HW270907   0.796   7.687  10.035
23004SOL     OW70908   6.368   1.795   3.876
23004SOL    HW170909   6.304   1.820   3.809
23004SOL    HW270910   6.325   1.724   3.924
23005SOL     OW70911  12.505   7.083  10.818
23005SOL    HW170912  12.486   7.005  10.870
23005SOL    HW270913  12.598   7.076  10.796
23006SOL     OW70914  14.477   4.761   2.925
23006SOL    HW170915  14.463   4.760   3.019
23006SOL    HW270916  14.516   4.847   2.907
23007SOL     OW70917  11.884   8.618   8.920
23007SOL    HW170918  11.974   8.644   8.901
23007SOL    HW270919  11.889   8.580   9.008
23008SOL     OW70920  12.536  12.249  10.466
23008SOL    HW170921  12.522  12.333  10.424
23008SOL    HW270922  12.447  12.214  10.479
23009SOL     OW70923  12.790   8.525   0.788
23009SOL    HW170924  12.698   8.536   0.763
23009SOL    HW270925  12.789   8.529   0.884
23010SOL     OW70926  14.394   0.846  10.193
23010SOL    HW170927  14.367   0.787  10.122
23010SOL    HW270928  14.339   0.820  10.267
23011SOL     OW70929  13.258   4.263   3.909
23011SOL    HW170930  13.174   4.266   3.864
23011SOL    HW270931  13.236   4.268   4.002
23012SOL     OW70932   0.218  14.162   7.678
23012SOL    HW170933   0.162  14.108   7.623
23012SOL    HW270934   0.157  14.226   7.717
23013SOL     OW70935   0.384   9.877  14.508
23013SOL    HW170936   0.474   9.900  14.484
23013SOL    HW270937   0.364   9.799  14.456
23014SOL     OW70938  14.536   7.309  13.495
23014SOL    HW170939  14.578   7.296  13.411
23014SOL    HW270940  14.532   7.403  13.507
23015SOL     OW70941   0.516   4.322   6.875
23015SOL    HW170942   0.461   4.401   6.876
23015SOL    HW270943   0.559   4.324   6.789
23016SOL     OW70944  13.113   3.578  10.587
23016SOL    HW170945  13.051   3.594  10.515
23016SOL    HW270946  13.078   3.501  10.632
23017SOL     OW70947  10.973   8.822   6.186
23017SOL    HW170948  11.046   8.762   6.200
23017SOL    HW270949  10.899   8.782   6.231
23018SOL     OW70950   2.263   4.041   4.789
23018SOL    HW170951   2.324   3.983   4.744
23018SOL    HW270952   2.177   4.015   4.759
23019SOL     OW70953   8.165  12.875   6.008
23019SOL    HW170954   8.258  12.890   6.026
23019SOL    HW270955   8.153  12.781   6.016
23020SOL     OW70956  14.440   4.947  11.017
23020SOL    HW170957  14.375   5.015  10.998
23020SOL    HW270958  14.392   4.865  11.006
23021SOL     OW70959  13.989   5.354   1.365
23021SOL    HW170960  14.081   5.330   1.374
23021SOL    HW270961  13.975   5.423   1.429
23022SOL     OW70962   5.818   6.378   7.887
23022SOL    HW170963   5.833   6.368   7.981
23022SOL    HW270964   5.879   6.315   7.847
23023SOL     OW70965  11.752   1.734  11.892
23023SOL    HW170966  11.657   1.729  11.895
23023SOL    HW270967  11.772   1.764  11.803
23024SOL     OW70968   5.874   9.988   6.773
23024SOL    HW170969   5.847   9.926   6.841
23024SOL    HW270970   5.969   9.995   6.783
23025SOL     OW70971  12.437   2.202  11.585
23025SOL    HW170972  12.509   2.216  11.646
23025SOL    HW270973  12.388   2.284  11.586
23026SOL     OW70974   9.530   1.338  10.290
23026SOL    HW170975   9.589   1.263  10.293
23026SOL    HW270976   9.445   1.303  10.318
23027SOL     OW70977   6.728   0.738   4.943
23027SOL    HW170978   6.752   0.695   4.861
23027SOL    HW270979   6.759   0.827   4.933
23028SOL     OW70980   3.265  14.526  10.396
23028SOL    HW170981   3.336  14.526  10.333
23028SOL    HW270982   3.307  14.502  10.479
23029SOL     OW70983   2.372  10.706   7.325
23029SOL    HW170984   2.465  10.684   7.320
23029SOL    HW270985   2.363  10.781   7.265
23030SOL     OW70986  14.204  13.861   5.778
23030SOL    HW170987  14.184  13.880   5.870
23030SOL    HW270988  14.190  13.945   5.733
23031SOL     OW70989   9.110   3.801  13.842
23031SOL    HW170990   9.024   3.818  13.880
23031SOL    HW270991   9.124   3.873  13.781
23032SOL     OW70992  12.146   3.993  12.995
23032SOL    HW170993  12.117   4.079  13.024
23032SOL    HW270994  12.228   3.979  13.042
23033SOL     OW70995  11.369   0.340   9.615
23033SOL    HW170996  11.360   0.305   9.703
23033SOL    HW270997  11.387   0.433   9.627
23034SOL     OW70998   5.917   8.587   4.482
23034SOL    HW170999   5.832   8.589   4.438
23034SOL    HW271000   5.897   8.567   4.573
23035SOL     OW71001   6.111   4.452  12.421
23035SOL    HW171002   6.182   4.467  12.358
23035SOL    HW271003   6.141   4.379  12.474
23036SOL     OW71004  11.240  12.680   5.883
23036SOL    HW171005  11.292  12.747   5.840
23036SOL    HW271006  11.190  12.639   5.812
23037SOL     OW71007   6.074   4.930   1.728
23037SOL    HW171008   5.978   4.938   1.729
23037SOL    HW271009   6.090   4.836   1.730
23038SOL     OW71010   4.128   4.044   8.100
23038SOL    HW171011   4.117   4.106   8.172
23038SOL    HW271012   4.125   3.958   8.141
23039SOL     OW71013   5.086   3.687   9.808
23039SOL    HW171014   4.994   3.669   9.791
23039SOL    HW271015   5.129   3.602   9.803
23040SOL     OW71016   9.694  14.574  14.330
23040SOL    HW171017   9.635  14.633  14.284
23040SOL    HW271018   9.648  14.490  14.330
23041SOL     OW71019   4.513   1.367   4.833
23041SOL    HW171020   4.592   1.420   4.828
23041SOL    HW271021   4.471   1.377   4.748
23042SOL     OW71022  11.314   3.846   6.047
23042SOL    HW171023  11.375   3.912   6.083
23042SOL    HW271024  11.369   3.792   5.990
23043SOL     OW71025   3.130   2.110  12.571
23043SOL    HW171026   3.162   2.037  12.517
23043SOL    HW271027   3.049   2.077  12.610
23044SOL     OW71028   1.966  10.379  12.088
23044SOL    HW171029   1.914  10.445  12.043
23044SOL    HW271030   1.903  10.325  12.134
23045SOL     OW71031   5.198   2.923   4.099
23045SOL    HW171032   5.234   2.986   4.037
23045SOL    HW271033   5.203   2.839   4.054
23046SOL     OW71034   6.873   2.896   7.225
23046SOL    HW171035   6.961   2.888   7.262
23046SOL    HW271036   6.834   2.969   7.273
23047SOL     OW71037   4.675  11.789   8.151
23047SOL    HW171038   4.765  11.781   8.184
23047SOL    HW271039   4.633  11.852   8.210
23048SOL     OW71040  14.224   1.447   7.949
23048SOL    HW171041  14.177   1.467   7.869
23048SOL    HW271042  14.310   1.414   7.920
23049SOL     OW71043   1.118   5.227   5.597
23049SOL    HW171044   1.104   5.228   5.503
23049SOL    HW271045   1.164   5.309   5.615
23050SOL     OW71046   1.718   1.359   2.957
23050SOL    HW171047   1.659   1.296   2.916
23050SOL    HW271048   1.692   1.443   2.920
23051SOL     OW71049  12.582   9.157  10.191
23051SOL    HW171050  12.513   9.218  10.164
23051SOL    HW271051  12.610   9.189  10.276
23052SOL     OW71052   1.426  12.626   3.865
23052SOL    HW171053   1.449  12.718   3.851
23052SOL    HW271054   1.351  12.629   3.925
23053SOL     OW71055   4.866   7.171  13.771
23053SOL    HW171056   4.776   7.145  13.754
23053SOL    HW271057   4.892   7.221  13.694
23054SOL     OW71058  11.887   7.421  12.927
23054SOL    HW171059  11.806   7.372  12.916
23054SOL    HW271060  11.905   7.458  12.841
23055SOL     OW71061  13.254  13.293  11.257
23055SOL    HW171062  13.299  13.222  11.301
23055SOL    HW271063  13.310  13.316  11.183
23056SOL     OW71064  12.058   7.745   1.352
23056SOL    HW171065  11.991   7.794   1.304
23056SOL    HW271066  12.099   7.810   1.409
23057SOL     OW71067   5.825  12.927   6.429
23057SOL    HW171068   5.863  13.005   6.471
23057SOL    HW271069   5.895  12.863   6.427
23058SOL     OW71070  12.987  12.114  13.751
23058SOL    HW171071  12.977  12.071  13.666
23058SOL    HW271072  12.963  12.205  13.735
23059SOL     OW71073  14.444   3.407  10.385
23059SOL    HW171074  14.402   3.323  10.365
23059SOL    HW271075  14.377   3.473  10.366
23060SOL     OW71076   6.191   2.345   7.752
23060SOL    HW171077   6.188   2.333   7.657
23060SOL    HW271078   6.214   2.437   7.763
23061SOL     OW71079   5.911  12.571  14.444
23061SOL    HW171080   6.000  12.572  14.481
23061SOL    HW271081   5.854  12.564  14.521
23062SOL     OW71082  11.263  14.676  14.293
23062SOL    HW171083  11.205  14.703  14.222
23062SOL    HW271084  11.205  14.668  14.369
23063SOL     OW71085   5.437  13.503   2.890
23063SOL    HW171086   5.343  13.510   2.877
23063SOL    HW271087   5.447  13.435   2.957
23064SOL     OW71088   7.555   9.112   6.842
23064SOL    HW171089   7.503   9.191   6.856
23064SOL    HW271090   7.646   9.139   6.859
23065SOL     OW71091  13.285   2.630  11.092
23065SOL    HW171092  13.325   2.653  11.176
23065SOL    HW271093  13.269   2.536  11.098
23066SOL     OW71094   7.182   2.592   8.778
23066SOL    HW171095   7.232   2.612   8.857
23066SOL    HW271096   7.210   2.504   8.752
23067SOL     OW71097   5.759  11.121  13.564
23067SOL    HW171098   5.685  11.107  13.623
23067SOL    HW271099   5.833  11.138  13.622
23068SOL     OW71100   4.833  11.373   3.981
23068SOL    HW171101   4.891  11.442   4.013
23068SOL    HW271102   4.787  11.342   4.059
23069SOL     OW71103   3.653   5.040   8.076
23069SOL    HW171104   3.717   5.098   8.034
23069SOL    HW271105   3.600   5.099   8.130
23070SOL     OW71106   7.063  12.822   2.854
23070SOL    HW171107   7.071  12.735   2.895
23070SOL    HW271108   7.154  12.851   2.843
23071SOL     OW71109  13.028   6.242   2.269
23071SOL    HW171110  13.093   6.182   2.306
23071SOL    HW271111  12.955   6.240   2.332
23072SOL     OW71112  11.010   5.820  12.152
23072SOL    HW171113  10.934   5.789  12.200
23072SOL    HW271114  10.974   5.866  12.076
23073SOL     OW71115  12.139  11.495   0.657
23073SOL    HW171116  12.205  11.428   0.637
23073SOL    HW271117  12.059  11.463   0.617
23074SOL     OW71118   5.384   6.827  11.116
23074SOL    HW171119   5.326   6.863  11.049
23074SOL    HW271120   5.464   6.804  11.069
23075SOL     OW71121  11.339  14.759   6.232
23075SOL    HW171122  11.350  14.733   6.323
23075SOL    HW271123  11.410  14.714   6.186
23076SOL     OW71124   7.547  14.132   0.299
23076SOL    HW171125   7.592  14.169   0.223
23076SOL    HW271126   7.491  14.064   0.263
23077SOL     OW71127   7.048   7.370   0.421
23077SOL    HW171128   7.019   7.395   0.333
23077SOL    HW271129   7.038   7.275   0.424
23078SOL     OW71130  13.563   0.833   9.196
23078SOL    HW171131  13.642   0.832   9.250
23078SOL    HW271132  13.496   0.873   9.251
23079SOL     OW71133   0.828   1.766   3.216
23079SOL    HW171134   0.827   1.743   3.309
23079SOL    HW271135   0.736   1.783   3.194
23080SOL     OW71136   9.954   5.307   5.117
23080SOL    HW171137  10.046   5.320   5.143
23080SOL    HW271138   9.927   5.230   5.167
23081SOL     OW71139   3.404  11.043   9.759
23081SOL    HW171140   3.344  11.013   9.828
23081SOL    HW271141   3.446  11.121   9.796
23082SOL     OW71142  14.012  12.408  10.028
23082SOL    HW171143  13.945  12.367   9.973
23082SOL    HW271144  13.984  12.499  10.036
23083SOL     OW71145   4.495   3.663   8.964
23083SOL    HW171146   4.402   3.676   8.943
23083SOL    HW271147   4.499   3.576   9.004
23084SOL     OW71148  11.911  10.984  10.789
23084SOL    HW171149  11.895  10.949  10.876
23084SOL    HW271150  11.888  10.913  10.729
23085SOL     OW71151  11.386   3.551  13.476
23085SOL    HW171152  11.409   3.629  13.527
23085SOL    HW271153  11.400   3.577  13.385
23086SOL     OW71154   3.160   2.751  14.651
23086SOL    HW171155   3.077   2.797  14.661
23086SOL    HW271156   3.160   2.684  14.719
23087SOL     OW71157   8.579   5.111   3.831
23087SOL    HW171158   8.596   5.180   3.768
23087SOL    HW271159   8.568   5.156   3.915
23088SOL     OW71160   4.156   1.602   2.475
23088SOL    HW171161   4.106   1.527   2.445
23088SOL    HW271162   4.121   1.676   2.426
23089SOL     OW71163  12.110   0.208   1.669
23089SOL    HW171164  12.194   0.253   1.664
23089SOL    HW271165  12.048   0.266   1.624
23090SOL     OW71166   9.596  10.772  13.972
23090SOL    HW171167   9.553  10.856  13.957
23090SOL    HW271168   9.611  10.769  14.066
23091SOL     OW71169  12.625   0.461   5.420
23091SOL    HW171170  12.718   0.439   5.413
23091SOL    HW271171  12.606   0.511   5.340
23092SOL     OW71172  13.274   5.707   3.624
23092SOL    HW171173  13.363   5.736   3.603
23092SOL    HW271174  13.274   5.614   3.606
23093SOL     OW71175  12.491   2.154  14.586
23093SOL    HW171176  12.550   2.174  14.659
23093SOL    HW271177  12.517   2.067  14.557
23094SOL     OW71178  11.688   6.741  11.351
23094SOL    HW171179  11.762   6.711  11.403
23094SOL    HW271180  11.691   6.837  11.358
23095SOL     OW71181   8.450   3.187   0.134
23095SOL    HW171182   8.530   3.238   0.124
23095SOL    HW271183   8.420   3.208   0.223
23096SOL     OW71184   2.394   6.769   9.880
23096SOL    HW171185   2.348   6.760   9.963
23096SOL    HW271186   2.331   6.739   9.814
23097SOL     OW71187   8.230   1.047   8.932
23097SOL    HW171188   8.305   1.104   8.951
23097SOL    HW271189   8.245   1.017   8.842
23098SOL     OW71190   4.166   0.348  13.275
23098SOL    HW171191   4.082   0.310  13.301
23098SOL    HW271192   4.189   0.406  13.347
23099SOL     OW71193   9.067   8.973   4.509
23099SOL    HW171194   9.137   8.912   4.531
23099SOL    HW271195   9.034   9.003   4.593
23100SOL     OW71196   4.584   1.103   4.896
23100SOL    HW171197   4.565   1.195   4.880
23100SOL    HW271198   4.678   1.101   4.916
23101SOL     OW71199  10.042   6.797   7.744
23101SOL    HW171200   9.951   6.813   7.766
23101SOL    HW271201  10.041   6.716   7.692
23102SOL     OW71202  13.771   7.811   4.312
23102SOL    HW171203  13.851   7.774   4.350
23102SOL    HW271204  13.734   7.863   4.382
23103SOL     OW71205  14.493   9.774   4.726
23103SOL    HW171206  14.519   9.850   4.778
23103SOL    HW271207  14.408   9.748   4.761
23104SOL     OW71208  11.196  12.979   3.583
23104SOL    HW171209  11.127  13.041   3.559
23104SOL    HW271210  11.243  13.022   3.654
23105SOL     OW71211  11.812  10.735   3.859
23105SOL    HW171212  11.732  10.697   3.823
23105SOL    HW271213  11.868  10.659   3.878
23106SOL     OW71214   5.613   7.354   9.491
23106SOL    HW171215   5.703   7.379   9.469
23106SOL    HW271216   5.623   7.272   9.539
23107SOL     OW71217   4.491  10.096   2.463
23107SOL    HW171218   4.474  10.115   2.555
23107SOL    HW271219   4.407  10.110   2.419
23108SOL     OW71220  12.674  12.726   1.729
23108SOL    HW171221  12.617  12.659   1.693
23108SOL    HW271222  12.622  12.768   1.797
23109SOL     OW71223  12.173   3.249  10.109
23109SOL    HW171224  12.190   3.164  10.068
23109SOL    HW271225  12.077   3.255  10.114
23110SOL     OW71226   0.874   6.192   4.147
23110SOL    HW171227   0.849   6.158   4.062
23110SOL    HW271228   0.961   6.156   4.164
23111SOL     OW71229   4.789   3.093  10.042
23111SOL    HW171230   4.865   3.041  10.018
23111SOL    HW271231   4.775   3.152   9.967
23112SOL     OW71232  11.047   1.011  11.345
23112SOL    HW171233  10.961   1.052  11.348
23112SOL    HW271234  11.106   1.078  11.380
23113SOL     OW71235   5.447   3.678   1.555
23113SOL    HW171236   5.516   3.620   1.588
23113SOL    HW271237   5.366   3.644   1.594
23114SOL     OW71238  11.296   0.492   2.463
23114SOL    HW171239  11.341   0.477   2.380
23114SOL    HW271240  11.238   0.567   2.446
23115SOL     OW71241  14.669   0.494  12.550
23115SOL    HW171242  14.691   0.587  12.541
23115SOL    HW271243  14.742   0.448  12.509
23116SOL     OW71244  11.056  13.014   3.968
23116SOL    HW171245  11.071  13.070   3.891
23116SOL    HW271246  11.122  13.043   4.031
23117SOL     OW71247  13.239  14.572   6.519
23117SOL    HW171248  13.236  14.543   6.428
23117SOL    HW271249  13.327  14.547   6.549
23118SOL     OW71250   2.629   4.273  11.686
23118SOL    HW171251   2.621   4.207  11.618
23118SOL    HW271252   2.588   4.234  11.763
23119SOL     OW71253  11.877  13.666   0.292
23119SOL    HW171254  11.895  13.587   0.342
23119SOL    HW271255  11.904  13.738   0.349
23120SOL     OW71256   1.578  12.864  13.353
23120SOL    HW171257   1.636  12.791  13.334
23120SOL    HW271258   1.509  12.827  13.409
23121SOL     OW71259   2.176   5.539   9.487
23121SOL    HW171260   2.165   5.634   9.486
23121SOL    HW271261   2.239   5.521   9.417
23122SOL     OW71262   1.828   0.317   3.040
23122SOL    HW171263   1.737   0.315   3.011
23122SOL    HW271264   1.839   0.237   3.092
23123SOL     OW71265   9.627   1.778  14.603
23123SOL    HW171266   9.717   1.795  14.576
23123SOL    HW271267   9.614   1.684  14.585
23124SOL     OW71268  12.937  10.156   3.698
23124SOL    HW171269  13.032  10.146   3.688
23124SOL    HW271270  12.905  10.161   3.608
23125SOL     OW71271   8.313   7.354  13.256
23125SOL    HW171272   8.381   7.380  13.194
23125SOL    HW271273   8.231   7.360  13.206
23126SOL     OW71274   0.838  10.024   6.531
23126SOL    HW171275   0.799  10.111   6.541
23126SOL    HW271276   0.917  10.027   6.585
23127SOL     OW71277  10.711   2.565   9.679
23127SOL    HW171278  10.792   2.516   9.667
23127SOL    HW271279  10.691   2.556   9.772
23128SOL     OW71280  13.134   4.213   6.407
23128SOL    HW171281  13.114   4.192   6.316
23128SOL    HW271282  13.060   4.180   6.457
23129SOL     OW71283   1.349  12.141   2.734
23129SOL    HW171284   1.341  12.227   2.776
23129SOL    HW271285   1.328  12.158   2.642
23130SOL     OW71286   0.710   7.342  12.150
23130SOL    HW171287   0.726   7.322  12.058
23130SOL    HW271288   0.783   7.302  12.197
23131SOL     OW71289   9.913   6.105  14.835
23131SOL    HW171290   9.924   6.050   0.030
23131SOL    HW271291   9.819   6.107  14.819
23132SOL     OW71292  14.548  12.856   5.792
23132SOL    HW171293  14.546  12.880   5.885
23132SOL    HW271294  14.628  12.804   5.783
23133SOL     OW71295  11.608   8.762   4.198
23133SOL    HW171296  11.597   8.857   4.192
23133SOL    HW271297  11.656   8.738   4.120
23134SOL     OW71298   6.777   9.272   1.193
23134SOL    HW171299   6.796   9.198   1.135
23134SOL    HW271300   6.752   9.343   1.134
23135SOL     OW71301   9.717  12.060   2.264
23135SOL    HW171302   9.632  12.063   2.306
23135SOL    HW271303   9.701  12.016   2.180
23136SOL     OW71304   3.262  12.356   8.322
23136SOL    HW171305   3.189  12.297   8.303
23136SOL    HW271306   3.250  12.429   8.262
23137SOL     OW71307   0.534   9.857   7.056
23137SOL    HW171308   0.611   9.898   7.016
23137SOL    HW271309   0.477   9.835   6.983
23138SOL     OW71310   2.360   5.621   8.703
23138SOL    HW171311   2.427   5.610   8.636
23138SOL    HW271312   2.277   5.613   8.655
23139SOL     OW71313   1.194   6.748   1.235
23139SOL    HW171314   1.232   6.663   1.212
23139SOL    HW271315   1.269   6.805   1.249
23140SOL     OW71316   2.848   6.230   8.264
23140SOL    HW171317   2.753   6.232   8.277
23140SOL    HW271318   2.882   6.186   8.342
23141SOL     OW71319   8.590   2.659   2.964
23141SOL    HW171320   8.619   2.587   3.021
23141SOL    HW271321   8.595   2.737   3.019
23142SOL     OW71322   0.628   6.100  10.979
23142SOL    HW171323   0.588   6.026  10.933
23142SOL    HW271324   0.582   6.103  11.063
23143SOL     OW71325   7.027  12.432  11.013
23143SOL    HW171326   7.001  12.348  11.050
23143SOL    HW271327   6.969  12.444  10.938
23144SOL     OW71328  13.315   3.872  12.749
23144SOL    HW171329  13.331   3.817  12.826
23144SOL    HW271330  13.276   3.812  12.685
23145SOL     OW71331   4.849  11.324   8.827
23145SOL    HW171332   4.893  11.333   8.911
23145SOL    HW271333   4.841  11.414   8.794
23146SOL     OW71334   6.724  13.104   2.937
23146SOL    HW171335   6.778  13.042   2.986
23146SOL    HW271336   6.662  13.049   2.889
23147SOL     OW71337   6.402  13.124   5.953
23147SOL    HW171338   6.423  13.059   6.020
23147SOL    HW271339   6.357  13.194   5.999
23148SOL     OW71340   3.347  10.575   0.360
23148SOL    HW171341   3.287  10.616   0.297
23148SOL    HW271342   3.433  10.609   0.336
23149SOL     OW71343   4.233  14.779   5.147
23149SOL    HW171344   4.187  14.863   5.147
23149SOL    HW271345   4.262  14.768   5.057
23150SOL     OW71346  14.802  14.256   3.172
23150SOL    HW171347  14.722  14.295   3.137
23150SOL    HW271348  14.789  14.161   3.164
23151SOL     OW71349   8.672   6.249   4.063
23151SOL    HW171350   8.722   6.279   3.988
23151SOL    HW271351   8.653   6.157   4.044
23152SOL     OW71352  10.365   8.050   1.442
23152SOL    HW171353  10.327   7.976   1.396
23152SOL    HW271354  10.453   8.060   1.405
23153SOL     OW71355   0.083  10.232   6.961
23153SOL    HW171356   0.154  10.168   6.970
23153SOL    HW271357   0.121  10.314   6.994
23154SOL     OW71358   5.499  12.689   4.154
23154SOL    HW171359   5.516  12.742   4.231
23154SOL    HW271360   5.443  12.743   4.099
23155SOL     OW71361  12.492  11.664  11.098
23155SOL    HW171362  12.510  11.657  11.005
23155SOL    HW271363  12.575  11.640  11.140
23156SOL     OW71364  13.734  10.009   3.221
23156SOL    HW171365  13.804  10.020   3.156
23156SOL    HW271366  13.653  10.014   3.170
23157SOL     OW71367   6.816  12.557   5.862
23157SOL    HW171368   6.839  12.487   5.801
23157SOL    HW271369   6.837  12.638   5.815
23158SOL     OW71370   1.585   0.202   7.968
23158SOL    HW171371   1.556   0.131   7.910
23158SOL    HW271372   1.617   0.157   8.046
23159SOL     OW71373   5.595   7.537   1.449
23159SOL    HW171374   5.638   7.546   1.364
23159SOL    HW271375   5.530   7.468   1.436
23160SOL     OW71376   0.344  10.916   0.508
23160SOL    HW171377   0.343  10.850   0.439
23160SOL    HW271378   0.288  10.880   0.576
23161SOL     OW71379   0.633  11.556   5.159
23161SOL    HW171380   0.611  11.478   5.107
23161SOL    HW271381   0.603  11.629   5.104
23162SOL     OW71382   3.718   4.066  12.573
23162SOL    HW171383   3.653   4.070  12.503
23162SOL    HW271384   3.678   4.115  12.646
23163SOL     OW71385   9.014  13.779   8.987
23163SOL    HW171386   9.044  13.866   9.013
23163SOL    HW271387   9.084  13.746   8.929
23164SOL     OW71388   5.291  12.307   9.253
23164SOL    HW171389   5.261  12.220   9.227
23164SOL    HW271390   5.334  12.342   9.174
23165SOL     OW71391  12.331  11.950   8.883
23165SOL    HW171392  12.340  12.044   8.892
23165SOL    HW271393  12.244  11.931   8.919
23166SOL     OW71394   4.562  10.978  12.737
23166SOL    HW171395   4.524  11.064  12.721
23166SOL    HW271396   4.579  10.975  12.831
23167SOL     OW71397   1.630   4.901  14.741
23167SOL    HW171398   1.568   4.959  14.784
23167SOL    HW271399   1.579   4.854  14.676
23168SOL     OW71400   3.010   8.029  10.866
23168SOL    HW171401   2.930   7.982  10.844
23168SOL    HW271402   3.034   7.997  10.953
23169SOL     OW71403  12.685   9.024  14.241
23169SOL    HW171404  12.755   9.047  14.180
23169SOL    HW271405  12.612   9.082  14.217
23170SOL     OW71406   7.947   0.633   1.485
23170SOL    HW171407   7.998   0.672   1.556
23170SOL    HW271408   7.996   0.553   1.463
23171SOL     OW71409   6.218  12.756   6.488
23171SOL    HW171410   6.170  12.701   6.550
23171SOL    HW271411   6.286  12.698   6.453
23172SOL     OW71412   2.065  10.719   3.042
23172SOL    HW171413   1.975  10.696   3.019
23172SOL    HW271414   2.118  10.649   3.004
23173SOL     OW71415   9.905   3.209  10.069
23173SOL    HW171416   9.828   3.262  10.050
23173SOL    HW271417   9.961   3.220   9.992
23174SOL     OW71418   6.454  12.606   6.451
23174SOL    HW171419   6.430  12.514   6.466
23174SOL    HW271420   6.536  12.617   6.498
23175SOL     OW71421   3.458   2.098   1.292
23175SOL    HW171422   3.481   2.008   1.316
23175SOL    HW271423   3.472   2.103   1.198
23176SOL     OW71424   8.930   5.274   3.622
23176SOL    HW171425   9.011   5.290   3.574
23176SOL    HW271426   8.861   5.280   3.556
23177SOL     OW71427   5.926   1.644   7.021
23177SOL    HW171428   5.872   1.690   6.956
23177SOL    HW271429   5.912   1.552   7.001
23178SOL     OW71430  13.780   3.570  10.088
23178SOL    HW171431  13.796   3.477  10.102
23178SOL    HW271432  13.813   3.613  10.167
23179SOL     OW71433  13.433  14.774  14.294
23179SOL    HW171434  13.394  14.713  14.357
23179SOL    HW271435  13.366  14.783  14.226
23180SOL     OW71436   6.071   5.872   4.747
23180SOL    HW171437   6.029   5.786   4.739
23180SOL    HW271438   6.160   5.852   4.776
23181SOL     OW71439   1.169  10.220  10.198
23181SOL    HW171440   1.132  10.185  10.117
23181SOL    HW271441   1.263  10.204  10.190
23182SOL     OW71442   4.675  12.258   3.900
23182SOL    HW171443   4.691  12.208   3.819
23182SOL    HW271444   4.762  12.272   3.937
23183SOL     OW71445  10.270   3.062  10.158
23183SOL    HW171446  10.365   3.059  10.155
23183SOL    HW271447  10.244   2.981  10.202
23184SOL     OW71448   2.490   9.546   9.542
23184SOL    HW171449   2.496   9.596   9.461
23184SOL    HW271450   2.580   9.522   9.563
23185SOL     OW71451  11.767   2.744  10.723
23185SOL    HW171452  11.762   2.700  10.638
23185SOL    HW271453  11.755   2.674  10.787
23186SOL     OW71454  12.198  11.317   2.386
23186SOL    HW171455  12.220  11.300   2.478
23186SOL    HW271456  12.151  11.239   2.358
23187SOL     OW71457   8.363  13.137   5.403
23187SOL    HW171458   8.296  13.071   5.386
23187SOL    HW271459   8.418  13.137   5.325
23188SOL     OW71460   7.044  12.078   9.303
23188SOL    HW171461   7.048  11.983   9.314
23188SOL    HW271462   7.049  12.092   9.209
23189SOL     OW71463   3.689   5.951   4.418
23189SOL    HW171464   3.714   6.026   4.471
23189SOL    HW271465   3.670   5.988   4.331
23190SOL     OW71466  13.467  11.592  14.324
23190SOL    HW171467  13.557  11.572  14.352
23190SOL    HW271468  13.448  11.527  14.256
23191SOL     OW71469   9.403   2.208   0.066
23191SOL    HW171470   9.455   2.233  14.872
23191SOL    HW271471   9.344   2.140   0.034
23192SOL     OW71472  13.715   6.113   7.889
23192SOL    HW171473  13.696   6.067   7.807
23192SOL    HW271474  13.729   6.204   7.862
23193SOL     OW71475   9.539   1.266  12.135
23193SOL    HW171476   9.456   1.290  12.175
23193SOL    HW271477   9.563   1.183  12.175
23194SOL     OW71478   5.350  13.706  11.744
23194SOL    HW171479   5.407  13.780  11.722
23194SOL    HW271480   5.404  13.629  11.727
23195SOL     OW71481  14.181   2.732   6.229
23195SOL    HW171482  14.231   2.729   6.310
23195SOL    HW271483  14.248   2.733   6.160
23196SOL     OW71484  12.212  11.898   0.796
23196SOL    HW171485  12.155  11.974   0.804
23196SOL    HW271486  12.182  11.853   0.718
23197SOL     OW71487   1.341  12.364  10.926
23197SOL    HW171488   1.321  12.416  11.004
23197SOL    HW271489   1.281  12.396  10.859
23198SOL     OW71490   8.538  11.345   4.316
23198SOL    HW171491   8.617  11.395   4.337
23198SOL    HW271492   8.564  11.254   4.328
23199SOL     OW71493  12.975  11.538  10.327
23199SOL    HW171494  12.996  11.471  10.262
23199SOL    HW271495  12.923  11.602  10.279
23200SOL     OW71496   1.700   6.274  12.155
23200SOL    HW171497   1.666   6.204  12.099
23200SOL    HW271498   1.777   6.235  12.198
23201SOL     OW71499   6.776  10.700   3.986
23201SOL    HW171500   6.749  10.660   4.069
23201SOL    HW271501   6.820  10.630   3.939
23202SOL     OW71502  12.060  12.876   5.800
23202SOL    HW171503  12.092  12.795   5.841
23202SOL    HW271504  12.039  12.933   5.873
23203SOL     OW71505   2.143  11.288  14.187
23203SOL    HW171506   2.095  11.313  14.266
23203SOL    HW271507   2.198  11.364  14.168
23204SOL     OW71508   1.531   1.946  10.782
23204SOL    HW171509   1.557   2.023  10.731
23204SOL    HW271510   1.586   1.948  10.860
23205SOL     OW71511   5.709  14.315   9.635
23205SOL    HW171512   5.664  14.272   9.562
23205SOL    HW271513   5.800  14.288   9.626
23206SOL     OW71514  14.526   2.876   5.285
23206SOL    HW171515  14.612   2.906   5.313
23206SOL    HW271516  14.465   2.943   5.316
23207SOL     OW71517   0.734  11.811  10.485
23207SOL    HW171518   0.685  11.729  10.491
23207SOL    HW271519   0.686  11.872  10.541
23208SOL     OW71520   9.492  11.554   8.238
23208SOL    HW171521   9.583  11.527   8.252
23208SOL    HW271522   9.464  11.587   8.323
23209SOL     OW71523   8.574   1.613   2.244
23209SOL    HW171524   8.526   1.617   2.327
23209SOL    HW271525   8.637   1.542   2.257
23210SOL     OW71526   8.010  13.511   3.338
23210SOL    HW171527   7.998  13.424   3.375
23210SOL    HW271528   7.922  13.538   3.311
23211SOL     OW71529  11.824  13.359   7.836
23211SOL    HW171530  11.800  13.422   7.904
23211SOL    HW271531  11.916  13.378   7.817
23212SOL     OW71532   3.961   3.299  13.739
23212SOL    HW171533   4.043   3.263  13.772
23212SOL    HW271534   3.921   3.342  13.815
23213SOL     OW71535   0.059   1.387  12.014
23213SOL    HW171536   0.038   1.443  11.939
23213SOL    HW271537  14.873   1.321  12.014
23214SOL     OW71538  12.692   6.263   8.634
23214SOL    HW171539  12.654   6.279   8.547
23214SOL    HW271540  12.617   6.242   8.689
23215SOL     OW71541   9.101   3.388   5.205
23215SOL    HW171542   9.119   3.434   5.123
23215SOL    HW271543   9.145   3.304   5.196
23216SOL     OW71544   6.290  12.834   0.735
23216SOL    HW171545   6.340  12.789   0.803
23216SOL    HW271546   6.227  12.888   0.784
23217SOL     OW71547   6.916  12.170  11.082
23217SOL    HW171548   6.853  12.146  11.014
23217SOL    HW271549   6.862  12.191  11.158
23218SOL     OW71550   4.479   4.594   1.849
23218SOL    HW171551   4.570   4.584   1.818
23218SOL    HW271552   4.487   4.645   1.930
23219SOL     OW71553  14.056   9.184   7.389
23219SOL    HW171554  14.042   9.255   7.327
23219SOL    HW271555  14.031   9.104   7.342
23220SOL     OW71556   7.346  10.467   9.088
23220SOL    HW171557   7.364  10.445   9.179
23220SOL    HW271558   7.407  10.414   9.038
23221SOL     OW71559   4.957   8.068   1.103
23221SOL    HW171560   4.918   8.133   1.161
23221SOL    HW271561   4.967   8.113   1.019
23222SOL     OW71562   9.738   5.839  14.288
23222SOL    HW171563   9.696   5.801  14.210
23222SOL    HW271564   9.771   5.924  14.258
23223SOL     OW71565  10.806   7.711   7.277
23223SOL    HW171566  10.897   7.681   7.278
23223SOL    HW271567  10.756   7.635   7.307
23224SOL     OW71568  11.169   7.923   4.128
23224SOL    HW171569  11.263   7.940   4.124
23224SOL    HW271570  11.133   7.999   4.174
23225SOL     OW71571  12.251  10.631   5.162
23225SOL    HW171572  12.228  10.619   5.070
23225SOL    HW271573  12.252  10.542   5.198
23226SOL     OW71574   3.926  12.489   6.241
23226SOL    HW171575   3.870  12.437   6.299
23226SOL    HW271576   3.952  12.427   6.172
23227SOL     OW71577  12.801  14.826   8.627
23227SOL    HW171578  12.857  14.810   8.551
23227SOL    HW271579  12.863  14.838   8.700
23228SOL     OW71580   4.534  12.319   9.012
23228SOL    HW171581   4.470  12.366   8.959
23228SOL    HW271582   4.488  12.240   9.040
23229SOL     OW71583   4.578   0.262  11.203
23229SOL    HW171584   4.648   0.262  11.268
23229SOL    HW271585   4.560   0.355  11.188
23230SOL     OW71586  12.640   2.589   4.641
23230SOL    HW171587  12.612   2.501   4.615
23230SOL    HW271588  12.626   2.592   4.736
23231SOL     OW71589   0.669   9.955  10.988
23231SOL    HW171590   0.711   9.886  11.039
23231SOL    HW271591   0.729  10.030  10.996
23232SOL     OW71592  13.123   0.072   7.207
23232SOL    HW171593  13.148   0.164   7.201
23232SOL    HW271594  13.199   0.028   7.245
23233SOL     OW71595  13.741   9.704   4.281
23233SOL    HW171596  13.755   9.615   4.315
23233SOL    HW271597  13.829   9.743   4.281
23234SOL     OW71598  11.361   7.427   6.575
23234SOL    HW171599  11.434   7.396   6.628
23234SOL    HW271600  11.290   7.442   6.637
23235SOL     OW71601  14.696   4.207   8.906
23235SOL    HW171602  14.674   4.198   8.814
23235SOL    HW271603  14.785   4.242   8.906
23236SOL     OW71604   0.630   4.224  13.820
23236SOL    HW171605   0.669   4.223  13.908
23236SOL    HW271606   0.677   4.156  13.772
23237SOL     OW71607  10.685   5.496  11.579
23237SOL    HW171608  10.709   5.555  11.508
23237SOL    HW271609  10.591   5.509  11.590
23238SOL     OW71610   2.549  11.807   9.463
23238SOL    HW171611   2.540  11.780   9.554
23238SOL    HW271612   2.640  11.833   9.454
23239SOL     OW71613   2.951  10.660   8.799
23239SOL    HW171614   2.941  10.605   8.877
23239SOL    HW271615   2.932  10.602   8.726
23240SOL     OW71616   1.524   8.558   4.291
23240SOL    HW171617   1.581   8.564   4.368
23240SOL    HW271618   1.566   8.615   4.226
23241SOL     OW71619  14.167   0.891   7.498
23241SOL    HW171620  14.229   0.842   7.443
23241SOL    HW271621  14.082   0.853   7.478
23242SOL     OW71622   3.186  13.370  14.146
23242SOL    HW171623   3.249  13.428  14.103
23242SOL    HW271624   3.154  13.314  14.076
23243SOL     OW71625  11.488   1.656   5.369
23243SOL    HW171626  11.394   1.674   5.364
23243SOL    HW271627  11.508   1.661   5.463
23244SOL     OW71628   6.194  12.707   7.264
23244SOL    HW171629   6.263  12.744   7.209
23244SOL    HW271630   6.226  12.620   7.288
23245SOL     OW71631   1.414   0.077   5.695
23245SOL    HW171632   1.460   0.057   5.776
23245SOL    HW271633   1.377   0.164   5.710
23246SOL     OW71634  10.559   4.453   7.496
23246SOL    HW171635  10.589   4.518   7.433
23246SOL    HW271636  10.465   4.471   7.506
23247SOL     OW71637  12.011  13.644   1.788
23247SOL    HW171638  12.063  13.572   1.825
23247SOL    HW271639  11.927  13.638   1.832
23248SOL     OW71640  12.498   9.892   6.845
23248SOL    HW171641  12.420   9.911   6.793
23248SOL    HW271642  12.527   9.806   6.814
23249SOL     OW71643   7.187  14.461   6.312
23249SOL    HW171644   7.234  14.544   6.300
23249SOL    HW271645   7.256  14.395   6.315
23250SOL     OW71646   8.889   2.743  10.488
23250SOL    HW171647   8.803   2.778  10.512
23250SOL    HW271648   8.950   2.780  10.552
23251SOL     OW71649   0.180  14.708   8.835
23251SOL    HW171650   0.143  14.794   8.856
23251SOL    HW271651   0.142  14.650   8.901
23252SOL     OW71652   6.460   4.177  11.296
23252SOL    HW171653   6.398   4.180  11.223
23252SOL    HW271654   6.542   4.147  11.257
23253SOL     OW71655   3.942   8.813  11.825
23253SOL    HW171656   3.848   8.827  11.837
23253SOL    HW271657   3.984   8.877  11.883
23254SOL     OW71658  12.428   5.829  13.647
23254SOL    HW171659  12.464   5.773  13.716
23254SOL    HW271660  12.477   5.805  13.568
23255SOL     OW71661   3.876   8.185  14.569
23255SOL    HW171662   3.787   8.220  14.575
23255SOL    HW271663   3.868   8.109  14.512
23256SOL     OW71664   5.638  12.016  12.251
23256SOL    HW171665   5.551  11.988  12.277
23256SOL    HW271666   5.694  11.994  12.326
23257SOL     OW71667   2.178   0.848  11.255
23257SOL    HW171668   2.102   0.790  11.247
23257SOL    HW271669   2.170   0.885  11.343
23258SOL     OW71670  10.811   6.971  14.457
23258SOL    HW171671  10.815   7.061  14.427
23258SOL    HW271672  10.771   6.923  14.385
23259SOL     OW71673   2.391  14.782  11.558
23259SOL    HW171674   2.320  14.846  11.560
23259SOL    HW271675   2.348  14.698  11.539
23260SOL     OW71676  13.341   3.157   9.998
23260SOL    HW171677  13.433   3.164   9.973
23260SOL    HW271678  13.295   3.208   9.932
23261SOL     OW71679  12.181  14.144   9.727
23261SOL    HW171680  12.086  14.143   9.726
23261SOL    HW271681  12.207  14.053   9.740
23262SOL     OW71682  14.778   9.714   9.174
23262SOL    HW171683  14.844   9.650   9.145
23262SOL    HW271684  14.806   9.797   9.135
23263SOL     OW71685   3.308  14.426  13.330
23263SOL    HW171686   3.282  14.369  13.402
23263SOL    HW271687   3.234  14.423  13.269
23264SOL     OW71688   9.404   7.826   6.647
23264SOL    HW171689   9.475   7.845   6.708
23264SOL    HW271690   9.324   7.843   6.697
23265SOL     OW71691  10.736   1.755  10.235
23265SOL    HW171692  10.811   1.768  10.177
23265SOL    HW271693  10.690   1.680  10.198
23266SOL     OW71694   1.949   2.323   8.530
23266SOL    HW171695   1.959   2.363   8.616
23266SOL    HW271696   1.917   2.234   8.548
23267SOL     OW71697   0.648   0.024   5.466
23267SOL    HW171698   0.636  14.818   5.501
23267SOL    HW271699   0.726   0.057   5.510
23268SOL     OW71700   7.696  14.275  10.254
23268SOL    HW171701   7.611  14.230  10.251
23268SOL    HW271702   7.675  14.367  10.237
23269SOL     OW71703  11.084   5.028   3.877
23269SOL    HW171704  11.025   4.957   3.851
23269SOL    HW271705  11.156   5.025   3.815
23270SOL     OW71706  12.787   8.122   9.163
23270SOL    HW171707  12.770   8.029   9.152
23270SOL    HW271708  12.782   8.137   9.258
23271SOL     OW71709   6.909   0.055  12.638
23271SOL    HW171710   6.905   0.150  12.624
23271SOL    HW271711   6.817   0.029  12.650
23272SOL     OW71712   5.469  11.226   8.765
23272SOL    HW171713   5.461  11.143   8.719
23272SOL    HW271714   5.475  11.202   8.857
23273SOL     OW71715   3.158   2.999  12.589
23273SOL    HW171716   3.154   3.011  12.494
23273SOL    HW271717   3.144   3.086  12.624
23274SOL     OW71718   3.619   6.508  13.942
23274SOL    HW171719   3.693   6.549  13.896
23274SOL    HW271720   3.659   6.439  13.996
23275SOL     OW71721  11.547  14.123   4.353
23275SOL    HW171722  11.629  14.172   4.363
23275SOL    HW271723  11.500  14.139   4.435
23276SOL     OW71724   8.805   2.188   4.552
23276SOL    HW171725   8.787   2.124   4.621
23276SOL    HW271726   8.884   2.154   4.509
23277SOL     OW71727   9.758   4.289   3.580
23277SOL    HW171728   9.764   4.381   3.607
23277SOL    HW271729   9.816   4.243   3.640
23278SOL     OW71730   2.577  13.011   3.093
23278SOL    HW171731   2.586  12.942   3.028
23278SOL    HW271732   2.628  13.084   3.059
23279SOL     OW71733  11.896   3.450   5.873
23279SOL    HW171734  11.939   3.508   5.810
23279SOL    HW271735  11.939   3.365   5.859
23280SOL     OW71736   2.748   2.675   7.460
23280SOL    HW171737   2.776   2.718   7.379
23280SOL    HW271738   2.654   2.689   7.464
23281SOL     OW71739   4.637   9.593   5.390
23281SOL    HW171740   4.725   9.621   5.366
23281SOL    HW271741   4.600   9.559   5.308
23282SOL     OW71742  13.682   5.283  12.882
23282SOL    HW171743  13.743   5.353  12.905
23282SOL    HW271744  13.685   5.223  12.956
23283SOL     OW71745   9.796  13.362   0.091
23283SOL    HW171746   9.722  13.401   0.046
23283SOL    HW271747   9.862  13.350   0.023
23284SOL     OW71748  12.203   8.058   3.657
23284SOL    HW171749  12.166   8.073   3.570
23284SOL    HW271750  12.155   8.118   3.714
23285SOL     OW71751   0.541  14.377   7.427
23285SOL    HW171752   0.603  14.430   7.478
23285SOL    HW271753   0.461  14.429   7.424
23286SOL     OW71754   6.111   6.543   1.009
23286SOL    HW171755   6.153   6.581   1.087
23286SOL    HW271756   6.028   6.509   1.040
23287SOL     OW71757   0.893  12.220  14.012
23287SOL    HW171758   0.982  12.244  14.039
23287SOL    HW271759   0.854  12.302  13.982
23288SOL     OW71760   6.122   7.974  13.132
23288SOL    HW171761   6.189   7.952  13.196
23288SOL    HW271762   6.127   8.070  13.124
23289SOL     OW71763  10.809  12.287  11.316
23289SOL    HW171764  10.764  12.321  11.393
23289SOL    HW271765  10.894  12.258  11.349
23290SOL     OW71766   1.938  11.994  13.283
23290SOL    HW171767   1.948  12.052  13.208
23290SOL    HW271768   1.982  11.913  13.258
23291SOL     OW71769   5.747   4.662   2.356
23291SOL    HW171770   5.720   4.635   2.268
23291SOL    HW271771   5.674   4.636   2.413
23292SOL     OW71772  10.748   9.010   8.101
23292SOL    HW171773  10.659   9.043   8.118
23292SOL    HW271774  10.746   8.919   8.127
23293SOL     OW71775  11.803   3.787   9.201
23293SOL    HW171776  11.830   3.737   9.123
23293SOL    HW271777  11.712   3.762   9.214
23294SOL     OW71778  12.689  10.142  14.221
23294SOL    HW171779  12.685  10.213  14.285
23294SOL    HW271780  12.608  10.151  14.170
23295SOL     OW71781   7.015  14.040   8.538
23295SOL    HW171782   6.981  14.015   8.624
23295SOL    HW271783   6.996  13.964   8.482
23296SOL     OW71784   0.025   2.850   5.036
23296SOL    HW171785   0.053   2.804   4.957
23296SOL    HW271786  14.841   2.793   5.075
23297SOL     OW71787   6.778   2.215   3.371
23297SOL    HW171788   6.761   2.276   3.442
23297SOL    HW271789   6.851   2.161   3.401
23298SOL     OW71790   1.735  13.213   5.477
23298SOL    HW171791   1.764  13.150   5.543
23298SOL    HW271792   1.798  13.203   5.406
23299SOL     OW71793   3.757   0.164   4.563
23299SOL    HW171794   3.841   0.142   4.603
23299SOL    HW271795   3.701   0.190   4.637
23300SOL     OW71796   9.037  10.799   7.155
23300SOL    HW171797   8.950  10.822   7.122
23300SOL    HW271798   9.095  10.867   7.119
23301SOL     OW71799  12.928   7.831   4.633
23301SOL    HW171800  12.951   7.789   4.715
23301SOL    HW271801  12.873   7.767   4.587
23302SOL     OW71802   0.173   1.076   0.121
23302SOL    HW171803   0.174   1.130   0.200
23302SOL    HW271804   0.214   0.994   0.147
23303SOL     OW71805   7.146  11.032   5.173
23303SOL    HW171806   7.226  10.985   5.198
23303SOL    HW271807   7.178  11.109   5.126
23304SOL     OW71808   6.107   5.334   5.485
23304SOL    HW171809   6.085   5.357   5.576
23304SOL    HW271810   6.162   5.256   5.493
23305SOL     OW71811  11.360   2.502  10.249
23305SOL    HW171812  11.445   2.538  10.272
23305SOL    HW271813  11.348   2.525  10.157
23306SOL     OW71814   5.915   4.409   4.581
23306SOL    HW171815   5.927   4.314   4.582
23306SOL    HW271816   6.003   4.444   4.580
23307SOL     OW71817  10.691  11.858   0.657
23307SOL    HW171818  10.725  11.827   0.741
23307SOL    HW271819  10.607  11.812   0.647
23308SOL     OW71820  10.856  13.565   3.163
23308SOL    HW171821  10.925  13.512   3.202
23308SOL    HW271822  10.776  13.515   3.179
23309SOL     OW71823   8.488  14.021  14.846
23309SOL    HW171824   8.467  14.076  14.770
23309SOL    HW271825   8.557  14.068   0.009
23310SOL     OW71826  13.585   9.926   7.291
23310SOL    HW171827  13.580   9.965   7.203
23310SOL    HW271828  13.675   9.894   7.297
23311SOL     OW71829   6.901   4.627   9.917
23311SOL    HW171830   6.919   4.689   9.987
23311SOL    HW271831   6.973   4.639   9.855
23312SOL     OW71832   6.140   6.187   5.600
23312SOL    HW171833   6.144   6.159   5.508
23312SOL    HW271834   6.047   6.195   5.618
23313SOL     OW71835  11.796   1.128   8.682
23313SOL    HW171836  11.854   1.176   8.623
23313SOL    HW271837  11.854   1.096   8.751
23314SOL     OW71838   1.250  11.856   1.788
23314SOL    HW171839   1.283  11.829   1.873
23314SOL    HW271840   1.172  11.801   1.774
23315SOL     OW71841   3.485  10.919  12.155
23315SOL    HW171842   3.413  10.924  12.093
23315SOL    HW271843   3.459  10.851  12.218
23316SOL     OW71844   5.260   9.608  11.934
23316SOL    HW171845   5.253   9.673  11.864
23316SOL    HW271846   5.270   9.525  11.887
23317SOL     OW71847   5.784  13.083   8.812
23317SOL    HW171848   5.816  13.109   8.898
23317SOL    HW271849   5.802  12.990   8.806
23318SOL     OW71850   6.908   7.811   1.940
23318SOL    HW171851   6.942   7.796   1.852
23318SOL    HW271852   6.837   7.747   1.950
23319SOL     OW71853   7.216  10.909   1.443
23319SOL    HW171854   7.217  10.973   1.372
23319SOL    HW271855   7.219  10.824   1.399
23320SOL     OW71856  12.265   1.681   4.492
23320SOL    HW171857  12.312   1.624   4.431
23320SOL    HW271858  12.310   1.670   4.575
23321SOL     OW71859   6.183  14.112   5.190
23321SOL    HW171860   6.104  14.130   5.241
23321SOL    HW271861   6.171  14.159   5.108
23322SOL     OW71862   5.655   6.677   6.178
23322SOL    HW171863   5.614   6.660   6.264
23322SOL    HW271864   5.727   6.736   6.197
23323SOL     OW71865   2.441   2.720   3.761
23323SOL    HW171866   2.446   2.805   3.805
23323SOL    HW271867   2.402   2.661   3.826
23324SOL     OW71868   2.505   4.413   3.326
23324SOL    HW171869   2.487   4.451   3.412
23324SOL    HW271870   2.510   4.319   3.342
23325SOL     OW71871  14.522   9.140  12.374
23325SOL    HW171872  14.496   9.155  12.283
23325SOL    HW271873  14.467   9.066  12.402
23326SOL     OW71874  10.428   1.113  10.035
23326SOL    HW171875  10.437   1.020  10.057
23326SOL    HW271876  10.394   1.153  10.115
23327SOL     OW71877   3.437  14.674   6.684
23327SOL    HW171878   3.521  14.638   6.716
23327SOL    HW271879   3.444  14.768   6.699
23328SOL     OW71880   4.975   2.888  10.671
23328SOL    HW171881   4.901   2.948  10.682
23328SOL    HW271882   5.045   2.926  10.724
23329SOL     OW71883  11.773   9.648   7.698
23329SOL    HW171884  11.692   9.688   7.666
23329SOL    HW271885  11.839   9.673   7.634
23330SOL     OW71886   9.333  14.816   4.537
23330SOL    HW171887   9.380  14.834   4.619
23330SOL    HW271888   9.241  14.832   4.558
23331SOL     OW71889   0.761  13.295   7.578
23331SOL    HW171890   0.669  13.319   7.591
23331SOL    HW271891   0.782  13.326   7.490
23332SOL     OW71892  10.204  13.082  12.430
23332SOL    HW171893  10.270  13.080  12.499
23332SOL    HW271894  10.167  13.171  12.434
23333SOL     OW71895   3.072   2.115   4.338
23333SOL    HW171896   3.039   2.103   4.427
23333SOL    HW271897   3.083   2.026   4.304
23334SOL     OW71898   5.067   2.453   2.384
23334SOL    HW171899   5.056   2.547   2.392
23334SOL    HW271900   5.005   2.426   2.316
23335SOL     OW71901  11.956   6.420  11.107
23335SOL    HW171902  12.051   6.415  11.102
23335SOL    HW271903  11.939   6.456  11.194
23336SOL     OW71904   5.893   7.772   0.408
23336SOL    HW171905   5.988   7.783   0.411
23336SOL    HW271906   5.860   7.834   0.474
23337SOL     OW71907   0.094   0.637  12.762
23337SOL    HW171908   0.022   0.700  12.762
23337SOL    HW271909   0.133   0.644  12.849
23338SOL     OW71910   4.238  11.602   1.909
23338SOL    HW171911   4.242  11.554   1.992
23338SOL    HW271912   4.153  11.644   1.910
23339SOL     OW71913  10.808  13.130   8.710
23339SOL    HW171914  10.740  13.190   8.680
23339SOL    HW271915  10.820  13.069   8.637
23340SOL     OW71916   9.960  14.109   4.567
23340SOL    HW171917   9.984  14.037   4.626
23340SOL    HW271918   9.865  14.101   4.556
23341SOL     OW71919  11.415  10.036   7.779
23341SOL    HW171920  11.481  10.100   7.751
23341SOL    HW271921  11.354  10.087   7.833
23342SOL     OW71922   0.097  13.467   0.572
23342SOL    HW171923   0.034  13.475   0.501
23342SOL    HW271924   0.053  13.412   0.637
23343SOL     OW71925   7.785   2.123   2.525
23343SOL    HW171926   7.746   2.167   2.449
23343SOL    HW271927   7.847   2.188   2.560
23344SOL     OW71928   6.104   1.783   4.167
23344SOL    HW171929   6.014   1.790   4.136
23344SOL    HW271930   6.114   1.853   4.231
23345SOL     OW71931   8.215   8.662   5.006
23345SOL    HW171932   8.260   8.578   5.007
23345SOL    HW271933   8.143   8.651   5.069
23346SOL     OW71934  11.093   4.673   8.452
23346SOL    HW171935  11.107   4.605   8.386
23346SOL    HW271936  11.036   4.633   8.517
23347SOL     OW71937  10.619   5.544   7.782
23347SOL    HW171938  10.691   5.590   7.738
23347SOL    HW271939  10.650   5.454   7.791
23348SOL     OW71940   8.836   4.213   6.936
23348SOL    HW171941   8.799   4.196   6.849
23348SOL    HW271942   8.762   4.241   6.989
23349SOL     OW71943  10.146  12.136   3.488
23349SOL    HW171944  10.138  12.058   3.434
23349SOL    HW271945  10.240  12.154   3.491
23350SOL     OW71946   0.703   0.960   7.180
23350SOL    HW171947   0.683   0.873   7.145
23350SOL    HW271948   0.690   1.019   7.105
23351SOL     OW71949   7.121   2.433  11.662
23351SOL    HW171950   7.117   2.390  11.747
23351SOL    HW271951   7.209   2.470  11.658
23352SOL     OW71952  14.582   8.528  14.818
23352SOL    HW171953  14.664   8.556  14.860
23352SOL    HW271954  14.530   8.493   0.008
23353SOL     OW71955  12.057   2.159   1.748
23353SOL    HW171956  12.058   2.250   1.776
23353SOL    HW271957  12.074   2.162   1.654
23354SOL     OW71958   3.312   0.290   6.282
23354SOL    HW171959   3.312   0.218   6.219
23354SOL    HW271960   3.242   0.269   6.343
23355SOL     OW71961  13.093   9.065   8.934
23355SOL    HW171962  13.118   9.095   9.021
23355SOL    HW271963  12.998   9.054   8.939
23356SOL     OW71964   4.731  14.393   5.240
23356SOL    HW171965   4.750  14.392   5.334
23356SOL    HW271966   4.700  14.305   5.221
23357SOL     OW71967   1.159   7.739  11.091
23357SOL    HW171968   1.089   7.782  11.042
23357SOL    HW271969   1.218   7.811  11.116
23358SOL     OW71970   4.874   8.607  13.756
23358SOL    HW171971   4.959   8.572  13.781
23358SOL    HW271972   4.834   8.635  13.838
23359SOL     OW71973   8.376   4.931  14.733
23359SOL    HW171974   8.325   4.915  14.812
23359SOL    HW271975   8.396   4.843  14.700
23360SOL     OW71976   4.941   7.684   0.591
23360SOL    HW171977   4.862   7.723   0.552
23360SOL    HW271978   4.981   7.755   0.640
23361SOL     OW71979   8.192  14.319   7.839
23361SOL    HW171980   8.182  14.224   7.840
23361SOL    HW271981   8.104  14.353   7.821
23362SOL     OW71982  14.718  12.012   9.300
23362SOL    HW171983  14.758  11.969   9.376
23362SOL    HW271984  14.775  11.989   9.227
23363SOL     OW71985  14.328   1.107   5.789
23363SOL    HW171986  14.397   1.050   5.757
23363SOL    HW271987  14.248   1.075   5.746
23364SOL     OW71988   7.515  11.397  12.592
23364SOL    HW171989   7.569  11.392  12.513
23364SOL    HW271990   7.545  11.323  12.645
23365SOL     OW71991  12.109   4.919  13.131
23365SOL    HW171992  12.160   4.936  13.052
23365SOL    HW271993  12.170   4.937  13.203
23366SOL     OW71994   9.333   6.508  12.068
23366SOL    HW171995   9.346   6.414  12.069
23366SOL    HW271996   9.244   6.521  12.100
23367SOL     OW71997   6.505  13.925   1.413
23367SOL    HW171998   6.411  13.934   1.427
23367SOL    HW271999   6.520  13.965   1.327
23368SOL     OW72000   3.733   2.576   9.463
23368SOL    HW172001   3.694   2.510   9.405
23368SOL    HW272002   3.667   2.589   9.531
23369SOL     OW72003  13.544   7.819   6.302
23369SOL    HW172004  13.621   7.854   6.346
23369SOL    HW272005  13.577   7.789   6.217
23370SOL     OW72006   6.782   1.220   1.815
23370SOL    HW172007   6.716   1.151   1.819
23370SOL    HW272008   6.733   1.302   1.818
23371SOL     OW72009   6.193   3.264  12.232
23371SOL    HW172010   6.259   3.308  12.286
23371SOL    HW272011   6.146   3.335  12.188
23372SOL     OW72012  13.311  13.185  14.156
23372SOL    HW172013  13.231  13.141  14.187
23372SOL    HW272014  13.317  13.264  14.210
23373SOL     OW72015   2.584   0.447   3.824
23373SOL    HW172016   2.555   0.473   3.737
23373SOL    HW272017   2.676   0.422   3.812
23374SOL     OW72018  12.976   5.133   4.264
23374SOL    HW172019  13.011   5.148   4.351
23374SOL    HW272020  12.948   5.041   4.265
23375SOL     OW72021   9.188   6.580   6.646
23375SOL    HW172022   9.245   6.577   6.569
23375SOL    HW272023   9.126   6.508   6.633
23376SOL     OW72024   6.097   7.917   4.760
23376SOL    HW172025   6.145   7.872   4.830
23376SOL    HW272026   6.155   7.987   4.732
23377SOL     OW72027  11.061   5.041   5.504
23377SOL    HW172028  10.986   4.984   5.484
23377SOL    HW272029  11.031   5.094   5.577
23378SOL     OW72030   5.664   3.921   0.760
23378SOL    HW172031   5.627   3.845   0.806
23378SOL    HW272032   5.723   3.883   0.695
23379SOL     OW72033   7.690   5.865  10.615
23379SOL    HW172034   7.618   5.875  10.678
23379SOL    HW272035   7.760   5.823  10.665
23380SOL     OW72036  13.992   9.824   8.034
23380SOL    HW172037  13.993   9.742   7.985
23380SOL    HW272038  14.007   9.798   8.124
23381SOL     OW72039  12.195   7.849  11.144
23381SOL    HW172040  12.202   7.754  11.151
23381SOL    HW272041  12.285   7.879  11.133
23382SOL     OW72042   4.357  14.364   5.913
23382SOL    HW172043   4.289  14.425   5.884
23382SOL    HW272044   4.321  14.277   5.896
23383SOL     OW72045   9.585  11.347  12.667
23383SOL    HW172046   9.612  11.278  12.728
23383SOL    HW272047   9.567  11.423  12.724
23384SOL     OW72048   0.175   6.984  14.813
23384SOL    HW172049   0.194   7.076  14.793
23384SOL    HW272050   0.095   6.988  14.866
23385SOL     OW72051  11.255   3.076   4.557
23385SOL    HW172052  11.336   3.030   4.532
23385SOL    HW272053  11.185   3.016   4.532
23386SOL     OW72054  13.499   9.901   1.876
23386SOL    HW172055  13.590   9.920   1.853
23386SOL    HW272056  13.497   9.807   1.893
23387SOL     OW72057   7.313   7.004   0.781
23387SOL    HW172058   7.342   7.058   0.855
23387SOL    HW272059   7.351   7.047   0.705
23388SOL     OW72060   8.164  10.014  14.177
23388SOL    HW172061   8.100  10.086  14.182
23388SOL    HW272062   8.248  10.058  14.166
23389SOL     OW72063   9.236   5.073  12.104
23389SOL    HW172064   9.202   5.160  12.122
23389SOL    HW272065   9.273   5.080  12.016
23390SOL     OW72066   8.904   6.119  11.492
23390SOL    HW172067   8.897   6.053  11.423
23390SOL    HW272068   8.878   6.073  11.572
23391SOL     OW72069   7.352   3.336   4.213
23391SOL    HW172070   7.358   3.429   4.194
23391SOL    HW272071   7.286   3.303   4.151
23392SOL     OW72072  14.797   9.818   4.558
23392SOL    HW172073  14.799   9.862   4.643
23392SOL    HW272074  14.704   9.810   4.537
23393SOL     OW72075   3.910   4.840  13.203
23393SOL    HW172076   3.973   4.767  13.199
23393SOL    HW272077   3.895   4.863  13.111
23394SOL     OW72078   3.455   1.882   6.393
23394SOL    HW172079   3.396   1.851   6.462
23394SOL    HW272080   3.536   1.833   6.406
23395SOL     OW72081   4.894  13.962   6.926
23395SOL    HW172082   4.961  14.031   6.923
23395SOL    HW272083   4.846  13.972   6.844
23396SOL     OW72084   1.194   5.788   0.054
23396SOL    HW172085   1.144   5.848   0.110
23396SOL    HW272086   1.261   5.752   0.112
23397SOL     OW72087  13.583   1.303  11.732
23397SOL    HW172088  13.501   1.336  11.769
23397SOL    HW272089  13.624   1.255  11.804
23398SOL     OW72090   9.886   3.278  14.199
23398SOL    HW172091   9.953   3.303  14.135
23398SOL    HW272092   9.810   3.253  14.146
23399SOL     OW72093  14.476  13.913  13.118
23399SOL    HW172094  14.397  13.957  13.151
23399SOL    HW272095  14.454  13.891  13.027
23400SOL     OW72096  10.958   2.024   2.798
23400SOL    HW172097  10.934   2.000   2.708
23400SOL    HW272098  10.953   1.941   2.847
23401SOL     OW72099   6.959   1.700   0.590
23401SOL    HW172100   7.041   1.673   0.631
23401SOL    HW272101   6.985   1.768   0.527
23402SOL     OW72102  13.838   7.535  14.659
23402SOL    HW172103  13.817   7.537  14.752
23402SOL    HW272104  13.808   7.449  14.629
23403SOL     OW72105   3.095   2.983  14.344
23403SOL    HW172106   3.097   2.888  14.352
23403SOL    HW272107   3.186   3.010  14.353
23404SOL     OW72108   1.027   9.777   9.247
23404SOL    HW172109   1.098   9.714   9.238
23404SOL    HW272110   0.953   9.726   9.281
23405SOL     OW72111  13.548   6.483   4.543
23405SOL    HW172112  13.520   6.556   4.488
23405SOL    HW272113  13.512   6.503   4.630
23406SOL     OW72114  10.279   4.465   6.320
23406SOL    HW172115  10.309   4.456   6.229
23406SOL    HW272116  10.218   4.539   6.318
23407SOL     OW72117   3.257   5.898   8.189
23407SOL    HW172118   3.341   5.883   8.145
23407SOL    HW272119   3.193   5.853   8.134
23408SOL     OW72120  10.197  10.961   8.379
23408SOL    HW172121  10.210  11.038   8.324
23408SOL    HW272122  10.141  10.904   8.327
23409SOL     OW72123  11.904   3.314  12.150
23409SOL    HW172124  11.835   3.260  12.110
23409SOL    HW272125  11.864   3.348  12.230
23410SOL     OW72126  13.866   2.941   1.056
23410SOL    HW172127  13.796   2.933   0.992
23410SOL    HW272128  13.825   2.985   1.131
23411SOL     OW72129  14.722  14.478   2.821
23411SOL    HW172130  14.709  14.414   2.750
23411SOL    HW272131  14.666  14.447   2.892
23412SOL     OW72132   6.580   2.896  11.493
23412SOL    HW172133   6.576   2.821  11.552
23412SOL    HW272134   6.673   2.919  11.489
23413SOL     OW72135   3.834  11.745  12.190
23413SOL    HW172136   3.828  11.678  12.257
23413SOL    HW272137   3.775  11.815  12.219
23414SOL     OW72138  10.334   3.417   9.772
23414SOL    HW172139  10.359   3.494   9.823
23414SOL    HW272140  10.238   3.415   9.775
23415SOL     OW72141   4.494   2.832  10.770
23415SOL    HW172142   4.477   2.792  10.684
23415SOL    HW272143   4.512   2.758  10.828
23416SOL     OW72144  10.592  14.758   5.321
23416SOL    HW172145  10.667  14.783   5.266
23416SOL    HW272146  10.524  14.732   5.258
23417SOL     OW72147  12.634   2.840   1.380
23417SOL    HW172148  12.676   2.843   1.294
23417SOL    HW272149  12.593   2.926   1.389
23418SOL     OW72150  13.863  14.764   1.122
23418SOL    HW172151  13.858  14.673   1.151
23418SOL    HW272152  13.816  14.764   1.038
23419SOL     OW72153   1.918   1.277   1.947
23419SOL    HW172154   1.991   1.318   1.992
23419SOL    HW272155   1.903   1.332   1.870
23420SOL     OW72156  13.329  10.463   9.358
23420SOL    HW172157  13.385  10.433   9.429
23420SOL    HW272158  13.274  10.388   9.337
23421SOL     OW72159   5.135   8.580   6.529
23421SOL    HW172160   5.226   8.571   6.501
23421SOL    HW272161   5.096   8.494   6.514
23422SOL     OW72162  14.852   4.353   8.374
23422SOL    HW172163   0.032   4.375   8.443
23422SOL    HW272164  14.769   4.391   8.404
23423SOL     OW72165  14.550  12.016   7.330
23423SOL    HW172166  14.637  12.014   7.290
23423SOL    HW272167  14.520  11.925   7.325
23424SOL     OW72168   7.373   4.081  12.299
23424SOL    HW172169   7.451   4.039  12.262
23424SOL    HW272170   7.307   4.075  12.230
23425SOL     OW72171  11.823   0.224  11.124
23425SOL    HW172172  11.909   0.255  11.095
23425SOL    HW272173  11.760   0.278  11.076
23426SOL     OW72174   3.028  13.719   1.859
23426SOL    HW172175   3.100  13.751   1.805
23426SOL    HW272176   3.049  13.750   1.948
23427SOL     OW72177   0.315   8.830   1.156
23427SOL    HW172178   0.239   8.844   1.212
23427SOL    HW272179   0.372   8.905   1.173
23428SOL     OW72180   0.124   2.879  14.277
23428SOL    HW172181   0.066   2.912  14.208
23428SOL    HW272182   0.126   2.784  14.262
23429SOL     OW72183   4.618   7.603   2.820
23429SOL    HW172184   4.605   7.666   2.750
23429SOL    HW272185   4.540   7.547   2.817
23430SOL     OW72186   3.579   1.460  14.062
23430SOL    HW172187   3.518   1.526  14.031
23430SOL    HW272188   3.617   1.423  13.981
23431SOL     OW72189   3.648   7.766   4.824
23431SOL    HW172190   3.662   7.672   4.829
23431SOL    HW272191   3.732   7.805   4.849
23432SOL     OW72192  11.162   4.709   7.068
23432SOL    HW172193  11.224   4.637   7.081
23432SOL    HW272194  11.131   4.729   7.157
23433SOL     OW72195  14.095   8.084  10.062
23433SOL    HW172196  14.178   8.045  10.088
23433SOL    HW272197  14.118   8.144   9.990
23434SOL     OW72198   5.614   0.251  14.724
23434SOL    HW172199   5.520   0.264  14.722
23434SOL    HW272200   5.635   0.213  14.638
23435SOL     OW72201   5.464  10.179   7.502
23435SOL    HW172202   5.404  10.124   7.553
23435SOL    HW272203   5.495  10.122   7.431
23436SOL     OW72204  13.726   5.296  10.373
23436SOL    HW172205  13.721   5.297  10.277
23436SOL    HW272206  13.705   5.207  10.398
23437SOL     OW72207   6.263   4.235   5.902
23437SOL    HW172208   6.201   4.303   5.926
23437SOL    HW272209   6.265   4.238   5.806
23438SOL     OW72210   5.692   1.982   3.663
23438SOL    HW172211   5.767   2.031   3.629
23438SOL    HW272212   5.682   1.909   3.602
23439SOL     OW72213   2.191   9.146   6.914
23439SOL    HW172214   2.126   9.160   6.845
23439SOL    HW272215   2.267   9.199   6.888
23440SOL     OW72216   9.787   4.931  11.605
23440SOL    HW172217   9.694   4.915  11.589
23440SOL    HW272218   9.832   4.869  11.548
23441SOL     OW72219   0.540  13.291   1.478
23441SOL    HW172220   0.556  13.197   1.487
23441SOL    HW272221   0.625  13.331   1.494
23442SOL     OW72222   2.842   7.474   0.695
23442SOL    HW172223   2.749   7.489   0.675
23442SOL    HW272224   2.875   7.561   0.718
23443SOL     OW72225  14.515   2.391  14.132
23443SOL    HW172226  14.484   2.439  14.209
23443SOL    HW272227  14.473   2.435  14.058
23444SOL     OW72228   9.812  13.486  11.248
23444SOL    HW172229   9.900  13.448  11.246
23444SOL    HW272230   9.818  13.558  11.310
23445SOL     OW72231   8.805   2.268  11.768
23445SOL    HW172232   8.780   2.360  11.757
23445SOL    HW272233   8.733   2.218  11.730
23446SOL     OW72234   7.874   6.360   9.583
23446SOL    HW172235   7.878   6.452   9.557
23446SOL    HW272236   7.840   6.314   9.506
23447SOL     OW72237   9.171   6.181   2.863
23447SOL    HW172238   9.123   6.165   2.781
23447SOL    HW272239   9.246   6.122   2.858
23448SOL     OW72240  13.430   4.363  10.730
23448SOL    HW172241  13.442   4.297  10.661
23448SOL    HW272242  13.342   4.396  10.716
23449SOL     OW72243   9.252   7.924   4.202
23449SOL    HW172244   9.176   7.981   4.216
23449SOL    HW272245   9.224   7.838   4.233
23450SOL     OW72246   0.806  14.784  14.600
23450SOL    HW172247   0.769  14.858  14.648
23450SOL    HW272248   0.876  14.751  14.656
23451SOL     OW72249  14.437   5.076  14.376
23451SOL    HW172250  14.405   5.092  14.287
23451SOL    HW272251  14.525   5.113  14.376
23452SOL     OW72252  14.225   6.916  12.719
23452SOL    HW172253  14.250   7.007  12.731
23452SOL    HW272254  14.251   6.895  12.630
23453SOL     OW72255   1.016   8.651   9.287
23453SOL    HW172256   1.014   8.743   9.262
23453SOL    HW272257   0.963   8.606   9.221
23454SOL     OW72258   4.703   4.539  10.874
23454SOL    HW172259   4.698   4.558  10.968
23454SOL    HW272260   4.790   4.500  10.862
23455SOL     OW72261   7.279   9.794   3.505
23455SOL    HW172262   7.362   9.768   3.466
23455SOL    HW272263   7.213   9.765   3.442
23456SOL     OW72264  14.495  11.927  13.572
23456SOL    HW172265  14.562  11.980  13.529
23456SOL    HW272266  14.519  11.928  13.665
23457SOL     OW72267  10.431   3.941   3.846
23457SOL    HW172268  10.485   3.861   3.848
23457SOL    HW272269  10.495   4.012   3.858
23458SOL     OW72270   3.125   1.078   2.275
23458SOL    HW172271   3.143   0.990   2.243
23458SOL    HW272272   3.033   1.076   2.301
23459SOL     OW72273  12.053  13.285   0.730
23459SOL    HW172274  11.992  13.272   0.658
23459SOL    HW272275  12.006  13.342   0.791
23460SOL     OW72276   1.690  11.426   0.948
23460SOL    HW172277   1.663  11.480   1.022
23460SOL    HW272278   1.609  11.386   0.917
23461SOL     OW72279   4.169  10.289   9.402
23461SOL    HW172280   4.243  10.350   9.410
23461SOL    HW272281   4.181  10.227   9.474
23462SOL     OW72282   0.680   2.486  13.520
23462SOL    HW172283   0.596   2.530  13.511
23462SOL    HW272284   0.688   2.433  13.441
23463SOL     OW72285  12.959   3.972  11.901
23463SOL    HW172286  12.983   3.889  11.944
23463SOL    HW272287  13.038   4.025  11.906
23464SOL     OW72288   2.356   5.310   2.003
23464SOL    HW172289   2.334   5.402   1.996
23464SOL    HW272290   2.435   5.308   2.057
23465SOL     OW72291  13.490   2.061   4.564
23465SOL    HW172292  13.458   1.979   4.600
23465SOL    HW272293  13.584   2.061   4.584
23466SOL     OW72294   4.606  14.077   6.462
23466SOL    HW172295   4.540  14.086   6.393
23466SOL    HW272296   4.566  14.118   6.539
23467SOL     OW72297  14.328  12.345   1.814
23467SOL    HW172298  14.239  12.346   1.849
23467SOL    HW272299  14.345  12.437   1.790
23468SOL     OW72300   7.236   9.830   5.303
23468SOL    HW172301   7.292   9.907   5.313
23468SOL    HW272302   7.147   9.866   5.295
23469SOL     OW72303  14.213  13.899   4.613
23469SOL    HW172304  14.155  13.847   4.670
23469SOL    HW272305  14.154  13.959   4.568
23470SOL     OW72306   2.905   2.128   1.754
23470SOL    HW172307   2.969   2.173   1.810
23470SOL    HW272308   2.950   2.118   1.670
23471SOL     OW72309  10.382   3.133   9.150
23471SOL    HW172310  10.452   3.086   9.106
23471SOL    HW272311  10.307   3.126   9.090
23472SOL     OW72312   2.703  13.779   1.567
23472SOL    HW172313   2.740  13.828   1.640
23472SOL    HW272314   2.610  13.770   1.588
23473SOL     OW72315   9.837   5.204   0.907
23473SOL    HW172316   9.793   5.268   0.962
23473SOL    HW272317   9.830   5.122   0.956
23474SOL     OW72318   9.568   4.034   8.532
23474SOL    HW172319   9.623   4.111   8.546
23474SOL    HW272320   9.511   4.032   8.610
23475SOL     OW72321   7.994   5.733   4.942
23475SOL    HW172322   7.912   5.780   4.930
23475SOL    HW272323   8.060   5.801   4.949
23476SOL     OW72324   1.429   2.774   2.870
23476SOL    HW172325   1.398   2.770   2.961
23476SOL    HW272326   1.522   2.754   2.875
23477SOL     OW72327   2.375   7.007   0.099
23477SOL    HW172328   2.308   7.050   0.152
23477SOL    HW272329   2.441   7.075   0.084
23478SOL     OW72330  11.153   0.536  12.247
23478SOL    HW172331  11.127   0.619  12.206
23478SOL    HW272332  11.231   0.559  12.297
23479SOL     OW72333   4.903  11.408  12.761
23479SOL    HW172334   4.870  11.478  12.817
23479SOL    HW272335   4.944  11.346  12.821
23480SOL     OW72336   3.041   6.737   1.141
23480SOL    HW172337   3.079   6.803   1.083
23480SOL    HW272338   2.998   6.788   1.210
23481SOL     OW72339   1.799  10.630  12.930
23481SOL    HW172340   1.731  10.639  12.864
23481SOL    HW272341   1.762  10.670  13.009
23482SOL     OW72342   3.663  14.246   9.967
23482SOL    HW172343   3.707  14.173   9.924
23482SOL    HW272344   3.580  14.209   9.998
23483SOL     OW72345   9.288  13.239   2.851
23483SOL    HW172346   9.222  13.229   2.920
23483SOL    HW272347   9.333  13.155   2.848
23484SOL     OW72348  12.547   6.075  11.692
23484SOL    HW172349  12.531   6.081  11.786
23484SOL    HW272350  12.630   6.120  11.678
23485SOL     OW72351   0.952   7.419   3.909
23485SOL    HW172352   0.939   7.338   3.957
23485SOL    HW272353   0.942   7.395   3.817
23486SOL     OW72354   0.457  14.686  13.520
23486SOL    HW172355   0.519  14.616  13.499
23486SOL    HW272356   0.377  14.661  13.474
23487SOL     OW72357   8.372   6.893   3.439
23487SOL    HW172358   8.351   6.814   3.489
23487SOL    HW272359   8.287   6.923   3.405
23488SOL     OW72360   6.065  13.965   8.322
23488SOL    HW172361   6.039  13.940   8.411
23488SOL    HW272362   6.018  14.047   8.306
23489SOL     OW72363  12.665   3.480   4.078
23489SOL    HW172364  12.665   3.441   3.990
23489SOL    HW272365  12.633   3.411   4.135
23490SOL     OW72366   8.892   7.119   8.467
23490SOL    HW172367   8.925   7.153   8.551
23490SOL    HW272368   8.798   7.107   8.481
23491SOL     OW72369  12.832   1.197   8.106
23491SOL    HW172370  12.824   1.247   8.024
23491SOL    HW272371  12.746   1.205   8.148
23492SOL     OW72372  11.292  12.845   0.554
23492SOL    HW172373  11.234  12.817   0.625
23492SOL    HW272374  11.361  12.896   0.597
23493SOL     OW72375   3.529  10.735   1.450
23493SOL    HW172376   3.546  10.815   1.501
23493SOL    HW272377   3.614  10.713   1.412
23494SOL     OW72378  13.385   2.495  13.609
23494SOL    HW172379  13.407   2.460  13.523
23494SOL    HW272380  13.320   2.564  13.591
23495SOL     OW72381  10.457   4.514   8.661
23495SOL    HW172382  10.400   4.450   8.618
23495SOL    HW272383  10.402   4.554   8.728
23496SOL     OW72384   0.876   8.558  12.603
23496SOL    HW172385   0.857   8.465  12.596
23496SOL    HW272386   0.806   8.601  12.554
23497SOL     OW72387   8.229   3.456   5.854
23497SOL    HW172388   8.178   3.376   5.856
23497SOL    HW272389   8.320   3.427   5.850
23498SOL     OW72390  11.984  11.240  10.835
23498SOL    HW172391  11.992  11.249  10.930
23498SOL    HW272392  11.980  11.146  10.819
23499SOL     OW72393   6.310  11.806   6.392
23499SOL    HW172394   6.282  11.798   6.484
23499SOL    HW272395   6.268  11.885   6.361
23500SOL     OW72396   4.763   5.519   2.954
23500SOL    HW172397   4.745   5.610   2.975
23500SOL    HW272398   4.743   5.471   3.034
23501SOL     OW72399   9.643  12.005  13.486
23501SOL    HW172400   9.619  12.096  13.506
23501SOL    HW272401   9.568  11.971  13.437
23502SOL     OW72402   1.290   1.472   9.936
23502SOL    HW172403   1.196   1.469   9.918
23502SOL    HW272404   1.323   1.538   9.875
23503SOL     OW72405   8.260   7.283   3.967
23503SOL    HW172406   8.263   7.236   4.050
23503SOL    HW272407   8.170   7.316   3.960
23504SOL     OW72408   0.617   8.540   8.205
23504SOL    HW172409   0.672   8.560   8.130
23504SOL    HW272410   0.586   8.625   8.237
23505SOL     OW72411   9.491   7.988  13.831
23505SOL    HW172412   9.458   8.026  13.912
23505SOL    HW272413   9.546   8.056  13.793
23506SOL     OW72414   2.420   5.765  11.509
23506SOL    HW172415   2.388   5.810  11.587
23506SOL    HW272416   2.347   5.709  11.481
23507SOL     OW72417   4.400   4.459   8.522
23507SOL    HW172418   4.467   4.478   8.456
23507SOL    HW272419   4.399   4.537   8.578
23508SOL     OW72420  13.368  11.651   4.776
23508SOL    HW172421  13.310  11.665   4.850
23508SOL    HW272422  13.452  11.626   4.815
23509SOL     OW72423   0.550   2.445  10.481
23509SOL    HW172424   0.588   2.456  10.568
23509SOL    HW272425   0.487   2.517  10.473
23510SOL     OW72426  12.645   0.963   9.067
23510SOL    HW172427  12.671   0.993   8.980
23510SOL    HW272428  12.550   0.951   9.061
23511SOL     OW72429   5.840   9.924   6.022
23511SOL    HW172430   5.786   9.877   5.958
23511SOL    HW272431   5.778   9.976   6.072
23512SOL     OW72432   1.435   7.091   8.539
23512SOL    HW172433   1.492   7.148   8.591
23512SOL    HW272434   1.349   7.134   8.542
23513SOL     OW72435   2.337   2.378  13.745
23513SOL    HW172436   2.255   2.426  13.757
23513SOL    HW272437   2.385   2.427  13.679
23514SOL     OW72438   2.506   7.326  14.786
23514SOL    HW172439   2.512   7.418  14.759
23514SOL    HW272440   2.509   7.329  14.882
23515SOL     OW72441   5.032  13.738   1.758
23515SOL    HW172442   4.958  13.707   1.810
23515SOL    HW272443   4.994  13.759   1.673
23516SOL     OW72444   2.749   2.096  10.059
23516SOL    HW172445   2.711   2.008  10.068
23516SOL    HW272446   2.829   2.093  10.111
23517SOL     OW72447  10.149  14.225   7.238
23517SOL    HW172448  10.147  14.320   7.230
23517SOL    HW272449  10.105  14.206   7.320
23518SOL     OW72450   2.660  12.746   2.939
23518SOL    HW172451   2.728  12.730   3.005
23518SOL    HW272452   2.705  12.735   2.855
23519SOL     OW72453   8.609  13.308   0.614
23519SOL    HW172454   8.662  13.228   0.611
23519SOL    HW272455   8.655  13.365   0.676
23520SOL     OW72456  14.069  11.877  10.738
23520SOL    HW172457  14.115  11.846  10.816
23520SOL    HW272458  14.134  11.875  10.669
23521SOL     OW72459   9.887   6.696   8.747
23521SOL    HW172460   9.952   6.674   8.680
23521SOL    HW272461   9.836   6.766   8.707
23522SOL     OW72462  11.745   1.520   2.414
23522SOL    HW172463  11.731   1.506   2.508
23522SOL    HW272464  11.820   1.464   2.393
23523SOL     OW72465   3.117   1.850   4.302
23523SOL    HW172466   3.191   1.797   4.273
23523SOL    HW272467   3.054   1.787   4.337
23524SOL     OW72468   5.892   4.315   2.632
23524SOL    HW172469   5.816   4.328   2.577
23524SOL    HW272470   5.938   4.241   2.593
23525SOL     OW72471   6.119   7.440  12.377
23525SOL    HW172472   6.214   7.431  12.383
23525SOL    HW272473   6.091   7.368  12.321
23526SOL     OW72474   9.288  14.473   8.072
23526SOL    HW172475   9.331  14.450   7.990
23526SOL    HW272476   9.210  14.417   8.075
23527SOL     OW72477   5.951  10.514   6.714
23527SOL    HW172478   5.895  10.442   6.744
23527SOL    HW272479   5.941  10.515   6.619
23528SOL     OW72480   3.618  12.128   2.530
23528SOL    HW172481   3.641  12.111   2.439
23528SOL    HW272482   3.609  12.042   2.570
23529SOL     OW72483  13.103   4.895   8.761
23529SOL    HW172484  13.011   4.880   8.739
23529SOL    HW272485  13.101   4.949   8.840
23530SOL     OW72486   9.204   6.691  11.400
23530SOL    HW172487   9.161   6.699  11.485
23530SOL    HW272488   9.175   6.767  11.351
23531SOL     OW72489   3.959  14.584   8.844
23531SOL    HW172490   3.962  14.555   8.935
23531SOL    HW272491   3.995  14.511   8.794
23532SOL     OW72492   8.208   5.633   6.204
23532SOL    HW172493   8.232   5.588   6.285
23532SOL    HW272494   8.165   5.713   6.232
23533SOL     OW72495  12.555  14.853  14.499
23533SOL    HW172496  12.561   0.044  14.437
23533SOL    HW272497  12.461  14.842  14.512
23534SOL     OW72498   8.464   9.995   3.677
23534SOL    HW172499   8.479  10.065   3.613
23534SOL    HW272500   8.551   9.974   3.711
23535SOL     OW72501  13.405   3.002   6.781
23535SOL    HW172502  13.350   2.964   6.713
23535SOL    HW272503  13.351   3.000   6.860
23536SOL     OW72504   3.915   1.162   7.841
23536SOL    HW172505   3.863   1.220   7.786
23536SOL    HW272506   3.961   1.105   7.780
23537SOL     OW72507   1.059  13.695  13.184
23537SOL    HW172508   1.004  13.770  13.160
23537SOL    HW272509   1.089  13.714  13.272
23538SOL     OW72510   1.190   3.602   7.852
23538SOL    HW172511   1.278   3.632   7.829
23538SOL    HW272512   1.198   3.574   7.944
23539SOL     OW72513  13.062   8.726  12.931
23539SOL    HW172514  12.972   8.746  12.955
23539SOL    HW272515  13.087   8.795  12.870
23540SOL     OW72516   8.714   0.423   7.603
23540SOL    HW172517   8.764   0.504   7.592
23540SOL    HW272518   8.673   0.409   7.518
23541SOL     OW72519   9.495   3.991   0.532
23541SOL    HW172520   9.422   4.054   0.534
23541SOL    HW272521   9.570   4.041   0.563
23542SOL     OW72522   3.884   8.908  14.478
23542SOL    HW172523   3.878   8.927  14.572
23542SOL    HW272524   3.940   8.977  14.443
23543SOL     OW72525   5.170   0.426  12.211
23543SOL    HW172526   5.164   0.482  12.134
23543SOL    HW272527   5.235   0.360  12.187
23544SOL     OW72528   3.286   7.491   4.103
23544SOL    HW172529   3.352   7.560   4.098
23544SOL    HW272530   3.249   7.486   4.014
23545SOL     OW72531   6.806   1.763  11.249
23545SOL    HW172532   6.742   1.822  11.209
23545SOL    HW272533   6.755   1.713  11.313
23546SOL     OW72534  12.375   1.958  12.468
23546SOL    HW172535  12.356   1.980  12.559
23546SOL    HW272536  12.466   1.986  12.455
23547SOL     OW72537  12.905   0.314   1.358
23547SOL    HW172538  12.840   0.257   1.399
23547SOL    HW272539  12.864   0.401   1.358
23548SOL     OW72540  12.667   5.003  12.589
23548SOL    HW172541  12.598   5.038  12.645
23548SOL    HW272542  12.748   5.041  12.623
23549SOL     OW72543   5.316  11.249   7.850
23549SOL    HW172544   5.231  11.256   7.895
23549SOL    HW272545   5.336  11.338   7.822
23550SOL     OW72546   3.317   8.362   4.500
23550SOL    HW172547   3.232   8.356   4.457
23550SOL    HW272548   3.370   8.293   4.459
23551SOL     OW72549   2.580   7.617  11.935
23551SOL    HW172550   2.630   7.697  11.953
23551SOL    HW272551   2.488   7.644  11.943
23552SOL     OW72552   7.636  12.619   9.982
23552SOL    HW172553   7.674  12.533  10.002
23552SOL    HW272554   7.642  12.626   9.887
23553SOL     OW72555   8.394   2.243  13.847
23553SOL    HW172556   8.484   2.255  13.879
23553SOL    HW272557   8.393   2.289  13.763
23554SOL     OW72558  10.395   5.100   8.486
23554SOL    HW172559  10.326   5.166   8.473
23554SOL    HW272560  10.436   5.091   8.400
23555SOL     OW72561   9.301   6.043  14.092
23555SOL    HW172562   9.240   6.055  14.020
23555SOL    HW272563   9.385   6.072  14.058
23556SOL     OW72564  11.928   7.539  13.755
23556SOL    HW172565  11.892   7.456  13.723
23556SOL    HW272566  12.015   7.517  13.788
23557SOL     OW72567   5.027   2.387   2.643
23557SOL    HW172568   5.015   2.403   2.549
23557SOL    HW272569   5.107   2.335   2.648
23558SOL     OW72570  12.125  11.474   7.645
23558SOL    HW172571  12.032  11.472   7.669
23558SOL    HW272572  12.171  11.462   7.728
23559SOL     OW72573  14.304  12.310   8.679
23559SOL    HW172574  14.233  12.256   8.714
23559SOL    HW272575  14.270  12.342   8.595
23560SOL     OW72576  14.353  13.447  14.501
23560SOL    HW172577  14.398  13.526  14.472
23560SOL    HW272578  14.362  13.447  14.596
23561SOL     OW72579   1.697   7.014   1.629
23561SOL    HW172580   1.726   6.945   1.569
23561SOL    HW272581   1.626   6.974   1.679
23562SOL     OW72582   2.607   9.811   3.683
23562SOL    HW172583   2.549   9.752   3.731
23562SOL    HW272584   2.639   9.873   3.749
23563SOL     OW72585   5.978   4.281   3.406
23563SOL    HW172586   5.952   4.368   3.439
23563SOL    HW272587   5.980   4.292   3.311
23564SOL     OW72588  12.649  12.354   3.567
23564SOL    HW172589  12.595  12.340   3.645
23564SOL    HW272590  12.601  12.418   3.516
23565SOL     OW72591   4.704   7.801  13.750
23565SOL    HW172592   4.641   7.821  13.681
23565SOL    HW272593   4.787   7.837  13.718
23566SOL     OW72594   0.046   8.205  13.083
23566SOL    HW172595   0.060   8.239  13.171
23566SOL    HW272596  14.874   8.127  13.096
23567SOL     OW72597   6.668   4.956   6.810
23567SOL    HW172598   6.731   4.957   6.738
23567SOL    HW272599   6.674   5.044   6.847
23568SOL     OW72600   8.543   9.987   6.329
23568SOL    HW172601   8.582   9.992   6.242
23568SOL    HW272602   8.451   9.968   6.313
23569SOL     OW72603   3.320   1.356  11.347
23569SOL    HW172604   3.296   1.337  11.438
23569SOL    HW272605   3.416   1.351  11.347
23570SOL     OW72606  12.377  13.009  11.680
23570SOL    HW172607  12.317  12.943  11.647
23570SOL    HW272608  12.380  13.075  11.612
23571SOL     OW72609   1.610  11.478   2.328
23571SOL    HW172610   1.594  11.568   2.358
23571SOL    HW272611   1.634  11.430   2.407
23572SOL     OW72612   5.567   3.921   6.073
23572SOL    HW172613   5.490   3.866   6.062
23572SOL    HW272614   5.550   3.971   6.153
23573SOL     OW72615  11.050   1.662   8.448
23573SOL    HW172616  10.969   1.713   8.449
23573SOL    HW272617  11.080   1.667   8.357
23574SOL     OW72618  12.161   0.321   7.597
23574SOL    HW172619  12.194   0.297   7.510
23574SOL    HW272620  12.156   0.416   7.595
23575SOL     OW72621   9.521   5.092   2.566
23575SOL    HW172622   9.498   5.063   2.654
23575SOL    HW272623   9.522   5.012   2.514
23576SOL     OW72624   6.971   3.615  14.053
23576SOL    HW172625   7.050   3.561  14.049
23576SOL    HW272626   6.953   3.636  13.962
23577SOL     OW72627  11.131   7.065   1.075
23577SOL    HW172628  11.154   6.999   1.009
23577SOL    HW272629  11.092   7.014   1.147
23578SOL     OW72630   0.714   7.190   8.861
23578SOL    HW172631   0.721   7.114   8.918
23578SOL    HW272632   0.642   7.169   8.802
23579SOL     OW72633  10.062  13.141   3.696
23579SOL    HW172634  10.004  13.157   3.622
23579SOL    HW272635  10.004  13.115   3.768
23580SOL     OW72636  12.847   1.499   8.295
23580SOL    HW172637  12.831   1.569   8.232
23580SOL    HW272638  12.787   1.517   8.367
23581SOL     OW72639  10.837   0.187   6.898
23581SOL    HW172640  10.874   0.173   6.986
23581SOL    HW272641  10.878   0.119   6.844
23582SOL     OW72642   5.908   4.434  11.931
23582SOL    HW172643   5.858   4.381  11.993
23582SOL    HW272644   5.872   4.412  11.845
23583SOL     OW72645  10.830   3.075   7.803
23583SOL    HW172646  10.856   2.985   7.781
23583SOL    HW272647  10.734   3.075   7.794
23584SOL     OW72648   9.202  10.511   7.397
23584SOL    HW172649   9.133  10.503   7.331
23584SOL    HW272650   9.283  10.520   7.346
23585SOL     OW72651  10.155  11.513   1.837
23585SOL    HW172652  10.234  11.460   1.838
23585SOL    HW272653  10.091  11.459   1.790
23586SOL     OW72654   6.545  10.921   5.784
23586SOL    HW172655   6.617  10.919   5.848
23586SOL    HW272656   6.466  10.930   5.837
23587SOL     OW72657  13.671   3.858  13.996
23587SOL    HW172658  13.733   3.813  14.054
23587SOL    HW272659  13.676   3.950  14.022
23588SOL     OW72660   3.983   4.397   8.069
23588SOL    HW172661   3.893   4.413   8.095
23588SOL    HW272662   4.013   4.325   8.124
23589SOL     OW72663   7.523  11.616   9.072
23589SOL    HW172664   7.445  11.560   9.074
23589SOL    HW272665   7.583  11.573   9.012
23590SOL     OW72666  10.339   3.961   9.311
23590SOL    HW172667  10.249   3.976   9.340
23590SOL    HW272668  10.389   3.949   9.392
23591SOL     OW72669   8.763  12.171   4.136
23591SOL    HW172670   8.733  12.082   4.117
23591SOL    HW272671   8.750  12.219   4.054
23592SOL     OW72672  10.390  10.504   2.941
23592SOL    HW172673  10.313  10.469   2.985
23592SOL    HW272674  10.433  10.559   3.007
23593SOL     OW72675  13.451  11.569   3.105
23593SOL    HW172676  13.452  11.477   3.133
23593SOL    HW272677  13.472  11.566   3.012
23594SOL     OW72678   8.257   5.774   1.648
23594SOL    HW172679   8.347   5.806   1.640
23594SOL    HW272680   8.254   5.734   1.735
23595SOL     OW72681   5.470   6.252   7.229
23595SOL    HW172682   5.531   6.197   7.180
23595SOL    HW272683   5.495   6.342   7.207
23596SOL     OW72684   5.690   1.806   9.238
23596SOL    HW172685   5.765   1.766   9.195
23596SOL    HW272686   5.699   1.900   9.222
23597SOL     OW72687   3.655   3.718   4.457
23597SOL    HW172688   3.631   3.807   4.482
23597SOL    HW272689   3.588   3.663   4.498
23598SOL     OW72690   0.393  13.988   6.624
23598SOL    HW172691   0.440  13.976   6.707
23598SOL    HW272692   0.384  13.899   6.589
23599SOL     OW72693   3.674  13.087  11.916
23599SOL    HW172694   3.759  13.133  11.913
23599SOL    HW272695   3.692  13.001  11.879
23600SOL     OW72696   4.691   2.775  12.671
23600SOL    HW172697   4.712   2.819  12.588
23600SOL    HW272698   4.661   2.845  12.729
23601SOL     OW72699  11.735  13.963  13.869
23601SOL    HW172700  11.693  14.048  13.881
23601SOL    HW272701  11.726  13.919  13.953
23602SOL     OW72702  11.114  11.349   4.664
23602SOL    HW172703  11.106  11.431   4.615
23602SOL    HW272704  11.086  11.282   4.602
23603SOL     OW72705   4.921  13.816   9.201
23603SOL    HW172706   4.900  13.726   9.174
23603SOL    HW272707   4.839  13.853   9.232
23604SOL     OW72708  12.170   0.068  10.589
23604SOL    HW172709  12.250   0.036  10.632
23604SOL    HW272710  12.185   0.051  10.496
23605SOL     OW72711   0.232  12.215   9.495
23605SOL    HW172712   0.206  12.303   9.468
23605SOL    HW272713   0.312  12.197   9.445
23606SOL     OW72714   1.301  10.944  10.789
23606SOL    HW172715   1.274  10.888  10.716
23606SOL    HW272716   1.388  10.975  10.764
23607SOL     OW72717   6.388  12.124   4.189
23607SOL    HW172718   6.380  12.131   4.284
23607SOL    HW272719   6.307  12.164   4.155
23608SOL     OW72720  13.360   2.327  14.833
23608SOL    HW172721  13.390   2.286  14.751
23608SOL    HW272722  13.276   2.365  14.810
23609SOL     OW72723   9.896   3.862   7.371
23609SOL    HW172724   9.845   3.933   7.332
23609SOL    HW272725   9.976   3.904   7.403
23610SOL     OW72726  12.864  13.857  12.360
23610SOL    HW172727  12.814  13.776  12.349
23610SOL    HW272728  12.803  13.926  12.335
23611SOL     OW72729   4.468   0.846   6.671
23611SOL    HW172730   4.397   0.783   6.660
23611SOL    HW272731   4.458   0.878   6.761
23612SOL     OW72732   5.131  13.902   5.676
23612SOL    HW172733   5.039  13.927   5.679
23612SOL    HW272734   5.131  13.808   5.694
23613SOL     OW72735   9.234   7.153   4.024
23613SOL    HW172736   9.248   7.081   3.962
23613SOL    HW272737   9.319   7.198   4.027
23614SOL     OW72738   0.983   9.775  14.072
23614SOL    HW172739   1.030   9.829  14.136
23614SOL    HW272740   1.017   9.803  13.987
23615SOL     OW72741   1.088   1.749   6.991
23615SOL    HW172742   1.165   1.703   7.025
23615SOL    HW272743   1.117   1.840   6.982
23616SOL     OW72744   3.287   7.137   8.033
23616SOL    HW172745   3.298   7.042   8.037
23616SOL    HW272746   3.344   7.170   8.102
23617SOL     OW72747   9.946  10.354   5.601
23617SOL    HW172748   9.953  10.360   5.697
23617SOL    HW272749   9.866  10.402   5.580
23618SOL     OW72750   8.606  10.354   5.053
23618SOL    HW172751   8.613  10.266   5.091
23618SOL    HW272752   8.514  10.363   5.029
23619SOL     OW72753  12.695  12.485   1.532
23619SOL    HW172754  12.777  12.528   1.554
23619SOL    HW272755  12.717  12.392   1.529
23620SOL     OW72756   0.015   4.343  11.205
23620SOL    HW172757  14.853   4.301  11.279
23620SOL    HW272758  14.835   4.338  11.133
23621SOL     OW72759   2.599  10.346   2.688
23621SOL    HW172760   2.644  10.385   2.613
23621SOL    HW272761   2.670  10.307   2.740
23622SOL     OW72762   5.833   7.431   5.201
23622SOL    HW172763   5.741   7.424   5.173
23622SOL    HW272764   5.828   7.471   5.288
23623SOL     OW72765   5.129   8.062   2.764
23623SOL    HW172766   5.149   8.032   2.676
23623SOL    HW272767   5.086   8.147   2.751
23624SOL     OW72768  10.019  10.294   2.222
23624SOL    HW172769  10.007  10.200   2.236
23624SOL    HW272770   9.957  10.335   2.282
23625SOL     OW72771   7.955   8.940  10.274
23625SOL    HW172772   7.973   8.851  10.304
23625SOL    HW272773   8.020   8.994  10.319
23626SOL     OW72774   3.000   6.844   9.474
23626SOL    HW172775   2.907   6.855   9.490
23626SOL    HW272776   3.009   6.849   9.379
23627SOL     OW72777   5.309   8.785  11.106
23627SOL    HW172778   5.245   8.849  11.075
23627SOL    HW272779   5.351   8.753  11.026
23628SOL     OW72780  10.596   5.239   4.948
23628SOL    HW172781  10.645   5.160   4.925
23628SOL    HW272782  10.575   5.228   5.041
23629SOL     OW72783   1.855   0.788  10.593
23629SOL    HW172784   1.772   0.784  10.545
23629SOL    HW272785   1.884   0.698  10.599
23630SOL     OW72786   4.422   1.613  14.498
23630SOL    HW172787   4.462   1.698  14.514
23630SOL    HW272788   4.497   1.554  14.486
23631SOL     OW72789   8.235   4.462   2.741
23631SOL    HW172790   8.174   4.391   2.720
23631SOL    HW272791   8.317   4.436   2.700
23632SOL     OW72792   1.127   9.554   4.496
23632SOL    HW172793   1.150   9.462   4.482
23632SOL    HW272794   1.062   9.573   4.429
23633SOL     OW72795   3.311   9.279   4.272
23633SOL    HW172796   3.226   9.320   4.291
23633SOL    HW272797   3.375   9.349   4.286
23634SOL     OW72798   2.339   0.504   6.766
23634SOL    HW172799   2.363   0.503   6.673
23634SOL    HW272800   2.332   0.597   6.788
23635SOL     OW72801   5.987   5.675   9.655
23635SOL    HW172802   5.948   5.705   9.738
23635SOL    HW272803   6.079   5.699   9.662
23636SOL     OW72804  12.813  13.827  13.947
23636SOL    HW172805  12.729  13.867  13.926
23636SOL    HW272806  12.825  13.759  13.880
23637SOL     OW72807   1.465  12.253   0.656
23637SOL    HW172808   1.416  12.207   0.588
23637SOL    HW272809   1.534  12.300   0.610
23638SOL     OW72810   7.544   3.838   9.551
23638SOL    HW172811   7.512   3.776   9.486
23638SOL    HW272812   7.484   3.830   9.625
23639SOL     OW72813   3.766   5.435  12.242
23639SOL    HW172814   3.848   5.412  12.284
23639SOL    HW272815   3.714   5.477  12.311
23640SOL     OW72816   0.951   2.465   6.882
23640SOL    HW172817   0.896   2.539   6.859
23640SOL    HW272818   0.946   2.406   6.807
23641SOL     OW72819  10.995   6.782  14.073
23641SOL    HW172820  11.077   6.830  14.084
23641SOL    HW272821  10.952   6.824  13.999
23642SOL     OW72822  10.187   8.478  10.689
23642SOL    HW172823  10.113   8.438  10.642
23642SOL    HW272824  10.256   8.485  10.624
23643SOL     OW72825   8.533   9.981  13.777
23643SOL    HW172826   8.599  10.026  13.830
23643SOL    HW272827   8.584   9.933  13.712
23644SOL     OW72828  11.311   5.713  13.326
23644SOL    HW172829  11.360   5.707  13.408
23644SOL    HW272830  11.294   5.806  13.315
23645SOL     OW72831   3.705   6.470  11.018
23645SOL    HW172832   3.742   6.433  10.938
23645SOL    HW272833   3.734   6.561  11.018
23646SOL     OW72834   3.868   8.944   0.476
23646SOL    HW172835   3.784   8.989   0.464
23646SOL    HW272836   3.898   8.973   0.563
23647SOL     OW72837   5.091   7.523   0.225
23647SOL    HW172838   5.001   7.518   0.193
23647SOL    HW272839   5.111   7.616   0.226
23648SOL     OW72840  14.496   1.633   7.441
23648SOL    HW172841  14.490   1.652   7.347
23648SOL    HW272842  14.466   1.542   7.448
23649SOL     OW72843  11.291   9.454   6.262
23649SOL    HW172844  11.367   9.472   6.206
23649SOL    HW272845  11.276   9.360   6.253
23650SOL     OW72846   7.844   1.058   7.675
23650SOL    HW172847   7.938   1.042   7.678
23650SOL    HW272848   7.826   1.083   7.584
23651SOL     OW72849   1.709  12.160   2.881
23651SOL    HW172850   1.690  12.090   2.818
23651SOL    HW272851   1.801  12.148   2.903
23652SOL     OW72852   5.737   1.767   6.086
23652SOL    HW172853   5.688   1.746   6.006
23652SOL    HW272854   5.735   1.685   6.137
23653SOL     OW72855  12.745  11.954   9.180
23653SOL    HW172856  12.736  11.897   9.256
23653SOL    HW272857  12.750  11.895   9.105
23654SOL     OW72858   9.316  11.139   3.806
23654SOL    HW172859   9.250  11.204   3.830
23654SOL    HW272860   9.349  11.168   3.721
23655SOL     OW72861  11.716  13.927   8.316
23655SOL    HW172862  11.708  13.993   8.385
23655SOL    HW272863  11.714  13.976   8.234
23656SOL     OW72864   6.252   0.002   6.355
23656SOL    HW172865   6.181   0.016   6.292
23656SOL    HW272866   6.332   0.023   6.306
23657SOL     OW72867   6.808   0.932  10.236
23657SOL    HW172868   6.845   0.854  10.193
23657SOL    HW272869   6.840   0.926  10.326
23658SOL     OW72870  10.370   4.444  10.427
23658SOL    HW172871  10.458   4.477  10.441
23658SOL    HW272872  10.364   4.367  10.484
23659SOL     OW72873   3.206   5.608   9.874
23659SOL    HW172874   3.210   5.690   9.827
23659SOL    HW272875   3.298   5.585   9.890
23660SOL     OW72876   0.513   8.094   7.116
23660SOL    HW172877   0.449   8.093   7.187
23660SOL    HW272878   0.592   8.131   7.156
23661SOL     OW72879   6.016  13.380   5.272
23661SOL    HW172880   5.935  13.373   5.323
23661SOL    HW272881   6.064  13.452   5.312
23662SOL     OW72882   4.615  14.240  12.064
23662SOL    HW172883   4.531  14.286  12.068
23662SOL    HW272884   4.629  14.223  11.971
23663SOL     OW72885   6.444   2.818   7.759
23663SOL    HW172886   6.367   2.838   7.812
23663SOL    HW272887   6.440   2.723   7.745
23664SOL     OW72888   3.652  10.158   7.039
23664SOL    HW172889   3.729  10.200   7.079
23664SOL    HW272890   3.611  10.110   7.111
23665SOL     OW72891   6.459   1.583  10.629
23665SOL    HW172892   6.442   1.666  10.584
23665SOL    HW272893   6.377   1.534  10.621
23666SOL     OW72894   1.154   2.063   4.989
23666SOL    HW172895   1.160   1.973   5.021
23666SOL    HW272896   1.174   2.057   4.896
23667SOL     OW72897   4.139   2.174  10.587
23667SOL    HW172898   4.051   2.204  10.566
23667SOL    HW272899   4.137   2.079  10.572
23668SOL     OW72900   0.610   6.901   3.620
23668SOL    HW172901   0.668   6.827   3.605
23668SOL    HW272902   0.522   6.866   3.605
23669SOL     OW72903   3.225  10.991  13.907
23669SOL    HW172904   3.291  11.025  13.847
23669SOL    HW272905   3.142  11.012  13.864
23670SOL     OW72906   7.568   9.587   2.742
23670SOL    HW172907   7.538   9.659   2.797
23670SOL    HW272908   7.524   9.600   2.658
23671SOL     OW72909   5.390   5.746   1.813
23671SOL    HW172910   5.428   5.667   1.774
23671SOL    HW272911   5.304   5.754   1.771
23672SOL     OW72912   4.887   2.211  13.507
23672SOL    HW172913   4.968   2.172  13.540
23672SOL    HW272914   4.824   2.139  13.508
23673SOL     OW72915   8.281  12.161   7.303
23673SOL    HW172916   8.214  12.099   7.332
23673SOL    HW272917   8.349  12.105   7.264
23674SOL     OW72918  12.201   6.015   8.511
23674SOL    HW172919  12.113   6.051   8.528
23674SOL    HW272920  12.243   6.081   8.456
23675SOL     OW72921  14.607  14.671  11.580
23675SOL    HW172922  14.610  14.625  11.664
23675SOL    HW272923  14.691  14.715  11.573
23676SOL     OW72924  14.440   2.913   2.033
23676SOL    HW172925  14.469   2.877   1.950
23676SOL    HW272926  14.437   3.008   2.018
23677SOL     OW72927   8.134  10.932  11.939
23677SOL    HW172928   8.148  11.024  11.958
23677SOL    HW272929   8.163  10.922  11.848
23678SOL     OW72930   3.068   9.113   9.327
23678SOL    HW172931   3.034   9.134   9.240
23678SOL    HW272932   3.134   9.045   9.310
23679SOL     OW72933   9.505   8.217   5.918
23679SOL    HW172934   9.428   8.172   5.952
23679SOL    HW272935   9.500   8.206   5.823
23680SOL     OW72936   2.226   2.261   2.882
23680SOL    HW172937   2.133   2.278   2.864
23680SOL    HW272938   2.265   2.249   2.796
23681SOL     OW72939   2.898  10.105  12.245
23681SOL    HW172940   2.901  10.052  12.325
23681SOL    HW272941   2.853  10.185  12.271
23682SOL     OW72942  12.902  14.094   0.018
23682SOL    HW172943  12.921  14.106  14.807
23682SOL    HW272944  12.811  14.064   0.020
23683SOL     OW72945  10.780   1.382   9.221
23683SOL    HW172946  10.767   1.470   9.258
23683SOL    HW272947  10.737   1.323   9.283
23684SOL     OW72948   8.636   3.942   2.516
23684SOL    HW172949   8.596   3.861   2.548
23684SOL    HW272950   8.613   3.945   2.423
23685SOL     OW72951   2.956  11.702   9.490
23685SOL    HW172952   3.023  11.737   9.549
23685SOL    HW272953   2.943  11.612   9.519
23686SOL     OW72954   9.416   8.711   2.085
23686SOL    HW172955   9.393   8.693   1.993
23686SOL    HW272956   9.333   8.710   2.131
23687SOL     OW72957   8.413   3.543  14.044
23687SOL    HW172958   8.405   3.591  14.127
23687SOL    HW272959   8.431   3.611  13.979
23688SOL     OW72960   4.699   9.272   5.869
23688SOL    HW172961   4.616   9.244   5.909
23688SOL    HW272962   4.673   9.319   5.790
23689SOL     OW72963   3.321   6.387   1.529
23689SOL    HW172964   3.341   6.459   1.470
23689SOL    HW272965   3.315   6.427   1.615
23690SOL     OW72966   7.482   4.639  10.928
23690SOL    HW172967   7.444   4.714  10.883
23690SOL    HW272968   7.573   4.665  10.945
23691SOL     OW72969   1.408  12.710   8.634
23691SOL    HW172970   1.401  12.802   8.660
23691SOL    HW272971   1.374  12.708   8.545
23692SOL     OW72972   8.719   0.084   9.555
23692SOL    HW172973   8.631   0.059   9.582
23692SOL    HW272974   8.706   0.149   9.486
23693SOL     OW72975   0.966  11.282   5.776
23693SOL    HW172976   1.046  11.306   5.823
23693SOL    HW272977   0.973  11.188   5.763
23694SOL     OW72978   3.800   0.620   7.657
23694SOL    HW172979   3.755   0.702   7.677
23694SOL    HW272980   3.731   0.554   7.656
23695SOL     OW72981   8.178   4.089   8.179
23695SOL    HW172982   8.199   4.134   8.097
23695SOL    HW272983   8.262   4.080   8.223
23696SOL     OW72984   8.960   4.205  12.031
23696SOL    HW172985   9.003   4.198  12.116
23696SOL    HW272986   8.925   4.118  12.014
23697SOL     OW72987   9.874   1.998   6.007
23697SOL    HW172988   9.937   1.972   5.941
23697SOL    HW272989   9.823   1.919   6.026
23698SOL     OW72990   7.737   6.450  13.676
23698SOL    HW172991   7.699   6.370  13.640
23698SOL    HW272992   7.815   6.465  13.623
23699SOL     OW72993   7.332  10.839   2.137
23699SOL    HW172994   7.312  10.908   2.200
23699SOL    HW272995   7.369  10.884   2.062
23700SOL     OW72996  12.492   5.912   9.590
23700SOL    HW172997  12.450   5.964   9.659
23700SOL    HW272998  12.436   5.926   9.513
23701SOL     OW72999   3.501  13.277   1.341
23701SOL    HW173000   3.505  13.184   1.364
23701SOL    HW273001   3.592  13.306   1.343
23702SOL     OW73002   4.507   8.792   4.662
23702SOL    HW173003   4.544   8.746   4.738
23702SOL    HW273004   4.513   8.729   4.590
23703SOL     OW73005   9.730   8.260   6.050
23703SOL    HW173006   9.720   8.350   6.020
23703SOL    HW273007   9.661   8.211   6.005
23704SOL     OW73008  14.490  11.385   1.484
23704SOL    HW173009  14.526  11.410   1.569
23704SOL    HW273010  14.546  11.427   1.420
23705SOL     OW73011   4.807  11.027   8.471
23705SOL    HW173012   4.854  10.962   8.419
23705SOL    HW273013   4.716  10.998   8.471
23706SOL     OW73014   3.305   1.914   0.491
23706SOL    HW173015   3.322   1.947   0.402
23706SOL    HW273016   3.353   1.831   0.496
23707SOL     OW73017   6.003   7.180   6.857
23707SOL    HW173018   6.049   7.166   6.775
23707SOL    HW273019   6.061   7.236   6.909
23708SOL     OW73020   2.970   7.022   9.129
23708SOL    HW173021   2.985   6.934   9.164
23708SOL    HW273022   3.050   7.042   9.079
23709SOL     OW73023  14.271   6.144   2.079
23709SOL    HW173024  14.199   6.141   2.017
23709SOL    HW273025  14.249   6.215   2.139
23710SOL     OW73026  11.739   4.342   8.938
23710SOL    HW173027  11.800   4.409   8.908
23710SOL    HW273028  11.780   4.259   8.914
23711SOL     OW73029   9.121  10.497   5.515
23711SOL    HW173030   9.053  10.564   5.519
23711SOL    HW273031   9.169  10.517   5.434
23712SOL     OW73032   1.754   2.536  13.328
23712SOL    HW173033   1.677   2.488  13.356
23712SOL    HW273034   1.724   2.626  13.318
23713SOL     OW73035   9.393  13.958   8.740
23713SOL    HW173036   9.445  14.038   8.746
23713SOL    HW273037   9.381  13.944   8.646
23714SOL     OW73038   5.847  14.312   2.802
23714SOL    HW173039   5.908  14.255   2.754
23714SOL    HW273040   5.899  14.347   2.874
23715SOL     OW73041  14.096   7.831   1.731
23715SOL    HW173042  14.149   7.756   1.757
23715SOL    HW273043  14.158   7.902   1.716
23716SOL     OW73044  14.613   2.009   6.084
23716SOL    HW173045  14.519   2.009   6.102
23716SOL    HW273046  14.621   1.962   6.001
23717SOL     OW73047   5.875   0.333   1.702
23717SOL    HW173048   5.932   0.390   1.752
23717SOL    HW273049   5.844   0.387   1.629
23718SOL     OW73050   9.770   2.996   9.938
23718SOL    HW173051   9.825   2.985   9.861
23718SOL    HW273052   9.819   3.056   9.994
23719SOL     OW73053   9.509   9.464  14.368
23719SOL    HW173054   9.455   9.538  14.339
23719SOL    HW273055   9.474   9.388  14.321
23720SOL     OW73056  13.274   2.387   5.677
23720SOL    HW173057  13.322   2.418   5.754
23720SOL    HW273058  13.300   2.448   5.607
23721SOL     OW73059   8.060   7.811   2.155
23721SOL    HW173060   8.107   7.763   2.087
23721SOL    HW273061   8.107   7.894   2.163
23722SOL     OW73062   5.836   6.082  13.573
23722SOL    HW173063   5.782   6.034  13.636
23722SOL    HW273064   5.886   6.014  13.528
23723SOL     OW73065   6.468   8.756  11.181
23723SOL    HW173066   6.473   8.701  11.103
23723SOL    HW273067   6.558   8.757  11.215
23724SOL     OW73068   3.233   8.034   5.685
23724SOL    HW173069   3.303   7.977   5.654
23724SOL    HW273070   3.178   7.978   5.740
23725SOL     OW73071  10.966   7.451  12.546
23725SOL    HW173072  10.893   7.482  12.601
23725SOL    HW273073  11.043   7.461  12.602
23726SOL     OW73074   4.135   6.350   4.389
23726SOL    HW173075   4.149   6.273   4.334
23726SOL    HW273076   4.206   6.410   4.367
23727SOL     OW73077   8.325  11.040  10.469
23727SOL    HW173078   8.259  10.988  10.515
23727SOL    HW273079   8.347  11.110  10.531
23728SOL     OW73080  11.483  14.713  13.566
23728SOL    HW173081  11.525  14.743  13.486
23728SOL    HW273082  11.393  14.693  13.541
23729SOL     OW73083  12.974   4.616   0.403
23729SOL    HW173084  13.063   4.646   0.421
23729SOL    HW273085  12.920   4.666   0.464
23730SOL     OW73086   7.840   8.613  12.151
23730SOL    HW173087   7.795   8.614  12.236
23730SOL    HW273088   7.838   8.704  12.122
23731SOL     OW73089   5.838   6.649  13.326
23731SOL    HW173090   5.922   6.695  13.332
23731SOL    HW273091   5.806   6.647  13.416
23732SOL     OW73092   3.122   4.407  14.333
23732SOL    HW173093   3.176   4.332  14.359
23732SOL    HW273094   3.106   4.454  14.415
23733SOL     OW73095   3.466   5.978   6.052
23733SOL    HW173096   3.545   5.923   6.049
23733SOL    HW273097   3.484   6.047   5.987
23734SOL     OW73098  12.050   5.163   9.631
23734SOL    HW173099  12.117   5.157   9.699
23734SOL    HW273100  12.044   5.075   9.594
23735SOL     OW73101  11.668   4.022  11.257
23735SOL    HW173102  11.714   4.102  11.284
23735SOL    HW273103  11.585   4.054  11.220
23736SOL     OW73104   5.326  10.692  13.965
23736SOL    HW173105   5.273  10.738  13.900
23736SOL    HW273106   5.322  10.600  13.938
23737SOL     OW73107   7.112   2.523   3.697
23737SOL    HW173108   7.076   2.595   3.750
23737SOL    HW273109   7.043   2.457   3.696
23738SOL     OW73110   6.918   8.598  13.266
23738SOL    HW173111   6.926   8.521  13.210
23738SOL    HW273112   7.003   8.605  13.310
23739SOL     OW73113   8.198   1.241   2.586
23739SOL    HW173114   8.211   1.150   2.560
23739SOL    HW273115   8.202   1.290   2.503
23740SOL     OW73116   9.235  12.400   9.081
23740SOL    HW173117   9.254  12.310   9.107
23740SOL    HW273118   9.321  12.442   9.073
23741SOL     OW73119  13.997   2.223  13.532
23741SOL    HW173120  14.033   2.184  13.452
23741SOL    HW273121  14.061   2.201  13.599
23742SOL     OW73122   5.913   7.844   6.314
23742SOL    HW173123   5.853   7.775   6.342
23742SOL    HW273124   5.864   7.925   6.325
23743SOL     OW73125   0.003   0.566  10.707
23743SOL    HW173126  14.797   0.551  10.673
23743SOL    HW273127  14.880   0.543  10.799
23744SOL     OW73128   2.441  14.022   7.214
23744SOL    HW173129   2.454  14.082   7.287
23744SOL    HW273130   2.516  14.037   7.156
23745SOL     OW73131  14.591  12.201   2.698
23745SOL    HW173132  14.602  12.214   2.603
23745SOL    HW273133  14.679  12.209   2.734
23746SOL     OW73134   1.110   1.377  12.885
23746SOL    HW173135   1.184   1.406  12.939
23746SOL    HW273136   1.134   1.289  12.857
23747SOL     OW73137   3.027   5.996  10.554
23747SOL    HW173138   3.002   5.927  10.615
23747SOL    HW273139   3.117   5.974  10.530
23748SOL     OW73140   1.822  10.887   7.042
23748SOL    HW173141   1.773  10.823   7.094
23748SOL    HW273142   1.759  10.956   7.023
23749SOL     OW73143  10.293   3.852   8.010
23749SOL    HW173144  10.357   3.853   7.939
23749SOL    HW273145  10.298   3.763   8.045
23750SOL     OW73146   2.422   3.357  11.957
23750SOL    HW173147   2.507   3.313  11.964
23750SOL    HW273148   2.406   3.365  11.863
23751SOL     OW73149  10.488   4.472   1.616
23751SOL    HW173150  10.563   4.500   1.564
23751SOL    HW273151  10.454   4.552   1.656
23752SOL     OW73152  10.663   4.427   4.079
23752SOL    HW173153  10.569   4.436   4.062
23752SOL    HW273154  10.668   4.384   4.164
23753SOL     OW73155   5.053   6.891   0.466
23753SOL    HW173156   5.035   6.941   0.386
23753SOL    HW273157   5.064   6.957   0.534
23754SOL     OW73158   4.907   3.584   7.855
23754SOL    HW173159   4.837   3.533   7.896
23754SOL    HW273160   4.958   3.619   7.928
23755SOL     OW73161   9.954   7.014  10.545
23755SOL    HW173162   9.866   7.036  10.577
23755SOL    HW273163   9.951   6.919  10.530
23756SOL     OW73164  10.861   4.889  10.269
23756SOL    HW173165  10.789   4.917  10.213
23756SOL    HW273166  10.912   4.968  10.285
23757SOL     OW73167   9.187  13.282   8.822
23757SOL    HW173168   9.171  13.188   8.828
23757SOL    HW273169   9.265  13.297   8.875
23758SOL     OW73170   8.189   2.230   4.177
23758SOL    HW173171   8.167   2.137   4.175
23758SOL    HW273172   8.135   2.266   4.247
23759SOL     OW73173  12.102   1.532   8.183
23759SOL    HW173174  12.167   1.572   8.242
23759SOL    HW273175  12.029   1.509   8.240
23760SOL     OW73176  11.749   5.912  13.161
23760SOL    HW173177  11.683   5.969  13.122
23760SOL    HW273178  11.829   5.933  13.114
23761SOL     OW73179   9.960  13.683  12.778
23761SOL    HW173180   9.938  13.718  12.864
23761SOL    HW273181   9.950  13.757  12.718
23762SOL     OW73182  10.394  10.646   2.030
23762SOL    HW173183  10.450  10.571   2.015
23762SOL    HW273184  10.313  10.626   1.982
23763SOL     OW73185   1.829  13.436   9.711
23763SOL    HW173186   1.823  13.344   9.735
23763SOL    HW273187   1.748  13.454   9.662
23764SOL     OW73188   2.024   9.138   9.386
23764SOL    HW173189   2.059   9.150   9.475
23764SOL    HW273190   2.102   9.131   9.331
23765SOL     OW73191   1.257   3.879   7.622
23765SOL    HW173192   1.190   3.811   7.633
23765SOL    HW273193   1.245   3.910   7.533
23766SOL     OW73194   2.451  13.808   6.662
23766SOL    HW173195   2.363  13.841   6.682
23766SOL    HW273196   2.443  13.713   6.672
23767SOL     OW73197   4.016   7.395  12.219
23767SOL    HW173198   4.006   7.469  12.279
23767SOL    HW273199   3.985   7.319  12.269
23768SOL     OW73200   9.035   9.345   1.196
23768SOL    HW173201   9.088   9.387   1.129
23768SOL    HW273202   8.980   9.283   1.149
23769SOL     OW73203   9.459  12.876  10.634
23769SOL    HW173204   9.548  12.878  10.597
23769SOL    HW273205   9.460  12.943  10.703
23770SOL     OW73206   8.073   2.730   4.128
23770SOL    HW173207   8.020   2.800   4.168
23770SOL    HW273208   8.018   2.695   4.058
23771SOL     OW73209   0.175   6.392   4.780
23771SOL    HW173210   0.235   6.441   4.724
23771SOL    HW273211   0.203   6.413   4.869
23772SOL     OW73212   0.702  10.602   9.559
23772SOL    HW173213   0.729  10.547   9.486
23772SOL    HW273214   0.783  10.642   9.591
23773SOL     OW73215  13.588   8.042  10.480
23773SOL    HW173216  13.593   8.056  10.385
23773SOL    HW273217  13.546   8.121  10.514
23774SOL     OW73218   8.768   6.322   4.303
23774SOL    HW173219   8.857   6.294   4.283
23774SOL    HW273220   8.721   6.319   4.220
23775SOL     OW73221  12.863   6.615   1.704
23775SOL    HW173222  12.790   6.630   1.644
23775SOL    HW273223  12.887   6.702   1.735
23776SOL     OW73224   9.186  11.013  12.225
23776SOL    HW173225   9.193  10.965  12.308
23776SOL    HW273226   9.177  10.944  12.159
23777SOL     OW73227   4.622   1.864  13.333
23777SOL    HW173228   4.693   1.882  13.395
23777SOL    HW273229   4.555   1.820  13.385
23778SOL     OW73230   4.357   4.991  13.339
23778SOL    HW173231   4.265   4.988  13.365
23778SOL    HW273232   4.374   4.904  13.303
23779SOL     OW73233   1.085   1.337  13.486
23779SOL    HW173234   1.166   1.289  13.467
23779SOL    HW273235   1.102   1.378  13.571
23780SOL     OW73236   6.220   3.919  14.880
23780SOL    HW173237   6.276   3.858   0.046
23780SOL    HW273238   6.135   3.875  14.876
23781SOL     OW73239  13.128   5.274   2.348
23781SOL    HW173240  13.086   5.274   2.261
23781SOL    HW273241  13.095   5.354   2.390
23782SOL     OW73242  10.862  11.213   9.515
23782SOL    HW173243  10.766  11.211   9.511
23782SOL    HW273244  10.884  11.306   9.506
23783SOL     OW73245   7.875  11.331   5.876
23783SOL    HW173246   7.955  11.350   5.827
23783SOL    HW273247   7.889  11.243   5.912
23784SOL     OW73248   3.466   5.827   8.402
23784SOL    HW173249   3.431   5.857   8.486
23784SOL    HW273250   3.412   5.872   8.337
23785SOL     OW73251  11.000   1.162   9.725
23785SOL    HW173252  11.084   1.206   9.741
23785SOL    HW273253  11.021   1.091   9.665
23786SOL     OW73254   9.061  12.358  10.487
23786SOL    HW173255   9.106  12.439  10.511
23786SOL    HW273256   8.968  12.376  10.501
23787SOL     OW73257   3.792   8.803   5.130
23787SOL    HW173258   3.811   8.790   5.037
23787SOL    HW273259   3.732   8.877   5.132
23788SOL     OW73260   5.903   9.343   0.471
23788SOL    HW173261   5.890   9.408   0.402
23788SOL    HW273262   5.978   9.374   0.520
23789SOL     OW73263  13.076   2.486   1.351
23789SOL    HW173264  13.018   2.561   1.343
23789SOL    HW273265  13.141   2.498   1.281
23790SOL     OW73266  12.454   9.622   6.728
23790SOL    HW173267  12.508   9.559   6.679
23790SOL    HW273268  12.380   9.639   6.671
23791SOL     OW73269   0.285   4.184   4.268
23791SOL    HW173270   0.347   4.122   4.229
23791SOL    HW273271   0.293   4.263   4.214
23792SOL     OW73272  10.934   0.169   4.751
23792SOL    HW173273  10.866   0.212   4.699
23792SOL    HW273274  10.888   0.100   4.798
23793SOL     OW73275   7.385  10.587  13.359
23793SOL    HW173276   7.359  10.679  13.365
23793SOL    HW273277   7.334  10.552  13.286
23794SOL     OW73278  13.165   4.145   9.928
23794SOL    HW173279  13.084   4.189   9.901
23794SOL    HW273280  13.140   4.053   9.937
23795SOL     OW73281   9.891  12.026   6.006
23795SOL    HW173282   9.931  11.939   6.019
23795SOL    HW273283   9.815  12.025   6.064
23796SOL     OW73284   6.780   5.888   2.016
23796SOL    HW173285   6.689   5.870   2.038
23796SOL    HW273286   6.806   5.959   2.075
23797SOL     OW73287   9.822  13.901   8.057
23797SOL    HW173288   9.889  13.964   8.085
23797SOL    HW273289   9.830  13.829   8.119
23798SOL     OW73290  12.534   3.881   1.422
23798SOL    HW173291  12.530   3.970   1.385
23798SOL    HW273292  12.623   3.874   1.456
23799SOL     OW73293   5.877   5.421  11.547
23799SOL    HW173294   5.840   5.497  11.592
23799SOL    HW273295   5.802   5.362  11.536
23800SOL     OW73296   7.793   9.503   3.692
23800SOL    HW173297   7.814   9.548   3.610
23800SOL    HW273298   7.700   9.520   3.706
23801SOL     OW73299  11.244   6.064   8.531
23801SOL    HW173300  11.210   6.150   8.557
23801SOL    HW273301  11.327   6.084   8.487
23802SOL     OW73302   8.890   7.763   6.690
23802SOL    HW173303   8.894   7.676   6.650
23802SOL    HW273304   8.951   7.758   6.764
23803SOL     OW73305  14.229  11.601  11.323
23803SOL    HW173306  14.294  11.614  11.254
23803SOL    HW273307  14.156  11.557  11.279
23804SOL     OW73308  12.776  13.324  11.005
23804SOL    HW173309  12.764  13.303  10.912
23804SOL    HW273310  12.688  13.320  11.042
23805SOL     OW73311   9.785   8.082   7.706
23805SOL    HW173312   9.837   8.162   7.703
23805SOL    HW273313   9.784   8.049   7.616
23806SOL     OW73314   5.863  10.118   9.567
23806SOL    HW173315   5.882  10.075   9.483
23806SOL    HW273316   5.875  10.211   9.549
23807SOL     OW73317   4.349  12.735  12.001
23807SOL    HW173318   4.332  12.777  11.917
23807SOL    HW273319   4.408  12.794  12.047
23808SOL     OW73320   8.632   5.877   7.412
23808SOL    HW173321   8.677   5.953   7.449
23808SOL    HW273322   8.561   5.859   7.474
23809SOL     OW73323   4.352  10.390   5.341
23809SOL    HW173324   4.302  10.309   5.353
23809SOL    HW273325   4.287  10.454   5.314
23810SOL     OW73326  11.449   3.061   9.864
23810SOL    HW173327  11.411   3.053   9.952
23810SOL    HW273328  11.415   2.985   9.816
23811SOL     OW73329   2.473  11.819   2.022
23811SOL    HW173330   2.406  11.773   2.074
23811SOL    HW273331   2.478  11.906   2.061
23812SOL     OW73332  11.164   3.799   6.265
23812SOL    HW173333  11.079   3.763   6.239
23812SOL    HW273334  11.212   3.810   6.183
23813SOL     OW73335   2.852   6.493   9.105
23813SOL    HW173336   2.853   6.405   9.143
23813SOL    HW273337   2.922   6.491   9.040
23814SOL     OW73338   7.888   5.178   0.364
23814SOL    HW173339   7.938   5.198   0.444
23814SOL    HW273340   7.798   5.170   0.393
23815SOL     OW73341   3.199   7.147   6.364
23815SOL    HW173342   3.243   7.124   6.282
23815SOL    HW273343   3.120   7.193   6.337
23816SOL     OW73344   7.010   1.946   3.901
23816SOL    HW173345   7.096   1.904   3.898
23816SOL    HW273346   7.003   1.982   3.989
23817SOL     OW73347   8.978  10.125  12.421
23817SOL    HW173348   8.906  10.111  12.359
23817SOL    HW273349   8.979  10.046  12.475
23818SOL     OW73350   7.853   8.242  12.082
23818SOL    HW173351   7.867   8.319  12.136
23818SOL    HW273352   7.783   8.267  12.021
23819SOL     OW73353   4.276   2.747   1.357
23819SOL    HW173354   4.309   2.662   1.328
23819SOL    HW273355   4.265   2.738   1.451
23820SOL     OW73356  14.481   3.895   5.045
23820SOL    HW173357  14.547   3.929   5.104
23820SOL    HW273358  14.449   3.815   5.088
23821SOL     OW73359   8.440   4.372   1.879
23821SOL    HW173360   8.472   4.376   1.789
23821SOL    HW273361   8.511   4.330   1.928
23822SOL     OW73362   0.479  13.958  13.829
23822SOL    HW173363   0.415  13.939  13.760
23822SOL    HW273364   0.426  13.988  13.903
23823SOL     OW73365  13.456   8.976   4.359
23823SOL    HW173366  13.505   8.901   4.393
23823SOL    HW273367  13.433   9.026   4.436
23824SOL     OW73368   0.689   5.050   5.618
23824SOL    HW173369   0.616   5.038   5.557
23824SOL    HW273370   0.736   5.126   5.583
23825SOL     OW73371   1.993  11.466  14.825
23825SOL    HW173372   1.970  11.545  14.777
23825SOL    HW273373   1.954  11.395  14.774
23826SOL     OW73374   7.643   6.833   7.716
23826SOL    HW173375   7.664   6.769   7.648
23826SOL    HW273376   7.576   6.889   7.676
23827SOL     OW73377   3.943  10.900  13.484
23827SOL    HW173378   3.964  10.822  13.536
23827SOL    HW273379   4.004  10.896  13.410
23828SOL     OW73380   9.501   2.537   4.641
23828SOL    HW173381   9.555   2.503   4.570
23828SOL    HW273382   9.414   2.547   4.602
23829SOL     OW73383   0.123  12.968  12.336
23829SOL    HW173384   0.170  12.892  12.301
23829SOL    HW273385   0.135  13.036  12.269
23830SOL     OW73386   4.433  10.708  13.952
23830SOL    HW173387   4.453  10.622  13.914
23830SOL    HW273388   4.480  10.708  14.036
23831SOL     OW73389  13.427   9.649   4.802
23831SOL    HW173390  13.425   9.618   4.893
23831SOL    HW273391  13.495   9.595   4.761
23832SOL     OW73392   3.081   0.260   5.139
23832SOL    HW173393   3.001   0.308   5.116
23832SOL    HW273394   3.075   0.178   5.090
23833SOL     OW73395  10.364   3.970   6.031
23833SOL    HW173396  10.277   3.948   5.998
23833SOL    HW273397  10.423   3.913   5.982
23834SOL     OW73398  10.310  10.342   9.053
23834SOL    HW173399  10.377  10.365   9.118
23834SOL    HW273400  10.308  10.416   8.993
23835SOL     OW73401  12.817   1.409   5.791
23835SOL    HW173402  12.861   1.399   5.706
23835SOL    HW273403  12.822   1.322   5.831
23836SOL     OW73404  13.665   4.103  14.118
23836SOL    HW173405  13.642   4.195  14.103
23836SOL    HW273406  13.732   4.106  14.185
23837SOL     OW73407  12.482   8.355   3.510
23837SOL    HW173408  12.528   8.376   3.592
23837SOL    HW273409  12.489   8.260   3.502
23838SOL     OW73410   4.968   6.511  11.778
23838SOL    HW173411   4.929   6.598  11.786
23838SOL    HW273412   5.045   6.524  11.722
23839SOL     OW73413   7.990  12.752  11.390
23839SOL    HW173414   8.039  12.770  11.310
23839SOL    HW273415   8.057  12.728  11.454
23840SOL     OW73416   2.849   6.739   4.606
23840SOL    HW173417   2.832   6.655   4.563
23840SOL    HW273418   2.765   6.765   4.643
23841SOL     OW73419   4.824   0.184  11.788
23841SOL    HW173420   4.884   0.191  11.715
23841SOL    HW273421   4.869   0.226  11.861
23842SOL     OW73422   5.716   4.928   0.428
23842SOL    HW173423   5.811   4.924   0.434
23842SOL    HW273424   5.693   5.012   0.468
23843SOL     OW73425   7.789   3.292   5.540
23843SOL    HW173426   7.744   3.235   5.602
23843SOL    HW273427   7.880   3.263   5.542
23844SOL     OW73428  14.368   6.987  13.477
23844SOL    HW173429  14.454   7.028  13.466
23844SOL    HW273430  14.365   6.918  13.411
23845SOL     OW73431   0.179   2.959  13.575
23845SOL    HW173432   0.092   2.920  13.586
23845SOL    HW273433   0.239   2.896  13.614
23846SOL     OW73434   7.612  10.365  11.050
23846SOL    HW173435   7.665  10.341  10.974
23846SOL    HW273436   7.676  10.393  11.116
23847SOL     OW73437   0.413   9.915   2.028
23847SOL    HW173438   0.459   9.897   2.110
23847SOL    HW273439   0.343   9.975   2.052
23848SOL     OW73440  10.598  12.984  12.393
23848SOL    HW173441  10.679  12.934  12.404
23848SOL    HW273442  10.604  13.055  12.456
23849SOL     OW73443   2.838   6.014   1.282
23849SOL    HW173444   2.754   6.055   1.302
23849SOL    HW273445   2.816   5.928   1.248
23850SOL     OW73446   6.317  12.644   0.950
23850SOL    HW173447   6.361  12.677   1.028
23850SOL    HW273448   6.226  12.633   0.977
23851SOL     OW73449  11.780   0.990   6.034
23851SOL    HW173450  11.791   1.057   5.967
23851SOL    HW273451  11.870   0.961   6.053
23852SOL     OW73452   2.820  10.374   8.159
23852SOL    HW173453   2.872  10.315   8.105
23852SOL    HW273454   2.841  10.462   8.125
23853SOL     OW73455   2.361   7.468  14.337
23853SOL    HW173456   2.356   7.412  14.414
23853SOL    HW273457   2.286   7.443  14.284
23854SOL     OW73458   9.363  13.627   2.254
23854SOL    HW173459   9.399  13.643   2.167
23854SOL    HW273460   9.311  13.705   2.274
23855SOL     OW73461  11.203   8.463   8.339
23855SOL    HW173462  11.285   8.451   8.387
23855SOL    HW273463  11.170   8.374   8.327
23856SOL     OW73464   1.707  11.183   6.363
23856SOL    HW173465   1.751  11.231   6.433
23856SOL    HW273466   1.747  11.095   6.366
23857SOL     OW73467  12.715   3.263   8.716
23857SOL    HW173468  12.786   3.301   8.767
23857SOL    HW273469  12.715   3.312   8.634
23858SOL     OW73470   0.072   5.074  13.808
23858SOL    HW173471   0.139   5.059  13.742
23858SOL    HW273472   0.050   5.166  13.801
23859SOL     OW73473   8.905   0.453   2.903
23859SOL    HW173474   8.978   0.406   2.943
23859SOL    HW273475   8.912   0.434   2.810
23860SOL     OW73476  12.187   1.696  13.849
23860SOL    HW173477  12.117   1.683  13.913
23860SOL    HW273478  12.266   1.711  13.902
23861SOL     OW73479   2.250   3.673   7.918
23861SOL    HW173480   2.251   3.670   8.014
23861SOL    HW273481   2.327   3.725   7.895
23862SOL     OW73482   3.994   7.464   4.547
23862SOL    HW173483   4.070   7.488   4.495
23862SOL    HW273484   3.923   7.456   4.483
23863SOL     OW73485  14.664   4.809   8.884
23863SOL    HW173486  14.621   4.823   8.800
23863SOL    HW273487  14.603   4.846   8.948
23864SOL     OW73488   4.395   6.652   0.471
23864SOL    HW173489   4.407   6.604   0.389
23864SOL    HW273490   4.380   6.585   0.536
23865SOL     OW73491  12.291   1.196  13.934
23865SOL    HW173492  12.240   1.246  13.870
23865SOL    HW273493  12.326   1.263  13.993
23866SOL     OW73494  14.003   1.453  10.359
23866SOL    HW173495  13.975   1.365  10.383
23866SOL    HW273496  14.081   1.440  10.306
23867SOL     OW73497   4.041   5.474  10.088
23867SOL    HW173498   4.048   5.447   9.996
23867SOL    HW273499   3.972   5.541  10.088
23868SOL     OW73500   8.765   2.021   8.508
23868SOL    HW173501   8.859   2.035   8.492
23868SOL    HW273502   8.728   2.109   8.505
23869SOL     OW73503   2.350   6.611   2.715
23869SOL    HW173504   2.358   6.663   2.635
23869SOL    HW273505   2.303   6.669   2.776
23870SOL     OW73506   8.281   9.657   7.004
23870SOL    HW173507   8.235   9.578   7.034
23870SOL    HW273508   8.222   9.729   7.027
23871SOL     OW73509   7.908   6.750   1.595
23871SOL    HW173510   7.982   6.710   1.641
23871SOL    HW273511   7.861   6.799   1.663
23872SOL     OW73512   5.432   6.300   3.423
23872SOL    HW173513   5.483   6.307   3.342
23872SOL    HW273514   5.362   6.366   3.413
23873SOL     OW73515   5.515  12.862   1.230
23873SOL    HW173516   5.474  12.804   1.295
23873SOL    HW273517   5.520  12.809   1.150
23874SOL     OW73518   1.805   2.509   6.057
23874SOL    HW173519   1.732   2.448   6.067
23874SOL    HW273520   1.869   2.460   6.004
23875SOL     OW73521   4.539   1.811   4.043
23875SOL    HW173522   4.493   1.733   4.013
23875SOL    HW273523   4.607   1.778   4.102
23876SOL     OW73524   7.670   0.336   2.993
23876SOL    HW173525   7.727   0.269   2.956
23876SOL    HW273526   7.581   0.304   2.977
23877SOL     OW73527   5.706  12.210  12.601
23877SOL    HW173528   5.763  12.276  12.562
23877SOL    HW273529   5.750  12.183  12.681
23878SOL     OW73530   9.632   3.113   2.816
23878SOL    HW173531   9.622   3.050   2.745
23878SOL    HW273532   9.725   3.136   2.816
23879SOL     OW73533   0.664   2.320   2.174
23879SOL    HW173534   0.622   2.386   2.120
23879SOL    HW273535   0.598   2.252   2.186
23880SOL     OW73536  11.395   9.313  10.625
23880SOL    HW173537  11.477   9.351  10.595
23880SOL    HW273538  11.344   9.388  10.657
23881SOL     OW73539   0.475  13.886   1.585
23881SOL    HW173540   0.463  13.968   1.632
23881SOL    HW273541   0.441  13.819   1.644
23882SOL     OW73542  12.952   8.888  11.378
23882SOL    HW173543  12.857   8.884  11.375
23882SOL    HW273544  12.972   8.937  11.458
23883SOL     OW73545  12.276   9.294   4.890
23883SOL    HW173546  12.371   9.305   4.885
23883SOL    HW273547  12.255   9.237   4.816
23884SOL     OW73548   8.524  14.029   5.592
23884SOL    HW173549   8.554  14.081   5.517
23884SOL    HW273550   8.432  14.053   5.602
23885SOL     OW73551   3.536  13.997  12.835
23885SOL    HW173552   3.584  14.052  12.898
23885SOL    HW273553   3.545  13.908  12.869
23886SOL     OW73554   5.528   6.829   3.192
23886SOL    HW173555   5.528   6.898   3.258
23886SOL    HW273556   5.460   6.768   3.220
23887SOL     OW73557   9.600   6.543   9.808
23887SOL    HW173558   9.540   6.510   9.741
23887SOL    HW273559   9.609   6.471   9.870
23888SOL     OW73560  10.851  10.079  12.119
23888SOL    HW173561  10.771  10.120  12.152
23888SOL    HW273562  10.821   9.994  12.085
23889SOL     OW73563   0.346  14.379  12.368
23889SOL    HW173564   0.399  14.441  12.318
23889SOL    HW273565   0.403  14.350  12.439
23890SOL     OW73566   5.928  12.226  10.136
23890SOL    HW173567   5.941  12.320  10.121
23890SOL    HW273568   5.885  12.195  10.056
23891SOL     OW73569   5.719   3.398  11.484
23891SOL    HW173570   5.715   3.468  11.548
23891SOL    HW273571   5.647   3.416  11.424
23892SOL     OW73572   2.297   6.646   7.661
23892SOL    HW173573   2.268   6.683   7.577
23892SOL    HW273574   2.216   6.617   7.703
23893SOL     OW73575   0.685   3.601   8.681
23893SOL    HW173576   0.774   3.570   8.665
23893SOL    HW273577   0.632   3.554   8.617
23894SOL     OW73578   3.044   2.255   2.355
23894SOL    HW173579   3.087   2.334   2.387
23894SOL    HW273580   2.950   2.274   2.361
23895SOL     OW73581  14.687   5.562   8.925
23895SOL    HW173582  14.723   5.614   8.854
23895SOL    HW273583  14.627   5.621   8.971
23896SOL     OW73584   6.202   3.728   1.948
23896SOL    HW173585   6.296   3.744   1.946
23896SOL    HW273586   6.163   3.814   1.961
23897SOL     OW73587   0.864   3.643   3.312
23897SOL    HW173588   0.865   3.547   3.307
23897SOL    HW273589   0.936   3.664   3.373
23898SOL     OW73590  13.809   6.594   9.480
23898SOL    HW173591  13.864   6.562   9.552
23898SOL    HW273592  13.721   6.598   9.517
23899SOL     OW73593   5.971   0.564   2.851
23899SOL    HW173594   5.976   0.656   2.878
23899SOL    HW273595   6.059   0.544   2.820
23900SOL     OW73596  12.196   3.955   1.665
23900SOL    HW173597  12.158   3.877   1.706
23900SOL    HW273598  12.136   4.025   1.687
23901SOL     OW73599   4.764  11.682   0.399
23901SOL    HW173600   4.793  11.731   0.476
23901SOL    HW273601   4.678  11.719   0.379
23902SOL     OW73602   3.393   7.203   5.460
23902SOL    HW173603   3.486   7.187   5.444
23902SOL    HW273604   3.348   7.132   5.414
23903SOL     OW73605   0.844  11.915   3.483
23903SOL    HW173606   0.762  11.906   3.531
23903SOL    HW273607   0.869  11.825   3.462
23904SOL     OW73608   5.882   8.242   3.224
23904SOL    HW173609   5.945   8.309   3.202
23904SOL    HW273610   5.934   8.163   3.238
23905SOL     OW73611  10.824   5.264  13.319
23905SOL    HW173612  10.776   5.198  13.370
23905SOL    HW273613  10.915   5.253  13.345
23906SOL     OW73614   8.401   6.827   8.995
23906SOL    HW173615   8.436   6.772   8.925
23906SOL    HW273616   8.444   6.794   9.074
23907SOL     OW73617   1.300  14.367   9.663
23907SOL    HW173618   1.344  14.282   9.666
23907SOL    HW273619   1.268  14.374   9.573
23908SOL     OW73620   8.176  12.665   2.085
23908SOL    HW173621   8.242  12.648   2.018
23908SOL    HW273622   8.133  12.581   2.098
23909SOL     OW73623  14.112  12.789   0.669
23909SOL    HW173624  14.114  12.694   0.681
23909SOL    HW273625  14.090  12.824   0.756
23910SOL     OW73626  12.629   7.359  12.674
23910SOL    HW173627  12.719   7.390  12.686
23910SOL    HW273628  12.607   7.381  12.584
23911SOL     OW73629  14.292  13.205   3.171
23911SOL    HW173630  14.221  13.183   3.111
23911SOL    HW273631  14.296  13.132   3.232
23912SOL     OW73632   7.089  10.613  10.770
23912SOL    HW173633   7.012  10.668  10.757
23912SOL    HW273634   7.054  10.528  10.795
23913SOL     OW73635   0.774   4.317   3.236
23913SOL    HW173636   0.750   4.365   3.157
23913SOL    HW273637   0.812   4.383   3.294
23914SOL     OW73638   3.686   0.147   8.916
23914SOL    HW173639   3.736   0.079   8.871
23914SOL    HW273640   3.602   0.106   8.937
23915SOL     OW73641   7.044  12.457   6.972
23915SOL    HW173642   7.018  12.367   6.952
23915SOL    HW273643   7.052  12.499   6.886
23916SOL     OW73644   6.072   2.614  14.513
23916SOL    HW173645   5.981   2.608  14.540
23916SOL    HW273646   6.121   2.629  14.594
23917SOL     OW73647   9.852  12.751   3.270
23917SOL    HW173648   9.878  12.786   3.355
23917SOL    HW273649   9.839  12.657   3.287
23918SOL     OW73650  10.538  14.089  12.588
23918SOL    HW173651  10.491  14.012  12.619
23918SOL    HW273652  10.496  14.111  12.505
23919SOL     OW73653   6.787   5.145  11.117
23919SOL    HW173654   6.849   5.192  11.172
23919SOL    HW273655   6.705   5.147  11.166
23920SOL     OW73656  10.284  14.779   9.957
23920SOL    HW173657  10.305  14.685   9.959
23920SOL    HW273658  10.292  14.807  10.048
23921SOL     OW73659  14.832  10.273  12.873
23921SOL    HW173660  14.764  10.212  12.845
23921SOL    HW273661  14.788  10.357  12.882
23922SOL     OW73662   3.611  13.993   6.517
23922SOL    HW173663   3.572  13.963   6.435
23922SOL    HW273664   3.685  13.935   6.532
23923SOL     OW73665   7.475   7.577  13.908
23923SOL    HW173666   7.484   7.491  13.866
23923SOL    HW273667   7.536   7.575  13.982
23924SOL     OW73668   1.571  12.312   7.733
23924SOL    HW173669   1.496  12.305   7.674
23924SOL    HW273670   1.645  12.279   7.682
23925SOL     OW73671  12.666   1.799   5.122
23925SOL    HW173672  12.741   1.817   5.180
23925SOL    HW273673  12.605   1.751   5.177
23926SOL     OW73674  14.583   8.968   0.454
23926SOL    HW173675  14.527   8.903   0.413
23926SOL    HW273676  14.530   9.049   0.453
23927SOL     OW73677   6.747   2.861   9.324
23927SOL    HW173678   6.705   2.931   9.275
23927SOL    HW273679   6.787   2.805   9.257
23928SOL     OW73680  10.051   9.595  12.571
23928SOL    HW173681   9.972   9.647  12.561
23928SOL    HW273682  10.089   9.625  12.654
23929SOL     OW73683  14.339   9.205  14.465
23929SOL    HW173684  14.383   9.123  14.490
23929SOL    HW273685  14.249   9.179  14.448
23930SOL     OW73686   2.225  12.944  14.764
23930SOL    HW173687   2.283  13.020  14.763
23930SOL    HW273688   2.224  12.916  14.856
23931SOL     OW73689   3.189  11.423  13.858
23931SOL    HW173690   3.219  11.419  13.949
23931SOL    HW273691   3.256  11.474  13.813
23932SOL     OW73692   3.718   8.213   6.711
23932SOL    HW173693   3.635   8.255   6.686
23932SOL    HW273694   3.785   8.268   6.670
23933SOL     OW73695   6.716   1.776   4.335
23933SOL    HW173696   6.641   1.784   4.277
23933SOL    HW273697   6.789   1.754   4.278
23934SOL     OW73698   9.442   4.369   2.874
23934SOL    HW173699   9.399   4.409   2.799
23934SOL    HW273700   9.387   4.294   2.896
23935SOL     OW73701   4.724  11.470   2.776
23935SOL    HW173702   4.753  11.519   2.698
23935SOL    HW273703   4.697  11.385   2.742
23936SOL     OW73704   9.566   3.232   6.604
23936SOL    HW173705   9.471   3.220   6.611
23936SOL    HW273706   9.600   3.146   6.581
23937SOL     OW73707   6.004  11.683   2.930
23937SOL    HW173708   6.005  11.588   2.939
23937SOL    HW273709   5.993  11.716   3.020
23938SOL     OW73710   0.815   9.628   5.124
23938SOL    HW173711   0.721   9.640   5.137
23938SOL    HW273712   0.856   9.686   5.188
23939SOL     OW73713   5.785   1.809  12.468
23939SOL    HW173714   5.803   1.774  12.381
23939SOL    HW273715   5.691   1.794  12.481
23940SOL     OW73716  10.752   5.166   7.941
23940SOL    HW173717  10.770   5.248   7.896
23940SOL    HW273718  10.704   5.191   8.020
23941SOL     OW73719   6.850   6.336   5.439
23941SOL    HW173720   6.814   6.264   5.491
23941SOL    HW273721   6.775   6.372   5.393
23942SOL     OW73722  12.759   9.038  12.856
23942SOL    HW173723  12.794   9.125  12.876
23942SOL    HW273724  12.754   9.035  12.761
23943SOL     OW73725  13.580  12.765  12.486
23943SOL    HW173726  13.587  12.826  12.413
23943SOL    HW273727  13.488  12.767  12.511
23944SOL     OW73728   8.290  11.979   1.111
23944SOL    HW173729   8.220  12.029   1.069
23944SOL    HW273730   8.309  12.028   1.191
23945SOL     OW73731   0.790   7.891   5.318
23945SOL    HW173732   0.880   7.892   5.288
23945SOL    HW273733   0.742   7.843   5.250
23946SOL     OW73734  10.379   3.363   6.786
23946SOL    HW173735  10.425   3.303   6.727
23946SOL    HW273736  10.425   3.447   6.775
23947SOL     OW73737   0.732   9.000   3.090
23947SOL    HW173738   0.777   9.025   3.009
23947SOL    HW273739   0.653   9.054   3.092
23948SOL     OW73740   9.936   8.977   1.610
23948SOL    HW173741   9.951   9.071   1.622
23948SOL    HW273742   9.922   8.966   1.516
23949SOL     OW73743  13.668  14.252   8.633
23949SOL    HW173744  13.665  14.189   8.705
23949SOL    HW273745  13.755  14.243   8.596
23950SOL     OW73746   1.505   6.956   9.710
23950SOL    HW173747   1.481   7.032   9.657
23950SOL    HW273748   1.442   6.889   9.685
23951SOL     OW73749  12.408   7.596  11.024
23951SOL    HW173750  12.417   7.639  10.939
23951SOL    HW273751  12.445   7.509  11.011
23952SOL     OW73752  13.412  12.180  11.429
23952SOL    HW173753  13.463  12.164  11.349
23952SOL    HW273754  13.455  12.127  11.496
23953SOL     OW73755   2.890   0.607  10.000
23953SOL    HW173756   2.936   0.642  10.076
23953SOL    HW273757   2.888   0.680   9.937
23954SOL     OW73758   8.167   2.800   3.756
23954SOL    HW173759   8.205   2.783   3.669
23954SOL    HW273760   8.136   2.715   3.785
23955SOL     OW73761   3.584   2.671   7.204
23955SOL    HW173762   3.538   2.723   7.139
23955SOL    HW273763   3.522   2.664   7.277
23956SOL     OW73764   2.630  14.217  11.947
23956SOL    HW173765   2.624  14.208  11.852
23956SOL    HW273766   2.724  14.225  11.965
23957SOL     OW73767   5.318  13.065   3.509
23957SOL    HW173768   5.400  13.059   3.459
23957SOL    HW273769   5.319  12.988   3.566
23958SOL     OW73770   3.020  10.482   0.049
23958SOL    HW173771   3.012  10.395   0.088
23958SOL    HW273772   2.999  10.542   0.121
23959SOL     OW73773  12.997   8.328   9.108
23959SOL    HW173774  12.977   8.369   9.193
23959SOL    HW273775  12.938   8.253   9.104
23960SOL     OW73776   6.738  11.602   2.570
23960SOL    HW173777   6.686  11.555   2.634
23960SOL    HW273778   6.729  11.550   2.489
23961SOL     OW73779  13.567  14.766   4.073
23961SOL    HW173780  13.537  14.695   4.016
23961SOL    HW273781  13.513  14.841   4.049
23962SOL     OW73782  11.561   3.437   3.880
23962SOL    HW173783  11.498   3.503   3.906
23962SOL    HW273784  11.563   3.375   3.952
23963SOL     OW73785   3.528   7.257   1.672
23963SOL    HW173786   3.613   7.281   1.710
23963SOL    HW273787   3.513   7.323   1.603
23964SOL     OW73788  12.194   5.194   3.929
23964SOL    HW173789  12.203   5.256   4.002
23964SOL    HW273790  12.199   5.108   3.970
23965SOL     OW73791   0.237   3.124   2.215
23965SOL    HW173792   0.293   3.149   2.142
23965SOL    HW273793   0.297   3.119   2.290
23966SOL     OW73794   8.993   4.576   4.712
23966SOL    HW173795   9.077   4.608   4.745
23966SOL    HW273796   8.928   4.636   4.750
23967SOL     OW73797   3.250   4.369  11.627
23967SOL    HW173798   3.191   4.374  11.702
23967SOL    HW273799   3.336   4.389  11.663
23968SOL     OW73800   9.486  14.475   8.550
23968SOL    HW173801   9.440  14.556   8.527
23968SOL    HW273802   9.416  14.409   8.554
23969SOL     OW73803   2.108  14.439   9.707
23969SOL    HW173804   2.189  14.394   9.683
23969SOL    HW273805   2.070  14.386   9.777
23970SOL     OW73806   2.014   6.770   2.979
23970SOL    HW173807   2.030   6.740   3.068
23970SOL    HW273808   2.033   6.693   2.925
23971SOL     OW73809   5.911   6.345   8.135
23971SOL    HW173810   5.998   6.367   8.100
23971SOL    HW273811   5.915   6.373   8.226
23972SOL     OW73812  14.876  14.679   9.873
23972SOL    HW173813   0.065  14.742   9.881
23972SOL    HW273814  14.859  14.673   9.779
23973SOL     OW73815   7.136   5.852   4.458
23973SOL    HW173816   7.196   5.917   4.421
23973SOL    HW273817   7.067   5.843   4.392
23974SOL     OW73818   6.539  13.711  10.077
23974SOL    HW173819   6.493  13.704   9.994
23974SOL    HW273820   6.474  13.749  10.137
23975SOL     OW73821   8.094   7.995  12.853
23975SOL    HW173822   8.058   8.071  12.900
23975SOL    HW273823   8.151   8.033  12.787
23976SOL     OW73824   7.279  10.185   8.360
23976SOL    HW173825   7.306  10.230   8.440
23976SOL    HW273826   7.280  10.092   8.383
23977SOL     OW73827   7.430   3.373  10.041
23977SOL    HW173828   7.476   3.454  10.063
23977SOL    HW273829   7.472   3.306  10.096
23978SOL     OW73830   8.211  11.395   9.056
23978SOL    HW173831   8.283  11.424   9.001
23978SOL    HW273832   8.190  11.307   9.025
23979SOL     OW73833   7.425   5.589  13.545
23979SOL    HW173834   7.512   5.558  13.520
23979SOL    HW273835   7.397   5.527  13.612
23980SOL     OW73836   6.951   6.601  13.297
23980SOL    HW173837   6.986   6.622  13.211
23980SOL    HW273838   7.016   6.635  13.358
23981SOL     OW73839   4.309  14.665   3.920
23981SOL    HW173840   4.239  14.712   3.966
23981SOL    HW273841   4.358  14.620   3.988
23982SOL     OW73842  12.495   3.777   2.880
23982SOL    HW173843  12.563   3.765   2.814
23982SOL    HW273844  12.422   3.817   2.833
23983SOL     OW73845   3.794  13.624  13.616
23983SOL    HW173846   3.827  13.591  13.700
23983SOL    HW273847   3.699  13.616  13.623
23984SOL     OW73848  11.448  13.583   3.343
23984SOL    HW173849  11.506  13.573   3.268
23984SOL    HW273850  11.382  13.647   3.314
23985SOL     OW73851  12.987   8.093  14.588
23985SOL    HW173852  13.082   8.090  14.578
23985SOL    HW273853  12.968   8.185  14.606
23986SOL     OW73854  12.845   7.862   5.151
23986SOL    HW173855  12.862   7.767   5.154
23986SOL    HW273856  12.860   7.892   5.240
23987SOL     OW73857   7.344   2.133   7.259
23987SOL    HW173858   7.423   2.100   7.302
23987SOL    HW273859   7.306   2.055   7.217
23988SOL     OW73860   1.736   6.707   9.918
23988SOL    HW173861   1.669   6.757   9.965
23988SOL    HW273862   1.749   6.629   9.972
23989SOL     OW73863   0.677   7.322   5.441
23989SOL    HW173864   0.766   7.309   5.410
23989SOL    HW273865   0.659   7.415   5.424
23990SOL     OW73866  13.521   4.406   5.417
23990SOL    HW173867  13.594   4.465   5.399
23990SOL    HW273868  13.448   4.442   5.366
23991SOL     OW73869   5.468   0.643   0.641
23991SOL    HW173870   5.392   0.584   0.642
23991SOL    HW273871   5.436   0.723   0.600
23992SOL     OW73872   8.490   8.506   0.391
23992SOL    HW173873   8.540   8.433   0.429
23992SOL    HW273874   8.557   8.562   0.351
23993SOL     OW73875   9.970   5.938  11.386
23993SOL    HW173876   9.908   5.948  11.458
23993SOL    HW273877  10.014   5.855  11.404
23994SOL     OW73878   5.683   5.611  10.637
23994SOL    HW173879   5.691   5.672  10.710
23994SOL    HW273880   5.648   5.665  10.565
23995SOL     OW73881   8.232   7.020  13.320
23995SOL    HW173882   8.150   7.064  13.342
23995SOL    HW273883   8.299   7.067  13.370
23996SOL     OW73884   0.002   3.418  12.726
23996SOL    HW173885  14.793   3.404  12.750
23996SOL    HW273886   0.013   3.370  12.644
23997SOL     OW73887  10.284  10.793   0.689
23997SOL    HW173888  10.367  10.841   0.697
23997SOL    HW273889  10.219  10.851   0.730
23998SOL     OW73890  14.845  10.663  14.771
23998SOL    HW173891  14.754  10.680  14.749
23998SOL    HW273892   0.013  10.717  14.709
23999SOL     OW73893   1.795  11.789   5.307
23999SOL    HW173894   1.754  11.707   5.279
23999SOL    HW273895   1.850  11.764   5.381
24000SOL     OW73896   4.229   6.428  14.558
24000SOL    HW173897   4.167   6.391  14.495
24000SOL    HW273898   4.315   6.401  14.527
24001SOL     OW73899   1.990   1.955   6.770
24001SOL    HW173900   2.012   2.042   6.803
24001SOL    HW273901   1.898   1.962   6.746
24002SOL     OW73902   3.973   8.094   4.774
24002SOL    HW173903   3.929   8.150   4.709
24002SOL    HW273904   3.922   8.106   4.854
24003SOL     OW73905   3.101   8.345   7.274
24003SOL    HW173906   3.021   8.370   7.321
24003SOL    HW273907   3.085   8.255   7.246
24004SOL     OW73908  14.688   5.439   4.690
24004SOL    HW173909  14.632   5.369   4.657
24004SOL    HW273910  14.694   5.423   4.784
24005SOL     OW73911  12.852   6.053   7.272
24005SOL    HW173912  12.772   6.093   7.236
24005SOL    HW273913  12.823   6.009   7.352
24006SOL     OW73914   5.112   2.206   6.085
24006SOL    HW173915   5.147   2.291   6.111
24006SOL    HW273916   5.169   2.143   6.128
24007SOL     OW73917   2.375   9.707   5.819
24007SOL    HW173918   2.445   9.647   5.792
24007SOL    HW273919   2.359   9.685   5.911
24008SOL     OW73920  14.348   7.536   5.813
24008SOL    HW173921  14.334   7.491   5.896
24008SOL    HW273922  14.382   7.467   5.754
24009SOL     OW73923   0.722   5.565   4.768
24009SOL    HW173924   0.717   5.534   4.677
24009SOL    HW273925   0.806   5.533   4.800
24010SOL     OW73926   9.370   5.648  11.274
24010SOL    HW173927   9.303   5.622  11.211
24010SOL    HW273928   9.397   5.567  11.316
24011SOL     OW73929   7.378   6.545   3.310
24011SOL    HW173930   7.310   6.566   3.373
24011SOL    HW273931   7.342   6.473   3.258
24012SOL     OW73932   1.530   8.276   5.337
24012SOL    HW173933   1.548   8.213   5.408
24012SOL    HW273934   1.613   8.323   5.325
24013SOL     OW73935   7.236   3.911  14.590
24013SOL    HW173936   7.279   3.952  14.515
24013SOL    HW273937   7.283   3.829  14.603
24014SOL     OW73938   2.173   5.328  14.479
24014SOL    HW173939   2.150   5.368  14.563
24014SOL    HW273940   2.203   5.402  14.425
24015SOL     OW73941   5.911   3.673   2.856
24015SOL    HW173942   5.890   3.595   2.805
24015SOL    HW273943   5.984   3.713   2.809
24016SOL     OW73944  12.900   5.658  14.306
24016SOL    HW173945  12.996   5.659  14.305
24016SOL    HW273946  12.877   5.711  14.383
24017SOL     OW73947   5.258  13.712  14.647
24017SOL    HW173948   5.336  13.735  14.596
24017SOL    HW273949   5.248  13.618  14.634
24018SOL     OW73950   4.802  13.119  14.787
24018SOL    HW173951   4.867  13.126  14.857
24018SOL    HW273952   4.736  13.186  14.808
24019SOL     OW73953  13.024   0.557  13.275
24019SOL    HW173954  12.955   0.513  13.226
24019SOL    HW273955  13.088   0.488  13.294
24020SOL     OW73956   3.844   0.863   1.408
24020SOL    HW173957   3.921   0.844   1.354
24020SOL    HW273958   3.850   0.956   1.427
24021SOL     OW73959  13.973   5.744   3.774
24021SOL    HW173960  14.053   5.733   3.825
24021SOL    HW273961  13.986   5.689   3.696
24022SOL     OW73962  12.833  11.153   0.719
24022SOL    HW173963  12.819  11.078   0.777
24022SOL    HW273964  12.858  11.113   0.635
24023SOL     OW73965   1.128   2.750   5.017
24023SOL    HW173966   1.142   2.778   5.108
24023SOL    HW273967   1.045   2.702   5.019
24024SOL     OW73968   3.693   3.073  14.196
24024SOL    HW173969   3.786   3.053  14.194
24024SOL    HW273970   3.652   3.005  14.141
24025SOL     OW73971   5.380   7.063   9.798
24025SOL    HW173972   5.289   7.040   9.781
24025SOL    HW273973   5.379   7.157   9.813
24026SOL     OW73974   1.651   6.241   4.229
24026SOL    HW173975   1.658   6.169   4.167
24026SOL    HW273976   1.557   6.254   4.240
24027SOL     OW73977   1.600   1.345  12.871
24027SOL    HW173978   1.570   1.412  12.809
24027SOL    HW273979   1.589   1.263  12.824
24028SOL     OW73980   7.610   5.789   6.596
24028SOL    HW173981   7.688   5.831   6.559
24028SOL    HW273982   7.637   5.761   6.683
24029SOL     OW73983   3.499   6.765   0.227
24029SOL    HW173984   3.573   6.731   0.278
24029SOL    HW273985   3.518   6.858   0.216
24030SOL     OW73986  10.403   1.669   5.997
24030SOL    HW173987  10.447   1.672   5.912
24030SOL    HW273988  10.460   1.719   6.055
24031SOL     OW73989   0.034   0.524   6.369
24031SOL    HW173990   0.116   0.553   6.329
24031SOL    HW273991   0.061   0.472   6.444
24032SOL     OW73992   2.553   8.453   1.638
24032SOL    HW173993   2.543   8.404   1.556
24032SOL    HW273994   2.625   8.409   1.683
24033SOL     OW73995  14.836  11.949   1.712
24033SOL    HW173996   0.014  11.970   1.783
24033SOL    HW273997  14.879  11.984   1.634
24034SOL     OW73998  13.062   8.734   4.106
24034SOL    HW173999  13.026   8.647   4.118
24034SOL    HW274000  13.128   8.724   4.037
24035SOL     OW74001   2.256   3.136   7.723
24035SOL    HW174002   2.322   3.110   7.787
24035SOL    HW274003   2.253   3.232   7.728
24036SOL     OW74004  11.928  14.105  10.372
24036SOL    HW174005  11.992  14.038  10.395
24036SOL    HW274006  11.942  14.174  10.438
24037SOL     OW74007   2.941   4.251   0.907
24037SOL    HW174008   2.975   4.334   0.873
24037SOL    HW274009   2.861   4.235   0.856
24038SOL     OW74010   7.184  12.394   5.272
24038SOL    HW174011   7.228  12.310   5.260
24038SOL    HW274012   7.096  12.371   5.301
24039SOL     OW74013  11.553  10.394   4.889
24039SOL    HW174014  11.551  10.329   4.819
24039SOL    HW274015  11.516  10.473   4.849
24040SOL     OW74016   1.419  10.446   1.027
24040SOL    HW174017   1.373  10.365   1.049
24040SOL    HW274018   1.363  10.515   1.061
24041SOL     OW74019   9.204   6.824   0.501
24041SOL    HW174020   9.201   6.731   0.477
24041SOL    HW274021   9.248   6.826   0.586
24042SOL     OW74022  10.529   5.164   0.660
24042SOL    HW174023  10.455   5.108   0.639
24042SOL    HW274024  10.589   5.154   0.586
24043SOL     OW74025  13.686  14.076   1.884
24043SOL    HW174026  13.681  14.138   1.957
24043SOL    HW274027  13.653  14.125   1.809
24044SOL     OW74028  10.603   5.485   8.993
24044SOL    HW174029  10.631   5.516   9.079
24044SOL    HW274030  10.585   5.565   8.943
24045SOL     OW74031   7.007   1.729   8.307
24045SOL    HW174032   6.926   1.711   8.260
24045SOL    HW274033   6.990   1.700   8.397
24046SOL     OW74034  14.353  13.852   1.330
24046SOL    HW174035  14.261  13.846   1.304
24046SOL    HW274036  14.364  13.942   1.361
24047SOL     OW74037  10.210   7.943   4.756
24047SOL    HW174038  10.219   7.952   4.851
24047SOL    HW274039  10.271   8.008   4.720
24048SOL     OW74040   7.968   6.773  10.242
24048SOL    HW174041   7.902   6.841  10.232
24048SOL    HW274042   7.924   6.704  10.292
24049SOL     OW74043  14.743   4.844  11.168
24049SOL    HW174044  14.673   4.781  11.153
24049SOL    HW274045  14.778   4.863  11.080
24050SOL     OW74046   3.287   5.403   8.186
24050SOL    HW174047   3.192   5.394   8.181
24050SOL    HW274048   3.303   5.440   8.272
24051SOL     OW74049   7.329  10.507  11.049
24051SOL    HW174050   7.372  10.561  10.983
24051SOL    HW274051   7.370  10.420  11.040
24052SOL     OW74052  12.210   0.036   3.288
24052SOL    HW174053  12.217   0.130   3.275
24052SOL    HW274054  12.133   0.010   3.238
24053SOL     OW74055  12.072  10.481  10.775
24053SOL    HW174056  12.134  10.553  10.764
24053SOL    HW274057  12.127  10.403  10.780
24054SOL     OW74058   2.354   7.734   1.320
24054SOL    HW174059   2.344   7.755   1.227
24054SOL    HW274060   2.279   7.777   1.362
24055SOL     OW74061   8.379   7.291  12.379
24055SOL    HW174062   8.359   7.202  12.409
24055SOL    HW274063   8.458   7.281  12.325
24056SOL     OW74064   1.635   0.359   1.957
24056SOL    HW174065   1.651   0.278   2.004
24056SOL    HW274066   1.586   0.332   1.879
24057SOL     OW74067   4.883   0.367   7.335
24057SOL    HW174068   4.964   0.359   7.285
24057SOL    HW274069   4.905   0.333   7.422
24058SOL     OW74070  11.581  12.196  12.553
24058SOL    HW174071  11.586  12.240  12.638
24058SOL    HW274072  11.667  12.209  12.513
24059SOL     OW74073   8.965   2.980  11.739
24059SOL    HW174074   9.037   2.971  11.801
24059SOL    HW274075   8.903   2.911  11.764
24060SOL     OW74076   1.812   2.220  13.099
24060SOL    HW174077   1.732   2.188  13.140
24060SOL    HW274078   1.820   2.169  13.019
24061SOL     OW74079  13.104  12.264  13.128
24061SOL    HW174080  13.163  12.335  13.103
24061SOL    HW274081  13.029  12.271  13.068
24062SOL     OW74082   7.881   9.009   3.146
24062SOL    HW174083   7.966   8.982   3.113
24062SOL    HW274084   7.888   8.999   3.241
24063SOL     OW74085  11.313  12.592   7.863
24063SOL    HW174086  11.248  12.634   7.807
24063SOL    HW274087  11.310  12.500   7.840
24064SOL     OW74088   4.934  11.972   1.200
24064SOL    HW174089   4.955  11.888   1.158
24064SOL    HW274090   5.019  12.008   1.226
24065SOL     OW74091  14.824   8.606  10.349
24065SOL    HW174092  14.823   8.693  10.388
24065SOL    HW274093   0.031   8.575  10.362
24066SOL     OW74094   9.417   7.652   5.502
24066SOL    HW174095   9.429   7.707   5.425
24066SOL    HW274096   9.332   7.610   5.490
24067SOL     OW74097   2.711   2.124  14.045
24067SOL    HW174098   2.657   2.079  14.110
24067SOL    HW274099   2.691   2.080  13.962
24068SOL     OW74100  10.061   8.383   8.934
24068SOL    HW174101  10.019   8.462   8.966
24068SOL    HW274102   9.994   8.315   8.941
24069SOL     OW74103  14.126   8.393   6.952
24069SOL    HW174104  14.199   8.332   6.949
24069SOL    HW274105  14.093   8.386   7.042
24070SOL     OW74106   6.343  14.168   2.668
24070SOL    HW174107   6.325  14.215   2.750
24070SOL    HW274108   6.334  14.235   2.600
24071SOL     OW74109   9.271   4.957  12.622
24071SOL    HW174110   9.350   5.011  12.624
24071SOL    HW274111   9.284   4.892  12.691
24072SOL     OW74112   1.828  11.477   4.732
24072SOL    HW174113   1.854  11.454   4.642
24072SOL    HW274114   1.824  11.573   4.731
24073SOL     OW74115  14.744   0.037  10.280
24073SOL    HW174116  14.707   0.107  10.226
24073SOL    HW274117  14.722   0.062  10.370
24074SOL     OW74118   8.524   0.109   5.402
24074SOL    HW174119   8.489   0.161   5.330
24074SOL    HW274120   8.494   0.020   5.384
24075SOL     OW74121   3.625  12.394   6.329
24075SOL    HW174122   3.567  12.348   6.389
24075SOL    HW274123   3.580  12.390   6.244
24076SOL     OW74124   3.391  12.908   6.792
24076SOL    HW174125   3.354  12.851   6.860
24076SOL    HW274126   3.476  12.868   6.772
24077SOL     OW74127   4.105   4.660   1.241
24077SOL    HW174128   4.102   4.620   1.328
24077SOL    HW274129   4.088   4.587   1.181
24078SOL     OW74130   7.701  13.582   6.862
24078SOL    HW174131   7.758  13.622   6.927
24078SOL    HW274132   7.612  13.599   6.894
24079SOL     OW74133   4.202   4.390   4.753
24079SOL    HW174134   4.256   4.428   4.683
24079SOL    HW274135   4.263   4.371   4.824
24080SOL     OW74136   1.421   9.400  13.966
24080SOL    HW174137   1.365   9.450  13.906
24080SOL    HW274138   1.496   9.458  13.982
24081SOL     OW74139  11.815   2.633  11.003
24081SOL    HW174140  11.743   2.694  11.016
24081SOL    HW274141  11.883   2.685  10.959
24082SOL     OW74142   3.539   9.109  13.524
24082SOL    HW174143   3.463   9.081  13.576
24082SOL    HW274144   3.578   9.027  13.493
24083SOL     OW74145   6.307  10.209   4.368
24083SOL    HW174146   6.224  10.165   4.351
24083SOL    HW274147   6.361  10.143   4.411
24084SOL     OW74148   3.731   7.203   2.873
24084SOL    HW174149   3.729   7.273   2.937
24084SOL    HW274150   3.686   7.130   2.915
24085SOL     OW74151   6.404   9.225   5.293
24085SOL    HW174152   6.477   9.163   5.294
24085SOL    HW274153   6.384   9.235   5.200
24086SOL     OW74154  10.278   3.573  11.339
24086SOL    HW174155  10.194   3.581  11.384
24086SOL    HW274156  10.256   3.577  11.246
24087SOL     OW74157  11.137   9.618   3.803
24087SOL    HW174158  11.122   9.668   3.883
24087SOL    HW274159  11.050   9.590   3.776
24088SOL     OW74160   4.056   4.377   6.574
24088SOL    HW174161   4.126   4.373   6.638
24088SOL    HW274162   4.099   4.364   6.489
24089SOL     OW74163  14.069  11.520  13.691
24089SOL    HW174164  14.097  11.556  13.606
24089SOL    HW274165  14.109  11.433  13.694
24090SOL     OW74166   4.519   2.819   5.968
24090SOL    HW174167   4.605   2.860   5.961
24090SOL    HW274168   4.461   2.876   5.918
24091SOL     OW74169   3.405   0.420  14.399
24091SOL    HW174170   3.359   0.504  14.401
24091SOL    HW274171   3.354   0.363  14.457
24092SOL     OW74172   0.809   0.533  10.736
24092SOL    HW174173   0.798   0.465  10.802
24092SOL    HW274174   0.847   0.607  10.783
24093SOL     OW74175  14.480   3.772  12.859
24093SOL    HW174176  14.413   3.774  12.927
24093SOL    HW274177  14.495   3.865  12.838
24094SOL     OW74178   1.096   9.530   3.813
24094SOL    HW174179   1.159   9.514   3.883
24094SOL    HW274180   1.013   9.545   3.857
24095SOL     OW74181   2.520   2.679   5.354
24095SOL    HW174182   2.442   2.716   5.394
24095SOL    HW274183   2.593   2.707   5.410
24096SOL     OW74184   7.564   8.375  13.379
24096SOL    HW174185   7.541   8.461  13.345
24096SOL    HW274186   7.647   8.353  13.335
24097SOL     OW74187  10.772  10.688   6.320
24097SOL    HW174188  10.688  10.656   6.287
24097SOL    HW274189  10.777  10.779   6.289
24098SOL     OW74190   8.507  10.613   2.002
24098SOL    HW174191   8.525  10.682   2.065
24098SOL    HW274192   8.479  10.659   1.923
24099SOL     OW74193   2.972   3.194   9.261
24099SOL    HW174194   3.056   3.159   9.232
24099SOL    HW274195   2.925   3.215   9.181
24100SOL     OW74196  14.634   5.792   4.241
24100SOL    HW174197  14.704   5.806   4.177
24100SOL    HW274198  14.612   5.880   4.272
24101SOL     OW74199  12.703  11.419  14.873
24101SOL    HW174200  12.687  11.463   0.074
24101SOL    HW274201  12.748  11.484  14.820
24102SOL     OW74202   2.338  12.269  12.936
24102SOL    HW174203   2.328  12.338  12.870
24102SOL    HW274204   2.248  12.241  12.955
24103SOL     OW74205   7.777   8.042  12.273
24103SOL    HW174206   7.810   8.049  12.362
24103SOL    HW274207   7.800   8.125  12.232
24104SOL     OW74208  10.986  13.469   5.906
24104SOL    HW174209  10.954  13.429   5.987
24104SOL    HW274210  10.936  13.550   5.899
24105SOL     OW74211  10.803   7.913   2.963
24105SOL    HW174212  10.715   7.928   2.930
24105SOL    HW274213  10.858   7.974   2.914
24106SOL     OW74214   7.842  13.230  12.650
24106SOL    HW174215   7.918  13.267  12.696
24106SOL    HW274216   7.806  13.166  12.711
24107SOL     OW74217   7.531   1.968   0.070
24107SOL    HW174218   7.576   1.897   0.024
24107SOL    HW274219   7.481   1.924   0.139
24108SOL     OW74220   2.562  13.502   9.696
24108SOL    HW174221   2.564  13.544   9.782
24108SOL    HW274222   2.469  13.500   9.672
24109SOL     OW74223   7.895   6.977   5.765
24109SOL    HW174224   7.884   6.906   5.702
24109SOL    HW274225   7.834   7.045   5.737
24110SOL     OW74226   3.869   1.203  13.772
24110SOL    HW174227   3.922   1.184  13.695
24110SOL    HW274228   3.931   1.201  13.845
24111SOL     OW74229   4.469  11.017   1.431
24111SOL    HW174230   4.501  10.968   1.355
24111SOL    HW274231   4.526  11.094   1.436
24112SOL     OW74232   8.345   3.875  11.254
24112SOL    HW174233   8.330   3.917  11.338
24112SOL    HW274234   8.399   3.798  11.274
24113SOL     OW74235   7.894  10.744   2.079
24113SOL    HW174236   7.969  10.723   2.135
24113SOL    HW274237   7.835  10.793   2.135
24114SOL     OW74238   2.885   6.736   2.947
24114SOL    HW174239   2.822   6.685   2.998
24114SOL    HW274240   2.834   6.771   2.874
24115SOL     OW74241   5.782  10.449   0.989
24115SOL    HW174242   5.734  10.532   0.982
24115SOL    HW274243   5.858  10.468   1.044
24116SOL     OW74244  11.176   7.544  13.918
24116SOL    HW174245  11.081   7.533  13.916
24116SOL    HW274246  11.205   7.520  13.830
24117SOL     OW74247  14.590   9.184   6.312
24117SOL    HW174248  14.674   9.230   6.308
24117SOL    HW274249  14.576   9.152   6.223
24118SOL     OW74250   0.238   8.414   5.398
24118SOL    HW174251   0.205   8.389   5.485
24118SOL    HW274252   0.333   8.418   5.410
24119SOL     OW74253   5.483   4.904   5.392
24119SOL    HW174254   5.408   4.959   5.370
24119SOL    HW274255   5.463   4.819   5.353
24120SOL     OW74256   8.162  13.376  13.673
24120SOL    HW174257   8.246  13.349  13.710
24120SOL    HW274258   8.097  13.333  13.729
24121SOL     OW74259   5.015   8.052  10.840
24121SOL    HW174260   5.024   8.061  10.745
24121SOL    HW274261   4.979   8.136  10.869
24122SOL     OW74262   0.617  14.085   3.307
24122SOL    HW174263   0.532  14.124   3.325
24122SOL    HW274264   0.642  14.119   3.221
24123SOL     OW74265  14.353   3.643  11.312
24123SOL    HW174266  14.301   3.721  11.333
24123SOL    HW274267  14.429   3.650  11.370
24124SOL     OW74268  12.224   9.849  12.211
24124SOL    HW174269  12.311   9.829  12.176
24124SOL    HW274270  12.197   9.928  12.163
24125SOL     OW74271  10.687   4.200   3.265
24125SOL    HW174272  10.633   4.178   3.341
24125SOL    HW274273  10.702   4.294   3.273
24126SOL     OW74274   5.701  13.468  11.949
24126SOL    HW174275   5.676  13.423  12.030
24126SOL    HW274276   5.642  13.434  11.883
24127SOL     OW74277  10.974   0.670  13.700
24127SOL    HW174278  11.004   0.580  13.688
24127SOL    HW274279  10.987   0.712  13.616
24128SOL     OW74280   0.430   4.597  11.194
24128SOL    HW174281   0.457   4.661  11.259
24128SOL    HW274282   0.338   4.579  11.213
24129SOL     OW74283  13.984  14.086  10.347
24129SOL    HW174284  14.017  14.094  10.258
24129SOL    HW274285  13.901  14.134  10.346
24130SOL     OW74286   3.665  10.976   3.336
24130SOL    HW174287   3.702  11.035   3.401
24130SOL    HW274288   3.740  10.942   3.288
24131SOL     OW74289   9.954   1.030   1.755
24131SOL    HW174290   9.915   1.116   1.769
24131SOL    HW274291   9.908   0.995   1.678
24132SOL     OW74292   2.921  10.622   9.509
24132SOL    HW174293   2.922  10.558   9.438
24132SOL    HW274294   2.992  10.594   9.567
24133SOL     OW74295   8.848  12.666   2.520
24133SOL    HW174296   8.769  12.653   2.467
24133SOL    HW274297   8.815  12.673   2.610
24134SOL     OW74298  10.017   5.463   3.237
24134SOL    HW174299   9.989   5.518   3.164
24134SOL    HW274300   9.964   5.492   3.311
24135SOL     OW74301   7.675  11.458   4.296
24135SOL    HW174302   7.770  11.457   4.307
24135SOL    HW274303   7.658  11.402   4.220
24136SOL     OW74304   9.609  13.687   5.410
24136SOL    HW174305   9.646  13.775   5.399
24136SOL    HW274306   9.515  13.703   5.423
24137SOL     OW74307   1.146   6.169  14.468
24137SOL    HW174308   1.056   6.181  14.441
24137SOL    HW274309   1.141   6.111  14.544
24138SOL     OW74310  11.933  10.400  13.403
24138SOL    HW174311  11.996  10.329  13.408
24138SOL    HW274312  11.930  10.424  13.310
24139SOL     OW74313   0.452  12.463  14.376
24139SOL    HW174314   0.398  12.507  14.442
24139SOL    HW274315   0.534  12.512  14.376
24140SOL     OW74316  14.763   3.115   8.512
24140SOL    HW174317  14.787   3.203   8.481
24140SOL    HW274318  14.681   3.128   8.559
24141SOL     OW74319   5.530   4.511  11.427
24141SOL    HW174320   5.588   4.585  11.413
24141SOL    HW274321   5.456   4.547  11.475
24142SOL     OW74322   7.223   6.159  12.048
24142SOL    HW174323   7.202   6.170  12.141
24142SOL    HW274324   7.223   6.064  12.035
24143SOL     OW74325   5.585  11.720   4.863
24143SOL    HW174326   5.533  11.679   4.932
24143SOL    HW274327   5.676  11.707   4.890
24144SOL     OW74328  13.437  10.202  12.076
24144SOL    HW174329  13.347  10.235  12.072
24144SOL    HW274330  13.458  10.199  12.169
24145SOL     OW74331   4.238  10.163   8.000
24145SOL    HW174332   4.170  10.208   8.051
24145SOL    HW274333   4.272  10.231   7.940
24146SOL     OW74334   2.890   5.361   7.436
24146SOL    HW174335   2.844   5.364   7.520
24146SOL    HW274336   2.982   5.373   7.460
24147SOL     OW74337   2.580   0.974   2.294
24147SOL    HW174338   2.603   1.065   2.274
24147SOL    HW274339   2.486   0.977   2.312
24148SOL     OW74340   9.208   5.147   6.131
24148SOL    HW174341   9.293   5.113   6.105
24148SOL    HW274342   9.226   5.236   6.162
24149SOL     OW74343  11.342   8.118   7.754
24149SOL    HW174344  11.404   8.046   7.744
24149SOL    HW274345  11.281   8.089   7.822
24150SOL     OW74346   7.761  12.205   4.929
24150SOL    HW174347   7.746  12.166   5.015
24150SOL    HW274348   7.695  12.274   4.923
24151SOL     OW74349   2.708   4.952  14.492
24151SOL    HW174350   2.634   4.892  14.478
24151SOL    HW274351   2.786   4.899  14.474
24152SOL     OW74352  14.743  11.303   4.721
24152SOL    HW174353  14.827  11.265   4.746
24152SOL    HW274354  14.698  11.232   4.676
24153SOL     OW74355   7.271   0.621   2.093
24153SOL    HW174356   7.243   0.642   2.183
24153SOL    HW274357   7.352   0.570   2.105
24154SOL     OW74358  13.058  12.216   2.503
24154SOL    HW174359  12.977  12.251   2.466
24154SOL    HW274360  13.098  12.167   2.431
24155SOL     OW74361  10.214  11.718   4.523
24155SOL    HW174362  10.297  11.719   4.476
24155SOL    HW274363  10.160  11.784   4.481
24156SOL     OW74364  13.096   6.565  13.915
24156SOL    HW174365  13.091   6.648  13.963
24156SOL    HW274366  13.144   6.587  13.835
24157SOL     OW74367   7.356   6.493  10.430
24157SOL    HW174368   7.343   6.434  10.356
24157SOL    HW274369   7.436   6.541  10.409
24158SOL     OW74370   8.335   4.527  13.455
24158SOL    HW174371   8.337   4.487  13.541
24158SOL    HW274372   8.426   4.525  13.425
24159SOL     OW74373   7.945   9.041  14.562
24159SOL    HW174374   8.036   9.066  14.579
24159SOL    HW274375   7.944   9.014  14.470
24160SOL     OW74376   9.919  10.891  14.305
24160SOL    HW174377   9.834  10.847  14.301
24160SOL    HW274378   9.927  10.936  14.221
24161SOL     OW74379  12.195  11.942   3.456
24161SOL    HW174380  12.152  11.934   3.371
24161SOL    HW274381  12.281  11.904   3.443
24162SOL     OW74382   6.953  12.000   6.593
24162SOL    HW174383   7.015  12.030   6.527
24162SOL    HW274384   6.887  11.951   6.544
24163SOL     OW74385  11.914   5.177   5.507
24163SOL    HW174386  11.934   5.121   5.431
24163SOL    HW274387  11.852   5.125   5.559
24164SOL     OW74388   1.273   8.298   6.404
24164SOL    HW174389   1.256   8.212   6.366
24164SOL    HW274390   1.349   8.285   6.460
24165SOL     OW74391   4.830  13.885   9.666
24165SOL    HW174392   4.771  13.937   9.721
24165SOL    HW274393   4.871  13.823   9.726
24166SOL     OW74394   6.966   8.576   1.863
24166SOL    HW174395   6.960   8.669   1.841
24166SOL    HW274396   6.916   8.567   1.945
24167SOL     OW74397   6.849   6.796   6.379
24167SOL    HW174398   6.777   6.732   6.376
24167SOL    HW274399   6.866   6.817   6.287
24168SOL     OW74400   9.903   7.892   3.654
24168SOL    HW174401   9.959   7.967   3.637
24168SOL    HW274402   9.835   7.896   3.587
24169SOL     OW74403   7.995   6.715   9.286
24169SOL    HW174404   8.036   6.667   9.214
24169SOL    HW274405   7.902   6.719   9.261
24170SOL     OW74406   7.114   5.372   2.413
24170SOL    HW174407   7.119   5.278   2.393
24170SOL    HW274408   7.149   5.415   2.335
24171SOL     OW74409  13.190   1.319  13.522
24171SOL    HW174410  13.139   1.372  13.583
24171SOL    HW274411  13.221   1.381  13.456
24172SOL     OW74412  11.951   2.829   3.847
24172SOL    HW174413  11.866   2.819   3.805
24172SOL    HW274414  12.015   2.814   3.778
24173SOL     OW74415  12.403   1.356   6.992
24173SOL    HW174416  12.342   1.309   6.935
24173SOL    HW274417  12.489   1.338   6.956
24174SOL     OW74418   0.314  13.994  10.480
24174SOL    HW174419   0.335  13.901  10.493
24174SOL    HW274420   0.262  13.996  10.400
24175SOL     OW74421   6.681   3.164   6.139
24175SOL    HW174422   6.698   3.079   6.178
24175SOL    HW274423   6.754   3.219   6.168
24176SOL     OW74424   6.505   3.769  14.138
24176SOL    HW174425   6.556   3.696  14.173
24176SOL    HW274426   6.459   3.805  14.213
24177SOL     OW74427  11.194   8.850  13.969
24177SOL    HW174428  11.268   8.897  13.929
24177SOL    HW274429  11.235   8.775  14.012
24178SOL     OW74430   0.398   0.519  12.717
24178SOL    HW174431   0.323   0.574  12.741
24178SOL    HW274432   0.372   0.431  12.744
24179SOL     OW74433  11.397  11.213   1.160
24179SOL    HW174434  11.349  11.135   1.187
24179SOL    HW274435  11.354  11.240   1.078
24180SOL     OW74436   2.368   0.130   3.680
24180SOL    HW174437   2.451   0.083   3.685
24180SOL    HW274438   2.375   0.183   3.601
24181SOL     OW74439   7.262   2.537   1.986
24181SOL    HW174440   7.179   2.502   2.018
24181SOL    HW274441   7.272   2.498   1.899
24182SOL     OW74442   3.790  11.542   3.490
24182SOL    HW174443   3.810  11.540   3.584
24182SOL    HW274444   3.832  11.464   3.455
24183SOL     OW74445   2.617   7.130   6.957
24183SOL    HW174446   2.675   7.203   6.935
24183SOL    HW274447   2.549   7.170   7.011
24184SOL     OW74448   9.596   2.342   5.647
24184SOL    HW174449   9.674   2.301   5.684
24184SOL    HW274450   9.623   2.431   5.627
24185SOL     OW74451   3.246  12.763   4.796
24185SOL    HW174452   3.310  12.694   4.781
24185SOL    HW274453   3.299  12.841   4.815
24186SOL     OW74454  11.444   4.023   6.410
24186SOL    HW174455  11.350   4.040   6.404
24186SOL    HW274456  11.484   4.092   6.358
24187SOL     OW74457   5.229  13.905   6.645
24187SOL    HW174458   5.314  13.948   6.655
24187SOL    HW274459   5.232  13.831   6.707
24188SOL     OW74460   2.567   2.310   9.220
24188SOL    HW174461   2.486   2.272   9.255
24188SOL    HW274462   2.552   2.405   9.222
24189SOL     OW74463  13.612   6.821  10.548
24189SOL    HW174464  13.681   6.760  10.520
24189SOL    HW274465  13.588   6.868  10.468
24190SOL     OW74466   8.933  12.548  11.285
24190SOL    HW174467   8.985  12.514  11.358
24190SOL    HW274468   8.874  12.612  11.325
24191SOL     OW74469  12.909   4.722   1.767
24191SOL    HW174470  12.985   4.663   1.767
24191SOL    HW274471  12.835   4.665   1.744
24192SOL     OW74472   4.689   0.882   7.477
24192SOL    HW174473   4.699   0.954   7.413
24192SOL    HW274474   4.757   0.819   7.451
24193SOL     OW74475   3.444   7.962   1.369
24193SOL    HW174476   3.353   7.978   1.341
24193SOL    HW274477   3.485   7.920   1.294
24194SOL     OW74478  12.329   3.038  11.532
24194SOL    HW174479  12.351   2.958  11.486
24194SOL    HW274480  12.293   3.096  11.464
24195SOL     OW74481   2.703  13.027   9.725
24195SOL    HW174482   2.668  12.955   9.777
24195SOL    HW274483   2.669  13.012   9.636
24196SOL     OW74484   0.619   7.212   4.914
24196SOL    HW174485   0.715   7.215   4.919
24196SOL    HW274486   0.600   7.154   4.840
24197SOL     OW74487  12.255   3.813  13.865
24197SOL    HW174488  12.298   3.753  13.804
24197SOL    HW274489  12.299   3.897  13.851
24198SOL     OW74490   3.720  14.767   7.298
24198SOL    HW174491   3.773  14.764   7.219
24198SOL    HW274492   3.750  14.692   7.350
24199SOL     OW74493  14.563  11.705   0.619
24199SOL    HW174494  14.549  11.778   0.558
24199SOL    HW274495  14.539  11.627   0.569
24200SOL     OW74496  11.701  14.380   3.329
24200SOL    HW174497  11.746  14.304   3.367
24200SOL    HW274498  11.631  14.343   3.276
24201SOL     OW74499   7.678   7.929   2.792
24201SOL    HW174500   7.632   8.000   2.837
24201SOL    HW274501   7.638   7.849   2.827
24202SOL     OW74502   6.197   7.684  13.557
24202SOL    HW174503   6.152   7.769  13.547
24202SOL    HW274504   6.216   7.658  13.467
24203SOL     OW74505  14.091   7.192   1.904
24203SOL    HW174506  14.032   7.252   1.952
24203SOL    HW274507  14.100   7.116   1.962
24204SOL     OW74508   6.814   6.632   8.044
24204SOL    HW174509   6.732   6.662   8.082
24204SOL    HW274510   6.855   6.580   8.114
24205SOL     OW74511  13.231  12.891   0.266
24205SOL    HW174512  13.163  12.929   0.322
24205SOL    HW274513  13.274  12.825   0.322
24206SOL     OW74514   6.711   2.914   6.689
24206SOL    HW174515   6.709   2.962   6.771
24206SOL    HW274516   6.737   2.825   6.713
24207SOL     OW74517   1.548   2.610  12.404
24207SOL    HW174518   1.558   2.516  12.415
24207SOL    HW274519   1.561   2.647  12.491
24208SOL     OW74520   5.576   1.262  11.011
24208SOL    HW174521   5.582   1.224  10.923
24208SOL    HW274522   5.482   1.271  11.026
24209SOL     OW74523  11.529   5.388   8.727
24209SOL    HW174524  11.544   5.405   8.820
24209SOL    HW274525  11.461   5.451   8.701
24210SOL     OW74526   7.579   2.616   2.738
24210SOL    HW174527   7.496   2.643   2.701
24210SOL    HW274528   7.615   2.554   2.674
24211SOL     OW74529  13.278  11.161   4.280
24211SOL    HW174530  13.321  11.243   4.302
24211SOL    HW274531  13.192  11.168   4.322
24212SOL     OW74532  13.896   2.388   3.659
24212SOL    HW174533  13.842   2.446   3.713
24212SOL    HW274534  13.847   2.377   3.578
24213SOL     OW74535   0.963   5.158   6.547
24213SOL    HW174536   1.035   5.128   6.602
24213SOL    HW274537   1.001   5.228   6.493
24214SOL     OW74538  12.519  10.064   2.265
24214SOL    HW174539  12.563  10.148   2.281
24214SOL    HW274540  12.461  10.053   2.340
24215SOL     OW74541   5.398   5.823  12.343
24215SOL    HW174542   5.337   5.894  12.321
24215SOL    HW274543   5.342   5.749  12.366
24216SOL     OW74544   0.413   8.838  12.280
24216SOL    HW174545   0.455   8.849  12.195
24216SOL    HW274546   0.397   8.928  12.310
24217SOL     OW74547  13.497   8.823  14.149
24217SOL    HW174548  13.471   8.873  14.227
24217SOL    HW274549  13.477   8.732  14.170
24218SOL     OW74550   1.816   4.043   5.131
24218SOL    HW174551   1.862   4.126   5.118
24218SOL    HW274552   1.880   3.986   5.174
24219SOL     OW74553  12.577   6.287   7.201
24219SOL    HW174554  12.612   6.376   7.198
24219SOL    HW274555  12.520   6.282   7.124
24220SOL     OW74556  11.647   9.464   1.477
24220SOL    HW174557  11.561   9.505   1.475
24220SOL    HW274558  11.709   9.536   1.474
24221SOL     OW74559   7.518   9.883   2.617
24221SOL    HW174560   7.521   9.901   2.711
24221SOL    HW274561   7.452   9.815   2.608
24222SOL     OW74562  10.656   8.292  14.122
24222SOL    HW174563  10.685   8.368  14.174
24222SOL    HW274564  10.594   8.247  14.179
24223SOL     OW74565   5.870  11.929   9.775
24223SOL    HW174566   5.946  11.951   9.721
24223SOL    HW274567   5.819  11.869   9.721
24224SOL     OW74568   2.171  10.838   9.246
24224SOL    HW174569   2.136  10.755   9.279
24224SOL    HW274570   2.095  10.896   9.244
24225SOL     OW74571   3.787   4.526   3.474
24225SOL    HW174572   3.726   4.453   3.489
24225SOL    HW274573   3.742   4.581   3.409
24226SOL     OW74574   4.642  14.310  10.278
24226SOL    HW174575   4.570  14.372  10.287
24226SOL    HW274576   4.615  14.235  10.331
24227SOL     OW74577   9.064   6.994  12.135
24227SOL    HW174578   9.133   7.060  12.142
24227SOL    HW274579   9.044   6.970  12.226
24228SOL     OW74580   5.020   1.738   8.073
24228SOL    HW174581   5.050   1.650   8.096
24228SOL    HW274582   4.966   1.726   7.995
24229SOL     OW74583   8.875   4.031   2.162
24229SOL    HW174584   8.926   3.995   2.235
24229SOL    HW274585   8.864   4.123   2.184
24230SOL     OW74586   3.810  10.053  12.499
24230SOL    HW174587   3.738  10.057  12.436
24230SOL    HW274588   3.890  10.057  12.446
24231SOL     OW74589   2.801   1.587   6.207
24231SOL    HW174590   2.883   1.586   6.256
24231SOL    HW274591   2.783   1.495   6.189
24232SOL     OW74592  14.213   1.007   1.522
24232SOL    HW174593  14.274   0.985   1.451
24232SOL    HW274594  14.214   1.102   1.526
24233SOL     OW74595  10.625  13.833   9.014
24233SOL    HW174596  10.581  13.906   9.057
24233SOL    HW274597  10.569  13.812   8.940
24234SOL     OW74598   1.661   1.722  14.359
24234SOL    HW174599   1.639   1.755  14.272
24234SOL    HW274600   1.689   1.799  14.408
24235SOL     OW74601   0.468   3.373   5.998
24235SOL    HW174602   0.427   3.371   6.085
24235SOL    HW274603   0.532   3.443   6.003
24236SOL     OW74604   4.327   5.771  10.883
24236SOL    HW174605   4.410   5.778  10.836
24236SOL    HW274606   4.270   5.835  10.841
24237SOL     OW74607   3.248  11.749   7.526
24237SOL    HW174608   3.326  11.693   7.521
24237SOL    HW274609   3.274  11.821   7.583
24238SOL     OW74610  12.986   6.663   7.092
24238SOL    HW174611  12.957   6.654   7.002
24238SOL    HW274612  13.068   6.614   7.096
24239SOL     OW74613   4.056   8.203   7.410
24239SOL    HW174614   4.119   8.265   7.374
24239SOL    HW274615   3.979   8.212   7.354
24240SOL     OW74616   8.372   5.845  10.098
24240SOL    HW174617   8.326   5.928  10.108
24240SOL    HW274618   8.311   5.790  10.049
24241SOL     OW74619   7.184   5.853   7.595
24241SOL    HW174620   7.176   5.893   7.681
24241SOL    HW274621   7.099   5.869   7.553
24242SOL     OW74622   1.041   1.216   5.704
24242SOL    HW174623   1.055   1.189   5.613
24242SOL    HW274624   1.058   1.136   5.755
24243SOL     OW74625   9.516  13.973   5.613
24243SOL    HW174626   9.497  14.002   5.525
24243SOL    HW274627   9.527  14.053   5.664
24244SOL     OW74628   0.765   2.155  11.486
24244SOL    HW174629   0.704   2.087  11.515
24244SOL    HW274630   0.852   2.118  11.503
24245SOL     OW74631   8.694  14.289   8.746
24245SOL    HW174632   8.734  14.343   8.678
24245SOL    HW274633   8.672  14.352   8.815
24246SOL     OW74634   5.387   0.907  11.093
24246SOL    HW174635   5.297   0.930  11.117
24246SOL    HW274636   5.377   0.845  11.020
24247SOL     OW74637   4.051  14.828   9.713
24247SOL    HW174638   3.961  14.798   9.724
24247SOL    HW274639   4.069  14.879   9.792
24248SOL     OW74640  10.902   3.549   6.612
24248SOL    HW174641  10.931   3.570   6.701
24248SOL    HW274642  10.815   3.589   6.605
24249SOL     OW74643   5.228  12.110  12.656
24249SOL    HW174644   5.317  12.086  12.630
24249SOL    HW274645   5.237  12.136  12.748
24250SOL     OW74646   9.040   5.514   6.345
24250SOL    HW174647   9.129   5.499   6.314
24250SOL    HW274648   9.046   5.510   6.441
24251SOL     OW74649  13.372  12.142  12.970
24251SOL    HW174650  13.373  12.144  12.874
24251SOL    HW274651  13.337  12.227  12.996
24252SOL     OW74652   1.123   5.822  13.261
24252SOL    HW174653   1.050   5.793  13.206
24252SOL    HW274654   1.083   5.840  13.346
24253SOL     OW74655   5.696   2.921  13.776
24253SOL    HW174656   5.785   2.927  13.741
24253SOL    HW274657   5.696   2.842  13.830
24254SOL     OW74658   8.040   6.894   3.200
24254SOL    HW174659   8.114   6.951   3.225
24254SOL    HW274660   7.970   6.955   3.176
24255SOL     OW74661   9.003   2.270  12.254
24255SOL    HW174662   8.961   2.352  12.226
24255SOL    HW274663   9.093   2.294  12.274
24256SOL     OW74664   2.839   7.716  14.611
24256SOL    HW174665   2.820   7.783  14.545
24256SOL    HW274666   2.895   7.653  14.566
24257SOL     OW74667  13.406  12.689   6.223
24257SOL    HW174668  13.363  12.774   6.238
24257SOL    HW274669  13.345  12.642   6.165
24258SOL     OW74670  13.923   0.673   4.185
24258SOL    HW174671  13.898   0.741   4.248
24258SOL    HW274672  13.990   0.716   4.131
24259SOL     OW74673   8.962  13.312  13.699
24259SOL    HW174674   9.007  13.229  13.712
24259SOL    HW274675   8.893  13.312  13.766
24260SOL     OW74676   9.107  14.478  12.181
24260SOL    HW174677   9.021  14.439  12.197
24260SOL    HW274678   9.098  14.570  12.207
24261SOL     OW74679   7.179   1.728   2.084
24261SOL    HW174680   7.210   1.754   2.171
24261SOL    HW274681   7.213   1.639   2.072
24262SOL     OW74682  11.959   4.912   5.011
24262SOL    HW174683  11.946   5.002   4.981
24262SOL    HW274684  12.050   4.892   4.988
24263SOL     OW74685   1.791   3.469  12.272
24263SOL    HW174686   1.776   3.386  12.227
24263SOL    HW274687   1.803   3.445  12.364
24264SOL     OW74688   3.157  10.458   7.274
24264SOL    HW174689   3.217  10.406   7.220
24264SOL    HW274690   3.214  10.519   7.321
24265SOL     OW74691   8.595   9.565   5.338
24265SOL    HW174692   8.512   9.587   5.295
24265SOL    HW274693   8.569   9.522   5.419
24266SOL     OW74694  13.838   3.847   5.913
24266SOL    HW174695  13.919   3.869   5.959
24266SOL    HW274696  13.835   3.909   5.840
24267SOL     OW74697   5.208  12.689  14.394
24267SOL    HW174698   5.271  12.758  14.414
24267SOL    HW274699   5.149  12.688  14.469
24268SOL     OW74700   1.124   8.878  10.412
24268SOL    HW174701   1.107   8.862  10.319
24268SOL    HW274702   1.191   8.946  10.413
24269SOL     OW74703  10.935   4.572  14.264
24269SOL    HW174704  10.901   4.603  14.180
24269SOL    HW274705  10.929   4.477  14.259
24270SOL     OW74706   9.383   2.336  11.106
24270SOL    HW174707   9.413   2.400  11.041
24270SOL    HW274708   9.435   2.258  11.088
24271SOL     OW74709   0.351   5.511  10.821
24271SOL    HW174710   0.389   5.554  10.898
24271SOL    HW274711   0.317   5.428  10.855
24272SOL     OW74712  13.405  14.505   5.822
24272SOL    HW174713  13.447  14.421   5.804
24272SOL    HW274714  13.372  14.497   5.911
24273SOL     OW74715   1.242   2.102   1.409
24273SOL    HW174716   1.174   2.038   1.389
24273SOL    HW274717   1.280   2.072   1.492
24274SOL     OW74718   0.841   4.164   3.695
24274SOL    HW174719   0.921   4.183   3.745
24274SOL    HW274720   0.822   4.247   3.650
24275SOL     OW74721  14.812   9.210   7.195
24275SOL    HW174722   0.016   9.216   7.235
24275SOL    HW274723  14.764   9.286   7.229
24276SOL     OW74724   0.530   8.114   9.661
24276SOL    HW174725   0.534   8.188   9.721
24276SOL    HW274726   0.449   8.126   9.612
24277SOL     OW74727  13.551   8.300  11.346
24277SOL    HW174728  13.509   8.286  11.430
24277SOL    HW274729  13.499   8.249  11.284
24278SOL     OW74730   1.890  14.238   6.881
24278SOL    HW174731   1.918  14.222   6.971
24278SOL    HW274732   1.796  14.256   6.888
24279SOL     OW74733  10.671   5.854   1.579
24279SOL    HW174734  10.582   5.858   1.544
24279SOL    HW274735  10.727   5.848   1.502
24280SOL     OW74736  11.075   7.087  14.225
24280SOL    HW174737  11.059   7.179  14.204
24280SOL    HW274738  11.110   7.049  14.145
24281SOL     OW74739  14.742   8.859   0.018
24281SOL    HW174740  14.811   8.845   0.083
24281SOL    HW274741  14.722   8.952   0.024
24282SOL     OW74742  10.020   7.054   8.258
24282SOL    HW174743   9.925   7.059   8.271
24282SOL    HW274744  10.031   7.035   8.165
24283SOL     OW74745   6.327   4.163   9.759
24283SOL    HW174746   6.371   4.213   9.690
24283SOL    HW274747   6.245   4.210   9.773
24284SOL     OW74748  10.874   4.066  13.738
24284SOL    HW174749  10.814   3.997  13.710
24284SOL    HW274750  10.836   4.147  13.702
24285SOL     OW74751   2.675   7.247   4.492
24285SOL    HW174752   2.592   7.226   4.450
24285SOL    HW274753   2.740   7.195   4.445
24286SOL     OW74754   0.200  12.911   8.407
24286SOL    HW174755   0.119  12.960   8.422
24286SOL    HW274756   0.206  12.852   8.481
24287SOL     OW74757   1.281   6.146   8.917
24287SOL    HW174758   1.354   6.085   8.916
24287SOL    HW274759   1.322   6.232   8.926
24288SOL     OW74760  12.174   1.520   2.494
24288SOL    HW174761  12.220   1.604   2.499
24288SOL    HW274762  12.223   1.471   2.428
24289SOL     OW74763   6.710   3.407   3.270
24289SOL    HW174764   6.654   3.482   3.250
24289SOL    HW274765   6.788   3.445   3.311
24290SOL     OW74766  12.988   1.753   8.886
24290SOL    HW174767  13.001   1.672   8.837
24290SOL    HW274768  12.911   1.736   8.941
24291SOL     OW74769   0.451   9.217  12.195
24291SOL    HW174770   0.511   9.278  12.238
24291SOL    HW274771   0.406   9.173  12.268
24292SOL     OW74772  10.853   5.778   7.252
24292SOL    HW174773  10.839   5.872   7.264
24292SOL    HW274774  10.798   5.737   7.319
24293SOL     OW74775  10.375   1.089  11.583
24293SOL    HW174776  10.398   1.167  11.533
24293SOL    HW274777  10.426   1.097  11.664
24294SOL     OW74778   9.070   3.166  12.042
24294SOL    HW174779   9.163   3.171  12.067
24294SOL    HW274780   9.024   3.154  12.125
24295SOL     OW74781  11.608   5.615   2.528
24295SOL    HW174782  11.646   5.550   2.587
24295SOL    HW274783  11.601   5.695   2.581
24296SOL     OW74784   7.900  14.087   9.181
24296SOL    HW174785   7.921  14.137   9.260
24296SOL    HW274786   7.889  13.997   9.212
24297SOL     OW74787   8.820   5.977  11.245
24297SOL    HW174788   8.765   6.052  11.223
24297SOL    HW274789   8.884   5.972  11.175
24298SOL     OW74790   7.261  12.867   3.560
24298SOL    HW174791   7.262  12.876   3.465
24298SOL    HW274792   7.353  12.857   3.584
24299SOL     OW74793  12.630  11.133  12.308
24299SOL    HW174794  12.713  11.132  12.356
24299SOL    HW274795  12.653  11.103  12.220
24300SOL     OW74796   9.402  10.763  14.331
24300SOL    HW174797   9.374  10.673  14.313
24300SOL    HW274798   9.352  10.788  14.409
24301SOL     OW74799  13.444  10.604  12.174
24301SOL    HW174800  13.454  10.699  12.173
24301SOL    HW274801  13.453  10.580  12.266
24302SOL     OW74802   4.233   9.482   5.966
24302SOL    HW174803   4.214   9.416   6.032
24302SOL    HW274804   4.328   9.477   5.954
24303SOL     OW74805  12.263   4.061   7.892
24303SOL    HW174806  12.236   4.025   7.808
24303SOL    HW274807  12.322   3.995   7.928
24304SOL     OW74808   2.247  11.589   8.244
24304SOL    HW174809   2.287  11.534   8.177
24304SOL    HW274810   2.307  11.662   8.255
24305SOL     OW74811  10.143  10.777  11.177
24305SOL    HW174812  10.079  10.840  11.143
24305SOL    HW274813  10.123  10.772  11.271
24306SOL     OW74814  13.146   3.296   6.927
24306SOL    HW174815  13.082   3.226   6.911
24306SOL    HW274816  13.140   3.314   7.021
24307SOL     OW74817   0.671   5.108   6.880
24307SOL    HW174818   0.755   5.144   6.909
24307SOL    HW274819   0.625   5.183   6.842
24308SOL     OW74820   5.447  11.899   2.839
24308SOL    HW174821   5.360  11.893   2.879
24308SOL    HW274822   5.504  11.928   2.911
24309SOL     OW74823   4.276   7.567   1.824
24309SOL    HW174824   4.197   7.580   1.877
24309SOL    HW274825   4.347   7.564   1.888
24310SOL     OW74826   4.251  12.093   1.501
24310SOL    HW174827   4.159  12.116   1.485
24310SOL    HW274828   4.279  12.050   1.420
24311SOL     OW74829   8.363   6.785   3.690
24311SOL    HW174830   8.285   6.840   3.685
24311SOL    HW274831   8.404   6.809   3.773
24312SOL     OW74832   6.580  12.183   7.339
24312SOL    HW174833   6.517  12.155   7.273
24312SOL    HW274834   6.598  12.104   7.390
24313SOL     OW74835   1.980   7.991  10.289
24313SOL    HW174836   2.062   8.003  10.338
24313SOL    HW274837   1.949   7.905  10.315
24314SOL     OW74838   6.545   6.976   0.625
24314SOL    HW174839   6.566   7.069   0.640
24314SOL    HW274840   6.493   6.951   0.701
24315SOL     OW74841  10.043  14.312   1.557
24315SOL    HW174842  10.026  14.219   1.545
24315SOL    HW274843  10.017  14.330   1.647
24316SOL     OW74844   0.715  14.041  12.996
24316SOL    HW174845   0.771  14.011  13.068
24316SOL    HW274846   0.732  14.135  12.990
24317SOL     OW74847  14.531   5.724  10.883
24317SOL    HW174848  14.448   5.772  10.879
24317SOL    HW274849  14.521   5.654  10.818
24318SOL     OW74850   9.011   4.552   8.684
24318SOL    HW174851   9.041   4.543   8.774
24318SOL    HW274852   9.071   4.498   8.633
24319SOL     OW74853   4.951   7.616  14.049
24319SOL    HW174854   4.932   7.576  13.964
24319SOL    HW274855   4.930   7.547  14.113
24320SOL     OW74856   3.188  13.930   0.837
24320SOL    HW174857   3.115  13.917   0.898
24320SOL    HW274858   3.169  13.871   0.764
24321SOL     OW74859  10.413   1.007   3.259
24321SOL    HW174860  10.507   1.004   3.279
24321SOL    HW274861  10.396   0.925   3.213
24322SOL     OW74862   7.896  11.193   3.677
24322SOL    HW174863   7.929  11.260   3.617
24322SOL    HW274864   7.957  11.197   3.751
24323SOL     OW74865  11.441  11.758   1.737
24323SOL    HW174866  11.352  11.723   1.731
24323SOL    HW274867  11.435  11.831   1.797
24324SOL     OW74868   5.899   1.543  14.254
24324SOL    HW174869   5.809   1.572  14.245
24324SOL    HW274870   5.910   1.476  14.185
24325SOL     OW74871   5.811   7.285   9.043
24325SOL    HW174872   5.867   7.275   9.120
24325SOL    HW274873   5.851   7.229   8.977
24326SOL     OW74874   5.276   2.738   4.284
24326SOL    HW174875   5.256   2.658   4.235
24326SOL    HW274876   5.211   2.801   4.253
24327SOL     OW74877   5.723   6.372   0.472
24327SOL    HW174878   5.656   6.305   0.460
24327SOL    HW274879   5.703   6.413   0.556
24328SOL     OW74880   2.338  11.586  13.458
24328SOL    HW174881   2.314  11.524  13.527
24328SOL    HW274882   2.266  11.579  13.394
24329SOL     OW74883  12.829   9.651   3.148
24329SOL    HW174884  12.747   9.636   3.101
24329SOL    HW274885  12.895   9.604   3.097
24330SOL     OW74886   9.496  12.007  14.263
24330SOL    HW174887   9.543  12.089  14.275
24330SOL    HW274888   9.516  11.956  14.341
24331SOL     OW74889  13.103   3.883   5.145
24331SOL    HW174890  13.193   3.912   5.152
24331SOL    HW274891  13.056   3.931   5.213
24332SOL     OW74892   0.411   6.248   1.989
24332SOL    HW174893   0.434   6.156   1.998
24332SOL    HW274894   0.324   6.248   1.950
24333SOL     OW74895   6.046   2.059  12.694
24333SOL    HW174896   6.063   2.128  12.759
24333SOL    HW274897   5.964   2.019  12.723
24334SOL     OW74898   6.868   6.898  14.508
24334SOL    HW174899   6.801   6.877  14.443
24334SOL    HW274900   6.950   6.903  14.458
24335SOL     OW74901  12.521   9.291  14.262
24335SOL    HW174902  12.522   9.363  14.326
24335SOL    HW274903  12.584   9.318  14.195
24336SOL     OW74904  10.187   8.420   2.400
24336SOL    HW174905  10.139   8.338   2.397
24336SOL    HW274906  10.130   8.483   2.355
24337SOL     OW74907  12.739   0.567  12.508
24337SOL    HW174908  12.792   0.646  12.497
24337SOL    HW274909  12.649   0.597  12.496
24338SOL     OW74910   3.594  12.683   0.850
24338SOL    HW174911   3.559  12.755   0.797
24338SOL    HW274912   3.658  12.640   0.794
24339SOL     OW74913  12.777  12.785   1.094
24339SOL    HW174914  12.702  12.726   1.087
24339SOL    HW274915  12.830  12.765   1.017
24340SOL     OW74916   5.424  11.492   5.770
24340SOL    HW174917   5.402  11.507   5.678
24340SOL    HW274918   5.406  11.575   5.813
24341SOL     OW74919   9.929   9.670   6.993
24341SOL    HW174920   9.936   9.577   6.972
24341SOL    HW274921   9.908   9.712   6.909
24342SOL     OW74922   7.967  12.239  14.204
24342SOL    HW174923   7.882  12.196  14.195
24342SOL    HW274924   7.979  12.286  14.121
24343SOL     OW74925   1.237   7.736   8.872
24343SOL    HW174926   1.233   7.814   8.816
24343SOL    HW274927   1.246   7.663   8.810
24344SOL     OW74928   7.227   6.468  10.681
24344SOL    HW174929   7.252   6.439  10.594
24344SOL    HW274930   7.214   6.562  10.672
24345SOL     OW74931   0.377   3.870   5.332
24345SOL    HW174932   0.299   3.906   5.289
24345SOL    HW274933   0.376   3.777   5.308
24346SOL     OW74934   4.837   7.247   8.651
24346SOL    HW174935   4.919   7.249   8.601
24346SOL    HW274936   4.837   7.330   8.699
24347SOL     OW74937   2.467  14.355  12.460
24347SOL    HW174938   2.454  14.360  12.555
24347SOL    HW274939   2.505  14.268  12.446
24348SOL     OW74940   5.782   4.049  11.727
24348SOL    HW174941   5.816   4.013  11.809
24348SOL    HW274942   5.733   4.127  11.754
24349SOL     OW74943   8.937  14.143   8.866
24349SOL    HW174944   8.952  14.063   8.815
24349SOL    HW274945   8.874  14.193   8.814
24350SOL     OW74946  10.930   0.040   2.080
24350SOL    HW174947  10.999   0.040   2.014
24350SOL    HW274948  10.937  14.836   2.121
24351SOL     OW74949   7.402   6.801   4.152
24351SOL    HW174950   7.356   6.818   4.235
24351SOL    HW274951   7.363   6.720   4.119
24352SOL     OW74952  14.325   2.581   2.279
24352SOL    HW174953  14.377   2.645   2.230
24352SOL    HW274954  14.376   2.564   2.358
24353SOL     OW74955   6.677  14.568   7.014
24353SOL    HW174956   6.689  14.510   7.089
24353SOL    HW274957   6.620  14.637   7.047
24354SOL     OW74958   4.595   4.347  13.286
24354SOL    HW174959   4.622   4.327  13.376
24354SOL    HW274960   4.525   4.412  13.297
24355SOL     OW74961   4.278   8.201  11.864
24355SOL    HW174962   4.336   8.255  11.918
24355SOL    HW274963   4.221   8.264  11.820
24356SOL     OW74964   7.321   0.737  13.955
24356SOL    HW174965   7.291   0.673  13.890
24356SOL    HW274966   7.266   0.814  13.940
24357SOL     OW74967   3.436  10.913   6.247
24357SOL    HW174968   3.459  11.006   6.243
24357SOL    HW274969   3.520  10.867   6.248
24358SOL     OW74970  13.825   1.057  13.019
24358SOL    HW174971  13.888   1.005  13.068
24358SOL    HW274972  13.863   1.066  12.932
24359SOL     OW74973   9.758   2.718   8.565
24359SOL    HW174974   9.663   2.715   8.554
24359SOL    HW274975   9.772   2.727   8.659
24360SOL     OW74976   0.996   9.958   9.720
24360SOL    HW174977   0.999   9.967   9.625
24360SOL    HW274978   0.904   9.969   9.742
24361SOL     OW74979   9.968  10.473  10.274
24361SOL    HW174980  10.030  10.510  10.211
24361SOL    HW274981  10.010  10.393  10.305
24362SOL     OW74982   2.635   8.225   2.023
24362SOL    HW174983   2.667   8.268   2.102
24362SOL    HW274984   2.558   8.176   2.052
24363SOL     OW74985  11.764   5.829   5.359
24363SOL    HW174986  11.820   5.815   5.435
24363SOL    HW274987  11.683   5.864   5.394
24364SOL     OW74988   8.528   3.683  11.247
24364SOL    HW174989   8.521   3.621  11.176
24364SOL    HW274990   8.603   3.652  11.299
24365SOL     OW74991   4.112  13.921   3.049
24365SOL    HW174992   4.112  13.895   3.141
24365SOL    HW274993   4.205  13.921   3.024
24366SOL     OW74994   7.415   9.499   2.210
24366SOL    HW174995   7.508   9.506   2.188
24366SOL    HW274996   7.385   9.590   2.214
24367SOL     OW74997   8.625   2.819   4.174
24367SOL    HW174998   8.688   2.832   4.245
24367SOL    HW274999   8.598   2.728   4.182
24368SOL     OW75000  12.805  12.058   2.039
24368SOL    HW175001  12.879  12.004   2.064
24368SOL    HW275002  12.802  12.127   2.105
24369SOL     OW75003   4.639   7.396   4.440
24369SOL    HW175004   4.683   7.326   4.390
24369SOL    HW275005   4.624   7.358   4.526
24370SOL     OW75006  13.636   7.046   5.574
24370SOL    HW175007  13.584   7.029   5.653
24370SOL    HW275008  13.671   7.134   5.587
24371SOL     OW75009   1.878   4.718  10.423
24371SOL    HW175010   1.920   4.726  10.509
24371SOL    HW275011   1.861   4.808  10.396
24372SOL     OW75012  12.408  12.094   4.918
24372SOL    HW175013  12.318  12.069   4.939
24372SOL    HW275014  12.459  12.064   4.993
24373SOL     OW75015   5.460   0.702   1.364
24373SOL    HW175016   5.483   0.746   1.282
24373SOL    HW275017   5.442   0.612   1.339
24374SOL     OW75018   5.480  14.124   0.883
24374SOL    HW175019   5.446  14.152   0.798
24374SOL    HW275020   5.574  14.137   0.876
24375SOL     OW75021   3.724   6.899   1.143
24375SOL    HW175022   3.666   6.837   1.098
24375SOL    HW275023   3.701   6.891   1.235
24376SOL     OW75024  12.850  10.533   8.387
24376SOL    HW175025  12.764  10.548   8.347
24376SOL    HW275026  12.884  10.621   8.405
24377SOL     OW75027   8.998   1.713  11.752
24377SOL    HW175028   9.048   1.688  11.830
24377SOL    HW275029   8.985   1.807  11.761
24378SOL     OW75030   3.398  12.985   4.545
24378SOL    HW175031   3.412  12.992   4.639
24378SOL    HW275032   3.366  13.071   4.519
24379SOL     OW75033  12.421  12.255  11.723
24379SOL    HW175034  12.391  12.296  11.642
24379SOL    HW275035  12.463  12.326  11.772
24380SOL     OW75036   5.058  12.636  12.454
24380SOL    HW175037   4.981  12.673  12.411
24380SOL    HW275038   5.029  12.617  12.544
24381SOL     OW75039   9.026   2.456  14.790
24381SOL    HW175040   8.999   2.399  14.861
24381SOL    HW275041   8.970   2.533  14.797
24382SOL     OW75042  10.162  14.819  13.660
24382SOL    HW175043  10.243  14.778  13.628
24382SOL    HW275044  10.092  14.776  13.612
24383SOL     OW75045   6.098   5.259   9.469
24383SOL    HW175046   6.017   5.295   9.503
24383SOL    HW275047   6.157   5.256   9.544
24384SOL     OW75048   9.332  14.478  13.651
24384SOL    HW175049   9.283  14.510  13.575
24384SOL    HW275050   9.413  14.529  13.650
24385SOL     OW75051   4.430  11.194   3.274
24385SOL    HW175052   4.385  11.230   3.350
24385SOL    HW275053   4.493  11.262   3.248
24386SOL     OW75054  12.364   5.242  14.301
24386SOL    HW175055  12.415   5.235  14.382
24386SOL    HW275056  12.427   5.274  14.236
24387SOL     OW75057   4.143   5.911   6.398
24387SOL    HW175058   4.198   5.881   6.470
24387SOL    HW275059   4.079   5.969   6.439
24388SOL     OW75060   8.201   0.110  12.846
24388SOL    HW175061   8.131   0.070  12.794
24388SOL    HW275062   8.198   0.064  12.930
24389SOL     OW75063  11.390   7.143  14.011
24389SOL    HW175064  11.341   7.201  14.068
24389SOL    HW275065  11.475   7.186  14.001
24390SOL     OW75066   3.823   5.848   6.048
24390SOL    HW175067   3.830   5.782   6.117
24390SOL    HW275068   3.797   5.928   6.094
24391SOL     OW75069   3.899   2.193  12.962
24391SOL    HW175070   3.834   2.191  12.892
24391SOL    HW275071   3.855   2.235  13.035
24392SOL     OW75072   4.374  13.548   9.356
24392SOL    HW175073   4.310  13.486   9.322
24392SOL    HW275074   4.350  13.632   9.316
24393SOL     OW75075   3.013  11.388  13.254
24393SOL    HW175076   2.983  11.467  13.208
24393SOL    HW275077   2.965  11.388  13.336
24394SOL     OW75078   3.473   9.651   9.510
24394SOL    HW175079   3.530   9.574   9.508
24394SOL    HW275080   3.464   9.677   9.418
24395SOL     OW75081   7.440   7.515  11.805
24395SOL    HW175082   7.377   7.533  11.735
24395SOL    HW275083   7.439   7.595  11.858
24396SOL     OW75084   9.671   2.120   7.147
24396SOL    HW175085   9.616   2.087   7.217
24396SOL    HW275086   9.740   2.054   7.137
24397SOL     OW75087  12.580   4.135   1.285
24397SOL    HW175088  12.518   4.208   1.273
24397SOL    HW275089  12.600   4.106   1.196
24398SOL     OW75090  13.984   1.021  14.693
24398SOL    HW175091  14.003   0.937  14.736
24398SOL    HW275092  14.069   1.064  14.684
24399SOL     OW75093  11.842   7.903  10.998
24399SOL    HW175094  11.821   7.863  11.083
24399SOL    HW275095  11.791   7.852  10.935
24400SOL     OW75096  14.858  11.995  12.490
24400SOL    HW175097  14.781  11.960  12.445
24400SOL    HW275098   0.017  11.918  12.530
24401SOL     OW75099  14.647   8.261   9.084
24401SOL    HW175100  14.565   8.213   9.085
24401SOL    HW275101  14.623   8.351   9.103
24402SOL     OW75102   9.928   4.824   0.384
24402SOL    HW175103   9.881   4.757   0.435
24402SOL    HW275104   9.866   4.847   0.314
24403SOL     OW75105  10.755  12.065  11.884
24403SOL    HW175106  10.716  12.099  11.964
24403SOL    HW275107  10.841  12.107  11.880
24404SOL     OW75108   2.264   1.113  13.913
24404SOL    HW175109   2.347   1.161  13.921
24404SOL    HW275110   2.197   1.174  13.944
24405SOL     OW75111  12.147  13.464  10.949
24405SOL    HW175112  12.150  13.558  10.928
24405SOL    HW275113  12.209  13.454  11.021
24406SOL     OW75114   7.812   4.999   7.740
24406SOL    HW175115   7.721   5.031   7.746
24406SOL    HW275116   7.865   5.072   7.771
24407SOL     OW75117   8.366  11.762   3.195
24407SOL    HW175118   8.362  11.719   3.280
24407SOL    HW275119   8.453  11.803   3.193
24408SOL     OW75120   6.165  13.208  13.350
24408SOL    HW175121   6.115  13.237  13.426
24408SOL    HW275122   6.139  13.117  13.337
24409SOL     OW75123  10.127  14.767  10.569
24409SOL    HW175124  10.050  14.725  10.529
24409SOL    HW275125  10.104  14.776  10.661
24410SOL     OW75126   3.158   9.848  13.999
24410SOL    HW175127   3.216   9.883  13.931
24410SOL    HW275128   3.215   9.833  14.074
24411SOL     OW75129   2.594   0.294  14.677
24411SOL    HW175130   2.652   0.286  14.601
24411SOL    HW275131   2.653   0.310  14.751
24412SOL     OW75132   1.983  11.439   5.913
24412SOL    HW175133   1.910  11.377   5.910
24412SOL    HW275134   1.948  11.519   5.874
24413SOL     OW75135  10.065   6.843   6.266
24413SOL    HW175136   9.974   6.824   6.245
24413SOL    HW275137  10.062   6.924   6.317
24414SOL     OW75138   9.224   5.903   5.466
24414SOL    HW175139   9.192   5.850   5.539
24414SOL    HW275140   9.149   5.958   5.441
24415SOL     OW75141   2.111   4.424   6.477
24415SOL    HW175142   2.133   4.366   6.404
24415SOL    HW275143   2.151   4.382   6.553
24416SOL     OW75144  13.775  12.897   3.573
24416SOL    HW175145  13.762  12.807   3.541
24416SOL    HW275146  13.869  12.903   3.591
24417SOL     OW75147   2.107   8.338  10.190
24417SOL    HW175148   2.082   8.320  10.281
24417SOL    HW275149   2.024   8.345  10.143
24418SOL     OW75150   9.511  12.411  12.308
24418SOL    HW175151   9.588  12.463  12.286
24418SOL    HW275152   9.441  12.476  12.317
24419SOL     OW75153   9.638   7.895   1.107
24419SOL    HW175154   9.723   7.907   1.065
24419SOL    HW275155   9.574   7.918   1.038
24420SOL     OW75156  12.471  12.244   6.791
24420SOL    HW175157  12.409  12.248   6.719
24420SOL    HW275158  12.473  12.151   6.816
24421SOL     OW75159   9.254   4.017   4.722
24421SOL    HW175160   9.247   4.000   4.816
24421SOL    HW275161   9.164   4.010   4.690
24422SOL     OW75162   3.820  10.778   5.516
24422SOL    HW175163   3.835  10.851   5.577
24422SOL    HW275164   3.771  10.714   5.567
24423SOL     OW75165  10.217   2.217   8.969
24423SOL    HW175166  10.242   2.192   8.880
24423SOL    HW275167  10.255   2.305   8.981
24424SOL     OW75168  10.549   6.121   6.571
24424SOL    HW175169  10.555   6.118   6.476
24424SOL    HW275170  10.507   6.204   6.590
24425SOL     OW75171   3.032  11.104   0.295
24425SOL    HW175172   3.073  11.064   0.218
24425SOL    HW275173   2.989  11.031   0.339
24426SOL     OW75174   2.098  12.985   2.131
24426SOL    HW175175   2.123  13.034   2.053
24426SOL    HW275176   2.167  13.003   2.194
24427SOL     OW75177  13.102   1.245  10.212
24427SOL    HW175178  13.197   1.242  10.200
24427SOL    HW275179  13.071   1.161  10.177
24428SOL     OW75180  11.694  13.693  12.428
24428SOL    HW175181  11.749  13.740  12.491
24428SOL    HW275182  11.610  13.740  12.430
24429SOL     OW75183   4.795   4.981   6.680
24429SOL    HW175184   4.867   4.984   6.618
24429SOL    HW275185   4.828   4.930   6.753
24430SOL     OW75186   8.651   7.991  12.839
24430SOL    HW175187   8.744   7.987  12.859
24430SOL    HW275188   8.608   7.978  12.924
24431SOL     OW75189   6.250   6.383  11.046
24431SOL    HW175190   6.290   6.346  10.968
24431SOL    HW275191   6.323   6.423  11.094
24432SOL     OW75192   8.742   3.232  13.545
24432SOL    HW175193   8.647   3.234  13.543
24432SOL    HW275194   8.766   3.163  13.483
24433SOL     OW75195   6.691   4.864  12.915
24433SOL    HW175196   6.762   4.883  12.977
24433SOL    HW275197   6.688   4.768  12.911
24434SOL     OW75198   8.476   4.741   6.359
24434SOL    HW175199   8.496   4.785   6.277
24434SOL    HW275200   8.381   4.729   6.358
24435SOL     OW75201   8.444   8.071   7.018
24435SOL    HW175202   8.453   8.139   6.951
24435SOL    HW275203   8.448   8.117   7.101
24436SOL     OW75204  11.607  11.817   7.807
24436SOL    HW175205  11.675  11.884   7.809
24436SOL    HW275206  11.525  11.865   7.795
24437SOL     OW75207   5.855   5.739   8.787
24437SOL    HW175208   5.937   5.775   8.753
24437SOL    HW275209   5.830   5.671   8.724
24438SOL     OW75210   3.040  14.587   6.071
24438SOL    HW175211   3.128  14.622   6.057
24438SOL    HW275212   3.052  14.492   6.073
24439SOL     OW75213   3.665   2.767   0.974
24439SOL    HW175214   3.719   2.825   1.028
24439SOL    HW275215   3.726   2.702   0.940
24440SOL     OW75216   1.093   5.394  13.335
24440SOL    HW175217   1.188   5.383  13.332
24440SOL    HW275218   1.076   5.435  13.419
24441SOL     OW75219   3.938  11.814   5.805
24441SOL    HW175220   3.991  11.796   5.883
24441SOL    HW275221   3.887  11.734   5.792
24442SOL     OW75222   5.542   1.226   6.517
24442SOL    HW175223   5.623   1.273   6.538
24442SOL    HW275224   5.569   1.154   6.461
24443SOL     OW75225   6.691   5.823   8.225
24443SOL    HW175226   6.723   5.740   8.262
24443SOL    HW275227   6.603   5.833   8.262
24444SOL     OW75228  12.570  12.968  10.014
24444SOL    HW175229  12.583  12.902   9.946
24444SOL    HW275230  12.648  13.024  10.008
24445SOL     OW75231   0.038  10.004   6.268
24445SOL    HW175232   0.080   9.994   6.353
24445SOL    HW275233  14.863  10.080   6.280
24446SOL     OW75234   8.166   1.833   7.377
24446SOL    HW175235   8.239   1.890   7.398
24446SOL    HW275236   8.088   1.881   7.406
24447SOL     OW75237   9.614   2.750   1.248
24447SOL    HW175238   9.699   2.711   1.266
24447SOL    HW275239   9.602   2.742   1.154
24448SOL     OW75240   3.497   3.009   2.172
24448SOL    HW175241   3.445   3.080   2.210
24448SOL    HW275242   3.530   2.960   2.248
24449SOL     OW75243  12.627  14.879   3.398
24449SOL    HW175244  12.694  14.868   3.330
24449SOL    HW275245  12.615   0.091   3.404
24450SOL     OW75246   2.882   3.919  10.689
24450SOL    HW175247   2.950   3.869  10.643
24450SOL    HW275248   2.922   3.945  10.771
24451SOL     OW75249  13.807   7.517  10.388
24451SOL    HW175250  13.836   7.608  10.391
24451SOL    HW275251  13.786   7.495  10.479
24452SOL     OW75252   4.688   4.605   4.965
24452SOL    HW175253   4.639   4.649   4.895
24452SOL    HW275254   4.777   4.595   4.930
24453SOL     OW75255   1.611   0.801   5.245
24453SOL    HW175256   1.633   0.832   5.157
24453SOL    HW275257   1.693   0.764   5.278
24454SOL     OW75258  14.749   7.770   8.988
24454SOL    HW175259  14.773   7.832   8.920
24454SOL    HW275260  14.810   7.697   8.976
24455SOL     OW75261  13.821  13.152   7.100
24455SOL    HW175262  13.852  13.235   7.063
24455SOL    HW275263  13.883  13.132   7.169
24456SOL     OW75264   0.273   7.314   3.669
24456SOL    HW175265   0.288   7.252   3.598
24456SOL    HW275266   0.345   7.298   3.730
24457SOL     OW75267   1.089   4.963   5.212
24457SOL    HW175268   1.087   5.058   5.226
24457SOL    HW275269   1.000   4.933   5.233
24458SOL     OW75270   9.779   1.822   2.573
24458SOL    HW175271   9.746   1.751   2.628
24458SOL    HW275272   9.860   1.788   2.534
24459SOL     OW75273   8.492  13.084   6.817
24459SOL    HW175274   8.532  13.123   6.740
24459SOL    HW275275   8.528  13.134   6.891
24460SOL     OW75276   6.587   7.442   3.015
24460SOL    HW175277   6.579   7.383   3.090
24460SOL    HW275278   6.538   7.399   2.945
24461SOL     OW75279  11.260   7.007   3.527
24461SOL    HW175280  11.239   6.914   3.518
24461SOL    HW275281  11.215   7.033   3.608
24462SOL     OW75282  11.870   6.021   1.434
24462SOL    HW175283  11.943   5.967   1.464
24462SOL    HW275284  11.813   5.961   1.387
24463SOL     OW75285  10.872   7.267   2.964
24463SOL    HW175286  10.834   7.181   2.982
24463SOL    HW275287  10.816   7.329   3.011
24464SOL     OW75288   8.830  13.857   3.738
24464SOL    HW175289   8.867  13.774   3.709
24464SOL    HW275290   8.870  13.874   3.823
24465SOL     OW75291  10.651   8.477   5.088
24465SOL    HW175292  10.722   8.479   5.023
24465SOL    HW275293  10.669   8.400   5.141
24466SOL     OW75294   6.110  10.317   1.473
24466SOL    HW175295   6.087  10.241   1.419
24466SOL    HW275296   6.092  10.290   1.563
24467SOL     OW75297  10.843  14.023  11.325
24467SOL    HW175298  10.854  13.931  11.348
24467SOL    HW275299  10.808  14.021  11.236
24468SOL     OW75300  10.447   1.401   1.788
24468SOL    HW175301  10.492   1.354   1.858
24468SOL    HW275302  10.515   1.418   1.723
24469SOL     OW75303   4.822   7.811   7.598
24469SOL    HW175304   4.788   7.873   7.534
24469SOL    HW275305   4.877   7.864   7.656
24470SOL     OW75306   2.142   2.038   4.933
24470SOL    HW175307   2.072   2.060   4.871
24470SOL    HW275308   2.222   2.037   4.880
24471SOL     OW75309   7.252   3.389   3.846
24471SOL    HW175310   7.337   3.409   3.884
24471SOL    HW275311   7.236   3.461   3.784
24472SOL     OW75312   3.830  10.574   9.895
24472SOL    HW175313   3.742  10.585   9.861
24472SOL    HW275314   3.862  10.664   9.909
24473SOL     OW75315   8.309   6.771  12.636
24473SOL    HW175316   8.279   6.680  12.639
24473SOL    HW275317   8.235   6.822  12.667
24474SOL     OW75318   8.657   8.994   7.945
24474SOL    HW175319   8.635   8.961   7.858
24474SOL    HW275320   8.679   9.085   7.932
24475SOL     OW75321   0.095   8.347   3.283
24475SOL    HW175322   0.084   8.364   3.377
24475SOL    HW275323   0.189   8.360   3.267
24476SOL     OW75324   9.788   5.229  11.628
24476SOL    HW175325   9.816   5.139  11.648
24476SOL    HW275326   9.703   5.219  11.586
24477SOL     OW75327   5.585   2.637  11.566
24477SOL    HW175328   5.511   2.669  11.617
24477SOL    HW275329   5.550   2.561  11.519
24478SOL     OW75330   9.335   2.844  14.725
24478SOL    HW175331   9.419   2.859  14.682
24478SOL    HW275332   9.356   2.838  14.818
24479SOL     OW75333   1.459   3.733  11.278
24479SOL    HW175334   1.369   3.750  11.304
24479SOL    HW275335   1.473   3.789  11.202
24480SOL     OW75336   0.314   2.828   1.870
24480SOL    HW175337   0.333   2.920   1.854
24480SOL    HW275338   0.344   2.813   1.960
24481SOL     OW75339   8.416  10.880  14.102
24481SOL    HW175340   8.473  10.852  14.030
24481SOL    HW275341   8.464  10.854  14.181
24482SOL     OW75342   8.467   8.215  12.531
24482SOL    HW175343   8.446   8.187  12.442
24482SOL    HW275344   8.430   8.303  12.538
24483SOL     OW75345  14.247   0.791  10.400
24483SOL    HW175346  14.218   0.751  10.482
24483SOL    HW275347  14.166   0.807  10.351
24484SOL     OW75348  13.749  10.548   1.987
24484SOL    HW175349  13.797  10.584   1.912
24484SOL    HW275350  13.800  10.472   2.014
24485SOL     OW75351   8.182  11.872   9.285
24485SOL    HW175352   8.156  11.956   9.321
24485SOL    HW275353   8.102  11.820   9.285
24486SOL     OW75354  11.628   3.127  11.501
24486SOL    HW175355  11.713   3.118  11.460
24486SOL    HW275356  11.630   3.067  11.576
24487SOL     OW75357  10.440  14.787   4.824
24487SOL    HW175358  10.431  14.824   4.736
24487SOL    HW275359  10.455  14.693   4.809
24488SOL     OW75360  12.846   8.733  11.863
24488SOL    HW175361  12.902   8.808  11.843
24488SOL    HW275362  12.904   8.672  11.910
24489SOL     OW75363   3.335   1.110   7.980
24489SOL    HW175364   3.362   1.126   7.889
24489SOL    HW275365   3.408   1.142   8.032
24490SOL     OW75366   4.680   6.038  12.522
24490SOL    HW175367   4.699   6.108  12.584
24490SOL    HW275368   4.757   5.981  12.525
24491SOL     OW75369   4.794   3.644   2.024
24491SOL    HW175370   4.838   3.715   2.071
24491SOL    HW275371   4.701   3.658   2.041
24492SOL     OW75372  10.774   8.212  12.381
24492SOL    HW175373  10.686   8.173  12.378
24492SOL    HW275374  10.779   8.265  12.301
24493SOL     OW75375  11.784   3.655   9.808
24493SOL    HW175376  11.853   3.697   9.860
24493SOL    HW275377  11.823   3.573   9.778
24494SOL     OW75378  12.862   1.922   4.666
24494SOL    HW175379  12.858   1.850   4.602
24494SOL    HW275380  12.858   1.879   4.751
24495SOL     OW75381  12.832   5.534  11.834
24495SOL    HW175382  12.769   5.499  11.897
24495SOL    HW275383  12.894   5.463  11.819
24496SOL     OW75384   4.101   2.430   5.164
24496SOL    HW175385   4.107   2.441   5.259
24496SOL    HW275386   4.029   2.487   5.138
24497SOL     OW75387   0.992   6.742   0.320
24497SOL    HW175388   1.041   6.737   0.237
24497SOL    HW275389   0.932   6.815   0.308
24498SOL     OW75390   0.560  11.355  11.060
24498SOL    HW175391   0.605  11.275  11.088
24498SOL    HW275392   0.506  11.380  11.135
24499SOL     OW75393   0.084   3.349  13.848
24499SOL    HW175394   0.057   3.265  13.884
24499SOL    HW275395   0.023   3.413  13.886
24500SOL     OW75396  10.502   4.207   6.112
24500SOL    HW175397  10.472   4.118   6.092
24500SOL    HW275398  10.592   4.209   6.079
24501SOL     OW75399  11.346   8.090   5.821
24501SOL    HW175400  11.330   8.150   5.893
24501SOL    HW275401  11.292   8.014   5.839
24502SOL     OW75402   6.138   7.323  13.728
24502SOL    HW175403   6.156   7.392  13.792
24502SOL    HW275404   6.075   7.266  13.772
24503SOL     OW75405   3.501   9.676   5.234
24503SOL    HW175406   3.488   9.764   5.198
24503SOL    HW275407   3.522   9.691   5.326
24504SOL     OW75408  13.886  13.353   0.909
24504SOL    HW175409  13.924  13.423   0.961
24504SOL    HW275410  13.862  13.394   0.826
24505SOL     OW75411  11.542  12.193   6.522
24505SOL    HW175412  11.451  12.186   6.549
24505SOL    HW275413  11.551  12.282   6.489
24506SOL     OW75414   9.763   6.070  13.417
24506SOL    HW175415   9.733   6.147  13.465
24506SOL    HW275416   9.698   6.002  13.438
24507SOL     OW75417   8.726   4.029   1.610
24507SOL    HW175418   8.707   3.941   1.577
24507SOL    HW275419   8.820   4.040   1.595
24508SOL     OW75420   6.157   6.539  14.476
24508SOL    HW175421   6.234   6.539  14.532
24508SOL    HW275422   6.126   6.629  14.475
24509SOL     OW75423   3.003  14.508   6.443
24509SOL    HW175424   3.006  14.412   6.441
24509SOL    HW275425   2.909  14.528   6.449
24510SOL     OW75426  14.562  13.177  12.826
24510SOL    HW175427  14.484  13.214  12.783
24510SOL    HW275428  14.536  13.169  12.918
24511SOL     OW75429  12.994  12.457   6.592
24511SOL    HW175430  12.969  12.387   6.531
24511SOL    HW275431  12.982  12.418   6.679
24512SOL     OW75432   4.584   0.465   5.879
24512SOL    HW175433   4.655   0.483   5.818
24512SOL    HW275434   4.510   0.440   5.823
24513SOL     OW75435   2.728   4.607   1.655
24513SOL    HW175436   2.773   4.649   1.727
24513SOL    HW275437   2.779   4.630   1.577
24514SOL     OW75438  10.601   3.315   6.071
24514SOL    HW175439  10.639   3.230   6.093
24514SOL    HW275440  10.508   3.307   6.094
24515SOL     OW75441   5.016   0.634   1.732
24515SOL    HW175442   4.982   0.705   1.786
24515SOL    HW275443   5.111   0.642   1.739
24516SOL     OW75444   0.477   6.552   8.284
24516SOL    HW175445   0.533   6.606   8.228
24516SOL    HW275446   0.388   6.576   8.258
24517SOL     OW75447  14.188   3.871  11.386
24517SOL    HW175448  14.175   3.941  11.323
24517SOL    HW275449  14.119   3.808  11.366
24518SOL     OW75450   4.994  11.362   1.422
24518SOL    HW175451   5.085  11.386   1.438
24518SOL    HW275452   4.959  11.342   1.509
24519SOL     OW75453   3.809   4.041   7.489
24519SOL    HW175454   3.780   4.003   7.572
24519SOL    HW275455   3.740   4.017   7.427
24520SOL     OW75456  13.842  11.912   1.827
24520SOL    HW175457  13.860  12.006   1.828
24520SOL    HW275458  13.857  11.885   1.736
24521SOL     OW75459   1.968   7.999  14.729
24521SOL    HW175460   2.049   8.042  14.701
24521SOL    HW275461   1.994   7.910  14.750
24522SOL     OW75462   2.533   8.918  14.454
24522SOL    HW175463   2.517   8.826  14.474
24522SOL    HW275464   2.625   8.933  14.478
24523SOL     OW75465   5.101   2.025   8.736
24523SOL    HW175466   5.179   1.989   8.778
24523SOL    HW275467   5.038   2.034   8.807
24524SOL     OW75468  14.589  12.437  14.625
24524SOL    HW175469  14.620  12.517  14.582
24524SOL    HW275470  14.651  12.422  14.695
24525SOL     OW75471   7.161  10.499   0.106
24525SOL    HW175472   7.160  10.584   0.062
24525SOL    HW275473   7.160  10.435   0.035
24526SOL     OW75474   2.009   0.327  11.026
24526SOL    HW175475   1.986   0.372  10.944
24526SOL    HW275476   2.034   0.398  11.086
24527SOL     OW75477   3.727   6.549  11.383
24527SOL    HW175478   3.703   6.634  11.419
24527SOL    HW275479   3.812   6.563  11.341
24528SOL     OW75480  12.120   3.787  14.859
24528SOL    HW175481  12.155   3.854   0.035
24528SOL    HW275482  12.049   3.830  14.812
24529SOL     OW75483  14.710   7.194   5.407
24529SOL    HW175484  14.745   7.251   5.338
24529SOL    HW275485  14.655   7.252   5.460
24530SOL     OW75486  11.649   8.096   9.421
24530SOL    HW175487  11.589   8.046   9.365
24530SOL    HW275488  11.630   8.064   9.509
24531SOL     OW75489   6.052  12.165  12.588
24531SOL    HW175490   6.100  12.242  12.619
24531SOL    HW275491   6.025  12.119  12.668
24532SOL     OW75492   8.254   9.254   3.070
24532SOL    HW175493   8.268   9.180   3.129
24532SOL    HW275494   8.187   9.307   3.113
24533SOL     OW75495   4.760   2.892   4.364
24533SOL    HW175496   4.681   2.869   4.415
24533SOL    HW275497   4.774   2.985   4.382
24534SOL     OW75498   0.890  13.822   0.906
24534SOL    HW175499   0.968  13.846   0.955
24534SOL    HW275500   0.863  13.738   0.943
24535SOL     OW75501  10.816   7.626   0.879
24535SOL    HW175502  10.886   7.594   0.935
24535SOL    HW275503  10.854   7.703   0.836
24536SOL     OW75504   0.640   6.534   2.689
24536SOL    HW175505   0.639   6.523   2.594
24536SOL    HW275506   0.700   6.467   2.721
24537SOL     OW75507   9.142  13.849  11.045
24537SOL    HW175508   9.169  13.767  11.086
24537SOL    HW275509   9.126  13.826  10.953
24538SOL     OW75510   5.289  10.592   7.981
24538SOL    HW175511   5.286  10.681   8.015
24538SOL    HW275512   5.378  10.582   7.947
24539SOL     OW75513   3.294   8.539  14.316
24539SOL    HW175514   3.255   8.483  14.248
24539SOL    HW275515   3.247   8.514  14.396
24540SOL     OW75516   0.274   4.824   3.928
24540SOL    HW175517   0.336   4.889   3.895
24540SOL    HW275518   0.188   4.865   3.918
24541SOL     OW75519   6.288   7.039  10.094
24541SOL    HW175520   6.220   7.106  10.101
24541SOL    HW275521   6.353   7.062  10.160
24542SOL     OW75522  11.952   2.383  13.869
24542SOL    HW175523  12.014   2.445  13.908
24542SOL    HW275524  11.886   2.368  13.937
24543SOL     OW75525  14.506  10.199  12.899
24543SOL    HW175526  14.472  10.286  12.920
24543SOL    HW275527  14.448  10.165  12.832
24544SOL     OW75528  14.561   9.637   9.350
24544SOL    HW175529  14.505   9.567   9.315
24544SOL    HW275530  14.639   9.636   9.294
24545SOL     OW75531   8.909  11.532   1.341
24545SOL    HW175532   8.861  11.609   1.312
24545SOL    HW275533   8.962  11.562   1.415
24546SOL     OW75534   2.961   0.802   9.533
24546SOL    HW175535   3.027   0.733   9.532
24546SOL    HW275536   2.897   0.773   9.598
24547SOL     OW75537   1.098   7.633   4.680
24547SOL    HW175538   1.109   7.668   4.591
24547SOL    HW275539   1.004   7.617   4.688
24548SOL     OW75540  14.144   2.800   8.424
24548SOL    HW175541  14.078   2.760   8.368
24548SOL    HW275542  14.095   2.833   8.499
24549SOL     OW75543  11.651  13.225   6.308
24549SOL    HW175544  11.684  13.261   6.391
24549SOL    HW275545  11.658  13.297   6.246
24550SOL     OW75546   7.291   1.731  12.594
24550SOL    HW175547   7.215   1.701  12.643
24550SOL    HW275548   7.347   1.772  12.659
24551SOL     OW75549   0.579   4.861   1.745
24551SOL    HW175550   0.581   4.776   1.790
24551SOL    HW275551   0.614   4.842   1.658
24552SOL     OW75552   9.994  11.268   2.373
24552SOL    HW175553  10.001  11.202   2.304
24552SOL    HW275554   9.900  11.280   2.386
24553SOL     OW75555  10.828   7.612   6.734
24553SOL    HW175556  10.892   7.550   6.699
24553SOL    HW275557  10.879   7.689   6.759
24554SOL     OW75558  11.395  13.374   6.037
24554SOL    HW175559  11.466  13.312   6.052
24554SOL    HW275560  11.317  13.330   6.073
24555SOL     OW75561   2.525   3.839   5.322
24555SOL    HW175562   2.434   3.811   5.306
24555SOL    HW275563   2.557   3.864   5.235
24556SOL     OW75564   7.757  10.592   8.707
24556SOL    HW175565   7.792  10.677   8.734
24556SOL    HW275566   7.827  10.552   8.656
24557SOL     OW75567  14.292   6.564  10.255
24557SOL    HW175568  14.260   6.564  10.345
24557SOL    HW275569  14.226   6.514  10.206
24558SOL     OW75570  14.789  13.052  13.503
24558SOL    HW175571  14.696  13.077  13.499
24558SOL    HW275572  14.788  12.958  13.521
24559SOL     OW75573   5.002   1.430   6.655
24559SOL    HW175574   4.984   1.368   6.584
24559SOL    HW275575   5.004   1.377   6.734
24560SOL     OW75576   2.234   9.900   8.091
24560SOL    HW175577   2.166   9.966   8.080
24560SOL    HW275578   2.188   9.816   8.084
24561SOL     OW75579   5.687  12.610   1.982
24561SOL    HW175580   5.767  12.634   2.030
24561SOL    HW275581   5.640  12.693   1.972
24562SOL     OW75582   1.276   8.288   8.488
24562SOL    HW175583   1.371   8.294   8.490
24562SOL    HW275584   1.258   8.207   8.441
24563SOL     OW75585   6.959   5.837   2.453
24563SOL    HW175586   6.938   5.854   2.545
24563SOL    HW275587   6.945   5.743   2.443
24564SOL     OW75588   8.129  12.966   0.900
24564SOL    HW175589   8.194  13.015   0.850
24564SOL    HW275590   8.154  12.979   0.991
24565SOL     OW75591   8.049  11.192  14.471
24565SOL    HW175592   8.135  11.197  14.429
24565SOL    HW275593   8.035  11.098  14.486
24566SOL     OW75594   9.006   0.303  14.531
24566SOL    HW175595   8.964   0.311  14.446
24566SOL    HW275596   8.934   0.296  14.594
24567SOL     OW75597   7.822  13.969  13.344
24567SOL    HW175598   7.898  13.920  13.375
24567SOL    HW275599   7.825  13.959  13.249
24568SOL     OW75600   0.952   6.409   1.957
24568SOL    HW175601   0.978   6.443   2.042
24568SOL    HW275602   1.033   6.382   1.915
24569SOL     OW75603  13.023  14.451   2.397
24569SOL    HW175604  13.009  14.393   2.471
24569SOL    HW275605  12.941  14.499   2.388
24570SOL     OW75606  14.397   9.304   4.690
24570SOL    HW175607  14.487   9.297   4.658
24570SOL    HW275608  14.346   9.326   4.612
24571SOL     OW75609  10.829   7.222   4.358
24571SOL    HW175610  10.801   7.271   4.435
24571SOL    HW275611  10.855   7.289   4.295
24572SOL     OW75612   8.592   2.880   8.624
24572SOL    HW175613   8.533   2.804   8.624
24572SOL    HW275614   8.654   2.860   8.554
24573SOL     OW75615   7.496   5.844   8.500
24573SOL    HW175616   7.574   5.887   8.465
24573SOL    HW275617   7.443   5.824   8.423
24574SOL     OW75618   6.345   9.615   5.546
24574SOL    HW175619   6.359   9.567   5.628
24574SOL    HW275620   6.365   9.706   5.569
24575SOL     OW75621   4.531  11.566   4.109
24575SOL    HW175622   4.535  11.650   4.153
24575SOL    HW275623   4.616  11.558   4.065
24576SOL     OW75624   8.691  14.846   7.671
24576SOL    HW175625   8.767  14.789   7.667
24576SOL    HW275626   8.711   0.026   7.741
24577SOL     OW75627  12.606   4.521   4.790
24577SOL    HW175628  12.625   4.536   4.698
24577SOL    HW275629  12.514   4.496   4.793
24578SOL     OW75630  10.463   0.053   1.535
24578SOL    HW175631  10.485   0.037   1.627
24578SOL    HW275632  10.399   0.124   1.538
24579SOL     OW75633  13.713   6.523   5.291
24579SOL    HW175634  13.791   6.565   5.255
24579SOL    HW275635  13.731   6.512   5.384
24580SOL     OW75636  13.421   4.162  10.550
24580SOL    HW175637  13.494   4.124  10.500
24580SOL    HW275638  13.343   4.125  10.510
24581SOL     OW75639   8.076   4.815   0.532
24581SOL    HW175640   8.100   4.791   0.621
24581SOL    HW275641   8.013   4.747   0.506
24582SOL     OW75642   2.074   1.179   4.089
24582SOL    HW175643   2.067   1.114   4.019
24582SOL    HW275644   2.146   1.236   4.063
24583SOL     OW75645  12.155  11.797  11.886
24583SOL    HW175646  12.113  11.711  11.893
24583SOL    HW275647  12.084  11.857  11.865
24584SOL     OW75648   0.490   9.245  11.911
24584SOL    HW175649   0.515   9.337  11.897
24584SOL    HW275650   0.465   9.240  12.003
24585SOL     OW75651  10.162  10.053   0.804
24585SOL    HW175652  10.138  10.064   0.712
24585SOL    HW275653  10.254  10.081   0.808
24586SOL     OW75654   4.948   8.913   4.484
24586SOL    HW175655   5.038   8.885   4.500
24586SOL    HW275656   4.951   9.009   4.491
24587SOL     OW75657  13.351   6.496  13.589
24587SOL    HW175658  13.333   6.585  13.558
24587SOL    HW275659  13.403   6.509  13.669
24588SOL     OW75660   6.325   3.804   7.703
24588SOL    HW175661   6.238   3.803   7.663
24588SOL    HW275662   6.337   3.715   7.736
24589SOL     OW75663  12.146  14.780   5.310
24589SOL    HW175664  12.088  14.799   5.384
24589SOL    HW275665  12.174  14.867   5.279
24590SOL     OW75666   0.247  13.792   7.147
24590SOL    HW175667   0.239  13.721   7.211
24590SOL    HW275668   0.169  13.783   7.092
24591SOL     OW75669   6.714   0.877   9.254
24591SOL    HW175670   6.797   0.829   9.250
24591SOL    HW275671   6.654   0.828   9.199
24592SOL     OW75672   7.193   4.864  10.950
24592SOL    HW175673   7.104   4.831  10.958
24592SOL    HW275674   7.246   4.800  10.997
24593SOL     OW75675   2.177   4.653   1.890
24593SOL    HW175676   2.271   4.663   1.877
24593SOL    HW275677   2.141   4.649   1.801
24594SOL     OW75678   8.121  11.309   7.883
24594SOL    HW175679   8.136  11.393   7.839
24594SOL    HW275680   8.115  11.246   7.811
24595SOL     OW75681  14.783   9.482   6.755
24595SOL    HW175682  14.721   9.451   6.689
24595SOL    HW275683  14.790   9.409   6.817
24596SOL     OW75684   2.564  14.765   3.612
24596SOL    HW175685   2.636  14.706   3.634
24596SOL    HW275686   2.515  14.720   3.543
24597SOL     OW75687  14.521   5.004  13.743
24597SOL    HW175688  14.486   5.088  13.771
24597SOL    HW275689  14.519   5.008  13.647
24598SOL     OW75690   7.577   7.538   6.431
24598SOL    HW175691   7.527   7.492   6.498
24598SOL    HW275692   7.512   7.593   6.387
24599SOL     OW75693   3.748   4.844   9.967
24599SOL    HW175694   3.756   4.940   9.965
24599SOL    HW275695   3.828   4.812   9.925
24600SOL     OW75696   7.887   3.683   9.668
24600SOL    HW175697   7.933   3.605   9.638
24600SOL    HW275698   7.945   3.756   9.645
24601SOL     OW75699  12.340   0.869   7.718
24601SOL    HW175700  12.387   0.924   7.781
24601SOL    HW275701  12.329   0.785   7.762
24602SOL     OW75702   4.129   9.553  11.448
24602SOL    HW175703   4.148   9.497  11.373
24602SOL    HW275704   4.134   9.494  11.524
24603SOL     OW75705  13.052   4.200   8.068
24603SOL    HW175706  13.114   4.135   8.035
24603SOL    HW275707  12.973   4.150   8.088
24604SOL     OW75708   7.767   6.489   3.979
24604SOL    HW175709   7.686   6.539   3.987
24604SOL    HW275710   7.824   6.525   4.047
24605SOL     OW75711  10.174   9.603   0.979
24605SOL    HW175712  10.239   9.673   0.979
24605SOL    HW275713  10.111   9.628   0.912
24606SOL     OW75714   9.784   0.954   8.964
24606SOL    HW175715   9.752   0.977   9.052
24606SOL    HW275716   9.706   0.960   8.909
24607SOL     OW75717  11.378   8.727   5.776
24607SOL    HW175718  11.378   8.822   5.786
24607SOL    HW275719  11.384   8.712   5.682
24608SOL     OW75720   0.020  14.285  10.214
24608SOL    HW175721  14.851  14.328  10.145
24608SOL    HW275722   0.074  14.354  10.251
24609SOL     OW75723   6.993  11.016   2.087
24609SOL    HW175724   6.959  10.949   2.146
24609SOL    HW275725   6.921  11.080   2.081
24610SOL     OW75726  13.229   2.858   3.659
24610SOL    HW175727  13.255   2.948   3.643
24610SOL    HW275728  13.206   2.856   3.752
24611SOL     OW75729   7.761  10.142   7.917
24611SOL    HW175730   7.710  10.066   7.890
24611SOL    HW275731   7.813  10.164   7.840
24612SOL     OW75732   4.866  12.770  12.311
24612SOL    HW175733   4.779  12.806  12.330
24612SOL    HW275734   4.864  12.751  12.217
24613SOL     OW75735  12.215   0.967  12.652
24613SOL    HW175736  12.160   1.045  12.640
24613SOL    HW275737  12.226   0.932  12.563
24614SOL     OW75738  14.636  10.895   8.080
24614SOL    HW175739  14.690  10.817   8.068
24614SOL    HW275740  14.551  10.872   8.042
24615SOL     OW75741  11.525   2.500   1.535
24615SOL    HW175742  11.432   2.517   1.546
24615SOL    HW275743  11.557   2.485   1.624
24616SOL     OW75744  12.991  14.743   3.027
24616SOL    HW175745  13.052  14.711   3.093
24616SOL    HW275746  13.032  14.720   2.943
24617SOL     OW75747   4.913   9.864  11.629
24617SOL    HW175748   4.927   9.818  11.547
24617SOL    HW275749   4.977   9.935  11.629
24618SOL     OW75750   0.919  13.823  14.733
24618SOL    HW175751   0.962  13.842  14.650
24618SOL    HW275752   0.902  13.729  14.731
24619SOL     OW75753   5.020   9.050   1.475
24619SOL    HW175754   5.086   8.980   1.480
24619SOL    HW275755   5.032   9.099   1.556
24620SOL     OW75756  14.596   0.077   0.372
24620SOL    HW175757  14.544   0.128   0.311
24620SOL    HW275758  14.565  14.870   0.362
24621SOL     OW75759  11.962  12.419   2.103
24621SOL    HW175760  11.981  12.506   2.067
24621SOL    HW275761  11.991  12.358   2.036
24622SOL     OW75762  13.074   3.042  11.526
24622SOL    HW175763  13.015   2.996  11.585
24622SOL    HW275764  13.043   3.133  11.526
24623SOL     OW75765   0.233  14.819   5.039
24623SOL    HW175766   0.151  14.816   5.089
24623SOL    HW275767   0.252   0.030   5.029
24624SOL     OW75768   2.940   1.481  14.187
24624SOL    HW175769   2.891   1.535  14.125
24624SOL    HW275770   3.032   1.505  14.172
24625SOL     OW75771   9.612   8.616   2.239
24625SOL    HW175772   9.547   8.661   2.186
24625SOL    HW275773   9.576   8.617   2.328
24626SOL     OW75774  10.917   6.188   9.993
24626SOL    HW175775  10.852   6.121   9.975
24626SOL    HW275776  10.998   6.155   9.954
24627SOL     OW75777   4.726  10.681   0.636
24627SOL    HW175778   4.635  10.654   0.650
24627SOL    HW275779   4.776  10.631   0.700
24628SOL     OW75780  13.637   3.790  12.116
24628SOL    HW175781  13.693   3.739  12.058
24628SOL    HW275782  13.548   3.764  12.093
24629SOL     OW75783  10.712   9.175  10.384
24629SOL    HW175784  10.795   9.186  10.430
24629SOL    HW275785  10.736   9.138  10.299
24630SOL     OW75786   8.434   8.209   6.769
24630SOL    HW175787   8.468   8.272   6.706
24630SOL    HW275788   8.341   8.200   6.747
24631SOL     OW75789   6.444   3.936   0.194
24631SOL    HW175790   6.501   3.944   0.270
24631SOL    HW275791   6.451   4.020   0.149
24632SOL     OW75792   3.634   5.955  14.695
24632SOL    HW175793   3.574   6.029  14.705
24632SOL    HW275794   3.583   5.890  14.646
24633SOL     OW75795  10.855  14.056   3.176
24633SOL    HW175796  10.779  14.040   3.232
24633SOL    HW275797  10.825  14.033   3.088
24634SOL     OW75798   6.068   4.147  12.995
24634SOL    HW175799   6.019   4.068  13.016
24634SOL    HW275800   6.037   4.213  13.057
24635SOL     OW75801   7.937   8.052   3.359
24635SOL    HW175802   7.973   7.978   3.407
24635SOL    HW275803   8.005   8.074   3.294
24636SOL     OW75804  10.265  11.653   5.405
24636SOL    HW175805  10.250  11.680   5.315
24636SOL    HW275806  10.325  11.719   5.440
24637SOL     OW75807   2.986   5.201   1.714
24637SOL    HW175808   3.005   5.237   1.801
24637SOL    HW275809   3.072   5.190   1.674
24638SOL     OW75810  11.400   7.841   1.335
24638SOL    HW175811  11.412   7.748   1.320
24638SOL    HW275812  11.306   7.852   1.347
24639SOL     OW75813   2.437   6.778  11.154
24639SOL    HW175814   2.373   6.845  11.181
24639SOL    HW275815   2.421   6.705  11.213
24640SOL     OW75816   2.911   6.803   7.314
24640SOL    HW175817   2.957   6.850   7.383
24640SOL    HW275818   2.862   6.871   7.267
24641SOL     OW75819   1.291   9.248   2.642
24641SOL    HW175820   1.325   9.247   2.732
24641SOL    HW275821   1.364   9.217   2.588
24642SOL     OW75822  11.479   1.404   5.028
24642SOL    HW175823  11.574   1.418   5.027
24642SOL    HW275824  11.461   1.361   4.944
24643SOL     OW75825   4.644   8.622   5.532
24643SOL    HW175826   4.675   8.704   5.495
24643SOL    HW275827   4.716   8.561   5.518
24644SOL     OW75828   0.999   8.538   3.989
24644SOL    HW175829   0.934   8.520   4.057
24644SOL    HW275830   1.022   8.451   3.955
24645SOL     OW75831   9.159  10.160   6.763
24645SOL    HW175832   9.178  10.158   6.669
24645SOL    HW275833   9.244  10.164   6.805
24646SOL     OW75834   2.599  12.784   4.097
24646SOL    HW175835   2.504  12.780   4.100
24646SOL    HW275836   2.621  12.871   4.132
24647SOL     OW75837  13.777  11.961  11.073
24647SOL    HW175838  13.802  12.025  11.007
24647SOL    HW275839  13.802  12.002  11.156
24648SOL     OW75840   9.329  11.660  11.285
24648SOL    HW175841   9.344  11.585  11.226
24648SOL    HW275842   9.235  11.658  11.304
24649SOL     OW75843   1.233   1.851  14.593
24649SOL    HW175844   1.194   1.802  14.666
24649SOL    HW275845   1.227   1.791  14.519
24650SOL     OW75846   0.972   8.207  13.312
24650SOL    HW175847   0.975   8.229  13.219
24650SOL    HW275848   1.003   8.286  13.356
24651SOL     OW75849   5.768   4.185   9.159
24651SOL    HW175850   5.832   4.176   9.089
24651SOL    HW275851   5.814   4.157   9.238
24652SOL     OW75852  10.436   7.863   6.128
24652SOL    HW175853  10.452   7.941   6.182
24652SOL    HW275854  10.361   7.887   6.073
24653SOL     OW75855  12.282  10.453   0.973
24653SOL    HW175856  12.256  10.483   0.885
24653SOL    HW275857  12.219  10.494   1.032
24654SOL     OW75858  14.014   1.832  13.780
24654SOL    HW175859  13.993   1.902  13.719
24654SOL    HW275860  13.934   1.780  13.787
24655SOL     OW75861  11.493   8.567  11.710
24655SOL    HW175862  11.578   8.599  11.740
24655SOL    HW275863  11.513   8.481  11.671
24656SOL     OW75864   4.192   3.046   1.427
24656SOL    HW175865   4.177   2.952   1.417
24656SOL    HW275866   4.110   3.087   1.399
24657SOL     OW75867   1.913  14.139  13.070
24657SOL    HW175868   1.982  14.074  13.084
24657SOL    HW275869   1.920  14.198  13.145
24658SOL     OW75870   4.073   1.176   6.793
24658SOL    HW175871   4.023   1.240   6.843
24658SOL    HW275872   4.057   1.093   6.839
24659SOL     OW75873   3.421  12.154   5.914
24659SOL    HW175874   3.381  12.069   5.935
24659SOL    HW275875   3.401  12.167   5.821
24660SOL     OW75876   2.464   7.543  12.646
24660SOL    HW175877   2.443   7.584  12.730
24660SOL    HW275878   2.460   7.614  12.582
24661SOL     OW75879   0.537  12.805  10.176
24661SOL    HW175880   0.479  12.781  10.104
24661SOL    HW275881   0.623  12.773  10.149
24662SOL     OW75882   1.796   3.543   2.539
24662SOL    HW175883   1.733   3.486   2.583
24662SOL    HW275884   1.786   3.628   2.582
24663SOL     OW75885   1.017   0.261   0.850
24663SOL    HW175886   0.950   0.194   0.833
24663SOL    HW275887   0.988   0.337   0.799
24664SOL     OW75888  13.435   1.141   9.724
24664SOL    HW175889  13.380   1.064   9.710
24664SOL    HW275890  13.425   1.192   9.643
24665SOL     OW75891  14.580   4.367   4.158
24665SOL    HW175892  14.638   4.322   4.096
24665SOL    HW275893  14.534   4.297   4.203
24666SOL     OW75894  11.635  14.265   1.356
24666SOL    HW175895  11.543  14.279   1.331
24666SOL    HW275896  11.655  14.337   1.416
24667SOL     OW75897   4.805   2.249  12.302
24667SOL    HW175898   4.756   2.331  12.306
24667SOL    HW275899   4.896   2.275  12.313
24668SOL     OW75900   1.162   3.192  10.020
24668SOL    HW175901   1.154   3.104  10.057
24668SOL    HW275902   1.249   3.194   9.980
24669SOL     OW75903   5.005   4.392   2.485
24669SOL    HW175904   5.068   4.343   2.537
24669SOL    HW275905   4.920   4.356   2.510
24670SOL     OW75906  11.845  13.657  11.074
24670SOL    HW175907  11.864  13.564  11.070
24670SOL    HW275908  11.878  13.691  10.990
24671SOL     OW75909   5.856   1.196   1.365
24671SOL    HW175910   5.779   1.217   1.311
24671SOL    HW275911   5.890   1.115   1.329
24672SOL     OW75912   3.772   1.811   3.926
24672SOL    HW175913   3.753   1.904   3.910
24672SOL    HW275914   3.700   1.781   3.981
24673SOL     OW75915   5.390   1.462  13.932
24673SOL    HW175916   5.325   1.407  13.975
24673SOL    HW275917   5.341   1.541  13.907
24674SOL     OW75918   1.343   5.265   9.035
24674SOL    HW175919   1.281   5.290   8.967
24674SOL    HW275920   1.309   5.306   9.115
24675SOL     OW75921   1.838   2.246   0.312
24675SOL    HW175922   1.761   2.233   0.368
24675SOL    HW275923   1.832   2.176   0.247
24676SOL     OW75924   9.891   2.552  13.926
24676SOL    HW175925   9.943   2.508  13.858
24676SOL    HW275926   9.856   2.630  13.882
24677SOL     OW75927   5.040   1.840   7.490
24677SOL    HW175928   5.007   1.890   7.565
24677SOL    HW275929   4.968   1.782   7.465
24678SOL     OW75930  14.688  12.348  14.877
24678SOL    HW175931  14.705  12.255  14.865
24678SOL    HW275932  14.610  12.351   0.050
24679SOL     OW75933   7.543   0.827   3.849
24679SOL    HW175934   7.569   0.745   3.808
24679SOL    HW275935   7.603   0.892   3.813
24680SOL     OW75936   3.804  12.655   7.027
24680SOL    HW175937   3.806  12.610   6.943
24680SOL    HW275938   3.893  12.648   7.061
24681SOL     OW75939   7.707   0.084   4.059
24681SOL    HW175940   7.734   0.147   3.991
24681SOL    HW275941   7.788   0.041   4.084
24682SOL     OW75942   7.678  11.599  14.007
24682SOL    HW175943   7.771  11.608  13.984
24682SOL    HW275944   7.652  11.515  13.970
24683SOL     OW75945   3.719   1.935   1.463
24683SOL    HW175946   3.637   1.894   1.437
24683SOL    HW275947   3.774   1.929   1.384
24684SOL     OW75948   2.405   1.585   5.307
24684SOL    HW175949   2.320   1.628   5.316
24684SOL    HW275950   2.455   1.643   5.250
24685SOL     OW75951   8.288  11.998   5.523
24685SOL    HW175952   8.262  11.915   5.482
24685SOL    HW275953   8.331  11.972   5.605
24686SOL     OW75954  12.885  10.016   3.945
24686SOL    HW175955  12.906  10.071   3.870
24686SOL    HW275956  12.963   9.962   3.959
24687SOL     OW75957   9.648   9.037  10.601
24687SOL    HW175958   9.565   9.082  10.616
24687SOL    HW275959   9.624   8.962  10.545
24688SOL     OW75960   8.056   1.933   0.828
24688SOL    HW175961   8.123   1.935   0.759
24688SOL    HW275962   8.021   2.022   0.830
24689SOL     OW75963  12.560   1.224  10.227
24689SOL    HW175964  12.639   1.238  10.278
24689SOL    HW275965  12.568   1.285  10.153
24690SOL     OW75966   5.115   6.336   1.730
24690SOL    HW175967   5.119   6.276   1.656
24690SOL    HW275968   5.033   6.385   1.716
24691SOL     OW75969   4.982  11.568   3.653
24691SOL    HW175970   4.897  11.612   3.654
24691SOL    HW275971   4.960  11.475   3.642
24692SOL     OW75972  13.332   1.574   9.220
24692SOL    HW175973  13.406   1.524   9.253
24692SOL    HW275974  13.311   1.636   9.290
24693SOL     OW75975   1.453   6.047   9.580
24693SOL    HW175976   1.502   6.036   9.499
24693SOL    HW275977   1.419   5.960   9.599
24694SOL     OW75978   8.874   9.768   5.616
24694SOL    HW175979   8.912   9.845   5.657
24694SOL    HW275980   8.882   9.698   5.681
24695SOL     OW75981   7.740  12.242   3.202
24695SOL    HW175982   7.679  12.175   3.232
24695SOL    HW275983   7.736  12.311   3.268
24696SOL     OW75984   4.863   9.319   2.865
24696SOL    HW175985   4.789   9.376   2.888
24696SOL    HW275986   4.826   9.252   2.809
24697SOL     OW75987   2.711   1.793   9.243
24697SOL    HW175988   2.679   1.877   9.210
24697SOL    HW275989   2.778   1.767   9.180
24698SOL     OW75990   5.812   1.091   7.468
24698SOL    HW175991   5.738   1.045   7.510
24698SOL    HW275992   5.870   1.114   7.540
24699SOL     OW75993   2.951   9.105  13.465
24699SOL    HW175994   2.980   9.165  13.396
24699SOL    HW275995   2.858   9.092  13.449
24700SOL     OW75996  11.941   4.679  13.128
24700SOL    HW175997  11.920   4.703  13.037
24700SOL    HW275998  12.013   4.737  13.152
24701SOL     OW75999   1.808   8.729  10.215
24701SOL    HW176000   1.759   8.662  10.168
24701SOL    HW276001   1.899   8.700  10.210
24702SOL     OW76002  12.396   5.484   9.012
24702SOL    HW176003  12.386   5.421   8.940
24702SOL    HW276004  12.483   5.521   9.000
24703SOL     OW76005  14.007   6.387   9.139
24703SOL    HW176006  14.035   6.329   9.209
24703SOL    HW276007  14.030   6.475   9.170
24704SOL     OW76008   4.574  10.126   2.001
24704SOL    HW176009   4.548  10.112   1.910
24704SOL    HW276010   4.642  10.060   2.017
24705SOL     OW76011   1.833  10.594  12.340
24705SOL    HW176012   1.900  10.539  12.380
24705SOL    HW276013   1.754  10.577  12.393
24706SOL     OW76014  11.014  13.134   4.370
24706SOL    HW176015  11.093  13.094   4.333
24706SOL    HW276016  11.042  13.171   4.453
24707SOL     OW76017   2.060   6.300  10.358
24707SOL    HW176018   2.067   6.232  10.425
24707SOL    HW276019   2.011   6.370  10.400
24708SOL     OW76020  14.702   7.737   3.095
24708SOL    HW176021  14.607   7.750   3.100
24708SOL    HW276022  14.718   7.709   3.005
24709SOL     OW76023  14.500  13.441   8.936
24709SOL    HW176024  14.458  13.516   8.893
24709SOL    HW276025  14.587  13.473   8.959
24710SOL     OW76026  14.849   5.263   5.728
24710SOL    HW176027  14.807   5.177   5.721
24710SOL    HW276028   0.056   5.249   5.698
24711SOL     OW76029   7.433  13.624  10.179
24711SOL    HW176030   7.361  13.590  10.125
24711SOL    HW276031   7.493  13.664  10.116
24712SOL     OW76032  10.373  12.650   3.906
24712SOL    HW176033  10.388  12.647   4.000
24712SOL    HW276034  10.285  12.686   3.896
24713SOL     OW76035   1.313  12.453   4.682
24713SOL    HW176036   1.352  12.409   4.606
24713SOL    HW276037   1.261  12.524   4.644
24714SOL     OW76038   6.433  11.786  13.959
24714SOL    HW176039   6.390  11.733  13.892
24714SOL    HW276040   6.414  11.741  14.042
24715SOL     OW76041   5.055  12.402   2.474
24715SOL    HW176042   5.056  12.436   2.384
24715SOL    HW276043   5.146  12.406   2.503
24716SOL     OW76044  13.610   2.512   1.261
24716SOL    HW176045  13.667   2.590   1.260
24716SOL    HW276046  13.546   2.529   1.330
24717SOL     OW76047  14.594  13.198   6.480
24717SOL    HW176048  14.516  13.175   6.429
24717SOL    HW276049  14.636  13.267   6.429
24718SOL     OW76050  12.111  10.503   6.256
24718SOL    HW176051  12.194  10.484   6.212
24718SOL    HW276052  12.137  10.545   6.338
24719SOL     OW76053   8.269   8.445   3.234
24719SOL    HW176054   8.350   8.427   3.281
24719SOL    HW276055   8.203   8.456   3.303
24720SOL     OW76056   1.408   2.849   7.894
24720SOL    HW176057   1.473   2.886   7.835
24720SOL    HW276058   1.435   2.878   7.981
24721SOL     OW76059   2.067   5.432   8.893
24721SOL    HW176060   2.020   5.498   8.842
24721SOL    HW276061   2.042   5.450   8.984
24722SOL     OW76062   9.156   9.204  12.872
24722SOL    HW176063   9.207   9.153  12.809
24722SOL    HW276064   9.207   9.201  12.952
24723SOL     OW76065   3.582   7.108  13.024
24723SOL    HW176066   3.574   7.117  12.929
24723SOL    HW276067   3.672   7.133  13.043
24724SOL     OW76068   1.762   8.617   8.187
24724SOL    HW176069   1.823   8.595   8.258
24724SOL    HW276070   1.734   8.532   8.153
24725SOL     OW76071   1.777   4.330  13.380
24725SOL    HW176072   1.838   4.258  13.398
24725SOL    HW276073   1.827   4.409  13.402
24726SOL     OW76074   5.196   7.797  13.826
24726SOL    HW176075   5.195   7.716  13.775
24726SOL    HW276076   5.264   7.784  13.892
24727SOL     OW76077   5.753   1.261   2.316
24727SOL    HW176078   5.788   1.334   2.368
24727SOL    HW276079   5.664   1.288   2.295
24728SOL     OW76080   8.872  11.542   7.715
24728SOL    HW176081   8.873  11.608   7.645
24728SOL    HW276082   8.801  11.483   7.690
24729SOL     OW76083   8.343   1.873   3.776
24729SOL    HW176084   8.279   1.943   3.793
24729SOL    HW276085   8.422   1.919   3.749
24730SOL     OW76086  13.934   7.519   3.672
24730SOL    HW176087  13.864   7.538   3.735
24730SOL    HW276088  13.970   7.435   3.702
24731SOL     OW76089   4.060  13.361   5.696
24731SOL    HW176090   4.119  13.339   5.767
24731SOL    HW276091   4.110  13.422   5.642
24732SOL     OW76092   6.481  12.836   0.384
24732SOL    HW176093   6.563  12.868   0.422
24732SOL    HW276094   6.498  12.835   0.290
24733SOL     OW76095   8.327   0.283   5.740
24733SOL    HW176096   8.363   0.372   5.747
24733SOL    HW276097   8.242   0.288   5.783
24734SOL     OW76098   0.867   4.984   9.935
24734SOL    HW176099   0.823   5.037  10.002
24734SOL    HW276100   0.915   5.047   9.882
24735SOL     OW76101  13.451   0.510   6.370
24735SOL    HW176102  13.531   0.463   6.392
24735SOL    HW276103  13.481   0.587   6.321
24736SOL     OW76104   2.452   2.213  12.401
24736SOL    HW176105   2.543   2.223  12.428
24736SOL    HW276106   2.427   2.298  12.365
24737SOL     OW76107  10.648  14.771   7.403
24737SOL    HW176108  10.728  14.758   7.352
24737SOL    HW276109  10.620  14.861   7.383
24738SOL     OW76110  13.371   8.633   0.038
24738SOL    HW176111  13.334   8.668   0.118
24738SOL    HW276112  13.301   8.642  14.855
24739SOL     OW76113  10.359  10.474  12.973
24739SOL    HW176114  10.391  10.532  12.905
24739SOL    HW276115  10.370  10.523  13.054
24740SOL     OW76116   5.897   8.898   7.238
24740SOL    HW176117   5.906   8.985   7.277
24740SOL    HW276118   5.804   8.877   7.246
24741SOL     OW76119   6.701  13.906  13.338
24741SOL    HW176120   6.630  13.858  13.381
24741SOL    HW276121   6.781  13.864  13.370
24742SOL     OW76122   2.907  13.782  12.190
24742SOL    HW176123   2.988  13.756  12.147
24742SOL    HW276124   2.841  13.722  12.155
24743SOL     OW76125   7.195   1.726   0.147
24743SOL    HW176126   7.263   1.788   0.175
24743SOL    HW276127   7.197   1.729   0.052
24744SOL     OW76128   3.899   9.369   7.342
24744SOL    HW176129   3.906   9.445   7.285
24744SOL    HW276130   3.864   9.402   7.424
24745SOL     OW76131   9.229  12.051   3.438
24745SOL    HW176132   9.294  12.019   3.375
24745SOL    HW276133   9.224  12.145   3.420
24746SOL     OW76134  14.736   8.790   9.649
24746SOL    HW176135  14.800   8.720   9.661
24746SOL    HW276136  14.690   8.767   9.568
24747SOL     OW76137   0.922   8.567  13.169
24747SOL    HW176138   0.833   8.582  13.199
24747SOL    HW276139   0.915   8.556  13.075
24748SOL     OW76140  11.857   3.166   7.873
24748SOL    HW176141  11.913   3.099   7.913
24748SOL    HW276142  11.799   3.117   7.815
24749SOL     OW76143  11.834   6.354  13.365
24749SOL    HW176144  11.900   6.362  13.435
24749SOL    HW276145  11.885   6.332  13.287
24750SOL     OW76146   1.422  11.156   8.854
24750SOL    HW176147   1.364  11.216   8.901
24750SOL    HW276148   1.367  11.081   8.833
24751SOL     OW76149  13.655   2.293   7.407
24751SOL    HW176150  13.628   2.336   7.326
24751SOL    HW276151  13.574   2.261   7.446
24752SOL     OW76152   9.046   4.788  11.189
24752SOL    HW176153   9.033   4.854  11.121
24752SOL    HW276154   8.957   4.764  11.215
24753SOL     OW76155   2.131   7.890   3.924
24753SOL    HW176156   2.142   7.868   4.016
24753SOL    HW276157   2.040   7.869   3.904
24754SOL     OW76158   7.865   3.499   8.110
24754SOL    HW176159   7.916   3.460   8.039
24754SOL    HW276160   7.923   3.563   8.150
24755SOL     OW76161   2.691  12.747  10.469
24755SOL    HW176162   2.715  12.666  10.513
24755SOL    HW276163   2.749  12.751  10.393
24756SOL     OW76164  11.717   1.520   8.000
24756SOL    HW176165  11.708   1.583   7.928
24756SOL    HW276166  11.706   1.435   7.959
24757SOL     OW76167   1.975   7.549  12.189
24757SOL    HW176168   2.061   7.549  12.231
24757SOL    HW276169   1.915   7.576  12.258
24758SOL     OW76170   3.552  12.957   5.013
24758SOL    HW176171   3.562  12.939   5.107
24758SOL    HW276172   3.642  12.955   4.980
24759SOL     OW76173  11.589  14.797  10.046
24759SOL    HW176174  11.669  14.748  10.026
24759SOL    HW276175  11.586  14.865   9.978
24760SOL     OW76176  10.709   5.425   3.265
24760SOL    HW176177  10.783   5.417   3.205
24760SOL    HW276178  10.720   5.352   3.326
24761SOL     OW76179   6.249   8.698   3.915
24761SOL    HW176180   6.192   8.653   3.978
24761SOL    HW276181   6.313   8.744   3.969
24762SOL     OW76182   6.207   2.766   3.205
24762SOL    HW176183   6.122   2.723   3.208
24762SOL    HW276184   6.256   2.718   3.137
24763SOL     OW76185  10.294   1.599  11.818
24763SOL    HW176186  10.234   1.629  11.886
24763SOL    HW276187  10.355   1.671  11.806
24764SOL     OW76188  13.798   4.909   9.165
24764SOL    HW176189  13.843   4.975   9.112
24764SOL    HW276190  13.832   4.826   9.132
24765SOL     OW76191   8.864  11.701   4.919
24765SOL    HW176192   8.858  11.791   4.887
24765SOL    HW276193   8.775  11.667   4.911
24766SOL     OW76194   1.944   6.439  12.009
24766SOL    HW176195   1.936   6.485  12.093
24766SOL    HW276196   2.038   6.425  11.999
24767SOL     OW76197   4.225  10.735  11.338
24767SOL    HW176198   4.261  10.671  11.277
24767SOL    HW276199   4.208  10.813  11.284
24768SOL     OW76200   6.477   7.763   1.935
24768SOL    HW176201   6.439   7.683   1.897
24768SOL    HW276202   6.499   7.817   1.859
24769SOL     OW76203   7.912  13.569  12.042
24769SOL    HW176204   7.938  13.659  12.062
24769SOL    HW276205   7.977  13.515  12.087
24770SOL     OW76206   3.816  14.065   6.967
24770SOL    HW176207   3.851  14.057   7.056
24770SOL    HW276208   3.796  13.975   6.941
24771SOL     OW76209   6.270   4.963  12.484
24771SOL    HW176210   6.240   4.925  12.566
24771SOL    HW276211   6.320   4.893  12.441
24772SOL     OW76212   4.080  11.462   7.135
24772SOL    HW176213   4.139  11.420   7.072
24772SOL    HW276214   4.038  11.532   7.085
24773SOL     OW76215  14.488   1.876  14.198
24773SOL    HW176216  14.395   1.868  14.221
24773SOL    HW276217  14.519   1.948  14.252
24774SOL     OW76218   9.460   5.042   6.479
24774SOL    HW176219   9.479   5.000   6.396
24774SOL    HW276220   9.515   5.121   6.480
24775SOL     OW76221   5.054  13.038   2.104
24775SOL    HW176222   5.123  13.087   2.149
24775SOL    HW276223   4.974  13.062   2.150
24776SOL     OW76224   1.447  12.785   7.394
24776SOL    HW176225   1.395  12.860   7.424
24776SOL    HW276226   1.420  12.772   7.303
24777SOL     OW76227  12.653  10.305   7.511
24777SOL    HW176228  12.655  10.209   7.516
24777SOL    HW276229  12.597  10.332   7.584
24778SOL     OW76230   2.468   7.256  12.597
24778SOL    HW176231   2.479   7.347  12.624
24778SOL    HW276232   2.413   7.217  12.666
24779SOL     OW76233   0.952   9.632   3.333
24779SOL    HW176234   0.963   9.665   3.422
24779SOL    HW276235   0.969   9.538   3.340
24780SOL     OW76236   1.260  13.613  12.991
24780SOL    HW176237   1.268  13.530  13.038
24780SOL    HW276238   1.189  13.659  13.036
24781SOL     OW76239   2.785   7.338  14.076
24781SOL    HW176240   2.749   7.270  14.133
24781SOL    HW276241   2.839   7.391  14.135
24782SOL     OW76242  14.880   7.683  11.290
24782SOL    HW176243  14.790   7.660  11.267
24782SOL    HW276244   0.018   7.759  11.236
24783SOL     OW76245   2.597  12.938   5.802
24783SOL    HW176246   2.666  12.904   5.746
24783SOL    HW276247   2.522  12.880   5.786
24784SOL     OW76248   2.041   8.328   6.986
24784SOL    HW176249   2.115   8.367   6.938
24784SOL    HW276250   2.081   8.260   7.040
24785SOL     OW76251   7.773   1.776   1.965
24785SOL    HW176252   7.818   1.692   1.956
24785SOL    HW276253   7.716   1.765   2.041
24786SOL     OW76254  11.263   2.924   1.560
24786SOL    HW176255  11.357   2.917   1.578
24786SOL    HW276256  11.257   2.982   1.484
24787SOL     OW76257   2.153  12.212   3.432
24787SOL    HW176258   2.149  12.303   3.462
24787SOL    HW276259   2.247  12.194   3.424
24788SOL     OW76260   1.450   9.480   6.966
24788SOL    HW176261   1.496   9.408   6.923
24788SOL    HW276262   1.434   9.543   6.896
24789SOL     OW76263   5.130   7.248  10.770
24789SOL    HW176264   5.139   7.210  10.683
24789SOL    HW276265   5.219   7.250  10.805
24790SOL     OW76266  14.408   2.988   3.072
24790SOL    HW176267  14.360   3.069   3.088
24790SOL    HW276268  14.469   2.982   3.145
24791SOL     OW76269   6.637  10.036   2.688
24791SOL    HW176270   6.543  10.044   2.708
24791SOL    HW276271   6.643   9.960   2.631
24792SOL     OW76272   4.144  13.964   8.646
24792SOL    HW176273   4.118  14.026   8.715
24792SOL    HW276274   4.105  13.881   8.673
24793SOL     OW76275   7.458  12.434   5.330
24793SOL    HW176276   7.469  12.517   5.378
24793SOL    HW276277   7.364  12.428   5.314
24794SOL     OW76278   5.931   7.613   4.943
24794SOL    HW176279   5.848   7.625   4.897
24794SOL    HW276280   5.936   7.686   5.003
24795SOL     OW76281   3.457   0.064  10.718
24795SOL    HW176282   3.417  14.860  10.730
24795SOL    HW276283   3.442   0.084  10.625
24796SOL     OW76284   4.274   3.234  14.673
24796SOL    HW176285   4.267   3.298  14.744
24796SOL    HW276286   4.186   3.197  14.666
24797SOL     OW76287  12.185   5.023  10.338
24797SOL    HW176288  12.142   5.082  10.400
24797SOL    HW276289  12.270   5.065  10.320
24798SOL     OW76290   4.785  12.016   9.650
24798SOL    HW176291   4.812  11.985   9.736
24798SOL    HW276292   4.753  11.937   9.605
24799SOL     OW76293  11.444   2.435   3.146
24799SOL    HW176294  11.395   2.422   3.066
24799SOL    HW276295  11.458   2.530   3.151
24800SOL     OW76296   1.860   8.892  11.235
24800SOL    HW176297   1.806   8.959  11.193
24800SOL    HW276298   1.821   8.809  11.207
24801SOL     OW76299  13.189  11.919  13.014
24801SOL    HW176300  13.240  11.996  12.990
24801SOL    HW276301  13.231  11.847  12.966
24802SOL     OW76302  14.514   4.547  14.145
24802SOL    HW176303  14.561   4.530  14.063
24802SOL    HW276304  14.566   4.615  14.188
24803SOL     OW76305   4.039   3.277  14.055
24803SOL    HW176306   4.069   3.237  13.974
24803SOL    HW276307   3.972   3.340  14.028
24804SOL     OW76308   7.116   1.828   5.826
24804SOL    HW176309   7.152   1.740   5.822
24804SOL    HW276310   7.167   1.871   5.895
24805SOL     OW76311  12.788   0.058   1.443
24805SOL    HW176312  12.783  14.881   1.368
24805SOL    HW276313  12.755   0.006   1.517
24806SOL     OW76314   5.521  13.170   5.098
24806SOL    HW176315   5.435  13.210   5.113
24806SOL    HW276316   5.540  13.124   5.179
24807SOL     OW76317  14.227  12.016  13.614
24807SOL    HW176318  14.196  12.045  13.529
24807SOL    HW276319  14.322  12.006  13.603
24808SOL     OW76320   8.282  10.265   0.655
24808SOL    HW176321   8.264  10.350   0.695
24808SOL    HW276322   8.366  10.276   0.610
24809SOL     OW76323   7.373   1.659   2.932
24809SOL    HW176324   7.296   1.602   2.931
24809SOL    HW276325   7.339   1.744   2.960
24810SOL     OW76326   9.189   3.297  13.762
24810SOL    HW176327   9.213   3.346  13.683
24810SOL    HW276328   9.162   3.211  13.729
24811SOL     OW76329   3.846   9.761  11.042
24811SOL    HW176330   3.772   9.721  11.088
24811SOL    HW276331   3.866   9.839  11.094
24812SOL     OW76332   3.116  14.231   5.763
24812SOL    HW176333   3.063  14.274   5.696
24812SOL    HW276334   3.186  14.188   5.714
24813SOL     OW76335   4.445   3.322   7.587
24813SOL    HW176336   4.477   3.412   7.584
24813SOL    HW276337   4.484   3.286   7.666
24814SOL     OW76338   4.308  10.456   2.847
24814SOL    HW176339   4.294  10.454   2.941
24814SOL    HW276340   4.228  10.418   2.810
24815SOL     OW76341   4.217   5.973  12.016
24815SOL    HW176342   4.211   6.022  11.934
24815SOL    HW276343   4.302   5.929  12.011
24816SOL     OW76344   6.823  10.724   5.490
24816SOL    HW176345   6.877  10.796   5.458
24816SOL    HW276346   6.834  10.655   5.424
24817SOL     OW76347   7.413   6.661  13.524
24817SOL    HW176348   7.456   6.630  13.604
24817SOL    HW276349   7.484   6.698  13.472
24818SOL     OW76350   8.064   4.694   2.810
24818SOL    HW176351   8.124   4.631   2.771
24818SOL    HW276352   8.000   4.639   2.857
24819SOL     OW76353  10.775   6.246   1.244
24819SOL    HW176354  10.757   6.286   1.329
24819SOL    HW276355  10.708   6.178   1.235
24820SOL     OW76356  12.956   2.894  11.708
24820SOL    HW176357  13.014   2.842  11.765
24820SOL    HW276358  12.879   2.838  11.696
24821SOL     OW76359   2.014  14.330   6.059
24821SOL    HW176360   1.919  14.338   6.053
24821SOL    HW276361   2.028  14.270   6.133
24822SOL     OW76362   4.914   6.558   5.770
24822SOL    HW176363   4.944   6.592   5.854
24822SOL    HW276364   4.828   6.598   5.757
24823SOL     OW76365  14.623   7.438   7.023
24823SOL    HW176366  14.664   7.466   6.941
24823SOL    HW276367  14.589   7.518   7.063
24824SOL     OW76368   2.900   3.826  12.083
24824SOL    HW176369   2.889   3.837  12.177
24824SOL    HW276370   2.848   3.896  12.044
24825SOL     OW76371   8.441   0.859  11.252
24825SOL    HW176372   8.464   0.809  11.330
24825SOL    HW276373   8.378   0.803  11.205
24826SOL     OW76374  11.251  13.236   8.324
24826SOL    HW176375  11.265  13.256   8.232
24826SOL    HW276376  11.263  13.141   8.330
24827SOL     OW76377  14.014  14.742   6.702
24827SOL    HW176378  14.015  14.790   6.785
24827SOL    HW276379  14.103  14.750   6.668
24828SOL     OW76380   7.837   6.392   0.505
24828SOL    HW176381   7.887   6.375   0.585
24828SOL    HW276382   7.763   6.330   0.509
24829SOL     OW76383  13.828   7.623  13.510
24829SOL    HW176384  13.829   7.652  13.601
24829SOL    HW276385  13.777   7.690  13.464
24830SOL     OW76386   8.377   6.350  10.293
24830SOL    HW176387   8.374   6.406  10.216
24830SOL    HW276388   8.297   6.370  10.341
24831SOL     OW76389   0.228  14.095  11.774
24831SOL    HW176390   0.178  14.177  11.782
24831SOL    HW276391   0.170  14.028  11.811
24832SOL     OW76392   3.801   5.873   1.659
24832SOL    HW176393   3.831   5.958   1.692
24832SOL    HW276394   3.794   5.818   1.737
24833SOL     OW76395  11.034  14.316  10.576
24833SOL    HW176396  11.115  14.336  10.621
24833SOL    HW276397  11.035  14.372  10.498
24834SOL     OW76398   1.351   4.380  14.383
24834SOL    HW176399   1.436   4.370  14.339
24834SOL    HW276400   1.331   4.293  14.417
24835SOL     OW76401   8.450   3.357  13.521
24835SOL    HW176402   8.390   3.290  13.553
24835SOL    HW276403   8.394   3.420  13.475
24836SOL     OW76404  13.770   1.269   1.962
24836SOL    HW176405  13.713   1.249   1.888
24836SOL    HW276406  13.836   1.200   1.961
24837SOL     OW76407  13.980  14.674  13.181
24837SOL    HW176408  13.996  14.685  13.275
24837SOL    HW276409  14.042  14.605  13.155
24838SOL     OW76410   8.149  13.440   4.355
24838SOL    HW176411   8.123  13.381   4.425
24838SOL    HW276412   8.233  13.475   4.383
24839SOL     OW76413   3.041  13.769   3.355
24839SOL    HW176414   3.070  13.704   3.419
24839SOL    HW276415   2.990  13.832   3.406
24840SOL     OW76416   7.058   2.047   1.553
24840SOL    HW176417   7.027   2.088   1.472
24840SOL    HW276418   7.148   2.078   1.563
24841SOL     OW76419   0.562   5.184   0.169
24841SOL    HW176420   0.657   5.192   0.159
24841SOL    HW276421   0.532   5.274   0.182
24842SOL     OW76422   5.813   8.810  14.727
24842SOL    HW176423   5.885   8.853  14.774
24842SOL    HW276424   5.791   8.735  14.782
24843SOL     OW76425   4.583   9.330   6.638
24843SOL    HW176426   4.593   9.295   6.550
24843SOL    HW276427   4.655   9.291   6.688
24844SOL     OW76428   7.212  14.819   2.876
24844SOL    HW176429   7.172   0.005   2.823
24844SOL    HW276430   7.192  14.844   2.966
24845SOL     OW76431  13.989   3.427  14.156
24845SOL    HW176432  13.974   3.334  14.140
24845SOL    HW276433  14.077   3.431  14.194
24846SOL     OW76434   8.495  12.804   2.605
24846SOL    HW176435   8.568  12.760   2.649
24846SOL    HW276436   8.442  12.733   2.569
24847SOL     OW76437   3.644  10.248  13.078
24847SOL    HW176438   3.579  10.252  13.149
24847SOL    HW276439   3.717  10.199  13.115
24848SOL     OW76440  11.330   1.785   9.427
24848SOL    HW176441  11.291   1.709   9.385
24848SOL    HW276442  11.335   1.762   9.519
24849SOL     OW76443   3.861   5.476   4.619
24849SOL    HW176444   3.881   5.466   4.526
24849SOL    HW276445   3.925   5.539   4.651
24850SOL     OW76446  12.559   1.299   8.204
24850SOL    HW176447  12.565   1.374   8.145
24850SOL    HW276448  12.477   1.256   8.180
24851SOL     OW76449   9.889   3.120   4.513
24851SOL    HW176450   9.932   3.190   4.464
24851SOL    HW276451   9.961   3.065   4.542
24852SOL     OW76452   0.828   8.059   8.404
24852SOL    HW176453   0.891   8.048   8.475
24852SOL    HW276454   0.844   7.985   8.345
24853SOL     OW76455   5.593   1.991   8.806
24853SOL    HW176456   5.530   2.062   8.817
24853SOL    HW276457   5.658   2.026   8.745
24854SOL     OW76458   7.464  10.950  13.466
24854SOL    HW176459   7.445  11.041  13.488
24854SOL    HW276460   7.526  10.921  13.533
24855SOL     OW76461   1.201  12.789  10.437
24855SOL    HW176462   1.255  12.779  10.516
24855SOL    HW276463   1.264  12.786  10.365
24856SOL     OW76464  10.885   2.793  14.868
24856SOL    HW176465  10.805   2.812  14.819
24856SOL    HW276466  10.855   2.762   0.071
24857SOL     OW76467   1.144   0.396   5.110
24857SOL    HW176468   1.172   0.449   5.035
24857SOL    HW276469   1.092   0.325   5.071
24858SOL     OW76470   1.173   5.623   3.297
24858SOL    HW176471   1.213   5.589   3.217
24858SOL    HW276472   1.223   5.702   3.317
24859SOL     OW76473  12.657  11.130   8.626
24859SOL    HW176474  12.675  11.178   8.545
24859SOL    HW276475  12.562  11.134   8.635
24860SOL     OW76476   0.506  10.490  13.210
24860SOL    HW176477   0.601  10.479  13.203
24860SOL    HW276478   0.469  10.420  13.156
24861SOL     OW76479   1.590   9.950  10.516
24861SOL    HW176480   1.637   9.935  10.598
24861SOL    HW276481   1.657   9.942  10.448
24862SOL     OW76482   2.392   0.950   4.962
24862SOL    HW176483   2.312   0.911   4.928
24862SOL    HW276484   2.438   0.878   5.005
24863SOL     OW76485  11.027   7.423   6.245
24863SOL    HW176486  11.120   7.419   6.268
24863SOL    HW276487  11.023   7.383   6.158
24864SOL     OW76488   6.833  13.120   6.663
24864SOL    HW176489   6.844  13.116   6.758
24864SOL    HW276490   6.822  13.029   6.635
24865SOL     OW76491  11.068   1.385   9.418
24865SOL    HW176492  10.997   1.416   9.475
24865SOL    HW276493  11.039   1.298   9.389
24866SOL     OW76494   0.698  12.271  11.665
24866SOL    HW176495   0.676  12.252  11.756
24866SOL    HW276496   0.700  12.367  11.661
24867SOL     OW76497  14.379   2.257   7.101
24867SOL    HW176498  14.393   2.289   7.012
24867SOL    HW276499  14.339   2.331   7.147
24868SOL     OW76500   4.497  14.250   9.444
24868SOL    HW176501   4.481  14.339   9.476
24868SOL    HW276502   4.497  14.258   9.348
24869SOL     OW76503   5.553  11.227  12.685
24869SOL    HW176504   5.542  11.252  12.777
24869SOL    HW276505   5.647  11.225  12.671
24870SOL     OW76506   7.307  13.360  14.476
24870SOL    HW176507   7.278  13.274  14.505
24870SOL    HW276508   7.337  13.346  14.386
24871SOL     OW76509   8.136   9.578   2.240
24871SOL    HW176510   8.141   9.640   2.313
24871SOL    HW276511   8.081   9.507   2.273
24872SOL     OW76512  12.721   7.782  12.923
24872SOL    HW176513  12.790   7.849  12.924
24872SOL    HW276514  12.645   7.826  12.887
24873SOL     OW76515   1.828   7.344  12.902
24873SOL    HW176516   1.745   7.297  12.891
24873SOL    HW276517   1.803   7.432  12.932
24874SOL     OW76518   9.087   5.170   7.601
24874SOL    HW176519   9.044   5.179   7.516
24874SOL    HW276520   9.073   5.079   7.626
24875SOL     OW76521  11.111  12.844  10.185
24875SOL    HW176522  11.077  12.786  10.253
24875SOL    HW276523  11.179  12.792  10.141
24876SOL     OW76524  11.806   2.707  12.611
24876SOL    HW176525  11.842   2.740  12.528
24876SOL    HW276526  11.712   2.716  12.602
24877SOL     OW76527   1.076   3.943   5.391
24877SOL    HW176528   0.987   3.954   5.423
24877SOL    HW276529   1.098   4.028   5.353
24878SOL     OW76530   2.064   1.336  13.893
24878SOL    HW176531   1.998   1.401  13.917
24878SOL    HW276532   2.139   1.388  13.863
24879SOL     OW76533   7.897   2.786   1.258
24879SOL    HW176534   7.809   2.786   1.294
24879SOL    HW276535   7.933   2.701   1.283
24880SOL     OW76536   6.332  11.244  13.161
24880SOL    HW176537   6.420  11.267  13.188
24880SOL    HW276538   6.296  11.325  13.124
24881SOL     OW76539   9.434  11.989   3.259
24881SOL    HW176540   9.439  11.945   3.174
24881SOL    HW276541   9.525  11.996   3.288
24882SOL     OW76542   7.880   7.858   0.865
24882SOL    HW176543   7.959   7.907   0.887
24882SOL    HW276544   7.837   7.910   0.797
24883SOL     OW76545   7.828   0.425  13.897
24883SOL    HW176546   7.759   0.387  13.843
24883SOL    HW276547   7.781   0.473  13.966
24884SOL     OW76548  14.113   1.926   3.086
24884SOL    HW176549  14.111   1.859   3.154
24884SOL    HW276550  14.151   2.003   3.129
24885SOL     OW76551  12.420   4.841  14.665
24885SOL    HW176552  12.481   4.846  14.592
24885SOL    HW276553  12.399   4.932  14.685
24886SOL     OW76554  14.091   0.686   9.729
24886SOL    HW176555  14.043   0.769   9.728
24886SOL    HW276556  14.036   0.626   9.679
24887SOL     OW76557   9.214   9.560  13.355
24887SOL    HW176558   9.156   9.525  13.423
24887SOL    HW276559   9.212   9.655  13.368
24888SOL     OW76560   0.959   7.673   6.571
24888SOL    HW176561   1.006   7.722   6.638
24888SOL    HW276562   0.959   7.731   6.495
24889SOL     OW76563  10.903   6.867   1.683
24889SOL    HW176564  10.936   6.881   1.595
24889SOL    HW276565  10.970   6.811   1.724
24890SOL     OW76566   2.459  13.158   0.212
24890SOL    HW176567   2.480  13.131   0.302
24890SOL    HW276568   2.535  13.209   0.184
24891SOL     OW76569  12.801   3.945   1.453
24891SOL    HW176570  12.894   3.929   1.469
24891SOL    HW276571  12.790   3.927   1.360
24892SOL     OW76572   9.084   9.332   9.181
24892SOL    HW176573   9.102   9.251   9.134
24892SOL    HW276574   9.167   9.353   9.225
24893SOL     OW76575   6.204   2.964  12.379
24893SOL    HW176576   6.149   3.016  12.321
24893SOL    HW276577   6.243   3.027  12.439
24894SOL     OW76578   3.707   0.206  10.784
24894SOL    HW176579   3.743   0.214  10.695
24894SOL    HW276580   3.617   0.175  10.770
24895SOL     OW76581   2.985   4.932  13.756
24895SOL    HW176582   2.959   4.866  13.821
24895SOL    HW276583   3.063   4.972  13.793
24896SOL     OW76584   3.667   7.036   0.267
24896SOL    HW176585   3.583   7.081   0.279
24896SOL    HW276586   3.720   7.064   0.342
24897SOL     OW76587   8.992   8.768   4.946
24897SOL    HW176588   9.011   8.832   4.878
24897SOL    HW276589   9.002   8.817   5.028
24898SOL     OW76590   9.754  14.869   8.944
24898SOL    HW176591   9.694   0.030   8.883
24898SOL    HW276592   9.698  14.839   9.016
24899SOL     OW76593   4.445  14.343   2.672
24899SOL    HW176594   4.460  14.437   2.665
24899SOL    HW276595   4.530  14.307   2.698
24900SOL     OW76596  12.567   1.589   6.576
24900SOL    HW176597  12.576   1.634   6.660
24900SOL    HW276598  12.500   1.523   6.592
24901SOL     OW76599   1.405   9.857  13.708
24901SOL    HW176600   1.386   9.941  13.666
24901SOL    HW276601   1.438   9.802  13.638
24902SOL     OW76602   4.140  11.158   5.749
24902SOL    HW176603   4.068  11.158   5.686
24902SOL    HW276604   4.139  11.070   5.787
24903SOL     OW76605  12.728   4.406  14.808
24903SOL    HW176606  12.778   4.488  14.812
24903SOL    HW276607  12.655   4.426  14.750
24904SOL     OW76608  13.275  12.918  11.179
24904SOL    HW176609  13.206  12.981  11.158
24904SOL    HW276610  13.253  12.839  11.129
24905SOL     OW76611   6.959   3.415   3.690
24905SOL    HW176612   6.981   3.489   3.746
24905SOL    HW276613   6.991   3.338   3.737
24906SOL     OW76614  11.202   5.754   4.481
24906SOL    HW176615  11.227   5.713   4.564
24906SOL    HW276616  11.284   5.790   4.446
24907SOL     OW76617  13.675  12.525   8.802
24907SOL    HW176618  13.720  12.467   8.741
24907SOL    HW276619  13.736  12.597   8.816
24908SOL     OW76620  14.550   3.519   0.892
24908SOL    HW176621  14.616   3.519   0.961
24908SOL    HW276622  14.597   3.492   0.813
24909SOL     OW76623   3.727   8.932  10.898
24909SOL    HW176624   3.693   8.855  10.942
24909SOL    HW276625   3.662   8.952  10.830
24910SOL     OW76626   0.525   8.315   9.836
24910SOL    HW176627   0.508   8.408   9.824
24910SOL    HW276628   0.551   8.307   9.927
24911SOL     OW76629  14.129   4.483   0.812
24911SOL    HW176630  14.160   4.481   0.721
24911SOL    HW276631  14.198   4.529   0.860
24912SOL     OW76632  11.154  14.447   5.933
24912SOL    HW176633  11.218  14.418   5.998
24912SOL    HW276634  11.191  14.419   5.849
24913SOL     OW76635  11.875   7.008  14.416
24913SOL    HW176636  11.930   7.062  14.359
24913SOL    HW276637  11.816   6.962  14.356
24914SOL     OW76638   9.662   3.494   3.274
24914SOL    HW176639   9.757   3.482   3.275
24914SOL    HW276640   9.635   3.467   3.186
24915SOL     OW76641   4.731   1.114   6.965
24915SOL    HW176642   4.648   1.127   6.919
24915SOL    HW276643   4.732   1.180   7.034
24916SOL     OW76644   8.072   2.629  11.067
24916SOL    HW176645   8.109   2.571  11.133
24916SOL    HW276646   8.048   2.708  11.116
24917SOL     OW76647   9.573   2.517   1.562
24917SOL    HW176648   9.661   2.554   1.553
24917SOL    HW276649   9.587   2.427   1.591
24918SOL     OW76650   8.822   2.516   0.224
24918SOL    HW176651   8.837   2.594   0.170
24918SOL    HW276652   8.748   2.472   0.182
24919SOL     OW76653   0.380  13.705   0.972
24919SOL    HW176654   0.416  13.780   0.926
24919SOL    HW276655   0.310  13.673   0.916
24920SOL     OW76656   4.766  13.116  13.319
24920SOL    HW176657   4.678  13.077  13.321
24920SOL    HW276658   4.791  13.115  13.227
24921SOL     OW76659  10.174  10.622   1.890
24921SOL    HW176660  10.087  10.640   1.925
24921SOL    HW276661  10.191  10.694   1.829
24922SOL     OW76662   0.770   2.387   7.659
24922SOL    HW176663   0.719   2.468   7.659
24922SOL    HW276664   0.849   2.408   7.707
24923SOL     OW76665   5.277  13.138   3.067
24923SOL    HW176666   5.255  13.092   3.148
24923SOL    HW276667   5.195  13.177   3.039
24924SOL     OW76668   6.796   8.741  11.456
24924SOL    HW176669   6.853   8.665  11.442
24924SOL    HW276670   6.727   8.731  11.391
24925SOL     OW76671   6.201  10.861   9.731
24925SOL    HW176672   6.141  10.868   9.657
24925SOL    HW276673   6.278  10.912   9.705
24926SOL     OW76674   4.852   7.340  11.187
24926SOL    HW176675   4.818   7.259  11.148
24926SOL    HW276676   4.900   7.382  11.115
24927SOL     OW76677   4.456   0.611   5.033
24927SOL    HW176678   4.432   0.630   4.943
24927SOL    HW276679   4.374   0.586   5.075
24928SOL     OW76680   9.517   4.440   2.592
24928SOL    HW176681   9.481   4.352   2.603
24928SOL    HW276682   9.602   4.437   2.635
24929SOL     OW76683   4.282   4.605  12.424
24929SOL    HW176684   4.206   4.647  12.382
24929SOL    HW276685   4.273   4.626  12.516
24930SOL     OW76686   6.483   1.987   0.503
24930SOL    HW176687   6.483   1.966   0.597
24930SOL    HW276688   6.552   1.933   0.466
24931SOL     OW76689  11.631  12.825   2.093
24931SOL    HW176690  11.677  12.788   2.169
24931SOL    HW276691  11.698  12.876   2.047
24932SOL     OW76692  13.047  13.769   1.113
24932SOL    HW176693  13.055  13.754   1.019
24932SOL    HW276694  13.093  13.695   1.153
24933SOL     OW76695  10.105   4.663   6.747
24933SOL    HW176696  10.141   4.633   6.831
24933SOL    HW276697  10.120   4.591   6.687
24934SOL     OW76698   3.288   6.386   2.779
24934SOL    HW176699   3.222   6.438   2.824
24934SOL    HW276700   3.334   6.449   2.723
24935SOL     OW76701  10.719   9.280   1.715
24935SOL    HW176702  10.644   9.308   1.662
24935SOL    HW276703  10.680   9.242   1.793
24936SOL     OW76704   6.128  12.288   9.698
24936SOL    HW176705   6.202  12.287   9.637
24936SOL    HW276706   6.127  12.200   9.737
24937SOL     OW76707   4.299   7.478   7.140
24937SOL    HW176708   4.241   7.518   7.204
24937SOL    HW276709   4.265   7.507   7.055
24938SOL     OW76710   7.255   9.759   8.051
24938SOL    HW176711   7.323   9.791   7.991
24938SOL    HW276712   7.280   9.793   8.137
24939SOL     OW76713  11.519   1.464   3.969
24939SOL    HW176714  11.459   1.475   4.042
24939SOL    HW276715  11.605   1.486   4.004
24940SOL     OW76716   2.908  10.429   8.648
24940SOL    HW176717   2.952  10.347   8.624
24940SOL    HW276718   2.888  10.471   8.565
24941SOL     OW76719   5.854  14.482   7.608
24941SOL    HW176720   5.828  14.522   7.525
24941SOL    HW276721   5.912  14.546   7.649
24942SOL     OW76722   3.345   0.956  10.574
24942SOL    HW176723   3.353   0.865  10.603
24942SOL    HW276724   3.269   0.957  10.517
24943SOL     OW76725  10.415   5.808   4.921
24943SOL    HW176726  10.379   5.763   4.844
24943SOL    HW276727  10.404   5.901   4.902
24944SOL     OW76728  14.306   8.305   2.224
24944SOL    HW176729  14.383   8.249   2.215
24944SOL    HW276730  14.270   8.281   2.309
24945SOL     OW76731   2.800   1.091   8.760
24945SOL    HW176732   2.734   1.028   8.732
24945SOL    HW276733   2.825   1.063   8.848
24946SOL     OW76734   7.540  14.241   4.954
24946SOL    HW176735   7.576  14.221   5.040
24946SOL    HW276736   7.541  14.158   4.907
24947SOL     OW76737  13.010   6.268   0.432
24947SOL    HW176738  12.935   6.238   0.381
24947SOL    HW276739  13.058   6.326   0.373
24948SOL     OW76740   7.883  11.110  12.060
24948SOL    HW176741   7.883  11.195  12.016
24948SOL    HW276742   7.957  11.063  12.022
24949SOL     OW76743   0.357   7.278   7.922
24949SOL    HW176744   0.327   7.188   7.912
24949SOL    HW276745   0.420   7.275   7.994
24950SOL     OW76746  10.919   7.725  11.843
24950SOL    HW176747  10.845   7.784  11.857
24950SOL    HW276748  10.928   7.677  11.926
24951SOL     OW76749   5.179  14.549   7.197
24951SOL    HW176750   5.252  14.506   7.242
24951SOL    HW276751   5.101  14.520   7.244
24952SOL     OW76752  11.172  12.489   1.731
24952SOL    HW176753  11.111  12.544   1.780
24952SOL    HW276754  11.136  12.401   1.738
24953SOL     OW76755   0.608  11.743  12.034
24953SOL    HW176756   0.534  11.694  12.069
24953SOL    HW276757   0.634  11.802  12.105
24954SOL     OW76758   3.960  13.390   8.117
24954SOL    HW176759   4.016  13.313   8.128
24954SOL    HW276760   3.916  13.400   8.202
24955SOL     OW76761  10.528   7.526   0.387
24955SOL    HW176762  10.459   7.555   0.327
24955SOL    HW276763  10.519   7.430   0.390
24956SOL     OW76764  12.525   5.606   6.837
24956SOL    HW176765  12.561   5.686   6.800
24956SOL    HW276766  12.430   5.617   6.828
24957SOL     OW76767   6.093   4.552   4.967
24957SOL    HW176768   6.061   4.596   5.046
24957SOL    HW276769   6.015   4.544   4.911
24958SOL     OW76770   4.759  12.701  12.056
24958SOL    HW176771   4.735  12.629  12.113
24958SOL    HW276772   4.744  12.780  12.108
24959SOL     OW76773   7.310   6.058  11.270
24959SOL    HW176774   7.286   6.146  11.300
24959SOL    HW276775   7.376   6.029  11.332
24960SOL     OW76776   0.503   1.004  13.783
24960SOL    HW176777   0.425   1.059  13.792
24960SOL    HW276778   0.501   0.975  13.692
24961SOL     OW76779   8.898  12.521   0.183
24961SOL    HW176780   8.825  12.577   0.155
24961SOL    HW276781   8.924  12.557   0.268
24962SOL     OW76782  14.876   3.846   1.426
24962SOL    HW176783   0.086   3.861   1.446
24962SOL    HW276784  14.868   3.751   1.419
24963SOL     OW76785   3.437   5.500  13.672
24963SOL    HW176786   3.358   5.469  13.717
24963SOL    HW276787   3.469   5.572  13.726
24964SOL     OW76788   2.849   7.921   1.793
24964SOL    HW176789   2.879   7.937   1.703
24964SOL    HW276790   2.826   7.828   1.794
24965SOL     OW76791   1.828  14.131   7.642
24965SOL    HW176792   1.840  14.040   7.669
24965SOL    HW276793   1.736  14.150   7.661
24966SOL     OW76794   9.759  11.313   2.512
24966SOL    HW176795   9.759  11.406   2.490
24966SOL    HW276796   9.676  11.281   2.477
24967SOL     OW76797   1.074   3.285  13.825
24967SOL    HW176798   1.159   3.257  13.859
24967SOL    HW276799   1.010   3.238  13.879
24968SOL     OW76800  14.254   0.849   5.261
24968SOL    HW176801  14.193   0.922   5.254
24968SOL    HW276802  14.305   0.868   5.339
24969SOL     OW76803  14.739   0.049  13.106
24969SOL    HW176804  14.796   0.005  13.043
24969SOL    HW276805  14.788   0.047  13.189
24970SOL     OW76806  10.044   8.985   7.140
24970SOL    HW176807   9.949   8.984   7.125
24970SOL    HW276808  10.076   8.905   7.098
24971SOL     OW76809   3.172  10.181   5.513
24971SOL    HW176810   3.135  10.246   5.573
24971SOL    HW276811   3.145  10.210   5.426
24972SOL     OW76812   5.282  13.636  10.520
24972SOL    HW176813   5.234  13.553  10.513
24972SOL    HW276814   5.318  13.651  10.433
24973SOL     OW76815  10.866   8.069  10.504
24973SOL    HW176816  10.893   7.996  10.449
24973SOL    HW276817  10.944   8.093  10.554
24974SOL     OW76818   0.863   8.236  13.050
24974SOL    HW176819   0.833   8.309  12.997
24974SOL    HW276820   0.856   8.160  12.993
24975SOL     OW76821   1.656  10.727   2.242
24975SOL    HW176822   1.566  10.719   2.273
24975SOL    HW276823   1.654  10.697   2.152
24976SOL     OW76824  12.160   5.275  11.818
24976SOL    HW176825  12.088   5.285  11.757
24976SOL    HW276826  12.138   5.332  11.892
24977SOL     OW76827   8.115  13.967   9.566
24977SOL    HW176828   8.202  13.928   9.558
24977SOL    HW276829   8.062  13.900   9.608
24978SOL     OW76830   2.524   9.892   1.655
24978SOL    HW176831   2.604   9.842   1.641
24978SOL    HW276832   2.468   9.869   1.581
24979SOL     OW76833  12.578  13.075  13.121
24979SOL    HW176834  12.557  13.102  13.032
24979SOL    HW276835  12.564  13.154  13.173
24980SOL     OW76836   5.229  13.744  13.354
24980SOL    HW176837   5.269  13.667  13.395
24980SOL    HW276838   5.261  13.742  13.264
24981SOL     OW76839  14.213   8.652   1.963
24981SOL    HW176840  14.289   8.623   2.015
24981SOL    HW276841  14.144   8.589   1.985
24982SOL     OW76842   4.116   9.441   9.673
24982SOL    HW176843   4.203   9.418   9.641
24982SOL    HW276844   4.071   9.356   9.682
24983SOL     OW76845   8.850  13.008   8.760
24983SOL    HW176846   8.784  12.980   8.823
24983SOL    HW276847   8.807  13.075   8.708
24984SOL     OW76848  10.733  14.041   0.806
24984SOL    HW176849  10.803  13.977   0.821
24984SOL    HW276850  10.755  14.080   0.722
24985SOL     OW76851   1.366   6.448   7.326
24985SOL    HW176852   1.350   6.357   7.349
24985SOL    HW276853   1.288   6.475   7.278
24986SOL     OW76854   0.781   9.834   1.333
24986SOL    HW176855   0.835   9.833   1.254
24986SOL    HW276856   0.839   9.800   1.401
24987SOL     OW76857  14.669  12.980   7.852
24987SOL    HW176858  14.635  13.069   7.861
24987SOL    HW276859  14.760  12.993   7.823
24988SOL     OW76860   8.176  11.807   7.854
24988SOL    HW176861   8.269  11.829   7.851
24988SOL    HW276862   8.132  11.891   7.862
24989SOL     OW76863  10.164  10.459   4.621
24989SOL    HW176864  10.202  10.402   4.688
24989SOL    HW276865  10.189  10.547   4.647
24990SOL     OW76866   9.497  11.256  10.186
24990SOL    HW176867   9.419  11.301  10.219
24990SOL    HW276868   9.486  11.165  10.214
24991SOL     OW76869   5.615  11.783  13.066
24991SOL    HW176870   5.603  11.782  12.971
24991SOL    HW276871   5.661  11.701  13.085
24992SOL     OW76872  12.817   7.957   2.747
24992SOL    HW176873  12.752   7.944   2.678
24992SOL    HW276874  12.883   8.013   2.707
24993SOL     OW76875   7.711   3.931  13.979
24993SOL    HW176876   7.743   4.003  14.033
24993SOL    HW276877   7.744   3.852  14.022
24994SOL     OW76878  10.719   5.840  10.335
24994SOL    HW176879  10.779   5.894  10.286
24994SOL    HW276880  10.741   5.750  10.310
24995SOL     OW76881  10.894   0.511  14.607
24995SOL    HW176882  10.832   0.559  14.552
24995SOL    HW276883  10.884   0.551  14.694
24996SOL     OW76884  13.420  12.011   4.740
24996SOL    HW176885  13.355  12.074   4.772
24996SOL    HW276886  13.500  12.062   4.728
24997SOL     OW76887   3.026   1.526   6.343
24997SOL    HW176888   3.054   1.455   6.285
24997SOL    HW276889   3.047   1.494   6.431
24998SOL     OW76890   8.859  13.175   8.011
24998SOL    HW176891   8.811  13.142   8.088
24998SOL    HW276892   8.888  13.096   7.966
24999SOL     OW76893   6.390   9.576  14.284
24999SOL    HW176894   6.375   9.575  14.189
24999SOL    HW276895   6.356   9.662  14.312
25000SOL     OW76896  13.080  12.779   8.164
25000SOL    HW176897  13.115  12.690   8.175
25000SOL    HW276898  13.062  12.809   8.253
25001SOL     OW76899  12.070  12.431   3.261
25001SOL    HW176900  12.138  12.498   3.251
25001SOL    HW276901  12.015  12.464   3.333
25002SOL     OW76902   2.409  12.240   4.944
25002SOL    HW176903   2.388  12.327   4.978
25002SOL    HW276904   2.443  12.192   5.020
25003SOL     OW76905   4.996   8.458   8.726
25003SOL    HW176906   5.061   8.510   8.773
25003SOL    HW276907   4.972   8.388   8.787
25004SOL     OW76908   0.957  14.168  10.705
25004SOL    HW176909   0.901  14.173  10.783
25004SOL    HW276910   0.899  14.185  10.632
25005SOL     OW76911   7.216   8.555   0.738
25005SOL    HW176912   7.238   8.467   0.708
25005SOL    HW276913   7.293   8.608   0.714
25006SOL     OW76914   1.569  13.596   8.714
25006SOL    HW176915   1.627  13.529   8.678
25006SOL    HW276916   1.586  13.673   8.660
25007SOL     OW76917   4.855   5.724   1.180
25007SOL    HW176918   4.826   5.792   1.119
25007SOL    HW276919   4.822   5.642   1.142
25008SOL     OW76920  10.358  11.974   1.684
25008SOL    HW176921  10.319  12.061   1.689
25008SOL    HW276922  10.387  11.955   1.773
25009SOL     OW76923   2.565  12.485   8.908
25009SOL    HW176924   2.611  12.405   8.932
25009SOL    HW276925   2.504  12.458   8.839
25010SOL     OW76926   7.663   8.662  10.404
25010SOL    HW176927   7.585   8.608  10.390
25010SOL    HW276928   7.687   8.646  10.495
25011SOL     OW76929   7.697   3.016   6.851
25011SOL    HW176930   7.642   3.007   6.929
25011SOL    HW276931   7.747   2.935   6.848
25012SOL     OW76932   0.672  11.548   0.526
25012SOL    HW176933   0.768  11.541   0.525
25012SOL    HW276934   0.643  11.476   0.470
25013SOL     OW76935  12.514   0.678   6.768
25013SOL    HW176936  12.507   0.593   6.725
25013SOL    HW276937  12.604   0.706   6.752
25014SOL     OW76938   1.755   1.573  10.287
25014SOL    HW176939   1.705   1.621  10.221
25014SOL    HW276940   1.697   1.502  10.314
25015SOL     OW76941  11.351  11.435  13.931
25015SOL    HW176942  11.375  11.408  13.842
25015SOL    HW276943  11.287  11.369  13.959
25016SOL     OW76944   2.170   2.743  14.359
25016SOL    HW176945   2.146   2.760  14.450
25016SOL    HW276946   2.093   2.771  14.309
25017SOL     OW76947   3.492  10.826  12.886
25017SOL    HW176948   3.500  10.826  12.791
25017SOL    HW276949   3.463  10.915  12.907
25018SOL     OW76950  11.150   4.968   3.056
25018SOL    HW176951  11.067   4.921   3.050
25018SOL    HW276952  11.171   4.992   2.966
25019SOL     OW76953   4.815   6.442  11.045
25019SOL    HW176954   4.732   6.444  10.998
25019SOL    HW276955   4.792   6.410  11.132
25020SOL     OW76956   2.741  13.963  13.601
25020SOL    HW176957   2.809  13.938  13.539
25020SOL    HW276958   2.754  14.057  13.615
25021SOL     OW76959   6.809   7.408  13.974
25021SOL    HW176960   6.734   7.416  14.034
25021SOL    HW276961   6.881   7.451  14.020
25022SOL     OW76962  12.704  13.771  12.853
25022SOL    HW176963  12.763  13.820  12.796
25022SOL    HW276964  12.628  13.752  12.798
25023SOL     OW76965   3.538   4.181   5.492
25023SOL    HW176966   3.575   4.265   5.517
25023SOL    HW276967   3.602   4.142   5.433
25024SOL     OW76968   2.141  12.381  11.955
25024SOL    HW176969   2.114  12.322  12.026
25024SOL    HW276970   2.222  12.342  11.921
25025SOL     OW76971   8.805   6.221   8.618
25025SOL    HW176972   8.786   6.144   8.564
25025SOL    HW276973   8.795   6.295   8.558
25026SOL     OW76974   6.805   3.362  10.849
25026SOL    HW176975   6.761   3.327  10.927
25026SOL    HW276976   6.836   3.449  10.876
25027SOL     OW76977   5.191   5.104  12.219
25027SOL    HW176978   5.253   5.170  12.187
25027SOL    HW276979   5.108   5.151  12.228
25028SOL     OW76980   4.967  12.289   5.978
25028SOL    HW176981   4.992  12.352   6.046
25028SOL    HW276982   4.972  12.339   5.896
25029SOL     OW76983  11.705   6.355  11.601
25029SOL    HW176984  11.682   6.447  11.614
25029SOL    HW276985  11.691   6.340  11.508
25030SOL     OW76986   1.952   1.181   5.987
25030SOL    HW176987   1.982   1.111   5.928
25030SOL    HW276988   2.016   1.251   5.973
25031SOL     OW76989  13.626   7.807   9.583
25031SOL    HW176990  13.706   7.858   9.569
25031SOL    HW276991  13.555   7.872   9.579
25032SOL     OW76992   8.172   4.772  13.462
25032SOL    HW176993   8.091   4.724  13.444
25032SOL    HW276994   8.242   4.709  13.444
25033SOL     OW76995  12.184  13.740  12.795
25033SOL    HW176996  12.227  13.675  12.851
25033SOL    HW276997  12.126  13.688  12.739
25034SOL     OW76998   3.289  13.644   4.291
25034SOL    HW176999   3.195  13.658   4.280
25034SOL    HW277000   3.305  13.660   4.384
25035SOL     OW77001   4.512   1.146   9.483
25035SOL    HW177002   4.498   1.235   9.516
25035SOL    HW277003   4.530   1.095   9.562
25036SOL     OW77004  14.072   5.707  11.181
25036SOL    HW177005  14.076   5.742  11.270
25036SOL    HW277006  14.159   5.669  11.167
25037SOL     OW77007  12.698  13.333   9.712
25037SOL    HW177008  12.628  13.328   9.647
25037SOL    HW277009  12.670  13.404   9.771
25038SOL     OW77010   4.060   2.115   6.213
25038SOL    HW177011   4.127   2.115   6.145
25038SOL    HW277012   4.080   2.039   6.267
25039SOL     OW77013  10.855   8.907   2.489
25039SOL    HW177014  10.850   8.923   2.584
25039SOL    HW277015  10.884   8.990   2.452
25040SOL     OW77016  12.387   4.690   7.867
25040SOL    HW177017  12.306   4.639   7.867
25040SOL    HW277018  12.367   4.768   7.815
25041SOL     OW77019   8.054  10.920   2.248
25041SOL    HW177020   8.017  10.990   2.301
25041SOL    HW277021   8.044  10.950   2.158
25042SOL     OW77022  14.106  13.202   0.997
25042SOL    HW177023  14.094  13.198   1.092
25042SOL    HW277024  14.031  13.252   0.965
25043SOL     OW77025  12.880  11.276   6.891
25043SOL    HW177026  12.902  11.239   6.806
25043SOL    HW277027  12.818  11.213   6.928
25044SOL     OW77028  10.936   6.997   8.502
25044SOL    HW177029  10.976   7.029   8.583
25044SOL    HW277030  10.995   6.928   8.471
25045SOL     OW77031   0.587  11.399   2.097
25045SOL    HW177032   0.532  11.477   2.100
25045SOL    HW277033   0.635  11.407   2.014
25046SOL     OW77034   2.773  10.686   9.872
25046SOL    HW177035   2.707  10.705   9.805
25046SOL    HW277036   2.728  10.699   9.955
25047SOL     OW77037  12.597  13.097  13.932
25047SOL    HW177038  12.578  13.175  13.880
25047SOL    HW277039  12.572  13.121  14.021
25048SOL     OW77040  10.877  13.859   2.421
25048SOL    HW177041  10.926  13.781   2.445
25048SOL    HW277042  10.932  13.904   2.357
25049SOL     OW77043   8.791  11.552   5.460
25049SOL    HW177044   8.797  11.544   5.555
25049SOL    HW277045   8.845  11.479   5.427
25050SOL     OW77046   6.682  10.896  13.080
25050SOL    HW177047   6.658  10.817  13.033
25050SOL    HW277048   6.598  10.937  13.103
25051SOL     OW77049   6.733   3.044  14.847
25051SOL    HW177050   6.789   2.976   0.003
25051SOL    HW277051   6.764   3.052  14.757
25052SOL     OW77052  13.838   2.629   6.469
25052SOL    HW177053  13.880   2.567   6.529
25052SOL    HW277054  13.761   2.660   6.517
25053SOL     OW77055  13.268   7.784   0.575
25053SOL    HW177056  13.291   7.691   0.574
25053SOL    HW277057  13.280   7.810   0.666
25054SOL     OW77058  14.545   9.647   8.918
25054SOL    HW177059  14.451   9.648   8.899
25054SOL    HW277060  14.551   9.684   9.007
25055SOL     OW77061  11.232   5.806  10.170
25055SOL    HW177062  11.230   5.902  10.164
25055SOL    HW277063  11.169   5.785  10.239
25056SOL     OW77064  14.437   6.108   1.540
25056SOL    HW177065  14.419   6.014   1.546
25056SOL    HW277066  14.530   6.116   1.561
25057SOL     OW77067   2.099  14.348   7.689
25057SOL    HW177068   2.026  14.383   7.638
25057SOL    HW277069   2.176  14.368   7.636
25058SOL     OW77070  11.092   3.779   7.194
25058SOL    HW177071  11.027   3.710   7.212
25058SOL    HW277072  11.132   3.753   7.111
25059SOL     OW77073   0.328  14.532   9.774
25059SOL    HW177074   0.267  14.471   9.817
25059SOL    HW277075   0.296  14.537   9.683
25060SOL     OW77076   5.482   8.243   3.809
25060SOL    HW177077   5.556   8.182   3.819
25060SOL    HW277078   5.413   8.190   3.770
25061SOL     OW77079   8.711   5.311  12.650
25061SOL    HW177080   8.715   5.330  12.556
25061SOL    HW277081   8.779   5.366  12.688
25062SOL     OW77082   7.383   1.455  14.392
25062SOL    HW177083   7.302   1.499  14.367
25062SOL    HW277084   7.359   1.363  14.400
25063SOL     OW77085  12.651   3.311   6.111
25063SOL    HW177086  12.708   3.329   6.186
25063SOL    HW277087  12.565   3.293   6.149
25064SOL     OW77088   1.492   8.393  11.423
25064SOL    HW177089   1.559   8.441  11.375
25064SOL    HW277090   1.440   8.461  11.466
25065SOL     OW77091   2.489  13.222   7.763
25065SOL    HW177092   2.397  13.216   7.738
25065SOL    HW277093   2.536  13.180   7.691
25066SOL     OW77094   5.523   6.903   1.572
25066SOL    HW177095   5.521   6.887   1.667
25066SOL    HW277096   5.495   6.820   1.533
25067SOL     OW77097  11.191   8.637   6.183
25067SOL    HW177098  11.281   8.624   6.212
25067SOL    HW277099  11.137   8.602   6.255
25068SOL     OW77100  14.159   1.156  14.857
25068SOL    HW177101  14.125   1.240  14.827
25068SOL    HW277102  14.113   1.140   0.058
25069SOL     OW77103   4.333  12.520   0.787
25069SOL    HW177104   4.247  12.497   0.822
25069SOL    HW277105   4.339  12.473   0.704
25070SOL     OW77106   6.243   1.524  12.918
25070SOL    HW177107   6.166   1.468  12.919
25070SOL    HW277108   6.215   1.604  12.964
25071SOL     OW77109  14.202   5.768   0.171
25071SOL    HW177110  14.203   5.864   0.165
25071SOL    HW277111  14.290   5.741   0.145
25072SOL     OW77112  10.526   9.331  13.010
25072SOL    HW177113  10.453   9.273  12.988
25072SOL    HW277114  10.592   9.314  12.943
25073SOL     OW77115   2.840   6.559   0.100
25073SOL    HW177116   2.763   6.511   0.072
25073SOL    HW277117   2.912   6.521   0.050
25074SOL     OW77118  14.153   0.316   6.136
25074SOL    HW177119  14.140   0.237   6.189
25074SOL    HW277120  14.204   0.374   6.191
25075SOL     OW77121   6.512   4.653   5.800
25075SOL    HW177122   6.529   4.563   5.771
25075SOL    HW277123   6.434   4.679   5.752
25076SOL     OW77124  13.773   1.164   6.284
25076SOL    HW177125  13.763   1.156   6.189
25076SOL    HW277126  13.807   1.079   6.312
25077SOL     OW77127   8.941   2.874   9.404
25077SOL    HW177128   8.943   2.827   9.321
25077SOL    HW277129   8.979   2.960   9.385
25078SOL     OW77130  11.517   0.786  14.390
25078SOL    HW177131  11.473   0.823  14.466
25078SOL    HW277132  11.455   0.722  14.355
25079SOL     OW77133  13.787  13.539   4.791
25079SOL    HW177134  13.871  13.565   4.828
25079SOL    HW277135  13.724  13.602   4.828
25080SOL     OW77136  13.278   5.846   8.993
25080SOL    HW177137  13.326   5.834   8.911
25080SOL    HW277138  13.280   5.940   9.009
25081SOL     OW77139   9.714  13.732   6.318
25081SOL    HW177140   9.693  13.676   6.393
25081SOL    HW277141   9.643  13.796   6.315
25082SOL     OW77142   4.793  14.537   1.347
25082SOL    HW177143   4.784  14.532   1.252
25082SOL    HW277144   4.704  14.553   1.379
25083SOL     OW77145   4.392   8.107  10.089
25083SOL    HW177146   4.471   8.160  10.100
25083SOL    HW277147   4.352   8.139  10.008
25084SOL     OW77148  14.146  12.837  11.116
25084SOL    HW177149  14.176  12.926  11.096
25084SOL    HW277150  14.205  12.807  11.185
25085SOL     OW77151   4.279  13.034   7.164
25085SOL    HW177152   4.336  13.036   7.087
25085SOL    HW277153   4.196  12.998   7.132
25086SOL     OW77154   6.650   7.457  10.638
25086SOL    HW177155   6.610   7.387  10.586
25086SOL    HW277156   6.597   7.535  10.619
25087SOL     OW77157   5.516   0.264   7.380
25087SOL    HW177158   5.611   0.260   7.370
25087SOL    HW277159   5.502   0.307   7.464
25088SOL     OW77160  14.584  12.265   1.328
25088SOL    HW177161  14.539  12.336   1.374
25088SOL    HW277162  14.588  12.294   1.237
25089SOL     OW77163   4.305   0.702   2.429
25089SOL    HW177164   4.360   0.761   2.377
25089SOL    HW277165   4.295   0.748   2.512
25090SOL     OW77166  12.407   4.536   5.786
25090SOL    HW177167  12.419   4.610   5.845
25090SOL    HW277168  12.383   4.463   5.843
25091SOL     OW77169   0.922   2.944  11.935
25091SOL    HW177170   0.945   2.876  11.873
25091SOL    HW277171   0.907   2.898  12.017
25092SOL     OW77172  14.495   3.310   1.108
25092SOL    HW177173  14.500   3.385   1.049
25092SOL    HW277174  14.403   3.284   1.107
25093SOL     OW77175   2.813  14.075  10.289
25093SOL    HW177176   2.724  14.040  10.291
25093SOL    HW277177   2.866  14.008  10.333
25094SOL     OW77178   6.410  12.539   5.017
25094SOL    HW177179   6.398  12.603   5.086
25094SOL    HW277180   6.493  12.495   5.039
25095SOL     OW77181   1.978  14.336   8.931
25095SOL    HW177182   1.908  14.386   8.889
25095SOL    HW277183   1.933  14.276   8.991
25096SOL     OW77184   4.139   4.000   5.709
25096SOL    HW177185   4.115   3.908   5.717
25096SOL    HW277186   4.110   4.025   5.621
25097SOL     OW77187   9.759   6.526  14.502
25097SOL    HW177188   9.770   6.602  14.445
25097SOL    HW277189   9.840   6.477  14.491
25098SOL     OW77190   4.246  13.118   0.143
25098SOL    HW177191   4.223  13.115   0.235
25098SOL    HW277192   4.277  13.208   0.129
25099SOL     OW77193   2.320   9.808   1.486
25099SOL    HW177194   2.326   9.849   1.400
25099SOL    HW277195   2.267   9.730   1.472
25100SOL     OW77196  13.417   7.743  12.192
25100SOL    HW177197  13.344   7.806  12.192
25100SOL    HW277198  13.477   7.776  12.124
25101SOL     OW77199   9.015  12.264   6.623
25101SOL    HW177200   8.989  12.183   6.580
25101SOL    HW277201   9.010  12.330   6.554
25102SOL     OW77202   1.160   7.797  13.951
25102SOL    HW177203   1.201   7.879  13.976
25102SOL    HW277204   1.215   7.729  13.991
25103SOL     OW77205   5.334  12.204   6.543
25103SOL    HW177206   5.375  12.196   6.457
25103SOL    HW277207   5.240  12.194   6.525
25104SOL     OW77208  10.080  12.684  10.528
25104SOL    HW177209  10.126  12.647  10.603
25104SOL    HW277210  10.036  12.609  10.488
25105SOL     OW77211   2.278   2.567  11.129
25105SOL    HW177212   2.236   2.571  11.044
25105SOL    HW277213   2.226   2.625  11.184
25106SOL     OW77214   5.607  13.132   7.256
25106SOL    HW177215   5.602  13.116   7.162
25106SOL    HW277216   5.522  13.169   7.279
25107SOL     OW77217   7.938   1.845   9.724
25107SOL    HW177218   7.871   1.851   9.656
25107SOL    HW277219   7.917   1.915   9.785
25108SOL     OW77220   8.030   6.617  14.648
25108SOL    HW177221   8.032   6.699  14.698
25108SOL    HW277222   8.123   6.595  14.636
25109SOL     OW77223  14.494  12.886   8.680
25109SOL    HW177224  14.439  12.881   8.758
25109SOL    HW277225  14.544  12.805   8.681
25110SOL     OW77226  13.071   8.974  10.839
25110SOL    HW177227  12.985   8.988  10.800
25110SOL    HW277228  13.077   8.879  10.851
25111SOL     OW77229   9.680  14.773  11.613
25111SOL    HW177230   9.700  14.732  11.698
25111SOL    HW277231   9.725  14.718  11.549
25112SOL     OW77232  14.224  13.133   4.111
25112SOL    HW177233  14.211  13.167   4.200
25112SOL    HW277234  14.314  13.156   4.089
25113SOL     OW77235   6.474  13.204   1.283
25113SOL    HW177236   6.539  13.163   1.340
25113SOL    HW277237   6.423  13.131   1.248
25114SOL     OW77238  10.703   1.848   5.541
25114SOL    HW177239  10.755   1.824   5.617
25114SOL    HW277240  10.648   1.920   5.571
25115SOL     OW77241   5.842   2.313   0.713
25115SOL    HW177242   5.929   2.321   0.751
25115SOL    HW277243   5.827   2.398   0.670
25116SOL     OW77244   0.188   3.183   3.871
25116SOL    HW177245   0.209   3.221   3.956
25116SOL    HW277246   0.095   3.200   3.858
25117SOL     OW77247   4.417   8.958  12.900
25117SOL    HW177248   4.411   8.896  12.973
25117SOL    HW277249   4.379   8.911  12.826
25118SOL     OW77250   1.290   6.071   6.611
25118SOL    HW177251   1.216   6.087   6.552
25118SOL    HW277252   1.259   6.001   6.669
25119SOL     OW77253   9.636  14.378   2.318
25119SOL    HW177254   9.726  14.406   2.300
25119SOL    HW277255   9.645  14.288   2.348
25120SOL     OW77256   6.593  10.470   2.299
25120SOL    HW177257   6.649  10.490   2.224
25120SOL    HW277258   6.652  10.468   2.374
25121SOL     OW77259   8.739   7.840   7.538
25121SOL    HW177260   8.765   7.918   7.587
25121SOL    HW277261   8.652   7.818   7.572
25122SOL     OW77262   8.279  13.125   5.703
25122SOL    HW177263   8.302  13.115   5.610
25122SOL    HW277264   8.288  13.218   5.719
25123SOL     OW77265   9.745   2.561   6.373
25123SOL    HW177266   9.651   2.546   6.385
25123SOL    HW277267   9.787   2.486   6.414
25124SOL     OW77268  10.957   6.253  14.117
25124SOL    HW177269  10.954   6.244  14.212
25124SOL    HW277270  10.947   6.163  14.084
25125SOL     OW77271  12.036   4.341  14.545
25125SOL    HW177272  12.009   4.427  14.512
25125SOL    HW277273  12.073   4.359  14.632
25126SOL     OW77274   3.394  12.335  12.114
25126SOL    HW177275   3.487  12.329  12.136
25126SOL    HW277276   3.391  12.311  12.021
25127SOL     OW77277   5.875   3.453  13.138
25127SOL    HW177278   5.792   3.425  13.100
25127SOL    HW277279   5.856   3.538  13.178
25128SOL     OW77280   5.082   0.993   0.656
25128SOL    HW177281   5.048   1.063   0.601
25128SOL    HW277282   5.171   0.978   0.624
25129SOL     OW77283   3.004   0.066   3.550
25129SOL    HW177284   3.086   0.093   3.592
25129SOL    HW277285   3.017  14.855   3.530
25130SOL     OW77286  10.276  14.352  11.693
25130SOL    HW177287  10.230  14.353  11.777
25130SOL    HW277288  10.208  14.327  11.630
25131SOL     OW77289  10.848  10.006  12.790
25131SOL    HW177290  10.929  10.028  12.745
25131SOL    HW277291  10.793   9.965  12.723
25132SOL     OW77292  11.074   0.172   9.035
25132SOL    HW177293  11.011   0.188   9.106
25132SOL    HW277294  11.146   0.232   9.054
25133SOL     OW77295   8.409   0.269   7.983
25133SOL    HW177296   8.335   0.239   7.930
25133SOL    HW277297   8.437   0.192   8.032
25134SOL     OW77298   1.328   4.262   1.233
25134SOL    HW177299   1.359   4.317   1.161
25134SOL    HW277300   1.299   4.181   1.190
25135SOL     OW77301   9.759   3.692   9.695
25135SOL    HW177302   9.834   3.666   9.641
25135SOL    HW277303   9.762   3.787   9.696
25136SOL     OW77304   1.125   0.402   0.457
25136SOL    HW177305   1.201   0.409   0.398
25136SOL    HW277306   1.053   0.441   0.408
25137SOL     OW77307  13.941   1.195   8.903
25137SOL    HW177308  13.885   1.123   8.874
25137SOL    HW277309  14.021   1.186   8.852
25138SOL     OW77310   4.099   4.190  12.063
25138SOL    HW177311   4.068   4.104  12.035
25138SOL    HW277312   4.194   4.180  12.069
25139SOL     OW77313   3.300   1.264   2.407
25139SOL    HW177314   3.266   1.259   2.496
25139SOL    HW277315   3.247   1.202   2.357
25140SOL     OW77316   6.482  11.121  14.019
25140SOL    HW177317   6.510  11.201  14.064
25140SOL    HW277318   6.512  11.133  13.929
25141SOL     OW77319  13.859   3.141  11.669
25141SOL    HW177320  13.840   3.177  11.755
25141SOL    HW277321  13.839   3.213  11.608
25142SOL     OW77322   0.861  11.170   4.587
25142SOL    HW177323   0.943  11.127   4.565
25142SOL    HW277324   0.805  11.101   4.623
25143SOL     OW77325  13.879   8.903   2.952
25143SOL    HW177326  13.860   8.903   3.046
25143SOL    HW277327  13.972   8.885   2.947
25144SOL     OW77328  12.533   9.875  14.167
25144SOL    HW177329  12.611   9.824  14.184
25144SOL    HW277330  12.554   9.963  14.201
25145SOL     OW77331   5.071  13.304  10.193
25145SOL    HW177332   5.039  13.223  10.233
25145SOL    HW277333   5.133  13.275  10.127
25146SOL     OW77334  10.190   6.139   2.755
25146SOL    HW177335  10.237   6.143   2.671
25146SOL    HW277336  10.136   6.218   2.755
25147SOL     OW77337  12.156   3.593   5.681
25147SOL    HW177338  12.139   3.558   5.594
25147SOL    HW277339  12.251   3.600   5.686
25148SOL     OW77340   3.452   3.909   9.724
25148SOL    HW177341   3.429   3.917   9.631
25148SOL    HW277342   3.381   3.953   9.770
25149SOL     OW77343  14.866  13.623   1.254
25149SOL    HW177344   0.036  13.565   1.199
25149SOL    HW277345  14.828  13.687   1.193
25150SOL     OW77346   2.859   5.283   3.229
25150SOL    HW177347   2.840   5.374   3.253
25150SOL    HW277348   2.826   5.273   3.140
25151SOL     OW77349   8.590   4.849   4.109
25151SOL    HW177350   8.504   4.873   4.075
25151SOL    HW277351   8.640   4.823   4.032
25152SOL     OW77352   2.537   7.863   3.581
25152SOL    HW177353   2.490   7.834   3.660
25152SOL    HW277354   2.480   7.837   3.508
25153SOL     OW77355   5.289   1.821  12.742
25153SOL    HW177356   5.333   1.892  12.787
25153SOL    HW277357   5.202   1.816  12.784
25154SOL     OW77358   8.333  10.026  13.300
25154SOL    HW177359   8.402  10.052  13.238
25154SOL    HW277360   8.275   9.969  13.249
25155SOL     OW77361  13.750  11.413  11.444
25155SOL    HW177362  13.821  11.362  11.481
25155SOL    HW277363  13.672  11.359  11.457
25156SOL     OW77364   6.574   6.768  11.988
25156SOL    HW177365   6.620   6.750  12.070
25156SOL    HW277366   6.567   6.864  11.986
25157SOL     OW77367   0.896  13.464   4.387
25157SOL    HW177368   0.949  13.387   4.368
25157SOL    HW277369   0.846  13.440   4.464
25158SOL     OW77370   9.709  12.631   0.802
25158SOL    HW177371   9.783  12.572   0.814
25158SOL    HW277372   9.660  12.625   0.884
25159SOL     OW77373   8.425  12.227   0.949
25159SOL    HW177374   8.419  12.321   0.964
25159SOL    HW277375   8.400  12.188   1.033
25160SOL     OW77376   4.392   4.166  12.082
25160SOL    HW177377   4.463   4.196  12.138
25160SOL    HW277378   4.379   4.237  12.019
25161SOL     OW77379   1.722  14.179  10.709
25161SOL    HW177380   1.754  14.121  10.778
25161SOL    HW277381   1.726  14.267  10.749
25162SOL     OW77382   0.448   1.277  14.544
25162SOL    HW177383   0.534   1.316  14.526
25162SOL    HW277384   0.393   1.304  14.470
25163SOL     OW77385   2.470   8.142   7.622
25163SOL    HW177386   2.552   8.107   7.656
25163SOL    HW277387   2.459   8.226   7.668
25164SOL     OW77388  11.045   6.320  13.765
25164SOL    HW177389  11.058   6.356  13.853
25164SOL    HW277390  11.037   6.226  13.780
25165SOL     OW77391   7.421   5.494   1.539
25165SOL    HW177392   7.450   5.406   1.516
25165SOL    HW277393   7.489   5.527   1.597
25166SOL     OW77394  12.596  13.401   5.917
25166SOL    HW177395  12.661  13.332   5.903
25166SOL    HW277396  12.637  13.480   5.885
25167SOL     OW77397   9.779   0.363  11.440
25167SOL    HW177398   9.831   0.442  11.451
25167SOL    HW277399   9.826   0.312  11.373
25168SOL     OW77400   9.440  14.530   2.503
25168SOL    HW177401   9.494  14.477   2.445
25168SOL    HW277402   9.368  14.472   2.528
25169SOL     OW77403   8.181   7.564  13.832
25169SOL    HW177404   8.192   7.631  13.900
25169SOL    HW277405   8.262   7.567  13.782
25170SOL     OW77406  12.884   0.661   3.444
25170SOL    HW177407  12.882   0.732   3.508
25170SOL    HW277408  12.792   0.644   3.425
25171SOL     OW77409   3.531  10.825   9.041
25171SOL    HW177410   3.613  10.875   9.043
25171SOL    HW277411   3.556  10.736   9.063
25172SOL     OW77412   4.752  14.712   8.970
25172SOL    HW177413   4.810  14.733   8.896
25172SOL    HW277414   4.720  14.797   9.000
25173SOL     OW77415  13.618   6.313   6.790
25173SOL    HW177416  13.638   6.399   6.826
25173SOL    HW277417  13.525   6.317   6.768
25174SOL     OW77418   9.199   1.192   2.302
25174SOL    HW177419   9.258   1.130   2.344
25174SOL    HW277420   9.146   1.139   2.242
25175SOL     OW77421  11.569   4.663  13.264
25175SOL    HW177422  11.534   4.594  13.320
25175SOL    HW277423  11.492   4.713  13.237
25176SOL     OW77424  13.079   1.467   0.846
25176SOL    HW177425  13.008   1.404   0.835
25176SOL    HW277426  13.047   1.548   0.806
25177SOL     OW77427   9.599   6.859  10.230
25177SOL    HW177428   9.691   6.850  10.207
25177SOL    HW277429   9.563   6.771  10.221
25178SOL     OW77430  14.592   5.855   6.711
25178SOL    HW177431  14.572   5.891   6.624
25178SOL    HW277432  14.617   5.764   6.694
25179SOL     OW77433  11.209   4.515  14.636
25179SOL    HW177434  11.180   4.587  14.580
25179SOL    HW277435  11.128   4.471  14.661
25180SOL     OW77436   9.393  13.012   9.019
25180SOL    HW177437   9.327  13.064   9.065
25180SOL    HW277438   9.462  13.076   8.997
25181SOL     OW77439  13.403   1.107   4.784
25181SOL    HW177440  13.466   1.035   4.778
25181SOL    HW277441  13.428   1.166   4.713
25182SOL     OW77442   2.505   2.484   4.619
25182SOL    HW177443   2.411   2.482   4.601
25182SOL    HW277444   2.514   2.540   4.697
25183SOL     OW77445   9.041  13.794  10.353
25183SOL    HW177446   9.005  13.737  10.284
25183SOL    HW277447   8.966  13.815  10.408
25184SOL     OW77448  10.363  13.469   6.761
25184SOL    HW177449  10.365  13.412   6.683
25184SOL    HW277450  10.364  13.408   6.834
25185SOL     OW77451   0.781   4.840   8.479
25185SOL    HW177452   0.716   4.815   8.544
25185SOL    HW277453   0.773   4.936   8.474
25186SOL     OW77454   5.330  10.195   9.608
25186SOL    HW177455   5.300  10.216   9.697
25186SOL    HW277456   5.399  10.259   9.591
25187SOL     OW77457   0.945   9.891   7.150
25187SOL    HW177458   0.902   9.945   7.217
25187SOL    HW277459   0.884   9.817   7.137
25188SOL     OW77460   2.727  13.486   5.011
25188SOL    HW177461   2.724  13.578   4.987
25188SOL    HW277462   2.818  13.460   4.997
25189SOL     OW77463   1.742   4.118   8.225
25189SOL    HW177464   1.766   4.110   8.133
25189SOL    HW277465   1.812   4.171   8.264
25190SOL     OW77466  14.675   9.123  12.598
25190SOL    HW177467  14.745   9.058  12.588
25190SOL    HW277468  14.643   9.138  12.509
25191SOL     OW77469   7.523   0.177   1.992
25191SOL    HW177470   7.472   0.190   2.072
25191SOL    HW277471   7.474   0.111   1.943
25192SOL     OW77472   1.206   0.980   8.785
25192SOL    HW177473   1.254   0.945   8.859
25192SOL    HW277474   1.164   1.060   8.818
25193SOL     OW77475  12.754   8.171  13.193
25193SOL    HW177476  12.819   8.174  13.263
25193SOL    HW277477  12.803   8.197  13.114
25194SOL     OW77478  10.871  12.187   9.691
25194SOL    HW177479  10.873  12.271   9.736
25194SOL    HW277480  10.814  12.201   9.615
25195SOL     OW77481   7.472  13.790   0.453
25195SOL    HW177482   7.420  13.710   0.445
25195SOL    HW277483   7.466  13.832   0.367
25196SOL     OW77484  11.137  12.600  12.049
25196SOL    HW177485  11.183  12.607  11.965
25196SOL    HW277486  11.136  12.689  12.083
25197SOL     OW77487   9.869   2.146  14.242
25197SOL    HW177488   9.902   2.214  14.301
25197SOL    HW277489   9.787   2.117  14.282
25198SOL     OW77490   9.958   9.259   3.520
25198SOL    HW177491   9.996   9.339   3.485
25198SOL    HW277492  10.031   9.197   3.520
25199SOL     OW77493   6.652  12.058   3.426
25199SOL    HW177494   6.654  12.039   3.520
25199SOL    HW277495   6.744  12.067   3.401
25200SOL     OW77496   1.789  12.525   2.067
25200SOL    HW177497   1.743  12.475   1.998
25200SOL    HW277498   1.864  12.470   2.089
25201SOL     OW77499   6.449  14.510  12.722
25201SOL    HW177500   6.411  14.551  12.800
25201SOL    HW277501   6.376  14.506  12.660
25202SOL     OW77502   0.438  14.637   0.429
25202SOL    HW177503   0.527  14.621   0.397
25202SOL    HW277504   0.415  14.558   0.477
25203SOL     OW77505   5.990   2.127   8.817
25203SOL    HW177506   5.968   2.036   8.836
25203SOL    HW277507   5.909   2.164   8.781
25204SOL     OW77508   4.324   0.104   2.164
25204SOL    HW177509   4.365   0.018   2.152
25204SOL    HW277510   4.358   0.135   2.248
25205SOL     OW77511   8.498   1.236   5.931
25205SOL    HW177512   8.445   1.312   5.908
25205SOL    HW277513   8.518   1.195   5.847
25206SOL     OW77514   2.123   5.032   8.172
25206SOL    HW177515   2.103   4.938   8.174
25206SOL    HW277516   2.076   5.065   8.095
25207SOL     OW77517   5.335  11.408   6.285
25207SOL    HW177518   5.240  11.416   6.280
25207SOL    HW277519   5.357  11.432   6.375
25208SOL     OW77520  13.214   5.707   8.152
25208SOL    HW177521  13.236   5.615   8.169
25208SOL    HW277522  13.296   5.744   8.118
25209SOL     OW77523  14.422  10.898   1.142
25209SOL    HW177524  14.461  10.965   1.197
25209SOL    HW277525  14.497  10.850   1.106
25210SOL     OW77526   2.323  13.125   3.831
25210SOL    HW177527   2.315  13.110   3.737
25210SOL    HW277528   2.240  13.166   3.857
25211SOL     OW77529   6.628  12.313   4.532
25211SOL    HW177530   6.690  12.383   4.510
25211SOL    HW277531   6.683  12.244   4.570
25212SOL     OW77532  13.074   2.169  11.358
25212SOL    HW177533  13.002   2.113  11.329
25212SOL    HW277534  13.153   2.117  11.338
25213SOL     OW77535   6.499   0.674  13.775
25213SOL    HW177536   6.497   0.632  13.861
25213SOL    HW277537   6.580   0.725  13.776
25214SOL     OW77538  11.797   6.782  10.382
25214SOL    HW177539  11.704   6.778  10.362
25214SOL    HW277540  11.814   6.707  10.439
25215SOL     OW77541   6.508   8.700   1.689
25215SOL    HW177542   6.437   8.636   1.681
25215SOL    HW277543   6.568   8.678   1.618
25216SOL     OW77544   2.939   4.108  12.652
25216SOL    HW177545   2.923   4.021  12.689
25216SOL    HW277546   3.015   4.141  12.699
25217SOL     OW77547   7.944   6.143  11.538
25217SOL    HW177548   7.957   6.119  11.630
25217SOL    HW277549   7.852   6.169  11.532
25218SOL     OW77550  10.749  10.604  12.199
25218SOL    HW177551  10.762  10.566  12.112
25218SOL    HW277552  10.735  10.697  12.183
25219SOL     OW77553   7.762   4.876   3.956
25219SOL    HW177554   7.687   4.882   4.016
25219SOL    HW277555   7.784   4.966   3.935
25220SOL     OW77556   7.304   6.252   3.861
25220SOL    HW177557   7.238   6.218   3.922
25220SOL    HW277558   7.299   6.194   3.785
25221SOL     OW77559   2.295   0.259   0.573
25221SOL    HW177560   2.328   0.312   0.501
25221SOL    HW277561   2.253   0.323   0.632
25222SOL     OW77562   4.105   8.255   2.623
25222SOL    HW177563   4.058   8.283   2.701
25222SOL    HW277564   4.153   8.332   2.594
25223SOL     OW77565   7.683   8.168   1.448
25223SOL    HW177566   7.679   8.168   1.544
25223SOL    HW277567   7.732   8.248   1.426
25224SOL     OW77568   3.163   1.812   9.745
25224SOL    HW177569   3.092   1.841   9.803
25224SOL    HW277570   3.128   1.825   9.657
25225SOL     OW77571  10.372   2.790   4.588
25225SOL    HW177572  10.313   2.727   4.629
25225SOL    HW277573  10.398   2.848   4.660
25226SOL     OW77574   4.993  13.776   4.289
25226SOL    HW177575   5.048  13.833   4.236
25226SOL    HW277576   4.993  13.816   4.376
25227SOL     OW77577   4.198   0.906  12.283
25227SOL    HW177578   4.263   0.976  12.287
25227SOL    HW277579   4.127   0.943  12.232
25228SOL     OW77580   4.634   5.822  12.034
25228SOL    HW177581   4.610   5.913  12.020
25228SOL    HW277582   4.665   5.791  11.949
25229SOL     OW77583   8.414  12.816   6.853
25229SOL    HW177584   8.492  12.767   6.880
25229SOL    HW277585   8.446  12.904   6.834
25230SOL     OW77586  13.896  12.555   3.608
25230SOL    HW177587  13.834  12.490   3.639
25230SOL    HW277588  13.877  12.564   3.514
25231SOL     OW77589   3.104  13.634   2.484
25231SOL    HW177590   3.052  13.713   2.466
25231SOL    HW277591   3.075  13.571   2.418
25232SOL     OW77592  14.446   2.332  12.193
25232SOL    HW177593  14.481   2.331  12.281
25232SOL    HW277594  14.508   2.383  12.142
25233SOL     OW77595  10.285   5.587   6.817
25233SOL    HW177596  10.221   5.650   6.850
25233SOL    HW277597  10.365   5.605   6.867
25234SOL     OW77598   1.978  14.405  10.122
25234SOL    HW177599   2.044  14.471  10.142
25234SOL    HW277600   1.894  14.450  10.134
25235SOL     OW77601  11.843  11.716   0.141
25235SOL    HW177602  11.787  11.722   0.063
25235SOL    HW277603  11.924  11.676   0.110
25236SOL     OW77604   5.572   5.471  11.112
25236SOL    HW177605   5.531   5.542  11.064
25236SOL    HW277606   5.528   5.471  11.197
25237SOL     OW77607   6.398   6.410   6.139
25237SOL    HW177608   6.319   6.450   6.103
25237SOL    HW277609   6.418   6.462   6.216
25238SOL     OW77610  14.445   7.641  13.025
25238SOL    HW177611  14.364   7.591  13.015
25238SOL    HW277612  14.514   7.578  13.007
25239SOL     OW77613   0.534   0.835  11.549
25239SOL    HW177614   0.524   0.787  11.467
25239SOL    HW277615   0.445   0.861  11.572
25240SOL     OW77616   4.709   9.751  10.297
25240SOL    HW177617   4.742   9.779  10.211
25240SOL    HW277618   4.678   9.662  10.282
25241SOL     OW77619  12.984   3.410   3.102
25241SOL    HW177620  13.055   3.474   3.111
25241SOL    HW277621  13.025   3.334   3.060
25242SOL     OW77622  13.305   7.448   7.450
25242SOL    HW177623  13.252   7.379   7.489
25242SOL    HW277624  13.348   7.406   7.376
25243SOL     OW77625   4.501   5.117   0.223
25243SOL    HW177626   4.562   5.149   0.289
25243SOL    HW277627   4.506   5.180   0.152
25244SOL     OW77628   5.824   7.100  14.252
25244SOL    HW177629   5.892   7.069  14.311
25244SOL    HW277630   5.868   7.164  14.195
25245SOL     OW77631   2.816   0.090  12.668
25245SOL    HW177632   2.753   0.150  12.708
25245SOL    HW277633   2.882   0.147  12.627
25246SOL     OW77634   7.602  13.978   3.137
25246SOL    HW177635   7.509  13.963   3.119
25246SOL    HW277636   7.613  13.958   3.230
25247SOL     OW77637  14.028  10.879  12.915
25247SOL    HW177638  13.952  10.822  12.921
25247SOL    HW277639  14.101  10.827  12.949
25248SOL     OW77640   9.419  10.534  12.438
25248SOL    HW177641   9.469  10.452  12.439
25248SOL    HW277642   9.327  10.506  12.440
25249SOL     OW77643   9.308  14.232   8.992
25249SOL    HW177644   9.355  14.224   8.909
25249SOL    HW277645   9.304  14.326   9.008
25250SOL     OW77646   0.827   0.116  10.303
25250SOL    HW177647   0.891   0.126  10.374
25250SOL    HW277648   0.876   0.136  10.223
25251SOL     OW77649  13.669   5.848  11.343
25251SOL    HW177650  13.669   5.846  11.248
25251SOL    HW277651  13.740   5.788  11.368
25252SOL     OW77652  11.376  14.219  14.302
25252SOL    HW177653  11.451  14.241  14.246
25252SOL    HW277654  11.309  14.188  14.241
25253SOL     OW77655   6.084   5.076   3.574
25253SOL    HW177656   6.159   5.067   3.633
25253SOL    HW277657   6.120   5.117   3.495
25254SOL     OW77658   6.599   1.501   3.390
25254SOL    HW177659   6.581   1.497   3.296
25254SOL    HW277660   6.534   1.443   3.429
25255SOL     OW77661  10.265  11.003   9.488
25255SOL    HW177662  10.315  10.981   9.409
25255SOL    HW277663  10.189  11.051   9.455
25256SOL     OW77664  13.314   6.918  11.549
25256SOL    HW177665  13.358   6.896  11.631
25256SOL    HW277666  13.285   7.009  11.562
25257SOL     OW77667  11.409   8.273   6.289
25257SOL    HW177668  11.487   8.233   6.328
25257SOL    HW277669  11.416   8.366   6.310
25258SOL     OW77670  10.882   1.591   1.843
25258SOL    HW177671  10.932   1.513   1.820
25258SOL    HW277672  10.794   1.574   1.810
25259SOL     OW77673   6.478  11.659   2.240
25259SOL    HW177674   6.385  11.635   2.241
25259SOL    HW277675   6.516  11.609   2.312
25260SOL     OW77676  12.633   0.211   7.582
25260SOL    HW177677  12.553   0.189   7.535
25260SOL    HW277678  12.604   0.264   7.656
25261SOL     OW77679   6.877   0.134   5.397
25261SOL    HW177680   6.927   0.186   5.334
25261SOL    HW277681   6.801   0.103   5.348
25262SOL     OW77682   5.571   8.458   8.292
25262SOL    HW177683   5.647   8.447   8.348
25262SOL    HW277684   5.601   8.515   8.221
25263SOL     OW77685   5.245   3.684   2.096
25263SOL    HW177686   5.212   3.595   2.084
25263SOL    HW277687   5.319   3.690   2.037
25264SOL     OW77688   0.990   3.829   5.726
25264SOL    HW177689   0.990   3.925   5.731
25264SOL    HW277690   0.902   3.804   5.755
25265SOL     OW77691   9.488   0.369   7.488
25265SOL    HW177692   9.472   0.299   7.425
25265SOL    HW277693   9.477   0.450   7.437
25266SOL     OW77694  11.423  13.808   3.620
25266SOL    HW177695  11.398  13.877   3.682
25266SOL    HW277696  11.353  13.744   3.625
25267SOL     OW77697   6.929  13.050  10.421
25267SOL    HW177698   6.883  13.025  10.341
25267SOL    HW277699   6.860  13.069  10.484
25268SOL     OW77700  14.150   7.304   5.218
25268SOL    HW177701  14.232   7.254   5.219
25268SOL    HW277702  14.126   7.313   5.310
25269SOL     OW77703   7.796   5.520  14.718
25269SOL    HW177704   7.868   5.575  14.753
25269SOL    HW277705   7.783   5.553  14.629
25270SOL     OW77706   6.831   9.293  10.446
25270SOL    HW177707   6.908   9.244  10.474
25270SOL    HW277708   6.858   9.334  10.364
25271SOL     OW77709   0.794   3.893   5.489
25271SOL    HW177710   0.834   3.830   5.549
25271SOL    HW277711   0.743   3.838   5.429
25272SOL     OW77712   8.517   3.616  10.141
25272SOL    HW177713   8.547   3.528  10.118
25272SOL    HW277714   8.447   3.635  10.078
25273SOL     OW77715   5.101  12.066   9.444
25273SOL    HW177716   5.159  12.052   9.519
25273SOL    HW277717   5.013  12.063   9.481
25274SOL     OW77718  13.625   2.671   8.424
25274SOL    HW177719  13.540   2.714   8.431
25274SOL    HW277720  13.688   2.739   8.448
25275SOL     OW77721   0.150   5.355   6.556
25275SOL    HW177722   0.206   5.295   6.606
25275SOL    HW277723   0.068   5.357   6.604
25276SOL     OW77724   5.399   4.318   6.680
25276SOL    HW177725   5.423   4.368   6.601
25276SOL    HW277726   5.478   4.322   6.735
25277SOL     OW77727   6.594   4.658  10.291
25277SOL    HW177728   6.660   4.590  10.287
25277SOL    HW277729   6.613   4.715  10.216
25278SOL     OW77730   4.301   5.461   2.310
25278SOL    HW177731   4.286   5.496   2.222
25278SOL    HW277732   4.388   5.421   2.306
25279SOL     OW77733   0.174   1.986  13.356
25279SOL    HW177734   0.197   2.076  13.334
25279SOL    HW277735   0.169   1.941  13.271
25280SOL     OW77736  14.376   4.753  13.762
25280SOL    HW177737  14.288   4.780  13.735
25280SOL    HW277738  14.422   4.835  13.780
25281SOL     OW77739  12.171   7.086   2.579
25281SOL    HW177740  12.103   7.117   2.520
25281SOL    HW277741  12.137   7.105   2.667
25282SOL     OW77742  13.876   9.488   9.422
25282SOL    HW177743  13.843   9.577   9.432
25282SOL    HW277744  13.883   9.454   9.511
25283SOL     OW77745  12.938   8.379   8.379
25283SOL    HW177746  12.993   8.414   8.309
25283SOL    HW277747  12.998   8.367   8.453
25284SOL     OW77748   8.767   8.106   0.596
25284SOL    HW177749   8.732   8.040   0.655
25284SOL    HW277750   8.860   8.084   0.587
25285SOL     OW77751   1.483   0.675   0.521
25285SOL    HW177752   1.439   0.651   0.439
25285SOL    HW277753   1.426   0.641   0.590
25286SOL     OW77754   5.780   0.846   2.858
25286SOL    HW177755   5.714   0.833   2.789
25286SOL    HW277756   5.757   0.782   2.925
25287SOL     OW77757  11.779   3.414   8.115
25287SOL    HW177758  11.741   3.326   8.110
25287SOL    HW277759  11.782   3.434   8.208
25288SOL     OW77760  12.062  14.881   3.612
25288SOL    HW177761  12.139   0.053   3.593
25288SOL    HW277762  11.993   0.062   3.634
25289SOL     OW77763  13.760  11.732  10.240
25289SOL    HW177764  13.814  11.672  10.292
25289SOL    HW277765  13.784  11.819  10.271
25290SOL     OW77766   4.564   6.466  12.245
25290SOL    HW177767   4.589   6.500  12.159
25290SOL    HW277768   4.543   6.544  12.296
25291SOL     OW77769  11.266  11.743   3.863
25291SOL    HW177770  11.331  11.674   3.851
25291SOL    HW277771  11.213  11.740   3.783
25292SOL     OW77772  10.306  14.781   1.104
25292SOL    HW177773  10.298  14.862   1.053
25292SOL    HW277774  10.225  14.776   1.155
25293SOL     OW77775  12.468  14.099   9.198
25293SOL    HW177776  12.430  14.131   9.116
25293SOL    HW277777  12.432  14.011   9.209
25294SOL     OW77778   8.113  14.084  13.286
25294SOL    HW177779   8.141  14.008  13.338
25294SOL    HW277780   8.153  14.159  13.330
25295SOL     OW77781   6.260  13.930   1.753
25295SOL    HW177782   6.187  13.869   1.763
25295SOL    HW277783   6.337  13.879   1.779
25296SOL     OW77784   3.619   5.482   3.306
25296SOL    HW177785   3.712   5.500   3.295
25296SOL    HW277786   3.615   5.405   3.363
25297SOL     OW77787  10.013  13.821   5.724
25297SOL    HW177788  10.058  13.770   5.657
25297SOL    HW277789  10.041  13.782   5.807
25298SOL     OW77790   9.851   4.989   7.697
25298SOL    HW177791   9.879   5.080   7.704
25298SOL    HW277792   9.760   4.989   7.727
25299SOL     OW77793   8.583   1.058   9.265
25299SOL    HW177794   8.531   1.135   9.239
25299SOL    HW277795   8.556   1.040   9.355
25300SOL     OW77796   3.022  12.289   1.411
25300SOL    HW177797   3.079  12.323   1.480
25300SOL    HW277798   2.954  12.356   1.402
25301SOL     OW77799   0.560  10.502  10.268
25301SOL    HW177800   0.608  10.477  10.347
25301SOL    HW277801   0.577  10.596  10.258
25302SOL     OW77802  14.329   7.219  14.532
25302SOL    HW177803  14.372   7.133  14.526
25302SOL    HW277804  14.400   7.279  14.554
25303SOL     OW77805   6.262   1.892  12.743
25303SOL    HW177806   6.196   1.960  12.726
25303SOL    HW277807   6.293   1.866  12.656
25304SOL     OW77808   6.614   9.205  14.748
25304SOL    HW177809   6.578   9.207  14.837
25304SOL    HW277810   6.575   9.128  14.708
25305SOL     OW77811  11.954   8.450   4.752
25305SOL    HW177812  11.987   8.446   4.842
25305SOL    HW277813  11.873   8.499   4.757
25306SOL     OW77814  12.407  10.981  13.361
25306SOL    HW177815  12.394  11.023  13.275
25306SOL    HW277816  12.355  10.901  13.357
25307SOL     OW77817  12.046  12.397   5.437
25307SOL    HW177818  11.996  12.340   5.379
25307SOL    HW277819  12.029  12.363   5.525
25308SOL     OW77820   3.784   8.749   3.331
25308SOL    HW177821   3.778   8.730   3.237
25308SOL    HW277822   3.731   8.682   3.372
25309SOL     OW77823   8.354   1.649  11.790
25309SOL    HW177824   8.267   1.616  11.814
25309SOL    HW277825   8.374   1.607  11.707
25310SOL     OW77826   9.913   7.090   6.818
25310SOL    HW177827   9.936   7.061   6.906
25310SOL    HW277828   9.822   7.119   6.825
25311SOL     OW77829   7.284   4.511   2.016
25311SOL    HW177830   7.239   4.445   1.963
25311SOL    HW277831   7.216   4.543   2.076
25312SOL     OW77832  14.702  11.981   6.274
25312SOL    HW177833  14.739  12.006   6.189
25312SOL    HW277834  14.742  12.041   6.336
25313SOL     OW77835   7.336   7.892   0.239
25313SOL    HW177836   7.416   7.938   0.216
25313SOL    HW277837   7.284   7.958   0.286
25314SOL     OW77838   5.142   9.278   7.718
25314SOL    HW177839   5.157   9.344   7.786
25314SOL    HW277840   5.166   9.322   7.636
25315SOL     OW77841  14.489   6.981  14.498
25315SOL    HW177842  14.576   7.011  14.527
25315SOL    HW277843  14.494   6.983  14.403
25316SOL     OW77844   5.826   8.969   2.668
25316SOL    HW177845   5.738   8.982   2.634
25316SOL    HW277846   5.860   9.058   2.682
25317SOL     OW77847   1.831   5.427  11.569
25317SOL    HW177848   1.868   5.406  11.655
25317SOL    HW277849   1.828   5.344  11.523
25318SOL     OW77850   5.296  11.406   7.377
25318SOL    HW177851   5.360  11.431   7.443
25318SOL    HW277852   5.347  11.401   7.296
25319SOL     OW77853  10.304   8.595   2.794
25319SOL    HW177854  10.246   8.584   2.869
25319SOL    HW277855  10.378   8.537   2.812
25320SOL     OW77856  12.479  11.723   7.126
25320SOL    HW177857  12.470  11.689   7.215
25320SOL    HW277858  12.491  11.817   7.137
25321SOL     OW77859   2.064  11.432  14.414
25321SOL    HW177860   2.119  11.500  14.454
25321SOL    HW277861   1.980  11.475  14.401
25322SOL     OW77862   4.279   5.560   4.103
25322SOL    HW177863   4.238   5.507   4.035
25322SOL    HW277864   4.265   5.510   4.184
25323SOL     OW77865   2.227  14.769   3.998
25323SOL    HW177866   2.180  14.840   3.954
25323SOL    HW277867   2.308  14.759   3.948
25324SOL     OW77868   5.016   5.721  13.002
25324SOL    HW177869   5.073   5.768  12.941
25324SOL    HW277870   5.075   5.670  13.056
25325SOL     OW77871   6.911   3.371   5.057
25325SOL    HW177872   6.889   3.448   5.006
25325SOL    HW277873   6.831   3.350   5.105
25326SOL     OW77874   3.175   2.171   1.014
25326SOL    HW177875   3.107   2.105   0.999
25326SOL    HW277876   3.257   2.122   1.011
25327SOL     OW77877   3.313   0.477   3.688
25327SOL    HW177878   3.382   0.543   3.680
25327SOL    HW277879   3.351   0.398   3.650
25328SOL     OW77880  11.858   1.961  13.070
25328SOL    HW177881  11.925   2.025  13.047
25328SOL    HW277882  11.874   1.941  13.162
25329SOL     OW77883   7.241   7.219  13.210
25329SOL    HW177884   7.159   7.248  13.170
25329SOL    HW277885   7.307   7.232  13.142
25330SOL     OW77886  12.926  13.759   3.519
25330SOL    HW177887  12.929  13.663   3.514
25330SOL    HW277888  12.872  13.785   3.445
25331SOL     OW77889  14.273  11.298  13.057
25331SOL    HW177890  14.250  11.391  13.063
25331SOL    HW277891  14.293  11.273  13.148
25332SOL     OW77892   6.426  10.584   3.846
25332SOL    HW177893   6.403  10.677   3.838
25332SOL    HW277894   6.424  10.567   3.940
25333SOL     OW77895   8.168   4.380   9.885
25333SOL    HW177896   8.155   4.349   9.795
25333SOL    HW277897   8.262   4.398   9.891
25334SOL     OW77898   7.274   8.997  10.685
25334SOL    HW177899   7.266   8.914  10.638
25334SOL    HW277900   7.312   9.057  10.621
25335SOL     OW77901  14.789  11.967   7.008
25335SOL    HW177902  14.851  11.895   7.022
25335SOL    HW277903  14.796  12.020   7.088
25336SOL     OW77904  10.937  14.836   8.533
25336SOL    HW177905  10.869  14.861   8.596
25336SOL    HW277906  10.907  14.874   8.450
25337SOL     OW77907   9.530   0.513  14.735
25337SOL    HW177908   9.574   0.586  14.692
25337SOL    HW277909   9.583   0.495  14.813
25338SOL     OW77910   8.513  12.611   7.425
25338SOL    HW177911   8.479  12.522   7.437
25338SOL    HW277912   8.578  12.622   7.494
25339SOL     OW77913   9.997  12.364  10.877
25339SOL    HW177914  10.008  12.270  10.866
25339SOL    HW277915   9.914  12.374  10.923
25340SOL     OW77916  11.155  14.246   3.721
25340SOL    HW177917  11.207  14.326   3.717
25340SOL    HW277918  11.207  14.182   3.673
25341SOL     OW77919   0.267   0.551  10.642
25341SOL    HW177920   0.184   0.560  10.690
25341SOL    HW277921   0.326   0.508  10.705
25342SOL     OW77922  11.986  11.748   0.913
25342SOL    HW177923  11.998  11.826   0.967
25342SOL    HW277924  12.075  11.721   0.890
25343SOL     OW77925   3.614   4.844   0.297
25343SOL    HW177926   3.701   4.878   0.276
25343SOL    HW277927   3.628   4.750   0.309
25344SOL     OW77928   3.643  14.264   6.571
25344SOL    HW177929   3.630  14.170   6.572
25344SOL    HW277930   3.731  14.276   6.607
25345SOL     OW77931   7.210  10.780  12.614
25345SOL    HW177932   7.291  10.830  12.624
25345SOL    HW277933   7.227  10.698  12.660
25346SOL     OW77934  12.457   7.138  13.962
25346SOL    HW177935  12.508   7.156  13.883
25346SOL    HW277936  12.454   7.222  14.008
25347SOL     OW77937   8.250  13.335   8.217
25347SOL    HW177938   8.155  13.341   8.206
25347SOL    HW277939   8.286  13.386   8.145
25348SOL     OW77940  10.729  11.927   6.540
25348SOL    HW177941  10.795  11.880   6.590
25348SOL    HW277942  10.766  11.936   6.452
25349SOL     OW77943  11.303   4.779   3.768
25349SOL    HW177944  11.300   4.861   3.719
25349SOL    HW277945  11.232   4.727   3.731
25350SOL     OW77946  14.521   9.455  10.779
25350SOL    HW177947  14.534   9.371  10.824
25350SOL    HW277948  14.581   9.451  10.704
25351SOL     OW77949  11.525   4.023  11.772
25351SOL    HW177950  11.605   4.024  11.718
25351SOL    HW277951  11.478   3.945  11.742
25352SOL     OW77952  12.857  12.070   7.966
25352SOL    HW177953  12.775  12.120   7.962
25352SOL    HW277954  12.832  11.981   7.940
25353SOL     OW77955  12.424   9.857   5.755
25353SOL    HW177956  12.369   9.857   5.834
25353SOL    HW277957  12.513   9.848   5.788
25354SOL     OW77958  13.064   1.848  12.939
25354SOL    HW177959  13.133   1.821  12.879
25354SOL    HW277960  13.098   1.827  13.026
25355SOL     OW77961  10.953   3.466  12.332
25355SOL    HW177962  11.032   3.512  12.304
25355SOL    HW277963  10.986   3.393  12.385
25356SOL     OW77964   3.650   0.224  11.577
25356SOL    HW177965   3.661   0.133  11.549
25356SOL    HW277966   3.557   0.241  11.565
25357SOL     OW77967   7.961   1.911   7.771
25357SOL    HW177968   8.052   1.905   7.801
25357SOL    HW277969   7.909   1.875   7.843
25358SOL     OW77970  11.625   5.264   5.307
25358SOL    HW177971  11.537   5.267   5.343
25358SOL    HW277972  11.671   5.336   5.349
25359SOL     OW77973   6.927  11.612   0.392
25359SOL    HW177974   7.006  11.661   0.415
25359SOL    HW277975   6.858  11.651   0.446
25360SOL     OW77976   3.752  10.785   0.343
25360SOL    HW177977   3.844  10.762   0.334
25360SOL    HW277978   3.727  10.750   0.429
25361SOL     OW77979  12.108   4.290   9.023
25361SOL    HW177980  12.035   4.232   9.000
25361SOL    HW277981  12.107   4.292   9.119
25362SOL     OW77982   2.764   4.923   1.335
25362SOL    HW177983   2.754   4.993   1.270
25362SOL    HW277984   2.685   4.869   1.324
25363SOL     OW77985   2.989   4.812  10.677
25363SOL    HW177986   2.935   4.881  10.639
25363SOL    HW277987   3.055   4.858  10.729
25364SOL     OW77988  13.817  12.393   5.326
25364SOL    HW177989  13.794  12.303   5.348
25364SOL    HW277990  13.851  12.388   5.237
25365SOL     OW77991   4.674  11.288   4.992
25365SOL    HW177992   4.718  11.203   4.986
25365SOL    HW277993   4.670  11.306   5.086
25366SOL     OW77994   9.491   3.252  10.065
25366SOL    HW177995   9.455   3.164  10.054
25366SOL    HW277996   9.478   3.271  10.158
25367SOL     OW77997  11.045   5.061  10.343
25367SOL    HW177998  11.046   5.085  10.436
25367SOL    HW277999  11.135   5.072  10.314
25368SOL     OW78000   9.274   2.449   3.369
25368SOL    HW178001   9.281   2.387   3.296
25368SOL    HW278002   9.180   2.465   3.378
25369SOL     OW78003   4.735  10.512   5.842
25369SOL    HW178004   4.693  10.427   5.830
25369SOL    HW278005   4.689  10.551   5.917
25370SOL     OW78006   9.429   8.429   8.713
25370SOL    HW178007   9.436   8.379   8.794
25370SOL    HW278008   9.342   8.470   8.718
25371SOL     OW78009   7.197   6.074   9.808
25371SOL    HW178010   7.137   6.029   9.867
25371SOL    HW278011   7.268   6.012   9.794
25372SOL     OW78012   3.271  14.147  11.354
25372SOL    HW178013   3.342  14.210  11.363
25372SOL    HW278014   3.196  14.199  11.325
25373SOL     OW78015   0.345   7.169  13.284
25373SOL    HW178016   0.290   7.090  13.280
25373SOL    HW278017   0.435   7.136  13.282
25374SOL     OW78018   2.118   9.310   1.680
25374SOL    HW178019   2.050   9.376   1.696
25374SOL    HW278020   2.088   9.264   1.601
25375SOL     OW78021   7.783   3.251   8.749
25375SOL    HW178022   7.842   3.178   8.769
25375SOL    HW278023   7.712   3.211   8.699
25376SOL     OW78024   0.845   4.664  13.046
25376SOL    HW178025   0.930   4.699  13.075
25376SOL    HW278026   0.864   4.620  12.964
25377SOL     OW78027   4.619  14.400   8.199
25377SOL    HW178028   4.621  14.452   8.279
25377SOL    HW278029   4.645  14.312   8.228
25378SOL     OW78030   6.616   4.348   4.501
25378SOL    HW178031   6.672   4.341   4.578
25378SOL    HW278032   6.670   4.391   4.436
25379SOL     OW78033   5.283   9.852   6.926
25379SOL    HW178034   5.279   9.929   6.983
25379SOL    HW278035   5.347   9.876   6.858
25380SOL     OW78036   1.084   3.563  12.060
25380SOL    HW178037   1.159   3.508  12.037
25380SOL    HW278038   1.080   3.561  12.156
25381SOL     OW78039  14.715  10.620   4.527
25381SOL    HW178040  14.666  10.649   4.450
25381SOL    HW278041  14.788  10.570   4.491
25382SOL     OW78042  12.512  11.449   9.274
25382SOL    HW178043  12.491  11.356   9.277
25382SOL    HW278044  12.453  11.490   9.337
25383SOL     OW78045  10.129   6.939   9.325
25383SOL    HW178046  10.058   6.875   9.316
25383SOL    HW278047  10.209   6.886   9.328
25384SOL     OW78048  12.512  10.634  11.625
25384SOL    HW178049  12.500  10.572  11.553
25384SOL    HW278050  12.572  10.700  11.590
25385SOL     OW78051   1.617   9.797   6.327
25385SOL    HW178052   1.657   9.826   6.409
25385SOL    HW278053   1.688   9.755   6.279
25386SOL     OW78054   9.976   7.137  13.155
25386SOL    HW178055   9.999   7.230  13.156
25386SOL    HW278056  10.038   7.098  13.094
25387SOL     OW78057  13.496   3.297   3.697
25387SOL    HW178058  13.532   3.296   3.608
25387SOL    HW278059  13.474   3.389   3.713
25388SOL     OW78060  13.459  14.576  14.869
25388SOL    HW178061  13.399  14.511   0.023
25388SOL    HW278062  13.407  14.625  14.806
25389SOL     OW78063   9.871   8.574   9.256
25389SOL    HW178064   9.876   8.652   9.311
25389SOL    HW278065   9.895   8.605   9.169
25390SOL     OW78066  10.530   7.992  13.147
25390SOL    HW178067  10.498   8.079  13.125
25390SOL    HW278068  10.539   7.947  13.063
25391SOL     OW78069   6.114   3.990   0.653
25391SOL    HW178070   6.045   3.966   0.592
25391SOL    HW278071   6.120   4.085   0.647
25392SOL     OW78072   4.447   0.342   8.955
25392SOL    HW178073   4.466   0.264   9.009
25392SOL    HW278074   4.369   0.380   8.996
25393SOL     OW78075  11.032   7.116  10.350
25393SOL    HW178076  11.100   7.148  10.410
25393SOL    HW278077  11.001   7.035  10.390
25394SOL     OW78078   0.542  11.524  11.703
25394SOL    HW178079   0.519  11.602  11.653
25394SOL    HW278080   0.458  11.489  11.734
25395SOL     OW78081  12.055   9.626   9.347
25395SOL    HW178082  12.047   9.576   9.266
25395SOL    HW278083  11.982   9.688   9.344
25396SOL     OW78084  11.160  13.974  10.255
25396SOL    HW178085  11.223  13.904  10.273
25396SOL    HW278086  11.193  14.049  10.304
25397SOL     OW78087   7.560   2.505   2.991
25397SOL    HW178088   7.601   2.554   2.920
25397SOL    HW278089   7.510   2.436   2.946
25398SOL     OW78090   5.721   6.909  11.323
25398SOL    HW178091   5.725   6.825  11.278
25398SOL    HW278092   5.630   6.916  11.354
25399SOL     OW78093   3.756   0.975   5.746
25399SOL    HW178094   3.724   1.055   5.704
25399SOL    HW278095   3.852   0.981   5.741
25400SOL     OW78096   7.454  13.992   6.367
25400SOL    HW178097   7.477  13.964   6.278
25400SOL    HW278098   7.362  13.966   6.378
25401SOL     OW78099   2.164  11.182  10.049
25401SOL    HW178100   2.135  11.186  10.140
25401SOL    HW278101   2.151  11.270  10.015
25402SOL     OW78102   2.713   9.600  13.661
25402SOL    HW178103   2.699   9.694  13.652
25402SOL    HW278104   2.803   9.586  13.632
25403SOL     OW78105   1.759   6.265   0.981
25403SOL    HW178106   1.767   6.281   0.887
25403SOL    HW278107   1.837   6.215   1.004
25404SOL     OW78108   7.386  11.663  14.423
25404SOL    HW178109   7.312  11.640  14.479
25404SOL    HW278110   7.391  11.759  14.428
25405SOL     OW78111   2.530   0.076   3.267
25405SOL    HW178112   2.487  14.874   3.252
25405SOL    HW278113   2.584   0.091   3.189
25406SOL     OW78114   2.434  12.872   3.466
25406SOL    HW178115   2.416  12.952   3.417
25406SOL    HW278116   2.376  12.807   3.428
25407SOL     OW78117   0.932   9.201  10.407
25407SOL    HW178118   0.924   9.292  10.433
25407SOL    HW278119   0.943   9.153  10.489
25408SOL     OW78120  13.268   4.643   9.024
25408SOL    HW178121  13.273   4.677   8.934
25408SOL    HW278122  13.357   4.615   9.044
25409SOL     OW78123   0.775   1.986   4.480
25409SOL    HW178124   0.856   1.992   4.530
25409SOL    HW278125   0.803   1.982   4.389
25410SOL     OW78126  11.788  10.125   1.371
25410SOL    HW178127  11.831  10.091   1.450
25410SOL    HW278128  11.835  10.084   1.299
25411SOL     OW78129   8.458   5.392  12.729
25411SOL    HW178130   8.458   5.454  12.802
25411SOL    HW278131   8.547   5.358  12.727
25412SOL     OW78132   3.116  14.665   9.912
25412SOL    HW178133   3.153  14.730   9.972
25412SOL    HW278134   3.037  14.708   9.877
25413SOL     OW78135   5.904   1.086   3.385
25413SOL    HW178136   5.870   1.171   3.359
25413SOL    HW278137   5.848   1.058   3.457
25414SOL     OW78138   2.803   9.342   8.185
25414SOL    HW178139   2.772   9.384   8.265
25414SOL    HW278140   2.891   9.311   8.206
25415SOL     OW78141   6.770  13.991   7.596
25415SOL    HW178142   6.741  13.918   7.541
25415SOL    HW278143   6.833  13.953   7.657
25416SOL     OW78144  10.493   7.852  13.376
25416SOL    HW178145  10.522   7.916  13.441
25416SOL    HW278146  10.508   7.896  13.292
25417SOL     OW78147  10.652   7.477  14.170
25417SOL    HW178148  10.742   7.467  14.138
25417SOL    HW278149  10.602   7.416  14.117
25418SOL     OW78150   8.251   9.500   0.859
25418SOL    HW178151   8.266   9.459   0.774
25418SOL    HW278152   8.338   9.503   0.899
25419SOL     OW78153   9.275  12.371  11.217
25419SOL    HW178154   9.265  12.282  11.252
25419SOL    HW278155   9.328  12.360  11.138
25420SOL     OW78156  11.600  14.796  11.090
25420SOL    HW178157  11.530  14.843  11.046
25420SOL    HW278158  11.556  14.733  11.147
25421SOL     OW78159   3.987  13.017  13.378
25421SOL    HW178160   3.964  13.102  13.414
25421SOL    HW278161   4.013  12.965  13.454
25422SOL     OW78162   4.654   2.340  13.453
25422SOL    HW178163   4.604   2.278  13.400
25422SOL    HW278164   4.727   2.289  13.487
25423SOL     OW78165  14.398   5.816  14.133
25423SOL    HW178166  14.413   5.723  14.150
25423SOL    HW278167  14.383   5.821  14.039
25424SOL     OW78168  14.880  13.635   2.916
25424SOL    HW178169   0.068  13.644   2.852
25424SOL    HW278170   0.042  13.623   2.999
25425SOL     OW78171   0.725  10.419  12.858
25425SOL    HW178172   0.807  10.456  12.889
25425SOL    HW278173   0.721  10.443  12.766
25426SOL     OW78174   8.899   2.873   5.906
25426SOL    HW178175   8.925   2.831   5.988
25426SOL    HW278176   8.804   2.884   5.914
25427SOL     OW78177   0.450   1.565  11.732
25427SOL    HW178178   0.462   1.471  11.723
25427SOL    HW278179   0.538   1.599  11.751
25428SOL     OW78180  14.112   4.937   5.625
25428SOL    HW178181  14.187   4.892   5.662
25428SOL    HW278182  14.063   4.869   5.580
25429SOL     OW78183   1.766   6.695   2.724
25429SOL    HW178184   1.719   6.634   2.668
25429SOL    HW278185   1.728   6.781   2.702
25430SOL     OW78186   4.540  13.254   2.057
25430SOL    HW178187   4.557  13.339   2.098
25430SOL    HW278188   4.596  13.253   1.980
25431SOL     OW78189   4.959   3.058   0.102
25431SOL    HW178190   4.925   3.107   0.028
25431SOL    HW278191   4.885   3.007   0.134
25432SOL     OW78192   8.340   7.908   9.095
25432SOL    HW178193   8.273   7.954   9.145
25432SOL    HW278194   8.402   7.877   9.160
25433SOL     OW78195  10.756  10.345   7.284
25433SOL    HW178196  10.677  10.294   7.266
25433SOL    HW278197  10.741  10.383   7.370
25434SOL     OW78198  11.051   3.431   8.485
25434SOL    HW178199  11.041   3.435   8.581
25434SOL    HW278200  11.132   3.478   8.468
25435SOL     OW78201   3.155   6.167   0.337
25435SOL    HW178202   3.181   6.129   0.421
25435SOL    HW278203   3.162   6.095   0.275
25436SOL     OW78204   0.328   6.365   8.466
25436SOL    HW178205   0.384   6.295   8.500
25436SOL    HW278206   0.385   6.412   8.404
25437SOL     OW78207  11.696   8.314  12.693
25437SOL    HW178208  11.622   8.267  12.731
25437SOL    HW278209  11.703   8.281  12.604
25438SOL     OW78210   7.325   5.164  14.309
25438SOL    HW178211   7.259   5.105  14.272
25438SOL    HW278212   7.389   5.105  14.349
25439SOL     OW78213  12.000   9.107   2.450
25439SOL    HW178214  11.907   9.123   2.467
25439SOL    HW278215  12.023   9.169   2.381
25440SOL     OW78216   0.788  11.485  14.276
25440SOL    HW178217   0.788  11.581  14.277
25440SOL    HW278218   0.706  11.462  14.233
25441SOL     OW78219  10.577  11.924  11.353
25441SOL    HW178220  10.486  11.902  11.335
25441SOL    HW278221  10.603  11.981  11.280
25442SOL     OW78222   1.231   5.458   5.645
25442SOL    HW178223   1.151   5.453   5.697
25442SOL    HW278224   1.287   5.519   5.693
25443SOL     OW78225  11.537  13.512  14.203
25443SOL    HW178226  11.569  13.427  14.175
25443SOL    HW278227  11.615  13.558  14.235
25444SOL     OW78228   3.348   7.833  10.155
25444SOL    HW178229   3.349   7.752  10.104
25444SOL    HW278230   3.385   7.809  10.240
25445SOL     OW78231  14.610  10.668  10.526
25445SOL    HW178232  14.578  10.711  10.447
25445SOL    HW278233  14.702  10.696  10.533
25446SOL     OW78234   2.883   4.408  10.566
25446SOL    HW178235   2.964   4.458  10.555
25446SOL    HW278236   2.850   4.395  10.477
25447SOL     OW78237   5.725   3.647   4.873
25447SOL    HW178238   5.787   3.640   4.946
25447SOL    HW278239   5.642   3.616   4.910
25448SOL     OW78240   5.708  14.343  13.082
25448SOL    HW178241   5.647  14.411  13.053
25448SOL    HW278242   5.652  14.278  13.124
25449SOL     OW78243   1.572   2.423   3.173
25449SOL    HW178244   1.640   2.378   3.222
25449SOL    HW278245   1.502   2.438   3.236
25450SOL     OW78246   2.339   5.942   2.574
25450SOL    HW178247   2.374   5.928   2.486
25450SOL    HW278248   2.313   6.035   2.575
25451SOL     OW78249  11.389   0.036  10.977
25451SOL    HW178250  11.321   0.053  11.042
25451SOL    HW278251  11.342   0.030  10.894
25452SOL     OW78252  11.905   3.211  14.733
25452SOL    HW178253  11.855   3.293  14.732
25452SOL    HW278254  11.883   3.168  14.651
25453SOL     OW78255  10.807  11.986   6.257
25453SOL    HW178256  10.766  12.070   6.274
25453SOL    HW278257  10.764  11.953   6.177
25454SOL     OW78258   6.520   2.697   6.294
25454SOL    HW178259   6.425   2.703   6.289
25454SOL    HW278260   6.547   2.775   6.344
25455SOL     OW78261   8.017   3.078  11.594
25455SOL    HW178262   8.022   3.172  11.577
25455SOL    HW278263   7.966   3.043  11.521
25456SOL     OW78264   9.491   1.458   2.294
25456SOL    HW178265   9.441   1.453   2.213
25456SOL    HW278266   9.582   1.444   2.268
25457SOL     OW78267   8.204   8.886   0.934
25457SOL    HW178268   8.278   8.831   0.959
25457SOL    HW278269   8.174   8.924   1.017
25458SOL     OW78270   3.822   0.488  12.596
25458SOL    HW178271   3.888   0.555  12.581
25458SOL    HW278272   3.843   0.453  12.683
25459SOL     OW78273   2.493   6.988   1.193
25459SOL    HW178274   2.484   7.067   1.141
25459SOL    HW278275   2.575   6.949   1.165
25460SOL     OW78276   2.680  14.386   0.780
25460SOL    HW178277   2.749  14.452   0.789
25460SOL    HW278278   2.672  14.347   0.867
25461SOL     OW78279   2.408   1.608   0.480
25461SOL    HW178280   2.404   1.653   0.565
25461SOL    HW278281   2.431   1.677   0.418
25462SOL     OW78282   6.441  14.403   7.062
25462SOL    HW178283   6.419  14.458   7.137
25462SOL    HW278284   6.424  14.458   6.986
25463SOL     OW78285  12.309  13.110   0.180
25463SOL    HW178286  12.375  13.111   0.250
25463SOL    HW278287  12.355  13.080   0.103
25464SOL     OW78288  12.307   2.074  13.904
25464SOL    HW178289  12.320   2.167  13.923
25464SOL    HW278290  12.264   2.073  13.819
25465SOL     OW78291  12.229   5.675   2.370
25465SOL    HW178292  12.273   5.598   2.405
25465SOL    HW278293  12.156   5.640   2.320
25466SOL     OW78294   8.168   5.676   7.951
25466SOL    HW178295   8.236   5.731   7.913
25466SOL    HW278296   8.148   5.716   8.035
25467SOL     OW78297   0.024  10.222   2.425
25467SOL    HW178298  14.829  10.235   2.369
25467SOL    HW278299   0.095  10.206   2.363
25468SOL     OW78300   1.111   0.044   6.135
25468SOL    HW178301   1.145   0.105   6.069
25468SOL    HW278302   1.166   0.059   6.212
25469SOL     OW78303   9.796  11.225  10.139
25469SOL    HW178304   9.779  11.146  10.088
25469SOL    HW278305   9.710  11.266  10.149
25470SOL     OW78306   1.785   7.215   2.084
25470SOL    HW178307   1.741   7.282   2.032
25470SOL    HW278308   1.862   7.260   2.121
25471SOL     OW78309   1.176   0.524   1.904
25471SOL    HW178310   1.238   0.561   1.967
25471SOL    HW278311   1.230   0.503   1.827
25472SOL     OW78312   6.339   6.018   7.779
25472SOL    HW178313   6.317   6.111   7.787
25472SOL    HW278314   6.433   6.017   7.763
25473SOL     OW78315  14.654   9.840   5.019
25473SOL    HW178316  14.676   9.910   5.081
25473SOL    HW278317  14.588   9.879   4.961
25474SOL     OW78318   7.666   5.713   0.649
25474SOL    HW178319   7.749   5.695   0.606
25474SOL    HW278320   7.674   5.804   0.678
25475SOL     OW78321  10.644   8.856  12.484
25475SOL    HW178322  10.612   8.913  12.414
25475SOL    HW278323  10.600   8.772  12.467
25476SOL     OW78324   9.123  10.028   3.866
25476SOL    HW178325   9.134  10.115   3.903
25476SOL    HW278326   9.054   9.987   3.919
25477SOL     OW78327   5.907  10.024   3.250
25477SOL    HW178328   5.885   9.954   3.311
25477SOL    HW278329   5.928   9.979   3.168
25478SOL     OW78330   7.254  10.312  10.181
25478SOL    HW178331   7.269  10.281  10.271
25478SOL    HW278332   7.270  10.235  10.127
25479SOL     OW78333  12.874  12.204   9.923
25479SOL    HW178334  12.818  12.254   9.863
25479SOL    HW278335  12.950  12.180   9.870
25480SOL     OW78336  11.389   6.109   3.548
25480SOL    HW178337  11.328   6.182   3.542
25480SOL    HW278338  11.349   6.039   3.497
25481SOL     OW78339  14.570   4.881   3.711
25481SOL    HW178340  14.511   4.849   3.642
25481SOL    HW278341  14.513   4.929   3.771
25482SOL     OW78342  10.564   7.471   6.781
25482SOL    HW178343  10.645   7.507   6.816
25482SOL    HW278344  10.533   7.537   6.719
25483SOL     OW78345  12.704   0.331   4.791
25483SOL    HW178346  12.745   0.248   4.767
25483SOL    HW278347  12.618   0.306   4.825
25484SOL     OW78348  11.333   7.019   0.003
25484SOL    HW178349  11.416   7.065  14.881
25484SOL    HW278350  11.282   7.055  14.812
25485SOL     OW78351   8.207   9.631   7.695
25485SOL    HW178352   8.143   9.662   7.759
25485SOL    HW278353   8.209   9.700   7.628
25486SOL     OW78354   7.933  13.144  13.487
25486SOL    HW178355   7.911  13.075  13.551
25486SOL    HW278356   7.848  13.179  13.460
25487SOL     OW78357  12.832   4.881   8.669
25487SOL    HW178358  12.808   4.788   8.674
25487SOL    HW278359  12.816   4.905   8.578
25488SOL     OW78360  14.041   1.039  14.412
25488SOL    HW178361  14.079   0.973  14.354
25488SOL    HW278362  14.004   0.989  14.484
25489SOL     OW78363   3.208  12.317   7.159
25489SOL    HW178364   3.273  12.321   7.229
25489SOL    HW278365   3.233  12.387   7.099
25490SOL     OW78366   9.276   1.189  12.544
25490SOL    HW178367   9.280   1.094  12.527
25490SOL    HW278368   9.349   1.225  12.494
25491SOL     OW78369   3.351   2.686  11.073
25491SOL    HW178370   3.361   2.606  11.020
25491SOL    HW278371   3.441   2.709  11.097
25492SOL     OW78372   1.460   8.529   1.979
25492SOL    HW178373   1.505   8.587   1.918
25492SOL    HW278374   1.450   8.447   1.930
25493SOL     OW78375  13.261   2.445   7.651
25493SOL    HW178376  13.348   2.425   7.686
25493SOL    HW278377  13.278   2.508   7.581
25494SOL     OW78378  13.415  10.716   7.112
25494SOL    HW178379  13.355  10.694   7.183
25494SOL    HW278380  13.395  10.653   7.043
25495SOL     OW78381   6.120   3.667   6.555
25495SOL    HW178382   6.188   3.599   6.553
25495SOL    HW278383   6.145   3.728   6.485
25496SOL     OW78384  10.887  12.740   9.182
25496SOL    HW178385  10.822  12.670   9.191
25496SOL    HW278386  10.947  12.708   9.114
25497SOL     OW78387   5.816   7.147   3.125
25497SOL    HW178388   5.883   7.191   3.178
25497SOL    HW278389   5.819   7.192   3.041
25498SOL     OW78390  13.384   7.474  11.711
25498SOL    HW178391  13.439   7.538  11.755
25498SOL    HW278392  13.377   7.506  11.621
25499SOL     OW78393   0.417  13.142   4.176
25499SOL    HW178394   0.346  13.077   4.178
25499SOL    HW278395   0.497  13.090   4.165
25500SOL     OW78396   6.304   6.987  12.624
25500SOL    HW178397   6.353   6.960  12.701
25500SOL    HW278398   6.326   7.079  12.612
25501SOL     OW78399  14.467  13.593   1.373
25501SOL    HW178400  14.430  13.671   1.333
25501SOL    HW278401  14.519  13.626   1.447
25502SOL     OW78402  11.976  12.848   2.509
25502SOL    HW178403  11.948  12.821   2.596
25502SOL    HW278404  11.998  12.941   2.518
25503SOL     OW78405  14.059   6.533   0.380
25503SOL    HW178406  13.978   6.483   0.374
25503SOL    HW278407  14.034   6.623   0.359
25504SOL     OW78408   7.477  14.671   1.844
25504SOL    HW178409   7.435  14.615   1.779
25504SOL    HW278410   7.469  14.760   1.809
25505SOL     OW78411   0.044   9.151  13.412
25505SOL    HW178412   0.057   9.202  13.332
25505SOL    HW278413  14.833   9.130  13.412
25506SOL     OW78414   1.283  12.626   4.919
25506SOL    HW178415   1.374  12.641   4.944
25506SOL    HW278416   1.288  12.569   4.843
25507SOL     OW78417   2.370   4.361   6.902
25507SOL    HW178418   2.369   4.444   6.949
25507SOL    HW278419   2.460   4.331   6.909
25508SOL     OW78420  10.814   4.957   0.779
25508SOL    HW178421  10.814   5.037   0.726
25508SOL    HW278422  10.896   4.913   0.755
25509SOL     OW78423   3.137   5.781   3.049
25509SOL    HW178424   3.200   5.853   3.057
25509SOL    HW278425   3.140   5.756   2.957
25510SOL     OW78426   9.129   9.602   9.186
25510SOL    HW178427   9.132   9.511   9.156
25510SOL    HW278428   9.156   9.654   9.109
25511SOL     OW78429   6.853   3.322   4.734
25511SOL    HW178430   6.815   3.235   4.724
25511SOL    HW278431   6.948   3.306   4.741
25512SOL     OW78432   4.043   3.914   7.196
25512SOL    HW178433   3.977   3.968   7.153
25512SOL    HW278434   4.060   3.843   7.135
25513SOL     OW78435  14.815   1.090   1.737
25513SOL    HW178436  14.828   1.061   1.827
25513SOL    HW278437  14.737   1.043   1.708
25514SOL     OW78438  13.541  12.076   6.549
25514SOL    HW178439  13.485  12.112   6.481
25514SOL    HW278440  13.544  12.144   6.616
25515SOL     OW78441  12.840   9.444   9.879
25515SOL    HW178442  12.935   9.457   9.887
25515SOL    HW278443  12.828   9.350   9.888
25516SOL     OW78444   6.956   7.885   3.394
25516SOL    HW178445   6.895   7.955   3.416
25516SOL    HW278446   6.901   7.809   3.375
25517SOL     OW78447   2.958   1.848   5.877
25517SOL    HW178448   3.039   1.822   5.834
25517SOL    HW278449   2.954   1.793   5.956
25518SOL     OW78450   2.819   6.766  12.677
25518SOL    HW178451   2.879   6.819  12.729
25518SOL    HW278452   2.784   6.701  12.738
25519SOL     OW78453   1.415   5.271  14.746
25519SOL    HW178454   1.445   5.353  14.707
25519SOL    HW278455   1.323   5.287  14.767
25520SOL     OW78456   9.590   5.047   8.189
25520SOL    HW178457   9.584   4.975   8.252
25520SOL    HW278458   9.560   5.124   8.238
25521SOL     OW78459  13.709   1.040   9.499
25521SOL    HW178460  13.738   0.951   9.481
25521SOL    HW278461  13.641   1.057   9.434
25522SOL     OW78462   3.947   3.570  13.045
25522SOL    HW178463   3.971   3.632  13.113
25522SOL    HW278464   3.858   3.542  13.067
25523SOL     OW78465  12.118  14.259   5.754
25523SOL    HW178466  12.087  14.345   5.724
25523SOL    HW278467  12.054  14.197   5.719
25524SOL     OW78468   4.017   1.551  14.849
25524SOL    HW178469   3.991   1.580  14.761
25524SOL    HW278470   4.077   1.478  14.832
25525SOL     OW78471   8.890   4.855   4.730
25525SOL    HW178472   8.858   4.890   4.813
25525SOL    HW278473   8.813   4.816   4.689
25526SOL     OW78474  10.192   8.090  14.792
25526SOL    HW178475  10.186   8.011  14.739
25526SOL    HW278476  10.160   8.160  14.736
25527SOL     OW78477   6.128  12.826   5.939
25527SOL    HW178478   6.080  12.878   6.003
25527SOL    HW278479   6.179  12.764   5.990
25528SOL     OW78480   0.971   8.162   1.119
25528SOL    HW178481   0.955   8.119   1.035
25528SOL    HW278482   1.032   8.233   1.100
25529SOL     OW78483   3.108  11.361  10.559
25529SOL    HW178484   3.184  11.391  10.510
25529SOL    HW278485   3.052  11.319  10.494
25530SOL     OW78486  10.679  10.056  11.533
25530SOL    HW178487  10.615  10.024  11.469
25530SOL    HW278488  10.759  10.006  11.513
25531SOL     OW78489   3.056   4.888   1.818
25531SOL    HW178490   3.148   4.904   1.839
25531SOL    HW278491   3.033   4.959   1.758
25532SOL     OW78492   8.625  11.383   2.082
25532SOL    HW178493   8.548  11.337   2.118
25532SOL    HW278494   8.622  11.363   1.989
25533SOL     OW78495   4.090   0.231   5.355
25533SOL    HW178496   4.006   0.186   5.360
25533SOL    HW278497   4.069   0.323   5.369
25534SOL     OW78498  13.979  12.707  11.701
25534SOL    HW178499  14.021  12.628  11.732
25534SOL    HW278500  14.050  12.769  11.688
25535SOL     OW78501  12.503   4.910   2.203
25535SOL    HW178502  12.552   4.864   2.272
25535SOL    HW278503  12.536   4.873   2.121
25536SOL     OW78504   6.522  11.439   6.069
25536SOL    HW178505   6.455  11.398   6.015
25536SOL    HW278506   6.480  11.517   6.105
25537SOL     OW78507   9.554   2.889   5.144
25537SOL    HW178508   9.528   2.960   5.202
25537SOL    HW278509   9.630   2.923   5.097
25538SOL     OW78510   0.961  13.952   9.905
25538SOL    HW178511   1.030  13.918   9.963
25538SOL    HW278512   0.990  14.041   9.884
25539SOL     OW78513   6.339   3.413   0.389
25539SOL    HW178514   6.410   3.367   0.433
25539SOL    HW278515   6.269   3.418   0.455
25540SOL     OW78516  13.483  12.458  11.461
25540SOL    HW178517  13.571  12.429  11.438
25540SOL    HW278518  13.430  12.378  11.457
25541SOL     OW78519  10.293   6.095  14.504
25541SOL    HW178520  10.250   6.010  14.511
25541SOL    HW278521  10.311   6.120  14.595
25542SOL     OW78522   7.428  11.230  14.374
25542SOL    HW178523   7.333  11.225  14.363
25542SOL    HW278524   7.439  11.277  14.457
25543SOL     OW78525   0.927   9.625  10.675
25543SOL    HW178526   0.957   9.712  10.703
25543SOL    HW278527   0.905   9.636  10.582
25544SOL     OW78528   0.081   0.660   4.019
25544SOL    HW178529   0.087   0.568   3.995
25544SOL    HW278530  14.872   0.673   4.042
25545SOL     OW78531  12.064   6.123  11.088
25545SOL    HW178532  12.076   6.075  11.169
25545SOL    HW278533  12.132   6.191  11.089
25546SOL     OW78534  13.522  11.592  11.955
25546SOL    HW178535  13.456  11.661  11.952
25546SOL    HW278536  13.587  11.618  11.889
25547SOL     OW78537   2.770  14.596   9.480
25547SOL    HW178538   2.768  14.685   9.514
25547SOL    HW278539   2.679  14.574   9.463
25548SOL     OW78540   8.874   1.704   5.510
25548SOL    HW178541   8.847   1.635   5.450
25548SOL    HW278542   8.798   1.762   5.516
25549SOL     OW78543   5.241   2.327  14.486
25549SOL    HW178544   5.208   2.239  14.502
25549SOL    HW278545   5.175   2.386  14.523
25550SOL     OW78546   9.283   1.941   1.123
25550SOL    HW178547   9.199   1.922   1.164
25550SOL    HW278548   9.344   1.879   1.164
25551SOL     OW78549   3.442   5.505  13.130
25551SOL    HW178550   3.416   5.539  13.216
25551SOL    HW278551   3.506   5.437  13.150
25552SOL     OW78552  12.566  13.650   5.660
25552SOL    HW178553  12.565  13.720   5.595
25552SOL    HW278554  12.584  13.571   5.610
25553SOL     OW78555   5.836   3.530  11.815
25553SOL    HW178556   5.908   3.579  11.854
25553SOL    HW278557   5.853   3.439  11.839
25554SOL     OW78558  14.000  12.618  14.257
25554SOL    HW178559  14.021  12.628  14.164
25554SOL    HW278560  14.064  12.555  14.289
25555SOL     OW78561   2.119   6.378  13.027
25555SOL    HW178562   2.108   6.333  12.943
25555SOL    HW278563   2.049   6.344  13.082
25556SOL     OW78564   4.718   4.997  10.193
25556SOL    HW178565   4.725   5.080  10.241
25556SOL    HW278566   4.762   4.933  10.249
25557SOL     OW78567   0.820   1.159  10.221
25557SOL    HW178568   0.813   1.167  10.316
25557SOL    HW278569   0.891   1.097  10.207
25558SOL     OW78570   1.067  11.438  14.227
25558SOL    HW178571   0.976  11.454  14.254
25558SOL    HW278572   1.089  11.513  14.171
25559SOL     OW78573   1.099  14.152   6.723
25559SOL    HW178574   1.011  14.137   6.688
25559SOL    HW278575   1.158  14.120   6.655
25560SOL     OW78576   0.520   9.162   3.162
25560SOL    HW178577   0.441   9.171   3.110
25560SOL    HW278578   0.514   9.231   3.228
25561SOL     OW78579   2.613  12.148   6.652
25561SOL    HW178580   2.616  12.212   6.723
25561SOL    HW278581   2.523  12.116   6.652
25562SOL     OW78582  12.814   3.938   3.174
25562SOL    HW178583  12.791   3.861   3.122
25562SOL    HW278584  12.869   3.904   3.244
25563SOL     OW78585   7.131   9.437  10.004
25563SOL    HW178586   7.191   9.417   9.933
25563SOL    HW278587   7.118   9.532   9.998
25564SOL     OW78588   1.260   6.155   7.004
25564SOL    HW178589   1.342   6.114   7.031
25564SOL    HW278590   1.219   6.092   6.945
25565SOL     OW78591   4.876   3.694   6.286
25565SOL    HW178592   4.961   3.716   6.323
25565SOL    HW278593   4.840   3.629   6.346
25566SOL     OW78594   3.788   6.419   9.937
25566SOL    HW178595   3.877   6.438   9.908
25566SOL    HW278596   3.743   6.503   9.936
25567SOL     OW78597   3.612   7.384   8.676
25567SOL    HW178598   3.644   7.329   8.748
25567SOL    HW278599   3.690   7.407   8.627
25568SOL     OW78600   2.849   4.943   1.578
25568SOL    HW178601   2.821   5.015   1.634
25568SOL    HW278602   2.796   4.953   1.499
25569SOL     OW78603  12.728   9.029   6.939
25569SOL    HW178604  12.669   8.969   6.894
25569SOL    HW278605  12.715   9.113   6.895
25570SOL     OW78606  13.114   4.009   1.799
25570SOL    HW178607  13.109   3.916   1.821
25570SOL    HW278608  13.032   4.046   1.831
25571SOL     OW78609   4.575  12.686  12.415
25571SOL    HW178610   4.556  12.631  12.491
25571SOL    HW278611   4.607  12.768  12.452
25572SOL     OW78612   7.591   7.785   4.704
25572SOL    HW178613   7.625   7.729   4.773
25572SOL    HW278614   7.571   7.868   4.748
25573SOL     OW78615   5.342   0.751   1.999
25573SOL    HW178616   5.286   0.763   1.923
25573SOL    HW278617   5.300   0.801   2.069
25574SOL     OW78618   5.282   5.448   8.086
25574SOL    HW178619   5.190   5.423   8.100
25574SOL    HW278620   5.277   5.531   8.037
25575SOL     OW78621   7.025  13.928   2.963
25575SOL    HW178622   7.027  13.997   2.896
25575SOL    HW278623   7.087  13.956   3.030
25576SOL     OW78624   5.928   5.068   8.961
25576SOL    HW178625   5.901   4.977   8.950
25576SOL    HW278626   5.846   5.118   8.956
25577SOL     OW78627   8.217   5.975  13.937
25577SOL    HW178628   8.192   5.954  13.847
25577SOL    HW278629   8.134   5.983  13.984
25578SOL     OW78630   4.379  12.223  11.759
25578SOL    HW178631   4.373  12.137  11.800
25578SOL    HW278632   4.328  12.215  11.678
25579SOL     OW78633   5.233   4.575   0.691
25579SOL    HW178634   5.155   4.570   0.637
25579SOL    HW278635   5.263   4.484   0.698
25580SOL     OW78636   4.448   7.071   1.554
25580SOL    HW178637   4.496   7.129   1.613
25580SOL    HW278638   4.515   7.034   1.497
25581SOL     OW78639   2.769   8.969   1.139
25581SOL    HW178640   2.857   8.957   1.175
25581SOL    HW278641   2.729   9.035   1.195
25582SOL     OW78642   5.589   4.230   3.018
25582SOL    HW178643   5.616   4.161   2.958
25582SOL    HW278644   5.538   4.185   3.085
25583SOL     OW78645  12.299   3.944   3.197
25583SOL    HW178646  12.301   3.920   3.290
25583SOL    HW278647  12.389   3.969   3.177
25584SOL     OW78648  11.182   6.348  13.156
25584SOL    HW178649  11.102   6.375  13.201
25584SOL    HW278650  11.248   6.410  13.184
25585SOL     OW78651   0.906   7.803   4.075
25585SOL    HW178652   0.987   7.850   4.056
25585SOL    HW278653   0.925   7.712   4.050
25586SOL     OW78654  12.214  12.723   6.749
25586SOL    HW178655  12.234  12.633   6.724
25586SOL    HW278656  12.296  12.757   6.785
25587SOL     OW78657   6.993   6.003  13.424
25587SOL    HW178658   6.921   6.017  13.485
25587SOL    HW278659   6.988   6.078  13.364
25588SOL     OW78660   9.440  11.649  13.914
25588SOL    HW178661   9.481  11.707  13.851
25588SOL    HW278662   9.445  11.696  13.997
25589SOL     OW78663  12.860   8.933   9.040
25589SOL    HW178664  12.889   8.857   8.990
25589SOL    HW278665  12.918   8.935   9.117
25590SOL     OW78666  10.317   4.116   5.754
25590SOL    HW178667  10.247   4.084   5.811
25590SOL    HW278668  10.359   4.036   5.721
25591SOL     OW78669  12.564  13.291   7.740
25591SOL    HW178670  12.490  13.290   7.801
25591SOL    HW278671  12.525  13.314   7.655
25592SOL     OW78672  14.493   1.681  10.354
25592SOL    HW178673  14.545   1.678  10.274
25592SOL    HW278674  14.488   1.589  10.383
25593SOL     OW78675  14.011  11.578   7.051
25593SOL    HW178676  13.939  11.629   7.016
25593SOL    HW278677  14.034  11.516   6.981
25594SOL     OW78678   5.772   9.072   9.706
25594SOL    HW178679   5.867   9.080   9.704
25594SOL    HW278680   5.740   9.154   9.670
25595SOL     OW78681   6.526   7.889  11.167
25595SOL    HW178682   6.563   7.921  11.249
25595SOL    HW278683   6.537   7.794  11.171
25596SOL     OW78684   8.112   8.159  12.234
25596SOL    HW178685   8.059   8.157  12.314
25596SOL    HW278686   8.201   8.173  12.265
25597SOL     OW78687  13.601  13.198   4.050
25597SOL    HW178688  13.633  13.174   4.137
25597SOL    HW278689  13.521  13.146   4.039
25598SOL     OW78690   2.062   1.616  14.801
25598SOL    HW178691   2.131   1.614  14.867
25598SOL    HW278692   2.067   1.704  14.763
25599SOL     OW78693  11.939  14.026   5.668
25599SOL    HW178694  11.866  14.087   5.682
25599SOL    HW278695  11.898  13.939   5.670
25600SOL     OW78696  13.830   0.885   2.318
25600SOL    HW178697  13.752   0.850   2.277
25600SOL    HW278698  13.818   0.868   2.412
25601SOL     OW78699  13.743   8.864  13.590
25601SOL    HW178700  13.712   8.857  13.500
25601SOL    HW278701  13.816   8.802  13.595
25602SOL     OW78702   7.986   0.424   2.279
25602SOL    HW178703   8.039   0.389   2.207
25602SOL    HW278704   7.936   0.349   2.311
25603SOL     OW78705   1.147   7.835   1.721
25603SOL    HW178706   1.120   7.836   1.629
25603SOL    HW278707   1.130   7.924   1.752
25604SOL     OW78708  11.158   6.435   7.846
25604SOL    HW178709  11.067   6.408   7.834
25604SOL    HW278710  11.181   6.404   7.934
25605SOL     OW78711  10.609   5.131   2.194
25605SOL    HW178712  10.656   5.150   2.113
25605SOL    HW278713  10.558   5.210   2.211
25606SOL     OW78714   9.064   6.188   0.692
25606SOL    HW178715   9.120   6.266   0.686
25606SOL    HW278716   9.116   6.118   0.653
25607SOL     OW78717  14.827   7.172  13.635
25607SOL    HW178718  14.799   7.106  13.698
25607SOL    HW278719   0.040   7.169  13.637
25608SOL     OW78720   9.546  11.684   5.867
25608SOL    HW178721   9.625  11.662   5.818
25608SOL    HW278722   9.493  11.604   5.864
25609SOL     OW78723  10.238   3.161   9.652
25609SOL    HW178724  10.294   3.237   9.664
25609SOL    HW278725  10.212   3.164   9.560
25610SOL     OW78726   0.266  11.144  10.410
25610SOL    HW178727   0.233  11.054  10.401
25610SOL    HW278728   0.210  11.183  10.477
25611SOL     OW78729  14.279   8.667   6.566
25611SOL    HW178730  14.295   8.678   6.472
25611SOL    HW278731  14.230   8.745   6.592
25612SOL     OW78732   4.615   0.514   3.463
25612SOL    HW178733   4.647   0.430   3.496
25612SOL    HW278734   4.694   0.566   3.449
25613SOL     OW78735   5.412   0.912   8.920
25613SOL    HW178736   5.384   0.859   8.994
25613SOL    HW278737   5.439   0.849   8.854
25614SOL     OW78738  13.538   9.542   6.250
25614SOL    HW178739  13.630   9.539   6.224
25614SOL    HW278740  13.492   9.490   6.183
25615SOL     OW78741   5.925   1.606   6.321
25615SOL    HW178742   5.895   1.557   6.398
25615SOL    HW278743   5.850   1.606   6.261
25616SOL     OW78744  10.700  11.583   3.039
25616SOL    HW178745  10.651  11.637   2.977
25616SOL    HW278746  10.633  11.532   3.085
25617SOL     OW78747   3.725   0.380   9.636
25617SOL    HW178748   3.703   0.294   9.672
25617SOL    HW278749   3.798   0.410   9.690
25618SOL     OW78750   6.034   7.529   4.695
25618SOL    HW178751   5.971   7.557   4.628
25618SOL    HW278752   6.004   7.571   4.775
25619SOL     OW78753  14.323   3.648   1.023
25619SOL    HW178754  14.400   3.605   0.985
25619SOL    HW278755  14.336   3.741   1.006
25620SOL     OW78756   1.411   9.905   2.489
25620SOL    HW178757   1.467   9.888   2.566
25620SOL    HW278758   1.334   9.948   2.525
25621SOL     OW78759   2.717   1.953   1.855
25621SOL    HW178760   2.750   1.867   1.880
25621SOL    HW278761   2.795   2.007   1.842
25622SOL     OW78762   7.038   0.200   0.194
25622SOL    HW178763   7.051   0.145   0.117
25622SOL    HW278764   7.115   0.257   0.197
25623SOL     OW78765   6.798   7.966   4.898
25623SOL    HW178766   6.790   8.059   4.920
25623SOL    HW278767   6.882   7.960   4.852
25624SOL     OW78768   2.906  12.090   7.615
25624SOL    HW178769   2.968  12.157   7.646
25624SOL    HW278770   2.820  12.123   7.642
25625SOL     OW78771   2.265   4.334   4.442
25625SOL    HW178772   2.287   4.380   4.361
25625SOL    HW278773   2.192   4.277   4.419
25626SOL     OW78774   4.247   5.106   5.319
25626SOL    HW178775   4.230   5.035   5.257
25626SOL    HW278776   4.285   5.062   5.396
25627SOL     OW78777  10.129   8.048   0.782
25627SOL    HW178778  10.155   7.972   0.731
25627SOL    HW278779  10.140   8.021   0.874
25628SOL     OW78780   7.556   2.028  14.076
25628SOL    HW178781   7.578   2.118  14.098
25628SOL    HW278782   7.603   2.011  13.994
25629SOL     OW78783   6.576   4.221   7.163
25629SOL    HW178784   6.496   4.181   7.127
25629SOL    HW278785   6.553   4.241   7.254
25630SOL     OW78786   5.978  12.308  10.478
25630SOL    HW178787   5.955  12.350  10.561
25630SOL    HW278788   5.971  12.378  10.413
25631SOL     OW78789   1.550   1.640   7.509
25631SOL    HW178790   1.564   1.575   7.578
25631SOL    HW278791   1.613   1.616   7.441
25632SOL     OW78792   1.529   6.719  14.269
25632SOL    HW178793   1.623   6.733  14.271
25632SOL    HW278794   1.492   6.807  14.281
25633SOL     OW78795   5.913   3.652   2.401
25633SOL    HW178796   5.973   3.648   2.326
25633SOL    HW278797   5.826   3.646   2.362
25634SOL     OW78798   4.504  14.456  12.956
25634SOL    HW178799   4.592  14.467  12.920
25634SOL    HW278800   4.507  14.499  13.041
25635SOL     OW78801   7.440   7.899  14.476
25635SOL    HW178802   7.375   7.969  14.475
25635SOL    HW278803   7.392   7.822  14.507
25636SOL     OW78804  14.557  14.610   4.246
25636SOL    HW178805  14.609  14.584   4.322
25636SOL    HW278806  14.522  14.696   4.270
25637SOL     OW78807  13.476  11.378   3.852
25637SOL    HW178808  13.507  11.431   3.925
25637SOL    HW278809  13.444  11.442   3.788
25638SOL     OW78810   6.535   2.090  10.011
25638SOL    HW178811   6.542   2.018   9.948
25638SOL    HW278812   6.534   2.169   9.957
25639SOL     OW78813   2.764   7.116  14.274
25639SOL    HW178814   2.716   7.059  14.335
25639SOL    HW278815   2.752   7.075  14.189
25640SOL     OW78816   8.864  14.369  11.165
25640SOL    HW178817   8.917  14.327  11.097
25640SOL    HW278818   8.872  14.311  11.241
25641SOL     OW78819   7.347   1.557  13.322
25641SOL    HW178820   7.340   1.599  13.236
25641SOL    HW278821   7.319   1.624  13.384
25642SOL     OW78822   0.169   6.705  14.146
25642SOL    HW178823   0.163   6.758  14.226
25642SOL    HW278824   0.121   6.756  14.081
25643SOL     OW78825  11.587   4.490   3.664
25643SOL    HW178826  11.551   4.410   3.626
25643SOL    HW278827  11.671   4.463   3.702
25644SOL     OW78828   5.849   1.011   6.212
25644SOL    HW178829   5.872   1.084   6.270
25644SOL    HW278830   5.754   1.018   6.202
25645SOL     OW78831   0.350  13.446   6.564
25645SOL    HW178832   0.323  13.492   6.643
25645SOL    HW278833   0.294  13.369   6.560
25646SOL     OW78834   6.245  11.852   8.343
25646SOL    HW178835   6.156  11.875   8.317
25646SOL    HW278836   6.273  11.786   8.280
25647SOL     OW78837   7.602  11.288   5.885
25647SOL    HW178838   7.686  11.331   5.904
25647SOL    HW278839   7.562  11.276   5.971
25648SOL     OW78840  14.641   7.345   0.126
25648SOL    HW178841  14.589   7.412   0.083
25648SOL    HW278842  14.674   7.291   0.054
25649SOL     OW78843   3.373   6.312   8.714
25649SOL    HW178844   3.366   6.228   8.668
25649SOL    HW278845   3.417   6.291   8.796
25650SOL     OW78846   3.644   4.524   3.135
25650SOL    HW178847   3.641   4.604   3.188
25650SOL    HW278848   3.554   4.489   3.141
25651SOL     OW78849   0.249  10.353   4.532
25651SOL    HW178850   0.215  10.365   4.621
25651SOL    HW278851   0.172  10.364   4.476
25652SOL     OW78852   2.502  13.954  14.204
25652SOL    HW178853   2.512  14.031  14.260
25652SOL    HW278854   2.582  13.953  14.151
25653SOL     OW78855   9.135   0.255   2.445
25653SOL    HW178856   9.093   0.181   2.401
25653SOL    HW278857   9.195   0.291   2.380
25654SOL     OW78858   6.938   0.056   7.071
25654SOL    HW178859   6.918  14.851   7.036
25654SOL    HW278860   6.904   0.116   7.005
25655SOL     OW78861   1.582  12.028   4.530
25655SOL    HW178862   1.493  11.992   4.526
25655SOL    HW278863   1.610  12.030   4.438
25656SOL     OW78864   4.893  14.755  10.342
25656SOL    HW178865   4.940  14.723  10.265
25656SOL    HW278866   4.961  14.767  10.409
25657SOL     OW78867  14.749  12.529   1.584
25657SOL    HW178868  14.802  12.462   1.541
25657SOL    HW278869  14.713  12.485   1.661
25658SOL     OW78870   7.301   8.240   3.120
25658SOL    HW178871   7.214   8.267   3.149
25658SOL    HW278872   7.318   8.158   3.167
25659SOL     OW78873   3.925  10.580   8.106
25659SOL    HW178874   3.962  10.646   8.048
25659SOL    HW278875   3.992  10.513   8.114
25660SOL     OW78876   0.067  13.450   1.031
25660SOL    HW178877   0.006  13.388   1.071
25660SOL    HW278878   0.143  13.397   1.006
25661SOL     OW78879   2.493   4.629   7.940
25661SOL    HW178880   2.477   4.721   7.922
25661SOL    HW278881   2.512   4.590   7.854
25662SOL     OW78882  14.200  12.005  11.646
25662SOL    HW178883  14.221  12.094  11.677
25662SOL    HW278884  14.137  11.972  11.710
25663SOL     OW78885  10.852  13.823  10.597
25663SOL    HW178886  10.911  13.861  10.662
25663SOL    HW278887  10.873  13.868  10.516
25664SOL     OW78888  12.677  14.293   7.391
25664SOL    HW178889  12.620  14.360   7.430
25664SOL    HW278890  12.648  14.211   7.432
25665SOL     OW78891   4.695   4.542  10.599
25665SOL    HW178892   4.716   4.635  10.598
25665SOL    HW278893   4.713   4.514  10.689
25666SOL     OW78894   0.259   7.665   2.233
25666SOL    HW178895   0.285   7.727   2.302
25666SOL    HW278896   0.342   7.642   2.191
25667SOL     OW78897   7.133   3.497   7.074
25667SOL    HW178898   7.134   3.553   7.152
25667SOL    HW278899   7.064   3.433   7.090
25668SOL     OW78900   0.362  13.565  10.233
25668SOL    HW178901   0.339  13.573  10.140
25668SOL    HW278902   0.343  13.473  10.254
25669SOL     OW78903   8.066  11.660   8.031
25669SOL    HW178904   7.989  11.649   7.975
25669SOL    HW278905   8.123  11.719   7.982
25670SOL     OW78906   7.758  10.256  11.931
25670SOL    HW178907   7.832  10.196  11.942
25670SOL    HW278908   7.697  10.208  11.874
25671SOL     OW78909   4.308   1.401  11.796
25671SOL    HW178910   4.315   1.326  11.737
25671SOL    HW278911   4.316   1.477  11.739
25672SOL     OW78912   2.408   1.868   4.523
25672SOL    HW178913   2.356   1.874   4.604
25672SOL    HW278914   2.352   1.819   4.462
25673SOL     OW78915  14.036  10.875   6.861
25673SOL    HW178916  14.022  10.938   6.790
25673SOL    HW278917  13.967  10.809   6.848
25674SOL     OW78918  10.604   5.269   8.153
25674SOL    HW178919  10.571   5.280   8.242
25674SOL    HW278920  10.549   5.326   8.099
25675SOL     OW78921   0.326   0.779   7.667
25675SOL    HW178922   0.369   0.821   7.592
25675SOL    HW278923   0.382   0.801   7.741
25676SOL     OW78924  14.825   2.677   7.396
25676SOL    HW178925  14.870   2.643   7.318
25676SOL    HW278926  14.739   2.704   7.364
25677SOL     OW78927   1.338   5.243   5.939
25677SOL    HW178928   1.349   5.220   5.847
25677SOL    HW278929   1.412   5.202   5.983
25678SOL     OW78930  13.232  10.723   1.112
25678SOL    HW178931  13.225  10.628   1.100
25678SOL    HW278932  13.316  10.736   1.156
25679SOL     OW78933   0.928  14.756   2.402
25679SOL    HW178934   0.918  14.675   2.352
25679SOL    HW278935   0.880  14.822   2.353
25680SOL     OW78936  14.085  10.651   8.765
25680SOL    HW178937  14.172  10.658   8.726
25680SOL    HW278938  14.061  10.740   8.787
25681SOL     OW78939   4.189   2.583   2.293
25681SOL    HW178940   4.160   2.556   2.206
25681SOL    HW278941   4.279   2.550   2.299
25682SOL     OW78942   3.712   7.512   4.842
25682SOL    HW178943   3.649   7.487   4.776
25682SOL    HW278944   3.672   7.487   4.925
25683SOL     OW78945   8.476   4.676   8.033
25683SOL    HW178946   8.428   4.655   7.953
25683SOL    HW278947   8.552   4.618   8.031
25684SOL     OW78948   2.680   1.074   1.986
25684SOL    HW178949   2.745   1.133   1.947
25684SOL    HW278950   2.669   1.005   1.921
25685SOL     OW78951   3.056   8.991   9.990
25685SOL    HW178952   3.046   8.926   9.920
25685SOL    HW278953   3.122   8.953  10.048
25686SOL     OW78954   6.018   3.785   4.415
25686SOL    HW178955   5.996   3.712   4.357
25686SOL    HW278956   6.072   3.746   4.484
25687SOL     OW78957  13.590   3.229   9.003
25687SOL    HW178958  13.498   3.243   8.979
25687SOL    HW278959  13.600   3.134   9.008
25688SOL     OW78960   0.551   6.241   8.306
25688SOL    HW178961   0.605   6.318   8.324
25688SOL    HW278962   0.564   6.184   8.382
25689SOL     OW78963  11.335   0.541   1.538
25689SOL    HW178964  11.260   0.509   1.589
25689SOL    HW278965  11.365   0.464   1.489
25690SOL     OW78966   4.075   1.688   1.223
25690SOL    HW178967   4.092   1.594   1.216
25690SOL    HW278968   3.979   1.695   1.220
25691SOL     OW78969   7.280   7.096   7.837
25691SOL    HW178970   7.266   7.093   7.742
25691SOL    HW278971   7.341   7.169   7.850
25692SOL     OW78972   7.248   9.358  11.524
25692SOL    HW178973   7.284   9.438  11.562
25692SOL    HW278974   7.182   9.329  11.587
25693SOL     OW78975   9.495   3.953   5.659
25693SOL    HW178976   9.544   3.873   5.680
25693SOL    HW278977   9.524   3.976   5.570
25694SOL     OW78978   7.168   3.574   8.792
25694SOL    HW178979   7.152   3.506   8.857
25694SOL    HW278980   7.118   3.649   8.823
25695SOL     OW78981   6.461   8.717   7.132
25695SOL    HW178982   6.430   8.641   7.083
25695SOL    HW278983   6.496   8.680   7.214
25696SOL     OW78984   8.238   2.064   9.463
25696SOL    HW178985   8.287   1.982   9.456
25696SOL    HW278986   8.288   2.126   9.409
25697SOL     OW78987  14.269   8.624   3.399
25697SOL    HW178988  14.230   8.537   3.390
25697SOL    HW278989  14.196   8.684   3.385
25698SOL     OW78990  10.138   6.592   9.315
25698SOL    HW178991  10.081   6.658   9.354
25698SOL    HW278992  10.079   6.520   9.293
25699SOL     OW78993   0.174  13.851   9.745
25699SOL    HW178994   0.252  13.898   9.716
25699SOL    HW278995   0.197  13.821   9.833
25700SOL     OW78996   1.694   4.166  11.768
25700SOL    HW178997   1.663   4.076  11.757
25700SOL    HW278998   1.692   4.180  11.863
25701SOL     OW78999   9.460   2.869  14.109
25701SOL    HW179000   9.415   2.912  14.036
25701SOL    HW279001   9.503   2.794  14.069
25702SOL     OW79002   3.071   1.115   3.004
25702SOL    HW179003   3.014   1.188   3.027
25702SOL    HW279004   3.042   1.043   3.059
25703SOL     OW79005   5.664   5.820   6.726
25703SOL    HW179006   5.610   5.764   6.782
25703SOL    HW279007   5.605   5.890   6.698
25704SOL     OW79008   0.744   5.185   9.042
25704SOL    HW179009   0.787   5.117   9.093
25704SOL    HW279010   0.710   5.247   9.107
25705SOL     OW79011   0.341   4.214  10.735
25705SOL    HW179012   0.324   4.299  10.695
25705SOL    HW279013   0.335   4.152  10.662
25706SOL     OW79014  11.917   5.321  11.670
25706SOL    HW179015  11.879   5.404  11.642
25706SOL    HW279016  11.883   5.256  11.608
25707SOL     OW79017  12.634  13.649  14.132
25707SOL    HW179018  12.570  13.602  14.079
25707SOL    HW279019  12.700  13.679  14.069
25708SOL     OW79020   4.607  12.237   0.717
25708SOL    HW179021   4.625  12.159   0.664
25708SOL    HW279022   4.694  12.267   0.747
25709SOL     OW79023  12.059   0.104  14.043
25709SOL    HW179024  12.006   0.027  14.063
25709SOL    HW279025  12.117   0.113  14.119
25710SOL     OW79026   3.793   1.624  11.627
25710SOL    HW179027   3.876   1.643  11.584
25710SOL    HW279028   3.799   1.668  11.712
25711SOL     OW79029   7.133   5.314   5.752
25711SOL    HW179030   7.186   5.357   5.819
25711SOL    HW279031   7.160   5.223   5.755
25712SOL     OW79032   0.009   5.557  13.079
25712SOL    HW179033   0.029   5.563  13.173
25712SOL    HW279034   0.026   5.646  13.046
25713SOL     OW79035   4.670  13.793   5.119
25713SOL    HW179036   4.738  13.825   5.178
25713SOL    HW279037   4.677  13.698   5.123
25714SOL     OW79038   8.031   8.629   5.305
25714SOL    HW179039   7.980   8.659   5.380
25714SOL    HW279040   8.083   8.556   5.338
25715SOL     OW79041   7.935  11.634   1.509
25715SOL    HW179042   7.948  11.633   1.604
25715SOL    HW279043   8.017  11.670   1.474
25716SOL     OW79044   1.160   0.563   8.850
25716SOL    HW179045   1.119   0.527   8.771
25716SOL    HW279046   1.096   0.626   8.883
25717SOL     OW79047  14.578   6.091   8.873
25717SOL    HW179048  14.511   6.058   8.932
25717SOL    HW279049  14.659   6.089   8.925
25718SOL     OW79050  12.670   8.187   4.900
25718SOL    HW179051  12.661   8.133   4.979
25718SOL    HW279052  12.728   8.137   4.843
25719SOL     OW79053   4.287   6.801   4.509
25719SOL    HW179054   4.365   6.747   4.497
25719SOL    HW279055   4.291   6.828   4.601
25720SOL     OW79056   1.266  11.128   2.792
25720SOL    HW179057   1.199  11.171   2.739
25720SOL    HW279058   1.279  11.043   2.749
25721SOL     OW79059   7.121   3.037   2.912
25721SOL    HW179060   7.149   3.117   2.956
25721SOL    HW279061   7.201   2.986   2.902
25722SOL     OW79062   0.162   9.477  12.676
25722SOL    HW179063   0.143   9.421  12.601
25722SOL    HW279064   0.080   9.523  12.693
25723SOL     OW79065   7.638  12.953   0.754
25723SOL    HW179066   7.587  13.021   0.797
25723SOL    HW279067   7.726  12.990   0.748
25724SOL     OW79068  10.773  12.048  13.148
25724SOL    HW179069  10.695  12.100  13.166
25724SOL    HW279070  10.796  12.010  13.233
25725SOL     OW79071   7.249   2.027  11.091
25725SOL    HW179072   7.255   2.024  10.996
25725SOL    HW279073   7.165   1.986  11.111
25726SOL     OW79074  11.098   3.700   9.416
25726SOL    HW179075  11.043   3.683   9.340
25726SOL    HW279076  11.188   3.696   9.383
25727SOL     OW79077   8.321   8.436   8.160
25727SOL    HW179078   8.265   8.390   8.098
25727SOL    HW279079   8.402   8.452   8.112
25728SOL     OW79080   0.495  13.235   9.762
25728SOL    HW179081   0.409  13.256   9.800
25728SOL    HW279082   0.482  13.244   9.668
25729SOL     OW79083   0.745   2.015  13.293
25729SOL    HW179084   0.807   2.032  13.222
25729SOL    HW279085   0.665   1.987  13.249
25730SOL     OW79086   8.296  14.848   7.309
25730SOL    HW179087   8.322   0.041   7.363
25730SOL    HW279088   8.283   0.002   7.222
25731SOL     OW79089   8.988  11.430  14.461
25731SOL    HW179090   8.974  11.336  14.450
25731SOL    HW279091   9.066  11.437  14.516
25732SOL     OW79092  13.093  13.976   4.618
25732SOL    HW179093  13.088  13.904   4.555
25732SOL    HW279094  13.043  13.946   4.694
25733SOL     OW79095   3.102   3.992   3.582
25733SOL    HW179096   3.014   3.953   3.590
25733SOL    HW279097   3.159   3.931   3.629
25734SOL     OW79098   2.229  14.137   1.151
25734SOL    HW179099   2.153  14.155   1.206
25734SOL    HW279100   2.265  14.223   1.130
25735SOL     OW79101   3.952   4.307   4.797
25735SOL    HW179102   3.914   4.353   4.722
25735SOL    HW279103   4.045   4.300   4.775
25736SOL     OW79104  10.151   9.084   3.539
25736SOL    HW179105  10.173   8.991   3.541
25736SOL    HW279106  10.173   9.116   3.626
25737SOL     OW79107   2.354  13.317   2.042
25737SOL    HW179108   2.398  13.262   2.107
25737SOL    HW279109   2.265  13.283   2.037
25738SOL     OW79110   2.390   3.956   0.562
25738SOL    HW179111   2.315   4.016   0.554
25738SOL    HW279112   2.404   3.947   0.656
25739SOL     OW79113   0.991   1.557   6.377
25739SOL    HW179114   1.064   1.579   6.319
25739SOL    HW279115   0.992   1.461   6.382
25740SOL     OW79116   6.005  11.821   3.198
25740SOL    HW179117   6.084  11.769   3.212
25740SOL    HW279118   5.938  11.776   3.249
25741SOL     OW79119  14.515   9.697  14.651
25741SOL    HW179120  14.443   9.640  14.677
25741SOL    HW279121  14.492   9.783  14.686
25742SOL     OW79122   9.928   6.416   9.371
25742SOL    HW179123   9.947   6.452   9.458
25742SOL    HW279124   9.857   6.353   9.386
25743SOL     OW79125   1.208  10.330   2.011
25743SOL    HW179126   1.295  10.290   2.018
25743SOL    HW279127   1.222  10.409   1.959
25744SOL     OW79128   6.468   9.929  11.016
25744SOL    HW179129   6.399   9.917  11.081
25744SOL    HW279130   6.469   9.847  10.967
25745SOL     OW79131  14.637  14.795  10.012
25745SOL    HW179132  14.565  14.733  10.025
25745SOL    HW279133  14.711  14.741   9.984
25746SOL     OW79134   3.139   4.213  12.116
25746SOL    HW179135   3.232   4.230  12.133
25746SOL    HW279136   3.136   4.125  12.080
25747SOL     OW79137  14.209   0.996   4.841
25747SOL    HW179138  14.132   0.968   4.792
25747SOL    HW279139  14.236   0.918   4.889
25748SOL     OW79140   5.860   2.400  12.625
25748SOL    HW179141   5.930   2.358  12.576
25748SOL    HW279142   5.904   2.460  12.685
25749SOL     OW79143  13.331  11.541   2.232
25749SOL    HW179144  13.370  11.486   2.299
25749SOL    HW279145  13.237  11.526   2.240
25750SOL     OW79146  13.859   4.767   0.576
25750SOL    HW179147  13.863   4.727   0.663
25750SOL    HW279148  13.948   4.796   0.559
25751SOL     OW79149   5.947   9.207  10.091
25751SOL    HW179150   5.913   9.121  10.116
25751SOL    HW279151   5.882   9.269  10.126
25752SOL     OW79152   6.126  14.618  13.583
25752SOL    HW179153   6.165  14.627  13.496
25752SOL    HW279154   6.106  14.525  13.590
25753SOL     OW79155   8.679   4.786  10.394
25753SOL    HW179156   8.770   4.760  10.409
25753SOL    HW279157   8.668   4.778  10.299
25754SOL     OW79158  11.592  11.705   6.674
25754SOL    HW179159  11.599  11.611   6.692
25754SOL    HW279160  11.611  11.713   6.580
25755SOL     OW79161  13.059  10.369   8.344
25755SOL    HW179162  13.130  10.427   8.372
25755SOL    HW279163  12.979  10.413   8.374
25756SOL     OW79164   4.725   7.393  13.348
25756SOL    HW179165   4.689   7.458  13.288
25756SOL    HW279166   4.652   7.369  13.405
25757SOL     OW79167  14.619  13.035   5.230
25757SOL    HW179168  14.578  13.015   5.314
25757SOL    HW279169  14.548  13.027   5.166
25758SOL     OW79170  11.144  10.599  10.369
25758SOL    HW179171  11.122  10.564  10.283
25758SOL    HW279172  11.104  10.538  10.431
25759SOL     OW79173   9.145  11.478   5.349
25759SOL    HW179174   9.211  11.538   5.383
25759SOL    HW279175   9.129  11.508   5.259
25760SOL     OW79176   5.338   0.160   9.888
25760SOL    HW179177   5.347   0.251   9.918
25760SOL    HW279178   5.275   0.165   9.816
25761SOL     OW79179   0.106   9.900   1.062
25761SOL    HW179180   0.187   9.919   1.014
25761SOL    HW279181   0.120   9.937   1.149
25762SOL     OW79182  13.109   5.443   5.673
25762SOL    HW179183  13.092   5.489   5.755
25762SOL    HW279184  13.025   5.442   5.627
25763SOL     OW79185   0.469   2.351  11.262
25763SOL    HW179186   0.534   2.323  11.327
25763SOL    HW279187   0.455   2.444  11.281
25764SOL     OW79188   5.631   7.662   1.181
25764SOL    HW179189   5.613   7.586   1.127
25764SOL    HW279190   5.546   7.703   1.195
25765SOL     OW79191  14.110  13.800   1.258
25765SOL    HW179192  14.129  13.757   1.175
25765SOL    HW279193  14.021  13.773   1.279
25766SOL     OW79194   0.940   9.790  12.298
25766SOL    HW179195   0.979   9.877  12.294
25766SOL    HW279196   0.973   9.753  12.380
25767SOL     OW79197  10.945  12.652   4.464
25767SOL    HW179198  10.986  12.589   4.523
25767SOL    HW279199  10.941  12.607   4.380
25768SOL     OW79200   1.814   7.949  12.529
25768SOL    HW179201   1.863   8.031  12.521
25768SOL    HW279202   1.776   7.936  12.442
25769SOL     OW79203   2.226   4.596   4.955
25769SOL    HW179204   2.305   4.648   4.966
25769SOL    HW279205   2.251   4.507   4.980
25770SOL     OW79206   2.580   3.778  11.724
25770SOL    HW179207   2.570   3.844  11.656
25770SOL    HW279208   2.501   3.724  11.717
25771SOL     OW79209   4.808   6.669  12.163
25771SOL    HW179210   4.765   6.634  12.085
25771SOL    HW279211   4.845   6.752  12.135
25772SOL     OW79212   1.502   1.407  10.309
25772SOL    HW179213   1.506   1.359  10.392
25772SOL    HW279214   1.410   1.401  10.282
25773SOL     OW79215   5.207   5.745   2.500
25773SOL    HW179216   5.231   5.658   2.533
25773SOL    HW279217   5.276   5.766   2.438
25774SOL     OW79218  14.784   6.689   5.452
25774SOL    HW179219  14.768   6.781   5.473
25774SOL    HW279220  14.761   6.682   5.359
25775SOL     OW79221  10.066   2.979   0.112
25775SOL    HW179222  10.097   2.939   0.031
25775SOL    HW279223   9.992   3.034   0.086
25776SOL     OW79224   9.025  14.725  10.659
25776SOL    HW179225   8.962  14.778  10.611
25776SOL    HW279226   9.061  14.666  10.593
25777SOL     OW79227  12.616  11.187  12.639
25777SOL    HW179228  12.550  11.255  12.648
25777SOL    HW279229  12.578  11.125  12.577
25778SOL     OW79230  10.139  14.703  11.578
25778SOL    HW179231  10.124  14.789  11.618
25778SOL    HW279232  10.214  14.717  11.520
25779SOL     OW79233  13.301   4.026   2.026
25779SOL    HW179234  13.372   4.088   2.007
25779SOL    HW279235  13.248   4.026   1.947
25780SOL     OW79236   8.209   4.327   6.558
25780SOL    HW179237   8.150   4.363   6.491
25780SOL    HW279238   8.171   4.355   6.641
25781SOL     OW79239  12.549   3.349   0.420
25781SOL    HW179240  12.577   3.331   0.510
25781SOL    HW279241  12.455   3.328   0.420
25782SOL     OW79242  14.272  12.485   4.640
25782SOL    HW179243  14.313  12.425   4.702
25782SOL    HW279244  14.257  12.565   4.689
25783SOL     OW79245  12.845   4.104  11.506
25783SOL    HW179246  12.878   4.185  11.467
25783SOL    HW279247  12.920   4.067  11.552
25784SOL     OW79248  11.081   0.941   1.757
25784SOL    HW179249  11.144   0.874   1.783
25784SOL    HW279250  11.000   0.892   1.743
25785SOL     OW79251   0.395  12.006  10.642
25785SOL    HW179252   0.329  12.071  10.668
25785SOL    HW279253   0.344  11.931  10.611
25786SOL     OW79254  13.563   9.810   5.256
25786SOL    HW179255  13.515   9.892   5.239
25786SOL    HW279256  13.523   9.747   5.196
25787SOL     OW79257   6.223   4.453   9.095
25787SOL    HW179258   6.308   4.432   9.058
25787SOL    HW279259   6.240   4.526   9.155
25788SOL     OW79260   0.978   5.621  14.591
25788SOL    HW179261   0.971   5.646  14.683
25788SOL    HW279262   0.908   5.557  14.578
25789SOL     OW79263  13.854  10.730   9.836
25789SOL    HW179264  13.881  10.686   9.917
25789SOL    HW279265  13.927  10.788   9.815
25790SOL     OW79266   4.361  13.987   7.403
25790SOL    HW179267   4.350  14.068   7.453
25790SOL    HW279268   4.308  13.922   7.449
25791SOL     OW79269   2.677   0.565   9.308
25791SOL    HW179270   2.603   0.536   9.256
25791SOL    HW279271   2.741   0.598   9.244
25792SOL     OW79272  12.040   0.142  13.510
25792SOL    HW179273  12.099   0.215  13.494
25792SOL    HW279274  12.090   0.082  13.564
25793SOL     OW79275  13.401   3.725   8.254
25793SOL    HW179276  13.389   3.788   8.183
25793SOL    HW279277  13.492   3.736   8.280
25794SOL     OW79278   2.665  13.077  13.666
25794SOL    HW179279   2.625  13.011  13.609
25794SOL    HW279280   2.619  13.158  13.644
25795SOL     OW79281  13.882   5.502   4.030
25795SOL    HW179282  13.824   5.567   4.069
25795SOL    HW279283  13.827   5.456   3.967
25796SOL     OW79284   7.812   6.404   7.211
25796SOL    HW179285   7.795   6.348   7.136
25796SOL    HW279286   7.905   6.423   7.206
25797SOL     OW79287  13.068  12.007   1.346
25797SOL    HW179288  13.083  12.096   1.379
25797SOL    HW279289  13.027  12.021   1.260
25798SOL     OW79290   3.494  10.905   5.868
25798SOL    HW179291   3.509  10.824   5.820
25798SOL    HW279292   3.401  10.924   5.856
25799SOL     OW79293   6.604   0.073  14.485
25799SOL    HW179294   6.644   0.149  14.527
25799SOL    HW279295   6.550   0.109  14.415
25800SOL     OW79296   5.874  13.964  12.928
25800SOL    HW179297   5.952  13.966  12.984
25800SOL    HW279298   5.898  13.905  12.857
25801SOL     OW79299   2.334  14.630  13.553
25801SOL    HW179300   2.377  14.610  13.636
25801SOL    HW279301   2.405  14.652  13.493
25802SOL     OW79302   7.777  13.500  12.756
25802SOL    HW179303   7.792  13.430  12.692
25802SOL    HW279304   7.816  13.467  12.837
25803SOL     OW79305   8.698   6.091   4.457
25803SOL    HW179306   8.701   6.019   4.395
25803SOL    HW279307   8.732   6.166   4.408
25804SOL     OW79308   5.036   4.086  13.931
25804SOL    HW179309   4.980   4.030  13.985
25804SOL    HW279310   5.088   4.025  13.879
25805SOL     OW79311   2.524  10.981  11.299
25805SOL    HW179312   2.583  10.993  11.224
25805SOL    HW279313   2.437  10.972  11.260
25806SOL     OW79314  11.506   5.985   6.690
25806SOL    HW179315  11.472   6.024   6.772
25806SOL    HW279316  11.503   5.891   6.706
25807SOL     OW79317   4.759  10.015   4.404
25807SOL    HW179318   4.784  10.106   4.387
25807SOL    HW279319   4.664  10.016   4.406
25808SOL     OW79320  10.140   3.430   3.593
25808SOL    HW179321  10.080   3.359   3.573
25808SOL    HW279322  10.087   3.496   3.637
25809SOL     OW79323  10.945   4.416   0.033
25809SOL    HW179324  10.926   4.495  14.864
25809SOL    HW279325  10.906   4.433   0.119
25810SOL     OW79326   0.331   3.056   9.075
25810SOL    HW179327   0.244   3.034   9.105
25810SOL    HW279328   0.383   3.066   9.155
25811SOL     OW79329   4.808   5.413   2.079
25811SOL    HW179330   4.812   5.318   2.078
25811SOL    HW279331   4.883   5.440   2.133
25812SOL     OW79332   1.462   1.398   0.994
25812SOL    HW179333   1.373   1.365   0.994
25812SOL    HW279334   1.454   1.492   1.008
25813SOL     OW79335  13.713   9.203   8.250
25813SOL    HW179336  13.760   9.159   8.179
25813SOL    HW279337  13.627   9.221   8.212
25814SOL     OW79338   0.277   1.293   8.964
25814SOL    HW179339   0.185   1.284   8.987
25814SOL    HW279340   0.296   1.386   8.980
25815SOL     OW79341   2.103   1.882  11.789
25815SOL    HW179342   2.183   1.869  11.738
25815SOL    HW279343   2.059   1.798  11.786
25816SOL     OW79344   0.715  13.983  14.480
25816SOL    HW179345   0.690  13.916  14.543
25816SOL    HW279346   0.649  13.976  14.410
25817SOL     OW79347   1.827   9.913  10.647
25817SOL    HW179348   1.863   9.843  10.593
25817SOL    HW279349   1.784   9.868  10.719
25818SOL     OW79350   1.031   2.195   7.852
25818SOL    HW179351   1.004   2.287   7.855
25818SOL    HW279352   1.054   2.174   7.943
25819SOL     OW79353   6.581  13.569   2.829
25819SOL    HW179354   6.666  13.524   2.829
25819SOL    HW279355   6.574  13.606   2.917
25820SOL     OW79356   7.374   2.003   7.598
25820SOL    HW179357   7.315   1.955   7.540
25820SOL    HW279358   7.421   1.935   7.646
25821SOL     OW79359   5.137  11.875  12.881
25821SOL    HW179360   5.188  11.794  12.886
25821SOL    HW279361   5.063  11.853  12.824
25822SOL     OW79362  10.470   4.962   2.465
25822SOL    HW179363  10.559   4.993   2.484
25822SOL    HW279364  10.415   5.006   2.530
25823SOL     OW79365  11.638   0.365   6.892
25823SOL    HW179366  11.621   0.459   6.879
25823SOL    HW279367  11.661   0.333   6.805
25824SOL     OW79368   9.744   9.062  14.755
25824SOL    HW179369   9.697   9.125  14.700
25824SOL    HW279370   9.773   8.994  14.694
25825SOL     OW79371   1.468   8.874   2.965
25825SOL    HW179372   1.451   8.811   3.035
25825SOL    HW279373   1.392   8.866   2.907
25826SOL     OW79374   4.416  11.922   6.876
25826SOL    HW179375   4.368  11.839   6.873
25826SOL    HW279376   4.503  11.901   6.844
25827SOL     OW79377  11.772  14.752   0.625
25827SOL    HW179378  11.811  14.826   0.673
25827SOL    HW279379  11.807  14.761   0.536
25828SOL     OW79380  14.620   6.399  13.803
25828SOL    HW179381  14.661   6.420  13.719
25828SOL    HW279382  14.554   6.466  13.815
25829SOL     OW79383   2.927   2.884   7.849
25829SOL    HW179384   2.896   2.972   7.828
25829SOL    HW279385   2.924   2.838   7.765
25830SOL     OW79386   5.444   7.355   9.860
25830SOL    HW179387   5.521   7.405   9.833
25830SOL    HW279388   5.476   7.295   9.927
25831SOL     OW79389   0.050   5.154   9.913
25831SOL    HW179390   0.078   5.063   9.924
25831SOL    HW279391   0.082   5.179   9.827
25832SOL     OW79392  11.898  12.485   6.482
25832SOL    HW179393  11.844  12.484   6.561
25832SOL    HW279394  11.853  12.548   6.424
25833SOL     OW79395  10.530   2.493  14.588
25833SOL    HW179396  10.567   2.490  14.676
25833SOL    HW279397  10.563   2.575  14.550
25834SOL     OW79398   7.568   9.792  10.535
25834SOL    HW179399   7.612   9.711  10.561
25834SOL    HW279400   7.511   9.766  10.462
25835SOL     OW79401  14.436   4.583   1.672
25835SOL    HW179402  14.351   4.542   1.657
25835SOL    HW279403  14.498   4.528   1.625
25836SOL     OW79404   0.541  12.070   8.840
25836SOL    HW179405   0.601  11.999   8.861
25836SOL    HW279406   0.584  12.117   8.768
25837SOL     OW79407  12.198   9.897  13.436
25837SOL    HW179408  12.173   9.824  13.380
25837SOL    HW279409  12.137   9.894  13.510
25838SOL     OW79410  14.780   9.669  12.789
25838SOL    HW179411  14.768   9.750  12.838
25838SOL    HW279412  14.813   9.697  12.704
25839SOL     OW79413  10.419   2.745   1.602
25839SOL    HW179414  10.366   2.811   1.559
25839SOL    HW279415  10.509   2.765   1.577
25840SOL     OW79416  13.601  14.825   9.774
25840SOL    HW179417  13.674   0.004   9.778
25840SOL    HW279418  13.546  14.848   9.850
25841SOL     OW79419  12.856  10.647  14.619
25841SOL    HW179420  12.855  10.715  14.685
25841SOL    HW279421  12.878  10.567  14.666
25842SOL     OW79422  10.198   4.300   7.778
25842SOL    HW179423  10.104   4.288   7.767
25842SOL    HW279424  10.232   4.299   7.688
25843SOL     OW79425  14.881   9.151   6.624
25843SOL    HW179426   0.051   9.226   6.652
25843SOL    HW279427   0.060   9.078   6.623
25844SOL     OW79428  14.620  13.125   8.751
25844SOL    HW179429  14.578  13.040   8.732
25844SOL    HW279430  14.550  13.189   8.739
25845SOL     OW79431   9.867   1.774   0.741
25845SOL    HW179432   9.787   1.827   0.744
25845SOL    HW279433   9.870   1.740   0.652
25846SOL     OW79434   6.150   0.409   7.095
25846SOL    HW179435   6.210   0.358   7.149
25846SOL    HW279436   6.143   0.359   7.014
25847SOL     OW79437  12.505   6.408   4.919
25847SOL    HW179438  12.594   6.376   4.905
25847SOL    HW279439  12.491   6.398   5.014
25848SOL     OW79440   7.019   7.067   7.133
25848SOL    HW179441   7.058   7.108   7.056
25848SOL    HW279442   6.971   7.138   7.176
25849SOL     OW79443  14.326   1.038  11.321
25849SOL    HW179444  14.410   1.014  11.281
25849SOL    HW279445  14.260   0.994  11.268
25850SOL     OW79446   1.093   3.655  10.279
25850SOL    HW179447   1.129   3.572  10.310
25850SOL    HW279448   1.093   3.647  10.184
25851SOL     OW79449   4.155  13.515   7.416
25851SOL    HW179450   4.201  13.454   7.360
25851SOL    HW279451   4.122  13.462   7.488
25852SOL     OW79452  11.998  14.620  13.164
25852SOL    HW179453  12.078  14.672  13.177
25852SOL    HW279454  11.956  14.619  13.250
25853SOL     OW79455   9.215   5.767  14.153
25853SOL    HW179456   9.246   5.856  14.134
25853SOL    HW279457   9.238   5.716  14.076
25854SOL     OW79458  10.704  12.557   9.254
25854SOL    HW179459  10.745  12.489   9.307
25854SOL    HW279460  10.693  12.631   9.314
25855SOL     OW79461   6.993   9.460  13.029
25855SOL    HW179462   7.017   9.407  12.953
25855SOL    HW279463   6.904   9.433  13.051
25856SOL     OW79464   9.136   2.598   3.674
25856SOL    HW179465   9.067   2.639   3.621
25856SOL    HW279466   9.140   2.508   3.642
25857SOL     OW79467   1.805   9.381   1.600
25857SOL    HW179468   1.828   9.309   1.543
25857SOL    HW279469   1.846   9.458   1.560
25858SOL     OW79470  12.606   8.855  13.795
25858SOL    HW179471  12.544   8.896  13.854
25858SOL    HW279472  12.619   8.918  13.725
25859SOL     OW79473   1.580   0.313   2.922
25859SOL    HW179474   1.521   0.322   2.997
25859SOL    HW279475   1.535   0.358   2.850
25860SOL     OW79476   9.425   5.083  12.874
25860SOL    HW179477   9.396   5.170  12.848
25860SOL    HW279478   9.502   5.098  12.929
25861SOL     OW79479   8.824   7.042   9.733
25861SOL    HW179480   8.778   7.097   9.670
25861SOL    HW279481   8.784   6.955   9.723
25862SOL     OW79482  10.954  13.000  14.324
25862SOL    HW179483  10.964  12.924  14.266
25862SOL    HW279484  11.042  13.015  14.359
25863SOL     OW79485   1.427   9.593   6.664
25863SOL    HW179486   1.397   9.544   6.587
25863SOL    HW279487   1.361   9.662   6.676
25864SOL     OW79488   2.033   6.089   3.033
25864SOL    HW179489   2.116   6.124   3.067
25864SOL    HW279490   2.059   6.012   2.983
25865SOL     OW79491   7.069   1.571  11.410
25865SOL    HW179492   7.040   1.617  11.489
25865SOL    HW279493   7.165   1.578  11.413
25866SOL     OW79494   9.353  12.566   9.320
25866SOL    HW179495   9.364  12.473   9.301
25866SOL    HW279496   9.258  12.576   9.335
25867SOL     OW79497  13.883  10.407   0.064
25867SOL    HW179498  13.864  10.491   0.022
25867SOL    HW279499  13.811  10.395   0.126
25868SOL     OW79500  12.523  12.722  10.743
25868SOL    HW179501  12.474  12.730  10.825
25868SOL    HW279502  12.526  12.628  10.727
25869SOL     OW79503   0.422   6.195   6.026
25869SOL    HW179504   0.415   6.288   6.050
25869SOL    HW279505   0.422   6.148   6.109
25870SOL     OW79506  10.033   2.119  12.707
25870SOL    HW179507   9.946   2.143  12.737
25870SOL    HW279508  10.040   2.025  12.726
25871SOL     OW79509  14.151   2.846   4.135
25871SOL    HW179510  14.079   2.856   4.197
25871SOL    HW279511  14.229   2.838   4.190
25872SOL     OW79512  14.239  14.571   6.197
25872SOL    HW179513  14.298  14.502   6.167
25872SOL    HW279514  14.151  14.532   6.192
25873SOL     OW79515   2.271   6.760   6.543
25873SOL    HW179516   2.183   6.798   6.537
25873SOL    HW279517   2.273   6.693   6.476
25874SOL     OW79518   7.365  10.208  14.853
25874SOL    HW179519   7.357  10.284  14.796
25874SOL    HW279520   7.441  10.228   0.026
25875SOL     OW79521   4.108   0.790   5.266
25875SOL    HW179522   4.050   0.824   5.335
25875SOL    HW279523   4.196   0.796   5.304
25876SOL     OW79524   2.533   0.011   9.108
25876SOL    HW179525   2.537  14.876   9.202
25876SOL    HW279526   2.460   0.073   9.098
25877SOL     OW79527   5.934   3.119   0.688
25877SOL    HW179528   5.910   3.061   0.615
25877SOL    HW279529   5.954   3.203   0.646
25878SOL     OW79530  10.173  10.799   8.774
25878SOL    HW179531  10.252  10.765   8.730
25878SOL    HW279532  10.131  10.721   8.810
25879SOL     OW79533   0.425  14.811   0.112
25879SOL    HW179534   0.464  14.728   0.084
25879SOL    HW279535   0.345  14.785   0.159
25880SOL     OW79536   8.482   0.147   3.681
25880SOL    HW179537   8.481   0.195   3.598
25880SOL    HW279538   8.520   0.062   3.659
25881SOL     OW79539   6.130  11.502   8.600
25881SOL    HW179540   6.207  11.507   8.543
25881SOL    HW279541   6.113  11.408   8.609
25882SOL     OW79542   1.623   7.937   7.383
25882SOL    HW179543   1.662   7.852   7.363
25882SOL    HW279544   1.691   7.984   7.430
25883SOL     OW79545  10.185   0.865  13.973
25883SOL    HW179546  10.226   0.858  13.887
25883SOL    HW279547  10.115   0.799  13.972
25884SOL     OW79548  11.579  12.483   2.644
25884SOL    HW179549  11.667  12.446   2.638
25884SOL    HW279550  11.521  12.408   2.642
25885SOL     OW79551   4.880   4.191  12.410
25885SOL    HW179552   4.970   4.170  12.435
25885SOL    HW279553   4.860   4.271  12.459
25886SOL     OW79554   1.221  13.086   0.221
25886SOL    HW179555   1.302  13.124   0.187
25886SOL    HW279556   1.174  13.058   0.143
25887SOL     OW79557  10.512   7.536  14.417
25887SOL    HW179558  10.566   7.614  14.432
25887SOL    HW279559  10.484   7.543  14.326
25888SOL     OW79560   1.915   1.759   5.428
25888SOL    HW179561   1.878   1.843   5.401
25888SOL    HW279562   1.892   1.699   5.357
25889SOL     OW79563   7.864  11.854   3.786
25889SOL    HW179564   7.884  11.898   3.868
25889SOL    HW279565   7.770  11.834   3.792
25890SOL     OW79566   0.160  10.954   8.543
25890SOL    HW179567   0.171  11.033   8.490
25890SOL    HW279568   0.249  10.920   8.555
25891SOL     OW79569   7.628  13.376   9.596
25891SOL    HW179570   7.619  13.290   9.553
25891SOL    HW279571   7.551  13.381   9.653
25892SOL     OW79572  12.683  13.393   4.504
25892SOL    HW179573  12.687  13.299   4.520
25892SOL    HW279574  12.646  13.401   4.416
25893SOL     OW79575   0.878  14.831   8.213
25893SOL    HW179576   0.972  14.820   8.225
25893SOL    HW279577   0.870   0.023   8.152
25894SOL     OW79578   1.968   3.051  12.550
25894SOL    HW179579   1.908   2.982  12.580
25894SOL    HW279580   2.054   3.009  12.550
25895SOL     OW79581  14.814   2.669   9.459
25895SOL    HW179582  14.790   2.733   9.393
25895SOL    HW279583  14.871   2.607   9.413
25896SOL     OW79584   0.753  11.592  13.923
25896SOL    HW179585   0.758  11.654  13.851
25896SOL    HW279586   0.700  11.636  13.990
25897SOL     OW79587   6.030   3.422  12.108
25897SOL    HW179588   6.011   3.500  12.056
25897SOL    HW279589   6.018   3.349  12.047
25898SOL     OW79590   8.394  14.513   9.225
25898SOL    HW179591   8.372  14.482   9.138
25898SOL    HW279592   8.368  14.442   9.284
25899SOL     OW79593   2.067   1.689  13.972
25899SOL    HW179594   1.973   1.708  13.964
25899SOL    HW279595   2.083   1.685  14.066
25900SOL     OW79596  14.648   2.804  11.841
25900SOL    HW179597  14.635   2.847  11.926
25900SOL    HW279598  14.648   2.711  11.862
25901SOL     OW79599   6.469   4.108   1.147
25901SOL    HW179600   6.559   4.098   1.179
25901SOL    HW279601   6.436   4.185   1.192
25902SOL     OW79602   8.975  13.311   3.349
25902SOL    HW179603   9.014  13.342   3.268
25902SOL    HW279604   9.035  13.342   3.418
25903SOL     OW79605   1.483   1.789   0.117
25903SOL    HW179606   1.478   1.877   0.078
25903SOL    HW279607   1.525   1.735   0.050
25904SOL     OW79608   7.669   9.556   2.991
25904SOL    HW179609   7.763   9.574   2.996
25904SOL    HW279610   7.649   9.564   2.898
25905SOL     OW79611   6.542   2.452   1.939
25905SOL    HW179612   6.590   2.466   2.020
25905SOL    HW279613   6.607   2.421   1.876
25906SOL     OW79614   1.848   3.752   1.895
25906SOL    HW179615   1.852   3.813   1.969
25906SOL    HW279616   1.879   3.803   1.821
25907SOL     OW79617   8.443  14.679   5.665
25907SOL    HW179618   8.395  14.597   5.676
25907SOL    HW279619   8.458  14.711   5.754
25908SOL     OW79620  14.151   3.782   6.029
25908SOL    HW179621  14.180   3.765   6.119
25908SOL    HW279622  14.106   3.701   6.003
25909SOL     OW79623   1.044   9.298   6.193
25909SOL    HW179624   1.062   9.342   6.276
25909SOL    HW279625   0.948   9.299   6.186
25910SOL     OW79626  10.586  14.436  11.458
25910SOL    HW179627  10.585  14.360  11.400
25910SOL    HW279628  10.495  14.449  11.483
25911SOL     OW79629   3.471   9.630   7.500
25911SOL    HW179630   3.415   9.646   7.424
25911SOL    HW279631   3.560   9.642   7.467
25912SOL     OW79632  10.625   7.659   2.003
25912SOL    HW179633  10.656   7.741   1.966
25912SOL    HW279634  10.531   7.672   2.014
25913SOL     OW79635   3.723  13.919   3.766
25913SOL    HW179636   3.786  13.851   3.788
25913SOL    HW279637   3.684  13.944   3.851
25914SOL     OW79638   5.855   9.947  10.438
25914SOL    HW179639   5.774   9.993  10.416
25914SOL    HW279640   5.919  10.017  10.449
25915SOL     OW79641   3.682   8.212   5.922
25915SOL    HW179642   3.651   8.121   5.918
25915SOL    HW279643   3.662   8.239   6.012
25916SOL     OW79644   4.790  13.464  12.329
25916SOL    HW179645   4.764  13.391  12.385
25916SOL    HW279646   4.708  13.503  12.300
25917SOL     OW79647  14.716   6.452   8.623
25917SOL    HW179648  14.789   6.398   8.594
25917SOL    HW279649  14.748   6.542   8.613
25918SOL     OW79650   1.642   6.489   5.535
25918SOL    HW179651   1.705   6.493   5.607
25918SOL    HW279652   1.644   6.576   5.496
25919SOL     OW79653  14.758   7.166   9.275
25919SOL    HW179654  14.733   7.151   9.366
25919SOL    HW279655  14.740   7.259   9.259
25920SOL     OW79656   2.781   6.804  10.561
25920SOL    HW179657   2.836   6.883  10.557
25920SOL    HW279658   2.740   6.799  10.474
25921SOL     OW79659   3.925   8.948  10.032
25921SOL    HW179660   3.969   8.906  10.106
25921SOL    HW279661   3.848   8.894  10.015
25922SOL     OW79662   2.604  14.787  11.753
25922SOL    HW179663   2.618  14.697  11.782
25922SOL    HW279664   2.536  14.780  11.686
25923SOL     OW79665  12.079  10.667   8.955
25923SOL    HW179666  12.006  10.643   8.898
25923SOL    HW279667  12.134  10.723   8.900
25924SOL     OW79668   4.763  14.643   2.602
25924SOL    HW179669   4.676  14.619   2.634
25924SOL    HW279670   4.815  14.564   2.614
25925SOL     OW79671   5.598   2.213   1.335
25925SOL    HW179672   5.598   2.231   1.241
25925SOL    HW279673   5.690   2.214   1.359
25926SOL     OW79674  13.681   0.567  11.613
25926SOL    HW179675  13.697   0.600  11.524
25926SOL    HW279676  13.736   0.488  11.619
25927SOL     OW79677   1.778  11.549  12.433
25927SOL    HW179678   1.688  11.541  12.465
25927SOL    HW279679   1.830  11.567  12.511
25928SOL     OW79680  11.055   3.145   6.643
25928SOL    HW179681  11.123   3.083   6.669
25928SOL    HW279682  11.006   3.100   6.574
25929SOL     OW79683   6.127   0.266   6.866
25929SOL    HW179684   6.190   0.290   6.799
25929SOL    HW279685   6.052   0.230   6.818
25930SOL     OW79686   5.094   8.720  13.382
25930SOL    HW179687   5.147   8.770  13.445
25930SOL    HW279688   5.120   8.755  13.297
25931SOL     OW79689   1.514  11.684   7.471
25931SOL    HW179690   1.543  11.649   7.556
25931SOL    HW279691   1.419  11.694   7.480
25932SOL     OW79692   5.115  14.367  10.679
25932SOL    HW179693   5.175  14.343  10.609
25932SOL    HW279694   5.068  14.443  10.645
25933SOL     OW79695   8.631   4.460  13.990
25933SOL    HW179696   8.604   4.397  13.923
25933SOL    HW279697   8.609   4.545  13.952
25934SOL     OW79698  10.884   0.295   4.095
25934SOL    HW179699  10.918   0.206   4.085
25934SOL    HW279700  10.962   0.351   4.090
25935SOL     OW79701  13.490   6.842   3.720
25935SOL    HW179702  13.435   6.914   3.689
25935SOL    HW279703  13.524   6.872   3.804
25936SOL     OW79704  11.764  13.978  14.183
25936SOL    HW179705  11.825  13.905  14.174
25936SOL    HW279706  11.708  13.954  14.257
25937SOL     OW79707   6.936   6.151  11.532
25937SOL    HW179708   6.936   6.057  11.511
25937SOL    HW279709   7.028   6.173  11.542
25938SOL     OW79710  14.806   4.652   8.185
25938SOL    HW179711   0.009   4.686   8.160
25938SOL    HW279712  14.779   4.598   8.110
25939SOL     OW79713   4.218   8.419   0.465
25939SOL    HW179714   4.139   8.368   0.483
25939SOL    HW279715   4.212   8.495   0.523
25940SOL     OW79716   4.932   9.543  12.452
25940SOL    HW179717   4.909   9.603  12.523
25940SOL    HW279718   5.018   9.573  12.423
25941SOL     OW79719   6.215   4.191   3.385
25941SOL    HW179720   6.232   4.099   3.408
25941SOL    HW279721   6.127   4.208   3.419
25942SOL     OW79722  12.517   1.175   6.411
25942SOL    HW179723  12.449   1.162   6.346
25942SOL    HW279724  12.479   1.237   6.474
25943SOL     OW79725   9.081   9.720   8.405
25943SOL    HW179726   9.041   9.755   8.485
25943SOL    HW279727   9.026   9.645   8.381
25944SOL     OW79728  12.657   8.628   2.975
25944SOL    HW179729  12.712   8.551   2.968
25944SOL    HW279730  12.708   8.690   3.027
25945SOL     OW79731   7.283  11.462   0.976
25945SOL    HW179732   7.334  11.384   0.953
25945SOL    HW279733   7.201  11.427   1.013
25946SOL     OW79734   3.859   9.487   6.018
25946SOL    HW179735   3.895   9.479   5.930
25946SOL    HW279736   3.872   9.401   6.057
25947SOL     OW79737  10.000   8.276  14.652
25947SOL    HW179738   9.926   8.337  14.650
25947SOL    HW279739  10.055   8.302  14.579
25948SOL     OW79740  12.352   4.328   7.066
25948SOL    HW179741  12.399   4.278   6.999
25948SOL    HW279742  12.276   4.364   7.020
25949SOL     OW79743  13.780   5.719  14.015
25949SOL    HW179744  13.784   5.783  13.943
25949SOL    HW279745  13.848   5.655  13.994
25950SOL     OW79746   0.750   4.359   2.531
25950SOL    HW179747   0.740   4.269   2.501
25950SOL    HW279748   0.660   4.391   2.540
25951SOL     OW79749   2.068   9.454   9.166
25951SOL    HW179750   2.133   9.448   9.236
25951SOL    HW279751   2.119   9.483   9.090
25952SOL     OW79752   2.261  12.773   0.119
25952SOL    HW179753   2.225  12.694   0.158
25952SOL    HW279754   2.346  12.784   0.162
25953SOL     OW79755   6.960  14.529   5.183
25953SOL    HW179756   7.016  14.551   5.258
25953SOL    HW279757   6.896  14.467   5.218
25954SOL     OW79758   5.640   3.842  13.532
25954SOL    HW179759   5.664   3.752  13.509
25954SOL    HW279760   5.724   3.888  13.541
25955SOL     OW79761   4.608   9.730  14.590
25955SOL    HW179762   4.676   9.797  14.595
25955SOL    HW279763   4.643   9.664  14.529
25956SOL     OW79764   2.955   3.048  13.855
25956SOL    HW179765   2.903   2.977  13.819
25956SOL    HW279766   2.923   3.059  13.944
25957SOL     OW79767  12.527  12.976   4.971
25957SOL    HW179768  12.489  12.909   4.915
25957SOL    HW279769  12.575  13.033   4.911
25958SOL     OW79770   7.840   6.677  11.335
25958SOL    HW179771   7.881   6.607  11.284
25958SOL    HW279772   7.874   6.757  11.297
25959SOL     OW79773  13.935   8.424  12.449
25959SOL    HW179774  13.985   8.476  12.513
25959SOL    HW279775  13.938   8.335  12.483
25960SOL     OW79776  10.232   2.682  11.409
25960SOL    HW179777  10.168   2.661  11.478
25960SOL    HW279778  10.249   2.598  11.366
25961SOL     OW79779   1.280   0.695   4.507
25961SOL    HW179780   1.259   0.737   4.424
25961SOL    HW279781   1.340   0.624   4.483
25962SOL     OW79782  10.799   7.763   7.656
25962SOL    HW179783  10.760   7.811   7.582
25962SOL    HW279784  10.821   7.677   7.620
25963SOL     OW79785   5.703   6.722  11.981
25963SOL    HW179786   5.749   6.712  11.897
25963SOL    HW279787   5.673   6.813  11.981
25964SOL     OW79788   7.622   9.438   0.992
25964SOL    HW179789   7.633   9.450   0.898
25964SOL    HW279790   7.635   9.525   1.029
25965SOL     OW79791   5.214   6.258  12.531
25965SOL    HW179792   5.230   6.197  12.459
25965SOL    HW279793   5.124   6.287  12.518
25966SOL     OW79794   3.375  10.414   6.300
25966SOL    HW179795   3.298  10.377   6.256
25966SOL    HW279796   3.357  10.508   6.305
25967SOL     OW79797   0.314   9.401  14.681
25967SOL    HW179798   0.397   9.437  14.713
25967SOL    HW279799   0.290   9.335  14.746
25968SOL     OW79800   8.935   6.847  13.848
25968SOL    HW179801   8.939   6.864  13.754
25968SOL    HW279802   8.986   6.767  13.859
25969SOL     OW79803   2.050   2.027   7.396
25969SOL    HW179804   2.061   2.061   7.307
25969SOL    HW279805   2.129   1.976   7.412
25970SOL     OW79806   9.122   2.087   8.699
25970SOL    HW179807   9.094   2.177   8.713
25970SOL    HW279808   9.119   2.074   8.604
25971SOL     OW79809   9.282   2.621   4.512
25971SOL    HW179810   9.287   2.671   4.430
25971SOL    HW279811   9.254   2.686   4.577
25972SOL     OW79812   9.626   7.354   7.315
25972SOL    HW179813   9.649   7.430   7.261
25972SOL    HW279814   9.642   7.279   7.258
25973SOL     OW79815  12.604   7.922   2.553
25973SOL    HW179816  12.639   7.854   2.496
25973SOL    HW279817  12.509   7.920   2.538
25974SOL     OW79818   5.239   6.917   5.418
25974SOL    HW179819   5.297   6.964   5.358
25974SOL    HW279820   5.151   6.939   5.388
25975SOL     OW79821   1.165   6.652   9.193
25975SOL    HW179822   1.202   6.576   9.238
25975SOL    HW279823   1.120   6.614   9.117
25976SOL     OW79824   0.974   4.385  10.837
25976SOL    HW179825   0.888   4.422  10.816
25976SOL    HW279826   0.992   4.324  10.766
25977SOL     OW79827   0.717  14.119  11.315
25977SOL    HW179828   0.624  14.112  11.336
25977SOL    HW279829   0.730  14.055  11.245
25978SOL     OW79830  11.974  11.998   6.584
25978SOL    HW179831  11.881  11.977   6.582
25978SOL    HW279832  11.979  12.088   6.551
25979SOL     OW79833  11.140  11.664   6.185
25979SOL    HW179834  11.152  11.666   6.090
25979SOL    HW279835  11.228  11.660   6.221
25980SOL     OW79836  12.285   0.227  14.319
25980SOL    HW179837  12.377   0.213  14.343
25980SOL    HW279838  12.236   0.171  14.379
25981SOL     OW79839  13.457   9.572   7.689
25981SOL    HW179840  13.511   9.581   7.611
25981SOL    HW279841  13.474   9.652   7.739
25982SOL     OW79842  14.235  12.170   6.589
25982SOL    HW179843  14.287  12.208   6.659
25982SOL    HW279844  14.299  12.137   6.526
25983SOL     OW79845   8.613   6.939   0.957
25983SOL    HW179846   8.683   6.875   0.942
25983SOL    HW279847   8.612   6.952   1.052
25984SOL     OW79848   2.846   3.774   5.114
25984SOL    HW179849   2.771   3.730   5.153
25984SOL    HW279850   2.909   3.782   5.186
25985SOL     OW79851   7.761   5.625   2.459
25985SOL    HW179852   7.784   5.532   2.452
25985SOL    HW279853   7.834   5.671   2.417
25986SOL     OW79854   0.128   1.787   5.989
25986SOL    HW179855   0.209   1.803   6.037
25986SOL    HW279856   0.147   1.711   5.935
25987SOL     OW79857   7.754   5.956   1.243
25987SOL    HW179858   7.787   5.873   1.277
25987SOL    HW279859   7.660   5.955   1.262
25988SOL     OW79860   1.516   9.092   4.562
25988SOL    HW179861   1.502   9.144   4.641
25988SOL    HW279862   1.471   9.141   4.493
25989SOL     OW79863  10.677  12.149  11.005
25989SOL    HW179864  10.703  12.242  10.998
25989SOL    HW279865  10.616  12.147  11.078
25990SOL     OW79866   5.630  12.690   4.664
25990SOL    HW179867   5.604  12.607   4.703
25990SOL    HW279868   5.723  12.679   4.643
25991SOL     OW79869   4.141   5.383   3.123
25991SOL    HW179870   4.097   5.301   3.146
25991SOL    HW279871   4.204   5.358   3.054
25992SOL     OW79872  12.575   7.767   2.090
25992SOL    HW179873  12.578   7.860   2.068
25992SOL    HW279874  12.510   7.730   2.031
25993SOL     OW79875   5.784  10.208  10.964
25993SOL    HW179876   5.749  10.277  10.908
25993SOL    HW279877   5.808  10.253  11.045
25994SOL     OW79878   7.719   1.615   3.621
25994SOL    HW179879   7.802   1.632   3.666
25994SOL    HW279880   7.685   1.536   3.663
25995SOL     OW79881   7.291   2.419   1.321
25995SOL    HW179882   7.201   2.387   1.321
25995SOL    HW279883   7.310   2.441   1.230
25996SOL     OW79884   4.099   4.897  13.376
25996SOL    HW179885   4.026   4.873  13.319
25996SOL    HW279886   4.129   4.814  13.413
25997SOL     OW79887   9.988   4.886   1.221
25997SOL    HW179888   9.943   4.834   1.289
25997SOL    HW279889   9.938   4.869   1.141
25998SOL     OW79890   6.249  13.115   4.045
25998SOL    HW179891   6.327  13.065   4.021
25998SOL    HW279892   6.252  13.120   4.141
25999SOL     OW79893   4.665   5.928  14.337
25999SOL    HW179894   4.656   5.846  14.386
25999SOL    HW279895   4.738   5.974  14.379
26000SOL     OW79896   2.074   9.842   7.618
26000SOL    HW179897   2.023   9.853   7.537
26000SOL    HW279898   2.037   9.906   7.678
26001SOL     OW79899   4.727   4.209  10.823
26001SOL    HW179900   4.789   4.156  10.874
26001SOL    HW279901   4.782   4.263  10.767
26002SOL     OW79902   3.333   7.142   9.204
26002SOL    HW179903   3.359   7.182   9.287
26002SOL    HW279904   3.371   7.198   9.137
26003SOL     OW79905  13.705   4.300   7.687
26003SOL    HW179906  13.619   4.320   7.651
26003SOL    HW279907  13.745   4.386   7.701
26004SOL     OW79908   4.162   7.384  11.513
26004SOL    HW179909   4.247   7.370  11.471
26004SOL    HW279910   4.132   7.469  11.480
26005SOL     OW79911   2.810   1.389  13.254
26005SOL    HW179912   2.729   1.432  13.283
26005SOL    HW279913   2.788   1.349  13.170
26006SOL     OW79914   2.976   4.280   9.350
26006SOL    HW179915   3.015   4.319   9.428
26006SOL    HW279916   3.051   4.260   9.294
26007SOL     OW79917   8.427  13.189   7.259
26007SOL    HW179918   8.452  13.170   7.168
26007SOL    HW279919   8.340  13.228   7.252
26008SOL     OW79920  13.429  14.139  11.523
26008SOL    HW179921  13.503  14.159  11.466
26008SOL    HW279922  13.353  14.136  11.464
26009SOL     OW79923   6.867  14.299   3.084
26009SOL    HW179924   6.812  14.282   3.008
26009SOL    HW279925   6.805  14.313   3.156
26010SOL     OW79926   4.521   0.469   2.081
26010SOL    HW179927   4.542   0.375   2.084
26010SOL    HW279928   4.455   0.476   2.013
26011SOL     OW79929   9.452   9.481  13.218
26011SOL    HW179930   9.505   9.560  13.206
26011SOL    HW279931   9.367   9.514  13.245
26012SOL     OW79932  14.021   3.774   9.097
26012SOL    HW179933  13.956   3.771   9.167
26012SOL    HW279934  13.983   3.721   9.027
26013SOL     OW79935  10.663   0.072  13.590
26013SOL    HW179936  10.594   0.069  13.523
26013SOL    HW279937  10.740   0.102  13.543
26014SOL     OW79938  12.794   3.038   8.047
26014SOL    HW179939  12.874   3.089   8.041
26014SOL    HW279940  12.733   3.081   7.987
26015SOL     OW79941  11.072   9.535  11.168
26015SOL    HW179942  11.016   9.476  11.218
26015SOL    HW279943  11.026   9.547  11.085
26016SOL     OW79944   8.207  13.106  13.859
26016SOL    HW179945   8.263  13.184  13.859
26016SOL    HW279946   8.132  13.129  13.913
26017SOL     OW79947  14.583   1.647  13.701
26017SOL    HW179948  14.569   1.555  13.722
26017SOL    HW279949  14.641   1.679  13.772
26018SOL     OW79950   7.649  12.532   3.497
26018SOL    HW179951   7.670  12.529   3.404
26018SOL    HW279952   7.554  12.521   3.500
26019SOL     OW79953   6.846   5.414  11.819
26019SOL    HW179954   6.814   5.324  11.823
26019SOL    HW279955   6.859   5.438  11.911
26020SOL     OW79956   0.998  11.923   4.808
26020SOL    HW179957   1.034  11.984   4.872
26020SOL    HW279958   0.954  11.856   4.862
26021SOL     OW79959  10.641  12.791   3.868
26021SOL    HW179960  10.563  12.831   3.905
26021SOL    HW279961  10.663  12.720   3.928
26022SOL     OW79962   7.159  11.918  12.515
26022SOL    HW179963   7.159  11.827  12.484
26022SOL    HW279964   7.131  11.912  12.607
26023SOL     OW79965  10.915   2.986   2.137
26023SOL    HW179966  10.983   3.047   2.167
26023SOL    HW279967  10.920   2.988   2.042
26024SOL     OW79968   6.438   5.593   1.928
26024SOL    HW179969   6.418   5.640   1.847
26024SOL    HW279970   6.356   5.597   1.979
26025SOL     OW79971  13.195   3.309   5.013
26025SOL    HW179972  13.260   3.247   5.045
26025SOL    HW279973  13.246   3.384   4.982
26026SOL     OW79974   8.492  10.779  13.299
26026SOL    HW179975   8.587  10.780  13.296
26026SOL    HW279976   8.464  10.803  13.211
26027SOL     OW79977  11.123  13.001   2.327
26027SOL    HW179978  11.204  13.052   2.335
26027SOL    HW279979  11.059  13.050   2.379
26028SOL     OW79980   6.158   4.409   5.646
26028SOL    HW179981   6.200   4.327   5.618
26028SOL    HW279982   6.158   4.403   5.742
26029SOL     OW79983   5.625  11.385   2.233
26029SOL    HW179984   5.587  11.436   2.162
26029SOL    HW279985   5.602  11.294   2.212
26030SOL     OW79986  12.193   8.845  13.891
26030SOL    HW179987  12.126   8.841  13.959
26030SOL    HW279988  12.145   8.837  13.809
26031SOL     OW79989  10.298   0.580   3.743
26031SOL    HW179990  10.293   0.501   3.797
26031SOL    HW279991  10.207   0.609   3.734
26032SOL     OW79992  12.571   7.971   5.747
26032SOL    HW179993  12.547   8.018   5.827
26032SOL    HW279994  12.615   7.892   5.778
26033SOL     OW79995   2.121  12.623  14.547
26033SOL    HW179996   2.099  12.532  14.563
26033SOL    HW279997   2.178  12.647  14.620
26034SOL     OW79998  14.479  12.482  13.117
26034SOL    HW179999  14.392  12.518  13.098
26034SOL    HW280000  14.539  12.536  13.066
26035SOL     OW80001  13.014  10.563   2.231
26035SOL    HW180002  13.021  10.658   2.230
26035SOL    HW280003  12.987  10.540   2.142
26036SOL     OW80004   5.599   5.600  13.740
26036SOL    HW180005   5.590   5.629  13.831
26036SOL    HW280006   5.509   5.584  13.711
26037SOL     OW80007   9.223   2.806   9.690
26037SOL    HW180008   9.187   2.730   9.736
26037SOL    HW280009   9.318   2.795   9.694
26038SOL     OW80010   0.898   5.766  12.093
26038SOL    HW180011   0.804   5.751  12.085
26038SOL    HW280012   0.910   5.802  12.181
26039SOL     OW80013   6.595  10.080   9.031
26039SOL    HW180014   6.587   9.991   9.064
26039SOL    HW280015   6.688  10.089   9.010
26040SOL     OW80016  11.643   8.310  10.054
26040SOL    HW180017  11.712   8.367  10.089
26040SOL    HW280018  11.588   8.369  10.003
26041SOL     OW80019  10.165  11.610   3.009
26041SOL    HW180020  10.120  11.643   3.087
26041SOL    HW280021  10.097  11.567   2.958
26042SOL     OW80022  12.869   7.023  14.202
26042SOL    HW180023  12.790   7.020  14.256
26042SOL    HW280024  12.931   6.965  14.246
26043SOL     OW80025   6.231   2.860  13.625
26043SOL    HW180026   6.255   2.940  13.580
26043SOL    HW280027   6.308   2.838  13.678
26044SOL     OW80028  10.144  14.388   7.757
26044SOL    HW180029  10.204  14.320   7.725
26044SOL    HW280030  10.198  14.466   7.765
26045SOL     OW80031   9.617   0.092   6.246
26045SOL    HW180032   9.706   0.058   6.238
26045SOL    HW280033   9.619   0.146   6.326
26046SOL     OW80034   4.712   4.788   9.834
26046SOL    HW180035   4.772   4.718   9.859
26046SOL    HW280036   4.761   4.869   9.848
26047SOL     OW80037  12.159  10.298   5.670
26047SOL    HW180038  12.128  10.378   5.628
26047SOL    HW280039  12.241  10.324   5.712
26048SOL     OW80040   7.149   2.067   5.657
26048SOL    HW180041   7.091   1.999   5.690
26048SOL    HW280042   7.117   2.085   5.568
26049SOL     OW80043   3.310   3.197  11.461
26049SOL    HW180044   3.215   3.195  11.472
26049SOL    HW280045   3.339   3.108  11.480
26050SOL     OW80046  12.186  14.086   0.541
26050SOL    HW180047  12.210  14.169   0.500
26050SOL    HW280048  12.167  14.028   0.467
26051SOL     OW80049   7.257  10.217   8.669
26051SOL    HW180050   7.164  10.238   8.674
26051SOL    HW280051   7.262  10.126   8.698
26052SOL     OW80052  13.147   0.227   6.890
26052SOL    HW180053  13.183   0.238   6.802
26052SOL    HW280054  13.056   0.256   6.883
26053SOL     OW80055   7.098   1.700   7.308
26053SOL    HW180056   7.122   1.613   7.340
26053SOL    HW280057   7.170   1.724   7.249
26054SOL     OW80058   0.697  10.635  11.435
26054SOL    HW180059   0.630  10.691  11.475
26054SOL    HW280060   0.662  10.547  11.443
26055SOL     OW80061   5.717  11.329   9.806
26055SOL    HW180062   5.635  11.286   9.831
26055SOL    HW280063   5.705  11.421   9.828
26056SOL     OW80064   1.595   8.837   3.818
26056SOL    HW180065   1.634   8.924   3.810
26056SOL    HW280066   1.543   8.828   3.737
26057SOL     OW80067   0.491   0.438   7.039
26057SOL    HW180068   0.518   0.358   6.995
26057SOL    HW280069   0.565   0.460   7.096
26058SOL     OW80070  11.051   5.348   9.799
26058SOL    HW180071  11.059   5.257   9.772
26058SOL    HW280072  10.964   5.375   9.769
26059SOL     OW80073   7.809   2.595   5.097
26059SOL    HW180074   7.738   2.566   5.040
26059SOL    HW280075   7.888   2.584   5.044
26060SOL     OW80076  12.751  14.703   4.450
26060SOL    HW180077  12.714  14.627   4.405
26060SOL    HW280078  12.735  14.776   4.390
26061SOL     OW80079   8.747   4.346  11.825
26061SOL    HW180080   8.799   4.336  11.745
26061SOL    HW280081   8.783   4.282  11.885
26062SOL     OW80082  10.795   4.831  11.365
26062SOL    HW180083  10.841   4.749  11.348
26062SOL    HW280084  10.830   4.892  11.301
26063SOL     OW80085  12.006  14.573  12.324
26063SOL    HW180086  11.962  14.547  12.243
26063SOL    HW280087  12.095  14.538  12.315
26064SOL     OW80088   6.747   6.193  12.396
26064SOL    HW180089   6.794   6.149  12.325
26064SOL    HW280090   6.658   6.157  12.392
26065SOL     OW80091  13.087   0.638  11.379
26065SOL    HW180092  13.171   0.677  11.403
26065SOL    HW280093  13.032   0.712  11.354
26066SOL     OW80094   2.615  11.646   5.337
26066SOL    HW180095   2.519  11.644   5.338
26066SOL    HW280096   2.638  11.655   5.245
26067SOL     OW80097  14.237   5.209   2.811
26067SOL    HW180098  14.234   5.113   2.819
26067SOL    HW280099  14.327   5.227   2.782
26068SOL     OW80100   7.006   1.370   7.192
26068SOL    HW180101   7.016   1.383   7.097
26068SOL    HW280102   7.089   1.330   7.219
26069SOL     OW80103   9.908  12.007  13.436
26069SOL    HW180104   9.932  12.068  13.505
26069SOL    HW280105   9.814  11.993  13.447
26070SOL     OW80106   2.175   8.040  11.975
26070SOL    HW180107   2.170   8.008  12.065
26070SOL    HW280108   2.086   8.031  11.941
26071SOL     OW80109   3.275   6.652  14.501
26071SOL    HW180110   3.325   6.727  14.469
26071SOL    HW280111   3.191   6.688  14.526
26072SOL     OW80112   5.194   3.986   6.080
26072SOL    HW180113   5.214   4.078   6.061
26072SOL    HW280114   5.111   3.988   6.127
26073SOL     OW80115   8.945  13.422   8.737
26073SOL    HW180116   8.907  13.475   8.807
26073SOL    HW280117   9.019  13.378   8.778
26074SOL     OW80118  10.441   0.154   5.399
26074SOL    HW180119  10.457   0.240   5.439
26074SOL    HW280120  10.457   0.169   5.305
26075SOL     OW80121   5.447   0.224   5.363
26075SOL    HW180122   5.511   0.280   5.405
26075SOL    HW280123   5.366   0.239   5.410
26076SOL     OW80124  11.906   4.662  14.086
26076SOL    HW180125  11.980   4.711  14.121
26076SOL    HW280126  11.916   4.667  13.991
26077SOL     OW80127   1.594  13.596  12.223
26077SOL    HW180128   1.608  13.573  12.315
26077SOL    HW280129   1.557  13.517  12.184
26078SOL     OW80130   5.025   6.101  13.418
26078SOL    HW180131   4.937   6.063  13.418
26078SOL    HW280132   5.039   6.131  13.328
26079SOL     OW80133   5.923  14.046   5.572
26079SOL    HW180134   5.922  14.094   5.489
26079SOL    HW280135   6.011  14.060   5.607
26080SOL     OW80136  12.049   8.789   2.780
26080SOL    HW180137  12.070   8.802   2.688
26080SOL    HW280138  12.106   8.850   2.827
26081SOL     OW80139   5.088   5.155   9.102
26081SOL    HW180140   5.034   5.177   9.026
26081SOL    HW280141   5.035   5.094   9.153
26082SOL     OW80142   6.953  13.915  14.402
26082SOL    HW180143   7.001  13.895  14.322
26082SOL    HW280144   6.868  13.874  14.389
26083SOL     OW80145   5.588   7.154   1.875
26083SOL    HW180146   5.530   7.230   1.879
26083SOL    HW280147   5.630   7.160   1.789
26084SOL     OW80148   4.001   3.818   2.080
26084SOL    HW180149   4.046   3.754   2.025
26084SOL    HW280150   4.072   3.858   2.132
26085SOL     OW80151   8.819  14.346   6.476
26085SOL    HW180152   8.791  14.367   6.565
26085SOL    HW280153   8.745  14.374   6.421
26086SOL     OW80154   1.643   0.690   0.152
26086SOL    HW180155   1.603   0.768   0.192
26086SOL    HW280156   1.614   0.693   0.061
26087SOL     OW80157   2.555   1.260   7.778
26087SOL    HW180158   2.633   1.269   7.833
26087SOL    HW280159   2.578   1.193   7.714
26088SOL     OW80160   4.486  10.711   8.619
26088SOL    HW180161   4.446  10.796   8.635
26088SOL    HW280162   4.477  10.664   8.702
26089SOL     OW80163  12.133   9.825   6.529
26089SOL    HW180164  12.136   9.884   6.453
26089SOL    HW280165  12.145   9.738   6.492
26090SOL     OW80166  13.985  10.436   0.487
26090SOL    HW180167  14.072  10.413   0.520
26090SOL    HW280168  13.936  10.354   0.489
26091SOL     OW80169   1.449   6.899   7.251
26091SOL    HW180170   1.450   6.838   7.177
26091SOL    HW280171   1.537   6.935   7.254
26092SOL     OW80172  10.458   4.901   2.992
26092SOL    HW180173  10.518   4.949   3.049
26092SOL    HW280174  10.371   4.929   3.020
26093SOL     OW80175   1.565   9.300   7.258
26093SOL    HW180176   1.627   9.364   7.223
26093SOL    HW280177   1.574   9.224   7.200
26094SOL     OW80178  14.220   1.440  14.771
26094SOL    HW180179  14.293   1.399  14.817
26094SOL    HW280180  14.246   1.531  14.762
26095SOL     OW80181   3.821   8.171   2.968
26095SOL    HW180182   3.806   8.130   3.054
26095SOL    HW280183   3.734   8.201   2.941
26096SOL     OW80184   1.991   0.570  10.305
26096SOL    HW180185   2.064   0.626  10.334
26096SOL    HW280186   1.950   0.620  10.234
26097SOL     OW80187   6.315   5.737   5.792
26097SOL    HW180188   6.309   5.826   5.758
26097SOL    HW280189   6.409   5.720   5.801
26098SOL     OW80190   9.225  14.856  10.211
26098SOL    HW180191   9.199  14.880  10.122
26098SOL    HW280192   9.223  14.760  10.212
26099SOL     OW80193  11.593   3.061   4.144
26099SOL    HW180194  11.501   3.036   4.142
26099SOL    HW280195  11.640   2.982   4.120
26100SOL     OW80196  10.632   4.865  12.509
26100SOL    HW180197  10.701   4.856  12.444
26100SOL    HW280198  10.642   4.786  12.564
26101SOL     OW80199   9.931   7.751   3.069
26101SOL    HW180200   9.907   7.699   3.146
26101SOL    HW280201   9.848   7.766   3.024
26102SOL     OW80202  13.821   5.908   7.377
26102SOL    HW180203  13.865   5.978   7.328
26102SOL    HW280204  13.766   5.865   7.312
26103SOL     OW80205  13.222   9.658  10.076
26103SOL    HW180206  13.242   9.729  10.137
26103SOL    HW280207  13.237   9.578  10.127
26104SOL     OW80208   6.077  13.760   1.886
26104SOL    HW180209   6.050  13.694   1.823
26104SOL    HW280210   6.088  13.713   1.968
26105SOL     OW80211   1.073   9.286   6.662
26105SOL    HW180212   1.046   9.197   6.686
26105SOL    HW280213   0.990   9.335   6.658
26106SOL     OW80214   1.054  11.658   5.303
26106SOL    HW180215   1.128  11.617   5.347
26106SOL    HW280216   1.067  11.751   5.316
26107SOL     OW80217   4.553   7.782  12.312
26107SOL    HW180218   4.557   7.853  12.375
26107SOL    HW280219   4.644   7.756  12.299
26108SOL     OW80220   3.430   6.481   9.483
26108SOL    HW180221   3.506   6.539   9.484
26108SOL    HW280222   3.355   6.541   9.485
26109SOL     OW80223   3.015   1.980   2.297
26109SOL    HW180224   2.995   2.071   2.319
26109SOL    HW280225   3.070   1.986   2.219
26110SOL     OW80226  13.907   9.045  13.963
26110SOL    HW180227  13.906   9.116  13.898
26110SOL    HW280228  13.993   9.052  14.005
26111SOL     OW80229   8.880   5.516   2.065
26111SOL    HW180230   8.925   5.601   2.059
26111SOL    HW280231   8.925   5.460   2.002
26112SOL     OW80232  12.356   8.084  12.404
26112SOL    HW180233  12.418   8.056  12.470
26112SOL    HW280234  12.275   8.038  12.425
26113SOL     OW80235  11.460  12.243   2.575
26113SOL    HW180236  11.449  12.187   2.652
26113SOL    HW280237  11.373  12.245   2.535
26114SOL     OW80238   6.650  12.548   0.995
26114SOL    HW180239   6.611  12.463   1.014
26114SOL    HW280240   6.623  12.568   0.906
26115SOL     OW80241   7.021   8.948   1.506
26115SOL    HW180242   7.048   8.856   1.500
26115SOL    HW280243   7.027   8.980   1.416
26116SOL     OW80244   7.308  11.958  13.804
26116SOL    HW180245   7.360  12.013  13.862
26116SOL    HW280246   7.371  11.925  13.739
26117SOL     OW80247   1.101   3.357  12.814
26117SOL    HW180248   1.084   3.291  12.882
26117SOL    HW280249   1.015   3.371  12.773
26118SOL     OW80250   6.203   2.268   4.000
26118SOL    HW180251   6.157   2.186   3.980
26118SOL    HW280252   6.192   2.321   3.921
26119SOL     OW80253  14.830   0.160   0.478
26119SOL    HW180254  14.861   0.071   0.496
26119SOL    HW280255  14.743   0.146   0.439
26120SOL     OW80256   6.446  13.061  12.724
26120SOL    HW180257   6.446  13.036  12.631
26120SOL    HW280258   6.469  13.154  12.723
26121SOL     OW80259   4.020   7.886   6.289
26121SOL    HW180260   3.954   7.819   6.307
26121SOL    HW280261   3.990   7.928   6.208
26122SOL     OW80262  13.641  11.264   0.614
26122SOL    HW180263  13.673  11.327   0.549
26122SOL    HW280264  13.617  11.318   0.690
26123SOL     OW80265   3.273  10.705  11.612
26123SOL    HW180266   3.193  10.748  11.641
26123SOL    HW280267   3.246  10.616  11.591
26124SOL     OW80268   5.106  12.421   3.823
26124SOL    HW180269   5.095  12.405   3.729
26124SOL    HW280270   5.126  12.335   3.860
26125SOL     OW80271  11.497  10.887  14.108
26125SOL    HW180272  11.581  10.847  14.132
26125SOL    HW280273  11.518  10.939  14.030
26126SOL     OW80274   8.869  13.879  11.599
26126SOL    HW180275   8.799  13.936  11.569
26126SOL    HW280276   8.950  13.924  11.574
26127SOL     OW80277  13.538   3.078  14.717
26127SOL    HW180278  13.474   3.009  14.703
26127SOL    HW280279  13.590   3.079  14.637
26128SOL     OW80280   8.959   0.279   5.988
26128SOL    HW180281   8.869   0.251   6.004
26128SOL    HW280282   8.999   0.284   6.076
26129SOL     OW80283   2.590   1.258   5.705
26129SOL    HW180284   2.605   1.284   5.614
26129SOL    HW280285   2.572   1.341   5.751
26130SOL     OW80286   5.269  12.971   9.814
26130SOL    HW180287   5.327  13.045   9.796
26130SOL    HW280288   5.323  12.894   9.800
26131SOL     OW80289   3.501   9.428   5.735
26131SOL    HW180290   3.502   9.342   5.776
26131SOL    HW280291   3.508   9.410   5.641
26132SOL     OW80292   0.262   5.840   2.069
26132SOL    HW180293   0.301   5.765   2.115
26132SOL    HW280294   0.176   5.851   2.108
26133SOL     OW80295   8.773  13.371  13.536
26133SOL    HW180296   8.739  13.303  13.478
26133SOL    HW280297   8.848  13.330  13.579
26134SOL     OW80298   4.920   8.665   2.223
26134SOL    HW180299   4.895   8.583   2.179
26134SOL    HW280300   4.855   8.728   2.194
26135SOL     OW80301  13.058   6.958   6.642
26135SOL    HW180302  13.108   7.038   6.627
26135SOL    HW280303  13.030   6.930   6.555
26136SOL     OW80304   1.087   2.369  12.052
26136SOL    HW180305   1.141   2.353  11.975
26136SOL    HW280306   1.001   2.392  12.017
26137SOL     OW80307   0.923  13.044   3.108
26137SOL    HW180308   0.964  12.982   3.047
26137SOL    HW280309   0.898  12.990   3.183
26138SOL     OW80310   2.289   3.342  10.036
26138SOL    HW180311   2.285   3.436  10.054
26138SOL    HW280312   2.377   3.316  10.062
26139SOL     OW80313  13.082  11.060   4.899
26139SOL    HW180314  13.121  10.973   4.905
26139SOL    HW280315  13.142  11.118   4.946
26140SOL     OW80316   4.220  10.498  12.903
26140SOL    HW180317   4.174  10.546  12.972
26140SOL    HW280318   4.301  10.547  12.888
26141SOL     OW80319   8.973   6.756   6.123
26141SOL    HW180320   8.972   6.712   6.208
26141SOL    HW280321   8.919   6.834   6.135
26142SOL     OW80322   0.692   8.431   8.788
26142SOL    HW180323   0.745   8.396   8.860
26142SOL    HW280324   0.620   8.476   8.831
26143SOL     OW80325  11.421   5.735   6.764
26143SOL    HW180326  11.406   5.700   6.676
26143SOL    HW280327  11.339   5.718   6.810
26144SOL     OW80328   5.620  10.731  12.558
26144SOL    HW180329   5.555  10.680  12.510
26144SOL    HW280330   5.694  10.672  12.570
26145SOL     OW80331   7.473   6.836  14.217
26145SOL    HW180332   7.444   6.858  14.306
26145SOL    HW280333   7.565   6.812  14.227
26146SOL     OW80334   5.155   5.283   5.915
26146SOL    HW180335   5.156   5.367   5.961
26146SOL    HW280336   5.119   5.303   5.829
26147SOL     OW80337   5.977   2.648   3.300
26147SOL    HW180338   5.893   2.670   3.260
26147SOL    HW280339   5.957   2.633   3.392
26148SOL     OW80340   9.789  12.098   7.621
26148SOL    HW180341   9.779  12.169   7.685
26148SOL    HW280342   9.706  12.051   7.625
26149SOL     OW80343  13.734  10.881   5.603
26149SOL    HW180344  13.730  10.821   5.677
26149SOL    HW280345  13.697  10.963   5.637
26150SOL     OW80346   2.378  11.735  14.720
26150SOL    HW180347   2.399  11.669  14.786
26150SOL    HW280348   2.308  11.787  14.759
26151SOL     OW80349   0.253  12.036   4.215
26151SOL    HW180350   0.225  12.046   4.124
26151SOL    HW280351   0.236  11.944   4.236
26152SOL     OW80352  14.721  10.757  11.951
26152SOL    HW180353  14.769  10.690  11.902
26152SOL    HW280354  14.659  10.707  12.004
26153SOL     OW80355   5.561   4.614   2.145
26153SOL    HW180356   5.544   4.647   2.057
26153SOL    HW280357   5.481   4.633   2.194
26154SOL     OW80358  12.445   7.175   6.358
26154SOL    HW180359  12.378   7.165   6.427
26154SOL    HW280360  12.497   7.095   6.364
26155SOL     OW80361   3.467   2.433  11.865
26155SOL    HW180362   3.449   2.523  11.890
26155SOL    HW280363   3.482   2.437  11.770
26156SOL     OW80364   6.720   4.212   9.460
26156SOL    HW180365   6.716   4.245   9.370
26156SOL    HW280366   6.813   4.214   9.482
26157SOL     OW80367   8.202   0.706   3.005
26157SOL    HW180368   8.171   0.693   2.916
26157SOL    HW280369   8.220   0.618   3.037
26158SOL     OW80370   3.078   8.335   8.658
26158SOL    HW180371   3.137   8.343   8.732
26158SOL    HW280372   3.135   8.327   8.582
26159SOL     OW80373   6.812  11.815   0.895
26159SOL    HW180374   6.833  11.739   0.949
26159SOL    HW280375   6.732  11.791   0.850
26160SOL     OW80376   4.858  10.829   8.711
26160SOL    HW180377   4.828  10.821   8.620
26160SOL    HW280378   4.783  10.801   8.764
26161SOL     OW80379   0.713   1.550   8.703
26161SOL    HW180380   0.787   1.534   8.762
26161SOL    HW280381   0.650   1.482   8.725
26162SOL     OW80382   3.150   0.032  12.227
26162SOL    HW180383   3.161  14.822  12.250
26162SOL    HW280384   3.179   0.080  12.304
26163SOL     OW80385   7.652  13.583   9.182
26163SOL    HW180386   7.560  13.560   9.197
26163SOL    HW280387   7.700  13.534   9.249
26164SOL     OW80388  10.793  11.509   1.328
26164SOL    HW180389  10.847  11.587   1.331
26164SOL    HW280390  10.846  11.444   1.282
26165SOL     OW80391   1.056   8.947   8.599
26165SOL    HW180392   1.133   8.964   8.653
26165SOL    HW280393   1.091   8.921   8.514
26166SOL     OW80394  12.768   2.356  11.147
26166SOL    HW180395  12.846   2.349  11.201
26166SOL    HW280396  12.699   2.386  11.207
26167SOL     OW80397   3.473  14.218   2.409
26167SOL    HW180398   3.382  14.204   2.385
26167SOL    HW280399   3.471  14.286   2.476
26168SOL     OW80400   1.704   6.204   6.305
26168SOL    HW180401   1.646   6.145   6.354
26168SOL    HW280402   1.646   6.246   6.242
26169SOL     OW80403   3.671   2.948   6.188
26169SOL    HW180404   3.634   2.910   6.108
26169SOL    HW280405   3.724   3.021   6.157
26170SOL     OW80406  11.547   0.887   3.544
26170SOL    HW180407  11.466   0.927   3.511
26170SOL    HW280408  11.549   0.800   3.505
26171SOL     OW80409   9.175   2.787  11.224
26171SOL    HW180410   9.174   2.697  11.255
26171SOL    HW280411   9.093   2.796  11.175
26172SOL     OW80412  12.619  11.102  14.324
26172SOL    HW180413  12.575  11.039  14.267
26172SOL    HW280414  12.703  11.060  14.345
26173SOL     OW80415   3.383   8.838   0.370
26173SOL    HW180416   3.301   8.810   0.329
26173SOL    HW280417   3.432   8.880   0.298
26174SOL     OW80418   6.270   5.260  12.562
26174SOL    HW180419   6.274   5.212  12.479
26174SOL    HW280420   6.286   5.194  12.629
26175SOL     OW80421   8.935   4.010  14.142
26175SOL    HW180422   8.911   4.097  14.109
26175SOL    HW280423   8.936   4.020  14.237
26176SOL     OW80424   5.408   0.747   6.729
26176SOL    HW180425   5.349   0.817   6.700
26176SOL    HW280426   5.407   0.753   6.825
26177SOL     OW80427   5.365  11.448  14.284
26177SOL    HW180428   5.450  11.486  14.306
26177SOL    HW280429   5.311  11.467  14.361
26178SOL     OW80430   0.270   3.838   1.484
26178SOL    HW180431   0.363   3.818   1.489
26178SOL    HW280432   0.235   3.812   1.569
26179SOL     OW80433   7.775   7.587   2.984
26179SOL    HW180434   7.767   7.496   3.013
26179SOL    HW280435   7.727   7.591   2.901
26180SOL     OW80436   7.281   0.887  14.778
26180SOL    HW180437   7.333   0.819  14.734
26180SOL    HW280438   7.191   0.870  14.750
26181SOL     OW80439   3.826   9.114  14.202
26181SOL    HW180440   3.836   9.031  14.157
26181SOL    HW280441   3.891   9.112  14.272
26182SOL     OW80442  10.018  13.152  13.704
26182SOL    HW180443  10.104  13.114  13.687
26182SOL    HW280444  10.035  13.246  13.713
26183SOL     OW80445  10.713   4.633   0.012
26183SOL    HW180446  10.717   4.729   0.016
26183SOL    HW280447  10.766   4.604   0.085
26184SOL     OW80448   7.450   4.081   9.811
26184SOL    HW180449   7.367   4.129   9.817
26184SOL    HW280450   7.425   3.989   9.823
26185SOL     OW80451  13.108   0.296  11.092
26185SOL    HW180452  13.045   0.366  11.077
26185SOL    HW280453  13.072   0.246  11.165
26186SOL     OW80454  11.745  10.552   5.211
26186SOL    HW180455  11.769  10.522   5.123
26186SOL    HW280456  11.813  10.617   5.233
26187SOL     OW80457  11.974   3.628  10.404
26187SOL    HW180458  12.024   3.547  10.396
26187SOL    HW280459  11.966   3.660  10.314
26188SOL     OW80460  12.881  11.648  14.357
26188SOL    HW180461  12.795  11.670  14.392
26188SOL    HW280462  12.942  11.704  14.406
26189SOL     OW80463  12.086   3.564  14.474
26189SOL    HW180464  12.160   3.607  14.516
26189SOL    HW280465  12.124   3.517  14.400
26190SOL     OW80466   2.352   4.706   6.800
26190SOL    HW180467   2.271   4.720   6.850
26190SOL    HW280468   2.327   4.722   6.709
26191SOL     OW80469  12.346   7.838   2.828
26191SOL    HW180470  12.384   7.920   2.796
26191SOL    HW280471  12.396   7.817   2.906
26192SOL     OW80472  11.868   2.169   9.206
26192SOL    HW180473  11.857   2.081   9.243
26192SOL    HW280474  11.780   2.206   9.205
26193SOL     OW80475   3.702   4.374   4.397
26193SOL    HW180476   3.729   4.444   4.457
26193SOL    HW280477   3.759   4.300   4.420
26194SOL     OW80478   3.990   4.307   5.990
26194SOL    HW180479   3.931   4.286   6.063
26194SOL    HW280480   3.968   4.243   5.923
26195SOL     OW80481   0.366  14.189   2.504
26195SOL    HW180482   0.333  14.101   2.520
26195SOL    HW280483   0.455  14.176   2.470
26196SOL     OW80484  10.754   6.122  13.733
26196SOL    HW180485  10.836   6.074  13.724
26196SOL    HW280486  10.725   6.137  13.643
26197SOL     OW80487  14.208   7.100   0.260
26197SOL    HW180488  14.152   7.056   0.324
26197SOL    HW280489  14.292   7.107   0.304
26198SOL     OW80490   5.778   0.095   1.237
26198SOL    HW180491   5.691   0.092   1.278
26198SOL    HW280492   5.791   0.007   1.203
26199SOL     OW80493   6.879  13.740  13.574
26199SOL    HW180494   6.894  13.654  13.535
26199SOL    HW280495   6.916  13.734  13.662
26200SOL     OW80496   2.644  11.087  14.781
26200SOL    HW180497   2.609  11.173  14.759
26200SOL    HW280498   2.715  11.073  14.718
26201SOL     OW80499  10.889   6.002  11.958
26201SOL    HW180500  10.796   6.015  11.978
26201SOL    HW280501  10.893   5.994  11.863
26202SOL     OW80502  13.659  13.702  14.552
26202SOL    HW180503  13.625  13.626  14.599
26202SOL    HW280504  13.739  13.726  14.599
26203SOL     OW80505   8.964  11.990  13.390
26203SOL    HW180506   9.028  11.970  13.321
26203SOL    HW280507   8.926  12.073  13.363
26204SOL     OW80508  11.119   8.984  14.322
26204SOL    HW180509  11.168   9.053  14.365
26204SOL    HW280510  11.136   8.997  14.228
26205SOL     OW80511   2.084  14.136   4.037
26205SOL    HW180512   2.114  14.168   3.953
26205SOL    HW280513   2.082  14.214   4.093
26206SOL     OW80514  11.544   2.046  14.294
26206SOL    HW180515  11.589   1.997  14.225
26206SOL    HW280516  11.568   2.001  14.375
26207SOL     OW80517  10.943  13.637  14.232
26207SOL    HW180518  10.959  13.559  14.285
26207SOL    HW280519  11.030  13.669  14.210
26208SOL     OW80520   7.624   4.363  12.005
26208SOL    HW180521   7.676   4.297  11.960
26208SOL    HW280522   7.546   4.373  11.952
26209SOL     OW80523  10.634  13.389  12.766
26209SOL    HW180524  10.550  13.432  12.779
26209SOL    HW280525  10.698  13.461  12.767
26210SOL     OW80526   2.556   2.688   1.266
26210SOL    HW180527   2.504   2.728   1.335
26210SOL    HW280528   2.496   2.679   1.192
26211SOL     OW80529   4.518  10.013   1.492
26211SOL    HW180530   4.531   9.995   1.399
26211SOL    HW280531   4.426   9.990   1.507
26212SOL     OW80532   8.437   1.807   7.579
26212SOL    HW180533   8.403   1.884   7.534
26212SOL    HW280534   8.532   1.815   7.572
26213SOL     OW80535   0.877  12.568   5.109
26213SOL    HW180536   0.961  12.599   5.142
26213SOL    HW280537   0.827  12.648   5.091
26214SOL     OW80538   0.370   6.418   9.981
26214SOL    HW180539   0.284   6.454   9.961
26214SOL    HW280540   0.387   6.446  10.071
26215SOL     OW80541   2.033  10.434   4.533
26215SOL    HW180542   2.053  10.423   4.440
26215SOL    HW280543   1.980  10.514   4.538
26216SOL     OW80544  14.529   3.011   2.813
26216SOL    HW180545  14.510   3.004   2.906
26216SOL    HW280546  14.485   2.936   2.773
26217SOL     OW80547  12.265   0.845   6.427
26217SOL    HW180548  12.360   0.856   6.415
26217SOL    HW280549  12.237   0.794   6.352
26218SOL     OW80550   2.541   2.452   2.154
26218SOL    HW180551   2.470   2.422   2.097
26218SOL    HW280552   2.534   2.548   2.153
26219SOL     OW80553  11.090   6.414   0.099
26219SOL    HW180554  11.119   6.323   0.095
26219SOL    HW280555  11.113   6.450   0.013
26220SOL     OW80556   9.975   6.779   7.077
26220SOL    HW180557  10.058   6.803   7.036
26220SOL    HW280558   9.911   6.786   7.007
26221SOL     OW80559   3.088  13.022  11.557
26221SOL    HW180560   3.119  13.109  11.581
26221SOL    HW280561   3.015  13.038  11.497
26222SOL     OW80562  11.507  14.676  10.372
26222SOL    HW180563  11.434  14.699  10.429
26222SOL    HW280564  11.553  14.759  10.358
26223SOL     OW80565   5.506   6.052  14.626
26223SOL    HW180566   5.453   6.124  14.591
26223SOL    HW280567   5.542   6.009  14.548
26224SOL     OW80568   0.604  12.288  13.658
26224SOL    HW180569   0.515  12.322  13.670
26224SOL    HW280570   0.645  12.351  13.599
26225SOL     OW80571  14.669  13.531   2.742
26225SOL    HW180572  14.597  13.582   2.777
26225SOL    HW280573  14.748  13.578   2.769
26226SOL     OW80574   0.236   0.622   9.471
26226SOL    HW180575   0.256   0.710   9.503
26226SOL    HW280576   0.262   0.564   9.543
26227SOL     OW80577   1.339   9.861   4.928
26227SOL    HW180578   1.368   9.784   4.879
26227SOL    HW280579   1.304   9.825   5.009
26228SOL     OW80580   2.656   5.193  14.386
26228SOL    HW180581   2.566   5.195  14.416
26228SOL    HW280582   2.686   5.104  14.403
26229SOL     OW80583   7.736   9.684   2.481
26229SOL    HW180584   7.744   9.671   2.575
26229SOL    HW280585   7.653   9.730   2.470
26230SOL     OW80586   0.169   6.071  14.137
26230SOL    HW180587   0.187   6.128  14.063
26230SOL    HW280588   0.203   6.119  14.213
26231SOL     OW80589  13.055   8.019   9.476
26231SOL    HW180590  13.123   8.046   9.414
26231SOL    HW280591  13.012   7.944   9.435
26232SOL     OW80592  10.681   4.293  10.561
26232SOL    HW180593  10.652   4.385  10.566
26232SOL    HW280594  10.600   4.244  10.550
26233SOL     OW80595   2.288  12.876   7.268
26233SOL    HW180596   2.370  12.839   7.300
26233SOL    HW280597   2.222  12.846   7.331
26234SOL     OW80598   5.308   0.750   3.850
26234SOL    HW180599   5.384   0.732   3.795
26234SOL    HW280600   5.311   0.845   3.866
26235SOL     OW80601   5.399   1.486   1.961
26235SOL    HW180602   5.329   1.487   1.895
26235SOL    HW280603   5.353   1.469   2.044
26236SOL     OW80604   6.107  13.865   7.732
26236SOL    HW180605   6.135  13.876   7.823
26236SOL    HW280606   6.185  13.833   7.687
26237SOL     OW80607   3.321   6.560  14.246
26237SOL    HW180608   3.294   6.576  14.336
26237SOL    HW280609   3.401   6.611  14.236
26238SOL     OW80610   6.837   1.801  11.833
26238SOL    HW180611   6.785   1.869  11.791
26238SOL    HW280612   6.902   1.848  11.884
26239SOL     OW80613   7.048   6.265   8.826
26239SOL    HW180614   7.110   6.333   8.798
26239SOL    HW280615   7.005   6.302   8.903
26240SOL     OW80616   5.745   5.309   6.106
26240SOL    HW180617   5.832   5.331   6.071
26240SOL    HW280618   5.761   5.235   6.164
26241SOL     OW80619  11.611   8.903  11.613
26241SOL    HW180620  11.641   8.840  11.548
26241SOL    HW280621  11.623   8.859  11.697
26242SOL     OW80622  13.668  11.674   0.379
26242SOL    HW180623  13.738  11.719   0.426
26242SOL    HW280624  13.690  11.581   0.385
26243SOL     OW80625   2.733  11.982  10.024
26243SOL    HW180626   2.808  11.954  10.077
26243SOL    HW280627   2.767  12.051   9.968
26244SOL     OW80628   7.446   5.881  14.027
26244SOL    HW180629   7.483   5.864  13.940
26244SOL    HW280630   7.438   5.794  14.067
26245SOL     OW80631   8.356  11.986   9.587
26245SOL    HW180632   8.292  12.012   9.520
26245SOL    HW280633   8.349  12.053   9.655
26246SOL     OW80634  12.763  10.409   7.948
26246SOL    HW180635  12.839  10.374   7.995
26246SOL    HW280636  12.753  10.498   7.980
26247SOL     OW80637   2.318  11.323   6.134
26247SOL    HW180638   2.371  11.266   6.191
26247SOL    HW280639   2.256  11.365   6.193
26248SOL     OW80640  14.065   7.935  13.668
26248SOL    HW180641  14.099   8.007  13.721
26248SOL    HW280642  14.100   7.856  13.708
26249SOL     OW80643  13.411  11.056  12.633
26249SOL    HW180644  13.319  11.063  12.607
26249SOL    HW280645  13.436  11.145  12.657
26250SOL     OW80646   0.064   4.520   6.713
26250SOL    HW180647   0.039   4.546   6.624
26250SOL    HW280648   0.083   4.603   6.757
26251SOL     OW80649   3.842  10.085  13.181
26251SOL    HW180650   3.790  10.012  13.147
26251SOL    HW280651   3.867  10.058  13.270
26252SOL     OW80652  11.077  12.058  12.857
26252SOL    HW180653  10.993  12.015  12.873
26252SOL    HW280654  11.135  12.025  12.925
26253SOL     OW80655  12.439   0.462  14.230
26253SOL    HW180656  12.384   0.397  14.273
26253SOL    HW280657  12.385   0.541  14.227
26254SOL     OW80658   8.717   4.079  12.302
26254SOL    HW180659   8.685   4.169  12.290
26254SOL    HW280660   8.652   4.024  12.258
26255SOL     OW80661   2.965  14.604   0.397
26255SOL    HW180662   3.008  14.677   0.440
26255SOL    HW280663   3.031  14.568   0.338
26256SOL     OW80664   8.737  12.448  13.480
26256SOL    HW180665   8.813  12.394  13.459
26256SOL    HW280666   8.727  12.439  13.574
26257SOL     OW80667  10.219  10.695   9.249
26257SOL    HW180668  10.142  10.641   9.228
26257SOL    HW280669  10.235  10.745   9.169
26258SOL     OW80670  12.019  11.297   5.893
26258SOL    HW180671  12.054  11.225   5.841
26258SOL    HW280672  12.020  11.266   5.983
26259SOL     OW80673   0.066   2.568   7.156
26259SOL    HW180674   0.076   2.608   7.070
26259SOL    HW280675   0.155   2.564   7.191
26260SOL     OW80676   5.477  13.690   7.957
26260SOL    HW180677   5.564  13.730   7.962
26260SOL    HW280678   5.469  13.659   7.867
26261SOL     OW80679   7.689   3.321   7.028
26261SOL    HW180680   7.602   3.340   6.993
26261SOL    HW280681   7.740   3.294   6.952
26262SOL     OW80682   6.878   9.474  12.527
26262SOL    HW180683   6.786   9.477  12.503
26262SOL    HW280684   6.900   9.565  12.548
26263SOL     OW80685   4.007   7.557  12.796
26263SOL    HW180686   4.053   7.509  12.865
26263SOL    HW280687   3.930   7.504  12.777
26264SOL     OW80688   9.266   2.520   5.109
26264SOL    HW180689   9.339   2.539   5.050
26264SOL    HW280690   9.193   2.572   5.074
26265SOL     OW80691  11.009   3.040   2.652
26265SOL    HW180692  10.974   2.984   2.721
26265SOL    HW280693  10.939   3.102   2.632
26266SOL     OW80694   3.199  13.589  10.627
26266SOL    HW180695   3.155  13.565  10.546
26266SOL    HW280696   3.288  13.555  10.618
26267SOL     OW80697  13.904  12.774   9.566
26267SOL    HW180698  13.913  12.788   9.660
26267SOL    HW280699  13.994  12.764   9.535
26268SOL     OW80700   8.641   4.690   3.667
26268SOL    HW180701   8.730   4.711   3.695
26268SOL    HW280702   8.587   4.761   3.702
26269SOL     OW80703  12.975  12.600   9.847
26269SOL    HW180704  12.980  12.678   9.903
26269SOL    HW280705  13.007  12.529   9.903
26270SOL     OW80706  13.172  11.188  11.401
26270SOL    HW180707  13.187  11.235  11.483
26270SOL    HW280708  13.245  11.215  11.345
26271SOL     OW80709   2.692   7.439   4.686
26271SOL    HW180710   2.691   7.379   4.612
26271SOL    HW280711   2.763   7.499   4.668
26272SOL     OW80712   4.344   4.046  10.720
26272SOL    HW180713   4.257   4.080  10.743
26272SOL    HW280714   4.370   4.097  10.643
26273SOL     OW80715  10.371   7.868  13.812
26273SOL    HW180716  10.363   7.938  13.876
26273SOL    HW280717  10.303   7.888  13.747
26274SOL     OW80718   9.848   2.515   8.362
26274SOL    HW180719   9.781   2.450   8.383
26274SOL    HW280720   9.846   2.576   8.435
26275SOL     OW80721   6.999   5.422   1.405
26275SOL    HW180722   6.956   5.449   1.324
26275SOL    HW280723   6.982   5.493   1.467
26276SOL     OW80724   7.362   7.061   4.902
26276SOL    HW180725   7.350   7.119   4.977
26276SOL    HW280726   7.274   7.034   4.877
26277SOL     OW80727  13.422   2.885  11.916
26277SOL    HW180728  13.475   2.807  11.895
26277SOL    HW280729  13.400   2.922  11.830
26278SOL     OW80730   0.410   9.668   5.692
26278SOL    HW180731   0.330   9.618   5.707
26278SOL    HW280732   0.464   9.651   5.770
26279SOL     OW80733   0.950  10.589  12.924
26279SOL    HW180734   1.018  10.534  12.963
26279SOL    HW280735   0.961  10.674  12.966
26280SOL     OW80736  11.871  11.569  12.612
26280SOL    HW180737  11.871  11.624  12.690
26280SOL    HW280738  11.782  11.576  12.577
26281SOL     OW80739  10.371   7.903   5.327
26281SOL    HW180740  10.449   7.954   5.306
26281SOL    HW280741  10.307   7.968   5.356
26282SOL     OW80742  14.600  12.698  11.894
26282SOL    HW180743  14.609  12.604  11.905
26282SOL    HW280744  14.675  12.735  11.941
26283SOL     OW80745  13.671   0.518   7.158
26283SOL    HW180746  13.646   0.478   7.075
26283SOL    HW280747  13.679   0.611   7.138
26284SOL     OW80748   3.442  13.016   8.866
26284SOL    HW180749   3.386  12.940   8.883
26284SOL    HW280750   3.449  13.060   8.951
26285SOL     OW80751  11.382   0.823  10.048
26285SOL    HW180752  11.299   0.821  10.096
26285SOL    HW280753  11.388   0.913  10.016
26286SOL     OW80754  10.790   1.099   5.950
26286SOL    HW180755  10.746   1.026   5.993
26286SOL    HW280756  10.881   1.070   5.941
26287SOL     OW80757   8.741   3.706  12.654
26287SOL    HW180758   8.761   3.637  12.591
26287SOL    HW280759   8.818   3.762  12.653
26288SOL     OW80760   5.731   9.504  12.636
26288SOL    HW180761   5.810   9.524  12.585
26288SOL    HW280762   5.666   9.566  12.604
26289SOL     OW80763   8.181   3.476   7.540
26289SOL    HW180764   8.124   3.530   7.594
26289SOL    HW280765   8.155   3.494   7.450
26290SOL     OW80766   7.173  11.476   4.845
26290SOL    HW180767   7.153  11.383   4.828
26290SOL    HW280768   7.261  11.488   4.812
26291SOL     OW80769  10.316   6.632   2.409
26291SOL    HW180770  10.227   6.644   2.441
26291SOL    HW280771  10.372   6.652   2.484
26292SOL     OW80772   8.536   4.123   0.010
26292SOL    HW180773   8.584   4.055  14.844
26292SOL    HW280774   8.505   4.078   0.089
26293SOL     OW80775   5.997   1.219   1.996
26293SOL    HW180776   5.947   1.218   2.077
26293SOL    HW280777   6.045   1.302   1.998
26294SOL     OW80778   8.843   9.559   7.470
26294SOL    HW180779   8.891   9.522   7.396
26294SOL    HW280780   8.839   9.653   7.451
26295SOL     OW80781  13.189   3.120   6.286
26295SOL    HW180782  13.246   3.124   6.362
26295SOL    HW280783  13.203   3.032   6.250
26296SOL     OW80784   3.738   9.165   4.137
26296SOL    HW180785   3.691   9.103   4.081
26296SOL    HW280786   3.710   9.143   4.226
26297SOL     OW80787   5.662   8.843  12.054
26297SOL    HW180788   5.693   8.916  12.001
26297SOL    HW280789   5.590   8.880  12.106
26298SOL     OW80790   0.593   7.686  12.485
26298SOL    HW180791   0.509   7.712  12.446
26298SOL    HW280792   0.659   7.728  12.430
26299SOL     OW80793  11.893   8.714   7.281
26299SOL    HW180794  11.947   8.639   7.259
26299SOL    HW280795  11.919   8.736   7.371
26300SOL     OW80796   5.727   9.962   0.929
26300SOL    HW180797   5.790   9.937   0.996
26300SOL    HW280798   5.770  10.032   0.880
26301SOL     OW80799   3.356   2.847   8.669
26301SOL    HW180800   3.410   2.879   8.741
26301SOL    HW280801   3.320   2.926   8.629
26302SOL     OW80802   6.554   2.261   5.324
26302SOL    HW180803   6.562   2.182   5.271
26302SOL    HW280804   6.519   2.231   5.408
26303SOL     OW80805   8.928   1.543   9.671
26303SOL    HW180806   8.975   1.624   9.653
26303SOL    HW280807   8.954   1.519   9.760
26304SOL     OW80808   3.279   5.797   5.468
26304SOL    HW180809   3.333   5.719   5.481
26304SOL    HW280810   3.196   5.763   5.434
26305SOL     OW80811  10.081  14.507   9.884
26305SOL    HW180812  10.171  14.525   9.909
26305SOL    HW280813  10.069  14.414   9.903
26306SOL     OW80814  11.209   3.122  12.345
26306SOL    HW180815  11.225   3.150  12.255
26306SOL    HW280816  11.296   3.124  12.386
26307SOL     OW80817   9.949  14.268   9.919
26307SOL    HW180818   9.920  14.239   9.832
26307SOL    HW280819  10.020  14.208   9.942
26308SOL     OW80820  11.616   4.236  13.827
26308SOL    HW180821  11.567   4.229  13.745
26308SOL    HW280822  11.674   4.311  13.813
26309SOL     OW80823   9.918   6.324  12.898
26309SOL    HW180824   9.932   6.398  12.957
26309SOL    HW280825   9.868   6.361  12.825
26310SOL     OW80826   3.855   9.736   2.892
26310SOL    HW180827   3.933   9.680   2.885
26310SOL    HW280828   3.806   9.700   2.966
26311SOL     OW80829   2.522  13.606   5.587
26311SOL    HW180830   2.473  13.660   5.649
26311SOL    HW280831   2.495  13.638   5.500
26312SOL     OW80832  12.010   3.854  10.604
26312SOL    HW180833  11.971   3.928  10.559
26312SOL    HW280834  12.017   3.786  10.537
26313SOL     OW80835   5.581  11.868   9.355
26313SOL    HW180836   5.584  11.779   9.320
26313SOL    HW280837   5.538  11.920   9.287
26314SOL     OW80838   5.029   5.530   2.228
26314SOL    HW180839   5.087   5.506   2.155
26314SOL    HW280840   5.046   5.623   2.242
26315SOL     OW80841   3.794   2.793   6.391
26315SOL    HW180842   3.717   2.791   6.448
26315SOL    HW280843   3.775   2.862   6.327
26316SOL     OW80844   6.934   9.522   8.565
26316SOL    HW180845   6.849   9.485   8.587
26316SOL    HW280846   6.981   9.450   8.522
26317SOL     OW80847   8.682   8.401   2.399
26317SOL    HW180848   8.666   8.481   2.349
26317SOL    HW280849   8.731   8.430   2.476
26318SOL     OW80850   3.228   8.776   2.368
26318SOL    HW180851   3.273   8.761   2.285
26318SOL    HW280852   3.161   8.708   2.372
26319SOL     OW80853   1.475   4.108  11.572
26319SOL    HW180854   1.520   4.184  11.608
26319SOL    HW280855   1.449   4.134  11.484
26320SOL     OW80856  14.232  10.283   9.213
26320SOL    HW180857  14.221  10.273   9.308
26320SOL    HW280858  14.280  10.205   9.186
26321SOL     OW80859  12.832  13.963  14.423
26321SOL    HW180860  12.751  13.913  14.422
26321SOL    HW280861  12.876  13.940  14.341
26322SOL     OW80862   2.362   8.605   9.238
26322SOL    HW180863   2.310   8.539   9.283
26322SOL    HW280864   2.453   8.577   9.252
26323SOL     OW80865   6.775   8.079   1.460
26323SOL    HW180866   6.728   8.010   1.413
26323SOL    HW280867   6.861   8.041   1.479
26324SOL     OW80868   4.959   9.689  11.978
26324SOL    HW180869   4.924   9.626  11.916
26324SOL    HW280870   5.046   9.711  11.943
26325SOL     OW80871   4.462  11.666  11.958
26325SOL    HW180872   4.523  11.634  12.023
26325SOL    HW280873   4.507  11.655  11.874
26326SOL     OW80874   0.561   4.702  12.304
26326SOL    HW180875   0.499   4.754  12.356
26326SOL    HW280876   0.626   4.672  12.367
26327SOL     OW80877   5.284   5.172   4.165
26327SOL    HW180878   5.252   5.088   4.197
26327SOL    HW280879   5.337   5.207   4.237
26328SOL     OW80880   4.076   0.320   4.029
26328SOL    HW180881   4.160   0.342   3.988
26328SOL    HW280882   4.059   0.393   4.089
26329SOL     OW80883  10.796   3.353   7.853
26329SOL    HW180884  10.850   3.420   7.896
26329SOL    HW280885  10.783   3.286   7.920
26330SOL     OW80886   2.883   3.470   2.683
26330SOL    HW180887   2.922   3.436   2.602
26330SOL    HW280888   2.902   3.564   2.680
26331SOL     OW80889   1.940   8.084   9.071
26331SOL    HW180890   1.983   8.016   9.122
26331SOL    HW280891   1.866   8.112   9.124
26332SOL     OW80892   5.528   0.626   8.015
26332SOL    HW180893   5.610   0.671   8.034
26332SOL    HW280894   5.519   0.629   7.920
26333SOL     OW80895  10.571   7.575   3.464
26333SOL    HW180896  10.571   7.572   3.559
26333SOL    HW280897  10.541   7.488   3.437
26334SOL     OW80898  13.557  12.697   7.553
26334SOL    HW180899  13.644  12.723   7.525
26334SOL    HW280900  13.499  12.729   7.484
26335SOL     OW80901  10.356  12.746  14.694
26335SOL    HW180902  10.433  12.802  14.686
26335SOL    HW280903  10.306  12.784  14.767
26336SOL     OW80904  13.253   1.426   6.394
26336SOL    HW180905  13.325   1.484   6.369
26336SOL    HW280906  13.292   1.339   6.399
26337SOL     OW80907  12.639  10.237   5.515
26337SOL    HW180908  12.691  10.315   5.498
26337SOL    HW280909  12.585  10.260   5.590
26338SOL     OW80910   5.353   8.286  10.666
26338SOL    HW180911   5.439   8.328  10.662
26338SOL    HW280912   5.346   8.255  10.757
26339SOL     OW80913   6.935   9.597  11.122
26339SOL    HW180914   6.928   9.667  11.057
26339SOL    HW280915   7.029   9.579  11.128
26340SOL     OW80916   9.145   7.887   2.085
26340SOL    HW180917   9.176   7.825   2.019
26340SOL    HW280918   9.202   7.963   2.075
26341SOL     OW80919   4.093   5.755   6.182
26341SOL    HW180920   4.117   5.821   6.248
26341SOL    HW280921   4.002   5.735   6.200
26342SOL     OW80922   5.040  11.087  10.975
26342SOL    HW180923   5.107  11.082  11.044
26342SOL    HW280924   5.085  11.127  10.901
26343SOL     OW80925  14.108  10.302  11.701
26343SOL    HW180926  14.190  10.251  11.700
26343SOL    HW280927  14.124  10.373  11.763
26344SOL     OW80928  13.321   8.736   9.296
26344SOL    HW180929  13.284   8.784   9.223
26344SOL    HW280930  13.253   8.738   9.364
26345SOL     OW80931   6.618   8.816  12.731
26345SOL    HW180932   6.607   8.833  12.637
26345SOL    HW280933   6.611   8.721  12.739
26346SOL     OW80934  10.974   6.519   9.588
26346SOL    HW180935  11.015   6.444   9.630
26346SOL    HW280936  11.046   6.567   9.547
26347SOL     OW80937   4.820  10.872   3.266
26347SOL    HW180938   4.726  10.867   3.286
26347SOL    HW280939   4.832  10.961   3.233
26348SOL     OW80940  12.444   2.108   7.231
26348SOL    HW180941  12.363   2.136   7.189
26348SOL    HW280942  12.493   2.061   7.163
26349SOL     OW80943   6.890   9.242  14.694
26349SOL    HW180944   6.800   9.235  14.726
26349SOL    HW280945   6.933   9.300  14.757
26350SOL     OW80946   8.729  14.636   3.232
26350SOL    HW180947   8.807  14.641   3.287
26350SOL    HW280948   8.671  14.576   3.280
26351SOL     OW80949   1.494   4.680   1.144
26351SOL    HW180950   1.574   4.722   1.113
26351SOL    HW280951   1.424   4.741   1.121
26352SOL     OW80952   4.987   3.878   0.832
26352SOL    HW180953   4.992   3.804   0.893
26352SOL    HW280954   4.963   3.952   0.888
26353SOL     OW80955   9.439   3.818  14.570
26353SOL    HW180956   9.437   3.863  14.655
26353SOL    HW280957   9.364   3.854  14.522
26354SOL     OW80958   7.998  11.325   8.649
26354SOL    HW180959   7.988  11.256   8.716
26354SOL    HW280960   7.919  11.378   8.659
26355SOL     OW80961   9.507   2.489  14.707
26355SOL    HW180962   9.544   2.401  14.706
26355SOL    HW280963   9.436   2.484  14.771
26356SOL     OW80964   3.838  13.947  14.357
26356SOL    HW180965   3.800  13.970  14.441
26356SOL    HW280966   3.800  13.862  14.336
26357SOL     OW80967   2.470  14.415   6.070
26357SOL    HW180968   2.516  14.496   6.045
26357SOL    HW280969   2.377  14.437   6.062
26358SOL     OW80970  13.282   1.388  14.046
26358SOL    HW180971  13.356   1.400  14.105
26358SOL    HW280972  13.322   1.376  13.960
26359SOL     OW80973   3.024   7.675   3.197
26359SOL    HW180974   3.022   7.712   3.285
26359SOL    HW280975   3.052   7.748   3.141
26360SOL     OW80976  14.088  14.029  11.785
26360SOL    HW180977  14.102  13.939  11.756
26360SOL    HW280978  13.994  14.043  11.777
26361SOL     OW80979  11.821   2.567  13.556
26361SOL    HW180980  11.875   2.639  13.587
26361SOL    HW280981  11.868   2.488  13.583
26362SOL     OW80982   6.935   6.108   1.242
26362SOL    HW180983   6.997   6.179   1.224
26362SOL    HW280984   6.862   6.151   1.285
26363SOL     OW80985  14.492  14.027   3.379
26363SOL    HW180986  14.572  14.063   3.419
26363SOL    HW280987  14.422  14.082   3.413
26364SOL     OW80988   0.968  13.892  12.237
26364SOL    HW180989   0.967  13.960  12.304
26364SOL    HW280990   0.989  13.811  12.284
26365SOL     OW80991   6.848   3.382  13.851
26365SOL    HW180992   6.881   3.469  13.830
26365SOL    HW280993   6.924   3.325  13.839
26366SOL     OW80994   5.098   9.413   5.695
26366SOL    HW180995   5.161   9.341   5.686
26366SOL    HW280996   5.015   9.370   5.716
26367SOL     OW80997   7.223   0.616   8.648
26367SOL    HW180998   7.199   0.592   8.737
26367SOL    HW280999   7.250   0.708   8.654
26368SOL     OW81000   7.827   6.212   5.241
26368SOL    HW181001   7.765   6.215   5.314
26368SOL    HW281002   7.806   6.289   5.189
26369SOL     OW81003   8.869   8.033   2.124
26369SOL    HW181004   8.850   8.126   2.133
26369SOL    HW281005   8.783   7.991   2.114
26370SOL     OW81006  10.740  13.242   0.920
26370SOL    HW181007  10.685  13.246   0.842
26370SOL    HW281008  10.748  13.333   0.949
26371SOL     OW81009   5.986  11.982   0.887
26371SOL    HW181010   6.054  11.976   0.955
26371SOL    HW281011   5.967  12.075   0.880
26372SOL     OW81012  13.323   2.142  10.431
26372SOL    HW181013  13.259   2.113  10.496
26372SOL    HW281014  13.272   2.154  10.351
26373SOL     OW81015   8.958   1.276  10.093
26373SOL    HW181016   9.026   1.335  10.124
26373SOL    HW281017   8.906   1.257  10.171
26374SOL     OW81018   9.539   8.930   5.512
26374SOL    HW181019   9.629   8.911   5.486
26374SOL    HW281020   9.499   8.968   5.433
26375SOL     OW81021   1.200   1.095  10.039
26375SOL    HW181022   1.127   1.095   9.977
26375SOL    HW281023   1.186   1.017  10.092
26376SOL     OW81024  10.399  12.213   3.417
26376SOL    HW181025  10.467  12.265   3.458
26376SOL    HW281026  10.399  12.241   3.325
26377SOL     OW81027   6.501  14.294   2.278
26377SOL    HW181028   6.528  14.205   2.300
26377SOL    HW281029   6.570  14.349   2.315
26378SOL     OW81030  11.838   1.599  12.718
26378SOL    HW181031  11.854   1.687  12.753
26378SOL    HW281032  11.925   1.558  12.717
26379SOL     OW81033   9.503   7.129  11.988
26379SOL    HW181034   9.466   7.047  11.955
26379SOL    HW281035   9.541   7.105  12.073
26380SOL     OW81036   9.078   8.875   2.550
26380SOL    HW181037   9.133   8.931   2.604
26380SOL    HW281038   9.078   8.916   2.464
26381SOL     OW81039  13.938   2.611   3.394
26381SOL    HW181040  13.966   2.576   3.310
26381SOL    HW281041  13.849   2.577   3.406
26382SOL     OW81042  12.016   0.463  12.758
26382SOL    HW181043  12.005   0.557  12.770
26382SOL    HW281044  11.971   0.423  12.833
26383SOL     OW81045  13.384   7.214   9.676
26383SOL    HW181046  13.418   7.222   9.765
26383SOL    HW281047  13.395   7.301   9.638
26384SOL     OW81048   0.875   0.159   4.589
26384SOL    HW181049   0.957   0.207   4.594
26384SOL    HW281050   0.876   0.103   4.667
26385SOL     OW81051   6.303   6.069  14.208
26385SOL    HW181052   6.290   6.158  14.240
26385SOL    HW281053   6.342   6.023  14.283
26386SOL     OW81054   5.134   1.855   2.733
26386SOL    HW181055   5.168   1.927   2.680
26386SOL    HW281056   5.044   1.842   2.700
26387SOL     OW81057  12.370   3.083  12.935
26387SOL    HW181058  12.391   3.016  12.869
26387SOL    HW281059  12.430   3.066  13.007
26388SOL     OW81060   8.072   4.150   1.222
26388SOL    HW181061   8.095   4.059   1.241
26388SOL    HW281062   8.151   4.187   1.182
26389SOL     OW81063  14.169   2.661   9.543
26389SOL    HW181064  14.100   2.598   9.564
26389SOL    HW281065  14.247   2.628   9.588
26390SOL     OW81066   8.059   6.190   2.308
26390SOL    HW181067   8.012   6.269   2.336
26390SOL    HW281068   8.036   6.125   2.374
26391SOL     OW81069   0.197   3.946   7.130
26391SOL    HW181070   0.287   3.961   7.161
26391SOL    HW281071   0.179   4.020   7.072
26392SOL     OW81072   1.788   7.846   8.515
26392SOL    HW181073   1.817   7.771   8.567
26392SOL    HW281074   1.767   7.809   8.430
26393SOL     OW81075   4.317   6.750   7.546
26393SOL    HW181076   4.303   6.812   7.617
26393SOL    HW281077   4.294   6.798   7.466
26394SOL     OW81078   4.557  12.595   8.636
26394SOL    HW181079   4.493  12.565   8.573
26394SOL    HW281080   4.640  12.556   8.607
26395SOL     OW81081  13.431   9.662  13.915
26395SOL    HW181082  13.476   9.604  13.976
26395SOL    HW281083  13.459   9.750  13.941
26396SOL     OW81084  11.433   4.784   3.037
26396SOL    HW181085  11.369   4.840   2.993
26396SOL    HW281086  11.517   4.809   2.998
26397SOL     OW81087   4.937  11.248   0.427
26397SOL    HW181088   4.985  11.328   0.407
26397SOL    HW281089   4.863  11.250   0.366
26398SOL     OW81090   6.190  13.419  11.581
26398SOL    HW181091   6.272  13.392  11.539
26398SOL    HW281092   6.217  13.477  11.652
26399SOL     OW81093  12.020   6.192   6.986
26399SOL    HW181094  11.999   6.115   6.934
26399SOL    HW281095  11.944   6.205   7.042
26400SOL     OW81096   3.693  10.812   6.229
26400SOL    HW181097   3.759  10.818   6.298
26400SOL    HW281098   3.710  10.728   6.186
26401SOL     OW81099   5.672   5.248  11.556
26401SOL    HW181100   5.714   5.259  11.641
26401SOL    HW281101   5.630   5.162  11.561
26402SOL     OW81102   3.344  12.703  12.645
26402SOL    HW181103   3.295  12.751  12.711
26402SOL    HW281104   3.281  12.641  12.608
26403SOL     OW81105   8.754  10.444  13.244
26403SOL    HW181106   8.663  10.457  13.271
26403SOL    HW281107   8.750  10.374  13.179
26404SOL     OW81108   8.438   2.202   9.259
26404SOL    HW181109   8.400   2.177   9.175
26404SOL    HW281110   8.532   2.210   9.240
26405SOL     OW81111   9.555   4.424   7.258
26405SOL    HW181112   9.545   4.500   7.315
26405SOL    HW281113   9.473   4.375   7.269
26406SOL     OW81114  12.749   7.506   7.304
26406SOL    HW181115  12.756   7.479   7.213
26406SOL    HW281116  12.661   7.542   7.313
26407SOL     OW81117   6.964   6.346   6.955
26407SOL    HW181118   7.022   6.330   6.881
26407SOL    HW281119   6.883   6.376   6.916
26408SOL     OW81120   0.865   1.508  14.356
26408SOL    HW181121   0.939   1.484  14.300
26408SOL    HW281122   0.905   1.550  14.432
26409SOL     OW81123   9.567  12.920   5.740
26409SOL    HW181124   9.616  12.858   5.794
26409SOL    HW281125   9.573  13.003   5.788
26410SOL     OW81126  12.849   4.184   9.370
26410SOL    HW181127  12.928   4.233   9.389
26410SOL    HW281128  12.797   4.242   9.314
26411SOL     OW81129   2.956   5.593   2.299
26411SOL    HW181130   3.034   5.549   2.332
26411SOL    HW281131   2.890   5.524   2.294
26412SOL     OW81132  14.388  12.795  14.538
26412SOL    HW181133  14.298  12.790  14.505
26412SOL    HW281134  14.443  12.783  14.461
26413SOL     OW81135  11.410  14.688   7.447
26413SOL    HW181136  11.484  14.727   7.401
26413SOL    HW281137  11.400  14.742   7.525
26414SOL     OW81138   6.208   7.550   5.939
26414SOL    HW181139   6.238   7.463   5.913
26414SOL    HW281140   6.230   7.606   5.864
26415SOL     OW81141  14.481   3.793  13.593
26415SOL    HW181142  14.554   3.836  13.637
26415SOL    HW281143  14.417   3.862  13.578
26416SOL     OW81144   7.160   7.453   3.085
26416SOL    HW181145   7.131   7.462   3.175
26416SOL    HW281146   7.079   7.450   3.034
26417SOL     OW81147   8.566   8.128   8.943
26417SOL    HW181148   8.640   8.074   8.916
26417SOL    HW281149   8.580   8.143   9.036
26418SOL     OW81150   0.379   1.441   6.139
26418SOL    HW181151   0.446   1.495   6.097
26418SOL    HW281152   0.298   1.491   6.132
26419SOL     OW81153   5.477   0.273   1.889
26419SOL    HW181154   5.501   0.234   1.973
26419SOL    HW281155   5.530   0.226   1.825
26420SOL     OW81156  11.247   7.527  11.030
26420SOL    HW181157  11.336   7.531  11.065
26420SOL    HW281158  11.197   7.590  11.082
26421SOL     OW81159  10.352  12.991   5.275
26421SOL    HW181160  10.415  13.048   5.320
26421SOL    HW281161  10.362  12.906   5.318
26422SOL     OW81162   6.238  11.313   7.576
26422SOL    HW181163   6.154  11.360   7.573
26422SOL    HW281164   6.279  11.332   7.492
26423SOL     OW81165  10.889   8.278   5.380
26423SOL    HW181166  10.942   8.200   5.364
26423SOL    HW281167  10.952   8.345   5.403
26424SOL     OW81168  10.136   8.182   9.164
26424SOL    HW181169  10.229   8.178   9.188
26424SOL    HW281170  10.106   8.265   9.200
26425SOL     OW81171  14.411  14.353  12.552
26425SOL    HW181172  14.395  14.259  12.557
26425SOL    HW281173  14.325  14.393  12.568
26426SOL     OW81174   8.155   6.600  13.091
26426SOL    HW181175   8.192   6.609  13.178
26426SOL    HW281176   8.207   6.660  13.037
26427SOL     OW81177   7.900  10.534  13.126
26427SOL    HW181178   7.977  10.589  13.113
26427SOL    HW281179   7.885  10.493  13.040
26428SOL     OW81180  12.359   4.740   6.680
26428SOL    HW181181  12.426   4.805   6.660
26428SOL    HW281182  12.277   4.781   6.653
26429SOL     OW81183   6.767   7.341   0.659
26429SOL    HW181184   6.740   7.339   0.751
26429SOL    HW281185   6.723   7.418   0.623
26430SOL     OW81186   0.183  12.484  14.203
26430SOL    HW181187   0.133  12.467  14.282
26430SOL    HW281188   0.163  12.410  14.145
26431SOL     OW81189  11.705   0.194   0.433
26431SOL    HW181190  11.759   0.272   0.450
26431SOL    HW281191  11.622   0.213   0.476
26432SOL     OW81192   1.512  10.640   7.488
26432SOL    HW181193   1.479  10.591   7.413
26432SOL    HW281194   1.436  10.649   7.546
26433SOL     OW81195  10.597   5.567  13.151
26433SOL    HW181196  10.687   5.537  13.152
26433SOL    HW281197  10.547   5.497  13.193
26434SOL     OW81198   3.976   2.843   7.943
26434SOL    HW181199   3.916   2.917   7.944
26434SOL    HW281200   4.058   2.878   7.908
26435SOL     OW81201   4.045   1.553   5.109
26435SOL    HW181202   4.008   1.468   5.087
26435SOL    HW281203   4.087   1.541   5.194
26436SOL     OW81204  13.625   2.694   7.371
26436SOL    HW181205  13.623   2.664   7.462
26436SOL    HW281206  13.674   2.626   7.325
26437SOL     OW81207  12.800   2.311   4.321
26437SOL    HW181208  12.837   2.323   4.233
26437SOL    HW281209  12.830   2.387   4.370
26438SOL     OW81210   1.317  14.177   8.768
26438SOL    HW181211   1.383  14.163   8.836
26438SOL    HW281212   1.328  14.103   8.708
26439SOL     OW81213   8.154   0.229   0.898
26439SOL    HW181214   8.105   0.237   0.980
26439SOL    HW281215   8.220   0.298   0.902
26440SOL     OW81216  12.620   8.590   0.096
26440SOL    HW181217  12.540   8.547   0.065
26440SOL    HW281218  12.685   8.520   0.102
26441SOL     OW81219   5.142  13.753   3.632
26441SOL    HW181220   5.069  13.738   3.691
26441SOL    HW281221   5.178  13.666   3.614
26442SOL     OW81222  14.384   1.969   5.818
26442SOL    HW181223  14.362   1.935   5.731
26442SOL    HW281224  14.313   1.938   5.875
26443SOL     OW81225  10.837  12.553   6.253
26443SOL    HW181226  10.751  12.517   6.275
26443SOL    HW281227  10.848  12.532   6.160
26444SOL     OW81228  11.280  13.085   5.105
26444SOL    HW181229  11.236  13.147   5.161
26444SOL    HW281230  11.236  13.002   5.121
26445SOL     OW81231   4.858   9.965   1.148
26445SOL    HW181232   4.951   9.945   1.153
26445SOL    HW281233   4.851  10.034   1.081
26446SOL     OW81234  14.045  11.576  14.598
26446SOL    HW181235  14.118  11.599  14.656
26446SOL    HW281236  13.996  11.510  14.647
26447SOL     OW81237   0.123  10.139   8.023
26447SOL    HW181238   0.090  10.092   8.100
26447SOL    HW281239   0.044  10.157   7.971
26448SOL     OW81240  14.041   6.122   3.649
26448SOL    HW181241  14.048   6.027   3.655
26448SOL    HW281242  13.971   6.145   3.710
26449SOL     OW81243  11.588  14.647   3.206
26449SOL    HW181244  11.634  14.593   3.269
26449SOL    HW281245  11.589  14.735   3.243
26450SOL     OW81246   9.005   2.430   5.537
26450SOL    HW181247   9.044   2.344   5.552
26450SOL    HW281248   9.067   2.491   5.576
26451SOL     OW81249   9.042  13.760  10.814
26451SOL    HW181250   9.018  13.703  10.742
26451SOL    HW281251   9.007  13.717  10.892
26452SOL     OW81252   3.590   9.477  13.871
26452SOL    HW181253   3.576   9.570  13.886
26452SOL    HW281254   3.674   9.473  13.825
26453SOL     OW81255   4.363   2.229   3.281
26453SOL    HW181256   4.318   2.200   3.360
26453SOL    HW281257   4.444   2.178   3.280
26454SOL     OW81258   4.308   0.854   2.064
26454SOL    HW181259   4.317   0.841   2.158
26454SOL    HW281260   4.287   0.767   2.029
26455SOL     OW81261  12.533   0.983  11.734
26455SOL    HW181262  12.441   0.975  11.756
26455SOL    HW281263  12.562   0.893  11.717
26456SOL     OW81264   3.781   7.163   4.585
26456SOL    HW181265   3.818   7.206   4.662
26456SOL    HW281266   3.724   7.229   4.545
26457SOL     OW81267   5.864   1.399   9.408
26457SOL    HW181268   5.920   1.474   9.426
26457SOL    HW281269   5.784   1.416   9.457
26458SOL     OW81270   6.220   8.825  11.220
26458SOL    HW181271   6.238   8.847  11.128
26458SOL    HW281272   6.304   8.795  11.254
26459SOL     OW81273   6.814   9.232  11.935
26459SOL    HW181274   6.884   9.173  11.904
26459SOL    HW281275   6.853   9.319  11.930
26460SOL     OW81276   8.553   2.938   6.330
26460SOL    HW181277   8.512   2.984   6.402
26460SOL    HW281278   8.631   2.897   6.368
26461SOL     OW81279   7.469  13.056  13.265
26461SOL    HW181280   7.443  12.994  13.333
26461SOL    HW281281   7.387  13.095  13.236
26462SOL     OW81282   7.732   3.734   4.241
26462SOL    HW181283   7.755   3.824   4.220
26462SOL    HW281284   7.722   3.691   4.156
26463SOL     OW81285   8.452  10.658   7.743
26463SOL    HW181286   8.360  10.647   7.720
26463SOL    HW281287   8.461  10.751   7.761
26464SOL     OW81288  11.913  13.125   2.187
26464SOL    HW181289  11.862  13.115   2.267
26464SOL    HW281290  11.897  13.044   2.138
26465SOL     OW81291   4.629   3.655  14.334
26465SOL    HW181292   4.643   3.561  14.330
26465SOL    HW281293   4.534   3.665  14.335
26466SOL     OW81294   6.190   5.000  10.360
26466SOL    HW181295   6.162   4.936  10.426
26466SOL    HW281296   6.233   4.947  10.293
26467SOL     OW81297  13.904   6.122   9.900
26467SOL    HW181298  13.886   6.163   9.816
26467SOL    HW281299  13.841   6.050   9.906
26468SOL     OW81300   2.114   0.663   5.879
26468SOL    HW181301   2.024   0.686   5.901
26468SOL    HW281302   2.164   0.680   5.959
26469SOL     OW81303   6.501   1.473   3.124
26469SOL    HW181304   6.552   1.441   3.049
26469SOL    HW281305   6.468   1.558   3.095
26470SOL     OW81306   4.565  14.206   7.622
26470SOL    HW181307   4.580  14.177   7.531
26470SOL    HW281308   4.470  14.198   7.634
26471SOL     OW81309   4.305   8.804  10.244
26471SOL    HW181310   4.288   8.765  10.157
26471SOL    HW281311   4.342   8.890  10.225
26472SOL     OW81312   5.159   8.382  13.041
26472SOL    HW181313   5.086   8.335  13.001
26472SOL    HW281314   5.211   8.314  13.085
26473SOL     OW81315   0.697   3.295   4.010
26473SOL    HW181316   0.686   3.207   3.972
26473SOL    HW281317   0.773   3.331   3.964
26474SOL     OW81318   1.494   3.120   6.678
26474SOL    HW181319   1.550   3.188   6.716
26474SOL    HW281320   1.514   3.041   6.729
26475SOL     OW81321   4.123  11.116   7.400
26475SOL    HW181322   4.132  11.034   7.352
26475SOL    HW281323   4.060  11.167   7.349
26476SOL     OW81324   4.303  11.651  11.640
26476SOL    HW181325   4.330  11.612  11.723
26476SOL    HW281326   4.226  11.601  11.614
26477SOL     OW81327  11.064  10.166  12.464
26477SOL    HW181328  11.066  10.070  12.459
26477SOL    HW281329  11.096  10.195  12.378
26478SOL     OW81330   5.748   7.911   1.534
26478SOL    HW181331   5.782   7.842   1.478
26478SOL    HW281332   5.659   7.882   1.557
26479SOL     OW81333   4.244  11.467   7.932
26479SOL    HW181334   4.168  11.425   7.892
26479SOL    HW281335   4.290  11.396   7.976
26480SOL     OW81336   8.522   4.007   7.659
26480SOL    HW181337   8.538   4.096   7.690
26480SOL    HW281338   8.427   3.997   7.662
26481SOL     OW81339   1.907   4.285   9.496
26481SOL    HW181340   1.919   4.368   9.542
26481SOL    HW281341   1.973   4.285   9.427
26482SOL     OW81342   7.133  14.703   0.334
26482SOL    HW181343   7.207  14.736   0.282
26482SOL    HW281344   7.118  14.615   0.300
26483SOL     OW81345  11.460  12.703   8.977
26483SOL    HW181346  11.513  12.740   8.907
26483SOL    HW281347  11.480  12.609   8.976
26484SOL     OW81348  14.711   2.104   9.504
26484SOL    HW181349  14.666   2.038   9.452
26484SOL    HW281350  14.803   2.098   9.476
26485SOL     OW81351  12.762  11.102  12.857
26485SOL    HW181352  12.705  11.119  12.782
26485SOL    HW281353  12.785  11.009  12.848
26486SOL     OW81354   5.980   7.506   6.533
26486SOL    HW181355   6.037   7.509   6.609
26486SOL    HW281356   6.015   7.572   6.473
26487SOL     OW81357   7.193   1.115   1.947
26487SOL    HW181358   7.287   1.095   1.945
26487SOL    HW281359   7.151   1.030   1.933
26488SOL     OW81360  12.244   3.297   1.255
26488SOL    HW181361  12.178   3.296   1.324
26488SOL    HW281362  12.305   3.366   1.281
26489SOL     OW81363   3.669   5.954   2.861
26489SOL    HW181364   3.662   5.896   2.936
26489SOL    HW281365   3.741   6.014   2.882
26490SOL     OW81366  11.135   0.348  14.581
26490SOL    HW181367  11.197   0.393  14.638
26490SOL    HW281368  11.055   0.400  14.587
26491SOL     OW81369   8.390  12.667   7.700
26491SOL    HW181370   8.320  12.726   7.729
26491SOL    HW281371   8.361  12.634   7.615
26492SOL     OW81372  11.028   4.651   4.888
26492SOL    HW181373  10.969   4.692   4.825
26492SOL    HW281374  11.111   4.698   4.876
26493SOL     OW81375   4.977   2.248   7.707
26493SOL    HW181376   5.014   2.308   7.643
26493SOL    HW281377   5.051   2.222   7.761
26494SOL     OW81378  11.981   3.131  10.438
26494SOL    HW181379  11.982   3.081  10.356
26494SOL    HW281380  11.932   3.077  10.499
26495SOL     OW81381  12.844  13.450   6.499
26495SOL    HW181382  12.864  13.426   6.408
26495SOL    HW281383  12.796  13.375   6.533
26496SOL     OW81384  11.901   1.358   8.562
26496SOL    HW181385  11.973   1.326   8.507
26496SOL    HW281386  11.827   1.368   8.501
26497SOL     OW81387   7.279  12.931  14.341
26497SOL    HW181388   7.351  12.945  14.402
26497SOL    HW281389   7.200  12.936  14.395
26498SOL     OW81390   3.447   2.800   4.966
26498SOL    HW181391   3.430   2.728   4.905
26498SOL    HW281392   3.407   2.877   4.925
26499SOL     OW81393   3.277  14.659   7.226
26499SOL    HW181394   3.238  14.684   7.142
26499SOL    HW281395   3.203  14.636   7.281
26500SOL     OW81396   9.323   2.083   4.829
26500SOL    HW181397   9.301   1.991   4.839
26500SOL    HW281398   9.239   2.129   4.840
26501SOL     OW81399   4.413   1.602   8.467
26501SOL    HW181400   4.473   1.534   8.499
26501SOL    HW281401   4.466   1.653   8.405
26502SOL     OW81402   6.297  12.921  14.767
26502SOL    HW181403   6.364  12.951  14.705
26502SOL    HW281404   6.346  12.884  14.839
26503SOL     OW81405   5.709   7.356  12.769
26503SOL    HW181406   5.677   7.273  12.806
26503SOL    HW281407   5.722   7.337  12.676
26504SOL     OW81408   5.723  10.745   4.867
26504SOL    HW181409   5.809  10.747   4.825
26504SOL    HW281410   5.680  10.826   4.839
26505SOL     OW81411   6.139   2.818   4.225
26505SOL    HW181412   6.147   2.820   4.130
26505SOL    HW281413   6.141   2.725   4.248
26506SOL     OW81414   6.544  14.598   1.497
26506SOL    HW181415   6.470  14.574   1.553
26506SOL    HW281416   6.621  14.580   1.550
26507SOL     OW81417   7.657   0.862   5.913
26507SOL    HW181418   7.660   0.855   5.817
26507SOL    HW281419   7.564   0.853   5.934
26508SOL     OW81420   6.836  11.962   1.681
26508SOL    HW181421   6.926  11.931   1.692
26508SOL    HW281422   6.787  11.918   1.751
26509SOL     OW81423   1.337  12.137   5.393
26509SOL    HW181424   1.324  12.225   5.359
26509SOL    HW281425   1.330  12.080   5.317
26510SOL     OW81426   1.950  11.501  10.958
26510SOL    HW181427   1.875  11.464  10.910
26510SOL    HW281428   1.923  11.500  11.050
26511SOL     OW81429  10.094   9.263  14.870
26511SOL    HW181430  10.048   9.311  14.800
26511SOL    HW281431  10.039   9.276   0.065
26512SOL     OW81432   7.230   9.622   5.895
26512SOL    HW181433   7.179   9.545   5.868
26512SOL    HW281434   7.244   9.671   5.814
26513SOL     OW81435   3.048   1.790   6.449
26513SOL    HW181436   3.035   1.701   6.417
26513SOL    HW281437   3.141   1.793   6.474
26514SOL     OW81438  12.913  13.639   7.756
26514SOL    HW181439  12.886  13.726   7.726
26514SOL    HW281440  12.849  13.580   7.717
26515SOL     OW81441   6.795  11.892   7.702
26515SOL    HW181442   6.807  11.985   7.723
26515SOL    HW281443   6.796  11.848   7.787
26516SOL     OW81444   6.368   4.871   7.433
26516SOL    HW181445   6.402   4.818   7.505
26516SOL    HW281446   6.274   4.854   7.433
26517SOL     OW81447   0.321   1.940  11.552
26517SOL    HW181448   0.259   1.876  11.588
26517SOL    HW281449   0.266   1.999  11.499
26518SOL     OW81450  11.851   7.362   6.044
26518SOL    HW181451  11.824   7.440   5.996
26518SOL    HW281452  11.835   7.290   5.983
26519SOL     OW81453   8.991   3.016  11.416
26519SOL    HW181454   8.992   2.968  11.499
26519SOL    HW281455   9.006   2.950  11.350
26520SOL     OW81456   1.343  13.509   7.638
26520SOL    HW181457   1.295  13.566   7.578
26520SOL    HW281458   1.307  13.528   7.724
26521SOL     OW81459  11.930   5.769   9.865
26521SOL    HW181460  11.990   5.777   9.792
26521SOL    HW281461  11.973   5.816   9.937
26522SOL     OW81462   8.061   6.364   4.173
26522SOL    HW181463   8.084   6.432   4.110
26522SOL    HW281464   8.034   6.290   4.118
26523SOL     OW81465   0.804  13.254   1.896
26523SOL    HW181466   0.893  13.224   1.875
26523SOL    HW281467   0.802  13.254   1.992
26524SOL     OW81468   8.619   0.481  10.023
26524SOL    HW181469   8.566   0.459  10.100
26524SOL    HW281470   8.650   0.570  10.041
26525SOL     OW81471   5.634   2.225   1.978
26525SOL    HW181472   5.666   2.193   2.062
26525SOL    HW281473   5.557   2.172   1.960
26526SOL     OW81474  11.247   4.524   5.454
26526SOL    HW181475  11.228   4.588   5.523
26526SOL    HW281476  11.250   4.576   5.374
26527SOL     OW81477   9.821   8.641   4.307
26527SOL    HW181478   9.852   8.570   4.364
26527SOL    HW281479   9.874   8.633   4.228
26528SOL     OW81480   4.601   2.688   0.275
26528SOL    HW181481   4.630   2.749   0.207
26528SOL    HW281482   4.581   2.743   0.350
26529SOL     OW81483  11.675  12.850  14.136
26529SOL    HW181484  11.723  12.876  14.058
26529SOL    HW281485  11.718  12.896  14.208
26530SOL     OW81486  14.653   5.485   3.870
26530SOL    HW181487  14.635   5.579   3.872
26530SOL    HW281488  14.699   5.471   3.787
26531SOL     OW81489  11.318   6.164  12.674
26531SOL    HW181490  11.255   6.220  12.629
26531SOL    HW281491  11.339   6.210  12.755
26532SOL     OW81492  12.110  14.643  10.072
26532SOL    HW181493  12.100  14.731  10.037
26532SOL    HW281494  12.061  14.643  10.154
26533SOL     OW81495   3.343   4.470   4.572
26533SOL    HW181496   3.337   4.419   4.653
26533SOL    HW281497   3.281   4.542   4.584
26534SOL     OW81498   6.570   2.889   3.127
26534SOL    HW181499   6.610   2.974   3.144
26534SOL    HW281500   6.588   2.837   3.205
26535SOL     OW81501  11.833   8.859   4.738
26535SOL    HW181502  11.801   8.824   4.655
26535SOL    HW281503  11.926   8.839   4.738
26536SOL     OW81504   2.543  14.233   3.939
26536SOL    HW181505   2.456  14.194   3.949
26536SOL    HW281506   2.528  14.313   3.888
26537SOL     OW81507   3.028   0.192   8.876
26537SOL    HW181508   3.078   0.195   8.795
26537SOL    HW281509   3.057   0.269   8.925
26538SOL     OW81510  14.647  13.414   2.479
26538SOL    HW181511  14.645  13.435   2.572
26538SOL    HW281512  14.595  13.334   2.471
26539SOL     OW81513   1.015   9.807   6.053
26539SOL    HW181514   1.052   9.852   6.129
26539SOL    HW281515   1.060   9.723   6.051
26540SOL     OW81516   2.006  13.334  10.781
26540SOL    HW181517   2.063  13.387  10.835
26540SOL    HW281518   2.046  13.335  10.694
26541SOL     OW81519   3.643  11.858   5.941
26541SOL    HW181520   3.695  11.778   5.950
26541SOL    HW281521   3.708  11.929   5.941
26542SOL     OW81522   4.040   9.913   3.958
26542SOL    HW181523   4.091   9.977   4.007
26542SOL    HW281524   4.010   9.850   4.025
26543SOL     OW81525   5.568   5.690  12.884
26543SOL    HW181526   5.533   5.613  12.838
26543SOL    HW281527   5.576   5.662  12.975
26544SOL     OW81528  13.197   9.281   3.162
26544SOL    HW181529  13.130   9.276   3.094
26544SOL    HW281530  13.154   9.245   3.240
26545SOL     OW81531   9.371   0.604  14.376
26545SOL    HW181532   9.410   0.688  14.402
26545SOL    HW281533   9.393   0.595  14.284
26546SOL     OW81534   0.822  12.391   0.664
26546SOL    HW181535   0.871  12.438   0.732
26546SOL    HW281536   0.771  12.458   0.619
26547SOL     OW81537   4.672   4.746   7.791
26547SOL    HW181538   4.723   4.784   7.862
26547SOL    HW281539   4.700   4.794   7.713
26548SOL     OW81540   9.030  11.673  11.326
26548SOL    HW181541   8.941  11.705  11.337
26548SOL    HW281542   9.039  11.659  11.232
26549SOL     OW81543   9.791  14.835   7.090
26549SOL    HW181544   9.715  14.845   7.146
26549SOL    HW281545   9.861  14.806   7.149
26550SOL     OW81546   6.264   7.825   6.569
26550SOL    HW181547   6.209   7.770   6.513
26550SOL    HW281548   6.319   7.874   6.508
26551SOL     OW81549   8.440  11.438   1.232
26551SOL    HW181550   8.488  11.370   1.279
26551SOL    HW281551   8.419  11.503   1.299
26552SOL     OW81552   0.952   6.654   4.161
26552SOL    HW181553   0.870   6.639   4.116
26552SOL    HW281554   0.930   6.651   4.254
26553SOL     OW81555  14.070   8.431   4.073
26553SOL    HW181556  14.098   8.340   4.083
26553SOL    HW281557  13.979   8.431   4.101
26554SOL     OW81558  14.260   8.458   4.724
26554SOL    HW181559  14.172   8.492   4.708
26554SOL    HW281560  14.312   8.535   4.742
26555SOL     OW81561   6.995  11.262   3.678
26555SOL    HW181562   6.916  11.264   3.732
26555SOL    HW281563   7.064  11.232   3.737
26556SOL     OW81564  14.651   1.837   5.276
26556SOL    HW181565  14.740   1.838   5.242
26556SOL    HW281566  14.660   1.807   5.367
26557SOL     OW81567   2.975   4.639   9.453
26557SOL    HW181568   2.925   4.665   9.531
26557SOL    HW281569   3.019   4.558   9.479
26558SOL     OW81570   0.099   7.034   5.318
26558SOL    HW181571   0.139   7.017   5.233
26558SOL    HW281572   0.005   7.031   5.302
26559SOL     OW81573   5.618  14.230   7.412
26559SOL    HW181574   5.654  14.245   7.499
26559SOL    HW281575   5.582  14.141   7.416
26560SOL     OW81576  14.170  13.737  10.579
26560SOL    HW181577  14.099  13.682  10.611
26560SOL    HW281578  14.200  13.694  10.499
26561SOL     OW81579  13.176   2.404   8.007
26561SOL    HW181580  13.085   2.375   8.001
26561SOL    HW281581  13.186   2.466   7.934
26562SOL     OW81582   3.644  10.254   6.775
26562SOL    HW181583   3.678  10.199   6.704
26562SOL    HW281584   3.659  10.203   6.854
26563SOL     OW81585   7.023   2.092  10.766
26563SOL    HW181586   7.110   2.054  10.757
26563SOL    HW281587   6.974   2.058  10.691
26564SOL     OW81588  11.847   5.972   1.907
26564SOL    HW181589  11.919   6.019   1.951
26564SOL    HW281590  11.781   6.040   1.893
26565SOL     OW81591   6.227   9.308  12.120
26565SOL    HW181592   6.221   9.213  12.128
26565SOL    HW281593   6.318   9.323  12.094
26566SOL     OW81594   0.381  11.326   0.195
26566SOL    HW181595   0.474  11.304   0.192
26566SOL    HW281596   0.366  11.379   0.117
26567SOL     OW81597  14.254  12.043   0.797
26567SOL    HW181598  14.232  11.963   0.749
26567SOL    HW281599  14.318  12.087   0.742
26568SOL     OW81600   7.726   4.364  11.015
26568SOL    HW181601   7.675   4.371  10.935
26568SOL    HW281602   7.707   4.445  11.062
26569SOL     OW81603   8.681  10.236  10.694
26569SOL    HW181604   8.627  10.314  10.698
26569SOL    HW281605   8.768  10.268  10.668
26570SOL     OW81606   9.754   3.377   5.489
26570SOL    HW181607   9.833   3.331   5.516
26570SOL    HW281608   9.785   3.464   5.463
26571SOL     OW81609   6.025  13.746   6.539
26571SOL    HW181610   6.047  13.801   6.464
26571SOL    HW281611   5.991  13.665   6.501
26572SOL     OW81612   7.790  12.444   7.733
26572SOL    HW181613   7.735  12.513   7.768
26572SOL    HW281614   7.815  12.475   7.646
26573SOL     OW81615  12.551   1.878   8.363
26573SOL    HW181616  12.562   1.799   8.311
26573SOL    HW281617  12.599   1.861   8.444
26574SOL     OW81618  13.575   1.523   6.656
26574SOL    HW181619  13.511   1.459   6.625
26574SOL    HW281620  13.553   1.537   6.748
26575SOL     OW81621  10.438   1.824   8.397
26575SOL    HW181622  10.382   1.790   8.327
26575SOL    HW281623  10.379   1.842   8.469
26576SOL     OW81624  13.061   1.157   7.620
26576SOL    HW181625  13.123   1.122   7.557
26576SOL    HW281626  12.978   1.112   7.600
26577SOL     OW81627   5.033  10.621   7.509
26577SOL    HW181628   4.971  10.679   7.554
26577SOL    HW281629   4.977  10.562   7.459
26578SOL     OW81630   7.534  11.609   1.040
26578SOL    HW181631   7.562  11.688   1.086
26578SOL    HW281632   7.440  11.604   1.058
26579SOL     OW81633  10.874   5.916   6.555
26579SOL    HW181634  10.876   5.924   6.460
26579SOL    HW281635  10.923   5.992   6.587
26580SOL     OW81636   7.136   2.534  11.949
26580SOL    HW181637   7.123   2.628  11.959
26580SOL    HW281638   7.220   2.517  11.991
26581SOL     OW81639   1.555   5.206   2.106
26581SOL    HW181640   1.499   5.271   2.062
26581SOL    HW281641   1.621   5.182   2.041
26582SOL     OW81642  10.515   0.634  10.264
26582SOL    HW181643  10.539   0.624  10.172
26582SOL    HW281644  10.556   0.560  10.309
26583SOL     OW81645   6.122   8.000   6.311
26583SOL    HW181646   6.047   7.941   6.314
26583SOL    HW281647   6.085   8.087   6.301
26584SOL     OW81648  11.302  14.173   6.562
26584SOL    HW181649  11.244  14.249   6.568
26584SOL    HW281650  11.243  14.097   6.563
26585SOL     OW81651   9.447   6.034   7.512
26585SOL    HW181652   9.455   5.939   7.507
26585SOL    HW281653   9.527   6.063   7.556
26586SOL     OW81654   5.945   7.818   2.417
26586SOL    HW181655   5.864   7.847   2.459
26586SOL    HW281656   5.959   7.729   2.451
26587SOL     OW81657  14.544   0.559   8.518
26587SOL    HW181658  14.586   0.600   8.594
26587SOL    HW281659  14.564   0.617   8.445
26588SOL     OW81660  12.198   0.797   9.972
26588SOL    HW181661  12.251   0.830   9.899
26588SOL    HW281662  12.261   0.783  10.043
26589SOL     OW81663  11.984   6.678   8.394
26589SOL    HW181664  12.023   6.695   8.480
26589SOL    HW281665  11.890   6.686   8.408
26590SOL     OW81666  11.824  11.917   8.120
26590SOL    HW181667  11.901  11.881   8.165
26590SOL    HW281668  11.852  12.002   8.088
26591SOL     OW81669   1.797   7.661   2.465
26591SOL    HW181670   1.725   7.650   2.402
26591SOL    HW281671   1.872   7.621   2.422
26592SOL     OW81672   4.048   1.647  11.871
26592SOL    HW181673   4.137   1.653  11.907
26592SOL    HW281674   4.022   1.557  11.887
26593SOL     OW81675   1.605   9.554   7.449
26593SOL    HW181676   1.576   9.513   7.531
26593SOL    HW281677   1.692   9.518   7.435
26594SOL     OW81678  11.293   5.486  14.267
26594SOL    HW181679  11.358   5.556  14.257
26594SOL    HW281680  11.209   5.531  14.266
26595SOL     OW81681   0.405   7.031   1.248
26595SOL    HW181682   0.475   7.072   1.198
26595SOL    HW281683   0.450   6.983   1.318
26596SOL     OW81684   8.869   7.820  12.964
26596SOL    HW181685   8.782   7.789  12.990
26596SOL    HW281686   8.883   7.779  12.878
26597SOL     OW81687   0.685   0.794   2.334
26597SOL    HW181688   0.765   0.847   2.331
26597SOL    HW281689   0.619   0.853   2.370
26598SOL     OW81690   7.490  13.393  13.622
26598SOL    HW181691   7.501  13.312  13.571
26598SOL    HW281692   7.425  13.443  13.572
26599SOL     OW81693  14.261   7.777  11.229
26599SOL    HW181694  14.200   7.799  11.299
26599SOL    HW281695  14.328   7.724  11.272
26600SOL     OW81696   4.032  10.447  14.767
26600SOL    HW181697   4.063  10.519  14.822
26600SOL    HW281698   4.021  10.374  14.827
26601SOL     OW81699   8.258   5.377   8.664
26601SOL    HW181700   8.181   5.371   8.720
26601SOL    HW281701   8.295   5.289   8.665
26602SOL     OW81702   3.050   3.701  10.531
26602SOL    HW181703   3.129   3.708  10.478
26602SOL    HW281704   2.980   3.684  10.468
26603SOL     OW81705   8.428   1.245   9.162
26603SOL    HW181706   8.405   1.321   9.215
26603SOL    HW281707   8.424   1.276   9.072
26604SOL     OW81708   6.104   1.906  10.375
26604SOL    HW181709   6.017   1.937  10.400
26604SOL    HW281710   6.092   1.873  10.286
26605SOL     OW81711   2.173   0.394  13.418
26605SOL    HW181712   2.186   0.301  13.438
26605SOL    HW281713   2.127   0.429  13.494
26606SOL     OW81714  10.192   1.027   0.448
26606SOL    HW181715  10.233   0.956   0.399
26606SOL    HW281716  10.189   1.100   0.387
26607SOL     OW81717  10.317   0.403   3.482
26607SOL    HW181718  10.319   0.489   3.524
26607SOL    HW281719  10.251   0.354   3.531
26608SOL     OW81720   5.422   6.309   6.706
26608SOL    HW181721   5.416   6.404   6.706
26608SOL    HW281722   5.342   6.280   6.662
26609SOL     OW81723  12.366  13.179   5.439
26609SOL    HW181724  12.416  13.260   5.426
26609SOL    HW281725  12.392  13.148   5.525
26610SOL     OW81726  14.627   6.418   9.119
26610SOL    HW181727  14.546   6.390   9.162
26610SOL    HW281728  14.607   6.414   9.025
26611SOL     OW81729   1.934   0.555   2.948
26611SOL    HW181730   1.893   0.485   2.999
26611SOL    HW281731   1.967   0.511   2.869
26612SOL     OW81732  12.862   6.721  10.083
26612SOL    HW181733  12.923   6.788  10.052
26612SOL    HW281734  12.907   6.680  10.157
26613SOL     OW81735   7.050   0.093   7.324
26613SOL    HW181736   7.010   0.175   7.356
26613SOL    HW281737   7.045   0.099   7.229
26614SOL     OW81738   1.165  13.715   3.670
26614SOL    HW181739   1.224  13.663   3.616
26614SOL    HW281740   1.081  13.712   3.624
26615SOL     OW81741   8.325   9.958   3.397
26615SOL    HW181742   8.360   9.882   3.349
26615SOL    HW281743   8.302   9.922   3.483
26616SOL     OW81744   3.405  11.167  13.775
26616SOL    HW181745   3.387  11.261  13.779
26616SOL    HW281746   3.442  11.154  13.687
26617SOL     OW81747  11.651   5.771  12.554
26617SOL    HW181748  11.578   5.732  12.603
26617SOL    HW281749  11.675   5.849  12.605
26618SOL     OW81750   1.979   8.195   8.149
26618SOL    HW181751   1.991   8.288   8.168
26618SOL    HW281752   2.048   8.152   8.199
26619SOL     OW81753  11.455   7.374  12.108
26619SOL    HW181754  11.375   7.330  12.079
26619SOL    HW281755  11.424   7.453  12.152
26620SOL     OW81756  12.974   0.997   1.864
26620SOL    HW181757  13.015   1.082   1.851
26620SOL    HW281758  12.968   0.988   1.959
26621SOL     OW81759   6.595  12.427   3.342
26621SOL    HW181760   6.644  12.432   3.424
26621SOL    HW281761   6.651  12.374   3.284
26622SOL     OW81762   1.323  14.264   3.040
26622SOL    HW181763   1.242  14.222   3.010
26622SOL    HW281764   1.385  14.250   2.968
26623SOL     OW81765   3.551  13.709  12.936
26623SOL    HW181766   3.640  13.733  12.908
26623SOL    HW281767   3.533  13.626  12.892
26624SOL     OW81768   9.155   8.358   9.193
26624SOL    HW181769   9.107   8.291   9.145
26624SOL    HW281770   9.090   8.425   9.213
26625SOL     OW81771  10.655   0.495   9.376
26625SOL    HW181772  10.612   0.505   9.291
26625SOL    HW281773  10.622   0.412   9.410
26626SOL     OW81774  10.576  13.202   7.708
26626SOL    HW181775  10.612  13.268   7.767
26626SOL    HW281776  10.646  13.186   7.645
26627SOL     OW81777   9.039   7.517  14.687
26627SOL    HW181778   9.116   7.512  14.630
26627SOL    HW281779   9.073   7.548  14.771
26628SOL     OW81780  13.809  10.697  10.567
26628SOL    HW181781  13.737  10.714  10.507
26628SOL    HW281782  13.769  10.696  10.654
26629SOL     OW81783  12.054  10.136  11.519
26629SOL    HW181784  12.128  10.076  11.514
26629SOL    HW281785  12.091  10.217  11.555
26630SOL     OW81786   2.125   5.567   7.908
26630SOL    HW181787   2.189   5.496   7.912
26630SOL    HW281788   2.059   5.545   7.973
26631SOL     OW81789  12.589  10.696  10.390
26631SOL    HW181790  12.631  10.781  10.376
26631SOL    HW281791  12.554  10.672  10.305
26632SOL     OW81792  10.522   2.506  11.743
26632SOL    HW181793  10.531   2.598  11.768
26632SOL    HW281794  10.555   2.502  11.653
26633SOL     OW81795   0.462  12.291  12.593
26633SOL    HW181796   0.531  12.229  12.572
26633SOL    HW281797   0.382  12.239  12.592
26634SOL     OW81798  12.856   4.956  11.592
26634SOL    HW181799  12.782   4.934  11.649
26634SOL    HW281800  12.909   4.876  11.589
26635SOL     OW81801  10.542   1.600   1.398
26635SOL    HW181802  10.495   1.526   1.436
26635SOL    HW281803  10.563   1.571   1.309
26636SOL     OW81804   1.193   6.376   2.772
26636SOL    HW181805   1.227   6.442   2.711
26636SOL    HW281806   1.221   6.407   2.858
26637SOL     OW81807  10.400   2.863   1.039
26637SOL    HW181808  10.332   2.893   0.978
26637SOL    HW281809  10.454   2.941   1.056
26638SOL     OW81810   5.094  14.349   6.051
26638SOL    HW181811   5.078  14.309   5.966
26638SOL    HW281812   5.115  14.276   6.109
26639SOL     OW81813   3.091  11.329   7.056
26639SOL    HW181814   3.018  11.386   7.080
26639SOL    HW281815   3.060  11.241   7.077
26640SOL     OW81816   4.476   2.649   6.564
26640SOL    HW181817   4.436   2.654   6.477
26640SOL    HW281818   4.481   2.740   6.593
26641SOL     OW81819   9.477  13.410  12.414
26641SOL    HW181820   9.388  13.392  12.383
26641SOL    HW281821   9.531  13.405  12.335
26642SOL     OW81822  14.757  13.150   0.390
26642SOL    HW181823  14.814  13.119   0.320
26642SOL    HW281824  14.761  13.245   0.385
26643SOL     OW81825   0.670   9.511   1.722
26643SOL    HW181826   0.671   9.553   1.636
26643SOL    HW281827   0.663   9.584   1.783
26644SOL     OW81828  12.189  10.321  11.127
26644SOL    HW181829  12.264  10.345  11.073
26644SOL    HW281830  12.170  10.231  11.103
26645SOL     OW81831  11.688   8.602   0.755
26645SOL    HW181832  11.680   8.575   0.663
26645SOL    HW281833  11.693   8.698   0.751
26646SOL     OW81834   4.482  14.122  14.509
26646SOL    HW181835   4.561  14.169  14.536
26646SOL    HW281836   4.458  14.070  14.585
26647SOL     OW81837  11.938   7.771   1.674
26647SOL    HW181838  11.906   7.826   1.746
26647SOL    HW281839  11.859   7.745   1.627
26648SOL     OW81840   7.385  13.524   3.191
26648SOL    HW181841   7.468  13.536   3.146
26648SOL    HW281842   7.371  13.606   3.239
26649SOL     OW81843   5.640   2.224   4.200
26649SOL    HW181844   5.614   2.315   4.217
26649SOL    HW281845   5.731   2.220   4.231
26650SOL     OW81846  10.667   6.839   3.049
26650SOL    HW181847  10.599   6.782   3.013
26650SOL    HW281848  10.731   6.779   3.087
26651SOL     OW81849  14.642   8.689   1.634
26651SOL    HW181850  14.589   8.765   1.610
26651SOL    HW281851  14.593   8.648   1.706
26652SOL     OW81852   7.186   9.518  11.126
26652SOL    HW181853   7.268   9.529  11.174
26652SOL    HW281854   7.212   9.472  11.046
26653SOL     OW81855  12.211  11.549   2.240
26653SOL    HW181856  12.300  11.559   2.206
26653SOL    HW281857  12.208  11.459   2.272
26654SOL     OW81858  10.859  13.556   0.942
26654SOL    HW181859  10.951  13.530   0.930
26654SOL    HW281860  10.863  13.646   0.973
26655SOL     OW81861   5.461   9.082   1.504
26655SOL    HW181862   5.424   9.002   1.468
26655SOL    HW281863   5.474   9.063   1.597
26656SOL     OW81864   8.787   5.151   4.841
26656SOL    HW181865   8.763   5.204   4.917
26656SOL    HW281866   8.796   5.062   4.875
26657SOL     OW81867  14.594   0.205  11.469
26657SOL    HW181868  14.638   0.129  11.507
26657SOL    HW281869  14.577   0.180  11.378
26658SOL     OW81870   1.809   9.138   7.449
26658SOL    HW181871   1.834   9.051   7.482
26658SOL    HW281872   1.716   9.146   7.471
26659SOL     OW81873   7.210  12.017   5.907
26659SOL    HW181874   7.275  12.008   5.837
26659SOL    HW281875   7.257  11.990   5.987
26660SOL     OW81876   8.907   1.050   4.905
26660SOL    HW181877   8.987   1.091   4.872
26660SOL    HW281878   8.929   0.957   4.913
26661SOL     OW81879   7.675   3.407   9.758
26661SOL    HW181880   7.723   3.366   9.831
26661SOL    HW281881   7.742   3.421   9.691
26662SOL     OW81882  13.656  13.537  10.764
26662SOL    HW181883  13.698  13.454  10.787
26662SOL    HW281884  13.684  13.598  10.832
26663SOL     OW81885  13.865   6.890   5.225
26663SOL    HW181886  13.934   6.850   5.172
26663SOL    HW281887  13.791   6.898   5.166
26664SOL     OW81888   0.801   8.712   0.951
26664SOL    HW181889   0.889   8.697   0.916
26664SOL    HW281890   0.808   8.795   0.999
26665SOL     OW81891  14.096   1.233   2.976
26665SOL    HW181892  14.022   1.228   2.915
26665SOL    HW281893  14.056   1.249   3.061
26666SOL     OW81894   6.710   5.711   8.770
26666SOL    HW181895   6.625   5.694   8.810
26666SOL    HW281896   6.773   5.699   8.841
26667SOL     OW81897  10.182  13.556   1.249
26667SOL    HW181898  10.180  13.646   1.280
26667SOL    HW281899  10.185  13.564   1.154
26668SOL     OW81900   3.850   7.932  11.362
26668SOL    HW181901   3.846   8.019  11.402
26668SOL    HW281902   3.902   7.880  11.423
26669SOL     OW81903   6.897   6.585   1.510
26669SOL    HW181904   6.966   6.613   1.451
26669SOL    HW281905   6.907   6.642   1.587
26670SOL     OW81906   7.805  11.254   5.575
26670SOL    HW181907   7.822  11.162   5.593
26670SOL    HW281908   7.886  11.299   5.599
26671SOL     OW81909   6.957  12.037   1.314
26671SOL    HW181910   7.018  11.963   1.308
26671SOL    HW281911   6.892  12.019   1.245
26672SOL     OW81912   4.136  14.473   5.762
26672SOL    HW181913   4.044  14.499   5.763
26672SOL    HW281914   4.177  14.534   5.700
26673SOL     OW81915   2.594  11.468  10.927
26673SOL    HW181916   2.682  11.462  10.965
26673SOL    HW281917   2.537  11.430  10.994
26674SOL     OW81918   6.776  12.640  13.348
26674SOL    HW181919   6.687  12.673  13.352
26674SOL    HW281920   6.790  12.596  13.432
26675SOL     OW81921   5.932  10.956   4.147
26675SOL    HW181922   6.015  10.926   4.111
26675SOL    HW281923   5.948  11.047   4.172
26676SOL     OW81924   7.528   9.293  11.318
26676SOL    HW181925   7.561   9.210  11.283
26676SOL    HW281926   7.582   9.309  11.396
26677SOL     OW81927   4.237   4.009   2.022
26677SOL    HW181928   4.240   4.003   1.926
26677SOL    HW281929   4.304   3.947   2.052
26678SOL     OW81930  13.477   1.324  13.313
26678SOL    HW181931  13.391   1.283  13.325
26678SOL    HW281932  13.526   1.261  13.260
26679SOL     OW81933   8.089   7.308  13.078
26679SOL    HW181934   8.104   7.258  12.998
26679SOL    HW281935   8.057   7.393  13.048
26680SOL     OW81936  11.680   8.916  11.102
26680SOL    HW181937  11.699   8.952  11.015
26680SOL    HW281938  11.762   8.929  11.150
26681SOL     OW81939   7.971  12.561   6.826
26681SOL    HW181940   7.888  12.611   6.824
26681SOL    HW281941   8.039  12.629   6.828
26682SOL     OW81942   8.031   8.044  13.371
26682SOL    HW181943   8.058   8.125  13.326
26682SOL    HW281944   8.043   7.976  13.305
26683SOL     OW81945   4.586  12.213   7.597
26683SOL    HW181946   4.513  12.275   7.594
26683SOL    HW281947   4.655  12.254   7.545
26684SOL     OW81948  11.700   4.887   6.605
26684SOL    HW181949  11.778   4.899   6.551
26684SOL    HW281950  11.683   4.973   6.642
26685SOL     OW81951   1.356   3.378   1.583
26685SOL    HW181952   1.341   3.348   1.493
26685SOL    HW281953   1.354   3.298   1.635
26686SOL     OW81954   4.912  10.852   2.080
26686SOL    HW181955   4.990  10.876   2.130
26686SOL    HW281956   4.906  10.757   2.088
26687SOL     OW81957   6.707   2.669  11.946
26687SOL    HW181958   6.685   2.669  11.853
26687SOL    HW281959   6.649   2.735  11.985
26688SOL     OW81960   6.850   6.596   1.997
26688SOL    HW181961   6.781   6.556   1.943
26688SOL    HW281962   6.904   6.522   2.025
26689SOL     OW81963  11.407  13.514  10.824
26689SOL    HW181964  11.469  13.579  10.857
26689SOL    HW281965  11.323  13.559  10.823
26690SOL     OW81966  14.103   1.466  12.372
26690SOL    HW181967  14.079   1.504  12.287
26690SOL    HW281968  14.102   1.540  12.433
26691SOL     OW81969   5.114  13.491   6.835
26691SOL    HW181970   5.055  13.531   6.771
26691SOL    HW281971   5.057  13.458   6.904
26692SOL     OW81972  14.454  11.692  11.173
26692SOL    HW181973  14.494  11.759  11.227
26692SOL    HW281974  14.516  11.679  11.101
26693SOL     OW81975  12.481   3.862  11.251
26693SOL    HW181976  12.508   3.942  11.296
26693SOL    HW281977  12.399   3.837  11.295
26694SOL     OW81978   9.497   4.937   5.226
26694SOL    HW181979   9.522   4.918   5.136
26694SOL    HW281980   9.404   4.959   5.221
26695SOL     OW81981  10.536  12.051   8.990
26695SOL    HW181982  10.591  12.128   8.980
26695SOL    HW281983  10.458  12.083   9.036
26696SOL     OW81984   8.511   2.372   1.271
26696SOL    HW181985   8.582   2.384   1.208
26696SOL    HW281986   8.553   2.383   1.356
26697SOL     OW81987   0.487   4.575   0.071
26697SOL    HW181988   0.456   4.646   0.126
26697SOL    HW281989   0.563   4.539   0.118
26698SOL     OW81990  11.748   2.390   8.465
26698SOL    HW181991  11.678   2.333   8.497
26698SOL    HW281992  11.715   2.479   8.476
26699SOL     OW81993   9.915   4.471   1.217
26699SOL    HW181994   9.896   4.544   1.275
26699SOL    HW281995  10.003   4.442   1.242
26700SOL     OW81996   3.299   9.892   5.887
26700SOL    HW181997   3.358   9.935   5.948
26700SOL    HW281998   3.318   9.934   5.803
26701SOL     OW81999  11.890   5.186   0.207
26701SOL    HW182000  11.805   5.212   0.242
26701SOL    HW282001  11.910   5.103   0.250
26702SOL     OW82002  12.783  10.474   5.495
26702SOL    HW182003  12.773  10.568   5.506
26702SOL    HW282004  12.768  10.459   5.401
26703SOL     OW82005  10.089  12.943  12.749
26703SOL    HW182006  10.047  12.876  12.802
26703SOL    HW282007  10.017  12.995  12.714
26704SOL     OW82008   5.771  12.424  13.006
26704SOL    HW182009   5.860  12.456  13.022
26704SOL    HW282010   5.715  12.500  13.021
26705SOL     OW82011   3.913  10.331  10.073
26705SOL    HW182012   3.900  10.267  10.004
26705SOL    HW282013   3.891  10.415  10.033
26706SOL     OW82014  11.869  10.827   7.395
26706SOL    HW182015  11.861  10.922   7.406
26706SOL    HW282016  11.911  10.798   7.476
26707SOL     OW82017  12.429   1.396   2.628
26707SOL    HW182018  12.419   1.488   2.652
26707SOL    HW282019  12.430   1.396   2.532
26708SOL     OW82020   9.805   7.865  10.918
26708SOL    HW182021   9.855   7.855  10.837
26708SOL    HW282022   9.714   7.866  10.890
26709SOL     OW82023   6.335   4.199  11.776
26709SOL    HW182024   6.257   4.182  11.722
26709SOL    HW282025   6.407   4.205  11.713
26710SOL     OW82026   3.843   4.455  11.145
26710SOL    HW182027   3.760   4.501  11.144
26710SOL    HW282028   3.901   4.510  11.196
26711SOL     OW82029  13.093  10.550   5.579
26711SOL    HW182030  13.154  10.558   5.652
26711SOL    HW282031  13.032  10.481   5.606
26712SOL     OW82032   1.989   1.685  10.152
26712SOL    HW182033   1.911   1.635  10.176
26712SOL    HW282034   1.958   1.750  10.089
26713SOL     OW82035  10.171  10.275  12.388
26713SOL    HW182036  10.140  10.187  12.365
26713SOL    HW282037  10.222  10.262  12.468
26714SOL     OW82038  10.123  10.995   2.916
26714SOL    HW182039  10.050  10.936   2.936
26714SOL    HW282040  10.104  11.028   2.828
26715SOL     OW82041   1.660   3.460  12.589
26715SOL    HW182042   1.737   3.404  12.581
26715SOL    HW282043   1.670   3.502  12.674
26716SOL     OW82044  11.088   4.722   6.767
26716SOL    HW182045  11.170   4.698   6.724
26716SOL    HW282046  11.113   4.753   6.853
26717SOL     OW82047  10.959   3.994   1.391
26717SOL    HW182048  11.036   4.006   1.446
26717SOL    HW282049  10.977   3.914   1.341
26718SOL     OW82050  11.196   1.395   8.216
26718SOL    HW182051  11.161   1.479   8.186
26718SOL    HW282052  11.118   1.340   8.229
26719SOL     OW82053  13.739  14.101   8.855
26719SOL    HW182054  13.658  14.096   8.906
26719SOL    HW282055  13.807  14.077   8.917
26720SOL     OW82056  14.261   8.927   9.727
26720SOL    HW182057  14.280   9.020   9.724
26720SOL    HW282058  14.212   8.915   9.808
26721SOL     OW82059   9.019   9.431   2.732
26721SOL    HW182060   9.098   9.425   2.787
26721SOL    HW282061   8.952   9.386   2.782
26722SOL     OW82062   7.218   2.403   5.142
26722SOL    HW182063   7.267   2.423   5.222
26722SOL    HW282064   7.174   2.484   5.120
26723SOL     OW82065  12.141   9.309   9.512
26723SOL    HW182066  12.052   9.344   9.515
26723SOL    HW282067  12.174   9.321   9.601
26724SOL     OW82068   2.887   7.043   3.666
26724SOL    HW182069   2.872   6.956   3.629
26724SOL    HW282070   2.968   7.034   3.716
26725SOL     OW82071   0.416  14.536   3.478
26725SOL    HW182072   0.465  14.609   3.515
26725SOL    HW282073   0.366  14.500   3.551
26726SOL     OW82074   0.595  12.522   9.915
26726SOL    HW182075   0.656  12.588   9.884
26726SOL    HW282076   0.523  12.572   9.953
26727SOL     OW82077   9.125   8.685   0.355
26727SOL    HW182078   9.072   8.643   0.287
26727SOL    HW282079   9.160   8.613   0.406
26728SOL     OW82080   5.425   1.759   1.945
26728SOL    HW182081   5.446   1.665   1.948
26728SOL    HW282082   5.498   1.801   1.990
26729SOL     OW82083   5.685   7.158   5.134
26729SOL    HW182084   5.628   7.235   5.131
26729SOL    HW282085   5.718   7.149   5.045
26730SOL     OW82086  12.988   5.413   6.744
26730SOL    HW182087  12.948   5.394   6.829
26730SOL    HW282088  13.074   5.450   6.766
26731SOL     OW82089  12.060  10.022  12.654
26731SOL    HW182090  12.050  10.093  12.591
26731SOL    HW282091  11.971   9.988  12.666
26732SOL     OW82092  13.987   8.910   5.295
26732SOL    HW182093  13.916   8.930   5.235
26732SOL    HW282094  14.036   8.992   5.303
26733SOL     OW82095   9.474   1.545  11.324
26733SOL    HW182096   9.391   1.516  11.287
26733SOL    HW282097   9.532   1.469  11.315
26734SOL     OW82098   0.529   9.851   9.633
26734SOL    HW182099   0.498   9.791   9.565
26734SOL    HW282100   0.485   9.822   9.713
26735SOL     OW82101   8.468   8.567   4.328
26735SOL    HW182102   8.520   8.644   4.306
26735SOL    HW282103   8.534   8.497   4.340
26736SOL     OW82104   9.762   9.881  12.676
26736SOL    HW182105   9.767   9.799  12.625
26736SOL    HW282106   9.673   9.881  12.712
26737SOL     OW82107   4.709   8.120   0.457
26737SOL    HW182108   4.636   8.180   0.443
26737SOL    HW282109   4.759   8.123   0.375
26738SOL     OW82110   8.915   1.132   0.211
26738SOL    HW182111   8.912   1.160   0.303
26738SOL    HW282112   9.009   1.125   0.192
26739SOL     OW82113   7.081  12.519   6.717
26739SOL    HW182114   7.034  12.442   6.685
26739SOL    HW282115   7.122  12.558   6.640
26740SOL     OW82116  13.755  13.922  14.701
26740SOL    HW182117  13.836  13.918  14.752
26740SOL    HW282118  13.779  13.974  14.623
26741SOL     OW82119  11.180   5.906   1.541
26741SOL    HW182120  11.194   5.817   1.510
26741SOL    HW282121  11.104   5.899   1.600
26742SOL     OW82122   7.149  11.908   3.145
26742SOL    HW182123   7.235  11.947   3.133
26742SOL    HW282124   7.156  11.820   3.109
26743SOL     OW82125  10.302  12.649   1.318
26743SOL    HW182126  10.300  12.553   1.314
26743SOL    HW282127  10.374  12.669   1.378
26744SOL     OW82128   2.055  12.327   7.201
26744SOL    HW182129   1.971  12.359   7.169
26744SOL    HW282130   2.070  12.246   7.152
26745SOL     OW82131  14.723   6.781   9.655
26745SOL    HW182132  14.812   6.783   9.620
26745SOL    HW282133  14.668   6.811   9.582
26746SOL     OW82134   4.837  13.340  11.780
26746SOL    HW182135   4.864  13.412  11.837
26746SOL    HW282136   4.790  13.382  11.708
26747SOL     OW82137  12.459  11.799   1.156
26747SOL    HW182138  12.487  11.741   1.085
26747SOL    HW282139  12.507  11.768   1.233
26748SOL     OW82140   2.667  14.631   4.670
26748SOL    HW182141   2.689  14.615   4.761
26748SOL    HW282142   2.609  14.707   4.671
26749SOL     OW82143   3.066   1.671  13.879
26749SOL    HW182144   3.047   1.606  13.811
26749SOL    HW282145   3.068   1.754  13.832
26750SOL     OW82146   1.169  11.985   3.773
26750SOL    HW182147   1.221  11.947   3.844
26750SOL    HW282148   1.216  12.066   3.751
26751SOL     OW82149   6.759  13.764   2.015
26751SOL    HW182150   6.760  13.775   1.920
26751SOL    HW282151   6.797  13.845   2.049
26752SOL     OW82152   1.603  14.562   8.398
26752SOL    HW182153   1.547  14.627   8.356
26752SOL    HW282154   1.683  14.609   8.420
26753SOL     OW82155   5.082  13.361  12.813
26753SOL    HW182156   5.054  13.452  12.828
26753SOL    HW282157   5.148  13.345  12.881
26754SOL     OW82158   8.717   0.147  10.643
26754SOL    HW182159   8.648   0.095  10.685
26754SOL    HW282160   8.728   0.222  10.700
26755SOL     OW82161   2.861   7.658  12.427
26755SOL    HW182162   2.846   7.697  12.341
26755SOL    HW282163   2.845   7.729  12.489
26756SOL     OW82164   3.620   1.040  11.362
26756SOL    HW182165   3.629   1.105  11.293
26756SOL    HW282166   3.580   0.964  11.319
26757SOL     OW82167   6.853  12.919   7.417
26757SOL    HW182168   6.869  12.826   7.435
26757SOL    HW282169   6.865  12.962   7.502
26758SOL     OW82170  10.187   0.899   6.127
26758SOL    HW182171  10.274   0.938   6.136
26758SOL    HW282172  10.180   0.837   6.199
26759SOL     OW82173   2.036  13.155   8.215
26759SOL    HW182174   2.099  13.220   8.244
26759SOL    HW282175   2.003  13.115   8.296
26760SOL     OW82176  12.022   0.271   4.653
26760SOL    HW182177  12.066   0.186   4.660
26760SOL    HW282178  12.042   0.302   4.565
26761SOL     OW82179   0.226   9.253   5.680
26761SOL    HW182180   0.286   9.247   5.605
26761SOL    HW282181   0.199   9.345   5.681
26762SOL     OW82182  10.791   9.185   5.474
26762SOL    HW182183  10.709   9.169   5.429
26762SOL    HW282184  10.794   9.120   5.544
26763SOL     OW82185   6.943   7.001  12.737
26763SOL    HW182186   6.980   7.047  12.661
26763SOL    HW282187   6.854   6.979  12.711
26764SOL     OW82188  10.488  11.476   2.241
26764SOL    HW182189  10.395  11.452   2.249
26764SOL    HW282190  10.520  11.478   2.331
26765SOL     OW82191   8.973   3.323   8.371
26765SOL    HW182192   9.045   3.370   8.330
26765SOL    HW282193   8.953   3.252   8.310
26766SOL     OW82194  11.750   5.532   2.304
26766SOL    HW182195  11.704   5.568   2.228
26766SOL    HW282196  11.690   5.547   2.377
26767SOL     OW82197   0.170  12.744   2.307
26767SOL    HW182198   0.160  12.649   2.306
26767SOL    HW282199   0.085  12.777   2.277
26768SOL     OW82200   6.409   7.955   6.351
26768SOL    HW182201   6.462   8.035   6.346
26768SOL    HW282202   6.324   7.981   6.316
26769SOL     OW82203   3.460  13.475   7.304
26769SOL    HW182204   3.480  13.384   7.326
26769SOL    HW282205   3.367  13.484   7.324
26770SOL     OW82206  13.977   1.679  13.426
26770SOL    HW182207  13.898   1.655  13.474
26770SOL    HW282208  13.950   1.750  13.368
26771SOL     OW82209  10.020   8.582  11.654
26771SOL    HW182210   9.929   8.586  11.682
26771SOL    HW282211  10.042   8.489  11.658
26772SOL     OW82212   7.011   2.179  11.031
26772SOL    HW182213   7.014   2.149  10.940
26772SOL    HW282214   6.998   2.099  11.082
26773SOL     OW82215   2.172  13.575   4.301
26773SOL    HW182216   2.246  13.567   4.240
26773SOL    HW282217   2.112  13.635   4.258
26774SOL     OW82218   3.213   2.312  12.060
26774SOL    HW182219   3.308   2.304  12.071
26774SOL    HW282220   3.202   2.377  11.991
26775SOL     OW82221   9.214   8.752  12.479
26775SOL    HW182222   9.149   8.682  12.473
26775SOL    HW282223   9.257   8.737  12.564
26776SOL     OW82224  13.386   6.928  13.402
26776SOL    HW182225  13.382   6.917  13.307
26776SOL    HW282226  13.337   6.853  13.436
26777SOL     OW82227   0.753  10.315   1.849
26777SOL    HW182228   0.692  10.241   1.853
26777SOL    HW282229   0.809  10.296   1.774
26778SOL     OW82230   0.621  12.571   8.397
26778SOL    HW182231   0.642  12.608   8.312
26778SOL    HW282232   0.633  12.477   8.386
26779SOL     OW82233  12.792  12.817   3.889
26779SOL    HW182234  12.870  12.850   3.933
26779SOL    HW282235  12.721  12.826   3.952
26780SOL     OW82236  12.305  12.000  10.173
26780SOL    HW182237  12.222  12.028  10.212
26780SOL    HW282238  12.287  11.914  10.137
26781SOL     OW82239   6.122   7.680  11.988
26781SOL    HW182240   6.166   7.741  11.929
26781SOL    HW282241   6.078   7.736  12.052
26782SOL     OW82242   2.565   7.388   2.735
26782SOL    HW182243   2.534   7.449   2.802
26782SOL    HW282244   2.610   7.319   2.784
26783SOL     OW82245   3.476  14.782   7.436
26783SOL    HW182246   3.410  14.727   7.395
26783SOL    HW282247   3.556  14.766   7.385
26784SOL     OW82248   4.009   6.196   7.764
26784SOL    HW182249   4.023   6.108   7.729
26784SOL    HW282250   4.050   6.254   7.701
26785SOL     OW82251   1.023   8.035   3.400
26785SOL    HW182252   1.061   8.121   3.382
26785SOL    HW282253   1.007   7.998   3.313
26786SOL     OW82254   1.871  12.873   2.728
26786SOL    HW182255   1.934  12.804   2.708
26786SOL    HW282256   1.785  12.833   2.713
26787SOL     OW82257  11.176   4.415   8.160
26787SOL    HW182258  11.214   4.332   8.132
26787SOL    HW282259  11.134   4.395   8.244
26788SOL     OW82260  12.401  11.169   8.716
26788SOL    HW182261  12.307  11.167   8.699
26788SOL    HW282262  12.415  11.250   8.766
26789SOL     OW82263   2.949   5.196  13.153
26789SOL    HW182264   2.998   5.271  13.188
26789SOL    HW282265   2.915   5.152  13.231
26790SOL     OW82266   6.765   5.799   4.899
26790SOL    HW182267   6.817   5.767   4.973
26790SOL    HW282268   6.692   5.847   4.940
26791SOL     OW82269  12.686   2.994  12.361
26791SOL    HW182270  12.747   2.921  12.366
26791SOL    HW282271  12.674   3.023  12.451
26792SOL     OW82272  13.862   3.094  10.326
26792SOL    HW182273  13.837   3.074  10.416
26792SOL    HW282274  13.949   3.056  10.316
26793SOL     OW82275  11.579  13.916  13.116
26793SOL    HW182276  11.557  13.823  13.108
26793SOL    HW282277  11.670  13.916  13.146
26794SOL     OW82278   7.681   2.994   7.517
26794SOL    HW182279   7.755   2.988   7.578
26794SOL    HW282280   7.604   2.998   7.573
26795SOL     OW82281   1.551  14.867   4.118
26795SOL    HW182282   1.638  14.879   4.080
26795SOL    HW282283   1.503   0.064   4.092
26796SOL     OW82284   2.383  12.677   8.164
26796SOL    HW182285   2.316  12.622   8.205
26796SOL    HW282286   2.394  12.640   8.077
26797SOL     OW82287   6.281   3.665  12.205
26797SOL    HW182288   6.355   3.726  12.212
26797SOL    HW282289   6.322   3.579  12.195
26798SOL     OW82290   6.578  14.379   9.199
26798SOL    HW182291   6.496  14.330   9.193
26798SOL    HW282292   6.565  14.439   9.272
26799SOL     OW82293   4.314   2.649   8.791
26799SOL    HW182294   4.231   2.663   8.838
26799SOL    HW282295   4.372   2.612   8.858
26800SOL     OW82296   0.778  10.335   8.736
26800SOL    HW182297   0.743  10.424   8.731
26800SOL    HW282298   0.822  10.331   8.820
26801SOL     OW82299   6.845   1.405   4.258
26801SOL    HW182300   6.767   1.425   4.309
26801SOL    HW282301   6.897   1.486   4.260
26802SOL     OW82302  13.892  14.494   6.762
26802SOL    HW182303  13.928  14.575   6.727
26802SOL    HW282304  13.799  14.513   6.777
26803SOL     OW82305   1.058   5.415  11.368
26803SOL    HW182306   0.968   5.390  11.389
26803SOL    HW282307   1.072   5.496  11.418
26804SOL     OW82308   4.368  14.418   4.133
26804SOL    HW182309   4.435  14.411   4.066
26804SOL    HW282310   4.358  14.328   4.166
26805SOL     OW82311  10.448  10.179   5.709
26805SOL    HW182312  10.441  10.243   5.638
26805SOL    HW282313  10.455  10.094   5.665
26806SOL     OW82314  11.747  13.678  14.258
26806SOL    HW182315  11.768  13.726  14.178
26806SOL    HW282316  11.812  13.707  14.322
26807SOL     OW82317   0.835   0.111  12.554
26807SOL    HW182318   0.927   0.113  12.582
26807SOL    HW282319   0.830   0.177  12.484
26808SOL     OW82320   2.761   9.011  10.101
26808SOL    HW182321   2.851   9.028  10.076
26808SOL    HW282322   2.710   9.022  10.021
26809SOL     OW82323   3.584   8.536  14.402
26809SOL    HW182324   3.491   8.524  14.383
26809SOL    HW282325   3.617   8.588  14.329
26810SOL     OW82326  11.241  10.110   3.369
26810SOL    HW182327  11.212  10.091   3.280
26810SOL    HW282328  11.280  10.028   3.399
26811SOL     OW82329   4.636   8.729   3.307
26811SOL    HW182330   4.632   8.734   3.211
26811SOL    HW282331   4.634   8.636   3.326
26812SOL     OW82332   5.551  14.633   9.009
26812SOL    HW182333   5.466  14.611   8.972
26812SOL    HW282334   5.613  14.580   8.958
26813SOL     OW82335  11.782   5.701   5.817
26813SOL    HW182336  11.761   5.658   5.900
26813SOL    HW282337  11.868   5.667   5.792
26814SOL     OW82338  14.282  12.416   1.463
26814SOL    HW182339  14.296  12.510   1.458
26814SOL    HW282340  14.308  12.383   1.378
26815SOL     OW82341   7.466   3.868   5.757
26815SOL    HW182342   7.487   3.908   5.672
26815SOL    HW282343   7.389   3.916   5.787
26816SOL     OW82344  13.617   2.558  14.337
26816SOL    HW182345  13.673   2.561  14.415
26816SOL    HW282346  13.668   2.601  14.269
26817SOL     OW82347   4.174  14.503   7.487
26817SOL    HW182348   4.248  14.464   7.534
26817SOL    HW282349   4.098  14.456   7.522
26818SOL     OW82350   7.087   4.637   2.836
26818SOL    HW182351   7.024   4.688   2.784
26818SOL    HW282352   7.172   4.674   2.813
26819SOL     OW82353   1.000  14.409   1.302
26819SOL    HW182354   1.057  14.478   1.267
26819SOL    HW282355   0.960  14.448   1.380
26820SOL     OW82356  11.622  11.174   4.619
26820SOL    HW182357  11.545  11.204   4.573
26820SOL    HW282358  11.588  11.115   4.687
26821SOL     OW82359  14.356   6.965   4.198
26821SOL    HW182360  14.378   7.058   4.203
26821SOL    HW282361  14.344   6.949   4.105
26822SOL     OW82362  10.032   0.658   4.427
26822SOL    HW182363   9.949   0.611   4.436
26822SOL    HW282364  10.007   0.750   4.424
26823SOL     OW82365  11.841  12.799  10.477
26823SOL    HW182366  11.801  12.793  10.390
26823SOL    HW282367  11.929  12.832  10.461
26824SOL     OW82368   6.984   4.000  14.664
26824SOL    HW182369   7.066   3.954  14.643
26824SOL    HW282370   6.917   3.951  14.618
26825SOL     OW82371   2.017   3.586   1.547
26825SOL    HW182372   2.076   3.561   1.618
26825SOL    HW282373   2.063   3.558   1.467
26826SOL     OW82374   0.354   3.290  12.150
26826SOL    HW182375   0.383   3.379  12.172
26826SOL    HW282376   0.431   3.248  12.113
26827SOL     OW82377   1.161  12.213  14.063
26827SOL    HW182378   1.170  12.288  14.123
26827SOL    HW282379   1.217  12.146  14.102
26828SOL     OW82380  10.807  13.477   6.899
26828SOL    HW182381  10.755  13.449   6.823
26828SOL    HW282382  10.763  13.556   6.931
26829SOL     OW82383  14.721   4.382   4.511
26829SOL    HW182384  14.678   4.297   4.517
26829SOL    HW282385  14.809   4.363   4.481
26830SOL     OW82386   9.516   3.724   6.551
26830SOL    HW182387   9.597   3.751   6.594
26830SOL    HW282388   9.513   3.777   6.471
26831SOL     OW82389  14.371   7.885   5.419
26831SOL    HW182390  14.370   7.920   5.330
26831SOL    HW282391  14.396   7.959   5.474
26832SOL     OW82392  14.598   4.563   4.332
26832SOL    HW182393  14.633   4.504   4.399
26832SOL    HW282394  14.590   4.508   4.254
26833SOL     OW82395  14.570   6.367   0.623
26833SOL    HW182396  14.649   6.391   0.574
26833SOL    HW282397  14.555   6.275   0.600
26834SOL     OW82398   8.691  14.223   3.850
26834SOL    HW182399   8.745  14.210   3.928
26834SOL    HW282400   8.735  14.292   3.802
26835SOL     OW82401   0.031   6.240   7.360
26835SOL    HW182402   0.070   6.296   7.292
26835SOL    HW282403   0.027   6.296   7.438
26836SOL     OW82404   0.745   8.709   6.157
26836SOL    HW182405   0.784   8.622   6.165
26836SOL    HW282406   0.668   8.706   6.214
26837SOL     OW82407   0.976  14.544   0.426
26837SOL    HW182408   1.032  14.469   0.442
26837SOL    HW282409   1.002  14.575   0.339
26838SOL     OW82410  13.729   2.116   2.022
26838SOL    HW182411  13.766   2.114   2.111
26838SOL    HW282412  13.685   2.200   2.016
26839SOL     OW82413  11.073   3.534   2.031
26839SOL    HW182414  11.138   3.577   1.976
26839SOL    HW282415  11.121   3.513   2.111
26840SOL     OW82416   1.963   8.347  12.290
26840SOL    HW182417   1.930   8.380  12.207
26840SOL    HW282418   2.036   8.405  12.312
26841SOL     OW82419   0.582  12.852   9.353
26841SOL    HW182420   0.657  12.871   9.409
26841SOL    HW282421   0.537  12.780   9.396
26842SOL     OW82422   3.974  13.307  10.759
26842SOL    HW182423   4.062  13.332  10.787
26842SOL    HW282424   3.982  13.214  10.735
26843SOL     OW82425   0.027   4.784   1.823
26843SOL    HW182426  14.854   4.727   1.875
26843SOL    HW282427  14.871   4.871   1.834
26844SOL     OW82428   5.161   1.107  13.835
26844SOL    HW182429   5.167   1.166  13.911
26844SOL    HW282430   5.250   1.073  13.825
26845SOL     OW82431   5.777  12.147   9.909
26845SOL    HW182432   5.698  12.183   9.868
26845SOL    HW282433   5.793  12.065   9.863
26846SOL     OW82434   1.184  13.563  13.791
26846SOL    HW182435   1.217  13.639  13.839
26846SOL    HW282436   1.089  13.570  13.799
26847SOL     OW82437   4.098   7.293   4.009
26847SOL    HW182438   4.031   7.252   4.063
26847SOL    HW282439   4.177   7.290   4.063
26848SOL     OW82440  10.475   5.375  14.647
26848SOL    HW182441  10.521   5.307  14.598
26848SOL    HW282442  10.541   5.410  14.708
26849SOL     OW82443  14.036  11.607  10.663
26849SOL    HW182444  14.017  11.694  10.697
26849SOL    HW282445  14.012  11.548  10.734
26850SOL     OW82446   8.180   9.796  11.835
26850SOL    HW182447   8.104   9.778  11.779
26850SOL    HW282448   8.251   9.815  11.773
26851SOL     OW82449  11.997   1.203  14.753
26851SOL    HW182450  12.080   1.229  14.712
26851SOL    HW282451  12.023   1.140  14.820
26852SOL     OW82452   9.706   1.720  10.281
26852SOL    HW182453   9.662   1.764  10.354
26852SOL    HW282454   9.717   1.788  10.215
26853SOL     OW82455   6.195  11.200   1.149
26853SOL    HW182456   6.183  11.109   1.122
26853SOL    HW282457   6.116  11.220   1.200
26854SOL     OW82458   9.940   0.117   5.927
26854SOL    HW182459  10.024   0.092   5.965
26854SOL    HW282460   9.962   0.183   5.861
26855SOL     OW82461   7.338   2.816   6.299
26855SOL    HW182462   7.270   2.848   6.358
26855SOL    HW282463   7.297   2.741   6.254
26856SOL     OW82464  10.321   7.167   9.823
26856SOL    HW182465  10.279   7.218   9.891
26856SOL    HW282466  10.279   7.196   9.742
26857SOL     OW82467  12.537   8.747  12.545
26857SOL    HW182468  12.618   8.749  12.494
26857SOL    HW282469  12.474   8.797  12.493
26858SOL     OW82470   8.270   1.481   9.197
26858SOL    HW182471   8.214   1.473   9.120
26858SOL    HW282472   8.277   1.575   9.213
26859SOL     OW82473   8.325   7.910  12.115
26859SOL    HW182474   8.284   7.994  12.095
26859SOL    HW282475   8.293   7.851  12.047
26860SOL     OW82476  14.132   0.994   9.058
26860SOL    HW182477  14.070   1.052   9.101
26860SOL    HW282478  14.081   0.950   8.990
26861SOL     OW82479   4.301   6.065  14.509
26861SOL    HW182480   4.242   6.119  14.457
26861SOL    HW282481   4.315   5.986  14.457
26862SOL     OW82482   3.868  12.218   9.744
26862SOL    HW182483   3.851  12.231   9.837
26862SOL    HW282484   3.865  12.123   9.731
26863SOL     OW82485   9.168   1.536   3.596
26863SOL    HW182486   9.152   1.442   3.603
26863SOL    HW282487   9.100   1.569   3.538
26864SOL     OW82488   1.925  12.550   5.234
26864SOL    HW182489   1.925  12.549   5.138
26864SOL    HW282490   2.011  12.583   5.258
26865SOL     OW82491  11.656   9.875   6.923
26865SOL    HW182492  11.696   9.875   7.009
26865SOL    HW282493  11.702   9.807   6.874
26866SOL     OW82494   8.841   6.848   4.117
26866SOL    HW182495   8.817   6.938   4.139
26866SOL    HW282496   8.902   6.822   4.185
26867SOL     OW82497   1.743  14.430   4.976
26867SOL    HW182498   1.771  14.339   4.969
26867SOL    HW282499   1.822  14.477   5.003
26868SOL     OW82500   8.662  10.895   4.793
26868SOL    HW182501   8.688  10.900   4.701
26868SOL    HW282502   8.698  10.812   4.824
26869SOL     OW82503  13.634   0.007   5.170
26869SOL    HW182504  13.650   0.089   5.122
26869SOL    HW282505  13.615  14.825   5.102
26870SOL     OW82506   7.767   3.983   1.946
26870SOL    HW182507   7.720   3.904   1.920
26870SOL    HW282508   7.749   4.046   1.876
26871SOL     OW82509   5.947  10.264   3.338
26871SOL    HW182510   6.031  10.277   3.294
26871SOL    HW282511   5.906  10.193   3.290
26872SOL     OW82512  10.763   2.704   1.609
26872SOL    HW182513  10.754   2.706   1.514
26872SOL    HW282514  10.751   2.612   1.633
26873SOL     OW82515  10.214   6.821  10.636
26873SOL    HW182516  10.308   6.818  10.654
26873SOL    HW282517  10.178   6.875  10.706
26874SOL     OW82518   8.243   5.825   8.541
26874SOL    HW182519   8.194   5.906   8.527
26874SOL    HW282520   8.207   5.789   8.622
26875SOL     OW82521  12.561   0.573   7.016
26875SOL    HW182522  12.647   0.614   7.024
26875SOL    HW282523  12.521   0.613   6.939
26876SOL     OW82524   4.387  11.547   4.412
26876SOL    HW182525   4.315  11.499   4.452
26876SOL    HW282526   4.357  11.638   4.408
26877SOL     OW82527  13.209   8.897  11.253
26877SOL    HW182528  13.204   8.918  11.160
26877SOL    HW282529  13.120   8.871  11.277
26878SOL     OW82530  12.054   8.388  10.160
26878SOL    HW182531  11.979   8.420  10.110
26878SOL    HW282532  12.114   8.461  10.163
26879SOL     OW82533  11.998   2.855   5.031
26879SOL    HW182534  12.017   2.943   4.997
26879SOL    HW282535  12.082   2.825   5.068
26880SOL     OW82536   0.958   9.974   9.064
26880SOL    HW182537   0.996   9.902   9.114
26880SOL    HW282538   0.889   9.934   9.012
26881SOL     OW82539  14.028  11.969   8.012
26881SOL    HW182540  14.056  11.969   7.920
26881SOL    HW282541  13.964  11.899   8.018
26882SOL     OW82542   4.219   1.363   4.481
26882SOL    HW182543   4.232   1.433   4.544
26882SOL    HW282544   4.136   1.322   4.505
26883SOL     OW82545  14.203   1.527   2.334
26883SOL    HW182546  14.141   1.498   2.400
26883SOL    HW282547  14.284   1.543   2.382
26884SOL     OW82548  10.594   2.352   0.415
26884SOL    HW182549  10.594   2.436   0.459
26884SOL    HW282550  10.613   2.288   0.484
26885SOL     OW82551  13.740  13.448   2.355
26885SOL    HW182552  13.700  13.364   2.335
26885SOL    HW282553  13.669  13.512   2.351
26886SOL     OW82554  12.201  13.527   2.582
26886SOL    HW182555  12.155  13.492   2.505
26886SOL    HW282556  12.243  13.451   2.621
26887SOL     OW82557  14.624   8.368   0.181
26887SOL    HW182558  14.569   8.304   0.136
26887SOL    HW282559  14.685   8.399   0.114
26888SOL     OW82560   6.663   3.497   2.725
26888SOL    HW182561   6.678   3.548   2.645
26888SOL    HW282562   6.632   3.561   2.789
26889SOL     OW82563   6.396   5.606   8.482
26889SOL    HW182564   6.416   5.698   8.463
26889SOL    HW282565   6.340   5.577   8.410
26890SOL     OW82566   2.947   5.401   2.857
26890SOL    HW182567   2.895   5.356   2.924
26890SOL    HW282568   2.925   5.357   2.775
26891SOL     OW82569   2.564   7.187   5.417
26891SOL    HW182570   2.574   7.274   5.455
26891SOL    HW282571   2.523   7.135   5.486
26892SOL     OW82572  13.036   9.180   1.581
26892SOL    HW182573  12.958   9.145   1.625
26892SOL    HW282574  13.012   9.271   1.560
26893SOL     OW82575   2.667   1.142   4.748
26893SOL    HW182576   2.690   1.172   4.660
26893SOL    HW282577   2.580   1.178   4.764
26894SOL     OW82578  13.662  11.323   2.731
26894SOL    HW182579  13.625  11.409   2.750
26894SOL    HW282580  13.607  11.262   2.780
26895SOL     OW82581   1.847   0.771  14.376
26895SOL    HW182582   1.793   0.702  14.414
26895SOL    HW282583   1.786   0.842  14.358
26896SOL     OW82584   5.752   6.635   3.712
26896SOL    HW182585   5.682   6.641   3.648
26896SOL    HW282586   5.717   6.679   3.790
26897SOL     OW82587   2.063   0.440   9.640
26897SOL    HW182588   2.057   0.447   9.735
26897SOL    HW282589   2.005   0.508   9.607
26898SOL     OW82590  12.906   9.400  13.600
26898SOL    HW182591  12.982   9.415  13.656
26898SOL    HW282592  12.941   9.398  13.511
26899SOL     OW82593  13.131   8.704  10.823
26899SOL    HW182594  13.133   8.626  10.880
26899SOL    HW282595  13.194   8.685  10.754
26900SOL     OW82596   5.404  12.515   4.481
26900SOL    HW182597   5.318  12.557   4.491
26900SOL    HW282598   5.395  12.458   4.405
26901SOL     OW82599  12.230   6.095  14.460
26901SOL    HW182600  12.270   6.121  14.543
26901SOL    HW282601  12.169   6.166  14.440
26902SOL     OW82602   8.807  11.296  12.762
26902SOL    HW182603   8.833  11.277  12.672
26902SOL    HW282604   8.822  11.390  12.772
26903SOL     OW82605   7.769   0.772   6.948
26903SOL    HW182606   7.851   0.781   6.899
26903SOL    HW282607   7.788   0.811   7.034
26904SOL     OW82608   8.413   6.101  13.778
26904SOL    HW182609   8.320   6.117  13.791
26904SOL    HW282610   8.452   6.189  13.775
26905SOL     OW82611   0.756   9.623   9.952
26905SOL    HW182612   0.747   9.686  10.023
26905SOL    HW282613   0.680   9.566   9.960
26906SOL     OW82614   2.104  12.987   5.685
26906SOL    HW182615   2.121  12.894   5.699
26906SOL    HW282616   2.187  13.022   5.652
26907SOL     OW82617   0.611   1.819   0.573
26907SOL    HW182618   0.607   1.780   0.660
26907SOL    HW282619   0.566   1.757   0.516
26908SOL     OW82620   5.824   4.110   0.937
26908SOL    HW182621   5.828   4.078   1.027
26908SOL    HW282622   5.744   4.070   0.902
26909SOL     OW82623  10.228   6.954  11.178
26909SOL    HW182624  10.152   6.897  11.165
26909SOL    HW282625  10.246   6.951  11.272
26910SOL     OW82626   9.272  10.271   1.698
26910SOL    HW182627   9.191  10.235   1.662
26910SOL    HW282628   9.268  10.364   1.676
26911SOL     OW82629   8.655   1.330   9.836
26911SOL    HW182630   8.713   1.262   9.870
26911SOL    HW282631   8.626   1.297   9.751
26912SOL     OW82632  14.177   0.679   8.053
26912SOL    HW182633  14.253   0.728   8.085
26912SOL    HW282634  14.110   0.746   8.039
26913SOL     OW82635  13.594   1.803   0.789
26913SOL    HW182636  13.651   1.756   0.849
26913SOL    HW282637  13.582   1.742   0.715
26914SOL     OW82638   3.564  12.054   3.726
26914SOL    HW182639   3.553  12.132   3.780
26914SOL    HW282640   3.632  12.003   3.769
26915SOL     OW82641  13.840   1.318   3.529
26915SOL    HW182642  13.790   1.325   3.447
26915SOL    HW282643  13.892   1.239   3.518
26916SOL     OW82644  12.660   4.397   6.806
26916SOL    HW182645  12.603   4.473   6.815
26916SOL    HW282646  12.748   4.434   6.802
26917SOL     OW82647   9.781   1.468   2.305
26917SOL    HW182648   9.856   1.517   2.272
26917SOL    HW282649   9.797   1.459   2.399
26918SOL     OW82650   2.654  10.827   2.929
26918SOL    HW182651   2.614  10.748   2.967
26918SOL    HW282652   2.746  10.803   2.915
26919SOL     OW82653   8.440  11.364   2.888
26919SOL    HW182654   8.414  11.454   2.906
26919SOL    HW282655   8.534  11.363   2.905
26920SOL     OW82656   7.061  12.183  12.721
26920SOL    HW182657   7.115  12.112  12.757
26920SOL    HW282658   7.117  12.224  12.655
26921SOL     OW82659   3.550  11.854  12.124
26921SOL    HW182660   3.530  11.931  12.070
26921SOL    HW282661   3.596  11.795  12.065
26922SOL     OW82662  11.902   5.113  11.479
26922SOL    HW182663  11.885   5.029  11.522
26922SOL    HW282664  11.930   5.090  11.390
26923SOL     OW82665   6.669  13.224   3.196
26923SOL    HW182666   6.592  13.168   3.191
26923SOL    HW282667   6.714  13.211   3.113
26924SOL     OW82668   8.793   7.086  12.628
26924SOL    HW182669   8.792   6.992  12.610
26924SOL    HW282670   8.701   7.111  12.627
26925SOL     OW82671   6.285  10.333  13.696
26925SOL    HW182672   6.319  10.246  13.677
26925SOL    HW282673   6.190  10.323  13.691
26926SOL     OW82674  13.500   7.940   7.528
26926SOL    HW182675  13.443   7.991   7.471
26926SOL    HW282676  13.473   7.849   7.513
26927SOL     OW82677  13.437  11.130  12.944
26927SOL    HW182678  13.358  11.155  12.993
26927SOL    HW282679  13.426  11.036  12.929
26928SOL     OW82680  12.877   5.647   9.301
26928SOL    HW182681  12.826   5.662   9.380
26928SOL    HW282682  12.968   5.649   9.330
26929SOL     OW82683   4.006  12.600  13.486
26929SOL    HW182684   3.929  12.657  13.495
26929SOL    HW282685   4.037  12.616  13.397
26930SOL     OW82686   7.330   0.029   1.174
26930SOL    HW182687   7.314  14.867   1.091
26930SOL    HW282688   7.419   0.064   1.166
26931SOL     OW82689   4.071   7.138   0.087
26931SOL    HW182690   3.998   7.084   0.056
26931SOL    HW282691   4.149   7.093   0.055
26932SOL     OW82692   5.988  13.813   1.576
26932SOL    HW182693   5.961  13.726   1.606
26932SOL    HW282694   5.944  13.873   1.636
26933SOL     OW82695   7.061   5.064   2.371
26933SOL    HW182696   7.007   4.985   2.376
26933SOL    HW282697   7.048   5.096   2.282
26934SOL     OW82698   8.190  14.604  11.251
26934SOL    HW182699   8.279  14.631  11.230
26934SOL    HW282700   8.135  14.654  11.191
26935SOL     OW82701   2.623   2.939   5.630
26935SOL    HW182702   2.633   3.000   5.557
26935SOL    HW282703   2.674   2.862   5.603
26936SOL     OW82704   2.162   2.239  10.510
26936SOL    HW182705   2.072   2.218  10.534
26936SOL    HW282706   2.211   2.233  10.592
26937SOL     OW82707   8.904   5.458   9.685
26937SOL    HW182708   8.870   5.371   9.708
26937SOL    HW282709   8.990   5.462   9.725
26938SOL     OW82710  13.647   8.625   6.787
26938SOL    HW182711  13.733   8.584   6.779
26938SOL    HW282712  13.666   8.716   6.809
26939SOL     OW82713   6.724  13.552   1.794
26939SOL    HW182714   6.806  13.502   1.785
26939SOL    HW282715   6.744  13.638   1.758
26940SOL     OW82716   7.396  12.688  14.473
26940SOL    HW182717   7.485  12.707  14.505
26940SOL    HW282718   7.410  12.622  14.405
26941SOL     OW82719  14.784   4.286  10.981
26941SOL    HW182720  14.723   4.215  10.960
26941SOL    HW282721  14.870   4.249  10.960
26942SOL     OW82722   8.001   7.290   1.999
26942SOL    HW182723   7.980   7.197   2.005
26942SOL    HW282724   7.920   7.331   1.968
26943SOL     OW82725   7.083   9.836   6.688
26943SOL    HW182726   7.070   9.930   6.675
26943SOL    HW282727   7.033   9.816   6.767
26944SOL     OW82728   4.538   5.447   6.312
26944SOL    HW182729   4.443   5.440   6.301
26944SOL    HW282730   4.552   5.439   6.406
26945SOL     OW82731  13.632   5.014  10.536
26945SOL    HW182732  13.578   4.978  10.467
26945SOL    HW282733  13.719   5.026  10.497
26946SOL     OW82734   3.189  11.460   6.825
26946SOL    HW182735   3.208  11.547   6.861
26946SOL    HW282736   3.161  11.408   6.901
26947SOL     OW82737  10.651   3.211  11.614
26947SOL    HW182738  10.666   3.232  11.706
26947SOL    HW282739  10.722   3.255  11.567
26948SOL     OW82740  12.887   4.683  14.174
26948SOL    HW182741  12.882   4.588  14.180
26948SOL    HW282742  12.801   4.709  14.141
26949SOL     OW82743  11.787   2.231   6.284
26949SOL    HW182744  11.790   2.323   6.258
26949SOL    HW282745  11.878   2.207   6.301
26950SOL     OW82746   0.480   9.563   3.893
26950SOL    HW182747   0.501   9.527   3.980
26950SOL    HW282748   0.420   9.635   3.911
26951SOL     OW82749   0.574   0.498  14.362
26951SOL    HW182750   0.551   0.591  14.359
26951SOL    HW282751   0.666   0.495  14.336
26952SOL     OW82752   8.732   8.226   9.185
26952SOL    HW182753   8.796   8.198   9.120
26952SOL    HW282754   8.736   8.158   9.253
26953SOL     OW82755   3.626   9.406   3.748
26953SOL    HW182756   3.640   9.471   3.680
26953SOL    HW282757   3.688   9.429   3.817
26954SOL     OW82758  11.480   9.488   3.916
26954SOL    HW182759  11.396   9.448   3.938
26954SOL    HW282760  11.512   9.524   3.999
26955SOL     OW82761   8.722  10.865   1.035
26955SOL    HW182762   8.682  10.780   1.016
26955SOL    HW282763   8.792  10.846   1.097
26956SOL     OW82764   1.594  13.161  10.527
26956SOL    HW182765   1.506  13.171  10.489
26956SOL    HW282766   1.597  13.228  10.596
26957SOL     OW82767  11.713  13.404   8.711
26957SOL    HW182768  11.643  13.423   8.648
26957SOL    HW282769  11.793  13.404   8.658
26958SOL     OW82770   4.264   4.071   9.891
26958SOL    HW182771   4.359   4.063   9.884
26958SOL    HW282772   4.242   4.023   9.971
26959SOL     OW82773   4.130   7.220  12.513
26959SOL    HW182774   4.192   7.149  12.497
26959SOL    HW282775   4.162   7.293  12.460
26960SOL     OW82776   3.947   1.533  10.900
26960SOL    HW182777   3.896   1.609  10.928
26960SOL    HW282778   3.893   1.457  10.924
26961SOL     OW82779  12.364   5.328   7.190
26961SOL    HW182780  12.404   5.276   7.259
26961SOL    HW282781  12.270   5.327   7.211
26962SOL     OW82782  13.878  11.565   8.603
26962SOL    HW182783  13.958  11.542   8.556
26962SOL    HW282784  13.876  11.661   8.600
26963SOL     OW82785   8.526  14.443  12.702
26963SOL    HW182786   8.531  14.528  12.745
26963SOL    HW282787   8.448  14.448  12.647
26964SOL     OW82788   7.129  11.292   6.874
26964SOL    HW182789   7.086  11.303   6.960
26964SOL    HW282790   7.220  11.315   6.889
26965SOL     OW82791  14.120   2.896   7.898
26965SOL    HW182792  14.158   2.877   7.984
26965SOL    HW282793  14.031   2.861   7.903
26966SOL     OW82794   0.121  10.869   9.563
26966SOL    HW182795   0.125  10.785   9.609
26966SOL    HW282796   0.048  10.915   9.605
26967SOL     OW82797  14.725   8.319   3.008
26967SOL    HW182798  14.790   8.251   2.990
26967SOL    HW282799  14.641   8.275   2.992
26968SOL     OW82800   2.265   9.672   7.563
26968SOL    HW182801   2.249   9.618   7.640
26968SOL    HW282802   2.210   9.749   7.575
26969SOL     OW82803   4.720   1.223   4.558
26969SOL    HW182804   4.773   1.270   4.623
26969SOL    HW282805   4.630   1.251   4.577
26970SOL     OW82806   2.641   6.127  14.836
26970SOL    HW182807   2.556   6.148  14.798
26970SOL    HW282808   2.623   6.056   0.016
26971SOL     OW82809   6.363   9.743   3.936
26971SOL    HW182810   6.443   9.714   3.892
26971SOL    HW282811   6.373   9.710   4.026
26972SOL     OW82812   0.567   2.302   4.966
26972SOL    HW182813   0.491   2.248   4.987
26972SOL    HW282814   0.540   2.391   4.991
26973SOL     OW82815  10.205   8.730   5.690
26973SOL    HW182816  10.213   8.642   5.653
26973SOL    HW282817  10.112   8.752   5.680
26974SOL     OW82818  12.996   8.364   0.244
26974SOL    HW182819  13.066   8.406   0.195
26974SOL    HW282820  13.000   8.272   0.217
26975SOL     OW82821   7.423   6.546   1.020
26975SOL    HW182822   7.400   6.612   0.954
26975SOL    HW282823   7.396   6.463   0.982
26976SOL     OW82824   5.090  10.869   8.034
26976SOL    HW182825   5.185  10.858   8.029
26976SOL    HW282826   5.055  10.794   7.985
26977SOL     OW82827   7.522  13.143  12.391
26977SOL    HW182828   7.610  13.174  12.408
26977SOL    HW282829   7.532  13.075  12.324
26978SOL     OW82830   5.985   2.817   8.812
26978SOL    HW182831   5.991   2.750   8.743
26978SOL    HW282832   6.048   2.884   8.786
26979SOL     OW82833  13.764  14.362  14.773
26979SOL    HW182834  13.713  14.420  14.829
26979SOL    HW282835  13.786  14.414  14.696
26980SOL     OW82836   5.749   9.797   7.643
26980SOL    HW182837   5.803   9.742   7.701
26980SOL    HW282838   5.665   9.804   7.689
26981SOL     OW82839   8.386   8.179   7.507
26981SOL    HW182840   8.414   8.219   7.589
26981SOL    HW282841   8.306   8.131   7.529
26982SOL     OW82842  13.090  14.175  14.162
26982SOL    HW182843  13.022  14.230  14.201
26982SOL    HW282844  13.064  14.086  14.184
26983SOL     OW82845  13.761  12.075   8.220
26983SOL    HW182846  13.725  12.132   8.288
26983SOL    HW282847  13.729  11.988   8.243
26984SOL     OW82848  12.871  13.581  11.137
26984SOL    HW182849  12.808  13.512  11.120
26984SOL    HW282850  12.940  13.567  11.073
26985SOL     OW82851   8.626   2.867  10.550
26985SOL    HW182852   8.644   2.954  10.515
26985SOL    HW282853   8.621   2.880  10.645
26986SOL     OW82854   2.290  11.014  10.911
26986SOL    HW182855   2.313  11.053  10.827
26986SOL    HW282856   2.221  10.951  10.891
26987SOL     OW82857  11.132   9.845   2.766
26987SOL    HW182858  11.114   9.753   2.749
26987SOL    HW282859  11.196   9.844   2.838
26988SOL     OW82860   8.478  12.292   3.645
26988SOL    HW182861   8.434  12.367   3.685
26988SOL    HW282862   8.407  12.235   3.616
26989SOL     OW82863   4.204   8.745   8.665
26989SOL    HW182864   4.294   8.774   8.650
26989SOL    HW282865   4.194   8.670   8.606
26990SOL     OW82866   4.974   4.371   8.564
26990SOL    HW182867   4.915   4.351   8.636
26990SOL    HW282868   4.995   4.285   8.526
26991SOL     OW82869   0.458   4.355  10.216
26991SOL    HW182870   0.545   4.333  10.183
26991SOL    HW282871   0.424   4.419  10.153
26992SOL     OW82872   3.770   3.727   1.437
26992SOL    HW182873   3.804   3.756   1.352
26992SOL    HW282874   3.686   3.686   1.417
26993SOL     OW82875   6.130   5.559   7.763
26993SOL    HW182876   6.181   5.532   7.686
26993SOL    HW282877   6.179   5.632   7.800
26994SOL     OW82878  10.551   8.256   1.732
26994SOL    HW182879  10.536   8.305   1.651
26994SOL    HW282880  10.464   8.244   1.770
26995SOL     OW82881   3.665   6.987   7.890
26995SOL    HW182882   3.754   6.980   7.857
26995SOL    HW282883   3.610   6.967   7.814
26996SOL     OW82884  10.007   7.689  12.365
26996SOL    HW182885   9.979   7.780  12.353
26996SOL    HW282886  10.098   7.688  12.334
26997SOL     OW82887   5.858   7.568   4.020
26997SOL    HW182888   5.853   7.473   4.024
26997SOL    HW282889   5.780   7.595   3.971
26998SOL     OW82890   1.469   6.090  12.512
26998SOL    HW182891   1.518   6.109  12.592
26998SOL    HW282892   1.418   6.170  12.496
26999SOL     OW82893  11.355  14.451  12.572
26999SOL    HW182894  11.352  14.479  12.480
26999SOL    HW282895  11.402  14.367  12.569
27000SOL     OW82896   1.766  12.464   7.440
27000SOL    HW182897   1.780  12.556   7.418
27000SOL    HW282898   1.765  12.418   7.356
27001SOL     OW82899   7.519   8.916  11.894
27001SOL    HW182900   7.590   8.933  11.956
27001SOL    HW282901   7.564   8.897  11.812
27002SOL     OW82902  11.498   7.931  12.876
27002SOL    HW182903  11.437   7.931  12.950
27002SOL    HW282904  11.582   7.904  12.913
27003SOL     OW82905  12.881  14.432  11.857
27003SOL    HW182906  12.861  14.474  11.773
27003SOL    HW282907  12.871  14.502  11.921
27004SOL     OW82908   7.857   8.586   8.175
27004SOL    HW182909   7.878   8.604   8.266
27004SOL    HW282910   7.933   8.618   8.126
27005SOL     OW82911  13.482   2.139  12.276
27005SOL    HW182912  13.525   2.092  12.347
27005SOL    HW282913  13.406   2.085  12.255
27006SOL     OW82914  13.369   2.599   5.321
27006SOL    HW182915  13.423   2.536   5.274
27006SOL    HW282916  13.408   2.604   5.409
27007SOL     OW82917   9.828   4.894   0.960
27007SOL    HW182918   9.789   4.841   1.029
27007SOL    HW282919   9.771   4.881   0.885
27008SOL     OW82920  10.006   1.177  10.751
27008SOL    HW182921  10.040   1.261  10.717
27008SOL    HW282922   9.915   1.174  10.722
27009SOL     OW82923  10.416   9.377   4.176
27009SOL    HW182924  10.397   9.284   4.172
27009SOL    HW282925  10.465   9.389   4.258
27010SOL     OW82926  10.527   5.374   2.784
27010SOL    HW182927  10.506   5.397   2.875
27010SOL    HW282928  10.609   5.420   2.766
27011SOL     OW82929   0.307  14.488   5.658
27011SOL    HW182930   0.306  14.395   5.683
27011SOL    HW282931   0.224  14.522   5.692
27012SOL     OW82932   3.566   2.937  10.961
27012SOL    HW182933   3.604   2.870  10.903
27012SOL    HW282934   3.482   2.959  10.921
27013SOL     OW82935  12.817  13.666  13.296
27013SOL    HW182936  12.788  13.745  13.250
27013SOL    HW282937  12.859  13.699  13.376
27014SOL     OW82938   7.610  12.227   5.382
27014SOL    HW182939   7.612  12.213   5.476
27014SOL    HW282940   7.534  12.283   5.368
27015SOL     OW82941   8.152   0.060   9.787
27015SOL    HW182942   8.193   0.143   9.762
27015SOL    HW282943   8.217   0.017   9.843
27016SOL     OW82944   4.430   4.350  11.882
27016SOL    HW182945   4.359   4.362  11.819
27016SOL    HW282946   4.452   4.438  11.911
27017SOL     OW82947  13.060   9.864  13.955
27017SOL    HW182948  13.123   9.912  14.009
27017SOL    HW282949  12.981   9.917  13.956
27018SOL     OW82950   9.133   2.999   8.638
27018SOL    HW182951   9.108   2.911   8.610
27018SOL    HW282952   9.222   3.010   8.605
27019SOL     OW82953   2.823   0.655   6.310
27019SOL    HW182954   2.876   0.581   6.336
27019SOL    HW282955   2.884   0.715   6.267
27020SOL     OW82956  14.670   1.465  10.981
27020SOL    HW182957  14.625   1.440  10.900
27020SOL    HW282958  14.620   1.539  11.015
27021SOL     OW82959  10.037   5.757   6.813
27021SOL    HW182960   9.974   5.768   6.743
27021SOL    HW282961  10.058   5.846   6.841
27022SOL     OW82962   2.471   7.088  10.572
27022SOL    HW182963   2.444   7.062  10.660
27022SOL    HW282964   2.441   7.016  10.516
27023SOL     OW82965   1.923   2.611   6.296
27023SOL    HW182966   2.019   2.602   6.290
27023SOL    HW282967   1.890   2.562   6.221
27024SOL     OW82968   4.909   5.437   0.929
27024SOL    HW182969   4.986   5.453   0.983
27024SOL    HW282970   4.923   5.349   0.894
27025SOL     OW82971   3.302  13.459   5.528
27025SOL    HW182972   3.391  13.435   5.550
27025SOL    HW282973   3.282  13.410   5.448
27026SOL     OW82974   5.260   4.981   5.730
27026SOL    HW182975   5.211   4.953   5.652
27026SOL    HW282976   5.295   5.067   5.706
27027SOL     OW82977  13.770   9.248   0.804
27027SOL    HW182978  13.769   9.309   0.730
27027SOL    HW282979  13.857   9.209   0.802
27028SOL     OW82980   8.163  12.951   3.641
27028SOL    HW182981   8.086  12.899   3.663
27028SOL    HW282982   8.231  12.920   3.701
27029SOL     OW82983   2.680  10.077   5.995
27029SOL    HW182984   2.768  10.115   5.988
27029SOL    HW282985   2.676  10.013   5.924
27030SOL     OW82986  11.473  10.866   5.515
27030SOL    HW182987  11.439  10.930   5.578
27030SOL    HW282988  11.410  10.868   5.443
27031SOL     OW82989  12.279  13.420  11.177
27031SOL    HW182990  12.292  13.328  11.199
27031SOL    HW282991  12.231  13.456  11.252
27032SOL     OW82992   3.998  10.443   7.442
27032SOL    HW182993   3.909  10.436   7.475
27032SOL    HW282994   4.010  10.537   7.426
27033SOL     OW82995   1.706   0.726   8.028
27033SOL    HW182996   1.717   0.702   7.936
27033SOL    HW282997   1.621   0.690   8.053
27034SOL     OW82998   7.610   7.133  11.299
27034SOL    HW182999   7.546   7.160  11.365
27034SOL    HW283000   7.571   7.056  11.257
27035SOL     OW83001   2.427   8.581  11.392
27035SOL    HW183002   2.333   8.567  11.394
27035SOL    HW283003   2.439   8.664  11.347
27036SOL     OW83004  10.476   3.259  12.686
27036SOL    HW183005  10.429   3.197  12.741
27036SOL    HW283006  10.490   3.213  12.603
27037SOL     OW83007  10.700   6.106  14.253
27037SOL    HW183008  10.760   6.064  14.191
27037SOL    HW283009  10.658   6.033  14.298
27038SOL     OW83010  10.813  14.310   0.941
27038SOL    HW183011  10.794  14.216   0.935
27038SOL    HW283012  10.907  14.314   0.960
27039SOL     OW83013   4.801  13.032   6.549
27039SOL    HW183014   4.780  13.082   6.628
27039SOL    HW283015   4.755  13.079   6.479
27040SOL     OW83016  14.876   9.294  13.189
27040SOL    HW183017  14.874   9.380  13.232
27040SOL    HW283018  14.806   9.298  13.124
27041SOL     OW83019  13.785  11.166   9.704
27041SOL    HW183020  13.782  11.180   9.799
27041SOL    HW283021  13.695  11.149   9.679
27042SOL     OW83022   9.659  12.671   7.031
27042SOL    HW183023   9.573  12.630   7.017
27042SOL    HW283024   9.681  12.649   7.121
27043SOL     OW83025   6.805  14.065   0.606
27043SOL    HW183026   6.770  14.020   0.682
27043SOL    HW283027   6.735  14.124   0.578
27044SOL     OW83028  10.668  10.400   3.623
27044SOL    HW183029  10.585  10.417   3.667
27044SOL    HW283030  10.715  10.483   3.626
27045SOL     OW83031  12.453   9.794   6.349
27045SOL    HW183032  12.449   9.698   6.355
27045SOL    HW283033  12.374   9.818   6.301
27046SOL     OW83034  14.678  14.639   8.641
27046SOL    HW183035  14.656  14.730   8.659
27046SOL    HW283036  14.706  14.603   8.725
27047SOL     OW83037   2.010   5.849   6.361
27047SOL    HW183038   2.101   5.822   6.352
27047SOL    HW283039   2.008   5.939   6.326
27048SOL     OW83040   6.961  10.385   4.129
27048SOL    HW183041   6.970  10.444   4.054
27048SOL    HW283042   6.867  10.382   4.146
27049SOL     OW83043   1.537   9.694   4.504
27049SOL    HW183044   1.560   9.656   4.589
27049SOL    HW283045   1.613   9.747   4.480
27050SOL     OW83046   2.835   9.156   4.973
27050SOL    HW183047   2.902   9.107   5.021
27050SOL    HW283048   2.819   9.234   5.026
27051SOL     OW83049   3.692   7.195   6.248
27051SOL    HW183050   3.632   7.121   6.260
27051SOL    HW283051   3.637   7.273   6.262
27052SOL     OW83052   9.068  10.594  12.226
27052SOL    HW183053   9.137  10.659  12.216
27052SOL    HW283054   8.995  10.628  12.174
27053SOL     OW83055   3.407  14.727   9.494
27053SOL    HW183056   3.412  14.725   9.590
27053SOL    HW283057   3.313  14.725   9.475
27054SOL     OW83058   8.778  14.268   2.679
27054SOL    HW183059   8.741  14.339   2.627
27054SOL    HW283060   8.756  14.290   2.770
27055SOL     OW83061   4.585   9.747  11.944
27055SOL    HW183062   4.534   9.713  12.017
27055SOL    HW283063   4.635   9.820  11.981
27056SOL     OW83064  11.955   9.500   7.905
27056SOL    HW183065  11.969   9.533   7.993
27056SOL    HW283066  11.860   9.503   7.893
27057SOL     OW83067   3.777   8.134  10.923
27057SOL    HW183068   3.816   8.108  11.007
27057SOL    HW283069   3.834   8.095  10.857
27058SOL     OW83070  14.279   8.482   1.732
27058SOL    HW183071  14.194   8.454   1.767
27058SOL    HW283072  14.327   8.516   1.807
27059SOL     OW83073   8.769   5.258  10.918
27059SOL    HW183074   8.782   5.263  11.013
27059SOL    HW283075   8.766   5.164  10.900
27060SOL     OW83076   5.363  10.630   3.807
27060SOL    HW183077   5.439  10.622   3.749
27060SOL    HW283078   5.292  10.661   3.750
27061SOL     OW83079   5.431   4.126   7.646
27061SOL    HW183080   5.400   4.173   7.723
27061SOL    HW283081   5.352   4.090   7.606
27062SOL     OW83082   1.178   4.532  11.133
27062SOL    HW183083   1.108   4.578  11.179
27062SOL    HW283084   1.193   4.453  11.186
27063SOL     OW83085  14.637  10.326   2.284
27063SOL    HW183086  14.660  10.416   2.306
27063SOL    HW283087  14.688  10.306   2.206
27064SOL     OW83088   6.107  13.180  12.425
27064SOL    HW183089   6.028  13.183  12.370
27064SOL    HW283090   6.173  13.229  12.376
27065SOL     OW83091   8.932   6.566   5.549
27065SOL    HW183092   8.998   6.625   5.587
27065SOL    HW283093   8.855   6.621   5.537
27066SOL     OW83094  12.386   0.619  11.784
27066SOL    HW183095  12.368   0.698  11.834
27066SOL    HW283096  12.474   0.633  11.748
27067SOL     OW83097   7.930   7.895  14.499
27067SOL    HW183098   7.982   7.814  14.503
27067SOL    HW283099   7.951   7.940  14.581
27068SOL     OW83100   8.028   3.644   7.658
27068SOL    HW183101   8.066   3.700   7.590
27068SOL    HW283102   7.965   3.700   7.703
27069SOL     OW83103   9.216   2.513  13.861
27069SOL    HW183104   9.267   2.448  13.813
27069SOL    HW283105   9.229   2.491  13.953
27070SOL     OW83106   9.263  10.230  12.640
27070SOL    HW183107   9.181  10.264  12.602
27070SOL    HW283108   9.244  10.137  12.656
27071SOL     OW83109   9.131  12.827   1.681
27071SOL    HW183110   9.088  12.900   1.636
27071SOL    HW283111   9.099  12.832   1.771
27072SOL     OW83112  10.728   1.004   4.916
27072SOL    HW183113  10.692   0.999   5.004
27072SOL    HW283114  10.669   1.061   4.868
27073SOL     OW83115   6.452  12.241  11.613
27073SOL    HW183116   6.360  12.232  11.636
27073SOL    HW283117   6.500  12.195  11.682
27074SOL     OW83118  11.971  10.176   6.247
27074SOL    HW183119  11.961  10.268   6.220
27074SOL    HW283120  11.987  10.180   6.341
27075SOL     OW83121   1.433  12.842   9.719
27075SOL    HW183122   1.368  12.909   9.699
27075SOL    HW283123   1.386  12.779   9.774
27076SOL     OW83124   1.245   8.082   8.318
27076SOL    HW183125   1.309   8.014   8.340
27076SOL    HW283126   1.170   8.034   8.285
27077SOL     OW83127   8.654  13.200   5.811
27077SOL    HW183128   8.747  13.205   5.793
27077SOL    HW283129   8.638  13.108   5.832
27078SOL     OW83130   2.296   2.787  13.702
27078SOL    HW183131   2.224   2.847  13.723
27078SOL    HW283132   2.270   2.704  13.742
27079SOL     OW83133   3.433   5.557  14.323
27079SOL    HW183134   3.446   5.559  14.228
27079SOL    HW283135   3.457   5.468  14.349
27080SOL     OW83136  11.663   2.926  11.682
27080SOL    HW183137  11.610   2.850  11.657
27080SOL    HW283138  11.704   2.899  11.764
27081SOL     OW83139   6.720  10.271  14.111
27081SOL    HW183140   6.809  10.236  14.115
27081SOL    HW283141   6.676  10.236  14.188
27082SOL     OW83142   3.837   2.983  10.192
27082SOL    HW183143   3.808   3.004  10.103
27082SOL    HW283144   3.812   2.892  10.204
27083SOL     OW83145  11.897  10.957   2.944
27083SOL    HW183146  11.978  10.996   2.911
27083SOL    HW283147  11.848  11.030   2.981
27084SOL     OW83148   1.690   6.883   9.487
27084SOL    HW183149   1.604   6.849   9.512
27084SOL    HW283150   1.741   6.806   9.464
27085SOL     OW83151   3.550   5.455   0.837
27085SOL    HW183152   3.520   5.462   0.927
27085SOL    HW283153   3.482   5.500   0.786
27086SOL     OW83154   8.953   6.904  13.562
27086SOL    HW183155   8.933   6.841  13.493
27086SOL    HW283156   9.045   6.928  13.548
27087SOL     OW83157  11.525   4.551  10.295
27087SOL    HW183158  11.482   4.545  10.380
27087SOL    HW283159  11.610   4.508  10.308
27088SOL     OW83160  14.337   3.246   0.752
27088SOL    HW183161  14.360   3.190   0.826
27088SOL    HW283162  14.249   3.279   0.773
27089SOL     OW83163   8.703   2.202   6.396
27089SOL    HW183164   8.726   2.281   6.348
27089SOL    HW283165   8.641   2.231   6.463
27090SOL     OW83166   2.356  13.175   9.047
27090SOL    HW183167   2.289  13.212   8.989
27090SOL    HW283168   2.428  13.152   8.988
27091SOL     OW83169   4.320  14.104   5.860
27091SOL    HW183170   4.320  14.064   5.773
27091SOL    HW283171   4.306  14.030   5.920
27092SOL     OW83172  13.827   4.600   8.891
27092SOL    HW183173  13.844   4.652   8.813
27092SOL    HW283174  13.883   4.639   8.958
27093SOL     OW83175  14.432  10.225   7.610
27093SOL    HW183176  14.521  10.239   7.641
27093SOL    HW283177  14.431  10.134   7.580
27094SOL     OW83178  11.938   6.443   2.253
27094SOL    HW183179  11.877   6.442   2.179
27094SOL    HW283180  11.947   6.351   2.278
27095SOL     OW83181   0.347  12.468   1.740
27095SOL    HW183182   0.336  12.521   1.820
27095SOL    HW283183   0.292  12.392   1.754
27096SOL     OW83184   2.534   1.983  11.949
27096SOL    HW183185   2.509   2.037  12.024
27096SOL    HW283186   2.502   1.895  11.970
27097SOL     OW83187   6.102  11.193   2.673
27097SOL    HW183188   6.138  11.282   2.669
27097SOL    HW283189   6.083  11.179   2.765
27098SOL     OW83190  11.688   9.423  14.540
27098SOL    HW183191  11.721   9.505  14.577
27098SOL    HW283192  11.723   9.421  14.451
27099SOL     OW83193   1.605  11.370  13.006
27099SOL    HW183194   1.649  11.371  13.090
27099SOL    HW283195   1.654  11.306  12.954
27100SOL     OW83196  14.578  11.647   2.448
27100SOL    HW183197  14.549  11.654   2.539
27100SOL    HW283198  14.515  11.588   2.407
27101SOL     OW83199  14.554   7.771   0.236
27101SOL    HW183200  14.524   7.696   0.185
27101SOL    HW283201  14.644   7.785   0.208
27102SOL     OW83202  11.907   2.918   9.202
27102SOL    HW183203  11.943   2.853   9.263
27102SOL    HW283204  11.895   2.997   9.255
27103SOL     OW83205   3.126   0.118   8.249
27103SOL    HW183206   3.143   0.034   8.291
27103SOL    HW283207   3.110   0.178   8.321
27104SOL     OW83208   3.325   3.254  13.465
27104SOL    HW183209   3.396   3.306  13.426
27104SOL    HW283210   3.245   3.297  13.436
27105SOL     OW83211  10.176   0.154   7.117
27105SOL    HW183212  10.150   0.246   7.119
27105SOL    HW283213  10.271   0.155   7.126
27106SOL     OW83214   4.681   9.162  10.732
27106SOL    HW183215   4.768   9.124  10.719
27106SOL    HW283216   4.685   9.202  10.819
27107SOL     OW83217  14.533  10.018   7.059
27107SOL    HW183218  14.486  10.101   7.048
27107SOL    HW283219  14.537  10.006   7.154
27108SOL     OW83220   5.754   5.872   2.732
27108SOL    HW183221   5.666   5.864   2.767
27108SOL    HW283222   5.783   5.781   2.718
27109SOL     OW83223  10.838  10.223   4.502
27109SOL    HW183224  10.761  10.277   4.521
27109SOL    HW283225  10.907  10.287   4.480
27110SOL     OW83226  11.379   4.541   7.079
27110SOL    HW183227  11.462   4.573   7.115
27110SOL    HW283228  11.388   4.446   7.081
27111SOL     OW83229   0.526  10.500   9.776
27111SOL    HW183230   0.550  10.582   9.733
27111SOL    HW283231   0.573  10.433   9.727
27112SOL     OW83232   6.718   2.012  14.548
27112SOL    HW183233   6.721   2.104  14.523
27112SOL    HW283234   6.799   1.975  14.513
27113SOL     OW83235   9.079   6.660   2.499
27113SOL    HW183236   9.009   6.613   2.544
27113SOL    HW283237   9.052   6.751   2.502
27114SOL     OW83238   2.522   9.731   0.277
27114SOL    HW183239   2.539   9.642   0.307
27114SOL    HW283240   2.588   9.747   0.210
27115SOL     OW83241   0.102   9.108   8.708
27115SOL    HW183242   0.165   9.120   8.778
27115SOL    HW283243   0.120   9.180   8.647
27116SOL     OW83244  10.706  11.877   3.174
27116SOL    HW183245  10.777  11.815   3.190
27116SOL    HW283246  10.733  11.957   3.221
27117SOL     OW83247   0.687   7.105  10.967
27117SOL    HW183248   0.595   7.080  10.982
27117SOL    HW283249   0.709   7.161  11.042
27118SOL     OW83250   9.385   2.829   0.114
27118SOL    HW183251   9.453   2.811   0.179
27118SOL    HW283252   9.326   2.890   0.158
27119SOL     OW83253   8.888   6.171   7.222
27119SOL    HW183254   8.864   6.153   7.312
27119SOL    HW283255   8.834   6.111   7.170
27120SOL     OW83256   8.906   8.358   3.503
27120SOL    HW183257   8.839   8.422   3.529
27120SOL    HW283258   8.946   8.331   3.586
27121SOL     OW83259  13.864   3.207  14.044
27121SOL    HW183260  13.817   3.238  13.967
27121SOL    HW283261  13.896   3.120  14.019
27122SOL     OW83262   6.097   3.065   9.829
27122SOL    HW183263   6.050   2.985   9.807
27122SOL    HW283264   6.150   3.084   9.752
27123SOL     OW83265   7.366  11.258   5.074
27123SOL    HW183266   7.382  11.219   5.160
27123SOL    HW283267   7.426  11.333   5.069
27124SOL     OW83268   8.433   1.751   5.068
27124SOL    HW183269   8.471   1.818   5.010
27124SOL    HW283270   8.402   1.683   5.009
27125SOL     OW83271   5.710   7.515  11.263
27125SOL    HW183272   5.625   7.525  11.305
27125SOL    HW283273   5.750   7.440  11.307
27126SOL     OW83274   6.978   4.230   9.551
27126SOL    HW183275   7.045   4.275   9.501
27126SOL    HW283276   6.998   4.252   9.642
27127SOL     OW83277   2.856  12.902   1.741
27127SOL    HW183278   2.882  12.864   1.657
27127SOL    HW283279   2.789  12.967   1.718
27128SOL     OW83280   6.601   9.102  10.749
27128SOL    HW183281   6.591   9.084  10.843
27128SOL    HW283282   6.576   9.021  10.705
27129SOL     OW83283   5.030  10.009   9.486
27129SOL    HW183284   5.014   9.930   9.435
27129SOL    HW283285   5.080  10.066   9.428
27130SOL     OW83286   9.398  14.850  11.668
27130SOL    HW183287   9.362  14.763  11.654
27130SOL    HW283288   9.480  14.851  11.620
27131SOL     OW83289   6.601   9.108  12.055
27131SOL    HW183290   6.682   9.127  12.007
27131SOL    HW283291   6.630   9.088  12.144
27132SOL     OW83292   5.526  10.539   7.847
27132SOL    HW183293   5.620  10.526   7.841
27132SOL    HW283294   5.488  10.465   7.799
27133SOL     OW83295  10.302   4.137   6.307
27133SOL    HW183296  10.353   4.184   6.241
27133SOL    HW283297  10.221   4.113   6.262
27134SOL     OW83298   8.998   0.307  14.149
27134SOL    HW183299   9.090   0.279  14.141
27134SOL    HW283300   8.949   0.243  14.096
27135SOL     OW83301   5.648   4.650   6.306
27135SOL    HW183302   5.720   4.703   6.340
27135SOL    HW283303   5.644   4.673   6.213
27136SOL     OW83304  13.440   4.001  13.422
27136SOL    HW183305  13.460   4.023  13.331
27136SOL    HW283306  13.476   3.913  13.433
27137SOL     OW83307   1.518   6.536   7.105
27137SOL    HW183308   1.502   6.511   7.196
27137SOL    HW283309   1.437   6.581   7.078
27138SOL     OW83310   8.889   8.360   4.829
27138SOL    HW183311   8.942   8.386   4.904
27138SOL    HW283312   8.949   8.365   4.754
27139SOL     OW83313  11.315  13.702   6.891
27139SOL    HW183314  11.224  13.673   6.884
27139SOL    HW283315  11.328  13.717   6.985
27140SOL     OW83316   2.475  10.486   9.794
27140SOL    HW183317   2.527  10.565   9.810
27140SOL    HW283318   2.489  10.432   9.872
27141SOL     OW83319   0.411   1.444  13.855
27141SOL    HW183320   0.411   1.495  13.774
27141SOL    HW283321   0.443   1.358  13.829
27142SOL     OW83322   1.373   4.252  11.349
27142SOL    HW183323   1.396   4.337  11.386
27142SOL    HW283324   1.285   4.234  11.382
27143SOL     OW83325   7.835  10.985   0.053
27143SOL    HW183326   7.914  11.007   0.003
27143SOL    HW283327   7.810  10.898   0.021
27144SOL     OW83328   3.144  12.664   6.406
27144SOL    HW183329   3.216  12.626   6.355
27144SOL    HW283330   3.150  12.758   6.391
27145SOL     OW83331   1.391  12.884   8.168
27145SOL    HW183332   1.400  12.831   8.247
27145SOL    HW283333   1.478  12.921   8.153
27146SOL     OW83334  12.439  12.158  13.565
27146SOL    HW183335  12.422  12.184  13.474
27146SOL    HW283336  12.533  12.140  13.567
27147SOL     OW83337  13.049   5.537   4.001
27147SOL    HW183338  13.130   5.558   4.049
27147SOL    HW283339  13.044   5.441   4.003
27148SOL     OW83340  12.180   5.651   4.741
27148SOL    HW183341  12.146   5.739   4.759
27148SOL    HW283342  12.104   5.602   4.711
27149SOL     OW83343   7.557   5.066  11.786
27149SOL    HW183344   7.549   5.159  11.764
27149SOL    HW283345   7.517   5.059  11.873
27150SOL     OW83346   1.004   6.333  10.777
27150SOL    HW183347   1.004   6.300  10.866
27150SOL    HW283348   1.063   6.275  10.729
27151SOL     OW83349   2.663   2.044   3.680
27151SOL    HW183350   2.734   2.015   3.738
27151SOL    HW283351   2.708   2.071   3.599
27152SOL     OW83352   1.973   1.434   5.817
27152SOL    HW183353   1.971   1.484   5.736
27152SOL    HW283354   1.885   1.397   5.825
27153SOL     OW83355  13.026  13.367   5.783
27153SOL    HW183356  12.969  13.411   5.719
27153SOL    HW283357  13.046  13.434   5.848
27154SOL     OW83358  11.611   7.611   7.523
27154SOL    HW183359  11.576   7.527   7.495
27154SOL    HW283360  11.650   7.648   7.444
27155SOL     OW83361   8.496   5.293   8.966
27155SOL    HW183362   8.497   5.386   8.986
27155SOL    HW283363   8.511   5.250   9.050
27156SOL     OW83364   1.445   4.576   1.769
27156SOL    HW183365   1.501   4.654   1.762
27156SOL    HW283366   1.365   4.608   1.811
27157SOL     OW83367   8.654   0.388   9.361
27157SOL    HW183368   8.614   0.460   9.312
27157SOL    HW283369   8.620   0.309   9.319
27158SOL     OW83370   6.943   5.247  13.424
27158SOL    HW183371   7.003   5.320  13.406
27158SOL    HW283372   6.992   5.169  13.398
27159SOL     OW83373  12.020   6.049   5.384
27159SOL    HW183374  12.064   5.966   5.366
27159SOL    HW283375  12.009   6.090   5.298
27160SOL     OW83376  14.409   2.107   7.574
27160SOL    HW183377  14.333   2.160   7.549
27160SOL    HW283378  14.413   2.115   7.670
27161SOL     OW83379  12.996   6.531   4.132
27161SOL    HW183380  13.066   6.566   4.077
27161SOL    HW283381  12.943   6.607   4.155
27162SOL     OW83382   1.893   8.650   3.932
27162SOL    HW183383   1.801   8.676   3.933
27162SOL    HW283384   1.891   8.556   3.954
27163SOL     OW83385   2.608   6.095   0.288
27163SOL    HW183386   2.695   6.120   0.317
27163SOL    HW283387   2.619   6.008   0.251
27164SOL     OW83388   7.632   9.063   8.496
27164SOL    HW183389   7.556   9.043   8.442
27164SOL    HW283390   7.668   8.978   8.520
27165SOL     OW83391   0.863   2.724   3.207
27165SOL    HW183392   0.856   2.755   3.297
27165SOL    HW283393   0.791   2.663   3.196
27166SOL     OW83394  12.893  13.998   7.662
27166SOL    HW183395  12.856  14.066   7.718
27166SOL    HW283396  12.987  14.013   7.665
27167SOL     OW83397  11.634   4.071   4.180
27167SOL    HW183398  11.555   4.030   4.217
27167SOL    HW283399  11.604   4.156   4.149
27168SOL     OW83400   2.030   8.200  14.216
27168SOL    HW183401   2.006   8.241  14.133
27168SOL    HW283402   2.027   8.271  14.279
27169SOL     OW83403   7.754   2.216   9.644
27169SOL    HW183404   7.752   2.122   9.629
27169SOL    HW283405   7.719   2.227   9.732
27170SOL     OW83406  13.885  10.060  10.690
27170SOL    HW183407  13.897   9.967  10.707
27170SOL    HW283408  13.790  10.074  10.697
27171SOL     OW83409   2.017   0.636   0.231
27171SOL    HW183410   1.959   0.647   0.156
27171SOL    HW283411   1.961   0.597   0.298
27172SOL     OW83412   0.602   2.970   6.869
27172SOL    HW183413   0.575   2.952   6.779
27172SOL    HW283414   0.687   3.014   6.860
27173SOL     OW83415   6.357   6.957  11.694
27173SOL    HW183416   6.269   6.990  11.712
27173SOL    HW283417   6.394   7.020  11.632
27174SOL     OW83418   3.331   6.490   7.361
27174SOL    HW183419   3.308   6.476   7.453
27174SOL    HW283420   3.418   6.449   7.352
27175SOL     OW83421   1.214  14.278   4.097
27175SOL    HW183422   1.234  14.362   4.055
27175SOL    HW283423   1.234  14.292   4.189
27176SOL     OW83424  11.510   6.774   4.494
27176SOL    HW183425  11.533   6.686   4.523
27176SOL    HW283426  11.487   6.821   4.574
27177SOL     OW83427  11.575   5.842   6.118
27177SOL    HW183428  11.659   5.855   6.163
27177SOL    HW283429  11.512   5.827   6.189
27178SOL     OW83430   3.700  10.796   1.849
27178SOL    HW183431   3.694  10.863   1.782
27178SOL    HW283432   3.743  10.839   1.923
27179SOL     OW83433  13.581   3.403   4.804
27179SOL    HW183434  13.527   3.436   4.876
27179SOL    HW283435  13.598   3.311   4.827
27180SOL     OW83436   9.753   0.258   4.526
27180SOL    HW183437   9.846   0.236   4.522
27180SOL    HW283438   9.749   0.334   4.584
27181SOL     OW83439   5.143   2.683  10.409
27181SOL    HW183440   5.079   2.750  10.386
27181SOL    HW283441   5.202   2.727  10.471
27182SOL     OW83442   7.081   1.162   0.036
27182SOL    HW183443   7.018   1.093   0.053
27182SOL    HW283444   7.125   1.135  14.837
27183SOL     OW83445  14.503  11.990   7.970
27183SOL    HW183446  14.469  12.078   7.960
27183SOL    HW283447  14.482  11.965   8.060
27184SOL     OW83448  10.236   6.678  12.327
27184SOL    HW183449  10.175   6.731  12.378
27184SOL    HW283450  10.262   6.607  12.386
27185SOL     OW83451  13.005   4.978   6.338
27185SOL    HW183452  13.081   5.020   6.376
27185SOL    HW283453  12.968   5.043   6.278
27186SOL     OW83454   0.047   3.574   1.425
27186SOL    HW183455   0.036   3.535   1.339
27186SOL    HW283456   0.127   3.536   1.459
27187SOL     OW83457   2.047  11.328   2.321
27187SOL    HW183458   2.012  11.367   2.401
27187SOL    HW283459   2.118  11.271   2.351
27188SOL     OW83460   4.823   3.979   6.588
27188SOL    HW183461   4.910   3.952   6.560
27188SOL    HW283462   4.840   4.047   6.654
27189SOL     OW83463   7.941  12.787   8.169
27189SOL    HW183464   7.893  12.835   8.101
27189SOL    HW283465   8.001  12.852   8.206
27190SOL     OW83466   4.088  13.542   6.921
27190SOL    HW183467   4.110  13.524   6.829
27190SOL    HW283468   4.089  13.638   6.926
27191SOL     OW83469   6.185   4.539  10.653
27191SOL    HW183470   6.104   4.501  10.621
27191SOL    HW283471   6.253   4.475  10.631
27192SOL     OW83472  10.434   1.316   5.831
27192SOL    HW183473  10.358   1.370   5.808
27192SOL    HW283474  10.498   1.336   5.762
27193SOL     OW83475  14.703   7.016  10.752
27193SOL    HW183476  14.656   7.034  10.833
27193SOL    HW283477  14.644   7.044  10.682
27194SOL     OW83478   3.931   8.518   4.621
27194SOL    HW183479   3.861   8.457   4.646
27194SOL    HW283480   4.011   8.466   4.628
27195SOL     OW83481   3.240   6.913   9.105
27195SOL    HW183482   3.300   6.914   9.030
27195SOL    HW283483   3.276   6.980   9.164
27196SOL     OW83484   1.956  10.627  13.243
27196SOL    HW183485   2.044  10.591  13.233
27196SOL    HW283486   1.898  10.555  13.218
27197SOL     OW83487  14.203   2.010   3.505
27197SOL    HW183488  14.168   2.054   3.428
27197SOL    HW283489  14.171   2.063   3.579
27198SOL     OW83490  12.806   2.656  12.024
27198SOL    HW183491  12.849   2.741  12.032
27198SOL    HW283492  12.878   2.592  12.024
27199SOL     OW83493   2.381   4.746  11.112
27199SOL    HW183494   2.408   4.669  11.063
27199SOL    HW283495   2.296   4.769  11.075
27200SOL     OW83496   6.178  10.164  12.245
27200SOL    HW183497   6.221  10.246  12.269
27200SOL    HW283498   6.085  10.186  12.240
27201SOL     OW83499   8.649   7.256   6.006
27201SOL    HW183500   8.569   7.246   5.954
27201SOL    HW283501   8.636   7.338   6.054
27202SOL     OW83502   6.365   8.847   5.614
27202SOL    HW183503   6.289   8.789   5.617
27202SOL    HW283504   6.406   8.837   5.700
27203SOL     OW83505  11.740  14.240   2.393
27203SOL    HW183506  11.646  14.224   2.399
27203SOL    HW283507  11.774  14.164   2.346
27204SOL     OW83508   3.418   5.663   1.811
27204SOL    HW183509   3.512   5.664   1.794
27204SOL    HW283510   3.390   5.754   1.802
27205SOL     OW83511   6.789   2.410   2.792
27205SOL    HW183512   6.805   2.441   2.880
27205SOL    HW283513   6.791   2.314   2.800
27206SOL     OW83514   9.122  13.702   5.217
27206SOL    HW183515   9.136  13.620   5.266
27206SOL    HW283516   9.172  13.767   5.266
27207SOL     OW83517   5.179   2.940  14.526
27207SOL    HW183518   5.197   3.022  14.572
27207SOL    HW283519   5.178   2.965  14.433
27208SOL     OW83520   2.828   7.999   2.665
27208SOL    HW183521   2.757   7.952   2.709
27208SOL    HW283522   2.792   8.086   2.647
27209SOL     OW83523   6.236   0.197  12.551
27209SOL    HW183524   6.297   0.251  12.601
27209SOL    HW283525   6.288   0.164  12.478
27210SOL     OW83526   6.226  13.349   7.858
27210SOL    HW183527   6.159  13.417   7.855
27210SOL    HW283528   6.209  13.295   7.781
27211SOL     OW83529   5.862   7.658  14.740
27211SOL    HW183530   5.790   7.636  14.680
27211SOL    HW283531   5.819   7.689  14.819
27212SOL     OW83532   6.642   9.146   2.994
27212SOL    HW183533   6.735   9.162   3.012
27212SOL    HW283534   6.613   9.224   2.947
27213SOL     OW83535   0.565  10.264   3.676
27213SOL    HW183536   0.598  10.289   3.590
27213SOL    HW283537   0.472  10.288   3.674
27214SOL     OW83538  14.347   3.160  10.296
27214SOL    HW183539  14.287   3.087  10.308
27214SOL    HW283540  14.374   3.154  10.205
27215SOL     OW83541  12.886   0.176  10.939
27215SOL    HW183542  12.854   0.109  10.878
27215SOL    HW283543  12.923   0.126  11.011
27216SOL     OW83544   7.764   8.441   8.523
27216SOL    HW183545   7.669   8.437   8.532
27216SOL    HW283546   7.794   8.351   8.539
27217SOL     OW83547   9.087  12.878  14.353
27217SOL    HW183548   9.012  12.932  14.330
27217SOL    HW283549   9.075  12.798  14.302
27218SOL     OW83550   4.635  10.685   4.057
27218SOL    HW183551   4.546  10.714   4.041
27218SOL    HW283552   4.636  10.593   4.032
27219SOL     OW83553  11.828   7.409   5.619
27219SOL    HW183554  11.754   7.360   5.581
27219SOL    HW283555  11.795   7.498   5.627
27220SOL     OW83556   1.003   2.598   7.117
27220SOL    HW183557   1.042   2.545   7.048
27220SOL    HW283558   0.952   2.665   7.070
27221SOL     OW83559   1.192  11.171  13.266
27221SOL    HW183560   1.218  11.261  13.287
27221SOL    HW283561   1.109  11.180  13.220
27222SOL     OW83562  13.093  12.463  11.668
27222SOL    HW183563  13.112  12.422  11.583
27222SOL    HW283564  13.056  12.548  11.646
27223SOL     OW83565  10.912   1.007   8.218
27223SOL    HW183566  10.914   0.982   8.125
27223SOL    HW283567  10.819   1.019   8.238
27224SOL     OW83568   6.071  12.992  13.005
27224SOL    HW183569   6.005  12.951  13.061
27224SOL    HW283570   6.074  12.936  12.927
27225SOL     OW83571   1.741  11.854   7.424
27225SOL    HW183572   1.664  11.806   7.452
27225SOL    HW283573   1.732  11.861   7.329
27226SOL     OW83574   4.285   5.926  10.038
27226SOL    HW183575   4.252   5.939   9.949
27226SOL    HW283576   4.330   6.007  10.060
27227SOL     OW83577   9.319   5.319   1.510
27227SOL    HW183578   9.305   5.410   1.534
27227SOL    HW283579   9.314   5.271   1.593
27228SOL     OW83580   7.963   6.585   5.989
27228SOL    HW183581   8.046   6.564   6.031
27228SOL    HW283582   7.905   6.609   6.061
27229SOL     OW83583   5.003   2.062  11.737
27229SOL    HW183584   4.955   2.139  11.769
27229SOL    HW283585   4.962   2.042  11.653
27230SOL     OW83586   1.824   6.122   6.754
27230SOL    HW183587   1.758   6.065   6.793
27230SOL    HW283588   1.907   6.078   6.774
27231SOL     OW83589  13.875  12.497   6.040
27231SOL    HW183590  13.867  12.547   5.960
27231SOL    HW283591  13.815  12.539   6.102
27232SOL     OW83592   8.376   8.863   1.987
27232SOL    HW183593   8.292   8.909   1.987
27232SOL    HW283594   8.365   8.793   2.051
27233SOL     OW83595   3.079  11.689   5.286
27233SOL    HW183596   3.136  11.689   5.362
27233SOL    HW283597   3.079  11.780   5.256
27234SOL     OW83598   7.102   0.934   7.353
27234SOL    HW183599   7.125   1.018   7.392
27234SOL    HW283600   7.025   0.953   7.299
27235SOL     OW83601   4.436   0.146  14.296
27235SOL    HW183602   4.350   0.158  14.337
27235SOL    HW283603   4.457   0.054  14.312
27236SOL     OW83604  12.611   2.032  12.786
27236SOL    HW183605  12.516   2.025  12.776
27236SOL    HW283606  12.623   2.106  12.845
27237SOL     OW83607  13.728   9.602   1.462
27237SOL    HW183608  13.633   9.602   1.479
27237SOL    HW283609  13.756   9.513   1.483
27238SOL     OW83610   2.773   3.323   8.133
27238SOL    HW183611   2.805   3.395   8.187
27238SOL    HW283612   2.847   3.300   8.077
27239SOL     OW83613   4.989   4.734   7.711
27239SOL    HW183614   4.927   4.684   7.765
27239SOL    HW283615   4.949   4.735   7.624
27240SOL     OW83616  14.010  13.633  14.475
27240SOL    HW183617  14.102  13.625  14.450
27240SOL    HW283618  13.964  13.569  14.420
27241SOL     OW83619   5.239   2.969   8.115
27241SOL    HW183620   5.242   2.990   8.022
27241SOL    HW283621   5.324   2.928   8.133
27242SOL     OW83622   9.919  10.550   9.449
27242SOL    HW183623   9.851  10.602   9.491
27242SOL    HW283624   9.999  10.572   9.497
27243SOL     OW83625  12.225  13.287   4.264
27243SOL    HW183626  12.202  13.234   4.340
27243SOL    HW283627  12.321  13.290   4.265
27244SOL     OW83628   9.082   2.632   4.871
27244SOL    HW183629   9.117   2.696   4.809
27244SOL    HW283630   9.003   2.674   4.905
27245SOL     OW83631   9.565   2.578   6.128
27245SOL    HW183632   9.636   2.560   6.190
27245SOL    HW283633   9.576   2.513   6.059
27246SOL     OW83634   4.941   6.373   2.644
27246SOL    HW183635   5.019   6.330   2.608
27246SOL    HW283636   4.946   6.356   2.738
27247SOL     OW83637   2.218  11.123   2.332
27247SOL    HW183638   2.305  11.099   2.364
27247SOL    HW283639   2.173  11.039   2.321
27248SOL     OW83640  14.505   1.901   0.241
27248SOL    HW183641  14.468   1.853   0.315
27248SOL    HW283642  14.593   1.927   0.270
27249SOL     OW83643   3.692  13.524  11.371
27249SOL    HW183644   3.666  13.610  11.337
27249SOL    HW283645   3.620  13.466  11.346
27250SOL     OW83646   2.959   5.190  12.735
27250SOL    HW183647   3.036   5.135  12.718
27250SOL    HW283648   2.914   5.195  12.651
27251SOL     OW83649   2.819   1.298  11.422
27251SOL    HW183650   2.849   1.295  11.513
27251SOL    HW283651   2.751   1.231  11.417
27252SOL     OW83652  12.871   1.592  11.403
27252SOL    HW183653  12.949   1.537  11.405
27252SOL    HW283654  12.800   1.533  11.429
27253SOL     OW83655   7.741   5.617   2.735
27253SOL    HW183656   7.659   5.580   2.768
27253SOL    HW283657   7.720   5.643   2.645
27254SOL     OW83658   7.469  14.289   0.798
27254SOL    HW183659   7.498  14.236   0.724
27254SOL    HW283660   7.544  14.291   0.857
27255SOL     OW83661   9.291   6.713   9.066
27255SOL    HW183662   9.270   6.806   9.057
27255SOL    HW283663   9.207   6.668   9.058
27256SOL     OW83664  12.647   3.236  11.982
27256SOL    HW183665  12.561   3.197  11.993
27256SOL    HW283666  12.664   3.232  11.888
27257SOL     OW83667   7.615   1.713   8.770
27257SOL    HW183668   7.624   1.806   8.791
27257SOL    HW283669   7.520   1.698   8.770
27258SOL     OW83670  14.232  10.725   6.344
27258SOL    HW183671  14.248  10.662   6.274
27258SOL    HW283672  14.318  10.739   6.384
27259SOL     OW83673   7.149   3.455   0.752
27259SOL    HW183674   7.055   3.444   0.767
27259SOL    HW283675   7.181   3.366   0.736
27260SOL     OW83676   2.042  14.827  10.265
27260SOL    HW183677   1.965  14.876  10.238
27260SOL    HW283678   2.078  14.792  10.184
27261SOL     OW83679   4.424   7.301  12.930
27261SOL    HW183680   4.430   7.301  12.835
27261SOL    HW283681   4.456   7.388  12.956
27262SOL     OW83682   0.096  11.765   3.548
27262SOL    HW183683   0.036  11.691   3.544
27262SOL    HW283684   0.182  11.725   3.560
27263SOL     OW83685  13.144   5.272   7.969
27263SOL    HW183686  13.182   5.244   7.886
27263SOL    HW283687  13.058   5.308   7.945
27264SOL     OW83688  13.301   8.918   3.391
27264SOL    HW183689  13.213   8.881   3.405
27264SOL    HW283690  13.302   8.943   3.299
27265SOL     OW83691   7.719   6.385  12.890
27265SOL    HW183692   7.774   6.357  12.817
27265SOL    HW283693   7.776   6.439  12.944
27266SOL     OW83694   9.784   7.494   9.696
27266SOL    HW183695   9.765   7.538   9.779
27266SOL    HW283696   9.878   7.477   9.698
27267SOL     OW83697   9.177   8.117   4.606
27267SOL    HW183698   9.231   8.040   4.588
27267SOL    HW283699   9.207   8.149   4.691
27268SOL     OW83700   0.913  13.028   1.124
27268SOL    HW183701   0.854  13.038   1.199
27268SOL    HW283702   0.916  12.933   1.108
27269SOL     OW83703  11.249   6.064  14.294
27269SOL    HW183704  11.295   6.035  14.373
27269SOL    HW283705  11.236   6.158  14.307
27270SOL     OW83706   6.405  14.642  10.869
27270SOL    HW183707   6.393  14.729  10.830
27270SOL    HW283708   6.347  14.585  10.819
27271SOL     OW83709   7.106   5.008  11.972
27271SOL    HW183710   7.044   4.938  11.993
27271SOL    HW283711   7.148   5.029  12.056
27272SOL     OW83712  12.807   1.252   1.687
27272SOL    HW183713  12.847   1.171   1.658
27272SOL    HW283714  12.763   1.229   1.770
27273SOL     OW83715   5.431   3.567   4.257
27273SOL    HW183716   5.524   3.544   4.266
27273SOL    HW283717   5.420   3.585   4.164
27274SOL     OW83718  14.679  13.798  10.030
27274SOL    HW183719  14.664  13.887  10.060
27274SOL    HW283720  14.616  13.786   9.958
27275SOL     OW83721  10.249   8.746   1.802
27275SOL    HW183722  10.179   8.810   1.813
27275SOL    HW283723  10.237   8.685   1.875
27276SOL     OW83724  11.276  13.703   0.929
27276SOL    HW183725  11.228  13.703   0.846
27276SOL    HW283726  11.348  13.643   0.915
27277SOL     OW83727   4.166  10.917   4.980
27277SOL    HW183728   4.203  10.922   5.068
27277SOL    HW283729   4.201  10.835   4.944
27278SOL     OW83730   4.931  13.519   9.292
27278SOL    HW183731   4.925  13.590   9.357
27278SOL    HW283732   4.975  13.448   9.339
27279SOL     OW83733  11.028   5.527  10.019
27279SOL    HW183734  11.118   5.521  10.050
27279SOL    HW283735  11.027   5.480   9.936
27280SOL     OW83736   0.658   5.241   2.082
27280SOL    HW183737   0.568   5.264   2.103
27280SOL    HW283738   0.651   5.162   2.028
27281SOL     OW83739  14.377  10.381   8.011
27281SOL    HW183740  14.319  10.393   7.935
27281SOL    HW283741  14.396  10.288   8.011
27282SOL     OW83742   6.324   5.316   7.100
27282SOL    HW183743   6.277   5.295   7.019
27282SOL    HW283744   6.411   5.343   7.070
27283SOL     OW83745   2.783   6.097   5.758
27283SOL    HW183746   2.818   6.125   5.843
27283SOL    HW283747   2.800   6.003   5.754
27284SOL     OW83748   2.356   9.676  11.487
27284SOL    HW183749   2.370   9.644  11.576
27284SOL    HW283750   2.443   9.687  11.451
27285SOL     OW83751  11.859  10.023  10.440
27285SOL    HW183752  11.953  10.043  10.442
27285SOL    HW283753  11.820  10.096  10.392
27286SOL     OW83754   5.505   2.280  13.455
27286SOL    HW183755   5.436   2.307  13.395
27286SOL    HW283756   5.580   2.261  13.398
27287SOL     OW83757   8.717   8.380   6.142
27287SOL    HW183758   8.696   8.462   6.186
27287SOL    HW283759   8.701   8.399   6.049
27288SOL     OW83760   3.073   3.343  11.538
27288SOL    HW183761   3.026   3.412  11.586
27288SOL    HW283762   3.035   3.262  11.572
27289SOL     OW83763   6.242   2.129   7.928
27289SOL    HW183764   6.223   2.201   7.868
27289SOL    HW283765   6.164   2.073   7.925
27290SOL     OW83766   6.350   2.372  10.440
27290SOL    HW183767   6.298   2.450  10.459
27290SOL    HW283768   6.351   2.367  10.344
27291SOL     OW83769  10.199  11.046   5.121
27291SOL    HW183770  10.282  11.040   5.169
27291SOL    HW283771  10.176  11.139   5.126
27292SOL     OW83772   7.054   4.586  13.162
27292SOL    HW183773   7.050   4.574  13.256
27292SOL    HW283774   7.145   4.613  13.145
27293SOL     OW83775  10.744   4.849   8.505
27293SOL    HW183776  10.689   4.882   8.576
27293SOL    HW283777  10.694   4.777   8.467
27294SOL     OW83778   8.417   6.736  10.158
27294SOL    HW183779   8.332   6.701  10.131
27294SOL    HW283780   8.397   6.787  10.237
27295SOL     OW83781   2.036   5.697   9.943
27295SOL    HW183782   2.019   5.678  10.035
27295SOL    HW283783   2.040   5.792   9.938
27296SOL     OW83784   3.471   9.933  13.332
27296SOL    HW183785   3.512  10.017  13.314
27296SOL    HW283786   3.528   9.868  13.291
27297SOL     OW83787  11.270  10.567   7.175
27297SOL    HW183788  11.218  10.520   7.110
27297SOL    HW283789  11.317  10.499   7.222
27298SOL     OW83790   2.391   4.375   1.856
27298SOL    HW183791   2.320   4.313   1.844
27298SOL    HW283792   2.352   4.448   1.903
27299SOL     OW83793   9.037   8.946   5.784
27299SOL    HW183794   9.059   8.869   5.732
27299SOL    HW283795   8.941   8.950   5.782
27300SOL     OW83796   1.858  13.545  10.233
27300SOL    HW183797   1.891  13.635  10.242
27300SOL    HW283798   1.851  13.513  10.323
27301SOL     OW83799   2.411   9.181   7.317
27301SOL    HW183800   2.488   9.126   7.334
27301SOL    HW283801   2.446   9.256   7.270
27302SOL     OW83802   1.438   6.311   5.495
27302SOL    HW183803   1.518   6.360   5.482
27302SOL    HW283804   1.388   6.362   5.559
27303SOL     OW83805   5.780   2.938   6.746
27303SOL    HW183806   5.809   3.003   6.810
27303SOL    HW283807   5.856   2.883   6.731
27304SOL     OW83808   9.713   9.973   7.688
27304SOL    HW183809   9.739  10.033   7.618
27304SOL    HW283810   9.634   9.930   7.655
27305SOL     OW83811   7.351   5.138   0.299
27305SOL    HW183812   7.387   5.159   0.385
27305SOL    HW283813   7.315   5.221   0.267
27306SOL     OW83814   6.063  12.851  10.402
27306SOL    HW183815   6.149  12.816  10.378
27306SOL    HW283816   6.064  12.942  10.373
27307SOL     OW83817   8.263  14.637   2.917
27307SOL    HW183818   8.211  14.700   2.866
27307SOL    HW283819   8.214  14.555   2.910
27308SOL     OW83820   9.838   9.108   4.340
27308SOL    HW183821   9.824   9.013   4.349
27308SOL    HW283822   9.833   9.124   4.246
27309SOL     OW83823   8.114  14.562   2.043
27309SOL    HW183824   8.119  14.622   1.968
27309SOL    HW283825   8.196  14.577   2.090
27310SOL     OW83826   1.003   9.070  12.035
27310SOL    HW183827   1.029   9.120  12.112
27310SOL    HW283828   1.031   9.123  11.961
27311SOL     OW83829   1.258  11.929   1.123
27311SOL    HW183830   1.256  11.918   1.218
27311SOL    HW283831   1.310  11.855   1.091
27312SOL     OW83832   0.283   6.053  13.108
27312SOL    HW183833   0.371   6.061  13.146
27312SOL    HW283834   0.297   6.064  13.014
27313SOL     OW83835   6.670   3.207  12.056
27313SOL    HW183836   6.702   3.220  11.967
27313SOL    HW283837   6.584   3.169  12.046
27314SOL     OW83838   3.673   8.219   7.751
27314SOL    HW183839   3.753   8.239   7.799
27314SOL    HW283840   3.688   8.133   7.712
27315SOL     OW83841  13.965  14.300   1.624
27315SOL    HW183842  14.048  14.275   1.664
27315SOL    HW283843  13.944  14.384   1.664
27316SOL     OW83844   3.498   4.970  10.947
27316SOL    HW183845   3.458   4.922  10.875
27316SOL    HW283846   3.436   5.040  10.966
27317SOL     OW83847   9.984  14.351   8.279
27317SOL    HW183848   9.959  14.432   8.235
27317SOL    HW283849   9.913  14.335   8.341
27318SOL     OW83850   6.961   3.613   9.165
27318SOL    HW183851   6.911   3.641   9.088
27318SOL    HW283852   6.894   3.598   9.232
27319SOL     OW83853   8.460  10.702  11.206
27319SOL    HW183854   8.483  10.754  11.129
27319SOL    HW283855   8.368  10.680  11.194
27320SOL     OW83856   5.533   3.114   7.966
27320SOL    HW183857   5.457   3.137   7.913
27320SOL    HW283858   5.567   3.034   7.926
27321SOL     OW83859   5.873   1.729   7.702
27321SOL    HW183860   5.913   1.680   7.774
27321SOL    HW283861   5.935   1.719   7.630
27322SOL     OW83862  14.546   6.291   8.388
27322SOL    HW183863  14.616   6.341   8.431
27322SOL    HW283864  14.482   6.357   8.362
27323SOL     OW83865  11.191  14.132   8.625
27323SOL    HW183866  11.271  14.098   8.586
27323SOL    HW283867  11.208  14.226   8.637
27324SOL     OW83868   0.252  13.401   3.714
27324SOL    HW183869   0.228  13.489   3.742
27324SOL    HW283870   0.339  13.387   3.752
27325SOL     OW83871   0.554  11.709   2.716
27325SOL    HW183872   0.575  11.619   2.689
27325SOL    HW283873   0.514  11.748   2.638
27326SOL     OW83874  13.400  11.654   9.451
27326SOL    HW183875  13.324  11.669   9.506
27326SOL    HW283876  13.364  11.630   9.366
27327SOL     OW83877   4.591   4.197  11.729
27327SOL    HW183878   4.539   4.250  11.789
27327SOL    HW283879   4.538   4.190  11.650
27328SOL     OW83880   1.160   0.982   4.445
27328SOL    HW183881   1.233   0.941   4.399
27328SOL    HW283882   1.172   1.076   4.431
27329SOL     OW83883   4.458   1.160   6.898
27329SOL    HW183884   4.381   1.181   6.847
27329SOL    HW283885   4.425   1.144   6.987
27330SOL     OW83886   3.470   9.039   5.373
27330SOL    HW183887   3.406   8.986   5.325
27330SOL    HW283888   3.549   8.985   5.376
27331SOL     OW83889   2.559   8.910   6.106
27331SOL    HW183890   2.529   8.996   6.132
27331SOL    HW283891   2.643   8.926   6.063
27332SOL     OW83892   9.639   2.302   7.699
27332SOL    HW183893   9.669   2.392   7.717
27332SOL    HW283894   9.544   2.310   7.691
27333SOL     OW83895   1.032  10.333  13.075
27333SOL    HW183896   1.091  10.258  13.087
27333SOL    HW283897   1.091  10.409  13.071
27334SOL     OW83898   3.911  14.225   4.151
27334SOL    HW183899   3.999  14.212   4.185
27334SOL    HW283900   3.854  14.203   4.225
27335SOL     OW83901   8.872   9.706   3.702
27335SOL    HW183902   8.819   9.629   3.719
27335SOL    HW283903   8.955   9.688   3.746
27336SOL     OW83904   3.401   4.932  12.866
27336SOL    HW183905   3.394   4.948  12.960
27336SOL    HW283906   3.484   4.972  12.840
27337SOL     OW83907  10.819  11.275  12.146
27337SOL    HW183908  10.841  11.292  12.054
27337SOL    HW283909  10.879  11.331  12.195
27338SOL     OW83910  14.329  14.139  10.167
27338SOL    HW183911  14.336  14.080  10.242
27338SOL    HW283912  14.296  14.221  10.204
27339SOL     OW83913   1.619   9.206   0.462
27339SOL    HW183914   1.651   9.117   0.474
27339SOL    HW283915   1.546   9.197   0.401
27340SOL     OW83916   1.087   9.219  11.287
27340SOL    HW183917   1.041   9.169  11.219
27340SOL    HW283918   1.043   9.195  11.368
27341SOL     OW83919  12.673   2.507   2.109
27341SOL    HW183920  12.752   2.556   2.088
27341SOL    HW283921  12.693   2.464   2.193
27342SOL     OW83922   1.179   8.265  14.843
27342SOL    HW183923   1.145   8.207  14.776
27342SOL    HW283924   1.265   8.229  14.865
27343SOL     OW83925   4.621   4.326   7.605
27343SOL    HW183926   4.644   4.364   7.521
27343SOL    HW283927   4.645   4.234   7.597
27344SOL     OW83928   7.414   9.971  13.399
27344SOL    HW183929   7.387   9.964  13.308
27344SOL    HW283930   7.495  10.022  13.397
27345SOL     OW83931   8.227   5.058   3.215
27345SOL    HW183932   8.254   5.006   3.140
27345SOL    HW283933   8.131   5.050   3.217
27346SOL     OW83934   0.601   8.606   4.700
27346SOL    HW183935   0.674   8.554   4.665
27346SOL    HW283936   0.576   8.663   4.627
27347SOL     OW83937  12.412   7.679   1.826
27347SOL    HW183938  12.355   7.651   1.755
27347SOL    HW283939  12.472   7.741   1.786
27348SOL     OW83940  12.926   5.602  12.906
27348SOL    HW183941  12.942   5.535  12.838
27348SOL    HW283942  12.952   5.559  12.988
27349SOL     OW83943   4.380   3.111   0.930
27349SOL    HW183944   4.412   3.186   0.879
27349SOL    HW283945   4.388   3.139   1.021
27350SOL     OW83946  10.747   4.089   2.986
27350SOL    HW183947  10.732   4.000   3.019
27350SOL    HW283948  10.681   4.102   2.918
27351SOL     OW83949  10.255  13.509   1.748
27351SOL    HW183950  10.250  13.592   1.795
27351SOL    HW283951  10.243  13.442   1.815
27352SOL     OW83952  10.206   7.923  14.176
27352SOL    HW183953  10.259   7.995  14.210
27352SOL    HW283954  10.123   7.964  14.152
27353SOL     OW83955   1.863   0.338   3.503
27353SOL    HW183956   1.806   0.296   3.567
27353SOL    HW283957   1.937   0.370   3.554
27354SOL     OW83958   1.200   1.380   7.186
27354SOL    HW183959   1.129   1.386   7.250
27354SOL    HW283960   1.202   1.466   7.143
27355SOL     OW83961  13.487   1.358   8.949
27355SOL    HW183962  13.539   1.335   8.872
27355SOL    HW283963  13.514   1.447   8.971
27356SOL     OW83964  10.550   6.042  12.807
27356SOL    HW183965  10.623   5.994  12.846
27356SOL    HW283966  10.545   6.123  12.858
27357SOL     OW83967   5.445  10.998   8.648
27357SOL    HW183968   5.364  10.952   8.628
27357SOL    HW283969   5.514  10.939   8.617
27358SOL     OW83970  14.565  10.944  10.866
27358SOL    HW183971  14.624  10.872  10.889
27358SOL    HW283972  14.477  10.907  10.872
27359SOL     OW83973   0.757   4.364   5.941
27359SOL    HW183974   0.665   4.346   5.921
27359SOL    HW283975   0.776   4.309   6.018
27360SOL     OW83976   0.886  11.185   2.344
27360SOL    HW183977   0.861  11.277   2.334
27360SOL    HW283978   0.872  11.166   2.437
27361SOL     OW83979   7.948   2.584  13.290
27361SOL    HW183980   8.000   2.598  13.211
27361SOL    HW283981   7.944   2.489  13.299
27362SOL     OW83982   2.746   4.003   3.639
27362SOL    HW183983   2.731   4.095   3.619
27362SOL    HW283984   2.776   3.965   3.556
27363SOL     OW83985   9.779   5.773   0.605
27363SOL    HW183986   9.834   5.840   0.564
27363SOL    HW283987   9.787   5.697   0.547
27364SOL     OW83988   4.275   5.269  12.281
27364SOL    HW183989   4.303   5.358  12.262
27364SOL    HW283990   4.180   5.275  12.294
27365SOL     OW83991  14.595   1.644  14.282
27365SOL    HW183992  14.631   1.590  14.211
27365SOL    HW283993  14.548   1.714  14.238
27366SOL     OW83994   1.715   7.836  12.288
27366SOL    HW183995   1.789   7.841  12.228
27366SOL    HW283996   1.693   7.743  12.291
27367SOL     OW83997   8.216   2.673   2.906
27367SOL    HW183998   8.129   2.688   2.868
27367SOL    HW283999   8.248   2.595   2.861
27368SOL     OW84000  10.019   0.408  12.024
27368SOL    HW184001  10.047   0.320  12.049
27368SOL    HW284002   9.968   0.395  11.945
27369SOL     OW84003   4.407   3.287  13.756
27369SOL    HW184004   4.500   3.266  13.743
27369SOL    HW284005   4.395   3.279  13.851
27370SOL     OW84006   1.408   9.212  12.935
27370SOL    HW184007   1.314   9.229  12.936
27370SOL    HW284008   1.446   9.280  12.990
27371SOL     OW84009   5.164   8.667   4.319
27371SOL    HW184010   5.144   8.729   4.249
27371SOL    HW284011   5.185   8.721   4.395
27372SOL     OW84012  10.876   4.599  13.552
27372SOL    HW184013  10.920   4.547  13.619
27372SOL    HW284014  10.785   4.603  13.580
27373SOL     OW84015   1.363   7.189   2.774
27373SOL    HW184016   1.380   7.116   2.834
27373SOL    HW284017   1.444   7.240   2.774
27374SOL     OW84018   7.821   9.834   7.703
27374SOL    HW184019   7.895   9.785   7.740
27374SOL    HW284020   7.779   9.874   7.779
27375SOL     OW84021   6.831   0.776  14.770
27375SOL    HW184022   6.762   0.767  14.704
27375SOL    HW284023   6.913   0.767  14.722
27376SOL     OW84024  12.249   4.304   2.534
27376SOL    HW184025  12.251   4.380   2.475
27376SOL    HW284026  12.157   4.294   2.558
27377SOL     OW84027   0.063  12.015   1.938
27377SOL    HW184028  14.861  12.015   1.984
27377SOL    HW284029   0.121  11.967   1.997
27378SOL     OW84030   6.969   3.865   5.654
27378SOL    HW184031   6.961   3.772   5.674
27378SOL    HW284032   6.949   3.871   5.560
27379SOL     OW84033  12.382  11.149  10.496
27379SOL    HW184034  12.420  11.062  10.501
27379SOL    HW284035  12.328  11.157  10.574
27380SOL     OW84036   4.745  13.333   8.162
27380SOL    HW184037   4.771  13.421   8.189
27380SOL    HW284038   4.787  13.319   8.078
27381SOL     OW84039   0.376   5.115   9.125
27381SOL    HW184040   0.390   5.185   9.061
27381SOL    HW284041   0.363   5.037   9.072
27382SOL     OW84042   3.379  12.818   7.187
27382SOL    HW184043   3.463  12.834   7.143
27382SOL    HW284044   3.393  12.738   7.238
27383SOL     OW84045   9.839   6.104   7.393
27383SOL    HW184046   9.820   6.011   7.401
27383SOL    HW284047   9.897   6.123   7.466
27384SOL     OW84048  11.412  10.176   8.645
27384SOL    HW184049  11.493  10.226   8.650
27384SOL    HW284050  11.361  10.218   8.576
27385SOL     OW84051   4.002  10.037   2.777
27385SOL    HW184052   3.912  10.023   2.808
27385SOL    HW284053   4.006   9.987   2.696
27386SOL     OW84054   4.092  12.554  11.325
27386SOL    HW184055   4.139  12.511  11.254
27386SOL    HW284056   4.158  12.606  11.370
27387SOL     OW84057   1.039  11.326   8.910
27387SOL    HW184058   1.124  11.309   8.950
27387SOL    HW284059   1.052  11.312   8.816
27388SOL     OW84060   6.052  10.806   3.230
27388SOL    HW184061   6.022  10.804   3.139
27388SOL    HW284062   6.128  10.748   3.232
27389SOL     OW84063  11.495   8.702  14.490
27389SOL    HW184064  11.558   8.657  14.546
27389SOL    HW284065  11.484   8.788  14.530
27390SOL     OW84066   1.966  12.542   0.151
27390SOL    HW184067   1.944  12.629   0.115
27390SOL    HW284068   1.891  12.487   0.126
27391SOL     OW84069  13.217   4.470   4.563
27391SOL    HW184070  13.139   4.504   4.606
27391SOL    HW284071  13.237   4.533   4.494
27392SOL     OW84072  14.269   4.305   5.858
27392SOL    HW184073  14.255   4.221   5.901
27392SOL    HW284074  14.364   4.318   5.862
27393SOL     OW84075  14.176   0.189   5.875
27393SOL    HW184076  14.186   0.206   5.969
27393SOL    HW284077  14.081   0.190   5.861
27394SOL     OW84078   6.067   2.059  11.471
27394SOL    HW184079   6.120   1.980  11.481
27394SOL    HW284080   6.006   2.038  11.401
27395SOL     OW84081  14.051   1.362   4.680
27395SOL    HW184082  13.979   1.302   4.661
27395SOL    HW284083  14.105   1.362   4.601
27396SOL     OW84084   8.248  13.761  14.094
27396SOL    HW184085   8.302  13.784  14.169
27396SOL    HW284086   8.249  13.665  14.092
27397SOL     OW84087   5.060  12.399   1.096
27397SOL    HW184088   5.043  12.316   1.052
27397SOL    HW284089   5.061  12.463   1.024
27398SOL     OW84090   3.681  12.628   4.400
27398SOL    HW184091   3.707  12.582   4.480
27398SOL    HW284092   3.667  12.558   4.336
27399SOL     OW84093   5.181   7.286   0.174
27399SOL    HW184094   5.246   7.276   0.244
27399SOL    HW284095   5.156   7.379   0.177
27400SOL     OW84096   5.410   3.333  12.933
27400SOL    HW184097   5.421   3.240  12.914
27400SOL    HW284098   5.318   3.340  12.960
27401SOL     OW84099   0.970   2.243  13.993
27401SOL    HW184100   0.948   2.209  14.080
27401SOL    HW284101   0.896   2.300  13.970
27402SOL     OW84102   4.028   0.765   0.668
27402SOL    HW184103   4.078   0.727   0.740
27402SOL    HW284104   4.089   0.823   0.623
27403SOL     OW84105  13.864  12.409  11.046
27403SOL    HW184106  13.883  12.497  11.078
27403SOL    HW284107  13.804  12.372  11.111
27404SOL     OW84108   1.187  14.800  11.990
27404SOL    HW184109   1.147  14.842  11.915
27404SOL    HW284110   1.281  14.803  11.972
27405SOL     OW84111  10.273   6.503   4.744
27405SOL    HW184112  10.231   6.487   4.659
27405SOL    HW284113  10.200   6.511   4.806
27406SOL     OW84114   9.426  12.099   1.877
27406SOL    HW184115   9.501  12.060   1.922
27406SOL    HW284116   9.362  12.115   1.946
27407SOL     OW84117   5.332  11.850   0.113
27407SOL    HW184118   5.382  11.792   0.055
27407SOL    HW284119   5.379  11.848   0.196
27408SOL     OW84120  13.838   8.011   8.729
27408SOL    HW184121  13.770   7.944   8.729
27408SOL    HW284122  13.802   8.083   8.678
27409SOL     OW84123   8.573  13.313   1.027
27409SOL    HW184124   8.508  13.361   0.976
27409SOL    HW284125   8.561  13.221   1.001
27410SOL     OW84126   4.874   9.775   3.740
27410SOL    HW184127   4.931   9.770   3.664
27410SOL    HW284128   4.905   9.705   3.798
27411SOL     OW84129   6.910   5.354   1.997
27411SOL    HW184130   6.951   5.384   1.916
27411SOL    HW284131   6.912   5.430   2.055
27412SOL     OW84132   3.730  11.661  11.284
27412SOL    HW184133   3.689  11.576  11.267
27412SOL    HW284134   3.716  11.675  11.378
27413SOL     OW84135  13.873  13.683   7.504
27413SOL    HW184136  13.837  13.721   7.424
27413SOL    HW284137  13.956  13.729   7.518
27414SOL     OW84138   5.132  13.634  10.938
27414SOL    HW184139   5.131  13.701  11.007
27414SOL    HW284140   5.184  13.673  10.868
27415SOL     OW84141   6.711  11.555  12.067
27415SOL    HW184142   6.798  11.535  12.100
27415SOL    HW284143   6.703  11.504  11.986
27416SOL     OW84144   7.186  11.809  14.696
27416SOL    HW184145   7.129  11.838  14.767
27416SOL    HW284146   7.127  11.773  14.630
27417SOL     OW84147   9.437  12.823  14.229
27417SOL    HW184148   9.422  12.914  14.256
27417SOL    HW284149   9.349  12.789  14.212
27418SOL     OW84150  11.472   3.247   3.674
27418SOL    HW184151  11.522   3.308   3.728
27418SOL    HW284152  11.412   3.302   3.624
27419SOL     OW84153   5.869   1.527  13.937
27419SOL    HW184154   5.835   1.612  13.966
27419SOL    HW284155   5.799   1.465  13.956
27420SOL     OW84156   1.248  14.661  11.729
27420SOL    HW184157   1.287  14.686  11.645
27420SOL    HW284158   1.172  14.718  11.738
27421SOL     OW84159   4.765  14.017  10.797
27421SOL    HW184160   4.749  13.992  10.706
27421SOL    HW284161   4.835  14.082  10.792
27422SOL     OW84162  13.069   9.038   4.443
27422SOL    HW184163  13.040   9.079   4.362
27422SOL    HW284164  13.026   8.952   4.443
27423SOL     OW84165  11.912   4.992   8.546
27423SOL    HW184166  11.836   4.937   8.565
27423SOL    HW284167  11.881   5.081   8.560
27424SOL     OW84168   8.413   6.072   2.222
27424SOL    HW184169   8.331   6.067   2.174
27424SOL    HW284170   8.478   6.098   2.156
27425SOL     OW84171   7.448   5.854  11.081
27425SOL    HW184172   7.464   5.811  11.165
27425SOL    HW284173   7.355   5.876  11.082
27426SOL     OW84174  11.385  13.246   9.910
27426SOL    HW184175  11.415  13.295   9.833
27426SOL    HW284176  11.313  13.192   9.878
27427SOL     OW84177   6.304  11.473   9.593
27427SOL    HW184178   6.261  11.533   9.653
27427SOL    HW284179   6.301  11.388   9.638
27428SOL     OW84180   9.850  12.201   6.573
27428SOL    HW184181   9.854  12.264   6.502
27428SOL    HW284182   9.890  12.246   6.648
27429SOL     OW84183   7.405   1.732  10.114
27429SOL    HW184184   7.457   1.792  10.168
27429SOL    HW284185   7.328   1.713  10.168
27430SOL     OW84186  10.539   2.120   9.547
27430SOL    HW184187  10.476   2.144   9.614
27430SOL    HW284188  10.504   2.157   9.466
27431SOL     OW84189   0.880   5.894  10.268
27431SOL    HW184190   0.970   5.865  10.251
27431SOL    HW284191   0.885   5.939  10.352
27432SOL     OW84192   7.702   3.438  10.607
27432SOL    HW184193   7.618   3.467  10.572
27432SOL    HW284194   7.682   3.356  10.652
27433SOL     OW84195   4.604   5.039   3.405
27433SOL    HW184196   4.577   5.090   3.329
27433SOL    HW284197   4.686   5.079   3.433
27434SOL     OW84198   7.125   4.962   7.256
27434SOL    HW184199   7.076   4.902   7.312
27434SOL    HW284200   7.157   5.029   7.316
27435SOL     OW84201  10.212   4.179   3.738
27435SOL    HW184202  10.292   4.161   3.689
27435SOL    HW284203  10.241   4.192   3.828
27436SOL     OW84204   1.712   4.881  10.653
27436SOL    HW184205   1.717   4.929  10.570
27436SOL    HW284206   1.683   4.945  10.717
27437SOL     OW84207   7.810   6.943   6.021
27437SOL    HW184208   7.844   6.948   5.932
27437SOL    HW284209   7.736   7.003   6.022
27438SOL     OW84210   2.502   0.387   3.139
27438SOL    HW184211   2.506   0.362   3.232
27438SOL    HW284212   2.415   0.361   3.110
27439SOL     OW84213   3.643  12.590  13.252
27439SOL    HW184214   3.708  12.570  13.185
27439SOL    HW284215   3.568  12.626  13.203
27440SOL     OW84216  13.849  10.258   6.492
27440SOL    HW184217  13.831  10.171   6.458
27440SOL    HW284218  13.935  10.250   6.534
27441SOL     OW84219  10.572   4.736   5.359
27441SOL    HW184220  10.667   4.725   5.357
27441SOL    HW284221  10.558   4.828   5.335
27442SOL     OW84222   8.894   4.872   5.676
27442SOL    HW184223   8.875   4.881   5.769
27442SOL    HW284224   8.815   4.833   5.639
27443SOL     OW84225  14.438   6.668   3.718
27443SOL    HW184226  14.496   6.741   3.738
27443SOL    HW284227  14.349   6.705   3.725
27444SOL     OW84228   9.168   5.573   2.973
27444SOL    HW184229   9.205   5.656   2.943
27444SOL    HW284230   9.085   5.565   2.926
27445SOL     OW84231  13.361   3.952   5.170
27445SOL    HW184232  13.409   3.983   5.247
27445SOL    HW284233  13.428   3.914   5.113
27446SOL     OW84234  13.542   6.754   5.264
27446SOL    HW184235  13.571   6.666   5.287
27446SOL    HW284236  13.555   6.760   5.169
27447SOL     OW84237   9.994   7.272   2.188
27447SOL    HW184238   9.898   7.266   2.186
27447SOL    HW284239  10.018   7.299   2.099
27448SOL     OW84240  10.507  14.040   8.684
27448SOL    HW184241  10.489  14.059   8.592
27448SOL    HW284242  10.457  13.960   8.701
27449SOL     OW84243   1.211   4.966   4.887
27449SOL    HW184244   1.183   4.975   4.978
27449SOL    HW284245   1.273   5.038   4.873
27450SOL     OW84246   8.747   6.702   2.302
27450SOL    HW184247   8.816   6.728   2.364
27450SOL    HW284248   8.685   6.652   2.356
27451SOL     OW84249   8.872   6.471  14.004
27451SOL    HW184250   8.778   6.487  13.994
27451SOL    HW284251   8.879   6.422  14.087
27452SOL     OW84252   7.013   0.316   6.281
27452SOL    HW184253   6.943   0.318   6.346
27452SOL    HW284254   7.062   0.397   6.295
27453SOL     OW84255  13.238   0.034   9.494
27453SOL    HW184256  13.207   0.018   9.583
27453SOL    HW284257  13.278  14.833   9.467
27454SOL     OW84258   0.597  12.061  12.237
27454SOL    HW184259   0.594  12.078  12.331
27454SOL    HW284260   0.689  12.048  12.218
27455SOL     OW84261  10.361   9.405   2.018
27455SOL    HW184262  10.282   9.362   1.983
27455SOL    HW284263  10.423   9.333   2.030
27456SOL     OW84264  12.143  12.678   4.694
27456SOL    HW184265  12.051  12.704   4.696
27456SOL    HW284266  12.144  12.590   4.731
27457SOL     OW84267  11.786  10.822   0.052
27457SOL    HW184268  11.691  10.809   0.051
27457SOL    HW284269  11.819  10.752   0.109
27458SOL     OW84270   1.750   4.811  13.866
27458SOL    HW184271   1.751   4.780  13.956
27458SOL    HW284272   1.837   4.848  13.852
27459SOL     OW84273  10.784  11.034   5.642
27459SOL    HW184274  10.693  11.012   5.660
27459SOL    HW284275  10.835  10.976   5.699
27460SOL     OW84276   6.130   6.072  11.068
27460SOL    HW184277   6.187   6.100  11.140
27460SOL    HW284278   6.150   6.131  10.996
27461SOL     OW84279  13.765  11.954   4.925
27461SOL    HW184280  13.851  11.997   4.925
27461SOL    HW284281  13.716  12.000   4.993
27462SOL     OW84282  11.469   7.582   3.228
27462SOL    HW184283  11.381   7.566   3.194
27462SOL    HW284284  11.516   7.623   3.155
27463SOL     OW84285   0.630  14.477   2.546
27463SOL    HW184286   0.670  14.395   2.516
27463SOL    HW284287   0.695  14.544   2.527
27464SOL     OW84288   5.482   0.506   2.090
27464SOL    HW184289   5.442   0.588   2.061
27464SOL    HW284290   5.481   0.449   2.013
27465SOL     OW84291  10.541   8.269  12.811
27465SOL    HW184292  10.453   8.274  12.773
27465SOL    HW284293  10.527   8.267  12.905
27466SOL     OW84294   0.648   1.411  14.114
27466SOL    HW184295   0.735   1.386  14.084
27466SOL    HW284296   0.663   1.459  14.195
27467SOL     OW84297  13.189   2.663   8.622
27467SOL    HW184298  13.136   2.660   8.701
27467SOL    HW284299  13.213   2.572   8.606
27468SOL     OW84300   0.213   7.283  13.549
27468SOL    HW184301   0.266   7.204  13.558
27468SOL    HW284302   0.276   7.355  13.557
27469SOL     OW84303   7.334   8.545  11.611
27469SOL    HW184304   7.258   8.598  11.585
27469SOL    HW284305   7.354   8.493  11.533
27470SOL     OW84306   2.766   4.528  12.660
27470SOL    HW184307   2.677   4.518  12.627
27470SOL    HW284308   2.777   4.623  12.670
27471SOL     OW84309  13.897   4.464  11.876
27471SOL    HW184310  13.900   4.399  11.947
27471SOL    HW284311  13.897   4.411  11.796
27472SOL     OW84312   6.511   7.746   5.461
27472SOL    HW184313   6.446   7.796   5.510
27472SOL    HW284314   6.459   7.683   5.410
27473SOL     OW84315   5.879   4.104   5.711
27473SOL    HW184316   5.926   4.031   5.752
27473SOL    HW284317   5.856   4.073   5.624
27474SOL     OW84318  14.126  13.898   6.035
27474SOL    HW184319  14.059  13.964   6.050
27474SOL    HW284320  14.169  13.888   6.120
27475SOL     OW84321  10.112  13.397  10.093
27475SOL    HW184322  10.138  13.306  10.077
27475SOL    HW284323  10.178  13.430  10.154
27476SOL     OW84324   3.655  12.264  12.176
27476SOL    HW184325   3.718  12.330  12.146
27476SOL    HW284326   3.707  12.205  12.230
27477SOL     OW84327  12.405   3.630  14.279
27477SOL    HW184328  12.475   3.572  14.310
27477SOL    HW284329  12.337   3.570  14.247
27478SOL     OW84330  11.706   7.634   0.698
27478SOL    HW184331  11.783   7.578   0.707
27478SOL    HW284332  11.716   7.673   0.611
27479SOL     OW84333   1.554   0.790  13.924
27479SOL    HW184334   1.610   0.822  13.853
27479SOL    HW284335   1.580   0.843  14.000
27480SOL     OW84336   6.060   7.668   9.061
27480SOL    HW184337   6.127   7.630   9.118
27480SOL    HW284338   6.110   7.719   8.997
27481SOL     OW84339   0.035   7.021   3.394
27481SOL    HW184340   0.038   7.101   3.341
27481SOL    HW284341  14.830   7.022   3.433
27482SOL     OW84342  11.466  12.792  11.632
27482SOL    HW184343  11.416  12.834  11.563
27482SOL    HW284344  11.519  12.726  11.587
27483SOL     OW84345  12.515  12.160  14.880
27483SOL    HW184346  12.579  12.093  14.857
27483SOL    HW284347  12.567  12.239   0.013
27484SOL     OW84348   6.580   5.472  13.862
27484SOL    HW184349   6.671   5.479  13.893
27484SOL    HW284350   6.570   5.379  13.840
27485SOL     OW84351   0.803   7.041  10.448
27485SOL    HW184352   0.856   6.991  10.386
27485SOL    HW284353   0.849   7.031  10.532
27486SOL     OW84354   8.466  14.067  12.403
27486SOL    HW184355   8.396  14.125  12.374
27486SOL    HW284356   8.429  14.021  12.479
27487SOL     OW84357   1.274   3.632   0.232
27487SOL    HW184358   1.303   3.719   0.204
27487SOL    HW284359   1.208   3.649   0.299
27488SOL     OW84360  10.816  13.929   1.729
27488SOL    HW184361  10.741  13.869   1.724
27488SOL    HW284362  10.777  14.015   1.745
27489SOL     OW84363  10.635   1.730   0.171
27489SOL    HW184364  10.593   1.781   0.101
27489SOL    HW284365  10.698   1.790   0.210
27490SOL     OW84366   1.573   5.838  12.696
27490SOL    HW184367   1.571   5.926  12.659
27490SOL    HW284368   1.517   5.843  12.774
27491SOL     OW84369   7.948  13.591   2.977
27491SOL    HW184370   8.018  13.656   2.987
27491SOL    HW284371   7.988  13.509   3.006
27492SOL     OW84372  13.698  12.085  11.462
27492SOL    HW184373  13.756  12.063  11.389
27492SOL    HW284374  13.756  12.124  11.528
27493SOL     OW84375   9.471   9.447  12.263
27493SOL    HW184376   9.418   9.384  12.214
27493SOL    HW284377   9.557   9.406  12.270
27494SOL     OW84378   6.837   3.844   8.057
27494SOL    HW184379   6.888   3.836   8.138
27494SOL    HW284380   6.872   3.776   8.000
27495SOL     OW84381   3.058   8.970  10.371
27495SOL    HW184382   2.979   8.919  10.389
27495SOL    HW284383   3.046   9.051  10.420
27496SOL     OW84384   9.533   7.998   0.843
27496SOL    HW184385   9.565   7.945   0.771
27496SOL    HW284386   9.549   8.088   0.816
27497SOL     OW84387   9.691  10.701  11.158
27497SOL    HW184388   9.711  10.763  11.088
27497SOL    HW284389   9.768  10.644  11.162
27498SOL     OW84390   4.789   0.284   6.547
27498SOL    HW184391   4.868   0.244   6.584
27498SOL    HW284392   4.761   0.347   6.614
27499SOL     OW84393   9.427  10.328   7.686
27499SOL    HW184394   9.434  10.276   7.766
27499SOL    HW284395   9.342  10.303   7.648
27500SOL     OW84396   7.280  11.562   5.811
27500SOL    HW184397   7.289  11.648   5.769
27500SOL    HW284398   7.322  11.501   5.750
27501SOL     OW84399  14.132   4.008   9.197
27501SOL    HW184400  14.089   3.923   9.193
27501SOL    HW284401  14.108   4.052   9.116
27502SOL     OW84402   5.600   2.659   7.706
27502SOL    HW184403   5.637   2.571   7.710
27502SOL    HW284404   5.523   2.651   7.649
27503SOL     OW84405  12.933  14.158  14.630
27503SOL    HW184406  13.009  14.204  14.593
27503SOL    HW284407  12.900  14.106  14.557
27504SOL     OW84408   9.878  10.704  11.608
27504SOL    HW184409   9.821  10.780  11.620
27504SOL    HW284410   9.820  10.634  11.579
27505SOL     OW84411   1.750   9.843   8.056
27505SOL    HW184412   1.662   9.880   8.059
27505SOL    HW284413   1.806   9.912   8.092
27506SOL     OW84414   8.726  14.639   6.425
27506SOL    HW184415   8.683  14.557   6.401
27506SOL    HW284416   8.818  14.627   6.400
27507SOL     OW84417  14.078  10.387   3.398
27507SOL    HW184418  14.125  10.470   3.394
27507SOL    HW284419  14.125  10.330   3.338
27508SOL     OW84420   0.685  11.014   0.435
27508SOL    HW184421   0.660  10.975   0.350
27508SOL    HW284422   0.780  11.002   0.439
27509SOL     OW84423   8.324   2.639   4.034
27509SOL    HW184424   8.361   2.711   3.982
27509SOL    HW284425   8.242   2.674   4.069
27510SOL     OW84426   4.575   2.280   4.961
27510SOL    HW184427   4.497   2.326   4.991
27510SOL    HW284428   4.638   2.350   4.944
27511SOL     OW84429   3.948   1.787   6.670
27511SOL    HW184430   3.948   1.691   6.668
27511SOL    HW284431   4.008   1.809   6.741
27512SOL     OW84432  13.695  10.582   4.755
27512SOL    HW184433  13.627  10.649   4.761
27512SOL    HW284434  13.662  10.518   4.693
27513SOL     OW84435  14.870   7.350  10.408
27513SOL    HW184436  14.797   7.330  10.468
27513SOL    HW284437   0.023   7.432  10.441
27514SOL     OW84438   6.365  13.341   0.557
27514SOL    HW184439   6.331  13.255   0.531
27514SOL    HW284440   6.290  13.387   0.594
27515SOL     OW84441  10.506  14.093   3.559
27515SOL    HW184442  10.586  14.093   3.508
27515SOL    HW284443  10.509  14.011   3.609
27516SOL     OW84444   4.945   6.683   0.295
27516SOL    HW184445   5.018   6.704   0.353
27516SOL    HW284446   4.967   6.726   0.212
27517SOL     OW84447  12.212   9.935   8.425
27517SOL    HW184448  12.190   9.885   8.346
27517SOL    HW284449  12.283   9.886   8.466
27518SOL     OW84450   6.312   6.652   9.714
27518SOL    HW184451   6.330   6.562   9.686
27518SOL    HW284452   6.287   6.644   9.806
27519SOL     OW84453   0.905  10.910   5.334
27519SOL    HW184454   0.868  10.899   5.246
27519SOL    HW284455   0.847  10.860   5.391
27520SOL     OW84456   2.780  10.169   0.003
27520SOL    HW184457   2.829  10.087   0.009
27520SOL    HW284458   2.707  10.157   0.065
27521SOL     OW84459   4.305   8.834   6.417
27521SOL    HW184460   4.375   8.882   6.373
27521SOL    HW284461   4.316   8.743   6.389
27522SOL     OW84462   8.838   2.077   2.346
27522SOL    HW184463   8.817   1.994   2.389
27522SOL    HW284464   8.754   2.123   2.342
27523SOL     OW84465  14.773  11.510   2.934
27523SOL    HW184466  14.698  11.553   2.892
27523SOL    HW284467  14.756  11.417   2.923
27524SOL     OW84468   7.100   5.047  12.685
27524SOL    HW184469   7.006   5.061  12.696
27524SOL    HW284470   7.115   4.960  12.722
27525SOL     OW84471   9.158   3.639   2.023
27525SOL    HW184472   9.156   3.579   2.097
27525SOL    HW284473   9.070   3.678   2.021
27526SOL     OW84474   0.156  11.949  14.545
27526SOL    HW184475   0.183  11.921  14.633
27526SOL    HW284476   0.139  11.867  14.499
27527SOL     OW84477  10.397   0.306   8.324
27527SOL    HW184478  10.404   0.212   8.310
27527SOL    HW284479  10.488   0.336   8.332
27528SOL     OW84480   1.237   6.242   9.557
27528SOL    HW184481   1.295   6.171   9.584
27528SOL    HW284482   1.296   6.307   9.517
27529SOL     OW84483  12.147  13.960  12.961
27529SOL    HW184484  12.158  14.036  12.904
27529SOL    HW284485  12.133  13.887  12.901
27530SOL     OW84486   0.804   3.134  13.090
27530SOL    HW184487   0.792   3.050  13.047
27530SOL    HW284488   0.811   3.113  13.183
27531SOL     OW84489   6.346   8.347  13.877
27531SOL    HW184490   6.337   8.357  13.783
27531SOL    HW284491   6.261   8.314  13.906
27532SOL     OW84492   2.578   0.206   2.856
27532SOL    HW184493   2.530   0.266   2.913
27532SOL    HW284494   2.520   0.194   2.780
27533SOL     OW84495  12.556   2.516   3.099
27533SOL    HW184496  12.630   2.474   3.057
27533SOL    HW284497  12.553   2.478   3.187
27534SOL     OW84498  12.950  12.083  10.577
27534SOL    HW184499  12.908  12.084  10.492
27534SOL    HW284500  13.033  12.036  10.563
27535SOL     OW84501   9.108  10.371   9.448
27535SOL    HW184502   9.041  10.440   9.449
27535SOL    HW284503   9.122  10.350   9.540
27536SOL     OW84504  11.351   2.402   0.610
27536SOL    HW184505  11.430   2.425   0.563
27536SOL    HW284506  11.347   2.465   0.682
27537SOL     OW84507   8.100  13.005  14.217
27537SOL    HW184508   8.154  12.970  14.289
27537SOL    HW284509   8.036  13.061  14.261
27538SOL     OW84510   3.134   6.575   0.415
27538SOL    HW184511   3.050   6.609   0.385
27538SOL    HW284512   3.149   6.497   0.360
27539SOL     OW84513   5.044   7.311   3.722
27539SOL    HW184514   5.130   7.348   3.704
27539SOL    HW284515   5.049   7.279   3.811
27540SOL     OW84516  11.991   3.079  10.994
27540SOL    HW184517  11.913   3.134  11.003
27540SOL    HW284518  12.044   3.123  10.927
27541SOL     OW84519   4.202   6.329   5.146
27541SOL    HW184520   4.112   6.328   5.111
27541SOL    HW284521   4.198   6.392   5.218
27542SOL     OW84522   1.631   8.156   7.568
27542SOL    HW184523   1.546   8.115   7.553
27542SOL    HW284524   1.624   8.196   7.654
27543SOL     OW84525  10.628   9.509   2.992
27543SOL    HW184526  10.565   9.515   2.920
27543SOL    HW284527  10.620   9.418   3.023
27544SOL     OW84528   4.427   4.343  14.586
27544SOL    HW184529   4.503   4.358  14.643
27544SOL    HW284530   4.432   4.250  14.565
27545SOL     OW84531   4.858   6.079   8.239
27545SOL    HW184532   4.953   6.082   8.252
27545SOL    HW284533   4.846   6.035   8.155
27546SOL     OW84534   8.429   0.282  12.845
27546SOL    HW184535   8.336   0.284  12.867
27546SOL    HW284536   8.441   0.198  12.800
27547SOL     OW84537  11.678  10.162   8.312
27547SOL    HW184538  11.604  10.103   8.321
27547SOL    HW284539  11.741  10.131   8.377
27548SOL     OW84540  13.213   3.666   6.369
27548SOL    HW184541  13.183   3.579   6.397
27548SOL    HW284542  13.293   3.649   6.319
27549SOL     OW84543   0.976   7.488  13.520
27549SOL    HW184544   0.898   7.543  13.517
27549SOL    HW284545   1.016   7.498  13.434
27550SOL     OW84546   4.940   8.145   9.464
27550SOL    HW184547   4.873   8.166   9.399
27550SOL    HW284548   5.023   8.167   9.420
27551SOL     OW84549   4.718   3.649   3.796
27551SOL    HW184550   4.674   3.636   3.712
27551SOL    HW284551   4.668   3.595   3.858
27552SOL     OW84552  11.139  10.319   4.923
27552SOL    HW184553  11.135  10.225   4.938
27552SOL    HW284554  11.231  10.341   4.933
27553SOL     OW84555  13.840  14.065   9.285
27553SOL    HW184556  13.794  13.985   9.312
27553SOL    HW284557  13.769  14.127   9.266
27554SOL     OW84558  14.345  10.671  11.649
27554SOL    HW184559  14.434  10.700  11.632
27554SOL    HW284560  14.336  10.672  11.744
27555SOL     OW84561   5.891  13.772   5.932
27555SOL    HW184562   5.951  13.816   5.872
27555SOL    HW284563   5.810  13.763   5.882
27556SOL     OW84564   2.340   8.246  10.625
27556SOL    HW184565   2.295   8.187  10.565
27556SOL    HW284566   2.296   8.234  10.709
27557SOL     OW84567   7.472  13.145   0.931
27557SOL    HW184568   7.483  13.056   0.964
27557SOL    HW284569   7.379  13.163   0.942
27558SOL     OW84570  12.360  14.305  11.500
27558SOL    HW184571  12.337  14.369  11.433
27558SOL    HW284572  12.330  14.344  11.582
27559SOL     OW84573  13.521   2.541   6.759
27559SOL    HW184574  13.471   2.460   6.750
27559SOL    HW284575  13.612   2.514   6.755
27560SOL     OW84576  10.579   4.938   0.281
27560SOL    HW184577  10.576   4.913   0.374
27560SOL    HW284578  10.488   4.948   0.256
27561SOL     OW84579   7.034   0.136   1.306
27561SOL    HW184580   7.069   0.110   1.221
27561SOL    HW284581   7.062   0.227   1.316
27562SOL     OW84582   1.797   7.734   5.035
27562SOL    HW184583   1.780   7.797   4.965
27562SOL    HW284584   1.807   7.650   4.989
27563SOL     OW84585   8.729   3.180   6.653
27563SOL    HW184586   8.701   3.198   6.743
27563SOL    HW284587   8.666   3.117   6.620
27564SOL     OW84588  13.723   2.291   3.949
27564SOL    HW184589  13.737   2.386   3.939
27564SOL    HW284590  13.796   2.262   4.005
27565SOL     OW84591   3.564   7.570   7.557
27565SOL    HW184592   3.605   7.606   7.636
27565SOL    HW284593   3.636   7.563   7.494
27566SOL     OW84594   3.947   2.186   7.535
27566SOL    HW184595   3.862   2.171   7.578
27566SOL    HW284596   3.986   2.099   7.530
27567SOL     OW84597   6.754   3.046   4.692
27567SOL    HW184598   6.744   2.951   4.690
27567SOL    HW284599   6.706   3.074   4.770
27568SOL     OW84600   0.269   3.774   7.453
27568SOL    HW184601   0.219   3.820   7.520
27568SOL    HW284602   0.352   3.822   7.448
27569SOL     OW84603   7.725   6.570   2.437
27569SOL    HW184604   7.674   6.501   2.395
27569SOL    HW284605   7.691   6.575   2.526
27570SOL     OW84606   7.990  14.829   8.812
27570SOL    HW184607   7.928  14.862   8.747
27570SOL    HW284608   7.979   0.004   8.888
27571SOL     OW84609  12.639  12.507   5.160
27571SOL    HW184610  12.558  12.481   5.116
27571SOL    HW284611  12.643  12.450   5.237
27572SOL     OW84612   1.566   4.946  14.177
27572SOL    HW184613   1.473   4.925  14.177
27572SOL    HW284614   1.584   4.975  14.088
27573SOL     OW84615   1.643  14.337   7.016
27573SOL    HW184616   1.569  14.365   7.069
27573SOL    HW284617   1.719  14.344   7.075
27574SOL     OW84618   8.614   1.780  13.472
27574SOL    HW184619   8.684   1.717  13.486
27574SOL    HW284620   8.577   1.796  13.559
27575SOL     OW84621  10.252   2.422  13.541
27575SOL    HW184622  10.294   2.388  13.462
27575SOL    HW284623  10.284   2.512  13.549
27576SOL     OW84624   2.709   2.842   0.763
27576SOL    HW184625   2.740   2.910   0.703
27576SOL    HW284626   2.786   2.818   0.814
27577SOL     OW84627   2.552   9.435   2.588
27577SOL    HW184628   2.585   9.373   2.523
27577SOL    HW284629   2.631   9.470   2.630
27578SOL     OW84630   0.526  13.688   7.132
27578SOL    HW184631   0.539  13.782   7.127
27578SOL    HW284632   0.550  13.664   7.221
27579SOL     OW84633   4.340  10.392   8.787
27579SOL    HW184634   4.371  10.480   8.809
27579SOL    HW284635   4.385  10.371   8.705
27580SOL     OW84636   8.641   5.015  13.160
27580SOL    HW184637   8.591   5.055  13.089
27580SOL    HW284638   8.640   5.080  13.230
27581SOL     OW84639  12.153  11.979  12.838
27581SOL    HW184640  12.113  11.944  12.917
27581SOL    HW284641  12.244  11.998  12.863
27582SOL     OW84642  13.385   6.006  10.191
27582SOL    HW184643  13.391   5.972  10.280
27582SOL    HW284644  13.472   5.991  10.154
27583SOL     OW84645   2.836  12.382  14.144
27583SOL    HW184646   2.779  12.332  14.202
27583SOL    HW284647   2.789  12.386  14.061
27584SOL     OW84648   2.098  10.226  12.278
27584SOL    HW184649   2.119  10.316  12.306
27584SOL    HW284650   2.041  10.238  12.202
27585SOL     OW84651   6.231   8.066   1.083
27585SOL    HW184652   6.263   7.977   1.075
27585SOL    HW284653   6.270   8.100   1.163
27586SOL     OW84654   9.648   4.647   4.950
27586SOL    HW184655   9.680   4.654   4.860
27586SOL    HW284656   9.598   4.727   4.964
27587SOL     OW84657  14.647   4.688   6.842
27587SOL    HW184658  14.603   4.624   6.897
27587SOL    HW284659  14.576   4.744   6.809
27588SOL     OW84660  13.555  12.521  11.150
27588SOL    HW184661  13.540  12.587  11.218
27588SOL    HW284662  13.468  12.502  11.116
27589SOL     OW84663   7.782   7.369   9.761
27589SOL    HW184664   7.742   7.431   9.821
27589SOL    HW284665   7.708   7.327   9.717
27590SOL     OW84666   9.418   3.677   1.509
27590SOL    HW184667   9.343   3.640   1.555
27590SOL    HW284668   9.456   3.603   1.461
27591SOL     OW84669   2.947  11.753  12.550
27591SOL    HW184670   3.029  11.802  12.553
27591SOL    HW284671   2.961  11.677  12.606
27592SOL     OW84672   2.899   3.731   8.720
27592SOL    HW184673   2.947   3.753   8.640
27592SOL    HW284674   2.824   3.680   8.689
27593SOL     OW84675  14.250  13.762  12.543
27593SOL    HW184676  14.231  13.685  12.488
27593SOL    HW284677  14.291  13.824  12.484
27594SOL     OW84678  14.765   1.327   2.028
27594SOL    HW184679  14.751   1.247   2.079
27594SOL    HW284680  14.679   1.345   1.988
27595SOL     OW84681   0.883   1.441   3.586
27595SOL    HW184682   0.871   1.393   3.504
27595SOL    HW284683   0.797   1.476   3.607
27596SOL     OW84684  12.236   8.950   8.036
27596SOL    HW184685  12.325   8.927   8.010
27596SOL    HW284686  12.229   8.920   8.127
27597SOL     OW84687  14.576   7.464   3.334
27597SOL    HW184688  14.645   7.527   3.355
27597SOL    HW284689  14.539   7.441   3.419
27598SOL     OW84690   0.993   3.428   7.107
27598SOL    HW184691   1.076   3.401   7.067
27598SOL    HW284692   0.989   3.380   7.190
27599SOL     OW84693   1.642   0.978   8.330
27599SOL    HW184694   1.570   1.036   8.306
27599SOL    HW284695   1.600   0.895   8.351
27600SOL     OW84696   1.442   7.906   1.501
27600SOL    HW184697   1.486   7.827   1.532
27600SOL    HW284698   1.476   7.918   1.412
27601SOL     OW84699   5.978  10.222   7.835
27601SOL    HW184700   6.018  10.135   7.836
27601SOL    HW284701   5.911  10.217   7.767
27602SOL     OW84702  10.578   9.669  14.410
27602SOL    HW184703  10.581   9.665  14.506
27602SOL    HW284704  10.529   9.749  14.391
27603SOL     OW84705   3.642   5.470   2.252
27603SOL    HW184706   3.720   5.456   2.305
27603SOL    HW284707   3.569   5.462   2.314
27604SOL     OW84708  12.401  12.842   0.714
27604SOL    HW184709  12.322  12.788   0.706
27604SOL    HW284710  12.368  12.932   0.707
27605SOL     OW84711  12.846  14.245   9.164
27605SOL    HW184712  12.763  14.205   9.139
27605SOL    HW284713  12.830  14.339   9.161
27606SOL     OW84714   5.344   3.140  14.622
27606SOL    HW184715   5.341   3.234  14.604
27606SOL    HW284716   5.428   3.111  14.587
27607SOL     OW84717   5.768   5.319   7.291
27607SOL    HW184718   5.837   5.332   7.226
27607SOL    HW284719   5.723   5.239   7.263
27608SOL     OW84720   2.860   5.158   8.946
27608SOL    HW184721   2.769   5.128   8.940
27608SOL    HW284722   2.882   5.185   8.857
27609SOL     OW84723  13.088   5.711   7.828
27609SOL    HW184724  13.117   5.741   7.915
27609SOL    HW284725  13.031   5.636   7.847
27610SOL     OW84726   8.237  10.118   3.838
27610SOL    HW184727   8.178  10.156   3.774
27610SOL    HW284728   8.322  10.115   3.794
27611SOL     OW84729   3.977   8.271   7.688
27611SOL    HW184730   4.062   8.262   7.731
27611SOL    HW284731   3.990   8.229   7.603
27612SOL     OW84732   5.868   2.022   1.105
27612SOL    HW184733   5.808   2.093   1.085
27612SOL    HW284734   5.853   2.002   1.197
27613SOL     OW84735  14.458   5.807   9.383
27613SOL    HW184736  14.406   5.787   9.305
27613SOL    HW284737  14.432   5.896   9.407
27614SOL     OW84738  11.108  11.265   9.589
27614SOL    HW184739  11.028  11.223   9.557
27614SOL    HW284740  11.085  11.297   9.677
27615SOL     OW84741  14.328   8.007  13.750
27615SOL    HW184742  14.385   7.983  13.677
27615SOL    HW284743  14.313   7.924  13.796
27616SOL     OW84744   8.935   0.030  13.986
27616SOL    HW184745   8.877   0.022  13.911
27616SOL    HW284746   8.930  14.828  14.030
27617SOL     OW84747   0.699   3.447  13.265
27617SOL    HW184748   0.673   3.538  13.280
27617SOL    HW284749   0.630   3.411  13.209
27618SOL     OW84750   0.214   3.598  13.911
27618SOL    HW184751   0.174   3.525  13.863
27618SOL    HW284752   0.211   3.570  14.003
27619SOL     OW84753   0.146   4.693  10.429
27619SOL    HW184754   0.235   4.723  10.449
27619SOL    HW284755   0.099   4.772  10.402
27620SOL     OW84756   9.000   6.795  12.366
27620SOL    HW184757   9.015   6.823  12.456
27620SOL    HW284758   8.914   6.830  12.343
27621SOL     OW84759   4.208  13.711  12.535
27621SOL    HW184760   4.228  13.682  12.624
27621SOL    HW284761   4.288  13.754  12.506
27622SOL     OW84762   9.431   1.369   3.708
27622SOL    HW184763   9.340   1.382   3.680
27622SOL    HW284764   9.426   1.363   3.803
27623SOL     OW84765   3.737   4.476   8.190
27623SOL    HW184766   3.655   4.435   8.160
27623SOL    HW284767   3.748   4.553   8.135
27624SOL     OW84768  10.727  13.478   5.725
27624SOL    HW184769  10.802  13.498   5.780
27624SOL    HW284770  10.727  13.547   5.658
27625SOL     OW84771  13.362   4.164   6.543
27625SOL    HW184772  13.406   4.082   6.519
27625SOL    HW284773  13.286   4.168   6.485
27626SOL     OW84774   0.178  12.477   2.255
27626SOL    HW184775   0.177  12.424   2.174
27626SOL    HW284776   0.173  12.412   2.325
27627SOL     OW84777   0.419   7.340   1.137
27627SOL    HW184778   0.465   7.262   1.105
27627SOL    HW284779   0.489   7.398   1.168
27628SOL     OW84780   4.177   7.320  10.358
27628SOL    HW184781   4.153   7.369  10.280
27628SOL    HW284782   4.114   7.247  10.362
27629SOL     OW84783   8.446   5.289  14.075
27629SOL    HW184784   8.522   5.290  14.132
27629SOL    HW284785   8.482   5.298  13.987
27630SOL     OW84786   1.250   3.912  11.499
27630SOL    HW184787   1.190   3.968  11.448
27630SOL    HW284788   1.305   3.974  11.547
27631SOL     OW84789  10.281  11.575   7.003
27631SOL    HW184790  10.349  11.599   6.939
27631SOL    HW284791  10.198  11.593   6.958
27632SOL     OW84792  11.579  10.668  14.716
27632SOL    HW184793  11.526  10.591  14.696
27632SOL    HW284794  11.653  10.634  14.766
27633SOL     OW84795  11.418   3.860   4.604
27633SOL    HW184796  11.489   3.897   4.552
27633SOL    HW284797  11.436   3.889   4.694
27634SOL     OW84798  14.710   6.235   3.806
27634SOL    HW184799  14.661   6.308   3.845
27634SOL    HW284800  14.695   6.243   3.712
27635SOL     OW84801   5.612  10.364   2.443
27635SOL    HW184802   5.569  10.293   2.395
27635SOL    HW284803   5.661  10.321   2.512
27636SOL     OW84804   8.595   8.464   5.867
27636SOL    HW184805   8.627   8.548   5.899
27636SOL    HW284806   8.570   8.481   5.776
27637SOL     OW84807   8.371   6.330   6.505
27637SOL    HW184808   8.383   6.398   6.572
27637SOL    HW284809   8.447   6.273   6.516
27638SOL     OW84810  11.630  11.406   7.870
27638SOL    HW184811  11.613  11.373   7.958
27638SOL    HW284812  11.558  11.466   7.851
27639SOL     OW84813  10.983  11.598   4.817
27639SOL    HW184814  10.890  11.578   4.828
27639SOL    HW284815  11.010  11.545   4.742
27640SOL     OW84816   0.979   2.580   8.600
27640SOL    HW184817   1.027   2.663   8.599
27640SOL    HW284818   0.977   2.554   8.692
27641SOL     OW84819  13.513   8.666  12.988
27641SOL    HW184820  13.497   8.745  12.938
27641SOL    HW284821  13.484   8.687  13.077
27642SOL     OW84822   2.740  14.704  10.339
27642SOL    HW184823   2.824  14.658  10.336
27642SOL    HW284824   2.763  14.797  10.336
27643SOL     OW84825   0.973   3.389   0.373
27643SOL    HW184826   0.936   3.362   0.288
27643SOL    HW284827   1.024   3.314   0.402
27644SOL     OW84828   6.866   7.662   4.820
27644SOL    HW184829   6.792   7.679   4.878
27644SOL    HW284830   6.943   7.687   4.871
27645SOL     OW84831   9.824  13.423  14.120
27645SOL    HW184832   9.848  13.466  14.038
27645SOL    HW284833   9.883  13.348  14.126
27646SOL     OW84834   7.007   7.160   9.328
27646SOL    HW184835   7.075   7.203   9.380
27646SOL    HW284836   7.041   7.072   9.312
27647SOL     OW84837  14.637  11.719   6.173
27647SOL    HW184838  14.544  11.719   6.197
27647SOL    HW284839  14.674  11.793   6.222
27648SOL     OW84840   3.097  10.045   2.781
27648SOL    HW184841   3.133  10.124   2.742
27648SOL    HW284842   3.174   9.989   2.796
27649SOL     OW84843   1.244  10.653  14.533
27649SOL    HW184844   1.259  10.581  14.471
27649SOL    HW284845   1.238  10.731  14.479
27650SOL     OW84846  10.994  14.760   1.338
27650SOL    HW184847  11.070  14.705   1.355
27650SOL    HW284848  11.022  14.849   1.361
27651SOL     OW84849   4.941  10.174  13.475
27651SOL    HW184850   4.950  10.256  13.523
27651SOL    HW284851   5.005  10.115  13.515
27652SOL     OW84852   4.656   9.741   2.277
27652SOL    HW184853   4.676   9.680   2.206
27652SOL    HW284854   4.560   9.746   2.278
27653SOL     OW84855  13.085   7.255   3.467
27653SOL    HW184856  13.041   7.201   3.402
27653SOL    HW284857  13.176   7.226   3.465
27654SOL     OW84858   2.233   9.557   8.792
27654SOL    HW184859   2.236   9.650   8.818
27654SOL    HW284860   2.325   9.532   8.785
27655SOL     OW84861  13.775   6.311  11.956
27655SOL    HW184862  13.822   6.230  11.976
27655SOL    HW284863  13.795   6.369  12.029
27656SOL     OW84864   9.950  10.624   3.531
27656SOL    HW184865   9.907  10.552   3.486
27656SOL    HW284866  10.044  10.607   3.520
27657SOL     OW84867   6.008  10.633   9.517
27657SOL    HW184868   6.083  10.647   9.574
27657SOL    HW284869   6.044  10.627   9.429
27658SOL     OW84870   4.783   5.701   2.709
27658SOL    HW184871   4.746   5.645   2.778
27658SOL    HW284872   4.878   5.697   2.725
27659SOL     OW84873  13.396   3.807   9.946
27659SOL    HW184874  13.436   3.842  10.025
27659SOL    HW284875  13.390   3.712   9.962
27660SOL     OW84876   0.359   9.294   8.838
27660SOL    HW184877   0.352   9.271   8.745
27660SOL    HW284878   0.295   9.364   8.850
27661SOL     OW84879   3.020   0.876   9.922
27661SOL    HW184880   3.042   0.933   9.847
27661SOL    HW284881   3.027   0.933   9.998
27662SOL     OW84882   5.761   5.619  11.677
27662SOL    HW184883   5.695   5.579  11.733
27662SOL    HW284884   5.816   5.671  11.736
27663SOL     OW84885   3.238  11.480   4.963
27663SOL    HW184886   3.172  11.411   4.975
27663SOL    HW284887   3.297  11.446   4.896
27664SOL     OW84888   7.301   1.201   2.547
27664SOL    HW184889   7.214   1.235   2.526
27664SOL    HW284890   7.360   1.275   2.533
27665SOL     OW84891   3.699   3.818   5.538
27665SOL    HW184892   3.767   3.751   5.530
27665SOL    HW284893   3.730   3.889   5.481
27666SOL     OW84894   0.511  11.361  13.097
27666SOL    HW184895   0.485  11.326  13.012
27666SOL    HW284896   0.431  11.358  13.150
27667SOL     OW84897   9.982   5.646   3.711
27667SOL    HW184898  10.031   5.666   3.791
27667SOL    HW284899   9.897   5.688   3.723
27668SOL     OW84900   4.021   8.399   3.798
27668SOL    HW184901   3.955   8.345   3.754
27668SOL    HW284902   4.096   8.341   3.808
27669SOL     OW84903  12.294   3.579   4.343
27669SOL    HW184904  12.365   3.519   4.319
27669SOL    HW284905  12.313   3.660   4.297
27670SOL     OW84906   6.567   4.142  14.159
27670SOL    HW184907   6.651   4.113  14.196
27670SOL    HW284908   6.501   4.100  14.215
27671SOL     OW84909   2.367   4.722   2.944
27671SOL    HW184910   2.334   4.795   2.891
27671SOL    HW284911   2.355   4.751   3.035
27672SOL     OW84912   8.859   6.280  10.108
27672SOL    HW184913   8.767   6.256  10.124
27672SOL    HW284914   8.883   6.332  10.184
27673SOL     OW84915   5.360   6.581   8.616
27673SOL    HW184916   5.267   6.577   8.639
27673SOL    HW284917   5.362   6.571   8.521
27674SOL     OW84918   0.963   3.537   8.689
27674SOL    HW184919   0.991   3.617   8.645
27674SOL    HW284920   0.953   3.562   8.781
27675SOL     OW84921   0.026   8.759   0.479
27675SOL    HW184922   0.055   8.680   0.433
27675SOL    HW284923   0.082   8.762   0.557
27676SOL     OW84924   8.559   2.556   4.139
27676SOL    HW184925   8.570   2.468   4.102
27676SOL    HW284926   8.469   2.580   4.119
27677SOL     OW84927   6.209  13.912  14.053
27677SOL    HW184928   6.189  13.886  13.963
27677SOL    HW284929   6.135  13.879  14.105
27678SOL     OW84930   4.726   6.261  13.402
27678SOL    HW184931   4.690   6.215  13.478
27678SOL    HW284932   4.718   6.198  13.331
27679SOL     OW84933   7.609  10.097  11.755
27679SOL    HW184934   7.686  10.069  11.706
27679SOL    HW284935   7.587  10.022  11.809
27680SOL     OW84936   3.177  11.887  12.597
27680SOL    HW184937   3.170  11.954  12.665
27680SOL    HW284938   3.262  11.846  12.612
27681SOL     OW84939  11.924   1.128   6.941
27681SOL    HW184940  11.999   1.180   6.914
27681SOL    HW284941  11.861   1.137   6.869
27682SOL     OW84942  10.507  14.631  13.823
27682SOL    HW184943  10.563  14.706  13.844
27682SOL    HW284944  10.475  14.648  13.735
27683SOL     OW84945   8.669   4.525   4.042
27683SOL    HW184946   8.702   4.614   4.025
27683SOL    HW284947   8.739   4.484   4.094
27684SOL     OW84948   6.241   2.174   5.362
27684SOL    HW184949   6.307   2.143   5.424
27684SOL    HW284950   6.253   2.269   5.361
27685SOL     OW84951   1.330   6.411   3.505
27685SOL    HW184952   1.304   6.337   3.559
27685SOL    HW284953   1.258   6.421   3.442
27686SOL     OW84954   1.254   9.193   9.198
27686SOL    HW184955   1.346   9.212   9.181
27686SOL    HW284956   1.220   9.162   9.114
27687SOL     OW84957  13.957   4.282   0.907
27687SOL    HW184958  14.007   4.348   0.859
27687SOL    HW284959  13.998   4.280   0.993
27688SOL     OW84960  13.027   6.705  14.740
27688SOL    HW184961  13.116   6.675  14.759
27688SOL    HW284962  12.971   6.631  14.763
27689SOL     OW84963   8.421  10.879  13.064
27689SOL    HW184964   8.343  10.900  13.014
27689SOL    HW284965   8.442  10.959  13.112
27690SOL     OW84966  11.627   1.461   9.767
27690SOL    HW184967  11.559   1.430   9.828
27690SOL    HW284968  11.707   1.418   9.796
27691SOL     OW84969   2.819  11.113   9.530
27691SOL    HW184970   2.781  11.028   9.508
27691SOL    HW284971   2.787  11.172   9.462
27692SOL     OW84972   8.073   2.737   5.758
27692SOL    HW184973   8.064   2.644   5.740
27692SOL    HW284974   8.151   2.744   5.813
27693SOL     OW84975   3.398   4.860  10.736
27693SOL    HW184976   3.349   4.901  10.664
27693SOL    HW284977   3.350   4.779  10.755
27694SOL     OW84978   0.461   1.991  14.074
27694SOL    HW184979   0.496   2.074  14.042
27694SOL    HW284980   0.428   1.947  13.995
27695SOL     OW84981   8.516   0.025  10.763
27695SOL    HW184982   8.550  14.818  10.762
27695SOL    HW284983   8.489   0.039  10.854
27696SOL     OW84984   3.389   4.310  12.088
27696SOL    HW184985   3.411   4.249  12.018
27696SOL    HW284986   3.470   4.323  12.136
27697SOL     OW84987  13.958  13.998   4.349
27697SOL    HW184988  13.885  13.999   4.287
27697SOL    HW284989  13.995  13.910   4.342
27698SOL     OW84990   7.557   3.910   1.096
27698SOL    HW184991   7.596   3.981   1.046
27698SOL    HW284992   7.631   3.852   1.117
27699SOL     OW84993   7.591   6.233   0.365
27699SOL    HW184994   7.564   6.233   0.273
27699SOL    HW284995   7.681   6.200   0.364
27700SOL     OW84996   8.941   3.760   3.628
27700SOL    HW184997   8.866   3.775   3.570
27700SOL    HW284998   8.904   3.715   3.704
27701SOL     OW84999   2.109  12.682  13.114
27701SOL    HW185000   2.190  12.709  13.157
27701SOL    HW285001   2.045  12.750  13.137
27702SOL     OW85002   2.216   5.908   7.249
27702SOL    HW185003   2.272   5.864   7.313
27702SOL    HW285004   2.221   5.854   7.170
27703SOL     OW85005   1.285   2.347   0.521
27703SOL    HW185006   1.286   2.311   0.432
27703SOL    HW285007   1.208   2.307   0.562
27704SOL     OW85008   9.098   2.951   8.018
27704SOL    HW185009   9.182   2.930   7.977
27704SOL    HW285010   9.033   2.902   7.967
27705SOL     OW85011  13.496   5.280   9.680
27705SOL    HW185012  13.485   5.187   9.699
27705SOL    HW285013  13.587   5.299   9.706
27706SOL     OW85014  10.772   2.170   4.352
27706SOL    HW185015  10.726   2.242   4.309
27706SOL    HW285016  10.805   2.208   4.433
27707SOL     OW85017   9.958   5.980   4.784
27707SOL    HW185018  10.032   6.037   4.807
27707SOL    HW285019   9.982   5.944   4.698
27708SOL     OW85020  13.450   8.965   1.369
27708SOL    HW185021  13.422   9.041   1.419
27708SOL    HW285022  13.389   8.961   1.295
27709SOL     OW85023   7.769   1.535   9.345
27709SOL    HW185024   7.688   1.585   9.353
27709SOL    HW285025   7.829   1.577   9.407
27710SOL     OW85026   6.867   8.081  14.747
27710SOL    HW185027   6.791   8.039  14.707
27710SOL    HW285028   6.884   8.157  14.692
27711SOL     OW85029   7.348  12.449   8.246
27711SOL    HW185030   7.424  12.473   8.194
27711SOL    HW285031   7.299  12.531   8.257
27712SOL     OW85032  12.813   5.876  13.254
27712SOL    HW185033  12.833   5.847  13.343
27712SOL    HW285034  12.895   5.912  13.221
27713SOL     OW85035   4.670   2.012   6.933
27713SOL    HW185036   4.606   1.944   6.955
27713SOL    HW285037   4.727   1.971   6.868
27714SOL     OW85038  14.228  12.860   8.405
27714SOL    HW185039  14.302  12.800   8.410
27714SOL    HW285040  14.234  12.912   8.485
27715SOL     OW85041   0.605   8.634  12.411
27715SOL    HW185042   0.523   8.671  12.379
27715SOL    HW285043   0.640   8.585  12.336
27716SOL     OW85044  11.252   5.102  14.285
27716SOL    HW185045  11.161   5.117  14.310
27716SOL    HW285046  11.295   5.078  14.367
27717SOL     OW85047   4.662   6.421   8.271
27717SOL    HW185048   4.740   6.412   8.217
27717SOL    HW285049   4.599   6.360   8.233
27718SOL     OW85050  13.341   0.085   0.838
27718SOL    HW185051  13.370   0.115   0.925
27718SOL    HW285052  13.399   0.131   0.777
27719SOL     OW85053   6.347   8.226   0.094
27719SOL    HW185054   6.281   8.231   0.025
27719SOL    HW285055   6.317   8.157   0.153
27720SOL     OW85056   8.279   7.806  13.032
27720SOL    HW185057   8.352   7.857  13.067
27720SOL    HW285058   8.319   7.722  13.008
27721SOL     OW85059   6.248   2.463   5.626
27721SOL    HW185060   6.257   2.551   5.662
27721SOL    HW285061   6.153   2.448   5.622
27722SOL     OW85062  12.370   1.033   4.885
27722SOL    HW185063  12.394   1.032   4.793
27722SOL    HW285064  12.279   1.002   4.887
27723SOL     OW85065   7.747   0.539   1.938
27723SOL    HW185066   7.821   0.594   1.963
27723SOL    HW285067   7.702   0.521   2.020
27724SOL     OW85068  11.442  14.024   8.569
27724SOL    HW185069  11.451  13.935   8.603
27724SOL    HW285070  11.530  14.062   8.577
27725SOL     OW85071  13.332   1.486  11.484
27725SOL    HW185072  13.360   1.411  11.538
27725SOL    HW285073  13.280   1.447  11.414
27726SOL     OW85074   7.552   9.194   8.718
27726SOL    HW185075   7.584   9.150   8.639
27726SOL    HW285076   7.550   9.124   8.784
27727SOL     OW85077   6.171   0.786  13.003
27727SOL    HW185078   6.125   0.704  12.981
27727SOL    HW285079   6.250   0.758  13.050
27728SOL     OW85080   3.617   0.745   4.293
27728SOL    HW185081   3.614   0.649   4.295
27728SOL    HW285082   3.567   0.769   4.214
27729SOL     OW85083   3.543   5.215  13.215
27729SOL    HW185084   3.611   5.151  13.239
27729SOL    HW285085   3.499   5.235  13.297
27730SOL     OW85086   3.975   5.917   0.864
27730SOL    HW185087   3.974   5.822   0.852
27730SOL    HW285088   3.884   5.940   0.882
27731SOL     OW85089  13.225   5.953  14.695
27731SOL    HW185090  13.158   6.013  14.660
27731SOL    HW285091  13.308   5.997  14.678
27732SOL     OW85092  13.905   6.630  14.232
27732SOL    HW185093  13.922   6.625  14.138
27732SOL    HW285094  13.871   6.543  14.254
27733SOL     OW85095   4.310   2.878   8.087
27733SOL    HW185096   4.303   2.808   8.022
27733SOL    HW285097   4.368   2.842   8.154
27734SOL     OW85098   8.079   8.846   7.737
27734SOL    HW185099   8.155   8.837   7.680
27734SOL    HW285100   8.016   8.897   7.685
27735SOL     OW85101  10.162   6.141   6.360
27735SOL    HW185102  10.192   6.200   6.291
27735SOL    HW285103  10.165   6.054   6.320
27736SOL     OW85104  12.242  13.827   0.655
27736SOL    HW185105  12.230  13.920   0.635
27736SOL    HW285106  12.182  13.782   0.596
27737SOL     OW85107   9.644  11.518  13.115
27737SOL    HW185108   9.657  11.550  13.204
27737SOL    HW285109   9.733  11.501  13.083
27738SOL     OW85110   3.085   6.835   7.841
27738SOL    HW185111   3.025   6.893   7.793
27738SOL    HW285112   3.039   6.752   7.846
27739SOL     OW85113   0.269   4.870   1.139
27739SOL    HW185114   0.277   4.794   1.196
27739SOL    HW285115   0.306   4.841   1.056
27740SOL     OW85116  10.060   1.412   3.082
27740SOL    HW185117  10.048   1.425   2.987
27740SOL    HW285118  10.127   1.344   3.088
27741SOL     OW85119   5.493  11.671   2.170
27741SOL    HW185120   5.504  11.764   2.148
27741SOL    HW285121   5.453  11.673   2.257
27742SOL     OW85122   9.782   8.164   3.869
27742SOL    HW185123   9.766   8.207   3.953
27742SOL    HW285124   9.701   8.115   3.852
27743SOL     OW85125   7.630   2.743   4.009
27743SOL    HW185126   7.608   2.714   3.921
27743SOL    HW285127   7.626   2.664   4.063
27744SOL     OW85128  12.041   7.792   2.355
27744SOL    HW185129  12.019   7.817   2.445
27744SOL    HW285130  12.136   7.781   2.356
27745SOL     OW85131  10.532   3.102  14.694
27745SOL    HW185132  10.488   3.062  14.619
27745SOL    HW285133  10.494   3.058  14.771
27746SOL     OW85134   1.231  10.422  14.145
27746SOL    HW185135   1.225  10.332  14.113
27746SOL    HW285136   1.273  10.414  14.231
27747SOL     OW85137   6.270   2.401   8.324
27747SOL    HW185138   6.328   2.328   8.345
27747SOL    HW285139   6.182   2.368   8.340
27748SOL     OW85140   1.523   4.515   8.466
27748SOL    HW185141   1.583   4.483   8.399
27748SOL    HW285142   1.447   4.458   8.459
27749SOL     OW85143   5.654  12.991  10.021
27749SOL    HW185144   5.729  12.984   9.962
27749SOL    HW285145   5.582  13.021   9.965
27750SOL     OW85146  14.318   2.565  12.043
27750SOL    HW185147  14.315   2.497  12.111
27750SOL    HW285148  14.336   2.517  11.962
27751SOL     OW85149   1.880   0.335  11.827
27751SOL    HW185150   1.963   0.297  11.855
27751SOL    HW285151   1.899   0.429  11.819
27752SOL     OW85152  12.846   0.897   1.219
27752SOL    HW185153  12.931   0.882   1.259
27752SOL    HW285154  12.859   0.875   1.126
27753SOL     OW85155  12.437  10.535  13.426
27753SOL    HW185156  12.495  10.531  13.350
27753SOL    HW285157  12.380  10.610  13.408
27754SOL     OW85158   9.741  14.860   4.723
27754SOL    HW185159   9.732  14.830   4.632
27754SOL    HW285160   9.689   0.058   4.727
27755SOL     OW85161   2.682   4.530   3.816
27755SOL    HW185162   2.609   4.584   3.848
27755SOL    HW285163   2.737   4.591   3.767
27756SOL     OW85164  11.352   3.014   2.753
27756SOL    HW185165  11.261   3.031   2.780
27756SOL    HW285166  11.352   2.922   2.725
27757SOL     OW85167  11.243  12.369  14.564
27757SOL    HW185168  11.220  12.360  14.656
27757SOL    HW285169  11.237  12.281  14.529
27758SOL     OW85170  12.649   4.889  14.444
27758SOL    HW185171  12.650   4.794  14.451
27758SOL    HW285172  12.733   4.917  14.480
27759SOL     OW85173   0.394  14.214   8.231
27759SOL    HW185174   0.320  14.238   8.286
27759SOL    HW285175   0.375  14.252   8.146
27760SOL     OW85176   4.924  12.499   9.223
27760SOL    HW185177   4.978  12.464   9.294
27760SOL    HW285178   4.838  12.459   9.236
27761SOL     OW85179   9.922   2.433   0.210
27761SOL    HW185180   9.951   2.413   0.121
27761SOL    HW285181   9.828   2.412   0.210
27762SOL     OW85182   4.752   0.813   2.203
27762SOL    HW185183   4.830   0.795   2.254
27762SOL    HW285184   4.749   0.742   2.138
27763SOL     OW85185   9.282   6.539  13.422
27763SOL    HW185186   9.291   6.457  13.374
27763SOL    HW285187   9.369   6.577  13.421
27764SOL     OW85188   9.881   8.925  11.306
27764SOL    HW185189   9.826   8.907  11.382
27764SOL    HW285190   9.850   8.864  11.239
27765SOL     OW85191   0.578   3.822  11.152
27765SOL    HW185192   0.519   3.869  11.212
27765SOL    HW285193   0.520   3.788  11.084
27766SOL     OW85194   8.312  11.785   9.076
27766SOL    HW185195   8.267  11.798   9.159
27766SOL    HW285196   8.250  11.815   9.010
27767SOL     OW85197   7.700   5.737   9.629
27767SOL    HW185198   7.774   5.788   9.662
27767SOL    HW285199   7.632   5.747   9.696
27768SOL     OW85200  11.396   5.306  12.260
27768SOL    HW185201  11.386   5.372  12.329
27768SOL    HW285202  11.438   5.353  12.188
27769SOL     OW85203   1.735   3.905  12.721
27769SOL    HW185204   1.769   3.948  12.642
27769SOL    HW285205   1.805   3.916  12.786
27770SOL     OW85206   1.923  11.717   8.091
27770SOL    HW185207   1.886  11.716   8.003
27770SOL    HW285208   1.974  11.637   8.097
27771SOL     OW85209   4.435   5.833  14.228
27771SOL    HW185210   4.474   5.751  14.197
27771SOL    HW285211   4.506   5.878  14.273
27772SOL     OW85212   7.759  13.723   7.975
27772SOL    HW185213   7.824  13.746   7.910
27772SOL    HW285214   7.762  13.794   8.039
27773SOL     OW85215  13.970   6.349   6.295
27773SOL    HW185216  13.937   6.347   6.205
27773SOL    HW285217  13.984   6.256   6.318
27774SOL     OW85218   0.512   2.461   9.633
27774SOL    HW185219   0.440   2.439   9.573
27774SOL    HW285220   0.555   2.536   9.592
27775SOL     OW85221  13.559   5.263   1.216
27775SOL    HW185222  13.630   5.260   1.279
27775SOL    HW285223  13.559   5.176   1.175
27776SOL     OW85224   3.664   5.776   2.143
27776SOL    HW185225   3.669   5.831   2.221
27776SOL    HW285226   3.650   5.687   2.176
27777SOL     OW85227   1.040   7.938   7.611
27777SOL    HW185228   1.072   7.880   7.541
27777SOL    HW285229   0.945   7.926   7.609
27778SOL     OW85230   3.802   6.350  11.544
27778SOL    HW185231   3.766   6.368  11.631
27778SOL    HW285232   3.765   6.419  11.488
27779SOL     OW85233   7.010   9.547   6.868
27779SOL    HW185234   6.974   9.633   6.890
27779SOL    HW285235   7.027   9.552   6.774
27780SOL     OW85236   4.902  11.807  14.081
27780SOL    HW185237   4.906  11.783  13.989
27780SOL    HW285238   4.837  11.877  14.085
27781SOL     OW85239   4.284   6.463   5.902
27781SOL    HW185240   4.257   6.486   5.991
27781SOL    HW285241   4.361   6.516   5.885
27782SOL     OW85242   0.346  14.033   7.205
27782SOL    HW185243   0.316  13.942   7.195
27782SOL    HW285244   0.399  14.049   7.126
27783SOL     OW85245   4.441  10.721  14.459
27783SOL    HW185246   4.354  10.730  14.497
27783SOL    HW285247   4.464  10.810  14.431
27784SOL     OW85248   3.249   4.308  13.241
27784SOL    HW185249   3.178   4.297  13.178
27784SOL    HW285250   3.284   4.395  13.223
27785SOL     OW85251   6.501   1.695   1.568
27785SOL    HW185252   6.567   1.742   1.619
27785SOL    HW285253   6.492   1.746   1.488
27786SOL     OW85254   3.371   5.127   7.900
27786SOL    HW185255   3.445   5.142   7.840
27786SOL    HW285256   3.372   5.033   7.917
27787SOL     OW85257   8.612  10.308   8.652
27787SOL    HW185258   8.658  10.385   8.686
27787SOL    HW285259   8.644  10.236   8.706
27788SOL     OW85260   4.932  10.139   9.986
27788SOL    HW185261   4.904  10.162   9.898
27788SOL    HW285262   4.912  10.216  10.039
27789SOL     OW85263  14.576   9.504  11.426
27789SOL    HW185264  14.546   9.519  11.337
27789SOL    HW285265  14.669   9.483  11.417
27790SOL     OW85266  10.537  12.062   0.542
27790SOL    HW185267  10.596  11.998   0.581
27790SOL    HW285268  10.553  12.142   0.592
27791SOL     OW85269  11.056   9.009   9.017
27791SOL    HW185270  11.063   9.104   9.008
27791SOL    HW285271  11.028   8.980   8.930
27792SOL     OW85272   2.747   9.009   3.905
27792SOL    HW185273   2.667   9.012   3.853
27792SOL    HW285274   2.793   8.931   3.875
27793SOL     OW85275  10.035   4.557   4.324
27793SOL    HW185276  10.095   4.498   4.279
27793SOL    HW285277   9.968   4.499   4.361
27794SOL     OW85278   4.481   3.901   0.480
27794SOL    HW185279   4.470   3.810   0.509
27794SOL    HW285280   4.417   3.911   0.409
27795SOL     OW85281   1.033   5.796   8.329
27795SOL    HW185282   0.978   5.866   8.294
27795SOL    HW285283   1.082   5.838   8.400
27796SOL     OW85284  10.741   5.093   0.462
27796SOL    HW185285  10.814   5.139   0.504
27796SOL    HW285286  10.769   5.001   0.458
27797SOL     OW85287  14.067   0.698  14.689
27797SOL    HW185288  14.065   0.606  14.663
27797SOL    HW285289  14.090   0.697  14.782
27798SOL     OW85290   5.281  13.547  14.284
27798SOL    HW185291   5.194  13.584  14.272
27798SOL    HW285292   5.335  13.594  14.220
27799SOL     OW85293  12.679   5.085   2.392
27799SOL    HW185294  12.609   5.139   2.429
27799SOL    HW285295  12.744   5.149   2.361
27800SOL     OW85296   0.801   1.021   6.278
27800SOL    HW185297   0.787   1.111   6.307
27800SOL    HW285298   0.848   0.979   6.350
27801SOL     OW85299   8.043   3.216   9.156
27801SOL    HW185300   8.092   3.293   9.186
27801SOL    HW285301   7.974   3.252   9.100
27802SOL     OW85302   8.426   6.127   2.666
27802SOL    HW185303   8.389   6.168   2.587
27802SOL    HW285304   8.400   6.184   2.737
27803SOL     OW85305  11.787   6.365  13.667
27803SOL    HW185306  11.737   6.423  13.724
27803SOL    HW285307  11.733   6.354  13.589
27804SOL     OW85308  13.928   8.839  11.403
27804SOL    HW185309  13.918   8.754  11.361
27804SOL    HW285310  13.931   8.902  11.330
27805SOL     OW85311   2.005  14.149  10.227
27805SOL    HW185312   1.990  14.236  10.192
27805SOL    HW285313   1.965  14.151  10.314
27806SOL     OW85314   8.897  11.528   0.458
27806SOL    HW185315   8.935  11.565   0.378
27806SOL    HW285316   8.919  11.591   0.527
27807SOL     OW85317  10.594   0.962   6.109
27807SOL    HW185318  10.520   1.002   6.155
27807SOL    HW285319  10.661   0.951   6.176
27808SOL     OW85320  13.668   8.279  14.666
27808SOL    HW185321  13.617   8.261  14.745
27808SOL    HW285322  13.680   8.374  14.667
27809SOL     OW85323   5.619   8.188   0.665
27809SOL    HW185324   5.670   8.204   0.586
27809SOL    HW285325   5.649   8.253   0.727
27810SOL     OW85326   8.376   2.026   6.989
27810SOL    HW185327   8.430   2.101   7.016
27810SOL    HW285328   8.286   2.053   7.007
27811SOL     OW85329   0.507   7.248   4.018
27811SOL    HW185330   0.558   7.293   3.951
27811SOL    HW285331   0.450   7.188   3.969
27812SOL     OW85332  10.586   8.195   6.772
27812SOL    HW185333  10.678   8.210   6.750
27812SOL    HW285334  10.578   8.231   6.861
27813SOL     OW85335   8.436  12.270   5.102
27813SOL    HW185336   8.492  12.326   5.156
27813SOL    HW285337   8.362  12.326   5.079
27814SOL     OW85338  11.620   7.929  12.578
27814SOL    HW185339  11.653   8.006  12.532
27814SOL    HW285340  11.606   7.864  12.509
27815SOL     OW85341   5.332   1.856  10.933
27815SOL    HW185342   5.397   1.806  10.983
27815SOL    HW285343   5.383   1.906  10.870
27816SOL     OW85344   1.484  10.999   2.201
27816SOL    HW185345   1.540  11.015   2.125
27816SOL    HW285346   1.454  11.087   2.227
27817SOL     OW85347  10.254   2.909   5.466
27817SOL    HW185348  10.284   2.823   5.436
27817SOL    HW285349  10.192   2.888   5.537
27818SOL     OW85350   3.760  10.789   8.183
27818SOL    HW185351   3.787  10.700   8.162
27818SOL    HW285352   3.841  10.838   8.194
27819SOL     OW85353   9.177   7.420  14.467
27819SOL    HW185354   9.262   7.378  14.459
27819SOL    HW285355   9.179   7.492  14.404
27820SOL     OW85356  14.682   5.589   6.672
27820SOL    HW185357  14.762   5.547   6.704
27820SOL    HW285358  14.618   5.518   6.667
27821SOL     OW85359  11.911   5.891  14.843
27821SOL    HW185360  11.908   5.987  14.841
27821SOL    HW285361  11.989   5.871   0.012
27822SOL     OW85362   8.380  13.855   5.154
27822SOL    HW185363   8.448  13.914   5.123
27822SOL    HW285364   8.427  13.785   5.200
27823SOL     OW85365   1.558  13.036   4.063
27823SOL    HW185366   1.497  12.994   4.123
27823SOL    HW285367   1.506  13.103   4.019
27824SOL     OW85368   3.947   5.914   8.914
27824SOL    HW185369   3.918   5.847   8.853
27824SOL    HW285370   4.018   5.960   8.869
27825SOL     OW85371   9.388  13.152  13.726
27825SOL    HW185372   9.418  13.131  13.815
27825SOL    HW285373   9.446  13.103  13.669
27826SOL     OW85374   4.779   1.697   7.454
27826SOL    HW185375   4.707   1.653   7.499
27826SOL    HW285376   4.742   1.779   7.422
27827SOL     OW85377  14.324   6.988   8.557
27827SOL    HW185378  14.257   7.049   8.589
27827SOL    HW285379  14.405   7.019   8.598
27828SOL     OW85380   5.094   5.972  11.747
27828SOL    HW185381   5.183   5.981  11.714
27828SOL    HW285382   5.042   5.949  11.670
27829SOL     OW85383   8.705   8.125  10.971
27829SOL    HW185384   8.651   8.074  10.910
27829SOL    HW285385   8.650   8.199  10.995
27830SOL     OW85386   0.980   1.546   3.117
27830SOL    HW185387   0.885   1.541   3.129
27830SOL    HW285388   1.002   1.637   3.138
27831SOL     OW85389   5.474   9.012   2.385
27831SOL    HW185390   5.515   9.032   2.469
27831SOL    HW285391   5.538   8.957   2.339
27832SOL     OW85392   5.031  10.418   8.974
27832SOL    HW185393   5.029  10.446   8.882
27832SOL    HW285394   4.993  10.331   8.973
27833SOL     OW85395   3.554  10.015  12.232
27833SOL    HW185396   3.522  10.004  12.321
27833SOL    HW285397   3.476  10.036  12.181
27834SOL     OW85398   2.701   7.126   0.620
27834SOL    HW185399   2.758   7.183   0.671
27834SOL    HW285400   2.758   7.090   0.552
27835SOL     OW85401   2.791   7.871   3.801
27835SOL    HW185402   2.864   7.835   3.851
27835SOL    HW285403   2.765   7.950   3.848
27836SOL     OW85404   1.005   9.903   7.769
27836SOL    HW185405   1.056   9.836   7.816
27836SOL    HW285406   1.046   9.986   7.795
27837SOL     OW85407   4.309   0.469   7.788
27837SOL    HW185408   4.372   0.417   7.839
27837SOL    HW285409   4.363   0.519   7.727
27838SOL     OW85410  11.849   7.355   8.508
27838SOL    HW185411  11.857   7.377   8.415
27838SOL    HW285412  11.767   7.396   8.536
27839SOL     OW85413   3.629   3.304  14.048
27839SOL    HW185414   3.542   3.336  14.026
27839SOL    HW285415   3.617   3.210  14.065
27840SOL     OW85416   9.149  14.644  10.038
27840SOL    HW185417   9.220  14.629   9.975
27840SOL    HW285418   9.072  14.659   9.984
27841SOL     OW85419  12.882   5.605   4.374
27841SOL    HW185420  12.933   5.681   4.348
27841SOL    HW285421  12.854   5.565   4.292
27842SOL     OW85422  12.223  12.058   4.174
27842SOL    HW185423  12.198  12.016   4.091
27842SOL    HW285424  12.233  11.985   4.235
27843SOL     OW85425  12.414   8.905   2.744
27843SOL    HW185426  12.359   8.906   2.666
27843SOL    HW285427  12.459   8.989   2.744
27844SOL     OW85428   3.929  10.946   3.238
27844SOL    HW185429   3.868  10.897   3.183
27844SOL    HW285430   4.016  10.917   3.209
27845SOL     OW85431  13.191   7.085   1.131
27845SOL    HW185432  13.283   7.066   1.152
27845SOL    HW285433  13.152   7.107   1.215
27846SOL     OW85434   3.740   6.063  13.225
27846SOL    HW185435   3.709   6.145  13.264
27846SOL    HW285436   3.769   6.087  13.137
27847SOL     OW85437   7.344   0.374   5.810
27847SOL    HW185438   7.308   0.288   5.786
27847SOL    HW285439   7.281   0.409   5.873
27848SOL     OW85440   4.709   9.068   3.515
27848SOL    HW185441   4.651   9.128   3.467
27848SOL    HW285442   4.754   9.019   3.447
27849SOL     OW85443  13.310   3.998   8.591
27849SOL    HW185444  13.324   4.004   8.685
27849SOL    HW285445  13.333   4.085   8.558
27850SOL     OW85446   4.696  14.150   2.327
27850SOL    HW185447   4.709  14.086   2.396
27850SOL    HW285448   4.615  14.195   2.351
27851SOL     OW85449   3.451   5.043   7.592
27851SOL    HW185450   3.518   5.050   7.660
27851SOL    HW285451   3.499   5.047   7.510
27852SOL     OW85452  11.944   0.921  12.883
27852SOL    HW185453  12.009   0.988  12.860
27852SOL    HW285454  11.966   0.897  12.973
27853SOL     OW85455  13.440   7.570  13.722
27853SOL    HW185456  13.500   7.594  13.792
27853SOL    HW285457  13.463   7.628  13.649
27854SOL     OW85458  10.461   7.533   5.157
27854SOL    HW185459  10.489   7.442   5.166
27854SOL    HW285460  10.444   7.544   5.063
27855SOL     OW85461   1.571   2.640   7.415
27855SOL    HW185462   1.572   2.614   7.323
27855SOL    HW285463   1.483   2.675   7.429
27856SOL     OW85464  13.526  14.672  10.752
27856SOL    HW185465  13.610  14.705  10.720
27856SOL    HW285466  13.468  14.748  10.752
27857SOL     OW85467  10.256   4.939  14.513
27857SOL    HW185468  10.260   5.002  14.586
27857SOL    HW285469  10.252   4.993  14.435
27858SOL     OW85470   3.384   0.985   1.758
27858SOL    HW185471   3.408   0.903   1.716
27858SOL    HW285472   3.327   1.029   1.694
27859SOL     OW85473   0.592   4.102  10.801
27859SOL    HW185474   0.500   4.129  10.800
27859SOL    HW285475   0.620   4.116  10.891
27860SOL     OW85476   9.258   2.522   8.484
27860SOL    HW185477   9.170   2.495   8.457
27860SOL    HW285478   9.314   2.448   8.461
27861SOL     OW85479   7.440  13.176   1.292
27861SOL    HW185480   7.378  13.229   1.343
27861SOL    HW285481   7.434  13.212   1.204
27862SOL     OW85482   2.566   7.565   1.859
27862SOL    HW185483   2.541   7.609   1.940
27862SOL    HW285484   2.594   7.478   1.887
27863SOL     OW85485  11.363   5.261   3.958
27863SOL    HW185486  11.410   5.331   4.003
27863SOL    HW285487  11.334   5.300   3.876
27864SOL     OW85488   2.471  12.063   2.761
27864SOL    HW185489   2.496  11.972   2.746
27864SOL    HW285490   2.513  12.086   2.844
27865SOL     OW85491   2.029   6.945  12.834
27865SOL    HW185492   2.011   6.920  12.744
27865SOL    HW285493   2.002   7.037  12.840
27866SOL     OW85494  12.909   4.129   6.569
27866SOL    HW185495  12.832   4.172   6.533
27866SOL    HW285496  12.894   4.127   6.664
27867SOL     OW85497  12.596  12.204  11.313
27867SOL    HW185498  12.564  12.290  11.284
27867SOL    HW285499  12.522  12.145  11.298
27868SOL     OW85500   4.836   1.141   6.286
27868SOL    HW185501   4.809   1.172   6.200
27868SOL    HW285502   4.793   1.200   6.348
27869SOL     OW85503  14.508  14.457   8.537
27869SOL    HW185504  14.588  14.503   8.561
27869SOL    HW285505  14.458  14.521   8.486
27870SOL     OW85506  11.644   9.741   3.227
27870SOL    HW185507  11.638   9.823   3.275
27870SOL    HW285508  11.554   9.717   3.207
27871SOL     OW85509  11.545  13.724   2.534
27871SOL    HW185510  11.584  13.811   2.545
27871SOL    HW285511  11.578  13.694   2.449
27872SOL     OW85512   8.479  13.041   1.727
27872SOL    HW185513   8.413  13.019   1.792
27872SOL    HW285514   8.429  13.061   1.648
27873SOL     OW85515   3.165  13.943   6.675
27873SOL    HW185516   3.228  13.989   6.730
27873SOL    HW285517   3.080  13.965   6.712
27874SOL     OW85518   3.118   8.481  10.472
27874SOL    HW185519   3.060   8.405  10.474
27874SOL    HW285520   3.185   8.458  10.408
27875SOL     OW85521  11.850  13.941  10.644
27875SOL    HW185522  11.875  14.025  10.682
27875SOL    HW285523  11.802  13.964  10.564
27876SOL     OW85524   8.773   5.566   3.484
27876SOL    HW185525   8.690   5.532   3.451
27876SOL    HW285526   8.748   5.632   3.549
27877SOL     OW85527   0.683   1.257   2.934
27877SOL    HW185528   0.747   1.322   2.905
27877SOL    HW285529   0.732   1.199   2.992
27878SOL     OW85530  12.413   4.037  11.051
27878SOL    HW185531  12.449   4.111  11.100
27878SOL    HW285532  12.433   3.961  11.107
27879SOL     OW85533   7.868   5.960   1.633
27879SOL    HW185534   7.902   5.956   1.544
27879SOL    HW285535   7.944   5.981   1.687
27880SOL     OW85536  11.340   9.511   2.808
27880SOL    HW185537  11.272   9.507   2.875
27880SOL    HW285538  11.321   9.437   2.750
27881SOL     OW85539   1.405  11.689   9.368
27881SOL    HW185540   1.340  11.744   9.325
27881SOL    HW285541   1.489  11.720   9.334
27882SOL     OW85542   5.911   2.382   4.309
27882SOL    HW185543   5.847   2.453   4.317
27882SOL    HW285544   5.960   2.404   4.229
27883SOL     OW85545  13.373   3.233   0.422
27883SOL    HW185546  13.377   3.247   0.328
27883SOL    HW285547  13.296   3.177   0.435
27884SOL     OW85548  13.010  13.225  12.842
27884SOL    HW185549  12.958  13.147  12.863
27884SOL    HW285550  13.076  13.228  12.911
27885SOL     OW85551   7.077   2.937  13.878
27885SOL    HW185552   7.161   2.921  13.836
27885SOL    HW285553   7.012   2.907  13.814
27886SOL     OW85554   6.835   1.311  10.006
27886SOL    HW185555   6.898   1.239  10.010
27886SOL    HW285556   6.753   1.269   9.980
27887SOL     OW85557   6.157  14.557  14.197
27887SOL    HW185558   6.097  14.498  14.242
27887SOL    HW285559   6.108  14.638  14.187
27888SOL     OW85560  11.365  14.268   9.941
27888SOL    HW185561  11.432  14.200   9.933
27888SOL    HW285562  11.392  14.320  10.017
27889SOL     OW85563   1.462   9.220   2.857
27889SOL    HW185564   1.460   9.125   2.868
27889SOL    HW285565   1.478   9.254   2.945
27890SOL     OW85566   7.523   3.035   0.640
27890SOL    HW185567   7.493   3.047   0.730
27890SOL    HW285568   7.535   3.124   0.607
27891SOL     OW85569   6.560   8.009   2.386
27891SOL    HW185570   6.485   7.952   2.368
27891SOL    HW285571   6.611   8.007   2.305
27892SOL     OW85572   7.987   3.121   0.847
27892SOL    HW185573   8.013   3.210   0.870
27892SOL    HW285574   8.070   3.076   0.830
27893SOL     OW85575  12.980   4.212  12.304
27893SOL    HW185576  12.953   4.156  12.377
27893SOL    HW285577  12.913   4.198  12.238
27894SOL     OW85578   3.955   5.795  12.755
27894SOL    HW185579   3.905   5.872  12.780
27894SOL    HW285580   4.021   5.829  12.694
27895SOL     OW85581  10.282   5.328   1.880
27895SOL    HW185582  10.208   5.267   1.873
27895SOL    HW285583  10.356   5.274   1.907
27896SOL     OW85584  13.978  13.234   9.779
27896SOL    HW185585  13.931  13.207   9.858
27896SOL    HW285586  13.932  13.190   9.708
27897SOL     OW85587  12.761   6.775  13.151
27897SOL    HW185588  12.846   6.731  13.151
27897SOL    HW285589  12.756   6.818  13.066
27898SOL     OW85590  11.325   6.692   5.799
27898SOL    HW185591  11.297   6.602   5.783
27898SOL    HW285592  11.385   6.685   5.874
27899SOL     OW85593   5.124   9.580   6.354
27899SOL    HW185594   5.049   9.523   6.335
27899SOL    HW285595   5.084   9.659   6.390
27900SOL     OW85596  13.757   6.912  13.159
27900SOL    HW185597  13.839   6.931  13.204
27900SOL    HW285598  13.766   6.952  13.073
27901SOL     OW85599   5.654   9.133   0.968
27901SOL    HW185600   5.570   9.101   0.935
27901SOL    HW285601   5.648   9.121   1.063
27902SOL     OW85602   0.840   6.318   8.894
27902SOL    HW185603   0.799   6.403   8.909
27902SOL    HW285604   0.845   6.310   8.799
27903SOL     OW85605  11.016   0.861   6.986
27903SOL    HW185606  11.007   0.933   6.924
27903SOL    HW285607  10.930   0.819   6.987
27904SOL     OW85608  10.525   0.278   8.955
27904SOL    HW185609  10.431   0.257   8.958
27904SOL    HW285610  10.548   0.269   8.863
27905SOL     OW85611   1.008  10.188  14.537
27905SOL    HW185612   1.046  10.105  14.511
27905SOL    HW285613   0.992  10.235  14.455
27906SOL     OW85614  11.452   8.882   1.647
27906SOL    HW185615  11.388   8.884   1.576
27906SOL    HW285616  11.449   8.792   1.679
27907SOL     OW85617   3.627   9.507  10.633
27907SOL    HW185618   3.569   9.431  10.635
27907SOL    HW285619   3.568   9.583  10.638
27908SOL     OW85620   0.696   7.600   6.972
27908SOL    HW185621   0.679   7.694   6.974
27908SOL    HW285622   0.784   7.590   7.009
27909SOL     OW85623   3.225  13.155   2.043
27909SOL    HW185624   3.137  13.140   2.009
27909SOL    HW285625   3.268  13.208   1.976
27910SOL     OW85626  11.708   1.438  10.137
27910SOL    HW185627  11.698   1.344  10.123
27910SOL    HW285628  11.802   1.453  10.132
27911SOL     OW85629  12.762  12.507   5.593
27911SOL    HW185630  12.718  12.460   5.522
27911SOL    HW285631  12.825  12.564   5.548
27912SOL     OW85632   6.671   4.231   7.979
27912SOL    HW185633   6.747   4.203   8.031
27912SOL    HW285634   6.707   4.291   7.914
27913SOL     OW85635  14.259   7.866  12.606
27913SOL    HW185636  14.308   7.791  12.641
27913SOL    HW285637  14.173   7.830  12.584
27914SOL     OW85638   1.482   0.884  11.090
27914SOL    HW185639   1.482   0.918  11.001
27914SOL    HW285640   1.410   0.821  11.092
27915SOL     OW85641   7.891   4.158   2.368
27915SOL    HW185642   7.898   4.080   2.314
27915SOL    HW285643   7.965   4.213   2.341
27916SOL     OW85644  12.470   9.555   7.847
27916SOL    HW185645  12.399   9.492   7.854
27916SOL    HW285646  12.530   9.516   7.784
27917SOL     OW85647  12.245   6.491  13.446
27917SOL    HW185648  12.285   6.472  13.361
27917SOL    HW285649  12.283   6.574  13.472
27918SOL     OW85650  10.281  13.440  12.334
27918SOL    HW185651  10.239  13.504  12.276
27918SOL    HW285652  10.210  13.410  12.391
27919SOL     OW85653   1.250   8.563   5.849
27919SOL    HW185654   1.246   8.503   5.774
27919SOL    HW285655   1.343   8.581   5.860
27920SOL     OW85656  13.362   6.531  13.244
27920SOL    HW185657  13.271   6.529  13.275
27920SOL    HW285658  13.356   6.570  13.157
27921SOL     OW85659   5.259  10.204  14.641
27921SOL    HW185660   5.257  10.285  14.589
27921SOL    HW285661   5.247  10.135  14.576
27922SOL     OW85662   0.640  10.775  12.877
27922SOL    HW185663   0.563  10.772  12.935
27922SOL    HW285664   0.712  10.802  12.934
27923SOL     OW85665  11.205   5.644   0.716
27923SOL    HW185666  11.279   5.699   0.691
27923SOL    HW285667  11.128   5.700   0.706
27924SOL     OW85668   8.559   9.750   1.296
27924SOL    HW185669   8.541   9.811   1.368
27924SOL    HW285670   8.473   9.717   1.270
27925SOL     OW85671   7.212  13.900   5.826
27925SOL    HW185672   7.246  13.823   5.872
27925SOL    HW285673   7.171  13.952   5.895
27926SOL     OW85674   2.998   0.117   4.109
27926SOL    HW185675   2.928   0.056   4.089
27926SOL    HW285676   3.002   0.119   4.205
27927SOL     OW85677   0.559   5.442  13.714
27927SOL    HW185678   0.632   5.501  13.733
27927SOL    HW285679   0.522   5.421  13.800
27928SOL     OW85680  12.301   8.059  13.798
27928SOL    HW185681  12.330   8.147  13.821
27928SOL    HW285682  12.381   8.012  13.774
27929SOL     OW85683  13.190   8.644  13.574
27929SOL    HW185684  13.284   8.634  13.559
27929SOL    HW285685  13.158   8.554  13.583
27930SOL     OW85686   3.698   8.921   7.889
27930SOL    HW185687   3.640   8.989   7.922
27930SOL    HW285688   3.691   8.926   7.794
27931SOL     OW85689   1.661   4.332   0.694
27931SOL    HW185690   1.566   4.338   0.686
27931SOL    HW285691   1.695   4.393   0.629
27932SOL     OW85692   1.421  13.538   3.498
27932SOL    HW185693   1.347  13.478   3.489
27932SOL    HW285694   1.453  13.550   3.408
27933SOL     OW85695  14.679   3.831   4.183
27933SOL    HW185696  14.680   3.738   4.159
27933SOL    HW285697  14.765   3.864   4.157
27934SOL     OW85698  11.723   6.716   3.436
27934SOL    HW185699  11.797   6.762   3.396
27934SOL    HW285700  11.662   6.785   3.461
27935SOL     OW85701   1.510   8.034   1.859
27935SOL    HW185702   1.569   8.046   1.933
27935SOL    HW285703   1.566   8.010   1.786
27936SOL     OW85704   6.308  11.689  11.776
27936SOL    HW185705   6.352  11.613  11.739
27936SOL    HW285706   6.216  11.677  11.756
27937SOL     OW85707  13.447  13.303   6.698
27937SOL    HW185708  13.371  13.250   6.674
27937SOL    HW285709  13.411  13.388   6.722
27938SOL     OW85710   3.608   4.115   1.395
27938SOL    HW185711   3.564   4.165   1.326
27938SOL    HW285712   3.561   4.032   1.399
27939SOL     OW85713   7.579  14.538  12.591
27939SOL    HW185714   7.653  14.490  12.630
27939SOL    HW285715   7.577  14.508  12.500
27940SOL     OW85716  14.815  10.263   8.417
27940SOL    HW185717  14.749  10.194   8.418
27940SOL    HW285718   0.008  10.225   8.371
27941SOL     OW85719   5.966  14.171   2.590
27941SOL    HW185720   6.038  14.217   2.546
27941SOL    HW285721   5.892  14.181   2.531
27942SOL     OW85722   1.695   5.176   4.003
27942SOL    HW185723   1.610   5.138   4.024
27942SOL    HW285724   1.694   5.263   4.044
27943SOL     OW85725   0.626  10.421  10.529
27943SOL    HW185726   0.656  10.365  10.601
27943SOL    HW285727   0.569  10.485  10.571
27944SOL     OW85728  11.245   7.918   6.929
27944SOL    HW185729  11.309   7.900   6.998
27944SOL    HW285730  11.239   8.014   6.927
27945SOL     OW85731  11.759   1.859   4.828
27945SOL    HW185732  11.825   1.914   4.786
27945SOL    HW285733  11.779   1.864   4.921
27946SOL     OW85734   2.940   2.926   0.934
27946SOL    HW185735   2.905   3.003   0.978
27946SOL    HW285736   3.032   2.923   0.959
27947SOL     OW85737   8.056  11.202  13.550
27947SOL    HW185738   8.148  11.178  13.560
27947SOL    HW285739   8.050  11.291  13.584
27948SOL     OW85740  10.679   3.158   6.976
27948SOL    HW185741  10.657   3.089   6.914
27948SOL    HW285742  10.739   3.215   6.928
27949SOL     OW85743   6.355  13.426   7.250
27949SOL    HW185744   6.353  13.331   7.242
27949SOL    HW285745   6.300  13.457   7.178
27950SOL     OW85746   8.707   8.694   1.977
27950SOL    HW185747   8.764   8.749   2.031
27950SOL    HW285748   8.705   8.738   1.892
27951SOL     OW85749   6.416   1.945   7.627
27951SOL    HW185750   6.479   1.993   7.572
27951SOL    HW285751   6.470   1.904   7.695
27952SOL     OW85752   4.027   9.993  14.613
27952SOL    HW185753   4.107   9.943  14.630
27952SOL    HW285754   4.058  10.082  14.594
27953SOL     OW85755   9.455   9.916   9.734
27953SOL    HW185756   9.432   9.832   9.696
27953SOL    HW285757   9.373   9.967   9.732
27954SOL     OW85758  12.989   1.475   6.958
27954SOL    HW185759  12.978   1.393   6.911
27954SOL    HW285760  13.054   1.456   7.026
27955SOL     OW85761  12.131  13.998  14.791
27955SOL    HW185762  12.107  14.002   0.001
27955SOL    HW285763  12.068  14.055  14.747
27956SOL     OW85764   5.164   8.815  10.643
27956SOL    HW185765   5.201   8.871  10.575
27956SOL    HW285766   5.227   8.820  10.714
27957SOL     OW85767   1.775  10.231   3.640
27957SOL    HW185768   1.767  10.231   3.545
27957SOL    HW285769   1.821  10.313   3.660
27958SOL     OW85770   6.541   2.576   6.576
27958SOL    HW185771   6.589   2.659   6.580
27958SOL    HW285772   6.514   2.569   6.485
27959SOL     OW85773   8.264   4.247   3.834
27959SOL    HW185774   8.326   4.319   3.841
27959SOL    HW285775   8.313   4.170   3.863
27960SOL     OW85776  13.555   5.579  12.874
27960SOL    HW185777  13.464   5.556  12.854
27960SOL    HW285778  13.589   5.617  12.793
27961SOL     OW85779  14.376  14.632   6.408
27961SOL    HW185780  14.319  14.600   6.338
27961SOL    HW285781  14.458  14.655   6.363
27962SOL     OW85782  11.810   1.817   9.045
27962SOL    HW185783  11.756   1.892   9.017
27962SOL    HW285784  11.899   1.841   9.019
27963SOL     OW85785   6.765   7.209   3.640
27963SOL    HW185786   6.673   7.232   3.650
27963SOL    HW285787   6.801   7.218   3.729
27964SOL     OW85788   6.133   8.084  12.024
27964SOL    HW185789   6.176   8.003  12.000
27964SOL    HW285790   6.204   8.146  12.040
27965SOL     OW85791   3.829   0.581   1.202
27965SOL    HW185792   3.895   0.644   1.171
27965SOL    HW285793   3.745   0.618   1.172
27966SOL     OW85794  12.295   3.425   9.494
27966SOL    HW185795  12.319   3.515   9.518
27966SOL    HW285796  12.259   3.388   9.575
27967SOL     OW85797  12.795  11.580   1.309
27967SOL    HW185798  12.864  11.637   1.342
27967SOL    HW285799  12.719  11.600   1.364
27968SOL     OW85800   1.181  10.498   8.050
27968SOL    HW185801   1.172  10.496   8.146
27968SOL    HW285802   1.091  10.507   8.019
27969SOL     OW85803  12.773   8.881   0.773
27969SOL    HW185804  12.732   8.797   0.750
27969SOL    HW285805  12.852   8.856   0.822
27970SOL     OW85806   4.575   9.614   3.880
27970SOL    HW185807   4.547   9.665   3.955
27970SOL    HW285808   4.658   9.573   3.908
27971SOL     OW85809  12.633   3.503   7.805
27971SOL    HW185810  12.713   3.485   7.754
27971SOL    HW285811  12.580   3.558   7.747
27972SOL     OW85812   2.890   9.577   6.810
27972SOL    HW185813   2.796   9.575   6.829
27972SOL    HW285814   2.895   9.580   6.715
27973SOL     OW85815   0.079   8.417  10.658
27973SOL    HW185816   0.055   8.345  10.717
27973SOL    HW285817   0.117   8.483  10.715
27974SOL     OW85818   9.267   1.532   2.590
27974SOL    HW185819   9.251   1.582   2.510
27974SOL    HW285820   9.335   1.469   2.567
27975SOL     OW85821  10.042   4.319   8.555
27975SOL    HW185822  10.033   4.413   8.565
27975SOL    HW285823  10.017   4.302   8.464
27976SOL     OW85824   4.308   7.846   8.203
27976SOL    HW185825   4.395   7.866   8.170
27976SOL    HW285826   4.263   7.931   8.204
27977SOL     OW85827   0.489  14.763   4.287
27977SOL    HW185828   0.505  14.745   4.379
27977SOL    HW285829   0.574  14.750   4.245
27978SOL     OW85830   1.310   4.097  13.270
27978SOL    HW185831   1.374   4.123  13.337
27978SOL    HW285832   1.244   4.167  13.271
27979SOL     OW85833   3.396   4.919   4.768
27979SOL    HW185834   3.310   4.892   4.736
27979SOL    HW285835   3.377   4.964   4.851
27980SOL     OW85836   7.135   9.263   3.969
27980SOL    HW185837   7.225   9.231   3.969
27980SOL    HW285838   7.133   9.328   4.039
27981SOL     OW85839   7.049  11.691   8.305
27981SOL    HW185840   7.018  11.782   8.307
27981SOL    HW285841   7.093  11.683   8.221
27982SOL     OW85842   3.975  10.779  12.426
27982SOL    HW185843   3.901  10.779  12.486
27982SOL    HW285844   3.956  10.849  12.364
27983SOL     OW85845   3.234   2.002  14.045
27983SOL    HW185846   3.148   2.037  14.021
27983SOL    HW285847   3.218   1.947  14.121
27984SOL     OW85848   4.831  14.418  11.527
27984SOL    HW185849   4.914  14.371  11.538
27984SOL    HW285850   4.835  14.487  11.593
27985SOL     OW85851  14.280  12.343   7.306
27985SOL    HW185852  14.339  12.290   7.359
27985SOL    HW285853  14.291  12.309   7.217
27986SOL     OW85854   4.951   0.517  14.829
27986SOL    HW185855   4.916   0.520  14.740
27986SOL    HW285856   4.967   0.424  14.846
27987SOL     OW85857   4.010   0.648  12.541
27987SOL    HW185858   4.098   0.615  12.523
27987SOL    HW285859   4.014   0.741  12.520
27988SOL     OW85860   5.350   6.241   4.926
27988SOL    HW185861   5.364   6.314   4.866
27988SOL    HW285862   5.258   6.250   4.953
27989SOL     OW85863   2.392  11.830  11.274
27989SOL    HW185864   2.352  11.787  11.349
27989SOL    HW285865   2.485  11.813  11.283
27990SOL     OW85866   2.717   6.335  13.796
27990SOL    HW185867   2.684   6.316  13.884
27990SOL    HW285868   2.673   6.271  13.740
27991SOL     OW85869   1.157   5.042   9.435
27991SOL    HW185870   1.128   5.130   9.458
27991SOL    HW285871   1.250   5.040   9.456
27992SOL     OW85872   4.307   5.898   8.288
27992SOL    HW185873   4.390   5.942   8.308
27992SOL    HW285874   4.322   5.806   8.308
27993SOL     OW85875   0.547   4.930   4.379
27993SOL    HW185876   0.491   5.007   4.369
27993SOL    HW285877   0.524   4.874   4.305
27994SOL     OW85878  13.504  14.841  13.360
27994SOL    HW185879  13.462  14.841  13.274
27994SOL    HW285880  13.526  14.749  13.375
27995SOL     OW85881   0.091   7.553   5.248
27995SOL    HW185882   0.047   7.596   5.175
27995SOL    HW285883   0.183   7.577   5.238
27996SOL     OW85884  10.317  10.738   5.983
27996SOL    HW185885  10.391  10.774   5.933
27996SOL    HW285886  10.270  10.684   5.920
27997SOL     OW85887   7.422   3.662   9.353
27997SOL    HW185888   7.333   3.696   9.340
27997SOL    HW285889   7.414   3.567   9.345
27998SOL     OW85890   7.753  10.601  13.839
27998SOL    HW185891   7.801  10.639  13.913
27998SOL    HW285892   7.712  10.522  13.875
27999SOL     OW85893   6.007  10.095   1.333
27999SOL    HW185894   5.932  10.139   1.374
27999SOL    HW285895   5.970  10.053   1.255
28000SOL     OW85896   3.646  10.296   7.755
28000SOL    HW185897   3.628  10.350   7.832
28000SOL    HW285898   3.697  10.352   7.697
28001SOL     OW85899   4.499   5.415   8.157
28001SOL    HW185900   4.575   5.360   8.176
28001SOL    HW285901   4.450   5.366   8.090
28002SOL     OW85902   3.235   7.441   2.424
28002SOL    HW185903   3.187   7.433   2.342
28002SOL    HW285904   3.243   7.535   2.437
28003SOL     OW85905   7.974   7.936   3.039
28003SOL    HW185906   7.954   8.001   3.106
28003SOL    HW285907   7.997   7.987   2.962
28004SOL     OW85908  10.107   2.569   9.490
28004SOL    HW185909  10.186   2.554   9.541
28004SOL    HW285910  10.076   2.655   9.518
28005SOL     OW85911   7.526   9.269  10.768
28005SOL    HW185912   7.589   9.208  10.729
28005SOL    HW285913   7.541   9.352  10.723
28006SOL     OW85914  11.283  13.690   6.523
28006SOL    HW185915  11.225  13.637   6.468
28006SOL    HW285916  11.346  13.628   6.559
28007SOL     OW85917   8.963  10.797   6.111
28007SOL    HW185918   8.946  10.879   6.158
28007SOL    HW285919   9.005  10.741   6.177
28008SOL     OW85920  11.279   5.025   7.868
28008SOL    HW185921  11.200   5.078   7.872
28008SOL    HW285922  11.297   5.016   7.774
28009SOL     OW85923   5.048  11.480   8.998
28009SOL    HW185924   5.043  11.575   9.007
28009SOL    HW285925   5.142  11.463   8.984
28010SOL     OW85926   5.560  11.589   9.677
28010SOL    HW185927   5.578  11.560   9.767
28010SOL    HW285928   5.516  11.674   9.688
28011SOL     OW85929  13.143   4.452   3.518
28011SOL    HW185930  13.119   4.501   3.440
28011SOL    HW285931  13.069   4.465   3.578
28012SOL     OW85932   8.879   3.523   7.292
28012SOL    HW185933   8.848   3.454   7.351
28012SOL    HW285934   8.835   3.602   7.322
28013SOL     OW85935  12.520  11.720   6.853
28013SOL    HW185936  12.443  11.682   6.811
28013SOL    HW285937  12.514  11.691   6.944
28014SOL     OW85938   7.303  11.865   1.040
28014SOL    HW185939   7.379  11.875   1.098
28014SOL    HW285940   7.233  11.834   1.097
28015SOL     OW85941   6.715   6.787  12.815
28015SOL    HW185942   6.763   6.736  12.749
28015SOL    HW285943   6.733   6.742  12.897
28016SOL     OW85944   7.247  13.560   0.404
28016SOL    HW185945   7.185  13.527   0.340
28016SOL    HW285946   7.194  13.611   0.465
28017SOL     OW85947   0.625   2.210   9.229
28017SOL    HW185948   0.590   2.258   9.154
28017SOL    HW285949   0.618   2.118   9.204
28018SOL     OW85950  13.737   5.686   7.144
28018SOL    HW185951  13.662   5.628   7.147
28018SOL    HW285952  13.737   5.721   7.055
28019SOL     OW85953   3.245   7.713   9.849
28019SOL    HW185954   3.269   7.682   9.761
28019SOL    HW285955   3.159   7.674   9.866
28020SOL     OW85956   0.740   6.157   3.541
28020SOL    HW185957   0.738   6.065   3.518
28020SOL    HW285958   0.654   6.174   3.581
28021SOL     OW85959   2.501   1.366   0.444
28021SOL    HW185960   2.543   1.379   0.358
28021SOL    HW285961   2.466   1.453   0.466
28022SOL     OW85962   9.934  13.849   6.382
28022SOL    HW185963   9.965  13.905   6.311
28022SOL    HW285964   9.846  13.823   6.355
28023SOL     OW85965   5.934  10.212   5.011
28023SOL    HW185966   5.911  10.127   5.049
28023SOL    HW285967   5.991  10.191   4.937
28024SOL     OW85968   2.868  14.688   2.601
28024SOL    HW185969   2.791  14.678   2.546
28024SOL    HW285970   2.936  14.639   2.557
28025SOL     OW85971   1.077   3.532  10.724
28025SOL    HW185972   0.995   3.580  10.739
28025SOL    HW285973   1.142   3.577  10.777
28026SOL     OW85974   1.752  12.129   1.053
28026SOL    HW185975   1.762  12.109   0.960
28026SOL    HW285976   1.663  12.165   1.061
28027SOL     OW85977  13.216   7.279   1.761
28027SOL    HW185978  13.263   7.362   1.763
28027SOL    HW285979  13.130   7.301   1.724
28028SOL     OW85980   4.138   3.511   2.429
28028SOL    HW185981   4.094   3.440   2.477
28028SOL    HW285982   4.118   3.494   2.337
28029SOL     OW85983  11.291   2.123  12.397
28029SOL    HW185984  11.201   2.137  12.365
28029SOL    HW285985  11.286   2.042  12.447
28030SOL     OW85986   2.239   9.687   0.746
28030SOL    HW185987   2.323   9.711   0.708
28030SOL    HW285988   2.199   9.629   0.681
28031SOL     OW85989   8.093   6.410   0.635
28031SOL    HW185990   8.087   6.322   0.600
28031SOL    HW285991   8.096   6.398   0.730
28032SOL     OW85992   6.346  11.301   5.207
28032SOL    HW185993   6.320  11.372   5.148
28032SOL    HW285994   6.441  11.295   5.197
28033SOL     OW85995  14.746   7.648  10.393
28033SOL    HW185996  14.714   7.705  10.463
28033SOL    HW285997  14.836   7.677  10.378
28034SOL     OW85998   2.752   5.691   3.927
28034SOL    HW185999   2.792   5.748   3.993
28034SOL    HW286000   2.825   5.658   3.875
28035SOL     OW86001   9.469   6.653   3.172
28035SOL    HW186002   9.414   6.575   3.169
28035SOL    HW286003   9.473   6.676   3.265
28036SOL     OW86004   8.145  11.014   3.114
28036SOL    HW186005   8.166  11.102   3.086
28036SOL    HW286006   8.053  11.017   3.139
28037SOL     OW86007   6.983   0.167   8.039
28037SOL    HW186008   7.027   0.093   8.079
28037SOL    HW286009   6.907   0.129   7.994
28038SOL     OW86010  11.761  13.902  10.023
28038SOL    HW186011  11.844  13.924   9.981
28038SOL    HW286012  11.766  13.807  10.038
28039SOL     OW86013   9.691  12.504   8.943
28039SOL    HW186014   9.639  12.435   8.983
28039SOL    HW286015   9.750  12.457   8.883
28040SOL     OW86016  10.545   3.114  11.176
28040SOL    HW186017  10.536   3.030  11.221
28040SOL    HW286018  10.494   3.175  11.230
28041SOL     OW86019   0.498   6.213   4.591
28041SOL    HW186020   0.572   6.153   4.605
28041SOL    HW286021   0.427   6.175   4.642
28042SOL     OW86022   5.735  11.794  11.232
28042SOL    HW186023   5.657  11.832  11.193
28042SOL    HW286024   5.796  11.868  11.240
28043SOL     OW86025   7.631   1.256   1.508
28043SOL    HW186026   7.712   1.229   1.550
28043SOL    HW286027   7.564   1.200   1.546
28044SOL     OW86028  12.906   1.529   7.944
28044SOL    HW186029  12.986   1.545   7.995
28044SOL    HW286030  12.893   1.611   7.896
28045SOL     OW86031  12.314   0.642  10.697
28045SOL    HW186032  12.396   0.688  10.684
28045SOL    HW286033  12.249   0.696  10.652
28046SOL     OW86034   9.753  14.541  13.419
28046SOL    HW186035   9.837  14.505  13.391
28046SOL    HW286036   9.688  14.493  13.367
28047SOL     OW86037   9.905   8.881   2.690
28047SOL    HW186038   9.889   8.818   2.760
28047SOL    HW286039   9.989   8.855   2.653
28048SOL     OW86040   7.636  10.641   4.101
28048SOL    HW186041   7.730  10.639   4.083
28048SOL    HW286042   7.627  10.704   4.173
28049SOL     OW86043   9.849   0.024   1.338
28049SOL    HW186044   9.759   0.050   1.360
28049SOL    HW286045   9.903   0.066   1.404
28050SOL     OW86046   7.620  12.038  14.502
28050SOL    HW186047   7.646  12.106  14.563
28050SOL    HW286048   7.601  11.962  14.557
28051SOL     OW86049  11.164   8.441   5.151
28051SOL    HW186050  11.130   8.519   5.195
28051SOL    HW286051  11.179   8.470   5.060
28052SOL     OW86052  10.279   2.655   7.315
28052SOL    HW186053  10.248   2.720   7.378
28052SOL    HW286054  10.232   2.575   7.338
28053SOL     OW86055   5.992  10.703  11.525
28053SOL    HW186056   5.999  10.647  11.602
28053SOL    HW286057   6.009  10.792  11.557
28054SOL     OW86058  13.956   9.944   1.458
28054SOL    HW186059  13.865   9.950   1.487
28054SOL    HW286060  13.984   9.857   1.485
28055SOL     OW86061  10.626   5.343   8.731
28055SOL    HW186062  10.567   5.362   8.804
28055SOL    HW286063  10.687   5.279   8.765
28056SOL     OW86064   2.534   9.956   9.452
28056SOL    HW186065   2.529   9.874   9.404
28056SOL    HW286066   2.627   9.977   9.454
28057SOL     OW86067   1.785   8.644   1.594
28057SOL    HW186068   1.866   8.694   1.603
28057SOL    HW286069   1.755   8.662   1.505
28058SOL     OW86070  13.595   4.744   9.915
28058SOL    HW186071  13.540   4.763   9.839
28058SOL    HW286072  13.613   4.650   9.908
28059SOL     OW86073  13.216   0.588  10.911
28059SOL    HW186074  13.143   0.535  10.878
28059SOL    HW286075  13.234   0.552  10.998
28060SOL     OW86076   6.226  13.508   7.041
28060SOL    HW186077   6.224  13.456   6.961
28060SOL    HW286078   6.137  13.540   7.051
28061SOL     OW86079   8.879  14.796  11.646
28061SOL    HW186080   8.918  14.802  11.559
28061SOL    HW286081   8.869   0.004  11.674
28062SOL     OW86082  11.066  14.399   0.494
28062SOL    HW186083  11.019  14.470   0.538
28062SOL    HW286084  10.999  14.355   0.441
28063SOL     OW86085   4.684  12.090  10.524
28063SOL    HW186086   4.647  12.037  10.594
28063SOL    HW286087   4.635  12.064  10.446
28064SOL     OW86088   1.879   6.377   4.231
28064SOL    HW186089   1.851   6.428   4.155
28064SOL    HW286090   1.805   6.320   4.251
28065SOL     OW86091   7.028   6.599  14.046
28065SOL    HW186092   7.053   6.630  14.133
28065SOL    HW286093   7.010   6.505  14.058
28066SOL     OW86094  12.308   2.822  10.932
28066SOL    HW186095  12.247   2.827  10.858
28066SOL    HW286096  12.251   2.815  11.009
28067SOL     OW86097   1.594   6.448  12.749
28067SOL    HW186098   1.627   6.482  12.666
28067SOL    HW286099   1.506   6.485  12.757
28068SOL     OW86100   7.115   1.073   6.135
28068SOL    HW186101   7.087   1.153   6.178
28068SOL    HW286102   7.095   1.003   6.198
28069SOL     OW86103   0.361  12.882   0.074
28069SOL    HW186104   0.456  12.892   0.075
28069SOL    HW286105   0.338  12.879  14.864
28070SOL     OW86106   3.110   3.083   2.088
28070SOL    HW186107   3.121   3.090   2.183
28070SOL    HW286108   3.021   3.050   2.076
28071SOL     OW86109   6.407   7.940  13.735
28071SOL    HW186110   6.461   8.017  13.718
28071SOL    HW286111   6.436   7.877  13.669
28072SOL     OW86112  12.418   9.291   3.703
28072SOL    HW186113  12.473   9.359   3.742
28072SOL    HW286114  12.392   9.236   3.777
28073SOL     OW86115  13.045  11.308  10.842
28073SOL    HW186116  13.110  11.240  10.823
28073SOL    HW286117  12.990  11.310  10.764
28074SOL     OW86118   5.514  13.288  11.097
28074SOL    HW186119   5.505  13.252  11.009
28074SOL    HW286120   5.432  13.335  11.113
28075SOL     OW86121  14.128  14.263   6.327
28075SOL    HW186122  14.179  14.266   6.246
28075SOL    HW286123  14.059  14.327   6.314
28076SOL     OW86124   8.036  14.239   1.009
28076SOL    HW186125   8.047  14.329   1.039
28076SOL    HW286126   8.017  14.247   0.915
28077SOL     OW86127   4.833  12.390   3.422
28077SOL    HW186128   4.779  12.388   3.343
28077SOL    HW286129   4.802  12.317   3.474
28078SOL     OW86130   9.501   9.832  12.779
28078SOL    HW186131   9.451   9.810  12.701
28078SOL    HW286132   9.479   9.763  12.842
28079SOL     OW86133   7.205  11.869   6.145
28079SOL    HW186134   7.274  11.850   6.209
28079SOL    HW286135   7.129  11.820   6.176
28080SOL     OW86136  12.134  13.186   3.733
28080SOL    HW186137  12.214  13.186   3.680
28080SOL    HW286138  12.163  13.221   3.818
28081SOL     OW86139   8.478   8.217   5.868
28081SOL    HW186140   8.394   8.256   5.842
28081SOL    HW286141   8.538   8.292   5.876
28082SOL     OW86142   5.682   2.184  10.915
28082SOL    HW186143   5.736   2.115  10.953
28082SOL    HW286144   5.703   2.262  10.966
28083SOL     OW86145   2.466  11.809  13.531
28083SOL    HW186146   2.406  11.745  13.493
28083SOL    HW286147   2.460  11.793  13.626
28084SOL     OW86148  13.090   4.376   9.242
28084SOL    HW186149  13.143   4.332   9.308
28084SOL    HW286150  13.073   4.463   9.279
28085SOL     OW86151   5.998   3.792   6.162
28085SOL    HW186152   5.929   3.846   6.124
28085SOL    HW286153   5.954   3.712   6.190
28086SOL     OW86154   2.154   9.177   2.779
28086SOL    HW186155   2.191   9.089   2.771
28086SOL    HW286156   2.174   9.203   2.869
28087SOL     OW86157  13.685   6.817   4.564
28087SOL    HW186158  13.621   6.792   4.497
28087SOL    HW286159  13.727   6.895   4.529
28088SOL     OW86160   3.073   4.045   4.943
28088SOL    HW186161   3.077   4.066   5.037
28088SOL    HW286162   3.042   3.954   4.941
28089SOL     OW86163   4.006  11.785  12.891
28089SOL    HW186164   4.075  11.835  12.935
28089SOL    HW286165   3.930  11.794  12.949
28090SOL     OW86166   6.623  13.352   4.062
28090SOL    HW186167   6.595  13.282   4.121
28090SOL    HW286168   6.717  13.338   4.049
28091SOL     OW86169   1.182   0.133   6.384
28091SOL    HW186170   1.254   0.149   6.445
28091SOL    HW286171   1.183   0.209   6.327
28092SOL     OW86172   9.364   8.315   8.271
28092SOL    HW186173   9.378   8.406   8.247
28092SOL    HW286174   9.428   8.298   8.340
28093SOL     OW86175  11.001  10.219   7.292
28093SOL    HW186176  10.976  10.148   7.233
28093SOL    HW286177  10.918  10.259   7.319
28094SOL     OW86178   3.610   9.271   0.818
28094SOL    HW186179   3.634   9.297   0.907
28094SOL    HW286180   3.568   9.349   0.781
28095SOL     OW86181  12.909   3.486   2.671
28095SOL    HW186182  12.965   3.558   2.702
28095SOL    HW286183  12.885   3.511   2.582
28096SOL     OW86184   1.267  13.652   3.120
28096SOL    HW186185   1.178  13.682   3.139
28096SOL    HW286186   1.268  13.637   3.026
28097SOL     OW86187   0.768   1.080  12.036
28097SOL    HW186188   0.709   1.120  12.099
28097SOL    HW286189   0.710   1.040  11.970
28098SOL     OW86190  12.424   7.625   5.291
28098SOL    HW186191  12.449   7.557   5.228
28098SOL    HW286192  12.395   7.577   5.368
28099SOL     OW86193   3.151   5.876  11.170
28099SOL    HW186194   3.225   5.822  11.198
28099SOL    HW286195   3.180   5.916  11.088
28100SOL     OW86196  14.561   0.025  13.459
28100SOL    HW186197  14.504  14.849  13.409
28100SOL    HW286198  14.510   0.047  13.537
28101SOL     OW86199   7.730  12.352  14.810
28101SOL    HW186200   7.774  12.277  14.850
28101SOL    HW286201   7.647  12.359  14.857
28102SOL     OW86202  11.898   6.137   0.542
28102SOL    HW186203  11.817   6.088   0.528
28102SOL    HW286204  11.959   6.102   0.478
28103SOL     OW86205   9.847   3.646   1.212
28103SOL    HW186206   9.885   3.559   1.200
28103SOL    HW286207   9.800   3.641   1.295
28104SOL     OW86208   7.233   3.977  10.074
28104SOL    HW186209   7.194   3.932   9.999
28104SOL    HW286210   7.196   3.934  10.151
28105SOL     OW86211  11.504  11.872  13.993
28105SOL    HW186212  11.563  11.882  13.918
28105SOL    HW286213  11.458  11.790  13.978
28106SOL     OW86214   8.264   2.972   1.791
28106SOL    HW186215   8.206   2.929   1.853
28106SOL    HW286216   8.352   2.953   1.823
28107SOL     OW86217  12.772   2.341   2.989
28107SOL    HW186218  12.751   2.338   2.896
28107SOL    HW286219  12.853   2.290   2.997
28108SOL     OW86220   9.313   4.877   4.761
28108SOL    HW186221   9.286   4.960   4.722
28108SOL    HW286222   9.395   4.855   4.717
28109SOL     OW86223   9.703   5.939   6.643
28109SOL    HW186224   9.658   6.007   6.593
28109SOL    HW286225   9.657   5.936   6.726
28110SOL     OW86226   6.902  12.203   1.781
28110SOL    HW186227   6.849  12.216   1.859
28110SOL    HW286228   6.879  12.115   1.751
28111SOL     OW86229   7.747   1.271   5.331
28111SOL    HW186230   7.706   1.320   5.402
28111SOL    HW286231   7.686   1.279   5.258
28112SOL     OW86232   9.388  12.754   6.090
28112SOL    HW186233   9.382  12.818   6.161
28112SOL    HW286234   9.453  12.690   6.121
28113SOL     OW86235  11.581   6.857   3.054
28113SOL    HW186236  11.623   6.889   2.974
28113SOL    HW286237  11.491   6.839   3.026
28114SOL     OW86238   1.691   2.403  12.678
28114SOL    HW186239   1.694   2.434  12.587
28114SOL    HW286240   1.779   2.370  12.695
28115SOL     OW86241   0.574   3.853   8.671
28115SOL    HW186242   0.506   3.848   8.738
28115SOL    HW286243   0.626   3.774   8.683
28116SOL     OW86244   5.644   9.647  13.685
28116SOL    HW186245   5.667   9.623  13.596
28116SOL    HW286246   5.700   9.723  13.704
28117SOL     OW86247   0.114   4.254   9.232
28117SOL    HW186248   0.138   4.208   9.313
28117SOL    HW286249   0.165   4.335   9.235
28118SOL     OW86250   1.010   9.715   1.505
28118SOL    HW186251   1.039   9.654   1.573
28118SOL    HW286252   1.005   9.800   1.551
28119SOL     OW86253   7.170  12.210   2.669
28119SOL    HW186254   7.239  12.237   2.729
28119SOL    HW286255   7.096  12.266   2.690
28120SOL     OW86256   9.605   0.852  14.091
28120SOL    HW186257   9.689   0.844  14.137
28120SOL    HW286258   9.588   0.947  14.089
28121SOL     OW86259   0.317   2.623   7.233
28121SOL    HW186260   0.304   2.704   7.282
28121SOL    HW286261   0.391   2.641   7.175
28122SOL     OW86262  14.247   4.881   3.976
28122SOL    HW186263  14.342   4.890   3.989
28122SOL    HW286264  14.209   4.914   4.058
28123SOL     OW86265   5.307   2.753   6.361
28123SOL    HW186266   5.400   2.744   6.344
28123SOL    HW286267   5.285   2.840   6.328
28124SOL     OW86268   6.015  14.085  10.632
28124SOL    HW186269   6.063  14.166  10.650
28124SOL    HW286270   5.923  14.110  10.635
28125SOL     OW86271   1.198  11.583   3.715
28125SOL    HW186272   1.188  11.617   3.803
28125SOL    HW286273   1.251  11.649   3.669
28126SOL     OW86274   5.298  14.096   5.689
28126SOL    HW186275   5.335  14.075   5.603
28126SOL    HW286276   5.228  14.031   5.702
28127SOL     OW86277  11.108   0.056   3.193
28127SOL    HW186278  11.198   0.044   3.165
28127SOL    HW286279  11.057   0.055   3.112
28128SOL     OW86280   3.686  10.317  12.505
28128SOL    HW186281   3.722  10.243  12.554
28128SOL    HW286282   3.725  10.395  12.547
28129SOL     OW86283  12.010   0.706   5.591
28129SOL    HW186284  12.000   0.786   5.540
28129SOL    HW286285  11.925   0.694   5.634
28130SOL     OW86286   0.841   8.802   5.056
28130SOL    HW186287   0.869   8.890   5.030
28130SOL    HW286288   0.790   8.817   5.136
28131SOL     OW86289   3.213  13.193  14.365
28131SOL    HW186290   3.213  13.224  14.455
28131SOL    HW286291   3.187  13.269  14.313
28132SOL     OW86292  14.831   6.336   7.886
28132SOL    HW186293  14.770   6.352   7.958
28132SOL    HW286294  14.811   6.248   7.856
28133SOL     OW86295   8.433  12.772   1.358
28133SOL    HW186296   8.418  12.681   1.331
28133SOL    HW286297   8.468  12.764   1.447
28134SOL     OW86298   8.597   5.000  12.774
28134SOL    HW186299   8.691   5.021  12.776
28134SOL    HW286300   8.593   4.912  12.737
28135SOL     OW86301   8.274  10.648  12.290
28135SOL    HW186302   8.250  10.707  12.361
28135SOL    HW286303   8.363  10.620  12.310
28136SOL     OW86304   9.136   7.861   4.718
28136SOL    HW186305   9.078   7.805   4.668
28136SOL    HW286306   9.224   7.828   4.700
28137SOL     OW86307   6.384  14.817   4.279
28137SOL    HW186308   6.301  14.793   4.320
28137SOL    HW286309   6.382  14.774   4.194
28138SOL     OW86310   6.494   9.458   6.822
28138SOL    HW186311   6.400   9.441   6.817
28138SOL    HW286312   6.505   9.546   6.787
28139SOL     OW86313   4.610   2.856  13.296
28139SOL    HW186314   4.605   2.779  13.239
28139SOL    HW286315   4.674   2.833  13.363
28140SOL     OW86316   0.391   2.909   0.507
28140SOL    HW186317   0.397   2.814   0.498
28140SOL    HW286318   0.300   2.925   0.533
28141SOL     OW86319  14.140   0.102  12.708
28141SOL    HW186320  14.110   0.011  12.705
28141SOL    HW286321  14.092   0.141  12.782
28142SOL     OW86322  10.263   7.836  11.967
28142SOL    HW186323  10.335   7.890  11.998
28142SOL    HW286324  10.217   7.890  11.903
28143SOL     OW86325   2.722  11.855  13.444
28143SOL    HW186326   2.631  11.850  13.474
28143SOL    HW286327   2.717  11.840  13.349
28144SOL     OW86328  12.675   8.106   3.806
28144SOL    HW186329  12.726   8.072   3.879
28144SOL    HW286330  12.668   8.200   3.824
28145SOL     OW86331  11.861  12.560  14.716
28145SOL    HW186332  11.955  12.580  14.725
28145SOL    HW286333  11.846  12.489  14.777
28146SOL     OW86334   2.750   5.113  12.942
28146SOL    HW186335   2.791   5.169  13.009
28146SOL    HW286336   2.807   5.121  12.866
28147SOL     OW86337   0.575  13.158  11.773
28147SOL    HW186338   0.589  13.249  11.798
28147SOL    HW286339   0.663  13.126  11.751
28148SOL     OW86340  11.257   9.200   0.177
28148SOL    HW186341  11.182   9.257   0.190
28148SOL    HW286342  11.256   9.141   0.253
28149SOL     OW86343  10.051   3.217   9.841
28149SOL    HW186344  10.057   3.302   9.797
28149SOL    HW286345  10.099   3.157   9.785
28150SOL     OW86346   9.757  13.513   4.118
28150SOL    HW186347   9.771  13.590   4.062
28150SOL    HW286348   9.803  13.534   4.199
28151SOL     OW86349   1.545   9.390   6.149
28151SOL    HW186350   1.533   9.321   6.214
28151SOL    HW286351   1.488   9.461   6.178
28152SOL     OW86352   0.904   0.357   5.440
28152SOL    HW186353   0.888   0.346   5.533
28152SOL    HW286354   0.966   0.288   5.417
28153SOL     OW86355  10.025   5.599   0.184
28153SOL    HW186356   9.982   5.634   0.106
28153SOL    HW286357  10.087   5.667   0.210
28154SOL     OW86358   4.346   3.334   5.009
28154SOL    HW186359   4.293   3.368   5.081
28154SOL    HW286360   4.342   3.239   5.019
28155SOL     OW86361   2.187   7.852   4.556
28155SOL    HW186362   2.225   7.920   4.501
28155SOL    HW286363   2.137   7.797   4.495
28156SOL     OW86364   7.918   1.029   8.925
28156SOL    HW186365   8.008   1.053   8.948
28156SOL    HW286366   7.898   1.081   8.848
28157SOL     OW86367  10.670  12.682  10.183
28157SOL    HW186368  10.623  12.665  10.264
28157SOL    HW286369  10.746  12.623  10.186
28158SOL     OW86370  14.342  12.825   7.692
28158SOL    HW186371  14.383  12.751   7.647
28158SOL    HW286372  14.316  12.884   7.621
28159SOL     OW86373  12.262   6.562   0.223
28159SOL    HW186374  12.272   6.654   0.201
28159SOL    HW286375  12.319   6.549   0.299
28160SOL     OW86376  11.269   0.898   2.048
28160SOL    HW186377  11.315   0.954   1.986
28160SOL    HW286378  11.218   0.839   1.994
28161SOL     OW86379   7.557  13.222  10.604
28161SOL    HW186380   7.520  13.160  10.541
28161SOL    HW286381   7.648  13.232  10.577
28162SOL     OW86382   1.674  13.726   9.892
28162SOL    HW186383   1.735  13.744   9.820
28162SOL    HW286384   1.630  13.809   9.908
28163SOL     OW86385  14.010   9.540   2.673
28163SOL    HW186386  13.918   9.568   2.679
28163SOL    HW286387  14.059   9.609   2.718
28164SOL     OW86388  11.833   7.595   2.470
28164SOL    HW186389  11.849   7.682   2.508
28164SOL    HW286390  11.899   7.539   2.511
28165SOL     OW86391  10.459   0.760   3.872
28165SOL    HW186392  10.433   0.735   3.960
28165SOL    HW286393  10.422   0.692   3.816
28166SOL     OW86394   3.340   6.291   3.092
28166SOL    HW186395   3.348   6.313   3.185
28166SOL    HW286396   3.259   6.336   3.064
28167SOL     OW86397   0.105   0.095   8.800
28167SOL    HW186398   0.045   0.157   8.758
28167SOL    HW286399   0.105   0.122   8.892
28168SOL     OW86400  11.755   7.417   9.486
28168SOL    HW186401  11.803   7.398   9.566
28168SOL    HW286402  11.677   7.465   9.515
28169SOL     OW86403   7.344   4.696  11.939
28169SOL    HW186404   7.382   4.771  11.986
28169SOL    HW286405   7.343   4.724  11.848
28170SOL     OW86406   5.909  10.268   5.833
28170SOL    HW186407   5.822  10.246   5.866
28170SOL    HW286408   5.969  10.222   5.891
28171SOL     OW86409   1.362  13.200   4.257
28171SOL    HW186410   1.299  13.173   4.324
28171SOL    HW286411   1.447  13.172   4.292
28172SOL     OW86412  13.570   3.375   7.477
28172SOL    HW186413  13.627   3.350   7.404
28172SOL    HW286414  13.623   3.360   7.555
28173SOL     OW86415   7.560   4.215   4.028
28173SOL    HW186416   7.500   4.278   4.067
28173SOL    HW286417   7.644   4.232   4.071
28174SOL     OW86418  12.500   1.488  13.037
28174SOL    HW186419  12.536   1.477  12.949
28174SOL    HW286420  12.459   1.574  13.036
28175SOL     OW86421   7.042   5.592  11.318
28175SOL    HW186422   7.124   5.543  11.316
28175SOL    HW286423   7.064   5.678  11.282
28176SOL     OW86424  10.660   3.520   9.615
28176SOL    HW186425  10.606   3.596   9.592
28176SOL    HW286426  10.735   3.527   9.557
28177SOL     OW86427   7.943   2.342   6.956
28177SOL    HW186428   7.895   2.324   7.037
28177SOL    HW286429   8.025   2.292   6.966
28178SOL     OW86430   7.296   8.184   5.770
28178SOL    HW186431   7.302   8.153   5.860
28178SOL    HW286432   7.207   8.164   5.743
28179SOL     OW86433  10.715   1.466   4.866
28179SOL    HW186434  10.739   1.476   4.959
28179SOL    HW286435  10.620   1.451   4.868
28180SOL     OW86436  11.007   9.379   3.216
28180SOL    HW186437  10.950   9.364   3.292
28180SOL    HW286438  10.947   9.378   3.141
28181SOL     OW86439  13.198   0.307   3.246
28181SOL    HW186440  13.165   0.353   3.324
28181SOL    HW286441  13.192   0.214   3.269
28182SOL     OW86442  13.466  12.802   2.194
28182SOL    HW186443  13.409  12.858   2.141
28182SOL    HW286444  13.466  12.844   2.280
28183SOL     OW86445  14.189  10.752  14.086
28183SOL    HW186446  14.129  10.742  14.160
28183SOL    HW286447  14.208  10.846  14.082
28184SOL     OW86448   6.206   6.293   1.963
28184SOL    HW186449   6.121   6.266   1.930
28184SOL    HW286450   6.269   6.237   1.917
28185SOL     OW86451  13.988   4.352   3.834
28185SOL    HW186452  13.951   4.432   3.796
28185SOL    HW286453  13.920   4.286   3.822
28186SOL     OW86454  10.796  12.895   4.293
28186SOL    HW186455  10.840  12.975   4.321
28186SOL    HW286456  10.795  12.900   4.197
28187SOL     OW86457   4.846  14.602   1.922
28187SOL    HW186458   4.756  14.635   1.927
28187SOL    HW286459   4.900  14.677   1.949
28188SOL     OW86460   1.699   2.765  14.303
28188SOL    HW186461   1.632   2.697  14.305
28188SOL    HW286462   1.729   2.765  14.212
28189SOL     OW86463   5.580  10.298   7.173
28189SOL    HW186464   5.544  10.374   7.127
28189SOL    HW286465   5.667  10.286   7.136
28190SOL     OW86466  10.804   7.708  13.191
28190SOL    HW186467  10.896   7.719  13.163
28190SOL    HW286468  10.778   7.623  13.155
28191SOL     OW86469   1.205   9.328   9.561
28191SOL    HW186470   1.151   9.258   9.525
28191SOL    HW286471   1.142   9.397   9.584
28192SOL     OW86472  10.278   3.602   3.028
28192SOL    HW186473  10.275   3.693   3.001
28192SOL    HW286474  10.287   3.553   2.946
28193SOL     OW86475   6.469  12.787   8.973
28193SOL    HW186476   6.563  12.794   8.989
28193SOL    HW286477   6.436  12.730   9.043
28194SOL     OW86478   2.455   7.910   0.892
28194SOL    HW186479   2.495   7.993   0.867
28194SOL    HW286480   2.364   7.932   0.913
28195SOL     OW86481  14.298   5.224  11.072
28195SOL    HW186482  14.226   5.162  11.080
28195SOL    HW286483  14.255   5.310  11.069
28196SOL     OW86484  11.859   2.773  14.041
28196SOL    HW186485  11.923   2.815  13.984
28196SOL    HW286486  11.911   2.730  14.108
28197SOL     OW86487   0.226  12.757   4.364
28197SOL    HW186488   0.309  12.735   4.406
28197SOL    HW286489   0.160  12.711   4.416
28198SOL     OW86490  14.668   4.790   4.746
28198SOL    HW186491  14.717   4.799   4.664
28198SOL    HW286492  14.687   4.700   4.774
28199SOL     OW86493   2.457   2.986  14.451
28199SOL    HW186494   2.431   3.052  14.388
28199SOL    HW286495   2.386   2.984  14.515
28200SOL     OW86496  13.396   6.284  13.438
28200SOL    HW186497  13.365   6.358  13.491
28200SOL    HW286498  13.316   6.243  13.404
28201SOL     OW86499   0.447  11.241   6.861
28201SOL    HW186500   0.486  11.242   6.773
28201SOL    HW286501   0.522  11.238   6.920
28202SOL     OW86502   1.430   2.388  13.184
28202SOL    HW186503   1.455   2.348  13.267
28202SOL    HW286504   1.508   2.436  13.156
28203SOL     OW86505  12.591   8.013  13.739
28203SOL    HW186506  12.646   7.947  13.781
28203SOL    HW286507  12.649   8.088  13.726
28204SOL     OW86508  11.165   7.763  12.508
28204SOL    HW186509  11.227   7.774  12.580
28204SOL    HW286510  11.092   7.821  12.531
28205SOL     OW86511   9.744   4.104   7.312
28205SOL    HW186512   9.664   4.063   7.278
28205SOL    HW286513   9.756   4.182   7.257
28206SOL     OW86514  13.998   1.677   9.680
28206SOL    HW186515  14.030   1.609   9.620
28206SOL    HW286516  14.073   1.695   9.737
28207SOL     OW86517   8.907  12.160   8.059
28207SOL    HW186518   8.831  12.107   8.084
28207SOL    HW286519   8.937  12.200   8.141
28208SOL     OW86520  11.431   5.614   5.978
28208SOL    HW186521  11.450   5.706   5.995
28208SOL    HW286522  11.444   5.604   5.884
28209SOL     OW86523  11.664   1.066   4.739
28209SOL    HW186524  11.686   1.153   4.772
28209SOL    HW286525  11.570   1.069   4.723
28210SOL     OW86526   3.859   7.467   8.048
28210SOL    HW186527   3.788   7.426   7.998
28210SOL    HW286528   3.816   7.538   8.097
28211SOL     OW86529   0.985   1.640  11.341
28211SOL    HW186530   1.076   1.659  11.319
28211SOL    HW286531   0.934   1.677  11.268
28212SOL     OW86532   2.818   4.691   4.332
28212SOL    HW186533   2.855   4.618   4.283
28212SOL    HW286534   2.744   4.720   4.279
28213SOL     OW86535   5.485   2.875  13.485
28213SOL    HW186536   5.531   2.959  13.486
28213SOL    HW286537   5.405   2.891  13.535
28214SOL     OW86538  12.818   7.836  10.218
28214SOL    HW186539  12.830   7.783  10.297
28214SOL    HW286540  12.900   7.884  10.208
28215SOL     OW86541  11.515  13.746  14.630
28215SOL    HW186542  11.425  13.748  14.600
28215SOL    HW286543  11.544  13.656  14.615
28216SOL     OW86544   2.846   0.396  12.029
28216SOL    HW186545   2.832   0.398  11.934
28216SOL    HW286546   2.781   0.456  12.065
28217SOL     OW86547  12.320  11.177   3.553
28217SOL    HW186548  12.284  11.174   3.642
28217SOL    HW286549  12.350  11.088   3.536
28218SOL     OW86550   4.018   1.828   6.405
28218SOL    HW186551   3.994   1.748   6.358
28218SOL    HW286552   3.989   1.813   6.495
28219SOL     OW86553   3.746   6.634   2.038
28219SOL    HW186554   3.706   6.675   2.114
28219SOL    HW286555   3.830   6.602   2.069
28220SOL     OW86556   8.479  11.994  13.171
28220SOL    HW186557   8.540  11.931  13.134
28220SOL    HW286558   8.457  12.052  13.098
28221SOL     OW86559  12.221   6.550   6.063
28221SOL    HW186560  12.183   6.469   6.097
28221SOL    HW286561  12.151   6.615   6.071
28222SOL     OW86562   0.699   9.984   4.748
28222SOL    HW186563   0.679   9.957   4.658
28222SOL    HW286564   0.655   9.920   4.803
28223SOL     OW86565   7.353   1.540   1.985
28223SOL    HW186566   7.422   1.479   2.011
28223SOL    HW286567   7.344   1.527   1.891
28224SOL     OW86568   2.668   4.762  12.251
28224SOL    HW186569   2.710   4.827  12.307
28224SOL    HW286570   2.592   4.807  12.215
28225SOL     OW86571   2.748  12.526  10.656
28225SOL    HW186572   2.832  12.484  10.674
28225SOL    HW286573   2.704  12.529  10.741
28226SOL     OW86574   1.936   5.350   1.085
28226SOL    HW186575   1.979   5.324   1.004
28226SOL    HW286576   1.997   5.324   1.154
28227SOL     OW86577   5.109   1.362   5.850
28227SOL    HW186578   5.038   1.299   5.841
28227SOL    HW286579   5.076   1.428   5.911
28228SOL     OW86580  11.606   5.490   0.408
28228SOL    HW186581  11.522   5.533   0.390
28228SOL    HW286582  11.617   5.428   0.336
28229SOL     OW86583   8.694   9.321   1.643
28229SOL    HW186584   8.662   9.395   1.592
28229SOL    HW286585   8.672   9.343   1.734
28230SOL     OW86586   4.823   1.839  14.465
28230SOL    HW186587   4.769   1.813  14.539
28230SOL    HW286588   4.800   1.931  14.449
28231SOL     OW86589   0.572   4.917   9.259
28231SOL    HW186590   0.646   4.945   9.205
28231SOL    HW286591   0.519   4.997   9.270
28232SOL     OW86592   7.411  14.584  13.901
28232SOL    HW186593   7.419  14.580  13.996
28232SOL    HW286594   7.496  14.617  13.871
28233SOL     OW86595   4.573  10.331   0.325
28233SOL    HW186596   4.656  10.370   0.351
28233SOL    HW286597   4.538  10.291   0.405
28234SOL     OW86598  11.684  10.896   1.772
28234SOL    HW186599  11.699  10.925   1.683
28234SOL    HW286600  11.728  10.812   1.778
28235SOL     OW86601  11.306  12.889  13.532
28235SOL    HW186602  11.319  12.920  13.622
28235SOL    HW286603  11.393  12.887  13.494
28236SOL     OW86604  14.187   5.390  14.311
28236SOL    HW186605  14.130   5.468  14.313
28236SOL    HW286606  14.129   5.318  14.338
28237SOL     OW86607   8.418   9.745  11.283
28237SOL    HW186608   8.393   9.653  11.293
28237SOL    HW286609   8.479   9.746  11.209
28238SOL     OW86610  11.772  10.148   5.998
28238SOL    HW186611  11.696  10.140   6.056
28238SOL    HW286612  11.847  10.158   6.056
28239SOL     OW86613  13.678   9.318   3.288
28239SOL    HW186614  13.726   9.247   3.331
28239SOL    HW286615  13.704   9.397   3.336
28240SOL     OW86616   6.929   7.144   7.511
28240SOL    HW186617   6.906   7.232   7.539
28240SOL    HW286618   6.877   7.129   7.432
28241SOL     OW86619   1.877   0.137   2.247
28241SOL    HW186620   1.971   0.153   2.255
28241SOL    HW286621   1.836   0.214   2.289
28242SOL     OW86622  10.787   1.149  11.322
28242SOL    HW186623  10.805   1.221  11.383
28242SOL    HW286624  10.734   1.088  11.373
28243SOL     OW86625   3.671  10.655  13.006
28243SOL    HW186626   3.584  10.684  12.980
28243SOL    HW286627   3.715  10.735  13.036
28244SOL     OW86628   4.358  12.700   4.683
28244SOL    HW186629   4.423  12.697   4.753
28244SOL    HW286630   4.278  12.664   4.723
28245SOL     OW86631   1.308   5.576  12.722
28245SOL    HW186632   1.263   5.653  12.757
28245SOL    HW286633   1.385   5.566  12.777
28246SOL     OW86634   2.211   5.798  14.621
28246SOL    HW186635   2.202   5.720  14.566
28246SOL    HW286636   2.303   5.822  14.614
28247SOL     OW86637   3.643   6.068  10.761
28247SOL    HW186638   3.591   6.003  10.808
28247SOL    HW286639   3.695   6.016  10.699
28248SOL     OW86640   3.606  14.152   1.108
28248SOL    HW186641   3.544  14.091   1.068
28248SOL    HW286642   3.554  14.231   1.124
28249SOL     OW86643   8.314   1.082   4.746
28249SOL    HW186644   8.243   1.102   4.684
28249SOL    HW286645   8.336   0.991   4.727
28250SOL     OW86646   7.273   9.658   7.484
28250SOL    HW186647   7.252   9.747   7.456
28250SOL    HW286648   7.294   9.612   7.403
28251SOL     OW86649   2.573   9.215   0.371
28251SOL    HW186650   2.494   9.165   0.355
28251SOL    HW286651   2.618   9.169   0.442
28252SOL     OW86652   3.488  10.290   5.763
28252SOL    HW186653   3.440  10.328   5.836
28252SOL    HW286654   3.506  10.364   5.705
28253SOL     OW86655   7.180   3.253  10.822
28253SOL    HW186656   7.273   3.260  10.800
28253SOL    HW286657   7.150   3.344  10.829
28254SOL     OW86658   3.366  11.607  11.512
28254SOL    HW186659   3.390  11.652  11.593
28254SOL    HW286660   3.427  11.533  11.507
28255SOL     OW86661  10.794   2.551  14.309
28255SOL    HW186662  10.767   2.474  14.259
28255SOL    HW286663  10.869   2.521  14.361
28256SOL     OW86664   5.699  13.812  13.956
28256SOL    HW186665   5.662  13.724  13.949
28256SOL    HW286666   5.626  13.867  13.982
28257SOL     OW86667   0.037  12.794  10.053
28257SOL    HW186668  14.830  12.786  10.088
28257SOL    HW286669   0.085  12.840  10.121
28258SOL     OW86670   1.757   3.258  12.130
28258SOL    HW186671   1.672   3.266  12.086
28258SOL    HW286672   1.821   3.268  12.060
28259SOL     OW86673   3.849   7.336   6.628
28259SOL    HW186674   3.803   7.279   6.690
28259SOL    HW286675   3.817   7.424   6.647
28260SOL     OW86676   9.786   1.028   4.142
28260SOL    HW186677   9.858   1.086   4.116
28260SOL    HW286678   9.707   1.077   4.119
28261SOL     OW86679   0.728   5.650   8.822
28261SOL    HW186680   0.745   5.659   8.916
28261SOL    HW286681   0.634   5.632   8.816
28262SOL     OW86682  14.185  14.405   7.828
28262SOL    HW186683  14.238  14.432   7.754
28262SOL    HW286684  14.182  14.310   7.822
28263SOL     OW86685   8.655  13.346  10.688
28263SOL    HW186686   8.592  13.414  10.712
28263SOL    HW286687   8.671  13.299  10.769
28264SOL     OW86688  14.847  11.258   0.225
28264SOL    HW186689  14.769  11.210   0.198
28264SOL    HW286690  14.813  11.329   0.279
28265SOL     OW86691  13.547   9.041  14.814
28265SOL    HW186692  13.554   9.035  14.719
28265SOL    HW286693  13.637   9.034  14.845
28266SOL     OW86694   9.293   2.627   5.380
28266SOL    HW186695   9.243   2.708   5.369
28266SOL    HW286696   9.303   2.593   5.291
28267SOL     OW86697  13.085  14.432   0.399
28267SOL    HW186698  13.079  14.524   0.371
28267SOL    HW286699  13.045  14.383   0.327
28268SOL     OW86700   8.708   6.793   5.534
28268SOL    HW186701   8.626   6.817   5.577
28268SOL    HW286702   8.759   6.874   5.533
28269SOL     OW86703  11.028  10.311   3.805
28269SOL    HW186704  11.063  10.340   3.890
28269SOL    HW286705  11.105  10.281   3.757
28270SOL     OW86706   2.379  13.321   3.518
28270SOL    HW186707   2.338  13.394   3.564
28270SOL    HW286708   2.380  13.348   3.426
28271SOL     OW86709   9.791   8.499   7.512
28271SOL    HW186710   9.877   8.495   7.554
28271SOL    HW286711   9.732   8.461   7.577
28272SOL     OW86712   3.652   3.980  10.580
28272SOL    HW186713   3.560   3.960  10.596
28272SOL    HW286714   3.688   4.001  10.666
28273SOL     OW86715   6.804  10.548   4.498
28273SOL    HW186716   6.845  10.464   4.475
28273SOL    HW286717   6.819  10.604   4.422
28274SOL     OW86718   1.750   0.195   9.151
28274SOL    HW186719   1.758   0.116   9.204
28274SOL    HW286720   1.785   0.265   9.206
28275SOL     OW86721  11.443  13.035   8.971
28275SOL    HW186722  11.492  12.998   8.898
28275SOL    HW286723  11.507  13.038   9.043
28276SOL     OW86724   5.196   5.884  13.418
28276SOL    HW186725   5.237   5.928  13.344
28276SOL    HW286726   5.122   5.940  13.442
28277SOL     OW86727  11.151  11.454  11.880
28277SOL    HW186728  11.059  11.472  11.857
28277SOL    HW286729  11.148  11.372  11.929
28278SOL     OW86730   1.218   7.311   9.746
28278SOL    HW186731   1.308   7.279   9.746
28278SOL    HW286732   1.223   7.398   9.706
28279SOL     OW86733   4.474   8.707   0.988
28279SOL    HW186734   4.533   8.782   0.984
28279SOL    HW286735   4.521   8.639   0.939
28280SOL     OW86736   8.912   4.013  13.685
28280SOL    HW186737   8.890   3.920  13.683
28280SOL    HW286738   9.008   4.015  13.692
28281SOL     OW86739   7.362   5.934   9.988
28281SOL    HW186740   7.449   5.922  10.025
28281SOL    HW286741   7.323   6.003  10.042
28282SOL     OW86742  10.737   4.358   8.517
28282SOL    HW186743  10.653   4.314   8.507
28282SOL    HW286744  10.720   4.426   8.583
28283SOL     OW86745   6.099   4.761   8.585
28283SOL    HW186746   6.109   4.841   8.534
28283SOL    HW286747   6.188   4.734   8.605
28284SOL     OW86748   2.624   4.612   1.229
28284SOL    HW186749   2.556   4.642   1.169
28284SOL    HW286750   2.699   4.593   1.172
28285SOL     OW86751  10.750   8.617  12.890
28285SOL    HW186752  10.767   8.527  12.862
28285SOL    HW286753  10.655   8.622  12.900
28286SOL     OW86754   4.587   8.340   8.067
28286SOL    HW186755   4.639   8.380   8.136
28286SOL    HW286756   4.597   8.245   8.081
28287SOL     OW86757   8.998   4.550  13.206
28287SOL    HW186758   9.024   4.493  13.134
28287SOL    HW286759   8.918   4.593  13.174
28288SOL     OW86760   3.395  10.636  14.450
28288SOL    HW186761   3.394  10.711  14.391
28288SOL    HW286762   3.486  10.606  14.450
28289SOL     OW86763   9.264   9.840  13.460
28289SOL    HW186764   9.358   9.827  13.471
28289SOL    HW286765   9.232   9.855  13.549
28290SOL     OW86766   6.723  12.810   5.975
28290SOL    HW186767   6.749  12.882   5.918
28290SOL    HW286768   6.778  12.820   6.053
28291SOL     OW86769   1.953  14.776   6.032
28291SOL    HW186770   1.998  14.814   5.957
28291SOL    HW286771   1.891  14.713   5.994
28292SOL     OW86772   4.120   2.406   8.879
28292SOL    HW186773   4.174   2.485   8.875
28292SOL    HW286774   4.030   2.438   8.873
28293SOL     OW86775   0.617   5.834   3.228
28293SOL    HW186776   0.655   5.847   3.316
28293SOL    HW286777   0.693   5.820   3.172
28294SOL     OW86778  14.324   4.115  14.323
28294SOL    HW186779  14.263   4.130  14.250
28294SOL    HW286780  14.361   4.202  14.340
28295SOL     OW86781   4.805   3.856  10.296
28295SOL    HW186782   4.857   3.822  10.224
28295SOL    HW286783   4.719   3.814  10.286
28296SOL     OW86784   4.976  13.045  11.276
28296SOL    HW186785   5.043  13.102  11.313
28296SOL    HW286786   5.007  12.956  11.294
28297SOL     OW86787   2.611   2.584   9.594
28297SOL    HW186788   2.605   2.490   9.577
28297SOL    HW286789   2.536   2.603   9.650
28298SOL     OW86790   1.773  10.391   5.446
28298SOL    HW186791   1.831  10.316   5.435
28298SOL    HW286792   1.705  10.360   5.506
28299SOL     OW86793  10.278  12.897  11.691
28299SOL    HW186794  10.268  12.890  11.596
28299SOL    HW286795  10.189  12.915  11.723
28300SOL     OW86796   4.653   2.835  10.139
28300SOL    HW186797   4.689   2.924  10.138
28300SOL    HW286798   4.651   2.809  10.046
28301SOL     OW86799   2.938  13.066   8.924
28301SOL    HW186800   2.878  12.992   8.927
28301SOL    HW286801   2.985  13.063   9.007
28302SOL     OW86802   3.104  12.287  14.302
28302SOL    HW186803   3.023  12.320  14.264
28302SOL    HW286804   3.079  12.260  14.391
28303SOL     OW86805  10.133  14.756  10.991
28303SOL    HW186806  10.188  14.704  10.934
28303SOL    HW286807  10.108  14.832  10.938
28304SOL     OW86808  13.417   1.862   5.597
28304SOL    HW186809  13.481   1.926   5.627
28304SOL    HW286810  13.375   1.831   5.678
28305SOL     OW86811  12.908  14.174  12.576
28305SOL    HW186812  12.937  14.241  12.638
28305SOL    HW286813  12.905  14.094  12.628
28306SOL     OW86814   1.907   7.812  12.094
28306SOL    HW186815   1.870   7.726  12.076
28306SOL    HW286816   1.922   7.851  12.008
28307SOL     OW86817  10.990  11.014   8.402
28307SOL    HW186818  10.918  10.953   8.419
28307SOL    HW286819  10.973  11.048   8.314
28308SOL     OW86820   5.717  10.038   9.089
28308SOL    HW186821   5.654  10.033   9.017
28308SOL    HW286822   5.802  10.025   9.047
28309SOL     OW86823   3.458  14.533   0.733
28309SOL    HW186824   3.458  14.600   0.801
28309SOL    HW286825   3.473  14.451   0.780
28310SOL     OW86826   2.967   7.846   6.851
28310SOL    HW186827   3.016   7.900   6.788
28310SOL    HW286828   2.876   7.854   6.823
28311SOL     OW86829  14.834   9.269   1.062
28311SOL    HW186830  14.801   9.315   0.985
28311SOL    HW286831  14.829   9.176   1.039
28312SOL     OW86832  12.307   9.994   0.519
28312SOL    HW186833  12.343   9.999   0.431
28312SOL    HW286834  12.227   9.942   0.509
28313SOL     OW86835  11.609   3.682  11.646
28313SOL    HW186836  11.599   3.692  11.741
28313SOL    HW286837  11.597   3.588  11.631
28314SOL     OW86838   1.188   7.036   4.058
28314SOL    HW186839   1.216   7.123   4.088
28314SOL    HW286840   1.136   7.002   4.131
28315SOL     OW86841   3.082  13.282   7.890
28315SOL    HW186842   3.105  13.192   7.913
28315SOL    HW286843   2.994  13.276   7.854
28316SOL     OW86844   9.656   5.106   3.272
28316SOL    HW186845   9.630   5.195   3.296
28316SOL    HW286846   9.739   5.093   3.317
28317SOL     OW86847  11.546  13.581   2.017
28317SOL    HW186848  11.477  13.527   1.981
28317SOL    HW286849  11.594  13.614   1.941
28318SOL     OW86850   2.849   8.960   5.388
28318SOL    HW186851   2.805   8.918   5.313
28318SOL    HW286852   2.848   8.894   5.457
28319SOL     OW86853  10.728   4.368   5.223
28319SOL    HW186854  10.659   4.322   5.175
28319SOL    HW286855  10.773   4.420   5.157
28320SOL     OW86856   0.636   2.951  13.243
28320SOL    HW186857   0.595   3.019  13.297
28320SOL    HW286858   0.590   2.957  13.159
28321SOL     OW86859  11.288   9.205   7.870
28321SOL    HW186860  11.226   9.137   7.845
28321SOL    HW286861  11.368   9.183   7.823
28322SOL     OW86862   2.157   9.957  12.161
28322SOL    HW186863   2.069   9.920  12.165
28322SOL    HW286864   2.149  10.042  12.205
28323SOL     OW86865   6.677   0.223   4.359
28323SOL    HW186866   6.714   0.257   4.278
28323SOL    HW286867   6.679   0.128   4.348
28324SOL     OW86868   4.953   8.143   2.415
28324SOL    HW186869   4.906   8.069   2.454
28324SOL    HW286870   5.016   8.102   2.356
28325SOL     OW86871   1.391   1.825   9.805
28325SOL    HW186872   1.314   1.865   9.765
28325SOL    HW286873   1.403   1.872   9.887
28326SOL     OW86874   3.696   8.473   8.077
28326SOL    HW186875   3.719   8.555   8.120
28326SOL    HW286876   3.769   8.455   8.018
28327SOL     OW86877  10.164   0.284   9.279
28327SOL    HW186878  10.086   0.236   9.306
28327SOL    HW286879  10.139   0.376   9.282
28328SOL     OW86880   7.177   3.350  12.395
28328SOL    HW186881   7.170   3.433  12.347
28328SOL    HW286882   7.190   3.284  12.326
28329SOL     OW86883   2.414  10.205  10.834
28329SOL    HW186884   2.392  10.188  10.925
28329SOL    HW286885   2.506  10.228  10.835
28330SOL     OW86886  11.928   4.094  10.445
28330SOL    HW186887  11.891   4.123  10.362
28330SOL    HW286888  11.961   4.175  10.485
28331SOL     OW86889  13.978   9.856   2.519
28331SOL    HW186890  14.038   9.909   2.571
28331SOL    HW286891  13.892   9.871   2.558
28332SOL     OW86892  14.592  12.527  13.836
28332SOL    HW186893  14.657  12.464  13.807
28332SOL    HW286894  14.560  12.494  13.919
28333SOL     OW86895   6.004   8.945   0.001
28333SOL    HW186896   5.925   8.996  14.863
28333SOL    HW286897   6.069   9.011   0.024
28334SOL     OW86898   1.637   3.074  12.974
28334SOL    HW186899   1.719   3.028  12.957
28334SOL    HW286900   1.616   3.117  12.891
28335SOL     OW86901   1.365   6.821   7.811
28335SOL    HW186902   1.339   6.895   7.866
28335SOL    HW286903   1.293   6.810   7.749
28336SOL     OW86904   7.198  13.215   1.680
28336SOL    HW186905   7.224  13.138   1.630
28336SOL    HW286906   7.241  13.289   1.637
28337SOL     OW86907   3.237  11.736   8.397
28337SOL    HW186908   3.264  11.823   8.369
28337SOL    HW286909   3.146  11.746   8.424
28338SOL     OW86910   9.817   9.923   1.592
28338SOL    HW186911   9.861   9.854   1.642
28338SOL    HW286912   9.771   9.975   1.658
28339SOL     OW86913   8.345   2.051   1.408
28339SOL    HW186914   8.355   2.135   1.453
28339SOL    HW286915   8.254   2.025   1.427
28340SOL     OW86916  12.330   4.415   0.046
28340SOL    HW186917  12.404   4.463   0.009
28340SOL    HW286918  12.260   4.427  14.865
28341SOL     OW86919   4.102   9.871   0.771
28341SOL    HW186920   4.080   9.961   0.796
28341SOL    HW286921   4.018   9.825   0.772
28342SOL     OW86922   2.099  12.000   3.015
28342SOL    HW186923   2.080  12.015   2.922
28342SOL    HW286924   2.067  12.078   3.059
28343SOL     OW86925   6.368  10.900   9.140
28343SOL    HW186926   6.442  10.881   9.083
28343SOL    HW286927   6.349  10.993   9.125
28344SOL     OW86928   0.413   1.956   1.878
28344SOL    HW186929   0.371   1.875   1.906
28344SOL    HW286930   0.394   2.019   1.948
28345SOL     OW86931   6.274   8.689   0.464
28345SOL    HW186932   6.238   8.607   0.429
28345SOL    HW286933   6.231   8.758   0.415
28346SOL     OW86934   3.372   6.251   0.571
28346SOL    HW186935   3.399   6.341   0.553
28346SOL    HW286936   3.346   6.252   0.663
28347SOL     OW86937   4.066  10.334  13.280
28347SOL    HW186938   4.055  10.354  13.187
28347SOL    HW286939   4.130  10.263  13.283
28348SOL     OW86940   4.779   4.137   1.678
28348SOL    HW186941   4.800   4.116   1.587
28348SOL    HW286942   4.743   4.055   1.714
28349SOL     OW86943  10.461   9.159   8.816
28349SOL    HW186944  10.526   9.188   8.752
28349SOL    HW286945  10.456   9.231   8.879
28350SOL     OW86946  14.454   2.551   6.974
28350SOL    HW186947  14.546   2.531   6.994
28350SOL    HW286948  14.450   2.647   6.976
28351SOL     OW86949   6.691   0.372   6.168
28351SOL    HW186950   6.670   0.465   6.173
28351SOL    HW286951   6.733   0.352   6.252
28352SOL     OW86952   5.519  10.066  10.995
28352SOL    HW186953   5.526   9.982  11.040
28352SOL    HW286954   5.604  10.108  11.010
28353SOL     OW86955   5.096   0.179  10.414
28353SOL    HW186956   5.162   0.246  10.428
28353SOL    HW286957   5.116   0.142  10.328
28354SOL     OW86958   4.165  14.850   8.187
28354SOL    HW186959   4.121   0.050   8.209
28354SOL    HW286960   4.143  14.835   8.095
28355SOL     OW86961   3.299  10.979   8.183
28355SOL    HW186962   3.328  11.022   8.102
28355SOL    HW286963   3.373  10.924   8.209
28356SOL     OW86964  12.934   8.154   1.483
28356SOL    HW186965  12.998   8.166   1.552
28356SOL    HW286966  12.878   8.083   1.514
28357SOL     OW86967  10.162   5.463  11.963
28357SOL    HW186968  10.171   5.440  11.871
28357SOL    HW286969  10.236   5.521  11.980
28358SOL     OW86970   8.966   5.543   1.436
28358SOL    HW186971   9.023   5.532   1.513
28358SOL    HW286972   9.002   5.484   1.371
28359SOL     OW86973   0.821   9.724   4.423
28359SOL    HW186974   0.871   9.694   4.347
28359SOL    HW286975   0.807   9.645   4.476
28360SOL     OW86976   7.733  10.991  10.530
28360SOL    HW186977   7.651  11.036  10.552
28360SOL    HW286978   7.730  10.982  10.435
28361SOL     OW86979  12.013   7.048   7.622
28361SOL    HW186980  12.021   7.017   7.712
28361SOL    HW286981  12.072   6.992   7.572
28362SOL     OW86982   4.386   0.600   6.882
28362SOL    HW186983   4.337   0.559   6.953
28362SOL    HW286984   4.320   0.648   6.832
28363SOL     OW86985   3.322   8.255   8.819
28363SOL    HW186986   3.378   8.204   8.878
28363SOL    HW286987   3.365   8.250   8.734
28364SOL     OW86988  13.235  14.405   1.119
28364SOL    HW186989  13.197  14.454   1.046
28364SOL    HW286990  13.328  14.426   1.117
28365SOL     OW86991  12.128  13.368   9.237
28365SOL    HW186992  12.183  13.350   9.161
28365SOL    HW286993  12.055  13.307   9.229
28366SOL     OW86994   3.933  14.732   2.636
28366SOL    HW186995   3.915  14.699   2.724
28366SOL    HW286996   3.907  14.661   2.578
28367SOL     OW86997   2.686   2.969  10.270
28367SOL    HW186998   2.720   3.035  10.210
28367SOL    HW286999   2.733   2.983  10.352
28368SOL     OW87000   9.013   2.135   5.864
28368SOL    HW187001   9.069   2.093   5.930
28368SOL    HW287002   8.926   2.098   5.880
28369SOL     OW87003   4.632   7.516   3.231
28369SOL    HW187004   4.640   7.484   3.141
28369SOL    HW287005   4.679   7.600   3.232
28370SOL     OW87006  12.579   3.018  14.660
28370SOL    HW187007  12.653   3.028  14.719
28370SOL    HW287008  12.503   3.007  14.717
28371SOL     OW87009   6.471   7.450  10.905
28371SOL    HW187010   6.558   7.415  10.884
28371SOL    HW287011   6.456   7.519  10.840
28372SOL     OW87012   9.376   7.484   2.927
28372SOL    HW187013   9.294   7.480   2.879
28372SOL    HW287014   9.440   7.514   2.862
28373SOL     OW87015   5.622   6.333  13.962
28373SOL    HW187016   5.559   6.359  14.028
28373SOL    HW287017   5.672   6.262  14.002
28374SOL     OW87018   9.119  12.778   9.405
28374SOL    HW187019   9.074  12.710   9.356
28374SOL    HW287020   9.106  12.858   9.354
28375SOL     OW87021  13.178   2.266   8.354
28375SOL    HW187022  13.132   2.348   8.334
28375SOL    HW287023  13.133   2.232   8.431
28376SOL     OW87024   1.119   1.072   3.946
28376SOL    HW187025   1.192   1.110   3.995
28376SOL    HW287026   1.078   1.148   3.903
28377SOL     OW87027   3.591  12.255   1.144
28377SOL    HW187028   3.514  12.279   1.196
28377SOL    HW287029   3.592  12.319   1.072
28378SOL     OW87030   3.248   3.488   4.791
28378SOL    HW187031   3.342   3.500   4.779
28378SOL    HW287032   3.225   3.551   4.859
28379SOL     OW87033  11.005  13.566   0.498
28379SOL    HW187034  11.039  13.519   0.422
28379SOL    HW287035  10.970  13.648   0.462
28380SOL     OW87036   5.175  14.844  11.516
28380SOL    HW187037   5.123  14.858  11.595
28380SOL    HW287038   5.223  14.763  11.534
28381SOL     OW87039   2.653   6.275   6.802
28381SOL    HW187040   2.711   6.313   6.736
28381SOL    HW287041   2.710   6.261   6.878
28382SOL     OW87042  11.618   5.182   4.808
28382SOL    HW187043  11.596   5.145   4.722
28382SOL    HW287044  11.605   5.277   4.797
28383SOL     OW87045   6.339  13.244   4.422
28383SOL    HW187046   6.291  13.268   4.501
28383SOL    HW287047   6.288  13.173   4.383
28384SOL     OW87048   9.577  13.794  11.435
28384SOL    HW187049   9.536  13.710  11.413
28384SOL    HW287050   9.526  13.827  11.508
28385SOL     OW87051   5.636   5.284   1.624
28385SOL    HW187052   5.651   5.198   1.664
28385SOL    HW287053   5.550   5.277   1.583
28386SOL     OW87054   8.933   9.247   4.349
28386SOL    HW187055   9.006   9.292   4.393
28386SOL    HW287056   8.963   9.233   4.260
28387SOL     OW87057  11.054  11.105   0.203
28387SOL    HW187058  11.037  11.068   0.117
28387SOL    HW287059  11.055  11.030   0.262
28388SOL     OW87060   8.479   7.177   4.182
28388SOL    HW187061   8.436   7.093   4.196
28388SOL    HW287062   8.571   7.156   4.167
28389SOL     OW87063   3.743  14.535   5.269
28389SOL    HW187064   3.744  14.556   5.362
28389SOL    HW287065   3.833  14.547   5.240
28390SOL     OW87066   5.331   2.381   2.388
28390SOL    HW187067   5.237   2.397   2.379
28390SOL    HW287068   5.349   2.311   2.325
28391SOL     OW87069   3.270  13.414  13.762
28391SOL    HW187070   3.282  13.331  13.808
28391SOL    HW287071   3.179  13.413  13.733
28392SOL     OW87072  13.254   3.879  13.153
28392SOL    HW187073  13.295   3.965  13.159
28392SOL    HW287074  13.302   3.834  13.083
28393SOL     OW87075  10.709   5.489   9.255
28393SOL    HW187076  10.623   5.476   9.295
28393SOL    HW287077  10.743   5.400   9.242
28394SOL     OW87078   1.778  11.841   7.122
28394SOL    HW187079   1.809  11.922   7.081
28394SOL    HW287080   1.735  11.793   7.050
28395SOL     OW87081  11.329  13.357   4.693
28395SOL    HW187082  11.243  13.352   4.652
28395SOL    HW287083  11.318  13.417   4.766
28396SOL     OW87084   9.859   2.811  14.537
28396SOL    HW187085   9.898   2.787  14.453
28396SOL    HW287086   9.769   2.778  14.532
28397SOL     OW87087  10.856   5.588  10.225
28397SOL    HW187088  10.933   5.558  10.176
28397SOL    HW287089  10.782   5.559  10.173
28398SOL     OW87090   1.688  11.370   8.103
28398SOL    HW187091   1.687  11.274   8.096
28398SOL    HW287092   1.780  11.394   8.094
28399SOL     OW87093  13.096   8.986  11.605
28399SOL    HW187094  13.183   8.954  11.583
28399SOL    HW287095  13.077   8.947  11.690
28400SOL     OW87096   1.422   1.772   7.972
28400SOL    HW187097   1.391   1.686   7.944
28400SOL    HW287098   1.495   1.752   8.031
28401SOL     OW87099  12.411   3.827   8.725
28401SOL    HW187100  12.485   3.886   8.711
28401SOL    HW287101  12.348   3.850   8.657
28402SOL     OW87102  10.611   4.969   1.806
28402SOL    HW187103  10.554   4.972   1.882
28402SOL    HW287104  10.551   4.972   1.731
28403SOL     OW87105  14.868   0.536   1.558
28403SOL    HW187106  14.858   0.449   1.595
28403SOL    HW287107   0.075   0.538   1.524
28404SOL     OW87108   5.424   5.754  10.039
28404SOL    HW187109   5.485   5.683  10.057
28404SOL    HW287110   5.353   5.713   9.989
28405SOL     OW87111   6.206   6.094  14.632
28405SOL    HW187112   6.120   6.119  14.598
28405SOL    HW287113   6.188   6.055  14.717
28406SOL     OW87114   8.826   3.373   1.319
28406SOL    HW187115   8.782   3.308   1.373
28406SOL    HW287116   8.904   3.327   1.285
28407SOL     OW87117  11.282   3.808  13.825
28407SOL    HW187118  11.305   3.814  13.917
28407SOL    HW287119  11.206   3.865  13.815
28408SOL     OW87120   9.061   6.632  13.919
28408SOL    HW187121   9.139   6.610  13.971
28408SOL    HW287122   8.997   6.565  13.944
28409SOL     OW87123  11.411   0.124   7.852
28409SOL    HW187124  11.439   0.212   7.879
28409SOL    HW287125  11.489   0.070   7.866
28410SOL     OW87126  10.747   7.317   0.453
28410SOL    HW187127  10.748   7.249   0.520
28410SOL    HW287128  10.759   7.399   0.501
28411SOL     OW87129  14.339   4.262   7.227
28411SOL    HW187130  14.368   4.345   7.265
28411SOL    HW287131  14.303   4.213   7.302
28412SOL     OW87132  14.305  10.179   3.956
28412SOL    HW187133  14.311  10.252   3.895
28412SOL    HW287134  14.215  10.180   3.986
28413SOL     OW87135  11.503   8.874   7.570
28413SOL    HW187136  11.539   8.797   7.613
28413SOL    HW287137  11.543   8.949   7.614
28414SOL     OW87138   1.993  13.458   1.444
28414SOL    HW187139   2.053  13.466   1.518
28414SOL    HW287140   2.005  13.369   1.412
28415SOL     OW87141   9.180   6.544   8.470
28415SOL    HW187142   9.265   6.586   8.481
28415SOL    HW287143   9.191   6.457   8.508
28416SOL     OW87144   7.381  12.007   3.867
28416SOL    HW187145   7.349  11.938   3.809
28416SOL    HW287146   7.320  12.008   3.940
28417SOL     OW87147   7.278   7.026   5.586
28417SOL    HW187148   7.313   7.002   5.671
28417SOL    HW287149   7.298   7.120   5.577
28418SOL     OW87150   7.030   4.677   5.277
28418SOL    HW187151   7.012   4.613   5.209
28418SOL    HW287152   7.117   4.654   5.309
28419SOL     OW87153  13.800   8.670   1.261
28419SOL    HW187154  13.760   8.634   1.182
28419SOL    HW287155  13.726   8.704   1.312
28420SOL     OW87156  11.726   9.022   2.846
28420SOL    HW187157  11.771   9.054   2.923
28420SOL    HW287158  11.711   8.929   2.864
28421SOL     OW87159   6.963   2.189   5.943
28421SOL    HW187160   6.965   2.276   5.984
28421SOL    HW287161   6.921   2.204   5.858
28422SOL     OW87162   5.389   2.112   1.923
28422SOL    HW187163   5.318   2.063   1.881
28422SOL    HW287164   5.365   2.114   2.016
28423SOL     OW87165  10.140  14.642   2.642
28423SOL    HW187166  10.058  14.596   2.623
28423SOL    HW287167  10.113  14.719   2.692
28424SOL     OW87168   9.499   5.841   8.376
28424SOL    HW187169   9.478   5.934   8.372
28424SOL    HW287170   9.507   5.823   8.470
28425SOL     OW87171   1.008   5.051   1.696
28425SOL    HW187172   1.092   5.066   1.740
28425SOL    HW287173   0.947   5.030   1.767
28426SOL     OW87174   7.859  13.906  13.931
28426SOL    HW187175   7.771  13.870  13.923
28426SOL    HW287176   7.917  13.832  13.914
28427SOL     OW87177   5.691   5.582   4.446
28427SOL    HW187178   5.753   5.525   4.490
28427SOL    HW287179   5.724   5.591   4.356
28428SOL     OW87180   9.655   6.066  12.727
28428SOL    HW187181   9.579   6.105  12.770
28428SOL    HW287182   9.727   6.080  12.789
28429SOL     OW87183   5.254   6.377  10.018
28429SOL    HW187184   5.348   6.388  10.007
28429SOL    HW287185   5.220   6.372   9.928
28430SOL     OW87186  10.921  14.315  12.796
28430SOL    HW187187  10.980  14.351  12.730
28430SOL    HW287188  10.849  14.378  12.800
28431SOL     OW87189   0.483   1.680   8.362
28431SOL    HW187190   0.477   1.585   8.351
28431SOL    HW287191   0.495   1.714   8.273
28432SOL     OW87192   1.108  11.352   4.937
28432SOL    HW187193   1.091  11.257   4.932
28432SOL    HW287194   1.091  11.374   5.029
28433SOL     OW87195   1.096   2.802   8.736
28433SOL    HW187196   1.014   2.800   8.786
28433SOL    HW287197   1.165   2.806   8.802
28434SOL     OW87198   0.149   4.525  11.858
28434SOL    HW187199   0.241   4.500  11.851
28434SOL    HW287200   0.106   4.446  11.890
28435SOL     OW87201  14.061   3.528   7.399
28435SOL    HW187202  14.014   3.533   7.316
28435SOL    HW287203  14.121   3.602   7.398
28436SOL     OW87204  11.092   3.153   3.880
28436SOL    HW187205  11.050   3.211   3.816
28436SOL    HW287206  11.112   3.074   3.832
28437SOL     OW87207   0.027   4.023   7.347
28437SOL    HW187208   0.060   3.977   7.269
28437SOL    HW287209   0.040   3.961   7.418
28438SOL     OW87210   9.360   8.005  10.281
28438SOL    HW187211   9.433   8.024  10.340
28438SOL    HW287212   9.333   7.916  10.304
28439SOL     OW87213   2.914  10.768   8.332
28439SOL    HW187214   2.945  10.790   8.244
28439SOL    HW287215   2.970  10.818   8.391
28440SOL     OW87216   0.342  11.217   2.534
28440SOL    HW187217   0.417  11.181   2.487
28440SOL    HW287218   0.368  11.215   2.626
28441SOL     OW87219   4.485   3.363   6.955
28441SOL    HW187220   4.547   3.297   6.985
28441SOL    HW287221   4.491   3.433   7.020
28442SOL     OW87222  13.263   3.090  13.019
28442SOL    HW187223  13.348   3.078  12.976
28442SOL    HW287224  13.208   3.131  12.952
28443SOL     OW87225  13.809   0.646  12.138
28443SOL    HW187226  13.882   0.586  12.125
28443SOL    HW287227  13.769   0.618  12.220
28444SOL     OW87228  11.789   7.784   6.500
28444SOL    HW187229  11.866   7.827   6.464
28444SOL    HW287230  11.727   7.855   6.518
28445SOL     OW87231  14.813   9.542  10.027
28445SOL    HW187232  14.721   9.528  10.005
28445SOL    HW287233  14.827   9.636  10.013
28446SOL     OW87234   8.700  14.878   4.089
28446SOL    HW187235   8.769  14.812   4.080
28446SOL    HW287236   8.630  14.848   4.032
28447SOL     OW87237  10.374   7.428  11.848
28447SOL    HW187238  10.284   7.412  11.876
28447SOL    HW287239  10.403   7.345  11.809
28448SOL     OW87240  13.103  13.884   9.514
28448SOL    HW187241  13.040  13.817   9.486
28448SOL    HW287242  13.070  13.965   9.476
28449SOL     OW87243   2.766   8.127  11.055
28449SOL    HW187244   2.714   8.116  10.975
28449SOL    HW287245   2.784   8.221  11.060
28450SOL     OW87246   9.169   1.405   0.231
28450SOL    HW187247   9.241   1.467   0.244
28450SOL    HW287248   9.212   1.325   0.201
28451SOL     OW87249   1.250   2.920  13.932
28451SOL    HW187250   1.209   2.928  13.846
28451SOL    HW287251   1.205   2.846  13.973
28452SOL     OW87252   8.970   6.329   7.665
28452SOL    HW187253   8.941   6.407   7.713
28452SOL    HW287254   8.889   6.293   7.627
28453SOL     OW87255   2.277  13.476   7.591
28453SOL    HW187256   2.196  13.451   7.546
28453SOL    HW287257   2.253  13.478   7.683
28454SOL     OW87258   6.188  10.709  10.224
28454SOL    HW187259   6.212  10.742  10.137
28454SOL    HW287260   6.105  10.664  10.211
28455SOL     OW87261   7.803   2.703   3.334
28455SOL    HW187262   7.712   2.715   3.364
28455SOL    HW287263   7.803   2.736   3.244
28456SOL     OW87264  10.691   0.029  11.933
28456SOL    HW187265  10.701  14.825  11.894
28456SOL    HW287266  10.606   0.026  11.977
28457SOL     OW87267   9.511  10.345  14.433
28457SOL    HW187268   9.513  10.335  14.528
28457SOL    HW287269   9.567  10.275  14.401
28458SOL     OW87270   2.808   1.988   9.439
28458SOL    HW187271   2.759   1.919   9.393
28458SOL    HW287272   2.773   1.987   9.528
28459SOL     OW87273   8.453  13.783   2.953
28459SOL    HW187274   8.517  13.718   2.924
28459SOL    HW287275   8.404  13.805   2.874
28460SOL     OW87276   0.312  11.634  14.801
28460SOL    HW187277   0.355  11.623   0.004
28460SOL    HW287278   0.255  11.710  14.813
28461SOL     OW87279   6.453   7.821  13.995
28461SOL    HW187280   6.429   7.894  13.937
28461SOL    HW287281   6.428   7.743  13.947
28462SOL     OW87282   8.506   1.871  11.707
28462SOL    HW187283   8.480   1.938  11.770
28462SOL    HW287284   8.446   1.798  11.723
28463SOL     OW87285   6.450   6.636   4.557
28463SOL    HW187286   6.531   6.681   4.580
28463SOL    HW287287   6.381   6.702   4.570
28464SOL     OW87288   4.569   0.861   8.640
28464SOL    HW187289   4.634   0.835   8.574
28464SOL    HW287290   4.531   0.778   8.670
28465SOL     OW87291   5.225   7.306  14.788
28465SOL    HW187292   5.214   7.286  14.881
28465SOL    HW287293   5.299   7.366  14.785
28466SOL     OW87294   6.168  12.267   2.771
28466SOL    HW187295   6.091  12.313   2.803
28466SOL    HW287296   6.181  12.195   2.833
28467SOL     OW87297  12.837   4.947   3.716
28467SOL    HW187298  12.831   4.862   3.760
28467SOL    HW287299  12.920   4.984   3.746
28468SOL     OW87300   6.723  11.767   6.797
28468SOL    HW187301   6.640  11.813   6.782
28468SOL    HW287302   6.699  11.674   6.799
28469SOL     OW87303   1.314   4.790   2.394
28469SOL    HW187304   1.347   4.706   2.364
28469SOL    HW287305   1.300   4.841   2.314
28470SOL     OW87306   5.482   5.449  13.023
28470SOL    HW187307   5.497   5.414  13.111
28470SOL    HW287308   5.393   5.484  13.025
28471SOL     OW87309   5.006   7.573  13.400
28471SOL    HW187310   4.971   7.582  13.311
28471SOL    HW287311   5.060   7.651  13.413
28472SOL     OW87312   0.827   4.051   6.918
28472SOL    HW187313   0.736   4.061   6.892
28472SOL    HW287314   0.825   4.001   6.999
28473SOL     OW87315   4.599   1.288   0.808
28473SOL    HW187316   4.595   1.383   0.819
28473SOL    HW287317   4.511   1.257   0.830
28474SOL     OW87318   5.795   8.249  14.513
28474SOL    HW187319   5.744   8.296  14.447
28474SOL    HW287320   5.869   8.213  14.465
28475SOL     OW87321   7.025  14.428   5.873
28475SOL    HW187322   6.937  14.460   5.893
28475SOL    HW287323   7.014  14.375   5.794
28476SOL     OW87324   2.156   0.115   3.849
28476SOL    HW187325   2.215   0.100   3.776
28476SOL    HW287326   2.153   0.211   3.858
28477SOL     OW87327   2.272   4.208  11.733
28477SOL    HW187328   2.204   4.242  11.790
28477SOL    HW287329   2.295   4.122  11.770
28478SOL     OW87330  11.172   9.192   1.766
28478SOL    HW187331  11.088   9.156   1.736
28478SOL    HW287332  11.208   9.236   1.688
28479SOL     OW87333   6.712   2.955  12.283
28479SOL    HW187334   6.697   2.943  12.189
28479SOL    HW287335   6.799   2.919  12.298
28480SOL     OW87336   0.364   8.467  12.105
28480SOL    HW187337   0.379   8.407  12.178
28480SOL    HW287338   0.269   8.467  12.093
28481SOL     OW87339   0.279   7.932   9.214
28481SOL    HW187340   0.372   7.942   9.235
28481SOL    HW287341   0.277   7.910   9.121
28482SOL     OW87342  14.303  14.815   6.942
28482SOL    HW187343  14.387  14.802   6.898
28482SOL    HW287344  14.260   0.001   6.891
28483SOL     OW87345  12.994   7.400   1.628
28483SOL    HW187346  12.979   7.452   1.707
28483SOL    HW287347  12.906   7.369   1.603
28484SOL     OW87348  12.067   2.085   4.867
28484SOL    HW187349  12.018   2.064   4.946
28484SOL    HW287350  12.146   2.128   4.898
28485SOL     OW87351  13.625   3.624   4.005
28485SOL    HW187352  13.708   3.579   4.016
28485SOL    HW287353  13.643   3.714   4.035
28486SOL     OW87354   3.436  11.797   1.817
28486SOL    HW187355   3.413  11.761   1.902
28486SOL    HW287356   3.515  11.849   1.834
28487SOL     OW87357   1.024  10.926  13.233
28487SOL    HW187358   1.100  10.908  13.178
28487SOL    HW287359   1.034  10.869  13.308
28488SOL     OW87360  10.781   5.968   9.860
28488SOL    HW187361  10.849   5.924   9.911
28488SOL    HW287362  10.789   5.931   9.772
28489SOL     OW87363   8.707  14.455   4.028
28489SOL    HW187364   8.802  14.442   4.019
28489SOL    HW287365   8.679  14.480   3.940
28490SOL     OW87366   5.561  13.360   8.893
28490SOL    HW187367   5.513  13.281   8.916
28490SOL    HW287368   5.614  13.379   8.971
28491SOL     OW87369   8.696  10.588   0.180
28491SOL    HW187370   8.642  10.630   0.113
28491SOL    HW287371   8.779  10.571   0.136
28492SOL     OW87372   2.194   2.147  12.141
28492SOL    HW187373   2.288   2.164  12.131
28492SOL    HW287374   2.162   2.221  12.194
28493SOL     OW87375  10.939   0.555   9.302
28493SOL    HW187376  10.846   0.545   9.323
28493SOL    HW287377  10.984   0.523   9.380
28494SOL     OW87378   9.071   7.143   4.857
28494SOL    HW187379   9.133   7.215   4.855
28494SOL    HW287380   8.989   7.181   4.825
28495SOL     OW87381   3.933   6.055  11.074
28495SOL    HW187382   3.944   6.023  11.164
28495SOL    HW287383   3.917   6.149  11.085
28496SOL     OW87384   7.371   5.390   6.628
28496SOL    HW187385   7.304   5.377   6.694
28496SOL    HW287386   7.352   5.325   6.560
28497SOL     OW87387   8.229   6.228   5.039
28497SOL    HW187388   8.154   6.246   5.096
28497SOL    HW287389   8.301   6.278   5.077
28498SOL     OW87390  11.417   1.462   2.314
28498SOL    HW187391  11.338   1.410   2.301
28498SOL    HW287392  11.418   1.482   2.408
28499SOL     OW87393   1.018   4.948   7.996
28499SOL    HW187394   0.970   4.977   8.074
28499SOL    HW287395   0.998   4.855   7.989
28500SOL     OW87396   2.533   7.591  11.472
28500SOL    HW187397   2.567   7.604  11.384
28500SOL    HW287398   2.445   7.628  11.470
28501SOL     OW87399   2.025  12.341   7.833
28501SOL    HW187400   1.949  12.388   7.798
28501SOL    HW287401   2.053  12.394   7.908
28502SOL     OW87402   9.286  14.750   0.143
28502SOL    HW187403   9.306  14.731   0.051
28502SOL    HW287404   9.280  14.845   0.147
28503SOL     OW87405   0.523   1.338   2.130
28503SOL    HW187406   0.433   1.306   2.119
28503SOL    HW287407   0.562   1.277   2.192
28504SOL     OW87408   9.161   3.025   0.721
28504SOL    HW187409   9.103   3.021   0.797
28504SOL    HW287410   9.181   3.118   0.711
28505SOL     OW87411  11.154   9.964   0.946
28505SOL    HW187412  11.150   9.934   0.856
28505SOL    HW287413  11.147  10.059   0.940
28506SOL     OW87414   8.681  10.718   2.776
28506SOL    HW187415   8.650  10.789   2.720
28506SOL    HW287416   8.619  10.647   2.761
28507SOL     OW87417   4.962  13.617   4.563
28507SOL    HW187418   5.044  13.639   4.520
28507SOL    HW287419   4.963  13.667   4.645
28508SOL     OW87420  10.144  11.866   1.037
28508SOL    HW187421  10.169  11.895   1.125
28508SOL    HW287422  10.133  11.772   1.045
28509SOL     OW87423   1.814   2.507   6.755
28509SOL    HW187424   1.808   2.528   6.662
28509SOL    HW287425   1.724   2.514   6.787
28510SOL     OW87426   6.920   0.755   3.361
28510SOL    HW187427   6.925   0.832   3.304
28510SOL    HW287428   6.843   0.770   3.416
28511SOL     OW87429  10.491   2.324  14.370
28511SOL    HW187430  10.572   2.274  14.370
28511SOL    HW287431  10.499   2.382  14.446
28512SOL     OW87432  10.161  11.939   1.405
28512SOL    HW187433  10.163  11.870   1.472
28512SOL    HW287434  10.068  11.964   1.401
28513SOL     OW87435   5.385   1.593  13.001
28513SOL    HW187436   5.331   1.528  13.046
28513SOL    HW287437   5.359   1.676  13.041
28514SOL     OW87438   7.266   7.616   0.857
28514SOL    HW187439   7.188   7.642   0.808
28514SOL    HW287440   7.285   7.527   0.826
28515SOL     OW87441  12.382  13.460   1.550
28515SOL    HW187442  12.472  13.437   1.527
28515SOL    HW287443  12.386  13.553   1.570
28516SOL     OW87444  11.472   8.168  14.828
28516SOL    HW187445  11.544   8.228  14.808
28516SOL    HW287446  11.409   8.181  14.757
28517SOL     OW87447   2.924  14.414   9.591
28517SOL    HW187448   3.018  14.423   9.608
28517SOL    HW287449   2.902  14.490   9.539
28518SOL     OW87450   6.775   0.047  14.122
28518SOL    HW187451   6.766   0.012  14.211
28518SOL    HW287452   6.730  14.866  14.066
28519SOL     OW87453   5.837  13.657   5.083
28519SOL    HW187454   5.926  13.690   5.094
28519SOL    HW287455   5.791  13.684   5.162
28520SOL     OW87456   3.516  12.549   1.333
28520SOL    HW187457   3.595  12.499   1.353
28520SOL    HW287458   3.541  12.607   1.261
28521SOL     OW87459   5.541  13.989   9.700
28521SOL    HW187460   5.503  14.050   9.763
28521SOL    HW287461   5.491  13.908   9.711
28522SOL     OW87462   0.730   9.465  10.820
28522SOL    HW187463   0.716   9.550  10.861
28522SOL    HW287464   0.769   9.485  10.735
28523SOL     OW87465   4.121   9.277  12.999
28523SOL    HW187466   4.211   9.295  13.027
28523SOL    HW287467   4.126   9.269  12.904
28524SOL     OW87468   0.293   6.148   7.405
28524SOL    HW187469   0.207   6.189   7.391
28524SOL    HW287470   0.278   6.085   7.475
28525SOL     OW87471   9.073   4.083   4.513
28525SOL    HW187472   9.106   4.055   4.427
28525SOL    HW287473   9.084   4.178   4.513
28526SOL     OW87474   5.260   4.862  10.907
28526SOL    HW187475   5.341   4.907  10.933
28526SOL    HW287476   5.288   4.800  10.840
28527SOL     OW87477   9.381   0.786  13.468
28527SOL    HW187478   9.449   0.853  13.478
28527SOL    HW287479   9.310   0.816  13.524
28528SOL     OW87480  13.773  12.483   7.406
28528SOL    HW187481  13.695  12.509   7.356
28528SOL    HW287482  13.809  12.409   7.358
28529SOL     OW87483   9.847   8.867  14.580
28529SOL    HW187484   9.860   8.775  14.558
28529SOL    HW287485   9.899   8.914  14.515
28530SOL     OW87486   4.377   1.132   9.928
28530SOL    HW187487   4.283   1.148   9.919
28530SOL    HW287488   4.408   1.201   9.987
28531SOL     OW87489   0.896   9.111   1.444
28531SOL    HW187490   0.911   9.102   1.538
28531SOL    HW287491   0.828   9.179   1.437
28532SOL     OW87492  11.401  10.822   9.279
28532SOL    HW187493  11.413  10.873   9.359
28532SOL    HW287494  11.323  10.769   9.295
28533SOL     OW87495  10.384   6.906   7.194
28533SOL    HW187496  10.331   6.830   7.218
28533SOL    HW287497  10.386   6.960   7.273
28534SOL     OW87498   9.694  13.368   3.703
28534SOL    HW187499   9.670  13.277   3.719
28534SOL    HW287500   9.790  13.367   3.703
28535SOL     OW87501   1.221  14.396  12.455
28535SOL    HW187502   1.141  14.362  12.495
28535SOL    HW287503   1.291  14.340  12.489
28536SOL     OW87504   5.155  11.940   2.912
28536SOL    HW187505   5.121  11.853   2.893
28536SOL    HW287506   5.151  11.948   3.007
28537SOL     OW87507  12.047   1.409   4.044
28537SOL    HW187508  11.994   1.454   4.110
28537SOL    HW287509  12.020   1.447   3.961
28538SOL     OW87510  14.519  13.875   2.105
28538SOL    HW187511  14.470  13.928   2.043
28538SOL    HW287512  14.534  13.792   2.059
28539SOL     OW87513   6.269  13.067   1.913
28539SOL    HW187514   6.354  13.068   1.868
28539SOL    HW287515   6.205  13.087   1.845
28540SOL     OW87516   7.634   1.105   8.347
28540SOL    HW187517   7.655   1.161   8.273
28540SOL    HW287518   7.538   1.109   8.354
28541SOL     OW87519  14.253   4.889   7.252
28541SOL    HW187520  14.218   4.913   7.166
28541SOL    HW287521  14.177   4.856   7.300
28542SOL     OW87522   2.618   7.447  10.722
28542SOL    HW187523   2.641   7.354  10.725
28542SOL    HW287524   2.522   7.447  10.717
28543SOL     OW87525   1.143  10.899   5.697
28543SOL    HW187526   1.239  10.895   5.688
28543SOL    HW287527   1.112  10.918   5.608
28544SOL     OW87528   6.168   4.939   6.898
28544SOL    HW187529   6.246   4.891   6.926
28544SOL    HW287530   6.164   5.014   6.957
28545SOL     OW87531  14.369  12.700   1.178
28545SOL    HW187532  14.432  12.637   1.213
28545SOL    HW287533  14.423  12.767   1.135
28546SOL     OW87534   6.087  14.296   1.961
28546SOL    HW187535   6.177  14.303   1.994
28546SOL    HW287536   6.066  14.203   1.968
28547SOL     OW87537   5.342   7.482   6.430
28547SOL    HW187538   5.426   7.515   6.461
28547SOL    HW287539   5.291   7.561   6.411
28548SOL     OW87540  12.616   5.147   1.319
28548SOL    HW187541  12.540   5.094   1.295
28548SOL    HW287542  12.620   5.215   1.252
28549SOL     OW87543   8.488   3.407   9.642
28549SOL    HW187544   8.514   3.460   9.568
28549SOL    HW287545   8.546   3.330   9.638
28550SOL     OW87546  11.229   9.561   1.089
28550SOL    HW187547  11.137   9.585   1.098
28550SOL    HW287548  11.231   9.497   1.018
28551SOL     OW87549  13.269  14.397   8.932
28551SOL    HW187550  13.305  14.410   8.845
28551SOL    HW287551  13.186  14.445   8.931
28552SOL     OW87552   3.983   2.403   7.941
28552SOL    HW187553   3.910   2.450   7.981
28552SOL    HW287554   3.969   2.311   7.966
28553SOL     OW87555   1.534   6.454  13.954
28553SOL    HW187556   1.457   6.494  13.913
28553SOL    HW287557   1.513   6.361  13.958
28554SOL     OW87558  14.112   0.593   3.561
28554SOL    HW187559  14.166   0.640   3.497
28554SOL    HW287560  14.029   0.640   3.563
28555SOL     OW87561  13.188  13.790   6.710
28555SOL    HW187562  13.264  13.796   6.768
28555SOL    HW287563  13.138  13.870   6.728
28556SOL     OW87564   4.137   7.869  10.581
28556SOL    HW187565   4.042   7.870  10.566
28556SOL    HW287566   4.175   7.895  10.497
28557SOL     OW87567   0.414   1.631   7.396
28557SOL    HW187568   0.344   1.617   7.332
28557SOL    HW287569   0.461   1.708   7.365
28558SOL     OW87570  10.739   1.666   4.156
28558SOL    HW187571  10.651   1.665   4.195
28558SOL    HW287572  10.723   1.661   4.062
28559SOL     OW87573  11.955   2.022  13.900
28559SOL    HW187574  11.919   2.098  13.944
28559SOL    HW287575  12.013   1.982  13.965
28560SOL     OW87576   5.596  13.509   2.163
28560SOL    HW187577   5.576  13.602   2.160
28560SOL    HW287578   5.634  13.495   2.250
28561SOL     OW87579   0.272   6.803   9.765
28561SOL    HW187580   0.331   6.833   9.696
28561SOL    HW287581   0.229   6.882   9.795
28562SOL     OW87582   0.892   3.794   0.304
28562SOL    HW187583   0.818   3.755   0.257
28562SOL    HW287584   0.857   3.818   0.389
28563SOL     OW87585  12.661   5.893   9.029
28563SOL    HW187586  12.720   5.905   9.103
28563SOL    HW287587  12.705   5.936   8.956
28564SOL     OW87588   4.619   6.735   6.430
28564SOL    HW187589   4.550   6.728   6.365
28564SOL    HW287590   4.573   6.751   6.513
28565SOL     OW87591   3.294   9.637   3.290
28565SOL    HW187592   3.349   9.713   3.310
28565SOL    HW287593   3.279   9.595   3.375
28566SOL     OW87594  12.609   6.018   2.616
28566SOL    HW187595  12.568   5.997   2.700
28566SOL    HW287596  12.535   6.038   2.558
28567SOL     OW87597   3.964   2.731   2.418
28567SOL    HW187598   3.965   2.681   2.500
28567SOL    HW287599   4.030   2.688   2.363
28568SOL     OW87600   8.454  12.182   9.309
28568SOL    HW187601   8.537  12.139   9.331
28568SOL    HW287602   8.446  12.171   9.214
28569SOL     OW87603  11.036   7.633  14.762
28569SOL    HW187604  11.109   7.675  14.809
28569SOL    HW287605  11.010   7.560  14.818
28570SOL     OW87606   9.719   9.394   5.452
28570SOL    HW187607   9.634   9.354   5.472
28570SOL    HW287608   9.742   9.443   5.531
28571SOL     OW87609  13.694   0.723  11.382
28571SOL    HW187610  13.612   0.747  11.424
28571SOL    HW287611  13.668   0.696  11.293
28572SOL     OW87612   4.505   1.724   3.217
28572SOL    HW187613   4.431   1.682   3.260
28572SOL    HW287614   4.468   1.802   3.177
28573SOL     OW87615   6.290   9.474   8.451
28573SOL    HW187616   6.383   9.495   8.447
28573SOL    HW287617   6.273   9.425   8.370
28574SOL     OW87618   9.697   1.647  10.735
28574SOL    HW187619   9.610   1.674  10.706
28574SOL    HW287620   9.718   1.571  10.682
28575SOL     OW87621   1.578   9.505  14.816
28575SOL    HW187622   1.513   9.456  14.866
28575SOL    HW287623   1.659   9.497  14.868
28576SOL     OW87624   3.008   9.082  14.776
28576SOL    HW187625   2.916   9.058  14.764
28576SOL    HW287626   3.014   9.108  14.868
28577SOL     OW87627   0.933   4.705   3.742
28577SOL    HW187628   1.011   4.682   3.692
28577SOL    HW287629   0.860   4.672   3.691
28578SOL     OW87630   9.460  13.192  10.448
28578SOL    HW187631   9.544  13.213  10.490
28578SOL    HW287632   9.412  13.275  10.448
28579SOL     OW87633   1.707  10.115   9.182
28579SOL    HW187634   1.765  10.186   9.210
28579SOL    HW287635   1.758  10.035   9.196
28580SOL     OW87636  12.824   7.506   3.778
28580SOL    HW187637  12.828   7.415   3.749
28580SOL    HW287638  12.849   7.557   3.701
28581SOL     OW87639   7.902  10.561   4.082
28581SOL    HW187640   7.943  10.489   4.034
28581SOL    HW287641   7.880  10.523   4.167
28582SOL     OW87642  12.966   0.393   7.242
28582SOL    HW187643  12.895   0.329   7.238
28582SOL    HW287644  13.010   0.376   7.325
28583SOL     OW87645  12.278   2.264   8.258
28583SOL    HW187646  12.293   2.358   8.252
28583SOL    HW287647  12.201   2.255   8.314
28584SOL     OW87648   5.852   9.816  12.346
28584SOL    HW187649   5.769   9.857  12.369
28584SOL    HW287650   5.830   9.725  12.326
28585SOL     OW87651   0.882   4.681   7.895
28585SOL    HW187652   0.944   4.610   7.882
28585SOL    HW287653   0.807   4.659   7.840
28586SOL     OW87654   7.951   4.073   4.807
28586SOL    HW187655   7.901   4.153   4.825
28586SOL    HW287656   7.884   4.006   4.793
28587SOL     OW87657   6.525   9.583   0.939
28587SOL    HW187658   6.599   9.548   0.989
28587SOL    HW287659   6.525   9.533   0.857
28588SOL     OW87660  13.433   2.553  11.608
28588SOL    HW187661  13.511   2.497  11.611
28588SOL    HW287662  13.440   2.608  11.686
28589SOL     OW87663  13.249   9.418   9.683
28589SOL    HW187664  13.238   9.459   9.597
28589SOL    HW287665  13.202   9.477   9.743
28590SOL     OW87666  10.176  13.741   5.052
28590SOL    HW187667  10.181  13.833   5.079
28590SOL    HW287668  10.165  13.745   4.956
28591SOL     OW87669   3.384  13.540  14.072
28591SOL    HW187670   3.427  13.574  13.993
28591SOL    HW287671   3.456  13.519  14.131
28592SOL     OW87672   7.992   2.768   2.775
28592SOL    HW187673   7.908   2.806   2.802
28592SOL    HW287674   8.044   2.843   2.746
28593SOL     OW87675   3.073  13.978   4.294
28593SOL    HW187676   3.027  14.050   4.337
28593SOL    HW287677   3.096  14.011   4.208
28594SOL     OW87678  10.887   6.499   5.515
28594SOL    HW187679  10.802   6.542   5.508
28594SOL    HW287680  10.910   6.477   5.425
28595SOL     OW87681  14.710   9.451   7.241
28595SOL    HW187682  14.719   9.545   7.258
28595SOL    HW287683  14.635   9.425   7.295
28596SOL     OW87684   5.472   4.990   0.696
28596SOL    HW187685   5.523   5.056   0.648
28596SOL    HW287686   5.386   4.991   0.654
28597SOL     OW87687   2.704  12.436   8.593
28597SOL    HW187688   2.682  12.508   8.651
28597SOL    HW287689   2.800  12.436   8.589
28598SOL     OW87690   8.644  12.991   7.712
28598SOL    HW187691   8.591  12.961   7.638
28598SOL    HW287692   8.696  13.063   7.676
28599SOL     OW87693  14.060  13.255  12.366
28599SOL    HW187694  14.029  13.288  12.451
28599SOL    HW287695  14.132  13.196  12.388
28600SOL     OW87696  14.251   3.511   4.582
28600SOL    HW187697  14.276   3.455   4.509
28600SOL    HW287698  14.308   3.588   4.574
28601SOL     OW87699   9.163   6.483  11.137
28601SOL    HW187700   9.256   6.498  11.120
28601SOL    HW287701   9.158   6.389  11.158
28602SOL     OW87702   1.720   6.515  13.656
28602SOL    HW187703   1.669   6.452  13.707
28602SOL    HW287704   1.802   6.524  13.703
28603SOL     OW87705  13.038  14.651   6.024
28603SOL    HW187706  13.043  14.743   6.000
28603SOL    HW287707  12.980  14.612   5.957
28604SOL     OW87708   8.652   2.751   4.777
28604SOL    HW187709   8.589   2.678   4.783
28604SOL    HW287710   8.717   2.721   4.714
28605SOL     OW87711  11.600   1.348  10.937
28605SOL    HW187712  11.592   1.292  11.014
28605SOL    HW287713  11.518   1.397  10.934
28606SOL     OW87714  10.495  13.723   5.041
28606SOL    HW187715  10.489  13.638   5.083
28606SOL    HW287716  10.460  13.710   4.953
28607SOL     OW87717   5.278   8.781   7.446
28607SOL    HW187718   5.218   8.717   7.484
28607SOL    HW287719   5.362   8.735   7.442
28608SOL     OW87720   5.945   4.536   5.457
28608SOL    HW187721   5.875   4.489   5.504
28608SOL    HW287722   6.026   4.500   5.492
28609SOL     OW87723   4.236  14.112  12.217
28609SOL    HW187724   4.306  14.074  12.271
28609SOL    HW287725   4.273  14.115  12.129
28610SOL     OW87726   2.491  10.955  10.593
28610SOL    HW187727   2.422  10.889  10.605
28610SOL    HW287728   2.572  10.904  10.584
28611SOL     OW87729  14.190   1.503  13.663
28611SOL    HW187730  14.251   1.574  13.640
28611SOL    HW287731  14.194   1.443  13.589
28612SOL     OW87732  14.125   4.375   1.377
28612SOL    HW187733  14.038   4.416   1.378
28612SOL    HW287734  14.184   4.444   1.348
28613SOL     OW87735   4.718  11.032   6.509
28613SOL    HW187736   4.689  10.941   6.505
28613SOL    HW287737   4.779  11.035   6.582
28614SOL     OW87738   9.611   6.443   0.735
28614SOL    HW187739   9.610   6.424   0.829
28614SOL    HW287740   9.643   6.363   0.694
28615SOL     OW87741   1.413   9.348  13.229
28615SOL    HW187742   1.484   9.410  13.248
28615SOL    HW287743   1.335   9.403  13.220
28616SOL     OW87744  13.672  12.786  10.654
28616SOL    HW187745  13.660  12.798  10.749
28616SOL    HW287746  13.734  12.713  10.647
28617SOL     OW87747  13.025   0.453   6.208
28617SOL    HW187748  13.092   0.387   6.225
28617SOL    HW287749  13.073   0.535   6.198
28618SOL     OW87750   9.502  11.006  10.635
28618SOL    HW187751   9.528  11.060  10.560
28618SOL    HW287752   9.538  10.920  10.615
28619SOL     OW87753   0.819  10.117  10.432
28619SOL    HW187754   0.810  10.046  10.496
28619SOL    HW287755   0.811  10.073  10.347
28620SOL     OW87756  13.700   3.868   8.984
28620SOL    HW187757  13.614   3.830   8.968
28620SOL    HW287758  13.762   3.799   8.960
28621SOL     OW87759   0.913  13.796  10.668
28621SOL    HW187760   0.848  13.809  10.737
28621SOL    HW287761   0.895  13.865  10.605
28622SOL     OW87762   7.957   5.143  14.541
28622SOL    HW187763   8.045   5.167  14.569
28622SOL    HW287764   7.899   5.192  14.599
28623SOL     OW87765   6.530   8.170   9.853
28623SOL    HW187766   6.439   8.173   9.825
28623SOL    HW287767   6.572   8.243   9.807
28624SOL     OW87768   1.720   9.488   8.382
28624SOL    HW187769   1.736   9.576   8.350
28624SOL    HW287770   1.729   9.495   8.477
28625SOL     OW87771   6.756   1.979  14.118
28625SOL    HW187772   6.707   1.946  14.042
28625SOL    HW287773   6.693   2.033  14.166
28626SOL     OW87774   3.856   3.241   7.321
28626SOL    HW187775   3.869   3.277   7.409
28626SOL    HW287776   3.941   3.252   7.278
28627SOL     OW87777   5.831  13.663   9.612
28627SOL    HW187778   5.891  13.591   9.593
28627SOL    HW287779   5.779  13.673   9.531
28628SOL     OW87780   4.328  11.334   6.703
28628SOL    HW187781   4.388  11.264   6.680
28628SOL    HW287782   4.300  11.370   6.618
28629SOL     OW87783   5.110  12.931  14.100
28629SOL    HW187784   5.033  12.982  14.073
28629SOL    HW287785   5.183  12.976  14.059
28630SOL     OW87786   3.617   6.145  10.273
28630SOL    HW187787   3.537   6.113  10.315
28630SOL    HW287788   3.682   6.145  10.343
28631SOL     OW87789  14.440   1.406   3.672
28631SOL    HW187790  14.390   1.423   3.592
28631SOL    HW287791  14.520   1.457   3.662
28632SOL     OW87792   5.429   8.322   1.045
28632SOL    HW187793   5.442   8.348   1.136
28632SOL    HW287794   5.407   8.229   1.049
28633SOL     OW87795   4.573  12.170   0.325
28633SOL    HW187796   4.572  12.238   0.259
28633SOL    HW287797   4.656  12.124   0.311
28634SOL     OW87798  14.559   3.582  13.847
28634SOL    HW187799  14.490   3.609  13.908
28634SOL    HW287800  14.547   3.639  13.771
28635SOL     OW87801  13.418   1.030   2.003
28635SOL    HW187802  13.377   1.106   1.962
28635SOL    HW287803  13.475   1.066   2.071
28636SOL     OW87804   6.743  12.729  12.004
28636SOL    HW187805   6.704  12.782  11.934
28636SOL    HW287806   6.821  12.779  12.030
28637SOL     OW87807   1.888  14.187   4.943
28637SOL    HW187808   1.888  14.141   5.027
28637SOL    HW287809   1.854  14.122   4.881
28638SOL     OW87810   0.827  12.056   6.952
28638SOL    HW187811   0.885  12.001   6.899
28638SOL    HW287812   0.739  12.027   6.930
28639SOL     OW87813   5.244  12.936   4.184
28639SOL    HW187814   5.249  12.989   4.264
28639SOL    HW287815   5.261  12.999   4.114
28640SOL     OW87816   1.059   4.875   1.123
28640SOL    HW187817   1.152   4.883   1.103
28640SOL    HW287818   1.040   4.781   1.112
28641SOL     OW87819  10.686   1.566   3.854
28641SOL    HW187820  10.745   1.612   3.795
28641SOL    HW287821  10.638   1.505   3.798
28642SOL     OW87822   1.153   2.881   4.761
28642SOL    HW187823   1.248   2.882   4.748
28642SOL    HW287824   1.141   2.837   4.845
28643SOL     OW87825  10.542   9.920   3.082
28643SOL    HW187826  10.486   9.843   3.082
28643SOL    HW287827  10.560   9.937   3.174
28644SOL     OW87828  10.340   6.253   0.884
28644SOL    HW187829  10.316   6.166   0.850
28644SOL    HW287830  10.416   6.279   0.831
28645SOL     OW87831  10.079   9.223   6.265
28645SOL    HW187832  10.164   9.258   6.237
28645SOL    HW287833  10.079   9.235   6.360
28646SOL     OW87834   4.059  10.919   6.298
28646SOL    HW187835   4.078  10.839   6.347
28646SOL    HW287836   4.066  10.893   6.206
28647SOL     OW87837   0.263  13.152  12.147
28647SOL    HW187838   0.276  13.082  12.083
28647SOL    HW287839   0.349  13.190  12.159
28648SOL     OW87840  11.120   1.817   5.929
28648SOL    HW187841  11.190   1.758   5.899
28648SOL    HW287842  11.138   1.900   5.885
28649SOL     OW87843   2.241   3.173  12.212
28649SOL    HW187844   2.246   3.112  12.139
28649SOL    HW287845   2.181   3.132  12.274
28650SOL     OW87846  12.267   8.425   2.228
28650SOL    HW187847  12.261   8.438   2.134
28650SOL    HW287848  12.316   8.342   2.237
28651SOL     OW87849   9.564   7.305  10.635
28651SOL    HW187850   9.477   7.338  10.614
28651SOL    HW287851   9.584   7.345  10.720
28652SOL     OW87852   6.100  14.502   1.040
28652SOL    HW187853   6.123  14.586   1.081
28652SOL    HW287854   6.120  14.514   0.947
28653SOL     OW87855  11.359   4.936  14.818
28653SOL    HW187856  11.265   4.922  14.805
28653SOL    HW287857  11.365   4.986   0.017
28654SOL     OW87858   1.153   5.435   3.502
28654SOL    HW187859   1.084   5.489   3.542
28654SOL    HW287860   1.173   5.480   3.420
28655SOL     OW87861   0.914  10.512   7.974
28655SOL    HW187862   0.851  10.505   8.047
28655SOL    HW287863   0.896  10.597   7.935
28656SOL     OW87864  11.945   8.036   9.985
28656SOL    HW187865  11.942   8.000   9.896
28656SOL    HW287866  12.018   8.098   9.984
28657SOL     OW87867   0.463   9.136   9.833
28657SOL    HW187868   0.472   9.063   9.894
28657SOL    HW287869   0.369   9.143   9.817
28658SOL     OW87870   9.242   9.783  13.721
28658SOL    HW187871   9.263   9.690  13.712
28658SOL    HW287872   9.150   9.784  13.749
28659SOL     OW87873  12.115  12.244  12.720
28659SOL    HW187874  12.078  12.255  12.807
28659SOL    HW287875  12.115  12.149  12.705
28660SOL     OW87876   3.253   8.835   9.607
28660SOL    HW187877   3.344   8.824   9.636
28660SOL    HW287878   3.246   8.781   9.528
28661SOL     OW87879   3.292  12.337   6.359
28661SOL    HW187880   3.200  12.338   6.333
28661SOL    HW287881   3.320  12.429   6.353
28662SOL     OW87882   0.178  13.808   9.076
28662SOL    HW187883   0.199  13.789   9.168
28662SOL    HW287884   0.119  13.883   9.080
28663SOL     OW87885  13.798  14.821   4.492
28663SOL    HW187886  13.732   0.002   4.521
28663SOL    HW287887  13.806  14.836   4.398
28664SOL     OW87888  14.586  12.020   3.763
28664SOL    HW187889  14.600  11.971   3.843
28664SOL    HW287890  14.573  12.111   3.791
28665SOL     OW87891  10.043   1.174   4.136
28665SOL    HW187892  10.059   1.232   4.210
28665SOL    HW287893  10.008   1.231   4.067
28666SOL     OW87894   0.593   2.615   7.654
28666SOL    HW187895   0.554   2.602   7.741
28666SOL    HW287896   0.523   2.658   7.604
28667SOL     OW87897   6.026   5.418   9.901
28667SOL    HW187898   5.990   5.503   9.927
28667SOL    HW287899   5.967   5.387   9.833
28668SOL     OW87900   8.530  12.973  11.067
28668SOL    HW187901   8.513  12.883  11.040
28668SOL    HW287902   8.444  13.008  11.091
28669SOL     OW87903  11.940   3.937  14.730
28669SOL    HW187904  11.939   3.916  14.637
28669SOL    HW287905  11.885   4.015  14.738
28670SOL     OW87906   4.359   4.517  13.227
28670SOL    HW187907   4.310   4.448  13.184
28670SOL    HW287908   4.311   4.533  13.309
28671SOL     OW87909   4.441   5.353  14.560
28671SOL    HW187910   4.386   5.424  14.526
28671SOL    HW287911   4.415   5.276  14.510
28672SOL     OW87912  10.487   2.835   9.298
28672SOL    HW187913  10.551   2.906   9.289
28672SOL    HW287914  10.411   2.865   9.250
28673SOL     OW87915  10.325   2.865   2.593
28673SOL    HW187916  10.248   2.854   2.536
28673SOL    HW287917  10.361   2.777   2.602
28674SOL     OW87918   9.547  12.485   2.387
28674SOL    HW187919   9.596  12.472   2.306
28674SOL    HW287920   9.614  12.508   2.452
28675SOL     OW87921   0.286  14.643   9.193
28675SOL    HW187922   0.267  14.682   9.279
28675SOL    HW287923   0.378  14.664   9.178
28676SOL     OW87924  14.166   1.586   4.004
28676SOL    HW187925  14.116   1.597   4.085
28676SOL    HW287926  14.109   1.623   3.936
28677SOL     OW87927  12.637  12.660   2.871
28677SOL    HW187928  12.646  12.651   2.966
28677SOL    HW287929  12.544  12.677   2.857
28678SOL     OW87930  10.694   2.570  11.369
28678SOL    HW187931  10.667   2.595  11.457
28678SOL    HW287932  10.715   2.653  11.326
28679SOL     OW87933  11.914  10.436   7.357
28679SOL    HW187934  11.997  10.470   7.323
28679SOL    HW287935  11.868  10.405   7.279
28680SOL     OW87936   9.729   5.184   1.868
28680SOL    HW187937   9.650   5.190   1.921
28680SOL    HW287938   9.730   5.265   1.816
28681SOL     OW87939   8.733   8.244   7.004
28681SOL    HW187940   8.659   8.289   7.047
28681SOL    HW287941   8.789   8.217   7.077
28682SOL     OW87942   6.190   7.603   1.202
28682SOL    HW187943   6.104   7.579   1.238
28682SOL    HW287944   6.228   7.519   1.175
28683SOL     OW87945  10.058   0.537   0.614
28683SOL    HW187946   9.982   0.579   0.573
28683SOL    HW287947  10.112   0.610   0.643
28684SOL     OW87948   7.389  14.253  14.231
28684SOL    HW187949   7.320  14.210  14.180
28684SOL    HW287950   7.462  14.262  14.171
28685SOL     OW87951  10.076   9.588   3.694
28685SOL    HW187952  10.006   9.527   3.718
28685SOL    HW287953  10.138   9.535   3.644
28686SOL     OW87954   5.686  10.537  10.387
28686SOL    HW187955   5.637  10.462  10.421
28686SOL    HW287956   5.685  10.601  10.458
28687SOL     OW87957  10.179  10.210   9.276
28687SOL    HW187958  10.209  10.246   9.192
28687SOL    HW287959  10.258  10.179   9.319
28688SOL     OW87960   9.726   1.695   1.333
28688SOL    HW187961   9.706   1.784   1.361
28688SOL    HW287962   9.758   1.652   1.413
28689SOL     OW87963   7.219   0.265   4.088
28689SOL    HW187964   7.284   0.207   4.050
28689SOL    HW287965   7.143   0.258   4.030
28690SOL     OW87966  10.393   0.860   7.050
28690SOL    HW187967  10.324   0.844   6.986
28690SOL    HW287968  10.439   0.938   7.017
28691SOL     OW87969  13.102   0.785   3.335
28691SOL    HW187970  13.149   0.715   3.290
28691SOL    HW287971  13.027   0.741   3.376
28692SOL     OW87972   1.729  14.601  14.780
28692SOL    HW187973   1.674  14.678  14.772
28692SOL    HW287974   1.692  14.538  14.719
28693SOL     OW87975   0.759   4.222   9.818
28693SOL    HW187976   0.711   4.140   9.808
28693SOL    HW287977   0.830   4.215   9.755
28694SOL     OW87978  12.012   6.677  13.706
28694SOL    HW187979  11.924   6.684  13.670
28694SOL    HW287980  12.002   6.692  13.800
28695SOL     OW87981  12.166   4.124  10.933
28695SOL    HW187982  12.249   4.106  10.976
28695SOL    HW287983  12.176   4.213  10.898
28696SOL     OW87984   7.949   3.964   3.688
28696SOL    HW187985   7.930   4.000   3.602
28696SOL    HW287986   7.903   4.021   3.750
28697SOL     OW87987  12.403   8.205   8.041
28697SOL    HW187988  12.430   8.154   8.117
28697SOL    HW287989  12.438   8.293   8.058
28698SOL     OW87990  14.117   4.560   9.446
28698SOL    HW187991  14.128   4.490   9.510
28698SOL    HW287992  14.036   4.537   9.400
28699SOL     OW87993  10.054   0.346   0.321
28699SOL    HW187994   9.975   0.297   0.343
28699SOL    HW287995  10.031   0.437   0.338
28700SOL     OW87996   2.337   7.171   8.060
28700SOL    HW187997   2.297   7.097   8.015
28700SOL    HW287998   2.406   7.202   8.000
28701SOL     OW87999   1.892   8.514   1.809
28701SOL    HW188000   1.823   8.448   1.801
28701SOL    HW288001   1.865   8.584   1.749
28702SOL     OW88002   5.985  11.053   4.540
28702SOL    HW188003   5.970  10.967   4.500
28702SOL    HW288004   6.021  11.032   4.627
28703SOL     OW88005   8.352   3.744   7.815
28703SOL    HW188006   8.426   3.790   7.855
28703SOL    HW288007   8.323   3.683   7.882
28704SOL     OW88008   8.944   2.326   7.548
28704SOL    HW188009   8.874   2.277   7.504
28704SOL    HW288010   8.903   2.358   7.629
28705SOL     OW88011  10.322   1.914   1.608
28705SOL    HW188012  10.338   1.994   1.658
28705SOL    HW288013  10.384   1.851   1.645
28706SOL     OW88014   8.717   4.900  12.107
28706SOL    HW188015   8.762   4.898  12.022
28706SOL    HW288016   8.761   4.833  12.159
28707SOL     OW88017   9.290   9.854   9.128
28707SOL    HW188018   9.297   9.785   9.194
28707SOL    HW288019   9.375   9.855   9.084
28708SOL     OW88020  14.127  10.567   5.642
28708SOL    HW188021  14.162  10.478   5.646
28708SOL    HW288022  14.068  10.573   5.717
28709SOL     OW88023   7.720   4.122  13.199
28709SOL    HW188024   7.698   4.147  13.289
28709SOL    HW288025   7.776   4.193  13.168
28710SOL     OW88026   8.280  12.740   9.413
28710SOL    HW188027   8.320  12.812   9.363
28710SOL    HW288028   8.277  12.668   9.351
28711SOL     OW88029   9.487   8.273  11.908
28711SOL    HW188030   9.502   8.365  11.927
28711SOL    HW288031   9.507   8.264  11.815
28712SOL     OW88032   7.948   3.540   9.284
28712SOL    HW188033   7.966   3.500   9.199
28712SOL    HW288034   7.882   3.607   9.267
28713SOL     OW88035   3.356   1.389   0.560
28713SOL    HW188036   3.443   1.395   0.521
28713SOL    HW288037   3.372   1.364   0.651
28714SOL     OW88038   9.972   3.164   1.915
28714SOL    HW188039  10.054   3.156   1.866
28714SOL    HW288040   9.916   3.096   1.879
28715SOL     OW88041   7.919  10.793  10.609
28715SOL    HW188042   7.844  10.847  10.586
28715SOL    HW288043   7.888  10.703  10.598
28716SOL     OW88044   3.163  14.297  10.949
28716SOL    HW188045   3.125  14.261  10.868
28716SOL    HW288046   3.257  14.301  10.932
28717SOL     OW88047  10.980  13.209  11.113
28717SOL    HW188048  10.909  13.150  11.088
28717SOL    HW288049  10.949  13.252  11.192
28718SOL     OW88050   3.150   6.036   4.789
28718SOL    HW188051   3.234   5.989   4.789
28718SOL    HW288052   3.135   6.059   4.880
28719SOL     OW88053  13.398   4.281   8.561
28719SOL    HW188054  13.389   4.323   8.475
28719SOL    HW288055  13.492   4.282   8.578
28720SOL     OW88056  11.686   2.124   6.596
28720SOL    HW188057  11.764   2.179   6.589
28720SOL    HW288058  11.696   2.059   6.527
28721SOL     OW88059  13.808  11.119  12.288
28721SOL    HW188060  13.872  11.182  12.256
28721SOL    HW288061  13.750  11.170  12.344
28722SOL     OW88062   0.788  10.818   5.106
28722SOL    HW188063   0.711  10.818   5.049
28722SOL    HW288064   0.815  10.726   5.111
28723SOL     OW88065   1.179   6.001   2.846
28723SOL    HW188066   1.150   6.039   2.763
28723SOL    HW288067   1.122   6.041   2.912
28724SOL     OW88068  14.200  10.352   7.592
28724SOL    HW188069  14.159  10.334   7.676
28724SOL    HW288070  14.289  10.317   7.601
28725SOL     OW88071   0.296   3.678  10.035
28725SOL    HW188072   0.349   3.729  10.097
28725SOL    HW288073   0.310   3.721   9.951
28726SOL     OW88074   4.485   0.943   4.697
28726SOL    HW188075   4.431   1.004   4.645
28726SOL    HW288076   4.541   1.000   4.749
28727SOL     OW88077  14.259   4.220   2.314
28727SOL    HW188078  14.320   4.232   2.241
28727SOL    HW288079  14.187   4.281   2.296
28728SOL     OW88080   2.350   2.096  13.774
28728SOL    HW188081   2.441   2.070  13.785
28728SOL    HW288082   2.352   2.192  13.772
28729SOL     OW88083   5.124  12.711   0.611
28729SOL    HW188084   5.144  12.802   0.635
28729SOL    HW288085   5.202  12.680   0.565
28730SOL     OW88086   2.093   1.153  11.599
28730SOL    HW188087   2.111   1.191  11.513
28730SOL    HW288088   2.014   1.199  11.629
28731SOL     OW88089  10.272  10.682   2.270
28731SOL    HW188090  10.260  10.776   2.259
28731SOL    HW288091  10.302  10.651   2.185
28732SOL     OW88092  10.254   8.639   1.556
28732SOL    HW188093  10.237   8.663   1.647
28732SOL    HW288094  10.272   8.545   1.559
28733SOL     OW88095   0.361   5.472   7.625
28733SOL    HW188096   0.441   5.444   7.580
28733SOL    HW288097   0.350   5.564   7.600
28734SOL     OW88098   2.939   4.996   0.592
28734SOL    HW188099   2.959   5.049   0.670
28734SOL    HW288100   2.901   5.059   0.530
28735SOL     OW88101   3.019  12.607  12.309
28735SOL    HW188102   2.968  12.543  12.260
28735SOL    HW288103   3.102  12.613  12.262
28736SOL     OW88104   2.210   9.382  10.798
28736SOL    HW188105   2.245   9.353  10.714
28736SOL    HW288106   2.185   9.301  10.842
28737SOL     OW88107  13.131   0.839  13.292
28737SOL    HW188108  13.113   0.867  13.202
28737SOL    HW288109  13.075   0.763  13.305
28738SOL     OW88110  14.021  12.031   8.339
28738SOL    HW188111  14.101  12.049   8.290
28738SOL    HW288112  13.951  12.043   8.275
28739SOL     OW88113   4.301   6.823  10.600
28739SOL    HW188114   4.335   6.741  10.564
28739SOL    HW288115   4.206   6.815  10.590
28740SOL     OW88116   8.901   4.705  14.783
28740SOL    HW188117   8.971   4.768  14.769
28740SOL    HW288118   8.829   4.756  14.820
28741SOL     OW88119   0.723   7.335   4.618
28741SOL    HW188120   0.734   7.241   4.607
28741SOL    HW288121   0.664   7.361   4.548
28742SOL     OW88122  11.115   6.228   4.147
28742SOL    HW188123  11.171   6.254   4.220
28742SOL    HW288124  11.103   6.133   4.159
28743SOL     OW88125   7.544   2.297   6.651
28743SOL    HW188126   7.623   2.335   6.689
28743SOL    HW288127   7.487   2.278   6.726
28744SOL     OW88128  13.235   5.001   5.946
28744SOL    HW188129  13.165   4.937   5.935
28744SOL    HW288130  13.226   5.061   5.872
28745SOL     OW88131  10.376   5.863   6.488
28745SOL    HW188132  10.358   5.957   6.480
28745SOL    HW288133  10.298   5.821   6.452
28746SOL     OW88134   8.770  13.104   2.113
28746SOL    HW188135   8.736  13.068   2.031
28746SOL    HW288136   8.697  13.096   2.174
28747SOL     OW88137   7.835   2.306  12.578
28747SOL    HW188138   7.798   2.260  12.654
28747SOL    HW288139   7.759   2.323  12.522
28748SOL     OW88140   3.652  12.990   8.701
28748SOL    HW188141   3.631  13.001   8.608
28748SOL    HW288142   3.568  12.991   8.746
28749SOL     OW88143   9.993   2.634   3.679
28749SOL    HW188144   9.952   2.690   3.614
28749SOL    HW288145   9.961   2.546   3.659
28750SOL     OW88146   0.508   4.684  14.117
28750SOL    HW188147   0.486   4.774  14.142
28750SOL    HW288148   0.455   4.668  14.038
28751SOL     OW88149  10.585  13.448   5.357
28751SOL    HW188150  10.526  13.397   5.413
28751SOL    HW288151  10.669  13.404   5.364
28752SOL     OW88152  11.831   4.021   9.293
28752SOL    HW188153  11.814   3.933   9.259
28752SOL    HW288154  11.792   4.022   9.380
28753SOL     OW88155  12.188   9.887   9.298
28753SOL    HW188156  12.219   9.798   9.285
28753SOL    HW288157  12.094   9.882   9.280
28754SOL     OW88158  14.150   2.794  10.988
28754SOL    HW188159  14.077   2.854  11.002
28754SOL    HW288160  14.110   2.715  10.952
28755SOL     OW88161   0.888   2.985  13.593
28755SOL    HW188162   0.905   3.076  13.619
28755SOL    HW288163   0.917   2.981  13.502
28756SOL     OW88164  11.154   6.522  10.264
28756SOL    HW188165  11.174   6.532  10.171
28756SOL    HW288166  11.148   6.427  10.278
28757SOL     OW88167  10.217   4.989   9.172
28757SOL    HW188168  10.203   5.081   9.149
28757SOL    HW288169  10.272   4.991   9.250
28758SOL     OW88170  10.128  10.926   2.053
28758SOL    HW188171  10.162  11.013   2.035
28758SOL    HW288172  10.044  10.922   2.008
28759SOL     OW88173  14.695  12.726   9.796
28759SOL    HW188174  14.733  12.774   9.722
28759SOL    HW288175  14.770  12.688   9.841
28760SOL     OW88176  12.874  12.536  14.155
28760SOL    HW188177  12.926  12.566  14.080
28760SOL    HW288178  12.844  12.449  14.131
28761SOL     OW88179   2.154  11.576   1.507
28761SOL    HW188180   2.240  11.611   1.529
28761SOL    HW288181   2.094  11.650   1.519
28762SOL     OW88182  13.535   5.001   1.166
28762SOL    HW188183  13.605   4.992   1.102
28762SOL    HW288184  13.555   4.935   1.233
28763SOL     OW88185  13.613   7.897   4.086
28763SOL    HW188186  13.654   7.845   4.155
28763SOL    HW288187  13.519   7.887   4.101
28764SOL     OW88188  10.358   8.144   5.739
28764SOL    HW188189  10.325   8.232   5.760
28764SOL    HW288190  10.384   8.150   5.647
28765SOL     OW88191  13.795   8.827  10.975
28765SOL    HW188192  13.874   8.871  11.005
28765SOL    HW288193  13.820   8.735  10.964
28766SOL     OW88194   0.128  13.985  12.594
28766SOL    HW188195   0.102  14.074  12.617
28766SOL    HW288196   0.048  13.945  12.559
28767SOL     OW88197   1.598   6.100   5.391
28767SOL    HW188198   1.521   6.154   5.409
28767SOL    HW288199   1.629   6.073   5.477
28768SOL     OW88200   4.193   2.279  11.695
28768SOL    HW188201   4.128   2.303  11.761
28768SOL    HW288202   4.267   2.338  11.712
28769SOL     OW88203   0.605   3.401   6.625
28769SOL    HW188204   0.690   3.365   6.647
28769SOL    HW288205   0.554   3.325   6.595
28770SOL     OW88206   2.594  14.861  12.516
28770SOL    HW188207   2.614  14.774  12.482
28770SOL    HW288208   2.670   0.003  12.569
28771SOL     OW88209  13.856  13.280   3.776
28771SOL    HW188210  13.913  13.353   3.801
28771SOL    HW288211  13.858  13.221   3.851
28772SOL     OW88212  12.856   1.730  11.172
28772SOL    HW188213  12.842   1.667  11.242
28772SOL    HW288214  12.877   1.812  11.216
28773SOL     OW88215   6.257   0.409  14.671
28773SOL    HW188216   6.307   0.447  14.598
28773SOL    HW288217   6.276   0.466  14.745
28774SOL     OW88218   5.930   1.908   1.380
28774SOL    HW188219   5.886   1.848   1.439
28774SOL    HW288220   6.012   1.864   1.356
28775SOL     OW88221   1.738   2.332   1.216
28775SOL    HW188222   1.730   2.264   1.149
28775SOL    HW288223   1.828   2.365   1.205
28776SOL     OW88224   0.504   0.253   0.067
28776SOL    HW188225   0.513   0.175   0.121
28776SOL    HW288226   0.415   0.284   0.084
28777SOL     OW88227   6.869  11.066  12.972
28777SOL    HW188228   6.927  11.010  12.920
28777SOL    HW288229   6.804  11.005  13.009
28778SOL     OW88230  10.271   3.058   3.641
28778SOL    HW188231  10.300   3.150   3.640
28778SOL    HW288232  10.337   3.013   3.694
28779SOL     OW88233  14.256   5.015  10.811
28779SOL    HW188234  14.336   5.002  10.761
28779SOL    HW288235  14.187   4.976  10.756
28780SOL     OW88236   0.488   3.946   1.045
28780SOL    HW188237   0.574   3.935   1.086
28780SOL    HW288238   0.442   4.008   1.102
28781SOL     OW88239  10.852  13.290  13.037
28781SOL    HW188240  10.947  13.286  13.020
28781SOL    HW288241  10.824  13.371  12.994
28782SOL     OW88242   4.754   2.721   5.762
28782SOL    HW188243   4.662   2.722   5.738
28782SOL    HW288244   4.759   2.777   5.840
28783SOL     OW88245  13.136  10.736  12.158
28783SOL    HW188246  13.172  10.660  12.112
28783SOL    HW288247  13.147  10.809  12.097
28784SOL     OW88248   1.541  11.332  13.399
28784SOL    HW188249   1.622  11.364  13.360
28784SOL    HW288250   1.473  11.391  13.365
28785SOL     OW88251  10.275  11.141   1.676
28785SOL    HW188252  10.362  11.100   1.677
28785SOL    HW288253  10.232  11.103   1.599
28786SOL     OW88254   0.479  13.736   8.361
28786SOL    HW188255   0.493  13.672   8.291
28786SOL    HW288256   0.563  13.741   8.406
28787SOL     OW88257   8.432   7.774   4.365
28787SOL    HW188258   8.523   7.788   4.390
28787SOL    HW288259   8.436   7.714   4.290
28788SOL     OW88260  10.216   8.221   2.704
28788SOL    HW188261  10.229   8.157   2.773
28788SOL    HW288262  10.240   8.176   2.624
28789SOL     OW88263   1.583  14.707   2.242
28789SOL    HW188264   1.662  14.697   2.296
28789SOL    HW288265   1.616  14.708   2.152
28790SOL     OW88266   5.608  13.151   5.693
28790SOL    HW188267   5.685  13.111   5.651
28790SOL    HW288268   5.610  13.242   5.664
28791SOL     OW88269   6.210   8.396   1.944
28791SOL    HW188270   6.150   8.353   2.006
28791SOL    HW288271   6.183   8.363   1.858
28792SOL     OW88272   5.355  12.023   6.751
28792SOL    HW188273   5.360  12.080   6.674
28792SOL    HW288274   5.269  11.981   6.744
28793SOL     OW88275   5.999   2.483   4.074
28793SOL    HW188276   5.949   2.561   4.055
28793SOL    HW288277   6.090   2.508   4.059
28794SOL     OW88278   1.036   2.970   3.901
28794SOL    HW188279   1.022   3.013   3.986
28794SOL    HW288280   0.954   2.923   3.885
28795SOL     OW88281  11.813   6.488  10.249
28795SOL    HW188282  11.763   6.568  10.231
28795SOL    HW288283  11.810   6.439  10.168
28796SOL     OW88284  12.958   9.964   7.894
28796SOL    HW188285  13.046   9.989   7.922
28796SOL    HW288286  12.920   9.923   7.971
28797SOL     OW88287  13.660   8.459   4.844
28797SOL    HW188288  13.612   8.376   4.839
28797SOL    HW288289  13.694   8.471   4.755
28798SOL     OW88290   7.935   2.500   0.278
28798SOL    HW188291   8.018   2.466   0.311
28798SOL    HW288292   7.882   2.422   0.261
28799SOL     OW88293  13.287   4.124   7.849
28799SOL    HW188294  13.301   4.186   7.777
28799SOL    HW288295  13.359   4.141   7.909
28800SOL     OW88296  13.150  10.664   0.376
28800SOL    HW188297  13.062  10.632   0.398
28800SOL    HW288298  13.185  10.697   0.459
28801SOL     OW88299   4.202   8.039  11.080
28801SOL    HW188300   4.212   8.116  11.024
28801SOL    HW288301   4.288   7.998  11.080
28802SOL     OW88302  13.933   1.678   7.891
28802SOL    HW188303  13.910   1.770   7.901
28802SOL    HW288304  13.859   1.638   7.846
28803SOL     OW88305  11.678  10.668   3.129
28803SOL    HW188306  11.637  10.749   3.159
28803SOL    HW288307  11.766  10.694   3.101
28804SOL     OW88308  13.215   5.396   4.352
28804SOL    HW188309  13.290   5.347   4.386
28804SOL    HW288310  13.169   5.425   4.430
28805SOL     OW88311  11.579   7.783   8.806
28805SOL    HW188312  11.634   7.860   8.820
28805SOL    HW288313  11.521   7.807   8.734
28806SOL     OW88314   6.006  12.027   9.521
28806SOL    HW188315   5.955  12.082   9.462
28806SOL    HW288316   5.989  11.937   9.491
28807SOL     OW88317   3.436  11.820  10.228
28807SOL    HW188318   3.414  11.806  10.137
28807SOL    HW288319   3.352  11.818  10.275
28808SOL     OW88320  10.480  14.343  14.257
28808SOL    HW188321  10.560  14.291  14.248
28808SOL    HW288322  10.446  14.321  14.344
28809SOL     OW88323  11.558   7.805  13.716
28809SOL    HW188324  11.650   7.800  13.688
28809SOL    HW288325  11.561   7.853  13.799
28810SOL     OW88326   9.609   7.865   6.844
28810SOL    HW188327   9.662   7.856   6.923
28810SOL    HW288328   9.614   7.958   6.822
28811SOL     OW88329   3.425  13.763  14.401
28811SOL    HW188330   3.356  13.723  14.349
28811SOL    HW288331   3.456  13.837  14.349
28812SOL     OW88332   7.951  10.350   3.481
28812SOL    HW188333   7.996  10.400   3.549
28812SOL    HW288334   7.968  10.258   3.504
28813SOL     OW88335  11.148   5.196  13.618
28813SOL    HW188336  11.233   5.154  13.603
28813SOL    HW288337  11.167   5.290  13.612
28814SOL     OW88338  12.682  14.730   6.096
28814SOL    HW188339  12.704  14.701   6.008
28814SOL    HW288340  12.728  14.669   6.153
28815SOL     OW88341  13.428  14.509  14.460
28815SOL    HW188342  13.436  14.414  14.464
28815SOL    HW288343  13.518  14.541  14.453
28816SOL     OW88344   9.958   3.922   3.008
28816SOL    HW188345   9.939   3.926   2.914
28816SOL    HW288346   9.899   3.987   3.047
28817SOL     OW88347   1.368  12.337   4.970
28817SOL    HW188348   1.403  12.249   4.961
28817SOL    HW288349   1.313  12.349   4.893
28818SOL     OW88350   8.980  13.403   5.581
28818SOL    HW188351   8.903  13.452   5.551
28818SOL    HW288352   9.010  13.450   5.658
28819SOL     OW88353   4.674  12.248   3.593
28819SOL    HW188354   4.582  12.261   3.617
28819SOL    HW288355   4.684  12.153   3.588
28820SOL     OW88356  10.393   0.672   2.500
28820SOL    HW188357  10.460   0.668   2.569
28820SOL    HW288358  10.442   0.663   2.419
28821SOL     OW88359   4.464   3.324  14.256
28821SOL    HW188360   4.498   3.368  14.335
28821SOL    HW288361   4.475   3.389  14.186
28822SOL     OW88362  13.334   8.003   6.321
28822SOL    HW188363  13.412   7.951   6.301
28822SOL    HW288364  13.262   7.955   6.279
28823SOL     OW88365   7.121   0.445  12.359
28823SOL    HW188366   7.141   0.372  12.418
28823SOL    HW288367   7.106   0.519  12.418
28824SOL     OW88368   8.222  13.990   5.305
28824SOL    HW188369   8.273  13.927   5.253
28824SOL    HW288370   8.283  14.062   5.323
28825SOL     OW88371   9.519   4.978   4.236
28825SOL    HW188372   9.508   5.066   4.273
28825SOL    HW288373   9.552   4.926   4.309
28826SOL     OW88374   7.411  13.636   8.949
28826SOL    HW188375   7.418  13.731   8.955
28826SOL    HW288376   7.401  13.607   9.040
28827SOL     OW88377  14.192   7.542   6.160
28827SOL    HW188378  14.244   7.496   6.094
28827SOL    HW288379  14.161   7.473   6.219
28828SOL     OW88380  14.477   3.170   0.362
28828SOL    HW188381  14.457   3.246   0.417
28828SOL    HW288382  14.394   3.148   0.320
28829SOL     OW88383   6.466  10.565  11.472
28829SOL    HW188384   6.415  10.484  11.470
28829SOL    HW288385   6.455  10.602  11.384
28830SOL     OW88386   7.406   3.529   9.745
28830SOL    HW188387   7.407   3.473   9.823
28830SOL    HW288388   7.496   3.525   9.712
28831SOL     OW88389   5.099  13.170   6.873
28831SOL    HW188390   5.109  13.107   6.944
28831SOL    HW288391   5.172  13.150   6.813
28832SOL     OW88392   2.494   0.475  14.211
28832SOL    HW188393   2.405   0.444  14.226
28832SOL    HW288394   2.537   0.404  14.164
28833SOL     OW88395  14.709   7.723  10.071
28833SOL    HW188396  14.713   7.703  10.164
28833SOL    HW288397  14.693   7.817  10.066
28834SOL     OW88398   1.412   4.052   7.461
28834SOL    HW188399   1.457   4.109   7.399
28834SOL    HW288400   1.401   3.969   7.413
28835SOL     OW88401  14.281   8.630   6.305
28835SOL    HW188402  14.327   8.562   6.256
28835SOL    HW288403  14.195   8.635   6.263
28836SOL     OW88404   3.546  14.619  14.020
28836SOL    HW188405   3.625  14.619  14.075
28836SOL    HW288406   3.564  14.553  13.952
28837SOL     OW88407   5.293   9.573   0.362
28837SOL    HW188408   5.296   9.478   0.369
28837SOL    HW288409   5.321   9.590   0.272
28838SOL     OW88410   4.707  14.075   9.823
28838SOL    HW188411   4.643  14.135   9.786
28838SOL    HW288412   4.666  14.043   9.904
28839SOL     OW88413   4.432  11.105  10.924
28839SOL    HW188414   4.465  11.062  11.004
28839SOL    HW288415   4.428  11.197  10.947
28840SOL     OW88416   4.375   9.685  12.140
28840SOL    HW188417   4.413   9.744  12.205
28840SOL    HW288418   4.319   9.626  12.191
28841SOL     OW88419   6.275  12.077   6.292
28841SOL    HW188420   6.209  12.136   6.256
28841SOL    HW288421   6.337  12.134   6.336
28842SOL     OW88422  11.246   8.018   2.657
28842SOL    HW188423  11.279   8.053   2.740
28842SOL    HW288424  11.223   8.096   2.606
28843SOL     OW88425   4.872  13.809   7.255
28843SOL    HW188426   4.909  13.892   7.226
28843SOL    HW288427   4.802  13.834   7.315
28844SOL     OW88428   6.981  12.606   1.612
28844SOL    HW188429   7.055  12.574   1.560
28844SOL    HW288430   7.020  12.667   1.675
28845SOL     OW88431   9.209   5.181   4.557
28845SOL    HW188432   9.265   5.247   4.598
28845SOL    HW288433   9.123   5.194   4.596
28846SOL     OW88434  13.638   1.861   2.619
28846SOL    HW188435  13.721   1.903   2.595
28846SOL    HW288436  13.643   1.851   2.714
28847SOL     OW88437   8.436   4.499   3.234
28847SOL    HW188438   8.406   4.466   3.318
28847SOL    HW288439   8.370   4.469   3.172
28848SOL     OW88440  13.814   8.355   1.702
28848SOL    HW188441  13.796   8.403   1.621
28848SOL    HW288442  13.777   8.268   1.687
28849SOL     OW88443   9.372  10.231  13.411
28849SOL    HW188444   9.354  10.158  13.352
28849SOL    HW288445   9.464  10.220  13.436
28850SOL     OW88446  11.196  10.787  11.244
28850SOL    HW188447  11.129  10.803  11.178
28850SOL    HW288448  11.186  10.695  11.268
28851SOL     OW88449   1.184  10.476   5.050
28851SOL    HW188450   1.217  10.391   5.082
28851SOL    HW288451   1.164  10.461   4.958
28852SOL     OW88452  10.680  12.720  11.244
28852SOL    HW188453  10.588  12.727  11.220
28852SOL    HW288454  10.714  12.650  11.189
28853SOL     OW88455   5.198   5.128   7.857
28853SOL    HW188456   5.164   5.119   7.768
28853SOL    HW288457   5.225   5.219   7.864
28854SOL     OW88458  10.832  13.339   7.262
28854SOL    HW188459  10.926  13.348   7.274
28854SOL    HW288460  10.822  13.263   7.205
28855SOL     OW88461   5.232   1.855   9.392
28855SOL    HW188462   5.307   1.879   9.445
28855SOL    HW288463   5.262   1.782   9.339
28856SOL     OW88464  11.972   5.572   9.613
28856SOL    HW188465  11.925   5.598   9.533
28856SOL    HW288466  12.012   5.653   9.644
28857SOL     OW88467   7.878  10.021   3.321
28857SOL    HW188468   7.915  10.048   3.405
28857SOL    HW288469   7.955   9.998   3.268
28858SOL     OW88470   3.990   8.954   8.684
28858SOL    HW188471   4.057   8.886   8.675
28858SOL    HW288472   3.985   8.972   8.778
28859SOL     OW88473  10.793   1.742   0.470
28859SOL    HW188474  10.705   1.712   0.494
28859SOL    HW288475  10.851   1.699   0.533
28860SOL     OW88476   1.513   9.953   6.929
28860SOL    HW188477   1.551  10.040   6.946
28860SOL    HW288478   1.437   9.971   6.872
28861SOL     OW88479   6.742  13.000   8.726
28861SOL    HW188480   6.674  12.950   8.773
28861SOL    HW288481   6.697  13.079   8.697
28862SOL     OW88482   0.789   5.532  12.441
28862SOL    HW188483   0.755   5.586  12.370
28862SOL    HW288484   0.881   5.519  12.419
28863SOL     OW88485  10.938   7.287   6.698
28863SOL    HW188486  10.895   7.295   6.613
28863SOL    HW288487  10.892   7.216   6.742
28864SOL     OW88488   4.044   4.579   8.747
28864SOL    HW188489   3.956   4.542   8.753
28864SOL    HW288490   4.031   4.673   8.762
28865SOL     OW88491  13.972   1.959   0.613
28865SOL    HW188492  14.050   1.993   0.657
28865SOL    HW288493  13.915   2.035   0.604
28866SOL     OW88494   6.875   2.263   4.713
28866SOL    HW188495   6.842   2.339   4.761
28866SOL    HW288496   6.961   2.245   4.752
28867SOL     OW88497   5.208  14.472   1.054
28867SOL    HW188498   5.274  14.463   1.123
28867SOL    HW288499   5.165  14.386   1.052
28868SOL     OW88500  13.097   9.323  10.488
28868SOL    HW188501  13.117   9.237  10.525
28868SOL    HW288502  13.072   9.306  10.397
28869SOL     OW88503  13.876   1.782   8.819
28869SOL    HW188504  13.816   1.739   8.758
28869SOL    HW288505  13.819   1.832   8.877
28870SOL     OW88506   6.564   7.627   1.426
28870SOL    HW188507   6.653   7.643   1.392
28870SOL    HW288508   6.554   7.532   1.423
28871SOL     OW88509   9.257  14.046   3.549
28871SOL    HW188510   9.162  14.057   3.549
28871SOL    HW288511   9.270  13.952   3.534
28872SOL     OW88512   5.780  14.370  11.844
28872SOL    HW188513   5.725  14.339  11.916
28872SOL    HW288514   5.768  14.465  11.843
28873SOL     OW88515   7.223   3.682   1.468
28873SOL    HW188516   7.314   3.699   1.443
28873SOL    HW288517   7.195   3.611   1.410
28874SOL     OW88518  13.726  13.248  10.719
28874SOL    HW188519  13.814  13.269  10.687
28874SOL    HW288520  13.686  13.199  10.647
28875SOL     OW88521   1.422   4.836   0.795
28875SOL    HW188522   1.395   4.750   0.763
28875SOL    HW288523   1.417   4.893   0.718
28876SOL     OW88524  10.176   7.205   3.951
28876SOL    HW188525  10.080   7.210   3.951
28876SOL    HW288526  10.195   7.127   3.899
28877SOL     OW88527   7.865   8.432   4.705
28877SOL    HW188528   7.918   8.507   4.679
28877SOL    HW288529   7.923   8.378   4.758
28878SOL     OW88530  12.890   9.072   1.287
28878SOL    HW188531  12.861   9.158   1.257
28878SOL    HW288532  12.984   9.072   1.270
28879SOL     OW88533  14.468  14.249  12.032
28879SOL    HW188534  14.446  14.329  12.081
28879SOL    HW288535  14.385  14.223  11.992
28880SOL     OW88536   3.656   7.782   8.814
28880SOL    HW188537   3.678   7.708   8.871
28880SOL    HW288538   3.669   7.859   8.869
28881SOL     OW88539  10.748   3.487   8.216
28881SOL    HW188540  10.734   3.578   8.192
28881SOL    HW288541  10.747   3.487   8.312
28882SOL     OW88542  13.247  11.993  10.639
28882SOL    HW188543  13.214  11.910  10.604
28882SOL    HW288544  13.281  11.970  10.726
28883SOL     OW88545   9.308  11.755   0.288
28883SOL    HW188546   9.342  11.757   0.377
28883SOL    HW288547   9.357  11.824   0.242
28884SOL     OW88548   8.796  12.791   4.172
28884SOL    HW188549   8.815  12.785   4.078
28884SOL    HW288550   8.751  12.709   4.192
28885SOL     OW88551   2.238  12.227   1.915
28885SOL    HW188552   2.170  12.274   1.962
28885SOL    HW288553   2.235  12.263   1.826
28886SOL     OW88554  11.882   8.741   9.338
28886SOL    HW188555  11.951   8.807   9.340
28886SOL    HW288556  11.808   8.785   9.297
28887SOL     OW88557  11.523   1.386  13.129
28887SOL    HW188558  11.613   1.389  13.096
28887SOL    HW288559  11.531   1.411  13.221
28888SOL     OW88560   5.546  13.808  10.683
28888SOL    HW188561   5.575  13.859  10.608
28888SOL    HW288562   5.595  13.726  10.677
28889SOL     OW88563   9.499   3.009   3.032
28889SOL    HW188564   9.525   2.922   3.000
28889SOL    HW288565   9.567   3.067   2.998
28890SOL     OW88566   6.542   6.844  10.424
28890SOL    HW188567   6.629   6.824  10.391
28890SOL    HW288568   6.526   6.934  10.396
28891SOL     OW88569  13.462  10.009  11.861
28891SOL    HW188570  13.441  10.056  11.942
28891SOL    HW288571  13.505   9.929  11.890
28892SOL     OW88572   4.620  11.794  13.088
28892SOL    HW188573   4.592  11.754  13.170
28892SOL    HW288574   4.638  11.886  13.110
28893SOL     OW88575   7.726   5.275  14.590
28893SOL    HW188576   7.659   5.292  14.523
28893SOL    HW288577   7.744   5.361  14.628
28894SOL     OW88578   2.561  11.885  11.728
28894SOL    HW188579   2.588  11.793  11.738
28894SOL    HW288580   2.475  11.880  11.686
28895SOL     OW88581   6.542   7.653   4.686
28895SOL    HW188582   6.550   7.573   4.634
28895SOL    HW288583   6.511   7.623   4.771
28896SOL     OW88584   5.657   8.307   0.906
28896SOL    HW188585   5.699   8.390   0.930
28896SOL    HW288586   5.571   8.310   0.949
28897SOL     OW88587  11.377   5.300   8.494
28897SOL    HW188588  11.290   5.328   8.521
28897SOL    HW288589  11.426   5.291   8.575
28898SOL     OW88590   3.581   8.171   1.830
28898SOL    HW188591   3.564   8.082   1.798
28898SOL    HW288592   3.512   8.224   1.790
28899SOL     OW88593  14.601  11.137   1.119
28899SOL    HW188594  14.649  11.213   1.086
28899SOL    HW288595  14.653  11.062   1.090
28900SOL     OW88596   3.781   0.348   1.352
28900SOL    HW188597   3.816   0.421   1.299
28900SOL    HW288598   3.787   0.379   1.442
28901SOL     OW88599   3.122   8.640  10.128
28901SOL    HW188600   3.137   8.547  10.147
28901SOL    HW288601   3.030   8.654  10.146
28902SOL     OW88602   7.754   5.496  10.720
28902SOL    HW188603   7.782   5.557  10.788
28902SOL    HW288604   7.663   5.520  10.703
28903SOL     OW88605   8.309  12.490   3.373
28903SOL    HW188606   8.223  12.504   3.413
28903SOL    HW288607   8.322  12.395   3.375
28904SOL     OW88608   2.101  11.573  12.156
28904SOL    HW188609   2.174  11.634  12.146
28904SOL    HW288610   2.127  11.516  12.228
28905SOL     OW88611  13.150   5.278   0.613
28905SOL    HW188612  13.236   5.302   0.647
28905SOL    HW288613  13.145   5.321   0.528
28906SOL     OW88614   5.952  11.570  12.143
28906SOL    HW188615   5.926  11.486  12.182
28906SOL    HW288616   6.047  11.567  12.141
28907SOL     OW88617   7.136   7.316   4.935
28907SOL    HW188618   7.184   7.399   4.936
28907SOL    HW288619   7.131   7.291   5.027
28908SOL     OW88620   5.367   1.955   0.620
28908SOL    HW188621   5.382   1.902   0.542
28908SOL    HW288622   5.452   1.996   0.638
28909SOL     OW88623   8.536   0.711  11.575
28909SOL    HW188624   8.565   0.635  11.526
28909SOL    HW288625   8.563   0.694  11.665
28910SOL     OW88626   0.100  13.278   7.571
28910SOL    HW188627   0.178  13.222   7.574
28910SOL    HW288628   0.131  13.361   7.536
28911SOL     OW88629   2.449   8.971   1.957
28911SOL    HW188630   2.432   9.066   1.962
28911SOL    HW288631   2.417   8.946   1.871
28912SOL     OW88632  12.002  13.266   3.521
28912SOL    HW188633  11.920  13.314   3.513
28912SOL    HW288634  12.015  13.256   3.615
28913SOL     OW88635   5.436   9.108  14.416
28913SOL    HW188636   5.460   9.057  14.338
28913SOL    HW288637   5.399   9.044  14.476
28914SOL     OW88638  12.234   7.413  13.790
28914SOL    HW188639  12.246   7.502  13.754
28914SOL    HW288640  12.289   7.412  13.869
28915SOL     OW88641   5.093   3.946   0.219
28915SOL    HW188642   5.134   3.945   0.305
28915SOL    HW288643   5.078   4.039   0.200
28916SOL     OW88644  14.523   2.288  14.589
28916SOL    HW188645  14.607   2.322  14.560
28916SOL    HW288646  14.529   2.288  14.685
28917SOL     OW88647   9.544  13.398   8.535
28917SOL    HW188648   9.546  13.310   8.571
28917SOL    HW288649   9.631  13.433   8.551
28918SOL     OW88650   6.515  11.823   4.772
28918SOL    HW188651   6.462  11.899   4.746
28918SOL    HW288652   6.453  11.765   4.815
28919SOL     OW88653   0.965   3.236   7.323
28919SOL    HW188654   0.927   3.150   7.307
28919SOL    HW288655   1.054   3.217   7.353
28920SOL     OW88656   0.138  12.885   6.604
28920SOL    HW188657   0.218  12.893   6.657
28920SOL    HW288658   0.088  12.963   6.626
28921SOL     OW88659   6.837  14.313   7.862
28921SOL    HW188660   6.825  14.314   7.767
28921SOL    HW288661   6.806  14.226   7.889
28922SOL     OW88662   4.534  11.580   3.767
28922SOL    HW188663   4.507  11.499   3.811
28922SOL    HW288664   4.486  11.649   3.813
28923SOL     OW88665   0.271   8.543   4.969
28923SOL    HW188666   0.286   8.518   4.878
28923SOL    HW288667   0.351   8.588   4.995
28924SOL     OW88668   6.620   8.370   0.075
28924SOL    HW188669   6.690   8.322   0.119
28924SOL    HW288670   6.542   8.316   0.090
28925SOL     OW88671   2.125   9.394   0.821
28925SOL    HW188672   2.206   9.404   0.770
28925SOL    HW288673   2.151   9.409   0.911
28926SOL     OW88674   1.035   7.692   9.872
28926SOL    HW188675   0.984   7.729   9.944
28926SOL    HW288676   1.124   7.685   9.907
28927SOL     OW88677  14.832   3.018  14.098
28927SOL    HW188678  14.738   3.025  14.118
28927SOL    HW288679  14.837   3.026  14.003
28928SOL     OW88680  13.978   8.131   6.112
28928SOL    HW188681  14.057   8.158   6.064
28928SOL    HW288682  13.964   8.202   6.175
28929SOL     OW88683   5.693   5.331   7.009
28929SOL    HW188684   5.641   5.323   6.929
28929SOL    HW288685   5.777   5.293   6.986
28930SOL     OW88686   0.509   5.932  13.536
28930SOL    HW188687   0.547   6.016  13.560
28930SOL    HW288688   0.515   5.879  13.616
28931SOL     OW88689   3.388   0.028   5.899
28931SOL    HW188690   3.480   0.010   5.877
28931SOL    HW288691   3.373   0.116   5.865
28932SOL     OW88692   8.734  11.487  10.284
28932SOL    HW188693   8.695  11.452  10.204
28932SOL    HW288694   8.663  11.534  10.327
28933SOL     OW88695  11.004  11.610   8.231
28933SOL    HW188696  11.069  11.545   8.257
28933SOL    HW288697  11.010  11.614   8.135
28934SOL     OW88698   4.648   6.052   6.409
28934SOL    HW188699   4.574   6.062   6.350
28934SOL    HW288700   4.615   5.995   6.479
28935SOL     OW88701   3.174  13.517  11.446
28935SOL    HW188702   3.183  13.561  11.530
28935SOL    HW288703   3.166  13.588  11.382
28936SOL     OW88704   6.910  12.068   3.416
28936SOL    HW188705   7.004  12.085   3.419
28936SOL    HW288706   6.891  12.022   3.498
28937SOL     OW88707   1.127  12.639   5.154
28937SOL    HW188708   1.156  12.723   5.191
28937SOL    HW288709   1.182  12.626   5.077
28938SOL     OW88710   8.110  11.998  14.232
28938SOL    HW188711   8.050  12.072  14.235
28938SOL    HW288712   8.195  12.036  14.213
28939SOL     OW88713  11.528   4.903   3.875
28939SOL    HW188714  11.484   4.849   3.809
28939SOL    HW288715  11.565   4.976   3.826
28940SOL     OW88716   6.794   5.054  13.860
28940SOL    HW188717   6.832   5.038  13.774
28940SOL    HW288718   6.809   4.972  13.908
28941SOL     OW88719   6.683   6.389  10.072
28941SOL    HW188720   6.683   6.332   9.995
28941SOL    HW288721   6.591   6.411  10.086
28942SOL     OW88722   3.495  12.974   3.051
28942SOL    HW188723   3.560  13.014   2.994
28942SOL    HW288724   3.456  13.048   3.098
28943SOL     OW88725   3.217  13.872   0.116
28943SOL    HW188726   3.256  13.844   0.198
28943SOL    HW288727   3.276  13.941   0.084
28944SOL     OW88728   5.149   2.440   8.803
28944SOL    HW188729   5.120   2.506   8.865
28944SOL    HW288730   5.243   2.455   8.794
28945SOL     OW88731   0.024   3.784  14.409
28945SOL    HW188732  14.821   3.749  14.381
28945SOL    HW288733   0.046   3.849  14.342
28946SOL     OW88734  12.327  13.047  10.831
28946SOL    HW188735  12.364  12.981  10.890
28946SOL    HW288736  12.377  13.127  10.850
28947SOL     OW88737   0.054  12.972  12.615
28947SOL    HW188738   0.082  12.986  12.524
28947SOL    HW288739   0.089  12.886  12.637
28948SOL     OW88740   3.318  14.360   7.215
28948SOL    HW188741   3.337  14.420   7.286
28948SOL    HW288742   3.303  14.416   7.139
28949SOL     OW88743  12.663   6.013  10.061
28949SOL    HW188744  12.727   6.041   9.996
28949SOL    HW288745  12.641   5.923  10.037
28950SOL     OW88746   8.366   4.449   7.006
28950SOL    HW188747   8.314   4.385   6.957
28950SOL    HW288748   8.396   4.511   6.940
28951SOL     OW88749   5.714  12.048   1.079
28951SOL    HW188750   5.645  12.065   1.143
28951SOL    HW288751   5.766  12.129   1.079
28952SOL     OW88752   2.681   6.110   9.378
28952SOL    HW188753   2.776   6.118   9.379
28952SOL    HW288754   2.660   6.073   9.293
28953SOL     OW88755   4.430   4.702   8.886
28953SOL    HW188756   4.440   4.793   8.914
28953SOL    HW288757   4.506   4.657   8.923
28954SOL     OW88758  12.756   2.228   5.632
28954SOL    HW188759  12.764   2.168   5.706
28954SOL    HW288760  12.682   2.284   5.654
28955SOL     OW88761  14.869   9.241   0.736
28955SOL    HW188762   0.066   9.191   0.720
28955SOL    HW288763  14.864   9.301   0.661
28956SOL     OW88764   8.772   8.162  10.576
28956SOL    HW188765   8.734   8.227  10.635
28956SOL    HW288766   8.739   8.187  10.489
28957SOL     OW88767   8.618   4.093  12.692
28957SOL    HW188768   8.701   4.062  12.726
28957SOL    HW288769   8.576   4.016  12.654
28958SOL     OW88770   5.726  10.426  12.913
28958SOL    HW188771   5.660  10.429  12.844
28958SOL    HW288772   5.697  10.492  12.977
28959SOL     OW88773  14.227   6.203   7.993
28959SOL    HW188774  14.214   6.199   8.088
28959SOL    HW288775  14.139   6.204   7.956
28960SOL     OW88776   1.254   1.777   6.723
28960SOL    HW188777   1.223   1.865   6.743
28960SOL    HW288778   1.347   1.778   6.742
28961SOL     OW88779   7.515   8.300   8.556
28961SOL    HW188780   7.511   8.332   8.646
28961SOL    HW288781   7.423   8.287   8.532
28962SOL     OW88782   8.590  12.469   5.351
28962SOL    HW188783   8.594  12.497   5.442
28962SOL    HW288784   8.518  12.520   5.313
28963SOL     OW88785   2.092   3.762   7.180
28963SOL    HW188786   2.077   3.673   7.212
28963SOL    HW288787   2.091   3.753   7.084
28964SOL     OW88788   8.221   5.542  11.499
28964SOL    HW188789   8.169   5.606  11.451
28964SOL    HW288790   8.166   5.517  11.573
28965SOL     OW88791  11.965   6.106   0.866
28965SOL    HW188792  11.875   6.078   0.854
28965SOL    HW288793  11.961   6.202   0.870
28966SOL     OW88794   5.289   7.461   3.709
28966SOL    HW188795   5.271   7.521   3.781
28966SOL    HW288796   5.271   7.513   3.630
28967SOL     OW88797   0.619   0.153   2.867
28967SOL    HW188798   0.641   0.066   2.900
28967SOL    HW288799   0.669   0.160   2.785
28968SOL     OW88800   5.465   2.414   0.180
28968SOL    HW188801   5.511   2.342   0.224
28968SOL    HW288802   5.381   2.377   0.154
28969SOL     OW88803   8.019   8.643   7.358
28969SOL    HW188804   7.948   8.598   7.312
28969SOL    HW288805   8.029   8.726   7.310
28970SOL     OW88806  12.920  10.715   4.535
28970SOL    HW188807  12.933  10.810   4.523
28970SOL    HW288808  12.963  10.696   4.618
28971SOL     OW88809   9.252   6.316   8.608
28971SOL    HW188810   9.323   6.275   8.558
28971SOL    HW288811   9.274   6.298   8.699
28972SOL     OW88812   3.347   5.503  12.764
28972SOL    HW188813   3.317   5.576  12.711
28972SOL    HW288814   3.268   5.454  12.786
28973SOL     OW88815  12.756   6.438  12.826
28973SOL    HW188816  12.829   6.485  12.866
28973SOL    HW288817  12.760   6.351  12.866
28974SOL     OW88818   4.321  10.681   7.296
28974SOL    HW188819   4.364  10.749   7.348
28974SOL    HW288820   4.369  10.681   7.213
28975SOL     OW88821   7.376   0.474  14.225
28975SOL    HW188822   7.321   0.420  14.169
28975SOL    HW288823   7.380   0.426  14.308
28976SOL     OW88824  11.006   8.978   8.744
28976SOL    HW188825  10.956   8.911   8.696
28976SOL    HW288826  11.036   9.038   8.676
28977SOL     OW88827   0.538   0.850  14.022
28977SOL    HW188828   0.535   0.908  13.946
28977SOL    HW288829   0.519   0.763  13.987
28978SOL     OW88830   7.787   8.956   1.607
28978SOL    HW188831   7.786   8.973   1.701
28978SOL    HW288832   7.838   8.875   1.598
28979SOL     OW88833   9.101   4.891   9.470
28979SOL    HW188834   9.039   4.841   9.523
28979SOL    HW288835   9.176   4.904   9.527
28980SOL     OW88836  10.496  13.659   6.368
28980SOL    HW188837  10.405  13.632   6.378
28980SOL    HW288838  10.534  13.647   6.455
28981SOL     OW88839   3.033  10.463  12.618
28981SOL    HW188840   3.000  10.448  12.530
28981SOL    HW288841   3.109  10.520  12.607
28982SOL     OW88842   0.325   6.185  12.847
28982SOL    HW188843   0.326   6.125  12.773
28982SOL    HW288844   0.244   6.235  12.836
28983SOL     OW88845  14.463   9.428   8.629
28983SOL    HW188846  14.554   9.418   8.658
28983SOL    HW288847  14.456   9.371   8.552
28984SOL     OW88848  12.530   3.024   4.215
28984SOL    HW188849  12.614   3.025   4.262
28984SOL    HW288850  12.466   3.001   4.282
28985SOL     OW88851   9.775   7.063   2.009
28985SOL    HW188852   9.769   7.060   2.105
28985SOL    HW288853   9.734   7.147   1.986
28986SOL     OW88854   9.541   1.868   9.645
28986SOL    HW188855   9.613   1.806   9.647
28986SOL    HW288856   9.463   1.814   9.631
28987SOL     OW88857   3.558   0.032  12.169
28987SOL    HW188858   3.481   0.038  12.112
28987SOL    HW288859   3.526  14.875  12.249
28988SOL     OW88860   3.490  13.085  12.748
28988SOL    HW188861   3.514  13.161  12.694
28988SOL    HW288862   3.422  13.118  12.807
28989SOL     OW88863  11.229   6.771   7.261
28989SOL    HW188864  11.312   6.744   7.221
28989SOL    HW288865  11.251   6.853   7.306
28990SOL     OW88866  12.490  10.003  10.410
28990SOL    HW188867  12.486   9.987  10.504
28990SOL    HW288868  12.581   9.983  10.387
28991SOL     OW88869   4.436   1.124   0.044
28991SOL    HW188870   4.517   1.073   0.052
28991SOL    HW288871   4.401   1.100  14.840
28992SOL     OW88872   7.679  10.953   7.845
28992SOL    HW188873   7.656  10.872   7.889
28992SOL    HW288874   7.603  11.010   7.857
28993SOL     OW88875  10.213   9.823   6.931
28993SOL    HW188876  10.163   9.888   6.881
28993SOL    HW288877  10.275   9.876   6.982
28994SOL     OW88878   4.174   8.071  12.863
28994SOL    HW188879   4.120   7.995  12.842
28994SOL    HW288880   4.114   8.132  12.906
28995SOL     OW88881   5.226   2.160  12.946
28995SOL    HW188882   5.167   2.114  13.007
28995SOL    HW288883   5.169   2.222  12.901
28996SOL     OW88884   5.127  10.422  10.484
28996SOL    HW188885   5.113  10.335  10.448
28996SOL    HW288886   5.172  10.470  10.414
28997SOL     OW88887   7.088   8.969  10.187
28997SOL    HW188888   7.071   8.896  10.127
28997SOL    HW288889   7.002   8.994  10.219
28998SOL     OW88890   5.858   2.647  10.577
28998SOL    HW188891   5.929   2.711  10.582
28998SOL    HW288892   5.827   2.639  10.667
28999SOL     OW88893   5.338   5.812   0.419
28999SOL    HW188894   5.371   5.733   0.375
28999SOL    HW288895   5.314   5.871   0.348
29000SOL     OW88896   9.333   3.028   4.852
29000SOL    HW188897   9.251   3.063   4.818
29000SOL    HW288898   9.378   2.992   4.775
29001SOL     OW88899  12.101   8.028   9.185
29001SOL    HW188900  12.016   8.002   9.219
29001SOL    HW288901  12.101   7.997   9.094
29002SOL     OW88902   2.823  11.541   1.731
29002SOL    HW188903   2.735  11.579   1.726
29002SOL    HW288904   2.881  11.611   1.701
29003SOL     OW88905   9.124  10.199   9.042
29003SOL    HW188906   9.098  10.153   9.121
29003SOL    HW288907   9.215  10.226   9.058
29004SOL     OW88908   7.176  10.344   7.173
29004SOL    HW188909   7.219  10.398   7.108
29004SOL    HW288910   7.084  10.339   7.144
29005SOL     OW88911  14.081  11.860  12.137
29005SOL    HW188912  14.162  11.827  12.176
29005SOL    HW288913  14.070  11.948  12.174
29006SOL     OW88914   4.661  11.418   7.604
29006SOL    HW188915   4.695  11.470   7.531
29006SOL    HW288916   4.574  11.455   7.621
29007SOL     OW88917  14.623  12.751  14.845
29007SOL    HW188918  14.633  12.830  14.792
29007SOL    HW288919  14.557  12.699  14.799
29008SOL     OW88920  12.955   8.292   1.099
29008SOL    HW188921  12.863   8.307   1.121
29008SOL    HW288922  12.990   8.379   1.080
29009SOL     OW88923  12.261  12.322   5.045
29009SOL    HW188924  12.255  12.336   4.950
29009SOL    HW288925  12.283  12.230   5.055
29010SOL     OW88926   8.582  11.904  10.073
29010SOL    HW188927   8.677  11.911  10.067
29010SOL    HW288928   8.550  11.987  10.040
29011SOL     OW88929  11.038   1.640   4.962
29011SOL    HW188930  11.026   1.556   4.920
29011SOL    HW288931  11.020   1.705   4.894
29012SOL     OW88932   2.852   8.864   7.229
29012SOL    HW188933   2.812   8.949   7.248
29012SOL    HW288934   2.872   8.826   7.314
29013SOL     OW88935   8.530   2.191   4.484
29013SOL    HW188936   8.608   2.221   4.529
29013SOL    HW288937   8.552   2.103   4.454
29014SOL     OW88938   7.353   7.218   3.901
29014SOL    HW188939   7.343   7.155   3.829
29014SOL    HW288940   7.444   7.206   3.930
29015SOL     OW88941   8.808   3.795   8.818
29015SOL    HW188942   8.790   3.875   8.867
29015SOL    HW288943   8.843   3.734   8.882
29016SOL     OW88944   9.216   4.007   0.120
29016SOL    HW188945   9.290   3.955   0.089
29016SOL    HW288946   9.223   4.089   0.071
29017SOL     OW88947  11.434   2.083   5.680
29017SOL    HW188948  11.473   2.062   5.595
29017SOL    HW288949  11.495   2.144   5.721
29018SOL     OW88950   3.898  13.162   9.093
29018SOL    HW188951   3.840  13.115   9.034
29018SOL    HW288952   3.896  13.111   9.174
29019SOL     OW88953  12.667   1.678  10.017
29019SOL    HW188954  12.713   1.744  10.069
29019SOL    HW288955  12.713   1.677   9.934
29020SOL     OW88956   2.353   7.445  10.751
29020SOL    HW188957   2.284   7.483  10.806
29020SOL    HW288958   2.307   7.420  10.670
29021SOL     OW88959   5.914   2.719   2.997
29021SOL    HW188960   5.859   2.645   2.971
29021SOL    HW288961   6.003   2.685   2.996
29022SOL     OW88962   4.381   4.768  12.820
29022SOL    HW188963   4.446   4.710  12.781
29022SOL    HW288964   4.409   4.857  12.796
29023SOL     OW88965   0.822  13.505   5.116
29023SOL    HW188966   0.870  13.423   5.127
29023SOL    HW288967   0.773  13.492   5.034
29024SOL     OW88968   0.076  11.772  12.616
29024SOL    HW188969   0.153  11.742  12.665
29024SOL    HW288970   0.020  11.695  12.610
29025SOL     OW88971  14.680  13.835  10.844
29025SOL    HW188972  14.769  13.809  10.824
29025SOL    HW288973  14.687  13.926  10.873
29026SOL     OW88974  10.889   7.264   7.056
29026SOL    HW188975  10.856   7.273   7.145
29026SOL    HW288976  10.901   7.354   7.026
29027SOL     OW88977  11.395  11.649   1.457
29027SOL    HW188978  11.423  11.692   1.538
29027SOL    HW288979  11.324  11.592   1.483
29028SOL     OW88980   5.037   5.077  13.281
29028SOL    HW188981   5.126   5.064  13.246
29028SOL    HW288982   5.008   5.159  13.242
29029SOL     OW88983   6.524  11.110   1.061
29029SOL    HW188984   6.570  11.186   1.096
29029SOL    HW288985   6.559  11.099   0.972
29030SOL     OW88986   2.299   0.454   7.410
29030SOL    HW188987   2.304   0.361   7.432
29030SOL    HW288988   2.221   0.462   7.356
29031SOL     OW88989  13.100  11.192   6.138
29031SOL    HW188990  13.026  11.252   6.146
29031SOL    HW288991  13.152  11.227   6.066
29032SOL     OW88992   3.759   7.958  13.461
29032SOL    HW188993   3.832   7.922  13.512
29032SOL    HW288994   3.747   8.047  13.495
29033SOL     OW88995   4.616   0.835   1.198
29033SOL    HW188996   4.662   0.833   1.114
29033SOL    HW288997   4.604   0.929   1.216
29034SOL     OW88998  10.607  11.492  14.714
29034SOL    HW188999  10.621  11.562  14.650
29034SOL    HW289000  10.695  11.461  14.736
29035SOL     OW89001   9.435   8.897   7.606
29035SOL    HW189002   9.355   8.848   7.588
29035SOL    HW289003   9.501   8.856   7.550
29036SOL     OW89004  14.476  14.329   9.068
29036SOL    HW189005  14.566  14.298   9.070
29036SOL    HW289006  14.444  14.305   8.980
29037SOL     OW89007   2.118   0.111  13.271
29037SOL    HW189008   2.026   0.087  13.285
29037SOL    HW289009   2.162   0.087  13.352
29038SOL     OW89010  11.761   6.121  10.812
29038SOL    HW189011  11.806   6.109  10.728
29038SOL    HW289012  11.741   6.215  10.815
29039SOL     OW89013   1.394  13.228  12.565
29039SOL    HW189014   1.473  13.217  12.617
29039SOL    HW289015   1.426  13.246  12.476
29040SOL     OW89016   1.845   9.959   0.066
29040SOL    HW189017   1.779   9.890   0.051
29040SOL    HW289018   1.918   9.934   0.009
29041SOL     OW89019  12.129   1.410   0.947
29041SOL    HW189020  12.098   1.325   0.977
29041SOL    HW289021  12.067   1.473   0.983
29042SOL     OW89022   4.324  12.316  13.349
29042SOL    HW189023   4.410  12.276  13.360
29042SOL    HW289024   4.262  12.248  13.378
29043SOL     OW89025  14.194   0.393   5.482
29043SOL    HW189026  14.245   0.437   5.415
29043SOL    HW289027  14.103   0.420   5.465
29044SOL     OW89028   4.740  13.952   2.128
29044SOL    HW189029   4.679  13.897   2.077
29044SOL    HW289030   4.699  14.038   2.128
29045SOL     OW89031   6.034  10.811  11.956
29045SOL    HW189032   5.993  10.896  11.975
29045SOL    HW289033   6.031  10.803  11.861
29046SOL     OW89034  13.858  12.114   9.390
29046SOL    HW189035  13.844  12.020   9.375
29046SOL    HW289036  13.772  12.153   9.374
29047SOL     OW89037  13.463   3.803   8.914
29047SOL    HW189038  13.458   3.881   8.859
29047SOL    HW289039  13.443   3.730   8.855
29048SOL     OW89040   0.972  14.324  13.694
29048SOL    HW189041   1.006  14.268  13.763
29048SOL    HW289042   1.031  14.309  13.620
29049SOL     OW89043   7.745  12.800   7.436
29049SOL    HW189044   7.682  12.759   7.377
29049SOL    HW289045   7.699  12.876   7.472
29050SOL     OW89046   7.572   5.483   5.986
29050SOL    HW189047   7.517   5.418   5.941
29050SOL    HW289048   7.512   5.527   6.046
29051SOL     OW89049  12.947  10.235   2.499
29051SOL    HW189050  13.024  10.205   2.548
29051SOL    HW289051  12.983  10.285   2.425
29052SOL     OW89052   5.039   4.288   2.115
29052SOL    HW189053   4.959   4.300   2.063
29052SOL    HW289054   5.033   4.198   2.148
29053SOL     OW89055  14.431  12.578   0.681
29053SOL    HW189056  14.506  12.556   0.626
29053SOL    HW289057  14.446  12.529   0.762
29054SOL     OW89058   4.599  14.790   6.454
29054SOL    HW189059   4.605  14.737   6.534
29054SOL    HW289060   4.516  14.836   6.463
29055SOL     OW89061   3.427  11.842   2.464
29055SOL    HW189062   3.366  11.770   2.450
29055SOL    HW289063   3.467  11.857   2.379
29056SOL     OW89064   5.518   9.402  11.075
29056SOL    HW189065   5.548   9.447  11.154
29056SOL    HW289066   5.598   9.372  11.032
29057SOL     OW89067  14.019   0.355   2.115
29057SOL    HW189068  14.099   0.354   2.168
29057SOL    HW289069  13.950   0.330   2.175
29058SOL     OW89070   9.174   7.398   6.719
29058SOL    HW189071   9.255   7.446   6.733
29058SOL    HW289072   9.155   7.410   6.626
29059SOL     OW89073   5.038   6.877   5.812
29059SOL    HW189074   5.072   6.858   5.724
29059SOL    HW289075   5.047   6.794   5.859
29060SOL     OW89076  13.790   2.968   9.989
29060SOL    HW189077  13.773   2.899  10.053
29060SOL    HW289078  13.878   2.948   9.956
29061SOL     OW89079   2.544  12.349   8.118
29061SOL    HW189080   2.616  12.356   8.056
29061SOL    HW289081   2.570  12.404   8.192
29062SOL     OW89082   2.414  14.525   7.055
29062SOL    HW189083   2.488  14.536   6.996
29062SOL    HW289084   2.348  14.587   7.024
29063SOL     OW89085   3.024   0.548   8.665
29063SOL    HW189086   2.988   0.472   8.619
29063SOL    HW289087   3.117   0.547   8.643
29064SOL     OW89088   3.441   2.617   5.612
29064SOL    HW189089   3.441   2.564   5.692
29064SOL    HW289090   3.531   2.648   5.603
29065SOL     OW89091   1.155  12.658   4.621
29065SOL    HW189092   1.071  12.661   4.666
29065SOL    HW289093   1.186  12.749   4.622
29066SOL     OW89094   5.368   3.449   5.532
29066SOL    HW189095   5.291   3.398   5.557
29066SOL    HW289096   5.414   3.465   5.614
29067SOL     OW89097  14.134   2.354   0.503
29067SOL    HW189098  14.044   2.367   0.471
29067SOL    HW289099  14.125   2.288   0.572
29068SOL     OW89100   6.556   3.041   7.878
29068SOL    HW189101   6.597   3.012   7.960
29068SOL    HW289102   6.501   2.967   7.851
29069SOL     OW89103   7.140  10.478  12.219
29069SOL    HW189104   7.220  10.430  12.195
29069SOL    HW289105   7.144  10.483  12.314
29070SOL     OW89106  10.405   9.304   7.162
29070SOL    HW189107  10.383   9.213   7.142
29070SOL    HW289108  10.360   9.322   7.244
29071SOL     OW89109   1.257   7.532   9.065
29071SOL    HW189110   1.165   7.515   9.085
29071SOL    HW289111   1.256   7.614   9.016
29072SOL     OW89112   0.283  13.291   3.443
29072SOL    HW189113   0.258  13.360   3.383
29072SOL    HW289114   0.271  13.329   3.530
29073SOL     OW89115   0.017  12.337   3.147
29073SOL    HW189116   0.008  12.246   3.119
29073SOL    HW289117  14.816  12.358   3.189
29074SOL     OW89118   4.536   4.829   0.418
29074SOL    HW189119   4.603   4.895   0.400
29074SOL    HW289120   4.470   4.876   0.468
29075SOL     OW89121  13.104  13.958   8.544
29075SOL    HW189122  13.085  13.956   8.450
29075SOL    HW289123  13.044  14.024   8.579
29076SOL     OW89124   6.881   7.333   4.842
29076SOL    HW189125   6.870   7.427   4.850
29076SOL    HW289126   6.972   7.317   4.866
29077SOL     OW89127   7.672   4.156   9.219
29077SOL    HW189128   7.692   4.068   9.248
29077SOL    HW289129   7.750   4.184   9.171
29078SOL     OW89130   6.645   2.561   5.536
29078SOL    HW189131   6.613   2.584   5.449
29078SOL    HW289132   6.666   2.645   5.577
29079SOL     OW89133   4.444   5.280   5.332
29079SOL    HW189134   4.524   5.232   5.354
29079SOL    HW289135   4.374   5.216   5.345
29080SOL     OW89136   7.138  10.335   6.770
29080SOL    HW189137   7.205  10.370   6.713
29080SOL    HW289138   7.167  10.355   6.858
29081SOL     OW89139  12.663   4.266   6.562
29081SOL    HW189140  12.652   4.288   6.654
29081SOL    HW289141  12.595   4.201   6.544
29082SOL     OW89142   1.188   1.380   9.125
29082SOL    HW189143   1.150   1.357   9.210
29082SOL    HW289144   1.282   1.363   9.135
29083SOL     OW89145   9.155   3.559   0.007
29083SOL    HW189146   9.146   3.651  14.864
29083SOL    HW289147   9.245   3.536  14.865
29084SOL     OW89148   0.398  13.841   6.906
29084SOL    HW189149   0.419  13.934   6.904
29084SOL    HW289150   0.380  13.822   6.998
29085SOL     OW89151   9.357   0.754   3.267
29085SOL    HW189152   9.309   0.774   3.347
29085SOL    HW289153   9.305   0.684   3.226
29086SOL     OW89154   4.360  11.922  11.845
29086SOL    HW189155   4.299  11.970  11.900
29086SOL    HW289156   4.383  11.844  11.897
29087SOL     OW89157  11.967   3.795   5.697
29087SOL    HW189158  11.976   3.848   5.618
29087SOL    HW289159  12.035   3.728   5.688
29088SOL     OW89160   8.080   3.494   9.544
29088SOL    HW189161   8.071   3.495   9.448
29088SOL    HW289162   8.173   3.511   9.559
29089SOL     OW89163   0.881   2.567   0.543
29089SOL    HW189164   0.961   2.575   0.492
29089SOL    HW289165   0.896   2.492   0.601
29090SOL     OW89166   4.844   6.974  10.542
29090SOL    HW189167   4.886   6.969  10.456
29090SOL    HW289168   4.834   6.883  10.570
29091SOL     OW89169   4.803   8.136  10.077
29091SOL    HW189170   4.868   8.205  10.062
29091SOL    HW289171   4.824   8.102  10.165
29092SOL     OW89172   3.840   7.866   6.650
29092SOL    HW189173   3.863   7.783   6.692
29092SOL    HW289174   3.923   7.899   6.615
29093SOL     OW89175   9.356   8.719  12.707
29093SOL    HW189176   9.314   8.722  12.792
29093SOL    HW289177   9.449   8.702  12.726
29094SOL     OW89178   7.484  14.122   4.298
29094SOL    HW189179   7.444  14.048   4.254
29094SOL    HW289180   7.481  14.193   4.234
29095SOL     OW89181  13.639   4.897  13.133
29095SOL    HW189182  13.592   4.972  13.170
29095SOL    HW289183  13.615   4.897  13.041
29096SOL     OW89184  10.408   0.977   5.334
29096SOL    HW189185  10.361   0.900   5.301
29096SOL    HW289186  10.338   1.037   5.361
29097SOL     OW89187   5.676   5.158   0.617
29097SOL    HW189188   5.705   5.154   0.708
29097SOL    HW289189   5.693   5.249   0.591
29098SOL     OW89190   2.761  14.002   1.735
29098SOL    HW189191   2.838  14.003   1.792
29098SOL    HW289192   2.790  14.045   1.655
29099SOL     OW89193   4.818   4.539  14.857
29099SOL    HW189194   4.729   4.572  14.847
29099SOL    HW289195   4.853   4.585   0.050
29100SOL     OW89196  14.738   6.795   3.505
29100SOL    HW189197  14.714   6.887   3.491
29100SOL    HW289198  14.684   6.747   3.443
29101SOL     OW89199   7.696  13.788   1.525
29101SOL    HW189200   7.625  13.797   1.588
29101SOL    HW289201   7.674  13.851   1.455
29102SOL     OW89202  11.037  10.941  14.484
29102SOL    HW189203  11.001  10.852  14.475
29102SOL    HW289204  11.114  10.930  14.539
29103SOL     OW89205  13.618   7.056   0.780
29103SOL    HW189206  13.664   7.123   0.831
29103SOL    HW289207  13.616   7.090   0.691
29104SOL     OW89208  10.158   1.704   0.417
29104SOL    HW189209  10.180   1.792   0.449
29104SOL    HW289210  10.196   1.644   0.481
29105SOL     OW89211   5.687  11.465  11.038
29105SOL    HW189212   5.676  11.542  11.093
29105SOL    HW289213   5.650  11.490  10.953
29106SOL     OW89214   2.775  12.092   0.564
29106SOL    HW189215   2.726  12.054   0.492
29106SOL    HW289216   2.866  12.069   0.546
29107SOL     OW89217   4.736   5.975   2.678
29107SOL    HW189218   4.781   5.895   2.706
29107SOL    HW289219   4.683   5.948   2.603
29108SOL     OW89220   4.204  11.356  10.163
29108SOL    HW189221   4.267  11.284  10.155
29108SOL    HW289222   4.226  11.397  10.248
29109SOL     OW89223   0.108   8.903   6.578
29109SOL    HW189224   0.135   8.880   6.667
29109SOL    HW289225   0.043   8.836   6.554
29110SOL     OW89226  10.178   7.524  13.522
29110SOL    HW189227  10.120   7.600  13.528
29110SOL    HW289228  10.228   7.538  13.442
29111SOL     OW89229   6.280  10.162  11.245
29111SOL    HW189230   6.214  10.208  11.192
29111SOL    HW289231   6.235  10.140  11.326
29112SOL     OW89232   8.682  11.490  14.786
29112SOL    HW189233   8.601  11.538  14.766
29112SOL    HW289234   8.743  11.518  14.718
29113SOL     OW89235  14.006   1.978   3.938
29113SOL    HW189236  13.940   2.015   3.997
29113SOL    HW289237  14.076   1.948   3.995
29114SOL     OW89238   0.993   6.061   1.358
29114SOL    HW189239   1.084   6.076   1.383
29114SOL    HW289240   0.946   6.054   1.440
29115SOL     OW89241   6.523   8.891   6.297
29115SOL    HW189242   6.561   8.804   6.292
29115SOL    HW289243   6.548   8.923   6.384
29116SOL     OW89244  12.224  12.504   7.308
29116SOL    HW189245  12.309  12.508   7.265
29116SOL    HW289246  12.186  12.421   7.279
29117SOL     OW89247   0.141   6.285   3.034
29117SOL    HW189248   0.120   6.207   3.085
29117SOL    HW289249   0.232   6.305   3.058
29118SOL     OW89250   7.201  10.383   0.845
29118SOL    HW189251   7.168  10.300   0.811
29118SOL    HW289252   7.292  10.366   0.868
29119SOL     OW89253   6.106   4.257   2.105
29119SOL    HW189254   6.033   4.275   2.045
29119SOL    HW289255   6.081   4.297   2.188
29120SOL     OW89256   2.445  13.746   1.662
29120SOL    HW189257   2.393  13.818   1.697
29120SOL    HW289258   2.463  13.690   1.737
29121SOL     OW89259   4.894  10.316  10.220
29121SOL    HW189260   4.822  10.253  10.213
29121SOL    HW289261   4.939  10.292  10.300
29122SOL     OW89262   3.558  12.142   2.271
29122SOL    HW189263   3.474  12.098   2.285
29122SOL    HW289264   3.576  12.130   2.177
29123SOL     OW89265  13.786   5.464   5.058
29123SOL    HW189266  13.750   5.484   4.971
29123SOL    HW289267  13.856   5.528   5.070
29124SOL     OW89268  12.540  12.882   7.289
29124SOL    HW189269  12.615  12.885   7.231
29124SOL    HW289270  12.477  12.943   7.251
29125SOL     OW89271  14.455   1.469   4.814
29125SOL    HW189272  14.467   1.395   4.874
29125SOL    HW289273  14.410   1.432   4.738
29126SOL     OW89274   2.482   0.587  11.001
29126SOL    HW189275   2.401   0.537  10.991
29126SOL    HW289276   2.551   0.522  10.994
29127SOL     OW89277  10.218   7.156   6.279
29127SOL    HW189278  10.189   7.128   6.367
29127SOL    HW289279  10.136   7.166   6.230
29128SOL     OW89280  14.544  10.014   7.337
29128SOL    HW189281  14.476   9.981   7.395
29128SOL    HW289282  14.603  10.063   7.394
29129SOL     OW89283   7.458   1.529  11.705
29129SOL    HW189284   7.520   1.570  11.644
29129SOL    HW289285   7.388   1.495  11.649
29130SOL     OW89286  13.499  11.771  10.495
29130SOL    HW189287  13.457  11.856  10.511
29130SOL    HW289288  13.426  11.712  10.476
29131SOL     OW89289   7.708  12.227  14.015
29131SOL    HW189290   7.699  12.185  14.101
29131SOL    HW289291   7.772  12.297  14.029
29132SOL     OW89292   5.597  14.558   6.132
29132SOL    HW189293   5.510  14.530   6.160
29132SOL    HW289294   5.580  14.627   6.068
29133SOL     OW89295  10.062   8.539   3.796
29133SOL    HW189296  10.034   8.448   3.795
29133SOL    HW289297   9.995   8.583   3.848
29134SOL     OW89298  13.103   6.429  11.749
29134SOL    HW189299  13.145   6.452  11.666
29134SOL    HW289300  13.137   6.343  11.770
29135SOL     OW89301   4.582   3.399  14.470
29135SOL    HW189302   4.552   3.470  14.527
29135SOL    HW289303   4.601   3.327  14.530
29136SOL     OW89304  13.112   1.792   2.484
29136SOL    HW189305  13.102   1.759   2.574
29136SOL    HW289306  13.029   1.836   2.465
29137SOL     OW89307  12.098  13.159   2.521
29137SOL    HW189308  12.174  13.109   2.551
29137SOL    HW289309  12.131  13.207   2.445
29138SOL     OW89310   0.922   7.244   6.117
29138SOL    HW189311   0.845   7.243   6.174
29138SOL    HW289312   0.970   7.323   6.143
29139SOL     OW89313   0.167  12.189   3.464
29139SOL    HW189314   0.128  12.258   3.519
29139SOL    HW289315   0.252  12.172   3.505
29140SOL     OW89316   3.486  12.441   1.595
29140SOL    HW189317   3.430  12.363   1.595
29140SOL    HW289318   3.479  12.475   1.505
29141SOL     OW89319   7.427   5.207   0.884
29141SOL    HW189320   7.410   5.144   0.814
29141SOL    HW289321   7.369   5.180   0.955
29142SOL     OW89322   2.354   0.499   4.486
29142SOL    HW189323   2.425   0.461   4.434
29142SOL    HW289324   2.275   0.472   4.439
29143SOL     OW89325   5.012   5.629  10.658
29143SOL    HW189326   5.012   5.705  10.601
29143SOL    HW289327   4.936   5.577  10.630
29144SOL     OW89328  13.134   7.072   9.600
29144SOL    HW189329  13.107   7.107   9.515
29144SOL    HW289330  13.204   7.130   9.629
29145SOL     OW89331   9.370   6.682   0.129
29145SOL    HW189332   9.278   6.704   0.145
29145SOL    HW289333   9.372   6.587   0.136
29146SOL     OW89334   1.685   6.833   3.068
29146SOL    HW189335   1.770   6.813   3.029
29146SOL    HW289336   1.677   6.928   3.065
29147SOL     OW89337   2.772  13.725   2.453
29147SOL    HW189338   2.693  13.710   2.400
29147SOL    HW289339   2.738  13.740   2.542
29148SOL     OW89340   1.540   9.185   5.326
29148SOL    HW189341   1.595   9.113   5.298
29148SOL    HW289342   1.473   9.145   5.382
29149SOL     OW89343   4.453   1.138   6.492
29149SOL    HW189344   4.470   1.053   6.533
29149SOL    HW289345   4.361   1.135   6.466
29150SOL     OW89346  13.978  13.622  12.901
29150SOL    HW189347  13.904  13.645  12.957
29150SOL    HW289348  13.965  13.674  12.821
29151SOL     OW89349   4.301   5.608   2.893
29151SOL    HW189350   4.264   5.520   2.902
29151SOL    HW289351   4.300   5.644   2.981
29152SOL     OW89352   4.447   3.508   8.182
29152SOL    HW189353   4.542   3.505   8.189
29152SOL    HW289354   4.420   3.578   8.242
29153SOL     OW89355   8.202   8.556   9.999
29153SOL    HW189356   8.162   8.503   9.931
29153SOL    HW289357   8.157   8.641   9.993
29154SOL     OW89358   9.839   7.160   7.404
29154SOL    HW189359   9.812   7.214   7.330
29154SOL    HW289360   9.932   7.181   7.416
29155SOL     OW89361   9.459   3.163   0.923
29155SOL    HW189362   9.443   3.070   0.937
29155SOL    HW289363   9.396   3.208   0.979
29156SOL     OW89364   7.663  13.548   3.921
29156SOL    HW189365   7.702  13.635   3.925
29156SOL    HW289366   7.577  13.562   3.880
29157SOL     OW89367  11.658  12.390   9.184
29157SOL    HW189368  11.747  12.396   9.218
29157SOL    HW289369  11.610  12.460   9.228
29158SOL     OW89370  14.436  11.900  11.571
29158SOL    HW189371  14.436  11.938  11.484
29158SOL    HW289372  14.351  11.925  11.608
29159SOL     OW89373   2.554   8.461  13.719
29159SOL    HW189374   2.577   8.528  13.783
29159SOL    HW289375   2.525   8.386  13.772
29160SOL     OW89376   2.723  12.157   3.320
29160SOL    HW189377   2.784  12.095   3.282
29160SOL    HW289378   2.760  12.243   3.301
29161SOL     OW89379   4.602   1.286   8.312
29161SOL    HW189380   4.603   1.356   8.377
29161SOL    HW289381   4.590   1.206   8.364
29162SOL     OW89382   4.860   7.553   3.827
29162SOL    HW189383   4.826   7.476   3.781
29162SOL    HW289384   4.791   7.619   3.819
29163SOL     OW89385   5.104   6.841   1.270
29163SOL    HW189386   5.142   6.757   1.244
29163SOL    HW289387   5.089   6.832   1.364
29164SOL     OW89388   6.031  11.425   2.976
29164SOL    HW189389   5.957  11.417   3.037
29164SOL    HW289390   6.034  11.340   2.932
29165SOL     OW89391   0.370   1.391  11.243
29165SOL    HW189392   0.426   1.396  11.166
29165SOL    HW289393   0.420   1.338  11.305
29166SOL     OW89394   3.683   3.653  11.236
29166SOL    HW189395   3.708   3.574  11.285
29166SOL    HW289396   3.655   3.715  11.303
29167SOL     OW89397   9.041   2.233  10.454
29167SOL    HW189398   9.089   2.172  10.509
29167SOL    HW289399   8.952   2.198  10.450
29168SOL     OW89400   8.964   2.332   8.394
29168SOL    HW189401   8.921   2.306   8.476
29168SOL    HW289402   9.040   2.274   8.388
29169SOL     OW89403   9.511  11.311   5.048
29169SOL    HW189404   9.530  11.235   4.993
29169SOL    HW289405   9.454  11.366   4.994
29170SOL     OW89406   8.309   3.452   6.584
29170SOL    HW189407   8.227   3.500   6.576
29170SOL    HW289408   8.287   3.374   6.635
29171SOL     OW89409  12.769   5.086  14.088
29171SOL    HW189410  12.682   5.080  14.128
29171SOL    HW289411  12.794   4.996  14.069
29172SOL     OW89412   5.943   6.023   6.445
29172SOL    HW189413   5.999   6.090   6.483
29172SOL    HW289414   5.866   6.021   6.501
29173SOL     OW89415   7.401  12.327   6.597
29173SOL    HW189416   7.422  12.348   6.688
29173SOL    HW289417   7.471  12.367   6.546
29174SOL     OW89418   4.611  10.761   6.496
29174SOL    HW189419   4.675  10.720   6.439
29174SOL    HW289420   4.542  10.695   6.507
29175SOL     OW89421  10.177   3.209   0.465
29175SOL    HW189422  10.101   3.267   0.477
29175SOL    HW289423  10.227   3.218   0.546
29176SOL     OW89424   4.545   2.149  12.338
29176SOL    HW189425   4.636   2.159  12.310
29176SOL    HW289426   4.551   2.112  12.426
29177SOL     OW89427   8.844  12.169   5.690
29177SOL    HW189428   8.784  12.120   5.634
29177SOL    HW289429   8.831  12.132   5.777
29178SOL     OW89430   4.913   0.514   8.644
29178SOL    HW189431   4.849   0.487   8.710
29178SOL    HW289432   4.926   0.608   8.661
29179SOL     OW89433   4.091   9.007   0.722
29179SOL    HW189434   4.090   9.088   0.671
29179SOL    HW289435   4.178   8.970   0.707
29180SOL     OW89436  14.591   6.675   0.360
29180SOL    HW189437  14.635   6.704   0.439
29180SOL    HW289438  14.508   6.638   0.390
29181SOL     OW89439   7.385  11.314   1.908
29181SOL    HW189440   7.467  11.271   1.935
29181SOL    HW289441   7.317  11.250   1.928
29182SOL     OW89442   2.786   7.623   8.360
29182SOL    HW189443   2.780   7.692   8.295
29182SOL    HW289444   2.869   7.638   8.404
29183SOL     OW89445  10.128   1.770   0.798
29183SOL    HW189446  10.149   1.802   0.710
29183SOL    HW289447  10.032   1.771   0.801
29184SOL     OW89448  10.110  12.381   0.115
29184SOL    HW189449  10.052  12.384   0.039
29184SOL    HW289450  10.198  12.382   0.078
29185SOL     OW89451  10.802   7.286   7.317
29185SOL    HW189452  10.844   7.298   7.402
29185SOL    HW289453  10.720   7.240   7.338
29186SOL     OW89454   1.598   1.561   6.731
29186SOL    HW189455   1.566   1.621   6.664
29186SOL    HW289456   1.674   1.519   6.690
29187SOL     OW89457   2.895  11.109   2.016
29187SOL    HW189458   2.814  11.061   2.036
29187SOL    HW289459   2.965  11.046   2.031
29188SOL     OW89460   7.692   2.414  11.197
29188SOL    HW189461   7.778   2.396  11.158
29188SOL    HW289462   7.630   2.374  11.137
29189SOL     OW89463   5.978   6.429  14.306
29189SOL    HW189464   6.030   6.421  14.226
29189SOL    HW289465   6.030   6.486  14.362
29190SOL     OW89466   4.388  12.510  11.677
29190SOL    HW189467   4.397  12.419  11.703
29190SOL    HW289468   4.305  12.538  11.714
29191SOL     OW89469  10.029   5.088   5.482
29191SOL    HW189470  10.052   5.027   5.552
29191SOL    HW289471  10.113   5.109   5.440
29192SOL     OW89472   6.332  11.179   2.037
29192SOL    HW189473   6.241  11.158   2.058
29192SOL    HW289474   6.338  11.169   1.942
29193SOL     OW89475   3.930  11.537  11.166
29193SOL    HW189476   3.922  11.443  11.182
29193SOL    HW289477   3.887  11.551  11.082
29194SOL     OW89478   6.644   3.541   0.982
29194SOL    HW189479   6.598   3.579   1.057
29194SOL    HW289480   6.575   3.529   0.917
29195SOL     OW89481  11.024   8.923   8.317
29195SOL    HW189482  10.975   8.841   8.312
29195SOL    HW289483  11.062   8.933   8.230
29196SOL     OW89484   6.891  14.223   2.240
29196SOL    HW189485   6.806  14.267   2.242
29196SOL    HW289486   6.938  14.259   2.315
29197SOL     OW89487   6.119   7.760   2.192
29197SOL    HW189488   6.070   7.759   2.110
29197SOL    HW289489   6.057   7.793   2.257
29198SOL     OW89490   2.765  14.837  12.203
29198SOL    HW189491   2.808  14.798  12.279
29198SOL    HW289492   2.673  14.816  12.213
29199SOL     OW89493   3.860   8.944   0.168
29199SOL    HW189494   3.889   8.927   0.257
29199SOL    HW289495   3.860   9.039   0.159
29200SOL     OW89496   0.788   2.982   9.946
29200SOL    HW189497   0.876   2.969   9.983
29200SOL    HW289498   0.747   3.047  10.003
29201SOL     OW89499   5.928   1.687  11.269
29201SOL    HW189500   5.982   1.610  11.284
29201SOL    HW289501   5.914   1.688  11.174
29202SOL     OW89502  11.103   6.176  14.683
29202SOL    HW189503  11.177   6.128  14.720
29202SOL    HW289504  11.114   6.265  14.716
29203SOL     OW89505  12.970   3.182  12.026
29203SOL    HW189506  12.949   3.167  11.934
29203SOL    HW289507  12.909   3.250  12.054
29204SOL     OW89508   5.041   9.014   7.137
29204SOL    HW189509   5.114   8.997   7.078
29204SOL    HW289510   4.992   8.932   7.138
29205SOL     OW89511   9.836  10.640   9.998
29205SOL    HW189512   9.918  10.607  10.035
29205SOL    HW289513   9.796  10.564   9.957
29206SOL     OW89514   0.089  13.940   2.262
29206SOL    HW189515   0.048  13.985   2.336
29206SOL    HW289516   0.173  13.985   2.250
29207SOL     OW89517   3.331   4.955  14.276
29207SOL    HW189518   3.284   4.907  14.207
29207SOL    HW289519   3.347   4.889  14.344
29208SOL     OW89520   6.616  13.326   5.269
29208SOL    HW189521   6.683  13.353   5.206
29208SOL    HW289522   6.648  13.242   5.303
29209SOL     OW89523   0.591   7.826   3.243
29209SOL    HW189524   0.611   7.753   3.301
29209SOL    HW289525   0.498   7.844   3.258
29210SOL     OW89526  13.598   3.009   8.687
29210SOL    HW189527  13.662   2.950   8.726
29210SOL    HW289528  13.648   3.088   8.664
29211SOL     OW89529  12.466   4.396   2.723
29211SOL    HW189530  12.437   4.342   2.797
29211SOL    HW289531  12.407   4.372   2.651
29212SOL     OW89532   0.420   0.164   5.978
29212SOL    HW189533   0.421   0.141   6.071
29212SOL    HW289534   0.396   0.257   5.977
29213SOL     OW89535   7.871   0.745  14.151
29213SOL    HW189536   7.783   0.711  14.135
29213SOL    HW289537   7.919   0.724  14.071
29214SOL     OW89538   2.781   5.276  10.607
29214SOL    HW189539   2.719   5.217  10.564
29214SOL    HW289540   2.734   5.359  10.615
29215SOL     OW89541   0.017   0.628   9.296
29215SOL    HW189542   0.073   0.635   9.219
29215SOL    HW289543   0.074   0.650   9.369
29216SOL     OW89544   3.759  13.252   6.419
29216SOL    HW189545   3.743  13.165   6.457
29216SOL    HW289546   3.827  13.237   6.354
29217SOL     OW89547   4.421   4.308   3.051
29217SOL    HW189548   4.418   4.372   2.980
29217SOL    HW289549   4.501   4.258   3.035
29218SOL     OW89550   7.224   2.413   2.708
29218SOL    HW189551   7.139   2.429   2.668
29218SOL    HW289552   7.252   2.498   2.742
29219SOL     OW89553  10.320  11.472   8.709
29219SOL    HW189554  10.350  11.535   8.775
29219SOL    HW289555  10.230  11.452   8.734
29220SOL     OW89556   2.449   6.295   4.385
29220SOL    HW189557   2.462   6.301   4.290
29220SOL    HW289558   2.374   6.237   4.395
29221SOL     OW89559   9.396   1.665  12.957
29221SOL    HW189560   9.324   1.673  12.894
29221SOL    HW289561   9.474   1.685  12.905
29222SOL     OW89562   9.634  11.094   4.076
29222SOL    HW189563   9.645  11.129   3.987
29222SOL    HW289564   9.598  11.006   4.062
29223SOL     OW89565  14.486   4.708   5.111
29223SOL    HW189566  14.414   4.747   5.162
29223SOL    HW289567  14.519   4.638   5.167
29224SOL     OW89568  12.964   4.843   8.120
29224SOL    HW189569  12.981   4.757   8.082
29224SOL    HW289570  12.887   4.830   8.176
29225SOL     OW89571   9.807   6.305   6.750
29225SOL    HW189572   9.802   6.211   6.732
29225SOL    HW289573   9.885   6.314   6.805
29226SOL     OW89574   3.100  13.406   6.080
29226SOL    HW189575   3.179  13.365   6.114
29226SOL    HW289576   3.030  13.343   6.098
29227SOL     OW89577   7.096  10.450   4.649
29227SOL    HW189578   7.101  10.436   4.743
29227SOL    HW289579   7.087  10.545   4.638
29228SOL     OW89580   2.429   8.285   8.156
29228SOL    HW189581   2.432   8.381   8.156
29228SOL    HW289582   2.390   8.262   8.072
29229SOL     OW89583   1.228   2.461   2.684
29229SOL    HW189584   1.200   2.504   2.764
29229SOL    HW289585   1.150   2.457   2.629
29230SOL     OW89586   2.565   0.475   4.285
29230SOL    HW189587   2.630   0.471   4.214
29230SOL    HW289588   2.576   0.563   4.322
29231SOL     OW89589  12.789   5.509   7.069
29231SOL    HW189590  12.764   5.583   7.125
29231SOL    HW289591  12.846   5.548   7.003
29232SOL     OW89592  13.152  11.227   0.964
29232SOL    HW189593  13.240  11.197   0.941
29232SOL    HW289594  13.116  11.262   0.882
29233SOL     OW89595  13.443  10.253   2.626
29233SOL    HW189596  13.507  10.193   2.588
29233SOL    HW289597  13.487  10.290   2.702
29234SOL     OW89598  12.479  13.034   2.398
29234SOL    HW189599  12.561  13.051   2.351
29234SOL    HW289600  12.493  12.950   2.441
29235SOL     OW89601   2.650   9.945  13.363
29235SOL    HW189602   2.721   9.923  13.302
29235SOL    HW289603   2.570   9.928  13.313
29236SOL     OW89604  12.707  14.514  14.099
29236SOL    HW189605  12.665  14.568  14.031
29236SOL    HW289606  12.679  14.553  14.181
29237SOL     OW89607   3.200   5.692  10.819
29237SOL    HW189608   3.119   5.654  10.787
29237SOL    HW289609   3.223   5.638  10.895
29238SOL     OW89610  12.552   2.618   5.978
29238SOL    HW189611  12.631   2.607   5.926
29238SOL    HW289612  12.582   2.616   6.068
29239SOL     OW89613   9.122   9.782   2.290
29239SOL    HW189614   9.184   9.841   2.247
29239SOL    HW289615   9.106   9.713   2.226
29240SOL     OW89616   7.268   2.872   7.267
29240SOL    HW189617   7.208   2.902   7.336
29240SOL    HW289618   7.343   2.838   7.314
29241SOL     OW89619   9.748   2.969  14.043
29241SOL    HW189620   9.698   3.045  14.015
29241SOL    HW289621   9.752   2.913  13.965
29242SOL     OW89622   9.421   8.106  14.508
29242SOL    HW189623   9.356   8.125  14.577
29242SOL    HW289624   9.405   8.172  14.441
29243SOL     OW89625   7.482  13.296   6.663
29243SOL    HW189626   7.550  13.340   6.613
29243SOL    HW289627   7.433  13.367   6.705
29244SOL     OW89628  11.665   1.305   6.250
29244SOL    HW189629  11.745   1.336   6.291
29244SOL    HW289630  11.694   1.246   6.181
29245SOL     OW89631  10.919  10.974   6.431
29245SOL    HW189632  10.876  10.922   6.499
29245SOL    HW289633  10.998  11.008   6.472
29246SOL     OW89634   2.019  11.585  11.738
29246SOL    HW189635   1.971  11.516  11.692
29246SOL    HW289636   1.990  11.666  11.695
29247SOL     OW89637   7.279   7.585   8.288
29247SOL    HW189638   7.333   7.551   8.360
29247SOL    HW289639   7.232   7.659   8.326
29248SOL     OW89640   2.529   3.897   2.685
29248SOL    HW189641   2.584   3.834   2.640
29248SOL    HW289642   2.494   3.953   2.616
29249SOL     OW89643   6.876   2.962   2.320
29249SOL    HW189644   6.912   2.966   2.409
29249SOL    HW289645   6.781   2.954   2.334
29250SOL     OW89646   7.000  13.144  14.311
29250SOL    HW189647   7.065  13.112  14.249
29250SOL    HW289648   6.925  13.170  14.257
29251SOL     OW89649  14.025  10.961  11.172
29251SOL    HW189650  14.050  10.924  11.087
29251SOL    HW289651  14.016  11.055  11.155
29252SOL     OW89652   9.000  10.339   8.282
29252SOL    HW189653   9.006  10.429   8.251
29252SOL    HW289654   9.081  10.323   8.330
29253SOL     OW89655   0.716  12.238   9.571
29253SOL    HW189656   0.760  12.165   9.527
29253SOL    HW289657   0.671  12.284   9.500
29254SOL     OW89658  11.324   2.900  12.644
29254SOL    HW189659  11.229   2.901  12.642
29254SOL    HW289660  11.347   2.937  12.730
29255SOL     OW89661  11.512   2.709   1.374
29255SOL    HW189662  11.530   2.643   1.441
29255SOL    HW289663  11.577   2.778   1.392
29256SOL     OW89664   5.198   4.134  11.880
29256SOL    HW189665   5.149   4.106  11.803
29256SOL    HW289666   5.142   4.200  11.921
29257SOL     OW89667   0.900  11.991  13.874
29257SOL    HW189668   0.919  12.074  13.919
29257SOL    HW289669   0.828  12.012  13.815
29258SOL     OW89670   0.663   0.232  13.712
29258SOL    HW189671   0.646   0.158  13.654
29258SOL    HW289672   0.597   0.297  13.689
29259SOL     OW89673  12.889  12.523   3.126
29259SOL    HW189674  12.907  12.432   3.100
29259SOL    HW289675  12.938  12.533   3.208
29260SOL     OW89676  12.031  11.100  11.755
29260SOL    HW189677  11.948  11.147  11.766
29260SOL    HW289678  12.041  11.090  11.660
29261SOL     OW89679   3.414   9.056   2.254
29261SOL    HW189680   3.347   9.047   2.322
29261SOL    HW289681   3.488   9.098   2.298
29262SOL     OW89682   3.798   3.745  13.202
29262SOL    HW189683   3.742   3.672  13.174
29262SOL    HW289684   3.745   3.823  13.185
29263SOL     OW89685   8.897   0.543  11.555
29263SOL    HW189686   8.813   0.527  11.511
29263SOL    HW289687   8.885   0.627  11.598
29264SOL     OW89688   9.624  10.669  12.338
29264SOL    HW189689   9.604  10.762  12.344
29264SOL    HW289690   9.541  10.625  12.358
29265SOL     OW89691  13.043   5.810   4.293
29265SOL    HW189692  12.964   5.864   4.284
29265SOL    HW289693  13.082   5.809   4.206
29266SOL     OW89694   0.830   8.078   2.426
29266SOL    HW189695   0.867   8.102   2.341
29266SOL    HW289696   0.738   8.106   2.420
29267SOL     OW89697  14.058  11.615   7.631
29267SOL    HW189698  14.128  11.585   7.689
29267SOL    HW289699  14.098  11.616   7.544
29268SOL     OW89700   7.591   8.569  11.654
29268SOL    HW189701   7.497   8.556  11.639
29268SOL    HW289702   7.633   8.506  11.597
29269SOL     OW89703  13.977   9.255   3.100
29269SOL    HW189704  13.895   9.211   3.121
29269SOL    HW289705  13.983   9.328   3.162
29270SOL     OW89706   0.670   6.813  12.689
29270SOL    HW189707   0.672   6.717  12.694
29270SOL    HW289708   0.706   6.841  12.773
29271SOL     OW89709   4.564   2.393   0.815
29271SOL    HW189710   4.572   2.308   0.773
29271SOL    HW289711   4.497   2.379   0.883
29272SOL     OW89712   0.621  11.828   3.905
29272SOL    HW189713   0.684  11.836   3.833
29272SOL    HW289714   0.674  11.840   3.984
29273SOL     OW89715  13.768  14.799  11.254
29273SOL    HW189716  13.754  14.877  11.202
29273SOL    HW289717  13.735  14.821  11.341
29274SOL     OW89718  14.657   9.625   2.417
29274SOL    HW189719  14.602   9.557   2.378
29274SOL    HW289720  14.611   9.707   2.399
29275SOL     OW89721  12.235   1.586   0.324
29275SOL    HW189722  12.259   1.556   0.412
29275SOL    HW289723  12.239   1.682   0.329
29276SOL     OW89724   5.044  12.880   8.333
29276SOL    HW189725   5.075  12.940   8.265
29276SOL    HW289726   4.985  12.933   8.387
29277SOL     OW89727  10.048   9.377   2.336
29277SOL    HW189728  10.026   9.458   2.290
29277SOL    HW289729   9.980   9.368   2.403
29278SOL     OW89730   3.665   3.685   6.879
29278SOL    HW189731   3.662   3.591   6.899
29278SOL    HW289732   3.700   3.690   6.790
29279SOL     OW89733   7.460  11.107   3.304
29279SOL    HW189734   7.398  11.083   3.234
29279SOL    HW289735   7.452  11.202   3.311
29280SOL     OW89736   5.975   1.422  10.067
29280SOL    HW189737   5.933   1.465   9.992
29280SOL    HW289738   5.906   1.367  10.105
29281SOL     OW89739   3.792   7.243   5.973
29281SOL    HW189740   3.765   7.231   6.064
29281SOL    HW289741   3.840   7.326   5.973
29282SOL     OW89742   5.226   4.747   0.212
29282SOL    HW189743   5.230   4.768   0.119
29282SOL    HW289744   5.293   4.803   0.252
29283SOL     OW89745  13.414  12.939   5.485
29283SOL    HW189746  13.405  12.936   5.390
29283SOL    HW289747  13.497  12.896   5.503
29284SOL     OW89748   3.430   7.301  10.743
29284SOL    HW189749   3.395   7.368  10.802
29284SOL    HW289750   3.523   7.298  10.763
29285SOL     OW89751   6.968   6.377   8.141
29285SOL    HW189752   7.023   6.327   8.201
29285SOL    HW289753   6.879   6.367   8.175
29286SOL     OW89754   8.234  11.153   5.393
29286SOL    HW189755   8.309  11.127   5.340
29286SOL    HW289756   8.160  11.149   5.333
29287SOL     OW89757   7.148  12.387   7.331
29287SOL    HW189758   7.141  12.477   7.363
29287SOL    HW289759   7.059  12.351   7.340
29288SOL     OW89760   9.168   8.616   1.262
29288SOL    HW189761   9.170   8.663   1.345
29288SOL    HW289762   9.222   8.538   1.277
29289SOL     OW89763  13.224   6.615   1.693
29289SOL    HW189764  13.249   6.615   1.785
29289SOL    HW289765  13.250   6.701   1.660
29290SOL     OW89766   5.012  12.359   8.713
29290SOL    HW189767   4.992  12.298   8.784
29290SOL    HW289768   5.045  12.437   8.756
29291SOL     OW89769   2.434   4.216   0.818
29291SOL    HW189770   2.357   4.272   0.821
29291SOL    HW289771   2.402   4.130   0.844
29292SOL     OW89772   8.557   1.165  11.681
29292SOL    HW189773   8.462   1.162  11.681
29292SOL    HW289774   8.580   1.193  11.592
29293SOL     OW89775   8.107   5.775   9.935
29293SOL    HW189776   8.067   5.780  10.022
29293SOL    HW289777   8.099   5.864   9.900
29294SOL     OW89778   2.050  11.992   0.675
29294SOL    HW189779   2.053  11.910   0.625
29294SOL    HW289780   1.958  12.001   0.700
29295SOL     OW89781   0.131   6.600  11.885
29295SOL    HW189782   0.036   6.591  11.885
29295SOL    HW289783   0.163   6.515  11.856
29296SOL     OW89784   4.379  12.620  14.041
29296SOL    HW189785   4.318  12.637  14.113
29296SOL    HW289786   4.422  12.704  14.027
29297SOL     OW89787   3.189   2.290   9.195
29297SOL    HW189788   3.104   2.264   9.231
29297SOL    HW289789   3.237   2.325   9.270
29298SOL     OW89790   7.841   0.878   1.644
29298SOL    HW189791   7.877   0.807   1.589
29298SOL    HW289792   7.784   0.833   1.706
29299SOL     OW89793  12.105   2.334   5.114
29299SOL    HW189794  12.147   2.418   5.132
29299SOL    HW289795  12.168   2.287   5.059
29300SOL     OW89796   0.075  10.171  11.153
29300SOL    HW189797   0.111  10.182  11.065
29300SOL    HW289798  14.867  10.199  11.146
29301SOL     OW89799   4.343   8.664  13.122
29301SOL    HW189800   4.426   8.647  13.076
29301SOL    HW289801   4.365   8.652  13.214
29302SOL     OW89802   7.511   0.792  14.163
29302SOL    HW189803   7.518   0.853  14.091
29302SOL    HW289804   7.458   0.720  14.129
29303SOL     OW89805  11.441   7.704   4.243
29303SOL    HW189806  11.360   7.667   4.207
29303SOL    HW289807  11.450   7.788   4.199
29304SOL     OW89808  11.550   0.595   5.464
29304SOL    HW189809  11.523   0.685   5.485
29304SOL    HW289810  11.496   0.571   5.389
29305SOL     OW89811  14.380   9.484   0.721
29305SOL    HW189812  14.337   9.410   0.762
29305SOL    HW289813  14.411   9.538   0.794
29306SOL     OW89814   4.758   5.120  10.554
29306SOL    HW189815   4.674   5.151  10.589
29306SOL    HW289816   4.758   5.150  10.463
29307SOL     OW89817   0.190   2.214  12.666
29307SOL    HW189818   0.230   2.146  12.612
29307SOL    HW289819   0.233   2.207  12.751
29308SOL     OW89820  14.667   9.190   9.347
29308SOL    HW189821  14.620   9.204   9.264
29308SOL    HW289822  14.752   9.231   9.334
29309SOL     OW89823   7.245  11.999   4.753
29309SOL    HW189824   7.339  11.982   4.745
29309SOL    HW289825   7.206  11.914   4.772
29310SOL     OW89826  10.073  13.209   2.758
29310SOL    HW189827  10.006  13.260   2.713
29310SOL    HW289828  10.088  13.258   2.840
29311SOL     OW89829   2.446   9.443   3.553
29311SOL    HW189830   2.385   9.419   3.622
29311SOL    HW289831   2.515   9.493   3.597
29312SOL     OW89832   7.445   2.255  13.071
29312SOL    HW189833   7.481   2.181  13.121
29312SOL    HW289834   7.373   2.288  13.126
29313SOL     OW89835   1.162   7.765   0.125
29313SOL    HW189836   1.069   7.766   0.151
29313SOL    HW289837   1.196   7.849   0.158
29314SOL     OW89838  10.349   5.666   4.667
29314SOL    HW189839  10.365   5.581   4.706
29314SOL    HW289840  10.432   5.691   4.627
29315SOL     OW89841  14.383  13.976   7.585
29315SOL    HW189842  14.355  13.899   7.635
29315SOL    HW289843  14.318  13.984   7.516
29316SOL     OW89844  11.536  12.419   1.203
29316SOL    HW189845  11.611  12.418   1.263
29316SOL    HW289846  11.562  12.480   1.134
29317SOL     OW89847   1.355  13.414  10.974
29317SOL    HW189848   1.302  13.335  10.985
29317SOL    HW289849   1.408  13.417  11.054
29318SOL     OW89850  13.458   1.808  10.060
29318SOL    HW189851  13.405   1.824  10.138
29318SOL    HW289852  13.548   1.828  10.087
29319SOL     OW89853   5.933  11.602   0.764
29319SOL    HW189854   5.958  11.556   0.683
29319SOL    HW289855   5.893  11.683   0.734
29320SOL     OW89856   5.995   3.226   1.038
29320SOL    HW189857   5.934   3.159   1.069
29320SOL    HW289858   6.008   3.284   1.112
29321SOL     OW89859  13.186   1.573  12.479
29321SOL    HW189860  13.110   1.616  12.440
29321SOL    HW289861  13.171   1.479  12.464
29322SOL     OW89862   6.423   0.791  13.123
29322SOL    HW189863   6.483   0.825  13.056
29322SOL    HW289864   6.407   0.700  13.096
29323SOL     OW89865  12.225   9.405   0.894
29323SOL    HW189866  12.269   9.333   0.846
29323SOL    HW289867  12.282   9.421   0.969
29324SOL     OW89868  12.613   7.544   4.896
29324SOL    HW189869  12.697   7.550   4.942
29324SOL    HW289870  12.636   7.535   4.804
29325SOL     OW89871   0.899   5.852  12.359
29325SOL    HW189872   0.906   5.843  12.454
29325SOL    HW289873   0.884   5.945  12.344
29326SOL     OW89874   7.040   2.886   7.451
29326SOL    HW189875   6.997   2.814   7.496
29326SOL    HW289876   7.100   2.922   7.516
29327SOL     OW89877  14.012  13.769   9.369
29327SOL    HW189878  14.043  13.784   9.279
29327SOL    HW289879  13.929  13.724   9.359
29328SOL     OW89880   6.970   1.387   0.641
29328SOL    HW189881   6.890   1.391   0.589
29328SOL    HW289882   6.955   1.448   0.713
29329SOL     OW89883  13.156  14.245   4.632
29329SOL    HW189884  13.094  14.307   4.593
29329SOL    HW289885  13.106  14.164   4.640
29330SOL     OW89886   8.827   7.520   8.274
29330SOL    HW189887   8.838   7.494   8.366
29330SOL    HW289888   8.875   7.603   8.268
29331SOL     OW89889   3.164   1.450   3.706
29331SOL    HW189890   3.092   1.512   3.719
29331SOL    HW289891   3.137   1.397   3.631
29332SOL     OW89892   5.058  13.231   4.841
29332SOL    HW189893   5.040  13.313   4.794
29332SOL    HW289894   5.151  13.216   4.826
29333SOL     OW89895   4.948   8.753  11.254
29333SOL    HW189896   4.892   8.693  11.303
29333SOL    HW289897   5.031   8.752  11.301
29334SOL     OW89898  13.651   9.184   0.304
29334SOL    HW189899  13.699   9.106   0.277
29334SOL    HW289900  13.562   9.152   0.322
29335SOL     OW89901   1.116   6.858  13.267
29335SOL    HW189902   1.109   6.881  13.174
29335SOL    HW289903   1.041   6.801  13.283
29336SOL     OW89904   3.282  13.738   2.252
29336SOL    HW189905   3.235  13.717   2.333
29336SOL    HW289906   3.328  13.657   2.229
29337SOL     OW89907  10.160   1.518   4.449
29337SOL    HW189908  10.081   1.470   4.423
29337SOL    HW289909  10.174   1.492   4.540
29338SOL     OW89910   6.555   0.836   0.604
29338SOL    HW189911   6.650   0.826   0.606
29338SOL    HW289912   6.524   0.759   0.556
29339SOL     OW89913   3.960   2.333  14.692
29339SOL    HW189914   4.046   2.356  14.728
29339SOL    HW289915   3.956   2.237  14.701
29340SOL     OW89916  14.766   2.451   5.506
29340SOL    HW189917  14.707   2.496   5.445
29340SOL    HW289918  14.853   2.483   5.482
29341SOL     OW89919  14.578  13.222   4.302
29341SOL    HW189920  14.536  13.279   4.238
29341SOL    HW289921  14.667  13.209   4.268
29342SOL     OW89922   8.118  13.327   5.400
29342SOL    HW189923   8.056  13.369   5.342
29342SOL    HW289924   8.199  13.322   5.350
29343SOL     OW89925   0.673  12.327   6.047
29343SOL    HW189926   0.695  12.378   6.125
29343SOL    HW289927   0.724  12.367   5.976
29344SOL     OW89928   9.242   5.142   1.785
29344SOL    HW189929   9.277   5.076   1.845
29344SOL    HW289930   9.203   5.208   1.842
29345SOL     OW89931  12.626   6.852  13.373
29345SOL    HW189932  12.662   6.940  13.369
29345SOL    HW289933  12.659   6.808  13.295
29346SOL     OW89934   7.925   5.730   3.134
29346SOL    HW189935   7.959   5.777   3.210
29346SOL    HW289936   7.948   5.785   3.059
29347SOL     OW89937   8.088   6.276  14.024
29347SOL    HW189938   8.099   6.267  13.929
29347SOL    HW289939   8.078   6.371  14.037
29348SOL     OW89940  11.566  14.300  14.548
29348SOL    HW189941  11.495  14.317  14.610
29348SOL    HW289942  11.536  14.224  14.498
29349SOL     OW89943  12.987  13.929   9.089
29349SOL    HW189944  13.004  13.902   8.999
29349SOL    HW289945  12.901  13.971   9.086
29350SOL     OW89946   1.263  12.662   1.579
29350SOL    HW189947   1.301  12.727   1.637
29350SOL    HW289948   1.338  12.628   1.529
29351SOL     OW89949   3.221  10.730   5.454
29351SOL    HW189950   3.230  10.647   5.501
29351SOL    HW289951   3.163  10.782   5.508
29352SOL     OW89952   6.806  14.273   7.594
29352SOL    HW189953   6.811  14.179   7.576
29352SOL    HW289954   6.729  14.303   7.546
29353SOL     OW89955  11.918   6.736  10.851
29353SOL    HW189956  11.983   6.793  10.810
29353SOL    HW289957  11.910   6.768  10.941
29354SOL     OW89958   9.936   5.688   9.393
29354SOL    HW189959   9.937   5.600   9.431
29354SOL    HW289960   9.845   5.701   9.365
29355SOL     OW89961  13.692  14.477   6.008
29355SOL    HW189962  13.668  14.569   6.001
29355SOL    HW289963  13.701  14.462   6.102
29356SOL     OW89964  10.697   9.750   1.920
29356SOL    HW189965  10.757   9.823   1.904
29356SOL    HW289966  10.712   9.690   1.846
29357SOL     OW89967  13.455   7.533   0.950
29357SOL    HW189968  13.368   7.567   0.972
29357SOL    HW289969  13.443   7.489   0.866
29358SOL     OW89970   8.212   5.947  13.660
29358SOL    HW189971   8.306   5.962  13.670
29358SOL    HW289972   8.190   5.988  13.576
29359SOL     OW89973   5.571   3.446   2.622
29359SOL    HW189974   5.553   3.352   2.632
29359SOL    HW289975   5.538   3.485   2.703
29360SOL     OW89976   5.193   0.751   9.655
29360SOL    HW189977   5.119   0.693   9.640
29360SOL    HW289978   5.187   0.775   9.747
29361SOL     OW89979   3.723   6.354  13.290
29361SOL    HW189980   3.729   6.389  13.379
29361SOL    HW289981   3.811   6.365  13.254
29362SOL     OW89982  14.869   4.828  13.354
29362SOL    HW189983  14.844   4.760  13.291
29362SOL    HW289984  14.811   4.813  13.429
29363SOL     OW89985   2.539   7.187  13.839
29363SOL    HW189986   2.493   7.216  13.918
29363SOL    HW289987   2.601   7.257  13.820
29364SOL     OW89988   8.488  14.776   3.955
29364SOL    HW189989   8.501  14.778   3.860
29364SOL    HW289990   8.399  14.742   3.966
29365SOL     OW89991   3.026   2.760  12.472
29365SOL    HW189992   3.102   2.702  12.473
29365SOL    HW289993   3.054   2.837  12.522
29366SOL     OW89994  12.855  13.106  14.722
29366SOL    HW189995  12.790  13.094  14.791
29366SOL    HW289996  12.914  13.031  14.731
29367SOL     OW89997  14.018  14.341  11.230
29367SOL    HW189998  13.996  14.434  11.224
29367SOL    HW289999  13.961  14.307  11.300
29368SOL     OW90000   0.502  12.544   5.166
29368SOL    HW190001   0.432  12.478   5.171
29368SOL    HW290002   0.583  12.493   5.163
29369SOL     OW90003   8.114  10.069   9.123
29369SOL    HW190004   8.020  10.057   9.106
29369SOL    HW290005   8.156  10.043   9.041
29370SOL     OW90006   8.245   4.391  13.237
29370SOL    HW190007   8.158   4.359  13.258
29370SOL    HW290008   8.263   4.457  13.304
29371SOL     OW90009   3.361   9.629   6.834
29371SOL    HW190010   3.449   9.592   6.832
29371SOL    HW290011   3.370   9.712   6.880
29372SOL     OW90012  13.584   5.675   3.582
29372SOL    HW190013  13.627   5.714   3.506
29372SOL    HW290014  13.636   5.704   3.657
29373SOL     OW90015   8.460  13.567  14.671
29373SOL    HW190016   8.473  13.598  14.761
29373SOL    HW290017   8.367  13.582  14.654
29374SOL     OW90018   4.966   9.212   8.486
29374SOL    HW190019   4.980   9.259   8.403
29374SOL    HW290020   5.014   9.129   8.475
29375SOL     OW90021   5.024  11.731   6.180
29375SOL    HW190022   4.956  11.797   6.183
29375SOL    HW290023   5.065  11.743   6.094
29376SOL     OW90024  12.368   7.076  14.355
29376SOL    HW190025  12.323   7.117  14.429
29376SOL    HW290026  12.403   7.149  14.305
29377SOL     OW90027  12.966   5.284  13.452
29377SOL    HW190028  12.976   5.340  13.529
29377SOL    HW290029  12.931   5.202  13.486
29378SOL     OW90030  11.554   9.304   5.652
29378SOL    HW190031  11.612   9.333   5.582
29378SOL    HW290032  11.506   9.230   5.616
29379SOL     OW90033   3.745   8.495   8.581
29379SOL    HW190034   3.815   8.442   8.617
29379SOL    HW290035   3.753   8.484   8.486
29380SOL     OW90036   7.778   4.991  14.399
29380SOL    HW190037   7.834   4.915  14.383
29380SOL    HW290038   7.838   5.058  14.433
29381SOL     OW90039   0.978   8.320   6.760
29381SOL    HW190040   0.897   8.308   6.810
29381SOL    HW290041   1.046   8.331   6.827
29382SOL     OW90042   7.996   9.069   0.147
29382SOL    HW190043   7.946   9.147   0.171
29382SOL    HW290044   7.997   9.015   0.226
29383SOL     OW90045   7.351   7.117   1.219
29383SOL    HW190046   7.306   7.132   1.302
29383SOL    HW290047   7.292   7.062   1.169
29384SOL     OW90048   4.792  14.767  10.661
29384SOL    HW190049   4.847  14.845  10.671
29384SOL    HW290050   4.818  14.709  10.733
29385SOL     OW90051  13.229   3.230  13.309
29385SOL    HW190052  13.161   3.203  13.247
29385SOL    HW290053  13.250   3.320  13.285
29386SOL     OW90054   7.910   3.615   7.082
29386SOL    HW190055   7.866   3.699   7.090
29386SOL    HW290056   7.930   3.606   6.989
29387SOL     OW90057  12.963  12.326   5.208
29387SOL    HW190058  12.882  12.303   5.163
29387SOL    HW290059  13.028  12.335   5.138
29388SOL     OW90060   7.576  14.813  12.852
29388SOL    HW190061   7.528  14.812  12.769
29388SOL    HW290062   7.656  14.764  12.833
29389SOL     OW90063   4.812   1.754   9.361
29389SOL    HW190064   4.787   1.685   9.299
29389SOL    HW290065   4.734   1.766   9.415
29390SOL     OW90066   9.371   5.456  11.561
29390SOL    HW190067   9.365   5.497  11.647
29390SOL    HW290068   9.449   5.496  11.521
29391SOL     OW90069  14.506  13.753  11.800
29391SOL    HW190070  14.521  13.837  11.758
29391SOL    HW290071  14.438  13.711  11.747
29392SOL     OW90072  12.527   0.021   5.235
29392SOL    HW190073  12.536  14.841   5.307
29392SOL    HW290074  12.603   0.077   5.242
29393SOL     OW90075  13.130  13.885  12.000
29393SOL    HW190076  13.102  13.973  11.975
29393SOL    HW290077  13.220  13.878  11.968
29394SOL     OW90078  12.489   6.465   5.183
29394SOL    HW190079  12.497   6.557   5.208
29394SOL    HW290080  12.491   6.418   5.266
29395SOL     OW90081   2.890   7.912   5.636
29395SOL    HW190082   2.974   7.867   5.626
29395SOL    HW290083   2.839   7.854   5.693
29396SOL     OW90084   9.501   3.203   1.318
29396SOL    HW190085   9.566   3.133   1.309
29396SOL    HW290086   9.422   3.158   1.348
29397SOL     OW90087   9.709   0.627   6.052
29397SOL    HW190088   9.775   0.566   6.083
29397SOL    HW290089   9.734   0.712   6.089
29398SOL     OW90090   1.575   0.973   9.966
29398SOL    HW190091   1.581   1.011  10.054
29398SOL    HW290092   1.538   1.043   9.912
29399SOL     OW90093   0.753   8.564  10.430
29399SOL    HW190094   0.759   8.538  10.339
29399SOL    HW290095   0.822   8.515  10.474
29400SOL     OW90096  12.493  12.222   1.903
29400SOL    HW190097  12.501  12.239   1.809
29400SOL    HW290098  12.444  12.297   1.937
29401SOL     OW90099   2.906   2.060   6.951
29401SOL    HW190100   2.909   2.149   6.986
29401SOL    HW290101   2.990   2.021   6.978
29402SOL     OW90102   3.203  11.908  12.315
29402SOL    HW190103   3.179  11.910  12.408
29402SOL    HW290104   3.197  12.000  12.287
29403SOL     OW90105   6.850  11.157   7.218
29403SOL    HW190106   6.791  11.231   7.232
29403SOL    HW290107   6.824  11.093   7.283
29404SOL     OW90108  13.340  10.328  10.522
29404SOL    HW190109  13.314  10.419  10.506
29404SOL    HW290110  13.288  10.302  10.598
29405SOL     OW90111  11.028  12.531  10.708
29405SOL    HW190112  11.052  12.439  10.717
29405SOL    HW290113  11.035  12.566  10.797
29406SOL     OW90114   5.087   3.979   9.774
29406SOL    HW190115   5.067   3.991   9.867
29406SOL    HW290116   5.117   3.888   9.768
29407SOL     OW90117   0.513   5.532  11.568
29407SOL    HW190118   0.524   5.446  11.610
29407SOL    HW290119   0.598   5.551  11.529
29408SOL     OW90120   1.021  10.377   7.718
29408SOL    HW190121   1.001  10.422   7.800
29408SOL    HW290122   1.053  10.291   7.744
29409SOL     OW90123   4.008   9.688  10.317
29409SOL    HW190124   3.963   9.627  10.376
29409SOL    HW290125   4.002   9.646  10.231
29410SOL     OW90126   8.934   2.516   2.577
29410SOL    HW190127   9.007   2.474   2.531
29410SOL    HW290128   8.953   2.501   2.670
29411SOL     OW90129  11.347   5.147   2.116
29411SOL    HW190130  11.347   5.215   2.184
29411SOL    HW290131  11.268   5.096   2.133
29412SOL     OW90132   4.563   4.325   9.168
29412SOL    HW190133   4.595   4.236   9.180
29412SOL    HW290134   4.469   4.319   9.188
29413SOL     OW90135   5.714  11.212  14.861
29413SOL    HW190136   5.789  11.193   0.036
29413SOL    HW290137   5.718  11.307  14.848
29414SOL     OW90138   3.294   0.725  12.380
29414SOL    HW190139   3.241   0.760  12.308
29414SOL    HW290140   3.231   0.690  12.442
29415SOL     OW90141   8.646   8.140   2.506
29415SOL    HW190142   8.647   8.229   2.471
29415SOL    HW290143   8.722   8.136   2.564
29416SOL     OW90144  14.545   1.146  12.190
29416SOL    HW190145  14.469   1.194  12.158
29416SOL    HW290146  14.550   1.069  12.135
29417SOL     OW90147   1.617  13.989  13.413
29417SOL    HW190148   1.712  13.983  13.418
29417SOL    HW290149   1.600  14.026  13.326
29418SOL     OW90150   3.546   9.782   7.757
29418SOL    HW190151   3.534   9.717   7.826
29418SOL    HW290152   3.468   9.772   7.702
29419SOL     OW90153   1.706  13.824   3.303
29419SOL    HW190154   1.663  13.898   3.346
29419SOL    HW290155   1.634  13.768   3.274
29420SOL     OW90156  13.377   2.625   5.785
29420SOL    HW190157  13.325   2.705   5.780
29420SOL    HW290158  13.463   2.650   5.751
29421SOL     OW90159   7.862   6.595  14.425
29421SOL    HW190160   7.798   6.610  14.495
29421SOL    HW290161   7.947   6.594  14.469
29422SOL     OW90162   9.280   5.486  10.320
29422SOL    HW190163   9.327   5.450  10.395
29422SOL    HW290164   9.207   5.534  10.359
29423SOL     OW90165   2.273   0.094   9.733
29423SOL    HW190166   2.204   0.036   9.700
29423SOL    HW290167   2.337   0.099   9.663
29424SOL     OW90168  14.708   9.433  14.492
29424SOL    HW190169  14.652   9.410  14.566
29424SOL    HW290170  14.655   9.493  14.439
29425SOL     OW90171  11.634   0.923   2.943
29425SOL    HW190172  11.622   0.977   2.865
29425SOL    HW290173  11.693   0.853   2.916
29426SOL     OW90174  11.057   9.006   9.857
29426SOL    HW190175  11.015   9.091   9.873
29426SOL    HW290176  11.054   8.961   9.942
29427SOL     OW90177   6.342   3.512   1.085
29427SOL    HW190178   6.296   3.529   1.167
29427SOL    HW290179   6.398   3.437   1.104
29428SOL     OW90180   2.514   5.372   0.110
29428SOL    HW190181   2.469   5.323   0.179
29428SOL    HW290182   2.588   5.412   0.154
29429SOL     OW90183   5.063  10.260  12.208
29429SOL    HW190184   5.091  10.169  12.201
29429SOL    HW290185   5.144  10.310  12.215
29430SOL     OW90186   8.407  13.294  13.760
29430SOL    HW190187   8.466  13.223  13.737
29430SOL    HW290188   8.460  13.373  13.755
29431SOL     OW90189   7.245   8.639   8.461
29431SOL    HW190190   7.280   8.625   8.548
29431SOL    HW290191   7.154   8.609   8.466
29432SOL     OW90192   0.691  10.346   7.783
29432SOL    HW190193   0.740  10.314   7.707
29432SOL    HW290194   0.734  10.306   7.858
29433SOL     OW90195   6.198   4.369   0.863
29433SOL    HW190196   6.256   4.445   0.861
29433SOL    HW290197   6.256   4.293   0.863
29434SOL     OW90198   6.069  14.655   9.568
29434SOL    HW190199   6.034  14.566   9.560
29434SOL    HW290200   6.060  14.692   9.481
29435SOL     OW90201  11.537  14.628  14.440
29435SOL    HW190202  11.512  14.677  14.519
29435SOL    HW290203  11.456  14.624  14.388
29436SOL     OW90204  10.158   9.599   1.264
29436SOL    HW190205  10.102   9.674   1.244
29436SOL    HW290206  10.169   9.554   1.181
29437SOL     OW90207   4.321   1.131   7.901
29437SOL    HW190208   4.260   1.186   7.951
29437SOL    HW290209   4.407   1.169   7.918
29438SOL     OW90210   3.290   6.547   6.841
29438SOL    HW190211   3.272   6.598   6.762
29438SOL    HW290212   3.274   6.608   6.913
29439SOL     OW90213   4.961  11.451   9.398
29439SOL    HW190214   4.940  11.386   9.466
29439SOL    HW290215   4.934  11.409   9.316
29440SOL     OW90216   7.621   8.904  10.019
29440SOL    HW190217   7.603   8.973   9.954
29440SOL    HW290218   7.670   8.949  10.088
29441SOL     OW90219   5.298   7.179  13.623
29441SOL    HW190220   5.370   7.128  13.660
29441SOL    HW290221   5.221   7.155  13.676
29442SOL     OW90222  14.497  11.482   5.681
29442SOL    HW190223  14.408  11.492   5.648
29442SOL    HW290224  14.486  11.453   5.771
29443SOL     OW90225  12.160   8.108   7.221
29443SOL    HW190226  12.190   8.023   7.254
29443SOL    HW290227  12.195   8.113   7.132
29444SOL     OW90228  14.380   9.759   3.338
29444SOL    HW190229  14.464   9.726   3.372
29444SOL    HW290230  14.362   9.837   3.390
29445SOL     OW90231   1.211  13.672  14.264
29445SOL    HW190232   1.168  13.588  14.246
29445SOL    HW290233   1.152  13.737  14.226
29446SOL     OW90234   8.246   1.822   7.812
29446SOL    HW190235   8.305   1.843   7.884
29446SOL    HW290236   8.303   1.796   7.740
29447SOL     OW90237  11.249   5.714   9.530
29447SOL    HW190238  11.273   5.766   9.453
29447SOL    HW290239  11.333   5.684   9.566
29448SOL     OW90240  12.650  13.567   9.461
29448SOL    HW190241  12.605  13.594   9.381
29448SOL    HW290242  12.605  13.486   9.487
29449SOL     OW90243   0.124   7.719   9.278
29449SOL    HW190244   0.051   7.752   9.330
29449SOL    HW290245   0.169   7.797   9.246
29450SOL     OW90246   4.875   7.380   3.530
29450SOL    HW190247   4.942   7.366   3.597
29450SOL    HW290248   4.793   7.390   3.580
29451SOL     OW90249   7.749   6.392   7.819
29451SOL    HW190250   7.804   6.453   7.870
29451SOL    HW290251   7.715   6.331   7.884
29452SOL     OW90252   3.540   3.728  14.633
29452SOL    HW190253   3.566   3.804  14.684
29452SOL    HW290254   3.521   3.763  14.546
29453SOL     OW90255  12.208  11.061   4.911
29453SOL    HW190256  12.206  11.033   4.820
29453SOL    HW290257  12.149  11.137   4.914
29454SOL     OW90258  11.552   8.056   3.568
29454SOL    HW190259  11.598   7.974   3.584
29454SOL    HW290260  11.469   8.048   3.615
29455SOL     OW90261   3.361  13.696   6.679
29455SOL    HW190262   3.350  13.620   6.736
29455SOL    HW290263   3.287  13.753   6.701
29456SOL     OW90264  10.855   9.191  13.755
29456SOL    HW190265  10.897   9.138  13.822
29456SOL    HW290266  10.916   9.191  13.682
29457SOL     OW90267  10.384   9.332   5.176
29457SOL    HW190268  10.305   9.279   5.184
29457SOL    HW290269  10.393   9.348   5.082
29458SOL     OW90270   2.023   1.142   1.265
29458SOL    HW190271   2.107   1.133   1.311
29458SOL    HW290272   1.959   1.104   1.325
29459SOL     OW90273  11.269   0.150   6.158
29459SOL    HW190274  11.257   0.180   6.248
29459SOL    HW290275  11.294   0.058   6.166
29460SOL     OW90276   8.631   6.429   7.792
29460SOL    HW190277   8.567   6.495   7.820
29460SOL    HW290278   8.614   6.354   7.849
29461SOL     OW90279   7.023   6.425  14.299
29461SOL    HW190280   7.076   6.404  14.222
29461SOL    HW290281   6.962   6.352  14.307
29462SOL     OW90282  10.561   3.175   4.835
29462SOL    HW190283  10.600   3.260   4.814
29462SOL    HW290284  10.514   3.190   4.917
29463SOL     OW90285   2.189   4.359   3.113
29463SOL    HW190286   2.174   4.377   3.020
29463SOL    HW290287   2.150   4.273   3.127
29464SOL     OW90288   6.675   2.712   4.310
29464SOL    HW190289   6.721   2.780   4.260
29464SOL    HW290290   6.583   2.736   4.302
29465SOL     OW90291   3.201   8.657   9.414
29465SOL    HW190292   3.183   8.568   9.445
29465SOL    HW290293   3.131   8.675   9.351
29466SOL     OW90294   8.792   4.362   4.688
29466SOL    HW190295   8.722   4.427   4.680
29466SOL    HW290296   8.871   4.414   4.703
29467SOL     OW90297   7.507   2.977  11.351
29467SOL    HW190298   7.434   3.011  11.300
29467SOL    HW290299   7.545   3.055  11.393
29468SOL     OW90300   8.155  12.280   4.054
29468SOL    HW190301   8.135  12.187   4.047
29468SOL    HW290302   8.140  12.301   4.147
29469SOL     OW90303   2.211  12.441   7.417
29469SOL    HW190304   2.156  12.398   7.353
29469SOL    HW290305   2.199  12.390   7.497
29470SOL     OW90306   0.670  10.821   4.481
29470SOL    HW190307   0.581  10.855   4.472
29470SOL    HW290308   0.725  10.890   4.443
29471SOL     OW90309   9.564  10.974  14.714
29471SOL    HW190310   9.492  11.014  14.762
29471SOL    HW290311   9.600  11.044  14.660
29472SOL     OW90312   8.195   0.959   6.224
29472SOL    HW190313   8.236   1.024   6.281
29472SOL    HW290314   8.173   0.886   6.282
29473SOL     OW90315  11.474   0.408   7.945
29473SOL    HW190316  11.402   0.399   8.008
29473SOL    HW290317  11.542   0.455   7.994
29474SOL     OW90318  10.399   8.965   9.714
29474SOL    HW190319  10.344   8.924   9.647
29474SOL    HW290320  10.338   9.018   9.765
29475SOL     OW90321  13.796   0.436   0.661
29475SOL    HW190322  13.770   0.377   0.590
29475SOL    HW290323  13.776   0.388   0.741
29476SOL     OW90324  13.303  13.122  10.066
29476SOL    HW190325  13.317  13.106  10.160
29476SOL    HW290326  13.241  13.195  10.064
29477SOL     OW90327   9.830  13.575   9.085
29477SOL    HW190328   9.842  13.598   9.177
29477SOL    HW290329   9.786  13.489   9.087
29478SOL     OW90330   1.782   2.116  13.548
29478SOL    HW190331   1.735   2.158  13.477
29478SOL    HW290332   1.831   2.045  13.506
29479SOL     OW90333   1.425   6.816  13.996
29479SOL    HW190334   1.454   6.796  14.085
29479SOL    HW290335   1.404   6.731  13.958
29480SOL     OW90336   9.656   1.036   1.599
29480SOL    HW190337   9.645   0.959   1.655
29480SOL    HW290338   9.683   1.001   1.515
29481SOL     OW90339   1.655  11.616   8.376
29481SOL    HW190340   1.674  11.679   8.306
29481SOL    HW290341   1.605  11.666   8.441
29482SOL     OW90342   4.616   3.284  13.427
29482SOL    HW190343   4.556   3.222  13.386
29482SOL    HW290344   4.698   3.273  13.380
29483SOL     OW90345  13.792   5.759   7.810
29483SOL    HW190346  13.709   5.713   7.798
29483SOL    HW290347  13.783   5.840   7.760
29484SOL     OW90348   3.330   1.643  10.679
29484SOL    HW190349   3.324   1.576  10.746
29484SOL    HW290350   3.265   1.618  10.613
29485SOL     OW90351   9.234   1.980   9.459
29485SOL    HW190352   9.175   1.956   9.388
29485SOL    HW290353   9.238   1.902   9.514
29486SOL     OW90354   3.166   7.227  10.925
29486SOL    HW190355   3.204   7.139  10.924
29486SOL    HW290356   3.096   7.225  10.860
29487SOL     OW90357   9.737  11.863   8.239
29487SOL    HW190358   9.756  11.804   8.166
29487SOL    HW290359   9.727  11.949   8.199
29488SOL     OW90360   4.074  13.261   7.891
29488SOL    HW190361   3.983  13.280   7.915
29488SOL    HW290362   4.119  13.251   7.975
29489SOL     OW90363  10.372  11.738  12.038
29489SOL    HW190364  10.459  11.763  12.009
29489SOL    HW290365  10.368  11.643  12.023
29490SOL     OW90366   2.230   2.407   7.016
29490SOL    HW190367   2.194   2.439   7.099
29490SOL    HW290368   2.239   2.313   7.028
29491SOL     OW90369  12.357   7.808  13.895
29491SOL    HW190370  12.340   7.901  13.909
29491SOL    HW290371  12.370   7.773  13.983
29492SOL     OW90372   3.529   3.707   1.932
29492SOL    HW190373   3.598   3.656   1.974
29492SOL    HW290374   3.541   3.796   1.967
29493SOL     OW90375   8.360   4.594  10.120
29493SOL    HW190376   8.418   4.523  10.089
29493SOL    HW290377   8.309   4.618  10.042
29494SOL     OW90378  14.389   6.085   9.095
29494SOL    HW190379  14.395   6.177   9.119
29494SOL    HW290380  14.339   6.045   9.165
29495SOL     OW90381  11.787  10.665   4.785
29495SOL    HW190382  11.793  10.760   4.791
29495SOL    HW290383  11.845  10.642   4.713
29496SOL     OW90384  11.277  11.249  14.758
29496SOL    HW190385  11.268  11.156  14.780
29496SOL    HW290386  11.213  11.293  14.812
29497SOL     OW90387  13.141   1.826   7.127
29497SOL    HW190388  13.222   1.779   7.148
29497SOL    HW290389  13.084   1.811   7.201
29498SOL     OW90390   1.900  11.003  13.054
29498SOL    HW190391   1.852  10.964  13.127
29498SOL    HW290392   1.976  10.945  13.043
29499SOL     OW90393   8.579   4.504   5.950
29499SOL    HW190394   8.663   4.485   5.908
29499SOL    HW290395   8.528   4.424   5.937
29500SOL     OW90396  12.763  12.682  10.214
29500SOL    HW190397  12.692  12.637  10.169
29500SOL    HW290398  12.823  12.708  10.144
29501SOL     OW90399  11.229   0.824  12.358
29501SOL    HW190400  11.312   0.861  12.327
29501SOL    HW290401  11.255   0.746  12.407
29502SOL     OW90402   1.853  11.601  12.912
29502SOL    HW190403   1.846  11.507  12.900
29502SOL    HW290404   1.777  11.637  12.866
29503SOL     OW90405  10.558   1.106   8.096
29503SOL    HW190406  10.592   1.021   8.124
29503SOL    HW290407  10.492   1.085   8.030
29504SOL     OW90408  10.693   3.113   1.476
29504SOL    HW190409  10.716   3.171   1.548
29504SOL    HW290410  10.735   3.030   1.498
29505SOL     OW90411   3.965  11.985  14.458
29505SOL    HW190412   3.930  12.021  14.377
29505SOL    HW290413   3.911  12.022  14.527
29506SOL     OW90414  12.963   5.669   7.267
29506SOL    HW190415  12.928   5.585   7.296
29506SOL    HW290416  12.888   5.729   7.271
29507SOL     OW90417   1.889   9.371  10.914
29507SOL    HW190418   1.875   9.299  10.852
29507SOL    HW290419   1.827   9.438  10.887
29508SOL     OW90420   1.694  13.438   1.394
29508SOL    HW190421   1.767  13.497   1.379
29508SOL    HW290422   1.617  13.485   1.361
29509SOL     OW90423   8.040   1.129   1.877
29509SOL    HW190424   8.134   1.109   1.886
29509SOL    HW290425   8.016   1.166   1.962
29510SOL     OW90426  12.795   5.925  10.408
29510SOL    HW190427  12.849   5.948  10.333
29510SOL    HW290428  12.819   5.989  10.476
29511SOL     OW90429   8.186  13.801   1.333
29511SOL    HW190430   8.171  13.735   1.400
29511SOL    HW290431   8.156  13.761   1.252
29512SOL     OW90432   3.384   4.510  10.346
29512SOL    HW190433   3.312   4.448  10.355
29512SOL    HW290434   3.442   4.491  10.420
29513SOL     OW90435   9.908  14.326   0.961
29513SOL    HW190436   9.879  14.247   1.007
29513SOL    HW290437   9.843  14.392   0.983
29514SOL     OW90438  12.882  14.056   6.326
29514SOL    HW190439  12.913  14.061   6.236
29514SOL    HW290440  12.797  14.013   6.321
29515SOL     OW90441   3.245   9.435   2.295
29515SOL    HW190442   3.311   9.402   2.234
29515SOL    HW290443   3.172   9.374   2.286
29516SOL     OW90444   4.036   5.316   7.047
29516SOL    HW190445   4.070   5.356   6.967
29516SOL    HW290446   4.012   5.227   7.021
29517SOL     OW90447  13.137   3.729   1.875
29517SOL    HW190448  13.156   3.695   1.962
29517SOL    HW290449  13.048   3.700   1.857
29518SOL     OW90450   4.670   0.688   9.256
29518SOL    HW190451   4.614   0.759   9.285
29518SOL    HW290452   4.758   0.712   9.286
29519SOL     OW90453   8.874   6.299   3.804
29519SOL    HW190454   8.918   6.244   3.738
29519SOL    HW290455   8.936   6.371   3.818
29520SOL     OW90456   9.025   8.043   0.581
29520SOL    HW190457   9.116   8.026   0.559
29520SOL    HW290458   9.011   8.001   0.665
29521SOL     OW90459   4.152   5.128   4.809
29521SOL    HW190460   4.183   5.173   4.887
29521SOL    HW290461   4.135   5.038   4.838
29522SOL     OW90462   6.450   2.569  11.169
29522SOL    HW190463   6.466   2.655  11.209
29522SOL    HW290464   6.501   2.571  11.088
29523SOL     OW90465  11.797   9.621  11.416
29523SOL    HW190466  11.817   9.544  11.364
29523SOL    HW290467  11.712   9.602  11.456
29524SOL     OW90468  12.785   1.066   0.058
29524SOL    HW190469  12.714   1.007   0.035
29524SOL    HW290470  12.784   1.134  14.873
29525SOL     OW90471   3.863  10.061   2.409
29525SOL    HW190472   3.819  10.006   2.344
29525SOL    HW290473   3.878  10.004   2.484
29526SOL     OW90474   8.351   8.767   0.678
29526SOL    HW190475   8.329   8.781   0.770
29526SOL    HW290476   8.281   8.810   0.629
29527SOL     OW90477   0.810   3.073   4.753
29527SOL    HW190478   0.903   3.090   4.738
29527SOL    HW290479   0.802   2.978   4.743
29528SOL     OW90480   2.072   7.470  13.785
29528SOL    HW190481   2.115   7.531  13.725
29528SOL    HW290482   2.089   7.384  13.748
29529SOL     OW90483  10.767   1.287   8.019
29529SOL    HW190484  10.762   1.300   7.924
29529SOL    HW290485  10.678   1.264   8.045
29530SOL     OW90486   0.414   3.867   3.200
29530SOL    HW190487   0.340   3.837   3.254
29530SOL    HW290488   0.487   3.873   3.261
29531SOL     OW90489   0.857   0.083   2.233
29531SOL    HW190490   0.782   0.114   2.181
29531SOL    HW290491   0.867   0.150   2.301
29532SOL     OW90492   6.914  11.339   6.692
29532SOL    HW190493   6.932  11.293   6.610
29532SOL    HW290494   6.994  11.327   6.744
29533SOL     OW90495   3.631   4.339  12.187
29533SOL    HW190496   3.684   4.410  12.152
29533SOL    HW290497   3.664   4.260  12.144
29534SOL     OW90498  12.296  14.709   7.974
29534SOL    HW190499  12.333  14.757   8.049
29534SOL    HW290500  12.340  14.625   7.975
29535SOL     OW90501   9.737  11.190  10.962
29535SOL    HW190502   9.766  11.207  11.051
29535SOL    HW290503   9.774  11.261  10.910
29536SOL     OW90504   9.773   7.098   0.119
29536SOL    HW190505   9.784   7.189   0.093
29536SOL    HW290506   9.693   7.070   0.074
29537SOL     OW90507  10.670   3.554  12.331
29537SOL    HW190508  10.759   3.519  12.334
29537SOL    HW290509  10.682   3.648  12.318
29538SOL     OW90510   2.717   4.101  14.732
29538SOL    HW190511   2.784   4.102  14.800
29538SOL    HW290512   2.642   4.059  14.774
29539SOL     OW90513   1.285   0.420   8.514
29539SOL    HW190514   1.248   0.508   8.507
29539SOL    HW290515   1.225   0.373   8.572
29540SOL     OW90516   7.400  11.331  12.210
29540SOL    HW190517   7.401  11.423  12.236
29540SOL    HW290518   7.316  11.299  12.242
29541SOL     OW90519   2.126   1.186   4.983
29541SOL    HW190520   2.087   1.113   5.030
29541SOL    HW290521   2.159   1.148   4.901
29542SOL     OW90522   3.372   9.288  12.736
29542SOL    HW190523   3.327   9.338  12.668
29542SOL    HW290524   3.382   9.200  12.698
29543SOL     OW90525  11.842  11.794   9.452
29543SOL    HW190526  11.887  11.835   9.525
29543SOL    HW290527  11.751  11.786   9.481
29544SOL     OW90528  10.407  10.299   0.870
29544SOL    HW190529  10.443  10.232   0.929
29544SOL    HW290530  10.379  10.370   0.928
29545SOL     OW90531   4.089  12.194   0.054
29545SOL    HW190532   4.150  12.120   0.059
29545SOL    HW290533   4.090  12.231   0.143
29546SOL     OW90534   4.478   6.427   0.769
29546SOL    HW190535   4.404   6.404   0.712
29546SOL    HW290536   4.540   6.355   0.757
29547SOL     OW90537  13.481  13.204  13.939
29547SOL    HW190538  13.535  13.277  13.970
29547SOL    HW290539  13.420  13.187  14.011
29548SOL     OW90540   1.851   6.204   4.950
29548SOL    HW190541   1.802   6.123   4.939
29548SOL    HW290542   1.800   6.255   5.013
29549SOL     OW90543   2.108   3.529   6.882
29549SOL    HW190544   2.162   3.478   6.942
29549SOL    HW290545   2.127   3.492   6.796
29550SOL     OW90546   9.789   4.482   0.981
29550SOL    HW190547   9.845   4.475   1.059
29550SOL    HW290548   9.737   4.560   0.996
29551SOL     OW90549   2.069  10.180  10.056
29551SOL    HW190550   2.018  10.174   9.975
29551SOL    HW290551   2.098  10.271  10.059
29552SOL     OW90552   9.474   5.267   1.299
29552SOL    HW190553   9.500   5.177   1.318
29552SOL    HW290554   9.413   5.290   1.369
29553SOL     OW90555   6.242  12.623   6.066
29553SOL    HW190556   6.211  12.576   6.143
29553SOL    HW290557   6.320  12.669   6.096
29554SOL     OW90558   3.924   1.406  14.283
29554SOL    HW190559   3.968   1.444  14.207
29554SOL    HW290560   3.866   1.475  14.315
29555SOL     OW90561   0.619   4.469  11.391
29555SOL    HW190562   0.613   4.380  11.428
29555SOL    HW290563   0.659   4.456  11.305
29556SOL     OW90564   3.891   2.988   6.807
29556SOL    HW190565   3.804   2.949   6.791
29556SOL    HW290566   3.874   3.082   6.814
29557SOL     OW90567  10.158   7.619  12.094
29557SOL    HW190568  10.086   7.659  12.046
29557SOL    HW290569  10.233   7.676  12.078
29558SOL     OW90570   7.007   0.247   4.950
29558SOL    HW190571   6.973   0.197   4.876
29558SOL    HW290572   7.043   0.326   4.911
29559SOL     OW90573  10.364   9.700   3.192
29559SOL    HW190574  10.351   9.609   3.164
29559SOL    HW290575  10.434   9.695   3.257
29560SOL     OW90576   4.217   2.853  13.873
29560SOL    HW190577   4.164   2.821  13.800
29560SOL    HW290578   4.197   2.794  13.945
29561SOL     OW90579   3.974  10.963   8.218
29561SOL    HW190580   3.904  11.012   8.262
29561SOL    HW290581   4.052  10.981   8.270
29562SOL     OW90582  12.400   4.209   2.911
29562SOL    HW190583  12.437   4.125   2.939
29562SOL    HW290584  12.307   4.203   2.933
29563SOL     OW90585   5.818   0.690   6.907
29563SOL    HW190586   5.742   0.642   6.874
29563SOL    HW290587   5.848   0.637   6.981
29564SOL     OW90588   8.114   1.276  13.755
29564SOL    HW190589   8.197   1.259  13.798
29564SOL    HW290590   8.069   1.339  13.812
29565SOL     OW90591   8.699  10.110  10.952
29565SOL    HW190592   8.691  10.191  10.901
29565SOL    HW290593   8.689  10.041  10.887
29566SOL     OW90594  13.320  11.894  10.886
29566SOL    HW190595  13.400  11.869  10.933
29566SOL    HW290596  13.251  11.839  10.925
29567SOL     OW90597   9.698   4.825   3.973
29567SOL    HW190598   9.749   4.886   4.027
29567SOL    HW290599   9.746   4.822   3.890
29568SOL     OW90600  11.138   4.845   9.552
29568SOL    HW190601  11.164   4.792   9.628
29568SOL    HW290602  11.048   4.818   9.534
29569SOL     OW90603   3.839   3.068  13.616
29569SOL    HW190604   3.852   3.159  13.644
29569SOL    HW290605   3.805   3.023  13.694
29570SOL     OW90606   1.976   4.052   4.795
29570SOL    HW190607   1.966   4.147   4.804
29570SOL    HW290608   1.968   4.036   4.701
29571SOL     OW90609  12.166   5.845   7.024
29571SOL    HW190610  12.245   5.881   6.983
29571SOL    HW290611  12.095   5.902   6.994
29572SOL     OW90612   3.826   5.436   2.473
29572SOL    HW190613   3.878   5.450   2.553
29572SOL    HW290614   3.884   5.385   2.416
29573SOL     OW90615  10.080   6.175  12.559
29573SOL    HW190616  10.096   6.190  12.466
29573SOL    HW290617   9.985   6.163  12.565
29574SOL     OW90618  12.743  10.014   7.097
29574SOL    HW190619  12.702  10.072   7.032
29574SOL    HW290620  12.673   9.993   7.158
29575SOL     OW90621   0.692  14.422   3.344
29575SOL    HW190622   0.679  14.496   3.403
29575SOL    HW290623   0.644  14.447   3.264
29576SOL     OW90624   6.293   2.253   2.798
29576SOL    HW190625   6.212   2.239   2.848
29576SOL    HW290626   6.362   2.218   2.854
29577SOL     OW90627   0.564   6.576  10.936
29577SOL    HW190628   0.474   6.566  10.905
29577SOL    HW290629   0.616   6.519  10.878
29578SOL     OW90630   7.502  12.509  14.320
29578SOL    HW190631   7.472  12.448  14.254
29578SOL    HW290632   7.563  12.459  14.374
29579SOL     OW90633   4.409  13.504  11.222
29579SOL    HW190634   4.419  13.561  11.146
29579SOL    HW290635   4.463  13.544  11.290
29580SOL     OW90636  10.355  10.525   8.870
29580SOL    HW190637  10.390  10.566   8.791
29580SOL    HW290638  10.270  10.567   8.883
29581SOL     OW90639  14.046   6.824   7.084
29581SOL    HW190640  14.038   6.864   6.998
29581SOL    HW290641  14.028   6.731   7.069
29582SOL     OW90642   9.800   1.859   9.288
29582SOL    HW190643   9.890   1.827   9.282
29582SOL    HW290644   9.805   1.931   9.351
29583SOL     OW90645   0.749  11.286   6.287
29583SOL    HW190646   0.697  11.366   6.293
29583SOL    HW290647   0.685  11.216   6.273
29584SOL     OW90648   8.154   5.063  13.816
29584SOL    HW190649   8.180   5.152  13.839
29584SOL    HW290650   8.139   5.067  13.721
29585SOL     OW90651  14.246   1.721  14.700
29585SOL    HW190652  14.217   1.676  14.620
29585SOL    HW290653  14.333   1.755  14.678
29586SOL     OW90654   7.937   2.778   4.394
29586SOL    HW190655   7.870   2.814   4.452
29586SOL    HW290656   7.913   2.686   4.383
29587SOL     OW90657  11.123  14.069  12.980
29587SOL    HW190658  11.171  14.105  12.906
29587SOL    HW290659  11.190  14.036  13.039
29588SOL     OW90660   9.372  12.673   2.484
29588SOL    HW190661   9.458  12.648   2.449
29588SOL    HW290662   9.373  12.645   2.575
29589SOL     OW90663  13.585   2.924   4.797
29589SOL    HW190664  13.676   2.906   4.772
29589SOL    HW290665  13.544   2.958   4.718
29590SOL     OW90666  12.690   8.358  14.792
29590SOL    HW190667  12.721   8.277  14.834
29590SOL    HW290668  12.758   8.422  14.811
29591SOL     OW90669   7.195   2.906   8.137
29591SOL    HW190670   7.140   2.873   8.208
29591SOL    HW290671   7.135   2.912   8.062
29592SOL     OW90672   7.694   9.280   5.710
29592SOL    HW190673   7.613   9.299   5.758
29592SOL    HW290674   7.757   9.254   5.777
29593SOL     OW90675   9.283  14.517   8.958
29593SOL    HW190676   9.297  14.588   8.896
29593SOL    HW290677   9.196  14.483   8.937
29594SOL     OW90678   5.290  11.247   6.578
29594SOL    HW190679   5.302  11.185   6.650
29594SOL    HW290680   5.338  11.325   6.605
29595SOL     OW90681   4.685   1.807  14.021
29595SOL    HW190682   4.760   1.866  14.031
29595SOL    HW290683   4.658   1.788  14.111
29596SOL     OW90684  10.022   8.760  10.542
29596SOL    HW190685  10.043   8.729  10.630
29596SOL    HW290686   9.930   8.736  10.530
29597SOL     OW90687   8.111   5.565   4.523
29597SOL    HW190688   8.112   5.543   4.616
29597SOL    HW290689   8.019   5.579   4.502
29598SOL     OW90690   3.933   9.708  13.319
29598SOL    HW190691   3.981   9.627  13.300
29598SOL    HW290692   3.931   9.712  13.415
29599SOL     OW90693   3.583   3.995  14.034
29599SOL    HW190694   3.652   3.972  13.972
29599SOL    HW290695   3.599   3.939  14.110
29600SOL     OW90696  10.540  11.224  14.644
29600SOL    HW190697  10.560  11.308  14.685
29600SOL    HW290698  10.626  11.188  14.622
29601SOL     OW90699  13.455  13.651   7.766
29601SOL    HW190700  13.410  13.571   7.794
29601SOL    HW290701  13.471  13.637   7.673
29602SOL     OW90702   8.200   1.089   2.239
29602SOL    HW190703   8.265   1.037   2.288
29602SOL    HW290704   8.116   1.050   2.264
29603SOL     OW90705  11.440   2.779   9.707
29603SOL    HW190706  11.345   2.788   9.711
29603SOL    HW290707  11.457   2.696   9.751
29604SOL     OW90708   5.455  11.859   0.354
29604SOL    HW190709   5.495  11.782   0.395
29604SOL    HW290710   5.523  11.926   0.358
29605SOL     OW90711  14.300   6.763   9.683
29605SOL    HW190712  14.263   6.734   9.767
29605SOL    HW290713  14.336   6.683   9.644
29606SOL     OW90714  10.051   0.201   7.975
29606SOL    HW190715  10.134   0.158   7.994
29606SOL    HW290716   9.993   0.131   7.947
29607SOL     OW90717   5.215   2.602   2.816
29607SOL    HW190718   5.259   2.522   2.789
29607SOL    HW290719   5.246   2.618   2.906
29608SOL     OW90720   6.641   2.287   9.143
29608SOL    HW190721   6.611   2.377   9.134
29608SOL    HW290722   6.737   2.294   9.148
29609SOL     OW90723   9.174   3.545   5.003
29609SOL    HW190724   9.255   3.557   4.954
29609SOL    HW290725   9.106   3.581   4.946
29610SOL     OW90726  12.322   9.384   2.142
29610SOL    HW190727  12.345   9.346   2.057
29610SOL    HW290728  12.256   9.324   2.177
29611SOL     OW90729   4.515   8.438   4.247
29611SOL    HW190730   4.479   8.408   4.163
29611SOL    HW290731   4.587   8.377   4.265
29612SOL     OW90732   3.847   4.652   2.950
29612SOL    HW190733   3.814   4.741   2.934
29612SOL    HW290734   3.773   4.605   2.987
29613SOL     OW90735  11.289   9.826   1.876
29613SOL    HW190736  11.340   9.892   1.923
29613SOL    HW290737  11.199   9.857   1.881
29614SOL     OW90738   8.547  11.773   7.036
29614SOL    HW190739   8.637  11.757   7.063
29614SOL    HW290740   8.506  11.817   7.111
29615SOL     OW90741  12.464   8.974   0.628
29615SOL    HW190742  12.454   8.907   0.697
29615SOL    HW290743  12.539   9.026   0.656
29616SOL     OW90744   6.746   3.481   0.602
29616SOL    HW190745   6.721   3.430   0.525
29616SOL    HW290746   6.734   3.422   0.676
29617SOL     OW90747  14.039  12.977   4.908
29617SOL    HW190748  14.065  12.985   4.816
29617SOL    HW290749  13.998  12.890   4.913
29618SOL     OW90750  11.223   1.589   9.882
29618SOL    HW190751  11.212   1.570   9.975
29618SOL    HW290752  11.134   1.596   9.848
29619SOL     OW90753   3.871   7.719   2.650
29619SOL    HW190754   3.863   7.649   2.585
29619SOL    HW290755   3.877   7.673   2.734
29620SOL     OW90756   8.615   8.758   9.912
29620SOL    HW190757   8.641   8.683   9.966
29620SOL    HW290758   8.576   8.718   9.834
29621SOL     OW90759  11.988   2.521   6.419
29621SOL    HW190760  11.998   2.522   6.514
29621SOL    HW290761  12.062   2.469   6.388
29622SOL     OW90762   1.892   6.298   4.511
29622SOL    HW190763   1.928   6.212   4.533
29622SOL    HW290764   1.918   6.313   4.420
29623SOL     OW90765   8.012  13.605   0.455
29623SOL    HW190766   7.976  13.693   0.448
29623SOL    HW290767   8.064  13.594   0.375
29624SOL     OW90768  11.779   2.119   7.641
29624SOL    HW190769  11.699   2.115   7.692
29624SOL    HW290770  11.850   2.110   7.705
29625SOL     OW90771   8.534   6.574  12.283
29625SOL    HW190772   8.572   6.655  12.248
29625SOL    HW290773   8.443   6.596  12.301
29626SOL     OW90774   1.595   4.514   4.086
29626SOL    HW190775   1.565   4.601   4.112
29626SOL    HW290776   1.687   4.512   4.111
29627SOL     OW90777  10.461   5.138   5.619
29627SOL    HW190778  10.443   5.209   5.681
29627SOL    HW290779  10.456   5.058   5.673
29628SOL     OW90780   7.745  12.380   1.327
29628SOL    HW190781   7.742  12.476   1.326
29628SOL    HW290782   7.753  12.358   1.420
29629SOL     OW90783   5.813  10.076   1.764
29629SOL    HW190784   5.736  10.126   1.736
29629SOL    HW290785   5.780  10.015   1.830
29630SOL     OW90786   7.236   7.231   9.447
29630SOL    HW190787   7.265   7.270   9.530
29630SOL    HW290788   7.303   7.166   9.427
29631SOL     OW90789   1.412   8.650  11.459
29631SOL    HW190790   1.379   8.702  11.533
29631SOL    HW290791   1.367   8.686  11.383
29632SOL     OW90792   1.740   3.648   4.960
29632SOL    HW190793   1.822   3.694   4.978
29632SOL    HW290794   1.672   3.709   4.987
29633SOL     OW90795   4.495   6.889   7.203
29633SOL    HW190796   4.413   6.889   7.252
29633SOL    HW290797   4.550   6.952   7.248
29634SOL     OW90798   4.041   7.005   9.564
29634SOL    HW190799   4.067   7.075   9.624
29634SOL    HW290800   4.119   6.987   9.513
29635SOL     OW90801  12.916   5.857   9.708
29635SOL    HW190802  12.902   5.933   9.765
29635SOL    HW290803  12.963   5.795   9.762
29636SOL     OW90804  13.068  13.576   0.001
29636SOL    HW190805  13.163  13.578  14.874
29636SOL    HW290806  13.047  13.657   0.048
29637SOL     OW90807   7.990  13.165   4.909
29637SOL    HW190808   7.926  13.166   4.980
29637SOL    HW290809   7.957  13.100   4.848
29638SOL     OW90810  13.270   9.619   1.712
29638SOL    HW190811  13.321   9.659   1.782
29638SOL    HW290812  13.215   9.690   1.679
29639SOL     OW90813   7.601   2.037   0.736
29639SOL    HW190814   7.594   2.049   0.830
29639SOL    HW290815   7.691   2.008   0.722
29640SOL     OW90816  12.407   5.521  12.079
29640SOL    HW190817  12.321   5.480  12.064
29640SOL    HW290818  12.425   5.504  12.172
29641SOL     OW90819  10.923   7.782  12.138
29641SOL    HW190820  10.840   7.807  12.180
29641SOL    HW290821  10.956   7.709  12.192
29642SOL     OW90822   7.113   6.966   4.921
29642SOL    HW190823   7.059   6.904   4.873
29642SOL    HW290824   7.084   6.958   5.012
29643SOL     OW90825  13.071   8.109   0.162
29643SOL    HW190826  13.150   8.068   0.197
29643SOL    HW290827  12.999   8.058   0.200
29644SOL     OW90828   9.650   8.545   1.801
29644SOL    HW190829   9.721   8.482   1.810
29644SOL    HW290830   9.572   8.492   1.787
29645SOL     OW90831  12.448  10.357   2.177
29645SOL    HW190832  12.462  10.450   2.160
29645SOL    HW290833  12.536  10.319   2.182
29646SOL     OW90834   4.732  13.044  14.535
29646SOL    HW190835   4.667  12.979  14.560
29646SOL    HW290836   4.775  13.069  14.617
29647SOL     OW90837   6.686  10.263   3.567
29647SOL    HW190838   6.696  10.252   3.473
29647SOL    HW290839   6.658  10.354   3.578
29648SOL     OW90840  10.371   7.613   7.661
29648SOL    HW190841  10.443   7.566   7.619
29648SOL    HW290842  10.404   7.635   7.748
29649SOL     OW90843  10.008   7.124  11.539
29649SOL    HW190844   9.931   7.178  11.555
29649SOL    HW290845   9.973   7.044  11.500
29650SOL     OW90846  13.011   5.128  14.779
29650SOL    HW190847  12.975   5.075  14.707
29650SOL    HW290848  13.063   5.066  14.830
29651SOL     OW90849   1.996   2.052   2.652
29651SOL    HW190850   1.960   2.129   2.609
29651SOL    HW290851   1.921   2.011   2.695
29652SOL     OW90852   8.973   6.176   4.613
29652SOL    HW190853   8.944   6.261   4.582
29652SOL    HW290854   9.038   6.196   4.681
29653SOL     OW90855  11.031   3.663   5.412
29653SOL    HW190856  11.062   3.588   5.463
29653SOL    HW290857  10.939   3.643   5.395
29654SOL     OW90858   4.953  14.046   1.646
29654SOL    HW190859   4.942  14.118   1.584
29654SOL    HW290860   4.945  14.088   1.732
29655SOL     OW90861  14.456   0.562  11.575
29655SOL    HW190862  14.460   0.564  11.671
29655SOL    HW290863  14.409   0.642  11.551
29656SOL     OW90864   3.600  10.301   1.226
29656SOL    HW190865   3.598  10.305   1.131
29656SOL    HW290866   3.535  10.366   1.255
29657SOL     OW90867   8.190   2.269   6.844
29657SOL    HW190868   8.131   2.337   6.811
29657SOL    HW290869   8.275   2.312   6.849
29658SOL     OW90870   8.864   1.217   0.487
29658SOL    HW190871   8.896   1.243   0.573
29658SOL    HW290872   8.791   1.276   0.469
29659SOL     OW90873   7.793  10.945   4.504
29659SOL    HW190874   7.829  10.857   4.512
29659SOL    HW290875   7.834  10.980   4.424
29660SOL     OW90876   4.597  12.646   0.721
29660SOL    HW190877   4.620  12.720   0.777
29660SOL    HW290878   4.515  12.612   0.758
29661SOL     OW90879   0.018   1.403   2.316
29661SOL    HW190880  14.839   1.445   2.377
29661SOL    HW290881  14.873   1.434   2.230
29662SOL     OW90882   1.681   3.588  14.387
29662SOL    HW190883   1.773   3.574  14.366
29662SOL    HW290884   1.635   3.518  14.341
29663SOL     OW90885  10.473   4.630   3.061
29663SOL    HW190886  10.454   4.723   3.045
29663SOL    HW290887  10.387   4.589   3.066
29664SOL     OW90888  10.237  14.587  10.354
29664SOL    HW190889  10.272  14.652  10.414
29664SOL    HW290890  10.169  14.634  10.305
29665SOL     OW90891   2.370   4.306  11.493
29665SOL    HW190892   2.330   4.390  11.471
29665SOL    HW290893   2.338   4.287  11.581
29666SOL     OW90894  14.284   1.759   2.206
29666SOL    HW190895  14.227   1.689   2.238
29666SOL    HW290896  14.224   1.821   2.163
29667SOL     OW90897   9.076  11.799   0.597
29667SOL    HW190898   9.058  11.850   0.518
29667SOL    HW290899   8.989  11.779   0.632
29668SOL     OW90900   7.450   0.586   2.859
29668SOL    HW190901   7.498   0.649   2.913
29668SOL    HW290902   7.515   0.519   2.837
29669SOL     OW90903  14.363  11.388   6.722
29669SOL    HW190904  14.296  11.436   6.771
29669SOL    HW290905  14.318  11.311   6.689
29670SOL     OW90906  12.894   2.839   7.786
29670SOL    HW190907  12.814   2.890   7.778
29670SOL    HW290908  12.865   2.752   7.814
29671SOL     OW90909   7.349  13.167   8.591
29671SOL    HW190910   7.257  13.174   8.618
29671SOL    HW290911   7.353  13.210   8.506
29672SOL     OW90912  12.775   8.853   2.538
29672SOL    HW190913  12.804   8.787   2.476
29672SOL    HW290914  12.691   8.819   2.571
29673SOL     OW90915   9.561  14.807   9.144
29673SOL    HW190916   9.560  14.753   9.223
29673SOL    HW290917   9.501  14.878   9.163
29674SOL     OW90918   6.302  10.792  11.536
29674SOL    HW190919   6.307  10.799  11.631
29674SOL    HW290920   6.341  10.707  11.516
29675SOL     OW90921   5.436  13.086   8.926
29675SOL    HW190922   5.491  13.034   8.867
29675SOL    HW290923   5.364  13.027   8.949
29676SOL     OW90924   8.988   5.733   3.826
29676SOL    HW190925   8.985   5.669   3.897
29676SOL    HW290926   8.921   5.797   3.849
29677SOL     OW90927   8.004   0.643  13.924
29677SOL    HW190928   8.099   0.646  13.935
29677SOL    HW290929   7.982   0.550  13.928
29678SOL     OW90930  10.839  12.915  10.030
29678SOL    HW190931  10.928  12.898  10.061
29678SOL    HW290932  10.798  12.961  10.103
29679SOL     OW90933  14.320   6.946   7.516
29679SOL    HW190934  14.364   6.861   7.519
29679SOL    HW290935  14.268   6.944   7.435
29680SOL     OW90936  14.488   9.697  10.928
29680SOL    HW190937  14.486   9.641  10.851
29680SOL    HW290938  14.478   9.636  11.002
29681SOL     OW90939  10.509  11.983  14.140
29681SOL    HW190940  10.559  12.033  14.075
29681SOL    HW290941  10.511  12.038  14.218
29682SOL     OW90942   3.567  14.614   2.166
29682SOL    HW190943   3.591  14.599   2.257
29682SOL    HW290944   3.580  14.708   2.153
29683SOL     OW90945   6.541   7.794  11.794
29683SOL    HW190946   6.560   7.796  11.700
29683SOL    HW290947   6.591   7.719  11.827
29684SOL     OW90948  11.450  14.835  14.596
29684SOL    HW190949  11.356  14.840  14.614
29684SOL    HW290950  11.470   0.036  14.554
29685SOL     OW90951   4.964   1.524   7.619
29685SOL    HW190952   4.948   1.449   7.675
29685SOL    HW290953   4.879   1.542   7.578
29686SOL     OW90954   0.063   9.147   2.863
29686SOL    HW190955  14.864   9.197   2.870
29686SOL    HW290956   0.036   9.056   2.868
29687SOL     OW90957   6.678   4.938   6.518
29687SOL    HW190958   6.760   4.988   6.509
29687SOL    HW290959   6.616   4.985   6.462
29688SOL     OW90960  13.218  12.726   0.495
29688SOL    HW190961  13.257  12.813   0.505
29688SOL    HW290962  13.162  12.716   0.573
29689SOL     OW90963   6.547   2.845   5.509
29689SOL    HW190964   6.632   2.874   5.542
29689SOL    HW290965   6.567   2.795   5.430
29690SOL     OW90966   1.847  14.729   6.789
29690SOL    HW190967   1.796  14.668   6.842
29690SOL    HW290968   1.783  14.767   6.728
29691SOL     OW90969   4.453   8.123  13.628
29691SOL    HW190970   4.519   8.129  13.697
29691SOL    HW290971   4.369   8.129  13.674
29692SOL     OW90972  12.582   9.839   3.275
29692SOL    HW190973  12.525   9.885   3.337
29692SOL    HW290974  12.604   9.905   3.210
29693SOL     OW90975   5.426  14.427   4.370
29693SOL    HW190976   5.352  14.372   4.344
29693SOL    HW290977   5.465  14.456   4.288
29694SOL     OW90978  11.385  10.424   0.051
29694SOL    HW190979  11.393  10.431  14.838
29694SOL    HW290980  11.474  10.408   0.082
29695SOL     OW90981   3.112   5.841  14.106
29695SOL    HW190982   3.145   5.776  14.045
29695SOL    HW290983   3.190   5.884  14.141
29696SOL     OW90984   6.509   2.779  14.221
29696SOL    HW190985   6.413   2.777  14.230
29696SOL    HW290986   6.534   2.687  14.227
29697SOL     OW90987   7.580  10.710   8.375
29697SOL    HW190988   7.547  10.786   8.327
29697SOL    HW290989   7.534  10.635   8.337
29698SOL     OW90990   6.981   2.497   2.600
29698SOL    HW190991   6.914   2.497   2.669
29698SOL    HW290992   6.955   2.569   2.542
29699SOL     OW90993  12.261  14.075  12.603
29699SOL    HW190994  12.342  14.041  12.641
29699SOL    HW290995  12.224  14.000  12.556
29700SOL     OW90996   7.869   1.750   0.436
29700SOL    HW190997   7.855   1.844   0.427
29700SOL    HW290998   7.842   1.713   0.352
29701SOL     OW90999   4.540  14.019  14.275
29701SOL    HW191000   4.527  14.064  14.358
29701SOL    HW291001   4.498  14.075  14.210
29702SOL     OW91002   9.832   4.889  10.735
29702SOL    HW191003   9.897   4.906  10.803
29702SOL    HW291004   9.756   4.942  10.761
29703SOL     OW91005   7.626   5.150   7.005
29703SOL    HW191006   7.639   5.055   7.004
29703SOL    HW291007   7.650   5.179   6.917
29704SOL     OW91008  13.934   3.067   3.785
29704SOL    HW191009  13.949   2.979   3.821
29704SOL    HW291010  13.973   3.064   3.698
29705SOL     OW91011   2.125   6.636   8.771
29705SOL    HW191012   2.165   6.614   8.687
29705SOL    HW291013   2.153   6.566   8.830
29706SOL     OW91014   4.742   5.233   8.193
29706SOL    HW191015   4.828   5.197   8.170
29706SOL    HW291016   4.720   5.191   8.276
29707SOL     OW91017   5.399   4.389  14.572
29707SOL    HW191018   5.404   4.395  14.667
29707SOL    HW291019   5.488   4.367  14.544
29708SOL     OW91020   3.022  12.637  14.339
29708SOL    HW191021   2.928  12.628  14.329
29708SOL    HW291022   3.051  12.550  14.367
29709SOL     OW91023   2.992   5.401   5.607
29709SOL    HW191024   3.062   5.449   5.652
29709SOL    HW291025   2.965   5.334   5.670
29710SOL     OW91026  14.629   9.797  10.287
29710SOL    HW191027  14.561   9.784  10.221
29710SOL    HW291028  14.593   9.863  10.346
29711SOL     OW91029  12.809   6.983   0.526
29711SOL    HW191030  12.833   7.076   0.521
29711SOL    HW291031  12.732   6.976   0.470
29712SOL     OW91032   7.963  14.712   9.572
29712SOL    HW191033   7.948  14.767   9.649
29712SOL    HW291034   8.059  14.705   9.566
29713SOL     OW91035  10.092   7.665   5.526
29713SOL    HW191036  10.135   7.655   5.441
29713SOL    HW291037  10.065   7.576   5.550
29714SOL     OW91038  11.893   4.990   5.274
29714SOL    HW191039  11.809   4.976   5.229
29714SOL    HW291040  11.958   4.948   5.218
29715SOL     OW91041   5.920  12.451   5.224
29715SOL    HW191042   5.851  12.455   5.158
29715SOL    HW291043   5.876  12.474   5.306
29716SOL     OW91044   8.474  14.212   1.995
29716SOL    HW191045   8.511  14.125   1.976
29716SOL    HW291046   8.392  14.194   2.041
29717SOL     OW91047  12.577   7.154   5.811
29717SOL    HW191048  12.673   7.157   5.807
29717SOL    HW291049  12.557   7.143   5.904
29718SOL     OW91050   4.669   0.429   4.876
29718SOL    HW191051   4.725   0.506   4.867
29718SOL    HW291052   4.605   0.453   4.943
29719SOL     OW91053   5.508   1.388   7.410
29719SOL    HW191054   5.466   1.474   7.412
29719SOL    HW291055   5.463   1.338   7.477
29720SOL     OW91056  11.125   0.893   0.688
29720SOL    HW191057  11.209   0.917   0.648
29720SOL    HW291058  11.059   0.928   0.629
29721SOL     OW91059   7.515   6.776   9.454
29721SOL    HW191060   7.483   6.694   9.492
29721SOL    HW291061   7.551   6.824   9.529
29722SOL     OW91062  13.239  13.128   6.555
29722SOL    HW191063  13.144  13.137   6.567
29722SOL    HW291064  13.255  13.034   6.564
29723SOL     OW91065   1.934   0.068   1.868
29723SOL    HW191066   2.027   0.059   1.846
29723SOL    HW291067   1.926   0.156   1.905
29724SOL     OW91068  10.096  10.182   0.569
29724SOL    HW191069  10.081  10.098   0.526
29724SOL    HW291070  10.008  10.216   0.586
29725SOL     OW91071   7.674   1.907   5.536
29725SOL    HW191072   7.649   1.901   5.628
29725SOL    HW291073   7.593   1.931   5.491
29726SOL     OW91074   9.097  10.985   3.298
29726SOL    HW191075   9.132  11.021   3.380
29726SOL    HW291076   9.146  10.904   3.284
29727SOL     OW91077  12.330   2.490   6.663
29727SOL    HW191078  12.240   2.481   6.629
29727SOL    HW291079  12.385   2.463   6.589
29728SOL     OW91080  14.425   2.182  12.582
29728SOL    HW191081  14.340   2.170  12.624
29728SOL    HW291082  14.423   2.271  12.549
29729SOL     OW91083   0.650  11.759   7.886
29729SOL    HW191084   0.677  11.699   7.816
29729SOL    HW291085   0.608  11.703   7.951
29730SOL     OW91086  11.706   9.291   8.839
29730SOL    HW191087  11.640   9.223   8.822
29730SOL    HW291088  11.661   9.373   8.819
29731SOL     OW91089  12.292  10.137  12.424
29731SOL    HW191090  12.373  10.177  12.457
29731SOL    HW291091  12.296  10.150  12.329
29732SOL     OW91092   3.120   8.129   3.948
29732SOL    HW191093   3.212   8.118   3.972
29732SOL    HW291094   3.121   8.135   3.852
29733SOL     OW91095   6.824  13.352   4.532
29733SOL    HW191096   6.750  13.293   4.522
29733SOL    HW291097   6.803  13.427   4.478
29734SOL     OW91098   2.467  12.700   6.851
29734SOL    HW191099   2.378  12.731   6.833
29734SOL    HW291100   2.507  12.771   6.902
29735SOL     OW91101   8.714   9.832  11.313
29735SOL    HW191102   8.622   9.857  11.309
29735SOL    HW291103   8.731   9.787  11.230
29736SOL     OW91104   3.532  11.085  10.603
29736SOL    HW191105   3.541  11.106  10.696
29736SOL    HW291106   3.470  11.149  10.569
29737SOL     OW91107   2.908  11.446   7.698
29737SOL    HW191108   2.917  11.364   7.650
29737SOL    HW291109   2.927  11.514   7.633
29738SOL     OW91110   6.073   2.532   1.537
29738SOL    HW191111   6.113   2.507   1.621
29738SOL    HW291112   6.139   2.587   1.495
29739SOL     OW91113   1.860   3.397   9.971
29739SOL    HW191114   1.910   3.478   9.964
29739SOL    HW291115   1.917   3.337  10.017
29740SOL     OW91116  11.583   4.430   3.183
29740SOL    HW191117  11.672   4.445   3.215
29740SOL    HW291118  11.536   4.510   3.204
29741SOL     OW91119   1.660   7.440   4.742
29741SOL    HW191120   1.729   7.441   4.808
29741SOL    HW291121   1.633   7.348   4.738
29742SOL     OW91122  10.226   0.456   3.236
29742SOL    HW191123  10.161   0.387   3.240
29742SOL    HW291124  10.274   0.449   3.319
29743SOL     OW91125   8.129  12.640  12.699
29743SOL    HW191126   8.138  12.593  12.782
29743SOL    HW291127   8.193  12.711  12.705
29744SOL     OW91128   7.117   0.021  12.821
29744SOL    HW191129   7.138   0.114  12.820
29744SOL    HW291130   7.030   0.016  12.781
29745SOL     OW91131   9.987   1.645   2.157
29745SOL    HW191132  10.018   1.727   2.120
29745SOL    HW291133  10.060   1.613   2.210
29746SOL     OW91134  12.238   0.501   3.782
29746SOL    HW191135  12.240   0.541   3.695
29746SOL    HW291136  12.328   0.507   3.814
29747SOL     OW91137  13.459  10.955   0.766
29747SOL    HW191138  13.548  10.960   0.732
29747SOL    HW291139  13.462  10.888   0.834
29748SOL     OW91140   7.539   0.078  12.137
29748SOL    HW191141   7.549   0.016  12.064
29748SOL    HW291142   7.444   0.089  12.145
29749SOL     OW91143  11.021  14.796   0.236
29749SOL    HW191144  11.014  14.708   0.201
29749SOL    HW291145  11.067  14.845   0.168
29750SOL     OW91146  13.445   2.352  10.516
29750SOL    HW191147  13.453   2.391  10.429
29750SOL    HW291148  13.419   2.261  10.499
29751SOL     OW91149   1.372  11.754  10.667
29751SOL    HW191150   1.363  11.766  10.762
29751SOL    HW291151   1.361  11.660  10.654
29752SOL     OW91152   6.500   8.334  12.960
29752SOL    HW191153   6.513   8.247  12.924
29752SOL    HW291154   6.555   8.391  12.906
29753SOL     OW91155   3.816   0.512  11.381
29753SOL    HW191156   3.831   0.572  11.454
29753SOL    HW291157   3.789   0.430  11.423
29754SOL     OW91158   0.696  12.865   6.954
29754SOL    HW191159   0.723  12.819   6.875
29754SOL    HW291160   0.643  12.938   6.922
29755SOL     OW91161   3.007  12.731   4.979
29755SOL    HW191162   2.972  12.818   5.000
29755SOL    HW291163   3.092  12.748   4.939
29756SOL     OW91164   5.911  11.481  12.555
29756SOL    HW191165   5.911  11.482  12.651
29756SOL    HW291166   5.981  11.542  12.531
29757SOL     OW91167  10.551  13.586  11.853
29757SOL    HW191168  10.645  13.601  11.863
29757SOL    HW291169  10.525  13.644  11.782
29758SOL     OW91170   1.815   5.184   9.920
29758SOL    HW191171   1.810   5.267   9.873
29758SOL    HW291172   1.888   5.138   9.879
29759SOL     OW91173  13.140   7.225  10.730
29759SOL    HW191174  13.173   7.313  10.710
29759SOL    HW291175  13.145   7.179  10.646
29760SOL     OW91176   7.799   2.787   6.788
29760SOL    HW191177   7.876   2.757   6.836
29760SOL    HW291178   7.729   2.729   6.817
29761SOL     OW91179  12.007   1.765   8.006
29761SOL    HW191180  11.985   1.688   8.058
29761SOL    HW291181  11.948   1.762   7.931
29762SOL     OW91182   9.771   2.797   7.897
29762SOL    HW191183   9.760   2.855   7.972
29762SOL    HW291184   9.812   2.718   7.933
29763SOL     OW91185   2.224   7.897  13.231
29763SOL    HW191186   2.233   7.880  13.138
29763SOL    HW291187   2.302   7.859  13.271
29764SOL     OW91188   3.897   1.980   2.817
29764SOL    HW191189   3.866   2.005   2.904
29764SOL    HW291190   3.820   1.942   2.774
29765SOL     OW91191   9.271   8.197   7.961
29765SOL    HW191192   9.277   8.102   7.954
29765SOL    HW291193   9.207   8.212   8.031
29766SOL     OW91194   1.606   3.787  10.265
29766SOL    HW191195   1.570   3.701  10.285
29766SOL    HW291196   1.617   3.787  10.170
29767SOL     OW91197   1.882   9.082  10.059
29767SOL    HW191198   1.931   9.108   9.981
29767SOL    HW291199   1.935   9.013  10.099
29768SOL     OW91200   3.286   5.709   7.401
29768SOL    HW191201   3.195   5.728   7.379
29768SOL    HW291202   3.315   5.783   7.454
29769SOL     OW91203  11.225   3.704   6.662
29769SOL    HW191204  11.157   3.655   6.709
29769SOL    HW291205  11.231   3.661   6.577
29770SOL     OW91206  13.366  10.417  13.638
29770SOL    HW191207  13.347  10.431  13.545
29770SOL    HW291208  13.414  10.494  13.665
29771SOL     OW91209  11.120  11.562  13.420
29771SOL    HW191210  11.089  11.615  13.493
29771SOL    HW291211  11.052  11.496  13.408
29772SOL     OW91212   5.636  14.042   0.097
29772SOL    HW191213   5.586  14.026   0.017
29772SOL    HW291214   5.595  14.120   0.135
29773SOL     OW91215   0.007  14.827   5.705
29773SOL    HW191216  14.828  14.835   5.632
29773SOL    HW291217   0.070   0.016   5.693
29774SOL     OW91218  14.281   5.723  14.488
29774SOL    HW191219  14.325   5.641  14.512
29774SOL    HW291220  14.196   5.718  14.531
29775SOL     OW91221   2.803  13.002   1.354
29775SOL    HW191222   2.856  13.031   1.279
29775SOL    HW291223   2.781  13.083   1.400
29776SOL     OW91224   6.708   7.218  14.412
29776SOL    HW191225   6.785   7.197  14.466
29776SOL    HW291226   6.656   7.138  14.413
29777SOL     OW91227   4.147   4.746   3.014
29777SOL    HW191228   4.116   4.671   3.064
29777SOL    HW291229   4.227   4.774   3.059
29778SOL     OW91230   1.185   2.013   8.525
29778SOL    HW191231   1.118   2.077   8.502
29778SOL    HW291232   1.167   1.990   8.616
29779SOL     OW91233  14.124  11.795   0.648
29779SOL    HW191234  14.112  11.702   0.632
29779SOL    HW291235  14.081  11.811   0.732
29780SOL     OW91236  10.796  13.777   8.417
29780SOL    HW191237  10.700  13.775   8.417
29780SOL    HW291238  10.820  13.760   8.508
29781SOL     OW91239  11.379   6.570   5.317
29781SOL    HW191240  11.450   6.539   5.372
29781SOL    HW291241  11.311   6.503   5.326
29782SOL     OW91242   5.686  10.153  11.783
29782SOL    HW191243   5.705  10.119  11.695
29782SOL    HW291244   5.711  10.082  11.842
29783SOL     OW91245   1.886   4.098   1.503
29783SOL    HW191246   1.892   4.092   1.407
29783SOL    HW291247   1.917   4.187   1.523
29784SOL     OW91248  12.025   1.857  11.946
29784SOL    HW191249  12.004   1.948  11.965
29784SOL    HW291250  11.942   1.820  11.914
29785SOL     OW91251   6.112  10.440   3.855
29785SOL    HW191252   6.082  10.427   3.766
29785SOL    HW291253   6.200  10.402   3.856
29786SOL     OW91254  10.359   5.891   8.085
29786SOL    HW191255  10.452   5.911   8.082
29786SOL    HW291256  10.342   5.840   8.006
29787SOL     OW91257   0.857  11.275  14.865
29787SOL    HW191258   0.911  11.351  14.846
29787SOL    HW291259   0.876  11.214  14.793
29788SOL     OW91260  11.574   2.186   0.669
29788SOL    HW191261  11.485   2.172   0.638
29788SOL    HW291262  11.570   2.269   0.716
29789SOL     OW91263   8.555   1.577   5.975
29789SOL    HW191264   8.624   1.553   5.913
29789SOL    HW291265   8.475   1.540   5.936
29790SOL     OW91266  10.578   5.092   3.143
29790SOL    HW191267  10.654   5.063   3.093
29790SOL    HW291268  10.558   5.179   3.108
29791SOL     OW91269   7.130   4.811  11.676
29791SOL    HW191270   7.069   4.833  11.746
29791SOL    HW291271   7.104   4.723  11.648
29792SOL     OW91272   8.583   6.847   5.295
29792SOL    HW191273   8.637   6.832   5.373
29792SOL    HW291274   8.494   6.859   5.330
29793SOL     OW91275  13.713   9.889  11.527
29793SOL    HW191276  13.751   9.959  11.579
29793SOL    HW291277  13.674   9.933  11.451
29794SOL     OW91278   8.708   0.120   9.927
29794SOL    HW191279   8.743   0.097  10.013
29794SOL    HW291280   8.754   0.062   9.866
29795SOL     OW91281   9.395  10.063   0.660
29795SOL    HW191282   9.309  10.043   0.695
29795SOL    HW291283   9.382  10.140   0.605
29796SOL     OW91284   8.824  12.563  10.771
29796SOL    HW191285   8.784  12.608  10.846
29796SOL    HW291286   8.810  12.623  10.698
29797SOL     OW91287   7.716   1.034   3.724
29797SOL    HW191288   7.656   1.004   3.655
29797SOL    HW291289   7.799   1.047   3.678
29798SOL     OW91290   4.144   5.698   9.618
29798SOL    HW191291   4.167   5.766   9.554
29798SOL    HW291292   4.075   5.648   9.576
29799SOL     OW91293   0.645   4.983  13.758
29799SOL    HW191294   0.682   4.903  13.795
29799SOL    HW291295   0.631   5.040  13.833
29800SOL     OW91296  12.096   0.239   5.870
29800SOL    HW191297  12.105   0.274   5.781
29800SOL    HW291298  12.186   0.234   5.903
29801SOL     OW91299   3.169   9.571  10.111
29801SOL    HW191300   3.125   9.639  10.061
29801SOL    HW291301   3.216   9.617  10.180
29802SOL     OW91302   2.128   0.840   6.995
29802SOL    HW191303   2.033   0.848   6.988
29802SOL    HW291304   2.142   0.757   7.041
29803SOL     OW91305   7.955  10.055   2.370
29803SOL    HW191306   7.902  10.114   2.424
29803SOL    HW291307   8.003  10.113   2.311
29804SOL     OW91308   4.296   3.241  11.498
29804SOL    HW191309   4.318   3.214  11.586
29804SOL    HW291310   4.380   3.260  11.456
29805SOL     OW91311   9.869  10.166  10.001
29805SOL    HW191312   9.963  10.179   9.987
29805SOL    HW291313   9.841  10.112   9.927
29806SOL     OW91314   1.580   2.153  12.682
29806SOL    HW191315   1.525   2.171  12.759
29806SOL    HW291316   1.651   2.217  12.689
29807SOL     OW91317  11.050   3.325   2.869
29807SOL    HW191318  11.145   3.340   2.868
29807SOL    HW291319  11.017   3.371   2.792
29808SOL     OW91320   5.547   8.078   8.415
29808SOL    HW191321   5.565   8.154   8.470
29808SOL    HW291322   5.454   8.059   8.428
29809SOL     OW91323  10.327   3.704   5.868
29809SOL    HW191324  10.318   3.629   5.928
29809SOL    HW291325  10.257   3.692   5.803
29810SOL     OW91326  13.745  14.205   8.052
29810SOL    HW191327  13.795  14.285   8.068
29810SOL    HW291328  13.811  14.136   8.043
29811SOL     OW91329   8.965   7.247   3.095
29811SOL    HW191330   8.921   7.174   3.137
29811SOL    HW291331   8.901   7.318   3.096
29812SOL     OW91332  10.345   6.551  14.016
29812SOL    HW191333  10.415   6.563  14.081
29812SOL    HW291334  10.392   6.534  13.935
29813SOL     OW91335   0.492   9.041   1.209
29813SOL    HW191336   0.489   9.077   1.298
29813SOL    HW291337   0.585   9.029   1.191
29814SOL     OW91338   0.380  10.381   3.311
29814SOL    HW191339   0.367  10.289   3.289
29814SOL    HW291340   0.474  10.390   3.328
29815SOL     OW91341   5.817  11.590  13.627
29815SOL    HW191342   5.810  11.680  13.597
29815SOL    HW291343   5.909  11.567  13.615
29816SOL     OW91344   5.265  14.128   1.031
29816SOL    HW191345   5.352  14.119   0.993
29816SOL    HW291346   5.261  14.060   1.098
29817SOL     OW91347   3.209  11.118   0.947
29817SOL    HW191348   3.174  11.181   1.011
29817SOL    HW291349   3.182  11.033   0.981
29818SOL     OW91350   5.394   6.693   2.024
29818SOL    HW191351   5.331   6.644   1.971
29818SOL    HW291352   5.343   6.722   2.100
29819SOL     OW91353   5.027  11.038   6.126
29819SOL    HW191354   5.067  11.081   6.050
29819SOL    HW291355   5.084  11.061   6.199
29820SOL     OW91356   9.355  11.486   0.809
29820SOL    HW191357   9.341  11.519   0.898
29820SOL    HW291358   9.451  11.484   0.800
29821SOL     OW91359   1.593  12.093   2.183
29821SOL    HW191360   1.669  12.067   2.131
29821SOL    HW291361   1.533  12.132   2.119
29822SOL     OW91362   8.014   8.293   7.192
29822SOL    HW191363   7.973   8.212   7.222
29822SOL    HW291364   7.950   8.361   7.211
29823SOL     OW91365   2.236   9.069   1.248
29823SOL    HW191366   2.257   9.128   1.175
29823SOL    HW291367   2.321   9.036   1.277
29824SOL     OW91368   8.184  10.928   7.252
29824SOL    HW191369   8.162  10.839   7.223
29824SOL    HW291370   8.112  10.952   7.310
29825SOL     OW91371   9.247   5.318   5.335
29825SOL    HW191372   9.332   5.313   5.379
29825SOL    HW291373   9.251   5.249   5.268
29826SOL     OW91374   4.436   8.805   9.446
29826SOL    HW191375   4.369   8.809   9.377
29826SOL    HW291376   4.454   8.897   9.467
29827SOL     OW91377  14.134   6.336   1.179
29827SOL    HW191378  14.058   6.393   1.184
29827SOL    HW291379  14.159   6.336   1.087
29828SOL     OW91380   8.175   4.715  10.985
29828SOL    HW191381   8.112   4.644  10.987
29828SOL    HW291382   8.239   4.693  11.053
29829SOL     OW91383   2.645   9.366  13.163
29829SOL    HW191384   2.648   9.317  13.245
29829SOL    HW291385   2.693   9.312  13.101
29830SOL     OW91386   2.479  14.347  11.474
29830SOL    HW191387   2.519  14.434  11.471
29830SOL    HW291388   2.476  14.319  11.382
29831SOL     OW91389   9.964  13.002  12.317
29831SOL    HW191390   9.889  13.043  12.361
29831SOL    HW291391  10.033  13.000  12.384
29832SOL     OW91392   4.821   5.206   4.599
29832SOL    HW191393   4.884   5.199   4.527
29832SOL    HW291394   4.736   5.186   4.560
29833SOL     OW91395   0.844   0.432  11.199
29833SOL    HW191396   0.823   0.499  11.264
29833SOL    HW291397   0.888   0.480  11.129
29834SOL     OW91398   3.000   1.981   8.484
29834SOL    HW191399   2.999   2.076   8.499
29834SOL    HW291400   2.948   1.969   8.405
29835SOL     OW91401   0.054   8.155  12.048
29835SOL    HW191402   0.022   8.240  12.079
29835SOL    HW291403   0.067   8.103  12.127
29836SOL     OW91404   6.922   5.837   1.191
29836SOL    HW191405   6.992   5.819   1.253
29836SOL    HW291406   6.883   5.919   1.223
29837SOL     OW91407   9.003   9.145   3.051
29837SOL    HW191408   9.029   9.060   3.015
29837SOL    HW291409   9.072   9.167   3.113
29838SOL     OW91410   3.917   3.715   2.473
29838SOL    HW191411   3.900   3.784   2.408
29838SOL    HW291412   3.890   3.634   2.430
29839SOL     OW91413   9.481  12.441   6.752
29839SOL    HW191414   9.471  12.346   6.755
29839SOL    HW291415   9.455  12.470   6.840
29840SOL     OW91416   4.784  10.537  12.898
29840SOL    HW191417   4.839  10.459  12.908
29840SOL    HW291418   4.795  10.586  12.979
29841SOL     OW91419   2.344   3.845  10.287
29841SOL    HW191420   2.249   3.845  10.297
29841SOL    HW291421   2.375   3.911  10.349
29842SOL     OW91422   0.589   1.317  11.762
29842SOL    HW191423   0.501   1.291  11.736
29842SOL    HW291424   0.630   1.236  11.793
29843SOL     OW91425  14.855  12.593   3.801
29843SOL    HW191426  14.799  12.655   3.849
29843SOL    HW291427  14.848  12.511   3.850
29844SOL     OW91428   2.620  14.294  13.897
29844SOL    HW191429   2.531  14.313  13.924
29844SOL    HW291430   2.670  14.290  13.979
29845SOL     OW91431   6.617   6.427  10.717
29845SOL    HW191432   6.579   6.508  10.751
29845SOL    HW291433   6.707   6.452  10.692
29846SOL     OW91434   5.233   3.499   1.716
29846SOL    HW191435   5.302   3.432   1.719
29846SOL    HW291436   5.172   3.473   1.785
29847SOL     OW91437   3.100   1.934  12.137
29847SOL    HW191438   3.157   1.979  12.199
29847SOL    HW291439   3.023   1.908  12.188
29848SOL     OW91440  10.381   2.635   9.950
29848SOL    HW191441  10.436   2.641  10.028
29848SOL    HW291442  10.430   2.683   9.882
29849SOL     OW91443  10.750  13.952  14.774
29849SOL    HW191444  10.737  13.943  14.679
29849SOL    HW291445  10.824  13.893  14.793
29850SOL     OW91446   9.646   3.379   0.965
29850SOL    HW191447   9.589   3.443   1.008
29850SOL    HW291448   9.590   3.303   0.951
29851SOL     OW91449  14.819   7.696   6.588
29851SOL    HW191450  14.857   7.711   6.501
29851SOL    HW291451  14.762   7.620   6.576
29852SOL     OW91452  14.562   5.894  12.875
29852SOL    HW191453  14.550   5.913  12.968
29852SOL    HW291454  14.554   5.980  12.832
29853SOL     OW91455   4.391   8.076   9.066
29853SOL    HW191456   4.407   8.112   9.153
29853SOL    HW291457   4.405   8.150   9.007
29854SOL     OW91458   9.128   8.182   0.365
29854SOL    HW191459   9.064   8.168   0.435
29854SOL    HW291460   9.075   8.206   0.288
29855SOL     OW91461  10.591   4.579   0.711
29855SOL    HW191462  10.501   4.558   0.733
29855SOL    HW291463  10.636   4.494   0.711
29856SOL     OW91464  10.127   7.299   0.493
29856SOL    HW191465  10.037   7.301   0.460
29856SOL    HW291466  10.128   7.229   0.558
29857SOL     OW91467   7.714  11.806   4.759
29857SOL    HW191468   7.795  11.756   4.751
29857SOL    HW291469   7.717  11.869   4.688
29858SOL     OW91470   0.019  11.442   1.539
29858SOL    HW191471  14.855  11.516   1.500
29858SOL    HW291472  14.832  11.381   1.565
29859SOL     OW91473   2.048   9.261   7.445
29859SOL    HW191474   2.101   9.218   7.376
29859SOL    HW291475   1.967   9.211   7.446
29860SOL     OW91476  11.460  10.785   2.730
29860SOL    HW191477  11.543  10.770   2.683
29860SOL    HW291478  11.483  10.847   2.799
29861SOL     OW91479   8.551   5.488   7.436
29861SOL    HW191480   8.514   5.501   7.523
29861SOL    HW291481   8.529   5.568   7.388
29862SOL     OW91482   3.142   7.864   4.820
29862SOL    HW191483   3.237   7.870   4.837
29862SOL    HW291484   3.127   7.772   4.800
29863SOL     OW91485   2.128   1.585  14.234
29863SOL    HW191486   2.088   1.499  14.248
29863SOL    HW291487   2.180   1.600  14.312
29864SOL     OW91488   5.175   5.402   3.718
29864SOL    HW191489   5.193   5.369   3.630
29864SOL    HW291490   5.251   5.456   3.740
29865SOL     OW91491  13.583   8.882   9.203
29865SOL    HW191492  13.553   8.953   9.260
29865SOL    HW291493  13.517   8.813   9.212
29866SOL     OW91494   5.039  11.475   8.588
29866SOL    HW191495   5.098  11.426   8.646
29866SOL    HW291496   4.997  11.407   8.535
29867SOL     OW91497   9.082   5.831   8.971
29867SOL    HW191498   9.167   5.847   9.012
29867SOL    HW291499   9.019   5.871   9.032
29868SOL     OW91500  10.450   2.580  12.787
29868SOL    HW191501  10.371   2.626  12.758
29868SOL    HW291502  10.504   2.574  12.708
29869SOL     OW91503   1.344   8.375  14.447
29869SOL    HW191504   1.337   8.318  14.370
29869SOL    HW291505   1.287   8.449  14.428
29870SOL     OW91506   6.175   1.430   1.990
29870SOL    HW191507   6.231   1.391   1.923
29870SOL    HW291508   6.125   1.497   1.943
29871SOL     OW91509  12.656  14.421   6.380
29871SOL    HW191510  12.729  14.399   6.321
29871SOL    HW291511  12.678  14.508   6.414
29872SOL     OW91512  10.428   7.987   2.088
29872SOL    HW191513  10.491   8.014   2.155
29872SOL    HW291514  10.344   7.984   2.135
29873SOL     OW91515  11.762   1.333   9.354
29873SOL    HW191516  11.791   1.341   9.263
29873SOL    HW291517  11.822   1.389   9.403
29874SOL     OW91518  12.475   5.854   2.340
29874SOL    HW191519  12.403   5.791   2.347
29874SOL    HW291520  12.437   5.928   2.293
29875SOL     OW91521  13.184   6.146   9.700
29875SOL    HW191522  13.124   6.154   9.625
29875SOL    HW291523  13.135   6.184   9.773
29876SOL     OW91524   1.233  10.357   8.675
29876SOL    HW191525   1.294  10.296   8.633
29876SOL    HW291526   1.254  10.442   8.637
29877SOL     OW91527   5.791   6.652   4.056
29877SOL    HW191528   5.807   6.699   4.138
29877SOL    HW291529   5.729   6.707   4.009
29878SOL     OW91530  12.937   7.942  11.085
29878SOL    HW191531  12.942   7.979  10.996
29878SOL    HW291532  12.844   7.930  11.101
29879SOL     OW91533   2.334  12.430   1.295
29879SOL    HW191534   2.356  12.433   1.202
29879SOL    HW291535   2.247  12.471   1.300
29880SOL     OW91536   7.916   4.931  13.149
29880SOL    HW191537   7.910   4.849  13.197
29880SOL    HW291538   7.953   4.906  13.064
29881SOL     OW91539  13.249   8.099  14.220
29881SOL    HW191540  13.222   8.109  14.312
29881SOL    HW291541  13.330   8.048  14.225
29882SOL     OW91542  13.616   0.099   4.607
29882SOL    HW191543  13.522   0.096   4.587
29882SOL    HW291544  13.620   0.113   4.702
29883SOL     OW91545   8.282   1.706   5.423
29883SOL    HW191546   8.322   1.793   5.426
29883SOL    HW291547   8.296   1.671   5.510
29884SOL     OW91548   5.113   6.946  12.515
29884SOL    HW191549   5.202   6.943  12.479
29884SOL    HW291550   5.115   6.883  12.588
29885SOL     OW91551   4.070   6.565  13.899
29885SOL    HW191552   4.052   6.471  13.906
29885SOL    HW291553   4.132   6.583  13.970
29886SOL     OW91554   0.209   4.521   9.594
29886SOL    HW191555   0.155   4.511   9.516
29886SOL    HW291556   0.281   4.578   9.566
29887SOL     OW91557   8.300   5.228  12.435
29887SOL    HW191558   8.355   5.152  12.451
29887SOL    HW291559   8.351   5.303  12.467
29888SOL     OW91560   3.120   4.160   9.127
29888SOL    HW191561   3.210   4.163   9.162
29888SOL    HW291562   3.098   4.067   9.126
29889SOL     OW91563   4.880  14.446   8.105
29889SOL    HW191564   4.907  14.394   8.181
29889SOL    HW291565   4.829  14.518   8.143
29890SOL     OW91566  13.905   2.778  13.281
29890SOL    HW191567  13.841   2.835  13.324
29890SOL    HW291568  13.851   2.714  13.234
29891SOL     OW91569  12.399   3.529   2.970
29891SOL    HW191570  12.437   3.609   2.933
29891SOL    HW291571  12.331   3.560   3.029
29892SOL     OW91572  13.980  10.206  14.787
29892SOL    HW191573  13.935  10.274  14.837
29892SOL    HW291574  14.015  10.147  14.854
29893SOL     OW91575   5.904   4.618   4.746
29893SOL    HW191576   5.816   4.643   4.773
29893SOL    HW291577   5.890   4.556   4.674
29894SOL     OW91578   8.920  13.155   4.155
29894SOL    HW191579   8.955  13.092   4.218
29894SOL    HW291580   8.938  13.240   4.195
29895SOL     OW91581   7.071   5.235   7.082
29895SOL    HW191582   7.130   5.239   7.006
29895SOL    HW291583   7.121   5.188   7.149
29896SOL     OW91584   1.544  14.216   6.491
29896SOL    HW191585   1.604  14.142   6.482
29896SOL    HW291586   1.495  14.198   6.570
29897SOL     OW91587   9.215  14.385   3.720
29897SOL    HW191588   9.272  14.308   3.722
29897SOL    HW291589   9.268  14.455   3.759
29898SOL     OW91590  14.386   0.255   7.265
29898SOL    HW191591  14.373   0.305   7.184
29898SOL    HW291592  14.342   0.308   7.333
29899SOL     OW91593  12.958  11.429   2.666
29899SOL    HW191594  12.978  11.444   2.758
29899SOL    HW291595  13.020  11.485   2.619
29900SOL     OW91596   3.645   1.920  12.734
29900SOL    HW191597   3.671   1.893  12.822
29900SOL    HW291598   3.675   2.011  12.728
29901SOL     OW91599   0.883   9.397  14.302
29901SOL    HW191600   0.889   9.332  14.372
29901SOL    HW291601   0.954   9.458  14.321
29902SOL     OW91602  12.641   9.204   3.994
29902SOL    HW191603  12.623   9.294   3.966
29902SOL    HW291604  12.591   9.193   4.075
29903SOL     OW91605   8.242   7.621   3.099
29903SOL    HW191606   8.151   7.650   3.107
29903SOL    HW291607   8.279   7.676   3.030
29904SOL     OW91608  14.089   9.045   3.393
29904SOL    HW191609  14.126   9.105   3.328
29904SOL    HW291610  14.075   9.099   3.471
29905SOL     OW91611  12.502   9.514   2.629
29905SOL    HW191612  12.500   9.549   2.540
29905SOL    HW291613  12.562   9.441   2.625
29906SOL     OW91614   5.037   5.589  13.776
29906SOL    HW191615   4.975   5.662  13.772
29906SOL    HW291616   5.064   5.576  13.686
29907SOL     OW91617  14.405   4.259   2.069
29907SOL    HW191618  14.404   4.355   2.063
29907SOL    HW291619  14.489   4.233   2.031
29908SOL     OW91620  12.300   1.743   9.932
29908SOL    HW191621  12.236   1.712   9.867
29908SOL    HW291622  12.290   1.683  10.006
29909SOL     OW91623   8.998   1.247   2.505
29909SOL    HW191624   9.064   1.241   2.436
29909SOL    HW291625   8.971   1.157   2.522
29910SOL     OW91626  11.948  13.828   9.218
29910SOL    HW191627  11.988  13.755   9.264
29910SOL    HW291628  11.854  13.808   9.218
29911SOL     OW91629   5.072  12.348  10.394
29911SOL    HW191630   5.080  12.292  10.471
29911SOL    HW291631   5.161  12.378  10.376
29912SOL     OW91632   2.453   7.759   4.281
29912SOL    HW191633   2.450   7.852   4.258
29912SOL    HW291634   2.415   7.714   4.206
29913SOL     OW91635   3.385  11.099   9.483
29913SOL    HW191636   3.407  11.021   9.433
29913SOL    HW291637   3.349  11.065   9.565
29914SOL     OW91638   3.831   7.263  14.348
29914SOL    HW191639   3.744   7.297  14.367
29914SOL    HW291640   3.831   7.174  14.384
29915SOL     OW91641  12.313  13.006   2.656
29915SOL    HW191642  12.362  13.033   2.734
29915SOL    HW291643  12.378  13.003   2.586
29916SOL     OW91644   3.321   6.637   1.688
29916SOL    HW191645   3.232   6.621   1.657
29916SOL    HW291646   3.366   6.678   1.614
29917SOL     OW91647   9.812  11.787   7.226
29917SOL    HW191648   9.761  11.859   7.190
29917SOL    HW291649   9.846  11.820   7.309
29918SOL     OW91650   2.458   1.070   7.461
29918SOL    HW191651   2.397   1.048   7.531
29918SOL    HW291652   2.545   1.048   7.495
29919SOL     OW91653   7.099   3.571   5.430
29919SOL    HW191654   7.014   3.577   5.387
29919SOL    HW291655   7.145   3.652   5.405
29920SOL     OW91656  14.723  10.065   2.896
29920SOL    HW191657  14.658  10.123   2.856
29920SOL    HW291658  14.731   9.992   2.834
29921SOL     OW91659  14.481   4.972  10.663
29921SOL    HW191660  14.480   4.990  10.569
29921SOL    HW291661  14.565   5.007  10.693
29922SOL     OW91662  12.291  14.503   2.302
29922SOL    HW191663  12.330  14.451   2.232
29922SOL    HW291664  12.208  14.534   2.266
29923SOL     OW91665  14.066   8.649   5.327
29923SOL    HW191666  14.031   8.738   5.325
29923SOL    HW291667  14.084   8.633   5.420
29924SOL     OW91668  10.024   6.054   7.172
29924SOL    HW191669   9.982   6.054   7.085
29924SOL    HW291670   9.953   6.078   7.232
29925SOL     OW91671   0.313   0.177  13.000
29925SOL    HW191672   0.303   0.242  13.070
29925SOL    HW291673   0.379   0.116  13.033
29926SOL     OW91674   6.699   1.660   7.655
29926SOL    HW191675   6.637   1.692   7.721
29926SOL    HW291676   6.718   1.736   7.600
29927SOL     OW91677   3.796  12.266   2.955
29927SOL    HW191678   3.757  12.316   3.027
29927SOL    HW291679   3.801  12.176   2.987
29928SOL     OW91680   4.962  14.414  11.129
29928SOL    HW191681   4.927  14.502  11.145
29928SOL    HW291682   4.902  14.355  11.175
29929SOL     OW91683  11.765   3.114   3.885
29929SOL    HW191684  11.672   3.112   3.909
29929SOL    HW291685  11.788   3.022   3.872
29930SOL     OW91686  13.056   4.025   5.642
29930SOL    HW191687  13.149   4.034   5.623
29930SOL    HW291688  13.045   4.067   5.727
29931SOL     OW91689  13.917   9.236  10.611
29931SOL    HW191690  13.828   9.265  10.593
29931SOL    HW291691  13.934   9.266  10.701
29932SOL     OW91692  13.385   9.457   1.281
29932SOL    HW191693  13.448   9.480   1.213
29932SOL    HW291694  13.408   9.512   1.356
29933SOL     OW91695   4.579   7.387  11.005
29933SOL    HW191696   4.572   7.463  11.062
29933SOL    HW291697   4.555   7.420  10.918
29934SOL     OW91698  11.136  12.876  12.050
29934SOL    HW191699  11.128  12.905  11.959
29934SOL    HW291700  11.072  12.930  12.097
29935SOL     OW91701   7.297  11.184   9.096
29935SOL    HW191702   7.358  11.140   9.154
29935SOL    HW291703   7.249  11.113   9.054
29936SOL     OW91704   0.303   0.681  12.359
29936SOL    HW191705   0.257   0.687  12.276
29936SOL    HW291706   0.240   0.713  12.424
29937SOL     OW91707  12.528   5.203   5.236
29937SOL    HW191708  12.469   5.198   5.161
29937SOL    HW291709  12.608   5.161   5.206
29938SOL     OW91710   5.192   4.071   5.666
29938SOL    HW191711   5.193   4.008   5.594
29938SOL    HW291712   5.268   4.049   5.719
29939SOL     OW91713  12.733   0.279  10.418
29939SOL    HW191714  12.779   0.228  10.351
29939SOL    HW291715  12.780   0.259  10.499
29940SOL     OW91716   0.315  11.007   1.703
29940SOL    HW191717   0.374  11.003   1.777
29940SOL    HW291718   0.271  11.092   1.712
29941SOL     OW91719  10.876   0.907   1.030
29941SOL    HW191720  10.868   0.841   1.099
29941SOL    HW291721  10.970   0.917   1.017
29942SOL     OW91722   8.137   1.175   8.624
29942SOL    HW191723   8.117   1.269   8.620
29942SOL    HW291724   8.076   1.135   8.562
29943SOL     OW91725   8.065   7.715   5.033
29943SOL    HW191726   8.124   7.764   4.975
29943SOL    HW291727   8.115   7.703   5.114
29944SOL     OW91728   5.986   5.992   5.993
29944SOL    HW191729   6.060   6.034   6.036
29944SOL    HW291730   6.011   5.899   5.988
29945SOL     OW91731   1.830   7.402   5.602
29945SOL    HW191732   1.826   7.347   5.681
29945SOL    HW291733   1.917   7.385   5.566
29946SOL     OW91734  10.758   0.214   5.984
29946SOL    HW191735  10.805   0.187   6.063
29946SOL    HW291736  10.690   0.148   5.973
29947SOL     OW91737   6.096   5.639  10.117
29947SOL    HW191738   6.148   5.562  10.139
29947SOL    HW291739   6.054   5.664  10.199
29948SOL     OW91740  10.183   4.071   1.245
29948SOL    HW191741  10.252   4.025   1.293
29948SOL    HW291742  10.103   4.052   1.296
29949SOL     OW91743   4.083  12.306  14.373
29949SOL    HW191744   4.082  12.221  14.329
29949SOL    HW291745   3.995  12.315  14.409
29950SOL     OW91746   0.625   0.476   0.580
29950SOL    HW191747   0.553   0.533   0.606
29950SOL    HW291748   0.625   0.479   0.485
29951SOL     OW91749   9.097   1.405   5.970
29951SOL    HW191750   9.066   1.419   6.060
29951SOL    HW291751   9.075   1.486   5.924
29952SOL     OW91752   4.846   8.527  10.158
29952SOL    HW191753   4.877   8.617  10.165
29952SOL    HW291754   4.906   8.477  10.214
29953SOL     OW91755  10.155   2.321   0.324
29953SOL    HW191756  10.135   2.258   0.394
29953SOL    HW291757  10.069   2.346   0.290
29954SOL     OW91758   2.613  13.253   9.841
29954SOL    HW191759   2.590  13.319   9.776
29954SOL    HW291760   2.661  13.186   9.791
29955SOL     OW91761   8.317   1.534  13.214
29955SOL    HW191762   8.397   1.485  13.229
29955SOL    HW291763   8.255   1.502  13.280
29956SOL     OW91764   5.715   7.490  11.631
29956SOL    HW191765   5.761   7.573  11.642
29956SOL    HW291766   5.653   7.505  11.560
29957SOL     OW91767   0.296   8.648   8.382
29957SOL    HW191768   0.219   8.671   8.331
29957SOL    HW291769   0.366   8.704   8.348
29958SOL     OW91770   3.687   8.521   3.480
29958SOL    HW191771   3.626   8.471   3.426
29958SOL    HW291772   3.737   8.455   3.527
29959SOL     OW91773  12.958  10.466  14.818
29959SOL    HW191774  13.051  10.450  14.801
29959SOL    HW291775  12.921  10.378  14.829
29960SOL     OW91776   4.270  13.152   4.116
29960SOL    HW191777   4.327  13.221   4.082
29960SOL    HW291778   4.248  13.099   4.039
29961SOL     OW91779   9.004  10.859  12.864
29961SOL    HW191780   8.973  10.827  12.779
29961SOL    HW291781   8.959  10.804  12.928
29962SOL     OW91782  12.845  11.690   3.561
29962SOL    HW191783  12.842  11.720   3.470
29962SOL    HW291784  12.785  11.749   3.607
29963SOL     OW91785  13.263   3.557   4.349
29963SOL    HW191786  13.311   3.546   4.267
29963SOL    HW291787  13.329   3.545   4.417
29964SOL     OW91788   4.570  13.236   4.276
29964SOL    HW191789   4.519  13.274   4.205
29964SOL    HW291790   4.642  13.297   4.291
29965SOL     OW91791   0.122  10.578   6.682
29965SOL    HW191792   0.077  10.662   6.674
29965SOL    HW291793   0.059  10.521   6.726
29966SOL     OW91794  11.495   9.163  14.156
29966SOL    HW191795  11.543   9.086  14.124
29966SOL    HW291796  11.489   9.149  14.251
29967SOL     OW91797   7.331   4.409   6.023
29967SOL    HW191798   7.251   4.452   5.993
29967SOL    HW291799   7.326   4.321   5.983
29968SOL     OW91800  12.861  13.936  11.506
29968SOL    HW191801  12.834  14.008  11.450
29968SOL    HW291802  12.839  13.857  11.456
29969SOL     OW91803   8.310  11.039   7.743
29969SOL    HW191804   8.330  11.003   7.657
29969SOL    HW291805   8.215  11.049   7.744
29970SOL     OW91806   6.886   3.001   6.226
29970SOL    HW191807   6.959   2.993   6.286
29970SOL    HW291808   6.832   2.924   6.242
29971SOL     OW91809   3.398  12.683  14.625
29971SOL    HW191810   3.475  12.723  14.663
29971SOL    HW291811   3.422  12.664  14.534
29972SOL     OW91812   0.438   6.411   2.217
29972SOL    HW191813   0.388   6.493   2.212
29972SOL    HW291814   0.405   6.359   2.144
29973SOL     OW91815  14.398   0.695   8.902
29973SOL    HW191816  14.398   0.738   8.988
29973SOL    HW291817  14.319   0.726   8.859
29974SOL     OW91818  11.394  11.573   5.791
29974SOL    HW191819  11.429  11.632   5.724
29974SOL    HW291820  11.358  11.499   5.741
29975SOL     OW91821   7.241   5.917  13.290
29975SOL    HW191822   7.256   5.997  13.340
29975SOL    HW291823   7.146   5.912  13.281
29976SOL     OW91824  10.930  12.864  13.872
29976SOL    HW191825  10.986  12.814  13.932
29976SOL    HW291826  10.870  12.798  13.836
29977SOL     OW91827  12.909  12.532   4.933
29977SOL    HW191828  12.874  12.610   4.890
29977SOL    HW291829  12.835  12.497   4.983
29978SOL     OW91830  10.217   3.544   1.190
29978SOL    HW191831  10.269   3.498   1.124
29978SOL    HW291832  10.127   3.514   1.176
29979SOL     OW91833   1.198   4.995  14.254
29979SOL    HW191834   1.237   4.927  14.198
29979SOL    HW291835   1.174   5.064  14.192
29980SOL     OW91836   8.719  13.291   4.512
29980SOL    HW191837   8.801  13.249   4.487
29980SOL    HW291838   8.701  13.354   4.442
29981SOL     OW91839  10.087   4.167   4.263
29981SOL    HW191840  10.072   4.098   4.326
29981SOL    HW291841  10.146   4.228   4.307
29982SOL     OW91842  13.264   0.805   1.782
29982SOL    HW191843  13.184   0.822   1.733
29982SOL    HW291844  13.250   0.719   1.822
29983SOL     OW91845   0.230   3.188   4.532
29983SOL    HW191846   0.234   3.280   4.504
29983SOL    HW291847   0.160   3.150   4.479
29984SOL     OW91848   3.152   6.707   2.647
29984SOL    HW191849   3.162   6.686   2.740
29984SOL    HW291850   3.200   6.788   2.635
29985SOL     OW91851   0.470   8.987  10.057
29985SOL    HW191852   0.434   8.901  10.079
29985SOL    HW291853   0.400   9.049  10.080
29986SOL     OW91854  14.758   5.972  12.201
29986SOL    HW191855  14.715   5.915  12.137
29986SOL    HW291856  14.829   5.919  12.237
29987SOL     OW91857  10.772  13.097   1.475
29987SOL    HW191858  10.803  13.174   1.428
29987SOL    HW291859  10.831  13.089   1.550
29988SOL     OW91860   2.269   8.218   1.816
29988SOL    HW191861   2.269   8.282   1.886
29988SOL    HW291862   2.212   8.255   1.749
29989SOL     OW91863   8.855   7.601   5.969
29989SOL    HW191864   8.948   7.621   5.955
29989SOL    HW291865   8.855   7.547   6.049
29990SOL     OW91866   9.790   2.179   5.793
29990SOL    HW191867   9.755   2.096   5.761
29990SOL    HW291868   9.850   2.155   5.863
29991SOL     OW91869   4.744  10.134   8.535
29991SOL    HW191870   4.806  10.071   8.571
29991SOL    HW291871   4.700  10.171   8.611
29992SOL     OW91872   1.859   2.142   7.634
29992SOL    HW191873   1.919   2.143   7.559
29992SOL    HW291874   1.774   2.166   7.597
29993SOL     OW91875   1.292  12.799   2.089
29993SOL    HW191876   1.370  12.750   2.115
29993SOL    HW291877   1.219  12.746   2.121
29994SOL     OW91878   1.221   3.409   4.336
29994SOL    HW191879   1.145   3.458   4.305
29994SOL    HW291880   1.188   3.354   4.407
29995SOL     OW91881   8.955   3.567   9.320
29995SOL    HW191882   9.004   3.642   9.288
29995SOL    HW291883   9.011   3.530   9.389
29996SOL     OW91884  12.661   6.757   7.375
29996SOL    HW191885  12.575   6.797   7.361
29996SOL    HW291886  12.723   6.821   7.340
29997SOL     OW91887   0.045   9.915  10.400
29997SOL    HW191888   0.097   9.991  10.428
29997SOL    HW291889  14.842   9.927  10.443
29998SOL     OW91890   3.521  12.964   2.650
29998SOL    HW191891   3.518  12.889   2.590
29998SOL    HW291892   3.535  13.040   2.593
29999SOL     OW91893  11.103   0.414  13.067
29999SOL    HW191894  11.076   0.463  12.990
29999SOL    HW291895  11.191   0.446  13.087
30000SOL     OW91896   7.141   8.790   2.486
30000SOL    HW191897   7.057   8.824   2.453
30000SOL    HW291898   7.172   8.858   2.546
30001SOL     OW91899   7.456   2.993  14.524
30001SOL    HW191900   7.504   2.911  14.535
30001SOL    HW291901   7.372   2.978  14.568
30002SOL     OW91902  14.825   6.737  14.508
30002SOL    HW191903  14.807   6.646  14.488
30002SOL    HW291904  14.806   6.746  14.602
30003SOL     OW91905   4.583   7.015  12.078
30003SOL    HW191906   4.635   6.991  12.002
30003SOL    HW291907   4.516   6.946  12.084
30004SOL     OW91908   6.682  11.329   5.267
30004SOL    HW191909   6.743  11.262   5.298
30004SOL    HW291910   6.654  11.375   5.347
30005SOL     OW91911  13.071   5.043   3.804
30005SOL    HW191912  13.025   5.126   3.791
30005SOL    HW291913  13.092   5.041   3.897
30006SOL     OW91914   0.406   3.519   9.279
30006SOL    HW191915   0.352   3.479   9.211
30006SOL    HW291916   0.352   3.590   9.314
30007SOL     OW91917   5.936  12.400  13.383
30007SOL    HW191918   6.015  12.373  13.337
30007SOL    HW291919   5.900  12.471  13.329
30008SOL     OW91920   9.629   7.157   0.390
30008SOL    HW191921   9.589   7.089   0.335
30008SOL    HW291922   9.722   7.134   0.391
30009SOL     OW91923   2.954   9.720   1.898
30009SOL    HW191924   2.871   9.676   1.876
30009SOL    HW291925   2.936   9.766   1.979
30010SOL     OW91926   1.483   8.247   1.584
30010SOL    HW191927   1.439   8.191   1.520
30010SOL    HW291928   1.557   8.195   1.615
30011SOL     OW91929   0.048   7.144   0.130
30011SOL    HW191930   0.125   7.110   0.176
30011SOL    HW291931  14.869   7.168   0.199
30012SOL     OW91932  13.235  11.385   6.560
30012SOL    HW191933  13.179  11.382   6.638
30012SOL    HW291934  13.197  11.455   6.506
30013SOL     OW91935   6.082   5.026  14.299
30013SOL    HW191936   6.164   5.025  14.249
30013SOL    HW291937   6.055   4.934  14.302
30014SOL     OW91938   5.108  10.441  14.877
30014SOL    HW191939   5.045  10.407   0.058
30014SOL    HW291940   5.156  10.363  14.847
30015SOL     OW91941   4.946  13.800   3.449
30015SOL    HW191942   5.030  13.797   3.495
30015SOL    HW291943   4.924  13.893   3.443
30016SOL     OW91944   1.812   2.277   5.463
30016SOL    HW191945   1.790   2.318   5.547
30016SOL    HW291946   1.867   2.342   5.419
30017SOL     OW91947  12.761   5.601   8.567
30017SOL    HW191948  12.816   5.558   8.501
30017SOL    HW291949  12.822   5.650   8.622
30018SOL     OW91950   7.453  12.366   1.480
30018SOL    HW191951   7.375  12.373   1.534
30018SOL    HW291952   7.509  12.439   1.509
30019SOL     OW91953  11.104   2.781  10.525
30019SOL    HW191954  11.109   2.715  10.456
30019SOL    HW291955  11.011   2.784  10.548
30020SOL     OW91956   0.722   2.428   1.392
30020SOL    HW191957   0.812   2.455   1.377
30020SOL    HW291958   0.690   2.403   1.306
30021SOL     OW91959   7.763   2.931   8.941
30021SOL    HW191960   7.692   2.950   8.879
30021SOL    HW291961   7.841   2.970   8.901
30022SOL     OW91962   1.516  13.195   7.363
30022SOL    HW191963   1.586  13.226   7.305
30022SOL    HW291964   1.552  13.115   7.403
30023SOL     OW91965   8.377   5.670  13.441
30023SOL    HW191966   8.437   5.682  13.366
30023SOL    HW291967   8.411   5.730  13.508
30024SOL     OW91968   8.398  13.353   8.487
30024SOL    HW191969   8.353  13.320   8.410
30024SOL    HW291970   8.356  13.308   8.560
30025SOL     OW91971   4.901   4.573  14.495
30025SOL    HW191972   4.878   4.660  14.529
30025SOL    HW291973   4.997   4.570  14.501
30026SOL     OW91974   6.625   1.093  12.193
30026SOL    HW191975   6.549   1.086  12.251
30026SOL    HW291976   6.692   1.135  12.246
30027SOL     OW91977   9.029   7.267   1.661
30027SOL    HW191978   9.123   7.288   1.655
30027SOL    HW291979   8.988   7.351   1.683
30028SOL     OW91980   5.790  10.929   2.183
30028SOL    HW191981   5.886  10.925   2.192
30028SOL    HW291982   5.757  10.877   2.256
30029SOL     OW91983  11.572  11.440  14.087
30029SOL    HW191984  11.571  11.359  14.137
30029SOL    HW291985  11.497  11.433  14.028
30030SOL     OW91986   0.387  11.714   5.785
30030SOL    HW191987   0.370  11.631   5.831
30030SOL    HW291988   0.448  11.760   5.842
30031SOL     OW91989   9.985   5.365  12.524
30031SOL    HW191990  10.013   5.274  12.530
30031SOL    HW291991  10.061   5.411  12.488
30032SOL     OW91992  10.402  11.778   7.679
30032SOL    HW191993  10.483  11.828   7.674
30032SOL    HW291994  10.380  11.760   7.587
30033SOL     OW91995   0.112  13.675  11.712
30033SOL    HW191996   0.045  13.661  11.646
30033SOL    HW291997   0.190  13.633  11.675
30034SOL     OW91998   2.918  14.184   4.424
30034SOL    HW191999   2.868  14.264   4.443
30034SOL    HW292000   2.992  14.188   4.484
30035SOL     OW92001   0.745   3.118   9.134
30035SOL    HW192002   0.736   3.037   9.183
30035SOL    HW292003   0.704   3.184   9.190
30036SOL     OW92004   9.804   8.271   8.900
30036SOL    HW192005   9.734   8.284   8.964
30036SOL    HW292006   9.788   8.337   8.833
30037SOL     OW92007  13.939   9.524   0.622
30037SOL    HW192008  14.016   9.580   0.624
30037SOL    HW292009  13.963   9.452   0.563
30038SOL     OW92010   2.200   2.294   7.415
30038SOL    HW192011   2.141   2.291   7.339
30038SOL    HW292012   2.200   2.204   7.448
30039SOL     OW92013   9.198   4.664   6.200
30039SOL    HW192014   9.109   4.665   6.165
30039SOL    HW292015   9.212   4.753   6.234
30040SOL     OW92016   2.557   1.705   6.129
30040SOL    HW192017   2.532   1.644   6.061
30040SOL    HW292018   2.652   1.695   6.137
30041SOL     OW92019   3.244   8.685   1.327
30041SOL    HW192020   3.163   8.710   1.372
30041SOL    HW292021   3.214   8.635   1.251
30042SOL     OW92022  11.846   6.374  12.867
30042SOL    HW192023  11.772   6.432  12.853
30042SOL    HW292024  11.914   6.406  12.808
30043SOL     OW92025   2.709  11.992  10.370
30043SOL    HW192026   2.620  11.964  10.350
30043SOL    HW292027   2.762  11.914  10.357
30044SOL     OW92028  11.500  14.641   4.718
30044SOL    HW192029  11.448  14.714   4.752
30044SOL    HW292030  11.537  14.599   4.795
30045SOL     OW92031   9.384  10.755   7.440
30045SOL    HW192032   9.401  10.688   7.374
30045SOL    HW292033   9.331  10.711   7.506
30046SOL     OW92034  10.748  14.657   1.374
30046SOL    HW192035  10.697  14.718   1.321
30046SOL    HW292036  10.839  14.679   1.354
30047SOL     OW92037   9.635  11.044  10.390
30047SOL    HW192038   9.724  11.033  10.357
30047SOL    HW292039   9.581  10.992  10.331
30048SOL     OW92040   4.509   7.248   8.092
30048SOL    HW192041   4.466   7.203   8.019
30048SOL    HW292042   4.557   7.319   8.050
30049SOL     OW92043   4.920  14.328  13.752
30049SOL    HW192044   4.986  14.397  13.745
30049SOL    HW292045   4.950  14.259  13.692
30050SOL     OW92046   2.721   5.912   6.827
30050SOL    HW192047   2.809   5.883   6.851
30050SOL    HW292048   2.685   5.947   6.908
30051SOL     OW92049   3.616   7.508   8.363
30051SOL    HW192050   3.651   7.427   8.325
30051SOL    HW292051   3.596   7.485   8.454
30052SOL     OW92052   6.597   4.965   5.618
30052SOL    HW192053   6.607   5.060   5.620
30052SOL    HW292054   6.604   4.938   5.709
30053SOL     OW92055   0.269   5.667   4.905
30053SOL    HW192056   0.202   5.734   4.887
30053SOL    HW292057   0.222   5.598   4.951
30054SOL     OW92058   0.265   6.419   5.233
30054SOL    HW192059   0.251   6.392   5.323
30054SOL    HW292060   0.301   6.508   5.239
30055SOL     OW92061  10.608  11.552   7.626
30055SOL    HW192062  10.521  11.581   7.653
30055SOL    HW292063  10.594  11.506   7.543
30056SOL     OW92064   6.095  13.218   9.765
30056SOL    HW192065   6.190  13.211   9.761
30056SOL    HW292066   6.078  13.301   9.811
30057SOL     OW92067   3.232   9.730   8.635
30057SOL    HW192068   3.207   9.775   8.555
30057SOL    HW292069   3.199   9.641   8.624
30058SOL     OW92070   8.225   3.656  14.555
30058SOL    HW192071   8.202   3.706  14.477
30058SOL    HW292072   8.160   3.681  14.620
30059SOL     OW92073   1.010  14.053   3.558
30059SOL    HW192074   0.930  14.101   3.540
30059SOL    HW292075   1.016  14.052   3.654
30060SOL     OW92076   1.497  13.157   3.178
30060SOL    HW192077   1.445  13.183   3.254
30060SOL    HW292078   1.535  13.239   3.145
30061SOL     OW92079   9.669   2.971   6.562
30061SOL    HW192080   9.761   2.986   6.538
30061SOL    HW292081   9.670   2.887   6.608
30062SOL     OW92082  13.090  13.832  12.529
30062SOL    HW192083  13.122  13.918  12.556
30062SOL    HW292084  13.022  13.851  12.464
30063SOL     OW92085  11.482   5.950   3.767
30063SOL    HW192086  11.457   6.012   3.698
30063SOL    HW292087  11.577   5.950   3.766
30064SOL     OW92088   9.047  13.445   3.073
30064SOL    HW192089   9.142  13.452   3.088
30064SOL    HW292090   9.019  13.534   3.053
30065SOL     OW92091   4.540  14.655  11.208
30065SOL    HW192092   4.502  14.571  11.181
30065SOL    HW292093   4.466  14.706  11.240
30066SOL     OW92094   4.468   6.351   5.030
30066SOL    HW192095   4.488   6.432   5.075
30066SOL    HW292096   4.372   6.344   5.036
30067SOL     OW92097   7.743   1.845   4.145
30067SOL    HW192098   7.721   1.887   4.062
30067SOL    HW292099   7.670   1.784   4.161
30068SOL     OW92100   9.293   6.310  10.288
30068SOL    HW192101   9.343   6.389  10.270
30068SOL    HW292102   9.203   6.340  10.301
30069SOL     OW92103   9.502   1.173   5.933
30069SOL    HW192104   9.594   1.177   5.959
30069SOL    HW292105   9.488   1.083   5.906
30070SOL     OW92106   4.957   3.622   0.299
30070SOL    HW192107   5.035   3.637   0.246
30070SOL    HW292108   4.984   3.560   0.366
30071SOL     OW92109   5.701   4.881   8.681
30071SOL    HW192110   5.675   4.951   8.740
30071SOL    HW292111   5.642   4.809   8.701
30072SOL     OW92112   6.344   4.441  12.269
30072SOL    HW192113   6.411   4.483  12.324
30072SOL    HW292114   6.388   4.422  12.187
30073SOL     OW92115   8.634   2.506   6.991
30073SOL    HW192116   8.714   2.520   7.041
30073SOL    HW292117   8.663   2.458   6.913
30074SOL     OW92118   5.450   6.402   1.958
30074SOL    HW192119   5.518   6.458   1.995
30074SOL    HW292120   5.374   6.415   2.015
30075SOL     OW92121  11.447  12.070  14.766
30075SOL    HW192122  11.389  12.083  14.691
30075SOL    HW292123  11.525  12.122  14.746
30076SOL     OW92124   9.050   4.459  14.359
30076SOL    HW192125   9.031   4.553  14.358
30076SOL    HW292126   9.123   4.450  14.421
30077SOL     OW92127   7.919  11.008   5.573
30077SOL    HW192128   7.909  10.962   5.490
30077SOL    HW292129   8.009  10.989   5.600
30078SOL     OW92130   4.422   6.025   9.466
30078SOL    HW192131   4.484   5.952   9.458
30078SOL    HW292132   4.421   6.065   9.379
30079SOL     OW92133   3.583  11.610   3.302
30079SOL    HW192134   3.644  11.557   3.251
30079SOL    HW292135   3.629  11.629   3.383
30080SOL     OW92136   3.614   3.578  13.739
30080SOL    HW192137   3.552   3.506  13.743
30080SOL    HW292138   3.677   3.552  13.672
30081SOL     OW92139   9.415   4.587   4.668
30081SOL    HW192140   9.353   4.573   4.596
30081SOL    HW292141   9.363   4.627   4.737
30082SOL     OW92142  10.962  10.008  14.588
30082SOL    HW192143  10.907  10.000  14.665
30082SOL    HW292144  10.910   9.971  14.517
30083SOL     OW92145   5.492   7.609   9.010
30083SOL    HW192146   5.481   7.514   9.011
30083SOL    HW292147   5.529   7.627   8.924
30084SOL     OW92148   3.584  14.124   8.001
30084SOL    HW192149   3.595  14.147   7.909
30084SOL    HW292150   3.641  14.048   8.014
30085SOL     OW92151   4.302   2.476   9.787
30085SOL    HW192152   4.286   2.541   9.855
30085SOL    HW292153   4.391   2.445   9.804
30086SOL     OW92154   0.137  10.579   1.521
30086SOL    HW192155   0.108  10.489   1.530
30086SOL    HW292156   0.230  10.576   1.542
30087SOL     OW92157  12.207   4.957  13.576
30087SOL    HW192158  12.227   5.050  13.574
30087SOL    HW292159  12.112   4.953  13.580
30088SOL     OW92160   9.913  13.778   7.800
30088SOL    HW192161   9.904  13.797   7.894
30088SOL    HW292162   9.923  13.864   7.760
30089SOL     OW92163   3.815   0.399   4.414
30089SOL    HW192164   3.810   0.310   4.451
30089SOL    HW292165   3.737   0.406   4.359
30090SOL     OW92166  13.832  12.205  11.675
30090SOL    HW192167  13.927  12.210  11.685
30090SOL    HW292168  13.797  12.265  11.741
30091SOL     OW92169  10.340  10.626  13.636
30091SOL    HW192170  10.314  10.692  13.701
30091SOL    HW292171  10.385  10.559  13.687
30092SOL     OW92172   6.321   0.058   6.612
30092SOL    HW192173   6.288  14.873   6.672
30092SOL    HW292174   6.271   0.045   6.532
30093SOL     OW92175  10.521   2.337  12.468
30093SOL    HW192176  10.608   2.372  12.487
30093SOL    HW292177  10.518   2.254  12.516
30094SOL     OW92178   3.152   2.865   3.801
30094SOL    HW192179   3.177   2.775   3.821
30094SOL    HW292180   3.111   2.860   3.715
30095SOL     OW92181   2.410   0.587  12.689
30095SOL    HW192182   2.457   0.544  12.761
30095SOL    HW292183   2.331   0.534  12.678
30096SOL     OW92184   1.891   7.463   0.952
30096SOL    HW192185   1.836   7.537   0.975
30096SOL    HW292186   1.973   7.478   1.000
30097SOL     OW92187   8.014   7.554   7.330
30097SOL    HW192188   8.095   7.587   7.291
30097SOL    HW292189   7.974   7.500   7.262
30098SOL     OW92190   4.040  11.351   5.397
30098SOL    HW192191   4.021  11.444   5.409
30098SOL    HW292192   4.131  11.341   5.428
30099SOL     OW92193   6.118   1.609   6.602
30099SOL    HW192194   6.120   1.575   6.513
30099SOL    HW292195   6.122   1.532   6.658
30100SOL     OW92196   9.460  13.494  12.014
30100SOL    HW192197   9.410  13.413  12.013
30100SOL    HW292198   9.417  13.551  11.951
30101SOL     OW92199  11.202  12.956   6.911
30101SOL    HW192200  11.250  12.942   6.829
30101SOL    HW292201  11.110  12.942   6.888
30102SOL     OW92202   0.331  10.754   1.926
30102SOL    HW192203   0.360  10.734   1.838
30102SOL    HW292204   0.397  10.814   1.960
30103SOL     OW92205  13.484  12.636   5.926
30103SOL    HW192206  13.531  12.708   5.884
30103SOL    HW292207  13.453  12.673   6.009
30104SOL     OW92208  12.153   2.365  14.778
30104SOL    HW192209  12.133   2.313  14.700
30104SOL    HW292210  12.239   2.403  14.759
30105SOL     OW92211  13.950  14.077   8.291
30105SOL    HW192212  13.959  13.981   8.295
30105SOL    HW292213  13.906  14.100   8.372
30106SOL     OW92214   4.730   3.588  11.742
30106SOL    HW192215   4.716   3.626  11.656
30106SOL    HW292216   4.664   3.629  11.798
30107SOL     OW92217  10.588   3.294   8.078
30107SOL    HW192218  10.570   3.347   8.001
30107SOL    HW292219  10.625   3.355   8.141
30108SOL     OW92220   7.347  13.616   4.229
30108SOL    HW192221   7.254  13.606   4.251
30108SOL    HW292222   7.375  13.529   4.200
30109SOL     OW92223  13.808   3.836   1.503
30109SOL    HW192224  13.765   3.756   1.473
30109SOL    HW292225  13.901   3.822   1.486
30110SOL     OW92226   7.021   6.267  14.081
30110SOL    HW192227   6.941   6.213  14.080
30110SOL    HW292228   7.065   6.245  13.998
30111SOL     OW92229   1.026   9.258  10.168
30111SOL    HW192230   1.119   9.278  10.173
30111SOL    HW292231   0.994   9.267  10.258
30112SOL     OW92232   6.276   1.799   9.650
30112SOL    HW192233   6.264   1.875   9.708
30112SOL    HW292234   6.205   1.740   9.673
30113SOL     OW92235   7.923   1.836   8.533
30113SOL    HW192236   7.846   1.845   8.477
30113SOL    HW292237   7.990   1.890   8.490
30114SOL     OW92238  14.314   8.837   0.628
30114SOL    HW192239  14.233   8.853   0.581
30114SOL    HW292240  14.367   8.784   0.567
30115SOL     OW92241   7.720   6.043   4.374
30115SOL    HW192242   7.647   6.035   4.312
30115SOL    HW292243   7.771   6.117   4.341
30116SOL     OW92244   8.614   5.289   6.771
30116SOL    HW192245   8.554   5.235   6.720
30116SOL    HW292246   8.566   5.309   6.851
30117SOL     OW92247  13.502   7.671   5.611
30117SOL    HW192248  13.559   7.622   5.671
30117SOL    HW292249  13.416   7.631   5.622
30118SOL     OW92250  12.558   1.663   3.305
30118SOL    HW192251  12.466   1.647   3.282
30118SOL    HW292252  12.602   1.674   3.220
30119SOL     OW92253   8.190  14.300   6.424
30119SOL    HW192254   8.209  14.209   6.403
30119SOL    HW292255   8.096  14.310   6.406
30120SOL     OW92256   6.001   6.946   1.132
30120SOL    HW192257   5.946   6.873   1.104
30120SOL    HW292258   5.941   7.007   1.175
30121SOL     OW92259   4.548   5.219  10.708
30121SOL    HW192260   4.555   5.227  10.803
30121SOL    HW292261   4.498   5.138  10.695
30122SOL     OW92262  13.764   7.993   6.706
30122SOL    HW192263  13.783   7.984   6.613
30122SOL    HW292264  13.835   8.048   6.740
30123SOL     OW92265   4.990   7.615   3.225
30123SOL    HW192266   4.966   7.644   3.313
30123SOL    HW292267   4.928   7.658   3.167
30124SOL     OW92268   8.462  13.571  13.835
30124SOL    HW192269   8.542  13.613  13.869
30124SOL    HW292270   8.454  13.604  13.746
30125SOL     OW92271   6.833   8.448   7.252
30125SOL    HW192272   6.857   8.360   7.224
30125SOL    HW292273   6.774   8.435   7.327
30126SOL     OW92274   4.698   2.971   1.809
30126SOL    HW192275   4.676   3.051   1.761
30126SOL    HW292276   4.759   3.000   1.877
30127SOL     OW92277   6.314   4.057   9.058
30127SOL    HW192278   6.305   4.071   9.152
30127SOL    HW292279   6.407   4.039   9.045
30128SOL     OW92280   6.899   2.712  10.781
30128SOL    HW192281   6.879   2.769  10.856
30128SOL    HW292282   6.862   2.627  10.805
30129SOL     OW92283   1.495  12.912   1.370
30129SOL    HW192284   1.411  12.908   1.325
30129SOL    HW292285   1.539  12.988   1.333
30130SOL     OW92286  11.702   2.988  12.469
30130SOL    HW192287  11.732   3.074  12.497
30130SOL    HW292288  11.668   2.948  12.549
30131SOL     OW92289   0.364  11.385   7.507
30131SOL    HW192290   0.430  11.356   7.444
30131SOL    HW292291   0.355  11.479   7.490
30132SOL     OW92292   4.612  10.440  14.366
30132SOL    HW192293   4.684  10.494  14.399
30132SOL    HW292294   4.556  10.426  14.442
30133SOL     OW92295   9.254  11.150   5.982
30133SOL    HW192296   9.200  11.073   5.964
30133SOL    HW292297   9.281  11.139   6.073
30134SOL     OW92298  10.778   8.772   4.803
30134SOL    HW192299  10.870   8.758   4.821
30134SOL    HW292300  10.746   8.823   4.878
30135SOL     OW92301  12.937  10.974   4.637
30135SOL    HW192302  13.031  10.957   4.636
30135SOL    HW292303  12.929  11.068   4.623
30136SOL     OW92304   5.650   8.270  13.069
30136SOL    HW192305   5.730   8.319  13.087
30136SOL    HW292306   5.679   8.180  13.055
30137SOL     OW92307   4.695   3.494  13.861
30137SOL    HW192308   4.630   3.504  13.792
30137SOL    HW292309   4.770   3.452  13.817
30138SOL     OW92310   0.118   4.174  13.813
30138SOL    HW192311   0.087   4.255  13.772
30138SOL    HW292312   0.182   4.139  13.750
30139SOL     OW92313  14.011   6.873   6.568
30139SOL    HW192314  13.926   6.911   6.544
30139SOL    HW292315  14.032   6.814   6.497
30140SOL     OW92316  14.752  14.066  13.368
30140SOL    HW192317  14.781  13.984  13.327
30140SOL    HW292318  14.738  14.126  13.295
30141SOL     OW92319   8.598  11.458   0.156
30141SOL    HW192320   8.639  11.500   0.081
30141SOL    HW292321   8.551  11.529   0.200
30142SOL     OW92322   7.922  12.823   8.880
30142SOL    HW192323   7.866  12.860   8.812
30142SOL    HW292324   7.878  12.846   8.962
30143SOL     OW92325   3.995  10.464  12.334
30143SOL    HW192326   3.966  10.551  12.361
30143SOL    HW292327   4.031  10.424  12.414
30144SOL     OW92328   6.798   3.013   0.555
30144SOL    HW192329   6.828   3.082   0.614
30144SOL    HW292330   6.705   3.033   0.540
30145SOL     OW92331  10.046  14.599  11.242
30145SOL    HW192332   9.978  14.535  11.220
30145SOL    HW292333  10.074  14.634  11.157
30146SOL     OW92334   7.653   4.752   1.151
30146SOL    HW192335   7.727   4.727   1.095
30146SOL    HW292336   7.576   4.742   1.094
30147SOL     OW92337  11.183  13.671   3.224
30147SOL    HW192338  11.127  13.658   3.301
30147SOL    HW292339  11.175  13.590   3.175
30148SOL     OW92340   8.191   2.017   6.492
30148SOL    HW192341   8.124   1.985   6.432
30148SOL    HW292342   8.255   1.946   6.498
30149SOL     OW92343   6.970  11.980   8.155
30149SOL    HW192344   6.962  11.998   8.061
30149SOL    HW292345   7.022  12.053   8.188
30150SOL     OW92346   9.316  14.587  11.661
30150SOL    HW192347   9.226  14.576  11.629
30150SOL    HW292348   9.306  14.625  11.748
30151SOL     OW92349   6.147   2.833  13.057
30151SOL    HW192350   6.229   2.788  13.038
30151SOL    HW292351   6.133   2.818  13.151
30152SOL     OW92352   6.027  10.772   0.522
30152SOL    HW192353   5.956  10.835   0.534
30152SOL    HW292354   6.066  10.762   0.609
30153SOL     OW92355   3.589   6.832  12.688
30153SOL    HW192356   3.546   6.837  12.773
30153SOL    HW292357   3.560   6.748  12.652
30154SOL     OW92358  14.818  12.229  12.161
30154SOL    HW192359  14.782  12.142  12.143
30154SOL    HW292360  14.759  12.267  12.226
30155SOL     OW92361  10.636   1.718   8.119
30155SOL    HW192362  10.709   1.698   8.178
30155SOL    HW292363  10.569   1.652   8.140
30156SOL     OW92364   3.626  11.570  12.858
30156SOL    HW192365   3.640  11.591  12.766
30156SOL    HW292366   3.608  11.654  12.900
30157SOL     OW92367  10.358  12.740  14.211
30157SOL    HW192368  10.336  12.678  14.280
30157SOL    HW292369  10.288  12.806  14.215
30158SOL     OW92370   1.111   1.136  14.271
30158SOL    HW192371   1.205   1.143  14.258
30158SOL    HW292372   1.085   1.059  14.219
30159SOL     OW92373   7.445  14.548   5.998
30159SOL    HW192374   7.503  14.474   6.016
30159SOL    HW292375   7.493  14.625   6.029
30160SOL     OW92376   0.083  13.417   4.742
30160SOL    HW192377   0.021  13.347   4.726
30160SOL    HW292378   0.079  13.473   4.664
30161SOL     OW92379  10.691  12.629   4.085
30161SOL    HW192380  10.628  12.620   4.156
30161SOL    HW292381  10.768  12.580   4.115
30162SOL     OW92382   0.878  13.273  10.734
30162SOL    HW192383   0.881  13.181  10.706
30162SOL    HW292384   0.824  13.317  10.669
30163SOL     OW92385   3.230  13.915   6.261
30163SOL    HW192386   3.312  13.906   6.309
30163SOL    HW292387   3.213  13.827   6.227
30164SOL     OW92388   2.642  11.559   7.570
30164SOL    HW192389   2.615  11.651   7.576
30164SOL    HW292390   2.647  11.529   7.660
30165SOL     OW92391  13.916   4.669   6.948
30165SOL    HW192392  13.909   4.675   7.043
30165SOL    HW292393  13.829   4.690   6.915
30166SOL     OW92394   2.722   8.774   3.655
30166SOL    HW192395   2.736   8.688   3.614
30166SOL    HW292396   2.791   8.779   3.722
30167SOL     OW92397   4.991   6.819  11.746
30167SOL    HW192398   5.049   6.828  11.670
30167SOL    HW292399   4.939   6.899  11.746
30168SOL     OW92400   6.221  10.408  13.965
30168SOL    HW192401   6.282  10.409  13.891
30168SOL    HW292402   6.262  10.465  14.030
30169SOL     OW92403  13.260   0.529  14.000
30169SOL    HW192404  13.238   0.619  14.025
30169SOL    HW292405  13.330   0.539  13.936
30170SOL     OW92406  14.162  10.249   7.848
30170SOL    HW192407  14.148  10.157   7.825
30170SOL    HW292408  14.079  10.276   7.886
30171SOL     OW92409  11.459   4.257   3.538
30171SOL    HW192410  11.392   4.195   3.566
30171SOL    HW292411  11.512   4.208   3.475
30172SOL     OW92412   6.051  11.613  13.354
30172SOL    HW192413   6.017  11.665  13.282
30172SOL    HW292414   5.976  11.559  13.381
30173SOL     OW92415   6.202   3.514   0.641
30173SOL    HW192416   6.278   3.526   0.698
30173SOL    HW292417   6.126   3.516   0.699
30174SOL     OW92418  13.435  13.433  11.474
30174SOL    HW192419  13.389  13.360  11.515
30174SOL    HW292420  13.525  13.425  11.505
30175SOL     OW92421   3.000   4.222  11.174
30175SOL    HW192422   2.983   4.144  11.121
30175SOL    HW292423   3.095   4.225  11.180
30176SOL     OW92424   6.213  10.446   6.659
30176SOL    HW192425   6.174  10.365   6.626
30176SOL    HW292426   6.144  10.485   6.713
30177SOL     OW92427   8.731  13.352  13.014
30177SOL    HW192428   8.695  13.263  13.019
30177SOL    HW292429   8.706  13.393  13.096
30178SOL     OW92430  12.605  10.503  13.227
30178SOL    HW192431  12.595  10.456  13.145
30178SOL    HW292432  12.593  10.595  13.204
30179SOL     OW92433   5.274   0.965   2.181
30179SOL    HW192434   5.274   1.020   2.102
30179SOL    HW292435   5.358   0.984   2.223
30180SOL     OW92436   9.514   7.411   0.326
30180SOL    HW192437   9.588   7.472   0.321
30180SOL    HW292438   9.547   7.337   0.377
30181SOL     OW92439   2.782   4.570  11.565
30181SOL    HW192440   2.764   4.660  11.591
30181SOL    HW292441   2.806   4.526  11.647
30182SOL     OW92442   0.690   9.667   6.138
30182SOL    HW192443   0.704   9.713   6.055
30182SOL    HW292444   0.726   9.725   6.204
30183SOL     OW92445  10.893   3.530   4.246
30183SOL    HW192446  10.963   3.464   4.246
30183SOL    HW292447  10.914   3.588   4.318
30184SOL     OW92448   0.219  13.895  10.236
30184SOL    HW192449   0.283  13.861  10.174
30184SOL    HW292450   0.160  13.822  10.251
30185SOL     OW92451   0.809   6.597   2.912
30185SOL    HW192452   0.852   6.542   2.977
30185SOL    HW292453   0.761   6.662   2.963
30186SOL     OW92454   2.383   6.717  12.428
30186SOL    HW192455   2.465   6.763  12.450
30186SOL    HW292456   2.325   6.785  12.394
30187SOL     OW92457   0.608   2.594   3.219
30187SOL    HW192458   0.572   2.507   3.200
30187SOL    HW292459   0.533   2.653   3.208
30188SOL     OW92460   2.484   3.809   0.345
30188SOL    HW192461   2.454   3.868   0.414
30188SOL    HW292462   2.547   3.751   0.389
30189SOL     OW92463  11.793   0.205   4.455
30189SOL    HW192464  11.819   0.272   4.517
30189SOL    HW292465  11.773   0.128   4.509
30190SOL     OW92466  14.681   4.149   8.648
30190SOL    HW192467  14.624   4.084   8.607
30190SOL    HW292468  14.765   4.140   8.602
30191SOL     OW92469  10.214  12.974   1.504
30191SOL    HW192470  10.201  13.002   1.595
30191SOL    HW292471  10.304  12.942   1.501
30192SOL     OW92472   3.042   8.125   9.005
30192SOL    HW192473   3.078   8.053   9.056
30192SOL    HW292474   3.109   8.145   8.940
30193SOL     OW92475   6.363   2.482  12.035
30193SOL    HW192476   6.349   2.526  12.119
30193SOL    HW292477   6.419   2.407  12.056
30194SOL     OW92478  14.286   5.260  12.920
30194SOL    HW192479  14.210   5.310  12.889
30194SOL    HW292480  14.251   5.206  12.991
30195SOL     OW92481   0.736   9.305   5.486
30195SOL    HW192482   0.749   9.316   5.392
30195SOL    HW292483   0.709   9.214   5.497
30196SOL     OW92484   1.523   3.861  14.246
30196SOL    HW192485   1.553   3.943  14.284
30196SOL    HW292486   1.454   3.831  14.305
30197SOL     OW92487   9.052   1.324   1.328
30197SOL    HW192488   9.094   1.298   1.246
30197SOL    HW292489   9.125   1.332   1.390
30198SOL     OW92490   8.897  11.829   2.942
30198SOL    HW192491   8.835  11.892   2.979
30198SOL    HW292492   8.931  11.782   3.018
30199SOL     OW92493   7.382   6.274   6.711
30199SOL    HW192494   7.320   6.297   6.642
30199SOL    HW292495   7.399   6.357   6.756
30200SOL     OW92496   2.450   5.282   2.827
30200SOL    HW192497   2.444   5.290   2.923
30200SOL    HW292498   2.359   5.278   2.798
30201SOL     OW92499   9.593   8.014  12.341
30201SOL    HW192500   9.505   8.011  12.379
30201SOL    HW292501   9.634   8.091  12.381
30202SOL     OW92502   6.939  10.189  12.416
30202SOL    HW192503   6.957  10.122  12.349
30202SOL    HW292504   6.903  10.263  12.366
30203SOL     OW92505   0.725   4.414   9.224
30203SOL    HW192506   0.709   4.496   9.271
30203SOL    HW292507   0.818   4.416   9.204
30204SOL     OW92508   4.848   3.316   5.807
30204SOL    HW192509   4.891   3.400   5.826
30204SOL    HW292510   4.858   3.265   5.887
30205SOL     OW92511   3.336   4.406   5.301
30205SOL    HW192512   3.354   4.389   5.209
30205SOL    HW292513   3.416   4.379   5.346
30206SOL     OW92514  14.585   8.357  11.679
30206SOL    HW192515  14.640   8.283  11.655
30206SOL    HW292516  14.624   8.432  11.633
30207SOL     OW92517   2.975   3.405   2.930
30207SOL    HW192518   2.936   3.456   2.858
30207SOL    HW292519   3.058   3.450   2.948
30208SOL     OW92520   7.507   9.280  13.386
30208SOL    HW192521   7.500   9.237  13.471
30208SOL    HW292522   7.579   9.235  13.342
30209SOL     OW92523   8.932   6.207   5.307
30209SOL    HW192524   8.879   6.167   5.376
30209SOL    HW292525   9.000   6.143   5.289
30210SOL     OW92526   9.559   0.992  13.257
30210SOL    HW192527   9.564   1.078  13.297
30210SOL    HW292528   9.521   1.007  13.170
30211SOL     OW92529   8.422   6.036   0.011
30211SOL    HW192530   8.359   5.969   0.039
30211SOL    HW292531   8.373   6.118   0.015
30212SOL     OW92532   7.203   4.175   6.982
30212SOL    HW192533   7.124   4.194   6.931
30212SOL    HW292534   7.208   4.079   6.982
30213SOL     OW92535   4.530   4.979  10.012
30213SOL    HW192536   4.583   4.970  10.091
30213SOL    HW292537   4.571   4.920   9.948
30214SOL     OW92538   2.529   3.533   4.230
30214SOL    HW192539   2.458   3.542   4.166
30214SOL    HW292540   2.537   3.619   4.270
30215SOL     OW92541   2.681  10.185   7.877
30215SOL    HW192542   2.763  10.190   7.925
30215SOL    HW292543   2.667  10.091   7.862
30216SOL     OW92544   4.038   9.681  12.772
30216SOL    HW192545   4.081   9.655  12.854
30216SOL    HW292546   4.051   9.775  12.767
30217SOL     OW92547   9.125   1.424   0.535
30217SOL    HW192548   9.119   1.519   0.537
30217SOL    HW292549   9.137   1.402   0.443
30218SOL     OW92550   6.661  12.267   2.444
30218SOL    HW192551   6.608  12.340   2.414
30218SOL    HW292552   6.736  12.307   2.488
30219SOL     OW92553   2.557  10.344  10.049
30219SOL    HW192554   2.647  10.346  10.082
30219SOL    HW292555   2.533  10.251  10.052
30220SOL     OW92556  11.154   1.345   5.359
30220SOL    HW192557  11.246   1.320   5.344
30220SOL    HW292558  11.148   1.434   5.326
30221SOL     OW92559   7.919   2.469  12.787
30221SOL    HW192560   7.911   2.544  12.727
30221SOL    HW292561   7.864   2.401  12.747
30222SOL     OW92562   9.909   8.734  14.837
30222SOL    HW192563   9.907   8.783  14.754
30222SOL    HW292564   9.917   8.802   0.022
30223SOL     OW92565   2.145   0.075   7.840
30223SOL    HW192566   2.179   0.127   7.767
30223SOL    HW292567   2.195   0.104   7.916
30224SOL     OW92568   4.105   1.480  12.300
30224SOL    HW192569   4.037   1.538  12.266
30224SOL    HW292570   4.088   1.476  12.395
30225SOL     OW92571   0.454  12.959  12.021
30225SOL    HW192572   0.509  12.947  12.099
30225SOL    HW292573   0.511  13.001  11.957
30226SOL     OW92574   2.013  12.184  14.409
30226SOL    HW192575   2.088  12.127  14.424
30226SOL    HW292576   1.938  12.125  14.403
30227SOL     OW92577   2.806   6.809   3.558
30227SOL    HW192578   2.803   6.714   3.551
30227SOL    HW292579   2.808   6.840   3.467
30228SOL     OW92580   5.804   3.146   6.939
30228SOL    HW192581   5.856   3.226   6.948
30228SOL    HW292582   5.806   3.106   7.026
30229SOL     OW92583   6.327   7.866  14.592
30229SOL    HW192584   6.338   7.956  14.623
30229SOL    HW292585   6.369   7.812  14.659
30230SOL     OW92586   3.130   3.827   9.473
30230SOL    HW192587   3.159   3.744   9.436
30230SOL    HW292588   3.066   3.860   9.410
30231SOL     OW92589   8.831  13.836   4.522
30231SOL    HW192590   8.916  13.881   4.517
30231SOL    HW292591   8.773  13.888   4.467
30232SOL     OW92592  14.041   7.290   3.730
30232SOL    HW192593  14.077   7.240   3.657
30232SOL    HW292594  13.998   7.225   3.786
30233SOL     OW92595   1.429   4.815  10.046
30233SOL    HW192596   1.375   4.886  10.011
30233SOL    HW292597   1.519   4.845  10.034
30234SOL     OW92598   9.860   7.684   6.765
30234SOL    HW192599   9.776   7.715   6.800
30234SOL    HW292600   9.896   7.759   6.718
30235SOL     OW92601  11.569   3.621   7.401
30235SOL    HW192602  11.556   3.537   7.445
30235SOL    HW292603  11.605   3.598   7.316
30236SOL     OW92604   4.037   3.658   9.731
30236SOL    HW192605   4.080   3.678   9.647
30236SOL    HW292606   4.076   3.719   9.793
30237SOL     OW92607   5.419   4.553  10.464
30237SOL    HW192608   5.392   4.523  10.377
30237SOL    HW292609   5.387   4.485  10.523
30238SOL     OW92610   5.769   8.107   4.665
30238SOL    HW192611   5.714   8.185   4.653
30238SOL    HW292612   5.753   8.080   4.756
30239SOL     OW92613   6.036   2.165   6.350
30239SOL    HW192614   6.025   2.142   6.442
30239SOL    HW292615   6.105   2.106   6.319
30240SOL     OW92616   9.082  14.841  12.516
30240SOL    HW192617   9.033  14.828  12.434
30240SOL    HW292618   9.015  14.856  12.582
30241SOL     OW92619   2.176   5.106  10.993
30241SOL    HW192620   2.086   5.074  11.002
30241SOL    HW292621   2.209   5.110  11.083
30242SOL     OW92622  13.060   7.131   8.686
30242SOL    HW192623  12.984   7.174   8.724
30242SOL    HW292624  13.114   7.203   8.653
30243SOL     OW92625  11.041  10.805   2.445
30243SOL    HW192626  11.046  10.716   2.481
30243SOL    HW292627  10.950  10.832   2.462
30244SOL     OW92628  12.548  14.877   0.042
30244SOL    HW192629  12.457   0.020   0.029
30244SOL    HW292630  12.544  14.784   0.065
30245SOL     OW92631   8.358   0.355  14.408
30245SOL    HW192632   8.326   0.265  14.416
30245SOL    HW292633   8.278   0.408  14.402
30246SOL     OW92634   5.459   7.637   0.341
30246SOL    HW192635   5.485   7.647   0.249
30246SOL    HW292636   5.538   7.610   0.386
30247SOL     OW92637  10.876   7.507  10.965
30247SOL    HW192638  10.835   7.528  11.049
30247SOL    HW292639  10.896   7.413  10.971
30248SOL     OW92640   8.618  10.687   5.097
30248SOL    HW192641   8.532  10.643   5.101
30248SOL    HW292642   8.621  10.740   5.176
30249SOL     OW92643  10.061   3.952   4.437
30249SOL    HW192644  10.011   3.903   4.502
30249SOL    HW292645  10.142   3.902   4.427
30250SOL     OW92646   5.521   2.106   5.446
30250SOL    HW192647   5.557   2.181   5.494
30250SOL    HW292648   5.428   2.128   5.433
30251SOL     OW92649  11.415   8.913   6.371
30251SOL    HW192650  11.321   8.909   6.355
30251SOL    HW292651  11.431   9.005   6.392
30252SOL     OW92652   8.203   7.535   7.119
30252SOL    HW192653   8.176   7.443   7.109
30252SOL    HW292654   8.260   7.551   7.044
30253SOL     OW92655  12.185   8.980  12.157
30253SOL    HW192656  12.099   8.939  12.154
30253SOL    HW292657  12.216   8.976  12.066
30254SOL     OW92658   6.704   6.436   4.978
30254SOL    HW192659   6.779   6.447   4.919
30254SOL    HW292660   6.654   6.516   4.969
30255SOL     OW92661   7.099  13.767  14.579
30255SOL    HW192662   7.116  13.809  14.663
30255SOL    HW292663   7.043  13.828  14.532
30256SOL     OW92664   9.372   6.292  11.367
30256SOL    HW192665   9.312   6.290  11.441
30256SOL    HW292666   9.403   6.382  11.363
30257SOL     OW92667   5.800   7.935  10.455
30257SOL    HW192668   5.714   7.900  10.477
30257SOL    HW292669   5.784   7.993  10.380
30258SOL     OW92670   8.912   7.748   0.961
30258SOL    HW192671   8.970   7.791   1.024
30258SOL    HW292672   8.877   7.672   1.008
30259SOL     OW92673   2.290   3.174   8.595
30259SOL    HW192674   2.249   3.132   8.520
30259SOL    HW292675   2.343   3.105   8.636
30260SOL     OW92676   4.323   1.669  11.015
30260SOL    HW192677   4.297   1.729  10.946
30260SOL    HW292678   4.418   1.664  11.009
30261SOL     OW92679   6.584  13.208   4.579
30261SOL    HW192680   6.507  13.235   4.529
30261SOL    HW292681   6.566  13.237   4.669
30262SOL     OW92682  10.363  12.471   6.681
30262SOL    HW192683  10.298  12.461   6.611
30262SOL    HW292684  10.441  12.427   6.647
30263SOL     OW92685   8.703   3.067  12.755
30263SOL    HW192686   8.753   3.052  12.835
30263SOL    HW292687   8.665   3.155  12.766
30264SOL     OW92688  13.930   1.374   5.507
30264SOL    HW192689  14.009   1.394   5.457
30264SOL    HW292690  13.957   1.305   5.568
30265SOL     OW92691   5.358   1.491   5.905
30265SOL    HW192692   5.296   1.427   5.870
30265SOL    HW292693   5.420   1.507   5.834
30266SOL     OW92694  14.212   0.484   0.569
30266SOL    HW192695  14.292   0.533   0.552
30266SOL    HW292696  14.192   0.441   0.486
30267SOL     OW92697   1.306   3.846   3.971
30267SOL    HW192698   1.346   3.768   3.934
30267SOL    HW292699   1.287   3.823   4.062
30268SOL     OW92700   8.295  12.987  13.564
30268SOL    HW192701   8.265  13.052  13.627
30268SOL    HW292702   8.254  12.905  13.593
30269SOL     OW92703  12.341   6.974  11.705
30269SOL    HW192704  12.409   7.025  11.749
30269SOL    HW292705  12.289   7.039  11.658
30270SOL     OW92706   4.729   4.751   8.551
30270SOL    HW192707   4.640   4.779   8.572
30270SOL    HW292708   4.750   4.686   8.619
30271SOL     OW92709  11.842  10.181  12.283
30271SOL    HW192710  11.763  10.142  12.321
30271SOL    HW292711  11.818  10.203  12.193
30272SOL     OW92712   0.620  14.642   0.936
30272SOL    HW192713   0.541  14.593   0.913
30272SOL    HW292714   0.683  14.618   0.869
30273SOL     OW92715   5.421   9.609   4.853
30273SOL    HW192716   5.368   9.674   4.807
30273SOL    HW292717   5.361   9.568   4.915
30274SOL     OW92718   3.818  14.581   3.306
30274SOL    HW192719   3.859  14.509   3.258
30274SOL    HW292720   3.891  14.640   3.328
30275SOL     OW92721  11.375   2.935  14.485
30275SOL    HW192722  11.328   2.854  14.501
30275SOL    HW292723  11.378   2.943  14.389
30276SOL     OW92724  10.923   9.840  13.003
30276SOL    HW192725  10.861   9.891  12.951
30276SOL    HW292726  10.869   9.775  13.049
30277SOL     OW92727   6.653   7.371   6.336
30277SOL    HW192728   6.723   7.423   6.375
30277SOL    HW292729   6.688   7.344   6.251
30278SOL     OW92730   9.489  13.247  10.150
30278SOL    HW192731   9.515  13.182  10.085
30278SOL    HW292732   9.394  13.237  10.156
30279SOL     OW92733   1.995   8.913  12.878
30279SOL    HW192734   2.014   8.870  12.794
30279SOL    HW292735   1.913   8.959  12.862
30280SOL     OW92736   2.058   7.295   5.291
30280SOL    HW192737   2.129   7.238   5.261
30280SOL    HW292738   2.086   7.325   5.378
30281SOL     OW92739   1.312   6.697   8.538
30281SOL    HW192740   1.257   6.768   8.570
30281SOL    HW292741   1.368   6.737   8.472
30282SOL     OW92742   4.927   2.133   4.706
30282SOL    HW192743   4.938   2.160   4.615
30282SOL    HW292744   4.835   2.110   4.713
30283SOL     OW92745  11.566  11.330  11.388
30283SOL    HW192746  11.482  11.369  11.411
30283SOL    HW292747  11.544  11.257  11.330
30284SOL     OW92748   7.166   9.190   3.412
30284SOL    HW192749   7.156   9.199   3.318
30284SOL    HW292750   7.142   9.100   3.431
30285SOL     OW92751   4.847  13.705  14.037
30285SOL    HW192752   4.819  13.779  14.092
30285SOL    HW292753   4.814  13.628  14.084
30286SOL     OW92754   3.045  12.525   5.865
30286SOL    HW192755   2.992  12.600   5.891
30286SOL    HW292756   2.985  12.468   5.817
30287SOL     OW92757  11.080   0.560   4.267
30287SOL    HW192758  11.066   0.537   4.175
30287SOL    HW292759  11.161   0.612   4.267
30288SOL     OW92760   6.387   5.802  10.335
30288SOL    HW192761   6.481   5.804  10.353
30288SOL    HW292762   6.360   5.713  10.356
30289SOL     OW92763   7.414  13.241   9.996
30289SOL    HW192764   7.466  13.259  10.074
30289SOL    HW292765   7.324  13.235  10.027
30290SOL     OW92766  10.738   1.476   6.846
30290SOL    HW192767  10.673   1.496   6.779
30290SOL    HW292768  10.743   1.381   6.847
30291SOL     OW92769   1.175   2.599   3.969
30291SOL    HW192770   1.115   2.525   3.979
30291SOL    HW292771   1.151   2.638   3.886
30292SOL     OW92772  14.514   5.869   1.419
30292SOL    HW192773  14.583   5.813   1.453
30292SOL    HW292774  14.556   5.919   1.348
30293SOL     OW92775  14.156  13.391   9.137
30293SOL    HW192776  14.083  13.448   9.113
30293SOL    HW292777  14.144  13.376   9.230
30294SOL     OW92778   5.974   9.812  11.921
30294SOL    HW192779   6.066   9.785  11.918
30294SOL    HW292780   5.977   9.907  11.931
30295SOL     OW92781   4.576   3.427   8.584
30295SOL    HW192782   4.623   3.494   8.634
30295SOL    HW292783   4.502   3.474   8.546
30296SOL     OW92784   8.144   0.765   9.486
30296SOL    HW192785   8.190   0.805   9.413
30296SOL    HW292786   8.089   0.835   9.521
30297SOL     OW92787   3.183  12.548  11.783
30297SOL    HW192788   3.151  12.459  11.768
30297SOL    HW292789   3.124  12.583  11.849
30298SOL     OW92790   6.260   2.541   1.969
30298SOL    HW192791   6.340   2.560   2.019
30298SOL    HW292792   6.223   2.627   1.951
30299SOL     OW92793   0.148   4.989   5.583
30299SOL    HW192794   0.149   4.999   5.487
30299SOL    HW292795   0.210   4.919   5.601
30300SOL     OW92796   4.579   1.150   2.142
30300SOL    HW192797   4.498   1.105   2.164
30300SOL    HW292798   4.555   1.208   2.070
30301SOL     OW92799   5.634   3.762   8.532
30301SOL    HW192800   5.611   3.791   8.621
30301SOL    HW292801   5.718   3.804   8.514
30302SOL     OW92802  12.112   9.172   7.143
30302SOL    HW192803  12.050   9.167   7.071
30302SOL    HW292804  12.115   9.084   7.179
30303SOL     OW92805   8.474  13.917   5.867
30303SOL    HW192806   8.510  13.961   5.790
30303SOL    HW292807   8.527  13.838   5.876
30304SOL     OW92808   3.468   4.829  11.201
30304SOL    HW192809   3.453   4.877  11.120
30304SOL    HW292810   3.521   4.888  11.255
30305SOL     OW92811  11.559   3.633   1.239
30305SOL    HW192812  11.576   3.565   1.174
30305SOL    HW292813  11.627   3.699   1.224
30306SOL     OW92814   8.309  11.066   1.391
30306SOL    HW192815   8.360  11.059   1.310
30306SOL    HW292816   8.231  11.116   1.366
30307SOL     OW92817  11.362   0.839   8.384
30307SOL    HW192818  11.375   0.790   8.466
30307SOL    HW292819  11.298   0.906   8.407
30308SOL     OW92820   8.927   5.880   7.034
30308SOL    HW192821   8.939   5.861   6.941
30308SOL    HW292822   9.013   5.910   7.064
30309SOL     OW92823   7.355  12.246   9.003
30309SOL    HW192824   7.424  12.243   9.069
30309SOL    HW292825   7.394  12.294   8.930
30310SOL     OW92826   5.807  14.568   4.338
30310SOL    HW192827   5.758  14.486   4.338
30310SOL    HW292828   5.841  14.576   4.249
30311SOL     OW92829   6.809   8.154   0.137
30311SOL    HW192830   6.901   8.137   0.160
30311SOL    HW292831   6.805   8.137   0.043
30312SOL     OW92832  12.066  12.850   6.558
30312SOL    HW192833  12.107  12.789   6.618
30312SOL    HW292834  11.973  12.850   6.583
30313SOL     OW92835  13.162   2.863   8.421
30313SOL    HW192836  13.246   2.851   8.466
30313SOL    HW292837  13.097   2.840   8.487
30314SOL     OW92838  14.130   6.548  13.287
30314SOL    HW192839  14.062   6.596  13.240
30314SOL    HW292840  14.186   6.511  13.218
30315SOL     OW92841   6.537   1.319  12.366
30315SOL    HW192842   6.444   1.332  12.350
30315SOL    HW292843   6.580   1.363  12.293
30316SOL     OW92844   0.589   2.610  13.833
30316SOL    HW192845   0.636   2.643  13.757
30316SOL    HW292846   0.505   2.581  13.798
30317SOL     OW92847   6.509  10.654   5.343
30317SOL    HW192848   6.466  10.624   5.424
30317SOL    HW292849   6.537  10.573   5.300
30318SOL     OW92850   1.616   9.478  10.859
30318SOL    HW192851   1.551   9.410  10.875
30318SOL    HW292852   1.594   9.512  10.772
30319SOL     OW92853   6.592   0.185  13.704
30319SOL    HW192854   6.536   0.254  13.667
30319SOL    HW292855   6.557   0.104  13.668
30320SOL     OW92856   1.368   7.640   9.712
30320SOL    HW192857   1.303   7.680   9.654
30320SOL    HW292858   1.423   7.588   9.653
30321SOL     OW92859  11.893   5.223   6.586
30321SOL    HW192860  11.806   5.201   6.621
30321SOL    HW292861  11.881   5.226   6.491
30322SOL     OW92862   2.712   3.310   3.182
30322SOL    HW192863   2.761   3.372   3.127
30322SOL    HW292864   2.734   3.224   3.146
30323SOL     OW92865  13.178   7.010   1.851
30323SOL    HW192866  13.227   6.946   1.799
30323SOL    HW292867  13.221   7.093   1.833
30324SOL     OW92868   3.849  12.994  10.942
30324SOL    HW192869   3.881  13.057  11.007
30324SOL    HW292870   3.923  12.981  10.883
30325SOL     OW92871   6.802   5.471   6.716
30325SOL    HW192872   6.807   5.536   6.646
30325SOL    HW292873   6.892   5.465   6.749
30326SOL     OW92874   8.821   7.467   6.944
30326SOL    HW192875   8.868   7.521   7.008
30326SOL    HW292876   8.798   7.388   6.993
30327SOL     OW92877  14.030  14.846  11.947
30327SOL    HW192878  14.074  14.761  11.955
30327SOL    HW292879  14.021  14.860  11.853
30328SOL     OW92880   5.634   3.691   2.151
30328SOL    HW192881   5.629   3.700   2.246
30328SOL    HW292882   5.697   3.757   2.123
30329SOL     OW92883   0.858   7.797   9.338
30329SOL    HW192884   0.849   7.708   9.372
30329SOL    HW292885   0.837   7.853   9.413
30330SOL     OW92886   1.194   0.444   2.534
30330SOL    HW192887   1.113   0.402   2.561
30330SOL    HW292888   1.174   0.537   2.531
30331SOL     OW92889   6.401  14.060   9.529
30331SOL    HW192890   6.363  14.007   9.599
30331SOL    HW292891   6.481  14.095   9.567
30332SOL     OW92892   0.496   1.666  14.103
30332SOL    HW192893   0.425   1.702  14.049
30332SOL    HW292894   0.506   1.576  14.072
30333SOL     OW92895  12.444   7.942   3.741
30333SOL    HW192896  12.509   8.011   3.755
30333SOL    HW292897  12.372   7.985   3.694
30334SOL     OW92898   8.839   8.348   8.529
30334SOL    HW192899   8.762   8.372   8.581
30334SOL    HW292900   8.804   8.325   8.443
30335SOL     OW92901   2.651  14.391   7.655
30335SOL    HW192902   2.679  14.303   7.681
30335SOL    HW292903   2.712  14.417   7.586
30336SOL     OW92904  14.535   4.875   9.131
30336SOL    HW192905  14.612   4.843   9.177
30336SOL    HW292906  14.506   4.951   9.181
30337SOL     OW92907  11.130   1.874   3.265
30337SOL    HW192908  11.195   1.903   3.328
30337SOL    HW292909  11.137   1.935   3.192
30338SOL     OW92910  12.830  14.546  13.284
30338SOL    HW192911  12.771  14.493  13.231
30338SOL    HW292912  12.842  14.495  13.365
30339SOL     OW92913   2.013  12.174   0.289
30339SOL    HW192914   1.953  12.141   0.223
30339SOL    HW292915   2.061  12.097   0.319
30340SOL     OW92916   9.269   5.811   9.564
30340SOL    HW192917   9.207   5.843   9.629
30340SOL    HW292918   9.226   5.734   9.526
30341SOL     OW92919  14.130   8.883   6.606
30341SOL    HW192920  14.135   8.920   6.518
30341SOL    HW292921  14.155   8.955   6.665
30342SOL     OW92922   4.309  14.134   2.762
30342SOL    HW192923   4.355  14.212   2.732
30342SOL    HW292924   4.244  14.116   2.694
30343SOL     OW92925   7.607   6.891   5.623
30343SOL    HW192926   7.692   6.847   5.631
30343SOL    HW292927   7.564   6.847   5.550
30344SOL     OW92928   2.829  10.284   3.853
30344SOL    HW192929   2.924  10.295   3.849
30344SOL    HW292930   2.806  10.249   3.767
30345SOL     OW92931   3.006  11.076   7.034
30345SOL    HW192932   3.002  11.087   6.939
30345SOL    HW292933   2.970  10.989   7.049
30346SOL     OW92934  13.467   9.227   8.145
30346SOL    HW192935  13.493   9.219   8.054
30346SOL    HW292936  13.384   9.180   8.151
30347SOL     OW92937   1.116   7.689  10.199
30347SOL    HW192938   1.131   7.626  10.270
30347SOL    HW292939   1.198   7.688  10.149
30348SOL     OW92940  13.919  10.357  13.717
30348SOL    HW192941  13.963  10.348  13.632
30348SOL    HW292942  13.826  10.357  13.695
30349SOL     OW92943   0.429  13.677   6.095
30349SOL    HW192944   0.421  13.771   6.112
30349SOL    HW292945   0.509  13.651   6.142
30350SOL     OW92946  11.215   9.806   4.897
30350SOL    HW192947  11.157   9.843   4.964
30350SOL    HW292948  11.198   9.712   4.900
30351SOL     OW92949   4.801   1.718   3.877
30351SOL    HW192950   4.742   1.776   3.830
30351SOL    HW292951   4.791   1.633   3.834
30352SOL     OW92952   6.946   5.763   0.270
30352SOL    HW192953   6.853   5.750   0.252
30352SOL    HW292954   6.991   5.730   0.192
30353SOL     OW92955   8.295  12.216  10.445
30353SOL    HW192956   8.250  12.190  10.526
30353SOL    HW292957   8.346  12.139  10.419
30354SOL     OW92958  13.625   2.770   6.941
30354SOL    HW192959  13.574   2.716   6.880
30354SOL    HW292960  13.573   2.773   7.020
30355SOL     OW92961  13.139   8.105   6.051
30355SOL    HW192962  13.168   8.033   6.106
30355SOL    HW292963  13.166   8.080   5.963
30356SOL     OW92964   4.016   3.622  13.575
30356SOL    HW192965   3.931   3.593  13.540
30356SOL    HW292966   4.034   3.704  13.528
30357SOL     OW92967   8.147   6.273  13.765
30357SOL    HW192968   8.195   6.304  13.689
30357SOL    HW292969   8.064   6.239  13.730
30358SOL     OW92970   7.857   3.266   2.267
30358SOL    HW192971   7.819   3.190   2.312
30358SOL    HW292972   7.900   3.316   2.336
30359SOL     OW92973  14.413   4.343   5.115
30359SOL    HW192974  14.346   4.385   5.168
30359SOL    HW292975  14.482   4.319   5.177
30360SOL     OW92976  12.125   0.359  11.278
30360SOL    HW192977  12.183   0.434  11.267
30360SOL    HW292978  12.075   0.356  11.196
30361SOL     OW92979  13.267   3.449  13.028
30361SOL    HW192980  13.340   3.388  13.024
30361SOL    HW292981  13.260   3.473  13.121
30362SOL     OW92982   3.489   4.458   2.040
30362SOL    HW192983   3.530   4.434   2.123
30362SOL    HW292984   3.543   4.529   2.006
30363SOL     OW92985   2.452   4.393   4.872
30363SOL    HW192986   2.532   4.443   4.857
30363SOL    HW292987   2.441   4.393   4.968
30364SOL     OW92988  14.808  14.189  13.618
30364SOL    HW192989  14.801  14.151  13.530
30364SOL    HW292990  14.841  14.277  13.603
30365SOL     OW92991  12.600  11.540  14.162
30365SOL    HW192992  12.663  11.539  14.090
30365SOL    HW292993  12.641  11.597  14.228
30366SOL     OW92994  12.540   3.140   0.216
30366SOL    HW192995  12.548   3.196   0.293
30366SOL    HW292996  12.447   3.118   0.211
30367SOL     OW92997   4.445   2.541   2.301
30367SOL    HW192998   4.466   2.523   2.393
30367SOL    HW292999   4.513   2.495   2.252
30368SOL     OW93000  13.816   2.260  11.990
30368SOL    HW193001  13.868   2.198  12.041
30368SOL    HW293002  13.870   2.338  11.985
30369SOL     OW93003   1.005   5.477   4.650
30369SOL    HW193004   0.958   5.492   4.568
30369SOL    HW293005   1.009   5.382   4.659
30370SOL     OW93006   5.763   1.882   3.914
30370SOL    HW193007   5.698   1.815   3.937
30370SOL    HW293008   5.727   1.923   3.835
30371SOL     OW93009   3.024   4.253   6.053
30371SOL    HW193010   3.042   4.340   6.016
30371SOL    HW293011   3.044   4.192   5.983
30372SOL     OW93012  13.192   3.624   7.822
30372SOL    HW193013  13.275   3.584   7.847
30372SOL    HW293014  13.191   3.618   7.726
30373SOL     OW93015   6.574   9.398   7.523
30373SOL    HW193016   6.656   9.378   7.478
30373SOL    HW293017   6.506   9.356   7.470
30374SOL     OW93018  13.082   2.664  14.228
30374SOL    HW193019  13.108   2.752  14.201
30374SOL    HW293020  13.122   2.653  14.314
30375SOL     OW93021   3.991   6.138   6.782
30375SOL    HW193022   4.064   6.188   6.819
30375SOL    HW293023   3.951   6.094   6.857
30376SOL     OW93024   7.412   6.434  12.658
30376SOL    HW193025   7.430   6.517  12.612
30376SOL    HW293026   7.352   6.388  12.601
30377SOL     OW93027   1.501   2.663   0.413
30377SOL    HW193028   1.552   2.583   0.429
30377SOL    HW293029   1.464   2.650   0.326
30378SOL     OW93030   5.759   6.891  11.605
30378SOL    HW193031   5.798   6.863  11.522
30378SOL    HW293032   5.748   6.986  11.595
30379SOL     OW93033   2.139   3.417   6.646
30379SOL    HW193034   2.099   3.427   6.559
30379SOL    HW293035   2.230   3.442   6.633
30380SOL     OW93036   7.325   7.004  11.037
30380SOL    HW193037   7.416   6.986  11.059
30380SOL    HW293038   7.327   7.091  10.996
30381SOL     OW93039  10.090   0.068  14.541
30381SOL    HW193040  10.135  14.866  14.534
30381SOL    HW293041  10.160   0.133  14.548
30382SOL     OW93042   8.184   7.062   9.128
30382SOL    HW193043   8.137   7.137   9.165
30382SOL    HW293044   8.116   6.996   9.113
30383SOL     OW93045   6.107  14.626   7.704
30383SOL    HW193046   6.141  14.630   7.793
30383SOL    HW293047   6.058  14.708   7.693
30384SOL     OW93048  14.466   9.238   5.317
30384SOL    HW193049  14.428   9.278   5.395
30384SOL    HW293050  14.399   9.251   5.249
30385SOL     OW93051  13.184   5.038  10.947
30385SOL    HW193052  13.173   5.089  11.028
30385SOL    HW293053  13.156   5.097  10.878
30386SOL     OW93054  11.703   6.467   6.982
30386SOL    HW193055  11.693   6.554   7.019
30386SOL    HW293056  11.652   6.468   6.902
30387SOL     OW93057   4.146   4.658   5.983
30387SOL    HW193058   4.075   4.655   5.919
30387SOL    HW293059   4.170   4.751   5.988
30388SOL     OW93060  10.001   1.185   8.901
30388SOL    HW193061   9.915   1.145   8.892
30388SOL    HW293062  10.062   1.111   8.903
30389SOL     OW93063   1.053  13.026  14.880
30389SOL    HW193064   1.025  12.947   0.045
30389SOL    HW293065   0.981  13.043  14.819
30390SOL     OW93066   5.181  10.058  10.047
30390SOL    HW193067   5.174   9.963  10.060
30390SOL    HW293068   5.094  10.083  10.014
30391SOL     OW93069   5.047   8.604  10.485
30391SOL    HW193070   5.081   8.532  10.537
30391SOL    HW293071   5.065   8.682  10.538
30392SOL     OW93072  12.737   7.880  13.222
30392SOL    HW193073  12.759   7.964  13.184
30392SOL    HW293074  12.803   7.820  13.188
30393SOL     OW93075   7.749   2.871   5.529
30393SOL    HW193076   7.733   2.896   5.438
30393SOL    HW293077   7.715   2.781   5.535
30394SOL     OW93078  14.039  10.836   1.543
30394SOL    HW193079  14.085  10.917   1.564
30394SOL    HW293080  14.103  10.767   1.555
30395SOL     OW93081   0.247   7.975   8.147
30395SOL    HW193082   0.199   8.046   8.189
30395SOL    HW293083   0.339   7.990   8.172
30396SOL     OW93084   7.137   4.394   5.401
30396SOL    HW193085   7.053   4.384   5.355
30396SOL    HW293086   7.147   4.488   5.412
30397SOL     OW93087  10.795   2.028  13.217
30397SOL    HW193088  10.762   1.995  13.300
30397SOL    HW293089  10.889   2.039  13.231
30398SOL     OW93090   7.553   1.825  11.852
30398SOL    HW193091   7.500   1.868  11.920
30398SOL    HW293092   7.580   1.742  11.891
30399SOL     OW93093  10.067  10.571  14.777
30399SOL    HW193094  10.011  10.603  14.706
30399SOL    HW293095  10.021  10.496  14.812
30400SOL     OW93096   5.839   2.154  13.811
30400SOL    HW193097   5.745   2.144  13.800
30400SOL    HW293098   5.878   2.079  13.766
30401SOL     OW93099   2.367   3.243   8.198
30401SOL    HW193100   2.402   3.322   8.156
30401SOL    HW293101   2.370   3.176   8.130
30402SOL     OW93102  11.038  10.017   0.255
30402SOL    HW193103  11.100  10.069   0.204
30402SOL    HW293104  11.004   9.953   0.192
30403SOL     OW93105  14.474  13.228   9.462
30403SOL    HW193106  14.455  13.171   9.537
30403SOL    HW293107  14.562  13.202   9.434
30404SOL     OW93108   4.371   0.499   3.020
30404SOL    HW193109   4.298   0.494   3.082
30404SOL    HW293110   4.447   0.475   3.072
30405SOL     OW93111   1.038   0.155   3.982
30405SOL    HW193112   1.092   0.234   3.986
30405SOL    HW293113   0.948   0.187   3.978
30406SOL     OW93114   3.301   0.415  10.371
30406SOL    HW193115   3.231   0.468  10.410
30406SOL    HW293116   3.280   0.413  10.278
30407SOL     OW93117   0.767  13.927   2.945
30407SOL    HW193118   0.705  13.859   2.921
30407SOL    HW293119   0.850  13.881   2.956
30408SOL     OW93120   0.605  13.959   7.117
30408SOL    HW193121   0.640  13.952   7.206
30408SOL    HW293122   0.671  14.010   7.070
30409SOL     OW93123  11.642   3.124   6.148
30409SOL    HW193124  11.602   3.040   6.129
30409SOL    HW293125  11.576   3.189   6.121
30410SOL     OW93126   1.630   4.322   7.934
30410SOL    HW193127   1.685   4.244   7.942
30410SOL    HW293128   1.562   4.311   8.001
30411SOL     OW93129   6.347   6.113   1.786
30411SOL    HW193130   6.391   6.050   1.844
30411SOL    HW293131   6.353   6.074   1.699
30412SOL     OW93132  10.563  10.803   5.156
30412SOL    HW193133  10.649  10.841   5.171
30412SOL    HW293134  10.504  10.854   5.213
30413SOL     OW93135  11.454   0.136  13.437
30413SOL    HW193136  11.532   0.127  13.492
30413SOL    HW293137  11.450   0.229  13.416
30414SOL     OW93138  11.125  14.841   2.462
30414SOL    HW193139  11.037  14.806   2.455
30414SOL    HW293140  11.113   0.053   2.473
30415SOL     OW93141   0.974  10.766   4.904
30415SOL    HW193142   0.902  10.785   4.964
30415SOL    HW293143   0.932  10.744   4.821
30416SOL     OW93144  13.990  10.144  11.035
30416SOL    HW193145  13.977  10.157  11.128
30416SOL    HW293146  13.931  10.206  10.992
30417SOL     OW93147  10.094   8.118   8.473
30417SOL    HW193148  10.145   8.080   8.545
30417SOL    HW293149  10.025   8.054   8.456
30418SOL     OW93150   0.945   0.628   3.933
30418SOL    HW193151   1.018   0.689   3.922
30418SOL    HW293152   0.918   0.639   4.024
30419SOL     OW93153   1.171  12.659  13.963
30419SOL    HW193154   1.266  12.661  13.950
30419SOL    HW293155   1.159  12.677  14.056
30420SOL     OW93156   8.898  12.778   8.594
30420SOL    HW193157   8.892  12.873   8.597
30420SOL    HW293158   8.982  12.758   8.636
30421SOL     OW93159   8.140  11.279   0.007
30421SOL    HW193160   8.106  11.366  14.867
30421SOL    HW293161   8.148  11.279   0.102
30422SOL     OW93162  11.386   2.277   2.546
30422SOL    HW193163  11.341   2.229   2.616
30422SOL    HW293164  11.454   2.326   2.592
30423SOL     OW93165   0.152   5.478   0.169
30423SOL    HW193166   0.083   5.413   0.177
30423SOL    HW293167   0.160   5.494   0.075
30424SOL     OW93168   0.151  14.361  14.228
30424SOL    HW193169   0.206  14.438  14.216
30424SOL    HW293170   0.062  14.396  14.237
30425SOL     OW93171   0.123   4.218   1.042
30425SOL    HW193172   0.051   4.190   0.986
30425SOL    HW293173   0.111   4.168   1.124
30426SOL     OW93174  10.224   4.711   4.117
30426SOL    HW193175  10.227   4.805   4.099
30426SOL    HW293176  10.288   4.698   4.186
30427SOL     OW93177   5.076   2.519  14.632
30427SOL    HW193178   5.023   2.598  14.618
30427SOL    HW293179   5.139   2.544  14.700
30428SOL     OW93180  14.756  10.206   7.949
30428SOL    HW193181  14.704  10.143   7.999
30428SOL    HW293182  14.713  10.290   7.964
30429SOL     OW93183  13.354  10.675   6.056
30429SOL    HW193184  13.310  10.745   6.105
30429SOL    HW293185  13.420  10.641   6.116
30430SOL     OW93186   6.690   7.257  11.983
30430SOL    HW193187   6.757   7.265  11.916
30430SOL    HW293188   6.622   7.319  11.955
30431SOL     OW93189  13.392   2.685  11.356
30431SOL    HW193190  13.416   2.626  11.427
30431SOL    HW293191  13.359   2.763  11.400
30432SOL     OW93192   0.498   8.624  11.629
30432SOL    HW193193   0.586   8.602  11.598
30432SOL    HW293194   0.497   8.594  11.720
30433SOL     OW93195   4.007  10.467   9.293
30433SOL    HW193196   4.037  10.379   9.314
30433SOL    HW293197   4.070  10.525   9.336
30434SOL     OW93198  13.373  11.594   6.938
30434SOL    HW193199  13.297  11.576   6.994
30434SOL    HW293200  13.342  11.661   6.877
30435SOL     OW93201   9.446  12.928   0.302
30435SOL    HW193202   9.536  12.926   0.334
30435SOL    HW293203   9.454  12.902   0.210
30436SOL     OW93204   6.698  11.189  13.792
30436SOL    HW193205   6.649  11.270  13.772
30436SOL    HW293206   6.737  11.164  13.708
30437SOL     OW93207  14.779   3.476   9.717
30437SOL    HW193208  14.779   3.431   9.801
30437SOL    HW293209  14.832   3.421   9.660
30438SOL     OW93210  12.625   8.588  14.596
30438SOL    HW193211  12.568   8.522  14.558
30438SOL    HW293212  12.677   8.540  14.660
30439SOL     OW93213   8.950  12.829   4.998
30439SOL    HW193214   9.005  12.893   5.042
30439SOL    HW293215   8.872  12.822   5.053
30440SOL     OW93216  12.674   2.173   1.810
30440SOL    HW193217  12.644   2.257   1.775
30440SOL    HW293218  12.696   2.191   1.901
30441SOL     OW93219   4.719   9.835   4.608
30441SOL    HW193220   4.748   9.884   4.530
30441SOL    HW293221   4.776   9.867   4.678
30442SOL     OW93222   5.907   9.979  14.290
30442SOL    HW193223   5.938  10.051  14.344
30442SOL    HW293224   5.931  10.003  14.201
30443SOL     OW93225  10.585   8.319   9.310
30443SOL    HW193226  10.652   8.353   9.369
30443SOL    HW293227  10.503   8.329   9.359
30444SOL     OW93228  12.655   8.967   0.251
30444SOL    HW193229  12.562   8.961   0.272
30444SOL    HW293230  12.699   8.980   0.335
30445SOL     OW93231  12.515   6.054   4.977
30445SOL    HW193232  12.477   6.104   5.049
30445SOL    HW293233  12.609   6.064   4.987
30446SOL     OW93234   5.225   2.710  11.948
30446SOL    HW193235   5.259   2.633  11.993
30446SOL    HW293236   5.252   2.784  12.003
30447SOL     OW93237   3.646  14.778  10.003
30447SOL    HW193238   3.682  14.752   9.918
30447SOL    HW293239   3.677  14.712  10.064
30448SOL     OW93240  11.448   8.981   6.876
30448SOL    HW193241  11.470   9.034   6.952
30448SOL    HW293242  11.360   9.009   6.851
30449SOL     OW93243  11.635   8.171   5.958
30449SOL    HW193244  11.654   8.263   5.940
30449SOL    HW293245  11.539   8.166   5.953
30450SOL     OW93246  13.599  10.194   0.708
30450SOL    HW193247  13.516  10.147   0.704
30450SOL    HW293248  13.627  10.185   0.800
30451SOL     OW93249   7.269   0.552  10.149
30451SOL    HW193250   7.271   0.458  10.131
30451SOL    HW293251   7.182   0.580  10.119
30452SOL     OW93252   5.628   0.215   5.605
30452SOL    HW193253   5.690   0.163   5.656
30452SOL    HW293254   5.549   0.217   5.658
30453SOL     OW93255   2.688   0.762  14.199
30453SOL    HW193256   2.761   0.824  14.198
30453SOL    HW293257   2.697   0.713  14.117
30454SOL     OW93258  13.887   8.331   5.369
30454SOL    HW193259  13.953   8.364   5.308
30454SOL    HW293260  13.933   8.265   5.421
30455SOL     OW93261  12.345  10.311   9.629
30455SOL    HW193262  12.361  10.387   9.685
30455SOL    HW293263  12.429  10.266   9.627
30456SOL     OW93264  13.860   8.766  10.649
30456SOL    HW193265  13.919   8.734  10.718
30456SOL    HW293266  13.799   8.824  10.695
30457SOL     OW93267   7.713  12.588   5.607
30457SOL    HW193268   7.787  12.648   5.596
30457SOL    HW293269   7.723  12.525   5.536
30458SOL     OW93270   6.178  14.329  13.582
30458SOL    HW193271   6.215  14.241  13.581
30458SOL    HW293272   6.131  14.335  13.665
30459SOL     OW93273   8.885  13.594   8.028
30459SOL    HW193274   8.932  13.549   8.099
30459SOL    HW293275   8.952  13.644   7.982
30460SOL     OW93276   9.275   0.938   9.004
30460SOL    HW193277   9.209   0.985   8.953
30460SOL    HW293278   9.228   0.860   9.037
30461SOL     OW93279  10.888   1.779   5.779
30461SOL    HW193280  10.827   1.775   5.852
30461SOL    HW293281  10.971   1.806   5.819
30462SOL     OW93282  12.114   7.413   9.511
30462SOL    HW193283  12.092   7.476   9.443
30462SOL    HW293284  12.036   7.407   9.565
30463SOL     OW93285  12.675   8.403   8.412
30463SOL    HW193286  12.651   8.493   8.389
30463SOL    HW293287  12.770   8.402   8.409
30464SOL     OW93288   8.037  13.886   2.411
30464SOL    HW193289   8.045  13.977   2.439
30464SOL    HW293290   8.052  13.889   2.316
30465SOL     OW93291   0.413  11.890  14.296
30465SOL    HW193292   0.469  11.830  14.345
30465SOL    HW293293   0.325  11.875  14.331
30466SOL     OW93294  14.331   2.390   5.857
30466SOL    HW193295  14.298   2.405   5.768
30466SOL    HW293296  14.263   2.424   5.914
30467SOL     OW93297  10.029   6.336   3.859
30467SOL    HW193298  10.005   6.402   3.793
30467SOL    HW293299  10.065   6.263   3.808
30468SOL     OW93300   6.122   9.318   4.982
30468SOL    HW193301   6.080   9.301   4.898
30468SOL    HW293302   6.061   9.282   5.047
30469SOL     OW93303  13.307   3.297   7.494
30469SOL    HW193304  13.401   3.310   7.497
30469SOL    HW293305  13.293   3.213   7.537
30470SOL     OW93306   9.472   1.006  12.300
30470SOL    HW193307   9.440   1.000  12.390
30470SOL    HW293308   9.566   0.988  12.306
30471SOL     OW93309   4.836   9.151   9.782
30471SOL    HW193310   4.878   9.148   9.696
30471SOL    HW293311   4.909   9.143   9.844
30472SOL     OW93312   3.779   3.113  11.034
30472SOL    HW193313   3.856   3.078  10.990
30472SOL    HW293314   3.705   3.075  10.986
30473SOL     OW93315  10.634  10.741  13.505
30473SOL    HW193316  10.693  10.735  13.430
30473SOL    HW293317  10.559  10.791  13.473
30474SOL     OW93318   0.418   5.575   5.200
30474SOL    HW193319   0.334   5.535   5.176
30474SOL    HW293320   0.401   5.670   5.199
30475SOL     OW93321  13.421  11.792  14.632
30475SOL    HW193322  13.485  11.862  14.643
30475SOL    HW293323  13.473  11.717  14.603
30476SOL     OW93324   2.017   9.507  13.225
30476SOL    HW193325   2.034   9.413  13.233
30476SOL    HW293326   1.936   9.512  13.174
30477SOL     OW93327   8.169   7.714   9.232
30477SOL    HW193328   8.219   7.669   9.164
30477SOL    HW293329   8.096   7.655   9.252
30478SOL     OW93330   0.379  13.323   2.480
30478SOL    HW193331   0.325  13.278   2.415
30478SOL    HW293332   0.398  13.255   2.545
30479SOL     OW93333   5.671   0.099   5.273
30479SOL    HW193334   5.741   0.163   5.255
30479SOL    HW293335   5.595   0.153   5.292
30480SOL     OW93336   2.262  11.930   0.405
30480SOL    HW193337   2.300  12.012   0.371
30480SOL    HW293338   2.317  11.908   0.480
30481SOL     OW93339   0.821   8.633   9.464
30481SOL    HW193340   0.908   8.661   9.435
30481SOL    HW293341   0.767   8.711   9.453
30482SOL     OW93342   4.221   1.709  10.057
30482SOL    HW193343   4.255   1.653   9.987
30482SOL    HW293344   4.298   1.756  10.090
30483SOL     OW93345   2.971  11.741   6.859
30483SOL    HW193346   2.979  11.706   6.947
30483SOL    HW293347   3.058  11.729   6.820
30484SOL     OW93348   0.629  12.331   3.576
30484SOL    HW193349   0.700  12.364   3.630
30484SOL    HW293350   0.559  12.396   3.585
30485SOL     OW93351   7.028   9.368   1.308
30485SOL    HW193352   6.989   9.456   1.301
30485SOL    HW293353   6.972   9.323   1.372
30486SOL     OW93354  10.667   7.947  14.013
30486SOL    HW193355  10.659   7.989  13.927
30486SOL    HW293356  10.594   7.886  14.017
30487SOL     OW93357   5.074   8.205  11.207
30487SOL    HW193358   5.014   8.146  11.254
30487SOL    HW293359   5.019   8.249  11.142
30488SOL     OW93360   0.325   8.091   1.482
30488SOL    HW193361   0.242   8.128   1.510
30488SOL    HW293362   0.390   8.159   1.502
30489SOL     OW93363   4.915   8.335  11.008
30489SOL    HW193364   4.845   8.339  10.943
30489SOL    HW293365   4.995   8.352  10.958
30490SOL     OW93366   9.763  10.613  12.571
30490SOL    HW193367   9.715  10.611  12.488
30490SOL    HW293368   9.705  10.571  12.634
30491SOL     OW93369  10.575   8.724  11.340
30491SOL    HW193370  10.584   8.751  11.432
30491SOL    HW293371  10.486   8.751  11.316
30492SOL     OW93372   9.682   5.643   1.505
30492SOL    HW193373   9.752   5.583   1.480
30492SOL    HW293374   9.697   5.721   1.450
30493SOL     OW93375   9.424   8.971   9.547
30493SOL    HW193376   9.329   8.966   9.563
30493SOL    HW293377   9.453   8.881   9.548
30494SOL     OW93378   7.061   1.113   8.157
30494SOL    HW193379   6.970   1.101   8.185
30494SOL    HW293380   7.113   1.088   8.234
30495SOL     OW93381   5.286   9.181   0.510
30495SOL    HW193382   5.212   9.211   0.458
30495SOL    HW293383   5.348   9.146   0.446
30496SOL     OW93384   1.180   8.255  10.152
30496SOL    HW193385   1.226   8.171  10.150
30496SOL    HW293386   1.216   8.304  10.078
30497SOL     OW93387  12.436  11.102  10.143
30497SOL    HW193388  12.381  11.059  10.078
30497SOL    HW293389  12.374  11.153  10.196
30498SOL     OW93390  11.736  10.350  12.545
30498SOL    HW193391  11.819  10.361  12.498
30498SOL    HW293392  11.741  10.261  12.581
30499SOL     OW93393  11.970   1.210   8.202
30499SOL    HW193394  11.955   1.226   8.109
30499SOL    HW293395  11.935   1.287   8.246
30500SOL     OW93396   3.242  10.139   8.489
30500SOL    HW193397   3.198  10.062   8.453
30500SOL    HW293398   3.183  10.171   8.557
30501SOL     OW93399   4.847   3.633   9.683
30501SOL    HW193400   4.846   3.638   9.587
30501SOL    HW293401   4.759   3.603   9.707
30502SOL     OW93402   7.893  14.849   2.586
30502SOL    HW193403   7.970  14.821   2.635
30502SOL    HW293404   7.901  14.804   2.501
30503SOL     OW93405  13.435   2.294   5.367
30503SOL    HW193406  13.483   2.216   5.396
30503SOL    HW293407  13.487   2.367   5.399
30504SOL     OW93408   6.505  13.613  11.752
30504SOL    HW193409   6.456  13.692  11.729
30504SOL    HW293410   6.563  13.598  11.678
30505SOL     OW93411  11.994  10.610   6.601
30505SOL    HW193412  11.947  10.552   6.660
30505SOL    HW293413  12.057  10.554   6.557
30506SOL     OW93414   0.273   5.222  14.557
30506SOL    HW193415   0.279   5.163  14.632
30506SOL    HW293416   0.293   5.308  14.593
30507SOL     OW93417   8.900  12.177  12.496
30507SOL    HW193418   8.929  12.104  12.441
30507SOL    HW293419   8.806  12.183  12.480
30508SOL     OW93420  13.987   9.876  11.052
30508SOL    HW193421  14.001   9.876  11.147
30508SOL    HW293422  13.990   9.968  11.027
30509SOL     OW93423  14.743  10.181   0.217
30509SOL    HW193424  14.754  10.255   0.276
30509SOL    HW293425  14.734  10.220   0.130
30510SOL     OW93426   2.528   2.878  13.582
30510SOL    HW193427   2.443   2.846  13.611
30510SOL    HW293428   2.576   2.799  13.557
30511SOL     OW93429   4.066   5.971   5.673
30511SOL    HW193430   4.053   5.942   5.763
30511SOL    HW293431   4.096   5.892   5.626
30512SOL     OW93432   0.742   8.208  13.816
30512SOL    HW193433   0.811   8.169  13.869
30512SOL    HW293434   0.779   8.291  13.785
30513SOL     OW93435  14.355   0.676  11.028
30513SOL    HW193436  14.411   0.599  11.025
30513SOL    HW293437  14.368   0.713  11.115
30514SOL     OW93438   6.460   9.924  13.115
30514SOL    HW193439   6.549   9.892  13.129
30514SOL    HW293440   6.458  10.011  13.154
30515SOL     OW93441   2.452   1.426  10.738
30515SOL    HW193442   2.400   1.361  10.785
30515SOL    HW293443   2.496   1.476  10.807
30516SOL     OW93444   0.374   1.360   9.693
30516SOL    HW193445   0.346   1.417   9.622
30516SOL    HW293446   0.299   1.304   9.711
30517SOL     OW93447   0.208   2.725  14.831
30517SOL    HW193448   0.275   2.658  14.848
30517SOL    HW293449   0.203   2.775   0.030
30518SOL     OW93450   4.225   8.307  14.315
30518SOL    HW193451   4.165   8.357  14.370
30518SOL    HW293452   4.171   8.236  14.280
30519SOL     OW93453   3.259   9.422   8.849
30519SOL    HW193454   3.193   9.490   8.840
30519SOL    HW293455   3.211   9.347   8.886
30520SOL     OW93456   8.668   2.373   3.257
30520SOL    HW193457   8.710   2.304   3.308
30520SOL    HW293458   8.632   2.327   3.180
30521SOL     OW93459   7.775   0.698   7.361
30521SOL    HW193460   7.834   0.651   7.303
30521SOL    HW293461   7.701   0.638   7.373
30522SOL     OW93462  10.011   2.192   2.126
30522SOL    HW193463  10.096   2.197   2.083
30522SOL    HW293464  10.008   2.270   2.182
30523SOL     OW93465   8.908  10.610  12.003
30523SOL    HW193466   8.958  10.563  11.937
30523SOL    HW293467   8.916  10.702  11.979
30524SOL     OW93468  14.865   0.000   9.575
30524SOL    HW193469  14.835  14.804   9.620
30524SOL    HW293470  14.880   0.064   9.645
30525SOL     OW93471   6.945   5.698   5.099
30525SOL    HW193472   6.948   5.783   5.143
30525SOL    HW293473   7.031   5.689   5.058
30526SOL     OW93474   5.461   0.483  10.574
30526SOL    HW193475   5.388   0.542  10.593
30526SOL    HW293476   5.463   0.477  10.479
30527SOL     OW93477   0.629   0.835   5.970
30527SOL    HW193478   0.698   0.876   6.022
30527SOL    HW293479   0.585   0.907   5.927
30528SOL     OW93480   6.831   2.197   5.655
30528SOL    HW193481   6.824   2.233   5.566
30528SOL    HW293482   6.809   2.105   5.645
30529SOL     OW93483   9.614   2.377   8.199
30529SOL    HW193484   9.698   2.339   8.172
30529SOL    HW293485   9.618   2.467   8.167
30530SOL     OW93486   4.066   8.556   7.587
30530SOL    HW193487   4.008   8.481   7.595
30530SOL    HW293488   4.128   8.531   7.518
30531SOL     OW93489   9.836   2.781   6.255
30531SOL    HW193490   9.893   2.819   6.322
30531SOL    HW293491   9.803   2.700   6.295
30532SOL     OW93492   7.206  13.431  12.364
30532SOL    HW193493   7.171  13.520  12.356
30532SOL    HW293494   7.156  13.380  12.301
30533SOL     OW93495   0.606   1.471  13.348
30533SOL    HW193496   0.545   1.399  13.364
30533SOL    HW293497   0.673   1.433  13.292
30534SOL     OW93498  11.792   9.236  10.309
30534SOL    HW193499  11.763   9.243  10.219
30534SOL    HW293500  11.859   9.168  10.308
30535SOL     OW93501   7.556  13.114   0.427
30535SOL    HW193502   7.492  13.185   0.418
30535SOL    HW293503   7.631  13.154   0.470
30536SOL     OW93504   1.821   0.970   4.350
30536SOL    HW193505   1.908   0.932   4.356
30536SOL    HW293506   1.772   0.929   4.421
30537SOL     OW93507   9.272  14.064   4.022
30537SOL    HW193508   9.210  14.050   3.950
30537SOL    HW293509   9.334  14.129   3.988
30538SOL     OW93510   0.175  10.324   9.797
30538SOL    HW193511   0.113  10.372   9.853
30538SOL    HW293512   0.135  10.325   9.711
30539SOL     OW93513  10.495   4.739  10.623
30539SOL    HW193514  10.564   4.782  10.572
30539SOL    HW293515  10.414   4.782  10.595
30540SOL     OW93516   1.823   2.121   2.270
30540SOL    HW193517   1.908   2.126   2.226
30540SOL    HW293518   1.818   2.031   2.303
30541SOL     OW93519   9.259   3.918  13.421
30541SOL    HW193520   9.186   3.855  13.417
30541SOL    HW293521   9.259   3.959  13.334
30542SOL     OW93522  11.376  14.700   8.336
30542SOL    HW193523  11.384  14.607   8.313
30542SOL    HW293524  11.290  14.706   8.379
30543SOL     OW93525   7.380  11.945   7.849
30543SOL    HW193526   7.392  11.946   7.944
30543SOL    HW293527   7.464  11.978   7.815
30544SOL     OW93528   3.781  13.332   9.686
30544SOL    HW193529   3.867  13.367   9.707
30544SOL    HW293530   3.751  13.292   9.768
30545SOL     OW93531   2.415   5.836   4.080
30545SOL    HW193532   2.338   5.869   4.128
30545SOL    HW293533   2.382   5.759   4.034
30546SOL     OW93534   8.855   7.354   7.364
30546SOL    HW193535   8.772   7.327   7.405
30546SOL    HW293536   8.848   7.322   7.273
30547SOL     OW93537   9.401  13.496   2.833
30547SOL    HW193538   9.347  13.570   2.862
30547SOL    HW293539   9.340  13.422   2.832
30548SOL     OW93540   1.545  14.336   0.629
30548SOL    HW193541   1.561  14.426   0.601
30548SOL    HW293542   1.631  14.295   0.631
30549SOL     OW93543   8.978  11.407  10.351
30549SOL    HW193544   8.972  11.332  10.410
30549SOL    HW293545   8.887  11.427  10.330
30550SOL     OW93546  13.411   3.426   8.330
30550SOL    HW193547  13.399   3.521   8.321
30550SOL    HW293548  13.352   3.388   8.264
30551SOL     OW93549   9.852   0.316   9.149
30551SOL    HW193550   9.762   0.300   9.121
30551SOL    HW293551   9.862   0.267   9.231
30552SOL     OW93552  12.461   0.436   9.835
30552SOL    HW193553  12.557   0.435   9.827
30552SOL    HW293554  12.437   0.527   9.818
30553SOL     OW93555   6.473  14.691   8.116
30553SOL    HW193556   6.425  14.635   8.055
30553SOL    HW293557   6.473  14.642   8.198
30554SOL     OW93558  11.758   5.341   0.986
30554SOL    HW193559  11.825   5.354   0.918
30554SOL    HW293560  11.696   5.280   0.947
30555SOL     OW93561   5.567   2.269  13.930
30555SOL    HW193562   5.592   2.190  13.977
30555SOL    HW293563   5.551   2.240  13.840
30556SOL     OW93564   9.381   6.216   9.321
30556SOL    HW193565   9.329   6.250   9.394
30556SOL    HW293566   9.402   6.293   9.268
30557SOL     OW93567   5.305   3.728  11.486
30557SOL    HW193568   5.270   3.652  11.532
30557SOL    HW293569   5.356   3.774  11.552
30558SOL     OW93570   2.975  13.023  14.263
30558SOL    HW193571   2.910  12.988  14.324
30558SOL    HW293572   3.004  13.105  14.302
30559SOL     OW93573  12.385  11.556   3.460
30559SOL    HW193574  12.354  11.567   3.370
30559SOL    HW293575  12.443  11.480   3.457
30560SOL     OW93576  13.272   3.831   2.534
30560SOL    HW193577  13.343   3.845   2.597
30560SOL    HW293578  13.266   3.913   2.485
30561SOL     OW93579   2.164  12.212   1.055
30561SOL    HW193580   2.211  12.136   1.020
30561SOL    HW293581   2.220  12.287   1.036
30562SOL     OW93582   0.174   8.494   9.367
30562SOL    HW193583   0.257   8.447   9.360
30562SOL    HW293584   0.115   8.432   9.408
30563SOL     OW93585   6.901  13.362   9.117
30563SOL    HW193586   6.838  13.419   9.161
30563SOL    HW293587   6.851  13.320   9.048
30564SOL     OW93588  10.156   2.643   4.660
30564SOL    HW193589  10.103   2.678   4.588
30564SOL    HW293590  10.104   2.570   4.695
30565SOL     OW93591  10.784  14.690  12.910
30565SOL    HW193592  10.727  14.762  12.885
30565SOL    HW293593  10.732  14.611  12.893
30566SOL     OW93594   1.234  13.193   7.323
30566SOL    HW193595   1.230  13.126   7.254
30566SOL    HW293596   1.327  13.218   7.326
30567SOL     OW93597  10.716   0.415   6.350
30567SOL    HW193598  10.689   0.468   6.274
30567SOL    HW293599  10.653   0.438   6.419
30568SOL     OW93600   0.593   2.492   8.213
30568SOL    HW193601   0.666   2.482   8.274
30568SOL    HW293602   0.515   2.494   8.269
30569SOL     OW93603   2.503   9.799   8.749
30569SOL    HW193604   2.430   9.845   8.709
30569SOL    HW293605   2.543   9.750   8.676
30570SOL     OW93606  11.988   5.116  10.540
30570SOL    HW193607  12.044   5.187  10.572
30570SOL    HW293608  11.940   5.088  10.617
30571SOL     OW93609  11.383   0.214   5.519
30571SOL    HW193610  11.303   0.267   5.510
30571SOL    HW293611  11.436   0.262   5.583
30572SOL     OW93612   4.530   7.568  10.016
30572SOL    HW193613   4.604   7.613   9.975
30572SOL    HW293614   4.481   7.638  10.060
30573SOL     OW93615   4.496   2.949   7.543
30573SOL    HW193616   4.452   2.875   7.585
30573SOL    HW293617   4.454   3.026   7.579
30574SOL     OW93618  11.073  13.957   9.807
30574SOL    HW193619  11.081  14.045   9.843
30574SOL    HW293620  11.142  13.907   9.850
30575SOL     OW93621  13.049   2.346  10.133
30575SOL    HW193622  12.955   2.343  10.112
30575SOL    HW293623  13.054   2.398  10.213
30576SOL     OW93624   0.467   2.815  11.490
30576SOL    HW193625   0.511   2.768  11.561
30576SOL    HW293626   0.403   2.870  11.534
30577SOL     OW93627   0.056   8.801   7.636
30577SOL    HW193628   0.012   8.792   7.552
30577SOL    HW293629   0.014   8.876   7.678
30578SOL     OW93630  13.465   1.631   7.130
30578SOL    HW193631  13.535   1.685   7.166
30578SOL    HW293632  13.463   1.554   7.186
30579SOL     OW93633   3.418   7.742  12.947
30579SOL    HW193634   3.428   7.831  12.981
30579SOL    HW293635   3.334   7.743  12.901
30580SOL     OW93636   0.558   1.034   0.036
30580SOL    HW193637   0.504   1.009   0.110
30580SOL    HW293638   0.546   1.129   0.029
30581SOL     OW93639   1.396   9.964   8.581
30581SOL    HW193640   1.471   9.907   8.598
30581SOL    HW293641   1.360   9.982   8.668
30582SOL     OW93642  11.703  10.071  13.993
30582SOL    HW193643  11.725   9.983  13.963
30582SOL    HW293644  11.701  10.064  14.089
30583SOL     OW93645   4.376  14.096   6.317
30583SOL    HW193646   4.313  14.058   6.378
30583SOL    HW293647   4.325  14.158   6.265
30584SOL     OW93648   4.661  14.874  11.310
30584SOL    HW193649   4.647  14.857  11.403
30584SOL    HW293650   4.604  14.812  11.265
30585SOL     OW93651  12.355   1.214  11.974
30585SOL    HW193652  12.374   1.232  11.882
30585SOL    HW293653  12.260   1.208  11.978
30586SOL     OW93654   0.511   6.229   4.301
30586SOL    HW193655   0.498   6.254   4.393
30586SOL    HW293656   0.480   6.138   4.296
30587SOL     OW93657  13.561   0.920   3.815
30587SOL    HW193658  13.509   0.994   3.785
30587SOL    HW293659  13.621   0.901   3.742
30588SOL     OW93660  14.282  12.905   9.791
30588SOL    HW193661  14.367  12.885   9.829
30588SOL    HW293662  14.301  12.967   9.720
30589SOL     OW93663   2.886   3.036   4.808
30589SOL    HW193664   2.962   3.044   4.750
30589SOL    HW293665   2.811   3.031   4.749
30590SOL     OW93666  10.682  13.101  14.288
30590SOL    HW193667  10.685  13.067  14.198
30590SOL    HW293668  10.758  13.063  14.331
30591SOL     OW93669  14.328   9.418   3.068
30591SOL    HW193670  14.291   9.399   2.981
30591SOL    HW293671  14.327   9.513   3.075
30592SOL     OW93672   3.734   2.048  10.080
30592SOL    HW193673   3.656   2.062  10.133
30592SOL    HW293674   3.706   2.070   9.991
30593SOL     OW93675  10.545   6.641  14.223
30593SOL    HW193676  10.503   6.627  14.308
30593SOL    HW293677  10.631   6.599  14.232
30594SOL     OW93678  13.225  14.244   9.672
30594SOL    HW193679  13.129  14.245   9.666
30594SOL    HW293680  13.247  14.325   9.718
30595SOL     OW93681  10.380  10.938   4.094
30595SOL    HW193682  10.427  10.918   4.013
30595SOL    HW293683  10.356  10.853   4.130
30596SOL     OW93684   6.509  12.322   2.727
30596SOL    HW193685   6.533  12.237   2.764
30596SOL    HW293686   6.538  12.318   2.636
30597SOL     OW93687   0.749   5.991  10.052
30597SOL    HW193688   0.802   5.953  10.122
30597SOL    HW293689   0.681   5.925  10.036
30598SOL     OW93690  11.663   3.808   0.938
30598SOL    HW193691  11.662   3.747   1.012
30598SOL    HW293692  11.739   3.783   0.887
30599SOL     OW93693   8.007   4.577   9.854
30599SOL    HW193694   7.927   4.546   9.898
30599SOL    HW293695   8.073   4.511   9.877
30600SOL     OW93696  11.493   8.079   1.406
30600SOL    HW193697  11.468   7.995   1.369
30600SOL    HW293698  11.467   8.074   1.498
30601SOL     OW93699  14.120  14.630  10.998
30601SOL    HW193700  14.094  14.618  11.089
30601SOL    HW293701  14.188  14.565  10.983
30602SOL     OW93702   9.165   9.118   9.020
30602SOL    HW193703   9.227   9.048   9.038
30602SOL    HW293704   9.119   9.089   8.941
30603SOL     OW93705  11.711   2.603   2.034
30603SOL    HW193706  11.701   2.520   2.081
30603SOL    HW293707  11.635   2.654   2.060
30604SOL     OW93708   6.477   6.570   2.560
30604SOL    HW193709   6.541   6.607   2.621
30604SOL    HW293710   6.395   6.566   2.609
30605SOL     OW93711   9.557   4.253  10.063
30605SOL    HW193712   9.636   4.306  10.048
30605SOL    HW293713   9.587   4.163  10.060
30606SOL     OW93714   9.875   0.467   1.147
30606SOL    HW193715   9.806   0.518   1.190
30606SOL    HW293716   9.888   0.511   1.063
30607SOL     OW93717  11.960   7.501   0.773
30607SOL    HW193718  11.984   7.591   0.794
30607SOL    HW293719  12.005   7.448   0.840
30608SOL     OW93720  13.718   3.749   7.961
30608SOL    HW193721  13.734   3.839   7.932
30608SOL    HW293722  13.706   3.756   8.056
30609SOL     OW93723   5.040   4.304  11.106
30609SOL    HW193724   5.014   4.231  11.162
30609SOL    HW293725   5.014   4.276  11.018
30610SOL     OW93726  12.716   7.072   6.878
30610SOL    HW193727  12.676   7.101   6.797
30610SOL    HW293728  12.763   6.991   6.855
30611SOL     OW93729  13.744   9.202   6.782
30611SOL    HW193730  13.651   9.219   6.796
30611SOL    HW293731  13.746   9.136   6.713
30612SOL     OW93732   5.645   7.226  12.103
30612SOL    HW193733   5.633   7.278  12.023
30612SOL    HW293734   5.559   7.229  12.146
30613SOL     OW93735   4.252   5.507  12.811
30613SOL    HW193736   4.172   5.539  12.853
30613SOL    HW293737   4.313   5.580  12.819
30614SOL     OW93738  10.492   6.770   4.616
30614SOL    HW193739  10.515   6.843   4.559
30614SOL    HW293740  10.451   6.706   4.558
30615SOL     OW93741   3.870  14.300   1.772
30615SOL    HW193742   3.896  14.226   1.717
30615SOL    HW293743   3.875  14.376   1.714
30616SOL     OW93744   0.412  13.070   3.351
30616SOL    HW193745   0.368  13.150   3.383
30616SOL    HW293746   0.437  13.091   3.261
30617SOL     OW93747  11.496  12.077   6.143
30617SOL    HW193748  11.528  12.065   6.232
30617SOL    HW293749  11.544  12.013   6.091
30618SOL     OW93750   9.452   6.789   3.718
30618SOL    HW193751   9.391   6.862   3.728
30618SOL    HW293752   9.422   6.744   3.638
30619SOL     OW93753   0.078   5.317   2.021
30619SOL    HW193754   0.115   5.256   1.957
30619SOL    HW293755   0.046   5.391   1.969
30620SOL     OW93756   2.008  11.825  13.607
30620SOL    HW193757   2.010  11.766  13.532
30620SOL    HW293758   1.922  11.866  13.604
30621SOL     OW93759   8.274   3.979  10.173
30621SOL    HW193760   8.252   4.057  10.224
30621SOL    HW293761   8.248   4.000  10.084
30622SOL     OW93762   8.903  14.379  14.139
30622SOL    HW193763   8.908  14.302  14.082
30622SOL    HW293764   8.809  14.392  14.152
30623SOL     OW93765  10.898  12.569   3.860
30623SOL    HW193766  10.920  12.476   3.853
30623SOL    HW293767  10.814  12.570   3.907
30624SOL     OW93768   0.429   1.161   1.793
30624SOL    HW193769   0.363   1.183   1.727
30624SOL    HW293770   0.456   1.246   1.829
30625SOL     OW93771   0.925   6.570  12.984
30625SOL    HW193772   0.946   6.503  13.048
30625SOL    HW293773   0.893   6.521  12.908
30626SOL     OW93774  14.799   6.095   5.189
30626SOL    HW193775  14.837   6.016   5.151
30626SOL    HW293776  14.714   6.105   5.145
30627SOL     OW93777  13.886   9.620   2.954
30627SOL    HW193778  13.948   9.687   2.925
30627SOL    HW293779  13.813   9.626   2.893
30628SOL     OW93780   8.437   3.426   2.941
30628SOL    HW193781   8.446   3.429   3.036
30628SOL    HW293782   8.492   3.352   2.914
30629SOL     OW93783  11.276   8.024   7.509
30629SOL    HW193784  11.314   8.042   7.595
30629SOL    HW293785  11.184   8.047   7.518
30630SOL     OW93786  10.630   6.317  10.916
30630SOL    HW193787  10.683   6.350  10.989
30630SOL    HW293788  10.663   6.365  10.839
30631SOL     OW93789   4.579   3.081  10.571
30631SOL    HW193790   4.617   3.114  10.652
30631SOL    HW293791   4.607   3.144  10.504
30632SOL     OW93792  12.617   8.738   2.731
30632SOL    HW193793  12.531   8.779   2.729
30632SOL    HW293794  12.615   8.683   2.809
30633SOL     OW93795  14.671  14.617  10.311
30633SOL    HW193796  14.689  14.570  10.229
30633SOL    HW293797  14.704  14.705  10.296
30634SOL     OW93798   9.141   4.119   0.895
30634SOL    HW193799   9.143   4.062   0.818
30634SOL    HW293800   9.210   4.084   0.952
30635SOL     OW93801   8.190   0.994  13.706
30635SOL    HW193802   8.246   1.007  13.629
30635SOL    HW293803   8.145   1.078  13.717
30636SOL     OW93804  14.110  12.978   3.921
30636SOL    HW193805  14.020  13.003   3.939
30636SOL    HW293806  14.160  13.015   3.994
30637SOL     OW93807   4.745   0.341  11.409
30637SOL    HW193808   4.822   0.306  11.453
30637SOL    HW293809   4.694   0.383  11.479
30638SOL     OW93810   3.720   6.572   5.357
30638SOL    HW193811   3.678   6.531   5.433
30638SOL    HW293812   3.812   6.582   5.383
30639SOL     OW93813   2.440   9.951   6.946
30639SOL    HW193814   2.382   9.995   7.009
30639SOL    HW293815   2.396   9.868   6.927
30640SOL     OW93816  11.516  11.106  11.586
30640SOL    HW193817  11.580  11.136  11.521
30640SOL    HW293818  11.534  11.013  11.597
30641SOL     OW93819  11.832   5.201   1.386
30641SOL    HW193820  11.893   5.274   1.388
30641SOL    HW293821  11.865   5.143   1.318
30642SOL     OW93822  11.840  11.168  13.118
30642SOL    HW193823  11.891  11.156  13.198
30642SOL    HW293824  11.750  11.182  13.149
30643SOL     OW93825  10.237   8.648   9.614
30643SOL    HW193826  10.156   8.663   9.663
30643SOL    HW293827  10.258   8.734   9.577
30644SOL     OW93828   6.889   6.864   1.305
30644SOL    HW193829   6.827   6.813   1.253
30644SOL    HW293830   6.974   6.825   1.286
30645SOL     OW93831   2.435  11.508  14.363
30645SOL    HW193832   2.347  11.535  14.390
30645SOL    HW293833   2.477  11.588  14.334
30646SOL     OW93834   8.771  13.940  14.709
30646SOL    HW193835   8.706  13.883  14.669
30646SOL    HW293836   8.763  13.925  14.803
30647SOL     OW93837   6.311  14.472  14.661
30647SOL    HW193838   6.249  14.544  14.668
30647SOL    HW293839   6.369  14.497  14.589
30648SOL     OW93840   4.550  14.853   5.484
30648SOL    HW193841   4.564  14.795   5.559
30648SOL    HW293842   4.595   0.052   5.508
30649SOL     OW93843   5.712   8.875  12.479
30649SOL    HW193844   5.649   8.887  12.407
30649SOL    HW293845   5.658   8.864  12.557
30650SOL     OW93846   1.766   4.297  13.068
30650SOL    HW193847   1.771   4.392  13.081
30650SOL    HW293848   1.769   4.261  13.157
30651SOL     OW93849   8.256   2.337   1.369
30651SOL    HW193850   8.275   2.361   1.460
30651SOL    HW293851   8.342   2.335   1.326
30652SOL     OW93852  12.513  12.241   7.752
30652SOL    HW193853  12.549  12.252   7.840
30652SOL    HW293854  12.543  12.154   7.725
30653SOL     OW93855   2.350  12.221  13.983
30653SOL    HW193856   2.338  12.229  13.888
30653SOL    HW293857   2.378  12.308  14.011
30654SOL     OW93858   6.757  14.623   3.591
30654SOL    HW193859   6.823  14.655   3.529
30654SOL    HW293860   6.796  14.547   3.632
30655SOL     OW93861  14.284  14.422   4.534
30655SOL    HW193862  14.304  14.405   4.626
30655SOL    HW293863  14.261  14.515   4.532
30656SOL     OW93864   0.098   8.458   4.100
30656SOL    HW193865   0.032   8.456   4.030
30656SOL    HW293866   0.048   8.448   4.181
30657SOL     OW93867   6.660   9.823  14.093
30657SOL    HW193868   6.583   9.818  14.036
30657SOL    HW293869   6.659   9.740  14.141
30658SOL     OW93870   8.106   3.880   3.081
30658SOL    HW193871   8.158   3.817   3.130
30658SOL    HW293872   8.036   3.828   3.042
30659SOL     OW93873  11.432   6.020   9.441
30659SOL    HW193874  11.485   6.099   9.442
30659SOL    HW293875  11.351   6.044   9.486
30660SOL     OW93876   7.665   7.164   5.656
30660SOL    HW193877   7.640   7.076   5.629
30660SOL    HW293878   7.628   7.221   5.588
30661SOL     OW93879   7.890  14.706  11.708
30661SOL    HW193880   7.823  14.663  11.760
30661SOL    HW293881   7.841  14.762  11.647
30662SOL     OW93882   1.911   3.312  13.470
30662SOL    HW193883   1.989   3.287  13.420
30662SOL    HW293884   1.912   3.408  13.468
30663SOL     OW93885  11.078  13.163  10.026
30663SOL    HW193886  11.058  13.244   9.979
30663SOL    HW293887  11.109  13.103   9.958
30664SOL     OW93888   2.882  11.064  13.624
30664SOL    HW193889   2.887  11.149  13.668
30664SOL    HW293890   2.793  11.033  13.643
30665SOL     OW93891   1.342  11.899   6.872
30665SOL    HW193892   1.297  11.974   6.913
30665SOL    HW293893   1.319  11.825   6.928
30666SOL     OW93894   8.496   8.636  13.636
30666SOL    HW193895   8.478   8.681  13.718
30666SOL    HW293896   8.582   8.668  13.609
30667SOL     OW93897  12.498   5.206   8.333
30667SOL    HW193898  12.552   5.153   8.274
30667SOL    HW293899  12.560   5.244   8.395
30668SOL     OW93900  11.020  13.778  13.892
30668SOL    HW193901  10.928  13.766  13.915
30668SOL    HW293902  11.038  13.706  13.831
30669SOL     OW93903  12.724   9.041  12.558
30669SOL    HW193904  12.744   9.127  12.520
30669SOL    HW293905  12.749   8.978  12.491
30670SOL     OW93906   7.428   1.722  12.262
30670SOL    HW193907   7.392   1.807  12.238
30670SOL    HW293908   7.469   1.690  12.182
30671SOL     OW93909  11.189   3.850   4.467
30671SOL    HW193910  11.145   3.935   4.477
30671SOL    HW293911  11.266   3.855   4.523
30672SOL     OW93912  13.420   6.748  14.482
30672SOL    HW193913  13.488   6.813  14.496
30672SOL    HW293914  13.342   6.799  14.460
30673SOL     OW93915   2.258   5.394   5.365
30673SOL    HW193916   2.345   5.376   5.331
30673SOL    HW293917   2.273   5.448   5.442
30674SOL     OW93918   9.010   9.749   1.122
30674SOL    HW193919   8.931   9.803   1.112
30674SOL    HW293920   9.043   9.738   1.033
30675SOL     OW93921   5.950   0.440   8.871
30675SOL    HW193922   5.976   0.350   8.891
30675SOL    HW293923   6.033   0.487   8.859
30676SOL     OW93924   4.695   6.633  14.594
30676SOL    HW193925   4.645   6.558  14.626
30676SOL    HW293926   4.728   6.675  14.674
30677SOL     OW93927  11.615   4.231   0.411
30677SOL    HW193928  11.662   4.313   0.393
30677SOL    HW293929  11.596   4.195   0.325
30678SOL     OW93930  13.040   6.907  12.761
30678SOL    HW193931  13.058   6.990  12.804
30678SOL    HW293932  13.085   6.913  12.677
30679SOL     OW93933   4.454  13.212   5.521
30679SOL    HW193934   4.472  13.118   5.528
30679SOL    HW293935   4.366  13.222   5.557
30680SOL     OW93936   0.875   0.524   6.497
30680SOL    HW193937   0.962   0.554   6.522
30680SOL    HW293938   0.885   0.430   6.481
30681SOL     OW93939  11.002  11.922   5.923
30681SOL    HW193940  10.916  11.931   5.881
30681SOL    HW293941  10.999  11.983   5.997
30682SOL     OW93942   8.753   0.902  11.346
30682SOL    HW193943   8.706   0.819  11.339
30682SOL    HW293944   8.845   0.877  11.354
30683SOL     OW93945   5.381   3.220   2.382
30683SOL    HW193946   5.356   3.232   2.474
30683SOL    HW293947   5.410   3.306   2.353
30684SOL     OW93948   1.613  14.781  14.174
30684SOL    HW193949   1.703  14.812  14.182
30684SOL    HW293950   1.602  14.720  14.246
30685SOL     OW93951  10.339  11.460   0.927
30685SOL    HW193952  10.278  11.440   0.857
30685SOL    HW293953  10.379  11.376   0.949
30686SOL     OW93954   4.564   1.739   4.957
30686SOL    HW193955   4.588   1.825   4.992
30686SOL    HW293956   4.527   1.758   4.870
30687SOL     OW93957   7.241  14.150   2.642
30687SOL    HW193958   7.228  14.080   2.578
30687SOL    HW293959   7.168  14.141   2.704
30688SOL     OW93960   6.116  12.360   2.179
30688SOL    HW193961   6.021  12.363   2.191
30688SOL    HW293962   6.137  12.445   2.140
30689SOL     OW93963   2.014  13.668  10.628
30689SOL    HW193964   1.966  13.619  10.560
30689SOL    HW293965   2.106  13.660  10.603
30690SOL     OW93966   6.750   9.796   4.600
30690SOL    HW193967   6.727   9.877   4.553
30690SOL    HW293968   6.776   9.826   4.687
30691SOL     OW93969  13.811  11.972   3.050
30691SOL    HW193970  13.794  12.044   2.989
30691SOL    HW293971  13.898  11.990   3.085
30692SOL     OW93972   5.853   9.043   0.728
30692SOL    HW193973   5.770   9.012   0.693
30692SOL    HW293974   5.839   9.136   0.745
30693SOL     OW93975   0.041  12.117  13.735
30693SOL    HW193976   0.125  12.135  13.777
30693SOL    HW293977   0.044  12.022  13.718
30694SOL     OW93978  14.455   6.883   5.686
30694SOL    HW193979  14.375   6.848   5.647
30694SOL    HW293980  14.425   6.951   5.746
30695SOL     OW93981  12.644  13.408   5.550
30695SOL    HW193982  12.559  13.365   5.560
30695SOL    HW293983  12.705  13.337   5.534
30696SOL     OW93984   9.122  13.094   7.304
30696SOL    HW193985   9.144  13.068   7.215
30696SOL    HW293986   9.107  13.188   7.299
30697SOL     OW93987   6.980  12.578  14.709
30697SOL    HW193988   7.041  12.569  14.636
30697SOL    HW293989   7.027  12.634  14.771
30698SOL     OW93990   9.097   7.429   3.772
30698SOL    HW193991   9.066   7.496   3.711
30698SOL    HW293992   9.192   7.427   3.759
30699SOL     OW93993   6.974  13.154  12.264
30699SOL    HW193994   6.897  13.136  12.317
30699SOL    HW293995   6.940  13.191  12.182
30700SOL     OW93996   1.393  11.693   1.089
30700SOL    HW193997   1.454  11.709   1.017
30700SOL    HW293998   1.325  11.637   1.050
30701SOL     OW93999   2.723  11.275   8.451
30701SOL    HW194000   2.730  11.241   8.540
30701SOL    HW294001   2.663  11.215   8.406
30702SOL     OW94002  12.937  12.182   7.598
30702SOL    HW194003  12.985  12.138   7.668
30702SOL    HW294004  13.003  12.236   7.554
30703SOL     OW94005   2.647   1.073   0.226
30703SOL    HW194006   2.656   0.979   0.241
30703SOL    HW294007   2.565   1.082   0.177
30704SOL     OW94008   1.505   8.840   5.019
30704SOL    HW194009   1.491   8.855   4.925
30704SOL    HW294010   1.462   8.757   5.037
30705SOL     OW94011   0.808   3.881  13.859
30705SOL    HW194012   0.789   3.836  13.941
30705SOL    HW294013   0.795   3.814  13.791
30706SOL     OW94014   4.825   3.570   2.573
30706SOL    HW194015   4.901   3.597   2.624
30706SOL    HW294016   4.838   3.476   2.560
30707SOL     OW94017  13.082   9.603   9.871
30707SOL    HW194018  13.038   9.687   9.860
30707SOL    HW294019  13.135   9.614   9.950
30708SOL     OW94020   7.671   8.881   2.138
30708SOL    HW194021   7.670   8.971   2.168
30708SOL    HW294022   7.587   8.869   2.094
30709SOL     OW94023  12.380   8.642   1.076
30709SOL    HW194024  12.288   8.632   1.098
30709SOL    HW294025  12.411   8.553   1.059
30710SOL     OW94026   8.161  13.631  14.693
30710SOL    HW194027   8.066  13.623  14.702
30710SOL    HW294028   8.174  13.663  14.604
30711SOL     OW94029   0.989   9.613   1.244
30711SOL    HW194030   1.033   9.529   1.258
30711SOL    HW294031   1.012   9.665   1.321
30712SOL     OW94032  14.817  10.240  14.389
30712SOL    HW194033  14.793  10.221  14.298
30712SOL    HW294034  14.834  10.334  14.390
30713SOL     OW94035   1.016  13.948   0.157
30713SOL    HW194036   1.090  13.950   0.096
30713SOL    HW294037   1.002  13.855   0.176
30714SOL     OW94038  12.096  11.875   0.052
30714SOL    HW194039  12.152  11.938   0.097
30714SOL    HW294040  12.148  11.795   0.049
30715SOL     OW94041  12.897   4.169  14.110
30715SOL    HW194042  12.857   4.104  14.052
30715SOL    HW294043  12.981   4.130  14.135
30716SOL     OW94044   8.649   8.473   9.070
30716SOL    HW194045   8.703   8.422   9.131
30716SOL    HW294046   8.563   8.430   9.072
30717SOL     OW94047   1.270   3.207  12.106
30717SOL    HW194048   1.198   3.233  12.163
30717SOL    HW294049   1.342   3.264  12.131
30718SOL     OW94050   6.880   8.671   7.105
30718SOL    HW194051   6.862   8.725   7.182
30718SOL    HW294052   6.872   8.581   7.138
30719SOL     OW94053   1.734   2.039  13.836
30719SOL    HW194054   1.759   2.071  13.749
30719SOL    HW294055   1.778   2.099  13.896
30720SOL     OW94056   8.630   9.580   5.052
30720SOL    HW194057   8.652   9.552   5.141
30720SOL    HW294058   8.677   9.519   4.996
30721SOL     OW94059   7.515  12.375  13.176
30721SOL    HW194060   7.533  12.358  13.084
30721SOL    HW294061   7.521  12.470  13.185
30722SOL     OW94062   8.347   0.526  14.691
30722SOL    HW194063   8.330   0.619  14.680
30722SOL    HW294064   8.431   0.512  14.647
30723SOL     OW94065  11.578   0.093   6.552
30723SOL    HW194066  11.516   0.030   6.517
30723SOL    HW294067  11.539   0.122   6.635
30724SOL     OW94068   3.671   8.728   2.292
30724SOL    HW194069   3.735   8.656   2.293
30724SOL    HW294070   3.703   8.788   2.225
30725SOL     OW94071   7.427   4.554   1.798
30725SOL    HW194072   7.513   4.582   1.830
30725SOL    HW294073   7.389   4.507   1.871
30726SOL     OW94074  11.646  13.540   0.834
30726SOL    HW194075  11.579  13.476   0.857
30726SOL    HW294076  11.612  13.584   0.756
30727SOL     OW94077   4.633   4.568  14.110
30727SOL    HW194078   4.634   4.576  14.015
30727SOL    HW294079   4.725   4.572  14.136
30728SOL     OW94080   9.397   8.861   5.899
30728SOL    HW194081   9.395   8.819   5.813
30728SOL    HW294082   9.413   8.954   5.881
30729SOL     OW94083   3.922  11.075  11.391
30729SOL    HW194084   3.850  11.013  11.390
30729SOL    HW294085   3.993  11.029  11.436
30730SOL     OW94086  13.164   7.559  11.365
30730SOL    HW194087  13.108   7.484  11.383
30730SOL    HW294088  13.216   7.533  11.289
30731SOL     OW94089  11.361  11.790   8.347
30731SOL    HW194090  11.271  11.823   8.351
30731SOL    HW294091  11.382  11.764   8.436
30732SOL     OW94092  12.938   9.523   2.359
30732SOL    HW194093  12.859   9.484   2.323
30732SOL    HW294094  12.910   9.569   2.438
30733SOL     OW94095  13.343   4.133   5.381
30733SOL    HW194096  13.369   4.225   5.380
30733SOL    HW294097  13.283   4.127   5.456
30734SOL     OW94098   3.495   5.156   4.633
30734SOL    HW194099   3.486   5.079   4.689
30734SOL    HW294100   3.439   5.137   4.558
30735SOL     OW94101  10.146   0.796   3.103
30735SOL    HW194102  10.121   0.815   3.194
30735SOL    HW294103  10.236   0.766   3.109
30736SOL     OW94104  13.364   9.380  14.279
30736SOL    HW194105  13.284   9.433  14.288
30736SOL    HW294106  13.424   9.436  14.229
30737SOL     OW94107  10.951   0.256   9.585
30737SOL    HW194108  10.872   0.236   9.637
30737SOL    HW294109  10.989   0.170   9.567
30738SOL     OW94110   3.836  11.481   9.020
30738SOL    HW194111   3.839  11.394   9.060
30738SOL    HW294112   3.779  11.532   9.077
30739SOL     OW94113  11.272  10.521  12.574
30739SOL    HW194114  11.278  10.535  12.480
30739SOL    HW294115  11.359  10.494  12.601
30740SOL     OW94116   7.693   3.597   4.929
30740SOL    HW194117   7.664   3.506   4.917
30740SOL    HW294118   7.612   3.648   4.927
30741SOL     OW94119   6.961   8.511  11.724
30741SOL    HW194120   7.004   8.593  11.749
30741SOL    HW294121   6.966   8.509  11.628
30742SOL     OW94122  10.929   8.729   8.629
30742SOL    HW194123  10.941   8.643   8.588
30742SOL    HW294124  10.850   8.720   8.681
30743SOL     OW94125   4.376   1.183   0.386
30743SOL    HW194126   4.313   1.141   0.328
30743SOL    HW294127   4.461   1.146   0.360
30744SOL     OW94128   1.420   5.175   5.693
30744SOL    HW194129   1.441   5.096   5.643
30744SOL    HW294130   1.441   5.247   5.634
30745SOL     OW94131   1.098   0.522  14.717
30745SOL    HW194132   1.106   0.436  14.758
30745SOL    HW294133   1.028   0.565  14.767
30746SOL     OW94134  12.297   5.279   5.478
30746SOL    HW194135  12.358   5.205   5.475
30746SOL    HW294136  12.222   5.245   5.527
30747SOL     OW94137   8.862   3.458  14.880
30747SOL    HW194138   8.939   3.508   0.027
30747SOL    HW294139   8.808   3.523  14.833
30748SOL     OW94140   0.778  14.229   3.550
30748SOL    HW194141   0.694  14.264   3.520
30748SOL    HW294142   0.755  14.164   3.617
30749SOL     OW94143   5.409   8.195   9.945
30749SOL    HW194144   5.424   8.132   9.875
30749SOL    HW294145   5.349   8.259   9.906
30750SOL     OW94146   8.152   2.005  14.423
30750SOL    HW194147   8.146   2.090  14.380
30750SOL    HW294148   8.246   1.994  14.441
30751SOL     OW94149   6.489   1.534  14.225
30751SOL    HW194150   6.537   1.594  14.282
30751SOL    HW294151   6.492   1.450  14.270
30752SOL     OW94152   8.474   8.235   2.069
30752SOL    HW194153   8.482   8.140   2.055
30752SOL    HW294154   8.504   8.274   1.987
30753SOL     OW94155   5.676  12.581   0.328
30753SOL    HW194156   5.758  12.630   0.334
30753SOL    HW294157   5.676  12.524   0.405
30754SOL     OW94158  12.930   5.417   3.303
30754SOL    HW194159  12.899   5.505   3.321
30754SOL    HW294160  13.022   5.428   3.278
30755SOL     OW94161   9.373  13.605   3.405
30755SOL    HW194162   9.290  13.628   3.447
30755SOL    HW294163   9.393  13.517   3.439
30756SOL     OW94164  11.031   5.847   0.998
30756SOL    HW194165  10.945   5.826   0.963
30756SOL    HW294166  11.017   5.856   1.092
30757SOL     OW94167   3.419   1.361   6.969
30757SOL    HW194168   3.435   1.423   7.040
30757SOL    HW294169   3.387   1.415   6.897
30758SOL     OW94170  14.098   7.479   6.780
30758SOL    HW194171  14.184   7.504   6.748
30758SOL    HW294172  14.067   7.557   6.827
30759SOL     OW94173   9.940   4.622  13.596
30759SOL    HW194174   9.917   4.567  13.671
30759SOL    HW294175   9.857   4.636  13.551
30760SOL     OW94176   4.826   8.817  12.688
30760SOL    HW194177   4.865   8.878  12.626
30760SOL    HW294178   4.781   8.872  12.752
30761SOL     OW94179   8.090   1.962   1.537
30761SOL    HW194180   8.047   1.921   1.612
30761SOL    HW294181   8.017   1.994   1.483
30762SOL     OW94182   9.296  11.390  10.559
30762SOL    HW194183   9.381  11.378  10.516
30762SOL    HW294184   9.241  11.322  10.521
30763SOL     OW94185   4.169   2.775  10.724
30763SOL    HW194186   4.213   2.846  10.772
30763SOL    HW294187   4.153   2.708  10.791
30764SOL     OW94188   9.262   7.142  13.782
30764SOL    HW194189   9.262   7.076  13.712
30764SOL    HW294190   9.354   7.161  13.797
30765SOL     OW94191   1.757   1.363   2.610
30765SOL    HW194192   1.705   1.292   2.572
30765SOL    HW294193   1.836   1.320   2.642
30766SOL     OW94194   1.969  14.138   6.556
30766SOL    HW194195   2.005  14.224   6.577
30766SOL    HW294196   2.006  14.079   6.622
30767SOL     OW94197   2.823   6.852   1.315
30767SOL    HW194198   2.735   6.814   1.318
30767SOL    HW294199   2.833   6.895   1.400
30768SOL     OW94200  14.745   7.257   3.288
30768SOL    HW194201  14.738   7.238   3.195
30768SOL    HW294202  14.664   7.304   3.310
30769SOL     OW94203  14.256   1.360  12.996
30769SOL    HW194204  14.311   1.436  13.013
30769SOL    HW294205  14.274   1.337  12.905
30770SOL     OW94206   7.753   4.430   7.278
30770SOL    HW194207   7.721   4.389   7.358
30770SOL    HW294208   7.739   4.365   7.209
30771SOL     OW94209  12.270  11.126   0.189
30771SOL    HW194210  12.196  11.105   0.132
30771SOL    HW294211  12.250  11.081   0.271
30772SOL     OW94212   2.950  14.222   7.926
30772SOL    HW194213   3.021  14.159   7.941
30772SOL    HW294214   2.893  14.179   7.863
30773SOL     OW94215   7.498  11.313   4.543
30773SOL    HW194216   7.452  11.389   4.579
30773SOL    HW294217   7.531  11.344   4.458
30774SOL     OW94218   5.712  13.163   4.909
30774SOL    HW194219   5.634  13.183   4.960
30774SOL    HW294220   5.724  13.068   4.918
30775SOL     OW94221   4.749   8.132  12.054
30775SOL    HW194222   4.750   8.186  11.974
30775SOL    HW294223   4.830   8.154  12.099
30776SOL     OW94224  12.336   0.684   8.752
30776SOL    HW194225  12.373   0.772   8.744
30776SOL    HW294226  12.247   0.692   8.717
30777SOL     OW94227   0.909  10.376   6.273
30777SOL    HW194228   0.909  10.403   6.181
30777SOL    HW294229   0.915  10.458   6.322
30778SOL     OW94230   5.076  12.999   0.396
30778SOL    HW194231   5.126  12.977   0.475
30778SOL    HW294232   4.997  13.042   0.429
30779SOL     OW94233   4.278   4.791   2.100
30779SOL    HW194234   4.248   4.711   2.143
30779SOL    HW294235   4.373   4.783   2.097
30780SOL     OW94236   5.053   8.031  10.578
30780SOL    HW194237   5.130   7.987  10.541
30780SOL    HW294238   4.979   7.979  10.550
30781SOL     OW94239   3.964   6.781  13.346
30781SOL    HW194240   4.008   6.862  13.322
30781SOL    HW294241   3.877   6.808  13.375
30782SOL     OW94242   4.727   7.862   2.228
30782SOL    HW194243   4.759   7.880   2.316
30782SOL    HW294244   4.650   7.806   2.242
30783SOL     OW94245   4.384   5.509  12.277
30783SOL    HW194246   4.473   5.513  12.313
30783SOL    HW294247   4.385   5.570  12.203
30784SOL     OW94248   8.900   2.433   1.007
30784SOL    HW194249   8.937   2.521   0.995
30784SOL    HW294250   8.867   2.409   0.921
30785SOL     OW94251   3.236  12.701   0.435
30785SOL    HW194252   3.206  12.687   0.345
30785SOL    HW294253   3.317  12.752   0.425
30786SOL     OW94254   0.845   7.650  10.914
30786SOL    HW194255   0.775   7.603  10.869
30786SOL    HW294256   0.871   7.592  10.985
30787SOL     OW94257   4.050   2.976  13.465
30787SOL    HW194258   3.968   3.010  13.500
30787SOL    HW294259   4.117   3.036  13.498
30788SOL     OW94260  10.618  10.054   0.852
30788SOL    HW194261  10.640  10.142   0.884
30788SOL    HW294262  10.640   9.996   0.925
30789SOL     OW94263  10.960   7.164  12.197
30789SOL    HW194264  10.893   7.174  12.130
30789SOL    HW294265  11.031   7.119  12.153
30790SOL     OW94266   1.214  13.769  12.092
30790SOL    HW194267   1.149  13.731  12.151
30790SOL    HW294268   1.256  13.838  12.144
30791SOL     OW94269  11.389   5.625   1.557
30791SOL    HW194270  11.431   5.549   1.517
30791SOL    HW294271  11.312   5.641   1.504
30792SOL     OW94272   6.919   3.273   5.848
30792SOL    HW194273   6.955   3.286   5.761
30792SOL    HW294274   6.872   3.354   5.867
30793SOL     OW94275   2.961   6.331   2.843
30793SOL    HW194276   2.948   6.343   2.749
30793SOL    HW294277   2.987   6.240   2.852
30794SOL     OW94278   2.886  11.581   5.433
30794SOL    HW194279   2.935  11.629   5.366
30794SOL    HW294280   2.794  11.604   5.415
30795SOL     OW94281   4.014   7.543   3.170
30795SOL    HW194282   4.088   7.503   3.216
30795SOL    HW294283   4.004   7.629   3.212
30796SOL     OW94284   8.884   6.707  14.612
30796SOL    HW194285   8.862   6.779  14.552
30796SOL    HW294286   8.929   6.750  14.684
30797SOL     OW94287   1.593   0.789   0.781
30797SOL    HW194288   1.560   0.707   0.819
30797SOL    HW294289   1.567   0.785   0.689
30798SOL     OW94290  10.784  14.754  12.608
30798SOL    HW194291  10.818  14.844  12.616
30798SOL    HW294292  10.849  14.709  12.553
30799SOL     OW94293  14.159   4.948   4.212
30799SOL    HW194294  14.198   5.015   4.268
30799SOL    HW294295  14.187   4.865   4.250
30800SOL     OW94296  13.529  12.894  13.273
30800SOL    HW194297  13.516  12.800  13.260
30800SOL    HW294298  13.448  12.933  13.240
30801SOL     OW94299  10.141   8.808   6.941
30801SOL    HW194300  10.225   8.762   6.940
30801SOL    HW294301  10.079   8.746   6.904
30802SOL     OW94302   4.969   3.300   8.383
30802SOL    HW194303   5.004   3.323   8.297
30802SOL    HW294304   5.034   3.241   8.421
30803SOL     OW94305   2.118   4.825  10.277
30803SOL    HW194306   2.179   4.864  10.340
30803SOL    HW294307   2.067   4.762  10.329
30804SOL     OW94308   8.364  12.098  13.879
30804SOL    HW194309   8.331  12.188  13.875
30804SOL    HW294310   8.459  12.107  13.867
30805SOL     OW94311   1.090  14.236  11.149
30805SOL    HW194312   1.157  14.174  11.176
30805SOL    HW294313   1.019  14.225  11.213
30806SOL     OW94314   5.845   8.060  10.889
30806SOL    HW194315   5.777   7.993  10.882
30806SOL    HW294316   5.896   8.052  10.808
30807SOL     OW94317  11.917   4.295  11.036
30807SOL    HW194318  11.985   4.239  10.997
30807SOL    HW294319  11.891   4.248  11.116
30808SOL     OW94320   9.819  10.437  14.840
30808SOL    HW194321   9.746  10.387  14.804
30808SOL    HW294322   9.778  10.516  14.876
30809SOL     OW94323   8.396   6.381  14.033
30809SOL    HW194324   8.474   6.345  13.990
30809SOL    HW294325   8.324   6.328  13.999
30810SOL     OW94326   7.506   5.414   2.431
30810SOL    HW194327   7.509   5.389   2.523
30810SOL    HW294328   7.576   5.364   2.390
30811SOL     OW94329   8.101  11.998   3.415
30811SOL    HW194330   8.131  11.972   3.328
30811SOL    HW294331   8.005  12.001   3.406
30812SOL     OW94332  11.972   5.049  10.812
30812SOL    HW194333  11.918   4.973  10.834
30812SOL    HW294334  12.036   5.055  10.883
30813SOL     OW94335   7.848   4.904  12.432
30813SOL    HW194336   7.938   4.881  12.457
30813SOL    HW294337   7.815   4.957  12.504
30814SOL     OW94338  14.189   4.415   6.409
30814SOL    HW194339  14.126   4.344   6.403
30814SOL    HW294340  14.200   4.430   6.502
30815SOL     OW94341  11.705  12.015   6.652
30815SOL    HW194342  11.655  11.960   6.713
30815SOL    HW294343  11.643  12.082   6.623
30816SOL     OW94344  14.256   2.348   0.968
30816SOL    HW194345  14.245   2.422   1.028
30816SOL    HW294346  14.276   2.389   0.883
30817SOL     OW94347   1.052  10.153   8.740
30817SOL    HW194348   0.970  10.134   8.786
30817SOL    HW294349   1.080  10.237   8.775
30818SOL     OW94350  11.461   2.324  14.592
30818SOL    HW194351  11.547   2.367  14.597
30818SOL    HW294352  11.472   2.243  14.642
30819SOL     OW94353   3.012  10.313  13.086
30819SOL    HW194354   3.105  10.308  13.062
30819SOL    HW294355   2.988  10.223  13.107
30820SOL     OW94356   7.181  10.761  14.795
30820SOL    HW194357   7.271  10.775  14.824
30820SOL    HW294358   7.154  10.845  14.759
30821SOL     OW94359  14.246  13.507  12.440
30821SOL    HW194360  14.171  13.478  12.492
30821SOL    HW294361  14.322  13.472  12.486
30822SOL     OW94362   0.296   1.427  12.365
30822SOL    HW194363   0.299   1.446  12.458
30822SOL    HW294364   0.387   1.440  12.335
30823SOL     OW94365   1.558   0.693   1.825
30823SOL    HW194366   1.591   0.770   1.778
30823SOL    HW294367   1.539   0.629   1.757
30824SOL     OW94368  13.746  10.408   9.016
30824SOL    HW194369  13.733  10.397   8.922
30824SOL    HW294370  13.716  10.497   9.035
30825SOL     OW94371   2.451  13.689  12.293
30825SOL    HW194372   2.485  13.624  12.230
30825SOL    HW294373   2.520  13.754  12.299
30826SOL     OW94374   6.154   4.994   0.773
30826SOL    HW194375   6.241   4.959   0.793
30826SOL    HW294376   6.169   5.057   0.703
30827SOL     OW94377   7.136   8.097  13.505
30827SOL    HW194378   7.148   8.144  13.587
30827SOL    HW294379   7.224   8.095  13.466
30828SOL     OW94380  13.537   3.805  10.583
30828SOL    HW194381  13.545   3.763  10.669
30828SOL    HW294382  13.459   3.766  10.544
30829SOL     OW94383   4.468   7.857   7.431
30829SOL    HW194384   4.446   7.856   7.338
30829SOL    HW294385   4.387   7.832   7.476
30830SOL     OW94386   1.918   2.314   6.934
30830SOL    HW194387   1.877   2.393   6.898
30830SOL    HW294388   1.971   2.280   6.862
30831SOL     OW94389  10.291   0.433   0.129
30831SOL    HW194390  10.242   0.437   0.211
30831SOL    HW294391  10.382   0.418   0.156
30832SOL     OW94392   9.615   2.597  11.274
30832SOL    HW194393   9.596   2.683  11.237
30832SOL    HW294394   9.631   2.541  11.198
30833SOL     OW94395  11.614   8.193   1.673
30833SOL    HW194396  11.606   8.140   1.752
30833SOL    HW294397  11.575   8.277   1.695
30834SOL     OW94398  11.625   5.157   1.170
30834SOL    HW194399  11.668   5.238   1.144
30834SOL    HW294400  11.696   5.093   1.175
30835SOL     OW94401   5.329   5.065  11.857
30835SOL    HW194402   5.301   5.150  11.891
30835SOL    HW294403   5.300   5.002  11.923
30836SOL     OW94404   6.130   4.081   5.347
30836SOL    HW194405   6.119   4.175   5.333
30836SOL    HW294406   6.109   4.042   5.262
30837SOL     OW94407   6.222   8.879  12.478
30837SOL    HW194408   6.279   8.864  12.402
30837SOL    HW294409   6.141   8.834  12.456
30838SOL     OW94410  11.360  12.375  13.884
30838SOL    HW194411  11.374  12.407  13.973
30838SOL    HW294412  11.272  12.404  13.862
30839SOL     OW94413  12.232   2.142   8.875
30839SOL    HW194414  12.285   2.127   8.796
30839SOL    HW294415  12.261   2.228   8.907
30840SOL     OW94416   6.114  10.015   7.229
30840SOL    HW194417   6.091   9.934   7.275
30840SOL    HW294418   6.110  10.082   7.297
30841SOL     OW94419  13.312   4.941   8.943
30841SOL    HW194420  13.327   5.015   9.002
30841SOL    HW294421  13.370   4.872   8.975
30842SOL     OW94422   0.722   7.050   7.610
30842SOL    HW194423   0.634   7.031   7.578
30842SOL    HW294424   0.771   7.076   7.532
30843SOL     OW94425  13.194  13.819  12.991
30843SOL    HW194426  13.174  13.739  13.040
30843SOL    HW294427  13.189  13.889  13.057
30844SOL     OW94428   2.315   5.638   6.617
30844SOL    HW194429   2.285   5.677   6.535
30844SOL    HW294430   2.364   5.708   6.660
30845SOL     OW94431  11.860   6.834  12.226
30845SOL    HW194432  11.775   6.789  12.226
30845SOL    HW294433  11.890   6.828  12.316
30846SOL     OW94434   5.136  14.740   0.039
30846SOL    HW194435   5.145  14.648   0.063
30846SOL    HW294436   5.133  14.786   0.122
30847SOL     OW94437   1.632  14.471   7.455
30847SOL    HW194438   1.614  14.507   7.542
30847SOL    HW294439   1.718  14.430   7.463
30848SOL     OW94440   1.260  13.882   5.378
30848SOL    HW194441   1.249  13.794   5.415
30848SOL    HW294442   1.353  13.886   5.354
30849SOL     OW94443   6.792  10.733   3.085
30849SOL    HW194444   6.785  10.748   3.180
30849SOL    HW294445   6.843  10.652   3.078
30850SOL     OW94446  12.631  10.246  14.813
30850SOL    HW194447  12.558  10.290  14.768
30850SOL    HW294448  12.603  10.155  14.822
30851SOL     OW94449   3.196   7.491   5.948
30851SOL    HW194450   3.198   7.571   6.000
30851SOL    HW294451   3.147   7.515   5.869
30852SOL     OW94452   0.772   4.315   7.955
30852SOL    HW194453   0.722   4.393   7.931
30852SOL    HW294454   0.861   4.334   7.925
30853SOL     OW94455   6.057   1.848  10.118
30853SOL    HW194456   6.032   1.810  10.034
30853SOL    HW294457   6.144   1.887  10.103
30854SOL     OW94458   4.798   9.345   9.319
30854SOL    HW194459   4.811   9.382   9.407
30854SOL    HW294460   4.853   9.267   9.318
30855SOL     OW94461   3.049   9.755  13.167
30855SOL    HW194462   3.021   9.743  13.076
30855SOL    HW294463   3.137   9.792  13.160
30856SOL     OW94464   6.922   9.902  14.089
30856SOL    HW194465   6.935   9.876  14.180
30856SOL    HW294466   6.828   9.893  14.074
30857SOL     OW94467  13.667  11.649   4.435
30857SOL    HW194468  13.690  11.594   4.509
30857SOL    HW294469  13.618  11.722   4.473
30858SOL     OW94470   6.950   5.732  12.262
30858SOL    HW194471   6.923   5.769  12.345
30858SOL    HW294472   6.869   5.721  12.213
30859SOL     OW94473  10.271   9.029   6.765
30859SOL    HW194474  10.191   9.000   6.809
30859SOL    HW294475  10.283   8.966   6.694
30860SOL     OW94476  10.827   2.384  10.248
30860SOL    HW194477  10.896   2.360  10.310
30860SOL    HW294478  10.861   2.460  10.201
30861SOL     OW94479  13.842   4.383   4.322
30861SOL    HW194480  13.873   4.354   4.237
30861SOL    HW294481  13.912   4.438   4.356
30862SOL     OW94482   8.917  12.349  14.404
30862SOL    HW194483   8.918  12.403  14.483
30862SOL    HW294484   8.832  12.305  14.407
30863SOL     OW94485   6.313   8.808  12.742
30863SOL    HW194486   6.297   8.713  12.743
30863SOL    HW294487   6.279   8.837  12.658
30864SOL     OW94488  14.725   3.381   4.157
30864SOL    HW194489  14.784   3.431   4.214
30864SOL    HW294490  14.638   3.418   4.175
30865SOL     OW94491   9.520   0.816  14.688
30865SOL    HW194492   9.475   0.776  14.763
30865SOL    HW294493   9.607   0.836  14.722
30866SOL     OW94494   6.951  14.566  12.938
30866SOL    HW194495   6.964  14.482  12.981
30866SOL    HW294496   7.039  14.603  12.930
30867SOL     OW94497   4.456   0.097   5.071
30867SOL    HW194498   4.419   0.162   5.131
30867SOL    HW294499   4.395   0.094   4.998
30868SOL     OW94500   3.571  11.740  14.396
30868SOL    HW194501   3.498  11.768  14.451
30868SOL    HW294502   3.531  11.679  14.333
30869SOL     OW94503   9.955  10.936   4.031
30869SOL    HW194504  10.018  10.864   4.026
30869SOL    HW294505  10.000  11.003   4.082
30870SOL     OW94506   4.293   1.971  13.130
30870SOL    HW194507   4.265   1.986  13.221
30870SOL    HW294508   4.307   2.059  13.095
30871SOL     OW94509   9.844   4.699  11.457
30871SOL    HW194510   9.927   4.693  11.410
30871SOL    HW294511   9.777   4.705  11.388
30872SOL     OW94512  14.247  10.466   8.967
30872SOL    HW194513  14.173  10.406   8.973
30872SOL    HW294514  14.217  10.537   8.911
30873SOL     OW94515  11.476   0.620   0.807
30873SOL    HW194516  11.496   0.593   0.897
30873SOL    HW294517  11.383   0.602   0.796
30874SOL     OW94518   5.441   4.543   0.024
30874SOL    HW194519   5.431   4.452  14.876
30874SOL    HW294520   5.535   4.552   0.042
30875SOL     OW94521   6.104   1.545   4.618
30875SOL    HW194522   6.150   1.519   4.537
30875SOL    HW294523   6.174   1.562   4.681
30876SOL     OW94524   8.437  10.007   8.222
30876SOL    HW194525   8.417   9.924   8.265
30876SOL    HW294526   8.372  10.068   8.256
30877SOL     OW94527   6.031   8.905  10.496
30877SOL    HW194528   5.991   8.893  10.583
30877SOL    HW294529   5.956   8.912  10.436
30878SOL     OW94530   7.381   4.373   3.093
30878SOL    HW194531   7.420   4.436   3.032
30878SOL    HW294532   7.288   4.396   3.094
30879SOL     OW94533  14.403  14.085  12.632
30879SOL    HW194534  14.495  14.065  12.645
30879SOL    HW294535  14.361  14.056  12.714
30880SOL     OW94536   2.164   4.217   5.612
30880SOL    HW194537   2.150   4.155   5.540
30880SOL    HW294538   2.098   4.193   5.677
30881SOL     OW94539   2.487   0.542  13.692
30881SOL    HW194540   2.415   0.567  13.749
30881SOL    HW294541   2.491   0.611  13.625
30882SOL     OW94542  13.837   7.028   3.348
30882SOL    HW194543  13.755   6.981   3.358
30882SOL    HW294544  13.883   7.015   3.431
30883SOL     OW94545  11.476   3.667   4.907
30883SOL    HW194546  11.534   3.604   4.864
30883SOL    HW294547  11.489   3.651   5.001
30884SOL     OW94548  10.833   0.500  11.379
30884SOL    HW194549  10.876   0.428  11.332
30884SOL    HW294550  10.795   0.554  11.310
30885SOL     OW94551  13.384   4.049   3.894
30885SOL    HW194552  13.451   4.063   3.961
30885SOL    HW294553  13.334   4.131   3.894
30886SOL     OW94554   7.584   9.274   0.460
30886SOL    HW194555   7.501   9.296   0.502
30886SOL    HW294556   7.560   9.211   0.391
30887SOL     OW94557  14.217   3.929   2.393
30887SOL    HW194558  14.193   3.954   2.304
30887SOL    HW294559  14.199   4.006   2.446
30888SOL     OW94560   6.298   9.046  12.200
30888SOL    HW194561   6.364   9.029  12.132
30888SOL    HW294562   6.346   9.095  12.267
30889SOL     OW94563   0.206   0.968   2.462
30889SOL    HW194564   0.155   0.980   2.541
30889SOL    HW294565   0.154   0.910   2.407
30890SOL     OW94566  12.557   1.292  10.846
30890SOL    HW194567  12.521   1.297  10.757
30890SOL    HW294568  12.639   1.243  10.836
30891SOL     OW94569   6.818   4.912  10.450
30891SOL    HW194570   6.890   4.968  10.478
30891SOL    HW294571   6.756   4.914  10.523
30892SOL     OW94572   8.306   8.396   6.618
30892SOL    HW194573   8.316   8.482   6.659
30892SOL    HW294574   8.212   8.385   6.607
30893SOL     OW94575   2.243   4.133  11.047
30893SOL    HW194576   2.256   4.227  11.039
30893SOL    HW294577   2.199   4.108  10.966
30894SOL     OW94578   7.182   0.835   0.833
30894SOL    HW194579   7.173   0.863   0.742
30894SOL    HW294580   7.150   0.745   0.834
30895SOL     OW94581  13.827   4.018  11.593
30895SOL    HW194582  13.790   4.074  11.524
30895SOL    HW294583  13.752   3.969  11.626
30896SOL     OW94584   1.261   6.220   5.783
30896SOL    HW194585   1.347   6.262   5.777
30896SOL    HW294586   1.200   6.286   5.751
30897SOL     OW94587  13.730  12.385   9.641
30897SOL    HW194588  13.787  12.429   9.577
30897SOL    HW294589  13.642  12.398   9.607
30898SOL     OW94590   2.119   3.900   1.312
30898SOL    HW194591   2.186   3.968   1.323
30898SOL    HW294592   2.159   3.838   1.250
30899SOL     OW94593   9.446   3.661   1.993
30899SOL    HW194594   9.465   3.595   2.060
30899SOL    HW294595   9.351   3.657   1.982
30900SOL     OW94596   7.617  10.220   9.147
30900SOL    HW194597   7.670  10.298   9.131
30900SOL    HW294598   7.557  10.216   9.072
30901SOL     OW94599   3.271  12.225  13.331
30901SOL    HW194600   3.204  12.292  13.347
30901SOL    HW294601   3.309  12.209  13.417
30902SOL     OW94602   9.311   1.482  12.625
30902SOL    HW194603   9.326   1.481  12.531
30902SOL    HW294604   9.295   1.391  12.649
30903SOL     OW94605  12.703  10.486   6.331
30903SOL    HW194606  12.690  10.517   6.421
30903SOL    HW294607  12.618  10.451   6.305
30904SOL     OW94608   4.112   2.778   4.850
30904SOL    HW194609   4.062   2.697   4.839
30904SOL    HW294610   4.073   2.820   4.928
30905SOL     OW94611   7.510  10.753   5.078
30905SOL    HW194612   7.521  10.673   5.128
30905SOL    HW294613   7.462  10.812   5.137
30906SOL     OW94614   0.493   9.286   8.015
30906SOL    HW194615   0.408   9.301   8.057
30906SOL    HW294616   0.534   9.217   8.067
30907SOL     OW94617   7.043  12.452   1.123
30907SOL    HW194618   7.014  12.403   1.200
30907SOL    HW294619   7.134  12.426   1.111
30908SOL     OW94620   6.754   0.963   4.166
30908SOL    HW194621   6.772   1.054   4.142
30908SOL    HW294622   6.718   0.924   4.087
30909SOL     OW94623  14.627   4.975   9.975
30909SOL    HW194624  14.546   4.940   9.939
30909SOL    HW294625  14.636   5.061   9.934
30910SOL     OW94626   0.644   1.127   0.320
30910SOL    HW194627   0.556   1.156   0.298
30910SOL    HW294628   0.698   1.159   0.247
30911SOL     OW94629   2.896  11.673   6.115
30911SOL    HW194630   2.879  11.585   6.082
30911SOL    HW294631   2.988  11.672   6.141
30912SOL     OW94632  13.303   6.916  10.483
30912SOL    HW194633  13.215   6.892  10.513
30912SOL    HW294634  13.358   6.842  10.510
30913SOL     OW94635   0.665   3.983   4.851
30913SOL    HW194636   0.596   3.977   4.917
30913SOL    HW294637   0.746   3.989   4.901
30914SOL     OW94638   9.132   8.776   0.741
30914SOL    HW194639   9.145   8.857   0.790
30914SOL    HW294640   9.064   8.796   0.678
30915SOL     OW94641   5.223   8.005   0.645
30915SOL    HW194642   5.219   7.948   0.568
30915SOL    HW294643   5.211   8.094   0.610
30916SOL     OW94644  11.350   2.902   5.792
30916SOL    HW194645  11.421   2.958   5.761
30916SOL    HW294646  11.315   2.948   5.868
30917SOL     OW94647   6.533   2.133  10.500
30917SOL    HW194648   6.454   2.160  10.546
30917SOL    HW294649   6.558   2.209  10.447
30918SOL     OW94650   3.509   2.764   3.879
30918SOL    HW194651   3.599   2.742   3.902
30918SOL    HW294652   3.498   2.734   3.789
30919SOL     OW94653   1.392   8.616   5.087
30919SOL    HW194654   1.444   8.605   5.166
30919SOL    HW294655   1.334   8.539   5.085
30920SOL     OW94656   0.249   9.444   8.188
30920SOL    HW194657   0.276   9.525   8.147
30920SOL    HW294658   0.320   9.421   8.247
30921SOL     OW94659   0.690  14.573   0.303
30921SOL    HW194660   0.730  14.642   0.356
30921SOL    HW294661   0.763  14.536   0.253
30922SOL     OW94662   3.951  11.412  14.806
30922SOL    HW194663   4.006  11.462  14.746
30922SOL    HW294664   3.878  11.381  14.752
30923SOL     OW94665   9.149  14.144   9.266
30923SOL    HW194666   9.103  14.143   9.183
30923SOL    HW294667   9.170  14.052   9.283
30924SOL     OW94668   0.698   3.336   0.853
30924SOL    HW194669   0.690   3.331   0.758
30924SOL    HW294670   0.674   3.248   0.883
30925SOL     OW94671   7.899   4.088   3.455
30925SOL    HW194672   7.982   4.077   3.407
30925SOL    HW294673   7.875   4.179   3.441
30926SOL     OW94674  13.351   1.913   7.411
30926SOL    HW194675  13.321   1.837   7.461
30926SOL    HW294676  13.321   1.988   7.462
30927SOL     OW94677   4.385  10.469   1.928
30927SOL    HW194678   4.397  10.538   1.863
30927SOL    HW294679   4.468  10.465   1.975
30928SOL     OW94680   0.890   2.379  13.125
30928SOL    HW194681   0.969   2.327  13.138
30928SOL    HW294682   0.823   2.334  13.175
30929SOL     OW94683   3.142   3.428   0.213
30929SOL    HW194684   3.191   3.374   0.150
30929SOL    HW294685   3.205   3.447   0.282
30930SOL     OW94686   3.769   9.399   2.002
30930SOL    HW194687   3.831   9.381   1.931
30930SOL    HW294688   3.687   9.420   1.958
30931SOL     OW94689   9.723   8.358   0.806
30931SOL    HW194690   9.635   8.396   0.796
30931SOL    HW294691   9.781   8.433   0.816
30932SOL     OW94692   8.232   3.347  11.860
30932SOL    HW194693   8.154   3.355  11.915
30932SOL    HW294694   8.199   3.354  11.771
30933SOL     OW94695   0.922   4.628   1.857
30933SOL    HW194696   0.866   4.673   1.920
30933SOL    HW294697   0.887   4.653   1.772
30934SOL     OW94698   3.247   4.548   6.010
30934SOL    HW194699   3.161   4.589   5.995
30934SOL    HW294700   3.309   4.620   6.004
30935SOL     OW94701   4.369   1.327  12.651
30935SOL    HW194702   4.336   1.333  12.561
30935SOL    HW294703   4.290   1.325  12.705
30936SOL     OW94704  12.181   1.759   6.847
30936SOL    HW194705  12.120   1.758   6.920
30936SOL    HW294706  12.262   1.722   6.881
30937SOL     OW94707  12.230   4.413  14.324
30937SOL    HW194708  12.160   4.354  14.350
30937SOL    HW294709  12.215   4.431  14.231
30938SOL     OW94710   2.888  10.441   9.290
30938SOL    HW194711   2.854  10.355   9.312
30938SOL    HW294712   2.980  10.427   9.270
30939SOL     OW94713   5.922   0.373   6.231
30939SOL    HW194714   6.003   0.403   6.272
30939SOL    HW294715   5.899   0.443   6.170
30940SOL     OW94716   1.786   0.550   0.321
30940SOL    HW194717   1.752   0.462   0.310
30940SOL    HW294718   1.722   0.606   0.278
30941SOL     OW94719  13.810   3.116   6.129
30941SOL    HW194720  13.724   3.075   6.141
30941SOL    HW294721  13.795   3.184   6.063
30942SOL     OW94722   8.751  12.384   2.155
30942SOL    HW194723   8.809  12.459   2.138
30942SOL    HW294724   8.666  12.412   2.119
30943SOL     OW94725  11.326   3.186   5.500
30943SOL    HW194726  11.341   3.154   5.589
30943SOL    HW294727  11.402   3.242   5.481
30944SOL     OW94728   7.847   0.142   5.550
30944SOL    HW194729   7.762   0.152   5.593
30944SOL    HW294730   7.895   0.079   5.604
30945SOL     OW94731   7.725  10.800   9.009
30945SOL    HW194732   7.666  10.753   8.951
30945SOL    HW294733   7.678  10.806   9.092
30946SOL     OW94734   4.943   7.883  13.948
30946SOL    HW194735   5.005   7.866  13.877
30946SOL    HW294736   4.927   7.797  13.987
30947SOL     OW94737   1.124   2.589   1.908
30947SOL    HW194738   1.185   2.522   1.938
30947SOL    HW294739   1.039   2.562   1.942
30948SOL     OW94740   9.038   3.203   2.107
30948SOL    HW194741   8.948   3.176   2.090
30948SOL    HW294742   9.059   3.265   2.036
30949SOL     OW94743  11.204  12.376   8.387
30949SOL    HW194744  11.199  12.382   8.291
30949SOL    HW294745  11.296  12.357   8.405
30950SOL     OW94746   9.486  10.522   7.325
30950SOL    HW194747   9.529  10.503   7.409
30950SOL    HW294748   9.557  10.552   7.269
30951SOL     OW94749   9.859  14.601   0.472
30951SOL    HW194750   9.825  14.681   0.433
30951SOL    HW294751   9.786  14.538   0.464
30952SOL     OW94752   8.135   7.481   8.926
30952SOL    HW194753   8.221   7.519   8.943
30952SOL    HW294754   8.081   7.556   8.902
30953SOL     OW94755   7.578   9.290   3.914
30953SOL    HW194756   7.513   9.220   3.923
30953SOL    HW294757   7.644   9.254   3.854
30954SOL     OW94758  10.058  10.957  12.862
30954SOL    HW194759  10.078  10.952  12.956
30954SOL    HW294760   9.981  10.901  12.851
30955SOL     OW94761   1.606  13.929   1.772
30955SOL    HW194762   1.542  13.862   1.796
30955SOL    HW294763   1.561  13.983   1.706
30956SOL     OW94764   2.740   7.082  13.074
30956SOL    HW194765   2.779   7.150  13.130
30956SOL    HW294766   2.647   7.083  13.097
30957SOL     OW94767   7.867  14.025   4.280
30957SOL    HW194768   7.953  14.041   4.241
30957SOL    HW294769   7.886  13.988   4.366
30958SOL     OW94770   9.222   0.165   1.248
30958SOL    HW194771   9.138   0.180   1.204
30958SOL    HW294772   9.220   0.073   1.274
30959SOL     OW94773  11.013   4.768  13.352
30959SOL    HW194774  10.970   4.806  13.429
30959SOL    HW294775  10.979   4.679  13.348
30960SOL     OW94776   4.638  11.691  11.451
30960SOL    HW194777   4.728  11.661  11.461
30960SOL    HW294778   4.642  11.755  11.379
30961SOL     OW94779  11.778   1.931  12.673
30961SOL    HW194780  11.744   1.885  12.596
30961SOL    HW294781  11.737   1.888  12.747
30962SOL     OW94782   4.748  12.905   5.389
30962SOL    HW194783   4.703  12.943   5.464
30962SOL    HW294784   4.840  12.928   5.402
30963SOL     OW94785   6.386  12.478   3.191
30963SOL    HW194786   6.461  12.456   3.246
30963SOL    HW294787   6.389  12.416   3.119
30964SOL     OW94788  10.694   3.268   1.728
30964SOL    HW194789  10.740   3.229   1.802
30964SOL    HW294790  10.655   3.348   1.764
30965SOL     OW94791   9.557   4.105   9.160
30965SOL    HW194792   9.602   4.175   9.207
30965SOL    HW294793   9.505   4.060   9.227
30966SOL     OW94794  10.602  12.787   9.663
30966SOL    HW194795  10.575  12.879   9.668
30966SOL    HW294796  10.608  12.759   9.754
30967SOL     OW94797   7.942   7.877   8.846
30967SOL    HW194798   7.869   7.831   8.804
30967SOL    HW294799   8.002   7.898   8.775
30968SOL     OW94800   5.569   5.696   7.858
30968SOL    HW194801   5.490   5.747   7.843
30968SOL    HW294802   5.542   5.605   7.842
30969SOL     OW94803   1.203   6.152  14.871
30969SOL    HW194804   1.135   6.087  14.852
30969SOL    HW294805   1.184   6.181   0.078
30970SOL     OW94806   1.595  14.531   9.601
30970SOL    HW194807   1.638  14.617   9.600
30970SOL    HW294808   1.515  14.544   9.550
30971SOL     OW94809   3.183   9.981   3.247
30971SOL    HW194810   3.151  10.048   3.187
30971SOL    HW294811   3.106   9.927   3.265
30972SOL     OW94812  10.171   7.957   0.437
30972SOL    HW194813  10.180   7.929   0.346
30972SOL    HW294814  10.093   7.912   0.469
30973SOL     OW94815   6.966   7.033   8.173
30973SOL    HW194816   6.922   7.004   8.253
30973SOL    HW294817   6.939   7.124   8.163
30974SOL     OW94818  14.624  12.258   9.240
30974SOL    HW194819  14.649  12.168   9.261
30974SOL    HW294820  14.660  12.272   9.152
30975SOL     OW94821   7.699   9.606  12.142
30975SOL    HW194822   7.695   9.520  12.182
30975SOL    HW294823   7.724   9.665  12.213
30976SOL     OW94824   0.979   0.859   9.642
30976SOL    HW194825   1.049   0.920   9.621
30976SOL    HW294826   0.903   0.914   9.658
30977SOL     OW94827  10.963  10.011   3.167
30977SOL    HW194828  11.056  10.012   3.145
30977SOL    HW294829  10.959  10.043   3.258
30978SOL     OW94830   9.266   7.395  14.087
30978SOL    HW194831   9.174   7.415  14.071
30978SOL    HW294832   9.306   7.479  14.109
30979SOL     OW94833   6.341   8.952   6.094
30979SOL    HW194834   6.404   8.960   6.022
30979SOL    HW294835   6.395   8.946   6.173
30980SOL     OW94836   1.708   7.009   7.294
30980SOL    HW194837   1.703   6.977   7.385
30980SOL    HW294838   1.794   6.980   7.264
30981SOL     OW94839  14.842   3.626   7.954
30981SOL    HW194840   0.015   3.548   7.965
30981SOL    HW294841   0.021   3.695   7.932
30982SOL     OW94842   6.394   3.970  10.565
30982SOL    HW194843   6.327   3.970  10.497
30982SOL    HW294844   6.354   3.926  10.639
30983SOL     OW94845   3.734  10.719   6.588
30983SOL    HW194846   3.716  10.625   6.588
30983SOL    HW294847   3.768  10.737   6.676
30984SOL     OW94848   4.234   3.428   6.877
30984SOL    HW194849   4.329   3.415   6.885
30984SOL    HW294850   4.212   3.389   6.793
30985SOL     OW94851  13.647   3.525   3.087
30985SOL    HW194852  13.689   3.593   3.139
30985SOL    HW294853  13.683   3.443   3.121
30986SOL     OW94854   0.958   2.283  14.858
30986SOL    HW194855   0.887   2.237  14.814
30986SOL    HW294856   1.037   2.237  14.829
30987SOL     OW94857  14.717   0.515   6.969
30987SOL    HW194858  14.712   0.546   6.878
30987SOL    HW294859  14.657   0.572   7.017
30988SOL     OW94860  12.334   6.074   3.241
30988SOL    HW194861  12.336   6.070   3.145
30988SOL    HW294862  12.426   6.063   3.267
30989SOL     OW94863   6.140   0.760   0.049
30989SOL    HW194864   6.129   0.816  14.855
30989SOL    HW294865   6.052   0.729   0.069
30990SOL     OW94866   7.968  13.848  10.532
30990SOL    HW194867   8.006  13.910  10.469
30990SOL    HW294868   7.906  13.901  10.583
30991SOL     OW94869   6.288  11.236  10.553
30991SOL    HW194870   6.310  11.310  10.496
30991SOL    HW294871   6.196  11.219  10.536
30992SOL     OW94872  11.220  12.667   2.416
30992SOL    HW194873  11.276  12.616   2.357
30992SOL    HW294874  11.146  12.693   2.361
30993SOL     OW94875   5.520   5.964  13.533
30993SOL    HW194876   5.507   6.057  13.515
30993SOL    HW294877   5.458   5.944  13.603
30994SOL     OW94878   9.692   6.965   9.925
30994SOL    HW194879   9.761   6.975   9.991
30994SOL    HW294880   9.617   7.010   9.963
30995SOL     OW94881   0.147  10.054  10.149
30995SOL    HW194882   0.059  10.086  10.169
30995SOL    HW294883   0.204  10.101  10.210
30996SOL     OW94884   2.330  12.170  10.925
30996SOL    HW194885   2.293  12.108  10.987
30996SOL    HW294886   2.355  12.116  10.850
30997SOL     OW94887  10.839   9.759  13.482
30997SOL    HW194888  10.907   9.823  13.504
30997SOL    HW294889  10.784   9.804  13.417
30998SOL     OW94890   2.432   1.786  14.357
30998SOL    HW194891   2.512   1.777  14.409
30998SOL    HW294892   2.397   1.697  14.351
30999SOL     OW94893   0.243   6.037   7.701
30999SOL    HW194894   0.324   6.013   7.656
30999SOL    HW294895   0.263   6.029   7.794
31000SOL     OW94896   4.925   5.984   7.077
31000SOL    HW194897   5.003   5.953   7.032
31000SOL    HW294898   4.882   6.042   7.014
31001SOL     OW94899  13.539   6.839  12.124
31001SOL    HW194900  13.557   6.904  12.056
31001SOL    HW294901  13.611   6.847  12.186
31002SOL     OW94902   6.543   8.409   3.236
31002SOL    HW194903   6.528   8.393   3.329
31002SOL    HW294904   6.589   8.332   3.205
31003SOL     OW94905  10.957   5.857   2.200
31003SOL    HW194906  10.893   5.894   2.261
31003SOL    HW294907  11.032   5.916   2.206
31004SOL     OW94908  10.866  11.786  10.984
31004SOL    HW194909  10.883  11.756  10.894
31004SOL    HW294910  10.861  11.706  11.035
31005SOL     OW94911  13.212   1.761   3.273
31005SOL    HW194912  13.280   1.721   3.219
31005SOL    HW294913  13.258   1.827   3.325
31006SOL     OW94914   4.369   4.031   6.604
31006SOL    HW194915   4.385   3.940   6.579
31006SOL    HW294916   4.443   4.080   6.569
31007SOL     OW94917   4.723   0.620  13.736
31007SOL    HW194918   4.667   0.574  13.797
31007SOL    HW294919   4.681   0.705  13.724
31008SOL     OW94920  12.007   4.052   3.463
31008SOL    HW194921  11.942   4.079   3.398
31008SOL    HW294922  12.041   4.134   3.499
31009SOL     OW94923   6.662  11.054   9.686
31009SOL    HW194924   6.743  11.005   9.671
31009SOL    HW294925   6.689  11.145   9.691
31010SOL     OW94926   0.389  10.390   1.528
31010SOL    HW194927   0.474  10.348   1.515
31010SOL    HW294928   0.368  10.428   1.443
31011SOL     OW94929   9.024   0.330  13.811
31011SOL    HW194930   9.088   0.263  13.838
31011SOL    HW294931   8.992   0.298  13.726
31012SOL     OW94932   5.550  12.188   3.396
31012SOL    HW194933   5.516  12.275   3.413
31012SOL    HW294934   5.504  12.159   3.317
31013SOL     OW94935  11.970   2.536   2.192
31013SOL    HW194936  12.034   2.587   2.141
31013SOL    HW294937  11.885   2.572   2.166
31014SOL     OW94938   4.076   0.209   8.069
31014SOL    HW194939   4.066   0.304   8.073
31014SOL    HW294940   4.124   0.194   7.987
31015SOL     OW94941   5.014   7.547  11.397
31015SOL    HW194942   4.959   7.616  11.435
31015SOL    HW294943   5.010   7.562  11.303
31016SOL     OW94944  14.557  11.964   2.959
31016SOL    HW194945  14.525  11.922   3.039
31016SOL    HW294946  14.633  12.015   2.987
31017SOL     OW94947   1.057   8.813   2.502
31017SOL    HW194948   1.088   8.783   2.417
31017SOL    HW294949   1.063   8.908   2.497
31018SOL     OW94950   2.024   0.591   1.307
31018SOL    HW194951   2.006   0.567   1.216
31018SOL    HW294952   2.073   0.517   1.342
31019SOL     OW94953   0.342  10.424  11.751
31019SOL    HW194954   0.290  10.466  11.820
31019SOL    HW294955   0.326  10.477  11.673
31020SOL     OW94956   9.050   5.628  10.047
31020SOL    HW194957   9.012   5.544  10.073
31020SOL    HW294958   9.015   5.644   9.959
31021SOL     OW94959   0.274   9.454  10.528
31021SOL    HW194960   0.289   9.386  10.462
31021SOL    HW294961   0.206   9.510  10.489
31022SOL     OW94962   3.913  12.139   3.983
31022SOL    HW194963   3.837  12.193   3.963
31022SOL    HW294964   3.914  12.132   4.079
31023SOL     OW94965   5.949   6.302   3.021
31023SOL    HW194966   5.954   6.387   2.976
31023SOL    HW294967   5.922   6.241   2.953
31024SOL     OW94968  10.467   5.540   5.483
31024SOL    HW194969  10.399   5.578   5.538
31024SOL    HW294970  10.440   5.561   5.394
31025SOL     OW94971   0.192   4.060   1.265
31025SOL    HW194972   0.264   4.115   1.236
31025SOL    HW294973   0.208   4.046   1.358
31026SOL     OW94974  14.828   1.179   5.054
31026SOL    HW194975  14.751   1.139   5.013
31026SOL    HW294976   0.019   1.122   5.028
31027SOL     OW94977   6.270   2.462   4.574
31027SOL    HW194978   6.278   2.394   4.641
31027SOL    HW294979   6.246   2.414   4.495
31028SOL     OW94980  10.991  11.364  13.069
31028SOL    HW194981  10.998  11.410  13.153
31028SOL    HW294982  10.934  11.420  13.016
31029SOL     OW94983  12.287   9.823  14.840
31029SOL    HW194984  12.316   9.734  14.859
31029SOL    HW294985  12.193   9.823  14.858
31030SOL     OW94986   8.581  10.410  13.818
31030SOL    HW194987   8.626  10.454  13.746
31030SOL    HW294988   8.490  10.441  13.811
31031SOL     OW94989   5.931   6.717   9.145
31031SOL    HW194990   5.926   6.638   9.091
31031SOL    HW294991   5.932   6.789   9.082
31032SOL     OW94992  10.868  10.353   9.771
31032SOL    HW194993  10.819  10.348   9.854
31032SOL    HW294994  10.881  10.447   9.757
31033SOL     OW94995  12.743   9.160   6.501
31033SOL    HW194996  12.691   9.168   6.581
31033SOL    HW294997  12.743   9.067   6.481
31034SOL     OW94998  13.318   5.107   2.506
31034SOL    HW194999  13.367   5.151   2.437
31034SOL    HW295000  13.242   5.163   2.522
31035SOL     OW95001   6.353   2.687   2.796
31035SOL    HW195002   6.353   2.636   2.715
31035SOL    HW295003   6.280   2.748   2.787
31036SOL     OW95004  14.239   2.053  11.409
31036SOL    HW195005  14.182   2.039  11.333
31036SOL    HW295006  14.276   2.140  11.395
31037SOL     OW95007  10.451   9.902  10.639
31037SOL    HW195008  10.363   9.866  10.635
31037SOL    HW295009  10.508   9.829  10.614
31038SOL     OW95010  11.132   2.063   5.512
31038SOL    HW195011  11.144   2.157   5.493
31038SOL    HW295012  11.063   2.036   5.451
31039SOL     OW95013   9.833  14.671  14.763
31039SOL    HW195014   9.818  14.692  14.671
31039SOL    HW295015   9.801  14.582  14.773
31040SOL     OW95016   3.561   5.639  12.009
31040SOL    HW195017   3.597   5.702  11.946
31040SOL    HW295018   3.625   5.567  12.010
31041SOL     OW95019   2.069   1.190  10.459
31041SOL    HW195020   2.140   1.252  10.473
31041SOL    HW295021   2.085   1.120  10.522
31042SOL     OW95022   4.105   7.954   2.631
31042SOL    HW195023   4.130   8.028   2.576
31042SOL    HW295024   4.015   7.935   2.605
31043SOL     OW95025  11.713   7.168  14.111
31043SOL    HW195026  11.687   7.236  14.049
31043SOL    HW295027  11.755   7.216  14.183
31044SOL     OW95028  12.719   1.807   2.764
31044SOL    HW195029  12.703   1.755   2.686
31044SOL    HW295030  12.634   1.812   2.808
31045SOL     OW95031  11.627  13.393  11.921
31045SOL    HW195032  11.682  13.316  11.907
31045SOL    HW295033  11.686  13.467  11.906
31046SOL     OW95034   2.098  11.791   9.766
31046SOL    HW195035   2.047  11.713   9.784
31046SOL    HW295036   2.141  11.811   9.849
31047SOL     OW95037  13.354   0.976   6.111
31047SOL    HW195038  13.270   1.020   6.098
31047SOL    HW295039  13.419   1.041   6.085
31048SOL     OW95040   7.833  12.030   4.535
31048SOL    HW195041   7.866  12.095   4.473
31048SOL    HW295042   7.769  12.077   4.587
31049SOL     OW95043  13.885  10.237   5.082
31049SOL    HW195044  13.921  10.276   5.162
31049SOL    HW295045  13.842  10.310   5.037
31050SOL     OW95046  12.066   8.151  10.291
31050SOL    HW195047  11.987   8.098  10.300
31050SOL    HW295048  12.038   8.226  10.240
31051SOL     OW95049  14.598   7.678   5.791
31051SOL    HW195050  14.512   7.636   5.794
31051SOL    HW295051  14.647   7.636   5.862
31052SOL     OW95052   2.438   7.697   9.750
31052SOL    HW195053   2.458   7.620   9.696
31052SOL    HW295054   2.392   7.661   9.826
31053SOL     OW95055   4.229   6.523  13.663
31053SOL    HW195056   4.162   6.536  13.730
31053SOL    HW295057   4.193   6.563  13.584
31054SOL     OW95058  11.906   7.883  12.590
31054SOL    HW195059  11.826   7.933  12.575
31054SOL    HW295060  11.918   7.883  12.685
31055SOL     OW95061   8.429   8.801   6.558
31055SOL    HW195062   8.370   8.859   6.511
31055SOL    HW295063   8.513   8.845   6.558
31056SOL     OW95064   3.736   3.400   3.224
31056SOL    HW195065   3.698   3.455   3.156
31056SOL    HW295066   3.664   3.345   3.254
31057SOL     OW95067   8.345  10.858   0.426
31057SOL    HW195068   8.307  10.849   0.339
31057SOL    HW295069   8.437  10.838   0.414
31058SOL     OW95070   5.755   7.016   7.665
31058SOL    HW195071   5.826   6.965   7.704
31058SOL    HW295072   5.747   6.983   7.576
31059SOL     OW95073  13.091   5.715  11.801
31059SOL    HW195074  13.005   5.680  11.778
31059SOL    HW295075  13.142   5.711  11.720
31060SOL     OW95076  14.502   1.604  11.310
31060SOL    HW195077  14.414   1.566  11.314
31060SOL    HW295078  14.503   1.656  11.230
31061SOL     OW95079  10.778   6.201   0.826
31061SOL    HW195080  10.824   6.276   0.863
31061SOL    HW295081  10.783   6.134   0.895
31062SOL     OW95082  13.070  12.816   0.061
31062SOL    HW195083  13.089  12.722   0.050
31062SOL    HW295084  13.143  12.849   0.113
31063SOL     OW95085  12.942   2.643  11.465
31063SOL    HW195086  13.035   2.665  11.459
31063SOL    HW295087  12.898   2.716  11.423
31064SOL     OW95088   0.730   0.892  14.795
31064SOL    HW195089   0.667   0.950  14.837
31064SOL    HW295090   0.721   0.911  14.702
31065SOL     OW95091  10.931   5.460   1.065
31065SOL    HW195092  10.960   5.372   1.088
31065SOL    HW295093  10.925   5.507   1.148
31066SOL     OW95094   4.346   6.717   0.925
31066SOL    HW195095   4.318   6.679   0.842
31066SOL    HW295096   4.356   6.642   0.984
31067SOL     OW95097   8.269   2.565   6.285
31067SOL    HW195098   8.335   2.626   6.251
31067SOL    HW295099   8.206   2.621   6.331
31068SOL     OW95100   4.013   3.941   0.096
31068SOL    HW195101   4.057   3.970   0.017
31068SOL    HW295102   3.961   4.016   0.124
31069SOL     OW95103  14.305   3.856  14.681
31069SOL    HW195104  14.357   3.827  14.606
31069SOL    HW295105  14.279   3.776  14.725
31070SOL     OW95106  14.437   5.214   3.885
31070SOL    HW195107  14.435   5.269   3.964
31070SOL    HW295108  14.348   5.218   3.850
31071SOL     OW95109  14.282  14.114   4.796
31071SOL    HW195110  14.268  14.081   4.707
31071SOL    HW295111  14.377  14.109   4.809
31072SOL     OW95112   5.404  14.111   3.989
31072SOL    HW195113   5.326  14.165   3.976
31072SOL    HW295114   5.389  14.033   3.936
31073SOL     OW95115   3.757  11.981   2.966
31073SOL    HW195116   3.750  11.916   2.895
31073SOL    HW295117   3.772  11.929   3.045
31074SOL     OW95118   5.926   4.945   0.920
31074SOL    HW195119   6.021   4.953   0.909
31074SOL    HW295120   5.914   4.866   0.973
31075SOL     OW95121   4.314   2.432  14.854
31075SOL    HW195122   4.395   2.432   0.022
31075SOL    HW295123   4.246   2.455   0.035
31076SOL     OW95124   6.721   2.101   9.501
31076SOL    HW195125   6.642   2.080   9.451
31076SOL    HW295126   6.722   2.197   9.505
31077SOL     OW95127   8.598   7.233   7.415
31077SOL    HW195128   8.545   7.176   7.360
31077SOL    HW295129   8.588   7.199   7.503
31078SOL     OW95130   3.693   7.395   7.200
31078SOL    HW195131   3.621   7.340   7.229
31078SOL    HW295132   3.756   7.393   7.273
31079SOL     OW95133   1.014  13.339   0.181
31079SOL    HW195134   0.969  13.270   0.133
31079SOL    HW295135   0.966  13.346   0.264
31080SOL     OW95136  12.603   6.333   3.660
31080SOL    HW195137  12.696   6.339   3.682
31080SOL    HW295138  12.598   6.363   3.569
31081SOL     OW95139   1.514   8.067   6.051
31081SOL    HW195140   1.575   8.138   6.033
31081SOL    HW295141   1.450   8.072   5.979
31082SOL     OW95142  12.630  12.790   7.791
31082SOL    HW195143  12.545  12.745   7.790
31082SOL    HW295144  12.690  12.730   7.746
31083SOL     OW95145   4.566  10.501  11.383
31083SOL    HW195146   4.581  10.565  11.453
31083SOL    HW295147   4.473  10.480  11.390
31084SOL     OW95148   4.192  11.516   2.394
31084SOL    HW195149   4.182  11.611   2.393
31084SOL    HW295150   4.281  11.502   2.428
31085SOL     OW95151   5.073  10.668   8.536
31085SOL    HW195152   5.114  10.739   8.486
31085SOL    HW295153   4.984  10.663   8.501
31086SOL     OW95154   1.327   0.578   5.543
31086SOL    HW195155   1.235   0.559   5.560
31086SOL    HW295156   1.347   0.531   5.462
31087SOL     OW95157   6.121   5.319  12.195
31087SOL    HW195158   6.198   5.356  12.151
31087SOL    HW295159   6.073   5.395  12.227
31088SOL     OW95160  12.253   7.811   2.580
31088SOL    HW195161  12.282   7.830   2.669
31088SOL    HW295162  12.264   7.716   2.571
31089SOL     OW95163  14.344   9.311   3.942
31089SOL    HW195164  14.418   9.288   3.886
31089SOL    HW295165  14.323   9.401   3.917
31090SOL     OW95166  11.215   6.169   0.100
31090SOL    HW195167  11.211   6.073   0.095
31090SOL    HW295168  11.286   6.187   0.161
31091SOL     OW95169  10.099   7.544   4.764
31091SOL    HW195170  10.137   7.583   4.685
31091SOL    HW295171  10.107   7.450   4.751
31092SOL     OW95172   8.466   1.455  13.571
31092SOL    HW195173   8.373   1.447  13.547
31092SOL    HW295174   8.513   1.444  13.489
31093SOL     OW95175  14.207   9.433   1.099
31093SOL    HW195176  14.123   9.407   1.137
31093SOL    HW295177  14.203   9.528   1.092
31094SOL     OW95178  10.423  12.430  10.783
31094SOL    HW195179  10.450  12.430  10.875
31094SOL    HW295180  10.417  12.337  10.760
31095SOL     OW95181  13.535   3.050   6.131
31095SOL    HW195182  13.479   3.053   6.053
31095SOL    HW295183  13.569   2.960   6.133
31096SOL     OW95184   6.114   4.054   9.422
31096SOL    HW195185   6.098   4.103   9.342
31096SOL    HW295186   6.028   4.022   9.449
31097SOL     OW95187   0.915  14.647  11.027
31097SOL    HW195188   0.997  14.620  11.069
31097SOL    HW295189   0.924  14.741  11.015
31098SOL     OW95190   8.981   4.721   5.212
31098SOL    HW195191   8.984   4.672   5.294
31098SOL    HW295192   9.064   4.700   5.169
31099SOL     OW95193   1.272   6.744   5.744
31099SOL    HW195194   1.341   6.803   5.774
31099SOL    HW295195   1.194   6.773   5.791
31100SOL     OW95196  11.118   0.216  14.322
31100SOL    HW195197  11.137   0.248  14.234
31100SOL    HW295198  11.132   0.292  14.379
31101SOL     OW95199  11.072  10.064   4.111
31101SOL    HW195200  11.072  10.010   4.190
31101SOL    HW295201  11.122  10.142   4.136
31102SOL     OW95202   6.513   8.011   0.868
31102SOL    HW195203   6.499   7.942   0.932
31102SOL    HW295204   6.535   8.088   0.920
31103SOL     OW95205   6.090  13.185   6.341
31103SOL    HW195206   6.180  13.159   6.360
31103SOL    HW295207   6.055  13.212   6.426
31104SOL     OW95208  14.212  10.613   7.472
31104SOL    HW195209  14.121  10.643   7.477
31104SOL    HW295210  14.211  10.527   7.513
31105SOL     OW95211   2.105  12.123   6.557
31105SOL    HW195212   2.011  12.119   6.543
31105SOL    HW295213   2.142  12.059   6.496
31106SOL     OW95214  11.332   7.666   6.185
31106SOL    HW195215  11.416   7.679   6.229
31106SOL    HW295216  11.269   7.712   6.239
31107SOL     OW95217   5.648   8.715   3.223
31107SOL    HW195218   5.646   8.664   3.304
31107SOL    HW295219   5.737   8.705   3.190
31108SOL     OW95220   8.179   5.052  13.214
31108SOL    HW195221   8.092   5.022  13.242
31108SOL    HW295222   8.169   5.070  13.121
31109SOL     OW95223   6.145   6.935  12.381
31109SOL    HW195224   6.214   6.913  12.318
31109SOL    HW295225   6.191   6.940  12.465
31110SOL     OW95226   0.817   8.981   3.858
31110SOL    HW195227   0.803   8.906   3.916
31110SOL    HW295228   0.897   8.960   3.809
31111SOL     OW95229   4.419   0.479  13.024
31111SOL    HW195230   4.467   0.516  12.949
31111SOL    HW295231   4.328   0.502  13.008
31112SOL     OW95232   9.656  10.719   4.705
31112SOL    HW195233   9.745  10.749   4.686
31112SOL    HW295234   9.668  10.634   4.749
31113SOL     OW95235   8.667   4.641   4.357
31113SOL    HW195236   8.655   4.642   4.262
31113SOL    HW295237   8.686   4.732   4.379
31114SOL     OW95238   2.280   4.266  12.465
31114SOL    HW195239   2.248   4.290  12.551
31114SOL    HW295240   2.236   4.184  12.445
31115SOL     OW95241   6.482   9.399   3.917
31115SOL    HW195242   6.494   9.319   3.867
31115SOL    HW295243   6.412   9.446   3.872
31116SOL     OW95244   5.824   9.022   1.681
31116SOL    HW195245   5.846   9.045   1.771
31116SOL    HW295246   5.728   9.030   1.678
31117SOL     OW95247   4.168  13.187  12.183
31117SOL    HW195248   4.243  13.228  12.139
31117SOL    HW295249   4.116  13.260  12.215
31118SOL     OW95250  11.345  10.453  12.308
31118SOL    HW195251  11.360  10.359  12.322
31118SOL    HW295252  11.252  10.459  12.287
31119SOL     OW95253   3.779  12.290   5.597
31119SOL    HW195254   3.764  12.219   5.659
31119SOL    HW295255   3.857  12.264   5.549
31120SOL     OW95256   9.401   5.647   3.864
31120SOL    HW195257   9.346   5.679   3.935
31120SOL    HW295258   9.439   5.725   3.825
31121SOL     OW95259  14.229  11.833   3.245
31121SOL    HW195260  14.307  11.814   3.192
31121SOL    HW295261  14.188  11.747   3.258
31122SOL     OW95262   3.607   3.900   7.062
31122SOL    HW195263   3.578   3.962   6.995
31122SOL    HW295264   3.634   3.822   7.013
31123SOL     OW95265   9.775  12.445  11.097
31123SOL    HW195266   9.733  12.473  11.016
31123SOL    HW295267   9.724  12.369  11.126
31124SOL     OW95268   8.512  13.222   9.631
31124SOL    HW195269   8.478  13.144   9.675
31124SOL    HW295270   8.475  13.295   9.681
31125SOL     OW95271   9.075  14.614   5.123
31125SOL    HW195272   9.057  14.549   5.190
31125SOL    HW295273   9.026  14.585   5.046
31126SOL     OW95274  11.162  10.902  13.661
31126SOL    HW195275  11.090  10.947  13.704
31126SOL    HW295276  11.122  10.856  13.588
31127SOL     OW95277  14.201  11.213   0.245
31127SOL    HW195278  14.142  11.221   0.170
31127SOL    HW295279  14.245  11.129   0.232
31128SOL     OW95280   2.383   3.797   7.200
31128SOL    HW195281   2.321   3.826   7.133
31128SOL    HW295282   2.403   3.707   7.176
31129SOL     OW95283   7.948  11.574  13.883
31129SOL    HW195284   7.973  11.500  13.939
31129SOL    HW295285   7.992  11.649  13.921
31130SOL     OW95286   5.718   1.223   0.316
31130SOL    HW195287   5.796   1.278   0.319
31130SOL    HW295288   5.695   1.209   0.408
31131SOL     OW95289  11.926   0.080   5.741
31131SOL    HW195290  11.880   0.149   5.693
31131SOL    HW295291  11.984   0.129   5.801
31132SOL     OW95292   7.715   4.183   7.819
31132SOL    HW195293   7.635   4.153   7.776
31132SOL    HW295294   7.687   4.258   7.872
31133SOL     OW95295  10.239   3.262   7.750
31133SOL    HW195296  10.221   3.298   7.663
31133SOL    HW295297  10.218   3.333   7.810
31134SOL     OW95298  11.011   5.687   5.324
31134SOL    HW195299  11.016   5.779   5.300
31134SOL    HW295300  10.921   5.673   5.351
31135SOL     OW95301   9.572  12.115   6.509
31135SOL    HW195302   9.591  12.021   6.505
31135SOL    HW295303   9.637  12.151   6.570
31136SOL     OW95304   3.030   9.493  11.433
31136SOL    HW195305   3.058   9.406  11.459
31136SOL    HW295306   2.984   9.480  11.350
31137SOL     OW95307   3.694  13.613   7.261
31137SOL    HW195308   3.755  13.554   7.306
31137SOL    HW295309   3.613  13.562   7.253
31138SOL     OW95310   9.971  14.647   4.669
31138SOL    HW195311  10.057  14.606   4.671
31138SOL    HW295312   9.980  14.726   4.723
31139SOL     OW95313   2.883  12.680   3.333
31139SOL    HW195314   2.824  12.755   3.334
31139SOL    HW295315   2.951  12.702   3.397
31140SOL     OW95316  10.405   3.962   0.071
31140SOL    HW195317  10.443   4.016   0.140
31140SOL    HW295318  10.476   3.903   0.045
31141SOL     OW95319   1.424   3.908  12.159
31141SOL    HW195320   1.495   3.915  12.223
31141SOL    HW295321   1.466   3.882  12.078
31142SOL     OW95322   8.562   8.942   5.037
31142SOL    HW195323   8.484   8.898   5.002
31142SOL    HW295324   8.619   8.870   5.065
31143SOL     OW95325   4.161   1.918  10.479
31143SOL    HW195326   4.098   1.898  10.410
31143SOL    HW295327   4.244   1.931  10.433
31144SOL     OW95328   2.986  10.540   1.961
31144SOL    HW195329   2.895  10.522   1.983
31144SOL    HW295330   3.012  10.610   2.020
31145SOL     OW95331  14.569   3.714  14.717
31145SOL    HW195332  14.480   3.734  14.687
31145SOL    HW295333  14.623   3.783  14.679
31146SOL     OW95334   2.517   5.090   9.745
31146SOL    HW195335   2.424   5.083   9.766
31146SOL    HW295336   2.558   5.120   9.826
31147SOL     OW95337  13.973   7.005   8.655
31147SOL    HW195338  13.990   6.970   8.742
31147SOL    HW295339  14.027   7.084   8.650
31148SOL     OW95340   0.278   8.546  13.045
31148SOL    HW195341   0.280   8.593  12.962
31148SOL    HW295342   0.368   8.547  13.076
31149SOL     OW95343  13.518   2.164   2.395
31149SOL    HW195344  13.519   2.259   2.398
31149SOL    HW295345  13.427   2.142   2.374
31150SOL     OW95346   0.675   4.501   3.005
31150SOL    HW195347   0.727   4.556   3.064
31150SOL    HW295348   0.687   4.541   2.918
31151SOL     OW95349  13.171   8.939  12.787
31151SOL    HW195350  13.218   9.017  12.816
31151SOL    HW295351  13.234   8.894  12.731
31152SOL     OW95352  14.014  10.147   4.849
31152SOL    HW195353  14.034  10.230   4.806
31152SOL    HW295354  13.978  10.172   4.934
31153SOL     OW95355   0.798  14.025  10.183
31153SOL    HW195356   0.744  14.044  10.106
31153SOL    HW295357   0.884  14.003  10.147
31154SOL     OW95358   9.168   7.235   8.028
31154SOL    HW195359   9.110   7.206   7.958
31154SOL    HW295360   9.110   7.252   8.102
31155SOL     OW95361  13.068   0.473   1.899
31155SOL    HW195362  13.033   0.509   1.980
31155SOL    HW295363  13.153   0.517   1.888
31156SOL     OW95364  12.090  13.013   7.435
31156SOL    HW195365  12.065  12.921   7.436
31156SOL    HW295366  12.158  13.020   7.502
31157SOL     OW95367  14.489   5.364   8.385
31157SOL    HW195368  14.499   5.406   8.470
31157SOL    HW295369  14.558   5.402   8.331
31158SOL     OW95370   0.107  12.337  10.029
31158SOL    HW195371   0.184  12.320  10.083
31158SOL    HW295372   0.136  12.319   9.940
31159SOL     OW95373   7.274   8.086   4.170
31159SOL    HW195374   7.194   8.078   4.118
31159SOL    HW295375   7.318   8.164   4.134
31160SOL     OW95376   9.778  11.924  12.197
31160SOL    HW195377   9.744  11.843  12.236
31160SOL    HW295378   9.835  11.961  12.264
31161SOL     OW95379   6.888   2.875  12.061
31161SOL    HW195380   6.863   2.908  11.974
31161SOL    HW295381   6.843   2.791  12.068
31162SOL     OW95382   8.786  13.516  14.463
31162SOL    HW195383   8.771  13.600  14.505
31162SOL    HW295384   8.744  13.452  14.521
31163SOL     OW95385  13.770  10.403   7.638
31163SOL    HW195386  13.718  10.432   7.562
31163SOL    HW295387  13.790  10.484   7.685
31164SOL     OW95388  10.209   3.586   4.660
31164SOL    HW195389  10.256   3.656   4.706
31164SOL    HW295390  10.258   3.575   4.578
31165SOL     OW95391   7.009   7.179   1.785
31165SOL    HW195392   6.931   7.127   1.766
31165SOL    HW295393   7.081   7.115   1.785
31166SOL     OW95394   6.605   5.252   2.912
31166SOL    HW195395   6.536   5.281   2.852
31166SOL    HW295396   6.560   5.232   2.994
31167SOL     OW95397   8.478   2.695   1.556
31167SOL    HW195398   8.458   2.789   1.560
31167SOL    HW295399   8.564   2.691   1.513
31168SOL     OW95400   2.359   1.472  11.282
31168SOL    HW195401   2.413   1.548  11.305
31168SOL    HW295402   2.314   1.450  11.364
31169SOL     OW95403  10.187  10.445  13.948
31169SOL    HW195404  10.105  10.454  13.997
31169SOL    HW295405  10.179  10.360  13.905
31170SOL     OW95406   1.614   5.456   1.692
31170SOL    HW195407   1.528   5.420   1.715
31170SOL    HW295408   1.642   5.406   1.615
31171SOL     OW95409  10.550  11.012  12.707
31171SOL    HW195410  10.487  10.971  12.647
31171SOL    HW295411  10.636  10.988  12.672
31172SOL     OW95412   2.947   1.615   3.714
31172SOL    HW195413   2.930   1.642   3.804
31172SOL    HW295414   2.988   1.691   3.674
31173SOL     OW95415   1.716  13.091   9.492
31173SOL    HW195416   1.684  13.154   9.428
31173SOL    HW295417   1.648  13.023   9.493
31174SOL     OW95418   6.103   0.588   7.693
31174SOL    HW195419   6.127   0.648   7.622
31174SOL    HW295420   6.131   0.632   7.773
31175SOL     OW95421   9.161   4.395  11.498
31175SOL    HW195422   9.219   4.363  11.429
31175SOL    HW295423   9.175   4.336  11.571
31176SOL     OW95424   0.254   5.024   2.076
31176SOL    HW195425   0.211   4.963   2.136
31176SOL    HW295426   0.275   5.100   2.130
31177SOL     OW95427  14.495   9.538   0.299
31177SOL    HW195428  14.514   9.619   0.346
31177SOL    HW295429  14.576   9.489   0.302
31178SOL     OW95430  10.776  13.458   3.478
31178SOL    HW195431  10.725  13.438   3.400
31178SOL    HW295432  10.802  13.373   3.512
31179SOL     OW95433   4.853   3.647   5.853
31179SOL    HW195434   4.857   3.741   5.870
31179SOL    HW295435   4.805   3.611   5.928
31180SOL     OW95436  13.632   3.051  10.901
31180SOL    HW195437  13.622   3.142  10.876
31180SOL    HW295438  13.567   3.004  10.849
31181SOL     OW95439   6.296   3.338   5.525
31181SOL    HW195440   6.223   3.399   5.512
31181SOL    HW295441   6.293   3.317   5.618
31182SOL     OW95442  10.387  11.195   8.684
31182SOL    HW195443  10.365  11.197   8.777
31182SOL    HW295444  10.386  11.287   8.658
31183SOL     OW95445   3.055   1.217   1.332
31183SOL    HW195446   3.014   1.131   1.335
31183SOL    HW295447   3.100   1.225   1.417
31184SOL     OW95448   7.174   0.686   3.373
31184SOL    HW195449   7.079   0.696   3.380
31184SOL    HW295450   7.192   0.598   3.405
31185SOL     OW95451   6.997   0.112   1.890
31185SOL    HW195452   7.069   0.049   1.889
31185SOL    HW295453   7.007   0.161   1.808
31186SOL     OW95454   7.307  13.379  10.761
31186SOL    HW195455   7.350  13.335  10.688
31186SOL    HW295456   7.354  13.462  10.770
31187SOL     OW95457   0.173   9.987   1.732
31187SOL    HW195458   0.263  10.002   1.705
31187SOL    HW295459   0.120  10.021   1.660
31188SOL     OW95460   0.188   1.286  12.751
31188SOL    HW195461   0.110   1.336  12.725
31188SOL    HW295462   0.261   1.345  12.735
31189SOL     OW95463   7.030  13.658  10.557
31189SOL    HW195464   6.944  13.666  10.515
31189SOL    HW295465   7.082  13.605  10.497
31190SOL     OW95466   1.202   9.766   0.762
31190SOL    HW195467   1.181   9.734   0.850
31190SOL    HW295468   1.117   9.770   0.718
31191SOL     OW95469   1.463  12.318   1.658
31191SOL    HW195470   1.519  12.240   1.665
31191SOL    HW295471   1.461  12.337   1.564
31192SOL     OW95472   4.226  10.905   2.347
31192SOL    HW195473   4.235  10.893   2.442
31192SOL    HW295474   4.310  10.874   2.312
31193SOL     OW95475   3.245  11.380  14.176
31193SOL    HW195476   3.157  11.359  14.145
31193SOL    HW295477   3.302  11.322  14.126
31194SOL     OW95478  14.039   3.933   2.880
31194SOL    HW195479  14.067   3.859   2.826
31194SOL    HW295480  14.100   4.004   2.857
31195SOL     OW95481   6.000  10.272   1.710
31195SOL    HW195482   5.932  10.205   1.722
31195SOL    HW295483   5.960  10.352   1.743
31196SOL     OW95484   5.530   7.342   9.019
31196SOL    HW195485   5.489   7.302   9.096
31196SOL    HW295486   5.621   7.353   9.043
31197SOL     OW95487   0.129   5.527   8.674
31197SOL    HW195488   0.131   5.620   8.649
31197SOL    HW295489   0.036   5.509   8.692
31198SOL     OW95490   5.913   3.835  10.643
31198SOL    HW195491   5.889   3.754  10.687
31198SOL    HW295492   5.836   3.858  10.591
31199SOL     OW95493   2.679   8.932   4.896
31199SOL    HW195494   2.624   8.974   4.830
31199SOL    HW295495   2.742   9.000   4.922
31200SOL     OW95496   2.826   8.717  13.548
31200SOL    HW195497   2.782   8.635  13.527
31200SOL    HW295498   2.762   8.785  13.527
31201SOL     OW95499   7.621   3.345   2.885
31201SOL    HW195500   7.616   3.435   2.852
31201SOL    HW295501   7.591   3.291   2.812
31202SOL     OW95502  10.171   1.367   1.046
31202SOL    HW195503  10.189   1.337   0.957
31202SOL    HW295504  10.096   1.426   1.037
31203SOL     OW95505  10.318   5.201  11.253
31203SOL    HW195506  10.278   5.249  11.180
31203SOL    HW295507  10.311   5.261  11.328
31204SOL     OW95508   2.257   8.018  10.456
31204SOL    HW195509   2.240   7.926  10.476
31204SOL    HW295510   2.347   8.018  10.423
31205SOL     OW95511   9.508   6.767   5.308
31205SOL    HW195512   9.486   6.858   5.325
31205SOL    HW295513   9.424   6.724   5.293
31206SOL     OW95514   5.253   8.722  11.796
31206SOL    HW195515   5.174   8.730  11.743
31206SOL    HW295516   5.269   8.810  11.830
31207SOL     OW95517   1.715   6.072  10.084
31207SOL    HW195518   1.806   6.070  10.113
31207SOL    HW295519   1.693   6.165  10.082
31208SOL     OW95520   7.280   3.578   3.651
31208SOL    HW195521   7.264   3.669   3.628
31208SOL    HW295522   7.312   3.538   3.570
31209SOL     OW95523  10.686  11.219  11.639
31209SOL    HW195524  10.744  11.179  11.575
31209SOL    HW295525  10.648  11.145  11.686
31210SOL     OW95526  14.696   7.176  14.654
31210SOL    HW195527  14.683   7.112  14.724
31210SOL    HW295528  14.636   7.247  14.673
31211SOL     OW95529   3.073   0.478  10.534
31211SOL    HW195530   3.014   0.553  10.527
31211SOL    HW295531   3.055   0.441  10.620
31212SOL     OW95532   5.381  10.962   9.882
31212SOL    HW195533   5.411  10.872   9.885
31212SOL    HW295534   5.449  11.011   9.929
31213SOL     OW95535  14.556  13.417   3.497
31213SOL    HW195536  14.529  13.412   3.405
31213SOL    HW295537  14.645  13.382   3.498
31214SOL     OW95538   9.806   7.928   2.286
31214SOL    HW195539   9.840   7.888   2.206
31214SOL    HW295540   9.716   7.954   2.263
31215SOL     OW95541  14.570   1.477   6.701
31215SOL    HW195542  14.490   1.528   6.715
31215SOL    HW295543  14.571   1.460   6.607
31216SOL     OW95544  12.507   8.913  14.823
31216SOL    HW195545  12.432   8.871  14.865
31216SOL    HW295546  12.513   8.999  14.864
31217SOL     OW95547  11.184   6.435  12.188
31217SOL    HW195548  11.230   6.450  12.271
31217SOL    HW295549  11.091   6.441  12.210
31218SOL     OW95550   3.434   5.315  10.717
31218SOL    HW195551   3.458   5.393  10.667
31218SOL    HW295552   3.483   5.243  10.676
31219SOL     OW95553   0.629   5.560  13.410
31219SOL    HW195554   0.675   5.586  13.490
31219SOL    HW295555   0.588   5.641  13.379
31220SOL     OW95556   9.858   1.910   3.977
31220SOL    HW195557   9.856   1.997   3.937
31220SOL    HW295558   9.773   1.872   3.955
31221SOL     OW95559   6.052  11.672  11.664
31221SOL    HW195560   6.070  11.651  11.573
31221SOL    HW295561   5.976  11.619  11.687
31222SOL     OW95562   4.478  12.090   4.067
31222SOL    HW195563   4.570  12.078   4.093
31222SOL    HW295564   4.476  12.175   4.024
31223SOL     OW95565   8.422  10.133   7.976
31223SOL    HW195566   8.472  10.089   7.907
31223SOL    HW295567   8.454  10.096   8.057
31224SOL     OW95568   7.559   5.771   9.867
31224SOL    HW195569   7.622   5.835   9.900
31224SOL    HW295570   7.474   5.804   9.898
31225SOL     OW95571  12.368   1.095   0.375
31225SOL    HW195572  12.432   1.159   0.343
31225SOL    HW295573  12.285   1.126   0.339
31226SOL     OW95574   5.121  11.464   1.654
31226SOL    HW195575   5.146  11.548   1.693
31226SOL    HW295576   5.203  11.413   1.652
31227SOL     OW95577  11.344   5.835   6.277
31227SOL    HW195578  11.295   5.899   6.225
31227SOL    HW295579  11.281   5.803   6.341
31228SOL     OW95580   6.691   2.745  13.059
31228SOL    HW195581   6.732   2.660  13.073
31228SOL    HW295582   6.705   2.792  13.142
31229SOL     OW95583  10.542  11.965   8.358
31229SOL    HW195584  10.598  12.037   8.386
31229SOL    HW295585  10.454  12.003   8.355
31230SOL     OW95586   8.851  13.683   7.699
31230SOL    HW195587   8.916  13.727   7.643
31230SOL    HW295588   8.883  13.593   7.707
31231SOL     OW95589   1.482  10.737  10.887
31231SOL    HW195590   1.559  10.746  10.830
31231SOL    HW295591   1.437  10.822  10.879
31232SOL     OW95592  11.321   7.282  10.332
31232SOL    HW195593  11.263   7.358  10.331
31232SOL    HW295594  11.403   7.315  10.295
31233SOL     OW95595   2.633   9.140  12.044
31233SOL    HW195596   2.597   9.136  11.955
31233SOL    HW295597   2.600   9.060  12.086
31234SOL     OW95598   8.929  13.094   8.377
31234SOL    HW195599   8.886  13.126   8.456
31234SOL    HW295600   8.860  13.049   8.329
31235SOL     OW95601   5.793   1.306   5.454
31235SOL    HW195602   5.763   1.397   5.461
31235SOL    HW295603   5.732   1.256   5.507
31236SOL     OW95604   9.933  10.541  11.236
31236SOL    HW195605   9.987  10.476  11.191
31236SOL    HW295606   9.964  10.541  11.326
31237SOL     OW95607   8.714   3.600  14.688
31237SOL    HW195608   8.740   3.582  14.598
31237SOL    HW295609   8.619   3.604  14.685
31238SOL     OW95610   8.935  13.231   9.961
31238SOL    HW195611   8.903  13.169  10.027
31238SOL    HW295612   8.891  13.204   9.880
31239SOL     OW95613   1.521   5.272   8.075
31239SOL    HW195614   1.532   5.221   7.994
31239SOL    HW295615   1.515   5.363   8.045
31240SOL     OW95616  12.536   5.113  12.808
31240SOL    HW195617  12.489   5.191  12.836
31240SOL    HW295618  12.619   5.116  12.856
31241SOL     OW95619   6.957  11.208  11.919
31241SOL    HW195620   6.878  11.223  11.973
31241SOL    HW295621   7.027  11.250  11.968
31242SOL     OW95622  14.781   4.545   4.714
31242SOL    HW195623  14.780   4.473   4.777
31242SOL    HW295624  14.753   4.506   4.632
31243SOL     OW95625   4.786   7.503  10.712
31243SOL    HW195626   4.830   7.438  10.659
31243SOL    HW295627   4.839   7.510  10.792
31244SOL     OW95628   7.021  10.136   9.185
31244SOL    HW195629   7.076  10.133   9.264
31244SOL    HW295630   6.932  10.124   9.217
31245SOL     OW95631   5.212   5.415   0.208
31245SOL    HW195632   5.284   5.382   0.155
31245SOL    HW295633   5.136   5.411   0.150
31246SOL     OW95634   1.707   7.328  14.201
31246SOL    HW195635   1.671   7.383  14.131
31246SOL    HW295636   1.711   7.240  14.163
31247SOL     OW95637  11.879   9.128  12.400
31247SOL    HW195638  11.953   9.151  12.344
31247SOL    HW295639  11.891   9.179  12.480
31248SOL     OW95640   9.462  11.530   9.368
31248SOL    HW195641   9.476  11.440   9.398
31248SOL    HW295642   9.518  11.583   9.425
31249SOL     OW95643   9.079   2.045  11.635
31249SOL    HW195644   9.037   2.016  11.716
31249SOL    HW295645   9.134   2.118  11.662
31250SOL     OW95646   7.156   8.998  10.950
31250SOL    HW195647   7.179   9.013  10.858
31250SOL    HW295648   7.231   9.033  10.999
31251SOL     OW95649   3.340   9.192   4.842
31251SOL    HW195650   3.290   9.138   4.903
31251SOL    HW295651   3.304   9.280   4.852
31252SOL     OW95652  10.313  11.634  11.076
31252SOL    HW195653  10.390  11.665  11.029
31252SOL    HW295654  10.332  11.542  11.094
31253SOL     OW95655   9.431   0.873  14.441
31253SOL    HW195656   9.435   0.968  14.430
31253SOL    HW295657   9.473   0.858  14.526
31254SOL     OW95658  11.653   5.019   8.291
31254SOL    HW195659  11.565   4.981   8.292
31254SOL    HW295660  11.689   4.998   8.377
31255SOL     OW95661  13.239   8.827   2.567
31255SOL    HW195662  13.205   8.737   2.567
31255SOL    HW295663  13.275   8.838   2.655
31256SOL     OW95664   9.584   0.249   5.228
31256SOL    HW195665   9.515   0.227   5.291
31256SOL    HW295666   9.548   0.224   5.143
31257SOL     OW95667  11.260   4.143   5.264
31257SOL    HW195668  11.187   4.083   5.277
31257SOL    HW295669  11.306   4.109   5.187
31258SOL     OW95670   0.010  12.106  13.221
31258SOL    HW195671   0.005  12.199  13.197
31258SOL    HW295672   0.073  12.069  13.159
31259SOL     OW95673   9.370  14.202   3.123
31259SOL    HW195674   9.445  14.164   3.076
31259SOL    HW295675   9.299  14.140   3.108
31260SOL     OW95676   2.059  13.539   0.827
31260SOL    HW195677   2.110  13.496   0.896
31260SOL    HW295678   1.983  13.576   0.874
31261SOL     OW95679   7.278  10.695   5.450
31261SOL    HW195680   7.288  10.698   5.545
31261SOL    HW295681   7.221  10.620   5.434
31262SOL     OW95682  10.574  13.933   6.278
31262SOL    HW195683  10.484  13.942   6.249
31262SOL    HW295684  10.568  13.883   6.360
31263SOL     OW95685  13.784  14.373  10.185
31263SOL    HW195686  13.863  14.422  10.207
31263SOL    HW295687  13.772  14.312  10.258
31264SOL     OW95688   6.248   9.880  14.581
31264SOL    HW195689   6.245   9.832  14.498
31264SOL    HW295690   6.261   9.971  14.555
31265SOL     OW95691  12.914   2.115   9.338
31265SOL    HW195692  12.919   2.038   9.282
31265SOL    HW295693  12.884   2.185   9.279
31266SOL     OW95694   0.652   6.253  11.290
31266SOL    HW195695   0.615   6.171  11.323
31266SOL    HW295696   0.577   6.300  11.253
31267SOL     OW95697   0.292   0.403  11.098
31267SOL    HW195698   0.380   0.372  11.117
31267SOL    HW295699   0.305   0.473  11.034
31268SOL     OW95700   8.011  14.368   4.754
31268SOL    HW195701   8.033  14.437   4.691
31268SOL    HW295702   8.096  14.330   4.778
31269SOL     OW95703   5.056   2.264  10.298
31269SOL    HW195704   5.075   2.188  10.353
31269SOL    HW295705   5.006   2.323  10.355
31270SOL     OW95706  13.046   0.175   0.608
31270SOL    HW195707  13.088   0.090   0.595
31270SOL    HW295708  12.961   0.166   0.565
31271SOL     OW95709   6.678   5.546   9.547
31271SOL    HW195710   6.591   5.516   9.573
31271SOL    HW295711   6.730   5.467   9.541
31272SOL     OW95712   4.553  14.530   8.931
31272SOL    HW195713   4.481  14.592   8.918
31272SOL    HW295714   4.625  14.583   8.964
31273SOL     OW95715   9.657   6.231   7.175
31273SOL    HW195716   9.613   6.303   7.221
31273SOL    HW295717   9.667   6.163   7.242
31274SOL     OW95718   3.385   1.556  13.019
31274SOL    HW195719   3.439   1.517  12.950
31274SOL    HW295720   3.327   1.616  12.973
31275SOL     OW95721   6.523  10.978   4.677
31275SOL    HW195722   6.548  11.048   4.617
31275SOL    HW295723   6.504  11.022   4.759
31276SOL     OW95724   1.564   7.639   5.326
31276SOL    HW195725   1.633   7.696   5.292
31276SOL    HW295726   1.486   7.665   5.278
31277SOL     OW95727  12.732  12.469   7.708
31277SOL    HW195728  12.707  12.378   7.693
31277SOL    HW295729  12.825  12.473   7.687
31278SOL     OW95730   8.171  11.871   8.850
31278SOL    HW195731   8.112  11.947   8.849
31278SOL    HW295732   8.225  11.881   8.772
31279SOL     OW95733   2.537   2.756  10.189
31279SOL    HW195734   2.508   2.716  10.271
31279SOL    HW295735   2.600   2.823  10.216
31280SOL     OW95736   0.825  11.929  11.732
31280SOL    HW195737   0.841  11.918  11.638
31280SOL    HW295738   0.730  11.939  11.739
31281SOL     OW95739  14.382   3.829   3.020
31281SOL    HW195740  14.444   3.868   2.959
31281SOL    HW295741  14.377   3.737   2.993
31282SOL     OW95742  11.044   1.392  12.281
31282SOL    HW195743  11.010   1.481  12.275
31282SOL    HW295744  10.993   1.352  12.351
31283SOL     OW95745  13.237  12.438   3.111
31283SOL    HW195746  13.296  12.377   3.067
31283SOL    HW295747  13.237  12.410   3.203
31284SOL     OW95748   8.892  11.424   1.860
31284SOL    HW195749   8.954  11.489   1.828
31284SOL    HW295750   8.902  11.349   1.800
31285SOL     OW95751  12.210   3.533   0.851
31285SOL    HW195752  12.182   3.487   0.930
31285SOL    HW295753  12.249   3.464   0.796
31286SOL     OW95754   9.935  11.228   8.890
31286SOL    HW195755   9.980  11.175   8.824
31286SOL    HW295756   9.929  11.315   8.851
31287SOL     OW95757   8.902   6.784  11.108
31287SOL    HW195758   8.815   6.790  11.146
31287SOL    HW295759   8.900   6.703  11.058
31288SOL     OW95760   3.531   2.103   5.805
31288SOL    HW195761   3.525   2.126   5.898
31288SOL    HW295762   3.585   2.024   5.803
31289SOL     OW95763   0.859   3.753  13.232
31289SOL    HW195764   0.786   3.713  13.278
31289SOL    HW295765   0.858   3.712  13.145
31290SOL     OW95766   6.409  14.149   8.134
31290SOL    HW195767   6.370  14.234   8.154
31290SOL    HW295768   6.412  14.103   8.218
31291SOL     OW95769   9.546   5.058  11.795
31291SOL    HW195770   9.558   5.094  11.883
31291SOL    HW295771   9.629   5.075  11.750
31292SOL     OW95772   1.949   1.338   0.340
31292SOL    HW195773   1.979   1.248   0.351
31292SOL    HW295774   2.001   1.372   0.267
31293SOL     OW95775   3.296   8.467   1.881
31293SOL    HW195776   3.287   8.410   1.957
31293SOL    HW295777   3.228   8.438   1.820
31294SOL     OW95778  12.596   8.806   2.324
31294SOL    HW195779  12.515   8.754   2.328
31294SOL    HW295780  12.572   8.883   2.272
31295SOL     OW95781   9.190   7.445   2.735
31295SOL    HW195782   9.206   7.486   2.650
31295SOL    HW295783   9.182   7.352   2.715
31296SOL     OW95784  11.936   5.573  10.242
31296SOL    HW195785  11.915   5.642  10.305
31296SOL    HW295786  11.896   5.494  10.278
31297SOL     OW95787  10.760  14.025  11.056
31297SOL    HW195788  10.723  14.079  10.986
31297SOL    HW295789  10.735  13.935  11.033
31298SOL     OW95790  13.511  12.480   8.469
31298SOL    HW195791  13.596  12.461   8.509
31298SOL    HW295792  13.510  12.427   8.390
31299SOL     OW95793   4.597   5.696  12.957
31299SOL    HW195794   4.513   5.720  12.995
31299SOL    HW295795   4.654   5.771  12.976
31300SOL     OW95796   2.501   1.957   9.691
31300SOL    HW195797   2.504   1.862   9.675
31300SOL    HW295798   2.449   1.991   9.619
31301SOL     OW95799  10.516   8.144   0.071
31301SOL    HW195800  10.575   8.146   0.147
31301SOL    HW295801  10.573   8.124  14.879
31302SOL     OW95802   4.485  12.774   3.285
31302SOL    HW195803   4.431  12.696   3.292
31302SOL    HW295804   4.536  12.775   3.365
31303SOL     OW95805   7.181  11.065   0.947
31303SOL    HW195806   7.254  11.004   0.957
31303SOL    HW295807   7.188  11.095   0.857
31304SOL     OW95808   8.702   1.118   0.034
31304SOL    HW195809   8.785   1.133   0.079
31304SOL    HW295810   8.724   1.064  14.841
31305SOL     OW95811   2.688   9.309  12.873
31305SOL    HW195812   2.600   9.274  12.858
31305SOL    HW295813   2.712   9.349  12.789
31306SOL     OW95814   3.530   2.042   8.695
31306SOL    HW195815   3.498   1.971   8.750
31306SOL    HW295816   3.571   1.998   8.621
31307SOL     OW95817  14.796  13.693   8.793
31307SOL    HW195818  14.733  13.752   8.834
31307SOL    HW295819  14.861  13.751   8.754
31308SOL     OW95820   5.833   1.758   1.926
31308SOL    HW195821   5.784   1.775   1.846
31308SOL    HW295822   5.867   1.844   1.951
31309SOL     OW95823   9.340   6.150   7.289
31309SOL    HW195824   9.296   6.216   7.342
31309SOL    HW295825   9.400   6.106   7.350
31310SOL     OW95826  10.941  11.937  12.233
31310SOL    HW195827  10.848  11.937  12.211
31310SOL    HW295828  10.966  11.845  12.234
31311SOL     OW95829   2.911  10.766   3.130
31311SOL    HW195830   2.952  10.842   3.172
31311SOL    HW295831   2.969  10.746   3.056
31312SOL     OW95832  14.406   3.059  13.933
31312SOL    HW195833  14.421   3.066  14.027
31312SOL    HW295834  14.478   3.005  13.900
31313SOL     OW95835   4.948   1.732   6.567
31313SOL    HW195836   4.894   1.679   6.508
31313SOL    HW295837   5.035   1.692   6.562
31314SOL     OW95838   5.974   2.491   5.598
31314SOL    HW195839   5.917   2.502   5.522
31314SOL    HW295840   6.001   2.580   5.621
31315SOL     OW95841   3.749  14.179  14.191
31315SOL    HW195842   3.787  14.117  14.253
31315SOL    HW295843   3.811  14.252  14.188
31316SOL     OW95844  10.238   5.264   4.355
31316SOL    HW195845  10.183   5.243   4.430
31316SOL    HW295846  10.252   5.358   4.360
31317SOL     OW95847  10.647   8.759  13.407
31317SOL    HW195848  10.625   8.702  13.481
31317SOL    HW295849  10.694   8.833  13.446
31318SOL     OW95850   0.269   5.820   2.919
31318SOL    HW195851   0.307   5.747   2.968
31318SOL    HW295852   0.343   5.879   2.903
31319SOL     OW95853  12.005   3.732   1.754
31319SOL    HW195854  12.005   3.709   1.661
31319SOL    HW295855  11.962   3.658   1.797
31320SOL     OW95856   1.711  11.328   7.306
31320SOL    HW195857   1.728  11.357   7.396
31320SOL    HW295858   1.705  11.409   7.256
31321SOL     OW95859   7.078   3.301   0.372
31321SOL    HW195860   7.031   3.383   0.356
31321SOL    HW295861   7.072   3.253   0.289
31322SOL     OW95862   2.195   2.016   5.330
31322SOL    HW195863   2.214   2.062   5.248
31322SOL    HW295864   2.244   1.934   5.323
31323SOL     OW95865  11.337   9.614  14.243
31323SOL    HW195866  11.309   9.559  14.316
31323SOL    HW295867  11.289   9.581  14.168
31324SOL     OW95868  10.667  13.392   3.242
31324SOL    HW195869  10.680  13.325   3.175
31324SOL    HW295870  10.582  13.431   3.220
31325SOL     OW95871   3.098   4.582  10.589
31325SOL    HW195872   3.037   4.650  10.616
31325SOL    HW295873   3.088   4.576  10.494
31326SOL     OW95874  13.993   1.859   6.283
31326SOL    HW195875  13.979   1.952   6.266
31326SOL    HW295876  13.916   1.831   6.333
31327SOL     OW95877   9.693   3.805  12.191
31327SOL    HW195878   9.780   3.768  12.205
31327SOL    HW295879   9.654   3.751  12.122
31328SOL     OW95880  14.189   5.173   6.867
31328SOL    HW195881  14.207   5.224   6.789
31328SOL    HW295882  14.228   5.223   6.938
31329SOL     OW95883  10.393   7.106  12.652
31329SOL    HW195884  10.328   7.151  12.705
31329SOL    HW295885  10.471   7.102  12.708
31330SOL     OW95886   0.631   4.967  11.570
31330SOL    HW195887   0.702   5.018  11.531
31330SOL    HW295888   0.552   4.998  11.526
31331SOL     OW95889   6.510   2.534   4.761
31331SOL    HW195890   6.509   2.612   4.706
31331SOL    HW295891   6.533   2.463   4.702
31332SOL     OW95892   6.779   7.044  14.136
31332SOL    HW195893   6.849   7.103  14.165
31332SOL    HW295894   6.818   6.994  14.064
31333SOL     OW95895  13.569  11.713  12.652
31333SOL    HW195896  13.522  11.644  12.606
31333SOL    HW295897  13.638  11.668  12.700
31334SOL     OW95898   6.793   2.496  13.117
31334SOL    HW195899   6.862   2.517  13.181
31334SOL    HW295900   6.773   2.404  13.133
31335SOL     OW95901   9.277   2.021   5.966
31335SOL    HW195902   9.288   1.985   5.878
31335SOL    HW295903   9.337   1.970   6.021
31336SOL     OW95904   3.831   8.780  13.051
31336SOL    HW195905   3.750   8.791  13.100
31336SOL    HW295906   3.885   8.724  13.106
31337SOL     OW95907   2.651   0.896   8.448
31337SOL    HW195908   2.597   0.974   8.461
31337SOL    HW295909   2.726   0.927   8.396
31338SOL     OW95910  10.101  10.543   4.394
31338SOL    HW195911  10.115  10.500   4.479
31338SOL    HW295912  10.006  10.546   4.384
31339SOL     OW95913   3.150   4.345   0.334
31339SOL    HW195914   3.176   4.287   0.406
31339SOL    HW295915   3.103   4.288   0.273
31340SOL     OW95916   3.021  12.123   8.057
31340SOL    HW195917   3.019  12.172   8.139
31340SOL    HW295918   2.948  12.158   8.006
31341SOL     OW95919  14.552  13.722  14.301
31341SOL    HW195920  14.461  13.748  14.286
31341SOL    HW295921  14.604  13.792  14.261
31342SOL     OW95922   1.251   8.301   3.536
31342SOL    HW195923   1.189   8.327   3.468
31342SOL    HW295924   1.201   8.245   3.595
31343SOL     OW95925   2.730   3.646   2.053
31343SOL    HW195926   2.794   3.605   1.996
31343SOL    HW295927   2.715   3.583   2.123
31344SOL     OW95928   2.737   7.121   3.068
31344SOL    HW195929   2.665   7.164   3.022
31344SOL    HW295930   2.816   7.165   3.034
31345SOL     OW95931   4.331   5.007   0.536
31345SOL    HW195932   4.384   5.080   0.504
31345SOL    HW295933   4.266   4.993   0.467
31346SOL     OW95934   5.646   0.728   9.254
31346SOL    HW195935   5.703   0.674   9.309
31346SOL    HW295936   5.677   0.713   9.165
31347SOL     OW95937   8.102   5.957   1.498
31347SOL    HW195938   8.151   5.888   1.542
31347SOL    HW295939   8.162   6.033   1.499
31348SOL     OW95940  10.403   4.214   2.540
31348SOL    HW195941  10.351   4.172   2.608
31348SOL    HW295942  10.424   4.300   2.577
31349SOL     OW95943   5.467  13.114  10.874
31349SOL    HW195944   5.529  13.128  10.802
31349SOL    HW295945   5.497  13.034  10.916
31350SOL     OW95946   0.600   5.036  14.418
31350SOL    HW195947   0.693   5.051  14.434
31350SOL    HW295948   0.556   5.066  14.498
31351SOL     OW95949   3.593  13.298   0.704
31351SOL    HW195950   3.673  13.284   0.756
31351SOL    HW295951   3.536  13.225   0.729
31352SOL     OW95952   1.903   8.227   4.166
31352SOL    HW195953   1.893   8.181   4.083
31352SOL    HW295954   1.813   8.245   4.194
31353SOL     OW95955   3.899  12.867   1.505
31353SOL    HW195956   3.911  12.939   1.566
31353SOL    HW295957   3.839  12.807   1.550
31354SOL     OW95958   9.653   9.217  12.833
31354SOL    HW195959   9.579   9.227  12.893
31354SOL    HW295960   9.613   9.190  12.750
31355SOL     OW95961   5.522  13.288   9.421
31355SOL    HW195962   5.530  13.244   9.336
31355SOL    HW295963   5.610  13.285   9.458
31356SOL     OW95964   9.821   7.191  14.418
31356SOL    HW195965   9.792   7.214  14.506
31356SOL    HW295966   9.758   7.232  14.359
31357SOL     OW95967  10.656   9.354   1.250
31357SOL    HW195968  10.632   9.331   1.160
31357SOL    HW295969  10.689   9.272   1.287
31358SOL     OW95970   7.344  13.808  13.056
31358SOL    HW195971   7.281  13.879  13.062
31358SOL    HW295972   7.319  13.748  13.126
31359SOL     OW95973  10.718  14.600   2.805
31359SOL    HW195974  10.797  14.653   2.801
31359SOL    HW295975  10.713  14.569   2.896
31360SOL     OW95976   3.440  12.842  14.002
31360SOL    HW195977   3.351  12.856  14.034
31360SOL    HW295978   3.435  12.759  13.954
31361SOL     OW95979   3.990   2.653   9.664
31361SOL    HW195980   3.941   2.665   9.745
31361SOL    HW295981   3.924   2.626   9.600
31362SOL     OW95982  12.245  12.131   2.173
31362SOL    HW195983  12.192  12.146   2.095
31362SOL    HW295984  12.212  12.192   2.238
31363SOL     OW95985   4.669   8.627   3.028
31363SOL    HW195986   4.620   8.545   3.024
31363SOL    HW295987   4.720   8.628   2.948
31364SOL     OW95988   0.068   7.854   6.073
31364SOL    HW195989   0.013   7.778   6.051
31364SOL    HW295990   0.005   7.925   6.089
31365SOL     OW95991  10.410  11.680   8.860
31365SOL    HW195992  10.429  11.762   8.814
31365SOL    HW295993  10.371  11.706   8.943
31366SOL     OW95994   1.610   6.746   4.020
31366SOL    HW195995   1.642   6.811   4.082
31366SOL    HW295996   1.516   6.760   4.016
31367SOL     OW95997   8.226   5.103   1.023
31367SOL    HW195998   8.247   5.092   1.116
31367SOL    HW295999   8.255   5.022   0.982
31368SOL     OW96000   1.789   3.439   5.372
31368SOL    HW196001   1.729   3.373   5.337
31368SOL    HW296002   1.840   3.392   5.438
31369SOL     OW96003   7.068   8.751   6.897
31369SOL    HW196004   7.106   8.828   6.940
31369SOL    HW296005   7.012   8.711   6.964
31370SOL     OW96006   1.044   2.279  13.480
31370SOL    HW196007   1.000   2.363  13.496
31370SOL    HW296008   1.067   2.281  13.388
31371SOL     OW96009  12.019   9.042  12.918
31371SOL    HW196010  11.925   9.032  12.905
31371SOL    HW296011  12.054   8.954  12.913
31372SOL     OW96012   3.780   7.665   8.224
31372SOL    HW196013   3.716   7.618   8.278
31372SOL    HW296014   3.853   7.682   8.283
31373SOL     OW96015   0.658  11.997  10.673
31373SOL    HW196016   0.675  12.089  10.651
31373SOL    HW296017   0.565  11.985  10.659
31374SOL     OW96018   6.957  10.607  10.121
31374SOL    HW196019   6.951  10.683  10.063
31374SOL    HW296020   6.887  10.549  10.092
31375SOL     OW96021   7.056   1.338  10.263
31375SOL    HW196022   7.060   1.288  10.345
31375SOL    HW296023   7.083   1.276  10.195
31376SOL     OW96024   2.126   2.560  13.744
31376SOL    HW196025   2.080   2.542  13.662
31376SOL    HW296026   2.056   2.567  13.810
31377SOL     OW96027   3.347   8.501   9.033
31377SOL    HW196028   3.294   8.440   9.085
31377SOL    HW296029   3.404   8.444   8.982
31378SOL     OW96030   1.719  14.343   9.481
31378SOL    HW196031   1.712  14.264   9.533
31378SOL    HW296032   1.671  14.410   9.530
31379SOL     OW96033   1.659   9.651   2.576
31379SOL    HW196034   1.639   9.719   2.640
31379SOL    HW296035   1.651   9.569   2.625
31380SOL     OW96036   3.599  10.758  10.811
31380SOL    HW196037   3.661  10.819  10.850
31380SOL    HW296038   3.537  10.738  10.881
31381SOL     OW96039   2.248   3.805   6.335
31381SOL    HW196040   2.255   3.722   6.288
31381SOL    HW296041   2.233   3.870   6.267
31382SOL     OW96042   9.778   1.933   8.294
31382SOL    HW196043   9.692   1.974   8.304
31382SOL    HW296044   9.803   1.908   8.383
31383SOL     OW96045   2.660   1.151   4.266
31383SOL    HW196046   2.736   1.097   4.286
31383SOL    HW296047   2.688   1.205   4.192
31384SOL     OW96048  10.602  14.461  14.031
31384SOL    HW196049  10.564  14.522  13.968
31384SOL    HW296050  10.543  14.464  14.106
31385SOL     OW96051  10.203   2.492  10.179
31385SOL    HW196052  10.287   2.484  10.132
31385SOL    HW296053  10.226   2.531  10.263
31386SOL     OW96054   5.146   0.514   2.102
31386SOL    HW196055   5.220   0.500   2.044
31386SOL    HW296056   5.121   0.606   2.087
31387SOL     OW96057   6.266   3.993   3.730
31387SOL    HW196058   6.314   3.970   3.650
31387SOL    HW296059   6.252   3.909   3.774
31388SOL     OW96060  12.434   9.361   1.851
31388SOL    HW196061  12.425   9.286   1.791
31388SOL    HW296062  12.503   9.335   1.911
31389SOL     OW96063   2.426  12.401   3.646
31389SOL    HW196064   2.521  12.398   3.638
31389SOL    HW296065   2.402  12.317   3.684
31390SOL     OW96066  10.386   6.272   5.016
31390SOL    HW196067  10.475   6.305   5.013
31390SOL    HW296068  10.363   6.274   5.109
31391SOL     OW96069   0.975   0.810  11.989
31391SOL    HW196070   0.947   0.804  12.080
31391SOL    HW296071   1.029   0.889  11.986
31392SOL     OW96072   9.989  12.804   9.324
31392SOL    HW196073  10.015  12.878   9.269
31392SOL    HW296074   9.928  12.754   9.269
31393SOL     OW96075  14.598   9.812   2.638
31393SOL    HW196076  14.681   9.852   2.663
31393SOL    HW296077  14.568   9.864   2.563
31394SOL     OW96078   0.791   3.657  12.350
31394SOL    HW196079   0.804   3.695  12.263
31394SOL    HW296080   0.800   3.730  12.411
31395SOL     OW96081   6.434  10.151   7.997
31395SOL    HW196082   6.438  10.153   7.902
31395SOL    HW296083   6.503  10.211   8.026
31396SOL     OW96084  13.639   8.844   8.700
31396SOL    HW196085  13.703   8.790   8.653
31396SOL    HW296086  13.649   8.931   8.660
31397SOL     OW96087   6.276   3.353   3.504
31397SOL    HW196088   6.344   3.410   3.540
31397SOL    HW296089   6.280   3.367   3.410
31398SOL     OW96090   5.576   0.014   8.711
31398SOL    HW196091   5.553   0.105   8.727
31398SOL    HW296092   5.615   0.013   8.624
31399SOL     OW96093   9.368   6.643   3.518
31399SOL    HW196094   9.382   6.549   3.515
31399SOL    HW296095   9.275   6.653   3.538
31400SOL     OW96096   3.181   3.683  14.823
31400SOL    HW196097   3.195   3.692  14.729
31400SOL    HW296098   3.203   3.769  14.859
31401SOL     OW96099   8.032   5.086  12.079
31401SOL    HW196100   8.071   5.153  12.135
31401SOL    HW296101   7.951   5.126  12.047
31402SOL     OW96102   6.317   5.961   0.501
31402SOL    HW196103   6.283   6.051   0.494
31402SOL    HW296104   6.378   5.963   0.575
31403SOL     OW96105   5.563   3.027   2.301
31403SOL    HW196106   5.492   3.085   2.326
31403SOL    HW296107   5.581   2.976   2.380
31404SOL     OW96108   5.089  14.802   5.666
31404SOL    HW196109   5.060  14.712   5.681
31404SOL    HW296110   5.090  14.812   5.571
31405SOL     OW96111  11.325   0.971   8.937
31405SOL    HW196112  11.419   0.984   8.950
31405SOL    HW296113  11.314   0.969   8.841
31406SOL     OW96114  11.076   7.246   8.771
31406SOL    HW196115  11.137   7.298   8.824
31406SOL    HW296116  11.019   7.203   8.836
31407SOL     OW96117  13.924  10.091  13.488
31407SOL    HW196118  13.855  10.103  13.553
31407SOL    HW296119  13.892  10.137  13.411
31408SOL     OW96120   5.691   4.643  10.445
31408SOL    HW196121   5.598   4.645  10.465
31408SOL    HW296122   5.734   4.639  10.531
31409SOL     OW96123   0.212   1.748   0.310
31409SOL    HW196124   0.191   1.819   0.250
31409SOL    HW296125   0.174   1.670   0.270
31410SOL     OW96126   9.716  11.293   5.478
31410SOL    HW196127   9.720  11.349   5.400
31410SOL    HW296128   9.632  11.316   5.519
31411SOL     OW96129   7.110   6.139  12.305
31411SOL    HW196130   7.029   6.096  12.276
31411SOL    HW296131   7.157   6.072  12.354
31412SOL     OW96132   6.689   6.342   7.677
31412SOL    HW196133   6.750   6.291   7.730
31412SOL    HW296134   6.714   6.323   7.587
31413SOL     OW96135  14.408  11.449   1.902
31413SOL    HW196136  14.393  11.397   1.981
31413SOL    HW296137  14.340  11.420   1.841
31414SOL     OW96138   1.264   5.735  11.926
31414SOL    HW196139   1.197   5.689  11.977
31414SOL    HW296140   1.234   5.825  11.923
31415SOL     OW96141   4.934   0.349   6.029
31415SOL    HW196142   4.966   0.376   5.944
31415SOL    HW296143   4.992   0.392   6.092
31416SOL     OW96144  13.188   0.764   7.300
31416SOL    HW196145  13.250   0.729   7.364
31416SOL    HW296146  13.242   0.809   7.236
31417SOL     OW96147   2.181   1.095   7.037
31417SOL    HW196148   2.202   1.118   7.127
31417SOL    HW296149   2.162   1.002   7.040
31418SOL     OW96150  10.380   4.812  12.121
31418SOL    HW196151  10.451   4.866  12.087
31418SOL    HW296152  10.352   4.760  12.045
31419SOL     OW96153  12.246   6.448   6.765
31419SOL    HW196154  12.276   6.485   6.682
31419SOL    HW296155  12.218   6.525   6.816
31420SOL     OW96156   4.013  14.090  10.354
31420SOL    HW196157   3.964  14.058  10.278
31420SOL    HW296158   4.097  14.117  10.319
31421SOL     OW96159   1.950  11.413   1.069
31421SOL    HW196160   1.938  11.428   1.163
31421SOL    HW296161   1.866  11.438   1.030
31422SOL     OW96162   7.498   1.121   0.966
31422SOL    HW196163   7.408   1.149   0.951
31422SOL    HW296164   7.541   1.130   0.881
31423SOL     OW96165   8.374  10.418   9.613
31423SOL    HW196166   8.294  10.404   9.562
31423SOL    HW296167   8.373  10.349   9.679
31424SOL     OW96168  12.052   8.101  10.952
31424SOL    HW196169  11.981   8.036  10.959
31424SOL    HW296170  12.013   8.174  10.905
31425SOL     OW96171   2.778   3.571  10.883
31425SOL    HW196172   2.777   3.515  10.961
31425SOL    HW296173   2.767   3.660  10.918
31426SOL     OW96174   5.552   9.611  13.952
31426SOL    HW196175   5.597   9.686  13.990
31426SOL    HW296176   5.577   9.611  13.860
31427SOL     OW96177   7.117   3.616  11.302
31427SOL    HW196178   7.166   3.699  11.303
31427SOL    HW296179   7.073   3.615  11.217
31428SOL     OW96180   9.816   2.680   5.351
31428SOL    HW196181   9.824   2.774   5.337
31428SOL    HW296182   9.722   2.664   5.357
31429SOL     OW96183   1.632   7.891   9.582
31429SOL    HW196184   1.594   7.976   9.559
31429SOL    HW296185   1.643   7.895   9.677
31430SOL     OW96186  10.128  14.180   5.970
31430SOL    HW196187  10.091  14.214   5.889
31430SOL    HW296188  10.215  14.220   5.976
31431SOL     OW96189  14.193   5.824   4.515
31431SOL    HW196190  14.164   5.778   4.593
31431SOL    HW296191  14.287   5.838   4.529
31432SOL     OW96192  14.035   4.803   5.236
31432SOL    HW196193  14.072   4.794   5.148
31432SOL    HW296194  14.109   4.792   5.295
31433SOL     OW96195   9.885  13.495  14.369
31433SOL    HW196196   9.865  13.474  14.277
31433SOL    HW296197   9.837  13.430  14.419
31434SOL     OW96198  10.279  12.379   0.975
31434SOL    HW196199  10.317  12.425   0.900
31434SOL    HW296200  10.319  12.293   0.973
31435SOL     OW96201   1.871   9.147   4.859
31435SOL    HW196202   1.930   9.076   4.884
31435SOL    HW296203   1.798   9.103   4.816
31436SOL     OW96204  13.445  14.265  11.782
31436SOL    HW196205  13.437  14.195  11.718
31436SOL    HW296206  13.355  14.289  11.804
31437SOL     OW96207   2.842   2.431   7.531
31437SOL    HW196208   2.929   2.455   7.563
31437SOL    HW296209   2.804   2.513   7.500
31438SOL     OW96210   9.497  11.257   8.872
31438SOL    HW196211   9.523  11.222   8.786
31438SOL    HW296212   9.480  11.350   8.855
31439SOL     OW96213   6.562   5.036   9.804
31439SOL    HW196214   6.585   5.077   9.721
31439SOL    HW296215   6.516   4.956   9.780
31440SOL     OW96216  12.995   4.650  12.610
31440SOL    HW196217  12.948   4.704  12.546
31440SOL    HW296218  12.950   4.565  12.606
31441SOL     OW96219   2.243   0.874   8.808
31441SOL    HW196220   2.317   0.922   8.847
31441SOL    HW296221   2.166   0.916   8.845
31442SOL     OW96222   6.414   6.888   8.871
31442SOL    HW196223   6.371   6.803   8.880
31442SOL    HW296224   6.497   6.868   8.826
31443SOL     OW96225  11.349  11.388   9.390
31443SOL    HW196226  11.412  11.362   9.457
31443SOL    HW296227  11.270  11.410   9.439
31444SOL     OW96228   3.821  13.673   9.630
31444SOL    HW196229   3.750  13.699   9.688
31444SOL    HW296230   3.860  13.596   9.673
31445SOL     OW96231   8.845   7.952   0.350
31445SOL    HW196232   8.937   7.928   0.358
31445SOL    HW296233   8.822   7.985   0.437
31446SOL     OW96234   4.494   9.107  12.084
31446SOL    HW196235   4.508   9.145  12.171
31446SOL    HW296236   4.400   9.090  12.080
31447SOL     OW96237   3.829  12.805   2.702
31447SOL    HW196238   3.799  12.728   2.654
31447SOL    HW296239   3.764  12.817   2.771
31448SOL     OW96240   2.921   3.469  14.077
31448SOL    HW196241   2.972   3.548  14.092
31448SOL    HW296242   2.833   3.500  14.058
31449SOL     OW96243  14.714  14.546   3.998
31449SOL    HW196244  14.668  14.562   4.081
31449SOL    HW296245  14.691  14.620   3.943
31450SOL     OW96246   1.524   7.200   0.124
31450SOL    HW196247   1.504   7.293   0.126
31450SOL    HW296248   1.536   7.175   0.215
31451SOL     OW96249  13.433   6.038   5.573
31451SOL    HW196250  13.406   5.946   5.571
31451SOL    HW296251  13.393   6.073   5.653
31452SOL     OW96252   4.875   1.279  11.636
31452SOL    HW196253   4.901   1.196  11.596
31452SOL    HW296254   4.784   1.266  11.663
31453SOL     OW96255   6.584   4.851   3.554
31453SOL    HW196256   6.624   4.937   3.562
31453SOL    HW296257   6.552   4.847   3.464
31454SOL     OW96258  10.610   7.067  12.814
31454SOL    HW196259  10.674   7.041  12.748
31454SOL    HW296260  10.659   7.067  12.896
31455SOL     OW96261   6.891   4.972   6.296
31455SOL    HW196262   6.959   4.909   6.320
31455SOL    HW296263   6.937   5.039   6.245
31456SOL     OW96264   4.633   6.254   3.888
31456SOL    HW196265   4.575   6.234   3.815
31456SOL    HW296266   4.602   6.338   3.921
31457SOL     OW96267   7.435   9.547  11.262
31457SOL    HW196268   7.519   9.586  11.286
31457SOL    HW296269   7.441   9.456  11.291
31458SOL     OW96270   5.405   0.040   6.444
31458SOL    HW196271   5.403   0.131   6.416
31458SOL    HW296272   5.313   0.012   6.440
31459SOL     OW96273   9.835   1.977  10.196
31459SOL    HW196274   9.757   2.027  10.173
31459SOL    HW296275   9.888   1.976  10.116
31460SOL     OW96276   6.990   6.341  10.822
31460SOL    HW196277   6.957   6.421  10.863
31460SOL    HW296278   7.052   6.371  10.756
31461SOL     OW96279   1.577   5.137   7.868
31461SOL    HW196280   1.525   5.070   7.822
31461SOL    HW296281   1.659   5.093   7.888
31462SOL     OW96282  11.070  13.482   0.747
31462SOL    HW196283  11.070  13.522   0.661
31462SOL    HW296284  11.137  13.414   0.742
31463SOL     OW96285   6.944   2.270   9.719
31463SOL    HW196286   6.931   2.214   9.795
31463SOL    HW296287   6.965   2.210   9.648
31464SOL     OW96288   6.791  10.654   8.579
31464SOL    HW196289   6.886  10.646   8.575
31464SOL    HW296290   6.769  10.714   8.507
31465SOL     OW96291   7.815   1.574   3.910
31465SOL    HW196292   7.732   1.551   3.952
31465SOL    HW296293   7.877   1.510   3.943
31466SOL     OW96294   1.667   0.614   2.567
31466SOL    HW196295   1.618   0.696   2.562
31466SOL    HW296296   1.718   0.622   2.648
31467SOL     OW96297  11.157   2.785   7.932
31467SOL    HW196298  11.125   2.833   7.855
31467SOL    HW296299  11.088   2.793   7.997
31468SOL     OW96300  12.986   5.660  13.767
31468SOL    HW196301  12.919   5.648  13.835
31468SOL    HW296302  13.051   5.717  13.809
31469SOL     OW96303   7.942   4.609   6.225
31469SOL    HW196304   7.895   4.556   6.160
31469SOL    HW296305   7.979   4.545   6.286
31470SOL     OW96306   9.790  12.086   4.197
31470SOL    HW196307   9.882  12.081   4.225
31470SOL    HW296308   9.741  12.096   4.278
31471SOL     OW96309  10.546   4.874   3.578
31471SOL    HW196310  10.614   4.863   3.511
31471SOL    HW296311  10.514   4.964   3.565
31472SOL     OW96312   1.418   1.279   7.448
31472SOL    HW196313   1.401   1.303   7.357
31472SOL    HW296314   1.401   1.185   7.451
31473SOL     OW96315   1.979   2.830   4.330
31473SOL    HW196316   2.030   2.835   4.411
31473SOL    HW296317   2.033   2.872   4.264
31474SOL     OW96318   0.681   2.525   3.487
31474SOL    HW196319   0.670   2.552   3.396
31474SOL    HW296320   0.727   2.597   3.529
31475SOL     OW96321   7.335   6.282   1.844
31475SOL    HW196322   7.275   6.271   1.770
31475SOL    HW296323   7.329   6.375   1.866
31476SOL     OW96324  14.199   6.322   4.002
31476SOL    HW196325  14.259   6.371   4.058
31476SOL    HW296326  14.217   6.230   4.023
31477SOL     OW96327   3.969   6.315   6.298
31477SOL    HW196328   3.876   6.339   6.292
31477SOL    HW296329   3.994   6.339   6.387
31478SOL     OW96330   4.229  13.075  10.534
31478SOL    HW196331   4.265  13.012  10.472
31478SOL    HW296332   4.267  13.159  10.507
31479SOL     OW96333  10.162  11.341   0.331
31479SOL    HW196334  10.137  11.432   0.347
31479SOL    HW296335  10.137  11.326   0.240
31480SOL     OW96336   0.784   5.743   3.783
31480SOL    HW196337   0.714   5.680   3.799
31480SOL    HW296338   0.855   5.715   3.841
31481SOL     OW96339  12.159   5.561  14.051
31481SOL    HW196340  12.254   5.573  14.061
31481SOL    HW296341  12.123   5.649  14.059
31482SOL     OW96342   6.226  13.704   8.905
31482SOL    HW196343   6.261  13.653   8.831
31482SOL    HW296344   6.301  13.756   8.935
31483SOL     OW96345  14.882  12.816  11.855
31483SOL    HW196346  14.875  12.906  11.887
31483SOL    HW296347   0.034  12.825  11.766
31484SOL     OW96348   7.065  14.760   9.606
31484SOL    HW196349   7.112  14.676   9.603
31484SOL    HW296350   7.080  14.794   9.694
31485SOL     OW96351   1.681   8.523   6.089
31485SOL    HW196352   1.750   8.463   6.059
31485SOL    HW296353   1.725   8.579   6.153
31486SOL     OW96354   7.207   5.767   2.197
31486SOL    HW196355   7.288   5.779   2.246
31486SOL    HW296356   7.138   5.784   2.261
31487SOL     OW96357   9.269   8.703   3.821
31487SOL    HW196358   9.333   8.711   3.892
31487SOL    HW296359   9.298   8.766   3.755
31488SOL     OW96360   2.379   6.650   7.927
31488SOL    HW196361   2.363   6.645   7.833
31488SOL    HW296362   2.473   6.636   7.937
31489SOL     OW96363  10.655   9.846  13.302
31489SOL    HW196364  10.671   9.869  13.210
31489SOL    HW296365  10.561   9.860  13.314
31490SOL     OW96366  10.333   1.482   7.582
31490SOL    HW196367  10.412   1.536   7.588
31490SOL    HW296368  10.286   1.500   7.664
31491SOL     OW96369  13.934   8.849   7.871
31491SOL    HW196370  13.869   8.870   7.805
31491SOL    HW296371  13.980   8.932   7.887
31492SOL     OW96372  12.779   1.304   7.865
31492SOL    HW196373  12.816   1.388   7.892
31492SOL    HW296374  12.728   1.324   7.787
31493SOL     OW96375  12.528   5.888  13.383
31493SOL    HW196376  12.560   5.970  13.420
31493SOL    HW296377  12.544   5.895  13.289
31494SOL     OW96378   3.575   0.763   4.002
31494SOL    HW196379   3.507   0.701   3.977
31494SOL    HW296380   3.657   0.718   3.983
31495SOL     OW96381   5.722   6.143   9.509
31495SOL    HW196382   5.787   6.180   9.569
31495SOL    HW296383   5.699   6.215   9.451
31496SOL     OW96384   2.472   6.010  13.954
31496SOL    HW196385   2.562   6.044  13.951
31496SOL    HW296386   2.421   6.082  13.990
31497SOL     OW96387   8.677  12.783   2.294
31497SOL    HW196388   8.603  12.723   2.285
31497SOL    HW296389   8.640  12.861   2.333
31498SOL     OW96390   4.970  10.628   5.749
31498SOL    HW196391   4.884  10.591   5.769
31498SOL    HW296392   4.970  10.642   5.654
31499SOL     OW96393   6.538  10.346   4.817
31499SOL    HW196394   6.542  10.433   4.857
31499SOL    HW296395   6.508  10.362   4.728
31500SOL     OW96396   6.797   9.054   9.660
31500SOL    HW196397   6.865   9.018   9.716
31500SOL    HW296398   6.800   9.149   9.675
31501SOL     OW96399   4.542  12.216   4.502
31501SOL    HW196400   4.532  12.121   4.512
31501SOL    HW296401   4.460  12.244   4.460
31502SOL     OW96402   9.939  10.469  10.904
31502SOL    HW196403  10.031  10.447  10.886
31502SOL    HW296404   9.910  10.514  10.824
31503SOL     OW96405   3.106   5.838   1.307
31503SOL    HW196406   3.160   5.818   1.230
31503SOL    HW296407   3.041   5.901   1.275
31504SOL     OW96408   1.154   5.506  11.126
31504SOL    HW196409   1.182   5.439  11.064
31504SOL    HW296410   1.108   5.458  11.195
31505SOL     OW96411   8.066   8.404   8.694
31505SOL    HW196412   8.080   8.458   8.617
31505SOL    HW296413   7.988   8.354   8.674
31506SOL     OW96414   0.289   8.728  12.824
31506SOL    HW196415   0.339   8.674  12.762
31506SOL    HW296416   0.245   8.793  12.770
31507SOL     OW96417  13.486   5.370  10.161
31507SOL    HW196418  13.575   5.391  10.135
31507SOL    HW296419  13.462   5.438  10.223
31508SOL     OW96420   4.334  10.037   0.264
31508SOL    HW196421   4.282  10.115   0.284
31508SOL    HW296422   4.268   9.970   0.243
31509SOL     OW96423   5.268   4.612  11.903
31509SOL    HW196424   5.241   4.551  11.971
31509SOL    HW296425   5.247   4.698  11.937
31510SOL     OW96426  11.780   7.594   9.166
31510SOL    HW196427  11.708   7.563   9.111
31510SOL    HW296428  11.738   7.624   9.246
31511SOL     OW96429   2.347  12.397   3.117
31511SOL    HW196430   2.267  12.352   3.090
31511SOL    HW296431   2.352  12.381   3.211
31512SOL     OW96432  12.486  14.750   2.098
31512SOL    HW196433  12.398  14.718   2.076
31512SOL    HW296434  12.480  14.775   2.190
31513SOL     OW96435   0.578  11.061   1.348
31513SOL    HW196436   0.584  10.986   1.407
31513SOL    HW296437   0.534  11.027   1.270
31514SOL     OW96438   9.368   3.787   4.625
31514SOL    HW196439   9.320   3.859   4.666
31514SOL    HW296440   9.442   3.829   4.582
31515SOL     OW96441   5.851  13.701  10.305
31515SOL    HW196442   5.945  13.700  10.285
31515SOL    HW296443   5.813  13.634  10.249
31516SOL     OW96444   9.234   2.941  12.267
31516SOL    HW196445   9.328   2.953  12.275
31516SOL    HW296446   9.210   2.890  12.345
31517SOL     OW96447   1.405   2.296  14.000
31517SOL    HW196448   1.466   2.329  13.934
31517SOL    HW296449   1.332   2.260  13.949
31518SOL     OW96450   1.738   6.084   2.360
31518SOL    HW196451   1.711   6.122   2.277
31518SOL    HW296452   1.704   5.994   2.358
31519SOL     OW96453  11.620  14.493   7.169
31519SOL    HW196454  11.528  14.515   7.186
31519SOL    HW296455  11.668  14.548   7.231
31520SOL     OW96456  11.781  11.216   5.201
31520SOL    HW196457  11.740  11.132   5.222
31520SOL    HW296458  11.849  11.227   5.267
31521SOL     OW96459   3.795  13.508   3.109
31521SOL    HW196460   3.778  13.589   3.158
31521SOL    HW296461   3.811  13.442   3.177
31522SOL     OW96462   2.047  11.084  13.326
31522SOL    HW196463   1.972  11.027  13.343
31522SOL    HW296464   2.123  11.026  13.333
31523SOL     OW96465   5.708   6.503   4.643
31523SOL    HW196466   5.694   6.408   4.637
31523SOL    HW296467   5.791   6.512   4.689
31524SOL     OW96468   0.650   3.858  14.439
31524SOL    HW196469   0.585   3.789  14.424
31524SOL    HW296470   0.618   3.932  14.387
31525SOL     OW96471   7.716   9.770  13.215
31525SOL    HW196472   7.729   9.841  13.279
31525SOL    HW296473   7.709   9.691  13.269
31526SOL     OW96474   2.269   8.916  10.611
31526SOL    HW196475   2.203   8.871  10.558
31526SOL    HW296476   2.332   8.848  10.635
31527SOL     OW96477   0.778  14.790  11.364
31527SOL    HW196478   0.835  14.864  11.341
31527SOL    HW296479   0.729  14.771  11.285
31528SOL     OW96480  11.363   1.601   1.121
31528SOL    HW196481  11.311   1.594   1.201
31528SOL    HW296482  11.300   1.631   1.055
31529SOL     OW96483   8.914   4.289   6.222
31529SOL    HW196484   8.824   4.275   6.194
31529SOL    HW296485   8.914   4.270   6.316
31530SOL     OW96486  11.509   4.631   4.213
31530SOL    HW196487  11.467   4.620   4.128
31530SOL    HW296488  11.597   4.662   4.192
31531SOL     OW96489   5.714  12.231   5.366
31531SOL    HW196490   5.703  12.170   5.439
31531SOL    HW296491   5.721  12.317   5.407
31532SOL     OW96492  13.243   0.043   3.282
31532SOL    HW196493  13.292   0.058   3.362
31532SOL    HW296494  13.306   0.061   3.212
31533SOL     OW96495  11.856   5.884   5.086
31533SOL    HW196496  11.823   5.868   5.175
31533SOL    HW296497  11.908   5.965   5.094
31534SOL     OW96498   0.135  14.684   9.452
31534SOL    HW196499   0.070  14.711   9.518
31534SOL    HW296500   0.162  14.766   9.411
31535SOL     OW96501   8.855   2.575  14.581
31535SOL    HW196502   8.875   2.606  14.670
31535SOL    HW296503   8.766   2.606  14.565
31536SOL     OW96504   2.841  14.577   8.262
31536SOL    HW196505   2.773  14.567   8.329
31536SOL    HW296506   2.887  14.493   8.262
31537SOL     OW96507   0.281   0.929   0.454
31537SOL    HW196508   0.220   0.879   0.508
31537SOL    HW296509   0.336   0.977   0.516
31538SOL     OW96510   2.498   5.315   1.216
31538SOL    HW196511   2.568   5.378   1.200
31538SOL    HW296512   2.452   5.348   1.294
31539SOL     OW96513  14.180   2.151  10.898
31539SOL    HW196514  14.224   2.205  10.965
31539SOL    HW296515  14.107   2.205  10.868
31540SOL     OW96516   8.943   6.519   1.049
31540SOL    HW196517   8.874   6.568   1.093
31540SOL    HW296518   8.896   6.464   0.986
31541SOL     OW96519  10.341   1.556  14.516
31541SOL    HW196520  10.329   1.511  14.599
31541SOL    HW296521  10.431   1.536  14.490
31542SOL     OW96522   4.950   1.108   5.962
31542SOL    HW196523   4.904   1.087   5.881
31542SOL    HW296524   4.900   1.180   6.000
31543SOL     OW96525   1.456   9.642   7.240
31543SOL    HW196526   1.519   9.634   7.169
31543SOL    HW296527   1.502   9.607   7.317
31544SOL     OW96528   6.379   5.220  13.179
31544SOL    HW196529   6.408   5.165  13.106
31544SOL    HW296530   6.454   5.277  13.197
31545SOL     OW96531   5.009  10.151   4.913
31545SOL    HW196532   5.027  10.245   4.909
31545SOL    HW296533   5.066  10.119   4.982
31546SOL     OW96534  13.606   2.781   6.147
31546SOL    HW196535  13.595   2.767   6.053
31546SOL    HW296536  13.700   2.795   6.158
31547SOL     OW96537  12.039   3.145   9.296
31547SOL    HW196538  12.091   3.187   9.228
31547SOL    HW296539  11.954   3.190   9.293
31548SOL     OW96540  13.616  11.004   5.843
31548SOL    HW196541  13.582  10.995   5.932
31548SOL    HW296542  13.538  11.014   5.788
31549SOL     OW96543   3.686   9.752  11.919
31549SOL    HW196544   3.689   9.750  12.015
31549SOL    HW296545   3.775   9.728  11.892
31550SOL     OW96546   1.772   4.627  11.624
31550SOL    HW196547   1.717   4.692  11.581
31550SOL    HW296548   1.836   4.677  11.673
31551SOL     OW96549   2.631   9.848   2.549
31551SOL    HW196550   2.616   9.903   2.626
31551SOL    HW296551   2.710   9.798   2.570
31552SOL     OW96552   5.868   0.837  12.696
31552SOL    HW196553   5.894   0.755  12.653
31552SOL    HW296554   5.927   0.903  12.659
31553SOL     OW96555   4.487  10.969   4.419
31553SOL    HW196556   4.424  10.896   4.417
31553SOL    HW296557   4.545  10.951   4.345
31554SOL     OW96558   7.993   9.023  10.686
31554SOL    HW196559   8.086   9.004  10.674
31554SOL    HW296560   7.992   9.108  10.731
31555SOL     OW96561   5.597   6.780  12.361
31555SOL    HW196562   5.651   6.715  12.407
31555SOL    HW296563   5.660   6.840  12.321
31556SOL     OW96564   5.863   6.854   1.569
31556SOL    HW196565   5.790   6.793   1.581
31556SOL    HW296566   5.822   6.934   1.536
31557SOL     OW96567   9.777   2.382   7.149
31557SOL    HW196568   9.726   2.301   7.158
31557SOL    HW296569   9.787   2.394   7.055
31558SOL     OW96570  14.118   2.756   0.323
31558SOL    HW196571  14.141   2.781   0.233
31558SOL    HW296572  14.069   2.832   0.356
31559SOL     OW96573   2.154  10.006   0.034
31559SOL    HW196574   2.169  10.086   0.085
31559SOL    HW296575   2.167   9.935   0.097
31560SOL     OW96576  13.060  12.991   7.282
31560SOL    HW196577  13.104  12.970   7.364
31560SOL    HW296578  12.969  13.008   7.307
31561SOL     OW96579   2.547   6.269  11.684
31561SOL    HW196580   2.542   6.359  11.652
31561SOL    HW296581   2.605   6.225  11.622
31562SOL     OW96582   8.729   1.780  14.154
31562SOL    HW196583   8.661   1.714  14.137
31562SOL    HW296584   8.764   1.801  14.068
31563SOL     OW96585  12.193   9.798   1.063
31563SOL    HW196586  12.184   9.759   1.150
31563SOL    HW296587  12.113   9.771   1.017
31564SOL     OW96588  12.652   9.475   6.593
31564SOL    HW196589  12.608   9.473   6.508
31564SOL    HW296590  12.675   9.384   6.611
31565SOL     OW96591   1.660   4.501   0.485
31565SOL    HW196592   1.734   4.536   0.436
31565SOL    HW296593   1.586   4.557   0.461
31566SOL     OW96594   5.332   5.756   9.243
31566SOL    HW196595   5.319   5.727   9.333
31566SOL    HW296596   5.264   5.823   9.229
31567SOL     OW96597  14.854  12.226   2.798
31567SOL    HW196598  14.858  12.158   2.865
31567SOL    HW296599   0.063  12.247   2.779
31568SOL     OW96600   2.231   2.085   8.422
31568SOL    HW196601   2.190   2.150   8.365
31568SOL    HW296602   2.277   2.026   8.361
31569SOL     OW96603   1.232  14.520  10.036
31569SOL    HW196604   1.211  14.505  10.129
31569SOL    HW296605   1.282  14.443  10.010
31570SOL     OW96606   0.295   1.071   7.203
31570SOL    HW196607   0.296   1.159   7.164
31570SOL    HW296608   0.350   1.019   7.145
31571SOL     OW96609  11.468   4.461  13.392
31571SOL    HW196610  11.420   4.384  13.361
31571SOL    HW296611  11.501   4.436  13.478
31572SOL     OW96612  12.490   0.664  12.518
31572SOL    HW196613  12.406   0.641  12.558
31572SOL    HW296614  12.472   0.743  12.468
31573SOL     OW96615  14.405  12.915   9.438
31573SOL    HW196616  14.405  12.946   9.348
31573SOL    HW296617  14.459  12.979   9.485
31574SOL     OW96618  10.205   8.221   9.557
31574SOL    HW196619  10.178   8.134   9.528
31574SOL    HW296620  10.228   8.209   9.649
31575SOL     OW96621   3.398   6.652   3.556
31575SOL    HW196622   3.460   6.703   3.608
31575SOL    HW296623   3.313   6.692   3.574
31576SOL     OW96624   2.788  10.290   1.215
31576SOL    HW196625   2.727  10.328   1.278
31576SOL    HW296626   2.863  10.262   1.268
31577SOL     OW96627   8.198   5.527   4.934
31577SOL    HW196628   8.158   5.612   4.919
31577SOL    HW296629   8.199   5.518   5.030
31578SOL     OW96630   6.357   3.354   6.922
31578SOL    HW196631   6.368   3.320   7.011
31578SOL    HW296632   6.446   3.380   6.895
31579SOL     OW96633   5.994  13.604  13.023
31579SOL    HW196634   6.079  13.639  13.050
31579SOL    HW296635   5.970  13.657  12.946
31580SOL     OW96636  12.935   1.689  10.412
31580SOL    HW196637  12.911   1.720  10.500
31580SOL    HW296638  13.014   1.637  10.426
31581SOL     OW96639   6.472   2.674   2.143
31581SOL    HW196640   6.537   2.699   2.077
31581SOL    HW296641   6.523   2.654   2.221
31582SOL     OW96642  11.497   1.928   9.957
31582SOL    HW196643  11.501   1.895  10.047
31582SOL    HW296644  11.421   1.986   9.956
31583SOL     OW96645   3.650   7.228   8.344
31583SOL    HW196646   3.700   7.190   8.272
31583SOL    HW296647   3.712   7.232   8.417
31584SOL     OW96648   1.788  11.080  12.029
31584SOL    HW196649   1.883  11.065  12.029
31584SOL    HW296650   1.769  11.116  11.942
31585SOL     OW96651   6.660   0.400  13.885
31585SOL    HW196652   6.753   0.379  13.884
31585SOL    HW296653   6.619   0.333  13.830
31586SOL     OW96654   2.957  14.319   5.560
31586SOL    HW196655   2.925  14.258   5.493
31586SOL    HW296656   2.897  14.394   5.555
31587SOL     OW96657  11.233  10.007   3.896
31587SOL    HW196658  11.181  10.060   3.957
31587SOL    HW296659  11.311   9.985   3.945
31588SOL     OW96660   1.635   1.146  13.899
31588SOL    HW196661   1.635   1.178  13.989
31588SOL    HW296662   1.728   1.143  13.874
31589SOL     OW96663   4.091   4.105   6.643
31589SOL    HW196664   4.074   4.188   6.598
31589SOL    HW296665   4.184   4.089   6.628
31590SOL     OW96666   7.362   8.350   5.201
31590SOL    HW196667   7.438   8.393   5.160
31590SOL    HW296668   7.344   8.403   5.279
31591SOL     OW96669   2.874   3.978   1.139
31591SOL    HW196670   2.924   3.918   1.194
31591SOL    HW296671   2.938   4.009   1.074
31592SOL     OW96672  10.171  10.879  12.641
31592SOL    HW196673  10.153  10.959  12.592
31592SOL    HW296674  10.122  10.889  12.723
31593SOL     OW96675   7.847   6.003  11.877
31593SOL    HW196676   7.915   5.936  11.869
31593SOL    HW296677   7.894   6.082  11.902
31594SOL     OW96678  12.903   5.805   0.099
31594SOL    HW196679  12.849   5.768   0.029
31594SOL    HW296680  12.841   5.823   0.170
31595SOL     OW96681  11.331  11.783   5.244
31595SOL    HW196682  11.318  11.725   5.169
31595SOL    HW296683  11.298  11.868   5.214
31596SOL     OW96684  11.416   6.083   9.923
31596SOL    HW196685  11.417   6.000   9.876
31596SOL    HW296686  11.508   6.109   9.930
31597SOL     OW96687   2.729   8.312  11.768
31597SOL    HW196688   2.761   8.353  11.848
31597SOL    HW296689   2.635   8.331  11.768
31598SOL     OW96690   6.060   9.815  11.517
31598SOL    HW196691   5.991   9.773  11.568
31598SOL    HW296692   6.123   9.745  11.499
31599SOL     OW96693   0.062  12.184   8.057
31599SOL    HW196694  14.870  12.244   8.063
31599SOL    HW296695   0.077  12.156   8.147
31600SOL     OW96696   1.877   9.568   6.416
31600SOL    HW196697   1.848   9.504   6.481
31600SOL    HW296698   1.831   9.649   6.441
31601SOL     OW96699   5.406   7.723  10.099
31601SOL    HW196700   5.490   7.770  10.096
31601SOL    HW296701   5.396   7.688  10.011
31602SOL     OW96702   7.183   3.133  13.025
31602SOL    HW196703   7.120   3.166  12.962
31602SOL    HW296704   7.252   3.200  13.028
31603SOL     OW96705   6.489  11.898  13.512
31603SOL    HW196706   6.511  11.898  13.605
31603SOL    HW296707   6.394  11.888  13.511
31604SOL     OW96708   5.329   2.737   9.319
31604SOL    HW196709   5.239   2.707   9.333
31604SOL    HW296710   5.380   2.692   9.385
31605SOL     OW96711   9.447  12.329   4.675
31605SOL    HW196712   9.459  12.325   4.580
31605SOL    HW296713   9.394  12.252   4.696
31606SOL     OW96714   9.455   8.482  11.267
31606SOL    HW196715   9.385   8.539  11.236
31606SOL    HW296716   9.412   8.420  11.326
31607SOL     OW96717   5.692   6.775  14.687
31607SOL    HW196718   5.669   6.684  14.668
31607SOL    HW296719   5.677   6.822  14.605
31608SOL     OW96720   8.745  12.429   1.273
31608SOL    HW196721   8.774  12.502   1.329
31608SOL    HW296722   8.816  12.365   1.277
31609SOL     OW96723  12.267   6.863   3.569
31609SOL    HW196724  12.260   6.879   3.663
31609SOL    HW296725  12.351   6.904   3.544
31610SOL     OW96726   5.557   1.379  12.186
31610SOL    HW196727   5.562   1.462  12.233
31610SOL    HW296728   5.502   1.397  12.110
31611SOL     OW96729   4.093  13.138   2.577
31611SOL    HW196730   4.012  13.098   2.547
31611SOL    HW296731   4.102  13.109   2.668
31612SOL     OW96732   1.352  11.193   5.457
31612SOL    HW196733   1.388  11.106   5.475
31612SOL    HW296734   1.257  11.181   5.456
31613SOL     OW96735   0.945  13.902   2.622
31613SOL    HW196736   0.933  13.821   2.671
31613SOL    HW296737   0.875  13.900   2.556
31614SOL     OW96738   8.582   2.168   0.943
31614SOL    HW196739   8.572   2.263   0.945
31614SOL    HW296740   8.519   2.135   1.007
31615SOL     OW96741   6.769  12.345   6.557
31615SOL    HW196742   6.740  12.256   6.573
31615SOL    HW296743   6.746  12.392   6.637
31616SOL     OW96744   1.141  11.314  13.945
31616SOL    HW196745   1.235  11.324  13.931
31616SOL    HW296746   1.104  11.400  13.923
31617SOL     OW96747  10.525   3.731  14.839
31617SOL    HW196748  10.438   3.692  14.846
31617SOL    HW296749  10.567   3.684  14.767
31618SOL     OW96750  12.424  14.711   2.667
31618SOL    HW196751  12.435  14.616   2.665
31618SOL    HW296752  12.332  14.725   2.688
31619SOL     OW96753   9.533   5.414   3.850
31619SOL    HW196754   9.604   5.419   3.913
31619SOL    HW296755   9.482   5.494   3.864
31620SOL     OW96756   2.724  12.832  12.758
31620SOL    HW196757   2.779  12.794  12.690
31620SOL    HW296758   2.775  12.906  12.791
31621SOL     OW96759  10.496   8.665   6.816
31621SOL    HW196760  10.488   8.714   6.734
31621SOL    HW296761  10.539   8.726   6.876
31622SOL     OW96762   1.711   8.153  13.771
31622SOL    HW196763   1.641   8.088  13.767
31622SOL    HW296764   1.772   8.127  13.702
31623SOL     OW96765  13.242   7.800  14.115
31623SOL    HW196766  13.243   7.793  14.019
31623SOL    HW296767  13.150   7.787  14.138
31624SOL     OW96768   9.832  14.528  12.840
31624SOL    HW196769   9.779  14.550  12.764
31624SOL    HW296770   9.887  14.605  12.853
31625SOL     OW96771   3.761  11.210   1.539
31625SOL    HW196772   3.786  11.278   1.602
31625SOL    HW296773   3.680  11.242   1.499
31626SOL     OW96774  10.960   2.193  14.404
31626SOL    HW196775  10.956   2.202  14.309
31626SOL    HW296776  11.042   2.148  14.420
31627SOL     OW96777   0.266  11.668   4.831
31627SOL    HW196778   0.296  11.734   4.768
31627SOL    HW296779   0.318  11.683   4.909
31628SOL     OW96780  10.874  11.949   2.919
31628SOL    HW196781  10.786  11.920   2.893
31628SOL    HW296782  10.860  12.000   3.000
31629SOL     OW96783   9.859   2.752  12.749
31629SOL    HW196784   9.917   2.683  12.783
31629SOL    HW296785   9.897   2.833  12.784
31630SOL     OW96786   0.182  10.266   8.771
31630SOL    HW196787   0.266  10.222   8.757
31630SOL    HW296788   0.175  10.329   8.699
31631SOL     OW96789  13.438   0.513   1.049
31631SOL    HW196790  13.410   0.475   0.966
31631SOL    HW296791  13.520   0.559   1.029
31632SOL     OW96792   7.641   6.842   6.474
31632SOL    HW196793   7.691   6.924   6.481
31632SOL    HW296794   7.707   6.774   6.488
31633SOL     OW96795   6.249  11.807  14.567
31633SOL    HW196796   6.159  11.832  14.584
31633SOL    HW296797   6.281  11.871  14.504
31634SOL     OW96798   9.474   2.880   4.640
31634SOL    HW196799   9.543   2.856   4.579
31634SOL    HW296800   9.416   2.937   4.590
31635SOL     OW96801   5.436   7.222  10.818
31635SOL    HW196802   5.440   7.313  10.845
31635SOL    HW296803   5.527   7.192  10.818
31636SOL     OW96804   2.578   3.758  11.114
31636SOL    HW196805   2.559   3.813  11.038
31636SOL    HW296806   2.637   3.811  11.168
31637SOL     OW96807   9.210  14.543  13.879
31637SOL    HW196808   9.244  14.544  13.789
31637SOL    HW296809   9.115  14.543  13.869
31638SOL     OW96810  12.109   3.570  12.139
31638SOL    HW196811  12.171   3.636  12.107
31638SOL    HW296812  12.023   3.611  12.131
31639SOL     OW96813  13.658   6.887  11.562
31639SOL    HW196814  13.618   6.802  11.543
31639SOL    HW296815  13.604   6.924  11.632
31640SOL     OW96816  13.392  10.387   5.268
31640SOL    HW196817  13.475  10.389   5.221
31640SOL    HW296818  13.407  10.442   5.345
31641SOL     OW96819   3.244   0.045   7.486
31641SOL    HW196820   3.301  14.863   7.444
31641SOL    HW296821   3.161   0.038   7.439
31642SOL     OW96822   6.038   7.076   2.016
31642SOL    HW196823   6.030   6.984   1.991
31642SOL    HW296824   6.113   7.079   2.074
31643SOL     OW96825  12.608   6.283  13.032
31643SOL    HW196826  12.541   6.223  13.065
31643SOL    HW296827  12.653   6.313  13.111
31644SOL     OW96828   8.622  13.748  14.552
31644SOL    HW196829   8.620  13.714  14.462
31644SOL    HW296830   8.555  13.697  14.598
31645SOL     OW96831  13.927   1.443   9.270
31645SOL    HW196832  13.971   1.525   9.292
31645SOL    HW296833  13.879   1.463   9.190
31646SOL     OW96834   8.082   4.522   8.105
31646SOL    HW196835   8.058   4.457   8.172
31646SOL    HW296836   8.010   4.584   8.105
31647SOL     OW96837  10.260  13.770  14.169
31647SOL    HW196838  10.214  13.709  14.226
31647SOL    HW296839  10.349  13.734  14.163
31648SOL     OW96840  12.559   3.674  11.012
31648SOL    HW196841  12.602   3.736  10.953
31648SOL    HW296842  12.559   3.719  11.097
31649SOL     OW96843   6.587  13.968   4.147
31649SOL    HW196844   6.557  14.023   4.074
31649SOL    HW296845   6.512  13.914   4.169
31650SOL     OW96846   2.142   4.007   0.242
31650SOL    HW196847   2.216   3.953   0.214
31650SOL    HW296848   2.066   3.950   0.235
31651SOL     OW96849   5.311   5.259   2.569
31651SOL    HW196850   5.311   5.350   2.541
31651SOL    HW296851   5.219   5.233   2.569
31652SOL     OW96852   6.272   8.277   5.739
31652SOL    HW196853   6.282   8.341   5.669
31652SOL    HW296854   6.199   8.309   5.792
31653SOL     OW96855  13.521   5.004   7.464
31653SOL    HW196856  13.539   5.093   7.493
31653SOL    HW296857  13.523   5.009   7.368
31654SOL     OW96858   5.844   3.553   0.281
31654SOL    HW196859   5.822   3.639   0.315
31654SOL    HW296860   5.770   3.498   0.306
31655SOL     OW96861   2.714   1.472   5.827
31655SOL    HW196862   2.670   1.555   5.846
31655SOL    HW296863   2.804   1.485   5.857
31656SOL     OW96864  11.463  11.672  10.688
31656SOL    HW196865  11.535  11.720  10.647
31656SOL    HW296866  11.403  11.651  10.617
31657SOL     OW96867  12.259   5.244   7.594
31657SOL    HW196868  12.181   5.257   7.648
31657SOL    HW296869  12.255   5.151   7.570
31658SOL     OW96870   2.250  10.010   2.771
31658SOL    HW196871   2.229   9.917   2.779
31658SOL    HW296872   2.172  10.055   2.803
31659SOL     OW96873   0.752  14.792  10.514
31659SOL    HW196874   0.660  14.819  10.511
31659SOL    HW296875   0.791  14.831  10.435
31660SOL     OW96876  12.758   7.791   7.790
31660SOL    HW196877  12.738   7.720   7.851
31660SOL    HW296878  12.790   7.862   7.847
31661SOL     OW96879   1.045  12.102   3.436
31661SOL    HW196880   1.118  12.040   3.429
31661SOL    HW296881   0.968  12.048   3.454
31662SOL     OW96882  14.770  11.082   4.004
31662SOL    HW196883  14.796  11.159   4.056
31662SOL    HW296884  14.801  11.102   3.916
31663SOL     OW96885   2.940   9.447   5.359
31663SOL    HW196886   2.982   9.426   5.442
31663SOL    HW296887   2.952   9.542   5.349
31664SOL     OW96888   8.776  12.152   2.716
31664SOL    HW196889   8.842  12.119   2.777
31664SOL    HW296890   8.717  12.203   2.770
31665SOL     OW96891   4.365   6.920   4.092
31665SOL    HW196892   4.278   6.958   4.078
31665SOL    HW296893   4.351   6.855   4.160
31666SOL     OW96894   4.575   5.447   6.573
31666SOL    HW196895   4.550   5.377   6.632
31666SOL    HW296896   4.625   5.508   6.627
31667SOL     OW96897  12.768  12.198   1.495
31667SOL    HW196898  12.792  12.144   1.420
31667SOL    HW296899  12.739  12.136   1.561
31668SOL     OW96900   2.185   5.924   8.948
31668SOL    HW196901   2.240   5.845   8.953
31668SOL    HW296902   2.230   5.980   8.885
31669SOL     OW96903   1.659  12.890  10.572
31669SOL    HW196904   1.707  12.878  10.491
31669SOL    HW296905   1.619  12.977  10.564
31670SOL     OW96906   5.745  10.094   5.254
31670SOL    HW196907   5.753  10.081   5.349
31670SOL    HW296908   5.816  10.042   5.217
31671SOL     OW96909  11.468   6.600   0.914
31671SOL    HW196910  11.461   6.696   0.917
31671SOL    HW296911  11.461   6.573   1.006
31672SOL     OW96912  10.448  10.917   2.019
31672SOL    HW196913  10.447  10.822   2.010
31672SOL    HW296914  10.359  10.944   1.998
31673SOL     OW96915   7.877   3.664  14.679
31673SOL    HW196916   7.944   3.646  14.744
31673SOL    HW296917   7.862   3.758  14.684
31674SOL     OW96918   7.731  14.181   2.552
31674SOL    HW196919   7.765  14.190   2.641
31674SOL    HW296920   7.750  14.090   2.528
31675SOL     OW96921   8.652   2.822  13.182
31675SOL    HW196922   8.700   2.763  13.240
31675SOL    HW296923   8.663   2.784  13.094
31676SOL     OW96924   4.904  12.693   8.053
31676SOL    HW196925   4.991  12.730   8.040
31676SOL    HW296926   4.888  12.642   7.974
31677SOL     OW96927   7.379  10.226  13.658
31677SOL    HW196928   7.418  10.213  13.745
31677SOL    HW296929   7.453  10.249  13.601
31678SOL     OW96930  14.859  10.289  11.486
31678SOL    HW196931  14.804  10.268  11.410
31678SOL    HW296932  14.848  10.214  11.545
31679SOL     OW96933   4.682  13.428   0.810
31679SOL    HW196934   4.699  13.358   0.874
31679SOL    HW296935   4.648  13.382   0.733
31680SOL     OW96936   0.779   4.478   8.394
31680SOL    HW196937   0.817   4.428   8.466
31680SOL    HW296938   0.837   4.553   8.384
31681SOL     OW96939   2.310  13.472  13.505
31681SOL    HW196940   2.381  13.502  13.448
31681SOL    HW296941   2.309  13.534  13.578
31682SOL     OW96942   3.834   9.258   5.390
31682SOL    HW196943   3.759   9.312   5.415
31682SOL    HW296944   3.854   9.285   5.301
31683SOL     OW96945   4.893   1.001   0.875
31683SOL    HW196946   4.897   1.089   0.911
31683SOL    HW296947   4.943   1.006   0.794
31684SOL     OW96948   3.079   4.777  11.044
31684SOL    HW196949   3.102   4.688  11.018
31684SOL    HW296950   3.095   4.829  10.965
31685SOL     OW96951  14.745   2.390  12.466
31685SOL    HW196952  14.797   2.406  12.387
31685SOL    HW296953  14.666   2.443  12.453
31686SOL     OW96954   5.103  11.507   9.878
31686SOL    HW196955   5.013  11.525   9.851
31686SOL    HW296956   5.143  11.593   9.888
31687SOL     OW96957   2.362   5.667   0.165
31687SOL    HW196958   2.310   5.592   0.138
31687SOL    HW296959   2.448   5.652   0.126
31688SOL     OW96960   0.493   1.116  13.166
31688SOL    HW196961   0.438   1.098  13.089
31688SOL    HW296962   0.461   1.200  13.198
31689SOL     OW96963  14.117  12.342   2.394
31689SOL    HW196964  14.073  12.295   2.322
31689SOL    HW296965  14.209  12.347   2.366
31690SOL     OW96966   8.201  11.201  11.958
31690SOL    HW196967   8.197  11.289  11.995
31690SOL    HW296968   8.234  11.214  11.869
31691SOL     OW96969   1.441   9.665   8.328
31691SOL    HW196970   1.479   9.646   8.242
31691SOL    HW296971   1.478   9.750   8.352
31692SOL     OW96972  10.744   6.345  14.416
31692SOL    HW196973  10.736   6.272  14.355
31692SOL    HW296974  10.831   6.382  14.398
31693SOL     OW96975   3.271  12.895   5.927
31693SOL    HW196976   3.207  12.876   5.996
31693SOL    HW296977   3.325  12.965   5.964
31694SOL     OW96978   9.776  10.274   1.068
31694SOL    HW196979   9.769  10.254   0.975
31694SOL    HW296980   9.870  10.282   1.084
31695SOL     OW96981   2.800   3.871   7.376
31695SOL    HW196982   2.805   3.946   7.434
31695SOL    HW296983   2.818   3.796   7.433
31696SOL     OW96984   8.477   9.482   2.541
31696SOL    HW196985   8.572   9.470   2.538
31696SOL    HW296986   8.451   9.486   2.449
31697SOL     OW96987   3.546  14.661   8.586
31697SOL    HW196988   3.555  14.651   8.491
31697SOL    HW296989   3.451  14.665   8.600
31698SOL     OW96990   2.905  10.296   2.436
31698SOL    HW196991   2.825  10.244   2.436
31698SOL    HW296992   2.932  10.297   2.344
31699SOL     OW96993   5.943  14.628  10.369
31699SOL    HW196994   5.883  14.556  10.390
31699SOL    HW296995   5.943  14.630  10.273
31700SOL     OW96996   3.192   2.919  13.980
31700SOL    HW196997   3.103   2.954  13.971
31700SOL    HW296998   3.183   2.826  13.961
31701SOL     OW96999   5.251  14.691   3.752
31701SOL    HW197000   5.174  14.637   3.733
31701SOL    HW297001   5.308  14.634   3.803
31702SOL     OW97002   6.350   1.644   1.835
31702SOL    HW197003   6.370   1.659   1.742
31702SOL    HW297004   6.433   1.657   1.880
31703SOL     OW97005   2.371   7.658   9.137
31703SOL    HW197006   2.360   7.622   9.049
31703SOL    HW297007   2.363   7.753   9.125
31704SOL     OW97008  13.022   8.393   7.733
31704SOL    HW197009  13.116   8.380   7.738
31704SOL    HW297010  12.986   8.305   7.722
31705SOL     OW97011   4.294   9.973  12.765
31705SOL    HW197012   4.311   9.924  12.845
31705SOL    HW297013   4.326  10.062  12.784
31706SOL     OW97014   6.244   8.970   7.924
31706SOL    HW197015   6.302   8.914   7.975
31706SOL    HW297016   6.183   8.909   7.882
31707SOL     OW97017   6.312   8.999   9.026
31707SOL    HW197018   6.256   9.034   9.095
31707SOL    HW297019   6.269   9.027   8.945
31708SOL     OW97020   3.334   6.907  14.133
31708SOL    HW197021   3.419   6.863  14.128
31708SOL    HW297022   3.310   6.902  14.226
31709SOL     OW97023   5.596   4.938   5.640
31709SOL    HW197024   5.569   4.925   5.549
31709SOL    HW297025   5.573   5.028   5.659
31710SOL     OW97026   4.340   1.636   9.546
31710SOL    HW197027   4.293   1.605   9.624
31710SOL    HW297028   4.271   1.664   9.486
31711SOL     OW97029   9.799   4.031   5.049
31711SOL    HW197030   9.713   4.007   5.013
31711SOL    HW297031   9.841   4.081   4.980
31712SOL     OW97032  10.358   0.667   4.683
31712SOL    HW197033  10.375   0.600   4.749
31712SOL    HW297034  10.389   0.629   4.601
31713SOL     OW97035   4.477   6.591   2.845
31713SOL    HW197036   4.477   6.566   2.937
31713SOL    HW297037   4.391   6.566   2.812
31714SOL     OW97038   1.268  14.592   0.801
31714SOL    HW197039   1.186  14.637   0.782
31714SOL    HW297040   1.246  14.499   0.801
31715SOL     OW97041  12.191  12.690  11.858
31715SOL    HW197042  12.103  12.727  11.857
31715SOL    HW297043  12.207  12.670  11.950
31716SOL     OW97044  14.036   4.041   3.692
31716SOL    HW197045  13.948   4.051   3.730
31716SOL    HW297046  14.035   4.094   3.613
31717SOL     OW97047  13.951  14.012   1.835
31717SOL    HW197048  13.858  14.035   1.843
31717SOL    HW297049  13.997  14.084   1.878
31718SOL     OW97050  10.837   5.217   9.225
31718SOL    HW197051  10.844   5.152   9.295
31718SOL    HW297052  10.858   5.169   9.145
31719SOL     OW97053  11.052   3.672  10.586
31719SOL    HW197054  11.119   3.736  10.609
31719SOL    HW297055  10.982   3.685  10.650
31720SOL     OW97056   8.874  12.647   9.550
31720SOL    HW197057   8.831  12.717   9.500
31720SOL    HW297058   8.805  12.613   9.607
31721SOL     OW97059  10.523   6.483   1.225
31721SOL    HW197060  10.458   6.415   1.207
31721SOL    HW297061  10.557   6.461   1.312
31722SOL     OW97062   3.758   5.530  10.928
31722SOL    HW197063   3.798   5.477  10.859
31722SOL    HW297064   3.827   5.593  10.953
31723SOL     OW97065   4.446   5.225   8.743
31723SOL    HW197066   4.404   5.196   8.662
31723SOL    HW297067   4.512   5.288   8.715
31724SOL     OW97068  12.313   8.379  14.172
31724SOL    HW197069  12.233   8.332  14.147
31724SOL    HW297070  12.384   8.329  14.130
31725SOL     OW97071  14.245  13.923  11.185
31725SOL    HW197072  14.231  14.007  11.229
31725SOL    HW297073  14.271  13.946  11.096
31726SOL     OW97074   1.712   7.672   5.826
31726SOL    HW197075   1.747   7.726   5.897
31726SOL    HW297076   1.781   7.673   5.759
31727SOL     OW97077   2.146   0.399   4.291
31727SOL    HW197078   2.223   0.360   4.251
31727SOL    HW297079   2.091   0.324   4.315
31728SOL     OW97080   2.831  10.231  10.908
31728SOL    HW197081   2.780  10.211  10.830
31728SOL    HW297082   2.795  10.173  10.975
31729SOL     OW97083   3.845  10.438  11.170
31729SOL    HW197084   3.894  10.425  11.089
31729SOL    HW297085   3.903  10.406  11.239
31730SOL     OW97086   0.923   0.494   0.698
31730SOL    HW197087   0.934   0.543   0.617
31730SOL    HW297088   0.839   0.524   0.733
31731SOL     OW97089  11.687   8.819  11.885
31731SOL    HW197090  11.764   8.873  11.902
31731SOL    HW297091  11.613   8.877  11.902
31732SOL     OW97092   7.755  13.881   6.712
31732SOL    HW197093   7.817  13.810   6.691
31732SOL    HW297094   7.676  13.836   6.741
31733SOL     OW97095  14.378  13.247   9.072
31733SOL    HW197096  14.456  13.301   9.061
31733SOL    HW297097  14.305  13.309   9.067
31734SOL     OW97098   0.151  14.682   8.541
31734SOL    HW197099   0.169  14.690   8.635
31734SOL    HW297100   0.210  14.613   8.512
31735SOL     OW97101  14.858   4.133  14.502
31735SOL    HW197102  14.799   4.075  14.456
31735SOL    HW297103  14.810   4.215  14.511
31736SOL     OW97104   7.764   5.539   5.327
31736SOL    HW197105   7.792   5.547   5.236
31736SOL    HW297106   7.677   5.499   5.322
31737SOL     OW97107   6.934   5.468   7.139
31737SOL    HW197108   7.006   5.521   7.105
31737SOL    HW297109   6.957   5.378   7.117
31738SOL     OW97110   4.839   9.682   4.912
31738SOL    HW197111   4.811   9.726   4.992
31738SOL    HW297112   4.758   9.666   4.864
31739SOL     OW97113   2.399   5.529  13.387
31739SOL    HW197114   2.433   5.615  13.362
31739SOL    HW297115   2.466   5.492  13.443
31740SOL     OW97116   8.598   2.948   4.591
31740SOL    HW197117   8.583   2.875   4.650
31740SOL    HW297118   8.693   2.950   4.580
31741SOL     OW97119  14.707   5.988  11.619
31741SOL    HW197120  14.786   6.028  11.584
31741SOL    HW297121  14.727   5.895  11.625
31742SOL     OW97122   0.945   8.100  13.951
31742SOL    HW197123   1.038   8.087  13.932
31742SOL    HW297124   0.944   8.156  14.028
31743SOL     OW97125  10.536   4.931  14.854
31743SOL    HW197126  10.618   4.937   0.020
31743SOL    HW297127  10.468   4.932   0.039
31744SOL     OW97128   3.144   6.125   9.791
31744SOL    HW197129   3.094   6.054   9.751
31744SOL    HW297130   3.082   6.169   9.848
31745SOL     OW97131   3.726  14.828   3.795
31745SOL    HW197132   3.810  14.782   3.805
31745SOL    HW297133   3.742   0.033   3.832
31746SOL     OW97134   0.386   3.531   2.041
31746SOL    HW197135   0.411   3.580   2.120
31746SOL    HW297136   0.309   3.577   2.009
31747SOL     OW97137   4.938   2.385   8.613
31747SOL    HW197138   4.856   2.364   8.658
31747SOL    HW297139   5.004   2.382   8.682
31748SOL     OW97140   4.769   5.709  11.024
31748SOL    HW197141   4.779   5.791  11.073
31748SOL    HW297142   4.856   5.671  11.023
31749SOL     OW97143  13.490   8.666   4.142
31749SOL    HW197144  13.569   8.669   4.196
31749SOL    HW297145  13.517   8.621   4.062
31750SOL     OW97146   0.177   1.913  11.852
31750SOL    HW197147   0.215   1.989  11.807
31750SOL    HW297148   0.211   1.837  11.804
31751SOL     OW97149   1.458  14.456   0.283
31751SOL    HW197150   1.418  14.483   0.200
31751SOL    HW297151   1.467  14.537   0.333
31752SOL     OW97152   4.460   3.531  10.851
31752SOL    HW197153   4.457   3.625  10.867
31752SOL    HW297154   4.506   3.521  10.768
31753SOL     OW97155   5.523  10.097  13.162
31753SOL    HW197156   5.507  10.179  13.208
31753SOL    HW297157   5.510  10.119  13.070
31754SOL     OW97158  11.463   3.300   7.274
31754SOL    HW197159  11.470   3.304   7.369
31754SOL    HW297160  11.540   3.250   7.246
31755SOL     OW97161   1.800  13.092   4.158
31755SOL    HW197162   1.718  13.083   4.110
31755SOL    HW297163   1.844  13.166   4.118
31756SOL     OW97164   6.817   6.420   0.152
31756SOL    HW197165   6.825   6.471   0.233
31756SOL    HW297166   6.751   6.468   0.100
31757SOL     OW97167   2.662   7.842  12.998
31757SOL    HW197168   2.678   7.918  12.943
31757SOL    HW297169   2.712   7.859  13.078
31758SOL     OW97170   4.000  14.234   4.490
31758SOL    HW197171   3.959  14.149   4.507
31758SOL    HW297172   4.048  14.221   4.408
31759SOL     OW97173  13.722  14.377   2.607
31759SOL    HW197174  13.810  14.397   2.639
31759SOL    HW297175  13.712  14.431   2.529
31760SOL     OW97176   1.397   3.805   4.954
31760SOL    HW197177   1.377   3.713   4.936
31760SOL    HW297178   1.492   3.807   4.966
31761SOL     OW97179  12.090   8.811   3.581
31761SOL    HW197180  12.089   8.812   3.485
31761SOL    HW297181  12.166   8.758   3.603
31762SOL     OW97182  10.820   4.735   3.556
31762SOL    HW197183  10.825   4.760   3.463
31762SOL    HW297184  10.848   4.814   3.603
31763SOL     OW97185  10.396   5.331  13.168
31763SOL    HW197186  10.351   5.327  13.084
31763SOL    HW297187  10.443   5.248  13.174
31764SOL     OW97188  14.612   9.021   7.404
31764SOL    HW197189  14.550   8.982   7.465
31764SOL    HW297190  14.565   9.023   7.321
31765SOL     OW97191  11.879   0.206   3.637
31765SOL    HW197192  11.835   0.204   3.722
31765SOL    HW297193  11.909   0.297   3.629
31766SOL     OW97194  10.223  11.807   7.180
31766SOL    HW197195  10.227  11.777   7.090
31766SOL    HW297196  10.259  11.896   7.177
31767SOL     OW97197  11.229  11.151  12.741
31767SOL    HW197198  11.174  11.124  12.814
31767SOL    HW297199  11.304  11.194  12.781
31768SOL     OW97200   0.702  13.833   9.852
31768SOL    HW197201   0.790  13.871   9.849
31768SOL    HW297202   0.712  13.750   9.898
31769SOL     OW97203  11.516   4.857  10.236
31769SOL    HW197204  11.422   4.874  10.241
31769SOL    HW297205  11.524   4.762  10.245
31770SOL     OW97206  11.978   6.067  13.290
31770SOL    HW197207  11.999   6.006  13.219
31770SOL    HW297208  12.006   6.152  13.256
31771SOL     OW97209   3.889  10.119   1.942
31771SOL    HW197210   3.840  10.199   1.922
31771SOL    HW297211   3.823  10.050   1.943
31772SOL     OW97212   3.975  12.515   3.110
31772SOL    HW197213   3.970  12.421   3.126
31772SOL    HW297214   3.905  12.533   3.046
31773SOL     OW97215   8.525   7.801   9.956
31773SOL    HW197216   8.472   7.816   9.877
31773SOL    HW297217   8.524   7.886  10.001
31774SOL     OW97218   6.424  12.079   1.306
31774SOL    HW197219   6.369  12.047   1.378
31774SOL    HW297220   6.499  12.119   1.349
31775SOL     OW97221   0.465   9.036  13.353
31775SOL    HW197222   0.393   9.026  13.291
31775SOL    HW297223   0.538   9.069  13.300
31776SOL     OW97224   9.689  12.868   6.847
31776SOL    HW197225   9.633  12.819   6.786
31776SOL    HW297226   9.695  12.812   6.924
31777SOL     OW97227   9.766   0.926  10.563
31777SOL    HW197228   9.769   0.839  10.523
31777SOL    HW297229   9.858   0.948  10.579
31778SOL     OW97230  10.411   0.875   4.965
31778SOL    HW197231  10.319   0.855   4.982
31778SOL    HW297232  10.453   0.789   4.963
31779SOL     OW97233   1.245   6.915   9.113
31779SOL    HW197234   1.228   6.821   9.101
31779SOL    HW297235   1.168   6.958   9.076
31780SOL     OW97236   1.263  11.950   3.384
31780SOL    HW197237   1.240  11.858   3.397
31780SOL    HW297238   1.329  11.969   3.449
31781SOL     OW97239  12.423  10.654   2.851
31781SOL    HW197240  12.501  10.709   2.840
31781SOL    HW297241  12.424  10.628   2.943
31782SOL     OW97242   4.412   8.879   8.325
31782SOL    HW197243   4.474   8.952   8.325
31782SOL    HW297244   4.372   8.882   8.238
31783SOL     OW97245   2.085   1.930   7.971
31783SOL    HW197246   2.016   1.885   7.922
31783SOL    HW297247   2.048   2.016   7.991
31784SOL     OW97248   1.273  10.222   6.707
31784SOL    HW197249   1.332  10.146   6.705
31784SOL    HW297250   1.331  10.297   6.694
31785SOL     OW97251  11.049  13.085   6.469
31785SOL    HW197252  11.026  13.043   6.386
31785SOL    HW297253  11.144  13.081   6.472
31786SOL     OW97254  12.026  13.703  11.609
31786SOL    HW197255  11.949  13.649  11.590
31786SOL    HW297256  12.054  13.673  11.696
31787SOL     OW97257  11.651  10.093   0.901
31787SOL    HW197258  11.664  10.132   0.815
31787SOL    HW297259  11.566  10.048   0.894
31788SOL     OW97260  11.716   5.491   4.903
31788SOL    HW197261  11.804   5.457   4.918
31788SOL    HW297262  11.662   5.451   4.971
31789SOL     OW97263  11.285   1.358   5.731
31789SOL    HW197264  11.267   1.442   5.690
31789SOL    HW297265  11.199   1.323   5.754
31790SOL     OW97266   4.321  12.447   5.998
31790SOL    HW197267   4.229  12.426   6.016
31790SOL    HW297268   4.362  12.362   5.981
31791SOL     OW97269   3.916  13.355  11.634
31791SOL    HW197270   3.855  13.429  11.630
31791SOL    HW297271   3.908  13.314  11.548
31792SOL     OW97272   4.760   9.357   3.843
31792SOL    HW197273   4.774   9.409   3.763
31792SOL    HW297274   4.669   9.375   3.867
31793SOL     OW97275  14.801   4.147  10.693
31793SOL    HW197276  14.758   4.062  10.702
31793SOL    HW297277  14.870   4.145  10.759
31794SOL     OW97278   0.746  14.305  12.973
31794SOL    HW197279   0.651  14.310  12.981
31794SOL    HW297280   0.769  14.382  12.920
31795SOL     OW97281   3.898  11.329  12.160
31795SOL    HW197282   3.839  11.268  12.115
31795SOL    HW297283   3.986  11.296  12.139
31796SOL     OW97284  13.894   4.573   3.116
31796SOL    HW197285  13.928   4.487   3.089
31796SOL    HW297286  13.868   4.560   3.207
31797SOL     OW97287  12.716   7.809  14.070
31797SOL    HW197288  12.690   7.770  13.986
31797SOL    HW297289  12.690   7.901  14.062
31798SOL     OW97290   2.217   8.505  10.596
31798SOL    HW197291   2.236   8.508  10.502
31798SOL    HW297292   2.280   8.443  10.632
31799SOL     OW97293   2.883   9.675  13.431
31799SOL    HW197294   2.869   9.594  13.382
31799SOL    HW297295   2.932   9.731  13.370
31800SOL     OW97296  11.779   1.045   6.646
31800SOL    HW197297  11.714   1.115   6.650
31800SOL    HW297298  11.817   1.054   6.558
31801SOL     OW97299   0.998   0.572  10.236
31801SOL    HW197300   0.907   0.587  10.260
31801SOL    HW297301   1.039   0.542  10.317
31802SOL     OW97302   1.134   1.718   3.316
31802SOL    HW197303   1.153   1.677   3.400
31802SOL    HW297304   1.090   1.800   3.338
31803SOL     OW97305  12.642  10.638  11.213
31803SOL    HW197306  12.700  10.710  11.186
31803SOL    HW297307  12.663  10.624  11.306
31804SOL     OW97308  13.848   0.982   6.992
31804SOL    HW197309  13.815   1.045   6.927
31804SOL    HW297310  13.905   0.925   6.942
31805SOL     OW97311   8.880  12.554  14.160
31805SOL    HW197312   8.935  12.498  14.216
31805SOL    HW297313   8.831  12.492  14.106
31806SOL     OW97314   0.502   4.878   2.027
31806SOL    HW197315   0.441   4.952   2.024
31806SOL    HW297316   0.462   4.812   1.971
31807SOL     OW97317   0.953   4.109   7.656
31807SOL    HW197318   1.001   4.084   7.735
31807SOL    HW297319   1.019   4.145   7.598
31808SOL     OW97320   2.729   9.051   0.879
31808SOL    HW197321   2.743   9.143   0.904
31808SOL    HW297322   2.729   9.003   0.961
31809SOL     OW97323   5.558   7.291   6.045
31809SOL    HW197324   5.652   7.282   6.031
31809SOL    HW297325   5.527   7.341   5.970
31810SOL     OW97326  10.108   3.637  12.224
31810SOL    HW197327  10.149   3.584  12.293
31810SOL    HW297328  10.052   3.574  12.177
31811SOL     OW97329   8.805  12.296  12.878
31811SOL    HW197330   8.722  12.327  12.842
31811SOL    HW297331   8.871  12.344  12.829
31812SOL     OW97332   3.514  14.086  12.049
31812SOL    HW197333   3.545  14.036  11.974
31812SOL    HW297334   3.442  14.139  12.014
31813SOL     OW97335  14.307  13.194   3.547
31813SOL    HW197336  14.365  13.182   3.472
31813SOL    HW297337  14.358  13.246   3.609
31814SOL     OW97338   5.021   3.887  12.927
31814SOL    HW197339   4.946   3.888  12.986
31814SOL    HW297340   5.056   3.798  12.933
31815SOL     OW97341   8.394  14.449  10.795
31815SOL    HW197342   8.432  14.380  10.850
31815SOL    HW297343   8.416  14.424  10.706
31816SOL     OW97344   4.973   7.910   9.939
31816SOL    HW197345   4.889   7.955   9.925
31816SOL    HW297346   5.037   7.981   9.950
31817SOL     OW97347  10.265   6.027   1.415
31817SOL    HW197348  10.247   6.078   1.494
31817SOL    HW297349  10.293   6.091   1.350
31818SOL     OW97350   1.244  11.504  10.203
31818SOL    HW197351   1.207  11.419  10.180
31818SOL    HW297352   1.170  11.565  10.200
31819SOL     OW97353   3.219  12.843   9.317
31819SOL    HW197354   3.260  12.921   9.280
31819SOL    HW297355   3.276  12.817   9.389
31820SOL     OW97356   8.430  13.507   6.724
31820SOL    HW197357   8.408  13.588   6.769
31820SOL    HW297358   8.482  13.535   6.649
31821SOL     OW97359  10.257   2.892  13.133
31821SOL    HW197360  10.331   2.842  13.167
31821SOL    HW297361  10.197   2.900  13.207
31822SOL     OW97362   7.475   4.020   7.982
31822SOL    HW197363   7.462   4.030   7.888
31822SOL    HW297364   7.566   3.995   7.992
31823SOL     OW97365   7.024   6.132   1.917
31823SOL    HW197366   6.986   6.184   1.846
31823SOL    HW297367   7.057   6.197   1.979
31824SOL     OW97368   1.821  14.486  14.016
31824SOL    HW197369   1.901  14.467  13.967
31824SOL    HW297370   1.837  14.572  14.055
31825SOL     OW97371   4.184   2.714   6.710
31825SOL    HW197372   4.143   2.651   6.650
31825SOL    HW297373   4.276   2.686   6.714
31826SOL     OW97374  14.525   3.149  12.585
31826SOL    HW197375  14.523   3.186  12.496
31826SOL    HW297376  14.557   3.059  12.573
31827SOL     OW97377   3.379   9.209   7.755
31827SOL    HW197378   3.342   9.253   7.832
31827SOL    HW297379   3.455   9.263   7.731
31828SOL     OW97380   5.071   3.839  11.400
31828SOL    HW197381   5.147   3.797  11.442
31828SOL    HW297382   5.004   3.771  11.401
31829SOL     OW97383  11.260  12.532   7.130
31829SOL    HW197384  11.328  12.464   7.134
31829SOL    HW297385  11.296  12.604   7.181
31830SOL     OW97386   5.361  13.789   4.141
31830SOL    HW197387   5.351  13.771   4.047
31830SOL    HW297388   5.285  13.843   4.162
31831SOL     OW97389   8.386   6.311   4.075
31831SOL    HW197390   8.392   6.349   4.162
31831SOL    HW297391   8.476   6.303   4.045
31832SOL     OW97392  11.933   7.730   8.983
31832SOL    HW197393  11.873   7.697   9.049
31832SOL    HW297394  11.896   7.702   8.900
31833SOL     OW97395   8.581   6.482   0.304
31833SOL    HW197396   8.566   6.417   0.373
31833SOL    HW297397   8.507   6.542   0.311
31834SOL     OW97398   5.598   3.687   2.438
31834SOL    HW197399   5.626   3.680   2.529
31834SOL    HW297400   5.506   3.714   2.443
31835SOL     OW97401  10.737  13.204   5.632
31835SOL    HW197402  10.722  13.299   5.636
31835SOL    HW297403  10.832  13.195   5.642
31836SOL     OW97404  11.568  12.074   8.567
31836SOL    HW197405  11.617  12.026   8.500
31836SOL    HW297406  11.635  12.112   8.624
31837SOL     OW97407  11.990   7.631   8.310
31837SOL    HW197408  12.061   7.650   8.248
31837SOL    HW297409  11.957   7.546   8.282
31838SOL     OW97410   0.933   6.007   9.761
31838SOL    HW197411   0.880   6.036   9.835
31838SOL    HW297412   0.953   5.915   9.781
31839SOL     OW97413   8.601   4.140  10.601
31839SOL    HW197414   8.515   4.098  10.600
31839SOL    HW297415   8.663   4.070  10.580
31840SOL     OW97416  13.833   5.107   8.236
31840SOL    HW197417  13.748   5.069   8.213
31840SOL    HW297418  13.844   5.087   8.329
31841SOL     OW97419   8.929   1.496   9.946
31841SOL    HW197420   8.951   1.410   9.981
31841SOL    HW297421   8.837   1.509   9.967
31842SOL     OW97422  13.396   4.464   1.059
31842SOL    HW197423  13.484   4.500   1.070
31842SOL    HW297424  13.404   4.372   1.084
31843SOL     OW97425   6.440   9.827   1.328
31843SOL    HW197426   6.379   9.899   1.343
31843SOL    HW297427   6.400   9.776   1.257
31844SOL     OW97428  11.235   7.050   4.752
31844SOL    HW197429  11.264   7.117   4.814
31844SOL    HW297430  11.148   7.024   4.784
31845SOL     OW97431   3.145   3.272   0.799
31845SOL    HW197432   3.116   3.218   0.725
31845SOL    HW297433   3.193   3.211   0.856
31846SOL     OW97434  12.711  13.559   2.898
31846SOL    HW197435  12.783  13.521   2.847
31846SOL    HW297436  12.752  13.627   2.951
31847SOL     OW97437   9.926   8.045   3.038
31847SOL    HW197438   9.957   7.955   3.043
31847SOL    HW297439   9.892   8.053   2.949
31848SOL     OW97440   1.468   8.810  11.141
31848SOL    HW197441   1.543   8.805  11.200
31848SOL    HW297442   1.486   8.885  11.085
31849SOL     OW97443   0.774   1.979  10.964
31849SOL    HW197444   0.732   2.015  11.042
31849SOL    HW297445   0.702   1.957  10.906
31850SOL     OW97446   7.310   9.605   4.497
31850SOL    HW197447   7.244   9.666   4.529
31850SOL    HW297448   7.332   9.551   4.573
31851SOL     OW97449  13.942   1.144  10.414
31851SOL    HW197450  13.956   1.104  10.328
31851SOL    HW297451  13.994   1.090  10.474
31852SOL     OW97452   6.879   1.928  13.016
31852SOL    HW197453   6.849   1.860  13.076
31852SOL    HW297454   6.969   1.947  13.043
31853SOL     OW97455   9.542  11.766  14.743
31853SOL    HW197456   9.453  11.786  14.771
31853SOL    HW297457   9.553  11.673  14.763
31854SOL     OW97458   0.740   6.104   7.010
31854SOL    HW197459   0.677   6.115   7.081
31854SOL    HW297460   0.763   6.194   6.985
31855SOL     OW97461   4.524  11.117   7.815
31855SOL    HW197462   4.433  11.096   7.791
31855SOL    HW297463   4.516  11.195   7.871
31856SOL     OW97464   7.328   6.115  13.691
31856SOL    HW197465   7.404   6.107  13.748
31856SOL    HW297466   7.300   6.025  13.675
31857SOL     OW97467   2.001   5.965  10.342
31857SOL    HW197468   1.914   6.002  10.334
31857SOL    HW297469   2.059   6.041  10.353
31858SOL     OW97470   2.005  10.204   9.023
31858SOL    HW197471   2.079  10.258   8.996
31858SOL    HW297472   1.986  10.232   9.112
31859SOL     OW97473  11.475   4.935   4.876
31859SOL    HW197474  11.505   5.024   4.894
31859SOL    HW297475  11.538   4.901   4.813
31860SOL     OW97476   2.087   0.620   3.800
31860SOL    HW197477   2.045   0.674   3.733
31860SOL    HW297478   2.079   0.671   3.881
31861SOL     OW97479   9.995   1.789   9.544
31861SOL    HW197480   9.909   1.748   9.534
31861SOL    HW297481   9.985   1.876   9.505
31862SOL     OW97482  10.750   5.278  10.000
31862SOL    HW197483  10.772   5.336   9.927
31862SOL    HW297484  10.825   5.283  10.058
31863SOL     OW97485   8.483  12.314  12.280
31863SOL    HW197486   8.445  12.232  12.250
31863SOL    HW297487   8.473  12.374  12.206
31864SOL     OW97488  12.487   1.543   4.841
31864SOL    HW197489  12.486   1.460   4.794
31864SOL    HW297490  12.540   1.601   4.787
31865SOL     OW97491   8.322  11.995  12.037
31865SOL    HW197492   8.246  12.047  12.066
31865SOL    HW297493   8.302  11.973  11.946
31866SOL     OW97494   3.243  12.739   3.806
31866SOL    HW197495   3.271  12.773   3.891
31866SOL    HW297496   3.323  12.705   3.766
31867SOL     OW97497  10.419   3.890   5.619
31867SOL    HW197498  10.510   3.887   5.589
31867SOL    HW297499  10.396   3.799   5.634
31868SOL     OW97500  10.528  14.784   2.812
31868SOL    HW197501  10.602  14.724   2.806
31868SOL    HW297502  10.510  14.808   2.721
31869SOL     OW97503   6.375  10.104   4.866
31869SOL    HW197504   6.358  10.084   4.958
31869SOL    HW297505   6.436  10.178   4.869
31870SOL     OW97506   4.242   6.867  13.015
31870SOL    HW197507   4.264   6.857  12.922
31870SOL    HW297508   4.279   6.789  13.057
31871SOL     OW97509  12.077  14.476   1.426
31871SOL    HW197510  12.059  14.426   1.506
31871SOL    HW297511  12.162  14.516   1.442
31872SOL     OW97512   7.750   3.877   6.219
31872SOL    HW197513   7.800   3.890   6.139
31872SOL    HW297514   7.658   3.883   6.191
31873SOL     OW97515   0.428  13.773   5.298
31873SOL    HW197516   0.484  13.846   5.273
31873SOL    HW297517   0.412  13.786   5.392
31874SOL     OW97518   8.554  14.685  14.013
31874SOL    HW197519   8.564  14.741  13.937
31874SOL    HW297520   8.460  14.667  14.017
31875SOL     OW97521  10.937  11.166   2.128
31875SOL    HW197522  10.916  11.253   2.161
31875SOL    HW297523  10.856  11.135   2.088
31876SOL     OW97524   1.948   2.035   0.182
31876SOL    HW197525   1.876   1.976   0.203
31876SOL    HW297526   1.960   2.026   0.088
31877SOL     OW97527  11.876  12.587   5.541
31877SOL    HW197528  11.958  12.539   5.528
31877SOL    HW297529  11.808  12.520   5.538
31878SOL     OW97530  12.490  11.462   7.804
31878SOL    HW197531  12.532  11.389   7.850
31878SOL    HW297532  12.547  11.479   7.729
31879SOL     OW97533   4.222   1.891   5.104
31879SOL    HW197534   4.228   1.916   5.196
31879SOL    HW297535   4.301   1.927   5.064
31880SOL     OW97536   9.034  10.372   0.598
31880SOL    HW197537   8.969  10.442   0.598
31880SOL    HW297538   9.082  10.384   0.680
31881SOL     OW97539   5.070  12.544   0.849
31881SOL    HW197540   4.975  12.538   0.851
31881SOL    HW297541   5.091  12.567   0.758
31882SOL     OW97542  13.474   0.714   9.623
31882SOL    HW197543  13.474   0.630   9.577
31882SOL    HW297544  13.565   0.727   9.650
31883SOL     OW97545  13.267  13.763   6.440
31883SOL    HW197546  13.240  13.855   6.449
31883SOL    HW297547  13.203  13.714   6.492
31884SOL     OW97548   7.943  11.456  13.352
31884SOL    HW197549   8.022  11.458  13.406
31884SOL    HW297550   7.887  11.392  13.395
31885SOL     OW97551  13.185  12.001  13.919
31885SOL    HW197552  13.110  12.014  13.861
31885SOL    HW297553  13.221  12.089  13.932
31886SOL     OW97554   3.949   7.343   0.333
31886SOL    HW197555   4.043   7.335   0.321
31886SOL    HW297556   3.923   7.263   0.379
31887SOL     OW97557  11.700   2.566  11.242
31887SOL    HW197558  11.760   2.506  11.287
31887SOL    HW297559  11.752   2.603  11.171
31888SOL     OW97560   2.196   6.451   0.340
31888SOL    HW197561   2.153   6.497   0.267
31888SOL    HW297562   2.137   6.379   0.361
31889SOL     OW97563  14.049   3.087  12.027
31889SOL    HW197564  14.129   3.100  11.977
31889SOL    HW297565  14.009   3.009  11.989
31890SOL     OW97566  12.905   0.100   4.990
31890SOL    HW197567  12.972   0.035   5.007
31890SOL    HW297568  12.854   0.104   5.071
31891SOL     OW97569  12.194   9.451   8.371
31891SOL    HW197570  12.227   9.471   8.283
31891SOL    HW297571  12.239   9.513   8.428
31892SOL     OW97572  14.818   1.506   1.567
31892SOL    HW197573  14.850   1.456   1.491
31892SOL    HW297574  14.851   1.458   1.643
31893SOL     OW97575  11.987  12.635  12.518
31893SOL    HW197576  11.923  12.662  12.584
31893SOL    HW297577  11.945  12.564  12.470
31894SOL     OW97578   7.038   5.052   5.523
31894SOL    HW197579   7.102   5.123   5.522
31894SOL    HW297580   7.074   4.988   5.585
31895SOL     OW97581  10.182   7.721   7.265
31895SOL    HW197582  10.255   7.697   7.209
31895SOL    HW297583  10.203   7.682   7.350
31896SOL     OW97584  14.467   1.082  12.732
31896SOL    HW197585  14.479   1.044  12.819
31896SOL    HW297586  14.556   1.095  12.698
31897SOL     OW97587  14.754   4.730   9.970
31897SOL    HW197588  14.766   4.802   9.907
31897SOL    HW297589  14.667   4.697   9.951
31898SOL     OW97590   5.299  11.816   4.495
31898SOL    HW197591   5.255  11.745   4.540
31898SOL    HW297592   5.292  11.794   4.402
31899SOL     OW97593   4.238   1.679  11.304
31899SOL    HW197594   4.214   1.665  11.212
31899SOL    HW297595   4.243   1.591  11.341
31900SOL     OW97596  14.796  12.407   4.492
31900SOL    HW197597  14.772  12.408   4.584
31900SOL    HW297598  14.860  12.336   4.484
31901SOL     OW97599   6.787   5.712   3.587
31901SOL    HW197600   6.802   5.660   3.508
31901SOL    HW297601   6.809   5.801   3.562
31902SOL     OW97602   4.125   7.134   7.266
31902SOL    HW197603   4.142   7.148   7.359
31902SOL    HW297604   4.051   7.075   7.263
31903SOL     OW97605   9.089  12.058  12.718
31903SOL    HW197606   9.155  12.127  12.723
31903SOL    HW297607   9.015  12.099  12.673
31904SOL     OW97608   6.532  12.174   2.006
31904SOL    HW197609   6.513  12.096   2.058
31904SOL    HW297610   6.447  12.209   1.981
31905SOL     OW97611   8.826  13.544   8.987
31905SOL    HW197612   8.795  13.575   9.072
31905SOL    HW297613   8.874  13.619   8.950
31906SOL     OW97614   0.249   8.124   0.264
31906SOL    HW197615   0.236   8.044   0.314
31906SOL    HW297616   0.249   8.096   0.173
31907SOL     OW97617   6.725  12.724   8.494
31907SOL    HW197618   6.663  12.777   8.444
31907SOL    HW297619   6.809  12.740   8.452
31908SOL     OW97620   7.673  11.705   8.749
31908SOL    HW197621   7.697  11.775   8.688
31908SOL    HW297622   7.578  11.699   8.742
31909SOL     OW97623   9.897  11.264   9.833
31909SOL    HW197624   9.870  11.345   9.877
31909SOL    HW297625   9.986  11.282   9.802
31910SOL     OW97626  11.960   5.047   0.897
31910SOL    HW197627  11.884   4.995   0.875
31910SOL    HW297628  12.007   5.057   0.814
31911SOL     OW97629   9.469  13.494   9.948
31911SOL    HW197630   9.400  13.449   9.900
31911SOL    HW297631   9.497  13.432  10.015
31912SOL     OW97632  10.911  12.313  14.678
31912SOL    HW197633  10.876  12.225  14.687
31912SOL    HW297634  10.996  12.310  14.723
31913SOL     OW97635   9.965   6.480   6.574
31913SOL    HW197636   9.922   6.412   6.625
31913SOL    HW297637   9.908   6.495   6.499
31914SOL     OW97638   3.111  11.232   1.199
31914SOL    HW197639   3.071  11.216   1.285
31914SOL    HW297640   3.043  11.276   1.149
31915SOL     OW97641   5.748   5.031  14.813
31915SOL    HW197642   5.681   5.042  14.746
31915SOL    HW297643   5.802   4.958  14.781
31916SOL     OW97644   4.645   6.924   8.141
31916SOL    HW197645   4.600   6.841   8.155
31916SOL    HW297646   4.638   6.970   8.225
31917SOL     OW97647   1.843  14.103  11.968
31917SOL    HW197648   1.778  14.051  11.921
31917SOL    HW297649   1.861  14.177  11.910
31918SOL     OW97650   6.393   5.447   9.351
31918SOL    HW197651   6.316   5.504   9.352
31918SOL    HW297652   6.427   5.451   9.440
31919SOL     OW97653   3.948   6.631   2.623
31919SOL    HW197654   3.972   6.644   2.714
31919SOL    HW297655   3.987   6.706   2.577
31920SOL     OW97656  11.247   5.087  13.015
31920SOL    HW197657  11.162   5.042  13.020
31920SOL    HW297658  11.298   5.035  12.954
31921SOL     OW97659   0.979   3.039   4.991
31921SOL    HW197660   0.931   3.063   4.912
31921SOL    HW297661   1.022   3.120   5.019
31922SOL     OW97662  14.776   4.792   7.468
31922SOL    HW197663  14.728   4.735   7.409
31922SOL    HW297664  14.865   4.792   7.433
31923SOL     OW97665   9.239   5.138   9.806
31923SOL    HW197666   9.302   5.205   9.779
31923SOL    HW297667   9.163   5.187   9.837
31924SOL     OW97668  12.868   1.838   0.423
31924SOL    HW197669  12.865   1.897   0.348
31924SOL    HW297670  12.867   1.897   0.499
31925SOL     OW97671   8.289   0.593   2.191
31925SOL    HW197672   8.357   0.570   2.128
31925SOL    HW297673   8.295   0.525   2.258
31926SOL     OW97674  12.498   5.723   5.470
31926SOL    HW197675  12.412   5.701   5.507
31926SOL    HW297676  12.535   5.638   5.447
31927SOL     OW97677   5.367  12.059   4.562
31927SOL    HW197678   5.362  11.971   4.525
31927SOL    HW297679   5.432  12.052   4.632
31928SOL     OW97680   3.577   4.429   6.139
31928SOL    HW197681   3.590   4.462   6.050
31928SOL    HW297682   3.624   4.490   6.195
31929SOL     OW97683   5.916  11.441  11.623
31929SOL    HW197684   5.942  11.355  11.654
31929SOL    HW297685   5.831  11.457  11.664
31930SOL     OW97686   6.587   3.015   9.137
31930SOL    HW197687   6.510   3.067   9.117
31930SOL    HW297688   6.616   2.981   9.052
31931SOL     OW97689   6.329   0.564   3.444
31931SOL    HW197690   6.307   0.493   3.505
31931SOL    HW297691   6.387   0.621   3.494
31932SOL     OW97692   4.640  12.762  10.348
31932SOL    HW197693   4.730  12.785  10.371
31932SOL    HW297694   4.649  12.701  10.274
31933SOL     OW97695  13.260   5.495   1.902
31933SOL    HW197696  13.316   5.418   1.887
31933SOL    HW297697  13.228   5.484   1.991
31934SOL     OW97698   5.596   5.290   3.188
31934SOL    HW197699   5.569   5.199   3.198
31934SOL    HW297700   5.515   5.340   3.199
31935SOL     OW97701   7.023  11.832  12.745
31935SOL    HW197702   7.050  11.742  12.760
31935SOL    HW297703   7.029  11.874  12.831
31936SOL     OW97704   3.391   0.861   5.930
31936SOL    HW197705   3.332   0.798   5.971
31936SOL    HW297706   3.341   0.943   5.927
31937SOL     OW97707   6.411   2.861  11.816
31937SOL    HW197708   6.475   2.889  11.881
31937SOL    HW297709   6.339   2.824  11.867
31938SOL     OW97710   0.792   6.731   2.161
31938SOL    HW197711   0.784   6.635   2.162
31938SOL    HW297712   0.868   6.748   2.106
31939SOL     OW97713   1.557   7.827   3.690
31939SOL    HW197714   1.542   7.914   3.727
31939SOL    HW297715   1.635   7.838   3.635
31940SOL     OW97716  14.348  14.358   9.892
31940SOL    HW197717  14.435  14.373   9.855
31940SOL    HW297718  14.362  14.351   9.986
31941SOL     OW97719   4.737   8.479   5.219
31941SOL    HW197720   4.780   8.457   5.301
31941SOL    HW297721   4.644   8.468   5.236
31942SOL     OW97722  12.318   7.405   3.630
31942SOL    HW197723  12.273   7.363   3.557
31942SOL    HW297724  12.249   7.440   3.685
31943SOL     OW97725   2.081   8.123  13.867
31943SOL    HW197726   2.014   8.140  13.933
31943SOL    HW297727   2.082   8.028  13.858
31944SOL     OW97728   6.963  10.037  11.800
31944SOL    HW197729   7.013  10.013  11.722
31944SOL    HW297730   6.905   9.962  11.814
31945SOL     OW97731  10.383   6.205   8.012
31945SOL    HW197732  10.288   6.210   8.020
31945SOL    HW297733  10.399   6.140   7.943
31946SOL     OW97734   6.209  14.209  14.034
31946SOL    HW197735   6.197  14.138  14.096
31946SOL    HW297736   6.303  14.221  14.027
31947SOL     OW97737   1.912   4.540  13.143
31947SOL    HW197738   1.860   4.567  13.219
31947SOL    HW297739   2.002   4.562  13.167
31948SOL     OW97740  12.836   1.990   2.932
31948SOL    HW197741  12.758   2.032   2.967
31948SOL    HW297742  12.804   1.909   2.891
31949SOL     OW97743   3.909   2.602   3.243
31949SOL    HW197744   3.942   2.515   3.219
31949SOL    HW297745   3.867   2.589   3.328
31950SOL     OW97746   4.448   4.692   0.189
31950SOL    HW197747   4.485   4.749   0.122
31950SOL    HW297748   4.487   4.722   0.271
31951SOL     OW97749   5.741   4.209   4.205
31951SOL    HW197750   5.794   4.281   4.239
31951SOL    HW297751   5.654   4.247   4.192
31952SOL     OW97752   6.360   7.122  11.444
31952SOL    HW197753   6.368   7.159  11.356
31952SOL    HW297754   6.270   7.088  11.447
31953SOL     OW97755   8.569   6.949   1.831
31953SOL    HW197756   8.485   6.933   1.788
31953SOL    HW297757   8.578   6.877   1.894
31954SOL     OW97758   2.221   2.984   4.586
31954SOL    HW197759   2.226   2.918   4.517
31954SOL    HW297760   2.128   2.991   4.607
31955SOL     OW97761   7.420   8.593   3.898
31955SOL    HW197762   7.375   8.652   3.837
31955SOL    HW297763   7.356   8.526   3.918
31956SOL     OW97764   0.847  11.026   6.046
31956SOL    HW197765   0.823  11.039   5.954
31956SOL    HW297766   0.925  11.080   6.058
31957SOL     OW97767   5.756   1.252  14.471
31957SOL    HW197768   5.779   1.160  14.460
31957SOL    HW297769   5.826   1.288  14.526
31958SOL     OW97770   4.234   9.592  11.809
31958SOL    HW197771   4.283   9.538  11.872
31958SOL    HW297772   4.299   9.650  11.771
31959SOL     OW97773  14.252  13.491   3.254
31959SOL    HW197774  14.322  13.554   3.238
31959SOL    HW297775  14.286  13.408   3.221
31960SOL     OW97776  13.381  14.515  13.797
31960SOL    HW197777  13.470  14.543  13.816
31960SOL    HW297778  13.337  14.513  13.882
31961SOL     OW97779   9.738   4.858   8.681
31961SOL    HW197780   9.830   4.834   8.665
31961SOL    HW297781   9.723   4.835   8.773
31962SOL     OW97782   1.389   9.108   6.563
31962SOL    HW197783   1.345   9.119   6.478
31962SOL    HW297784   1.359   9.182   6.615
31963SOL     OW97785  10.098   2.997  12.181
31963SOL    HW197786  10.161   2.939  12.224
31963SOL    HW297787  10.081   3.065  12.247
31964SOL     OW97788  14.330   2.844  13.557
31964SOL    HW197789  14.358   2.856  13.466
31964SOL    HW297790  14.237   2.819  13.550
31965SOL     OW97791   5.442  12.621  11.105
31965SOL    HW197792   5.522  12.630  11.053
31965SOL    HW297793   5.464  12.661  11.189
31966SOL     OW97794   5.206   3.606   9.083
31966SOL    HW197795   5.127   3.617   9.029
31966SOL    HW297796   5.270   3.567   9.023
31967SOL     OW97797  12.452  14.510   6.656
31967SOL    HW197798  12.541  14.475   6.667
31967SOL    HW297799  12.459  14.601   6.685
31968SOL     OW97800  11.913  14.172   6.445
31968SOL    HW197801  11.963  14.120   6.381
31968SOL    HW297802  11.822  14.147   6.430
31969SOL     OW97803   8.109   4.086   2.079
31969SOL    HW197804   8.124   4.156   2.143
31969SOL    HW297805   8.033   4.039   2.113
31970SOL     OW97806  12.993   1.320  14.657
31970SOL    HW197807  13.071   1.314  14.713
31970SOL    HW297808  13.007   1.253  14.590
31971SOL     OW97809   1.493   6.456  14.252
31971SOL    HW197810   1.480   6.550  14.258
31971SOL    HW297811   1.409   6.422  14.219
31972SOL     OW97812  10.452  12.705   2.782
31972SOL    HW197813  10.375  12.760   2.770
31972SOL    HW297814  10.511  12.759   2.836
31973SOL     OW97815   3.415   3.760   8.349
31973SOL    HW197816   3.352   3.740   8.418
31973SOL    HW297817   3.362   3.793   8.277
31974SOL     OW97818   3.166   4.024   5.812
31974SOL    HW197819   3.130   3.995   5.728
31974SOL    HW297820   3.194   3.943   5.855
31975SOL     OW97821  13.716   6.049   7.110
31975SOL    HW197822  13.624   6.074   7.104
31975SOL    HW297823  13.730   5.991   7.035
31976SOL     OW97824   4.224  11.864  10.878
31976SOL    HW197825   4.158  11.819  10.932
31976SOL    HW297826   4.291  11.892  10.941
31977SOL     OW97827  14.453   5.977  11.778
31977SOL    HW197828  14.474   6.065  11.807
31977SOL    HW297829  14.533   5.946  11.735
31978SOL     OW97830   6.499   3.443   5.136
31978SOL    HW197831   6.443   3.511   5.100
31978SOL    HW297832   6.440   3.369   5.151
31979SOL     OW97833   0.717   1.211   1.939
31979SOL    HW197834   0.718   1.127   1.985
31979SOL    HW297835   0.638   1.255   1.970
31980SOL     OW97836  12.388   4.700   8.533
31980SOL    HW197837  12.306   4.652   8.536
31980SOL    HW297838  12.362   4.791   8.519
31981SOL     OW97839   0.877   5.261   9.775
31981SOL    HW197840   0.782   5.249   9.766
31981SOL    HW297841   0.891   5.353   9.753
31982SOL     OW97842  12.014  13.405   4.145
31982SOL    HW197843  12.090  13.376   4.197
31982SOL    HW297844  11.951  13.334   4.154
31983SOL     OW97845   7.656   7.889   0.447
31983SOL    HW197846   7.608   7.844   0.517
31983SOL    HW297847   7.595   7.956   0.416
31984SOL     OW97848   0.304   7.501   2.634
31984SOL    HW197849   0.287   7.422   2.583
31984SOL    HW297850   0.321   7.568   2.569
31985SOL     OW97851  13.847   7.732   1.179
31985SOL    HW197852  13.836   7.692   1.265
31985SOL    HW297853  13.863   7.659   1.120
31986SOL     OW97854   5.107   7.085   6.144
31986SOL    HW197855   5.098   7.128   6.229
31986SOL    HW297856   5.201   7.068   6.135
31987SOL     OW97857   4.154  11.378   1.428
31987SOL    HW197858   4.175  11.367   1.520
31987SOL    HW297859   4.124  11.468   1.420
31988SOL     OW97860   2.180  10.981   5.170
31988SOL    HW197861   2.091  11.014   5.161
31988SOL    HW297862   2.199  10.940   5.086
31989SOL     OW97863  10.770  14.025   4.098
31989SOL    HW197864  10.710  13.958   4.064
31989SOL    HW297865  10.855  13.982   4.103
31990SOL     OW97866  13.213   6.493   5.417
31990SOL    HW197867  13.156   6.416   5.420
31990SOL    HW297868  13.298   6.459   5.389
31991SOL     OW97869   8.958   4.755   8.489
31991SOL    HW197870   8.990   4.694   8.555
31991SOL    HW297871   8.863   4.749   8.495
31992SOL     OW97872  12.959   3.569   9.519
31992SOL    HW197873  12.871   3.602   9.499
31992SOL    HW297874  12.948   3.518   9.599
31993SOL     OW97875   6.771   0.238   2.026
31993SOL    HW197876   6.840   0.189   1.982
31993SOL    HW297877   6.783   0.328   1.997
31994SOL     OW97878   6.557   8.422   5.912
31994SOL    HW197879   6.594   8.456   5.831
31994SOL    HW297880   6.474   8.469   5.923
31995SOL     OW97881   9.916   7.933   9.664
31995SOL    HW197882   9.914   7.895   9.752
31995SOL    HW297883   9.830   7.913   9.628
31996SOL     OW97884  10.397   5.436   3.755
31996SOL    HW197885  10.334   5.364   3.759
31996SOL    HW297886  10.482   5.395   3.764
31997SOL     OW97887   2.902   2.078   3.033
31997SOL    HW197888   2.923   2.023   2.957
31997SOL    HW297889   2.848   2.022   3.089
31998SOL     OW97890   9.984  10.810   1.000
31998SOL    HW197891  10.048  10.880   0.985
31998SOL    HW297892   9.949  10.790   0.914
31999SOL     OW97893   8.300  10.022  12.710
31999SOL    HW197894   8.280   9.985  12.796
31999SOL    HW297895   8.307   9.946  12.653
32000SOL     OW97896   6.800   2.076  10.590
32000SOL    HW197897   6.713   2.098  10.556
32000SOL    HW297898   6.833   2.010  10.530
32001SOL     OW97899  13.058   9.753  11.092
32001SOL    HW197900  13.062   9.848  11.086
32001SOL    HW297901  13.070   9.734  11.185
32002SOL     OW97902   0.762  12.427   1.872
32002SOL    HW197903   0.720  12.376   1.803
32002SOL    HW297904   0.742  12.518   1.850
32003SOL     OW97905  13.489  12.333  11.856
32003SOL    HW197906  13.424  12.373  11.914
32003SOL    HW297907  13.458  12.242  11.845
32004SOL     OW97908   4.464   8.480   5.205
32004SOL    HW197909   4.446   8.451   5.294
32004SOL    HW297910   4.454   8.575   5.209
32005SOL     OW97911   2.279   1.241   8.101
32005SOL    HW197912   2.225   1.310   8.139
32005SOL    HW297913   2.349   1.228   8.165
32006SOL     OW97914   1.427   2.026  13.501
32006SOL    HW197915   1.410   1.971  13.425
32006SOL    HW297916   1.352   2.013  13.559
32007SOL     OW97917   2.284  11.351  13.590
32007SOL    HW197918   2.343  11.294  13.541
32007SOL    HW297919   2.210  11.365  13.531
32008SOL     OW97920   3.641   3.930   9.919
32008SOL    HW197921   3.625   4.010   9.970
32008SOL    HW297922   3.571   3.929   9.853
32009SOL     OW97923   6.125   9.716   4.617
32009SOL    HW197924   6.161   9.760   4.694
32009SOL    HW297925   6.056   9.660   4.651
32010SOL     OW97926  12.974  13.243   9.426
32010SOL    HW197927  12.889  13.233   9.470
32010SOL    HW297928  13.037  13.247   9.498
32011SOL     OW97929   5.027  11.811   2.527
32011SOL    HW197930   4.952  11.870   2.536
32011SOL    HW297931   4.996  11.742   2.469
32012SOL     OW97932   2.595   4.507   0.364
32012SOL    HW197933   2.504   4.479   0.373
32012SOL    HW297934   2.646   4.427   0.369
32013SOL     OW97935   0.109  13.240  11.153
32013SOL    HW197936   0.061  13.260  11.233
32013SOL    HW297937   0.193  13.204  11.183
32014SOL     OW97938   6.925  14.132   8.890
32014SOL    HW197939   6.850  14.191   8.877
32014SOL    HW297940   6.979  14.177   8.954
32015SOL     OW97941   4.038  13.021  10.734
32015SOL    HW197942   3.968  12.969  10.694
32015SOL    HW297943   4.102  13.033  10.664
32016SOL     OW97944  11.938   5.605  10.586
32016SOL    HW197945  11.933   5.558  10.669
32016SOL    HW297946  11.915   5.696  10.609
32017SOL     OW97947  14.876   8.993   9.534
32017SOL    HW197948  14.846   8.922   9.591
32017SOL    HW297949  14.840   8.972   9.448
32018SOL     OW97950   2.519  12.508   4.047
32018SOL    HW197951   2.516  12.521   4.142
32018SOL    HW297952   2.457  12.438   4.030
32019SOL     OW97953   9.924   4.294  12.586
32019SOL    HW197954   9.867   4.241  12.531
32019SOL    HW297955  10.008   4.296  12.538
32020SOL     OW97956   8.993   1.385   8.336
32020SOL    HW197957   9.083   1.387   8.370
32020SOL    HW297958   8.993   1.312   8.274
32021SOL     OW97959   6.723  13.775   8.982
32021SOL    HW197960   6.757  13.833   8.914
32021SOL    HW297961   6.801  13.735   9.021
32022SOL     OW97962   1.966   8.376   6.232
32022SOL    HW197963   1.916   8.296   6.249
32022SOL    HW297964   1.993   8.407   6.319
32023SOL     OW97965  12.450   5.616  14.475
32023SOL    HW197966  12.479   5.700  14.511
32023SOL    HW297967  12.495   5.550  14.528
32024SOL     OW97968   5.599   5.598  11.970
32024SOL    HW197969   5.573   5.688  11.954
32024SOL    HW297970   5.692   5.595  11.946
32025SOL     OW97971   6.141   8.388   9.865
32025SOL    HW197972   6.197   8.319   9.830
32025SOL    HW297973   6.199   8.440   9.921
32026SOL     OW97974   4.965   8.076  14.155
32026SOL    HW197975   4.945   8.015  14.084
32026SOL    HW297976   5.060   8.072  14.164
32027SOL     OW97977   3.073   4.866   3.991
32027SOL    HW197978   3.050   4.780   3.956
32027SOL    HW297979   3.003   4.924   3.960
32028SOL     OW97980   9.101  10.116   9.290
32028SOL    HW197981   9.176  10.066   9.324
32028SOL    HW297982   9.082  10.180   9.358
32029SOL     OW97983  10.396   9.556  11.966
32029SOL    HW197984  10.367   9.643  11.994
32029SOL    HW297985  10.410   9.508  12.048
32030SOL     OW97986  10.381  12.637   8.457
32030SOL    HW197987  10.460  12.604   8.414
32030SOL    HW297988  10.396  12.622   8.550
32031SOL     OW97989  12.112  14.291  12.548
32031SOL    HW197990  12.193  14.240  12.550
32031SOL    HW297991  12.084  14.289  12.457
32032SOL     OW97992   3.562   5.974  11.161
32032SOL    HW197993   3.620   6.003  11.231
32032SOL    HW297994   3.600   6.012  11.081
32033SOL     OW97995   3.099   0.508  12.382
32033SOL    HW197996   3.032   0.451  12.344
32033SOL    HW297997   3.054   0.590  12.400
32034SOL     OW97998   6.192   3.463   2.349
32034SOL    HW197999   6.143   3.400   2.401
32034SOL    HW298000   6.130   3.493   2.282
32035SOL     OW98001   5.527  14.686   8.224
32035SOL    HW198002   5.472  14.703   8.147
32035SOL    HW298003   5.617  14.692   8.191
32036SOL     OW98004  12.493   3.127   8.674
32036SOL    HW198005  12.513   3.058   8.611
32036SOL    HW298006  12.577   3.145   8.717
32037SOL     OW98007   9.007   6.431   0.266
32037SOL    HW198008   8.955   6.359   0.229
32037SOL    HW298009   8.959   6.510   0.241
32038SOL     OW98010   1.945   8.559  13.278
32038SOL    HW198011   2.018   8.603  13.322
32038SOL    HW298012   1.957   8.578  13.185
32039SOL     OW98013   7.381  13.890   4.152
32039SOL    HW198014   7.403  13.798   4.166
32039SOL    HW298015   7.286  13.894   4.164
32040SOL     OW98016  14.775  13.385   5.357
32040SOL    HW198017  14.693  13.360   5.399
32040SOL    HW298018  14.843  13.355   5.417
32041SOL     OW98019   2.209   5.558   2.056
32041SOL    HW198020   2.154   5.554   2.135
32041SOL    HW298021   2.190   5.643   2.018
32042SOL     OW98022   0.651   9.104   3.689
32042SOL    HW198023   0.629   9.044   3.618
32042SOL    HW298024   0.722   9.061   3.736
32043SOL     OW98025   3.776   1.966   4.702
32043SOL    HW198026   3.871   1.954   4.698
32043SOL    HW298027   3.755   1.958   4.795
32044SOL     OW98028  13.162   4.188  13.059
32044SOL    HW198029  13.145   4.278  13.031
32044SOL    HW298030  13.083   4.163  13.109
32045SOL     OW98031  12.229   1.655   4.097
32045SOL    HW198032  12.191   1.650   4.009
32045SOL    HW298033  12.193   1.736   4.134
32046SOL     OW98034  12.082  10.585   9.227
32046SOL    HW198035  12.057  10.633   9.147
32046SOL    HW298036  11.999  10.564   9.269
32047SOL     OW98037   9.183  11.088   4.398
32047SOL    HW198038   9.225  11.137   4.328
32047SOL    HW298039   9.238  11.010   4.409
32048SOL     OW98040   8.139   0.472   2.515
32048SOL    HW198041   8.085   0.455   2.438
32048SOL    HW298042   8.222   0.427   2.497
32049SOL     OW98043   4.760   5.861   1.426
32049SOL    HW198044   4.796   5.820   1.505
32049SOL    HW298045   4.790   5.805   1.354
32050SOL     OW98046   5.607   5.765   5.210
32050SOL    HW198047   5.576   5.854   5.229
32050SOL    HW298048   5.611   5.722   5.295
32051SOL     OW98049   1.909   2.164   9.331
32051SOL    HW198050   1.866   2.249   9.330
32051SOL    HW298051   1.837   2.101   9.338
32052SOL     OW98052   8.834  11.207  12.504
32052SOL    HW198053   8.877  11.221  12.420
32052SOL    HW298054   8.782  11.128  12.491
32053SOL     OW98055  13.421   1.243   6.759
32053SOL    HW198056  13.392   1.155   6.733
32053SOL    HW298057  13.439   1.234   6.853
32054SOL     OW98058  13.773  10.435  10.280
32054SOL    HW198059  13.737  10.516  10.243
32054SOL    HW298060  13.867  10.442  10.268
32055SOL     OW98061   0.483   8.314   1.422
32055SOL    HW198062   0.552   8.282   1.364
32055SOL    HW298063   0.417   8.350   1.363
32056SOL     OW98064  13.153   4.819   1.416
32056SOL    HW198065  13.137   4.893   1.475
32056SOL    HW298066  13.151   4.742   1.473
32057SOL     OW98067   5.131   7.589   2.760
32057SOL    HW198068   5.226   7.590   2.770
32057SOL    HW298069   5.098   7.635   2.837
32058SOL     OW98070   4.979   1.088   7.333
32058SOL    HW198071   4.903   1.034   7.311
32058SOL    HW298072   4.991   1.145   7.257
32059SOL     OW98073   6.455  14.363   1.138
32059SOL    HW198074   6.427  14.284   1.185
32059SOL    HW298075   6.420  14.435   1.191
32060SOL     OW98076   3.817   2.334   3.809
32060SOL    HW198077   3.727   2.366   3.812
32060SOL    HW298078   3.833   2.317   3.716
32061SOL     OW98079   8.609  13.759   1.952
32061SOL    HW198080   8.620  13.714   2.036
32061SOL    HW298081   8.673  13.717   1.894
32062SOL     OW98082   7.243   0.339  11.345
32062SOL    HW198083   7.227   0.428  11.376
32062SOL    HW298084   7.246   0.346  11.250
32063SOL     OW98085   8.675  12.903  14.203
32063SOL    HW198086   8.681  12.957  14.124
32063SOL    HW298087   8.589  12.922  14.238
32064SOL     OW98088  13.532   1.795   1.681
32064SOL    HW198089  13.570   1.840   1.606
32064SOL    HW298090  13.453   1.752   1.647
32065SOL     OW98091   1.212   7.784   9.549
32065SOL    HW198092   1.156   7.858   9.571
32065SOL    HW298093   1.231   7.795   9.456
32066SOL     OW98094  12.036   0.894   2.825
32066SOL    HW198095  12.013   0.960   2.890
32066SOL    HW298096  12.017   0.934   2.741
32067SOL     OW98097   9.132   9.198  14.758
32067SOL    HW198098   9.051   9.160  14.725
32067SOL    HW298099   9.195   9.126  14.755
32068SOL     OW98100   5.961   7.861  11.103
32068SOL    HW198101   5.901   7.934  11.087
32068SOL    HW298102   6.037   7.880  11.047
32069SOL     OW98103  11.919   0.049  11.591
32069SOL    HW198104  11.965   0.114  11.538
32069SOL    HW298105  11.981   0.025  11.660
32070SOL     OW98106   2.386  10.220   9.110
32070SOL    HW198107   2.358  10.268   9.188
32070SOL    HW298108   2.385  10.286   9.041
32071SOL     OW98109  13.782   7.769  10.257
32071SOL    HW198110  13.752   7.715  10.183
32071SOL    HW298111  13.834   7.838  10.216
32072SOL     OW98112   1.389   1.135  14.158
32072SOL    HW198113   1.440   1.158  14.236
32072SOL    HW298114   1.380   1.217  14.111
32073SOL     OW98115  13.118  11.436   3.860
32073SOL    HW198116  13.126  11.351   3.904
32073SOL    HW298117  13.208  11.465   3.849
32074SOL     OW98118   4.467   6.374  14.425
32074SOL    HW198119   4.495   6.334  14.507
32074SOL    HW298120   4.512   6.324  14.357
32075SOL     OW98121   4.882   8.355  12.551
32075SOL    HW198122   4.792   8.322  12.550
32075SOL    HW298123   4.877   8.437  12.599
32076SOL     OW98124  11.769   4.291  11.303
32076SOL    HW198125  11.809   4.373  11.274
32076SOL    HW298126  11.791   4.286  11.396
32077SOL     OW98127   3.551   3.173   0.614
32077SOL    HW198128   3.619   3.196   0.551
32077SOL    HW298129   3.594   3.179   0.699
32078SOL     OW98130  11.969   1.388  14.177
32078SOL    HW198131  11.905   1.345  14.234
32078SOL    HW298132  12.028   1.434  14.238
32079SOL     OW98133   5.735   9.076   3.368
32079SOL    HW198134   5.736   9.129   3.448
32079SOL    HW298135   5.799   9.007   3.384
32080SOL     OW98136   2.402   3.957   4.403
32080SOL    HW198137   2.490   3.989   4.422
32080SOL    HW298138   2.370   3.921   4.486
32081SOL     OW98139  11.718  13.931  14.631
32081SOL    HW198140  11.710  13.955  14.539
32081SOL    HW298141  11.633  13.895  14.654
32082SOL     OW98142  10.596   0.862   1.059
32082SOL    HW198143  10.678   0.881   1.013
32082SOL    HW298144  10.530   0.857   0.990
32083SOL     OW98145  13.400   8.092   7.757
32083SOL    HW198146  13.320   8.043   7.735
32083SOL    HW298147  13.397   8.170   7.701
32084SOL     OW98148   2.677   2.380  14.147
32084SOL    HW198149   2.586   2.386  14.118
32084SOL    HW298150   2.702   2.290  14.129
32085SOL     OW98151   0.786   9.410   6.204
32085SOL    HW198152   0.746   9.484   6.250
32085SOL    HW298153   0.715   9.347   6.193
32086SOL     OW98154   4.681  10.779  12.459
32086SOL    HW198155   4.726  10.768  12.375
32086SOL    HW298156   4.707  10.703  12.511
32087SOL     OW98157   7.015   9.124  14.186
32087SOL    HW198158   6.946   9.081  14.236
32087SOL    HW298159   6.987   9.215  14.180
32088SOL     OW98160   7.167  13.830  10.336
32088SOL    HW198161   7.076  13.839  10.306
32088SOL    HW298162   7.177  13.737  10.355
32089SOL     OW98163   8.945  10.609  13.035
32089SOL    HW198164   8.911  10.556  13.107
32089SOL    HW298165   9.039  10.593  13.035
32090SOL     OW98166  14.527   3.782   6.476
32090SOL    HW198167  14.519   3.777   6.571
32090SOL    HW298168  14.559   3.696   6.450
32091SOL     OW98169  12.614   5.601  14.259
32091SOL    HW198170  12.691   5.656  14.277
32091SOL    HW298171  12.558   5.612  14.335
32092SOL     OW98172   1.445   9.116  11.154
32092SOL    HW198173   1.419   9.085  11.241
32092SOL    HW298174   1.363   9.142  11.113
32093SOL     OW98175   8.476   0.908   0.800
32093SOL    HW198176   8.475   0.990   0.849
32093SOL    HW298177   8.443   0.843   0.862
32094SOL     OW98178   9.662   5.036   3.732
32094SOL    HW198179   9.747   5.077   3.743
32094SOL    HW298180   9.622   5.040   3.818
32095SOL     OW98181  13.046  12.904   4.468
32095SOL    HW198182  13.046  12.905   4.564
32095SOL    HW298183  13.022  12.814   4.445
32096SOL     OW98184   6.857  14.560  14.158
32096SOL    HW198185   6.857  14.627  14.226
32096SOL    HW298186   6.766  14.559  14.127
32097SOL     OW98187   9.317   2.116  10.845
32097SOL    HW198188   9.391   2.085  10.897
32097SOL    HW298189   9.256   2.152  10.910
32098SOL     OW98190   3.407   2.032  10.070
32098SOL    HW198191   3.322   2.040  10.027
32098SOL    HW298192   3.467   2.081  10.013
32099SOL     OW98193  12.598  11.075   1.099
32099SOL    HW198194  12.651  11.012   1.049
32099SOL    HW298195  12.637  11.074   1.187
32100SOL     OW98196   8.194   4.619   3.916
32100SOL    HW198197   8.160   4.692   3.863
32100SOL    HW298198   8.288   4.619   3.900
32101SOL     OW98199   1.423   0.973   1.114
32101SOL    HW198200   1.373   0.892   1.112
32101SOL    HW298201   1.486   0.965   1.042
32102SOL     OW98202   1.614  12.296   0.396
32102SOL    HW198203   1.608  12.367   0.333
32102SOL    HW298204   1.555  12.229   0.362
32103SOL     OW98205   6.256   4.888  11.116
32103SOL    HW198206   6.255   4.981  11.139
32103SOL    HW298207   6.234   4.843  11.198
32104SOL     OW98208   2.654  11.727   9.935
32104SOL    HW198209   2.650  11.689  10.023
32104SOL    HW298210   2.662  11.821   9.950
32105SOL     OW98211   7.956   5.488  14.461
32105SOL    HW198212   7.910   5.568  14.486
32105SOL    HW298213   8.035   5.488  14.515
32106SOL     OW98214  13.939   3.731  12.193
32106SOL    HW198215  13.901   3.786  12.261
32106SOL    HW298216  13.873   3.730  12.124
32107SOL     OW98217  13.158  12.142   7.772
32107SOL    HW198218  13.251  12.159   7.759
32107SOL    HW298219  13.154  12.057   7.815
32108SOL     OW98220  14.355   4.646   2.495
32108SOL    HW198221  14.386   4.733   2.470
32108SOL    HW298222  14.398   4.627   2.579
32109SOL     OW98223   1.468   6.812  11.848
32109SOL    HW198224   1.515   6.868  11.786
32109SOL    HW298225   1.376   6.822  11.824
32110SOL     OW98226  13.097   3.213   8.076
32110SOL    HW198227  13.189   3.235   8.091
32110SOL    HW298228  13.063   3.288   8.027
32111SOL     OW98229  14.449  14.282   5.858
32111SOL    HW198230  14.464  14.212   5.794
32111SOL    HW298231  14.414  14.355   5.807
32112SOL     OW98232   1.209   7.861   0.723
32112SOL    HW198233   1.220   7.767   0.709
32112SOL    HW298234   1.198   7.871   0.818
32113SOL     OW98235   0.425   6.853   8.253
32113SOL    HW198236   0.407   6.811   8.169
32113SOL    HW298237   0.503   6.906   8.237
32114SOL     OW98238   3.571   6.726   4.944
32114SOL    HW198239   3.514   6.788   4.988
32114SOL    HW298240   3.606   6.775   4.869
32115SOL     OW98241   0.218   5.738  11.083
32115SOL    HW198242   0.139   5.709  11.129
32115SOL    HW298243   0.220   5.833  11.098
32116SOL     OW98244  13.118  10.976  11.556
32116SOL    HW198245  13.159  11.019  11.631
32116SOL    HW298246  13.113  11.044  11.489
32117SOL     OW98247   3.503  13.604   8.005
32117SOL    HW198248   3.552  13.665   7.949
32117SOL    HW298249   3.413  13.636   8.001
32118SOL     OW98250   2.320  12.427   0.973
32118SOL    HW198251   2.317  12.521   0.952
32118SOL    HW298252   2.390  12.393   0.918
32119SOL     OW98253  14.184  12.137   9.750
32119SOL    HW198254  14.139  12.091   9.821
32119SOL    HW298255  14.116  12.150   9.683
32120SOL     OW98256   5.239  12.886   8.996
32120SOL    HW198257   5.202  12.805   9.029
32120SOL    HW298258   5.280  12.862   8.913
32121SOL     OW98259   5.814   2.327   6.528
32121SOL    HW198260   5.740   2.294   6.477
32121SOL    HW298261   5.808   2.280   6.611
32122SOL     OW98262  13.769  12.423   8.159
32122SOL    HW198263  13.785  12.337   8.120
32122SOL    HW298264  13.856  12.463   8.165
32123SOL     OW98265  13.985   6.028   5.069
32123SOL    HW198266  13.947   6.105   5.111
32123SOL    HW298267  14.007   6.057   4.981
32124SOL     OW98268  12.709   4.874  13.886
32124SOL    HW198269  12.639   4.938  13.874
32124SOL    HW298270  12.670   4.805  13.940
32125SOL     OW98271   6.394  12.034   3.378
32125SOL    HW198272   6.385  11.953   3.327
32125SOL    HW298273   6.488  12.039   3.397
32126SOL     OW98274   8.245   2.539   7.466
32126SOL    HW198275   8.229   2.558   7.559
32126SOL    HW298276   8.176   2.587   7.420
32127SOL     OW98277   0.088   6.618  10.639
32127SOL    HW198278   0.144   6.566  10.582
32127SOL    HW298279   0.066   6.695  10.586
32128SOL     OW98280   7.263   2.870   9.643
32128SOL    HW198281   7.169   2.887   9.656
32128SOL    HW298282   7.265   2.785   9.599
32129SOL     OW98283   9.886  13.116  13.112
32129SOL    HW198284   9.844  13.071  13.185
32129SOL    HW298285   9.821  13.179  13.080
32130SOL     OW98286   5.226   6.029   2.883
32130SOL    HW198287   5.195   5.988   2.963
32130SOL    HW298288   5.214   6.123   2.897
32131SOL     OW98289   9.001   3.404  11.933
32131SOL    HW198290   8.958   3.389  11.849
32131SOL    HW298291   9.038   3.319  11.956
32132SOL     OW98292   1.404  11.990   2.379
32132SOL    HW198293   1.375  12.075   2.413
32132SOL    HW298294   1.468  12.013   2.311
32133SOL     OW98295   4.240  12.931   4.618
32133SOL    HW198296   4.298  12.856   4.623
32133SOL    HW298297   4.255  12.968   4.530
32134SOL     OW98298   6.921   0.844   1.066
32134SOL    HW198299   6.914   0.871   1.158
32134SOL    HW298300   6.955   0.755   1.070
32135SOL     OW98301  14.687   4.529   3.246
32135SOL    HW198302  14.719   4.616   3.224
32135SOL    HW298303  14.728   4.471   3.181
32136SOL     OW98304  13.802  10.651  14.119
32136SOL    HW198305  13.710  10.624  14.124
32136SOL    HW298306  13.835  10.610  14.040
32137SOL     OW98307  11.091   6.973  14.475
32137SOL    HW198308  11.094   7.014  14.388
32137SOL    HW298309  10.998   6.958  14.491
32138SOL     OW98310   2.898  14.346   7.310
32138SOL    HW198311   2.904  14.353   7.215
32138SOL    HW298312   2.880  14.254   7.327
32139SOL     OW98313   1.102  11.300   8.626
32139SOL    HW198314   1.171  11.257   8.575
32139SOL    HW298315   1.028  11.307   8.566
32140SOL     OW98316   7.869   9.328  10.578
32140SOL    HW198317   7.922   9.311  10.655
32140SOL    HW298318   7.933   9.337  10.507
32141SOL     OW98319   8.168   9.713   6.586
32141SOL    HW198320   8.209   9.666   6.514
32141SOL    HW298321   8.075   9.716   6.565
32142SOL     OW98322   9.564   3.452  13.815
32142SOL    HW198323   9.474   3.474  13.843
32142SOL    HW298324   9.554   3.427  13.723
32143SOL     OW98325  11.909  11.812   9.178
32143SOL    HW198326  11.840  11.762   9.135
32143SOL    HW298327  11.894  11.798   9.272
32144SOL     OW98328   0.659  12.119  12.508
32144SOL    HW198329   0.631  12.032  12.535
32144SOL    HW298330   0.755  12.115  12.509
32145SOL     OW98331   4.848  14.406   6.219
32145SOL    HW198332   4.830  14.323   6.264
32145SOL    HW298333   4.932  14.392   6.176
32146SOL     OW98334  12.839   8.674  10.727
32146SOL    HW198335  12.928   8.657  10.757
32146SOL    HW298336  12.834   8.631  10.641
32147SOL     OW98337   8.666   1.576  13.731
32147SOL    HW198338   8.605   1.520  13.683
32147SOL    HW298339   8.623   1.661  13.734
32148SOL     OW98340   9.863   6.239   4.369
32148SOL    HW198341   9.910   6.164   4.334
32148SOL    HW298342   9.865   6.304   4.298
32149SOL     OW98343   2.239   7.732  14.519
32149SOL    HW198344   2.213   7.653  14.566
32149SOL    HW298345   2.271   7.791  14.588
32150SOL     OW98346  11.460   8.187  12.752
32150SOL    HW198347  11.460   8.091  12.750
32150SOL    HW298348  11.373   8.211  12.718
32151SOL     OW98349  10.696  14.431   4.208
32151SOL    HW198350  10.705  14.524   4.188
32151SOL    HW298351  10.765  14.389   4.157
32152SOL     OW98352  10.473   4.973   1.552
32152SOL    HW198353  10.417   5.042   1.517
32152SOL    HW298354  10.467   4.902   1.488
32153SOL     OW98355   8.749   4.234  13.347
32153SOL    HW198356   8.766   4.150  13.389
32153SOL    HW298357   8.751   4.216  13.253
32154SOL     OW98358   7.373   6.749   0.836
32154SOL    HW198359   7.351   6.842   0.833
32154SOL    HW298360   7.324   6.710   0.764
32155SOL     OW98361  14.869   7.531  12.290
32155SOL    HW198362  14.791   7.476  12.299
32155SOL    HW298363   0.060   7.471  12.301
32156SOL     OW98364   2.558   2.717  11.487
32156SOL    HW198365   2.517   2.787  11.436
32156SOL    HW298366   2.553   2.640  11.431
32157SOL     OW98367   4.958   6.525   9.845
32157SOL    HW198368   4.872   6.491   9.820
32157SOL    HW298369   4.943   6.569   9.929
32158SOL     OW98370   4.871   1.591   1.336
32158SOL    HW198371   4.786   1.550   1.353
32158SOL    HW298372   4.864   1.626   1.247
32159SOL     OW98373   8.964   1.912   6.693
32159SOL    HW198374   8.961   1.927   6.599
32159SOL    HW298375   8.954   1.817   6.703
32160SOL     OW98376   7.945   9.962   0.026
32160SOL    HW198377   7.853   9.975   0.006
32160SOL    HW298378   7.946   9.919   0.111
32161SOL     OW98379   1.971   8.766   3.160
32161SOL    HW198380   2.037   8.729   3.218
32161SOL    HW298381   1.889   8.728   3.190
32162SOL     OW98382   7.310   2.028  10.821
32162SOL    HW198383   7.289   1.936  10.809
32162SOL    HW298384   7.404   2.029  10.838
32163SOL     OW98385   6.558   5.526   2.321
32163SOL    HW198386   6.568   5.543   2.415
32163SOL    HW298387   6.480   5.471   2.314
32164SOL     OW98388   1.074   2.813   9.816
32164SOL    HW198389   1.128   2.744   9.777
32164SOL    HW298390   0.987   2.773   9.825
32165SOL     OW98391  14.737  11.684   9.730
32165SOL    HW198392  14.740  11.744   9.805
32165SOL    HW298393  14.678  11.727   9.668
32166SOL     OW98394   5.782  12.179   8.336
32166SOL    HW198395   5.748  12.261   8.372
32166SOL    HW298396   5.704  12.130   8.311
32167SOL     OW98397  12.215   8.063  12.089
32167SOL    HW198398  12.200   8.157  12.106
32167SOL    HW298399  12.299   8.045  12.132
32168SOL     OW98400   1.322  11.797   1.363
32168SOL    HW198401   1.394  11.734   1.370
32168SOL    HW298402   1.243  11.743   1.355
32169SOL     OW98403   0.184  10.138  12.864
32169SOL    HW198404   0.094  10.171  12.861
32169SOL    HW298405   0.176  10.050  12.900
32170SOL     OW98406   9.522   3.572  13.237
32170SOL    HW198407   9.514   3.666  13.220
32170SOL    HW298408   9.466   3.531  13.170
32171SOL     OW98409   9.973   1.298   6.937
32171SOL    HW198410  10.058   1.341   6.942
32171SOL    HW298411   9.922   1.336   7.008
32172SOL     OW98412  12.655   6.643  10.438
32172SOL    HW198413  12.599   6.715  10.409
32172SOL    HW298414  12.599   6.566  10.435
32173SOL     OW98415  13.990  11.520   0.159
32173SOL    HW198416  14.043  11.600   0.169
32173SOL    HW298417  13.992  11.480   0.246
32174SOL     OW98418   1.082   6.842  11.662
32174SOL    HW198419   1.016   6.884  11.607
32174SOL    HW298420   1.075   6.749  11.641
32175SOL     OW98421   7.527   9.862  10.938
32175SOL    HW198422   7.470   9.882  11.012
32175SOL    HW298423   7.615   9.884  10.968
32176SOL     OW98424   4.179   7.172  10.979
32176SOL    HW198425   4.168   7.254  10.931
32176SOL    HW298426   4.206   7.109  10.911
32177SOL     OW98427   5.626  11.755  14.204
32177SOL    HW198428   5.540  11.776  14.240
32177SOL    HW298429   5.642  11.665  14.231
32178SOL     OW98430   6.936   0.434   6.608
32178SOL    HW198431   6.912   0.502   6.672
32178SOL    HW298432   7.031   0.426   6.616
32179SOL     OW98433   7.050  12.259   9.511
32179SOL    HW198434   7.056  12.200   9.586
32179SOL    HW298435   7.015  12.204   9.441
32180SOL     OW98436   3.497  13.220  13.992
32180SOL    HW198437   3.474  13.138  14.037
32180SOL    HW298438   3.489  13.287  14.060
32181SOL     OW98439  13.167  14.453   7.793
32181SOL    HW198440  13.221  14.387   7.837
32181SOL    HW298441  13.108  14.485   7.862
32182SOL     OW98442   4.533   4.392  10.167
32182SOL    HW198443   4.474   4.376  10.094
32182SOL    HW298444   4.608   4.437  10.128
32183SOL     OW98445  12.044   0.364   5.364
32183SOL    HW198446  11.953   0.394   5.362
32183SOL    HW298447  12.096   0.444   5.356
32184SOL     OW98448   6.167  10.353   5.204
32184SOL    HW198449   6.141  10.285   5.141
32184SOL    HW298450   6.156  10.312   5.289
32185SOL     OW98451   2.681  11.107  14.285
32185SOL    HW198452   2.773  11.082  14.286
32185SOL    HW298453   2.682  11.202  14.297
32186SOL     OW98454   5.584   1.106  12.262
32186SOL    HW198455   5.596   1.125  12.355
32186SOL    HW298456   5.578   1.191  12.220
32187SOL     OW98457   1.115   6.845  14.637
32187SOL    HW198458   1.122   6.807  14.550
32187SOL    HW298459   1.107   6.769  14.695
32188SOL     OW98460   6.749   9.698  12.226
32188SOL    HW198461   6.711   9.763  12.286
32188SOL    HW298462   6.676   9.671  12.171
32189SOL     OW98463   0.375   5.391   9.323
32189SOL    HW198464   0.385   5.470   9.271
32189SOL    HW298465   0.452   5.338   9.302
32190SOL     OW98466  10.542   9.963   4.436
32190SOL    HW198467  10.489  10.041   4.423
32190SOL    HW298468  10.600   9.986   4.509
32191SOL     OW98469   7.202   0.265   1.024
32191SOL    HW198470   7.156   0.250   0.941
32191SOL    HW298471   7.280   0.210   1.019
32192SOL     OW98472  10.641   5.041   5.905
32192SOL    HW198473  10.611   4.964   5.857
32192SOL    HW298474  10.617   5.115   5.850
32193SOL     OW98475   7.533   6.945  12.746
32193SOL    HW198476   7.447   6.947  12.788
32193SOL    HW298477   7.529   7.015  12.681
32194SOL     OW98478   5.394   9.872   8.662
32194SOL    HW198479   5.331   9.943   8.657
32194SOL    HW298480   5.384   9.825   8.580
32195SOL     OW98481   9.608  10.699   0.605
32195SOL    HW198482   9.586  10.727   0.516
32195SOL    HW298483   9.560  10.618   0.618
32196SOL     OW98484  13.660  14.827   2.487
32196SOL    HW198485  13.575  14.789   2.464
32196SOL    HW298486  13.712  14.820   2.406
32197SOL     OW98487   0.720   3.320   8.287
32197SOL    HW198488   0.687   3.388   8.346
32197SOL    HW298489   0.662   3.245   8.301
32198SOL     OW98490  10.735   5.581   5.505
32198SOL    HW198491  10.644   5.553   5.515
32198SOL    HW298492  10.736   5.671   5.538
32199SOL     OW98493  13.349   3.185   5.849
32199SOL    HW198494  13.355   3.254   5.914
32199SOL    HW298495  13.287   3.218   5.784
32200SOL     OW98496   2.527   6.463   5.801
32200SOL    HW198497   2.573   6.438   5.720
32200SOL    HW298498   2.523   6.382   5.852
32201SOL     OW98499   8.976   9.681   6.430
32201SOL    HW198500   8.992   9.772   6.455
32201SOL    HW298501   8.911   9.650   6.493
32202SOL     OW98502   0.681   7.300  11.148
32202SOL    HW198503   0.586   7.307  11.136
32202SOL    HW298504   0.692   7.269  11.237
32203SOL     OW98505   7.833   8.898   7.890
32203SOL    HW198506   7.843   8.990   7.913
32203SOL    HW298507   7.907   8.879   7.834
32204SOL     OW98508   0.465   0.563   4.780
32204SOL    HW198509   0.440   0.605   4.862
32204SOL    HW298510   0.498   0.635   4.726
32205SOL     OW98511  10.037   8.276  11.668
32205SOL    HW198512   9.988   8.204  11.709
32205SOL    HW298513  10.019   8.268  11.575
32206SOL     OW98514   5.768  14.600   7.381
32206SOL    HW198515   5.785  14.641   7.296
32206SOL    HW298516   5.673  14.604   7.390
32207SOL     OW98517  12.234   8.528   4.617
32207SOL    HW198518  12.178   8.601   4.643
32207SOL    HW298519  12.236   8.531   4.522
32208SOL     OW98520   5.379   2.025   4.415
32208SOL    HW198521   5.287   2.029   4.438
32208SOL    HW298522   5.420   1.976   4.487
32209SOL     OW98523   7.523   1.370   4.933
32209SOL    HW198524   7.464   1.324   4.873
32209SOL    HW298525   7.469   1.439   4.971
32210SOL     OW98526   7.920   9.877   7.170
32210SOL    HW198527   7.921   9.868   7.265
32210SOL    HW298528   8.002   9.923   7.150
32211SOL     OW98529   1.226  10.672  11.708
32211SOL    HW198530   1.298  10.648  11.649
32211SOL    HW298531   1.147  10.654  11.657
32212SOL     OW98532   6.319  11.340   5.909
32212SOL    HW198533   6.340  11.342   5.815
32212SOL    HW298534   6.230  11.305   5.913
32213SOL     OW98535   5.226  13.966   6.025
32213SOL    HW198536   5.133  13.943   6.015
32213SOL    HW298537   5.225  14.048   6.074
32214SOL     OW98538   0.676   1.952  12.918
32214SOL    HW198539   0.753   1.987  12.963
32214SOL    HW298540   0.711   1.900  12.846
32215SOL     OW98541  10.280   4.315   0.186
32215SOL    HW198542  10.237   4.360   0.113
32215SOL    HW298543  10.208   4.272   0.232
32216SOL     OW98544   5.477   0.247   4.842
32216SOL    HW198545   5.504   0.177   4.782
32216SOL    HW298546   5.431   0.201   4.913
32217SOL     OW98547  10.055  10.385   4.046
32217SOL    HW198548   9.997  10.319   4.084
32217SOL    HW298549  10.140  10.342   4.042
32218SOL     OW98550  11.414  13.651  13.296
32218SOL    HW198551  11.328  13.689  13.316
32218SOL    HW298552  11.417  13.649  13.201
32219SOL     OW98553   6.466  13.891   2.038
32219SOL    HW198554   6.485  13.828   1.969
32219SOL    HW298555   6.478  13.977   1.997
32220SOL     OW98556   2.921  12.122   4.228
32220SOL    HW198557   2.963  12.039   4.208
32220SOL    HW298558   2.989  12.188   4.214
32221SOL     OW98559  14.219   6.323   3.724
32221SOL    HW198560  14.174   6.247   3.688
32221SOL    HW298561  14.213   6.313   3.819
32222SOL     OW98562   0.313  10.050   7.830
32222SOL    HW198563   0.239  10.095   7.871
32222SOL    HW298564   0.354  10.117   7.775
32223SOL     OW98565  10.990   9.028  13.927
32223SOL    HW198566  11.064   8.969  13.941
32223SOL    HW298567  10.987   9.082  14.006
32224SOL     OW98568   6.493   3.811  10.100
32224SOL    HW198569   6.542   3.754  10.041
32224SOL    HW298570   6.414   3.761  10.120
32225SOL     OW98571   9.288   4.379  13.687
32225SOL    HW198572   9.302   4.412  13.599
32225SOL    HW298573   9.334   4.441  13.744
32226SOL     OW98574   7.526  14.613  14.143
32226SOL    HW198575   7.575  14.583  14.220
32226SOL    HW298576   7.483  14.693  14.173
32227SOL     OW98577   1.032   3.696   9.769
32227SOL    HW198578   1.001   3.786   9.780
32227SOL    HW298579   0.953   3.645   9.753
32228SOL     OW98580   1.066  13.052  10.783
32228SOL    HW198581   1.115  13.050  10.865
32228SOL    HW298582   1.126  13.094  10.721
32229SOL     OW98583   6.427   7.655  10.693
32229SOL    HW198584   6.339   7.687  10.674
32229SOL    HW298585   6.478   7.734  10.709
32230SOL     OW98586   5.916   5.756   3.528
32230SOL    HW198587   5.899   5.844   3.495
32230SOL    HW298588   5.959   5.711   3.455
32231SOL     OW98589   6.442   7.866   4.571
32231SOL    HW198590   6.375   7.823   4.518
32231SOL    HW298591   6.497   7.795   4.604
32232SOL     OW98592   9.050   0.147   8.515
32232SOL    HW198593   8.967   0.195   8.521
32232SOL    HW298594   9.056   0.101   8.599
32233SOL     OW98595   5.099   1.871   4.606
32233SOL    HW198596   5.097   1.933   4.532
32233SOL    HW298597   5.156   1.800   4.575
32234SOL     OW98598   3.967   9.110  11.805
32234SOL    HW198599   4.011   9.068  11.731
32234SOL    HW298600   3.874   9.092  11.791
32235SOL     OW98601   0.779  12.898   5.184
32235SOL    HW198602   0.834  12.917   5.107
32235SOL    HW298603   0.839  12.908   5.258
32236SOL     OW98604   0.426   4.718  10.478
32236SOL    HW198605   0.419   4.730  10.573
32236SOL    HW298606   0.483   4.642  10.467
32237SOL     OW98607  10.009   8.847   8.901
32237SOL    HW198608  10.095   8.887   8.890
32237SOL    HW298609   9.960   8.908   8.955
32238SOL     OW98610   6.777   4.038   3.626
32238SOL    HW198611   6.695   4.038   3.676
32238SOL    HW298612   6.845   4.031   3.692
32239SOL     OW98613   3.691  11.586   2.040
32239SOL    HW198614   3.764  11.603   2.099
32239SOL    HW298615   3.626  11.542   2.094
32240SOL     OW98616   2.621  14.844   1.785
32240SOL    HW198617   2.555   0.006   1.732
32240SOL    HW298618   2.572  14.801   1.855
32241SOL     OW98619   6.192   3.473  14.452
32241SOL    HW198620   6.218   3.514  14.370
32241SOL    HW298621   6.274   3.455  14.498
32242SOL     OW98622   5.607   1.964  11.953
32242SOL    HW198623   5.660   1.984  12.030
32242SOL    HW298624   5.663   1.987  11.879
32243SOL     OW98625   9.305  12.951   3.693
32243SOL    HW198626   9.310  12.975   3.601
32243SOL    HW298627   9.306  13.035   3.739
32244SOL     OW98628   5.814  11.827   8.010
32244SOL    HW198629   5.725  11.794   8.000
32244SOL    HW298630   5.826  11.889   7.938
32245SOL     OW98631   9.163   3.526  11.310
32245SOL    HW198632   9.252   3.510  11.341
32245SOL    HW298633   9.127   3.439  11.294
32246SOL     OW98634   2.777   5.612   2.796
32246SOL    HW198635   2.729   5.585   2.718
32246SOL    HW298636   2.821   5.532   2.826
32247SOL     OW98637  12.154   4.289   4.179
32247SOL    HW198638  12.150   4.209   4.231
32247SOL    HW298639  12.077   4.284   4.121
32248SOL     OW98640  13.536   3.123   0.839
32248SOL    HW198641  13.568   3.168   0.761
32248SOL    HW298642  13.467   3.064   0.806
32249SOL     OW98643   6.611  14.521   8.519
32249SOL    HW198644   6.700  14.486   8.518
32249SOL    HW298645   6.559  14.453   8.476
32250SOL     OW98646   9.053  12.150   2.883
32250SOL    HW198647   9.053  12.171   2.976
32250SOL    HW298648   9.125  12.201   2.847
32251SOL     OW98649  13.925   9.268   3.893
32251SOL    HW198650  13.882   9.295   3.974
32251SOL    HW298651  13.853   9.246   3.834
32252SOL     OW98652   8.589   3.984   2.237
32252SOL    HW198653   8.683   3.996   2.222
32252SOL    HW298654   8.552   3.977   2.149
32253SOL     OW98655   6.520   2.683   6.975
32253SOL    HW198656   6.497   2.627   7.050
32253SOL    HW298657   6.616   2.689   6.979
32254SOL     OW98658   0.499  12.302   1.037
32254SOL    HW198659   0.459  12.240   1.098
32254SOL    HW298660   0.509  12.252   0.956
32255SOL     OW98661   3.862  13.268   2.788
32255SOL    HW198662   3.910  13.323   2.726
32255SOL    HW298663   3.931  13.223   2.838
32256SOL     OW98664   9.711  12.083  10.898
32256SOL    HW198665   9.712  12.132  10.981
32256SOL    HW298666   9.643  12.126  10.846
32257SOL     OW98667   8.998  13.597  13.738
32257SOL    HW198668   8.997  13.503  13.758
32257SOL    HW298669   8.982  13.601  13.644
32258SOL     OW98670   5.918  10.777   5.427
32258SOL    HW198671   5.996  10.723   5.412
32258SOL    HW298672   5.952  10.857   5.467
32259SOL     OW98673  13.284   0.968  11.087
32259SOL    HW198674  13.296   0.916  11.008
32259SOL    HW298675  13.347   0.931  11.150
32260SOL     OW98676  14.729   3.750  14.062
32260SOL    HW198677  14.779   3.831  14.072
32260SOL    HW298678  14.670   3.766  13.989
32261SOL     OW98679  13.519  14.636  14.050
32261SOL    HW198680  13.510  14.683  14.132
32261SOL    HW298681  13.552  14.549  14.075
32262SOL     OW98682   3.489   5.230   2.821
32262SOL    HW198683   3.513   5.272   2.738
32262SOL    HW298684   3.483   5.303   2.884
32263SOL     OW98685   9.332   0.987   4.854
32263SOL    HW198686   9.404   0.988   4.791
32263SOL    HW298687   9.373   0.968   4.938
32264SOL     OW98688   1.206   8.381   1.176
32264SOL    HW198689   1.169   8.464   1.146
32264SOL    HW298690   1.292   8.404   1.210
32265SOL     OW98691  13.598   0.252   3.348
32265SOL    HW198692  13.556   0.212   3.272
32265SOL    HW298693  13.669   0.305   3.310
32266SOL     OW98694   8.981   8.484   6.806
32266SOL    HW198695   8.922   8.559   6.808
32266SOL    HW298696   8.957   8.437   6.726
32267SOL     OW98697   9.361  13.755   7.390
32267SOL    HW198698   9.425  13.810   7.436
32267SOL    HW298699   9.286  13.812   7.376
32268SOL     OW98700   7.397   3.727   6.943
32268SOL    HW198701   7.455   3.748   6.870
32268SOL    HW298702   7.310   3.754   6.912
32269SOL     OW98703   1.286   9.491   0.953
32269SOL    HW198704   1.280   9.452   1.040
32269SOL    HW298705   1.219   9.561   0.953
32270SOL     OW98706   4.589   8.347   6.894
32270SOL    HW198707   4.591   8.273   6.834
32270SOL    HW298708   4.497   8.354   6.920
32271SOL     OW98709   0.636  13.396   9.930
32271SOL    HW198710   0.604  13.351   9.852
32271SOL    HW298711   0.556  13.427   9.974
32272SOL     OW98712   4.939  12.923   7.217
32272SOL    HW198713   4.967  13.011   7.242
32272SOL    HW298714   5.013  12.867   7.238
32273SOL     OW98715   2.490  10.101  12.588
32273SOL    HW198716   2.526  10.021  12.627
32273SOL    HW298717   2.395  10.092  12.599
32274SOL     OW98718   2.213   4.543   4.154
32274SOL    HW198719   2.124   4.545   4.117
32274SOL    HW298720   2.201   4.563   4.246
32275SOL     OW98721  14.717   3.729  13.185
32275SOL    HW198722  14.758   3.710  13.269
32275SOL    HW298723  14.654   3.799  13.204
32276SOL     OW98724  10.839   8.695  13.881
32276SOL    HW198725  10.835   8.631  13.952
32276SOL    HW298726  10.787   8.769  13.912
32277SOL     OW98727   2.471   6.969   6.814
32277SOL    HW198728   2.516   7.044   6.854
32277SOL    HW298729   2.422   6.929   6.887
32278SOL     OW98730  14.466   5.018   5.340
32278SOL    HW198731  14.457   5.027   5.435
32278SOL    HW298732  14.560   5.004   5.326
32279SOL     OW98733  11.182   4.686   2.832
32279SOL    HW198734  11.177   4.629   2.756
32279SOL    HW298735  11.200   4.773   2.796
32280SOL     OW98736   1.176  10.881   1.816
32280SOL    HW198737   1.271  10.883   1.809
32280SOL    HW298738   1.159  10.838   1.900
32281SOL     OW98739   5.510   9.076  10.604
32281SOL    HW198740   5.533   9.048  10.515
32281SOL    HW298741   5.482   9.167  10.594
32282SOL     OW98742  14.273  10.669  14.765
32282SOL    HW198743  14.216  10.690  14.839
32282SOL    HW298744  14.222  10.610  14.710
32283SOL     OW98745   0.451  12.180  10.965
32283SOL    HW198746   0.516  12.115  10.939
32283SOL    HW298747   0.501  12.251  11.003
32284SOL     OW98748  11.967   4.310  13.910
32284SOL    HW198749  11.950   4.304  14.004
32284SOL    HW298750  11.910   4.380  13.880
32285SOL     OW98751   8.502   7.109   2.777
32285SOL    HW198752   8.512   7.060   2.695
32285SOL    HW298753   8.449   7.051   2.832
32286SOL     OW98754   7.053   4.012   6.053
32286SOL    HW198755   7.121   3.972   5.998
32286SOL    HW298756   7.013   4.078   5.996
32287SOL     OW98757   6.543   3.251   1.260
32287SOL    HW198758   6.633   3.261   1.228
32287SOL    HW298759   6.492   3.228   1.182
32288SOL     OW98760   2.268  14.394  12.266
32288SOL    HW198761   2.345  14.385  12.323
32288SOL    HW298762   2.294  14.351  12.184
32289SOL     OW98763  14.003  10.499   3.666
32289SOL    HW198764  13.979  10.444   3.592
32289SOL    HW298765  13.940  10.572   3.662
32290SOL     OW98766   9.343   1.937  11.656
32290SOL    HW198767   9.284   1.976  11.591
32290SOL    HW298768   9.286   1.885  11.712
32291SOL     OW98769   6.447   0.735   3.633
32291SOL    HW198770   6.424   0.825   3.614
32291SOL    HW298771   6.495   0.739   3.716
32292SOL     OW98772  10.630  12.344  10.590
32292SOL    HW198773  10.593  12.270  10.543
32292SOL    HW298774  10.561  12.410  10.591
32293SOL     OW98775  13.852   0.081  14.432
32293SOL    HW198776  13.836   0.143  14.503
32293SOL    HW298777  13.911   0.016  14.470
32294SOL     OW98778   9.728   5.564  13.878
32294SOL    HW198779   9.640   5.566  13.913
32294SOL    HW298780   9.722   5.613  13.795
32295SOL     OW98781  14.871  12.487  12.105
32295SOL    HW198782  14.825  12.403  12.114
32295SOL    HW298783  14.816  12.549  12.152
32296SOL     OW98784   5.098   4.479   0.185
32296SOL    HW198785   5.159   4.542   0.223
32296SOL    HW298786   5.016   4.528   0.177
32297SOL     OW98787   9.363   5.992   5.750
32297SOL    HW198788   9.316   5.951   5.677
32297SOL    HW298789   9.383   5.920   5.809
32298SOL     OW98790  12.049   3.102   8.809
32298SOL    HW198791  12.135   3.134   8.834
32298SOL    HW298792  12.037   3.023   8.861
32299SOL     OW98793   7.838   6.272   6.378
32299SOL    HW198794   7.891   6.267   6.299
32299SOL    HW298795   7.771   6.337   6.358
32300SOL     OW98796  12.978   5.380  14.511
32300SOL    HW198797  12.985   5.429  14.593
32300SOL    HW298798  13.042   5.310  14.519
32301SOL     OW98799   3.872   1.108   1.529
32301SOL    HW198800   3.920   1.186   1.558
32301SOL    HW298801   3.816   1.085   1.602
32302SOL     OW98802   6.474   6.445   5.618
32302SOL    HW198803   6.464   6.351   5.601
32302SOL    HW298804   6.438   6.487   5.540
32303SOL     OW98805   0.588  11.729   1.463
32303SOL    HW198806   0.571  11.654   1.520
32303SOL    HW298807   0.613  11.689   1.379
32304SOL     OW98808   7.705   5.805   1.796
32304SOL    HW198809   7.763   5.843   1.730
32304SOL    HW298810   7.708   5.867   1.869
32305SOL     OW98811   1.369   0.068  14.801
32305SOL    HW198812   1.462   0.072  14.821
32305SOL    HW298813   1.325   0.079   0.003
32306SOL     OW98814   2.432  14.534  13.794
32306SOL    HW198815   2.392  14.450  13.817
32306SOL    HW298816   2.432  14.584  13.876
32307SOL     OW98817   6.530   1.840   8.098
32307SOL    HW198818   6.480   1.897   8.157
32307SOL    HW298819   6.550   1.763   8.152
32308SOL     OW98820  12.073   4.868   8.877
32308SOL    HW198821  12.055   4.877   8.970
32308SOL    HW298822  11.989   4.847   8.838
32309SOL     OW98823   8.060  11.238   9.486
32309SOL    HW198824   7.980  11.289   9.481
32309SOL    HW298825   8.066  11.211   9.578
32310SOL     OW98826   9.777   6.139  10.394
32310SOL    HW198827   9.751   6.082  10.321
32310SOL    HW298828   9.696   6.177  10.425
32311SOL     OW98829   0.600   6.942  11.276
32311SOL    HW198830   0.588   7.031  11.243
32311SOL    HW298831   0.578   6.949  11.369
32312SOL     OW98832   3.045   2.737   9.499
32312SOL    HW198833   2.967   2.762   9.548
32312SOL    HW298834   3.023   2.753   9.407
32313SOL     OW98835  12.422  14.348  12.775
32313SOL    HW198836  12.504  14.300  12.764
32313SOL    HW298837  12.409  14.393  12.692
32314SOL     OW98838   8.890  13.487   7.245
32314SOL    HW198839   8.931  13.553   7.189
32314SOL    HW298840   8.797  13.495   7.227
32315SOL     OW98841  10.741  10.522   3.333
32315SOL    HW198842  10.793  10.595   3.367
32315SOL    HW298843  10.669  10.513   3.396
32316SOL     OW98844   2.012  13.292  12.811
32316SOL    HW198845   2.042  13.236  12.882
32316SOL    HW298846   2.069  13.369  12.814
32317SOL     OW98847   6.301   0.709   6.831
32317SOL    HW198848   6.395   0.708   6.814
32317SOL    HW298849   6.262   0.740   6.749
32318SOL     OW98850   8.911   3.090   4.195
32318SOL    HW198851   8.872   3.122   4.276
32318SOL    HW298852   8.915   3.167   4.139
32319SOL     OW98853   5.893   5.240   5.331
32319SOL    HW198854   5.801   5.263   5.347
32319SOL    HW298855   5.939   5.274   5.408
32320SOL     OW98856  12.745   1.815  11.472
32320SOL    HW198857  12.664   1.775  11.504
32320SOL    HW298858  12.802   1.741  11.451
32321SOL     OW98859   1.304   1.458   6.014
32321SOL    HW198860   1.242   1.394   5.980
32321SOL    HW298861   1.369   1.405   6.061
32322SOL     OW98862  14.712  12.391   7.375
32322SOL    HW198863  14.758  12.433   7.447
32322SOL    HW298864  14.626  12.433   7.374
32323SOL     OW98865   7.854  12.001  12.882
32323SOL    HW198866   7.760  11.983  12.890
32323SOL    HW298867   7.892  11.916  12.857
32324SOL     OW98868  14.050   0.473   4.447
32324SOL    HW198869  13.981   0.411   4.471
32324SOL    HW298870  14.068   0.455   4.355
32325SOL     OW98871   9.980   9.546  10.121
32325SOL    HW198872   9.949   9.547  10.211
32325SOL    HW298873   9.936   9.471  10.081
32326SOL     OW98874   4.959   0.854   4.164
32326SOL    HW198875   4.986   0.847   4.072
32326SOL    HW298876   4.939   0.947   4.176
32327SOL     OW98877   3.927  14.264  13.157
32327SOL    HW198878   4.007  14.316  13.151
32327SOL    HW298879   3.957  14.178  13.187
32328SOL     OW98880   4.591   1.229   5.188
32328SOL    HW198881   4.536   1.195   5.117
32328SOL    HW298882   4.530   1.266   5.251
32329SOL     OW98883   7.163   4.758   2.117
32329SOL    HW198884   7.086   4.805   2.085
32329SOL    HW298885   7.224   4.827   2.144
32330SOL     OW98886   7.835   7.080   3.136
32330SOL    HW198887   7.752   7.083   3.184
32330SOL    HW298888   7.884   7.156   3.168
32331SOL     OW98889  10.325   6.767   4.185
32331SOL    HW198890  10.294   6.741   4.272
32331SOL    HW298891  10.245   6.788   4.137
32332SOL     OW98892  12.180  11.852   5.512
32332SOL    HW198893  12.090  11.820   5.503
32332SOL    HW298894  12.183  11.931   5.459
32333SOL     OW98895   3.620   9.352  10.878
32333SOL    HW198896   3.679   9.294  10.927
32333SOL    HW298897   3.677   9.422  10.847
32334SOL     OW98898  12.613   5.737  10.041
32334SOL    HW198899  12.680   5.674  10.013
32334SOL    HW298900  12.635   5.756  10.132
32335SOL     OW98901   1.616   1.516   8.320
32335SOL    HW198902   1.642   1.606   8.341
32335SOL    HW298903   1.698   1.469   8.307
32336SOL     OW98904  14.840   1.617  13.864
32336SOL    HW198905   0.053   1.614  13.863
32336SOL    HW298906  14.818   1.707  13.842
32337SOL     OW98907   8.218  13.402   1.165
32337SOL    HW198908   8.292  13.440   1.117
32337SOL    HW298909   8.141  13.431   1.117
32338SOL     OW98910   0.205   6.956   0.561
32338SOL    HW198911   0.191   7.048   0.586
32338SOL    HW298912   0.240   6.915   0.640
32339SOL     OW98913   8.227  11.305   2.664
32339SOL    HW198914   8.200  11.397   2.667
32339SOL    HW298915   8.288  11.296   2.737
32340SOL     OW98916  12.419   9.267   0.696
32340SOL    HW198917  12.362   9.221   0.634
32340SOL    HW298918  12.465   9.198   0.743
32341SOL     OW98919   1.081   1.476   8.796
32341SOL    HW198920   1.163   1.449   8.838
32341SOL    HW298921   1.016   1.472   8.867
32342SOL     OW98922   2.902   7.879  13.739
32342SOL    HW198923   2.840   7.914  13.803
32342SOL    HW298924   2.848   7.826  13.681
32343SOL     OW98925  12.928  13.996   9.859
32343SOL    HW198926  13.009  13.995   9.910
32343SOL    HW298927  12.907  13.903   9.845
32344SOL     OW98928   8.187  11.675  10.371
32344SOL    HW198929   8.260  11.626  10.408
32344SOL    HW298930   8.124  11.683  10.443
32345SOL     OW98931   0.850  14.186   9.202
32345SOL    HW198932   0.765  14.221   9.229
32345SOL    HW298933   0.913  14.252   9.230
32346SOL     OW98934  14.856   5.328  14.764
32346SOL    HW198935  14.866   5.238  14.795
32346SOL    HW298936  14.762   5.338  14.748
32347SOL     OW98937   9.495   2.069  11.039
32347SOL    HW198938   9.503   2.101  11.129
32347SOL    HW298939   9.519   1.976  11.045
32348SOL     OW98940   7.308   9.960  11.102
32348SOL    HW198941   7.314   9.887  11.163
32348SOL    HW298942   7.216   9.986  11.103
32349SOL     OW98943   9.439   0.660   6.001
32349SOL    HW198944   9.533   0.655   6.014
32349SOL    HW298945   9.428   0.689   5.910
32350SOL     OW98946   5.550   4.377  13.076
32350SOL    HW198947   5.577   4.373  13.167
32350SOL    HW298948   5.617   4.431  13.033
32351SOL     OW98949  12.783   4.062   5.019
32351SOL    HW198950  12.742   4.144   5.046
32351SOL    HW298951  12.867   4.088   4.981
32352SOL     OW98952  12.374  13.361   2.741
32352SOL    HW198953  12.361  13.288   2.801
32352SOL    HW298954  12.463  13.351   2.708
32353SOL     OW98955  12.811   1.011   8.586
32353SOL    HW198956  12.894   0.967   8.601
32353SOL    HW298957  12.772   0.966   8.511
32354SOL     OW98958   0.310   4.518   1.680
32354SOL    HW198959   0.316   4.599   1.731
32354SOL    HW298960   0.359   4.537   1.600
32355SOL     OW98961  13.596   3.870   0.966
32355SOL    HW198962  13.523   3.866   1.028
32355SOL    HW298963  13.555   3.899   0.884
32356SOL     OW98964   1.920  13.817   9.001
32356SOL    HW198965   1.851  13.758   8.969
32356SOL    HW298966   1.999  13.764   8.996
32357SOL     OW98967   5.516   6.388   1.585
32357SOL    HW198968   5.489   6.299   1.560
32357SOL    HW298969   5.550   6.378   1.674
32358SOL     OW98970  10.047   4.659   9.675
32358SOL    HW198971  10.084   4.715   9.607
32358SOL    HW298972   9.982   4.714   9.719
32359SOL     OW98973  13.187   3.108   3.890
32359SOL    HW198974  13.120   3.175   3.897
32359SOL    HW298975  13.211   3.107   3.797
32360SOL     OW98976   9.980   5.032  13.110
32360SOL    HW198977   9.968   4.967  13.179
32360SOL    HW298978   9.999   5.113  13.158
32361SOL     OW98979   5.782  12.963  10.668
32361SOL    HW198980   5.789  12.877  10.627
32361SOL    HW298981   5.789  12.945  10.762
32362SOL     OW98982   7.942   6.230   8.914
32362SOL    HW198983   7.991   6.294   8.862
32362SOL    HW298984   7.850   6.243   8.887
32363SOL     OW98985  10.481   9.634   5.559
32363SOL    HW198986  10.543   9.629   5.632
32363SOL    HW298987  10.406   9.682   5.594
32364SOL     OW98988  13.679   2.578   0.289
32364SOL    HW198989  13.651   2.537   0.208
32364SOL    HW298990  13.600   2.581   0.343
32365SOL     OW98991  10.388   4.356  11.007
32365SOL    HW198992  10.386   4.412  10.930
32365SOL    HW298993  10.441   4.281  10.982
32366SOL     OW98994   9.831   9.997  11.138
32366SOL    HW198995   9.894  10.046  11.085
32366SOL    HW298996   9.774  10.063  11.176
32367SOL     OW98997   4.854   9.816  10.902
32367SOL    HW198998   4.885   9.843  10.989
32367SOL    HW298999   4.763   9.792  10.915
32368SOL     OW99000   5.226   8.403  11.627
32368SOL    HW199001   5.286   8.334  11.655
32368SOL    HW299002   5.192   8.440  11.709
32369SOL     OW99003   8.870   0.741  12.438
32369SOL    HW199004   8.926   0.665  12.449
32369SOL    HW299005   8.782   0.711  12.461
32370SOL     OW99006   8.973  11.066   8.678
32370SOL    HW199007   8.999  11.157   8.684
32370SOL    HW299008   9.000  11.039   8.590
32371SOL     OW99009   3.031   4.849   2.833
32371SOL    HW199010   3.099   4.800   2.787
32371SOL    HW299011   3.064   4.860   2.922
32372SOL     OW99012   9.216   8.140   3.392
32372SOL    HW199013   9.121   8.150   3.381
32372SOL    HW299014   9.242   8.083   3.319
32373SOL     OW99015   4.047   4.336   7.177
32373SOL    HW199016   4.087   4.257   7.140
32373SOL    HW299017   4.022   4.310   7.266
32374SOL     OW99018  11.106   6.238   1.945
32374SOL    HW199019  11.195   6.274   1.954
32374SOL    HW299020  11.101   6.209   1.854
32375SOL     OW99021   3.823   0.350   2.270
32375SOL    HW199022   3.846   0.275   2.324
32375SOL    HW299023   3.898   0.409   2.277
32376SOL     OW99024  13.772   5.142  13.347
32376SOL    HW199025  13.679   5.126  13.361
32376SOL    HW299026  13.805   5.060  13.312
32377SOL     OW99027  13.393   2.769   6.359
32377SOL    HW199028  13.480   2.769   6.318
32377SOL    HW299029  13.411   2.761   6.453
32378SOL     OW99030  11.406   4.253   8.225
32378SOL    HW199031  11.478   4.195   8.200
32378SOL    HW299032  11.448   4.325   8.272
32379SOL     OW99033   6.847  14.245   6.280
32379SOL    HW199034   6.927  14.225   6.231
32379SOL    HW299035   6.862  14.209   6.367
32380SOL     OW99036  11.335   8.207   6.900
32380SOL    HW199037  11.329   8.298   6.869
32380SOL    HW299038  11.360   8.215   6.992
32381SOL     OW99039   0.901  11.941   6.726
32381SOL    HW199040   0.986  11.908   6.695
32381SOL    HW299041   0.845  11.941   6.649
32382SOL     OW99042  12.655  11.605   3.153
32382SOL    HW199043  12.617  11.517   3.148
32382SOL    HW299044  12.584  11.663   3.126
32383SOL     OW99045   9.972   2.341  11.006
32383SOL    HW199046   9.933   2.298  10.931
32383SOL    HW299047  10.034   2.276  11.041
32384SOL     OW99048   8.571   1.518   7.049
32384SOL    HW199049   8.569   1.614   7.050
32384SOL    HW299050   8.637   1.497   6.982
32385SOL     OW99051   0.597   9.242  13.204
32385SOL    HW199052   0.666   9.259  13.141
32385SOL    HW299053   0.516   9.246  13.153
32386SOL     OW99054  12.407   8.575   6.607
32386SOL    HW199055  12.340   8.619   6.556
32386SOL    HW299056  12.390   8.482   6.594
32387SOL     OW99057   2.776   1.825   4.857
32387SOL    HW199058   2.768   1.759   4.925
32387SOL    HW299059   2.835   1.786   4.792
32388SOL     OW99060   9.981  13.672   2.010
32388SOL    HW199061   9.924  13.599   2.036
32388SOL    HW299062   9.921  13.742   1.985
32389SOL     OW99063   0.675   0.329   4.802
32389SOL    HW199064   0.615   0.400   4.778
32389SOL    HW299065   0.632   0.249   4.769
32390SOL     OW99066   1.454  14.016  10.089
32390SOL    HW199067   1.419  13.930  10.113
32390SOL    HW299068   1.403  14.078  10.139
32391SOL     OW99069  13.296   3.961   0.828
32391SOL    HW199070  13.215   3.948   0.878
32391SOL    HW299071  13.281   4.042   0.778
32392SOL     OW99072   3.864  13.588   7.954
32392SOL    HW199073   3.836  13.645   8.026
32392SOL    HW299074   3.890  13.506   7.997
32393SOL     OW99075   3.843   9.418   4.033
32393SOL    HW199076   3.797   9.334   4.042
32393SOL    HW299077   3.932   9.394   4.007
32394SOL     OW99078   3.974   9.861   8.869
32394SOL    HW199079   4.015   9.789   8.915
32394SOL    HW299080   4.047   9.916   8.840
32395SOL     OW99081  13.471   5.906   7.554
32395SOL    HW199082  13.483   5.826   7.504
32395SOL    HW299083  13.378   5.928   7.544
32396SOL     OW99084   8.983   7.986   5.701
32396SOL    HW199085   8.932   7.918   5.657
32396SOL    HW299086   9.074   7.957   5.693
32397SOL     OW99087   4.079  10.621  13.350
32397SOL    HW199088   4.111  10.641  13.438
32397SOL    HW299089   4.107  10.530  13.334
32398SOL     OW99090   9.274   5.738  12.119
32398SOL    HW199091   9.365   5.727  12.091
32398SOL    HW299092   9.231   5.779  12.043
32399SOL     OW99093  10.107   9.109   2.135
32399SOL    HW199094  10.037   9.174   2.139
32399SOL    HW299095  10.167   9.134   2.205
32400SOL     OW99096   9.519   6.440   1.043
32400SOL    HW199097   9.450   6.380   1.014
32400SOL    HW299098   9.479   6.490   1.115
32401SOL     OW99099  11.815   6.805   1.017
32401SOL    HW199100  11.841   6.834   1.104
32401SOL    HW299101  11.777   6.718   1.030
32402SOL     OW99102   9.467  13.681  10.962
32402SOL    HW199103   9.539  13.706  10.904
32402SOL    HW299104   9.503  13.612  11.016
32403SOL     OW99105   5.248   5.699   5.577
32403SOL    HW199106   5.177   5.681   5.515
32403SOL    HW299107   5.248   5.795   5.586
32404SOL     OW99108   0.555   2.578   7.973
32404SOL    HW199109   0.548   2.491   7.934
32404SOL    HW299110   0.581   2.562   8.064
32405SOL     OW99111   8.961  12.734   8.288
32405SOL    HW199112   8.929  12.779   8.366
32405SOL    HW299113   9.011  12.800   8.241
32406SOL     OW99114  11.774  12.669  12.213
32406SOL    HW199115  11.824  12.588  12.213
32406SOL    HW299116  11.840  12.738  12.221
32407SOL     OW99117   0.911   4.627   0.040
32407SOL    HW199118   0.983   4.660   0.093
32407SOL    HW299119   0.934   4.649  14.833
32408SOL     OW99120  11.180   4.762   5.575
32408SOL    HW199121  11.272   4.786   5.571
32408SOL    HW299122  11.137   4.820   5.512
32409SOL     OW99123  12.968   6.290  11.493
32409SOL    HW199124  12.910   6.281  11.569
32409SOL    HW299125  12.911   6.273  11.418
32410SOL     OW99126   4.383   7.285   6.412
32410SOL    HW199127   4.297   7.320   6.434
32410SOL    HW299128   4.445   7.342   6.458
32411SOL     OW99129   8.537   6.842   6.371
32411SOL    HW199130   8.592   6.831   6.294
32411SOL    HW299131   8.448   6.824   6.339
32412SOL     OW99132   7.114  10.337  14.746
32412SOL    HW199133   7.173  10.330  14.671
32412SOL    HW299134   7.041  10.390  14.715
32413SOL     OW99135   0.303   4.219  14.104
32413SOL    HW199136   0.242   4.203  14.176
32413SOL    HW299137   0.341   4.305  14.123
32414SOL     OW99138   0.401   6.915   0.062
32414SOL    HW199139   0.341   6.949  14.877
32414SOL    HW299140   0.407   6.985   0.126
32415SOL     OW99141   6.207   8.809   3.301
32415SOL    HW199142   6.212   8.863   3.379
32415SOL    HW299143   6.163   8.864   3.236
32416SOL     OW99144   7.476   8.547   8.990
32416SOL    HW199145   7.449   8.466   8.946
32416SOL    HW299146   7.499   8.520   9.079
32417SOL     OW99147  14.560   5.312  11.070
32417SOL    HW199148  14.471   5.287  11.045
32417SOL    HW299149  14.586   5.245  11.133
32418SOL     OW99150   5.776   5.506   8.621
32418SOL    HW199151   5.743   5.526   8.533
32418SOL    HW299152   5.711   5.445   8.657
32419SOL     OW99153  13.778   7.816  13.732
32419SOL    HW199154  13.800   7.893  13.680
32419SOL    HW299155  13.702   7.842  13.784
32420SOL     OW99156  11.974   3.461   4.701
32420SOL    HW199157  12.062   3.495   4.682
32420SOL    HW299158  11.924   3.481   4.622
32421SOL     OW99159  13.989  13.565   3.160
32421SOL    HW199160  13.994  13.652   3.200
32421SOL    HW299161  14.077  13.529   3.170
32422SOL     OW99162  14.683   5.922   7.653
32422SOL    HW199163  14.721   5.900   7.567
32422SOL    HW299164  14.590   5.934   7.636
32423SOL     OW99165  11.881   2.320  11.283
32423SOL    HW199166  11.854   2.302  11.193
32423SOL    HW299167  11.976   2.308  11.282
32424SOL     OW99168   8.645  13.597   7.925
32424SOL    HW199169   8.726  13.599   7.977
32424SOL    HW299170   8.664  13.651   7.848
32425SOL     OW99171   0.419   8.932  10.473
32425SOL    HW199172   0.513   8.951  10.483
32425SOL    HW299173   0.404   8.857  10.530
32426SOL     OW99174  12.721   1.935   7.728
32426SOL    HW199175  12.640   1.889   7.750
32426SOL    HW299176  12.694   2.002   7.664
32427SOL     OW99177   7.168  11.684   2.146
32427SOL    HW199178   7.077  11.712   2.142
32427SOL    HW299179   7.192  11.694   2.238
32428SOL     OW99180  14.200   7.727   5.691
32428SOL    HW199181  14.248   7.655   5.734
32428SOL    HW299182  14.205   7.706   5.598
32429SOL     OW99183   3.079   1.025  10.654
32429SOL    HW199184   3.065   1.000  10.745
32429SOL    HW299185   3.139   1.100  10.658
32430SOL     OW99186   6.044   8.344   5.467
32430SOL    HW199187   6.038   8.372   5.558
32430SOL    HW299188   6.001   8.413   5.417
32431SOL     OW99189   3.069   0.021   6.631
32431SOL    HW199190   3.035  14.832   6.684
32431SOL    HW299191   3.060   0.099   6.686
32432SOL     OW99192  13.464   7.589  11.477
32432SOL    HW199193  13.472   7.555  11.388
32432SOL    HW299194  13.438   7.681  11.466
32433SOL     OW99195   5.165  10.845  13.291
32433SOL    HW199196   5.110  10.777  13.252
32433SOL    HW299197   5.180  10.907  13.220
32434SOL     OW99198   0.426  12.916   8.704
32434SOL    HW199199   0.462  13.003   8.723
32434SOL    HW299200   0.468  12.891   8.621
32435SOL     OW99201   8.363   8.126   5.553
32435SOL    HW199202   8.280   8.114   5.600
32435SOL    HW299203   8.391   8.214   5.578
32436SOL     OW99204   9.758  13.054   6.124
32436SOL    HW199205   9.693  13.014   6.181
32436SOL    HW299206   9.766  13.144   6.154
32437SOL     OW99207   3.656  13.906  13.923
32437SOL    HW199208   3.728  13.968  13.915
32437SOL    HW299209   3.578  13.956  13.898
32438SOL     OW99210   2.602   1.268  14.166
32438SOL    HW199211   2.628   1.321  14.091
32438SOL    HW299212   2.682   1.259  14.218
32439SOL     OW99213   7.604  14.827   4.501
32439SOL    HW199214   7.603  14.776   4.420
32439SOL    HW299215   7.578   0.033   4.474
32440SOL     OW99216   4.204   0.385   2.133
32440SOL    HW199217   4.259   0.343   2.200
32440SOL    HW299218   4.148   0.315   2.101
32441SOL     OW99219   4.770   9.157  11.350
32441SOL    HW199220   4.683   9.196  11.342
32441SOL    HW299221   4.787   9.119  11.264
32442SOL     OW99222   9.559   8.009   3.839
32442SOL    HW199223   9.477   8.024   3.887
32442SOL    HW299224   9.531   7.997   3.748
32443SOL     OW99225   3.552   5.047  10.211
32443SOL    HW199226   3.562   4.953  10.226
32443SOL    HW299227   3.625   5.087  10.258
32444SOL     OW99228   2.788   6.381  12.501
32444SOL    HW199229   2.772   6.323  12.575
32444SOL    HW299230   2.873   6.421  12.520
32445SOL     OW99231   8.038   4.184  13.432
32445SOL    HW199232   8.049   4.113  13.369
32445SOL    HW299233   7.990   4.251  13.385
32446SOL     OW99234  14.269  12.347   1.206
32446SOL    HW199235  14.200  12.282   1.197
32446SOL    HW299236  14.309  12.352   1.120
32447SOL     OW99237   1.376  10.966  13.246
32447SOL    HW199238   1.310  11.031  13.269
32447SOL    HW299239   1.414  10.940  13.330
32448SOL     OW99240  14.018  13.004  11.989
32448SOL    HW199241  14.112  13.015  12.009
32448SOL    HW299242  13.974  13.037  12.067
32449SOL     OW99243   6.471  14.815   9.938
32449SOL    HW199244   6.417  14.820   9.859
32449SOL    HW299245   6.561  14.816   9.907
32450SOL     OW99246   5.522  10.664  14.561
32450SOL    HW199247   5.596  10.639  14.616
32450SOL    HW299248   5.445  10.626  14.604
32451SOL     OW99249   9.109  13.466   9.900
32451SOL    HW199250   9.053  13.397   9.935
32451SOL    HW299251   9.182  13.420   9.859
32452SOL     OW99252   8.105   7.326  13.924
32452SOL    HW199253   8.193   7.291  13.916
32452SOL    HW299254   8.115   7.420  13.911
32453SOL     OW99255   3.981  14.847   0.611
32453SOL    HW199256   4.037   0.040   0.632
32453SOL    HW299257   4.017  14.776   0.664
32454SOL     OW99258   6.880   7.799  14.878
32454SOL    HW199259   6.858   7.884  14.840
32454SOL    HW299260   6.918   7.819   0.081
32455SOL     OW99261   0.044   9.882  13.346
32455SOL    HW199262   0.129   9.878  13.303
32455SOL    HW299263   0.061   9.859  13.437
32456SOL     OW99264   0.930   2.765  14.529
32456SOL    HW199265   0.867   2.837  14.540
32456SOL    HW299266   0.929   2.746  14.436
32457SOL     OW99267  14.521   2.794   1.818
32457SOL    HW199268  14.468   2.717   1.839
32457SOL    HW299269  14.585   2.761   1.754
32458SOL     OW99270   0.474  13.331   8.155
32458SOL    HW199271   0.390  13.295   8.184
32458SOL    HW299272   0.530  13.325   8.232
32459SOL     OW99273  10.441   3.898  11.070
32459SOL    HW199274  10.347   3.888  11.089
32459SOL    HW299275  10.483   3.888  11.155
32460SOL     OW99276  12.030  12.992   6.054
32460SOL    HW199277  12.095  13.056   6.024
32460SOL    HW299278  12.033  12.998   6.150
32461SOL     OW99279   5.980  11.603   7.322
32461SOL    HW199280   6.039  11.584   7.249
32461SOL    HW299281   6.037  11.638   7.390
32462SOL     OW99282  11.457  11.834   9.289
32462SOL    HW199283  11.519  11.880   9.232
32462SOL    HW299284  11.385  11.896   9.300
32463SOL     OW99285  10.538   4.461  14.541
32463SOL    HW199286  10.614   4.413  14.572
32463SOL    HW299287  10.546   4.548  14.581
32464SOL     OW99288  10.367  10.425  14.410
32464SOL    HW199289  10.281  10.467  14.422
32464SOL    HW299290  10.380  10.424  14.315
32465SOL     OW99291  14.061   4.763  10.937
32465SOL    HW199292  14.079   4.806  10.853
32465SOL    HW299293  14.138   4.710  10.954
32466SOL     OW99294   9.662   5.530  12.902
32466SOL    HW199295   9.707   5.511  12.820
32466SOL    HW299296   9.581   5.573  12.875
32467SOL     OW99297   2.872  11.471   6.512
32467SOL    HW199298   2.929  11.406   6.554
32467SOL    HW299299   2.917  11.494   6.431
32468SOL     OW99300   7.360   8.521   5.693
32468SOL    HW199301   7.277   8.550   5.654
32468SOL    HW299302   7.334   8.462   5.764
32469SOL     OW99303  14.796   4.829   9.232
32469SOL    HW199304  14.808   4.923   9.227
32469SOL    HW299305  14.849   4.794   9.161
32470SOL     OW99306   7.023  14.704   4.973
32470SOL    HW199307   7.012  14.672   5.063
32470SOL    HW299308   6.992  14.632   4.918
32471SOL     OW99309   1.604   5.983   0.937
32471SOL    HW199310   1.698   5.966   0.942
32471SOL    HW299311   1.570   5.954   1.022
32472SOL     OW99312  10.572   7.020  11.410
32472SOL    HW199313  10.617   7.095  11.372
32472SOL    HW299314  10.640   6.974  11.460
32473SOL     OW99315  11.806   2.106   4.612
32473SOL    HW199316  11.784   2.116   4.705
32473SOL    HW299317  11.824   2.196   4.583
32474SOL     OW99318  10.202  12.872   0.059
32474SOL    HW199319  10.206  12.831   0.145
32474SOL    HW299320  10.291  12.903   0.043
32475SOL     OW99321  11.716   5.985   5.733
32475SOL    HW199322  11.732   5.895   5.760
32475SOL    HW299323  11.630   5.983   5.691
32476SOL     OW99324   4.529   7.785   1.976
32476SOL    HW199325   4.542   7.796   1.882
32476SOL    HW299326   4.588   7.714   2.000
32477SOL     OW99327   1.211   2.566  13.535
32477SOL    HW199328   1.175   2.637  13.482
32477SOL    HW299329   1.133   2.519  13.567
32478SOL     OW99330   9.879   6.441   1.852
32478SOL    HW199331   9.797   6.394   1.837
32478SOL    HW299332   9.873   6.470   1.943
32479SOL     OW99333   6.945   0.544   5.902
32479SOL    HW199334   6.941   0.629   5.858
32479SOL    HW299335   6.923   0.480   5.833
32480SOL     OW99336   0.292   9.799   5.983
32480SOL    HW199337   0.207   9.834   5.954
32480SOL    HW299338   0.351   9.874   5.978
32481SOL     OW99339   9.542  13.632   7.179
32481SOL    HW199340   9.469  13.679   7.219
32481SOL    HW299341   9.596  13.604   7.253
32482SOL     OW99342  13.573   3.460   5.888
32482SOL    HW199343  13.603   3.542   5.847
32482SOL    HW299344  13.478   3.469   5.894
32483SOL     OW99345  13.534   7.136   5.850
32483SOL    HW199346  13.541   7.129   5.945
32483SOL    HW299347  13.441   7.152   5.834
32484SOL     OW99348   1.908   7.352   9.035
32484SOL    HW199349   1.834   7.384   8.983
32484SOL    HW299350   1.985   7.371   8.981
32485SOL     OW99351   4.109   1.231   8.043
32485SOL    HW199352   4.065   1.207   8.125
32485SOL    HW299353   4.045   1.212   7.975
32486SOL     OW99354   4.082   6.248  13.905
32486SOL    HW199355   4.169   6.282  13.927
32486SOL    HW299356   4.097   6.196  13.825
32487SOL     OW99357  14.170   6.340  10.785
32487SOL    HW199358  14.108   6.369  10.851
32487SOL    HW299359  14.255   6.369  10.817
32488SOL     OW99360   1.642   9.310   2.007
32488SOL    HW199361   1.599   9.395   2.008
32488SOL    HW299362   1.709   9.317   1.940
32489SOL     OW99363  10.067  13.571   6.506
32489SOL    HW199364  10.023  13.632   6.447
32489SOL    HW299365  10.143  13.618   6.538
32490SOL     OW99366  13.104  14.277   3.509
32490SOL    HW199367  13.091  14.227   3.429
32490SOL    HW299368  13.102  14.369   3.481
32491SOL     OW99369   6.044   5.108   8.012
32491SOL    HW199370   6.106   5.078   7.946
32491SOL    HW299371   6.024   5.198   7.987
32492SOL     OW99372   4.295   5.340  13.977
32492SOL    HW199373   4.214   5.299  13.946
32492SOL    HW299374   4.342   5.364  13.898
32493SOL     OW99375   8.978   6.013   7.705
32493SOL    HW199376   8.963   6.006   7.800
32493SOL    HW299377   9.063   6.057   7.697
32494SOL     OW99378   8.109  14.102   4.948
32494SOL    HW199379   8.089  14.130   5.038
32494SOL    HW299380   8.150  14.179   4.908
32495SOL     OW99381   9.498   2.674  12.573
32495SOL    HW199382   9.505   2.579  12.561
32495SOL    HW299383   9.583   2.708  12.545
32496SOL     OW99384   6.555   6.032   5.313
32496SOL    HW199385   6.648   6.011   5.322
32496SOL    HW299386   6.526   6.050   5.403
32497SOL     OW99387   0.836  12.359   7.561
32497SOL    HW199388   0.833  12.432   7.500
32497SOL    HW299389   0.749  12.319   7.556
32498SOL     OW99390   4.449   5.706   6.412
32498SOL    HW199391   4.527   5.653   6.427
32498SOL    HW299392   4.464   5.785   6.465
32499SOL     OW99393  11.715   8.918   7.194
32499SOL    HW199394  11.747   8.828   7.203
32499SOL    HW299395  11.790   8.972   7.219
32500SOL     OW99396   7.614  10.363  14.500
32500SOL    HW199397   7.538  10.401  14.544
32500SOL    HW299398   7.582  10.338  14.413
32501SOL     OW99399   7.080   9.939  13.133
32501SOL    HW199400   7.070   9.999  13.060
32501SOL    HW299401   7.171   9.947  13.160
32502SOL     OW99402   4.419   7.418   0.529
32502SOL    HW199403   4.390   7.406   0.619
32502SOL    HW299404   4.347   7.464   0.486
32503SOL     OW99405  10.571  12.492   5.255
32503SOL    HW199406  10.647  12.483   5.313
32503SOL    HW299407  10.513  12.421   5.281
32504SOL     OW99408  11.476  10.257   4.204
32504SOL    HW199409  11.438  10.340   4.175
32504SOL    HW299410  11.447  10.247   4.294
32505SOL     OW99411  12.758   8.061  11.548
32505SOL    HW199412  12.688   8.048  11.611
32505SOL    HW299413  12.724   8.128  11.488
32506SOL     OW99414   1.551  10.020  11.697
32506SOL    HW199415   1.637  10.043  11.732
32506SOL    HW299416   1.498  10.001  11.775
32507SOL     OW99417   7.498  11.985   5.863
32507SOL    HW199418   7.501  11.894   5.893
32507SOL    HW299419   7.558  12.031   5.922
32508SOL     OW99420   1.209  12.729   4.355
32508SOL    HW199421   1.167  12.645   4.338
32508SOL    HW299422   1.184  12.750   4.445
32509SOL     OW99423   0.876   0.023   8.678
32509SOL    HW199424   0.869   0.118   8.685
32509SOL    HW299425   0.842  14.873   8.762
32510SOL     OW99426  14.239   9.041   6.796
32510SOL    HW199427  14.326   9.049   6.836
32510SOL    HW299428  14.203   9.129   6.799
32511SOL     OW99429   7.842   0.959   6.323
32511SOL    HW199430   7.901   0.951   6.248
32511SOL    HW299431   7.758   0.924   6.291
32512SOL     OW99432  10.829  10.103   3.999
32512SOL    HW199433  10.839  10.185   3.951
32512SOL    HW299434  10.908  10.096   4.052
32513SOL     OW99435   8.587   9.323   1.302
32513SOL    HW199436   8.506   9.285   1.269
32513SOL    HW299437   8.560   9.382   1.373
32514SOL     OW99438   1.393   1.084  13.757
32514SOL    HW199439   1.465   1.117  13.810
32514SOL    HW299440   1.328   1.054  13.820
32515SOL     OW99441   5.709  10.655   8.082
32515SOL    HW199442   5.761  10.615   8.152
32515SOL    HW299443   5.632  10.599   8.074
32516SOL     OW99444   1.431  10.113   4.875
32516SOL    HW199445   1.392  10.026   4.878
32516SOL    HW299446   1.518  10.101   4.913
32517SOL     OW99447   4.062  12.522   9.421
32517SOL    HW199448   4.136  12.531   9.482
32517SOL    HW299449   4.103  12.507   9.336
32518SOL     OW99450   0.873   1.174   2.215
32518SOL    HW199451   0.938   1.200   2.280
32518SOL    HW299452   0.793   1.162   2.266
32519SOL     OW99453  10.932  11.706  10.712
32519SOL    HW199454  10.976  11.629  10.675
32519SOL    HW299455  10.840  11.695  10.686
32520SOL     OW99456   6.874   8.621   7.552
32520SOL    HW199457   6.809   8.598   7.486
32520SOL    HW299458   6.829   8.611   7.636
32521SOL     OW99459   0.879   6.805   7.631
32521SOL    HW199460   0.813   6.769   7.572
32521SOL    HW299461   0.837   6.882   7.670
32522SOL     OW99462  10.391   0.706  13.006
32522SOL    HW199463  10.363   0.798  13.008
32522SOL    HW299464  10.316   0.657  13.039
32523SOL     OW99465  13.069  10.825   2.247
32523SOL    HW199466  13.070  10.862   2.335
32523SOL    HW299467  13.051  10.899   2.190
32524SOL     OW99468   3.473   9.631   2.938
32524SOL    HW199469   3.563   9.611   2.964
32524SOL    HW299470   3.451   9.710   2.988
32525SOL     OW99471   6.443   3.007  14.461
32525SOL    HW199472   6.386   2.944  14.418
32525SOL    HW299473   6.393   3.037  14.537
32526SOL     OW99474  10.101   6.074  13.745
32526SOL    HW199475  10.161   6.071  13.820
32526SOL    HW299476  10.017   6.099  13.783
32527SOL     OW99477   8.404   9.191   1.187
32527SOL    HW199478   8.308   9.187   1.182
32527SOL    HW299479   8.432   9.111   1.143
32528SOL     OW99480  11.922  14.843   0.023
32528SOL    HW199481  11.861   0.016   0.072
32528SOL    HW299482  11.934  14.766   0.078
32529SOL     OW99483   8.330  13.296   0.039
32529SOL    HW199484   8.358  13.229   0.101
32529SOL    HW299485   8.409  13.348   0.022
32530SOL     OW99486   1.353  12.125   8.281
32530SOL    HW199487   1.386  12.137   8.192
32530SOL    HW299488   1.427  12.087   8.330
32531SOL     OW99489   0.132   7.149  12.829
32531SOL    HW199490   0.224   7.171  12.841
32531SOL    HW299491   0.131   7.054  12.816
32532SOL     OW99492   7.432  12.193   4.564
32532SOL    HW199493   7.508  12.143   4.593
32532SOL    HW299494   7.359  12.160   4.616
32533SOL     OW99495   9.436   3.072   6.022
32533SOL    HW199496   9.410   3.157   5.988
32533SOL    HW299497   9.447   3.017   5.945
32534SOL     OW99498  13.405  11.940   9.349
32534SOL    HW199499  13.395  11.846   9.365
32534SOL    HW299500  13.437  11.946   9.260
32535SOL     OW99501   3.818   5.605  10.080
32535SOL    HW199502   3.773   5.573  10.158
32535SOL    HW299503   3.846   5.694  10.103
32536SOL     OW99504   5.374   3.374  12.598
32536SOL    HW199505   5.320   3.300  12.623
32536SOL    HW299506   5.358   3.440  12.666
32537SOL     OW99507   0.462   4.919  12.911
32537SOL    HW199508   0.409   4.933  12.989
32537SOL    HW299509   0.499   5.005  12.891
32538SOL     OW99510   7.567   1.149  12.438
32538SOL    HW199511   7.662   1.162  12.448
32538SOL    HW299512   7.550   1.171  12.346
32539SOL     OW99513  11.067   8.638   5.711
32539SOL    HW199514  11.022   8.596   5.784
32539SOL    HW299515  11.144   8.680   5.751
32540SOL     OW99516  10.585   0.142  14.454
32540SOL    HW199517  10.668   0.165  14.496
32540SOL    HW299518  10.609   0.121  14.364
32541SOL     OW99519   1.455  10.233  13.935
32541SOL    HW199520   1.540  10.208  13.899
32541SOL    HW299521   1.412  10.150  13.953
32542SOL     OW99522  12.643   7.003  14.401
32542SOL    HW199523  12.547   6.996  14.404
32542SOL    HW299524  12.671   6.927  14.350
32543SOL     OW99525   9.944  11.799  13.240
32543SOL    HW199526   9.940  11.882  13.288
32543SOL    HW299527   9.933  11.732  13.308
32544SOL     OW99528   0.351  11.624   7.784
32544SOL    HW199529   0.442  11.640   7.758
32544SOL    HW299530   0.334  11.690   7.852
32545SOL     OW99531  11.526   1.987  10.660
32545SOL    HW199532  11.502   2.066  10.612
32545SOL    HW299533  11.527   1.918  10.593
32546SOL     OW99534  10.188  13.681  14.786
32546SOL    HW199535  10.249  13.724  14.726
32546SOL    HW299536  10.239  13.610  14.825
32547SOL     OW99537   2.042  10.097  11.743
32547SOL    HW199538   2.113  10.046  11.780
32547SOL    HW299539   2.048  10.182  11.787
32548SOL     OW99540   0.321  10.640   2.916
32548SOL    HW199541   0.309  10.647   3.010
32548SOL    HW299542   0.407  10.598   2.905
32549SOL     OW99543   1.088   0.572   9.979
32549SOL    HW199544   1.055   0.569  10.069
32549SOL    HW299545   1.012   0.595   9.926
32550SOL     OW99546   4.426   9.222  12.624
32550SOL    HW199547   4.448   9.138  12.582
32550SOL    HW299548   4.511   9.263  12.640
32551SOL     OW99549  12.292   4.084  14.320
32551SOL    HW199550  12.265   4.029  14.246
32551SOL    HW299551  12.215   4.137  14.340
32552SOL     OW99552   2.647  10.329   4.967
32552SOL    HW199553   2.671  10.419   4.991
32552SOL    HW299554   2.607  10.294   5.046
32553SOL     OW99555   4.589   7.087   4.072
32553SOL    HW199556   4.584   7.129   3.986
32553SOL    HW299557   4.514   7.029   4.075
32554SOL     OW99558   8.965  12.895   2.430
32554SOL    HW199559   8.903  12.827   2.454
32554SOL    HW299560   9.016  12.911   2.510
32555SOL     OW99561   5.523   8.969   0.674
32555SOL    HW199562   5.489   8.981   0.763
32555SOL    HW299563   5.507   9.053   0.631
32556SOL     OW99564   4.235   7.732   3.797
32556SOL    HW199565   4.234   7.661   3.862
32556SOL    HW299566   4.145   7.734   3.763
32557SOL     OW99567   6.738   7.736   3.445
32557SOL    HW199568   6.658   7.788   3.452
32557SOL    HW299569   6.748   7.695   3.531
32558SOL     OW99570  10.020  14.821   8.596
32558SOL    HW199571   9.925  14.825   8.606
32558SOL    HW299572  10.043   0.022   8.555
32559SOL     OW99573   0.460   9.961  11.193
32559SOL    HW199574   0.546   9.948  11.154
32559SOL    HW299575   0.443   9.880  11.242
32560SOL     OW99576   4.036   9.580   2.507
32560SOL    HW199577   4.021   9.612   2.596
32560SOL    HW299578   3.951   9.546   2.479
32561SOL     OW99579  12.767   4.553   0.881
32561SOL    HW199580  12.769   4.647   0.898
32561SOL    HW299581  12.831   4.540   0.811
32562SOL     OW99582  11.291  10.328   8.458
32562SOL    HW199583  11.254  10.405   8.501
32562SOL    HW299584  11.323  10.361   8.374
32563SOL     OW99585  11.764  11.826   5.076
32563SOL    HW199586  11.697  11.769   5.112
32563SOL    HW299587  11.838  11.768   5.058
32564SOL     OW99588   0.262  13.018   5.571
32564SOL    HW199589   0.346  12.980   5.547
32564SOL    HW299590   0.240  12.977   5.655
32565SOL     OW99591   1.676  11.139   8.921
32565SOL    HW199592   1.704  11.230   8.931
32565SOL    HW299593   1.585  11.144   8.891
32566SOL     OW99594  10.985  10.393  12.649
32566SOL    HW199595  10.954  10.416  12.562
32566SOL    HW299596  11.075  10.424  12.651
32567SOL     OW99597  10.656   4.618   9.928
32567SOL    HW199598  10.642   4.531   9.892
32567SOL    HW299599  10.718   4.660   9.867
32568SOL     OW99600   8.719  10.814   1.900
32568SOL    HW199601   8.685  10.832   1.987
32568SOL    HW299602   8.797  10.870   1.893
32569SOL     OW99603  12.040   4.336   4.850
32569SOL    HW199604  12.067   4.362   4.938
32569SOL    HW299605  11.949   4.309   4.859
32570SOL     OW99606   5.398   6.762   4.576
32570SOL    HW199607   5.457   6.831   4.546
32570SOL    HW299608   5.418   6.752   4.669
32571SOL     OW99609   0.747   6.146   7.434
32571SOL    HW199610   0.701   6.189   7.362
32571SOL    HW299611   0.690   6.157   7.510
32572SOL     OW99612   9.456  12.026   7.588
32572SOL    HW199613   9.412  12.102   7.550
32572SOL    HW299614   9.397  11.995   7.657
32573SOL     OW99615  11.030  14.089   8.295
32573SOL    HW199616  10.989  14.007   8.268
32573SOL    HW299617  11.102  14.102   8.233
32574SOL     OW99618   2.692   9.264  10.591
32574SOL    HW199619   2.599   9.248  10.609
32574SOL    HW299620   2.696   9.279  10.496
32575SOL     OW99621   9.811  12.554   5.396
32575SOL    HW199622   9.760  12.578   5.319
32575SOL    HW299623   9.843  12.637   5.432
32576SOL     OW99624  11.924   1.083   3.009
32576SOL    HW199625  11.919   1.178   3.024
32576SOL    HW299626  11.889   1.045   3.090
32577SOL     OW99627   8.234   1.481   7.973
32577SOL    HW199628   8.158   1.486   8.032
32577SOL    HW299629   8.196   1.477   7.886
32578SOL     OW99630   8.200  12.092   5.852
32578SOL    HW199631   8.274  12.043   5.815
32578SOL    HW299632   8.124  12.057   5.806
32579SOL     OW99633   5.105   0.581   6.790
32579SOL    HW199634   5.075   0.620   6.708
32579SOL    HW299635   5.173   0.520   6.764
32580SOL     OW99636   1.869   0.343  13.393
32580SOL    HW199637   1.800   0.409  13.403
32580SOL    HW299638   1.893   0.320  13.483
32581SOL     OW99639  11.026   4.900  11.700
32581SOL    HW199640  10.944   4.948  11.695
32581SOL    HW299641  11.004   4.820  11.749
32582SOL     OW99642   0.903   9.953   3.577
32582SOL    HW199643   0.830   9.893   3.559
32582SOL    HW299644   0.899  10.017   3.505
32583SOL     OW99645  12.240   7.627   1.002
32583SOL    HW199646  12.155   7.662   0.975
32583SOL    HW299647  12.218   7.551   1.056
32584SOL     OW99648   8.429   6.455  13.222
32584SOL    HW199649   8.367   6.383  13.236
32584SOL    HW299650   8.404   6.521  13.286
32585SOL     OW99651  14.713   0.367   3.399
32585SOL    HW199652  14.778   0.412   3.345
32585SOL    HW299653  14.658   0.320   3.337
32586SOL     OW99654  11.009  11.471  14.324
32586SOL    HW199655  11.087  11.525  14.316
32586SOL    HW299656  11.042  11.381  14.324
32587SOL     OW99657   7.040   9.693   0.573
32587SOL    HW199658   7.134   9.681   0.576
32587SOL    HW299659   7.013   9.701   0.664
32588SOL     OW99660   2.717  10.394   3.378
32588SOL    HW199661   2.691  10.484   3.397
32588SOL    HW299662   2.742  10.395   3.286
32589SOL     OW99663  10.554   5.407   6.995
32589SOL    HW199664  10.598   5.400   7.080
32589SOL    HW299665  10.461   5.401   7.016
32590SOL     OW99666  12.745  13.408   7.999
32590SOL    HW199667  12.752  13.355   7.921
32590SOL    HW299668  12.761  13.348   8.071
32591SOL     OW99669   8.866  12.114  14.090
32591SOL    HW199670   8.785  12.089  14.135
32591SOL    HW299671   8.925  12.041  14.105
32592SOL     OW99672   5.281   3.975  14.719
32592SOL    HW199673   5.285   3.910  14.790
32592SOL    HW299674   5.265   4.058  14.764
32593SOL     OW99675  11.765   5.208   1.668
32593SOL    HW199676  11.789   5.231   1.578
32593SOL    HW299677  11.711   5.130   1.660
32594SOL     OW99678   4.381   4.936   7.877
32594SOL    HW199679   4.454   4.958   7.819
32594SOL    HW299680   4.409   4.856   7.922
32595SOL     OW99681  13.347   7.875   8.845
32595SOL    HW199682  13.288   7.886   8.920
32595SOL    HW299683  13.321   7.791   8.807
32596SOL     OW99684   3.550  11.167   8.084
32596SOL    HW199685   3.606  11.091   8.095
32596SOL    HW299686   3.558  11.216   8.166
32597SOL     OW99687   0.976  13.173  10.165
32597SOL    HW199688   1.024  13.219  10.233
32597SOL    HW299689   1.007  13.082  10.169
32598SOL     OW99690   0.634   4.071   1.458
32598SOL    HW199691   0.664   4.125   1.532
32598SOL    HW299692   0.703   4.005   1.448
32599SOL     OW99693  14.770  11.964   2.592
32599SOL    HW199694  14.740  11.992   2.505
32599SOL    HW299695  14.792  12.045   2.637
32600SOL     OW99696   0.874   0.803  12.250
32600SOL    HW199697   0.918   0.730  12.293
32600SOL    HW299698   0.784   0.773  12.237
32601SOL     OW99699   4.854   8.687   6.811
32601SOL    HW199700   4.846   8.619   6.878
32601SOL    HW299701   4.896   8.642   6.737
32602SOL     OW99702   2.022  10.120  14.678
32602SOL    HW199703   2.059  10.051  14.731
32602SOL    HW299704   2.092  10.146  14.618
32603SOL     OW99705  14.582   9.179   2.334
32603SOL    HW199706  14.496   9.174   2.375
32603SOL    HW299707  14.644   9.176   2.407
32604SOL     OW99708   2.226   7.996   2.627
32604SOL    HW199709   2.218   8.078   2.579
32604SOL    HW299710   2.262   8.021   2.712
32605SOL     OW99711  13.170  11.507  12.320
32605SOL    HW199712  13.107  11.529  12.251
32605SOL    HW299713  13.201  11.591  12.352
32606SOL     OW99714   2.009   4.645   5.442
32606SOL    HW199715   2.046   4.672   5.357
32606SOL    HW299716   1.916   4.634   5.425
32607SOL     OW99717   4.826   0.995  10.584
32607SOL    HW199718   4.795   1.082  10.609
32607SOL    HW299719   4.760   0.963  10.523
32608SOL     OW99720   0.329   0.572   9.784
32608SOL    HW199721   0.343   0.538   9.873
32608SOL    HW299722   0.417   0.591   9.751
32609SOL     OW99723   6.088   2.422   1.798
32609SOL    HW199724   6.021   2.369   1.841
32609SOL    HW299725   6.115   2.487   1.863
32610SOL     OW99726   3.739  11.993   5.517
32610SOL    HW199727   3.711  11.905   5.490
32610SOL    HW299728   3.713  12.000   5.608
32611SOL     OW99729  13.260   8.577   2.149
32611SOL    HW199730  13.260   8.536   2.062
32611SOL    HW299731  13.350   8.605   2.162
32612SOL     OW99732  12.952   4.135   2.472
32612SOL    HW199733  12.918   4.061   2.523
32612SOL    HW299734  13.006   4.184   2.534
32613SOL     OW99735   5.288   8.328   4.941
32613SOL    HW199736   5.324   8.297   5.024
32613SOL    HW299737   5.238   8.254   4.908
32614SOL     OW99738   1.404  14.585  12.734
32614SOL    HW199739   1.483  14.545  12.772
32614SOL    HW299740   1.337  14.577  12.802
32615SOL     OW99741   2.030   5.416  13.790
32615SOL    HW199742   2.018   5.497  13.839
32615SOL    HW299743   2.124   5.399  13.794
32616SOL     OW99744   4.385  10.386  10.641
32616SOL    HW199745   4.353  10.364  10.553
32616SOL    HW299746   4.477  10.408  10.629
32617SOL     OW99747  13.594   6.278   2.576
32617SOL    HW199748  13.551   6.249   2.656
32617SOL    HW299749  13.658   6.343   2.605
32618SOL     OW99750  12.579  11.555   0.205
32618SOL    HW199751  12.514  11.511   0.260
32618SOL    HW299752  12.532  11.630   0.168
32619SOL     OW99753   0.084  14.789   3.139
32619SOL    HW199754   0.013  14.726   3.149
32619SOL    HW299755   0.048  14.857   3.082
32620SOL     OW99756   7.752  12.015   9.427
32620SOL    HW199757   7.842  11.999   9.456
32620SOL    HW299758   7.744  11.964   9.346
32621SOL     OW99759   0.010   6.778   6.979
32621SOL    HW199760   0.095   6.738   6.960
32621SOL    HW299761  14.856   6.724   7.049
32622SOL     OW99762   3.203   0.577   9.294
32622SOL    HW199763   3.255   0.503   9.327
32622SOL    HW299764   3.245   0.601   9.212
32623SOL     OW99765   8.297   0.051   7.054
32623SOL    HW199766   8.227   0.080   6.996
32623SOL    HW299767   8.377   0.081   7.012
32624SOL     OW99768  14.305   5.741   7.472
32624SOL    HW199769  14.305   5.801   7.547
32624SOL    HW299770  14.283   5.797   7.397
32625SOL     OW99771  10.298   4.537   5.382
32625SOL    HW199772  10.388   4.567   5.375
32625SOL    HW299773  10.252   4.584   5.312
32626SOL     OW99774   1.908   8.324   9.855
32626SOL    HW199775   1.961   8.401   9.834
32626SOL    HW299776   1.861   8.349   9.935
32627SOL     OW99777   2.673  13.029  14.797
32627SOL    HW199778   2.584  13.054  14.821
32627SOL    HW299779   2.666  12.939  14.767
32628SOL     OW99780  12.048   7.303   8.740
32628SOL    HW199781  11.971   7.347   8.705
32628SOL    HW299782  12.095   7.271   8.663
32629SOL     OW99783   9.664   4.319   8.050
32629SOL    HW199784   9.628   4.231   8.039
32629SOL    HW299785   9.750   4.315   8.007
32630SOL     OW99786  14.111   5.668   1.068
32630SOL    HW199787  14.064   5.597   1.112
32630SOL    HW299788  14.163   5.709   1.136
32631SOL     OW99789   0.131  12.908   9.368
32631SOL    HW199790   0.205  12.947   9.322
32631SOL    HW299791   0.089  12.851   9.304
32632SOL     OW99792  12.086  10.970  13.614
32632SOL    HW199793  12.076  10.890  13.563
32632SOL    HW299794  12.005  10.978  13.664
32633SOL     OW99795   9.074   0.883   0.427
32633SOL    HW199796   9.013   0.952   0.402
32633SOL    HW299797   9.153   0.930   0.454
32634SOL     OW99798   6.464  13.769   9.388
32634SOL    HW199799   6.516  13.767   9.468
32634SOL    HW299800   6.457  13.862   9.366
32635SOL     OW99801   1.538  10.622   8.230
32635SOL    HW199802   1.448  10.589   8.232
32635SOL    HW299803   1.571  10.606   8.318
32636SOL     OW99804  11.643   0.931   2.045
32636SOL    HW199805  11.578   0.955   1.979
32636SOL    HW299806  11.722   0.980   2.021
32637SOL     OW99807   2.787   6.943   7.657
32637SOL    HW199808   2.784   6.848   7.641
32637SOL    HW299809   2.710   6.977   7.612
32638SOL     OW99810  13.618   0.207   7.901
32638SOL    HW199811  13.553   0.240   7.963
32638SOL    HW299812  13.584   0.233   7.815
32639SOL     OW99813   7.207   2.628   0.027
32639SOL    HW199814   7.197   2.721   0.049
32639SOL    HW299815   7.280   2.598   0.081
32640SOL     OW99816   1.034  13.139  13.831
32640SOL    HW199817   1.100  13.208  13.838
32640SOL    HW299818   1.045  13.086  13.910
32641SOL     OW99819  10.662  11.638   5.139
32641SOL    HW199820  10.692  11.644   5.049
32641SOL    HW299821  10.585  11.695   5.143
32642SOL     OW99822  11.454  13.078  12.051
32642SOL    HW199823  11.361  13.076  12.028
32642SOL    HW299824  11.462  13.152  12.111
32643SOL     OW99825   7.540   3.238   9.394
32643SOL    HW199826   7.509   3.150   9.417
32643SOL    HW299827   7.631   3.240   9.423
32644SOL     OW99828   0.471  10.075  11.455
32644SOL    HW199829   0.434  10.053  11.370
32644SOL    HW299830   0.565  10.088  11.438
32645SOL     OW99831   1.716   6.708   4.856
32645SOL    HW199832   1.786   6.646   4.834
32645SOL    HW299833   1.757   6.794   4.850
32646SOL     OW99834   4.306  12.619   5.423
32646SOL    HW199835   4.303  12.642   5.330
32646SOL    HW299836   4.229  12.565   5.437
32647SOL     OW99837  10.201  11.884  14.595
32647SOL    HW199838  10.284  11.927  14.580
32647SOL    HW299839  10.144  11.952  14.630
32648SOL     OW99840   0.706   6.377   4.268
32648SOL    HW199841   0.629   6.321   4.272
32648SOL    HW299842   0.767   6.330   4.212
32649SOL     OW99843  11.235   6.392   5.590
32649SOL    HW199844  11.324   6.403   5.557
32649SOL    HW299845  11.241   6.413   5.683
32650SOL     OW99846   3.532  12.817   9.219
32650SOL    HW199847   3.546  12.726   9.194
32650SOL    HW299848   3.586  12.829   9.298
32651SOL     OW99849   2.799   0.107  14.248
32651SOL    HW199850   2.857   0.066  14.184
32651SOL    HW299851   2.742   0.037  14.277
32652SOL     OW99852   2.205  10.537  13.175
32652SOL    HW199853   2.271  10.595  13.136
32652SOL    HW299854   2.194  10.466  13.112
32653SOL     OW99855   7.234   9.800   1.893
32653SOL    HW199856   7.294   9.817   1.966
32653SOL    HW299857   7.287   9.814   1.815
32654SOL     OW99858   9.475  14.201   6.765
32654SOL    HW199859   9.488  14.263   6.837
32654SOL    HW299860   9.421  14.249   6.702
32655SOL     OW99861   9.411   5.770  10.939
32655SOL    HW199862   9.410   5.842  10.875
32655SOL    HW299863   9.394   5.691  10.886
32656SOL     OW99864   3.136   9.889   9.260
32656SOL    HW199865   3.219   9.909   9.216
32656SOL    HW299866   3.084   9.845   9.192
32657SOL     OW99867   3.721   6.169   1.841
32657SOL    HW199868   3.629   6.179   1.865
32657SOL    HW299869   3.750   6.258   1.818
32658SOL     OW99870   9.692   2.422   4.432
32658SOL    HW199871   9.745   2.496   4.404
32658SOL    HW299872   9.744   2.380   4.501
32659SOL     OW99873  14.414   2.529  10.284
32659SOL    HW199874  14.389   2.603  10.339
32659SOL    HW299875  14.503   2.550  10.255
32660SOL     OW99876  10.933   0.418   2.867
32660SOL    HW199877  10.854   0.394   2.914
32660SOL    HW299878  10.969   0.336   2.834
32661SOL     OW99879   0.753   5.096  10.135
32661SOL    HW199880   0.716   5.183  10.155
32661SOL    HW299881   0.706   5.037  10.194
32662SOL     OW99882   8.665   5.999   8.196
32662SOL    HW199883   8.621   5.916   8.181
32662SOL    HW299884   8.600   6.053   8.242
32663SOL     OW99885  10.378  13.916  10.682
32663SOL    HW199886  10.376  13.824  10.654
32663SOL    HW299887  10.472  13.938  10.685
32664SOL     OW99888   7.650   3.475  11.379
32664SOL    HW199889   7.655   3.432  11.294
32664SOL    HW299890   7.667   3.567  11.361
32665SOL     OW99891   8.466   7.100   6.182
32665SOL    HW199892   8.502   7.178   6.138
32665SOL    HW299893   8.442   7.041   6.111
32666SOL     OW99894   7.476   2.896   8.821
32666SOL    HW199895   7.541   2.829   8.801
32666SOL    HW299896   7.396   2.867   8.777
32667SOL     OW99897   9.408   4.023   1.347
32667SOL    HW199898   9.386   4.014   1.440
32667SOL    HW299899   9.494   4.065   1.346
32668SOL     OW99900   4.721   3.950  10.733
32668SOL    HW199901   4.744   3.971  10.642
32668SOL    HW299902   4.724   4.034  10.778
32669SOL     OW99903  12.013   9.061   7.515
32669SOL    HW199904  11.987   9.104   7.596
32669SOL    HW299905  11.956   9.099   7.448
32670SOL     OW99906   0.726   6.427  12.186
32670SOL    HW199907   0.730   6.510  12.139
32670SOL    HW299908   0.638   6.394  12.167
32671SOL     OW99909  12.059   1.993   6.847
32671SOL    HW199910  12.118   1.922   6.823
32671SOL    HW299911  12.060   2.052   6.771
32672SOL     OW99912  14.338   0.559   5.310
32672SOL    HW199913  14.331   0.651   5.285
32672SOL    HW299914  14.414   0.555   5.368
32673SOL     OW99915  10.211   2.532   5.507
32673SOL    HW199916  10.301   2.562   5.519
32673SOL    HW299917  10.219   2.441   5.481
32674SOL     OW99918   1.188  12.979   2.387
32674SOL    HW199919   1.142  12.897   2.370
32674SOL    HW299920   1.207  12.978   2.481
32675SOL     OW99921  14.087   8.153  10.901
32675SOL    HW199922  14.002   8.134  10.941
32675SOL    HW299923  14.140   8.076  10.920
32676SOL     OW99924  12.285  14.828  14.495
32676SOL    HW199925  12.215  14.859  14.553
32676SOL    HW299926  12.241  14.770  14.433
32677SOL     OW99927   2.331   0.910   3.338
32677SOL    HW199928   2.358   0.996   3.371
32677SOL    HW299929   2.323   0.923   3.243
32678SOL     OW99930  14.296   3.381   5.877
32678SOL    HW199931  14.270   3.426   5.797
32678SOL    HW299932  14.214   3.359   5.921
32679SOL     OW99933   7.606  11.520  11.100
32679SOL    HW199934   7.693  11.495  11.069
32679SOL    HW299935   7.590  11.465  11.176
32680SOL     OW99936   0.137   3.520  12.426
32680SOL    HW199937   0.141   3.490  12.516
32680SOL    HW299938   0.182   3.605  12.426
32681SOL     OW99939   5.640   2.372   8.968
32681SOL    HW199940   5.716   2.429   8.977
32681SOL    HW299941   5.665   2.309   8.901
32682SOL     OW99942   9.398   1.580   0.975
32682SOL    HW199943   9.368   1.654   0.922
32682SOL    HW299944   9.359   1.503   0.935
32683SOL     OW99945   3.160  12.618   0.822
32683SOL    HW199946   3.106  12.539   0.833
32683SOL    HW299947   3.245  12.595   0.860
32684SOL     OW99948   4.870   4.494   4.560
32684SOL    HW199949   4.951   4.542   4.575
32684SOL    HW299950   4.896   4.416   4.511
32685SOL     OW99951  12.032   9.324   3.217
32685SOL    HW199952  12.035   9.405   3.267
32685SOL    HW299953  12.014   9.256   3.282
32686SOL     OW99954   4.007  10.236  12.030
32686SOL    HW199955   4.053  10.154  12.048
32686SOL    HW299956   3.946  10.246  12.103
32687SOL     OW99957  13.774  12.217   0.299
32687SOL    HW199958  13.776  12.294   0.356
32687SOL    HW299959  13.791  12.143   0.358
32688SOL     OW99960  11.212  10.938   8.008
32688SOL    HW199961  11.245  10.987   8.083
32688SOL    HW299962  11.287  10.931   7.949
32689SOL     OW99963   9.338   5.924   4.640
32689SOL    HW199964   9.269   5.989   4.627
32689SOL    HW299965   9.416   5.963   4.602
32690SOL     OW99966  14.232   9.135   8.162
32690SOL    HW199967  14.262   9.108   8.075
32690SOL    HW299968  14.256   9.227   8.169
32691SOL     OW99969  10.775   9.351  14.486
32691SOL    HW199970  10.783   9.256  14.475
32691SOL    HW299971  10.738   9.381  14.403
32692SOL     OW99972  10.586  13.719  10.110
32692SOL    HW199973  10.674  13.690  10.133
32692SOL    HW299974  10.572  13.798  10.162
32693SOL     OW99975   2.959   7.382   3.349
32693SOL    HW199976   2.865   7.391   3.331
32693SOL    HW299977   2.980   7.461   3.400
32694SOL     OW99978   6.513   5.394   8.027
32694SOL    HW199979   6.490   5.481   8.061
32694SOL    HW299980   6.584   5.365   8.084
32695SOL     OW99981  11.681  14.725   8.372
32695SOL    HW199982  11.711  14.721   8.281
32695SOL    HW299983  11.588  14.704   8.367
32696SOL     OW99984   2.826  13.569  13.121
32696SOL    HW199985   2.773  13.586  13.043
32696SOL    HW299986   2.898  13.515  13.090
32697SOL     OW99987   9.744   9.311  13.117
32697SOL    HW199988   9.717   9.391  13.163
32697SOL    HW299989   9.709   9.240  13.170
32698SOL     OW99990   3.859   2.577  11.212
32698SOL    HW199991   3.905   2.651  11.173
32698SOL    HW299992   3.910   2.555  11.290
32699SOL     OW99993   2.095   6.845  10.361
32699SOL    HW199994   2.145   6.833  10.442
32699SOL    HW299995   2.031   6.913  10.382
32700SOL     OW99996  13.418  14.507   1.389
32700SOL    HW199997  13.456  14.516   1.302
32700SOL    HW299998  13.405  14.413   1.401
32701SOL     OW99999  14.195   1.064   8.378
32701SOL    HW1    0  14.136   1.137   8.358
32701SOL    HW2    1  14.150   1.015   8.447
32702SOL     OW    2   3.471   0.201   1.552
32702SOL    HW1    3   3.541   0.181   1.614
32702SOL    HW2    4   3.390   0.192   1.603
32703SOL     OW    5  14.051   0.419   3.298
32703SOL    HW1    6  13.984   0.480   3.330
32703SOL    HW2    7  14.103   0.471   3.237
32704SOL     OW    8   7.592   8.843   1.815
32704SOL    HW1    9   7.528   8.856   1.744
32704SOL    HW2   10   7.638   8.763   1.791
32705SOL     OW   11   1.052   2.653   6.637
32705SOL    HW1   12   0.990   2.645   6.564
32705SOL    HW2   13   1.044   2.570   6.683
32706SOL     OW   14   8.118   4.768  11.357
32706SOL    HW1   15   8.165   4.851  11.368
32706SOL    HW2   16   8.159   4.709  11.420
32707SOL     OW   17   8.842  10.675   7.961
32707SOL    HW1   18   8.827  10.581   7.972
32707SOL    HW2   19   8.888  10.682   7.878
32708SOL     OW   20   8.813   4.301  12.840
32708SOL    HW1   21   8.761   4.222  12.852
32708SOL    HW2   22   8.784   4.336  12.756
32709SOL     OW   23   2.321   7.150  11.656
32709SOL    HW1   24   2.269   7.227  11.634
32709SOL    HW2   25   2.349   7.166  11.746
32710SOL     OW   26   6.498  12.266   7.786
32710SOL    HW1   27   6.437  12.287   7.716
32710SOL    HW2   28   6.442  12.241   7.860
32711SOL     OW   29   3.574   8.775   8.135
32711SOL    HW1   30   3.502   8.801   8.078
32711SOL    HW2   31   3.650   8.770   8.077
32712SOL     OW   32  10.116   7.436  11.884
32712SOL    HW1   33  10.057   7.497  11.928
32712SOL    HW2   34  10.058   7.380  11.832
32713SOL     OW   35   1.253   3.730   1.434
32713SOL    HW1   36   1.189   3.678   1.387
32713SOL    HW2   37   1.215   3.744   1.520
32714SOL     OW   38   9.129   6.928   4.982
32714SOL    HW1   39   9.196   6.881   4.932
32714SOL    HW2   40   9.113   7.008   4.932
32715SOL     OW   41  11.920   8.038  14.498
32715SOL    HW1   42  11.900   8.128  14.473
32715SOL    HW2   43  11.843   7.988  14.473
32716SOL     OW   44   0.385  10.111   8.703
32716SOL    HW1   45   0.381  10.121   8.608
32716SOL    HW2   46   0.470  10.070   8.720
32717SOL     OW   47   1.633  14.061   0.792
32717SOL    HW1   48   1.724  14.032   0.803
32717SOL    HW2   49   1.599  14.006   0.722
32718SOL     OW   50   4.205  13.408   8.656
32718SOL    HW1   51   4.233  13.416   8.747
32718SOL    HW2   52   4.110  13.418   8.659
32719SOL     OW   53  12.505  13.235  14.698
32719SOL    HW1   54  12.496  13.293  14.773
32719SOL    HW2   55  12.557  13.161  14.730
32720SOL     OW   56   5.137  10.442  12.675
32720SOL    HW1   57   5.133  10.362  12.728
32720SOL    HW2   58   5.224  10.440  12.636
32721SOL     OW   59   4.892   0.167   9.907
32721SOL    HW1   60   4.938   0.232   9.961
32721SOL    HW2   61   4.913   0.190   9.817
32722SOL     OW   62   4.091   2.344   9.648
32722SOL    HW1   63   4.164   2.374   9.702
32722SOL    HW2   64   4.102   2.392   9.565
32723SOL     OW   65  14.106  10.164   5.782
32723SOL    HW1   66  14.018  10.200   5.793
32723SOL    HW2   67  14.100  10.108   5.705
32724SOL     OW   68   4.579   4.461   2.868
32724SOL    HW1   69   4.537   4.540   2.903
32724SOL    HW2   70   4.671   4.472   2.890
32725SOL     OW   71   6.437  14.196   5.905
32725SOL    HW1   72   6.505  14.262   5.912
32725SOL    HW2   73   6.461  14.129   5.970
32726SOL     OW   74   4.678   8.765   9.082
32726SOL    HW1   75   4.608   8.716   9.039
32726SOL    HW2   76   4.755   8.751   9.028
32727SOL     OW   77   4.561  14.354   9.173
32727SOL    HW1   78   4.553  14.377   9.080
32727SOL    HW2   79   4.599  14.431   9.214
32728SOL     OW   80   1.295   7.850   4.712
32728SOL    HW1   81   1.250   7.931   4.735
32728SOL    HW2   82   1.228   7.798   4.668
32729SOL     OW   83   9.367   3.501  13.005
32729SOL    HW1   84   9.310   3.574  12.981
32729SOL    HW2   85   9.409   3.475  12.923
32730SOL     OW   86   3.536   7.710  13.795
32730SOL    HW1   87   3.605   7.654  13.830
32730SOL    HW2   88   3.485   7.654  13.737
32731SOL     OW   89  10.650   1.112   2.995
32731SOL    HW1   90  10.567   1.073   2.968
32731SOL    HW2   91  10.687   1.148   2.914
32732SOL     OW   92  12.311   7.885   7.299
32732SOL    HW1   93  12.327   7.854   7.210
32732SOL    HW2   94  12.371   7.834   7.354
32733SOL     OW   95   0.033  13.305  11.909
32733SOL    HW1   96   0.038  13.318  12.004
32733SOL    HW2   97  14.854  13.371  11.879
32734SOL     OW   98   5.119   3.095   8.688
32734SOL    HW1   99   5.197   3.077   8.740
32734SOL    HW2  100   5.065   3.017   8.698
32735SOL     OW  101  14.446   8.208   7.848
32735SOL    HW1  102  14.493   8.281   7.807
32735SOL    HW2  103  14.514   8.142   7.863
32736SOL     OW  104   0.767  12.205   3.804
32736SOL    HW1  105   0.825  12.175   3.874
32736SOL    HW2  106   0.683  12.163   3.821
32737SOL     OW  107  10.298  13.555   8.828
32737SOL    HW1  108  10.229  13.572   8.893
32737SOL    HW2  109  10.284  13.465   8.800
32738SOL     OW  110   7.637   2.789   0.972
32738SOL    HW1  111   7.697   2.807   0.899
32738SOL    HW2  112   7.643   2.694   0.985
32739SOL     OW  113  12.255   3.728   6.426
32739SOL    HW1  114  12.207   3.687   6.498
32739SOL    HW2  115  12.237   3.673   6.350
32740SOL     OW  116   5.976   4.132   7.207
32740SOL    HW1  117   6.031   4.193   7.157
32740SOL    HW2  118   5.993   4.047   7.167
32741SOL     OW  119   8.400  12.067  11.174
32741SOL    HW1  120   8.484  12.110  11.186
32741SOL    HW2  121   8.416  11.998  11.110
32742SOL     OW  122  13.451  14.211   1.349
32742SOL    HW1  123  13.380  14.158   1.385
32742SOL    HW2  124  13.476  14.166   1.268
32743SOL     OW  125   5.257   0.171   9.332
32743SOL    HW1  126   5.173   0.190   9.291
32743SOL    HW2  127   5.279   0.083   9.302
32744SOL     OW  128   1.277  13.365   8.747
32744SOL    HW1  129   1.364  13.331   8.727
32744SOL    HW2  130   1.269  13.446   8.696
32745SOL     OW  131  12.312   4.393  10.222
32745SOL    HW1  132  12.390   4.400  10.168
32745SOL    HW2  133  12.243   4.437  10.172
32746SOL     OW  134   6.559  13.646   3.342
32746SOL    HW1  135   6.540  13.571   3.398
32746SOL    HW2  136   6.654  13.651   3.340
32747SOL     OW  137   3.889  12.375  13.393
32747SOL    HW1  138   3.852  12.418  13.316
32747SOL    HW2  139   3.903  12.446  13.455
32748SOL     OW  140   3.839   2.013   3.064
32748SOL    HW1  141   3.794   2.089   3.101
32748SOL    HW2  142   3.888   1.976   3.138
32749SOL     OW  143   3.551   5.184   8.855
32749SOL    HW1  144   3.511   5.102   8.886
32749SOL    HW2  145   3.645   5.167   8.856
32750SOL     OW  146   8.657   8.808   9.556
32750SOL    HW1  147   8.741   8.772   9.586
32750SOL    HW2  148   8.676   8.847   9.471
32751SOL     OW  149  13.012   5.234   2.068
32751SOL    HW1  150  13.019   5.228   1.972
32751SOL    HW2  151  12.918   5.246   2.084
32752SOL     OW  152   4.280   4.769  11.860
32752SOL    HW1  153   4.216   4.817  11.913
32752SOL    HW2  154   4.332   4.721  11.924
32753SOL     OW  155  10.520   6.484   7.997
32753SOL    HW1  156  10.430   6.517   7.998
32753SOL    HW2  157  10.532   6.444   8.083
32754SOL     OW  158   2.234  10.251   0.151
32754SOL    HW1  159   2.183  10.254   0.232
32754SOL    HW2  160   2.295  10.324   0.159
32755SOL     OW  161   8.647   3.897   4.481
32755SOL    HW1  162   8.668   3.988   4.502
32755SOL    HW2  163   8.568   3.903   4.427
32756SOL     OW  164  11.402   4.705  13.870
32756SOL    HW1  165  11.472   4.723  13.933
32756SOL    HW2  166  11.350   4.636  13.912
32757SOL     OW  167   1.995   5.583   2.280
32757SOL    HW1  168   1.910   5.620   2.254
32757SOL    HW2  169   2.034   5.650   2.336
32758SOL     OW  170  12.841   7.205   6.446
32758SOL    HW1  171  12.844   7.299   6.464
32758SOL    HW2  172  12.933   7.178   6.442
32759SOL     OW  173   0.681   2.701   0.247
32759SOL    HW1  174   0.690   2.755   0.168
32759SOL    HW2  175   0.755   2.728   0.302
32760SOL     OW  176  14.761   2.350   5.965
32760SOL    HW1  177  14.697   2.405   6.011
32760SOL    HW2  178  14.709   2.280   5.926
32761SOL     OW  179   9.466  14.561   5.856
32761SOL    HW1  180   9.373  14.546   5.875
32761SOL    HW2  181   9.466  14.630   5.790
32762SOL     OW  182  13.975   8.092   2.285
32762SOL    HW1  183  14.059   8.054   2.260
32762SOL    HW2  184  13.935   8.027   2.342
32763SOL     OW  185  10.440   7.476  10.633
32763SOL    HW1  186  10.460   7.559  10.590
32763SOL    HW2  187  10.381   7.431  10.573
32764SOL     OW  188   2.880  14.316   1.856
32764SOL    HW1  189   2.787  14.331   1.875
32764SOL    HW2  190   2.920  14.403   1.866
32765SOL     OW  191   0.608  11.073   8.381
32765SOL    HW1  192   0.556  11.142   8.341
32765SOL    HW2  193   0.683  11.118   8.419
32766SOL     OW  194   5.591   4.256   8.064
32766SOL    HW1  195   5.664   4.314   8.087
32766SOL    HW2  196   5.573   4.207   8.145
32767SOL     OW  197   0.068   9.833   2.114
32767SOL    HW1  198   0.129   9.770   2.153
32767SOL    HW2  199   0.063   9.903   2.178
32768SOL     OW  200   7.225   6.583   0.675
32768SOL    HW1  201   7.250   6.501   0.718
32768SOL    HW2  202   7.256   6.573   0.584
32769SOL     OW  203   3.096   5.709  10.119
32769SOL    HW1  204   3.041   5.778  10.081
32769SOL    HW2  205   3.133   5.664  10.043
32770SOL     OW  206   2.396  11.801   8.180
32770SOL    HW1  207   2.354  11.799   8.093
32770SOL    HW2  208   2.457  11.874   8.175
32771SOL     OW  209   1.448   3.875  10.502
32771SOL    HW1  210   1.507   3.860  10.429
32771SOL    HW2  211   1.363   3.843  10.472
32772SOL     OW  212   2.793   8.613   1.435
32772SOL    HW1  213   2.797   8.519   1.455
32772SOL    HW2  214   2.748   8.651   1.510
32773SOL     OW  215   3.596   6.909   1.407
32773SOL    HW1  216   3.556   6.942   1.488
32773SOL    HW2  217   3.673   6.861   1.437
32774SOL     OW  218   8.557  12.293  10.254
32774SOL    HW1  219   8.545  12.307  10.348
32774SOL    HW2  220   8.489  12.229  10.231
32775SOL     OW  221   1.057  11.195   1.032
32775SOL    HW1  222   1.142  11.152   1.038
32775SOL    HW2  223   1.048  11.244   1.114
32776SOL     OW  224   1.913  13.115  11.943
32776SOL    HW1  225   1.934  13.061  12.019
32776SOL    HW2  226   1.829  13.155  11.964
32777SOL     OW  227   1.578   1.679   2.459
32777SOL    HW1  228   1.542   1.685   2.548
32777SOL    HW2  229   1.521   1.734   2.406
32778SOL     OW  230  10.409  13.711  11.628
32778SOL    HW1  231  10.319  13.714  11.661
32778SOL    HW2  232  10.404  13.655  11.550
32779SOL     OW  233   9.509   9.640   6.869
32779SOL    HW1  234   9.484   9.606   6.955
32779SOL    HW2  235   9.508   9.735   6.880
32780SOL     OW  236  10.027   0.392   4.777
32780SOL    HW1  237  10.039   0.343   4.696
32780SOL    HW2  238   9.932   0.398   4.788
32781SOL     OW  239  14.773   9.629  11.844
32781SOL    HW1  240  14.848   9.653  11.791
32781SOL    HW2  241  14.802   9.642  11.934
32782SOL     OW  242  14.077   0.162  10.197
32782SOL    HW1  243  14.147   0.126  10.252
32782SOL    HW2  244  14.109   0.150  10.107
32783SOL     OW  245   3.990  14.508   7.832
32783SOL    HW1  246   3.938  14.583   7.860
32783SOL    HW2  247   4.080  14.534   7.847
32784SOL     OW  248   8.977   8.280   9.884
32784SOL    HW1  249   8.898   8.252   9.930
32784SOL    HW2  250   8.945   8.334   9.812
32785SOL     OW  251   1.218   1.777   0.151
32785SOL    HW1  252   1.190   1.771   0.243
32785SOL    HW2  253   1.314   1.782   0.156
32786SOL     OW  254   8.141  10.309  13.004
32786SOL    HW1  255   8.173  10.395  13.030
32786SOL    HW2  256   8.117  10.319  12.912
32787SOL     OW  257  13.862   7.987  11.802
32787SOL    HW1  258  13.795   8.054  11.788
32787SOL    HW2  259  13.883   7.956  11.714
32788SOL     OW  260   4.934   4.027   7.733
32788SOL    HW1  261   4.969   3.950   7.688
32788SOL    HW2  262   4.977   4.027   7.819
32789SOL     OW  263  10.168   3.481   0.705
32789SOL    HW1  264  10.202   3.402   0.747
32789SOL    HW2  265  10.102   3.515   0.765
32790SOL     OW  266  10.625   9.897   6.516
32790SOL    HW1  267  10.565   9.862   6.582
32790SOL    HW2  268  10.704   9.920   6.564
32791SOL     OW  269   1.922  14.264   8.588
32791SOL    HW1  270   1.945  14.336   8.529
32791SOL    HW2  271   1.964  14.288   8.671
32792SOL     OW  272   3.151   8.430   5.572
32792SOL    HW1  273   3.190   8.469   5.651
32792SOL    HW2  274   3.057   8.444   5.583
32793SOL     OW  275   5.853   6.773  10.908
32793SOL    HW1  276   5.810   6.711  10.966
32793SOL    HW2  277   5.841   6.737  10.820
32794SOL     OW  278  13.996   2.987   8.211
32794SOL    HW1  279  14.023   2.899   8.182
32794SOL    HW2  280  14.078   3.030   8.236
32795SOL     OW  281   5.207  13.880   8.332
32795SOL    HW1  282   5.126  13.919   8.363
32795SOL    HW2  283   5.245  13.838   8.409
32796SOL     OW  284   6.173   6.197  10.474
32796SOL    HW1  285   6.148   6.229  10.561
32796SOL    HW2  286   6.095   6.208  10.421
32797SOL     OW  287   9.406   0.718   4.029
32797SOL    HW1  288   9.488   0.767   4.026
32797SOL    HW2  289   9.432   0.628   4.048
32798SOL     OW  290  12.176   6.539   0.568
32798SOL    HW1  291  12.165   6.445   0.582
32798SOL    HW2  292  12.230   6.569   0.642
32799SOL     OW  293   4.100   6.785   1.865
32799SOL    HW1  294   4.156   6.827   1.800
32799SOL    HW2  295   4.148   6.794   1.947
32800SOL     OW  296   5.870   4.785   6.439
32800SOL    HW1  297   5.951   4.837   6.438
32800SOL    HW2  298   5.896   4.703   6.480
32801SOL     OW  299   0.559  11.356   5.002
32801SOL    HW1  300   0.533  11.387   4.915
32801SOL    HW2  301   0.536  11.263   5.002
32802SOL     OW  302  12.321   1.694  12.674
32802SOL    HW1  303  12.270   1.737  12.605
32802SOL    HW2  304  12.355   1.615  12.632
32803SOL     OW  305   8.578   8.135   6.236
32803SOL    HW1  306   8.563   8.178   6.321
32803SOL    HW2  307   8.630   8.198   6.187
32804SOL     OW  308   0.464   5.948  14.728
32804SOL    HW1  309   0.377   5.954  14.767
32804SOL    HW2  310   0.473   6.029  14.677
32805SOL     OW  311   5.825  13.055   2.911
32805SOL    HW1  312   5.883  13.023   2.981
32805SOL    HW2  313   5.786  12.976   2.874
32806SOL     OW  314   3.738  13.937  14.621
32806SOL    HW1  315   3.742  13.989  14.702
32806SOL    HW2  316   3.666  13.875  14.637
32807SOL     OW  317  12.535  13.523   0.599
32807SOL    HW1  318  12.629  13.523   0.584
32807SOL    HW2  319  12.518  13.604   0.646
32808SOL     OW  320   2.940   9.512   9.381
32808SOL    HW1  321   3.026   9.551   9.395
32808SOL    HW2  322   2.911   9.547   9.297
32809SOL     OW  323  10.995  10.016   5.793
32809SOL    HW1  324  10.969   9.964   5.717
32809SOL    HW2  325  10.946  10.098   5.785
32810SOL     OW  326  10.271  10.472   6.124
32810SOL    HW1  327  10.208  10.408   6.092
32810SOL    HW2  328  10.265  10.545   6.063
32811SOL     OW  329   7.080   9.190   8.233
32811SOL    HW1  330   7.108   9.266   8.182
32811SOL    HW2  331   7.056   9.125   8.167
32812SOL     OW  332  13.654  13.778  12.931
32812SOL    HW1  333  13.616  13.690  12.938
32812SOL    HW2  334  13.640  13.803  12.840
32813SOL     OW  335   5.675   8.768   4.101
32813SOL    HW1  336   5.644   8.790   4.013
32813SOL    HW2  337   5.736   8.838   4.123
32814SOL     OW  338  10.475   4.119   7.932
32814SOL    HW1  339  10.512   4.208   7.935
32814SOL    HW2  340  10.460   4.103   7.839
32815SOL     OW  341  11.649   7.024   2.823
32815SOL    HW1  342  11.704   7.031   2.745
32815SOL    HW2  343  11.658   7.109   2.866
32816SOL     OW  344   2.727   8.232  10.002
32816SOL    HW1  345   2.791   8.178  10.048
32816SOL    HW2  346   2.647   8.180  10.001
32817SOL     OW  347   7.134   8.636  13.507
32817SOL    HW1  348   7.121   8.729  13.524
32817SOL    HW2  349   7.228   8.628  13.492
32818SOL     OW  350  10.261   9.554   1.715
32818SOL    HW1  351  10.315   9.601   1.779
32818SOL    HW2  352  10.255   9.465   1.749
32819SOL     OW  353   6.164   9.097   9.255
32819SOL    HW1  354   6.124   9.024   9.302
32819SOL    HW2  355   6.090   9.149   9.223
32820SOL     OW  356   8.564   3.334  10.151
32820SOL    HW1  357   8.486   3.321  10.206
32820SOL    HW2  358   8.630   3.369  10.211
32821SOL     OW  359   5.044  12.262   6.749
32821SOL    HW1  360   5.062  12.241   6.657
32821SOL    HW2  361   5.084  12.191   6.798
32822SOL     OW  362   3.222  11.281   3.049
32822SOL    HW1  363   3.154  11.213   3.046
32822SOL    HW2  364   3.259  11.274   3.137
32823SOL     OW  365  14.691   8.521  10.809
32823SOL    HW1  366  14.666   8.607  10.775
32823SOL    HW2  367  14.763   8.538  10.870
32824SOL     OW  368   0.820  13.978   4.866
32824SOL    HW1  369   0.833  13.906   4.928
32824SOL    HW2  370   0.884  14.044   4.893
32825SOL     OW  371   7.529   6.715   3.140
32825SOL    HW1  372   7.526   6.791   3.198
32825SOL    HW2  373   7.487   6.645   3.189
32826SOL     OW  374  10.339   2.055   5.939
32826SOL    HW1  375  10.401   2.014   5.878
32826SOL    HW2  376  10.393   2.110   5.995
32827SOL     OW  377   8.134   8.071   6.229
32827SOL    HW1  378   8.125   7.988   6.276
32827SOL    HW2  379   8.215   8.062   6.179
32828SOL     OW  380   5.088   5.375  12.488
32828SOL    HW1  381   5.061   5.342  12.402
32828SOL    HW2  382   5.180   5.397  12.477
32829SOL     OW  383   3.046   7.135  10.649
32829SOL    HW1  384   2.994   7.082  10.588
32829SOL    HW2  385   3.030   7.225  10.622
32830SOL     OW  386   5.176  10.666   4.013
32830SOL    HW1  387   5.093  10.654   3.967
32830SOL    HW2  388   5.242  10.637   3.949
32831SOL     OW  389   9.648   3.037  10.886
32831SOL    HW1  390   9.566   3.086  10.875
32831SOL    HW2  391   9.621   2.955  10.926
32832SOL     OW  392  12.054   8.736  14.121
32832SOL    HW1  393  12.068   8.820  14.166
32832SOL    HW2  394  12.061   8.670  14.190
32833SOL     OW  395   9.269   9.858   8.251
32833SOL    HW1  396   9.192   9.816   8.288
32833SOL    HW2  397   9.281   9.937   8.304
32834SOL     OW  398   4.864   0.271   4.999
32834SOL    HW1  399   4.791   0.321   4.963
32834SOL    HW2  400   4.924   0.336   5.033
32835SOL     OW  401   9.603   7.662   2.459
32835SOL    HW1  402   9.547   7.710   2.398
32835SOL    HW2  403   9.675   7.722   2.479
32836SOL     OW  404   6.723   5.816   9.945
32836SOL    HW1  405   6.687   5.889   9.995
32836SOL    HW2  406   6.745   5.749  10.011
32837SOL     OW  407   2.575  12.658   3.743
32837SOL    HW1  408   2.551  12.649   3.835
32837SOL    HW2  409   2.651  12.601   3.732
32838SOL     OW  410   4.020   7.245  11.186
32838SOL    HW1  411   3.989   7.328  11.152
32838SOL    HW2  412   4.090   7.218  11.127
32839SOL     OW  413   5.683  10.380  13.658
32839SOL    HW1  414   5.678  10.416  13.747
32839SOL    HW2  415   5.713  10.454  13.604
32840SOL     OW  416   3.227  10.880   0.522
32840SOL    HW1  417   3.192  10.836   0.445
32840SOL    HW2  418   3.258  10.809   0.579
32841SOL     OW  419  13.007   0.816  10.935
32841SOL    HW1  420  12.991   0.906  10.909
32841SOL    HW2  421  13.086   0.791  10.886
32842SOL     OW  422   8.462  12.828   5.303
32842SOL    HW1  423   8.402  12.848   5.374
32842SOL    HW2  424   8.549  12.842   5.340
32843SOL     OW  425   7.120   8.263   2.105
32843SOL    HW1  426   7.184   8.192   2.104
32843SOL    HW2  427   7.102   8.277   2.198
32844SOL     OW  428   7.357   2.949  12.811
32844SOL    HW1  429   7.315   2.947  12.896
32844SOL    HW2  430   7.355   2.859  12.780
32845SOL     OW  431  10.892   0.170  14.856
32845SOL    HW1  432  10.965   0.108  14.851
32845SOL    HW2  433  10.836   0.135   0.043
32846SOL     OW  434   5.297   8.804   0.554
32846SOL    HW1  435   5.247   8.846   0.623
32846SOL    HW2  436   5.236   8.799   0.480
32847SOL     OW  437   5.350   2.574   5.438
32847SOL    HW1  438   5.356   2.541   5.348
32847SOL    HW2  439   5.276   2.527   5.476
32848SOL     OW  440   1.486   3.135   4.623
32848SOL    HW1  441   1.511   3.092   4.542
32848SOL    HW2  442   1.490   3.065   4.689
32849SOL     OW  443  12.744   6.371   4.416
32849SOL    HW1  444  12.651   6.362   4.396
32849SOL    HW2  445  12.752   6.347   4.508
32850SOL     OW  446   7.266   5.958   6.299
32850SOL    HW1  447   7.325   5.909   6.241
32850SOL    HW2  448   7.286   6.050   6.279
32851SOL     OW  449   6.408  11.189   7.727
32851SOL    HW1  450   6.481  11.250   7.737
32851SOL    HW2  451   6.357  11.224   7.653
32852SOL     OW  452   4.418   1.096   2.336
32852SOL    HW1  453   4.467   1.173   2.364
32852SOL    HW2  454   4.338   1.097   2.388
32853SOL     OW  455  11.101  13.635   8.702
32853SOL    HW1  456  11.140  13.579   8.635
32853SOL    HW2  457  11.018  13.663   8.664
32854SOL     OW  458   4.557   2.596  13.655
32854SOL    HW1  459   4.464   2.621  13.653
32854SOL    HW2  460   4.592   2.628  13.571
32855SOL     OW  461   8.632  10.844   1.654
32855SOL    HW1  462   8.657  10.830   1.745
32855SOL    HW2  463   8.550  10.796   1.644
32856SOL     OW  464   9.909   0.640   7.290
32856SOL    HW1  465   9.837   0.579   7.277
32856SOL    HW2  466   9.965   0.597   7.354
32857SOL     OW  467   0.703   5.746   1.367
32857SOL    HW1  468   0.634   5.759   1.432
32857SOL    HW2  469   0.774   5.705   1.415
32858SOL     OW  470  13.937   8.689   6.637
32858SOL    HW1  471  13.999   8.762   6.638
32858SOL    HW2  472  13.905   8.687   6.547
32859SOL     OW  473  14.424  10.316   7.303
32859SOL    HW1  474  14.427  10.305   7.398
32859SOL    HW2  475  14.496  10.376   7.283
32860SOL     OW  476   0.616   2.593  12.824
32860SOL    HW1  477   0.613   2.498  12.809
32860SOL    HW2  478   0.581   2.631  12.743
32861SOL     OW  479   7.347   8.649  14.417
32861SOL    HW1  480   7.274   8.592  14.392
32861SOL    HW2  481   7.333   8.729  14.366
32862SOL     OW  482  13.763   6.908  12.296
32862SOL    HW1  483  13.787   6.985  12.244
32862SOL    HW2  484  13.815   6.837  12.259
32863SOL     OW  485   9.796  12.442   9.851
32863SOL    HW1  486   9.837  12.521   9.886
32863SOL    HW2  487   9.726  12.421   9.914
32864SOL     OW  488  12.255  13.507   3.263
32864SOL    HW1  489  12.347  13.525   3.280
32864SOL    HW2  490  12.243  13.528   3.170
32865SOL     OW  491  12.473   9.261  11.341
32865SOL    HW1  492  12.558   9.266  11.297
32865SOL    HW2  493  12.416   9.216  11.279
32866SOL     OW  494   5.890   2.160   3.539
32866SOL    HW1  495   5.855   2.243   3.507
32866SOL    HW2  496   5.908   2.110   3.459
32867SOL     OW  497   9.923   6.554   5.179
32867SOL    HW1  498   9.878   6.619   5.233
32867SOL    HW2  499   9.862   6.481   5.173
32868SOL     OW  500  11.879  13.555   9.014
32868SOL    HW1  501  11.889  13.631   9.071
32868SOL    HW2  502  11.957  13.555   8.959
32869SOL     OW  503   9.741   6.145   9.209
32869SOL    HW1  504   9.788   6.072   9.167
32869SOL    HW2  505   9.666   6.161   9.152
32870SOL     OW  506   5.183  11.155   7.361
32870SOL    HW1  507   5.227  11.238   7.347
32870SOL    HW2  508   5.133  11.166   7.442
32871SOL     OW  509   8.845  10.559   7.393
32871SOL    HW1  510   8.772  10.545   7.453
32871SOL    HW2  511   8.811  10.535   7.307
32872SOL     OW  512   5.367   5.575   4.823
32872SOL    HW1  513   5.396   5.614   4.741
32872SOL    HW2  514   5.350   5.649   4.881
32873SOL     OW  515  11.918   0.335   9.349
32873SOL    HW1  516  11.847   0.278   9.320
32873SOL    HW2  517  11.881   0.386   9.421
32874SOL     OW  518  13.571  10.791   8.105
32874SOL    HW1  519  13.535  10.740   8.031
32874SOL    HW2  520  13.622  10.727   8.154
32875SOL     OW  521   1.347   4.771  11.184
32875SOL    HW1  522   1.325   4.679  11.196
32875SOL    HW2  523   1.277   4.818  11.230
32876SOL     OW  524   6.467   4.562  11.763
32876SOL    HW1  525   6.555   4.546  11.796
32876SOL    HW2  526   6.480   4.595  11.674
32877SOL     OW  527   1.862   2.812   4.012
32877SOL    HW1  528   1.842   2.799   3.919
32877SOL    HW2  529   1.778   2.832   4.053
32878SOL     OW  530  11.128   8.440   1.824
32878SOL    HW1  531  11.039   8.449   1.790
32878SOL    HW2  532  11.172   8.382   1.763
32879SOL     OW  533   9.410   1.993  14.552
32879SOL    HW1  534   9.371   2.032  14.631
32879SOL    HW2  535   9.459   1.917  14.585
32880SOL     OW  536   8.530   3.926  12.189
32880SOL    HW1  537   8.453   3.980  12.176
32880SOL    HW2  538   8.542   3.880  12.106
32881SOL     OW  539   8.044   4.182   7.204
32881SOL    HW1  540   8.117   4.123   7.184
32881SOL    HW2  541   8.083   4.254   7.253
32882SOL     OW  542  13.418  12.065   8.374
32882SOL    HW1  543  13.387  12.155   8.356
32882SOL    HW2  544  13.511  12.075   8.392
32883SOL     OW  545   3.950  14.030   0.593
32883SOL    HW1  546   3.889  13.983   0.536
32883SOL    HW2  547   4.033  13.984   0.583
32884SOL     OW  548   4.392   5.123  10.399
32884SOL    HW1  549   4.396   5.216  10.420
32884SOL    HW2  550   4.405   5.078  10.482
32885SOL     OW  551  10.039   4.961   2.540
32885SOL    HW1  552  10.039   4.965   2.635
32885SOL    HW2  553  10.023   4.869   2.519
32886SOL     OW  554   0.082  10.790  11.438
32886SOL    HW1  555   0.080  10.774  11.343
32886SOL    HW2  556   0.140  10.722  11.472
32887SOL     OW  557   9.060  13.417   3.787
32887SOL    HW1  558   8.993  13.464   3.736
32887SOL    HW2  559   9.017  13.337   3.816
32888SOL     OW  560   0.068  10.021  11.847
32888SOL    HW1  561   0.084  10.108  11.884
32888SOL    HW2  562  14.856  10.019  11.829
32889SOL     OW  563   8.867  14.200  10.017
32889SOL    HW1  564   8.906  14.278   9.979
32889SOL    HW2  565   8.904  14.127   9.966
32890SOL     OW  566  10.461   6.541  14.473
32890SOL    HW1  567  10.541   6.489  14.484
32890SOL    HW2  568  10.401   6.483  14.427
32891SOL     OW  569   2.540   8.907  13.926
32891SOL    HW1  570   2.447   8.901  13.908
32891SOL    HW2  571   2.546   8.921  14.021
32892SOL     OW  572   5.528  12.583  14.374
32892SOL    HW1  573   5.448  12.613  14.332
32892SOL    HW2  574   5.584  12.555  14.301
32893SOL     OW  575   3.280   6.066  12.586
32893SOL    HW1  576   3.349   6.021  12.536
32893SOL    HW2  577   3.307   6.058  12.677
32894SOL     OW  578  10.866  12.291  12.312
32894SOL    HW1  579  10.884  12.261  12.223
32894SOL    HW2  580  10.946  12.337  12.338
32895SOL     OW  581   4.944   0.461  13.385
32895SOL    HW1  582   5.023   0.446  13.436
32895SOL    HW2  583   4.920   0.374  13.352
32896SOL     OW  584  13.725   6.000   3.300
32896SOL    HW1  585  13.655   5.946   3.263
32896SOL    HW2  586  13.715   5.991   3.394
32897SOL     OW  587   4.724   5.138   0.390
32897SOL    HW1  588   4.800   5.129   0.333
32897SOL    HW2  589   4.750   5.204   0.455
32898SOL     OW  590   5.603   1.275   7.194
32898SOL    HW1  591   5.695   1.299   7.200
32898SOL    HW2  592   5.561   1.318   7.268
32899SOL     OW  593   9.919   3.724  11.732
32899SOL    HW1  594   9.925   3.807  11.779
32899SOL    HW2  595   9.992   3.672  11.766
32900SOL     OW  596   0.293   9.205   3.042
32900SOL    HW1  597   0.278   9.299   3.053
32900SOL    HW2  598   0.208   9.170   3.017
32901SOL     OW  599   1.199   7.432   7.374
32901SOL    HW1  600   1.193   7.338   7.392
32901SOL    HW2  601   1.116   7.468   7.405
32902SOL     OW  602   5.463   0.080  13.555
32902SOL    HW1  603   5.375   0.095  13.520
32902SOL    HW2  604   5.451   0.012  13.621
32903SOL     OW  605   3.237   0.603  13.754
32903SOL    HW1  606   3.314   0.658  13.769
32903SOL    HW2  607   3.180   0.622  13.828
32904SOL     OW  608   8.759  13.818   0.102
32904SOL    HW1  609   8.837  13.777   0.066
32904SOL    HW2  610   8.698  13.745   0.116
32905SOL     OW  611  14.658   8.910   8.098
32905SOL    HW1  612  14.604   8.874   8.168
32905SOL    HW2  613  14.604   8.901   8.019
32906SOL     OW  614   3.392  12.294  13.625
32906SOL    HW1  615   3.418  12.371  13.575
32906SOL    HW2  616   3.450  12.293  13.701
32907SOL     OW  617   8.375  12.487   2.990
32907SOL    HW1  618   8.413  12.519   2.909
32907SOL    HW2  619   8.444  12.500   3.056
32908SOL     OW  620   9.943   7.232   6.254
32908SOL    HW1  621   9.857   7.246   6.214
32908SOL    HW2  622   9.924   7.184   6.335
32909SOL     OW  623   0.464   6.164   3.571
32909SOL    HW1  624   0.469   6.088   3.628
32909SOL    HW2  625   0.436   6.235   3.628
32910SOL     OW  626  14.514   0.294   5.739
32910SOL    HW1  627  14.529   0.381   5.776
32910SOL    HW2  628  14.506   0.236   5.814
32911SOL     OW  629   3.662   1.697   6.145
32911SOL    HW1  630   3.582   1.691   6.197
32911SOL    HW2  631   3.663   1.617   6.092
32912SOL     OW  632   8.883   8.627  13.443
32912SOL    HW1  633   8.829   8.583  13.378
32912SOL    HW2  634   8.823   8.686  13.489
32913SOL     OW  635  11.127   6.742   6.640
32913SOL    HW1  636  11.137   6.705   6.552
32913SOL    HW2  637  11.159   6.674   6.699
32914SOL     OW  638   1.610   5.795   5.693
32914SOL    HW1  639   1.530   5.746   5.708
32914SOL    HW2  640   1.581   5.881   5.662
32915SOL     OW  641   9.591   3.248   8.106
32915SOL    HW1  642   9.611   3.342   8.098
32915SOL    HW2  643   9.615   3.227   8.197
32916SOL     OW  644   3.746  13.356   3.759
32916SOL    HW1  645   3.689  13.413   3.810
32916SOL    HW2  646   3.811  13.415   3.722
32917SOL     OW  647  10.050  12.579   1.586
32917SOL    HW1  648  10.115  12.648   1.594
32917SOL    HW2  649  10.101  12.498   1.577
32918SOL     OW  650  14.125   5.240   7.958
32918SOL    HW1  651  14.124   5.333   7.982
32918SOL    HW2  652  14.218   5.221   7.945
32919SOL     OW  653   6.688   2.936  14.357
32919SOL    HW1  654   6.639   2.898  14.284
32919SOL    HW2  655   6.621   2.970  14.415
32920SOL     OW  656   8.735   7.898  12.158
32920SOL    HW1  657   8.780   7.860  12.234
32920SOL    HW2  658   8.789   7.973  12.133
32921SOL     OW  659   2.602  10.937   9.162
32921SOL    HW1  660   2.568  10.909   9.247
32921SOL    HW2  661   2.672  10.875   9.142
32922SOL     OW  662   5.917   9.605  10.031
32922SOL    HW1  663   5.881   9.644   9.952
32922SOL    HW2  664   5.906   9.672  10.099
32923SOL     OW  665   2.410  10.807   5.760
32923SOL    HW1  666   2.498  10.836   5.734
32923SOL    HW2  667   2.425  10.722   5.802
32924SOL     OW  668  12.043   5.439   4.336
32924SOL    HW1  669  12.112   5.466   4.275
32924SOL    HW2  670  11.978   5.510   4.331
32925SOL     OW  671   8.218   9.540   8.982
32925SOL    HW1  672   8.129   9.576   8.987
32925SOL    HW2  673   8.204   9.445   8.976
32926SOL     OW  674   0.263  14.347   2.303
32926SOL    HW1  675   0.284  14.295   2.380
32926SOL    HW2  676   0.290  14.293   2.229
32927SOL     OW  677  14.326   6.738   0.045
32927SOL    HW1  678  14.354   6.760  14.839
32927SOL    HW2  679  14.408   6.727   0.094
32928SOL     OW  680   1.004   3.361   5.694
32928SOL    HW1  681   0.919   3.374   5.735
32928SOL    HW2  682   1.034   3.276   5.728
32929SOL     OW  683   1.231   3.447  10.136
32929SOL    HW1  684   1.220   3.365  10.086
32929SOL    HW2  685   1.210   3.516  10.073
32930SOL     OW  686   6.385   5.947   8.815
32930SOL    HW1  687   6.442   5.896   8.872
32930SOL    HW2  688   6.310   5.890   8.799
32931SOL     OW  689   8.230   2.352  14.028
32931SOL    HW1  690   8.266   2.283  13.972
32931SOL    HW2  691   8.285   2.350  14.106
32932SOL     OW  692   4.299   4.360   0.588
32932SOL    HW1  693   4.243   4.393   0.517
32932SOL    HW2  694   4.357   4.297   0.545
32933SOL     OW  695   4.061  12.029   7.546
32933SOL    HW1  696   4.006  12.020   7.623
32933SOL    HW2  697   4.150  12.037   7.580
32934SOL     OW  698   3.430   1.632   8.221
32934SOL    HW1  699   3.370   1.616   8.295
32934SOL    HW2  700   3.514   1.652   8.263
32935SOL     OW  701   7.083   9.029   9.542
32935SOL    HW1  702   7.113   9.057   9.455
32935SOL    HW2  703   7.000   8.985   9.526
32936SOL     OW  704   8.864   8.383  13.815
32936SOL    HW1  705   8.856   8.291  13.837
32936SOL    HW2  706   8.789   8.425  13.856
32937SOL     OW  707   3.850  14.643   6.210
32937SOL    HW1  708   3.839  14.692   6.292
32937SOL    HW2  709   3.939  14.665   6.182
32938SOL     OW  710  13.354  12.491  14.308
32938SOL    HW1  711  13.289  12.487  14.238
32938SOL    HW2  712  13.337  12.413  14.360
32939SOL     OW  713   7.407   3.285   7.916
32939SOL    HW1  714   7.423   3.373   7.881
32939SOL    HW2  715   7.349   3.245   7.852
32940SOL     OW  716  10.219  11.321   6.764
32940SOL    HW1  717  10.247  11.305   6.674
32940SOL    HW2  718  10.156  11.393   6.758
32941SOL     OW  719  13.060   5.717  14.539
32941SOL    HW1  720  13.117   5.775  14.590
32941SOL    HW2  721  12.972   5.752  14.552
32942SOL     OW  722   6.363   5.604  13.720
32942SOL    HW1  723   6.429   5.554  13.768
32942SOL    HW2  724   6.334   5.671  13.782
32943SOL     OW  725  12.383   8.405   5.044
32943SOL    HW1  726  12.427   8.334   5.090
32943SOL    HW2  727  12.436   8.420   4.966
32944SOL     OW  728   0.578   0.375   2.253
32944SOL    HW1  729   0.530   0.294   2.234
32944SOL    HW2  730   0.670   0.351   2.242
32945SOL     OW  731   4.259   6.063   2.323
32945SOL    HW1  732   4.314   6.109   2.386
32945SOL    HW2  733   4.296   6.086   2.238
32946SOL     OW  734  11.538   8.976   4.606
32946SOL    HW1  735  11.571   9.063   4.583
32946SOL    HW2  736  11.552   8.969   4.700
32947SOL     OW  737   2.253   5.348   4.770
32947SOL    HW1  738   2.158   5.336   4.766
32947SOL    HW2  739   2.270   5.372   4.862
32948SOL     OW  740  14.554   3.807   6.058
32948SOL    HW1  741  14.613   3.881   6.064
32948SOL    HW2  742  14.570   3.757   6.138
32949SOL     OW  743  14.844   5.259  12.563
32949SOL    HW1  744   0.012   5.288  12.639
32949SOL    HW2  745  14.824   5.167  12.580
32950SOL     OW  746   4.606   6.413   6.154
32950SOL    HW1  747   4.557   6.413   6.237
32950SOL    HW2  748   4.695   6.386   6.180
32951SOL     OW  749  13.584  13.434  14.442
32951SOL    HW1  750  13.493  13.432  14.412
32951SOL    HW2  751  13.578  13.452  14.536
32952SOL     OW  752   2.782   6.396   8.049
32952SOL    HW1  753   2.808   6.342   8.124
32952SOL    HW2  754   2.819   6.351   7.973
32953SOL     OW  755  10.401  11.365   4.220
32953SOL    HW1  756  10.350  11.333   4.146
32953SOL    HW2  757  10.379  11.458   4.226
32954SOL     OW  758  14.882  10.746   8.451
32954SOL    HW1  759  14.787  10.750   8.460
32954SOL    HW2  760   0.029  10.836   8.469
32955SOL     OW  761   3.805  10.845   6.837
32955SOL    HW1  762   3.900  10.831   6.846
32955SOL    HW2  763   3.784  10.911   6.903
32956SOL     OW  764  12.226  14.651  14.251
32956SOL    HW1  765  12.232  14.657  14.156
32956SOL    HW2  766  12.132  14.653  14.269
32957SOL     OW  767   3.906   2.668  13.024
32957SOL    HW1  768   3.878   2.656  12.934
32957SOL    HW2  769   3.995   2.634  13.027
32958SOL     OW  770   7.559   9.291  13.734
32958SOL    HW1  771   7.574   9.314  13.825
32958SOL    HW2  772   7.466   9.266  13.731
32959SOL     OW  773  10.513   9.494   2.357
32959SOL    HW1  774  10.438   9.551   2.375
32959SOL    HW2  775  10.558   9.536   2.283
32960SOL     OW  776   0.747   7.318   2.913
32960SOL    HW1  777   0.836   7.352   2.904
32960SOL    HW2  778   0.734   7.310   3.008
32961SOL     OW  779  12.991   3.344   7.215
32961SOL    HW1  780  12.944   3.324   7.296
32961SOL    HW2  781  13.082   3.351   7.242
32962SOL     OW  782   2.405  12.976   9.586
32962SOL    HW1  783   2.390  13.037   9.513
32962SOL    HW2  784   2.422  12.892   9.543
32963SOL     OW  785   5.799   6.520   9.680
32963SOL    HW1  786   5.818   6.457   9.611
32963SOL    HW2  787   5.867   6.504   9.747
32964SOL     OW  788   7.890   7.671  13.990
32964SOL    HW1  789   7.971   7.714  13.963
32964SOL    HW2  790   7.838   7.742  14.029
32965SOL     OW  791  10.154  10.187   9.973
32965SOL    HW1  792  10.215  10.202   9.901
32965SOL    HW2  793  10.204  10.206  10.052
32966SOL     OW  794   8.812   4.127   9.820
32966SOL    HW1  795   8.826   4.191   9.890
32966SOL    HW2  796   8.770   4.176   9.750
32967SOL     OW  797   2.081   2.225   6.704
32967SOL    HW1  798   2.087   2.180   6.620
32967SOL    HW2  799   2.151   2.289   6.702
32968SOL     OW  800  10.302   6.070  10.243
32968SOL    HW1  801  10.217   6.043  10.278
32968SOL    HW2  802  10.333   5.995  10.192
32969SOL     OW  803   3.328   4.054  14.102
32969SOL    HW1  804   3.413   4.040  14.060
32969SOL    HW2  805   3.348   4.062  14.195
32970SOL     OW  806  12.836  13.238   7.109
32970SOL    HW1  807  12.742  13.255   7.113
32970SOL    HW2  808  12.857  13.195   7.192
32971SOL     OW  809   8.063   8.357   3.535
32971SOL    HW1  810   7.988   8.367   3.593
32971SOL    HW2  811   8.025   8.333   3.451
32972SOL     OW  812   3.195   4.313  13.784
32972SOL    HW1  813   3.205   4.307  13.879
32972SOL    HW2  814   3.109   4.275  13.766
32973SOL     OW  815   6.661   0.221   6.776
32973SOL    HW1  816   6.618   0.176   6.703
32973SOL    HW2  817   6.590   0.266   6.821
32974SOL     OW  818  14.102   5.006   9.997
32974SOL    HW1  819  14.131   5.097   9.999
32974SOL    HW2  820  14.112   4.975  10.087
32975SOL     OW  821  13.474   6.234   2.254
32975SOL    HW1  822  13.469   6.173   2.328
32975SOL    HW2  823  13.567   6.248   2.240
32976SOL     OW  824   1.241   7.749  10.516
32976SOL    HW1  825   1.273   7.662  10.493
32976SOL    HW2  826   1.312   7.787  10.569
32977SOL     OW  827  11.285   2.713   5.111
32977SOL    HW1  828  11.350   2.668   5.165
32977SOL    HW2  829  11.202   2.671   5.133
32978SOL     OW  830   5.799  10.380   3.659
32978SOL    HW1  831   5.735  10.311   3.648
32978SOL    HW2  832   5.788  10.437   3.583
32979SOL     OW  833   1.762  11.355  10.819
32979SOL    HW1  834   1.730  11.327  10.905
32979SOL    HW2  835   1.695  11.326  10.757
32980SOL     OW  836   1.346   9.026   3.755
32980SOL    HW1  837   1.339   9.098   3.818
32980SOL    HW2  838   1.295   8.955   3.794
32981SOL     OW  839   6.901   5.545   1.174
32981SOL    HW1  840   6.909   5.640   1.168
32981SOL    HW2  841   6.940   5.512   1.094
32982SOL     OW  842   8.872   8.927   3.200
32982SOL    HW1  843   8.793   8.877   3.220
32982SOL    HW2  844   8.863   9.008   3.251
32983SOL     OW  845   8.058   3.206  14.384
32983SOL    HW1  846   8.029   3.196  14.475
32983SOL    HW2  847   8.086   3.118  14.358
32984SOL     OW  848   9.361   8.919   9.065
32984SOL    HW1  849   9.346   8.894   9.156
32984SOL    HW2  850   9.432   8.983   9.069
32985SOL     OW  851  12.490  13.950  11.969
32985SOL    HW1  852  12.570  13.988  12.005
32985SOL    HW2  853  12.515  13.924  11.880
32986SOL     OW  854   2.158   3.705   4.735
32986SOL    HW1  855   2.244   3.745   4.727
32986SOL    HW2  856   2.137   3.676   4.647
32987SOL     OW  857   2.952  10.632   3.912
32987SOL    HW1  858   2.949  10.562   3.978
32987SOL    HW2  859   2.872  10.682   3.926
32988SOL     OW  860  13.145   6.279   0.016
32988SOL    HW1  861  13.230   6.236   0.006
32988SOL    HW2  862  13.083   6.207   0.027
32989SOL     OW  863   5.055   7.397   9.366
32989SOL    HW1  864   5.143   7.427   9.343
32989SOL    HW2  865   5.006   7.399   9.283
32990SOL     OW  866   4.123   3.000   6.637
32990SOL    HW1  867   4.052   3.002   6.701
32990SOL    HW2  868   4.183   2.933   6.670
32991SOL     OW  869   8.236   3.191   7.565
32991SOL    HW1  870   8.244   3.287   7.569
32991SOL    HW2  871   8.236   3.171   7.471
32992SOL     OW  872   1.432   7.495   7.904
32992SOL    HW1  873   1.383   7.456   7.832
32992SOL    HW2  874   1.425   7.433   7.976
32993SOL     OW  875  12.806  11.951  14.394
32993SOL    HW1  876  12.780  11.901  14.317
32993SOL    HW2  877  12.854  12.025  14.359
32994SOL     OW  878   8.602  10.038  14.472
32994SOL    HW1  879   8.545  10.024  14.548
32994SOL    HW2  880   8.648   9.955  14.461
32995SOL     OW  881   6.173   0.092  13.927
32995SOL    HW1  882   6.134   0.142  13.998
32995SOL    HW2  883   6.265   0.119  13.927
32996SOL     OW  884  12.130   4.232  13.129
32996SOL    HW1  885  12.200   4.290  13.158
32996SOL    HW2  886  12.064   4.290  13.092
32997SOL     OW  887   9.541  14.090  13.922
32997SOL    HW1  888   9.587  14.047  13.850
32997SOL    HW2  889   9.583  14.175  13.930
32998SOL     OW  890   7.960   7.648   1.066
32998SOL    HW1  891   7.922   7.712   1.006
32998SOL    HW2  892   7.884   7.611   1.113
32999SOL     OW  893   6.059   6.525   6.533
32999SOL    HW1  894   5.993   6.575   6.580
32999SOL    HW2  895   6.030   6.527   6.441
33000SOL     OW  896   1.476   7.763  14.182
33000SOL    HW1  897   1.415   7.690  14.186
33000SOL    HW2  898   1.466   7.808  14.266
33001SOL     OW  899  10.195   8.080   4.341
33001SOL    HW1  900  10.253   8.061   4.267
33001SOL    HW2  901  10.194   8.000   4.392
33002SOL     OW  902   4.755   3.956  12.403
33002SOL    HW1  903   4.797   4.042  12.405
33002SOL    HW2  904   4.822   3.896  12.438
33003SOL     OW  905  10.106  12.772   3.583
33003SOL    HW1  906  10.044  12.841   3.557
33003SOL    HW2  907  10.059  12.721   3.649
33004SOL     OW  908   2.425   9.026  10.872
33004SOL    HW1  909   2.485   9.043  10.945
33004SOL    HW2  910   2.452   9.086  10.803
33005SOL     OW  911   3.882  14.493   5.772
33005SOL    HW1  912   3.873  14.403   5.805
33005SOL    HW2  913   3.828  14.545   5.832
33006SOL     OW  914   5.932  12.061   1.681
33006SOL    HW1  915   5.953  11.969   1.694
33006SOL    HW2  916   5.926  12.071   1.586
33007SOL     OW  917  13.872  14.582   2.843
33007SOL    HW1  918  13.947  14.625   2.882
33007SOL    HW2  919  13.909  14.522   2.778
33008SOL     OW  920  12.236   8.637   7.341
33008SOL    HW1  921  12.310   8.592   7.301
33008SOL    HW2  922  12.266   8.657   7.430
33009SOL     OW  923  13.969   2.809   2.207
33009SOL    HW1  924  13.992   2.733   2.261
33009SOL    HW2  925  14.047   2.864   2.209
33010SOL     OW  926   8.183   1.394  11.517
33010SOL    HW1  927   8.185   1.490  11.524
33010SOL    HW2  928   8.100   1.375  11.473
33011SOL     OW  929   6.940  12.930  14.772
33011SOL    HW1  930   6.975  13.019  14.784
33011SOL    HW2  931   7.016  12.873  14.786
33012SOL     OW  932   2.288   6.758   0.924
33012SOL    HW1  933   2.280   6.779   0.831
33012SOL    HW2  934   2.258   6.836   0.970
33013SOL     OW  935   6.095   4.281  13.359
33013SOL    HW1  936   6.072   4.319  13.275
33013SOL    HW2  937   6.034   4.319  13.421
33014SOL     OW  938   9.360   9.122   7.716
33014SOL    HW1  939   9.400   9.053   7.664
33014SOL    HW2  940   9.351   9.083   7.803
33015SOL     OW  941  10.600   9.233  13.528
33015SOL    HW1  942  10.567   9.241  13.618
33015SOL    HW2  943  10.566   9.149  13.497
33016SOL     OW  944   8.418  11.111   9.583
33016SOL    HW1  945   8.359  11.075   9.517
33016SOL    HW2  946   8.413  11.049   9.656
33017SOL     OW  947   7.262   9.483   0.804
33017SOL    HW1  948   7.315   9.563   0.810
33017SOL    HW2  949   7.283   9.447   0.718
33018SOL     OW  950  12.928   3.471  12.411
33018SOL    HW1  951  12.876   3.411  12.358
33018SOL    HW2  952  13.019   3.448  12.393
33019SOL     OW  953   9.870   8.138  10.997
33019SOL    HW1  954   9.851   8.050  10.966
33019SOL    HW2  955   9.785   8.177  11.014
33020SOL     OW  956  11.710   2.661  10.424
33020SOL    HW1  957  11.673   2.748  10.442
33020SOL    HW2  958  11.673   2.637  10.339
33021SOL     OW  959  13.967  11.185   8.465
33021SOL    HW1  960  13.987  11.211   8.375
33021SOL    HW2  961  14.052  11.174   8.507
33022SOL     OW  962   3.265   5.163   1.675
33022SOL    HW1  963   3.265   5.099   1.745
33022SOL    HW2  964   3.279   5.247   1.719
33023SOL     OW  965  10.058   9.916   6.014
33023SOL    HW1  966  10.134   9.872   6.051
33023SOL    HW2  967   9.991   9.848   6.008
33024SOL     OW  968  13.206   0.136  11.591
33024SOL    HW1  969  13.169   0.060  11.546
33024SOL    HW2  970  13.131   0.177  11.634
33025SOL     OW  971   6.574   8.232   1.044
33025SOL    HW1  972   6.502   8.250   1.104
33025SOL    HW2  973   6.649   8.214   1.101
33026SOL     OW  974   3.271   9.299   7.495
33026SOL    HW1  975   3.334   9.311   7.424
33026SOL    HW2  976   3.311   9.232   7.550
33027SOL     OW  977   8.645  14.462   2.547
33027SOL    HW1  978   8.688  14.521   2.485
33027SOL    HW2  979   8.582  14.414   2.495
33028SOL     OW  980  13.404   1.277  12.634
33028SOL    HW1  981  13.487   1.263  12.678
33028SOL    HW2  982  13.414   1.237  12.548
33029SOL     OW  983   2.283   2.968   7.384
33029SOL    HW1  984   2.215   3.016   7.431
33029SOL    HW2  985   2.268   2.989   7.291
33030SOL     OW  986   7.061   8.887   5.427
33030SOL    HW1  987   7.067   8.918   5.337
33030SOL    HW2  988   6.970   8.860   5.438
33031SOL     OW  989   1.074   9.920   4.797
33031SOL    HW1  990   1.133   9.959   4.862
33031SOL    HW2  991   1.124   9.846   4.762
33032SOL     OW  992   4.439   9.347   4.958
33032SOL    HW1  993   4.534   9.336   4.946
33032SOL    HW2  994   4.402   9.262   4.935
33033SOL     OW  995   4.847  13.264  14.381
33033SOL    HW1  996   4.816  13.188  14.430
33033SOL    HW2  997   4.941  13.247  14.368
33034SOL     OW  998   9.337   6.040  12.328
33034SOL    HW1  999   9.258   6.072  12.285
33034SOL    HW2 1000   9.365   5.966  12.274
33035SOL     OW 1001  11.048  12.845   1.936
33035SOL    HW1 1002  11.132  12.818   1.973
33035SOL    HW2 1003  11.059  12.938   1.918
33036SOL     OW 1004   2.330   2.048   3.058
33036SOL    HW1 1005   2.276   2.054   3.137
33036SOL    HW2 1006   2.275   2.084   2.988
33037SOL     OW 1007  10.278   4.110   6.820
33037SOL    HW1 1008  10.203   4.167   6.805
33037SOL    HW2 1009  10.331   4.117   6.741
33038SOL     OW 1010   7.387  14.583  11.781
33038SOL    HW1 1011   7.320  14.529  11.822
33038SOL    HW2 1012   7.345  14.668  11.768
33039SOL     OW 1013   6.873   1.981  14.805
33039SOL    HW1 1014   6.908   1.998   0.010
33039SOL    HW2 1015   6.916   2.046  14.749
33040SOL     OW 1016   3.811   9.343  11.884
33040SOL    HW1 1017   3.889   9.287  11.884
33040SOL    HW2 1018   3.784   9.348  11.792
33041SOL     OW 1019   0.942  13.383   5.795
33041SOL    HW1 1020   0.905  13.406   5.880
33041SOL    HW2 1021   0.937  13.463   5.743
33042SOL     OW 1022   0.631  12.280  13.229
33042SOL    HW1 1023   0.650  12.371  13.205
33042SOL    HW2 1024   0.555  12.257  13.176
33043SOL     OW 1025   6.086   2.452  13.092
33043SOL    HW1 1026   6.035   2.503  13.155
33043SOL    HW2 1027   6.169   2.435  13.138
33044SOL     OW 1028   1.879  14.406   8.185
33044SOL    HW1 1029   1.934  14.378   8.112
33044SOL    HW2 1030   1.940  14.427   8.255
33045SOL     OW 1031   6.320   8.505   1.643
33045SOL    HW1 1032   6.242   8.523   1.590
33045SOL    HW2 1033   6.307   8.417   1.677
33046SOL     OW 1034   0.778   3.104  10.373
33046SOL    HW1 1035   0.814   3.016  10.362
33046SOL    HW2 1036   0.845   3.162  10.337
33047SOL     OW 1037   5.875   8.633  11.348
33047SOL    HW1 1038   5.783   8.628  11.374
33047SOL    HW2 1039   5.901   8.542  11.336
33048SOL     OW 1040   2.345   3.972  11.863
33048SOL    HW1 1041   2.278   3.977  11.931
33048SOL    HW2 1042   2.416   4.028  11.894
33049SOL     OW 1043  10.385   8.436  10.876
33049SOL    HW1 1044  10.417   8.351  10.844
33049SOL    HW2 1045  10.305   8.451  10.826
33050SOL     OW 1046   2.968  11.696   9.923
33050SOL    HW1 1047   2.954  11.749   9.845
33050SOL    HW2 1048   2.879  11.670   9.950
33051SOL     OW 1049   1.484   1.681   9.065
33051SOL    HW1 1050   1.412   1.696   9.004
33051SOL    HW2 1051   1.465   1.595   9.103
33052SOL     OW 1052   2.710   4.001   7.815
33052SOL    HW1 1053   2.637   4.022   7.873
33052SOL    HW2 1054   2.728   4.083   7.768
33053SOL     OW 1055  12.524  14.746   9.522
33053SOL    HW1 1056  12.547  14.670   9.575
33053SOL    HW2 1057  12.534  14.821   9.582
33054SOL     OW 1058  10.875   0.946  11.934
33054SOL    HW1 1059  10.853   0.994  11.854
33054SOL    HW2 1060  10.879   0.854  11.906
33055SOL     OW 1061  13.113   8.318   6.956
33055SOL    HW1 1062  13.164   8.391   6.921
33055SOL    HW2 1063  13.130   8.245   6.896
33056SOL     OW 1064   0.713  12.757   2.418
33056SOL    HW1 1065   0.765  12.771   2.496
33056SOL    HW2 1066   0.626  12.736   2.450
33057SOL     OW 1067   4.963   7.235  12.528
33057SOL    HW1 1068   4.870   7.246  12.548
33057SOL    HW2 1069   4.987   7.151  12.569
33058SOL     OW 1070  10.969   7.988  12.334
33058SOL    HW1 1071  10.985   7.939  12.253
33058SOL    HW2 1072  10.907   8.056  12.309
33059SOL     OW 1073   4.406  11.168   5.746
33059SOL    HW1 1074   4.416  11.084   5.702
33059SOL    HW2 1075   4.311  11.178   5.756
33060SOL     OW 1076   7.776   1.675  14.058
33060SOL    HW1 1077   7.698   1.630  14.025
33060SOL    HW2 1078   7.759   1.684  14.152
33061SOL     OW 1079  14.553  13.681   7.224
33061SOL    HW1 1080  14.497  13.711   7.153
33061SOL    HW2 1081  14.587  13.761   7.264
33062SOL     OW 1082   7.468   0.009  10.393
33062SOL    HW1 1083   7.549   0.018  10.343
33062SOL    HW2 1084   7.398   0.010  10.327
33063SOL     OW 1085  12.928   3.383   1.028
33063SOL    HW1 1086  12.982   3.399   0.950
33063SOL    HW2 1087  12.982   3.414   1.101
33064SOL     OW 1088   8.279   1.135   0.091
33064SOL    HW1 1089   8.351   1.079   0.119
33064SOL    HW2 1090   8.227   1.081   0.032
33065SOL     OW 1091   4.856  14.775   5.985
33065SOL    HW1 1092   4.898  14.796   6.068
33065SOL    HW2 1093   4.775  14.730   6.009
33066SOL     OW 1094  10.081   2.793   9.693
33066SOL    HW1 1095  10.150   2.817   9.755
33066SOL    HW2 1096  10.040   2.876   9.669
33067SOL     OW 1097   8.019  12.182   8.663
33067SOL    HW1 1098   7.963  12.115   8.704
33067SOL    HW2 1099   7.959  12.251   8.636
33068SOL     OW 1100  12.267   6.940  13.987
33068SOL    HW1 1101  12.316   7.020  13.965
33068SOL    HW2 1102  12.181   6.972  14.014
33069SOL     OW 1103   2.985  11.563   0.210
33069SOL    HW1 1104   2.909  11.598   0.163
33069SOL    HW2 1105   2.957  11.558   0.301
33070SOL     OW 1106  12.359   8.470   7.596
33070SOL    HW1 1107  12.340   8.412   7.670
33070SOL    HW2 1108  12.342   8.416   7.519
33071SOL     OW 1109   9.593   0.604  10.864
33071SOL    HW1 1110   9.559   0.571  10.948
33071SOL    HW2 1111   9.585   0.530  10.804
33072SOL     OW 1112   9.738   7.281   3.107
33072SOL    HW1 1113   9.765   7.267   3.017
33072SOL    HW2 1114   9.642   7.281   3.104
33073SOL     OW 1115   8.330   7.796   7.019
33073SOL    HW1 1116   8.385   7.873   7.001
33073SOL    HW2 1117   8.371   7.755   7.095
33074SOL     OW 1118  12.798   0.038   6.262
33074SOL    HW1 1119  12.749  14.880   6.190
33074SOL    HW2 1120  12.871  14.861   6.277
33075SOL     OW 1121   5.463   1.269   0.242
33075SOL    HW1 1122   5.554   1.261   0.272
33075SOL    HW2 1123   5.458   1.214   0.164
33076SOL     OW 1124   7.692   2.374   3.816
33076SOL    HW1 1125   7.609   2.364   3.863
33076SOL    HW2 1126   7.668   2.418   3.734
33077SOL     OW 1127  13.332   1.792  12.732
33077SOL    HW1 1128  13.345   1.715  12.677
33077SOL    HW2 1129  13.308   1.756  12.818
33078SOL     OW 1130   2.595   1.230  14.492
33078SOL    HW1 1131   2.662   1.239  14.560
33078SOL    HW2 1132   2.585   1.135  14.481
33079SOL     OW 1133   8.849   7.583   1.998
33079SOL    HW1 1134   8.831   7.499   2.040
33079SOL    HW2 1135   8.868   7.643   2.070
33080SOL     OW 1136   5.768   0.733   6.261
33080SOL    HW1 1137   5.699   0.737   6.327
33080SOL    HW2 1138   5.799   0.823   6.251
33081SOL     OW 1139  13.365   9.184  13.456
33081SOL    HW1 1140  13.441   9.137  13.421
33081SOL    HW2 1141  13.316   9.117  13.503
33082SOL     OW 1142   0.389   2.684  10.475
33082SOL    HW1 1143   0.428   2.708  10.559
33082SOL    HW2 1144   0.417   2.752  10.415
33083SOL     OW 1145  13.139  11.280   8.103
33083SOL    HW1 1146  13.216  11.325   8.139
33083SOL    HW2 1147  13.073  11.348   8.095
33084SOL     OW 1148   3.092   9.456  14.584
33084SOL    HW1 1149   3.154   9.385  14.603
33084SOL    HW2 1150   3.027   9.450  14.654
33085SOL     OW 1151   1.838   1.444   7.343
33085SOL    HW1 1152   1.803   1.365   7.385
33085SOL    HW2 1153   1.763   1.483   7.298
33086SOL     OW 1154   5.824   8.560   0.008
33086SOL    HW1 1155   5.782   8.485  14.849
33086SOL    HW2 1156   5.769   8.581   0.083
33087SOL     OW 1157  13.549   4.545   2.188
33087SOL    HW1 1158  13.626   4.581   2.144
33087SOL    HW2 1159  13.537   4.601   2.265
33088SOL     OW 1160  12.237   8.621  12.459
33088SOL    HW1 1161  12.143   8.622  12.475
33088SOL    HW2 1162  12.276   8.624  12.546
33089SOL     OW 1163   9.997  13.994   9.280
33089SOL    HW1 1164  10.023  14.042   9.201
33089SOL    HW2 1165  10.074  13.942   9.303
33090SOL     OW 1166  14.415   7.797   8.973
33090SOL    HW1 1167  14.398   7.743   8.896
33090SOL    HW2 1168  14.468   7.742   9.030
33091SOL     OW 1169   6.044   1.805  10.635
33091SOL    HW1 1170   6.107   1.858  10.586
33091SOL    HW2 1171   6.029   1.728  10.580
33092SOL     OW 1172   1.625  13.790   6.396
33092SOL    HW1 1173   1.650  13.873   6.437
33092SOL    HW2 1174   1.704  13.736   6.402
33093SOL     OW 1175   3.693   5.933   4.049
33093SOL    HW1 1176   3.664   5.955   3.960
33093SOL    HW2 1177   3.694   6.017   4.095
33094SOL     OW 1178   9.309   8.880   0.316
33094SOL    HW1 1179   9.256   8.805   0.341
33094SOL    HW2 1180   9.348   8.910   0.399
33095SOL     OW 1181   2.956  14.051  14.392
33095SOL    HW1 1182   2.995  13.963  14.395
33095SOL    HW2 1183   2.968  14.085  14.480
33096SOL     OW 1184   7.029   0.698   0.208
33096SOL    HW1 1185   6.934   0.707   0.204
33096SOL    HW2 1186   7.046   0.667   0.297
33097SOL     OW 1187   5.123   3.972   2.406
33097SOL    HW1 1188   5.113   4.036   2.476
33097SOL    HW2 1189   5.057   3.905   2.425
33098SOL     OW 1190  10.720   6.793   4.425
33098SOL    HW1 1191  10.784   6.842   4.373
33098SOL    HW2 1192  10.695   6.720   4.369
33099SOL     OW 1193  14.643   8.860   3.862
33099SOL    HW1 1194  14.645   8.903   3.777
33099SOL    HW2 1195  14.720   8.895   3.908
33100SOL     OW 1196  14.191   8.370   7.512
33100SOL    HW1 1197  14.167   8.447   7.565
33100SOL    HW2 1198  14.223   8.306   7.576
33101SOL     OW 1199   6.501  12.616  13.651
33101SOL    HW1 1200   6.571  12.680  13.666
33101SOL    HW2 1201   6.448  12.620  13.731
33102SOL     OW 1202   7.745   8.644   0.067
33102SOL    HW1 1203   7.670   8.601   0.108
33102SOL    HW2 1204   7.747   8.609  14.860
33103SOL     OW 1205   7.676   3.608   8.403
33103SOL    HW1 1206   7.652   3.671   8.335
33103SOL    HW2 1207   7.615   3.625   8.474
33104SOL     OW 1208   1.307   8.437   3.877
33104SOL    HW1 1209   1.387   8.466   3.834
33104SOL    HW2 1210   1.258   8.391   3.808
33105SOL     OW 1211  12.863   1.289  10.948
33105SOL    HW1 1212  12.793   1.284  11.013
33105SOL    HW2 1213  12.839   1.364  10.894
33106SOL     OW 1214   0.232   9.924  14.724
33106SOL    HW1 1215   0.150   9.968  14.700
33106SOL    HW2 1216   0.275   9.907  14.640
33107SOL     OW 1217  13.728  10.273  13.366
33107SOL    HW1 1218  13.777  10.269  13.284
33107SOL    HW2 1219  13.682  10.189  13.371
33108SOL     OW 1220   5.931  12.212  14.870
33108SOL    HW1 1221   5.878  12.292  14.866
33108SOL    HW2 1222   5.896  12.157  14.800
33109SOL     OW 1223  12.878   0.408   5.462
33109SOL    HW1 1224  12.958   0.459   5.475
33109SOL    HW2 1225  12.857   0.375   5.549
33110SOL     OW 1226   7.217   5.925   5.154
33110SOL    HW1 1227   7.294   5.886   5.193
33110SOL    HW2 1228   7.204   6.007   5.202
33111SOL     OW 1229   0.647   8.541   2.491
33111SOL    HW1 1230   0.662   8.636   2.499
33111SOL    HW2 1231   0.734   8.505   2.477
33112SOL     OW 1232   4.277  10.655   3.378
33112SOL    HW1 1233   4.347  10.602   3.418
33112SOL    HW2 1234   4.207  10.655   3.445
33113SOL     OW 1235   4.029   5.446  12.325
33113SOL    HW1 1236   4.049   5.446  12.231
33113SOL    HW2 1237   4.043   5.536  12.352
33114SOL     OW 1238   9.260   6.299   2.407
33114SOL    HW1 1239   9.310   6.220   2.426
33114SOL    HW2 1240   9.198   6.307   2.480
33115SOL     OW 1241  14.593   2.130  11.503
33115SOL    HW1 1242  14.526   2.157  11.442
33115SOL    HW2 1243  14.552   2.062  11.556
33116SOL     OW 1244   1.858   9.340  10.158
33116SOL    HW1 1245   1.883   9.250  10.137
33116SOL    HW2 1246   1.773   9.352  10.114
33117SOL     OW 1247   4.954  11.009   5.191
33117SOL    HW1 1248   4.999  10.967   5.118
33117SOL    HW2 1249   4.998  10.975   5.269
33118SOL     OW 1250   7.584   1.194   5.132
33118SOL    HW1 1251   7.512   1.210   5.193
33118SOL    HW2 1252   7.572   1.260   5.064
33119SOL     OW 1253   8.171  14.335  14.326
33119SOL    HW1 1254   8.134  14.355  14.240
33119SOL    HW2 1255   8.103  14.360  14.389
33120SOL     OW 1256   7.806  11.319  11.062
33120SOL    HW1 1257   7.757  11.286  10.987
33120SOL    HW2 1258   7.818  11.243  11.119
33121SOL     OW 1259   8.567   5.935  14.630
33121SOL    HW1 1260   8.562   5.985  14.711
33121SOL    HW2 1261   8.476   5.917  14.607
33122SOL     OW 1262  14.717   8.415   9.954
33122SOL    HW1 1263  14.667   8.494   9.971
33122SOL    HW2 1264  14.662   8.364   9.894
33123SOL     OW 1265   8.989  14.604   6.385
33123SOL    HW1 1266   9.018  14.593   6.476
33123SOL    HW2 1267   9.037  14.680   6.353
33124SOL     OW 1268   5.193  14.774   4.416
33124SOL    HW1 1269   5.204  14.814   4.330
33124SOL    HW2 1270   5.283  14.756   4.445
33125SOL     OW 1271   5.133   7.092  11.730
33125SOL    HW1 1272   5.168   7.147  11.801
33125SOL    HW2 1273   5.207   7.036  11.705
33126SOL     OW 1274   5.295  10.150   8.667
33126SOL    HW1 1275   5.350  10.165   8.744
33126SOL    HW2 1276   5.325  10.215   8.603
33127SOL     OW 1277   2.666   9.715   6.280
33127SOL    HW1 1278   2.669   9.715   6.184
33127SOL    HW2 1279   2.754   9.739   6.307
33128SOL     OW 1280   6.421   4.544  14.110
33128SOL    HW1 1281   6.335   4.502  14.114
33128SOL    HW2 1282   6.425   4.598  14.189
33129SOL     OW 1283   3.137   5.640   2.792
33129SOL    HW1 1284   3.169   5.555   2.822
33129SOL    HW2 1285   3.062   5.619   2.737
33130SOL     OW 1286  14.650   4.795  14.188
33130SOL    HW1 1287  14.705   4.823  14.261
33130SOL    HW2 1288  14.655   4.868  14.126
33131SOL     OW 1289  11.523  14.193   8.090
33131SOL    HW1 1290  11.462  14.194   8.017
33131SOL    HW2 1291  11.467  14.200   8.168
33132SOL     OW 1292   6.260  13.525   4.876
33132SOL    HW1 1293   6.250  13.430   4.883
33132SOL    HW2 1294   6.186  13.553   4.822
33133SOL     OW 1295   7.722   2.342   4.658
33133SOL    HW1 1296   7.793   2.287   4.625
33133SOL    HW2 1297   7.762   2.429   4.665
33134SOL     OW 1298   0.231  11.966   6.331
33134SOL    HW1 1299   0.267  11.938   6.415
33134SOL    HW2 1300   0.176  11.892   6.303
33135SOL     OW 1301   9.146   6.972  13.959
33135SOL    HW1 1302   9.171   7.033  13.889
33135SOL    HW2 1303   9.072   6.924  13.923
33136SOL     OW 1304  10.219   3.040  11.929
33136SOL    HW1 1305  10.174   3.073  12.007
33136SOL    HW2 1306  10.283   2.978  11.963
33137SOL     OW 1307  12.118  11.571   9.134
33137SOL    HW1 1308  12.150  11.542   9.048
33137SOL    HW2 1309  12.030  11.605   9.117
33138SOL     OW 1310  11.117   3.304  12.529
33138SOL    HW1 1311  11.127   3.223  12.479
33138SOL    HW2 1312  11.070   3.277  12.609
33139SOL     OW 1313   0.135   9.547  12.227
33139SOL    HW1 1314   0.104   9.637  12.220
33139SOL    HW2 1315   0.161   9.538  12.319
33140SOL     OW 1316   5.359   1.763   6.070
33140SOL    HW1 1317   5.359   1.676   6.031
33140SOL    HW2 1318   5.340   1.746   6.163
33141SOL     OW 1319   8.520  12.536   3.194
33141SOL    HW1 1320   8.599  12.509   3.240
33141SOL    HW2 1321   8.448  12.501   3.247
33142SOL     OW 1322   9.529  12.528  10.548
33142SOL    HW1 1323   9.467  12.559  10.614
33142SOL    HW2 1324   9.490  12.556  10.464
33143SOL     OW 1325  13.721  12.239   2.293
33143SOL    HW1 1326  13.683  12.313   2.246
33143SOL    HW2 1327  13.812  12.236   2.264
33144SOL     OW 1328  13.428   2.222   4.342
33144SOL    HW1 1329  13.445   2.158   4.411
33144SOL    HW2 1330  13.442   2.173   4.260
33145SOL     OW 1331  10.427   3.891   6.309
33145SOL    HW1 1332  10.414   3.905   6.215
33145SOL    HW2 1333  10.390   3.969   6.350
33146SOL     OW 1334  12.916  10.971  10.181
33146SOL    HW1 1335  12.960  10.903  10.132
33146SOL    HW2 1336  12.901  11.041  10.117
33147SOL     OW 1337   4.473   2.540   8.987
33147SOL    HW1 1338   4.430   2.464   9.026
33147SOL    HW2 1339   4.567   2.525   9.002
33148SOL     OW 1340   4.019   6.127   3.775
33148SOL    HW1 1341   4.073   6.067   3.723
33148SOL    HW2 1342   3.946   6.149   3.718
33149SOL     OW 1343  14.545   2.322  13.248
33149SOL    HW1 1344  14.463   2.363  13.219
33149SOL    HW2 1345  14.587   2.292  13.167
33150SOL     OW 1346   7.329   8.156  14.361
33150SOL    HW1 1347   7.273   8.161  14.439
33150SOL    HW2 1348   7.401   8.216  14.380
33151SOL     OW 1349   5.737  13.852  12.651
33151SOL    HW1 1350   5.702  13.764  12.645
33151SOL    HW2 1351   5.677  13.898  12.710
33152SOL     OW 1352  10.898   0.795   9.193
33152SOL    HW1 1353  10.965   0.846   9.149
33152SOL    HW2 1354  10.947   0.729   9.242
33153SOL     OW 1355   8.661   0.350   1.417
33153SOL    HW1 1356   8.608   0.415   1.371
33153SOL    HW2 1357   8.598   0.289   1.455
33154SOL     OW 1358  12.890   7.499   9.404
33154SOL    HW1 1359  12.829   7.441   9.358
33154SOL    HW2 1360  12.899   7.460   9.491
33155SOL     OW 1361   7.276  13.059  10.256
33155SOL    HW1 1362   7.301  13.124  10.321
33155SOL    HW2 1363   7.207  13.102  10.204
33156SOL     OW 1364   6.209  14.284   8.732
33156SOL    HW1 1365   6.146  14.213   8.724
33156SOL    HW2 1366   6.285  14.244   8.774
33157SOL     OW 1367  14.231   3.341   8.629
33157SOL    HW1 1368  14.247   3.369   8.719
33157SOL    HW2 1369  14.154   3.285   8.635
33158SOL     OW 1370   9.087   9.928  11.773
33158SOL    HW1 1371   9.142   9.849  11.779
33158SOL    HW2 1372   9.050   9.938  11.860
33159SOL     OW 1373   8.716  10.109   8.210
33159SOL    HW1 1374   8.620  10.100   8.210
33159SOL    HW2 1375   8.731  10.203   8.203
33160SOL     OW 1376  14.805   3.380   8.441
33160SOL    HW1 1377  14.722   3.393   8.394
33160SOL    HW2 1378  14.855   3.460   8.423
33161SOL     OW 1379  13.829   1.795  10.770
33161SOL    HW1 1380  13.877   1.877  10.754
33161SOL    HW2 1381  13.738   1.823  10.780
33162SOL     OW 1382   8.946   9.702  10.247
33162SOL    HW1 1383   8.876   9.652  10.289
33162SOL    HW2 1384   8.933   9.686  10.153
33163SOL     OW 1385   2.158   2.477   0.593
33163SOL    HW1 1386   2.097   2.486   0.520
33163SOL    HW2 1387   2.201   2.393   0.578
33164SOL     OW 1388   4.277  11.260  12.575
33164SOL    HW1 1389   4.238  11.184  12.532
33164SOL    HW2 1390   4.328  11.222  12.647
33165SOL     OW 1391   0.135   6.804  10.990
33165SOL    HW1 1392   0.168   6.847  10.911
33165SOL    HW2 1393   0.086   6.729  10.958
33166SOL     OW 1394   9.705   4.852   1.543
33166SOL    HW1 1395   9.747   4.890   1.621
33166SOL    HW2 1396   9.654   4.779   1.577
33167SOL     OW 1397   5.024   4.582  11.265
33167SOL    HW1 1398   5.108   4.598  11.308
33167SOL    HW2 1399   5.035   4.497  11.222
33168SOL     OW 1400   8.152   2.222  10.557
33168SOL    HW1 1401   8.110   2.296  10.512
33168SOL    HW2 1402   8.126   2.232  10.649
33169SOL     OW 1403  11.837   3.943   2.366
33169SOL    HW1 1404  11.798   3.934   2.453
33169SOL    HW2 1405  11.929   3.920   2.378
33170SOL     OW 1406   5.785   0.943  10.380
33170SOL    HW1 1407   5.833   0.959  10.298
33170SOL    HW2 1408   5.837   0.989  10.447
33171SOL     OW 1409   5.578   4.033  12.082
33171SOL    HW1 1410   5.655   4.089  12.085
33171SOL    HW2 1411   5.608   3.948  12.115
33172SOL     OW 1412  14.869   8.032   6.903
33172SOL    HW1 1413  14.841   8.030   6.994
33172SOL    HW2 1414   0.057   7.967   6.897
33173SOL     OW 1415  10.934  11.988   4.734
33173SOL    HW1 1416  10.907  12.076   4.709
33173SOL    HW2 1417  10.853  11.937   4.734
33174SOL     OW 1418   5.263   0.501  11.472
33174SOL    HW1 1419   5.331   0.481  11.408
33174SOL    HW2 1420   5.219   0.578  11.437
33175SOL     OW 1421   0.080   3.070   1.763
33175SOL    HW1 1422   0.067   3.073   1.668
33175SOL    HW2 1423   0.170   3.040   1.774
33176SOL     OW 1424   1.488   4.709  12.067
33176SOL    HW1 1425   1.539   4.789  12.054
33176SOL    HW2 1426   1.479   4.671  11.980
33177SOL     OW 1427   6.294  10.614   9.493
33177SOL    HW1 1428   6.296  10.572   9.407
33177SOL    HW2 1429   6.288  10.708   9.474
33178SOL     OW 1430   4.019   7.429   2.345
33178SOL    HW1 1431   4.059   7.506   2.306
33178SOL    HW2 1432   4.082   7.399   2.410
33179SOL     OW 1433   1.486  14.081   8.952
33179SOL    HW1 1434   1.574  14.084   8.991
33179SOL    HW2 1435   1.471  13.988   8.936
33180SOL     OW 1436   9.470  11.196  12.315
33180SOL    HW1 1437   9.544  11.254  12.293
33180SOL    HW2 1438   9.416  11.249  12.374
33181SOL     OW 1439   2.489   1.803   0.319
33181SOL    HW1 1440   2.566   1.806   0.376
33181SOL    HW2 1441   2.525   1.784   0.232
33182SOL     OW 1442   9.730  11.979   0.796
33182SOL    HW1 1443   9.813  12.015   0.828
33182SOL    HW2 1444   9.725  11.892   0.834
33183SOL     OW 1445  11.327   8.600   2.067
33183SOL    HW1 1446  11.412   8.642   2.079
33183SOL    HW2 1447  11.278   8.659   2.011
33184SOL     OW 1448   1.746   5.205   3.402
33184SOL    HW1 1449   1.650   5.200   3.405
33184SOL    HW2 1450   1.772   5.130   3.349
33185SOL     OW 1451  10.630   5.337   8.469
33185SOL    HW1 1452  10.663   5.252   8.439
33185SOL    HW2 1453  10.626   5.328   8.565
33186SOL     OW 1454   3.252  13.187   1.266
33186SOL    HW1 1455   3.256  13.139   1.184
33186SOL    HW2 1456   3.342  13.216   1.282
33187SOL     OW 1457   9.012   9.194   5.669
33187SOL    HW1 1458   9.024   9.110   5.713
33187SOL    HW2 1459   8.966   9.249   5.733
33188SOL     OW 1460   5.119   6.638   7.683
33188SOL    HW1 1461   5.069   6.676   7.755
33188SOL    HW2 1462   5.091   6.547   7.679
33189SOL     OW 1463  14.232   7.491   8.041
33189SOL    HW1 1464  14.218   7.585   8.051
33189SOL    HW2 1465  14.314   7.474   8.087
33190SOL     OW 1466   9.295  12.568   0.089
33190SOL    HW1 1467   9.291  12.660   0.115
33190SOL    HW2 1468   9.222  12.557   0.027
33191SOL     OW 1469  12.230  12.651   3.353
33191SOL    HW1 1470  12.248  12.732   3.304
33191SOL    HW2 1471  12.250  12.673   3.444
33192SOL     OW 1472   4.191   8.655  11.829
33192SOL    HW1 1473   4.102   8.689  11.821
33192SOL    HW2 1474   4.201   8.596  11.754
33193SOL     OW 1475  10.459   2.685   0.078
33193SOL    HW1 1476  10.506   2.627   0.019
33193SOL    HW2 1477  10.397   2.628   0.124
33194SOL     OW 1478  12.758   1.889   0.867
33194SOL    HW1 1479  12.799   1.870   0.952
33194SOL    HW2 1480  12.684   1.945   0.887
33195SOL     OW 1481  10.224   0.117   0.955
33195SOL    HW1 1482  10.209   0.116   0.860
33195SOL    HW2 1483  10.152   0.169   0.990
33196SOL     OW 1484   3.646  12.696   8.418
33196SOL    HW1 1485   3.652  12.790   8.403
33196SOL    HW2 1486   3.554  12.680   8.440
33197SOL     OW 1487   1.988   7.910   0.855
33197SOL    HW1 1488   2.031   7.953   0.781
33197SOL    HW2 1489   1.930   7.977   0.892
33198SOL     OW 1490   4.661   2.471   8.736
33198SOL    HW1 1491   4.588   2.411   8.748
33198SOL    HW2 1492   4.635   2.526   8.662
33199SOL     OW 1493   0.232   8.446   8.915
33199SOL    HW1 1494   0.254   8.371   8.860
33199SOL    HW2 1495   0.184   8.408   8.989
33200SOL     OW 1496   0.128   1.493   5.415
33200SOL    HW1 1497   0.219   1.466   5.418
33200SOL    HW2 1498   0.121   1.559   5.484
33201SOL     OW 1499   0.011   2.604   0.282
33201SOL    HW1 1500  14.851   2.635   0.362
33201SOL    HW2 1501   0.104   2.603   0.303
33202SOL     OW 1502   7.562  10.390   6.554
33202SOL    HW1 1503   7.546  10.296   6.545
33202SOL    HW2 1504   7.618  10.397   6.631
33203SOL     OW 1505   6.248   3.735   2.482
33203SOL    HW1 1506   6.274   3.680   2.556
33203SOL    HW2 1507   6.219   3.673   2.415
33204SOL     OW 1508  11.837  12.845   3.012
33204SOL    HW1 1509  11.927  12.869   2.993
33204SOL    HW2 1510  11.840  12.805   3.099
33205SOL     OW 1511   1.931   9.318  14.747
33205SOL    HW1 1512   2.025   9.300  14.746
33205SOL    HW2 1513   1.922   9.402  14.793
33206SOL     OW 1514   1.473  12.272   6.029
33206SOL    HW1 1515   1.505  12.299   6.115
33206SOL    HW2 1516   1.417  12.344   6.001
33207SOL     OW 1517  10.099  10.436   1.661
33207SOL    HW1 1518  10.150  10.463   1.585
33207SOL    HW2 1519  10.059  10.517   1.693
33208SOL     OW 1520   3.929  12.775  11.626
33208SOL    HW1 1521   3.900  12.800  11.714
33208SOL    HW2 1522   3.863  12.814  11.568
33209SOL     OW 1523  14.411   4.885   2.413
33209SOL    HW1 1524  14.438   4.973   2.441
33209SOL    HW2 1525  14.474   4.862   2.345
33210SOL     OW 1526   5.323   5.948   7.105
33210SOL    HW1 1527   5.267   5.871   7.091
33210SOL    HW2 1528   5.303   5.976   7.194
33211SOL     OW 1529  11.421  13.676   1.658
33211SOL    HW1 1530  11.406  13.703   1.568
33211SOL    HW2 1531  11.353  13.720   1.709
33212SOL     OW 1532  12.010   0.962  13.149
33212SOL    HW1 1533  12.084   0.903  13.163
33212SOL    HW2 1534  12.007   1.015  13.228
33213SOL     OW 1535  13.196  12.833   3.868
33213SOL    HW1 1536  13.130  12.798   3.927
33213SOL    HW2 1537  13.145  12.883   3.803
33214SOL     OW 1538  12.094   9.786   8.189
33214SOL    HW1 1539  12.013   9.759   8.232
33214SOL    HW2 1540  12.141   9.704   8.173
33215SOL     OW 1541  12.708   3.855  13.791
33215SOL    HW1 1542  12.622   3.849  13.749
33215SOL    HW2 1543  12.752   3.773  13.768
33216SOL     OW 1544   8.276   9.005  14.782
33216SOL    HW1 1545   8.239   8.998  14.694
33216SOL    HW2 1546   8.369   9.021  14.767
33217SOL     OW 1547   2.982   4.488  13.299
33217SOL    HW1 1548   3.021   4.424  13.239
33217SOL    HW2 1549   3.004   4.573  13.261
33218SOL     OW 1550   2.319  12.743   3.684
33218SOL    HW1 1551   2.338  12.808   3.616
33218SOL    HW2 1552   2.398  12.689   3.687
33219SOL     OW 1553   0.169   7.633  11.842
33219SOL    HW1 1554   0.076   7.647  11.824
33219SOL    HW2 1555   0.212   7.714  11.816
33220SOL     OW 1556   2.213   8.895   2.809
33220SOL    HW1 1557   2.200   8.825   2.873
33220SOL    HW2 1558   2.296   8.876   2.767
33221SOL     OW 1559  10.170   4.275   0.657
33221SOL    HW1 1560  10.098   4.329   0.688
33221SOL    HW2 1561  10.212   4.244   0.737
33222SOL     OW 1562  13.243   9.920  12.380
33222SOL    HW1 1563  13.336   9.916  12.402
33222SOL    HW2 1564  13.209   9.994  12.430
33223SOL     OW 1565   9.857   1.596  14.204
33223SOL    HW1 1566   9.830   1.593  14.112
33223SOL    HW2 1567   9.846   1.688  14.229
33224SOL     OW 1568   3.964  14.008   0.092
33224SOL    HW1 1569   3.989  14.055   0.013
33224SOL    HW2 1570   3.870  14.025   0.101
33225SOL     OW 1571   2.466   8.401   4.558
33225SOL    HW1 1572   2.481   8.370   4.469
33225SOL    HW2 1573   2.401   8.340   4.594
33226SOL     OW 1574   1.222  10.903  12.158
33226SOL    HW1 1575   1.198  10.996  12.155
33226SOL    HW2 1576   1.247  10.881  12.069
33227SOL     OW 1577   4.239   5.867   4.256
33227SOL    HW1 1578   4.314   5.816   4.289
33227SOL    HW2 1579   4.170   5.802   4.244
33228SOL     OW 1580  14.202   0.941   2.510
33228SOL    HW1 1581  14.198   0.846   2.503
33228SOL    HW2 1582  14.261   0.958   2.583
33229SOL     OW 1583  10.919   0.517   4.481
33229SOL    HW1 1584  10.922   0.601   4.527
33229SOL    HW2 1585  10.971   0.532   4.402
33230SOL     OW 1586   3.506  13.847   7.035
33230SOL    HW1 1587   3.498  13.752   7.023
33230SOL    HW2 1588   3.527  13.881   6.948
33231SOL     OW 1589  13.211  12.174   4.985
33231SOL    HW1 1590  13.194  12.268   4.988
33231SOL    HW2 1591  13.144  12.140   4.926
33232SOL     OW 1592  12.325   2.856   5.427
33232SOL    HW1 1593  12.340   2.812   5.511
33232SOL    HW2 1594  12.290   2.942   5.452
33233SOL     OW 1595   0.470  11.368  12.142
33233SOL    HW1 1596   0.530  11.303  12.176
33233SOL    HW2 1597   0.445  11.336  12.055
33234SOL     OW 1598   8.543   5.101   5.907
33234SOL    HW1 1599   8.546   5.136   5.996
33234SOL    HW2 1600   8.624   5.133   5.866
33235SOL     OW 1601  14.612  11.459  14.492
33235SOL    HW1 1602  14.646  11.461  14.582
33235SOL    HW2 1603  14.528  11.415  14.499
33236SOL     OW 1604  11.747   8.756   4.480
33236SOL    HW1 1605  11.743   8.660   4.488
33236SOL    HW2 1606  11.688   8.776   4.407
33237SOL     OW 1607   6.399  14.338  14.347
33237SOL    HW1 1608   6.434  14.289  14.421
33237SOL    HW2 1609   6.330  14.282  14.312
33238SOL     OW 1610  10.905   5.342   0.333
33238SOL    HW1 1611  10.819   5.318   0.297
33238SOL    HW2 1612  10.886   5.412   0.396
33239SOL     OW 1613   9.693   0.790  12.488
33239SOL    HW1 1614   9.709   0.695  12.489
33239SOL    HW2 1615   9.723   0.818  12.401
33240SOL     OW 1616   5.709   9.816  14.060
33240SOL    HW1 1617   5.749   9.756  14.124
33240SOL    HW2 1618   5.664   9.881  14.114
33241SOL     OW 1619   0.894   0.571   7.798
33241SOL    HW1 1620   0.933   0.631   7.734
33241SOL    HW2 1621   0.890   0.622   7.879
33242SOL     OW 1622   1.454  13.007  14.819
33242SOL    HW1 1623   1.423  13.093  14.848
33242SOL    HW2 1624   1.482  13.021  14.729
33243SOL     OW 1625   4.911  13.802  13.791
33243SOL    HW1 1626   4.869  13.749  13.859
33243SOL    HW2 1627   4.919  13.889  13.831
33244SOL     OW 1628  12.349   5.318  12.807
33244SOL    HW1 1629  12.286   5.317  12.879
33244SOL    HW2 1630  12.395   5.402  12.818
33245SOL     OW 1631   2.395  12.713   1.475
33245SOL    HW1 1632   2.445  12.754   1.404
33245SOL    HW2 1633   2.439  12.629   1.489
33246SOL     OW 1634   8.938   7.442   0.130
33246SOL    HW1 1635   8.948   7.357   0.173
33246SOL    HW2 1636   8.878   7.426   0.057
33247SOL     OW 1637   1.671   0.631   4.149
33247SOL    HW1 1638   1.694   0.693   4.079
33247SOL    HW2 1639   1.747   0.632   4.207
33248SOL     OW 1640  12.735   9.772   0.733
33248SOL    HW1 1641  12.804   9.823   0.774
33248SOL    HW2 1642  12.660   9.780   0.791
33249SOL     OW 1643  12.500  10.322   1.327
33249SOL    HW1 1644  12.562  10.356   1.391
33249SOL    HW2 1645  12.490  10.392   1.262
33250SOL     OW 1646   8.211   3.326  12.271
33250SOL    HW1 1647   8.247   3.264  12.207
33250SOL    HW2 1648   8.272   3.399  12.272
33251SOL     OW 1649  14.190   8.168  10.599
33251SOL    HW1 1650  14.219   8.101  10.661
33251SOL    HW2 1651  14.129   8.122  10.541
33252SOL     OW 1652  10.416  11.600   9.226
33252SOL    HW1 1653  10.491  11.591   9.166
33252SOL    HW2 1654  10.357  11.660   9.182
33253SOL     OW 1655   2.427   5.681   7.848
33253SOL    HW1 1656   2.483   5.627   7.791
33253SOL    HW2 1657   2.355   5.624   7.872
33254SOL     OW 1658   7.086   5.701   3.371
33254SOL    HW1 1659   7.112   5.771   3.431
33254SOL    HW2 1660   7.029   5.743   3.307
33255SOL     OW 1661   5.044   0.702   6.020
33255SOL    HW1 1662   5.008   0.671   5.937
33255SOL    HW2 1663   5.095   0.629   6.054
33256SOL     OW 1664  13.765  11.249   1.974
33256SOL    HW1 1665  13.711  11.233   2.050
33256SOL    HW2 1666  13.705  11.244   1.900
33257SOL     OW 1667  11.261  10.355   7.352
33257SOL    HW1 1668  11.178  10.320   7.319
33257SOL    HW2 1669  11.262  10.331   7.445
33258SOL     OW 1670   9.742   7.122   5.930
33258SOL    HW1 1671   9.736   7.142   6.023
33258SOL    HW2 1672   9.750   7.207   5.888
33259SOL     OW 1673   0.840   6.527  13.366
33259SOL    HW1 1674   0.821   6.472  13.290
33259SOL    HW2 1675   0.839   6.616  13.332
33260SOL     OW 1676   5.145   7.054  13.971
33260SOL    HW1 1677   5.077   7.100  13.922
33260SOL    HW2 1678   5.141   6.964  13.939
33261SOL     OW 1679  14.177  11.964   2.620
33261SOL    HW1 1680  14.244  11.996   2.559
33261SOL    HW2 1681  14.221  11.961   2.705
33262SOL     OW 1682   9.010   2.945   6.827
33262SOL    HW1 1683   9.048   3.005   6.763
33262SOL    HW2 1684   9.019   2.990   6.911
33263SOL     OW 1685  13.996   2.125  14.725
33263SOL    HW1 1686  14.054   2.077  14.667
33263SOL    HW2 1687  13.924   2.153  14.669
33264SOL     OW 1688  10.478   8.809   4.381
33264SOL    HW1 1689  10.536   8.838   4.451
33264SOL    HW2 1690  10.467   8.715   4.397
33265SOL     OW 1691   6.517   1.746   5.486
33265SOL    HW1 1692   6.591   1.768   5.543
33265SOL    HW2 1693   6.471   1.677   5.533
33266SOL     OW 1694   2.654   0.155   1.077
33266SOL    HW1 1695   2.566   0.184   1.104
33266SOL    HW2 1696   2.692   0.115   1.155
33267SOL     OW 1697   3.823   0.702   2.035
33267SOL    HW1 1698   3.833   0.613   2.003
33267SOL    HW2 1699   3.829   0.695   2.130
33268SOL     OW 1700   9.835   8.745   2.931
33268SOL    HW1 1701   9.860   8.658   2.961
33268SOL    HW2 1702   9.885   8.805   2.987
33269SOL     OW 1703   5.174  11.770  14.047
33269SOL    HW1 1704   5.166  11.779  13.952
33269SOL    HW2 1705   5.085  11.782  14.080
33270SOL     OW 1706  10.341   7.174   6.034
33270SOL    HW1 1707  10.364   7.138   6.120
33270SOL    HW2 1708  10.279   7.244   6.053
33271SOL     OW 1709  13.851   3.306   4.917
33271SOL    HW1 1710  13.847   3.347   4.831
33271SOL    HW2 1711  13.764   3.269   4.931
33272SOL     OW 1712   6.913  12.479   9.365
33272SOL    HW1 1713   6.877  12.399   9.402
33272SOL    HW2 1714   6.993  12.495   9.415
33273SOL     OW 1715   7.753   5.441   9.571
33273SOL    HW1 1716   7.664   5.407   9.560
33273SOL    HW2 1717   7.741   5.525   9.615
33274SOL     OW 1718  10.218  13.970   0.874
33274SOL    HW1 1719  10.232  13.877   0.890
33274SOL    HW2 1720  10.306  14.004   0.857
33275SOL     OW 1721  14.079   6.452  12.156
33275SOL    HW1 1722  14.037   6.523  12.107
33275SOL    HW2 1723  14.006   6.401  12.192
33276SOL     OW 1724   7.787  13.895  13.091
33276SOL    HW1 1725   7.835  13.912  13.010
33276SOL    HW2 1726   7.737  13.816  13.073
33277SOL     OW 1727  11.795   2.431  10.699
33277SOL    HW1 1728  11.792   2.410  10.606
33277SOL    HW2 1729  11.864   2.374  10.734
33278SOL     OW 1730   6.992   7.214  14.043
33278SOL    HW1 1731   7.060   7.266  14.001
33278SOL    HW2 1732   6.910   7.252  14.011
33279SOL     OW 1733   0.610  14.499  12.374
33279SOL    HW1 1734   0.669  14.445  12.322
33279SOL    HW2 1735   0.663  14.532  12.446
33280SOL     OW 1736   1.283  11.690   7.976
33280SOL    HW1 1737   1.261  11.599   7.960
33280SOL    HW2 1738   1.242  11.710   8.060
33281SOL     OW 1739   9.821   1.382   2.573
33281SOL    HW1 1740   9.784   1.295   2.555
33281SOL    HW2 1741   9.780   1.409   2.655
33282SOL     OW 1742  12.317   0.128   7.996
33282SOL    HW1 1743  12.233   0.084   8.007
33282SOL    HW2 1744  12.326   0.139   7.901
33283SOL     OW 1745   5.057  13.218   3.568
33283SOL    HW1 1746   5.085  13.254   3.484
33283SOL    HW2 1747   5.124  13.154   3.590
33284SOL     OW 1748   1.856   7.726   6.262
33284SOL    HW1 1749   1.895   7.804   6.303
33284SOL    HW2 1750   1.931   7.669   6.245
33285SOL     OW 1751  12.153   1.787   8.422
33285SOL    HW1 1752  12.210   1.858   8.451
33285SOL    HW2 1753  12.211   1.712   8.412
33286SOL     OW 1754  10.074   6.760  13.798
33286SOL    HW1 1755  10.101   6.757  13.890
33286SOL    HW2 1756  10.040   6.849  13.786
33287SOL     OW 1757   2.073   3.385   4.656
33287SOL    HW1 1758   2.124   3.443   4.714
33287SOL    HW2 1759   2.140   3.338   4.606
33288SOL     OW 1760   8.025  14.227  11.234
33288SOL    HW1 1761   8.018  14.141  11.276
33288SOL    HW2 1762   7.976  14.285  11.292
33289SOL     OW 1763  14.730   2.140  13.701
33289SOL    HW1 1764  14.823   2.126  13.722
33289SOL    HW2 1765  14.727   2.139  13.605
33290SOL     OW 1766   5.872   8.980   5.964
33290SOL    HW1 1767   5.782   8.967   5.936
33290SOL    HW2 1768   5.866   9.039   6.039
33291SOL     OW 1769  14.357  11.289  14.217
33291SOL    HW1 1770  14.435  11.234  14.221
33291SOL    HW2 1771  14.391  11.379  14.213
33292SOL     OW 1772  13.870  11.042   4.772
33292SOL    HW1 1773  13.900  11.130   4.793
33292SOL    HW2 1774  13.848  11.046   4.679
33293SOL     OW 1775   9.710   6.649   5.766
33293SOL    HW1 1776   9.694   6.586   5.696
33293SOL    HW2 1777   9.798   6.629   5.797
33294SOL     OW 1778   5.472   5.865  12.060
33294SOL    HW1 1779   5.388   5.820  12.046
33294SOL    HW2 1780   5.488   5.856  12.154
33295SOL     OW 1781   3.062   4.496   2.893
33295SOL    HW1 1782   2.967   4.509   2.890
33295SOL    HW2 1783   3.084   4.502   2.986
33296SOL     OW 1784   3.019   4.720   5.969
33296SOL    HW1 1785   2.941   4.669   5.950
33296SOL    HW2 1786   2.989   4.790   6.027
33297SOL     OW 1787   6.701  14.105   6.039
33297SOL    HW1 1788   6.728  14.181   5.988
33297SOL    HW2 1789   6.744  14.117   6.124
33298SOL     OW 1790   7.733   8.157   0.810
33298SOL    HW1 1791   7.694   8.232   0.763
33298SOL    HW2 1792   7.779   8.108   0.743
33299SOL     OW 1793   1.152   0.113   3.434
33299SOL    HW1 1794   1.203   0.142   3.358
33299SOL    HW2 1795   1.215   0.064   3.487
33300SOL     OW 1796   9.384  14.741   0.928
33300SOL    HW1 1797   9.315  14.677   0.947
33300SOL    HW2 1798   9.446  14.692   0.874
33301SOL     OW 1799  13.205   4.130  10.383
33301SOL    HW1 1800  13.150   4.206  10.363
33301SOL    HW2 1801  13.146   4.069  10.427
33302SOL     OW 1802   5.508  11.091   0.313
33302SOL    HW1 1803   5.496  11.152   0.386
33302SOL    HW2 1804   5.581  11.036   0.340
33303SOL     OW 1805   9.632   0.970  11.327
33303SOL    HW1 1806   9.586   0.961  11.411
33303SOL    HW2 1807   9.653   0.881  11.301
33304SOL     OW 1808  12.374   0.953   8.982
33304SOL    HW1 1809  12.312   0.912   9.043
33304SOL    HW2 1810  12.384   1.043   9.015
33305SOL     OW 1811   5.303   6.117  12.754
33305SOL    HW1 1812   5.239   6.127  12.683
33305SOL    HW2 1813   5.355   6.041  12.728
33306SOL     OW 1814   4.029   6.603   4.502
33306SOL    HW1 1815   4.077   6.523   4.523
33306SOL    HW2 1816   4.093   6.659   4.459
33307SOL     OW 1817   5.097  13.420   8.590
33307SOL    HW1 1818   5.053  13.378   8.664
33307SOL    HW2 1819   5.169  13.361   8.569
33308SOL     OW 1820  11.810  11.644   9.779
33308SOL    HW1 1821  11.773  11.578   9.720
33308SOL    HW2 1822  11.783  11.728   9.742
33309SOL     OW 1823  11.729  11.369  10.838
33309SOL    HW1 1824  11.817  11.333  10.826
33309SOL    HW2 1825  11.683  11.303  10.890
33310SOL     OW 1826   6.661   9.966  13.468
33310SOL    HW1 1827   6.626   9.880  13.490
33310SOL    HW2 1828   6.755   9.952  13.458
33311SOL     OW 1829   9.626  11.906  12.663
33311SOL    HW1 1830   9.598  11.840  12.599
33311SOL    HW2 1831   9.719  11.887  12.677
33312SOL     OW 1832   2.733   5.233  12.483
33312SOL    HW1 1833   2.706   5.298  12.548
33312SOL    HW2 1834   2.776   5.285  12.415
33313SOL     OW 1835  12.555  11.003  14.778
33313SOL    HW1 1836  12.633  10.989  14.832
33313SOL    HW2 1837  12.531  11.094  14.793
33314SOL     OW 1838  11.166   6.641   2.017
33314SOL    HW1 1839  11.124   6.655   1.932
33314SOL    HW2 1840  11.224   6.566   2.003
33315SOL     OW 1841   7.953   1.065  14.312
33315SOL    HW1 1842   8.018   1.058  14.381
33315SOL    HW2 1843   8.003   1.091  14.234
33316SOL     OW 1844  14.499  14.547  14.685
33316SOL    HW1 1845  14.532  14.475  14.739
33316SOL    HW2 1846  14.445  14.504  14.618
33317SOL     OW 1847   0.950  14.603  10.571
33317SOL    HW1 1848   0.868  14.648  10.552
33317SOL    HW2 1849   1.006  14.670  10.610
33318SOL     OW 1850  11.794   8.423  13.469
33318SOL    HW1 1851  11.884   8.405  13.441
33318SOL    HW2 1852  11.742   8.412  13.390
33319SOL     OW 1853   5.205  13.395  11.127
33319SOL    HW1 1854   5.190  13.428  11.216
33319SOL    HW2 1855   5.215  13.474  11.074
33320SOL     OW 1856   9.149  14.120   0.308
33320SOL    HW1 1857   9.242  14.140   0.296
33320SOL    HW2 1858   9.146  14.025   0.318
33321SOL     OW 1859   3.223  14.129  13.058
33321SOL    HW1 1860   3.172  14.209  13.071
33321SOL    HW2 1861   3.194  14.096  12.972
33322SOL     OW 1862  13.374   3.580   5.264
33322SOL    HW1 1863  13.297   3.619   5.305
33322SOL    HW2 1864  13.447   3.609   5.319
33323SOL     OW 1865   1.055   1.572   1.203
33323SOL    HW1 1866   1.057   1.666   1.191
33323SOL    HW2 1867   1.025   1.537   1.119
33324SOL     OW 1868   6.558  13.211   2.105
33324SOL    HW1 1869   6.474  13.169   2.127
33324SOL    HW2 1870   6.607  13.210   2.187
33325SOL     OW 1871  11.910  12.487  13.160
33325SOL    HW1 1872  11.847  12.437  13.110
33325SOL    HW2 1873  11.878  12.484  13.250
33326SOL     OW 1874   8.950  14.385   5.831
33326SOL    HW1 1875   8.904  14.457   5.874
33326SOL    HW2 1876   8.997  14.427   5.759
33327SOL     OW 1877   0.197  14.200   3.892
33327SOL    HW1 1878   0.274  14.169   3.940
33327SOL    HW2 1879   0.161  14.270   3.948
33328SOL     OW 1880   7.042   8.249   3.170
33328SOL    HW1 1881   7.007   8.246   3.259
33328SOL    HW2 1882   7.017   8.335   3.138
33329SOL     OW 1883  11.630   9.013   2.062
33329SOL    HW1 1884  11.641   9.063   2.143
33329SOL    HW2 1885  11.605   9.077   1.996
33330SOL     OW 1886   8.909  14.472   4.458
33330SOL    HW1 1887   8.973  14.449   4.525
33330SOL    HW2 1888   8.880  14.560   4.481
33331SOL     OW 1889  10.467  10.414   4.881
33331SOL    HW1 1890  10.539  10.455   4.929
33331SOL    HW2 1891  10.508  10.347   4.827
33332SOL     OW 1892  11.452   1.116   3.356
33332SOL    HW1 1893  11.460   1.108   3.261
33332SOL    HW2 1894  11.422   1.206   3.370
33333SOL     OW 1895  13.605   6.112  10.391
33333SOL    HW1 1896  13.667   6.111  10.318
33333SOL    HW2 1897  13.547   6.186  10.373
33334SOL     OW 1898  12.775  13.101   8.952
33334SOL    HW1 1899  12.830  13.122   8.877
33334SOL    HW2 1900  12.833  13.112   9.028
33335SOL     OW 1901  14.244  11.217   3.595
33335SOL    HW1 1902  14.310  11.211   3.664
33335SOL    HW2 1903  14.166  11.177   3.634
33336SOL     OW 1904   2.140  10.812  12.167
33336SOL    HW1 1905   2.153  10.811  12.261
33336SOL    HW2 1906   2.124  10.904  12.145
33337SOL     OW 1907   6.621   2.977  10.605
33337SOL    HW1 1908   6.681   2.915  10.564
33337SOL    HW2 1909   6.674   3.053  10.625
33338SOL     OW 1910   5.061   3.824   1.405
33338SOL    HW1 1911   5.058   3.743   1.456
33338SOL    HW2 1912   4.977   3.826   1.358
33339SOL     OW 1913   5.516   1.989  10.788
33339SOL    HW1 1914   5.553   2.068  10.828
33339SOL    HW2 1915   5.588   1.950  10.740
33340SOL     OW 1916  12.916   7.723  13.783
33340SOL    HW1 1917  12.941   7.657  13.849
33340SOL    HW2 1918  12.825   7.745  13.804
33341SOL     OW 1919  13.991   5.836   3.322
33341SOL    HW1 1920  13.910   5.887   3.324
33341SOL    HW2 1921  14.060   5.899   3.341
33342SOL     OW 1922   7.275  14.443  14.379
33342SOL    HW1 1923   7.185  14.418  14.359
33342SOL    HW2 1924   7.328  14.371  14.344
33343SOL     OW 1925   8.949   3.110   8.206
33343SOL    HW1 1926   8.964   3.065   8.123
33343SOL    HW2 1927   8.859   3.087   8.230
33344SOL     OW 1928   2.885   9.432   4.162
33344SOL    HW1 1929   2.952   9.398   4.103
33344SOL    HW2 1930   2.804   9.389   4.134
33345SOL     OW 1931   1.893   3.030  10.109
33345SOL    HW1 1932   1.905   2.992  10.023
33345SOL    HW2 1933   1.884   3.124  10.093
33346SOL     OW 1934  13.464   3.576   7.898
33346SOL    HW1 1935  13.516   3.604   7.974
33346SOL    HW2 1936  13.509   3.498   7.865
33347SOL     OW 1937  12.470   9.744  13.374
33347SOL    HW1 1938  12.405   9.685  13.335
33347SOL    HW2 1939  12.418   9.809  13.422
33348SOL     OW 1940   1.552   1.290   8.114
33348SOL    HW1 1941   1.558   1.282   8.210
33348SOL    HW2 1942   1.459   1.277   8.095
33349SOL     OW 1943  11.171   4.240   3.034
33349SOL    HW1 1944  11.208   4.207   3.116
33349SOL    HW2 1945  11.208   4.328   3.025
33350SOL     OW 1946  11.368   2.860  11.116
33350SOL    HW1 1947  11.394   2.769  11.131
33350SOL    HW2 1948  11.317   2.883  11.194
33351SOL     OW 1949   1.653   1.736  13.154
33351SOL    HW1 1950   1.594   1.688  13.095
33351SOL    HW2 1951   1.638   1.696  13.239
33352SOL     OW 1952   0.647   4.830   4.618
33352SOL    HW1 1953   0.622   4.875   4.538
33352SOL    HW2 1954   0.568   4.781   4.643
33353SOL     OW 1955  10.075   7.114   2.371
33353SOL    HW1 1956  10.036   7.178   2.312
33353SOL    HW2 1957  10.169   7.133   2.370
33354SOL     OW 1958  10.346   2.094   5.560
33354SOL    HW1 1959  10.391   2.066   5.481
33354SOL    HW2 1960  10.270   2.143   5.529
33355SOL     OW 1961   6.699   4.925  12.147
33355SOL    HW1 1962   6.660   4.931  12.235
33355SOL    HW2 1963   6.771   4.863  12.157
33356SOL     OW 1964   4.873  14.120   3.991
33356SOL    HW1 1965   4.778  14.125   3.983
33356SOL    HW2 1966   4.887  14.051   4.055
33357SOL     OW 1967   7.987   5.734   1.905
33357SOL    HW1 1968   7.975   5.823   1.938
33357SOL    HW2 1969   7.908   5.687   1.933
33358SOL     OW 1970   4.897   6.000   2.896
33358SOL    HW1 1971   4.953   5.950   2.837
33358SOL    HW2 1972   4.825   6.030   2.842
33359SOL     OW 1973   4.992   3.765  13.246
33359SOL    HW1 1974   4.933   3.797  13.178
33359SOL    HW2 1975   5.045   3.841  13.270
33360SOL     OW 1976   3.194   3.880   2.355
33360SOL    HW1 1977   3.264   3.883   2.420
33360SOL    HW2 1978   3.198   3.966   2.312
33361SOL     OW 1979   8.321  12.232   7.734
33361SOL    HW1 1980   8.231  12.262   7.743
33361SOL    HW2 1981   8.313  12.144   7.698
33362SOL     OW 1982   8.549   3.856  12.537
33362SOL    HW1 1983   8.593   3.790  12.592
33362SOL    HW2 1984   8.606   3.865  12.461
33363SOL     OW 1985   0.114   2.331  11.305
33363SOL    HW1 1986   0.073   2.365  11.225
33363SOL    HW2 1987   0.041   2.311  11.363
33364SOL     OW 1988  11.262  14.127   2.103
33364SOL    HW1 1989  11.231  14.122   2.013
33364SOL    HW2 1990  11.281  14.036   2.128
33365SOL     OW 1991   4.590   5.002  11.419
33365SOL    HW1 1992   4.569   4.908  11.419
33365SOL    HW2 1993   4.505   5.046  11.422
33366SOL     OW 1994   6.115   6.199   3.764
33366SOL    HW1 1995   6.107   6.178   3.671
33366SOL    HW2 1996   6.058   6.136   3.808
33367SOL     OW 1997   0.238   6.893   1.822
33367SOL    HW1 1998   0.168   6.835   1.790
33367SOL    HW2 1999   0.271   6.936   1.744
33368SOL     OW 2000   6.764  10.535  10.540
33368SOL    HW1 2001   6.836  10.519  10.478
33368SOL    HW2 2002   6.733  10.623  10.520
33369SOL     OW 2003   0.780   5.504   0.889
33369SOL    HW1 2004   0.793   5.570   0.956
33369SOL    HW2 2005   0.859   5.508   0.835
33370SOL     OW 2006   4.920  13.177   7.320
33370SOL    HW1 2007   4.907  13.249   7.259
33370SOL    HW2 2008   4.859  13.196   7.392
33371SOL     OW 2009  11.276   3.086   1.333
33371SOL    HW1 2010  11.294   3.037   1.253
33371SOL    HW2 2011  11.361   3.125   1.356
33372SOL     OW 2012   9.511   6.783   9.894
33372SOL    HW1 2013   9.581   6.847   9.905
33372SOL    HW2 2014   9.556   6.703   9.866
33373SOL     OW 2015  11.193   5.525   5.030
33373SOL    HW1 2016  11.105   5.507   5.065
33373SOL    HW2 2017  11.238   5.440   5.035
33374SOL     OW 2018   1.705   7.034   4.959
33374SOL    HW1 2019   1.785   6.987   4.983
33374SOL    HW2 2020   1.637   6.994   5.012
33375SOL     OW 2021  12.636   6.530  13.247
33375SOL    HW1 2022  12.669   6.611  13.208
33375SOL    HW2 2023  12.689   6.518  13.326
33376SOL     OW 2024  12.554   7.842  12.357
33376SOL    HW1 2025  12.466   7.809  12.340
33376SOL    HW2 2026  12.547   7.888  12.440
33377SOL     OW 2027   3.862  13.124   3.103
33377SOL    HW1 2028   3.924  13.070   3.153
33377SOL    HW2 2029   3.884  13.106   3.011
33378SOL     OW 2030   3.586   7.985   8.210
33378SOL    HW1 2031   3.493   7.993   8.190
33378SOL    HW2 2032   3.608   7.895   8.188
33379SOL     OW 2033   9.175   7.368  13.660
33379SOL    HW1 2034   9.189   7.285  13.707
33379SOL    HW2 2035   9.259   7.413  13.664
33380SOL     OW 2036  11.937  14.130   7.544
33380SOL    HW1 2037  11.926  14.053   7.488
33380SOL    HW2 2038  11.873  14.193   7.511
33381SOL     OW 2039   8.920  12.403  13.098
33381SOL    HW1 2040   8.842  12.458  13.102
33381SOL    HW2 2041   8.912  12.357  13.014
33382SOL     OW 2042   5.161   2.536   9.927
33382SOL    HW1 2043   5.225   2.550   9.856
33382SOL    HW2 2044   5.076   2.538   9.883
33383SOL     OW 2045   3.154   6.262  11.038
33383SOL    HW1 2046   3.088   6.208  11.082
33383SOL    HW2 2047   3.237   6.233  11.075
33384SOL     OW 2048  13.417   6.860  10.112
33384SOL    HW1 2049  13.374   6.934  10.071
33384SOL    HW2 2050  13.359   6.785  10.094
33385SOL     OW 2051  12.192   9.083   3.213
33385SOL    HW1 2052  12.232   9.120   3.292
33385SOL    HW2 2053  12.098   9.090   3.229
33386SOL     OW 2054  11.688   5.642   6.778
33386SOL    HW1 2055  11.717   5.655   6.688
33386SOL    HW2 2056  11.596   5.671   6.778
33387SOL     OW 2057   9.483   3.874   6.305
33387SOL    HW1 2058   9.435   3.863   6.223
33387SOL    HW2 2059   9.575   3.869   6.279
33388SOL     OW 2060  12.648  11.173  11.226
33388SOL    HW1 2061  12.698  11.175  11.144
33388SOL    HW2 2062  12.714  11.154  11.293
33389SOL     OW 2063   0.832  13.294   6.489
33389SOL    HW1 2064   0.894  13.361   6.458
33389SOL    HW2 2065   0.747  13.322   6.454
33390SOL     OW 2066  13.448   0.383   8.976
33390SOL    HW1 2067  13.369   0.342   8.941
33390SOL    HW2 2068  13.503   0.311   9.006
33391SOL     OW 2069   4.037   6.294   2.067
33391SOL    HW1 2070   3.962   6.307   2.125
33391SOL    HW2 2071   4.017   6.347   1.990
33392SOL     OW 2072   1.948   9.762   4.000
33392SOL    HW1 2073   2.008   9.836   4.013
33392SOL    HW2 2074   2.003   9.694   3.961
33393SOL     OW 2075  14.426   7.116  13.012
33393SOL    HW1 2076  14.480   7.175  12.960
33393SOL    HW2 2077  14.478   7.101  13.091
33394SOL     OW 2078  12.461  10.848   2.157
33394SOL    HW1 2079  12.428  10.798   2.232
33394SOL    HW2 2080  12.403  10.924   2.152
33395SOL     OW 2081   7.951  14.748  10.341
33395SOL    HW1 2082   8.038  14.708  10.351
33395SOL    HW2 2083   7.965  14.820  10.280
33396SOL     OW 2084   0.584   5.758  12.449
33396SOL    HW1 2085   0.511   5.716  12.404
33396SOL    HW2 2086   0.623   5.688  12.502
33397SOL     OW 2087  14.444   1.044   5.412
33397SOL    HW1 2088  14.518   0.990   5.440
33397SOL    HW2 2089  14.475   1.087   5.333
33398SOL     OW 2090  10.802  10.181  10.898
33398SOL    HW1 2091  10.882  10.165  10.849
33398SOL    HW2 2092  10.734  10.134  10.849
33399SOL     OW 2093   0.069  11.320   7.034
33399SOL    HW1 2094   0.011  11.254   7.071
33399SOL    HW2 2095   0.013  11.397   7.021
33400SOL     OW 2096   6.359   4.222   5.116
33400SOL    HW1 2097   6.409   4.298   5.087
33400SOL    HW2 2098   6.311   4.252   5.193
33401SOL     OW 2099  11.222  10.172  12.720
33401SOL    HW1 2100  11.200  10.252  12.768
33401SOL    HW2 2101  11.172  10.178  12.639
33402SOL     OW 2102  11.202   1.652   7.685
33402SOL    HW1 2103  11.226   1.685   7.598
33402SOL    HW2 2104  11.130   1.592   7.669
33403SOL     OW 2105  11.185   2.490   8.486
33403SOL    HW1 2106  11.138   2.531   8.560
33403SOL    HW2 2107  11.118   2.479   8.419
33404SOL     OW 2108   0.087   8.553  10.958
33404SOL    HW1 2109   0.076   8.625  11.019
33404SOL    HW2 2110   0.093   8.475  11.013
33405SOL     OW 2111   5.483   9.151   7.601
33405SOL    HW1 2112   5.459   9.243   7.612
33405SOL    HW2 2113   5.419   9.102   7.653
33406SOL     OW 2114   9.468   0.637  10.406
33406SOL    HW1 2115   9.489   0.697  10.336
33406SOL    HW2 2116   9.540   0.647  10.469
33407SOL     OW 2117   6.891  13.943   5.873
33407SOL    HW1 2118   6.817  13.967   5.930
33407SOL    HW2 2119   6.967  13.980   5.917
33408SOL     OW 2120  10.651   7.756   0.401
33408SOL    HW1 2121  10.700   7.742   0.320
33408SOL    HW2 2122  10.621   7.669   0.427
33409SOL     OW 2123   7.703   6.321   0.925
33409SOL    HW1 2124   7.619   6.345   0.887
33409SOL    HW2 2125   7.746   6.267   0.858
33410SOL     OW 2126  14.487   7.937   2.842
33410SOL    HW1 2127  14.578   7.935   2.811
33410SOL    HW2 2128  14.477   8.023   2.882
33411SOL     OW 2129  10.579   6.778  13.396
33411SOL    HW1 2130  10.552   6.773  13.304
33411SOL    HW2 2131  10.528   6.710  13.440
33412SOL     OW 2132  10.008  13.397  12.716
33412SOL    HW1 2133  10.069  13.452  12.764
33412SOL    HW2 2134   9.941  13.458  12.684
33413SOL     OW 2135   9.496   3.703  14.165
33413SOL    HW1 2136   9.411   3.712  14.121
33413SOL    HW2 2137   9.548   3.649  14.106
33414SOL     OW 2138   2.384   8.745  10.865
33414SOL    HW1 2139   2.385   8.839  10.883
33414SOL    HW2 2140   2.313   8.711  10.920
33415SOL     OW 2141  14.785   1.088  12.864
33415SOL    HW1 2142  14.816   1.159  12.921
33415SOL    HW2 2143  14.701   1.062  12.902
33416SOL     OW 2144   3.138   8.208  11.552
33416SOL    HW1 2145   3.043   8.215  11.566
33416SOL    HW2 2146   3.146   8.185  11.459
33417SOL     OW 2147   2.784  12.127  12.176
33417SOL    HW1 2148   2.790  12.130  12.081
33417SOL    HW2 2149   2.792  12.034  12.198
33418SOL     OW 2150  10.379  11.105   2.904
33418SOL    HW1 2151  10.288  11.074   2.908
33418SOL    HW2 2152  10.425  11.049   2.967
33419SOL     OW 2153   2.952  13.301   8.746
33419SOL    HW1 2154   2.931  13.227   8.802
33419SOL    HW2 2155   2.867  13.338   8.722
33420SOL     OW 2156   6.256  11.513  12.032
33420SOL    HW1 2157   6.190  11.445  12.019
33420SOL    HW2 2158   6.338  11.474  12.000
33421SOL     OW 2159   7.260   9.883   3.740
33421SOL    HW1 2160   7.276   9.848   3.652
33421SOL    HW2 2161   7.343   9.923   3.765
33422SOL     OW 2162   3.006   2.842   0.362
33422SOL    HW1 2163   3.055   2.836   0.444
33422SOL    HW2 2164   3.072   2.864   0.296
33423SOL     OW 2165   9.495   0.439   4.991
33423SOL    HW1 2166   9.437   0.413   5.063
33423SOL    HW2 2167   9.578   0.395   5.011
33424SOL     OW 2168   1.263   6.099  13.432
33424SOL    HW1 2169   1.172   6.105  13.460
33424SOL    HW2 2170   1.308   6.167  13.482
33425SOL     OW 2171   0.034   8.678  13.970
33425SOL    HW1 2172  14.872   8.739  14.030
33425SOL    HW2 2173  14.846   8.618  13.942
33426SOL     OW 2174   2.431  10.863   7.987
33426SOL    HW1 2175   2.519  10.890   8.012
33426SOL    HW2 2176   2.373  10.912   8.046
33427SOL     OW 2177   9.450  12.138  14.809
33427SOL    HW1 2178   9.495  12.198  14.869
33427SOL    HW2 2179   9.511  12.125  14.737
33428SOL     OW 2180  10.584   6.520  13.524
33428SOL    HW1 2181  10.671   6.491  13.552
33428SOL    HW2 2182  10.524   6.472  13.580
33429SOL     OW 2183   0.093  11.279  14.580
33429SOL    HW1 2184   0.091  11.357  14.525
33429SOL    HW2 2185   0.155  11.300  14.650
33430SOL     OW 2186  13.075   3.009   8.746
33430SOL    HW1 2187  13.166   3.013   8.716
33430SOL    HW2 2188  13.037   2.935   8.698
33431SOL     OW 2189   3.743   0.872  14.257
33431SOL    HW1 2190   3.690   0.913  14.326
33431SOL    HW2 2191   3.726   0.778  14.266
33432SOL     OW 2192   6.432   2.398   1.514
33432SOL    HW1 2193   6.414   2.396   1.608
33432SOL    HW2 2194   6.485   2.478   1.502
33433SOL     OW 2195  13.353   9.812   8.378
33433SOL    HW1 2196  13.440   9.776   8.393
33433SOL    HW2 2197  13.316   9.758   8.308
33434SOL     OW 2198   1.173   9.799  13.840
33434SOL    HW1 2199   1.205   9.710  13.823
33434SOL    HW2 2200   1.207   9.851  13.767
33435SOL     OW 2201   3.657  10.455   6.975
33435SOL    HW1 2202   3.646  10.390   6.906
33435SOL    HW2 2203   3.603  10.529   6.948
33436SOL     OW 2204   9.557  10.085   3.478
33436SOL    HW1 2205   9.604  10.152   3.528
33436SOL    HW2 2206   9.573  10.004   3.526
33437SOL     OW 2207   9.285   5.797   2.893
33437SOL    HW1 2208   9.213   5.850   2.928
33437SOL    HW2 2209   9.329   5.854   2.830
33438SOL     OW 2210   3.400   4.376  14.121
33438SOL    HW1 2211   3.471   4.314  14.138
33438SOL    HW2 2212   3.413   4.403  14.030
33439SOL     OW 2213   2.275   6.006  14.369
33439SOL    HW1 2214   2.217   5.967  14.304
33439SOL    HW2 2215   2.217   6.027  14.443
33440SOL     OW 2216   4.694  11.438   2.198
33440SOL    HW1 2217   4.761  11.402   2.139
33440SOL    HW2 2218   4.621  11.459   2.140
33441SOL     OW 2219   6.841   8.149   5.904
33441SOL    HW1 2220   6.765   8.099   5.934
33441SOL    HW2 2221   6.910   8.131   5.968
33442SOL     OW 2222  13.729   1.558   7.763
33442SOL    HW1 2223  13.740   1.471   7.725
33442SOL    HW2 2224  13.688   1.610   7.694
33443SOL     OW 2225   3.171   1.584   4.150
33443SOL    HW1 2226   3.077   1.571   4.149
33443SOL    HW2 2227   3.200   1.561   4.062
33444SOL     OW 2228   2.604  11.169   1.168
33444SOL    HW1 2229   2.649  11.184   1.085
33444SOL    HW2 2230   2.512  11.183   1.148
33445SOL     OW 2231   7.412  14.002   3.904
33445SOL    HW1 2232   7.408  13.973   3.995
33445SOL    HW2 2233   7.375  14.090   3.905
33446SOL     OW 2234   0.680   5.381  13.190
33446SOL    HW1 2235   0.654   5.413  13.276
33446SOL    HW2 2236   0.757   5.326  13.207
33447SOL     OW 2237  12.683   8.632   6.622
33447SOL    HW1 2238  12.724   8.550   6.595
33447SOL    HW2 2239  12.591   8.611   6.633
33448SOL     OW 2240   2.152   5.873   2.243
33448SOL    HW1 2241   2.144   5.878   2.148
33448SOL    HW2 2242   2.246   5.865   2.260
33449SOL     OW 2243   2.341   3.949   8.779
33449SOL    HW1 2244   2.358   3.969   8.871
33449SOL    HW2 2245   2.258   3.901   8.780
33450SOL     OW 2246  11.093   8.603   3.779
33450SOL    HW1 2247  11.080   8.603   3.874
33450SOL    HW2 2248  11.138   8.686   3.762
33451SOL     OW 2249   7.577  10.090  12.290
33451SOL    HW1 2250   7.669  10.099  12.317
33451SOL    HW2 2251   7.572  10.003  12.249
33452SOL     OW 2252   4.224  10.190  11.660
33452SOL    HW1 2253   4.233  10.147  11.576
33452SOL    HW2 2254   4.307  10.175  11.705
33453SOL     OW 2255   5.417  10.302   8.465
33453SOL    HW1 2256   5.447  10.380   8.419
33453SOL    HW2 2257   5.337  10.276   8.418
33454SOL     OW 2258   8.242   8.209   8.722
33454SOL    HW1 2259   8.197   8.292   8.740
33454SOL    HW2 2260   8.184   8.143   8.758
33455SOL     OW 2261  10.526   8.101  11.488
33455SOL    HW1 2262  10.536   8.028  11.549
33455SOL    HW2 2263  10.538   8.062  11.401
33456SOL     OW 2264   2.352   4.980   8.760
33456SOL    HW1 2265   2.295   4.996   8.835
33456SOL    HW2 2266   2.326   5.046   8.696
33457SOL     OW 2267   8.530   5.297  13.184
33457SOL    HW1 2268   8.455   5.352  13.206
33457SOL    HW2 2269   8.509   5.260  13.098
33458SOL     OW 2270   3.832  10.320   4.479
33458SOL    HW1 2271   3.776  10.243   4.474
33458SOL    HW2 2272   3.771  10.393   4.494
33459SOL     OW 2273  13.607   3.384   4.307
33459SOL    HW1 2274  13.548   3.390   4.232
33459SOL    HW2 2275  13.554   3.414   4.381
33460SOL     OW 2276   9.575  11.902   9.267
33460SOL    HW1 2277   9.532  11.822   9.237
33460SOL    HW2 2278   9.577  11.893   9.362
33461SOL     OW 2279  14.074   4.070   8.938
33461SOL    HW1 2280  14.167   4.067   8.917
33461SOL    HW2 2281  14.041   4.148   8.893
33462SOL     OW 2282   0.024   1.499  12.325
33462SOL    HW1 2283   0.048   1.561  12.256
33462SOL    HW2 2284   0.104   1.449  12.342
33463SOL     OW 2285   6.903   5.425  10.475
33463SOL    HW1 2286   6.916   5.345  10.423
33463SOL    HW2 2287   6.810   5.425  10.496
33464SOL     OW 2288   0.677  12.545   4.146
33464SOL    HW1 2289   0.679  12.613   4.214
33464SOL    HW2 2290   0.753  12.491   4.166
33465SOL     OW 2291   0.896  13.150   2.176
33465SOL    HW1 2292   0.909  13.067   2.222
33465SOL    HW2 2293   0.804  13.171   2.189
33466SOL     OW 2294   6.550   6.122   5.589
33466SOL    HW1 2295   6.594   6.040   5.610
33466SOL    HW2 2296   6.459   6.109   5.619
33467SOL     OW 2297   2.271  13.165  11.264
33467SOL    HW1 2298   2.211  13.232  11.230
33467SOL    HW2 2299   2.235  13.140  11.349
33468SOL     OW 2300  11.337   4.060   8.398
33468SOL    HW1 2301  11.350   4.144   8.354
33468SOL    HW2 2302  11.264   4.020   8.352
33469SOL     OW 2303  13.153   7.752   3.724
33469SOL    HW1 2304  13.220   7.720   3.663
33469SOL    HW2 2305  13.117   7.830   3.681
33470SOL     OW 2306  12.175   2.293   0.394
33470SOL    HW1 2307  12.137   2.368   0.439
33470SOL    HW2 2308  12.269   2.300   0.412
33471SOL     OW 2309  14.094   2.562   3.909
33471SOL    HW1 2310  14.090   2.487   3.850
33471SOL    HW2 2311  14.066   2.637   3.856
33472SOL     OW 2312   2.953   3.884  12.365
33472SOL    HW1 2313   3.048   3.894  12.367
33472SOL    HW2 2314   2.920   3.962  12.411
33473SOL     OW 2315  13.247   8.340   4.079
33473SOL    HW1 2316  13.170   8.369   4.126
33473SOL    HW2 2317  13.240   8.381   3.992
33474SOL     OW 2318   4.599   9.325   1.898
33474SOL    HW1 2319   4.608   9.307   1.805
33474SOL    HW2 2320   4.505   9.336   1.911
33475SOL     OW 2321   5.523  14.128   6.950
33475SOL    HW1 2322   5.469  14.197   6.912
33475SOL    HW2 2323   5.578  14.173   7.014
33476SOL     OW 2324   5.218   7.190   7.874
33476SOL    HW1 2325   5.181   7.277   7.884
33476SOL    HW2 2326   5.292   7.202   7.814
33477SOL     OW 2327  14.461  10.476   4.656
33477SOL    HW1 2328  14.492  10.444   4.741
33477SOL    HW2 2329  14.368  10.495   4.669
33478SOL     OW 2330  10.933  10.088   9.653
33478SOL    HW1 2331  10.933  10.018   9.718
33478SOL    HW2 2332  10.910  10.167   9.703
33479SOL     OW 2333  10.930   7.939   7.098
33479SOL    HW1 2334  11.023   7.958   7.113
33479SOL    HW2 2335  10.910   7.868   7.160
33480SOL     OW 2336   7.508  13.780   8.665
33480SOL    HW1 2337   7.441  13.780   8.734
33480SOL    HW2 2338   7.540  13.870   8.663
33481SOL     OW 2339   7.857   1.407   7.149
33481SOL    HW1 2340   7.938   1.371   7.113
33481SOL    HW2 2341   7.874   1.415   7.242
33482SOL     OW 2342   7.644  12.373   1.818
33482SOL    HW1 2343   7.580  12.316   1.859
33482SOL    HW2 2344   7.715  12.380   1.882
33483SOL     OW 2345   6.956  11.679   1.134
33483SOL    HW1 2346   7.037  11.727   1.153
33483SOL    HW2 2347   6.955  11.608   1.198
33484SOL     OW 2348   8.903   0.138   2.082
33484SOL    HW1 2349   8.887   0.182   2.166
33484SOL    HW2 2350   8.960   0.064   2.104
33485SOL     OW 2351   3.522   9.950   0.056
33485SOL    HW1 2352   3.607   9.991   0.069
33485SOL    HW2 2353   3.540   9.872   0.004
33486SOL     OW 2354   1.461   9.054  11.718
33486SOL    HW1 2355   1.401   9.026  11.787
33486SOL    HW2 2356   1.408   9.110  11.662
33487SOL     OW 2357  14.020   0.286  12.574
33487SOL    HW1 2358  14.013   0.276  12.479
33487SOL    HW2 2359  14.060   0.205  12.604
33488SOL     OW 2360  12.362   2.454  12.081
33488SOL    HW1 2361  12.450   2.474  12.113
33488SOL    HW2 2362  12.315   2.538  12.085
33489SOL     OW 2363   8.162   3.627   2.349
33489SOL    HW1 2364   8.116   3.651   2.268
33489SOL    HW2 2365   8.156   3.706   2.404
33490SOL     OW 2366  10.756   9.498  12.850
33490SOL    HW1 2367  10.776   9.554  12.925
33490SOL    HW2 2368  10.816   9.424  12.858
33491SOL     OW 2369   4.098  11.542  12.455
33491SOL    HW1 2370   4.085  11.556  12.549
33491SOL    HW2 2371   4.188  11.571  12.438
33492SOL     OW 2372   4.960   8.914  10.774
33492SOL    HW1 2373   4.941   8.837  10.827
33492SOL    HW2 2374   5.005   8.879  10.696
33493SOL     OW 2375   1.448   7.883  10.680
33493SOL    HW1 2376   1.419   7.863  10.769
33493SOL    HW2 2377   1.540   7.908  10.689
33494SOL     OW 2378   8.491  11.260   1.840
33494SOL    HW1 2379   8.488  11.217   1.754
33494SOL    HW2 2380   8.459  11.194   1.901
33495SOL     OW 2381  11.904  11.877  10.788
33495SOL    HW1 2382  11.979  11.937  10.787
33495SOL    HW2 2383  11.917  11.825  10.868
33496SOL     OW 2384   3.920   3.345  12.033
33496SOL    HW1 2385   3.882   3.386  11.955
33496SOL    HW2 2386   3.945   3.418  12.089
33497SOL     OW 2387   2.694   2.677  10.856
33497SOL    HW1 2388   2.708   2.594  10.810
33497SOL    HW2 2389   2.599   2.684  10.864
33498SOL     OW 2390   6.076   1.618   5.409
33498SOL    HW1 2391   6.000   1.620   5.352
33498SOL    HW2 2392   6.075   1.703   5.453
33499SOL     OW 2393  12.761   5.265   2.114
33499SOL    HW1 2394  12.684   5.208   2.116
33499SOL    HW2 2395  12.743   5.326   2.042
33500SOL     OW 2396   5.740   7.641  12.508
33500SOL    HW1 2397   5.713   7.685  12.428
33500SOL    HW2 2398   5.693   7.686  12.578
33501SOL     OW 2399  11.606   2.711  12.887
33501SOL    HW1 2400  11.640   2.710  12.798
33501SOL    HW2 2401  11.555   2.630  12.893
33502SOL     OW 2402  12.823   0.944   3.048
33502SOL    HW1 2403  12.847   0.853   3.030
33502SOL    HW2 2404  12.782   0.940   3.135
33503SOL     OW 2405   1.370  13.473   7.330
33503SOL    HW1 2406   1.419  13.430   7.400
33503SOL    HW2 2407   1.342  13.557   7.368
33504SOL     OW 2408   2.736   2.048   2.128
33504SOL    HW1 2409   2.747   1.970   2.182
33504SOL    HW2 2410   2.726   2.014   2.039
33505SOL     OW 2411   8.356  13.195   6.308
33505SOL    HW1 2412   8.406  13.219   6.386
33505SOL    HW2 2413   8.285  13.140   6.341
33506SOL     OW 2414  11.430   2.979   0.031
33506SOL    HW1 2415  11.460   3.052   0.087
33506SOL    HW2 2416  11.349   2.950   0.073
33507SOL     OW 2417   0.825   6.873  12.490
33507SOL    HW1 2418   0.790   6.790  12.456
33507SOL    HW2 2419   0.771   6.891  12.567
33508SOL     OW 2420   8.642  14.184   7.900
33508SOL    HW1 2421   8.595  14.175   7.817
33508SOL    HW2 2422   8.649  14.095   7.935
33509SOL     OW 2423   0.436   1.026   6.988
33509SOL    HW1 2424   0.398   0.994   6.906
33509SOL    HW2 2425   0.530   1.030   6.972
33510SOL     OW 2426  14.513   5.521  10.706
33510SOL    HW1 2427  14.455   5.458  10.662
33510SOL    HW2 2428  14.595   5.516  10.657
33511SOL     OW 2429   6.673  13.310   9.393
33511SOL    HW1 2430   6.605  13.378   9.397
33511SOL    HW2 2431   6.752  13.353   9.426
33512SOL     OW 2432  12.671   4.419  11.459
33512SOL    HW1 2433  12.689   4.512  11.475
33512SOL    HW2 2434  12.586   4.403  11.500
33513SOL     OW 2435  12.997   6.894   2.229
33513SOL    HW1 2436  13.008   6.978   2.184
33513SOL    HW2 2437  13.079   6.848   2.214
33514SOL     OW 2438  13.507   3.620   3.482
33514SOL    HW1 2439  13.481   3.626   3.574
33514SOL    HW2 2440  13.496   3.528   3.460
33515SOL     OW 2441   3.516   0.223   5.545
33515SOL    HW1 2442   3.456   0.149   5.548
33515SOL    HW2 2443   3.567   0.210   5.465
33516SOL     OW 2444  10.539   7.297   1.243
33516SOL    HW1 2445  10.584   7.295   1.327
33516SOL    HW2 2446  10.610   7.299   1.178
33517SOL     OW 2447   8.374   6.947  10.647
33517SOL    HW1 2448   8.442   6.903  10.596
33517SOL    HW2 2449   8.410   6.952  10.736
33518SOL     OW 2450  13.790   5.253   2.552
33518SOL    HW1 2451  13.869   5.261   2.606
33518SOL    HW2 2452  13.824   5.247   2.463
33519SOL     OW 2453   7.757   5.815   5.410
33519SOL    HW1 2454   7.820   5.836   5.341
33519SOL    HW2 2455   7.752   5.719   5.409
33520SOL     OW 2456  14.158  11.394   1.740
33520SOL    HW1 2457  14.154  11.353   1.654
33520SOL    HW2 2458  14.124  11.483   1.725
33521SOL     OW 2459   5.849   7.153  10.242
33521SOL    HW1 2460   5.927   7.190  10.200
33521SOL    HW2 2461   5.858   7.176  10.334
33522SOL     OW 2462   9.776   3.534  13.331
33522SOL    HW1 2463   9.823   3.528  13.247
33522SOL    HW2 2464   9.684   3.530  13.306
33523SOL     OW 2465   6.935   2.514   2.053
33523SOL    HW1 2466   6.867   2.578   2.071
33523SOL    HW2 2467   6.915   2.482   1.965
33524SOL     OW 2468   0.804   4.055  10.467
33524SOL    HW1 2469   0.776   4.139  10.505
33524SOL    HW2 2470   0.765   4.054  10.380
33525SOL     OW 2471  13.914   1.835   3.591
33525SOL    HW1 2472  13.937   1.813   3.501
33525SOL    HW2 2473  13.897   1.930   3.589
33526SOL     OW 2474   3.703   1.076  11.621
33526SOL    HW1 2475   3.662   1.054  11.537
33526SOL    HW2 2476   3.786   1.116  11.598
33527SOL     OW 2477   2.672   7.874  13.893
33527SOL    HW1 2478   2.646   7.938  13.827
33527SOL    HW2 2479   2.612   7.800  13.880
33528SOL     OW 2480  10.197  12.153  14.153
33528SOL    HW1 2481  10.255  12.124  14.223
33528SOL    HW2 2482  10.191  12.078  14.094
33529SOL     OW 2483   3.808  10.686   9.322
33529SOL    HW1 2484   3.877  10.631   9.357
33529SOL    HW2 2485   3.853  10.751   9.268
33530SOL     OW 2486  12.467   8.074  11.155
33530SOL    HW1 2487  12.445   8.144  11.217
33530SOL    HW2 2488  12.456   8.114  11.069
33531SOL     OW 2489   3.786  10.628  14.153
33531SOL    HW1 2490   3.854  10.596  14.093
33531SOL    HW2 2491   3.785  10.722  14.140
33532SOL     OW 2492  11.296   9.484  12.120
33532SOL    HW1 2493  11.244   9.431  12.060
33532SOL    HW2 2494  11.369   9.428  12.146
33533SOL     OW 2495  12.227   4.432  13.390
33533SOL    HW1 2496  12.234   4.521  13.424
33533SOL    HW2 2497  12.257   4.438  13.299
33534SOL     OW 2498   6.669  13.641   7.947
33534SOL    HW1 2499   6.578  13.662   7.966
33534SOL    HW2 2500   6.688  13.563   8.000
33535SOL     OW 2501   6.213   3.251   7.827
33535SOL    HW1 2502   6.129   3.279   7.862
33535SOL    HW2 2503   6.206   3.264   7.733
33536SOL     OW 2504   9.715   5.662   5.828
33536SOL    HW1 2505   9.669   5.584   5.859
33536SOL    HW2 2506   9.808   5.639   5.833
33537SOL     OW 2507   3.576   7.326  10.132
33537SOL    HW1 2508   3.573   7.305  10.225
33537SOL    HW2 2509   3.637   7.261  10.095
33538SOL     OW 2510  14.122  13.103   2.986
33538SOL    HW1 2511  14.068  13.049   3.044
33538SOL    HW2 2512  14.058  13.153   2.934
33539SOL     OW 2513   0.335   8.842   0.817
33539SOL    HW1 2514   0.297   8.917   0.771
33539SOL    HW2 2515   0.290   8.840   0.902
33540SOL     OW 2516   3.458   5.234   6.887
33540SOL    HW1 2517   3.407   5.299   6.838
33540SOL    HW2 2518   3.531   5.283   6.924
33541SOL     OW 2519   6.327   3.851   0.632
33541SOL    HW1 2520   6.244   3.896   0.646
33541SOL    HW2 2521   6.308   3.759   0.652
33542SOL     OW 2522  14.274  10.692  14.440
33542SOL    HW1 2523  14.228  10.762  14.487
33542SOL    HW2 2524  14.214  10.666  14.370
33543SOL     OW 2525   0.815   3.769   7.900
33543SOL    HW1 2526   0.832   3.677   7.923
33543SOL    HW2 2527   0.799   3.812   7.984
33544SOL     OW 2528  13.216  13.711  14.096
33544SOL    HW1 2529  13.293  13.744  14.143
33544SOL    HW2 2530  13.154  13.690  14.166
33545SOL     OW 2531   9.054   3.102   4.791
33545SOL    HW1 2532   9.053   3.145   4.877
33545SOL    HW2 2533   9.017   3.167   4.732
33546SOL     OW 2534   6.306   7.576   2.193
33546SOL    HW1 2535   6.224   7.625   2.193
33546SOL    HW2 2536   6.329   7.568   2.101
33547SOL     OW 2537   0.382   7.774   7.541
33547SOL    HW1 2538   0.294   7.769   7.505
33547SOL    HW2 2539   0.375   7.738   7.630
33548SOL     OW 2540  13.045  12.283  11.905
33548SOL    HW1 2541  13.132  12.301  11.941
33548SOL    HW2 2542  13.053  12.303  11.812
33549SOL     OW 2543   7.385  11.890   7.103
33549SOL    HW1 2544   7.299  11.932   7.106
33549SOL    HW2 2545   7.413  11.898   7.012
33550SOL     OW 2546   2.804   4.460  11.808
33550SOL    HW1 2547   2.767   4.517  11.876
33550SOL    HW2 2548   2.732   4.402  11.783
33551SOL     OW 2549   4.739  10.396   2.884
33551SOL    HW1 2550   4.751  10.304   2.907
33551SOL    HW2 2551   4.819  10.439   2.915
33552SOL     OW 2552   6.432  12.488   1.823
33552SOL    HW1 2553   6.349  12.535   1.827
33552SOL    HW2 2554   6.412  12.401   1.857
33553SOL     OW 2555   0.108   0.257  13.421
33553SOL    HW1 2556   0.064   0.177  13.393
33553SOL    HW2 2557   0.160   0.231  13.497
33554SOL     OW 2558  10.457   6.002   7.824
33554SOL    HW1 2559  10.416   5.930   7.776
33554SOL    HW2 2560  10.550   5.992   7.807
33555SOL     OW 2561  13.233   6.558  12.714
33555SOL    HW1 2562  13.239   6.495  12.786
33555SOL    HW2 2563  13.273   6.638  12.748
33556SOL     OW 2564   3.765  14.226   5.976
33556SOL    HW1 2565   3.768  14.293   6.044
33556SOL    HW2 2566   3.699  14.164   6.007
33557SOL     OW 2567   7.354   1.760   8.717
33557SOL    HW1 2568   7.309   1.836   8.754
33557SOL    HW2 2569   7.284   1.696   8.702
33558SOL     OW 2570   2.572  13.948   6.470
33558SOL    HW1 2571   2.641  13.905   6.421
33558SOL    HW2 2572   2.556  13.890   6.545
33559SOL     OW 2573  13.539   0.886   3.072
33559SOL    HW1 2574  13.528   0.885   2.977
33559SOL    HW2 2575  13.510   0.799   3.100
33560SOL     OW 2576   1.996  11.950   9.048
33560SOL    HW1 2577   2.024  11.941   9.140
33560SOL    HW2 2578   1.951  12.035   9.045
33561SOL     OW 2579   0.998   0.716  10.865
33561SOL    HW1 2580   0.974   0.780  10.932
33561SOL    HW2 2581   1.088   0.692  10.886
33562SOL     OW 2582   8.188  11.777   3.638
33562SOL    HW1 2583   8.253  11.738   3.579
33562SOL    HW2 2584   8.109  11.786   3.584
33563SOL     OW 2585   2.588  14.018  12.218
33563SOL    HW1 2586   2.672  14.005  12.174
33563SOL    HW2 2587   2.610  14.019  12.311
33564SOL     OW 2588  10.803   2.926   2.813
33564SOL    HW1 2589  10.783   2.834   2.829
33564SOL    HW2 2590  10.717   2.968   2.805
33565SOL     OW 2591   3.419   9.900   2.629
33565SOL    HW1 2592   3.386   9.839   2.696
33565SOL    HW2 2593   3.467   9.844   2.567
33566SOL     OW 2594   4.798  11.713   5.370
33566SOL    HW1 2595   4.743  11.639   5.397
33566SOL    HW2 2596   4.748  11.755   5.300
33567SOL     OW 2597   8.374  12.729  10.088
33567SOL    HW1 2598   8.411  12.735  10.001
33567SOL    HW2 2599   8.435  12.674  10.137
33568SOL     OW 2600   8.061  14.485  13.992
33568SOL    HW1 2601   8.078  14.393  13.970
33568SOL    HW2 2602   7.969  14.498  13.969
33569SOL     OW 2603   5.014  12.983   9.929
33569SOL    HW1 2604   5.099  13.025   9.914
33569SOL    HW2 2605   4.965  12.998   9.848
33570SOL     OW 2606  14.442  11.136   7.816
33570SOL    HW1 2607  14.530  11.115   7.847
33570SOL    HW2 2608  14.455  11.198   7.745
33571SOL     OW 2609   1.400   8.200  14.655
33571SOL    HW1 2610   1.334   8.132  14.641
33571SOL    HW2 2611   1.374   8.271  14.596
33572SOL     OW 2612   0.713   8.905   6.434
33572SOL    HW1 2613   0.780   8.964   6.399
33572SOL    HW2 2614   0.644   8.905   6.368
33573SOL     OW 2615   0.402  14.715  12.310
33573SOL    HW1 2616   0.344  14.689  12.239
33573SOL    HW2 2617   0.470  14.647  12.311
33574SOL     OW 2618   1.664   7.342  10.279
33574SOL    HW1 2619   1.663   7.280  10.207
33574SOL    HW2 2620   1.582   7.327  10.327
33575SOL     OW 2621   3.614   8.346   0.472
33575SOL    HW1 2622   3.528   8.366   0.435
33575SOL    HW2 2623   3.675   8.353   0.399
33576SOL     OW 2624   9.945   2.928   8.793
33576SOL    HW1 2625   9.873   2.866   8.803
33576SOL    HW2 2626   9.904   3.010   8.768
33577SOL     OW 2627   2.220   5.598  11.437
33577SOL    HW1 2628   2.270   5.542  11.378
33577SOL    HW2 2629   2.134   5.606  11.397
33578SOL     OW 2630   8.377   1.356  12.875
33578SOL    HW1 2631   8.470   1.376  12.888
33578SOL    HW2 2632   8.372   1.261  12.879
33579SOL     OW 2633   2.737   6.636   2.177
33579SOL    HW1 2634   2.742   6.541   2.177
33579SOL    HW2 2635   2.765   6.662   2.089
33580SOL     OW 2636  10.496  11.289  12.633
33580SOL    HW1 2637  10.530  11.200  12.637
33580SOL    HW2 2638  10.519  11.328  12.717
33581SOL     OW 2639   4.904   4.064   5.413
33581SOL    HW1 2640   4.927   4.034   5.325
33581SOL    HW2 2641   4.946   4.150   5.421
33582SOL     OW 2642  12.572  10.879   8.356
33582SOL    HW1 2643  12.620  10.828   8.421
33582SOL    HW2 2644  12.480  10.868   8.379
33583SOL     OW 2645  14.059   0.308   4.905
33583SOL    HW1 2646  14.001   0.285   4.977
33583SOL    HW2 2647  14.001   0.335   4.834
33584SOL     OW 2648   8.343   4.411   4.835
33584SOL    HW1 2649   8.434   4.410   4.864
33584SOL    HW2 2650   8.324   4.320   4.811
33585SOL     OW 2651   8.937  10.248   8.031
33585SOL    HW1 2652   8.953  10.279   8.120
33585SOL    HW2 2653   8.998  10.298   7.977
33586SOL     OW 2654   5.570   3.772   6.643
33586SOL    HW1 2655   5.489   3.772   6.695
33586SOL    HW2 2656   5.629   3.830   6.692
33587SOL     OW 2657  14.434  11.050  14.606
33587SOL    HW1 2658  14.353  11.025  14.649
33587SOL    HW2 2659  14.421  11.141  14.581
33588SOL     OW 2660  14.113   8.156   4.107
33588SOL    HW1 2661  14.030   8.109   4.098
33588SOL    HW2 2662  14.131   8.157   4.201
33589SOL     OW 2663   5.469   9.341  14.270
33589SOL    HW1 2664   5.518   9.294  14.203
33589SOL    HW2 2665   5.431   9.273  14.325
33590SOL     OW 2666  14.786  12.806   5.294
33590SOL    HW1 2667  14.833  12.846   5.366
33590SOL    HW2 2668  14.730  12.876   5.259
33591SOL     OW 2669   4.201   3.799   9.588
33591SOL    HW1 2670   4.185   3.885   9.628
33591SOL    HW2 2671   4.291   3.777   9.614
33592SOL     OW 2672  12.910   7.999   2.351
33592SOL    HW1 2673  12.911   8.063   2.279
33592SOL    HW2 2674  12.993   8.013   2.397
33593SOL     OW 2675   2.531  12.928  13.113
33593SOL    HW1 2676   2.514  12.992  13.044
33593SOL    HW2 2677   2.625  12.910  13.107
33594SOL     OW 2678  10.678   6.631   4.216
33594SOL    HW1 2679  10.662   6.717   4.178
33594SOL    HW2 2680  10.720   6.582   4.146
33595SOL     OW 2681   6.162   3.818   4.106
33595SOL    HW1 2682   6.230   3.826   4.173
33595SOL    HW2 2683   6.110   3.743   4.134
33596SOL     OW 2684  11.318   5.502   0.352
33596SOL    HW1 2685  11.303   5.443   0.277
33596SOL    HW2 2686  11.275   5.459   0.426
33597SOL     OW 2687   4.541  13.536   6.789
33597SOL    HW1 2688   4.537  13.495   6.875
33597SOL    HW2 2689   4.611  13.489   6.743
33598SOL     OW 2690   3.651  11.638   4.648
33598SOL    HW1 2691   3.582  11.609   4.588
33598SOL    HW2 2692   3.726  11.582   4.627
33599SOL     OW 2693   6.090  10.833  13.434
33599SOL    HW1 2694   6.023  10.892  13.467
33599SOL    HW2 2695   6.167  10.888  13.422
33600SOL     OW 2696  10.316   5.407   3.246
33600SOL    HW1 2697  10.222   5.420   3.235
33600SOL    HW2 2698  10.354   5.495   3.238
33601SOL     OW 2699  14.320   3.978  13.241
33601SOL    HW1 2700  14.398   3.968  13.187
33601SOL    HW2 2701  14.247   3.955  13.182
33602SOL     OW 2702   1.424   7.672   7.070
33602SOL    HW1 2703   1.511   7.683   7.030
33602SOL    HW2 2704   1.439   7.611   7.142
33603SOL     OW 2705   0.061   4.019   0.674
33603SOL    HW1 2706  14.848   4.011   0.673
33603SOL    HW2 2707   0.082   4.074   0.599
33604SOL     OW 2708  10.903   8.930   7.659
33604SOL    HW1 2709  10.864   9.013   7.688
33604SOL    HW2 2710  10.872   8.919   7.569
33605SOL     OW 2711   1.803   0.562   2.017
33605SOL    HW1 2712   1.810   0.609   1.934
33605SOL    HW2 2713   1.739   0.493   2.001
33606SOL     OW 2714  13.660   2.210   5.869
33606SOL    HW1 2715  13.609   2.288   5.894
33606SOL    HW2 2716  13.745   2.223   5.910
33607SOL     OW 2717   4.831  10.601   6.799
33607SOL    HW1 2718   4.781  10.607   6.881
33607SOL    HW2 2719   4.891  10.528   6.813
33608SOL     OW 2720   3.398   3.716   5.216
33608SOL    HW1 2721   3.372   3.713   5.308
33608SOL    HW2 2722   3.315   3.716   5.168
33609SOL     OW 2723  10.952   9.972   8.557
33609SOL    HW1 2724  10.938   9.926   8.640
33609SOL    HW2 2725  10.869  10.015   8.538
33610SOL     OW 2726  10.982   1.600  10.687
33610SOL    HW1 2727  10.955   1.652  10.762
33610SOL    HW2 2728  10.954   1.652  10.611
33611SOL     OW 2729  11.834   3.922   7.866
33611SOL    HW1 2730  11.762   3.869   7.900
33611SOL    HW2 2731  11.913   3.873   7.891
33612SOL     OW 2732  12.655   5.636   8.296
33612SOL    HW1 2733  12.703   5.555   8.313
33612SOL    HW2 2734  12.717   5.706   8.315
33613SOL     OW 2735   5.389  14.780  13.754
33613SOL    HW1 2736   5.295  14.763  13.763
33613SOL    HW2 2737   5.429  14.732  13.826
33614SOL     OW 2738  13.465   0.038  10.031
33614SOL    HW1 2739  13.371   0.056  10.034
33614SOL    HW2 2740  13.506   0.123  10.046
33615SOL     OW 2741   3.645   5.027   2.129
33615SOL    HW1 2742   3.709   5.076   2.077
33615SOL    HW2 2743   3.698   4.968   2.182
33616SOL     OW 2744   4.884   1.618   2.871
33616SOL    HW1 2745   4.812   1.571   2.828
33616SOL    HW2 2746   4.858   1.621   2.964
33617SOL     OW 2747  10.649  13.458  11.576
33617SOL    HW1 2748  10.596  13.379  11.581
33617SOL    HW2 2749  10.595  13.526  11.616
33618SOL     OW 2750  10.068  13.320   7.216
33618SOL    HW1 2751  10.159  13.349   7.206
33618SOL    HW2 2752  10.059  13.300   7.309
33619SOL     OW 2753   9.945  10.515  14.097
33619SOL    HW1 2754  10.013  10.575  14.126
33619SOL    HW2 2755   9.913  10.474  14.177
33620SOL     OW 2756   8.329  11.506   8.418
33620SOL    HW1 2757   8.267  11.487   8.348
33620SOL    HW2 2758   8.302  11.449   8.491
33621SOL     OW 2759  11.834   4.496   3.294
33621SOL    HW1 2760  11.830   4.526   3.385
33621SOL    HW2 2761  11.912   4.539   3.258
33622SOL     OW 2762  11.001   3.399   5.699
33622SOL    HW1 2763  10.922   3.405   5.753
33622SOL    HW2 2764  11.028   3.307   5.705
33623SOL     OW 2765   1.748   8.734   0.007
33623SOL    HW1 2766   1.808   8.659   0.009
33623SOL    HW2 2767   1.736   8.752  14.796
33624SOL     OW 2768  12.896   5.619   8.905
33624SOL    HW1 2769  12.912   5.674   8.828
33624SOL    HW2 2770  12.944   5.662   8.976
33625SOL     OW 2771   6.609   9.321  14.378
33625SOL    HW1 2772   6.561   9.294  14.300
33625SOL    HW2 2773   6.571   9.269  14.449
33626SOL     OW 2774  11.522  12.837  10.042
33626SOL    HW1 2775  11.537  12.899  10.113
33626SOL    HW2 2776  11.604  12.789  10.035
33627SOL     OW 2777   5.452   8.300  12.721
33627SOL    HW1 2778   5.485   8.375  12.771
33627SOL    HW2 2779   5.446   8.332  12.631
33628SOL     OW 2780  12.944   0.260  13.872
33628SOL    HW1 2781  12.962   0.299  13.958
33628SOL    HW2 2782  12.892   0.182  13.893
33629SOL     OW 2783  11.460  10.334  13.237
33629SOL    HW1 2784  11.410  10.256  13.214
33629SOL    HW2 2785  11.534  10.301  13.288
33630SOL     OW 2786   8.167   3.888   1.242
33630SOL    HW1 2787   8.090   3.882   1.298
33630SOL    HW2 2788   8.240   3.871   1.301
33631SOL     OW 2789   1.471  10.805   1.825
33631SOL    HW1 2790   1.500  10.742   1.891
33631SOL    HW2 2791   1.473  10.890   1.869
33632SOL     OW 2792  11.875   5.086   4.029
33632SOL    HW1 2793  11.970   5.074   4.027
33632SOL    HW2 2794  11.862   5.177   4.002
33633SOL     OW 2795   1.866   0.566   4.743
33633SOL    HW1 2796   1.945   0.530   4.785
33633SOL    HW2 2797   1.806   0.492   4.739
33634SOL     OW 2798  10.981   3.521   9.134
33634SOL    HW1 2799  11.064   3.498   9.091
33634SOL    HW2 2800  10.918   3.527   9.062
33635SOL     OW 2801   1.821  12.158   9.987
33635SOL    HW1 2802   1.887  12.103  10.029
33635SOL    HW2 2803   1.744  12.152  10.044
33636SOL     OW 2804   0.912   1.457  12.689
33636SOL    HW1 2805   0.931   1.395  12.618
33636SOL    HW2 2806   0.978   1.438  12.756
33637SOL     OW 2807   0.976  11.558   8.745
33637SOL    HW1 2808   0.992  11.475   8.791
33637SOL    HW2 2809   0.897  11.541   8.692
33638SOL     OW 2810  11.853  14.512  10.623
33638SOL    HW1 2811  11.904  14.578  10.670
33638SOL    HW2 2812  11.916  14.472  10.563
33639SOL     OW 2813   5.931   5.802   0.147
33639SOL    HW1 2814   5.993   5.875   0.147
33639SOL    HW2 2815   5.963   5.743   0.216
33640SOL     OW 2816  10.339  10.567  10.709
33640SOL    HW1 2817  10.407  10.632  10.691
33640SOL    HW2 2818  10.304  10.592  10.795
33641SOL     OW 2819   6.807  12.668   9.701
33641SOL    HW1 2820   6.717  12.640   9.719
33641SOL    HW2 2821   6.861  12.596   9.733
33642SOL     OW 2822  13.832   7.413  12.227
33642SOL    HW1 2823  13.773   7.435  12.300
33642SOL    HW2 2824  13.788   7.450  12.150
33643SOL     OW 2825  14.430  12.601  13.467
33643SOL    HW1 2826  14.523  12.608  13.490
33643SOL    HW2 2827  14.408  12.688  13.433
33644SOL     OW 2828   1.888  12.388   3.373
33644SOL    HW1 2829   1.835  12.407   3.450
33644SOL    HW2 2830   1.974  12.366   3.407
33645SOL     OW 2831  14.484   0.090   2.673
33645SOL    HW1 2832  14.540   0.133   2.738
33645SOL    HW2 2833  14.519   0.117   2.589
33646SOL     OW 2834  10.317   4.691   8.272
33646SOL    HW1 2835  10.228   4.726   8.276
33646SOL    HW2 2836  10.348   4.714   8.185
33647SOL     OW 2837   8.218  10.123   8.330
33647SOL    HW1 2838   8.131  10.115   8.290
33647SOL    HW2 2839   8.201  10.161   8.416
33648SOL     OW 2840   0.906  13.530   3.003
33648SOL    HW1 2841   0.895  13.521   3.098
33648SOL    HW2 2842   0.941  13.445   2.975
33649SOL     OW 2843  11.872   2.729   2.854
33649SOL    HW1 2844  11.959   2.710   2.820
33649SOL    HW2 2845  11.833   2.642   2.868
33650SOL     OW 2846  13.880  11.862  14.261
33650SOL    HW1 2847  13.959  11.809  14.271
33650SOL    HW2 2848  13.818  11.805  14.217
33651SOL     OW 2849  13.470   4.229  13.605
33651SOL    HW1 2850  13.443   4.156  13.549
33651SOL    HW2 2851  13.509   4.292  13.544
33652SOL     OW 2852  14.731  11.036   1.452
33652SOL    HW1 2853  14.776  11.049   1.368
33652SOL    HW2 2854  14.641  11.017   1.428
33653SOL     OW 2855   1.604   9.760   0.708
33653SOL    HW1 2856   1.577   9.817   0.780
33653SOL    HW2 2857   1.594   9.671   0.743
33654SOL     OW 2858  14.514   0.881   4.385
33654SOL    HW1 2859  14.583   0.818   4.403
33654SOL    HW2 2860  14.503   0.928   4.468
33655SOL     OW 2861   8.860   0.750   9.645
33655SOL    HW1 2862   8.877   0.656   9.651
33655SOL    HW2 2863   8.887   0.773   9.556
33656SOL     OW 2864  11.832   4.419   7.540
33656SOL    HW1 2865  11.827   4.504   7.585
33656SOL    HW2 2866  11.781   4.360   7.596
33657SOL     OW 2867   6.507   7.890   3.490
33657SOL    HW1 2868   6.459   7.966   3.524
33657SOL    HW2 2869   6.463   7.814   3.529
33658SOL     OW 2870   2.110   5.236   3.952
33658SOL    HW1 2871   2.110   5.231   3.857
33658SOL    HW2 2872   2.050   5.167   3.980
33659SOL     OW 2873   0.053   3.536  11.318
33659SOL    HW1 2874   0.136   3.554  11.274
33659SOL    HW2 2875   0.035   3.444  11.301
33660SOL     OW 2876  13.260   2.670  13.125
33660SOL    HW1 2877  13.345   2.687  13.085
33660SOL    HW2 2878  13.199   2.728  13.079
33661SOL     OW 2879   8.741   2.387   7.351
33661SOL    HW1 2880   8.698   2.321   7.296
33661SOL    HW2 2881   8.670   2.432   7.395
33662SOL     OW 2882   7.634   1.236   4.199
33662SOL    HW1 2883   7.675   1.284   4.272
33662SOL    HW2 2884   7.707   1.186   4.161
33663SOL     OW 2885  11.859   7.556   1.989
33663SOL    HW1 2886  11.905   7.590   1.912
33663SOL    HW2 2887  11.925   7.557   2.058
33664SOL     OW 2888   3.113  14.705   6.987
33664SOL    HW1 2889   3.018  14.694   6.990
33664SOL    HW2 2890   3.140  14.659   6.908
33665SOL     OW 2891   2.440   9.247   2.744
33665SOL    HW1 2892   2.474   9.319   2.692
33665SOL    HW2 2893   2.353   9.229   2.708
33666SOL     OW 2894  11.427  11.281   1.450
33666SOL    HW1 2895  11.357  11.332   1.491
33666SOL    HW2 2896  11.408  11.285   1.356
33667SOL     OW 2897   2.666   7.585   3.692
33667SOL    HW1 2898   2.680   7.679   3.682
33667SOL    HW2 2899   2.738   7.555   3.747
33668SOL     OW 2900   9.373   8.123   0.288
33668SOL    HW1 2901   9.289   8.156   0.321
33668SOL    HW2 2902   9.436   8.192   0.309
33669SOL     OW 2903   0.606   9.762  14.814
33669SOL    HW1 2904   0.692   9.802  14.819
33669SOL    HW2 2905   0.601   9.705   0.009
33670SOL     OW 2906   7.346   2.695   6.908
33670SOL    HW1 2907   7.277   2.659   6.853
33670SOL    HW2 2908   7.421   2.707   6.849
33671SOL     OW 2909  13.316   0.284   8.321
33671SOL    HW1 2910  13.273   0.198   8.316
33671SOL    HW2 2911  13.280   0.326   8.398
33672SOL     OW 2912   0.862   6.841   1.396
33672SOL    HW1 2913   0.806   6.803   1.463
33672SOL    HW2 2914   0.875   6.932   1.424
33673SOL     OW 2915   4.916   1.875   0.544
33673SOL    HW1 2916   5.008   1.865   0.568
33673SOL    HW2 2917   4.886   1.950   0.596
33674SOL     OW 2918  10.379   9.340  11.386
33674SOL    HW1 2919  10.453   9.387  11.424
33674SOL    HW2 2920  10.403   9.248  11.395
33675SOL     OW 2921   3.600   1.656   1.756
33675SOL    HW1 2922   3.614   1.637   1.849
33675SOL    HW2 2923   3.681   1.699   1.728
33676SOL     OW 2924  13.257  13.181   2.718
33676SOL    HW1 2925  13.206  13.100   2.711
33676SOL    HW2 2926  13.317  13.165   2.791
33677SOL     OW 2927  12.836   8.845  13.024
33677SOL    HW1 2928  12.815   8.924  12.972
33677SOL    HW2 2929  12.851   8.878  13.112
33678SOL     OW 2930   4.507   4.729   9.666
33678SOL    HW1 2931   4.586   4.747   9.717
33678SOL    HW2 2932   4.458   4.666   9.720
33679SOL     OW 2933   8.264   7.737  14.673
33679SOL    HW1 2934   8.289   7.826  14.649
33679SOL    HW2 2935   8.318   7.681  14.616
33680SOL     OW 2936   3.078   0.562   3.834
33680SOL    HW1 2937   3.068   0.494   3.901
33680SOL    HW2 2938   3.144   0.529   3.774
33681SOL     OW 2939   0.872   8.235   4.824
33681SOL    HW1 2940   0.801   8.172   4.811
33681SOL    HW2 2941   0.861   8.265   4.914
33682SOL     OW 2942   4.716   4.219   4.475
33682SOL    HW1 2943   4.763   4.197   4.395
33682SOL    HW2 2944   4.756   4.164   4.543
33683SOL     OW 2945   2.452   9.386  12.708
33683SOL    HW1 2946   2.443   9.299  12.669
33683SOL    HW2 2947   2.514   9.431  12.650
33684SOL     OW 2948  13.257   2.404  12.904
33684SOL    HW1 2949  13.292   2.341  12.841
33684SOL    HW2 2950  13.272   2.489  12.864
33685SOL     OW 2951   1.133   9.057   0.183
33685SOL    HW1 2952   1.175   8.979   0.221
33685SOL    HW2 2953   1.176   9.130   0.227
33686SOL     OW 2954   7.074   2.782   5.908
33686SOL    HW1 2955   7.160   2.806   5.872
33686SOL    HW2 2956   7.023   2.863   5.904
33687SOL     OW 2957   2.903  10.169   8.011
33687SOL    HW1 2958   2.890  10.078   8.037
33687SOL    HW2 2959   2.983  10.169   7.959
33688SOL     OW 2960   5.286   8.929  11.554
33688SOL    HW1 2961   5.382   8.929  11.546
33688SOL    HW2 2962   5.257   8.859  11.495
33689SOL     OW 2963   0.197   6.144   7.051
33689SOL    HW1 2964   0.104   6.123   7.043
33689SOL    HW2 2965   0.200   6.213   7.117
33690SOL     OW 2966  11.126   1.193  11.803
33690SOL    HW1 2967  11.136   1.254  11.876
33690SOL    HW2 2968  11.157   1.109  11.836
33691SOL     OW 2969  12.341   1.150  10.997
33691SOL    HW1 2970  12.359   1.204  10.920
33691SOL    HW2 2971  12.370   1.062  10.972
33692SOL     OW 2972   6.236   3.462   3.248
33692SOL    HW1 2973   6.295   3.416   3.189
33692SOL    HW2 2974   6.176   3.510   3.190
33693SOL     OW 2975   2.133  12.137  10.268
33693SOL    HW1 2976   2.053  12.084  10.275
33693SOL    HW2 2977   2.186  12.092  10.203
33694SOL     OW 2978   4.089   2.198   4.065
33694SOL    HW1 2979   4.143   2.210   4.143
33694SOL    HW2 2980   4.040   2.280   4.057
33695SOL     OW 2981  11.481  14.725   5.021
33695SOL    HW1 2982  11.496  14.818   5.001
33695SOL    HW2 2983  11.386  14.717   5.026
33696SOL     OW 2984   7.326   3.396   5.265
33696SOL    HW1 2985   7.246   3.449   5.269
33696SOL    HW2 2986   7.391   3.455   5.227
33697SOL     OW 2987   3.077  12.233  13.667
33697SOL    HW1 2988   3.026  12.181  13.605
33697SOL    HW2 2989   3.156  12.257  13.618
33698SOL     OW 2990   0.833  13.390   4.854
33698SOL    HW1 2991   0.900  13.350   4.799
33698SOL    HW2 2992   0.796  13.318   4.905
33699SOL     OW 2993   0.514   7.067   5.124
33699SOL    HW1 2994   0.428   7.072   5.083
33699SOL    HW2 2995   0.569   7.126   5.072
33700SOL     OW 2996  14.823   9.877   4.808
33700SOL    HW1 2997  14.878   9.955   4.816
33700SOL    HW2 2998  14.768   9.878   4.887
33701SOL     OW 2999   0.977   1.306  14.636
33701SOL    HW1 3000   0.960   1.257  14.556
33701SOL    HW2 3001   1.040   1.252  14.684
33702SOL     OW 3002  14.541   9.228  13.565
33702SOL    HW1 3003  14.525   9.285  13.490
33702SOL    HW2 3004  14.564   9.287  13.637
33703SOL     OW 3005   3.719   4.888   1.054
33703SOL    HW1 3006   3.683   4.819   0.998
33703SOL    HW2 3007   3.794   4.922   1.006
33704SOL     OW 3008   7.798   7.325   4.311
33704SOL    HW1 3009   7.723   7.282   4.270
33704SOL    HW2 3010   7.804   7.286   4.398
33705SOL     OW 3011   6.005  10.748   2.949
33705SOL    HW1 3012   5.917  10.711   2.951
33705SOL    HW2 3013   6.003  10.811   2.876
33706SOL     OW 3014  10.546  12.216   0.765
33706SOL    HW1 3015  10.471  12.185   0.815
33706SOL    HW2 3016  10.620  12.210   0.826
33707SOL     OW 3017  12.857   1.216  14.006
33707SOL    HW1 3018  12.814   1.138  13.970
33707SOL    HW2 3019  12.786   1.278  14.019
33708SOL     OW 3020   4.007   5.776   5.862
33708SOL    HW1 3021   3.935   5.789   5.924
33708SOL    HW2 3022   4.050   5.695   5.891
33709SOL     OW 3023  13.587   3.693  13.181
33709SOL    HW1 3024  13.605   3.778  13.141
33709SOL    HW2 3025  13.648   3.633  13.139
33710SOL     OW 3026   4.435  10.415  10.047
33710SOL    HW1 3027   4.531  10.409  10.050
33710SOL    HW2 3028   4.405  10.336  10.092
33711SOL     OW 3029   3.699   2.799  12.713
33711SOL    HW1 3030   3.728   2.718  12.756
33711SOL    HW2 3031   3.615   2.819  12.755
33712SOL     OW 3032  12.229   8.919  11.394
33712SOL    HW1 3033  12.137   8.907  11.420
33712SOL    HW2 3034  12.241   8.858  11.321
33713SOL     OW 3035   8.707  10.438   9.560
33713SOL    HW1 3036   8.615  10.441   9.584
33713SOL    HW2 3037   8.716  10.502   9.489
33714SOL     OW 3038   9.092   3.298   6.809
33714SOL    HW1 3039   9.093   3.233   6.739
33714SOL    HW2 3040   9.001   3.301   6.838
33715SOL     OW 3041   3.883   3.149  12.245
33715SOL    HW1 3042   3.931   3.197  12.178
33715SOL    HW2 3043   3.921   3.061  12.243
33716SOL     OW 3044   6.813   6.981   1.721
33716SOL    HW1 3045   6.765   6.951   1.645
33716SOL    HW2 3046   6.847   6.901   1.762
33717SOL     OW 3047   9.836   2.181   4.305
33717SOL    HW1 3048   9.838   2.158   4.398
33717SOL    HW2 3049   9.745   2.164   4.278
33718SOL     OW 3050   8.962   4.412  13.438
33718SOL    HW1 3051   8.887   4.354  13.427
33718SOL    HW2 3052   8.972   4.454  13.352
33719SOL     OW 3053   4.642   9.453   0.423
33719SOL    HW1 3054   4.657   9.545   0.442
33719SOL    HW2 3055   4.630   9.449   0.328
33720SOL     OW 3056  12.002   3.967  13.913
33720SOL    HW1 3057  12.077   3.917  13.880
33720SOL    HW2 3058  12.025   4.058  13.895
33721SOL     OW 3059  11.065   0.786  14.753
33721SOL    HW1 3060  10.980   0.830  14.751
33721SOL    HW2 3061  11.112   0.827  14.825
33722SOL     OW 3062  11.629  12.408   9.693
33722SOL    HW1 3063  11.648  12.409   9.786
33722SOL    HW2 3064  11.711  12.381   9.651
33723SOL     OW 3065   7.934   5.077   5.938
33723SOL    HW1 3066   7.888   5.141   5.991
33723SOL    HW2 3067   8.004   5.044   5.995
33724SOL     OW 3068   2.227   1.476   3.430
33724SOL    HW1 3069   2.259   1.392   3.462
33724SOL    HW2 3070   2.291   1.501   3.363
33725SOL     OW 3071   3.890   0.283  13.057
33725SOL    HW1 3072   3.975   0.285  13.013
33725SOL    HW2 3073   3.832   0.237  12.996
33726SOL     OW 3074   6.939   4.951  13.073
33726SOL    HW1 3075   6.986   4.887  13.019
33726SOL    HW2 3076   7.007   4.993  13.125
33727SOL     OW 3077   5.025   0.026   3.649
33727SOL    HW1 3078   5.005  14.828   3.696
33727SOL    HW2 3079   5.062   0.084   3.715
33728SOL     OW 3080  14.767  13.678   1.831
33728SOL    HW1 3081  14.836  13.632   1.782
33728SOL    HW2 3082  14.813  13.746   1.880
33729SOL     OW 3083  12.377   0.578   4.152
33729SOL    HW1 3084  12.297   0.546   4.111
33729SOL    HW2 3085  12.393   0.519   4.225
33730SOL     OW 3086   0.290   5.462   9.571
33730SOL    HW1 3087   0.314   5.551   9.596
33730SOL    HW2 3088   0.336   5.448   9.488
33731SOL     OW 3089   1.215  10.478  10.822
33731SOL    HW1 3090   1.169  10.560  10.804
33731SOL    HW2 3091   1.224  10.476  10.917
33732SOL     OW 3092   9.806   8.367   7.093
33732SOL    HW1 3093   9.868   8.440   7.094
33732SOL    HW2 3094   9.721   8.407   7.076
33733SOL     OW 3095   5.712   8.334  14.749
33733SOL    HW1 3096   5.639   8.390  14.721
33733SOL    HW2 3097   5.739   8.289  14.669
33734SOL     OW 3098  11.119   7.521   6.708
33734SOL    HW1 3099  11.081   7.441   6.744
33734SOL    HW2 3100  11.177   7.553   6.778
33735SOL     OW 3101   1.323  10.323   9.793
33735SOL    HW1 3102   1.257  10.344   9.858
33735SOL    HW2 3103   1.403  10.307   9.844
33736SOL     OW 3104  10.853  12.553   1.061
33736SOL    HW1 3105  10.873  12.637   1.102
33736SOL    HW2 3106  10.926  12.537   1.002
33737SOL     OW 3107   8.054   3.453   7.922
33737SOL    HW1 3108   8.032   3.537   7.882
33737SOL    HW2 3109   8.148   3.460   7.940
33738SOL     OW 3110   6.715   4.516  11.831
33738SOL    HW1 3111   6.763   4.514  11.749
33738SOL    HW2 3112   6.780   4.543  11.896
33739SOL     OW 3113  14.321  11.307  14.566
33739SOL    HW1 3114  14.294  11.390  14.606
33739SOL    HW2 3115  14.262  11.297  14.491
33740SOL     OW 3116   6.893   6.287   2.290
33740SOL    HW1 3117   6.840   6.207   2.284
33740SOL    HW2 3118   6.836   6.349   2.336
33741SOL     OW 3119   9.319   9.428   3.176
33741SOL    HW1 3120   9.366   9.349   3.149
33741SOL    HW2 3121   9.388   9.490   3.198
33742SOL     OW 3122  10.659  13.215  14.779
33742SOL    HW1 3123  10.732  13.157  14.799
33742SOL    HW2 3124  10.661  13.226  14.684
33743SOL     OW 3125  14.487   3.492  14.173
33743SOL    HW1 3126  14.406   3.457  14.211
33743SOL    HW2 3127  14.459   3.570  14.125
33744SOL     OW 3128   8.595   9.174   8.345
33744SOL    HW1 3129   8.504   9.197   8.328
33744SOL    HW2 3130   8.597   9.155   8.439
33745SOL     OW 3131   8.603  13.343   7.833
33745SOL    HW1 3132   8.536  13.362   7.767
33745SOL    HW2 3133   8.630  13.429   7.865
33746SOL     OW 3134   2.060   5.236   0.843
33746SOL    HW1 3135   2.108   5.172   0.791
33746SOL    HW2 3136   2.092   5.321   0.811
33747SOL     OW 3137   9.183   2.541  12.547
33747SOL    HW1 3138   9.148   2.609  12.604
33747SOL    HW2 3139   9.164   2.459  12.592
33748SOL     OW 3140   5.699  13.564  14.498
33748SOL    HW1 3141   5.622  13.507  14.491
33748SOL    HW2 3142   5.769  13.506  14.525
33749SOL     OW 3143   1.303   6.583   1.880
33749SOL    HW1 3144   1.392   6.602   1.848
33749SOL    HW2 3145   1.305   6.610   1.972
33750SOL     OW 3146  13.798   7.972  14.301
33750SOL    HW1 3147  13.874   8.029  14.310
33750SOL    HW2 3148  13.825   7.904  14.239
33751SOL     OW 3149   4.995   8.940  11.996
33751SOL    HW1 3150   4.916   8.949  11.943
33751SOL    HW2 3151   5.063   8.983  11.944
33752SOL     OW 3152   1.900   7.469   4.020
33752SOL    HW1 3153   1.841   7.396   4.005
33752SOL    HW2 3154   1.966   7.435   4.081
33753SOL     OW 3155   1.500  13.937   4.984
33753SOL    HW1 3156   1.537  13.965   4.900
33753SOL    HW2 3157   1.406  13.940   4.971
33754SOL     OW 3158  14.384  10.375  14.020
33754SOL    HW1 3159  14.388  10.286  13.985
33754SOL    HW2 3160  14.396  10.364  14.114
33755SOL     OW 3161   9.784   3.725  11.234
33755SOL    HW1 3162   9.840   3.680  11.170
33755SOL    HW2 3163   9.825   3.710  11.318
33756SOL     OW 3164  10.344   7.796  12.343
33756SOL    HW1 3165  10.288   7.873  12.353
33756SOL    HW2 3166  10.347   7.758  12.431
33757SOL     OW 3167   4.216   0.859  12.990
33757SOL    HW1 3168   4.176   0.775  12.967
33757SOL    HW2 3169   4.288   0.837  13.048
33758SOL     OW 3170   2.715   9.287   4.638
33758SOL    HW1 3171   2.645   9.350   4.656
33758SOL    HW2 3172   2.710   9.272   4.544
33759SOL     OW 3173  13.266  14.629  11.979
33759SOL    HW1 3174  13.212  14.649  11.903
33759SOL    HW2 3175  13.276  14.713  12.025
33760SOL     OW 3176  12.201   6.097   4.455
33760SOL    HW1 3177  12.268   6.050   4.506
33760SOL    HW2 3178  12.179   6.173   4.507
33761SOL     OW 3179   6.840   4.846   2.089
33761SOL    HW1 3180   6.762   4.862   2.143
33761SOL    HW2 3181   6.821   4.893   2.007
33762SOL     OW 3182   1.312  14.105  13.379
33762SOL    HW1 3183   1.330  14.019  13.417
33762SOL    HW2 3184   1.396  14.131  13.340
33763SOL     OW 3185   3.610  14.807  14.398
33763SOL    HW1 3186   3.598  14.731  14.455
33763SOL    HW2 3187   3.600   0.000  14.456
33764SOL     OW 3188   3.501  13.134   7.034
33764SOL    HW1 3189   3.529  13.107   7.122
33764SOL    HW2 3190   3.582  13.162   6.991
33765SOL     OW 3191  11.445   5.790   1.091
33765SOL    HW1 3192  11.436   5.840   1.172
33765SOL    HW2 3193  11.370   5.730   1.092
33766SOL     OW 3194  10.850   6.802   0.908
33766SOL    HW1 3195  10.794   6.736   0.950
33766SOL    HW2 3196  10.788   6.863   0.868
33767SOL     OW 3197   2.438   5.579  12.105
33767SOL    HW1 3198   2.392   5.594  12.023
33767SOL    HW2 3199   2.523   5.621  12.094
33768SOL     OW 3200  13.532   0.347   4.406
33768SOL    HW1 3201  13.552   0.281   4.339
33768SOL    HW2 3202  13.444   0.324   4.437
33769SOL     OW 3203  12.171  11.982   1.640
33769SOL    HW1 3204  12.079  11.976   1.664
33769SOL    HW2 3205  12.216  11.928   1.705
33770SOL     OW 3206   6.685   2.383   7.255
33770SOL    HW1 3207   6.636   2.429   7.187
33770SOL    HW2 3208   6.757   2.442   7.277
33771SOL     OW 3209   7.785  11.299   1.701
33771SOL    HW1 3210   7.732  11.284   1.622
33771SOL    HW2 3211   7.744  11.375   1.743
33772SOL     OW 3212   4.061   0.294   9.244
33772SOL    HW1 3213   4.055   0.302   9.340
33772SOL    HW2 3214   4.051   0.200   9.228
33773SOL     OW 3215  10.383   2.721   3.466
33773SOL    HW1 3216  10.347   2.695   3.551
33773SOL    HW2 3217  10.384   2.640   3.415
33774SOL     OW 3218   8.241   6.043  11.188
33774SOL    HW1 3219   8.277   5.966  11.146
33774SOL    HW2 3220   8.153   6.016  11.216
33775SOL     OW 3221  10.398   9.997   0.245
33775SOL    HW1 3222  10.469  10.045   0.204
33775SOL    HW2 3223  10.419   9.905   0.232
33776SOL     OW 3224   8.878  12.092   8.960
33776SOL    HW1 3225   8.968  12.120   8.973
33776SOL    HW2 3226   8.838  12.099   9.047
33777SOL     OW 3227   1.002   9.611   8.440
33777SOL    HW1 3228   1.057   9.564   8.377
33777SOL    HW2 3229   1.064   9.649   8.502
33778SOL     OW 3230   5.884  11.582   2.109
33778SOL    HW1 3231   5.877  11.662   2.056
33778SOL    HW2 3232   5.838  11.602   2.190
33779SOL     OW 3233  13.427  11.332  10.538
33779SOL    HW1 3234  13.353  11.272  10.546
33779SOL    HW2 3235  13.389  11.411  10.500
33780SOL     OW 3236   4.293   9.741  10.439
33780SOL    HW1 3237   4.322   9.821  10.483
33780SOL    HW2 3238   4.218   9.769  10.386
33781SOL     OW 3239   0.278  10.560  13.422
33781SOL    HW1 3240   0.256  10.538  13.332
33781SOL    HW2 3241   0.221  10.505  13.476
33782SOL     OW 3242   5.707  10.353   7.494
33782SOL    HW1 3243   5.659  10.435   7.504
33782SOL    HW2 3244   5.639  10.287   7.479
33783SOL     OW 3245   7.646   4.917   2.670
33783SOL    HW1 3246   7.622   4.852   2.603
33783SOL    HW2 3247   7.683   4.990   2.620
33784SOL     OW 3248   6.619   4.939   2.234
33784SOL    HW1 3249   6.577   4.961   2.317
33784SOL    HW2 3250   6.625   5.022   2.187
33785SOL     OW 3251   2.648   9.601   6.009
33785SOL    HW1 3252   2.603   9.582   5.927
33785SOL    HW2 3253   2.726   9.545   6.007
33786SOL     OW 3254   7.273   2.136  11.667
33786SOL    HW1 3255   7.226   2.056  11.644
33786SOL    HW2 3256   7.243   2.200  11.601
33787SOL     OW 3257  13.033   4.182   5.865
33787SOL    HW1 3258  13.015   4.266   5.823
33787SOL    HW2 3259  13.127   4.185   5.886
33788SOL     OW 3260   0.086   3.959   0.247
33788SOL    HW1 3261   0.068   3.867   0.229
33788SOL    HW2 3262   0.076   4.003   0.162
33789SOL     OW 3263  13.763  12.382  11.862
33789SOL    HW1 3264  13.668  12.371  11.854
33789SOL    HW2 3265  13.775  12.477  11.866
33790SOL     OW 3266   4.801  10.587  14.493
33790SOL    HW1 3267   4.837  10.543  14.569
33790SOL    HW2 3268   4.877  10.615  14.442
33791SOL     OW 3269   0.684   2.012   2.995
33791SOL    HW1 3270   0.608   2.071   3.003
33791SOL    HW2 3271   0.731   2.023   3.078
33792SOL     OW 3272   1.506  11.328   1.897
33792SOL    HW1 3273   1.475  11.375   1.820
33792SOL    HW2 3274   1.573  11.384   1.935
33793SOL     OW 3275   7.141  11.633   6.899
33793SOL    HW1 3276   7.099  11.718   6.914
33793SOL    HW2 3277   7.076  11.569   6.930
33794SOL     OW 3278   4.300   2.188   3.559
33794SOL    HW1 3279   4.393   2.211   3.556
33794SOL    HW2 3280   4.276   2.196   3.651
33795SOL     OW 3281  10.395   7.187   2.933
33795SOL    HW1 3282  10.315   7.134   2.921
33795SOL    HW2 3283  10.457   7.148   2.871
33796SOL     OW 3284  11.439   7.097  10.073
33796SOL    HW1 3285  11.442   7.114   9.979
33796SOL    HW2 3286  11.443   7.184  10.113
33797SOL     OW 3287   0.748  11.512   8.115
33797SOL    HW1 3288   0.756  11.551   8.202
33797SOL    HW2 3289   0.667  11.549   8.080
33798SOL     OW 3290   3.297   6.970   6.564
33798SOL    HW1 3291   3.380   7.016   6.572
33798SOL    HW2 3292   3.247   7.020   6.499
33799SOL     OW 3293  12.386  11.725  12.686
33799SOL    HW1 3294  12.297  11.710  12.653
33799SOL    HW2 3295  12.374  11.754  12.776
33800SOL     OW 3296  10.467  14.075   0.890
33800SOL    HW1 3297  10.547  14.047   0.846
33800SOL    HW2 3298  10.479  14.168   0.907
33801SOL     OW 3299   9.021   1.073  13.507
33801SOL    HW1 3300   9.071   1.093  13.585
33801SOL    HW2 3301   8.929   1.077  13.534
33802SOL     OW 3302   0.769   2.421  13.964
33802SOL    HW1 3303   0.691   2.472  13.941
33802SOL    HW2 3304   0.830   2.485  14.000
33803SOL     OW 3305  12.421  11.783  11.823
33803SOL    HW1 3306  12.331  11.793  11.853
33803SOL    HW2 3307  12.459  11.870  11.834
33804SOL     OW 3308  12.188  10.844   1.448
33804SOL    HW1 3309  12.249  10.870   1.378
33804SOL    HW2 3310  12.245  10.817   1.520
33805SOL     OW 3311   9.098   6.691   3.740
33805SOL    HW1 3312   9.024   6.649   3.784
33805SOL    HW2 3313   9.141   6.742   3.809
33806SOL     OW 3314   9.715   5.768  13.316
33806SOL    HW1 3315   9.656   5.813  13.377
33806SOL    HW2 3316   9.678   5.786  13.229
33807SOL     OW 3317   3.498  11.464   5.858
33807SOL    HW1 3318   3.492  11.559   5.861
33807SOL    HW2 3319   3.530  11.439   5.945
33808SOL     OW 3320   8.150   5.481   0.036
33808SOL    HW1 3321   8.184   5.394   0.016
33808SOL    HW2 3322   8.227   5.537   0.038
33809SOL     OW 3323   5.788   2.940   8.528
33809SOL    HW1 3324   5.830   3.025   8.538
33809SOL    HW2 3325   5.853   2.886   8.483
33810SOL     OW 3326   7.771  13.812  11.287
33810SOL    HW1 3327   7.681  13.793  11.259
33810SOL    HW2 3328   7.780  13.907  11.277
33811SOL     OW 3329   3.213   6.538   2.380
33811SOL    HW1 3330   3.290   6.579   2.341
33811SOL    HW2 3331   3.165   6.610   2.421
33812SOL     OW 3332   2.154   8.934   8.808
33812SOL    HW1 3333   2.067   8.968   8.786
33812SOL    HW2 3334   2.214   9.003   8.780
33813SOL     OW 3335   6.404   5.662  14.545
33813SOL    HW1 3336   6.333   5.720  14.518
33813SOL    HW2 3337   6.392   5.583  14.493
33814SOL     OW 3338   8.799   8.631   3.092
33814SOL    HW1 3339   8.785   8.536   3.098
33814SOL    HW2 3340   8.725   8.668   3.140
33815SOL     OW 3341   3.089  14.134  10.686
33815SOL    HW1 3342   3.137  14.052  10.697
33815SOL    HW2 3343   3.113  14.163  10.598
33816SOL     OW 3344  11.840   3.099   9.844
33816SOL    HW1 3345  11.904   3.037   9.809
33816SOL    HW2 3346  11.757   3.070   9.809
33817SOL     OW 3347   7.473   3.738  10.394
33817SOL    HW1 3348   7.448   3.750  10.486
33817SOL    HW2 3349   7.542   3.804  10.380
33818SOL     OW 3350   2.018   3.957  13.223
33818SOL    HW1 3351   2.103   3.991  13.251
33818SOL    HW2 3352   1.955   4.000  13.281
33819SOL     OW 3353   6.685  14.087  11.077
33819SOL    HW1 3354   6.598  14.112  11.108
33819SOL    HW2 3355   6.683  14.106  10.984
33820SOL     OW 3356   0.915  12.445   1.414
33820SOL    HW1 3357   0.957  12.509   1.472
33820SOL    HW2 3358   0.958  12.362   1.436
33821SOL     OW 3359  11.615   6.758   9.296
33821SOL    HW1 3360  11.650   6.839   9.259
33821SOL    HW2 3361  11.520   6.769   9.291
33822SOL     OW 3362   4.511  13.025   1.545
33822SOL    HW1 3363   4.442  13.086   1.522
33822SOL    HW2 3364   4.493  13.000   1.635
33823SOL     OW 3365  11.167   7.157   6.424
33823SOL    HW1 3366  11.107   7.085   6.404
33823SOL    HW2 3367  11.111   7.225   6.462
33824SOL     OW 3368   3.598  14.663   8.111
33824SOL    HW1 3369   3.694  14.668   8.117
33824SOL    HW2 3370   3.579  14.569   8.119
33825SOL     OW 3371   2.998   0.758  12.479
33825SOL    HW1 3372   2.967   0.815  12.410
33825SOL    HW2 3373   2.993   0.811  12.559
33826SOL     OW 3374   9.352   3.095   4.533
33826SOL    HW1 3375   9.360   3.134   4.446
33826SOL    HW2 3376   9.434   3.119   4.577
33827SOL     OW 3377   3.584  10.584   9.156
33827SOL    HW1 3378   3.669  10.549   9.130
33827SOL    HW2 3379   3.585  10.584   9.251
33828SOL     OW 3380   8.887   3.298   7.906
33828SOL    HW1 3381   8.956   3.295   7.972
33828SOL    HW2 3382   8.931   3.331   7.827
33829SOL     OW 3383   5.387   2.841   0.748
33829SOL    HW1 3384   5.402   2.924   0.704
33829SOL    HW2 3385   5.419   2.855   0.838
33830SOL     OW 3386   0.896   1.687  13.208
33830SOL    HW1 3387   0.843   1.708  13.285
33830SOL    HW2 3388   0.923   1.772  13.173
33831SOL     OW 3389  10.281   8.331   7.510
33831SOL    HW1 3390  10.342   8.278   7.562
33831SOL    HW2 3391  10.199   8.327   7.559
33832SOL     OW 3392   7.478   6.883  13.097
33832SOL    HW1 3393   7.415   6.838  13.040
33832SOL    HW2 3394   7.537   6.928  13.036
33833SOL     OW 3395   3.507   9.986   6.535
33833SOL    HW1 3396   3.593   9.986   6.576
33833SOL    HW2 3397   3.470  10.072   6.555
33834SOL     OW 3398  10.325  11.417  13.751
33834SOL    HW1 3399  10.363  11.329  13.752
33834SOL    HW2 3400  10.319  11.442  13.843
33835SOL     OW 3401   2.530   6.202  13.651
33835SOL    HW1 3402   2.470   6.130  13.634
33835SOL    HW2 3403   2.528   6.254  13.571
33836SOL     OW 3404   4.136   8.817  13.295
33836SOL    HW1 3405   4.183   8.751  13.244
33836SOL    HW2 3406   4.204   8.863  13.344
33837SOL     OW 3407  13.204  13.875   2.837
33837SOL    HW1 3408  13.265  13.802   2.848
33837SOL    HW2 3409  13.205  13.920   2.921
33838SOL     OW 3410   7.050  10.671   1.035
33838SOL    HW1 3411   6.996  10.750   1.024
33838SOL    HW2 3412   7.127  10.688   0.981
33839SOL     OW 3413   9.775  13.835   6.803
33839SOL    HW1 3414   9.815  13.900   6.861
33839SOL    HW2 3415   9.750  13.764   6.861
33840SOL     OW 3416  11.177   5.000  11.497
33840SOL    HW1 3417  11.215   5.077  11.539
33840SOL    HW2 3418  11.114   4.967  11.561
33841SOL     OW 3419   5.683   6.787   8.780
33841SOL    HW1 3420   5.644   6.705   8.810
33841SOL    HW2 3421   5.620   6.822   8.717
33842SOL     OW 3422   2.617   0.356  10.896
33842SOL    HW1 3423   2.636   0.272  10.854
33842SOL    HW2 3424   2.696   0.375  10.947
33843SOL     OW 3425   8.492   2.036  10.231
33843SOL    HW1 3426   8.451   1.983  10.299
33843SOL    HW2 3427   8.482   1.983  10.151
33844SOL     OW 3428  14.723   1.548   4.582
33844SOL    HW1 3429  14.785   1.491   4.628
33844SOL    HW2 3430  14.779   1.608   4.532
33845SOL     OW 3431  11.240   6.158   7.660
33845SOL    HW1 3432  11.246   6.244   7.620
33845SOL    HW2 3433  11.331   6.131   7.673
33846SOL     OW 3434   7.567   7.759   4.207
33846SOL    HW1 3435   7.561   7.819   4.282
33846SOL    HW2 3436   7.587   7.816   4.133
33847SOL     OW 3437   9.453   3.052  12.459
33847SOL    HW1 3438   9.438   3.135  12.414
33847SOL    HW2 3439   9.546   3.034  12.447
33848SOL     OW 3440  14.642   0.943   6.294
33848SOL    HW1 3441  14.592   0.990   6.227
33848SOL    HW2 3442  14.729   0.934   6.257
33849SOL     OW 3443   8.861  11.068   2.362
33849SOL    HW1 3444   8.892  11.085   2.273
33849SOL    HW2 3445   8.939  11.076   2.417
33850SOL     OW 3446  13.352   3.986   9.440
33850SOL    HW1 3447  13.429   4.041   9.454
33850SOL    HW2 3448  13.344   3.934   9.520
33851SOL     OW 3449   6.812   4.500  11.566
33851SOL    HW1 3450   6.806   4.575  11.507
33851SOL    HW2 3451   6.804   4.423  11.508
33852SOL     OW 3452  10.235  11.615  13.966
33852SOL    HW1 3453  10.156  11.563  13.953
33852SOL    HW2 3454  10.253  11.609  14.060
33853SOL     OW 3455   1.870  10.400  13.069
33853SOL    HW1 3456   1.853  10.483  13.025
33853SOL    HW2 3457   1.815  10.403  13.147
33854SOL     OW 3458   9.630   2.505   3.270
33854SOL    HW1 3459   9.566   2.505   3.341
33854SOL    HW2 3460   9.577   2.516   3.191
33855SOL     OW 3461  14.282   6.074  11.035
33855SOL    HW1 3462  14.271   6.169  11.039
33855SOL    HW2 3463  14.265   6.044  11.124
33856SOL     OW 3464  11.026   0.863   6.124
33856SOL    HW1 3465  11.048   0.915   6.201
33856SOL    HW2 3466  11.051   0.918   6.050
33857SOL     OW 3467   3.278  10.475   3.911
33857SOL    HW1 3468   3.223  10.449   3.985
33857SOL    HW2 3469   3.366  10.482   3.947
33858SOL     OW 3470  11.944  14.467   1.169
33858SOL    HW1 3471  12.007  14.473   1.098
33858SOL    HW2 3472  11.992  14.496   1.247
33859SOL     OW 3473  13.972   4.078   1.714
33859SOL    HW1 3474  13.892   4.111   1.674
33859SOL    HW2 3475  13.964   4.098   1.807
33860SOL     OW 3476   9.561   3.480   1.380
33860SOL    HW1 3477   9.546   3.385   1.373
33860SOL    HW2 3478   9.634   3.488   1.443
33861SOL     OW 3479  11.364   2.370  12.076
33861SOL    HW1 3480  11.445   2.416  12.052
33861SOL    HW2 3481  11.385   2.278  12.067
33862SOL     OW 3482  12.271  13.781   1.759
33862SOL    HW1 3483  12.314  13.760   1.843
33862SOL    HW2 3484  12.178  13.768   1.776
33863SOL     OW 3485   0.041   6.042   3.116
33863SOL    HW1 3486   0.012   5.979   3.050
33863SOL    HW2 3487   0.038   5.993   3.199
33864SOL     OW 3488   6.793   7.171  13.558
33864SOL    HW1 3489   6.816   7.243  13.617
33864SOL    HW2 3490   6.752   7.214  13.483
33865SOL     OW 3491  12.697  13.913   0.660
33865SOL    HW1 3492  12.732  13.944   0.744
33865SOL    HW2 3493  12.775  13.887   0.610
33866SOL     OW 3494   4.711   6.624   8.450
33866SOL    HW1 3495   4.682   6.549   8.397
33866SOL    HW2 3496   4.663   6.614   8.533
33867SOL     OW 3497   8.814   4.181   4.881
33867SOL    HW1 3498   8.875   4.237   4.929
33867SOL    HW2 3499   8.818   4.213   4.791
33868SOL     OW 3500   1.732   0.196   4.074
33868SOL    HW1 3501   1.818   0.226   4.043
33868SOL    HW2 3502   1.673   0.269   4.055
33869SOL     OW 3503   0.807   4.366   5.462
33869SOL    HW1 3504   0.829   4.362   5.555
33869SOL    HW2 3505   0.735   4.304   5.452
33870SOL     OW 3506  10.514   3.382   0.767
33870SOL    HW1 3507  10.590   3.364   0.711
33870SOL    HW2 3508  10.517   3.476   0.782
33871SOL     OW 3509   2.365   6.965   8.779
33871SOL    HW1 3510   2.379   6.902   8.708
33871SOL    HW2 3511   2.292   6.930   8.829
33872SOL     OW 3512   0.433   4.234  13.645
33872SOL    HW1 3513   0.498   4.253  13.713
33872SOL    HW2 3514   0.425   4.316  13.596
33873SOL     OW 3515   8.981   5.804   3.213
33873SOL    HW1 3516   8.935   5.841   3.288
33873SOL    HW2 3517   9.008   5.717   3.242
33874SOL     OW 3518  13.471   0.305   2.498
33874SOL    HW1 3519  13.479   0.332   2.407
33874SOL    HW2 3520  13.409   0.232   2.496
33875SOL     OW 3521  12.415   6.734   2.060
33875SOL    HW1 3522  12.490   6.773   2.013
33875SOL    HW2 3523  12.376   6.674   1.996
33876SOL     OW 3524   3.194   1.162   5.309
33876SOL    HW1 3525   3.274   1.122   5.344
33876SOL    HW2 3526   3.191   1.133   5.218
33877SOL     OW 3527   7.720  14.768   1.896
33877SOL    HW1 3528   7.779  14.732   1.962
33877SOL    HW2 3529   7.654  14.700   1.884
33878SOL     OW 3530  10.834   2.350  11.347
33878SOL    HW1 3531  10.770   2.417  11.371
33878SOL    HW2 3532  10.799   2.311  11.267
33879SOL     OW 3533   5.097   0.320   9.651
33879SOL    HW1 3534   5.098   0.404   9.698
33879SOL    HW2 3535   5.005   0.294   9.650
33880SOL     OW 3536   9.104   4.387   6.441
33880SOL    HW1 3537   9.180   4.361   6.389
33880SOL    HW2 3538   9.035   4.328   6.412
33881SOL     OW 3539  10.269   1.667   2.040
33881SOL    HW1 3540  10.333   1.703   2.101
33881SOL    HW2 3541  10.199   1.733   2.037
33882SOL     OW 3542   8.916   5.908   4.618
33882SOL    HW1 3543   8.900   5.877   4.529
33882SOL    HW2 3544   8.926   6.003   4.609
33883SOL     OW 3545   1.436  13.264   7.883
33883SOL    HW1 3546   1.496  13.333   7.912
33883SOL    HW2 3547   1.461  13.248   7.791
33884SOL     OW 3548   9.503   8.505  13.699
33884SOL    HW1 3549   9.521   8.574  13.763
33884SOL    HW2 3550   9.451   8.548  13.631
33885SOL     OW 3551  11.302   2.145  11.679
33885SOL    HW1 3552  11.217   2.112  11.652
33885SOL    HW2 3553  11.286   2.187  11.764
33886SOL     OW 3554  12.882  12.004  11.582
33886SOL    HW1 3555  12.879  11.966  11.494
33886SOL    HW2 3556  12.976  12.012  11.601
33887SOL     OW 3557  10.097   4.030   5.869
33887SOL    HW1 3558  10.014   4.051   5.826
33887SOL    HW2 3559  10.079   3.948   5.915
33888SOL     OW 3560   6.947   1.949  14.403
33888SOL    HW1 3561   6.930   1.926  14.312
33888SOL    HW2 3562   6.992   2.033  14.399
33889SOL     OW 3563   3.004   9.422   0.812
33889SOL    HW1 3564   3.062   9.429   0.736
33889SOL    HW2 3565   3.033   9.343   0.857
33890SOL     OW 3566   7.325   2.655  12.769
33890SOL    HW1 3567   7.398   2.601  12.737
33890SOL    HW2 3568   7.247   2.611  12.735
33891SOL     OW 3569   0.764   9.526  12.400
33891SOL    HW1 3570   0.858   9.531  12.415
33891SOL    HW2 3571   0.728   9.603  12.445
33892SOL     OW 3572  12.640   7.279   5.163
33892SOL    HW1 3573  12.565   7.336   5.148
33892SOL    HW2 3574  12.691   7.285   5.082
33893SOL     OW 3575  12.967  10.917   1.784
33893SOL    HW1 3576  13.015  10.851   1.834
33893SOL    HW2 3577  12.996  10.903   1.693
33894SOL     OW 3578   3.800  11.920   9.707
33894SOL    HW1 3579   3.723  11.886   9.754
33894SOL    HW2 3580   3.765  11.950   9.623
33895SOL     OW 3581   6.470   6.606   2.028
33895SOL    HW1 3582   6.417   6.584   2.104
33895SOL    HW2 3583   6.462   6.701   2.020
33896SOL     OW 3584   7.941   8.518   6.103
33896SOL    HW1 3585   8.004   8.450   6.130
33896SOL    HW2 3586   7.862   8.498   6.153
33897SOL     OW 3587   4.499   4.157   6.860
33897SOL    HW1 3588   4.490   4.252   6.859
33897SOL    HW2 3589   4.465   4.129   6.775
33898SOL     OW 3590  12.139  10.202   7.912
33898SOL    HW1 3591  12.048  10.184   7.936
33898SOL    HW2 3592  12.182  10.116   7.914
33899SOL     OW 3593   6.607   2.903   6.448
33899SOL    HW1 3594   6.554   2.981   6.432
33899SOL    HW2 3595   6.648   2.919   6.533
33900SOL     OW 3596   2.574   5.891   6.414
33900SOL    HW1 3597   2.558   5.913   6.506
33900SOL    HW2 3598   2.647   5.829   6.417
33901SOL     OW 3599   0.468   7.090   0.248
33901SOL    HW1 3600   0.506   7.002   0.243
33901SOL    HW2 3601   0.536   7.143   0.290
33902SOL     OW 3602   2.426   9.647   6.501
33902SOL    HW1 3603   2.343   9.688   6.527
33902SOL    HW2 3604   2.491   9.716   6.515
33903SOL     OW 3605  13.745  13.491  13.071
33903SOL    HW1 3606  13.734  13.400  13.097
33903SOL    HW2 3607  13.658  13.519  13.043
33904SOL     OW 3608  13.011   6.927   3.545
33904SOL    HW1 3609  13.067   6.891   3.477
33904SOL    HW2 3610  12.922   6.914   3.513
33905SOL     OW 3611   9.939   7.852   1.789
33905SOL    HW1 3612   9.937   7.840   1.694
33905SOL    HW2 3613   9.849   7.877   1.811
33906SOL     OW 3614  14.844  11.391  14.227
33906SOL    HW1 3615   0.015  11.312  14.230
33906SOL    HW2 3616  14.810  11.401  14.316
33907SOL     OW 3617   5.566  12.333  11.163
33907SOL    HW1 3618   5.572  12.426  11.184
33907SOL    HW2 3619   5.474  12.319  11.140
33908SOL     OW 3620   9.089   4.132   3.081
33908SOL    HW1 3621   9.139   4.149   3.001
33908SOL    HW2 3622   9.117   4.200   3.142
33909SOL     OW 3623   0.612   3.516  12.882
33909SOL    HW1 3624   0.609   3.424  12.909
33909SOL    HW2 3625   0.531   3.554  12.916
33910SOL     OW 3626  11.159   1.444   1.994
33910SOL    HW1 3627  11.235   1.498   1.971
33910SOL    HW2 3628  11.132   1.477   2.080
33911SOL     OW 3629   1.692   2.782   0.669
33911SOL    HW1 3630   1.784   2.799   0.691
33911SOL    HW2 3631   1.695   2.741   0.583
33912SOL     OW 3632   4.766  12.091  11.316
33912SOL    HW1 3633   4.718  12.154  11.263
33912SOL    HW2 3634   4.746  12.006  11.276
33913SOL     OW 3635  10.465   8.178   8.480
33913SOL    HW1 3636  10.504   8.118   8.543
33913SOL    HW2 3637  10.440   8.255   8.532
33914SOL     OW 3638   8.554   1.574  14.051
33914SOL    HW1 3639   8.504   1.550  13.973
33914SOL    HW2 3640   8.507   1.533  14.124
33915SOL     OW 3641   2.563   4.499   3.022
33915SOL    HW1 3642   2.510   4.574   2.993
33915SOL    HW2 3643   2.532   4.481   3.111
33916SOL     OW 3644   4.173   0.471   7.004
33916SOL    HW1 3645   4.080   0.454   7.019
33916SOL    HW2 3646   4.205   0.392   6.960
33917SOL     OW 3647   6.735  11.785   1.854
33917SOL    HW1 3648   6.640  11.793   1.854
33917SOL    HW2 3649   6.752  11.692   1.839
33918SOL     OW 3650   2.503  14.570   9.412
33918SOL    HW1 3651   2.518  14.661   9.388
33918SOL    HW2 3652   2.433  14.541   9.353
33919SOL     OW 3653  10.633  12.257  12.463
33919SOL    HW1 3654  10.704  12.269  12.401
33919SOL    HW2 3655  10.652  12.174  12.505
33920SOL     OW 3656   2.225  10.617  14.104
33920SOL    HW1 3657   2.252  10.527  14.081
33920SOL    HW2 3658   2.258  10.630  14.192
33921SOL     OW 3659  13.587   0.271   6.444
33921SOL    HW1 3660  13.646   0.290   6.517
33921SOL    HW2 3661  13.501   0.258   6.485
33922SOL     OW 3662  12.755  10.280   4.553
33922SOL    HW1 3663  12.760  10.345   4.623
33922SOL    HW2 3664  12.755  10.331   4.472
33923SOL     OW 3665   5.214   2.458   0.997
33923SOL    HW1 3666   5.217   2.530   1.060
33923SOL    HW2 3667   5.267   2.389   1.036
33924SOL     OW 3668  12.377  13.825   0.243
33924SOL    HW1 3669  12.398  13.822   0.150
33924SOL    HW2 3670  12.440  13.766   0.285
33925SOL     OW 3671   1.168  12.570   7.367
33925SOL    HW1 3672   1.121  12.490   7.390
33925SOL    HW2 3673   1.190  12.610   7.451
33926SOL     OW 3674  11.038   8.489  11.569
33926SOL    HW1 3675  11.011   8.539  11.493
33926SOL    HW2 3676  11.062   8.403  11.534
33927SOL     OW 3677  11.735  12.455  10.354
33927SOL    HW1 3678  11.792  12.489  10.285
33927SOL    HW2 3679  11.770  12.368  10.374
33928SOL     OW 3680  11.906   4.642  10.835
33928SOL    HW1 3681  11.871   4.716  10.884
33928SOL    HW2 3682  11.954   4.590  10.899
33929SOL     OW 3683  14.124   6.621  12.376
33929SOL    HW1 3684  14.141   6.546  12.319
33929SOL    HW2 3685  14.086   6.687  12.319
33930SOL     OW 3686   2.548   3.906   1.322
33930SOL    HW1 3687   2.576   3.996   1.303
33930SOL    HW2 3688   2.481   3.916   1.389
33931SOL     OW 3689   9.231  11.547  14.712
33931SOL    HW1 3690   9.241  11.641  14.700
33931SOL    HW2 3691   9.183  11.538  14.795
33932SOL     OW 3692   8.104   9.059   4.760
33932SOL    HW1 3693   8.129   8.998   4.830
33932SOL    HW2 3694   8.175   9.123   4.758
33933SOL     OW 3695   7.618   0.508   5.614
33933SOL    HW1 3696   7.562   0.582   5.636
33933SOL    HW2 3697   7.576   0.432   5.654
33934SOL     OW 3698  12.574  10.489   9.050
33934SOL    HW1 3699  12.572  10.519   8.959
33934SOL    HW2 3700  12.482  10.480   9.074
33935SOL     OW 3701  11.851   3.523   6.156
33935SOL    HW1 3702  11.763   3.559   6.142
33935SOL    HW2 3703  11.870   3.473   6.076
33936SOL     OW 3704   5.104  10.502  10.818
33936SOL    HW1 3705   5.031  10.467  10.767
33936SOL    HW2 3706   5.142  10.426  10.862
33937SOL     OW 3707   2.328   2.599   1.832
33937SOL    HW1 3708   2.291   2.616   1.746
33937SOL    HW2 3709   2.419   2.573   1.815
33938SOL     OW 3710   7.887   6.647  11.928
33938SOL    HW1 3711   7.792   6.661  11.930
33938SOL    HW2 3712   7.916   6.688  11.847
33939SOL     OW 3713  10.299   3.273   4.175
33939SOL    HW1 3714  10.207   3.297   4.166
33939SOL    HW2 3715  10.320   3.296   4.266
33940SOL     OW 3716   6.729   7.743   0.277
33940SOL    HW1 3717   6.678   7.693   0.340
33940SOL    HW2 3718   6.817   7.746   0.315
33941SOL     OW 3719   8.775   4.156   4.179
33941SOL    HW1 3720   8.766   4.079   4.235
33941SOL    HW2 3721   8.765   4.230   4.238
33942SOL     OW 3722   6.047   1.019   4.853
33942SOL    HW1 3723   6.096   0.962   4.793
33942SOL    HW2 3724   5.957   1.014   4.824
33943SOL     OW 3725  10.210   9.642  12.808
33943SOL    HW1 3726  10.203   9.736  12.795
33943SOL    HW2 3727  10.283   9.632  12.869
33944SOL     OW 3728   2.103  12.619  12.429
33944SOL    HW1 3729   2.139  12.605  12.341
33944SOL    HW2 3730   2.069  12.534  12.455
33945SOL     OW 3731  12.278  11.368   5.487
33945SOL    HW1 3732  12.362  11.324   5.498
33945SOL    HW2 3733  12.214  11.307   5.524
33946SOL     OW 3734   5.696  11.432   4.404
33946SOL    HW1 3735   5.658  11.349   4.432
33946SOL    HW2 3736   5.780  11.437   4.450
33947SOL     OW 3737   8.518  12.818   6.287
33947SOL    HW1 3738   8.523  12.742   6.228
33947SOL    HW2 3739   8.544  12.784   6.372
33948SOL     OW 3740   7.888   8.194   5.722
33948SOL    HW1 3741   7.816   8.142   5.685
33948SOL    HW2 3742   7.870   8.198   5.816
33949SOL     OW 3743  13.525   8.566   0.572
33949SOL    HW1 3744  13.584   8.505   0.617
33949SOL    HW2 3745  13.450   8.513   0.546
33950SOL     OW 3746   1.592   3.367   0.565
33950SOL    HW1 3747   1.572   3.317   0.486
33950SOL    HW2 3748   1.538   3.326   0.633
33951SOL     OW 3749   4.569   4.846  11.973
33951SOL    HW1 3750   4.649   4.831  11.923
33951SOL    HW2 3751   4.599   4.888  12.054
33952SOL     OW 3752   2.358  11.555   6.808
33952SOL    HW1 3753   2.263  11.563   6.802
33952SOL    HW2 3754   2.391  11.612   6.739
33953SOL     OW 3755   7.360   4.442   2.535
33953SOL    HW1 3756   7.409   4.414   2.457
33953SOL    HW2 3757   7.309   4.518   2.505
33954SOL     OW 3758   9.878   9.835   0.238
33954SOL    HW1 3759   9.811   9.767   0.234
33954SOL    HW2 3760   9.837   9.912   0.197
33955SOL     OW 3761  14.351   2.336   3.110
33955SOL    HW1 3762  14.339   2.430   3.125
33955SOL    HW2 3763  14.311   2.320   3.025
33956SOL     OW 3764   9.445  11.074   2.003
33956SOL    HW1 3765   9.509  11.005   1.985
33956SOL    HW2 3766   9.416  11.103   1.917
33957SOL     OW 3767   8.749  13.811   9.942
33957SOL    HW1 3768   8.712  13.733   9.985
33957SOL    HW2 3769   8.706  13.815   9.857
33958SOL     OW 3770   1.058  12.486   6.130
33958SOL    HW1 3771   1.013  12.475   6.213
33958SOL    HW2 3772   1.051  12.579   6.110
33959SOL     OW 3773  10.291   4.627  11.939
33959SOL    HW1 3774  10.321   4.596  11.854
33959SOL    HW2 3775  10.236   4.556  11.972
33960SOL     OW 3776  13.004   9.050   6.901
33960SOL    HW1 3777  13.047   8.982   6.954
33960SOL    HW2 3778  12.913   9.049   6.932
33961SOL     OW 3779  14.512  13.022   0.368
33961SOL    HW1 3780  14.588  13.079   0.379
33961SOL    HW2 3781  14.461  13.034   0.448
33962SOL     OW 3782   8.379   4.852  12.340
33962SOL    HW1 3783   8.445   4.783  12.345
33962SOL    HW2 3784   8.412   4.921  12.397
33963SOL     OW 3785  12.218  11.602   0.318
33963SOL    HW1 3786  12.192  11.602   0.225
33963SOL    HW2 3787  12.240  11.694   0.336
33964SOL     OW 3788   8.203   5.303   0.817
33964SOL    HW1 3789   8.214   5.214   0.850
33964SOL    HW2 3790   8.240   5.358   0.886
33965SOL     OW 3791  14.103  11.312   9.960
33965SOL    HW1 3792  14.021  11.334  10.005
33965SOL    HW2 3793  14.162  11.383   9.985
33966SOL     OW 3794   2.772   2.494   4.632
33966SOL    HW1 3795   2.790   2.579   4.592
33966SOL    HW2 3796   2.677   2.491   4.639
33967SOL     OW 3797  14.717   4.208   9.361
33967SOL    HW1 3798  14.812   4.199   9.365
33967SOL    HW2 3799  14.694   4.174   9.275
33968SOL     OW 3800  10.884   7.457  13.772
33968SOL    HW1 3801  10.796   7.494  13.775
33968SOL    HW2 3802  10.938   7.527  13.734
33969SOL     OW 3803  12.619   8.597  10.179
33969SOL    HW1 3804  12.612   8.645  10.097
33969SOL    HW2 3805  12.593   8.507  10.157
33970SOL     OW 3806  13.982   2.733  12.948
33970SOL    HW1 3807  13.923   2.675  12.997
33970SOL    HW2 3808  14.023   2.676  12.883
33971SOL     OW 3809   3.215   4.926   4.274
33971SOL    HW1 3810   3.120   4.913   4.270
33971SOL    HW2 3811   3.252   4.838   4.278
33972SOL     OW 3812  12.040   9.537  14.661
33972SOL    HW1 3813  12.032   9.534  14.757
33972SOL    HW2 3814  11.956   9.572  14.631
33973SOL     OW 3815   7.316  13.519  12.752
33973SOL    HW1 3816   7.268  13.454  12.700
33973SOL    HW2 3817   7.256  13.593  12.758
33974SOL     OW 3818  12.987   6.161  13.972
33974SOL    HW1 3819  12.971   6.097  14.041
33974SOL    HW2 3820  13.020   6.238  14.018
33975SOL     OW 3821   3.654   0.094   1.722
33975SOL    HW1 3822   3.700   0.018   1.757
33975SOL    HW2 3823   3.723   0.155   1.696
33976SOL     OW 3824  13.784   6.812   4.157
33976SOL    HW1 3825  13.758   6.772   4.240
33976SOL    HW2 3826  13.870   6.851   4.176
33977SOL     OW 3827   9.589   9.057   6.032
33977SOL    HW1 3828   9.546   8.985   6.078
33977SOL    HW2 3829   9.637   9.104   6.100
33978SOL     OW 3830   6.393   8.317   1.254
33978SOL    HW1 3831   6.431   8.281   1.334
33978SOL    HW2 3832   6.315   8.364   1.283
33979SOL     OW 3833  10.880   6.854   8.867
33979SOL    HW1 3834  10.960   6.866   8.816
33979SOL    HW2 3835  10.885   6.921   8.936
33980SOL     OW 3836   8.042  13.675   8.615
33980SOL    HW1 3837   8.126  13.628   8.612
33980SOL    HW2 3838   8.060  13.760   8.576
33981SOL     OW 3839   3.768   5.587   9.185
33981SOL    HW1 3840   3.760   5.674   9.146
33981SOL    HW2 3841   3.749   5.600   9.278
33982SOL     OW 3842   2.601   7.203   5.131
33982SOL    HW1 3843   2.559   7.208   5.218
33982SOL    HW2 3844   2.590   7.290   5.094
33983SOL     OW 3845  10.222  10.968   1.366
33983SOL    HW1 3846  10.167  11.039   1.399
33983SOL    HW2 3847  10.239  10.992   1.274
33984SOL     OW 3848  14.650   9.207   6.747
33984SOL    HW1 3849  14.572   9.210   6.691
33984SOL    HW2 3850  14.723   9.205   6.685
33985SOL     OW 3851   6.131   8.057   2.726
33985SOL    HW1 3852   6.093   7.982   2.680
33985SOL    HW2 3853   6.224   8.035   2.736
33986SOL     OW 3854   7.918   4.715  12.942
33986SOL    HW1 3855   7.973   4.787  12.910
33986SOL    HW2 3856   7.967   4.636  12.919
33987SOL     OW 3857   2.638   4.303  12.454
33987SOL    HW1 3858   2.551   4.342  12.446
33987SOL    HW2 3859   2.698   4.371  12.421
33988SOL     OW 3860  14.600  14.233   7.201
33988SOL    HW1 3861  14.567  14.293   7.135
33988SOL    HW2 3862  14.602  14.285   7.282
33989SOL     OW 3863  11.096   3.980  13.298
33989SOL    HW1 3864  11.045   3.932  13.232
33989SOL    HW2 3865  11.184   3.987  13.261
33990SOL     OW 3866   8.689   1.298  11.501
33990SOL    HW1 3867   8.721   1.236  11.436
33990SOL    HW2 3868   8.745   1.285  11.577
33991SOL     OW 3869   6.269   0.705   2.423
33991SOL    HW1 3870   6.186   0.746   2.402
33991SOL    HW2 3871   6.336   0.767   2.393
33992SOL     OW 3872   2.572   1.769   5.129
33992SOL    HW1 3873   2.666   1.767   5.150
33992SOL    HW2 3874   2.543   1.856   5.154
33993SOL     OW 3875   3.277  14.574   4.416
33993SOL    HW1 3876   3.211  14.593   4.482
33993SOL    HW2 3877   3.236  14.508   4.359
33994SOL     OW 3878  11.052   8.024   6.159
33994SOL    HW1 3879  11.112   7.959   6.122
33994SOL    HW2 3880  11.106   8.077   6.217
33995SOL     OW 3881   8.923  12.797   3.898
33995SOL    HW1 3882   8.872  12.742   3.839
33995SOL    HW2 3883   8.961  12.865   3.842
33996SOL     OW 3884  13.732   9.008   4.600
33996SOL    HW1 3885  13.824   8.989   4.582
33996SOL    HW2 3886  13.686   8.930   4.570
33997SOL     OW 3887   8.618   6.880  10.978
33997SOL    HW1 3888   8.631   6.974  10.990
33997SOL    HW2 3889   8.552   6.856  11.043
33998SOL     OW 3890   6.639  11.482   8.604
33998SOL    HW1 3891   6.667  11.398   8.569
33998SOL    HW2 3892   6.695  11.546   8.560
33999SOL     OW 3893  10.149  14.209   4.288
33999SOL    HW1 3894  10.237  14.242   4.304
33999SOL    HW2 3895  10.095  14.288   4.281
34000SOL     OW 3896  14.816   8.867   3.125
34000SOL    HW1 3897  14.816   8.864   3.029
34000SOL    HW2 3898   0.025   8.857   3.149
34001SOL     OW 3899   6.359   0.552   3.886
34001SOL    HW1 3900   6.338   0.485   3.820
34001SOL    HW2 3901   6.454   0.545   3.898
34002SOL     OW 3902  14.182  13.967   0.250
34002SOL    HW1 3903  14.207  14.031   0.184
34002SOL    HW2 3904  14.158  14.020   0.326
34003SOL     OW 3905   2.173   4.110   0.582
34003SOL    HW1 3906   2.098   4.057   0.557
34003SOL    HW2 3907   2.137   4.181   0.634
34004SOL     OW 3908   7.019  13.276   4.158
34004SOL    HW1 3909   6.961  13.346   4.128
34004SOL    HW2 3910   7.100  13.290   4.109
34005SOL     OW 3911   7.480   6.051   8.707
34005SOL    HW1 3912   7.455   6.013   8.622
34005SOL    HW2 3913   7.397   6.063   8.753
34006SOL     OW 3914   3.007  12.954  12.617
34006SOL    HW1 3915   2.973  12.871  12.583
34006SOL    HW2 3916   3.088  12.969  12.568
34007SOL     OW 3917  10.459   7.182   3.216
34007SOL    HW1 3918  10.542   7.170   3.168
34007SOL    HW2 3919  10.399   7.217   3.150
34008SOL     OW 3920  13.717   0.639   1.052
34008SOL    HW1 3921  13.796   0.587   1.044
34008SOL    HW2 3922  13.745   0.728   1.033
34009SOL     OW 3923  12.091   6.361   9.292
34009SOL    HW1 3924  12.010   6.365   9.241
34009SOL    HW2 3925  12.101   6.268   9.314
34010SOL     OW 3926   0.438  11.829   0.977
34010SOL    HW1 3927   0.449  11.851   0.884
34010SOL    HW2 3928   0.406  11.739   0.976
34011SOL     OW 3929   4.366   6.393   8.934
34011SOL    HW1 3930   4.335   6.330   8.869
34011SOL    HW2 3931   4.350   6.479   8.895
34012SOL     OW 3932   0.757   7.333   6.725
34012SOL    HW1 3933   0.733   7.300   6.812
34012SOL    HW2 3934   0.674   7.362   6.687
34013SOL     OW 3935   0.024   3.204   6.220
34013SOL    HW1 3936  14.845   3.147   6.267
34013SOL    HW2 3937   0.061   3.148   6.151
34014SOL     OW 3938   8.929  10.843  10.059
34014SOL    HW1 3939   8.891  10.760  10.089
34014SOL    HW2 3940   8.918  10.902  10.134
34015SOL     OW 3941   7.081   1.851   0.363
34015SOL    HW1 3942   7.152   1.904   0.327
34015SOL    HW2 3943   7.096   1.763   0.330
34016SOL     OW 3944  11.003   8.509   8.510
34016SOL    HW1 3945  11.015   8.422   8.548
34016SOL    HW2 3946  11.064   8.512   8.437
34017SOL     OW 3947   9.452   5.147  13.286
34017SOL    HW1 3948   9.367   5.187  13.269
34017SOL    HW2 3949   9.512   5.221  13.296
34018SOL     OW 3950  11.299   5.902   0.022
34018SOL    HW1 3951  11.248   5.847  14.844
34018SOL    HW2 3952  11.324   5.843   0.092
34019SOL     OW 3953  11.550   6.825  12.571
34019SOL    HW1 3954  11.632   6.775  12.573
34019SOL    HW2 3955  11.494   6.776  12.511
34020SOL     OW 3956   3.902   8.404   6.627
34020SOL    HW1 3957   3.845   8.437   6.557
34020SOL    HW2 3958   3.986   8.446   6.611
34021SOL     OW 3959   3.543   0.684  11.519
34021SOL    HW1 3960   3.496   0.656  11.441
34021SOL    HW2 3961   3.475   0.713  11.579
34022SOL     OW 3962   7.234  10.937  13.713
34022SOL    HW1 3963   7.322  10.902  13.719
34022SOL    HW2 3964   7.201  10.904  13.629
34023SOL     OW 3965  11.839  14.759   9.884
34023SOL    HW1 3966  11.799  14.795   9.804
34023SOL    HW2 3967  11.922  14.806   9.892
34024SOL     OW 3968   9.762   9.847   3.176
34024SOL    HW1 3969   9.676   9.848   3.219
34024SOL    HW2 3970   9.825   9.855   3.248
34025SOL     OW 3971   5.971   6.432   1.301
34025SOL    HW1 3972   5.928   6.353   1.333
34025SOL    HW2 3973   5.902   6.481   1.256
34026SOL     OW 3974   3.052   3.618  11.049
34026SOL    HW1 3975   3.038   3.549  11.114
34026SOL    HW2 3976   3.112   3.579  10.985
34027SOL     OW 3977   2.059   3.004  13.657
34027SOL    HW1 3978   1.973   3.025  13.693
34027SOL    HW2 3979   2.042   2.933  13.595
34028SOL     OW 3980   9.011   2.553  13.668
34028SOL    HW1 3981   9.101   2.553  13.699
34028SOL    HW2 3982   8.958   2.555  13.747
34029SOL     OW 3983   8.396   4.470   8.424
34029SOL    HW1 3984   8.351   4.513   8.496
34029SOL    HW2 3985   8.351   4.500   8.345
34030SOL     OW 3986   4.345   7.822   4.602
34030SOL    HW1 3987   4.286   7.796   4.531
34030SOL    HW2 3988   4.384   7.904   4.572
34031SOL     OW 3989  10.358  14.854   9.286
34031SOL    HW1 3990  10.443  14.828   9.250
34031SOL    HW2 3991  10.299  14.853   9.211
34032SOL     OW 3992  12.474  12.117  12.947
34032SOL    HW1 3993  12.502  12.074  13.028
34032SOL    HW2 3994  12.436  12.201  12.977
34033SOL     OW 3995   8.395  13.159   0.254
34033SOL    HW1 3996   8.375  13.070   0.224
34033SOL    HW2 3997   8.488  13.156   0.277
34034SOL     OW 3998   0.978  14.678  14.374
34034SOL    HW1 3999   0.906  14.730  14.410
34034SOL    HW2 4000   0.965  14.590  14.409
34035SOL     OW 4001  10.587   2.140   1.525
34035SOL    HW1 4002  10.537   2.168   1.448
34035SOL    HW2 4003  10.634   2.062   1.496
34036SOL     OW 4004   8.385   0.824   5.136
34036SOL    HW1 4005   8.302   0.852   5.098
34036SOL    HW2 4006   8.362   0.749   5.191
34037SOL     OW 4007  14.287   3.678   2.360
34037SOL    HW1 4008  14.249   3.760   2.391
34037SOL    HW2 4009  14.261   3.673   2.268
34038SOL     OW 4010  13.563   8.050   1.376
34038SOL    HW1 4011  13.532   7.974   1.425
34038SOL    HW2 4012  13.584   8.015   1.289
34039SOL     OW 4013  13.457   4.646  13.891
34039SOL    HW1 4014  13.521   4.665  13.960
34039SOL    HW2 4015  13.389   4.594  13.935
34040SOL     OW 4016  14.563   1.848  12.802
34040SOL    HW1 4017  14.517   1.927  12.830
34040SOL    HW2 4018  14.494   1.788  12.773
34041SOL     OW 4019   3.191   2.970   5.003
34041SOL    HW1 4020   3.196   3.063   5.023
34041SOL    HW2 4021   3.202   2.965   4.908
34042SOL     OW 4022   4.233   9.959   9.344
34042SOL    HW1 4023   4.294   9.888   9.324
34042SOL    HW2 4024   4.204   9.991   9.258
34043SOL     OW 4025   7.121  13.714   4.835
34043SOL    HW1 4026   7.102  13.764   4.915
34043SOL    HW2 4027   7.097  13.624   4.857
34044SOL     OW 4028   9.838  14.750   0.777
34044SOL    HW1 4029   9.900  14.760   0.705
34044SOL    HW2 4030   9.889  14.712   0.848
34045SOL     OW 4031  13.895   5.059  10.423
34045SOL    HW1 4032  13.947   5.012  10.358
34045SOL    HW2 4033  13.929   5.148  10.422
34046SOL     OW 4034  13.539   9.816  13.670
34046SOL    HW1 4035  13.583   9.746  13.621
34046SOL    HW2 4036  13.509   9.774  13.750
34047SOL     OW 4037   0.162  14.605  14.818
34047SOL    HW1 4038   0.166  14.683  14.764
34047SOL    HW2 4039   0.070  14.578  14.814
34048SOL     OW 4040  12.529  12.669   9.033
34048SOL    HW1 4041  12.549  12.763   9.033
34048SOL    HW2 4042  12.513  12.649   8.941
34049SOL     OW 4043   1.546   9.653   4.835
34049SOL    HW1 4044   1.549   9.563   4.800
34049SOL    HW2 4045   1.563   9.643   4.928
34050SOL     OW 4046   3.287   7.239   5.865
34050SOL    HW1 4047   3.342   7.263   5.791
34050SOL    HW2 4048   3.246   7.321   5.892
34051SOL     OW 4049   1.277  12.957   7.496
34051SOL    HW1 4050   1.243  13.045   7.480
34051SOL    HW2 4051   1.210  12.914   7.549
34052SOL     OW 4052   0.099  13.605   3.490
34052SOL    HW1 4053   0.071  13.678   3.545
34052SOL    HW2 4054   0.191  13.592   3.512
34053SOL     OW 4055  12.132  13.326   7.789
34053SOL    HW1 4056  12.146  13.234   7.770
34053SOL    HW2 4057  12.216  13.357   7.822
34054SOL     OW 4058   5.460   3.516   8.071
34054SOL    HW1 4059   5.445   3.437   8.123
34054SOL    HW2 4060   5.427   3.587   8.126
34055SOL     OW 4061  14.191   0.762  11.275
34055SOL    HW1 4062  14.174   0.670  11.254
34055SOL    HW2 4063  14.145   0.777  11.357
34056SOL     OW 4064   3.659   9.167  14.472
34056SOL    HW1 4065   3.724   9.231  14.502
34056SOL    HW2 4066   3.664   9.095  14.535
34057SOL     OW 4067  14.229   2.226  14.454
34057SOL    HW1 4068  14.262   2.252  14.540
34057SOL    HW2 4069  14.175   2.148  14.472
34058SOL     OW 4070   8.481   6.437   1.481
34058SOL    HW1 4071   8.530   6.378   1.424
34058SOL    HW2 4072   8.402   6.458   1.432
34059SOL     OW 4073   2.455   6.652   0.471
34059SOL    HW1 4074   2.421   6.716   0.409
34059SOL    HW2 4075   2.486   6.704   0.545
34060SOL     OW 4076  14.361   8.153  14.691
34060SOL    HW1 4077  14.316   8.076  14.656
34060SOL    HW2 4078  14.290   8.212  14.717
34061SOL     OW 4079   7.841   4.426  13.608
34061SOL    HW1 4080   7.800   4.510  13.589
34061SOL    HW2 4081   7.890   4.442  13.689
34062SOL     OW 4082   9.307   5.185   7.915
34062SOL    HW1 4083   9.276   5.147   7.833
34062SOL    HW2 4084   9.256   5.141   7.983
34063SOL     OW 4085  11.186   8.072  12.098
34063SOL    HW1 4086  11.223   8.042  12.180
34063SOL    HW2 4087  11.200   7.999  12.037
34064SOL     OW 4088  10.404   5.005   4.016
34064SOL    HW1 4089  10.463   4.944   3.972
34064SOL    HW2 4090  10.375   5.064   3.947
34065SOL     OW 4091  14.099  10.805   1.951
34065SOL    HW1 4092  14.180  10.757   1.936
34065SOL    HW2 4093  14.048  10.790   1.871
34066SOL     OW 4094   9.596   9.954   0.254
34066SOL    HW1 4095   9.619  10.017   0.322
34066SOL    HW2 4096   9.517   9.991   0.214
34067SOL     OW 4097  10.823  11.371   8.029
34067SOL    HW1 4098  10.891  11.312   8.060
34067SOL    HW2 4099  10.791  11.415   8.108
34068SOL     OW 4100   5.936   1.886   5.925
34068SOL    HW1 4101   5.883   1.850   5.853
34068SOL    HW2 4102   5.889   1.858   6.004
34069SOL     OW 4103  10.877   7.635   1.272
34069SOL    HW1 4104  10.854   7.553   1.315
34069SOL    HW2 4105  10.800   7.691   1.284
34070SOL     OW 4106   5.556   6.921   6.534
34070SOL    HW1 4107   5.513   6.948   6.614
34070SOL    HW2 4108   5.622   6.988   6.517
34071SOL     OW 4109   6.961   3.792   6.219
34071SOL    HW1 4110   6.981   3.708   6.177
34071SOL    HW2 4111   6.994   3.858   6.158
34072SOL     OW 4112  12.812   6.455   8.264
34072SOL    HW1 4113  12.727   6.417   8.286
34072SOL    HW2 4114  12.868   6.380   8.243
34073SOL     OW 4115   5.514   7.292  13.956
34073SOL    HW1 4116   5.584   7.258  13.899
34073SOL    HW2 4117   5.448   7.325  13.895
34074SOL     OW 4118   9.298   1.020   7.229
34074SOL    HW1 4119   9.294   1.056   7.317
34074SOL    HW2 4120   9.388   0.988   7.220
34075SOL     OW 4121  13.282  11.781   1.286
34075SOL    HW1 4122  13.203  11.811   1.331
34075SOL    HW2 4123  13.273  11.814   1.197
34076SOL     OW 4124   5.075   4.866   0.437
34076SOL    HW1 4125   5.039   4.904   0.357
34076SOL    HW2 4126   5.131   4.795   0.406
34077SOL     OW 4127  10.372   0.579   1.066
34077SOL    HW1 4128  10.321   0.515   1.116
34077SOL    HW2 4129  10.307   0.630   1.018
34078SOL     OW 4130   1.618   8.937   7.952
34078SOL    HW1 4131   1.557   8.890   8.008
34078SOL    HW2 4132   1.649   9.010   8.006
34079SOL     OW 4133  10.633   4.055   2.532
34079SOL    HW1 4134  10.568   4.125   2.538
34079SOL    HW2 4135  10.711   4.090   2.575
34080SOL     OW 4136  12.420   7.169  13.087
34080SOL    HW1 4137  12.357   7.236  13.114
34080SOL    HW2 4138  12.483   7.216  13.033
34081SOL     OW 4139   0.236  10.294   2.194
34081SOL    HW1 4140   0.218  10.380   2.156
34081SOL    HW2 4141   0.233  10.233   2.121
34082SOL     OW 4142   9.948   2.415  14.350
34082SOL    HW1 4143   9.866   2.452  14.318
34082SOL    HW2 4144   9.977   2.475  14.419
34083SOL     OW 4145  11.950   7.799   6.052
34083SOL    HW1 4146  11.864   7.835   6.031
34083SOL    HW2 4147  11.932   7.720   6.104
34084SOL     OW 4148   4.065   4.743   1.961
34084SOL    HW1 4149   4.143   4.792   1.986
34084SOL    HW2 4150   4.049   4.684   2.034
34085SOL     OW 4151  10.628  12.054   2.120
34085SOL    HW1 4152  10.550  12.003   2.142
34085SOL    HW2 4153  10.655  12.094   2.203
34086SOL     OW 4154   7.126   7.838   8.346
34086SOL    HW1 4155   7.054   7.850   8.408
34086SOL    HW2 4156   7.105   7.897   8.274
34087SOL     OW 4157   4.261   2.716   7.870
34087SOL    HW1 4158   4.355   2.705   7.855
34087SOL    HW2 4159   4.221   2.677   7.793
34088SOL     OW 4160  12.194  12.614  10.732
34088SOL    HW1 4161  12.275  12.568  10.751
34088SOL    HW2 4162  12.185  12.610  10.637
34089SOL     OW 4163   8.756   9.955   3.731
34089SOL    HW1 4164   8.830  10.008   3.700
34089SOL    HW2 4165   8.788   9.865   3.729
34090SOL     OW 4166  14.474  12.308   5.087
34090SOL    HW1 4167  14.555  12.353   5.113
34090SOL    HW2 4168  14.412  12.329   5.156
34091SOL     OW 4169   4.455   8.459   2.713
34091SOL    HW1 4170   4.475   8.371   2.681
34091SOL    HW2 4171   4.457   8.514   2.635
34092SOL     OW 4172  11.412   4.312   0.136
34092SOL    HW1 4173  11.442   4.227   0.167
34092SOL    HW2 4174  11.427   4.309   0.041
34093SOL     OW 4175  10.441   7.821   4.595
34093SOL    HW1 4176  10.434   7.883   4.667
34093SOL    HW2 4177  10.500   7.753   4.628
34094SOL     OW 4178  11.331  13.892  14.251
34094SOL    HW1 4179  11.340  13.956  14.180
34094SOL    HW2 4180  11.272  13.825  14.215
34095SOL     OW 4181   0.691   0.395   5.247
34095SOL    HW1 4182   0.713   0.468   5.189
34095SOL    HW2 4183   0.767   0.386   5.304
34096SOL     OW 4184  12.459   5.930   8.324
34096SOL    HW1 4185  12.477   5.869   8.396
34096SOL    HW2 4186  12.544   5.966   8.301
34097SOL     OW 4187   9.345  11.175   2.588
34097SOL    HW1 4188   9.328  11.190   2.495
34097SOL    HW2 4189   9.342  11.262   2.628
34098SOL     OW 4190   5.325   3.791   5.210
34098SOL    HW1 4191   5.293   3.881   5.214
34098SOL    HW2 4192   5.322   3.770   5.116
34099SOL     OW 4193   9.373   0.932   7.568
34099SOL    HW1 4194   9.408   0.875   7.499
34099SOL    HW2 4195   9.426   0.911   7.645
34100SOL     OW 4196   9.311  10.468   2.022
34100SOL    HW1 4197   9.362  10.515   1.955
34100SOL    HW2 4198   9.361  10.481   2.103
34101SOL     OW 4199   5.448   1.078   7.328
34101SOL    HW1 4200   5.520   1.138   7.309
34101SOL    HW2 4201   5.373   1.115   7.282
34102SOL     OW 4202   8.723   8.556  10.585
34102SOL    HW1 4203   8.686   8.489  10.527
34102SOL    HW2 4204   8.694   8.639  10.547
34103SOL     OW 4205   9.851   1.364  14.641
34103SOL    HW1 4206   9.875   1.358  14.549
34103SOL    HW2 4207   9.833   1.273  14.667
34104SOL     OW 4208   6.659   5.240   5.247
34104SOL    HW1 4209   6.718   5.165   5.247
34104SOL    HW2 4210   6.715   5.314   5.221
34105SOL     OW 4211  14.720   6.521  14.058
34105SOL    HW1 4212  14.731   6.488  14.148
34105SOL    HW2 4213  14.748   6.448  14.003
34106SOL     OW 4214   7.154   4.374   0.444
34106SOL    HW1 4215   7.232   4.404   0.489
34106SOL    HW2 4216   7.186   4.310   0.380
34107SOL     OW 4217   1.138  10.298   3.180
34107SOL    HW1 4218   1.099  10.214   3.155
34107SOL    HW2 4219   1.067  10.361   3.175
34108SOL     OW 4220   0.865   8.402   0.186
34108SOL    HW1 4221   0.867   8.343   0.111
34108SOL    HW2 4222   0.893   8.487   0.152
34109SOL     OW 4223   7.571  13.660   7.284
34109SOL    HW1 4224   7.663  13.675   7.305
34109SOL    HW2 4225   7.550  13.576   7.324
34110SOL     OW 4226  11.914   4.334   8.224
34110SOL    HW1 4227  11.909   4.241   8.202
34110SOL    HW2 4228  11.832   4.354   8.268
34111SOL     OW 4229   0.070   5.250  11.367
34111SOL    HW1 4230  14.868   5.295  11.364
34111SOL    HW2 4231   0.132   5.316  11.396
34112SOL     OW 4232  10.848   2.469  10.594
34112SOL    HW1 4233  10.802   2.385  10.600
34112SOL    HW2 4234  10.909   2.469  10.667
34113SOL     OW 4235  13.357   3.321   1.824
34113SOL    HW1 4236  13.265   3.309   1.799
34113SOL    HW2 4237  13.404   3.325   1.740
34114SOL     OW 4238  10.588   5.726   0.177
34114SOL    HW1 4239  10.578   5.762   0.265
34114SOL    HW2 4240  10.635   5.794   0.128
34115SOL     OW 4241   0.176   8.721  11.981
34115SOL    HW1 4242   0.204   8.772  12.057
34115SOL    HW2 4243   0.244   8.737  11.916
34116SOL     OW 4244   9.192   7.644   9.203
34116SOL    HW1 4245   9.272   7.624   9.155
34116SOL    HW2 4246   9.221   7.661   9.293
34117SOL     OW 4247  11.409  12.563   1.628
34117SOL    HW1 4248  11.329  12.511   1.638
34117SOL    HW2 4249  11.391  12.644   1.675
34118SOL     OW 4250   0.109   7.909  12.805
34118SOL    HW1 4251   0.115   7.990  12.753
34118SOL    HW2 4252   0.051   7.853  12.754
34119SOL     OW 4253   3.761  10.641   0.953
34119SOL    HW1 4254   3.855  10.654   0.943
34119SOL    HW2 4255   3.730  10.721   0.994
34120SOL     OW 4256   3.723   9.528   9.340
34120SOL    HW1 4257   3.664   9.594   9.303
34120SOL    HW2 4258   3.681   9.445   9.318
34121SOL     OW 4259   3.642   7.076   5.111
34121SOL    HW1 4260   3.652   7.023   5.191
34121SOL    HW2 4261   3.727   7.069   5.068
34122SOL     OW 4262   0.490  14.048  14.312
34122SOL    HW1 4263   0.427  14.111  14.347
34122SOL    HW2 4264   0.560  14.102  14.275
34123SOL     OW 4265  14.809   6.086   7.090
34123SOL    HW1 4266  14.719   6.074   7.121
34123SOL    HW2 4267  14.835   5.999   7.060
34124SOL     OW 4268   4.536  11.721   2.795
34124SOL    HW1 4269   4.450  11.746   2.761
34124SOL    HW2 4270   4.551  11.633   2.760
34125SOL     OW 4271  14.048   1.389   3.265
34125SOL    HW1 4272  14.077   1.435   3.187
34125SOL    HW2 4273  14.016   1.458   3.323
34126SOL     OW 4274  11.979   2.098  13.361
34126SOL    HW1 4275  11.897   2.107  13.312
34126SOL    HW2 4276  12.011   2.187  13.371
34127SOL     OW 4277   5.924   5.852   3.781
34127SOL    HW1 4278   6.011   5.889   3.768
34127SOL    HW2 4279   5.901   5.813   3.697
34128SOL     OW 4280   5.322   6.187   3.925
34128SOL    HW1 4281   5.373   6.205   3.846
34128SOL    HW2 4282   5.364   6.239   3.994
34129SOL     OW 4283   9.390   0.771  10.770
34129SOL    HW1 4284   9.459   0.716  10.809
34129SOL    HW2 4285   9.434   0.854  10.753
34130SOL     OW 4286  14.085   9.917  11.313
34130SOL    HW1 4287  14.159   9.965  11.276
34130SOL    HW2 4288  14.056   9.970  11.387
34131SOL     OW 4289   9.398   6.547   4.010
34131SOL    HW1 4290   9.338   6.622   4.002
34131SOL    HW2 4291   9.403   6.511   3.922
34132SOL     OW 4292  11.415  10.779  12.772
34132SOL    HW1 4293  11.445  10.693  12.803
34132SOL    HW2 4294  11.479  10.841  12.806
34133SOL     OW 4295   1.141   4.776  10.120
34133SOL    HW1 4296   1.067   4.719  10.138
34133SOL    HW2 4297   1.206   4.754  10.187
34134SOL     OW 4298  11.385  10.021  14.130
34134SOL    HW1 4299  11.427  10.104  14.107
34134SOL    HW2 4300  11.456   9.957  14.129
34135SOL     OW 4301  13.511  14.386   3.720
34135SOL    HW1 4302  13.551  14.339   3.794
34135SOL    HW2 4303  13.504  14.321   3.651
34136SOL     OW 4304   5.373  14.612   5.827
34136SOL    HW1 4305   5.329  14.652   5.752
34136SOL    HW2 4306   5.388  14.521   5.801
34137SOL     OW 4307   1.950   1.925   9.914
34137SOL    HW1 4308   1.867   1.972   9.925
34137SOL    HW2 4309   1.950   1.898   9.823
34138SOL     OW 4310  10.220   7.269   4.225
34138SOL    HW1 4311  10.163   7.193   4.233
34138SOL    HW2 4312  10.211   7.296   4.134
34139SOL     OW 4313   3.147   5.522   0.005
34139SOL    HW1 4314   3.089   5.460  14.843
34139SOL    HW2 4315   3.229   5.517  14.837
34140SOL     OW 4316   3.861   0.745   8.541
34140SOL    HW1 4317   3.879   0.658   8.505
34140SOL    HW2 4318   3.799   0.729   8.613
34141SOL     OW 4319  11.950  14.558   7.342
34141SOL    HW1 4320  11.928  14.601   7.425
34141SOL    HW2 4321  11.989  14.474   7.369
34142SOL     OW 4322   2.111   0.763   7.470
34142SOL    HW1 4323   2.157   0.798   7.546
34142SOL    HW2 4324   2.089   0.674   7.493
34143SOL     OW 4325   9.559   3.371   4.333
34143SOL    HW1 4326   9.465   3.387   4.340
34143SOL    HW2 4327   9.599   3.455   4.354
34144SOL     OW 4328  14.566   1.514  12.060
34144SOL    HW1 4329  14.615   1.580  12.108
34144SOL    HW2 4330  14.612   1.505  11.977
34145SOL     OW 4331   8.471  14.366   9.447
34145SOL    HW1 4332   8.467  14.419   9.526
34145SOL    HW2 4333   8.564  14.350   9.433
34146SOL     OW 4334   7.776   2.820   3.094
34146SOL    HW1 4335   7.772   2.832   2.999
34146SOL    HW2 4336   7.699   2.867   3.127
34147SOL     OW 4337   9.513   1.728  12.596
34147SOL    HW1 4338   9.472   1.645  12.573
34147SOL    HW2 4339   9.508   1.781  12.517
34148SOL     OW 4340   3.270   8.887   5.208
34148SOL    HW1 4341   3.225   8.824   5.152
34148SOL    HW2 4342   3.202   8.950   5.232
34149SOL     OW 4343  12.338   1.923   9.079
34149SOL    HW1 4344  12.359   1.969   8.997
34149SOL    HW2 4345  12.293   1.990   9.132
34150SOL     OW 4346   5.060   5.502  13.203
34150SOL    HW1 4347   5.112   5.481  13.125
34150SOL    HW2 4348   4.990   5.438  13.204
34151SOL     OW 4349  11.740   0.251  13.322
34151SOL    HW1 4350  11.700   0.199  13.252
34151SOL    HW2 4351  11.765   0.186  13.388
34152SOL     OW 4352   9.622   3.833   3.792
34152SOL    HW1 4353   9.592   3.895   3.726
34152SOL    HW2 4354   9.716   3.821   3.773
34153SOL     OW 4355  14.629  13.058   8.172
34153SOL    HW1 4356  14.570  13.031   8.101
34153SOL    HW2 4357  14.596  13.013   8.249
34154SOL     OW 4358   0.201   9.960   6.515
34154SOL    HW1 4359   0.266   9.947   6.584
34154SOL    HW2 4360   0.203   9.878   6.465
34155SOL     OW 4361  10.896   3.087  13.613
34155SOL    HW1 4362  10.986   3.094  13.646
34155SOL    HW2 4363  10.883   3.168  13.563
34156SOL     OW 4364   2.916   0.863   0.531
34156SOL    HW1 4365   2.890   0.824   0.615
34156SOL    HW2 4366   2.850   0.930   0.513
34157SOL     OW 4367   4.315  10.592  10.321
34157SOL    HW1 4368   4.228  10.562  10.295
34157SOL    HW2 4369   4.360  10.513  10.352
34158SOL     OW 4370  13.705  12.117   7.463
34158SOL    HW1 4371  13.796  12.149   7.465
34158SOL    HW2 4372  13.714  12.022   7.452
34159SOL     OW 4373  10.885  13.296   9.808
34159SOL    HW1 4374  10.910  13.303   9.716
34159SOL    HW2 4375  10.789  13.289   9.806
34160SOL     OW 4376   0.280   4.895   7.032
34160SOL    HW1 4377   0.252   4.946   7.108
34160SOL    HW2 4378   0.375   4.905   7.030
34161SOL     OW 4379   4.837   8.665   4.589
34161SOL    HW1 4380   4.754   8.641   4.547
34161SOL    HW2 4381   4.866   8.742   4.540
34162SOL     OW 4382  11.816  12.573   7.498
34162SOL    HW1 4383  11.763  12.506   7.455
34162SOL    HW2 4384  11.880  12.523   7.550
34163SOL     OW 4385  11.613  14.039   1.119
34163SOL    HW1 4386  11.632  14.059   1.211
34163SOL    HW2 4387  11.604  14.124   1.077
34164SOL     OW 4388  11.485   4.003  12.666
34164SOL    HW1 4389  11.573   3.968  12.654
34164SOL    HW2 4390  11.480   4.023  12.760
34165SOL     OW 4391   0.717   7.933  11.402
34165SOL    HW1 4392   0.744   7.859  11.348
34165SOL    HW2 4393   0.733   8.010  11.348
34166SOL     OW 4394   2.464   3.357   8.426
34166SOL    HW1 4395   2.414   3.298   8.370
34166SOL    HW2 4396   2.514   3.299   8.484
34167SOL     OW 4397  11.275  13.066   4.775
34167SOL    HW1 4398  11.303  13.157   4.767
34167SOL    HW2 4399  11.271  13.049   4.869
34168SOL     OW 4400  14.151   4.622   1.180
34168SOL    HW1 4401  14.243   4.629   1.207
34168SOL    HW2 4402  14.146   4.671   1.098
34169SOL     OW 4403   7.024   7.840   7.252
34169SOL    HW1 4404   7.105   7.859   7.299
34169SOL    HW2 4405   6.979   7.775   7.307
34170SOL     OW 4406   4.344   8.458   6.719
34170SOL    HW1 4407   4.429   8.501   6.725
34170SOL    HW2 4408   4.363   8.372   6.681
34171SOL     OW 4409   6.239   7.297   6.978
34171SOL    HW1 4410   6.291   7.227   7.018
34171SOL    HW2 4411   6.299   7.372   6.973
34172SOL     OW 4412   4.512   1.523   0.647
34172SOL    HW1 4413   4.583   1.553   0.590
34172SOL    HW2 4414   4.460   1.464   0.592
34173SOL     OW 4415   7.334   4.602   0.165
34173SOL    HW1 4416   7.273   4.625   0.236
34173SOL    HW2 4417   7.421   4.614   0.203
34174SOL     OW 4418  13.185  10.231   5.399
34174SOL    HW1 4419  13.248  10.286   5.352
34174SOL    HW2 4420  13.176  10.152   5.345
34175SOL     OW 4421   3.511   3.069   5.502
34175SOL    HW1 4422   3.481   3.120   5.577
34175SOL    HW2 4423   3.559   2.995   5.541
34176SOL     OW 4424  11.528   6.815   2.188
34176SOL    HW1 4425  11.608   6.865   2.173
34176SOL    HW2 4426  11.459   6.869   2.150
34177SOL     OW 4427   1.128   9.432   6.447
34177SOL    HW1 4428   1.224   9.437   6.443
34177SOL    HW2 4429   1.111   9.379   6.525
34178SOL     OW 4430  10.841  12.593   5.108
34178SOL    HW1 4431  10.888  12.568   5.029
34178SOL    HW2 4432  10.768  12.530   5.114
34179SOL     OW 4433   0.166   6.637   6.155
34179SOL    HW1 4434   0.143   6.730   6.156
34179SOL    HW2 4435   0.149   6.609   6.065
34180SOL     OW 4436  14.689   6.041   2.825
34180SOL    HW1 4437  14.760   5.979   2.842
34180SOL    HW2 4438  14.665   6.026   2.734
34181SOL     OW 4439   5.222  12.437   0.375
34181SOL    HW1 4440   5.241  12.390   0.456
34181SOL    HW2 4441   5.251  12.378   0.305
34182SOL     OW 4442   8.187  12.752   6.729
34182SOL    HW1 4443   8.257  12.789   6.782
34182SOL    HW2 4444   8.231  12.717   6.651
34183SOL     OW 4445  13.508   7.483  13.267
34183SOL    HW1 4446  13.563   7.510  13.193
34183SOL    HW2 4447  13.556   7.410  13.307
34184SOL     OW 4448   6.491   0.455   8.589
34184SOL    HW1 4449   6.482   0.438   8.495
34184SOL    HW2 4450   6.482   0.368   8.629
34185SOL     OW 4451  10.140   4.623  10.961
34185SOL    HW1 4452  10.077   4.564  10.920
34185SOL    HW2 4453  10.180   4.571  11.030
34186SOL     OW 4454   7.203  12.736  12.976
34186SOL    HW1 4455   7.241  12.819  12.945
34186SOL    HW2 4456   7.184  12.751  13.068
34187SOL     OW 4457   4.236   1.628   6.645
34187SOL    HW1 4458   4.205   1.538   6.653
34187SOL    HW2 4459   4.201   1.673   6.722
34188SOL     OW 4460   3.078   8.538   3.058
34188SOL    HW1 4461   3.061   8.625   3.022
34188SOL    HW2 4462   3.133   8.554   3.135
34189SOL     OW 4463   0.934  13.281  12.020
34189SOL    HW1 4464   0.999  13.343  12.052
34189SOL    HW2 4465   0.859  13.335  11.996
34190SOL     OW 4466   6.083   9.984   0.293
34190SOL    HW1 4467   6.062   9.993   0.386
34190SOL    HW2 4468   6.157   9.923   0.291
34191SOL     OW 4469   4.662  11.064   7.187
34191SOL    HW1 4470   4.722  11.072   7.260
34191SOL    HW2 4471   4.717  11.068   7.109
34192SOL     OW 4472   1.750  10.127  13.787
34192SOL    HW1 4473   1.770  10.078  13.866
34192SOL    HW2 4474   1.827  10.115  13.731
34193SOL     OW 4475   1.468   0.625   9.543
34193SOL    HW1 4476   1.426   0.610   9.628
34193SOL    HW2 4477   1.559   0.597   9.556
34194SOL     OW 4478   9.019   5.894  11.907
34194SOL    HW1 4479   9.045   5.986  11.913
34194SOL    HW2 4480   9.019   5.864  11.998
34195SOL     OW 4481  11.038   5.384   5.820
34195SOL    HW1 4482  11.120   5.413   5.860
34195SOL    HW2 4483  11.022   5.447   5.749
34196SOL     OW 4484   3.418  11.007   3.434
34196SOL    HW1 4485   3.373  10.928   3.405
34196SOL    HW2 4486   3.510  10.989   3.418
34197SOL     OW 4487   3.961   6.060  12.855
34197SOL    HW1 4488   4.014   5.983  12.875
34197SOL    HW2 4489   3.998   6.094  12.773
34198SOL     OW 4490  10.958  14.432   4.385
34198SOL    HW1 4491  10.939  14.430   4.291
34198SOL    HW2 4492  11.040  14.479   4.392
34199SOL     OW 4493   8.515   7.505  12.577
34199SOL    HW1 4494   8.444   7.443  12.592
34199SOL    HW2 4495   8.551   7.522  12.664
34200SOL     OW 4496  12.549   8.405   7.026
34200SOL    HW1 4497  12.507   8.479   6.983
34200SOL    HW2 4498  12.495   8.389   7.104
34201SOL     OW 4499   2.276   9.375   0.213
34201SOL    HW1 4500   2.339   9.387   0.141
34201SOL    HW2 4501   2.217   9.451   0.205
34202SOL     OW 4502  12.846   0.205  14.289
34202SOL    HW1 4503  12.908   0.249  14.231
34202SOL    HW2 4504  12.852   0.252  14.372
34203SOL     OW 4505   6.463  13.059   6.624
34203SOL    HW1 4506   6.509  12.985   6.664
34203SOL    HW2 4507   6.491  13.135   6.674
34204SOL     OW 4508   9.897  10.760   4.640
34204SOL    HW1 4509   9.935  10.781   4.725
34204SOL    HW2 4510   9.891  10.845   4.596
34205SOL     OW 4511   1.991  10.471   1.382
34205SOL    HW1 4512   2.028  10.556   1.406
34205SOL    HW2 4513   1.927  10.492   1.314
34206SOL     OW 4514   6.102   2.394   8.865
34206SOL    HW1 4515   6.096   2.319   8.806
34206SOL    HW2 4516   6.178   2.374   8.921
34207SOL     OW 4517   9.637   3.019  14.867
34207SOL    HW1 4518   9.724   3.058  14.870
34207SOL    HW2 4519   9.652   2.925  14.880
34208SOL     OW 4520   0.938  14.746  14.007
34208SOL    HW1 4521   0.900  14.805  14.072
34208SOL    HW2 4522   0.862  14.700  13.969
34209SOL     OW 4523  13.300   1.411   8.163
34209SOL    HW1 4524  13.222   1.367   8.198
34209SOL    HW2 4525  13.329   1.468   8.234
34210SOL     OW 4526  14.576   4.644  12.993
34210SOL    HW1 4527  14.643   4.576  12.984
34210SOL    HW2 4528  14.509   4.620  12.930
34211SOL     OW 4529   8.423   8.233   1.264
34211SOL    HW1 4530   8.494   8.190   1.313
34211SOL    HW2 4531   8.343   8.209   1.311
34212SOL     OW 4532  10.465   3.485  12.542
34212SOL    HW1 4533  10.538   3.486  12.480
34212SOL    HW2 4534  10.485   3.412  12.601
34213SOL     OW 4535  14.529   8.625  11.357
34213SOL    HW1 4536  14.473   8.551  11.382
34213SOL    HW2 4537  14.592   8.633  11.428
34214SOL     OW 4538   2.594   7.675   7.714
34214SOL    HW1 4539   2.559   7.641   7.797
34214SOL    HW2 4540   2.587   7.602   7.653
34215SOL     OW 4541  13.236   5.614  10.077
34215SOL    HW1 4542  13.194   5.615   9.991
34215SOL    HW2 4543  13.173   5.656  10.135
34216SOL     OW 4544   2.916   9.453   2.156
34216SOL    HW1 4545   2.975   9.409   2.216
34216SOL    HW2 4546   2.871   9.518   2.210
34217SOL     OW 4547   5.809   2.996   5.569
34217SOL    HW1 4548   5.736   2.977   5.628
34217SOL    HW2 4549   5.831   3.088   5.588
34218SOL     OW 4550   3.313   2.463   3.916
34218SOL    HW1 4551   3.253   2.396   3.883
34218SOL    HW2 4552   3.289   2.473   4.008
34219SOL     OW 4553   8.619   9.870   8.934
34219SOL    HW1 4554   8.657   9.848   9.019
34219SOL    HW2 4555   8.681   9.835   8.870
34220SOL     OW 4556  14.701   5.916   2.281
34220SOL    HW1 4557  14.618   5.930   2.237
34220SOL    HW2 4558  14.680   5.915   2.374
34221SOL     OW 4559  12.874  10.044   6.019
34221SOL    HW1 4560  12.963  10.077   6.003
34221SOL    HW2 4561  12.887   9.969   6.077
34222SOL     OW 4562   8.804   1.371  14.224
34222SOL    HW1 4563   8.860   1.294  14.210
34222SOL    HW2 4564   8.734   1.362  14.160
34223SOL     OW 4565   4.594  13.507  10.913
34223SOL    HW1 4566   4.514  13.546  10.946
34223SOL    HW2 4567   4.618  13.441  10.978
34224SOL     OW 4568   4.487   4.763   3.723
34224SOL    HW1 4569   4.562   4.819   3.702
34224SOL    HW2 4570   4.455   4.734   3.638
34225SOL     OW 4571  14.422   7.131   3.105
34225SOL    HW1 4572  14.413   7.161   3.196
34225SOL    HW2 4573  14.508   7.163   3.078
34226SOL     OW 4574   8.104   7.842  13.945
34226SOL    HW1 4575   8.125   7.923  13.898
34226SOL    HW2 4576   8.118   7.862  14.037
34227SOL     OW 4577  10.533  12.784   9.346
34227SOL    HW1 4578  10.555  12.781   9.439
34227SOL    HW2 4579  10.484  12.704   9.330
34228SOL     OW 4580   8.942  14.724   8.867
34228SOL    HW1 4581   8.994  14.781   8.924
34228SOL    HW2 4582   8.887  14.784   8.818
34229SOL     OW 4583  11.434  14.481   8.140
34229SOL    HW1 4584  11.515  14.453   8.096
34229SOL    HW2 4585  11.431  14.430   8.220
34230SOL     OW 4586   8.404  12.582   5.069
34230SOL    HW1 4587   8.453  12.664   5.069
34230SOL    HW2 4588   8.352  12.584   5.149
34231SOL     OW 4589  10.407   8.225   8.223
34231SOL    HW1 4590  10.435   8.213   8.314
34231SOL    HW2 4591  10.359   8.145   8.202
34232SOL     OW 4592   7.787   7.709   3.534
34232SOL    HW1 4593   7.693   7.712   3.515
34232SOL    HW2 4594   7.793   7.726   3.628
34233SOL     OW 4595  12.614  13.744   6.678
34233SOL    HW1 4596  12.598  13.740   6.773
34233SOL    HW2 4597  12.692  13.690   6.665
34234SOL     OW 4598   0.404  11.598  10.590
34234SOL    HW1 4599   0.430  11.559  10.673
34234SOL    HW2 4600   0.471  11.569  10.528
34235SOL     OW 4601   5.176   0.333   1.598
34235SOL    HW1 4602   5.105   0.274   1.623
34235SOL    HW2 4603   5.249   0.274   1.578
34236SOL     OW 4604   9.219  13.589  13.928
34236SOL    HW1 4605   9.163  13.580  13.850
34236SOL    HW2 4606   9.243  13.682  13.929
34237SOL     OW 4607   0.240   2.479   3.611
34237SOL    HW1 4608   0.161   2.440   3.648
34237SOL    HW2 4609   0.212   2.566   3.583
34238SOL     OW 4610   5.403  12.240  10.485
34238SOL    HW1 4611   5.398  12.305  10.415
34238SOL    HW2 4612   5.493  12.247  10.517
34239SOL     OW 4613   9.968  12.221   0.456
34239SOL    HW1 4614  10.002  12.164   0.525
34239SOL    HW2 4615  10.006  12.185   0.375
34240SOL     OW 4616  11.228   4.734   5.235
34240SOL    HW1 4617  11.276   4.817   5.235
34240SOL    HW2 4618  11.255   4.691   5.154
34241SOL     OW 4619   2.623   5.778   0.477
34241SOL    HW1 4620   2.646   5.687   0.497
34241SOL    HW2 4621   2.706   5.826   0.484
34242SOL     OW 4622  13.766  12.229   1.568
34242SOL    HW1 4623  13.784  12.249   1.661
34242SOL    HW2 4624  13.823  12.155   1.548
34243SOL     OW 4625   2.250   9.561  13.038
34243SOL    HW1 4626   2.172   9.570  13.092
34243SOL    HW2 4627   2.319   9.535  13.100
34244SOL     OW 4628  13.371   3.449  13.593
34244SOL    HW1 4629  13.286   3.440  13.635
34244SOL    HW2 4630  13.382   3.543  13.578
34245SOL     OW 4631   2.920   5.454   0.848
34245SOL    HW1 4632   2.984   5.487   0.911
34245SOL    HW2 4633   2.971   5.439   0.768
34246SOL     OW 4634   7.611   9.678   7.596
34246SOL    HW1 4635   7.556   9.670   7.674
34246SOL    HW2 4636   7.668   9.752   7.614
34247SOL     OW 4637   0.993   4.671  12.557
34247SOL    HW1 4638   1.042   4.729  12.498
34247SOL    HW2 4639   0.956   4.604  12.499
34248SOL     OW 4640   7.615   9.933   3.361
34248SOL    HW1 4641   7.709   9.946   3.352
34248SOL    HW2 4642   7.606   9.866   3.428
34249SOL     OW 4643   0.963   6.685   2.673
34249SOL    HW1 4644   0.921   6.622   2.731
34249SOL    HW2 4645   0.894   6.747   2.650
34250SOL     OW 4646  13.240   9.298   1.705
34250SOL    HW1 4647  13.204   9.378   1.666
34250SOL    HW2 4648  13.166   9.237   1.709
34251SOL     OW 4649   8.867   6.882  14.414
34251SOL    HW1 4650   8.943   6.935  14.439
34251SOL    HW2 4651   8.889   6.846  14.328
34252SOL     OW 4652  13.465   5.019   6.080
34252SOL    HW1 4653  13.443   4.963   6.154
34252SOL    HW2 4654  13.386   5.020   6.026
34253SOL     OW 4655   3.073   4.587   2.478
34253SOL    HW1 4656   3.160   4.573   2.516
34253SOL    HW2 4657   3.088   4.647   2.406
34254SOL     OW 4658  14.463   6.852  12.273
34254SOL    HW1 4659  14.521   6.776  12.270
34254SOL    HW2 4660  14.419   6.852  12.187
34255SOL     OW 4661  11.760  10.148   8.845
34255SOL    HW1 4662  11.726  10.205   8.776
34255SOL    HW2 4663  11.808  10.207   8.903
34256SOL     OW 4664   2.527   1.209  11.956
34256SOL    HW1 4665   2.487   1.182  12.039
34256SOL    HW2 4666   2.465   1.272  11.919
34257SOL     OW 4667   0.718   1.037  14.246
34257SOL    HW1 4668   0.729   0.985  14.326
34257SOL    HW2 4669   0.626   1.029  14.224
34258SOL     OW 4670  10.313   7.605   3.095
34258SOL    HW1 4671  10.401   7.599   3.057
34258SOL    HW2 4672  10.275   7.518   3.081
34259SOL     OW 4673   9.299  12.104   1.207
34259SOL    HW1 4674   9.307  12.200   1.207
34259SOL    HW2 4675   9.226  12.086   1.267
34260SOL     OW 4676   6.152  13.994   2.832
34260SOL    HW1 4677   6.199  14.054   2.774
34260SOL    HW2 4678   6.174  13.907   2.800
34261SOL     OW 4679  13.564  10.852  12.540
34261SOL    HW1 4680  13.561  10.916  12.612
34261SOL    HW2 4681  13.658  10.838  12.524
34262SOL     OW 4682  12.135  12.288   0.045
34262SOL    HW1 4683  12.044  12.285   0.074
34262SOL    HW2 4684  12.132  12.257  14.837
34263SOL     OW 4685   1.021   9.642   9.908
34263SOL    HW1 4686   0.926   9.635   9.921
34263SOL    HW2 4687   1.035   9.733   9.883
34264SOL     OW 4688   2.198   9.319  14.695
34264SOL    HW1 4689   2.265   9.362  14.748
34264SOL    HW2 4690   2.216   9.349  14.606
34265SOL     OW 4691   5.579   0.749  10.384
34265SOL    HW1 4692   5.492   0.788  10.382
34265SOL    HW2 4693   5.639   0.824  10.391
34266SOL     OW 4694   8.578   2.266   3.912
34266SOL    HW1 4695   8.552   2.209   3.984
34266SOL    HW2 4696   8.673   2.257   3.908
34267SOL     OW 4697   3.470  14.109   3.933
34267SOL    HW1 4698   3.423  14.053   3.871
34267SOL    HW2 4699   3.491  14.188   3.884
34268SOL     OW 4700   0.625   1.830  10.559
34268SOL    HW1 4701   0.591   1.770  10.492
34268SOL    HW2 4702   0.716   1.802  10.570
34269SOL     OW 4703  11.537   2.112   1.557
34269SOL    HW1 4704  11.567   2.112   1.466
34269SOL    HW2 4705  11.468   2.045   1.559
34270SOL     OW 4706  14.341  13.102   4.861
34270SOL    HW1 4707  14.386  13.157   4.797
34270SOL    HW2 4708  14.348  13.151   4.943
34271SOL     OW 4709   3.241  11.466   9.810
34271SOL    HW1 4710   3.176  11.399   9.832
34271SOL    HW2 4711   3.317  11.416   9.781
34272SOL     OW 4712  11.805   4.166   9.747
34272SOL    HW1 4713  11.752   4.169   9.827
34272SOL    HW2 4714  11.896   4.167   9.778
34273SOL     OW 4715   0.258   1.299   2.273
34273SOL    HW1 4716   0.276   1.252   2.354
34273SOL    HW2 4717   0.174   1.342   2.288
34274SOL     OW 4718   2.914   6.284   5.963
34274SOL    HW1 4719   2.884   6.373   5.944
34274SOL    HW2 4720   2.909   6.276   6.058
34275SOL     OW 4721   4.729   4.186  10.179
34275SOL    HW1 4722   4.646   4.232  10.189
34275SOL    HW2 4723   4.753   4.160  10.268
34276SOL     OW 4724  14.044   3.669   5.200
34276SOL    HW1 4725  14.084   3.754   5.183
34276SOL    HW2 4726  13.990   3.652   5.123
34277SOL     OW 4727   6.314  12.346   6.520
34277SOL    HW1 4728   6.264  12.316   6.596
34277SOL    HW2 4729   6.376  12.276   6.502
34278SOL     OW 4730   5.994   4.490   9.757
34278SOL    HW1 4731   6.020   4.556   9.822
34278SOL    HW2 4732   5.960   4.542   9.684
34279SOL     OW 4733   9.190   5.262   9.302
34279SOL    HW1 4734   9.166   5.249   9.210
34279SOL    HW2 4735   9.117   5.225   9.351
34280SOL     OW 4736   9.015   5.212   0.240
34280SOL    HW1 4737   8.992   5.192   0.331
34280SOL    HW2 4738   9.095   5.263   0.247
34281SOL     OW 4739  10.388  12.496   7.338
34281SOL    HW1 4740  10.410  12.418   7.286
34281SOL    HW2 4741  10.387  12.567   7.275
34282SOL     OW 4742  10.330   4.046  14.514
34282SOL    HW1 4743  10.381   3.966  14.501
34282SOL    HW2 4744  10.291   4.064  14.429
34283SOL     OW 4745  10.807   9.621  13.127
34283SOL    HW1 4746  10.750   9.566  13.181
34283SOL    HW2 4747  10.896   9.591  13.147
34284SOL     OW 4748   8.018   4.805   8.781
34284SOL    HW1 4749   8.066   4.724   8.797
34284SOL    HW2 4750   7.982   4.795   8.693
34285SOL     OW 4751  12.950   0.180   2.718
34285SOL    HW1 4752  12.905   0.230   2.650
34285SOL    HW2 4753  12.935   0.088   2.696
34286SOL     OW 4754   1.944  12.379  10.961
34286SOL    HW1 4755   1.924  12.451  10.901
34286SOL    HW2 4756   1.891  12.397  11.039
34287SOL     OW 4757  12.315   0.107  10.090
34287SOL    HW1 4758  12.306   0.193  10.049
34287SOL    HW2 4759  12.375   0.122  10.164
34288SOL     OW 4760   5.589   5.549   2.804
34288SOL    HW1 4761   5.495   5.559   2.791
34288SOL    HW2 4762   5.599   5.541   2.899
34289SOL     OW 4763   1.926   9.121  12.325
34289SOL    HW1 4764   1.867   9.060  12.281
34289SOL    HW2 4765   1.925   9.093  12.417
34290SOL     OW 4766  11.627   5.815   2.710
34290SOL    HW1 4767  11.640   5.894   2.658
34290SOL    HW2 4768  11.612   5.847   2.799
34291SOL     OW 4769   4.375   9.094   4.835
34291SOL    HW1 4770   4.365   9.032   4.907
34291SOL    HW2 4771   4.423   9.045   4.768
34292SOL     OW 4772   2.779   7.831   8.607
34292SOL    HW1 4773   2.819   7.893   8.547
34292SOL    HW2 4774   2.694   7.869   8.628
34293SOL     OW 4775   8.084   1.623   7.775
34293SOL    HW1 4776   8.152   1.691   7.778
34293SOL    HW2 4777   8.012   1.660   7.825
34294SOL     OW 4778   8.936   7.736   4.591
34294SOL    HW1 4779   8.843   7.728   4.568
34294SOL    HW2 4780   8.978   7.662   4.548
34295SOL     OW 4781  10.329  10.709   8.344
34295SOL    HW1 4782  10.257  10.661   8.384
34295SOL    HW2 4783  10.310  10.801   8.364
34296SOL     OW 4784  10.657  11.130  12.976
34296SOL    HW1 4785  10.610  11.084  12.907
34296SOL    HW2 4786  10.696  11.061  13.030
34297SOL     OW 4787   5.742   3.774  14.380
34297SOL    HW1 4788   5.691   3.771  14.460
34297SOL    HW2 4789   5.706   3.705  14.325
34298SOL     OW 4790  11.876   2.491   9.487
34298SOL    HW1 4791  11.963   2.503   9.448
34298SOL    HW2 4792  11.858   2.573   9.532
34299SOL     OW 4793   5.709  11.195   6.421
34299SOL    HW1 4794   5.707  11.271   6.362
34299SOL    HW2 4795   5.635  11.209   6.481
34300SOL     OW 4796   7.270   9.929   8.736
34300SOL    HW1 4797   7.324   9.849   8.737
34300SOL    HW2 4798   7.224   9.926   8.653
34301SOL     OW 4799   2.635   3.696   8.496
34301SOL    HW1 4800   2.653   3.788   8.514
34301SOL    HW2 4801   2.638   3.654   8.583
34302SOL     OW 4802   0.355   4.492   3.107
34302SOL    HW1 4803   0.402   4.532   3.179
34302SOL    HW2 4804   0.423   4.445   3.057
34303SOL     OW 4805   6.154   4.766  13.792
34303SOL    HW1 4806   6.208   4.841  13.816
34303SOL    HW2 4807   6.200   4.691  13.829
34304SOL     OW 4808   3.709   8.283  14.341
34304SOL    HW1 4809   3.786   8.318  14.297
34304SOL    HW2 4810   3.656   8.361  14.361
34305SOL     OW 4811   7.349   8.366  11.377
34305SOL    HW1 4812   7.273   8.311  11.399
34305SOL    HW2 4813   7.411   8.306  11.336
34306SOL     OW 4814  14.446  14.409  13.683
34306SOL    HW1 4815  14.463  14.469  13.610
34306SOL    HW2 4816  14.435  14.466  13.759
34307SOL     OW 4817   3.412  10.142   2.755
34307SOL    HW1 4818   3.358  10.206   2.708
34307SOL    HW2 4819   3.432  10.075   2.690
34308SOL     OW 4820   3.631  10.884   5.313
34308SOL    HW1 4821   3.625  10.949   5.243
34308SOL    HW2 4822   3.725  10.870   5.324
34309SOL     OW 4823   8.060  13.212  11.079
34309SOL    HW1 4824   8.132  13.184  11.135
34309SOL    HW2 4825   7.999  13.138  11.080
34310SOL     OW 4826   6.445   6.020   2.049
34310SOL    HW1 4827   6.421   6.099   2.098
34310SOL    HW2 4828   6.379   5.955   2.075
34311SOL     OW 4829   5.012   6.628   2.520
34311SOL    HW1 4830   4.963   6.557   2.561
34311SOL    HW2 4831   5.095   6.587   2.493
34312SOL     OW 4832  11.172   8.834  12.879
34312SOL    HW1 4833  11.253   8.871  12.844
34312SOL    HW2 4834  11.146   8.894  12.949
34313SOL     OW 4835   0.783   9.835  11.228
34313SOL    HW1 4836   0.878   9.836  11.238
34313SOL    HW2 4837   0.761   9.743  11.214
34314SOL     OW 4838  14.402  13.114  10.405
34314SOL    HW1 4839  14.452  13.169  10.344
34314SOL    HW2 4840  14.421  13.024  10.377
34315SOL     OW 4841   6.356   4.244   2.270
34315SOL    HW1 4842   6.436   4.195   2.285
34315SOL    HW2 4843   6.358   4.264   2.176
34316SOL     OW 4844   1.566   5.073   9.936
34316SOL    HW1 4845   1.655   5.106   9.949
34316SOL    HW2 4846   1.529   5.130   9.868
34317SOL     OW 4847   8.346   7.157   8.320
34317SOL    HW1 4848   8.307   7.213   8.253
34317SOL    HW2 4849   8.344   7.210   8.400
34318SOL     OW 4850  11.555   2.567   6.608
34318SOL    HW1 4851  11.557   2.486   6.557
34318SOL    HW2 4852  11.512   2.630   6.550
34319SOL     OW 4853  13.282  12.422   2.330
34319SOL    HW1 4854  13.330  12.430   2.247
34319SOL    HW2 4855  13.245  12.334   2.328
34320SOL     OW 4856   3.692   0.501   8.267
34320SOL    HW1 4857   3.781   0.534   8.284
34320SOL    HW2 4858   3.635   0.570   8.299
34321SOL     OW 4859  11.391   6.337  11.714
34321SOL    HW1 4860  11.389   6.413  11.771
34321SOL    HW2 4861  11.438   6.367  11.636
34322SOL     OW 4862   1.701  10.176   5.661
34322SOL    HW1 4863   1.684  10.177   5.755
34322SOL    HW2 4864   1.636  10.114   5.626
34323SOL     OW 4865  11.910  14.363   3.604
34323SOL    HW1 4866  11.969  14.434   3.583
34323SOL    HW2 4867  11.848  14.400   3.667
34324SOL     OW 4868   6.270   3.207   8.635
34324SOL    HW1 4869   6.271   3.272   8.705
34324SOL    HW2 4870   6.328   3.244   8.568
34325SOL     OW 4871  14.435   3.243   9.587
34325SOL    HW1 4872  14.375   3.302   9.541
34325SOL    HW2 4873  14.379   3.198   9.651
34326SOL     OW 4874  12.147  13.858  12.487
34326SOL    HW1 4875  12.171  13.824  12.401
34326SOL    HW2 4876  12.115  13.782  12.535
34327SOL     OW 4877   0.587   7.997  12.148
34327SOL    HW1 4878   0.572   7.914  12.192
34327SOL    HW2 4879   0.525   7.998  12.075
34328SOL     OW 4880   7.525   3.637   2.430
34328SOL    HW1 4881   7.614   3.613   2.406
34328SOL    HW2 4882   7.490   3.680   2.352
34329SOL     OW 4883   8.444   1.935   9.981
34329SOL    HW1 4884   8.494   1.961   9.904
34329SOL    HW2 4885   8.353   1.958   9.959
34330SOL     OW 4886   3.145   2.566  13.235
34330SOL    HW1 4887   3.197   2.638  13.200
34330SOL    HW2 4888   3.209   2.504  13.268
34331SOL     OW 4889   5.649  11.506  14.865
34331SOL    HW1 4890   5.613  11.594  14.858
34331SOL    HW2 4891   5.596  11.465   0.051
34332SOL     OW 4892  11.618  11.686   8.045
34332SOL    HW1 4893  11.613  11.701   7.951
34332SOL    HW2 4894  11.642  11.772   8.081
34333SOL     OW 4895   5.593   1.978  14.827
34333SOL    HW1 4896   5.620   2.023   0.025
34333SOL    HW2 4897   5.671   1.976  14.773
34334SOL     OW 4898   3.727  11.362   6.662
34334SOL    HW1 4899   3.710  11.303   6.588
34334SOL    HW2 4900   3.819  11.348   6.683
34335SOL     OW 4901   3.754   6.903   4.582
34335SOL    HW1 4902   3.821   6.862   4.637
34335SOL    HW2 4903   3.772   6.997   4.589
34336SOL     OW 4904  10.805   8.729   9.884
34336SOL    HW1 4905  10.773   8.656   9.831
34336SOL    HW2 4906  10.846   8.788   9.821
34337SOL     OW 4907   4.135   3.507   3.977
34337SOL    HW1 4908   4.044   3.528   3.957
34337SOL    HW2 4909   4.153   3.552   4.059
34338SOL     OW 4910  11.422  10.197  12.383
34338SOL    HW1 4911  11.430  10.196  12.478
34338SOL    HW2 4912  11.357  10.130  12.364
34339SOL     OW 4913   1.525  13.626   8.053
34339SOL    HW1 4914   1.567  13.593   8.133
34339SOL    HW2 4915   1.597  13.647   7.994
34340SOL     OW 4916   9.915  13.394   6.655
34340SOL    HW1 4917   9.957  13.467   6.610
34340SOL    HW2 4918   9.987  13.334   6.676
34341SOL     OW 4919   2.097   9.604   0.451
34341SOL    HW1 4920   2.061   9.577   0.366
34341SOL    HW2 4921   2.136   9.690   0.434
34342SOL     OW 4922   0.629   8.718   5.776
34342SOL    HW1 4923   0.578   8.787   5.818
34342SOL    HW2 4924   0.660   8.664   5.848
34343SOL     OW 4925   9.081   5.343   8.597
34343SOL    HW1 4926   9.158   5.400   8.592
34343SOL    HW2 4927   9.055   5.348   8.689
34344SOL     OW 4928   2.242  12.286   2.749
34344SOL    HW1 4929   2.276  12.349   2.685
34344SOL    HW2 4930   2.317  12.231   2.771
34345SOL     OW 4931   7.996   6.090   5.912
34345SOL    HW1 4932   8.053   6.138   5.853
34345SOL    HW2 4933   7.934   6.044   5.855
34346SOL     OW 4934   8.670   0.941  11.800
34346SOL    HW1 4935   8.629   1.012  11.751
34346SOL    HW2 4936   8.675   0.974  11.890
34347SOL     OW 4937  10.137   8.074   1.047
34347SOL    HW1 4938  10.175   8.149   1.093
34347SOL    HW2 4939  10.201   8.004   1.059
34348SOL     OW 4940   5.273   6.042  10.206
34348SOL    HW1 4941   5.180   6.064  10.211
34348SOL    HW2 4942   5.288   6.022  10.114
34349SOL     OW 4943   0.632   6.621   9.592
34349SOL    HW1 4944   0.713   6.583   9.629
34349SOL    HW2 4945   0.563   6.587   9.649
34350SOL     OW 4946   8.790   0.959   2.000
34350SOL    HW1 4947   8.696   0.954   1.980
34350SOL    HW2 4948   8.831   0.980   1.916
34351SOL     OW 4949  11.743   1.832   5.231
34351SOL    HW1 4950  11.757   1.806   5.321
34351SOL    HW2 4951  11.659   1.878   5.232
34352SOL     OW 4952   7.382   5.823   8.242
34352SOL    HW1 4953   7.441   5.877   8.189
34352SOL    HW2 4954   7.344   5.761   8.180
34353SOL     OW 4955   6.666   5.479   8.983
34353SOL    HW1 4956   6.600   5.425   9.026
34353SOL    HW2 4957   6.623   5.564   8.970
34354SOL     OW 4958   9.941   2.388   8.151
34354SOL    HW1 4959  10.025   2.431   8.140
34354SOL    HW2 4960   9.901   2.432   8.225
34355SOL     OW 4961   9.952   3.405   6.615
34355SOL    HW1 4962   9.984   3.363   6.695
34355SOL    HW2 4963   9.904   3.482   6.646
34356SOL     OW 4964   6.199   8.792  11.664
34356SOL    HW1 4965   6.166   8.848  11.594
34356SOL    HW2 4966   6.189   8.703  11.630
34357SOL     OW 4967  12.255  10.368   5.287
34357SOL    HW1 4968  12.228  10.295   5.342
34357SOL    HW2 4969  12.323  10.412   5.337
34358SOL     OW 4970  11.821  14.849   0.385
34358SOL    HW1 4971  11.768   0.047   0.380
34358SOL    HW2 4972  11.784  14.792   0.317
34359SOL     OW 4973   7.897   6.093  14.629
34359SOL    HW1 4974   7.925   6.003  14.646
34359SOL    HW2 4975   7.968   6.147  14.664
34360SOL     OW 4976  11.621  10.011   5.582
34360SOL    HW1 4977  11.557  10.039   5.516
34360SOL    HW2 4978  11.696  10.069   5.567
34361SOL     OW 4979   6.575   5.721   2.140
34361SOL    HW1 4980   6.562   5.646   2.198
34361SOL    HW2 4981   6.554   5.687   2.053
34362SOL     OW 4982  13.178   9.201  13.256
34362SOL    HW1 4983  13.125   9.277  13.282
34362SOL    HW2 4984  13.256   9.206  13.311
34363SOL     OW 4985  12.401   2.145  10.515
34363SOL    HW1 4986  12.340   2.213  10.486
34363SOL    HW2 4987  12.447   2.184  10.589
34364SOL     OW 4988   1.117   7.649   1.426
34364SOL    HW1 4989   1.206   7.613   1.421
34364SOL    HW2 4990   1.129   7.743   1.433
34365SOL     OW 4991  11.003   8.337   2.917
34365SOL    HW1 4992  10.908   8.349   2.919
34365SOL    HW2 4993  11.022   8.290   2.998
34366SOL     OW 4994  11.515  12.106  13.480
34366SOL    HW1 4995  11.590  12.166  13.489
34366SOL    HW2 4996  11.479  12.101  13.568
34367SOL     OW 4997   7.306   8.970   0.620
34367SOL    HW1 4998   7.292   9.005   0.708
34367SOL    HW2 4999   7.401   8.970   0.609
34368SOL     OW 5000   0.726  12.222  10.275
34368SOL    HW1 5001   0.721  12.184  10.187
34368SOL    HW2 5002   0.785  12.163  10.323
34369SOL     OW 5003   5.614   6.450   4.946
34369SOL    HW1 5004   5.572   6.481   5.026
34369SOL    HW2 5005   5.583   6.510   4.878
34370SOL     OW 5006   4.428   3.864   6.948
34370SOL    HW1 5007   4.351   3.846   6.894
34370SOL    HW2 5008   4.431   3.959   6.955
34371SOL     OW 5009   2.225  13.044   8.530
34371SOL    HW1 5010   2.278  13.119   8.557
34371SOL    HW2 5011   2.180  13.072   8.451
34372SOL     OW 5012  10.869   2.078   6.945
34372SOL    HW1 5013  10.841   2.046   6.859
34372SOL    HW2 5014  10.788   2.091   6.994
34373SOL     OW 5015   9.995  12.914   4.350
34373SOL    HW1 5016  10.005  13.008   4.358
34373SOL    HW2 5017   9.942  12.888   4.425
34374SOL     OW 5018  10.789   0.202   1.641
34374SOL    HW1 5019  10.797   0.215   1.735
34374SOL    HW2 5020  10.750   0.283   1.608
34375SOL     OW 5021  10.560   2.655   5.528
34375SOL    HW1 5022  10.608   2.579   5.562
34375SOL    HW2 5023  10.562   2.643   5.433
34376SOL     OW 5024  14.590  12.870   6.746
34376SOL    HW1 5025  14.601  12.895   6.654
34376SOL    HW2 5026  14.675  12.834   6.771
34377SOL     OW 5027   0.004   6.478   5.103
34377SOL    HW1 5028   0.084   6.440   5.140
34377SOL    HW2 5029   0.015   6.572   5.113
34378SOL     OW 5030   5.442  12.019  13.054
34378SOL    HW1 5031   5.476  11.965  13.126
34378SOL    HW2 5032   5.430  11.959  12.981
34379SOL     OW 5033   8.487   3.295   8.404
34379SOL    HW1 5034   8.487   3.254   8.490
34379SOL    HW2 5035   8.522   3.383   8.419
34380SOL     OW 5036  10.361   2.220   2.001
34380SOL    HW1 5037  10.452   2.191   1.992
34380SOL    HW2 5038  10.330   2.176   2.080
34381SOL     OW 5039   6.439   2.100   2.627
34381SOL    HW1 5040   6.504   2.153   2.582
34381SOL    HW2 5041   6.377   2.164   2.663
34382SOL     OW 5042   6.935  13.367  10.736
34382SOL    HW1 5043   6.881  13.395  10.810
34382SOL    HW2 5044   6.975  13.448  10.704
34383SOL     OW 5045  14.340   1.172  13.594
34383SOL    HW1 5046  14.275   1.102  13.596
34383SOL    HW2 5047  14.386   1.164  13.677
34384SOL     OW 5048   4.600  13.655   0.001
34384SOL    HW1 5049   4.540  13.664  14.809
34384SOL    HW2 5050   4.687  13.669  14.845
34385SOL     OW 5051  14.237   0.414   7.564
34385SOL    HW1 5052  14.149   0.452   7.564
34385SOL    HW2 5053  14.294   0.483   7.532
34386SOL     OW 5054   6.967   5.143   1.165
34386SOL    HW1 5055   6.966   5.161   1.259
34386SOL    HW2 5056   6.899   5.078   1.151
34387SOL     OW 5057   6.007   1.443   0.122
34387SOL    HW1 5058   6.086   1.419   0.074
34387SOL    HW2 5059   5.973   1.519   0.076
34388SOL     OW 5060   2.053   7.212   3.899
34388SOL    HW1 5061   2.140   7.209   3.861
34388SOL    HW2 5062   2.066   7.244   3.988
34389SOL     OW 5063  13.059  14.782   7.783
34389SOL    HW1 5064  13.062  14.739   7.868
34389SOL    HW2 5065  12.966  14.803   7.770
34390SOL     OW 5066  14.718  11.853   7.824
34390SOL    HW1 5067  14.716  11.762   7.852
34390SOL    HW2 5068  14.653  11.897   7.879
34391SOL     OW 5069  14.075   9.801   3.217
34391SOL    HW1 5070  14.062   9.725   3.275
34391SOL    HW2 5071  14.138   9.771   3.152
34392SOL     OW 5072  13.465  10.125   2.056
34392SOL    HW1 5073  13.465  10.041   2.010
34392SOL    HW2 5074  13.443  10.190   1.988
34393SOL     OW 5075   1.153  13.684   6.221
34393SOL    HW1 5076   1.177  13.637   6.140
34393SOL    HW2 5077   1.234  13.686   6.272
34394SOL     OW 5078  14.874   4.161   5.929
34394SOL    HW1 5079  14.865   4.140   5.836
34394SOL    HW2 5080  14.796   4.125   5.970
34395SOL     OW 5081  11.259  10.253  11.827
34395SOL    HW1 5082  11.262  10.303  11.909
34395SOL    HW2 5083  11.328  10.188  11.836
34396SOL     OW 5084   9.861   0.746   3.314
34396SOL    HW1 5085   9.945   0.782   3.286
34396SOL    HW2 5086   9.854   0.771   3.406
34397SOL     OW 5087  13.134   3.994  14.232
34397SOL    HW1 5088  13.163   4.022  14.319
34397SOL    HW2 5089  13.214   3.962  14.189
34398SOL     OW 5090  13.455  10.696   2.746
34398SOL    HW1 5091  13.361  10.715   2.737
34398SOL    HW2 5092  13.494  10.733   2.667
34399SOL     OW 5093   9.131  12.614  10.919
34399SOL    HW1 5094   9.181  12.592  10.998
34399SOL    HW2 5095   9.074  12.686  10.946
34400SOL     OW 5096   7.554   7.676   2.539
34400SOL    HW1 5097   7.578   7.733   2.466
34400SOL    HW2 5098   7.555   7.734   2.616
34401SOL     OW 5099  13.442   0.939  13.815
34401SOL    HW1 5100  13.390   0.995  13.758
34401SOL    HW2 5101  13.510   0.996  13.849
34402SOL     OW 5102  14.738   2.414   2.543
34402SOL    HW1 5103  14.681   2.342   2.572
34402SOL    HW2 5104  14.678   2.476   2.501
34403SOL     OW 5105  12.865   8.787   2.121
34403SOL    HW1 5106  12.895   8.868   2.162
34403SOL    HW2 5107  12.852   8.726   2.194
34404SOL     OW 5108  14.688  13.052  12.560
34404SOL    HW1 5109  14.780  13.027  12.553
34404SOL    HW2 5110  14.672  13.059  12.654
34405SOL     OW 5111   8.693  13.987  11.164
34405SOL    HW1 5112   8.713  13.895  11.182
34405SOL    HW2 5113   8.768  14.035  11.199
34406SOL     OW 5114   7.541   0.624   1.355
34406SOL    HW1 5115   7.497   0.649   1.273
34406SOL    HW2 5116   7.581   0.704   1.386
34407SOL     OW 5117   8.571  13.372   1.591
34407SOL    HW1 5118   8.556  13.305   1.524
34407SOL    HW2 5119   8.639  13.428   1.554
34408SOL     OW 5120   1.356   0.442  13.578
34408SOL    HW1 5121   1.362   0.518  13.636
34408SOL    HW2 5122   1.264   0.416  13.582
34409SOL     OW 5123  12.570   7.122   9.449
34409SOL    HW1 5124  12.615   7.206   9.455
34409SOL    HW2 5125  12.614   7.076   9.378
34410SOL     OW 5126   7.911  11.044   5.969
34410SOL    HW1 5127   7.860  11.006   5.898
34410SOL    HW2 5128   7.973  10.975   5.994
34411SOL     OW 5129   7.972   3.027   8.824
34411SOL    HW1 5130   8.027   3.057   8.897
34411SOL    HW2 5131   8.034   2.995   8.759
34412SOL     OW 5132   9.709  13.419   6.815
34412SOL    HW1 5133   9.787  13.401   6.762
34412SOL    HW2 5134   9.636  13.413   6.753
34413SOL     OW 5135  12.875  12.092   7.167
34413SOL    HW1 5136  12.950  12.117   7.113
34413SOL    HW2 5137  12.799  12.126   7.119
34414SOL     OW 5138   6.874  10.428   5.781
34414SOL    HW1 5139   6.834  10.343   5.797
34414SOL    HW2 5140   6.801  10.485   5.759
34415SOL     OW 5141   0.718   2.576   4.535
34415SOL    HW1 5142   0.709   2.483   4.513
34415SOL    HW2 5143   0.640   2.597   4.585
34416SOL     OW 5144  14.640   7.434  13.890
34416SOL    HW1 5145  14.636   7.401  13.980
34416SOL    HW2 5146  14.626   7.356  13.836
34417SOL     OW 5147   5.738   4.103  10.836
34417SOL    HW1 5148   5.682   4.029  10.810
34417SOL    HW2 5149   5.682   4.180  10.828
34418SOL     OW 5150  11.741  12.993   6.435
34418SOL    HW1 5151  11.714  13.065   6.378
34418SOL    HW2 5152  11.793  13.034   6.504
34419SOL     OW 5153  11.805   6.412   6.669
34419SOL    HW1 5154  11.865   6.487   6.671
34419SOL    HW2 5155  11.724   6.445   6.707
34420SOL     OW 5156   1.953  10.627   1.998
34420SOL    HW1 5157   1.920  10.544   2.035
34420SOL    HW2 5158   1.901  10.640   1.919
34421SOL     OW 5159  12.021  14.047   4.599
34421SOL    HW1 5160  11.995  14.138   4.587
34421SOL    HW2 5161  12.040  14.015   4.511
34422SOL     OW 5162   3.305  10.838   6.960
34422SOL    HW1 5163   3.274  10.839   7.051
34422SOL    HW2 5164   3.225  10.839   6.908
34423SOL     OW 5165   8.538   7.451   5.281
34423SOL    HW1 5166   8.533   7.510   5.206
34423SOL    HW2 5167   8.623   7.472   5.322
34424SOL     OW 5168  13.141  11.587   8.001
34424SOL    HW1 5169  13.125  11.501   7.963
34424SOL    HW2 5170  13.234  11.602   7.990
34425SOL     OW 5171   9.115   6.174   6.517
34425SOL    HW1 5172   9.154   6.180   6.604
34425SOL    HW2 5173   9.064   6.093   6.520
34426SOL     OW 5174   5.024   5.167   4.414
34426SOL    HW1 5175   4.996   5.124   4.333
34426SOL    HW2 5176   5.099   5.221   4.388
34427SOL     OW 5177   6.039   9.765   6.384
34427SOL    HW1 5178   6.074   9.691   6.434
34427SOL    HW2 5179   5.948   9.773   6.414
34428SOL     OW 5180   9.505   1.966   9.892
34428SOL    HW1 5181   9.532   1.945   9.802
34428SOL    HW2 5182   9.410   1.972   9.888
34429SOL     OW 5183   0.347   6.760   8.018
34429SOL    HW1 5184   0.276   6.718   7.970
34429SOL    HW2 5185   0.426   6.712   7.992
34430SOL     OW 5186   8.971  11.346   5.524
34430SOL    HW1 5187   9.020  11.410   5.473
34430SOL    HW2 5188   9.037  11.297   5.572
34431SOL     OW 5189  11.711   9.404  10.732
34431SOL    HW1 5190  11.664   9.427  10.652
34431SOL    HW2 5191  11.651   9.428  10.803
34432SOL     OW 5192  11.015   5.983  13.274
34432SOL    HW1 5193  10.988   5.910  13.330
34432SOL    HW2 5194  11.103   6.006  13.304
34433SOL     OW 5195   3.868   0.017  13.633
34433SOL    HW1 5196   3.845  14.822  13.582
34433SOL    HW2 5197   3.808   0.015  13.707
34434SOL     OW 5198   7.250  11.067   7.794
34434SOL    HW1 5199   7.231  10.973   7.796
34434SOL    HW2 5200   7.180  11.107   7.845
34435SOL     OW 5201  12.744   9.085   2.406
34435SOL    HW1 5202  12.734   9.002   2.453
34435SOL    HW2 5203  12.792   9.062   2.327
34436SOL     OW 5204  12.619  14.351  12.194
34436SOL    HW1 5205  12.594  14.377  12.283
34436SOL    HW2 5206  12.710  14.322  12.203
34437SOL     OW 5207   8.883  13.004   5.928
34437SOL    HW1 5208   8.827  12.979   5.855
34437SOL    HW2 5209   8.883  12.929   5.987
34438SOL     OW 5210  12.206   8.520   9.149
34438SOL    HW1 5211  12.170   8.433   9.131
34438SOL    HW2 5212  12.173   8.574   9.078
34439SOL     OW 5213  14.380   7.123  13.988
34439SOL    HW1 5214  14.296   7.154  13.953
34439SOL    HW2 5215  14.377   7.028  13.976
34440SOL     OW 5216  10.644  10.152   7.582
34440SOL    HW1 5217  10.628  10.064   7.616
34440SOL    HW2 5218  10.737  10.167   7.596
34441SOL     OW 5219   0.868   6.542   0.959
34441SOL    HW1 5220   0.911   6.487   1.025
34441SOL    HW2 5221   0.903   6.630   0.975
34442SOL     OW 5222  12.319   3.132   8.893
34442SOL    HW1 5223  12.350   3.175   8.813
34442SOL    HW2 5224  12.334   3.039   8.877
34443SOL     OW 5225   9.032  12.820  14.780
34443SOL    HW1 5226   9.002  12.729  14.784
34443SOL    HW2 5227   9.093  12.822  14.707
34444SOL     OW 5228   3.513  10.380   2.853
34444SOL    HW1 5229   3.506  10.297   2.805
34444SOL    HW2 5230   3.523  10.446   2.784
34445SOL     OW 5231   9.378   7.952  11.210
34445SOL    HW1 5232   9.345   8.042  11.211
34445SOL    HW2 5233   9.472   7.960  11.227
34446SOL     OW 5234   4.374   6.751  13.289
34446SOL    HW1 5235   4.453   6.775  13.338
34446SOL    HW2 5236   4.406   6.694  13.219
34447SOL     OW 5237   7.363   9.919  13.141
34447SOL    HW1 5238   7.356   9.832  13.102
34447SOL    HW2 5239   7.444   9.956  13.105
34448SOL     OW 5240   8.887  10.361  13.691
34448SOL    HW1 5241   8.801  10.398  13.670
34448SOL    HW2 5242   8.894  10.283  13.637
34449SOL     OW 5243   5.432   6.186   1.102
34449SOL    HW1 5244   5.349   6.144   1.077
34449SOL    HW2 5245   5.496   6.114   1.099
34450SOL     OW 5246  14.250   9.024   0.234
34450SOL    HW1 5247  14.303   9.064   0.304
34450SOL    HW2 5248  14.246   9.091   0.166
34451SOL     OW 5249  11.903   9.135   0.815
34451SOL    HW1 5250  11.833   9.148   0.879
34451SOL    HW2 5251  11.981   9.117   0.867
34452SOL     OW 5252   0.059  14.369   0.369
34452SOL    HW1 5253  14.876  14.432   0.340
34452SOL    HW2 5254   0.139  14.392   0.321
34453SOL     OW 5255  12.355   4.339   9.673
34453SOL    HW1 5256  12.274   4.370   9.714
34453SOL    HW2 5257  12.405   4.419   9.656
34454SOL     OW 5258  12.486   2.789   8.255
34454SOL    HW1 5259  12.431   2.725   8.301
34454SOL    HW2 5260  12.464   2.778   8.163
34455SOL     OW 5261   7.744  12.320   6.976
34455SOL    HW1 5262   7.820  12.358   7.020
34455SOL    HW2 5263   7.688  12.290   7.047
34456SOL     OW 5264   9.074   0.385   8.376
34456SOL    HW1 5265   9.086   0.293   8.400
34456SOL    HW2 5266   9.161   0.424   8.388
34457SOL     OW 5267  10.732  12.220  13.733
34457SOL    HW1 5268  10.684  12.299  13.758
34457SOL    HW2 5269  10.664  12.158  13.708
34458SOL     OW 5270   4.905   6.225   5.903
34458SOL    HW1 5271   4.847   6.299   5.885
34458SOL    HW2 5272   4.862   6.177   5.974
34459SOL     OW 5273   6.343   0.951   8.337
34459SOL    HW1 5274   6.276   0.893   8.371
34459SOL    HW2 5275   6.426   0.906   8.355
34460SOL     OW 5276   4.378   5.547   9.648
34460SOL    HW1 5277   4.459   5.598   9.644
34460SOL    HW2 5278   4.310   5.606   9.617
34461SOL     OW 5279   1.805   7.553  13.826
34461SOL    HW1 5280   1.778   7.591  13.742
34461SOL    HW2 5281   1.898   7.534  13.814
34462SOL     OW 5282   6.011   7.582  12.583
34462SOL    HW1 5283   5.919   7.574  12.558
34462SOL    HW2 5284   6.056   7.515  12.532
34463SOL     OW 5285  13.398  10.955  11.431
34463SOL    HW1 5286  13.305  10.977  11.425
34463SOL    HW2 5287  13.400  10.859  11.428
34464SOL     OW 5288   2.176  12.534   7.057
34464SOL    HW1 5289   2.269  12.554   7.061
34464SOL    HW2 5290   2.161  12.475   7.131
34465SOL     OW 5291   1.773  12.288  13.075
34465SOL    HW1 5292   1.823  12.359  13.033
34465SOL    HW2 5293   1.840  12.230  13.112
34466SOL     OW 5294   4.787   4.049  10.462
34466SOL    HW1 5295   4.815   3.971  10.414
34466SOL    HW2 5296   4.868   4.090  10.492
34467SOL     OW 5297  10.792   4.457   0.262
34467SOL    HW1 5298  10.698   4.457   0.279
34467SOL    HW2 5299  10.832   4.432   0.345
34468SOL     OW 5300   1.779   3.015   4.393
34468SOL    HW1 5301   1.708   2.951   4.403
34468SOL    HW2 5302   1.849   2.966   4.349
34469SOL     OW 5303   7.445   2.737   8.007
34469SOL    HW1 5304   7.400   2.755   8.090
34469SOL    HW2 5305   7.479   2.648   8.018
34470SOL     OW 5306   3.756   6.017   9.577
34470SOL    HW1 5307   3.667   6.051   9.581
34470SOL    HW2 5308   3.802   6.064   9.647
34471SOL     OW 5309   6.921   6.969  12.311
34471SOL    HW1 5310   6.848   6.912  12.284
34471SOL    HW2 5311   6.977   6.974  12.234
34472SOL     OW 5312  10.302   1.345   0.324
34472SOL    HW1 5313  10.351   1.427   0.318
34472SOL    HW2 5314  10.211   1.373   0.332
34473SOL     OW 5315  12.739   2.398  10.230
34473SOL    HW1 5316  12.703   2.459  10.294
34473SOL    HW2 5317  12.694   2.315  10.249
34474SOL     OW 5318  13.058   0.615  14.443
34474SOL    HW1 5319  13.079   0.641  14.353
34474SOL    HW2 5320  13.035   0.697  14.487
34475SOL     OW 5321   0.052   0.785   7.678
34475SOL    HW1 5322   0.146   0.798   7.672
34475SOL    HW2 5323   0.035   0.778   7.772
34476SOL     OW 5324   7.683   1.009  13.155
34476SOL    HW1 5325   7.596   1.031  13.122
34476SOL    HW2 5326   7.723   1.093  13.176
34477SOL     OW 5327  11.210  11.449   3.498
34477SOL    HW1 5328  11.288  11.411   3.538
34477SOL    HW2 5329  11.142  11.440   3.565
34478SOL     OW 5330   2.796   5.982  14.044
34478SOL    HW1 5331   2.761   6.070  14.031
34478SOL    HW2 5332   2.871   5.995  14.102
34479SOL     OW 5333  14.239  14.234   2.158
34479SOL    HW1 5334  14.308  14.260   2.098
34479SOL    HW2 5335  14.284  14.189   2.229
34480SOL     OW 5336   8.793   9.933   2.093
34480SOL    HW1 5337   8.817   9.937   2.185
34480SOL    HW2 5338   8.863   9.884   2.051
34481SOL     OW 5339   0.344   3.021   4.698
34481SOL    HW1 5340   0.291   3.077   4.641
34481SOL    HW2 5341   0.408   2.981   4.639
34482SOL     OW 5342  11.617   2.240  10.243
34482SOL    HW1 5343  11.542   2.220  10.187
34482SOL    HW2 5344  11.662   2.156  10.253
34483SOL     OW 5345   9.114   1.604  14.856
34483SOL    HW1 5346   9.143   1.627  14.767
34483SOL    HW2 5347   9.131   1.683   0.025
34484SOL     OW 5348   7.551   1.488   2.842
34484SOL    HW1 5349   7.498   1.555   2.885
34484SOL    HW2 5350   7.614   1.536   2.788
34485SOL     OW 5351   9.278   6.521   6.891
34485SOL    HW1 5352   9.234   6.558   6.815
34485SOL    HW2 5353   9.340   6.458   6.855
34486SOL     OW 5354  10.523   7.480  14.862
34486SOL    HW1 5355  10.470   7.517  14.791
34486SOL    HW2 5356  10.600   7.444  14.818
34487SOL     OW 5357   6.321  12.769  10.364
34487SOL    HW1 5358   6.358  12.778  10.276
34487SOL    HW2 5359   6.396  12.782  10.422
34488SOL     OW 5360   0.580   1.022  11.827
34488SOL    HW1 5361   0.520   0.964  11.873
34488SOL    HW2 5362   0.614   0.969  11.755
34489SOL     OW 5363   3.997   8.341   4.411
34489SOL    HW1 5364   3.940   8.396   4.465
34489SOL    HW2 5365   4.070   8.398   4.386
34490SOL     OW 5366   3.903  13.005   5.978
34490SOL    HW1 5367   3.924  12.913   5.995
34490SOL    HW2 5368   3.918  13.017   5.885
34491SOL     OW 5369  10.978   8.318  14.815
34491SOL    HW1 5370  11.002   8.302  14.723
34491SOL    HW2 5371  10.983   8.414  14.825
34492SOL     OW 5372   1.709   1.442   0.385
34492SOL    HW1 5373   1.670   1.363   0.423
34492SOL    HW2 5374   1.800   1.417   0.366
34493SOL     OW 5375   9.289   7.132  14.166
34493SOL    HW1 5376   9.233   7.070  14.118
34493SOL    HW2 5377   9.282   7.213  14.117
34494SOL     OW 5378  10.512  12.473   9.022
34494SOL    HW1 5379  10.559  12.476   9.106
34494SOL    HW2 5380  10.535  12.555   8.979
34495SOL     OW 5381   8.374   5.061   2.037
34495SOL    HW1 5382   8.360   5.043   2.130
34495SOL    HW2 5383   8.444   5.126   2.036
34496SOL     OW 5384  14.331   4.166  10.932
34496SOL    HW1 5385  14.414   4.121  10.949
34496SOL    HW2 5386  14.339   4.198  10.842
34497SOL     OW 5387   1.755  14.610   3.255
34497SOL    HW1 5388   1.665  14.604   3.225
34497SOL    HW2 5389   1.750  14.659   3.337
34498SOL     OW 5390   2.427   4.981  10.017
34498SOL    HW1 5391   2.433   4.942  10.104
34498SOL    HW2 5392   2.477   5.062  10.023
34499SOL     OW 5393   0.495   0.489  12.401
34499SOL    HW1 5394   0.519   0.524  12.486
34499SOL    HW2 5395   0.450   0.561  12.357
34500SOL     OW 5396   6.154  10.606   2.781
34500SOL    HW1 5397   6.111  10.521   2.766
34500SOL    HW2 5398   6.119  10.636   2.864
34501SOL     OW 5399  13.263   4.467   7.784
34501SOL    HW1 5400  13.347   4.439   7.819
34501SOL    HW2 5401  13.277   4.473   7.689
34502SOL     OW 5402   5.207   1.731   1.410
34502SOL    HW1 5403   5.125   1.690   1.381
34502SOL    HW2 5404   5.250   1.758   1.328
34503SOL     OW 5405  14.862   8.387   6.992
34503SOL    HW1 5406  14.854   8.425   7.080
34503SOL    HW2 5407   0.027   8.305   7.006
34504SOL     OW 5408   4.020   1.165   0.271
34504SOL    HW1 5409   4.094   1.126   0.224
34504SOL    HW2 5410   3.961   1.092   0.288
34505SOL     OW 5411   2.495   4.119   9.774
34505SOL    HW1 5412   2.484   4.026   9.790
34505SOL    HW2 5413   2.497   4.159   9.861
34506SOL     OW 5414  10.024   9.160   0.697
34506SOL    HW1 5415   9.995   9.092   0.757
34506SOL    HW2 5416   9.964   9.233   0.712
34507SOL     OW 5417  11.818   0.563   5.401
34507SOL    HW1 5418  11.843   0.654   5.419
34507SOL    HW2 5419  11.723   0.562   5.407
34508SOL     OW 5420   7.160  11.579   5.373
34508SOL    HW1 5421   7.190  11.499   5.417
34508SOL    HW2 5422   7.081  11.552   5.326
34509SOL     OW 5423   6.356   1.724  12.110
34509SOL    HW1 5424   6.416   1.787  12.150
34509SOL    HW2 5425   6.312   1.683  12.184
34510SOL     OW 5426   1.862   9.929   2.981
34510SOL    HW1 5427   1.785   9.875   2.963
34510SOL    HW2 5428   1.881   9.915   3.073
34511SOL     OW 5429   7.701   4.144   4.570
34511SOL    HW1 5430   7.705   4.176   4.660
34511SOL    HW2 5431   7.645   4.066   4.574
34512SOL     OW 5432   9.898   6.321   7.684
34512SOL    HW1 5433   9.931   6.400   7.642
34512SOL    HW2 5434   9.817   6.301   7.637
34513SOL     OW 5435   2.615  12.120   1.383
34513SOL    HW1 5436   2.530  12.075   1.387
34513SOL    HW2 5437   2.645  12.121   1.474
34514SOL     OW 5438   7.560   3.620   8.641
34514SOL    HW1 5439   7.491   3.683   8.663
34514SOL    HW2 5440   7.562   3.560   8.714
34515SOL     OW 5441   9.899  13.126   9.531
34515SOL    HW1 5442   9.805  13.108   9.537
34515SOL    HW2 5443   9.907  13.192   9.463
34516SOL     OW 5444  14.664   9.560  13.524
34516SOL    HW1 5445  14.716   9.579  13.603
34516SOL    HW2 5446  14.627   9.644  13.500
34517SOL     OW 5447  10.556  14.447  14.732
34517SOL    HW1 5448  10.532  14.407  14.815
34517SOL    HW2 5449  10.613  14.383  14.690
34518SOL     OW 5450   9.867   7.405   8.867
34518SOL    HW1 5451   9.927   7.426   8.939
34518SOL    HW2 5452   9.788   7.373   8.910
34519SOL     OW 5453  12.712   2.865   6.318
34519SOL    HW1 5454  12.645   2.933   6.312
34519SOL    HW2 5455  12.691   2.817   6.399
34520SOL     OW 5456  13.182   5.543   8.914
34520SOL    HW1 5457  13.091   5.542   8.944
34520SOL    HW2 5458  13.183   5.605   8.841
34521SOL     OW 5459   0.587   8.992  13.583
34521SOL    HW1 5460   0.569   8.901  13.603
34521SOL    HW2 5461   0.529   9.012  13.509
34522SOL     OW 5462   7.526   4.991   1.741
34522SOL    HW1 5463   7.434   5.003   1.720
34522SOL    HW2 5464   7.570   5.069   1.706
34523SOL     OW 5465  13.227  11.313   9.617
34523SOL    HW1 5466  13.230  11.218   9.621
34523SOL    HW2 5467  13.277  11.335   9.538
34524SOL     OW 5468   3.020  10.377   5.644
34524SOL    HW1 5469   2.982  10.446   5.590
34524SOL    HW2 5470   2.944  10.331   5.681
34525SOL     OW 5471   3.395   8.606  12.071
34525SOL    HW1 5472   3.470   8.587  12.015
34525SOL    HW2 5473   3.383   8.701  12.064
34526SOL     OW 5474  12.521   5.725   8.510
34526SOL    HW1 5475  12.539   5.664   8.581
34526SOL    HW2 5476  12.577   5.696   8.438
34527SOL     OW 5477   1.986   8.228   0.566
34527SOL    HW1 5478   2.027   8.239   0.652
34527SOL    HW2 5479   1.985   8.133   0.552
34528SOL     OW 5480   8.702   0.195  14.112
34528SOL    HW1 5481   8.671   0.160  14.028
34528SOL    HW2 5482   8.753   0.123  14.150
34529SOL     OW 5483  13.209   9.519   7.613
34529SOL    HW1 5484  13.300   9.535   7.638
34529SOL    HW2 5485  13.185   9.439   7.658
34530SOL     OW 5486  14.486  13.002   9.200
34530SOL    HW1 5487  14.550  12.963   9.141
34530SOL    HW2 5488  14.474  13.091   9.168
34531SOL     OW 5489  14.474   1.707  11.605
34531SOL    HW1 5490  14.391   1.741  11.640
34531SOL    HW2 5491  14.448   1.660  11.525
34532SOL     OW 5492   1.410  10.926   8.336
34532SOL    HW1 5493   1.407  10.878   8.419
34532SOL    HW2 5494   1.392  10.860   8.270
34533SOL     OW 5495   2.520   7.805   6.574
34533SOL    HW1 5496   2.529   7.730   6.515
34533SOL    HW2 5497   2.440   7.849   6.545
34534SOL     OW 5498   3.603   7.509   1.996
34534SOL    HW1 5499   3.648   7.425   1.994
34534SOL    HW2 5500   3.622   7.545   2.083
34535SOL     OW 5501   7.152   3.168   8.636
34535SOL    HW1 5502   7.070   3.208   8.606
34535SOL    HW2 5503   7.216   3.239   8.636
34536SOL     OW 5504   4.624   7.435   5.432
34536SOL    HW1 5505   4.626   7.344   5.461
34536SOL    HW2 5506   4.684   7.480   5.492
34537SOL     OW 5507  14.376   3.415   1.370
34537SOL    HW1 5508  14.442   3.383   1.308
34537SOL    HW2 5509  14.292   3.395   1.329
34538SOL     OW 5510   9.640   6.590   6.136
34538SOL    HW1 5511   9.569   6.639   6.178
34538SOL    HW2 5512   9.601   6.558   6.054
34539SOL     OW 5513   3.316  11.204  11.772
34539SOL    HW1 5514   3.329  11.229  11.864
34539SOL    HW2 5515   3.288  11.284  11.729
34540SOL     OW 5516   7.131   6.455   1.720
34540SOL    HW1 5517   7.049   6.409   1.730
34540SOL    HW2 5518   7.117   6.514   1.645
34541SOL     OW 5519   6.810   3.260   1.139
34541SOL    HW1 5520   6.875   3.248   1.071
34541SOL    HW2 5521   6.826   3.348   1.173
34542SOL     OW 5522   9.085   2.677   3.351
34542SOL    HW1 5523   9.135   2.730   3.289
34542SOL    HW2 5524   9.003   2.657   3.306
34543SOL     OW 5525   0.042  10.007   9.415
34543SOL    HW1 5526   0.075   9.979   9.500
34543SOL    HW2 5527   0.106   9.975   9.352
34544SOL     OW 5528   5.567  12.577   9.065
34544SOL    HW1 5529   5.632  12.520   9.023
34544SOL    HW2 5530   5.485  12.529   9.058
34545SOL     OW 5531   8.903   0.258  13.574
34545SOL    HW1 5532   8.954   0.214  13.506
34545SOL    HW2 5533   8.847   0.319  13.527
34546SOL     OW 5534   5.347   8.501   1.673
34546SOL    HW1 5535   5.311   8.476   1.588
34546SOL    HW2 5536   5.436   8.464   1.673
34547SOL     OW 5537   6.071   0.647  13.466
34547SOL    HW1 5538   6.109   0.589  13.401
34547SOL    HW2 5539   6.143   0.667  13.525
34548SOL     OW 5540   8.497   4.908   6.823
34548SOL    HW1 5541   8.498   4.952   6.908
34548SOL    HW2 5542   8.469   4.975   6.761
34549SOL     OW 5543   3.645   7.958   5.823
34549SOL    HW1 5544   3.739   7.937   5.820
34549SOL    HW2 5545   3.601   7.875   5.806
34550SOL     OW 5546  10.515   4.208   8.472
34550SOL    HW1 5547  10.523   4.231   8.379
34550SOL    HW2 5548  10.425   4.174   8.480
34551SOL     OW 5549  12.504  10.789  14.572
34551SOL    HW1 5550  12.521  10.871  14.620
34551SOL    HW2 5551  12.502  10.722  14.639
34552SOL     OW 5552  12.818   8.938   5.171
34552SOL    HW1 5553  12.792   8.985   5.091
34552SOL    HW2 5554  12.745   8.879   5.188
34553SOL     OW 5555   6.048  12.610   1.031
34553SOL    HW1 5556   6.032  12.705   1.030
34553SOL    HW2 5557   5.977  12.573   0.979
34554SOL     OW 5558   4.764   0.199  13.501
34554SOL    HW1 5559   4.687   0.255  13.500
34554SOL    HW2 5560   4.734   0.115  13.465
34555SOL     OW 5561   3.287   6.114  11.434
34555SOL    HW1 5562   3.308   6.020  11.437
34555SOL    HW2 5563   3.193   6.118  11.449
34556SOL     OW 5564  10.437  10.449   5.718
34556SOL    HW1 5565  10.466  10.358   5.727
34556SOL    HW2 5566  10.511  10.501   5.751
34557SOL     OW 5567   2.474   9.473   0.619
34557SOL    HW1 5568   2.451   9.384   0.593
34557SOL    HW2 5569   2.557   9.490   0.576
34558SOL     OW 5570   0.060   6.110  11.602
34558SOL    HW1 5571   0.143   6.095  11.647
34558SOL    HW2 5572   0.084   6.117  11.509
34559SOL     OW 5573  14.376   8.924   3.295
34559SOL    HW1 5574  14.366   8.984   3.369
34559SOL    HW2 5575  14.429   8.852   3.330
34560SOL     OW 5576  14.350   1.701  12.685
34560SOL    HW1 5577  14.392   1.616  12.670
34560SOL    HW2 5578  14.261   1.679  12.710
34561SOL     OW 5579   8.731   5.939   9.399
34561SOL    HW1 5580   8.820   5.911   9.376
34561SOL    HW2 5581   8.728   6.031   9.374
34562SOL     OW 5582   9.776   6.137  12.032
34562SOL    HW1 5583   9.794   6.193  12.108
34562SOL    HW2 5584   9.756   6.199  11.962
34563SOL     OW 5585  14.565   3.708   5.798
34563SOL    HW1 5586  14.552   3.742   5.886
34563SOL    HW2 5587  14.650   3.664   5.802
34564SOL     OW 5588   2.345  13.250   4.713
34564SOL    HW1 5589   2.397  13.278   4.637
34564SOL    HW2 5590   2.367  13.313   4.782
34565SOL     OW 5591   7.987   8.338   9.396
34565SOL    HW1 5592   7.893   8.352   9.398
34565SOL    HW2 5593   8.023   8.419   9.359
34566SOL     OW 5594  10.498   5.141  13.539
34566SOL    HW1 5595  10.404   5.154  13.529
34566SOL    HW2 5596  10.537   5.215  13.494
34567SOL     OW 5597   3.733   9.816  14.325
34567SOL    HW1 5598   3.810   9.867  14.300
34567SOL    HW2 5599   3.659   9.866  14.290
34568SOL     OW 5600   2.192   5.478   5.888
34568SOL    HW1 5601   2.265   5.421   5.864
34568SOL    HW2 5602   2.127   5.463   5.819
34569SOL     OW 5603  12.908   7.722   1.297
34569SOL    HW1 5604  12.866   7.637   1.301
34569SOL    HW2 5605  12.991   7.711   1.344
34570SOL     OW 5606   4.243   8.406  14.039
34570SOL    HW1 5607   4.331   8.392  14.003
34570SOL    HW2 5608   4.250   8.378  14.130
34571SOL     OW 5609   6.060  11.458  14.469
34571SOL    HW1 5610   5.982  11.408  14.495
34571SOL    HW2 5611   6.047  11.544  14.508
34572SOL     OW 5612   0.908   2.878  12.373
34572SOL    HW1 5613   0.909   2.964  12.415
34572SOL    HW2 5614   0.959   2.823  12.432
34573SOL     OW 5615   5.736   0.243   0.381
34573SOL    HW1 5616   5.782   0.281   0.456
34573SOL    HW2 5617   5.804   0.233   0.314
34574SOL     OW 5618   5.913   5.315   0.003
34574SOL    HW1 5619   5.891   5.251   0.070
34574SOL    HW2 5620   5.941   5.263  14.810
34575SOL     OW 5621   8.755  14.228  13.747
34575SOL    HW1 5622   8.677  14.173  13.739
34575SOL    HW2 5623   8.723  14.310  13.786
34576SOL     OW 5624   7.531   7.184   8.700
34576SOL    HW1 5625   7.541   7.093   8.672
34576SOL    HW2 5626   7.474   7.179   8.777
34577SOL     OW 5627   3.206   5.211   4.336
34577SOL    HW1 5628   3.213   5.116   4.324
34577SOL    HW2 5629   3.112   5.228   4.335
34578SOL     OW 5630   4.567   3.842   7.321
34578SOL    HW1 5631   4.481   3.885   7.326
34578SOL    HW2 5632   4.549   3.750   7.339
34579SOL     OW 5633   2.677  14.585  12.621
34579SOL    HW1 5634   2.731  14.507  12.635
34579SOL    HW2 5635   2.715  14.626  12.542
34580SOL     OW 5636   2.915  11.382   6.026
34580SOL    HW1 5637   2.877  11.308   6.073
34580SOL    HW2 5638   3.003  11.391   6.062
34581SOL     OW 5639  13.277   8.417   5.262
34581SOL    HW1 5640  13.350   8.362   5.292
34581SOL    HW2 5641  13.199   8.370   5.289
34582SOL     OW 5642  13.591  14.882   6.873
34582SOL    HW1 5643  13.645  14.807   6.847
34582SOL    HW2 5644  13.652   0.061   6.912
34583SOL     OW 5645   4.240   6.525   2.059
34583SOL    HW1 5646   4.336   6.526   2.053
34583SOL    HW2 5647   4.212   6.478   1.980
34584SOL     OW 5648   8.630   3.901  14.765
34584SOL    HW1 5649   8.688   3.841  14.813
34584SOL    HW2 5650   8.686   3.939  14.698
34585SOL     OW 5651   0.540   8.514  11.094
34585SOL    HW1 5652   0.627   8.495  11.057
34585SOL    HW2 5653   0.519   8.435  11.145
34586SOL     OW 5654   5.569  12.510   1.208
34586SOL    HW1 5655   5.583  12.582   1.147
34586SOL    HW2 5656   5.626  12.531   1.283
34587SOL     OW 5657   0.144   5.739   6.828
34587SOL    HW1 5658   0.197   5.797   6.882
34587SOL    HW2 5659   0.176   5.753   6.739
34588SOL     OW 5660   7.192   9.591   5.402
34588SOL    HW1 5661   7.214   9.669   5.351
34588SOL    HW2 5662   7.273   9.539   5.403
34589SOL     OW 5663   5.043   8.493   5.158
34589SOL    HW1 5664   5.000   8.513   5.241
34589SOL    HW2 5665   4.973   8.455   5.104
34590SOL     OW 5666   2.411   0.236   1.157
34590SOL    HW1 5667   2.351   0.310   1.161
34590SOL    HW2 5668   2.370   0.169   1.211
34591SOL     OW 5669  10.903  10.617  13.689
34591SOL    HW1 5670  10.871  10.591  13.603
34591SOL    HW2 5671  10.826  10.614  13.745
34592SOL     OW 5672  11.322   5.476   9.723
34592SOL    HW1 5673  11.235   5.488   9.763
34592SOL    HW2 5674  11.312   5.398   9.669
34593SOL     OW 5675  14.463   1.874  10.511
34593SOL    HW1 5676  14.471   1.797  10.454
34593SOL    HW2 5677  14.423   1.839  10.591
34594SOL     OW 5678   8.218   4.669   7.115
34594SOL    HW1 5679   8.262   4.594   7.074
34594SOL    HW2 5680   8.131   4.636   7.138
34595SOL     OW 5681   3.021   7.068   2.022
34595SOL    HW1 5682   2.930   7.065   1.992
34595SOL    HW2 5683   3.018   7.037   2.112
34596SOL     OW 5684   7.668   7.413   0.108
34596SOL    HW1 5685   7.676   7.317   0.103
34596SOL    HW2 5686   7.587   7.433   0.061
34597SOL     OW 5687   2.121   7.746  14.074
34597SOL    HW1 5688   2.067   7.783  14.004
34597SOL    HW2 5689   2.138   7.820  14.132
34598SOL     OW 5690   5.801   3.067   1.153
34598SOL    HW1 5691   5.798   3.029   1.066
34598SOL    HW2 5692   5.776   2.996   1.212
34599SOL     OW 5693  12.066   6.989  11.442
34599SOL    HW1 5694  12.017   6.907  11.443
34599SOL    HW2 5695  12.093   7.002  11.533
34600SOL     OW 5696  13.407   8.984   0.176
34600SOL    HW1 5697  13.465   9.010   0.105
34600SOL    HW2 5698  13.370   9.066   0.208
34601SOL     OW 5699  14.265  10.584   3.121
34601SOL    HW1 5700  14.251  10.672   3.086
34601SOL    HW2 5701  14.246  10.591   3.214
34602SOL     OW 5702   6.259  11.074   5.031
34602SOL    HW1 5703   6.276  11.106   5.120
34602SOL    HW2 5704   6.340  11.090   4.983
34603SOL     OW 5705   3.799   6.941   0.038
34603SOL    HW1 5706   3.770   6.984   0.119
34603SOL    HW2 5707   3.822   6.852   0.066
34604SOL     OW 5708   9.060   2.271   6.589
34604SOL    HW1 5709   9.057   2.198   6.528
34604SOL    HW2 5710   9.147   2.265   6.628
34605SOL     OW 5711   1.737  10.616   8.823
34605SOL    HW1 5712   1.713  10.708   8.820
34605SOL    HW2 5713   1.821  10.614   8.868
34606SOL     OW 5714   3.383   8.298  10.664
34606SOL    HW1 5715   3.427   8.322  10.583
34606SOL    HW2 5716   3.374   8.380  10.712
34607SOL     OW 5717  10.313   3.979  12.954
34607SOL    HW1 5718  10.325   4.054  12.897
34607SOL    HW2 5719  10.248   3.925  12.909
34608SOL     OW 5720   3.836  11.599  10.914
34608SOL    HW1 5721   3.811  11.691  10.927
34608SOL    HW2 5722   3.770  11.565  10.853
34609SOL     OW 5723  10.010   9.851   0.901
34609SOL    HW1 5724   9.926   9.887   0.928
34609SOL    HW2 5725  10.053   9.923   0.855
34610SOL     OW 5726   5.002  14.071   8.714
34610SOL    HW1 5727   5.041  14.105   8.634
34610SOL    HW2 5728   4.933  14.134   8.736
34611SOL     OW 5729  14.371   0.782  14.530
34611SOL    HW1 5730  14.381   0.830  14.612
34611SOL    HW2 5731  14.277   0.784  14.512
34612SOL     OW 5732  10.666  12.167   8.490
34612SOL    HW1 5733  10.705  12.236   8.545
34612SOL    HW2 5734  10.594  12.210   8.445
34613SOL     OW 5735   1.570  10.629  12.746
34613SOL    HW1 5736   1.516  10.576  12.804
34613SOL    HW2 5737   1.513  10.700  12.718
34614SOL     OW 5738   1.463  14.728   6.977
34614SOL    HW1 5739   1.499  14.673   6.907
34614SOL    HW2 5740   1.386  14.681   7.008
34615SOL     OW 5741  11.908   0.858   9.303
34615SOL    HW1 5742  11.814   0.861   9.324
34615SOL    HW2 5743  11.911   0.855   9.208
34616SOL     OW 5744   4.350   1.882   7.494
34616SOL    HW1 5745   4.444   1.891   7.479
34616SOL    HW2 5746   4.344   1.853   7.585
34617SOL     OW 5747   1.027   7.097  13.393
34617SOL    HW1 5748   1.014   7.128  13.303
34617SOL    HW2 5749   1.052   7.005  13.382
34618SOL     OW 5750   2.741  11.905  12.635
34618SOL    HW1 5751   2.804  11.851  12.588
34618SOL    HW2 5752   2.742  11.871  12.725
34619SOL     OW 5753   8.894   7.678  13.795
34619SOL    HW1 5754   8.958   7.740  13.761
34619SOL    HW2 5755   8.835   7.730  13.849
34620SOL     OW 5756  13.375   6.358   5.601
34620SOL    HW1 5757  13.415   6.394   5.522
34620SOL    HW2 5758  13.428   6.392   5.673
34621SOL     OW 5759   5.784  13.597   1.118
34621SOL    HW1 5760   5.714  13.532   1.118
34621SOL    HW2 5761   5.845  13.567   1.185
34622SOL     OW 5762   3.054   5.942  13.602
34622SOL    HW1 5763   2.969   5.936  13.647
34622SOL    HW2 5764   3.112   5.985  13.665
34623SOL     OW 5765   2.215   9.353   0.518
34623SOL    HW1 5766   2.225   9.315   0.431
34623SOL    HW2 5767   2.184   9.442   0.503
34624SOL     OW 5768   5.059   0.953  12.106
34624SOL    HW1 5769   5.092   0.932  12.194
34624SOL    HW2 5770   5.126   1.009  12.068
34625SOL     OW 5771   0.741   2.027   0.714
34625SOL    HW1 5772   0.683   1.973   0.662
34625SOL    HW2 5773   0.794   1.965   0.764
34626SOL     OW 5774  14.070   8.654   8.023
34626SOL    HW1 5775  14.127   8.595   7.975
34626SOL    HW2 5776  14.015   8.694   7.956
34627SOL     OW 5777   2.344  13.810  10.745
34627SOL    HW1 5778   2.313  13.729  10.705
34627SOL    HW2 5779   2.373  13.784  10.833
34628SOL     OW 5780   3.778  13.010   7.148
34628SOL    HW1 5781   3.803  13.065   7.074
34628SOL    HW2 5782   3.860  12.976   7.182
34629SOL     OW 5783   5.127   1.342   3.552
34629SOL    HW1 5784   5.147   1.332   3.459
34629SOL    HW2 5785   5.142   1.255   3.589
34630SOL     OW 5786  14.139  10.837   4.182
34630SOL    HW1 5787  14.055  10.800   4.208
34630SOL    HW2 5788  14.200  10.810   4.251
34631SOL     OW 5789  10.630   3.823   8.954
34631SOL    HW1 5790  10.648   3.732   8.978
34631SOL    HW2 5791  10.561   3.816   8.888
34632SOL     OW 5792   5.708   0.009   4.762
34632SOL    HW1 5793   5.801  14.867   4.762
34632SOL    HW2 5794   5.662  14.809   4.778
34633SOL     OW 5795   5.234  13.096   6.645
34633SOL    HW1 5796   5.205  13.150   6.572
34633SOL    HW2 5797   5.186  13.014   6.634
34634SOL     OW 5798   6.337  11.985  14.334
34634SOL    HW1 5799   6.263  11.977  14.274
34634SOL    HW2 5800   6.413  11.992  14.278
34635SOL     OW 5801  12.118   1.350   0.618
34635SOL    HW1 5802  12.073   1.434   0.609
34635SOL    HW2 5803  12.178   1.363   0.692
34636SOL     OW 5804   4.708   9.333  14.754
34636SOL    HW1 5805   4.716   9.243  14.721
34636SOL    HW2 5806   4.764   9.385  14.696
34637SOL     OW 5807  10.884   7.504   2.520
34637SOL    HW1 5808  10.966   7.549   2.542
34637SOL    HW2 5809  10.817   7.573   2.525
34638SOL     OW 5810  12.175   8.078   3.371
34638SOL    HW1 5811  12.193   8.071   3.277
34638SOL    HW2 5812  12.229   8.008   3.410
34639SOL     OW 5813   2.966   0.522  13.343
34639SOL    HW1 5814   2.953   0.445  13.398
34639SOL    HW2 5815   3.043   0.565  13.380
34640SOL     OW 5816   1.000  12.297   3.257
34640SOL    HW1 5817   0.940  12.369   3.277
34640SOL    HW2 5818   1.019  12.258   3.342
34641SOL     OW 5819   5.067   2.274   4.195
34641SOL    HW1 5820   5.144   2.331   4.193
34641SOL    HW2 5821   5.099   2.190   4.164
34642SOL     OW 5822   6.761  10.795  11.657
34642SOL    HW1 5823   6.684  10.743  11.682
34642SOL    HW2 5824   6.835  10.748  11.694
34643SOL     OW 5825  11.612  11.684  12.464
34643SOL    HW1 5826  11.577  11.773  12.464
34643SOL    HW2 5827  11.538  11.628  12.486
34644SOL     OW 5828   3.374  13.097  14.765
34644SOL    HW1 5829   3.413  13.161  14.706
34644SOL    HW2 5830   3.321  13.041  14.707
34645SOL     OW 5831  14.518   6.040   7.031
34645SOL    HW1 5832  14.439   6.089   7.055
34645SOL    HW2 5833  14.520   5.967   7.092
34646SOL     OW 5834  10.631  12.323   1.610
34646SOL    HW1 5835  10.644  12.418   1.616
34646SOL    HW2 5836  10.665  12.299   1.524
34647SOL     OW 5837  14.538   8.158   2.560
34647SOL    HW1 5838  14.606   8.205   2.511
34647SOL    HW2 5839  14.478   8.227   2.590
34648SOL     OW 5840   8.329   7.340   0.981
34648SOL    HW1 5841   8.365   7.421   1.017
34648SOL    HW2 5842   8.403   7.296   0.940
34649SOL     OW 5843   1.486   0.262   1.742
34649SOL    HW1 5844   1.486   0.253   1.647
34649SOL    HW2 5845   1.481   0.172   1.775
34650SOL     OW 5846  10.661   2.578   2.609
34650SOL    HW1 5847  10.698   2.665   2.593
34650SOL    HW2 5848  10.737   2.521   2.623
34651SOL     OW 5849  14.627   0.662   8.780
34651SOL    HW1 5850  14.547   0.664   8.833
34651SOL    HW2 5851  14.693   0.705   8.834
34652SOL     OW 5852   2.627  11.687  11.426
34652SOL    HW1 5853   2.611  11.617  11.490
34652SOL    HW2 5854   2.721  11.703  11.431
34653SOL     OW 5855   8.477  13.444  10.156
34653SOL    HW1 5856   8.385  13.462  10.176
34653SOL    HW2 5857   8.500  13.508  10.089
34654SOL     OW 5858   4.236   3.272   0.599
34654SOL    HW1 5859   4.325   3.304   0.618
34654SOL    HW2 5860   4.247   3.217   0.522
34655SOL     OW 5861   3.060   8.018  13.073
34655SOL    HW1 5862   3.130   8.022  13.138
34655SOL    HW2 5863   3.091   7.954  13.008
34656SOL     OW 5864  14.514   8.936   5.486
34656SOL    HW1 5865  14.533   8.990   5.409
34656SOL    HW2 5866  14.453   8.869   5.455
34657SOL     OW 5867   3.430   5.253  12.600
34657SOL    HW1 5868   3.437   5.345  12.624
34657SOL    HW2 5869   3.451   5.251  12.507
34658SOL     OW 5870   7.864  13.106   3.740
34658SOL    HW1 5871   7.784  13.077   3.695
34658SOL    HW2 5872   7.858  13.066   3.827
34659SOL     OW 5873   7.533   1.901   5.793
34659SOL    HW1 5874   7.447   1.865   5.813
34659SOL    HW2 5875   7.587   1.878   5.870
34660SOL     OW 5876   8.460   7.584   6.752
34660SOL    HW1 5877   8.480   7.672   6.784
34660SOL    HW2 5878   8.365   7.576   6.763
34661SOL     OW 5879  14.444  14.023   5.360
34661SOL    HW1 5880  14.524  13.971   5.357
34661SOL    HW2 5881  14.419  14.034   5.268
34662SOL     OW 5882   9.690   2.683   0.623
34662SOL    HW1 5883   9.748   2.747   0.584
34662SOL    HW2 5884   9.605   2.727   0.630
34663SOL     OW 5885   7.041   6.082   9.141
34663SOL    HW1 5886   7.020   6.175   9.145
34663SOL    HW2 5887   6.969   6.042   9.093
34664SOL     OW 5888   0.942  11.754   3.194
34664SOL    HW1 5889   0.890  11.710   3.261
34664SOL    HW2 5890   0.882  11.819   3.157
34665SOL     OW 5891  10.051  14.164   8.072
34665SOL    HW1 5892  10.145  14.178   8.086
34665SOL    HW2 5893  10.016  14.154   8.161
34666SOL     OW 5894   6.924   5.954   5.192
34666SOL    HW1 5895   7.008   6.000   5.186
34666SOL    HW2 5896   6.858   6.022   5.178
34667SOL     OW 5897   2.044   2.709   2.410
34667SOL    HW1 5898   2.117   2.739   2.464
34667SOL    HW2 5899   2.075   2.718   2.320
34668SOL     OW 5900   9.748   0.586  12.177
34668SOL    HW1 5901   9.774   0.677  12.160
34668SOL    HW2 5902   9.759   0.542  12.093
34669SOL     OW 5903  10.338  14.825   3.575
34669SOL    HW1 5904  10.299  14.740   3.595
34669SOL    HW2 5905  10.340  14.871   3.658
34670SOL     OW 5906   3.487   5.435   3.063
34670SOL    HW1 5907   3.471   5.527   3.085
34670SOL    HW2 5908   3.555   5.408   3.125
34671SOL     OW 5909   5.224  14.597   3.335
34671SOL    HW1 5910   5.145  14.564   3.379
34671SOL    HW2 5911   5.227  14.550   3.252
34672SOL     OW 5912   9.716  13.370   7.635
34672SOL    HW1 5913   9.811  13.359   7.646
34672SOL    HW2 5914   9.693  13.436   7.700
34673SOL     OW 5915   1.364  14.112   0.888
34673SOL    HW1 5916   1.419  14.096   0.965
34673SOL    HW2 5917   1.423  14.102   0.814
34674SOL     OW 5918   6.475  12.080   0.321
34674SOL    HW1 5919   6.519  12.164   0.311
34674SOL    HW2 5920   6.438  12.062   0.234
34675SOL     OW 5921  14.063   6.791  10.858
34675SOL    HW1 5922  13.994   6.725  10.859
34675SOL    HW2 5923  14.066   6.823  10.948
34676SOL     OW 5924   3.475   5.634   2.425
34676SOL    HW1 5925   3.400   5.686   2.452
34676SOL    HW2 5926   3.547   5.664   2.481
34677SOL     OW 5927   8.170  13.480   9.178
34677SOL    HW1 5928   8.075  13.468   9.177
34677SOL    HW2 5929   8.181  13.574   9.192
34678SOL     OW 5930  10.710  14.446   3.686
34678SOL    HW1 5931  10.698  14.540   3.691
34678SOL    HW2 5932  10.634  14.409   3.730
34679SOL     OW 5933   3.322   6.422   3.337
34679SOL    HW1 5934   3.308   6.504   3.384
34679SOL    HW2 5935   3.326   6.355   3.406
34680SOL     OW 5936  13.121  10.511   9.603
34680SOL    HW1 5937  13.157  10.598   9.587
34680SOL    HW2 5938  13.198  10.453   9.601
34681SOL     OW 5939  14.457   1.792   9.596
34681SOL    HW1 5940  14.484   1.701   9.609
34681SOL    HW2 5941  14.504   1.841   9.663
34682SOL     OW 5942   0.775  10.721   4.708
34682SOL    HW1 5943   0.741  10.632   4.717
34682SOL    HW2 5944   0.746  10.749   4.621
34683SOL     OW 5945   2.608  13.865  13.279
34683SOL    HW1 5946   2.547  13.822  13.339
34683SOL    HW2 5947   2.646  13.936  13.331
34684SOL     OW 5948   4.454   5.345   8.443
34684SOL    HW1 5949   4.448   5.363   8.349
34684SOL    HW2 5950   4.364   5.355   8.475
34685SOL     OW 5951  10.496   1.077   6.919
34685SOL    HW1 5952  10.561   1.122   6.866
34685SOL    HW2 5953  10.416   1.080   6.866
34686SOL     OW 5954  13.226   3.671  13.331
34686SOL    HW1 5955  13.186   3.713  13.407
34686SOL    HW2 5956  13.233   3.740  13.265
34687SOL     OW 5957   2.428  13.028  14.508
34687SOL    HW1 5958   2.440  13.010  14.414
34687SOL    HW2 5959   2.396  12.946  14.544
34688SOL     OW 5960  13.909  10.713   3.229
34688SOL    HW1 5961  13.882  10.797   3.191
34688SOL    HW2 5962  13.960  10.737   3.306
34689SOL     OW 5963   8.646   1.765   6.154
34689SOL    HW1 5964   8.627   1.726   6.068
34689SOL    HW2 5965   8.584   1.837   6.162
34690SOL     OW 5966   9.127  10.371  13.054
34690SOL    HW1 5967   9.111  10.279  13.031
34690SOL    HW2 5968   9.222  10.380  13.054
34691SOL     OW 5969   5.579   1.031   3.813
34691SOL    HW1 5970   5.606   1.088   3.885
34691SOL    HW2 5971   5.558   1.091   3.742
34692SOL     OW 5972   0.124  14.113  14.494
34692SOL    HW1 5973   0.089  14.024  14.493
34692SOL    HW2 5974   0.160  14.125  14.406
34693SOL     OW 5975   7.594  11.372   5.350
34693SOL    HW1 5976   7.614  11.420   5.270
34693SOL    HW2 5977   7.600  11.437   5.420
34694SOL     OW 5978   0.775  12.230   4.254
34694SOL    HW1 5979   0.695  12.180   4.269
34694SOL    HW2 5980   0.789  12.278   4.336
34695SOL     OW 5981  12.963   4.500   3.264
34695SOL    HW1 5982  13.009   4.540   3.190
34695SOL    HW2 5983  12.969   4.406   3.248
34696SOL     OW 5984  11.336  12.668   4.040
34696SOL    HW1 5985  11.346  12.683   4.134
34696SOL    HW2 5986  11.243  12.678   4.024
34697SOL     OW 5987  13.484   4.953   7.203
34697SOL    HW1 5988  13.505   5.035   7.159
34697SOL    HW2 5989  13.388   4.952   7.207
34698SOL     OW 5990   8.767  10.316   4.206
34698SOL    HW1 5991   8.779  10.410   4.214
34698SOL    HW2 5992   8.686  10.297   4.254
34699SOL     OW 5993   2.908   8.641  14.386
34699SOL    HW1 5994   2.846   8.655  14.457
34699SOL    HW2 5995   2.917   8.727  14.345
34700SOL     OW 5996   5.989  14.372   9.553
34700SOL    HW1 5997   6.081  14.379   9.528
34700SOL    HW2 5998   5.980  14.283   9.587
34701SOL     OW 5999   5.758  12.799   2.828
34701SOL    HW1 6000   5.678  12.759   2.862
34701SOL    HW2 6001   5.826  12.734   2.846
34702SOL     OW 6002   0.115   1.578   6.209
34702SOL    HW1 6003   0.042   1.619   6.164
34702SOL    HW2 6004   0.106   1.605   6.301
34703SOL     OW 6005   9.620  12.178   9.303
34703SOL    HW1 6006   9.590  12.089   9.322
34703SOL    HW2 6007   9.581  12.231   9.373
34704SOL     OW 6008   7.727  12.267  12.701
34704SOL    HW1 6009   7.814  12.305  12.684
34704SOL    HW2 6010   7.720  12.195  12.640
34705SOL     OW 6011   2.787   0.619   1.729
34705SOL    HW1 6012   2.768   0.628   1.635
34705SOL    HW2 6013   2.875   0.656   1.739
34706SOL     OW 6014   3.863  10.827   2.303
34706SOL    HW1 6015   3.886  10.772   2.378
34706SOL    HW2 6016   3.898  10.779   2.228
34707SOL     OW 6017  12.069   1.636   8.895
34707SOL    HW1 6018  11.985   1.673   8.867
34707SOL    HW2 6019  12.126   1.712   8.906
34708SOL     OW 6020  12.988   7.714   9.775
34708SOL    HW1 6021  13.025   7.758   9.699
34708SOL    HW2 6022  12.933   7.780   9.817
34709SOL     OW 6023   9.930   7.110   1.316
34709SOL    HW1 6024   9.939   7.025   1.360
34709SOL    HW2 6025   9.970   7.172   1.377
34710SOL     OW 6026   0.569   0.237   1.659
34710SOL    HW1 6027   0.478   0.208   1.669
34710SOL    HW2 6028   0.595   0.263   1.747
34711SOL     OW 6029  10.962   9.212  13.479
34711SOL    HW1 6030  10.901   9.235  13.409
34711SOL    HW2 6031  11.030   9.160  13.436
34712SOL     OW 6032   5.615   1.989   6.189
34712SOL    HW1 6033   5.685   2.046   6.158
34712SOL    HW2 6034   5.641   1.902   6.159
34713SOL     OW 6035  13.252   5.433   3.593
34713SOL    HW1 6036  13.173   5.394   3.555
34713SOL    HW2 6037  13.263   5.389   3.677
34714SOL     OW 6038  13.395  10.778  14.797
34714SOL    HW1 6039  13.418  10.699  14.846
34714SOL    HW2 6040  13.431  10.850  14.850
34715SOL     OW 6041   5.950   4.314  12.669
34715SOL    HW1 6042   5.910   4.366  12.599
34715SOL    HW2 6043   6.004   4.250  12.623
34716SOL     OW 6044   0.578   5.221   7.224
34716SOL    HW1 6045   0.642   5.152   7.240
34716SOL    HW2 6046   0.630   5.297   7.199
34717SOL     OW 6047  10.406  12.908   8.654
34717SOL    HW1 6048  10.478  12.903   8.718
34717SOL    HW2 6049  10.444  12.954   8.579
34718SOL     OW 6050  13.840   3.602   3.581
34718SOL    HW1 6051  13.897   3.615   3.505
34718SOL    HW2 6052  13.804   3.514   3.569
34719SOL     OW 6053  10.051   7.267   5.796
34719SOL    HW1 6054  10.062   7.173   5.810
34719SOL    HW2 6055  10.109   7.308   5.860
34720SOL     OW 6056   8.340   9.026   1.444
34720SOL    HW1 6057   8.421   8.990   1.408
34720SOL    HW2 6058   8.356   9.120   1.449
34721SOL     OW 6059  13.448   7.462  10.902
34721SOL    HW1 6060  13.417   7.374  10.882
34721SOL    HW2 6061  13.374   7.519  10.882
34722SOL     OW 6062   2.390  12.664  13.510
34722SOL    HW1 6063   2.420  12.584  13.553
34722SOL    HW2 6064   2.425  12.658  13.421
34723SOL     OW 6065   3.226   5.640   4.673
34723SOL    HW1 6066   3.243   5.602   4.759
34723SOL    HW2 6067   3.133   5.663   4.675
34724SOL     OW 6068  10.658   6.365   1.473
34724SOL    HW1 6069  10.583   6.400   1.523
34724SOL    HW2 6070  10.691   6.293   1.527
34725SOL     OW 6071  14.322   3.987   0.580
34725SOL    HW1 6072  14.237   3.964   0.616
34725SOL    HW2 6073  14.330   3.936   0.500
34726SOL     OW 6074   7.712  11.305   7.247
34726SOL    HW1 6075   7.687  11.397   7.253
34726SOL    HW2 6076   7.655  11.260   7.309
34727SOL     OW 6077  13.332  10.947   2.007
34727SOL    HW1 6078  13.372  10.982   1.928
34727SOL    HW2 6079  13.391  10.878   2.036
34728SOL     OW 6080   5.983   3.795   0.019
34728SOL    HW1 6081   5.907   3.853   0.027
34728SOL    HW2 6082   5.951   3.721  14.849
34729SOL     OW 6083  10.830   2.363   2.638
34729SOL    HW1 6084  10.804   2.307   2.711
34729SOL    HW2 6085  10.874   2.305   2.576
34730SOL     OW 6086   2.596   0.170   6.433
34730SOL    HW1 6087   2.626   0.125   6.354
34730SOL    HW2 6088   2.625   0.114   6.505
34731SOL     OW 6089   8.254   5.034   7.584
34731SOL    HW1 6090   8.223   5.022   7.494
34731SOL    HW2 6091   8.274   5.128   7.590
34732SOL     OW 6092   5.027  13.906  10.561
34732SOL    HW1 6093   5.006  13.816  10.537
34732SOL    HW2 6094   5.019  13.908  10.656
34733SOL     OW 6095  11.727   7.487  14.728
34733SOL    HW1 6096  11.680   7.506  14.647
34733SOL    HW2 6097  11.735   7.572  14.771
34734SOL     OW 6098   0.136   8.200  10.513
34734SOL    HW1 6099   0.133   8.287  10.554
34734SOL    HW2 6100   0.055   8.195  10.461
34735SOL     OW 6101   3.987   8.365   3.346
34735SOL    HW1 6102   3.904   8.319   3.349
34735SOL    HW2 6103   4.003   8.382   3.253
34736SOL     OW 6104   8.903   0.226  12.968
34736SOL    HW1 6105   8.940   0.268  13.045
34736SOL    HW2 6106   8.811   0.211  12.991
34737SOL     OW 6107  13.606   5.413  14.159
34737SOL    HW1 6108  13.512   5.398  14.155
34737SOL    HW2 6109  13.640   5.371  14.079
34738SOL     OW 6110   3.931   2.589   5.510
34738SOL    HW1 6111   3.927   2.509   5.458
34738SOL    HW2 6112   3.918   2.560   5.600
34739SOL     OW 6113  14.427   9.919  10.103
34739SOL    HW1 6114  14.469  10.003  10.085
34739SOL    HW2 6115  14.334   9.940  10.113
34740SOL     OW 6116   2.912   2.919  12.169
34740SOL    HW1 6117   2.833   2.971  12.155
34740SOL    HW2 6118   2.929   2.928  12.263
34741SOL     OW 6119   9.031  11.315   8.712
34741SOL    HW1 6120   8.944  11.331   8.747
34741SOL    HW2 6121   9.089  11.368   8.767
34742SOL     OW 6122   5.227   9.603   8.271
34742SOL    HW1 6123   5.141   9.590   8.230
34742SOL    HW2 6124   5.257   9.515   8.290
34743SOL     OW 6125  13.018  13.150   8.832
34743SOL    HW1 6126  13.001  13.207   8.907
34743SOL    HW2 6127  13.076  13.083   8.867
34744SOL     OW 6128   4.808  12.613  13.899
34744SOL    HW1 6129   4.744  12.542  13.898
34744SOL    HW2 6130   4.889  12.574  13.932
34745SOL     OW 6131  12.215  10.536   0.710
34745SOL    HW1 6132  12.207  10.471   0.640
34745SOL    HW2 6133  12.159  10.608   0.683
34746SOL     OW 6134   3.107   6.931  10.032
34746SOL    HW1 6135   3.102   6.922   9.937
34746SOL    HW2 6136   3.163   6.857  10.060
34747SOL     OW 6137   2.969   1.238  10.317
34747SOL    HW1 6138   3.033   1.266  10.382
34747SOL    HW2 6139   2.954   1.315  10.262
34748SOL     OW 6140   7.584   5.326  13.722
34748SOL    HW1 6141   7.599   5.401  13.780
34748SOL    HW2 6142   7.516   5.275  13.766
34749SOL     OW 6143   5.033   6.260  10.081
34749SOL    HW1 6144   5.118   6.298  10.059
34749SOL    HW2 6145   5.007   6.212  10.002
34750SOL     OW 6146  14.651   7.060  12.782
34750SOL    HW1 6147  14.693   7.087  12.863
34750SOL    HW2 6148  14.576   7.118  12.773
34751SOL     OW 6149  10.540   9.527   0.743
34751SOL    HW1 6150  10.560   9.506   0.652
34751SOL    HW2 6151  10.447   9.548   0.744
34752SOL     OW 6152   6.192   5.521   2.015
34752SOL    HW1 6153   6.148   5.501   2.098
34752SOL    HW2 6154   6.124   5.511   1.948
34753SOL     OW 6155   1.546   4.650   7.145
34753SOL    HW1 6156   1.498   4.629   7.065
34753SOL    HW2 6157   1.577   4.739   7.132
34754SOL     OW 6158  14.582   3.059   0.753
34754SOL    HW1 6159  14.644   3.132   0.760
34754SOL    HW2 6160  14.528   3.066   0.832
34755SOL     OW 6161  14.791  12.309   1.831
34755SOL    HW1 6162  14.838  12.227   1.849
34755SOL    HW2 6163  14.826  12.372   1.894
34756SOL     OW 6164   9.010   0.201   1.661
34756SOL    HW1 6165   8.934   0.169   1.614
34756SOL    HW2 6166   9.085   0.168   1.612
34757SOL     OW 6167   4.029   2.113   9.275
34757SOL    HW1 6168   4.110   2.106   9.223
34757SOL    HW2 6169   3.979   2.035   9.252
34758SOL     OW 6170   0.809   7.492   0.560
34758SOL    HW1 6171   0.731   7.547   0.554
34758SOL    HW2 6172   0.781   7.417   0.613
34759SOL     OW 6173   7.597   8.409   0.676
34759SOL    HW1 6174   7.586   8.425   0.770
34759SOL    HW2 6175   7.670   8.466   0.650
34760SOL     OW 6176   4.510   3.399  10.240
34760SOL    HW1 6177   4.546   3.408  10.152
34760SOL    HW2 6178   4.439   3.463  10.244
34761SOL     OW 6179   5.807   2.288   3.931
34761SOL    HW1 6180   5.866   2.218   3.958
34761SOL    HW2 6181   5.842   2.366   3.973
34762SOL     OW 6182   0.723  14.057   6.132
34762SOL    HW1 6183   0.734  14.152   6.123
34762SOL    HW2 6184   0.794  14.020   6.079
34763SOL     OW 6185   6.710   8.051  12.885
34763SOL    HW1 6186   6.760   8.011  12.814
34763SOL    HW2 6187   6.774   8.066  12.954
34764SOL     OW 6188   5.426  10.537   8.324
34764SOL    HW1 6189   5.336  10.523   8.294
34764SOL    HW2 6190   5.434  10.633   8.329
34765SOL     OW 6191  14.173  10.595   6.662
34765SOL    HW1 6192  14.084  10.630   6.659
34765SOL    HW2 6193  14.209  10.616   6.576
34766SOL     OW 6194  14.200   5.524   2.518
34766SOL    HW1 6195  14.147   5.577   2.577
34766SOL    HW2 6196  14.155   5.529   2.434
34767SOL     OW 6197   8.767  13.450   0.774
34767SOL    HW1 6198   8.767  13.395   0.852
34767SOL    HW2 6199   8.758  13.540   0.808
34768SOL     OW 6200   0.553   4.584   2.478
34768SOL    HW1 6201   0.479   4.644   2.471
34768SOL    HW2 6202   0.604   4.599   2.399
34769SOL     OW 6203   9.724   3.460  11.472
34769SOL    HW1 6204   9.787   3.532  11.478
34769SOL    HW2 6205   9.726   3.418  11.558
34770SOL     OW 6206   5.178   2.275  10.043
34770SOL    HW1 6207   5.169   2.369  10.027
34770SOL    HW2 6208   5.127   2.260  10.123
34771SOL     OW 6209   8.737  11.402   1.538
34771SOL    HW1 6210   8.762  11.310   1.546
34771SOL    HW2 6211   8.769  11.428   1.452
34772SOL     OW 6212   1.394   0.344  12.216
34772SOL    HW1 6213   1.378   0.439  12.221
34772SOL    HW2 6214   1.435   0.323  12.299
34773SOL     OW 6215   8.389  12.331   9.536
34773SOL    HW1 6216   8.417  12.256   9.483
34773SOL    HW2 6217   8.317  12.370   9.488
34774SOL     OW 6218   5.652   9.080   1.248
34774SOL    HW1 6219   5.600   9.088   1.328
34774SOL    HW2 6220   5.732   9.035   1.275
34775SOL     OW 6221   6.770  14.026  11.650
34775SOL    HW1 6222   6.793  14.117  11.630
34775SOL    HW2 6223   6.801  14.013  11.740
34776SOL     OW 6224  13.933  12.599   3.853
34776SOL    HW1 6225  13.942  12.689   3.883
34776SOL    HW2 6226  13.932  12.605   3.758
34777SOL     OW 6227   6.051  11.191   8.467
34777SOL    HW1 6228   5.977  11.197   8.526
34777SOL    HW2 6229   6.128  11.189   8.524
34778SOL     OW 6230   7.294  14.400   2.110
34778SOL    HW1 6231   7.289  14.397   2.206
34778SOL    HW2 6232   7.225  14.342   2.080
34779SOL     OW 6233  11.773   8.640   9.564
34779SOL    HW1 6234  11.802   8.628   9.474
34779SOL    HW2 6235  11.797   8.558   9.608
34780SOL     OW 6236   3.061  10.677   2.197
34780SOL    HW1 6237   3.040  10.741   2.265
34780SOL    HW2 6238   3.043  10.592   2.238
34781SOL     OW 6239  11.493  13.876  12.496
34781SOL    HW1 6240  11.529  13.964  12.506
34781SOL    HW2 6241  11.399  13.890  12.481
34782SOL     OW 6242   7.316  10.315  13.014
34782SOL    HW1 6243   7.294  10.357  13.098
34782SOL    HW2 6244   7.231  10.299  12.972
34783SOL     OW 6245  10.896  11.209  10.496
34783SOL    HW1 6246  10.838  11.285  10.486
34783SOL    HW2 6247  10.981  11.247  10.516
34784SOL     OW 6248   9.446   1.160   6.717
34784SOL    HW1 6249   9.391   1.186   6.791
34784SOL    HW2 6250   9.385   1.151   6.644
34785SOL     OW 6251   9.302  10.404   4.526
34785SOL    HW1 6252   9.350  10.336   4.573
34785SOL    HW2 6253   9.341  10.486   4.555
34786SOL     OW 6254  14.090   8.736   2.630
34786SOL    HW1 6255  14.151   8.707   2.698
34786SOL    HW2 6256  14.108   8.679   2.555
34787SOL     OW 6257  11.684  12.575  14.044
34787SOL    HW1 6258  11.743  12.504  14.022
34787SOL    HW2 6259  11.722  12.615  14.122
34788SOL     OW 6260  12.491  12.515   4.250
34788SOL    HW1 6261  12.450  12.441   4.206
34788SOL    HW2 6262  12.437  12.591   4.226
34789SOL     OW 6263   5.721  13.508  11.479
34789SOL    HW1 6264   5.806  13.508  11.435
34789SOL    HW2 6265   5.715  13.421  11.518
34790SOL     OW 6266  14.438  13.803   3.797
34790SOL    HW1 6267  14.515  13.747   3.813
34790SOL    HW2 6268  14.475  13.890   3.781
34791SOL     OW 6269   6.288   3.070   4.021
34791SOL    HW1 6270   6.227   3.024   3.964
34791SOL    HW2 6271   6.348   3.115   3.962
34792SOL     OW 6272  11.024   6.906   5.387
34792SOL    HW1 6273  10.943   6.955   5.399
34792SOL    HW2 6274  11.087   6.969   5.352
34793SOL     OW 6275   2.786   4.360   8.543
34793SOL    HW1 6276   2.701   4.317   8.548
34793SOL    HW2 6277   2.788   4.420   8.617
34794SOL     OW 6278   4.863   4.545   2.840
34794SOL    HW1 6279   4.907   4.624   2.872
34794SOL    HW2 6280   4.919   4.473   2.867
34795SOL     OW 6281   0.764   5.043   7.456
34795SOL    HW1 6282   0.676   5.004   7.452
34795SOL    HW2 6283   0.823   4.968   7.447
34796SOL     OW 6284   1.243   4.017   4.201
34796SOL    HW1 6285   1.150   4.003   4.183
34796SOL    HW2 6286   1.262   3.963   4.278
34797SOL     OW 6287   3.456   6.471   4.998
34797SOL    HW1 6288   3.528   6.409   5.012
34797SOL    HW2 6289   3.499   6.555   4.984
34798SOL     OW 6290   7.424   2.673   3.163
34798SOL    HW1 6291   7.394   2.615   3.234
34798SOL    HW2 6292   7.481   2.618   3.110
34799SOL     OW 6293   1.563  10.493  12.039
34799SOL    HW1 6294   1.485  10.504  11.986
34799SOL    HW2 6295   1.535  10.512  12.128
34800SOL     OW 6296   0.117   3.567   8.656
34800SOL    HW1 6297   0.158   3.483   8.636
34800SOL    HW2 6298   0.169   3.632   8.609
34801SOL     OW 6299   8.018   7.207   5.554
34801SOL    HW1 6300   7.984   7.250   5.633
34801SOL    HW2 6301   7.986   7.117   5.561
34802SOL     OW 6302   4.554   8.043  11.460
34802SOL    HW1 6303   4.594   7.988  11.393
34802SOL    HW2 6304   4.500   7.983  11.512
34803SOL     OW 6305   4.785   2.934  11.137
34803SOL    HW1 6306   4.878   2.919  11.127
34803SOL    HW2 6307   4.754   2.959  11.050
34804SOL     OW 6308   9.458  13.060   2.297
34804SOL    HW1 6309   9.376  13.068   2.346
34804SOL    HW2 6310   9.508  13.138   2.320
34805SOL     OW 6311   5.722   9.774   3.311
34805SOL    HW1 6312   5.729   9.695   3.365
34805SOL    HW2 6313   5.677   9.838   3.366
34806SOL     OW 6314   4.662   7.213   4.655
34806SOL    HW1 6315   4.622   7.226   4.742
34806SOL    HW2 6316   4.679   7.119   4.650
34807SOL     OW 6317  11.134   8.213  12.389
34807SOL    HW1 6318  11.154   8.241  12.478
34807SOL    HW2 6319  11.074   8.139  12.400
34808SOL     OW 6320   8.147  13.248   7.752
34808SOL    HW1 6321   8.130  13.193   7.829
34808SOL    HW2 6322   8.216  13.201   7.704
34809SOL     OW 6323   7.631   4.845   7.406
34809SOL    HW1 6324   7.581   4.812   7.331
34809SOL    HW2 6325   7.710   4.882   7.368
34810SOL     OW 6326   0.838  13.025   5.457
34810SOL    HW1 6327   0.843  13.075   5.538
34810SOL    HW2 6328   0.873  12.939   5.479
34811SOL     OW 6329   3.721  12.233  10.766
34811SOL    HW1 6330   3.691  12.268  10.849
34811SOL    HW2 6331   3.729  12.139  10.781
34812SOL     OW 6332   7.498   5.869   3.047
34812SOL    HW1 6333   7.409   5.904   3.057
34812SOL    HW2 6334   7.510   5.863   2.952
34813SOL     OW 6335   6.685   8.200   3.894
34813SOL    HW1 6336   6.735   8.147   3.956
34813SOL    HW2 6337   6.724   8.180   3.809
34814SOL     OW 6338   6.801  12.204   2.029
34814SOL    HW1 6339   6.711  12.200   1.999
34814SOL    HW2 6340   6.799  12.267   2.102
34815SOL     OW 6341   0.304  14.072   5.212
34815SOL    HW1 6342   0.394  14.094   5.236
34815SOL    HW2 6343   0.305  14.069   5.116
34816SOL     OW 6344  11.357  11.112   6.814
34816SOL    HW1 6345  11.291  11.169   6.774
34816SOL    HW2 6346  11.348  11.127   6.908
34817SOL     OW 6347  11.481   5.576   7.194
34817SOL    HW1 6348  11.511   5.667   7.187
34817SOL    HW2 6349  11.398   5.582   7.241
34818SOL     OW 6350  11.046  10.591   7.583
34818SOL    HW1 6351  11.085  10.508   7.555
34818SOL    HW2 6352  11.071  10.599   7.675
34819SOL     OW 6353   9.952   7.155  11.889
34819SOL    HW1 6354   9.984   7.181  11.975
34819SOL    HW2 6355   9.858   7.142  11.900
34820SOL     OW 6356   4.422   5.190   7.226
34820SOL    HW1 6357   4.501   5.153   7.188
34820SOL    HW2 6358   4.383   5.242   7.156
34821SOL     OW 6359  11.998   9.195   2.761
34821SOL    HW1 6360  11.968   9.256   2.694
34821SOL    HW2 6361  11.947   9.115   2.745
34822SOL     OW 6362   4.669   8.701   5.078
34822SOL    HW1 6363   4.687   8.627   5.136
34822SOL    HW2 6364   4.744   8.759   5.091
34823SOL     OW 6365  13.640   6.598   8.382
34823SOL    HW1 6366  13.566   6.594   8.322
34823SOL    HW2 6367  13.694   6.670   8.349
34824SOL     OW 6368   1.308   6.370  14.713
34824SOL    HW1 6369   1.302   6.279  14.742
34824SOL    HW2 6370   1.394   6.400  14.743
34825SOL     OW 6371   0.732   8.270  11.646
34825SOL    HW1 6372   0.654   8.255  11.699
34825SOL    HW2 6373   0.790   8.198  11.669
34826SOL     OW 6374   5.105   2.813  12.361
34826SOL    HW1 6375   5.177   2.836  12.302
34826SOL    HW2 6376   5.145   2.755  12.425
34827SOL     OW 6377   9.261   5.315   0.311
34827SOL    HW1 6378   9.336   5.306   0.370
34827SOL    HW2 6379   9.260   5.407   0.287
34828SOL     OW 6380   9.087   2.135   4.957
34828SOL    HW1 6381   9.102   2.160   5.048
34828SOL    HW2 6382   9.086   2.219   4.909
34829SOL     OW 6383  11.182  10.860  10.897
34829SOL    HW1 6384  11.102  10.830  10.939
34829SOL    HW2 6385  11.161  10.948  10.865
34830SOL     OW 6386   4.250   7.206   5.125
34830SOL    HW1 6387   4.284   7.260   5.196
34830SOL    HW2 6388   4.173   7.163   5.162
34831SOL     OW 6389  12.619   9.018   7.422
34831SOL    HW1 6390  12.532   8.985   7.447
34831SOL    HW2 6391  12.666   8.940   7.391
34832SOL     OW 6392   9.729   3.079   2.340
34832SOL    HW1 6393   9.800   3.107   2.282
34832SOL    HW2 6394   9.707   2.991   2.310
34833SOL     OW 6395  14.372  11.015  12.684
34833SOL    HW1 6396  14.311  11.088  12.676
34833SOL    HW2 6397  14.372  10.993  12.777
34834SOL     OW 6398   5.036   4.406   9.471
34834SOL    HW1 6399   5.049   4.411   9.376
34834SOL    HW2 6400   5.108   4.351   9.502
34835SOL     OW 6401   9.646   7.843   8.815
34835SOL    HW1 6402   9.712   7.891   8.766
34835SOL    HW2 6403   9.669   7.751   8.804
34836SOL     OW 6404   2.784   4.266   2.051
34836SOL    HW1 6405   2.754   4.302   1.968
34836SOL    HW2 6406   2.878   4.251   2.040
34837SOL     OW 6407  12.796   3.548   7.228
34837SOL    HW1 6408  12.870   3.491   7.207
34837SOL    HW2 6409  12.812   3.576   7.318
34838SOL     OW 6410   9.965   6.947  12.249
34838SOL    HW1 6411   9.981   6.876  12.186
34838SOL    HW2 6412   9.946   6.902  12.331
34839SOL     OW 6413  12.153   8.021  13.066
34839SOL    HW1 6414  12.218   7.960  13.031
34839SOL    HW2 6415  12.098   8.042  12.990
34840SOL     OW 6416   8.939   8.339   4.128
34840SOL    HW1 6417   8.850   8.353   4.096
34840SOL    HW2 6418   8.982   8.424   4.117
34841SOL     OW 6419   9.736   8.815   3.449
34841SOL    HW1 6420   9.745   8.724   3.477
34841SOL    HW2 6421   9.804   8.862   3.498
34842SOL     OW 6422   0.488  11.617   6.441
34842SOL    HW1 6423   0.403  11.584   6.414
34842SOL    HW2 6424   0.472  11.663   6.524
34843SOL     OW 6425  13.303   9.589  10.797
34843SOL    HW1 6426  13.355   9.510  10.812
34843SOL    HW2 6427  13.215   9.567  10.829
34844SOL     OW 6428  11.981  12.774   7.909
34844SOL    HW1 6429  12.035  12.695   7.909
34844SOL    HW2 6430  12.040  12.844   7.883
34845SOL     OW 6431   7.651   4.240   4.329
34845SOL    HW1 6432   7.701   4.322   4.327
34845SOL    HW2 6433   7.673   4.201   4.413
34846SOL     OW 6434   2.450   0.635   8.721
34846SOL    HW1 6435   2.404   0.569   8.670
34846SOL    HW2 6436   2.528   0.656   8.668
34847SOL     OW 6437  10.580  11.612   2.002
34847SOL    HW1 6438  10.565  11.564   2.083
34847SOL    HW2 6439  10.673  11.634   2.003
34848SOL     OW 6440  12.186   0.103  13.159
34848SOL    HW1 6441  12.093   0.114  13.178
34848SOL    HW2 6442  12.227   0.086  13.243
34849SOL     OW 6443   9.294  14.223   5.885
34849SOL    HW1 6444   9.253  14.298   5.927
34849SOL    HW2 6445   9.386  14.228   5.909
34850SOL     OW 6446   9.004  12.321  10.819
34850SOL    HW1 6447   9.006  12.322  10.914
34850SOL    HW2 6448   8.969  12.407  10.794
34851SOL     OW 6449   7.700   4.797  10.619
34851SOL    HW1 6450   7.763   4.750  10.673
34851SOL    HW2 6451   7.722   4.770  10.529
34852SOL     OW 6452   2.682   3.882  10.505
34852SOL    HW1 6453   2.649   3.797  10.533
34852SOL    HW2 6454   2.747   3.905  10.571
34853SOL     OW 6455  13.309  11.744   0.291
34853SOL    HW1 6456  13.323  11.750   0.196
34853SOL    HW2 6457  13.215  11.756   0.302
34854SOL     OW 6458   9.843   9.221   1.809
34854SOL    HW1 6459   9.866   9.278   1.737
34854SOL    HW2 6460   9.896   9.252   1.882
34855SOL     OW 6461   4.352  11.909   6.534
34855SOL    HW1 6462   4.381  11.818   6.539
34855SOL    HW2 6463   4.279  11.914   6.596
34856SOL     OW 6464   2.860  11.952   3.188
34856SOL    HW1 6465   2.861  12.021   3.122
34856SOL    HW2 6466   2.893  11.875   3.143
34857SOL     OW 6467   6.259   9.815  14.313
34857SOL    HW1 6468   6.188   9.817  14.249
34857SOL    HW2 6469   6.319   9.884  14.284
34858SOL     OW 6470  12.531   8.009   7.011
34858SOL    HW1 6471  12.542   8.064   6.933
34858SOL    HW2 6472  12.619   7.981   7.034
34859SOL     OW 6473   1.382  13.971   6.259
34859SOL    HW1 6474   1.335  13.947   6.179
34859SOL    HW2 6475   1.435  13.894   6.280
34860SOL     OW 6476   8.070   3.598   5.328
34860SOL    HW1 6477   8.032   3.621   5.413
34860SOL    HW2 6478   8.010   3.633   5.263
34861SOL     OW 6479   0.191  10.876   2.401
34861SOL    HW1 6480   0.233  10.913   2.479
34861SOL    HW2 6481   0.125  10.941   2.377
34862SOL     OW 6482   3.700  11.685   0.945
34862SOL    HW1 6483   3.781  11.692   0.894
34862SOL    HW2 6484   3.655  11.609   0.909
34863SOL     OW 6485   8.867   5.148   5.635
34863SOL    HW1 6486   8.951   5.171   5.596
34863SOL    HW2 6487   8.874   5.054   5.653
34864SOL     OW 6488   6.365  13.438   3.423
34864SOL    HW1 6489   6.408  13.426   3.339
34864SOL    HW2 6490   6.280  13.476   3.402
34865SOL     OW 6491   8.687  11.357   7.614
34865SOL    HW1 6492   8.734  11.297   7.555
34865SOL    HW2 6493   8.623  11.301   7.658
34866SOL     OW 6494  14.745   7.656   8.034
34866SOL    HW1 6495  14.666   7.657   7.979
34866SOL    HW2 6496  14.756   7.748   8.060
34867SOL     OW 6497   5.636   1.759  11.625
34867SOL    HW1 6498   5.688   1.825  11.671
34867SOL    HW2 6499   5.669   1.760  11.536
34868SOL     OW 6500   5.399   0.500   1.207
34868SOL    HW1 6501   5.360   0.415   1.188
34868SOL    HW2 6502   5.454   0.519   1.131
34869SOL     OW 6503   8.192  12.262   5.353
34869SOL    HW1 6504   8.217  12.195   5.417
34869SOL    HW2 6505   8.105  12.236   5.324
34870SOL     OW 6506   4.132  14.148   4.275
34870SOL    HW1 6507   4.222  14.181   4.275
34870SOL    HW2 6508   4.137  14.066   4.226
34871SOL     OW 6509   7.888   0.053   3.622
34871SOL    HW1 6510   7.928   0.087   3.543
34871SOL    HW2 6511   7.794   0.065   3.609
34872SOL     OW 6512   5.114  10.141   6.666
34872SOL    HW1 6513   5.080  10.227   6.642
34872SOL    HW2 6514   5.205  10.158   6.693
34873SOL     OW 6515   3.624  12.614   2.118
34873SOL    HW1 6516   3.715  12.642   2.108
34873SOL    HW2 6517   3.609  12.553   2.047
34874SOL     OW 6518   1.966  10.470   0.095
34874SOL    HW1 6519   2.012  10.470   0.011
34874SOL    HW2 6520   1.916  10.388   0.095
34875SOL     OW 6521  10.724   3.795   5.597
34875SOL    HW1 6522  10.733   3.729   5.666
34875SOL    HW2 6523  10.796   3.855   5.612
34876SOL     OW 6524   0.449   9.464  13.353
34876SOL    HW1 6525   0.397   9.415  13.290
34876SOL    HW2 6526   0.529   9.413  13.364
34877SOL     OW 6527   8.355   9.846  11.612
34877SOL    HW1 6528   8.426   9.788  11.637
34877SOL    HW2 6529   8.391   9.902  11.544
34878SOL     OW 6530   9.778   7.643   5.062
34878SOL    HW1 6531   9.775   7.661   5.156
34878SOL    HW2 6532   9.839   7.708   5.027
34879SOL     OW 6533  12.770  13.951   6.957
34879SOL    HW1 6534  12.818  13.872   6.931
34879SOL    HW2 6535  12.800  14.018   6.895
34880SOL     OW 6536   4.784   2.426   2.805
34880SOL    HW1 6537   4.766   2.519   2.820
34880SOL    HW2 6538   4.874   2.424   2.771
34881SOL     OW 6539   7.869   7.865   9.392
34881SOL    HW1 6540   7.828   7.936   9.342
34881SOL    HW2 6541   7.833   7.785   9.354
34882SOL     OW 6542   1.429  14.491   3.990
34882SOL    HW1 6543   1.457  14.416   3.938
34882SOL    HW2 6544   1.494  14.497   4.059
34883SOL     OW 6545  11.573  11.636  10.410
34883SOL    HW1 6546  11.489  11.591  10.402
34883SOL    HW2 6547  11.616  11.594  10.485
34884SOL     OW 6548   3.902   2.850  11.990
34884SOL    HW1 6549   3.874   2.789  11.922
34884SOL    HW2 6550   3.908   2.935  11.946
34885SOL     OW 6551   3.112   7.734   3.674
34885SOL    HW1 6552   3.059   7.681   3.615
34885SOL    HW2 6553   3.115   7.684   3.756
34886SOL     OW 6554   1.068   6.102   3.263
34886SOL    HW1 6555   1.113   6.162   3.203
34886SOL    HW2 6556   1.129   6.029   3.274
34887SOL     OW 6557   7.650   0.103   1.437
34887SOL    HW1 6558   7.670   0.064   1.522
34887SOL    HW2 6559   7.665   0.033   1.374
34888SOL     OW 6560  11.879   0.952   4.022
34888SOL    HW1 6561  11.783   0.958   4.026
34888SOL    HW2 6562  11.910   1.039   4.048
34889SOL     OW 6563   9.431   8.659   2.460
34889SOL    HW1 6564   9.480   8.737   2.435
34889SOL    HW2 6565   9.345   8.670   2.419
34890SOL     OW 6566   1.678   8.333   1.814
34890SOL    HW1 6567   1.698   8.244   1.844
34890SOL    HW2 6568   1.585   8.345   1.835
34891SOL     OW 6569   5.670   1.004   9.172
34891SOL    HW1 6570   5.677   1.049   9.256
34891SOL    HW2 6571   5.653   0.913   9.195
34892SOL     OW 6572   3.549   3.321   5.977
34892SOL    HW1 6573   3.583   3.232   5.974
34892SOL    HW2 6574   3.501   3.332   5.894
34893SOL     OW 6575   9.986  14.160  12.335
34893SOL    HW1 6576   9.996  14.066  12.317
34893SOL    HW2 6577  10.057  14.201  12.286
34894SOL     OW 6578   7.928  13.869  14.448
34894SOL    HW1 6579   7.957  13.940  14.391
34894SOL    HW2 6580   7.871  13.815  14.393
34895SOL     OW 6581   5.126   7.218   3.968
34895SOL    HW1 6582   5.207   7.170   3.988
34895SOL    HW2 6583   5.060   7.179   4.024
34896SOL     OW 6584  12.287   4.195   4.465
34896SOL    HW1 6585  12.289   4.208   4.560
34896SOL    HW2 6586  12.227   4.122   4.452
34897SOL     OW 6587  14.348  12.493  10.755
34897SOL    HW1 6588  14.308  12.445  10.827
34897SOL    HW2 6589  14.406  12.556  10.798
34898SOL     OW 6590   5.441  12.003  10.608
34898SOL    HW1 6591   5.418  12.083  10.561
34898SOL    HW2 6592   5.534  12.014  10.630
34899SOL     OW 6593   6.810  13.032   4.615
34899SOL    HW1 6594   6.784  12.942   4.594
34899SOL    HW2 6595   6.745  13.086   4.570
34900SOL     OW 6596   9.793   0.569   8.264
34900SOL    HW1 6597   9.807   0.599   8.354
34900SOL    HW2 6598   9.881   0.552   8.230
34901SOL     OW 6599   7.600  12.638   2.554
34901SOL    HW1 6600   7.620  12.726   2.586
34901SOL    HW2 6601   7.575  12.652   2.462
34902SOL     OW 6602   3.630   6.286   5.057
34902SOL    HW1 6603   3.592   6.203   5.028
34902SOL    HW2 6604   3.719   6.264   5.084
34903SOL     OW 6605   9.089   7.963   3.032
34903SOL    HW1 6606   9.010   8.009   3.007
34903SOL    HW2 6607   9.083   7.879   2.987
34904SOL     OW 6608  14.537   0.736   1.483
34904SOL    HW1 6609  14.590   0.680   1.426
34904SOL    HW2 6610  14.529   0.818   1.435
34905SOL     OW 6611   5.847   0.312   1.403
34905SOL    HW1 6612   5.801   0.390   1.370
34905SOL    HW2 6613   5.821   0.242   1.343
34906SOL     OW 6614   8.177  10.889   4.111
34906SOL    HW1 6615   8.251  10.857   4.059
34906SOL    HW2 6616   8.191  10.851   4.198
34907SOL     OW 6617   0.131   4.502   0.449
34907SOL    HW1 6618   0.070   4.566   0.486
34907SOL    HW2 6619   0.214   4.549   0.444
34908SOL     OW 6620   4.646   0.890  13.824
34908SOL    HW1 6621   4.676   0.935  13.745
34908SOL    HW2 6622   4.705   0.921  13.893
34909SOL     OW 6623   3.304  12.934  13.259
34909SOL    HW1 6624   3.381  12.929  13.203
34909SOL    HW2 6625   3.322  12.873  13.331
34910SOL     OW 6626  11.375   9.832   9.490
34910SOL    HW1 6627  11.332   9.753   9.456
34910SOL    HW2 6628  11.323   9.904   9.455
34911SOL     OW 6629   7.731  13.480   5.799
34911SOL    HW1 6630   7.700  13.567   5.773
34911SOL    HW2 6631   7.675  13.456   5.873
34912SOL     OW 6632  10.345  14.089  10.137
34912SOL    HW1 6633  10.433  14.119  10.161
34912SOL    HW2 6634  10.335  14.005  10.181
34913SOL     OW 6635   0.040  13.595   6.361
34913SOL    HW1 6636   0.120  13.570   6.315
34913SOL    HW2 6637   0.042  13.545   6.442
34914SOL     OW 6638   1.763   4.629   6.150
34914SOL    HW1 6639   1.794   4.627   6.241
34914SOL    HW2 6640   1.672   4.657   6.157
34915SOL     OW 6641   0.773   3.598   9.756
34915SOL    HW1 6642   0.739   3.585   9.668
34915SOL    HW2 6643   0.716   3.545   9.812
34916SOL     OW 6644   1.790   1.468   2.189
34916SOL    HW1 6645   1.758   1.380   2.168
34916SOL    HW2 6646   1.875   1.453   2.229
34917SOL     OW 6647   5.650   1.376  10.599
34917SOL    HW1 6648   5.661   1.451  10.541
34917SOL    HW2 6649   5.625   1.304  10.540
34918SOL     OW 6650   0.698   3.298   7.647
34918SOL    HW1 6651   0.686   3.307   7.553
34918SOL    HW2 6652   0.683   3.205   7.665
34919SOL     OW 6653  12.296   3.038   0.159
34919SOL    HW1 6654  12.263   3.117   0.118
34919SOL    HW2 6655  12.224   3.007   0.215
34920SOL     OW 6656  13.413   9.334  10.817
34920SOL    HW1 6657  13.337   9.319  10.873
34920SOL    HW2 6658  13.447   9.246  10.798
34921SOL     OW 6659   3.613   5.774  14.212
34921SOL    HW1 6660   3.650   5.858  14.241
34921SOL    HW2 6661   3.519   5.785  14.222
34922SOL     OW 6662   3.091   5.461  14.554
34922SOL    HW1 6663   3.024   5.529  14.545
34922SOL    HW2 6664   3.053   5.385  14.510
34923SOL     OW 6665   1.494   5.840   6.276
34923SOL    HW1 6666   1.587   5.852   6.292
34923SOL    HW2 6667   1.474   5.754   6.313
34924SOL     OW 6668  14.736   8.174  14.341
34924SOL    HW1 6669  14.754   8.138  14.254
34924SOL    HW2 6670  14.726   8.097  14.398
34925SOL     OW 6671   3.658   2.612   2.115
34925SOL    HW1 6672   3.748   2.611   2.082
34925SOL    HW2 6673   3.665   2.648   2.203
34926SOL     OW 6674   0.536   3.258   5.773
34926SOL    HW1 6675   0.505   3.305   5.850
34926SOL    HW2 6676   0.457   3.235   5.725
34927SOL     OW 6677  13.160   6.101  11.540
34927SOL    HW1 6678  13.251   6.103  11.568
34927SOL    HW2 6679  13.126   6.189  11.559
34928SOL     OW 6680  14.337   3.733  12.615
34928SOL    HW1 6681  14.332   3.780  12.532
34928SOL    HW2 6682  14.427   3.698  12.616
34929SOL     OW 6683   3.284   4.935  13.843
34929SOL    HW1 6684   3.271   4.850  13.886
34929SOL    HW2 6685   3.323   4.990  13.911
34930SOL     OW 6686   5.487  10.750   2.067
34930SOL    HW1 6687   5.515  10.699   2.143
34930SOL    HW2 6688   5.392  10.749   2.072
34931SOL     OW 6689   2.721   0.415   6.488
34931SOL    HW1 6690   2.777   0.452   6.419
34931SOL    HW2 6691   2.687   0.334   6.450
34932SOL     OW 6692   1.741  14.788  13.022
34932SOL    HW1 6693   1.679  14.805  12.951
34932SOL    HW2 6694   1.697  14.820  13.100
34933SOL     OW 6695   6.097   6.659  13.123
34933SOL    HW1 6696   6.192   6.665  13.136
34933SOL    HW2 6697   6.066   6.749  13.135
34934SOL     OW 6698  14.273   9.404   2.038
34934SOL    HW1 6699  14.324   9.324   2.047
34934SOL    HW2 6700  14.295   9.437   1.951
34935SOL     OW 6701   6.501   1.075  12.864
34935SOL    HW1 6702   6.516   0.981  12.877
34935SOL    HW2 6703   6.531   1.092  12.775
34936SOL     OW 6704  10.158   5.095   8.789
34936SOL    HW1 6705  10.226   5.150   8.751
34936SOL    HW2 6706  10.086   5.156   8.808
34937SOL     OW 6707   2.402  14.161  12.082
34937SOL    HW1 6708   2.475  14.187  12.026
34937SOL    HW2 6709   2.443  14.116  12.156
34938SOL     OW 6710  11.477   2.369   4.580
34938SOL    HW1 6711  11.402   2.426   4.567
34938SOL    HW2 6712  11.472   2.342   4.672
34939SOL     OW 6713  12.863  10.420   3.261
34939SOL    HW1 6714  12.773  10.432   3.231
34939SOL    HW2 6715  12.869  10.328   3.284
34940SOL     OW 6716   7.700  11.677   2.332
34940SOL    HW1 6717   7.618  11.697   2.378
34940SOL    HW2 6718   7.677  11.605   2.273
34941SOL     OW 6719  14.824   5.154   3.226
34941SOL    HW1 6720  14.848   5.217   3.294
34941SOL    HW2 6721  14.832   5.202   3.144
34942SOL     OW 6722  10.682  10.751   9.725
34942SOL    HW1 6723  10.685  10.802   9.806
34942SOL    HW2 6724  10.591  10.720   9.719
34943SOL     OW 6725  11.883   5.980   2.969
34943SOL    HW1 6726  11.855   5.915   3.033
34943SOL    HW2 6727  11.842   6.062   2.999
34944SOL     OW 6728  12.405  13.806  11.179
34944SOL    HW1 6729  12.443  13.805  11.267
34944SOL    HW2 6730  12.341  13.877  11.182
34945SOL     OW 6731  10.830   7.769   3.955
34945SOL    HW1 6732  10.826   7.851   4.004
34945SOL    HW2 6733  10.875   7.792   3.874
34946SOL     OW 6734   7.699   9.664   0.788
34946SOL    HW1 6735   7.608   9.691   0.800
34946SOL    HW2 6736   7.720   9.694   0.699
34947SOL     OW 6737   3.493   2.349   3.343
34947SOL    HW1 6738   3.416   2.352   3.287
34947SOL    HW2 6739   3.534   2.264   3.323
34948SOL     OW 6740  11.295   0.039   2.752
34948SOL    HW1 6741  11.282   0.034   2.657
34948SOL    HW2 6742  11.389   0.058   2.761
34949SOL     OW 6743  11.288   3.254   7.086
34949SOL    HW1 6744  11.347   3.269   7.160
34949SOL    HW2 6745  11.260   3.341   7.059
34950SOL     OW 6746  12.827  13.456   4.752
34950SOL    HW1 6747  12.915  13.425   4.769
34950SOL    HW2 6748  12.815  13.447   4.658
34951SOL     OW 6749  12.328   3.737  13.499
34951SOL    HW1 6750  12.255   3.798  13.489
34951SOL    HW2 6751  12.395   3.788  13.545
34952SOL     OW 6752  14.047   1.955  12.569
34952SOL    HW1 6753  13.987   1.892  12.611
34952SOL    HW2 6754  14.088   1.905  12.498
34953SOL     OW 6755  14.331  13.689  13.231
34953SOL    HW1 6756  14.273  13.765  13.239
34953SOL    HW2 6757  14.415  13.726  13.206
34954SOL     OW 6758   0.236  11.210   1.380
34954SOL    HW1 6759   0.324  11.183   1.405
34954SOL    HW2 6760   0.181  11.183   1.454
34955SOL     OW 6761   8.301  11.364   0.666
34955SOL    HW1 6762   8.261  11.281   0.640
34955SOL    HW2 6763   8.375  11.376   0.607
34956SOL     OW 6764   6.746  12.293   4.226
34956SOL    HW1 6765   6.838  12.279   4.202
34956SOL    HW2 6766   6.710  12.205   4.236
34957SOL     OW 6767  13.479  12.364   5.862
34957SOL    HW1 6768  13.477  12.375   5.767
34957SOL    HW2 6769  13.485  12.453   5.897
34958SOL     OW 6770   8.577   1.732   6.640
34958SOL    HW1 6771   8.669   1.719   6.660
34958SOL    HW2 6772   8.574   1.815   6.593
34959SOL     OW 6773  14.077  13.533  11.340
34959SOL    HW1 6774  14.152  13.553  11.284
34959SOL    HW2 6775  14.012  13.599  11.317
34960SOL     OW 6776   4.160  14.027   7.829
34960SOL    HW1 6777   4.171  13.932   7.821
34960SOL    HW2 6778   4.066  14.040   7.828
34961SOL     OW 6779  11.261   5.863   8.758
34961SOL    HW1 6780  11.327   5.914   8.805
34961SOL    HW2 6781  11.246   5.912   8.677
34962SOL     OW 6782  13.941   1.538  13.741
34962SOL    HW1 6783  14.036   1.544  13.729
34962SOL    HW2 6784  13.919   1.449  13.714
34963SOL     OW 6785  11.541   2.002   9.000
34963SOL    HW1 6786  11.515   1.911   9.014
34963SOL    HW2 6787  11.471   2.040   8.947
34964SOL     OW 6788  12.801   8.436   8.070
34964SOL    HW1 6789  12.722   8.403   8.112
34964SOL    HW2 6790  12.807   8.527   8.098
34965SOL     OW 6791   1.991   6.422   9.919
34965SOL    HW1 6792   2.079   6.459   9.927
34965SOL    HW2 6793   1.992   6.375   9.835
34966SOL     OW 6794  14.697   4.137  13.032
34966SOL    HW1 6795  14.645   4.084  13.092
34966SOL    HW2 6796  14.633   4.184  12.978
34967SOL     OW 6797  12.518  10.814  14.240
34967SOL    HW1 6798  12.531  10.767  14.158
34967SOL    HW2 6799  12.562  10.760  14.306
34968SOL     OW 6800   0.913  13.912   1.441
34968SOL    HW1 6801   0.842  13.866   1.397
34968SOL    HW2 6802   0.940  13.852   1.511
34969SOL     OW 6803   5.913   1.684   2.868
34969SOL    HW1 6804   5.844   1.750   2.875
34969SOL    HW2 6805   5.981   1.725   2.816
34970SOL     OW 6806   6.353   5.868   6.992
34970SOL    HW1 6807   6.330   5.790   6.942
34970SOL    HW2 6808   6.270   5.905   7.020
34971SOL     OW 6809   9.934   3.560   0.311
34971SOL    HW1 6810   9.933   3.517   0.225
34971SOL    HW2 6811   9.917   3.652   0.291
34972SOL     OW 6812  13.588  14.865   5.660
34972SOL    HW1 6813  13.648  14.791   5.674
34972SOL    HW2 6814  13.616   0.020   5.576
34973SOL     OW 6815   8.043   2.709  13.709
34973SOL    HW1 6816   8.114   2.690  13.770
34973SOL    HW2 6817   8.078   2.688  13.623
34974SOL     OW 6818   2.229  14.828   1.042
34974SOL    HW1 6819   2.261   0.009   0.977
34974SOL    HW2 6820   2.216  14.880   1.121
34975SOL     OW 6821  12.452   3.880   1.920
34975SOL    HW1 6822  12.473   3.929   1.841
34975SOL    HW2 6823  12.379   3.927   1.959
34976SOL     OW 6824   5.325   4.205   5.452
34976SOL    HW1 6825   5.282   4.192   5.536
34976SOL    HW2 6826   5.369   4.289   5.459
34977SOL     OW 6827   3.434   7.111  14.289
34977SOL    HW1 6828   3.495   7.088  14.219
34977SOL    HW2 6829   3.355   7.139  14.243
34978SOL     OW 6830  13.697  11.624   2.683
34978SOL    HW1 6831  13.749  11.684   2.630
34978SOL    HW2 6832  13.749  11.611   2.763
34979SOL     OW 6833   4.474  13.731  14.211
34979SOL    HW1 6834   4.378  13.725  14.215
34979SOL    HW2 6835   4.491  13.825  14.205
34980SOL     OW 6836   0.164   5.773  13.056
34980SOL    HW1 6837   0.201   5.831  13.123
34980SOL    HW2 6838   0.124   5.832  12.993
34981SOL     OW 6839   4.252   3.918  14.409
34981SOL    HW1 6840   4.234   3.826  14.425
34981SOL    HW2 6841   4.241   3.929  14.315
34982SOL     OW 6842   4.115   3.196   5.527
34982SOL    HW1 6843   4.053   3.243   5.472
34982SOL    HW2 6844   4.182   3.261   5.550
34983SOL     OW 6845  12.213  14.592  14.686
34983SOL    HW1 6846  12.183  14.683  14.693
34983SOL    HW2 6847  12.135  14.544  14.657
34984SOL     OW 6848  12.361   5.996   4.638
34984SOL    HW1 6849  12.371   5.996   4.733
34984SOL    HW2 6850  12.374   5.904   4.613
34985SOL     OW 6851   6.740   1.998   7.181
34985SOL    HW1 6852   6.653   2.013   7.218
34985SOL    HW2 6853   6.799   2.045   7.240
34986SOL     OW 6854  10.306  14.603  12.793
34986SOL    HW1 6855  10.221  14.646  12.803
34986SOL    HW2 6856  10.292  14.538  12.724
34987SOL     OW 6857  12.005  14.766   0.933
34987SOL    HW1 6858  12.088  14.809   0.950
34987SOL    HW2 6859  12.020  14.674   0.954
34988SOL     OW 6860   4.376   2.315  13.308
34988SOL    HW1 6861   4.344   2.360  13.386
34988SOL    HW2 6862   4.427   2.241  13.341
34989SOL     OW 6863   6.438   0.998  14.529
34989SOL    HW1 6864   6.505   0.933  14.552
34989SOL    HW2 6865   6.421   0.983  14.436
34990SOL     OW 6866   5.776   4.988  14.226
34990SOL    HW1 6867   5.834   4.965  14.153
34990SOL    HW2 6868   5.827   5.050  14.279
34991SOL     OW 6869  13.077   0.951  13.039
34991SOL    HW1 6870  12.985   0.928  13.044
34991SOL    HW2 6871  13.098   0.947  12.945
34992SOL     OW 6872   5.028  10.684   9.782
34992SOL    HW1 6873   5.096  10.739   9.743
34992SOL    HW2 6874   5.075  10.610   9.820
34993SOL     OW 6875   3.444  12.635   3.643
34993SOL    HW1 6876   3.489  12.653   3.561
34993SOL    HW2 6877   3.500  12.675   3.710
34994SOL     OW 6878   7.812   4.998  12.692
34994SOL    HW1 6879   7.874   4.967  12.758
34994SOL    HW2 6880   7.760   5.065  12.737
34995SOL     OW 6881   7.854   9.199   6.383
34995SOL    HW1 6882   7.830   9.284   6.422
34995SOL    HW2 6883   7.834   9.136   6.452
34996SOL     OW 6884  14.077   1.030  13.599
34996SOL    HW1 6885  13.990   1.068  13.586
34996SOL    HW2 6886  14.097   1.045  13.691
34997SOL     OW 6887   0.627   4.566   1.817
34997SOL    HW1 6888   0.584   4.491   1.859
34997SOL    HW2 6889   0.666   4.530   1.737
34998SOL     OW 6890  11.424   4.105   0.583
34998SOL    HW1 6891  11.454   4.166   0.516
34998SOL    HW2 6892  11.501   4.089   0.637
34999SOL     OW 6893  10.022   6.507   8.598
34999SOL    HW1 6894   9.991   6.467   8.679
34999SOL    HW2 6895   9.966   6.469   8.530
35000SOL     OW 6896   7.923  14.405  11.832
35000SOL    HW1 6897   7.843  14.448  11.802
35000SOL    HW2 6898   7.892  14.327  11.878
35001SOL     OW 6899   3.943   7.978  14.003
35001SOL    HW1 6900   3.997   7.955  13.927
35001SOL    HW2 6901   3.855   7.949  13.979
35002SOL     OW 6902   1.101  14.360   8.760
35002SOL    HW1 6903   1.131  14.396   8.677
35002SOL    HW2 6904   1.175  14.309   8.793
35003SOL     OW 6905   2.092  13.718  12.104
35003SOL    HW1 6906   2.152  13.752  12.170
35003SOL    HW2 6907   2.057  13.797  12.062
35004SOL     OW 6908   2.405  10.066   6.660
35004SOL    HW1 6909   2.430  10.043   6.749
35004SOL    HW2 6910   2.311  10.049   6.655
35005SOL     OW 6911   4.677  12.308  11.786
35005SOL    HW1 6912   4.584  12.288  11.772
35005SOL    HW2 6913   4.712  12.230  11.829
35006SOL     OW 6914   9.735  11.926   0.527
35006SOL    HW1 6915   9.744  11.957   0.617
35006SOL    HW2 6916   9.719  11.832   0.535
35007SOL     OW 6917  12.481   8.237   5.298
35007SOL    HW1 6918  12.498   8.186   5.377
35007SOL    HW2 6919  12.538   8.198   5.232
35008SOL     OW 6920   6.761   4.031   4.943
35008SOL    HW1 6921   6.778   4.122   4.966
35008SOL    HW2 6922   6.836   4.005   4.890
35009SOL     OW 6923   9.736   0.871  14.847
35009SOL    HW1 6924   9.771   0.792  14.806
35009SOL    HW2 6925   9.682   0.838   0.037
35010SOL     OW 6926  11.927   1.544   1.045
35010SOL    HW1 6927  11.836   1.522   1.027
35010SOL    HW2 6928  11.929   1.639   1.050
35011SOL     OW 6929   1.501   3.404   3.400
35011SOL    HW1 6930   1.415   3.446   3.411
35011SOL    HW2 6931   1.543   3.415   3.485
35012SOL     OW 6932   5.977   0.305  12.560
35012SOL    HW1 6933   6.043   0.236  12.548
35012SOL    HW2 6934   5.945   0.323  12.471
35013SOL     OW 6935  10.136  10.701  10.407
35013SOL    HW1 6936  10.079  10.624  10.406
35013SOL    HW2 6937  10.077  10.775  10.419
35014SOL     OW 6938   6.515  12.745   1.156
35014SOL    HW1 6939   6.555  12.737   1.242
35014SOL    HW2 6940   6.565  12.686   1.100
35015SOL     OW 6941  13.651  14.653  12.313
35015SOL    HW1 6942  13.711  14.664  12.238
35015SOL    HW2 6943  13.686  14.577  12.360
35016SOL     OW 6944   5.931   2.431  10.434
35016SOL    HW1 6945   5.907   2.505  10.489
35016SOL    HW2 6946   5.858   2.370  10.441
35017SOL     OW 6947   3.940   0.793  13.732
35017SOL    HW1 6948   3.960   0.855  13.661
35017SOL    HW2 6949   3.955   0.707  13.693
35018SOL     OW 6950  13.899   6.330   6.030
35018SOL    HW1 6951  13.832   6.276   5.988
35018SOL    HW2 6952  13.980   6.282   6.017
35019SOL     OW 6953   3.154  14.140  14.239
35019SOL    HW1 6954   3.224  14.147  14.304
35019SOL    HW2 6955   3.078  14.109  14.289
35020SOL     OW 6956  12.902  11.946  11.170
35020SOL    HW1 6957  12.818  11.935  11.216
35020SOL    HW2 6958  12.877  11.957  11.078
35021SOL     OW 6959   1.629  11.787   2.126
35021SOL    HW1 6960   1.669  11.717   2.075
35021SOL    HW2 6961   1.699  11.852   2.136
35022SOL     OW 6962  14.187   0.791   0.760
35022SOL    HW1 6963  14.273   0.750   0.762
35022SOL    HW2 6964  14.126   0.719   0.776
35023SOL     OW 6965   3.045  12.859   6.107
35023SOL    HW1 6966   2.992  12.782   6.129
35023SOL    HW2 6967   3.014  12.884   6.020
35024SOL     OW 6968   7.257   5.461  14.812
35024SOL    HW1 6969   7.214   5.397  14.755
35024SOL    HW2 6970   7.275   5.413   0.011
35025SOL     OW 6971   2.510  10.682   8.224
35025SOL    HW1 6972   2.491  10.588   8.220
35025SOL    HW2 6973   2.485  10.715   8.138
35026SOL     OW 6974   0.120   8.664   5.332
35026SOL    HW1 6975   0.106   8.717   5.411
35026SOL    HW2 6976   0.139   8.576   5.366
35027SOL     OW 6977   5.441   8.122  13.822
35027SOL    HW1 6978   5.461   8.212  13.796
35027SOL    HW2 6979   5.458   8.071  13.743
35028SOL     OW 6980   3.080  13.792   0.564
35028SOL    HW1 6981   3.004  13.776   0.507
35028SOL    HW2 6982   3.122  13.707   0.573
35029SOL     OW 6983  14.030  12.245   9.529
35029SOL    HW1 6984  13.982  12.327   9.522
35029SOL    HW2 6985  13.970  12.179   9.496
35030SOL     OW 6986  12.946  11.683   7.096
35030SOL    HW1 6987  13.013  11.745   7.069
35030SOL    HW2 6988  12.865  11.733   7.097
35031SOL     OW 6989   9.436  10.788   4.174
35031SOL    HW1 6990   9.390  10.809   4.255
35031SOL    HW2 6991   9.428  10.866   4.120
35032SOL     OW 6992   8.661  12.339  10.712
35032SOL    HW1 6993   8.721  12.406  10.745
35032SOL    HW2 6994   8.693  12.318  10.625
35033SOL     OW 6995   5.462  12.803  10.189
35033SOL    HW1 6996   5.496  12.753  10.116
35033SOL    HW2 6997   5.475  12.747  10.266
35034SOL     OW 6998   4.643  11.327   5.242
35034SOL    HW1 6999   4.575  11.393   5.257
35034SOL    HW2 7000   4.720  11.360   5.289
35035SOL     OW 7001   7.819   3.359   8.365
35035SOL    HW1 7002   7.847   3.380   8.276
35035SOL    HW2 7003   7.762   3.432   8.390
35036SOL     OW 7004   3.619  11.122   9.246
35036SOL    HW1 7005   3.525  11.110   9.232
35036SOL    HW2 7006   3.640  11.060   9.316
35037SOL     OW 7007   1.277  11.861   3.022
35037SOL    HW1 7008   1.327  11.914   2.959
35037SOL    HW2 7009   1.192  11.904   3.028
35038SOL     OW 7010   4.966   7.437   4.296
35038SOL    HW1 7011   4.941   7.346   4.285
35038SOL    HW2 7012   4.971   7.472   4.207
35039SOL     OW 7013   1.287   2.215   0.278
35039SOL    HW1 7014   1.246   2.149   0.222
35039SOL    HW2 7015   1.358   2.251   0.225
35040SOL     OW 7016  13.307   8.380   7.669
35040SOL    HW1 7017  13.327   8.320   7.597
35040SOL    HW2 7018  13.314   8.467   7.630
35041SOL     OW 7019  13.691   0.273   8.306
35041SOL    HW1 7020  13.740   0.293   8.226
35041SOL    HW2 7021  13.751   0.222   8.359
35042SOL     OW 7022  12.105   6.019   9.904
35042SOL    HW1 7023  12.121   6.102   9.950
35042SOL    HW2 7024  12.124   6.039   9.812
35043SOL     OW 7025   1.736  14.153   4.094
35043SOL    HW1 7026   1.750  14.211   4.019
35043SOL    HW2 7027   1.672  14.089   4.062
35044SOL     OW 7028   2.050   8.279   7.687
35044SOL    HW1 7029   2.091   8.232   7.614
35044SOL    HW2 7030   2.029   8.365   7.651
35045SOL     OW 7031   4.720   9.588   7.917
35045SOL    HW1 7032   4.732   9.493   7.915
35045SOL    HW2 7033   4.747   9.617   7.830
35046SOL     OW 7034   7.340   5.835   6.538
35046SOL    HW1 7035   7.328   5.886   6.457
35046SOL    HW2 7036   7.432   5.807   6.535
35047SOL     OW 7037   9.181  11.595  11.027
35047SOL    HW1 7038   9.093  11.557  11.029
35047SOL    HW2 7039   9.237  11.523  10.998
35048SOL     OW 7040  13.130  10.134  10.148
35048SOL    HW1 7041  13.059  10.127  10.212
35048SOL    HW2 7042  13.210  10.129  10.199
35049SOL     OW 7043  10.191   4.620   3.365
35049SOL    HW1 7044  10.202   4.703   3.319
35049SOL    HW2 7045  10.244   4.628   3.444
35050SOL     OW 7046   3.454   7.290   9.394
35050SOL    HW1 7047   3.482   7.381   9.389
35050SOL    HW2 7048   3.451   7.270   9.487
35051SOL     OW 7049   3.863   0.457   2.570
35051SOL    HW1 7050   3.882   0.363   2.571
35051SOL    HW2 7051   3.932   0.494   2.516
35052SOL     OW 7052   8.625   9.837   5.524
35052SOL    HW1 7053   8.705   9.800   5.560
35052SOL    HW2 7054   8.599   9.776   5.455
35053SOL     OW 7055   1.836  10.709  10.880
35053SOL    HW1 7056   1.865  10.634  10.932
35053SOL    HW2 7057   1.813  10.672  10.795
35054SOL     OW 7058  14.686   3.606   7.090
35054SOL    HW1 7059  14.633   3.676   7.127
35054SOL    HW2 7060  14.773   3.644   7.079
35055SOL     OW 7061   7.188  13.542  13.021
35055SOL    HW1 7062   7.149  13.594  12.951
35055SOL    HW2 7063   7.210  13.459  12.979
35056SOL     OW 7064  10.074   2.065   6.560
35056SOL    HW1 7065  10.120   2.039   6.480
35056SOL    HW2 7066   9.996   2.010   6.563
35057SOL     OW 7067   2.778  10.729   9.161
35057SOL    HW1 7068   2.756  10.659   9.100
35057SOL    HW2 7069   2.747  10.698   9.246
35058SOL     OW 7070   5.697   6.737   4.500
35058SOL    HW1 7071   5.693   6.815   4.555
35058SOL    HW2 7072   5.708   6.665   4.562
35059SOL     OW 7073  13.966   4.571   4.465
35059SOL    HW1 7074  14.039   4.632   4.457
35059SOL    HW2 7075  13.902   4.617   4.519
35060SOL     OW 7076   3.302   8.354   8.460
35060SOL    HW1 7077   3.368   8.288   8.440
35060SOL    HW2 7078   3.321   8.427   8.401
35061SOL     OW 7079  10.882   0.802   4.587
35061SOL    HW1 7080  10.926   0.878   4.626
35061SOL    HW2 7081  10.792   0.808   4.618
35062SOL     OW 7082  11.377   3.338   2.439
35062SOL    HW1 7083  11.450   3.293   2.395
35062SOL    HW2 7084  11.318   3.267   2.465
35063SOL     OW 7085   6.952   1.813   0.937
35063SOL    HW1 7086   6.934   1.897   0.894
35063SOL    HW2 7087   6.935   1.748   0.869
35064SOL     OW 7088   1.964   1.521  11.230
35064SOL    HW1 7089   2.001   1.475  11.155
35064SOL    HW2 7090   1.879   1.479  11.244
35065SOL     OW 7091  13.938   9.728   7.004
35065SOL    HW1 7092  14.002   9.725   7.076
35065SOL    HW2 7093  13.853   9.719   7.047
35066SOL     OW 7094  12.083  10.440  11.393
35066SOL    HW1 7095  11.993  10.409  11.404
35066SOL    HW2 7096  12.127  10.371  11.344
35067SOL     OW 7097   0.831  13.542  11.275
35067SOL    HW1 7098   0.836  13.584  11.361
35067SOL    HW2 7099   0.772  13.468  11.287
35068SOL     OW 7100  14.872   8.124   6.102
35068SOL    HW1 7101  14.880   8.215   6.131
35068SOL    HW2 7102  14.780   8.102   6.118
35069SOL     OW 7103   5.057   3.629   2.703
35069SOL    HW1 7104   5.116   3.694   2.741
35069SOL    HW2 7105   5.055   3.558   2.768
35070SOL     OW 7106   9.759   5.451   7.347
35070SOL    HW1 7107   9.749   5.441   7.253
35070SOL    HW2 7108   9.718   5.374   7.385
35071SOL     OW 7109   4.705  10.209   8.075
35071SOL    HW1 7110   4.749  10.179   8.155
35071SOL    HW2 7111   4.617  10.170   8.080
35072SOL     OW 7112  13.561   7.271   9.267
35072SOL    HW1 7113  13.575   7.181   9.237
35072SOL    HW2 7114  13.649   7.305   9.282
35073SOL     OW 7115   2.682  11.844   3.527
35073SOL    HW1 7116   2.658  11.830   3.435
35073SOL    HW2 7117   2.712  11.758   3.557
35074SOL     OW 7118  12.002   6.701   6.060
35074SOL    HW1 7119  11.989   6.708   6.154
35074SOL    HW2 7120  11.914   6.683   6.025
35075SOL     OW 7121  13.884   6.269   0.504
35075SOL    HW1 7122  13.836   6.341   0.464
35075SOL    HW2 7123  13.835   6.249   0.584
35076SOL     OW 7124   9.877  14.616   2.633
35076SOL    HW1 7125   9.831  14.534   2.610
35076SOL    HW2 7126   9.823  14.655   2.702
35077SOL     OW 7127  11.556   6.415   7.634
35077SOL    HW1 7128  11.586   6.343   7.579
35077SOL    HW2 7129  11.472   6.441   7.597
35078SOL     OW 7130  13.982  13.470   7.656
35078SOL    HW1 7131  14.071  13.498   7.636
35078SOL    HW2 7132  13.927  13.525   7.600
35079SOL     OW 7133  14.218   1.777   7.754
35079SOL    HW1 7134  14.132   1.746   7.727
35079SOL    HW2 7135  14.269   1.778   7.673
35080SOL     OW 7136  13.205   6.452   2.269
35080SOL    HW1 7137  13.140   6.382   2.265
35080SOL    HW2 7138  13.280   6.413   2.314
35081SOL     OW 7139   1.140   2.010   5.800
35081SOL    HW1 7140   1.139   2.081   5.736
35081SOL    HW2 7141   1.049   2.005   5.830
35082SOL     OW 7142  14.290  11.711   7.905
35082SOL    HW1 7143  14.320  11.758   7.827
35082SOL    HW2 7144  14.355  11.731   7.972
35083SOL     OW 7145   6.501   0.111   2.964
35083SOL    HW1 7146   6.486   0.203   2.986
35083SOL    HW2 7147   6.485   0.107   2.869
35084SOL     OW 7148  11.548  14.414   6.784
35084SOL    HW1 7149  11.540  14.370   6.699
35084SOL    HW2 7150  11.588  14.499   6.762
35085SOL     OW 7151  13.855   8.375  13.745
35085SOL    HW1 7152  13.928   8.316  13.765
35085SOL    HW2 7153  13.838   8.361  13.652
35086SOL     OW 7154   4.190   9.652   7.635
35086SOL    HW1 7155   4.121   9.658   7.701
35086SOL    HW2 7156   4.272   9.658   7.684
35087SOL     OW 7157   5.591  14.152   1.494
35087SOL    HW1 7158   5.628  14.066   1.477
35087SOL    HW2 7159   5.499  14.145   1.466
35088SOL     OW 7160  10.306   7.851  10.715
35088SOL    HW1 7161  10.326   7.880  10.804
35088SOL    HW2 7162  10.256   7.924  10.676
35089SOL     OW 7163  11.252   4.812  10.195
35089SOL    HW1 7164  11.181   4.869  10.164
35089SOL    HW2 7165  11.221   4.724  10.176
35090SOL     OW 7166  12.392   4.426   3.104
35090SOL    HW1 7167  12.429   4.441   3.017
35090SOL    HW2 7168  12.337   4.349   3.094
35091SOL     OW 7169   8.376   4.153   9.700
35091SOL    HW1 7170   8.298   4.167   9.646
35091SOL    HW2 7171   8.447   4.144   9.636
35092SOL     OW 7172   8.200  10.369   6.708
35092SOL    HW1 7173   8.227  10.315   6.782
35092SOL    HW2 7174   8.147  10.310   6.653
35093SOL     OW 7175   9.362   1.909   2.993
35093SOL    HW1 7176   9.384   1.862   2.913
35093SOL    HW2 7177   9.400   1.857   3.064
35094SOL     OW 7178  11.676  12.324   4.442
35094SOL    HW1 7179  11.673  12.292   4.352
35094SOL    HW2 7180  11.596  12.376   4.452
35095SOL     OW 7181  14.431   9.424   6.924
35095SOL    HW1 7182  14.380   9.451   7.000
35095SOL    HW2 7183  14.430   9.328   6.927
35096SOL     OW 7184  11.775   7.583   5.903
35096SOL    HW1 7185  11.764   7.581   5.808
35096SOL    HW2 7186  11.719   7.654   5.933
35097SOL     OW 7187   3.308  14.524  13.822
35097SOL    HW1 7188   3.347  14.441  13.794
35097SOL    HW2 7189   3.242  14.543  13.755
35098SOL     OW 7190   2.711   9.024  13.721
35098SOL    HW1 7191   2.676   8.993  13.804
35098SOL    HW2 7192   2.768   9.098  13.745
35099SOL     OW 7193   3.272   3.834   3.102
35099SOL    HW1 7194   3.332   3.888   3.153
35099SOL    HW2 7195   3.185   3.861   3.130
35100SOL     OW 7196   4.634   1.492  12.759
35100SOL    HW1 7197   4.576   1.497  12.684
35100SOL    HW2 7198   4.655   1.583  12.779
35101SOL     OW 7199   7.014   2.491   3.990
35101SOL    HW1 7200   7.010   2.582   4.020
35101SOL    HW2 7201   6.930   2.454   4.015
35102SOL     OW 7202   9.410  14.325  10.182
35102SOL    HW1 7203   9.411  14.329  10.086
35102SOL    HW2 7204   9.502  14.312  10.206
35103SOL     OW 7205   8.968  14.745  11.901
35103SOL    HW1 7206   8.935  14.751  11.811
35103SOL    HW2 7207   8.981  14.835  11.929
35104SOL     OW 7208   5.628   6.886   5.205
35104SOL    HW1 7209   5.698   6.952   5.198
35104SOL    HW2 7210   5.675   6.803   5.212
35105SOL     OW 7211  11.956  10.536   2.575
35105SOL    HW1 7212  11.885  10.491   2.621
35105SOL    HW2 7213  11.942  10.629   2.595
35106SOL     OW 7214  11.849  13.096   6.672
35106SOL    HW1 7215  11.941  13.075   6.689
35106SOL    HW2 7216  11.809  13.099   6.759
35107SOL     OW 7217   2.777  11.553   8.526
35107SOL    HW1 7218   2.781  11.493   8.452
35107SOL    HW2 7219   2.705  11.612   8.505
35108SOL     OW 7220   9.765  10.239   0.800
35108SOL    HW1 7221   9.738  10.298   0.730
35108SOL    HW2 7222   9.796  10.160   0.754
35109SOL     OW 7223   8.291   9.048   5.455
35109SOL    HW1 7224   8.342   9.083   5.382
35109SOL    HW2 7225   8.246   9.124   5.492
35110SOL     OW 7226  11.801   6.971   2.221
35110SOL    HW1 7227  11.868   7.019   2.174
35110SOL    HW2 7228  11.719   7.013   2.196
35111SOL     OW 7229   3.986   3.400   4.399
35111SOL    HW1 7230   4.018   3.488   4.382
35111SOL    HW2 7231   4.063   3.344   4.395
35112SOL     OW 7232   1.777   3.205  10.912
35112SOL    HW1 7233   1.842   3.229  10.977
35112SOL    HW2 7234   1.804   3.252  10.832
35113SOL     OW 7235   2.487   1.284   3.162
35113SOL    HW1 7236   2.577   1.259   3.143
35113SOL    HW2 7237   2.466   1.351   3.097
35114SOL     OW 7238   6.874   9.116  10.680
35114SOL    HW1 7239   6.782   9.111  10.705
35114SOL    HW2 7240   6.888   9.042  10.622
35115SOL     OW 7241   7.982  10.789   3.948
35115SOL    HW1 7242   7.952  10.710   3.993
35115SOL    HW2 7243   8.047  10.827   4.007
35116SOL     OW 7244  12.466  10.777   5.917
35116SOL    HW1 7245  12.407  10.761   5.991
35116SOL    HW2 7246  12.549  10.738   5.944
35117SOL     OW 7247  14.647   5.037   0.343
35117SOL    HW1 7248  14.558   5.072   0.337
35117SOL    HW2 7249  14.665   5.031   0.436
35118SOL     OW 7250   3.461   9.524  14.618
35118SOL    HW1 7251   3.538   9.534  14.561
35118SOL    HW2 7252   3.463   9.432  14.644
35119SOL     OW 7253  11.965  11.231  12.143
35119SOL    HW1 7254  11.956  11.307  12.085
35119SOL    HW2 7255  11.925  11.259  12.226
35120SOL     OW 7256   8.166  10.088   7.861
35120SOL    HW1 7257   8.250  10.091   7.907
35120SOL    HW2 7258   8.102  10.068   7.929
35121SOL     OW 7259   9.445   2.479  10.544
35121SOL    HW1 7260   9.460   2.471  10.638
35121SOL    HW2 7261   9.350   2.489  10.535
35122SOL     OW 7262  12.116   6.258   0.633
35122SOL    HW1 7263  12.196   6.209   0.616
35122SOL    HW2 7264  12.046   6.204   0.597
35123SOL     OW 7265   0.663  13.050   4.115
35123SOL    HW1 7266   0.733  13.033   4.178
35123SOL    HW2 7267   0.698  13.117   4.057
35124SOL     OW 7268   2.160   6.415   7.771
35124SOL    HW1 7269   2.107   6.493   7.790
35124SOL    HW2 7270   2.110   6.369   7.703
35125SOL     OW 7271   4.189   0.884  11.314
35125SOL    HW1 7272   4.096   0.888  11.292
35125SOL    HW2 7273   4.206   0.791  11.329
35126SOL     OW 7274  10.544   6.249  12.958
35126SOL    HW1 7275  10.611   6.308  12.992
35126SOL    HW2 7276  10.472   6.255  13.020
35127SOL     OW 7277   3.479   6.121   1.607
35127SOL    HW1 7278   3.462   6.209   1.640
35127SOL    HW2 7279   3.439   6.063   1.672
35128SOL     OW 7280  12.181   9.072   1.789
35128SOL    HW1 7281  12.100   9.046   1.744
35128SOL    HW2 7282  12.247   9.074   1.719
35129SOL     OW 7283  10.246   6.092  12.230
35129SOL    HW1 7284  10.285   6.118  12.147
35129SOL    HW2 7285  10.294   6.013  12.256
35130SOL     OW 7286  11.994   9.294   0.582
35130SOL    HW1 7287  11.911   9.301   0.537
35130SOL    HW2 7288  11.972   9.295   0.675
35131SOL     OW 7289   8.639   1.370   7.829
35131SOL    HW1 7290   8.621   1.353   7.922
35131SOL    HW2 7291   8.552   1.373   7.788
35132SOL     OW 7292   9.848  10.617  12.176
35132SOL    HW1 7293   9.846  10.649  12.085
35132SOL    HW2 7294   9.757  10.619  12.203
35133SOL     OW 7295   2.982  14.037   2.131
35133SOL    HW1 7296   2.945  14.124   2.117
35133SOL    HW2 7297   2.959  14.015   2.221
35134SOL     OW 7298   6.524   6.361   9.466
35134SOL    HW1 7299   6.525   6.399   9.378
35134SOL    HW2 7300   6.589   6.412   9.515
35135SOL     OW 7301   5.447  10.183   3.874
35135SOL    HW1 7302   5.519  10.206   3.931
35135SOL    HW2 7303   5.388  10.132   3.929
35136SOL     OW 7304   9.607  11.585   9.582
35136SOL    HW1 7305   9.667  11.639   9.633
35136SOL    HW2 7306   9.644  11.497   9.586
35137SOL     OW 7307  13.377   2.985  10.248
35137SOL    HW1 7308  13.362   3.047  10.176
35137SOL    HW2 7309  13.389   3.040  10.325
35138SOL     OW 7310   5.823  12.885   9.548
35138SOL    HW1 7311   5.760  12.882   9.476
35138SOL    HW2 7312   5.875  12.805   9.537
35139SOL     OW 7313   1.799  12.150   2.488
35139SOL    HW1 7314   1.839  12.066   2.510
35139SOL    HW2 7315   1.864  12.194   2.432
35140SOL     OW 7316   6.759   8.623   7.803
35140SOL    HW1 7317   6.668   8.647   7.783
35140SOL    HW2 7318   6.752   8.556   7.871
35141SOL     OW 7319  10.326  10.933   3.417
35141SOL    HW1 7320  10.336  11.024   3.392
35141SOL    HW2 7321  10.245  10.905   3.374
35142SOL     OW 7322  14.689   0.164  12.561
35142SOL    HW1 7323  14.705   0.185  12.469
35142SOL    HW2 7324  14.619   0.225  12.587
35143SOL     OW 7325   3.716   7.766   6.347
35143SOL    HW1 7326   3.781   7.709   6.389
35143SOL    HW2 7327   3.690   7.827   6.415
35144SOL     OW 7328  12.269   1.391   1.882
35144SOL    HW1 7329  12.308   1.468   1.841
35144SOL    HW2 7330  12.242   1.336   1.808
35145SOL     OW 7331  14.503   3.238  11.583
35145SOL    HW1 7332  14.424   3.252  11.634
35145SOL    HW2 7333  14.493   3.150  11.547
35146SOL     OW 7334   6.727   8.404   2.215
35146SOL    HW1 7335   6.638   8.372   2.199
35146SOL    HW2 7336   6.745   8.381   2.306
35147SOL     OW 7337   0.592   2.114   2.717
35147SOL    HW1 7338   0.570   2.021   2.719
35147SOL    HW2 7339   0.648   2.126   2.795
35148SOL     OW 7340   8.030   5.848  14.636
35148SOL    HW1 7341   8.033   5.820  14.727
35148SOL    HW2 7342   8.104   5.908  14.627
35149SOL     OW 7343   6.059   4.279  14.572
35149SOL    HW1 7344   6.133   4.304  14.516
35149SOL    HW2 7345   6.081   4.191  14.603
35150SOL     OW 7346   9.488   9.533   9.134
35150SOL    HW1 7347   9.490   9.616   9.182
35150SOL    HW2 7348   9.421   9.481   9.178
35151SOL     OW 7349  13.331  13.230   0.388
35151SOL    HW1 7350  13.375  13.149   0.361
35151SOL    HW2 7351  13.387  13.265   0.458
35152SOL     OW 7352  11.302   8.341   9.987
35152SOL    HW1 7353  11.355   8.412   9.949
35152SOL    HW2 7354  11.215   8.378   9.996
35153SOL     OW 7355   4.448   0.750   7.569
35153SOL    HW1 7356   4.405   0.799   7.639
35153SOL    HW2 7357   4.512   0.811   7.533
35154SOL     OW 7358   7.401  11.483   6.493
35154SOL    HW1 7359   7.317  11.507   6.452
35154SOL    HW2 7360   7.466  11.494   6.423
35155SOL     OW 7361   7.799   7.498   8.494
35155SOL    HW1 7362   7.878   7.552   8.500
35155SOL    HW2 7363   7.744   7.528   8.567
35156SOL     OW 7364   6.566   4.345  13.978
35156SOL    HW1 7365   6.534   4.269  14.027
35156SOL    HW2 7366   6.525   4.420  14.020
35157SOL     OW 7367   1.615   1.524   5.028
35157SOL    HW1 7368   1.660   1.502   4.946
35157SOL    HW2 7369   1.523   1.533   5.004
35158SOL     OW 7370   7.224   0.924  12.027
35158SOL    HW1 7371   7.227   0.936  12.122
35158SOL    HW2 7372   7.158   0.987  11.997
35159SOL     OW 7373   5.833   0.795   9.489
35159SOL    HW1 7374   5.767   0.742   9.534
35159SOL    HW2 7375   5.802   0.885   9.496
35160SOL     OW 7376  10.120   5.621   2.675
35160SOL    HW1 7377  10.147   5.712   2.691
35160SOL    HW2 7378  10.171   5.594   2.598
35161SOL     OW 7379  10.193   9.078   2.665
35161SOL    HW1 7380  10.118   9.137   2.666
35161SOL    HW2 7381  10.216   9.067   2.758
35162SOL     OW 7382   7.861   0.205  11.944
35162SOL    HW1 7383   7.907   0.279  11.984
35162SOL    HW2 7384   7.918   0.130  11.961
35163SOL     OW 7385   8.361   3.735  10.595
35163SOL    HW1 7386   8.422   3.663  10.606
35163SOL    HW2 7387   8.347   3.740  10.500
35164SOL     OW 7388   5.257   5.510  11.269
35164SOL    HW1 7389   5.302   5.557  11.200
35164SOL    HW2 7390   5.293   5.421  11.265
35165SOL     OW 7391  11.756   1.518   4.151
35165SOL    HW1 7392  11.684   1.520   4.214
35165SOL    HW2 7393  11.809   1.595   4.171
35166SOL     OW 7394   6.166   4.773   0.111
35166SOL    HW1 7395   6.107   4.832   0.159
35166SOL    HW2 7396   6.153   4.687   0.151
35167SOL     OW 7397   0.388   2.431  12.622
35167SOL    HW1 7398   0.303   2.472  12.636
35167SOL    HW2 7399   0.377   2.379  12.542
35168SOL     OW 7400   1.566   2.600  14.840
35168SOL    HW1 7401   1.603   2.541  14.774
35168SOL    HW2 7402   1.584   2.688  14.806
35169SOL     OW 7403   1.211   4.558   8.077
35169SOL    HW1 7404   1.252   4.577   8.161
35169SOL    HW2 7405   1.282   4.561   8.013
35170SOL     OW 7406   7.023  13.468   4.824
35170SOL    HW1 7407   7.025  13.387   4.874
35170SOL    HW2 7408   6.958  13.452   4.755
35171SOL     OW 7409   2.566   4.429   5.999
35171SOL    HW1 7410   2.474   4.437   6.027
35171SOL    HW2 7411   2.566   4.354   5.939
35172SOL     OW 7412   6.234   3.509  14.171
35172SOL    HW1 7413   6.195   3.431  14.132
35172SOL    HW2 7414   6.259   3.564  14.097
35173SOL     OW 7415  12.143  11.206  14.069
35173SOL    HW1 7416  12.173  11.205  13.978
35173SOL    HW2 7417  12.223  11.204  14.121
35174SOL     OW 7418   7.803   5.709   1.332
35174SOL    HW1 7419   7.828   5.679   1.419
35174SOL    HW2 7420   7.827   5.637   1.274
35175SOL     OW 7421   5.799  13.302   7.790
35175SOL    HW1 7422   5.778  13.227   7.846
35175SOL    HW2 7423   5.757  13.282   7.707
35176SOL     OW 7424   3.211   9.159   8.969
35176SOL    HW1 7425   3.230   9.103   9.044
35176SOL    HW2 7426   3.116   9.172   8.973
35177SOL     OW 7427   0.830   9.584  13.167
35177SOL    HW1 7428   0.743   9.619  13.149
35177SOL    HW2 7429   0.851   9.615  13.255
35178SOL     OW 7430   1.778   4.817   0.651
35178SOL    HW1 7431   1.873   4.818   0.647
35178SOL    HW2 7432   1.751   4.885   0.589
35179SOL     OW 7433  11.459   3.526   8.583
35179SOL    HW1 7434  11.415   3.457   8.632
35179SOL    HW2 7435  11.388   3.579   8.547
35180SOL     OW 7436  11.662   6.953   0.843
35180SOL    HW1 7437  11.685   7.046   0.842
35180SOL    HW2 7438  11.725   6.914   0.903
35181SOL     OW 7439   3.376  13.457   3.790
35181SOL    HW1 7440   3.338  13.442   3.877
35181SOL    HW2 7441   3.391  13.369   3.755
35182SOL     OW 7442  12.118   5.422   3.415
35182SOL    HW1 7443  12.177   5.346   3.421
35182SOL    HW2 7444  12.030   5.385   3.423
35183SOL     OW 7445   6.561  13.113   4.198
35183SOL    HW1 7446   6.645  13.068   4.187
35183SOL    HW2 7447   6.532  13.089   4.286
35184SOL     OW 7448  10.549   2.087   6.635
35184SOL    HW1 7449  10.521   2.170   6.596
35184SOL    HW2 7450  10.473   2.030   6.627
35185SOL     OW 7451  12.010   4.224   2.588
35185SOL    HW1 7452  11.999   4.189   2.676
35185SOL    HW2 7453  11.996   4.149   2.530
35186SOL     OW 7454  11.442  14.628  11.209
35186SOL    HW1 7455  11.414  14.679  11.285
35186SOL    HW2 7456  11.370  14.567  11.193
35187SOL     OW 7457  14.434  11.874   7.729
35187SOL    HW1 7458  14.514  11.849   7.684
35187SOL    HW2 7459  14.465  11.923   7.806
35188SOL     OW 7460   2.024   6.975   4.517
35188SOL    HW1 7461   1.976   6.992   4.598
35188SOL    HW2 7462   2.082   6.902   4.539
35189SOL     OW 7463  14.224  13.305   5.290
35189SOL    HW1 7464  14.199  13.389   5.252
35189SOL    HW2 7465  14.186  13.306   5.378
35190SOL     OW 7466  13.059   7.724   2.211
35190SOL    HW1 7467  12.998   7.770   2.153
35190SOL    HW2 7468  13.022   7.737   2.299
35191SOL     OW 7469   1.033   8.321   3.338
35191SOL    HW1 7470   1.022   8.314   3.244
35191SOL    HW2 7471   0.986   8.402   3.362
35192SOL     OW 7472  14.237   7.748  13.793
35192SOL    HW1 7473  14.179   7.680  13.760
35192SOL    HW2 7474  14.325   7.715  13.775
35193SOL     OW 7475   2.941   0.743   0.826
35193SOL    HW1 7476   2.923   0.836   0.842
35193SOL    HW2 7477   3.017   0.724   0.881
35194SOL     OW 7478   3.042   5.538  12.189
35194SOL    HW1 7479   3.038   5.506  12.099
35194SOL    HW2 7480   3.008   5.627  12.184
35195SOL     OW 7481   2.892   0.431  10.957
35195SOL    HW1 7482   2.907   0.393  10.871
35195SOL    HW2 7483   2.965   0.493  10.968
35196SOL     OW 7484   1.880   3.219   3.927
35196SOL    HW1 7485   1.951   3.209   3.990
35196SOL    HW2 7486   1.864   3.313   3.923
35197SOL     OW 7487   6.928  11.179   5.288
35197SOL    HW1 7488   6.981  11.259   5.287
35197SOL    HW2 7489   6.992  11.109   5.279
35198SOL     OW 7490  13.238   4.721   4.391
35198SOL    HW1 7491  13.312   4.696   4.334
35198SOL    HW2 7492  13.263   4.806   4.427
35199SOL     OW 7493   6.473   5.589   7.087
35199SOL    HW1 7494   6.402   5.590   7.023
35199SOL    HW2 7495   6.552   5.594   7.034
35200SOL     OW 7496   4.546   9.329   7.773
35200SOL    HW1 7497   4.469   9.334   7.829
35200SOL    HW2 7498   4.560   9.235   7.759
35201SOL     OW 7499   8.510  11.730   0.217
35201SOL    HW1 7500   8.583  11.781   0.181
35201SOL    HW2 7501   8.444  11.796   0.240
35202SOL     OW 7502   7.823  11.728  13.335
35202SOL    HW1 7503   7.893  11.677  13.295
35202SOL    HW2 7504   7.866  11.773  13.408
35203SOL     OW 7505  11.196  11.538   7.625
35203SOL    HW1 7506  11.121  11.595   7.610
35203SOL    HW2 7507  11.224  11.512   7.537
35204SOL     OW 7508   1.908   1.856   2.349
35204SOL    HW1 7509   1.886   1.850   2.256
35204SOL    HW2 7510   1.982   1.796   2.360
35205SOL     OW 7511   1.326  14.528   6.603
35205SOL    HW1 7512   1.347  14.498   6.515
35205SOL    HW2 7513   1.333  14.624   6.598
35206SOL     OW 7514   2.369   2.543   5.813
35206SOL    HW1 7515   2.295   2.539   5.873
35206SOL    HW2 7516   2.371   2.457   5.771
35207SOL     OW 7517   9.535   0.174   0.395
35207SOL    HW1 7518   9.490   0.154   0.313
35207SOL    HW2 7519   9.526   0.094   0.447
35208SOL     OW 7520   1.875  10.410   0.662
35208SOL    HW1 7521   1.889  10.318   0.637
35208SOL    HW2 7522   1.781  10.417   0.675
35209SOL     OW 7523  14.676   4.079   7.881
35209SOL    HW1 7524  14.696   4.152   7.938
35209SOL    HW2 7525  14.658   4.006   7.940
35210SOL     OW 7526  11.758   4.484  13.898
35210SOL    HW1 7527  11.734   4.570  13.862
35210SOL    HW2 7528  11.706   4.476  13.978
35211SOL     OW 7529   5.989   5.961   9.591
35211SOL    HW1 7530   5.961   5.869   9.589
35211SOL    HW2 7531   5.959   5.993   9.676
35212SOL     OW 7532   3.346   8.247   5.828
35212SOL    HW1 7533   3.297   8.182   5.778
35212SOL    HW2 7534   3.425   8.262   5.776
35213SOL     OW 7535   2.602  12.301  13.063
35213SOL    HW1 7536   2.527  12.265  13.015
35213SOL    HW2 7537   2.650  12.351  12.997
35214SOL     OW 7538  11.987   5.712   5.520
35214SOL    HW1 7539  11.972   5.666   5.437
35214SOL    HW2 7540  11.964   5.648   5.587
35215SOL     OW 7541  14.795   1.808   7.479
35215SOL    HW1 7542  14.815   1.830   7.570
35215SOL    HW2 7543  14.729   1.873   7.453
35216SOL     OW 7544   8.503  10.019   6.839
35216SOL    HW1 7545   8.452   9.969   6.775
35216SOL    HW2 7546   8.516   9.958   6.912
35217SOL     OW 7547   5.518  12.360  14.580
35217SOL    HW1 7548   5.498  12.454  14.579
35217SOL    HW2 7549   5.436  12.319  14.609
35218SOL     OW 7550   5.708  10.818   2.414
35218SOL    HW1 7551   5.798  10.828   2.445
35218SOL    HW2 7552   5.671  10.749   2.470
35219SOL     OW 7553   6.804  14.616  10.827
35219SOL    HW1 7554   6.883  14.668  10.814
35219SOL    HW2 7555   6.738  14.659  10.773
35220SOL     OW 7556   0.505   6.105   0.230
35220SOL    HW1 7557   0.489   6.010   0.228
35220SOL    HW2 7558   0.419   6.143   0.244
35221SOL     OW 7559   5.425   7.820   3.119
35221SOL    HW1 7560   5.415   7.888   3.053
35221SOL    HW2 7561   5.367   7.750   3.092
35222SOL     OW 7562   2.517   7.783   8.750
35222SOL    HW1 7563   2.601   7.796   8.794
35222SOL    HW2 7564   2.455   7.837   8.799
35223SOL     OW 7565  11.871   9.518  13.664
35223SOL    HW1 7566  11.810   9.510  13.737
35223SOL    HW2 7567  11.816   9.538  13.588
35224SOL     OW 7568   6.903   8.454   1.614
35224SOL    HW1 7569   6.939   8.477   1.699
35224SOL    HW2 7570   6.847   8.379   1.631
35225SOL     OW 7571   6.487   0.982  14.231
35225SOL    HW1 7572   6.446   1.060  14.196
35225SOL    HW2 7573   6.571   0.976  14.186
35226SOL     OW 7574  13.715  11.854   7.707
35226SOL    HW1 7575  13.749  11.856   7.618
35226SOL    HW2 7576  13.782  11.808   7.758
35227SOL     OW 7577   3.881  12.123  14.247
35227SOL    HW1 7578   3.806  12.064  14.246
35227SOL    HW2 7579   3.883  12.161  14.159
35228SOL     OW 7580   5.852   5.437  12.011
35228SOL    HW1 7581   5.847   5.459  12.104
35228SOL    HW2 7582   5.940   5.462  11.985
35229SOL     OW 7583  14.795  10.401   6.797
35229SOL    HW1 7584  14.749  10.392   6.881
35229SOL    HW2 7585  14.853  10.325   6.794
35230SOL     OW 7586   0.321   2.952   4.967
35230SOL    HW1 7587   0.403   2.909   4.989
35230SOL    HW2 7588   0.332   2.980   4.876
35231SOL     OW 7589   9.968   8.112   2.507
35231SOL    HW1 7590  10.027   8.046   2.471
35231SOL    HW2 7591   9.927   8.152   2.430
35232SOL     OW 7592   4.559   9.521   8.232
35232SOL    HW1 7593   4.627   9.528   8.165
35232SOL    HW2 7594   4.606   9.529   8.315
35233SOL     OW 7595   4.308   2.645  11.180
35233SOL    HW1 7596   4.390   2.694  11.176
35233SOL    HW2 7597   4.335   2.554  11.194
35234SOL     OW 7598   2.378   9.153  14.136
35234SOL    HW1 7599   2.389   9.243  14.168
35234SOL    HW2 7600   2.285   9.145  14.119
35235SOL     OW 7601   8.176  11.375   0.291
35235SOL    HW1 7602   8.145  11.426   0.366
35235SOL    HW2 7603   8.222  11.300   0.330
35236SOL     OW 7604  13.074   7.658  12.010
35236SOL    HW1 7605  13.130   7.609  12.070
35236SOL    HW2 7606  13.077   7.748  12.043
35237SOL     OW 7607  13.033   8.584   3.829
35237SOL    HW1 7608  13.127   8.601   3.820
35237SOL    HW2 7609  13.029   8.496   3.867
35238SOL     OW 7610  11.648  11.350  10.287
35238SOL    HW1 7611  11.662  11.425  10.346
35238SOL    HW2 7612  11.589  11.384  10.220
35239SOL     OW 7613  14.819   9.185   7.568
35239SOL    HW1 7614  14.747   9.136   7.529
35239SOL    HW2 7615  14.872   9.214   7.494
35240SOL     OW 7616   7.903  12.168  13.466
35240SOL    HW1 7617   7.951  12.216  13.532
35240SOL    HW2 7618   7.818  12.151  13.506
35241SOL     OW 7619   1.043   5.761   4.671
35241SOL    HW1 7620   1.024   5.668   4.661
35241SOL    HW2 7621   0.957   5.804   4.672
35242SOL     OW 7622   1.064  14.357   7.747
35242SOL    HW1 7623   1.078  14.279   7.800
35242SOL    HW2 7624   1.144  14.408   7.756
35243SOL     OW 7625   1.546   2.769  12.626
35243SOL    HW1 7626   1.564   2.851  12.581
35243SOL    HW2 7627   1.494   2.794  12.702
35244SOL     OW 7628   1.537   8.131  14.347
35244SOL    HW1 7629   1.608   8.086  14.300
35244SOL    HW2 7630   1.493   8.063  14.396
35245SOL     OW 7631   8.096  14.570   0.484
35245SOL    HW1 7632   8.081  14.575   0.390
35245SOL    HW2 7633   8.046  14.643   0.521
35246SOL     OW 7634   9.249   3.163   5.181
35246SOL    HW1 7635   9.336   3.124   5.175
35246SOL    HW2 7636   9.190   3.095   5.150
35247SOL     OW 7637  11.275   1.431  13.043
35247SOL    HW1 7638  11.295   1.524  13.029
35247SOL    HW2 7639  11.355   1.395  13.080
35248SOL     OW 7640  12.038   2.654  13.704
35248SOL    HW1 7641  12.023   2.733  13.757
35248SOL    HW2 7642  12.056   2.586  13.769
35249SOL     OW 7643   2.209   3.159   6.783
35249SOL    HW1 7644   2.214   3.209   6.864
35249SOL    HW2 7645   2.184   3.224   6.716
35250SOL     OW 7646   7.597   7.762   6.751
35250SOL    HW1 7647   7.682   7.785   6.713
35250SOL    HW2 7648   7.617   7.690   6.811
35251SOL     OW 7649   2.853   5.123  13.391
35251SOL    HW1 7650   2.885   5.033  13.399
35251SOL    HW2 7651   2.758   5.115  13.386
35252SOL     OW 7652  11.515  10.761   0.415
35252SOL    HW1 7653  11.596  10.784   0.460
35252SOL    HW2 7654  11.503  10.668   0.435
35253SOL     OW 7655   6.294   4.916   9.537
35253SOL    HW1 7656   6.319   5.001   9.503
35253SOL    HW2 7657   6.204   4.902   9.505
35254SOL     OW 7658   4.385   8.519  13.757
35254SOL    HW1 7659   4.443   8.526  13.681
35254SOL    HW2 7660   4.434   8.467  13.821
35255SOL     OW 7661  11.587  10.284   6.579
35255SOL    HW1 7662  11.582  10.193   6.553
35255SOL    HW2 7663  11.553  10.286   6.668
35256SOL     OW 7664  11.153   8.389  13.012
35256SOL    HW1 7665  11.165   8.426  13.100
35256SOL    HW2 7666  11.112   8.460  12.963
35257SOL     OW 7667   7.807   7.603   2.292
35257SOL    HW1 7668   7.742   7.537   2.270
35257SOL    HW2 7669   7.891   7.563   2.267
35258SOL     OW 7670   3.398   8.862  11.700
35258SOL    HW1 7671   3.422   8.934  11.641
35258SOL    HW2 7672   3.302   8.862  11.700
35259SOL     OW 7673   4.076   7.645  12.080
35259SOL    HW1 7674   4.019   7.569  12.096
35259SOL    HW2 7675   4.163   7.607  12.064
35260SOL     OW 7676   3.451   3.639   1.670
35260SOL    HW1 7677   3.437   3.718   1.617
35260SOL    HW2 7678   3.491   3.673   1.751
35261SOL     OW 7679   5.690   4.760  11.086
35261SOL    HW1 7680   5.773   4.762  11.133
35261SOL    HW2 7681   5.624   4.744  11.154
35262SOL     OW 7682  14.054   0.153   7.835
35262SOL    HW1 7683  14.048   0.174   7.928
35262SOL    HW2 7684  14.033   0.059   7.830
35263SOL     OW 7685  14.409  13.936  12.851
35263SOL    HW1 7686  14.501  13.921  12.829
35263SOL    HW2 7687  14.366  13.852  12.834
35264SOL     OW 7688   2.663  10.678   3.253
35264SOL    HW1 7689   2.748  10.703   3.217
35264SOL    HW2 7690   2.649  10.739   3.325
35265SOL     OW 7691  10.264   4.526  11.188
35265SOL    HW1 7692  10.193   4.493  11.243
35265SOL    HW2 7693  10.307   4.448  11.153
35266SOL     OW 7694  12.019  14.054  10.080
35266SOL    HW1 7695  12.101  14.103  10.077
35266SOL    HW2 7696  11.975  14.086  10.159
35267SOL     OW 7697   1.600   2.217   6.934
35267SOL    HW1 7698   1.559   2.271   7.002
35267SOL    HW2 7699   1.685   2.260   6.918
35268SOL     OW 7700   8.756   5.411   3.913
35268SOL    HW1 7701   8.811   5.337   3.887
35268SOL    HW2 7702   8.770   5.420   4.007
35269SOL     OW 7703   2.674   9.014   6.376
35269SOL    HW1 7704   2.760   9.012   6.333
35269SOL    HW2 7705   2.621   9.070   6.320
35270SOL     OW 7706   4.795  13.649   1.905
35270SOL    HW1 7707   4.748  13.570   1.878
35270SOL    HW2 7708   4.728  13.717   1.909
35271SOL     OW 7709   5.083  14.233   4.203
35271SOL    HW1 7710   5.089  14.328   4.192
35271SOL    HW2 7711   5.004  14.220   4.256
35272SOL     OW 7712  12.980   2.684   5.187
35272SOL    HW1 7713  12.892   2.699   5.152
35272SOL    HW2 7714  12.977   2.719   5.276
35273SOL     OW 7715   5.058   4.009   7.974
35273SOL    HW1 7716   5.115   4.086   7.977
35273SOL    HW2 7717   5.119   3.935   7.969
35274SOL     OW 7718  10.916   9.594  14.092
35274SOL    HW1 7719  10.893   9.591  14.185
35274SOL    HW2 7720  10.867   9.523  14.053
35275SOL     OW 7721   2.146  13.758   5.682
35275SOL    HW1 7722   2.222  13.708   5.712
35275SOL    HW2 7723   2.122  13.813   5.757
35276SOL     OW 7724   9.603   5.213  12.030
35276SOL    HW1 7725   9.694   5.221  12.000
35276SOL    HW2 7726   9.611   5.205  12.125
35277SOL     OW 7727   4.872   6.340  10.292
35277SOL    HW1 7728   4.920   6.423  10.295
35277SOL    HW2 7729   4.909   6.294  10.216
35278SOL     OW 7730   6.930   6.602   4.409
35278SOL    HW1 7731   6.839   6.594   4.381
35278SOL    HW2 7732   6.925   6.636   4.499
35279SOL     OW 7733   9.537  11.686   2.887
35279SOL    HW1 7734   9.606  11.717   2.829
35279SOL    HW2 7735   9.561  11.596   2.908
35280SOL     OW 7736   7.184  11.688  14.120
35280SOL    HW1 7737   7.103  11.653  14.083
35280SOL    HW2 7738   7.222  11.616  14.168
35281SOL     OW 7739  10.943   1.181  10.831
35281SOL    HW1 7740  10.880   1.169  10.903
35281SOL    HW2 7741  11.019   1.128  10.856
35282SOL     OW 7742   1.366  12.791   7.103
35282SOL    HW1 7743   1.458  12.766   7.097
35282SOL    HW2 7744   1.362  12.878   7.064
35283SOL     OW 7745   3.437  11.932  12.648
35283SOL    HW1 7746   3.466  11.932  12.557
35283SOL    HW2 7747   3.518  11.941  12.699
35284SOL     OW 7748  14.220   1.703   4.917
35284SOL    HW1 7749  14.148   1.759   4.945
35284SOL    HW2 7750  14.203   1.685   4.825
35285SOL     OW 7751  13.948   5.317  13.247
35285SOL    HW1 7752  13.893   5.390  13.219
35285SOL    HW2 7753  13.886   5.254  13.286
35286SOL     OW 7754   5.896  10.251   0.431
35286SOL    HW1 7755   5.957  10.283   0.497
35286SOL    HW2 7756   5.911  10.307   0.355
35287SOL     OW 7757   4.378   3.193   7.985
35287SOL    HW1 7758   4.464   3.158   8.010
35287SOL    HW2 7759   4.357   3.149   7.903
35288SOL     OW 7760  10.761   7.053   6.705
35288SOL    HW1 7761  10.692   7.080   6.643
35288SOL    HW2 7762  10.749   6.958   6.714
35289SOL     OW 7763   3.536   3.363  13.351
35289SOL    HW1 7764   3.614   3.307  13.355
35289SOL    HW2 7765   3.527   3.384  13.258
35290SOL     OW 7766   9.906   8.313  10.695
35290SOL    HW1 7767   9.850   8.236  10.703
35290SOL    HW2 7768   9.939   8.309  10.605
35291SOL     OW 7769  12.501  14.809   9.044
35291SOL    HW1 7770  12.548  14.859   9.111
35291SOL    HW2 7771  12.469  14.731   9.089
35292SOL     OW 7772  13.758   9.335  12.861
35292SOL    HW1 7773  13.770   9.277  12.936
35292SOL    HW2 7774  13.665   9.331  12.842
35293SOL     OW 7775   2.832   5.943   1.772
35293SOL    HW1 7776   2.805   5.854   1.751
35293SOL    HW2 7777   2.769   5.999   1.726
35294SOL     OW 7778  11.647  10.338   8.679
35294SOL    HW1 7779  11.648  10.396   8.603
35294SOL    HW2 7780  11.610  10.392   8.750
35295SOL     OW 7781  10.246   0.641   8.069
35295SOL    HW1 7782  10.251   0.551   8.039
35295SOL    HW2 7783  10.180   0.640   8.139
35296SOL     OW 7784  11.442   4.519   7.923
35296SOL    HW1 7785  11.450   4.431   7.960
35296SOL    HW2 7786  11.512   4.525   7.859
35297SOL     OW 7787  11.483  11.104  11.274
35297SOL    HW1 7788  11.414  11.067  11.330
35297SOL    HW2 7789  11.549  11.034  11.268
35298SOL     OW 7790   1.877   3.778   1.202
35298SOL    HW1 7791   1.931   3.824   1.266
35298SOL    HW2 7792   1.863   3.691   1.240
35299SOL     OW 7793  13.853   5.569   0.891
35299SOL    HW1 7794  13.821   5.625   0.962
35299SOL    HW2 7795  13.912   5.507   0.934
35300SOL     OW 7796   8.192  14.808   4.208
35300SOL    HW1 7797   8.222  14.761   4.286
35300SOL    HW2 7798   8.244   0.006   4.207
35301SOL     OW 7799   9.200   6.376   9.455
35301SOL    HW1 7800   9.123   6.380   9.512
35301SOL    HW2 7801   9.211   6.466   9.423
35302SOL     OW 7802   6.298  14.002   2.419
35302SOL    HW1 7803   6.270  13.933   2.479
35302SOL    HW2 7804   6.266  14.083   2.459
35303SOL     OW 7805   5.498   1.692   4.540
35303SOL    HW1 7806   5.532   1.622   4.596
35303SOL    HW2 7807   5.429   1.650   4.488
35304SOL     OW 7808   8.510   6.127   6.294
35304SOL    HW1 7809   8.587   6.184   6.286
35304SOL    HW2 7810   8.534   6.063   6.361
35305SOL     OW 7811  10.866   3.590  13.739
35305SOL    HW1 7812  10.915   3.541  13.806
35305SOL    HW2 7813  10.911   3.569  13.657
35306SOL     OW 7814   7.382   7.995   3.275
35306SOL    HW1 7815   7.418   8.001   3.364
35306SOL    HW2 7816   7.362   7.902   3.264
35307SOL     OW 7817   3.182   3.160  10.591
35307SOL    HW1 7818   3.160   3.240  10.639
35307SOL    HW2 7819   3.124   3.161  10.515
35308SOL     OW 7820  12.185  12.706   7.709
35308SOL    HW1 7821  12.243  12.718   7.634
35308SOL    HW2 7822  12.125  12.636   7.682
35309SOL     OW 7823   8.994   4.072   9.281
35309SOL    HW1 7824   8.904   4.081   9.314
35309SOL    HW2 7825   9.046   4.130   9.336
35310SOL     OW 7826   2.085  12.269   0.020
35310SOL    HW1 7827   2.061  12.308   0.104
35310SOL    HW2 7828   2.027  12.194   0.010
35311SOL     OW 7829  13.591   4.482   9.917
35311SOL    HW1 7830  13.666   4.424   9.908
35311SOL    HW2 7831  13.515   4.425   9.904
35312SOL     OW 7832   0.591  10.197   0.231
35312SOL    HW1 7833   0.560  10.262   0.295
35312SOL    HW2 7834   0.520  10.133   0.226
35313SOL     OW 7835   5.044  14.645  10.127
35313SOL    HW1 7836   4.976  14.636  10.061
35313SOL    HW2 7837   5.054  14.557  10.164
35314SOL     OW 7838  13.434   5.437   5.244
35314SOL    HW1 7839  13.520   5.428   5.285
35314SOL    HW2 7840  13.449   5.495   5.170
35315SOL     OW 7841  12.072  14.336   3.111
35315SOL    HW1 7842  12.029  14.259   3.074
35315SOL    HW2 7843  12.027  14.411   3.072
35316SOL     OW 7844   3.766  14.635   9.467
35316SOL    HW1 7845   3.799  14.654   9.379
35316SOL    HW2 7846   3.729  14.547   9.461
35317SOL     OW 7847  14.607  14.146   6.042
35317SOL    HW1 7848  14.542  14.207   6.007
35317SOL    HW2 7849  14.614  14.078   5.975
35318SOL     OW 7850   8.945  10.111  11.606
35318SOL    HW1 7851   8.863  10.074  11.574
35318SOL    HW2 7852   8.980  10.044  11.665
35319SOL     OW 7853   7.598   0.397  10.192
35319SOL    HW1 7854   7.583   0.491  10.194
35319SOL    HW2 7855   7.682   0.387  10.146
35320SOL     OW 7856   5.899  11.809   1.974
35320SOL    HW1 7857   5.990  11.807   1.944
35320SOL    HW2 7858   5.890  11.892   2.020
35321SOL     OW 7859   1.424  11.836   5.404
35321SOL    HW1 7860   1.415  11.931   5.403
35321SOL    HW2 7861   1.494  11.818   5.341
35322SOL     OW 7862   7.925   5.424   2.884
35322SOL    HW1 7863   7.924   5.490   2.954
35322SOL    HW2 7864   7.887   5.468   2.809
35323SOL     OW 7865  10.299  13.938   6.384
35323SOL    HW1 7866  10.224  13.940   6.324
35323SOL    HW2 7867  10.289  13.857   6.433
35324SOL     OW 7868   1.905   9.973   8.943
35324SOL    HW1 7869   1.860   9.922   9.010
35324SOL    HW2 7870   1.943  10.047   8.991
35325SOL     OW 7871   5.789  12.114   4.211
35325SOL    HW1 7872   5.849  12.186   4.231
35325SOL    HW2 7873   5.702  12.152   4.222
35326SOL     OW 7874  11.723  13.739   8.788
35326SOL    HW1 7875  11.671  13.705   8.716
35326SOL    HW2 7876  11.745  13.662   8.840
35327SOL     OW 7877  12.442   7.055   9.843
35327SOL    HW1 7878  12.371   7.093   9.894
35327SOL    HW2 7879  12.417   7.070   9.752
35328SOL     OW 7880   6.859  12.351  10.460
35328SOL    HW1 7881   6.892  12.336  10.372
35328SOL    HW2 7882   6.879  12.271  10.508
35329SOL     OW 7883   7.461   3.045   6.212
35329SOL    HW1 7884   7.419   2.961   6.234
35329SOL    HW2 7885   7.395   3.111   6.232
35330SOL     OW 7886   6.364  13.594  12.126
35330SOL    HW1 7887   6.394  13.617  12.214
35330SOL    HW2 7888   6.285  13.542  12.140
35331SOL     OW 7889   0.088   0.453  12.556
35331SOL    HW1 7890   0.171   0.407  12.559
35331SOL    HW2 7891   0.098   0.527  12.616
35332SOL     OW 7892  14.855  10.389   4.404
35332SOL    HW1 7893  14.857  10.335   4.326
35332SOL    HW2 7894  14.769  10.374   4.443
35333SOL     OW 7895   8.660   5.983   0.704
35333SOL    HW1 7896   8.712   5.933   0.767
35333SOL    HW2 7897   8.724   6.025   0.648
35334SOL     OW 7898   7.195   2.936  13.221
35334SOL    HW1 7899   7.238   2.852  13.203
35334SOL    HW2 7900   7.215   2.989  13.144
35335SOL     OW 7901   3.047   2.458   2.130
35335SOL    HW1 7902   3.122   2.519   2.126
35335SOL    HW2 7903   3.084   2.374   2.105
35336SOL     OW 7904   9.057   6.060   8.611
35336SOL    HW1 7905   8.964   6.042   8.615
35336SOL    HW2 7906   9.064   6.155   8.619
35337SOL     OW 7907  14.025  13.432  11.617
35337SOL    HW1 7908  14.096  13.420  11.681
35337SOL    HW2 7909  14.065  13.485  11.547
35338SOL     OW 7910   5.471  10.385   9.248
35338SOL    HW1 7911   5.503  10.466   9.207
35338SOL    HW2 7912   5.376  10.394   9.246
35339SOL     OW 7913  11.013  14.420   8.509
35339SOL    HW1 7914  10.930  14.425   8.556
35339SOL    HW2 7915  11.032  14.327   8.502
35340SOL     OW 7916   3.914   8.059  10.691
35340SOL    HW1 7917   4.001   8.098  10.688
35340SOL    HW2 7918   3.873   8.084  10.608
35341SOL     OW 7919  12.643   4.380  12.343
35341SOL    HW1 7920  12.697   4.376  12.264
35341SOL    HW2 7921  12.598   4.296  12.346
35342SOL     OW 7922  11.526   6.238  14.307
35342SOL    HW1 7923  11.461   6.282  14.362
35342SOL    HW2 7924  11.511   6.273  14.219
35343SOL     OW 7925   0.100   8.542   1.573
35343SOL    HW1 7926   0.031   8.532   1.508
35343SOL    HW2 7927   0.098   8.636   1.594
35344SOL     OW 7928  10.377   0.975  14.134
35344SOL    HW1 7929  10.300   0.929  14.100
35344SOL    HW2 7930  10.439   0.975  14.062
35345SOL     OW 7931   3.480   6.232   0.089
35345SOL    HW1 7932   3.556   6.291   0.080
35345SOL    HW2 7933   3.450   6.218  14.882
35346SOL     OW 7934  13.979   0.646   1.714
35346SOL    HW1 7935  14.045   0.583   1.745
35346SOL    HW2 7936  13.902   0.592   1.694
35347SOL     OW 7937   6.567   1.904   2.358
35347SOL    HW1 7938   6.529   1.820   2.333
35347SOL    HW2 7939   6.511   1.936   2.428
35348SOL     OW 7940   2.872  14.580   5.356
35348SOL    HW1 7941   2.955  14.541   5.328
35348SOL    HW2 7942   2.812  14.562   5.283
35349SOL     OW 7943  12.916   6.592   6.830
35349SOL    HW1 7944  12.938   6.557   6.744
35349SOL    HW2 7945  12.889   6.682   6.813
35350SOL     OW 7946   8.204   8.518   9.547
35350SOL    HW1 7947   8.171   8.573   9.476
35350SOL    HW2 7948   8.142   8.445   9.552
35351SOL     OW 7949   2.897   5.076  11.151
35351SOL    HW1 7950   2.927   5.150  11.098
35351SOL    HW2 7951   2.871   5.010  11.087
35352SOL     OW 7952   9.217   4.268   1.546
35352SOL    HW1 7953   9.254   4.262   1.634
35352SOL    HW2 7954   9.292   4.257   1.487
35353SOL     OW 7955   7.326  11.546  11.325
35353SOL    HW1 7956   7.268  11.560  11.400
35353SOL    HW2 7957   7.409  11.518  11.364
35354SOL     OW 7958   3.104  11.924   2.497
35354SOL    HW1 7959   3.195  11.955   2.491
35354SOL    HW2 7960   3.111  11.835   2.532
35355SOL     OW 7961   2.541   9.436   0.891
35355SOL    HW1 7962   2.526   9.512   0.948
35355SOL    HW2 7963   2.512   9.466   0.804
35356SOL     OW 7964   0.547   1.398   5.771
35356SOL    HW1 7965   0.583   1.348   5.844
35356SOL    HW2 7966   0.619   1.404   5.708
35357SOL     OW 7967  12.227  13.257   3.349
35357SOL    HW1 7968  12.241  13.337   3.298
35357SOL    HW2 7969  12.158  13.279   3.411
35358SOL     OW 7970   7.454   7.483   2.928
35358SOL    HW1 7971   7.522   7.486   2.861
35358SOL    HW2 7972   7.449   7.573   2.962
35359SOL     OW 7973   5.978  11.498   3.923
35359SOL    HW1 7974   5.994  11.433   3.992
35359SOL    HW2 7975   5.947  11.575   3.970
35360SOL     OW 7976   0.610   4.641  11.597
35360SOL    HW1 7977   0.636   4.585  11.524
35360SOL    HW2 7978   0.671   4.617  11.668
35361SOL     OW 7979   2.448   8.307   6.888
35361SOL    HW1 7980   2.518   8.290   6.951
35361SOL    HW2 7981   2.433   8.223   6.846
35362SOL     OW 7982  13.618   9.405   9.597
35362SOL    HW1 7983  13.611   9.337   9.530
35362SOL    HW2 7984  13.704   9.390   9.636
35363SOL     OW 7985  11.468  11.918   6.771
35363SOL    HW1 7986  11.507  11.837   6.738
35363SOL    HW2 7987  11.377  11.897   6.788
35364SOL     OW 7988   2.520   3.262  14.307
35364SOL    HW1 7989   2.458   3.219  14.249
35364SOL    HW2 7990   2.466   3.312  14.368
35365SOL     OW 7991   5.783   3.840   2.619
35365SOL    HW1 7992   5.845   3.845   2.547
35365SOL    HW2 7993   5.838   3.839   2.698
35366SOL     OW 7994   6.698  12.042  12.949
35366SOL    HW1 7995   6.790  12.039  12.976
35366SOL    HW2 7996   6.695  11.991  12.868
35367SOL     OW 7997  12.598  10.543   8.263
35367SOL    HW1 7998  12.524  10.497   8.224
35367SOL    HW2 7999  12.588  10.528   8.357
35368SOL     OW 8000   4.062   5.338  14.566
35368SOL    HW1 8001   4.083   5.248  14.543
35368SOL    HW2 8002   3.967   5.345  14.553
35369SOL     OW 8003  10.108   0.944  11.348
35369SOL    HW1 8004  10.142   1.034  11.350
35369SOL    HW2 8005  10.183   0.890  11.371
35370SOL     OW 8006   4.388   9.394   6.453
35370SOL    HW1 8007   4.416   9.366   6.540
35370SOL    HW2 8008   4.292   9.384   6.454
35371SOL     OW 8009   6.316  13.134  10.525
35371SOL    HW1 8010   6.234  13.095  10.493
35371SOL    HW2 8011   6.377  13.125  10.452
35372SOL     OW 8012   6.250  13.424   1.023
35372SOL    HW1 8013   6.277  13.339   0.989
35372SOL    HW2 8014   6.318  13.448   1.086
35373SOL     OW 8015  14.484   6.078   7.933
35373SOL    HW1 8016  14.412   6.133   7.966
35373SOL    HW2 8017  14.447   5.990   7.930
35374SOL     OW 8018   8.372  10.981   6.186
35374SOL    HW1 8019   8.332  11.064   6.163
35374SOL    HW2 8020   8.464  10.992   6.162
35375SOL     OW 8021  11.661   3.634   0.253
35375SOL    HW1 8022  11.595   3.647   0.184
35375SOL    HW2 8023  11.622   3.677   0.330
35376SOL     OW 8024  14.301   0.936   8.140
35376SOL    HW1 8025  14.247   0.989   8.200
35376SOL    HW2 8026  14.363   0.998   8.103
35377SOL     OW 8027   9.339   1.390   6.563
35377SOL    HW1 8028   9.319   1.383   6.657
35377SOL    HW2 8029   9.389   1.471   6.555
35378SOL     OW 8030   1.537  12.953   0.907
35378SOL    HW1 8031   1.603  13.021   0.902
35378SOL    HW2 8032   1.547  12.903   0.827
35379SOL     OW 8033   0.203   2.149   6.557
35379SOL    HW1 8034   0.293   2.129   6.585
35379SOL    HW2 8035   0.187   2.091   6.483
35380SOL     OW 8036   8.645   3.179   9.541
35380SOL    HW1 8037   8.715   3.121   9.571
35380SOL    HW2 8038   8.626   3.151   9.452
35381SOL     OW 8039   8.041   2.669  14.579
35381SOL    HW1 8040   7.992   2.733  14.529
35381SOL    HW2 8041   8.105   2.721  14.628
35382SOL     OW 8042   0.645   6.509   9.877
35382SOL    HW1 8043   0.672   6.417   9.874
35382SOL    HW2 8044   0.551   6.506   9.863
35383SOL     OW 8045   6.003   3.643   7.002
35383SOL    HW1 8046   6.012   3.674   6.911
35383SOL    HW2 8047   6.060   3.566   7.007
35384SOL     OW 8048   8.645   4.276   3.162
35384SOL    HW1 8049   8.600   4.346   3.208
35384SOL    HW2 8050   8.631   4.295   3.069
35385SOL     OW 8051   3.854   0.205   2.023
35385SOL    HW1 8052   3.760   0.188   2.021
35385SOL    HW2 8053   3.874   0.219   2.115
35386SOL     OW 8054  10.280   6.899  12.522
35386SOL    HW1 8055  10.185   6.910  12.525
35386SOL    HW2 8056  10.315   6.979  12.562
35387SOL     OW 8057  13.750  14.501   9.308
35387SOL    HW1 8058  13.715  14.578   9.353
35387SOL    HW2 8059  13.845  14.509   9.317
35388SOL     OW 8060   8.836   8.145  10.120
35388SOL    HW1 8061   8.754   8.111  10.157
35388SOL    HW2 8062   8.904   8.090  10.158
35389SOL     OW 8063   1.973   6.876  13.340
35389SOL    HW1 8064   1.879   6.861  13.340
35389SOL    HW2 8065   1.995   6.893  13.249
35390SOL     OW 8066  12.190  14.221   9.325
35390SOL    HW1 8067  12.108  14.207   9.372
35390SOL    HW2 8068  12.254  14.240   9.394
35391SOL     OW 8069   1.769   2.608   3.002
35391SOL    HW1 8070   1.748   2.698   3.028
35391SOL    HW2 8071   1.698   2.556   3.040
35392SOL     OW 8072   2.906   3.674   4.661
35392SOL    HW1 8073   2.869   3.727   4.590
35392SOL    HW2 8074   2.935   3.594   4.618
35393SOL     OW 8075   5.914  13.411   6.982
35393SOL    HW1 8076   5.889  13.370   6.899
35393SOL    HW2 8077   5.832  13.442   7.019
35394SOL     OW 8078   4.531  12.866   0.864
35394SOL    HW1 8079   4.467  12.909   0.920
35394SOL    HW2 8080   4.516  12.902   0.777
35395SOL     OW 8081  12.310  14.506   9.362
35395SOL    HW1 8082  12.333  14.597   9.381
35395SOL    HW2 8083  12.283  14.469   9.446
35396SOL     OW 8084   7.645  14.057   4.498
35396SOL    HW1 8085   7.704  14.123   4.536
35396SOL    HW2 8086   7.612  14.098   4.419
35397SOL     OW 8087   3.380  13.645  13.293
35397SOL    HW1 8088   3.359  13.710  13.226
35397SOL    HW2 8089   3.316  13.661  13.362
35398SOL     OW 8090   5.249   2.997   4.611
35398SOL    HW1 8091   5.327   2.957   4.572
35398SOL    HW2 8092   5.192   3.014   4.536
35399SOL     OW 8093   0.825   1.843   0.341
35399SOL    HW1 8094   0.835   1.937   0.321
35399SOL    HW2 8095   0.786   1.841   0.428
35400SOL     OW 8096  13.670   6.834  11.254
35400SOL    HW1 8097  13.628   6.773  11.315
35400SOL    HW2 8098  13.640   6.806  11.167
35401SOL     OW 8099  13.169   2.793   4.969
35401SOL    HW1 8100  13.113   2.864   4.937
35401SOL    HW2 8101  13.110   2.736   5.018
35402SOL     OW 8102  10.079   6.148   7.588
35402SOL    HW1 8103  10.022   6.201   7.643
35402SOL    HW2 8104  10.143   6.110   7.649
35403SOL     OW 8105   1.123   0.798  12.858
35403SOL    HW1 8106   1.209   0.757  12.870
35403SOL    HW2 8107   1.139   0.892  12.868
35404SOL     OW 8108  13.670   6.471  13.581
35404SOL    HW1 8109  13.613   6.413  13.531
35404SOL    HW2 8110  13.753   6.469  13.533
35405SOL     OW 8111   3.919   6.555   9.475
35405SOL    HW1 8112   3.850   6.619   9.492
35405SOL    HW2 8113   3.900   6.521   9.388
35406SOL     OW 8114  10.997   7.911   9.805
35406SOL    HW1 8115  11.054   7.908   9.728
35406SOL    HW2 8116  11.021   7.833   9.856
35407SOL     OW 8117  13.710   6.812  13.635
35407SOL    HW1 8118  13.634   6.755  13.641
35407SOL    HW2 8119  13.778   6.759  13.593
35408SOL     OW 8120   7.736  11.419   1.063
35408SOL    HW1 8121   7.661  11.472   1.033
35408SOL    HW2 8122   7.791  11.481   1.111
35409SOL     OW 8123   5.398   5.532   8.381
35409SOL    HW1 8124   5.335   5.602   8.399
35409SOL    HW2 8125   5.353   5.474   8.320
35410SOL     OW 8126  14.861   9.185  12.117
35410SOL    HW1 8127   0.014   9.274  12.116
35410SOL    HW2 8128  14.790   9.189  12.182
35411SOL     OW 8129  12.127   1.540  13.400
35411SOL    HW1 8130  12.049   1.515  13.450
35411SOL    HW2 8131  12.183   1.584  13.464
35412SOL     OW 8132   4.085   6.140  14.335
35412SOL    HW1 8133   4.048   6.100  14.256
35412SOL    HW2 8134   4.073   6.234  14.322
35413SOL     OW 8135   2.518  12.416   8.396
35413SOL    HW1 8136   2.566  12.427   8.478
35413SOL    HW2 8137   2.530  12.324   8.372
35414SOL     OW 8138   0.627   0.017  13.533
35414SOL    HW1 8139   0.574  14.822  13.515
35414SOL    HW2 8140   0.654   0.049  13.447
35415SOL     OW 8141   2.694  10.884  10.306
35415SOL    HW1 8142   2.752  10.960  10.305
35415SOL    HW2 8143   2.721  10.835  10.384
35416SOL     OW 8144   5.182  10.006   0.633
35416SOL    HW1 8145   5.235  10.078   0.601
35416SOL    HW2 8146   5.217   9.928   0.590
35417SOL     OW 8147   9.834   7.792   2.543
35417SOL    HW1 8148   9.876   7.842   2.473
35417SOL    HW2 8149   9.906   7.755   2.593
35418SOL     OW 8150   8.557   7.021   5.612
35418SOL    HW1 8151   8.572   7.082   5.540
35418SOL    HW2 8152   8.589   7.067   5.690
35419SOL     OW 8153   1.348   3.826  13.271
35419SOL    HW1 8154   1.317   3.916  13.261
35419SOL    HW2 8155   1.271   3.772  13.251
35420SOL     OW 8156   6.686  13.616  12.085
35420SOL    HW1 8157   6.616  13.649  12.142
35420SOL    HW2 8158   6.693  13.524  12.108
35421SOL     OW 8159  13.937   1.555   2.876
35421SOL    HW1 8160  13.965   1.505   2.953
35421SOL    HW2 8161  13.990   1.635   2.879
35422SOL     OW 8162  10.123   8.440  12.337
35422SOL    HW1 8163  10.154   8.364  12.288
35422SOL    HW2 8164  10.079   8.495  12.272
35423SOL     OW 8165   3.690   4.615   3.809
35423SOL    HW1 8166   3.768   4.669   3.821
35423SOL    HW2 8167   3.722   4.525   3.814
35424SOL     OW 8168  12.847   5.811   8.380
35424SOL    HW1 8169  12.940   5.790   8.373
35424SOL    HW2 8170  12.844   5.895   8.425
35425SOL     OW 8171   1.459   9.060   7.144
35425SOL    HW1 8172   1.374   9.064   7.100
35425SOL    HW2 8173   1.440   9.017   7.228
35426SOL     OW 8174   5.438   4.722  14.601
35426SOL    HW1 8175   5.386   4.733  14.681
35426SOL    HW2 8176   5.439   4.808  14.561
35427SOL     OW 8177  13.635   5.439   3.310
35427SOL    HW1 8178  13.569   5.472   3.249
35427SOL    HW2 8179  13.680   5.517   3.342
35428SOL     OW 8180   1.716   1.381  13.696
35428SOL    HW1 8181   1.704   1.354  13.787
35428SOL    HW2 8182   1.762   1.464  13.702
35429SOL     OW 8183  10.436   1.287  13.681
35429SOL    HW1 8184  10.410   1.203  13.719
35429SOL    HW2 8185  10.519   1.270  13.638
35430SOL     OW 8186  14.180   7.063  12.116
35430SOL    HW1 8187  14.193   7.122  12.190
35430SOL    HW2 8188  14.192   7.118  12.039
35431SOL     OW 8189   4.638  10.814   8.894
35431SOL    HW1 8190   4.589  10.896   8.895
35431SOL    HW2 8191   4.602  10.764   8.967
35432SOL     OW 8192  10.595   9.103   9.924
35432SOL    HW1 8193  10.540   9.035   9.886
35432SOL    HW2 8194  10.547   9.185   9.907
35433SOL     OW 8195  10.621  12.067   2.688
35433SOL    HW1 8196  10.586  11.989   2.731
35433SOL    HW2 8197  10.696  12.035   2.639
35434SOL     OW 8198   0.325  11.853   6.559
35434SOL    HW1 8199   0.261  11.797   6.602
35434SOL    HW2 8200   0.403  11.848   6.614
35435SOL     OW 8201   6.154  12.452   7.830
35435SOL    HW1 8202   6.208  12.527   7.805
35435SOL    HW2 8203   6.192  12.422   7.912
35436SOL     OW 8204   2.168   3.582   2.614
35436SOL    HW1 8205   2.206   3.598   2.700
35436SOL    HW2 8206   2.231   3.620   2.553
35437SOL     OW 8207   6.977   6.328  12.558
35437SOL    HW1 8208   6.887   6.302  12.574
35437SOL    HW2 8209   6.994   6.304  12.467
35438SOL     OW 8210  12.199  13.566   3.005
35438SOL    HW1 8211  12.269  13.608   2.955
35438SOL    HW2 8212  12.132  13.546   2.940
35439SOL     OW 8213   2.969   2.698  10.940
35439SOL    HW1 8214   2.951   2.655  11.023
35439SOL    HW2 8215   2.889   2.686  10.888
35440SOL     OW 8216   7.553   2.936   4.995
35440SOL    HW1 8217   7.541   2.842   4.988
35440SOL    HW2 8218   7.604   2.949   5.075
35441SOL     OW 8219   8.626   6.601   1.099
35441SOL    HW1 8220   8.691   6.623   1.033
35441SOL    HW2 8221   8.597   6.685   1.133
35442SOL     OW 8222   3.632  10.747  11.877
35442SOL    HW1 8223   3.574  10.694  11.933
35442SOL    HW2 8224   3.581  10.826  11.859
35443SOL     OW 8225   3.700   0.423  14.129
35443SOL    HW1 8226   3.613   0.453  14.102
35443SOL    HW2 8227   3.707   0.333  14.096
35444SOL     OW 8228  14.799   8.896   8.616
35444SOL    HW1 8229  14.869   8.941   8.663
35444SOL    HW2 8230  14.841   8.818   8.580
35445SOL     OW 8231  11.221  13.671   9.678
35445SOL    HW1 8232  11.226  13.656   9.584
35445SOL    HW2 8233  11.225  13.767   9.687
35446SOL     OW 8234   4.898   0.084  11.152
35446SOL    HW1 8235   4.819   0.042  11.187
35446SOL    HW2 8236   4.931   0.023  11.086
35447SOL     OW 8237  10.928   6.615  10.381
35447SOL    HW1 8238  10.904   6.556  10.452
35447SOL    HW2 8239  11.016   6.587  10.355
35448SOL     OW 8240  13.213   7.488   1.476
35448SOL    HW1 8241  13.143   7.436   1.515
35448SOL    HW2 8242  13.268   7.425   1.430
35449SOL     OW 8243   9.877   7.721   9.383
35449SOL    HW1 8244   9.854   7.813   9.390
35449SOL    HW2 8245   9.966   7.715   9.418
35450SOL     OW 8246  10.690   7.304   1.480
35450SOL    HW1 8247  10.626   7.373   1.499
35450SOL    HW2 8248  10.773   7.339   1.511
35451SOL     OW 8249  13.786  10.641  12.622
35451SOL    HW1 8250  13.789  10.735  12.604
35451SOL    HW2 8251  13.796  10.635  12.717
35452SOL     OW 8252   6.674   3.429  11.395
35452SOL    HW1 8253   6.611   3.379  11.342
35452SOL    HW2 8254   6.628   3.509  11.417
35453SOL     OW 8255   7.073  10.672   8.535
35453SOL    HW1 8256   7.135  10.600   8.530
35453SOL    HW2 8257   7.057  10.697   8.444
35454SOL     OW 8258   2.688   7.865  11.909
35454SOL    HW1 8259   2.742   7.921  11.853
35454SOL    HW2 8260   2.712   7.891  11.999
35455SOL     OW 8261  14.396  13.615  14.067
35455SOL    HW1 8262  14.483  13.596  14.102
35455SOL    HW2 8263  14.403  13.598  13.973
35456SOL     OW 8264  13.859   2.504  11.287
35456SOL    HW1 8265  13.949   2.536  11.279
35456SOL    HW2 8266  13.805   2.575  11.253
35457SOL     OW 8267   6.900   4.279   4.146
35457SOL    HW1 8268   6.844   4.215   4.104
35457SOL    HW2 8269   6.965   4.227   4.194
35458SOL     OW 8270   9.102  10.626   9.167
35458SOL    HW1 8271   9.172  10.567   9.138
35458SOL    HW2 8272   9.106  10.699   9.106
35459SOL     OW 8273   3.574  11.298   2.952
35459SOL    HW1 8274   3.478  11.301   2.946
35459SOL    HW2 8275   3.594  11.205   2.959
35460SOL     OW 8276   8.512  10.568  12.363
35460SOL    HW1 8277   8.587  10.552  12.306
35460SOL    HW2 8278   8.520  10.503  12.433
35461SOL     OW 8279   0.587  11.747  13.373
35461SOL    HW1 8280   0.572  11.704  13.457
35461SOL    HW2 8281   0.602  11.839  13.395
35462SOL     OW 8282   9.791   6.858  11.796
35462SOL    HW1 8283   9.765   6.948  11.775
35462SOL    HW2 8284   9.881   6.851  11.764
35463SOL     OW 8285   8.356   7.140   1.575
35463SOL    HW1 8286   8.308   7.159   1.656
35463SOL    HW2 8287   8.326   7.208   1.514
35464SOL     OW 8288   7.911   9.868   0.290
35464SOL    HW1 8289   7.878   9.926   0.359
35464SOL    HW2 8290   7.950   9.795   0.338
35465SOL     OW 8291   6.908  12.587  14.034
35465SOL    HW1 8292   6.910  12.516  14.098
35465SOL    HW2 8293   6.953  12.551  13.958
35466SOL     OW 8294   4.078   3.762  12.729
35466SOL    HW1 8295   4.080   3.667  12.737
35466SOL    HW2 8296   3.985   3.783  12.722
35467SOL     OW 8297  12.680   0.300   1.704
35467SOL    HW1 8298  12.696   0.252   1.785
35467SOL    HW2 8299  12.766   0.303   1.661
35468SOL     OW 8300   4.871   9.734  11.384
35468SOL    HW1 8301   4.920   9.654  11.364
35468SOL    HW2 8302   4.779   9.707  11.380
35469SOL     OW 8303  11.873   6.740   2.743
35469SOL    HW1 8304  11.851   6.784   2.662
35469SOL    HW2 8305  11.813   6.665   2.747
35470SOL     OW 8306   9.025   1.701  12.565
35470SOL    HW1 8307   8.939   1.735  12.588
35470SOL    HW2 8308   9.007   1.631  12.502
35471SOL     OW 8309   2.591   4.434   1.435
35471SOL    HW1 8310   2.608   4.509   1.378
35471SOL    HW2 8311   2.674   4.420   1.481
35472SOL     OW 8312   5.723   8.478   2.169
35472SOL    HW1 8313   5.752   8.527   2.246
35472SOL    HW2 8314   5.642   8.435   2.197
35473SOL     OW 8315  10.679   3.329   9.238
35473SOL    HW1 8316  10.712   3.327   9.148
35473SOL    HW2 8317  10.726   3.402   9.279
35474SOL     OW 8318   7.326   3.763   5.404
35474SOL    HW1 8319   7.369   3.834   5.453
35474SOL    HW2 8320   7.392   3.735   5.341
35475SOL     OW 8321   2.310   6.025  12.008
35475SOL    HW1 8322   2.249   6.096  11.987
35475SOL    HW2 8323   2.379   6.067  12.058
35476SOL     OW 8324   4.168   8.584   8.228
35476SOL    HW1 8325   4.157   8.656   8.166
35476SOL    HW2 8326   4.245   8.537   8.195
35477SOL     OW 8327   3.061   3.262  10.858
35477SOL    HW1 8328   3.144   3.248  10.904
35477SOL    HW2 8329   3.067   3.351  10.822
35478SOL     OW 8330   9.499   9.042   4.074
35478SOL    HW1 8331   9.408   9.018   4.094
35478SOL    HW2 8332   9.502   9.137   4.086
35479SOL     OW 8333   1.463   8.592  14.576
35479SOL    HW1 8334   1.403   8.654  14.534
35479SOL    HW2 8335   1.433   8.506  14.547
35480SOL     OW 8336  14.012  11.751  11.685
35480SOL    HW1 8337  13.946  11.711  11.628
35480SOL    HW2 8338  14.095  11.717  11.653
35481SOL     OW 8339   2.946   8.413   5.089
35481SOL    HW1 8340   2.950   8.354   5.014
35481SOL    HW2 8341   3.024   8.392   5.140
35482SOL     OW 8342   6.587  13.369   0.408
35482SOL    HW1 8343   6.644  13.295   0.429
35482SOL    HW2 8344   6.509  13.356   0.462
35483SOL     OW 8345   5.786   0.835   5.430
35483SOL    HW1 8346   5.844   0.911   5.435
35483SOL    HW2 8347   5.841   0.766   5.392
35484SOL     OW 8348   1.564   0.324   6.577
35484SOL    HW1 8349   1.496   0.317   6.644
35484SOL    HW2 8350   1.646   0.326   6.626
35485SOL     OW 8351   9.783   7.328   1.249
35485SOL    HW1 8352   9.835   7.252   1.276
35485SOL    HW2 8353   9.806   7.341   1.157
35486SOL     OW 8354  12.254   3.151   7.752
35486SOL    HW1 8355  12.261   3.059   7.726
35486SOL    HW2 8356  12.204   3.149   7.833
35487SOL     OW 8357  13.211  13.453  11.644
35487SOL    HW1 8358  13.174  13.538  11.666
35487SOL    HW2 8359  13.262  13.428  11.721
35488SOL     OW 8360   6.077   5.570   4.196
35488SOL    HW1 8361   6.039   5.647   4.154
35488SOL    HW2 8362   6.009   5.503   4.192
35489SOL     OW 8363   6.906   6.091   7.705
35489SOL    HW1 8364   6.998   6.119   7.712
35489SOL    HW2 8365   6.866   6.121   7.787
35490SOL     OW 8366   7.561  10.971   9.226
35490SOL    HW1 8367   7.471  10.956   9.256
35490SOL    HW2 8368   7.609  10.995   9.305
35491SOL     OW 8369  14.245  12.983   1.829
35491SOL    HW1 8370  14.293  12.902   1.848
35491SOL    HW2 8371  14.195  13.000   1.909
35492SOL     OW 8372   9.049   8.584   3.084
35492SOL    HW1 8373   9.091   8.546   3.161
35492SOL    HW2 8374   8.959   8.601   3.112
35493SOL     OW 8375   2.734  11.200  12.176
35493SOL    HW1 8376   2.768  11.251  12.250
35493SOL    HW2 8377   2.768  11.244  12.099
35494SOL     OW 8378   7.863   5.237   8.333
35494SOL    HW1 8379   7.862   5.262   8.425
35494SOL    HW2 8380   7.882   5.319   8.286
35495SOL     OW 8381   7.213   1.320  12.977
35495SOL    HW1 8382   7.126   1.338  13.012
35495SOL    HW2 8383   7.206   1.339  12.884
35496SOL     OW 8384  10.020   2.698   5.555
35496SOL    HW1 8385   9.946   2.686   5.496
35496SOL    HW2 8386  10.094   2.659   5.509
35497SOL     OW 8387   7.649   8.395   7.850
35497SOL    HW1 8388   7.588   8.337   7.805
35497SOL    HW2 8389   7.641   8.479   7.803
35498SOL     OW 8390   0.687   8.283   3.384
35498SOL    HW1 8391   0.758   8.234   3.342
35498SOL    HW2 8392   0.633   8.215   3.426
35499SOL     OW 8393   3.861  13.584  13.298
35499SOL    HW1 8394   3.837  13.674  13.279
35499SOL    HW2 8395   3.790  13.551  13.354
35500SOL     OW 8396   9.193  11.381   6.386
35500SOL    HW1 8397   9.175  11.334   6.467
35500SOL    HW2 8398   9.287  11.371   6.373
35501SOL     OW 8399   5.085   9.102   4.784
35501SOL    HW1 8400   5.030   9.160   4.731
35501SOL    HW2 8401   5.056   9.013   4.759
35502SOL     OW 8402   9.644   6.637   7.405
35502SOL    HW1 8403   9.689   6.682   7.333
35502SOL    HW2 8404   9.585   6.703   7.442
35503SOL     OW 8405   4.871   1.896  11.946
35503SOL    HW1 8406   4.897   1.953  11.874
35503SOL    HW2 8407   4.948   1.841  11.963
35504SOL     OW 8408  12.783   7.167  12.305
35504SOL    HW1 8409  12.743   7.236  12.252
35504SOL    HW2 8410  12.790   7.092  12.246
35505SOL     OW 8411   6.586   6.443   3.957
35505SOL    HW1 8412   6.496   6.417   3.935
35505SOL    HW2 8413   6.638   6.366   3.939
35506SOL     OW 8414   0.124  14.805  10.231
35506SOL    HW1 8415   0.031  14.820  10.219
35506SOL    HW2 8416   0.161  14.813  10.143
35507SOL     OW 8417   1.811   0.558  11.041
35507SOL    HW1 8418   1.831   0.572  11.133
35507SOL    HW2 8419   1.887   0.589  10.994
35508SOL     OW 8420   9.778   8.251   7.366
35508SOL    HW1 8421   9.780   8.294   7.280
35508SOL    HW2 8422   9.793   8.322   7.428
35509SOL     OW 8423   8.784  10.949   8.818
35509SOL    HW1 8424   8.709  10.941   8.759
35509SOL    HW2 8425   8.854  10.985   8.763
35510SOL     OW 8426  10.772   0.812   7.548
35510SOL    HW1 8427  10.686   0.834   7.513
35510SOL    HW2 8428  10.827   0.799   7.471
35511SOL     OW 8429   7.466   4.628  10.382
35511SOL    HW1 8430   7.449   4.614  10.475
35511SOL    HW2 8431   7.558   4.656  10.378
35512SOL     OW 8432   0.740   7.874   2.230
35512SOL    HW1 8433   0.723   7.854   2.322
35512SOL    HW2 8434   0.835   7.873   2.222
35513SOL     OW 8435  12.459   3.680   5.544
35513SOL    HW1 8436  12.547   3.678   5.506
35513SOL    HW2 8437  12.445   3.772   5.566
35514SOL     OW 8438   2.558  13.348   1.338
35514SOL    HW1 8439   2.632  13.361   1.397
35514SOL    HW2 8440   2.586  13.387   1.255
35515SOL     OW 8441   0.056   4.559   5.070
35515SOL    HW1 8442   0.107   4.483   5.097
35515SOL    HW2 8443   0.011   4.531   4.990
35516SOL     OW 8444  10.049  14.376   3.108
35516SOL    HW1 8445  10.001  14.413   3.182
35516SOL    HW2 8446  10.085  14.451   3.062
35517SOL     OW 8447   0.153  12.870   8.668
35517SOL    HW1 8448   0.233  12.852   8.717
35517SOL    HW2 8449   0.127  12.958   8.697
35518SOL     OW 8450   2.402   9.724  14.266
35518SOL    HW1 8451   2.396   9.806  14.217
35518SOL    HW2 8452   2.419   9.751  14.356
35519SOL     OW 8453   3.201   8.330  13.038
35519SOL    HW1 8454   3.293   8.310  13.021
35519SOL    HW2 8455   3.177   8.391  12.968
35520SOL     OW 8456   9.739   8.074  13.030
35520SOL    HW1 8457   9.803   8.009  13.001
35520SOL    HW2 8458   9.785   8.126  13.096
35521SOL     OW 8459   5.676   5.824   0.573
35521SOL    HW1 8460   5.768   5.849   0.567
35521SOL    HW2 8461   5.676   5.730   0.552
35522SOL     OW 8462  14.085  10.285  12.476
35522SOL    HW1 8463  14.077  10.354  12.542
35522SOL    HW2 8464  13.996  10.256  12.459
35523SOL     OW 8465   7.763   3.060   2.436
35523SOL    HW1 8466   7.821   2.991   2.403
35523SOL    HW2 8467   7.675   3.027   2.421
35524SOL     OW 8468  10.685  11.553  12.749
35524SOL    HW1 8469  10.729  11.478  12.791
35524SOL    HW2 8470  10.744  11.579  12.678
35525SOL     OW 8471   1.142   2.814  11.535
35525SOL    HW1 8472   1.051   2.822  11.560
35525SOL    HW2 8473   1.183   2.896  11.562
35526SOL     OW 8474   3.098   7.502   5.693
35526SOL    HW1 8475   3.015   7.459   5.713
35526SOL    HW2 8476   3.150   7.434   5.650
35527SOL     OW 8477   2.158   1.284  10.785
35527SOL    HW1 8478   2.091   1.225  10.748
35527SOL    HW2 8479   2.234   1.228  10.800
35528SOL     OW 8480  12.867   0.983   2.191
35528SOL    HW1 8481  12.841   0.953   2.278
35528SOL    HW2 8482  12.961   0.966   2.186
35529SOL     OW 8483   4.027   2.262  11.907
35529SOL    HW1 8484   4.073   2.257  11.991
35529SOL    HW2 8485   3.942   2.302  11.929
35530SOL     OW 8486   1.448  10.457   2.151
35530SOL    HW1 8487   1.409  10.543   2.163
35530SOL    HW2 8488   1.405  10.401   2.216
35531SOL     OW 8489   5.982   6.760   4.606
35531SOL    HW1 8490   6.076   6.747   4.592
35531SOL    HW2 8491   5.968   6.854   4.592
35532SOL     OW 8492  13.213   4.974   7.172
35532SOL    HW1 8493  13.197   4.949   7.081
35532SOL    HW2 8494  13.133   4.948   7.218
35533SOL     OW 8495  12.491   7.289   7.068
35533SOL    HW1 8496  12.455   7.215   7.019
35533SOL    HW2 8497  12.459   7.366   7.022
35534SOL     OW 8498  13.900  11.641   7.304
35534SOL    HW1 8499  13.912  11.618   7.212
35534SOL    HW2 8500  13.971  11.595   7.349
35535SOL     OW 8501   1.996  10.430   3.946
35535SOL    HW1 8502   2.076  10.438   3.894
35535SOL    HW2 8503   1.972  10.338   3.938
35536SOL     OW 8504  10.149   4.286  13.439
35536SOL    HW1 8505  10.177   4.362  13.388
35536SOL    HW2 8506  10.145   4.215  13.376
35537SOL     OW 8507  13.180  12.929   9.921
35537SOL    HW1 8508  13.219  13.001   9.970
35537SOL    HW2 8509  13.155  12.967   9.837
35538SOL     OW 8510   3.724  10.203   9.304
35538SOL    HW1 8511   3.735  10.112   9.278
35538SOL    HW2 8512   3.648  10.203   9.362
35539SOL     OW 8513   2.234  13.479   5.705
35539SOL    HW1 8514   2.266  13.394   5.675
35539SOL    HW2 8515   2.302  13.509   5.766
35540SOL     OW 8516  11.310  12.650  12.499
35540SOL    HW1 8517  11.305  12.691  12.585
35540SOL    HW2 8518  11.318  12.556  12.517
35541SOL     OW 8519   1.583   0.538   5.889
35541SOL    HW1 8520   1.667   0.583   5.885
35541SOL    HW2 8521   1.519   0.608   5.902
35542SOL     OW 8522   4.952   6.075  13.127
35542SOL    HW1 8523   4.905   5.992  13.125
35542SOL    HW2 8524   4.885   6.140  13.104
35543SOL     OW 8525   4.885   3.309   2.304
35543SOL    HW1 8526   4.840   3.388   2.334
35543SOL    HW2 8527   4.817   3.257   2.262
35544SOL     OW 8528  13.679  10.534   7.901
35544SOL    HW1 8529  13.620  10.608   7.889
35544SOL    HW2 8530  13.746  10.546   7.833
35545SOL     OW 8531   4.914   5.145   8.903
35545SOL    HW1 8532   4.924   5.225   8.852
35545SOL    HW2 8533   4.900   5.077   8.838
35546SOL     OW 8534   0.537   1.050   5.814
35546SOL    HW1 8535   0.500   1.097   5.740
35546SOL    HW2 8536   0.521   1.107   5.889
35547SOL     OW 8537   8.875  11.733  13.583
35547SOL    HW1 8538   8.802  11.782  13.545
35547SOL    HW2 8539   8.893  11.664  13.520
35548SOL     OW 8540   2.183   6.129  11.298
35548SOL    HW1 8541   2.243   6.158  11.366
35548SOL    HW2 8542   2.187   6.199  11.232
35549SOL     OW 8543   7.496   1.866   7.353
35549SOL    HW1 8544   7.528   1.780   7.381
35549SOL    HW2 8545   7.411   1.849   7.313
35550SOL     OW 8546   8.405   5.461  13.620
35550SOL    HW1 8547   8.388   5.500  13.706
35550SOL    HW2 8548   8.388   5.532  13.558
35551SOL     OW 8549   3.604   9.892   8.550
35551SOL    HW1 8550   3.584   9.956   8.619
35551SOL    HW2 8551   3.597   9.808   8.594
35552SOL     OW 8552   7.470   1.130   4.383
35552SOL    HW1 8553   7.506   1.154   4.297
35552SOL    HW2 8554   7.544   1.140   4.443
35553SOL     OW 8555   7.101  10.381  13.967
35553SOL    HW1 8556   7.070  10.395  13.878
35553SOL    HW2 8557   7.081  10.289  13.985
35554SOL     OW 8558  10.888  14.339   6.175
35554SOL    HW1 8559  10.821  14.396   6.138
35554SOL    HW2 8560  10.839  14.275   6.227
35555SOL     OW 8561  10.110  14.576   1.485
35555SOL    HW1 8562  10.101  14.481   1.495
35555SOL    HW2 8563  10.201  14.594   1.510
35556SOL     OW 8564  11.172  13.828   1.803
35556SOL    HW1 8565  11.123  13.817   1.722
35556SOL    HW2 8566  11.239  13.893   1.783
35557SOL     OW 8567   1.592  13.699   9.436
35557SOL    HW1 8568   1.521  13.761   9.425
35557SOL    HW2 8569   1.672  13.751   9.423
35558SOL     OW 8570   9.367  12.338  11.499
35558SOL    HW1 8571   9.327  12.306  11.580
35558SOL    HW2 8572   9.342  12.274  11.432
35559SOL     OW 8573   1.675   5.926  14.444
35559SOL    HW1 8574   1.726   5.962  14.372
35559SOL    HW2 8575   1.722   5.846  14.469
35560SOL     OW 8576  10.932   1.587  11.379
35560SOL    HW1 8577  10.876   1.663  11.397
35560SOL    HW2 8578  10.969   1.604  11.293
35561SOL     OW 8579   8.323   8.709  13.866
35561SOL    HW1 8580   8.311   8.803  13.882
35561SOL    HW2 8581   8.348   8.673  13.951
35562SOL     OW 8582  12.803   9.764  14.113
35562SOL    HW1 8583  12.817   9.856  14.093
35562SOL    HW2 8584  12.801   9.721  14.027
35563SOL     OW 8585   9.873   0.914   4.374
35563SOL    HW1 8586   9.930   0.978   4.418
35563SOL    HW2 8587   9.854   0.954   4.289
35564SOL     OW 8588   3.210   8.084  10.652
35564SOL    HW1 8589   3.181   8.066  10.741
35564SOL    HW2 8590   3.262   8.165  10.660
35565SOL     OW 8591   4.276   8.538   9.078
35565SOL    HW1 8592   4.359   8.505   9.114
35565SOL    HW2 8593   4.227   8.565   9.156
35566SOL     OW 8594  14.052  13.286  10.909
35566SOL    HW1 8595  14.042  13.380  10.925
35566SOL    HW2 8596  14.051  13.278  10.814
35567SOL     OW 8597  14.411  10.368   1.231
35567SOL    HW1 8598  14.480  10.387   1.168
35567SOL    HW2 8599  14.330  10.385   1.184
35568SOL     OW 8600   1.703   2.852   9.777
35568SOL    HW1 8601   1.787   2.898   9.784
35568SOL    HW2 8602   1.649   2.891   9.846
35569SOL     OW 8603  13.360  13.820  11.878
35569SOL    HW1 8604  13.421  13.887  11.846
35569SOL    HW2 8605  13.412  13.768  11.939
35570SOL     OW 8606   8.610  12.391  12.759
35570SOL    HW1 8607   8.633  12.355  12.674
35570SOL    HW2 8608   8.516  12.408  12.753
35571SOL     OW 8609   3.663   0.929   3.281
35571SOL    HW1 8610   3.736   0.941   3.342
35571SOL    HW2 8611   3.585   0.941   3.335
35572SOL     OW 8612   2.523   5.460  11.501
35572SOL    HW1 8613   2.491   5.464  11.411
35572SOL    HW2 8614   2.494   5.542  11.542
35573SOL     OW 8615   7.931   9.329   4.399
35573SOL    HW1 8616   7.889   9.352   4.316
35573SOL    HW2 8617   7.895   9.243   4.420
35574SOL     OW 8618  11.816   7.937   8.712
35574SOL    HW1 8619  11.796   7.991   8.636
35574SOL    HW2 8620  11.906   7.908   8.699
35575SOL     OW 8621   6.850   3.298   0.145
35575SOL    HW1 8622   6.940   3.322   0.121
35575SOL    HW2 8623   6.807   3.281   0.061
35576SOL     OW 8624  11.416  13.534   7.941
35576SOL    HW1 8625  11.499  13.568   7.908
35576SOL    HW2 8626  11.437  13.502   8.029
35577SOL     OW 8627   6.055   0.523   1.805
35577SOL    HW1 8628   6.035   0.578   1.881
35577SOL    HW2 8629   6.019   0.571   1.731
35578SOL     OW 8630   4.075   5.341  12.640
35578SOL    HW1 8631   4.125   5.409  12.685
35578SOL    HW2 8632   3.993   5.384  12.614
35579SOL     OW 8633   6.031   3.319  11.531
35579SOL    HW1 8634   6.088   3.389  11.563
35579SOL    HW2 8635   5.946   3.337  11.572
35580SOL     OW 8636  13.784  12.815  12.659
35580SOL    HW1 8637  13.707  12.830  12.603
35580SOL    HW2 8638  13.841  12.759  12.606
35581SOL     OW 8639   2.378   1.177  12.176
35581SOL    HW1 8640   2.447   1.200  12.239
35581SOL    HW2 8641   2.298   1.173  12.229
35582SOL     OW 8642   3.357   2.835   5.831
35582SOL    HW1 8643   3.348   2.798   5.743
35582SOL    HW2 8644   3.275   2.814   5.875
35583SOL     OW 8645   1.645  14.667   2.645
35583SOL    HW1 8646   1.739  14.659   2.663
35583SOL    HW2 8647   1.628  14.761   2.650
35584SOL     OW 8648  11.762   7.611   5.129
35584SOL    HW1 8649  11.854   7.588   5.117
35584SOL    HW2 8650  11.725   7.615   5.041
35585SOL     OW 8651   2.295   9.746   9.104
35585SOL    HW1 8652   2.264   9.767   9.016
35585SOL    HW2 8653   2.327   9.656   9.098
35586SOL     OW 8654   6.547   1.980  10.267
35586SOL    HW1 8655   6.524   2.017  10.353
35586SOL    HW2 8656   6.533   2.051  10.205
35587SOL     OW 8657   4.763   1.335   0.599
35587SOL    HW1 8658   4.719   1.298   0.675
35587SOL    HW2 8659   4.693   1.354   0.537
35588SOL     OW 8660   8.803   7.754   3.746
35588SOL    HW1 8661   8.765   7.827   3.697
35588SOL    HW2 8662   8.741   7.682   3.732
35589SOL     OW 8663   1.697   7.689  11.808
35589SOL    HW1 8664   1.732   7.757  11.751
35589SOL    HW2 8665   1.708   7.608  11.759
35590SOL     OW 8666   4.520   6.523   2.016
35590SOL    HW1 8667   4.553   6.584   2.082
35590SOL    HW2 8668   4.598   6.491   1.971
35591SOL     OW 8669   6.087   1.105   3.666
35591SOL    HW1 8670   6.012   1.048   3.682
35591SOL    HW2 8671   6.132   1.065   3.591
35592SOL     OW 8672  10.455   0.802   0.827
35592SOL    HW1 8673  10.492   0.716   0.846
35592SOL    HW2 8674  10.375   0.784   0.778
35593SOL     OW 8675  10.839   3.156  12.468
35593SOL    HW1 8676  10.873   3.137  12.555
35593SOL    HW2 8677  10.846   3.073  12.421
35594SOL     OW 8678   4.280   1.489   1.665
35594SOL    HW1 8679   4.277   1.574   1.710
35594SOL    HW2 8680   4.222   1.433   1.717
35595SOL     OW 8681   7.677   0.940   7.287
35595SOL    HW1 8682   7.745   0.960   7.222
35595SOL    HW2 8683   7.704   0.856   7.325
35596SOL     OW 8684   1.213  11.826  10.255
35596SOL    HW1 8685   1.151  11.765  10.216
35596SOL    HW2 8686   1.218  11.800  10.347
35597SOL     OW 8687   5.327  11.144  13.348
35597SOL    HW1 8688   5.380  11.092  13.409
35597SOL    HW2 8689   5.363  11.123  13.262
35598SOL     OW 8690   7.880  13.383  13.117
35598SOL    HW1 8691   7.975  13.390  13.127
35598SOL    HW2 8692   7.866  13.295  13.083
35599SOL     OW 8693   2.791  10.658  13.457
35599SOL    HW1 8694   2.877  10.700  13.466
35599SOL    HW2 8695   2.810  10.575  13.412
35600SOL     OW 8696   4.102   3.936   0.865
35600SOL    HW1 8697   4.063   3.910   0.781
35600SOL    HW2 8698   4.193   3.959   0.843
35601SOL     OW 8699   1.634   1.877   5.244
35601SOL    HW1 8700   1.672   1.794   5.273
35601SOL    HW2 8701   1.678   1.944   5.296
35602SOL     OW 8702   2.413   4.887  14.655
35602SOL    HW1 8703   2.336   4.847  14.695
35602SOL    HW2 8704   2.381   4.923  14.572
35603SOL     OW 8705   7.823   0.721   9.086
35603SOL    HW1 8706   7.846   0.658   9.155
35603SOL    HW2 8707   7.814   0.804   9.132
35604SOL     OW 8708   3.247   1.362   2.902
35604SOL    HW1 8709   3.247   1.301   2.976
35604SOL    HW2 8710   3.216   1.310   2.828
35605SOL     OW 8711   4.035   1.444  12.998
35605SOL    HW1 8712   4.050   1.538  13.007
35605SOL    HW2 8713   3.940   1.435  12.994
35606SOL     OW 8714   2.719  13.659   8.078
35606SOL    HW1 8715   2.760  13.734   8.120
35606SOL    HW2 8716   2.759  13.654   7.991
35607SOL     OW 8717   4.194   0.008  11.758
35607SOL    HW1 8718   4.145  14.815  11.792
35607SOL    HW2 8719   4.238   0.045  11.834
35608SOL     OW 8720   5.509  11.620   1.751
35608SOL    HW1 8721   5.562  11.693   1.784
35608SOL    HW2 8722   5.419  11.653   1.755
35609SOL     OW 8723  12.808   8.746  12.436
35609SOL    HW1 8724  12.815   8.813  12.368
35609SOL    HW2 8725  12.846   8.668  12.397
35610SOL     OW 8726   2.407   0.437   8.936
35610SOL    HW1 8727   2.392   0.364   8.876
35610SOL    HW2 8728   2.501   0.457   8.927
35611SOL     OW 8729  12.008  14.461   6.489
35611SOL    HW1 8730  12.101  14.471   6.470
35611SOL    HW2 8731  11.991  14.368   6.477
35612SOL     OW 8732   4.422  12.529   9.937
35612SOL    HW1 8733   4.389  12.460   9.879
35612SOL    HW2 8734   4.490  12.573   9.886
35613SOL     OW 8735   9.396   3.983   7.923
35613SOL    HW1 8736   9.328   3.927   7.885
35613SOL    HW2 8737   9.383   4.068   7.880
35614SOL     OW 8738   9.482   9.901  10.572
35614SOL    HW1 8739   9.510   9.987  10.544
35614SOL    HW2 8740   9.405   9.917  10.627
35615SOL     OW 8741   5.294  11.331  10.198
35615SOL    HW1 8742   5.245  11.268  10.251
35615SOL    HW2 8743   5.227  11.378  10.149
35616SOL     OW 8744   1.451   7.079  10.278
35616SOL    HW1 8745   1.367   7.102  10.319
35616SOL    HW2 8746   1.458   6.984  10.289
35617SOL     OW 8747  11.471   7.777  13.127
35617SOL    HW1 8748  11.558   7.814  13.112
35617SOL    HW2 8749  11.477   7.734  13.213
35618SOL     OW 8750   7.595   3.887   5.359
35618SOL    HW1 8751   7.653   3.854   5.428
35618SOL    HW2 8752   7.650   3.888   5.281
35619SOL     OW 8753   2.148   6.631   4.828
35619SOL    HW1 8754   2.223   6.606   4.882
35619SOL    HW2 8755   2.084   6.561   4.842
35620SOL     OW 8756   4.446  13.324   4.013
35620SOL    HW1 8757   4.514  13.340   3.948
35620SOL    HW2 8758   4.366  13.358   3.973
35621SOL     OW 8759   9.864  11.253   4.204
35621SOL    HW1 8760   9.823  11.228   4.122
35621SOL    HW2 8761   9.791  11.266   4.264
35622SOL     OW 8762   3.105  10.401   2.205
35622SOL    HW1 8763   3.158  10.339   2.256
35622SOL    HW2 8764   3.076  10.350   2.129
35623SOL     OW 8765   9.343  10.056   1.088
35623SOL    HW1 8766   9.412  10.061   1.023
35623SOL    HW2 8767   9.367  10.120   1.154
35624SOL     OW 8768   4.299   7.517   6.776
35624SOL    HW1 8769   4.381   7.497   6.730
35624SOL    HW2 8770   4.313   7.605   6.812
35625SOL     OW 8771   8.101  13.224  10.619
35625SOL    HW1 8772   8.181  13.173  10.606
35625SOL    HW2 8773   8.109  13.296  10.557
35626SOL     OW 8774   9.241   1.334  14.384
35626SOL    HW1 8775   9.253   1.418  14.341
35626SOL    HW2 8776   9.168   1.347  14.444
35627SOL     OW 8777   2.706   1.128   7.568
35627SOL    HW1 8778   2.771   1.188   7.604
35627SOL    HW2 8779   2.729   1.042   7.604
35628SOL     OW 8780  14.559  13.271  13.783
35628SOL    HW1 8781  14.637  13.217  13.799
35628SOL    HW2 8782  14.549  13.271  13.688
35629SOL     OW 8783   1.680   7.531  11.124
35629SOL    HW1 8784   1.599   7.550  11.171
35629SOL    HW2 8785   1.654   7.472  11.054
35630SOL     OW 8786  10.420   8.877   1.379
35630SOL    HW1 8787  10.384   8.792   1.402
35630SOL    HW2 8788  10.345   8.926   1.345
35631SOL     OW 8789   4.845   4.621   0.246
35631SOL    HW1 8790   4.819   4.707   0.212
35631SOL    HW2 8791   4.777   4.598   0.309
35632SOL     OW 8792   9.003  10.064   8.399
35632SOL    HW1 8793   8.975  10.134   8.340
35632SOL    HW2 8794   9.097  10.056   8.384
35633SOL     OW 8795  13.045  13.639  14.314
35633SOL    HW1 8796  13.040  13.667  14.406
35633SOL    HW2 8797  13.005  13.552  14.313
35634SOL     OW 8798   6.007  14.063  10.333
35634SOL    HW1 8799   6.041  14.077  10.422
35634SOL    HW2 8800   5.913  14.053  10.345
35635SOL     OW 8801   0.844  13.446   6.078
35635SOL    HW1 8802   0.793  13.369   6.053
35635SOL    HW2 8803   0.780  13.506   6.116
35636SOL     OW 8804  10.654   7.853   7.872
35636SOL    HW1 8805  10.681   7.827   7.784
35636SOL    HW2 8806  10.661   7.948   7.873
35637SOL     OW 8807  13.776  13.567   1.702
35637SOL    HW1 8808  13.851  13.625   1.714
35637SOL    HW2 8809  13.812  13.490   1.658
35638SOL     OW 8810   6.530   4.723   7.603
35638SOL    HW1 8811   6.552   4.633   7.579
35638SOL    HW2 8812   6.601   4.750   7.662
35639SOL     OW 8813   9.046   1.077   8.971
35639SOL    HW1 8814   9.006   1.049   8.889
35639SOL    HW2 8815   8.973   1.106   9.026
35640SOL     OW 8816   7.094   6.854   8.023
35640SOL    HW1 8817   7.101   6.783   8.087
35640SOL    HW2 8818   7.055   6.926   8.072
35641SOL     OW 8819   8.408   1.980   5.421
35641SOL    HW1 8820   8.445   2.030   5.348
35641SOL    HW2 8821   8.318   2.013   5.430
35642SOL     OW 8822   3.122   1.095   8.192
35642SOL    HW1 8823   3.198   1.100   8.134
35642SOL    HW2 8824   3.143   1.154   8.264
35643SOL     OW 8825   5.679   6.582  14.317
35643SOL    HW1 8826   5.692   6.574  14.223
35643SOL    HW2 8827   5.746   6.526  14.356
35644SOL     OW 8828   6.015  14.051  10.046
35644SOL    HW1 8829   5.932  14.002  10.037
35644SOL    HW2 8830   6.008  14.094  10.131
35645SOL     OW 8831  10.080   9.009  10.419
35645SOL    HW1 8832  10.009   9.073  10.425
35645SOL    HW2 8833  10.053   8.938  10.478
35646SOL     OW 8834   5.359   4.800   1.696
35646SOL    HW1 8835   5.270   4.791   1.662
35646SOL    HW2 8836   5.413   4.820   1.620
35647SOL     OW 8837  10.623   6.937  10.410
35647SOL    HW1 8838  10.605   6.992  10.487
35647SOL    HW2 8839  10.579   6.982  10.338
35648SOL     OW 8840   0.335  11.212   7.126
35648SOL    HW1 8841   0.246  11.229   7.095
35648SOL    HW2 8842   0.384  11.187   7.047
35649SOL     OW 8843  13.621   6.929   2.360
35649SOL    HW1 8844  13.598   7.012   2.319
35649SOL    HW2 8845  13.538   6.883   2.368
35650SOL     OW 8846   5.073  10.785   4.260
35650SOL    HW1 8847   5.098  10.785   4.167
35650SOL    HW2 8848   5.136  10.844   4.301
35651SOL     OW 8849  13.842   2.280   1.062
35651SOL    HW1 8850  13.914   2.217   1.055
35651SOL    HW2 8851  13.768   2.229   1.097
35652SOL     OW 8852  13.227  12.412   5.305
35652SOL    HW1 8853  13.220  12.449   5.393
35652SOL    HW2 8854  13.153  12.449   5.257
35653SOL     OW 8855   6.597   1.831  12.805
35653SOL    HW1 8856   6.589   1.772  12.731
35653SOL    HW2 8857   6.576   1.917  12.770
35654SOL     OW 8858   4.090  12.612   2.773
35654SOL    HW1 8859   4.082  12.700   2.737
35654SOL    HW2 8860   3.999  12.585   2.790
35655SOL     OW 8861   5.368   3.224  14.190
35655SOL    HW1 8862   5.377   3.289  14.260
35655SOL    HW2 8863   5.401   3.143  14.229
35656SOL     OW 8864   9.614   0.738   0.164
35656SOL    HW1 8865   9.631   0.647   0.187
35656SOL    HW2 8866   9.547   0.767   0.226
35657SOL     OW 8867   1.819   3.809   9.737
35657SOL    HW1 8868   1.824   3.756   9.657
35657SOL    HW2 8869   1.827   3.899   9.707
35658SOL     OW 8870   0.300   7.221   7.099
35658SOL    HW1 8871   0.333   7.205   7.010
35658SOL    HW2 8872   0.362   7.285   7.136
35659SOL     OW 8873   8.327   9.795   2.076
35659SOL    HW1 8874   8.235   9.767   2.082
35659SOL    HW2 8875   8.344   9.836   2.161
35660SOL     OW 8876  10.544   1.620   7.709
35660SOL    HW1 8877  10.583   1.696   7.666
35660SOL    HW2 8878  10.512   1.653   7.793
35661SOL     OW 8879   0.010   8.186   9.096
35661SOL    HW1 8880  14.799   8.199   9.079
35661SOL    HW2 8881   0.014   8.142   9.181
35662SOL     OW 8882   3.000   0.728   0.316
35662SOL    HW1 8883   2.921   0.675   0.305
35662SOL    HW2 8884   2.983   0.781   0.394
35663SOL     OW 8885   2.262  14.377   5.446
35663SOL    HW1 8886   2.196  14.442   5.470
35663SOL    HW2 8887   2.335  14.394   5.506
35664SOL     OW 8888  11.237   3.896   5.598
35664SOL    HW1 8889  11.287   3.818   5.621
35664SOL    HW2 8890  11.272   3.965   5.654
35665SOL     OW 8891   2.092   0.512  13.955
35665SOL    HW1 8892   2.015   0.474  13.997
35665SOL    HW2 8893   2.088   0.605  13.977
35666SOL     OW 8894  11.497   4.257  13.571
35666SOL    HW1 8895  11.572   4.210  13.535
35666SOL    HW2 8896  11.423   4.198  13.558
35667SOL     OW 8897  10.835   0.034  10.100
35667SOL    HW1 8898  10.921   0.061  10.068
35667SOL    HW2 8899  10.840   0.046  10.195
35668SOL     OW 8900   2.882  11.696   4.127
35668SOL    HW1 8901   2.824  11.754   4.077
35668SOL    HW2 8902   2.916  11.750   4.198
35669SOL     OW 8903  12.413   6.161   1.681
35669SOL    HW1 8904  12.367   6.156   1.597
35669SOL    HW2 8905  12.380   6.240   1.723
35670SOL     OW 8906   3.454  10.181  14.095
35670SOL    HW1 8907   3.515  10.252  14.073
35670SOL    HW2 8908   3.389  10.183  14.025
35671SOL     OW 8909  12.819  14.698   5.852
35671SOL    HW1 8910  12.744  14.666   5.803
35671SOL    HW2 8911  12.830  14.789   5.823
35672SOL     OW 8912  14.522   6.060   3.487
35672SOL    HW1 8913  14.475   6.016   3.416
35672SOL    HW2 8914  14.576   5.991   3.526
35673SOL     OW 8915   0.120   9.695   8.724
35673SOL    HW1 8916   0.152   9.607   8.746
35673SOL    HW2 8917   0.155   9.751   8.792
35674SOL     OW 8918   7.740   0.399   7.035
35674SOL    HW1 8919   7.802   0.450   7.086
35674SOL    HW2 8920   7.764   0.308   7.053
35675SOL     OW 8921   3.649  13.865   1.547
35675SOL    HW1 8922   3.692  13.887   1.629
35675SOL    HW2 8923   3.566  13.825   1.573
35676SOL     OW 8924  11.960   4.013  13.295
35676SOL    HW1 8925  12.020   4.002  13.369
35676SOL    HW2 8926  12.010   4.062  13.231
35677SOL     OW 8927   0.843   5.281   2.771
35677SOL    HW1 8928   0.836   5.199   2.721
35677SOL    HW2 8929   0.795   5.263   2.852
35678SOL     OW 8930   9.471   6.122   1.890
35678SOL    HW1 8931   9.407   6.052   1.877
35678SOL    HW2 8932   9.418   6.199   1.911
35679SOL     OW 8933   1.507   3.537   7.498
35679SOL    HW1 8934   1.586   3.581   7.531
35679SOL    HW2 8935   1.532   3.505   7.411
35680SOL     OW 8936   1.665   1.427  14.428
35680SOL    HW1 8937   1.742   1.460  14.474
35680SOL    HW2 8938   1.620   1.505  14.397
35681SOL     OW 8939   4.702   7.979   4.831
35681SOL    HW1 8940   4.659   7.906   4.876
35681SOL    HW2 8941   4.717   7.947   4.742
35682SOL     OW 8942  14.285   4.349  14.645
35682SOL    HW1 8943  14.204   4.307  14.618
35682SOL    HW2 8944  14.328   4.373  14.563
35683SOL     OW 8945  13.027   7.347  11.544
35683SOL    HW1 8946  13.003   7.267  11.590
35683SOL    HW2 8947  12.978   7.417  11.588
35684SOL     OW 8948  13.761   8.651   4.264
35684SOL    HW1 8949  13.830   8.600   4.306
35684SOL    HW2 8950  13.798   8.678   4.180
35685SOL     OW 8951   8.829   0.022  13.725
35685SOL    HW1 8952   8.859  14.837  13.663
35685SOL    HW2 8953   8.877   0.101  13.700
35686SOL     OW 8954   5.741   3.569   1.276
35686SOL    HW1 8955   5.737   3.542   1.368
35686SOL    HW2 8956   5.712   3.491   1.228
35687SOL     OW 8957   0.453   3.535   0.911
35687SOL    HW1 8958   0.452   3.513   0.818
35687SOL    HW2 8959   0.542   3.515   0.940
35688SOL     OW 8960  10.448  11.833   1.919
35688SOL    HW1 8961  10.435  11.882   2.000
35688SOL    HW2 8962  10.495  11.755   1.946
35689SOL     OW 8963   1.428   8.583   3.682
35689SOL    HW1 8964   1.425   8.669   3.640
35689SOL    HW2 8965   1.519   8.555   3.674
35690SOL     OW 8966  12.657   7.318  11.175
35690SOL    HW1 8967  12.633   7.386  11.237
35690SOL    HW2 8968  12.673   7.365  11.093
35691SOL     OW 8969  12.526   6.622   6.720
35691SOL    HW1 8970  12.509   6.652   6.810
35691SOL    HW2 8971  12.587   6.685   6.684
35692SOL     OW 8972   7.048   5.145   2.126
35692SOL    HW1 8973   6.990   5.217   2.103
35692SOL    HW2 8974   7.129   5.163   2.077
35693SOL     OW 8975   4.226   7.382   4.428
35693SOL    HW1 8976   4.175   7.323   4.482
35693SOL    HW2 8977   4.301   7.330   4.399
35694SOL     OW 8978  11.641   2.836  11.059
35694SOL    HW1 8979  11.561   2.872  11.097
35694SOL    HW2 8980  11.663   2.896  10.988
35695SOL     OW 8981  11.256   8.232  14.335
35695SOL    HW1 8982  11.273   8.325  14.321
35695SOL    HW2 8983  11.343   8.193  14.340
35696SOL     OW 8984   6.160   1.373   6.754
35696SOL    HW1 8985   6.109   1.293   6.740
35696SOL    HW2 8986   6.233   1.345   6.809
35697SOL     OW 8987   0.056   0.866   7.418
35697SOL    HW1 8988   0.142   0.908   7.425
35697SOL    HW2 8989   0.043   0.822   7.502
35698SOL     OW 8990   8.981   0.661   8.414
35698SOL    HW1 8991   9.019   0.573   8.407
35698SOL    HW2 8992   9.037   0.706   8.477
35699SOL     OW 8993   6.197  14.210  14.875
35699SOL    HW1 8994   6.153  14.150   0.054
35699SOL    HW2 8995   6.275  14.162  14.848
35700SOL     OW 8996  11.837   4.628  12.174
35700SOL    HW1 8997  11.884   4.699  12.131
35700SOL    HW2 8998  11.744   4.648  12.160
35701SOL     OW 8999   1.845  14.081   1.828
35701SOL    HW1 9000   1.877  14.142   1.761
35701SOL    HW2 9001   1.780  14.027   1.783
35702SOL     OW 9002   1.333   9.166   4.286
35702SOL    HW1 9003   1.297   9.176   4.198
35702SOL    HW2 9004   1.415   9.118   4.272
35703SOL     OW 9005   5.628   8.180  11.187
35703SOL    HW1 9006   5.562   8.136  11.133
35703SOL    HW2 9007   5.609   8.151  11.276
35704SOL     OW 9008   3.003   2.569   2.536
35704SOL    HW1 9009   2.968   2.480   2.545
35704SOL    HW2 9010   2.948   2.609   2.468
35705SOL     OW 9011   6.757   5.467   8.633
35705SOL    HW1 9012   6.665   5.443   8.641
35705SOL    HW2 9013   6.761   5.557   8.666
35706SOL     OW 9014   4.703   7.554  11.289
35706SOL    HW1 9015   4.758   7.625  11.255
35706SOL    HW2 9016   4.750   7.474  11.265
35707SOL     OW 9017   4.477   6.821  13.550
35707SOL    HW1 9018   4.396   6.872  13.552
35707SOL    HW2 9019   4.470   6.762  13.625
35708SOL     OW 9020   9.443   7.675   7.529
35708SOL    HW1 9021   9.412   7.610   7.592
35708SOL    HW2 9022   9.461   7.753   7.581
35709SOL     OW 9023  12.846   0.859   3.632
35709SOL    HW1 9024  12.763   0.890   3.668
35709SOL    HW2 9025  12.894   0.940   3.610
35710SOL     OW 9026   9.771   7.702   0.036
35710SOL    HW1 9027   9.808   7.790   0.032
35710SOL    HW2 9028   9.847   7.644   0.038
35711SOL     OW 9029   9.557   7.153  13.847
35711SOL    HW1 9030   9.575   7.244  13.871
35711SOL    HW2 9031   9.586   7.145  13.756
35712SOL     OW 9032   2.735   8.163  13.468
35712SOL    HW1 9033   2.799   8.095  13.449
35712SOL    HW2 9034   2.748   8.184  13.560
35713SOL     OW 9035   5.586  10.202   3.626
35713SOL    HW1 9036   5.549  10.204   3.715
35713SOL    HW2 9037   5.522  10.249   3.573
35714SOL     OW 9038  12.744  12.338   9.233
35714SOL    HW1 9039  12.742  12.277   9.306
35714SOL    HW2 9040  12.743  12.425   9.274
35715SOL     OW 9041   7.006   7.919   0.225
35715SOL    HW1 9042   7.019   7.825   0.239
35715SOL    HW2 9043   7.045   7.961   0.302
35716SOL     OW 9044  13.769   2.297   9.064
35716SOL    HW1 9045  13.696   2.253   9.022
35716SOL    HW2 9046  13.752   2.390   9.052
35717SOL     OW 9047  13.504   0.325  14.128
35717SOL    HW1 9048  13.487   0.252  14.188
35717SOL    HW2 9049  13.535   0.283  14.048
35718SOL     OW 9050   3.137   2.084   6.052
35718SOL    HW1 9051   3.183   2.049   5.976
35718SOL    HW2 9052   3.100   2.006   6.096
35719SOL     OW 9053  12.359  13.075   7.512
35719SOL    HW1 9054  12.454  13.076   7.507
35719SOL    HW2 9055  12.332  13.159   7.475
35720SOL     OW 9056   9.317  12.860   6.676
35720SOL    HW1 9057   9.283  12.781   6.719
35720SOL    HW2 9058   9.242  12.899   6.633
35721SOL     OW 9059  13.473   9.104   4.611
35721SOL    HW1 9060  13.485   9.189   4.654
35721SOL    HW2 9061  13.562   9.073   4.595
35722SOL     OW 9062  14.858   7.615  12.916
35722SOL    HW1 9063  14.811   7.677  12.972
35722SOL    HW2 9064  14.865   7.535  12.968
35723SOL     OW 9065   6.181   4.486  14.223
35723SOL    HW1 9066   6.104   4.430  14.211
35723SOL    HW2 9067   6.230   4.445  14.295
35724SOL     OW 9068   4.012   5.222   0.391
35724SOL    HW1 9069   4.079   5.283   0.423
35724SOL    HW2 9070   3.958   5.275   0.332
35725SOL     OW 9071  10.692   0.792  12.562
35725SOL    HW1 9072  10.773   0.773  12.514
35725SOL    HW2 9073  10.715   0.779  12.654
35726SOL     OW 9074   1.504   7.109   7.786
35726SOL    HW1 9075   1.436   7.075   7.728
35726SOL    HW2 9076   1.542   7.182   7.738
35727SOL     OW 9077  13.366   6.110   4.629
35727SOL    HW1 9078  13.299   6.045   4.610
35727SOL    HW2 9079  13.320   6.180   4.676
35728SOL     OW 9080   7.799   0.644  13.466
35728SOL    HW1 9081   7.821   0.698  13.543
35728SOL    HW2 9082   7.781   0.708  13.397
35729SOL     OW 9083   7.408   7.461  12.901
35729SOL    HW1 9084   7.331   7.465  12.957
35729SOL    HW2 9085   7.455   7.543  12.918
35730SOL     OW 9086   3.493   2.467  12.438
35730SOL    HW1 9087   3.408   2.424  12.450
35730SOL    HW2 9088   3.474   2.561  12.446
35731SOL     OW 9089  10.617   9.141  12.590
35731SOL    HW1 9090  10.605   9.152  12.495
35731SOL    HW2 9091  10.599   9.048  12.606
35732SOL     OW 9092  11.253   5.684   8.356
35732SOL    HW1 9093  11.334   5.636   8.375
35732SOL    HW2 9094  11.188   5.645   8.414
35733SOL     OW 9095   8.346   5.499   2.803
35733SOL    HW1 9096   8.346   5.538   2.890
35733SOL    HW2 9097   8.438   5.491   2.780
35734SOL     OW 9098   8.024  14.228   5.197
35734SOL    HW1 9099   7.985  14.159   5.250
35734SOL    HW2 9100   8.064  14.288   5.260
35735SOL     OW 9101   7.614  12.557  12.790
35735SOL    HW1 9102   7.534  12.552  12.843
35735SOL    HW2 9103   7.633  12.466  12.766
35736SOL     OW 9104   5.087   2.019   2.307
35736SOL    HW1 9105   5.093   2.082   2.236
35736SOL    HW2 9106   5.018   2.053   2.364
35737SOL     OW 9107   1.695   9.771  12.625
35737SOL    HW1 9108   1.664   9.743  12.538
35737SOL    HW2 9109   1.635   9.842  12.650
35738SOL     OW 9110  14.277   7.592   4.756
35738SOL    HW1 9111  14.185   7.606   4.781
35738SOL    HW2 9112  14.277   7.599   4.661
35739SOL     OW 9113   4.291   3.945   7.311
35739SOL    HW1 9114   4.209   3.909   7.276
35739SOL    HW2 9115   4.277   4.039   7.313
35740SOL     OW 9116   2.634   9.395   2.018
35740SOL    HW1 9117   2.711   9.423   2.068
35740SOL    HW2 9118   2.636   9.449   1.939
35741SOL     OW 9119  13.818  12.147  13.356
35741SOL    HW1 9120  13.854  12.217  13.410
35741SOL    HW2 9121  13.764  12.191  13.291
35742SOL     OW 9122   0.339   0.664   1.267
35742SOL    HW1 9123   0.377   0.742   1.307
35742SOL    HW2 9124   0.387   0.653   1.185
35743SOL     OW 9125  11.334   5.899   3.064
35743SOL    HW1 9126  11.264   5.885   3.000
35743SOL    HW2 9127  11.327   5.992   3.087
35744SOL     OW 9128   1.935   6.819  11.131
35744SOL    HW1 9129   1.944   6.850  11.221
35744SOL    HW2 9130   1.902   6.894  11.083
35745SOL     OW 9131   4.334   3.126  14.361
35745SOL    HW1 9132   4.385   3.202  14.332
35745SOL    HW2 9133   4.245   3.160  14.371
35746SOL     OW 9134  12.903   0.724   1.809
35746SOL    HW1 9135  12.908   0.814   1.776
35746SOL    HW2 9136  12.961   0.722   1.884
35747SOL     OW 9137   2.615   4.725   9.111
35747SOL    HW1 9138   2.536   4.777   9.102
35747SOL    HW2 9139   2.611   4.689   9.199
35748SOL     OW 9140  14.489   2.884   0.356
35748SOL    HW1 9141  14.491   2.956   0.419
35748SOL    HW2 9142  14.543   2.915   0.283
35749SOL     OW 9143   9.638   3.095   3.358
35749SOL    HW1 9144   9.617   3.036   3.285
35749SOL    HW2 9145   9.556   3.102   3.407
35750SOL     OW 9146   3.814   7.605   0.878
35750SOL    HW1 9147   3.728   7.643   0.858
35750SOL    HW2 9148   3.804   7.568   0.965
35751SOL     OW 9149   2.137  10.565   0.833
35751SOL    HW1 9150   2.053  10.603   0.857
35751SOL    HW2 9151   2.151  10.593   0.742
35752SOL     OW 9152   0.890   7.788   8.438
35752SOL    HW1 9153   0.860   7.834   8.516
35752SOL    HW2 9154   0.900   7.697   8.466
35753SOL     OW 9155  13.924   4.986  13.013
35753SOL    HW1 9156  13.974   4.977  12.933
35753SOL    HW2 9157  13.833   4.984  12.985
35754SOL     OW 9158   1.396  11.381   5.664
35754SOL    HW1 9159   1.483  11.420   5.655
35754SOL    HW2 9160   1.391  11.317   5.593
35755SOL     OW 9161  12.596  14.492   1.502
35755SOL    HW1 9162  12.630  14.534   1.581
35755SOL    HW2 9163  12.673  14.454   1.461
35756SOL     OW 9164   6.047   7.133   3.511
35756SOL    HW1 9165   5.966   7.115   3.560
35756SOL    HW2 9166   6.111   7.157   3.578
35757SOL     OW 9167   0.168   2.287   2.527
35757SOL    HW1 9168   0.089   2.320   2.569
35757SOL    HW2 9169   0.215   2.366   2.498
35758SOL     OW 9170  13.052  14.078  12.267
35758SOL    HW1 9171  12.994  14.007  12.295
35758SOL    HW2 9172  13.051  14.072  12.171
35759SOL     OW 9173   5.564   2.405   6.852
35759SOL    HW1 9174   5.497   2.391   6.784
35759SOL    HW2 9175   5.558   2.327   6.907
35760SOL     OW 9176  12.068  10.437   0.328
35760SOL    HW1 9177  12.151  10.401   0.358
35760SOL    HW2 9178  12.086  10.530   0.313
35761SOL     OW 9179  14.230   9.957  13.068
35761SOL    HW1 9180  14.325   9.962  13.077
35761SOL    HW2 9181  14.196   9.987  13.153
35762SOL     OW 9182  12.143   0.544   2.215
35762SOL    HW1 9183  12.163   0.514   2.304
35762SOL    HW2 9184  12.225   0.532   2.167
35763SOL     OW 9185  14.371   2.415   3.608
35763SOL    HW1 9186  14.339   2.471   3.537
35763SOL    HW2 9187  14.407   2.477   3.672
35764SOL     OW 9188  14.285   9.994   6.168
35764SOL    HW1 9189  14.270   9.933   6.096
35764SOL    HW2 9190  14.299  10.079   6.126
35765SOL     OW 9191   1.126  10.541   5.683
35765SOL    HW1 9192   1.146  10.450   5.703
35765SOL    HW2 9193   1.034  10.540   5.656
35766SOL     OW 9194   3.947   7.643   6.405
35766SOL    HW1 9195   3.996   7.563   6.387
35766SOL    HW2 9196   3.972   7.666   6.494
35767SOL     OW 9197  11.920   8.444   0.412
35767SOL    HW1 9198  11.929   8.529   0.455
35767SOL    HW2 9199  12.002   8.399   0.432
35768SOL     OW 9200   2.443  13.733   2.918
35768SOL    HW1 9201   2.373  13.796   2.934
35768SOL    HW2 9202   2.420  13.657   2.973
35769SOL     OW 9203  13.662   3.843   9.465
35769SOL    HW1 9204  13.651   3.894   9.546
35769SOL    HW2 9205  13.636   3.903   9.395
35770SOL     OW 9206   9.731  11.596  10.245
35770SOL    HW1 9207   9.645  11.616  10.283
35770SOL    HW2 9208   9.773  11.681  10.235
35771SOL     OW 9209   6.392  14.145  13.583
35771SOL    HW1 9210   6.444  14.222  13.605
35771SOL    HW2 9211   6.457  14.081  13.553
35772SOL     OW 9212   9.529  11.318   2.314
35772SOL    HW1 9213   9.576  11.238   2.335
35772SOL    HW2 9214   9.438  11.291   2.301
35773SOL     OW 9215  12.345   1.946   8.527
35773SOL    HW1 9216  12.413   1.926   8.463
35773SOL    HW2 9217  12.373   2.028   8.567
35774SOL     OW 9218   2.575   6.308   8.310
35774SOL    HW1 9219   2.501   6.270   8.357
35774SOL    HW2 9220   2.610   6.374   8.369
35775SOL     OW 9221  10.239  14.694   6.364
35775SOL    HW1 9222  10.160  14.646   6.390
35775SOL    HW2 9223  10.311  14.637   6.390
35776SOL     OW 9224   8.951   5.228  13.739
35776SOL    HW1 9225   9.007   5.284  13.685
35776SOL    HW2 9226   8.875   5.210  13.685
35777SOL     OW 9227   4.853  10.422   0.377
35777SOL    HW1 9228   4.927  10.421   0.437
35777SOL    HW2 9229   4.867  10.500   0.322
35778SOL     OW 9230  13.507  11.404   2.398
35778SOL    HW1 9231  13.506  11.452   2.481
35778SOL    HW2 9232  13.590  11.429   2.357
35779SOL     OW 9233   7.711   9.824   1.236
35779SOL    HW1 9234   7.767   9.790   1.167
35779SOL    HW2 9235   7.645   9.876   1.190
35780SOL     OW 9236  13.313  10.285  12.999
35780SOL    HW1 9237  13.367  10.359  12.972
35780SOL    HW2 9238  13.291  10.302  13.090
35781SOL     OW 9239  14.222   5.191   9.484
35781SOL    HW1 9240  14.224   5.244   9.564
35781SOL    HW2 9241  14.292   5.127   9.497
35782SOL     OW 9242   9.512   7.901   0.320
35782SOL    HW1 9243   9.437   7.946   0.281
35782SOL    HW2 9244   9.476   7.820   0.357
35783SOL     OW 9245   3.154   8.331   1.381
35783SOL    HW1 9246   3.104   8.398   1.335
35783SOL    HW2 9247   3.171   8.263   1.315
35784SOL     OW 9248   7.359   2.169   3.097
35784SOL    HW1 9249   7.442   2.130   3.123
35784SOL    HW2 9250   7.381   2.229   3.026
35785SOL     OW 9251   8.363  14.273  14.001
35785SOL    HW1 9252   8.280  14.238  13.969
35785SOL    HW2 9253   8.377  14.229  14.085
35786SOL     OW 9254  12.197   7.532  11.407
35786SOL    HW1 9255  12.182   7.504  11.317
35786SOL    HW2 9256  12.113   7.520  11.450
35787SOL     OW 9257   5.041   8.240  12.382
35787SOL    HW1 9258   4.972   8.288  12.428
35787SOL    HW2 9259   5.105   8.307  12.357
35788SOL     OW 9260   5.515   3.308   5.739
35788SOL    HW1 9261   5.496   3.383   5.795
35788SOL    HW2 9262   5.484   3.232   5.789
35789SOL     OW 9263   0.976  14.309  10.116
35789SOL    HW1 9264   0.928  14.311  10.034
35789SOL    HW2 9265   0.909  14.312  10.184
35790SOL     OW 9266  10.404   1.742   4.038
35790SOL    HW1 9267  10.398   1.679   4.110
35790SOL    HW2 9268  10.324   1.729   3.988
35791SOL     OW 9269   8.749   3.026  10.239
35791SOL    HW1 9270   8.788   3.070  10.163
35791SOL    HW2 9271   8.710   2.947  10.203
35792SOL     OW 9272  13.837   5.371   7.189
35792SOL    HW1 9273  13.863   5.289   7.230
35792SOL    HW2 9274  13.836   5.352   7.095
35793SOL     OW 9275   5.553  12.657   5.023
35793SOL    HW1 9276   5.481  12.648   4.960
35793SOL    HW2 9277   5.556  12.574   5.069
35794SOL     OW 9278  10.507   4.137   3.445
35794SOL    HW1 9279  10.468   4.054   3.475
35794SOL    HW2 9280  10.506   4.193   3.523
35795SOL     OW 9281   6.267   3.694  10.937
35795SOL    HW1 9282   6.337   3.698  11.002
35795SOL    HW2 9283   6.187   3.705  10.988
35796SOL     OW 9284  14.609  14.660   0.389
35796SOL    HW1 9285  14.554  14.611   0.451
35796SOL    HW2 9286  14.699  14.638   0.415
35797SOL     OW 9287   6.399  13.793   4.266
35797SOL    HW1 9288   6.409  13.702   4.293
35797SOL    HW2 9289   6.422  13.843   4.344
35798SOL     OW 9290   0.868   1.798   4.790
35798SOL    HW1 9291   0.868   1.772   4.882
35798SOL    HW2 9292   0.879   1.716   4.742
35799SOL     OW 9293  14.103   0.575   9.013
35799SOL    HW1 9294  14.012   0.591   8.989
35799SOL    HW2 9295  14.140   0.530   8.937
35800SOL     OW 9296  11.856   0.544   4.566
35800SOL    HW1 9297  11.946   0.533   4.536
35800SOL    HW2 9298  11.857   0.513   4.657
35801SOL     OW 9299   8.087   2.351   8.101
35801SOL    HW1 9300   8.108   2.384   8.189
35801SOL    HW2 9301   8.028   2.278   8.117
35802SOL     OW 9302   2.517   7.885  14.433
35802SOL    HW1 9303   2.474   7.819  14.378
35802SOL    HW2 9304   2.610   7.874  14.414
35803SOL     OW 9305  14.725   3.465   0.659
35803SOL    HW1 9306  14.649   3.419   0.624
35803SOL    HW2 9307  14.771   3.497   0.582
35804SOL     OW 9308   2.065   6.831  11.921
35804SOL    HW1 9309   1.981   6.852  11.881
35804SOL    HW2 9310   2.128   6.837  11.849
35805SOL     OW 9311   3.836   7.468   7.468
35805SOL    HW1 9312   3.919   7.473   7.421
35805SOL    HW2 9313   3.852   7.406   7.539
35806SOL     OW 9314  13.113  11.279   4.471
35806SOL    HW1 9315  13.039  11.325   4.512
35806SOL    HW2 9316  13.180  11.277   4.539
35807SOL     OW 9317   2.530   1.441   7.519
35807SOL    HW1 9318   2.550   1.411   7.607
35807SOL    HW2 9319   2.476   1.519   7.531
35808SOL     OW 9320   2.931   7.997   7.823
35808SOL    HW1 9321   3.020   8.020   7.796
35808SOL    HW2 9322   2.942   7.955   7.908
35809SOL     OW 9323   1.298   0.750   7.393
35809SOL    HW1 9324   1.222   0.797   7.427
35809SOL    HW2 9325   1.357   0.742   7.468
35810SOL     OW 9326   0.726  12.323   2.704
35810SOL    HW1 9327   0.753  12.255   2.766
35810SOL    HW2 9328   0.690  12.275   2.629
35811SOL     OW 9329   3.621  11.852  12.946
35811SOL    HW1 9330   3.637  11.939  12.910
35811SOL    HW2 9331   3.697  11.835  13.002
35812SOL     OW 9332   4.546   2.296   3.524
35812SOL    HW1 9333   4.618   2.317   3.583
35812SOL    HW2 9334   4.563   2.206   3.495
35813SOL     OW 9335   8.407  10.736   0.714
35813SOL    HW1 9336   8.414  10.820   0.760
35813SOL    HW2 9337   8.423  10.757   0.622
35814SOL     OW 9338   4.280   7.532  14.583
35814SOL    HW1 9339   4.247   7.512  14.495
35814SOL    HW2 9340   4.291   7.627  14.584
35815SOL     OW 9341   7.018  11.315   2.195
35815SOL    HW1 9342   6.994  11.270   2.276
35815SOL    HW2 9343   6.970  11.398   2.198
35816SOL     OW 9344  10.532  13.150   1.205
35816SOL    HW1 9345  10.458  13.157   1.265
35816SOL    HW2 9346  10.493  13.128   1.121
35817SOL     OW 9347   9.209  11.403  13.230
35817SOL    HW1 9348   9.265  11.328  13.251
35817SOL    HW2 9349   9.249  11.476  13.277
35818SOL     OW 9350   6.185   9.738   7.293
35818SOL    HW1 9351   6.186   9.707   7.383
35818SOL    HW2 9352   6.229   9.670   7.243
35819SOL     OW 9353   5.436  12.228  13.559
35819SOL    HW1 9354   5.490  12.304  13.539
35819SOL    HW2 9355   5.471  12.193  13.641
35820SOL     OW 9356  12.378   6.688   8.851
35820SOL    HW1 9357  12.459   6.641   8.833
35820SOL    HW2 9358  12.390   6.725   8.938
35821SOL     OW 9359   0.159   7.552   2.849
35821SOL    HW1 9360   0.211   7.630   2.870
35821SOL    HW2 9361   0.204   7.511   2.775
35822SOL     OW 9362   6.299   9.734   9.096
35822SOL    HW1 9363   6.393   9.725   9.110
35822SOL    HW2 9364   6.289   9.822   9.059
35823SOL     OW 9365  13.947   1.825   0.915
35823SOL    HW1 9366  13.940   1.826   0.819
35823SOL    HW2 9367  13.892   1.752   0.943
35824SOL     OW 9368   9.435   3.050   2.429
35824SOL    HW1 9369   9.422   2.971   2.376
35824SOL    HW2 9370   9.519   3.085   2.401
35825SOL     OW 9371   4.394   4.361   1.748
35825SOL    HW1 9372   4.466   4.344   1.687
35825SOL    HW2 9373   4.398   4.455   1.763
35826SOL     OW 9374   2.026   9.042  14.428
35826SOL    HW1 9375   2.113   9.023  14.461
35826SOL    HW2 9376   1.968   8.983  14.476
35827SOL     OW 9377  11.119   5.787  12.521
35827SOL    HW1 9378  11.128   5.719  12.588
35827SOL    HW2 9379  11.049   5.844  12.554
35828SOL     OW 9380   2.954  10.911   0.795
35828SOL    HW1 9381   2.967  11.005   0.778
35828SOL    HW2 9382   3.011  10.893   0.870
35829SOL     OW 9383   6.022   2.740   5.202
35829SOL    HW1 9384   5.976   2.824   5.192
35829SOL    HW2 9385   5.973   2.694   5.270
35830SOL     OW 9386  13.669   8.502  10.073
35830SOL    HW1 9387  13.688   8.409  10.086
35830SOL    HW2 9388  13.727   8.528  10.001
35831SOL     OW 9389  10.821   3.432  14.804
35831SOL    HW1 9390  10.805   3.488  14.880
35831SOL    HW2 9391  10.824   3.343  14.841
35832SOL     OW 9392  10.132   4.067   8.617
35832SOL    HW1 9393  10.127   4.151   8.571
35832SOL    HW2 9394  10.047   4.027   8.603
35833SOL     OW 9395   6.774   7.038   9.555
35833SOL    HW1 9396   6.776   7.098   9.479
35833SOL    HW2 9397   6.719   7.084   9.619
35834SOL     OW 9398  14.216  12.374  12.994
35834SOL    HW1 9399  14.208  12.391  13.088
35834SOL    HW2 9400  14.127  12.356  12.965
35835SOL     OW 9401   5.300   9.857  12.747
35835SOL    HW1 9402   5.227   9.798  12.726
35835SOL    HW2 9403   5.333   9.885  12.662
35836SOL     OW 9404   7.944   5.354   2.051
35836SOL    HW1 9405   7.893   5.276   2.029
35836SOL    HW2 9406   7.882   5.427   2.040
35837SOL     OW 9407   5.450   9.132   4.255
35837SOL    HW1 9408   5.418   9.193   4.320
35837SOL    HW2 9409   5.489   9.187   4.187
35838SOL     OW 9410   0.771   1.813  14.485
35838SOL    HW1 9411   0.784   1.761  14.406
35838SOL    HW2 9412   0.697   1.870  14.466
35839SOL     OW 9413   8.540   3.675   2.574
35839SOL    HW1 9414   8.477   3.622   2.624
35839SOL    HW2 9415   8.518   3.657   2.482
35840SOL     OW 9416  13.347   8.610   7.540
35840SOL    HW1 9417  13.267   8.663   7.543
35840SOL    HW2 9418  13.408   8.662   7.487
35841SOL     OW 9419   7.575   7.708  12.118
35841SOL    HW1 9420   7.533   7.773  12.174
35841SOL    HW2 9421   7.538   7.722  12.031
35842SOL     OW 9422  14.690  13.225  13.231
35842SOL    HW1 9423  14.759  13.168  13.266
35842SOL    HW2 9424  14.717  13.313  13.257
35843SOL     OW 9425  12.835  14.215  11.035
35843SOL    HW1 9426  12.811  14.307  11.021
35843SOL    HW2 9427  12.929  14.213  11.020
35844SOL     OW 9428   4.491   2.447   0.183
35844SOL    HW1 9429   4.538   2.514   0.232
35844SOL    HW2 9430   4.557   2.382   0.160
35845SOL     OW 9431  13.218   9.194   5.171
35845SOL    HW1 9432  13.151   9.213   5.236
35845SOL    HW2 9433  13.225   9.099   5.170
35846SOL     OW 9434  11.511  12.597   2.387
35846SOL    HW1 9435  11.595  12.581   2.345
35846SOL    HW2 9436  11.512  12.543   2.465
35847SOL     OW 9437   8.838  13.842   0.587
35847SOL    HW1 9438   8.764  13.890   0.551
35847SOL    HW2 9439   8.911  13.863   0.528
35848SOL     OW 9440   7.554  14.598   1.388
35848SOL    HW1 9441   7.636  14.647   1.385
35848SOL    HW2 9442   7.527  14.593   1.296
35849SOL     OW 9443   9.302   4.483  14.494
35849SOL    HW1 9444   9.359   4.560  14.487
35849SOL    HW2 9445   9.324   4.429  14.418
35850SOL     OW 9446   2.094   0.318   8.314
35850SOL    HW1 9447   2.090   0.317   8.410
35850SOL    HW2 9448   2.106   0.227   8.289
35851SOL     OW 9449   3.842   5.723   6.284
35851SOL    HW1 9450   3.762   5.772   6.299
35851SOL    HW2 9451   3.878   5.708   6.371
35852SOL     OW 9452   8.434  11.896  14.333
35852SOL    HW1 9453   8.415  11.817  14.282
35852SOL    HW2 9454   8.456  11.864  14.420
35853SOL     OW 9455  10.603  11.381  13.572
35853SOL    HW1 9456  10.515  11.342  13.563
35853SOL    HW2 9457  10.609  11.444  13.500
35854SOL     OW 9458   1.667   7.800   3.998
35854SOL    HW1 9459   1.626   7.779   4.082
35854SOL    HW2 9460   1.597   7.787   3.934
35855SOL     OW 9461   0.798   5.013  12.953
35855SOL    HW1 9462   0.880   5.062  12.964
35855SOL    HW2 9463   0.825   4.921  12.957
35856SOL     OW 9464  12.227   4.612   1.882
35856SOL    HW1 9465  12.320   4.610   1.858
35856SOL    HW2 9466  12.181   4.589   1.801
35857SOL     OW 9467   8.196  10.024   0.238
35857SOL    HW1 9468   8.237  10.081   0.174
35857SOL    HW2 9469   8.121  10.074   0.271
35858SOL     OW 9470  14.115  10.113   3.600
35858SOL    HW1 9471  14.030  10.132   3.560
35858SOL    HW2 9472  14.094  10.067   3.681
35859SOL     OW 9473   4.084   5.093  14.462
35859SOL    HW1 9474   4.063   5.023  14.523
35859SOL    HW2 9475   4.035   5.072  14.382
35860SOL     OW 9476   3.533   6.172   5.574
35860SOL    HW1 9477   3.497   6.164   5.485
35860SOL    HW2 9478   3.485   6.106   5.625
35861SOL     OW 9479   5.929   8.311   7.671
35861SOL    HW1 9480   5.901   8.220   7.674
35861SOL    HW2 9481   5.986   8.321   7.747
35862SOL     OW 9482  12.342   4.586  13.744
35862SOL    HW1 9483  12.291   4.604  13.823
35862SOL    HW2 9484  12.377   4.671  13.718
35863SOL     OW 9485   3.836   9.135   6.984
35863SOL    HW1 9486   3.753   9.088   6.977
35863SOL    HW2 9487   3.862   9.126   7.075
35864SOL     OW 9488  11.420  11.492   0.228
35864SOL    HW1 9489  11.414  11.518   0.136
35864SOL    HW2 9490  11.331  11.467   0.251
35865SOL     OW 9491   9.900   3.601   5.438
35865SOL    HW1 9492   9.882   3.671   5.375
35865SOL    HW2 9493   9.994   3.584   5.429
35866SOL     OW 9494   3.969   1.647   1.990
35866SOL    HW1 9495   3.925   1.732   1.995
35866SOL    HW2 9496   3.899   1.586   1.965
35867SOL     OW 9497  13.836   6.639   7.721
35867SOL    HW1 9498  13.899   6.710   7.729
35867SOL    HW2 9499  13.760   6.679   7.679
35868SOL     OW 9500   8.333   8.291   2.293
35868SOL    HW1 9501   8.388   8.280   2.215
35868SOL    HW2 9502   8.269   8.221   2.286
35869SOL     OW 9503   3.254   8.952   2.914
35869SOL    HW1 9504   3.266   9.028   2.972
35869SOL    HW2 9505   3.296   8.978   2.832
35870SOL     OW 9506  12.496   6.664   4.876
35870SOL    HW1 9507  12.526   6.663   4.785
35870SOL    HW2 9508  12.497   6.573   4.903
35871SOL     OW 9509  10.741   6.400  11.145
35871SOL    HW1 9510  10.823   6.356  11.169
35871SOL    HW2 9511  10.739   6.478  11.200
35872SOL     OW 9512   0.529  13.061   6.861
35872SOL    HW1 9513   0.460  13.126   6.870
35872SOL    HW2 9514   0.587  13.097   6.794
35873SOL     OW 9515   2.051   7.732  14.791
35873SOL    HW1 9516   2.094   7.657  14.749
35873SOL    HW2 9517   1.959   7.722  14.770
35874SOL     OW 9518   8.145   7.061   5.283
35874SOL    HW1 9519   8.211   7.117   5.241
35874SOL    HW2 9520   8.194   7.015   5.352
35875SOL     OW 9521   9.655   0.188  12.959
35875SOL    HW1 9522   9.568   0.177  12.920
35875SOL    HW2 9523   9.640   0.180  13.053
35876SOL     OW 9524   9.743  12.362  13.151
35876SOL    HW1 9525   9.734  12.317  13.067
35876SOL    HW2 9526   9.835  12.351  13.175
35877SOL     OW 9527  13.560   8.092   0.519
35877SOL    HW1 9528  13.610   8.163   0.479
35877SOL    HW2 9529  13.627   8.027   0.543
35878SOL     OW 9530  10.595   7.262   2.401
35878SOL    HW1 9531  10.546   7.291   2.478
35878SOL    HW2 9532  10.687   7.271   2.426
35879SOL     OW 9533  10.996   8.741  12.508
35879SOL    HW1 9534  10.989   8.813  12.445
35879SOL    HW2 9535  10.945   8.770  12.583
35880SOL     OW 9536  12.457  10.234   2.649
35880SOL    HW1 9537  12.372  10.219   2.607
35880SOL    HW2 9538  12.504  10.290   2.588
35881SOL     OW 9539   8.435   5.952   8.778
35881SOL    HW1 9540   8.366   5.982   8.836
35881SOL    HW2 9541   8.479   5.882   8.827
35882SOL     OW 9542   3.442  13.999   1.847
35882SOL    HW1 9543   3.378  13.954   1.902
35882SOL    HW2 9544   3.391  14.034   1.774
35883SOL     OW 9545   9.571   1.004   8.021
35883SOL    HW1 9546   9.596   1.079   7.968
35883SOL    HW2 9547   9.506   1.039   8.083
35884SOL     OW 9548  11.742   0.209   2.416
35884SOL    HW1 9549  11.648   0.221   2.429
35884SOL    HW2 9550  11.771   0.286   2.367
35885SOL     OW 9551   8.616   1.187  12.665
35885SOL    HW1 9552   8.538   1.201  12.611
35885SOL    HW2 9553   8.653   1.274  12.675
35886SOL     OW 9554   2.608   1.344   3.936
35886SOL    HW1 9555   2.683   1.333   3.995
35886SOL    HW2 9556   2.642   1.323   3.849
35887SOL     OW 9557   3.386  13.792   1.615
35887SOL    HW1 9558   3.315  13.728   1.616
35887SOL    HW2 9559   3.350  13.868   1.661
35888SOL     OW 9560   2.763   7.262   6.469
35888SOL    HW1 9561   2.722   7.291   6.550
35888SOL    HW2 9562   2.717   7.181   6.446
35889SOL     OW 9563  13.252   3.172  11.073
35889SOL    HW1 9564  13.213   3.255  11.046
35889SOL    HW2 9565  13.345   3.191  11.084
35890SOL     OW 9566  12.013   1.417   4.382
35890SOL    HW1 9567  12.051   1.462   4.457
35890SOL    HW2 9568  12.086   1.374   4.339
35891SOL     OW 9569   7.843   6.054   8.081
35891SOL    HW1 9570   7.916   6.034   8.022
35891SOL    HW2 9571   7.885   6.070   8.166
35892SOL     OW 9572   2.066  10.255  10.843
35892SOL    HW1 9573   2.071  10.164  10.815
35892SOL    HW2 9574   2.071  10.306  10.762
35893SOL     OW 9575  10.931   8.073   5.907
35893SOL    HW1 9576  10.877   8.153   5.911
35893SOL    HW2 9577  10.972   8.067   5.993
35894SOL     OW 9578   0.732   3.486   0.086
35894SOL    HW1 9579   0.676   3.494   0.009
35894SOL    HW2 9580   0.821   3.480   0.050
35895SOL     OW 9581   0.799  10.311   1.253
35895SOL    HW1 9582   0.883  10.265   1.255
35895SOL    HW2 9583   0.816  10.390   1.202
35896SOL     OW 9584  13.348   1.759  14.344
35896SOL    HW1 9585  13.375   1.836  14.294
35896SOL    HW2 9586  13.427   1.705  14.349
35897SOL     OW 9587   4.915   6.598   8.258
35897SOL    HW1 9588   4.873   6.602   8.172
35897SOL    HW2 9589   4.856   6.645   8.316
35898SOL     OW 9590   2.930  12.682   5.489
35898SOL    HW1 9591   2.874  12.604   5.485
35898SOL    HW2 9592   2.965  12.690   5.400
35899SOL     OW 9593   2.977   5.509   9.828
35899SOL    HW1 9594   3.068   5.523   9.853
35899SOL    HW2 9595   2.957   5.579   9.766
35900SOL     OW 9596   0.492  11.099  12.605
35900SOL    HW1 9597   0.400  11.074  12.613
35900SOL    HW2 9598   0.517  11.071  12.517
35901SOL     OW 9599   5.044   6.884   8.708
35901SOL    HW1 9600   5.139   6.891   8.720
35901SOL    HW2 9601   5.007   6.926   8.786
35902SOL     OW 9602  14.455   6.184  12.937
35902SOL    HW1 9603  14.373   6.194  12.888
35902SOL    HW2 9604  14.519   6.236  12.889
35903SOL     OW 9605  12.837   6.643  10.659
35903SOL    HW1 9606  12.771   6.671  10.595
35903SOL    HW2 9607  12.799   6.664  10.744
35904SOL     OW 9608  10.475  10.200   3.156
35904SOL    HW1 9609  10.530  10.183   3.232
35904SOL    HW2 9610  10.479  10.119   3.105
35905SOL     OW 9611  11.363  13.766   8.087
35905SOL    HW1 9612  11.458  13.762   8.077
35905SOL    HW2 9613  11.329  13.717   8.012
35906SOL     OW 9614   5.541   5.526  14.772
35906SOL    HW1 9615   5.535   5.579  14.692
35906SOL    HW2 9616   5.633   5.530  14.796
35907SOL     OW 9617   9.459   2.043   3.821
35907SOL    HW1 9618   9.426   2.133   3.820
35907SOL    HW2 9619   9.440   2.009   3.734
35908SOL     OW 9620   4.324   5.019   7.422
35908SOL    HW1 9621   4.349   5.078   7.351
35908SOL    HW2 9622   4.322   4.932   7.381
35909SOL     OW 9623   6.790   4.479   4.328
35909SOL    HW1 9624   6.854   4.527   4.380
35909SOL    HW2 9625   6.843   4.427   4.267
35910SOL     OW 9626  14.245  14.435   5.375
35910SOL    HW1 9627  14.236  14.342   5.352
35910SOL    HW2 9628  14.216  14.439   5.466
35911SOL     OW 9629   3.749   2.371   8.594
35911SOL    HW1 9630   3.760   2.323   8.676
35911SOL    HW2 9631   3.783   2.458   8.612
35912SOL     OW 9632   1.235  11.717   6.426
35912SOL    HW1 9633   1.184  11.729   6.506
35912SOL    HW2 9634   1.289  11.640   6.442
35913SOL     OW 9635   6.077  11.183   5.852
35913SOL    HW1 9636   6.099  11.119   5.785
35913SOL    HW2 9637   6.049  11.131   5.927
35914SOL     OW 9638   9.674   8.026  14.143
35914SOL    HW1 9639   9.594   8.063  14.106
35914SOL    HW2 9640   9.679   8.064  14.231
35915SOL     OW 9641   3.488   6.091   2.343
35915SOL    HW1 9642   3.485   6.171   2.396
35915SOL    HW2 9643   3.403   6.049   2.357
35916SOL     OW 9644  11.543   8.693   9.696
35916SOL    HW1 9645  11.630   8.708   9.659
35916SOL    HW2 9646  11.484   8.693   9.621
35917SOL     OW 9647  13.672  14.144   5.453
35917SOL    HW1 9648  13.597  14.114   5.505
35917SOL    HW2 9649  13.632  14.191   5.380
35918SOL     OW 9650   3.535   1.326   2.799
35918SOL    HW1 9651   3.537   1.415   2.763
35918SOL    HW2 9652   3.449   1.319   2.840
35919SOL     OW 9653  13.582   2.360  11.293
35919SOL    HW1 9654  13.582   2.340  11.386
35919SOL    HW2 9655  13.674   2.354  11.267
35920SOL     OW 9656   8.728   8.727   5.098
35920SOL    HW1 9657   8.716   8.633   5.089
35920SOL    HW2 9658   8.811   8.745   5.053
35921SOL     OW 9659   1.119  11.229   9.316
35921SOL    HW1 9660   1.183  11.290   9.279
35921SOL    HW2 9661   1.110  11.160   9.250
35922SOL     OW 9662   1.321   6.957   1.908
35922SOL    HW1 9663   1.333   6.980   2.000
35922SOL    HW2 9664   1.385   6.888   1.893
35923SOL     OW 9665   7.205  10.419   3.924
35923SOL    HW1 9666   7.178  10.335   3.961
35923SOL    HW2 9667   7.287  10.399   3.879
35924SOL     OW 9668  10.106   0.140  12.032
35924SOL    HW1 9669  10.088   0.049  12.009
35924SOL    HW2 9670  10.172   0.134  12.101
35925SOL     OW 9671   0.061   6.560   3.142
35925SOL    HW1 9672   0.089   6.533   3.054
35925SOL    HW2 9673  14.857   6.600   3.128
35926SOL     OW 9674  13.830   7.350   9.236
35926SOL    HW1 9675  13.910   7.351   9.289
35926SOL    HW2 9676  13.828   7.436   9.194
35927SOL     OW 9677   1.633  14.767   5.328
35927SOL    HW1 9678   1.606  14.843   5.379
35927SOL    HW2 9679   1.674  14.708   5.392
35928SOL     OW 9680   1.499  13.337   1.700
35928SOL    HW1 9681   1.591  13.360   1.703
35928SOL    HW2 9682   1.497  13.245   1.673
35929SOL     OW 9683   9.546  10.818   3.799
35929SOL    HW1 9684   9.625  10.764   3.794
35929SOL    HW2 9685   9.495  10.780   3.870
35930SOL     OW 9686   5.609   9.166  12.826
35930SOL    HW1 9687   5.678   9.206  12.880
35930SOL    HW2 9688   5.635   9.187  12.736
35931SOL     OW 9689   8.626   3.443   9.401
35931SOL    HW1 9690   8.691   3.468   9.335
35931SOL    HW2 9691   8.592   3.359   9.370
35932SOL     OW 9692   2.597   8.549  12.930
35932SOL    HW1 9693   2.527   8.553  12.864
35932SOL    HW2 9694   2.588   8.630  12.979
35933SOL     OW 9695   9.643   7.161  10.431
35933SOL    HW1 9696   9.631   7.218  10.507
35933SOL    HW2 9697   9.598   7.080  10.453
35934SOL     OW 9698   3.360   6.498  10.137
35934SOL    HW1 9699   3.355   6.403  10.141
35934SOL    HW2 9700   3.453   6.518  10.146
35935SOL     OW 9701  12.751   6.246   7.696
35935SOL    HW1 9702  12.666   6.275   7.663
35935SOL    HW2 9703  12.780   6.318   7.752
35936SOL     OW 9704   5.567   9.054   2.650
35936SOL    HW1 9705   5.549   9.145   2.624
35936SOL    HW2 9706   5.570   9.056   2.745
35937SOL     OW 9707   4.473   2.821   3.146
35937SOL    HW1 9708   4.415   2.755   3.108
35937SOL    HW2 9709   4.446   2.828   3.237
35938SOL     OW 9710   6.584  13.023   4.883
35938SOL    HW1 9711   6.632  13.105   4.870
35938SOL    HW2 9712   6.619  12.987   4.964
35939SOL     OW 9713  12.120   0.959   4.891
35939SOL    HW1 9714  12.045   1.016   4.872
35939SOL    HW2 9715  12.083   0.871   4.893
35940SOL     OW 9716   2.824   1.326   4.101
35940SOL    HW1 9717   2.825   1.407   4.151
35940SOL    HW2 9718   2.916   1.304   4.089
35941SOL     OW 9719   7.707   9.731   5.801
35941SOL    HW1 9720   7.630   9.683   5.832
35941SOL    HW2 9721   7.724   9.796   5.870
35942SOL     OW 9722  14.728   9.231   5.914
35942SOL    HW1 9723  14.796   9.196   5.971
35942SOL    HW2 9724  14.764   9.313   5.881
35943SOL     OW 9725  12.391  10.909   3.547
35943SOL    HW1 9726  12.368  10.886   3.637
35943SOL    HW2 9727  12.365  10.833   3.495
35944SOL     OW 9728   1.008  11.925   7.530
35944SOL    HW1 9729   0.939  11.901   7.593
35944SOL    HW2 9730   0.964  11.979   7.465
35945SOL     OW 9731   0.925   8.297   3.081
35945SOL    HW1 9732   0.855   8.360   3.061
35945SOL    HW2 9733   0.977   8.294   3.001
35946SOL     OW 9734   6.289  13.889   4.944
35946SOL    HW1 9735   6.259  13.936   4.866
35946SOL    HW2 9736   6.354  13.947   4.983
35947SOL     OW 9737  10.826   0.573   1.966
35947SOL    HW1 9738  10.905   0.611   2.004
35947SOL    HW2 9739  10.756   0.633   1.989
35948SOL     OW 9740   3.556   1.391   2.411
35948SOL    HW1 9741   3.592   1.322   2.467
35948SOL    HW2 9742   3.469   1.360   2.387
35949SOL     OW 9743  11.813  11.694  11.088
35949SOL    HW1 9744  11.778  11.657  11.007
35949SOL    HW2 9745  11.762  11.653  11.157
35950SOL     OW 9746  13.014  10.852   1.216
35950SOL    HW1 9747  13.031  10.946   1.214
35950SOL    HW2 9748  13.088  10.814   1.169
35951SOL     OW 9749   0.026  10.619   1.266
35951SOL    HW1 9750   0.090  10.593   1.332
35951SOL    HW2 9751  14.845  10.673   1.312
35952SOL     OW 9752   2.037  14.043   2.963
35952SOL    HW1 9753   1.979  14.000   3.025
35952SOL    HW2 9754   2.017  14.002   2.879
35953SOL     OW 9755   8.471  13.961   3.414
35953SOL    HW1 9756   8.427  13.945   3.331
35953SOL    HW2 9757   8.400  13.970   3.478
35954SOL     OW 9758   6.753  12.160  13.392
35954SOL    HW1 9759   6.707  12.170  13.476
35954SOL    HW2 9760   6.716  12.229  13.336
35955SOL     OW 9761  14.148   4.355  13.823
35955SOL    HW1 9762  14.202   4.349  13.744
35955SOL    HW2 9763  14.199   4.410  13.883
35956SOL     OW 9764  13.506  11.482  11.649
35956SOL    HW1 9765  13.582  11.489  11.706
35956SOL    HW2 9766  13.504  11.390  11.621
35957SOL     OW 9767   2.031   0.131   4.779
35957SOL    HW1 9768   1.999   0.154   4.866
35957SOL    HW2 9769   2.064   0.213   4.743
35958SOL     OW 9770  13.364   8.645   1.157
35958SOL    HW1 9771  13.291   8.588   1.135
35958SOL    HW2 9772  13.423   8.639   1.082
35959SOL     OW 9773   4.446  13.068   6.070
35959SOL    HW1 9774   4.493  13.005   6.015
35959SOL    HW2 9775   4.390  13.014   6.125
35960SOL     OW 9776  10.637   7.869   3.768
35960SOL    HW1 9777  10.680   7.954   3.772
35960SOL    HW2 9778  10.648   7.832   3.855
35961SOL     OW 9779   6.786   0.389   1.108
35961SOL    HW1 9780   6.803   0.326   1.038
35961SOL    HW2 9781   6.741   0.338   1.176
35962SOL     OW 9782  12.921   3.607  13.478
35962SOL    HW1 9783  12.976   3.655  13.540
35962SOL    HW2 9784  12.981   3.577  13.410
35963SOL     OW 9785   6.470  13.841   8.973
35963SOL    HW1 9786   6.471  13.936   8.976
35963SOL    HW2 9787   6.559  13.815   8.993
35964SOL     OW 9788  14.679   4.218  13.403
35964SOL    HW1 9789  14.766   4.250  13.379
35964SOL    HW2 9790  14.639   4.290  13.452
35965SOL     OW 9791  11.914  12.054   9.665
35965SOL    HW1 9792  11.987  12.019   9.615
35965SOL    HW2 9793  11.905  12.145   9.636
35966SOL     OW 9794   9.596   7.756   6.471
35966SOL    HW1 9795   9.637   7.842   6.469
35966SOL    HW2 9796   9.511   7.772   6.513
35967SOL     OW 9797  14.643   6.361   6.285
35967SOL    HW1 9798  14.711   6.386   6.347
35967SOL    HW2 9799  14.664   6.411   6.206
35968SOL     OW 9800  11.385  14.098   4.120
35968SOL    HW1 9801  11.301  14.117   4.161
35968SOL    HW2 9802  11.442  14.070   4.191
35969SOL     OW 9803  10.575   8.143  10.241
35969SOL    HW1 9804  10.552   8.196  10.317
35969SOL    HW2 9805  10.605   8.206  10.175
35970SOL     OW 9806  12.669   9.975  12.835
35970SOL    HW1 9807  12.753  10.013  12.811
35970SOL    HW2 9808  12.614  10.051  12.857
35971SOL     OW 9809   8.483  12.480   1.350
35971SOL    HW1 9810   8.571  12.453   1.324
35971SOL    HW2 9811   8.458  12.417   1.417
35972SOL     OW 9812  10.997   6.188  14.395
35972SOL    HW1 9813  10.987   6.093  14.398
35972SOL    HW2 9814  11.067   6.207  14.457
35973SOL     OW 9815   0.353   8.557   0.162
35973SOL    HW1 9816   0.261   8.535   0.175
35973SOL    HW2 9817   0.396   8.473   0.146
35974SOL     OW 9818   9.516   1.404  13.135
35974SOL    HW1 9819   9.422   1.422  13.144
35974SOL    HW2 9820   9.532   1.405  13.040
35975SOL     OW 9821   4.836   1.462   2.213
35975SOL    HW1 9822   4.860   1.394   2.150
35975SOL    HW2 9823   4.740   1.461   2.213
35976SOL     OW 9824   7.510   9.644  12.861
35976SOL    HW1 9825   7.480   9.570  12.914
35976SOL    HW2 9826   7.548   9.603  12.782
35977SOL     OW 9827  14.593   3.503  13.213
35977SOL    HW1 9828  14.634   3.473  13.294
35977SOL    HW2 9829  14.644   3.580  13.188
35978SOL     OW 9830   4.050   9.574  10.074
35978SOL    HW1 9831   4.142   9.558  10.052
35978SOL    HW2 9832   4.003   9.559   9.992
35979SOL     OW 9833   4.061   5.745   0.543
35979SOL    HW1 9834   4.026   5.713   0.626
35979SOL    HW2 9835   4.156   5.745   0.556
35980SOL     OW 9836   9.157   8.072  10.923
35980SOL    HW1 9837   9.222   8.108  10.983
35980SOL    HW2 9838   9.075   8.075  10.971
35981SOL     OW 9839   5.730   4.294   2.428
35981SOL    HW1 9840   5.691   4.330   2.348
35981SOL    HW2 9841   5.665   4.232   2.461
35982SOL     OW 9842  12.732  12.364   2.539
35982SOL    HW1 9843  12.797  12.403   2.598
35982SOL    HW2 9844  12.660  12.338   2.597
35983SOL     OW 9845   7.454   3.759   2.197
35983SOL    HW1 9846   7.363   3.786   2.184
35983SOL    HW2 9847   7.501   3.842   2.210
35984SOL     OW 9848   4.539   7.106   3.805
35984SOL    HW1 9849   4.483   7.035   3.837
35984SOL    HW2 9850   4.581   7.071   3.727
35985SOL     OW 9851   9.104   5.621   4.981
35985SOL    HW1 9852   9.059   5.647   5.062
35985SOL    HW2 9853   9.187   5.668   4.984
35986SOL     OW 9854   6.402   8.024   1.331
35986SOL    HW1 9855   6.481   8.065   1.296
35986SOL    HW2 9856   6.422   8.008   1.423
35987SOL     OW 9857   8.881   6.228   8.245
35987SOL    HW1 9858   8.878   6.142   8.287
35987SOL    HW2 9859   8.903   6.209   8.154
35988SOL     OW 9860   2.963   6.382   4.868
35988SOL    HW1 9861   2.931   6.349   4.784
35988SOL    HW2 9862   3.051   6.345   4.877
35989SOL     OW 9863   4.207  10.671   1.583
35989SOL    HW1 9864   4.292  10.707   1.609
35989SOL    HW2 9865   4.229  10.594   1.530
35990SOL     OW 9866   7.135   0.144   9.300
35990SOL    HW1 9867   7.218   0.191   9.303
35990SOL    HW2 9868   7.075   0.200   9.350
35991SOL     OW 9869  12.294  14.604  12.641
35991SOL    HW1 9870  12.291  14.694  12.608
35991SOL    HW2 9871  12.250  14.609  12.726
35992SOL     OW 9872  14.589   5.248   9.845
35992SOL    HW1 9873  14.593   5.343   9.857
35992SOL    HW2 9874  14.634   5.233   9.762
35993SOL     OW 9875   6.750   3.193   4.100
35993SOL    HW1 9876   6.679   3.130   4.111
35993SOL    HW2 9877   6.755   3.240   4.183
35994SOL     OW 9878  11.200   3.766   7.431
35994SOL    HW1 9879  11.296   3.763   7.430
35994SOL    HW2 9880  11.176   3.775   7.339
35995SOL     OW 9881   7.597   2.626   8.804
35995SOL    HW1 9882   7.631   2.610   8.716
35995SOL    HW2 9883   7.509   2.588   8.803
35996SOL     OW 9884   3.260   5.565   2.023
35996SOL    HW1 9885   3.329   5.556   1.957
35996SOL    HW2 9886   3.178   5.557   1.973
35997SOL     OW 9887  11.834   0.447   0.163
35997SOL    HW1 9888  11.881   0.452   0.080
35997SOL    HW2 9889  11.747   0.481   0.143
35998SOL     OW 9890   6.845   6.193   7.230
35998SOL    HW1 9891   6.806   6.176   7.315
35998SOL    HW2 9892   6.846   6.289   7.223
35999SOL     OW 9893   4.403   9.150   4.232
35999SOL    HW1 9894   4.458   9.125   4.157
35999SOL    HW2 9895   4.329   9.090   4.228
36000SOL     OW 9896   5.621   8.653  10.183
36000SOL    HW1 9897   5.617   8.573  10.130
36000SOL    HW2 9898   5.534   8.691  10.176
36001SOL     OW 9899  14.801   7.958   5.016
36001SOL    HW1 9900  14.862   7.984   4.947
36001SOL    HW2 9901  14.749   7.888   4.977
36002SOL     OW 9902   3.259  10.180  14.296
36002SOL    HW1 9903   3.317  10.162  14.223
36002SOL    HW2 9904   3.311  10.161  14.374
36003SOL     OW 9905  10.162  14.158   2.979
36003SOL    HW1 9906  10.120  14.219   3.041
36003SOL    HW2 9907  10.246  14.198   2.960
36004SOL     OW 9908  13.877  11.250  14.666
36004SOL    HW1 9909  13.809  11.244  14.598
36004SOL    HW2 9910  13.857  11.332  14.712
36005SOL     OW 9911   6.410   2.971   9.365
36005SOL    HW1 9912   6.413   2.900   9.429
36005SOL    HW2 9913   6.494   2.966   9.319
36006SOL     OW 9914   2.262   2.961  12.447
36006SOL    HW1 9915   2.234   2.947  12.356
36006SOL    HW2 9916   2.273   2.872  12.482
36007SOL     OW 9917  12.766  10.699   1.841
36007SOL    HW1 9918  12.797  10.784   1.809
36007SOL    HW2 9919  12.829  10.636   1.808
36008SOL     OW 9920   5.363   0.410   8.966
36008SOL    HW1 9921   5.398   0.431   9.053
36008SOL    HW2 9922   5.297   0.477   8.950
36009SOL     OW 9923   0.495  11.834   5.542
36009SOL    HW1 9924   0.457  11.798   5.622
36009SOL    HW2 9925   0.590  11.827   5.555
36010SOL     OW 9926  14.439   1.030   0.600
36010SOL    HW1 9927  14.534   1.028   0.610
36010SOL    HW2 9928  14.412   1.113   0.640
36011SOL     OW 9929  12.371   9.101   1.617
36011SOL    HW1 9930  12.453   9.052   1.628
36011SOL    HW2 9931  12.375   9.133   1.527
36012SOL     OW 9932  12.612   7.852   8.626
36012SOL    HW1 9933  12.607   7.944   8.651
36012SOL    HW2 9934  12.675   7.850   8.554
36013SOL     OW 9935  10.408   3.789   9.577
36013SOL    HW1 9936  10.445   3.867   9.617
36013SOL    HW2 9937  10.320   3.782   9.614
36014SOL     OW 9938  11.864   3.365   3.500
36014SOL    HW1 9939  11.809   3.434   3.536
36014SOL    HW2 9940  11.918   3.336   3.573
36015SOL     OW 9941  12.950   4.070  13.556
36015SOL    HW1 9942  13.018   4.121  13.512
36015SOL    HW2 9943  12.978   4.068  13.648
36016SOL     OW 9944  13.059   5.580  11.429
36016SOL    HW1 9945  13.055   5.554  11.337
36016SOL    HW2 9946  13.098   5.505  11.473
36017SOL     OW 9947   4.130  14.481   3.788
36017SOL    HW1 9948   4.084  14.443   3.863
36017SOL    HW2 9949   4.213  14.513   3.825
36018SOL     OW 9950  10.038   2.819   9.363
36018SOL    HW1 9951   9.970   2.764   9.323
36018SOL    HW2 9952  10.036   2.900   9.311
36019SOL     OW 9953   6.598  14.441   4.156
36019SOL    HW1 9954   6.620  14.376   4.089
36019SOL    HW2 9955   6.675  14.498   4.160
36020SOL     OW 9956  10.055  12.657  11.477
36020SOL    HW1 9957  10.123  12.661  11.544
36020SOL    HW2 9958  10.092  12.600  11.410
36021SOL     OW 9959  11.273   8.399   7.700
36021SOL    HW1 9960  11.359   8.431   7.726
36021SOL    HW2 9961  11.280   8.304   7.706
36022SOL     OW 9962   8.945  14.620  13.861
36022SOL    HW1 9963   8.869  14.562  13.856
36022SOL    HW2 9964   8.965  14.641  13.769
36023SOL     OW 9965   6.397   4.869   0.888
36023SOL    HW1 9966   6.452   4.891   0.964
36023SOL    HW2 9967   6.457   4.826   0.827
36024SOL     OW 9968   0.294  11.970   4.989
36024SOL    HW1 9969   0.239  11.908   5.037
36024SOL    HW2 9970   0.367  11.916   4.957
36025SOL     OW 9971   1.761  12.658   9.504
36025SOL    HW1 9972   1.853  12.677   9.487
36025SOL    HW2 9973   1.747  12.571   9.467
36026SOL     OW 9974   7.267  14.722  12.993
36026SOL    HW1 9975   7.214  14.783  12.940
36026SOL    HW2 9976   7.309  14.665  12.929
36027SOL     OW 9977   4.932   4.114   6.988
36027SOL    HW1 9978   4.935   4.018   6.987
36027SOL    HW2 9979   4.846   4.135   7.024
36028SOL     OW 9980   6.941  10.483   3.242
36028SOL    HW1 9981   6.977  10.459   3.327
36028SOL    HW2 9982   7.008  10.539   3.203
36029SOL     OW 9983   8.672   1.718   8.642
36029SOL    HW1 9984   8.651   1.804   8.677
36029SOL    HW2 9985   8.767   1.720   8.630
36030SOL     OW 9986   6.914  10.162   7.801
36030SOL    HW1 9987   6.874  10.249   7.797
36030SOL    HW2 9988   6.840  10.102   7.800
36031SOL     OW 9989  10.802   6.950   6.033
36031SOL    HW1 9990  10.714   6.969   5.999
36031SOL    HW2 9991  10.795   6.862   6.070
36032SOL     OW 9992  12.186   8.051  13.340
36032SOL    HW1 9993  12.203   8.062  13.246
36032SOL    HW2 9994  12.265   8.084  13.383
36033SOL     OW 9995   7.279   5.978  12.421
36033SOL    HW1 9996   7.271   5.912  12.490
36033SOL    HW2 9997   7.319   5.931  12.348
36034SOL     OW 9998   1.925   7.040   0.783
36034SOL    HW1 9999   1.935   6.945   0.796
36034SOL    HW210000   1.927   7.076   0.872
36035SOL     OW10001   8.746   5.898  13.146
36035SOL    HW110002   8.812   5.833  13.169
36035SOL    HW210003   8.718   5.873  13.057
36036SOL     OW10004   4.743   2.590  14.572
36036SOL    HW110005   4.819   2.619  14.523
36036SOL    HW210006   4.677   2.570  14.506
36037SOL     OW10007   5.931   8.618  13.994
36037SOL    HW110008   5.987   8.544  13.970
36037SOL    HW210009   5.903   8.656  13.910
36038SOL     OW10010   0.566   7.354  12.638
36038SOL    HW110011   0.471   7.348  12.645
36038SOL    HW210012   0.587   7.315  12.553
36039SOL     OW10013   6.902   4.572   0.447
36039SOL    HW110014   6.896   4.494   0.393
36039SOL    HW210015   6.988   4.568   0.488
36040SOL     OW10016   4.422   7.013   9.073
36040SOL    HW110017   4.407   7.078   9.142
36040SOL    HW210018   4.342   7.015   9.021
36041SOL     OW10019   3.052   6.340  11.845
36041SOL    HW110020   3.075   6.248  11.833
36041SOL    HW210021   3.026   6.370  11.758
36042SOL     OW10022   1.206   9.579   5.997
36042SOL    HW110023   1.226   9.618   5.912
36042SOL    HW210024   1.130   9.523   5.980
36043SOL     OW10025   0.705   5.316   6.285
36043SOL    HW110026   0.692   5.222   6.298
36043SOL    HW210027   0.760   5.322   6.207
36044SOL     OW10028  11.057  12.693  13.646
36044SOL    HW110029  11.015  12.627  13.591
36044SOL    HW210030  11.082  12.762  13.585
36045SOL     OW10031   8.979  11.598   4.489
36045SOL    HW110032   9.023  11.682   4.504
36045SOL    HW210033   9.000  11.546   4.566
36046SOL     OW10034  13.767   3.145   7.162
36046SOL    HW110035  13.804   3.073   7.212
36046SOL    HW210036  13.820   3.149   7.083
36047SOL     OW10037   5.645   9.194  14.582
36047SOL    HW110038   5.721   9.138  14.563
36047SOL    HW210039   5.590   9.187  14.505
36048SOL     OW10040   4.441  11.663   1.739
36048SOL    HW110041   4.373  11.651   1.805
36048SOL    HW210042   4.521  11.677   1.788
36049SOL     OW10043   2.401   8.019   6.778
36049SOL    HW110044   2.440   7.984   6.858
36049SOL    HW210045   2.476   8.045   6.724
36050SOL     OW10046   2.128   9.966   3.762
36050SOL    HW110047   2.201   9.961   3.824
36050SOL    HW210048   2.137   9.886   3.710
36051SOL     OW10049  11.616   7.823   0.223
36051SOL    HW110050  11.668   7.900   0.198
36051SOL    HW210051  11.645   7.754   0.163
36052SOL     OW10052   5.787  13.421   6.454
36052SOL    HW110053   5.773  13.347   6.396
36052SOL    HW210054   5.874  13.454   6.431
36053SOL     OW10055  13.945  10.455   2.299
36053SOL    HW110056  13.919  10.420   2.213
36053SOL    HW210057  13.950  10.550   2.285
36054SOL     OW10058   2.927   0.862  10.465
36054SOL    HW110059   2.875   0.926  10.417
36054SOL    HW210060   2.975   0.914  10.529
36055SOL     OW10061  11.078   1.046   5.896
36055SOL    HW110062  11.087   1.109   5.824
36055SOL    HW210063  11.149   1.068   5.956
36056SOL     OW10064  14.648   6.958  14.235
36056SOL    HW110065  14.735   6.926  14.260
36056SOL    HW210066  14.610   6.887  14.183
36057SOL     OW10067  10.217   5.349   9.451
36057SOL    HW110068  10.231   5.330   9.544
36057SOL    HW210069  10.194   5.442   9.448
36058SOL     OW10070   8.446   2.307   5.635
36058SOL    HW110071   8.396   2.384   5.662
36058SOL    HW210072   8.476   2.327   5.547
36059SOL     OW10073   7.470  10.992   1.580
36059SOL    HW110074   7.391  10.957   1.539
36059SOL    HW210075   7.521  10.915   1.605
36060SOL     OW10076   0.462  10.353  14.860
36060SOL    HW110077   0.512  10.303   0.042
36060SOL    HW210078   0.377  10.309  14.855
36061SOL     OW10079   4.652  14.605   9.995
36061SOL    HW110080   4.611  14.652  10.067
36061SOL    HW210081   4.700  14.672   9.947
36062SOL     OW10082   0.372   3.354   8.333
36062SOL    HW110083   0.360   3.345   8.427
36062SOL    HW210084   0.407   3.269   8.305
36063SOL     OW10085   4.870   8.903   2.463
36063SOL    HW110086   4.927   8.867   2.531
36063SOL    HW210087   4.901   8.992   2.450
36064SOL     OW10088   9.012   5.234   3.048
36064SOL    HW110089   9.097   5.277   3.049
36064SOL    HW210090   9.032   5.141   3.039
36065SOL     OW10091   8.922   2.303   1.585
36065SOL    HW110092   8.964   2.285   1.669
36065SOL    HW210093   8.964   2.383   1.553
36066SOL     OW10094  10.260   3.396   0.257
36066SOL    HW110095  10.245   3.320   0.313
36066SOL    HW210096  10.264   3.470   0.318
36067SOL     OW10097  11.244   4.045  14.548
36067SOL    HW110098  11.285   3.959  14.536
36067SOL    HW210099  11.298   4.105  14.496
36068SOL     OW10100   7.633  13.859   9.989
36068SOL    HW110101   7.678  13.933   9.948
36068SOL    HW210102   7.627  13.883  10.082
36069SOL     OW10103   0.954   8.617   2.855
36069SOL    HW110104   1.007   8.573   2.789
36069SOL    HW210105   0.865   8.586   2.839
36070SOL     OW10106   2.617   0.252  12.806
36070SOL    HW110107   2.691   0.235  12.864
36070SOL    HW210108   2.555   0.302  12.859
36071SOL     OW10109   8.985   1.709  14.268
36071SOL    HW110110   8.990   1.728  14.174
36071SOL    HW210111   8.893   1.724  14.290
36072SOL     OW10112   7.659   9.387   4.134
36072SOL    HW110113   7.577   9.424   4.167
36072SOL    HW210114   7.639   9.360   4.045
36073SOL     OW10115  11.953   6.979  13.618
36073SOL    HW110116  11.966   7.038  13.693
36073SOL    HW210117  12.031   6.924  13.617
36074SOL     OW10118   9.774   0.338   7.906
36074SOL    HW110119   9.867   0.325   7.889
36074SOL    HW210120   9.737   0.250   7.907
36075SOL     OW10121   7.216   8.244   7.056
36075SOL    HW110122   7.274   8.318   7.039
36075SOL    HW210123   7.137   8.284   7.094
36076SOL     OW10124   8.863   6.366   4.843
36076SOL    HW110125   8.804   6.304   4.886
36076SOL    HW210126   8.838   6.362   4.751
36077SOL     OW10127   4.438  13.711   4.083
36077SOL    HW110128   4.443  13.741   4.174
36077SOL    HW210129   4.351  13.670   4.076
36078SOL     OW10130   8.723   3.475   5.560
36078SOL    HW110131   8.811   3.444   5.536
36078SOL    HW210132   8.664   3.408   5.526
36079SOL     OW10133   6.737   7.906  10.761
36079SOL    HW110134   6.782   7.837  10.713
36079SOL    HW210135   6.783   7.987  10.736
36080SOL     OW10136   5.828   8.241   1.182
36080SOL    HW110137   5.782   8.202   1.256
36080SOL    HW210138   5.834   8.170   1.117
36081SOL     OW10139   9.121  14.016   1.455
36081SOL    HW110140   9.126  14.027   1.360
36081SOL    HW210141   9.208  14.040   1.486
36082SOL     OW10142   7.888   2.673  10.081
36082SOL    HW110143   7.980   2.678  10.106
36082SOL    HW210144   7.890   2.636   9.992
36083SOL     OW10145   3.874  13.026   2.097
36083SOL    HW110146   3.882  13.119   2.116
36083SOL    HW210147   3.964  12.995   2.090
36084SOL     OW10148   7.721   3.278  13.355
36084SOL    HW110149   7.660   3.280  13.429
36084SOL    HW210150   7.674   3.229  13.287
36085SOL     OW10151  13.348  13.745  10.991
36085SOL    HW110152  13.268  13.693  10.990
36085SOL    HW210153  13.385  13.735  10.903
36086SOL     OW10154   1.529   2.162  14.209
36086SOL    HW110155   1.461   2.170  14.277
36086SOL    HW210156   1.495   2.212  14.135
36087SOL     OW10157  10.569  11.918   4.603
36087SOL    HW110158  10.630  11.853   4.570
36087SOL    HW210159  10.558  11.979   4.530
36088SOL     OW10160  10.419   1.372  11.792
36088SOL    HW110161  10.446   1.343  11.705
36088SOL    HW210162  10.372   1.454  11.776
36089SOL     OW10163   9.659   3.592   4.407
36089SOL    HW110164   9.638   3.601   4.500
36089SOL    HW210165   9.658   3.682   4.374
36090SOL     OW10166  14.599   8.338   8.444
36090SOL    HW110167  14.583   8.432   8.434
36090SOL    HW210168  14.522   8.296   8.405
36091SOL     OW10169  12.848  11.790   9.640
36091SOL    HW110170  12.840  11.700   9.670
36091SOL    HW210171  12.932  11.821   9.676
36092SOL     OW10172   8.576  14.686   4.301
36092SOL    HW110173   8.486  14.690   4.333
36092SOL    HW210174   8.576  14.742   4.223
36093SOL     OW10175  14.473   4.449   9.493
36093SOL    HW110176  14.493   4.376   9.435
36093SOL    HW210177  14.475   4.527   9.437
36094SOL     OW10178  11.472  12.613   3.825
36094SOL    HW110179  11.408  12.641   3.890
36094SOL    HW210180  11.547  12.671   3.837
36095SOL     OW10181   6.783   8.456   4.685
36095SOL    HW110182   6.866   8.493   4.656
36095SOL    HW210183   6.743   8.422   4.604
36096SOL     OW10184   3.131   5.125   5.193
36096SOL    HW110185   3.057   5.181   5.174
36096SOL    HW210186   3.191   5.181   5.244
36097SOL     OW10187   2.485   5.302   9.166
36097SOL    HW110188   2.539   5.382   9.168
36097SOL    HW210189   2.546   5.232   9.193
36098SOL     OW10190   7.304   8.918  14.334
36098SOL    HW110191   7.243   8.872  14.276
36098SOL    HW210192   7.257   8.927  14.416
36099SOL     OW10193   0.484  13.817   3.208
36099SOL    HW110194   0.407  13.840   3.259
36099SOL    HW210195   0.493  13.889   3.144
36100SOL     OW10196   5.641  10.181   0.123
36100SOL    HW110197   5.642  10.115   0.055
36100SOL    HW210198   5.664  10.134   0.203
36101SOL     OW10199  10.561   5.711   4.257
36101SOL    HW110200  10.574   5.798   4.294
36101SOL    HW210201  10.631   5.657   4.295
36102SOL     OW10202  10.562   8.558   7.229
36102SOL    HW110203  10.490   8.586   7.286
36102SOL    HW210204  10.641   8.585   7.276
36103SOL     OW10205   8.478   7.571   1.586
36103SOL    HW110206   8.384   7.566   1.606
36103SOL    HW210207   8.517   7.498   1.633
36104SOL     OW10208  14.569   2.300   9.280
36104SOL    HW110209  14.500   2.265   9.336
36104SOL    HW210210  14.598   2.379   9.325
36105SOL     OW10211   2.791   7.313   2.881
36105SOL    HW110212   2.780   7.399   2.922
36105SOL    HW210213   2.873   7.321   2.831
36106SOL     OW10214   1.135   4.615   3.017
36106SOL    HW110215   1.175   4.614   3.105
36106SOL    HW210216   1.164   4.533   2.978
36107SOL     OW10217   1.287   3.339  14.236
36107SOL    HW110218   1.227   3.283  14.186
36107SOL    HW210219   1.242   3.351  14.320
36108SOL     OW10220   7.547   6.194   9.758
36108SOL    HW110221   7.641   6.185   9.747
36108SOL    HW210222   7.509   6.144   9.686
36109SOL     OW10223   0.561   5.793   5.381
36109SOL    HW110224   0.572   5.793   5.476
36109SOL    HW210225   0.469   5.811   5.367
36110SOL     OW10226  13.505   2.363   7.745
36110SOL    HW110227  13.534   2.450   7.721
36110SOL    HW210228  13.564   2.336   7.815
36111SOL     OW10229   0.387   2.556  14.361
36111SOL    HW110230   0.320   2.588  14.300
36111SOL    HW210231   0.338   2.524  14.436
36112SOL     OW10232   1.205   9.124  10.997
36112SOL    HW110233   1.233   9.051  10.941
36112SOL    HW210234   1.113   9.106  11.015
36113SOL     OW10235   7.139   1.468   5.882
36113SOL    HW110236   7.088   1.395   5.848
36113SOL    HW210237   7.077   1.541   5.883
36114SOL     OW10238  11.545   8.175  13.135
36114SOL    HW110239  11.459   8.138  13.115
36114SOL    HW210240  11.561   8.150  13.226
36115SOL     OW10241   3.173   3.333   6.319
36115SOL    HW110242   3.121   3.318   6.399
36115SOL    HW210243   3.162   3.252   6.268
36116SOL     OW10244  11.110   1.615   5.225
36116SOL    HW110245  11.133   1.708   5.237
36116SOL    HW210246  11.089   1.608   5.132
36117SOL     OW10247   9.097   5.053  10.962
36117SOL    HW110248   9.048   4.994  10.905
36117SOL    HW210249   9.187   5.046  10.932
36118SOL     OW10250   2.984   0.364   7.558
36118SOL    HW110251   2.908   0.399   7.605
36118SOL    HW210252   2.982   0.270   7.576
36119SOL     OW10253   0.902   0.893   0.600
36119SOL    HW110254   0.849   0.861   0.674
36119SOL    HW210255   0.893   0.988   0.603
36120SOL     OW10256   4.215   5.137   7.852
36120SOL    HW110257   4.185   5.131   7.762
36120SOL    HW210258   4.269   5.059   7.865
36121SOL     OW10259   0.731  13.986   6.794
36121SOL    HW110260   0.702  14.076   6.786
36121SOL    HW210261   0.812  13.982   6.742
36122SOL     OW10262  13.406  12.213   6.065
36122SOL    HW110263  13.440  12.278   6.004
36122SOL    HW210264  13.315  12.239   6.078
36123SOL     OW10265   1.487   3.870  12.433
36123SOL    HW110266   1.465   3.804  12.499
36123SOL    HW210267   1.525   3.942  12.483
36124SOL     OW10268   1.369  10.885   8.998
36124SOL    HW110269   1.283  10.887   9.041
36124SOL    HW210270   1.416  10.958   9.038
36125SOL     OW10271  13.065  11.420   8.890
36125SOL    HW110272  13.110  11.442   8.808
36125SOL    HW210273  13.016  11.340   8.869
36126SOL     OW10274   5.984   6.835   2.647
36126SOL    HW110275   6.071   6.868   2.673
36126SOL    HW210276   5.941   6.813   2.729
36127SOL     OW10277  11.023   4.302  14.551
36127SOL    HW110278  11.049   4.210  14.556
36127SOL    HW210279  10.931   4.302  14.577
36128SOL     OW10280   8.431   5.254   7.301
36128SOL    HW110281   8.373   5.314   7.254
36128SOL    HW210282   8.496   5.310   7.342
36129SOL     OW10283   4.350  12.248  12.454
36129SOL    HW110284   4.408  12.283  12.522
36129SOL    HW210285   4.408  12.205  12.392
36130SOL     OW10286   8.895  13.328  10.945
36130SOL    HW110287   8.903  13.326  10.850
36130SOL    HW210288   8.980  13.296  10.977
36131SOL     OW10289   2.203  13.662  13.930
36131SOL    HW110290   2.139  13.591  13.944
36131SOL    HW210291   2.236  13.682  14.017
36132SOL     OW10292   4.379  14.034   0.379
36132SOL    HW110293   4.448  14.000   0.321
36132SOL    HW210294   4.401  14.126   0.390
36133SOL     OW10295   6.528   0.991  11.292
36133SOL    HW110296   6.622   0.986  11.277
36133SOL    HW210297   6.489   0.995  11.205
36134SOL     OW10298   5.976   4.557   4.148
36134SOL    HW110299   5.972   4.474   4.195
36134SOL    HW210300   5.902   4.554   4.088
36135SOL     OW10301  11.676  10.976   6.426
36135SOL    HW110302  11.584  10.985   6.452
36135SOL    HW210303  11.717  10.929   6.498
36136SOL     OW10304  10.129   3.593  10.712
36136SOL    HW110305  10.040   3.570  10.687
36136SOL    HW210306  10.130   3.689  10.713
36137SOL     OW10307   8.974   6.657   4.349
36137SOL    HW110308   9.009   6.707   4.423
36137SOL    HW210309   9.040   6.590   4.332
36138SOL     OW10310  14.838  12.606   0.310
36138SOL    HW110311  14.795  12.658   0.378
36138SOL    HW210312   0.036  12.653   0.291
36139SOL     OW10313   4.453  12.902   7.647
36139SOL    HW110314   4.547  12.899   7.633
36139SOL    HW210315   4.417  12.940   7.567
36140SOL     OW10316   4.465   3.551  11.853
36140SOL    HW110317   4.430   3.568  11.766
36140SOL    HW210318   4.389   3.532  11.907
36141SOL     OW10319  10.309  12.733   1.687
36141SOL    HW110320  10.319  12.821   1.723
36141SOL    HW210321  10.292  12.677   1.762
36142SOL     OW10322   2.707  10.503   5.414
36142SOL    HW110323   2.647  10.458   5.355
36142SOL    HW210324   2.735  10.436   5.476
36143SOL     OW10325   4.251   1.215   7.650
36143SOL    HW110326   4.175   1.158   7.635
36143SOL    HW210327   4.275   1.198   7.742
36144SOL     OW10328   7.058  10.007   2.382
36144SOL    HW110329   7.094   9.919   2.379
36144SOL    HW210330   6.973  10.000   2.338
36145SOL     OW10331   1.646   5.194   5.041
36145SOL    HW110332   1.576   5.231   4.987
36145SOL    HW210333   1.630   5.230   5.128
36146SOL     OW10334   6.990   4.016  11.250
36146SOL    HW110335   7.026   3.971  11.173
36146SOL    HW210336   7.058   4.078  11.275
36147SOL     OW10337  12.850   2.481  12.320
36147SOL    HW110338  12.855   2.452  12.411
36147SOL    HW210339  12.756   2.484  12.301
36148SOL     OW10340   3.942   4.498   1.607
36148SOL    HW110341   3.920   4.591   1.603
36148SOL    HW210342   3.942   4.470   1.515
36149SOL     OW10343   8.320   1.003   9.983
36149SOL    HW110344   8.311   0.918   9.939
36149SOL    HW210345   8.400   0.995  10.035
36150SOL     OW10346   1.879   4.569   0.291
36150SOL    HW110347   1.948   4.568   0.357
36150SOL    HW210348   1.925   4.588   0.209
36151SOL     OW10349  12.932   6.720   7.659
36151SOL    HW110350  12.990   6.644   7.669
36151SOL    HW210351  12.844   6.685   7.672
36152SOL     OW10352   3.171   1.648   7.090
36152SOL    HW110353   3.085   1.606   7.087
36152SOL    HW210354   3.222   1.595   7.152
36153SOL     OW10355  13.385  12.822   9.378
36153SOL    HW110356  13.434  12.779   9.448
36153SOL    HW210357  13.307  12.857   9.422
36154SOL     OW10358   7.610   4.367  10.212
36154SOL    HW110359   7.582   4.284  10.174
36154SOL    HW210360   7.531   4.421  10.213
36155SOL     OW10361   9.895   1.955   7.903
36155SOL    HW110362   9.967   1.987   7.848
36155SOL    HW210363   9.862   2.034   7.947
36156SOL     OW10364   8.905   0.111   5.008
36156SOL    HW110365   8.867   0.113   5.096
36156SOL    HW210366   8.995   0.081   5.021
36157SOL     OW10367   1.089   6.030   5.274
36157SOL    HW110368   1.005   5.997   5.304
36157SOL    HW210369   1.108   6.104   5.331
36158SOL     OW10370   9.934   8.614  14.567
36158SOL    HW110371   9.867   8.555  14.600
36158SOL    HW210372  10.015   8.584  14.608
36159SOL     OW10373   6.661   4.788   1.578
36159SOL    HW110374   6.584   4.733   1.562
36159SOL    HW210375   6.664   4.797   1.674
36160SOL     OW10376   6.562   6.203   4.890
36160SOL    HW110377   6.619   6.263   4.938
36160SOL    HW210378   6.578   6.118   4.930
36161SOL     OW10379   2.310   2.240   9.325
36161SOL    HW110380   2.252   2.290   9.382
36161SOL    HW210381   2.271   2.249   9.238
36162SOL     OW10382   2.256  12.373  13.534
36162SOL    HW110383   2.251  12.291  13.485
36162SOL    HW210384   2.331  12.361  13.592
36163SOL     OW10385   1.263  12.043   4.500
36163SOL    HW110386   1.292  11.983   4.432
36163SOL    HW210387   1.169  12.052   4.485
36164SOL     OW10388   6.262  13.476   7.539
36164SOL    HW110389   6.281  13.473   7.445
36164SOL    HW210390   6.235  13.386   7.561
36165SOL     OW10391   8.001   2.955   5.573
36165SOL    HW110392   8.021   2.905   5.652
36165SOL    HW210393   7.908   2.942   5.559
36166SOL     OW10394   2.594   0.827  12.675
36166SOL    HW110395   2.570   0.833  12.767
36166SOL    HW210396   2.562   0.740  12.648
36167SOL     OW10397   6.066   3.346   2.825
36167SOL    HW110398   6.021   3.396   2.757
36167SOL    HW210399   6.154   3.382   2.827
36168SOL     OW10400  10.359   4.497  11.442
36168SOL    HW110401  10.307   4.527  11.367
36168SOL    HW210402  10.449   4.496  11.409
36169SOL     OW10403   2.139   3.940  14.223
36169SOL    HW110404   2.139   4.003  14.151
36169SOL    HW210405   2.217   3.886  14.208
36170SOL     OW10406  14.100  13.632   3.621
36170SOL    HW110407  14.147  13.573   3.562
36170SOL    HW210408  14.009  13.605   3.615
36171SOL     OW10409   2.780   8.786  14.582
36171SOL    HW110410   2.709   8.788  14.647
36171SOL    HW210411   2.798   8.878  14.563
36172SOL     OW10412   2.532   1.674   9.730
36172SOL    HW110413   2.574   1.629   9.804
36172SOL    HW210414   2.538   1.612   9.658
36173SOL     OW10415   6.990   7.895  12.474
36173SOL    HW110416   6.960   7.843  12.399
36173SOL    HW210417   7.072   7.854  12.501
36174SOL     OW10418   8.590   1.725   1.749
36174SOL    HW110419   8.620   1.811   1.719
36174SOL    HW210420   8.619   1.665   1.680
36175SOL     OW10421  10.277   9.023  12.550
36175SOL    HW110422  10.186   9.002  12.570
36175SOL    HW210423  10.273   9.110  12.509
36176SOL     OW10424  10.958   1.785   0.809
36176SOL    HW110425  11.035   1.800   0.864
36176SOL    HW210426  10.925   1.873   0.790
36177SOL     OW10427   7.896   4.619  10.749
36177SOL    HW110428   7.924   4.533  10.780
36177SOL    HW210429   7.972   4.654  10.702
36178SOL     OW10430   4.633  13.033  10.933
36178SOL    HW110431   4.709  13.077  10.898
36178SOL    HW210432   4.563  13.051  10.870
36179SOL     OW10433   6.623   9.555  12.495
36179SOL    HW110434   6.641   9.636  12.447
36179SOL    HW210435   6.555   9.512  12.444
36180SOL     OW10436   6.707   9.820   6.174
36180SOL    HW110437   6.641   9.882   6.141
36180SOL    HW210438   6.748   9.786   6.095
36181SOL     OW10439  10.536   2.451  13.628
36181SOL    HW110440  10.472   2.396  13.675
36181SOL    HW210441  10.533   2.535  13.673
36182SOL     OW10442   8.707  11.380   7.049
36182SOL    HW110443   8.628  11.429   7.026
36182SOL    HW210444   8.775  11.447   7.059
36183SOL     OW10445   3.995   2.187  11.332
36183SOL    HW110446   4.015   2.195  11.425
36183SOL    HW210447   3.909   2.145  11.330
36184SOL     OW10448   8.193  14.087  14.433
36184SOL    HW110449   8.152  14.171  14.411
36184SOL    HW210450   8.265  14.109  14.492
36185SOL     OW10451   4.995   9.987   0.121
36185SOL    HW110452   5.059  10.007   0.189
36185SOL    HW210453   4.987   9.892   0.123
36186SOL     OW10454   3.323   8.040   8.420
36186SOL    HW110455   3.294   8.045   8.329
36186SOL    HW210456   3.306   7.949   8.446
36187SOL     OW10457   1.854  10.631   6.831
36187SOL    HW110458   1.909  10.694   6.878
36187SOL    HW210459   1.780  10.615   6.890
36188SOL     OW10460   5.683   6.222  14.363
36188SOL    HW110461   5.629   6.244  14.439
36188SOL    HW210462   5.772   6.241  14.390
36189SOL     OW10463  13.972  11.763   9.618
36189SOL    HW110464  14.064  11.736   9.616
36189SOL    HW210465  13.923  11.682   9.606
36190SOL     OW10466   4.292   1.213   9.232
36190SOL    HW110467   4.237   1.229   9.156
36190SOL    HW210468   4.262   1.128   9.265
36191SOL     OW10469   9.785   2.040  12.518
36191SOL    HW110470   9.816   2.073  12.603
36191SOL    HW210471   9.817   2.103  12.455
36192SOL     OW10472  14.196   3.141   5.521
36192SOL    HW110473  14.102   3.128   5.535
36192SOL    HW210474  14.234   3.136   5.609
36193SOL     OW10475   0.637   4.553   7.926
36193SOL    HW110476   0.602   4.642   7.915
36193SOL    HW210477   0.596   4.522   8.006
36194SOL     OW10478   9.836   1.909   7.139
36194SOL    HW110479   9.838   1.829   7.191
36194SOL    HW210480   9.872   1.976   7.197
36195SOL     OW10481  11.008   7.555   7.105
36195SOL    HW110482  11.089   7.579   7.060
36195SOL    HW210483  11.014   7.599   7.190
36196SOL     OW10484  10.994   4.833   0.267
36196SOL    HW110485  11.022   4.920   0.295
36196SOL    HW210486  10.998   4.779   0.346
36197SOL     OW10487   8.353   8.074   8.295
36197SOL    HW110488   8.436   8.081   8.341
36197SOL    HW210489   8.287   8.098   8.361
36198SOL     OW10490  11.810  12.629   4.057
36198SOL    HW110491  11.769  12.644   4.142
36198SOL    HW210492  11.883  12.692   4.054
36199SOL     OW10493  11.067   2.743   5.818
36199SOL    HW110494  11.009   2.819   5.821
36199SOL    HW210495  11.135   2.762   5.883
36200SOL     OW10496   3.553   2.083   1.619
36200SOL    HW110497   3.632   2.048   1.578
36200SOL    HW210498   3.586   2.132   1.695
36201SOL     OW10499  12.183   3.316   4.438
36201SOL    HW110500  12.192   3.283   4.527
36201SOL    HW210501  12.214   3.406   4.442
36202SOL     OW10502  14.423  11.109   6.436
36202SOL    HW110503  14.497  11.160   6.404
36202SOL    HW210504  14.459  11.021   6.449
36203SOL     OW10505   0.172   3.472   3.200
36203SOL    HW110506   0.242   3.486   3.264
36203SOL    HW210507   0.102   3.530   3.228
36204SOL     OW10508   2.880   4.098   8.192
36204SOL    HW110509   2.789   4.120   8.213
36204SOL    HW210510   2.886   4.004   8.212
36205SOL     OW10511   5.437   3.580   8.479
36205SOL    HW110512   5.494   3.656   8.485
36205SOL    HW210513   5.349   3.616   8.489
36206SOL     OW10514   9.183   6.761   8.176
36206SOL    HW110515   9.126   6.809   8.116
36206SOL    HW210516   9.124   6.732   8.246
36207SOL     OW10517   3.196   7.630  12.444
36207SOL    HW110518   3.261   7.576  12.399
36207SOL    HW210519   3.116   7.577  12.442
36208SOL     OW10520   7.926  13.363   6.225
36208SOL    HW110521   7.939  13.391   6.135
36208SOL    HW210522   7.854  13.299   6.221
36209SOL     OW10523   1.266   4.869   2.023
36209SOL    HW110524   1.201   4.918   2.074
36209SOL    HW210525   1.349   4.887   2.068
36210SOL     OW10526  14.345   8.199   9.497
36210SOL    HW110527  14.379   8.288   9.489
36210SOL    HW210528  14.411   8.144   9.455
36211SOL     OW10529   6.635  14.106   7.989
36211SOL    HW110530   6.574  14.130   8.058
36211SOL    HW210531   6.586  14.121   7.908
36212SOL     OW10532  14.153  11.735   9.032
36212SOL    HW110533  14.188  11.748   9.120
36212SOL    HW210534  14.080  11.674   9.044
36213SOL     OW10535   2.509   4.172  10.690
36213SOL    HW110536   2.536   4.245  10.636
36213SOL    HW210537   2.579   4.162  10.755
36214SOL     OW10538   5.097  11.061  11.962
36214SOL    HW110539   5.073  11.110  12.040
36214SOL    HW210540   5.020  11.067  11.905
36215SOL     OW10541   6.888  12.730   4.486
36215SOL    HW110542   6.895  12.666   4.557
36215SOL    HW210543   6.933  12.688   4.412
36216SOL     OW10544   1.492   7.853  10.166
36216SOL    HW110545   1.463   7.814  10.083
36216SOL    HW210546   1.516   7.943  10.143
36217SOL     OW10547  10.048   2.842   1.008
36217SOL    HW110548  10.061   2.867   0.917
36217SOL    HW210549   9.993   2.763   1.004
36218SOL     OW10550   2.663   9.068   7.299
36218SOL    HW110551   2.729   9.129   7.266
36218SOL    HW210552   2.682   9.059   7.392
36219SOL     OW10553   1.618   2.104   2.481
36219SOL    HW110554   1.600   2.150   2.399
36219SOL    HW210555   1.572   2.156   2.547
36220SOL     OW10556  14.007   2.556   4.997
36220SOL    HW110557  14.042   2.507   4.922
36220SOL    HW210558  13.914   2.565   4.978
36221SOL     OW10559   8.029  11.828  14.462
36221SOL    HW110560   8.094  11.764  14.431
36221SOL    HW210561   8.011  11.882  14.385
36222SOL     OW10562  11.077   5.404  10.572
36222SOL    HW110563  11.063   5.341  10.643
36222SOL    HW210564  11.121   5.354  10.503
36223SOL     OW10565  11.608  12.588  13.204
36223SOL    HW110566  11.560  12.506  13.202
36223SOL    HW210567  11.663  12.582  13.282
36224SOL     OW10568   2.030  13.899  14.527
36224SOL    HW110569   2.005  13.807  14.524
36224SOL    HW210570   2.094  13.904  14.598
36225SOL     OW10571   9.086   0.933   5.735
36225SOL    HW110572   9.030   0.986   5.678
36225SOL    HW210573   9.083   0.978   5.819
36226SOL     OW10574   8.555   5.324   3.616
36226SOL    HW110575   8.570   5.255   3.551
36226SOL    HW210576   8.566   5.406   3.567
36227SOL     OW10577   4.007   2.088   6.682
36227SOL    HW110578   3.968   2.164   6.724
36227SOL    HW210579   4.099   2.089   6.709
36228SOL     OW10580   1.376   0.454   1.413
36228SOL    HW110581   1.401   0.537   1.373
36228SOL    HW210582   1.356   0.397   1.338
36229SOL     OW10583   3.898   4.619  10.822
36229SOL    HW110584   3.807   4.633  10.847
36229SOL    HW210585   3.916   4.688  10.759
36230SOL     OW10586   0.344   7.356  11.803
36230SOL    HW110587   0.304   7.282  11.758
36230SOL    HW210588   0.411   7.387  11.742
36231SOL     OW10589  11.910   4.069  10.110
36231SOL    HW110590  11.866   3.985  10.095
36231SOL    HW210591  11.849   4.135  10.076
36232SOL     OW10592  13.908   1.640   7.081
36232SOL    HW110593  13.901   1.556   7.126
36232SOL    HW210594  13.821   1.679   7.091
36233SOL     OW10595   6.996   6.721   4.807
36233SOL    HW110596   7.091   6.728   4.799
36233SOL    HW210597   6.983   6.672   4.889
36234SOL     OW10598  14.204  13.598   7.587
36234SOL    HW110599  14.278  13.581   7.529
36234SOL    HW210600  14.240  13.656   7.655
36235SOL     OW10601   0.177  10.400   6.075
36235SOL    HW110602   0.177  10.438   6.163
36235SOL    HW210603   0.253  10.440   6.032
36236SOL     OW10604   2.895   1.920   2.789
36236SOL    HW110605   2.915   2.010   2.766
36236SOL    HW210606   2.901   1.872   2.706
36237SOL     OW10607  12.718  14.095   4.972
36237SOL    HW110608  12.692  14.167   4.915
36237SOL    HW210609  12.636  14.063   5.010
36238SOL     OW10610   5.110   4.790   0.795
36238SOL    HW110611   5.032   4.736   0.809
36238SOL    HW210612   5.171   4.733   0.748
36239SOL     OW10613   9.937   2.762   2.449
36239SOL    HW110614   9.968   2.832   2.507
36239SOL    HW210615   9.999   2.764   2.376
36240SOL     OW10616   3.239   0.286  11.424
36240SOL    HW110617   3.244   0.317  11.515
36240SOL    HW210618   3.195   0.201  11.429
36241SOL     OW10619   8.508   1.215   5.197
36241SOL    HW110620   8.431   1.210   5.141
36241SOL    HW210621   8.579   1.178   5.144
36242SOL     OW10622   9.159   1.786  14.626
36242SOL    HW110623   9.154   1.874  14.589
36242SOL    HW210624   9.250   1.777  14.653
36243SOL     OW10625   0.784   4.040   3.265
36243SOL    HW110626   0.791   3.985   3.187
36243SOL    HW210627   0.786   4.130   3.230
36244SOL     OW10628   5.752   7.049   4.865
36244SOL    HW110629   5.680   6.989   4.851
36244SOL    HW210630   5.714   7.136   4.853
36245SOL     OW10631   7.354  11.453   8.347
36245SOL    HW110632   7.388  11.455   8.436
36245SOL    HW210633   7.427  11.485   8.293
36246SOL     OW10634  11.209   2.166   3.122
36246SOL    HW110635  11.268   2.148   3.195
36246SOL    HW210636  11.165   2.247   3.145
36247SOL     OW10637   9.131   0.584   1.636
36247SOL    HW110638   9.123   0.629   1.552
36247SOL    HW210639   9.054   0.527   1.640
36248SOL     OW10640   4.497   3.415   9.487
36248SOL    HW110641   4.516   3.344   9.425
36248SOL    HW210642   4.416   3.388   9.530
36249SOL     OW10643  13.106   8.312   8.585
36249SOL    HW110644  13.071   8.230   8.619
36249SOL    HW210645  13.165   8.343   8.654
36250SOL     OW10646   3.726   5.835   9.118
36250SOL    HW110647   3.797   5.893   9.092
36250SOL    HW210648   3.647   5.887   9.106
36251SOL     OW10649  12.922   5.110  14.326
36251SOL    HW110650  12.887   5.066  14.248
36251SOL    HW210651  12.882   5.197  14.325
36252SOL     OW10652  14.266   0.614   9.235
36252SOL    HW110653  14.277   0.527   9.273
36252SOL    HW210654  14.208   0.601   9.160
36253SOL     OW10655   1.821  11.812  10.255
36253SOL    HW110656   1.737  11.846  10.287
36253SOL    HW210657   1.809  11.717  10.255
36254SOL     OW10658   9.688   6.304   4.096
36254SOL    HW110659   9.670   6.321   4.004
36254SOL    HW210660   9.777   6.268   4.097
36255SOL     OW10661   6.799  12.692   0.300
36255SOL    HW110662   6.753  12.724   0.378
36255SOL    HW210663   6.874  12.751   0.290
36256SOL     OW10664   5.866   9.857  13.236
36256SOL    HW110665   5.891   9.898  13.153
36256SOL    HW210666   5.904   9.769  13.232
36257SOL     OW10667   9.741   4.626  12.984
36257SOL    HW110668   9.698   4.711  12.991
36257SOL    HW210669   9.773   4.608  13.072
36258SOL     OW10670   5.805   5.593  14.857
36258SOL    HW110671   5.827   5.685  14.875
36258SOL    HW210672   5.885   5.545  14.879
36259SOL     OW10673  14.577  12.037   5.132
36259SOL    HW110674  14.535  11.996   5.056
36259SOL    HW210675  14.565  12.131   5.120
36260SOL     OW10676   1.387   1.594  12.831
36260SOL    HW110677   1.347   1.542  12.901
36260SOL    HW210678   1.481   1.582  12.844
36261SOL     OW10679  13.411  13.116   7.403
36261SOL    HW110680  13.478  13.088   7.340
36261SOL    HW210681  13.461  13.156   7.475
36262SOL     OW10682  14.178   8.108   5.219
36262SOL    HW110683  14.112   8.094   5.287
36262SOL    HW210684  14.196   8.202   5.221
36263SOL     OW10685   9.582  13.049   6.462
36263SOL    HW110686   9.521  13.057   6.535
36263SOL    HW210687   9.660  13.095   6.491
36264SOL     OW10688  11.468   8.588   1.287
36264SOL    HW110689  11.440   8.678   1.269
36264SOL    HW210690  11.464   8.545   1.202
36265SOL     OW10691   1.324   5.815  14.355
36265SOL    HW110692   1.348   5.896  14.309
36265SOL    HW210693   1.228   5.819  14.363
36266SOL     OW10694  11.885  11.909   6.863
36266SOL    HW110695  11.860  11.821   6.891
36266SOL    HW210696  11.867  11.911   6.769
36267SOL     OW10697   5.603   3.619   5.515
36267SOL    HW110698   5.564   3.701   5.486
36267SOL    HW210699   5.534   3.554   5.502
36268SOL     OW10700   5.271   3.588   7.501
36268SOL    HW110701   5.267   3.494   7.519
36268SOL    HW210702   5.355   3.615   7.538
36269SOL     OW10703  13.833   3.615   8.962
36269SOL    HW110704  13.831   3.549   8.893
36269SOL    HW210705  13.769   3.583   9.027
36270SOL     OW10706   2.333   9.961  14.699
36270SOL    HW110707   2.299   9.991  14.615
36270SOL    HW210708   2.315  10.033  14.760
36271SOL     OW10709   9.378   9.005   3.204
36271SOL    HW110710   9.350   8.971   3.119
36271SOL    HW210711   9.473   9.016   3.194
36272SOL     OW10712  11.910   0.360   6.025
36272SOL    HW110713  11.846   0.290   6.042
36272SOL    HW210714  11.973   0.321   5.965
36273SOL     OW10715  10.747   5.256   1.297
36273SOL    HW110716  10.676   5.282   1.357
36273SOL    HW210717  10.798   5.192   1.347
36274SOL     OW10718  12.730   1.491   4.061
36274SOL    HW110719  12.710   1.572   4.108
36274SOL    HW210720  12.813   1.462   4.097
36275SOL     OW10721  10.583  10.897  13.739
36275SOL    HW110722  10.559  10.822  13.793
36275SOL    HW210723  10.630  10.860  13.664
36276SOL     OW10724   2.739   8.664  11.459
36276SOL    HW110725   2.802   8.648  11.529
36276SOL    HW210726   2.669   8.600  11.473
36277SOL     OW10727  12.307   6.855   6.567
36277SOL    HW110728  12.250   6.911   6.514
36277SOL    HW210729  12.296   6.767   6.531
36278SOL     OW10730   2.207  12.611  12.164
36278SOL    HW110731   2.185  12.704  12.157
36278SOL    HW210732   2.164  12.570  12.089
36279SOL     OW10733   7.375   6.466   1.303
36279SOL    HW110734   7.407   6.498   1.218
36279SOL    HW210735   7.438   6.398   1.328
36280SOL     OW10736   3.295  13.026   1.070
36280SOL    HW110737   3.324  12.936   1.086
36280SOL    HW210738   3.276  13.029   0.977
36281SOL     OW10739   6.409   7.013   7.791
36281SOL    HW110740   6.328   7.048   7.754
36281SOL    HW210741   6.442   7.082   7.848
36282SOL     OW10742  12.982   5.061  11.134
36282SOL    HW110743  13.000   5.153  11.152
36282SOL    HW210744  12.999   5.016  11.217
36283SOL     OW10745   0.217   7.346  12.329
36283SOL    HW110746   0.302   7.376  12.296
36283SOL    HW210747   0.209   7.256  12.297
36284SOL     OW10748   9.670  10.560  14.393
36284SOL    HW110749   9.746  10.505  14.373
36284SOL    HW210750   9.602  10.498  14.419
36285SOL     OW10751  13.866  13.411   6.090
36285SOL    HW110752  13.863  13.330   6.141
36285SOL    HW210753  13.956  13.443   6.100
36286SOL     OW10754   6.858  13.635   8.334
36286SOL    HW110755   6.916  13.564   8.361
36286SOL    HW210756   6.917  13.706   8.310
36287SOL     OW10757   0.603   9.742  12.512
36287SOL    HW110758   0.514   9.749  12.476
36287SOL    HW210759   0.603   9.801  12.587
36288SOL     OW10760  10.439  11.776  12.983
36288SOL    HW110761  10.507  11.709  12.982
36288SOL    HW210762  10.441  11.812  13.072
36289SOL     OW10763  10.674   0.202  13.109
36289SOL    HW110764  10.757   0.248  13.121
36289SOL    HW210765  10.618   0.236  13.179
36290SOL     OW10766   1.714   4.343   9.302
36290SOL    HW110767   1.744   4.424   9.260
36290SOL    HW210768   1.780   4.325   9.368
36291SOL     OW10769   2.368   1.196  10.922
36291SOL    HW110770   2.387   1.240  11.005
36291SOL    HW210771   2.443   1.140  10.907
36292SOL     OW10772  14.389  10.002  12.007
36292SOL    HW110773  14.484   9.989  12.012
36292SOL    HW210774  14.352   9.924  12.050
36293SOL     OW10775  10.422   9.843  11.652
36293SOL    HW110776  10.501   9.802  11.686
36293SOL    HW210777  10.424   9.825  11.558
36294SOL     OW10778   2.003  13.027  11.667
36294SOL    HW110779   1.996  13.028  11.763
36294SOL    HW210780   1.953  12.950  11.640
36295SOL     OW10781   4.637   4.933   4.149
36295SOL    HW110782   4.618   4.857   4.094
36295SOL    HW210783   4.564   4.939   4.210
36296SOL     OW10784   2.374   0.407   9.776
36296SOL    HW110785   2.376   0.429   9.683
36296SOL    HW210786   2.280   0.407   9.798
36297SOL     OW10787  14.230   8.255   5.981
36297SOL    HW110788  14.290   8.320   6.018
36297SOL    HW210789  14.267   8.234   5.896
36298SOL     OW10790   7.058   2.096   5.418
36298SOL    HW110791   7.009   2.178   5.415
36298SOL    HW210792   7.096   2.086   5.331
36299SOL     OW10793  14.715   5.483  12.751
36299SOL    HW110794  14.661   5.475  12.829
36299SOL    HW210795  14.782   5.415  12.760
36300SOL     OW10796   4.960   3.351   0.407
36300SOL    HW110797   5.051   3.363   0.436
36300SOL    HW210798   4.967   3.316   0.318
36301SOL     OW10799  12.034   1.168   1.159
36301SOL    HW110800  12.090   1.112   1.212
36301SOL    HW210801  11.945   1.151   1.191
36302SOL     OW10802   8.755   1.603  11.747
36302SOL    HW110803   8.846   1.632  11.747
36302SOL    HW210804   8.745   1.557  11.664
36303SOL     OW10805  10.495  13.015   1.542
36303SOL    HW110806  10.585  13.046   1.550
36303SOL    HW210807  10.456  13.072   1.476
36304SOL     OW10808   7.402  13.828   7.533
36304SOL    HW110809   7.466  13.812   7.602
36304SOL    HW210810   7.329  13.770   7.554
36305SOL     OW10811   0.956  14.439  14.508
36305SOL    HW110812   1.016  14.400  14.571
36305SOL    HW210813   0.936  14.369  14.446
36306SOL     OW10814   9.391  12.526   1.784
36306SOL    HW110815   9.365  12.593   1.720
36306SOL    HW210816   9.404  12.447   1.733
36307SOL     OW10817  12.978   9.432  13.323
36307SOL    HW110818  12.973   9.503  13.259
36307SOL    HW210819  12.909   9.370  13.296
36308SOL     OW10820   7.428   4.280  14.869
36308SOL    HW110821   7.493   4.344  14.841
36308SOL    HW210822   7.454   4.199  14.827
36309SOL     OW10823  14.127   0.210   7.056
36309SOL    HW110824  14.209   0.261   7.060
36309SOL    HW210825  14.062   0.267   7.099
36310SOL     OW10826   8.194  10.290  12.015
36310SOL    HW110827   8.258  10.271  12.084
36310SOL    HW210828   8.158  10.205  11.992
36311SOL     OW10829  10.705   3.440  14.133
36311SOL    HW110830  10.772   3.508  14.132
36311SOL    HW210831  10.729   3.383  14.060
36312SOL     OW10832  11.180   8.846   0.260
36312SOL    HW110833  11.159   8.900   0.184
36312SOL    HW210834  11.191   8.758   0.225
36313SOL     OW10835   2.446   4.636   1.665
36313SOL    HW110836   2.455   4.679   1.750
36313SOL    HW210837   2.535   4.632   1.630
36314SOL     OW10838   5.995   7.480   3.708
36314SOL    HW110839   5.994   7.508   3.799
36314SOL    HW210840   6.070   7.420   3.702
36315SOL     OW10841  14.822  14.240  10.757
36315SOL    HW110842  14.735  14.269  10.730
36315SOL    HW210843  14.860  14.199  10.679
36316SOL     OW10844   8.894  14.827   6.055
36316SOL    HW110845   8.905  14.834   5.960
36316SOL    HW210846   8.968  14.876   6.091
36317SOL     OW10847  12.069   7.139   5.995
36317SOL    HW110848  12.141   7.102   5.944
36317SOL    HW210849  12.012   7.180   5.929
36318SOL     OW10850  14.612   6.655   3.304
36318SOL    HW110851  14.663   6.666   3.224
36318SOL    HW210852  14.520   6.658   3.275
36319SOL     OW10853   1.384   8.254  13.080
36319SOL    HW110854   1.348   8.315  13.144
36319SOL    HW210855   1.455   8.210  13.126
36320SOL     OW10856   8.534   5.060   7.042
36320SOL    HW110857   8.502   5.016   7.121
36320SOL    HW210858   8.497   5.148   7.046
36321SOL     OW10859   0.525   9.553   7.413
36321SOL    HW110860   0.495   9.641   7.390
36321SOL    HW210861   0.470   9.527   7.487
36322SOL     OW10862   0.809   8.740   8.387
36322SOL    HW110863   0.730   8.780   8.352
36322SOL    HW210864   0.875   8.752   8.318
36323SOL     OW10865  14.120   5.906  12.263
36323SOL    HW110866  14.095   5.886  12.353
36323SOL    HW210867  14.070   5.985  12.242
36324SOL     OW10868   7.530   9.101   5.233
36324SOL    HW110869   7.447   9.056   5.250
36324SOL    HW210870   7.593   9.030   5.218
36325SOL     OW10871  10.242   1.046   9.038
36325SOL    HW110872  10.264   1.103   9.111
36325SOL    HW210873  10.191   0.975   9.077
36326SOL     OW10874   0.213   8.438  13.763
36326SOL    HW110875   0.245   8.421  13.675
36326SOL    HW210876   0.204   8.533  13.768
36327SOL     OW10877   5.070  10.450   6.292
36327SOL    HW110878   5.054  10.470   6.200
36327SOL    HW210879   5.062  10.355   6.298
36328SOL     OW10880   0.838   5.739   4.965
36328SOL    HW110881   0.766   5.703   4.913
36328SOL    HW210882   0.795   5.797   5.027
36329SOL     OW10883  11.899   9.702   7.468
36329SOL    HW110884  11.861   9.723   7.383
36329SOL    HW210885  11.945   9.619   7.453
36330SOL     OW10886   5.899   1.369   6.983
36330SOL    HW110887   5.876   1.332   7.068
36330SOL    HW210888   5.980   1.322   6.958
36331SOL     OW10889   0.955   2.519  13.569
36331SOL    HW110890   0.974   2.523  13.663
36331SOL    HW210891   0.860   2.512  13.564
36332SOL     OW10892   6.492   7.283   4.280
36332SOL    HW110893   6.494   7.194   4.314
36332SOL    HW210894   6.565   7.287   4.218
36333SOL     OW10895   1.480   6.803   3.479
36333SOL    HW110896   1.446   6.887   3.509
36333SOL    HW210897   1.511   6.759   3.558
36334SOL     OW10898   6.966  12.658   6.293
36334SOL    HW110899   7.005  12.621   6.214
36334SOL    HW210900   6.897  12.596   6.318
36335SOL     OW10901   8.936  14.811   6.760
36335SOL    HW110902   8.895  14.762   6.831
36335SOL    HW210903   8.999  14.868   6.803
36336SOL     OW10904   1.544   2.334  12.420
36336SOL    HW110905   1.599   2.256  12.415
36336SOL    HW210906   1.463   2.305  12.462
36337SOL     OW10907  14.496   8.709  14.236
36337SOL    HW110908  14.532   8.640  14.291
36337SOL    HW210909  14.571   8.765  14.216
36338SOL     OW10910   9.545  11.464   6.200
36338SOL    HW110911   9.491  11.410   6.142
36338SOL    HW210912   9.635  11.445   6.172
36339SOL     OW10913   5.811  13.681  10.594
36339SOL    HW110914   5.844  13.593  10.611
36339SOL    HW210915   5.828  13.696  10.501
36340SOL     OW10916   4.535   5.747   6.123
36340SOL    HW110917   4.480   5.742   6.200
36340SOL    HW210918   4.621   5.716   6.153
36341SOL     OW10919   4.302   7.790   6.798
36341SOL    HW110920   4.323   7.846   6.723
36341SOL    HW210921   4.257   7.849   6.859
36342SOL     OW10922   2.291  13.971   2.240
36342SOL    HW110923   2.247  13.894   2.275
36342SOL    HW210924   2.356  13.993   2.307
36343SOL     OW10925  11.242   2.371   5.910
36343SOL    HW110926  11.167   2.389   5.854
36343SOL    HW210927  11.212   2.303   5.970
36344SOL     OW10928  13.438   1.187   7.052
36344SOL    HW110929  13.411   1.224   7.136
36344SOL    HW210930  13.394   1.102   7.047
36345SOL     OW10931  13.060   8.186  10.836
36345SOL    HW110932  13.016   8.108  10.802
36345SOL    HW210933  12.989   8.249  10.850
36346SOL     OW10934  14.088   1.652   6.663
36346SOL    HW110935  14.042   1.728   6.627
36346SOL    HW210936  14.019   1.589   6.683
36347SOL     OW10937  11.127   7.093   4.453
36347SOL    HW110938  11.088   7.155   4.514
36347SOL    HW210939  11.213   7.073   4.490
36348SOL     OW10940   7.396  14.536   1.608
36348SOL    HW110941   7.458  14.565   1.541
36348SOL    HW210942   7.314  14.522   1.559
36349SOL     OW10943  14.709   4.711  10.663
36349SOL    HW110944  14.719   4.805  10.681
36349SOL    HW210945  14.686   4.673  10.747
36350SOL     OW10946  14.828  11.291  13.324
36350SOL    HW110947  14.831  11.337  13.407
36350SOL    HW210948   0.010  11.221  13.333
36351SOL     OW10949   0.097   7.700  12.470
36351SOL    HW110950   0.019   7.726  12.519
36351SOL    HW210951   0.065   7.638  12.404
36352SOL     OW10952   3.599   8.394   3.944
36352SOL    HW110953   3.677   8.440   3.976
36352SOL    HW210954   3.536   8.464   3.927
36353SOL     OW10955   9.072  11.694   1.486
36353SOL    HW110956   9.142  11.682   1.422
36353SOL    HW210957   9.110  11.665   1.569
36354SOL     OW10958  12.213  10.741  10.773
36354SOL    HW110959  12.305  10.747  10.799
36354SOL    HW210960  12.183  10.832  10.773
36355SOL     OW10961  12.064  10.586   2.879
36355SOL    HW110962  12.004  10.637   2.934
36355SOL    HW210963  12.008  10.553   2.809
36356SOL     OW10964  11.530   8.251  12.101
36356SOL    HW110965  11.451   8.257  12.048
36356SOL    HW210966  11.499   8.232  12.190
36357SOL     OW10967   1.480   0.223   2.256
36357SOL    HW110968   1.547   0.185   2.200
36357SOL    HW210969   1.409   0.246   2.197
36358SOL     OW10970  11.456  12.126   8.903
36358SOL    HW110971  11.523  12.123   8.972
36358SOL    HW210972  11.439  12.220   8.891
36359SOL     OW10973  13.138   1.267   4.009
36359SOL    HW110974  13.208   1.332   4.008
36359SOL    HW210975  13.181   1.186   4.035
36360SOL     OW10976   5.748   0.873  14.184
36360SOL    HW110977   5.737   0.867  14.089
36360SOL    HW210978   5.834   0.914  14.195
36361SOL     OW10979   1.265   5.585   3.909
36361SOL    HW110980   1.287   5.524   3.838
36361SOL    HW210981   1.221   5.657   3.865
36362SOL     OW10982   1.872   6.395   1.408
36362SOL    HW110983   1.904   6.480   1.439
36362SOL    HW210984   1.935   6.370   1.340
36363SOL     OW10985   6.357   0.926   7.765
36363SOL    HW110986   6.407   0.929   7.683
36363SOL    HW210987   6.412   0.972   7.828
36364SOL     OW10988   7.664   6.221   8.004
36364SOL    HW110989   7.576   6.191   8.026
36364SOL    HW210990   7.722   6.152   8.035
36365SOL     OW10991  14.187   7.542  12.990
36365SOL    HW110992  14.183   7.466  12.932
36365SOL    HW210993  14.157   7.615  12.937
36366SOL     OW10994   9.404   3.556   6.242
36366SOL    HW110995   9.401   3.650   6.257
36366SOL    HW210996   9.416   3.518   6.329
36367SOL     OW10997   5.343   9.973   3.075
36367SOL    HW110998   5.330   9.885   3.040
36367SOL    HW210999   5.376   9.959   3.164
36368SOL     OW11000   5.103   3.092   4.805
36368SOL    HW111001   5.164   3.057   4.740
36368SOL    HW211002   5.045   3.149   4.755
36369SOL     OW11003   3.721  13.443   5.255
36369SOL    HW111004   3.788  13.471   5.194
36369SOL    HW211005   3.743  13.487   5.337
36370SOL     OW11006   4.172   7.722   7.226
36370SOL    HW111007   4.255   7.750   7.187
36370SOL    HW211008   4.183   7.736   7.320
36371SOL     OW11009  13.835   1.171   4.645
36371SOL    HW111010  13.772   1.159   4.575
36371SOL    HW211011  13.786   1.213   4.715
36372SOL     OW11012   5.444   7.990  12.497
36372SOL    HW111013   5.484   8.018  12.415
36372SOL    HW211014   5.516   7.950  12.546
36373SOL     OW11015   2.149   6.069   3.940
36373SOL    HW111016   2.237   6.066   3.903
36373SOL    HW211017   2.111   5.984   3.917
36374SOL     OW11018   7.347   1.748   2.342
36374SOL    HW111019   7.394   1.776   2.420
36374SOL    HW211020   7.304   1.666   2.368
36375SOL     OW11021   2.590   7.109   2.177
36375SOL    HW111022   2.494   7.110   2.170
36375SOL    HW211023   2.607   7.089   2.269
36376SOL     OW11024  13.447  12.524  10.099
36376SOL    HW111025  13.509  12.593  10.124
36376SOL    HW211026  13.419  12.486  10.183
36377SOL     OW11027  14.858  13.809   3.647
36377SOL    HW111028  14.843  13.878   3.712
36377SOL    HW211029  14.771  13.794   3.609
36378SOL     OW11030  13.692   6.261  10.741
36378SOL    HW111031  13.647   6.191  10.695
36378SOL    HW211032  13.636   6.338  10.731
36379SOL     OW11033   5.683  12.877   6.178
36379SOL    HW111034   5.743  12.914   6.243
36379SOL    HW211035   5.702  12.927   6.098
36380SOL     OW11036   9.542  11.435   9.943
36380SOL    HW111037   9.532  11.427  10.038
36380SOL    HW211038   9.512  11.523   9.923
36381SOL     OW11039   7.446   6.709   8.302
36381SOL    HW111040   7.407   6.788   8.263
36381SOL    HW211041   7.403   6.636   8.258
36382SOL     OW11042   2.356  11.545   3.370
36382SOL    HW111043   2.271  11.583   3.345
36382SOL    HW211044   2.417  11.618   3.364
36383SOL     OW11045   4.058   2.208   1.047
36383SOL    HW111046   3.999   2.238   1.116
36383SOL    HW211047   4.143   2.199   1.091
36384SOL     OW11048  14.111   9.468   5.259
36384SOL    HW111049  14.154   9.386   5.233
36384SOL    HW211050  14.071   9.500   5.178
36385SOL     OW11051   1.469   1.186   0.309
36385SOL    HW111052   1.538   1.194   0.374
36385SOL    HW211053   1.401   1.135   0.352
36386SOL     OW11054  11.765  13.812   6.888
36386SOL    HW111055  11.837  13.801   6.826
36386SOL    HW211056  11.719  13.890   6.860
36387SOL     OW11057   6.278  11.133   5.432
36387SOL    HW111058   6.300  11.195   5.362
36387SOL    HW211059   6.302  11.048   5.396
36388SOL     OW11060   7.195   1.880  11.434
36388SOL    HW111061   7.150   1.838  11.508
36388SOL    HW211062   7.125   1.923  11.385
36389SOL     OW11063   9.755   1.917   0.354
36389SOL    HW111064   9.678   1.953   0.309
36389SOL    HW211065   9.796   1.860   0.289
36390SOL     OW11066   5.088   2.622   9.403
36390SOL    HW111067   5.070   2.557   9.470
36390SOL    HW211068   5.022   2.605   9.335
36391SOL     OW11069   4.306   0.668   6.526
36391SOL    HW111070   4.361   0.725   6.471
36391SOL    HW211071   4.289   0.592   6.471
36392SOL     OW11072   5.839   6.009   3.442
36392SOL    HW111073   5.857   6.004   3.348
36392SOL    HW211074   5.820   6.101   3.458
36393SOL     OW11075   2.342   4.407  10.413
36393SOL    HW111076   2.324   4.324  10.370
36393SOL    HW211077   2.425   4.392  10.459
36394SOL     OW11078   5.655   5.593   7.089
36394SOL    HW111079   5.705   5.632   7.160
36394SOL    HW211080   5.668   5.498   7.100
36395SOL     OW11081   8.307   3.043  12.605
36395SOL    HW111082   8.293   3.135  12.580
36395SOL    HW211083   8.232   2.997  12.570
36396SOL     OW11084  14.308   6.606   9.214
36396SOL    HW111085  14.234   6.666   9.221
36396SOL    HW211086  14.382   6.662   9.194
36397SOL     OW11087   0.643  13.018   2.612
36397SOL    HW111088   0.560  13.030   2.656
36397SOL    HW211089   0.687  13.103   2.618
36398SOL     OW11090  14.138   5.157  13.134
36398SOL    HW111091  14.078   5.221  13.173
36398SOL    HW211092  14.084   5.079  13.121
36399SOL     OW11093   7.659  11.582  14.364
36399SOL    HW111094   7.666  11.486  14.369
36399SOL    HW211095   7.573  11.602  14.399
36400SOL     OW11096  10.180   2.470   9.880
36400SOL    HW111097  10.248   2.531   9.906
36400SOL    HW211098  10.108   2.486   9.941
36401SOL     OW11099   0.985   3.011  14.855
36401SOL    HW111100   1.007   3.091  14.807
36401SOL    HW211101   1.057   2.951  14.836
36402SOL     OW11102  11.519   9.131   7.077
36402SOL    HW111103  11.487   9.120   7.167
36402SOL    HW211104  11.599   9.183   7.086
36403SOL     OW11105   2.853  10.933  11.347
36403SOL    HW111106   2.842  10.909  11.439
36403SOL    HW211107   2.799  10.870  11.299
36404SOL     OW11108   0.076  10.222  10.880
36404SOL    HW111109   0.042  10.169  10.808
36404SOL    HW211110   0.170  10.223  10.867
36405SOL     OW11111   4.150   9.830   7.427
36405SOL    HW111112   4.157   9.767   7.499
36405SOL    HW211113   4.064   9.869   7.438
36406SOL     OW11114   1.429   0.117  14.500
36406SOL    HW111115   1.521   0.112  14.475
36406SOL    HW211116   1.430   0.148  14.590
36407SOL     OW11117   3.921   9.747   4.161
36407SOL    HW111118   3.851   9.804   4.195
36407SOL    HW211119   3.879   9.662   4.149
36408SOL     OW11120  10.756   1.189   2.777
36408SOL    HW111121  10.725   1.112   2.730
36408SOL    HW211122  10.841   1.210   2.737
36409SOL     OW11123   1.713  13.287   6.513
36409SOL    HW111124   1.733  13.202   6.552
36409SOL    HW211125   1.618  13.285   6.501
36410SOL     OW11126   5.116   3.703   9.467
36410SOL    HW111127   5.130   3.737   9.379
36410SOL    HW211128   5.043   3.641   9.458
36411SOL     OW11129   7.936   8.160  12.463
36411SOL    HW111130   7.873   8.230  12.447
36411SOL    HW211131   7.959   8.168  12.555
36412SOL     OW11132  11.263   1.617   1.651
36412SOL    HW111133  11.335   1.630   1.712
36412SOL    HW211134  11.191   1.669   1.687
36413SOL     OW11135   7.072   1.091  13.295
36413SOL    HW111136   7.029   1.174  13.314
36413SOL    HW211137   7.014   1.048  13.232
36414SOL     OW11138   8.770   3.214  14.777
36414SOL    HW111139   8.698   3.240  14.720
36414SOL    HW211140   8.815   3.296  14.797
36415SOL     OW11141  13.909  13.215   7.548
36415SOL    HW111142  13.942  13.268   7.621
36415SOL    HW211143  13.848  13.272   7.502
36416SOL     OW11144  10.491   7.707   5.479
36416SOL    HW111145  10.482   7.775   5.546
36416SOL    HW211146  10.477   7.754   5.396
36417SOL     OW11147   5.874   8.874   9.546
36417SOL    HW111148   5.900   8.836   9.630
36417SOL    HW211149   5.805   8.936   9.569
36418SOL     OW11150  13.242  11.293  11.646
36418SOL    HW111151  13.231  11.291  11.741
36418SOL    HW211152  13.180  11.359  11.615
36419SOL     OW11153   1.969   3.317   9.430
36419SOL    HW111154   1.984   3.283   9.519
36419SOL    HW211155   1.944   3.408   9.443
36420SOL     OW11156   8.217   0.055   3.806
36420SOL    HW111157   8.174   0.140   3.798
36420SOL    HW211158   8.310   0.075   3.811
36421SOL     OW11159   1.524   1.305   8.734
36421SOL    HW111160   1.587   1.368   8.699
36421SOL    HW211161   1.579   1.236   8.773
36422SOL     OW11162  10.284  14.029  14.491
36422SOL    HW111163  10.261  14.117  14.460
36422SOL    HW211164  10.379  14.030  14.497
36423SOL     OW11165   7.973   8.402   5.506
36423SOL    HW111166   7.956   8.487   5.545
36423SOL    HW211167   7.931   8.340   5.566
36424SOL     OW11168  10.088  13.962   6.704
36424SOL    HW111169   9.994  13.977   6.699
36424SOL    HW211170  10.127  14.050   6.704
36425SOL     OW11171  11.452   1.674   7.434
36425SOL    HW111172  11.447   1.743   7.500
36425SOL    HW211173  11.504   1.605   7.476
36426SOL     OW11174   4.943  11.716  13.098
36426SOL    HW111175   4.898  11.780  13.153
36426SOL    HW211176   5.021  11.763  13.066
36427SOL     OW11177   9.720  10.919   7.389
36427SOL    HW111178   9.693  11.011   7.381
36427SOL    HW211179   9.739  10.907   7.482
36428SOL     OW11180   0.422  10.479   4.349
36428SOL    HW111181   0.397  10.569   4.368
36428SOL    HW211182   0.367  10.426   4.407
36429SOL     OW11183  14.349   7.211   3.374
36429SOL    HW111184  14.386   7.254   3.451
36429SOL    HW211185  14.279   7.270   3.345
36430SOL     OW11186   1.398   2.166   9.994
36430SOL    HW111187   1.406   2.213  10.077
36430SOL    HW211188   1.405   2.233   9.926
36431SOL     OW11189  14.425   8.554   7.416
36431SOL    HW111190  14.487   8.524   7.349
36431SOL    HW211191  14.381   8.474   7.446
36432SOL     OW11192   1.611  10.445  11.393
36432SOL    HW111193   1.609  10.352  11.418
36432SOL    HW211194   1.519  10.471  11.390
36433SOL     OW11195  11.276   7.270   2.036
36433SOL    HW111196  11.199   7.286   1.981
36433SOL    HW211197  11.255   7.315   2.119
36434SOL     OW11198   4.375   7.293   4.136
36434SOL    HW111199   4.399   7.359   4.070
36434SOL    HW211200   4.458   7.261   4.170
36435SOL     OW11201  10.272   2.220  10.118
36435SOL    HW111202  10.219   2.294  10.147
36435SOL    HW211203  10.257   2.152  10.184
36436SOL     OW11204   4.134   8.572   9.304
36436SOL    HW111205   4.117   8.480   9.323
36436SOL    HW211206   4.049   8.615   9.316
36437SOL     OW11207   7.910   1.709   4.978
36437SOL    HW111208   7.932   1.666   4.895
36437SOL    HW211209   7.994   1.733   5.015
36438SOL     OW11210   9.116  13.734   6.628
36438SOL    HW111211   9.210  13.753   6.632
36438SOL    HW211212   9.088  13.770   6.544
36439SOL     OW11213  10.197   7.726   8.639
36439SOL    HW111214  10.207   7.637   8.673
36439SOL    HW211215  10.110   7.726   8.599
36440SOL     OW11216   6.866   8.196  14.032
36440SOL    HW111217   6.812   8.258  13.983
36440SOL    HW211218   6.894   8.131  13.967
36441SOL     OW11219   0.641   8.157   0.364
36441SOL    HW111220   0.715   8.194   0.413
36441SOL    HW211221   0.587   8.233   0.343
36442SOL     OW11222   7.782  12.589   3.251
36442SOL    HW111223   7.863  12.540   3.265
36442SOL    HW211224   7.797  12.674   3.292
36443SOL     OW11225  10.884  13.433   6.301
36443SOL    HW111226  10.812  13.473   6.251
36443SOL    HW211227  10.924  13.371   6.240
36444SOL     OW11228   7.645  14.211   0.991
36444SOL    HW111229   7.579  14.157   1.035
36444SOL    HW211230   7.721  14.208   1.048
36445SOL     OW11231  11.654   0.895   9.483
36445SOL    HW111232  11.593   0.969   9.478
36445SOL    HW211233  11.719   0.923   9.547
36446SOL     OW11234   1.892   8.087   3.365
36446SOL    HW111235   1.917   8.170   3.324
36446SOL    HW211236   1.887   8.025   3.292
36447SOL     OW11237   3.505   1.803   0.151
36447SOL    HW111238   3.543   1.815   0.238
36447SOL    HW211239   3.574   1.761   0.100
36448SOL     OW11240   0.405   8.950   1.489
36448SOL    HW111241   0.336   8.903   1.442
36448SOL    HW211242   0.479   8.890   1.489
36449SOL     OW11243  12.139  11.684   9.715
36449SOL    HW111244  12.140  11.767   9.666
36449SOL    HW211245  12.100  11.621   9.655
36450SOL     OW11246  14.270  14.538  12.881
36450SOL    HW111247  14.360  14.533  12.914
36450SOL    HW211248  14.215  14.529  12.959
36451SOL     OW11249   4.006   4.206   0.084
36451SOL    HW111250   3.965   4.287   0.113
36451SOL    HW211251   4.099   4.218   0.102
36452SOL     OW11252   9.864  12.328   1.225
36452SOL    HW111253   9.863  12.404   1.283
36452SOL    HW211254   9.925  12.352   1.155
36453SOL     OW11255   5.002  10.818  12.989
36453SOL    HW111256   5.078  10.874  12.972
36453SOL    HW211257   5.034  10.729  12.971
36454SOL     OW11258   3.304   1.312   7.599
36454SOL    HW111259   3.280   1.303   7.506
36454SOL    HW211260   3.318   1.406   7.611
36455SOL     OW11261  12.782   3.187   1.434
36455SOL    HW111262  12.794   3.128   1.361
36455SOL    HW211263  12.789   3.275   1.396
36456SOL     OW11264  12.281   3.603   9.855
36456SOL    HW111265  12.304   3.644   9.772
36456SOL    HW211266  12.280   3.509   9.836
36457SOL     OW11267  10.166   2.643   6.356
36457SOL    HW111268  10.092   2.691   6.392
36457SOL    HW211269  10.128   2.565   6.317
36458SOL     OW11270  13.234  10.791   0.663
36458SOL    HW111271  13.303  10.855   0.681
36458SOL    HW211272  13.158  10.844   0.641
36459SOL     OW11273   1.671  13.292  11.488
36459SOL    HW111274   1.660  13.379  11.526
36459SOL    HW211275   1.762  13.269  11.505
36460SOL     OW11276   5.929  11.759   4.498
36460SOL    HW111277   5.842  11.793   4.519
36460SOL    HW211278   5.956  11.711   4.576
36461SOL     OW11279   1.245   2.491  12.597
36461SOL    HW111280   1.310   2.464  12.662
36461SOL    HW211281   1.277   2.574  12.563
36462SOL     OW11282   5.110   9.176   3.470
36462SOL    HW111283   5.198   9.193   3.505
36462SOL    HW211284   5.096   9.083   3.484
36463SOL     OW11285  10.720  10.557   1.809
36463SOL    HW111286  10.770  10.513   1.740
36463SOL    HW211287  10.652  10.495   1.833
36464SOL     OW11288   5.016  10.215   0.590
36464SOL    HW111289   5.031  10.134   0.542
36464SOL    HW211290   5.104  10.252   0.603
36465SOL     OW11291  10.053  13.171   3.109
36465SOL    HW111292  10.004  13.109   3.055
36465SOL    HW211293  10.054  13.130   3.196
36466SOL     OW11294   4.062   6.996   5.219
36466SOL    HW111295   4.144   6.947   5.214
36466SOL    HW211296   4.004   6.953   5.157
36467SOL     OW11297   4.408   0.075   3.480
36467SOL    HW111298   4.343   0.021   3.435
36467SOL    HW211299   4.442   0.018   3.549
36468SOL     OW11300   1.994   1.120   6.411
36468SOL    HW111301   2.058   1.167   6.357
36468SOL    HW211302   1.965   1.185   6.475
36469SOL     OW11303   3.815  13.316  12.858
36469SOL    HW111304   3.737  13.305  12.804
36469SOL    HW211305   3.885  13.338  12.796
36470SOL     OW11306  13.896  14.610  10.827
36470SOL    HW111307  13.855  14.695  10.810
36470SOL    HW211308  13.981  14.632  10.864
36471SOL     OW11309   7.412  14.377   9.974
36471SOL    HW111310   7.431  14.470   9.970
36471SOL    HW211311   7.362  14.365  10.055
36472SOL     OW11312  14.776  13.910   3.944
36472SOL    HW111313  14.850  13.930   4.000
36472SOL    HW211314  14.779  13.976   3.875
36473SOL     OW11315   1.025   4.731   3.346
36473SOL    HW111316   0.999   4.684   3.426
36473SOL    HW211317   1.093   4.792   3.376
36474SOL     OW11318   3.915   9.907   5.166
36474SOL    HW111319   3.881   9.901   5.077
36474SOL    HW211320   3.911   9.817   5.199
36475SOL     OW11321   8.163   5.547   1.147
36475SOL    HW111322   8.170   5.539   1.242
36475SOL    HW211323   8.173   5.640   1.130
36476SOL     OW11324  11.629  12.523   7.709
36476SOL    HW111325  11.695  12.540   7.642
36476SOL    HW211326  11.557  12.482   7.661
36477SOL     OW11327   0.894  12.735  11.964
36477SOL    HW111328   0.924  12.793  12.034
36477SOL    HW211329   0.799  12.731  11.974
36478SOL     OW11330  12.328  11.594   6.647
36478SOL    HW111331  12.360  11.504   6.653
36478SOL    HW211332  12.271  11.594   6.570
36479SOL     OW11333   6.876   7.826   8.469
36479SOL    HW111334   6.805   7.890   8.465
36479SOL    HW211335   6.871   7.790   8.558
36480SOL     OW11336  13.127  12.227  13.435
36480SOL    HW111337  13.128  12.253  13.343
36480SOL    HW211338  13.189  12.154  13.440
36481SOL     OW11339   5.114  12.268  14.352
36481SOL    HW111340   5.117  12.173  14.361
36481SOL    HW211341   5.142  12.284  14.262
36482SOL     OW11342   4.322   7.064   9.457
36482SOL    HW111343   4.331   6.969   9.470
36482SOL    HW211344   4.411   7.094   9.439
36483SOL     OW11345  14.020   6.288  11.572
36483SOL    HW111346  13.966   6.365  11.587
36483SOL    HW211347  14.027   6.246  11.658
36484SOL     OW11348   2.801   4.075  14.132
36484SOL    HW111349   2.832   4.146  14.187
36484SOL    HW211350   2.806   3.997  14.187
36485SOL     OW11351   0.601   5.980  10.697
36485SOL    HW111352   0.567   5.924  10.627
36485SOL    HW211353   0.543   5.963  10.771
36486SOL     OW11354   3.938  10.683   5.024
36486SOL    HW111355   3.862  10.740   5.011
36486SOL    HW211356   3.950  10.678   5.118
36487SOL     OW11357  12.299   2.188   4.986
36487SOL    HW111358  12.383   2.234   4.992
36487SOL    HW211359  12.288   2.146   5.071
36488SOL     OW11360  11.536   4.294   2.364
36488SOL    HW111361  11.630   4.309   2.372
36488SOL    HW211362  11.499   4.330   2.445
36489SOL     OW11363   7.814   4.514  10.030
36489SOL    HW111364   7.732   4.527   9.981
36489SOL    HW211365   7.796   4.439  10.086
36490SOL     OW11366   6.890   8.498  12.471
36490SOL    HW111367   6.902   8.523  12.562
36490SOL    HW211368   6.976   8.510  12.430
36491SOL     OW11369   1.678   7.252   9.654
36491SOL    HW111370   1.587   7.264   9.627
36491SOL    HW211371   1.718   7.204   9.582
36492SOL     OW11372   1.608  10.480   0.737
36492SOL    HW111373   1.633  10.572   0.749
36492SOL    HW211374   1.596  10.447   0.826
36493SOL     OW11375   4.154  12.987   1.829
36493SOL    HW111376   4.091  12.921   1.799
36493SOL    HW211377   4.173  12.962   1.920
36494SOL     OW11378   9.613   9.510  12.910
36494SOL    HW111379   9.530   9.466  12.890
36494SOL    HW211380   9.594   9.563  12.987
36495SOL     OW11381   6.038   2.055   4.524
36495SOL    HW111382   6.099   2.061   4.598
36495SOL    HW211383   6.050   1.967   4.490
36496SOL     OW11384   0.948   0.583  12.934
36496SOL    HW111385   1.012   0.654  12.927
36496SOL    HW211386   0.974   0.534  13.011
36497SOL     OW11387   0.228   6.805   7.692
36497SOL    HW111388   0.237   6.712   7.670
36497SOL    HW211389   0.148   6.833   7.648
36498SOL     OW11390  10.440   1.053   5.734
36498SOL    HW111391  10.466   1.137   5.771
36498SOL    HW211392  10.345   1.052   5.740
36499SOL     OW11393   2.910  13.670   0.263
36499SOL    HW111394   2.957  13.620   0.196
36499SOL    HW211395   2.932  13.761   0.244
36500SOL     OW11396  13.022   6.538  13.271
36500SOL    HW111397  13.003   6.477  13.343
36500SOL    HW211398  13.022   6.624  13.313
36501SOL     OW11399   7.479  10.281   6.120
36501SOL    HW111400   7.488  10.205   6.063
36501SOL    HW211401   7.471  10.245   6.208
36502SOL     OW11402  12.716   5.790   9.513
36502SOL    HW111403  12.641   5.844   9.537
36502SOL    HW211404  12.785   5.814   9.575
36503SOL     OW11405   2.993   9.084   3.686
36503SOL    HW111406   3.028   9.094   3.598
36503SOL    HW211407   3.068   9.061   3.740
36504SOL     OW11408   9.862  12.325   8.824
36504SOL    HW111409   9.809  12.257   8.783
36504SOL    HW211410   9.951  12.311   8.790
36505SOL     OW11411   7.698   7.032  14.717
36505SOL    HW111412   7.742   6.983  14.647
36505SOL    HW211413   7.616   7.061  14.677
36506SOL     OW11414   7.634  11.857   5.381
36506SOL    HW111415   7.685  11.806   5.319
36506SOL    HW211416   7.682  11.851   5.463
36507SOL     OW11417   6.691   1.675  12.044
36507SOL    HW111418   6.745   1.730  11.987
36507SOL    HW211419   6.603   1.682  12.008
36508SOL     OW11420   5.560   5.665   9.698
36508SOL    HW111421   5.513   5.739   9.736
36508SOL    HW211422   5.629   5.704   9.645
36509SOL     OW11423  14.775   4.160  10.141
36509SOL    HW111424  14.807   4.114  10.063
36509SOL    HW211425  14.855   4.189  10.185
36510SOL     OW11426   9.653   3.724  11.747
36510SOL    HW111427   9.744   3.740  11.725
36510SOL    HW211428   9.612   3.698  11.664
36511SOL     OW11429  12.080   0.512  14.733
36511SOL    HW111430  12.041   0.543  14.652
36511SOL    HW211431  12.054   0.576  14.799
36512SOL     OW11432   2.673   8.344   8.942
36512SOL    HW111433   2.578   8.336   8.946
36512SOL    HW211434   2.705   8.253   8.948
36513SOL     OW11435   9.789  10.735   8.004
36513SOL    HW111436   9.856  10.688   8.053
36513SOL    HW211437   9.732  10.771   8.072
36514SOL     OW11438   1.943   0.384   7.976
36514SOL    HW111439   1.894   0.388   8.058
36514SOL    HW211440   1.976   0.473   7.963
36515SOL     OW11441   4.438  11.039  13.206
36515SOL    HW111442   4.410  11.006  13.291
36515SOL    HW211443   4.402  11.127  13.201
36516SOL     OW11444  13.594   4.141   2.027
36516SOL    HW111445  13.583   4.234   2.009
36516SOL    HW211446  13.621   4.137   2.119
36517SOL     OW11447   4.880   2.676   1.414
36517SOL    HW111448   4.837   2.735   1.476
36517SOL    HW211449   4.956   2.643   1.462
36518SOL     OW11450   0.920   7.162  10.829
36518SOL    HW111451   0.996   7.138  10.882
36518SOL    HW211452   0.845   7.140  10.884
36519SOL     OW11453   4.072   5.626   9.108
36519SOL    HW111454   4.093   5.548   9.057
36519SOL    HW211455   3.985   5.653   9.077
36520SOL     OW11456   0.354   5.268   7.079
36520SOL    HW111457   0.326   5.328   7.148
36520SOL    HW211458   0.422   5.215   7.119
36521SOL     OW11459   3.688  10.780   4.936
36521SOL    HW111460   3.632  10.715   4.978
36521SOL    HW211461   3.729  10.734   4.863
36522SOL     OW11462   7.855   5.282   1.568
36522SOL    HW111463   7.776   5.306   1.520
36522SOL    HW211464   7.887   5.203   1.525
36523SOL     OW11465   5.338   6.977   2.890
36523SOL    HW111466   5.304   7.039   2.825
36523SOL    HW211467   5.266   6.966   2.952
36524SOL     OW11468  14.516   3.644   1.480
36524SOL    HW111469  14.541   3.717   1.423
36524SOL    HW211470  14.473   3.582   1.422
36525SOL     OW11471   5.425   1.782   4.164
36525SOL    HW111472   5.427   1.855   4.102
36525SOL    HW211473   5.443   1.822   4.249
36526SOL     OW11474  12.633   8.297  11.439
36526SOL    HW111475  12.604   8.334  11.522
36526SOL    HW211476  12.559   8.309  11.380
36527SOL     OW11477   9.902  11.875   7.773
36527SOL    HW111478   9.989  11.910   7.759
36527SOL    HW211479   9.861  11.877   7.686
36528SOL     OW11480  12.700   9.288   2.580
36528SOL    HW111481  12.774   9.307   2.638
36528SOL    HW211482  12.736   9.226   2.516
36529SOL     OW11483   0.081  14.384  12.285
36529SOL    HW111484   0.170  14.354  12.301
36529SOL    HW211485   0.091  14.474  12.253
36530SOL     OW11486   1.432   2.251   7.376
36530SOL    HW111487   1.355   2.306   7.363
36530SOL    HW211488   1.396   2.164   7.394
36531SOL     OW11489   1.325  13.904  13.858
36531SOL    HW111490   1.329  13.820  13.902
36531SOL    HW211491   1.340  13.969  13.927
36532SOL     OW11492   7.554   9.876   9.297
36532SOL    HW111493   7.580   9.802   9.352
36532SOL    HW211494   7.595   9.858   9.212
36533SOL     OW11495   0.422  12.615   2.160
36533SOL    HW111496   0.452  12.544   2.103
36533SOL    HW211497   0.347  12.578   2.208
36534SOL     OW11498  12.297   1.729   4.909
36534SOL    HW111499  12.295   1.799   4.844
36534SOL    HW211500  12.359   1.666   4.874
36535SOL     OW11501   1.602   0.217   7.380
36535SOL    HW111502   1.562   0.270   7.449
36535SOL    HW211503   1.664   0.161   7.425
36536SOL     OW11504   5.399   0.652  13.017
36536SOL    HW111505   5.472   0.631  12.959
36536SOL    HW211506   5.434   0.639  13.105
36537SOL     OW11507   1.991   4.685   1.595
36537SOL    HW111508   1.966   4.762   1.544
36537SOL    HW211509   1.908   4.654   1.633
36538SOL     OW11510  13.995   1.254   8.611
36538SOL    HW111511  14.069   1.309   8.635
36538SOL    HW211512  13.988   1.263   8.516
36539SOL     OW11513   2.520  12.255   2.317
36539SOL    HW111514   2.546  12.343   2.291
36539SOL    HW211515   2.513  12.207   2.235
36540SOL     OW11516   0.357   4.379   2.481
36540SOL    HW111517   0.416   4.452   2.463
36540SOL    HW211518   0.388   4.308   2.425
36541SOL     OW11519   4.084   5.061  14.153
36541SOL    HW111520   4.023   5.063  14.079
36541SOL    HW211521   4.132   4.979  14.142
36542SOL     OW11522   5.943  11.463   1.855
36542SOL    HW111523   5.910  11.379   1.888
36542SOL    HW211524   5.912  11.526   1.920
36543SOL     OW11525   1.492  12.317  11.838
36543SOL    HW111526   1.493  12.412  11.822
36543SOL    HW211527   1.404  12.290  11.813
36544SOL     OW11528   5.076  13.646   0.074
36544SOL    HW111529   5.094  13.585   0.146
36544SOL    HW211530   5.025  13.717   0.113
36545SOL     OW11531  11.835  11.971  11.127
36545SOL    HW111532  11.789  11.984  11.043
36545SOL    HW211533  11.838  11.876  11.138
36546SOL     OW11534  14.629   9.629  12.494
36546SOL    HW111535  14.576   9.583  12.560
36546SOL    HW211536  14.584   9.712  12.480
36547SOL     OW11537   1.407  10.097  10.128
36547SOL    HW111538   1.380  10.032  10.063
36547SOL    HW211539   1.444  10.045  10.200
36548SOL     OW11540  11.961   5.258   8.799
36548SOL    HW111541  11.931   5.326   8.859
36548SOL    HW211542  11.889   5.245   8.738
36549SOL     OW11543   0.049  14.529   6.314
36549SOL    HW111544   0.106  14.469   6.361
36549SOL    HW211545  14.870  14.473   6.266
36550SOL     OW11546   9.500   3.726  11.226
36550SOL    HW111547   9.591   3.751  11.210
36550SOL    HW211548   9.500   3.630  11.223
36551SOL     OW11549  10.636   9.713   8.834
36551SOL    HW111550  10.553   9.754   8.807
36551SOL    HW211551  10.622   9.689   8.925
36552SOL     OW11552   4.217   4.301   1.973
36552SOL    HW111553   4.278   4.345   1.915
36552SOL    HW211554   4.191   4.222   1.925
36553SOL     OW11555   1.189   0.952   8.509
36553SOL    HW111556   1.107   1.002   8.508
36553SOL    HW211557   1.205   0.933   8.601
36554SOL     OW11558   3.304   2.433  10.026
36554SOL    HW111559   3.244   2.430  10.100
36554SOL    HW211560   3.380   2.482  10.058
36555SOL     OW11561  10.768   4.993  10.726
36555SOL    HW111562  10.800   4.937  10.796
36555SOL    HW211563  10.756   4.933  10.652
36556SOL     OW11564   4.582   1.620  11.794
36556SOL    HW111565   4.578   1.692  11.857
36556SOL    HW211566   4.664   1.634  11.746
36557SOL     OW11567   0.769  11.836   4.142
36557SOL    HW111568   0.826  11.760   4.159
36557SOL    HW211569   0.729  11.855   4.226
36558SOL     OW11570   1.575  10.616   1.295
36558SOL    HW111571   1.508  10.557   1.329
36558SOL    HW211572   1.534  10.703   1.298
36559SOL     OW11573   3.483  10.351   1.582
36559SOL    HW111574   3.503  10.432   1.535
36559SOL    HW211575   3.565  10.301   1.578
36560SOL     OW11576   0.982  12.150   4.438
36560SOL    HW111577   0.944  12.069   4.473
36560SOL    HW211578   1.011  12.127   4.350
36561SOL     OW11579   3.527   0.056   7.661
36561SOL    HW111580   3.492   0.003   7.590
36561SOL    HW211581   3.530  14.880   7.737
36562SOL     OW11582   3.471   0.877   7.180
36562SOL    HW111583   3.509   0.802   7.226
36562SOL    HW211584   3.387   0.892   7.224
36563SOL     OW11585  11.336   0.199   3.982
36563SOL    HW111586  11.414   0.255   3.987
36563SOL    HW211587  11.351   0.145   3.904
36564SOL     OW11588  10.291   1.597  11.352
36564SOL    HW111589  10.210   1.620  11.396
36564SOL    HW211590  10.274   1.511  11.313
36565SOL     OW11591   0.165  10.441  13.660
36565SOL    HW111592   0.095  10.431  13.725
36565SOL    HW211593   0.204  10.525  13.680
36566SOL     OW11594   6.874   6.016  12.194
36566SOL    HW111595   6.818   5.938  12.184
36566SOL    HW211596   6.876   6.056  12.107
36567SOL     OW11597   5.497   8.116  10.196
36567SOL    HW111598   5.476   8.160  10.113
36567SOL    HW211599   5.488   8.022  10.176
36568SOL     OW11600   3.469  13.214   1.751
36568SOL    HW111601   3.535  13.283   1.749
36568SOL    HW211602   3.518  13.133   1.763
36569SOL     OW11603   8.482  11.724  13.326
36569SOL    HW111604   8.550  11.740  13.262
36569SOL    HW211605   8.422  11.798  13.317
36570SOL     OW11606   5.077   0.700  12.700
36570SOL    HW111607   4.983   0.719  12.708
36570SOL    HW211608   5.086   0.609  12.726
36571SOL     OW11609   4.318  14.145  13.407
36571SOL    HW111610   4.397  14.107  13.446
36571SOL    HW211611   4.280  14.198  13.477
36572SOL     OW11612   8.349   3.747  10.326
36572SOL    HW111613   8.418   3.698  10.284
36572SOL    HW211614   8.329   3.818  10.265
36573SOL     OW11615   7.658  13.448   1.749
36573SOL    HW111616   7.752  13.447   1.764
36573SOL    HW211617   7.639  13.363   1.709
36574SOL     OW11618   7.617   9.813   5.182
36574SOL    HW111619   7.626   9.874   5.255
36574SOL    HW211620   7.530   9.831   5.146
36575SOL     OW11621   9.608  11.854   6.417
36575SOL    HW111622   9.625  11.891   6.330
36575SOL    HW211623   9.527  11.804   6.407
36576SOL     OW11624  14.753  11.854  10.230
36576SOL    HW111625  14.733  11.849  10.324
36576SOL    HW211626  14.824  11.918  10.225
36577SOL     OW11627  11.004   2.694   3.200
36577SOL    HW111628  11.066   2.700   3.273
36577SOL    HW211629  10.929   2.746   3.227
36578SOL     OW11630   5.344   3.122   0.593
36578SOL    HW111631   5.255   3.136   0.625
36578SOL    HW211632   5.336   3.122   0.498
36579SOL     OW11633  13.365  11.592   2.845
36579SOL    HW111634  13.362  11.602   2.749
36579SOL    HW211635  13.365  11.498   2.859
36580SOL     OW11636  14.659   7.443   8.437
36580SOL    HW111637  14.697   7.378   8.378
36580SOL    HW211638  14.586   7.480   8.388
36581SOL     OW11639  13.560   6.989  14.533
36581SOL    HW111640  13.551   7.041  14.613
36581SOL    HW211641  13.613   7.043  14.475
36582SOL     OW11642  14.030   2.469  14.562
36582SOL    HW111643  14.013   2.442  14.471
36582SOL    HW211644  14.108   2.524  14.556
36583SOL     OW11645  13.240   4.306   0.232
36583SOL    HW111646  13.323   4.336   0.193
36583SOL    HW211647  13.212   4.234   0.175
36584SOL     OW11648  13.942  12.716   4.804
36584SOL    HW111649  14.015  12.678   4.853
36584SOL    HW211650  13.873  12.650   4.809
36585SOL     OW11651  11.566  11.397   5.516
36585SOL    HW111652  11.473  11.411   5.534
36585SOL    HW211653  11.588  11.462   5.450
36586SOL     OW11654  12.321  12.317   0.312
36586SOL    HW111655  12.316  12.222   0.303
36586SOL    HW211656  12.411  12.339   0.289
36587SOL     OW11657   3.483   5.010   0.443
36587SOL    HW111658   3.441   5.066   0.378
36587SOL    HW211659   3.535   4.948   0.391
36588SOL     OW11660   7.018   9.836   7.899
36588SOL    HW111661   6.975   9.913   7.936
36588SOL    HW211662   7.080   9.808   7.966
36589SOL     OW11663   3.737   2.325   6.477
36589SOL    HW111664   3.781   2.409   6.468
36589SOL    HW211665   3.804   2.260   6.453
36590SOL     OW11666   2.509   9.914   2.283
36590SOL    HW111667   2.415   9.906   2.298
36590SOL    HW211668   2.548   9.909   2.370
36591SOL     OW11669   2.561  14.870   9.744
36591SOL    HW111670   2.549   0.025   9.832
36591SOL    HW211671   2.509  14.789   9.746
36592SOL     OW11672   5.631   4.147   1.141
36592SOL    HW111673   5.668   4.200   1.070
36592SOL    HW211674   5.621   4.208   1.214
36593SOL     OW11675   7.781  13.215   9.159
36593SOL    HW111676   7.802  13.125   9.181
36593SOL    HW211677   7.685  13.216   9.151
36594SOL     OW11678   9.519   9.746   6.531
36594SOL    HW111679   9.534   9.739   6.436
36594SOL    HW211680   9.425   9.738   6.541
36595SOL     OW11681  14.117   0.111   6.299
36595SOL    HW111682  14.202   0.100   6.342
36595SOL    HW211683  14.053   0.104   6.370
36596SOL     OW11684  13.709   0.552  10.902
36596SOL    HW111685  13.656   0.543  10.981
36596SOL    HW211686  13.775   0.617  10.925
36597SOL     OW11687  12.120  14.279  13.129
36597SOL    HW111688  12.067  14.336  13.185
36597SOL    HW211689  12.095  14.302  13.040
36598SOL     OW11690   2.002   3.429   8.426
36598SOL    HW111691   2.088   3.452   8.461
36598SOL    HW211692   2.014   3.342   8.387
36599SOL     OW11693  11.666   0.978  13.885
36599SOL    HW111694  11.652   0.945  13.974
36599SOL    HW211695  11.730   1.048  13.895
36600SOL     OW11696  13.887   4.232  10.819
36600SOL    HW111697  13.874   4.263  10.909
36600SOL    HW211698  13.934   4.304  10.776
36601SOL     OW11699   1.723   6.935  10.136
36601SOL    HW111700   1.726   6.919  10.230
36601SOL    HW211701   1.638   6.899  10.109
36602SOL     OW11702   3.762   1.931   7.352
36602SOL    HW111703   3.667   1.918   7.352
36602SOL    HW211704   3.775   2.013   7.399
36603SOL     OW11705   1.683  13.565   1.875
36603SOL    HW111706   1.703  13.534   1.787
36603SOL    HW211707   1.765  13.603   1.907
36604SOL     OW11708   3.319  14.084   6.894
36604SOL    HW111709   3.398  14.031   6.890
36604SOL    HW211710   3.345  14.168   6.855
36605SOL     OW11711  14.861  11.262  12.546
36605SOL    HW111712  14.767  11.273  12.535
36605SOL    HW211713   0.010  11.348  12.572
36606SOL     OW11714  14.393   7.109   3.858
36606SOL    HW111715  14.308   7.070   3.878
36606SOL    HW211716  14.379   7.204   3.865
36607SOL     OW11717  12.543   6.807  11.307
36607SOL    HW111718  12.481   6.868  11.349
36607SOL    HW211719  12.592   6.861  11.246
36608SOL     OW11720   6.471   8.992  10.209
36608SOL    HW111721   6.429   9.033  10.284
36608SOL    HW211722   6.461   8.898  10.224
36609SOL     OW11723  13.506   7.432   4.196
36609SOL    HW111724  13.560   7.380   4.136
36609SOL    HW211725  13.530   7.401   4.283
36610SOL     OW11726  11.920   3.682  13.612
36610SOL    HW111727  11.845   3.626  13.632
36610SOL    HW211728  11.993   3.643  13.662
36611SOL     OW11729   9.817   2.288   4.999
36611SOL    HW111730   9.754   2.330   4.941
36611SOL    HW211731   9.868   2.360   5.035
36612SOL     OW11732  10.557   5.730   8.869
36612SOL    HW111733  10.514   5.751   8.786
36612SOL    HW211734  10.534   5.802   8.927
36613SOL     OW11735   0.860   5.963   5.380
36613SOL    HW111736   0.777   5.917   5.376
36613SOL    HW211737   0.839   6.047   5.422
36614SOL     OW11738   1.133  10.853   6.304
36614SOL    HW111739   1.181  10.848   6.222
36614SOL    HW211740   1.155  10.772   6.350
36615SOL     OW11741  14.875  12.849   2.881
36615SOL    HW111742   0.031  12.783   2.939
36615SOL    HW211743  14.786  12.862   2.914
36616SOL     OW11744  10.702   0.060   2.332
36616SOL    HW111745  10.758   0.134   2.310
36616SOL    HW211746  10.621   0.075   2.284
36617SOL     OW11747  11.135  10.554  11.949
36617SOL    HW111748  11.094  10.576  11.865
36617SOL    HW211749  11.220  10.598  11.946
36618SOL     OW11750   3.993  13.082  12.727
36618SOL    HW111751   3.902  13.054  12.717
36618SOL    HW211752   4.008  13.142  12.654
36619SOL     OW11753   2.942   5.337   3.903
36619SOL    HW111754   3.038   5.330   3.905
36619SOL    HW211755   2.917   5.350   3.994
36620SOL     OW11756   7.930   6.518  12.179
36620SOL    HW111757   7.853   6.463  12.165
36620SOL    HW211758   7.972   6.524  12.094
36621SOL     OW11759   0.531   6.180   7.631
36621SOL    HW111760   0.498   6.265   7.662
36621SOL    HW211761   0.501   6.118   7.697
36622SOL     OW11762   4.630   2.036   3.147
36622SOL    HW111763   4.720   2.010   3.128
36622SOL    HW211764   4.598   2.076   3.066
36623SOL     OW11765   2.184  10.537   4.320
36623SOL    HW111766   2.215  10.562   4.233
36623SOL    HW211767   2.165  10.620   4.364
36624SOL     OW11768  11.892   2.768   6.861
36624SOL    HW111769  11.827   2.835   6.883
36624SOL    HW211770  11.841   2.688   6.848
36625SOL     OW11771   3.746  11.503   2.466
36625SOL    HW111772   3.755  11.503   2.561
36625SOL    HW211773   3.674  11.443   2.449
36626SOL     OW11774   2.993  12.375   3.216
36626SOL    HW111775   2.906  12.405   3.241
36626SOL    HW211776   2.994  12.384   3.120
36627SOL     OW11777   7.460   0.348  13.062
36627SOL    HW111778   7.525   0.388  13.119
36627SOL    HW211779   7.510   0.288  13.007
36628SOL     OW11780   7.947   5.444   0.211
36628SOL    HW111781   7.947   5.352   0.238
36628SOL    HW211782   8.031   5.455   0.166
36629SOL     OW11783   6.249  13.448   2.770
36629SOL    HW111784   6.157  13.437   2.743
36629SOL    HW211785   6.289  13.498   2.699
36630SOL     OW11786   1.561  13.766   9.093
36630SOL    HW111787   1.490  13.735   9.150
36630SOL    HW211788   1.529  13.749   9.005
36631SOL     OW11789  13.329   0.822   0.936
36631SOL    HW111790  13.339   0.853   1.026
36631SOL    HW211791  13.265   0.751   0.943
36632SOL     OW11792   9.686  14.484   7.149
36632SOL    HW111793   9.731  14.495   7.233
36632SOL    HW211794   9.600  14.523   7.163
36633SOL     OW11795  11.894   4.905   2.271
36633SOL    HW111796  11.856   4.954   2.199
36633SOL    HW211797  11.965   4.961   2.303
36634SOL     OW11798   2.091  11.208   1.858
36634SOL    HW111799   2.116  11.218   1.949
36634SOL    HW211800   2.051  11.292   1.835
36635SOL     OW11801   7.559   8.844   9.159
36635SOL    HW111802   7.498   8.776   9.188
36635SOL    HW211803   7.517   8.883   9.082
36636SOL     OW11804   2.498   1.228  13.881
36636SOL    HW111805   2.590   1.234  13.905
36636SOL    HW211806   2.472   1.318  13.861
36637SOL     OW11807   4.938   3.250   4.634
36637SOL    HW111808   4.888   3.169   4.634
36637SOL    HW211809   4.872   3.319   4.643
36638SOL     OW11810   0.478  12.151   2.053
36638SOL    HW111811   0.470  12.068   2.101
36638SOL    HW211812   0.536  12.131   1.980
36639SOL     OW11813   2.127  11.618  13.795
36639SOL    HW111814   2.103  11.530  13.823
36639SOL    HW211815   2.080  11.632  13.713
36640SOL     OW11816   6.565  13.226   0.735
36640SOL    HW111817   6.492  13.267   0.689
36640SOL    HW211818   6.589  13.288   0.804
36641SOL     OW11819   0.089  11.556   4.556
36641SOL    HW111820   0.140  11.599   4.488
36641SOL    HW211821   0.131  11.583   4.638
36642SOL     OW11822  11.389   7.883   9.949
36642SOL    HW111823  11.336   7.937  10.007
36642SOL    HW211824  11.429   7.818  10.006
36643SOL     OW11825   7.625   8.022   5.838
36643SOL    HW111826   7.560   7.978   5.893
36643SOL    HW211827   7.707   7.978   5.857
36644SOL     OW11828   8.849  10.527   4.517
36644SOL    HW111829   8.795  10.454   4.548
36644SOL    HW211830   8.904  10.550   4.591
36645SOL     OW11831   1.535   6.159  13.963
36645SOL    HW111832   1.605   6.097  13.943
36645SOL    HW211833   1.529   6.159  14.058
36646SOL     OW11834   8.583   9.343  14.031
36646SOL    HW111835   8.555   9.355  14.122
36646SOL    HW211836   8.520   9.281  13.994
36647SOL     OW11837   1.740  10.119   7.920
36647SOL    HW111838   1.726  10.126   8.014
36647SOL    HW211839   1.778  10.203   7.895
36648SOL     OW11840   5.251  11.898   5.292
36648SOL    HW111841   5.331  11.863   5.252
36648SOL    HW211842   5.198  11.821   5.311
36649SOL     OW11843  13.139   6.442   9.648
36649SOL    HW111844  13.103   6.441   9.736
36649SOL    HW211845  13.210   6.378   9.650
36650SOL     OW11846   9.366  14.782   6.947
36650SOL    HW111847   9.374  14.703   7.000
36650SOL    HW211848   9.457  14.806   6.926
36651SOL     OW11849   7.726   2.234  11.405
36651SOL    HW111850   7.815   2.254  11.433
36651SOL    HW211851   7.706   2.301  11.340
36652SOL     OW11852   2.203  14.104   5.371
36652SOL    HW111853   2.108  14.103   5.383
36652SOL    HW211854   2.226  14.197   5.369
36653SOL     OW11855   8.785  10.850   4.242
36653SOL    HW111856   8.784  10.781   4.176
36653SOL    HW211857   8.702  10.896   4.229
36654SOL     OW11858  14.107   5.841   6.801
36654SOL    HW111859  14.079   5.856   6.710
36654SOL    HW211860  14.194   5.882   6.805
36655SOL     OW11861  13.232  11.128  10.535
36655SOL    HW111862  13.149  11.122  10.487
36655SOL    HW211863  13.219  11.073  10.612
36656SOL     OW11864   8.144   3.188  10.864
36656SOL    HW111865   8.117   3.111  10.814
36656SOL    HW211866   8.151   3.156  10.955
36657SOL     OW11867   8.490  10.655   0.020
36657SOL    HW111868   8.510  10.746   0.042
36657SOL    HW211869   8.447  10.660  14.817
36658SOL     OW11870  12.664   4.275   2.573
36658SOL    HW111871  12.758   4.258   2.567
36658SOL    HW211872  12.656   4.342   2.641
36659SOL     OW11873   6.131   3.964  13.608
36659SOL    HW111874   6.196   4.034  13.614
36659SOL    HW211875   6.091   3.977  13.522
36660SOL     OW11876   0.824   3.773   6.036
36660SOL    HW111877   0.800   3.859   6.072
36660SOL    HW211878   0.796   3.776   5.945
36661SOL     OW11879   9.590   3.647   7.266
36661SOL    HW111880   9.566   3.556   7.285
36661SOL    HW211881   9.588   3.690   7.351
36662SOL     OW11882  13.448   8.608  13.519
36662SOL    HW111883  13.475   8.668  13.450
36662SOL    HW211884  13.466   8.521  13.484
36663SOL     OW11885   7.579   7.255   9.663
36663SOL    HW111886   7.583   7.160   9.649
36663SOL    HW211887   7.485   7.273   9.672
36664SOL     OW11888   0.089   7.493   8.034
36664SOL    HW111889   0.003   7.535   8.035
36664SOL    HW211890   0.116   7.497   7.942
36665SOL     OW11891   0.539   8.340   9.149
36665SOL    HW111892   0.520   8.261   9.098
36665SOL    HW211893   0.531   8.411   9.085
36666SOL     OW11894  10.743   1.575  11.713
36666SOL    HW111895  10.696   1.639  11.767
36666SOL    HW211896  10.680   1.549  11.646
36667SOL     OW11897  13.703   8.944   7.365
36667SOL    HW111898  13.731   8.952   7.457
36667SOL    HW211899  13.783   8.960   7.314
36668SOL     OW11900   5.802   6.851  10.454
36668SOL    HW111901   5.826   6.781  10.515
36668SOL    HW211902   5.827   6.817  10.368
36669SOL     OW11903   5.198   7.686  14.169
36669SOL    HW111904   5.117   7.686  14.118
36669SOL    HW211905   5.231   7.596  14.160
36670SOL     OW11906   6.274   5.190  13.507
36670SOL    HW111907   6.289   5.281  13.483
36670SOL    HW211908   6.339   5.141  13.457
36671SOL     OW11909  13.606  10.421  11.942
36671SOL    HW111910  13.686  10.387  11.983
36671SOL    HW211911  13.538  10.358  11.966
36672SOL     OW11912  10.686  14.391   8.314
36672SOL    HW111913  10.719  14.303   8.331
36672SOL    HW211914  10.645  14.418   8.396
36673SOL     OW11915   4.158  11.045  10.421
36673SOL    HW111916   4.098  10.976  10.446
36673SOL    HW211917   4.230  11.000  10.376
36674SOL     OW11918  11.955   1.781   2.359
36674SOL    HW111919  12.045   1.765   2.387
36674SOL    HW211920  11.948   1.739   2.273
36675SOL     OW11921   8.913   2.653  13.895
36675SOL    HW111922   8.879   2.574  13.937
36675SOL    HW211923   8.958   2.700  13.966
36676SOL     OW11924  12.963   3.165  12.357
36676SOL    HW111925  13.006   3.081  12.348
36676SOL    HW211926  12.971   3.187  12.450
36677SOL     OW11927   7.697  11.921  13.182
36677SOL    HW111928   7.767  11.985  13.187
36677SOL    HW211929   7.724  11.851  13.241
36678SOL     OW11930  12.749  14.104   8.657
36678SOL    HW111931  12.836  14.108   8.696
36678SOL    HW211932  12.703  14.181   8.690
36679SOL     OW11933   8.342   9.027  14.246
36679SOL    HW111934   8.403   9.093  14.214
36679SOL    HW211935   8.293   9.000  14.169
36680SOL     OW11936   9.665   6.192   0.590
36680SOL    HW111937   9.647   6.116   0.646
36680SOL    HW211938   9.631   6.167   0.504
36681SOL     OW11939   8.985   9.757   3.166
36681SOL    HW111940   9.049   9.688   3.146
36681SOL    HW211941   8.983   9.761   3.261
36682SOL     OW11942  14.569  14.873   4.328
36682SOL    HW111943  14.549   0.080   4.301
36682SOL    HW211944  14.653  14.853   4.285
36683SOL     OW11945  12.803  14.645   8.245
36683SOL    HW111946  12.842  14.719   8.291
36683SOL    HW211947  12.867  14.574   8.254
36684SOL     OW11948  11.795  11.033  11.423
36684SOL    HW111949  11.823  10.950  11.461
36684SOL    HW211950  11.751  11.008  11.341
36685SOL     OW11951  12.743  11.538   5.565
36685SOL    HW111952  12.821  11.534   5.510
36685SOL    HW211953  12.776  11.527   5.654
36686SOL     OW11954  13.714  14.728  13.634
36686SOL    HW111955  13.652  14.765  13.697
36686SOL    HW211956  13.660  14.674  13.577
36687SOL     OW11957   9.635  11.714  12.285
36687SOL    HW111958   9.646  11.702  12.380
36687SOL    HW211959   9.634  11.625  12.250
36688SOL     OW11960   6.547   0.005  10.351
36688SOL    HW111961   6.473   0.000  10.291
36688SOL    HW211962   6.561  14.796  10.379
36689SOL     OW11963  12.804   3.677   1.617
36689SOL    HW111964  12.841   3.617   1.553
36689SOL    HW211965  12.810   3.763   1.577
36690SOL     OW11966   4.377   9.123   3.633
36690SOL    HW111967   4.285   9.122   3.658
36690SOL    HW211968   4.386   9.201   3.578
36691SOL     OW11969  12.507   8.086   8.288
36691SOL    HW111970  12.585   8.116   8.336
36691SOL    HW211971  12.489   7.999   8.324
36692SOL     OW11972   3.169   9.129  11.945
36692SOL    HW111973   3.202   9.137  12.034
36692SOL    HW211974   3.074   9.129  11.955
36693SOL     OW11975  11.437  10.015   0.484
36693SOL    HW111976  11.469   9.941   0.536
36693SOL    HW211977  11.392   9.975   0.410
36694SOL     OW11978   2.204   6.755   4.587
36694SOL    HW111979   2.185   6.674   4.541
36694SOL    HW211980   2.169   6.741   4.675
36695SOL     OW11981   7.804   7.071  10.812
36695SOL    HW111982   7.796   7.076  10.716
36695SOL    HW211983   7.881   7.125  10.832
36696SOL     OW11984  14.724   5.406  11.365
36696SOL    HW111985  14.653   5.450  11.318
36696SOL    HW211986  14.679   5.345  11.424
36697SOL     OW11987   5.832  11.866   0.712
36697SOL    HW111988   5.888  11.915   0.771
36697SOL    HW211989   5.872  11.876   0.626
36698SOL     OW11990  12.230  11.725   2.727
36698SOL    HW111991  12.230  11.807   2.678
36698SOL    HW211992  12.223  11.657   2.660
36699SOL     OW11993   4.078   7.437  14.792
36699SOL    HW111994   4.134   7.420  14.716
36699SOL    HW211995   4.090   7.360  14.848
36700SOL     OW11996   6.359   4.089  14.338
36700SOL    HW111997   6.267   4.066  14.322
36700SOL    HW211998   6.394   4.012  14.384
36701SOL     OW11999   0.696   0.332  12.822
36701SOL    HW112000   0.714   0.373  12.738
36701SOL    HW212001   0.697   0.238  12.804
36702SOL     OW12002   3.495  10.802   8.229
36702SOL    HW112003   3.588  10.796   8.208
36702SOL    HW212004   3.470  10.712   8.252
36703SOL     OW12005   2.507   0.800  13.556
36703SOL    HW112006   2.541   0.840  13.636
36703SOL    HW212007   2.463   0.872  13.510
36704SOL     OW12008   7.080   8.984  14.815
36704SOL    HW112009   7.024   8.940  14.879
36704SOL    HW212010   7.148   9.026  14.867
36705SOL     OW12011  14.525   3.974   5.727
36705SOL    HW112012  14.570   3.923   5.794
36705SOL    HW212013  14.433   3.974   5.755
36706SOL     OW12014   3.202   3.135  10.097
36706SOL    HW112015   3.199   3.201  10.028
36706SOL    HW212016   3.237   3.056  10.055
36707SOL     OW12017   0.628  14.220   1.726
36707SOL    HW112018   0.560  14.165   1.764
36707SOL    HW212019   0.697  14.159   1.700
36708SOL     OW12020   3.201   3.940   0.659
36708SOL    HW112021   3.269   3.936   0.726
36708SOL    HW212022   3.217   3.864   0.604
36709SOL     OW12023   3.713   8.165   8.776
36709SOL    HW112024   3.685   8.242   8.825
36709SOL    HW212025   3.637   8.141   8.722
36710SOL     OW12026  10.268   8.819   3.592
36710SOL    HW112027  10.226   8.733   3.589
36710SOL    HW212028  10.312   8.821   3.676
36711SOL     OW12029  12.033   6.568   4.437
36711SOL    HW112030  11.959   6.558   4.378
36711SOL    HW212031  12.094   6.625   4.390
36712SOL     OW12032  11.767   9.853  11.752
36712SOL    HW112033  11.851   9.828  11.790
36712SOL    HW212034  11.702   9.804  11.802
36713SOL     OW12035  13.074  13.090  14.346
36713SOL    HW112036  12.981  13.115  14.345
36713SOL    HW212037  13.077  13.013  14.402
36714SOL     OW12038   0.645  10.871   0.173
36714SOL    HW112039   0.651  10.946   0.114
36714SOL    HW212040   0.715  10.812   0.144
36715SOL     OW12041   3.231  13.905  13.870
36715SOL    HW112042   3.198  13.855  13.944
36715SOL    HW212043   3.270  13.983  13.909
36716SOL     OW12044   3.390   9.801   5.543
36716SOL    HW112045   3.304   9.778   5.510
36716SOL    HW212046   3.385   9.896   5.558
36717SOL     OW12047   4.912   3.193   8.035
36717SOL    HW112048   4.937   3.100   8.041
36717SOL    HW212049   4.991   3.240   8.062
36718SOL     OW12050  12.558   9.864   7.610
36718SOL    HW112051  12.652   9.883   7.616
36718SOL    HW212052  12.542   9.798   7.677
36719SOL     OW12053  14.564   4.107   1.402
36719SOL    HW112054  14.657   4.121   1.419
36719SOL    HW212055  14.526   4.195   1.396
36720SOL     OW12056  13.186   5.010   0.469
36720SOL    HW112057  13.213   5.093   0.507
36720SOL    HW212058  13.198   5.022   0.374
36721SOL     OW12059  14.818  12.088   7.287
36721SOL    HW112060  14.752  12.156   7.298
36721SOL    HW212061   0.006  12.112   7.348
36722SOL     OW12062  10.270  12.407   5.691
36722SOL    HW112063  10.265  12.334   5.753
36722SOL    HW212064  10.235  12.481   5.740
36723SOL     OW12065   8.715  14.402  10.900
36723SOL    HW112066   8.765  14.419  10.980
36723SOL    HW212067   8.697  14.309  10.901
36724SOL     OW12068   6.642   9.167  10.099
36724SOL    HW112069   6.584   9.097  10.128
36724SOL    HW212070   6.591   9.214  10.032
36725SOL     OW12071  13.872   7.695   8.621
36725SOL    HW112072  13.827   7.763   8.570
36725SOL    HW212073  13.965   7.718   8.614
36726SOL     OW12074   0.407   6.351  12.613
36726SOL    HW112075   0.319   6.350  12.650
36726SOL    HW212076   0.403   6.287  12.541
36727SOL     OW12077   2.560   1.311   1.827
36727SOL    HW112078   2.614   1.247   1.872
36727SOL    HW212079   2.473   1.301   1.865
36728SOL     OW12080   3.373  12.720   8.854
36728SOL    HW112081   3.306  12.717   8.786
36728SOL    HW212082   3.366  12.636   8.898
36729SOL     OW12083   1.346   7.714  12.282
36729SOL    HW112084   1.254   7.740  12.274
36729SOL    HW212085   1.395   7.790  12.251
36730SOL     OW12086   6.110  14.701  13.854
36730SOL    HW112087   6.157  14.780  13.884
36730SOL    HW212088   6.132  14.694  13.761
36731SOL     OW12089   5.408  12.585   0.565
36731SOL    HW112090   5.500  12.561   0.558
36731SOL    HW212091   5.370  12.559   0.480
36732SOL     OW12092   9.647   4.937   2.219
36732SOL    HW112093   9.692   4.852   2.222
36732SOL    HW212094   9.597   4.941   2.300
36733SOL     OW12095   4.737   2.216   6.311
36733SOL    HW112096   4.722   2.294   6.258
36733SOL    HW212097   4.793   2.160   6.257
36734SOL     OW12098  11.621   6.872  14.367
36734SOL    HW112099  11.537   6.899  14.404
36734SOL    HW212100  11.618   6.902  14.277
36735SOL     OW12101   4.341  11.673  12.233
36735SOL    HW112102   4.352  11.579  12.246
36735SOL    HW212103   4.248  11.684  12.214
36736SOL     OW12104   6.086   9.017   3.165
36736SOL    HW112105   6.153   8.995   3.101
36736SOL    HW212106   6.007   9.031   3.114
36737SOL     OW12107   2.687   8.065   8.019
36737SOL    HW112108   2.615   8.009   7.991
36737SOL    HW212109   2.766   8.014   8.002
36738SOL     OW12110   5.154  12.241   9.729
36738SOL    HW112111   5.119  12.327   9.754
36738SOL    HW212112   5.209  12.258   9.653
36739SOL     OW12113   1.175   4.429   0.405
36739SOL    HW112114   1.165   4.406   0.313
36739SOL    HW212115   1.216   4.516   0.405
36740SOL     OW12116  13.758   8.262  12.921
36740SOL    HW112117  13.672   8.224  12.935
36740SOL    HW212118  13.754   8.348  12.965
36741SOL     OW12119   2.311   8.922   7.047
36741SOL    HW112120   2.268   8.998   7.008
36741SOL    HW212121   2.403   8.932   7.022
36742SOL     OW12122  10.133   0.820   9.106
36742SOL    HW112123  10.046   0.781   9.106
36742SOL    HW212124  10.189   0.755   9.148
36743SOL     OW12125   2.820   5.995   7.255
36743SOL    HW112126   2.873   6.072   7.272
36743SOL    HW212127   2.883   5.927   7.230
36744SOL     OW12128   0.790  14.003   1.699
36744SOL    HW112129   0.844  13.966   1.629
36744SOL    HW212130   0.708  13.955   1.693
36745SOL     OW12131   8.838   0.652   7.545
36745SOL    HW112132   8.824   0.631   7.453
36745SOL    HW212133   8.912   0.713   7.545
36746SOL     OW12134   9.453   9.738   7.210
36746SOL    HW112135   9.548   9.746   7.197
36746SOL    HW212136   9.415   9.775   7.130
36747SOL     OW12137  12.244   1.937   4.382
36747SOL    HW112138  12.152   1.962   4.393
36747SOL    HW212139  12.253   1.856   4.432
36748SOL     OW12140  12.479   6.199   4.297
36748SOL    HW112141  12.410   6.252   4.257
36748SOL    HW212142  12.535   6.174   4.224
36749SOL     OW12143  13.330   4.075   5.654
36749SOL    HW112144  13.382   4.154   5.668
36749SOL    HW212145  13.347   4.021   5.732
36750SOL     OW12146   3.514   0.882   5.694
36750SOL    HW112147   3.464   0.871   5.775
36750SOL    HW212148   3.605   0.884   5.722
36751SOL     OW12149  10.044   5.959  10.218
36751SOL    HW112150   9.967   5.983  10.270
36751SOL    HW212151  10.008   5.918  10.139
36752SOL     OW12152  13.226  14.749   1.408
36752SOL    HW112153  13.288  14.676   1.415
36752SOL    HW212154  13.254  14.796   1.329
36753SOL     OW12155  13.694  12.014   6.273
36753SOL    HW112156  13.653  12.055   6.350
36753SOL    HW212157  13.776  12.062   6.262
36754SOL     OW12158  13.421   7.296   4.666
36754SOL    HW112159  13.343   7.291   4.721
36754SOL    HW212160  13.494   7.292   4.727
36755SOL     OW12161   2.796   3.075   6.767
36755SOL    HW112162   2.726   3.074   6.832
36755SOL    HW212163   2.755   3.108   6.687
36756SOL     OW12164   8.237   1.821  10.720
36756SOL    HW112165   8.154   1.782  10.695
36756SOL    HW212166   8.303   1.754  10.702
36757SOL     OW12167   9.020   3.725   8.416
36757SOL    HW112168   9.060   3.719   8.502
36757SOL    HW212169   8.935   3.765   8.431
36758SOL     OW12170   5.180  11.814   5.668
36758SOL    HW112171   5.233  11.769   5.602
36758SOL    HW212172   5.189  11.907   5.646
36759SOL     OW12173  11.901   3.337   2.888
36759SOL    HW112174  11.896   3.410   2.949
36759SOL    HW212175  11.962   3.366   2.820
36760SOL     OW12176  13.461   9.645   1.920
36760SOL    HW112177  13.546   9.630   1.962
36760SOL    HW212178  13.417   9.560   1.926
36761SOL     OW12179   1.855   7.023  12.026
36761SOL    HW112180   1.840   7.051  12.116
36761SOL    HW212181   1.950   7.028  12.015
36762SOL     OW12182   1.759   8.872   4.214
36762SOL    HW112183   1.840   8.859   4.165
36762SOL    HW212184   1.788   8.892   4.303
36763SOL     OW12185   6.524   3.826   8.101
36763SOL    HW112186   6.615   3.806   8.080
36763SOL    HW212187   6.490   3.869   8.023
36764SOL     OW12188   8.764   1.683  14.528
36764SOL    HW112189   8.814   1.758  14.560
36764SOL    HW212190   8.810   1.607  14.565
36765SOL     OW12191   8.819   3.773   6.464
36765SOL    HW112192   8.777   3.774   6.550
36765SOL    HW212193   8.774   3.702   6.417
36766SOL     OW12194  14.534   0.528   2.155
36766SOL    HW112195  14.467   0.590   2.127
36766SOL    HW212196  14.520   0.451   2.098
36767SOL     OW12197  13.789  14.413   9.031
36767SOL    HW112198  13.716  14.359   9.000
36767SOL    HW212199  13.768  14.433   9.122
36768SOL     OW12200   6.796  13.213  14.504
36768SOL    HW112201   6.854  13.172  14.440
36768SOL    HW212202   6.732  13.260  14.452
36769SOL     OW12203   6.561   2.599   8.110
36769SOL    HW112204   6.633   2.658   8.135
36769SOL    HW212205   6.493   2.657   8.076
36770SOL     OW12206   2.092   6.947   4.799
36770SOL    HW112207   2.015   6.980   4.845
36770SOL    HW212208   2.114   6.866   4.844
36771SOL     OW12209   4.900  14.352   0.169
36771SOL    HW112210   4.852  14.424   0.209
36771SOL    HW212211   4.984  14.391   0.143
36772SOL     OW12212   7.560  10.858   5.535
36772SOL    HW112213   7.497  10.794   5.570
36772SOL    HW212214   7.569  10.924   5.604
36773SOL     OW12215   3.694   1.675   0.006
36773SOL    HW112216   3.708   1.712  14.801
36773SOL    HW212217   3.651   1.591  14.872
36774SOL     OW12218  12.738   4.451   3.915
36774SOL    HW112219  12.826   4.412   3.921
36774SOL    HW212220  12.752   4.545   3.920
36775SOL     OW12221   6.481   5.951  11.826
36775SOL    HW112222   6.568   5.945  11.785
36775SOL    HW212223   6.428   5.996  11.761
36776SOL     OW12224  10.830  13.076   5.291
36776SOL    HW112225  10.759  13.137   5.272
36776SOL    HW212226  10.820  13.006   5.227
36777SOL     OW12227   3.742  11.079   6.989
36777SOL    HW112228   3.765  11.172   6.984
36777SOL    HW212229   3.649  11.076   6.967
36778SOL     OW12230   8.938   7.168   0.233
36778SOL    HW112231   8.934   7.088   0.180
36778SOL    HW212232   8.961   7.137   0.320
36779SOL     OW12233   1.545  11.957  12.642
36779SOL    HW112234   1.578  12.046  12.651
36779SOL    HW212235   1.553  11.939  12.548
36780SOL     OW12236  14.205  11.282   9.308
36780SOL    HW112237  14.157  11.358   9.339
36780SOL    HW212238  14.290  11.287   9.352
36781SOL     OW12239   2.993   5.794   4.659
36781SOL    HW112240   3.041   5.867   4.698
36781SOL    HW212241   3.007   5.803   4.565
36782SOL     OW12242   9.199  11.327  14.078
36782SOL    HW112243   9.250  11.383  14.136
36782SOL    HW212244   9.216  11.361  13.990
36783SOL     OW12245   6.154   5.790   1.869
36783SOL    HW112246   6.245   5.761   1.871
36783SOL    HW212247   6.106   5.715   1.835
36784SOL     OW12248   1.233  13.730   4.738
36784SOL    HW112249   1.194  13.712   4.653
36784SOL    HW212250   1.300  13.796   4.721
36785SOL     OW12251  14.736   2.094   6.370
36785SOL    HW112252  14.829   2.090   6.394
36785SOL    HW212253  14.736   2.093   6.274
36786SOL     OW12254   3.392  11.308  10.478
36786SOL    HW112255   3.413  11.394  10.442
36786SOL    HW212256   3.366  11.255  10.403
36787SOL     OW12257  14.536   8.522  11.895
36787SOL    HW112258  14.573   8.510  11.983
36787SOL    HW212259  14.600   8.482  11.837
36788SOL     OW12260  10.163   1.682   8.535
36788SOL    HW112261  10.096   1.646   8.592
36788SOL    HW212262  10.243   1.681   8.587
36789SOL     OW12263   1.450   4.301  13.742
36789SOL    HW112264   1.469   4.385  13.700
36789SOL    HW212265   1.355   4.300  13.751
36790SOL     OW12266   5.682  14.366   0.409
36790SOL    HW112267   5.760  14.398   0.364
36790SOL    HW212268   5.707  14.280   0.443
36791SOL     OW12269   5.418   6.714   4.862
36791SOL    HW112270   5.509   6.745   4.864
36791SOL    HW212271   5.383   6.735   4.949
36792SOL     OW12272   5.422   0.529   4.686
36792SOL    HW112273   5.382   0.577   4.759
36792SOL    HW212274   5.440   0.442   4.723
36793SOL     OW12275   8.835  14.297  11.456
36793SOL    HW112276   8.881  14.215  11.437
36793SOL    HW212277   8.766  14.272  11.517
36794SOL     OW12278  10.048   1.109  14.122
36794SOL    HW112279  10.094   1.033  14.086
36794SOL    HW212280  10.106   1.144  14.189
36795SOL     OW12281   5.540   2.213   6.509
36795SOL    HW112282   5.483   2.276   6.553
36795SOL    HW212283   5.557   2.146   6.575
36796SOL     OW12284  10.922   0.713   4.092
36796SOL    HW112285  10.943   0.736   4.183
36796SOL    HW212286  10.833   0.677   4.097
36797SOL     OW12287   1.165  10.798  10.022
36797SOL    HW112288   1.142  10.886   9.991
36797SOL    HW212289   1.089  10.769  10.072
36798SOL     OW12290   0.770   6.203   6.348
36798SOL    HW112291   0.835   6.247   6.402
36798SOL    HW212292   0.687   6.243   6.375
36799SOL     OW12293   4.430   9.636  13.895
36799SOL    HW112294   4.505   9.693  13.878
36799SOL    HW212295   4.423   9.582  13.816
36800SOL     OW12296   6.529  12.188   6.385
36800SOL    HW112297   6.567  12.131   6.451
36800SOL    HW212298   6.593  12.258   6.374
36801SOL     OW12299   4.247   2.220  10.246
36801SOL    HW112300   4.253   2.315  10.235
36801SOL    HW212301   4.154   2.201  10.246
36802SOL     OW12302   5.695   4.011   2.873
36802SOL    HW112303   5.672   3.966   2.792
36802SOL    HW212304   5.787   4.035   2.863
36803SOL     OW12305   7.932   1.094   2.369
36803SOL    HW112306   7.866   1.027   2.352
36803SOL    HW212307   7.891   1.153   2.432
36804SOL     OW12308  12.147   6.339   5.297
36804SOL    HW112309  12.156   6.393   5.376
36804SOL    HW212310  12.122   6.253   5.330
36805SOL     OW12311  10.580  10.021   3.827
36805SOL    HW112312  10.632   9.993   3.751
36805SOL    HW212313  10.645  10.040   3.894
36806SOL     OW12314   2.014   5.371   2.446
36806SOL    HW112315   1.978   5.444   2.394
36806SOL    HW212316   2.109   5.381   2.439
36807SOL     OW12317   8.952   7.659   7.120
36807SOL    HW112318   8.984   7.726   7.181
36807SOL    HW212319   9.008   7.668   7.043
36808SOL     OW12320   3.332   6.684   2.126
36808SOL    HW112321   3.363   6.604   2.084
36808SOL    HW212322   3.367   6.754   2.072
36809SOL     OW12323  14.357   0.334   6.783
36809SOL    HW112324  14.436   0.290   6.813
36809SOL    HW212325  14.388   0.402   6.723
36810SOL     OW12326   3.987  12.210   2.744
36810SOL    HW112327   3.937  12.180   2.820
36810SOL    HW212328   4.059  12.261   2.781
36811SOL     OW12329  10.088   0.438  14.549
36811SOL    HW112330  10.162   0.408  14.495
36811SOL    HW212331  10.125   0.450  14.637
36812SOL     OW12332   3.798   2.806  13.247
36812SOL    HW112333   3.853   2.776  13.175
36812SOL    HW212334   3.854   2.867  13.296
36813SOL     OW12335   5.304  13.123   1.618
36813SOL    HW112336   5.300  13.028   1.632
36813SOL    HW212337   5.398  13.141   1.609
36814SOL     OW12338   4.537  11.122   3.664
36814SOL    HW112339   4.462  11.080   3.622
36814SOL    HW212340   4.599  11.136   3.592
36815SOL     OW12341   9.444  12.178  14.028
36815SOL    HW112342   9.477  12.103  14.078
36815SOL    HW212343   9.357  12.194  14.065
36816SOL     OW12344   9.703  14.873   5.924
36816SOL    HW112345   9.732  14.824   5.848
36816SOL    HW212346   9.777   0.049   5.944
36817SOL     OW12347  14.413   4.523   4.911
36817SOL    HW112348  14.458   4.597   4.953
36817SOL    HW212349  14.446   4.446   4.958
36818SOL     OW12350  14.848   3.059  11.013
36818SOL    HW112351   0.057   3.040  11.033
36818SOL    HW212352  14.848   3.083  10.921
36819SOL     OW12353   3.172   7.875   0.988
36819SOL    HW112354   3.261   7.848   1.012
36819SOL    HW212355   3.182   7.920   0.904
36820SOL     OW12356  13.998   1.148  11.991
36820SOL    HW112357  13.931   1.165  12.057
36820SOL    HW212358  13.970   1.198  11.914
36821SOL     OW12359   9.907   7.300   2.861
36821SOL    HW112360   9.896   7.331   2.772
36821SOL    HW212361   9.984   7.243   2.858
36822SOL     OW12362  11.653  13.419  12.413
36822SOL    HW112363  11.671  13.510  12.436
36822SOL    HW212364  11.696  13.368  12.481
36823SOL     OW12365  12.374   0.006   1.365
36823SOL    HW112366  12.348   0.092   1.333
36823SOL    HW212367  12.413   0.023   1.451
36824SOL     OW12368  10.166   3.969   7.409
36824SOL    HW112369  10.226   3.896   7.393
36824SOL    HW212370  10.211   4.046   7.375
36825SOL     OW12371  13.116   9.758   1.468
36825SOL    HW112372  13.030   9.785   1.437
36825SOL    HW212373  13.159   9.840   1.493
36826SOL     OW12374   4.892  14.635   0.291
36826SOL    HW112375   4.861  14.673   0.209
36826SOL    HW212376   4.985  14.656   0.293
36827SOL     OW12377   9.929  10.687   1.688
36827SOL    HW112378   9.868  10.755   1.716
36827SOL    HW212379   9.942  10.704   1.595
36828SOL     OW12380   2.631   9.245   8.603
36828SOL    HW112381   2.634   9.162   8.556
36828SOL    HW212382   2.544   9.280   8.584
36829SOL     OW12383  12.998   9.562   3.399
36829SOL    HW112384  13.074   9.527   3.445
36829SOL    HW212385  13.028   9.572   3.308
36830SOL     OW12386   2.517  12.445   6.236
36830SOL    HW112387   2.543  12.379   6.300
36830SOL    HW212388   2.510  12.527   6.287
36831SOL     OW12389   2.569  13.663   0.109
36831SOL    HW112390   2.593  13.740   0.160
36831SOL    HW212391   2.476  13.649   0.127
36832SOL     OW12392   7.583   6.285   8.536
36832SOL    HW112393   7.675   6.313   8.536
36832SOL    HW212394   7.582   6.205   8.483
36833SOL     OW12395   0.572   1.432   7.302
36833SOL    HW112396   0.520   1.494   7.353
36833SOL    HW212397   0.638   1.486   7.258
36834SOL     OW12398  10.649   8.805   1.824
36834SOL    HW112399  10.587   8.808   1.897
36834SOL    HW212400  10.602   8.759   1.754
36835SOL     OW12401   0.726  13.300  11.381
36835SOL    HW112402   0.674  13.221  11.394
36835SOL    HW212403   0.809  13.282  11.426
36836SOL     OW12404   2.962   2.695   8.985
36836SOL    HW112405   3.003   2.689   9.071
36836SOL    HW212406   3.033   2.678   8.923
36837SOL     OW12407   3.669   2.391   9.772
36837SOL    HW112408   3.763   2.376   9.787
36837SOL    HW212409   3.660   2.486   9.768
36838SOL     OW12410   6.108  10.020   4.301
36838SOL    HW112411   6.042  10.020   4.370
36838SOL    HW212412   6.068   9.974   4.228
36839SOL     OW12413   7.873   3.363   4.036
36839SOL    HW112414   7.853   3.453   4.009
36839SOL    HW212415   7.789   3.327   4.063
36840SOL     OW12416   6.858   9.531  11.947
36840SOL    HW112417   6.810   9.556  12.025
36840SOL    HW212418   6.927   9.597  11.938
36841SOL     OW12419   0.326  14.814  11.258
36841SOL    HW112420   0.367  14.810  11.172
36841SOL    HW212421   0.308  14.722  11.280
36842SOL     OW12422   2.891   2.749  10.109
36842SOL    HW112423   2.896   2.833  10.156
36842SOL    HW212424   2.826   2.764  10.041
36843SOL     OW12425  13.448   5.748  13.748
36843SOL    HW112426  13.481   5.728  13.835
36843SOL    HW212427  13.408   5.667  13.717
36844SOL     OW12428   5.975   0.942   5.982
36844SOL    HW112429   6.034   0.875   6.018
36844SOL    HW212430   5.929   0.977   6.058
36845SOL     OW12431  12.686   8.883   9.574
36845SOL    HW112432  12.635   8.838   9.641
36845SOL    HW212433  12.760   8.920   9.621
36846SOL     OW12434   0.307   2.906   7.307
36846SOL    HW112435   0.292   3.000   7.295
36846SOL    HW212436   0.398   2.893   7.281
36847SOL     OW12437   5.641   6.684  11.056
36847SOL    HW112438   5.709   6.642  11.109
36847SOL    HW212439   5.599   6.612  11.009
36848SOL     OW12440  12.533  12.475  11.872
36848SOL    HW112441  12.610  12.418  11.877
36848SOL    HW212442  12.567  12.563  11.890
36849SOL     OW12443   9.623   2.126  13.868
36849SOL    HW112444   9.669   2.178  13.935
36849SOL    HW212445   9.684   2.057  13.845
36850SOL     OW12446   4.259   8.263  13.256
36850SOL    HW112447   4.223   8.297  13.337
36850SOL    HW212448   4.353   8.283  13.260
36851SOL     OW12449   6.979   4.725   3.059
36851SOL    HW112450   7.023   4.801   3.021
36851SOL    HW212451   7.012   4.650   3.009
36852SOL     OW12452  12.194   7.184   1.296
36852SOL    HW112453  12.229   7.195   1.385
36852SOL    HW212454  12.173   7.091   1.290
36853SOL     OW12455  12.653  14.581   0.336
36853SOL    HW112456  12.661  14.488   0.357
36853SOL    HW212457  12.608  14.619   0.411
36854SOL     OW12458   6.975  10.217  14.315
36854SOL    HW112459   7.019  10.248  14.395
36854SOL    HW212460   6.992  10.122  14.314
36855SOL     OW12461   0.826   8.354  14.093
36855SOL    HW112462   0.823   8.386  14.183
36855SOL    HW212463   0.735   8.346  14.067
36856SOL     OW12464  14.712   4.540  14.710
36856SOL    HW112465  14.666   4.542  14.794
36856SOL    HW212466  14.678   4.615  14.662
36857SOL     OW12467  14.016   0.763  14.440
36857SOL    HW112468  14.045   0.740  14.528
36857SOL    HW212469  13.953   0.694  14.418
36858SOL     OW12470   8.619  11.223   1.245
36858SOL    HW112471   8.661  11.234   1.159
36858SOL    HW212472   8.686  11.181   1.299
36859SOL     OW12473  12.572  12.513  13.491
36859SOL    HW112474  12.636  12.566  13.443
36859SOL    HW212475  12.564  12.433  13.440
36860SOL     OW12476   3.069   4.841   3.683
36860SOL    HW112477   3.141   4.862   3.742
36860SOL    HW212478   3.017   4.922   3.680
36861SOL     OW12479  13.668   6.971   7.485
36861SOL    HW112480  13.702   6.990   7.573
36861SOL    HW212481  13.743   6.939   7.437
36862SOL     OW12482   1.397   2.354  10.284
36862SOL    HW112483   1.360   2.390  10.203
36862SOL    HW212484   1.343   2.277  10.302
36863SOL     OW12485   9.898  10.341   3.394
36863SOL    HW112486   9.863  10.360   3.307
36863SOL    HW212487   9.993  10.342   3.383
36864SOL     OW12488   6.009   1.437   8.944
36864SOL    HW112489   5.915   1.422   8.930
36864SOL    HW212490   6.020   1.428   9.039
36865SOL     OW12491  10.537   6.984   5.897
36865SOL    HW112492  10.482   6.957   5.823
36865SOL    HW212493  10.480   7.040   5.950
36866SOL     OW12494  14.217   5.999   3.363
36866SOL    HW112495  14.246   6.086   3.393
36866SOL    HW212496  14.299   5.952   3.345
36867SOL     OW12497  12.898   3.582   6.404
36867SOL    HW112498  12.979   3.549   6.364
36867SOL    HW212499  12.884   3.667   6.362
36868SOL     OW12500   6.233  12.078   7.865
36868SOL    HW112501   6.312  12.045   7.907
36868SOL    HW212502   6.161  12.048   7.921
36869SOL     OW12503  11.100  14.666  11.882
36869SOL    HW112504  11.176  14.630  11.835
36869SOL    HW212505  11.129  14.752  11.913
36870SOL     OW12506  13.832   4.492   0.300
36870SOL    HW112507  13.770   4.494   0.373
36870SOL    HW212508  13.868   4.581   0.298
36871SOL     OW12509   2.082  14.754   8.642
36871SOL    HW112510   2.134  14.674   8.634
36871SOL    HW212511   2.146  14.824   8.651
36872SOL     OW12512   4.212  11.468  11.257
36872SOL    HW112513   4.126  11.508  11.241
36872SOL    HW212514   4.232  11.422  11.176
36873SOL     OW12515   2.249   8.786  13.566
36873SOL    HW112516   2.166   8.758  13.527
36873SOL    HW212517   2.307   8.711  13.555
36874SOL     OW12518   9.735   1.254  12.731
36874SOL    HW112519   9.748   1.160  12.740
36874SOL    HW212520   9.768   1.275  12.644
36875SOL     OW12521   5.150   6.284  10.972
36875SOL    HW112522   5.226   6.264  10.916
36875SOL    HW212523   5.173   6.368  11.013
36876SOL     OW12524   0.953   8.900   1.922
36876SOL    HW112525   0.947   8.831   1.989
36876SOL    HW212526   1.004   8.969   1.964
36877SOL     OW12527   9.318  12.469   9.619
36877SOL    HW112528   9.224  12.463   9.601
36877SOL    HW212529   9.329  12.556   9.657
36878SOL     OW12530   7.689   0.263   8.958
36878SOL    HW112531   7.611   0.297   9.001
36878SOL    HW212532   7.729   0.339   8.917
36879SOL     OW12533   5.868  14.035   1.136
36879SOL    HW112534   5.824  14.120   1.127
36879SOL    HW212535   5.937  14.037   1.070
36880SOL     OW12536   0.617  10.198  13.662
36880SOL    HW112537   0.571  10.234  13.738
36880SOL    HW212538   0.586  10.250  13.589
36881SOL     OW12539   7.668   9.575   0.492
36881SOL    HW112540   7.667   9.513   0.420
36881SOL    HW212541   7.607   9.644   0.466
36882SOL     OW12542  13.948  10.400   7.971
36882SOL    HW112543  13.853  10.403   7.962
36882SOL    HW212544  13.972  10.486   8.007
36883SOL     OW12545  14.496   9.687   1.972
36883SOL    HW112546  14.480   9.723   2.060
36883SOL    HW212547  14.591   9.693   1.960
36884SOL     OW12548   8.194   4.362   5.665
36884SOL    HW112549   8.216   4.452   5.641
36884SOL    HW212550   8.273   4.312   5.646
36885SOL     OW12551   1.882  13.608  11.835
36885SOL    HW112552   1.939  13.675  11.873
36885SOL    HW212553   1.834  13.573  11.910
36886SOL     OW12554   7.309  13.169   4.067
36886SOL    HW112555   7.371  13.173   3.993
36886SOL    HW212556   7.269  13.082   4.060
36887SOL     OW12557   7.161   4.501   8.666
36887SOL    HW112558   7.081   4.495   8.612
36887SOL    HW212559   7.169   4.595   8.685
36888SOL     OW12560   7.400   5.861   5.991
36888SOL    HW112561   7.456   5.823   6.058
36888SOL    HW212562   7.449   5.935   5.957
36889SOL     OW12563  10.511   5.909  14.016
36889SOL    HW112564  10.582   5.895  14.078
36889SOL    HW212565  10.550   5.893  13.930
36890SOL     OW12566  12.214  12.624   5.595
36890SOL    HW112567  12.247  12.678   5.523
36890SOL    HW212568  12.127  12.660   5.613
36891SOL     OW12569  11.076   7.251   7.495
36891SOL    HW112570  11.095   7.326   7.437
36891SOL    HW212571  10.989   7.270   7.531
36892SOL     OW12572   0.478   6.415  11.155
36892SOL    HW112573   0.401   6.374  11.115
36892SOL    HW212574   0.515   6.469  11.085
36893SOL     OW12575   0.666  12.281   0.108
36893SOL    HW112576   0.632  12.312   0.024
36893SOL    HW212577   0.589  12.248   0.154
36894SOL     OW12578   5.934   3.448   7.769
36894SOL    HW112579   5.881   3.368   7.773
36894SOL    HW212580   5.912   3.495   7.849
36895SOL     OW12581   3.425   2.357   8.773
36895SOL    HW112582   3.464   2.288   8.719
36895SOL    HW212583   3.388   2.311   8.848
36896SOL     OW12584  13.600   6.357   0.728
36896SOL    HW112585  13.538   6.286   0.742
36896SOL    HW212586  13.639   6.372   0.814
36897SOL     OW12587   3.706   8.691  12.822
36897SOL    HW112588   3.745   8.605  12.807
36897SOL    HW212589   3.761   8.730  12.890
36898SOL     OW12590   5.304   9.697   6.602
36898SOL    HW112591   5.365   9.639   6.557
36898SOL    HW212592   5.358   9.766   6.639
36899SOL     OW12593  14.560   0.193   1.998
36899SOL    HW112594  14.477   0.237   1.980
36899SOL    HW212595  14.540   0.100   1.992
36900SOL     OW12596   2.389   0.299   2.152
36900SOL    HW112597   2.296   0.278   2.160
36900SOL    HW212598   2.391   0.373   2.091
36901SOL     OW12599  10.682   8.732   6.068
36901SOL    HW112600  10.708   8.775   5.986
36901SOL    HW212601  10.689   8.639   6.048
36902SOL     OW12602  12.975   4.875   5.843
36902SOL    HW112603  12.919   4.852   5.917
36902SOL    HW212604  12.914   4.899   5.773
36903SOL     OW12605   0.279  10.848  11.856
36903SOL    HW112606   0.220  10.869  11.929
36903SOL    HW212607   0.337  10.780  11.891
36904SOL     OW12608   7.377  11.685   4.243
36904SOL    HW112609   7.429  11.650   4.315
36904SOL    HW212610   7.425  11.659   4.164
36905SOL     OW12611  12.134   6.919   6.338
36905SOL    HW112612  12.087   6.844   6.302
36905SOL    HW212613  12.070   6.963   6.395
36906SOL     OW12614   2.162   3.857  13.751
36906SOL    HW112615   2.212   3.837  13.830
36906SOL    HW212616   2.071   3.860  13.780
36907SOL     OW12617   0.372  12.139  14.652
36907SOL    HW112618   0.332  12.134  14.565
36907SOL    HW212619   0.297  12.143  14.712
36908SOL     OW12620   9.354   9.105   4.412
36908SOL    HW112621   9.405   9.045   4.466
36908SOL    HW212622   9.408   9.183   4.405
36909SOL     OW12623   7.126   4.928  14.321
36909SOL    HW112624   7.080   4.856  14.277
36909SOL    HW212625   7.140   4.897  14.410
36910SOL     OW12626  11.977   2.090  10.606
36910SOL    HW112627  12.017   2.173  10.630
36910SOL    HW212628  12.006   2.028  10.673
36911SOL     OW12629   9.503  14.485   8.226
36911SOL    HW112630   9.523  14.578   8.227
36911SOL    HW212631   9.423  14.478   8.175
36912SOL     OW12632   1.572   9.899   3.032
36912SOL    HW112633   1.618   9.983   3.032
36912SOL    HW212634   1.579   9.867   3.122
36913SOL     OW12635  13.950   4.053  12.308
36913SOL    HW112636  13.974   4.121  12.370
36913SOL    HW212637  14.033   4.008  12.289
36914SOL     OW12638   6.023  12.011  10.417
36914SOL    HW112639   6.055  12.025  10.327
36914SOL    HW212640   6.005  12.099  10.450
36915SOL     OW12641  10.950   3.896   3.432
36915SOL    HW112642  10.856   3.885   3.417
36915SOL    HW212643  10.956   3.924   3.524
36916SOL     OW12644   0.674  12.508  13.543
36916SOL    HW112645   0.691  12.596  13.575
36916SOL    HW212646   0.603  12.518  13.480
36917SOL     OW12647  13.065   8.189  12.666
36917SOL    HW112648  13.087   8.237  12.586
36917SOL    HW212649  12.980   8.151  12.649
36918SOL     OW12650   0.253   2.849   9.297
36918SOL    HW112651   0.172   2.881   9.258
36918SOL    HW212652   0.230   2.832   9.389
36919SOL     OW12653  12.245  13.860   3.766
36919SOL    HW112654  12.220  13.900   3.850
36919SOL    HW212655  12.185  13.898   3.703
36920SOL     OW12656   3.600  14.199   5.596
36920SOL    HW112657   3.576  14.209   5.688
36920SOL    HW212658   3.689  14.164   5.598
36921SOL     OW12659   5.797  14.455   4.975
36921SOL    HW112660   5.722  14.445   4.917
36921SOL    HW212661   5.761  14.448   5.063
36922SOL     OW12662  11.848  10.514  14.765
36922SOL    HW112663  11.931  10.558  14.750
36922SOL    HW212664  11.859  10.470  14.850
36923SOL     OW12665   9.165  13.321   1.613
36923SOL    HW112666   9.126  13.234   1.598
36923SOL    HW212667   9.213  13.339   1.532
36924SOL     OW12668   7.846  13.846   9.284
36924SOL    HW112669   7.856  13.759   9.244
36924SOL    HW212670   7.821  13.827   9.375
36925SOL     OW12671   0.895   9.449   0.558
36925SOL    HW112672   0.982   9.413   0.573
36925SOL    HW212673   0.835   9.381   0.590
36926SOL     OW12674   9.203   6.203  11.169
36926SOL    HW112675   9.264   6.205  11.243
36926SOL    HW212676   9.250   6.157  11.100
36927SOL     OW12677  14.008   2.474   3.153
36927SOL    HW112678  14.012   2.381   3.131
36927SOL    HW212679  13.932   2.506   3.104
36928SOL     OW12680   9.409  11.148   9.919
36928SOL    HW112681   9.417  11.109  10.006
36928SOL    HW212682   9.464  11.226   9.922
36929SOL     OW12683  11.105  11.111  12.987
36929SOL    HW112684  11.085  11.059  13.065
36929SOL    HW212685  11.048  11.188  12.995
36930SOL     OW12686   2.235   7.718   5.582
36930SOL    HW112687   2.181   7.792   5.555
36930SOL    HW212688   2.308   7.719   5.521
36931SOL     OW12689  13.735   8.454   7.131
36931SOL    HW112690  13.749   8.360   7.122
36931SOL    HW212691  13.738   8.487   7.042
36932SOL     OW12692   2.101  11.396   5.245
36932SOL    HW112693   2.095  11.356   5.158
36932SOL    HW212694   2.031  11.355   5.295
36933SOL     OW12695  10.581  14.797  10.960
36933SOL    HW112696  10.611  14.764  10.875
36933SOL    HW212697  10.486  14.797  10.953
36934SOL     OW12698   1.679  10.701  11.310
36934SOL    HW112699   1.658  10.614  11.344
36934SOL    HW212700   1.770  10.694  11.280
36935SOL     OW12701   7.590  10.615   3.037
36935SOL    HW112702   7.606  10.522   3.018
36935SOL    HW212703   7.579  10.619   3.132
36936SOL     OW12704  11.749  12.702   9.947
36936SOL    HW112705  11.724  12.611   9.927
36936SOL    HW212706  11.722  12.751   9.870
36937SOL     OW12707  13.931  12.609  13.069
36937SOL    HW112708  14.017  12.648  13.086
36937SOL    HW212709  13.945  12.555  12.991
36938SOL     OW12710  10.596   0.576   0.912
36938SOL    HW112711  10.599   0.497   0.859
36938SOL    HW212712  10.520   0.563   0.969
36939SOL     OW12713  11.020  11.669  13.133
36939SOL    HW112714  10.933  11.672  13.173
36939SOL    HW212715  11.004  11.687  13.040
36940SOL     OW12716  13.855   1.159   9.773
36940SOL    HW112717  13.812   1.151   9.688
36940SOL    HW212718  13.791   1.207   9.827
36941SOL     OW12719   9.673   0.254   7.070
36941SOL    HW112720   9.712   0.221   6.990
36941SOL    HW212721   9.696   0.190   7.137
36942SOL     OW12722   7.821   8.657   6.335
36942SOL    HW112723   7.792   8.746   6.315
36942SOL    HW212724   7.747   8.618   6.382
36943SOL     OW12725   1.093   1.756   0.445
36943SOL    HW112726   1.013   1.799   0.415
36943SOL    HW212727   1.138   1.821   0.499
36944SOL     OW12728  12.603   6.751  12.233
36944SOL    HW112729  12.660   6.729  12.308
36944SOL    HW212730  12.535   6.683  12.235
36945SOL     OW12731   2.982   0.459   3.574
36945SOL    HW112732   3.049   0.525   3.593
36945SOL    HW212733   2.947   0.485   3.489
36946SOL     OW12734   1.834   8.214   5.013
36946SOL    HW112735   1.787   8.277   5.068
36946SOL    HW212736   1.925   8.244   5.016
36947SOL     OW12737   9.641   4.326  10.813
36947SOL    HW112738   9.594   4.246  10.791
36947SOL    HW212739   9.625   4.384  10.738
36948SOL     OW12740  11.690  13.153   4.845
36948SOL    HW112741  11.771  13.145   4.896
36948SOL    HW212742  11.620  13.140   4.909
36949SOL     OW12743   0.674  13.081  13.569
36949SOL    HW112744   0.682  13.084  13.665
36949SOL    HW212745   0.627  13.161  13.546
36950SOL     OW12746   3.018   6.565   6.403
36950SOL    HW112747   3.019   6.610   6.319
36950SOL    HW212748   2.942   6.601   6.449
36951SOL     OW12749   3.326   8.131   0.546
36951SOL    HW112750   3.254   8.153   0.486
36951SOL    HW212751   3.387   8.079   0.493
36952SOL     OW12752   2.860   8.273   1.216
36952SOL    HW112753   2.827   8.271   1.306
36952SOL    HW212754   2.842   8.186   1.181
36953SOL     OW12755   7.063  10.964   0.372
36953SOL    HW112756   7.016  11.026   0.427
36953SOL    HW212757   7.144  10.946   0.419
36954SOL     OW12758   8.395   0.359  13.551
36954SOL    HW112759   8.435   0.311  13.479
36954SOL    HW212760   8.377   0.292  13.617
36955SOL     OW12761   4.983   0.083   0.361
36955SOL    HW112762   5.044   0.009   0.352
36955SOL    HW212763   4.994   0.112   0.451
36956SOL     OW12764   2.558  10.393  12.524
36956SOL    HW112765   2.557  10.476  12.571
36956SOL    HW212766   2.515  10.331  12.583
36957SOL     OW12767   6.647   4.001   3.387
36957SOL    HW112768   6.708   3.990   3.460
36957SOL    HW212769   6.611   4.089   3.399
36958SOL     OW12770  11.944   7.702  14.093
36958SOL    HW112771  12.013   7.692  14.028
36958SOL    HW212772  11.900   7.784  14.069
36959SOL     OW12773   0.852  13.352   0.779
36959SOL    HW112774   0.806  13.273   0.805
36959SOL    HW212775   0.908  13.325   0.707
36960SOL     OW12776   0.425   9.084   9.445
36960SOL    HW112777   0.477   9.116   9.371
36960SOL    HW212778   0.412   9.160   9.500
36961SOL     OW12779  12.412   3.977  13.155
36961SOL    HW112780  12.444   4.058  13.115
36961SOL    HW212781  12.395   4.000  13.246
36962SOL     OW12782  11.997  10.537   3.934
36962SOL    HW112783  12.070  10.594   3.959
36962SOL    HW212784  12.015  10.454   3.978
36963SOL     OW12785  10.979  11.221   8.611
36963SOL    HW112786  10.896  11.266   8.595
36963SOL    HW212787  10.978  11.147   8.550
36964SOL     OW12788   7.888  13.162   6.578
36964SOL    HW112789   7.967  13.117   6.609
36964SOL    HW212790   7.881  13.238   6.636
36965SOL     OW12791   2.852   4.564  10.103
36965SOL    HW112792   2.926   4.529  10.052
36965SOL    HW212793   2.836   4.650  10.065
36966SOL     OW12794  14.627   6.128   7.400
36966SOL    HW112795  14.670   6.043   7.404
36966SOL    HW212796  14.695   6.187   7.367
36967SOL     OW12797  13.770   3.238  14.596
36967SOL    HW112798  13.686   3.284  14.590
36967SOL    HW212799  13.829   3.287  14.539
36968SOL     OW12800   2.282  12.734   9.191
36968SOL    HW112801   2.212  12.797   9.175
36968SOL    HW212802   2.327  12.768   9.268
36969SOL     OW12803   4.714  10.366   2.456
36969SOL    HW112804   4.674  10.296   2.405
36969SOL    HW212805   4.680  10.354   2.544
36970SOL     OW12806   5.841  11.609   3.334
36970SOL    HW112807   5.747  11.628   3.335
36970SOL    HW212808   5.856  11.556   3.412
36971SOL     OW12809   5.462   1.584   3.317
36971SOL    HW112810   5.435   1.570   3.408
36971SOL    HW212811   5.387   1.558   3.265
36972SOL     OW12812   2.635   0.247  12.431
36972SOL    HW112813   2.609   0.254  12.339
36972SOL    HW212814   2.616   0.156  12.454
36973SOL     OW12815  14.280  12.231   3.433
36973SOL    HW112816  14.273  12.136   3.446
36973SOL    HW212817  14.374  12.247   3.426
36974SOL     OW12818   5.860  12.831   8.568
36974SOL    HW112819   5.783  12.792   8.527
36974SOL    HW212820   5.899  12.884   8.499
36975SOL     OW12821   2.887   4.664   5.503
36975SOL    HW112822   2.819   4.711   5.551
36975SOL    HW212823   2.969   4.700   5.537
36976SOL     OW12824  12.940   5.089  12.653
36976SOL    HW112825  12.960   5.036  12.729
36976SOL    HW212826  13.004   5.062  12.587
36977SOL     OW12827   7.349   8.684   2.712
36977SOL    HW112828   7.339   8.766   2.663
36977SOL    HW212829   7.417   8.636   2.666
36978SOL     OW12830   0.282  12.285   9.806
36978SOL    HW112831   0.271  12.243   9.721
36978SOL    HW212832   0.376  12.297   9.815
36979SOL     OW12833   8.075   3.629   6.131
36979SOL    HW112834   8.156   3.577   6.131
36979SOL    HW212835   8.052   3.639   6.039
36980SOL     OW12836  14.280   9.767  12.528
36980SOL    HW112837  14.281   9.846  12.474
36980SOL    HW212838  14.353   9.778  12.589
36981SOL     OW12839   8.848  10.324  14.870
36981SOL    HW112840   8.901  10.277  14.806
36981SOL    HW212841   8.797  10.256   0.032
36982SOL     OW12842  12.491   1.180  13.724
36982SOL    HW112843  12.400   1.202  13.745
36982SOL    HW212844  12.486   1.137  13.639
36983SOL     OW12845  14.414   0.169   8.566
36983SOL    HW112846  14.457   0.179   8.651
36983SOL    HW212847  14.396   0.259   8.538
36984SOL     OW12848   4.511  11.936  14.098
36984SOL    HW112849   4.421  11.968  14.105
36984SOL    HW212850   4.504  11.853  14.052
36985SOL     OW12851   6.562   1.974   8.366
36985SOL    HW112852   6.638   1.924   8.396
36985SOL    HW212853   6.595   2.026   8.293
36986SOL     OW12854   0.428   2.405   1.408
36986SOL    HW112855   0.519   2.425   1.385
36986SOL    HW212856   0.425   2.412   1.503
36987SOL     OW12857   9.735  12.810   3.805
36987SOL    HW112858   9.641  12.806   3.787
36987SOL    HW212859   9.775  12.831   3.721
36988SOL     OW12860   6.402   4.707   4.128
36988SOL    HW112861   6.418   4.802   4.126
36988SOL    HW212862   6.358   4.689   4.045
36989SOL     OW12863   0.239   4.174  11.143
36989SOL    HW112864   0.165   4.233  11.154
36989SOL    HW212865   0.277   4.166  11.230
36990SOL     OW12866   5.268   1.014   2.862
36990SOL    HW112867   5.226   0.929   2.867
36990SOL    HW212868   5.341   1.010   2.923
36991SOL     OW12869   3.374   3.364  12.826
36991SOL    HW112870   3.396   3.416  12.903
36991SOL    HW212871   3.431   3.397  12.757
36992SOL     OW12872   3.916   2.421   4.257
36992SOL    HW112873   3.991   2.395   4.311
36992SOL    HW212874   3.955   2.459   4.178
36993SOL     OW12875  10.485  13.637  14.129
36993SOL    HW112876  10.537  13.575  14.078
36993SOL    HW212877  10.550  13.686  14.180
36994SOL     OW12878  11.946  12.490   8.662
36994SOL    HW112879  11.993  12.573   8.671
36994SOL    HW212880  11.990  12.431   8.722
36995SOL     OW12881   4.720   4.806   3.059
36995SOL    HW112882   4.637   4.854   3.069
36995SOL    HW212883   4.706   4.725   3.109
36996SOL     OW12884   3.399   3.869   8.659
36996SOL    HW112885   3.352   3.787   8.644
36996SOL    HW212886   3.332   3.936   8.656
36997SOL     OW12887   6.471   3.077   7.241
36997SOL    HW112888   6.430   3.048   7.159
36997SOL    HW212889   6.423   3.157   7.264
36998SOL     OW12890   8.401   1.236  11.119
36998SOL    HW112891   8.406   1.263  11.210
36998SOL    HW212892   8.490   1.244  11.086
36999SOL     OW12893   6.167   9.506   0.277
36999SOL    HW112894   6.212   9.488   0.360
36999SOL    HW212895   6.117   9.586   0.294
37000SOL     OW12896   3.371   4.892   2.633
37000SOL    HW112897   3.342   4.801   2.635
37000SOL    HW212898   3.291   4.942   2.650
37001SOL     OW12899  11.946   7.504   1.177
37001SOL    HW112900  11.976   7.592   1.155
37001SOL    HW212901  11.997   7.480   1.255
37002SOL     OW12902   2.711   0.418   4.648
37002SOL    HW112903   2.645   0.401   4.581
37002SOL    HW212904   2.773   0.477   4.605
37003SOL     OW12905   2.453   1.764  12.546
37003SOL    HW112906   2.385   1.818  12.505
37003SOL    HW212907   2.528   1.773  12.488
37004SOL     OW12908   8.710   1.066   1.501
37004SOL    HW112909   8.727   1.147   1.453
37004SOL    HW212910   8.792   1.047   1.545
37005SOL     OW12911   0.470   5.271  11.678
37005SOL    HW112912   0.529   5.217  11.732
37005SOL    HW212913   0.389   5.275  11.728
37006SOL     OW12914  12.548  14.748   0.523
37006SOL    HW112915  12.474  14.748   0.583
37006SOL    HW212916  12.531  14.822   0.465
37007SOL     OW12917   2.422   3.700   6.735
37007SOL    HW112918   2.500   3.725   6.785
37007SOL    HW212919   2.385   3.783   6.705
37008SOL     OW12920   7.074  11.247  12.188
37008SOL    HW112921   7.049  11.253  12.280
37008SOL    HW212922   7.144  11.183  12.186
37009SOL     OW12923   1.279   9.578  11.040
37009SOL    HW112924   1.303   9.511  10.975
37009SOL    HW212925   1.228   9.642  10.990
37010SOL     OW12926   2.453   0.133  13.644
37010SOL    HW112927   2.451   0.229  13.642
37010SOL    HW212928   2.369   0.107  13.607
37011SOL     OW12929   2.287   8.461   2.015
37011SOL    HW112930   2.293   8.556   2.011
37011SOL    HW212931   2.350   8.435   2.083
37012SOL     OW12932   2.986   1.479   5.955
37012SOL    HW112933   3.050   1.550   5.962
37012SOL    HW212934   2.976   1.448   6.045
37013SOL     OW12935  12.920   2.112  12.984
37013SOL    HW112936  12.971   2.138  13.061
37013SOL    HW212937  12.973   2.044  12.942
37014SOL     OW12938   9.114  12.259   4.126
37014SOL    HW112939   9.195  12.212   4.146
37014SOL    HW212940   9.064  12.256   4.208
37015SOL     OW12941   4.116   6.771   8.506
37015SOL    HW112942   4.061   6.826   8.452
37015SOL    HW212943   4.138   6.825   8.582
37016SOL     OW12944   6.941   1.866   6.176
37016SOL    HW112945   6.903   1.948   6.209
37016SOL    HW212946   6.886   1.842   6.102
37017SOL     OW12947  13.579   4.947   2.252
37017SOL    HW112948  13.640   4.986   2.314
37017SOL    HW212949  13.536   4.876   2.300
37018SOL     OW12950   2.803   9.293   3.721
37018SOL    HW112951   2.870   9.226   3.714
37018SOL    HW212952   2.728   9.248   3.760
37019SOL     OW12953   3.704   4.453   2.222
37019SOL    HW112954   3.758   4.530   2.206
37019SOL    HW212955   3.677   4.462   2.314
37020SOL     OW12956   3.845   4.372   8.721
37020SOL    HW112957   3.884   4.288   8.698
37020SOL    HW212958   3.795   4.397   8.643
37021SOL     OW12959   7.812   8.751   9.205
37021SOL    HW112960   7.726   8.790   9.190
37021SOL    HW212961   7.824   8.691   9.131
37022SOL     OW12962   2.837   5.300   1.996
37022SOL    HW112963   2.860   5.243   2.069
37022SOL    HW212964   2.907   5.364   1.992
37023SOL     OW12965   1.242  12.302   8.456
37023SOL    HW112966   1.299  12.374   8.484
37023SOL    HW212967   1.296  12.249   8.399
37024SOL     OW12968   2.226   6.656   7.204
37024SOL    HW112969   2.172   6.675   7.281
37024SOL    HW212970   2.186   6.577   7.166
37025SOL     OW12971  11.759   6.693  13.568
37025SOL    HW112972  11.840   6.695  13.518
37025SOL    HW212973  11.690   6.685  13.502
37026SOL     OW12974   6.468   8.948   7.681
37026SOL    HW112975   6.425   9.020   7.729
37026SOL    HW212976   6.437   8.869   7.725
37027SOL     OW12977   2.898   1.026   8.994
37027SOL    HW112978   2.861   1.001   9.078
37027SOL    HW212979   2.991   1.002   9.000
37028SOL     OW12980   2.300  13.225  14.377
37028SOL    HW112981   2.303  13.164  14.303
37028SOL    HW212982   2.331  13.173  14.452
37029SOL     OW12983   5.646  13.570   0.342
37029SOL    HW112984   5.711  13.501   0.328
37029SOL    HW212985   5.688  13.650   0.313
37030SOL     OW12986   9.325  12.131   0.924
37030SOL    HW112987   9.341  12.225   0.913
37030SOL    HW212988   9.319  12.119   1.019
37031SOL     OW12989  13.239  13.896   0.568
37031SOL    HW112990  13.228  13.826   0.504
37031SOL    HW212991  13.333  13.898   0.586
37032SOL     OW12992  10.578  13.997  12.853
37032SOL    HW112993  10.574  14.061  12.782
37032SOL    HW212994  10.670  13.969  12.856
37033SOL     OW12995   6.733   1.391   0.450
37033SOL    HW112996   6.667   1.460   0.446
37033SOL    HW212997   6.764   1.383   0.360
37034SOL     OW12998   4.678   2.968   6.520
37034SOL    HW112999   4.593   2.922   6.518
37034SOL    HW213000   4.727   2.932   6.447
37035SOL     OW13001   0.161  11.351   7.966
37035SOL    HW113002   0.241  11.324   7.921
37035SOL    HW213003   0.092  11.341   7.900
37036SOL     OW13004   5.636   0.877   0.583
37036SOL    HW113005   5.593   0.891   0.498
37036SOL    HW213006   5.564   0.875   0.646
37037SOL     OW13007  11.510   1.221   6.466
37037SOL    HW113008  11.464   1.297   6.500
37037SOL    HW213009  11.556   1.254   6.389
37038SOL     OW13010   3.442   9.641   3.916
37038SOL    HW113011   3.406   9.729   3.902
37038SOL    HW213012   3.534   9.649   3.891
37039SOL     OW13013  11.182   5.881   1.858
37039SOL    HW113014  11.247   5.911   1.922
37039SOL    HW213015  11.097   5.901   1.899
37040SOL     OW13016  13.460   8.566  10.947
37040SOL    HW113017  13.408   8.565  11.027
37040SOL    HW213018  13.529   8.502  10.962
37041SOL     OW13019  12.709  13.276   3.257
37041SOL    HW113020  12.670  13.189   3.249
37041SOL    HW213021  12.784  13.263   3.316
37042SOL     OW13022  14.544   6.754   2.580
37042SOL    HW113023  14.568   6.688   2.515
37042SOL    HW213024  14.619   6.814   2.582
37043SOL     OW13025  14.199   9.417   3.486
37043SOL    HW113026  14.255   9.454   3.553
37043SOL    HW213027  14.127   9.479   3.477
37044SOL     OW13028   5.462  10.870   4.766
37044SOL    HW113029   5.440  10.785   4.727
37044SOL    HW213030   5.442  10.933   4.697
37045SOL     OW13031   2.507   8.788   2.182
37045SOL    HW113032   2.560   8.807   2.105
37045SOL    HW213033   2.416   8.792   2.151
37046SOL     OW13034   9.099   3.993   0.663
37046SOL    HW113035   9.059   3.916   0.704
37046SOL    HW213036   9.093   3.976   0.569
37047SOL     OW13037   2.661   1.498   9.899
37047SOL    HW113038   2.707   1.417   9.880
37047SOL    HW213039   2.680   1.517   9.991
37048SOL     OW13040   7.691   2.660   5.340
37048SOL    HW113041   7.684   2.598   5.267
37048SOL    HW213042   7.733   2.610   5.410
37049SOL     OW13043   5.569  11.771  14.851
37049SOL    HW113044   5.583  11.753  14.758
37049SOL    HW213045   5.580  11.865  14.859
37050SOL     OW13046   9.266  13.036   7.910
37050SOL    HW113047   9.286  13.117   7.864
37050SOL    HW213048   9.349  12.989   7.914
37051SOL     OW13049  10.378  13.914  14.881
37051SOL    HW113050  10.412  13.892  14.795
37051SOL    HW213051  10.360  14.008  14.877
37052SOL     OW13052   3.607  12.558   9.131
37052SOL    HW113053   3.616  12.496   9.058
37052SOL    HW213054   3.633  12.507   9.208
37053SOL     OW13055  13.988   6.178   2.731
37053SOL    HW113056  14.019   6.170   2.821
37053SOL    HW213057  14.068   6.175   2.678
37054SOL     OW13058  10.686  12.826   7.140
37054SOL    HW113059  10.698  12.831   7.235
37054SOL    HW213060  10.740  12.897   7.106
37055SOL     OW13061  10.912   9.818  11.068
37055SOL    HW113062  10.853   9.821  11.143
37055SOL    HW213063  10.962   9.900  11.072
37056SOL     OW13064  14.581   0.693  10.034
37056SOL    HW113065  14.590   0.721  10.125
37056SOL    HW213066  14.649   0.740   9.987
37057SOL     OW13067  11.229   9.416   0.863
37057SOL    HW113068  11.216   9.322   0.854
37057SOL    HW213069  11.194   9.452   0.781
37058SOL     OW13070  11.696  12.968   4.494
37058SOL    HW113071  11.743  13.050   4.511
37058SOL    HW213072  11.686  12.928   4.580
37059SOL     OW13073   5.119   0.954   6.107
37059SOL    HW113074   5.112   1.033   6.053
37059SOL    HW213075   5.095   0.882   6.049
37060SOL     OW13076   8.593  11.298  10.168
37060SOL    HW113077   8.596  11.203  10.155
37060SOL    HW213078   8.503  11.322  10.143
37061SOL     OW13079  12.470  11.908   0.550
37061SOL    HW113080  12.404  11.878   0.488
37061SOL    HW213081  12.424  11.973   0.604
37062SOL     OW13082  14.068   1.305   2.172
37062SOL    HW113083  14.087   1.399   2.171
37062SOL    HW213084  14.050   1.286   2.265
37063SOL     OW13085   9.535  14.388   7.374
37063SOL    HW113086   9.586  14.459   7.414
37063SOL    HW213087   9.571  14.308   7.412
37064SOL     OW13088  14.846   0.942   0.405
37064SOL    HW113089   0.059   0.947   0.394
37064SOL    HW213090  14.826   0.848   0.398
37065SOL     OW13091   8.468  10.291   1.621
37065SOL    HW113092   8.498  10.204   1.595
37065SOL    HW213093   8.546  10.335   1.654
37066SOL     OW13094   6.804   5.746   7.230
37066SOL    HW113095   6.723   5.746   7.282
37066SOL    HW213096   6.818   5.654   7.208
37067SOL     OW13097   2.079   5.811   9.433
37067SOL    HW113098   2.002   5.862   9.460
37067SOL    HW213099   2.063   5.790   9.341
37068SOL     OW13100   8.174  10.315   8.781
37068SOL    HW113101   8.174  10.375   8.855
37068SOL    HW213102   8.122  10.359   8.714
37069SOL     OW13103  14.808  12.359   4.781
37069SOL    HW113104   0.002  12.334   4.833
37069SOL    HW213105  14.791  12.450   4.807
37070SOL     OW13106  11.418   9.808  13.326
37070SOL    HW113107  11.433   9.823  13.232
37070SOL    HW213108  11.403   9.714  13.333
37071SOL     OW13109  12.966   7.283  13.567
37071SOL    HW113110  13.036   7.221  13.544
37071SOL    HW213111  12.912   7.288  13.488
37072SOL     OW13112   2.702   9.620  12.998
37072SOL    HW113113   2.692   9.547  13.060
37072SOL    HW213114   2.624   9.616  12.944
37073SOL     OW13115   2.297   5.365  13.674
37073SOL    HW113116   2.268   5.360  13.583
37073SOL    HW213117   2.386   5.399  13.670
37074SOL     OW13118   1.550   8.795   6.789
37074SOL    HW113119   1.495   8.726   6.753
37074SOL    HW213120   1.570   8.852   6.715
37075SOL     OW13121   6.255   6.140   4.455
37075SOL    HW113122   6.232   6.230   4.434
37075SOL    HW213123   6.258   6.138   4.551
37076SOL     OW13124   2.341   4.228   1.572
37076SOL    HW113125   2.266   4.228   1.631
37076SOL    HW213126   2.365   4.321   1.565
37077SOL     OW13127   8.066  11.376   2.057
37077SOL    HW113128   8.124  11.450   2.039
37077SOL    HW213129   8.053  11.335   1.972
37078SOL     OW13130  10.667   5.261  10.379
37078SOL    HW113131  10.625   5.340  10.410
37078SOL    HW213132  10.758   5.287  10.361
37079SOL     OW13133   8.489   7.553   2.126
37079SOL    HW113134   8.452   7.479   2.175
37079SOL    HW213135   8.540   7.602   2.191
37080SOL     OW13136   0.353   7.876  12.998
37080SOL    HW113137   0.327   7.919  13.080
37080SOL    HW213138   0.291   7.910  12.933
37081SOL     OW13139   9.279   6.658   2.818
37081SOL    HW113140   9.303   6.577   2.864
37081SOL    HW213141   9.211   6.697   2.874
37082SOL     OW13142   5.410  12.046   1.714
37082SOL    HW113143   5.393  12.100   1.791
37082SOL    HW213144   5.505  12.044   1.705
37083SOL     OW13145  13.084   1.555   4.861
37083SOL    HW113146  13.111   1.545   4.770
37083SOL    HW213147  13.140   1.495   4.910
37084SOL     OW13148   1.798   0.843   8.899
37084SOL    HW113149   1.862   0.912   8.918
37084SOL    HW213150   1.847   0.780   8.845
37085SOL     OW13151   7.792  10.504  11.258
37085SOL    HW113152   7.787  10.594  11.291
37085SOL    HW213153   7.766  10.450  11.333
37086SOL     OW13154   9.870  11.069   8.073
37086SOL    HW113155   9.892  11.040   8.162
37086SOL    HW213156   9.952  11.064   8.025
37087SOL     OW13157   6.465  13.450   1.191
37087SOL    HW113158   6.557  13.467   1.170
37087SOL    HW213159   6.466  13.367   1.239
37088SOL     OW13160   9.632   1.057   3.837
37088SOL    HW113161   9.660   1.122   3.772
37088SOL    HW213162   9.601   1.108   3.911
37089SOL     OW13163  11.706   0.468  14.746
37089SOL    HW113164  11.625   0.437  14.788
37089SOL    HW213165  11.742   0.390  14.704
37090SOL     OW13166  12.860  12.803   5.850
37090SOL    HW113167  12.776  12.771   5.816
37090SOL    HW213168  12.867  12.765   5.938
37091SOL     OW13169   9.993  11.634  12.283
37091SOL    HW113170  10.023  11.552  12.322
37091SOL    HW213171  10.058  11.699  12.309
37092SOL     OW13172  11.344   7.556  13.001
37092SOL    HW113173  11.381   7.525  12.918
37092SOL    HW213174  11.409   7.618  13.034
37093SOL     OW13175   0.749  10.064   7.318
37093SOL    HW113176   0.742  10.099   7.407
37093SOL    HW213177   0.746  10.141   7.261
37094SOL     OW13178   0.791  13.710   6.969
37094SOL    HW113179   0.737  13.748   6.899
37094SOL    HW213180   0.728  13.683   7.036
37095SOL     OW13181   6.855   9.638   4.177
37095SOL    HW113182   6.856   9.655   4.083
37095SOL    HW213183   6.868   9.724   4.217
37096SOL     OW13184   6.743  12.885  13.134
37096SOL    HW113185   6.706  12.820  13.194
37096SOL    HW213186   6.750  12.965  13.186
37097SOL     OW13187   5.493  11.146  12.174
37097SOL    HW113188   5.432  11.076  12.199
37097SOL    HW213189   5.560  11.102  12.123
37098SOL     OW13190   9.421   5.078   7.138
37098SOL    HW113191   9.428   5.021   7.061
37098SOL    HW213192   9.381   5.158   7.105
37099SOL     OW13193   0.435   7.398   7.609
37099SOL    HW113194   0.423   7.377   7.701
37099SOL    HW213195   0.374   7.470   7.592
37100SOL     OW13196   1.101   1.910  12.412
37100SOL    HW113197   1.158   1.895  12.336
37100SOL    HW213198   1.159   1.904  12.487
37101SOL     OW13199   6.315   7.875   5.261
37101SOL    HW113200   6.282   7.908   5.344
37101SOL    HW213201   6.336   7.783   5.278
37102SOL     OW13202  11.541   0.570  10.359
37102SOL    HW113203  11.478   0.532  10.299
37102SOL    HW213204  11.558   0.501  10.424
37103SOL     OW13205   9.161   0.343   1.843
37103SOL    HW113206   9.099   0.308   1.780
37103SOL    HW213207   9.127   0.430   1.865
37104SOL     OW13208   9.264  12.273   5.947
37104SOL    HW113209   9.241  12.324   5.870
37104SOL    HW213210   9.278  12.337   6.017
37105SOL     OW13211   9.060  14.777  14.391
37105SOL    HW113212   9.110  14.736  14.461
37105SOL    HW213213   9.084  14.728  14.313
37106SOL     OW13214  12.064  14.489  13.634
37106SOL    HW113215  12.054  14.519  13.544
37106SOL    HW213216  12.043  14.396  13.631
37107SOL     OW13217   3.805   2.261   6.764
37107SOL    HW113218   3.767   2.287   6.680
37107SOL    HW213219   3.757   2.314   6.829
37108SOL     OW13220   1.474   5.907  12.945
37108SOL    HW113221   1.497   5.837  13.007
37108SOL    HW213222   1.487   5.988  12.995
37109SOL     OW13223   4.524   6.301   8.507
37109SOL    HW113224   4.456   6.368   8.514
37109SOL    HW213225   4.541   6.274   8.598
37110SOL     OW13226  12.263   6.297   1.006
37110SOL    HW113227  12.239   6.211   0.971
37110SOL    HW213228  12.304   6.342   0.933
37111SOL     OW13229   9.649  11.247   1.194
37111SOL    HW113230   9.718  11.182   1.185
37111SOL    HW213231   9.647  11.268   1.287
37112SOL     OW13232   7.875   9.785  11.974
37112SOL    HW113233   7.917   9.736  11.903
37112SOL    HW213234   7.849   9.719  12.038
37113SOL     OW13235   2.824  10.049   1.080
37113SOL    HW113236   2.917  10.029   1.074
37113SOL    HW213237   2.815  10.098   1.161
37114SOL     OW13238   2.133   0.210   2.310
37114SOL    HW113239   2.169   0.289   2.351
37114SOL    HW213240   2.132   0.145   2.380
37115SOL     OW13241   6.661   2.705   9.929
37115SOL    HW113242   6.617   2.661  10.002
37115SOL    HW213243   6.751   2.672   9.933
37116SOL     OW13244  12.614   5.162   1.582
37116SOL    HW113245  12.587   5.150   1.491
37116SOL    HW213246  12.693   5.108   1.590
37117SOL     OW13247   8.915   5.749   6.306
37117SOL    HW113248   8.822   5.728   6.315
37117SOL    HW213249   8.959   5.665   6.321
37118SOL     OW13250  11.710   6.543   1.159
37118SOL    HW113251  11.771   6.572   1.227
37118SOL    HW213252  11.759   6.477   1.110
37119SOL     OW13253   7.566  11.646   4.459
37119SOL    HW113254   7.654  11.680   4.472
37119SOL    HW213255   7.575  11.577   4.394
37120SOL     OW13256   6.528   8.951  13.277
37120SOL    HW113257   6.611   8.997  13.287
37120SOL    HW213258   6.540   8.897  13.199
37121SOL     OW13259   0.953  13.227   4.241
37121SOL    HW113260   0.897  13.153   4.260
37121SOL    HW213261   1.022  13.191   4.185
37122SOL     OW13262   7.977   4.064  10.653
37122SOL    HW113263   7.985   4.057  10.748
37122SOL    HW213264   7.954   3.975  10.624
37123SOL     OW13265   2.209   6.808   5.119
37123SOL    HW113266   2.265   6.738   5.087
37123SOL    HW213267   2.183   6.781   5.207
37124SOL     OW13268   0.954   8.060   0.297
37124SOL    HW113269   0.921   8.036   0.210
37124SOL    HW213270   1.049   8.061   0.288
37125SOL     OW13271   1.608   5.402   6.732
37125SOL    HW113272   1.622   5.459   6.656
37125SOL    HW213273   1.691   5.356   6.742
37126SOL     OW13274  11.983  14.701  10.321
37126SOL    HW113275  12.047  14.754  10.369
37126SOL    HW213276  11.906  14.758  10.312
37127SOL     OW13277  14.848   2.240   7.586
37127SOL    HW113278  14.800   2.291   7.520
37127SOL    HW213279   0.031   2.191   7.535
37128SOL     OW13280  12.952  13.820   0.532
37128SOL    HW113281  12.947  13.825   0.436
37128SOL    HW213282  13.002  13.897   0.557
37129SOL     OW13283  13.098   8.627   7.209
37129SOL    HW113284  13.112   8.570   7.285
37129SOL    HW213285  13.054   8.571   7.145
37130SOL     OW13286  12.349   1.343  13.442
37130SOL    HW113287  12.417   1.286  13.407
37130SOL    HW213288  12.378   1.431  13.419
37131SOL     OW13289   2.716   9.765  11.030
37131SOL    HW113290   2.790   9.742  11.086
37131SOL    HW213291   2.678   9.681  11.005
37132SOL     OW13292   5.309   9.232   7.171
37132SOL    HW113293   5.298   9.155   7.227
37132SOL    HW213294   5.219   9.257   7.147
37133SOL     OW13295   0.436   9.092  12.465
37133SOL    HW113296   0.454   9.170  12.518
37133SOL    HW213297   0.523   9.063  12.436
37134SOL     OW13298   3.666   6.308  11.815
37134SOL    HW113299   3.597   6.256  11.774
37134SOL    HW213300   3.618   6.369  11.872
37135SOL     OW13301   3.737  12.553   0.660
37135SOL    HW113302   3.681  12.570   0.584
37135SOL    HW213303   3.820  12.594   0.637
37136SOL     OW13304   4.158  13.243   4.982
37136SOL    HW113305   4.182  13.163   5.028
37136SOL    HW213306   4.234  13.264   4.928
37137SOL     OW13307  14.185   3.518   4.064
37137SOL    HW113308  14.131   3.585   4.105
37137SOL    HW213309  14.258   3.567   4.025
37138SOL     OW13310   5.952   6.145   7.109
37138SOL    HW113311   5.863   6.169   7.085
37138SOL    HW213312   5.987   6.222   7.153
37139SOL     OW13313   1.494   5.467  11.309
37139SOL    HW113314   1.518   5.480  11.401
37139SOL    HW213315   1.466   5.376  11.305
37140SOL     OW13316   6.862   9.157   1.661
37140SOL    HW113317   6.895   9.095   1.596
37140SOL    HW213318   6.939   9.182   1.712
37141SOL     OW13319   9.375   6.387   3.773
37141SOL    HW113320   9.325   6.308   3.756
37141SOL    HW213321   9.403   6.418   3.687
37142SOL     OW13322   4.229   8.650   6.938
37142SOL    HW113323   4.272   8.579   6.889
37142SOL    HW213324   4.168   8.689   6.875
37143SOL     OW13325  13.938   6.757   2.971
37143SOL    HW113326  13.898   6.826   2.918
37143SOL    HW213327  13.991   6.804   3.036
37144SOL     OW13328  13.590   9.502   2.925
37144SOL    HW113329  13.580   9.438   2.996
37144SOL    HW213330  13.585   9.587   2.968
37145SOL     OW13331   1.364  14.625  12.451
37145SOL    HW113332   1.386  14.605  12.542
37145SOL    HW213333   1.331  14.542  12.415
37146SOL     OW13334   3.966   3.495   2.872
37146SOL    HW113335   4.008   3.412   2.896
37146SOL    HW213336   4.034   3.544   2.827
37147SOL     OW13337   3.485   0.780   1.615
37147SOL    HW113338   3.544   0.754   1.686
37147SOL    HW213339   3.523   0.739   1.537
37148SOL     OW13340  10.707   4.669   6.651
37148SOL    HW113341  10.757   4.638   6.575
37148SOL    HW213342  10.753   4.747   6.681
37149SOL     OW13343   9.451   4.672   4.001
37149SOL    HW113344   9.450   4.583   3.965
37149SOL    HW213345   9.529   4.712   3.963
37150SOL     OW13346   4.406   2.228   3.852
37150SOL    HW113347   4.348   2.208   3.926
37150SOL    HW213348   4.444   2.143   3.829
37151SOL     OW13349   4.347   3.090   8.773
37151SOL    HW113350   4.267   3.044   8.798
37151SOL    HW213351   4.319   3.153   8.707
37152SOL     OW13352   8.735   0.728   3.973
37152SOL    HW113353   8.661   0.717   3.912
37152SOL    HW213354   8.809   0.750   3.917
37153SOL     OW13355   8.111   2.745   1.532
37153SOL    HW113356   8.056   2.678   1.573
37153SOL    HW213357   8.173   2.696   1.477
37154SOL     OW13358  13.280   5.002   0.213
37154SOL    HW113359  13.219   4.982   0.142
37154SOL    HW213360  13.366   5.007   0.169
37155SOL     OW13361   1.039  12.248  11.443
37155SOL    HW113362   0.998  12.163  11.424
37155SOL    HW213363   1.082  12.235  11.527
37156SOL     OW13364  12.577   6.228  10.207
37156SOL    HW113365  12.611   6.156  10.154
37156SOL    HW213366  12.651   6.253  10.263
37157SOL     OW13367  13.124   5.274   0.113
37157SOL    HW113368  13.066   5.205   0.145
37157SOL    HW213369  13.120   5.267   0.018
37158SOL     OW13370   3.168   2.134   9.954
37158SOL    HW113371   3.160   2.131   9.858
37158SOL    HW213372   3.202   2.221   9.973
37159SOL     OW13373   8.301  12.921   0.249
37159SOL    HW113374   8.233  12.938   0.184
37159SOL    HW213375   8.261  12.861   0.311
37160SOL     OW13376   5.216  10.818   9.282
37160SOL    HW113377   5.196  10.798   9.190
37160SOL    HW213378   5.292  10.875   9.278
37161SOL     OW13379   1.838  12.516   3.896
37161SOL    HW113380   1.804  12.450   3.836
37161SOL    HW213381   1.782  12.592   3.882
37162SOL     OW13382   4.011   4.810   1.019
37162SOL    HW113383   4.034   4.902   1.034
37162SOL    HW213384   4.042   4.764   1.097
37163SOL     OW13385  12.115  11.369  12.792
37163SOL    HW113386  12.028  11.392  12.758
37163SOL    HW213387  12.143  11.295  12.738
37164SOL     OW13388   8.616  14.671   9.539
37164SOL    HW113389   8.609  14.605   9.608
37164SOL    HW213390   8.594  14.753   9.583
37165SOL     OW13391   7.763   3.967   8.963
37165SOL    HW113392   7.763   4.060   8.942
37165SOL    HW213393   7.674   3.937   8.940
37166SOL     OW13394   4.221  12.262  12.162
37166SOL    HW113395   4.192  12.353  12.155
37166SOL    HW213396   4.314  12.268  12.182
37167SOL     OW13397   7.740   2.594   5.758
37167SOL    HW113398   7.761   2.680   5.794
37167SOL    HW213399   7.658   2.569   5.799
37168SOL     OW13400   8.626  14.177   3.383
37168SOL    HW113401   8.659  14.157   3.471
37168SOL    HW213402   8.549  14.121   3.373
37169SOL     OW13403   0.136  14.362  13.792
37169SOL    HW113404   0.143  14.287  13.852
37169SOL    HW213405   0.060  14.411  13.824
37170SOL     OW13406   1.636  14.291   7.968
37170SOL    HW113407   1.546  14.309   7.993
37170SOL    HW213408   1.662  14.218   8.024
37171SOL     OW13409   9.909   5.678  10.095
37171SOL    HW113410   9.818   5.687  10.124
37171SOL    HW213411   9.953   5.636  10.169
37172SOL     OW13412   6.188  12.516   3.816
37172SOL    HW113413   6.176  12.493   3.724
37172SOL    HW213414   6.276  12.553   3.821
37173SOL     OW13415   3.909  14.187   5.594
37173SOL    HW113416   3.999  14.217   5.604
37173SOL    HW213417   3.884  14.215   5.506
37174SOL     OW13418   8.841   9.704  11.119
37174SOL    HW113419   8.897   9.674  11.190
37174SOL    HW213420   8.889   9.682  11.039
37175SOL     OW13421  11.304  10.812   4.312
37175SOL    HW113422  11.360  10.760   4.370
37175SOL    HW213423  11.365  10.873   4.269
37176SOL     OW13424  12.453   6.934   7.419
37176SOL    HW113425  12.435   7.026   7.400
37176SOL    HW213426  12.373   6.888   7.392
37177SOL     OW13427   2.962   7.029  11.370
37177SOL    HW113428   3.027   7.047  11.302
37177SOL    HW213429   2.977   6.938  11.394
37178SOL     OW13430   0.406   7.516   0.363
37178SOL    HW113431   0.388   7.580   0.294
37178SOL    HW213432   0.461   7.562   0.426
37179SOL     OW13433   2.710   9.238   4.360
37179SOL    HW113434   2.774   9.209   4.295
37179SOL    HW213435   2.651   9.163   4.370
37180SOL     OW13436   0.432  11.083   4.241
37180SOL    HW113437   0.453  11.070   4.333
37180SOL    HW213438   0.516  11.099   4.199
37181SOL     OW13439  14.640   8.081   4.710
37181SOL    HW113440  14.696   8.030   4.769
37181SOL    HW213441  14.701   8.119   4.646
37182SOL     OW13442   3.169  14.724  11.462
37182SOL    HW113443   3.261  14.748  11.449
37182SOL    HW213444   3.135  14.713  11.373
37183SOL     OW13445   5.945   7.115  14.723
37183SOL    HW113446   5.962   7.179  14.793
37183SOL    HW213447   5.851   7.122  14.706
37184SOL     OW13448  13.069  13.059   3.775
37184SOL    HW113449  12.989  13.023   3.813
37184SOL    HW213450  13.066  13.152   3.797
37185SOL     OW13451  10.537   4.757   2.284
37185SOL    HW113452  10.503   4.807   2.358
37185SOL    HW213453  10.535   4.666   2.313
37186SOL     OW13454  14.152  10.401  10.554
37186SOL    HW113455  14.242  10.391  10.523
37186SOL    HW213456  14.115  10.313  10.553
37187SOL     OW13457  14.156  11.790  10.200
37187SOL    HW113458  14.136  11.862  10.140
37187SOL    HW213459  14.251  11.792  10.210
37188SOL     OW13460   6.976   6.185  10.372
37188SOL    HW113461   7.064   6.152  10.393
37188SOL    HW213462   6.961   6.255  10.436
37189SOL     OW13463   6.236  11.334   3.254
37189SOL    HW113464   6.177  11.262   3.233
37189SOL    HW213465   6.258  11.322   3.346
37190SOL     OW13466   1.031   0.576   5.315
37190SOL    HW113467   1.101   0.522   5.278
37190SOL    HW213468   0.967   0.512   5.348
37191SOL     OW13469  12.243  11.235   6.391
37191SOL    HW113470  12.330  11.202   6.416
37191SOL    HW213471  12.185  11.159   6.403
37192SOL     OW13472   2.160   6.184  13.524
37192SOL    HW113473   2.207   6.114  13.568
37192SOL    HW213474   2.212   6.263  13.541
37193SOL     OW13475  13.933   0.936   2.839
37193SOL    HW113476  13.893   0.849   2.844
37193SOL    HW213477  14.027   0.918   2.837
37194SOL     OW13478   4.865   3.880   0.436
37194SOL    HW113479   4.823   3.934   0.369
37194SOL    HW213480   4.889   3.800   0.391
37195SOL     OW13481   5.567   2.521   2.478
37195SOL    HW113482   5.483   2.568   2.476
37195SOL    HW213483   5.554   2.447   2.418
37196SOL     OW13484   4.544  13.470  14.203
37196SOL    HW113485   4.501  13.477  14.288
37196SOL    HW213486   4.547  13.559  14.170
37197SOL     OW13487   6.883   4.187   8.156
37197SOL    HW113488   6.947   4.118   8.175
37197SOL    HW213489   6.936   4.261   8.128
37198SOL     OW13490   3.693   5.336  13.744
37198SOL    HW113491   3.752   5.272  13.704
37198SOL    HW213492   3.716   5.419  13.703
37199SOL     OW13493   1.733  13.251   0.265
37199SOL    HW113494   1.773  13.177   0.219
37199SOL    HW213495   1.780  13.255   0.348
37200SOL     OW13496  10.056   4.470  14.662
37200SOL    HW113497  10.037   4.381  14.694
37200SOL    HW213498  10.142   4.463  14.622
37201SOL     OW13499  13.128   9.438  14.485
37201SOL    HW113500  13.080   9.359  14.512
37201SOL    HW213501  13.060   9.495  14.449
37202SOL     OW13502   7.127   5.998   1.066
37202SOL    HW113503   7.040   5.988   1.104
37202SOL    HW213504   7.163   5.909   1.064
37203SOL     OW13505  12.065   3.941   5.499
37203SOL    HW113506  12.037   3.889   5.424
37203SOL    HW213507  12.161   3.937   5.496
37204SOL     OW13508  10.890   1.475   7.578
37204SOL    HW113509  10.874   1.564   7.608
37204SOL    HW213510  10.870   1.477   7.484
37205SOL     OW13511   7.293  13.592  14.234
37205SOL    HW113512   7.312  13.629  14.320
37205SOL    HW213513   7.345  13.512  14.230
37206SOL     OW13514   7.548  10.317   7.840
37206SOL    HW113515   7.621  10.262   7.869
37206SOL    HW213516   7.499  10.262   7.778
37207SOL     OW13517   0.229  13.046   4.396
37207SOL    HW113518   0.294  12.990   4.355
37207SOL    HW213519   0.166  12.985   4.437
37208SOL     OW13520   6.333   6.491   2.758
37208SOL    HW113521   6.321   6.573   2.807
37208SOL    HW213522   6.303   6.423   2.818
37209SOL     OW13523  13.924   1.408   7.240
37209SOL    HW113524  13.936   1.429   7.333
37209SOL    HW213525  13.844   1.357   7.237
37210SOL     OW13526  13.013   3.710  11.957
37210SOL    HW113527  13.044   3.668  12.038
37210SOL    HW213528  13.070   3.675  11.889
37211SOL     OW13529   3.434   5.786   4.286
37211SOL    HW113530   3.487   5.722   4.334
37211SOL    HW213531   3.472   5.871   4.311
37212SOL     OW13532   5.070   6.125   3.848
37212SOL    HW113533   5.162   6.145   3.868
37212SOL    HW213534   5.026   6.210   3.849
37213SOL     OW13535   2.281  10.394   9.298
37213SOL    HW113536   2.189  10.411   9.314
37213SOL    HW213537   2.322  10.397   9.385
37214SOL     OW13538   0.862   5.338   6.077
37214SOL    HW113539   0.859   5.428   6.043
37214SOL    HW213540   0.908   5.288   6.009
37215SOL     OW13541   3.421  14.837  12.422
37215SOL    HW113542   3.400   0.041  12.457
37215SOL    HW213543   3.504  14.814  12.463
37216SOL     OW13544   8.068  11.452  13.637
37216SOL    HW113545   8.117  11.529  13.607
37216SOL    HW213546   8.039  11.475  13.726
37217SOL     OW13547   0.065   0.754   2.362
37217SOL    HW113548   0.022   0.699   2.428
37217SOL    HW213549   0.029   0.723   2.279
37218SOL     OW13550   6.100   8.650  10.431
37218SOL    HW113551   6.086   8.739  10.461
37218SOL    HW213552   6.195   8.642  10.423
37219SOL     OW13553  13.569   6.342  14.694
37219SOL    HW113554  13.628   6.383  14.631
37219SOL    HW213555  13.483   6.379  14.674
37220SOL     OW13556   4.852  12.976  13.936
37220SOL    HW113557   4.763  12.942  13.942
37220SOL    HW213558   4.896  12.918  13.874
37221SOL     OW13559   0.800   0.445   3.636
37221SOL    HW113560   0.750   0.449   3.718
37221SOL    HW213561   0.733   0.431   3.568
37222SOL     OW13562  13.062   9.809   9.114
37222SOL    HW113563  13.144   9.770   9.145
37222SOL    HW213564  13.080   9.903   9.108
37223SOL     OW13565   3.831   6.594  10.229
37223SOL    HW113566   3.862   6.680  10.201
37223SOL    HW213567   3.743   6.587  10.193
37224SOL     OW13568  10.050   2.215   1.568
37224SOL    HW113569  10.043   2.120   1.558
37224SOL    HW213570  10.121   2.227   1.631
37225SOL     OW13571  11.378  12.725   3.384
37225SOL    HW113572  11.452  12.751   3.329
37225SOL    HW213573  11.309  12.789   3.364
37226SOL     OW13574   9.902   7.604  12.880
37226SOL    HW113575   9.906   7.622  12.786
37226SOL    HW213576   9.834   7.537  12.889
37227SOL     OW13577   0.227   0.445  12.019
37227SOL    HW113578   0.170   0.438  12.095
37227SOL    HW213579   0.285   0.369  12.025
37228SOL     OW13580   8.200   9.109  10.087
37228SOL    HW113581   8.234   9.074  10.169
37228SOL    HW213582   8.262   9.177  10.062
37229SOL     OW13583   2.312  12.671   3.315
37229SOL    HW113584   2.361  12.637   3.240
37229SOL    HW213585   2.221  12.645   3.298
37230SOL     OW13586   4.040  12.638  10.932
37230SOL    HW113587   4.061  12.727  10.957
37230SOL    HW213588   4.030  12.641  10.837
37231SOL     OW13589  10.726   0.488   4.217
37231SOL    HW113590  10.660   0.430   4.255
37231SOL    HW213591  10.795   0.430   4.187
37232SOL     OW13592   0.106   3.255   6.972
37232SOL    HW113593   0.031   3.294   6.928
37232SOL    HW213594   0.077   3.239   7.061
37233SOL     OW13595   9.339  13.470   1.088
37233SOL    HW113596   9.381  13.384   1.090
37233SOL    HW213597   9.364  13.507   1.004
37234SOL     OW13598   0.016   1.677  11.847
37234SOL    HW113599  14.829   1.654  11.786
37234SOL    HW213600   0.097   1.665  11.798
37235SOL     OW13601   1.227   0.902   6.740
37235SOL    HW113602   1.314   0.941   6.746
37235SOL    HW213603   1.184   0.927   6.822
37236SOL     OW13604   8.253   6.938   2.546
37236SOL    HW113605   8.271   6.846   2.526
37236SOL    HW213606   8.202   6.935   2.627
37237SOL     OW13607   9.651  12.060   4.442
37237SOL    HW113608   9.590  12.005   4.492
37237SOL    HW213609   9.704  12.104   4.509
37238SOL     OW13610   5.674  12.027   5.840
37238SOL    HW113611   5.745  11.964   5.851
37238SOL    HW213612   5.676  12.048   5.747
37239SOL     OW13613   0.407   2.032   7.695
37239SOL    HW113614   0.349   1.988   7.632
37239SOL    HW213615   0.353   2.047   7.772
37240SOL     OW13616   5.503   4.797   4.638
37240SOL    HW113617   5.593   4.769   4.621
37240SOL    HW213618   5.512   4.876   4.692
37241SOL     OW13619   0.510  10.552   7.735
37241SOL    HW113620   0.578  10.485   7.739
37241SOL    HW213621   0.440  10.512   7.684
37242SOL     OW13622  11.523  12.410   8.969
37242SOL    HW113623  11.588  12.387   8.903
37242SOL    HW213624  11.563  12.386   9.052
37243SOL     OW13625   1.510  11.549   7.179
37243SOL    HW113626   1.518  11.565   7.273
37243SOL    HW213627   1.488  11.456   7.172
37244SOL     OW13628  13.406  13.401  11.845
37244SOL    HW113629  13.471  13.472  11.846
37244SOL    HW213630  13.457  13.321  11.847
37245SOL     OW13631  10.836   6.050   7.314
37245SOL    HW113632  10.898   6.075   7.383
37245SOL    HW213633  10.753   6.090   7.340
37246SOL     OW13634  14.616   5.286  13.964
37246SOL    HW113635  14.590   5.286  13.872
37246SOL    HW213636  14.537   5.261  14.012
37247SOL     OW13637  11.319   2.704  11.820
37247SOL    HW113638  11.395   2.648  11.805
37247SOL    HW213639  11.356   2.782  11.862
37248SOL     OW13640   3.372   3.337   9.730
37248SOL    HW113641   3.399   3.423   9.700
37248SOL    HW213642   3.433   3.316   9.801
37249SOL     OW13643   4.720  13.876  11.130
37249SOL    HW113644   4.678  13.944  11.077
37249SOL    HW213645   4.779  13.832  11.070
37250SOL     OW13646  12.622  11.455   5.984
37250SOL    HW113647  12.537  11.410   5.976
37250SOL    HW213648  12.605  11.543   5.951
37251SOL     OW13649  11.191   8.278   9.090
37251SOL    HW113650  11.104   8.241   9.080
37251SOL    HW213651  11.227   8.234   9.167
37252SOL     OW13652   5.316  10.588  12.040
37252SOL    HW113653   5.388  10.649  12.058
37252SOL    HW213654   5.352  10.529  11.974
37253SOL     OW13655   1.531  14.069   7.064
37253SOL    HW113656   1.547  14.075   7.159
37253SOL    HW213657   1.562  14.153   7.030
37254SOL     OW13658  12.121   9.462  10.316
37254SOL    HW113659  12.036   9.506  10.322
37254SOL    HW213660  12.184   9.525  10.349
37255SOL     OW13661   9.021  13.301  10.682
37255SOL    HW113662   8.965  13.272  10.609
37255SOL    HW213663   9.102  13.252  10.671
37256SOL     OW13664   8.113   2.903  11.169
37256SOL    HW113665   8.083   2.971  11.230
37256SOL    HW213666   8.209   2.912  11.169
37257SOL     OW13667  10.888   6.254   7.833
37257SOL    HW113668  10.948   6.214   7.896
37257SOL    HW213669  10.901   6.205   7.752
37258SOL     OW13670  10.675   3.787  11.684
37258SOL    HW113671  10.744   3.804  11.748
37258SOL    HW213672  10.617   3.725  11.728
37259SOL     OW13673  13.908   7.376   7.172
37259SOL    HW113674  13.900   7.313   7.244
37259SOL    HW213675  13.992   7.354   7.131
37260SOL     OW13676   2.989   5.565  12.491
37260SOL    HW113677   3.005   5.659  12.502
37260SOL    HW213678   3.072   5.529  12.462
37261SOL     OW13679   3.930   9.321   2.657
37261SOL    HW113680   3.868   9.389   2.683
37261SOL    HW213681   3.901   9.293   2.571
37262SOL     OW13682   0.979   9.930   7.489
37262SOL    HW113683   0.940   9.854   7.445
37262SOL    HW213684   0.971   9.910   7.582
37263SOL     OW13685   8.401  10.325   3.211
37263SOL    HW113686   8.343  10.387   3.166
37263SOL    HW213687   8.372  10.325   3.301
37264SOL     OW13688   8.514  10.236  12.491
37264SOL    HW113689   8.555  10.160  12.451
37264SOL    HW213690   8.525  10.223  12.585
37265SOL     OW13691   0.032   0.368  10.938
37265SOL    HW113692  14.855   0.381  11.012
37265SOL    HW213693   0.116   0.347  10.979
37266SOL     OW13694   0.575  14.006   5.260
37266SOL    HW113695   0.615  14.052   5.334
37266SOL    HW213696   0.643  14.007   5.192
37267SOL     OW13697   6.713  11.169   2.761
37267SOL    HW113698   6.805  11.175   2.734
37267SOL    HW213699   6.709  11.092   2.817
37268SOL     OW13700  14.635   3.192   2.188
37268SOL    HW113701  14.667   3.103   2.201
37268SOL    HW213702  14.554   3.182   2.138
37269SOL     OW13703   3.028  11.516  12.724
37269SOL    HW113704   3.019  11.421  12.717
37269SOL    HW213705   3.012  11.535  12.816
37270SOL     OW13706   4.717   4.625  12.375
37270SOL    HW113707   4.810   4.611  12.359
37270SOL    HW213708   4.713   4.706  12.425
37271SOL     OW13709   2.097   6.777   5.359
37271SOL    HW113710   2.139   6.847   5.409
37271SOL    HW213711   2.008   6.808   5.344
37272SOL     OW13712  13.444   7.815   3.119
37272SOL    HW113713  13.506   7.753   3.080
37272SOL    HW213714  13.361   7.767   3.123
37273SOL     OW13715   5.832   6.047  11.150
37273SOL    HW113716   5.789   5.971  11.110
37273SOL    HW213717   5.919   6.049  11.110
37274SOL     OW13718   4.586   5.292  10.101
37274SOL    HW113719   4.574   5.200  10.078
37274SOL    HW213720   4.500   5.332  10.087
37275SOL     OW13721   4.869   2.816   6.898
37275SOL    HW113722   4.864   2.743   6.836
37275SOL    HW213723   4.861   2.895   6.844
37276SOL     OW13724   1.743  14.609   5.958
37276SOL    HW113725   1.689  14.541   5.918
37276SOL    HW213726   1.694  14.637   6.034
37277SOL     OW13727  12.268   6.275  12.502
37277SOL    HW113728  12.196   6.218  12.474
37277SOL    HW213729  12.259   6.354  12.448
37278SOL     OW13730  14.779  13.297   1.180
37278SOL    HW113731  14.735  13.322   1.260
37278SOL    HW213732  14.744  13.210   1.160
37279SOL     OW13733   5.854   0.056   5.664
37279SOL    HW113734   5.942   0.041   5.701
37279SOL    HW213735   5.868   0.059   5.570
37280SOL     OW13736   5.394   5.381  10.112
37280SOL    HW113737   5.482   5.417  10.098
37280SOL    HW213738   5.406   5.286  10.110
37281SOL     OW13739   8.520  14.466   8.148
37281SOL    HW113740   8.463  14.539   8.172
37281SOL    HW213741   8.492  14.443   8.059
37282SOL     OW13742   1.028   7.201   0.836
37282SOL    HW113743   1.066   7.122   0.798
37282SOL    HW213744   1.049   7.270   0.773
37283SOL     OW13745   6.290   1.334  12.258
37283SOL    HW113746   6.236   1.276  12.312
37283SOL    HW213747   6.236   1.412  12.245
37284SOL     OW13748   9.282   5.769   7.151
37284SOL    HW113749   9.292   5.763   7.246
37284SOL    HW213750   9.213   5.834   7.138
37285SOL     OW13751   9.769  14.574   7.731
37285SOL    HW113752   9.846  14.612   7.689
37285SOL    HW213753   9.763  14.619   7.815
37286SOL     OW13754  14.826   1.069   7.128
37286SOL    HW113755   0.037   1.046   7.129
37286SOL    HW213756  14.784   0.996   7.083
37287SOL     OW13757   3.873   8.853  12.129
37287SOL    HW113758   3.827   8.822  12.050
37287SOL    HW213759   3.832   8.937  12.149
37288SOL     OW13760   3.094  12.960   6.765
37288SOL    HW113761   3.189  12.969   6.773
37288SOL    HW213762   3.081  12.868   6.739
37289SOL     OW13763   5.624  12.660  12.991
37289SOL    HW113764   5.632  12.673  12.896
37289SOL    HW213765   5.530  12.659  13.007
37290SOL     OW13766   7.361   3.565   2.941
37290SOL    HW113767   7.348   3.483   2.893
37290SOL    HW213768   7.331   3.633   2.881
37291SOL     OW13769  12.643   7.745  13.832
37291SOL    HW113770  12.663   7.665  13.784
37291SOL    HW213771  12.554   7.768  13.806
37292SOL     OW13772   1.950   9.895  11.259
37292SOL    HW113773   1.920   9.923  11.345
37292SOL    HW213774   2.026   9.950  11.240
37293SOL     OW13775  14.362   3.614  10.907
37293SOL    HW113776  14.324   3.697  10.937
37293SOL    HW213777  14.433   3.596  10.969
37294SOL     OW13778   1.995   4.288   0.694
37294SOL    HW113779   1.940   4.229   0.745
37294SOL    HW213780   1.995   4.370   0.743
37295SOL     OW13781  11.195   2.200   2.823
37295SOL    HW113782  11.218   2.121   2.872
37295SOL    HW213783  11.114   2.177   2.777
37296SOL     OW13784   0.771   3.610   0.674
37296SOL    HW113785   0.790   3.517   0.663
37296SOL    HW213786   0.681   3.612   0.708
37297SOL     OW13787   8.369   9.688   2.670
37297SOL    HW113788   8.389   9.723   2.583
37297SOL    HW213789   8.414   9.603   2.672
37298SOL     OW13790  12.086   9.651   9.663
37298SOL    HW113791  12.034   9.639   9.583
37298SOL    HW213792  12.133   9.569   9.673
37299SOL     OW13793   8.958  13.573  10.638
37299SOL    HW113794   8.966  13.480  10.662
37299SOL    HW213795   9.035  13.590  10.584
37300SOL     OW13796  10.800   2.814   2.532
37300SOL    HW113797  10.733   2.828   2.465
37300SOL    HW213798  10.832   2.902   2.552
37301SOL     OW13799   3.322  14.722   1.186
37301SOL    HW113800   3.299  14.646   1.240
37301SOL    HW213801   3.253  14.726   1.120
37302SOL     OW13802   0.338   8.854   3.142
37302SOL    HW113803   0.399   8.791   3.103
37302SOL    HW213804   0.309   8.813   3.223
37303SOL     OW13805  13.767   2.276   0.342
37303SOL    HW113806  13.692   2.295   0.286
37303SOL    HW213807  13.839   2.328   0.304
37304SOL     OW13808  14.730   0.481   6.199
37304SOL    HW113809  14.799   0.513   6.256
37304SOL    HW213810  14.697   0.402   6.243
37305SOL     OW13811   4.034  14.456   2.107
37305SOL    HW113812   3.996  14.385   2.157
37305SOL    HW213813   3.961  14.515   2.089
37306SOL     OW13814  12.524   5.568   0.865
37306SOL    HW113815  12.450   5.526   0.822
37306SOL    HW213816  12.582   5.495   0.891
37307SOL     OW13817   2.994   8.496  13.212
37307SOL    HW113818   3.010   8.577  13.162
37307SOL    HW213819   3.071   8.488  13.269
37308SOL     OW13820   1.601   5.558   3.731
37308SOL    HW113821   1.534   5.489   3.726
37308SOL    HW213822   1.678   5.520   3.689
37309SOL     OW13823   1.715   6.602  11.193
37309SOL    HW113824   1.715   6.567  11.282
37309SOL    HW213825   1.790   6.661  11.191
37310SOL     OW13826  14.654   3.174   3.088
37310SOL    HW113827  14.729   3.231   3.073
37310SOL    HW213828  14.619   3.157   3.001
37311SOL     OW13829   5.754   1.330  14.793
37311SOL    HW113830   5.838   1.353  14.754
37311SOL    HW213831   5.776   1.281  14.872
37312SOL     OW13832  10.629   3.913   8.445
37312SOL    HW113833  10.542   3.938   8.474
37312SOL    HW213834  10.663   3.990   8.399
37313SOL     OW13835   8.092  11.270   3.878
37313SOL    HW113836   8.179  11.230   3.874
37313SOL    HW213837   8.105  11.359   3.847
37314SOL     OW13838  11.865   4.837   7.164
37314SOL    HW113839  11.848   4.927   7.137
37314SOL    HW213840  11.897   4.843   7.253
37315SOL     OW13841  11.703  11.854   9.992
37315SOL    HW113842  11.639  11.845   9.921
37315SOL    HW213843  11.785  11.824   9.953
37316SOL     OW13844  13.082   4.594   2.518
37316SOL    HW113845  13.069   4.504   2.546
37316SOL    HW213846  13.105   4.641   2.598
37317SOL     OW13847   1.256   1.378   1.611
37317SOL    HW113848   1.162   1.365   1.596
37317SOL    HW213849   1.269   1.353   1.702
37318SOL     OW13850   9.958   4.480   5.481
37318SOL    HW113851  10.004   4.466   5.563
37318SOL    HW213852  10.025   4.511   5.420
37319SOL     OW13853  13.418   5.384   1.598
37319SOL    HW113854  13.357   5.326   1.553
37319SOL    HW213855  13.402   5.471   1.561
37320SOL     OW13856   8.504   1.880   2.105
37320SOL    HW113857   8.587   1.925   2.091
37320SOL    HW213858   8.529   1.796   2.144
37321SOL     OW13859  12.859   6.152   0.944
37321SOL    HW113860  12.951   6.166   0.922
37321SOL    HW213861  12.835   6.231   0.993
37322SOL     OW13862   4.208  10.819  12.727
37322SOL    HW113863   4.187  10.898  12.678
37322SOL    HW213864   4.285  10.783  12.682
37323SOL     OW13865  13.672  12.316  13.622
37323SOL    HW113866  13.744  12.337  13.682
37323SOL    HW213867  13.634  12.236  13.658
37324SOL     OW13868  14.018   8.832   8.850
37324SOL    HW113869  13.966   8.910   8.831
37324SOL    HW213870  13.961   8.758   8.829
37325SOL     OW13871   4.211   0.432   2.610
37325SOL    HW113872   4.236   0.368   2.544
37325SOL    HW213873   4.288   0.441   2.666
37326SOL     OW13874   3.732  11.552  10.005
37326SOL    HW113875   3.667  11.491  10.041
37326SOL    HW213876   3.815  11.505  10.012
37327SOL     OW13877  10.739  10.250   1.016
37327SOL    HW113878  10.797  10.213   1.083
37327SOL    HW213879  10.653  10.253   1.058
37328SOL     OW13880  14.303   9.885   8.316
37328SOL    HW113881  14.350   9.864   8.397
37328SOL    HW213882  14.326   9.814   8.256
37329SOL     OW13883   7.168   1.435  11.203
37329SOL    HW113884   7.163   1.340  11.213
37329SOL    HW213885   7.132   1.469  11.285
37330SOL     OW13886  10.200   1.966   3.406
37330SOL    HW113887  10.220   1.883   3.449
37330SOL    HW213888  10.180   2.026   3.477
37331SOL     OW13889   4.147  11.772  14.446
37331SOL    HW113890   4.218  11.815  14.399
37331SOL    HW213891   4.072  11.830  14.433
37332SOL     OW13892  12.011  11.315   0.165
37332SOL    HW113893  12.067  11.241   0.138
37332SOL    HW213894  12.029  11.326   0.258
37333SOL     OW13895  13.027   8.605   0.705
37333SOL    HW113896  13.039   8.554   0.625
37333SOL    HW213897  12.937   8.587   0.732
37334SOL     OW13898   1.806   3.576   8.550
37334SOL    HW113899   1.864   3.505   8.522
37334SOL    HW213900   1.835   3.653   8.502
37335SOL     OW13901   6.815   3.391  14.119
37335SOL    HW113902   6.909   3.406  14.129
37335SOL    HW213903   6.798   3.407  14.026
37336SOL     OW13904   0.935   2.050   1.630
37336SOL    HW113905   0.967   2.090   1.712
37336SOL    HW213906   0.856   2.100   1.609
37337SOL     OW13907   0.252   0.386   8.371
37337SOL    HW113908   0.183   0.356   8.311
37337SOL    HW213909   0.306   0.309   8.386
37338SOL     OW13910   7.703   7.014   4.302
37338SOL    HW113911   7.796   6.992   4.301
37338SOL    HW213912   7.665   6.956   4.368
37339SOL     OW13913   6.225  11.275  13.879
37339SOL    HW113914   6.202  11.215  13.808
37339SOL    HW213915   6.239  11.217  13.955
37340SOL     OW13916   6.510  10.570   7.705
37340SOL    HW113917   6.432  10.557   7.759
37340SOL    HW213918   6.540  10.658   7.727
37341SOL     OW13919  10.431   7.722  10.519
37341SOL    HW113920  10.509   7.773  10.540
37341SOL    HW213921  10.364   7.753  10.580
37342SOL     OW13922   3.351   7.710   6.775
37342SOL    HW113923   3.393   7.793   6.800
37342SOL    HW213924   3.302   7.683   6.852
37343SOL     OW13925   8.804   6.117   3.264
37343SOL    HW113926   8.809   6.157   3.177
37343SOL    HW213927   8.895   6.111   3.293
37344SOL     OW13928   7.188   8.352  12.861
37344SOL    HW113929   7.191   8.325  12.769
37344SOL    HW213930   7.249   8.293  12.906
37345SOL     OW13931   3.491   6.816  13.801
37345SOL    HW113932   3.431   6.876  13.758
37345SOL    HW213933   3.436   6.757  13.851
37346SOL     OW13934  11.137   0.568  10.318
37346SOL    HW113935  11.164   0.615  10.397
37346SOL    HW213936  11.172   0.621  10.246
37347SOL     OW13937   8.009   4.293   3.921
37347SOL    HW113938   8.101   4.301   3.894
37347SOL    HW213939   7.967   4.370   3.882
37348SOL     OW13940   6.174  12.741   3.004
37348SOL    HW113941   6.203  12.816   2.951
37348SOL    HW213942   6.118  12.690   2.945
37349SOL     OW13943  10.798   7.365   7.920
37349SOL    HW113944  10.706   7.356   7.942
37349SOL    HW213945  10.844   7.313   7.985
37350SOL     OW13946  11.789   4.939   8.904
37350SOL    HW113947  11.761   4.963   8.993
37350SOL    HW213948  11.785   5.020   8.854
37351SOL     OW13949   6.008  10.512  11.727
37351SOL    HW113950   5.924  10.540  11.762
37351SOL    HW213951   6.066  10.506  11.803
37352SOL     OW13952  13.149  11.996  11.935
37352SOL    HW113953  13.172  12.045  11.856
37352SOL    HW213954  13.059  12.022  11.954
37353SOL     OW13955  12.848   1.735   8.145
37353SOL    HW113956  12.831   1.821   8.106
37353SOL    HW213957  12.928   1.749   8.196
37354SOL     OW13958   3.622  12.943   1.655
37354SOL    HW113959   3.617  12.847   1.657
37354SOL    HW213960   3.647  12.968   1.744
37355SOL     OW13961   7.590   1.759   1.776
37355SOL    HW113962   7.648   1.766   1.851
37355SOL    HW213963   7.556   1.670   1.780
37356SOL     OW13964  11.359   7.450   5.719
37356SOL    HW113965  11.369   7.530   5.667
37356SOL    HW213966  11.331   7.480   5.805
37357SOL     OW13967   0.366  14.632   7.044
37357SOL    HW113968   0.386  14.641   7.137
37357SOL    HW213969   0.447  14.656   6.999
37358SOL     OW13970   6.215   5.885   3.755
37358SOL    HW113971   6.262   5.802   3.751
37358SOL    HW213972   6.271   5.947   3.708
37359SOL     OW13973   0.481   2.182   3.721
37359SOL    HW113974   0.465   2.241   3.647
37359SOL    HW213975   0.576   2.171   3.723
37360SOL     OW13976   0.941   0.702   6.838
37360SOL    HW113977   0.865   0.721   6.784
37360SOL    HW213978   0.994   0.642   6.786
37361SOL     OW13979  11.579  12.522  14.795
37361SOL    HW113980  11.564  12.613  14.820
37361SOL    HW213981  11.663  12.499  14.837
37362SOL     OW13982  10.535   6.441   3.534
37362SOL    HW113983  10.625   6.436   3.502
37362SOL    HW213984  10.509   6.532   3.520
37363SOL     OW13985   5.949   4.668  13.357
37363SOL    HW113986   6.018   4.722  13.395
37363SOL    HW213987   5.955   4.585  13.404
37364SOL     OW13988  11.600  13.137   2.809
37364SOL    HW113989  11.567  13.047   2.810
37364SOL    HW213990  11.586  13.169   2.898
37365SOL     OW13991   6.651   3.917  11.571
37365SOL    HW113992   6.732   3.909  11.519
37365SOL    HW213993   6.677   3.969  11.647
37366SOL     OW13994   9.380  10.234   3.122
37366SOL    HW113995   9.403  10.202   3.035
37366SOL    HW213996   9.371  10.154   3.175
37367SOL     OW13997   0.022  11.828   3.219
37367SOL    HW113998   0.095  11.792   3.269
37367SOL    HW213999  14.828  11.780   3.250
37368SOL     OW14000  14.091  11.722  14.357
37368SOL    HW114001  14.131  11.668  14.288
37368SOL    HW214002  14.065  11.659  14.424
37369SOL     OW14003   6.379  14.472  11.093
37369SOL    HW114004   6.435  14.511  11.160
37369SOL    HW214005   6.396  14.523  11.014
37370SOL     OW14006   2.038   6.150   2.354
37370SOL    HW114007   1.948   6.179   2.369
37370SOL    HW214008   2.030   6.084   2.285
37371SOL     OW14009   4.237   7.134  13.075
37371SOL    HW114010   4.305   7.156  13.011
37371SOL    HW214011   4.241   7.039  13.083
37372SOL     OW14012   7.934   9.985   9.921
37372SOL    HW114013   7.875   9.958   9.852
37372SOL    HW214014   7.993   9.910   9.933
37373SOL     OW14015   4.883   4.526   7.865
37373SOL    HW114016   4.890   4.435   7.835
37373SOL    HW214017   4.794   4.552   7.842
37374SOL     OW14018  14.208   5.929   8.934
37374SOL    HW114019  14.216   5.837   8.960
37374SOL    HW214020  14.256   5.977   9.001
37375SOL     OW14021   1.106   7.043   4.546
37375SOL    HW114022   1.110   7.009   4.457
37375SOL    HW214023   1.188   7.014   4.586
37376SOL     OW14024   0.371   7.953   1.242
37376SOL    HW114025   0.349   8.013   1.313
37376SOL    HW214026   0.444   7.901   1.277
37377SOL     OW14027   7.498  11.196  13.582
37377SOL    HW114028   7.406  11.213  13.601
37377SOL    HW214029   7.536  11.171  13.666
37378SOL     OW14030   9.201  12.299   5.239
37378SOL    HW114031   9.281  12.259   5.273
37378SOL    HW214032   9.230  12.380   5.199
37379SOL     OW14033   5.937   1.015   3.016
37379SOL    HW114034   5.886   0.973   2.947
37379SOL    HW214035   5.881   1.007   3.094
37380SOL     OW14036   7.708   0.828   2.903
37380SOL    HW114037   7.791   0.810   2.946
37380SOL    HW214038   7.642   0.796   2.965
37381SOL     OW14039  12.221  11.137   5.663
37381SOL    HW114040  12.127  11.119   5.671
37381SOL    HW214041  12.245  11.102   5.578
37382SOL     OW14042  12.273  10.033  10.836
37382SOL    HW114043  12.336   9.989  10.779
37382SOL    HW214044  12.284   9.991  10.921
37383SOL     OW14045   9.163  11.546   5.725
37383SOL    HW114046   9.217  11.468   5.720
37383SOL    HW214047   9.225  11.619   5.724
37384SOL     OW14048  12.684   2.227   6.166
37384SOL    HW114049  12.598   2.229   6.209
37384SOL    HW214050  12.731   2.302   6.201
37385SOL     OW14051   2.875   1.318  10.693
37385SOL    HW114052   2.896   1.256  10.762
37385SOL    HW214053   2.783   1.300  10.671
37386SOL     OW14054   0.669  10.738   1.113
37386SOL    HW114055   0.590  10.789   1.099
37386SOL    HW214056   0.701  10.766   1.199
37387SOL     OW14057   2.546   2.076  10.323
37387SOL    HW114058   2.595   1.996  10.304
37387SOL    HW214059   2.489   2.088  10.248
37388SOL     OW14060   0.769   4.222   1.652
37388SOL    HW114061   0.835   4.274   1.698
37388SOL    HW214062   0.729   4.169   1.721
37389SOL     OW14063  10.255   9.426   1.472
37389SOL    HW114064  10.262   9.485   1.547
37389SOL    HW214065  10.202   9.475   1.409
37390SOL     OW14066  12.262   3.666   5.988
37390SOL    HW114067  12.336   3.726   5.988
37390SOL    HW214068  12.285   3.599   5.924
37391SOL     OW14069  12.969   6.100   2.006
37391SOL    HW114070  13.024   6.142   2.072
37391SOL    HW214071  12.880   6.110   2.039
37392SOL     OW14072   0.987   3.023   8.520
37392SOL    HW114073   1.024   3.102   8.560
37392SOL    HW214074   1.034   2.951   8.560
37393SOL     OW14075   0.322   1.142   8.741
37393SOL    HW114076   0.329   1.220   8.796
37393SOL    HW214077   0.284   1.076   8.799
37394SOL     OW14078   7.272   2.481  14.057
37394SOL    HW114079   7.258   2.392  14.026
37394SOL    HW214080   7.268   2.535  13.977
37395SOL     OW14081   4.642  10.769   3.464
37395SOL    HW114082   4.602  10.682   3.467
37395SOL    HW214083   4.572  10.826   3.431
37396SOL     OW14084  11.774   6.706  10.080
37396SOL    HW114085  11.693   6.697  10.030
37396SOL    HW214086  11.783   6.801  10.095
37397SOL     OW14087   8.140   8.341   6.145
37397SOL    HW114088   8.139   8.255   6.188
37397SOL    HW214089   8.162   8.322   6.054
37398SOL     OW14090   1.448   0.351   2.490
37398SOL    HW114091   1.355   0.367   2.505
37398SOL    HW214092   1.452   0.317   2.401
37399SOL     OW14093  12.682   5.835   2.816
37399SOL    HW114094  12.690   5.888   2.736
37399SOL    HW214095  12.767   5.792   2.825
37400SOL     OW14096  12.521   5.068   6.794
37400SOL    HW114097  12.457   5.139   6.805
37400SOL    HW214098  12.532   5.031   6.881
37401SOL     OW14099   3.051   0.007   7.299
37401SOL    HW114100   3.047   0.083   7.242
37401SOL    HW214101   2.969  14.844   7.285
37402SOL     OW14102   8.360  11.860   5.757
37402SOL    HW114103   8.341  11.777   5.712
37402SOL    HW214104   8.409  11.833   5.835
37403SOL     OW14105  11.155   6.948   6.035
37403SOL    HW114106  11.210   7.005   6.089
37403SOL    HW214107  11.073   6.942   6.084
37404SOL     OW14108   0.733   3.090  14.279
37404SOL    HW114109   0.750   3.127  14.366
37404SOL    HW214110   0.638   3.100  14.267
37405SOL     OW14111  10.127   3.734   2.730
37405SOL    HW114112  10.161   3.684   2.656
37405SOL    HW214113  10.203   3.779   2.767
37406SOL     OW14114   3.390   6.898   5.078
37406SOL    HW114115   3.456   6.964   5.100
37406SOL    HW214116   3.330   6.898   5.153
37407SOL     OW14117  13.478   6.014   2.461
37407SOL    HW114118  13.544   5.955   2.426
37407SOL    HW214119  13.505   6.030   2.551
37408SOL     OW14120   6.335   6.238   2.910
37408SOL    HW114121   6.257   6.188   2.886
37408SOL    HW214122   6.404   6.203   2.853
37409SOL     OW14123   1.554   9.066   4.196
37409SOL    HW114124   1.589   9.106   4.116
37409SOL    HW214125   1.617   8.998   4.218
37410SOL     OW14126  14.545  10.608  10.792
37410SOL    HW114127  14.577  10.609  10.702
37410SOL    HW214128  14.508  10.695  10.805
37411SOL     OW14129   0.665  13.235   9.106
37411SOL    HW114130   0.647  13.258   9.197
37411SOL    HW214131   0.638  13.144   9.098
37412SOL     OW14132   9.575  12.227   8.331
37412SOL    HW114133   9.550  12.309   8.375
37412SOL    HW214134   9.500  12.169   8.344
37413SOL     OW14135   7.922   4.431   5.173
37413SOL    HW114136   8.014   4.445   5.153
37413SOL    HW214137   7.892   4.371   5.105
37414SOL     OW14138  13.788  14.510   2.108
37414SOL    HW114139  13.777  14.560   2.027
37414SOL    HW214140  13.882  14.496   2.115
37415SOL     OW14141  10.989   4.429   4.696
37415SOL    HW114142  11.028   4.382   4.769
37415SOL    HW214143  11.022   4.384   4.618
37416SOL     OW14144  13.563  14.458   4.933
37416SOL    HW114145  13.620  14.382   4.925
37416SOL    HW214146  13.475  14.426   4.913
37417SOL     OW14147   6.431  10.185  14.066
37417SOL    HW114148   6.405  10.243  14.138
37417SOL    HW214149   6.465  10.244  13.999
37418SOL     OW14150   9.338   7.315  10.162
37418SOL    HW114151   9.365   7.225  10.146
37418SOL    HW214152   9.308   7.347  10.077
37419SOL     OW14153  14.505   0.114   9.898
37419SOL    HW114154  14.457   0.033   9.879
37419SOL    HW214155  14.586   0.084   9.939
37420SOL     OW14156   8.699   1.084   5.051
37420SOL    HW114157   8.770   1.073   4.988
37420SOL    HW214158   8.664   0.996   5.063
37421SOL     OW14159  12.210  11.575   8.873
37421SOL    HW114160  12.233  11.504   8.812
37421SOL    HW214161  12.278  11.641   8.858
37422SOL     OW14162   4.129  12.189   5.036
37422SOL    HW114163   4.206  12.193   4.980
37422SOL    HW214164   4.135  12.104   5.079
37423SOL     OW14165  10.093   2.252   9.314
37423SOL    HW114166  10.021   2.217   9.262
37423SOL    HW214167  10.083   2.347   9.310
37424SOL     OW14168   4.988   7.155   8.374
37424SOL    HW114169   4.987   7.060   8.383
37424SOL    HW214170   4.913   7.175   8.318
37425SOL     OW14171   1.868   8.043  12.938
37425SOL    HW114172   1.957   8.078  12.927
37425SOL    HW214173   1.812   8.121  12.941
37426SOL     OW14174   2.165  10.273   0.430
37426SOL    HW114175   2.116  10.354   0.416
37426SOL    HW214176   2.117  10.227   0.499
37427SOL     OW14177   6.902   3.919  11.786
37427SOL    HW114178   6.837   3.952  11.848
37427SOL    HW214179   6.921   3.994  11.730
37428SOL     OW14180  14.455  10.551   5.208
37428SOL    HW114181  14.463  10.548   5.303
37428SOL    HW214182  14.465  10.644   5.186
37429SOL     OW14183   2.070   8.643  10.220
37429SOL    HW114184   2.026   8.558  10.222
37429SOL    HW214185   2.106   8.649  10.131
37430SOL     OW14186   7.313   1.447  13.609
37430SOL    HW114187   7.335   1.403  13.692
37430SOL    HW214188   7.366   1.401  13.544
37431SOL     OW14189   3.834   4.614   9.600
37431SOL    HW114190   3.742   4.599   9.621
37431SOL    HW214191   3.860   4.537   9.549
37432SOL     OW14192  13.744  11.148   2.489
37432SOL    HW114193  13.804  11.223   2.487
37432SOL    HW214194  13.691  11.162   2.568
37433SOL     OW14195   9.331   9.372   6.366
37433SOL    HW114196   9.405   9.399   6.420
37433SOL    HW214197   9.325   9.277   6.378
37434SOL     OW14198   2.438   1.931   2.428
37434SOL    HW114199   2.421   1.997   2.360
37434SOL    HW214200   2.364   1.870   2.420
37435SOL     OW14201  12.882   6.329   3.686
37435SOL    HW114202  12.953   6.285   3.638
37435SOL    HW214203  12.902   6.422   3.677
37436SOL     OW14204   5.567   1.805   8.371
37436SOL    HW114205   5.647   1.846   8.405
37436SOL    HW214206   5.513   1.879   8.341
37437SOL     OW14207   7.241  13.506   8.524
37437SOL    HW114208   7.326  13.490   8.485
37437SOL    HW214209   7.250  13.478   8.615
37438SOL     OW14210   1.862  10.133   9.605
37438SOL    HW114211   1.812  10.212   9.628
37438SOL    HW214212   1.895  10.101   9.688
37439SOL     OW14213   4.753   2.305   9.354
37439SOL    HW114214   4.735   2.214   9.329
37439SOL    HW214215   4.707   2.358   9.289
37440SOL     OW14216   8.108  13.677   7.881
37440SOL    HW114217   8.187  13.709   7.924
37440SOL    HW214218   8.045  13.667   7.952
37441SOL     OW14219  13.037  14.479  14.693
37441SOL    HW114220  12.969  14.441  14.748
37441SOL    HW214221  12.999  14.481  14.606
37442SOL     OW14222   1.970  10.346   6.343
37442SOL    HW114223   1.888  10.299   6.328
37442SOL    HW214224   1.967  10.420   6.282
37443SOL     OW14225   6.571   3.725   6.653
37443SOL    HW114226   6.613   3.705   6.570
37443SOL    HW214227   6.551   3.818   6.649
37444SOL     OW14228   2.858   5.175   4.925
37444SOL    HW114229   2.886   5.104   4.867
37444SOL    HW214230   2.896   5.254   4.886
37445SOL     OW14231   1.302  14.096  11.234
37445SOL    HW114232   1.367  14.041  11.189
37445SOL    HW214233   1.233  14.035  11.261
37446SOL     OW14234  11.410   6.261   0.495
37446SOL    HW114235  11.392   6.265   0.589
37446SOL    HW214236  11.353   6.329   0.458
37447SOL     OW14237   9.776   4.852   0.086
37447SOL    HW114238   9.763   4.766   0.046
37447SOL    HW214239   9.817   4.904   0.016
37448SOL     OW14240  13.874   5.551   9.173
37448SOL    HW114241  13.857   5.469   9.218
37448SOL    HW214242  13.794   5.603   9.185
37449SOL     OW14243  13.951   1.353  11.773
37449SOL    HW114244  14.020   1.418  11.761
37449SOL    HW214245  13.939   1.314  11.686
37450SOL     OW14246   4.968   4.946   2.267
37450SOL    HW114247   5.064   4.952   2.274
37450SOL    HW214248   4.953   4.868   2.214
37451SOL     OW14249  10.326   7.924   6.977
37451SOL    HW114250  10.358   7.875   7.053
37451SOL    HW214251  10.285   8.002   7.015
37452SOL     OW14252   1.333   5.694  11.215
37452SOL    HW114253   1.385   5.614  11.210
37452SOL    HW214254   1.245   5.668  11.189
37453SOL     OW14255   2.101  14.075   0.203
37453SOL    HW114256   2.073  14.128   0.278
37453SOL    HW214257   2.186  14.039   0.229
37454SOL     OW14258   7.165   4.066  10.744
37454SOL    HW114259   7.168   4.138  10.681
37454SOL    HW214260   7.072   4.054  10.762
37455SOL     OW14261   0.692  14.366   5.311
37455SOL    HW114262   0.677  14.456   5.282
37455SOL    HW214263   0.616  14.345   5.365
37456SOL     OW14264   4.896   9.994  10.640
37456SOL    HW114265   4.892   9.923  10.704
37456SOL    HW214266   4.902   9.950  10.555
37457SOL     OW14267   5.700   7.801   2.105
37457SOL    HW114268   5.683   7.773   2.015
37457SOL    HW214269   5.776   7.751   2.133
37458SOL     OW14270  13.520   6.077   9.658
37458SOL    HW114271  13.482   6.054   9.743
37458SOL    HW214272  13.453   6.054   9.594
37459SOL     OW14273   5.379  13.822  10.302
37459SOL    HW114274   5.466  13.836  10.340
37459SOL    HW214275   5.391  13.746  10.244
37460SOL     OW14276   1.999   8.550   0.036
37460SOL    HW114277   2.085   8.529  14.881
37460SOL    HW214278   1.984   8.482   0.102
37461SOL     OW14279   9.254   8.216   7.704
37461SOL    HW114280   9.330   8.258   7.663
37461SOL    HW214281   9.269   8.228   7.798
37462SOL     OW14282   0.118   3.438  14.729
37462SOL    HW114283   0.073   3.474  14.806
37462SOL    HW214284   0.188   3.384  14.766
37463SOL     OW14285   7.512   8.459   1.369
37463SOL    HW114286   7.516   8.546   1.409
37463SOL    HW214287   7.595   8.418   1.392
37464SOL     OW14288   6.026   4.175   7.469
37464SOL    HW114289   5.974   4.253   7.489
37464SOL    HW214290   6.011   4.160   7.376
37465SOL     OW14291   9.260   4.818  11.623
37465SOL    HW114292   9.217   4.896  11.590
37465SOL    HW214293   9.195   4.749  11.616
37466SOL     OW14294  10.941   3.549   7.186
37466SOL    HW114295  10.946   3.453   7.180
37466SOL    HW214296  10.847   3.567   7.191
37467SOL     OW14297   6.872   7.266  11.793
37467SOL    HW114298   6.850   7.276  11.700
37467SOL    HW214299   6.952   7.318  11.804
37468SOL     OW14300   4.046   2.057   4.945
37468SOL    HW114301   4.129   2.009   4.950
37468SOL    HW214302   4.066   2.135   4.893
37469SOL     OW14303  12.126   8.655  14.531
37469SOL    HW114304  12.036   8.624  14.545
37469SOL    HW214305  12.116   8.747  14.508
37470SOL     OW14306   2.101   8.619   5.460
37470SOL    HW114307   2.152   8.672   5.399
37470SOL    HW214308   2.026   8.590   5.408
37471SOL     OW14309   1.973   8.610   0.441
37471SOL    HW114310   1.999   8.697   0.470
37471SOL    HW214311   2.055   8.560   0.440
37472SOL     OW14312  12.472  13.963   7.107
37472SOL    HW114313  12.480  13.909   7.186
37472SOL    HW214314  12.556  14.010   7.102
37473SOL     OW14315  10.133   0.705   0.975
37473SOL    HW114316  10.084   0.629   0.943
37473SOL    HW214317  10.154   0.755   0.896
37474SOL     OW14318  12.214  14.647   6.206
37474SOL    HW114319  12.285  14.620   6.147
37474SOL    HW214320  12.242  14.617   6.293
37475SOL     OW14321   6.530  13.992   2.268
37475SOL    HW114322   6.458  14.005   2.329
37475SOL    HW214323   6.492  13.942   2.196
37476SOL     OW14324  13.080  10.771  13.755
37476SOL    HW114325  13.013  10.703  13.746
37476SOL    HW214326  13.157  10.734  13.712
37477SOL     OW14327  12.248  10.034   1.742
37477SOL    HW114328  12.282  10.024   1.653
37477SOL    HW214329  12.317  10.082   1.788
37478SOL     OW14330   1.398   1.493  14.564
37478SOL    HW114331   1.470   1.530  14.616
37478SOL    HW214332   1.347   1.442  14.626
37479SOL     OW14333   0.608  10.814  10.265
37479SOL    HW114334   0.661  10.799  10.343
37479SOL    HW214335   0.589  10.908  10.267
37480SOL     OW14336  13.643  14.852   5.946
37480SOL    HW114337  13.557  14.829   5.910
37480SOL    HW214338  13.651   0.065   5.932
37481SOL     OW14339   8.332   9.743   4.084
37481SOL    HW114340   8.376   9.716   4.003
37481SOL    HW214341   8.320   9.661   4.132
37482SOL     OW14342  13.365   1.890   8.409
37482SOL    HW114343  13.339   1.800   8.392
37482SOL    HW214344  13.438   1.884   8.469
37483SOL     OW14345  10.504  11.351   1.250
37483SOL    HW114346  10.560  11.326   1.324
37483SOL    HW214347  10.415  11.330   1.279
37484SOL     OW14348   5.940   0.876  14.716
37484SOL    HW114349   5.903   0.787  14.718
37484SOL    HW214350   5.937   0.901  14.624
37485SOL     OW14351   1.834   1.789   3.345
37485SOL    HW114352   1.804   1.817   3.259
37485SOL    HW214353   1.897   1.719   3.327
37486SOL     OW14354   7.974   8.065   9.043
37486SOL    HW114355   7.960   7.985   8.993
37486SOL    HW214356   7.893   8.115   9.033
37487SOL     OW14357   9.646   9.803  13.851
37487SOL    HW114358   9.719   9.748  13.879
37487SOL    HW214359   9.665   9.889  13.887
37488SOL     OW14360   7.194   8.795   8.771
37488SOL    HW114361   7.103   8.771   8.790
37488SOL    HW214362   7.232   8.813   8.857
37489SOL     OW14363   8.109   1.758   5.228
37489SOL    HW114364   8.177   1.753   5.161
37489SOL    HW214365   8.150   1.720   5.306
37490SOL     OW14366  10.661  13.379   8.592
37490SOL    HW114367  10.595  13.417   8.534
37490SOL    HW214368  10.737  13.363   8.535
37491SOL     OW14369   4.667  11.478   4.399
37491SOL    HW114370   4.582  11.522   4.394
37491SOL    HW214371   4.655  11.411   4.467
37492SOL     OW14372   6.624  10.394  12.860
37492SOL    HW114373   6.678  10.346  12.923
37492SOL    HW214374   6.654  10.362  12.774
37493SOL     OW14375  13.005  10.032   7.425
37493SOL    HW114376  13.050  10.108   7.462
37493SOL    HW214377  13.059  10.006   7.351
37494SOL     OW14378   2.208  12.408  10.892
37494SOL    HW114379   2.236  12.321  10.862
37494SOL    HW214380   2.118  12.395  10.923
37495SOL     OW14381   4.893   4.281   7.735
37495SOL    HW114382   4.907   4.189   7.710
37495SOL    HW214383   4.975   4.324   7.711
37496SOL     OW14384   2.069  10.854   0.743
37496SOL    HW114385   2.014  10.803   0.683
37496SOL    HW214386   2.158  10.825   0.724
37497SOL     OW14387  10.964   1.985   6.339
37497SOL    HW114388  11.012   1.921   6.286
37497SOL    HW214389  10.929   2.047   6.275
37498SOL     OW14390   3.337  10.132   9.682
37498SOL    HW114391   3.269  10.165   9.624
37498SOL    HW214392   3.297  10.058   9.727
37499SOL     OW14393   9.902  13.115  11.545
37499SOL    HW114394   9.945  13.038  11.507
37499SOL    HW214395   9.966  13.186  11.534
37500SOL     OW14396   5.796   4.339   5.612
37500SOL    HW114397   5.776   4.300   5.527
37500SOL    HW214398   5.835   4.268   5.663
37501SOL     OW14399   4.384   2.850   3.420
37501SOL    HW114400   4.388   2.822   3.511
37501SOL    HW214401   4.298   2.822   3.390
37502SOL     OW14402   4.568  14.315   4.825
37502SOL    HW114403   4.586  14.235   4.875
37502SOL    HW214404   4.523  14.284   4.746
37503SOL     OW14405   8.306   4.835   0.340
37503SOL    HW114406   8.268   4.799   0.421
37503SOL    HW214407   8.394   4.864   0.366
37504SOL     OW14408   7.638  13.814   3.796
37504SOL    HW114409   7.719  13.862   3.785
37504SOL    HW214410   7.570  13.882   3.802
37505SOL     OW14411   2.467  11.356  13.212
37505SOL    HW114412   2.526  11.402  13.272
37505SOL    HW214413   2.410  11.425  13.177
37506SOL     OW14414   0.489   8.886   6.249
37506SOL    HW114415   0.477   8.979   6.231
37506SOL    HW214416   0.479   8.844   6.164
37507SOL     OW14417   7.984  14.796   7.120
37507SOL    HW114418   8.003  14.776   7.212
37507SOL    HW214419   7.916  14.734   7.096
37508SOL     OW14420  10.400   5.791   9.571
37508SOL    HW114421  10.472   5.790   9.508
37508SOL    HW214422  10.435   5.838   9.647
37509SOL     OW14423   4.398   6.290   1.576
37509SOL    HW114424   4.403   6.250   1.490
37509SOL    HW214425   4.352   6.226   1.630
37510SOL     OW14426   7.555   4.740   7.660
37510SOL    HW114427   7.543   4.794   7.738
37510SOL    HW214428   7.604   4.796   7.600
37511SOL     OW14429  13.087   7.089  13.215
37511SOL    HW114430  13.113   7.093  13.307
37511SOL    HW214431  13.042   7.172  13.200
37512SOL     OW14432  12.699  13.567   8.359
37512SOL    HW114433  12.691  13.662   8.353
37512SOL    HW214434  12.793  13.551   8.351
37513SOL     OW14435   2.929  14.718  14.449
37513SOL    HW114436   3.015  14.689  14.482
37513SOL    HW214437   2.922  14.678  14.362
37514SOL     OW14438   6.516   3.254  14.348
37514SOL    HW114439   6.494   3.250  14.255
37514SOL    HW214440   6.501   3.164  14.380
37515SOL     OW14441  12.209   8.661  11.115
37515SOL    HW114442  12.300   8.675  11.142
37515SOL    HW214443  12.195   8.567  11.126
37516SOL     OW14444  11.548   4.576   1.235
37516SOL    HW114445  11.534   4.581   1.330
37516SOL    HW214446  11.462   4.597   1.197
37517SOL     OW14447  12.775   6.949   7.698
37517SOL    HW114448  12.814   6.973   7.782
37517SOL    HW214449  12.832   6.880   7.664
37518SOL     OW14450   7.039   3.156   0.623
37518SOL    HW114451   7.088   3.074   0.617
37518SOL    HW214452   7.049   3.196   0.537
37519SOL     OW14453  13.616   1.198   1.722
37519SOL    HW114454  13.690   1.178   1.665
37519SOL    HW214455  13.547   1.226   1.663
37520SOL     OW14456   7.676   2.178  13.451
37520SOL    HW114457   7.698   2.105  13.508
37520SOL    HW214458   7.597   2.216  13.489
37521SOL     OW14459   3.744   2.175   4.186
37521SOL    HW114460   3.821   2.118   4.192
37521SOL    HW214461   3.776   2.261   4.210
37522SOL     OW14462  10.710   3.862   5.100
37522SOL    HW114463  10.792   3.911   5.093
37522SOL    HW214464  10.715   3.821   5.187
37523SOL     OW14465   7.916   4.960  11.364
37523SOL    HW114466   7.972   4.897  11.409
37523SOL    HW214467   7.832   4.955  11.411
37524SOL     OW14468  10.699   1.938  13.454
37524SOL    HW114469  10.747   1.943  13.537
37524SOL    HW214470  10.616   1.982  13.471
37525SOL     OW14471  11.931   0.333   1.270
37525SOL    HW114472  11.967   0.289   1.193
37525SOL    HW214473  11.948   0.426   1.254
37526SOL     OW14474   9.100  11.539   6.136
37526SOL    HW114475   9.084  11.535   6.230
37526SOL    HW214476   9.087  11.631   6.113
37527SOL     OW14477  10.671   6.557   9.588
37527SOL    HW114478  10.655   6.649   9.567
37527SOL    HW214479  10.766   6.546   9.578
37528SOL     OW14480   3.015   9.239  10.135
37528SOL    HW114481   3.034   9.322  10.091
37528SOL    HW214482   3.040   9.172  10.071
37529SOL     OW14483  10.247   5.559   8.823
37529SOL    HW114484  10.232   5.578   8.916
37529SOL    HW214485  10.256   5.464   8.819
37530SOL     OW14486   8.753   7.214   2.656
37530SOL    HW114487   8.700   7.135   2.655
37530SOL    HW214488   8.794   7.217   2.569
37531SOL     OW14489   4.067  13.836   2.260
37531SOL    HW114490   4.151  13.855   2.302
37531SOL    HW214491   4.004  13.835   2.332
37532SOL     OW14492  13.851   9.716   8.980
37532SOL    HW114493  13.893   9.675   9.056
37532SOL    HW214494  13.924   9.751   8.929
37533SOL     OW14495   8.208   1.550   3.452
37533SOL    HW114496   8.173   1.622   3.504
37533SOL    HW214497   8.136   1.488   3.445
37534SOL     OW14498   2.302   0.198  11.829
37534SOL    HW114499   2.315   0.216  11.735
37534SOL    HW214500   2.390   0.182  11.863
37535SOL     OW14501   0.035   0.639   3.467
37535SOL    HW114502   0.103   0.609   3.527
37535SOL    HW214503   0.032   0.571   3.399
37536SOL     OW14504   3.798   0.045   3.498
37536SOL    HW114505   3.763   0.013   3.581
37536SOL    HW214506   3.784   0.139   3.501
37537SOL     OW14507   7.556  11.226   1.036
37537SOL    HW114508   7.525  11.220   0.945
37537SOL    HW214509   7.634  11.281   1.030
37538SOL     OW14510   0.671   0.848   0.411
37538SOL    HW114511   0.653   0.938   0.383
37538SOL    HW214512   0.751   0.854   0.463
37539SOL     OW14513   3.006   7.902   5.084
37539SOL    HW114514   3.069   7.924   5.015
37539SOL    HW214515   2.972   7.986   5.114
37540SOL     OW14516  14.701   1.128  12.591
37540SOL    HW114517  14.768   1.116  12.657
37540SOL    HW214518  14.749   1.144  12.509
37541SOL     OW14519   7.183   3.267   3.051
37541SOL    HW114520   7.114   3.298   3.111
37541SOL    HW214521   7.187   3.335   2.983
37542SOL     OW14522  13.830   7.517   0.049
37542SOL    HW114523  13.883   7.446   0.084
37542SOL    HW214524  13.741   7.496   0.076
37543SOL     OW14525   0.567  10.178  10.316
37543SOL    HW114526   0.632  10.241  10.349
37543SOL    HW214527   0.491  10.232  10.294
37544SOL     OW14528  11.118  14.162  10.037
37544SOL    HW114529  11.192  14.220  10.018
37544SOL    HW214530  11.148  14.107  10.109
37545SOL     OW14531   6.861   6.321   1.768
37545SOL    HW114532   6.797   6.258   1.800
37545SOL    HW214533   6.817   6.406   1.775
37546SOL     OW14534  13.572   2.075   8.353
37546SOL    HW114535  13.483   2.041   8.346
37546SOL    HW214536  13.627   2.005   8.319
37547SOL     OW14537  14.645   3.991   0.663
37547SOL    HW114538  14.643   3.901   0.697
37547SOL    HW214539  14.628   3.981   0.569
37548SOL     OW14540  14.743   6.203  14.113
37548SOL    HW114541  14.691   6.132  14.152
37548SOL    HW214542  14.764   6.171  14.025
37549SOL     OW14543   5.830   1.809   4.375
37549SOL    HW114544   5.784   1.887   4.407
37549SOL    HW214545   5.772   1.736   4.395
37550SOL     OW14546   3.249  12.828  14.868
37550SOL    HW114547   3.246  12.924  14.862
37550SOL    HW214548   3.280  12.800  14.782
37551SOL     OW14549   9.450  10.406   2.637
37551SOL    HW114550   9.488  10.337   2.582
37551SOL    HW214551   9.401  10.461   2.576
37552SOL     OW14552   8.170   7.432  11.975
37552SOL    HW114553   8.151   7.370  11.905
37552SOL    HW214554   8.089   7.439  12.025
37553SOL     OW14555  14.851   8.444   6.436
37553SOL    HW114556  14.867   8.366   6.489
37553SOL    HW214557  14.861   8.517   6.498
37554SOL     OW14558  10.395  10.059   6.969
37554SOL    HW114559  10.418  10.126   7.033
37554SOL    HW214560  10.378  10.107   6.888
37555SOL     OW14561   5.150   6.643   4.539
37555SOL    HW114562   5.223   6.701   4.560
37555SOL    HW214563   5.192   6.563   4.506
37556SOL     OW14564  10.804   6.417   2.894
37556SOL    HW114565  10.840   6.352   2.833
37556SOL    HW214566  10.772   6.366   2.968
37557SOL     OW14567   9.747   2.935  13.551
37557SOL    HW114568   9.750   2.866  13.486
37557SOL    HW214569   9.692   3.003  13.512
37558SOL     OW14570   8.525   0.210  10.980
37558SOL    HW114571   8.465   0.242  10.913
37558SOL    HW214572   8.594   0.275  10.984
37559SOL     OW14573   6.692   5.576   6.926
37559SOL    HW114574   6.736   5.540   6.848
37559SOL    HW214575   6.749   5.552   6.999
37560SOL     OW14576   8.424  10.425   0.144
37560SOL    HW114577   8.424  10.350   0.085
37560SOL    HW214578   8.464  10.496   0.094
37561SOL     OW14579  10.017  13.403   2.963
37561SOL    HW114580  10.022  13.326   3.020
37561SOL    HW214581  10.108  13.426   2.945
37562SOL     OW14582   9.903   3.535   5.124
37562SOL    HW114583   9.944   3.576   5.047
37562SOL    HW214584   9.856   3.459   5.089
37563SOL     OW14585  11.802  14.068  11.469
37563SOL    HW114586  11.750  14.085  11.391
37563SOL    HW214587  11.813  13.973  11.472
37564SOL     OW14588   9.270   5.146  14.869
37564SOL    HW114589   9.359   5.137  14.833
37564SOL    HW214590   9.265   5.237   0.015
37565SOL     OW14591   3.592  11.987   4.016
37565SOL    HW114592   3.552  12.005   4.101
37565SOL    HW214593   3.519  11.959   3.961
37566SOL     OW14594   4.653   7.827  14.019
37566SOL    HW114595   4.558   7.833  14.026
37566SOL    HW214596   4.668   7.785  13.935
37567SOL     OW14597   0.489  11.544   2.956
37567SOL    HW114598   0.554  11.474   2.960
37567SOL    HW214599   0.507  11.589   2.873
37568SOL     OW14600  12.758   3.447   8.258
37568SOL    HW114601  12.746   3.538   8.230
37568SOL    HW214602  12.771   3.398   8.177
37569SOL     OW14603  14.649  11.996   6.776
37569SOL    HW114604  14.717  12.009   6.709
37569SOL    HW214605  14.697  11.963   6.852
37570SOL     OW14606  14.279   7.789  14.062
37570SOL    HW114607  14.198   7.742  14.083
37570SOL    HW214608  14.291   7.776  13.968
37571SOL     OW14609   9.582   1.873  10.453
37571SOL    HW114610   9.540   1.939  10.398
37571SOL    HW214611   9.531   1.871  10.533
37572SOL     OW14612   7.717   4.517  14.235
37572SOL    HW114613   7.811   4.503  14.244
37572SOL    HW214614   7.686   4.528  14.325
37573SOL     OW14615  10.434  14.795   4.537
37573SOL    HW114616  10.387  14.788   4.454
37573SOL    HW214617  10.526  14.800   4.513
37574SOL     OW14618   3.192  14.783   4.790
37574SOL    HW114619   3.226  14.849   4.729
37574SOL    HW214620   3.105  14.762   4.757
37575SOL     OW14621   3.393  12.711   2.240
37575SOL    HW114622   3.412  12.665   2.322
37575SOL    HW214623   3.464  12.687   2.181
37576SOL     OW14624   6.373   5.672   3.696
37576SOL    HW114625   6.402   5.673   3.787
37576SOL    HW214626   6.430   5.608   3.653
37577SOL     OW14627   1.118  10.117   1.777
37577SOL    HW114628   1.077  10.125   1.863
37577SOL    HW214629   1.198  10.170   1.784
37578SOL     OW14630   2.939   5.214   9.402
37578SOL    HW114631   2.907   5.257   9.323
37578SOL    HW214632   2.862   5.203   9.456
37579SOL     OW14633   6.614   6.891   9.753
37579SOL    HW114634   6.647   6.905   9.664
37579SOL    HW214635   6.557   6.967   9.769
37580SOL     OW14636   2.337   0.714   7.346
37580SOL    HW114637   2.261   0.755   7.388
37580SOL    HW214638   2.331   0.622   7.370
37581SOL     OW14639   0.433   3.998   2.948
37581SOL    HW114640   0.467   3.966   3.031
37581SOL    HW214641   0.436   4.093   2.956
37582SOL     OW14642   7.045   3.346   5.586
37582SOL    HW114643   7.134   3.315   5.604
37582SOL    HW214644   7.057   3.423   5.531
37583SOL     OW14645   4.892   4.845   1.660
37583SOL    HW114646   4.966   4.809   1.611
37583SOL    HW214647   4.854   4.770   1.705
37584SOL     OW14648   5.216   1.593   8.904
37584SOL    HW114649   5.124   1.600   8.931
37584SOL    HW214650   5.250   1.682   8.909
37585SOL     OW14651   8.466   4.504  14.651
37585SOL    HW114652   8.467   4.422  14.602
37585SOL    HW214653   8.465   4.478  14.743
37586SOL     OW14654   5.007  10.637  14.298
37586SOL    HW114655   5.072  10.667  14.362
37586SOL    HW214656   5.039  10.670  14.214
37587SOL     OW14657   8.841   4.724   2.249
37587SOL    HW114658   8.775   4.792   2.262
37587SOL    HW214659   8.802   4.665   2.184
37588SOL     OW14660  11.050   2.976  12.665
37588SOL    HW114661  10.975   2.919  12.684
37588SOL    HW214662  11.038   3.051  12.722
37589SOL     OW14663   5.130   1.199   8.933
37589SOL    HW114664   5.067   1.271   8.940
37589SOL    HW214665   5.183   1.206   9.013
37590SOL     OW14666   5.220  11.867   2.211
37590SOL    HW114667   5.199  11.901   2.298
37590SOL    HW214668   5.303  11.909   2.188
37591SOL     OW14669   8.356   3.134  14.148
37591SOL    HW114670   8.425   3.106  14.088
37591SOL    HW214671   8.317   3.211  14.107
37592SOL     OW14672   6.911   2.338   5.435
37592SOL    HW114673   6.912   2.348   5.340
37592SOL    HW214674   6.880   2.422   5.468
37593SOL     OW14675  14.225   1.504   5.869
37593SOL    HW114676  14.149   1.553   5.836
37593SOL    HW214677  14.189   1.446   5.936
37594SOL     OW14678  14.688  12.920  11.546
37594SOL    HW114679  14.668  12.944  11.637
37594SOL    HW214680  14.773  12.877  11.551
37595SOL     OW14681   0.644  13.963   1.097
37595SOL    HW114682   0.601  14.048   1.086
37595SOL    HW214683   0.607  13.928   1.178
37596SOL     OW14684   0.793  13.008   7.681
37596SOL    HW114685   0.887  13.007   7.695
37596SOL    HW214686   0.770  13.101   7.676
37597SOL     OW14687   0.294   1.565   6.693
37597SOL    HW114688   0.384   1.562   6.725
37597SOL    HW214689   0.291   1.645   6.640
37598SOL     OW14690   3.683  11.046   4.308
37598SOL    HW114691   3.663  11.109   4.378
37598SOL    HW214692   3.602  10.998   4.295
37599SOL     OW14693   2.107  12.456   3.998
37599SOL    HW114694   2.144  12.535   4.037
37599SOL    HW214695   2.019  12.483   3.970
37600SOL     OW14696  14.794  13.795   9.721
37600SOL    HW114697   0.005  13.810   9.733
37600SOL    HW214698  14.755  13.813   9.807
37601SOL     OW14699  11.951   6.928   0.280
37601SOL    HW114700  11.879   6.911   0.219
37601SOL    HW214701  11.924   7.006   0.328
37602SOL     OW14702   0.563   1.209  12.168
37602SOL    HW114703   0.570   1.211  12.264
37602SOL    HW214704   0.493   1.146  12.151
37603SOL     OW14705   1.389   8.122   0.030
37603SOL    HW114706   1.431   8.149  14.831
37603SOL    HW214707   1.440   8.046   0.059
37604SOL     OW14708   1.483  10.369   6.119
37604SOL    HW114709   1.439  10.365   6.204
37604SOL    HW214710   1.412  10.378   6.055
37605SOL     OW14711   5.887   4.452  10.167
37605SOL    HW114712   5.950   4.523  10.180
37605SOL    HW214713   5.840   4.476  10.088
37606SOL     OW14714   8.277   2.277   4.448
37606SOL    HW114715   8.367   2.246   4.461
37606SOL    HW214716   8.287   2.366   4.416
37607SOL     OW14717   1.249  11.841  11.980
37607SOL    HW114718   1.253  11.824  12.074
37607SOL    HW214719   1.157  11.828  11.957
37608SOL     OW14720  13.647  12.796   4.777
37608SOL    HW114721  13.610  12.826   4.860
37608SOL    HW214722  13.738  12.823   4.779
37609SOL     OW14723   1.157   0.325   1.576
37609SOL    HW114724   1.238   0.365   1.545
37609SOL    HW214725   1.157   0.237   1.538
37610SOL     OW14726  12.636   3.517  12.090
37610SOL    HW114727  12.698   3.527  12.162
37610SOL    HW214728  12.676   3.452  12.033
37611SOL     OW14729   2.842   0.139   2.807
37611SOL    HW114730   2.750   0.153   2.830
37611SOL    HW214731   2.865   0.215   2.754
37612SOL     OW14732  11.622   1.589   2.114
37612SOL    HW114733  11.630   1.533   2.191
37612SOL    HW214734  11.581   1.669   2.146
37613SOL     OW14735  12.466   8.683  11.213
37613SOL    HW114736  12.489   8.600  11.170
37613SOL    HW214737  12.516   8.682  11.295
37614SOL     OW14738   3.426  11.121  12.823
37614SOL    HW114739   3.491  11.112  12.891
37614SOL    HW214740   3.412  11.215  12.814
37615SOL     OW14741   2.727   1.978   1.487
37615SOL    HW114742   2.686   2.038   1.550
37615SOL    HW214743   2.814   1.962   1.522
37616SOL     OW14744   2.227   9.469  11.755
37616SOL    HW114745   2.271   9.389  11.786
37616SOL    HW214746   2.199   9.448  11.666
37617SOL     OW14747   2.388   4.941   1.783
37617SOL    HW114748   2.300   4.976   1.764
37617SOL    HW214749   2.444   4.982   1.717
37618SOL     OW14750   8.554  14.005   4.169
37618SOL    HW114751   8.606  13.948   4.113
37618SOL    HW214752   8.463  13.988   4.143
37619SOL     OW14753   0.227   1.634   3.916
37619SOL    HW114754   0.147   1.603   3.958
37619SOL    HW214755   0.263   1.698   3.977
37620SOL     OW14756   8.130   2.413   0.431
37620SOL    HW114757   8.070   2.438   0.501
37620SOL    HW214758   8.159   2.325   0.454
37621SOL     OW14759   0.885  11.611   3.898
37621SOL    HW114760   0.871  11.704   3.879
37621SOL    HW214761   0.964  11.610   3.951
37622SOL     OW14762  13.618   1.873   2.126
37622SOL    HW114763  13.647   1.951   2.079
37622SOL    HW214764  13.566   1.825   2.062
37623SOL     OW14765   0.462   8.582  12.649
37623SOL    HW114766   0.522   8.584  12.574
37623SOL    HW214767   0.428   8.493  12.651
37624SOL     OW14768  11.914   7.389   9.718
37624SOL    HW114769  11.904   7.457   9.784
37624SOL    HW214770  11.907   7.307   9.767
37625SOL     OW14771  13.411   4.549   0.648
37625SOL    HW114772  13.373   4.469   0.610
37625SOL    HW214773  13.474   4.579   0.583
37626SOL     OW14774  14.637  10.287  14.591
37626SOL    HW114775  14.701  10.244  14.534
37626SOL    HW214776  14.616  10.369  14.546
37627SOL     OW14777   4.553   5.292   1.969
37627SOL    HW114778   4.621   5.241   1.925
37627SOL    HW214779   4.494   5.320   1.900
37628SOL     OW14780  10.968   2.453  11.965
37628SOL    HW114781  10.966   2.359  11.984
37628SOL    HW214782  10.890   2.488  12.009
37629SOL     OW14783   6.043   6.676   5.862
37629SOL    HW114784   6.000   6.753   5.899
37629SOL    HW214785   6.130   6.706   5.838
37630SOL     OW14786   7.955  10.461   5.127
37630SOL    HW114787   7.961  10.367   5.141
37630SOL    HW214788   7.905  10.493   5.203
37631SOL     OW14789   6.495   0.306  10.622
37631SOL    HW114790   6.583   0.269  10.625
37631SOL    HW214791   6.451   0.258  10.551
37632SOL     OW14792   3.648   7.141   9.272
37632SOL    HW114793   3.589   7.216   9.266
37632SOL    HW214794   3.618   7.080   9.204
37633SOL     OW14795   8.052  10.998   4.989
37633SOL    HW114796   7.983  10.997   4.923
37633SOL    HW214797   8.133  10.980   4.939
37634SOL     OW14798   7.666   3.524   7.209
37634SOL    HW114799   7.610   3.462   7.162
37634SOL    HW214800   7.749   3.522   7.162
37635SOL     OW14801   2.836  14.395   7.061
37635SOL    HW114802   2.871  14.356   6.980
37635SOL    HW214803   2.750  14.429   7.035
37636SOL     OW14804   8.368   8.317  13.637
37636SOL    HW114805   8.349   8.224  13.649
37636SOL    HW214806   8.457   8.319  13.603
37637SOL     OW14807   9.223   8.027   9.383
37637SOL    HW114808   9.234   7.977   9.303
37637SOL    HW214809   9.257   7.970   9.452
37638SOL     OW14810   8.580   0.424   2.584
37638SOL    HW114811   8.540   0.400   2.668
37638SOL    HW214812   8.518   0.393   2.518
37639SOL     OW14813   4.612  10.524  10.669
37639SOL    HW114814   4.668  10.566  10.603
37639SOL    HW214815   4.603  10.589  10.738
37640SOL     OW14816  13.152   3.284   2.462
37640SOL    HW114817  13.063   3.284   2.428
37640SOL    HW214818  13.169   3.193   2.487
37641SOL     OW14819   1.773   8.780   3.610
37641SOL    HW114820   1.761   8.709   3.674
37641SOL    HW214821   1.731   8.747   3.531
37642SOL     OW14822   5.233   4.137  10.892
37642SOL    HW114823   5.241   4.043  10.908
37642SOL    HW214824   5.300   4.177  10.946
37643SOL     OW14825   5.074   3.200   1.605
37643SOL    HW114826   5.099   3.252   1.530
37643SOL    HW214827   4.986   3.231   1.627
37644SOL     OW14828   3.990   8.695   0.049
37644SOL    HW114829   3.940   8.773   0.077
37644SOL    HW214830   3.999   8.644   0.129
37645SOL     OW14831   7.319   3.217  14.144
37645SOL    HW114832   7.380   3.210  14.218
37645SOL    HW214833   7.334   3.138  14.093
37646SOL     OW14834   2.699   4.205   0.741
37646SOL    HW114835   2.712   4.150   0.664
37646SOL    HW214836   2.608   4.190   0.766
37647SOL     OW14837  10.236  12.971  13.647
37647SOL    HW114838  10.188  12.889  13.639
37647SOL    HW214839  10.325  12.945  13.671
37648SOL     OW14840  10.863   5.055  14.767
37648SOL    HW114841  10.788   5.069  14.710
37648SOL    HW214842  10.828   5.007  14.842
37649SOL     OW14843   8.068  11.329  11.249
37649SOL    HW114844   8.151  11.325  11.202
37649SOL    HW214845   8.024  11.247  11.226
37650SOL     OW14846   1.361   0.554   3.675
37650SOL    HW114847   1.275   0.513   3.690
37650SOL    HW214848   1.384   0.591   3.760
37651SOL     OW14849   6.225   0.425   3.668
37651SOL    HW114850   6.205   0.347   3.719
37651SOL    HW214851   6.146   0.440   3.616
37652SOL     OW14852  10.896   0.150   8.000
37652SOL    HW114853  10.935   0.070   8.037
37652SOL    HW214854  10.970   0.206   7.979
37653SOL     OW14855  10.061  11.398  12.395
37653SOL    HW114856   9.986  11.350  12.431
37653SOL    HW214857  10.122  11.406  12.469
37654SOL     OW14858  11.550   2.433   2.714
37654SOL    HW114859  11.471   2.416   2.765
37654SOL    HW214860  11.620   2.389   2.763
37655SOL     OW14861   6.263   9.983   9.429
37655SOL    HW114862   6.211  10.063   9.436
37655SOL    HW214863   6.199   9.915   9.408
37656SOL     OW14864   6.835   4.455  12.309
37656SOL    HW114865   6.818   4.382  12.368
37656SOL    HW214866   6.887   4.517  12.360
37657SOL     OW14867  11.022   2.080  12.329
37657SOL    HW114868  10.962   2.068  12.403
37657SOL    HW214869  11.071   1.998  12.324
37658SOL     OW14870   4.945  12.063  11.804
37658SOL    HW114871   4.894  12.099  11.731
37658SOL    HW214872   4.974  11.977  11.772
37659SOL     OW14873   5.488   7.573   2.022
37659SOL    HW114874   5.443   7.633   2.081
37659SOL    HW214875   5.436   7.574   1.941
37660SOL     OW14876   8.692  13.332   8.199
37660SOL    HW114877   8.684  13.289   8.114
37660SOL    HW214878   8.780  13.371   8.198
37661SOL     OW14879   9.479   4.737   1.042
37661SOL    HW114880   9.405   4.694   0.999
37661SOL    HW214881   9.466   4.831   1.025
37662SOL     OW14882   1.544  11.583   9.580
37662SOL    HW114883   1.485  11.629   9.519
37662SOL    HW214884   1.577  11.508   9.529
37663SOL     OW14885   0.581   7.173  14.056
37663SOL    HW114886   0.533   7.183  14.139
37663SOL    HW214887   0.666   7.213  14.072
37664SOL     OW14888   0.068   8.716   4.309
37664SOL    HW114889   0.141   8.759   4.266
37664SOL    HW214890  14.872   8.761   4.276
37665SOL     OW14891   7.437   4.966   5.512
37665SOL    HW114892   7.390   4.920   5.443
37665SOL    HW214893   7.448   5.055   5.479
37666SOL     OW14894   4.661   0.086   2.423
37666SOL    HW114895   4.678   0.139   2.345
37666SOL    HW214896   4.639  14.882   2.389
37667SOL     OW14897  12.811   1.564   5.210
37667SOL    HW114898  12.836   1.517   5.290
37667SOL    HW214899  12.715   1.568   5.214
37668SOL     OW14900   5.920  14.857   8.305
37668SOL    HW114901   5.914  14.762   8.290
37668SOL    HW214902   5.988   0.004   8.245
37669SOL     OW14903   5.237  12.779   3.514
37669SOL    HW114904   5.205  12.712   3.454
37669SOL    HW214905   5.184  12.768   3.593
37670SOL     OW14906   5.451   4.056  11.843
37670SOL    HW114907   5.505   4.038  11.920
37670SOL    HW214908   5.373   4.099  11.878
37671SOL     OW14909   4.441   3.484   4.381
37671SOL    HW114910   4.354   3.519   4.360
37671SOL    HW214911   4.422   3.405   4.433
37672SOL     OW14912  12.671   3.748   4.921
37672SOL    HW114913  12.656   3.686   4.992
37672SOL    HW214914  12.687   3.832   4.965
37673SOL     OW14915   6.588   6.286  13.025
37673SOL    HW114916   6.518   6.348  13.044
37673SOL    HW214917   6.662   6.317  13.077
37674SOL     OW14918  14.750   8.191  10.388
37674SOL    HW114919  14.717   8.194  10.478
37674SOL    HW214920  14.707   8.265  10.345
37675SOL     OW14921   5.348  10.154  11.843
37675SOL    HW114922   5.397  10.073  11.858
37675SOL    HW214923   5.365  10.176  11.751
37676SOL     OW14924   2.297   1.054   1.630
37676SOL    HW114925   2.300   1.004   1.712
37676SOL    HW214926   2.206   1.046   1.601
37677SOL     OW14927   5.465  12.230   2.328
37677SOL    HW114928   5.502  12.304   2.280
37677SOL    HW214929   5.375  12.222   2.295
37678SOL     OW14930  14.673   7.253   1.829
37678SOL    HW114931  14.693   7.259   1.922
37678SOL    HW214932  14.590   7.299   1.820
37679SOL     OW14933   6.904  11.324   4.728
37679SOL    HW114934   6.831  11.386   4.732
37679SOL    HW214935   6.920  11.300   4.819
37680SOL     OW14936  11.013  13.103  13.790
37680SOL    HW114937  10.980  13.018  13.818
37680SOL    HW214938  11.059  13.085  13.708
37681SOL     OW14939  11.429   0.231   6.994
37681SOL    HW114940  11.446   0.142   7.026
37681SOL    HW214941  11.515   0.262   6.965
37682SOL     OW14942   2.566  14.455   2.299
37682SOL    HW114943   2.587  14.514   2.371
37682SOL    HW214944   2.542  14.373   2.342
37683SOL     OW14945   7.751  12.668   4.128
37683SOL    HW114946   7.698  12.594   4.097
37683SOL    HW214947   7.711  12.691   4.212
37684SOL     OW14948  10.912  11.023   0.706
37684SOL    HW114949  10.854  10.976   0.645
37684SOL    HW214950  10.876  11.111   0.711
37685SOL     OW14951   4.728  12.289   7.212
37685SOL    HW114952   4.680  12.207   7.224
37685SOL    HW214953   4.739  12.297   7.117
37686SOL     OW14954   9.178   8.902   3.380
37686SOL    HW114955   9.119   8.912   3.305
37686SOL    HW214956   9.254   8.856   3.344
37687SOL     OW14957   0.565  13.459   0.310
37687SOL    HW114958   0.572  13.478   0.404
37687SOL    HW214959   0.582  13.365   0.303
37688SOL     OW14960   2.754   6.978  11.731
37688SOL    HW114961   2.848   6.982  11.750
37688SOL    HW214962   2.716   6.940  11.811
37689SOL     OW14963   1.740  10.942   1.680
37689SOL    HW114964   1.670  10.893   1.724
37689SOL    HW214965   1.787  10.986   1.752
37690SOL     OW14966   8.349  12.523   3.698
37690SOL    HW114967   8.401  12.589   3.652
37690SOL    HW214968   8.267  12.518   3.648
37691SOL     OW14969  14.308   2.593   1.825
37691SOL    HW114970  14.236   2.617   1.767
37691SOL    HW214971  14.267   2.540   1.893
37692SOL     OW14972   6.684   5.196  11.831
37692SOL    HW114973   6.617   5.134  11.804
37692SOL    HW214974   6.671   5.207  11.926
37693SOL     OW14975   0.395   4.890   4.801
37693SOL    HW114976   0.379   4.840   4.721
37693SOL    HW214977   0.458   4.957   4.776
37694SOL     OW14978  14.072  10.888  13.329
37694SOL    HW114979  13.991  10.926  13.363
37694SOL    HW214980  14.136  10.960  13.333
37695SOL     OW14981  11.817   7.705   3.372
37695SOL    HW114982  11.732   7.707   3.415
37695SOL    HW214983  11.860   7.785   3.400
37696SOL     OW14984   2.271   5.037  11.241
37696SOL    HW114985   2.311   4.952  11.259
37696SOL    HW214986   2.344   5.094  11.217
37697SOL     OW14987   7.030   6.759  12.464
37697SOL    HW114988   7.123   6.757  12.489
37697SOL    HW214989   7.017   6.848  12.429
37698SOL     OW14990   0.382   4.494  11.603
37698SOL    HW114991   0.462   4.542  11.625
37698SOL    HW214992   0.409   4.433  11.535
37699SOL     OW14993   2.445   5.400  10.952
37699SOL    HW114994   2.461   5.460  10.880
37699SOL    HW214995   2.484   5.318  10.924
37700SOL     OW14996  13.030  10.217  13.820
37700SOL    HW114997  13.065  10.297  13.860
37700SOL    HW214998  13.105  10.158  13.814
37701SOL     OW14999  11.346  11.372   9.118
37701SOL    HW115000  11.289  11.447   9.102
37701SOL    HW215001  11.353  11.367   9.214
37702SOL     OW15002   7.145   2.029   6.317
37702SOL    HW115003   7.228   2.044   6.272
37702SOL    HW215004   7.095   1.974   6.257
37703SOL     OW15005   0.287  10.019  13.450
37703SOL    HW115006   0.296   9.930  13.484
37703SOL    HW215007   0.348  10.024  13.377
37704SOL     OW15008   5.414  12.625   6.587
37704SOL    HW115009   5.484  12.674   6.630
37704SOL    HW215010   5.424  12.536   6.619
37705SOL     OW15011  13.905  13.557   8.144
37705SOL    HW115012  13.892  13.542   8.051
37705SOL    HW215013  13.913  13.469   8.181
37706SOL     OW15014  10.845  10.364   1.643
37706SOL    HW115015  10.937  10.392   1.646
37706SOL    HW215016  10.842  10.303   1.569
37707SOL     OW15017   1.989  10.304   7.040
37707SOL    HW115018   2.035  10.320   6.957
37707SOL    HW215019   1.976  10.390   7.078
37708SOL     OW15020   2.608   2.738   1.791
37708SOL    HW115021   2.692   2.733   1.837
37708SOL    HW215022   2.631   2.761   1.701
37709SOL     OW15023  11.331  11.637   0.500
37709SOL    HW115024  11.344  11.657   0.407
37709SOL    HW215025  11.344  11.542   0.506
37710SOL     OW15026  13.864   0.278   4.460
37710SOL    HW115027  13.811   0.321   4.393
37710SOL    HW215028  13.804   0.216   4.502
37711SOL     OW15029   4.348   9.083  10.465
37711SOL    HW115030   4.265   9.039  10.486
37711SOL    HW215031   4.359   9.069  10.371
37712SOL     OW15032   5.652   3.418   2.318
37712SOL    HW115033   5.649   3.472   2.239
37712SOL    HW215034   5.609   3.471   2.385
37713SOL     OW15035   7.747  12.936  11.997
37713SOL    HW115036   7.837  12.912  11.975
37713SOL    HW215037   7.754  13.027  12.026
37714SOL     OW15038  11.424   6.385   3.133
37714SOL    HW115039  11.440   6.451   3.066
37714SOL    HW215040  11.511   6.368   3.170
37715SOL     OW15041  11.936   3.171   7.044
37715SOL    HW115042  11.930   3.156   6.950
37715SOL    HW215043  11.969   3.260   7.053
37716SOL     OW15044   7.091  10.725  13.048
37716SOL    HW115045   7.135  10.802  13.085
37716SOL    HW215046   7.081  10.746  12.955
37717SOL     OW15047   0.710   0.169  12.095
37717SOL    HW115048   0.714   0.140  12.004
37717SOL    HW215049   0.796   0.148  12.131
37718SOL     OW15050  14.151   5.022   8.440
37718SOL    HW115051  14.066   5.067   8.441
37718SOL    HW215052  14.206   5.076   8.383
37719SOL     OW15053  10.858   0.175   5.547
37719SOL    HW115054  10.771   0.134   5.553
37719SOL    HW215055  10.872   0.213   5.634
37720SOL     OW15056  13.330   6.739  13.049
37720SOL    HW115057  13.326   6.745  12.953
37720SOL    HW215058  13.395   6.804  13.075
37721SOL     OW15059   9.976  12.094  11.773
37721SOL    HW115060   9.907  12.036  11.802
37721SOL    HW215061  10.042  12.091  11.843
37722SOL     OW15062  14.845   3.808   7.523
37722SOL    HW115063  14.829   3.713   7.525
37722SOL    HW215064   0.030   3.823   7.590
37723SOL     OW15065   3.211   5.186   4.717
37723SOL    HW115066   3.184   5.218   4.631
37723SOL    HW215067   3.149   5.116   4.737
37724SOL     OW15068  12.507   0.479   6.124
37724SOL    HW115069  12.534   0.454   6.036
37724SOL    HW215070  12.583   0.525   6.160
37725SOL     OW15071   7.295   5.229  11.415
37725SOL    HW115072   7.373   5.182  11.386
37725SOL    HW215073   7.234   5.161  11.440
37726SOL     OW15074   9.838   1.318   6.252
37726SOL    HW115075   9.898   1.355   6.188
37726SOL    HW215076   9.751   1.346   6.223
37727SOL     OW15077  13.356   2.139  11.538
37727SOL    HW115078  13.388   2.117  11.450
37727SOL    HW215079  13.432   2.127  11.595
37728SOL     OW15080  13.593   1.181   8.058
37728SOL    HW115081  13.585   1.086   8.064
37728SOL    HW215082  13.518   1.208   8.006
37729SOL     OW15083   8.469   6.668   0.638
37729SOL    HW115084   8.547   6.723   0.626
37729SOL    HW215085   8.436   6.654   0.549
37730SOL     OW15086  10.935  11.469   1.611
37730SOL    HW115087  10.939  11.378   1.638
37730SOL    HW215088  10.843  11.483   1.587
37731SOL     OW15089   4.114   6.027   5.094
37731SOL    HW115090   4.196   6.057   5.134
37731SOL    HW215091   4.075   6.106   5.056
37732SOL     OW15092  10.772   8.397   7.708
37732SOL    HW115093  10.708   8.457   7.669
37732SOL    HW215094  10.852   8.410   7.657
37733SOL     OW15095  12.734  12.123  13.539
37733SOL    HW115096  12.752  12.030  13.530
37733SOL    HW215097  12.749  12.158  13.451
37734SOL     OW15098   4.969  14.880  12.750
37734SOL    HW115099   4.964  14.813  12.818
37734SOL    HW215100   4.880   0.001  12.714
37735SOL     OW15101   7.989   6.819  14.178
37735SOL    HW115102   8.062   6.877  14.156
37735SOL    HW215103   7.919   6.877  14.207
37736SOL     OW15104   5.138   3.355   4.942
37736SOL    HW115105   5.147   3.267   4.906
37736SOL    HW215106   5.110   3.342   5.032
37737SOL     OW15107   8.601  11.902   3.195
37737SOL    HW115108   8.639  11.926   3.279
37737SOL    HW215109   8.645  11.958   3.131
37738SOL     OW15110   6.023   9.524  13.983
37738SOL    HW115111   5.938   9.480  13.989
37738SOL    HW215112   6.061   9.492  13.901
37739SOL     OW15113   8.221  13.508   0.714
37739SOL    HW115114   8.154  13.493   0.647
37739SOL    HW215115   8.195  13.590   0.756
37740SOL     OW15116   2.274   6.399  10.877
37740SOL    HW115117   2.295   6.484  10.915
37740SOL    HW215118   2.192   6.373  10.920
37741SOL     OW15119  13.241   2.393   8.651
37741SOL    HW115120  13.189   2.320   8.617
37741SOL    HW215121  13.317   2.398   8.593
37742SOL     OW15122   7.184   0.470   5.997
37742SOL    HW115123   7.096   0.482   5.960
37742SOL    HW215124   7.187   0.530   6.071
37743SOL     OW15125   0.820  12.655  11.291
37743SOL    HW115126   0.749  12.597  11.318
37743SOL    HW215127   0.802  12.672  11.198
37744SOL     OW15128   4.375   2.160   8.270
37744SOL    HW115129   4.461   2.192   8.244
37744SOL    HW215130   4.339   2.121   8.191
37745SOL     OW15131   2.227  11.220   7.582
37745SOL    HW115132   2.317  11.236   7.610
37745SOL    HW215133   2.232  11.145   7.524
37746SOL     OW15134   0.133   2.018   9.226
37746SOL    HW115135   0.067   2.083   9.199
37746SOL    HW215136   0.088   1.934   9.222
37747SOL     OW15137  10.915   4.405   7.257
37747SOL    HW115138  11.001   4.437   7.286
37747SOL    HW215139  10.910   4.316   7.290
37748SOL     OW15140   9.963  10.711   6.698
37748SOL    HW115141  10.052  10.687   6.671
37748SOL    HW215142   9.971  10.730   6.792
37749SOL     OW15143  10.959  11.400   9.294
37749SOL    HW115144  10.945  11.315   9.252
37749SOL    HW215145  10.890  11.456   9.258
37750SOL     OW15146  14.553   6.099   5.041
37750SOL    HW115147  14.490   6.163   5.072
37750SOL    HW215148  14.520   6.073   4.955
37751SOL     OW15149  12.419   1.852  14.021
37751SOL    HW115150  12.432   1.888  14.109
37751SOL    HW215151  12.369   1.920  13.975
37752SOL     OW15152   9.299  13.108   5.567
37752SOL    HW115153   9.327  13.170   5.634
37752SOL    HW215154   9.297  13.023   5.612
37753SOL     OW15155  10.752  12.396   9.518
37753SOL    HW115156  10.671  12.407   9.569
37753SOL    HW215157  10.801  12.477   9.534
37754SOL     OW15158   6.313   6.011   6.726
37754SOL    HW115159   6.354   5.973   6.804
37754SOL    HW215160   6.368   5.981   6.653
37755SOL     OW15161   0.053   6.665   0.598
37755SOL    HW115162   0.079   6.577   0.626
37755SOL    HW215163   0.118   6.689   0.532
37756SOL     OW15164   7.384   1.213   7.908
37756SOL    HW115165   7.354   1.147   7.846
37756SOL    HW215166   7.474   1.231   7.883
37757SOL     OW15167   6.568   7.640  11.106
37757SOL    HW115168   6.518   7.598  11.037
37757SOL    HW215169   6.643   7.582  11.119
37758SOL     OW15170   2.882   0.841   8.298
37758SOL    HW115171   2.950   0.854   8.233
37758SOL    HW215172   2.853   0.751   8.285
37759SOL     OW15173   9.053  14.549   1.820
37759SOL    HW115174   9.068  14.523   1.729
37759SOL    HW215175   9.134  14.524   1.865
37760SOL     OW15176   8.431   9.570   3.646
37760SOL    HW115177   8.464   9.579   3.556
37760SOL    HW215178   8.363   9.502   3.639
37761SOL     OW15179  14.051  13.962   6.334
37761SOL    HW115180  14.012  13.930   6.415
37761SOL    HW215181  14.070  14.054   6.351
37762SOL     OW15182   2.163  13.767   7.380
37762SOL    HW115183   2.090  13.709   7.402
37762SOL    HW215184   2.122  13.854   7.376
37763SOL     OW15185   8.666   8.502   5.377
37763SOL    HW115186   8.681   8.596   5.378
37763SOL    HW215187   8.749   8.465   5.347
37764SOL     OW15188   9.781  14.543   9.711
37764SOL    HW115189   9.808  14.628   9.676
37764SOL    HW215190   9.862  14.493   9.717
37765SOL     OW15191   9.865   3.586   5.728
37765SOL    HW115192   9.834   3.569   5.639
37765SOL    HW215193   9.961   3.582   5.720
37766SOL     OW15194  11.261   1.180   4.564
37766SOL    HW115195  11.185   1.140   4.521
37766SOL    HW215196  11.314   1.215   4.492
37767SOL     OW15197  10.658   9.440   1.001
37767SOL    HW115198  10.641   9.500   1.073
37767SOL    HW215199  10.611   9.478   0.927
37768SOL     OW15200  14.288   3.130  12.317
37768SOL    HW115201  14.378   3.097  12.313
37768SOL    HW215202  14.254   3.118  12.229
37769SOL     OW15203   1.494   7.871   0.523
37769SOL    HW115204   1.413   7.920   0.535
37769SOL    HW215205   1.554   7.932   0.481
37770SOL     OW15206   3.865   3.345   3.789
37770SOL    HW115207   3.776   3.362   3.757
37770SOL    HW215208   3.892   3.428   3.829
37771SOL     OW15209   9.379   2.693   1.416
37771SOL    HW115210   9.459   2.717   1.369
37771SOL    HW215211   9.409   2.657   1.499
37772SOL     OW15212   8.597  12.164   7.056
37772SOL    HW115213   8.516  12.146   7.007
37772SOL    HW215214   8.574  12.236   7.114
37773SOL     OW15215   3.609  12.209  11.694
37773SOL    HW115216   3.665  12.280  11.661
37773SOL    HW215217   3.625  12.136  11.634
37774SOL     OW15218   1.498  10.868   9.784
37774SOL    HW115219   1.545  10.921   9.850
37774SOL    HW215220   1.511  10.778   9.812
37775SOL     OW15221  10.166   4.109  10.829
37775SOL    HW115222  10.167   4.019  10.796
37775SOL    HW215223  10.218   4.159  10.766
37776SOL     OW15224   3.717  12.593   6.512
37776SOL    HW115225   3.658  12.541   6.456
37776SOL    HW215226   3.712  12.682   6.476
37777SOL     OW15227   5.818   1.469   4.370
37777SOL    HW115228   5.853   1.391   4.327
37777SOL    HW215229   5.737   1.489   4.322
37778SOL     OW15230  11.434   5.940  11.996
37778SOL    HW115231  11.426   5.965  11.904
37778SOL    HW215232  11.402   6.016  12.044
37779SOL     OW15233  12.612   2.810   2.092
37779SOL    HW115234  12.581   2.745   2.029
37779SOL    HW215235  12.533   2.860   2.116
37780SOL     OW15236   3.867  11.365  11.518
37780SOL    HW115237   3.799  11.374  11.584
37780SOL    HW215238   3.877  11.270  11.507
37781SOL     OW15239   3.769  13.374  11.012
37781SOL    HW115240   3.862  13.361  11.030
37781SOL    HW215241   3.733  13.286  11.007
37782SOL     OW15242   5.010  11.130   4.182
37782SOL    HW115243   4.941  11.189   4.154
37782SOL    HW215244   4.993  11.115   4.275
37783SOL     OW15245   4.007   4.549   6.837
37783SOL    HW115246   4.059   4.630   6.834
37783SOL    HW215247   4.071   4.479   6.830
37784SOL     OW15248   2.668   7.291   1.125
37784SOL    HW115249   2.716   7.372   1.108
37784SOL    HW215250   2.589   7.298   1.073
37785SOL     OW15251   4.949   8.762   6.478
37785SOL    HW115252   4.988   8.795   6.397
37785SOL    HW215253   5.005   8.688   6.503
37786SOL     OW15254   5.187  14.247   4.616
37786SOL    HW115255   5.226  14.309   4.678
37786SOL    HW215256   5.169  14.300   4.539
37787SOL     OW15257   6.933   5.901   8.755
37787SOL    HW115258   6.873   5.901   8.680
37787SOL    HW215259   6.886   5.949   8.823
37788SOL     OW15260   3.275   9.361   5.334
37788SOL    HW115261   3.225   9.434   5.370
37788SOL    HW215262   3.210   9.308   5.288
37789SOL     OW15263   0.481   0.707   0.708
37789SOL    HW115264   0.573   0.731   0.707
37789SOL    HW215265   0.435   0.785   0.677
37790SOL     OW15266  13.446  14.080   5.690
37790SOL    HW115267  13.381  14.053   5.755
37790SOL    HW215268  13.477  13.997   5.653
37791SOL     OW15269   9.454  11.994   0.729
37791SOL    HW115270   9.544  12.011   0.756
37791SOL    HW215271   9.400  12.041   0.792
37792SOL     OW15272   8.365  12.261   2.670
37792SOL    HW115273   8.344  12.177   2.711
37792SOL    HW215274   8.377  12.240   2.578
37793SOL     OW15275   2.703  13.698  14.722
37793SOL    HW115276   2.677  13.787  14.699
37793SOL    HW215277   2.659  13.682  14.805
37794SOL     OW15278   0.556   1.626   7.644
37794SOL    HW115279   0.582   1.716   7.664
37794SOL    HW215280   0.498   1.634   7.569
37795SOL     OW15281   3.273   7.912   1.603
37795SOL    HW115282   3.314   7.914   1.517
37795SOL    HW215283   3.261   8.005   1.625
37796SOL     OW15284   5.168   1.119   2.635
37796SOL    HW115285   5.216   1.113   2.718
37796SOL    HW215286   5.077   1.131   2.661
37797SOL     OW15287   7.647  11.934   3.624
37797SOL    HW115288   7.711  11.921   3.694
37797SOL    HW215289   7.599  11.851   3.620
37798SOL     OW15290  12.639   7.467   9.682
37798SOL    HW115291  12.560   7.450   9.734
37798SOL    HW215292  12.702   7.402   9.713
37799SOL     OW15293   0.343   0.771  13.590
37799SOL    HW115294   0.407   0.839  13.568
37799SOL    HW215295   0.258   0.815  13.582
37800SOL     OW15296   2.969   7.057  13.531
37800SOL    HW115297   2.982   6.969  13.565
37800SOL    HW215298   2.877   7.077  13.551
37801SOL     OW15299   3.970   8.017   8.947
37801SOL    HW115300   4.055   7.973   8.940
37801SOL    HW215301   3.977   8.069   9.027
37802SOL     OW15302  12.173   6.598   3.555
37802SOL    HW115303  12.146   6.592   3.463
37802SOL    HW215304  12.198   6.690   3.567
37803SOL     OW15305  10.431   3.709   0.501
37803SOL    HW115306  10.469   3.654   0.432
37803SOL    HW215307  10.337   3.693   0.495
37804SOL     OW15308  11.772   0.116  12.224
37804SOL    HW115309  11.705   0.049  12.239
37804SOL    HW215310  11.833   0.074  12.163
37805SOL     OW15311   3.520  14.446   1.196
37805SOL    HW115312   3.426  14.459   1.182
37805SOL    HW215313   3.558  14.447   1.108
37806SOL     OW15314   5.319   2.337   1.197
37806SOL    HW115315   5.368   2.359   1.276
37806SOL    HW215316   5.244   2.286   1.228
37807SOL     OW15317   9.895  13.535   2.512
37807SOL    HW115318   9.861  13.623   2.502
37807SOL    HW215319   9.882  13.513   2.604
37808SOL     OW15320   8.270   2.670   7.779
37808SOL    HW115321   8.298   2.761   7.772
37808SOL    HW215322   8.222   2.666   7.861
37809SOL     OW15323  13.330   0.352   6.586
37809SOL    HW115324  13.236   0.341   6.571
37809SOL    HW215325  13.356   0.420   6.524
37810SOL     OW15326  11.330   4.844   4.434
37810SOL    HW115327  11.392   4.885   4.374
37810SOL    HW215328  11.244   4.874   4.405
37811SOL     OW15329   7.303  14.747   4.099
37811SOL    HW115330   7.209  14.738   4.112
37811SOL    HW215331   7.342  14.680   4.156
37812SOL     OW15332   8.451  12.620   9.601
37812SOL    HW115333   8.425  12.533   9.571
37812SOL    HW215334   8.415  12.679   9.535
37813SOL     OW15335   6.909   9.176  11.176
37813SOL    HW115336   6.951   9.175  11.091
37813SOL    HW215337   6.976   9.210  11.236
37814SOL     OW15338  14.522   8.393   8.734
37814SOL    HW115339  14.584   8.320   8.727
37814SOL    HW215340  14.436   8.351   8.736
37815SOL     OW15341   5.370  10.962  10.273
37815SOL    HW115342   5.415  10.881  10.296
37815SOL    HW215343   5.436  11.030  10.284
37816SOL     OW15344  14.156   5.938   9.290
37816SOL    HW115345  14.163   5.843   9.282
37816SOL    HW215346  14.064   5.953   9.312
37817SOL     OW15347   9.553   1.792  11.124
37817SOL    HW115348   9.531   1.740  11.201
37817SOL    HW215349   9.629   1.749  11.086
37818SOL     OW15350  11.690  13.928   2.568
37818SOL    HW115351  11.783  13.942   2.590
37818SOL    HW215352  11.650  14.014   2.582
37819SOL     OW15353  12.906   0.463   0.966
37819SOL    HW115354  12.922   0.376   1.002
37819SOL    HW215355  12.811   0.466   0.950
37820SOL     OW15356   0.941   3.239   0.119
37820SOL    HW115357   0.922   3.145   0.110
37820SOL    HW215358   1.035   3.242   0.140
37821SOL     OW15359   5.668   0.720   5.034
37821SOL    HW115360   5.615   0.799   5.047
37821SOL    HW215361   5.675   0.681   5.121
37822SOL     OW15362   2.107   5.647   8.553
37822SOL    HW115363   2.044   5.669   8.484
37822SOL    HW215364   2.092   5.713   8.621
37823SOL     OW15365  11.245   6.711   6.213
37823SOL    HW115366  11.192   6.781   6.175
37823SOL    HW215367  11.330   6.751   6.230
37824SOL     OW15368   4.657  11.211   4.601
37824SOL    HW115369   4.734  11.160   4.625
37824SOL    HW215370   4.583  11.162   4.637
37825SOL     OW15371   2.578   6.396  10.664
37825SOL    HW115372   2.521   6.471  10.644
37825SOL    HW215373   2.570   6.339  10.588
37826SOL     OW15374   3.438   3.444   3.426
37826SOL    HW115375   3.524   3.460   3.464
37826SOL    HW215376   3.443   3.479   3.337
37827SOL     OW15377  13.285   8.505  13.278
37827SOL    HW115378  13.311   8.433  13.221
37827SOL    HW215379  13.189   8.506  13.273
37828SOL     OW15380   3.727  14.838   4.352
37828SOL    HW115381   3.795  14.869   4.292
37828SOL    HW215382   3.751  14.876   4.437
37829SOL     OW15383  12.080   0.441   7.078
37829SOL    HW115384  12.130   0.497   7.138
37829SOL    HW215385  12.012   0.499   7.043
37830SOL     OW15386   2.313  10.681   3.717
37830SOL    HW115387   2.336  10.645   3.802
37830SOL    HW215388   2.231  10.729   3.733
37831SOL     OW15389  11.925   4.023   6.973
37831SOL    HW115390  11.974   4.025   7.055
37831SOL    HW215391  11.901   4.114   6.957
37832SOL     OW15392  10.000  10.489  13.036
37832SOL    HW115393  10.079  10.448  13.000
37832SOL    HW215394   9.932  10.423  13.027
37833SOL     OW15395  14.471   9.389   7.359
37833SOL    HW115396  14.441   9.408   7.448
37833SOL    HW215397  14.421   9.448   7.304
37834SOL     OW15398   4.831  10.787   4.387
37834SOL    HW115399   4.829  10.691   4.396
37834SOL    HW215400   4.916  10.804   4.346
37835SOL     OW15401  11.740   4.158  13.443
37835SOL    HW115402  11.719   4.148  13.350
37835SOL    HW215403  11.798   4.085  13.463
37836SOL     OW15404  10.358   3.767   4.759
37836SOL    HW115405  10.423   3.799   4.697
37836SOL    HW215406  10.334   3.845   4.810
37837SOL     OW15407   3.366   9.646  12.721
37837SOL    HW115408   3.396   9.556  12.733
37837SOL    HW215409   3.276   9.636  12.689
37838SOL     OW15410   0.934  11.504  13.412
37838SOL    HW115411   0.858  11.452  13.385
37838SOL    HW215412   0.961  11.549  13.332
37839SOL     OW15413   5.177  11.841  13.387
37839SOL    HW115414   5.165  11.889  13.469
37839SOL    HW215415   5.123  11.887  13.323
37840SOL     OW15416   8.526  11.616   2.164
37840SOL    HW115417   8.526  11.589   2.256
37840SOL    HW215418   8.576  11.547   2.119
37841SOL     OW15419   4.630  14.225   6.926
37841SOL    HW115420   4.650  14.319   6.919
37841SOL    HW215421   4.572  14.219   7.002
37842SOL     OW15422   9.444  12.053   3.856
37842SOL    HW115423   9.418  12.122   3.794
37842SOL    HW215424   9.505  12.096   3.916
37843SOL     OW15425   2.877   4.364  14.627
37843SOL    HW115426   2.781   4.358  14.633
37843SOL    HW215427   2.907   4.364  14.717
37844SOL     OW15428  13.092   3.549  12.856
37844SOL    HW115429  13.161   3.524  12.917
37844SOL    HW215430  13.074   3.469  12.806
37845SOL     OW15431   6.739   7.689   1.690
37845SOL    HW115432   6.834   7.687   1.686
37845SOL    HW215433   6.715   7.601   1.720
37846SOL     OW15434   3.728   9.658   3.916
37846SOL    HW115435   3.752   9.584   3.972
37846SOL    HW215436   3.809   9.680   3.869
37847SOL     OW15437   0.692  10.969   7.665
37847SOL    HW115438   0.750  10.956   7.740
37847SOL    HW215439   0.749  11.002   7.596
37848SOL     OW15440   3.610  11.132  11.267
37848SOL    HW115441   3.604  11.040  11.294
37848SOL    HW215442   3.696  11.140  11.227
37849SOL     OW15443  11.421   7.611   2.189
37849SOL    HW115444  11.416   7.688   2.132
37849SOL    HW215445  11.514   7.605   2.212
37850SOL     OW15446   9.118   4.122   6.132
37850SOL    HW115447   9.091   4.035   6.161
37850SOL    HW215448   9.042   4.178   6.150
37851SOL     OW15449   3.060  14.575   4.614
37851SOL    HW115450   2.995  14.534   4.556
37851SOL    HW215451   3.026  14.562   4.702
37852SOL     OW15452   8.285  10.865   0.176
37852SOL    HW115453   8.218  10.831   0.117
37852SOL    HW215454   8.333  10.929   0.123
37853SOL     OW15455  12.245   2.065  14.725
37853SOL    HW115456  12.329   2.087  14.684
37853SOL    HW215457  12.255   2.094  14.816
37854SOL     OW15458  13.917   2.369   1.383
37854SOL    HW115459  13.956   2.456   1.390
37854SOL    HW215460  13.829   2.385   1.349
37855SOL     OW15461  13.857   8.360  13.445
37855SOL    HW115462  13.940   8.406  13.432
37855SOL    HW215463  13.870   8.274  13.406
37856SOL     OW15464   1.453  13.709   5.160
37856SOL    HW115465   1.424  13.794   5.126
37856SOL    HW215466   1.517  13.731   5.228
37857SOL     OW15467   8.527  13.018  10.290
37857SOL    HW115468   8.509  13.030  10.384
37857SOL    HW215469   8.476  13.086  10.247
37858SOL     OW15470   0.966  11.965   2.260
37858SOL    HW115471   0.922  12.050   2.253
37858SOL    HW215472   0.931  11.914   2.187
37859SOL     OW15473   0.298   2.062   2.104
37859SOL    HW115474   0.295   1.989   2.167
37859SOL    HW215475   0.326   2.137   2.155
37860SOL     OW15476   3.201  12.509  10.114
37860SOL    HW115477   3.295  12.501  10.099
37860SOL    HW215478   3.168  12.419  10.107
37861SOL     OW15479   2.110  12.693   1.501
37861SOL    HW115480   2.089  12.664   1.412
37861SOL    HW215481   2.205  12.706   1.500
37862SOL     OW15482   6.326   8.551   4.734
37862SOL    HW115483   6.313   8.478   4.794
37862SOL    HW215484   6.353   8.511   4.652
37863SOL     OW15485  11.257   3.243   4.780
37863SOL    HW115486  11.243   3.184   4.706
37863SOL    HW215487  11.259   3.186   4.857
37864SOL     OW15488   4.233  11.680   7.609
37864SOL    HW115489   4.217  11.707   7.519
37864SOL    HW215490   4.325  11.700   7.624
37865SOL     OW15491   6.892   7.126   4.533
37865SOL    HW115492   6.837   7.186   4.582
37865SOL    HW215493   6.982   7.152   4.554
37866SOL     OW15494   2.815  11.183  11.255
37866SOL    HW115495   2.817  11.090  11.279
37866SOL    HW215496   2.866  11.187  11.174
37867SOL     OW15497  11.583   5.598   4.020
37867SOL    HW115498  11.615   5.681   4.055
37867SOL    HW215499  11.490   5.596   4.044
37868SOL     OW15500   3.406  12.694   9.499
37868SOL    HW115501   3.379  12.610   9.464
37868SOL    HW215502   3.356  12.704   9.580
37869SOL     OW15503   0.270  11.696  11.335
37869SOL    HW115504   0.207  11.639  11.291
37869SOL    HW215505   0.273  11.775  11.282
37870SOL     OW15506  12.332   2.786  13.169
37870SOL    HW115507  12.299   2.875  13.159
37870SOL    HW215508  12.369   2.785  13.258
37871SOL     OW15509  13.846   0.638   8.405
37871SOL    HW115510  13.874   0.721   8.443
37871SOL    HW215511  13.789   0.599   8.471
37872SOL     OW15512  14.365  10.347   2.321
37872SOL    HW115513  14.457  10.329   2.300
37872SOL    HW215514  14.317  10.273   2.282
37873SOL     OW15515  13.225   2.873   6.139
37873SOL    HW115516  13.149   2.847   6.192
37873SOL    HW215517  13.301   2.843   6.189
37874SOL     OW15518   4.960   7.994  11.367
37874SOL    HW115519   4.914   7.925  11.319
37874SOL    HW215520   4.942   7.975  11.459
37875SOL     OW15521  13.407  11.168   2.521
37875SOL    HW115522  13.460  11.236   2.480
37875SOL    HW215523  13.381  11.111   2.448
37876SOL     OW15524  12.637   0.276  11.008
37876SOL    HW115525  12.585   0.249  11.084
37876SOL    HW215526  12.727   0.253  11.031
37877SOL     OW15527   1.455   6.634   5.385
37877SOL    HW115528   1.377   6.610   5.436
37877SOL    HW215529   1.474   6.558   5.331
37878SOL     OW15530   6.742  13.049   3.862
37878SOL    HW115531   6.746  13.011   3.774
37878SOL    HW215532   6.769  13.140   3.849
37879SOL     OW15533  12.151  14.500   0.997
37879SOL    HW115534  12.235  14.481   1.040
37879SOL    HW215535  12.169  14.487   0.904
37880SOL     OW15536  11.497  12.769   5.422
37880SOL    HW115537  11.553  12.737   5.492
37880SOL    HW215538  11.470  12.856   5.449
37881SOL     OW15539  10.136   4.886   1.779
37881SOL    HW115540  10.114   4.961   1.723
37881SOL    HW215541  10.221   4.910   1.818
37882SOL     OW15542  14.207   6.347   2.365
37882SOL    HW115543  14.268   6.357   2.438
37882SOL    HW215544  14.223   6.423   2.309
37883SOL     OW15545  12.101   3.421   0.315
37883SOL    HW115546  12.007   3.402   0.319
37883SOL    HW215547  12.110   3.481   0.240
37884SOL     OW15548   7.718   2.850   2.819
37884SOL    HW115549   7.664   2.779   2.784
37884SOL    HW215550   7.676   2.930   2.786
37885SOL     OW15551   7.272  10.689   4.045
37885SOL    HW115552   7.288  10.614   3.988
37885SOL    HW215553   7.248  10.651   4.129
37886SOL     OW15554   4.943  13.101   5.455
37886SOL    HW115555   4.876  13.168   5.467
37886SOL    HW215556   5.012  13.125   5.516
37887SOL     OW15557   1.548   7.557   2.934
37887SOL    HW115558   1.541   7.487   2.998
37887SOL    HW215559   1.538   7.513   2.849
37888SOL     OW15560   2.771   2.392   3.204
37888SOL    HW115561   2.706   2.362   3.140
37888SOL    HW215562   2.719   2.433   3.273
37889SOL     OW15563   1.098  11.597   1.339
37889SOL    HW115564   1.117  11.516   1.291
37889SOL    HW215565   1.015  11.627   1.302
37890SOL     OW15566   0.616   9.494   2.895
37890SOL    HW115567   0.548   9.509   2.829
37890SOL    HW215568   0.669   9.423   2.859
37891SOL     OW15569   9.718   8.506   8.779
37891SOL    HW115570   9.655   8.564   8.822
37891SOL    HW215571   9.783   8.564   8.740
37892SOL     OW15572   2.325  14.503  11.902
37892SOL    HW115573   2.358  14.446  11.832
37892SOL    HW215574   2.244  14.540  11.867
37893SOL     OW15575  14.224   3.591   9.651
37893SOL    HW115576  14.139   3.564   9.685
37893SOL    HW215577  14.259   3.652   9.716
37894SOL     OW15578   1.497   2.621   9.898
37894SOL    HW115579   1.574   2.565   9.911
37894SOL    HW215580   1.512   2.696   9.954
37895SOL     OW15581   9.960  14.170   7.034
37895SOL    HW115582   9.974  14.076   7.036
37895SOL    HW215583  10.044  14.208   7.060
37896SOL     OW15584  12.716   7.336   6.183
37896SOL    HW115585  12.751   7.404   6.241
37896SOL    HW215586  12.648   7.292   6.234
37897SOL     OW15587  10.405  13.543   4.157
37897SOL    HW115588  10.327  13.533   4.103
37897SOL    HW215589  10.391  13.623   4.206
37898SOL     OW15590   5.394   0.957   6.145
37898SOL    HW115591   5.412   0.868   6.114
37898SOL    HW215592   5.299   0.963   6.145
37899SOL     OW15593   6.439   0.751   9.372
37899SOL    HW115594   6.437   0.806   9.451
37899SOL    HW215595   6.532   0.735   9.356
37900SOL     OW15596   5.439   9.639   7.006
37900SOL    HW115597   5.373   9.699   6.971
37900SOL    HW215598   5.432   9.649   7.101
37901SOL     OW15599   7.077   7.832   1.379
37901SOL    HW115600   7.053   7.924   1.370
37901SOL    HW215601   7.173   7.831   1.369
37902SOL     OW15602  14.099   6.867   9.470
37902SOL    HW115603  14.085   6.952   9.512
37902SOL    HW215604  14.182   6.836   9.507
37903SOL     OW15605   8.429   0.903   7.613
37903SOL    HW115606   8.452   0.933   7.525
37903SOL    HW215607   8.506   0.855   7.642
37904SOL     OW15608   1.490   2.141   3.515
37904SOL    HW115609   1.483   2.196   3.592
37904SOL    HW215610   1.406   2.151   3.470
37905SOL     OW15611  10.717   6.617   5.871
37905SOL    HW115612  10.663   6.666   5.933
37905SOL    HW215613  10.701   6.658   5.787
37906SOL     OW15614   0.877  11.504   6.024
37906SOL    HW115615   0.859  11.481   6.115
37906SOL    HW215616   0.969  11.532   6.024
37907SOL     OW15617   8.340  13.571   8.715
37907SOL    HW115618   8.263  13.527   8.752
37907SOL    HW215619   8.363  13.639   8.778
37908SOL     OW15620   3.120   7.230   9.833
37908SOL    HW115621   3.174   7.154   9.854
37908SOL    HW215622   3.183   7.301   9.820
37909SOL     OW15623  10.341   4.460   0.555
37909SOL    HW115624  10.275   4.393   0.570
37909SOL    HW215625  10.321   4.529   0.618
37910SOL     OW15626   7.668   8.124   6.916
37910SOL    HW115627   7.744   8.137   6.858
37910SOL    HW215628   7.703   8.073   6.990
37911SOL     OW15629  14.021   8.731   3.772
37911SOL    HW115630  14.045   8.669   3.703
37911SOL    HW215631  14.071   8.810   3.753
37912SOL     OW15632   2.793   7.321  11.866
37912SOL    HW115633   2.726   7.317  11.934
37912SOL    HW215634   2.747   7.352  11.788
37913SOL     OW15635   4.137   3.602   4.921
37913SOL    HW115636   4.071   3.670   4.935
37913SOL    HW215637   4.175   3.588   5.008
37914SOL     OW15638   2.864   5.738   2.053
37914SOL    HW115639   2.902   5.710   2.136
37914SOL    HW215640   2.839   5.829   2.067
37915SOL     OW15641  12.630   2.508   7.942
37915SOL    HW115642  12.629   2.422   7.985
37915SOL    HW215643  12.721   2.538   7.949
37916SOL     OW15644   1.613  13.096  14.566
37916SOL    HW115645   1.699  13.127  14.536
37916SOL    HW215646   1.575  13.170  14.612
37917SOL     OW15647  13.394   5.869   6.682
37917SOL    HW115648  13.487   5.881   6.701
37917SOL    HW215649  13.349   5.889   6.764
37918SOL     OW15650  10.168  10.608   3.267
37918SOL    HW115651  10.143  10.561   3.187
37918SOL    HW215652  10.152  10.700   3.246
37919SOL     OW15653   1.468   0.871   6.190
37919SOL    HW115654   1.496   0.906   6.105
37919SOL    HW215655   1.486   0.777   6.184
37920SOL     OW15656   5.134   3.589  10.588
37920SOL    HW115657   5.062   3.526  10.585
37920SOL    HW215658   5.207   3.544  10.545
37921SOL     OW15659   6.378  10.103  12.484
37921SOL    HW115660   6.407  10.033  12.542
37921SOL    HW215661   6.308  10.065  12.432
37922SOL     OW15662  14.249  14.283   6.069
37922SOL    HW115663  14.166  14.301   6.024
37922SOL    HW215664  14.315  14.291   6.001
37923SOL     OW15665   5.229  13.092   2.292
37923SOL    HW115666   5.320  13.089   2.321
37923SOL    HW215667   5.179  13.065   2.370
37924SOL     OW15668   1.601   6.119  12.760
37924SOL    HW115669   1.557   6.073  12.832
37924SOL    HW215670   1.634   6.200  12.799
37925SOL     OW15671   8.859   2.664   2.127
37925SOL    HW115672   8.830   2.740   2.077
37925SOL    HW215673   8.778   2.615   2.145
37926SOL     OW15674   0.052   2.971   7.404
37926SOL    HW115675   0.015   2.923   7.479
37926SOL    HW215676   0.126   2.917   7.375
37927SOL     OW15677   3.140  12.036   0.991
37927SOL    HW115678   3.086  11.970   1.035
37927SOL    HW215679   3.206  12.060   1.055
37928SOL     OW15680   3.462   4.986   0.986
37928SOL    HW115681   3.544   4.959   1.028
37928SOL    HW215682   3.463   5.082   0.990
37929SOL     OW15683   1.160   7.380  11.910
37929SOL    HW115684   1.210   7.313  11.863
37929SOL    HW215685   1.226   7.423  11.965
37930SOL     OW15686   7.975   0.206  11.517
37930SOL    HW115687   7.906   0.166  11.570
37930SOL    HW215688   7.979   0.152  11.438
37931SOL     OW15689   2.104   6.121  10.561
37931SOL    HW115690   2.039   6.134  10.630
37931SOL    HW215691   2.189   6.134  10.605
37932SOL     OW15692   2.023  12.452   9.695
37932SOL    HW115693   2.020  12.469   9.601
37932SOL    HW215694   1.937  12.417   9.716
37933SOL     OW15695  13.046   7.462   2.090
37933SOL    HW115696  13.085   7.546   2.114
37933SOL    HW215697  13.113   7.397   2.110
37934SOL     OW15698  11.097  14.692   1.624
37934SOL    HW115699  11.130  14.778   1.595
37934SOL    HW215700  11.132  14.631   1.560
37935SOL     OW15701   2.238   7.081   6.641
37935SOL    HW115702   2.318   7.029   6.643
37935SOL    HW215703   2.267   7.169   6.666
37936SOL     OW15704  13.532   4.655  14.736
37936SOL    HW115705  13.512   4.672  14.828
37936SOL    HW215706  13.627   4.666  14.729
37937SOL     OW15707   8.723   4.506   3.482
37937SOL    HW115708   8.688   4.588   3.515
37937SOL    HW215709   8.705   4.442   3.551
37938SOL     OW15710   5.577  14.529   0.820
37938SOL    HW115711   5.640  14.464   0.852
37938SOL    HW215712   5.576  14.596   0.888
37939SOL     OW15713   8.753  13.525   1.460
37939SOL    HW115714   8.844  13.512   1.484
37939SOL    HW215715   8.755  13.537   1.365
37940SOL     OW15716   2.394   3.433  14.477
37940SOL    HW115717   2.314   3.434  14.530
37940SOL    HW215718   2.454   3.376  14.525
37941SOL     OW15719   8.063   7.123   6.474
37941SOL    HW115720   8.150   7.163   6.476
37941SOL    HW215721   8.063   7.071   6.394
37942SOL     OW15722  12.819  10.167   7.774
37942SOL    HW115723  12.813  10.245   7.828
37942SOL    HW215724  12.875  10.108   7.823
37943SOL     OW15725  11.074  12.841   6.618
37943SOL    HW115726  10.998  12.835   6.675
37943SOL    HW215727  11.052  12.910   6.555
37944SOL     OW15728   7.510   8.637  14.186
37944SOL    HW115729   7.469   8.621  14.271
37944SOL    HW215730   7.507   8.732  14.176
37945SOL     OW15731   0.438  13.135  14.454
37945SOL    HW115732   0.433  13.043  14.427
37945SOL    HW215733   0.402  13.136  14.543
37946SOL     OW15734   8.028   4.938  12.883
37946SOL    HW115735   8.108   4.909  12.840
37946SOL    HW215736   8.041   5.031  12.899
37947SOL     OW15737   3.266   9.560  14.200
37947SOL    HW115738   3.241   9.527  14.114
37947SOL    HW215739   3.185   9.599  14.234
37948SOL     OW15740   9.116   4.917   5.491
37948SOL    HW115741   9.108   5.011   5.474
37948SOL    HW215742   9.032   4.892   5.530
37949SOL     OW15743   9.981  11.831   0.370
37949SOL    HW115744   9.921  11.830   0.294
37949SOL    HW215745   9.932  11.878   0.437
37950SOL     OW15746   7.158  10.862  10.101
37950SOL    HW115747   7.129  10.862  10.010
37950SOL    HW215748   7.194  10.774  10.115
37951SOL     OW15749   8.327   9.276   6.374
37951SOL    HW115750   8.307   9.222   6.450
37951SOL    HW215751   8.306   9.220   6.299
37952SOL     OW15752  13.969   8.982   0.834
37952SOL    HW115753  13.902   8.976   0.766
37952SOL    HW215754  14.026   9.053   0.806
37953SOL     OW15755   9.372   8.714   1.530
37953SOL    HW115756   9.294   8.764   1.505
37953SOL    HW215757   9.441   8.748   1.472
37954SOL     OW15758   2.324   3.316   1.736
37954SOL    HW115759   2.258   3.251   1.758
37954SOL    HW215760   2.277   3.400   1.737
37955SOL     OW15761   1.931  10.167   0.543
37955SOL    HW115762   1.904  10.085   0.585
37955SOL    HW215763   1.893  10.162   0.455
37956SOL     OW15764  14.737   5.039   5.382
37956SOL    HW115765  14.812   5.099   5.382
37956SOL    HW215766  14.744   4.991   5.464
37957SOL     OW15767   2.778   9.082   7.564
37957SOL    HW115768   2.722   9.114   7.635
37957SOL    HW215769   2.864   9.119   7.583
37958SOL     OW15770   7.165   4.925   4.847
37958SOL    HW115771   7.124   4.883   4.923
37958SOL    HW215772   7.168   5.018   4.870
37959SOL     OW15773  11.117  14.495   4.760
37959SOL    HW115774  11.144  14.531   4.845
37959SOL    HW215775  11.025  14.519   4.753
37960SOL     OW15776   1.270   8.125   2.462
37960SOL    HW115777   1.316   8.166   2.536
37960SOL    HW215778   1.263   8.194   2.396
37961SOL     OW15779   7.483  12.053  14.031
37961SOL    HW115780   7.501  11.961  14.049
37961SOL    HW215781   7.569  12.095  14.025
37962SOL     OW15782   5.980   6.851  13.574
37962SOL    HW115783   6.064   6.892  13.555
37962SOL    HW215784   5.992   6.758  13.552
37963SOL     OW15785  10.247  13.279  14.764
37963SOL    HW115786  10.255  13.226  14.844
37963SOL    HW215787  10.329  13.328  14.761
37964SOL     OW15788   1.237  10.351  13.786
37964SOL    HW115789   1.185  10.274  13.810
37964SOL    HW215790   1.311  10.350  13.847
37965SOL     OW15791  13.569   4.679   8.271
37965SOL    HW115792  13.541   4.652   8.358
37965SOL    HW215793  13.487   4.686   8.221
37966SOL     OW15794   1.845   6.209  11.865
37966SOL    HW115795   1.852   6.293  11.911
37966SOL    HW215796   1.897   6.149  11.918
37967SOL     OW15797  11.239   8.582   0.197
37967SOL    HW115798  11.313   8.530   0.228
37967SOL    HW215799  11.231   8.559   0.104
37968SOL     OW15800   7.094   4.427   8.344
37968SOL    HW115801   7.010   4.403   8.382
37968SOL    HW215802   7.082   4.517   8.313
37969SOL     OW15803   9.488  13.334   8.919
37969SOL    HW115804   9.470  13.421   8.955
37969SOL    HW215805   9.582  13.323   8.931
37970SOL     OW15806   0.488  10.744  13.444
37970SOL    HW115807   0.544  10.692  13.387
37970SOL    HW215808   0.405  10.697  13.446
37971SOL     OW15809   7.252   6.593   7.477
37971SOL    HW115810   7.303   6.638   7.409
37971SOL    HW215811   7.285   6.630   7.559
37972SOL     OW15812  10.033   1.628  13.156
37972SOL    HW115813  10.042   1.602  13.248
37972SOL    HW215814   9.979   1.708  13.160
37973SOL     OW15815  14.183   0.333   0.341
37973SOL    HW115816  14.213   0.243   0.325
37973SOL    HW215817  14.141   0.359   0.259
37974SOL     OW15818   9.756   6.277   4.627
37974SOL    HW115819   9.802   6.258   4.545
37974SOL    HW215820   9.667   6.298   4.599
37975SOL     OW15821   7.581  10.508   5.415
37975SOL    HW115822   7.673  10.502   5.390
37975SOL    HW215823   7.541  10.564   5.348
37976SOL     OW15824  10.485   3.093  10.904
37976SOL    HW115825  10.566   3.095  10.853
37976SOL    HW215826  10.514   3.074  10.994
37977SOL     OW15827  12.159   8.635   3.907
37977SOL    HW115828  12.152   8.716   3.857
37977SOL    HW215829  12.248   8.635   3.941
37978SOL     OW15830   0.644   1.081   1.467
37978SOL    HW115831   0.626   1.008   1.525
37978SOL    HW215832   0.703   1.045   1.400
37979SOL     OW15833  11.145  11.584  12.553
37979SOL    HW115834  11.126  11.586  12.459
37979SOL    HW215835  11.238  11.563  12.558
37980SOL     OW15836  12.873   2.683   9.603
37980SOL    HW115837  12.913   2.604   9.640
37980SOL    HW215838  12.940   2.720   9.546
37981SOL     OW15839   9.613   1.247   8.330
37981SOL    HW115840   9.568   1.258   8.247
37981SOL    HW215841   9.554   1.195   8.383
37982SOL     OW15842   4.380   2.965   5.770
37982SOL    HW115843   4.402   3.052   5.737
37982SOL    HW215844   4.284   2.967   5.780
37983SOL     OW15845   1.341   8.296   8.119
37983SOL    HW115846   1.263   8.352   8.112
37983SOL    HW215847   1.315   8.226   8.179
37984SOL     OW15848   6.992   4.111  13.504
37984SOL    HW115849   7.053   4.043  13.474
37984SOL    HW215850   6.955   4.148  13.424
37985SOL     OW15851   5.324   1.237   9.639
37985SOL    HW115852   5.286   1.284   9.713
37985SOL    HW215853   5.251   1.188   9.601
37986SOL     OW15854   8.918   3.434  13.737
37986SOL    HW115855   9.011   3.412  13.737
37986SOL    HW215856   8.886   3.403  13.652
37987SOL     OW15857   7.468  14.557   0.248
37987SOL    HW115858   7.550  14.568   0.201
37987SOL    HW215859   7.432  14.474   0.215
37988SOL     OW15860   8.314   3.484   3.972
37988SOL    HW115861   8.224   3.456   3.955
37988SOL    HW215862   8.322   3.481   4.068
37989SOL     OW15863  13.192   5.846  10.658
37989SOL    HW115864  13.109   5.800  10.665
37989SOL    HW215865  13.175   5.932  10.697
37990SOL     OW15866   4.409   3.474   2.323
37990SOL    HW115867   4.323   3.497   2.357
37990SOL    HW215868   4.456   3.438   2.398
37991SOL     OW15869  11.194   0.841   4.774
37991SOL    HW115870  11.160   0.782   4.707
37991SOL    HW215871  11.126   0.908   4.784
37992SOL     OW15872   4.886  14.393   2.337
37992SOL    HW115873   4.930  14.368   2.418
37992SOL    HW215874   4.809  14.338   2.333
37993SOL     OW15875   1.810  14.346   3.258
37993SOL    HW115876   1.728  14.314   3.220
37993SOL    HW215877   1.800  14.441   3.260
37994SOL     OW15878  12.702  12.088   8.877
37994SOL    HW115879  12.670  12.069   8.788
37994SOL    HW215880  12.696  12.005   8.923
37995SOL     OW15881   0.857   5.613   0.221
37995SOL    HW115882   0.875   5.522   0.246
37995SOL    HW215883   0.834   5.656   0.303
37996SOL     OW15884   0.578   4.946   6.229
37996SOL    HW115885   0.656   4.907   6.190
37996SOL    HW215886   0.601   4.958   6.321
37997SOL     OW15887  11.124   9.692  13.810
37997SOL    HW115888  11.135   9.634  13.734
37997SOL    HW215889  11.035   9.674  13.841
37998SOL     OW15890   0.004  14.326   5.157
37998SOL    HW115891  14.836  14.292   5.231
37998SOL    HW215892   0.069  14.384   5.197
37999SOL     OW15893  12.552   9.831   2.140
37999SOL    HW115894  12.636   9.849   2.098
37999SOL    HW215895  12.538   9.905   2.199
38000SOL     OW15896   3.739   6.721  12.409
38000SOL    HW115897   3.655   6.678  12.425
38000SOL    HW215898   3.724   6.773  12.330
38001SOL     OW15899  12.779   9.254   5.556
38001SOL    HW115900  12.870   9.277   5.575
38001SOL    HW215901  12.763   9.175   5.607
38002SOL     OW15902   8.127   8.619  14.154
38002SOL    HW115903   8.120   8.616  14.250
38002SOL    HW215904   8.060   8.557  14.124
38003SOL     OW15905  12.093   2.973  13.364
38003SOL    HW115906  12.104   2.985  13.269
38003SOL    HW215907  12.120   3.057  13.401
38004SOL     OW15908   7.903  13.181  14.320
38004SOL    HW115909   7.961  13.240  14.273
38004SOL    HW215910   7.815  13.214  14.303
38005SOL     OW15911  12.658   3.377   1.051
38005SOL    HW115912  12.652   3.390   1.146
38005SOL    HW215913  12.750   3.357   1.035
38006SOL     OW15914   5.372  13.327   3.631
38006SOL    HW115915   5.368  13.233   3.614
38006SOL    HW215916   5.439  13.337   3.699
38007SOL     OW15917   2.103  11.389  12.734
38007SOL    HW115918   2.130  11.346  12.816
38007SOL    HW215919   2.007  11.388  12.738
38008SOL     OW15920  12.285   8.299   9.889
38008SOL    HW115921  12.258   8.218   9.932
38008SOL    HW215922  12.263   8.285   9.796
38009SOL     OW15923  11.642  14.725  13.338
38009SOL    HW115924  11.651  14.792  13.271
38009SOL    HW215925  11.732  14.699  13.358
38010SOL     OW15926   9.365   9.550   5.508
38010SOL    HW115927   9.355   9.612   5.580
38010SOL    HW215928   9.303   9.581   5.442
38011SOL     OW15929   4.284  12.789  13.010
38011SOL    HW115930   4.258  12.844  13.083
38011SOL    HW215931   4.213  12.798  12.946
38012SOL     OW15932   3.140   0.310   9.665
38012SOL    HW115933   3.177   0.306   9.578
38012SOL    HW215934   3.167   0.228   9.707
38013SOL     OW15935   9.552   8.889   2.390
38013SOL    HW115936   9.530   8.889   2.296
38013SOL    HW215937   9.648   8.890   2.392
38014SOL     OW15938   8.295  13.458   3.420
38014SOL    HW115939   8.264  13.457   3.511
38014SOL    HW215940   8.253  13.535   3.381
38015SOL     OW15941   3.529   2.934   2.504
38015SOL    HW115942   3.450   2.988   2.513
38015SOL    HW215943   3.583   2.960   2.579
38016SOL     OW15944   7.372   4.971   5.021
38016SOL    HW115945   7.364   4.909   4.949
38016SOL    HW215946   7.283   5.000   5.039
38017SOL     OW15947   5.432   7.415   2.540
38017SOL    HW115948   5.426   7.454   2.627
38017SOL    HW215949   5.521   7.435   2.511
38018SOL     OW15950  14.324   0.381   9.875
38018SOL    HW115951  14.365   0.458   9.914
38018SOL    HW215952  14.323   0.399   9.781
38019SOL     OW15953   7.421   2.405  10.361
38019SOL    HW115954   7.419   2.480  10.420
38019SOL    HW215955   7.363   2.341  10.402
38020SOL     OW15956   3.471   8.545   1.400
38020SOL    HW115957   3.383   8.580   1.390
38020SOL    HW215958   3.467   8.459   1.358
38021SOL     OW15959   8.548  12.637   9.076
38021SOL    HW115960   8.458  12.668   9.079
38021SOL    HW215961   8.542  12.550   9.036
38022SOL     OW15962  14.006  14.364   8.333
38022SOL    HW115963  13.992  14.279   8.291
38022SOL    HW215964  14.057  14.414   8.269
38023SOL     OW15965   0.557   6.043   1.440
38023SOL    HW115966   0.615   6.005   1.506
38023SOL    HW215967   0.476   5.993   1.447
38024SOL     OW15968   5.094  12.657  13.579
38024SOL    HW115969   5.180  12.662  13.621
38024SOL    HW215970   5.113  12.628  13.489
38025SOL     OW15971   6.487   5.448   0.876
38025SOL    HW115972   6.473   5.542   0.864
38025SOL    HW215973   6.434   5.425   0.952
38026SOL     OW15974   1.507  10.860   9.507
38026SOL    HW115975   1.514  10.853   9.602
38026SOL    HW215976   1.419  10.828   9.487
38027SOL     OW15977  10.711   0.266   3.020
38027SOL    HW115978  10.639   0.315   3.060
38027SOL    HW215979  10.681   0.247   2.931
38028SOL     OW15980   8.787   9.866   4.068
38028SOL    HW115981   8.696   9.895   4.075
38028SOL    HW215982   8.835   9.944   4.037
38029SOL     OW15983  13.404  14.723   9.617
38029SOL    HW115984  13.342  14.689   9.682
38029SOL    HW215985  13.487  14.730   9.664
38030SOL     OW15986   0.407   5.400  12.060
38030SOL    HW115987   0.357   5.399  11.979
38030SOL    HW215988   0.362   5.339  12.118
38031SOL     OW15989   7.400   7.585  13.254
38031SOL    HW115990   7.398   7.677  13.227
38031SOL    HW215991   7.333   7.543  13.200
38032SOL     OW15992  14.833  12.293   1.438
38032SOL    HW115993  14.742  12.272   1.415
38032SOL    HW215994  14.877  12.307   1.354
38033SOL     OW15995   5.685   9.733  14.597
38033SOL    HW115996   5.687   9.637  14.592
38033SOL    HW215997   5.770   9.761  14.564
38034SOL     OW15998   6.488   0.125   8.210
38034SOL    HW115999   6.533   0.054   8.257
38034SOL    HW216000   6.499   0.104   8.118
38035SOL     OW16001  14.809   1.963  14.370
38035SOL    HW116002  14.774   1.974  14.459
38035SOL    HW216003  14.870   1.889  14.378
38036SOL     OW16004   0.060   3.152   8.010
38036SOL    HW116005  14.849   3.174   8.000
38036SOL    HW216006   0.083   3.184   8.097
38037SOL     OW16007  10.225   7.866   0.156
38037SOL    HW116008  10.265   7.779   0.156
38037SOL    HW216009  10.141   7.853   0.112
38038SOL     OW16010  10.961  12.977  13.292
38038SOL    HW116011  10.869  12.949  13.290
38038SOL    HW216012  10.990  12.969  13.201
38039SOL     OW16013   1.769   6.959   6.942
38039SOL    HW116014   1.682   6.997   6.952
38039SOL    HW216015   1.795   6.934   7.031
38040SOL     OW16016  11.037  11.737   8.646
38040SOL    HW116017  11.001  11.797   8.712
38040SOL    HW216018  11.041  11.789   8.566
38041SOL     OW16019   8.110   8.262  10.297
38041SOL    HW116020   8.164   8.189  10.268
38041SOL    HW216021   8.171   8.320  10.343
38042SOL     OW16022   4.532   7.478  10.766
38042SOL    HW116023   4.618   7.506  10.734
38042SOL    HW216024   4.492   7.435  10.691
38043SOL     OW16025  13.493  12.014  11.701
38043SOL    HW116026  13.479  11.920  11.695
38043SOL    HW216027  13.586  12.024  11.724
38044SOL     OW16028  14.707   8.996  10.195
38044SOL    HW116029  14.741   8.952  10.273
38044SOL    HW216030  14.764   8.967  10.124
38045SOL     OW16031   2.180  10.782   5.955
38045SOL    HW116032   2.098  10.822   5.925
38045SOL    HW216033   2.240  10.793   5.881
38046SOL     OW16034  14.675   8.459  12.773
38046SOL    HW116035  14.754   8.432  12.821
38046SOL    HW216036  14.670   8.397  12.700
38047SOL     OW16037   8.970  12.387   6.370
38047SOL    HW116038   9.015  12.426   6.294
38047SOL    HW216039   8.938  12.302   6.337
38048SOL     OW16040   2.542   4.120  10.995
38048SOL    HW116041   2.608   4.184  11.023
38048SOL    HW216042   2.458   4.159  11.022
38049SOL     OW16043   3.643   9.383   9.592
38049SOL    HW116044   3.658   9.294   9.623
38049SOL    HW216045   3.702   9.393   9.517
38050SOL     OW16046   2.857  12.716   3.960
38050SOL    HW116047   2.765  12.738   3.978
38050SOL    HW216048   2.883  12.775   3.889
38051SOL     OW16049   4.032  14.849   1.067
38051SOL    HW116050   3.961  14.802   1.024
38051SOL    HW216051   3.994  14.878   1.151
38052SOL     OW16052   8.005   2.387   9.477
38052SOL    HW116053   8.073   2.441   9.436
38052SOL    HW216054   7.961   2.345   9.403
38053SOL     OW16055  13.849   9.990   5.096
38053SOL    HW116056  13.846   9.971   5.190
38053SOL    HW216057  13.850  10.086   5.092
38054SOL     OW16058   2.431   6.776   3.370
38054SOL    HW116059   2.397   6.799   3.457
38054SOL    HW216060   2.410   6.683   3.361
38055SOL     OW16061  11.228   9.152   0.858
38055SOL    HW116062  11.205   9.139   0.950
38055SOL    HW216063  11.240   9.064   0.824
38056SOL     OW16064   5.779  13.308   0.019
38056SOL    HW116065   5.694  13.276  14.872
38056SOL    HW216066   5.840  13.238  14.876
38057SOL     OW16067   0.356  13.290   9.539
38057SOL    HW116068   0.263  13.284   9.521
38057SOL    HW216069   0.397  13.301   9.453
38058SOL     OW16070   4.149   0.707   6.734
38058SOL    HW116071   4.083   0.644   6.705
38058SOL    HW216072   4.205   0.720   6.657
38059SOL     OW16073  11.907   1.002  11.227
38059SOL    HW116074  11.899   0.977  11.319
38059SOL    HW216075  11.886   1.096  11.226
38060SOL     OW16076  13.666   0.575  13.382
38060SOL    HW116077  13.693   0.552  13.471
38060SOL    HW216078  13.745   0.560  13.329
38061SOL     OW16079  14.059   3.552   0.939
38061SOL    HW116080  14.016   3.634   0.965
38061SOL    HW216081  14.145   3.556   0.981
38062SOL     OW16082   3.156   4.032   6.543
38062SOL    HW116083   3.153   3.960   6.607
38062SOL    HW216084   3.235   4.015   6.491
38063SOL     OW16085  11.137   9.771   9.239
38063SOL    HW116086  11.138   9.854   9.191
38063SOL    HW216087  11.081   9.788   9.315
38064SOL     OW16088  10.506   0.990  12.560
38064SOL    HW116089  10.563   0.919  12.531
38064SOL    HW216090  10.554   1.031  12.633
38065SOL     OW16091   1.189   5.063   3.741
38065SOL    HW116092   1.206   4.970   3.758
38065SOL    HW216093   1.271   5.107   3.766
38066SOL     OW16094  13.579   3.116   9.886
38066SOL    HW116095  13.593   3.118   9.792
38066SOL    HW216096  13.657   3.072   9.921
38067SOL     OW16097   9.946  10.892   6.050
38067SOL    HW116098   9.887  10.920   5.980
38067SOL    HW216099   9.937  10.797   6.053
38068SOL     OW16100  10.485   7.668  12.172
38068SOL    HW116101  10.424   7.723  12.222
38068SOL    HW216102  10.504   7.595  12.230
38069SOL     OW16103   5.900  10.560  13.593
38069SOL    HW116104   5.901  10.496  13.664
38069SOL    HW216105   5.991  10.565  13.564
38070SOL     OW16106   6.636   8.984   3.859
38070SOL    HW116107   6.640   8.888   3.860
38070SOL    HW216108   6.667   9.010   3.945
38071SOL     OW16109  13.002   9.966   8.489
38071SOL    HW116110  12.925  10.023   8.481
38071SOL    HW216111  13.075  10.019   8.458
38072SOL     OW16112   8.881  14.096  12.323
38072SOL    HW116113   8.850  14.012  12.357
38072SOL    HW216114   8.822  14.161  12.361
38073SOL     OW16115   7.373   2.626   5.746
38073SOL    HW116116   7.375   2.721   5.733
38073SOL    HW216117   7.398   2.613   5.837
38074SOL     OW16118   9.636  11.002  11.319
38074SOL    HW116119   9.636  10.907  11.324
38074SOL    HW216120   9.560  11.029  11.371
38075SOL     OW16121   0.861   5.627   6.266
38075SOL    HW116122   0.859   5.559   6.199
38075SOL    HW216123   0.904   5.702   6.224
38076SOL     OW16124   7.989   9.038   7.049
38076SOL    HW116125   7.967   9.105   6.984
38076SOL    HW216126   7.914   9.036   7.109
38077SOL     OW16127  12.011   0.926   9.541
38077SOL    HW116128  11.965   0.901   9.461
38077SOL    HW216129  12.099   0.890   9.530
38078SOL     OW16130   4.486   0.564   3.794
38078SOL    HW116131   4.524   0.609   3.718
38078SOL    HW216132   4.400   0.536   3.764
38079SOL     OW16133   2.985   3.431   0.512
38079SOL    HW116134   2.900   3.421   0.556
38079SOL    HW216135   3.003   3.345   0.474
38080SOL     OW16136   6.298   4.056   1.975
38080SOL    HW116137   6.348   4.010   2.043
38080SOL    HW216138   6.219   4.086   2.019
38081SOL     OW16139   5.688  12.083   1.761
38081SOL    HW116140   5.765  12.059   1.709
38081SOL    HW216141   5.715  12.161   1.809
38082SOL     OW16142  13.248   5.403  13.840
38082SOL    HW116143  13.332   5.359  13.833
38082SOL    HW216144  13.245   5.435  13.931
38083SOL     OW16145  10.407  14.024   9.089
38083SOL    HW116146  10.385  14.070   9.008
38083SOL    HW216147  10.395  14.089   9.158
38084SOL     OW16148  12.138   7.744  12.658
38084SOL    HW116149  12.059   7.761  12.606
38084SOL    HW216150  12.126   7.656  12.693
38085SOL     OW16151   1.155  12.210   6.780
38085SOL    HW116152   1.159  12.149   6.853
38085SOL    HW216153   1.184  12.158   6.704
38086SOL     OW16154  12.012  13.314  11.656
38086SOL    HW116155  11.920  13.339  11.646
38086SOL    HW216156  12.011  13.218  11.648
38087SOL     OW16157   7.592  14.524   9.410
38087SOL    HW116158   7.598  14.618   9.393
38087SOL    HW216159   7.551  14.518   9.497
38088SOL     OW16160   4.412   2.976   1.856
38088SOL    HW116161   4.411   3.025   1.938
38088SOL    HW216162   4.504   2.952   1.844
38089SOL     OW16163   2.598  12.853   6.626
38089SOL    HW116164   2.503  12.858   6.614
38089SOL    HW216165   2.628  12.797   6.555
38090SOL     OW16166   7.817   1.580   8.662
38090SOL    HW116167   7.733   1.610   8.696
38090SOL    HW216168   7.864   1.660   8.640
38091SOL     OW16169   9.269   9.907   6.188
38091SOL    HW116170   9.239   9.925   6.278
38091SOL    HW216171   9.302   9.991   6.157
38092SOL     OW16172   6.026   3.249   9.063
38092SOL    HW116173   6.068   3.210   9.140
38092SOL    HW216174   5.958   3.186   9.038
38093SOL     OW16175  12.432   8.327   1.877
38093SOL    HW116176  12.370   8.370   1.935
38093SOL    HW216177  12.513   8.322   1.928
38094SOL     OW16178  13.421   3.267   0.168
38094SOL    HW116179  13.460   3.354   0.173
38094SOL    HW216180  13.496   3.208   0.162
38095SOL     OW16181   9.963  10.340   1.948
38095SOL    HW116182   9.990  10.298   2.030
38095SOL    HW216183   9.911  10.415   1.976
38096SOL     OW16184   0.213  13.261   2.816
38096SOL    HW116185   0.139  13.217   2.774
38096SOL    HW216186   0.209  13.232   2.907
38097SOL     OW16187   7.950   1.775  13.727
38097SOL    HW116188   8.016   1.800  13.792
38097SOL    HW216189   7.915   1.692  13.759
38098SOL     OW16190   7.640   9.916   5.448
38098SOL    HW116191   7.654   9.825   5.477
38098SOL    HW216192   7.665   9.969   5.523
38099SOL     OW16193   5.230   0.128  13.446
38099SOL    HW116194   5.275   0.169  13.372
38099SOL    HW216195   5.143   0.167  13.445
38100SOL     OW16196   7.509  10.488   5.152
38100SOL    HW116197   7.548  10.406   5.181
38100SOL    HW216198   7.415  10.469   5.147
38101SOL     OW16199   4.059   2.248   2.848
38101SOL    HW116200   4.144   2.243   2.892
38101SOL    HW216201   4.021   2.161   2.861
38102SOL     OW16202   6.983   5.926   8.300
38102SOL    HW116203   6.897   5.911   8.340
38102SOL    HW216204   7.045   5.917   8.372
38103SOL     OW16205   3.363   7.058   1.036
38103SOL    HW116206   3.378   7.136   1.088
38103SOL    HW216207   3.443   7.047   0.985
38104SOL     OW16208   3.509  10.784  11.088
38104SOL    HW116209   3.456  10.704  11.088
38104SOL    HW216210   3.565  10.777  11.165
38105SOL     OW16211   0.815   5.336  13.527
38105SOL    HW116212   0.736   5.361  13.575
38105SOL    HW216213   0.799   5.247  13.498
38106SOL     OW16214   8.012   6.794  10.546
38106SOL    HW116215   8.074   6.857  10.582
38106SOL    HW216216   7.971   6.841  10.473
38107SOL     OW16217  12.439   9.105   2.431
38107SOL    HW116218  12.454   9.101   2.337
38107SOL    HW216219  12.526   9.118   2.469
38108SOL     OW16220  14.298   6.421   4.840
38108SOL    HW116221  14.231   6.486   4.823
38108SOL    HW216222  14.336   6.402   4.754
38109SOL     OW16223   9.429   1.495   8.276
38109SOL    HW116224   9.496   1.563   8.279
38109SOL    HW216225   9.441   1.453   8.191
38110SOL     OW16226   2.972  13.364   4.988
38110SOL    HW116227   2.943  13.308   4.916
38110SOL    HW216228   3.046  13.413   4.952
38111SOL     OW16229  11.194   9.595   0.109
38111SOL    HW116230  11.271   9.583   0.164
38111SOL    HW216231  11.130   9.531   0.142
38112SOL     OW16232   2.876  10.468   8.984
38112SOL    HW116233   2.871  10.378   8.951
38112SOL    HW216234   2.877  10.459   9.079
38113SOL     OW16235   9.589  13.027   1.818
38113SOL    HW116236   9.548  13.088   1.880
38113SOL    HW216237   9.653  12.979   1.870
38114SOL     OW16238   4.036   3.601   1.757
38114SOL    HW116239   3.950   3.641   1.743
38114SOL    HW216240   4.099   3.672   1.741
38115SOL     OW16241   0.424  14.056   4.396
38115SOL    HW116242   0.353  14.037   4.457
38115SOL    HW216243   0.441  13.973   4.352
38116SOL     OW16244   7.241  11.212   3.148
38116SOL    HW116245   7.197  11.136   3.185
38116SOL    HW216246   7.197  11.287   3.187
38117SOL     OW16247   6.725   4.175   1.233
38117SOL    HW116248   6.818   4.154   1.235
38117SOL    HW216249   6.722   4.270   1.224
38118SOL     OW16250   3.835   5.724  10.446
38118SOL    HW116251   3.774   5.777  10.498
38118SOL    HW216252   3.919   5.769  10.455
38119SOL     OW16253   6.732   1.750   0.718
38119SOL    HW116254   6.803   1.752   0.654
38119SOL    HW216255   6.740   1.665   0.761
38120SOL     OW16256   1.759   5.511   2.783
38120SOL    HW116257   1.687   5.573   2.783
38120SOL    HW216258   1.728   5.438   2.729
38121SOL     OW16259   4.971   3.584   8.917
38121SOL    HW116260   5.036   3.560   8.850
38121SOL    HW216261   4.904   3.632   8.868
38122SOL     OW16262  12.975   8.678   2.677
38122SOL    HW116263  12.951   8.589   2.700
38122SOL    HW216264  12.892   8.720   2.654
38123SOL     OW16265   6.815   6.318  11.869
38123SOL    HW116266   6.743   6.338  11.929
38123SOL    HW216267   6.788   6.356  11.785
38124SOL     OW16268   1.013   9.421   2.451
38124SOL    HW116269   1.108   9.413   2.441
38124SOL    HW216270   0.984   9.467   2.373
38125SOL     OW16271  11.289  10.129   9.131
38125SOL    HW116272  11.275  10.104   9.040
38125SOL    HW216273  11.364  10.189   9.128
38126SOL     OW16274   6.158   5.740   7.361
38126SOL    HW116275   6.229   5.689   7.322
38126SOL    HW216276   6.162   5.719   7.455
38127SOL     OW16277   9.920  10.206  10.292
38127SOL    HW116278   9.881  10.161  10.217
38127SOL    HW216279   9.852  10.202  10.360
38128SOL     OW16280   2.033  11.225   2.610
38128SOL    HW116281   1.941  11.207   2.593
38128SOL    HW216282   2.063  11.150   2.663
38129SOL     OW16283   4.617  11.452   1.217
38129SOL    HW116284   4.614  11.358   1.202
38129SOL    HW216285   4.529  11.474   1.250
38130SOL     OW16286   3.407  14.474  10.614
38130SOL    HW116287   3.403  14.435  10.702
38130SOL    HW216288   3.482  14.432  10.573
38131SOL     OW16289  10.873   6.205   5.073
38131SOL    HW116290  10.954   6.155   5.075
38131SOL    HW216291  10.811   6.152   5.124
38132SOL     OW16292  11.908   7.204   2.104
38132SOL    HW116293  11.937   7.133   2.046
38132SOL    HW216294  11.866   7.267   2.045
38133SOL     OW16295   2.068   2.570  14.087
38133SOL    HW116296   2.074   2.508  14.159
38133SOL    HW216297   1.996   2.538  14.033
38134SOL     OW16298  11.496  13.167  13.015
38134SOL    HW116299  11.418  13.114  13.002
38134SOL    HW216300  11.485  13.204  13.103
38135SOL     OW16301  13.402  11.572   0.469
38135SOL    HW116302  13.365  11.620   0.396
38135SOL    HW216303  13.484  11.617   0.490
38136SOL     OW16304   8.357   4.789  11.819
38136SOL    HW116305   8.267   4.799  11.789
38136SOL    HW216306   8.353   4.811  11.912
38137SOL     OW16307  12.966   2.837   1.908
38137SOL    HW116308  12.892   2.894   1.886
38137SOL    HW216309  13.040   2.898   1.917
38138SOL     OW16310   8.895   4.122   1.008
38138SOL    HW116311   8.972   4.105   0.954
38138SOL    HW216312   8.911   4.208   1.047
38139SOL     OW16313  14.164   7.716  10.393
38139SOL    HW116314  14.247   7.761  10.411
38139SOL    HW216315  14.103   7.787  10.375
38140SOL     OW16316   5.221   4.655   6.706
38140SOL    HW116317   5.126   4.652   6.697
38140SOL    HW216318   5.251   4.700   6.627
38141SOL     OW16319  12.944   8.611   5.311
38141SOL    HW116320  12.860   8.604   5.356
38141SOL    HW216321  12.920   8.618   5.218
38142SOL     OW16322   4.958  14.875   4.834
38142SOL    HW116323   4.894   0.062   4.851
38142SOL    HW216324   4.995   0.014   4.748
38143SOL     OW16325   8.704   6.280  12.693
38143SOL    HW116326   8.660   6.222  12.632
38143SOL    HW216327   8.661   6.365  12.681
38144SOL     OW16328   8.721   4.857   1.861
38144SOL    HW116329   8.795   4.906   1.896
38144SOL    HW216330   8.760   4.780   1.819
38145SOL     OW16331   4.158   6.997   3.573
38145SOL    HW116332   4.192   7.021   3.660
38145SOL    HW216333   4.113   7.075   3.542
38146SOL     OW16334   8.801   9.227   9.024
38146SOL    HW116335   8.865   9.232   8.952
38146SOL    HW216336   8.732   9.170   8.991
38147SOL     OW16337   4.678   4.463   9.827
38147SOL    HW116338   4.773   4.451   9.831
38147SOL    HW216339   4.642   4.386   9.870
38148SOL     OW16340   1.600   8.464   1.487
38148SOL    HW116341   1.679   8.492   1.533
38148SOL    HW216342   1.569   8.388   1.536
38149SOL     OW16343   5.303   4.784  12.694
38149SOL    HW116344   5.341   4.855  12.643
38149SOL    HW216345   5.216   4.771  12.656
38150SOL     OW16346   4.305   1.303   0.803
38150SOL    HW116347   4.330   1.383   0.849
38150SOL    HW216348   4.318   1.322   0.710
38151SOL     OW16349   1.090  14.119   3.830
38151SOL    HW116350   1.163  14.177   3.807
38151SOL    HW216351   1.027  14.176   3.874
38152SOL     OW16352   6.185   4.822   5.424
38152SOL    HW116353   6.132   4.877   5.367
38152SOL    HW216354   6.203   4.743   5.372
38153SOL     OW16355   1.548  11.337   8.638
38153SOL    HW116356   1.517  11.278   8.707
38153SOL    HW216357   1.535  11.425   8.674
38154SOL     OW16358   6.347  12.519   8.017
38154SOL    HW116359   6.420  12.519   7.955
38154SOL    HW216360   6.377  12.573   8.090
38155SOL     OW16361   7.128   2.224   1.890
38155SOL    HW116362   7.203   2.256   1.839
38155SOL    HW216363   7.166   2.173   1.961
38156SOL     OW16364   8.705   6.638  10.143
38156SOL    HW116365   8.612   6.657  10.159
38156SOL    HW216366   8.734   6.592  10.221
38157SOL     OW16367   0.964   9.112  12.382
38157SOL    HW116368   0.989   9.202  12.360
38157SOL    HW216369   1.036   9.058  12.349
38158SOL     OW16370   1.151   7.516  14.344
38158SOL    HW116371   1.062   7.550  14.332
38158SOL    HW216372   1.172   7.537  14.435
38159SOL     OW16373   8.540   9.528   7.345
38159SOL    HW116374   8.625   9.566   7.367
38159SOL    HW216375   8.485   9.545   7.422
38160SOL     OW16376   8.360  10.879   5.828
38160SOL    HW116377   8.400  10.965   5.818
38160SOL    HW216378   8.427  10.817   5.798
38161SOL     OW16379   0.016  10.491   2.461
38161SOL    HW116380   0.105  10.523   2.474
38161SOL    HW216381   0.026  10.398   2.444
38162SOL     OW16382   5.687   7.630   4.842
38162SOL    HW116383   5.665   7.700   4.780
38162SOL    HW216384   5.626   7.643   4.915
38163SOL     OW16385   9.549   5.527   1.227
38163SOL    HW116386   9.466   5.574   1.221
38163SOL    HW216387   9.527   5.446   1.273
38164SOL     OW16388  13.287   5.432   8.150
38164SOL    HW116389  13.359   5.370   8.149
38164SOL    HW216390  13.242   5.418   8.067
38165SOL     OW16391   7.603   9.374  14.015
38165SOL    HW116392   7.602   9.299  14.075
38165SOL    HW216393   7.670   9.432  14.050
38166SOL     OW16394   1.829  12.156   4.285
38166SOL    HW116395   1.811  12.243   4.250
38166SOL    HW216396   1.918  12.161   4.320
38167SOL     OW16397   6.414   5.159  10.376
38167SOL    HW116398   6.333   5.110  10.365
38167SOL    HW216399   6.425   5.166  10.471
38168SOL     OW16400   9.328  12.301   1.615
38168SOL    HW116401   9.360  12.211   1.620
38168SOL    HW216402   9.365  12.336   1.534
38169SOL     OW16403   2.298   6.443   1.232
38169SOL    HW116404   2.205   6.453   1.215
38169SOL    HW216405   2.341   6.492   1.161
38170SOL     OW16406   8.238   7.169   2.361
38170SOL    HW116407   8.216   7.106   2.429
38170SOL    HW216408   8.167   7.233   2.363
38171SOL     OW16409   2.458  14.548   0.136
38171SOL    HW116410   2.377  14.569   0.091
38171SOL    HW216411   2.527  14.593   0.086
38172SOL     OW16412   6.074   3.476   5.479
38172SOL    HW116413   6.053   3.488   5.572
38172SOL    HW216414   5.996   3.510   5.433
38173SOL     OW16415  10.474   6.943   6.552
38173SOL    HW116416  10.533   6.870   6.530
38173SOL    HW216417  10.472   6.996   6.472
38174SOL     OW16418  14.739   9.659   6.449
38174SOL    HW116419  14.802   9.699   6.510
38174SOL    HW216420  14.726   9.571   6.483
38175SOL     OW16421  14.551   8.464   6.421
38175SOL    HW116422  14.637   8.477   6.380
38175SOL    HW216423  14.540   8.541   6.476
38176SOL     OW16424   2.714  10.680  14.645
38176SOL    HW116425   2.726  10.715  14.734
38176SOL    HW216426   2.782  10.613  14.637
38177SOL     OW16427  12.561  11.802  12.187
38177SOL    HW116428  12.541  11.896  12.188
38177SOL    HW216429  12.598  11.785  12.274
38178SOL     OW16430   0.554   3.465   9.847
38178SOL    HW116431   0.596   3.405   9.909
38178SOL    HW216432   0.461   3.461   9.869
38179SOL     OW16433   4.081  12.196   9.338
38179SOL    HW116434   4.087  12.120   9.280
38179SOL    HW216435   4.042  12.264   9.284
38180SOL     OW16436  12.026   7.607   2.864
38180SOL    HW116437  11.959   7.616   2.932
38180SOL    HW216438  12.045   7.697   2.837
38181SOL     OW16439   4.788  12.074  12.888
38181SOL    HW116440   4.836  12.101  12.810
38181SOL    HW216441   4.703  12.046  12.855
38182SOL     OW16442   5.466  12.973  13.152
38182SOL    HW116443   5.416  12.972  13.071
38182SOL    HW216444   5.440  12.893  13.197
38183SOL     OW16445   8.895   4.040  10.657
38183SOL    HW116446   8.891   4.076  10.746
38183SOL    HW216447   8.873   3.948  10.668
38184SOL     OW16448   8.155  11.584   5.986
38184SOL    HW116449   8.126  11.593   6.077
38184SOL    HW216450   8.087  11.627   5.934
38185SOL     OW16451   4.200   3.141   2.326
38185SOL    HW116452   4.154   3.225   2.319
38185SOL    HW216453   4.138   3.083   2.370
38186SOL     OW16454  11.633  10.502  14.412
38186SOL    HW116455  11.544  10.536  14.424
38186SOL    HW216456  11.651  10.513  14.319
38187SOL     OW16457   1.095   8.874   6.491
38187SOL    HW116458   1.074   8.782   6.511
38187SOL    HW216459   1.166   8.896   6.552
38188SOL     OW16460  14.019   8.371   1.474
38188SOL    HW116461  14.108   8.355   1.506
38188SOL    HW216462  14.017   8.465   1.457
38189SOL     OW16463  12.036   1.686  11.186
38189SOL    HW116464  12.120   1.648  11.210
38189SOL    HW216465  11.971   1.622  11.215
38190SOL     OW16466   1.324   7.352  14.698
38190SOL    HW116467   1.246   7.374  14.648
38190SOL    HW216468   1.299   7.367  14.789
38191SOL     OW16469   2.875   1.291   6.467
38191SOL    HW116470   2.811   1.335   6.412
38191SOL    HW216471   2.830   1.212   6.499
38192SOL     OW16472   2.900   0.975   1.389
38192SOL    HW116473   2.836   0.994   1.458
38192SOL    HW216474   2.848   0.962   1.310
38193SOL     OW16475   2.063  10.806   4.435
38193SOL    HW116476   2.012  10.872   4.482
38193SOL    HW216477   2.050  10.826   4.342
38194SOL     OW16478   8.519   9.205   7.688
38194SOL    HW116479   8.508   9.297   7.710
38194SOL    HW216480   8.611   9.196   7.663
38195SOL     OW16481   6.083   7.698   4.137
38195SOL    HW116482   6.094   7.658   4.224
38195SOL    HW216483   6.015   7.644   4.095
38196SOL     OW16484   5.282   8.858  13.781
38196SOL    HW116485   5.317   8.846  13.693
38196SOL    HW216486   5.358   8.855  13.838
38197SOL     OW16487   2.326  10.370   3.530
38197SOL    HW116488   2.353  10.279   3.529
38197SOL    HW216489   2.313  10.391   3.623
38198SOL     OW16490  14.610   9.900   6.394
38198SOL    HW116491  14.529   9.894   6.444
38198SOL    HW216492  14.652   9.815   6.408
38199SOL     OW16493   0.377  12.973   7.889
38199SOL    HW116494   0.436  12.958   7.816
38199SOL    HW216495   0.329  12.890   7.899
38200SOL     OW16496   9.974   2.453   5.303
38200SOL    HW116497   9.929   2.512   5.364
38200SOL    HW216498   9.947   2.366   5.330
38201SOL     OW16499   5.198  12.751   5.759
38201SOL    HW116500   5.156  12.798   5.830
38201SOL    HW216501   5.273  12.806   5.735
38202SOL     OW16502   4.360   5.150   1.615
38202SOL    HW116503   4.393   5.075   1.663
38202SOL    HW216504   4.356   5.220   1.680
38203SOL     OW16505   7.224  12.563  12.714
38203SOL    HW116506   7.223  12.621  12.791
38203SOL    HW216507   7.257  12.480  12.747
38204SOL     OW16508   9.832   3.572  13.066
38204SOL    HW116509   9.871   3.564  12.979
38204SOL    HW216510   9.740   3.551  13.054
38205SOL     OW16511   4.985  10.864   1.092
38205SOL    HW116512   4.935  10.788   1.122
38205SOL    HW216513   4.969  10.868   0.998
38206SOL     OW16514   0.272  11.360  14.769
38206SOL    HW116515   0.360  11.325  14.759
38206SOL    HW216516   0.284  11.454  14.781
38207SOL     OW16517   9.482  14.108  12.889
38207SOL    HW116518   9.527  14.192  12.879
38207SOL    HW216519   9.390  14.127  12.869
38208SOL     OW16520  12.936   7.544  12.954
38208SOL    HW116521  12.848   7.579  12.941
38208SOL    HW216522  12.961   7.509  12.868
38209SOL     OW16523   9.476   8.087   2.354
38209SOL    HW116524   9.447   8.114   2.441
38209SOL    HW216525   9.553   8.141   2.336
38210SOL     OW16526   3.731   3.254   9.684
38210SOL    HW116527   3.730   3.344   9.652
38210SOL    HW216528   3.659   3.249   9.747
38211SOL     OW16529   5.872  14.614   0.260
38211SOL    HW116530   5.944  14.587   0.316
38211SOL    HW216531   5.907  14.606   0.171
38212SOL     OW16532   0.237   1.511   9.996
38212SOL    HW116533   0.186   1.547  10.069
38212SOL    HW216534   0.191   1.543   9.918
38213SOL     OW16535   7.202   0.175  14.717
38213SOL    HW116536   7.259   0.098  14.715
38213SOL    HW216537   7.262   0.249  14.728
38214SOL     OW16538   8.032   7.651  11.789
38214SOL    HW116539   8.026   7.614  11.701
38214SOL    HW216540   7.944   7.641  11.825
38215SOL     OW16541   0.993   8.972  10.638
38215SOL    HW116542   1.001   8.919  10.559
38215SOL    HW216543   1.051   8.930  10.702
38216SOL     OW16544   0.396   3.778   2.751
38216SOL    HW116545   0.424   3.841   2.817
38216SOL    HW216546   0.316   3.739   2.787
38217SOL     OW16547   3.608   1.957   4.484
38217SOL    HW116548   3.655   1.950   4.401
38217SOL    HW216549   3.677   1.967   4.550
38218SOL     OW16550   2.894  12.139  11.092
38218SOL    HW116551   2.877  12.164  11.001
38218SOL    HW216552   2.811  12.102  11.122
38219SOL     OW16553  13.628   7.954   4.476
38219SOL    HW116554  13.583   7.879   4.514
38219SOL    HW216555  13.562   7.996   4.420
38220SOL     OW16556   7.077  13.506   5.226
38220SOL    HW116557   7.080  13.578   5.289
38220SOL    HW216558   7.167  13.498   5.195
38221SOL     OW16559   6.256  14.266   2.906
38221SOL    HW116560   6.191  14.319   2.953
38221SOL    HW216561   6.312  14.231   2.976
38222SOL     OW16562   0.877  11.152   7.004
38222SOL    HW116563   0.797  11.106   6.979
38222SOL    HW216564   0.931  11.085   7.046
38223SOL     OW16565  13.751  12.372   3.047
38223SOL    HW116566  13.784  12.323   3.123
38223SOL    HW216567  13.829  12.394   2.997
38224SOL     OW16568   9.491   0.091   8.540
38224SOL    HW116569   9.530   0.177   8.556
38224SOL    HW216570   9.406   0.110   8.502
38225SOL     OW16571   2.731   5.198   1.574
38225SOL    HW116572   2.773   5.206   1.488
38225SOL    HW216573   2.802   5.208   1.636
38226SOL     OW16574   0.409   4.242  12.774
38226SOL    HW116575   0.486   4.212  12.823
38226SOL    HW216576   0.438   4.324  12.733
38227SOL     OW16577  10.543  10.576   0.862
38227SOL    HW116578  10.505  10.490   0.845
38227SOL    HW216579  10.561  10.611   0.775
38228SOL     OW16580   8.653  14.733   6.654
38228SOL    HW116581   8.711  14.794   6.700
38228SOL    HW216582   8.709  14.696   6.585
38229SOL     OW16583   5.766   2.680   0.281
38229SOL    HW116584   5.725   2.720   0.204
38229SOL    HW216585   5.699   2.681   0.348
38230SOL     OW16586   6.375   0.359  10.243
38230SOL    HW116587   6.470   0.350  10.240
38230SOL    HW216588   6.348   0.305  10.317
38231SOL     OW16589   6.334   5.448  10.723
38231SOL    HW116590   6.327   5.423  10.815
38231SOL    HW216591   6.370   5.372  10.680
38232SOL     OW16592   2.646   2.525   6.051
38232SOL    HW116593   2.661   2.484   5.967
38232SOL    HW216594   2.729   2.516   6.098
38233SOL     OW16595   6.140  11.765   4.124
38233SOL    HW116596   6.189  11.704   4.178
38233SOL    HW216597   6.127  11.842   4.180
38234SOL     OW16598   9.488  12.758   7.709
38234SOL    HW116599   9.494  12.818   7.634
38234SOL    HW216600   9.394  12.741   7.719
38235SOL     OW16601   3.559  14.407   5.094
38235SOL    HW116602   3.596  14.374   5.013
38235SOL    HW216603   3.634  14.441   5.142
38236SOL     OW16604   1.762   1.345   9.290
38236SOL    HW116605   1.846   1.368   9.330
38236SOL    HW216606   1.780   1.266   9.239
38237SOL     OW16607   7.755  10.525   7.786
38237SOL    HW116608   7.786  10.473   7.860
38237SOL    HW216609   7.675  10.481   7.757
38238SOL     OW16610   0.162  12.974  11.408
38238SOL    HW116611   0.137  13.009  11.323
38238SOL    HW216612   0.194  13.050  11.457
38239SOL     OW16613   3.751  10.175   0.896
38239SOL    HW116614   3.787  10.207   0.813
38239SOL    HW216615   3.670  10.225   0.908
38240SOL     OW16616   1.466  10.361   5.024
38240SOL    HW116617   1.440  10.272   5.000
38240SOL    HW216618   1.552  10.350   5.067
38241SOL     OW16619   5.757  10.150   9.964
38241SOL    HW116620   5.795  10.233   9.936
38241SOL    HW216621   5.723  10.167  10.052
38242SOL     OW16622  10.292   4.601   7.293
38242SOL    HW116623  10.222   4.583   7.230
38242SOL    HW216624  10.366   4.548   7.262
38243SOL     OW16625   5.155  14.351   9.877
38243SOL    HW116626   5.193  14.324   9.793
38243SOL    HW216627   5.061  14.360   9.859
38244SOL     OW16628   9.201   4.200   2.828
38244SOL    HW116629   9.152   4.211   2.746
38244SOL    HW216630   9.241   4.113   2.820
38245SOL     OW16631   0.580   2.593  10.180
38245SOL    HW116632   0.569   2.565  10.089
38245SOL    HW216633   0.533   2.529  10.232
38246SOL     OW16634  14.877   0.190   9.375
38246SOL    HW116635  14.861   0.103   9.411
38246SOL    HW216636   0.085   0.210   9.400
38247SOL     OW16637  10.721  13.512  12.167
38247SOL    HW116638  10.639  13.497  12.214
38247SOL    HW216639  10.747  13.601  12.191
38248SOL     OW16640   1.618   9.982   7.199
38248SOL    HW116641   1.563   9.958   7.124
38248SOL    HW216642   1.607   9.911   7.261
38249SOL     OW16643  10.838   7.521  11.254
38249SOL    HW116644  10.923   7.549  11.288
38249SOL    HW216645  10.794   7.602  11.229
38250SOL     OW16646  12.190   6.136   7.373
38250SOL    HW116647  12.203   6.166   7.283
38250SOL    HW216648  12.262   6.175   7.422
38251SOL     OW16649  11.290   0.630   0.384
38251SOL    HW116650  11.216   0.618   0.443
38251SOL    HW216651  11.284   0.558   0.322
38252SOL     OW16652   0.424   3.391  14.083
38252SOL    HW116653   0.414   3.331  14.009
38252SOL    HW216654   0.338   3.392  14.125
38253SOL     OW16655   2.006   8.120   4.487
38253SOL    HW116656   1.958   8.062   4.546
38253SOL    HW216657   1.941   8.148   4.423
38254SOL     OW16658   1.927   0.133   0.404
38254SOL    HW116659   1.938   0.186   0.483
38254SOL    HW216660   1.871   0.060   0.431
38255SOL     OW16661   4.278   2.226   5.161
38255SOL    HW116662   4.195   2.273   5.151
38255SOL    HW216663   4.337   2.289   5.202
38256SOL     OW16664  13.822   8.484   0.254
38256SOL    HW116665  13.857   8.540   0.184
38256SOL    HW216666  13.872   8.509   0.332
38257SOL     OW16667  13.767   9.027   7.765
38257SOL    HW116668  13.792   9.068   7.682
38257SOL    HW216669  13.676   8.999   7.751
38258SOL     OW16670   4.784  12.024   0.247
38258SOL    HW116671   4.826  12.012   0.161
38258SOL    HW216672   4.854  12.059   0.302
38259SOL     OW16673  10.729   5.992   8.373
38259SOL    HW116674  10.807   5.981   8.426
38259SOL    HW216675  10.661   5.943   8.419
38260SOL     OW16676   0.171  10.934  10.172
38260SOL    HW116677   0.188  11.015  10.125
38260SOL    HW216678   0.122  10.880  10.110
38261SOL     OW16679   2.522   4.578   8.904
38261SOL    HW116680   2.568   4.628   8.971
38261SOL    HW216681   2.429   4.593   8.922
38262SOL     OW16682   9.951   7.366   5.015
38262SOL    HW116683   9.866   7.354   5.056
38262SOL    HW216684   9.938   7.438   4.952
38263SOL     OW16685   6.029   7.635   2.639
38263SOL    HW116686   5.948   7.584   2.639
38263SOL    HW216687   6.027   7.686   2.720
38264SOL     OW16688   6.507   3.915   4.926
38264SOL    HW116689   6.601   3.912   4.939
38264SOL    HW216690   6.495   3.958   4.842
38265SOL     OW16691  13.871   4.362   1.672
38265SOL    HW116692  13.865   4.327   1.583
38265SOL    HW216693  13.782   4.391   1.692
38266SOL     OW16694   2.723  13.395   8.440
38266SOL    HW116695   2.697  13.303   8.450
38266SOL    HW216696   2.752  13.402   8.349
38267SOL     OW16697   9.376   7.033   4.574
38267SOL    HW116698   9.411   6.955   4.618
38267SOL    HW216699   9.445   7.099   4.586
38268SOL     OW16700   1.789  14.455   0.284
38268SOL    HW116701   1.813  14.517   0.354
38268SOL    HW216702   1.697  14.435   0.301
38269SOL     OW16703   0.016   4.798  10.209
38269SOL    HW116704  14.849   4.803  10.127
38269SOL    HW216705   0.050   4.709  10.212
38270SOL     OW16706  12.796   0.341  12.371
38270SOL    HW116707  12.781   0.421  12.422
38270SOL    HW216708  12.853   0.288  12.427
38271SOL     OW16709  10.992  13.954   1.965
38271SOL    HW116710  11.056  13.892   1.931
38271SOL    HW216711  10.921  13.953   1.900
38272SOL     OW16712  10.400  12.920   6.777
38272SOL    HW116713  10.418  12.842   6.828
38272SOL    HW216714  10.314  12.950   6.808
38273SOL     OW16715  10.636  11.681  13.499
38273SOL    HW116716  10.646  11.701  13.592
38273SOL    HW216717  10.579  11.751  13.465
38274SOL     OW16718   0.290   8.250   8.758
38274SOL    HW116719   0.199   8.232   8.736
38274SOL    HW216720   0.318   8.315   8.693
38275SOL     OW16721   4.636  14.776   8.563
38275SOL    HW116722   4.559  14.795   8.616
38275SOL    HW216723   4.617  14.691   8.522
38276SOL     OW16724   1.302   8.989   8.757
38276SOL    HW116725   1.260   9.051   8.816
38276SOL    HW216726   1.274   8.903   8.789
38277SOL     OW16727  14.402   4.132   8.147
38277SOL    HW116728  14.445   4.062   8.097
38277SOL    HW216729  14.467   4.202   8.150
38278SOL     OW16730   7.244  11.101   2.881
38278SOL    HW116731   7.246  11.124   2.974
38278SOL    HW216732   7.335  11.082   2.858
38279SOL     OW16733  11.340   8.933   9.011
38279SOL    HW116734  11.318   8.912   8.920
38279SOL    HW216735  11.266   8.985   9.042
38280SOL     OW16736   4.238  14.326   3.604
38280SOL    HW116737   4.172  14.297   3.541
38280SOL    HW216738   4.189  14.383   3.664
38281SOL     OW16739  14.783   7.262  11.465
38281SOL    HW116740  14.837   7.184  11.453
38281SOL    HW216741  14.831   7.314  11.530
38282SOL     OW16742   1.590   7.225  12.920
38282SOL    HW116743   1.602   7.139  12.961
38282SOL    HW216744   1.553   7.280  12.989
38283SOL     OW16745  14.277   7.888   5.073
38283SOL    HW116746  14.239   7.973   5.097
38283SOL    HW216747  14.364   7.889   5.113
38284SOL     OW16748   1.915   9.219   0.843
38284SOL    HW116749   1.989   9.269   0.809
38284SOL    HW216750   1.838   9.269   0.817
38285SOL     OW16751   1.524   0.605   4.378
38285SOL    HW116752   1.581   0.553   4.434
38285SOL    HW216753   1.555   0.588   4.289
38286SOL     OW16754   6.967  12.233   8.329
38286SOL    HW116755   6.896  12.226   8.265
38286SOL    HW216756   7.046  12.240   8.276
38287SOL     OW16757   4.110   2.046   7.850
38287SOL    HW116758   4.180   1.993   7.810
38287SOL    HW216759   4.048   1.981   7.883
38288SOL     OW16760  10.798   9.298  10.791
38288SOL    HW116761  10.745   9.350  10.851
38288SOL    HW216762  10.768   9.208  10.805
38289SOL     OW16763   1.523  10.889   1.278
38289SOL    HW116764   1.533  10.934   1.194
38289SOL    HW216765   1.595  10.922   1.332
38290SOL     OW16766   3.268   8.863  10.163
38290SOL    HW116767   3.206   8.795  10.138
38290SOL    HW216768   3.312   8.829  10.241
38291SOL     OW16769   2.880   8.731   4.896
38291SOL    HW116770   2.870   8.665   4.827
38291SOL    HW216771   2.795   8.775   4.899
38292SOL     OW16772  13.739   2.007   4.650
38292SOL    HW116773  13.706   1.989   4.738
38292SOL    HW216774  13.826   2.044   4.664
38293SOL     OW16775   5.876   1.615   3.721
38293SOL    HW116776   5.783   1.601   3.706
38293SOL    HW216777   5.911   1.527   3.738
38294SOL     OW16778   8.193   9.667   0.370
38294SOL    HW116779   8.110   9.647   0.413
38294SOL    HW216780   8.231   9.738   0.423
38295SOL     OW16781   8.181   0.093   4.931
38295SOL    HW116782   8.124   0.040   4.874
38295SOL    HW216783   8.219   0.029   4.992
38296SOL     OW16784  14.665   0.572   2.892
38296SOL    HW116785  14.752   0.580   2.854
38296SOL    HW216786  14.606   0.569   2.817
38297SOL     OW16787   4.535   6.119   0.471
38297SOL    HW116788   4.453   6.153   0.435
38297SOL    HW216789   4.590   6.103   0.394
38298SOL     OW16790  13.162  12.559   6.860
38298SOL    HW116791  13.257  12.572   6.862
38298SOL    HW216792  13.126  12.644   6.835
38299SOL     OW16793  11.771   6.692   3.724
38299SOL    HW116794  11.788   6.706   3.631
38299SOL    HW216795  11.855   6.662   3.760
38300SOL     OW16796   8.413   7.798   8.201
38300SOL    HW116797   8.417   7.892   8.219
38300SOL    HW216798   8.326   7.772   8.231
38301SOL     OW16799   9.020   2.410   5.906
38301SOL    HW116800   8.956   2.422   5.976
38301SOL    HW216801   8.995   2.328   5.865
38302SOL     OW16802   3.026   9.827   5.939
38302SOL    HW116803   3.017   9.798   6.030
38302SOL    HW216804   3.120   9.839   5.927
38303SOL     OW16805  11.273  13.905  13.399
38303SOL    HW116806  11.186  13.867  13.416
38303SOL    HW216807  11.332  13.856  13.456
38304SOL     OW16808  13.218   8.503  11.626
38304SOL    HW116809  13.257   8.560  11.692
38304SOL    HW216810  13.220   8.554  11.546
38305SOL     OW16811   3.586   5.313   2.585
38305SOL    HW116812   3.603   5.250   2.516
38305SOL    HW216813   3.659   5.375   2.579
38306SOL     OW16814  10.850   2.624  11.601
38306SOL    HW116815  10.820   2.665  11.682
38306SOL    HW216816  10.908   2.689  11.562
38307SOL     OW16817   6.651   0.532   7.095
38307SOL    HW116818   6.737   0.570   7.117
38307SOL    HW216819   6.648   0.450   7.145
38308SOL     OW16820   7.193  12.445   7.971
38308SOL    HW116821   7.273  12.472   7.925
38308SOL    HW216822   7.131  12.515   7.953
38309SOL     OW16823   8.264   3.347   6.323
38309SOL    HW116824   8.294   3.256   6.322
38309SOL    HW216825   8.280   3.377   6.412
38310SOL     OW16826   1.248   5.392   2.335
38310SOL    HW116827   1.203   5.434   2.262
38310SOL    HW216828   1.256   5.462   2.401
38311SOL     OW16829  11.718   5.464   7.421
38311SOL    HW116830  11.653   5.510   7.368
38311SOL    HW216831  11.797   5.463   7.368
38312SOL     OW16832  11.113  10.869  10.336
38312SOL    HW116833  11.136  10.776  10.349
38312SOL    HW216834  11.172  10.916  10.394
38313SOL     OW16835  12.122   6.959   0.610
38313SOL    HW116836  12.142   6.914   0.692
38313SOL    HW216837  12.026   6.955   0.602
38314SOL     OW16838   2.274   9.525   2.304
38314SOL    HW116839   2.232   9.454   2.256
38314SOL    HW216840   2.237   9.605   2.267
38315SOL     OW16841   8.163  12.077   5.058
38315SOL    HW116842   8.247  12.118   5.079
38315SOL    HW216843   8.127  12.130   4.987
38316SOL     OW16844   7.501   3.327  13.535
38316SOL    HW116845   7.501   3.235  13.562
38316SOL    HW216846   7.507   3.376  13.616
38317SOL     OW16847   7.582   9.860  12.998
38317SOL    HW116848   7.618   9.820  13.078
38317SOL    HW216849   7.566   9.787  12.939
38318SOL     OW16850   5.891   7.320   0.005
38318SOL    HW116851   5.835   7.310   0.082
38318SOL    HW216852   5.945   7.396   0.025
38319SOL     OW16853  14.353   7.110   5.487
38319SOL    HW116854  14.294   7.185   5.479
38319SOL    HW216855  14.296   7.034   5.491
38320SOL     OW16856   7.246   3.477   1.750
38320SOL    HW116857   7.219   3.553   1.801
38320SOL    HW216858   7.185   3.408   1.776
38321SOL     OW16859  12.433  12.299   3.732
38321SOL    HW116860  12.401  12.210   3.717
38321SOL    HW216861  12.396  12.351   3.661
38322SOL     OW16862  13.818  14.105   4.601
38322SOL    HW116863  13.882  14.119   4.530
38322SOL    HW216864  13.774  14.024   4.577
38323SOL     OW16865  13.510  13.770   2.898
38323SOL    HW116866  13.573  13.706   2.865
38323SOL    HW216867  13.554  13.854   2.889
38324SOL     OW16868   5.639  13.699   1.516
38324SOL    HW116869   5.567  13.672   1.458
38324SOL    HW216870   5.662  13.787   1.485
38325SOL     OW16871  13.807   3.310  10.081
38325SOL    HW116872  13.805   3.289   9.987
38325SOL    HW216873  13.825   3.227  10.124
38326SOL     OW16874  13.811  14.792   3.653
38326SOL    HW116875  13.809  14.769   3.746
38326SOL    HW216876  13.795  14.710   3.607
38327SOL     OW16877   5.410  11.459   3.137
38327SOL    HW116878   5.393  11.443   3.230
38327SOL    HW216879   5.469  11.389   3.112
38328SOL     OW16880  12.587   0.089   2.425
38328SOL    HW116881  12.502   0.124   2.449
38328SOL    HW216882  12.571  14.879   2.407
38329SOL     OW16883   8.128   1.940  14.719
38329SOL    HW116884   8.131   2.018  14.664
38329SOL    HW216885   8.169   1.872  14.665
38330SOL     OW16886  12.507   3.742  13.149
38330SOL    HW116887  12.469   3.829  13.136
38330SOL    HW216888  12.579   3.756  13.211
38331SOL     OW16889  14.205   9.726   4.804
38331SOL    HW116890  14.151   9.788   4.853
38331SOL    HW216891  14.158   9.713   4.722
38332SOL     OW16892   7.076  14.765  11.549
38332SOL    HW116893   7.012  14.764  11.478
38332SOL    HW216894   7.135  14.837  11.526
38333SOL     OW16895   7.660   7.686   9.712
38333SOL    HW116896   7.688   7.636   9.788
38333SOL    HW216897   7.564   7.686   9.717
38334SOL     OW16898   5.168   0.464   3.028
38334SOL    HW116899   5.150   0.463   2.934
38334SOL    HW216900   5.105   0.402   3.065
38335SOL     OW16901   4.391  11.195   2.384
38335SOL    HW116902   4.401  11.224   2.294
38335SOL    HW216903   4.344  11.112   2.377
38336SOL     OW16904   9.589   0.722   1.018
38336SOL    HW116905   9.500   0.738   1.049
38336SOL    HW216906   9.630   0.673   1.089
38337SOL     OW16907   5.613  10.579   5.065
38337SOL    HW116908   5.643  10.602   4.978
38337SOL    HW216909   5.678  10.516   5.097
38338SOL     OW16910  14.057   6.827   4.375
38338SOL    HW116911  14.019   6.749   4.416
38338SOL    HW216912  14.150   6.822   4.395
38339SOL     OW16913   9.518   8.037   2.731
38339SOL    HW116914   9.583   8.004   2.793
38339SOL    HW216915   9.514   8.131   2.749
38340SOL     OW16916  14.466   8.373  14.035
38340SOL    HW116917  14.508   8.365  14.120
38340SOL    HW216918  14.372   8.377  14.054
38341SOL     OW16919  13.808   7.356  11.872
38341SOL    HW116920  13.727   7.402  11.848
38341SOL    HW216921  13.823   7.294  11.801
38342SOL     OW16922   0.922   1.581   2.265
38342SOL    HW116923   0.857   1.592   2.335
38342SOL    HW216924   0.978   1.658   2.272
38343SOL     OW16925   1.777   3.760   6.836
38343SOL    HW116926   1.784   3.665   6.832
38343SOL    HW216927   1.745   3.786   6.750
38344SOL     OW16928   9.449   7.318   8.327
38344SOL    HW116929   9.494   7.305   8.411
38344SOL    HW216930   9.360   7.343   8.351
38345SOL     OW16931   4.903  12.492   6.717
38345SOL    HW116932   4.931  12.402   6.733
38345SOL    HW216933   4.970  12.527   6.658
38346SOL     OW16934   9.409  11.622   4.171
38346SOL    HW116935   9.431  11.530   4.160
38346SOL    HW216936   9.493  11.664   4.192
38347SOL     OW16937   6.107   2.176   9.047
38347SOL    HW116938   6.062   2.183   8.963
38347SOL    HW216939   6.123   2.083   9.058
38348SOL     OW16940  11.637   1.267   2.062
38348SOL    HW116941  11.552   1.228   2.082
38348SOL    HW216942  11.694   1.193   2.044
38349SOL     OW16943  11.168   7.214   9.369
38349SOL    HW116944  11.157   7.231   9.275
38349SOL    HW216945  11.082   7.184   9.399
38350SOL     OW16946  11.413   7.677  10.464
38350SOL    HW116947  11.365   7.740  10.518
38350SOL    HW216948  11.479   7.729  10.419
38351SOL     OW16949  12.802   8.272   5.195
38351SOL    HW116950  12.775   8.183   5.174
38351SOL    HW216951  12.819   8.313   5.110
38352SOL     OW16952   0.579  10.345  11.146
38352SOL    HW116953   0.670  10.374  11.140
38352SOL    HW216954   0.558  10.313  11.058
38353SOL     OW16955  10.745   7.603   5.507
38353SOL    HW116956  10.651   7.622   5.515
38353SOL    HW216957  10.786   7.689   5.509
38354SOL     OW16958   8.949   8.001   6.575
38354SOL    HW116959   8.871   8.048   6.604
38354SOL    HW216960   8.922   7.910   6.571
38355SOL     OW16961   3.171  14.596   7.979
38355SOL    HW116962   3.149  14.682   7.944
38355SOL    HW216963   3.089  14.546   7.974
38356SOL     OW16964   1.264  14.092  11.891
38356SOL    HW116965   1.259  14.187  11.904
38356SOL    HW216966   1.287  14.082  11.799
38357SOL     OW16967  12.200   3.438  14.223
38357SOL    HW116968  12.206   3.344  14.238
38357SOL    HW216969  12.124   3.448  14.166
38358SOL     OW16970   4.751  11.760  10.476
38358SOL    HW116971   4.703  11.788  10.554
38358SOL    HW216972   4.814  11.830  10.460
38359SOL     OW16973   4.625   5.436   4.207
38359SOL    HW116974   4.708   5.423   4.160
38359SOL    HW216975   4.576   5.355   4.192
38360SOL     OW16976   9.717  10.579   6.784
38360SOL    HW116977   9.758  10.512   6.839
38360SOL    HW216978   9.790  10.628   6.747
38361SOL     OW16979   2.862   2.568   2.292
38361SOL    HW116980   2.927   2.531   2.233
38361SOL    HW216981   2.784   2.514   2.279
38362SOL     OW16982   5.318   1.360   1.382
38362SOL    HW116983   5.223   1.351   1.386
38362SOL    HW216984   5.349   1.278   1.344
38363SOL     OW16985  13.344   0.802   5.835
38363SOL    HW116986  13.428   0.847   5.844
38363SOL    HW216987  13.280   0.861   5.874
38364SOL     OW16988   4.594   9.256   9.782
38364SOL    HW116989   4.592   9.325   9.848
38364SOL    HW216990   4.684   9.223   9.784
38365SOL     OW16991  14.704   4.489  13.959
38365SOL    HW116992  14.769   4.553  13.933
38365SOL    HW216993  14.754   4.419  14.002
38366SOL     OW16994   3.528  11.600   1.341
38366SOL    HW116995   3.496  11.604   1.431
38366SOL    HW216996   3.600  11.662   1.339
38367SOL     OW16997   8.387   8.238   4.248
38367SOL    HW116998   8.331   8.176   4.203
38367SOL    HW216999   8.342   8.322   4.239
38368SOL     OW17000   3.802   4.979   8.940
38368SOL    HW117001   3.778   4.891   8.967
38368SOL    HW217002   3.814   5.026   9.023
38369SOL     OW17003   5.791   0.874  10.871
38369SOL    HW117004   5.851   0.937  10.831
38369SOL    HW217005   5.739   0.927  10.933
38370SOL     OW17006  12.293  12.500   3.898
38370SOL    HW117007  12.210  12.494   3.851
38370SOL    HW217008  12.336  12.416   3.882
38371SOL     OW17009  13.766  11.405   1.074
38371SOL    HW117010  13.809  11.403   1.160
38371SOL    HW217011  13.747  11.313   1.055
38372SOL     OW17012   3.039  13.760   5.583
38372SOL    HW117013   2.971  13.774   5.649
38372SOL    HW217014   3.017  13.821   5.512
38373SOL     OW17015  10.976   9.417   1.110
38373SOL    HW117016  10.909   9.466   1.157
38373SOL    HW217017  10.937   9.398   1.025
38374SOL     OW17018   2.877   7.333   9.667
38374SOL    HW117019   2.955   7.387   9.653
38374SOL    HW217020   2.848   7.309   9.580
38375SOL     OW17021  13.192  13.009   7.031
38375SOL    HW117022  13.163  13.094   6.997
38375SOL    HW217023  13.161  13.007   7.121
38376SOL     OW17024   4.498   4.657   2.629
38376SOL    HW117025   4.475   4.589   2.565
38376SOL    HW217026   4.589   4.679   2.609
38377SOL     OW17027   5.441   2.183  12.287
38377SOL    HW117028   5.400   2.096  12.291
38377SOL    HW217029   5.368   2.243  12.273
38378SOL     OW17030   8.807   6.147   9.018
38378SOL    HW117031   8.778   6.221   8.963
38378SOL    HW217032   8.727   6.115   9.058
38379SOL     OW17033   0.718  10.837   9.346
38379SOL    HW117034   0.667  10.762   9.318
38379SOL    HW217035   0.723  10.830   9.441
38380SOL     OW17036  10.068  14.490   6.686
38380SOL    HW117037  10.035  14.445   6.764
38380SOL    HW217038  10.159  14.513   6.708
38381SOL     OW17039  13.445   0.755   2.084
38381SOL    HW117040  13.485   0.776   2.167
38381SOL    HW217041  13.437   0.839   2.039
38382SOL     OW17042   9.766   1.460   0.202
38382SOL    HW117043   9.799   1.544   0.171
38382SOL    HW217044   9.792   1.398   0.135
38383SOL     OW17045  11.562   7.375  10.880
38383SOL    HW117046  11.510   7.294  10.882
38383SOL    HW217047  11.558   7.403  10.788
38384SOL     OW17048   9.504  10.245  13.852
38384SOL    HW117049   9.495  10.317  13.790
38384SOL    HW217050   9.438  10.181  13.825
38385SOL     OW17051   2.860   7.058   3.976
38385SOL    HW117052   2.842   6.974   4.017
38385SOL    HW217053   2.784   7.075   3.920
38386SOL     OW17054   6.385   1.111   4.534
38386SOL    HW117055   6.402   1.028   4.489
38386SOL    HW217056   6.290   1.111   4.549
38387SOL     OW17057   5.387   7.565   7.409
38387SOL    HW117058   5.386   7.659   7.431
38387SOL    HW217059   5.433   7.561   7.325
38388SOL     OW17060   6.113   0.785   7.894
38388SOL    HW117061   6.201   0.809   7.867
38388SOL    HW217062   6.117   0.779   7.989
38389SOL     OW17063  11.430   6.260   8.352
38389SOL    HW117064  11.381   6.338   8.327
38389SOL    HW217065  11.452   6.218   8.269
38390SOL     OW17066   7.884  13.923   7.847
38390SOL    HW117067   7.824  13.986   7.808
38390SOL    HW217068   7.954  13.914   7.783
38391SOL     OW17069  11.350   7.147  13.743
38391SOL    HW117070  11.315   7.058  13.737
38391SOL    HW217071  11.369   7.158  13.836
38392SOL     OW17072   9.600  12.835   2.196
38392SOL    HW117073   9.532  12.774   2.167
38392SOL    HW217074   9.553  12.896   2.254
38393SOL     OW17075  11.754  12.639   6.664
38393SOL    HW117076  11.713  12.584   6.731
38393SOL    HW217077  11.681  12.678   6.617
38394SOL     OW17078   8.496   3.169   2.836
38394SOL    HW117079   8.457   3.088   2.870
38394SOL    HW217080   8.523   3.147   2.747
38395SOL     OW17081   4.070  10.809  13.817
38395SOL    HW117082   3.982  10.845  13.827
38395SOL    HW217083   4.128  10.870  13.861
38396SOL     OW17084   0.729   2.288  11.781
38396SOL    HW117085   0.689   2.333  11.706
38396SOL    HW217086   0.821   2.278  11.756
38397SOL     OW17087  14.272   5.322  12.174
38397SOL    HW117088  14.318   5.378  12.237
38397SOL    HW217089  14.244   5.383  12.105
38398SOL     OW17090  13.005   7.545  13.971
38398SOL    HW117091  13.042   7.582  14.051
38398SOL    HW217092  13.070   7.481  13.942
38399SOL     OW17093  12.171   6.027  10.846
38399SOL    HW117094  12.223   6.102  10.819
38399SOL    HW217095  12.123   6.058  10.923
38400SOL     OW17096   9.480   1.522   3.081
38400SOL    HW117097   9.575   1.517   3.075
38400SOL    HW217098   9.452   1.431   3.087
38401SOL     OW17099   8.380   8.892   9.194
38401SOL    HW117100   8.345   8.805   9.172
38401SOL    HW217101   8.342   8.913   9.279
38402SOL     OW17102   3.506   3.705   7.842
38402SOL    HW117103   3.478   3.626   7.889
38402SOL    HW217104   3.556   3.672   7.768
38403SOL     OW17105  12.745   0.945  11.098
38403SOL    HW117106  12.718   1.031  11.129
38403SOL    HW217107  12.838   0.955  11.076
38404SOL     OW17108  11.359   4.208  10.186
38404SOL    HW117109  11.418   4.259  10.130
38404SOL    HW217110  11.386   4.230  10.275
38405SOL     OW17111  14.748   3.197   0.311
38405SOL    HW117112  14.653   3.205   0.315
38405SOL    HW217113  14.774   3.173   0.400
38406SOL     OW17114   5.710   1.521  12.818
38406SOL    HW117115   5.642   1.587  12.802
38406SOL    HW217116   5.700   1.459  12.746
38407SOL     OW17117   3.499   5.369   0.467
38407SOL    HW117118   3.496   5.410   0.554
38407SOL    HW217119   3.570   5.305   0.473
38408SOL     OW17120   1.508  12.266   6.784
38408SOL    HW117121   1.431  12.301   6.738
38408SOL    HW217122   1.525  12.182   6.742
38409SOL     OW17123   7.647  12.039   3.934
38409SOL    HW117124   7.558  12.044   3.900
38409SOL    HW217125   7.636  12.016   4.027
38410SOL     OW17126   0.874   6.225  14.457
38410SOL    HW117127   0.873   6.305  14.509
38410SOL    HW217128   0.824   6.246  14.379
38411SOL     OW17129  11.459  10.883  10.102
38411SOL    HW117130  11.427  10.792  10.103
38411SOL    HW217131  11.459  10.909  10.194
38412SOL     OW17132  14.832   4.713  12.879
38412SOL    HW117133  14.744   4.733  12.910
38412SOL    HW217134  14.845   4.768  12.803
38413SOL     OW17135   5.425   3.453  13.315
38413SOL    HW117136   5.398   3.544  13.318
38413SOL    HW217137   5.439   3.428  13.406
38414SOL     OW17138   4.141  11.573  10.336
38414SOL    HW117139   4.216  11.633  10.338
38414SOL    HW217140   4.074  11.619  10.284
38415SOL     OW17141   5.678  11.823   4.605
38415SOL    HW117142   5.642  11.775   4.680
38415SOL    HW217143   5.710  11.905   4.642
38416SOL     OW17144   8.989   1.807   9.414
38416SOL    HW117145   8.915   1.746   9.417
38416SOL    HW217146   8.998   1.837   9.504
38417SOL     OW17147   8.026   7.464   2.212
38417SOL    HW117148   8.118   7.485   2.231
38417SOL    HW217149   8.031   7.402   2.138
38418SOL     OW17150   7.121   9.939  10.557
38418SOL    HW117151   7.110   9.923  10.651
38418SOL    HW217152   7.137   9.852  10.519
38419SOL     OW17153   0.466  11.257   3.675
38419SOL    HW117154   0.374  11.255   3.702
38419SOL    HW217155   0.486  11.350   3.663
38420SOL     OW17156  11.420   1.862   1.507
38420SOL    HW117157  11.403   1.851   1.600
38420SOL    HW217158  11.442   1.775   1.476
38421SOL     OW17159   0.623  10.322   0.850
38421SOL    HW117160   0.667  10.276   0.778
38421SOL    HW217161   0.674  10.402   0.862
38422SOL     OW17162  13.852  13.748  12.481
38422SOL    HW117163  13.853  13.840  12.453
38422SOL    HW217164  13.891  13.749  12.568
38423SOL     OW17165   3.204  14.267   8.610
38423SOL    HW117166   3.186  14.267   8.704
38423SOL    HW217167   3.124  14.232   8.570
38424SOL     OW17168   8.666   1.828   8.242
38424SOL    HW117169   8.707   1.787   8.318
38424SOL    HW217170   8.650   1.919   8.270
38425SOL     OW17171   4.366   7.436   4.704
38425SOL    HW117172   4.310   7.399   4.637
38425SOL    HW217173   4.310   7.497   4.751
38426SOL     OW17174  12.630   7.980  10.769
38426SOL    HW117175  12.601   8.033  10.695
38426SOL    HW217176  12.603   8.030  10.846
38427SOL     OW17177  12.938  11.980   7.403
38427SOL    HW117178  12.893  12.029   7.472
38427SOL    HW217179  12.908  12.019   7.322
38428SOL     OW17180   0.150   2.170  12.950
38428SOL    HW117181   0.085   2.100  12.942
38428SOL    HW217182   0.188   2.157  13.037
38429SOL     OW17183  11.042   5.362   5.336
38429SOL    HW117184  11.077   5.282   5.297
38429SOL    HW217185  10.958   5.375   5.292
38430SOL     OW17186   5.757  12.810  12.110
38430SOL    HW117187   5.797  12.804  12.024
38430SOL    HW217188   5.754  12.720  12.142
38431SOL     OW17189   6.349   2.330   1.790
38431SOL    HW117190   6.371   2.394   1.857
38431SOL    HW217191   6.261   2.355   1.761
38432SOL     OW17192   7.238  12.282  12.530
38432SOL    HW117193   7.275  12.337  12.600
38432SOL    HW217194   7.308  12.220  12.509
38433SOL     OW17195  14.283  12.394  10.090
38433SOL    HW117196  14.193  12.367  10.070
38433SOL    HW217197  14.310  12.446  10.014
38434SOL     OW17198   5.654  11.570  11.344
38434SOL    HW117199   5.677  11.660  11.319
38434SOL    HW217200   5.738  11.528  11.360
38435SOL     OW17201   1.791   2.726   5.225
38435SOL    HW117202   1.703   2.692   5.240
38435SOL    HW217203   1.778   2.821   5.216
38436SOL     OW17204   3.197   7.474  10.316
38436SOL    HW117205   3.240   7.404  10.366
38436SOL    HW217206   3.260   7.496  10.248
38437SOL     OW17207  11.996   4.668   7.006
38437SOL    HW117208  12.089   4.690   7.016
38437SOL    HW217209  11.950   4.735   7.057
38438SOL     OW17210   0.923   3.827   0.819
38438SOL    HW117211   0.851   3.766   0.833
38438SOL    HW217212   0.996   3.772   0.790
38439SOL     OW17213   0.027   0.795   5.090
38439SOL    HW117214  14.817   0.776   5.076
38439SOL    HW217215   0.059   0.823   5.004
38440SOL     OW17216  14.579   4.714   0.544
38440SOL    HW117217  14.509   4.750   0.489
38440SOL    HW217218  14.554   4.622   0.555
38441SOL     OW17219   9.619  14.495   3.314
38441SOL    HW117220   9.611  14.582   3.273
38441SOL    HW217221   9.530  14.462   3.319
38442SOL     OW17222   7.513   1.625  13.701
38442SOL    HW117223   7.440   1.568  13.675
38442SOL    HW217224   7.492   1.650  13.791
38443SOL     OW17225  13.406   7.092   4.506
38443SOL    HW117226  13.376   7.012   4.548
38443SOL    HW217227  13.422   7.152   4.579
38444SOL     OW17228  12.142   8.307   3.476
38444SOL    HW117229  12.199   8.374   3.436
38444SOL    HW217230  12.153   8.230   3.419
38445SOL     OW17231   4.773  12.463   2.570
38445SOL    HW117232   4.825  12.441   2.647
38445SOL    HW217233   4.802  12.401   2.502
38446SOL     OW17234   8.302   0.565   9.380
38446SOL    HW117235   8.239   0.615   9.433
38446SOL    HW217236   8.358   0.631   9.341
38447SOL     OW17237  13.980  13.139   5.685
38447SOL    HW117238  13.983  13.233   5.702
38447SOL    HW217239  13.975  13.098   5.771
38448SOL     OW17240   8.104   6.300   1.902
38448SOL    HW117241   8.158   6.376   1.882
38448SOL    HW217242   8.042   6.331   1.968
38449SOL     OW17243   9.548   6.321   8.571
38449SOL    HW117244   9.564   6.409   8.537
38449SOL    HW217245   9.610   6.313   8.644
38450SOL     OW17246   5.862   9.437   9.396
38450SOL    HW117247   5.935   9.477   9.350
38450SOL    HW217248   5.784   9.481   9.360
38451SOL     OW17249  11.032  10.530   2.476
38451SOL    HW117250  10.944  10.494   2.491
38451SOL    HW217251  11.091  10.468   2.519
38452SOL     OW17252  13.768   1.078   8.488
38452SOL    HW117253  13.861   1.074   8.510
38452SOL    HW217254  13.732   0.996   8.521
38453SOL     OW17255   6.026   4.382  13.124
38453SOL    HW117256   6.086   4.453  13.102
38453SOL    HW217257   5.939   4.420  13.112
38454SOL     OW17258   6.788  13.382  13.674
38454SOL    HW117259   6.720  13.322  13.704
38454SOL    HW217260   6.740  13.457  13.639
38455SOL     OW17261   1.568  12.590   0.418
38455SOL    HW117262   1.499  12.540   0.461
38455SOL    HW217263   1.644  12.581   0.476
38456SOL     OW17264   2.789   2.308   2.226
38456SOL    HW117265   2.782   2.213   2.215
38456SOL    HW217266   2.800   2.342   2.137
38457SOL     OW17267   3.048   1.756   0.738
38457SOL    HW117268   2.967   1.807   0.744
38457SOL    HW217269   3.045   1.717   0.651
38458SOL     OW17270   0.920   4.739   4.432
38458SOL    HW117271   0.920   4.685   4.512
38458SOL    HW217272   0.927   4.829   4.464
38459SOL     OW17273   1.314   8.872   0.270
38459SOL    HW117274   1.372   8.882   0.195
38459SOL    HW217275   1.287   8.780   0.268
38460SOL     OW17276   9.779  14.806   3.554
38460SOL    HW117277   9.860  14.789   3.603
38460SOL    HW217278   9.736  14.721   3.549
38461SOL     OW17279   0.066   9.874   5.683
38461SOL    HW117280   0.158   9.891   5.702
38461SOL    HW217281   0.020   9.893   5.765
38462SOL     OW17282   8.559   0.689   4.942
38462SOL    HW117283   8.647   0.654   4.924
38462SOL    HW217284   8.565   0.723   5.031
38463SOL     OW17285  13.425   4.372   2.012
38463SOL    HW117286  13.448   4.444   2.071
38463SOL    HW217287  13.329   4.369   2.014
38464SOL     OW17288  11.937   8.521  12.861
38464SOL    HW117289  11.895   8.577  12.927
38464SOL    HW217290  11.885   8.534  12.782
38465SOL     OW17291  11.647   0.030   5.271
38465SOL    HW117292  11.599   0.071   5.199
38465SOL    HW217293  11.738   0.031   5.243
38466SOL     OW17294  10.646  13.691   4.482
38466SOL    HW117295  10.605  13.641   4.553
38466SOL    HW217296  10.598  13.774   4.480
38467SOL     OW17297   0.922   7.977   6.942
38467SOL    HW117298   0.976   7.913   6.897
38467SOL    HW217299   0.832   7.955   6.918
38468SOL     OW17300   5.949   0.277  13.393
38468SOL    HW117301   5.902   0.312  13.317
38468SOL    HW217302   5.884   0.279  13.463
38469SOL     OW17303   1.301   5.215   9.645
38469SOL    HW117304   1.360   5.143   9.624
38469SOL    HW217305   1.351   5.272   9.704
38470SOL     OW17306  11.347   1.734  10.781
38470SOL    HW117307  11.433   1.709  10.814
38470SOL    HW217308  11.357   1.737  10.686
38471SOL     OW17309   5.387  14.096   8.278
38471SOL    HW117310   5.386  14.129   8.368
38471SOL    HW217311   5.349  14.009   8.283
38472SOL     OW17312   2.223  13.470  10.287
38472SOL    HW117313   2.280  13.402  10.252
38472SOL    HW217314   2.202  13.526  10.212
38473SOL     OW17315   5.124   0.434  13.588
38473SOL    HW117316   5.071   0.457  13.665
38473SOL    HW217317   5.210   0.411  13.624
38474SOL     OW17318   2.269   9.363   6.203
38474SOL    HW117319   2.351   9.401   6.235
38474SOL    HW217320   2.201   9.412   6.249
38475SOL     OW17321  11.536   7.419   6.787
38475SOL    HW117322  11.524   7.421   6.883
38475SOL    HW217323  11.606   7.356   6.772
38476SOL     OW17324   5.358  12.238  12.898
38476SOL    HW117325   5.439  12.284  12.875
38476SOL    HW217326   5.387  12.160  12.946
38477SOL     OW17327   2.913   0.501   7.176
38477SOL    HW117328   2.946   0.591   7.174
38477SOL    HW217329   2.977   0.453   7.228
38478SOL     OW17330   1.092   4.359   7.225
38478SOL    HW117331   1.065   4.270   7.204
38478SOL    HW217332   1.012   4.411   7.216
38479SOL     OW17333  11.600   3.724  13.847
38479SOL    HW117334  11.654   3.802  13.857
38479SOL    HW217335  11.564   3.707  13.934
38480SOL     OW17336   0.121   3.916   5.155
38480SOL    HW117337   0.038   3.927   5.202
38480SOL    HW217338   0.124   3.822   5.135
38481SOL     OW17339   3.971   3.828   4.946
38481SOL    HW117340   3.971   3.909   4.894
38481SOL    HW217341   3.881   3.795   4.940
38482SOL     OW17342   9.513  13.165   5.881
38482SOL    HW117343   9.477  13.219   5.811
38482SOL    HW217344   9.531  13.227   5.952
38483SOL     OW17345   1.393  11.952  12.946
38483SOL    HW117346   1.359  11.899  13.018
38483SOL    HW217347   1.445  12.020  12.989
38484SOL     OW17348   6.929  14.873   5.648
38484SOL    HW117349   6.934   0.040   5.566
38484SOL    HW217350   6.950  14.783   5.622
38485SOL     OW17351   8.895   6.155   0.238
38485SOL    HW117352   8.982   6.117   0.248
38485SOL    HW217353   8.853   6.103   0.169
38486SOL     OW17354   0.182   3.796  12.471
38486SOL    HW117355   0.171   3.888  12.495
38486SOL    HW217356   0.273   3.789  12.443
38487SOL     OW17357   5.033   9.321   7.084
38487SOL    HW117358   5.050   9.318   6.990
38487SOL    HW217359   5.036   9.230   7.113
38488SOL     OW17360  11.558   6.157   3.334
38488SOL    HW117361  11.528   6.129   3.421
38488SOL    HW217362  11.589   6.247   3.348
38489SOL     OW17363   8.997   3.513   2.464
38489SOL    HW117364   8.999   3.521   2.559
38489SOL    HW217365   8.903   3.510   2.442
38490SOL     OW17366   2.754   1.228   9.927
38490SOL    HW117367   2.720   1.173   9.998
38490SOL    HW217368   2.761   1.169   9.852
38491SOL     OW17369   5.383   8.047   1.078
38491SOL    HW117370   5.297   8.006   1.082
38491SOL    HW217371   5.422   8.012   0.997
38492SOL     OW17372   4.034   2.832   8.547
38492SOL    HW117373   4.010   2.834   8.454
38492SOL    HW217374   3.986   2.757   8.583
38493SOL     OW17375   7.762  10.145  14.613
38493SOL    HW117376   7.707  10.216  14.581
38493SOL    HW217377   7.816  10.185  14.681
38494SOL     OW17378   2.402   2.933   6.691
38494SOL    HW117379   2.332   2.996   6.710
38494SOL    HW217380   2.482   2.985   6.696
38495SOL     OW17381  14.074   3.480   7.657
38495SOL    HW117382  13.990   3.505   7.695
38495SOL    HW217383  14.066   3.504   7.565
38496SOL     OW17384   1.654   8.723  11.357
38496SOL    HW117385   1.583   8.681  11.405
38496SOL    HW217386   1.682   8.795  11.414
38497SOL     OW17387   8.657   5.995  14.168
38497SOL    HW117388   8.733   6.045  14.137
38497SOL    HW217389   8.694   5.931  14.229
38498SOL     OW17390  13.843   7.234   2.855
38498SOL    HW117391  13.832   7.139   2.845
38498SOL    HW217392  13.934   7.251   2.830
38499SOL     OW17393  14.362   0.012   7.931
38499SOL    HW117394  14.435  14.841   7.900
38499SOL    HW217395  14.341   0.070   7.857
38500SOL     OW17396  12.503   9.078   4.627
38500SOL    HW117397  12.586   9.114   4.596
38500SOL    HW217398  12.522   9.044   4.714
38501SOL     OW17399  12.395  11.123   1.417
38501SOL    HW117400  12.421  11.056   1.354
38501SOL    HW217401  12.348  11.188   1.365
38502SOL     OW17402   3.181   7.981   0.730
38502SOL    HW117403   3.136   7.924   0.668
38502SOL    HW217404   3.228   8.044   0.676
38503SOL     OW17405   0.362   1.155   3.308
38503SOL    HW117406   0.369   1.213   3.231
38503SOL    HW217407   0.282   1.184   3.352
38504SOL     OW17408  11.109   6.048   5.114
38504SOL    HW117409  11.167   6.024   5.187
38504SOL    HW217410  11.163   6.103   5.058
38505SOL     OW17411  10.154  13.670   5.543
38505SOL    HW117412  10.169  13.629   5.458
38505SOL    HW217413  10.212  13.746   5.544
38506SOL     OW17414   3.104  13.519  10.114
38506SOL    HW117415   3.106  13.579  10.039
38506SOL    HW217416   3.012  13.516  10.140
38507SOL     OW17417   2.927   5.655  13.098
38507SOL    HW117418   2.872   5.594  13.148
38507SOL    HW217419   2.903   5.640  13.007
38508SOL     OW17420  10.864   3.419   1.564
38508SOL    HW117421  10.807   3.374   1.627
38508SOL    HW217422  10.826   3.507   1.556
38509SOL     OW17423   0.873   2.554   0.049
38509SOL    HW117424   0.887   2.461   0.036
38509SOL    HW217425   0.838   2.561   0.138
38510SOL     OW17426   4.758  14.113  11.336
38510SOL    HW117427   4.821  14.049  11.304
38510SOL    HW217428   4.745  14.090  11.428
38511SOL     OW17429  10.596   1.707   9.886
38511SOL    HW117430  10.503   1.709   9.863
38511SOL    HW217431  10.637   1.763   9.820
38512SOL     OW17432   6.370  11.800   0.980
38512SOL    HW117433   6.427  11.782   0.906
38512SOL    HW217434   6.295  11.742   0.968
38513SOL     OW17435  12.243   5.734   8.441
38513SOL    HW117436  12.331   5.712   8.470
38513SOL    HW217437  12.215   5.804   8.499
38514SOL     OW17438  11.636  14.682  12.495
38514SOL    HW117439  11.573  14.612  12.510
38514SOL    HW217440  11.714  14.655  12.542
38515SOL     OW17441   4.340   6.887   8.678
38515SOL    HW117442   4.315   6.937   8.755
38515SOL    HW217443   4.390   6.948   8.624
38516SOL     OW17444   2.700  11.226  12.738
38516SOL    HW117445   2.697  11.321  12.740
38516SOL    HW217446   2.706  11.200  12.830
38517SOL     OW17447   4.502   1.447   6.209
38517SOL    HW117448   4.562   1.446   6.135
38517SOL    HW217449   4.429   1.501   6.180
38518SOL     OW17450   2.810   5.904   0.878
38518SOL    HW117451   2.788   5.823   0.833
38518SOL    HW217452   2.879   5.943   0.825
38519SOL     OW17453  14.581  11.764  14.788
38519SOL    HW117454  14.598  11.675  14.819
38519SOL    HW217455  14.599  11.761  14.694
38520SOL     OW17456   8.067   6.088  10.799
38520SOL    HW117457   8.043   6.179  10.815
38520SOL    HW217458   8.146   6.093  10.745
38521SOL     OW17459   9.058   4.260  12.642
38521SOL    HW117460   9.032   4.191  12.581
38521SOL    HW217461   8.976   4.288  12.682
38522SOL     OW17462  10.028  11.767   4.157
38522SOL    HW117463   9.956  11.716   4.121
38522SOL    HW217464  10.061  11.818   4.083
38523SOL     OW17465   2.165   4.757   9.553
38523SOL    HW117466   2.201   4.680   9.598
38523SOL    HW217467   2.191   4.746   9.462
38524SOL     OW17468  11.375  11.349   0.618
38524SOL    HW117469  11.417  11.284   0.562
38524SOL    HW217470  11.437  11.366   0.688
38525SOL     OW17471   1.039   1.258   3.760
38525SOL    HW117472   0.972   1.302   3.708
38525SOL    HW217473   1.102   1.327   3.782
38526SOL     OW17474  11.065   7.122   3.389
38526SOL    HW117475  11.097   7.049   3.442
38526SOL    HW217476  11.046   7.082   3.304
38527SOL     OW17477   8.767   0.009   0.985
38527SOL    HW117478   8.709  14.860   1.054
38527SOL    HW217479   8.756   0.104   0.984
38528SOL     OW17480  13.077   1.677   0.350
38528SOL    HW117481  13.151   1.720   0.394
38528SOL    HW217482  13.004   1.738   0.360
38529SOL     OW17483  13.258   4.351  10.117
38529SOL    HW117484  13.289   4.416  10.054
38529SOL    HW217485  13.236   4.274  10.064
38530SOL     OW17486   1.475  14.594   5.611
38530SOL    HW117487   1.488  14.560   5.700
38530SOL    HW217488   1.560  14.629   5.586
38531SOL     OW17489   4.345  10.652   5.836
38531SOL    HW117490   4.300  10.636   5.753
38531SOL    HW217491   4.371  10.566   5.866
38532SOL     OW17492   1.848   6.804   7.152
38532SOL    HW117493   1.874   6.723   7.108
38532SOL    HW217494   1.802   6.775   7.231
38533SOL     OW17495   0.533  13.198   5.604
38533SOL    HW117496   0.592  13.264   5.567
38533SOL    HW217497   0.532  13.127   5.540
38534SOL     OW17498  10.781  12.960   4.027
38534SOL    HW117499  10.744  12.909   3.955
38534SOL    HW217500  10.873  12.972   4.003
38535SOL     OW17501  14.594  11.209  11.367
38535SOL    HW117502  14.566  11.181  11.280
38535SOL    HW217503  14.545  11.290  11.382
38536SOL     OW17504   2.727   3.216   1.499
38536SOL    HW117505   2.734   3.239   1.406
38536SOL    HW217506   2.765   3.128   1.505
38537SOL     OW17507   8.937   5.398  10.321
38537SOL    HW117508   8.850   5.421  10.354
38537SOL    HW217509   8.990   5.477  10.335
38538SOL     OW17510  12.785  11.553   1.039
38538SOL    HW117511  12.759  11.466   1.010
38538SOL    HW217512  12.771  11.553   1.134
38539SOL     OW17513  11.547  13.484  12.802
38539SOL    HW117514  11.577  13.395  12.818
38539SOL    HW217515  11.626  13.535  12.788
38540SOL     OW17516  13.866   8.115  10.510
38540SOL    HW117517  13.778   8.079  10.501
38540SOL    HW217518  13.852   8.210  10.518
38541SOL     OW17519   4.707   5.998   2.365
38541SOL    HW117520   4.793   5.959   2.379
38541SOL    HW217521   4.714   6.040   2.279
38542SOL     OW17522  11.024   6.144   4.511
38542SOL    HW117523  11.075   6.100   4.580
38542SOL    HW217524  11.086   6.205   4.471
38543SOL     OW17525   1.540  12.067  11.430
38543SOL    HW117526   1.593  12.147  11.435
38543SOL    HW217527   1.562  12.018  11.508
38544SOL     OW17528   0.996   6.305   6.481
38544SOL    HW117529   1.067   6.249   6.449
38544SOL    HW217530   1.017   6.392   6.448
38545SOL     OW17531  10.083  10.017   8.327
38545SOL    HW117532   9.990   9.999   8.342
38545SOL    HW217533  10.126   9.994   8.409
38546SOL     OW17534   9.408   0.078   5.398
38546SOL    HW117535   9.385  14.873   5.366
38546SOL    HW217536   9.334   0.105   5.452
38547SOL     OW17537   6.912   4.504   7.344
38547SOL    HW117538   6.961   4.435   7.299
38547SOL    HW217539   6.830   4.512   7.294
38548SOL     OW17540   4.072  12.455   4.831
38548SOL    HW117541   4.102  12.382   4.776
38548SOL    HW217542   4.036  12.413   4.909
38549SOL     OW17543   6.857   6.944   6.144
38549SOL    HW117544   6.800   6.897   6.083
38549SOL    HW217545   6.922   6.985   6.087
38550SOL     OW17546   4.928   9.426   2.379
38550SOL    HW117547   4.849   9.470   2.409
38550SOL    HW217548   4.998   9.466   2.431
38551SOL     OW17549  13.120   6.642  10.951
38551SOL    HW117550  13.097   6.580  11.020
38551SOL    HW217551  13.202   6.681  10.980
38552SOL     OW17552  13.382   3.612   7.167
38552SOL    HW117553  13.306   3.655   7.128
38552SOL    HW217554  13.449   3.614   7.099
38553SOL     OW17555  12.316  13.303   9.057
38553SOL    HW117556  12.403  13.288   9.096
38553SOL    HW217557  12.332  13.364   8.985
38554SOL     OW17558  12.570   6.226  13.734
38554SOL    HW117559  12.548   6.317  13.753
38554SOL    HW217560  12.485   6.181  13.728
38555SOL     OW17561  14.821   9.309   2.432
38555SOL    HW117562  14.853   9.222   2.409
38555SOL    HW217563  14.775   9.339   2.354
38556SOL     OW17564  10.784  14.208   2.539
38556SOL    HW117565  10.703  14.251   2.568
38556SOL    HW217566  10.791  14.131   2.595
38557SOL     OW17567   9.714   2.735   5.877
38557SOL    HW117568   9.655   2.674   5.922
38557SOL    HW217569   9.801   2.714   5.910
38558SOL     OW17570   2.861   7.266  10.903
38558SOL    HW117571   2.852   7.191  10.960
38558SOL    HW217572   2.832   7.235  10.817
38559SOL     OW17573   8.114   3.721   4.437
38559SOL    HW117574   8.031   3.675   4.440
38559SOL    HW217575   8.093   3.810   4.466
38560SOL     OW17576  11.242   3.945  11.366
38560SOL    HW117577  11.237   3.857  11.328
38560SOL    HW217578  11.301   3.993  11.307
38561SOL     OW17579  13.146   8.473  12.866
38561SOL    HW117580  13.125   8.563  12.891
38561SOL    HW217581  13.144   8.473  12.771
38562SOL     OW17582   6.695   7.925  12.079
38562SOL    HW117583   6.713   7.833  12.061
38562SOL    HW217584   6.760   7.950  12.145
38563SOL     OW17585   2.428  10.121   1.835
38563SOL    HW117586   2.513  10.166   1.833
38563SOL    HW217587   2.446  10.034   1.800
38564SOL     OW17588   6.182   4.715   1.505
38564SOL    HW117589   6.103   4.711   1.452
38564SOL    HW217590   6.151   4.703   1.595
38565SOL     OW17591   4.787   8.835  13.206
38565SOL    HW117592   4.795   8.748  13.169
38565SOL    HW217593   4.816   8.826  13.296
38566SOL     OW17594  10.401  11.409   8.473
38566SOL    HW117595  10.378  11.432   8.563
38566SOL    HW217596  10.421  11.493   8.432
38567SOL     OW17597   1.104   7.454  13.281
38567SOL    HW117598   1.182   7.398  13.282
38567SOL    HW217599   1.099   7.486  13.191
38568SOL     OW17600   8.618   1.339   6.175
38568SOL    HW117601   8.612   1.355   6.081
38568SOL    HW217602   8.595   1.247   6.186
38569SOL     OW17603  13.966   5.495   2.809
38569SOL    HW117604  14.027   5.427   2.840
38569SOL    HW217605  13.886   5.447   2.787
38570SOL     OW17606   1.188  11.522  11.533
38570SOL    HW117607   1.168  11.449  11.475
38570SOL    HW217608   1.111  11.529  11.589
38571SOL     OW17609   4.976   6.200   5.465
38571SOL    HW117610   5.024   6.190   5.547
38571SOL    HW217611   4.890   6.164   5.482
38572SOL     OW17612   2.556   3.014  11.718
38572SOL    HW117613   2.481   3.032  11.661
38572SOL    HW217614   2.618   2.968  11.661
38573SOL     OW17615   6.099   1.471  11.316
38573SOL    HW117616   6.094   1.380  11.288
38573SOL    HW217617   6.165   1.471  11.385
38574SOL     OW17618   1.797  10.514   1.184
38574SOL    HW117619   1.708  10.547   1.197
38574SOL    HW217620   1.786  10.420   1.172
38575SOL     OW17621   2.880   8.765  11.823
38575SOL    HW117622   2.823   8.830  11.865
38575SOL    HW217623   2.935   8.732  11.894
38576SOL     OW17624  11.176   5.255  11.637
38576SOL    HW117625  11.096   5.276  11.589
38576SOL    HW217626  11.153   5.268  11.729
38577SOL     OW17627  11.181   7.946   7.276
38577SOL    HW117628  11.160   8.034   7.242
38577SOL    HW217629  11.224   7.963   7.360
38578SOL     OW17630   7.625   4.020   8.432
38578SOL    HW117631   7.665   3.975   8.507
38578SOL    HW217632   7.575   4.092   8.472
38579SOL     OW17633   9.031  10.592   8.188
38579SOL    HW117634   9.091  10.660   8.216
38579SOL    HW217635   8.982  10.632   8.116
38580SOL     OW17636   1.680  10.388   8.689
38580SOL    HW117637   1.723  10.318   8.738
38580SOL    HW217638   1.690  10.465   8.744
38581SOL     OW17639   5.098  12.708   4.102
38581SOL    HW117640   5.019  12.755   4.075
38581SOL    HW217641   5.155  12.774   4.140
38582SOL     OW17642   5.246   3.801   0.043
38582SOL    HW117643   5.230   3.709   0.062
38582SOL    HW217644   5.172   3.847   0.083
38583SOL     OW17645  14.762  11.602   7.905
38583SOL    HW117646  14.763  11.553   7.987
38583SOL    HW217647  14.769  11.534   7.837
38584SOL     OW17648   8.510   1.184   7.077
38584SOL    HW117649   8.485   1.272   7.106
38584SOL    HW217650   8.575   1.155   7.141
38585SOL     OW17651  14.264   3.265   4.072
38585SOL    HW117652  14.246   3.354   4.044
38585SOL    HW217653  14.190   3.241   4.127
38586SOL     OW17654   4.285   0.189   6.909
38586SOL    HW117655   4.374   0.213   6.937
38586SOL    HW217656   4.298   0.132   6.833
38587SOL     OW17657   5.143   0.148   8.097
38587SOL    HW117658   5.126   0.059   8.128
38587SOL    HW217659   5.065   0.172   8.048
38588SOL     OW17660   6.530   6.748  10.668
38588SOL    HW117661   6.617   6.761  10.706
38588SOL    HW217662   6.540   6.776  10.577
38589SOL     OW17663  13.155   6.524   8.299
38589SOL    HW117664  13.129   6.436   8.273
38589SOL    HW217665  13.115   6.536   8.385
38590SOL     OW17666   5.146  11.012   3.526
38590SOL    HW117667   5.052  11.002   3.510
38590SOL    HW217668   5.152  11.076   3.597
38591SOL     OW17669   3.915   7.235  11.455
38591SOL    HW117670   3.942   7.226  11.364
38591SOL    HW217671   3.990   7.274  11.499
38592SOL     OW17672   6.757   3.994   7.841
38592SOL    HW117673   6.776   3.936   7.914
38592SOL    HW217674   6.684   4.048   7.871
38593SOL     OW17675   7.963   1.030   3.556
38593SOL    HW117676   8.035   1.093   3.559
38593SOL    HW217677   7.951   1.011   3.463
38594SOL     OW17678   2.758   1.660   5.451
38594SOL    HW117679   2.806   1.728   5.404
38594SOL    HW217680   2.811   1.582   5.441
38595SOL     OW17681   3.640   6.430   5.578
38595SOL    HW117682   3.618   6.338   5.588
38595SOL    HW217683   3.699   6.450   5.651
38596SOL     OW17684   8.529   5.686  13.226
38596SOL    HW117685   8.490   5.756  13.175
38596SOL    HW217686   8.580   5.635  13.163
38597SOL     OW17687   4.579  10.173   8.762
38597SOL    HW117688   4.602  10.245   8.821
38597SOL    HW217689   4.521  10.117   8.814
38598SOL     OW17690  14.880   2.120   6.122
38598SOL    HW117691  14.806   2.087   6.071
38598SOL    HW217692   0.073   2.116   6.063
38599SOL     OW17693  13.062   8.119   6.786
38599SOL    HW117694  13.017   8.058   6.843
38599SOL    HW217695  13.132   8.068   6.745
38600SOL     OW17696   9.513   3.481   2.191
38600SOL    HW117697   9.593   3.444   2.227
38600SOL    HW217698   9.446   3.463   2.258
38601SOL     OW17699   6.715  12.797   8.100
38601SOL    HW117700   6.668  12.797   8.016
38601SOL    HW217701   6.711  12.888   8.130
38602SOL     OW17702   5.229   9.290   9.699
38602SOL    HW117703   5.168   9.218   9.711
38602SOL    HW217704   5.313   9.256   9.730
38603SOL     OW17705   0.689   1.207  10.819
38603SOL    HW117706   0.779   1.188  10.793
38603SOL    HW217707   0.663   1.280  10.763
38604SOL     OW17708   1.162   7.229   5.453
38604SOL    HW117709   1.143   7.179   5.533
38604SOL    HW217710   1.233   7.180   5.411
38605SOL     OW17711   8.674  11.423  11.445
38605SOL    HW117712   8.717  11.371  11.512
38605SOL    HW217713   8.583  11.429  11.473
38606SOL     OW17714  10.369   1.131   5.043
38606SOL    HW117715  10.404   1.048   5.011
38606SOL    HW217716  10.292   1.106   5.095
38607SOL     OW17717  11.859   0.153   3.371
38607SOL    HW117718  11.856   0.168   3.466
38607SOL    HW217719  11.900   0.233   3.336
38608SOL     OW17720  10.892   6.794   3.611
38608SOL    HW117721  10.929   6.874   3.647
38608SOL    HW217722  10.916   6.726   3.674
38609SOL     OW17723   6.410   8.141   0.607
38609SOL    HW117724   6.333   8.179   0.564
38609SOL    HW217725   6.383   8.131   0.698
38610SOL     OW17726   3.955   6.827   0.518
38610SOL    HW117727   3.986   6.814   0.428
38610SOL    HW217728   3.865   6.795   0.517
38611SOL     OW17729  13.935   0.903   9.688
38611SOL    HW117730  13.906   0.981   9.736
38611SOL    HW217731  13.985   0.938   9.614
38612SOL     OW17732   4.409  13.301  13.957
38612SOL    HW117733   4.375  13.351  14.031
38612SOL    HW217734   4.332  13.266  13.913
38613SOL     OW17735   1.532   5.023  13.926
38613SOL    HW117736   1.464   5.087  13.902
38613SOL    HW217737   1.565   4.990  13.842
38614SOL     OW17738   6.627   8.701   2.489
38614SOL    HW117739   6.606   8.724   2.398
38614SOL    HW217740   6.700   8.759   2.512
38615SOL     OW17741  12.737  14.006  12.115
38615SOL    HW117742  12.754  14.077  12.053
38615SOL    HW217743  12.774  13.928  12.074
38616SOL     OW17744   3.627   1.285   1.900
38616SOL    HW117745   3.634   1.225   1.825
38616SOL    HW217746   3.643   1.229   1.976
38617SOL     OW17747   5.290   2.884  11.493
38617SOL    HW117748   5.236   2.886  11.414
38617SOL    HW217749   5.319   2.975  11.504
38618SOL     OW17750   7.021  13.762   3.460
38618SOL    HW117751   7.068  13.681   3.482
38618SOL    HW217752   6.951  13.733   3.401
38619SOL     OW17753   9.271   8.814   8.843
38619SOL    HW117754   9.204   8.875   8.813
38619SOL    HW217755   9.321   8.863   8.908
38620SOL     OW17756   6.412   8.749   9.393
38620SOL    HW117757   6.408   8.756   9.488
38620SOL    HW217758   6.501   8.721   9.375
38621SOL     OW17759   0.524   1.668   8.902
38621SOL    HW117760   0.485   1.689   8.817
38621SOL    HW217761   0.607   1.715   8.903
38622SOL     OW17762   2.210   6.653   8.136
38622SOL    HW117763   2.276   6.637   8.068
38622SOL    HW217764   2.136   6.692   8.090
38623SOL     OW17765   8.956   1.657   8.644
38623SOL    HW117766   8.987   1.592   8.708
38623SOL    HW217767   8.975   1.741   8.685
38624SOL     OW17768   2.533  14.466   6.527
38624SOL    HW117769   2.581  14.389   6.556
38624SOL    HW217770   2.455  14.467   6.583
38625SOL     OW17771  10.872  13.071   8.368
38625SOL    HW117772  10.943  13.031   8.418
38625SOL    HW217773  10.869  13.161   8.398
38626SOL     OW17774   0.181  10.375   6.355
38626SOL    HW117775   0.248  10.317   6.319
38626SOL    HW217776   0.152  10.332   6.435
38627SOL     OW17777  12.712   0.712   7.339
38627SOL    HW117778  12.719   0.650   7.267
38627SOL    HW217779  12.781   0.687   7.400
38628SOL     OW17780   8.066   8.888   4.081
38628SOL    HW117781   8.101   8.970   4.048
38628SOL    HW217782   8.037   8.841   4.003
38629SOL     OW17783   9.417   6.779  14.599
38629SOL    HW117784   9.344   6.724  14.626
38629SOL    HW217785   9.479   6.774  14.671
38630SOL     OW17786  12.709  13.703   4.679
38630SOL    HW117787  12.705  13.619   4.633
38630SOL    HW217788  12.719  13.768   4.610
38631SOL     OW17789  10.149  13.215  14.534
38631SOL    HW117790  10.146  13.292  14.477
38631SOL    HW217791  10.182  13.248  14.617
38632SOL     OW17792   5.759  12.295   1.891
38632SOL    HW117793   5.790  12.350   1.962
38632SOL    HW217794   5.705  12.352   1.837
38633SOL     OW17795   8.628   9.246   5.563
38633SOL    HW117796   8.558   9.289   5.514
38633SOL    HW217797   8.647   9.307   5.635
38634SOL     OW17798   4.613  13.842   8.499
38634SOL    HW117799   4.534  13.794   8.522
38634SOL    HW217800   4.650  13.870   8.583
38635SOL     OW17801   9.318  11.773   5.711
38635SOL    HW117802   9.395  11.754   5.765
38635SOL    HW217803   9.302  11.866   5.723
38636SOL     OW17804  14.653  14.057   7.570
38636SOL    HW117805  14.669  14.118   7.642
38636SOL    HW217806  14.570  14.015   7.592
38637SOL     OW17807   1.410   0.916   1.950
38637SOL    HW117808   1.393   0.899   2.043
38637SOL    HW217809   1.475   0.850   1.925
38638SOL     OW17810   8.150   4.400   7.409
38638SOL    HW117811   8.192   4.484   7.394
38638SOL    HW217812   8.213   4.351   7.462
38639SOL     OW17813   4.370  12.721   1.822
38639SOL    HW117814   4.439  12.784   1.839
38639SOL    HW217815   4.360  12.673   1.904
38640SOL     OW17816   3.342   4.988  14.738
38640SOL    HW117817   3.434   4.991  14.765
38640SOL    HW217818   3.293   4.987  14.820
38641SOL     OW17819  13.614   0.217  12.900
38641SOL    HW117820  13.631   0.305  12.934
38641SOL    HW217821  13.560   0.231  12.822
38642SOL     OW17822   1.538   9.998   6.117
38642SOL    HW117823   1.539   9.949   6.034
38642SOL    HW217824   1.583   9.941   6.179
38643SOL     OW17825   9.393   3.586   9.577
38643SOL    HW117826   9.380   3.654   9.510
38643SOL    HW217827   9.337   3.613   9.649
38644SOL     OW17828   9.654  12.637   9.689
38644SOL    HW117829   9.737  12.677   9.662
38644SOL    HW217830   9.678  12.547   9.713
38645SOL     OW17831   8.873   7.432   8.549
38645SOL    HW117832   8.798   7.373   8.559
38645SOL    HW217833   8.905   7.447   8.637
38646SOL     OW17834   3.795  14.511   8.297
38646SOL    HW117835   3.827  14.598   8.274
38646SOL    HW217836   3.734  14.488   8.227
38647SOL     OW17837   3.073   3.972   2.612
38647SOL    HW117838   3.059   4.067   2.616
38647SOL    HW217839   3.101   3.955   2.522
38648SOL     OW17840   0.013   4.868   9.553
38648SOL    HW117841  14.861   4.879   9.464
38648SOL    HW217842  14.829   4.818   9.599
38649SOL     OW17843   7.271   2.931   2.457
38649SOL    HW117844   7.229   2.995   2.514
38649SOL    HW217845   7.233   2.945   2.371
38650SOL     OW17846   7.940  14.733   0.625
38650SOL    HW117847   7.877  14.804   0.621
38650SOL    HW217848   8.012  14.768   0.678
38651SOL     OW17849   6.578   6.596   7.503
38651SOL    HW117850   6.632   6.632   7.574
38651SOL    HW217851   6.498   6.649   7.505
38652SOL     OW17852   0.921   5.567   3.582
38652SOL    HW117853   0.889   5.594   3.667
38652SOL    HW217854   0.844   5.572   3.524
38653SOL     OW17855   5.924   8.684  11.826
38653SOL    HW117856   6.012   8.706  11.796
38653SOL    HW217857   5.895   8.761  11.874
38654SOL     OW17858  11.393  13.373  12.428
38654SOL    HW117859  11.485  13.385  12.405
38654SOL    HW217860  11.375  13.444  12.490
38655SOL     OW17861   1.938   2.716   5.552
38655SOL    HW117862   1.863   2.724   5.610
38655SOL    HW217863   1.976   2.804   5.549
38656SOL     OW17864  11.619   3.605  13.106
38656SOL    HW117865  11.692   3.645  13.058
38656SOL    HW217866  11.561   3.570  13.038
38657SOL     OW17867  10.977   0.720   7.381
38657SOL    HW117868  11.018   0.672   7.454
38657SOL    HW217869  11.027   0.693   7.304
38658SOL     OW17870   6.984   9.677  10.334
38658SOL    HW117871   7.073   9.701  10.358
38658SOL    HW217872   6.995   9.605  10.271
38659SOL     OW17873  12.568   4.563   9.677
38659SOL    HW117874  12.575   4.602   9.590
38659SOL    HW217875  12.614   4.625   9.734
38660SOL     OW17876   2.726   4.948  12.439
38660SOL    HW117877   2.739   5.043  12.444
38660SOL    HW217878   2.754   4.916  12.524
38661SOL     OW17879  12.635  13.496  11.455
38661SOL    HW117880  12.721  13.517  11.492
38661SOL    HW217881  12.645  13.511  11.361
38662SOL     OW17882  11.697   5.261  14.697
38662SOL    HW117883  11.734   5.189  14.747
38662SOL    HW217884  11.675   5.223  14.612
38663SOL     OW17885   3.464   8.781   9.388
38663SOL    HW117886   3.380   8.738   9.373
38663SOL    HW217887   3.527   8.709   9.396
38664SOL     OW17888  11.980  13.279  11.350
38664SOL    HW117889  12.050  13.297  11.413
38664SOL    HW217890  11.953  13.366  11.319
38665SOL     OW17891  11.346   4.413   6.694
38665SOL    HW117892  11.302   4.378   6.771
38665SOL    HW217893  11.349   4.508   6.708
38666SOL     OW17894  13.382  11.311  14.128
38666SOL    HW117895  13.365  11.397  14.088
38666SOL    HW217896  13.389  11.251  14.054
38667SOL     OW17897   6.368  10.535  13.322
38667SOL    HW117898   6.372  10.587  13.242
38667SOL    HW217899   6.459  10.525  13.349
38668SOL     OW17900  14.701  12.270   9.997
38668SOL    HW117901  14.694  12.319   9.915
38668SOL    HW217902  14.794  12.273  10.020
38669SOL     OW17903  11.654   8.855   0.273
38669SOL    HW117904  11.740   8.812   0.263
38669SOL    HW217905  11.603   8.823   0.199
38670SOL     OW17906   7.748  14.230   2.828
38670SOL    HW117907   7.792  14.295   2.883
38670SOL    HW217908   7.661  14.266   2.813
38671SOL     OW17909  10.842  13.506   0.122
38671SOL    HW117910  10.788  13.428   0.133
38671SOL    HW217911  10.796  13.574   0.172
38672SOL     OW17912   9.107   5.281  11.137
38672SOL    HW117913   9.130   5.212  11.074
38672SOL    HW217914   9.012   5.286  11.134
38673SOL     OW17915   9.244  12.394   1.176
38673SOL    HW117916   9.280  12.450   1.107
38673SOL    HW217917   9.317  12.380   1.236
38674SOL     OW17918  12.439  11.858   3.415
38674SOL    HW117919  12.512  11.918   3.402
38674SOL    HW217920  12.462  11.781   3.362
38675SOL     OW17921  10.958  13.133   1.659
38675SOL    HW117922  11.050  13.116   1.641
38675SOL    HW217923  10.955  13.152   1.753
38676SOL     OW17924   5.906   5.654  10.336
38676SOL    HW117925   5.855   5.574  10.341
38676SOL    HW217926   5.873   5.708  10.408
38677SOL     OW17927   4.361  14.788   8.979
38677SOL    HW117928   4.347  14.756   9.067
38677SOL    HW217929   4.278  14.773   8.934
38678SOL     OW17930   0.168  11.467  13.965
38678SOL    HW117931   0.176  11.512  13.881
38678SOL    HW217932   0.142  11.535  14.027
38679SOL     OW17933   8.157   7.192   0.829
38679SOL    HW117934   8.142   7.227   0.917
38679SOL    HW217935   8.229   7.130   0.840
38680SOL     OW17936   1.246  11.533   7.391
38680SOL    HW117937   1.253  11.440   7.414
38680SOL    HW217938   1.247  11.579   7.475
38681SOL     OW17939   5.875   6.483   1.833
38681SOL    HW117940   5.951   6.518   1.787
38681SOL    HW217941   5.874   6.390   1.811
38682SOL     OW17942  14.724  10.421   5.389
38682SOL    HW117943  14.783  10.451   5.458
38682SOL    HW217944  14.657  10.488   5.383
38683SOL     OW17945   3.079   3.335   8.626
38683SOL    HW117946   2.988   3.338   8.594
38683SOL    HW217947   3.079   3.394   8.702
38684SOL     OW17948   5.980   8.413  11.850
38684SOL    HW117949   5.936   8.498  11.848
38684SOL    HW217950   6.072   8.434  11.833
38685SOL     OW17951   2.366  10.644   0.965
38685SOL    HW117952   2.360  10.738   0.984
38685SOL    HW217953   2.293  10.627   0.905
38686SOL     OW17954  10.427   7.805   1.580
38686SOL    HW117955  10.444   7.898   1.565
38686SOL    HW217956  10.444   7.793   1.674
38687SOL     OW17957   5.159   2.277   9.766
38687SOL    HW117958   5.182   2.267   9.859
38687SOL    HW217959   5.113   2.361   9.762
38688SOL     OW17960   5.831  10.160   8.744
38688SOL    HW117961   5.849  10.068   8.762
38688SOL    HW217962   5.774  10.160   8.668
38689SOL     OW17963  12.337  13.906   5.954
38689SOL    HW117964  12.414  13.856   5.981
38689SOL    HW217965  12.370  13.966   5.886
38690SOL     OW17966   2.725   8.185   7.761
38690SOL    HW117967   2.788   8.113   7.769
38690SOL    HW217968   2.709   8.212   7.852
38691SOL     OW17969   0.647   7.149   1.168
38691SOL    HW117970   0.715   7.183   1.111
38691SOL    HW217971   0.685   7.155   1.256
38692SOL     OW17972  11.406  10.302   6.167
38692SOL    HW117973  11.431  10.216   6.132
38692SOL    HW217974  11.311  10.307   6.152
38693SOL     OW17975   3.098   2.283   0.175
38693SOL    HW117976   3.167   2.340   0.210
38693SOL    HW217977   3.018   2.312   0.220
38694SOL     OW17978  12.001  14.810   3.175
38694SOL    HW117979  11.973  14.740   3.234
38694SOL    HW217980  11.947  14.799   3.097
38695SOL     OW17981   3.591  13.288   2.229
38695SOL    HW117982   3.591  13.327   2.141
38695SOL    HW217983   3.571  13.195   2.214
38696SOL     OW17984   7.536   8.320   2.770
38696SOL    HW117985   7.526   8.261   2.845
38696SOL    HW217986   7.471   8.291   2.707
38697SOL     OW17987  11.484   9.135  12.915
38697SOL    HW117988  11.487   9.077  12.991
38697SOL    HW217989  11.422   9.204  12.940
38698SOL     OW17990  14.100  12.493  12.485
38698SOL    HW117991  14.102  12.558  12.414
38698SOL    HW217992  14.189  12.458  12.488
38699SOL     OW17993   1.221   0.786  12.498
38699SOL    HW117994   1.170   0.708  12.516
38699SOL    HW217995   1.175   0.830  12.427
38700SOL     OW17996  14.330   9.194   7.248
38700SOL    HW117997  14.397   9.246   7.292
38700SOL    HW217998  14.272   9.258   7.206
38701SOL     OW17999   3.627   1.654  10.631
38701SOL    HW118000   3.536   1.684  10.630
38701SOL    HW218001   3.669   1.704  10.701
38702SOL     OW18002  11.218   9.522  12.384
38702SOL    HW118003  11.256   9.495  12.301
38702SOL    HW218004  11.129   9.549  12.362
38703SOL     OW18005  13.141   4.790  11.040
38703SOL    HW118006  13.149   4.885  11.024
38703SOL    HW218007  13.207   4.751  10.982
38704SOL     OW18008   7.304   4.745   7.584
38704SOL    HW118009   7.300   4.730   7.490
38704SOL    HW218010   7.398   4.751   7.603
38705SOL     OW18011   1.253   2.288   8.843
38705SOL    HW118012   1.215   2.201   8.839
38705SOL    HW218013   1.234   2.327   8.757
38706SOL     OW18014   8.827   0.009  14.306
38706SOL    HW118015   8.918   0.008  14.337
38706SOL    HW218016   8.785  14.820  14.354
38707SOL     OW18017   8.192  12.526   0.926
38707SOL    HW118018   8.149  12.520   1.011
38707SOL    HW218019   8.286  12.530   0.947
38708SOL     OW18020   2.384   7.720  11.002
38708SOL    HW118021   2.325   7.705  10.928
38708SOL    HW218022   2.471   7.714  10.965
38709SOL     OW18023   3.779   3.098  11.305
38709SOL    HW118024   3.817   3.093  11.217
38709SOL    HW218025   3.840   3.152  11.355
38710SOL     OW18026  13.635   8.561  10.581
38710SOL    HW118027  13.682   8.632  10.539
38710SOL    HW218028  13.702   8.512  10.629
38711SOL     OW18029  14.856  12.365   3.968
38711SOL    HW118030  14.876  12.301   3.899
38711SOL    HW218031  14.762  12.357   3.980
38712SOL     OW18032   2.038   1.616   5.619
38712SOL    HW118033   2.027   1.700   5.574
38712SOL    HW218034   2.133   1.603   5.622
38713SOL     OW18035   3.616   4.162   6.660
38713SOL    HW118036   3.692   4.194   6.612
38713SOL    HW218037   3.542   4.208   6.621
38714SOL     OW18038   0.715   2.877  10.824
38714SOL    HW118039   0.791   2.913  10.779
38714SOL    HW218040   0.751   2.829  10.898
38715SOL     OW18041   1.938   2.180   4.162
38715SOL    HW118042   1.937   2.086   4.145
38715SOL    HW218043   2.030   2.205   4.151
38716SOL     OW18044   0.415   1.395   9.290
38716SOL    HW118045   0.487   1.339   9.263
38716SOL    HW218046   0.403   1.456   9.217
38717SOL     OW18047  12.150   9.079   0.560
38717SOL    HW118048  12.124   9.170   0.574
38717SOL    HW218049  12.087   9.047   0.495
38718SOL     OW18050   8.731   6.929   7.807
38718SOL    HW118051   8.721   6.932   7.902
38718SOL    HW218052   8.771   6.844   7.790
38719SOL     OW18053   5.319   0.944  11.749
38719SOL    HW118054   5.385   1.005  11.718
38719SOL    HW218055   5.267   0.994  11.812
38720SOL     OW18056   2.869  11.787   1.483
38720SOL    HW118057   2.915  11.826   1.557
38720SOL    HW218058   2.929  11.797   1.409
38721SOL     OW18059  13.469   1.942   6.169
38721SOL    HW118060  13.546   1.939   6.226
38721SOL    HW218061  13.436   2.031   6.180
38722SOL     OW18062  12.454   0.171  11.164
38722SOL    HW118063  12.427   0.093  11.116
38722SOL    HW218064  12.401   0.169  11.243
38723SOL     OW18065   6.450   4.592   1.537
38723SOL    HW118066   6.384   4.660   1.527
38723SOL    HW218067   6.423   4.543   1.615
38724SOL     OW18068   8.010   7.928   8.307
38724SOL    HW118069   8.076   7.976   8.356
38724SOL    HW218070   7.949   7.995   8.277
38725SOL     OW18071   8.389   2.917  10.192
38725SOL    HW118072   8.393   2.972  10.113
38725SOL    HW218073   8.477   2.920  10.228
38726SOL     OW18074  11.046   8.147   0.589
38726SOL    HW118075  11.120   8.207   0.586
38726SOL    HW218076  11.085   8.061   0.575
38727SOL     OW18077   5.710   2.275  12.218
38727SOL    HW118078   5.697   2.364  12.186
38727SOL    HW218079   5.621   2.240  12.227
38728SOL     OW18080   1.459   2.143   8.564
38728SOL    HW118081   1.372   2.119   8.596
38728SOL    HW218082   1.443   2.207   8.495
38729SOL     OW18083   1.574  12.276   4.639
38729SOL    HW118084   1.564  12.283   4.734
38729SOL    HW218085   1.585  12.182   4.624
38730SOL     OW18086  10.677   0.318   8.363
38730SOL    HW118087  10.705   0.231   8.334
38730SOL    HW218088  10.739   0.378   8.323
38731SOL     OW18089  12.378  14.156   8.491
38731SOL    HW118090  12.287  14.163   8.461
38731SOL    HW218091  12.427  14.214   8.433
38732SOL     OW18092   5.625   0.637  12.879
38732SOL    HW118093   5.710   0.624  12.836
38732SOL    HW218094   5.642   0.704  12.945
38733SOL     OW18095   8.184  14.141   8.741
38733SOL    HW118096   8.156  14.210   8.801
38733SOL    HW218097   8.278  14.133   8.756
38734SOL     OW18098   8.172  12.767   0.442
38734SOL    HW118099   8.096  12.726   0.401
38734SOL    HW218100   8.164  12.743   0.535
38735SOL     OW18101   9.563   5.373   5.568
38735SOL    HW118102   9.644   5.323   5.568
38735SOL    HW218103   9.588   5.461   5.541
38736SOL     OW18104  10.614   5.540  10.065
38736SOL    HW118105  10.608   5.445  10.058
38736SOL    HW218106  10.620   5.570   9.975
38737SOL     OW18107   4.484   5.382   5.761
38737SOL    HW118108   4.544   5.429   5.820
38737SOL    HW218109   4.511   5.291   5.767
38738SOL     OW18110   6.393  14.843   3.632
38738SOL    HW118111   6.316  14.800   3.669
38738SOL    HW218112   6.435   0.003   3.707
38739SOL     OW18113   1.436   0.987  12.094
38739SOL    HW118114   1.452   0.967  12.002
38739SOL    HW218115   1.448   0.903  12.139
38740SOL     OW18116   2.727  14.660   6.484
38740SOL    HW118117   2.639  14.628   6.505
38740SOL    HW218118   2.745  14.627   6.396
38741SOL     OW18119   9.649  12.295   1.519
38741SOL    HW118120   9.672  12.335   1.603
38741SOL    HW218121   9.720  12.322   1.460
38742SOL     OW18122   6.923  10.036   8.585
38742SOL    HW118123   6.835  10.040   8.548
38742SOL    HW218124   6.942  10.127   8.611
38743SOL     OW18125   5.734  14.767  12.522
38743SOL    HW118126   5.791  14.781  12.597
38743SOL    HW218127   5.648  14.797  12.551
38744SOL     OW18128   2.450  11.267   5.315
38744SOL    HW118129   2.401  11.327   5.371
38744SOL    HW218130   2.454  11.186   5.364
38745SOL     OW18131   2.328   2.127   6.255
38745SOL    HW118132   2.349   2.038   6.230
38745SOL    HW218133   2.346   2.179   6.177
38746SOL     OW18134  13.904   0.819  10.202
38746SOL    HW118135  13.970   0.778  10.146
38746SOL    HW218136  13.933   0.910  10.210
38747SOL     OW18137   3.278   0.282   6.734
38747SOL    HW118138   3.288   0.332   6.653
38747SOL    HW218139   3.184   0.283   6.752
38748SOL     OW18140   7.053  10.127   3.347
38748SOL    HW118141   7.115  10.057   3.325
38748SOL    HW218142   7.106  10.206   3.351
38749SOL     OW18143   8.335   4.874   7.784
38749SOL    HW118144   8.301   4.950   7.737
38749SOL    HW218145   8.259   4.835   7.826
38750SOL     OW18146   2.817  13.237  12.852
38750SOL    HW118147   2.859  13.154  12.830
38750SOL    HW218148   2.885  13.285  12.900
38751SOL     OW18149   3.069   1.912  12.897
38751SOL    HW118150   3.048   1.832  12.849
38751SOL    HW218151   3.159   1.933  12.870
38752SOL     OW18152   9.056  14.380  14.522
38752SOL    HW118153   9.088  14.411  14.437
38752SOL    HW218154   9.124  14.320  14.553
38753SOL     OW18155  14.712  11.975   5.971
38753SOL    HW118156  14.639  11.939   5.920
38753SOL    HW218157  14.678  12.057   6.006
38754SOL     OW18158   9.456   8.665   0.224
38754SOL    HW118159   9.383   8.605   0.237
38754SOL    HW218160   9.426   8.747   0.265
38755SOL     OW18161   7.108  11.966   7.504
38755SOL    HW118162   7.107  11.949   7.598
38755SOL    HW218163   7.190  12.013   7.488
38756SOL     OW18164  12.975   6.724   1.344
38756SOL    HW118165  12.942   6.641   1.380
38756SOL    HW218166  13.052   6.698   1.293
38757SOL     OW18167   3.689   2.284  10.999
38757SOL    HW118168   3.782   2.290  11.019
38757SOL    HW218169   3.646   2.327  11.073
38758SOL     OW18170  12.651   7.310  11.682
38758SOL    HW118171  12.728   7.364  11.664
38758SOL    HW218172  12.630   7.269  11.598
38759SOL     OW18173   2.489   1.878  13.943
38759SOL    HW118174   2.439   1.816  13.996
38759SOL    HW218175   2.580   1.865  13.970
38760SOL     OW18176   7.643   9.960   2.182
38760SOL    HW118177   7.653  10.055   2.173
38760SOL    HW218178   7.728   9.925   2.153
38761SOL     OW18179  12.748  12.606   9.372
38761SOL    HW118180  12.748  12.609   9.468
38761SOL    HW218181  12.830  12.561   9.349
38762SOL     OW18182  10.084   1.891  12.223
38762SOL    HW118183  10.094   1.986  12.224
38762SOL    HW218184  10.008   1.874  12.278
38763SOL     OW18185   0.893   3.226   2.965
38763SOL    HW118186   0.928   3.160   3.025
38763SOL    HW218187   0.877   3.178   2.884
38764SOL     OW18188   7.714   9.426  13.059
38764SOL    HW118189   7.628   9.386  13.046
38764SOL    HW218190   7.761   9.408  12.977
38765SOL     OW18191   9.089   6.144   3.316
38765SOL    HW118192   9.170   6.092   3.311
38765SOL    HW218193   9.098   6.208   3.246
38766SOL     OW18194   3.607  13.818   7.822
38766SOL    HW118195   3.617  13.832   7.727
38766SOL    HW218196   3.676  13.872   7.861
38767SOL     OW18197   9.130  14.762  12.230
38767SOL    HW118198   9.191  14.833  12.249
38767SOL    HW218199   9.051  14.805  12.200
38768SOL     OW18200   4.948   7.735   1.530
38768SOL    HW118201   5.038   7.720   1.559
38768SOL    HW218202   4.954   7.806   1.466
38769SOL     OW18203   6.148   6.925   0.468
38769SOL    HW118204   6.166   6.854   0.406
38769SOL    HW218205   6.185   6.894   0.551
38770SOL     OW18206  14.014  14.461   0.589
38770SOL    HW118207  13.991  14.368   0.587
38770SOL    HW218208  14.089  14.466   0.648
38771SOL     OW18209   4.921   8.538   0.430
38771SOL    HW118210   5.000   8.538   0.376
38771SOL    HW218211   4.928   8.460   0.484
38772SOL     OW18212   3.488  13.803   1.324
38772SOL    HW118213   3.427  13.801   1.250
38772SOL    HW218214   3.449  13.866   1.386
38773SOL     OW18215  11.603  14.040  12.879
38773SOL    HW118216  11.568  14.129  12.880
38773SOL    HW218217  11.582  14.005  12.965
38774SOL     OW18218   8.105   2.521   2.289
38774SOL    HW118219   8.029   2.561   2.333
38774SOL    HW218220   8.169   2.592   2.283
38775SOL     OW18221   7.767  14.739  12.058
38775SOL    HW118222   7.697  14.769  11.999
38775SOL    HW218223   7.842  14.793  12.034
38776SOL     OW18224  14.500   8.936  13.618
38776SOL    HW118225  14.538   9.000  13.558
38776SOL    HW218226  14.499   8.854  13.569
38777SOL     OW18227  11.562  12.822   9.368
38777SOL    HW118228  11.525  12.789   9.449
38777SOL    HW218229  11.542  12.916   9.369
38778SOL     OW18230  13.469   1.698   2.485
38778SOL    HW118231  13.417   1.758   2.431
38778SOL    HW218232  13.517   1.756   2.544
38779SOL     OW18233   6.612   4.766  13.266
38779SOL    HW118234   6.563   4.848  13.256
38779SOL    HW218235   6.682   4.787  13.327
38780SOL     OW18236   5.662  13.721   0.777
38780SOL    HW118237   5.672  13.794   0.716
38780SOL    HW218238   5.654  13.763   0.863
38781SOL     OW18239   5.127   7.418   1.750
38781SOL    HW118240   5.208   7.386   1.792
38781SOL    HW218241   5.104   7.497   1.800
38782SOL     OW18242   2.991   4.778   0.844
38782SOL    HW118243   3.065   4.763   0.903
38782SOL    HW218244   3.013   4.859   0.798
38783SOL     OW18245   8.075  10.048  10.696
38783SOL    HW118246   8.124   9.968  10.715
38783SOL    HW218247   8.139  10.118  10.702
38784SOL     OW18248  13.072   0.329  12.784
38784SOL    HW118249  13.010   0.379  12.836
38784SOL    HW218250  13.113   0.269  12.846
38785SOL     OW18251   9.119   2.128   9.051
38785SOL    HW118252   9.206   2.102   9.020
38785SOL    HW218253   9.136   2.190   9.122
38786SOL     OW18254   6.417   0.000   2.694
38786SOL    HW118255   6.491  14.857   2.639
38786SOL    HW218256   6.356  14.809   2.688
38787SOL     OW18257   7.849  13.999   3.789
38787SOL    HW118258   7.920  13.979   3.850
38787SOL    HW218259   7.818  14.086   3.816
38788SOL     OW18260  11.634   5.864   9.283
38788SOL    HW118261  11.585   5.933   9.328
38788SOL    HW218262  11.613   5.876   9.191
38789SOL     OW18263   6.993   4.632   4.442
38789SOL    HW118264   7.067   4.601   4.390
38789SOL    HW218265   6.965   4.712   4.399
38790SOL     OW18266  12.411   7.967   0.277
38790SOL    HW118267  12.348   8.035   0.299
38790SOL    HW218268  12.373   7.922   0.201
38791SOL     OW18269   2.205   2.707   1.600
38791SOL    HW118270   2.277   2.748   1.551
38791SOL    HW218271   2.162   2.780   1.644
38792SOL     OW18272   8.299   2.889   5.801
38792SOL    HW118273   8.318   2.878   5.708
38792SOL    HW218274   8.320   2.981   5.819
38793SOL     OW18275  12.540  14.641   8.362
38793SOL    HW118276  12.476  14.705   8.331
38793SOL    HW218277  12.605  14.635   8.292
38794SOL     OW18278  10.165   7.748   6.838
38794SOL    HW118279  10.236   7.799   6.878
38794SOL    HW218280  10.086   7.799   6.854
38795SOL     OW18281   3.864   5.672   7.281
38795SOL    HW118282   3.881   5.640   7.369
38795SOL    HW218283   3.844   5.594   7.230
38796SOL     OW18284  14.461   0.703  12.689
38796SOL    HW118285  14.428   0.689  12.600
38796SOL    HW218286  14.551   0.672  12.685
38797SOL     OW18287  14.674   6.469  11.672
38797SOL    HW118288  14.672   6.522  11.751
38797SOL    HW218289  14.767   6.463  11.649
38798SOL     OW18290  12.169   7.073  10.358
38798SOL    HW118291  12.095   7.097  10.414
38798SOL    HW218292  12.244   7.116  10.398
38799SOL     OW18293   1.896   2.161  14.065
38799SOL    HW118294   1.858   2.107  14.135
38799SOL    HW218295   1.979   2.119  14.045
38800SOL     OW18296   9.395   5.407  11.970
38800SOL    HW118297   9.322   5.371  12.020
38800SOL    HW218298   9.461   5.339  11.970
38801SOL     OW18299  13.894   6.129  13.989
38801SOL    HW118300  13.805   6.137  14.023
38801SOL    HW218301  13.950   6.128  14.067
38802SOL     OW18302  10.711   8.011   1.401
38802SOL    HW118303  10.696   7.916   1.396
38802SOL    HW218304  10.728   8.038   1.311
38803SOL     OW18305  11.745   7.069  10.406
38803SOL    HW118306  11.834   7.054  10.436
38803SOL    HW218307  11.718   6.986  10.367
38804SOL     OW18308   2.702   6.000  11.539
38804SOL    HW118309   2.765   5.928  11.539
38804SOL    HW218310   2.649   5.984  11.461
38805SOL     OW18311   6.189  14.564   3.842
38805SOL    HW118312   6.240  14.560   3.923
38805SOL    HW218313   6.152  14.477   3.832
38806SOL     OW18314   2.836   9.067   9.686
38806SOL    HW118315   2.865   9.131   9.752
38806SOL    HW218316   2.836   9.117   9.604
38807SOL     OW18317   4.299   5.130   9.464
38807SOL    HW118318   4.368   5.091   9.517
38807SOL    HW218319   4.269   5.059   9.407
38808SOL     OW18320  11.173  14.749  13.050
38808SOL    HW118321  11.192  14.841  13.036
38808SOL    HW218322  11.167  14.712  12.962
38809SOL     OW18323  12.661   5.111  14.717
38809SOL    HW118324  12.701   5.181  14.767
38809SOL    HW218325  12.567   5.123  14.730
38810SOL     OW18326   7.243   6.041   0.083
38810SOL    HW118327   7.154   6.007   0.093
38810SOL    HW218328   7.279   5.994   0.009
38811SOL     OW18329  14.537  13.981   6.495
38811SOL    HW118330  14.590  14.018   6.565
38811SOL    HW218331  14.449  14.015   6.510
38812SOL     OW18332  13.682  11.839   8.279
38812SOL    HW118333  13.732  11.758   8.283
38812SOL    HW218334  13.596  11.813   8.248
38813SOL     OW18335  11.515   4.641   0.397
38813SOL    HW118336  11.433   4.597   0.419
38813SOL    HW218337  11.575   4.616   0.468
38814SOL     OW18338   4.594  12.544  13.331
38814SOL    HW118339   4.620  12.461  13.293
38814SOL    HW218340   4.675  12.583  13.362
38815SOL     OW18341   7.008  12.043   4.923
38815SOL    HW118342   7.015  11.997   5.007
38815SOL    HW218343   7.036  11.980   4.858
38816SOL     OW18344   9.322  12.843   5.687
38816SOL    HW118345   9.287  12.855   5.775
38816SOL    HW218346   9.415  12.866   5.695
38817SOL     OW18347   9.593   2.081  10.120
38817SOL    HW118348   9.553   2.047  10.040
38817SOL    HW218349   9.527   2.067  10.188
38818SOL     OW18350   2.015  13.472   2.041
38818SOL    HW118351   1.999  13.523   1.962
38818SOL    HW218352   1.997  13.382   2.015
38819SOL     OW18353  12.350   2.100   2.932
38819SOL    HW118354  12.411   2.165   2.897
38819SOL    HW218355  12.264   2.138   2.917
38820SOL     OW18356  14.803  10.720   9.740
38820SOL    HW118357  14.736  10.703   9.674
38820SOL    HW218358  14.809  10.815   9.745
38821SOL     OW18359   6.299  12.354   9.052
38821SOL    HW118360   6.223  12.409   9.037
38821SOL    HW218361   6.264  12.275   9.094
38822SOL     OW18362   2.306   7.337   6.727
38822SOL    HW118363   2.392   7.368   6.756
38822SOL    HW218364   2.288   7.388   6.648
38823SOL     OW18365  11.297   8.408   9.428
38823SOL    HW118366  11.292   8.454   9.511
38823SOL    HW218367  11.390   8.408   9.405
38824SOL     OW18368   0.032   0.838  13.935
38824SOL    HW118369   0.050   0.888  13.856
38824SOL    HW218370   0.093   0.874  14.000
38825SOL     OW18371   4.810   6.847   1.525
38825SOL    HW118372   4.729   6.842   1.474
38825SOL    HW218373   4.842   6.936   1.511
38826SOL     OW18374   0.133   7.565   0.688
38826SOL    HW118375   0.209   7.569   0.746
38826SOL    HW218376   0.083   7.643   0.709
38827SOL     OW18377  14.743   5.831   0.136
38827SOL    HW118378  14.757   5.887   0.212
38827SOL    HW218379  14.831   5.809   0.105
38828SOL     OW18380  12.011   1.763  13.294
38828SOL    HW118381  12.007   1.819  13.372
38828SOL    HW218382  12.028   1.675  13.328
38829SOL     OW18383  12.005  11.060   3.562
38829SOL    HW118384  12.019  10.976   3.604
38829SOL    HW218385  12.048  11.052   3.476
38830SOL     OW18386   4.641   6.760   2.109
38830SOL    HW118387   4.571   6.815   2.074
38830SOL    HW218388   4.720   6.789   2.064
38831SOL     OW18389  12.672   8.144   8.504
38831SOL    HW118390  12.689   8.236   8.482
38831SOL    HW218391  12.607   8.147   8.574
38832SOL     OW18392  11.757   6.431   5.353
38832SOL    HW118393  11.798   6.399   5.434
38832SOL    HW218394  11.702   6.359   5.324
38833SOL     OW18395   4.838   8.539  12.069
38833SOL    HW118396   4.892   8.466  12.100
38833SOL    HW218397   4.790   8.504  11.995
38834SOL     OW18398  10.465  10.928  13.379
38834SOL    HW118399  10.436  11.013  13.347
38834SOL    HW218400  10.386  10.889  13.418
38835SOL     OW18401   0.181  12.086   0.244
38835SOL    HW118402   0.208  12.043   0.325
38835SOL    HW218403   0.132  12.163   0.274
38836SOL     OW18404   3.319  11.023   7.886
38836SOL    HW118405   3.355  11.110   7.866
38836SOL    HW218406   3.391  10.963   7.868
38837SOL     OW18407   6.753   3.492   6.291
38837SOL    HW118408   6.824   3.436   6.261
38837SOL    HW218409   6.777   3.515   6.381
38838SOL     OW18410   5.308   2.376   1.973
38838SOL    HW118411   5.387   2.343   1.930
38838SOL    HW218412   5.242   2.378   1.904
38839SOL     OW18413   6.778  14.043  10.362
38839SOL    HW118414   6.746  13.981  10.428
38839SOL    HW218415   6.807  13.987  10.289
38840SOL     OW18416   3.863   1.709  12.704
38840SOL    HW118417   3.793   1.774  12.695
38840SOL    HW218418   3.924   1.748  12.767
38841SOL     OW18419  13.431   2.500   4.295
38841SOL    HW118420  13.344   2.531   4.320
38841SOL    HW218421  13.428   2.406   4.311
38842SOL     OW18422   8.173   1.082   9.199
38842SOL    HW118423   8.249   1.134   9.227
38842SOL    HW218424   8.190   1.064   9.106
38843SOL     OW18425   5.738   2.644   4.373
38843SOL    HW118426   5.686   2.719   4.344
38843SOL    HW218427   5.796   2.680   4.440
38844SOL     OW18428   8.594   0.748   6.996
38844SOL    HW118429   8.646   0.795   6.931
38844SOL    HW218430   8.527   0.702   6.946
38845SOL     OW18431   3.153  11.477  11.834
38845SOL    HW118432   3.162  11.573  11.833
38845SOL    HW218433   3.123  11.456  11.922
38846SOL     OW18434  12.489   4.550  13.420
38846SOL    HW118435  12.562   4.612  13.425
38846SOL    HW218436  12.411   4.605  13.415
38847SOL     OW18437   9.459   9.029   0.840
38847SOL    HW118438   9.366   9.027   0.862
38847SOL    HW218439   9.489   8.940   0.855
38848SOL     OW18440  11.525   1.482   1.700
38848SOL    HW118441  11.531   1.393   1.666
38848SOL    HW218442  11.608   1.497   1.744
38849SOL     OW18443   8.823   7.571   7.569
38849SOL    HW118444   8.867   7.536   7.491
38849SOL    HW218445   8.806   7.663   7.548
38850SOL     OW18446  11.854   6.328   3.510
38850SOL    HW118447  11.847   6.234   3.529
38850SOL    HW218448  11.768   6.363   3.533
38851SOL     OW18449   9.634   2.794   0.970
38851SOL    HW118450   9.689   2.856   0.922
38851SOL    HW218451   9.554   2.844   0.990
38852SOL     OW18452  13.622   3.623   5.381
38852SOL    HW118453  13.716   3.620   5.403
38852SOL    HW218454  13.596   3.712   5.401
38853SOL     OW18455   9.006  12.327   8.564
38853SOL    HW118456   8.940  12.394   8.547
38853SOL    HW218457   9.036  12.344   8.654
38854SOL     OW18458   0.354   3.622   3.395
38854SOL    HW118459   0.290   3.574   3.447
38854SOL    HW218460   0.363   3.706   3.438
38855SOL     OW18461   9.891   9.152   2.677
38855SOL    HW118462   9.922   9.169   2.767
38855SOL    HW218463   9.906   9.059   2.664
38856SOL     OW18464  11.269   4.800   1.897
38856SOL    HW118465  11.205   4.838   1.957
38856SOL    HW218466  11.254   4.845   1.814
38857SOL     OW18467   8.935   8.640   8.730
38857SOL    HW118468   8.905   8.640   8.821
38857SOL    HW218469   9.026   8.609   8.735
38858SOL     OW18470   7.284   5.170   7.477
38858SOL    HW118471   7.354   5.164   7.413
38858SOL    HW218472   7.217   5.223   7.434
38859SOL     OW18473  11.627   2.368   0.932
38859SOL    HW118474  11.564   2.386   1.002
38859SOL    HW218475  11.607   2.431   0.864
38860SOL     OW18476   9.946   6.831   7.337
38860SOL    HW118477   9.965   6.802   7.248
38860SOL    HW218478   9.913   6.921   7.326
38861SOL     OW18479   7.799  11.624   9.590
38861SOL    HW118480   7.714  11.629   9.547
38861SOL    HW218481   7.780  11.643   9.682
38862SOL     OW18482   3.648  14.002   2.445
38862SOL    HW118483   3.638  13.953   2.527
38862SOL    HW218484   3.569  14.056   2.440
38863SOL     OW18485  14.418   7.865   0.759
38863SOL    HW118486  14.332   7.891   0.793
38863SOL    HW218487  14.456   7.812   0.829
38864SOL     OW18488   9.895   9.022   7.652
38864SOL    HW118489   9.876   8.993   7.564
38864SOL    HW218490   9.884   9.117   7.649
38865SOL     OW18491   1.794   2.307  14.811
38865SOL    HW118492   1.761   2.218  14.808
38865SOL    HW218493   1.741   2.350  14.878
38866SOL     OW18494   3.498   6.204  12.272
38866SOL    HW118495   3.587   6.238  12.263
38866SOL    HW218496   3.509   6.110  12.285
38867SOL     OW18497   5.183   1.882  10.236
38867SOL    HW118498   5.226   1.961  10.269
38867SOL    HW218499   5.232   1.859  10.157
38868SOL     OW18500   9.629   9.609  10.882
38868SOL    HW118501   9.637   9.693  10.927
38868SOL    HW218502   9.569   9.558  10.937
38869SOL     OW18503   1.325   3.413  11.610
38869SOL    HW118504   1.258   3.395  11.544
38869SOL    HW218505   1.290   3.374  11.691
38870SOL     OW18506  12.152   3.281   0.990
38870SOL    HW118507  12.204   3.241   1.060
38870SOL    HW218508  12.134   3.209   0.929
38871SOL     OW18509   6.841   1.128  14.642
38871SOL    HW118510   6.925   1.111  14.685
38871SOL    HW218511   6.821   1.047  14.595
38872SOL     OW18512   1.204  14.296   0.093
38872SOL    HW118513   1.192  14.390   0.106
38872SOL    HW218514   1.162  14.256   0.169
38873SOL     OW18515   3.298   7.532   6.251
38873SOL    HW118516   3.362   7.573   6.310
38873SOL    HW218517   3.337   7.448   6.228
38874SOL     OW18518   5.339   1.735   0.440
38874SOL    HW118519   5.380   1.672   0.381
38874SOL    HW218520   5.255   1.694   0.463
38875SOL     OW18521   8.389  10.762  12.061
38875SOL    HW118522   8.430  10.675  12.057
38875SOL    HW218523   8.324  10.755  12.131
38876SOL     OW18524   6.161   0.233   8.765
38876SOL    HW118525   6.198   0.194   8.686
38876SOL    HW218526   6.219   0.306   8.785
38877SOL     OW18527   0.542  14.765  10.328
38877SOL    HW118528   0.510  14.682  10.291
38877SOL    HW218529   0.468  14.800  10.377
38878SOL     OW18530   6.547  10.143  10.595
38878SOL    HW118531   6.477  10.157  10.531
38878SOL    HW218532   6.503  10.147  10.680
38879SOL     OW18533  11.835   5.436   8.430
38879SOL    HW118534  11.797   5.394   8.354
38879SOL    HW218535  11.892   5.504   8.394
38880SOL     OW18536  13.898  12.809   6.839
38880SOL    HW118537  13.872  12.900   6.847
38880SOL    HW218538  13.936  12.787   6.925
38881SOL     OW18539  12.954  13.310  14.017
38881SOL    HW118540  12.980  13.221  14.042
38881SOL    HW218541  13.035  13.351  13.988
38882SOL     OW18542   4.137   1.095  13.164
38882SOL    HW118543   4.215   1.149  13.175
38882SOL    HW218544   4.159   1.036  13.092
38883SOL     OW18545   6.719  13.869   2.415
38883SOL    HW118546   6.660  13.866   2.490
38883SOL    HW218547   6.669  13.912   2.346
38884SOL     OW18548   3.920  12.957   6.375
38884SOL    HW118549   3.943  13.030   6.433
38884SOL    HW218550   3.825  12.962   6.368
38885SOL     OW18551   7.280   7.925   7.883
38885SOL    HW118552   7.268   7.857   7.817
38885SOL    HW218553   7.318   7.999   7.836
38886SOL     OW18554   2.143   4.810   5.879
38886SOL    HW118555   2.209   4.756   5.922
38886SOL    HW218556   2.082   4.834   5.949
38887SOL     OW18557   1.909   7.128  12.269
38887SOL    HW118558   1.939   7.175  12.347
38887SOL    HW218559   1.900   7.037  12.298
38888SOL     OW18560   8.487   8.769   8.739
38888SOL    HW118561   8.561   8.734   8.788
38888SOL    HW218562   8.429   8.805   8.806
38889SOL     OW18563   3.350   1.298   5.501
38889SOL    HW118564   3.422   1.291   5.438
38889SOL    HW218565   3.274   1.320   5.448
38890SOL     OW18566  13.726  14.037   4.182
38890SOL    HW118567  13.639  13.999   4.170
38890SOL    HW218568  13.761  14.048   4.093
38891SOL     OW18569  10.231   1.191  11.291
38891SOL    HW118570  10.149   1.216  11.248
38891SOL    HW218571  10.299   1.237  11.243
38892SOL     OW18572  10.571   2.789  11.785
38892SOL    HW118573  10.551   2.779  11.692
38892SOL    HW218574  10.667   2.783  11.789
38893SOL     OW18575   3.562   5.780   9.915
38893SOL    HW118576   3.583   5.846   9.981
38893SOL    HW218577   3.519   5.709   9.963
38894SOL     OW18578   0.974   0.927   1.106
38894SOL    HW118579   1.028   0.993   1.149
38894SOL    HW218580   1.027   0.847   1.107
38895SOL     OW18581   4.390   0.236   0.427
38895SOL    HW118582   4.445   0.252   0.504
38895SOL    HW218583   4.405   0.144   0.405
38896SOL     OW18584   6.286   8.830   4.770
38896SOL    HW118585   6.348   8.893   4.733
38896SOL    HW218586   6.322   8.745   4.746
38897SOL     OW18587   2.074   4.305  12.167
38897SOL    HW118588   2.043   4.271  12.084
38897SOL    HW218589   2.109   4.392  12.146
38898SOL     OW18590   7.519   4.076   7.347
38898SOL    HW118591   7.554   4.154   7.390
38898SOL    HW218592   7.546   4.003   7.402
38899SOL     OW18593  12.596   4.186  11.177
38899SOL    HW118594  12.582   4.277  11.204
38899SOL    HW218595  12.643   4.146  11.250
38900SOL     OW18596   0.407  11.778  14.047
38900SOL    HW118597   0.331  11.814  14.000
38900SOL    HW218598   0.398  11.811  14.136
38901SOL     OW18599   9.183  10.308  14.334
38901SOL    HW118600   9.247  10.355  14.280
38901SOL    HW218601   9.118  10.375  14.357
38902SOL     OW18602   9.789   0.741   8.471
38902SOL    HW118603   9.786   0.796   8.549
38902SOL    HW218604   9.733   0.786   8.407
38903SOL     OW18605   4.628   9.704   0.179
38903SOL    HW118606   4.613   9.797   0.199
38903SOL    HW218607   4.580   9.690   0.097
38904SOL     OW18608  11.510   5.637  14.825
38904SOL    HW118609  11.535   5.622  14.734
38904SOL    HW218610  11.428   5.686  14.820
38905SOL     OW18611   9.921   3.228   7.830
38905SOL    HW118612   9.924   3.191   7.742
38905SOL    HW218613   9.982   3.303   7.827
38906SOL     OW18614  13.255  14.817  12.179
38906SOL    HW118615  13.291  14.794  12.265
38906SOL    HW218616  13.172  14.860  12.199
38907SOL     OW18617   4.508  13.367   4.597
38907SOL    HW118618   4.469  13.318   4.524
38907SOL    HW218619   4.494  13.459   4.574
38908SOL     OW18620   5.139   1.795   1.016
38908SOL    HW118621   5.148   1.818   0.923
38908SOL    HW218622   5.152   1.700   1.019
38909SOL     OW18623   9.863   8.649   8.475
38909SOL    HW118624   9.951   8.667   8.441
38909SOL    HW218625   9.854   8.710   8.548
38910SOL     OW18626  10.441   1.528   2.435
38910SOL    HW118627  10.496   1.601   2.409
38910SOL    HW218628  10.493   1.480   2.499
38911SOL     OW18629   6.950   0.218   5.979
38911SOL    HW118630   6.961   0.283   6.050
38911SOL    HW218631   7.038   0.181   5.968
38912SOL     OW18632  11.265  12.057   4.578
38912SOL    HW118633  11.347  12.082   4.536
38912SOL    HW218634  11.289  12.041   4.670
38913SOL     OW18635   9.656   2.803   9.180
38913SOL    HW118636   9.646   2.898   9.183
38913SOL    HW218637   9.650   2.781   9.087
38914SOL     OW18638   6.494   2.162   3.333
38914SOL    HW118639   6.589   2.169   3.325
38914SOL    HW218640   6.460   2.237   3.284
38915SOL     OW18641   0.254   6.721  11.547
38915SOL    HW118642   0.172   6.734  11.500
38915SOL    HW218643   0.282   6.633  11.524
38916SOL     OW18644  10.321  11.053   4.643
38916SOL    HW118645  10.255  11.030   4.578
38916SOL    HW218646  10.387  10.984   4.635
38917SOL     OW18647   6.609   2.744   2.875
38917SOL    HW118648   6.533   2.686   2.877
38917SOL    HW218649   6.614   2.780   2.964
38918SOL     OW18650  11.929   4.732  13.797
38918SOL    HW118651  11.974   4.651  13.772
38918SOL    HW218652  11.938   4.789  13.721
38919SOL     OW18653  11.840  11.106  13.491
38919SOL    HW118654  11.767  11.166  13.507
38919SOL    HW218655  11.854  11.062  13.575
38920SOL     OW18656   8.390   1.400   3.980
38920SOL    HW118657   8.369   1.492   3.993
38920SOL    HW218658   8.444   1.397   3.902
38921SOL     OW18659   0.969   5.624   0.735
38921SOL    HW118660   0.971   5.670   0.652
38921SOL    HW218661   0.974   5.693   0.801
38922SOL     OW18662  10.375   1.687   5.637
38922SOL    HW118663  10.421   1.632   5.700
38922SOL    HW218664  10.413   1.665   5.553
38923SOL     OW18665   2.116   7.668   5.836
38923SOL    HW118666   2.057   7.601   5.802
38923SOL    HW218667   2.137   7.723   5.760
38924SOL     OW18668  13.591   7.502   8.471
38924SOL    HW118669  13.539   7.479   8.394
38924SOL    HW218670  13.682   7.489   8.444
38925SOL     OW18671  12.815   6.644  14.519
38925SOL    HW118672  12.799   6.722  14.572
38925SOL    HW218673  12.779   6.572  14.572
38926SOL     OW18674  11.866   3.134  11.345
38926SOL    HW118675  11.887   3.044  11.320
38926SOL    HW218676  11.933   3.187  11.302
38927SOL     OW18677   7.929  12.965  11.039
38927SOL    HW118678   7.838  12.940  11.059
38927SOL    HW218679   7.942  12.934  10.949
38928SOL     OW18680   3.129   0.721   0.061
38928SOL    HW118681   3.094   0.734   0.149
38928SOL    HW218682   3.187   0.795   0.047
38929SOL     OW18683  14.362   1.743   8.755
38929SOL    HW118684  14.285   1.799   8.746
38929SOL    HW218685  14.357   1.683   8.680
38930SOL     OW18686   3.812   9.844   4.909
38930SOL    HW118687   3.897   9.834   4.867
38930SOL    HW218688   3.750   9.809   4.845
38931SOL     OW18689   0.088   6.861   2.052
38931SOL    HW118690   0.159   6.856   1.987
38931SOL    HW218691   0.069   6.954   2.058
38932SOL     OW18692   9.917  11.244  12.186
38932SOL    HW118693   9.973  11.299  12.239
38932SOL    HW218694   9.949  11.255  12.097
38933SOL     OW18695   5.884   8.948   2.980
38933SOL    HW118696   5.801   8.969   2.938
38933SOL    HW218697   5.918   8.873   2.931
38934SOL     OW18698   7.944   5.684   9.065
38934SOL    HW118699   7.865   5.709   9.113
38934SOL    HW218700   7.947   5.745   8.991
38935SOL     OW18701   0.713   4.617   2.759
38935SOL    HW118702   0.658   4.600   2.683
38935SOL    HW218703   0.762   4.696   2.736
38936SOL     OW18704   5.087   8.772  12.183
38936SOL    HW118705   5.061   8.838  12.119
38936SOL    HW218706   5.098   8.692  12.132
38937SOL     OW18707   7.160   2.680  14.647
38937SOL    HW118708   7.210   2.656  14.725
38937SOL    HW218709   7.077   2.633  14.655
38938SOL     OW18710   4.916   9.311  11.067
38938SOL    HW118711   4.906   9.231  11.118
38938SOL    HW218712   4.831   9.323  11.025
38939SOL     OW18713   4.890   0.971   2.670
38939SOL    HW118714   4.829   1.012   2.609
38939SOL    HW218715   4.868   1.007   2.756
38940SOL     OW18716   7.556  14.320   2.105
38940SOL    HW118717   7.574  14.313   2.198
38940SOL    HW218718   7.490  14.389   2.098
38941SOL     OW18719   5.588  14.025   5.258
38941SOL    HW118720   5.533  14.099   5.233
38941SOL    HW218721   5.677  14.053   5.238
38942SOL     OW18722  13.237  14.323   5.154
38942SOL    HW118723  13.234  14.408   5.198
38942SOL    HW218724  13.181  14.266   5.208
38943SOL     OW18725  14.235   7.397  12.747
38943SOL    HW118726  14.158   7.342  12.762
38943SOL    HW218727  14.225   7.428  12.657
38944SOL     OW18728  10.524  13.361  10.344
38944SOL    HW118729  10.604  13.380  10.393
38944SOL    HW218730  10.554  13.340  10.256
38945SOL     OW18731   8.185  10.018   5.672
38945SOL    HW118732   8.278   9.999   5.663
38945SOL    HW218733   8.169  10.012   5.767
38946SOL     OW18734  11.594   7.466   8.557
38946SOL    HW118735  11.543   7.530   8.506
38946SOL    HW218736  11.603   7.506   8.643
38947SOL     OW18737  11.429  10.755   6.301
38947SOL    HW118738  11.433  10.718   6.389
38947SOL    HW218739  11.451  10.681   6.243
38948SOL     OW18740  13.658   4.321  14.400
38948SOL    HW118741  13.608   4.239  14.399
38948SOL    HW218742  13.599   4.386  14.362
38949SOL     OW18743   8.017  13.379  12.848
38949SOL    HW118744   8.030  13.373  12.943
38949SOL    HW218745   8.061  13.460  12.824
38950SOL     OW18746  12.798   0.915   2.436
38950SOL    HW118747  12.818   0.981   2.502
38950SOL    HW218748  12.802   0.832   2.483
38951SOL     OW18749  12.107  10.108  14.033
38951SOL    HW118750  12.140  10.034  14.085
38951SOL    HW218751  12.184  10.138  13.984
38952SOL     OW18752  13.055   1.940   5.570
38952SOL    HW118753  13.083   1.854   5.541
38952SOL    HW218754  13.135   1.983   5.598
38953SOL     OW18755  10.471   2.240   9.797
38953SOL    HW118756  10.495   2.247   9.889
38953SOL    HW218757  10.410   2.313   9.783
38954SOL     OW18758  13.063   2.186   8.567
38954SOL    HW118759  13.086   2.139   8.647
38954SOL    HW218760  12.972   2.214   8.581
38955SOL     OW18761   8.448   4.618  14.230
38955SOL    HW118762   8.405   4.642  14.311
38955SOL    HW218763   8.501   4.695  14.207
38956SOL     OW18764   8.253  13.532   0.213
38956SOL    HW118765   8.242  13.445   0.251
38956SOL    HW218766   8.250  13.518   0.118
38957SOL     OW18767   2.720   0.167   0.558
38957SOL    HW118768   2.727   0.077   0.591
38957SOL    HW218769   2.672   0.214   0.626
38958SOL     OW18770   8.759   0.962  12.067
38958SOL    HW118771   8.809   0.963  12.148
38958SOL    HW218772   8.671   0.988  12.093
38959SOL     OW18773   9.381  12.987  14.778
38959SOL    HW118774   9.435  13.049  14.826
38959SOL    HW218775   9.425  12.975  14.694
38960SOL     OW18776  11.852  11.982  12.755
38960SOL    HW118777  11.888  11.899  12.786
38960SOL    HW218778  11.920  12.047  12.772
38961SOL     OW18779   8.193   3.479   4.809
38961SOL    HW118780   8.163   3.417   4.742
38961SOL    HW218781   8.136   3.462   4.884
38962SOL     OW18782  12.166   4.512   5.079
38962SOL    HW118783  12.229   4.444   5.102
38962SOL    HW218784  12.197   4.547   4.996
38963SOL     OW18785   9.817  12.896   1.661
38963SOL    HW118786   9.831  12.963   1.593
38963SOL    HW218787   9.727  12.912   1.691
38964SOL     OW18788   7.396  10.203  11.139
38964SOL    HW118789   7.380  10.121  11.092
38964SOL    HW218790   7.483  10.230  11.110
38965SOL     OW18791   1.711  10.681   7.767
38965SOL    HW118792   1.655  10.682   7.845
38965SOL    HW218793   1.649  10.683   7.694
38966SOL     OW18794   8.221   6.400   6.948
38966SOL    HW118795   8.285   6.351   6.897
38966SOL    HW218796   8.266   6.482   6.971
38967SOL     OW18797  11.273   8.042   8.851
38967SOL    HW118798  11.239   7.954   8.870
38967SOL    HW218799  11.196   8.099   8.857
38968SOL     OW18800  14.158   3.762  10.547
38968SOL    HW118801  14.182   3.838  10.600
38968SOL    HW218802  14.088   3.794  10.490
38969SOL     OW18803   6.311  12.767   4.011
38969SOL    HW118804   6.348  12.852   3.986
38969SOL    HW218805   6.361  12.703   3.959
38970SOL     OW18806  12.934  10.226   5.055
38970SOL    HW118807  12.851  10.201   5.014
38970SOL    HW218808  12.927  10.195   5.145
38971SOL     OW18809   0.349   7.840   8.929
38971SOL    HW118810   0.320   7.763   8.879
38971SOL    HW218811   0.284   7.907   8.908
38972SOL     OW18812   8.156  12.669  11.568
38972SOL    HW118813   8.171  12.696  11.659
38972SOL    HW218814   8.206  12.588  11.559
38973SOL     OW18815   4.573  12.692   7.490
38973SOL    HW118816   4.562  12.659   7.579
38973SOL    HW218817   4.586  12.614   7.437
38974SOL     OW18818   5.226   4.973   2.674
38974SOL    HW118819   5.177   5.021   2.607
38974SOL    HW218820   5.301   5.029   2.693
38975SOL     OW18821  13.076  11.107   7.521
38975SOL    HW118822  13.034  11.102   7.607
38975SOL    HW218823  13.004  11.130   7.462
38976SOL     OW18824   9.298   5.248   2.965
38976SOL    HW118825   9.348   5.311   3.016
38976SOL    HW218826   9.297   5.283   2.876
38977SOL     OW18827   3.027   9.542  12.238
38977SOL    HW118828   2.947   9.549  12.289
38977SOL    HW218829   3.061   9.632  12.233
38978SOL     OW18830   9.365   5.903  12.911
38978SOL    HW118831   9.396   5.993  12.901
38978SOL    HW218832   9.306   5.906  12.986
38979SOL     OW18833   1.023   6.718   2.023
38979SOL    HW118834   1.090   6.664   2.066
38979SOL    HW218835   1.040   6.707   1.929
38980SOL     OW18836   8.128   4.566  11.888
38980SOL    HW118837   8.141   4.651  11.846
38980SOL    HW218838   8.179   4.572  11.969
38981SOL     OW18839   5.186  13.140  11.078
38981SOL    HW118840   5.179  13.234  11.090
38981SOL    HW218841   5.265  13.128  11.026
38982SOL     OW18842  10.596   8.039   0.511
38982SOL    HW118843  10.503   8.056   0.497
38982SOL    HW218844  10.610   7.952   0.474
38983SOL     OW18845   3.934   2.344  11.557
38983SOL    HW118846   3.840   2.328  11.561
38983SOL    HW218847   3.968   2.310  11.639
38984SOL     OW18848   9.746  11.273   7.121
38984SOL    HW118849   9.692  11.194   7.113
38984SOL    HW218850   9.800  11.257   7.198
38985SOL     OW18851  13.623   8.387   7.486
38985SOL    HW118852  13.621   8.310   7.542
38985SOL    HW218853  13.554   8.371   7.421
38986SOL     OW18854   6.987  10.885   4.907
38986SOL    HW118855   6.918  10.921   4.852
38986SOL    HW218856   7.015  10.958   4.962
38987SOL     OW18857   9.645  10.028   2.590
38987SOL    HW118858   9.668  10.103   2.646
38987SOL    HW218859   9.660   9.951   2.645
38988SOL     OW18860   2.360   2.225  12.848
38988SOL    HW118861   2.452   2.239  12.871
38988SOL    HW218862   2.347   2.131  12.855
38989SOL     OW18863   0.668   6.385   6.551
38989SOL    HW118864   0.743   6.429   6.510
38989SOL    HW218865   0.670   6.414   6.642
38990SOL     OW18866   8.852   7.137  12.262
38990SOL    HW118867   8.824   7.073  12.327
38990SOL    HW218868   8.940   7.163  12.290
38991SOL     OW18869  12.894   4.838   7.024
38991SOL    HW118870  12.846   4.832   6.942
38991SOL    HW218871  12.984   4.859   6.999
38992SOL     OW18872   1.414   3.715  14.032
38992SOL    HW118873   1.350   3.758  13.975
38992SOL    HW218874   1.450   3.787  14.084
38993SOL     OW18875   3.707   7.594  13.004
38993SOL    HW118876   3.712   7.544  12.922
38993SOL    HW218877   3.770   7.551  13.062
38994SOL     OW18878   9.685   8.068   3.484
38994SOL    HW118879   9.594   8.062   3.513
38994SOL    HW218880   9.692   8.001   3.415
38995SOL     OW18881  10.870   2.759   4.384
38995SOL    HW118882  10.791   2.764   4.439
38995SOL    HW218883  10.840   2.784   4.297
38996SOL     OW18884  11.129  11.548   3.271
38996SOL    HW118885  11.178  11.507   3.342
38996SOL    HW218886  11.196  11.571   3.206
38997SOL     OW18887  10.276   2.952   1.468
38997SOL    HW118888  10.194   2.940   1.421
38997SOL    HW218889  10.341   2.967   1.399
38998SOL     OW18890  11.264   8.705   2.728
38998SOL    HW118891  11.199   8.705   2.799
38998SOL    HW218892  11.341   8.662   2.765
38999SOL     OW18893   7.838   8.125   0.261
38999SOL    HW118894   7.852   8.148   0.169
38999SOL    HW218895   7.922   8.087   0.289
39000SOL     OW18896  14.171   1.473  11.679
39000SOL    HW118897  14.139   1.552  11.722
39000SOL    HW218898  14.187   1.500  11.588
39001SOL     OW18899   4.094   3.015   6.989
39001SOL    HW118900   4.086   3.107   7.013
39001SOL    HW218901   4.024   3.000   6.926
39002SOL     OW18902   9.575   9.340   2.456
39002SOL    HW118903   9.505   9.388   2.499
39002SOL    HW218904   9.536   9.303   2.377
39003SOL     OW18905   0.387   9.682  11.631
39003SOL    HW118906   0.384   9.587  11.620
39003SOL    HW218907   0.297   9.707  11.652
39004SOL     OW18908   0.541   0.300  11.117
39004SOL    HW118909   0.555   0.220  11.066
39004SOL    HW218910   0.626   0.344  11.117
39005SOL     OW18911   3.931   4.766   9.078
39005SOL    HW118912   4.023   4.764   9.050
39005SOL    HW218913   3.883   4.725   9.005
39006SOL     OW18914   0.335   0.294   8.989
39006SOL    HW118915   0.264   0.231   9.002
39006SOL    HW218916   0.410   0.254   9.033
39007SOL     OW18917  14.346   3.005   8.955
39007SOL    HW118918  14.256   2.982   8.978
39007SOL    HW218919  14.373   3.069   9.021
39008SOL     OW18920   0.517  13.545   2.417
39008SOL    HW118921   0.492  13.453   2.416
39008SOL    HW218922   0.613  13.544   2.420
39009SOL     OW18923  14.426   2.770  14.685
39009SOL    HW118924  14.390   2.717  14.757
39009SOL    HW218925  14.517   2.786  14.711
39010SOL     OW18926   4.818  14.855   6.251
39010SOL    HW118927   4.743  14.848   6.311
39010SOL    HW218928   4.880  14.791   6.285
39011SOL     OW18929   5.196   0.102   7.546
39011SOL    HW118930   5.232   0.050   7.475
39011SOL    HW218931   5.253   0.084   7.621
39012SOL     OW18932  11.170   4.461   7.336
39012SOL    HW118933  11.163   4.552   7.306
39012SOL    HW218934  11.244   4.462   7.396
39013SOL     OW18935   3.718  14.423  13.309
39013SOL    HW118936   3.684  14.436  13.220
39013SOL    HW218937   3.810  14.398  13.295
39014SOL     OW18938   7.428   3.756  13.369
39014SOL    HW118939   7.378   3.731  13.292
39014SOL    HW218940   7.470   3.675  13.398
39015SOL     OW18941   6.755  14.621   1.130
39015SOL    HW118942   6.828  14.651   1.184
39015SOL    HW218943   6.763  14.526   1.128
39016SOL     OW18944   4.768  10.105   3.272
39016SOL    HW118945   4.805  10.105   3.184
39016SOL    HW218946   4.683  10.062   3.263
39017SOL     OW18947   3.508   4.987   4.385
39017SOL    HW118948   3.476   4.940   4.308
39017SOL    HW218949   3.504   5.079   4.360
39018SOL     OW18950  10.439  13.828  12.682
39018SOL    HW118951  10.399  13.836  12.769
39018SOL    HW218952  10.370  13.790  12.627
39019SOL     OW18953   8.860   9.611   4.100
39019SOL    HW118954   8.777   9.565   4.113
39019SOL    HW218955   8.836   9.704   4.098
39020SOL     OW18956  11.024   1.284   4.284
39020SOL    HW118957  11.041   1.378   4.274
39020SOL    HW218958  11.112   1.244   4.281
39021SOL     OW18959   8.632  13.059   7.073
39021SOL    HW118960   8.620  12.994   7.142
39021SOL    HW218961   8.706  13.112   7.103
39022SOL     OW18962   4.723   3.713   8.319
39022SOL    HW118963   4.784   3.693   8.248
39022SOL    HW218964   4.676   3.790   8.289
39023SOL     OW18965  12.085   9.705   2.434
39023SOL    HW118966  12.023   9.640   2.400
39023SOL    HW218967  12.166   9.688   2.386
39024SOL     OW18968   1.619   2.276  10.895
39024SOL    HW118969   1.645   2.229  10.815
39024SOL    HW218970   1.693   2.266  10.954
39025SOL     OW18971  10.436   0.161   4.705
39025SOL    HW118972  10.357   0.137   4.655
39025SOL    HW218973  10.508   0.129   4.651
39026SOL     OW18974   3.064   6.451  12.937
39026SOL    HW118975   3.151   6.489  12.944
39026SOL    HW218976   3.074   6.380  12.874
39027SOL     OW18977   7.887  12.161   9.716
39027SOL    HW118978   7.800  12.128   9.692
39027SOL    HW218979   7.944  12.084   9.710
39028SOL     OW18980   4.517  13.007  11.264
39028SOL    HW118981   4.541  12.925  11.307
39028SOL    HW218982   4.599  13.040  11.227
39029SOL     OW18983  11.722   3.857   1.249
39029SOL    HW118984  11.756   3.883   1.335
39029SOL    HW218985  11.673   3.933   1.218
39030SOL     OW18986  11.940   1.627  13.042
39030SOL    HW118987  12.017   1.666  13.001
39030SOL    HW218988  11.930   1.674  13.125
39031SOL     OW18989   8.397   7.805  12.690
39031SOL    HW118990   8.419   7.855  12.611
39031SOL    HW218991   8.454   7.841  12.758
39032SOL     OW18992   5.532   1.152   6.013
39032SOL    HW118993   5.527   1.114   5.925
39032SOL    HW218994   5.477   1.095   6.066
39033SOL     OW18995   6.715  11.384   7.260
39033SOL    HW118996   6.684  11.358   7.347
39033SOL    HW218997   6.761  11.466   7.274
39034SOL     OW18998   9.829  11.422   3.852
39034SOL    HW118999   9.901  11.437   3.790
39034SOL    HW219000   9.769  11.365   3.805
39035SOL     OW19001  13.393  10.827   8.959
39035SOL    HW119002  13.401  10.917   8.990
39035SOL    HW219003  13.317  10.792   9.006
39036SOL     OW19004   4.415   4.801   3.448
39036SOL    HW119005   4.384   4.778   3.360
39036SOL    HW219006   4.492   4.855   3.432
39037SOL     OW19007   0.032   8.846  13.507
39037SOL    HW119008   0.093   8.785  13.465
39037SOL    HW219009   0.086   8.922  13.529
39038SOL     OW19010  10.468   9.239   3.189
39038SOL    HW119011  10.419   9.317   3.164
39038SOL    HW219012  10.408   9.190   3.245
39039SOL     OW19013   9.398   6.937  11.626
39039SOL    HW119014   9.401   6.970  11.715
39039SOL    HW219015   9.314   6.967  11.592
39040SOL     OW19016   0.719   8.478   3.572
39040SOL    HW119017   0.655   8.416   3.606
39040SOL    HW219018   0.724   8.458   3.478
39041SOL     OW19019   4.047  12.030   6.286
39041SOL    HW119020   4.125  12.084   6.273
39041SOL    HW219021   4.079  11.940   6.277
39042SOL     OW19022   9.384   0.519   7.246
39042SOL    HW119023   9.290   0.538   7.244
39042SOL    HW219024   9.410   0.517   7.153
39043SOL     OW19025   8.881  10.468   3.427
39043SOL    HW119026   8.806  10.521   3.456
39043SOL    HW219027   8.883  10.394   3.488
39044SOL     OW19028  14.814   1.722   1.939
39044SOL    HW119029  14.761   1.692   2.013
39044SOL    HW219030  14.750   1.761   1.879
39045SOL     OW19031  10.943   5.337  13.987
39045SOL    HW119032  11.002   5.264  14.001
39045SOL    HW219033  10.901   5.318  13.903
39046SOL     OW19034  11.728   7.871   0.859
39046SOL    HW119035  11.701   7.787   0.820
39046SOL    HW219036  11.654   7.896   0.915
39047SOL     OW19037   1.082   4.914  11.409
39047SOL    HW119038   1.068   4.959  11.325
39047SOL    HW219039   1.015   4.951  11.467
39048SOL     OW19040  14.170  13.399   6.197
39048SOL    HW119041  14.130  13.326   6.244
39048SOL    HW219042  14.190  13.464   6.265
39049SOL     OW19043   8.858  10.446   8.530
39049SOL    HW119044   8.883  10.520   8.476
39049SOL    HW219045   8.803  10.391   8.473
39050SOL     OW19046   1.734   7.899   4.842
39050SOL    HW119047   1.810   7.912   4.786
39050SOL    HW219048   1.660   7.894   4.781
39051SOL     OW19049  13.340  12.460   9.336
39051SOL    HW119050  13.422  12.504   9.314
39051SOL    HW219051  13.313  12.417   9.255
39052SOL     OW19052   7.308   7.669   1.895
39052SOL    HW119053   7.330   7.697   1.806
39052SOL    HW219054   7.387   7.685   1.946
39053SOL     OW19055   3.816  12.957  10.109
39053SOL    HW119056   3.893  12.991  10.155
39053SOL    HW219057   3.745  12.965  10.173
39054SOL     OW19058  10.016   6.688   3.220
39054SOL    HW119059  10.030   6.777   3.189
39054SOL    HW219060  10.066   6.633   3.160
39055SOL     OW19061   0.251   5.208   6.092
39055SOL    HW119062   0.286   5.246   6.173
39055SOL    HW219063   0.326   5.207   6.032
39056SOL     OW19064   8.871   7.158  13.652
39056SOL    HW119065   8.864   7.199  13.739
39056SOL    HW219066   8.903   7.070  13.670
39057SOL     OW19067   4.784   5.014   6.315
39057SOL    HW119068   4.877   5.008   6.295
39057SOL    HW219069   4.770   5.106   6.340
39058SOL     OW19070  12.716  13.074   9.598
39058SOL    HW119071  12.711  13.146   9.661
39058SOL    HW219072  12.624  13.053   9.579
39059SOL     OW19073   1.025   3.427   6.081
39059SOL    HW119074   1.120   3.440   6.078
39059SOL    HW219075   1.015   3.333   6.097
39060SOL     OW19076   9.192   9.037   7.076
39060SOL    HW119077   9.115   9.092   7.087
39060SOL    HW219078   9.263   9.099   7.059
39061SOL     OW19079   2.198  12.581   6.766
39061SOL    HW119080   2.232  12.500   6.728
39061SOL    HW219081   2.169  12.557   6.854
39062SOL     OW19082   3.727  13.145   0.109
39062SOL    HW119083   3.729  13.232   0.069
39062SOL    HW219084   3.693  13.088   0.040
39063SOL     OW19085   7.084   8.830  11.160
39063SOL    HW119086   7.123   8.895  11.102
39063SOL    HW219087   7.075   8.876  11.244
39064SOL     OW19088  13.057   2.118  11.923
39064SOL    HW119089  13.097   2.148  11.841
39064SOL    HW219090  12.963   2.129  11.908
39065SOL     OW19091   9.126  13.320   7.891
39065SOL    HW119092   9.138  13.381   7.964
39065SOL    HW219093   9.063  13.256   7.923
39066SOL     OW19094   2.671   5.977   4.820
39066SOL    HW119095   2.691   5.885   4.806
39066SOL    HW219096   2.709   6.022   4.745
39067SOL     OW19097   9.169  12.741   8.986
39067SOL    HW119098   9.237  12.747   9.054
39067SOL    HW219099   9.087  12.730   9.035
39068SOL     OW19100   8.405   3.173   4.024
39068SOL    HW119101   8.312   3.188   4.041
39068SOL    HW219102   8.451   3.228   4.087
39069SOL     OW19103   3.722   2.168   0.193
39069SOL    HW119104   3.645   2.199   0.145
39069SOL    HW219105   3.757   2.097   0.139
39070SOL     OW19106   2.523   9.922   9.812
39070SOL    HW119107   2.590   9.926   9.880
39070SOL    HW219108   2.566   9.955   9.733
39071SOL     OW19109   7.091  14.441   3.326
39071SOL    HW119110   7.067  14.432   3.234
39071SOL    HW219111   7.177  14.485   3.324
39072SOL     OW19112   5.962   9.492   7.213
39072SOL    HW119113   5.984   9.554   7.143
39072SOL    HW219114   5.943   9.547   7.289
39073SOL     OW19115   2.077   4.602  14.417
39073SOL    HW119116   2.010   4.548  14.457
39073SOL    HW219117   2.108   4.552  14.342
39074SOL     OW19118   2.023   2.351   1.168
39074SOL    HW119119   2.104   2.323   1.212
39074SOL    HW219120   2.039   2.334   1.075
39075SOL     OW19121   6.596  14.863   1.447
39075SOL    HW119122   6.569  14.774   1.469
39075SOL    HW219123   6.639   0.014   1.526
39076SOL     OW19124  10.153   6.138  13.361
39076SOL    HW119125  10.118   6.191  13.432
39076SOL    HW219126  10.243   6.168  13.351
39077SOL     OW19127   2.472  11.231   7.732
39077SOL    HW119128   2.537  11.172   7.694
39077SOL    HW219129   2.523  11.299   7.775
39078SOL     OW19130   2.941   8.483   0.515
39078SOL    HW119131   2.954   8.547   0.585
39078SOL    HW219132   2.913   8.404   0.560
39079SOL     OW19133   8.295   2.539  12.939
39079SOL    HW119134   8.358   2.595  12.893
39079SOL    HW219135   8.304   2.454  12.896
39080SOL     OW19136   3.434   1.845  10.246
39080SOL    HW119137   3.418   1.899  10.168
39080SOL    HW219138   3.377   1.882  10.313
39081SOL     OW19139  10.043   5.755  12.325
39081SOL    HW119140  10.065   5.662  12.327
39081SOL    HW219141  10.115   5.797  12.371
39082SOL     OW19142   6.942   6.641   6.957
39082SOL    HW119143   6.918   6.694   6.881
39082SOL    HW219144   6.898   6.682   7.031
39083SOL     OW19145   1.061   5.213   2.998
39083SOL    HW119146   1.140   5.220   2.944
39083SOL    HW219147   1.029   5.124   2.981
39084SOL     OW19148  11.594   3.190   2.320
39084SOL    HW119149  11.559   3.129   2.385
39084SOL    HW219150  11.689   3.189   2.336
39085SOL     OW19151  11.319  10.356  11.228
39085SOL    HW119152  11.247  10.416  11.209
39085SOL    HW219153  11.329  10.304  11.148
39086SOL     OW19154   8.622   2.537   6.630
39086SOL    HW119155   8.573   2.460   6.602
39086SOL    HW219156   8.712   2.508   6.636
39087SOL     OW19157   0.709   8.300  12.027
39087SOL    HW119158   0.767   8.368  12.063
39087SOL    HW219159   0.635   8.348  11.992
39088SOL     OW19160   3.406   0.500   1.520
39088SOL    HW119161   3.481   0.478   1.464
39088SOL    HW219162   3.436   0.573   1.573
39089SOL     OW19163   8.659   9.655   6.212
39089SOL    HW119164   8.685   9.704   6.290
39089SOL    HW219165   8.619   9.575   6.246
39090SOL     OW19166  10.591  11.218   9.477
39090SOL    HW119167  10.571  11.138   9.429
39090SOL    HW219168  10.520  11.278   9.452
39091SOL     OW19169   6.371  13.348  10.843
39091SOL    HW119170   6.309  13.413  10.812
39091SOL    HW219171   6.335  13.264  10.816
39092SOL     OW19172   4.497   7.189   2.403
39092SOL    HW119173   4.592   7.200   2.400
39092SOL    HW219174   4.482   7.105   2.359
39093SOL     OW19175   0.906   8.478   6.135
39093SOL    HW119176   0.920   8.392   6.175
39093SOL    HW219177   0.991   8.521   6.140
39094SOL     OW19178  12.327  12.596  11.401
39094SOL    HW119179  12.405  12.554  11.366
39094SOL    HW219180  12.315  12.557  11.487
39095SOL     OW19181   7.388   3.348  13.262
39095SOL    HW119182   7.432   3.368  13.344
39095SOL    HW219183   7.317   3.289  13.286
39096SOL     OW19184  14.213   8.713   1.598
39096SOL    HW119185  14.248   8.637   1.644
39096SOL    HW219186  14.163   8.677   1.524
39097SOL     OW19187  14.073  11.626   1.275
39097SOL    HW119188  14.143  11.624   1.340
39097SOL    HW219189  14.092  11.702   1.220
39098SOL     OW19190  12.965   8.257  11.845
39098SOL    HW119191  12.971   8.249  11.750
39098SOL    HW219192  12.883   8.306  11.859
39099SOL     OW19193   0.895   9.474   7.001
39099SOL    HW119194   0.960   9.453   7.068
39099SOL    HW219195   0.825   9.518   7.049
39100SOL     OW19196   1.592  12.584  13.292
39100SOL    HW119197   1.565  12.568  13.201
39100SOL    HW219198   1.685  12.562  13.293
39101SOL     OW19199   1.037   7.845   5.147
39101SOL    HW119200   1.113   7.862   5.203
39101SOL    HW219201   1.073   7.801   5.070
39102SOL     OW19202  10.473  10.920   2.670
39102SOL    HW119203  10.514  10.833   2.673
39102SOL    HW219204  10.489  10.957   2.757
39103SOL     OW19205   3.177   0.331   1.470
39103SOL    HW119206   3.263   0.370   1.481
39103SOL    HW219207   3.194   0.243   1.436
39104SOL     OW19208   6.948   5.446   1.735
39104SOL    HW119209   7.038   5.415   1.722
39104SOL    HW219210   6.937   5.513   1.668
39105SOL     OW19211   3.136  13.092  13.110
39105SOL    HW119212   3.194  13.034  13.159
39105SOL    HW219213   3.054  13.091  13.160
39106SOL     OW19214   5.428   7.950  11.194
39106SOL    HW119215   5.387   7.963  11.280
39106SOL    HW219216   5.356   7.923  11.137
39107SOL     OW19217   0.184   3.424  10.886
39107SOL    HW119218   0.120   3.421  10.957
39107SOL    HW219219   0.241   3.349  10.902
39108SOL     OW19220  14.847   0.234   4.686
39108SOL    HW119221  14.761   0.204   4.656
39108SOL    HW219222   0.024   0.162   4.664
39109SOL     OW19223   5.356  10.211  11.582
39109SOL    HW119224   5.415  10.223  11.508
39109SOL    HW219225   5.309  10.294  11.589
39110SOL     OW19226   1.378  13.190   8.262
39110SOL    HW119227   1.309  13.218   8.202
39110SOL    HW219228   1.361  13.096   8.276
39111SOL     OW19229  10.996  12.963  12.293
39111SOL    HW119230  11.049  12.970  12.372
39111SOL    HW219231  10.919  13.017  12.311
39112SOL     OW19232  10.489  13.974   8.177
39112SOL    HW119233  10.472  14.042   8.112
39112SOL    HW219234  10.436  13.900   8.148
39113SOL     OW19235   0.691   5.069   3.728
39113SOL    HW119236   0.764   5.050   3.670
39113SOL    HW219237   0.715   5.151   3.771
39114SOL     OW19238   2.754  12.642   2.658
39114SOL    HW119239   2.733  12.579   2.589
39114SOL    HW219240   2.834  12.685   2.627
39115SOL     OW19241   6.729   4.293   3.462
39115SOL    HW119242   6.756   4.221   3.518
39115SOL    HW219243   6.650   4.328   3.504
39116SOL     OW19244  10.086   6.145   8.502
39116SOL    HW119245  10.049   6.110   8.421
39116SOL    HW219246  10.151   6.208   8.474
39117SOL     OW19247   3.183   6.703   3.709
39117SOL    HW119248   3.131   6.775   3.745
39117SOL    HW219249   3.184   6.638   3.778
39118SOL     OW19250   0.664   1.260   5.971
39118SOL    HW119251   0.745   1.213   5.992
39118SOL    HW219252   0.604   1.236   6.042
39119SOL     OW19253  14.396   1.872   5.546
39119SOL    HW119254  14.351   1.818   5.482
39119SOL    HW219255  14.488   1.845   5.541
39120SOL     OW19256   8.130   6.403  10.431
39120SOL    HW119257   8.110   6.314  10.461
39120SOL    HW219258   8.072   6.459  10.482
39121SOL     OW19259   6.958  14.047   5.640
39121SOL    HW119260   7.047  14.023   5.613
39121SOL    HW219261   6.945  14.001   5.723
39122SOL     OW19262  13.657   8.737   6.323
39122SOL    HW119263  13.611   8.658   6.352
39122SOL    HW219264  13.641   8.740   6.229
39123SOL     OW19265   5.442   9.355  10.680
39123SOL    HW119266   5.418   9.403  10.601
39123SOL    HW219267   5.490   9.419  10.733
39124SOL     OW19268  13.471  11.989   9.076
39124SOL    HW119269  13.382  11.993   9.041
39124SOL    HW219270  13.524  11.952   9.005
39125SOL     OW19271   8.691   9.528   3.780
39125SOL    HW119272   8.644   9.600   3.822
39125SOL    HW219273   8.641   9.450   3.804
39126SOL     OW19274  11.906   5.849   8.957
39126SOL    HW119275  11.981   5.842   9.018
39126SOL    HW219276  11.845   5.781   8.987
39127SOL     OW19277   4.378   8.377   8.321
39127SOL    HW119278   4.373   8.350   8.412
39127SOL    HW219279   4.400   8.297   8.273
39128SOL     OW19280  11.441   5.326   4.410
39128SOL    HW119281  11.496   5.325   4.332
39128SOL    HW219282  11.500   5.351   4.481
39129SOL     OW19283  14.749   4.505   8.663
39129SOL    HW119284  14.827   4.453   8.640
39129SOL    HW219285  14.735   4.561   8.587
39130SOL     OW19286   5.091  12.361   6.372
39130SOL    HW119287   5.069  12.273   6.405
39130SOL    HW219288   5.008  12.397   6.343
39131SOL     OW19289  11.782  11.615  14.769
39131SOL    HW119290  11.766  11.530  14.811
39131SOL    HW219291  11.748  11.604  14.680
39132SOL     OW19292   1.545   0.712   8.371
39132SOL    HW119293   1.505   0.643   8.318
39132SOL    HW219294   1.591   0.665   8.440
39133SOL     OW19295   5.274   2.587   3.314
39133SOL    HW119296   5.284   2.513   3.374
39133SOL    HW219297   5.193   2.630   3.341
39134SOL     OW19298   3.668   3.976   4.872
39134SOL    HW119299   3.702   3.886   4.872
39134SOL    HW219300   3.634   3.989   4.960
39135SOL     OW19301   0.776   4.783  10.770
39135SOL    HW119302   0.722   4.832  10.709
39135SOL    HW219303   0.858   4.832  10.775
39136SOL     OW19304  10.399   7.389   7.013
39136SOL    HW119305  10.476   7.336   7.036
39136SOL    HW219306  10.409   7.408   6.920
39137SOL     OW19307  11.844   1.858   3.033
39137SOL    HW119308  11.811   1.877   3.121
39137SOL    HW219309  11.882   1.941   3.004
39138SOL     OW19310   6.950   1.491  14.196
39138SOL    HW119311   6.960   1.579  14.158
39138SOL    HW219312   6.922   1.436  14.123
39139SOL     OW19313   1.861  11.035   9.623
39139SOL    HW119314   1.907  11.115   9.648
39139SOL    HW219315   1.809  11.060   9.547
39140SOL     OW19316  10.980   0.764  11.634
39140SOL    HW119317  10.919   0.837  11.626
39140SOL    HW219318  10.928   0.694  11.673
39141SOL     OW19319  14.795   0.704  12.068
39141SOL    HW119320   0.007   0.699  12.086
39141SOL    HW219321  14.758   0.627  12.111
39142SOL     OW19322   7.351   4.972   4.219
39142SOL    HW119323   7.296   5.051   4.213
39142SOL    HW219324   7.295   4.902   4.186
39143SOL     OW19325   3.006   1.706   1.608
39143SOL    HW119326   2.986   1.784   1.660
39143SOL    HW219327   2.987   1.732   1.518
39144SOL     OW19328  13.902   3.205   3.010
39144SOL    HW119329  13.888   3.279   2.952
39144SOL    HW219330  13.815   3.167   3.022
39145SOL     OW19331   2.079   7.977   5.794
39145SOL    HW119332   1.999   7.934   5.824
39145SOL    HW219333   2.068   7.985   5.699
39146SOL     OW19334   2.750   6.922   8.990
39146SOL    HW119335   2.720   6.886   9.073
39146SOL    HW219336   2.827   6.975   9.013
39147SOL     OW19337  10.949   4.421   9.491
39147SOL    HW119338  10.935   4.331   9.518
39147SOL    HW219339  10.943   4.420   9.396
39148SOL     OW19340   0.383   8.486   4.092
39148SOL    HW119341   0.380   8.582   4.099
39148SOL    HW219342   0.291   8.460   4.083
39149SOL     OW19343   9.372  12.371   0.825
39149SOL    HW119344   9.407  12.410   0.745
39149SOL    HW219345   9.278  12.362   0.808
39150SOL     OW19346   8.782  13.213   9.683
39150SOL    HW119347   8.690  13.215   9.657
39150SOL    HW219348   8.811  13.304   9.672
39151SOL     OW19349   3.089   5.573   1.640
39151SOL    HW119350   3.109   5.666   1.651
39151SOL    HW219351   3.175   5.532   1.627
39152SOL     OW19352   9.061  10.097   8.805
39152SOL    HW119353   9.054  10.181   8.759
39152SOL    HW219354   9.097  10.120   8.891
39153SOL     OW19355   8.504  10.538   4.791
39153SOL    HW119356   8.592  10.542   4.830
39153SOL    HW219357   8.448  10.582   4.855
39154SOL     OW19358  11.893  14.778   5.225
39154SOL    HW119359  11.894  14.825   5.142
39154SOL    HW219360  11.985  14.756   5.242
39155SOL     OW19361  11.306   0.323   4.513
39155SOL    HW119362  11.382   0.380   4.507
39155SOL    HW219363  11.333   0.241   4.473
39156SOL     OW19364   1.857  12.455   5.475
39156SOL    HW119365   1.864  12.497   5.389
39156SOL    HW219366   1.806  12.375   5.459
39157SOL     OW19367   7.936  11.488   6.471
39157SOL    HW119368   7.890  11.527   6.546
39157SOL    HW219369   8.016  11.451   6.509
39158SOL     OW19370   4.392   1.629  12.555
39158SOL    HW119371   4.381   1.586  12.469
39158SOL    HW219372   4.330   1.583  12.612
39159SOL     OW19373   8.534  11.964   7.242
39159SOL    HW119374   8.623  11.939   7.268
39159SOL    HW219375   8.547  12.027   7.171
39160SOL     OW19376   4.860  10.628   6.410
39160SOL    HW119377   4.917  10.649   6.484
39160SOL    HW219378   4.919  10.592   6.344
39161SOL     OW19379   1.492   0.026   2.930
39161SOL    HW119380   1.576   0.014   2.974
39161SOL    HW219381   1.505   0.104   2.876
39162SOL     OW19382   8.919   7.488   1.752
39162SOL    HW119383   8.923   7.535   1.835
39162SOL    HW219384   8.938   7.555   1.686
39163SOL     OW19385   9.290   5.526   0.963
39163SOL    HW119386   9.303   5.443   1.009
39163SOL    HW219387   9.266   5.588   1.032
39164SOL     OW19388  11.961  11.920  11.363
39164SOL    HW119389  11.923  11.955  11.282
39164SOL    HW219390  11.905  11.954  11.433
39165SOL     OW19391   5.108   8.264   6.164
39165SOL    HW119392   5.073   8.178   6.186
39165SOL    HW219393   5.076   8.281   6.075
39166SOL     OW19394   0.321   7.564   8.508
39166SOL    HW119395   0.322   7.587   8.415
39166SOL    HW219396   0.275   7.636   8.550
39167SOL     OW19397   8.693  12.474  11.640
39167SOL    HW119398   8.676  12.535  11.712
39167SOL    HW219399   8.636  12.399  11.659
39168SOL     OW19400  13.972   2.533  12.316
39168SOL    HW119401  13.924   2.605  12.356
39168SOL    HW219402  13.939   2.529  12.227
39169SOL     OW19403   4.946   8.492   4.254
39169SOL    HW119404   4.907   8.540   4.181
39169SOL    HW219405   5.025   8.541   4.276
39170SOL     OW19406   0.897   9.610   9.418
39170SOL    HW119407   0.843   9.618   9.496
39170SOL    HW219408   0.987   9.616   9.450
39171SOL     OW19409   9.394  10.751   8.700
39171SOL    HW119410   9.331  10.799   8.753
39171SOL    HW219411   9.357  10.663   8.691
39172SOL     OW19412   8.321   9.621   1.225
39172SOL    HW119413   8.371   9.590   1.149
39172SOL    HW219414   8.235   9.581   1.214
39173SOL     OW19415  11.726   7.416  10.040
39173SOL    HW119416  11.747   7.332  10.000
39173SOL    HW219417  11.775   7.480   9.988
39174SOL     OW19418  10.338  10.465   6.967
39174SOL    HW119419  10.328  10.542   6.910
39174SOL    HW219420  10.275  10.479   7.038
39175SOL     OW19421  11.226   2.966   6.712
39175SOL    HW119422  11.296   3.003   6.659
39175SOL    HW219423  11.197   2.888   6.664
39176SOL     OW19424   5.420   8.518   9.872
39176SOL    HW119425   5.481   8.479   9.935
39176SOL    HW219426   5.473   8.533   9.794
39177SOL     OW19427   9.707   3.608   8.920
39177SOL    HW119428   9.796   3.601   8.957
39177SOL    HW219429   9.721   3.629   8.828
39178SOL     OW19430  14.270  13.378   1.264
39178SOL    HW119431  14.241  13.329   1.341
39178SOL    HW219432  14.313  13.455   1.300
39179SOL     OW19433   3.822  14.330   2.223
39179SOL    HW119434   3.863  14.259   2.272
39179SOL    HW219435   3.753  14.287   2.172
39180SOL     OW19436   2.097   2.075   2.161
39180SOL    HW119437   2.116   2.040   2.248
39180SOL    HW219438   2.143   2.158   2.159
39181SOL     OW19439  11.846  13.331  13.505
39181SOL    HW119440  11.940  13.350  13.504
39181SOL    HW219441  11.815  13.357  13.418
39182SOL     OW19442   2.949   5.010   5.524
39182SOL    HW119443   2.871   5.048   5.563
39182SOL    HW219444   3.010   5.083   5.516
39183SOL     OW19445  12.463   2.463   2.466
39183SOL    HW119446  12.548   2.456   2.510
39183SOL    HW219447  12.462   2.553   2.431
39184SOL     OW19448   7.178   1.529   8.596
39184SOL    HW119449   7.104   1.584   8.570
39184SOL    HW219450   7.216   1.500   8.513
39185SOL     OW19451   7.728   3.347   4.591
39185SOL    HW119452   7.696   3.322   4.677
39185SOL    HW219453   7.755   3.264   4.550
39186SOL     OW19454   2.162   1.751  12.800
39186SOL    HW119455   2.237   1.691  12.800
39186SOL    HW219456   2.152   1.776  12.708
39187SOL     OW19457  10.630   9.081   1.433
39187SOL    HW119458  10.590   9.144   1.493
39187SOL    HW219459  10.567   9.009   1.427
39188SOL     OW19460  12.449  14.794   1.130
39188SOL    HW119461  12.507  14.721   1.154
39188SOL    HW219462  12.417  14.827   1.214
39189SOL     OW19463  12.982   0.729   8.715
39189SOL    HW119464  12.975   0.700   8.805
39189SOL    HW219465  13.075   0.752   8.704
39190SOL     OW19466  11.448   9.567   0.218
39190SOL    HW119467  11.452   9.496   0.282
39190SOL    HW219468  11.519   9.626   0.243
39191SOL     OW19469   2.412   5.372   3.091
39191SOL    HW119470   2.460   5.295   3.122
39191SOL    HW219471   2.455   5.446   3.134
39192SOL     OW19472  14.062   9.256  11.359
39192SOL    HW119473  14.154   9.237  11.339
39192SOL    HW219474  14.059   9.260  11.455
39193SOL     OW19475   7.520   3.937   4.077
39193SOL    HW119476   7.610   3.945   4.111
39193SOL    HW219477   7.496   4.025   4.050
39194SOL     OW19478   9.180   8.241  10.703
39194SOL    HW119479   9.162   8.174  10.770
39194SOL    HW219480   9.097   8.251  10.658
39195SOL     OW19481  13.803   4.613  14.696
39195SOL    HW119482  13.847   4.560  14.762
39195SOL    HW219483  13.772   4.550  14.631
39196SOL     OW19484  10.014   3.579  14.029
39196SOL    HW119485  10.099   3.622  14.034
39196SOL    HW219486   9.951   3.650  14.044
39197SOL     OW19487   0.620  10.083   6.070
39197SOL    HW119488   0.673  10.022   6.019
39197SOL    HW219489   0.569  10.028   6.129
39198SOL     OW19490   0.349   9.866  14.151
39198SOL    HW119491   0.423   9.828  14.104
39198SOL    HW219492   0.286   9.795  14.159
39199SOL     OW19493  14.523  13.420  11.182
39199SOL    HW119494  14.510  13.474  11.104
39199SOL    HW219495  14.611  13.384  11.172
39200SOL     OW19496   7.935   0.663   0.411
39200SOL    HW119497   7.858   0.718   0.426
39200SOL    HW219498   7.996   0.688   0.481
39201SOL     OW19499   8.556  10.958   4.167
39201SOL    HW119500   8.480  10.972   4.222
39201SOL    HW219501   8.589  11.046   4.148
39202SOL     OW19502  13.757   6.584   3.039
39202SOL    HW119503  13.845   6.619   3.028
39202SOL    HW219504  13.701   6.661   3.050
39203SOL     OW19505  13.055   9.775   7.274
39203SOL    HW119506  13.059   9.751   7.366
39203SOL    HW219507  12.978   9.831   7.266
39204SOL     OW19508   9.586   4.276  12.075
39204SOL    HW119509   9.513   4.321  12.115
39204SOL    HW219510   9.593   4.193  12.123
39205SOL     OW19511   1.420   6.183   1.850
39205SOL    HW119512   1.489   6.120   1.831
39205SOL    HW219513   1.450   6.230   1.928
39206SOL     OW19514   8.472   5.010  14.375
39206SOL    HW119515   8.523   5.045  14.448
39206SOL    HW219516   8.417   5.083  14.346
39207SOL     OW19517  11.973  10.738   3.138
39207SOL    HW119518  11.968  10.833   3.129
39207SOL    HW219519  12.007  10.723   3.226
39208SOL     OW19520  13.301  11.979   7.166
39208SOL    HW119521  13.321  12.062   7.123
39208SOL    HW219522  13.378  11.925   7.152
39209SOL     OW19523   3.315  13.976   7.733
39209SOL    HW119524   3.398  14.001   7.693
39209SOL    HW219525   3.319  13.880   7.738
39210SOL     OW19526   9.629   8.233   9.572
39210SOL    HW119527   9.721   8.214   9.589
39210SOL    HW219528   9.610   8.309   9.627
39211SOL     OW19529   5.239  10.774   5.116
39211SOL    HW119530   5.177  10.813   5.056
39211SOL    HW219531   5.217  10.811   5.201
39212SOL     OW19532   9.269   3.949   9.144
39212SOL    HW119533   9.338   3.974   9.205
39212SOL    HW219534   9.202   3.907   9.198
39213SOL     OW19535  12.143   0.960   1.946
39213SOL    HW119536  12.195   0.951   1.866
39213SOL    HW219537  12.207   0.977   2.015
39214SOL     OW19538   8.002   7.844   5.680
39214SOL    HW119539   8.038   7.804   5.601
39214SOL    HW219540   8.066   7.910   5.704
39215SOL     OW19541  10.042  11.624  12.829
39215SOL    HW119542  10.105  11.682  12.787
39215SOL    HW219543  10.080  11.605  12.915
39216SOL     OW19544   2.938   4.890  13.471
39216SOL    HW119545   2.953   4.798  13.491
39216SOL    HW219546   2.957   4.936  13.552
39217SOL     OW19547   5.878   9.613   6.142
39217SOL    HW119548   5.974   9.615   6.148
39217SOL    HW219549   5.848   9.664   6.218
39218SOL     OW19550   6.232   1.527   0.676
39218SOL    HW119551   6.155   1.558   0.725
39218SOL    HW219552   6.277   1.607   0.650
39219SOL     OW19553   6.979   1.702  10.567
39219SOL    HW119554   6.919   1.638  10.529
39219SOL    HW219555   7.063   1.656  10.573
39220SOL     OW19556   8.596   5.146   5.544
39220SOL    HW119557   8.686   5.158   5.573
39220SOL    HW219558   8.566   5.068   5.590
39221SOL     OW19559  10.004   7.989  12.763
39221SOL    HW119560  10.050   8.057  12.812
39221SOL    HW219561  10.071   7.922  12.746
39222SOL     OW19562   5.156  12.046   2.656
39222SOL    HW119563   5.193  12.004   2.733
39222SOL    HW219564   5.136  11.974   2.596
39223SOL     OW19565  10.623   1.365   7.764
39223SOL    HW119566  10.560   1.315   7.711
39223SOL    HW219567  10.605   1.456   7.742
39224SOL     OW19568   1.161   3.937   7.353
39224SOL    HW119569   1.199   3.970   7.272
39224SOL    HW219570   1.076   3.982   7.360
39225SOL     OW19571  11.037   4.309   1.702
39225SOL    HW119572  10.957   4.258   1.688
39225SOL    HW219573  11.097   4.248   1.744
39226SOL     OW19574  11.712   6.204  10.023
39226SOL    HW119575  11.796   6.249  10.033
39226SOL    HW219576  11.718   6.161   9.937
39227SOL     OW19577  13.337   9.713   9.155
39227SOL    HW119578  13.351   9.623   9.125
39227SOL    HW219579  13.416   9.760   9.127
39228SOL     OW19580   0.402   1.952   0.100
39228SOL    HW119581   0.415   1.872   0.050
39228SOL    HW219582   0.314   1.983   0.075
39229SOL     OW19583   4.946   2.033   7.240
39229SOL    HW119584   4.988   1.986   7.312
39229SOL    HW219585   4.962   2.126   7.260
39230SOL     OW19586   2.857  14.497   1.164
39230SOL    HW119587   2.845  14.519   1.072
39230SOL    HW219588   2.889  14.577   1.205
39231SOL     OW19589   1.017  11.326   6.232
39231SOL    HW119590   0.925  11.300   6.243
39231SOL    HW219591   1.052  11.263   6.169
39232SOL     OW19592   5.131  12.807   6.859
39232SOL    HW119593   5.072  12.738   6.889
39232SOL    HW219594   5.109  12.819   6.766
39233SOL     OW19595   2.172   8.745   8.466
39233SOL    HW119596   2.170   8.826   8.416
39233SOL    HW219597   2.262   8.740   8.499
39234SOL     OW19598   0.365   9.314   4.481
39234SOL    HW119599   0.398   9.249   4.544
39234SOL    HW219600   0.397   9.397   4.515
39235SOL     OW19601  14.540   8.757  13.894
39235SOL    HW119602  14.574   8.784  13.809
39235SOL    HW219603  14.594   8.803  13.958
39236SOL     OW19604   0.797  11.414  12.976
39236SOL    HW119605   0.820  11.497  13.018
39236SOL    HW219606   0.706  11.399  13.002
39237SOL     OW19607   5.106  11.915   6.644
39237SOL    HW119608   5.035  11.911   6.708
39237SOL    HW219609   5.124  11.824   6.621
39238SOL     OW19610   2.543   0.566  14.471
39238SOL    HW119611   2.522   0.474  14.486
39238SOL    HW219612   2.504   0.587  14.386
39239SOL     OW19613   1.190  13.278   8.043
39239SOL    HW119614   1.140  13.290   7.962
39239SOL    HW219615   1.282  13.290   8.017
39240SOL     OW19616   4.426  14.664   5.288
39240SOL    HW119617   4.481  14.733   5.324
39240SOL    HW219618   4.367  14.708   5.228
39241SOL     OW19619  12.473  11.583   4.793
39241SOL    HW119620  12.475  11.642   4.869
39241SOL    HW219621  12.388  11.540   4.799
39242SOL     OW19622  10.997   2.351  10.863
39242SOL    HW119623  11.083   2.350  10.906
39242SOL    HW219624  10.952   2.274  10.899
39243SOL     OW19625  13.248   3.319   4.706
39243SOL    HW119626  13.199   3.293   4.628
39243SOL    HW219627  13.181   3.338   4.772
39244SOL     OW19628   3.994  12.943   3.240
39244SOL    HW119629   4.043  12.986   3.309
39244SOL    HW219630   4.028  12.853   3.239
39245SOL     OW19631   9.208   9.523   1.877
39245SOL    HW119632   9.172   9.524   1.788
39245SOL    HW219633   9.234   9.614   1.892
39246SOL     OW19634  12.274   2.354   9.024
39246SOL    HW119635  12.301   2.445   9.035
39246SOL    HW219636  12.183   2.353   9.050
39247SOL     OW19637   5.600   6.244   4.470
39247SOL    HW119638   5.545   6.169   4.447
39247SOL    HW219639   5.649   6.215   4.546
39248SOL     OW19640  12.968   7.585   3.256
39248SOL    HW119641  12.901   7.652   3.245
39248SOL    HW219642  12.943   7.516   3.194
39249SOL     OW19643   4.991   3.819   2.160
39249SOL    HW119644   5.069   3.798   2.110
39249SOL    HW219645   5.017   3.807   2.251
39250SOL     OW19646   6.387  13.896  14.451
39250SOL    HW119647   6.297  13.882  14.423
39250SOL    HW219648   6.397  13.991  14.452
39251SOL     OW19649   4.663   5.079  13.264
39251SOL    HW119650   4.682   5.119  13.180
39251SOL    HW219651   4.569   5.060  13.262
39252SOL     OW19652  12.031  12.101   1.134
39252SOL    HW119653  12.049  12.100   1.040
39252SOL    HW219654  12.117  12.108   1.176
39253SOL     OW19655   8.453   6.930   8.518
39253SOL    HW119656   8.510   6.994   8.560
39253SOL    HW219657   8.413   6.977   8.445
39254SOL     OW19658   7.825   3.615   1.872
39254SOL    HW119659   7.871   3.676   1.813
39254SOL    HW219660   7.832   3.530   1.829
39255SOL     OW19661  10.177   6.484   1.289
39255SOL    HW119662  10.110   6.435   1.241
39255SOL    HW219663  10.162   6.575   1.265
39256SOL     OW19664   9.977   9.466   2.991
39256SOL    HW119665   9.910   9.494   3.054
39256SOL    HW219666   9.971   9.371   2.989
39257SOL     OW19667   2.144  13.007   1.769
39257SOL    HW119668   2.109  12.974   1.686
39257SOL    HW219669   2.179  12.929   1.812
39258SOL     OW19670   5.776   0.519   7.695
39258SOL    HW119671   5.840   0.589   7.709
39258SOL    HW219672   5.704   0.560   7.648
39259SOL     OW19673  10.831   4.649   5.271
39259SOL    HW119674  10.864   4.571   5.227
39259SOL    HW219675  10.907   4.706   5.278
39260SOL     OW19676   4.663  11.484   5.491
39260SOL    HW119677   4.758  11.473   5.489
39260SOL    HW219678   4.632  11.412   5.545
39261SOL     OW19679  13.054  14.278  11.673
39261SOL    HW119680  13.096  14.356  11.637
39261SOL    HW219681  12.999  14.311  11.744
39262SOL     OW19682  13.173   6.608  10.274
39262SOL    HW119683  13.082   6.583  10.290
39262SOL    HW219684  13.190   6.581  10.183
39263SOL     OW19685   9.897   3.861   0.248
39263SOL    HW119686   9.954   3.876   0.173
39263SOL    HW219687   9.832   3.932   0.243
39264SOL     OW19688  14.826  12.398  12.861
39264SOL    HW119689  14.820  12.468  12.795
39264SOL    HW219690  14.870  12.326  12.816
39265SOL     OW19691  10.133  10.877   3.229
39265SOL    HW119692  10.151  10.926   3.148
39265SOL    HW219693  10.048  10.911   3.259
39266SOL     OW19694   1.885   5.355   7.230
39266SOL    HW119695   1.964   5.302   7.215
39266SOL    HW219696   1.815   5.305   7.188
39267SOL     OW19697   3.786   0.741  11.614
39267SOL    HW119698   3.783   0.707  11.703
39267SOL    HW219699   3.699   0.722  11.578
39268SOL     OW19700   4.517  11.141   5.993
39268SOL    HW119701   4.611  11.124   5.982
39268SOL    HW219702   4.490  11.183   5.911
39269SOL     OW19703   6.929   7.478   4.135
39269SOL    HW119704   6.935   7.500   4.228
39269SOL    HW219705   7.015   7.444   4.113
39270SOL     OW19706   9.706  13.658  13.247
39270SOL    HW119707   9.637  13.617  13.299
39270SOL    HW219708   9.784  13.607  13.267
39271SOL     OW19709   1.176   4.675  10.609
39271SOL    HW119710   1.081   4.689  10.615
39271SOL    HW219711   1.197   4.623  10.686
39272SOL     OW19712   6.480  13.978  14.137
39272SOL    HW119713   6.389  13.949  14.135
39272SOL    HW219714   6.485  14.047  14.071
39273SOL     OW19715  12.158   2.623  13.967
39273SOL    HW119716  12.247   2.600  13.996
39273SOL    HW219717  12.112   2.646  14.048
39274SOL     OW19718   8.558   9.774   5.880
39274SOL    HW119719   8.630   9.714   5.900
39274SOL    HW219720   8.488   9.748   5.940
39275SOL     OW19721   8.124   9.189   1.195
39275SOL    HW119722   8.046   9.177   1.142
39275SOL    HW219723   8.101   9.153   1.280
39276SOL     OW19724   9.416   2.847   4.134
39276SOL    HW119725   9.461   2.782   4.081
39276SOL    HW219726   9.366   2.899   4.071
39277SOL     OW19727   0.975   5.664  14.847
39277SOL    HW119728   0.928   5.635   0.043
39277SOL    HW219729   1.053   5.709  14.881
39278SOL     OW19730   6.717   0.723  11.134
39278SOL    HW119731   6.771   0.655  11.174
39278SOL    HW219732   6.628   0.688  11.135
39279SOL     OW19733   6.526   9.415   9.194
39279SOL    HW119734   6.551   9.457   9.112
39279SOL    HW219735   6.582   9.455   9.260
39280SOL     OW19736   0.821   5.270   1.126
39280SOL    HW119737   0.773   5.322   1.061
39280SOL    HW219738   0.864   5.201   1.075
39281SOL     OW19739  13.009  12.140   3.637
39281SOL    HW119740  13.058  12.061   3.659
39281SOL    HW219741  12.943  12.147   3.706
39282SOL     OW19742   5.486   7.063  13.760
39282SOL    HW119743   5.554   7.126  13.783
39282SOL    HW219744   5.532   6.979  13.755
39283SOL     OW19745   9.839   3.208  13.834
39283SOL    HW119746   9.821   3.302  13.828
39283SOL    HW219747   9.762   3.171  13.878
39284SOL     OW19748   1.047   0.996  13.228
39284SOL    HW119749   1.123   1.053  13.241
39284SOL    HW219750   1.083   0.907  13.237
39285SOL     OW19751   4.012   2.458  10.732
39285SOL    HW119752   4.011   2.509  10.813
39285SOL    HW219753   3.922   2.462  10.700
39286SOL     OW19754   8.139   1.837  13.940
39286SOL    HW119755   8.219   1.862  13.987
39286SOL    HW219756   8.081   1.913  13.951
39287SOL     OW19757  11.388   7.853   5.386
39287SOL    HW119758  11.482   7.852   5.367
39287SOL    HW219759  11.379   7.918   5.455
39288SOL     OW19760  12.734   4.727   5.206
39288SOL    HW119761  12.747   4.692   5.294
39288SOL    HW219762  12.807   4.692   5.155
39289SOL     OW19763   2.472   1.773  11.064
39289SOL    HW119764   2.551   1.819  11.036
39289SOL    HW219765   2.482   1.685  11.029
39290SOL     OW19766  13.517   9.707   8.661
39290SOL    HW119767  13.441   9.649   8.660
39290SOL    HW219768  13.552   9.702   8.572
39291SOL     OW19769   8.966  13.485  14.263
39291SOL    HW119770   8.893  13.494  14.325
39291SOL    HW219771   8.975  13.573  14.226
39292SOL     OW19772   8.381  12.675   8.212
39292SOL    HW119773   8.384  12.719   8.127
39292SOL    HW219774   8.426  12.735   8.271
39293SOL     OW19775   6.418   1.706   3.014
39293SOL    HW119776   6.378   1.775   2.961
39293SOL    HW219777   6.482   1.752   3.068
39294SOL     OW19778   7.578   2.124  12.244
39294SOL    HW119779   7.638   2.080  12.304
39294SOL    HW219780   7.492   2.117  12.287
39295SOL     OW19781   6.766   4.264  13.850
39295SOL    HW119782   6.854   4.279  13.886
39295SOL    HW219783   6.707   4.294  13.919
39296SOL     OW19784   3.607  12.291   0.698
39296SOL    HW119785   3.578  12.257   0.613
39296SOL    HW219786   3.634  12.381   0.680
39297SOL     OW19787  11.111  11.273   8.856
39297SOL    HW119788  11.080  11.239   8.772
39297SOL    HW219789  11.081  11.364   8.858
39298SOL     OW19790   7.839  11.692   4.403
39298SOL    HW119791   7.899  11.720   4.473
39298SOL    HW219792   7.897  11.675   4.328
39299SOL     OW19793   3.933  11.692  10.196
39299SOL    HW119794   3.873  11.628  10.233
39299SOL    HW219795   3.879  11.769  10.180
39300SOL     OW19796   8.982   8.388   2.834
39300SOL    HW119797   8.978   8.399   2.929
39300SOL    HW219798   9.046   8.319   2.820
39301SOL     OW19799   6.656   6.351   6.109
39301SOL    HW119800   6.688   6.437   6.083
39301SOL    HW219801   6.560   6.361   6.111
39302SOL     OW19802   8.582   2.721   1.095
39302SOL    HW119803   8.566   2.638   1.140
39302SOL    HW219804   8.516   2.724   1.027
39303SOL     OW19805  14.370   1.552   4.206
39303SOL    HW119806  14.296   1.579   4.152
39303SOL    HW219807  14.401   1.471   4.166
39304SOL     OW19808   5.048   8.284   6.791
39304SOL    HW119809   5.069   8.223   6.720
39304SOL    HW219810   5.133   8.313   6.824
39305SOL     OW19811  10.277   8.739   0.714
39305SOL    HW119812  10.309   8.649   0.706
39305SOL    HW219813  10.184   8.733   0.690
39306SOL     OW19814   8.791   9.314  11.515
39306SOL    HW119815   8.779   9.261  11.593
39306SOL    HW219816   8.869   9.367  11.533
39307SOL     OW19817   9.394  14.422  14.536
39307SOL    HW119818   9.402  14.447  14.444
39307SOL    HW219819   9.342  14.341  14.534
39308SOL     OW19820  10.320   0.720   2.059
39308SOL    HW119821  10.353   0.810   2.067
39308SOL    HW219822  10.265   0.722   1.980
39309SOL     OW19823  13.073   2.727   2.874
39309SOL    HW119824  13.105   2.816   2.892
39309SOL    HW219825  12.978   2.733   2.886
39310SOL     OW19826  10.236   0.820   9.439
39310SOL    HW119827  10.235   0.763   9.362
39310SOL    HW219828  10.263   0.905   9.405
39311SOL     OW19829   9.333   0.701  11.937
39311SOL    HW119830   9.247   0.689  11.896
39311SOL    HW219831   9.335   0.634  12.006
39312SOL     OW19832   6.798  13.613   2.390
39312SOL    HW119833   6.737  13.685   2.407
39312SOL    HW219834   6.822  13.581   2.477
39313SOL     OW19835   8.676   7.488  10.445
39313SOL    HW119836   8.679   7.426  10.372
39313SOL    HW219837   8.586   7.482  10.478
39314SOL     OW19838  14.105  11.007   5.729
39314SOL    HW119839  14.083  11.089   5.773
39314SOL    HW219840  14.067  10.939   5.784
39315SOL     OW19841  13.238   2.150   0.308
39315SOL    HW119842  13.245   2.057   0.332
39315SOL    HW219843  13.243   2.196   0.391
39316SOL     OW19844   1.569   6.838   1.865
39316SOL    HW119845   1.581   6.745   1.846
39316SOL    HW219846   1.631   6.856   1.937
39317SOL     OW19847   4.101   2.372  13.318
39317SOL    HW119848   4.114   2.412  13.232
39317SOL    HW219849   4.147   2.288  13.313
39318SOL     OW19850   5.906   4.316   1.325
39318SOL    HW119851   5.982   4.337   1.272
39318SOL    HW219852   5.843   4.386   1.306
39319SOL     OW19853   3.758  11.057   0.853
39319SOL    HW119854   3.733  11.013   0.934
39319SOL    HW219855   3.850  11.081   0.866
39320SOL     OW19856   7.107  13.631   7.383
39320SOL    HW119857   7.093  13.664   7.471
39320SOL    HW219858   7.026  13.653   7.336
39321SOL     OW19859   7.276   5.383  10.844
39321SOL    HW119860   7.353   5.419  10.887
39321SOL    HW219861   7.204   5.402  10.905
39322SOL     OW19862   1.966  10.320   8.600
39322SOL    HW119863   2.033  10.388   8.608
39322SOL    HW219864   1.887  10.362   8.634
39323SOL     OW19865   7.919   4.994   5.679
39323SOL    HW119866   7.830   4.959   5.674
39323SOL    HW219867   7.922   5.040   5.763
39324SOL     OW19868   0.078   2.936   3.851
39324SOL    HW119869   0.137   3.003   3.885
39324SOL    HW219870   0.069   2.956   3.758
39325SOL     OW19871   4.207   9.337  11.722
39325SOL    HW119872   4.229   9.428  11.741
39325SOL    HW219873   4.169   9.304  11.803
39326SOL     OW19874  12.224   7.375  12.229
39326SOL    HW119875  12.298   7.403  12.176
39326SOL    HW219876  12.156   7.440  12.212
39327SOL     OW19877  13.298  11.770   6.481
39327SOL    HW119878  13.245  11.700   6.440
39327SOL    HW219879  13.319  11.829   6.409
39328SOL     OW19880  13.933  12.973   3.140
39328SOL    HW119881  13.939  12.885   3.175
39328SOL    HW219882  13.869  13.018   3.196
39329SOL     OW19883   9.252   2.220  11.747
39329SOL    HW119884   9.248   2.198  11.840
39329SOL    HW219885   9.344   2.206  11.723
39330SOL     OW19886   6.734   4.588   7.124
39330SOL    HW119887   6.673   4.617   7.192
39330SOL    HW219888   6.763   4.669   7.083
39331SOL     OW19889   2.642   5.091   8.541
39331SOL    HW119890   2.565   5.034   8.544
39331SOL    HW219891   2.694   5.057   8.468
39332SOL     OW19892  12.922   6.566   4.839
39332SOL    HW119893  12.861   6.493   4.843
39332SOL    HW219894  12.935   6.592   4.930
39333SOL     OW19895  13.101  14.501  12.974
39333SOL    HW119896  13.164  14.445  12.929
39333SOL    HW219897  13.073  14.449  13.050
39334SOL     OW19898   1.996   8.595  12.436
39334SOL    HW119899   1.910   8.623  12.404
39334SOL    HW219900   1.976   8.544  12.515
39335SOL     OW19901   5.512  14.166  10.472
39335SOL    HW119902   5.460  14.102  10.522
39335SOL    HW219903   5.453  14.240  10.460
39336SOL     OW19904   5.514   1.819   5.491
39336SOL    HW119905   5.435   1.825   5.437
39336SOL    HW219906   5.532   1.909   5.516
39337SOL     OW19907   6.626   0.510  10.833
39337SOL    HW119908   6.691   0.550  10.776
39337SOL    HW219909   6.561   0.473  10.774
39338SOL     OW19910   2.289   1.043   6.319
39338SOL    HW119911   2.384   1.050   6.313
39338SOL    HW219912   2.259   1.133   6.330
39339SOL     OW19913   5.141   6.060   7.724
39339SOL    HW119914   5.121   6.097   7.638
39339SOL    HW219915   5.079   5.988   7.734
39340SOL     OW19916  13.216   7.956   3.893
39340SOL    HW119917  13.184   7.962   3.983
39340SOL    HW219918  13.201   7.864   3.868
39341SOL     OW19919   0.045   5.210   7.686
39341SOL    HW119920   0.003   5.291   7.655
39341SOL    HW219921   0.094   5.237   7.764
39342SOL     OW19922   5.556  12.305   8.163
39342SOL    HW119923   5.559  12.220   8.118
39342SOL    HW219924   5.558  12.370   8.093
39343SOL     OW19925  14.325   8.230   5.727
39343SOL    HW119926  14.342   8.313   5.683
39343SOL    HW219927  14.357   8.164   5.666
39344SOL     OW19928   5.008   7.117   4.496
39344SOL    HW119929   4.996   7.211   4.508
39344SOL    HW219930   5.034   7.085   4.583
39345SOL     OW19931  11.754  14.351  12.336
39345SOL    HW119932  11.724  14.368  12.246
39345SOL    HW219933  11.784  14.437  12.368
39346SOL     OW19934   4.685   0.739   2.564
39346SOL    HW119935   4.710   0.727   2.472
39346SOL    HW219936   4.650   0.828   2.567
39347SOL     OW19937   4.447   6.416   4.067
39347SOL    HW119938   4.456   6.434   4.161
39347SOL    HW219939   4.446   6.502   4.026
39348SOL     OW19940   7.798   4.558  12.082
39348SOL    HW119941   7.881   4.511  12.092
39348SOL    HW219942   7.742   4.496  12.036
39349SOL     OW19943  13.342   9.374   6.407
39349SOL    HW119944  13.279   9.316   6.365
39349SOL    HW219945  13.350   9.448   6.348
39350SOL     OW19946   1.658   7.277   7.332
39350SOL    HW119947   1.655   7.191   7.289
39350SOL    HW219948   1.749   7.305   7.322
39351SOL     OW19949  14.204   8.911  10.029
39351SOL    HW119950  14.168   8.970  10.095
39351SOL    HW219951  14.287   8.880  10.067
39352SOL     OW19952  13.510   3.249  11.160
39352SOL    HW119953  13.499   3.186  11.232
39352SOL    HW219954  13.604   3.264  11.157
39353SOL     OW19955   5.253  14.515  14.386
39353SOL    HW119956   5.197  14.561  14.448
39353SOL    HW219957   5.257  14.426  14.420
39354SOL     OW19958   7.299   8.964   1.663
39354SOL    HW119959   7.232   8.953   1.595
39354SOL    HW219960   7.380   8.936   1.621
39355SOL     OW19961   8.258   0.496  13.125
39355SOL    HW119962   8.269   0.413  13.171
39355SOL    HW219963   8.281   0.562  13.191
39356SOL     OW19964  12.200   8.158   1.955
39356SOL    HW119965  12.286   8.197   1.941
39356SOL    HW219966  12.197   8.141   2.049
39357SOL     OW19967   6.713   9.466   2.815
39357SOL    HW119968   6.768   9.541   2.839
39357SOL    HW219969   6.642   9.466   2.879
39358SOL     OW19970  14.527   2.728   2.195
39358SOL    HW119971  14.600   2.746   2.255
39358SOL    HW219972  14.512   2.812   2.151
39359SOL     OW19973   8.227   8.984   2.603
39359SOL    HW119974   8.223   9.023   2.516
39359SOL    HW219975   8.281   8.906   2.592
39360SOL     OW19976   3.083   2.026  14.568
39360SOL    HW119977   3.050   2.012  14.656
39360SOL    HW219978   3.004   2.040  14.515
39361SOL     OW19979   0.985   1.103   7.865
39361SOL    HW119980   0.944   1.188   7.848
39361SOL    HW219981   0.970   1.087   7.958
39362SOL     OW19982   3.984   4.829   3.543
39362SOL    HW119983   4.072   4.833   3.579
39362SOL    HW219984   3.993   4.777   3.463
39363SOL     OW19985  14.365  13.977   9.039
39363SOL    HW119986  14.428  13.980   9.111
39363SOL    HW219987  14.340  14.068   9.026
39364SOL     OW19988  11.686   3.648   6.460
39364SOL    HW119989  11.627   3.653   6.535
39364SOL    HW219990  11.641   3.591   6.398
39365SOL     OW19991  13.875  12.513   9.428
39365SOL    HW119992  13.910  12.538   9.342
39365SOL    HW219993  13.885  12.592   9.481
39366SOL     OW19994   0.556  10.995  11.370
39366SOL    HW119995   0.476  11.048  11.379
39366SOL    HW219996   0.533  10.910  11.408
39367SOL     OW19997   9.025  13.210   6.045
39367SOL    HW119998   8.982  13.293   6.024
39367SOL    HW219999   8.967  13.143   6.008
39368SOL     OW20000   5.665  14.595   9.617
39368SOL    HW120001   5.601  14.655   9.656
39368SOL    HW220002   5.622  14.510   9.621
39369SOL     OW20003  11.225   1.966  10.538
39369SOL    HW120004  11.182   1.932  10.616
39369SOL    HW220005  11.201   2.059  10.536
39370SOL     OW20006   0.950   1.905   8.416
39370SOL    HW120007   0.918   1.849   8.486
39370SOL    HW220008   1.044   1.915   8.434
39371SOL     OW20009  10.352   4.654  14.854
39371SOL    HW120010  10.427   4.671  14.797
39371SOL    HW220011  10.311   4.739  14.868
39372SOL     OW20012   8.639   5.091  12.270
39372SOL    HW120013   8.663   5.034  12.197
39372SOL    HW220014   8.710   5.081  12.333
39373SOL     OW20015   1.842  13.182  11.099
39373SOL    HW120016   1.768  13.170  11.039
39373SOL    HW220017   1.916  13.139  11.055
39374SOL     OW20018  11.647   0.203   8.694
39374SOL    HW120019  11.719   0.262   8.715
39374SOL    HW220020  11.687   0.116   8.690
39375SOL     OW20021   9.702   9.448   9.260
39375SOL    HW120022   9.771   9.510   9.236
39375SOL    HW220023   9.627   9.474   9.205
39376SOL     OW20024   8.803  14.490   1.674
39376SOL    HW120025   8.876  14.469   1.732
39376SOL    HW220026   8.741  14.418   1.687
39377SOL     OW20027   2.596   1.201  13.185
39377SOL    HW120028   2.527   1.140  13.159
39377SOL    HW220029   2.568   1.234  13.271
39378SOL     OW20030   1.884  13.084   1.147
39378SOL    HW120031   1.938  13.106   1.222
39378SOL    HW220032   1.858  13.168   1.110
39379SOL     OW20033   4.971  12.257   4.895
39379SOL    HW120034   4.925  12.216   4.823
39379SOL    HW220035   5.045  12.301   4.854
39380SOL     OW20036  11.520   0.712   1.126
39380SOL    HW120037  11.481   0.718   1.213
39380SOL    HW220038  11.523   0.619   1.107
39381SOL     OW20039  14.520  14.203   9.486
39381SOL    HW120040  14.560  14.121   9.457
39381SOL    HW220041  14.436  14.206   9.439
39382SOL     OW20042  12.743  12.255   5.066
39382SOL    HW120043  12.669  12.208   5.105
39382SOL    HW220044  12.758  12.211   4.982
39383SOL     OW20045  10.351  14.262   9.807
39383SOL    HW120046  10.400  14.267   9.725
39383SOL    HW220047  10.373  14.343   9.853
39384SOL     OW20048   8.822   7.491  11.344
39384SOL    HW120049   8.873   7.571  11.355
39384SOL    HW220050   8.731   7.520  11.343
39385SOL     OW20051  12.123   8.364   5.979
39385SOL    HW120052  12.072   8.330   5.906
39385SOL    HW220053  12.089   8.452   5.994
39386SOL     OW20054   4.555   0.221  11.703
39386SOL    HW120055   4.636   0.182  11.736
39386SOL    HW220056   4.579   0.309  11.676
39387SOL     OW20057   8.059   5.712   8.733
39387SOL    HW120058   8.043   5.618   8.736
39387SOL    HW220059   7.975   5.752   8.754
39388SOL     OW20060   5.830   8.448  10.852
39388SOL    HW120061   5.920   8.447  10.887
39388SOL    HW220062   5.840   8.426  10.760
39389SOL     OW20063   1.474  10.796   8.589
39389SOL    HW120064   1.545  10.744   8.550
39389SOL    HW220065   1.511  10.829   8.670
39390SOL     OW20066  14.260   4.649   3.832
39390SOL    HW120067  14.320   4.578   3.855
39390SOL    HW220068  14.266   4.710   3.905
39391SOL     OW20069  14.249   2.317   4.534
39391SOL    HW120070  14.331   2.313   4.583
39391SOL    HW220071  14.238   2.229   4.498
39392SOL     OW20072   4.451   4.413   2.463
39392SOL    HW120073   4.428   4.322   2.482
39392SOL    HW220074   4.534   4.407   2.415
39393SOL     OW20075   5.956  14.800   7.992
39393SOL    HW120076   6.038  14.788   8.041
39393SOL    HW220077   5.943   0.013   7.991
39394SOL     OW20078   9.922   2.306   0.750
39394SOL    HW120079   9.924   2.287   0.656
39394SOL    HW220080  10.011   2.336   0.771
39395SOL     OW20081  11.581  12.298   8.143
39395SOL    HW120082  11.545  12.293   8.231
39395SOL    HW220083  11.549  12.381   8.108
39396SOL     OW20084   1.172   0.892   0.755
39396SOL    HW120085   1.126   0.904   0.672
39396SOL    HW220086   1.128   0.818   0.796
39397SOL     OW20087  12.597   4.156  12.629
39397SOL    HW120088  12.691   4.165  12.647
39397SOL    HW220089  12.568   4.088  12.690
39398SOL     OW20090  14.620   1.176   9.302
39398SOL    HW120091  14.538   1.202   9.343
39398SOL    HW220092  14.610   1.197   9.210
39399SOL     OW20093  12.147   0.603   4.025
39399SOL    HW120094  12.164   0.569   3.937
39399SOL    HW220095  12.144   0.698   4.014
39400SOL     OW20096   3.518   2.307  10.783
39400SOL    HW120097   3.570   2.275  10.709
39400SOL    HW220098   3.573   2.292  10.860
39401SOL     OW20099   1.742   3.759   0.590
39401SOL    HW120100   1.726   3.848   0.560
39401SOL    HW220101   1.693   3.704   0.530
39402SOL     OW20102   1.297  13.417  13.573
39402SOL    HW120103   1.234  13.474  13.617
39402SOL    HW220104   1.261  13.405  13.485
39403SOL     OW20105   6.340  12.103  13.815
39403SOL    HW120106   6.326  12.172  13.751
39403SOL    HW220107   6.422  12.061  13.788
39404SOL     OW20108   3.330  13.464   6.785
39404SOL    HW120109   3.379  13.429   6.859
39404SOL    HW220110   3.248  13.415   6.784
39405SOL     OW20111  12.533   7.374  10.908
39405SOL    HW120112  12.521   7.386  10.814
39405SOL    HW220113  12.522   7.280  10.922
39406SOL     OW20114   0.318   7.438  13.966
39406SOL    HW120115   0.254   7.497  13.926
39406SOL    HW220116   0.341   7.376  13.897
39407SOL     OW20117   1.003   7.583  12.441
39407SOL    HW120118   0.951   7.566  12.520
39407SOL    HW220119   1.089   7.547  12.461
39408SOL     OW20120   6.693   5.780   1.409
39408SOL    HW120121   6.778   5.762   1.448
39408SOL    HW220122   6.639   5.813   1.481
39409SOL     OW20123   4.711  11.673   8.501
39409SOL    HW120124   4.722  11.764   8.476
39409SOL    HW220125   4.618  11.654   8.487
39410SOL     OW20126  13.727   7.032   1.756
39410SOL    HW120127  13.728   6.958   1.817
39410SOL    HW220128  13.645   7.077   1.774
39411SOL     OW20129  14.750  10.195   3.459
39411SOL    HW120130  14.677  10.162   3.408
39411SOL    HW220131  14.827  10.181   3.403
39412SOL     OW20132   2.650   0.753  13.325
39412SOL    HW120133   2.725   0.735  13.381
39412SOL    HW220134   2.578   0.772  13.385
39413SOL     OW20135  12.334   0.940   9.746
39413SOL    HW120136  12.290   1.018   9.781
39413SOL    HW220137  12.427   0.957   9.762
39414SOL     OW20138  14.599   6.383   8.055
39414SOL    HW120139  14.605   6.334   8.137
39414SOL    HW220140  14.506   6.389   8.037
39415SOL     OW20141   5.863  12.161  10.913
39415SOL    HW120142   5.919  12.235  10.938
39415SOL    HW220143   5.924  12.088  10.903
39416SOL     OW20144   0.942   6.178   3.711
39416SOL    HW120145   0.958   6.106   3.773
39416SOL    HW220146   0.854   6.163   3.679
39417SOL     OW20147  12.285  12.483  10.091
39417SOL    HW120148  12.235  12.545  10.145
39417SOL    HW220149  12.232  12.404  10.090
39418SOL     OW20150  12.037   8.311  13.362
39418SOL    HW120151  12.011   8.219  13.350
39418SOL    HW220152  12.113   8.306  13.420
39419SOL     OW20153   1.842  12.056   6.554
39419SOL    HW120154   1.840  11.967   6.517
39419SOL    HW220155   1.823  12.043   6.647
39420SOL     OW20156   0.604  12.208   7.514
39420SOL    HW120157   0.557  12.175   7.591
39420SOL    HW220158   0.544  12.272   7.476
39421SOL     OW20159  12.878   4.410  14.227
39421SOL    HW120160  12.843   4.347  14.289
39421SOL    HW220161  12.906   4.358  14.152
39422SOL     OW20162  11.108   2.302   4.966
39422SOL    HW120163  11.030   2.253   4.938
39422SOL    HW220164  11.128   2.360   4.893
39423SOL     OW20165  12.473   4.648  14.824
39423SOL    HW120166  12.534   4.675   0.011
39423SOL    HW220167  12.476   4.719  14.760
39424SOL     OW20168   2.982   6.045   2.914
39424SOL    HW120169   3.060   5.992   2.899
39424SOL    HW220170   2.931   6.037   2.834
39425SOL     OW20171  11.976  10.746   0.324
39425SOL    HW120172  11.918  10.696   0.265
39425SOL    HW220173  11.928  10.826   0.343
39426SOL     OW20174   3.189   5.790   5.089
39426SOL    HW120175   3.158   5.770   5.177
39426SOL    HW220176   3.113   5.827   5.044
39427SOL     OW20177   1.478   7.235   1.072
39427SOL    HW120178   1.537   7.294   1.120
39427SOL    HW220179   1.481   7.153   1.122
39428SOL     OW20180  10.497  10.582   2.396
39428SOL    HW120181  10.480  10.548   2.484
39428SOL    HW220182  10.410  10.604   2.362
39429SOL     OW20183   4.374   7.770  10.125
39429SOL    HW120184   4.414   7.857  10.132
39429SOL    HW220185   4.308   7.768  10.193
39430SOL     OW20186   0.920  13.013  14.463
39430SOL    HW120187   1.004  13.036  14.423
39430SOL    HW220188   0.859  13.010  14.389
39431SOL     OW20189   0.957   3.224  11.906
39431SOL    HW120190   0.984   3.133  11.901
39431SOL    HW220191   0.911   3.240  11.824
39432SOL     OW20192   2.888   7.258  14.873
39432SOL    HW120193   2.828   7.194  14.836
39432SOL    HW220194   2.940   7.208   0.054
39433SOL     OW20195   2.388   4.893   7.836
39433SOL    HW120196   2.413   4.973   7.790
39433SOL    HW220197   2.349   4.923   7.918
39434SOL     OW20198   3.399   4.083  13.356
39434SOL    HW120199   3.353   4.157  13.317
39434SOL    HW220200   3.331   4.032  13.398
39435SOL     OW20201   7.308  13.505   6.139
39435SOL    HW120202   7.298  13.481   6.231
39435SOL    HW220203   7.248  13.448   6.092
39436SOL     OW20204   7.556   5.563   8.187
39436SOL    HW120205   7.517   5.554   8.101
39436SOL    HW220206   7.509   5.635   8.228
39437SOL     OW20207   6.241  12.286  12.379
39437SOL    HW120208   6.271  12.211  12.431
39437SOL    HW220209   6.236  12.252  12.290
39438SOL     OW20210   9.332  10.739   8.095
39438SOL    HW120211   9.373  10.785   8.021
39438SOL    HW220212   9.346  10.647   8.075
39439SOL     OW20213  12.741  12.461   4.170
39439SOL    HW120214  12.655  12.488   4.203
39439SOL    HW220215  12.794  12.540   4.173
39440SOL     OW20216   4.946   0.810   7.891
39440SOL    HW120217   4.899   0.768   7.963
39440SOL    HW220218   5.031   0.767   7.890
39441SOL     OW20219   5.186  11.976  10.345
39441SOL    HW120220   5.128  11.910  10.306
39441SOL    HW220221   5.231  12.015  10.270
39442SOL     OW20222   7.108   5.337   7.343
39442SOL    HW120223   7.166   5.400   7.301
39442SOL    HW220224   7.034   5.390   7.373
39443SOL     OW20225  11.568  12.237  11.323
39443SOL    HW120226  11.546  12.279  11.407
39443SOL    HW220227  11.633  12.295  11.283
39444SOL     OW20228   3.836   9.418   8.536
39444SOL    HW120229   3.832   9.360   8.612
39444SOL    HW220230   3.867   9.502   8.571
39445SOL     OW20231   0.443  10.075   0.777
39445SOL    HW120232   0.500  10.150   0.763
39445SOL    HW220233   0.410  10.053   0.690
39446SOL     OW20234   1.956   2.315   5.893
39446SOL    HW120235   1.955   2.258   5.816
39446SOL    HW220236   2.003   2.264   5.960
39447SOL     OW20237   5.119  10.096   5.177
39447SOL    HW120238   5.096  10.151   5.252
39447SOL    HW220239   5.209  10.120   5.156
39448SOL     OW20240  12.583  14.054   7.493
39448SOL    HW120241  12.654  14.028   7.552
39448SOL    HW220242  12.565  13.976   7.441
39449SOL     OW20243   2.484  10.250  11.424
39449SOL    HW120244   2.463  10.177  11.366
39449SOL    HW220245   2.450  10.328  11.379
39450SOL     OW20246  11.338   1.866  14.375
39450SOL    HW120247  11.353   1.832  14.287
39450SOL    HW220248  11.421   1.854  14.420
39451SOL     OW20249  10.811  10.189  12.541
39451SOL    HW120250  10.905  10.170  12.538
39451SOL    HW220251  10.805  10.270  12.592
39452SOL     OW20252   8.798   8.964   4.045
39452SOL    HW120253   8.864   8.985   3.979
39452SOL    HW220254   8.846   8.966   4.128
39453SOL     OW20255   3.539   6.790   9.676
39453SOL    HW120256   3.482   6.856   9.636
39453SOL    HW220257   3.479   6.732   9.723
39454SOL     OW20258  11.706   0.663   4.379
39454SOL    HW120259  11.747   0.600   4.438
39454SOL    HW220260  11.755   0.744   4.391
39455SOL     OW20261   1.782  13.394  13.812
39455SOL    HW120262   1.808  13.432  13.728
39455SOL    HW220263   1.824  13.309  13.814
39456SOL     OW20264  10.320   6.311   0.409
39456SOL    HW120265  10.283   6.319   0.321
39456SOL    HW220266  10.273   6.376   0.461
39457SOL     OW20267   6.382   4.837  12.939
39457SOL    HW120268   6.425   4.860  12.856
39457SOL    HW220269   6.289   4.839  12.919
39458SOL     OW20270  12.173   4.538  14.750
39458SOL    HW120271  12.146   4.623  14.786
39458SOL    HW220272  12.243   4.559  14.688
39459SOL     OW20273   6.259  10.711  10.833
39459SOL    HW120274   6.290  10.798  10.811
39459SOL    HW220275   6.318  10.681  10.903
39460SOL     OW20276   0.657   5.359   3.732
39460SOL    HW120277   0.616   5.431   3.780
39460SOL    HW220278   0.584   5.307   3.699
39461SOL     OW20279  10.806   7.222  13.277
39461SOL    HW120280  10.878   7.264  13.326
39461SOL    HW220281  10.844   7.140  13.246
39462SOL     OW20282   3.793   3.647   2.728
39462SOL    HW120283   3.842   3.678   2.651
39462SOL    HW220284   3.860   3.611   2.786
39463SOL     OW20285  10.822   0.741   1.228
39463SOL    HW120286  10.738   0.771   1.262
39463SOL    HW220287  10.887   0.779   1.287
39464SOL     OW20288   8.456  14.559   1.427
39464SOL    HW120289   8.425  14.475   1.461
39464SOL    HW220290   8.377  14.611   1.413
39465SOL     OW20291   1.202  13.819   6.518
39465SOL    HW120292   1.240  13.732   6.509
39465SOL    HW220293   1.251  13.858   6.591
39466SOL     OW20294   7.369   6.370  11.947
39466SOL    HW120295   7.305   6.424  11.901
39466SOL    HW220296   7.325   6.285  11.957
39467SOL     OW20297   5.193   7.683   3.013
39467SOL    HW120298   5.147   7.766   3.015
39467SOL    HW220299   5.161   7.635   3.089
39468SOL     OW20300   6.719   5.937   8.591
39468SOL    HW120301   6.684   6.019   8.626
39468SOL    HW220302   6.675   5.868   8.641
39469SOL     OW20303   0.285   0.838   8.860
39469SOL    HW120304   0.361   0.781   8.872
39469SOL    HW220305   0.232   0.792   8.795
39470SOL     OW20306   0.874   8.789  11.521
39470SOL    HW120307   0.821   8.869  11.521
39470SOL    HW220308   0.929   8.796  11.443
39471SOL     OW20309   3.701   0.436   7.377
39471SOL    HW120310   3.719   0.352   7.418
39471SOL    HW220311   3.786   0.479   7.371
39472SOL     OW20312   8.015  12.786   7.545
39472SOL    HW120313   7.938  12.807   7.492
39472SOL    HW220314   8.068  12.730   7.488
39473SOL     OW20315   2.058   2.750   7.939
39473SOL    HW120316   2.138   2.723   7.893
39473SOL    HW220317   1.989   2.743   7.873
39474SOL     OW20318   7.783   9.623  14.611
39474SOL    HW120319   7.756   9.538  14.645
39474SOL    HW220320   7.749   9.625  14.521
39475SOL     OW20321   5.401   0.275   8.254
39475SOL    HW120322   5.388   0.334   8.180
39475SOL    HW220323   5.338   0.306   8.320
39476SOL     OW20324  13.025   0.387  10.833
39476SOL    HW120325  12.964   0.460  10.815
39476SOL    HW220326  12.974   0.326  10.885
39477SOL     OW20327  10.733  13.947   5.766
39477SOL    HW120328  10.644  13.917   5.745
39477SOL    HW220329  10.760  13.999   5.691
39478SOL     OW20330  12.148   0.535  11.881
39478SOL    HW120331  12.133   0.440  11.883
39478SOL    HW220332  12.224   0.546  11.824
39479SOL     OW20333   2.874   2.220   4.129
39479SOL    HW120334   2.955   2.184   4.165
39479SOL    HW220335   2.902   2.300   4.083
39480SOL     OW20336  12.328  11.992   1.434
39480SOL    HW120337  12.271  11.990   1.510
39480SOL    HW220338  12.400  11.933   1.456
39481SOL     OW20339   6.177   5.656   1.270
39481SOL    HW120340   6.232   5.580   1.291
39481SOL    HW220341   6.194   5.673   1.178
39482SOL     OW20342   9.918   0.976   6.633
39482SOL    HW120343   9.909   0.988   6.538
39482SOL    HW220344   9.832   0.943   6.661
39483SOL     OW20345  11.221  11.801   7.251
39483SOL    HW120346  11.184  11.751   7.179
39483SOL    HW220347  11.294  11.849   7.213
39484SOL     OW20348  12.684  14.520   7.046
39484SOL    HW120349  12.657  14.498   6.957
39484SOL    HW220350  12.722  14.608   7.038
39485SOL     OW20351  10.775   9.368  13.951
39485SOL    HW120352  10.804   9.294  13.897
39485SOL    HW220353  10.703   9.407  13.901
39486SOL     OW20354  14.765  13.265  12.405
39486SOL    HW120355  14.739  13.318  12.481
39486SOL    HW220356  14.738  13.176  12.428
39487SOL     OW20357   4.758  10.654   5.284
39487SOL    HW120358   4.687  10.680   5.225
39487SOL    HW220359   4.719  10.586   5.338
39488SOL     OW20360   1.303   5.430  11.827
39488SOL    HW120361   1.328   5.516  11.795
39488SOL    HW220362   1.263   5.387  11.752
39489SOL     OW20363   1.092   1.612  10.999
39489SOL    HW120364   1.136   1.684  10.954
39489SOL    HW220365   1.094   1.637  11.092
39490SOL     OW20366  11.667   4.520   7.745
39490SOL    HW120367  11.688   4.607   7.779
39490SOL    HW220368  11.731   4.462   7.788
39491SOL     OW20369   5.394   9.366   8.372
39491SOL    HW120370   5.381   9.293   8.312
39491SOL    HW220371   5.478   9.404   8.347
39492SOL     OW20372  12.612   0.956  13.219
39492SOL    HW120373  12.685   0.996  13.171
39492SOL    HW220374  12.647   0.873  13.251
39493SOL     OW20375   0.570   9.167   9.218
39493SOL    HW120376   0.655   9.208   9.203
39493SOL    HW220377   0.551   9.119   9.138
39494SOL     OW20378   2.798   4.826  10.013
39494SOL    HW120379   2.789   4.885   9.938
39494SOL    HW220380   2.716   4.835  10.060
39495SOL     OW20381   8.406   4.199   6.226
39495SOL    HW120382   8.325   4.168   6.186
39495SOL    HW220383   8.388   4.290   6.249
39496SOL     OW20384  10.306  10.275   8.490
39496SOL    HW120385  10.395  10.267   8.456
39496SOL    HW220386  10.266  10.343   8.435
39497SOL     OW20387   1.650   8.142   6.624
39497SOL    HW120388   1.639   8.075   6.556
39497SOL    HW220389   1.678   8.093   6.702
39498SOL     OW20390   7.170   4.781   8.693
39498SOL    HW120391   7.078   4.801   8.675
39498SOL    HW220392   7.197   4.850   8.754
39499SOL     OW20393   7.232  10.030   1.370
39499SOL    HW120394   7.194   9.985   1.445
39499SOL    HW220395   7.315  10.065   1.403
39500SOL     OW20396   1.629  10.128  13.357
39500SOL    HW120397   1.578  10.074  13.297
39500SOL    HW220398   1.716  10.089  13.357
39501SOL     OW20399   2.638  14.170   8.900
39501SOL    HW120400   2.619  14.257   8.934
39501SOL    HW220401   2.560  14.146   8.850
39502SOL     OW20402  10.346   0.278   2.736
39502SOL    HW120403  10.305   0.195   2.758
39502SOL    HW220404  10.293   0.344   2.780
39503SOL     OW20405   5.516   1.031   2.972
39503SOL    HW120406   5.554   1.030   2.884
39503SOL    HW220407   5.544   1.115   3.009
39504SOL     OW20408   0.113   6.062   4.450
39504SOL    HW120409   0.098   6.144   4.498
39504SOL    HW220410   0.029   6.016   4.456
39505SOL     OW20411   7.614  14.296   8.552
39505SOL    HW120412   7.519  14.304   8.546
39505SOL    HW220413   7.647  14.383   8.529
39506SOL     OW20414   0.200   5.520  12.547
39506SOL    HW120415   0.219   5.544  12.638
39506SOL    HW220416   0.109   5.548  12.533
39507SOL     OW20417   4.767  13.999  13.630
39507SOL    HW120418   4.844  14.055  13.636
39507SOL    HW220419   4.801  13.910  13.643
39508SOL     OW20420   4.468  14.159   8.364
39508SOL    HW120421   4.563  14.167   8.373
39508SOL    HW220422   4.455  14.083   8.307
39509SOL     OW20423   5.726   8.052   8.686
39509SOL    HW120424   5.781   8.130   8.693
39509SOL    HW220425   5.761   7.992   8.752
39510SOL     OW20426  14.373   0.469  13.253
39510SOL    HW120427  14.343   0.396  13.307
39510SOL    HW220428  14.433   0.428  13.190
39511SOL     OW20429   3.871   3.003   7.691
39511SOL    HW120430   3.826   2.934   7.643
39511SOL    HW220431   3.824   3.009   7.774
39512SOL     OW20432   4.867   0.112  11.468
39512SOL    HW120433   4.783   0.104  11.423
39512SOL    HW220434   4.910   0.027  11.455
39513SOL     OW20435   6.237   0.338  13.477
39513SOL    HW120436   6.147   0.310  13.495
39513SOL    HW220437   6.230   0.396  13.401
39514SOL     OW20438   7.496   4.868  14.070
39514SOL    HW120439   7.409   4.835  14.048
39514SOL    HW220440   7.556   4.807  14.027
39515SOL     OW20441   2.800  12.758  14.137
39515SOL    HW120442   2.802  12.760  14.233
39515SOL    HW220443   2.793  12.850  14.111
39516SOL     OW20444   5.106  10.024  11.920
39516SOL    HW120445   5.050  10.050  11.847
39516SOL    HW220446   5.190  10.066  11.903
39517SOL     OW20447  10.988   7.573  12.303
39517SOL    HW120448  11.006   7.533  12.388
39517SOL    HW220449  10.907   7.532  12.274
39518SOL     OW20450   0.991   8.017   5.872
39518SOL    HW120451   0.907   8.047   5.839
39518SOL    HW220452   0.979   7.923   5.887
39519SOL     OW20453   3.070   8.205   3.669
39519SOL    HW120454   3.136   8.197   3.600
39519SOL    HW220455   2.987   8.214   3.622
39520SOL     OW20456   2.336   8.207  10.077
39520SOL    HW120457   2.283   8.179  10.002
39520SOL    HW220458   2.274   8.253  10.134
39521SOL     OW20459   0.780  10.207   4.924
39521SOL    HW120460   0.741  10.133   4.878
39521SOL    HW220461   0.870  10.210   4.894
39522SOL     OW20462  11.540   5.520   7.853
39522SOL    HW120463  11.613   5.493   7.797
39522SOL    HW220464  11.580   5.535   7.939
39523SOL     OW20465   8.748   9.961   5.881
39523SOL    HW120466   8.803   9.977   5.804
39523SOL    HW220467   8.669   9.920   5.845
39524SOL     OW20468   0.797  13.469   2.703
39524SOL    HW120469   0.711  13.500   2.731
39524SOL    HW220470   0.846  13.549   2.686
39525SOL     OW20471   8.360   0.889  10.749
39525SOL    HW120472   8.351   0.971  10.797
39525SOL    HW220473   8.442   0.898  10.702
39526SOL     OW20474   0.297   5.428   1.254
39526SOL    HW120475   0.240   5.351   1.245
39526SOL    HW220476   0.332   5.442   1.166
39527SOL     OW20477  14.567  12.449   1.063
39527SOL    HW120478  14.628  12.439   0.990
39527SOL    HW220479  14.481  12.449   1.022
39528SOL     OW20480   7.148  12.835  10.662
39528SOL    HW120481   7.144  12.812  10.569
39528SOL    HW220482   7.217  12.778  10.697
39529SOL     OW20483  13.252   2.041   3.093
39529SOL    HW120484  13.346   2.057   3.101
39529SOL    HW220485  13.245   1.954   3.055
39530SOL     OW20486   3.888   4.597  11.572
39530SOL    HW120487   3.868   4.509  11.540
39530SOL    HW220488   3.808   4.625  11.617
39531SOL     OW20489  14.228  12.841  11.738
39531SOL    HW120490  14.197  12.920  11.694
39531SOL    HW220491  14.311  12.820  11.695
39532SOL     OW20492   2.392   8.926   7.517
39532SOL    HW120493   2.427   8.890   7.598
39532SOL    HW220494   2.349   9.007   7.543
39533SOL     OW20495  11.637   1.190  11.764
39533SOL    HW120496  11.598   1.157  11.845
39533SOL    HW220497  11.635   1.285  11.774
39534SOL     OW20498   4.102   9.387  14.516
39534SOL    HW120499   4.079   9.469  14.471
39534SOL    HW220500   4.170   9.348  14.460
39535SOL     OW20501   3.212   4.064   4.293
39535SOL    HW120502   3.283   4.129   4.289
39535SOL    HW220503   3.247   3.988   4.245
39536SOL     OW20504  12.923  12.121   2.721
39536SOL    HW120505  12.980  12.159   2.655
39536SOL    HW220506  12.909  12.192   2.784
39537SOL     OW20507   6.566  10.252   2.926
39537SOL    HW120508   6.655  10.219   2.912
39537SOL    HW220509   6.571  10.344   2.902
39538SOL     OW20510  13.860   5.567  13.481
39538SOL    HW120511  13.839   5.593  13.391
39538SOL    HW220512  13.800   5.618  13.535
39539SOL     OW20513   0.146   1.633   6.932
39539SOL    HW120514   0.089   1.703   6.900
39539SOL    HW220515   0.199   1.608   6.856
39540SOL     OW20516   4.593  11.442   0.920
39540SOL    HW120517   4.662  11.384   0.952
39540SOL    HW220518   4.572  11.498   0.995
39541SOL     OW20519   4.552   1.706  14.252
39541SOL    HW120520   4.479   1.762  14.277
39541SOL    HW220521   4.597   1.687  14.335
39542SOL     OW20522  12.226   2.081  12.253
39542SOL    HW120523  12.278   2.058  12.331
39542SOL    HW220524  12.288   2.076  12.181
39543SOL     OW20525  13.190  12.669  11.132
39543SOL    HW120526  13.102  12.630  11.134
39543SOL    HW220527  13.229  12.647  11.216
39544SOL     OW20528   5.307   3.758   3.832
39544SOL    HW120529   5.351   3.761   3.747
39544SOL    HW220530   5.215   3.774   3.813
39545SOL     OW20531   4.989   8.756  10.238
39545SOL    HW120532   4.937   8.833  10.263
39545SOL    HW220533   5.023   8.722  10.321
39546SOL     OW20534   3.468   2.086   4.221
39546SOL    HW120535   3.560   2.111   4.215
39546SOL    HW220536   3.464   1.999   4.182
39547SOL     OW20537   5.063   9.719  10.200
39547SOL    HW120538   5.147   9.694  10.239
39547SOL    HW220539   5.008   9.642  10.209
39548SOL     OW20540  12.005  12.395   9.196
39548SOL    HW120541  11.968  12.465   9.250
39548SOL    HW220542  12.027  12.438   9.113
39549SOL     OW20543   0.258  13.984   8.222
39549SOL    HW120544   0.301  13.973   8.307
39549SOL    HW220545   0.271  14.076   8.200
39550SOL     OW20546   8.266  10.359  12.661
39550SOL    HW120547   8.268  10.266  12.640
39550SOL    HW220548   8.246  10.403  12.579
39551SOL     OW20549   7.172  14.485   8.890
39551SOL    HW120550   7.260  14.523   8.896
39551SOL    HW220551   7.125  14.520   8.966
39552SOL     OW20552   5.235  14.340  11.154
39552SOL    HW120553   5.144  14.371  11.157
39552SOL    HW220554   5.260  14.348  11.062
39553SOL     OW20555   5.075   4.953  10.732
39553SOL    HW120556   5.020   4.876  10.723
39553SOL    HW220557   5.136   4.931  10.803
39554SOL     OW20558   4.311   0.273   9.957
39554SOL    HW120559   4.267   0.317   9.884
39554SOL    HW220560   4.246   0.211   9.990
39555SOL     OW20561   3.915   5.333   5.639
39555SOL    HW120562   3.896   5.265   5.575
39555SOL    HW220563   4.011   5.338   5.640
39556SOL     OW20564   4.815   9.967   9.686
39556SOL    HW120565   4.900   9.975   9.642
39556SOL    HW220566   4.821   9.884   9.734
39557SOL     OW20567  10.367  13.279   7.542
39557SOL    HW120568  10.424  13.262   7.617
39557SOL    HW220569  10.419  13.255   7.466
39558SOL     OW20570   4.922   9.919  10.348
39558SOL    HW120571   4.850   9.857  10.339
39558SOL    HW220572   4.997   9.876  10.308
39559SOL     OW20573   1.169   0.271  14.820
39559SOL    HW120574   1.252   0.225  14.833
39559SOL    HW220575   1.124   0.220  14.753
39560SOL     OW20576   0.953  12.643   3.152
39560SOL    HW120577   1.037  12.605   3.176
39560SOL    HW220578   0.930  12.599   3.070
39561SOL     OW20579   6.741  14.374   6.619
39561SOL    HW120580   6.659  14.395   6.575
39561SOL    HW220581   6.738  14.279   6.630
39562SOL     OW20582   1.028  10.555   3.614
39562SOL    HW120583   1.103  10.533   3.669
39562SOL    HW220584   0.953  10.514   3.658
39563SOL     OW20585   6.343   7.221   0.635
39563SOL    HW120586   6.327   7.179   0.550
39563SOL    HW220587   6.387   7.303   0.613
39564SOL     OW20588   8.889  13.324   2.545
39564SOL    HW120589   8.968  13.308   2.494
39564SOL    HW220590   8.849  13.401   2.503
39565SOL     OW20591   6.551   8.715   2.230
39565SOL    HW120592   6.594   8.783   2.178
39565SOL    HW220593   6.489   8.675   2.170
39566SOL     OW20594   3.532   9.421   5.274
39566SOL    HW120595   3.537   9.515   5.255
39566SOL    HW220596   3.438   9.402   5.275
39567SOL     OW20597   4.807   6.102   7.877
39567SOL    HW120598   4.813   6.186   7.923
39567SOL    HW220599   4.878   6.049   7.913
39568SOL     OW20600   5.866   4.440   0.027
39568SOL    HW120601   5.804   4.450   0.099
39568SOL    HW220602   5.831   4.368  14.857
39569SOL     OW20603   6.659   8.377   6.178
39569SOL    HW120604   6.654   8.385   6.082
39569SOL    HW220605   6.739   8.425   6.201
39570SOL     OW20606   4.566  14.208   1.089
39570SOL    HW120607   4.554  14.127   1.138
39570SOL    HW220608   4.479  14.246   1.083
39571SOL     OW20609   4.775   7.051   0.652
39571SOL    HW120610   4.784   6.985   0.584
39571SOL    HW220611   4.828   7.124   0.623
39572SOL     OW20612   0.059   1.543   7.405
39572SOL    HW120613   0.008   1.623   7.419
39572SOL    HW220614   0.110   1.561   7.326
39573SOL     OW20615   9.329  13.048   9.462
39573SOL    HW120616   9.239  13.031   9.490
39573SOL    HW220617   9.346  12.984   9.393
39574SOL     OW20618   2.345  10.375   2.239
39574SOL    HW120619   2.306  10.446   2.188
39574SOL    HW220620   2.336  10.297   2.183
39575SOL     OW20621   2.419   5.543   4.669
39575SOL    HW120622   2.367   5.465   4.690
39575SOL    HW220623   2.505   5.527   4.708
39576SOL     OW20624  13.210   5.841   6.928
39576SOL    HW120625  13.186   5.933   6.923
39576SOL    HW220626  13.254   5.832   7.013
39577SOL     OW20627  11.894   9.162   1.534
39577SOL    HW120628  11.883   9.229   1.602
39577SOL    HW220629  11.941   9.091   1.578
39578SOL     OW20630  11.318  10.636   3.390
39578SOL    HW120631  11.366  10.561   3.354
39578SOL    HW220632  11.241  10.596   3.431
39579SOL     OW20633   2.883   9.875   6.629
39579SOL    HW120634   2.912   9.885   6.720
39579SOL    HW220635   2.964   9.858   6.580
39580SOL     OW20636   7.242   0.983   7.122
39580SOL    HW120637   7.317   0.923   7.125
39580SOL    HW220638   7.181   0.948   7.187
39581SOL     OW20639   5.851   1.800  13.749
39581SOL    HW120640   5.769   1.754  13.732
39581SOL    HW220641   5.910   1.770  13.680
39582SOL     OW20642  13.459   1.411   6.064
39582SOL    HW120643  13.381   1.366   6.094
39582SOL    HW220644  13.435   1.449   5.979
39583SOL     OW20645   1.828   3.112  13.784
39583SOL    HW120646   1.750   3.147  13.741
39583SOL    HW220647   1.794   3.039  13.836
39584SOL     OW20648   1.298   9.718  14.502
39584SOL    HW120649   1.233   9.788  14.502
39584SOL    HW220650   1.335   9.719  14.414
39585SOL     OW20651  14.064   6.713   4.049
39585SOL    HW120652  13.980   6.672   4.068
39585SOL    HW220653  14.129   6.646   4.071
39586SOL     OW20654   9.796   2.881  11.273
39586SOL    HW120655   9.862   2.950  11.276
39586SOL    HW220656   9.841   2.806  11.236
39587SOL     OW20657   5.944   5.985   5.320
39587SOL    HW120658   6.002   6.053   5.287
39587SOL    HW220659   5.881   5.970   5.250
39588SOL     OW20660   2.380   0.904   3.672
39588SOL    HW120661   2.468   0.875   3.648
39588SOL    HW220662   2.324   0.878   3.599
39589SOL     OW20663  12.438   6.202   0.097
39589SOL    HW120664  12.466   6.289   0.069
39589SOL    HW220665  12.384   6.218   0.174
39590SOL     OW20666   2.574   3.116   7.763
39590SOL    HW120667   2.586   3.078   7.850
39590SOL    HW220668   2.580   3.210   7.776
39591SOL     OW20669   6.119  10.068   5.355
39591SOL    HW120670   6.026  10.087   5.367
39591SOL    HW220671   6.142  10.010   5.428
39592SOL     OW20672   8.229  10.388  11.746
39592SOL    HW120673   8.211  10.362  11.837
39592SOL    HW220674   8.199  10.479  11.741
39593SOL     OW20675   8.040   7.013   6.714
39593SOL    HW120676   8.090   6.932   6.725
39593SOL    HW220677   8.048   7.034   6.621
39594SOL     OW20678  13.464   6.877   6.214
39594SOL    HW120679  13.440   6.796   6.169
39594SOL    HW220680  13.475   6.852   6.306
39595SOL     OW20681   6.356   2.370  10.168
39595SOL    HW120682   6.441   2.326  10.162
39595SOL    HW220683   6.368   2.452  10.120
39596SOL     OW20684  11.560   2.405   3.845
39596SOL    HW120685  11.611   2.393   3.925
39596SOL    HW220686  11.521   2.492   3.854
39597SOL     OW20687   7.153   2.372   5.566
39597SOL    HW120688   7.067   2.341   5.536
39597SOL    HW220689   7.135   2.415   5.649
39598SOL     OW20690   9.173   5.955   4.252
39598SOL    HW120691   9.144   5.897   4.322
39598SOL    HW220692   9.120   5.931   4.176
39599SOL     OW20693   0.668  14.516   6.944
39599SOL    HW120694   0.656  14.504   7.038
39599SOL    HW220695   0.756  14.483   6.926
39600SOL     OW20696  14.363   1.718  13.565
39600SOL    HW120697  14.446   1.699  13.608
39600SOL    HW220698  14.325   1.790  13.616
39601SOL     OW20699   5.096   8.518   1.878
39601SOL    HW120700   5.155   8.477   1.814
39601SOL    HW220701   5.114   8.470   1.959
39602SOL     OW20702  13.107  12.724  10.396
39602SOL    HW120703  13.039  12.660  10.374
39602SOL    HW220704  13.180  12.670  10.428
39603SOL     OW20705   6.598   1.731   1.106
39603SOL    HW120706   6.669   1.682   1.148
39603SOL    HW220707   6.563   1.672   1.040
39604SOL     OW20708   5.016   0.177   2.880
39604SOL    HW120709   4.942   0.117   2.869
39604SOL    HW220710   4.977   0.264   2.887
39605SOL     OW20711   4.982  10.482   2.965
39605SOL    HW120712   5.069  10.441   2.963
39605SOL    HW220713   4.979  10.527   3.049
39606SOL     OW20714  13.686  14.614  14.439
39606SOL    HW120715  13.660  14.704  14.458
39606SOL    HW220716  13.763  14.599  14.495
39607SOL     OW20717   0.303   9.268   9.621
39607SOL    HW120718   0.226   9.254   9.677
39607SOL    HW220719   0.330   9.358   9.640
39608SOL     OW20720   9.535   1.535  10.113
39608SOL    HW120721   9.579   1.610  10.151
39608SOL    HW220722   9.543   1.466  10.180
39609SOL     OW20723   6.045   2.955   5.855
39609SOL    HW120724   5.973   2.996   5.904
39609SOL    HW220725   6.105   2.923   5.922
39610SOL     OW20726   2.928   8.552  14.077
39610SOL    HW120727   2.925   8.618  14.007
39610SOL    HW220728   2.908   8.600  14.157
39611SOL     OW20729   8.160   9.481   8.098
39611SOL    HW120730   8.225   9.470   8.168
39611SOL    HW220731   8.189   9.423   8.028
39612SOL     OW20732   3.511  12.240   8.428
39612SOL    HW120733   3.475  12.238   8.517
39612SOL    HW220734   3.443  12.282   8.376
39613SOL     OW20735   7.407  14.082   8.413
39613SOL    HW120736   7.460  14.050   8.486
39613SOL    HW220737   7.350  14.148   8.453
39614SOL     OW20738   8.620   0.867  11.057
39614SOL    HW120739   8.665   0.795  11.102
39614SOL    HW220740   8.563   0.905  11.123
39615SOL     OW20741   2.740  13.013  14.044
39615SOL    HW120742   2.787  13.083  13.998
39615SOL    HW220743   2.650  13.020  14.012
39616SOL     OW20744   4.561   2.048  11.580
39616SOL    HW120745   4.498   2.077  11.514
39616SOL    HW220746   4.568   1.954  11.567
39617SOL     OW20747   6.701   9.133   0.320
39617SOL    HW120748   6.721   9.056   0.266
39617SOL    HW220749   6.643   9.100   0.388
39618SOL     OW20750   0.221  13.602   8.522
39618SOL    HW120751   0.164  13.661   8.571
39618SOL    HW220752   0.187  13.606   8.432
39619SOL     OW20753   4.461   0.594   1.205
39619SOL    HW120754   4.522   0.662   1.177
39619SOL    HW220755   4.499   0.513   1.169
39620SOL     OW20756   9.917   7.911   0.025
39620SOL    HW120757   9.903   8.006   0.022
39620SOL    HW220758   9.962   7.891  14.825
39621SOL     OW20759  13.888  12.166  10.913
39621SOL    HW120760  13.981  12.176  10.929
39621SOL    HW220761  13.850  12.251  10.938
39622SOL     OW20762   9.909  10.660  13.248
39622SOL    HW120763   9.873  10.593  13.306
39622SOL    HW220764   9.962  10.611  13.185
39623SOL     OW20765  11.710   3.016   8.408
39623SOL    HW120766  11.780   3.020   8.344
39623SOL    HW220767  11.752   3.038   8.491
39624SOL     OW20768   6.213   7.737   7.062
39624SOL    HW120769   6.218   7.819   7.111
39624SOL    HW220770   6.166   7.677   7.121
39625SOL     OW20771   4.166   2.186   0.624
39625SOL    HW120772   4.112   2.264   0.616
39625SOL    HW220773   4.184   2.179   0.718
39626SOL     OW20774   1.401   0.546   5.261
39626SOL    HW120775   1.470   0.612   5.251
39626SOL    HW220776   1.414   0.486   5.187
39627SOL     OW20777  10.866  11.888  14.524
39627SOL    HW120778  10.868  11.794  14.539
39627SOL    HW220779  10.886  11.897  14.431
39628SOL     OW20780   1.803  12.826  12.490
39628SOL    HW120781   1.846  12.783  12.416
39628SOL    HW220782   1.802  12.919  12.467
39629SOL     OW20783   2.651   8.306   7.092
39629SOL    HW120784   2.631   8.277   7.181
39629SOL    HW220785   2.713   8.378   7.103
39630SOL     OW20786   6.002   7.839  14.155
39630SOL    HW120787   6.041   7.916  14.195
39630SOL    HW220788   5.951   7.873  14.081
39631SOL     OW20789  14.172  12.513   0.604
39631SOL    HW120790  14.126  12.447   0.655
39631SOL    HW220791  14.252  12.530   0.654
39632SOL     OW20792   1.812  11.901   0.390
39632SOL    HW120793   1.884  11.850   0.427
39632SOL    HW220794   1.819  11.987   0.432
39633SOL     OW20795   4.476  13.968   1.183
39633SOL    HW120796   4.466  13.873   1.182
39633SOL    HW220797   4.418  13.998   1.252
39634SOL     OW20798   6.914   4.869   3.399
39634SOL    HW120799   6.863   4.842   3.476
39634SOL    HW220800   6.965   4.791   3.377
39635SOL     OW20801  10.357   0.860   0.304
39635SOL    HW120802  10.345   0.915   0.226
39635SOL    HW220803  10.452   0.848   0.311
39636SOL     OW20804   6.931  12.626  10.471
39636SOL    HW120805   6.879  12.548  10.451
39636SOL    HW220806   7.020  12.593  10.485
39637SOL     OW20807  12.875   5.678   7.600
39637SOL    HW120808  12.937   5.621   7.555
39637SOL    HW220809  12.912   5.690   7.687
39638SOL     OW20810  11.402   5.525  13.110
39638SOL    HW120811  11.422   5.587  13.180
39638SOL    HW220812  11.457   5.449  13.129
39639SOL     OW20813   9.217  10.264   7.205
39639SOL    HW120814   9.127  10.231   7.195
39639SOL    HW220815   9.213  10.354   7.172
39640SOL     OW20816  12.778   6.979   8.885
39640SOL    HW120817  12.841   6.913   8.854
39640SOL    HW220818  12.700   6.928   8.909
39641SOL     OW20819   5.253   1.564   4.450
39641SOL    HW120820   5.274   1.481   4.407
39641SOL    HW220821   5.170   1.590   4.411
39642SOL     OW20822   2.667  13.844   5.205
39642SOL    HW120823   2.584  13.887   5.224
39642SOL    HW220824   2.694  13.805   5.288
39643SOL     OW20825  13.881   6.759  10.202
39643SOL    HW120826  13.938   6.828  10.169
39643SOL    HW220827  13.820   6.742  10.131
39644SOL     OW20828   1.462   3.743   2.378
39644SOL    HW120829   1.545   3.741   2.426
39644SOL    HW220830   1.395   3.742   2.445
39645SOL     OW20831  10.059  13.272  13.250
39645SOL    HW120832  10.111  13.212  13.303
39645SOL    HW220833  10.035  13.222  13.172
39646SOL     OW20834   9.252   6.853   9.971
39646SOL    HW120835   9.340   6.827   9.945
39646SOL    HW220836   9.194   6.797   9.919
39647SOL     OW20837  12.934  13.773   6.865
39647SOL    HW120838  12.978  13.734   6.940
39647SOL    HW220839  12.994  13.759   6.792
39648SOL     OW20840   7.531   8.364   8.277
39648SOL    HW120841   7.611   8.336   8.233
39648SOL    HW220842   7.537   8.325   8.365
39649SOL     OW20843   6.221   1.848   3.649
39649SOL    HW120844   6.128   1.865   3.658
39649SOL    HW220845   6.253   1.916   3.590
39650SOL     OW20846   2.018  13.762   4.910
39650SOL    HW120847   2.044  13.854   4.916
39650SOL    HW220848   1.927  13.765   4.882
39651SOL     OW20849   7.967   0.263   4.011
39651SOL    HW120850   8.019   0.275   3.932
39651SOL    HW220851   7.967   0.168   4.026
39652SOL     OW20852   8.114   4.586   4.702
39652SOL    HW120853   8.199   4.547   4.726
39652SOL    HW220854   8.137   4.672   4.667
39653SOL     OW20855   8.202   9.420   4.379
39653SOL    HW120856   8.153   9.489   4.423
39653SOL    HW220857   8.141   9.347   4.373
39654SOL     OW20858  11.311  12.360  12.566
39654SOL    HW120859  11.377  12.293  12.583
39654SOL    HW220860  11.228  12.318  12.592
39655SOL     OW20861   2.434   1.826   4.009
39655SOL    HW120862   2.442   1.749   3.953
39655SOL    HW220863   2.505   1.817   4.073
39656SOL     OW20864   7.060  11.782   3.517
39656SOL    HW120865   6.999  11.801   3.446
39656SOL    HW220866   7.054  11.687   3.529
39657SOL     OW20867   7.575  11.022   6.624
39657SOL    HW120868   7.633  11.070   6.565
39657SOL    HW220869   7.507  11.085   6.647
39658SOL     OW20870   0.926   6.343  11.306
39658SOL    HW120871   0.960   6.283  11.372
39658SOL    HW220872   0.831   6.335  11.314
39659SOL     OW20873   7.126   5.808  14.436
39659SOL    HW120874   7.221   5.798  14.444
39659SOL    HW220875   7.091   5.729  14.478
39660SOL     OW20876  12.593   9.158   0.053
39660SOL    HW120877  12.624   9.114   0.132
39660SOL    HW220878  12.576   9.248   0.081
39661SOL     OW20879   4.671  14.798   7.738
39661SOL    HW120880   4.660  14.739   7.813
39661SOL    HW220881   4.715  14.875   7.775
39662SOL     OW20882   1.134   3.793   8.111
39662SOL    HW120883   1.185   3.714   8.129
39662SOL    HW220884   1.170   3.827   8.029
39663SOL     OW20885   3.185  14.779  14.632
39663SOL    HW120886   3.116  14.844  14.623
39663SOL    HW220887   3.266  14.829  14.624
39664SOL     OW20888   6.350   0.965   8.059
39664SOL    HW120889   6.348   0.972   8.154
39664SOL    HW220890   6.377   0.874   8.043
39665SOL     OW20891   2.998  10.965  12.395
39665SOL    HW120892   2.937  11.014  12.449
39665SOL    HW220893   2.951  10.951  12.313
39666SOL     OW20894   7.697  12.098  12.114
39666SOL    HW120895   7.714  12.175  12.169
39666SOL    HW220896   7.602  12.089  12.113
39667SOL     OW20897   5.548   3.364   0.610
39667SOL    HW120898   5.615   3.361   0.678
39667SOL    HW220899   5.477   3.416   0.649
39668SOL     OW20900  11.490  11.600  12.202
39668SOL    HW120901  11.484  11.565  12.113
39668SOL    HW220902  11.553  11.542  12.246
39669SOL     OW20903   1.752   6.614   7.641
39669SOL    HW120904   1.702   6.667   7.702
39669SOL    HW220905   1.687   6.570   7.587
39670SOL     OW20906   0.146  11.477   8.408
39670SOL    HW120907   0.233  11.449   8.437
39670SOL    HW220908   0.136  11.437   8.322
39671SOL     OW20909   3.503   2.904   7.992
39671SOL    HW120910   3.412   2.927   7.972
39671SOL    HW220911   3.508   2.810   7.975
39672SOL     OW20912   4.831   8.689   2.810
39672SOL    HW120913   4.912   8.736   2.791
39672SOL    HW220914   4.813   8.638   2.730
39673SOL     OW20915   1.906  10.722   1.652
39673SOL    HW120916   1.857  10.803   1.663
39673SOL    HW220917   1.909  10.708   1.558
39674SOL     OW20918  11.486  12.913   1.133
39674SOL    HW120919  11.448  12.877   1.052
39674SOL    HW220920  11.474  12.844   1.198
39675SOL     OW20921  10.311   6.675  13.254
39675SOL    HW120922  10.243   6.724  13.208
39675SOL    HW220923  10.264   6.627  13.322
39676SOL     OW20924  13.256   0.725   6.644
39676SOL    HW120925  13.250   0.699   6.552
39676SOL    HW220926  13.196   0.667   6.690
39677SOL     OW20927   8.522   4.162   2.628
39677SOL    HW120928   8.578   4.106   2.575
39677SOL    HW220929   8.516   4.117   2.713
39678SOL     OW20930  14.093   5.085   3.175
39678SOL    HW120931  14.052   5.010   3.133
39678SOL    HW220932  14.041   5.160   3.147
39679SOL     OW20933   6.380   2.434   9.389
39679SOL    HW120934   6.465   2.448   9.348
39679SOL    HW220935   6.332   2.381   9.326
39680SOL     OW20936   7.876   2.812   6.126
39680SOL    HW120937   7.958   2.861   6.126
39680SOL    HW220938   7.828   2.847   6.201
39681SOL     OW20939  12.820   3.404   1.818
39681SOL    HW120940  12.827   3.498   1.802
39681SOL    HW220941  12.727   3.385   1.812
39682SOL     OW20942   5.477   6.271   0.423
39682SOL    HW120943   5.413   6.264   0.494
39682SOL    HW220944   5.445   6.209   0.357
39683SOL     OW20945   6.700   2.662   4.021
39683SOL    HW120946   6.668   2.592   4.078
39683SOL    HW220947   6.785   2.685   4.058
39684SOL     OW20948   3.175   9.414  10.777
39684SOL    HW120949   3.164   9.446  10.687
39684SOL    HW220950   3.196   9.321  10.766
39685SOL     OW20951   2.771   7.167   4.762
39685SOL    HW120952   2.728   7.102   4.818
39685SOL    HW220953   2.709   7.180   4.690
39686SOL     OW20954   0.803   0.269   8.691
39686SOL    HW120955   0.756   0.270   8.608
39686SOL    HW220956   0.872   0.333   8.680
39687SOL     OW20957   0.886   2.989   7.325
39687SOL    HW120958   0.873   2.935   7.403
39687SOL    HW220959   0.814   2.966   7.267
39688SOL     OW20960   4.322   0.518  14.027
39688SOL    HW120961   4.386   0.464  14.072
39688SOL    HW220962   4.248   0.460  14.010
39689SOL     OW20963   9.464   0.597  14.090
39689SOL    HW120964   9.477   0.692  14.080
39689SOL    HW220965   9.440   0.567  14.003
39690SOL     OW20966   5.759   5.117  13.577
39690SOL    HW120967   5.855   5.113  13.579
39690SOL    HW220968   5.738   5.207  13.601
39691SOL     OW20969   1.047   5.509  12.371
39691SOL    HW120970   1.084   5.443  12.311
39691SOL    HW220971   1.119   5.569  12.389
39692SOL     OW20972   1.595   7.989   0.777
39692SOL    HW120973   1.608   7.923   0.845
39692SOL    HW220974   1.578   7.938   0.697
39693SOL     OW20975   5.222  12.664   8.485
39693SOL    HW120976   5.307  12.635   8.450
39693SOL    HW220977   5.178  12.705   8.411
39694SOL     OW20978  13.761   9.099  11.953
39694SOL    HW120979  13.760   9.087  11.858
39694SOL    HW220980  13.709   9.178  11.969
39695SOL     OW20981   5.955  11.608   4.717
39695SOL    HW120982   5.939  11.664   4.793
39695SOL    HW220983   5.891  11.538   4.725
39696SOL     OW20984   7.611   6.678  11.931
39696SOL    HW120985   7.624   6.708  12.022
39696SOL    HW220986   7.580   6.756  11.885
39697SOL     OW20987   6.470   5.007   4.383
39697SOL    HW120988   6.523   4.933   4.412
39697SOL    HW220989   6.443   4.984   4.294
39698SOL     OW20990  13.556  12.123   3.227
39698SOL    HW120991  13.477  12.098   3.275
39698SOL    HW220992  13.608  12.042   3.222
39699SOL     OW20993   8.767   8.289   2.168
39699SOL    HW120994   8.742   8.328   2.252
39699SOL    HW220995   8.698   8.316   2.108
39700SOL     OW20996   1.567   4.787  11.526
39700SOL    HW120997   1.586   4.847  11.454
39700SOL    HW220998   1.479   4.812  11.555
39701SOL     OW20999  12.691  13.978  11.100
39701SOL    HW121000  12.602  13.974  11.066
39701SOL    HW221001  12.726  14.060  11.064
39702SOL     OW21002   3.923   6.207   1.029
39702SOL    HW121003   3.937   6.302   1.027
39702SOL    HW221004   4.009   6.169   1.014
39703SOL     OW21005   8.324   5.695   5.386
39703SOL    HW121006   8.386   5.690   5.459
39703SOL    HW221007   8.355   5.770   5.335
39704SOL     OW21008   6.464  12.057   6.061
39704SOL    HW121009   6.486  12.150   6.073
39704SOL    HW221010   6.396  12.040   6.126
39705SOL     OW21011   6.883  11.847  10.472
39705SOL    HW121012   6.813  11.798  10.516
39705SOL    HW221013   6.946  11.780  10.445
39706SOL     OW21014   6.732   0.047  10.971
39706SOL    HW121015   6.796  14.859  10.965
39706SOL    HW221016   6.767   0.117  10.917
39707SOL     OW21017   7.744   1.413  13.510
39707SOL    HW121018   7.827   1.367  13.510
39707SOL    HW221019   7.683   1.352  13.467
39708SOL     OW21020  12.897  14.148   8.058
39708SOL    HW121021  12.890  14.239   8.029
39708SOL    HW221022  12.989  14.137   8.081
39709SOL     OW21023   8.260   0.668   8.854
39709SOL    HW121024   8.183   0.723   8.841
39709SOL    HW221025   8.225   0.581   8.870
39710SOL     OW21026  12.598   7.710   3.705
39710SOL    HW121027  12.681   7.743   3.737
39710SOL    HW221028  12.546   7.788   3.688
39711SOL     OW21029   7.582  14.305   5.717
39711SOL    HW121030   7.541  14.240   5.659
39711SOL    HW221031   7.562  14.389   5.677
39712SOL     OW21032  10.481   8.643  11.889
39712SOL    HW121033  10.468   8.615  11.798
39712SOL    HW221034  10.393   8.642  11.927
39713SOL     OW21035   3.549   2.032  13.086
39713SOL    HW121036   3.636   2.005  13.059
39713SOL    HW221037   3.541   2.122  13.056
39714SOL     OW21038  11.545   3.821   5.515
39714SOL    HW121039  11.608   3.791   5.449
39714SOL    HW221040  11.583   3.796   5.599
39715SOL     OW21041   6.758  11.892  11.105
39715SOL    HW121042   6.747  11.981  11.070
39715SOL    HW221043   6.784  11.906  11.196
39716SOL     OW21044  12.689   7.589   3.425
39716SOL    HW121045  12.650   7.624   3.505
39716SOL    HW221046  12.665   7.496   3.425
39717SOL     OW21047  10.717   1.257   6.364
39717SOL    HW121048  10.623   1.270   6.360
39717SOL    HW221049  10.729   1.163   6.349
39718SOL     OW21050   6.407   2.761   4.299
39718SOL    HW121051   6.327   2.814   4.295
39718SOL    HW221052   6.382   2.677   4.262
39719SOL     OW21053   7.602   0.380   5.930
39719SOL    HW121054   7.601   0.453   5.992
39719SOL    HW221055   7.510   0.365   5.910
39720SOL     OW21056  14.095   2.937   7.229
39720SOL    HW121057  14.065   2.876   7.162
39720SOL    HW221058  14.028   2.934   7.297
39721SOL     OW21059   9.431   7.527   2.145
39721SOL    HW121060   9.429   7.536   2.050
39721SOL    HW221061   9.457   7.614   2.177
39722SOL     OW21062  11.934   4.601   2.983
39722SOL    HW121063  12.005   4.610   2.920
39722SOL    HW221064  11.870   4.546   2.939
39723SOL     OW21065   2.489   9.481   6.293
39723SOL    HW121066   2.459   9.552   6.350
39723SOL    HW221067   2.578   9.506   6.269
39724SOL     OW21068   4.747   5.738   3.293
39724SOL    HW121069   4.753   5.808   3.358
39724SOL    HW221070   4.824   5.683   3.310
39725SOL     OW21071   8.992   4.507  13.704
39725SOL    HW121072   8.999   4.455  13.624
39725SOL    HW221073   8.904   4.544  13.702
39726SOL     OW21074   7.921   6.832  10.813
39726SOL    HW121075   7.876   6.916  10.819
39726SOL    HW221076   7.896   6.796  10.728
39727SOL     OW21077   6.382   0.382   9.698
39727SOL    HW121078   6.346   0.426   9.621
39727SOL    HW221079   6.344   0.428   9.773
39728SOL     OW21080   0.718   2.655   6.783
39728SOL    HW121081   0.629   2.621   6.784
39728SOL    HW221082   0.717   2.723   6.716
39729SOL     OW21083   3.404   6.339  13.222
39729SOL    HW121084   3.466   6.287  13.273
39729SOL    HW221085   3.436   6.334  13.132
39730SOL     OW21086  12.166  13.463   1.912
39730SOL    HW121087  12.148  13.398   1.979
39730SOL    HW221088  12.255  13.443   1.882
39731SOL     OW21089  14.508   5.644   5.987
39731SOL    HW121090  14.568   5.572   6.005
39731SOL    HW221091  14.519   5.703   6.062
39732SOL     OW21092   0.685  10.702   7.551
39732SOL    HW121093   0.684  10.663   7.638
39732SOL    HW221094   0.656  10.792   7.564
39733SOL     OW21095   8.529   5.975   3.969
39733SOL    HW121096   8.471   5.903   3.946
39733SOL    HW221097   8.503   5.998   4.059
39734SOL     OW21098  12.837   7.206   1.874
39734SOL    HW121099  12.792   7.209   1.789
39734SOL    HW221100  12.777   7.250   1.934
39735SOL     OW21101   5.919   5.496  13.029
39735SOL    HW121102   6.000   5.486  13.080
39735SOL    HW221103   5.878   5.576  13.064
39736SOL     OW21104  13.467  13.999   7.965
39736SOL    HW121105  13.541  13.941   7.949
39736SOL    HW221106  13.406  13.946   8.016
39737SOL     OW21107   0.062   6.168   6.798
39737SOL    HW121108  14.858   6.125   6.799
39737SOL    HW221109   0.051   6.243   6.857
39738SOL     OW21110   6.575   2.434   5.009
39738SOL    HW121111   6.495   2.443   5.060
39738SOL    HW221112   6.554   2.473   4.924
39739SOL     OW21113   9.162  14.874   5.048
39739SOL    HW121114   9.118  14.792   5.067
39739SOL    HW221115   9.236  14.850   4.991
39740SOL     OW21116   3.593   8.152   4.078
39740SOL    HW121117   3.608   8.235   4.034
39740SOL    HW221118   3.660   8.093   4.044
39741SOL     OW21119   7.258   2.555   7.792
39741SOL    HW121120   7.192   2.599   7.845
39741SOL    HW221121   7.209   2.489   7.742
39742SOL     OW21122  11.348   2.764   4.790
39742SOL    HW121123  11.315   2.711   4.862
39742SOL    HW221124  11.443   2.760   4.799
39743SOL     OW21125  12.297  10.103  10.262
39743SOL    HW121126  12.372  10.059  10.302
39743SOL    HW221127  12.332  10.188  10.235
39744SOL     OW21128   6.558   9.622  12.004
39744SOL    HW121129   6.520   9.646  11.919
39744SOL    HW221130   6.488   9.638  12.067
39745SOL     OW21131   5.603   0.927  12.591
39745SOL    HW121132   5.585   1.021  12.590
39745SOL    HW221133   5.681   0.919  12.646
39746SOL     OW21134   8.348  14.348   9.789
39746SOL    HW121135   8.350  14.376   9.880
39746SOL    HW221136   8.256  14.355   9.763
39747SOL     OW21137   6.692   0.575   2.943
39747SOL    HW121138   6.676   0.607   3.032
39747SOL    HW221139   6.613   0.599   2.894
39748SOL     OW21140  10.140   3.892  12.116
39748SOL    HW121141  10.151   3.819  12.177
39748SOL    HW221142  10.144   3.970  12.171
39749SOL     OW21143  11.482  12.688   7.294
39749SOL    HW121144  11.482  12.773   7.339
39749SOL    HW221145  11.520  12.627   7.357
39750SOL     OW21146  14.743   3.037   1.930
39750SOL    HW121147  14.689   2.986   1.870
39750SOL    HW221148  14.827   3.047   1.884
39751SOL     OW21149   1.583   5.920   3.159
39751SOL    HW121150   1.561   6.002   3.203
39751SOL    HW221151   1.643   5.876   3.219
39752SOL     OW21152   4.585   0.725   0.131
39752SOL    HW121153   4.546   0.685   0.053
39752SOL    HW221154   4.652   0.663   0.159
39753SOL     OW21155   0.382  13.379   0.587
39753SOL    HW121156   0.453  13.432   0.552
39753SOL    HW221157   0.307  13.437   0.589
39754SOL     OW21158   0.409   5.441  10.395
39754SOL    HW121159   0.453   5.483  10.469
39754SOL    HW221160   0.357   5.372  10.434
39755SOL     OW21161   6.235  12.840   4.934
39755SOL    HW121162   6.310  12.790   4.965
39755SOL    HW221163   6.273  12.905   4.875
39756SOL     OW21164  10.728   6.006   1.013
39756SOL    HW121165  10.710   5.916   0.986
39756SOL    HW221166  10.676   6.017   1.093
39757SOL     OW21167  12.382   9.195   5.546
39757SOL    HW121168  12.290   9.188   5.571
39757SOL    HW221169  12.381   9.241   5.463
39758SOL     OW21170  12.180  11.412   6.189
39758SOL    HW121171  12.206  11.344   6.250
39758SOL    HW221172  12.260  11.433   6.140
39759SOL     OW21173   1.972  13.411   5.825
39759SOL    HW121174   1.930  13.491   5.857
39759SOL    HW221175   2.034  13.443   5.759
39760SOL     OW21176   7.955   8.688   3.609
39760SOL    HW121177   8.002   8.645   3.537
39760SOL    HW221178   7.867   8.704   3.574
39761SOL     OW21179  11.170  11.941   3.307
39761SOL    HW121180  11.240  11.969   3.366
39761SOL    HW221181  11.216  11.896   3.236
39762SOL     OW21182  12.980   2.860   9.826
39762SOL    HW121183  12.893   2.893   9.847
39762SOL    HW221184  12.964   2.786   9.767
39763SOL     OW21185   3.292   1.819  13.191
39763SOL    HW121186   3.309   1.828  13.285
39763SOL    HW221187   3.218   1.758  13.186
39764SOL     OW21188   7.969   8.902  14.824
39764SOL    HW121189   8.021   8.953   0.005
39764SOL    HW221190   7.974   8.953  14.743
39765SOL     OW21191   6.692  10.190   1.255
39765SOL    HW121192   6.720  10.278   1.276
39765SOL    HW221193   6.719  10.137   1.331
39766SOL     OW21194   5.477  10.672   5.493
39766SOL    HW121195   5.481  10.714   5.407
39766SOL    HW221196   5.522  10.589   5.482
39767SOL     OW21197  11.025  12.295  10.972
39767SOL    HW121198  11.109  12.263  11.004
39767SOL    HW221199  10.977  12.216  10.946
39768SOL     OW21200   1.584   3.322   2.523
39768SOL    HW121201   1.515   3.301   2.460
39768SOL    HW221202   1.638   3.243   2.527
39769SOL     OW21203   5.062   3.691   5.505
39769SOL    HW121204   5.023   3.613   5.545
39769SOL    HW221205   4.987   3.747   5.484
39770SOL     OW21206   2.823   2.228   4.573
39770SOL    HW121207   2.770   2.183   4.639
39770SOL    HW221208   2.835   2.316   4.609
39771SOL     OW21209   7.795   2.048   0.418
39771SOL    HW121210   7.786   2.138   0.387
39771SOL    HW221211   7.709   2.008   0.404
39772SOL     OW21212   2.624   1.357  12.838
39772SOL    HW121213   2.574   1.439  12.843
39772SOL    HW221214   2.563   1.294  12.800
39773SOL     OW21215  13.472   5.112   1.487
39773SOL    HW121216  13.561   5.146   1.496
39773SOL    HW221217  13.434   5.163   1.415
39774SOL     OW21218   3.935   9.599   1.571
39774SOL    HW121219   3.884   9.670   1.532
39774SOL    HW221220   3.945   9.535   1.501
39775SOL     OW21221   9.880   3.960   9.111
39775SOL    HW121222   9.876   4.047   9.072
39775SOL    HW221223   9.937   3.970   9.187
39776SOL     OW21224   3.848   3.451  13.965
39776SOL    HW121225   3.811   3.539  13.957
39776SOL    HW221226   3.773   3.395  13.986
39777SOL     OW21227   9.489   6.210  13.089
39777SOL    HW121228   9.458   6.207  12.999
39777SOL    HW221229   9.584   6.206  13.083
39778SOL     OW21230  12.370  10.521  12.225
39778SOL    HW121231  12.441  10.572  12.184
39778SOL    HW221232  12.401  10.430  12.221
39779SOL     OW21233   0.154  10.685  14.489
39779SOL    HW121234   0.246  10.670  14.507
39779SOL    HW221235   0.129  10.757  14.547
39780SOL     OW21236   4.707   9.596   2.057
39780SOL    HW121237   4.682   9.611   1.965
39780SOL    HW221238   4.778   9.532   2.052
39781SOL     OW21239  13.742   3.431  12.079
39781SOL    HW121240  13.828   3.393  12.099
39781SOL    HW221241  13.701   3.444  12.165
39782SOL     OW21242  10.661  11.520  12.136
39782SOL    HW121243  10.645  11.561  12.051
39782SOL    HW221244  10.696  11.433  12.115
39783SOL     OW21245  14.811   9.979   9.070
39783SOL    HW121246  14.854   9.981   8.985
39783SOL    HW221247  14.774  10.067   9.080
39784SOL     OW21248   2.478   5.137   4.794
39784SOL    HW121249   2.397   5.186   4.804
39784SOL    HW221250   2.496   5.102   4.882
39785SOL     OW21251  10.525   0.267   7.624
39785SOL    HW121252  10.508   0.174   7.613
39785SOL    HW221253  10.621   0.274   7.626
39786SOL     OW21254   5.006  14.567   4.394
39786SOL    HW121255   5.057  14.646   4.410
39786SOL    HW221256   4.971  14.543   4.480
39787SOL     OW21257   7.220   0.086   5.561
39787SOL    HW121258   7.293   0.148   5.562
39787SOL    HW221259   7.255   0.008   5.605
39788SOL     OW21260   5.004   4.801   1.257
39788SOL    HW121261   4.912   4.776   1.261
39788SOL    HW221262   5.047   4.727   1.212
39789SOL     OW21263   6.909   9.050   0.959
39789SOL    HW121264   6.896   8.959   0.934
39789SOL    HW221265   6.948   9.091   0.881
39790SOL     OW21266   6.252   2.612   8.127
39790SOL    HW121267   6.294   2.679   8.180
39790SOL    HW221268   6.271   2.530   8.173
39791SOL     OW21269   0.501   8.534   8.961
39791SOL    HW121270   0.413   8.513   8.928
39791SOL    HW221271   0.491   8.621   9.000
39792SOL     OW21272  11.670  11.910  14.274
39792SOL    HW121273  11.755  11.938  14.309
39792SOL    HW221274  11.691  11.841  14.211
39793SOL     OW21275  11.143   1.017   8.375
39793SOL    HW121276  11.077   1.028   8.306
39793SOL    HW221277  11.100   1.049   8.454
39794SOL     OW21278   0.375   0.167  13.317
39794SOL    HW121279   0.323   0.090  13.294
39794SOL    HW221280   0.311   0.236  13.334
39795SOL     OW21281   5.061  12.052   5.920
39795SOL    HW121282   5.015  11.986   5.972
39795SOL    HW221283   5.003  12.127   5.918
39796SOL     OW21284  12.605   0.286   3.384
39796SOL    HW121285  12.557   0.341   3.323
39796SOL    HW221286  12.696   0.293   3.355
39797SOL     OW21287   4.816   1.662   0.827
39797SOL    HW121288   4.773   1.655   0.742
39797SOL    HW221289   4.862   1.579   0.838
39798SOL     OW21290   8.461   3.870   0.556
39798SOL    HW121291   8.371   3.899   0.544
39798SOL    HW221292   8.468   3.791   0.502
39799SOL     OW21293   0.400  13.314   8.700
39799SOL    HW121294   0.326  13.296   8.641
39799SOL    HW221295   0.451  13.380   8.653
39800SOL     OW21296   3.471  11.277  14.024
39800SOL    HW121297   3.425  11.240  13.948
39800SOL    HW221298   3.556  11.303  13.990
39801SOL     OW21299  14.359  13.425   4.902
39801SOL    HW121300  14.269  13.406   4.874
39801SOL    HW221301  14.372  13.370   4.979
39802SOL     OW21302   4.927  10.529   2.605
39802SOL    HW121303   4.885  10.518   2.519
39802SOL    HW221304   4.902  10.450   2.653
39803SOL     OW21305   4.727   2.009  12.540
39803SOL    HW121306   4.785   1.935  12.525
39803SOL    HW221307   4.774   2.084  12.502
39804SOL     OW21308   3.344   6.540   8.341
39804SOL    HW121309   3.413   6.513   8.280
39804SOL    HW221310   3.265   6.497   8.308
39805SOL     OW21311  13.569   6.173   6.230
39805SOL    HW121312  13.630   6.113   6.187
39805SOL    HW221313  13.619   6.210   6.303
39806SOL     OW21314  12.263  12.322   5.854
39806SOL    HW121315  12.330  12.358   5.797
39806SOL    HW221316  12.249  12.389   5.920
39807SOL     OW21317  14.493   9.834   6.790
39807SOL    HW121318  14.505   9.886   6.870
39807SOL    HW221319  14.535   9.750   6.810
39808SOL     OW21320   4.906   1.702   8.936
39808SOL    HW121321   4.908   1.798   8.930
39808SOL    HW221322   4.899   1.673   8.845
39809SOL     OW21323   3.658   1.293   5.104
39809SOL    HW121324   3.625   1.250   5.183
39809SOL    HW221325   3.600   1.263   5.034
39810SOL     OW21326   7.037   3.879  13.921
39810SOL    HW121327   6.944   3.881  13.899
39810SOL    HW221328   7.081   3.865  13.838
39811SOL     OW21329   3.044   6.232  12.770
39811SOL    HW121330   2.989   6.174  12.718
39811SOL    HW221331   3.064   6.182  12.849
39812SOL     OW21332   8.904   5.099   6.675
39812SOL    HW121333   8.824   5.089   6.725
39812SOL    HW221334   8.974   5.084   6.738
39813SOL     OW21335   6.739   4.983  14.692
39813SOL    HW121336   6.812   4.999  14.752
39813SOL    HW221337   6.780   4.969  14.607
39814SOL     OW21338   6.541   1.013   0.156
39814SOL    HW121339   6.530   1.067   0.234
39814SOL    HW221340   6.576   0.930   0.190
39815SOL     OW21341   2.920   3.731   6.138
39815SOL    HW121342   2.888   3.730   6.048
39815SOL    HW221343   2.986   3.800   6.139
39816SOL     OW21344   6.528  12.742   7.303
39816SOL    HW121345   6.525  12.797   7.225
39816SOL    HW221346   6.597  12.678   7.285
39817SOL     OW21347   9.924  13.327   9.335
39817SOL    HW121348   9.996  13.347   9.275
39817SOL    HW221349   9.923  13.401   9.396
39818SOL     OW21350   2.942   3.744   3.632
39818SOL    HW121351   2.946   3.649   3.623
39818SOL    HW221352   2.935   3.759   3.727
39819SOL     OW21353   8.860  11.881   5.938
39819SOL    HW121354   8.855  11.820   5.864
39819SOL    HW221355   8.950  11.874   5.969
39820SOL     OW21356  10.524  10.729   9.071
39820SOL    HW121357  10.437  10.760   9.050
39820SOL    HW221358  10.583  10.795   9.034
39821SOL     OW21359  12.365   1.446   7.748
39821SOL    HW121360  12.284   1.438   7.798
39821SOL    HW221361  12.353   1.387   7.674
39822SOL     OW21362   6.151  14.123   0.427
39822SOL    HW121363   6.180  14.091   0.513
39822SOL    HW221364   6.159  14.218   0.433
39823SOL     OW21365   4.698   8.691  12.259
39823SOL    HW121366   4.761   8.654  12.197
39823SOL    HW221367   4.640   8.745  12.205
39824SOL     OW21368   7.939   9.052   4.527
39824SOL    HW121369   7.856   9.032   4.570
39824SOL    HW221370   8.002   9.059   4.599
39825SOL     OW21371   8.452  14.337   4.141
39825SOL    HW121372   8.457  14.255   4.091
39825SOL    HW221373   8.519  14.393   4.102
39826SOL     OW21374  12.350   4.427  13.125
39826SOL    HW121375  12.329   4.511  13.084
39826SOL    HW221376  12.438   4.441  13.163
39827SOL     OW21377  12.218   6.206   2.902
39827SOL    HW121378  12.127   6.234   2.895
39827SOL    HW221379  12.217   6.113   2.878
39828SOL     OW21380  14.312   6.330   6.200
39828SOL    HW121381  14.335   6.239   6.179
39828SOL    HW221382  14.363   6.350   6.279
39829SOL     OW21383  10.477  13.441  11.227
39829SOL    HW121384  10.437  13.432  11.141
39829SOL    HW221385  10.530  13.362  11.237
39830SOL     OW21386  13.991   9.099   9.147
39830SOL    HW121387  14.079   9.092   9.111
39830SOL    HW221388  13.975   9.013   9.186
39831SOL     OW21389   9.309   2.168   2.751
39831SOL    HW121390   9.398   2.177   2.718
39831SOL    HW221391   9.290   2.074   2.745
39832SOL     OW21392   1.621   3.836   5.110
39832SOL    HW121393   1.681   3.909   5.125
39832SOL    HW221394   1.618   3.790   5.194
39833SOL     OW21395  13.525  14.536   1.142
39833SOL    HW121396  13.517  14.474   1.069
39833SOL    HW221397  13.611  14.576   1.131
39834SOL     OW21398  11.836  13.031   1.467
39834SOL    HW121399  11.820  13.094   1.396
39834SOL    HW221400  11.932  13.024   1.471
39835SOL     OW21401  10.076  14.423  14.571
39835SOL    HW121402  10.131  14.499  14.589
39835SOL    HW221403   9.990  14.447  14.605
39836SOL     OW21404   2.511   8.014   0.302
39836SOL    HW121405   2.481   7.983   0.216
39836SOL    HW221406   2.462   7.961   0.364
39837SOL     OW21407  13.038   9.540   4.044
39837SOL    HW121408  13.020   9.449   4.020
39837SOL    HW221409  13.035   9.587   3.961
39838SOL     OW21410   7.830   0.225   2.485
39838SOL    HW121411   7.848   0.147   2.538
39838SOL    HW221412   7.842   0.298   2.546
39839SOL     OW21413   8.039   5.876   3.934
39839SOL    HW121414   8.071   5.845   4.018
39839SOL    HW221415   8.107   5.934   3.901
39840SOL     OW21416   3.193   7.259  11.255
39840SOL    HW121417   3.244   7.178  11.249
39840SOL    HW221418   3.149   7.265  11.170
39841SOL     OW21419   7.003   7.025  12.999
39841SOL    HW121420   7.091   7.033  12.961
39841SOL    HW221421   6.945   7.016  12.924
39842SOL     OW21422   3.972  13.964   5.711
39842SOL    HW121423   3.944  14.038   5.656
39842SOL    HW221424   3.967  13.997   5.800
39843SOL     OW21425   9.662  11.436  12.189
39843SOL    HW121426   9.705  11.355  12.163
39843SOL    HW221427   9.718  11.506  12.155
39844SOL     OW21428   7.532   2.318   3.485
39844SOL    HW121429   7.495   2.403   3.464
39844SOL    HW221430   7.460   2.256   3.474
39845SOL     OW21431   3.902   5.795  12.477
39845SOL    HW121432   3.904   5.884  12.442
39845SOL    HW221433   3.988   5.759  12.457
39846SOL     OW21434  13.073  12.576   9.251
39846SOL    HW121435  13.140  12.512   9.227
39846SOL    HW221436  13.095  12.602   9.340
39847SOL     OW21437   5.956   7.796   5.346
39847SOL    HW121438   5.968   7.759   5.434
39847SOL    HW221439   5.994   7.884   5.353
39848SOL     OW21440   6.183  13.505   0.761
39848SOL    HW121441   6.097  13.545   0.771
39848SOL    HW221442   6.209  13.480   0.850
39849SOL     OW21443  10.793   2.584  12.143
39849SOL    HW121444  10.830   2.664  12.179
39849SOL    HW221445  10.701   2.586  12.169
39850SOL     OW21446  12.942   9.933   0.897
39850SOL    HW121447  13.013   9.992   0.919
39850SOL    HW221448  12.862   9.984   0.912
39851SOL     OW21449   9.603   7.508   1.652
39851SOL    HW121450   9.634   7.508   1.562
39851SOL    HW221451   9.677   7.476   1.703
39852SOL     OW21452   3.168   3.657   6.535
39852SOL    HW121453   3.134   3.643   6.623
39852SOL    HW221454   3.094   3.637   6.477
39853SOL     OW21455   3.268   5.860  11.719
39853SOL    HW121456   3.258   5.765  11.707
39853SOL    HW221457   3.246   5.875  11.811
39854SOL     OW21458   5.671   2.937   0.100
39854SOL    HW121459   5.653   2.876   0.028
39854SOL    HW221460   5.716   3.011   0.059
39855SOL     OW21461   0.006   7.550   7.299
39855SOL    HW121462   0.086   7.503   7.320
39855SOL    HW221463  14.819   7.485   7.311
39856SOL     OW21464   8.261   3.031   0.029
39856SOL    HW121465   8.344   3.067   0.059
39856SOL    HW221466   8.253   3.060  14.820
39857SOL     OW21467   7.423  14.477   7.490
39857SOL    HW121468   7.455  14.434   7.410
39857SOL    HW221469   7.331  14.497   7.472
39858SOL     OW21470   1.680   2.295   2.776
39858SOL    HW121471   1.645   2.368   2.724
39858SOL    HW221472   1.604   2.263   2.825
39859SOL     OW21473  14.850   2.979   9.782
39859SOL    HW121474   0.057   2.982   9.817
39859SOL    HW221475  14.795   3.004   9.855
39860SOL     OW21476  12.372   0.929   6.741
39860SOL    HW121477  12.403   0.839   6.737
39860SOL    HW221478  12.284   0.926   6.704
39861SOL     OW21479   8.579  13.074   9.079
39861SOL    HW121480   8.594  13.157   9.123
39861SOL    HW221481   8.541  13.097   8.995
39862SOL     OW21482   3.043   6.134   1.449
39862SOL    HW121483   3.019   6.131   1.542
39862SOL    HW221484   2.973   6.087   1.404
39863SOL     OW21485   6.493   4.295   6.277
39863SOL    HW121486   6.519   4.340   6.358
39863SOL    HW221487   6.404   4.265   6.295
39864SOL     OW21488  13.474  10.067   5.246
39864SOL    HW121489  13.548  10.098   5.298
39864SOL    HW221490  13.447  10.144   5.196
39865SOL     OW21491   3.772   6.491   7.227
39865SOL    HW121492   3.716   6.427   7.271
39865SOL    HW221493   3.751   6.481   7.135
39866SOL     OW21494   0.377   6.386   9.035
39866SOL    HW121495   0.351   6.356   8.948
39866SOL    HW221496   0.334   6.327   9.096
39867SOL     OW21497  10.766   5.847   8.714
39867SOL    HW121498  10.713   5.855   8.636
39867SOL    HW221499  10.725   5.776   8.764
39868SOL     OW21500   6.508   5.660  13.508
39868SOL    HW121501   6.533   5.752  13.513
39868SOL    HW221502   6.454   5.644  13.585
39869SOL     OW21503   0.292   3.313   0.002
39869SOL    HW121504   0.381   3.280  14.872
39869SOL    HW221505   0.304   3.399   0.043
39870SOL     OW21506   6.033   3.706   9.658
39870SOL    HW121507   6.108   3.649   9.674
39870SOL    HW221508   6.064   3.794   9.677
39871SOL     OW21509   5.618  11.039  11.940
39871SOL    HW121510   5.560  11.085  11.880
39871SOL    HW221511   5.588  10.949  11.939
39872SOL     OW21512   3.409  11.690   9.197
39872SOL    HW121513   3.403  11.763   9.136
39872SOL    HW221514   3.327  11.693   9.246
39873SOL     OW21515  11.259  13.849   5.492
39873SOL    HW121516  11.169  13.842   5.524
39873SOL    HW221517  11.268  13.941   5.465
39874SOL     OW21518  10.557   0.138  11.551
39874SOL    HW121519  10.480   0.153  11.496
39874SOL    HW221520  10.600   0.061  11.513
39875SOL     OW21521  14.240   2.313  13.061
39875SOL    HW121522  14.268   2.378  13.126
39875SOL    HW221523  14.250   2.229  13.106
39876SOL     OW21524   7.572   8.068  13.132
39876SOL    HW121525   7.655   8.020  13.129
39876SOL    HW221526   7.597   8.158  13.111
39877SOL     OW21527   3.660  11.012   6.041
39877SOL    HW121528   3.596  10.963   5.990
39877SOL    HW221529   3.692  10.950   6.106
39878SOL     OW21530   8.555   7.785   9.655
39878SOL    HW121531   8.638   7.761   9.697
39878SOL    HW221532   8.552   7.730   9.576
39879SOL     OW21533   5.138  12.599   6.532
39879SOL    HW121534   5.145  12.518   6.483
39879SOL    HW221535   5.228  12.619   6.558
39880SOL     OW21536  10.693   6.042   4.107
39880SOL    HW121537  10.724   6.072   4.192
39880SOL    HW221538  10.734   5.957   4.095
39881SOL     OW21539   3.441   8.707   7.629
39881SOL    HW121540   3.530   8.695   7.662
39881SOL    HW221541   3.389   8.643   7.677
39882SOL     OW21542   4.882  14.208   4.386
39882SOL    HW121543   4.802  14.240   4.345
39882SOL    HW221544   4.865  14.215   4.480
39883SOL     OW21545  14.088   3.903   1.470
39883SOL    HW121546  14.100   3.998   1.472
39883SOL    HW221547  14.113   3.874   1.557
39884SOL     OW21548   1.119   0.499   5.773
39884SOL    HW121549   1.083   0.414   5.747
39884SOL    HW221550   1.046   0.543   5.818
39885SOL     OW21551  11.854   9.837  10.122
39885SOL    HW121552  11.810   9.914  10.158
39885SOL    HW221553  11.823   9.832  10.032
39886SOL     OW21554   0.470  14.748  12.809
39886SOL    HW121555   0.521  14.784  12.737
39886SOL    HW221556   0.483  14.653  12.802
39887SOL     OW21557   9.235  11.055   8.440
39887SOL    HW121558   9.275  10.997   8.504
39887SOL    HW221559   9.275  11.141   8.457
39888SOL     OW21560  10.336  13.291   8.629
39888SOL    HW121561  10.408  13.253   8.679
39888SOL    HW221562  10.375  13.314   8.545
39889SOL     OW21563   7.515   2.062   6.500
39889SOL    HW121564   7.496   1.982   6.548
39889SOL    HW221565   7.511   2.132   6.566
39890SOL     OW21566   0.915  14.540  12.345
39890SOL    HW121567   0.949  14.568  12.261
39890SOL    HW221568   0.879  14.453  12.329
39891SOL     OW21569   3.123   3.121   1.057
39891SOL    HW121570   3.075   3.068   1.120
39891SOL    HW221571   3.145   3.202   1.105
39892SOL     OW21572   8.492   4.096   8.699
39892SOL    HW121573   8.572   4.112   8.649
39892SOL    HW221574   8.422   4.129   8.642
39893SOL     OW21575   3.582  10.796   2.834
39893SOL    HW121576   3.584  10.708   2.796
39893SOL    HW221577   3.667  10.834   2.811
39894SOL     OW21578   0.603  11.271   0.416
39894SOL    HW121579   0.622  11.282   0.323
39894SOL    HW221580   0.657  11.196   0.442
39895SOL     OW21581   9.426   3.035  13.793
39895SOL    HW121582   9.390   3.091  13.724
39895SOL    HW221583   9.413   2.946  13.761
39896SOL     OW21584   8.268   7.944  12.441
39896SOL    HW121585   8.347   7.903  12.406
39896SOL    HW221586   8.209   7.950  12.367
39897SOL     OW21587   7.109   8.197   5.119
39897SOL    HW121588   7.193   8.227   5.154
39897SOL    HW221589   7.132   8.128   5.057
39898SOL     OW21590   3.479   9.020  10.232
39898SOL    HW121591   3.456   9.098  10.182
39898SOL    HW221592   3.400   8.967  10.232
39899SOL     OW21593   4.151  10.060  10.904
39899SOL    HW121594   4.237  10.098  10.889
39899SOL    HW221595   4.160  10.012  10.987
39900SOL     OW21596   9.073   4.971   8.869
39900SOL    HW121597   8.993   4.983   8.920
39900SOL    HW221598   9.045   4.978   8.778
39901SOL     OW21599   8.683   7.239   4.507
39901SOL    HW121600   8.618   7.185   4.462
39901SOL    HW221601   8.766   7.213   4.467
39902SOL     OW21602  12.489   0.236   5.445
39902SOL    HW121603  12.481   0.182   5.366
39902SOL    HW221604  12.518   0.321   5.412
39903SOL     OW21605  13.363   6.648   7.312
39903SOL    HW121606  13.347   6.741   7.329
39903SOL    HW221607  13.298   6.603   7.366
39904SOL     OW21608  13.304  12.988   2.084
39904SOL    HW121609  13.218  12.981   2.042
39904SOL    HW221610  13.285  13.023   2.171
39905SOL     OW21611   5.951  11.851   6.885
39905SOL    HW121612   5.934  11.833   6.978
39905SOL    HW221613   5.943  11.766   6.842
39906SOL     OW21614   6.826   9.248   5.187
39906SOL    HW121615   6.883   9.174   5.204
39906SOL    HW221616   6.873   9.324   5.222
39907SOL     OW21617  13.301   4.787   8.399
39907SOL    HW121618  13.328   4.795   8.491
39907SOL    HW221619  13.218   4.740   8.401
39908SOL     OW21620  11.217   7.593  10.757
39908SOL    HW121621  11.224   7.552  10.844
39908SOL    HW221622  11.299   7.641  10.747
39909SOL     OW21623   0.390   2.328   4.490
39909SOL    HW121624   0.341   2.247   4.476
39909SOL    HW221625   0.368   2.383   4.415
39910SOL     OW21626   9.738   8.349  10.404
39910SOL    HW121627   9.828   8.352  10.437
39910SOL    HW221628   9.683   8.358  10.481
39911SOL     OW21629  10.346   8.338  11.487
39911SOL    HW121630  10.401   8.262  11.504
39911SOL    HW221631  10.257   8.303  11.488
39912SOL     OW21632  10.640   8.803   3.254
39912SOL    HW121633  10.650   8.775   3.345
39912SOL    HW221634  10.552   8.774   3.230
39913SOL     OW21635   3.797   9.331  12.957
39913SOL    HW121636   3.885   9.346  12.990
39913SOL    HW221637   3.788   9.235  12.954
39914SOL     OW21638  10.040   2.957  12.862
39914SOL    HW121639  10.071   3.023  12.924
39914SOL    HW221640  10.069   2.989  12.776
39915SOL     OW21641   9.997   8.729   5.910
39915SOL    HW121642   9.941   8.804   5.929
39915SOL    HW221643  10.005   8.683   5.994
39916SOL     OW21644  13.410   5.878   8.763
39916SOL    HW121645  13.504   5.863   8.749
39916SOL    HW221646  13.391   5.957   8.713
39917SOL     OW21647   5.168   6.520   8.305
39917SOL    HW121648   5.215   6.587   8.256
39917SOL    HW221649   5.076   6.533   8.281
39918SOL     OW21650  14.713  12.281  12.437
39918SOL    HW121651  14.756  12.204  12.472
39918SOL    HW221652  14.724  12.348  12.505
39919SOL     OW21653  13.806   8.989   1.097
39919SOL    HW121654  13.752   8.910   1.095
39919SOL    HW221655  13.858   8.985   1.017
39920SOL     OW21656   1.173  11.619   3.974
39920SOL    HW121657   1.158  11.684   4.042
39920SOL    HW221658   1.187  11.537   4.021
39921SOL     OW21659   7.728   2.164   1.667
39921SOL    HW121660   7.786   2.120   1.729
39921SOL    HW221661   7.675   2.093   1.629
39922SOL     OW21662   3.429  11.415  14.428
39922SOL    HW121663   3.456  11.325  14.442
39922SOL    HW221664   3.436  11.428  14.334
39923SOL     OW21665   0.135  10.895  14.692
39923SOL    HW121666   0.072  10.963  14.713
39923SOL    HW221667   0.188  10.886  14.771
39924SOL     OW21668   4.781   3.194  11.258
39924SOL    HW121669   4.849   3.131  11.281
39924SOL    HW221670   4.805   3.225  11.170
39925SOL     OW21671   5.296   0.453   1.835
39925SOL    HW121672   5.354   0.377   1.834
39925SOL    HW221673   5.248   0.447   1.752
39926SOL     OW21674   0.177   7.506   1.094
39926SOL    HW121675   0.252   7.447   1.094
39926SOL    HW221676   0.108   7.458   1.138
39927SOL     OW21677   2.764   1.268   4.541
39927SOL    HW121678   2.723   1.355   4.539
39927SOL    HW221679   2.854   1.283   4.510
39928SOL     OW21680   0.440  10.265   4.715
39928SOL    HW121681   0.508  10.246   4.650
39928SOL    HW221682   0.366  10.296   4.663
39929SOL     OW21683   1.281   5.532  10.783
39929SOL    HW121684   1.341   5.604  10.806
39929SOL    HW221685   1.328   5.453  10.808
39930SOL     OW21686   3.507   8.730   8.389
39930SOL    HW121687   3.533   8.638   8.400
39930SOL    HW221688   3.548   8.756   8.307
39931SOL     OW21689  10.151   9.663   9.285
39931SOL    HW121690  10.146   9.734   9.349
39931SOL    HW221691  10.181   9.705   9.204
39932SOL     OW21692   7.381   2.737  13.489
39932SOL    HW121693   7.412   2.805  13.428
39932SOL    HW221694   7.370   2.659  13.434
39933SOL     OW21695   0.015  12.806   5.006
39933SOL    HW121696  14.870  12.897   4.990
39933SOL    HW221697   0.013  12.797   5.101
39934SOL     OW21698   6.481  11.152   8.555
39934SOL    HW121699   6.451  11.154   8.464
39934SOL    HW221700   6.572  11.180   8.551
39935SOL     OW21701  12.395  11.908  13.731
39935SOL    HW121702  12.405  11.961  13.652
39935SOL    HW221703  12.337  11.959  13.788
39936SOL     OW21704  13.806   9.176   9.345
39936SOL    HW121705  13.859   9.175   9.425
39936SOL    HW221706  13.864   9.144   9.277
39937SOL     OW21707   2.080  12.279   4.436
39937SOL    HW121708   2.102  12.327   4.516
39937SOL    HW221709   2.156  12.223   4.419
39938SOL     OW21710  10.258   2.636   0.590
39938SOL    HW121711  10.216   2.645   0.504
39938SOL    HW221712  10.185   2.633   0.652
39939SOL     OW21713   7.060   0.035  13.094
39939SOL    HW121714   6.998  14.857  13.135
39939SOL    HW221715   7.059   0.011  13.001
39940SOL     OW21716   6.506  14.760   2.117
39940SOL    HW121717   6.450  14.788   2.189
39940SOL    HW221718   6.503  14.832   2.054
39941SOL     OW21719  13.758   8.649  14.269
39941SOL    HW121720  13.773   8.567  14.221
39941SOL    HW221721  13.802   8.715  14.216
39942SOL     OW21722   1.758   3.767   4.217
39942SOL    HW121723   1.789   3.728   4.135
39942SOL    HW221724   1.720   3.695   4.265
39943SOL     OW21725   1.100   4.189   4.967
39943SOL    HW121726   1.128   4.277   4.944
39943SOL    HW221727   1.181   4.139   4.973
39944SOL     OW21728   7.840   5.135  11.720
39944SOL    HW121729   7.789   5.068  11.675
39944SOL    HW221730   7.812   5.130  11.811
39945SOL     OW21731  13.576  12.416   9.868
39945SOL    HW121732  13.562  12.416   9.773
39945SOL    HW221733  13.537  12.498   9.898
39946SOL     OW21734   8.580   9.984   4.742
39946SOL    HW121735   8.600  10.045   4.813
39946SOL    HW221736   8.618  10.026   4.664
39947SOL     OW21737  14.752   2.027  13.207
39947SOL    HW121738  14.754   2.049  13.301
39947SOL    HW221739  14.773   1.934  13.205
39948SOL     OW21740   6.175   5.758   5.182
39948SOL    HW121741   6.118   5.691   5.220
39948SOL    HW221742   6.185   5.823   5.251
39949SOL     OW21743   1.801   1.702   0.444
39949SOL    HW121744   1.775   1.611   0.429
39949SOL    HW221745   1.897   1.699   0.445
39950SOL     OW21746   0.693  14.596  14.435
39950SOL    HW121747   0.686  14.509  14.473
39950SOL    HW221748   0.725  14.652  14.506
39951SOL     OW21749   1.856   6.187  14.112
39951SOL    HW121750   1.934   6.179  14.167
39951SOL    HW221751   1.803   6.255  14.155
39952SOL     OW21752   9.683   7.589   7.156
39952SOL    HW121753   9.681   7.681   7.128
39952SOL    HW221754   9.772   7.576   7.188
39953SOL     OW21755   4.097  14.666   0.798
39953SOL    HW121756   4.079  14.573   0.814
39953SOL    HW221757   4.174  14.666   0.740
39954SOL     OW21758   4.202   3.814   5.388
39954SOL    HW121759   4.107   3.805   5.401
39954SOL    HW221760   4.222   3.903   5.416
39955SOL     OW21761   0.585   3.187  13.367
39955SOL    HW121762   0.522   3.189  13.295
39955SOL    HW221763   0.624   3.274  13.367
39956SOL     OW21764   3.622  12.569  12.386
39956SOL    HW121765   3.630  12.623  12.464
39956SOL    HW221766   3.711  12.566  12.350
39957SOL     OW21767  13.101  11.782   3.660
39957SOL    HW121768  13.148  11.814   3.583
39957SOL    HW221769  13.016  11.755   3.626
39958SOL     OW21770   6.632  10.573   7.265
39958SOL    HW121771   6.622  10.518   7.188
39958SOL    HW221772   6.633  10.662   7.231
39959SOL     OW21773   2.480   2.630   6.227
39959SOL    HW121774   2.523   2.588   6.153
39959SOL    HW221775   2.545   2.693   6.260
39960SOL     OW21776   6.916  14.476   9.481
39960SOL    HW121777   7.007  14.502   9.468
39960SOL    HW221778   6.903  14.482   9.576
39961SOL     OW21779  11.998  11.209   5.009
39961SOL    HW121780  11.963  11.258   4.934
39961SOL    HW221781  11.924  11.204   5.070
39962SOL     OW21782   3.190   2.334   0.557
39962SOL    HW121783   3.156   2.245   0.566
39962SOL    HW221784   3.142   2.384   0.624
39963SOL     OW21785   9.775  13.186  12.418
39963SOL    HW121786   9.680  13.181  12.405
39963SOL    HW221787   9.796  13.278  12.402
39964SOL     OW21788   2.972   1.407   9.989
39964SOL    HW121789   3.038   1.340  10.005
39964SOL    HW221790   2.912   1.368   9.925
39965SOL     OW21791   4.880   7.103   5.811
39965SOL    HW121792   4.950   7.040   5.794
39965SOL    HW221793   4.855   7.088   5.902
39966SOL     OW21794   6.337   3.996   3.186
39966SOL    HW121795   6.375   3.908   3.187
39966SOL    HW221796   6.407   4.053   3.219
39967SOL     OW21797   8.474   0.923  13.067
39967SOL    HW121798   8.473   0.830  13.044
39967SOL    HW221799   8.565   0.941  13.090
39968SOL     OW21800   5.548  14.190  13.710
39968SOL    HW121801   5.466  14.223  13.745
39968SOL    HW221802   5.532  14.097  13.694
39969SOL     OW21803   9.464   2.246   4.994
39969SOL    HW121804   9.513   2.304   4.937
39969SOL    HW221805   9.415   2.189   4.934
39970SOL     OW21806   6.584   9.834   9.165
39970SOL    HW121807   6.638   9.755   9.169
39970SOL    HW221808   6.533   9.832   9.246
39971SOL     OW21809   8.317   3.148  11.139
39971SOL    HW121810   8.378   3.135  11.211
39971SOL    HW221811   8.288   3.239  11.148
39972SOL     OW21812  10.709  13.152   3.111
39972SOL    HW121813  10.791  13.104   3.118
39972SOL    HW221814  10.698  13.166   3.017
39973SOL     OW21815  13.685  10.405   0.263
39973SOL    HW121816  13.623  10.358   0.208
39973SOL    HW221817  13.726  10.338   0.317
39974SOL     OW21818   4.644  14.795   5.111
39974SOL    HW121819   4.571  14.857   5.104
39974SOL    HW221820   4.628  14.733   5.039
39975SOL     OW21821  11.270   9.627   5.226
39975SOL    HW121822  11.252   9.563   5.294
39975SOL    HW221823  11.227   9.707   5.256
39976SOL     OW21824  14.227  11.616   4.887
39976SOL    HW121825  14.202  11.573   4.806
39976SOL    HW221826  14.265  11.546   4.940
39977SOL     OW21827  11.598   6.857  10.996
39977SOL    HW121828  11.688   6.848  11.027
39977SOL    HW221829  11.597   6.812  10.912
39978SOL     OW21830  13.662  10.843   8.640
39978SOL    HW121831  13.645  10.755   8.604
39978SOL    HW221832  13.577  10.874   8.669
39979SOL     OW21833   6.632   5.112   9.543
39979SOL    HW121834   6.711   5.127   9.491
39979SOL    HW221835   6.563   5.100   9.478
39980SOL     OW21836   3.957  13.159  12.411
39980SOL    HW121837   3.935  13.172  12.319
39980SOL    HW221838   3.975  13.065  12.418
39981SOL     OW21839   1.666   6.274   1.545
39981SOL    HW121840   1.752   6.303   1.516
39981SOL    HW221841   1.680   6.239   1.633
39982SOL     OW21842   7.232  14.442   7.102
39982SOL    HW121843   7.307  14.391   7.132
39982SOL    HW221844   7.264  14.531   7.092
39983SOL     OW21845   3.533  13.632   5.282
39983SOL    HW121846   3.583  13.552   5.273
39983SOL    HW221847   3.525  13.646   5.376
39984SOL     OW21848   2.334  12.127   1.299
39984SOL    HW121849   2.349  12.116   1.206
39984SOL    HW221850   2.323  12.222   1.311
39985SOL     OW21851  11.005   8.131  11.383
39985SOL    HW121852  11.066   8.196  11.348
39985SOL    HW221853  10.937   8.182  11.427
39986SOL     OW21854   4.604   1.461   9.878
39986SOL    HW121855   4.664   1.513   9.931
39986SOL    HW221856   4.660   1.405   9.824
39987SOL     OW21857   3.547   8.078   7.467
39987SOL    HW121858   3.467   8.065   7.416
39987SOL    HW221859   3.526   8.147   7.529
39988SOL     OW21860   2.335  13.255   5.633
39988SOL    HW121861   2.285  13.237   5.712
39988SOL    HW221862   2.346  13.169   5.592
39989SOL     OW21863   7.432   7.158   0.956
39989SOL    HW121864   7.444   7.156   1.051
39989SOL    HW221865   7.495   7.223   0.925
39990SOL     OW21866   5.047  11.921   2.008
39990SOL    HW121867   5.123  11.884   2.052
39990SOL    HW221868   4.973  11.898   2.064
39991SOL     OW21869   7.340   0.026  11.767
39991SOL    HW121870   7.340   0.086  11.693
39991SOL    HW221871   7.319   0.080  11.843
39992SOL     OW21872  13.964   2.616   8.829
39992SOL    HW121873  13.938   2.615   8.921
39992SOL    HW221874  13.889   2.581   8.782
39993SOL     OW21875   5.968  11.132   0.124
39993SOL    HW121876   5.983  11.102   0.034
39993SOL    HW221877   6.004  11.063   0.179
39994SOL     OW21878  10.930   5.282   5.072
39994SOL    HW121879  10.846   5.295   5.115
39994SOL    HW221880  10.912   5.296   4.979
39995SOL     OW21881   1.614   9.171  12.365
39995SOL    HW121882   1.646   9.091  12.324
39995SOL    HW221883   1.528   9.185  12.325
39996SOL     OW21884   4.756   2.457   9.582
39996SOL    HW121885   4.754   2.393   9.511
39996SOL    HW221886   4.752   2.542   9.537
39997SOL     OW21887   7.552  10.573   9.817
39997SOL    HW121888   7.537  10.479   9.824
39997SOL    HW221889   7.645  10.584   9.837
39998SOL     OW21890   1.148   0.810   3.905
39998SOL    HW121891   1.138   0.894   3.950
39998SOL    HW221892   1.211   0.827   3.835
39999SOL     OW21893   1.589   3.557   2.113
39999SOL    HW121894   1.550   3.633   2.070
39999SOL    HW221895   1.678   3.553   2.078
40000SOL     OW21896   0.719  14.054   0.828
40000SOL    HW121897   0.732  13.978   0.886
40000SOL    HW221898   0.766  14.031   0.748
40001SOL     OW21899   3.729   9.829  13.149
40001SOL    HW121900   3.781   9.763  13.195
40001SOL    HW221901   3.707   9.788  13.066
40002SOL     OW21902  12.289  11.393   1.619
40002SOL    HW121903  12.303  11.426   1.708
40002SOL    HW221904  12.290  11.472   1.564
40003SOL     OW21905  10.325  13.033   6.527
40003SOL    HW121906  10.321  12.945   6.490
40003SOL    HW221907  10.345  13.018   6.620
40004SOL     OW21908   2.118   3.150   0.579
40004SOL    HW121909   2.051   3.191   0.524
40004SOL    HW221910   2.103   3.056   0.569
40005SOL     OW21911   9.916  11.900   2.445
40005SOL    HW121912   9.855  11.949   2.390
40005SOL    HW221913   9.882  11.810   2.444
40006SOL     OW21914   3.183   1.511  14.729
40006SOL    HW121915   3.264   1.472  14.695
40006SOL    HW221916   3.207   1.601  14.749
40007SOL     OW21917   7.870  14.326   1.796
40007SOL    HW121918   7.781  14.290   1.794
40007SOL    HW221919   7.887  14.342   1.889
40008SOL     OW21920   1.796  12.462   2.414
40008SOL    HW121921   1.751  12.546   2.401
40008SOL    HW221922   1.888  12.482   2.400
40009SOL     OW21923   4.876   5.320   0.577
40009SOL    HW121924   4.929   5.400   0.580
40009SOL    HW221925   4.889   5.280   0.663
40010SOL     OW21926   3.949   4.393   9.182
40010SOL    HW121927   4.040   4.405   9.155
40010SOL    HW221928   3.928   4.303   9.156
40011SOL     OW21929   8.496   3.036   1.979
40011SOL    HW121930   8.527   2.950   2.006
40011SOL    HW221931   8.472   3.080   2.061
40012SOL     OW21932  13.639   5.592   9.560
40012SOL    HW121933  13.598   5.589   9.473
40012SOL    HW221934  13.568   5.617   9.619
40013SOL     OW21935   6.390   1.090   9.288
40013SOL    HW121936   6.304   1.048   9.291
40013SOL    HW221937   6.417   1.083   9.197
40014SOL     OW21938   3.596   0.327   8.550
40014SOL    HW121939   3.593   0.422   8.544
40014SOL    HW221940   3.508   0.302   8.579
40015SOL     OW21941  13.742   4.179  12.876
40015SOL    HW121942  13.764   4.179  12.783
40015SOL    HW221943  13.793   4.251  12.912
40016SOL     OW21944  14.023   0.161  12.936
40016SOL    HW121945  14.078   0.235  12.959
40016SOL    HW221946  13.968   0.147  13.013
40017SOL     OW21947   4.835   9.896  14.599
40017SOL    HW121948   4.858   9.987  14.585
40017SOL    HW221949   4.869   9.850  14.522
40018SOL     OW21950  14.231   9.808  10.854
40018SOL    HW121951  14.320   9.774  10.856
40018SOL    HW221952  14.195   9.785  10.940
40019SOL     OW21953   0.429  13.011   6.157
40019SOL    HW121954   0.405  12.920   6.172
40019SOL    HW221955   0.424  13.023   6.063
40020SOL     OW21956  11.185  13.809  14.743
40020SOL    HW121957  11.220  13.895  14.720
40020SOL    HW221958  11.173  13.765  14.659
40021SOL     OW21959  10.342   6.748   3.879
40021SOL    HW121960  10.376   6.747   3.789
40021SOL    HW221961  10.306   6.661   3.892
40022SOL     OW21962   0.757   9.548   2.532
40022SOL    HW121963   0.771   9.478   2.596
40022SOL    HW221964   0.713   9.505   2.459
40023SOL     OW21965   2.524   7.712   1.548
40023SOL    HW121966   2.460   7.748   1.610
40023SOL    HW221967   2.484   7.724   1.462
40024SOL     OW21968  10.299   5.535   2.473
40024SOL    HW121969  10.321   5.446   2.500
40024SOL    HW221970  10.378   5.567   2.431
40025SOL     OW21971   2.164   8.163  10.843
40025SOL    HW121972   2.177   8.096  10.910
40025SOL    HW221973   2.099   8.126  10.784
40026SOL     OW21974   8.067   4.723  10.589
40026SOL    HW121975   8.144   4.763  10.629
40026SOL    HW221976   8.101   4.672  10.516
40027SOL     OW21977   0.837  10.973   2.176
40027SOL    HW121978   0.824  11.061   2.211
40027SOL    HW221979   0.788  10.916   2.235
40028SOL     OW21980   6.325   7.754  14.357
40028SOL    HW121981   6.398   7.693  14.345
40028SOL    HW221982   6.339   7.791  14.444
40029SOL     OW21983  11.556   8.912   3.454
40029SOL    HW121984  11.536   8.914   3.547
40029SOL    HW221985  11.587   9.000   3.434
40030SOL     OW21986   8.627   5.462   2.773
40030SOL    HW121987   8.639   5.495   2.684
40030SOL    HW221988   8.636   5.367   2.765
40031SOL     OW21989   6.510  12.839   5.401
40031SOL    HW121990   6.596  12.820   5.364
40031SOL    HW221991   6.499  12.933   5.390
40032SOL     OW21992   6.485   0.672   8.945
40032SOL    HW121993   6.526   0.758   8.950
40032SOL    HW221994   6.539   0.624   8.881
40033SOL     OW21995   2.106   1.822   1.588
40033SOL    HW121996   2.021   1.864   1.602
40033SOL    HW221997   2.156   1.845   1.667
40034SOL     OW21998  13.423   0.241  11.460
40034SOL    HW121999  13.343   0.209  11.501
40034SOL    HW222000  13.412   0.336  11.457
40035SOL     OW22001   9.785  13.881   2.311
40035SOL    HW122002   9.733  13.826   2.370
40035SOL    HW222003   9.876  13.866   2.338
40036SOL     OW22004   9.149  11.578   2.736
40036SOL    HW122005   9.239  11.555   2.713
40036SOL    HW222006   9.149  11.586   2.831
40037SOL     OW22007  10.724  13.470  13.642
40037SOL    HW122008  10.782  13.489  13.716
40037SOL    HW222009  10.772  13.406  13.589
40038SOL     OW22010   5.096   0.742   0.070
40038SOL    HW122011   5.103   0.720   0.163
40038SOL    HW222012   5.091   0.657   0.026
40039SOL     OW22013   6.704  11.671  11.708
40039SOL    HW122014   6.755  11.729  11.765
40039SOL    HW222015   6.702  11.588  11.754
40040SOL     OW22016   4.852  13.919   7.720
40040SOL    HW122017   4.916  13.969   7.770
40040SOL    HW222018   4.768  13.942   7.760
40041SOL     OW22019  13.167   7.341   4.073
40041SOL    HW122020  13.156   7.384   3.988
40041SOL    HW222021  13.082   7.349   4.115
40042SOL     OW22022   9.040  12.607   1.049
40042SOL    HW122023   8.946  12.621   1.056
40042SOL    HW222024   9.076  12.649   1.127
40043SOL     OW22025   1.451   6.128   3.360
40043SOL    HW122026   1.504   6.174   3.295
40043SOL    HW222027   1.439   6.192   3.430
40044SOL     OW22028  14.134  13.816  11.613
40044SOL    HW122029  14.197  13.745  11.598
40044SOL    HW222030  14.049  13.771  11.616
40045SOL     OW22031   4.278   8.814  11.620
40045SOL    HW122032   4.301   8.768  11.701
40045SOL    HW222033   4.347   8.790  11.558
40046SOL     OW22034   5.157  10.876   8.720
40046SOL    HW122035   5.117  10.796   8.685
40046SOL    HW222036   5.085  10.923   8.762
40047SOL     OW22037   9.029   9.562   5.732
40047SOL    HW122038   9.094   9.615   5.778
40047SOL    HW222039   8.982   9.515   5.801
40048SOL     OW22040  12.447  13.741   8.427
40048SOL    HW122041  12.459  13.738   8.332
40048SOL    HW222042  12.485  13.825   8.453
40049SOL     OW22043   8.697   1.507   0.229
40049SOL    HW122044   8.773   1.491   0.174
40049SOL    HW222045   8.666   1.594   0.202
40050SOL     OW22046   6.798   4.413   7.812
40050SOL    HW122047   6.814   4.506   7.828
40050SOL    HW222048   6.871   4.369   7.856
40051SOL     OW22049   5.118   2.370   6.517
40051SOL    HW122050   5.093   2.278   6.525
40051SOL    HW222051   5.039   2.414   6.487
40052SOL     OW22052   4.379   2.964   6.204
40052SOL    HW122053   4.284   2.953   6.203
40052SOL    HW222054   4.413   2.881   6.171
40053SOL     OW22055   2.761   7.841   7.058
40053SOL    HW122056   2.831   7.830   6.994
40053SOL    HW222057   2.807   7.855   7.141
40054SOL     OW22058   8.843  13.599   1.053
40054SOL    HW122059   8.891  13.642   0.982
40054SOL    HW222060   8.903  13.599   1.127
40055SOL     OW22061  10.972  14.310   2.856
40055SOL    HW122062  10.967  14.251   2.781
40055SOL    HW222063  11.058  14.350   2.849
40056SOL     OW22064   4.566  12.736   4.897
40056SOL    HW122065   4.511  12.707   4.970
40056SOL    HW222066   4.654  12.742   4.935
40057SOL     OW22067   8.347  12.628   2.459
40057SOL    HW122068   8.309  12.705   2.417
40057SOL    HW222069   8.274  12.590   2.508
40058SOL     OW22070  11.042   5.333  14.416
40058SOL    HW122071  10.985   5.387  14.361
40058SOL    HW222072  11.100   5.395  14.460
40059SOL     OW22073  11.772   2.562   8.902
40059SOL    HW122074  11.714   2.487   8.887
40059SOL    HW222075  11.730   2.634   8.856
40060SOL     OW22076   8.936   5.469   4.805
40060SOL    HW122077   8.852   5.481   4.850
40060SOL    HW222078   9.000   5.511   4.862
40061SOL     OW22079   9.841   3.702   9.284
40061SOL    HW122080   9.855   3.750   9.202
40061SOL    HW222081   9.762   3.650   9.268
40062SOL     OW22082   4.730   6.868   3.993
40062SOL    HW122083   4.715   6.956   4.029
40062SOL    HW222084   4.778   6.883   3.912
40063SOL     OW22085   5.214  14.440   3.079
40063SOL    HW122086   5.170  14.359   3.104
40063SOL    HW222087   5.190  14.452   2.987
40064SOL     OW22088  14.422   8.635   0.453
40064SOL    HW122089  14.392   8.557   0.501
40064SOL    HW222090  14.399   8.616   0.362
40065SOL     OW22091  13.260   7.807  11.483
40065SOL    HW122092  13.188   7.857  11.522
40065SOL    HW222093  13.231   7.716  11.488
40066SOL     OW22094   5.835  13.568  11.739
40066SOL    HW122095   5.792  13.575  11.824
40066SOL    HW222096   5.772  13.606  11.678
40067SOL     OW22097  10.721   4.245   9.049
40067SOL    HW122098  10.777   4.186   8.999
40067SOL    HW222099  10.697   4.194   9.127
40068SOL     OW22100   8.547   3.342  14.645
40068SOL    HW122101   8.521   3.424  14.688
40068SOL    HW222102   8.482   3.278  14.675
40069SOL     OW22103   6.703   4.743   3.099
40069SOL    HW122104   6.796   4.743   3.078
40069SOL    HW222105   6.699   4.770   3.190
40070SOL     OW22106   5.123   8.409   9.100
40070SOL    HW122107   5.172   8.420   9.181
40070SOL    HW222108   5.105   8.315   9.095
40071SOL     OW22109   4.356  14.258  11.362
40071SOL    HW122110   4.403  14.266  11.279
40071SOL    HW222111   4.377  14.339  11.409
40072SOL     OW22112   0.519   9.279   7.347
40072SOL    HW122113   0.551   9.364   7.316
40072SOL    HW222114   0.558   9.268   7.433
40073SOL     OW22115  13.700   1.297  11.263
40073SOL    HW122116  13.679   1.231  11.329
40073SOL    HW222117  13.616   1.318  11.222
40074SOL     OW22118  11.964  12.444   2.977
40074SOL    HW122119  11.871  12.458   2.996
40074SOL    HW222120  12.009  12.480   3.053
40075SOL     OW22121   5.989  10.786   6.746
40075SOL    HW122122   6.068  10.784   6.800
40075SOL    HW222123   5.964  10.694   6.737
40076SOL     OW22124   8.890   5.641   0.351
40076SOL    HW122125   8.968   5.615   0.301
40076SOL    HW222126   8.826   5.572   0.334
40077SOL     OW22127   0.371   0.360   6.737
40077SOL    HW122128   0.308   0.396   6.799
40077SOL    HW222129   0.410   0.285   6.784
40078SOL     OW22130   3.107   7.587  12.109
40078SOL    HW122131   3.048   7.511  12.108
40078SOL    HW222132   3.151   7.582  12.194
40079SOL     OW22133   0.559   0.519  12.998
40079SOL    HW122134   0.591   0.429  13.002
40079SOL    HW222135   0.526   0.529  12.909
40080SOL     OW22136   6.461   1.756   4.609
40080SOL    HW122137   6.509   1.681   4.573
40080SOL    HW222138   6.410   1.720   4.681
40081SOL     OW22139   6.090   9.211   1.780
40081SOL    HW122140   6.024   9.159   1.825
40081SOL    HW222141   6.059   9.301   1.787
40082SOL     OW22142   7.161   4.521  10.048
40082SOL    HW122143   7.070   4.491  10.049
40082SOL    HW222144   7.183   4.528   9.955
40083SOL     OW22145   9.988  12.543   0.320
40083SOL    HW122146   9.906  12.504   0.351
40083SOL    HW222147  10.021  12.481   0.255
40084SOL     OW22148   9.913   0.972   2.040
40084SOL    HW122149   9.862   0.891   2.038
40084SOL    HW222150   9.942   0.984   1.950
40085SOL     OW22151  12.382   2.901   9.094
40085SOL    HW122152  12.326   2.953   9.152
40085SOL    HW222153  12.338   2.904   9.009
40086SOL     OW22154   2.669   9.567  14.399
40086SOL    HW122155   2.602   9.554  14.332
40086SOL    HW222156   2.750   9.540  14.357
40087SOL     OW22157   6.694   9.732   8.700
40087SOL    HW122158   6.779   9.772   8.683
40087SOL    HW222159   6.714   9.644   8.731
40088SOL     OW22160  11.959   1.581   1.551
40088SOL    HW122161  11.919   1.497   1.571
40088SOL    HW222162  11.975   1.578   1.456
40089SOL     OW22163   1.994   0.516   8.646
40089SOL    HW122164   2.068   0.514   8.585
40089SOL    HW222165   2.029   0.562   8.723
40090SOL     OW22166   0.263   3.689   9.413
40090SOL    HW122167   0.249   3.619   9.477
40090SOL    HW222168   0.183   3.741   9.415
40091SOL     OW22169   1.333   2.408  11.493
40091SOL    HW122170   1.325   2.503  11.496
40091SOL    HW222171   1.420   2.393  11.456
40092SOL     OW22172  14.165   0.667  12.982
40092SOL    HW122173  14.233   0.641  12.920
40092SOL    HW222174  14.213   0.693  13.061
40093SOL     OW22175   4.767   3.120   9.632
40093SOL    HW122176   4.703   3.051   9.617
40093SOL    HW222177   4.826   3.085   9.699
40094SOL     OW22178   3.522   2.630   8.880
40094SOL    HW122179   3.541   2.569   8.809
40094SOL    HW222180   3.458   2.584   8.935
40095SOL     OW22181   0.300   1.533  12.633
40095SOL    HW122182   0.252   1.613  12.609
40095SOL    HW222183   0.388   1.564  12.655
40096SOL     OW22184   1.487   6.579   4.706
40096SOL    HW122185   1.416   6.618   4.758
40096SOL    HW222186   1.564   6.633   4.726
40097SOL     OW22187   6.782   9.572   4.457
40097SOL    HW122188   6.825   9.600   4.377
40097SOL    HW222189   6.753   9.654   4.498
40098SOL     OW22190  13.138   1.158   2.747
40098SOL    HW122191  13.180   1.242   2.726
40098SOL    HW222192  13.091   1.175   2.828
40099SOL     OW22193   1.150  14.745   9.909
40099SOL    HW122194   1.087  14.716   9.843
40099SOL    HW222195   1.195  14.664   9.936
40100SOL     OW22196   5.340  11.644  13.697
40100SOL    HW122197   5.290  11.698  13.759
40100SOL    HW222198   5.348  11.560  13.741
40101SOL     OW22199  11.826   5.767  14.145
40101SOL    HW122200  11.848   5.781  14.237
40101SOL    HW222201  11.745   5.818  14.132
40102SOL     OW22202  10.629  10.553   5.045
40102SOL    HW122203  10.586  10.615   5.104
40102SOL    HW222204  10.722  10.571   5.055
40103SOL     OW22205  14.324   5.759   8.281
40103SOL    HW122206  14.303   5.668   8.262
40103SOL    HW222207  14.361   5.793   8.199
40104SOL     OW22208  14.746   4.646   2.002
40104SOL    HW122209  14.813   4.579   2.013
40104SOL    HW222210  14.674   4.600   1.958
40105SOL     OW22211   2.578  12.075  11.213
40105SOL    HW122212   2.596  12.059  11.305
40105SOL    HW222213   2.560  11.988  11.176
40106SOL     OW22214  11.955  13.397   3.253
40106SOL    HW122215  11.977  13.410   3.346
40106SOL    HW222216  11.920  13.481   3.224
40107SOL     OW22217  12.381  12.352   8.597
40107SOL    HW122218  12.453  12.355   8.660
40107SOL    HW222219  12.364  12.443   8.576
40108SOL     OW22220  13.868  10.194   9.707
40108SOL    HW122221  13.871  10.140   9.786
40108SOL    HW222222  13.776  10.193   9.680
40109SOL     OW22223   8.453   3.105  10.000
40109SOL    HW122224   8.489   3.190  10.025
40109SOL    HW222225   8.505   3.078   9.924
40110SOL     OW22226   3.824   7.975  14.376
40110SOL    HW122227   3.862   7.899  14.332
40110SOL    HW222228   3.730   7.958  14.377
40111SOL     OW22229  14.443   4.895   6.794
40111SOL    HW122230  14.467   4.921   6.883
40111SOL    HW222231  14.393   4.814   6.805
40112SOL     OW22232  14.030  10.664   5.417
40112SOL    HW122233  14.101  10.715   5.378
40112SOL    HW222234  14.057  10.648   5.507
40113SOL     OW22235  10.034  13.872   0.420
40113SOL    HW122236  10.005  13.788   0.456
40113SOL    HW222237  10.033  13.931   0.495
40114SOL     OW22238  14.374   4.549  11.771
40114SOL    HW122239  14.351   4.604  11.697
40114SOL    HW222240  14.290   4.517  11.804
40115SOL     OW22241  13.316   8.961   9.047
40115SOL    HW122242  13.247   9.023   9.071
40115SOL    HW222243  13.396   9.012   9.049
40116SOL     OW22244  12.365   8.142   9.235
40116SOL    HW122245  12.429   8.113   9.169
40116SOL    HW222246  12.280   8.115   9.199
40117SOL     OW22247   8.365   4.012   3.884
40117SOL    HW122248   8.456   3.998   3.908
40117SOL    HW222249   8.356   3.970   3.798
40118SOL     OW22250   8.463  13.438   4.052
40118SOL    HW122251   8.469  13.445   3.957
40118SOL    HW222252   8.378  13.476   4.074
40119SOL     OW22253   1.388   0.999   5.144
40119SOL    HW122254   1.394   0.918   5.093
40119SOL    HW222255   1.317   0.983   5.206
40120SOL     OW22256   6.184   5.300   5.194
40120SOL    HW122257   6.171   5.280   5.101
40120SOL    HW222258   6.095   5.302   5.230
40121SOL     OW22259  11.256   0.166   1.179
40121SOL    HW122260  11.180   0.132   1.131
40121SOL    HW222261  11.229   0.252   1.210
40122SOL     OW22262   0.994   2.468  12.726
40122SOL    HW122263   0.977   2.383  12.685
40122SOL    HW222264   1.059   2.509  12.670
40123SOL     OW22265  10.722   2.774   5.933
40123SOL    HW122266  10.645   2.727   5.901
40123SOL    HW222267  10.712   2.863   5.899
40124SOL     OW22268   5.048   9.991   7.748
40124SOL    HW122269   5.021  10.065   7.803
40124SOL    HW222270   4.976   9.981   7.685
40125SOL     OW22271  10.580  11.442   7.380
40125SOL    HW122272  10.496  11.470   7.343
40125SOL    HW222273  10.617  11.384   7.314
40126SOL     OW22274   4.435   7.078  14.777
40126SOL    HW122275   4.447   7.171  14.757
40126SOL    HW222276   4.482   7.032  14.708
40127SOL     OW22277   2.347  14.053  12.628
40127SOL    HW122278   2.269  14.074  12.680
40127SOL    HW222279   2.329  14.091  12.542
40128SOL     OW22280   4.962   9.479   7.301
40128SOL    HW122281   4.982   9.396   7.258
40128SOL    HW222282   4.877   9.505   7.266
40129SOL     OW22283  11.542   8.830  12.339
40129SOL    HW122284  11.453   8.832  12.305
40129SOL    HW222285  11.586   8.904  12.297
40130SOL     OW22286   6.247   4.512  13.826
40130SOL    HW122287   6.332   4.489  13.788
40130SOL    HW222288   6.215   4.430  13.863
40131SOL     OW22289   9.827   7.860  10.566
40131SOL    HW122290   9.899   7.798  10.571
40131SOL    HW222291   9.765   7.820  10.505
40132SOL     OW22292  12.786   8.309   3.320
40132SOL    HW122293  12.818   8.235   3.372
40132SOL    HW222294  12.727   8.355   3.378
40133SOL     OW22295   9.103  14.380   5.293
40133SOL    HW122296   9.153  14.373   5.375
40133SOL    HW222297   9.039  14.309   5.297
40134SOL     OW22298   1.763   4.082   7.959
40134SOL    HW122299   1.723   4.034   7.887
40134SOL    HW222300   1.857   4.079   7.941
40135SOL     OW22301   0.051   6.761   1.555
40135SOL    HW122302  14.840   6.744   1.542
40135SOL    HW222303   0.072   6.828   1.490
40136SOL     OW22304  14.774   5.360   8.586
40136SOL    HW122305  14.734   5.326   8.666
40136SOL    HW222306  14.722   5.437   8.564
40137SOL     OW22307   8.932  11.275  14.038
40137SOL    HW122308   9.006  11.329  14.063
40137SOL    HW222309   8.969  11.188  14.022
40138SOL     OW22310   9.501   7.075   3.367
40138SOL    HW122311   9.553   7.143   3.410
40138SOL    HW222312   9.460   7.118   3.292
40139SOL     OW22313  10.431   5.584  11.629
40139SOL    HW122314  10.347   5.590  11.675
40139SOL    HW222315  10.473   5.668  11.646
40140SOL     OW22316   9.931   4.752   6.521
40140SOL    HW122317   9.983   4.782   6.595
40140SOL    HW222318   9.843   4.786   6.538
40141SOL     OW22319   2.885   9.015   6.231
40141SOL    HW122320   2.956   8.974   6.280
40141SOL    HW222321   2.930   9.081   6.177
40142SOL     OW22322   8.698  12.186   0.950
40142SOL    HW122323   8.703  12.133   1.031
40142SOL    HW222324   8.604  12.195   0.933
40143SOL     OW22325  13.608  11.345   5.136
40143SOL    HW122326  13.647  11.285   5.072
40143SOL    HW222327  13.668  11.344   5.210
40144SOL     OW22328   3.714  13.937   1.800
40144SOL    HW122329   3.622  13.959   1.814
40144SOL    HW222330   3.762  13.998   1.857
40145SOL     OW22331   8.672  12.982   1.891
40145SOL    HW122332   8.751  12.978   1.836
40145SOL    HW222333   8.604  13.017   1.833
40146SOL     OW22334   0.460   7.429  11.555
40146SOL    HW122335   0.507   7.494  11.505
40146SOL    HW222336   0.371   7.431  11.519
40147SOL     OW22337   0.545   2.707   8.526
40147SOL    HW122338   0.612   2.652   8.487
40147SOL    HW222339   0.499   2.746   8.452
40148SOL     OW22340   3.588  13.778   7.525
40148SOL    HW122341   3.538  13.804   7.448
40148SOL    HW222342   3.601  13.684   7.516
40149SOL     OW22343  11.235   3.763   9.162
40149SOL    HW122344  11.162   3.822   9.144
40149SOL    HW222345  11.313   3.819   9.157
40150SOL     OW22346   4.468   7.413   1.005
40150SOL    HW122347   4.534   7.380   1.066
40150SOL    HW222348   4.505   7.397   0.918
40151SOL     OW22349   6.639   5.483   1.281
40151SOL    HW122350   6.642   5.558   1.340
40151SOL    HW222351   6.716   5.492   1.226
40152SOL     OW22352  14.559   5.315   2.237
40152SOL    HW122353  14.619   5.257   2.188
40152SOL    HW222354  14.616   5.381   2.275
40153SOL     OW22355   3.805   8.570  14.754
40153SOL    HW122356   3.874   8.636  14.749
40153SOL    HW222357   3.843   8.499  14.804
40154SOL     OW22358   7.664  11.356  12.328
40154SOL    HW122359   7.723  11.284  12.351
40154SOL    HW222360   7.603  11.318  12.264
40155SOL     OW22361  13.311  14.845   7.446
40155SOL    HW122362  13.217  14.837   7.464
40155SOL    HW222363  13.327  14.783   7.374
40156SOL     OW22364  14.187   0.570  12.700
40156SOL    HW122365  14.108   0.624  12.710
40156SOL    HW222366  14.154   0.480  12.698
40157SOL     OW22367  12.451  14.261   1.537
40157SOL    HW122368  12.445  14.228   1.627
40157SOL    HW222369  12.507  14.339   1.544
40158SOL     OW22370   9.642  13.737   2.469
40158SOL    HW122371   9.694  13.710   2.545
40158SOL    HW222372   9.577  13.669   2.458
40159SOL     OW22373  12.625   1.059   1.795
40159SOL    HW122374  12.614   1.116   1.871
40159SOL    HW222375  12.581   0.978   1.819
40160SOL     OW22376  12.519   1.628  11.503
40160SOL    HW122377  12.567   1.546  11.493
40160SOL    HW222378  12.483   1.645  11.416
40161SOL     OW22379   0.721  12.392   3.280
40161SOL    HW122380   0.732  12.486   3.265
40161SOL    HW222381   0.710  12.384   3.375
40162SOL     OW22382  14.486  11.525   9.785
40162SOL    HW122383  14.556  11.460   9.776
40162SOL    HW222384  14.497  11.559   9.874
40163SOL     OW22385  10.132  14.821   6.132
40163SOL    HW122386  10.155  14.779   6.215
40163SOL    HW222387  10.210  14.870   6.108
40164SOL     OW22388   0.747  12.733   4.356
40164SOL    HW122389   0.800  12.709   4.433
40164SOL    HW222390   0.658  12.707   4.380
40165SOL     OW22391   2.087   8.035   3.541
40165SOL    HW122392   2.022   8.071   3.480
40165SOL    HW222393   2.045   7.956   3.577
40166SOL     OW22394  11.154   9.768   1.506
40166SOL    HW122395  11.245   9.784   1.481
40166SOL    HW222396  11.147   9.673   1.512
40167SOL     OW22397   4.920  13.082  13.075
40167SOL    HW122398   4.924  13.039  12.990
40167SOL    HW222399   4.902  13.174  13.055
40168SOL     OW22400   0.865  13.909   4.613
40168SOL    HW122401   0.818  13.981   4.570
40168SOL    HW222402   0.870  13.935   4.704
40169SOL     OW22403   4.410   9.655  14.185
40169SOL    HW122404   4.317   9.666  14.204
40169SOL    HW222405   4.413   9.636  14.091
40170SOL     OW22406   4.188   5.606  10.346
40170SOL    HW122407   4.161   5.571  10.431
40170SOL    HW222408   4.161   5.539  10.282
40171SOL     OW22409   4.812   1.583  10.005
40171SOL    HW122410   4.841   1.656   9.950
40171SOL    HW222411   4.886   1.566  10.063
40172SOL     OW22412   2.056  10.359  10.613
40172SOL    HW122413   2.060  10.383  10.520
40172SOL    HW222414   1.968  10.384  10.640
40173SOL     OW22415   8.871   9.773   7.130
40173SOL    HW122416   8.946   9.750   7.185
40173SOL    HW222417   8.805   9.804   7.192
40174SOL     OW22418   8.438  10.641   8.066
40174SOL    HW122419   8.502  10.680   8.006
40174SOL    HW222420   8.393  10.576   8.013
40175SOL     OW22421   7.787   9.483   7.878
40175SOL    HW122422   7.699   9.517   7.893
40175SOL    HW222423   7.786   9.395   7.916
40176SOL     OW22424   1.390  10.471  12.878
40176SOL    HW122425   1.387  10.375  12.870
40176SOL    HW222426   1.309  10.500  12.835
40177SOL     OW22427  14.054   4.101   2.549
40177SOL    HW122428  14.060   4.098   2.645
40177SOL    HW222429  14.011   4.184   2.530
40178SOL     OW22430   7.954   1.140  12.586
40178SOL    HW122431   8.003   1.188  12.519
40178SOL    HW222432   7.905   1.075  12.536
40179SOL     OW22433   2.820   8.025  11.753
40179SOL    HW122434   2.823   8.053  11.662
40179SOL    HW222435   2.885   8.080  11.797
40180SOL     OW22436  10.058   9.718   0.087
40180SOL    HW122437  10.111   9.797   0.075
40180SOL    HW222438   9.984   9.747   0.140
40181SOL     OW22439  14.596   7.818   3.387
40181SOL    HW122440  14.659   7.841   3.319
40181SOL    HW222441  14.539   7.895   3.393
40182SOL     OW22442   7.654   7.252  11.664
40182SOL    HW122443   7.650   7.279  11.756
40182SOL    HW222444   7.722   7.308  11.626
40183SOL     OW22445  12.145  12.258   7.269
40183SOL    HW122446  12.139  12.206   7.349
40183SOL    HW222447  12.155  12.193   7.199
40184SOL     OW22448   1.014  13.423  12.814
40184SOL    HW122449   0.942  13.389  12.761
40184SOL    HW222450   0.972  13.454  12.895
40185SOL     OW22451  13.057  10.639   6.957
40185SOL    HW122452  12.982  10.579   6.957
40185SOL    HW222453  13.070  10.662   6.865
40186SOL     OW22454   9.911   8.560   0.829
40186SOL    HW122455   9.958   8.572   0.911
40186SOL    HW222456   9.934   8.638   0.777
40187SOL     OW22457   5.710   1.510   6.190
40187SOL    HW122458   5.753   1.426   6.172
40187SOL    HW222459   5.616   1.490   6.187
40188SOL     OW22460   1.294  12.470   8.697
40188SOL    HW122461   1.332  12.557   8.706
40188SOL    HW222462   1.332  12.420   8.770
40189SOL     OW22463   0.391  11.180   0.570
40189SOL    HW122464   0.439  11.221   0.498
40189SOL    HW222465   0.398  11.086   0.553
40190SOL     OW22466   0.772   6.600  13.911
40190SOL    HW122467   0.811   6.687  13.912
40190SOL    HW222468   0.687   6.612  13.868
40191SOL     OW22469   4.681  13.988   1.402
40191SOL    HW122470   4.653  13.910   1.353
40191SOL    HW222471   4.752  14.025   1.350
40192SOL     OW22472  10.243   0.285  11.795
40192SOL    HW122473  10.151   0.292  11.818
40192SOL    HW222474  10.289   0.277  11.879
40193SOL     OW22475   8.710   5.434  10.438
40193SOL    HW122476   8.686   5.374  10.509
40193SOL    HW222477   8.628   5.480  10.418
40194SOL     OW22478   9.774   6.256   6.431
40194SOL    HW122479   9.842   6.212   6.482
40194SOL    HW222480   9.695   6.205   6.448
40195SOL     OW22481  12.550   9.821  11.085
40195SOL    HW122482  12.469   9.859  11.117
40195SOL    HW222483  12.619   9.880  11.116
40196SOL     OW22484  10.488   4.867   5.694
40196SOL    HW122485  10.461   4.791   5.744
40196SOL    HW222486  10.453   4.853   5.606
40197SOL     OW22487   4.154  11.052  12.455
40197SOL    HW122488   4.068  11.047  12.413
40197SOL    HW222489   4.198  10.971  12.429
40198SOL     OW22490   4.593   9.723   5.630
40198SOL    HW122491   4.528   9.793   5.627
40198SOL    HW222492   4.594   9.687   5.542
40199SOL     OW22493   4.377  14.103   1.800
40199SOL    HW122494   4.296  14.151   1.782
40199SOL    HW222495   4.348  14.020   1.838
40200SOL     OW22496   6.760  13.839   3.824
40200SOL    HW122497   6.787  13.895   3.751
40200SOL    HW222498   6.679  13.799   3.794
40201SOL     OW22499   1.784   6.878   5.299
40201SOL    HW122500   1.822   6.921   5.376
40201SOL    HW222501   1.691   6.868   5.320
40202SOL     OW22502  10.840   4.786   9.192
40202SOL    HW122503  10.874   4.705   9.156
40202SOL    HW222504  10.745   4.778   9.184
40203SOL     OW22505   9.011   0.639   6.299
40203SOL    HW122506   9.059   0.652   6.218
40203SOL    HW222507   8.965   0.556   6.286
40204SOL     OW22508   5.035   6.146   7.257
40204SOL    HW122509   4.970   6.091   7.212
40204SOL    HW222510   5.097   6.171   7.188
40205SOL     OW22511   1.828   9.538  14.475
40205SOL    HW122512   1.817   9.443  14.486
40205SOL    HW222513   1.916   9.556  14.508
40206SOL     OW22514   0.427   5.231   6.774
40206SOL    HW122515   0.350   5.187   6.741
40206SOL    HW222516   0.406   5.252   6.865
40207SOL     OW22517   5.511  10.386   2.049
40207SOL    HW122518   5.419  10.376   2.074
40207SOL    HW222519   5.548  10.444   2.116
40208SOL     OW22520   4.915   5.392   1.831
40208SOL    HW122521   4.863   5.426   1.904
40208SOL    HW222522   4.957   5.314   1.866
40209SOL     OW22523   7.120   7.301   0.951
40209SOL    HW122524   7.156   7.280   1.037
40209SOL    HW222525   7.055   7.232   0.935
40210SOL     OW22526   5.288   6.737   8.967
40210SOL    HW122527   5.294   6.761   9.059
40210SOL    HW222528   5.291   6.821   8.920
40211SOL     OW22529  14.586   7.152   1.453
40211SOL    HW122530  14.509   7.210   1.450
40211SOL    HW222531  14.574   7.101   1.533
40212SOL     OW22532  13.696   8.025  13.179
40212SOL    HW122533  13.656   8.014  13.092
40212SOL    HW222534  13.650   8.099  13.217
40213SOL     OW22535   6.874   1.935   5.919
40213SOL    HW122536   6.915   2.022   5.924
40213SOL    HW222537   6.940   1.880   5.875
40214SOL     OW22538   9.359   6.093  10.963
40214SOL    HW122539   9.449   6.064  10.978
40214SOL    HW222540   9.334   6.052  10.881
40215SOL     OW22541   0.246   7.713   3.549
40215SOL    HW122542   0.288   7.636   3.512
40215SOL    HW222543   0.269   7.711   3.642
40216SOL     OW22544  11.058   9.549   5.496
40216SOL    HW122545  11.129   9.510   5.547
40216SOL    HW222546  11.075   9.643   5.498
40217SOL     OW22547   9.243   1.272   8.865
40217SOL    HW122548   9.262   1.354   8.911
40217SOL    HW222549   9.213   1.212   8.934
40218SOL     OW22550  12.314   8.998   8.588
40218SOL    HW122551  12.284   9.058   8.656
40218SOL    HW222552  12.313   8.912   8.630
40219SOL     OW22553   0.697  12.791  13.564
40219SOL    HW122554   0.781  12.801  13.520
40219SOL    HW222555   0.653  12.875  13.551
40220SOL     OW22556  13.793   5.686   1.132
40220SOL    HW122557  13.723   5.748   1.153
40220SOL    HW222558  13.871   5.721   1.176
40221SOL     OW22559   9.327   1.913   1.741
40221SOL    HW122560   9.237   1.930   1.767
40221SOL    HW222561   9.322   1.833   1.688
40222SOL     OW22562   9.342  10.435   9.326
40222SOL    HW122563   9.398  10.460   9.400
40222SOL    HW222564   9.254  10.433   9.362
40223SOL     OW22565  12.879   0.342   5.724
40223SOL    HW122566  12.883   0.357   5.818
40223SOL    HW222567  12.794   0.299   5.710
40224SOL     OW22568   1.389   3.781   3.442
40224SOL    HW122569   1.429   3.722   3.505
40224SOL    HW222570   1.320   3.825   3.492
40225SOL     OW22571   5.250   9.408   9.446
40225SOL    HW122572   5.293   9.375   9.525
40225SOL    HW222573   5.305   9.378   9.374
40226SOL     OW22574   6.887   5.542   2.574
40226SOL    HW122575   6.937   5.483   2.516
40226SOL    HW222576   6.930   5.534   2.659
40227SOL     OW22577   1.257   9.142  13.707
40227SOL    HW122578   1.291   9.071  13.654
40227SOL    HW222579   1.283   9.222  13.661
40228SOL     OW22580   9.020  11.893   4.258
40228SOL    HW122581   8.925  11.893   4.270
40228SOL    HW222582   9.054  11.854   4.338
40229SOL     OW22583   2.261   8.660   3.549
40229SOL    HW122584   2.175   8.660   3.592
40229SOL    HW222585   2.303   8.741   3.578
40230SOL     OW22586   0.175   6.637  12.243
40230SOL    HW122587   0.232   6.667  12.172
40230SOL    HW222588   0.171   6.542  12.231
40231SOL     OW22589  13.871  14.756  14.140
40231SOL    HW122590  13.783  14.757  14.178
40231SOL    HW222591  13.857  14.742  14.047
40232SOL     OW22592  13.373   5.141   5.180
40232SOL    HW122593  13.365   5.235   5.197
40232SOL    HW222594  13.424   5.108   5.254
40233SOL     OW22595  13.445  11.631   2.572
40233SOL    HW122596  13.423  11.723   2.585
40233SOL    HW222597  13.538  11.625   2.596
40234SOL     OW22598  11.344   3.626   0.253
40234SOL    HW122599  11.328   3.580   0.171
40234SOL    HW222600  11.293   3.707   0.246
40235SOL     OW22601  14.176   6.308  14.684
40235SOL    HW122602  14.172   6.400  14.708
40235SOL    HW222603  14.247   6.272  14.736
40236SOL     OW22604   1.532   5.644   5.452
40236SOL    HW122605   1.462   5.692   5.409
40236SOL    HW222606   1.571   5.707   5.513
40237SOL     OW22607   8.278   1.515  12.375
40237SOL    HW122608   8.206   1.500  12.314
40237SOL    HW222609   8.302   1.427  12.405
40238SOL     OW22610   5.881   1.611  14.769
40238SOL    HW122611   5.844   1.685  14.721
40238SOL    HW222612   5.806   1.554  14.785
40239SOL     OW22613   4.397   1.061  11.263
40239SOL    HW122614   4.343   1.113  11.203
40239SOL    HW222615   4.336   0.997  11.300
40240SOL     OW22616  10.814  14.788   5.137
40240SOL    HW122617  10.808  14.774   5.043
40240SOL    HW222618  10.909  14.791   5.155
40241SOL     OW22619  12.182   4.215  10.627
40241SOL    HW122620  12.088   4.213  10.643
40241SOL    HW222621  12.215   4.136  10.669
40242SOL     OW22622   2.390  10.816  14.011
40242SOL    HW122623   2.338  10.741  14.040
40242SOL    HW222624   2.334  10.892  14.029
40243SOL     OW22625   6.417  13.397  13.992
40243SOL    HW122626   6.384  13.387  13.903
40243SOL    HW222627   6.387  13.318  14.038
40244SOL     OW22628  12.694   7.016   1.455
40244SOL    HW122629  12.659   7.102   1.479
40244SOL    HW222630  12.666   7.004   1.364
40245SOL     OW22631  11.666  12.023   5.234
40245SOL    HW122632  11.597  11.975   5.280
40245SOL    HW222633  11.699  11.961   5.169
40246SOL     OW22634  10.170   0.701  14.792
40246SOL    HW122635  10.089   0.723  14.747
40246SOL    HW222636  10.174   0.605  14.788
40247SOL     OW22637   8.348   6.467   5.121
40247SOL    HW122638   8.272   6.515   5.089
40247SOL    HW222639   8.418   6.488   5.060
40248SOL     OW22640  14.259  14.709   4.936
40248SOL    HW122641  14.246  14.798   4.970
40248SOL    HW222642  14.352  14.691   4.952
40249SOL     OW22643  11.669  14.107  14.820
40249SOL    HW122644  11.728  14.072   0.005
40249SOL    HW222645  11.676  14.045  14.748
40250SOL     OW22646   2.275  14.480   1.609
40250SOL    HW122647   2.240  14.512   1.692
40250SOL    HW222648   2.321  14.399   1.632
40251SOL     OW22649   2.223   5.636   1.492
40251SOL    HW122650   2.160   5.623   1.421
40251SOL    HW222651   2.177   5.689   1.556
40252SOL     OW22652   0.591  12.167   5.465
40252SOL    HW122653   0.670  12.116   5.449
40252SOL    HW222654   0.562  12.140   5.552
40253SOL     OW22655   8.195  10.963   8.592
40253SOL    HW122656   8.245  10.927   8.519
40253SOL    HW222657   8.104  10.939   8.572
40254SOL     OW22658   6.396   2.273   6.304
40254SOL    HW122659   6.341   2.352   6.308
40254SOL    HW222660   6.457   2.284   6.377
40255SOL     OW22661   8.097   7.977   2.604
40255SOL    HW122662   8.017   7.927   2.587
40255SOL    HW222663   8.093   8.051   2.543
40256SOL     OW22664   7.722   8.207   9.012
40256SOL    HW122665   7.727   8.292   8.967
40256SOL    HW222666   7.633   8.176   8.994
40257SOL     OW22667  10.439   7.558   1.187
40257SOL    HW122668  10.422   7.548   1.093
40257SOL    HW222669  10.490   7.480   1.210
40258SOL     OW22670   8.378   2.211  11.410
40258SOL    HW122671   8.402   2.130  11.454
40258SOL    HW222672   8.384   2.190  11.316
40259SOL     OW22673   7.178   1.215  13.864
40259SOL    HW122674   7.201   1.163  13.786
40259SOL    HW222675   7.240   1.288  13.862
40260SOL     OW22676   3.637   5.112   5.550
40260SOL    HW122677   3.652   5.174   5.480
40260SOL    HW222678   3.663   5.027   5.514
40261SOL     OW22679  14.687  13.157   1.566
40261SOL    HW122680  14.595  13.131   1.575
40261SOL    HW222681  14.683  13.249   1.539
40262SOL     OW22682   4.522   7.415   3.461
40262SOL    HW122683   4.557   7.448   3.378
40262SOL    HW222684   4.504   7.322   3.445
40263SOL     OW22685  12.484  11.154   4.217
40263SOL    HW122686  12.420  11.191   4.277
40263SOL    HW222687  12.563  11.144   4.269
40264SOL     OW22688  10.568  14.080   1.443
40264SOL    HW122689  10.605  14.073   1.531
40264SOL    HW222690  10.630  14.031   1.388
40265SOL     OW22691  13.682   3.549   8.711
40265SOL    HW122692  13.707   3.621   8.653
40265SOL    HW222693  13.603   3.579   8.755
40266SOL     OW22694   6.353  11.654  13.717
40266SOL    HW122695   6.322  11.733  13.671
40266SOL    HW222696   6.278  11.595  13.716
40267SOL     OW22697  12.309  11.528   5.910
40267SOL    HW122698  12.262  11.542   5.828
40267SOL    HW222699  12.359  11.609   5.924
40268SOL     OW22700   4.851  10.668   0.204
40268SOL    HW122701   4.838  10.749   0.254
40268SOL    HW222702   4.799  10.681   0.124
40269SOL     OW22703   7.098  10.223   9.679
40269SOL    HW122704   7.188  10.235   9.708
40269SOL    HW222705   7.059  10.310   9.686
40270SOL     OW22706  12.589   2.953   7.407
40270SOL    HW122707  12.670   2.902   7.396
40270SOL    HW222708  12.575   2.995   7.322
40271SOL     OW22709   1.594  14.054  14.518
40271SOL    HW122710   1.567  14.141  14.488
40271SOL    HW222711   1.544  13.994  14.463
40272SOL     OW22712   9.489   2.546   6.444
40272SOL    HW122713   9.434   2.502   6.510
40272SOL    HW222714   9.474   2.639   6.460
40273SOL     OW22715   6.834  13.156  11.217
40273SOL    HW122716   6.783  13.234  11.192
40273SOL    HW222717   6.924  13.178  11.192
40274SOL     OW22718   9.516  13.883   7.561
40274SOL    HW122719   9.542  13.800   7.601
40274SOL    HW222720   9.592  13.940   7.574
40275SOL     OW22721   8.752   1.212   3.071
40275SOL    HW122722   8.797   1.292   3.043
40275SOL    HW222723   8.710   1.235   3.154
40276SOL     OW22724   9.280   7.779  13.527
40276SOL    HW122725   9.331   7.858  13.507
40276SOL    HW222726   9.316   7.711  13.470
40277SOL     OW22727   5.303  13.975   1.694
40277SOL    HW122728   5.216  13.936   1.684
40277SOL    HW222729   5.332  13.993   1.604
40278SOL     OW22730   0.754   6.939   0.661
40278SOL    HW122731   0.815   6.948   0.734
40278SOL    HW222732   0.694   6.869   0.687
40279SOL     OW22733   8.235   2.935   6.068
40279SOL    HW122734   8.275   2.868   6.124
40279SOL    HW222735   8.262   2.912   5.979
40280SOL     OW22736  11.472  12.513  11.077
40280SOL    HW122737  11.429  12.469  11.004
40280SOL    HW222738  11.541  12.452  11.105
40281SOL     OW22739  12.555  14.463   2.637
40281SOL    HW122740  12.622  14.506   2.584
40281SOL    HW222741  12.597  14.450   2.722
40282SOL     OW22742   9.591   9.868   5.196
40282SOL    HW122743   9.499   9.849   5.212
40282SOL    HW222744   9.637   9.823   5.266
40283SOL     OW22745   0.058   2.746  11.848
40283SOL    HW122746  14.855   2.778  11.818
40283SOL    HW222747   0.120   2.813  11.819
40284SOL     OW22748  14.610   4.640   3.889
40284SOL    HW122749  14.583   4.731   3.897
40284SOL    HW222750  14.528   4.592   3.874
40285SOL     OW22751   2.345   7.858   8.291
40285SOL    HW122752   2.392   7.803   8.354
40285SOL    HW222753   2.366   7.820   8.206
40286SOL     OW22754   7.363  11.941   0.704
40286SOL    HW122755   7.449  11.974   0.728
40286SOL    HW222756   7.376  11.896   0.621
40287SOL     OW22757   1.675   7.412   1.192
40287SOL    HW122758   1.671   7.503   1.164
40287SOL    HW222759   1.735   7.413   1.267
40288SOL     OW22760   4.035  10.625   4.314
40288SOL    HW122761   3.965  10.560   4.312
40288SOL    HW222762   3.990  10.709   4.304
40289SOL     OW22763   1.596  11.609   8.041
40289SOL    HW122764   1.632  11.525   8.071
40289SOL    HW222765   1.504  11.590   8.024
40290SOL     OW22766  14.875   3.897   0.971
40290SOL    HW122767  14.841   3.981   1.004
40290SOL    HW222768   0.002   3.910   0.876
40291SOL     OW22769  12.222   1.845   3.056
40291SOL    HW122770  12.283   1.888   3.115
40291SOL    HW222771  12.137   1.852   3.100
40292SOL     OW22772  13.357   5.580   2.421
40292SOL    HW122773  13.405   5.497   2.427
40292SOL    HW222774  13.424   5.648   2.427
40293SOL     OW22775   0.267   6.231   5.811
40293SOL    HW122776   0.325   6.212   5.884
40293SOL    HW222777   0.183   6.193   5.837
40294SOL     OW22778   6.368   2.463   2.612
40294SOL    HW122779   6.452   2.497   2.643
40294SOL    HW222780   6.325   2.431   2.692
40295SOL     OW22781  10.024  11.693   8.973
40295SOL    HW122782   9.941  11.728   8.940
40295SOL    HW222783  10.011  11.688   9.068
40296SOL     OW22784   5.968   3.250   7.464
40296SOL    HW122785   5.971   3.163   7.425
40296SOL    HW222786   5.970   3.234   7.559
40297SOL     OW22787   2.671   8.395   2.251
40297SOL    HW122788   2.635   8.484   2.243
40297SOL    HW222789   2.635   8.363   2.334
40298SOL     OW22790   4.208  12.648  14.262
40298SOL    HW122791   4.113  12.649  14.275
40298SOL    HW222792   4.242  12.604  14.340
40299SOL     OW22793   1.160   7.414   6.875
40299SOL    HW122794   1.196   7.490   6.829
40299SOL    HW222795   1.173   7.341   6.815
40300SOL     OW22796   9.854   9.745   8.904
40300SOL    HW122797   9.855   9.716   8.995
40300SOL    HW222798   9.848   9.664   8.853
40301SOL     OW22799  12.438   5.039   9.030
40301SOL    HW122800  12.400   4.968   8.978
40301SOL    HW222801  12.512   5.070   8.978
40302SOL     OW22802   3.875  12.366   4.978
40302SOL    HW122803   3.836  12.453   4.984
40302SOL    HW222804   3.824  12.313   5.039
40303SOL     OW22805   7.813   4.117  11.162
40303SOL    HW122806   7.734   4.152  11.120
40303SOL    HW222807   7.818   4.164  11.245
40304SOL     OW22808   9.599   1.236   7.221
40304SOL    HW122809   9.678   1.182   7.228
40304SOL    HW222810   9.612   1.287   7.141
40305SOL     OW22811   6.804   5.523   0.520
40305SOL    HW122812   6.846   5.480   0.595
40305SOL    HW222813   6.746   5.456   0.484
40306SOL     OW22814   6.542  12.774  11.662
40306SOL    HW122815   6.472  12.781  11.727
40306SOL    HW222816   6.544  12.682  11.637
40307SOL     OW22817   3.718   9.006   9.176
40307SOL    HW122818   3.676   8.934   9.130
40307SOL    HW222819   3.671   9.012   9.259
40308SOL     OW22820  14.188   0.955  10.801
40308SOL    HW122821  14.266   0.910  10.831
40308SOL    HW222822  14.149   0.992  10.880
40309SOL     OW22823  14.469  11.241   7.061
40309SOL    HW122824  14.491  11.315   7.004
40309SOL    HW222825  14.554  11.202   7.083
40310SOL     OW22826   1.397   4.255   7.043
40310SOL    HW122827   1.451   4.284   7.116
40310SOL    HW222828   1.447   4.278   6.965
40311SOL     OW22829   6.960  11.898   2.000
40311SOL    HW122830   6.909  11.903   2.081
40311SOL    HW222831   6.904  11.851   1.938
40312SOL     OW22832   7.678  14.135   5.156
40312SOL    HW122833   7.673  14.041   5.174
40312SOL    HW222834   7.768  14.150   5.129
40313SOL     OW22835   8.380  14.177  14.602
40313SOL    HW122836   8.454  14.170  14.541
40313SOL    HW222837   8.360  14.270  14.604
40314SOL     OW22838   1.091   8.086   9.889
40314SOL    HW122839   1.062   8.174   9.867
40314SOL    HW222840   1.010   8.037   9.903
40315SOL     OW22841   8.146   0.278   9.422
40315SOL    HW122842   8.206   0.203   9.418
40315SOL    HW222843   8.197   0.352   9.388
40316SOL     OW22844  14.031   9.094   8.352
40316SOL    HW122845  14.007   9.001   8.358
40316SOL    HW222846  14.099   9.097   8.284
40317SOL     OW22847   2.792   5.051   4.546
40317SOL    HW122848   2.719   5.113   4.544
40317SOL    HW222849   2.780   5.002   4.627
40318SOL     OW22850   1.838  14.329   7.182
40318SOL    HW122851   1.815  14.260   7.244
40318SOL    HW222852   1.930  14.312   7.161
40319SOL     OW22853   4.384  11.320  13.219
40319SOL    HW122854   4.468  11.310  13.263
40319SOL    HW222855   4.398  11.392  13.157
40320SOL     OW22856   8.328   6.020   3.745
40320SOL    HW122857   8.391   6.021   3.817
40320SOL    HW222858   8.381   6.018   3.666
40321SOL     OW22859  12.287  11.598   3.205
40321SOL    HW122860  12.198  11.634   3.198
40321SOL    HW222861  12.344  11.670   3.178
40322SOL     OW22862   2.160   3.349   8.793
40322SOL    HW122863   2.199   3.283   8.737
40322SOL    HW222864   2.077   3.311   8.821
40323SOL     OW22865  14.201  11.062   7.880
40323SOL    HW122866  14.286  11.102   7.861
40323SOL    HW222867  14.144  11.136   7.901
40324SOL     OW22868   7.479  14.283   2.724
40324SOL    HW122869   7.452  14.214   2.665
40324SOL    HW222870   7.428  14.268   2.804
40325SOL     OW22871  10.793   7.959   9.617
40325SOL    HW122872  10.849   7.945   9.694
40325SOL    HW222873  10.704   7.958   9.651
40326SOL     OW22874  13.730  11.169   1.603
40326SOL    HW122875  13.813  11.215   1.615
40326SOL    HW222876  13.753  11.076   1.602
40327SOL     OW22877   1.514  12.369  10.655
40327SOL    HW122878   1.598  12.360  10.611
40327SOL    HW222879   1.534  12.414  10.737
40328SOL     OW22880   4.217   0.926   8.084
40328SOL    HW122881   4.224   1.009   8.038
40328SOL    HW222882   4.307   0.906   8.111
40329SOL     OW22883   2.601   7.179   3.392
40329SOL    HW122884   2.662   7.106   3.383
40329SOL    HW222885   2.605   7.203   3.484
40330SOL     OW22886  12.061   4.527  11.064
40330SOL    HW122887  12.151   4.528  11.030
40330SOL    HW222888  12.033   4.436  11.055
40331SOL     OW22889   6.195   9.456   8.159
40331SOL    HW122890   6.201   9.434   8.066
40331SOL    HW222891   6.256   9.396   8.202
40332SOL     OW22892   5.656   5.806  10.396
40332SOL    HW122893   5.694   5.878  10.345
40332SOL    HW222894   5.636   5.739  10.330
40333SOL     OW22895   3.419  11.994   7.949
40333SOL    HW122896   3.381  12.076   7.980
40333SOL    HW222897   3.344  11.939   7.928
40334SOL     OW22898   6.706   1.853  13.531
40334SOL    HW122899   6.721   1.924  13.469
40334SOL    HW222900   6.655   1.788  13.482
40335SOL     OW22901   7.658  14.236   3.875
40335SOL    HW122902   7.736  14.268   3.921
40335SOL    HW222903   7.594  14.219   3.945
40336SOL     OW22904   7.839  10.961  14.588
40336SOL    HW122905   7.791  10.913  14.655
40336SOL    HW222906   7.911  11.004  14.635
40337SOL     OW22907   1.649  11.961  14.113
40337SOL    HW122908   1.560  11.953  14.077
40337SOL    HW222909   1.659  11.883  14.167
40338SOL     OW22910   3.612   7.084  14.109
40338SOL    HW122911   3.595   7.149  14.040
40338SOL    HW222912   3.697   7.047  14.086
40339SOL     OW22913   7.098   8.608  12.067
40339SOL    HW122914   7.134   8.531  12.023
40339SOL    HW222915   7.087   8.672  11.997
40340SOL     OW22916   3.481   4.944   8.970
40340SOL    HW122917   3.421   4.917   9.039
40340SOL    HW222918   3.529   4.864   8.948
40341SOL     OW22919   2.069  13.951  11.964
40341SOL    HW122920   1.993  14.008  11.973
40341SOL    HW222921   2.142  14.011  11.947
40342SOL     OW22922   1.419   8.267   6.703
40342SOL    HW122923   1.448   8.358   6.700
40342SOL    HW222924   1.496   8.217   6.675
40343SOL     OW22925   4.389   0.908   3.180
40343SOL    HW122926   4.309   0.958   3.194
40343SOL    HW222927   4.393   0.895   3.085
40344SOL     OW22928   9.542   5.071   3.969
40344SOL    HW122929   9.508   4.988   4.003
40344SOL    HW222930   9.475   5.135   3.992
40345SOL     OW22931   7.340  14.390  13.724
40345SOL    HW122932   7.369  14.444  13.798
40345SOL    HW222933   7.345  14.449  13.649
40346SOL     OW22934   2.280   7.842   6.456
40346SOL    HW122935   2.305   7.760   6.413
40346SOL    HW222936   2.204   7.819   6.510
40347SOL     OW22937   1.105   7.401   4.830
40347SOL    HW122938   1.105   7.487   4.788
40347SOL    HW222939   1.195   7.390   4.862
40348SOL     OW22940   4.651   8.823  11.449
40348SOL    HW122941   4.607   8.789  11.527
40348SOL    HW222942   4.696   8.746  11.411
40349SOL     OW22943   6.407   7.502  13.329
40349SOL    HW122944   6.362   7.434  13.380
40349SOL    HW222945   6.498   7.499  13.359
40350SOL     OW22946   9.651  13.261   7.222
40350SOL    HW122947   9.707  13.323   7.176
40350SOL    HW222948   9.705  13.182   7.230
40351SOL     OW22949   5.053  11.657   5.375
40351SOL    HW122950   4.971  11.701   5.353
40351SOL    HW222951   5.076  11.608   5.297
40352SOL     OW22952   1.603   3.631  14.651
40352SOL    HW122953   1.613   3.639  14.557
40352SOL    HW222954   1.685   3.665  14.687
40353SOL     OW22955   9.831   8.270   4.110
40353SOL    HW122956   9.880   8.190   4.128
40353SOL    HW222957   9.897   8.338   4.105
40354SOL     OW22958   9.612   8.612  12.701
40354SOL    HW122959   9.687   8.669  12.685
40354SOL    HW222960   9.635   8.529  12.660
40355SOL     OW22961   4.091  14.628  11.806
40355SOL    HW122962   4.169  14.587  11.843
40355SOL    HW222963   4.021  14.609  11.868
40356SOL     OW22964  10.457  14.440  13.427
40356SOL    HW122965  10.517  14.483  13.367
40356SOL    HW222966  10.512  14.382  13.479
40357SOL     OW22967   1.008   4.114  10.081
40357SOL    HW122968   1.093   4.070  10.075
40357SOL    HW222969   1.022   4.198  10.037
40358SOL     OW22970  12.640  13.507  10.122
40358SOL    HW122971  12.709  13.553  10.170
40358SOL    HW222972  12.562  13.515  10.177
40359SOL     OW22973  11.524   8.326   9.738
40359SOL    HW122974  11.484   8.241   9.756
40359SOL    HW222975  11.506   8.378   9.817
40360SOL     OW22976  13.755  14.071   3.630
40360SOL    HW122977  13.821  14.011   3.595
40360SOL    HW222978  13.800  14.154   3.639
40361SOL     OW22979   4.695   9.441   7.551
40361SOL    HW122980   4.738   9.357   7.567
40361SOL    HW222981   4.614   9.436   7.602
40362SOL     OW22982   3.902   7.291  14.084
40362SOL    HW122983   3.876   7.284  14.176
40362SOL    HW222984   3.946   7.376  14.078
40363SOL     OW22985   1.667  10.601   8.485
40363SOL    HW122986   1.673  10.531   8.550
40363SOL    HW222987   1.754  10.606   8.447
40364SOL     OW22988   4.054   1.022   7.672
40364SOL    HW122989   3.991   0.978   7.614
40364SOL    HW222990   4.072   0.958   7.740
40365SOL     OW22991  12.714   1.956   3.326
40365SOL    HW122992  12.685   2.002   3.247
40365SOL    HW222993  12.803   1.927   3.306
40366SOL     OW22994   5.537   5.387   7.411
40366SOL    HW122995   5.620   5.368   7.369
40366SOL    HW222996   5.547   5.355   7.501
40367SOL     OW22997   5.530  11.574   0.392
40367SOL    HW122998   5.625  11.581   0.406
40367SOL    HW222999   5.522  11.510   0.321
40368SOL     OW23000   6.117   6.322  11.967
40368SOL    HW123001   6.051   6.380  12.005
40368SOL    HW223002   6.089   6.309  11.877
40369SOL     OW23003   1.860  13.625   5.910
40369SOL    HW123004   1.784  13.663   5.953
40369SOL    HW223005   1.925  13.696   5.909
40370SOL     OW23006   6.908  14.003  11.424
40370SOL    HW123007   7.001  14.009  11.447
40370SOL    HW223008   6.863  14.009  11.508
40371SOL     OW23009   4.632  12.349   1.703
40371SOL    HW123010   4.694  12.282   1.676
40371SOL    HW223011   4.668  12.384   1.784
40372SOL     OW23012   0.882  10.624   6.419
40372SOL    HW123013   0.934  10.660   6.491
40372SOL    HW223014   0.878  10.695   6.355
40373SOL     OW23015   3.106   5.744   0.371
40373SOL    HW123016   3.197   5.720   0.389
40373SOL    HW223017   3.068   5.666   0.330
40374SOL     OW23018   8.199  13.683   5.833
40374SOL    HW123019   8.183  13.736   5.912
40374SOL    HW223020   8.186  13.593   5.862
40375SOL     OW23021   3.672   3.227   1.188
40375SOL    HW123022   3.586   3.184   1.185
40375SOL    HW223023   3.652   3.320   1.180
40376SOL     OW23024   7.382  12.504   4.947
40376SOL    HW123025   7.288  12.491   4.947
40376SOL    HW223026   7.396  12.587   4.992
40377SOL     OW23027  11.009  10.833   8.908
40377SOL    HW123028  11.095  10.825   8.948
40377SOL    HW223029  10.969  10.746   8.919
40378SOL     OW23030   6.471   0.840   1.377
40378SOL    HW123031   6.438   0.750   1.372
40378SOL    HW223032   6.402   0.892   1.335
40379SOL     OW23033   4.458   9.982   5.544
40379SOL    HW123034   4.540  10.006   5.502
40379SOL    HW223035   4.436  10.057   5.599
40380SOL     OW23036  13.936   2.601   9.090
40380SOL    HW123037  13.869   2.616   9.157
40380SOL    HW223038  14.017   2.631   9.130
40381SOL     OW23039   1.698   2.375   1.770
40381SOL    HW123040   1.652   2.343   1.692
40381SOL    HW223041   1.775   2.420   1.737
40382SOL     OW23042  12.901   9.033   3.581
40382SOL    HW123043  12.964   8.964   3.603
40382SOL    HW223044  12.824   9.013   3.634
40383SOL     OW23045   6.714   9.043  11.707
40383SOL    HW123046   6.658   9.120  11.696
40383SOL    HW223047   6.769   9.042  11.629
40384SOL     OW23048   3.222  14.086   9.161
40384SOL    HW123049   3.288  14.016   9.155
40384SOL    HW223050   3.161  14.067   9.090
40385SOL     OW23051   9.237   0.487  12.783
40385SOL    HW123052   9.236   0.520  12.873
40385SOL    HW223053   9.147   0.460  12.766
40386SOL     OW23054   1.475   6.538  11.843
40386SOL    HW123055   1.398   6.531  11.787
40386SOL    HW223056   1.490   6.632  11.853
40387SOL     OW23057   0.557   0.909   1.726
40387SOL    HW123058   0.503   0.849   1.675
40387SOL    HW223059   0.511   0.993   1.721
40388SOL     OW23060  11.268   6.199   6.358
40388SOL    HW123061  11.174   6.211   6.376
40388SOL    HW223062  11.273   6.116   6.311
40389SOL     OW23063  14.879   8.048   2.091
40389SOL    HW123064   0.068   7.986   2.078
40389SOL    HW223065  14.801   7.993   2.105
40390SOL     OW23066   0.903   3.698   7.095
40390SOL    HW123067   0.845   3.701   7.018
40390SOL    HW223068   0.920   3.605   7.108
40391SOL     OW23069   9.018  12.610   2.883
40391SOL    HW123070   9.023  12.559   2.963
40391SOL    HW223071   9.084  12.571   2.825
40392SOL     OW23072  12.857   7.614   0.963
40392SOL    HW123073  12.877   7.689   0.906
40392SOL    HW223074  12.858   7.650   1.051
40393SOL     OW23075   1.245   1.280  11.881
40393SOL    HW123076   1.151   1.267  11.865
40393SOL    HW223077   1.286   1.200  11.849
40394SOL     OW23078   6.126   1.691  14.172
40394SOL    HW123079   6.080   1.731  14.099
40394SOL    HW223080   6.056   1.656  14.227
40395SOL     OW23081   2.423  12.247   9.377
40395SOL    HW123082   2.358  12.294   9.323
40395SOL    HW223083   2.383  12.242   9.463
40396SOL     OW23084   1.863   5.942   5.251
40396SOL    HW123085   1.806   6.015   5.274
40396SOL    HW223086   1.864   5.887   5.329
40397SOL     OW23087   7.083   5.472   3.762
40397SOL    HW123088   7.153   5.511   3.710
40397SOL    HW223089   7.020   5.543   3.773
40398SOL     OW23090   8.685   8.634   1.653
40398SOL    HW123091   8.622   8.579   1.607
40398SOL    HW223092   8.636   8.712   1.677
40399SOL     OW23093   9.918  14.043  13.190
40399SOL    HW123094   9.945  14.102  13.260
40399SOL    HW223095   9.835  14.079  13.159
40400SOL     OW23096   9.741   7.934   5.564
40400SOL    HW123097   9.782   7.868   5.621
40400SOL    HW223098   9.648   7.930   5.585
40401SOL     OW23099   4.815  13.360   4.036
40401SOL    HW123100   4.883  13.427   4.033
40401SOL    HW223101   4.750  13.389   3.971
40402SOL     OW23102  10.867   0.706  14.129
40402SOL    HW123103  10.840   0.797  14.113
40402SOL    HW223104  10.953   0.713  14.171
40403SOL     OW23105  11.947   6.802  13.411
40403SOL    HW123106  11.887   6.845  13.350
40403SOL    HW223107  11.951   6.862  13.486
40404SOL     OW23108   8.134   3.830   5.167
40404SOL    HW123109   8.178   3.746   5.150
40404SOL    HW223110   8.083   3.846   5.088
40405SOL     OW23111   7.886  12.386   8.310
40405SOL    HW123112   7.958  12.430   8.356
40405SOL    HW223113   7.814  12.387   8.374
40406SOL     OW23114   0.445   4.626   5.786
40406SOL    HW123115   0.406   4.559   5.731
40406SOL    HW223116   0.449   4.704   5.731
40407SOL     OW23117  13.381   1.956   3.381
40407SOL    HW123118  13.452   1.944   3.444
40407SOL    HW223119  13.400   2.040   3.339
40408SOL     OW23120   1.216   2.924  10.758
40408SOL    HW123121   1.136   2.899  10.713
40408SOL    HW223122   1.189   2.942  10.848
40409SOL     OW23123   6.738  13.926  14.658
40409SOL    HW123124   6.678  13.878  14.715
40409SOL    HW223125   6.722  13.891  14.570
40410SOL     OW23126  13.785   7.723   5.495
40410SOL    HW123127  13.739   7.683   5.568
40410SOL    HW223128  13.772   7.817   5.507
40411SOL     OW23129   1.003   7.593   9.151
40411SOL    HW123130   0.923   7.550   9.122
40411SOL    HW223131   0.972   7.665   9.206
40412SOL     OW23132   2.421   9.234   1.942
40412SOL    HW123133   2.491   9.276   1.991
40412SOL    HW223134   2.426   9.273   1.855
40413SOL     OW23135  14.838   8.920  10.712
40413SOL    HW123136   0.041   8.963  10.708
40413SOL    HW223137  14.817   8.919  10.805
40414SOL     OW23138  12.655   4.070  14.715
40414SOL    HW123139  12.599   4.085  14.639
40414SOL    HW223140  12.616   4.125  14.784
40415SOL     OW23141   3.853  11.506  12.338
40415SOL    HW123142   3.939  11.529  12.375
40415SOL    HW223143   3.871  11.431  12.283
40416SOL     OW23144   7.601   4.763   4.836
40416SOL    HW123145   7.663   4.816   4.886
40416SOL    HW223146   7.575   4.819   4.763
40417SOL     OW23147   9.731  13.827   0.144
40417SOL    HW123148   9.685  13.827   0.061
40417SOL    HW223149   9.814  13.783   0.126
40418SOL     OW23150   7.758   1.244  13.054
40418SOL    HW123151   7.834   1.217  13.002
40418SOL    HW223152   7.709   1.303  12.996
40419SOL     OW23153  12.606   1.696  14.662
40419SOL    HW123154  12.694   1.660  14.663
40419SOL    HW223155  12.550   1.623  14.633
40420SOL     OW23156  14.151   2.352   4.849
40420SOL    HW123157  14.165   2.258   4.858
40420SOL    HW223158  14.221   2.381   4.790
40421SOL     OW23159   7.487   9.306   5.891
40421SOL    HW123160   7.491   9.210   5.884
40421SOL    HW223161   7.412   9.331   5.837
40422SOL     OW23162   9.217  13.202   2.368
40422SOL    HW123163   9.214  13.219   2.463
40422SOL    HW223164   9.129  13.172   2.347
40423SOL     OW23165   8.472   7.266  14.150
40423SOL    HW123166   8.557   7.225  14.131
40423SOL    HW223167   8.494   7.339  14.208
40424SOL     OW23168  14.587   8.837  14.573
40424SOL    HW123169  14.559   8.925  14.546
40424SOL    HW223170  14.675   8.850  14.609
40425SOL     OW23171   7.725  12.901   8.694
40425SOL    HW123172   7.708  12.924   8.603
40425SOL    HW223173   7.680  12.969   8.744
40426SOL     OW23174   8.458   4.778   1.382
40426SOL    HW123175   8.501   4.804   1.463
40426SOL    HW223176   8.369   4.756   1.408
40427SOL     OW23177   5.532   8.517   3.784
40427SOL    HW123178   5.513   8.424   3.793
40427SOL    HW223179   5.612   8.520   3.731
40428SOL     OW23180   6.101   2.826  10.053
40428SOL    HW123181   6.032   2.767  10.084
40428SOL    HW223182   6.126   2.876  10.131
40429SOL     OW23183   9.160   0.602   3.137
40429SOL    HW123184   9.132   0.640   3.054
40429SOL    HW223185   9.081   0.559   3.171
40430SOL     OW23186   0.675   2.057   9.479
40430SOL    HW123187   0.689   2.116   9.553
40430SOL    HW223188   0.656   2.116   9.406
40431SOL     OW23189  12.949   2.867   4.005
40431SOL    HW123190  12.957   2.939   4.067
40431SOL    HW223191  12.943   2.910   3.920
40432SOL     OW23192  10.634   1.287   0.211
40432SOL    HW123193  10.549   1.244   0.198
40432SOL    HW223194  10.624   1.371   0.167
40433SOL     OW23195  11.519   8.923   3.739
40433SOL    HW123196  11.541   8.859   3.806
40433SOL    HW223197  11.475   8.994   3.787
40434SOL     OW23198   0.450   7.987   5.584
40434SOL    HW123199   0.529   8.012   5.536
40434SOL    HW223200   0.442   7.893   5.568
40435SOL     OW23201   1.690   8.576   9.666
40435SOL    HW123202   1.598   8.591   9.645
40435SOL    HW223203   1.738   8.606   9.589
40436SOL     OW23204  12.847  13.280  13.714
40436SOL    HW123205  12.865  13.357  13.660
40436SOL    HW223206  12.872  13.307  13.803
40437SOL     OW23207  12.666   2.137   5.370
40437SOL    HW123208  12.738   2.170   5.316
40437SOL    HW223209  12.694   2.156   5.460
40438SOL     OW23210   0.856   9.278   1.788
40438SOL    HW123211   0.816   9.192   1.802
40438SOL    HW223212   0.796   9.324   1.730
40439SOL     OW23213  10.676  11.806   8.912
40439SOL    HW123214  10.647  11.885   8.957
40439SOL    HW223215  10.596  11.766   8.879
40440SOL     OW23216   1.352  14.134   1.211
40440SOL    HW123217   1.337  14.221   1.173
40440SOL    HW223218   1.271  14.114   1.258
40441SOL     OW23219  11.528  13.779   0.034
40441SOL    HW123220  11.448  13.828   0.053
40441SOL    HW223221  11.531  13.772  14.821
40442SOL     OW23222  12.517   2.799   9.338
40442SOL    HW123223  12.474   2.862   9.279
40442SOL    HW223224  12.606   2.832   9.347
40443SOL     OW23225   5.496   0.869   0.350
40443SOL    HW123226   5.412   0.911   0.367
40443SOL    HW223227   5.474   0.783   0.316
40444SOL     OW23228   3.622   5.311   3.542
40444SOL    HW123229   3.654   5.231   3.501
40444SOL    HW223230   3.600   5.285   3.632
40445SOL     OW23231  13.778  10.893  14.226
40445SOL    HW123232  13.811  10.810  14.192
40445SOL    HW223233  13.702  10.914  14.170
40446SOL     OW23234   3.959   3.770   6.954
40446SOL    HW123235   3.902   3.811   6.889
40446SOL    HW223236   3.900   3.716   7.007
40447SOL     OW23237   0.122  14.675   2.741
40447SOL    HW123238   0.072  14.695   2.820
40447SOL    HW223239   0.211  14.703   2.761
40448SOL     OW23240  12.078   3.178  13.888
40448SOL    HW123241  11.998   3.227  13.870
40448SOL    HW223242  12.147   3.244  13.889
40449SOL     OW23243   6.098   5.557   0.769
40449SOL    HW123244   6.092   5.652   0.763
40449SOL    HW223245   6.021   5.525   0.722
40450SOL     OW23246   0.534   3.599   2.573
40450SOL    HW123247   0.472   3.529   2.558
40450SOL    HW223248   0.514   3.631   2.661
40451SOL     OW23249   0.184   6.626   3.862
40451SOL    HW123250   0.265   6.575   3.863
40451SOL    HW223251   0.176   6.658   3.772
40452SOL     OW23252   5.320   3.759   8.216
40452SOL    HW123253   5.265   3.738   8.291
40452SOL    HW223254   5.334   3.854   8.221
40453SOL     OW23255   7.671   8.643   5.239
40453SOL    HW123256   7.594   8.638   5.182
40453SOL    HW223257   7.668   8.561   5.289
40454SOL     OW23258   4.724   9.824   2.599
40454SOL    HW123259   4.747   9.789   2.685
40454SOL    HW223260   4.641   9.783   2.577
40455SOL     OW23261   8.352  11.737   2.901
40455SOL    HW123262   8.430  11.771   2.857
40455SOL    HW223263   8.352  11.780   2.987
40456SOL     OW23264   2.885   9.905   7.696
40456SOL    HW123265   2.966   9.956   7.689
40456SOL    HW223266   2.817   9.963   7.662
40457SOL     OW23267   1.411  13.526   3.910
40457SOL    HW123268   1.458  13.594   3.958
40457SOL    HW223269   1.435  13.540   3.818
40458SOL     OW23270   5.381  11.159   9.432
40458SOL    HW123271   5.422  11.101   9.367
40458SOL    HW223272   5.301  11.189   9.390
40459SOL     OW23273   7.726  10.126   2.719
40459SOL    HW123274   7.773  10.205   2.749
40459SOL    HW223275   7.754  10.115   2.628
40460SOL     OW23276   9.073   3.757  11.408
40460SOL    HW123277   8.999   3.792  11.359
40460SOL    HW223278   9.107   3.686  11.353
40461SOL     OW23279  10.301  12.062   1.206
40461SOL    HW123280  10.247  12.024   1.276
40461SOL    HW223281  10.387  12.072   1.246
40462SOL     OW23282   2.567   2.598  12.805
40462SOL    HW123283   2.619   2.625  12.881
40462SOL    HW223284   2.560   2.677  12.751
40463SOL     OW23285   5.097  14.570   8.471
40463SOL    HW123286   5.146  14.574   8.389
40463SOL    HW223287   5.123  14.650   8.517
40464SOL     OW23288   8.499   4.240   5.612
40464SOL    HW123289   8.572   4.267   5.556
40464SOL    HW223290   8.450   4.177   5.559
40465SOL     OW23291  12.175  10.626  12.365
40465SOL    HW123292  12.153  10.693  12.300
40465SOL    HW223293  12.246  10.576  12.325
40466SOL     OW23294   9.084  11.399   2.353
40466SOL    HW123295   9.021  11.423   2.286
40466SOL    HW223296   9.054  11.446   2.432
40467SOL     OW23297  11.725   8.487   1.653
40467SOL    HW123298  11.644   8.497   1.702
40467SOL    HW223299  11.705   8.519   1.565
40468SOL     OW23300   7.425   1.949   3.515
40468SOL    HW123301   7.400   2.032   3.477
40468SOL    HW223302   7.343   1.900   3.524
40469SOL     OW23303  10.190   1.706   3.455
40469SOL    HW123304  10.139   1.669   3.383
40469SOL    HW223305  10.159   1.659   3.533
40470SOL     OW23306   6.955   8.428   6.806
40470SOL    HW123307   6.974   8.334   6.812
40470SOL    HW223308   6.875   8.440   6.859
40471SOL     OW23309   6.561  12.246   0.604
40471SOL    HW123310   6.466  12.232   0.603
40471SOL    HW223311   6.580  12.287   0.519
40472SOL     OW23312   0.696  10.065  13.091
40472SOL    HW123313   0.647  10.077  13.172
40472SOL    HW223314   0.788  10.063  13.119
40473SOL     OW23315   2.978  12.241   3.884
40473SOL    HW123316   2.885  12.263   3.884
40473SOL    HW223317   3.021  12.320   3.916
40474SOL     OW23318  12.890   0.459   9.309
40474SOL    HW123319  12.948   0.466   9.386
40474SOL    HW223320  12.804   0.483   9.342
40475SOL     OW23321  11.111  11.972   3.700
40475SOL    HW123322  11.111  12.068   3.702
40475SOL    HW223323  11.193  11.949   3.655
40476SOL     OW23324   8.647  13.647  12.968
40476SOL    HW123325   8.738  13.668  12.951
40476SOL    HW223326   8.648  13.592  13.047
40477SOL     OW23327   0.850   1.173   4.882
40477SOL    HW123328   0.868   1.091   4.928
40477SOL    HW223329   0.759   1.166   4.855
40478SOL     OW23330   7.729   2.069   6.799
40478SOL    HW123331   7.824   2.077   6.792
40478SOL    HW223332   7.714   1.974   6.801
40479SOL     OW23333   4.235   4.005  13.284
40479SOL    HW123334   4.156   3.962  13.315
40479SOL    HW223335   4.298   3.995  13.356
40480SOL     OW23336   9.649   4.967   9.470
40480SOL    HW123337   9.700   5.031   9.520
40480SOL    HW223338   9.575   5.017   9.435
40481SOL     OW23339  11.504   7.130   6.064
40481SOL    HW123340  11.493   7.222   6.089
40481SOL    HW223341  11.451   7.120   5.985
40482SOL     OW23342   9.276  10.236   2.796
40482SOL    HW123343   9.304  10.314   2.749
40482SOL    HW223344   9.310  10.163   2.744
40483SOL     OW23345   6.755  12.540   2.815
40483SOL    HW123346   6.786  12.544   2.905
40483SOL    HW223347   6.692  12.468   2.815
40484SOL     OW23348   7.513   8.971  12.378
40484SOL    HW123349   7.457   8.927  12.314
40484SOL    HW223350   7.579   9.016  12.325
40485SOL     OW23351   2.965  10.797  14.762
40485SOL    HW123352   3.018  10.722  14.734
40485SOL    HW223353   3.014  10.874  14.734
40486SOL     OW23354   0.125   9.653   4.477
40486SOL    HW123355   0.111   9.681   4.387
40486SOL    HW223356   0.055   9.694   4.527
40487SOL     OW23357   7.136   9.747   1.305
40487SOL    HW123358   7.154   9.816   1.241
40487SOL    HW223359   7.119   9.794   1.386
40488SOL     OW23360   2.963  12.938  13.564
40488SOL    HW123361   2.896  13.005  13.582
40488SOL    HW223362   3.040  12.988  13.537
40489SOL     OW23363   9.244   5.366  14.470
40489SOL    HW123364   9.159   5.355  14.513
40489SOL    HW223365   9.224   5.413  14.389
40490SOL     OW23366  10.709   2.510   2.018
40490SOL    HW123367  10.666   2.594   2.034
40490SOL    HW223368  10.771   2.501   2.091
40491SOL     OW23369   2.692   8.804   9.534
40491SOL    HW123370   2.598   8.785   9.537
40491SOL    HW223371   2.734   8.719   9.543
40492SOL     OW23372  14.602   7.044  14.871
40492SOL    HW123373  14.611   7.021   0.081
40492SOL    HW223374  14.572   6.963  14.829
40493SOL     OW23375  14.076   4.489   5.966
40493SOL    HW123376  14.149   4.432   5.943
40493SOL    HW223377  14.091   4.510   6.059
40494SOL     OW23378  14.330   6.595   1.910
40494SOL    HW123379  14.409   6.544   1.890
40494SOL    HW223380  14.294   6.618   1.824
40495SOL     OW23381  12.055  13.640   6.437
40495SOL    HW123382  12.048  13.555   6.480
40495SOL    HW223383  12.026  13.624   6.347
40496SOL     OW23384   3.591  14.356  13.925
40496SOL    HW123385   3.536  14.345  13.847
40496SOL    HW223386   3.559  14.290  13.986
40497SOL     OW23387   3.707   4.835  10.908
40497SOL    HW123388   3.713   4.785  10.990
40497SOL    HW223389   3.637   4.898  10.924
40498SOL     OW23390   7.659  11.086  12.698
40498SOL    HW123391   7.626  11.077  12.788
40498SOL    HW223392   7.690  10.999  12.675
40499SOL     OW23393   0.118   2.302   5.339
40499SOL    HW123394   0.141   2.214   5.312
40499SOL    HW223395   0.029   2.316   5.306
40500SOL     OW23396  12.796  14.766   7.011
40500SOL    HW123397  12.769  14.853   7.043
40500SOL    HW223398  12.889  14.775   6.992
40501SOL     OW23399  12.189   9.258   7.399
40501SOL    HW123400  12.153   9.188   7.453
40501SOL    HW223401  12.190   9.222   7.310
40502SOL     OW23402   1.249   8.418  12.720
40502SOL    HW123403   1.254   8.340  12.774
40502SOL    HW223404   1.191   8.477  12.768
40503SOL     OW23405   9.362  13.012  12.932
40503SOL    HW123406   9.272  13.006  12.901
40503SOL    HW223407   9.410  12.950  12.878
40504SOL     OW23408   9.660   5.319   4.218
40504SOL    HW123409   9.604   5.270   4.278
40504SOL    HW223410   9.622   5.407   4.216
40505SOL     OW23411   3.136   1.351   7.984
40505SOL    HW123412   3.055   1.332   8.033
40505SOL    HW223413   3.138   1.284   7.916
40506SOL     OW23414  14.116  12.223  14.309
40506SOL    HW123415  14.041  12.187  14.358
40506SOL    HW223416  14.090  12.312  14.286
40507SOL     OW23417   2.542  10.820   0.695
40507SOL    HW123418   2.618  10.767   0.715
40507SOL    HW223419   2.573  10.911   0.702
40508SOL     OW23420   2.631   7.941   2.873
40508SOL    HW123421   2.637   7.932   2.968
40508SOL    HW223422   2.549   7.989   2.859
40509SOL     OW23423   5.632   1.167   2.757
40509SOL    HW123424   5.576   1.209   2.691
40509SOL    HW223425   5.666   1.239   2.809
40510SOL     OW23426   9.477   1.413  10.637
40510SOL    HW123427   9.408   1.352  10.608
40510SOL    HW223428   9.540   1.414  10.565
40511SOL     OW23429   8.607   0.449  14.173
40511SOL    HW123430   8.623   0.357  14.150
40511SOL    HW223431   8.690   0.493  14.153
40512SOL     OW23432   2.263   1.614   7.789
40512SOL    HW123433   2.242   1.536   7.738
40512SOL    HW223434   2.261   1.584   7.880
40513SOL     OW23435   6.603  14.476   9.808
40513SOL    HW123436   6.576  14.539   9.875
40513SOL    HW223437   6.687  14.509   9.777
40514SOL     OW23438   2.354  11.548   9.745
40514SOL    HW123439   2.448  11.542   9.730
40514SOL    HW223440   2.334  11.641   9.733
40515SOL     OW23441   5.733   5.497   3.051
40515SOL    HW123442   5.688   5.430   3.104
40515SOL    HW223443   5.683   5.577   3.068
40516SOL     OW23444  12.329   1.873   2.021
40516SOL    HW123445  12.237   1.869   1.996
40516SOL    HW223446  12.363   1.949   1.974
40517SOL     OW23447   3.382   3.872   1.540
40517SOL    HW123448   3.362   3.874   1.447
40517SOL    HW223449   3.374   3.962   1.569
40518SOL     OW23450  12.088  13.501  10.239
40518SOL    HW123451  12.041  13.584  10.238
40518SOL    HW223452  12.134  13.501  10.323
40519SOL     OW23453   1.160   6.601  10.730
40519SOL    HW123454   1.187   6.523  10.778
40519SOL    HW223455   1.159   6.670  10.796
40520SOL     OW23456  11.306   9.270   1.988
40520SOL    HW123457  11.235   9.307   2.040
40520SOL    HW223458  11.262   9.227   1.915
40521SOL     OW23459   2.279   0.043   2.051
40521SOL    HW123460   2.210   0.017   2.113
40521SOL    HW223461   2.313  14.842   2.018
40522SOL     OW23462  10.308   0.465   8.633
40522SOL    HW123463  10.303   0.545   8.580
40522SOL    HW223464  10.387   0.476   8.686
40523SOL     OW23465   4.504   2.164   9.087
40523SOL    HW123466   4.532   2.126   9.170
40523SOL    HW223467   4.563   2.239   9.074
40524SOL     OW23468  14.731  11.129   7.079
40524SOL    HW123469  14.718  11.117   6.985
40524SOL    HW223470  14.699  11.049   7.119
40525SOL     OW23471  10.010  13.621   7.011
40525SOL    HW123472   9.962  13.611   6.929
40525SOL    HW223473   9.955  13.578   7.077
40526SOL     OW23474  10.731  11.261   7.226
40526SOL    HW123475  10.728  11.275   7.131
40526SOL    HW223476  10.810  11.209   7.239
40527SOL     OW23477   6.884  14.420   3.805
40527SOL    HW123478   6.841  14.485   3.861
40527SOL    HW223479   6.929  14.361   3.866
40528SOL     OW23480   6.670   9.078   5.556
40528SOL    HW123481   6.653   9.077   5.462
40528SOL    HW223482   6.588   9.109   5.594
40529SOL     OW23483  12.975   9.642   9.438
40529SOL    HW123484  12.992   9.633   9.344
40529SOL    HW223485  12.910   9.574   9.458
40530SOL     OW23486   9.252   1.433   2.067
40530SOL    HW123487   9.304   1.512   2.080
40530SOL    HW223488   9.162   1.465   2.059
40531SOL     OW23489   4.295  12.626  14.548
40531SOL    HW123490   4.384  12.593  14.540
40531SOL    HW223491   4.274  12.616  14.641
40532SOL     OW23492  12.867   2.602   1.206
40532SOL    HW123493  12.837   2.515   1.179
40532SOL    HW223494  12.821   2.663   1.149
40533SOL     OW23495   4.323   9.139   7.625
40533SOL    HW123496   4.244   9.092   7.599
40533SOL    HW223497   4.347   9.191   7.548
40534SOL     OW23498  12.441   6.310   7.466
40534SOL    HW123499  12.503   6.282   7.398
40534SOL    HW223500  12.452   6.405   7.471
40535SOL     OW23501  12.349   4.079  13.422
40535SOL    HW123502  12.353   4.169  13.454
40535SOL    HW223503  12.277   4.040  13.471
40536SOL     OW23504  11.943  11.350  10.592
40536SOL    HW123505  11.935  11.265  10.548
40536SOL    HW223506  11.982  11.329  10.677
40537SOL     OW23507   6.026  13.863   6.979
40537SOL    HW123508   6.021  13.805   7.054
40537SOL    HW223509   5.943  13.851   6.933
40538SOL     OW23510   0.437   0.510  11.564
40538SOL    HW123511   0.523   0.544  11.588
40538SOL    HW223512   0.411   0.563  11.489
40539SOL     OW23513   8.369  13.960   2.521
40539SOL    HW123514   8.445  13.926   2.567
40539SOL    HW223515   8.306  13.981   2.590
40540SOL     OW23516  12.914   2.143  12.487
40540SOL    HW123517  12.911   2.239  12.494
40540SOL    HW223518  12.983   2.117  12.547
40541SOL     OW23519   0.744   0.591   5.050
40541SOL    HW123520   0.660   0.633   5.029
40541SOL    HW223521   0.777   0.640   5.125
40542SOL     OW23522  12.265   4.441   3.941
40542SOL    HW123523  12.328   4.384   3.897
40542SOL    HW223524  12.221   4.384   4.005
40543SOL     OW23525  14.623   2.386   9.011
40543SOL    HW123526  14.564   2.347   8.947
40543SOL    HW223527  14.599   2.345   9.094
40544SOL     OW23528   5.215  13.731   2.031
40544SOL    HW123529   5.181  13.771   1.951
40544SOL    HW223530   5.137  13.701   2.078
40545SOL     OW23531   8.290  11.821  11.503
40545SOL    HW123532   8.205  11.792  11.536
40545SOL    HW223533   8.271  11.856  11.416
40546SOL     OW23534  13.573   3.282  13.412
40546SOL    HW123535  13.517   3.334  13.469
40546SOL    HW223536  13.539   3.297  13.324
40547SOL     OW23537   4.344   7.939   4.862
40547SOL    HW123538   4.415   7.897   4.910
40547SOL    HW223539   4.367   7.929   4.769
40548SOL     OW23540   0.864   6.770  11.340
40548SOL    HW123541   0.927   6.803  11.276
40548SOL    HW223542   0.794   6.732  11.287
40549SOL     OW23543  12.894   7.551  13.478
40549SOL    HW123544  12.950   7.477  13.499
40549SOL    HW223545  12.824   7.547  13.542
40550SOL     OW23546  11.235  10.682   9.778
40550SOL    HW123547  11.214  10.599   9.734
40550SOL    HW223548  11.323  10.704   9.747
40551SOL     OW23549  12.951   0.679   7.458
40551SOL    HW123550  13.000   0.597   7.453
40551SOL    HW223551  13.016   0.747   7.446
40552SOL     OW23552   8.158  13.265   7.123
40552SOL    HW123553   8.080  13.310   7.091
40552SOL    HW223554   8.158  13.181   7.077
40553SOL     OW23555   1.913   5.870   8.089
40553SOL    HW123556   1.978   5.857   8.020
40553SOL    HW223557   1.953   5.932   8.149
40554SOL     OW23558   4.115   6.838   2.476
40554SOL    HW123559   4.203   6.836   2.514
40554SOL    HW223560   4.087   6.929   2.484
40555SOL     OW23561   6.865   3.918   0.537
40555SOL    HW123562   6.903   3.952   0.618
40555SOL    HW223563   6.898   3.978   0.469
40556SOL     OW23564   2.544   5.879  10.349
40556SOL    HW123565   2.627   5.897  10.393
40556SOL    HW223566   2.536   5.947  10.283
40557SOL     OW23567  13.480   9.304   3.915
40557SOL    HW123568  13.407   9.269   3.967
40557SOL    HW223569  13.461   9.398   3.909
40558SOL     OW23570   9.230   1.431  11.187
40558SOL    HW123571   9.281   1.354  11.164
40558SOL    HW223572   9.228   1.484  11.108
40559SOL     OW23573   5.923   2.230   5.659
40559SOL    HW123574   6.000   2.175   5.674
40559SOL    HW223575   5.958   2.316   5.637
40560SOL     OW23576   2.947   7.794   9.248
40560SOL    HW123577   2.969   7.779   9.340
40560SOL    HW223578   2.939   7.705   9.212
40561SOL     OW23579   3.429   8.659   6.505
40561SOL    HW123580   3.353   8.677   6.449
40561SOL    HW223581   3.504   8.687   6.453
40562SOL     OW23582  13.718  12.344  14.746
40562SOL    HW123583  13.638  12.353  14.696
40562SOL    HW223584  13.731  12.250  14.756
40563SOL     OW23585  12.962   7.746  14.191
40563SOL    HW123586  12.942   7.804  14.264
40563SOL    HW223587  12.888   7.757  14.131
40564SOL     OW23588   1.371   5.393   4.636
40564SOL    HW123589   1.459   5.393   4.597
40564SOL    HW223590   1.315   5.351   4.571
40565SOL     OW23591   6.793  14.396   7.212
40565SOL    HW123592   6.845  14.461   7.258
40565SOL    HW223593   6.856  14.347   7.159
40566SOL     OW23594   0.350   4.734   2.413
40566SOL    HW123595   0.345   4.785   2.494
40566SOL    HW223596   0.271   4.760   2.364
40567SOL     OW23597   3.727   8.691   7.117
40567SOL    HW123598   3.822   8.699   7.126
40567SOL    HW223599   3.705   8.609   7.161
40568SOL     OW23600   2.568  10.158   5.181
40568SOL    HW123601   2.607  10.084   5.133
40568SOL    HW223602   2.483  10.126   5.209
40569SOL     OW23603   3.235  12.832   9.866
40569SOL    HW123604   3.234  12.837   9.962
40569SOL    HW223605   3.317  12.873   9.841
40570SOL     OW23606   9.580   0.373   1.525
40570SOL    HW123607   9.642   0.304   1.501
40570SOL    HW223608   9.494   0.340   1.497
40571SOL     OW23609   7.930   7.194   0.544
40571SOL    HW123610   7.921   7.099   0.546
40571SOL    HW223611   8.014   7.210   0.503
40572SOL     OW23612   1.789  10.632   4.491
40572SOL    HW123613   1.855  10.664   4.553
40572SOL    HW223614   1.768  10.709   4.438
40573SOL     OW23615   0.732   9.618   8.388
40573SOL    HW123616   0.756   9.709   8.370
40573SOL    HW223617   0.816   9.574   8.403
40574SOL     OW23618   4.616   4.607  13.484
40574SOL    HW123619   4.680   4.536  13.486
40574SOL    HW223620   4.665   4.682  13.450
40575SOL     OW23621   8.218   8.669   8.362
40575SOL    HW123622   8.238   8.612   8.287
40575SOL    HW223623   8.132   8.639   8.392
40576SOL     OW23624   8.647  14.851  13.324
40576SOL    HW123625   8.644  14.840  13.229
40576SOL    HW223626   8.740  14.857  13.344
40577SOL     OW23627  12.061  12.602   9.771
40577SOL    HW123628  12.039  12.616   9.863
40577SOL    HW223629  12.120  12.525   9.772
40578SOL     OW23630   8.418   1.387   3.137
40578SOL    HW123631   8.337   1.342   3.113
40578SOL    HW223632   8.466   1.394   3.054
40579SOL     OW23633   8.050   3.823  10.233
40579SOL    HW123634   8.134   3.870  10.232
40579SOL    HW223635   7.986   3.888  10.204
40580SOL     OW23636   4.250   9.693   1.504
40580SOL    HW123637   4.172   9.730   1.544
40580SOL    HW223638   4.317   9.699   1.572
40581SOL     OW23639  14.548  13.972   4.104
40581SOL    HW123640  14.579  13.902   4.045
40581SOL    HW223641  14.588  14.052   4.069
40582SOL     OW23642   3.934   9.076  13.814
40582SOL    HW123643   3.972   9.031  13.739
40582SOL    HW223644   3.876   9.011  13.853
40583SOL     OW23645   1.307   7.007   4.996
40583SOL    HW123646   1.238   7.015   5.062
40583SOL    HW223647   1.388   7.009   5.047
40584SOL     OW23648  11.865  13.729  10.814
40584SOL    HW123649  11.814  13.677  10.752
40584SOL    HW223650  11.865  13.818  10.777
40585SOL     OW23651   9.171  14.133  11.190
40585SOL    HW123652   9.151  14.044  11.160
40585SOL    HW223653   9.218  14.173  11.117
40586SOL     OW23654   2.484  11.205  12.039
40586SOL    HW123655   2.424  11.221  12.112
40586SOL    HW223656   2.565  11.176  12.080
40587SOL     OW23657  14.557  14.140   4.445
40587SOL    HW123658  14.545  14.056   4.400
40587SOL    HW223659  14.488  14.196   4.409
40588SOL     OW23660   2.845   5.387   6.784
40588SOL    HW123661   2.755   5.372   6.811
40588SOL    HW223662   2.859   5.481   6.798
40589SOL     OW23663   3.455   4.028   0.790
40589SOL    HW123664   3.442   4.122   0.781
40589SOL    HW223665   3.506   4.003   0.712
40590SOL     OW23666  14.616  11.801  12.865
40590SOL    HW123667  14.564  11.808  12.945
40590SOL    HW223668  14.707  11.796  12.896
40591SOL     OW23669   0.709   0.338   0.995
40591SOL    HW123670   0.615   0.339   0.981
40591SOL    HW223671   0.743   0.276   0.930
40592SOL     OW23672   1.722   0.292   2.449
40592SOL    HW123673   1.628   0.300   2.464
40592SOL    HW223674   1.745   0.369   2.397
40593SOL     OW23675   8.441  14.751   6.177
40593SOL    HW123676   8.479  14.782   6.259
40593SOL    HW223677   8.391  14.673   6.202
40594SOL     OW23678   2.908  10.609  12.855
40594SOL    HW123679   2.910  10.600  12.760
40594SOL    HW223680   2.960  10.536  12.888
40595SOL     OW23681   7.338   4.372   4.058
40595SOL    HW123682   7.243   4.385   4.063
40595SOL    HW223683   7.373   4.459   4.038
40596SOL     OW23684   1.543   7.046   4.382
40596SOL    HW123685   1.479   7.063   4.450
40596SOL    HW223686   1.615   7.108   4.401
40597SOL     OW23687  12.588   1.605   2.175
40597SOL    HW123688  12.674   1.635   2.144
40597SOL    HW223689  12.546   1.568   2.097
40598SOL     OW23690   7.687   6.415  12.056
40598SOL    HW123691   7.626   6.404  12.129
40598SOL    HW223692   7.644   6.477  11.998
40599SOL     OW23693   7.629  14.836   2.680
40599SOL    HW123694   7.721  14.845   2.655
40599SOL    HW223695   7.617  14.743   2.697
40600SOL     OW23696   3.118   0.991   3.889
40600SOL    HW123697   3.190   1.043   3.856
40600SOL    HW223698   3.052   0.993   3.819
40601SOL     OW23699  11.431  12.467   7.513
40601SOL    HW123700  11.420  12.374   7.492
40601SOL    HW223701  11.342  12.500   7.527
40602SOL     OW23702   4.590  12.272   8.367
40602SOL    HW123703   4.544  12.311   8.441
40602SOL    HW223704   4.521  12.231   8.314
40603SOL     OW23705   5.370   8.779  10.126
40603SOL    HW123706   5.325   8.777  10.042
40603SOL    HW223707   5.320   8.840  10.180
40604SOL     OW23708   0.186   7.885  14.404
40604SOL    HW123709   0.209   7.793  14.393
40604SOL    HW223710   0.204   7.925  14.319
40605SOL     OW23711  13.830   4.713   8.600
40605SOL    HW123712  13.913   4.717   8.553
40605SOL    HW223713  13.765   4.744   8.537
40606SOL     OW23714  13.077   0.758   4.089
40606SOL    HW123715  13.134   0.711   4.148
40606SOL    HW223716  12.991   0.716   4.099
40607SOL     OW23717  12.350   2.004   3.250
40607SOL    HW123718  12.437   1.985   3.284
40607SOL    HW223719  12.290   1.979   3.320
40608SOL     OW23720  14.800  10.990   9.738
40608SOL    HW123721  14.843  11.067   9.774
40608SOL    HW223722  14.707  11.008   9.747
40609SOL     OW23723   9.637   3.222   6.159
40609SOL    HW123724   9.544   3.200   6.167
40609SOL    HW223725   9.677   3.141   6.127
40610SOL     OW23726   9.178   1.146   0.124
40610SOL    HW123727   9.150   1.199   0.050
40610SOL    HW223728   9.247   1.089   0.089
40611SOL     OW23729  12.215   5.304  10.049
40611SOL    HW123730  12.226   5.334  10.139
40611SOL    HW223731  12.271   5.362   9.998
40612SOL     OW23732   6.288  14.013   3.099
40612SOL    HW123733   6.254  13.934   3.140
40612SOL    HW223734   6.229  14.030   3.026
40613SOL     OW23735  11.045  12.381   8.592
40613SOL    HW123736  11.100  12.441   8.643
40613SOL    HW223737  11.095  12.366   8.512
40614SOL     OW23738   3.975   9.029   7.921
40614SOL    HW123739   3.900   8.972   7.901
40614SOL    HW223740   3.978   9.091   7.849
40615SOL     OW23741   8.394  10.937   9.122
40615SOL    HW123742   8.374  10.901   9.208
40615SOL    HW223743   8.486  10.917   9.108
40616SOL     OW23744  10.182   1.709  13.411
40616SOL    HW123745  10.146   1.784  13.459
40616SOL    HW223746  10.250   1.748  13.356
40617SOL     OW23747   5.128  14.048   5.261
40617SOL    HW123748   5.161  13.964   5.292
40617SOL    HW223749   5.073  14.080   5.332
40618SOL     OW23750   8.202  10.474   4.398
40618SOL    HW123751   8.243  10.435   4.321
40618SOL    HW223752   8.267  10.465   4.468
40619SOL     OW23753   2.509  13.113   2.196
40619SOL    HW123754   2.594  13.077   2.169
40619SOL    HW223755   2.517  13.124   2.291
40620SOL     OW23756   9.581  13.319   1.388
40620SOL    HW123757   9.566  13.310   1.483
40620SOL    HW223758   9.510  13.376   1.359
40621SOL     OW23759   2.859  12.076  13.556
40621SOL    HW123760   2.918  12.003  13.575
40621SOL    HW223761   2.795  12.040  13.494
40622SOL     OW23762   8.806  12.979   5.664
40622SOL    HW123763   8.747  12.957   5.592
40622SOL    HW223764   8.882  13.018   5.622
40623SOL     OW23765   6.707  12.819  14.869
40623SOL    HW123766   6.785  12.868  14.842
40623SOL    HW223767   6.724  12.729  14.840
40624SOL     OW23768   2.477   0.777  12.916
40624SOL    HW123769   2.524   0.715  12.971
40624SOL    HW223770   2.385   0.752  12.924
40625SOL     OW23771   8.960  13.534   9.494
40625SOL    HW123772   9.049  13.562   9.513
40625SOL    HW223773   8.970  13.464   9.429
40626SOL     OW23774  12.368   1.769   3.748
40626SOL    HW123775  12.433   1.812   3.692
40626SOL    HW223776  12.415   1.695   3.787
40627SOL     OW23777   5.179  12.896  12.630
40627SOL    HW123778   5.236  12.835  12.677
40627SOL    HW223779   5.123  12.840  12.576
40628SOL     OW23780   8.083  10.698   7.909
40628SOL    HW123781   8.131  10.738   7.982
40628SOL    HW223782   8.041  10.621   7.948
40629SOL     OW23783   1.820   8.752   0.853
40629SOL    HW123784   1.790   8.810   0.783
40629SOL    HW223785   1.867   8.810   0.913
40630SOL     OW23786   8.906  12.588  12.089
40630SOL    HW123787   8.891  12.514  12.148
40630SOL    HW223788   8.998  12.610  12.102
40631SOL     OW23789  13.048   9.247   6.185
40631SOL    HW123790  13.011   9.165   6.152
40631SOL    HW223791  13.035   9.243   6.280
40632SOL     OW23792   7.891   2.983   7.691
40632SOL    HW123793   7.946   3.058   7.713
40632SOL    HW223794   7.837   2.969   7.769
40633SOL     OW23795   7.432   7.634   0.324
40633SOL    HW123796   7.383   7.582   0.387
40633SOL    HW223797   7.386   7.718   0.322
40634SOL     OW23798  10.123   2.635  11.660
40634SOL    HW123799  10.165   2.706  11.709
40634SOL    HW223800  10.116   2.563  11.723
40635SOL     OW23801   5.387  11.047   2.076
40635SOL    HW123802   5.359  10.985   2.009
40635SOL    HW223803   5.322  11.117   2.073
40636SOL     OW23804   4.604   7.102  13.672
40636SOL    HW123805   4.519   7.080  13.710
40636SOL    HW223806   4.638   7.019  13.639
40637SOL     OW23807  11.573   1.455   5.905
40637SOL    HW123808  11.653   1.402   5.909
40637SOL    HW223809  11.550   1.472   5.996
40638SOL     OW23810  14.194   7.096  10.471
40638SOL    HW123811  14.168   7.130  10.386
40638SOL    HW223812  14.222   7.006  10.454
40639SOL     OW23813   5.611  11.578   5.153
40639SOL    HW123814   5.705  11.565   5.166
40639SOL    HW223815   5.582  11.498   5.108
40640SOL     OW23816   8.239   8.665   6.052
40640SOL    HW123817   8.311   8.724   6.032
40640SOL    HW223818   8.250   8.592   5.990
40641SOL     OW23819   8.326   5.814   6.490
40641SOL    HW123820   8.299   5.724   6.470
40641SOL    HW223821   8.244   5.863   6.492
40642SOL     OW23822   8.377   2.948   1.532
40642SOL    HW123823   8.308   2.927   1.470
40642SOL    HW223824   8.331   2.974   1.612
40643SOL     OW23825  11.007   3.211  11.286
40643SOL    HW123826  10.964   3.272  11.346
40643SOL    HW223827  10.937   3.150  11.261
40644SOL     OW23828   8.327  13.462  14.077
40644SOL    HW123829   8.362  13.494  13.994
40644SOL    HW223830   8.402  13.426  14.124
40645SOL     OW23831  13.222  10.405   2.886
40645SOL    HW123832  13.316  10.419   2.874
40645SOL    HW223833  13.182  10.487   2.860
40646SOL     OW23834   9.657   0.845   6.392
40646SOL    HW123835   9.744   0.804   6.388
40646SOL    HW223836   9.668   0.929   6.348
40647SOL     OW23837  11.593   7.331  13.931
40647SOL    HW123838  11.514   7.366  13.888
40647SOL    HW223839  11.633   7.408  13.972
40648SOL     OW23840   5.594   0.033   0.081
40648SOL    HW123841   5.533  14.866   0.026
40648SOL    HW223842   5.673   0.041   0.029
40649SOL     OW23843   5.981   5.382   6.035
40649SOL    HW123844   6.076   5.374   6.022
40649SOL    HW223845   5.972   5.451   6.101
40650SOL     OW23846   7.835   1.705   7.093
40650SOL    HW123847   7.797   1.618   7.104
40650SOL    HW223848   7.848   1.737   7.182
40651SOL     OW23849   1.266   0.752   1.077
40651SOL    HW123850   1.207   0.728   1.005
40651SOL    HW223851   1.235   0.702   1.152
40652SOL     OW23852   6.441   3.161  13.229
40652SOL    HW123853   6.497   3.125  13.299
40652SOL    HW223854   6.457   3.255  13.233
40653SOL     OW23855   6.355   6.944   6.948
40653SOL    HW123856   6.266   6.914   6.966
40653SOL    HW223857   6.374   7.007   7.017
40654SOL     OW23858   9.092  10.260   5.651
40654SOL    HW123859   9.141  10.278   5.731
40654SOL    HW223860   9.095  10.343   5.602
40655SOL     OW23861   9.753  13.034   8.780
40655SOL    HW123862   9.827  13.093   8.767
40655SOL    HW223863   9.775  12.984   8.858
40656SOL     OW23864  14.213   7.266  12.293
40656SOL    HW123865  14.246   7.223  12.372
40656SOL    HW223866  14.140   7.320  12.323
40657SOL     OW23867   9.835  10.820   8.816
40657SOL    HW123868   9.749  10.783   8.835
40657SOL    HW223869   9.893  10.780   8.881
40658SOL     OW23870   2.770   1.418   0.566
40658SOL    HW123871   2.715   1.442   0.641
40658SOL    HW223872   2.724   1.346   0.524
40659SOL     OW23873   7.749  13.234   5.016
40659SOL    HW123874   7.704  13.193   5.091
40659SOL    HW223875   7.678  13.274   4.965
40660SOL     OW23876  11.595   8.638   7.660
40660SOL    HW123877  11.675   8.640   7.713
40660SOL    HW223878  11.589   8.547   7.630
40661SOL     OW23879   0.638  13.762  11.863
40661SOL    HW123880   0.594  13.847  11.855
40661SOL    HW223881   0.686  13.768  11.946
40662SOL     OW23882   8.371   2.387   2.141
40662SOL    HW123883   8.391   2.294   2.146
40662SOL    HW223884   8.283   2.391   2.104
40663SOL     OW23885  13.183   4.073  14.496
40663SOL    HW123886  13.236   4.135  14.548
40663SOL    HW223887  13.096   4.077  14.537
40664SOL     OW23888   9.949   7.425   6.892
40664SOL    HW123889  10.028   7.399   6.939
40664SOL    HW223890   9.957   7.519   6.881
40665SOL     OW23891   4.781   3.668   2.974
40665SOL    HW123892   4.780   3.700   2.884
40665SOL    HW223893   4.693   3.634   2.988
40666SOL     OW23894   8.939  11.793  11.909
40666SOL    HW123895   8.929  11.759  11.820
40666SOL    HW223896   9.022  11.840  11.908
40667SOL     OW23897  10.961   3.555   7.954
40667SOL    HW123898  10.963   3.638   8.001
40667SOL    HW223899  10.976   3.578   7.863
40668SOL     OW23900   0.981  13.199   9.399
40668SOL    HW123901   1.049  13.189   9.465
40668SOL    HW223902   1.026  13.187   9.316
40669SOL     OW23903  14.160   9.377   9.294
40669SOL    HW123904  14.170   9.400   9.386
40669SOL    HW223905  14.122   9.456   9.254
40670SOL     OW23906  12.756   4.348   1.070
40670SOL    HW123907  12.772   4.397   0.989
40670SOL    HW223908  12.842   4.314   1.096
40671SOL     OW23909   5.314   0.451   8.087
40671SOL    HW123910   5.376   0.509   8.043
40671SOL    HW223911   5.230   0.469   8.043
40672SOL     OW23912   4.604   7.133   5.341
40672SOL    HW123913   4.633   7.169   5.425
40672SOL    HW223914   4.630   7.041   5.344
40673SOL     OW23915  10.487   6.253  10.319
40673SOL    HW123916  10.543   6.263  10.242
40673SOL    HW223917  10.416   6.195  10.291
40674SOL     OW23918   9.704  14.738   1.147
40674SOL    HW123919   9.621  14.785   1.136
40674SOL    HW223920   9.753  14.790   1.210
40675SOL     OW23921   7.274   3.106   6.648
40675SOL    HW123922   7.326   3.028   6.627
40675SOL    HW223923   7.338   3.169   6.681
40676SOL     OW23924   2.459   4.818  14.378
40676SOL    HW123925   2.366   4.835  14.395
40676SOL    HW223926   2.478   4.737  14.426
40677SOL     OW23927  14.804   9.116   0.465
40677SOL    HW123928  14.828   9.119   0.557
40677SOL    HW223929  14.739   9.046   0.460
40678SOL     OW23930   1.958  13.474   3.986
40678SOL    HW123931   2.001  13.529   3.920
40678SOL    HW223932   1.958  13.527   4.066
40679SOL     OW23933   4.498   2.602   4.182
40679SOL    HW123934   4.526   2.563   4.265
40679SOL    HW223935   4.403   2.606   4.189
40680SOL     OW23936   7.311   3.967   1.425
40680SOL    HW123937   7.358   3.918   1.492
40680SOL    HW223938   7.280   3.901   1.363
40681SOL     OW23939   3.491   7.712   5.767
40681SOL    HW123940   3.544   7.677   5.696
40681SOL    HW223941   3.505   7.651   5.840
40682SOL     OW23942   0.612   8.432   5.180
40682SOL    HW123943   0.598   8.501   5.245
40682SOL    HW223944   0.598   8.476   5.096
40683SOL     OW23945   8.888   7.671   3.407
40683SOL    HW123946   8.803   7.628   3.403
40683SOL    HW223947   8.868   7.765   3.407
40684SOL     OW23948   7.832   8.122   8.254
40684SOL    HW123949   7.761   8.093   8.312
40684SOL    HW223950   7.790   8.185   8.195
40685SOL     OW23951   0.982   4.294   9.640
40685SOL    HW123952   1.038   4.254   9.573
40685SOL    HW223953   0.960   4.380   9.604
40686SOL     OW23954   3.828   7.940   1.646
40686SOL    HW123955   3.817   8.022   1.598
40686SOL    HW223956   3.738   7.911   1.663
40687SOL     OW23957  10.049   0.140  10.517
40687SOL    HW123958  10.078   0.053  10.542
40687SOL    HW223959  10.026   0.132  10.424
40688SOL     OW23960   2.479   1.544   0.067
40688SOL    HW123961   2.481   1.453   0.035
40688SOL    HW223962   2.536   1.544   0.143
40689SOL     OW23963  11.034  13.453  11.261
40689SOL    HW123964  11.111  13.445  11.205
40689SOL    HW223965  11.069  13.476  11.347
40690SOL     OW23966   9.777  11.537   6.820
40690SOL    HW123967   9.772  11.583   6.736
40690SOL    HW223968   9.781  11.607   6.886
40691SOL     OW23969  13.853   1.372   2.409
40691SOL    HW123970  13.896   1.443   2.457
40691SOL    HW223971  13.909   1.296   2.423
40692SOL     OW23972   1.705   3.741  13.683
40692SOL    HW123973   1.701   3.648  13.706
40692SOL    HW223974   1.614   3.771  13.686
40693SOL     OW23975   0.009   5.807   3.913
40693SOL    HW123976   0.020   5.778   4.004
40693SOL    HW223977   0.036   5.899   3.914
40694SOL     OW23978   5.980  13.588   4.149
40694SOL    HW123979   6.018  13.501   4.159
40694SOL    HW223980   6.052  13.643   4.118
40695SOL     OW23981   1.053  11.035   8.885
40695SOL    HW123982   0.975  11.041   8.830
40695SOL    HW223983   1.125  11.024   8.823
40696SOL     OW23984  14.502   8.892  10.528
40696SOL    HW123985  14.415   8.861  10.553
40696SOL    HW223986  14.498   8.902  10.433
40697SOL     OW23987  10.440  14.175   6.446
40697SOL    HW123988  10.366  14.121   6.415
40697SOL    HW223989  10.431  14.176   6.541
40698SOL     OW23990   5.968   5.688   9.261
40698SOL    HW123991   5.915   5.721   9.188
40698SOL    HW223992   5.909   5.630   9.309
40699SOL     OW23993   8.410  14.309   5.122
40699SOL    HW123994   8.355  14.302   5.200
40699SOL    HW223995   8.354  14.352   5.057
40700SOL     OW23996   9.638  12.572  10.880
40700SOL    HW123997   9.563  12.598  10.827
40700SOL    HW223998   9.671  12.654  10.917
40701SOL     OW23999  12.977   5.881   3.814
40701SOL    HW124000  13.058   5.911   3.773
40701SOL    HW224001  12.936   5.960   3.848
40702SOL     OW24002   3.464   5.196   0.759
40702SOL    HW124003   3.518   5.266   0.794
40702SOL    HW224004   3.382   5.202   0.809
40703SOL     OW24005  14.757  10.034   3.704
40703SOL    HW124006  14.782   9.974   3.634
40703SOL    HW224007  14.713  10.106   3.659
40704SOL     OW24008  11.035   1.762  11.907
40704SOL    HW124009  10.993   1.823  11.847
40704SOL    HW224010  11.051   1.684  11.854
40705SOL     OW24011   1.061   1.272   6.027
40705SOL    HW124012   1.020   1.192   5.995
40705SOL    HW224013   1.074   1.256   6.121
40706SOL     OW24014   6.756  14.321   5.907
40706SOL    HW124015   6.739  14.383   5.978
40706SOL    HW224016   6.742  14.372   5.827
40707SOL     OW24017  13.246  10.540  11.987
40707SOL    HW124018  13.331  10.560  12.026
40707SOL    HW224019  13.238  10.445  11.996
40708SOL     OW24020   0.244   2.222  14.097
40708SOL    HW124021   0.285   2.141  14.127
40708SOL    HW224022   0.268   2.229  14.005
40709SOL     OW24023   0.731  10.741  13.899
40709SOL    HW124024   0.792  10.674  13.871
40709SOL    HW224025   0.651  10.724  13.849
40710SOL     OW24026   1.675  11.856   8.178
40710SOL    HW124027   1.646  11.787   8.118
40710SOL    HW224028   1.770  11.858   8.168
40711SOL     OW24029   2.793  11.279   2.972
40711SOL    HW124030   2.738  11.218   3.020
40711SOL    HW224031   2.785  11.252   2.881
40712SOL     OW24032   2.276  14.821   7.531
40712SOL    HW124033   2.350  14.772   7.496
40712SOL    HW224034   2.270  14.794   7.622
40713SOL     OW24035   4.187  10.312   3.234
40713SOL    HW124036   4.251  10.382   3.221
40713SOL    HW224037   4.146  10.333   3.318
40714SOL     OW24038  14.738   2.982  11.468
40714SOL    HW124039  14.696   3.000  11.384
40714SOL    HW224040  14.814   2.928  11.446
40715SOL     OW24041   5.965   1.909   0.612
40715SOL    HW124042   6.008   1.986   0.649
40715SOL    HW224043   6.001   1.902   0.524
40716SOL     OW24044   8.879  13.086  13.223
40716SOL    HW124045   8.972  13.078  13.244
40716SOL    HW224046   8.836  13.101  13.307
40717SOL     OW24047  10.198   6.304  11.214
40717SOL    HW124048  10.151   6.222  11.198
40717SOL    HW224049  10.189   6.319  11.308
40718SOL     OW24050   9.488  13.848   0.299
40718SOL    HW124051   9.572  13.824   0.260
40718SOL    HW224052   9.490  13.944   0.302
40719SOL     OW24053   1.885  12.835   5.005
40719SOL    HW124054   1.861  12.899   5.071
40719SOL    HW224055   1.956  12.876   4.955
40720SOL     OW24056   8.010   8.118   4.384
40720SOL    HW124057   8.037   8.038   4.428
40720SOL    HW224058   8.065   8.187   4.423
40721SOL     OW24059   1.326   2.818   3.200
40721SOL    HW124060   1.250   2.768   3.170
40721SOL    HW224061   1.299   2.910   3.189
40722SOL     OW24062  11.488   8.729   5.521
40722SOL    HW124063  11.462   8.696   5.435
40722SOL    HW224064  11.584   8.719   5.522
40723SOL     OW24065   8.699   5.578   1.813
40723SOL    HW124066   8.698   5.526   1.893
40723SOL    HW224067   8.716   5.667   1.842
40724SOL     OW24068  11.608   9.126  14.647
40724SOL    HW124069  11.560   9.147  14.727
40724SOL    HW224070  11.649   9.208  14.621
40725SOL     OW24071   4.477   6.089   6.184
40725SOL    HW124072   4.472   6.148   6.109
40725SOL    HW224073   4.390   6.050   6.191
40726SOL     OW24074   3.783   9.837   1.527
40726SOL    HW124075   3.687   9.846   1.531
40726SOL    HW224076   3.813   9.922   1.495
40727SOL     OW24077   9.636  13.539  12.989
40727SOL    HW124078   9.599  13.453  12.969
40727SOL    HW224079   9.641  13.543  13.084
40728SOL     OW24080   8.703   2.991  12.226
40728SOL    HW124081   8.789   2.952  12.211
40728SOL    HW224082   8.663   2.936  12.293
40729SOL     OW24083   6.093  11.993   5.244
40729SOL    HW124084   6.143  12.040   5.177
40729SOL    HW224085   6.118  12.034   5.326
40730SOL     OW24086   9.293  10.053   8.650
40730SOL    HW124087   9.383  10.044   8.684
40730SOL    HW224088   9.253  10.117   8.708
40731SOL     OW24089  13.057  14.349  10.027
40731SOL    HW124090  12.985  14.319   9.971
40731SOL    HW224091  13.040  14.442  10.039
40732SOL     OW24092   3.184   1.821  11.090
40732SOL    HW124093   3.238   1.760  11.140
40732SOL    HW224094   3.195   1.795  10.999
40733SOL     OW24095  12.147   6.878   7.451
40733SOL    HW124096  12.136   6.957   7.397
40733SOL    HW224097  12.059   6.843   7.461
40734SOL     OW24098   0.837   4.852   2.680
40734SOL    HW124099   0.924   4.837   2.643
40734SOL    HW224100   0.787   4.891   2.609
40735SOL     OW24101   3.502   8.422  11.154
40735SOL    HW124102   3.423   8.433  11.206
40735SOL    HW224103   3.539   8.339  11.183
40736SOL     OW24104   3.865   8.526   2.281
40736SOL    HW124105   3.918   8.466   2.333
40736SOL    HW224106   3.890   8.506   2.190
40737SOL     OW24107   5.642   5.099   2.413
40737SOL    HW124108   5.652   5.187   2.450
40737SOL    HW224109   5.563   5.065   2.454
40738SOL     OW24110   1.276   5.626   6.304
40738SOL    HW124111   1.257   5.609   6.212
40738SOL    HW224112   1.294   5.539   6.341
40739SOL     OW24113   0.870  14.879   1.283
40739SOL    HW124114   0.809  14.824   1.233
40739SOL    HW224115   0.837   0.086   1.270
40740SOL     OW24116   4.498   3.191   5.699
40740SOL    HW124117   4.476   3.266   5.643
40740SOL    HW224118   4.554   3.229   5.767
40741SOL     OW24119   7.709   1.751  14.839
40741SOL    HW124120   7.676   1.664  14.863
40741SOL    HW224121   7.803   1.738  14.829
40742SOL     OW24122   3.997   2.359   3.233
40742SOL    HW124123   4.054   2.323   3.165
40742SOL    HW224124   3.992   2.291   3.299
40743SOL     OW24125  12.874   4.146  12.686
40743SOL    HW124126  12.937   4.206  12.647
40743SOL    HW224127  12.923   4.101  12.756
40744SOL     OW24128   2.392   5.431  12.756
40744SOL    HW124129   2.370   5.422  12.663
40744SOL    HW224130   2.408   5.524  12.768
40745SOL     OW24131  12.258  14.536   3.204
40745SOL    HW124132  12.175  14.490   3.192
40745SOL    HW224133  12.323  14.479   3.162
40746SOL     OW24134   2.272   6.596   1.455
40746SOL    HW124135   2.204   6.654   1.421
40746SOL    HW224136   2.297   6.542   1.380
40747SOL     OW24137  13.028  11.821   0.449
40747SOL    HW124138  13.020  11.858   0.361
40747SOL    HW224139  13.089  11.880   0.494
40748SOL     OW24140   9.409   9.659  14.202
40748SOL    HW124141   9.359   9.740  14.192
40748SOL    HW224142   9.442   9.639  14.114
40749SOL     OW24143   2.475   9.092   4.442
40749SOL    HW124144   2.390   9.106   4.484
40749SOL    HW224145   2.526   9.043   4.506
40750SOL     OW24146   4.543   5.707   5.478
40750SOL    HW124147   4.594   5.771   5.430
40750SOL    HW224148   4.599   5.629   5.481
40751SOL     OW24149  11.771   1.578   4.914
40751SOL    HW124150  11.825   1.619   4.981
40751SOL    HW224151  11.726   1.652   4.872
40752SOL     OW24152   1.993  11.212  11.346
40752SOL    HW124153   2.061  11.145  11.334
40752SOL    HW224154   1.911  11.163  11.347
40753SOL     OW24155   9.546   8.952  10.065
40753SOL    HW124156   9.572   8.860  10.061
40753SOL    HW224157   9.451   8.950  10.075
40754SOL     OW24158   3.099   0.088   5.724
40754SOL    HW124159   3.053   0.072   5.806
40754SOL    HW224160   3.059   0.028   5.661
40755SOL     OW24161   4.813  13.316  13.474
40755SOL    HW124162   4.804  13.247  13.409
40755SOL    HW224163   4.854  13.273  13.549
40756SOL     OW24164  12.121   0.182   1.970
40756SOL    HW124165  12.081   0.099   1.945
40756SOL    HW224166  12.109   0.239   1.895
40757SOL     OW24167   3.776   7.960   7.705
40757SOL    HW124168   3.866   7.985   7.687
40757SOL    HW224169   3.775   7.865   7.697
40758SOL     OW24170   9.826   6.617   4.504
40758SOL    HW124171   9.801   6.696   4.553
40758SOL    HW224172   9.757   6.605   4.440
40759SOL     OW24173  13.161  10.003  11.693
40759SOL    HW124174  13.226  10.054  11.741
40759SOL    HW224175  13.119  10.066  11.635
40760SOL     OW24176  11.620   5.222   0.257
40760SOL    HW124177  11.530   5.190   0.262
40760SOL    HW224178  11.621   5.278   0.180
40761SOL     OW24179  11.021  14.373  14.390
40761SOL    HW124180  11.049  14.326  14.312
40761SOL    HW224181  10.933  14.405  14.369
40762SOL     OW24182   1.363  10.746   4.132
40762SOL    HW124183   1.415  10.695   4.194
40762SOL    HW224184   1.418  10.751   4.054
40763SOL     OW24185  11.057   3.844   1.812
40763SOL    HW124186  11.033   3.923   1.763
40763SOL    HW224187  11.121   3.875   1.876
40764SOL     OW24188  13.168   7.849  10.949
40764SOL    HW124189  13.244   7.870  10.895
40764SOL    HW224190  13.135   7.934  10.979
40765SOL     OW24191   6.477   5.231   0.075
40765SOL    HW124192   6.480   5.209  14.864
40765SOL    HW224193   6.547   5.177   0.114
40766SOL     OW24194   4.710   8.523   0.044
40766SOL    HW124195   4.750   8.592   0.096
40766SOL    HW224196   4.767   8.514  14.850
40767SOL     OW24197  13.319   9.010   3.142
40767SOL    HW124198  13.305   9.102   3.163
40767SOL    HW224199  13.412   9.005   3.118
40768SOL     OW24200  11.370   1.919   4.035
40768SOL    HW124201  11.397   2.010   4.023
40768SOL    HW224202  11.443   1.878   4.081
40769SOL     OW24203  12.100   2.908  14.395
40769SOL    HW124204  12.046   2.942  14.466
40769SOL    HW224205  12.171   2.861  14.439
40770SOL     OW24206   8.166   4.301  14.702
40770SOL    HW124207   8.235   4.240  14.676
40770SOL    HW224208   8.178   4.377  14.646
40771SOL     OW24209   7.674   6.705   7.479
40771SOL    HW124210   7.745   6.663   7.430
40771SOL    HW224211   7.606   6.723   7.413
40772SOL     OW24212   5.073   9.674   5.599
40772SOL    HW124213   5.039   9.600   5.650
40772SOL    HW224214   5.035   9.663   5.512
40773SOL     OW24215  14.016  11.138   3.967
40773SOL    HW124216  14.043  11.097   3.884
40773SOL    HW224217  14.074  11.099   4.032
40774SOL     OW24218   5.875   4.203   5.970
40774SOL    HW124219   5.833   4.183   5.886
40774SOL    HW224220   5.933   4.276   5.951
40775SOL     OW24221   4.108   6.997   8.195
40775SOL    HW124222   4.092   6.952   8.112
40775SOL    HW224223   4.200   6.980   8.214
40776SOL     OW24224   3.180  10.276  11.710
40776SOL    HW124225   3.120  10.345  11.682
40776SOL    HW224226   3.267  10.316  11.705
40777SOL     OW24227  10.816  10.339   9.139
40777SOL    HW124228  10.730  10.348   9.181
40777SOL    HW224229  10.816  10.251   9.102
40778SOL     OW24230   5.010   5.846  14.124
40778SOL    HW124231   5.052   5.760  14.113
40778SOL    HW224232   4.930   5.827  14.174
40779SOL     OW24233   7.127   5.871   9.320
40779SOL    HW124234   7.196   5.899   9.260
40779SOL    HW224235   7.061   5.830   9.264
40780SOL     OW24236   0.206   4.465   7.968
40780SOL    HW124237   0.161   4.491   7.888
40780SOL    HW224238   0.199   4.541   8.026
40781SOL     OW24239   0.806   8.843  11.138
40781SOL    HW124240   0.846   8.757  11.147
40781SOL    HW224241   0.738   8.832  11.072
40782SOL     OW24242   1.643  11.145  11.792
40782SOL    HW124243   1.680  11.219  11.840
40782SOL    HW224244   1.548  11.152  11.808
40783SOL     OW24245   8.077   0.294   5.866
40783SOL    HW124246   7.990   0.257   5.880
40783SOL    HW224247   8.130   0.257   5.937
40784SOL     OW24248   2.736   0.233  10.565
40784SOL    HW124249   2.735   0.178  10.643
40784SOL    HW224250   2.651   0.277  10.565
40785SOL     OW24251   1.177   4.594  13.545
40785SOL    HW124252   1.106   4.540  13.511
40785SOL    HW224253   1.249   4.583  13.482
40786SOL     OW24254  10.827  12.826  10.848
40786SOL    HW124255  10.757  12.767  10.822
40786SOL    HW224256  10.888  12.771  10.896
40787SOL     OW24257   8.242  13.012   0.600
40787SOL    HW124258   8.269  13.103   0.609
40787SOL    HW224259   8.244  12.995   0.506
40788SOL     OW24260  12.484   3.904  13.660
40788SOL    HW124261  12.436   3.979  13.696
40788SOL    HW224262  12.565   3.941  13.625
40789SOL     OW24263   8.400   8.880   9.511
40789SOL    HW124264   8.480   8.829   9.528
40789SOL    HW224265   8.428   8.971   9.520
40790SOL     OW24266   2.746  14.151   7.730
40790SOL    HW124267   2.693  14.110   7.797
40790SOL    HW224268   2.771  14.079   7.671
40791SOL     OW24269  10.807   5.905   4.984
40791SOL    HW124270  10.893   5.866   4.970
40791SOL    HW224271  10.795   5.964   4.909
40792SOL     OW24272  11.141  10.886   0.760
40792SOL    HW124273  11.195  10.924   0.690
40792SOL    HW224274  11.052  10.914   0.739
40793SOL     OW24275   1.194  11.698   3.367
40793SOL    HW124276   1.284  11.678   3.343
40793SOL    HW224277   1.142  11.662   3.295
40794SOL     OW24278   6.708   5.999  11.669
40794SOL    HW124279   6.760   6.065  11.624
40794SOL    HW224280   6.771   5.932  11.694
40795SOL     OW24281   4.516   2.956  11.468
40795SOL    HW124282   4.472   3.011  11.403
40795SOL    HW224283   4.471   2.975  11.551
40796SOL     OW24284  14.841  10.516  14.395
40796SOL    HW124285  14.787  10.595  14.394
40796SOL    HW224286   0.044  10.546  14.426
40797SOL     OW24287   8.164   4.634   3.535
40797SOL    HW124288   8.100   4.578   3.578
40797SOL    HW224289   8.177   4.594   3.449
40798SOL     OW24290   5.816   5.125  12.272
40798SOL    HW124291   5.844   5.068  12.344
40798SOL    HW224292   5.893   5.177  12.251
40799SOL     OW24293   3.059   7.722   2.301
40799SOL    HW124294   3.051   7.699   2.208
40799SOL    HW224295   2.971   7.710   2.336
40800SOL     OW24296   6.462  12.167   8.272
40800SOL    HW124297   6.450  12.132   8.360
40800SOL    HW224298   6.374  12.189   8.242
40801SOL     OW24299   0.012   1.465  11.265
40801SOL    HW124300  14.846   1.544  11.289
40801SOL    HW224301   0.091   1.468  11.320
40802SOL     OW24302   3.824   0.150   0.465
40802SOL    HW124303   3.743   0.130   0.511
40802SOL    HW224304   3.892   0.101   0.512
40803SOL     OW24305   0.949   8.865  13.499
40803SOL    HW124306   1.028   8.825  13.463
40803SOL    HW224307   0.918   8.923  13.430
40804SOL     OW24308  10.597   8.958  12.909
40804SOL    HW124309  10.550   8.924  12.832
40804SOL    HW224310  10.534   8.951  12.980
40805SOL     OW24311   2.970   0.545  12.676
40805SOL    HW124312   3.008   0.623  12.637
40805SOL    HW224313   2.876   0.550  12.656
40806SOL     OW24314   2.693   3.462  11.798
40806SOL    HW124315   2.674   3.527  11.866
40806SOL    HW224316   2.717   3.513  11.721
40807SOL     OW24317   5.629   8.374  13.388
40807SOL    HW124318   5.709   8.328  13.360
40807SOL    HW224319   5.637   8.461  13.348
40808SOL     OW24320  11.747   1.043  12.408
40808SOL    HW124321  11.688   0.998  12.469
40808SOL    HW224322  11.786   1.113  12.461
40809SOL     OW24323   7.642  11.514  13.255
40809SOL    HW124324   7.668  11.590  13.307
40809SOL    HW224325   7.700  11.516  13.179
40810SOL     OW24326   6.810  10.944  10.160
40810SOL    HW124327   6.824  10.891  10.081
40810SOL    HW224328   6.735  10.903  10.203
40811SOL     OW24329   2.243  11.750  10.895
40811SOL    HW124330   2.264  11.704  10.814
40811SOL    HW224331   2.306  11.717  10.958
40812SOL     OW24332   0.913  11.299  11.709
40812SOL    HW124333   0.877  11.281  11.622
40812SOL    HW224334   0.935  11.392  11.707
40813SOL     OW24335  10.589   1.168   1.446
40813SOL    HW124336  10.532   1.243   1.464
40813SOL    HW224337  10.678   1.204   1.447
40814SOL     OW24338   7.248  12.762   4.415
40814SOL    HW124339   7.275  12.826   4.349
40814SOL    HW224340   7.309  12.774   4.487
40815SOL     OW24341   2.067   9.189   9.857
40815SOL    HW124342   2.021   9.258   9.809
40815SOL    HW224343   2.126   9.150   9.793
40816SOL     OW24344   6.388  14.702   3.385
40816SOL    HW124345   6.382  14.767   3.456
40816SOL    HW224346   6.415  14.753   3.308
40817SOL     OW24347   0.641  13.490   0.565
40817SOL    HW124348   0.643  13.559   0.632
40817SOL    HW224349   0.725  13.445   0.575
40818SOL     OW24350  14.393  10.479   0.895
40818SOL    HW124351  14.362  10.389   0.889
40818SOL    HW224352  14.343  10.516   0.968
40819SOL     OW24353   5.669   8.505  12.663
40819SOL    HW124354   5.738   8.509  12.596
40819SOL    HW224355   5.700   8.439  12.725
40820SOL     OW24356   3.183  10.538  10.411
40820SOL    HW124357   3.141  10.524  10.496
40820SOL    HW224358   3.276  10.522  10.427
40821SOL     OW24359  12.550   1.339   1.559
40821SOL    HW124360  12.625   1.323   1.617
40821SOL    HW224361  12.589   1.369   1.477
40822SOL     OW24362   6.046   1.406   5.072
40822SOL    HW124363   6.071   1.495   5.048
40822SOL    HW224364   6.103   1.350   5.020
40823SOL     OW24365  10.892  11.588   7.571
40823SOL    HW124366  10.919  11.539   7.649
40823SOL    HW224367  10.810  11.629   7.596
40824SOL     OW24368   7.612   7.946  13.540
40824SOL    HW124369   7.674   7.874  13.526
40824SOL    HW224370   7.551   7.913  13.606
40825SOL     OW24371  13.152  11.524  14.495
40825SOL    HW124372  13.225  11.505  14.553
40825SOL    HW224373  13.102  11.442  14.491
40826SOL     OW24374   7.413   6.420   4.350
40826SOL    HW124375   7.451   6.383   4.270
40826SOL    HW224376   7.324   6.384   4.353
40827SOL     OW24377  12.456  13.345   4.716
40827SOL    HW124378  12.383  13.378   4.769
40827SOL    HW224379  12.511  13.298   4.778
40828SOL     OW24380   1.681   8.904   9.954
40828SOL    HW124381   1.598   8.868   9.986
40828SOL    HW224382   1.715   8.955  10.028
40829SOL     OW24383   0.296   8.512   7.282
40829SOL    HW124384   0.297   8.573   7.356
40829SOL    HW224385   0.373   8.456   7.296
40830SOL     OW24386   4.649  12.013  11.773
40830SOL    HW124387   4.582  11.985  11.711
40830SOL    HW224388   4.707  11.938  11.783
40831SOL     OW24389   3.046   1.071   9.741
40831SOL    HW124390   3.104   1.123   9.796
40831SOL    HW224391   2.964   1.120   9.741
40832SOL     OW24392  10.827   2.178   0.244
40832SOL    HW124393  10.835   2.164   0.339
40832SOL    HW224394  10.743   2.222   0.233
40833SOL     OW24395   4.790  12.865   0.446
40833SOL    HW124396   4.736  12.786   0.441
40833SOL    HW224397   4.771  12.901   0.532
40834SOL     OW24398   2.809   5.996  13.721
40834SOL    HW124399   2.719   5.967  13.708
40834SOL    HW224400   2.827   5.979  13.813
40835SOL     OW24401   6.658   5.211   2.031
40835SOL    HW124402   6.740   5.252   2.003
40835SOL    HW224403   6.622   5.272   2.096
40836SOL     OW24404   0.052  12.043  10.206
40836SOL    HW124405   0.064  12.097  10.285
40836SOL    HW224406   0.139  12.040  10.166
40837SOL     OW24407  14.860  12.656  13.187
40837SOL    HW124408   0.044  12.717  13.153
40837SOL    HW224409  14.805  12.709  13.243
40838SOL     OW24410   6.618  10.250  12.418
40838SOL    HW124411   6.664  10.210  12.345
40838SOL    HW224412   6.525  10.229  12.404
40839SOL     OW24413   5.407  14.474  11.352
40839SOL    HW124414   5.344  14.454  11.282
40839SOL    HW224415   5.479  14.412  11.336
40840SOL     OW24416   4.568   6.654   8.718
40840SOL    HW124417   4.491   6.616   8.762
40840SOL    HW224418   4.547   6.747   8.710
40841SOL     OW24419   2.856   5.327   2.609
40841SOL    HW124420   2.767   5.345   2.580
40841SOL    HW224421   2.869   5.234   2.591
40842SOL     OW24422  11.716   6.349   0.647
40842SOL    HW124423  11.686   6.404   0.576
40842SOL    HW224424  11.748   6.269   0.604
40843SOL     OW24425  12.968   5.939  14.122
40843SOL    HW124426  13.029   5.866  14.114
40843SOL    HW224427  13.010   5.999  14.183
40844SOL     OW24428  12.592  14.602  11.257
40844SOL    HW124429  12.533  14.619  11.330
40844SOL    HW224430  12.653  14.675  11.258
40845SOL     OW24431  11.082   9.386   2.101
40845SOL    HW124432  11.094   9.404   2.194
40845SOL    HW224433  10.989   9.364   2.093
40846SOL     OW24434   7.502   3.920  12.537
40846SOL    HW124435   7.410   3.944  12.540
40846SOL    HW224436   7.524   3.894  12.627
40847SOL     OW24437   7.748   3.317   5.259
40847SOL    HW124438   7.756   3.229   5.223
40847SOL    HW224439   7.747   3.304   5.354
40848SOL     OW24440   5.148   2.467  12.827
40848SOL    HW124441   5.113   2.555  12.810
40848SOL    HW224442   5.070   2.411  12.829
40849SOL     OW24443   7.496   3.073   5.589
40849SOL    HW124444   7.561   3.088   5.657
40849SOL    HW224445   7.544   3.025   5.520
40850SOL     OW24446   9.321  14.240   7.522
40850SOL    HW124447   9.276  14.290   7.590
40850SOL    HW224448   9.278  14.264   7.440
40851SOL     OW24449  12.414   1.196   1.348
40851SOL    HW124450  12.419   1.276   1.296
40851SOL    HW224451  12.450   1.221   1.433
40852SOL     OW24452   9.633   1.420  11.898
40852SOL    HW124453   9.693   1.365  11.849
40852SOL    HW224454   9.598   1.363  11.966
40853SOL     OW24455   8.368   8.242   2.972
40853SOL    HW124456   8.442   8.297   2.946
40853SOL    HW224457   8.407   8.175   3.028
40854SOL     OW24458  11.068   7.292   2.513
40854SOL    HW124459  10.993   7.236   2.492
40854SOL    HW224460  11.034   7.353   2.578
40855SOL     OW24461  13.002  10.520   3.031
40855SOL    HW124462  12.928  10.502   3.090
40855SOL    HW224463  13.012  10.439   2.981
40856SOL     OW24464   3.287   0.787   2.361
40856SOL    HW124465   3.293   0.784   2.265
40856SOL    HW224466   3.217   0.726   2.383
40857SOL     OW24467   3.914   5.635   6.523
40857SOL    HW124468   4.006   5.609   6.528
40857SOL    HW224469   3.907   5.710   6.583
40858SOL     OW24470  12.852  12.714   4.203
40858SOL    HW124471  12.820  12.802   4.187
40858SOL    HW224472  12.872  12.712   4.297
40859SOL     OW24473   5.585  13.919   3.756
40859SOL    HW124474   5.626  13.833   3.771
40859SOL    HW224475   5.659  13.980   3.753
40860SOL     OW24476   2.495   7.011   0.790
40860SOL    HW124477   2.459   7.084   0.841
40860SOL    HW224478   2.566   7.050   0.739
40861SOL     OW24479  11.782  12.431   0.721
40861SOL    HW124480  11.789  12.517   0.681
40861SOL    HW224481  11.782  12.448   0.815
40862SOL     OW24482  10.493   5.737  12.933
40862SOL    HW124483  10.523   5.655  12.972
40862SOL    HW224484  10.566   5.797  12.945
40863SOL     OW24485   8.115   7.175   0.303
40863SOL    HW124486   8.109   7.208   0.213
40863SOL    HW224487   8.067   7.092   0.301
40864SOL     OW24488  11.043   8.030  14.734
40864SOL    HW124489  11.128   7.991  14.711
40864SOL    HW224490  11.023   8.088  14.661
40865SOL     OW24491  10.866  10.960  10.422
40865SOL    HW124492  10.947  10.934  10.379
40865SOL    HW224493  10.876  11.054  10.437
40866SOL     OW24494  14.078   1.061   6.238
40866SOL    HW124495  14.041   1.149   6.225
40866SOL    HW224496  14.149   1.056   6.175
40867SOL     OW24497   6.582   4.345   0.266
40867SOL    HW124498   6.571   4.438   0.282
40867SOL    HW224499   6.605   4.308   0.352
40868SOL     OW24500  11.305   7.323  11.720
40868SOL    HW124501  11.307   7.253  11.655
40868SOL    HW224502  11.341   7.399  11.675
40869SOL     OW24503   5.970  10.388  10.242
40869SOL    HW124504   5.937  10.478  10.238
40869SOL    HW224505   6.064  10.397  10.251
40870SOL     OW24506   2.973  11.189  14.342
40870SOL    HW124507   3.025  11.264  14.372
40870SOL    HW224508   3.027  11.112  14.363
40871SOL     OW24509   3.862   1.915   1.224
40871SOL    HW124510   3.916   1.992   1.242
40871SOL    HW224511   3.806   1.940   1.151
40872SOL     OW24512  14.627   6.942   9.157
40872SOL    HW124513  14.691   6.903   9.097
40872SOL    HW224514  14.671   7.020   9.192
40873SOL     OW24515   1.264   6.510   5.609
40873SOL    HW124516   1.227   6.561   5.537
40873SOL    HW224517   1.270   6.573   5.682
40874SOL     OW24518  14.340   0.834   3.145
40874SOL    HW124519  14.282   0.903   3.177
40874SOL    HW224520  14.425   0.855   3.183
40875SOL     OW24521   4.040   2.166  10.870
40875SOL    HW124522   4.033   2.226  10.944
40875SOL    HW224523   4.045   2.222  10.793
40876SOL     OW24524   3.170   4.229   3.480
40876SOL    HW124525   3.168   4.134   3.495
40876SOL    HW224526   3.085   4.249   3.442
40877SOL     OW24527   3.893   6.076   2.924
40877SOL    HW124528   3.889   6.167   2.894
40877SOL    HW224529   3.952   6.078   2.999
40878SOL     OW24530  11.644   3.777  13.383
40878SOL    HW124531  11.703   3.808  13.452
40878SOL    HW224532  11.638   3.683  13.399
40879SOL     OW24533   7.589   2.472   9.569
40879SOL    HW124534   7.623   2.389   9.603
40879SOL    HW224535   7.495   2.468   9.586
40880SOL     OW24536   2.609   3.365   9.548
40880SOL    HW124537   2.569   3.306   9.612
40880SOL    HW224538   2.571   3.338   9.464
40881SOL     OW24539  10.516   7.064   1.888
40881SOL    HW124540  10.609   7.064   1.864
40881SOL    HW224541  10.473   7.016   1.818
40882SOL     OW24542   7.017   3.495   2.792
40882SOL    HW124543   7.035   3.422   2.732
40882SOL    HW224544   7.088   3.557   2.775
40883SOL     OW24545  13.155   3.973   6.047
40883SOL    HW124546  13.081   3.926   6.011
40883SOL    HW224547  13.183   3.920   6.122
40884SOL     OW24548   1.490   0.632   8.839
40884SOL    HW124549   1.403   0.598   8.818
40884SOL    HW224550   1.550   0.560   8.818
40885SOL     OW24551  14.789   4.004   9.793
40885SOL    HW124552  14.839   3.969   9.866
40885SOL    HW224553  14.702   3.964   9.803
40886SOL     OW24554   8.381   5.890   5.152
40886SOL    HW124555   8.417   5.902   5.064
40886SOL    HW224556   8.442   5.936   5.209
40887SOL     OW24557   0.018   9.085   5.671
40887SOL    HW124558  14.846   9.164   5.680
40887SOL    HW224559   0.108   9.117   5.677
40888SOL     OW24560   6.976  11.292  12.428
40888SOL    HW124561   6.911  11.360  12.446
40888SOL    HW224562   7.006  11.264  12.514
40889SOL     OW24563   0.229   9.326   6.393
40889SOL    HW124564   0.323   9.338   6.377
40889SOL    HW224565   0.219   9.341   6.487
40890SOL     OW24566  12.074   3.806   6.841
40890SOL    HW124567  12.139   3.836   6.905
40890SOL    HW224568  11.993   3.852   6.866
40891SOL     OW24569  13.946   7.668   6.145
40891SOL    HW124570  13.965   7.754   6.183
40891SOL    HW224571  14.028   7.619   6.153
40892SOL     OW24572   5.102  10.564  12.922
40892SOL    HW124573   5.059  10.538  12.840
40892SOL    HW224574   5.187  10.521  12.919
40893SOL     OW24575   4.123   8.441  12.111
40893SOL    HW124576   4.110   8.351  12.140
40893SOL    HW224577   4.108   8.438  12.017
40894SOL     OW24578   9.876  11.350  11.700
40894SOL    HW124579   9.782  11.352  11.685
40894SOL    HW224580   9.900  11.257  11.692
40895SOL     OW24581  10.382  10.228   4.480
40895SOL    HW124582  10.366  10.223   4.574
40895SOL    HW224583  10.296  10.219   4.440
40896SOL     OW24584   5.336  12.905   2.900
40896SOL    HW124585   5.352  12.985   2.950
40896SOL    HW224586   5.252  12.921   2.856
40897SOL     OW24587   3.201  10.857   7.221
40897SOL    HW124588   3.271  10.920   7.237
40897SOL    HW224589   3.217  10.787   7.285
40898SOL     OW24590   7.381   5.296   6.934
40898SOL    HW124591   7.451   5.255   6.984
40898SOL    HW224592   7.389   5.390   6.952
40899SOL     OW24593   8.554   8.063   5.043
40899SOL    HW124594   8.592   8.140   5.085
40899SOL    HW224595   8.609   8.048   4.966
40900SOL     OW24596   4.931   3.602  11.379
40900SOL    HW124597   4.851   3.630  11.425
40900SOL    HW224598   4.973   3.542  11.440
40901SOL     OW24599  10.578   6.214   3.664
40901SOL    HW124600  10.551   6.300   3.632
40901SOL    HW224601  10.552   6.213   3.756
40902SOL     OW24602   9.158   3.698   4.409
40902SOL    HW124603   9.212   3.696   4.488
40902SOL    HW224604   9.078   3.653   4.433
40903SOL     OW24605   2.381   2.375   8.159
40903SOL    HW124606   2.325   2.369   8.082
40903SOL    HW224607   2.399   2.284   8.182
40904SOL     OW24608   4.616   6.265   2.521
40904SOL    HW124609   4.703   6.273   2.561
40904SOL    HW224610   4.633   6.260   2.427
40905SOL     OW24611   0.579   8.417   0.278
40905SOL    HW124612   0.664   8.424   0.234
40905SOL    HW224613   0.587   8.475   0.354
40906SOL     OW24614  10.366   9.658   7.410
40906SOL    HW124615  10.314   9.578   7.411
40906SOL    HW224616  10.453   9.631   7.440
40907SOL     OW24617  12.291   5.007  12.430
40907SOL    HW124618  12.314   4.915  12.418
40907SOL    HW224619  12.265   5.036  12.343
40908SOL     OW24620   8.389   1.019  13.502
40908SOL    HW124621   8.455   0.995  13.437
40908SOL    HW224622   8.439   1.056  13.575
40909SOL     OW24623   3.518   0.695  10.072
40909SOL    HW124624   3.477   0.628  10.017
40909SOL    HW224625   3.611   0.671  10.073
40910SOL     OW24626  14.090   1.055  13.894
40910SOL    HW124627  14.003   1.094  13.906
40910SOL    HW224628  14.148   1.107  13.948
40911SOL     OW24629   6.627  14.575   7.718
40911SOL    HW124630   6.644  14.568   7.812
40911SOL    HW224631   6.596  14.665   7.706
40912SOL     OW24632  12.401   9.344   8.810
40912SOL    HW124633  12.496   9.352   8.819
40912SOL    HW224634  12.371   9.433   8.795
40913SOL     OW24635   8.606  12.531   2.472
40913SOL    HW124636   8.624  12.465   2.405
40913SOL    HW224637   8.513  12.551   2.462
40914SOL     OW24638   1.532   9.559  11.676
40914SOL    HW124639   1.558   9.468  11.694
40914SOL    HW224640   1.611   9.599  11.640
40915SOL     OW24641   0.394   8.702   7.873
40915SOL    HW124642   0.457   8.736   7.937
40915SOL    HW224643   0.411   8.753   7.794
40916SOL     OW24644  13.305  14.423  10.310
40916SOL    HW124645  13.254  14.489  10.357
40916SOL    HW224646  13.391  14.426  10.353
40917SOL     OW24647   9.239  11.184   1.041
40917SOL    HW124648   9.198  11.202   0.956
40917SOL    HW224649   9.249  11.089   1.043
40918SOL     OW24650   7.748  14.695   3.013
40918SOL    HW124651   7.757  14.778   3.060
40918SOL    HW224652   7.702  14.638   3.074
40919SOL     OW24653   6.203   6.377   4.368
40919SOL    HW124654   6.123   6.398   4.416
40919SOL    HW224655   6.176   6.375   4.276
40920SOL     OW24656  10.803  12.974   3.705
40920SOL    HW124657  10.881  12.919   3.717
40920SOL    HW224658  10.730  12.918   3.730
40921SOL     OW24659   0.839  14.334   2.959
40921SOL    HW124660   0.880  14.288   2.886
40921SOL    HW224661   0.906  14.335   3.028
40922SOL     OW24662   7.504   5.962  11.440
40922SOL    HW124663   7.563   5.964  11.515
40922SOL    HW224664   7.509   5.872  11.408
40923SOL     OW24665  10.331   5.676  14.026
40923SOL    HW124666  10.367   5.763  14.040
40923SOL    HW224667  10.272   5.662  14.100
40924SOL     OW24668   1.408   8.482   2.739
40924SOL    HW124669   1.434   8.390   2.732
40924SOL    HW224670   1.463   8.517   2.809
40925SOL     OW24671  11.294   0.155   9.833
40925SOL    HW124672  11.310   0.103   9.754
40925SOL    HW224673  11.380   0.166   9.872
40926SOL     OW24674  14.776   6.296   5.890
40926SOL    HW124675  14.690   6.265   5.918
40926SOL    HW224676  14.827   6.299   5.971
40927SOL     OW24677   5.847   2.427  11.824
40927SOL    HW124678   5.916   2.417  11.888
40927SOL    HW224679   5.879   2.382  11.746
40928SOL     OW24680  14.600   3.899  13.859
40928SOL    HW124681  14.566   3.955  13.929
40928SOL    HW224682  14.627   3.960  13.790
40929SOL     OW24683  12.410   8.977  12.939
40929SOL    HW124684  12.447   8.908  12.883
40929SOL    HW224685  12.485   9.010  12.989
40930SOL     OW24686  10.135  10.175   4.312
40930SOL    HW124687  10.064  10.192   4.373
40930SOL    HW224688  10.092  10.146   4.232
40931SOL     OW24689   0.160   6.126   5.524
40931SOL    HW124690   0.126   6.036   5.525
40931SOL    HW224691   0.237   6.123   5.580
40932SOL     OW24692   5.342   0.969  10.699
40932SOL    HW124693   5.252   0.941  10.717
40932SOL    HW224694   5.385   0.891  10.663
40933SOL     OW24695  14.048  11.792   6.281
40933SOL    HW124696  14.079  11.851   6.350
40933SOL    HW224697  13.966  11.756   6.315
40934SOL     OW24698   8.246  10.091   9.362
40934SOL    HW124699   8.207  10.084   9.275
40934SOL    HW224700   8.223  10.179   9.391
40935SOL     OW24701   5.303  13.604   4.325
40935SOL    HW124702   5.267  13.523   4.287
40935SOL    HW224703   5.333  13.654   4.249
40936SOL     OW24704   8.940   7.740  11.330
40936SOL    HW124705   8.876   7.766  11.264
40936SOL    HW224706   8.922   7.796  11.405
40937SOL     OW24707  13.650   2.313   9.349
40937SOL    HW124708  13.577   2.372   9.371
40937SOL    HW224709  13.714   2.369   9.306
40938SOL     OW24710  10.400   8.600   5.449
40938SOL    HW124711  10.320   8.566   5.489
40938SOL    HW224712  10.458   8.524   5.444
40939SOL     OW24713   0.605  13.760  10.279
40939SOL    HW124714   0.524  13.707  10.278
40939SOL    HW224715   0.649  13.736  10.198
40940SOL     OW24716   2.217   5.341   7.227
40940SOL    HW124717   2.187   5.256   7.261
40940SOL    HW224718   2.227   5.328   7.133
40941SOL     OW24719  11.090   1.122  14.542
40941SOL    HW124720  11.047   1.166  14.468
40941SOL    HW224721  11.091   1.188  14.611
40942SOL     OW24722   7.234   6.515   7.091
40942SOL    HW124723   7.323   6.486   7.072
40942SOL    HW224724   7.193   6.440   7.134
40943SOL     OW24725   5.275   7.537  13.206
40943SOL    HW124726   5.198   7.481  13.215
40943SOL    HW224727   5.257   7.612  13.261
40944SOL     OW24728  13.844   8.485   8.078
40944SOL    HW124729  13.929   8.502   8.117
40944SOL    HW224730  13.781   8.522   8.140
40945SOL     OW24731   4.726  13.742   4.470
40945SOL    HW124732   4.742  13.770   4.560
40945SOL    HW224733   4.803  13.692   4.446
40946SOL     OW24734  10.693  14.322  10.813
40946SOL    HW124735  10.608  14.350  10.779
40946SOL    HW224736  10.703  14.231  10.782
40947SOL     OW24737   6.556   8.278   5.098
40947SOL    HW124738   6.563   8.185   5.119
40947SOL    HW224739   6.540   8.320   5.182
40948SOL     OW24740  10.608  10.271   1.433
40948SOL    HW124741  10.581  10.201   1.373
40948SOL    HW224742  10.694  10.298   1.401
40949SOL     OW24743   4.098   3.136   6.020
40949SOL    HW124744   4.144   3.197   6.077
40949SOL    HW224745   4.097   3.054   6.069
40950SOL     OW24746  10.637   1.975   9.770
40950SOL    HW124747  10.614   2.035   9.841
40950SOL    HW224748  10.606   2.018   9.691
40951SOL     OW24749  12.743   2.994   9.967
40951SOL    HW124750  12.668   3.023  10.018
40951SOL    HW224751  12.711   2.989   9.877
40952SOL     OW24752   0.476   1.112   8.196
40952SOL    HW124753   0.518   1.195   8.176
40952SOL    HW224754   0.433   1.126   8.281
40953SOL     OW24755   5.083  10.680   2.781
40953SOL    HW124756   5.058  10.608   2.723
40953SOL    HW224757   5.046  10.656   2.866
40954SOL     OW24758   7.313  12.733   2.194
40954SOL    HW124759   7.299  12.692   2.108
40954SOL    HW224760   7.321  12.659   2.254
40955SOL     OW24761   8.539   3.950   1.962
40955SOL    HW124762   8.541   3.907   1.876
40955SOL    HW224763   8.575   4.037   1.946
40956SOL     OW24764   1.532   5.784   6.709
40956SOL    HW124765   1.577   5.856   6.754
40956SOL    HW224766   1.580   5.774   6.627
40957SOL     OW24767   1.580  11.466   4.833
40957SOL    HW124768   1.665  11.421   4.838
40957SOL    HW224769   1.528  11.427   4.904
40958SOL     OW24770   9.026  11.170   3.119
40958SOL    HW124771   9.028  11.106   3.190
40958SOL    HW224772   8.973  11.129   3.051
40959SOL     OW24773   8.710  13.141  11.215
40959SOL    HW124774   8.623  13.130  11.177
40959SOL    HW224775   8.720  13.236  11.225
40960SOL     OW24776   0.301   9.499   9.333
40960SOL    HW124777   0.215   9.489   9.293
40960SOL    HW224778   0.362   9.463   9.269
40961SOL     OW24779  12.251   7.697  13.656
40961SOL    HW124780  12.198   7.762  13.610
40961SOL    HW224781  12.266   7.735  13.742
40962SOL     OW24782   1.432   2.882   1.420
40962SOL    HW124783   1.491   2.909   1.350
40962SOL    HW224784   1.487   2.833   1.481
40963SOL     OW24785  13.787  13.865   1.302
40963SOL    HW124786  13.764  13.772   1.301
40963SOL    HW224787  13.713  13.908   1.344
40964SOL     OW24788   0.090  14.403  10.926
40964SOL    HW124789   0.019  14.463  10.945
40964SOL    HW224790   0.049  14.331  10.877
40965SOL     OW24791   4.773  12.413  12.755
40965SOL    HW124792   4.841  12.361  12.799
40965SOL    HW224793   4.792  12.404  12.662
40966SOL     OW24794  10.452   5.074  14.184
40966SOL    HW124795  10.374   5.111  14.225
40966SOL    HW224796  10.509   5.050  14.257
40967SOL     OW24797   2.934   9.391  14.809
40967SOL    HW124798   2.932   9.475  14.855
40967SOL    HW224799   2.917   9.326  14.876
40968SOL     OW24800   0.426   9.157   4.850
40968SOL    HW124801   0.462   9.246   4.845
40968SOL    HW224802   0.377   9.155   4.932
40969SOL     OW24803  12.236   5.579   7.714
40969SOL    HW124804  12.250   5.552   7.805
40969SOL    HW224805  12.325   5.589   7.678
40970SOL     OW24806  10.704  10.781   7.291
40970SOL    HW124807  10.678  10.867   7.324
40970SOL    HW224808  10.783  10.759   7.341
40971SOL     OW24809  10.430   4.959  10.200
40971SOL    HW124810  10.351   4.998  10.163
40971SOL    HW224811  10.397   4.887  10.254
40972SOL     OW24812   3.092  14.463   5.272
40972SOL    HW124813   3.166  14.511   5.234
40972SOL    HW224814   3.132  14.388   5.316
40973SOL     OW24815  13.343   9.195   0.323
40973SOL    HW124816  13.298   9.277   0.305
40973SOL    HW224817  13.358   9.195   0.417
40974SOL     OW24818   0.517  12.833   5.133
40974SOL    HW124819   0.494  12.741   5.147
40974SOL    HW224820   0.607  12.840   5.165
40975SOL     OW24821   9.693  13.243  10.598
40975SOL    HW124822   9.745  13.180  10.648
40975SOL    HW224823   9.668  13.309  10.662
40976SOL     OW24824   9.088   8.318   7.520
40976SOL    HW124825   9.140   8.392   7.490
40976SOL    HW224826   9.129   8.292   7.602
40977SOL     OW24827  11.825   9.181   5.132
40977SOL    HW124828  11.851   9.159   5.042
40977SOL    HW224829  11.863   9.268   5.147
40978SOL     OW24830   3.594  12.037   8.286
40978SOL    HW124831   3.574  12.114   8.340
40978SOL    HW224832   3.567  11.963   8.340
40979SOL     OW24833  10.301  13.625   2.296
40979SOL    HW124834  10.278  13.562   2.365
40979SOL    HW224835  10.346  13.572   2.230
40980SOL     OW24836   4.287   1.854   7.776
40980SOL    HW124837   4.320   1.797   7.847
40980SOL    HW224838   4.343   1.932   7.781
40981SOL     OW24839   8.087   7.102  10.598
40981SOL    HW124840   8.081   7.135  10.688
40981SOL    HW224841   8.001   7.121  10.560
40982SOL     OW24842   2.803   6.480   7.595
40982SOL    HW124843   2.739   6.551   7.587
40982SOL    HW224844   2.861   6.492   7.520
40983SOL     OW24845   9.130  10.348   0.095
40983SOL    HW124846   9.137  10.265   0.141
40983SOL    HW224847   9.054  10.392   0.134
40984SOL     OW24848   5.635   4.782   0.764
40984SOL    HW124849   5.710   4.836   0.791
40984SOL    HW224850   5.574   4.844   0.723
40985SOL     OW24851   3.293   5.719  13.883
40985SOL    HW124852   3.199   5.712  13.864
40985SOL    HW224853   3.318   5.804  13.847
40986SOL     OW24854  13.752  10.421   9.913
40986SOL    HW124855  13.775  10.514   9.911
40986SOL    HW224856  13.684  10.411   9.846
40987SOL     OW24857   1.437   6.798   3.213
40987SOL    HW124858   1.435   6.812   3.308
40987SOL    HW224859   1.526   6.823   3.187
40988SOL     OW24860   5.043  12.479  14.005
40988SOL    HW124861   5.045  12.551  14.067
40988SOL    HW224862   5.110  12.419  14.035
40989SOL     OW24863   8.947   1.911   2.855
40989SOL    HW124864   8.990   1.996   2.867
40989SOL    HW224865   8.863   1.932   2.812
40990SOL     OW24866   1.279  14.693   2.555
40990SOL    HW124867   1.297  14.685   2.649
40990SOL    HW224868   1.302  14.784   2.534
40991SOL     OW24869   3.119   9.021   8.428
40991SOL    HW124870   3.120   9.012   8.524
40991SOL    HW224871   3.173   8.949   8.397
40992SOL     OW24872   3.247   2.370  14.406
40992SOL    HW124873   3.159   2.355  14.441
40992SOL    HW224874   3.301   2.386  14.484
40993SOL     OW24875   2.144  10.192   8.324
40993SOL    HW124876   2.159  10.199   8.230
40993SOL    HW224877   2.231  10.174   8.360
40994SOL     OW24878   7.052  12.811  10.281
40994SOL    HW124879   6.978  12.766  10.322
40994SOL    HW224880   7.050  12.899  10.318
40995SOL     OW24881   8.835   5.977   7.967
40995SOL    HW124882   8.792   5.961   8.051
40995SOL    HW224883   8.897   6.047   7.985
40996SOL     OW24884   2.356   7.217   3.920
40996SOL    HW124885   2.400   7.301   3.907
40996SOL    HW224886   2.427   7.153   3.923
40997SOL     OW24887   5.692   0.449   6.438
40997SOL    HW124888   5.740   0.510   6.495
40997SOL    HW224889   5.749   0.439   6.361
40998SOL     OW24890   4.232  12.314   4.389
40998SOL    HW124891   4.160  12.351   4.439
40998SOL    HW224892   4.290  12.388   4.372
40999SOL     OW24893   4.436   1.914  12.880
40999SOL    HW124894   4.368   1.895  12.945
40999SOL    HW224895   4.389   1.925  12.798
41000SOL     OW24896   0.160  10.259   9.411
41000SOL    HW124897   0.100  10.267   9.485
41000SOL    HW224898   0.126  10.184   9.361
41001SOL     OW24899   5.213  13.048  14.838
41001SOL    HW124900   5.228  12.964  14.880
41001SOL    HW224901   5.117  13.059  14.840
41002SOL     OW24902  11.868  13.270   1.257
41002SOL    HW124903  11.858  13.291   1.164
41002SOL    HW224904  11.795  13.315   1.299
41003SOL     OW24905   2.364  11.734   4.612
41003SOL    HW124906   2.282  11.687   4.626
41003SOL    HW224907   2.432  11.671   4.635
41004SOL     OW24908   3.554   8.910   3.221
41004SOL    HW124909   3.568   8.953   3.305
41004SOL    HW224910   3.617   8.952   3.162
41005SOL     OW24911   1.459  11.072   9.177
41005SOL    HW124912   1.447  11.111   9.264
41005SOL    HW224913   1.540  11.022   9.184
41006SOL     OW24914   8.499   8.668  10.382
41006SOL    HW124915   8.577   8.638  10.335
41006SOL    HW224916   8.440   8.593  10.381
41007SOL     OW24917  10.986   3.519  11.164
41007SOL    HW124918  10.896   3.551  11.158
41007SOL    HW224919  10.984   3.434  11.120
41008SOL     OW24920   8.214   4.463   9.202
41008SOL    HW124921   8.230   4.373   9.228
41008SOL    HW224922   8.191   4.509   9.283
41009SOL     OW24923   6.390   9.595   7.628
41009SOL    HW124924   6.459   9.538   7.595
41009SOL    HW224925   6.431   9.681   7.637
41010SOL     OW24926  11.184  10.603   7.825
41010SOL    HW124927  11.253  10.666   7.845
41010SOL    HW224928  11.218  10.520   7.858
41011SOL     OW24929  14.434  14.149   5.122
41011SOL    HW124930  14.409  14.082   5.058
41011SOL    HW224931  14.530  14.154   5.114
41012SOL     OW24932   3.443   0.401  10.682
41012SOL    HW124933   3.386   0.324  10.681
41012SOL    HW224934   3.384   0.475  10.697
41013SOL     OW24935   9.909   2.570   7.949
41013SOL    HW124936   9.915   2.504   8.018
41013SOL    HW224937   9.997   2.607   7.943
41014SOL     OW24938  10.592   1.763   3.147
41014SOL    HW124939  10.574   1.710   3.224
41014SOL    HW224940  10.688   1.768   3.143
41015SOL     OW24941   5.442  13.711   1.150
41015SOL    HW124942   5.527  13.753   1.138
41015SOL    HW224943   5.440  13.642   1.083
41016SOL     OW24944   3.210   6.956  10.843
41016SOL    HW124945   3.155   6.895  10.892
41016SOL    HW224946   3.156   6.985  10.770
41017SOL     OW24947   2.662   4.708   6.192
41017SOL    HW124948   2.730   4.641   6.188
41017SOL    HW224949   2.589   4.665   6.236
41018SOL     OW24950   6.980   4.342   9.792
41018SOL    HW124951   7.030   4.424   9.791
41018SOL    HW224952   6.889   4.369   9.807
41019SOL     OW24953   0.609   4.706   5.230
41019SOL    HW124954   0.578   4.688   5.318
41019SOL    HW224955   0.573   4.634   5.177
41020SOL     OW24956   7.895   2.242   8.562
41020SOL    HW124957   7.866   2.288   8.483
41020SOL    HW224958   7.840   2.163   8.565
41021SOL     OW24959  11.572   0.712   0.368
41021SOL    HW124960  11.478   0.729   0.375
41021SOL    HW224961  11.580   0.642   0.304
41022SOL     OW24962  14.506   8.286   9.821
41022SOL    HW124963  14.462   8.318   9.742
41022SOL    HW224964  14.472   8.197   9.833
41023SOL     OW24965  10.975   3.939   5.091
41023SOL    HW124966  10.966   4.031   5.115
41023SOL    HW224967  11.010   3.897   5.170
41024SOL     OW24968   0.316  12.172  13.853
41024SOL    HW124969   0.378  12.228  13.900
41024SOL    HW224970   0.368  12.096  13.827
41025SOL     OW24971   2.712  12.354   3.552
41025SOL    HW124972   2.719  12.353   3.456
41025SOL    HW224973   2.701  12.263   3.576
41026SOL     OW24974   6.947  13.904   4.748
41026SOL    HW124975   7.005  13.830   4.736
41026SOL    HW224976   7.004  13.976   4.776
41027SOL     OW24977  11.736   0.836   8.762
41027SOL    HW124978  11.696   0.923   8.761
41027SOL    HW224979  11.824   0.851   8.796
41028SOL     OW24980   7.515   3.157   8.914
41028SOL    HW124981   7.528   3.178   9.007
41028SOL    HW224982   7.480   3.068   8.914
41029SOL     OW24983  12.298   1.380   5.030
41029SOL    HW124984  12.367   1.407   4.969
41029SOL    HW224985  12.326   1.295   5.062
41030SOL     OW24986  11.384   6.056   8.887
41030SOL    HW124987  11.392   6.131   8.828
41030SOL    HW224988  11.322   6.086   8.954
41031SOL     OW24989   3.608  12.473   7.818
41031SOL    HW124990   3.694  12.497   7.782
41031SOL    HW224991   3.616  12.381   7.840
41032SOL     OW24992   3.751   0.879   9.800
41032SOL    HW124993   3.658   0.894   9.781
41032SOL    HW224994   3.797   0.948   9.754
41033SOL     OW24995   2.551   8.070   4.525
41033SOL    HW124996   2.565   8.072   4.430
41033SOL    HW224997   2.594   7.991   4.554
41034SOL     OW24998   2.924   1.683  14.754
41034SOL    HW124999   3.017   1.669  14.737
41034SOL    HW225000   2.916   1.676  14.849
41035SOL     OW25001  14.371  11.237   8.089
41035SOL    HW125002  14.360  11.234   7.994
41035SOL    HW225003  14.466  11.237   8.102
41036SOL     OW25004   8.185   0.423   6.186
41036SOL    HW125005   8.172   0.337   6.147
41036SOL    HW225006   8.176   0.408   6.280
41037SOL     OW25007   9.443   9.416   7.866
41037SOL    HW125008   9.411   9.395   7.954
41037SOL    HW225009   9.426   9.338   7.814
41038SOL     OW25010   4.914  12.959   5.731
41038SOL    HW125011   4.886  12.907   5.656
41038SOL    HW225012   4.984  13.015   5.697
41039SOL     OW25013   1.495   7.647   1.657
41039SOL    HW125014   1.438   7.657   1.732
41039SOL    HW225015   1.578   7.614   1.694
41040SOL     OW25016   3.998   9.421   4.887
41040SOL    HW125017   4.037   9.350   4.835
41040SOL    HW225018   4.045   9.499   4.858
41041SOL     OW25019  12.747  13.676  11.771
41041SOL    HW125020  12.780  13.631  11.693
41041SOL    HW225021  12.697  13.749  11.737
41042SOL     OW25022  10.021   0.245   1.074
41042SOL    HW125023   9.974   0.328   1.081
41042SOL    HW225024   9.954   0.182   1.047
41043SOL     OW25025   4.794   9.245   5.362
41043SOL    HW125026   4.711   9.250   5.315
41043SOL    HW225027   4.850   9.310   5.318
41044SOL     OW25028  10.018  13.746  10.704
41044SOL    HW125029  10.013  13.677  10.637
41044SOL    HW225030   9.968  13.711  10.778
41045SOL     OW25031  12.586   4.889   3.984
41045SOL    HW125032  12.511   4.830   3.999
41045SOL    HW225033  12.639   4.880   4.063
41046SOL     OW25034   0.661   6.684   6.489
41046SOL    HW125035   0.579   6.643   6.461
41046SOL    HW225036   0.660   6.771   6.450
41047SOL     OW25037   7.363   6.458   5.518
41047SOL    HW125038   7.318   6.521   5.462
41047SOL    HW225039   7.294   6.403   5.553
41048SOL     OW25040   2.329  11.245   2.948
41048SOL    HW125041   2.370  11.263   3.033
41048SOL    HW225042   2.318  11.150   2.946
41049SOL     OW25043  12.595   6.564   8.769
41049SOL    HW125044  12.669   6.626   8.770
41049SOL    HW225045  12.627   6.488   8.818
41050SOL     OW25046   0.209   9.037  10.706
41050SOL    HW125047   0.282   9.074  10.756
41050SOL    HW225048   0.216   8.943  10.720
41051SOL     OW25049   1.077   0.373  12.173
41051SOL    HW125050   1.045   0.310  12.108
41051SOL    HW225051   1.163   0.339  12.198
41052SOL     OW25052   3.492   0.965  10.064
41052SOL    HW125053   3.492   0.873  10.091
41052SOL    HW225054   3.568   1.003  10.107
41053SOL     OW25055  10.191   7.407  14.764
41053SOL    HW125056  10.242   7.327  14.779
41053SOL    HW225057  10.161   7.400  14.673
41054SOL     OW25058   9.174   9.684   8.885
41054SOL    HW125059   9.179   9.591   8.864
41054SOL    HW225060   9.209   9.728   8.808
41055SOL     OW25061   9.266   1.528  13.978
41055SOL    HW125062   9.195   1.570  13.931
41055SOL    HW225063   9.223   1.470  14.041
41056SOL     OW25064   9.993  11.695  11.878
41056SOL    HW125065  10.062  11.656  11.825
41056SOL    HW225066   9.991  11.787  11.851
41057SOL     OW25067  13.421   3.847   3.362
41057SOL    HW125068  13.498   3.904   3.368
41057SOL    HW225069  13.450   3.763   3.399
41058SOL     OW25070   3.065   8.973   4.948
41058SOL    HW125071   2.998   8.944   4.885
41058SOL    HW225072   3.128   8.901   4.951
41059SOL     OW25073   9.846   0.697  10.849
41059SOL    HW125074   9.755   0.673  10.865
41059SOL    HW225075   9.860   0.679  10.756
41060SOL     OW25076   3.721   7.479   9.574
41060SOL    HW125077   3.694   7.566   9.543
41060SOL    HW225078   3.721   7.487   9.669
41061SOL     OW25079  13.984   4.748  14.370
41061SOL    HW125080  13.984   4.843  14.380
41061SOL    HW225081  14.047   4.717  14.435
41062SOL     OW25082   3.210   1.058  10.946
41062SOL    HW125083   3.232   1.058  11.039
41062SOL    HW225084   3.254   0.981  10.910
41063SOL     OW25085   6.265  11.697  14.813
41063SOL    HW125086   6.182  11.650  14.815
41063SOL    HW225087   6.279  11.717  14.720
41064SOL     OW25088  10.922  12.587  10.121
41064SOL    HW125089  10.944  12.496  10.139
41064SOL    HW225090  10.959  12.604  10.034
41065SOL     OW25091   8.015   8.802   8.978
41065SOL    HW125092   7.958   8.878   8.978
41065SOL    HW225093   7.957   8.727   8.991
41066SOL     OW25094   5.596   9.655   8.269
41066SOL    HW125095   5.543   9.729   8.238
41066SOL    HW225096   5.594   9.663   8.365
41067SOL     OW25097   4.663  10.335   3.539
41067SOL    HW125098   4.616  10.417   3.525
41067SOL    HW225099   4.600  10.267   3.514
41068SOL     OW25100   1.621   5.012   6.177
41068SOL    HW125101   1.593   4.987   6.089
41068SOL    HW225102   1.592   4.939   6.232
41069SOL     OW25103   7.696   1.017   4.928
41069SOL    HW125104   7.671   1.087   4.988
41069SOL    HW225105   7.629   1.017   4.861
41070SOL     OW25106  13.079  11.461  11.465
41070SOL    HW125107  13.062  11.527  11.397
41070SOL    HW225108  12.998  11.410  11.469
41071SOL     OW25109  11.566   7.706   3.468
41071SOL    HW125110  11.477   7.735   3.487
41071SOL    HW225111  11.557   7.652   3.389
41072SOL     OW25112   9.902   3.121  14.796
41072SOL    HW125113   9.944   3.200  14.829
41072SOL    HW225114   9.943   3.104  14.712
41073SOL     OW25115  10.703   1.184  13.583
41073SOL    HW125116  10.696   1.148  13.494
41073SOL    HW225117  10.779   1.242  13.580
41074SOL     OW25118  12.787   3.708   8.178
41074SOL    HW125119  12.842   3.757   8.239
41074SOL    HW225120  12.788   3.761   8.098
41075SOL     OW25121  11.943  12.446   4.833
41075SOL    HW125122  11.888  12.462   4.756
41075SOL    HW225123  11.896  12.488   4.905
41076SOL     OW25124   5.497   9.895   4.703
41076SOL    HW125125   5.467   9.898   4.793
41076SOL    HW225126   5.426   9.851   4.655
41077SOL     OW25127   5.763  10.988  11.220
41077SOL    HW125128   5.739  11.071  11.179
41077SOL    HW225129   5.696  10.926  11.190
41078SOL     OW25130   0.394   9.490   0.108
41078SOL    HW125131   0.414   9.506   0.201
41078SOL    HW225132   0.356   9.572   0.077
41079SOL     OW25133   7.334   2.611  14.383
41079SOL    HW125134   7.388   2.538  14.354
41079SOL    HW225135   7.247   2.572  14.396
41080SOL     OW25136   4.326  12.336  13.904
41080SOL    HW125137   4.316  12.428  13.880
41080SOL    HW225138   4.277  12.327  13.986
41081SOL     OW25139  11.034   2.986   3.311
41081SOL    HW125140  11.054   2.906   3.359
41081SOL    HW225141  10.970   2.959   3.246
41082SOL     OW25142   4.304  11.034   3.519
41082SOL    HW125143   4.278  10.984   3.442
41082SOL    HW225144   4.246  11.110   3.519
41083SOL     OW25145  11.354   4.171  12.517
41083SOL    HW125146  11.351   4.099  12.580
41083SOL    HW225147  11.446   4.199  12.516
41084SOL     OW25148   1.177   0.930   7.020
41084SOL    HW125149   1.218   0.846   7.039
41084SOL    HW225150   1.090   0.924   7.059
41085SOL     OW25151  13.576   1.904  12.980
41085SOL    HW125152  13.516   1.918  13.054
41085SOL    HW225153  13.562   1.812  12.956
41086SOL     OW25154   3.354   8.257   7.016
41086SOL    HW125155   3.417   8.236   7.086
41086SOL    HW225156   3.321   8.343   7.039
41087SOL     OW25157  14.350  12.169   6.142
41087SOL    HW125158  14.334  12.086   6.097
41087SOL    HW225159  14.300  12.233   6.092
41088SOL     OW25160   4.114  11.033   0.572
41088SOL    HW125161   4.075  11.092   0.508
41088SOL    HW225162   4.058  10.956   0.571
41089SOL     OW25163  14.557   5.223  11.509
41089SOL    HW125164  14.533   5.132  11.527
41089SOL    HW225165  14.520   5.273  11.581
41090SOL     OW25166  11.439  12.466   9.534
41090SOL    HW125167  11.413  12.378   9.505
41090SOL    HW225168  11.510  12.451   9.596
41091SOL     OW25169   3.511   8.612  11.631
41091SOL    HW125170   3.466   8.687  11.670
41091SOL    HW225171   3.441   8.553  11.605
41092SOL     OW25172  10.583   8.392   8.118
41092SOL    HW125173  10.527   8.330   8.164
41092SOL    HW225174  10.543   8.400   8.031
41093SOL     OW25175  12.603   0.665  14.105
41093SOL    HW125176  12.561   0.590  14.146
41093SOL    HW225177  12.549   0.740  14.131
41094SOL     OW25178   1.829  13.874  10.595
41094SOL    HW125179   1.912  13.920  10.604
41094SOL    HW225180   1.849  13.783  10.618
41095SOL     OW25181   8.012   9.297  10.806
41095SOL    HW125182   7.970   9.359  10.864
41095SOL    HW225183   8.097   9.335  10.787
41096SOL     OW25184  10.039   1.397   1.481
41096SOL    HW125185  10.088   1.354   1.412
41096SOL    HW225186  10.087   1.377   1.561
41097SOL     OW25187   3.679  12.508   3.887
41097SOL    HW125188   3.708  12.590   3.927
41097SOL    HW225189   3.745  12.491   3.819
41098SOL     OW25190  13.793   9.739   6.442
41098SOL    HW125191  13.742   9.672   6.398
41098SOL    HW225192  13.864   9.691   6.485
41099SOL     OW25193   6.082  14.151  11.704
41099SOL    HW125194   6.144  14.183  11.638
41099SOL    HW225195   6.096  14.056  11.705
41100SOL     OW25196   6.931   5.193  10.315
41100SOL    HW125197   6.880   5.114  10.297
41100SOL    HW225198   7.007   5.186  10.257
41101SOL     OW25199   3.490  13.426  10.241
41101SOL    HW125200   3.409  13.393  10.280
41101SOL    HW225201   3.464  13.504  10.192
41102SOL     OW25202   4.058  14.142   3.379
41102SOL    HW125203   3.996  14.159   3.450
41102SOL    HW225204   4.037  14.052   3.351
41103SOL     OW25205   2.163   3.332  11.931
41103SOL    HW125206   2.253   3.305  11.948
41103SOL    HW225207   2.164   3.427  11.940
41104SOL     OW25208  13.010   8.255   8.005
41104SOL    HW125209  12.942   8.322   8.016
41104SOL    HW225210  13.087   8.304   7.977
41105SOL     OW25211   0.862  10.028   5.687
41105SOL    HW125212   0.801  10.102   5.681
41105SOL    HW225213   0.948  10.067   5.673
41106SOL     OW25214  11.159   0.654   3.716
41106SOL    HW125215  11.135   0.717   3.649
41106SOL    HW225216  11.231   0.604   3.677
41107SOL     OW25217   6.281   4.261   4.812
41107SOL    HW125218   6.374   4.259   4.832
41107SOL    HW225219   6.240   4.292   4.893
41108SOL     OW25220  14.496   5.994  12.323
41108SOL    HW125221  14.418   5.990  12.269
41108SOL    HW225222  14.569   5.995  12.261
41109SOL     OW25223  13.238  11.351   5.927
41109SOL    HW125224  13.253  11.378   5.836
41109SOL    HW225225  13.321  11.311   5.954
41110SOL     OW25226   9.056  10.116   1.632
41110SOL    HW125227   8.995  10.153   1.568
41110SOL    HW225228   9.068  10.025   1.604
41111SOL     OW25229  12.688  11.529   2.600
41111SOL    HW125230  12.675  11.607   2.546
41111SOL    HW225231  12.783  11.520   2.607
41112SOL     OW25232   2.542   7.604   4.853
41112SOL    HW125233   2.553   7.528   4.796
41112SOL    HW225234   2.599   7.671   4.814
41113SOL     OW25235   2.730   0.487   8.365
41113SOL    HW125236   2.675   0.556   8.329
41113SOL    HW225237   2.746   0.428   8.291
41114SOL     OW25238   4.974   9.613   5.338
41114SOL    HW125239   4.912   9.560   5.288
41114SOL    HW225240   4.996   9.685   5.279
41115SOL     OW25241   7.425   1.690   6.344
41115SOL    HW125242   7.330   1.692   6.345
41115SOL    HW225243   7.451   1.767   6.394
41116SOL     OW25244  12.611   5.842  13.935
41116SOL    HW125245  12.526   5.880  13.958
41116SOL    HW225246  12.664   5.917  13.907
41117SOL     OW25247   6.526   2.688  13.449
41117SOL    HW125248   6.505   2.596  13.437
41117SOL    HW225249   6.595   2.688  13.516
41118SOL     OW25250   8.777   5.536  12.088
41118SOL    HW125251   8.736   5.457  12.053
41118SOL    HW225252   8.720   5.608  12.058
41119SOL     OW25253   2.974   8.330   0.944
41119SOL    HW125254   2.953   8.249   0.897
41119SOL    HW225255   2.921   8.326   1.023
41120SOL     OW25256  12.125  11.075   7.767
41120SOL    HW125257  12.210  11.032   7.774
41120SOL    HW225258  12.067  11.026   7.825
41121SOL     OW25259   0.822  13.050   8.253
41121SOL    HW125260   0.844  12.976   8.310
41121SOL    HW225261   0.744  13.088   8.292
41122SOL     OW25262  14.461  11.428   7.334
41122SOL    HW125263  14.511  11.484   7.275
41122SOL    HW225264  14.457  11.344   7.289
41123SOL     OW25265  11.255   9.014   9.355
41123SOL    HW125266  11.282   9.104   9.373
41123SOL    HW225267  11.201   8.990   9.430
41124SOL     OW25268   4.392  14.143  10.741
41124SOL    HW125269   4.299  14.141  10.723
41124SOL    HW225270   4.415  14.053  10.764
41125SOL     OW25271   9.998   0.324  10.744
41125SOL    HW125272  10.016   0.277  10.663
41125SOL    HW225273  10.079   0.372  10.763
41126SOL     OW25274  10.952   5.166   0.634
41126SOL    HW125275  10.952   5.253   0.673
41126SOL    HW225276  11.036   5.160   0.589
41127SOL     OW25277   3.734   3.706   4.894
41127SOL    HW125278   3.672   3.644   4.934
41127SOL    HW225279   3.758   3.665   4.811
41128SOL     OW25280   0.967   8.711  14.180
41128SOL    HW125281   0.894   8.758  14.221
41128SOL    HW225282   1.042   8.730  14.236
41129SOL     OW25283   0.277  11.533   3.905
41129SOL    HW125284   0.284  11.491   3.991
41129SOL    HW225285   0.190  11.509   3.873
41130SOL     OW25286   8.292   2.396   5.234
41130SOL    HW125287   8.335   2.470   5.192
41130SOL    HW225288   8.361   2.351   5.283
41131SOL     OW25289  14.685  12.924   1.729
41131SOL    HW125290  14.693  13.009   1.686
41131SOL    HW225291  14.643  12.868   1.663
41132SOL     OW25292  10.354   7.586   0.193
41132SOL    HW125293  10.399   7.553   0.115
41132SOL    HW225294  10.282   7.525   0.207
41133SOL     OW25295   9.228   4.842  14.355
41133SOL    HW125296   9.294   4.865  14.290
41133SOL    HW225297   9.165   4.788  14.307
41134SOL     OW25298  11.655   7.080  13.309
41134SOL    HW125299  11.624   7.038  13.389
41134SOL    HW225300  11.746   7.103  13.328
41135SOL     OW25301   7.168   6.391  13.296
41135SOL    HW125302   7.209   6.320  13.346
41135SOL    HW225303   7.155   6.461  13.360
41136SOL     OW25304   4.120  14.775   6.052
41136SOL    HW125305   4.155  14.749   5.967
41136SOL    HW225306   4.107  14.869   6.045
41137SOL     OW25307   2.456   4.115   6.615
41137SOL    HW125308   2.525   4.108   6.681
41137SOL    HW225309   2.394   4.046   6.639
41138SOL     OW25310   3.893   1.158   2.445
41138SOL    HW125311   3.811   1.109   2.447
41138SOL    HW225312   3.897   1.203   2.529
41139SOL     OW25313   1.181  10.777   0.294
41139SOL    HW125314   1.141  10.817   0.217
41139SOL    HW225315   1.276  10.785   0.279
41140SOL     OW25316  13.245   9.751   2.096
41140SOL    HW125317  13.229   9.691   2.169
41140SOL    HW225318  13.311   9.707   2.043
41141SOL     OW25319   4.371   8.169   5.567
41141SOL    HW125320   4.459   8.133   5.566
41141SOL    HW225321   4.321   8.111   5.624
41142SOL     OW25322   1.928   0.319  13.668
41142SOL    HW125323   1.842   0.329  13.709
41142SOL    HW225324   1.955   0.408  13.646
41143SOL     OW25325   6.637   1.716  12.559
41143SOL    HW125326   6.730   1.707  12.537
41143SOL    HW225327   6.607   1.627  12.573
41144SOL     OW25328   2.972  10.934   3.364
41144SOL    HW125329   2.884  10.932   3.402
41144SOL    HW225330   3.024  10.985   3.426
41145SOL     OW25331   3.407   8.142  13.522
41145SOL    HW125332   3.320   8.158  13.483
41145SOL    HW225333   3.394   8.066  13.579
41146SOL     OW25334   8.586   6.505   6.341
41146SOL    HW125335   8.522   6.458   6.393
41146SOL    HW225336   8.647   6.438   6.311
41147SOL     OW25337   8.340   0.773   0.324
41147SOL    HW125338   8.307   0.788   0.413
41147SOL    HW225339   8.403   0.844   0.310
41148SOL     OW25340   3.841   0.703   7.074
41148SOL    HW125341   3.867   0.709   7.165
41148SOL    HW225342   3.819   0.610   7.061
41149SOL     OW25343   2.289  13.600  11.693
41149SOL    HW125344   2.289  13.662  11.765
41149SOL    HW225345   2.382  13.588  11.671
41150SOL     OW25346   7.346   1.597  11.392
41150SOL    HW125347   7.303   1.681  11.403
41150SOL    HW225348   7.440   1.616  11.401
41151SOL     OW25349   9.542  10.987   6.015
41151SOL    HW125350   9.490  11.054   5.971
41151SOL    HW225351   9.608  10.961   5.950
41152SOL     OW25352   5.947   8.739   2.617
41152SOL    HW125353   5.986   8.735   2.529
41152SOL    HW225354   5.901   8.823   2.619
41153SOL     OW25355  10.379   2.440   8.275
41153SOL    HW125356  10.430   2.490   8.338
41153SOL    HW225357  10.372   2.353   8.313
41154SOL     OW25358   4.729  12.950   2.493
41154SOL    HW125359   4.701  12.861   2.515
41154SOL    HW225360   4.683  13.006   2.556
41155SOL     OW25361   6.041   1.000   1.868
41155SOL    HW125362   6.076   1.027   1.783
41155SOL    HW225363   6.035   1.081   1.919
41156SOL     OW25364   5.854   3.674   6.632
41156SOL    HW125365   5.947   3.664   6.611
41156SOL    HW225366   5.843   3.768   6.649
41157SOL     OW25367  14.259   3.777  13.036
41157SOL    HW125368  14.281   3.699  13.087
41157SOL    HW225369  14.164   3.784  13.042
41158SOL     OW25370   3.030   4.248  10.825
41158SOL    HW125371   3.100   4.310  10.840
41158SOL    HW225372   2.955   4.302  10.799
41159SOL     OW25373   8.912  13.252   1.858
41159SOL    HW125374   8.898  13.175   1.804
41159SOL    HW225375   8.971  13.222   1.928
41160SOL     OW25376  12.308   5.609  11.097
41160SOL    HW125377  12.372   5.538  11.091
41160SOL    HW225378  12.224   5.564  11.103
41161SOL     OW25379   2.705  13.496   2.039
41161SOL    HW125380   2.749  13.519   1.957
41161SOL    HW225381   2.774  13.499   2.105
41162SOL     OW25382   0.000  10.055   4.432
41162SOL    HW125383  14.862   9.965   4.458
41162SOL    HW225384  14.806  10.084   4.382
41163SOL     OW25385   8.340  12.193   3.397
41163SOL    HW125386   8.309  12.147   3.475
41163SOL    HW225387   8.276  12.172   3.330
41164SOL     OW25388  10.956  10.957   3.126
41164SOL    HW125389  11.045  10.922   3.131
41164SOL    HW225390  10.947  10.982   3.034
41165SOL     OW25391  13.751   2.024  13.943
41165SOL    HW125392  13.692   2.088  13.982
41165SOL    HW225393  13.752   2.046  13.850
41166SOL     OW25394   1.797   1.901   7.101
41166SOL    HW125395   1.773   1.938   7.186
41166SOL    HW225396   1.890   1.922   7.092
41167SOL     OW25397   2.658   6.444  10.951
41167SOL    HW125398   2.741   6.490  10.942
41167SOL    HW225399   2.619   6.448  10.864
41168SOL     OW25400  11.689   4.371   8.380
41168SOL    HW125401  11.641   4.452   8.361
41168SOL    HW225402  11.629   4.319   8.433
41169SOL     OW25403  12.282   8.276   4.745
41169SOL    HW125404  12.261   8.369   4.739
41169SOL    HW225405  12.229   8.234   4.677
41170SOL     OW25406   3.918   3.261   8.283
41170SOL    HW125407   3.922   3.345   8.328
41170SOL    HW225408   3.985   3.267   8.214
41171SOL     OW25409   6.265   4.190  13.586
41171SOL    HW125410   6.195   4.245  13.552
41171SOL    HW225411   6.307   4.244  13.653
41172SOL     OW25412  11.852   9.881   3.540
41172SOL    HW125413  11.871   9.792   3.510
41172SOL    HW225414  11.819   9.869   3.630
41173SOL     OW25415  14.019   9.911   1.865
41173SOL    HW125416  14.050   9.996   1.836
41173SOL    HW225417  14.094   9.853   1.855
41174SOL     OW25418   2.857   8.197   8.652
41174SOL    HW125419   2.932   8.255   8.667
41174SOL    HW225420   2.829   8.171   8.740
41175SOL     OW25421  14.817   9.899   8.499
41175SOL    HW125422  14.879   9.970   8.517
41175SOL    HW225423  14.771   9.885   8.582
41176SOL     OW25424   2.879   0.833   3.497
41176SOL    HW125425   2.965   0.790   3.493
41176SOL    HW225426   2.824   0.781   3.438
41177SOL     OW25427   0.785   4.174  14.541
41177SOL    HW125428   0.789   4.203  14.450
41177SOL    HW225429   0.756   4.083  14.536
41178SOL     OW25430  11.297  14.362   5.713
41178SOL    HW125431  11.349  14.429   5.669
41178SOL    HW225432  11.340  14.279   5.692
41179SOL     OW25433   6.767   0.661  14.288
41179SOL    HW125434   6.714   0.597  14.336
41179SOL    HW225435   6.712   0.688  14.214
41180SOL     OW25436   1.762  11.266   6.038
41180SOL    HW125437   1.767  11.201   6.108
41180SOL    HW225438   1.672  11.262   6.008
41181SOL     OW25439   7.740  10.116  10.070
41181SOL    HW125440   7.812  10.103  10.132
41181SOL    HW225441   7.783  10.145   9.990
41182SOL     OW25442   0.141  11.544   4.166
41182SOL    HW125443   0.234  11.522   4.166
41182SOL    HW225444   0.096  11.461   4.156
41183SOL     OW25445   5.592   6.322   2.373
41183SOL    HW125446   5.577   6.263   2.300
41183SOL    HW225447   5.598   6.409   2.333
41184SOL     OW25448  12.162   1.001  12.337
41184SOL    HW125449  12.117   0.933  12.286
41184SOL    HW225450  12.141   1.083  12.291
41185SOL     OW25451   2.809   1.597   9.537
41185SOL    HW125452   2.802   1.692   9.546
41185SOL    HW225453   2.724   1.564   9.568
41186SOL     OW25454   6.141  12.256   6.113
41186SOL    HW125455   6.189  12.288   6.037
41186SOL    HW225456   6.062  12.216   6.076
41187SOL     OW25457   5.810  10.124  12.481
41187SOL    HW125458   5.756  10.045  12.494
41187SOL    HW225459   5.748  10.196  12.489
41188SOL     OW25460  14.789   0.735   0.944
41188SOL    HW125461  14.754   0.646   0.950
41188SOL    HW225462   0.002   0.724   0.950
41189SOL     OW25463   7.234   9.938   3.251
41189SOL    HW125464   7.223   9.856   3.203
41189SOL    HW225465   7.327   9.960   3.240
41190SOL     OW25466   3.585   3.521  12.076
41190SOL    HW125467   3.655   3.522  12.141
41190SOL    HW225468   3.510   3.562  12.120
41191SOL     OW25469   1.702  11.490  10.469
41191SOL    HW125470   1.696  11.555  10.538
41191SOL    HW225471   1.611  11.467  10.449
41192SOL     OW25472   1.291  14.705   0.498
41192SOL    HW125473   1.225  14.767   0.468
41192SOL    HW225474   1.375  14.747   0.477
41193SOL     OW25475  14.797  13.884   2.924
41193SOL    HW125476  14.874  13.934   2.952
41193SOL    HW225477  14.829  13.795   2.914
41194SOL     OW25478   4.828  11.620   3.357
41194SOL    HW125479   4.785  11.573   3.427
41194SOL    HW225480   4.764  11.622   3.285
41195SOL     OW25481  12.484   6.394   0.865
41195SOL    HW125482  12.574   6.413   0.892
41195SOL    HW225483  12.493   6.326   0.798
41196SOL     OW25484   2.755   6.833   6.171
41196SOL    HW125485   2.681   6.881   6.135
41196SOL    HW225486   2.748   6.745   6.135
41197SOL     OW25487  13.038   5.740  12.611
41197SOL    HW125488  12.948   5.760  12.589
41197SOL    HW225489  13.033   5.692  12.694
41198SOL     OW25490   8.613  12.371   0.021
41198SOL    HW125491   8.631  12.339   0.110
41198SOL    HW225492   8.524  12.406   0.026
41199SOL     OW25493   6.953  13.143   8.532
41199SOL    HW125494   7.008  13.163   8.607
41199SOL    HW225495   6.939  13.049   8.537
41200SOL     OW25496  10.544   5.851   6.694
41200SOL    HW125497  10.574   5.935   6.661
41200SOL    HW225498  10.484   5.818   6.626
41201SOL     OW25499  10.356  10.328   0.594
41201SOL    HW125500  10.269  10.290   0.604
41201SOL    HW225501  10.389  10.336   0.684
41202SOL     OW25502  10.188   6.614   0.781
41202SOL    HW125503  10.208   6.642   0.870
41202SOL    HW225504  10.093   6.614   0.776
41203SOL     OW25505   4.451   3.143  12.003
41203SOL    HW125506   4.503   3.204  12.055
41203SOL    HW225507   4.367   3.139  12.049
41204SOL     OW25508  14.091   0.645  13.886
41204SOL    HW125509  14.059   0.666  13.974
41204SOL    HW225510  14.141   0.565  13.898
41205SOL     OW25511  11.245   8.537  11.813
41205SOL    HW125512  11.193   8.608  11.776
41205SOL    HW225513  11.333   8.552  11.779
41206SOL     OW25514  11.965   4.095   2.799
41206SOL    HW125515  11.886   4.057   2.838
41206SOL    HW225516  12.034   4.078   2.863
41207SOL     OW25517   1.475  11.298   5.022
41207SOL    HW125518   1.418  11.225   4.999
41207SOL    HW225519   1.428  11.345   5.091
41208SOL     OW25520   1.460  13.947  11.097
41208SOL    HW125521   1.527  13.985  11.041
41208SOL    HW225522   1.419  13.879  11.043
41209SOL     OW25523   1.588  12.846   8.805
41209SOL    HW125524   1.610  12.913   8.870
41209SOL    HW225525   1.586  12.764   8.854
41210SOL     OW25526  14.473  13.904   2.508
41210SOL    HW125527  14.410  13.881   2.440
41210SOL    HW225528  14.558  13.900   2.464
41211SOL     OW25529   5.945   2.060  11.018
41211SOL    HW125530   5.897   2.001  10.961
41211SOL    HW225531   5.946   2.017  11.104
41212SOL     OW25532  11.061  14.005   3.380
41212SOL    HW125533  11.005  13.998   3.303
41212SOL    HW225534  11.095  14.095   3.377
41213SOL     OW25535   2.365  10.717   3.442
41213SOL    HW125536   2.355  10.750   3.531
41213SOL    HW225537   2.460  10.710   3.429
41214SOL     OW25538   7.451   1.777   2.584
41214SOL    HW125539   7.534   1.737   2.611
41214SOL    HW225540   7.427   1.835   2.657
41215SOL     OW25541   1.424   5.371   8.348
41215SOL    HW125542   1.379   5.347   8.267
41215SOL    HW225543   1.513   5.392   8.321
41216SOL     OW25544   2.259   0.922   6.563
41216SOL    HW125545   2.267   0.962   6.476
41216SOL    HW225546   2.169   0.890   6.567
41217SOL     OW25547  10.067  12.317   7.625
41217SOL    HW125548  10.104  12.392   7.672
41217SOL    HW225549  10.050  12.252   7.693
41218SOL     OW25550   3.255   4.390  12.520
41218SOL    HW125551   3.166   4.392  12.485
41218SOL    HW225552   3.243   4.382  12.615
41219SOL     OW25553  10.919   9.735   2.101
41219SOL    HW125554  10.837   9.696   2.070
41219SOL    HW225555  10.931   9.812   2.045
41220SOL     OW25556   3.012   7.776   2.041
41220SOL    HW125557   3.025   7.856   1.991
41220SOL    HW225558   3.008   7.706   1.975
41221SOL     OW25559  12.740   4.568   1.327
41221SOL    HW125560  12.771   4.480   1.303
41221SOL    HW225561  12.649   4.555   1.354
41222SOL     OW25562  11.405   1.398   5.299
41222SOL    HW125563  11.406   1.392   5.204
41222SOL    HW225564  11.418   1.491   5.318
41223SOL     OW25565   7.827   9.632   6.219
41223SOL    HW125566   7.907   9.684   6.231
41223SOL    HW225567   7.817   9.584   6.301
41224SOL     OW25568   9.786  12.972   2.950
41224SOL    HW125569   9.721  12.902   2.951
41224SOL    HW225570   9.868  12.928   2.971
41225SOL     OW25571   5.868  14.788   4.492
41225SOL    HW125572   5.891  14.790   4.585
41225SOL    HW225573   5.819  14.707   4.481
41226SOL     OW25574   2.401  13.913  13.080
41226SOL    HW125575   2.430  14.005  13.073
41226SOL    HW225576   2.458  13.875  13.147
41227SOL     OW25577   8.032   4.805   3.728
41227SOL    HW125578   7.983   4.886   3.715
41227SOL    HW225579   8.079   4.791   3.646
41228SOL     OW25580  14.396   5.630   2.667
41228SOL    HW125581  14.332   5.590   2.608
41228SOL    HW225582  14.451   5.557   2.697
41229SOL     OW25583   8.752  13.018  11.454
41229SOL    HW125584   8.719  13.052  11.370
41229SOL    HW225585   8.744  12.923  11.446
41230SOL     OW25586  13.851   9.015   2.259
41230SOL    HW125587  13.930   9.067   2.278
41230SOL    HW225588  13.794   9.075   2.211
41231SOL     OW25589  13.020   2.463  13.006
41231SOL    HW125590  13.038   2.441  13.098
41231SOL    HW225591  13.097   2.432  12.958
41232SOL     OW25592   1.170   6.330   1.835
41232SOL    HW125593   1.231   6.260   1.812
41232SOL    HW225594   1.220   6.410   1.821
41233SOL     OW25595  14.810   6.201   5.442
41233SOL    HW125596   0.011   6.168   5.476
41233SOL    HW225597  14.811   6.175   5.349
41234SOL     OW25598  13.073  13.901   8.261
41234SOL    HW125599  13.119  13.817   8.256
41234SOL    HW225600  13.143  13.966   8.262
41235SOL     OW25601   8.991   0.019   3.243
41235SOL    HW125602   8.951   0.024   3.156
41235SOL    HW225603   8.982  14.810   3.269
41236SOL     OW25604   7.052   4.558  13.438
41236SOL    HW125605   6.965   4.544  13.475
41236SOL    HW225606   7.108   4.496  13.484
41237SOL     OW25607   0.775   7.010   9.070
41237SOL    HW125608   0.740   7.040   9.153
41237SOL    HW225609   0.738   6.923   9.058
41238SOL     OW25610   3.831  12.053  12.586
41238SOL    HW125611   3.885  12.131  12.599
41238SOL    HW225612   3.890  11.980  12.605
41239SOL     OW25613  11.867  11.622  12.212
41239SOL    HW125614  11.907  11.697  12.257
41239SOL    HW225615  11.940  11.563  12.194
41240SOL     OW25616  12.697   7.302   1.672
41240SOL    HW125617  12.630   7.304   1.604
41240SOL    HW225618  12.699   7.391   1.706
41241SOL     OW25619  10.498  13.799   3.808
41241SOL    HW125620  10.552  13.832   3.736
41241SOL    HW225621  10.425  13.754   3.764
41242SOL     OW25622  11.284   9.206   5.517
41242SOL    HW125623  11.226   9.144   5.473
41242SOL    HW225624  11.365   9.204   5.467
41243SOL     OW25625   1.073  11.068   6.789
41243SOL    HW125626   1.014  11.025   6.727
41243SOL    HW225627   1.017  11.093   6.862
41244SOL     OW25628  14.253   1.069   6.983
41244SOL    HW125629  14.184   1.128   7.013
41244SOL    HW225630  14.299   1.118   6.915
41245SOL     OW25631   9.677   0.994   3.507
41245SOL    HW125632   9.582   1.002   3.509
41245SOL    HW225633   9.708   1.053   3.576
41246SOL     OW25634   0.520   0.979  13.508
41246SOL    HW125635   0.575   0.913  13.466
41246SOL    HW225636   0.541   1.060  13.462
41247SOL     OW25637  11.079   8.988   3.626
41247SOL    HW125638  11.109   9.078   3.610
41247SOL    HW225639  11.025   8.967   3.550
41248SOL     OW25640   8.481   9.780  13.291
41248SOL    HW125641   8.446   9.697  13.321
41248SOL    HW225642   8.434   9.799  13.210
41249SOL     OW25643   3.710  14.558  14.239
41249SOL    HW125644   3.794  14.513  14.244
41249SOL    HW225645   3.720  14.635  14.296
41250SOL     OW25646   4.535   0.782   3.642
41250SOL    HW125647   4.619   0.816   3.673
41250SOL    HW225648   4.544   0.781   3.547
41251SOL     OW25649  13.120   0.586   5.032
41251SOL    HW125650  13.071   0.642   4.973
41251SOL    HW225651  13.108   0.497   4.998
41252SOL     OW25652   0.124   0.517  13.640
41252SOL    HW125653   0.105   0.525  13.733
41252SOL    HW225654   0.039   0.503  13.599
41253SOL     OW25655   7.737   6.768  13.625
41253SOL    HW125656   7.792   6.846  13.635
41253SOL    HW225657   7.737   6.750  13.531
41254SOL     OW25658  14.229   7.540   1.487
41254SOL    HW125659  14.221   7.626   1.446
41254SOL    HW225660  14.141   7.503   1.483
41255SOL     OW25661   1.747   7.191   9.907
41255SOL    HW125662   1.788   7.105   9.903
41255SOL    HW225663   1.739   7.220   9.816
41256SOL     OW25664  12.166  13.269   1.124
41256SOL    HW125665  12.183  13.328   1.198
41256SOL    HW225666  12.212  13.309   1.050
41257SOL     OW25667   0.534   0.949  11.085
41257SOL    HW125668   0.544   0.947  10.990
41257SOL    HW225669   0.600   1.011  11.116
41258SOL     OW25670  14.656   4.646  12.072
41258SOL    HW125671  14.630   4.560  12.041
41258SOL    HW225672  14.606   4.659  12.152
41259SOL     OW25673   0.964   7.129   3.907
41259SOL    HW125674   0.951   7.153   3.999
41259SOL    HW225675   0.981   7.035   3.910
41260SOL     OW25676   8.991  14.848  13.334
41260SOL    HW125677   9.079   0.004  13.337
41260SOL    HW225678   8.979  14.820  13.244
41261SOL     OW25679  10.029   8.676  11.206
41261SOL    HW125680   9.951   8.692  11.153
41261SOL    HW225681   9.995   8.648  11.291
41262SOL     OW25682   7.348   4.759   2.763
41262SOL    HW125683   7.363   4.853   2.762
41262SOL    HW225684   7.379   4.729   2.678
41263SOL     OW25685   5.294  14.834   5.277
41263SOL    HW125686   5.216  14.846   5.332
41263SOL    HW225687   5.366  14.823   5.339
41264SOL     OW25688  13.467   8.565  11.253
41264SOL    HW125689  13.525   8.640  11.242
41264SOL    HW225690  13.519   8.502  11.303
41265SOL     OW25691  11.695   7.905   5.967
41265SOL    HW125692  11.695   7.998   5.993
41265SOL    HW225693  11.616   7.895   5.914
41266SOL     OW25694   5.900  14.836   8.596
41266SOL    HW125695   5.921  14.850   8.503
41266SOL    HW225696   5.837  14.764   8.595
41267SOL     OW25697  10.185   9.645   0.649
41267SOL    HW125698  10.219   9.732   0.632
41267SOL    HW225699  10.203   9.596   0.569
41268SOL     OW25700   8.033  11.048  14.781
41268SOL    HW125701   8.123  11.014  14.781
41268SOL    HW225702   8.044  11.142  14.795
41269SOL     OW25703  13.444   4.811   5.296
41269SOL    HW125704  13.432   4.753   5.371
41269SOL    HW225705  13.488   4.888   5.331
41270SOL     OW25706  12.051  11.652   4.573
41270SOL    HW125707  11.955  11.649   4.565
41270SOL    HW225708  12.075  11.740   4.544
41271SOL     OW25709   0.591   7.847   8.769
41271SOL    HW125710   0.513   7.900   8.756
41271SOL    HW225711   0.570   7.791   8.843
41272SOL     OW25712  11.608   6.744   5.668
41272SOL    HW125713  11.642   6.784   5.588
41272SOL    HW225714  11.515   6.766   5.668
41273SOL     OW25715   6.546  11.752   0.786
41273SOL    HW125716   6.503  11.795   0.713
41273SOL    HW225717   6.529  11.659   0.774
41274SOL     OW25718   4.029   6.545   3.457
41274SOL    HW125719   3.948   6.582   3.491
41274SOL    HW225720   4.095   6.565   3.524
41275SOL     OW25721  12.534  11.618   0.959
41275SOL    HW125722  12.626  11.597   0.967
41275SOL    HW225723  12.491  11.535   0.939
41276SOL     OW25724  10.507   8.842   7.098
41276SOL    HW125725  10.452   8.802   7.166
41276SOL    HW225726  10.463   8.923   7.076
41277SOL     OW25727  10.546   2.037  11.857
41277SOL    HW125728  10.603   2.085  11.797
41277SOL    HW225729  10.499   2.105  11.905
41278SOL     OW25730   4.095  10.730  11.005
41278SOL    HW125731   4.165  10.668  11.024
41278SOL    HW225732   4.038  10.726  11.081
41279SOL     OW25733   1.182  11.791   8.211
41279SOL    HW125734   1.108  11.826   8.160
41279SOL    HW225735   1.156  11.803   8.302
41280SOL     OW25736   3.645  12.116   7.581
41280SOL    HW125737   3.560  12.090   7.615
41280SOL    HW225738   3.706  12.052   7.617
41281SOL     OW25739   8.018  11.612  10.158
41281SOL    HW125740   8.097  11.625  10.210
41281SOL    HW225741   8.045  11.553  10.088
41282SOL     OW25742   5.408   4.698   5.037
41282SOL    HW125743   5.366   4.769   5.086
41282SOL    HW225744   5.486   4.676   5.088
41283SOL     OW25745   4.347  12.439  10.478
41283SOL    HW125746   4.441  12.431  10.496
41283SOL    HW225747   4.341  12.439  10.383
41284SOL     OW25748   0.457   2.835   3.545
41284SOL    HW125749   0.390   2.768   3.536
41284SOL    HW225750   0.414   2.915   3.513
41285SOL     OW25751  12.688   3.718  10.777
41285SOL    HW125752  12.598   3.709  10.745
41285SOL    HW225753  12.742   3.680  10.708
41286SOL     OW25754  11.985   1.053   3.503
41286SOL    HW125755  12.025   1.104   3.432
41286SOL    HW225756  12.010   1.100   3.583
41287SOL     OW25757  12.013   9.791  10.626
41287SOL    HW125758  11.935   9.791  10.682
41287SOL    HW225759  12.004   9.869  10.572
41288SOL     OW25760  13.477   2.529   0.490
41288SOL    HW125761  13.509   2.587   0.559
41288SOL    HW225762  13.465   2.445   0.533
41289SOL     OW25763   9.538   3.614  14.418
41289SOL    HW125764   9.464   3.644  14.470
41289SOL    HW225765   9.532   3.663  14.336
41290SOL     OW25766   3.104   1.498   6.636
41290SOL    HW125767   3.125   1.457   6.720
41290SOL    HW225768   3.020   1.542   6.651
41291SOL     OW25769   9.917  12.449  10.424
41291SOL    HW125770   9.862  12.465  10.348
41291SOL    HW225771   9.860  12.405  10.487
41292SOL     OW25772  13.397   6.354   6.610
41292SOL    HW125773  13.309   6.389   6.626
41292SOL    HW225774  13.415   6.377   6.519
41293SOL     OW25775  11.508   1.796   3.184
41293SOL    HW125776  11.590   1.748   3.194
41293SOL    HW225777  11.498   1.845   3.266
41294SOL     OW25778   8.729   9.654  13.008
41294SOL    HW125779   8.796   9.691  12.951
41294SOL    HW225780   8.646   9.689  12.973
41295SOL     OW25781   2.115   7.393   5.012
41295SOL    HW125782   2.107   7.373   5.105
41295SOL    HW225783   2.192   7.450   5.005
41296SOL     OW25784   1.385   1.953   3.128
41296SOL    HW125785   1.410   1.875   3.177
41296SOL    HW225786   1.325   2.000   3.186
41297SOL     OW25787   0.647   2.632   6.091
41297SOL    HW125788   0.712   2.575   6.132
41297SOL    HW225789   0.697   2.685   6.029
41298SOL     OW25790   9.032   6.550  13.102
41298SOL    HW125791   9.120   6.556  13.064
41298SOL    HW225792   8.977   6.518  13.031
41299SOL     OW25793   4.457   9.276   3.964
41299SOL    HW125794   4.429   9.314   3.881
41299SOL    HW225795   4.460   9.182   3.947
41300SOL     OW25796   0.661   5.271   4.382
41300SOL    HW125797   0.696   5.267   4.293
41300SOL    HW225798   0.572   5.235   4.374
41301SOL     OW25799  14.065   8.614  12.614
41301SOL    HW125800  14.160   8.601  12.619
41301SOL    HW225801  14.055   8.697  12.568
41302SOL     OW25802   7.184   7.707   4.344
41302SOL    HW125803   7.241   7.738   4.415
41302SOL    HW225804   7.113   7.661   4.388
41303SOL     OW25805  13.255  11.238   8.445
41303SOL    HW125806  13.345  11.250   8.476
41303SOL    HW225807  13.220  11.170   8.501
41304SOL     OW25808  11.376   4.881  12.922
41304SOL    HW125809  11.459   4.881  12.970
41304SOL    HW225810  11.374   4.796  12.879
41305SOL     OW25811   9.429  12.583  14.432
41305SOL    HW125812   9.380  12.602  14.512
41305SOL    HW225813   9.402  12.652  14.370
41306SOL     OW25814  12.415   9.226  14.740
41306SOL    HW125815  12.466   9.287  14.686
41306SOL    HW225816  12.477   9.196  14.806
41307SOL     OW25817   0.453   2.063  12.311
41307SOL    HW125818   0.427   2.040  12.400
41307SOL    HW225819   0.396   2.011  12.254
41308SOL     OW25820  13.533   0.600  11.171
41308SOL    HW125821  13.528   0.688  11.134
41308SOL    HW225822  13.441   0.573  11.179
41309SOL     OW25823  10.707   1.475   6.195
41309SOL    HW125824  10.744   1.434   6.273
41309SOL    HW225825  10.614   1.489   6.216
41310SOL     OW25826   9.739   2.549   9.524
41310SOL    HW125827   9.758   2.456   9.536
41310SOL    HW225828   9.753   2.587   9.611
41311SOL     OW25829   1.040  11.095   2.026
41311SOL    HW125830   0.959  11.066   2.070
41311SOL    HW225831   1.076  11.162   2.085
41312SOL     OW25832  14.251   7.092  12.504
41312SOL    HW125833  14.235   7.004  12.472
41312SOL    HW225834  14.346   7.101  12.504
41313SOL     OW25835   9.831   2.582   3.892
41313SOL    HW125836   9.801   2.507   3.840
41313SOL    HW225837   9.898   2.623   3.839
41314SOL     OW25838  13.009   3.240   7.732
41314SOL    HW125839  13.097   3.267   7.757
41314SOL    HW225840  13.020   3.152   7.696
41315SOL     OW25841   2.714   4.185  13.654
41315SOL    HW125842   2.777   4.189  13.726
41315SOL    HW225843   2.682   4.095  13.654
41316SOL     OW25844   1.646   9.099   9.604
41316SOL    HW125845   1.576   9.115   9.668
41316SOL    HW225846   1.606   9.120   9.520
41317SOL     OW25847   8.422  10.604   1.222
41317SOL    HW125848   8.351  10.668   1.232
41317SOL    HW225849   8.398  10.553   1.145
41318SOL     OW25850  11.459  12.740   1.422
41318SOL    HW125851  11.429  12.654   1.451
41318SOL    HW225852  11.487  12.784   1.503
41319SOL     OW25853  10.171  12.057  12.402
41319SOL    HW125854  10.177  12.000  12.326
41319SOL    HW225855  10.234  12.127  12.385
41320SOL     OW25856   3.892   0.620   3.007
41320SOL    HW125857   3.858   0.668   2.931
41320SOL    HW225858   3.894   0.529   2.979
41321SOL     OW25859   6.123   6.252   3.227
41321SOL    HW125860   6.049   6.227   3.172
41321SOL    HW225861   6.150   6.338   3.194
41322SOL     OW25862   9.364   5.266   0.658
41322SOL    HW125863   9.336   5.186   0.613
41322SOL    HW225864   9.429   5.237   0.722
41323SOL     OW25865   5.364   9.416   8.652
41323SOL    HW125866   5.369   9.397   8.559
41323SOL    HW225867   5.419   9.349   8.693
41324SOL     OW25868   8.696  11.946   5.261
41324SOL    HW125869   8.628  11.938   5.195
41324SOL    HW225870   8.700  12.040   5.281
41325SOL     OW25871   2.375  12.192   4.684
41325SOL    HW125872   2.341  12.278   4.659
41325SOL    HW225873   2.433  12.209   4.758
41326SOL     OW25874   0.092   2.709   6.896
41326SOL    HW125875   0.126   2.788   6.938
41326SOL    HW225876   0.024   2.740   6.837
41327SOL     OW25877  14.820  14.255   4.488
41327SOL    HW125878  14.842  14.247   4.581
41327SOL    HW225879  14.729  14.228   4.482
41328SOL     OW25880   1.166  10.093  10.919
41328SOL    HW125881   1.180  10.142  10.838
41328SOL    HW225882   1.099  10.029  10.897
41329SOL     OW25883   9.805  13.963   5.942
41329SOL    HW125884   9.886  13.932   5.902
41329SOL    HW225885   9.745  13.890   5.933
41330SOL     OW25886   8.949  11.831   5.591
41330SOL    HW125887   8.891  11.769   5.635
41330SOL    HW225888   8.954  11.799   5.501
41331SOL     OW25889   8.209  13.475  10.246
41331SOL    HW125890   8.165  13.559  10.247
41331SOL    HW225891   8.142  13.411  10.268
41332SOL     OW25892   5.695   4.048  14.513
41332SOL    HW125893   5.651   3.964  14.530
41332SOL    HW225894   5.768   4.025  14.456
41333SOL     OW25895   6.148   5.475   3.094
41333SOL    HW125896   6.166   5.386   3.063
41333SOL    HW225897   6.167   5.531   3.018
41334SOL     OW25898  11.953  10.325   2.994
41334SOL    HW125899  12.021  10.391   3.006
41334SOL    HW225900  11.995  10.243   3.019
41335SOL     OW25901   0.199  14.160   0.893
41335SOL    HW125902   0.185  14.066   0.907
41335SOL    HW225903   0.247  14.188   0.970
41336SOL     OW25904   2.223   5.266   2.655
41336SOL    HW125905   2.168   5.206   2.603
41336SOL    HW225906   2.160   5.314   2.710
41337SOL     OW25907   4.243   6.534  11.670
41337SOL    HW125908   4.274   6.524  11.580
41337SOL    HW225909   4.149   6.553  11.661
41338SOL     OW25910   6.190  12.808  10.870
41338SOL    HW125911   6.273  12.786  10.911
41338SOL    HW225912   6.214  12.847  10.786
41339SOL     OW25913   9.368   3.590  10.950
41339SOL    HW125914   9.420   3.515  10.980
41339SOL    HW225915   9.277   3.563  10.962
41340SOL     OW25916   7.504   9.958  11.453
41340SOL    HW125917   7.566  10.008  11.400
41340SOL    HW225918   7.553   9.936  11.532
41341SOL     OW25919   6.195  10.174   9.990
41341SOL    HW125920   6.240  10.234  10.051
41341SOL    HW225921   6.266  10.127   9.947
41342SOL     OW25922   9.568   2.695  11.888
41342SOL    HW125923   9.606   2.761  11.830
41342SOL    HW225924   9.559   2.617  11.833
41343SOL     OW25925  10.234   6.996   7.004
41343SOL    HW125926  10.295   6.957   7.067
41343SOL    HW225927  10.290   7.031   6.935
41344SOL     OW25928   3.718  14.134   0.223
41344SOL    HW125929   3.728  14.190   0.146
41344SOL    HW225930   3.638  14.166   0.266
41345SOL     OW25931   7.703  14.366   9.235
41345SOL    HW125932   7.794  14.346   9.256
41345SOL    HW225933   7.671  14.417   9.310
41346SOL     OW25934   8.985   1.144   4.564
41346SOL    HW125935   8.938   1.069   4.600
41346SOL    HW225936   8.923   1.186   4.505
41347SOL     OW25937  12.734   7.410   6.998
41347SOL    HW125938  12.764   7.395   6.909
41347SOL    HW225939  12.649   7.367   7.003
41348SOL     OW25940   7.084   3.377   6.520
41348SOL    HW125941   7.165   3.325   6.516
41348SOL    HW225942   7.102   3.444   6.586
41349SOL     OW25943  14.733   9.955  13.808
41349SOL    HW125944  14.639   9.964  13.820
41349SOL    HW225945  14.746   9.967  13.714
41350SOL     OW25946   2.635   7.532   5.456
41350SOL    HW125947   2.656   7.540   5.549
41350SOL    HW225948   2.712   7.490   5.418
41351SOL     OW25949  12.739  11.990   1.253
41351SOL    HW125950  12.763  11.933   1.181
41351SOL    HW225951  12.656  11.955   1.285
41352SOL     OW25952   0.314   5.946  12.656
41352SOL    HW125953   0.409   5.950  12.658
41352SOL    HW225954   0.290   5.965  12.565
41353SOL     OW25955   8.048   0.608  11.328
41353SOL    HW125956   7.983   0.544  11.357
41353SOL    HW225957   8.086   0.643  11.408
41354SOL     OW25958  11.583  12.818  14.813
41354SOL    HW125959  11.553  12.909  14.815
41354SOL    HW225960  11.678  12.825  14.801
41355SOL     OW25961   6.425  11.225   9.076
41355SOL    HW125962   6.388  11.234   8.988
41355SOL    HW225963   6.520  11.228   9.063
41356SOL     OW25964   5.914   9.929   5.082
41356SOL    HW125965   5.864   9.855   5.048
41356SOL    HW225966   6.006   9.901   5.075
41357SOL     OW25967   6.154   5.809  11.165
41357SOL    HW125968   6.116   5.812  11.253
41357SOL    HW225969   6.131   5.893  11.125
41358SOL     OW25970   9.993   5.573  10.338
41358SOL    HW125971   9.941   5.574  10.419
41358SOL    HW225972  10.051   5.648  10.346
41359SOL     OW25973   9.588  14.144   4.221
41359SOL    HW125974   9.581  14.188   4.136
41359SOL    HW225975   9.682  14.125   4.230
41360SOL     OW25976  11.174   1.232  11.522
41360SOL    HW125977  11.259   1.188  11.520
41360SOL    HW225978  11.158   1.250  11.615
41361SOL     OW25979   8.674  10.879   9.780
41361SOL    HW125980   8.730  10.954   9.760
41361SOL    HW225981   8.730  10.803   9.765
41362SOL     OW25982   0.690   6.701   5.433
41362SOL    HW125983   0.645   6.724   5.352
41362SOL    HW225984   0.651   6.757   5.499
41363SOL     OW25985  12.836   5.050   7.176
41363SOL    HW125986  12.865   5.036   7.267
41363SOL    HW225987  12.856   4.967   7.132
41364SOL     OW25988   3.823   6.559  12.643
41364SOL    HW125989   3.791   6.618  12.575
41364SOL    HW225990   3.809   6.606  12.724
41365SOL     OW25991   3.166   8.131   0.322
41365SOL    HW125992   3.138   8.157   0.234
41365SOL    HW225993   3.166   8.036   0.320
41366SOL     OW25994  11.238  14.542   6.550
41366SOL    HW125995  11.188  14.504   6.623
41366SOL    HW225996  11.192  14.513   6.472
41367SOL     OW25997   1.349   4.818   3.155
41367SOL    HW125998   1.422   4.763   3.123
41367SOL    HW225999   1.334   4.787   3.245
41368SOL     OW26000   1.359   5.334   6.380
41368SOL    HW126001   1.266   5.325   6.357
41368SOL    HW226002   1.360   5.323   6.476
41369SOL     OW26003  11.408   4.952   9.176
41369SOL    HW126004  11.313   4.951   9.181
41369SOL    HW226005  11.435   4.864   9.202
41370SOL     OW26006   0.203   5.845   6.308
41370SOL    HW126007   0.243   5.866   6.392
41370SOL    HW226008   0.152   5.923   6.285
41371SOL     OW26009   0.242   5.491   4.226
41371SOL    HW126010   0.242   5.396   4.224
41371SOL    HW226011   0.161   5.517   4.181
41372SOL     OW26012   3.824   5.446   2.866
41372SOL    HW126013   3.883   5.448   2.790
41372SOL    HW226014   3.746   5.494   2.837
41373SOL     OW26015  11.036   6.785   0.324
41373SOL    HW126016  11.059   6.748   0.409
41373SOL    HW226017  11.111   6.840   0.301
41374SOL     OW26018  12.443  11.656   9.465
41374SOL    HW126019  12.370  11.689   9.413
41374SOL    HW226020  12.458  11.722   9.532
41375SOL     OW26021   4.677   8.393  11.904
41375SOL    HW126022   4.694   8.348  11.822
41375SOL    HW226023   4.583   8.383  11.919
41376SOL     OW26024   9.191  11.510  11.742
41376SOL    HW126025   9.136  11.496  11.665
41376SOL    HW226026   9.228  11.598  11.729
41377SOL     OW26027  14.213   9.861   9.856
41377SOL    HW126028  14.306   9.864   9.831
41377SOL    HW226029  14.177   9.944   9.824
41378SOL     OW26030   1.992   5.992   7.711
41378SOL    HW126031   2.031   5.938   7.780
41378SOL    HW226032   2.052   5.984   7.637
41379SOL     OW26033  14.144   1.905  12.891
41379SOL    HW126034  14.198   1.829  12.870
41379SOL    HW226035  14.077   1.871  12.950
41380SOL     OW26036   1.522   7.444   8.233
41380SOL    HW126037   1.469   7.391   8.174
41380SOL    HW226038   1.596   7.473   8.180
41381SOL     OW26039  13.688   8.550  11.608
41381SOL    HW126040  13.693   8.636  11.566
41381SOL    HW226041  13.779   8.528  11.627
41382SOL     OW26042  14.809   6.981  11.003
41382SOL    HW126043  14.826   6.963  10.910
41382SOL    HW226044  14.839   6.902  11.048
41383SOL     OW26045   5.758   5.687   4.177
41383SOL    HW126046   5.833   5.744   4.160
41383SOL    HW226047   5.697   5.706   4.105
41384SOL     OW26048  10.273   1.090   8.779
41384SOL    HW126049  10.275   1.130   8.866
41384SOL    HW226050  10.237   1.003   8.794
41385SOL     OW26051  13.843  14.187   5.163
41385SOL    HW126052  13.876  14.235   5.087
41385SOL    HW226053  13.748  14.201   5.162
41386SOL     OW26054  12.591  13.223   1.261
41386SOL    HW126055  12.641  13.216   1.179
41386SOL    HW226056  12.576  13.132   1.287
41387SOL     OW26057   6.048   0.155   9.708
41387SOL    HW126058   6.007   0.235   9.741
41387SOL    HW226059   5.978   0.090   9.709
41388SOL     OW26060   0.976   1.126   9.888
41388SOL    HW126061   0.918   1.076   9.831
41388SOL    HW226062   0.918   1.190   9.931
41389SOL     OW26063  10.510   5.052   0.902
41389SOL    HW126064  10.564   5.100   0.964
41389SOL    HW226065  10.533   5.089   0.816
41390SOL     OW26066   3.398  10.444   7.736
41390SOL    HW126067   3.333  10.382   7.771
41390SOL    HW226068   3.481  10.398   7.743
41391SOL     OW26069   7.921   9.395   6.616
41391SOL    HW126070   7.930   9.437   6.701
41391SOL    HW226071   7.838   9.428   6.582
41392SOL     OW26072   4.488   0.047   9.925
41392SOL    HW126073   4.556   0.047   9.992
41392SOL    HW226074   4.443   0.131   9.937
41393SOL     OW26075   4.044   0.901   4.689
41393SOL    HW126076   4.043   0.808   4.711
41393SOL    HW226077   3.975   0.939   4.744
41394SOL     OW26078  13.260   8.942   1.822
41394SOL    HW126079  13.296   8.876   1.762
41394SOL    HW226080  13.178   8.905   1.853
41395SOL     OW26081   5.049   5.631   4.016
41395SOL    HW126082   5.054   5.616   4.110
41395SOL    HW226083   5.009   5.718   4.007
41396SOL     OW26084  11.212   2.626  10.736
41396SOL    HW126085  11.233   2.714  10.766
41396SOL    HW226086  11.214   2.631  10.641
41397SOL     OW26087   8.667  11.793  13.087
41397SOL    HW126088   8.685  11.702  13.064
41397SOL    HW226089   8.747  11.840  13.065
41398SOL     OW26090   6.284   6.502   6.696
41398SOL    HW126091   6.212   6.496   6.633
41398SOL    HW226092   6.292   6.595   6.714
41399SOL     OW26093   6.972   9.421   2.054
41399SOL    HW126094   7.023   9.502   2.062
41399SOL    HW226095   6.882   9.447   2.074
41400SOL     OW26096   5.590  13.979  10.098
41400SOL    HW126097   5.539  14.059  10.107
41400SOL    HW226098   5.583  13.937  10.184
41401SOL     OW26099   5.743   5.677  14.351
41401SOL    HW126100   5.791   5.629  14.419
41401SOL    HW226101   5.799   5.752  14.331
41402SOL     OW26102   7.614   3.590  13.465
41402SOL    HW126103   7.696   3.603  13.513
41402SOL    HW226104   7.582   3.505  13.496
41403SOL     OW26105   1.246   2.640   0.581
41403SOL    HW126106   1.280   2.551   0.575
41403SOL    HW226107   1.310   2.694   0.534
41404SOL     OW26108  13.678   7.464   9.666
41404SOL    HW126109  13.650   7.472   9.575
41404SOL    HW226110  13.720   7.378   9.671
41405SOL     OW26111   8.018   6.209   0.116
41405SOL    HW126112   8.113   6.224   0.115
41405SOL    HW226113   7.983   6.279   0.060
41406SOL     OW26114   4.636  10.047  12.030
41406SOL    HW126115   4.690   9.985  12.079
41406SOL    HW226116   4.698  10.093  11.974
41407SOL     OW26117   3.966  11.026   4.744
41407SOL    HW126118   4.044  10.975   4.764
41407SOL    HW226119   3.952  11.080   4.822
41408SOL     OW26120   2.871  11.280  11.708
41408SOL    HW126121   2.779  11.253  11.710
41408SOL    HW226122   2.875  11.356  11.766
41409SOL     OW26123  11.204   4.420   0.835
41409SOL    HW126124  11.191   4.365   0.757
41409SOL    HW226125  11.118   4.456   0.854
41410SOL     OW26126   7.168   6.904   2.355
41410SOL    HW126127   7.174   6.983   2.410
41410SOL    HW226128   7.121   6.933   2.277
41411SOL     OW26129  13.755   9.689   1.165
41411SOL    HW126130  13.747   9.629   1.240
41411SOL    HW226131  13.735   9.775   1.202
41412SOL     OW26132  14.668   5.531  10.424
41412SOL    HW126133  14.589   5.582  10.404
41412SOL    HW226134  14.737   5.597  10.434
41413SOL     OW26135  12.740   2.278  11.917
41413SOL    HW126136  12.715   2.223  11.991
41413SOL    HW226137  12.822   2.319  11.944
41414SOL     OW26138   0.318   7.752  13.620
41414SOL    HW126139   0.332   7.720  13.531
41414SOL    HW226140   0.401   7.733  13.665
41415SOL     OW26141   3.597   1.680   2.066
41415SOL    HW126142   3.663   1.614   2.088
41415SOL    HW226143   3.602   1.743   2.138
41416SOL     OW26144   4.046   2.076   2.071
41416SOL    HW126145   4.125   2.057   2.020
41416SOL    HW226146   3.978   2.089   2.006
41417SOL     OW26147  12.924   4.144   3.409
41417SOL    HW126148  12.858   4.104   3.466
41417SOL    HW226149  13.006   4.135   3.459
41418SOL     OW26150   6.080   1.496   5.646
41418SOL    HW126151   6.080   1.532   5.558
41418SOL    HW226152   6.101   1.571   5.702
41419SOL     OW26153   1.488   8.970  14.065
41419SOL    HW126154   1.425   9.040  14.086
41419SOL    HW226155   1.551   9.012  14.006
41420SOL     OW26156   7.808   1.210   7.445
41420SOL    HW126157   7.854   1.159   7.378
41420SOL    HW226158   7.852   1.295   7.444
41421SOL     OW26159   1.530  14.880  12.442
41421SOL    HW126160   1.502  14.853  12.529
41421SOL    HW226161   1.462  14.847  12.384
41422SOL     OW26162   5.282   3.320   7.211
41422SOL    HW126163   5.203   3.370   7.233
41422SOL    HW226164   5.254   3.229   7.219
41423SOL     OW26165   4.388   4.330   5.663
41423SOL    HW126166   4.449   4.404   5.669
41423SOL    HW226167   4.344   4.328   5.748
41424SOL     OW26168   9.794   6.164  14.212
41424SOL    HW126169   9.845   6.150  14.291
41424SOL    HW226170   9.715   6.208  14.241
41425SOL     OW26171  14.167   5.284  10.754
41425SOL    HW126172  14.209   5.198  10.756
41425SOL    HW226173  14.166   5.312  10.846
41426SOL     OW26174   2.954  12.405   8.527
41426SOL    HW126175   3.004  12.386   8.607
41426SOL    HW226176   2.962  12.500   8.516
41427SOL     OW26177  12.957   3.457  10.409
41427SOL    HW126178  12.948   3.378  10.461
41427SOL    HW226179  12.868   3.478  10.381
41428SOL     OW26180  10.059   2.989   8.097
41428SOL    HW126181  10.067   2.996   8.192
41428SOL    HW226182   9.966   3.002   8.079
41429SOL     OW26183   7.233   9.224   4.336
41429SOL    HW126184   7.206   9.133   4.328
41429SOL    HW226185   7.151   9.274   4.338
41430SOL     OW26186   0.267   6.299  11.023
41430SOL    HW126187   0.301   6.306  10.934
41430SOL    HW226188   0.173   6.317  11.014
41431SOL     OW26189  10.843  10.592  12.806
41431SOL    HW126190  10.865  10.676  12.847
41431SOL    HW226191  10.768  10.612  12.750
41432SOL     OW26192   2.252  12.953   8.112
41432SOL    HW126193   2.266  13.037   8.155
41432SOL    HW226194   2.335  12.906   8.122
41433SOL     OW26195  11.611   9.859  13.782
41433SOL    HW126196  11.648   9.789  13.728
41433SOL    HW226197  11.656   9.851  13.866
41434SOL     OW26198   0.633  12.337   9.322
41434SOL    HW126199   0.694  12.410   9.337
41434SOL    HW226200   0.662  12.299   9.239
41435SOL     OW26201  13.027   8.352   5.350
41435SOL    HW126202  13.026   8.448   5.345
41435SOL    HW226203  12.964   8.325   5.283
41436SOL     OW26204   1.629   9.572   5.089
41436SOL    HW126205   1.668   9.485   5.094
41436SOL    HW226206   1.551   9.567   5.143
41437SOL     OW26207  12.560   7.703   6.812
41437SOL    HW126208  12.478   7.661   6.840
41437SOL    HW226209  12.612   7.709   6.892
41438SOL     OW26210  13.123   9.802   4.144
41438SOL    HW126211  13.198   9.749   4.119
41438SOL    HW226212  13.133   9.883   4.093
41439SOL     OW26213   0.533   9.399  12.363
41439SOL    HW126214   0.555   9.353  12.444
41439SOL    HW226215   0.614   9.445  12.339
41440SOL     OW26216   8.689   5.615   4.930
41440SOL    HW126217   8.606   5.636   4.886
41440SOL    HW226218   8.664   5.591   5.019
41441SOL     OW26219  12.321   5.990   4.190
41441SOL    HW126220  12.351   5.923   4.252
41441SOL    HW226221  12.345   6.073   4.231
41442SOL     OW26222   0.265   4.626   5.367
41442SOL    HW126223   0.258   4.575   5.287
41442SOL    HW226224   0.195   4.692   5.359
41443SOL     OW26225   6.856   3.281  10.242
41443SOL    HW126226   6.913   3.358  10.245
41443SOL    HW226227   6.914   3.207  10.259
41444SOL     OW26228   5.126   0.325   2.367
41444SOL    HW126229   5.195   0.288   2.312
41444SOL    HW226230   5.143   0.288   2.454
41445SOL     OW26231  11.215  12.986  14.416
41445SOL    HW126232  11.294  13.014  14.370
41445SOL    HW226233  11.245  12.915  14.474
41446SOL     OW26234   8.304  13.341   2.671
41446SOL    HW126235   8.218  13.383   2.659
41446SOL    HW226236   8.329  13.313   2.583
41447SOL     OW26237   4.710  10.042   0.456
41447SOL    HW126238   4.805  10.040   0.446
41447SOL    HW226239   4.676  10.036   0.367
41448SOL     OW26240   4.181  13.534  11.382
41448SOL    HW126241   4.252  13.521  11.319
41448SOL    HW226242   4.102  13.535  11.328
41449SOL     OW26243   5.152  12.163   8.563
41449SOL    HW126244   5.120  12.165   8.473
41449SOL    HW226245   5.098  12.227   8.609
41450SOL     OW26246   2.611   9.852   6.583
41450SOL    HW126247   2.582   9.943   6.583
41450SOL    HW226248   2.706   9.857   6.584
41451SOL     OW26249   2.549   7.160   8.796
41451SOL    HW126250   2.626   7.107   8.775
41451SOL    HW226251   2.475   7.099   8.790
41452SOL     OW26252   1.886   4.257   4.108
41452SOL    HW126253   1.895   4.350   4.087
41452SOL    HW226254   1.917   4.211   4.030
41453SOL     OW26255   3.249   0.953   0.068
41453SOL    HW126256   3.317   0.985   0.127
41453SOL    HW226257   3.218   1.031   0.022
41454SOL     OW26258  12.027  12.811  10.867
41454SOL    HW126259  12.096  12.752  10.835
41454SOL    HW226260  12.042  12.893  10.821
41455SOL     OW26261  10.969  13.153   8.965
41455SOL    HW126262  10.920  13.145   8.884
41455SOL    HW226263  11.061  13.150   8.938
41456SOL     OW26264   1.442   4.365   9.275
41456SOL    HW126265   1.418   4.378   9.367
41456SOL    HW226266   1.538   4.359   9.276
41457SOL     OW26267  13.107   6.618   4.646
41457SOL    HW126268  13.033   6.613   4.706
41457SOL    HW226269  13.070   6.649   4.564
41458SOL     OW26270  13.950   5.149   4.231
41458SOL    HW126271  14.021   5.094   4.198
41458SOL    HW226272  13.989   5.200   4.302
41459SOL     OW26273   3.464  13.015   9.872
41459SOL    HW126274   3.539  12.955   9.867
41459SOL    HW226275   3.476  13.075   9.798
41460SOL     OW26276   8.821   9.875   9.593
41460SOL    HW126277   8.808   9.913   9.507
41460SOL    HW226278   8.791   9.784   9.583
41461SOL     OW26279   1.706   7.830  10.402
41461SOL    HW126280   1.723   7.756  10.343
41461SOL    HW226281   1.630   7.874  10.364
41462SOL     OW26282   5.886   7.978  14.570
41462SOL    HW126283   5.956   7.925  14.533
41462SOL    HW226284   5.828   7.995  14.496
41463SOL     OW26285   6.240   5.137   0.552
41463SOL    HW126286   6.301   5.079   0.506
41463SOL    HW226287   6.296   5.205   0.589
41464SOL     OW26288  11.007   3.999   6.809
41464SOL    HW126289  10.976   3.966   6.724
41464SOL    HW226290  11.102   3.993   6.803
41465SOL     OW26291   3.429   6.295  12.634
41465SOL    HW126292   3.411   6.351  12.559
41465SOL    HW226293   3.365   6.224  12.627
41466SOL     OW26294   6.986   9.315  13.722
41466SOL    HW126295   7.011   9.222  13.727
41466SOL    HW226296   6.943   9.324  13.637
41467SOL     OW26297   1.448  14.845  13.690
41467SOL    HW126298   1.413   0.005  13.769
41467SOL    HW226299   1.393  14.767  13.679
41468SOL     OW26300  10.029  14.848   7.265
41468SOL    HW126301  10.103   0.016   7.230
41468SOL    HW226302   9.972   0.031   7.306
41469SOL     OW26303   8.691   7.810  14.517
41469SOL    HW126304   8.748   7.738  14.491
41469SOL    HW226305   8.733   7.888  14.479
41470SOL     OW26306   1.892   6.096  14.660
41470SOL    HW126307   1.838   6.110  14.581
41470SOL    HW226308   1.837   6.042  14.717
41471SOL     OW26309   1.524   4.604  10.406
41471SOL    HW126310   1.515   4.512  10.383
41471SOL    HW226311   1.541   4.603  10.501
41472SOL     OW26312  14.469  12.259   9.495
41472SOL    HW126313  14.519  12.296   9.568
41472SOL    HW226314  14.523  12.277   9.418
41473SOL     OW26315   6.274   5.016   4.858
41473SOL    HW126316   6.218   4.955   4.810
41473SOL    HW226317   6.215   5.085   4.886
41474SOL     OW26318   0.771   0.889   4.887
41474SOL    HW126319   0.847   0.884   4.944
41474SOL    HW226320   0.802   0.857   4.802
41475SOL     OW26321   1.270  13.258  14.193
41475SOL    HW126322   1.350  13.231  14.149
41475SOL    HW226323   1.299  13.309  14.268
41476SOL     OW26324   8.149  11.634   6.834
41476SOL    HW126325   8.115  11.668   6.916
41476SOL    HW226326   8.224  11.689   6.813
41477SOL     OW26327   4.844   4.444  13.522
41477SOL    HW126328   4.876   4.446  13.612
41477SOL    HW226329   4.908   4.494  13.472
41478SOL     OW26330   9.431   0.885  13.801
41478SOL    HW126331   9.493   0.924  13.740
41478SOL    HW226332   9.477   0.883  13.885
41479SOL     OW26333   0.811   2.148   6.634
41479SOL    HW126334   0.738   2.204   6.609
41479SOL    HW226335   0.797   2.130   6.727
41480SOL     OW26336   3.277  13.678   7.721
41480SOL    HW126337   3.275  13.654   7.814
41480SOL    HW226338   3.333  13.611   7.681
41481SOL     OW26339  13.453   7.923  13.639
41481SOL    HW126340  13.360   7.946  13.637
41481SOL    HW226341  13.460   7.849  13.578
41482SOL     OW26342  10.554   7.396   3.739
41482SOL    HW126343  10.572   7.320   3.794
41482SOL    HW226344  10.531   7.358   3.653
41483SOL     OW26345   6.836   2.109   9.950
41483SOL    HW126346   6.790   2.046   9.894
41483SOL    HW226347   6.886   2.055  10.011
41484SOL     OW26348   4.254   4.328  14.832
41484SOL    HW126349   4.297   4.311  14.748
41484SOL    HW226350   4.246   4.423  14.836
41485SOL     OW26351   3.413   9.006   7.201
41485SOL    HW126352   3.351   8.979   7.134
41485SOL    HW226353   3.482   8.939   7.199
41486SOL     OW26354   3.412   4.300   0.803
41486SOL    HW126355   3.494   4.331   0.839
41486SOL    HW226356   3.354   4.376   0.805
41487SOL     OW26357   7.152  14.830   3.569
41487SOL    HW126358   7.156  14.736   3.587
41487SOL    HW226359   7.061  14.854   3.589
41488SOL     OW26360   4.168  12.081   7.884
41488SOL    HW126361   4.116  12.050   7.810
41488SOL    HW226362   4.150  12.018   7.954
41489SOL     OW26363  12.915  14.737   4.656
41489SOL    HW126364  12.882  14.732   4.566
41489SOL    HW226365  12.986  14.673   4.659
41490SOL     OW26366   1.359   5.715   5.809
41490SOL    HW126367   1.401   5.762   5.881
41490SOL    HW226368   1.272   5.754   5.802
41491SOL     OW26369  12.238  10.196   6.103
41491SOL    HW126370  12.171  10.260   6.078
41491SOL    HW226371  12.283  10.237   6.177
41492SOL     OW26372   3.821  10.634   8.610
41492SOL    HW126373   3.826  10.615   8.516
41492SOL    HW226374   3.766  10.564   8.645
41493SOL     OW26375  13.324  13.807   8.709
41493SOL    HW126376  13.285  13.863   8.642
41493SOL    HW226377  13.409  13.783   8.674
41494SOL     OW26378   0.007   7.357  10.766
41494SOL    HW126379  14.871   7.451  10.757
41494SOL    HW226380  14.809   7.314  10.735
41495SOL     OW26381   1.471   0.335  13.365
41495SOL    HW126382   1.400   0.365  13.306
41495SOL    HW226383   1.454   0.381  13.447
41496SOL     OW26384  11.978   2.749   4.741
41496SOL    HW126385  12.007   2.800   4.666
41496SOL    HW226386  11.982   2.809   4.815
41497SOL     OW26387   8.858   6.521   1.428
41497SOL    HW126388   8.932   6.486   1.477
41497SOL    HW226389   8.796   6.550   1.496
41498SOL     OW26390   7.602  12.653  13.792
41498SOL    HW126391   7.547  12.597  13.847
41498SOL    HW226392   7.596  12.740  13.831
41499SOL     OW26393  13.844  13.827   0.187
41499SOL    HW126394  13.784  13.890   0.226
41499SOL    HW226395  13.903  13.880   0.133
41500SOL     OW26396  14.148   4.731   3.516
41500SOL    HW126397  14.150   4.650   3.464
41500SOL    HW226398  14.144   4.701   3.607
41501SOL     OW26399   5.677   8.193  11.757
41501SOL    HW126400   5.702   8.264  11.697
41501SOL    HW226401   5.754   8.135  11.758
41502SOL     OW26402  14.024  12.940  10.687
41502SOL    HW126403  14.016  12.850  10.654
41502SOL    HW226404  14.111  12.968  10.660
41503SOL     OW26405   9.460  13.802   8.491
41503SOL    HW126406   9.494  13.868   8.429
41503SOL    HW226407   9.449  13.724   8.437
41504SOL     OW26408   6.581   0.300   5.108
41504SOL    HW126409   6.663   0.339   5.079
41504SOL    HW226410   6.534   0.280   5.027
41505SOL     OW26411   9.466   7.293   3.937
41505SOL    HW126412   9.545   7.332   3.899
41505SOL    HW226413   9.479   7.199   3.926
41506SOL     OW26414   3.488  13.367   2.654
41506SOL    HW126415   3.559  13.383   2.716
41506SOL    HW226416   3.455  13.454   2.632
41507SOL     OW26417   5.930   0.638   1.532
41507SOL    HW126418   5.940   0.591   1.449
41507SOL    HW226419   5.835   0.642   1.546
41508SOL     OW26420   9.469  13.307  12.959
41508SOL    HW126421   9.423  13.340  13.036
41508SOL    HW226422   9.460  13.212  12.964
41509SOL     OW26423   6.399  11.678  10.824
41509SOL    HW126424   6.333  11.632  10.876
41509SOL    HW226425   6.410  11.762  10.868
41510SOL     OW26426  12.223   6.565   1.960
41510SOL    HW126427  12.235   6.511   2.038
41510SOL    HW226428  12.135   6.600   1.968
41511SOL     OW26429  13.113   9.753   7.567
41511SOL    HW126430  13.161   9.670   7.578
41511SOL    HW226431  13.030   9.738   7.613
41512SOL     OW26432  11.335  13.122  11.729
41512SOL    HW126433  11.247  13.086  11.736
41512SOL    HW226434  11.344  13.147  11.637
41513SOL     OW26435   0.187   8.685  11.194
41513SOL    HW126436   0.206   8.770  11.234
41513SOL    HW226437   0.194   8.622  11.267
41514SOL     OW26438   7.664   9.719   8.300
41514SOL    HW126439   7.705   9.684   8.379
41514SOL    HW226440   7.721   9.691   8.228
41515SOL     OW26441   3.605  14.352   1.825
41515SOL    HW126442   3.697  14.332   1.841
41515SOL    HW226443   3.556  14.285   1.873
41516SOL     OW26444   0.670   9.074  12.325
41516SOL    HW126445   0.765   9.083  12.339
41516SOL    HW226446   0.656   9.102  12.235
41517SOL     OW26447   4.517   9.680  13.061
41517SOL    HW126448   4.566   9.611  13.106
41517SOL    HW226449   4.459   9.634  13.002
41518SOL     OW26450   2.693   4.253   9.469
41518SOL    HW126451   2.746   4.328   9.441
41518SOL    HW226452   2.755   4.181   9.477
41519SOL     OW26453   0.352  11.150   5.970
41519SOL    HW126454   0.390  11.180   5.887
41519SOL    HW226455   0.426  11.119   6.021
41520SOL     OW26456  10.162   2.819   4.917
41520SOL    HW126457  10.168   2.914   4.927
41520SOL    HW226458  10.133   2.806   4.827
41521SOL     OW26459  13.512  14.736  10.318
41521SOL    HW126460  13.472  14.822  10.322
41521SOL    HW226461  13.460  14.682  10.377
41522SOL     OW26462   7.049  11.542  11.877
41522SOL    HW126463   7.141  11.549  11.905
41522SOL    HW226464   6.999  11.552  11.958
41523SOL     OW26465   1.577   0.050   5.932
41523SOL    HW126466   1.570   0.141   5.961
41523SOL    HW226467   1.570  14.882   6.013
41524SOL     OW26468   6.839   1.200   0.978
41524SOL    HW126469   6.778   1.270   1.002
41524SOL    HW226470   6.919   1.246   0.951
41525SOL     OW26471   9.802  11.753   1.972
41525SOL    HW126472   9.743  11.687   2.010
41525SOL    HW226473   9.856  11.782   2.045
41526SOL     OW26474   7.462   5.848   4.536
41526SOL    HW126475   7.403   5.913   4.497
41526SOL    HW226476   7.407   5.771   4.549
41527SOL     OW26477   5.757   7.014  13.059
41527SOL    HW126478   5.750   6.941  12.997
41527SOL    HW226479   5.719   6.981  13.140
41528SOL     OW26480   7.316   4.044  13.629
41528SOL    HW126481   7.328   4.125  13.679
41528SOL    HW226482   7.395   4.036  13.577
41529SOL     OW26483  13.944   4.772  12.039
41529SOL    HW126484  13.849   4.768  12.032
41529SOL    HW226485  13.973   4.814  11.958
41530SOL     OW26486   2.872   6.162   0.383
41530SOL    HW126487   2.953   6.180   0.334
41530SOL    HW226488   2.870   6.228   0.452
41531SOL     OW26489   6.345   1.309   7.173
41531SOL    HW126490   6.418   1.249   7.190
41531SOL    HW226491   6.374   1.362   7.099
41532SOL     OW26492   0.399   3.745   0.414
41532SOL    HW126493   0.359   3.751   0.501
41532SOL    HW226494   0.431   3.834   0.396
41533SOL     OW26495   5.190   6.956   2.432
41533SOL    HW126496   5.220   6.909   2.354
41533SOL    HW226497   5.214   7.047   2.415
41534SOL     OW26498   6.494  13.740  10.967
41534SOL    HW126499   6.525  13.773  11.051
41534SOL    HW226500   6.551  13.782  10.902
41535SOL     OW26501  10.849  14.387  12.271
41535SOL    HW126502  10.891  14.329  12.334
41535SOL    HW226503  10.914  14.396  12.200
41536SOL     OW26504   0.983  11.577   0.516
41536SOL    HW126505   1.079  11.586   0.511
41536SOL    HW226506   0.950  11.662   0.489
41537SOL     OW26507   9.412   4.199   8.817
41537SOL    HW126508   9.321   4.192   8.845
41537SOL    HW226509   9.461   4.217   8.897
41538SOL     OW26510  13.642   7.628   3.010
41538SOL    HW126511  13.629   7.538   2.980
41538SOL    HW226512  13.702   7.667   2.946
41539SOL     OW26513   2.799   0.348   8.142
41539SOL    HW126514   2.839   0.355   8.055
41539SOL    HW226515   2.815   0.257   8.168
41540SOL     OW26516   9.710   0.296   0.740
41540SOL    HW126517   9.727   0.378   0.786
41540SOL    HW226518   9.706   0.229   0.809
41541SOL     OW26519   3.021   6.205  12.090
41541SOL    HW126520   2.987   6.117  12.077
41541SOL    HW226521   2.989   6.256  12.016
41542SOL     OW26522   9.748  13.731  14.365
41542SOL    HW126523   9.689  13.708  14.293
41542SOL    HW226524   9.799  13.651  14.381
41543SOL     OW26525   4.859   7.311   1.699
41543SOL    HW126526   4.827   7.393   1.661
41543SOL    HW226527   4.953   7.324   1.708
41544SOL     OW26528   2.613   5.400  11.807
41544SOL    HW126529   2.633   5.352  11.887
41544SOL    HW226530   2.614   5.332  11.739
41545SOL     OW26531   0.862  14.731   5.848
41545SOL    HW126532   0.808  14.742   5.926
41545SOL    HW226533   0.951  14.722   5.881
41546SOL     OW26534  11.212   2.050  10.016
41546SOL    HW126535  11.173   2.043   9.929
41546SOL    HW226536  11.150   2.104  10.066
41547SOL     OW26537  11.272   2.904   9.085
41547SOL    HW126538  11.346   2.894   9.144
41547SOL    HW226539  11.267   2.998   9.069
41548SOL     OW26540   4.348   0.759  14.401
41548SOL    HW126541   4.279   0.698  14.425
41548SOL    HW226542   4.303   0.842  14.386
41549SOL     OW26543  10.917  11.413   5.749
41549SOL    HW126544  10.841  11.392   5.803
41549SOL    HW226545  10.991  11.376   5.797
41550SOL     OW26546   4.859  11.291   1.661
41550SOL    HW126547   4.843  11.384   1.675
41550SOL    HW226548   4.911  11.264   1.737
41551SOL     OW26549   9.484  10.967   9.178
41551SOL    HW126550   9.425  10.903   9.217
41551SOL    HW226551   9.433  11.048   9.177
41552SOL     OW26552   7.916  11.103  10.292
41552SOL    HW126553   7.972  11.114  10.369
41552SOL    HW226554   7.973  11.064  10.226
41553SOL     OW26555  14.797   0.415   1.904
41553SOL    HW126556  14.747   0.496   1.895
41553SOL    HW226557   0.003   0.438   1.873
41554SOL     OW26558   8.359  13.732   4.688
41554SOL    HW126559   8.404  13.713   4.770
41554SOL    HW226560   8.356  13.827   4.684
41555SOL     OW26561  10.402   5.105   3.555
41555SOL    HW126562  10.339   5.084   3.486
41555SOL    HW226563  10.351   5.156   3.618
41556SOL     OW26564   5.133  12.756  14.662
41556SOL    HW126565   5.075  12.720  14.730
41556SOL    HW226566   5.106  12.847  14.653
41557SOL     OW26567   4.039   1.691  13.113
41557SOL    HW126568   3.995   1.681  13.198
41557SOL    HW226569   4.131   1.671  13.131
41558SOL     OW26570   9.271   4.534   0.114
41558SOL    HW126571   9.225   4.464   0.068
41558SOL    HW226572   9.351   4.547   0.064
41559SOL     OW26573   1.762   4.506   6.700
41559SOL    HW126574   1.748   4.472   6.789
41559SOL    HW226575   1.751   4.430   6.644
41560SOL     OW26576   1.216  14.522   4.559
41560SOL    HW126577   1.173  14.599   4.522
41560SOL    HW226578   1.177  14.511   4.645
41561SOL     OW26579   2.943   8.305   3.043
41561SOL    HW126580   2.906   8.306   3.131
41561SOL    HW226581   2.998   8.383   3.038
41562SOL     OW26582   0.733   9.025   1.781
41562SOL    HW126583   0.811   8.981   1.815
41562SOL    HW226584   0.660   8.968   1.806
41563SOL     OW26585   7.942   4.420   2.599
41563SOL    HW126586   7.999   4.456   2.531
41563SOL    HW226587   7.948   4.325   2.588
41564SOL     OW26588   4.922   2.402   2.142
41564SOL    HW126589   4.952   2.315   2.117
41564SOL    HW226590   5.000   2.458   2.133
41565SOL     OW26591   1.167   8.524  14.840
41565SOL    HW126592   1.258   8.554  14.841
41565SOL    HW226593   1.173   8.429  14.833
41566SOL     OW26594   4.771  14.471   7.806
41566SOL    HW126595   4.797  14.492   7.896
41566SOL    HW226596   4.679  14.496   7.801
41567SOL     OW26597   5.193   3.362   3.973
41567SOL    HW126598   5.133   3.425   3.932
41567SOL    HW226599   5.242   3.414   4.037
41568SOL     OW26600  11.426   6.625   8.746
41568SOL    HW126601  11.442   6.643   8.839
41568SOL    HW226602  11.492   6.560   8.723
41569SOL     OW26603   6.121   3.508   6.283
41569SOL    HW126604   6.034   3.469   6.282
41569SOL    HW226605   6.111   3.587   6.338
41570SOL     OW26606  11.920   5.677   4.279
41570SOL    HW126607  11.999   5.719   4.246
41570SOL    HW226608  11.857   5.748   4.288
41571SOL     OW26609   4.153   8.001   9.794
41571SOL    HW126610   4.152   7.994   9.890
41571SOL    HW226611   4.213   7.932   9.766
41572SOL     OW26612  11.481  13.118   9.340
41572SOL    HW126613  11.411  13.057   9.317
41572SOL    HW226614  11.465  13.194   9.284
41573SOL     OW26615   8.949   6.858   7.018
41573SOL    HW126616   8.989   6.772   7.011
41573SOL    HW226617   9.017   6.919   6.989
41574SOL     OW26618   8.554  12.865   0.345
41574SOL    HW126619   8.550  12.878   0.440
41574SOL    HW226620   8.483  12.918   0.310
41575SOL     OW26621  11.593   9.600   0.961
41575SOL    HW126622  11.553   9.628   1.043
41575SOL    HW226623  11.657   9.668   0.940
41576SOL     OW26624   5.649   4.950  10.688
41576SOL    HW126625   5.682   5.028  10.643
41576SOL    HW226626   5.578   4.918  10.633
41577SOL     OW26627  12.518  11.002   9.427
41577SOL    HW126628  12.515  11.038   9.516
41577SOL    HW226629  12.484  11.073   9.372
41578SOL     OW26630   8.148   0.088  13.945
41578SOL    HW126631   8.219   0.150  13.961
41578SOL    HW226632   8.084   0.138  13.894
41579SOL     OW26633   1.082   3.010   7.126
41579SOL    HW126634   1.017   2.990   7.193
41579SOL    HW226635   1.083   3.106   7.122
41580SOL     OW26636  13.953   3.801  13.644
41580SOL    HW126637  13.977   3.713  13.614
41580SOL    HW226638  13.860   3.809  13.623
41581SOL     OW26639  12.596   3.391  11.071
41581SOL    HW126640  12.668   3.344  11.113
41581SOL    HW226641  12.631   3.478  11.052
41582SOL     OW26642  10.050  10.672   7.377
41582SOL    HW126643  10.103  10.747   7.404
41582SOL    HW226644   9.990  10.708   7.311
41583SOL     OW26645  12.031   6.210  14.110
41583SOL    HW126646  12.034   6.281  14.045
41583SOL    HW226647  11.942   6.175  14.102
41584SOL     OW26648   1.419   4.158  14.106
41584SOL    HW126649   1.460   4.118  14.029
41584SOL    HW226650   1.493   4.185  14.161
41585SOL     OW26651  12.864  14.369   7.587
41585SOL    HW126652  12.824  14.293   7.544
41585SOL    HW226653  12.790  14.423   7.613
41586SOL     OW26654   5.673   0.580   5.270
41586SOL    HW126655   5.735   0.513   5.238
41586SOL    HW226656   5.660   0.558   5.362
41587SOL     OW26657   6.744  11.060  14.841
41587SOL    HW126658   6.697  11.141  14.822
41587SOL    HW226659   6.821  11.064  14.785
41588SOL     OW26660  12.447  13.050   1.612
41588SOL    HW126661  12.412  13.135   1.636
41588SOL    HW226662  12.512  13.031   1.679
41589SOL     OW26663  12.412   1.464  14.631
41589SOL    HW126664  12.382   1.508  14.711
41589SOL    HW226665  12.338   1.409  14.605
41590SOL     OW26666   1.916   8.943   5.973
41590SOL    HW126667   1.941   8.851   5.963
41590SOL    HW226668   1.971   8.975   6.044
41591SOL     OW26669   7.743  14.523  11.453
41591SOL    HW126670   7.837  14.503  11.451
41591SOL    HW226671   7.739  14.618  11.439
41592SOL     OW26672  14.489   6.548  11.988
41592SOL    HW126673  14.454   6.464  12.018
41592SOL    HW226674  14.413   6.599  11.963
41593SOL     OW26675   5.887  14.261   8.798
41593SOL    HW126676   5.831  14.315   8.853
41593SOL    HW226677   5.925  14.197   8.859
41594SOL     OW26678   2.428  13.984   0.018
41594SOL    HW126679   2.520  13.986   0.045
41594SOL    HW226680   2.381  13.955   0.095
41595SOL     OW26681  11.740   9.737  14.337
41595SOL    HW126682  11.754   9.820  14.291
41595SOL    HW226683  11.650   9.742  14.369
41596SOL     OW26684  13.770   5.770  11.980
41596SOL    HW126685  13.843   5.713  11.955
41596SOL    HW226686  13.697   5.741  11.924
41597SOL     OW26687   9.237  13.398   1.855
41597SOL    HW126688   9.212  13.332   1.919
41597SOL    HW226689   9.209  13.361   1.771
41598SOL     OW26690  13.841  12.476   3.330
41598SOL    HW126691  13.749  12.470   3.354
41598SOL    HW226692  13.874  12.386   3.337
41599SOL     OW26693   7.922   7.029   2.018
41599SOL    HW126694   7.881   6.955   1.973
41599SOL    HW226695   7.851   7.068   2.069
41600SOL     OW26696  11.443   3.922   9.898
41600SOL    HW126697  11.372   3.937   9.836
41600SOL    HW226698  11.399   3.897   9.979
41601SOL     OW26699  14.314  13.680  12.824
41601SOL    HW126700  14.253  13.640  12.886
41601SOL    HW226701  14.263  13.687  12.743
41602SOL     OW26702   3.165   5.247  10.755
41602SOL    HW126703   3.147   5.295  10.674
41602SOL    HW226704   3.260   5.236  10.757
41603SOL     OW26705  10.015   6.304   6.933
41603SOL    HW126706   9.988   6.338   7.018
41603SOL    HW226707  10.111   6.297   6.939
41604SOL     OW26708  14.195   5.187   1.693
41604SOL    HW126709  14.222   5.097   1.711
41604SOL    HW226710  14.251   5.215   1.620
41605SOL     OW26711  12.809   1.088  13.066
41605SOL    HW126712  12.856   1.137  13.133
41605SOL    HW226713  12.759   1.153  13.017
41606SOL     OW26714  13.294   2.535  14.476
41606SOL    HW126715  13.384   2.542  14.506
41606SOL    HW226716  13.289   2.450  14.433
41607SOL     OW26717  11.458  14.568   5.650
41607SOL    HW126718  11.478  14.587   5.742
41607SOL    HW226719  11.448  14.654   5.609
41608SOL     OW26720   4.244   7.126   1.191
41608SOL    HW126721   4.164   7.088   1.154
41608SOL    HW226722   4.313   7.064   1.167
41609SOL     OW26723  12.667   2.637   0.226
41609SOL    HW126724  12.694   2.642   0.317
41609SOL    HW226725  12.671   2.728   0.195
41610SOL     OW26726   9.247   3.901   2.951
41610SOL    HW126727   9.232   3.977   3.007
41610SOL    HW226728   9.271   3.831   3.011
41611SOL     OW26729   2.371   0.772  12.152
41611SOL    HW126730   2.278   0.791  12.141
41611SOL    HW226731   2.399   0.737  12.068
41612SOL     OW26732   1.368  10.712   2.218
41612SOL    HW126733   1.389  10.805   2.207
41612SOL    HW226734   1.295  10.710   2.280
41613SOL     OW26735   9.770   4.390   8.732
41613SOL    HW126736   9.833   4.430   8.672
41613SOL    HW226737   9.688   4.388   8.683
41614SOL     OW26738   2.448   2.952   8.645
41614SOL    HW126739   2.506   2.878   8.626
41614SOL    HW226740   2.448   2.958   8.740
41615SOL     OW26741  10.964   9.801  10.124
41615SOL    HW126742  10.962   9.839  10.211
41615SOL    HW226743  11.025   9.727  10.131
41616SOL     OW26744  10.982  13.594   8.377
41616SOL    HW126745  10.910  13.657   8.377
41616SOL    HW226746  11.032  13.616   8.298
41617SOL     OW26747   1.488  10.758  13.072
41617SOL    HW126748   1.468  10.849  13.053
41617SOL    HW226749   1.509  10.756  13.165
41618SOL     OW26750   8.643   0.189   8.408
41618SOL    HW126751   8.687   0.183   8.324
41618SOL    HW226752   8.553   0.161   8.391
41619SOL     OW26753  10.190   1.574  14.281
41619SOL    HW126754  10.166   1.667  14.279
41619SOL    HW226755  10.246   1.565  14.358
41620SOL     OW26756   2.313  11.447   0.528
41620SOL    HW126757   2.366  11.476   0.602
41620SOL    HW226758   2.343  11.358   0.511
41621SOL     OW26759  10.129  14.060  14.753
41621SOL    HW126760  10.189  14.018  14.691
41621SOL    HW226761  10.119  13.995  14.823
41622SOL     OW26762   7.350   2.129  14.796
41622SOL    HW126763   7.368   2.121  14.702
41622SOL    HW226764   7.424   2.086  14.838
41623SOL     OW26765  12.456   6.562   3.720
41623SOL    HW126766  12.495   6.478   3.698
41623SOL    HW226767  12.401   6.584   3.645
41624SOL     OW26768  13.624   8.446   1.147
41624SOL    HW126769  13.710   8.407   1.162
41624SOL    HW226770  13.567   8.404   1.212
41625SOL     OW26771   2.503   3.586   8.285
41625SOL    HW126772   2.506   3.508   8.341
41625SOL    HW226773   2.539   3.656   8.340
41626SOL     OW26774   4.636  11.195   9.487
41626SOL    HW126775   4.729  11.174   9.495
41626SOL    HW226776   4.595  11.114   9.457
41627SOL     OW26777   0.820   0.514  12.183
41627SOL    HW126778   0.905   0.483  12.152
41627SOL    HW226779   0.793   0.449  12.248
41628SOL     OW26780   2.021   4.289   0.381
41628SOL    HW126781   1.969   4.299   0.461
41628SOL    HW226782   2.079   4.216   0.399
41629SOL     OW26783   1.692   6.501   4.510
41629SOL    HW126784   1.712   6.408   4.515
41629SOL    HW226785   1.636   6.510   4.433
41630SOL     OW26786   0.104  10.459  10.552
41630SOL    HW126787   0.037  10.445  10.619
41630SOL    HW226788   0.063  10.520  10.490
41631SOL     OW26789  13.385   2.164  11.275
41631SOL    HW126790  13.344   2.246  11.302
41631SOL    HW226791  13.474   2.189  11.249
41632SOL     OW26792   0.601  13.862   8.708
41632SOL    HW126793   0.651  13.943   8.719
41632SOL    HW226794   0.641  13.818   8.633
41633SOL     OW26795   7.636   0.833   7.686
41633SOL    HW126796   7.560   0.865   7.638
41633SOL    HW226797   7.667   0.909   7.735
41634SOL     OW26798   2.068  13.894  10.978
41634SOL    HW126799   2.037  13.804  10.967
41634SOL    HW226800   2.075  13.928  10.888
41635SOL     OW26801   6.019  14.526   1.848
41635SOL    HW126802   6.012  14.445   1.899
41635SOL    HW226803   5.994  14.500   1.759
41636SOL     OW26804   1.451   5.465   1.400
41636SOL    HW126805   1.492   5.512   1.327
41636SOL    HW226806   1.526   5.432   1.450
41637SOL     OW26807   4.752  13.281   4.671
41637SOL    HW126808   4.798  13.301   4.589
41637SOL    HW226809   4.663  13.314   4.657
41638SOL     OW26810   1.454   8.792   5.780
41638SOL    HW126811   1.510   8.781   5.856
41638SOL    HW226812   1.413   8.877   5.792
41639SOL     OW26813  12.590  10.548   5.735
41639SOL    HW126814  12.640  10.608   5.680
41639SOL    HW226815  12.650  10.524   5.806
41640SOL     OW26816   9.582   8.523  12.053
41640SOL    HW126817   9.532   8.604  12.062
41640SOL    HW226818   9.579   8.483  12.140
41641SOL     OW26819  11.540   6.315   0.852
41641SOL    HW126820  11.611   6.328   0.790
41641SOL    HW226821  11.515   6.403   0.880
41642SOL     OW26822   2.394   3.554   5.506
41642SOL    HW126823   2.334   3.628   5.500
41642SOL    HW226824   2.378   3.516   5.592
41643SOL     OW26825   6.937   1.907  12.339
41643SOL    HW126826   6.946   2.001  12.357
41643SOL    HW226827   6.843   1.894  12.330
41644SOL     OW26828  13.597   7.757   1.981
41644SOL    HW126829  13.527   7.708   2.024
41644SOL    HW226830  13.552   7.817   1.921
41645SOL     OW26831   3.735  13.595   3.541
41645SOL    HW126832   3.685  13.637   3.611
41645SOL    HW226833   3.676  13.527   3.508
41646SOL     OW26834   8.243   4.558  13.999
41646SOL    HW126835   8.326   4.544  14.046
41646SOL    HW226836   8.262   4.628  13.937
41647SOL     OW26837   4.446   5.728   8.017
41647SOL    HW126838   4.389   5.654   7.996
41647SOL    HW226839   4.452   5.728   8.112
41648SOL     OW26840   1.696  14.410   1.445
41648SOL    HW126841   1.700  14.481   1.381
41648SOL    HW226842   1.717  14.451   1.529
41649SOL     OW26843   4.856  11.970   5.477
41649SOL    HW126844   4.794  11.993   5.408
41649SOL    HW226845   4.867  11.875   5.469
41650SOL     OW26846   8.631  10.840   5.338
41650SOL    HW126847   8.666  10.790   5.412
41650SOL    HW226848   8.689  10.916   5.331
41651SOL     OW26849   4.691   0.759   2.851
41651SOL    HW126850   4.723   0.691   2.910
41651SOL    HW226851   4.682   0.715   2.766
41652SOL     OW26852   1.390   0.348   4.848
41652SOL    HW126853   1.377   0.272   4.905
41652SOL    HW226854   1.343   0.419   4.892
41653SOL     OW26855   4.339  14.636   9.200
41653SOL    HW126856   4.427  14.598   9.193
41653SOL    HW226857   4.329  14.654   9.294
41654SOL     OW26858  11.743   4.880  13.353
41654SOL    HW126859  11.692   4.802  13.328
41654SOL    HW226860  11.781   4.911  13.271
41655SOL     OW26861   6.856   7.659   1.424
41655SOL    HW126862   6.929   7.721   1.417
41655SOL    HW226863   6.830   7.663   1.516
41656SOL     OW26864   1.506   4.015  12.786
41656SOL    HW126865   1.584   3.964  12.764
41656SOL    HW226866   1.489   4.069  12.708
41657SOL     OW26867  13.135   5.253   7.504
41657SOL    HW126868  13.193   5.249   7.427
41657SOL    HW226869  13.072   5.322   7.482
41658SOL     OW26870   9.656   1.733  11.404
41658SOL    HW126871   9.606   1.660  11.368
41658SOL    HW226872   9.716   1.691  11.467
41659SOL     OW26873   3.179  14.738   6.406
41659SOL    HW126874   3.158  14.776   6.492
41659SOL    HW226875   3.124  14.660   6.400
41660SOL     OW26876  12.070   7.757   0.594
41660SOL    HW126877  12.129   7.681   0.598
41660SOL    HW226878  12.116   7.825   0.643
41661SOL     OW26879   4.429  14.402  12.166
41661SOL    HW126880   4.336  14.403  12.143
41661SOL    HW226881   4.430  14.378  12.259
41662SOL     OW26882   2.430   8.654   6.861
41662SOL    HW126883   2.488   8.578   6.852
41662SOL    HW226884   2.461   8.698   6.940
41663SOL     OW26885  13.516  11.534   5.335
41663SOL    HW126886  13.530  11.625   5.309
41663SOL    HW226887  13.560  11.483   5.267
41664SOL     OW26888   6.389   9.860   0.323
41664SOL    HW126889   6.482   9.883   0.331
41664SOL    HW226890   6.379   9.783   0.379
41665SOL     OW26891   8.359   6.126   6.057
41665SOL    HW126892   8.432   6.137   6.119
41665SOL    HW226893   8.333   6.034   6.067
41666SOL     OW26894  11.623   0.002   3.879
41666SOL    HW126895  11.575  14.867   3.961
41666SOL    HW226896  11.668   0.085   3.895
41667SOL     OW26897   9.784   5.244  13.452
41667SOL    HW126898   9.857   5.226  13.392
41667SOL    HW226899   9.746   5.158  13.470
41668SOL     OW26900   3.039  12.070   0.510
41668SOL    HW126901   3.103  12.135   0.538
41668SOL    HW226902   3.091  11.993   0.487
41669SOL     OW26903   1.074   8.584   4.721
41669SOL    HW126904   1.071   8.565   4.815
41669SOL    HW226905   1.111   8.673   4.717
41670SOL     OW26906   4.040   3.520  11.174
41670SOL    HW126907   4.016   3.445  11.228
41670SOL    HW226908   4.005   3.596  11.221
41671SOL     OW26909  13.115   4.610  13.638
41671SOL    HW126910  13.078   4.648  13.718
41671SOL    HW226911  13.183   4.550  13.670
41672SOL     OW26912   0.912  11.673   4.892
41672SOL    HW126913   0.916  11.591   4.842
41672SOL    HW226914   0.996  11.678   4.936
41673SOL     OW26915  12.232   8.486   5.701
41673SOL    HW126916  12.224   8.533   5.784
41673SOL    HW226917  12.150   8.506   5.655
41674SOL     OW26918   5.873   5.700   1.360
41674SOL    HW126919   5.860   5.749   1.278
41674SOL    HW226920   5.966   5.677   1.360
41675SOL     OW26921   1.843   2.748   1.592
41675SOL    HW126922   1.806   2.774   1.508
41675SOL    HW226923   1.769   2.744   1.651
41676SOL     OW26924   7.742   8.074   7.523
41676SOL    HW126925   7.771   7.984   7.507
41676SOL    HW226926   7.797   8.105   7.594
41677SOL     OW26927   3.277  13.241   3.983
41677SOL    HW126928   3.353  13.185   3.966
41677SOL    HW226929   3.268  13.241   4.079
41678SOL     OW26930  12.127   5.155   5.709
41678SOL    HW126931  12.169   5.130   5.791
41678SOL    HW226932  12.083   5.238   5.729
41679SOL     OW26933   1.436  14.505   6.318
41679SOL    HW126934   1.365  14.495   6.255
41679SOL    HW226935   1.501  14.439   6.292
41680SOL     OW26936   0.020   0.408  12.919
41680SOL    HW126937   0.028   0.470  12.847
41680SOL    HW226938   0.044   0.323  12.881
41681SOL     OW26939  13.221   4.823  14.649
41681SOL    HW126940  13.149   4.762  14.635
41681SOL    HW226941  13.226   4.833  14.744
41682SOL     OW26942  12.955   1.172   2.946
41682SOL    HW126943  12.957   1.226   3.025
41682SOL    HW226944  12.934   1.084   2.977
41683SOL     OW26945   5.393   4.097   3.999
41683SOL    HW126946   5.389   4.192   3.992
41683SOL    HW226947   5.331   4.065   3.933
41684SOL     OW26948   3.548   1.005  14.440
41684SOL    HW126949   3.571   0.973  14.527
41684SOL    HW226950   3.453   1.017  14.444
41685SOL     OW26951   8.681   8.837   3.444
41685SOL    HW126952   8.668   8.757   3.495
41685SOL    HW226953   8.632   8.822   3.363
41686SOL     OW26954   4.950   0.988   0.046
41686SOL    HW126955   5.033   1.033   0.062
41686SOL    HW226956   4.974   0.895   0.040
41687SOL     OW26957   3.242  14.190   9.899
41687SOL    HW126958   3.303  14.117   9.888
41687SOL    HW226959   3.188  14.167   9.975
41688SOL     OW26960  13.822  13.595  11.197
41688SOL    HW126961  13.809  13.507  11.230
41688SOL    HW226962  13.790  13.652  11.267
41689SOL     OW26963   9.617   9.200   4.747
41689SOL    HW126964   9.565   9.203   4.827
41689SOL    HW226965   9.562   9.244   4.682
41690SOL     OW26966   0.242   8.231  14.051
41690SOL    HW126967   0.268   8.321  14.035
41690SOL    HW226968   0.247   8.221  14.146
41691SOL     OW26969  10.626   0.776  10.658
41691SOL    HW126970  10.719   0.788  10.640
41691SOL    HW226971  10.582   0.837  10.597
41692SOL     OW26972   1.702  13.824  14.294
41692SOL    HW126973   1.649  13.745  14.287
41692SOL    HW226974   1.740  13.820  14.382
41693SOL     OW26975   7.935   5.598   6.656
41693SOL    HW126976   7.963   5.600   6.564
41693SOL    HW226977   7.903   5.509   6.669
41694SOL     OW26978   9.679   5.509  11.718
41694SOL    HW126979   9.604   5.525  11.775
41694SOL    HW226980   9.687   5.414  11.714
41695SOL     OW26981   9.315  13.343  14.685
41695SOL    HW126982   9.395  13.291  14.678
41695SOL    HW226983   9.331  13.420  14.629
41696SOL     OW26984   8.990   6.016   9.177
41696SOL    HW126985   8.931   6.057   9.114
41696SOL    HW226986   9.026   6.090   9.227
41697SOL     OW26987   1.038  13.053  11.286
41697SOL    HW126988   1.032  12.962  11.256
41697SOL    HW226989   1.122  13.059  11.331
41698SOL     OW26990   7.809   8.563   1.144
41698SOL    HW126991   7.802   8.470   1.122
41698SOL    HW226992   7.829   8.606   1.061
41699SOL     OW26993  12.525   5.414  11.164
41699SOL    HW126994  12.559   5.372  11.085
41699SOL    HW226995  12.596   5.471  11.193
41700SOL     OW26996   5.882  11.575   5.215
41700SOL    HW126997   5.935  11.517   5.270
41700SOL    HW226998   5.898  11.663   5.250
41701SOL     OW26999  12.578  13.965  13.900
41701SOL    HW127000  12.488  13.948  13.927
41701SOL    HW227001  12.576  14.051  13.858
41702SOL     OW27002   6.866  12.286   4.959
41702SOL    HW127003   6.909  12.201   4.961
41702SOL    HW227004   6.939  12.349   4.954
41703SOL     OW27005  14.014  12.552   4.346
41703SOL    HW127006  14.107  12.544   4.367
41703SOL    HW227007  14.012  12.571   4.252
41704SOL     OW27008   2.708   2.627   0.546
41704SOL    HW127009   2.762   2.622   0.625
41704SOL    HW227010   2.629   2.674   0.575
41705SOL     OW27011   6.950  10.617   5.012
41705SOL    HW127012   6.931  10.570   4.931
41705SOL    HW227013   6.966  10.707   4.984
41706SOL     OW27014   8.907   3.625   8.986
41706SOL    HW127015   8.996   3.590   8.984
41706SOL    HW227016   8.855   3.553   9.021
41707SOL     OW27017   5.423  10.690   4.261
41707SOL    HW127018   5.403  10.735   4.178
41707SOL    HW227019   5.479  10.752   4.308
41708SOL     OW27020   8.225   3.609  12.967
41708SOL    HW127021   8.288   3.639  13.032
41708SOL    HW227022   8.268   3.624  12.882
41709SOL     OW27023   1.317  13.900   0.036
41709SOL    HW127024   1.410  13.920   0.024
41709SOL    HW227025   1.306  13.895   0.131
41710SOL     OW27026   6.193  10.301  11.952
41710SOL    HW127027   6.186  10.392  11.924
41710SOL    HW227028   6.282  10.294  11.986
41711SOL     OW27029  12.016  11.585   9.479
41711SOL    HW127030  12.086  11.588   9.414
41711SOL    HW227031  11.939  11.620   9.433
41712SOL     OW27032   1.535   0.916   0.204
41712SOL    HW127033   1.485   0.909   0.285
41712SOL    HW227034   1.614   0.964   0.229
41713SOL     OW27035  11.051   6.243   8.694
41713SOL    HW127036  11.038   6.153   8.723
41713SOL    HW227037  10.963   6.277   8.680
41714SOL     OW27038  10.473  11.111   4.321
41714SOL    HW127039  10.433  11.184   4.274
41714SOL    HW227040  10.488  11.044   4.254
41715SOL     OW27041  10.213   1.537   7.821
41715SOL    HW127042  10.234   1.462   7.878
41715SOL    HW227043  10.239   1.613   7.872
41716SOL     OW27044  11.802   1.371  11.465
41716SOL    HW127045  11.718   1.364  11.510
41716SOL    HW227046  11.850   1.438  11.513
41717SOL     OW27047   6.351   3.646   7.105
41717SOL    HW127048   6.282   3.586   7.133
41717SOL    HW227049   6.431   3.593   7.109
41718SOL     OW27050   8.588   2.434  13.113
41718SOL    HW127051   8.623   2.464  13.197
41718SOL    HW227052   8.493   2.434  13.126
41719SOL     OW27053   3.939   9.963  11.861
41719SOL    HW127054   3.865  10.001  11.908
41719SOL    HW227055   3.900   9.930  11.780
41720SOL     OW27056  14.703  12.289  11.676
41720SOL    HW127057  14.645  12.349  11.629
41720SOL    HW227058  14.643  12.229  11.721
41721SOL     OW27059   3.497   5.943  12.477
41721SOL    HW127060   3.547   5.917  12.400
41721SOL    HW227061   3.549   5.914  12.551
41722SOL     OW27062   5.318  10.556   0.780
41722SOL    HW127063   5.357  10.563   0.692
41722SOL    HW227064   5.370  10.488   0.823
41723SOL     OW27065   2.136   3.994   6.482
41723SOL    HW127066   2.164   3.922   6.426
41723SOL    HW227067   2.042   3.980   6.494
41724SOL     OW27068   5.514   5.045  13.340
41724SOL    HW127069   5.588   5.007  13.292
41724SOL    HW227070   5.550   5.065  13.427
41725SOL     OW27071  12.030   0.796   8.706
41725SOL    HW127072  12.043   0.886   8.736
41725SOL    HW227073  12.002   0.805   8.615
41726SOL     OW27074  10.564  11.447   8.995
41726SOL    HW127075  10.623  11.514   9.031
41726SOL    HW227076  10.505  11.496   8.938
41727SOL     OW27077   2.665  12.283   4.819
41727SOL    HW127078   2.726  12.301   4.890
41727SOL    HW227079   2.580  12.274   4.861
41728SOL     OW27080   0.012   4.207  12.474
41728SOL    HW127081   0.068   4.154  12.532
41728SOL    HW227082  14.851   4.269  12.533
41729SOL     OW27083   3.909   6.921  12.685
41729SOL    HW127084   3.826   6.945  12.644
41729SOL    HW227085   3.884   6.871  12.763
41730SOL     OW27086  10.477   3.576  11.673
41730SOL    HW127087  10.465   3.530  11.756
41730SOL    HW227088  10.481   3.507  11.607
41731SOL     OW27089   9.876   6.546   3.715
41731SOL    HW127090   9.908   6.597   3.640
41731SOL    HW227091   9.806   6.600   3.752
41732SOL     OW27092   9.182   0.093   9.940
41732SOL    HW127093   9.139   0.164   9.893
41732SOL    HW227094   9.177   0.018   9.880
41733SOL     OW27095   6.657  14.795  10.646
41733SOL    HW127096   6.573  14.829  10.678
41733SOL    HW227097   6.701  14.871  10.609
41734SOL     OW27098  14.600   6.002  14.255
41734SOL    HW127099  14.616   5.932  14.318
41734SOL    HW227100  14.522   5.974  14.207
41735SOL     OW27101   5.778  10.449   0.042
41735SOL    HW127102   5.870  10.422   0.047
41735SOL    HW227103   5.729  10.373   0.074
41736SOL     OW27104   3.292   1.769   6.575
41736SOL    HW127105   3.303   1.674   6.563
41736SOL    HW227106   3.269   1.779   6.667
41737SOL     OW27107   9.311   4.728  11.207
41737SOL    HW127108   9.322   4.681  11.125
41737SOL    HW227109   9.216   4.741  11.215
41738SOL     OW27110   5.849   6.174  10.743
41738SOL    HW127111   5.817   6.084  10.741
41738SOL    HW227112   5.828   6.209  10.656
41739SOL     OW27113   3.815   6.906   9.267
41739SOL    HW127114   3.804   6.838   9.333
41739SOL    HW227115   3.750   6.973   9.289
41740SOL     OW27116   8.296   6.532   0.161
41740SOL    HW127117   8.242   6.609   0.142
41740SOL    HW227118   8.375   6.545   0.109
41741SOL     OW27119  12.263  10.816   9.547
41741SOL    HW127120  12.351  10.812   9.586
41741SOL    HW227121  12.220  10.889   9.592
41742SOL     OW27122  14.531   8.871   9.807
41742SOL    HW127123  14.446   8.869   9.763
41742SOL    HW227124  14.592   8.831   9.744
41743SOL     OW27125   4.244   3.465   1.326
41743SOL    HW127126   4.265   3.554   1.297
41743SOL    HW227127   4.155   3.472   1.360
41744SOL     OW27128  10.240   2.851  10.319
41744SOL    HW127129  10.198   2.866  10.404
41744SOL    HW227130  10.285   2.767  10.330
41745SOL     OW27131  10.621   7.621   6.554
41745SOL    HW127132  10.645   7.660   6.470
41745SOL    HW227133  10.704   7.606   6.599
41746SOL     OW27134   0.590   7.799   2.964
41746SOL    HW127135   0.670   7.754   2.936
41746SOL    HW227136   0.602   7.811   3.059
41747SOL     OW27137   8.941  10.725   1.680
41747SOL    HW127138   8.875  10.794   1.684
41747SOL    HW227139   8.954  10.708   1.587
41748SOL     OW27140  13.470  12.252  12.359
41748SOL    HW127141  13.409  12.317  12.395
41748SOL    HW227142  13.555  12.275  12.396
41749SOL     OW27143   7.403   1.520   1.712
41749SOL    HW127144   7.377   1.594   1.657
41749SOL    HW227145   7.342   1.450   1.688
41750SOL     OW27146   5.079   4.259   4.215
41750SOL    HW127147   5.167   4.225   4.231
41750SOL    HW227148   5.069   4.255   4.120
41751SOL     OW27149  11.136  13.781  11.648
41751SOL    HW127150  11.051  13.759  11.685
41751SOL    HW227151  11.137  13.877  11.648
41752SOL     OW27152   3.386   7.640   4.969
41752SOL    HW127153   3.402   7.734   4.960
41752SOL    HW227154   3.293   7.630   4.947
41753SOL     OW27155  11.327  12.299   0.759
41753SOL    HW127156  11.333  12.382   0.806
41753SOL    HW227157  11.354  12.233   0.823
41754SOL     OW27158   5.637  12.103   8.001
41754SOL    HW127159   5.604  12.048   8.072
41754SOL    HW227160   5.568  12.101   7.935
41755SOL     OW27161   5.586  13.345  12.963
41755SOL    HW127162   5.542  13.328  13.047
41755SOL    HW227163   5.677  13.361  12.986
41756SOL     OW27164  12.941   3.134   6.157
41756SOL    HW127165  13.025   3.160   6.196
41756SOL    HW227166  12.877   3.191   6.198
41757SOL     OW27167  13.689   8.176  11.613
41757SOL    HW127168  13.617   8.115  11.620
41757SOL    HW227169  13.653   8.260  11.641
41758SOL     OW27170   1.623   2.021   0.753
41758SOL    HW127171   1.571   1.967   0.813
41758SOL    HW227172   1.713   2.008   0.783
41759SOL     OW27173  10.096   6.470  10.484
41759SOL    HW127174  10.191   6.480  10.490
41759SOL    HW227175  10.079   6.379  10.508
41760SOL     OW27176   9.247   0.807  11.224
41760SOL    HW127177   9.309   0.743  11.259
41760SOL    HW227178   9.189   0.757  11.167
41761SOL     OW27179  11.331   2.808  13.929
41761SOL    HW127180  11.277   2.805  14.008
41761SOL    HW227181  11.314   2.725  13.885
41762SOL     OW27182  13.072   0.602   7.100
41762SOL    HW127183  13.042   0.516   7.129
41762SOL    HW227184  13.150   0.619   7.154
41763SOL     OW27185   7.602   5.260  10.745
41763SOL    HW127186   7.644   5.179  10.714
41763SOL    HW227187   7.664   5.329  10.723
41764SOL     OW27188  13.121   0.809  14.783
41764SOL    HW127189  13.208   0.774  14.763
41764SOL    HW227190  13.093   0.761  14.861
41765SOL     OW27191   5.256   8.278   2.177
41765SOL    HW127192   5.201   8.207   2.143
41765SOL    HW227193   5.197   8.353   2.185
41766SOL     OW27194   6.819   5.638   6.524
41766SOL    HW127195   6.761   5.698   6.476
41766SOL    HW227196   6.906   5.676   6.511
41767SOL     OW27197  12.774   4.556   5.721
41767SOL    HW127198  12.768   4.651   5.730
41767SOL    HW227199  12.849   4.532   5.775
41768SOL     OW27200  14.168   4.885   4.992
41768SOL    HW127201  14.094   4.942   4.973
41768SOL    HW227202  14.217   4.931   5.060
41769SOL     OW27203   8.754   7.753   4.977
41769SOL    HW127204   8.748   7.709   4.892
41769SOL    HW227205   8.803   7.834   4.959
41770SOL     OW27206   2.146   3.680  12.872
41770SOL    HW127207   2.192   3.653  12.793
41770SOL    HW227208   2.216   3.707  12.932
41771SOL     OW27209   5.923   6.481   8.936
41771SOL    HW127210   5.924   6.519   8.848
41771SOL    HW227211   5.831   6.476   8.959
41772SOL     OW27212   0.623   6.536   4.981
41772SOL    HW127213   0.612   6.466   4.917
41772SOL    HW227214   0.716   6.559   4.976
41773SOL     OW27215   7.905  14.667   5.426
41773SOL    HW127216   7.915  14.608   5.351
41773SOL    HW227217   7.880  14.610   5.499
41774SOL     OW27218   4.992   0.973  13.702
41774SOL    HW127219   5.033   0.897  13.661
41774SOL    HW227220   5.064   1.018  13.747
41775SOL     OW27221   5.967  14.295   5.823
41775SOL    HW127222   6.036  14.325   5.882
41775SOL    HW227223   6.013  14.243   5.757
41776SOL     OW27224  12.946   9.343  14.015
41776SOL    HW127225  12.865   9.298  13.993
41776SOL    HW227226  12.936   9.431  13.978
41777SOL     OW27227  13.915   7.267   4.342
41777SOL    HW127228  13.838   7.313   4.376
41777SOL    HW227229  13.942   7.319   4.266
41778SOL     OW27230   4.395   0.728   8.345
41778SOL    HW127231   4.453   0.658   8.376
41778SOL    HW227232   4.368   0.774   8.424
41779SOL     OW27233  10.235  14.579   8.976
41779SOL    HW127234  10.227  14.668   9.012
41779SOL    HW227235  10.161  14.571   8.917
41780SOL     OW27236   4.342   0.757  10.391
41780SOL    HW127237   4.319   0.836  10.343
41780SOL    HW227238   4.319   0.776  10.482
41781SOL     OW27239  14.844   6.263  10.269
41781SOL    HW127240   0.020   6.213  10.325
41781SOL    HW227241  14.776   6.297  10.327
41782SOL     OW27242  13.671   5.074  12.315
41782SOL    HW127243  13.754   5.116  12.294
41782SOL    HW227244  13.616   5.145  12.348
41783SOL     OW27245   2.192   1.717   2.358
41783SOL    HW127246   2.257   1.646   2.357
41783SOL    HW227247   2.172   1.729   2.451
41784SOL     OW27248   7.030   0.405   8.174
41784SOL    HW127249   7.013   0.368   8.260
41784SOL    HW227250   7.047   0.329   8.118
41785SOL     OW27251   1.131   0.521  14.451
41785SOL    HW127252   1.196   0.458  14.419
41785SOL    HW227253   1.132   0.510  14.547
41786SOL     OW27254   2.083   7.595  14.312
41786SOL    HW127255   2.120   7.641  14.387
41786SOL    HW227256   2.090   7.658  14.240
41787SOL     OW27257   9.384   2.893  12.693
41787SOL    HW127258   9.366   2.947  12.617
41787SOL    HW227259   9.427   2.815  12.657
41788SOL     OW27260   1.162   4.871   4.641
41788SOL    HW127261   1.103   4.941   4.613
41788SOL    HW227262   1.171   4.884   4.736
41789SOL     OW27263  12.939   7.020   9.117
41789SOL    HW127264  12.965   6.996   9.028
41789SOL    HW227265  12.845   7.036   9.111
41790SOL     OW27266   3.059   7.169  12.536
41790SOL    HW127267   3.096   7.178  12.448
41790SOL    HW227268   3.124   7.118  12.584
41791SOL     OW27269   9.386  11.210   9.126
41791SOL    HW127270   9.392  11.221   9.031
41791SOL    HW227271   9.301  11.246   9.148
41792SOL     OW27272   8.212  13.069   3.234
41792SOL    HW127273   8.264  13.002   3.278
41792SOL    HW227274   8.270  13.145   3.229
41793SOL     OW27275  11.497   4.316   5.810
41793SOL    HW127276  11.487   4.263   5.731
41793SOL    HW227277  11.464   4.402   5.785
41794SOL     OW27278   4.502  13.060  12.982
41794SOL    HW127279   4.548  13.054  13.066
41794SOL    HW227280   4.413  13.033  13.001
41795SOL     OW27281   4.889  12.290  10.875
41795SOL    HW127282   4.925  12.290  10.964
41795SOL    HW227283   4.937  12.359  10.829
41796SOL     OW27284   1.881   5.636   8.795
41796SOL    HW127285   1.891   5.722   8.836
41796SOL    HW227286   1.801   5.600   8.833
41797SOL     OW27287   9.882  13.500  10.001
41797SOL    HW127288   9.958  13.467  10.049
41797SOL    HW227289   9.847  13.423   9.957
41798SOL     OW27290   9.706   0.159  10.449
41798SOL    HW127291   9.627   0.109  10.468
41798SOL    HW227292   9.699   0.180  10.356
41799SOL     OW27293   0.928   3.129  12.489
41799SOL    HW127294   0.913   3.214  12.449
41799SOL    HW227295   1.023   3.117  12.488
41800SOL     OW27296   7.925   1.455   7.397
41800SOL    HW127297   8.018   1.469   7.417
41800SOL    HW227298   7.891   1.542   7.378
41801SOL     OW27299   1.447  10.901   4.739
41801SOL    HW127300   1.389  10.968   4.703
41801SOL    HW227301   1.390  10.841   4.786
41802SOL     OW27302   5.381  14.420   7.303
41802SOL    HW127303   5.468  14.417   7.341
41802SOL    HW227304   5.387  14.363   7.226
41803SOL     OW27305  14.876   1.734   4.479
41803SOL    HW127306   0.025   1.761   4.566
41803SOL    HW227307  14.825   1.809   4.448
41804SOL     OW27308   1.188   7.226   8.553
41804SOL    HW127309   1.098   7.227   8.518
41804SOL    HW227310   1.178   7.242   8.646
41805SOL     OW27311   6.915   6.038   6.398
41805SOL    HW127312   6.944   6.032   6.489
41805SOL    HW227313   6.933   5.952   6.360
41806SOL     OW27314   7.641   8.368   5.550
41806SOL    HW127315   7.623   8.355   5.643
41806SOL    HW227316   7.688   8.451   5.546
41807SOL     OW27317   5.976  11.635  11.122
41807SOL    HW127318   5.927  11.705  11.080
41807SOL    HW227319   5.910  11.586  11.171
41808SOL     OW27320  14.460  12.619   2.666
41808SOL    HW127321  14.503  12.702   2.649
41808SOL    HW227322  14.509  12.555   2.615
41809SOL     OW27323   4.250  13.570  12.761
41809SOL    HW127324   4.212  13.484  12.780
41809SOL    HW227325   4.342  13.562  12.786
41810SOL     OW27326   4.493   5.148   6.183
41810SOL    HW127327   4.568   5.208   6.189
41810SOL    HW227328   4.416   5.205   6.189
41811SOL     OW27329  13.644   1.874   5.174
41811SOL    HW127330  13.564   1.856   5.223
41811SOL    HW227331  13.704   1.912   5.239
41812SOL     OW27332   7.327   3.528   6.670
41812SOL    HW127333   7.354   3.498   6.757
41812SOL    HW227334   7.374   3.470   6.610
41813SOL     OW27335  12.632   5.242   0.123
41813SOL    HW127336  12.656   5.332   0.144
41813SOL    HW227337  12.536   5.242   0.123
41814SOL     OW27338   2.017   2.049  11.154
41814SOL    HW127339   2.105   2.032  11.121
41814SOL    HW227340   1.973   1.964  11.150
41815SOL     OW27341   5.507   2.900   1.020
41815SOL    HW127342   5.476   2.944   1.100
41815SOL    HW227343   5.597   2.873   1.041
41816SOL     OW27344   8.723  11.809   4.258
41816SOL    HW127345   8.729  11.732   4.201
41816SOL    HW227346   8.653  11.861   4.220
41817SOL     OW27347   3.558  12.565  10.606
41817SOL    HW127348   3.586  12.561  10.697
41817SOL    HW227349   3.574  12.476  10.573
41818SOL     OW27350   5.650  10.892   6.225
41818SOL    HW127351   5.674  10.820   6.282
41818SOL    HW227352   5.573  10.861   6.178
41819SOL     OW27353   6.137   3.982  14.163
41819SOL    HW127354   6.113   3.896  14.198
41819SOL    HW227355   6.156   3.966  14.071
41820SOL     OW27356   3.760   4.783   2.520
41820SOL    HW127357   3.707   4.862   2.530
41820SOL    HW227358   3.838   4.799   2.573
41821SOL     OW27359  10.591   3.476   2.792
41821SOL    HW127360  10.496   3.479   2.783
41821SOL    HW227361  10.606   3.452   2.883
41822SOL     OW27362   9.815   1.575   1.550
41822SOL    HW127363   9.888   1.518   1.529
41822SOL    HW227364   9.850   1.638   1.613
41823SOL     OW27365   9.707   7.526   1.403
41823SOL    HW127366   9.786   7.576   1.385
41823SOL    HW227367   9.713   7.450   1.345
41824SOL     OW27368   9.950   7.755   4.865
41824SOL    HW127369   9.972   7.675   4.817
41824SOL    HW227370   9.968   7.826   4.804
41825SOL     OW27371   4.152   5.771   5.213
41825SOL    HW127372   4.093   5.773   5.289
41825SOL    HW227373   4.138   5.856   5.171
41826SOL     OW27374   6.249   5.562   0.306
41826SOL    HW127375   6.312   5.569   0.378
41826SOL    HW227376   6.269   5.478   0.265
41827SOL     OW27377  14.359   5.279   4.166
41827SOL    HW127378  14.410   5.202   4.189
41827SOL    HW227379  14.287   5.281   4.230
41828SOL     OW27380  10.154   2.157  10.986
41828SOL    HW127381  10.085   2.095  10.961
41828SOL    HW227382  10.184   2.126  11.071
41829SOL     OW27383  12.259   1.944   4.719
41829SOL    HW127384  12.297   2.031   4.710
41829SOL    HW227385  12.167   1.959   4.740
41830SOL     OW27386   3.612   0.502  13.067
41830SOL    HW127387   3.646   0.583  13.104
41830SOL    HW227388   3.624   0.511  12.973
41831SOL     OW27389   8.104   5.852   1.239
41831SOL    HW127390   8.135   5.779   1.293
41831SOL    HW227391   8.070   5.915   1.302
41832SOL     OW27392   3.062  14.461  12.027
41832SOL    HW127393   2.990  14.497  11.975
41832SOL    HW227394   3.022  14.391  12.078
41833SOL     OW27395  13.848   0.961   8.208
41833SOL    HW127396  13.869   0.984   8.298
41833SOL    HW227397  13.836   1.045   8.164
41834SOL     OW27398   8.751   4.920   7.612
41834SOL    HW127399   8.694   4.948   7.684
41834SOL    HW227400   8.764   5.000   7.561
41835SOL     OW27401  14.160  11.588   3.345
41835SOL    HW127402  14.234  11.537   3.315
41835SOL    HW227403  14.188  11.626   3.428
41836SOL     OW27404  13.546   8.565  13.841
41836SOL    HW127405  13.551   8.600  13.752
41836SOL    HW227406  13.637   8.554  13.869
41837SOL     OW27407  11.980   5.121  13.239
41837SOL    HW127408  11.977   5.028  13.215
41837SOL    HW227409  12.045   5.125  13.310
41838SOL     OW27410   8.525   5.117  14.640
41838SOL    HW127411   8.456   5.075  14.692
41838SOL    HW227412   8.605   5.104  14.691
41839SOL     OW27413   3.660   0.137   7.195
41839SOL    HW127414   3.751   0.169   7.196
41839SOL    HW227415   3.664   0.051   7.238
41840SOL     OW27416  14.411   9.673   9.597
41840SOL    HW127417  14.387   9.629   9.678
41840SOL    HW227418  14.449   9.604   9.542
41841SOL     OW27419  13.848   8.456  10.353
41841SOL    HW127420  13.903   8.388  10.314
41841SOL    HW227421  13.848   8.435  10.447
41842SOL     OW27422   3.406   5.436   4.562
41842SOL    HW127423   3.415   5.371   4.632
41842SOL    HW227424   3.334   5.492   4.590
41843SOL     OW27425   8.691   5.562  12.828
41843SOL    HW127426   8.664   5.547  12.919
41843SOL    HW227427   8.782   5.531  12.825
41844SOL     OW27428   9.550   1.629   5.781
41844SOL    HW127429   9.566   1.535   5.770
41844SOL    HW227430   9.455   1.639   5.768
41845SOL     OW27431  10.162   8.389   8.486
41845SOL    HW127432  10.241   8.396   8.539
41845SOL    HW227433  10.151   8.295   8.471
41846SOL     OW27434   3.978   1.668   9.954
41846SOL    HW127435   4.069   1.670   9.982
41846SOL    HW227436   3.932   1.622  10.025
41847SOL     OW27437   8.231   6.135   6.694
41847SOL    HW127438   8.207   6.086   6.773
41847SOL    HW227439   8.323   6.114   6.680
41848SOL     OW27440  13.647   1.466   8.153
41848SOL    HW127441  13.597   1.537   8.112
41848SOL    HW227442  13.596   1.387   8.135
41849SOL     OW27443  10.592   5.489   6.129
41849SOL    HW127444  10.627   5.542   6.058
41849SOL    HW227445  10.506   5.525   6.147
41850SOL     OW27446   5.661   9.280   9.563
41850SOL    HW127447   5.633   9.361   9.606
41850SOL    HW227448   5.727   9.308   9.500
41851SOL     OW27449  12.210   9.171   8.763
41851SOL    HW127450  12.136   9.221   8.730
41851SOL    HW227451  12.276   9.237   8.785
41852SOL     OW27452  13.933   6.715  14.752
41852SOL    HW127453  13.903   6.720  14.661
41852SOL    HW227454  13.926   6.804  14.785
41853SOL     OW27455  10.041   0.390   6.548
41853SOL    HW127456  10.101   0.368   6.619
41853SOL    HW227457  10.073   0.340   6.473
41854SOL     OW27458  12.984   9.276  14.696
41854SOL    HW127459  13.026   9.193  14.718
41854SOL    HW227460  12.905   9.251  14.649
41855SOL     OW27461  11.255   2.975   1.077
41855SOL    HW127462  11.195   3.018   1.017
41855SOL    HW227463  11.337   2.968   1.028
41856SOL     OW27464   6.313   5.622   6.878
41856SOL    HW127465   6.365   5.611   6.799
41856SOL    HW227466   6.236   5.566   6.864
41857SOL     OW27467  12.025  10.245  12.500
41857SOL    HW127468  12.115  10.247  12.467
41857SOL    HW227469  11.975  10.202  12.431
41858SOL     OW27470   7.268   4.607   1.238
41858SOL    HW127471   7.203   4.588   1.306
41858SOL    HW227472   7.217   4.637   1.163
41859SOL     OW27473   4.242   5.896   6.710
41859SOL    HW127474   4.151   5.882   6.682
41859SOL    HW227475   4.265   5.817   6.758
41860SOL     OW27476   2.674   2.122  14.670
41860SOL    HW127477   2.754   2.080  14.701
41860SOL    HW227478   2.613   2.049  14.654
41861SOL     OW27479   6.755   6.178   2.652
41861SOL    HW127480   6.767   6.252   2.711
41861SOL    HW227481   6.845   6.148   2.634
41862SOL     OW27482  11.175   6.211   4.878
41862SOL    HW127483  11.150   6.134   4.827
41862SOL    HW227484  11.113   6.278   4.851
41863SOL     OW27485   5.417  10.417   6.113
41863SOL    HW127486   5.331  10.381   6.090
41863SOL    HW227487   5.436  10.381   6.199
41864SOL     OW27488  12.082   9.240   1.983
41864SOL    HW127489  12.023   9.281   1.920
41864SOL    HW227490  12.120   9.166   1.936
41865SOL     OW27491   3.645  12.789   5.320
41865SOL    HW127492   3.688  12.815   5.402
41865SOL    HW227493   3.663  12.695   5.313
41866SOL     OW27494   5.845   4.549   3.612
41866SOL    HW127495   5.836   4.618   3.677
41866SOL    HW227496   5.923   4.501   3.639
41867SOL     OW27497   1.660   2.842   9.428
41867SOL    HW127498   1.571   2.837   9.463
41867SOL    HW227499   1.714   2.801   9.495
41868SOL     OW27500   1.677  10.154   5.102
41868SOL    HW127501   1.618  10.082   5.126
41868SOL    HW227502   1.765  10.117   5.112
41869SOL     OW27503   5.553   7.675   3.947
41869SOL    HW127504   5.541   7.602   4.007
41869SOL    HW227505   5.467   7.716   3.942
41870SOL     OW27506   5.432   1.232   0.817
41870SOL    HW127507   5.449   1.224   0.911
41870SOL    HW227508   5.389   1.318   0.808
41871SOL     OW27509  12.363   0.852   4.249
41871SOL    HW127510  12.373   0.758   4.233
41871SOL    HW227511  12.291   0.858   4.312
41872SOL     OW27512   6.294  14.845   7.730
41872SOL    HW127513   6.238  14.853   7.653
41872SOL    HW227514   6.261   0.029   7.791
41873SOL     OW27515   3.253  10.493  10.004
41873SOL    HW127516   3.265  10.484   9.910
41873SOL    HW227517   3.316  10.431  10.042
41874SOL     OW27518  10.556   0.822   2.822
41874SOL    HW127519  10.624   0.844   2.887
41874SOL    HW227520  10.548   0.727   2.827
41875SOL     OW27521   1.635   6.771   8.996
41875SOL    HW127522   1.703   6.735   8.940
41875SOL    HW227523   1.633   6.712   9.072
41876SOL     OW27524   2.710   4.048   0.204
41876SOL    HW127525   2.718   3.966   0.156
41876SOL    HW227526   2.655   4.027   0.279
41877SOL     OW27527   1.151   9.570  14.761
41877SOL    HW127528   1.154   9.533  14.673
41877SOL    HW227529   1.208   9.514  14.813
41878SOL     OW27530  12.447   6.713   4.192
41878SOL    HW127531  12.461   6.794   4.143
41878SOL    HW227532  12.423   6.649   4.126
41879SOL     OW27533   0.804   6.529  11.510
41879SOL    HW127534   0.804   6.599  11.446
41879SOL    HW227535   0.717   6.489  11.503
41880SOL     OW27536   0.838   9.095   3.328
41880SOL    HW127537   0.802   9.063   3.245
41880SOL    HW227538   0.878   9.018   3.368
41881SOL     OW27539   6.413   1.567   5.029
41881SOL    HW127540   6.418   1.634   5.098
41881SOL    HW227541   6.372   1.492   5.071
41882SOL     OW27542   5.732   4.603  14.040
41882SOL    HW127543   5.691   4.559  13.966
41882SOL    HW227544   5.701   4.555  14.117
41883SOL     OW27545  11.455  13.155   1.583
41883SOL    HW127546  11.490  13.194   1.503
41883SOL    HW227547  11.459  13.225   1.648
41884SOL     OW27548  10.604   0.915  11.425
41884SOL    HW127549  10.580   0.848  11.361
41884SOL    HW227550  10.522   0.959  11.446
41885SOL     OW27551   7.978   5.390   6.164
41885SOL    HW127552   7.892   5.348   6.161
41885SOL    HW227553   7.975   5.457   6.096
41886SOL     OW27554   9.952   5.731  14.850
41886SOL    HW127555   9.991   5.690  14.773
41886SOL    HW227556   9.862   5.749  14.825
41887SOL     OW27557   1.223   9.551  13.790
41887SOL    HW127558   1.154   9.493  13.758
41887SOL    HW227559   1.299   9.532  13.735
41888SOL     OW27560   0.671  11.462   1.845
41888SOL    HW127561   0.732  11.403   1.801
41888SOL    HW227562   0.598  11.471   1.784
41889SOL     OW27563  14.460   2.544  11.389
41889SOL    HW127564  14.531   2.599  11.423
41889SOL    HW227565  14.428   2.591  11.312
41890SOL     OW27566   2.706   3.501   2.379
41890SOL    HW127567   2.766   3.459   2.317
41890SOL    HW227568   2.629   3.445   2.378
41891SOL     OW27569  11.421  12.471  12.209
41891SOL    HW127570  11.424  12.565  12.195
41891SOL    HW227571  11.503  12.451  12.255
41892SOL     OW27572   3.173  12.935   3.596
41892SOL    HW127573   3.134  12.997   3.657
41892SOL    HW227574   3.207  12.865   3.651
41893SOL     OW27575  12.070   7.946   2.828
41893SOL    HW127576  12.080   8.041   2.821
41893SOL    HW227577  12.159   7.912   2.819
41894SOL     OW27578  12.014  13.580  12.633
41894SOL    HW127579  11.920  13.564  12.623
41894SOL    HW227580  12.042  13.516  12.698
41895SOL     OW27581   1.942  10.014   8.136
41895SOL    HW127582   1.885  10.065   8.193
41895SOL    HW227583   2.011  10.075   8.110
41896SOL     OW27584  12.683   5.712   3.122
41896SOL    HW127585  12.715   5.698   3.033
41896SOL    HW227586  12.632   5.793   3.117
41897SOL     OW27587  13.350   9.852  14.528
41897SOL    HW127588  13.269   9.883  14.568
41897SOL    HW227589  13.383   9.785  14.587
41898SOL     OW27590   2.827  14.414  11.313
41898SOL    HW127591   2.857  14.467  11.239
41898SOL    HW227592   2.748  14.458  11.343
41899SOL     OW27593  12.602   4.897  11.682
41899SOL    HW127594  12.577   4.928  11.595
41899SOL    HW227595  12.536   4.832  11.705
41900SOL     OW27596   0.022   7.543   2.207
41900SOL    HW127597   0.100   7.598   2.220
41900SOL    HW227598   0.012   7.497   2.290
41901SOL     OW27599   7.484   0.195   0.325
41901SOL    HW127600   7.498   0.101   0.322
41901SOL    HW227601   7.521   0.223   0.408
41902SOL     OW27602   2.937   4.062  14.861
41902SOL    HW127603   2.988   3.982  14.847
41902SOL    HW227604   2.935   4.074   0.074
41903SOL     OW27605   1.730   3.455  14.029
41903SOL    HW127606   1.812   3.416  14.060
41903SOL    HW227607   1.664   3.423  14.091
41904SOL     OW27608  14.008  14.850   6.974
41904SOL    HW127609  13.972  14.820   7.058
41904SOL    HW227610  14.043   0.054   6.992
41905SOL     OW27611   6.384   1.318   3.498
41905SOL    HW127612   6.328   1.391   3.525
41905SOL    HW227613   6.327   1.262   3.445
41906SOL     OW27614   1.735   9.117   6.719
41906SOL    HW127615   1.690   9.044   6.675
41906SOL    HW227616   1.683   9.131   6.798
41907SOL     OW27617   5.479   2.934   7.007
41907SOL    HW127618   5.399   2.976   6.975
41907SOL    HW227619   5.514   2.889   6.930
41908SOL     OW27620  14.427   2.862   2.443
41908SOL    HW127621  14.354   2.862   2.504
41908SOL    HW227622  14.395   2.912   2.367
41909SOL     OW27623   0.011   4.583   9.434
41909SOL    HW127624  14.800   4.562   9.429
41909SOL    HW227625   0.032   4.617   9.347
41910SOL     OW27626   8.037   4.373  14.038
41910SOL    HW127627   8.120   4.421  14.045
41910SOL    HW227628   7.990   4.395  14.119
41911SOL     OW27629  11.603   1.550   4.378
41911SOL    HW127630  11.522   1.549   4.327
41911SOL    HW227631  11.598   1.631   4.429
41912SOL     OW27632   7.644   6.784  13.340
41912SOL    HW127633   7.602   6.759  13.258
41912SOL    HW227634   7.644   6.880  13.339
41913SOL     OW27635   6.245   9.142  13.752
41913SOL    HW127636   6.186   9.185  13.690
41913SOL    HW227637   6.221   9.049  13.748
41914SOL     OW27638   3.300   7.967   7.044
41914SOL    HW127639   3.206   7.955   7.061
41914SOL    HW227640   3.310   8.061   7.028
41915SOL     OW27641   3.008   2.340  12.370
41915SOL    HW127642   3.102   2.344  12.350
41915SOL    HW227643   2.998   2.394  12.448
41916SOL     OW27644   3.859   6.769   8.712
41916SOL    HW127645   3.908   6.691   8.737
41916SOL    HW227646   3.857   6.766   8.616
41917SOL     OW27647  12.302   1.117   4.596
41917SOL    HW127648  12.206   1.115   4.599
41917SOL    HW227649  12.328   1.026   4.588
41918SOL     OW27650   1.810   3.570   1.388
41918SOL    HW127651   1.891   3.578   1.439
41918SOL    HW227652   1.740   3.573   1.453
41919SOL     OW27653   5.944   3.257  11.902
41919SOL    HW127654   6.014   3.192  11.890
41919SOL    HW227655   5.879   3.213  11.956
41920SOL     OW27656  13.459  14.520  12.202
41920SOL    HW127657  13.517  14.582  12.247
41920SOL    HW227658  13.399  14.575  12.152
41921SOL     OW27659   2.459   9.118  11.809
41921SOL    HW127660   2.432   9.153  11.724
41921SOL    HW227661   2.376   9.099  11.854
41922SOL     OW27662   2.283  10.485   6.352
41922SOL    HW127663   2.247  10.430   6.421
41922SOL    HW227664   2.267  10.575   6.380
41923SOL     OW27665   8.339   3.760   7.043
41923SOL    HW127666   8.381   3.694   6.988
41923SOL    HW227667   8.403   3.777   7.112
41924SOL     OW27668  11.870  14.136   3.841
41924SOL    HW127669  11.824  14.195   3.782
41924SOL    HW227670  11.949  14.111   3.794
41925SOL     OW27671   6.864   6.832   7.153
41925SOL    HW127672   6.857   6.828   7.249
41925SOL    HW227673   6.930   6.899   7.137
41926SOL     OW27674  10.696   0.415   3.682
41926SOL    HW127675  10.781   0.383   3.649
41926SOL    HW227676  10.714   0.503   3.715
41927SOL     OW27677  13.977  11.943   5.379
41927SOL    HW127678  14.015  11.886   5.311
41927SOL    HW227679  14.031  12.022   5.376
41928SOL     OW27680   1.101  10.317   2.504
41928SOL    HW127681   1.092  10.233   2.550
41928SOL    HW227682   1.073  10.297   2.414
41929SOL     OW27683   2.207   6.582  10.077
41929SOL    HW127684   2.272   6.620  10.137
41929SOL    HW227685   2.133   6.642  10.081
41930SOL     OW27686   1.854   8.957   8.716
41930SOL    HW127687   1.848   8.868   8.681
41930SOL    HW227688   1.786   8.960   8.784
41931SOL     OW27689  14.146  11.029  14.104
41931SOL    HW127690  14.187  11.115  14.100
41931SOL    HW227691  14.157  11.002  14.195
41932SOL     OW27692   9.886   2.024  13.470
41932SOL    HW127693   9.936   1.986  13.541
41932SOL    HW227694   9.934   2.102  13.445
41933SOL     OW27695  13.975  14.494   6.099
41933SOL    HW127696  13.975  14.554   6.024
41933SOL    HW227697  13.891  14.509   6.141
41934SOL     OW27698   7.916   6.223   8.412
41934SOL    HW127699   7.906   6.281   8.337
41934SOL    HW227700   7.878   6.272   8.486
41935SOL     OW27701   5.576   5.083   9.182
41935SOL    HW127702   5.500   5.139   9.163
41935SOL    HW227703   5.649   5.130   9.143
41936SOL     OW27704   5.025   3.314  10.537
41936SOL    HW127705   4.947   3.336  10.487
41936SOL    HW227706   5.049   3.227  10.507
41937SOL     OW27707  12.035   0.550   1.177
41937SOL    HW127708  11.964   0.556   1.113
41937SOL    HW227709  12.115   0.564   1.126
41938SOL     OW27710   0.118   9.532   0.301
41938SOL    HW127711   0.187   9.583   0.257
41938SOL    HW227712   0.037   9.575   0.276
41939SOL     OW27713   4.750   8.100  10.354
41939SOL    HW127714   4.744   8.010  10.385
41939SOL    HW227715   4.783   8.149  10.429
41940SOL     OW27716   4.526  10.470  13.804
41940SOL    HW127717   4.573  10.429  13.731
41940SOL    HW227718   4.526  10.404  13.873
41941SOL     OW27719   4.137  12.755   8.268
41941SOL    HW127720   4.069  12.743   8.335
41941SOL    HW227721   4.182  12.671   8.264
41942SOL     OW27722   9.041   0.850   5.209
41942SOL    HW127723   8.991   0.885   5.135
41942SOL    HW227724   9.073   0.927   5.255
41943SOL     OW27725   4.024   6.393  12.330
41943SOL    HW127726   4.071   6.310  12.339
41943SOL    HW227727   3.932   6.367  12.320
41944SOL     OW27728   1.738   7.602  10.251
41944SOL    HW127729   1.742   7.629  10.160
41944SOL    HW227730   1.736   7.507  10.248
41945SOL     OW27731  11.009  11.551   8.839
41945SOL    HW127732  10.917  11.527   8.852
41945SOL    HW227733  11.006  11.626   8.780
41946SOL     OW27734   1.922   2.088   4.434
41946SOL    HW127735   1.933   2.165   4.379
41946SOL    HW227736   1.902   2.018   4.372
41947SOL     OW27737   3.484   7.922   0.453
41947SOL    HW127738   3.578   7.916   0.470
41947SOL    HW227739   3.477   7.930   0.358
41948SOL     OW27740   8.329  12.462   4.852
41948SOL    HW127741   8.235  12.480   4.855
41948SOL    HW227742   8.363  12.502   4.933
41949SOL     OW27743   8.074  11.326   5.628
41949SOL    HW127744   8.110  11.241   5.606
41949SOL    HW227745   8.150  11.381   5.644
41950SOL     OW27746  14.120   2.760   0.033
41950SOL    HW127747  14.179   2.687   0.013
41950SOL    HW227748  14.037   2.718   0.057
41951SOL     OW27749   0.543   3.483   3.261
41951SOL    HW127750   0.491   3.536   3.321
41951SOL    HW227751   0.514   3.393   3.276
41952SOL     OW27752   2.151   2.006   9.639
41952SOL    HW127753   2.089   1.937   9.661
41952SOL    HW227754   2.192   1.977   9.557
41953SOL     OW27755   2.452   5.111  12.260
41953SOL    HW127756   2.541   5.139  12.238
41953SOL    HW227757   2.399   5.191  12.257
41954SOL     OW27758   3.364  11.127   7.236
41954SOL    HW127759   3.367  11.187   7.161
41954SOL    HW227760   3.281  11.147   7.280
41955SOL     OW27761   9.325  10.000  13.076
41955SOL    HW127762   9.393  10.037  13.021
41955SOL    HW227763   9.368   9.983  13.160
41956SOL     OW27764  12.605   8.033   4.536
41956SOL    HW127765  12.524   8.043   4.486
41956SOL    HW227766  12.622   7.939   4.537
41957SOL     OW27767   2.792  12.286   9.577
41957SOL    HW127768   2.840  12.243   9.506
41957SOL    HW227769   2.805  12.380   9.561
41958SOL     OW27770   0.657   8.823   1.472
41958SOL    HW127771   0.663   8.804   1.566
41958SOL    HW227772   0.741   8.793   1.437
41959SOL     OW27773  14.332   5.548  10.004
41959SOL    HW127774  14.401   5.509   9.950
41959SOL    HW227775  14.319   5.636   9.967
41960SOL     OW27776   4.216   7.746   8.490
41960SOL    HW127777   4.227   7.692   8.568
41960SOL    HW227778   4.304   7.758   8.456
41961SOL     OW27779  13.669   4.206   5.563
41961SOL    HW127780  13.632   4.245   5.485
41961SOL    HW227781  13.605   4.225   5.632
41962SOL     OW27782   7.043  14.760   7.706
41962SOL    HW127783   7.124  14.726   7.742
41962SOL    HW227784   6.990  14.681   7.689
41963SOL     OW27785   0.679   0.062  12.759
41963SOL    HW127786   0.716   0.100  12.679
41963SOL    HW227787   0.753   0.021  12.802
41964SOL     OW27788   9.126   5.166  14.265
41964SOL    HW127789   9.200   5.129  14.218
41964SOL    HW227790   9.127   5.259  14.241
41965SOL     OW27791   3.458   9.260   7.310
41965SOL    HW127792   3.476   9.172   7.279
41965SOL    HW227793   3.469   9.316   7.233
41966SOL     OW27794   9.384  13.817   6.258
41966SOL    HW127795   9.301  13.844   6.298
41966SOL    HW227796   9.451  13.866   6.306
41967SOL     OW27797   6.323   3.098   2.808
41967SOL    HW127798   6.270   3.032   2.763
41967SOL    HW227799   6.349   3.056   2.890
41968SOL     OW27800  11.998   7.754   0.916
41968SOL    HW127801  12.044   7.813   0.856
41968SOL    HW227802  11.908   7.787   0.917
41969SOL     OW27803   7.421   5.185   2.673
41969SOL    HW127804   7.465   5.111   2.630
41969SOL    HW227805   7.379   5.146   2.750
41970SOL     OW27806   6.824   2.432  12.039
41970SOL    HW127807   6.783   2.506  11.997
41970SOL    HW227808   6.881   2.471  12.106
41971SOL     OW27809  11.395   2.244   7.448
41971SOL    HW127810  11.319   2.258   7.504
41971SOL    HW227811  11.371   2.284   7.364
41972SOL     OW27812   1.139   5.242  14.741
41972SOL    HW127813   1.179   5.260  14.656
41972SOL    HW227814   1.068   5.181  14.721
41973SOL     OW27815   0.348   6.393   1.316
41973SOL    HW127816   0.429   6.432   1.285
41973SOL    HW227817   0.298   6.466   1.352
41974SOL     OW27818   4.817  14.608  13.947
41974SOL    HW127819   4.879  14.536  13.955
41974SOL    HW227820   4.871  14.683  13.922
41975SOL     OW27821   4.744   1.471  10.620
41975SOL    HW127822   4.798   1.519  10.556
41975SOL    HW227823   4.674   1.533  10.642
41976SOL     OW27824   1.481   2.361   4.695
41976SOL    HW127825   1.415   2.427   4.672
41976SOL    HW227826   1.442   2.312   4.767
41977SOL     OW27827   7.094  12.133   1.060
41977SOL    HW127828   6.998  12.130   1.058
41977SOL    HW227829   7.117  12.132   1.153
41978SOL     OW27830   7.879  12.097  13.199
41978SOL    HW127831   7.901  12.117  13.290
41978SOL    HW227832   7.953  12.131  13.148
41979SOL     OW27833   4.228   3.464   9.340
41979SOL    HW127834   4.145   3.471   9.386
41979SOL    HW227835   4.282   3.534   9.376
41980SOL     OW27836   7.871   7.819   4.619
41980SOL    HW127837   7.781   7.812   4.588
41980SOL    HW227838   7.902   7.728   4.621
41981SOL     OW27839   8.303   2.518  10.299
41981SOL    HW127840   8.320   2.431  10.265
41981SOL    HW227841   8.387   2.548  10.334
41982SOL     OW27842   5.624   5.354   5.406
41982SOL    HW127843   5.662   5.371   5.492
41982SOL    HW227844   5.569   5.431   5.389
41983SOL     OW27845  14.806  12.543  10.304
41983SOL    HW127846  14.858  12.587  10.237
41983SOL    HW227847  14.867  12.529  10.377
41984SOL     OW27848   8.530   1.574   8.996
41984SOL    HW127849   8.499   1.492   8.957
41984SOL    HW227850   8.502   1.569   9.087
41985SOL     OW27851   8.844   5.276  11.204
41985SOL    HW127852   8.897   5.218  11.259
41985SOL    HW227853   8.765   5.292  11.256
41986SOL     OW27854  14.116   4.126  14.609
41986SOL    HW127855  14.186   4.077  14.567
41986SOL    HW227856  14.094   4.075  14.687
41987SOL     OW27857   6.074   8.852   5.870
41987SOL    HW127858   5.997   8.895   5.908
41987SOL    HW227859   6.144   8.868   5.933
41988SOL     OW27860   0.445  13.486   1.106
41988SOL    HW127861   0.468  13.439   1.025
41988SOL    HW227862   0.440  13.577   1.079
41989SOL     OW27863   1.353   1.215   3.337
41989SOL    HW127864   1.374   1.174   3.253
41989SOL    HW227865   1.258   1.224   3.337
41990SOL     OW27866   8.084   7.436  12.710
41990SOL    HW127867   8.123   7.523  12.714
41990SOL    HW227868   8.011   7.440  12.771
41991SOL     OW27869   1.908   0.736   1.834
41991SOL    HW127870   1.939   0.728   1.744
41991SOL    HW227871   1.879   0.827   1.842
41992SOL     OW27872  14.103   8.004   8.621
41992SOL    HW127873  14.008   8.005   8.630
41992SOL    HW227874  14.135   8.031   8.708
41993SOL     OW27875   8.114   2.273  13.112
41993SOL    HW127876   8.021   2.260  13.093
41993SOL    HW227877   8.156   2.277  13.026
41994SOL     OW27878   3.759   6.209  14.025
41994SOL    HW127879   3.836   6.152  14.031
41994SOL    HW227880   3.766   6.267  14.101
41995SOL     OW27881   3.887   2.488   7.397
41995SOL    HW127882   3.815   2.469   7.337
41995SOL    HW227883   3.884   2.418   7.462
41996SOL     OW27884  12.051   4.725   5.280
41996SOL    HW127885  12.049   4.654   5.216
41996SOL    HW227886  11.992   4.698   5.349
41997SOL     OW27887   9.234  12.805   4.394
41997SOL    HW127888   9.291  12.731   4.415
41997SOL    HW227889   9.186  12.822   4.475
41998SOL     OW27890   2.767   4.844  14.142
41998SOL    HW127891   2.726   4.847  14.055
41998SOL    HW227892   2.739   4.760  14.178
41999SOL     OW27893   3.103   8.656  13.704
41999SOL    HW127894   3.020   8.611  13.717
41999SOL    HW227895   3.079   8.745  13.679
42000SOL     OW27896   5.213   8.435   3.412
42000SOL    HW127897   5.146   8.366   3.418
42000SOL    HW227898   5.295   8.391   3.431
42001SOL     OW27899  13.223   0.820   8.628
42001SOL    HW127900  13.247   0.835   8.537
42001SOL    HW227901  13.303   0.789   8.670
42002SOL     OW27902  13.151  10.159   6.189
42002SOL    HW127903  13.211  10.150   6.263
42002SOL    HW227904  13.192  10.226   6.134
42003SOL     OW27905  11.182   8.496   7.115
42003SOL    HW127906  11.173   8.590   7.133
42003SOL    HW227907  11.273   8.477   7.137
42004SOL     OW27908   5.622   4.178   5.119
42004SOL    HW127909   5.528   4.196   5.115
42004SOL    HW227910   5.656   4.211   5.036
42005SOL     OW27911   3.314  11.309   4.488
42005SOL    HW127912   3.260  11.232   4.504
42005SOL    HW227913   3.293  11.334   4.398
42006SOL     OW27914  12.828   3.005   1.655
42006SOL    HW127915  12.815   3.044   1.741
42006SOL    HW227916  12.794   3.070   1.594
42007SOL     OW27917   7.374  10.656  10.794
42007SOL    HW127918   7.296  10.636  10.847
42007SOL    HW227919   7.344  10.722  10.732
42008SOL     OW27920   7.724   5.345   8.975
42008SOL    HW127921   7.694   5.409   9.040
42008SOL    HW227922   7.819   5.344   8.985
42009SOL     OW27923   8.419  12.354  14.553
42009SOL    HW127924   8.347  12.322  14.499
42009SOL    HW227925   8.434  12.284  14.617
42010SOL     OW27926   3.864   1.637   0.535
42010SOL    HW127927   3.864   1.710   0.474
42010SOL    HW227928   3.874   1.677   0.621
42011SOL     OW27929  12.850   2.846   3.608
42011SOL    HW127930  12.910   2.788   3.561
42011SOL    HW227931  12.782   2.787   3.641
42012SOL     OW27932   5.700  14.818   6.257
42012SOL    HW127933   5.639   0.009   6.246
42012SOL    HW227934   5.645  14.740   6.250
42013SOL     OW27935  12.382   8.423   4.400
42013SOL    HW127936  12.421   8.502   4.438
42013SOL    HW227937  12.409   8.352   4.458
42014SOL     OW27938   6.885  14.507  11.781
42014SOL    HW127939   6.809  14.565  11.777
42014SOL    HW227940   6.855  14.426  11.740
42015SOL     OW27941  11.020   1.073   7.164
42015SOL    HW127942  11.101   1.093   7.212
42015SOL    HW227943  11.032   0.983   7.134
42016SOL     OW27944   5.988  11.083  13.172
42016SOL    HW127945   6.043  11.103  13.248
42016SOL    HW227946   5.907  11.049  13.210
42017SOL     OW27947  13.632   3.480  11.720
42017SOL    HW127948  13.577   3.535  11.664
42017SOL    HW227949  13.576   3.456  11.793
42018SOL     OW27950   4.938  10.208   4.307
42018SOL    HW127951   5.006  10.275   4.298
42018SOL    HW227952   4.957  10.145   4.238
42019SOL     OW27953  10.526   2.588   8.436
42019SOL    HW127954  10.501   2.680   8.438
42019SOL    HW227955  10.522   2.560   8.528
42020SOL     OW27956  11.258   7.234  11.980
42020SOL    HW127957  11.283   7.261  11.891
42020SOL    HW227958  11.274   7.140  11.982
42021SOL     OW27959   0.644  10.543   0.325
42021SOL    HW127960   0.672  10.608   0.260
42021SOL    HW227961   0.714  10.478   0.327
42022SOL     OW27962   9.017   9.748   5.358
42022SOL    HW127963   8.976   9.753   5.444
42022SOL    HW227964   9.056   9.835   5.345
42023SOL     OW27965   7.543  12.720   6.932
42023SOL    HW127966   7.540  12.740   6.839
42023SOL    HW227967   7.452  12.704   6.956
42024SOL     OW27968   7.979  10.553   9.083
42024SOL    HW127969   8.049  10.536   9.020
42024SOL    HW227970   7.968  10.648   9.082
42025SOL     OW27971  12.205   8.762   7.742
42025SOL    HW127972  12.278   8.710   7.775
42025SOL    HW227973  12.235   8.853   7.750
42026SOL     OW27974   9.514   6.914   1.905
42026SOL    HW127975   9.608   6.921   1.889
42026SOL    HW227976   9.489   6.828   1.872
42027SOL     OW27977   6.245   6.497   7.620
42027SOL    HW127978   6.221   6.510   7.712
42027SOL    HW227979   6.333   6.459   7.624
42028SOL     OW27980  14.022   8.295   9.839
42028SOL    HW127981  14.092   8.329   9.782
42028SOL    HW227982  13.955   8.364   9.839
42029SOL     OW27983  14.652  11.088   5.063
42029SOL    HW127984  14.648  11.039   4.981
42029SOL    HW227985  14.573  11.142   5.063
42030SOL     OW27986  11.892   9.358   4.782
42030SOL    HW127987  11.806   9.396   4.763
42030SOL    HW227988  11.874   9.265   4.796
42031SOL     OW27989  13.001  13.348   2.511
42031SOL    HW127990  13.005  13.253   2.522
42031SOL    HW227991  13.091  13.378   2.523
42032SOL     OW27992   3.379   6.878   1.241
42032SOL    HW127993   3.378   6.945   1.173
42032SOL    HW227994   3.458   6.899   1.292
42033SOL     OW27995  14.237  10.848   9.920
42033SOL    HW127996  14.203  10.857  10.009
42033SOL    HW227997  14.202  10.765   9.889
42034SOL     OW27998   4.302   7.795  12.909
42034SOL    HW127999   4.358   7.853  12.960
42034SOL    HW228000   4.225   7.848  12.889
42035SOL     OW28001   2.997   6.755   3.204
42035SOL    HW128002   2.951   6.677   3.235
42035SOL    HW228003   2.961   6.772   3.117
42036SOL     OW28004   0.780  13.341   7.319
42036SOL    HW128005   0.750  13.431   7.305
42036SOL    HW228006   0.868  13.340   7.281
42037SOL     OW28007  10.995  14.076  10.734
42037SOL    HW128008  11.064  14.014  10.708
42037SOL    HW228009  11.015  14.156  10.685
42038SOL     OW28010   8.209   7.438   9.394
42038SOL    HW128011   8.127   7.441   9.443
42038SOL    HW228012   8.185   7.401   9.309
42039SOL     OW28013   3.850   3.149  11.630
42039SOL    HW128014   3.762   3.186  11.640
42039SOL    HW228015   3.892   3.205  11.564
42040SOL     OW28016   3.656   3.020   1.953
42040SOL    HW128017   3.584   3.017   2.017
42040SOL    HW228018   3.729   2.977   1.998
42041SOL     OW28019  12.511   2.762   7.974
42041SOL    HW128020  12.536   2.670   7.966
42041SOL    HW228021  12.558   2.806   7.902
42042SOL     OW28022   1.325   4.151   3.546
42042SOL    HW128023   1.285   4.065   3.557
42042SOL    HW228024   1.404   4.135   3.495
42043SOL     OW28025   1.672   8.267  11.216
42043SOL    HW128026   1.583   8.303  11.209
42043SOL    HW228027   1.675   8.199  11.149
42044SOL     OW28028  14.638  14.343   5.534
42044SOL    HW128029  14.637  14.415   5.598
42044SOL    HW228030  14.568  14.285   5.563
42045SOL     OW28031   2.138   0.185  10.474
42045SOL    HW128032   2.211   0.192  10.412
42045SOL    HW228033   2.070   0.137  10.427
42046SOL     OW28034   1.320  10.331   2.990
42046SOL    HW128035   1.350  10.241   3.002
42046SOL    HW228036   1.230  10.331   3.022
42047SOL     OW28037  10.009   8.523   6.152
42047SOL    HW128038   9.983   8.434   6.177
42047SOL    HW228039  10.099   8.513   6.121
42048SOL     OW28040   3.986  11.866   5.309
42048SOL    HW128041   3.954  11.858   5.219
42048SOL    HW228042   3.912  11.837   5.363
42049SOL     OW28043  12.554   4.578   9.164
42049SOL    HW128044  12.480   4.533   9.205
42049SOL    HW228045  12.524   4.596   9.075
42050SOL     OW28046   6.634  10.398   5.520
42050SOL    HW128047   6.571  10.414   5.449
42050SOL    HW228048   6.666  10.485   5.543
42051SOL     OW28049  12.945  11.866   2.611
42051SOL    HW128050  12.885  11.826   2.673
42051SOL    HW228051  12.958  11.955   2.644
42052SOL     OW28052   8.587   1.122   5.697
42052SOL    HW128053   8.566   1.119   5.604
42052SOL    HW228054   8.611   1.032   5.719
42053SOL     OW28055   8.435  14.461   7.890
42053SOL    HW128056   8.443  14.545   7.844
42053SOL    HW228057   8.353  14.424   7.858
42054SOL     OW28058   6.737   9.596   9.146
42054SOL    HW128059   6.746   9.606   9.051
42054SOL    HW228060   6.824   9.612   9.181
42055SOL     OW28061   2.071  14.551  13.548
42055SOL    HW128062   2.042  14.636  13.579
42055SOL    HW228063   2.166  14.558  13.542
42056SOL     OW28064   3.078   0.457   6.627
42056SOL    HW128065   3.009   0.416   6.575
42056SOL    HW228066   3.043   0.459   6.716
42057SOL     OW28067   8.668  13.029  14.598
42057SOL    HW128068   8.636  13.076  14.522
42057SOL    HW228069   8.611  12.952  14.605
42058SOL     OW28070   4.002   1.000   8.494
42058SOL    HW128071   4.089   0.973   8.522
42058SOL    HW228072   3.956   0.918   8.476
42059SOL     OW28073   7.542  14.319  11.376
42059SOL    HW128074   7.605  14.391  11.368
42059SOL    HW228075   7.461  14.354  11.339
42060SOL     OW28076  12.443  12.854   0.382
42060SOL    HW128077  12.361  12.904   0.387
42060SOL    HW228078  12.421  12.769   0.419
42061SOL     OW28079   3.494  12.606   6.812
42061SOL    HW128080   3.583  12.579   6.790
42061SOL    HW228081   3.482  12.578   6.903
42062SOL     OW28082   2.649  10.873  14.018
42062SOL    HW128083   2.562  10.834  14.014
42062SOL    HW228084   2.634  10.967  14.023
42063SOL     OW28085   1.394   5.303  12.044
42063SOL    HW128086   1.431   5.384  12.079
42063SOL    HW228087   1.358   5.327  11.959
42064SOL     OW28088   8.025   8.399   1.865
42064SOL    HW128089   7.975   8.468   1.821
42064SOL    HW228090   8.117   8.424   1.851
42065SOL     OW28091  10.764   0.062   7.754
42065SOL    HW128092  10.822   0.076   7.679
42065SOL    HW228093  10.801   0.116   7.823
42066SOL     OW28094   9.215   5.617  13.158
42066SOL    HW128095   9.200   5.527  13.129
42066SOL    HW228096   9.311   5.625  13.161
42067SOL     OW28097   0.391   1.657  11.276
42067SOL    HW128098   0.307   1.703  11.284
42067SOL    HW228099   0.368   1.573  11.235
42068SOL     OW28100   1.857   0.304   1.385
42068SOL    HW128101   1.866   0.278   1.293
42068SOL    HW228102   1.768   0.278   1.409
42069SOL     OW28103  12.395  12.264   1.499
42069SOL    HW128104  12.384  12.177   1.459
42069SOL    HW228105  12.422  12.320   1.427
42070SOL     OW28106   9.402   5.627  11.772
42070SOL    HW128107   9.365   5.584  11.849
42070SOL    HW228108   9.339   5.697  11.751
42071SOL     OW28109   5.228  11.209   2.852
42071SOL    HW128110   5.157  11.273   2.857
42071SOL    HW228111   5.240  11.194   2.759
42072SOL     OW28112  12.301   9.909  12.862
42072SOL    HW128113  12.236   9.935  12.926
42072SOL    HW228114  12.346   9.990  12.838
42073SOL     OW28115   3.517  14.484   7.687
42073SOL    HW128116   3.587  14.419   7.680
42073SOL    HW228117   3.463  14.470   7.608
42074SOL     OW28118  12.023  11.884  13.064
42074SOL    HW128119  11.938  11.907  13.102
42074SOL    HW228120  12.065  11.829  13.129
42075SOL     OW28121   8.552  13.298  14.141
42075SOL    HW128122   8.617  13.357  14.102
42075SOL    HW228123   8.551  13.222  14.084
42076SOL     OW28124   3.083   3.957   3.231
42076SOL    HW128125   3.033   4.032   3.198
42076SOL    HW228126   3.021   3.907   3.284
42077SOL     OW28127   7.989   3.257   2.013
42077SOL    HW128128   8.015   3.179   2.062
42077SOL    HW228129   7.896   3.268   2.032
42078SOL     OW28130   9.150  14.474  11.269
42078SOL    HW128131   9.235  14.498  11.232
42078SOL    HW228132   9.138  14.382  11.243
42079SOL     OW28133   6.495   1.155   1.133
42079SOL    HW128134   6.557   1.096   1.088
42079SOL    HW228135   6.499   1.128   1.224
42080SOL     OW28136   6.821   5.982   9.756
42080SOL    HW128137   6.803   5.919   9.825
42080SOL    HW228138   6.784   5.943   9.677
42081SOL     OW28139  11.785  13.153  10.930
42081SOL    HW128140  11.782  13.060  10.951
42081SOL    HW228141  11.723  13.163  10.857
42082SOL     OW28142   9.895   2.145   3.332
42082SOL    HW128143   9.908   2.089   3.409
42082SOL    HW228144   9.951   2.107   3.265
42083SOL     OW28145  14.167   2.068   7.142
42083SOL    HW128146  14.146   2.134   7.208
42083SOL    HW228147  14.261   2.078   7.128
42084SOL     OW28148   1.041  10.000   0.870
42084SOL    HW128149   1.053   9.939   0.797
42084SOL    HW228150   1.004  10.078   0.830
42085SOL     OW28151   8.773   7.904  14.781
42085SOL    HW128152   8.860   7.926  14.748
42085SOL    HW228153   8.717   7.904  14.703
42086SOL     OW28154   9.802   7.542   3.601
42086SOL    HW128155   9.770   7.625   3.564
42086SOL    HW228156   9.880   7.522   3.549
42087SOL     OW28157   8.951   3.028   3.732
42087SOL    HW128158   8.877   2.980   3.694
42087SOL    HW228159   8.912   3.080   3.802
42088SOL     OW28160  10.263   6.506   2.734
42088SOL    HW128161  10.320   6.448   2.786
42088SOL    HW228162  10.310   6.516   2.651
42089SOL     OW28163  11.860   9.443   6.592
42089SOL    HW128164  11.914   9.369   6.567
42089SOL    HW228165  11.908   9.486   6.663
42090SOL     OW28166   8.406   8.523  11.135
42090SOL    HW128167   8.414   8.541  11.229
42090SOL    HW228168   8.327   8.570  11.109
42091SOL     OW28169   8.565  11.861  11.829
42091SOL    HW128170   8.566  11.907  11.745
42091SOL    HW228171   8.540  11.771  11.807
42092SOL     OW28172   2.768   5.405   8.364
42092SOL    HW128173   2.791   5.331   8.307
42092SOL    HW228174   2.694   5.374   8.415
42093SOL     OW28175   0.684   5.309  12.024
42093SOL    HW128176   0.630   5.373  12.069
42093SOL    HW228177   0.624   5.265  11.963
42094SOL     OW28178   6.113  12.559  14.007
42094SOL    HW128179   6.025  12.590  14.029
42094SOL    HW228180   6.138  12.504  14.081
42095SOL     OW28181  10.146   0.403   1.765
42095SOL    HW128182  10.063   0.377   1.723
42095SOL    HW228183  10.125   0.487   1.807
42096SOL     OW28184  10.062   3.602  14.553
42096SOL    HW128185   9.993   3.571  14.494
42096SOL    HW228186  10.124   3.646  14.496
42097SOL     OW28187   4.014  10.109   3.125
42097SOL    HW128188   4.040  10.187   3.173
42097SOL    HW228189   3.974  10.142   3.044
42098SOL     OW28190   9.046   8.228   6.482
42098SOL    HW128191   9.034   8.133   6.487
42098SOL    HW228192   8.968   8.264   6.524
42099SOL     OW28193   3.166  10.829  13.246
42099SOL    HW128194   3.146  10.875  13.165
42099SOL    HW228195   3.176  10.899  13.311
42100SOL     OW28196  12.390  14.223   6.940
42100SOL    HW128197  12.378  14.128   6.945
42100SOL    HW228198  12.451  14.243   7.011
42101SOL     OW28199   7.552   8.081   0.243
42101SOL    HW128200   7.536   8.113   0.154
42101SOL    HW228201   7.630   8.128   0.271
42102SOL     OW28202   1.348  10.137   6.237
42102SOL    HW128203   1.277  10.073   6.244
42102SOL    HW228204   1.414  10.093   6.184
42103SOL     OW28205   5.173   1.334   4.281
42103SOL    HW128206   5.266   1.347   4.297
42103SOL    HW228207   5.155   1.246   4.314
42104SOL     OW28208   7.530   3.679   0.807
42104SOL    HW128209   7.442   3.668   0.771
42104SOL    HW228210   7.551   3.771   0.792
42105SOL     OW28211  10.964   2.886  13.177
42105SOL    HW128212  11.007   2.959  13.220
42105SOL    HW228213  10.923   2.924  13.099
42106SOL     OW28214   8.211  13.463   5.994
42106SOL    HW128215   8.209  13.458   6.090
42106SOL    HW228216   8.128  13.423   5.967
42107SOL     OW28217   3.740   8.528   5.278
42107SOL    HW128218   3.673   8.596   5.281
42107SOL    HW228219   3.791   8.541   5.358
42108SOL     OW28220   1.661  10.116   8.172
42108SOL    HW128221   1.599  10.045   8.181
42108SOL    HW228222   1.655  10.165   8.254
42109SOL     OW28223   2.938  12.189   8.873
42109SOL    HW128224   2.851  12.204   8.837
42109SOL    HW228225   2.926  12.121   8.938
42110SOL     OW28226   2.300   7.361   1.320
42110SOL    HW128227   2.376   7.374   1.377
42110SOL    HW228228   2.243   7.302   1.369
42111SOL     OW28229   7.901   2.314  13.309
42111SOL    HW128230   7.877   2.270  13.228
42111SOL    HW228231   7.833   2.289  13.372
42112SOL     OW28232   3.043   9.254   8.281
42112SOL    HW128233   3.101   9.262   8.206
42112SOL    HW228234   3.076   9.179   8.330
42113SOL     OW28235   9.361  10.822   2.886
42113SOL    HW128236   9.302  10.800   2.958
42113SOL    HW228237   9.418  10.746   2.878
42114SOL     OW28238   5.903  13.410   3.554
42114SOL    HW128239   5.961  13.339   3.526
42114SOL    HW228240   5.906  13.406   3.650
42115SOL     OW28241  10.194   9.137  11.994
42115SOL    HW128242  10.213   9.206  11.930
42115SOL    HW228243  10.116   9.168  12.040
42116SOL     OW28244   3.376   6.864   2.771
42116SOL    HW128245   3.466   6.896   2.760
42116SOL    HW228246   3.357   6.878   2.864
42117SOL     OW28247   2.240   3.472   8.532
42117SOL    HW128248   2.303   3.457   8.462
42117SOL    HW228249   2.255   3.401   8.594
42118SOL     OW28250   0.252   2.949   7.869
42118SOL    HW128251   0.162   2.977   7.885
42118SOL    HW228252   0.259   2.865   7.916
42119SOL     OW28253   1.576   4.715   0.344
42119SOL    HW128254   1.626   4.675   0.273
42119SOL    HW228255   1.585   4.809   0.330
42120SOL     OW28256   5.958   0.973   1.307
42120SOL    HW128257   5.949   0.878   1.304
42120SOL    HW228258   6.052   0.988   1.316
42121SOL     OW28259   2.035   9.786   0.907
42121SOL    HW128260   2.097   9.772   0.835
42121SOL    HW228261   2.014   9.879   0.903
42122SOL     OW28262   2.167   0.861  14.830
42122SOL    HW128263   2.257   0.830  14.827
42122SOL    HW228264   2.161   0.927  14.761
42123SOL     OW28265  13.746  10.026  14.770
42123SOL    HW128266  13.788  10.012  14.685
42123SOL    HW228267  13.659   9.985  14.761
42124SOL     OW28268   6.966  14.427   0.523
42124SOL    HW128269   7.012  14.434   0.439
42124SOL    HW228270   6.910  14.505   0.526
42125SOL     OW28271   1.384   3.174   9.887
42125SOL    HW128272   1.363   3.144   9.798
42125SOL    HW228273   1.450   3.242   9.874
42126SOL     OW28274   8.762   3.917   7.216
42126SOL    HW128275   8.843   3.881   7.179
42126SOL    HW228276   8.789   4.000   7.255
42127SOL     OW28277   2.384   8.193   1.207
42127SOL    HW128278   2.418   8.259   1.146
42127SOL    HW228279   2.376   8.114   1.154
42128SOL     OW28280   3.669   2.117   0.450
42128SOL    HW128281   3.613   2.191   0.474
42128SOL    HW228282   3.692   2.133   0.358
42129SOL     OW28283  12.630  10.522   3.527
42129SOL    HW128284  12.697  10.571   3.479
42129SOL    HW228285  12.673  10.496   3.608
42130SOL     OW28286  14.079   2.089   5.186
42130SOL    HW128287  14.113   2.172   5.220
42130SOL    HW228288  14.157   2.035   5.173
42131SOL     OW28289   8.759   3.821   8.459
42131SOL    HW128290   8.758   3.904   8.413
42131SOL    HW228291   8.732   3.842   8.548
42132SOL     OW28292   5.287   7.256  12.970
42132SOL    HW128293   5.272   7.306  13.050
42132SOL    HW228294   5.217   7.285  12.911
42133SOL     OW28295   8.050   5.892   3.334
42133SOL    HW128296   8.120   5.897   3.269
42133SOL    HW228297   8.013   5.980   3.337
42134SOL     OW28298   9.289   1.022   0.502
42134SOL    HW128299   9.365   0.975   0.537
42134SOL    HW228300   9.321   1.111   0.486
42135SOL     OW28301  12.405  13.660   0.957
42135SOL    HW128302  12.356  13.738   0.984
42135SOL    HW228303  12.435  13.680   0.869
42136SOL     OW28304   5.067   8.342  10.675
42136SOL    HW128305   5.117   8.377  10.748
42136SOL    HW228306   5.131   8.290  10.625
42137SOL     OW28307   6.213   1.907   9.096
42137SOL    HW128308   6.235   1.880   9.185
42137SOL    HW228309   6.289   1.880   9.043
42138SOL     OW28310   7.065   8.017   4.916
42138SOL    HW128311   7.130   7.952   4.890
42138SOL    HW228312   7.050   8.069   4.837
42139SOL     OW28313  10.599   9.613  11.281
42139SOL    HW128314  10.629   9.522  11.289
42139SOL    HW228315  10.512   9.612  11.321
42140SOL     OW28316  12.712   3.448   1.310
42140SOL    HW128317  12.767   3.516   1.271
42140SOL    HW228318  12.632   3.494   1.336
42141SOL     OW28319   3.407   3.823   2.514
42141SOL    HW128320   3.433   3.732   2.530
42141SOL    HW228321   3.423   3.867   2.597
42142SOL     OW28322  14.752   1.198   6.438
42142SOL    HW128323  14.681   1.219   6.498
42142SOL    HW228324  14.719   1.125   6.386
42143SOL     OW28325  14.217  14.509   0.775
42143SOL    HW128326  14.199  14.600   0.800
42143SOL    HW228327  14.284  14.481   0.837
42144SOL     OW28328   7.184  13.396   1.257
42144SOL    HW128329   7.228  13.478   1.237
42144SOL    HW228330   7.171  13.397   1.352
42145SOL     OW28331   9.421  10.409   9.724
42145SOL    HW128332   9.355  10.387   9.790
42145SOL    HW228333   9.376  10.465   9.662
42146SOL     OW28334  13.585  10.195   9.672
42146SOL    HW128335  13.506  10.248   9.664
42146SOL    HW228336  13.554  10.108   9.695
42147SOL     OW28337  12.208   7.067  13.407
42147SOL    HW128338  12.263   7.125  13.460
42147SOL    HW228339  12.199   6.988  13.459
42148SOL     OW28340   4.093   2.959   5.417
42148SOL    HW128341   4.163   2.976   5.354
42148SOL    HW228342   4.093   3.036   5.474
42149SOL     OW28343   1.111   6.896  13.879
42149SOL    HW128344   1.061   6.951  13.819
42149SOL    HW228345   1.147   6.827  13.824
42150SOL     OW28346   2.115  12.403   4.662
42150SOL    HW128347   2.160  12.486   4.681
42150SOL    HW228348   2.116  12.356   4.745
42151SOL     OW28349  11.993   0.530   6.681
42151SOL    HW128350  11.969   0.614   6.641
42151SOL    HW228351  11.985   0.546   6.775
42152SOL     OW28352  10.868   5.546  13.684
42152SOL    HW128353  10.776   5.555  13.661
42152SOL    HW228354  10.877   5.453  13.707
42153SOL     OW28355   1.921  10.302   1.025
42153SOL    HW128356   1.949  10.336   0.940
42153SOL    HW228357   1.826  10.292   1.017
42154SOL     OW28358  13.657   3.024   5.406
42154SOL    HW128359  13.685   2.957   5.343
42154SOL    HW228360  13.642   3.101   5.353
42155SOL     OW28361  14.742   3.291  14.152
42155SOL    HW128362  14.726   3.330  14.238
42155SOL    HW228363  14.760   3.366  14.094
42156SOL     OW28364   7.719   0.001   3.292
42156SOL    HW128365   7.711  14.855   3.383
42156SOL    HW228366   7.804  14.848   3.263
42157SOL     OW28367   9.223   9.717   5.876
42157SOL    HW128368   9.304   9.677   5.844
42157SOL    HW228369   9.241   9.811   5.876
42158SOL     OW28370   6.699   0.915   1.737
42158SOL    HW128371   6.710   0.974   1.662
42158SOL    HW228372   6.613   0.875   1.723
42159SOL     OW28373  14.599  11.701   8.790
42159SOL    HW128374  14.522  11.740   8.833
42159SOL    HW228375  14.614  11.620   8.838
42160SOL     OW28376   7.255   2.992  11.242
42160SOL    HW128377   7.265   2.908  11.286
42160SOL    HW228378   7.175   2.982  11.190
42161SOL     OW28379   2.278  10.673   4.600
42161SOL    HW128380   2.248  10.636   4.683
42161SOL    HW228381   2.200  10.716   4.564
42162SOL     OW28382  10.859   6.976  10.114
42162SOL    HW128383  10.920   7.025  10.059
42162SOL    HW228384  10.914   6.938  10.183
42163SOL     OW28385   5.113  14.740   6.983
42163SOL    HW128386   5.171  14.724   6.909
42163SOL    HW228387   5.144  14.681   7.051
42164SOL     OW28388  11.865   0.776   6.617
42164SOL    HW128389  11.916   0.848   6.654
42164SOL    HW228390  11.774   0.798   6.636
42165SOL     OW28391   3.927  11.118   1.760
42165SOL    HW128392   4.001  11.125   1.700
42165SOL    HW228393   3.850  11.113   1.703
42166SOL     OW28394   4.376  11.969   5.559
42166SOL    HW128395   4.414  11.900   5.614
42166SOL    HW228396   4.441  12.039   5.562
42167SOL     OW28397   5.341   2.733  13.276
42167SOL    HW128398   5.396   2.800  13.317
42167SOL    HW228399   5.312   2.679  13.349
42168SOL     OW28400   5.265  13.143   4.675
42168SOL    HW128401   5.302  13.203   4.610
42168SOL    HW228402   5.341  13.102   4.716
42169SOL     OW28403   9.449  11.470  11.100
42169SOL    HW128404   9.444  11.486  11.006
42169SOL    HW228405   9.411  11.384  11.112
42170SOL     OW28406   2.929   7.867  12.095
42170SOL    HW128407   3.001   7.818  12.134
42170SOL    HW228408   2.920   7.830  12.007
42171SOL     OW28409   7.260  10.288   3.615
42171SOL    HW128410   7.317  10.243   3.553
42171SOL    HW228411   7.305  10.371   3.634
42172SOL     OW28412  13.389   2.212  12.704
42172SOL    HW128413  13.451   2.226  12.633
42172SOL    HW228414  13.441   2.176  12.776
42173SOL     OW28415   9.375   8.617   7.834
42173SOL    HW128416   9.306   8.582   7.777
42173SOL    HW228417   9.374   8.559   7.910
42174SOL     OW28418  12.059  10.479   2.107
42174SOL    HW128419  11.998  10.467   2.035
42174SOL    HW228420  12.142  10.500   2.065
42175SOL     OW28421  12.161   3.034   0.450
42175SOL    HW128422  12.181   2.984   0.529
42175SOL    HW228423  12.120   2.970   0.391
42176SOL     OW28424   0.374   6.473   6.156
42176SOL    HW128425   0.297   6.529   6.150
42176SOL    HW228426   0.448   6.533   6.165
42177SOL     OW28427   5.178   7.098   9.371
42177SOL    HW128428   5.183   7.164   9.440
42177SOL    HW228429   5.241   7.128   9.305
42178SOL     OW28430   8.877   7.611   0.402
42178SOL    HW128431   8.899   7.633   0.312
42178SOL    HW228432   8.810   7.543   0.395
42179SOL     OW28433   3.544   3.565   1.417
42179SOL    HW128434   3.519   3.473   1.422
42179SOL    HW228435   3.470   3.612   1.457
42180SOL     OW28436   0.173   5.634   3.647
42180SOL    HW128437   0.255   5.619   3.600
42180SOL    HW228438   0.139   5.717   3.611
42181SOL     OW28439   9.760   3.202   8.321
42181SOL    HW128440   9.809   3.122   8.340
42181SOL    HW228441   9.825   3.272   8.328
42182SOL     OW28442  11.088   4.882  14.724
42182SOL    HW128443  11.010   4.937  14.715
42182SOL    HW228444  11.107   4.854  14.634
42183SOL     OW28445   4.226   9.048  12.001
42183SOL    HW128446   4.169   9.075  12.073
42183SOL    HW228447   4.186   9.086  11.923
42184SOL     OW28448   8.322   3.247   1.818
42184SOL    HW128449   8.294   3.158   1.796
42184SOL    HW228450   8.389   3.236   1.886
42185SOL     OW28451   8.875   0.253  10.252
42185SOL    HW128452   8.781   0.264  10.264
42185SOL    HW228453   8.912   0.340  10.271
42186SOL     OW28454  14.699  11.443   0.374
42186SOL    HW128455  14.608  11.444   0.404
42186SOL    HW228456  14.710  11.525   0.327
42187SOL     OW28457  12.240  10.514   1.922
42187SOL    HW128458  12.327  10.546   1.899
42187SOL    HW228459  12.192  10.514   1.840
42188SOL     OW28460   0.775   5.804  11.612
42188SOL    HW128461   0.699   5.801  11.671
42188SOL    HW228462   0.845   5.762  11.661
42189SOL     OW28463   9.207   1.064   5.304
42189SOL    HW128464   9.258   1.139   5.274
42189SOL    HW228465   9.269   1.009   5.352
42190SOL     OW28466  13.027   6.293   5.466
42190SOL    HW128467  12.957   6.237   5.433
42190SOL    HW228468  12.982   6.363   5.512
42191SOL     OW28469   4.662  12.672   9.893
42191SOL    HW128470   4.706  12.726   9.826
42191SOL    HW228471   4.625  12.736   9.954
42192SOL     OW28472   6.362   6.723  11.418
42192SOL    HW128473   6.343   6.637  11.380
42192SOL    HW228474   6.288   6.777  11.390
42193SOL     OW28475   6.597   5.293   6.685
42193SOL    HW128476   6.676   5.347   6.692
42193SOL    HW228477   6.571   5.279   6.776
42194SOL     OW28478   5.528   5.548   1.636
42194SOL    HW128479   5.578   5.467   1.635
42194SOL    HW228480   5.504   5.564   1.545
42195SOL     OW28481   4.321  10.124  14.352
42195SOL    HW128482   4.353  10.144  14.264
42195SOL    HW228483   4.352  10.035  14.369
42196SOL     OW28484   0.065   1.737   3.652
42196SOL    HW128485   0.002   1.669   3.631
42196SOL    HW228486   0.098   1.714   3.739
42197SOL     OW28487   8.232   0.556   6.790
42197SOL    HW128488   8.238   0.651   6.802
42197SOL    HW228489   8.138   0.538   6.786
42198SOL     OW28490   6.027  13.861   9.577
42198SOL    HW128491   5.954  13.801   9.593
42198SOL    HW228492   6.075  13.822   9.504
42199SOL     OW28493   6.716   1.813   4.838
42199SOL    HW128494   6.639   1.787   4.788
42199SOL    HW228495   6.715   1.755   4.915
42200SOL     OW28496   0.038   1.479   2.879
42200SOL    HW128497   0.049   1.438   2.793
42200SOL    HW228498   0.124   1.518   2.897
42201SOL     OW28499   5.074   4.136   8.429
42201SOL    HW128500   5.150   4.082   8.447
42201SOL    HW228501   5.030   4.094   8.356
42202SOL     OW28502  13.964   0.042   2.762
42202SOL    HW128503  13.954   0.119   2.817
42202SOL    HW228504  14.028  14.870   2.807
42203SOL     OW28505  14.070   3.700  13.283
42203SOL    HW128506  14.064   3.654  13.367
42203SOL    HW228507  14.069   3.793  13.307
42204SOL     OW28508  10.438  10.260  11.546
42204SOL    HW128509  10.406  10.170  11.549
42204SOL    HW228510  10.504  10.264  11.615
42205SOL     OW28511   2.199  10.102  13.728
42205SOL    HW128512   2.128  10.102  13.664
42205SOL    HW228513   2.159  10.138  13.808
42206SOL     OW28514   4.665   9.214   2.325
42206SOL    HW128515   4.746   9.200   2.374
42206SOL    HW228516   4.693   9.215   2.233
42207SOL     OW28517   1.676   4.747   7.781
42207SOL    HW128518   1.653   4.768   7.690
42207SOL    HW228519   1.736   4.816   7.807
42208SOL     OW28520   1.797   7.161   6.762
42208SOL    HW128521   1.773   7.084   6.813
42208SOL    HW228522   1.782   7.235   6.822
42209SOL     OW28523   4.126   5.347  11.531
42209SOL    HW128524   4.051   5.295  11.504
42209SOL    HW228525   4.155   5.390  11.451
42210SOL     OW28526   1.970   3.664   9.922
42210SOL    HW128527   1.966   3.734   9.987
42210SOL    HW228528   1.907   3.691   9.855
42211SOL     OW28529  12.412   4.050  14.572
42211SOL    HW128530  12.384   4.070  14.482
42211SOL    HW228531  12.334   4.063  14.625
42212SOL     OW28532   8.733  13.943   6.245
42212SOL    HW128533   8.805  13.988   6.290
42212SOL    HW228534   8.657  13.956   6.302
42213SOL     OW28535   5.535   0.062  12.653
42213SOL    HW128536   5.482   0.106  12.719
42213SOL    HW228537   5.544   0.127  12.583
42214SOL     OW28538   3.192   7.217   3.741
42214SOL    HW128539   3.189   7.174   3.655
42214SOL    HW228540   3.277   7.194   3.777
42215SOL     OW28541   8.123  12.079   9.429
42215SOL    HW128542   8.042  12.080   9.480
42215SOL    HW228543   8.138  12.171   9.408
42216SOL     OW28544   7.061   5.490  12.619
42216SOL    HW128545   7.040   5.564  12.562
42216SOL    HW228546   7.152   5.470  12.599
42217SOL     OW28547   7.384  10.391   7.350
42217SOL    HW128548   7.290  10.392   7.333
42217SOL    HW228549   7.424  10.376   7.264
42218SOL     OW28550  11.807  14.771   1.343
42218SOL    HW128551  11.795  14.775   1.438
42218SOL    HW228552  11.898  14.798   1.329
42219SOL     OW28553   5.172  10.732  12.643
42219SOL    HW128554   5.154  10.640  12.622
42219SOL    HW228555   5.113  10.781  12.585
42220SOL     OW28556   8.656   6.949   5.979
42220SOL    HW128557   8.566   6.972   5.954
42220SOL    HW228558   8.651   6.856   6.001
42221SOL     OW28559   3.369   6.045   5.367
42221SOL    HW128560   3.306   6.074   5.302
42221SOL    HW228561   3.336   5.960   5.397
42222SOL     OW28562  12.588   2.333   4.575
42222SOL    HW128563  12.615   2.309   4.487
42222SOL    HW228564  12.630   2.269   4.632
42223SOL     OW28565   0.805   3.847   1.864
42223SOL    HW128566   0.839   3.865   1.776
42223SOL    HW228567   0.723   3.800   1.849
42224SOL     OW28568  14.653   6.390   4.957
42224SOL    HW128569  14.615   6.323   5.014
42224SOL    HW228570  14.737   6.411   4.998
42225SOL     OW28571   1.682   1.560  10.634
42225SOL    HW128572   1.693   1.654  10.648
42225SOL    HW228573   1.747   1.539  10.567
42226SOL     OW28574   3.422   6.264   4.652
42226SOL    HW128575   3.452   6.217   4.729
42226SOL    HW228576   3.326   6.264   4.660
42227SOL     OW28577   9.011   8.128   8.325
42227SOL    HW128578   9.042   8.056   8.269
42227SOL    HW228579   9.043   8.207   8.281
42228SOL     OW28580   1.729   9.356   3.137
42228SOL    HW128581   1.690   9.272   3.111
42228SOL    HW228582   1.815   9.356   3.095
42229SOL     OW28583   4.408  10.729   7.808
42229SOL    HW128584   4.376  10.664   7.745
42229SOL    HW228585   4.501  10.707   7.819
42230SOL     OW28586   6.981   9.045   7.708
42230SOL    HW128587   6.890   9.023   7.727
42230SOL    HW228588   7.025   8.960   7.703
42231SOL     OW28589   5.300   8.564  14.775
42231SOL    HW128590   5.230   8.507  14.742
42231SOL    HW228591   5.255   8.626  14.833
42232SOL     OW28592   1.540   6.505   7.529
42232SOL    HW128593   1.483   6.515   7.605
42232SOL    HW228594   1.480   6.486   7.457
42233SOL     OW28595  13.169   2.478  11.666
42233SOL    HW128596  13.250   2.479  11.615
42233SOL    HW228597  13.164   2.389  11.700
42234SOL     OW28598  10.504  14.704   1.788
42234SOL    HW128599  10.587  14.712   1.741
42234SOL    HW228600  10.481  14.612   1.782
42235SOL     OW28601   6.929   2.113   7.360
42235SOL    HW128602   6.970   2.031   7.389
42235SOL    HW228603   6.981   2.182   7.401
42236SOL     OW28604   4.710  11.148   3.466
42236SOL    HW128605   4.772  11.088   3.508
42236SOL    HW228606   4.739  11.153   3.375
42237SOL     OW28607  14.366   3.556  13.549
42237SOL    HW128608  14.436   3.498  13.576
42237SOL    HW228609  14.406   3.643  13.546
42238SOL     OW28610   7.938  13.455   5.969
42238SOL    HW128611   7.871  13.429   5.905
42238SOL    HW228612   7.944  13.550   5.960
42239SOL     OW28613   3.171   3.602   0.978
42239SOL    HW128614   3.200   3.593   0.887
42239SOL    HW228615   3.082   3.637   0.972
42240SOL     OW28616   2.399   4.374  12.093
42240SOL    HW128617   2.356   4.289  12.097
42240SOL    HW228618   2.492   4.354  12.088
42241SOL     OW28619   9.308   8.993  14.781
42241SOL    HW128620   9.330   8.948  14.863
42241SOL    HW228621   9.381   9.052  14.765
42242SOL     OW28622   9.064   1.124  11.468
42242SOL    HW128623   9.084   1.055  11.531
42242SOL    HW228624   9.125   1.109  11.396
42243SOL     OW28625  10.892  13.724  14.785
42243SOL    HW128626  10.986  13.715  14.772
42243SOL    HW228627  10.861  13.636  14.804
42244SOL     OW28628   1.431   5.738   0.211
42244SOL    HW128629   1.522   5.767   0.222
42244SOL    HW228630   1.395   5.736   0.300
42245SOL     OW28631  13.977   2.084   4.277
42245SOL    HW128632  13.927   2.163   4.295
42245SOL    HW228633  14.032   2.106   4.203
42246SOL     OW28634  13.850   9.622  10.410
42246SOL    HW128635  13.799   9.619  10.329
42246SOL    HW228636  13.789   9.592  10.477
42247SOL     OW28637  14.085   8.795   3.286
42247SOL    HW128638  14.150   8.804   3.216
42247SOL    HW228639  14.087   8.880   3.330
42248SOL     OW28640  10.937   2.423   9.137
42248SOL    HW128641  10.927   2.482   9.211
42248SOL    HW228642  11.032   2.412   9.128
42249SOL     OW28643  12.385   3.071  10.734
42249SOL    HW128644  12.425   3.028  10.809
42249SOL    HW228645  12.402   3.011  10.660
42250SOL     OW28646   4.558   2.018   3.826
42250SOL    HW128647   4.640   1.989   3.785
42250SOL    HW228648   4.535   1.947   3.887
42251SOL     OW28649   4.188   1.083   5.141
42251SOL    HW128650   4.263   1.028   5.121
42251SOL    HW228651   4.223   1.172   5.140
42252SOL     OW28652   7.122  13.974   2.067
42252SOL    HW128653   7.041  13.942   2.105
42252SOL    HW228654   7.141  14.054   2.114
42253SOL     OW28655  10.588   3.636  10.378
42253SOL    HW128656  10.579   3.677  10.292
42253SOL    HW228657  10.681   3.620  10.388
42254SOL     OW28658  12.784   3.458   9.719
42254SOL    HW128659  12.721   3.529   9.735
42254SOL    HW228660  12.855   3.476   9.781
42255SOL     OW28661  11.023   9.820  12.261
42255SOL    HW128662  11.008   9.822  12.166
42255SOL    HW228663  10.996   9.733  12.288
42256SOL     OW28664   1.401   2.733   8.243
42256SOL    HW128665   1.420   2.644   8.215
42256SOL    HW228666   1.306   2.735   8.255
42257SOL     OW28667   0.252   6.143   6.634
42257SOL    HW128668   0.196   6.144   6.712
42257SOL    HW228669   0.198   6.104   6.566
42258SOL     OW28670   1.039  14.851  13.672
42258SOL    HW128671   1.028  14.762  13.637
42258SOL    HW228672   1.110  14.843  13.735
42259SOL     OW28673   5.940   8.287   8.197
42259SOL    HW128674   5.905   8.199   8.185
42259SOL    HW228675   5.873   8.333   8.248
42260SOL     OW28676   7.129   3.510  10.874
42260SOL    HW128677   7.209   3.562  10.866
42260SOL    HW228678   7.064   3.572  10.906
42261SOL     OW28679   2.496   4.328  13.706
42261SOL    HW128680   2.508   4.310  13.799
42261SOL    HW228681   2.570   4.283  13.664
42262SOL     OW28682   2.980   2.253   8.365
42262SOL    HW128683   3.073   2.279   8.363
42262SOL    HW228684   2.956   2.243   8.273
42263SOL     OW28685   7.867   5.278   3.476
42263SOL    HW128686   7.902   5.339   3.411
42263SOL    HW228687   7.937   5.215   3.490
42264SOL     OW28688  14.470   9.561   7.787
42264SOL    HW128689  14.398   9.500   7.772
42264SOL    HW228690  14.488   9.555   7.881
42265SOL     OW28691   3.998   4.456   9.457
42265SOL    HW128692   4.012   4.437   9.365
42265SOL    HW228693   3.979   4.370   9.497
42266SOL     OW28694   5.582   2.528  14.691
42266SOL    HW128695   5.519   2.592  14.657
42266SOL    HW228696   5.534   2.445  14.688
42267SOL     OW28697   5.536   2.875  11.300
42267SOL    HW128698   5.447   2.870  11.335
42267SOL    HW228699   5.589   2.909  11.373
42268SOL     OW28700  11.207   4.663   1.508
42268SOL    HW128701  11.212   4.710   1.425
42268SOL    HW228702  11.146   4.716   1.561
42269SOL     OW28703  11.603   2.366   8.826
42269SOL    HW128704  11.510   2.388   8.838
42269SOL    HW228705  11.608   2.331   8.737
42270SOL     OW28706   0.640   6.943   0.977
42270SOL    HW128707   0.647   6.997   1.057
42270SOL    HW228708   0.561   6.976   0.933
42271SOL     OW28709   9.620   6.292   9.918
42271SOL    HW128710   9.553   6.224   9.913
42271SOL    HW228711   9.664   6.277  10.001
42272SOL     OW28712  13.708   8.137   2.531
42272SOL    HW128713  13.767   8.064   2.515
42272SOL    HW228714  13.679   8.164   2.444
42273SOL     OW28715   9.321   5.473   8.591
42273SOL    HW128716   9.340   5.493   8.499
42273SOL    HW228717   9.291   5.556   8.628
42274SOL     OW28718   7.947  13.873   4.502
42274SOL    HW128719   7.930  13.939   4.568
42274SOL    HW228720   7.871  13.814   4.507
42275SOL     OW28721   0.042  13.231  10.880
42275SOL    HW128722   0.123  13.199  10.841
42275SOL    HW228723   0.054  13.218  10.974
42276SOL     OW28724  13.778  13.339  13.662
42276SOL    HW128725  13.826  13.414  13.627
42276SOL    HW228726  13.747  13.368  13.748
42277SOL     OW28727  10.984   4.296   6.388
42277SOL    HW128728  10.929   4.250   6.451
42277SOL    HW228729  10.972   4.249   6.306
42278SOL     OW28730  13.750   6.766   9.227
42278SOL    HW128731  13.792   6.718   9.155
42278SOL    HW228732  13.727   6.699   9.291
42279SOL     OW28733   9.216  10.456   8.441
42279SOL    HW128734   9.211  10.551   8.426
42279SOL    HW228735   9.302  10.432   8.408
42280SOL     OW28736   8.832   4.976  10.865
42280SOL    HW128737   8.818   4.969  10.770
42280SOL    HW228738   8.818   4.887  10.897
42281SOL     OW28739  14.235   9.241   3.251
42281SOL    HW128740  14.278   9.303   3.192
42281SOL    HW228741  14.218   9.293   3.331
42282SOL     OW28742   8.888   2.493   6.129
42282SOL    HW128743   8.938   2.574   6.141
42282SOL    HW228744   8.878   2.458   6.218
42283SOL     OW28745   3.552   8.357  13.443
42283SOL    HW128746   3.505   8.293  13.495
42283SOL    HW228747   3.633   8.375  13.492
42284SOL     OW28748   6.136   1.810   2.732
42284SOL    HW128749   6.189   1.773   2.662
42284SOL    HW228750   6.200   1.849   2.792
42285SOL     OW28751  10.761  14.694  13.579
42285SOL    HW128752  10.739  14.652  13.496
42285SOL    HW228753  10.710  14.775  13.579
42286SOL     OW28754   7.272   5.263   5.473
42286SOL    HW128755   7.341   5.325   5.447
42286SOL    HW228756   7.216   5.313   5.533
42287SOL     OW28757   6.808   6.530   4.715
42287SOL    HW128758   6.738   6.594   4.701
42287SOL    HW228759   6.886   6.584   4.729
42288SOL     OW28760   2.449   9.559  12.210
42288SOL    HW128761   2.465   9.511  12.129
42288SOL    HW228762   2.430   9.649  12.182
42289SOL     OW28763   2.337   6.077   5.292
42289SOL    HW128764   2.412   6.035   5.334
42289SOL    HW228765   2.375   6.129   5.222
42290SOL     OW28766   4.879   4.544   8.368
42290SOL    HW128767   4.896   4.482   8.439
42290SOL    HW228768   4.965   4.583   8.349
42291SOL     OW28769   0.001   5.675  11.226
42291SOL    HW128770   0.040   5.693  11.312
42291SOL    HW228771  14.789   5.691  11.238
42292SOL     OW28772   3.774   7.899   3.828
42292SOL    HW128773   3.800   7.984   3.864
42292SOL    HW228774   3.710   7.920   3.760
42293SOL     OW28775   4.102  10.453   4.520
42293SOL    HW128776   4.087  10.376   4.466
42293SOL    HW228777   4.103  10.527   4.458
42294SOL     OW28778   5.480   4.078  10.333
42294SOL    HW128779   5.401   4.132  10.328
42294SOL    HW228780   5.472   4.017  10.259
42295SOL     OW28781  11.810   8.991  14.781
42295SOL    HW128782  11.823   9.033  14.866
42295SOL    HW228783  11.736   9.038  14.743
42296SOL     OW28784   0.732  14.198   5.095
42296SOL    HW128785   0.710  14.252   5.170
42296SOL    HW228786   0.687  14.240   5.021
42297SOL     OW28787   6.482   2.752   9.712
42297SOL    HW128788   6.404   2.792   9.753
42297SOL    HW228789   6.540   2.733   9.785
42298SOL     OW28790  13.278   7.963   1.493
42298SOL    HW128791  13.237   7.896   1.438
42298SOL    HW228792  13.345   7.916   1.543
42299SOL     OW28793  12.501  12.882   5.580
42299SOL    HW128794  12.428  12.844   5.533
42299SOL    HW228795  12.571  12.889   5.515
42300SOL     OW28796   9.551   7.930  10.849
42300SOL    HW128797   9.488   7.910  10.918
42300SOL    HW228798   9.504   7.913  10.768
42301SOL     OW28799   3.360  12.199   1.542
42301SOL    HW128800   3.353  12.111   1.576
42301SOL    HW228801   3.429  12.193   1.475
42302SOL     OW28802  10.646   3.205   6.521
42302SOL    HW128803  10.723   3.202   6.577
42302SOL    HW228804  10.599   3.284   6.548
42303SOL     OW28805   1.771  14.790   4.875
42303SOL    HW128806   1.853  14.826   4.840
42303SOL    HW228807   1.760  14.707   4.828
42304SOL     OW28808   2.228   0.490   0.787
42304SOL    HW128809   2.135   0.497   0.767
42304SOL    HW228810   2.262   0.578   0.769
42305SOL     OW28811  14.499   7.873  12.866
42305SOL    HW128812  14.465   7.805  12.924
42305SOL    HW228813  14.492   7.834  12.778
42306SOL     OW28814  13.263   6.046  13.020
42306SOL    HW128815  13.253   6.142  13.021
42306SOL    HW228816  13.324   6.030  12.948
42307SOL     OW28817   3.056   7.692  13.407
42307SOL    HW128818   3.136   7.698  13.460
42307SOL    HW228819   3.087   7.673  13.318
42308SOL     OW28820  10.350   2.125  14.181
42308SOL    HW128821  10.380   2.144  14.269
42308SOL    HW228822  10.265   2.168  14.175
42309SOL     OW28823   6.917   2.184  10.299
42309SOL    HW128824   6.911   2.090  10.285
42309SOL    HW228825   6.827   2.214  10.309
42310SOL     OW28826   4.961  14.562  12.181
42310SOL    HW128827   5.002  14.478  12.159
42310SOL    HW228828   4.887  14.538  12.236
42311SOL     OW28829   3.947   2.452   4.552
42311SOL    HW128830   3.934   2.507   4.629
42311SOL    HW228831   3.901   2.371   4.573
42312SOL     OW28832  10.912  12.199  10.147
42312SOL    HW128833  10.820  12.204  10.172
42312SOL    HW228834  10.915  12.134  10.077
42313SOL     OW28835   6.683   0.103  11.241
42313SOL    HW128836   6.713   0.108  11.150
42313SOL    HW228837   6.592   0.135  11.238
42314SOL     OW28838   4.406   8.400  12.004
42314SOL    HW128839   4.443   8.377  12.089
42314SOL    HW228840   4.323   8.443  12.024
42315SOL     OW28841   4.690  13.869   1.654
42315SOL    HW128842   4.669  13.895   1.564
42315SOL    HW228843   4.768  13.919   1.675
42316SOL     OW28844   7.533   5.303   8.310
42316SOL    HW128845   7.518   5.309   8.405
42316SOL    HW228846   7.568   5.388   8.286
42317SOL     OW28847   1.638  10.465   3.449
42317SOL    HW128848   1.724  10.473   3.490
42317SOL    HW228849   1.656  10.473   3.355
42318SOL     OW28850   5.018   2.846   9.642
42318SOL    HW128851   4.947   2.807   9.693
42318SOL    HW228852   5.073   2.772   9.618
42319SOL     OW28853   1.097   8.930  11.352
42319SOL    HW128854   1.176   8.947  11.403
42319SOL    HW228855   1.115   8.849  11.305
42320SOL     OW28856   7.432   7.783   7.351
42320SOL    HW128857   7.404   7.830   7.429
42320SOL    HW228858   7.419   7.845   7.279
42321SOL     OW28859  10.934  14.681   3.667
42321SOL    HW128860  10.940  14.756   3.608
42321SOL    HW228861  11.017  14.634   3.656
42322SOL     OW28862   2.962   9.237   4.734
42322SOL    HW128863   2.939   9.224   4.826
42322SOL    HW228864   2.878   9.254   4.691
42323SOL     OW28865   3.142  12.688   4.279
42323SOL    HW128866   3.102  12.604   4.259
42323SOL    HW228867   3.216  12.667   4.336
42324SOL     OW28868  10.970  11.990  11.157
42324SOL    HW128869  10.916  11.927  11.111
42324SOL    HW228870  10.910  12.061  11.181
42325SOL     OW28871   4.555   5.773  14.727
42325SOL    HW128872   4.570   5.716  14.803
42325SOL    HW228873   4.460   5.777  14.719
42326SOL     OW28874   6.604   3.803   9.346
42326SOL    HW128875   6.620   3.885   9.394
42326SOL    HW228876   6.667   3.741   9.384
42327SOL     OW28877   8.284   0.789   2.387
42327SOL    HW128878   8.194   0.761   2.399
42327SOL    HW228879   8.319   0.731   2.319
42328SOL     OW28880   3.850   8.459  14.157
42328SOL    HW128881   3.824   8.382  14.105
42328SOL    HW228882   3.924   8.429  14.209
42329SOL     OW28883   2.690   4.812   5.670
42329SOL    HW128884   2.623   4.843   5.608
42329SOL    HW228885   2.668   4.856   5.752
42330SOL     OW28886   2.049   6.292  12.781
42330SOL    HW128887   2.072   6.355  12.713
42330SOL    HW228888   1.979   6.239  12.743
42331SOL     OW28889  14.201   9.035   4.763
42331SOL    HW128890  14.285   9.082   4.764
42331SOL    HW228891  14.196   8.993   4.849
42332SOL     OW28892   6.433   4.821   9.071
42332SOL    HW128893   6.462   4.732   9.052
42332SOL    HW228894   6.382   4.813   9.152
42333SOL     OW28895   3.403  12.664   6.568
42333SOL    HW128896   3.411  12.667   6.663
42333SOL    HW228897   3.409  12.755   6.540
42334SOL     OW28898  12.011  10.245  14.755
42334SOL    HW128899  12.074  10.211  14.691
42334SOL    HW228900  11.945  10.288  14.702
42335SOL     OW28901   7.409  12.526  13.990
42335SOL    HW128902   7.348  12.580  14.040
42335SOL    HW228903   7.433  12.455  14.051
42336SOL     OW28904   2.933   6.107  14.773
42336SOL    HW128905   2.909   6.030  14.722
42336SOL    HW228906   2.849   6.149  14.793
42337SOL     OW28907   7.993   1.393  11.767
42337SOL    HW128908   7.901   1.408  11.787
42337SOL    HW228909   7.994   1.373  11.673
42338SOL     OW28910   6.498   6.485  12.660
42338SOL    HW128911   6.421   6.488  12.718
42338SOL    HW228912   6.550   6.561  12.685
42339SOL     OW28913  13.148   2.557   2.202
42339SOL    HW128914  13.214   2.617   2.236
42339SOL    HW228915  13.097   2.532   2.279
42340SOL     OW28916   6.030  10.538   4.758
42340SOL    HW128917   6.057  10.561   4.847
42340SOL    HW228918   6.099  10.480   4.726
42341SOL     OW28919   5.580  14.156   3.106
42341SOL    HW128920   5.588  14.155   3.011
42341SOL    HW228921   5.524  14.081   3.126
42342SOL     OW28922   6.795   7.941   3.984
42342SOL    HW128923   6.868   7.986   4.026
42342SOL    HW228924   6.810   7.849   4.002
42343SOL     OW28925   6.325  13.763   7.596
42343SOL    HW128926   6.346  13.812   7.517
42343SOL    HW228927   6.306  13.675   7.566
42344SOL     OW28928  12.168  10.362  14.344
42344SOL    HW128929  12.257  10.383  14.374
42344SOL    HW228930  12.111  10.404  14.408
42345SOL     OW28931  14.399  10.168   8.602
42345SOL    HW128932  14.358  10.096   8.650
42345SOL    HW228933  14.332  10.237   8.601
42346SOL     OW28934   3.807   3.793   9.432
42346SOL    HW128935   3.901   3.784   9.416
42346SOL    HW228936   3.799   3.807   9.526
42347SOL     OW28937  14.672  10.418   7.348
42347SOL    HW128938  14.627  10.479   7.407
42347SOL    HW228939  14.734  10.371   7.404
42348SOL     OW28940   8.518   1.820  13.717
42348SOL    HW128941   8.425   1.837  13.705
42348SOL    HW228942   8.555   1.905  13.739
42349SOL     OW28943  11.539  10.682   3.795
42349SOL    HW128944  11.454  10.650   3.764
42349SOL    HW228945  11.520  10.767   3.834
42350SOL     OW28946  10.882  11.849   3.609
42350SOL    HW128947  10.917  11.830   3.522
42350SOL    HW228948  10.956  11.889   3.656
42351SOL     OW28949   2.658  10.985  11.778
42351SOL    HW128950   2.673  11.052  11.845
42351SOL    HW228951   2.605  11.029  11.712
42352SOL     OW28952  11.313   6.862   5.596
42352SOL    HW128953  11.254   6.927   5.635
42352SOL    HW228954  11.299   6.783   5.647
42353SOL     OW28955   8.403  13.537  12.583
42353SOL    HW128956   8.486  13.582  12.601
42353SOL    HW228957   8.338  13.606  12.579
42354SOL     OW28958  12.881  10.360  10.001
42354SOL    HW128959  12.888  10.420   9.927
42354SOL    HW228960  12.951  10.386  10.060
42355SOL     OW28961   9.451   2.379   3.675
42355SOL    HW128962   9.397   2.456   3.696
42355SOL    HW228963   9.493   2.356   3.758
42356SOL     OW28964   8.403  10.285   6.893
42356SOL    HW128965   8.405  10.277   6.989
42356SOL    HW228966   8.444  10.205   6.862
42357SOL     OW28967   7.677  10.017  12.765
42357SOL    HW128968   7.694   9.930  12.799
42357SOL    HW228969   7.641  10.065  12.840
42358SOL     OW28970   7.970   7.571   3.380
42358SOL    HW128971   7.982   7.599   3.290
42358SOL    HW228972   7.899   7.627   3.414
42359SOL     OW28973   9.889   3.014   3.037
42359SOL    HW128974   9.853   3.097   3.006
42359SOL    HW228975   9.932   2.975   2.961
42360SOL     OW28976  13.536   5.883   5.864
42360SOL    HW128977  13.446   5.911   5.849
42360SOL    HW228978  13.560   5.835   5.785
42361SOL     OW28979   5.790   6.420   3.200
42361SOL    HW128980   5.739   6.472   3.137
42361SOL    HW228981   5.849   6.368   3.145
42362SOL     OW28982  13.397   1.077  14.512
42362SOL    HW128983  13.360   0.989  14.514
42362SOL    HW228984  13.441   1.087  14.597
42363SOL     OW28985   0.401  10.471  12.691
42363SOL    HW128986   0.478  10.423  12.659
42363SOL    HW228987   0.435  10.558  12.714
42364SOL     OW28988   6.035   9.836   8.228
42364SOL    HW128989   6.051   9.785   8.149
42364SOL    HW228990   6.055   9.775   8.300
42365SOL     OW28991   6.925   8.788   9.006
42365SOL    HW128992   6.850   8.730   8.998
42365SOL    HW228993   6.996   8.731   9.035
42366SOL     OW28994   0.240   3.833  13.770
42366SOL    HW128995   0.290   3.909  13.802
42366SOL    HW228996   0.250   3.767  13.838
42367SOL     OW28997   8.913   6.631   2.698
42367SOL    HW128998   8.962   6.684   2.760
42367SOL    HW228999   8.826   6.622   2.737
42368SOL     OW29000  11.179   7.317   3.522
42368SOL    HW129001  11.208   7.397   3.478
42368SOL    HW229002  11.142   7.263   3.451
42369SOL     OW29003  12.536  12.846   4.024
42369SOL    HW129004  12.528  12.934   3.988
42369SOL    HW229005  12.482  12.792   3.967
42370SOL     OW29006   2.471  13.610   4.703
42370SOL    HW129007   2.405  13.603   4.635
42370SOL    HW229008   2.451  13.538   4.763
42371SOL     OW29009   0.509   0.004   9.458
42371SOL    HW129010   0.531   0.023   9.549
42371SOL    HW229011   0.590  14.852   9.421
42372SOL     OW29012  10.673  11.411  13.847
42372SOL    HW129013  10.665  11.418  13.752
42372SOL    HW229014  10.722  11.489  13.873
42373SOL     OW29015   4.259   8.930   1.526
42373SOL    HW129016   4.174   8.929   1.568
42373SOL    HW229017   4.242   8.956   1.435
42374SOL     OW29018   8.673  13.162   0.360
42374SOL    HW129019   8.764  13.193   0.366
42374SOL    HW229020   8.681  13.073   0.327
42375SOL     OW29021  11.744   8.122   9.131
42375SOL    HW129022  11.709   8.170   9.205
42375SOL    HW229023  11.666   8.085   9.087
42376SOL     OW29024   8.342  13.757   8.030
42376SOL    HW129025   8.389  13.675   8.013
42376SOL    HW229026   8.395  13.803   8.094
42377SOL     OW29027  13.719   1.231   2.594
42377SOL    HW129028  13.645   1.184   2.558
42377SOL    HW229029  13.736   1.302   2.532
42378SOL     OW29030   8.933   9.351   5.908
42378SOL    HW129031   8.947   9.328   6.000
42378SOL    HW229032   8.839   9.363   5.900
42379SOL     OW29033   6.432  10.091  13.646
42379SOL    HW129034   6.517  10.126  13.621
42379SOL    HW229035   6.450  10.002  13.674
42380SOL     OW29036   9.215   7.219  14.871
42380SOL    HW129037   9.125   7.229   0.021
42380SOL    HW229038   9.245   7.308  14.855
42381SOL     OW29039   6.082  14.683   5.488
42381SOL    HW129040   5.990  14.664   5.469
42381SOL    HW229041   6.081  14.715   5.578
42382SOL     OW29042   1.233   8.099   5.348
42382SOL    HW129043   1.206   8.093   5.440
42382SOL    HW229044   1.305   8.037   5.339
42383SOL     OW29045   6.055   8.717   0.124
42383SOL    HW129046   6.024   8.798   0.083
42383SOL    HW229047   5.980   8.657   0.119
42384SOL     OW29048   5.754   3.020   6.452
42384SOL    HW129049   5.729   2.943   6.401
42384SOL    HW229050   5.787   2.985   6.535
42385SOL     OW29051   3.044  14.515  14.035
42385SOL    HW129052   2.983  14.561  14.093
42385SOL    HW229053   2.993  14.499  13.955
42386SOL     OW29054  13.788   9.354  12.270
42386SOL    HW129055  13.821   9.385  12.186
42386SOL    HW229056  13.809   9.425  12.331
42387SOL     OW29057   3.502   1.417  12.822
42387SOL    HW129058   3.526   1.442  12.733
42387SOL    HW229059   3.566   1.350  12.846
42388SOL     OW29060   3.945  13.277  13.750
42388SOL    HW129061   3.887  13.202  13.750
42388SOL    HW229062   3.995  13.269  13.669
42389SOL     OW29063   3.280   2.798   3.373
42389SOL    HW129064   3.334   2.726   3.341
42389SOL    HW229065   3.192   2.777   3.341
42390SOL     OW29066   3.530   8.041   5.579
42390SOL    HW129067   3.541   8.136   5.573
42390SOL    HW229068   3.564   8.019   5.665
42391SOL     OW29069  11.489   8.420   4.031
42391SOL    HW129070  11.471   8.513   4.045
42391SOL    HW229071  11.568   8.419   3.976
42392SOL     OW29072  10.207  12.728   9.662
42392SOL    HW129073  10.160  12.811   9.665
42392SOL    HW229074  10.278  12.743   9.599
42393SOL     OW29075  10.226   6.479   9.808
42393SOL    HW129076  10.260   6.389   9.810
42393SOL    HW229077  10.258   6.518   9.889
42394SOL     OW29078  13.405   3.528   4.997
42394SOL    HW129079  13.397   3.614   4.956
42394SOL    HW229080  13.401   3.546   5.091
42395SOL     OW29081   1.667   7.036   6.558
42395SOL    HW129082   1.743   6.992   6.520
42395SOL    HW229083   1.701   7.081   6.635
42396SOL     OW29084   1.370   8.638  14.231
42396SOL    HW129085   1.440   8.680  14.282
42396SOL    HW229086   1.382   8.673  14.142
42397SOL     OW29087   7.681  14.483  11.736
42397SOL    HW129088   7.701  14.481  11.642
42397SOL    HW229089   7.589  14.460  11.742
42398SOL     OW29090   8.503   0.673   5.422
42398SOL    HW129091   8.448   0.717   5.486
42398SOL    HW229092   8.543   0.600   5.470
42399SOL     OW29093  14.273   4.030   5.964
42399SOL    HW129094  14.208   3.961   5.954
42399SOL    HW229095  14.332   3.999   6.032
42400SOL     OW29096   7.666   6.504  14.005
42400SOL    HW129097   7.707   6.440  14.063
42400SOL    HW229098   7.574   6.505  14.032
42401SOL     OW29099   7.014   5.695   8.100
42401SOL    HW129100   7.019   5.770   8.159
42401SOL    HW229101   7.105   5.671   8.083
42402SOL     OW29102   5.732   4.655   0.508
42402SOL    HW129103   5.727   4.748   0.528
42402SOL    HW229104   5.674   4.613   0.573
42403SOL     OW29105   5.856   3.075   7.194
42403SOL    HW129106   5.777   3.055   7.244
42403SOL    HW229107   5.927   3.039   7.248
42404SOL     OW29108  13.210  10.642  13.520
42404SOL    HW129109  13.152  10.594  13.460
42404SOL    HW229110  13.265  10.694  13.462
42405SOL     OW29111   0.927   6.546  10.526
42405SOL    HW129112   1.004   6.560  10.582
42405SOL    HW229113   0.864   6.613  10.554
42406SOL     OW29114   8.706  14.491  11.717
42406SOL    HW129115   8.664  14.405  11.713
42406SOL    HW229116   8.745  14.494  11.804
42407SOL     OW29117   9.036  11.918   3.312
42407SOL    HW129118   9.102  11.956   3.369
42407SOL    HW229119   9.081  11.846   3.268
42408SOL     OW29120  14.642  10.051  11.836
42408SOL    HW129121  14.626   9.968  11.881
42408SOL    HW229122  14.670  10.111  11.905
42409SOL     OW29123   5.043   8.399   2.490
42409SOL    HW129124   5.021   8.313   2.454
42409SOL    HW229125   5.101   8.438   2.425
42410SOL     OW29126   9.310  13.999   5.068
42410SOL    HW129127   9.318  14.095   5.065
42410SOL    HW229128   9.265  13.982   5.151
42411SOL     OW29129   8.128   7.554   1.268
42411SOL    HW129130   8.120   7.459   1.276
42411SOL    HW229131   8.056   7.579   1.209
42412SOL     OW29132   1.970   5.384  12.950
42412SOL    HW129133   2.005   5.337  12.875
42412SOL    HW229134   2.035   5.371  13.020
42413SOL     OW29135  14.340  11.426   0.101
42413SOL    HW129136  14.312  11.359   0.163
42413SOL    HW229137  14.274  11.424   0.032
42414SOL     OW29138  12.489   6.196  10.547
42414SOL    HW129139  12.486   6.106  10.580
42414SOL    HW229140  12.580   6.222  10.557
42415SOL     OW29141   6.311   9.857   0.874
42415SOL    HW129142   6.279   9.799   0.944
42415SOL    HW229143   6.380   9.806   0.831
42416SOL     OW29144   6.572  10.780   4.378
42416SOL    HW129145   6.556  10.874   4.364
42416SOL    HW229146   6.589  10.772   4.472
42417SOL     OW29147   4.165   4.506   7.876
42417SOL    HW129148   4.144   4.599   7.863
42417SOL    HW229149   4.106   4.478   7.946
42418SOL     OW29150  12.178  11.315   7.957
42418SOL    HW129151  12.158  11.234   7.909
42418SOL    HW229152  12.104  11.326   8.016
42419SOL     OW29153  14.502   1.996   8.670
42419SOL    HW129154  14.465   2.082   8.651
42419SOL    HW229155  14.426   1.941   8.686
42420SOL     OW29156  11.934  12.754  12.825
42420SOL    HW129157  11.884  12.835  12.811
42420SOL    HW229158  11.879  12.685  12.788
42421SOL     OW29159   8.527  12.601  10.438
42421SOL    HW129160   8.450  12.645  10.401
42421SOL    HW229161   8.544  12.647  10.521
42422SOL     OW29162   3.073  12.261   4.826
42422SOL    HW129163   3.047  12.230   4.739
42422SOL    HW229164   3.032  12.200   4.887
42423SOL     OW29165  12.747   7.149   7.133
42423SOL    HW129166  12.690   7.223   7.153
42423SOL    HW229167  12.721   7.121   7.045
42424SOL     OW29168  13.309  14.665   6.974
42424SOL    HW129169  13.219  14.699   6.966
42424SOL    HW229170  13.364  14.740   6.953
42425SOL     OW29171   1.676   2.789  13.261
42425SOL    HW129172   1.711   2.875  13.284
42425SOL    HW229173   1.718   2.768  13.178
42426SOL     OW29174   5.247  14.430   3.925
42426SOL    HW129175   5.221  14.488   3.996
42426SOL    HW229176   5.169  14.378   3.906
42427SOL     OW29177  12.082  12.328  11.220
42427SOL    HW129178  12.121  12.380  11.150
42427SOL    HW229179  12.061  12.244  11.179
42428SOL     OW29180  12.748   2.469   1.493
42428SOL    HW129181  12.671   2.526   1.484
42428SOL    HW229182  12.796   2.506   1.568
42429SOL     OW29183   1.061   9.765  11.242
42429SOL    HW129184   1.044   9.779  11.149
42429SOL    HW229185   1.140   9.711  11.243
42430SOL     OW29186   8.060   0.357   1.498
42430SOL    HW129187   7.985   0.333   1.444
42430SOL    HW229188   8.026   0.363   1.587
42431SOL     OW29189   2.431  12.254   6.837
42431SOL    HW129190   2.376  12.184   6.802
42431SOL    HW229191   2.476  12.213   6.912
42432SOL     OW29192   5.130   4.614   5.821
42432SOL    HW129193   5.069   4.687   5.833
42432SOL    HW229194   5.216   4.652   5.838
42433SOL     OW29195   5.244   4.696   7.767
42433SOL    HW129196   5.285   4.781   7.781
42433SOL    HW229197   5.152   4.709   7.792
42434SOL     OW29198   1.971   2.011  10.596
42434SOL    HW129199   1.991   1.956  10.520
42434SOL    HW229200   2.042   1.993  10.657
42435SOL     OW29201   2.155   2.724   7.519
42435SOL    HW129202   2.142   2.644   7.569
42435SOL    HW229203   2.133   2.794   7.580
42436SOL     OW29204   5.054   4.320  12.631
42436SOL    HW129205   5.019   4.245  12.679
42436SOL    HW229206   5.135   4.342  12.676
42437SOL     OW29207   7.313   6.583   9.801
42437SOL    HW129208   7.320   6.511   9.863
42437SOL    HW229209   7.239   6.559   9.745
42438SOL     OW29210   0.949  14.353   9.476
42438SOL    HW129211   0.950  14.373   9.570
42438SOL    HW229212   0.894  14.420   9.437
42439SOL     OW29213   4.003  14.023   1.653
42439SOL    HW129214   3.962  14.039   1.738
42439SOL    HW229215   4.029  13.931   1.656
42440SOL     OW29216   4.711   0.615  11.891
42440SOL    HW129217   4.686   0.705  11.909
42440SOL    HW229218   4.706   0.571  11.975
42441SOL     OW29219  12.757  13.116   1.055
42441SOL    HW129220  12.805  13.033   1.054
42441SOL    HW229221  12.813  13.175   1.106
42442SOL     OW29222  10.801  11.063   4.716
42442SOL    HW129223  10.732  11.110   4.670
42442SOL    HW229224  10.758  10.986   4.752
42443SOL     OW29225  14.450  12.343  11.861
42443SOL    HW129226  14.464  12.416  11.800
42443SOL    HW229227  14.440  12.266  11.804
42444SOL     OW29228   0.506  11.040  14.871
42444SOL    HW129229   0.417  11.009   0.007
42444SOL    HW229230   0.516  11.027  14.776
42445SOL     OW29231  12.015  12.569  14.386
42445SOL    HW129232  11.973  12.486  14.363
42445SOL    HW229233  11.945  12.623  14.421
42446SOL     OW29234   9.476   8.220   5.598
42446SOL    HW129235   9.488   8.132   5.562
42446SOL    HW229236   9.402   8.256   5.549
42447SOL     OW29237   0.891  12.334   9.770
42447SOL    HW129238   0.826  12.311   9.703
42447SOL    HW229239   0.945  12.256   9.779
42448SOL     OW29240  11.526  10.448   9.303
42448SOL    HW129241  11.548  10.528   9.351
42448SOL    HW229242  11.527  10.379   9.369
42449SOL     OW29243  10.377   1.306   2.219
42449SOL    HW129244  10.357   1.381   2.165
42449SOL    HW229245  10.387   1.342   2.308
42450SOL     OW29246   2.069   3.520   3.347
42450SOL    HW129247   2.040   3.447   3.293
42450SOL    HW229248   2.137   3.564   3.295
42451SOL     OW29249   4.801   3.024   4.687
42451SOL    HW129250   4.795   3.042   4.781
42451SOL    HW229251   4.823   2.931   4.681
42452SOL     OW29252   1.806  13.886   5.583
42452SOL    HW129253   1.873  13.883   5.651
42452SOL    HW229254   1.825  13.966   5.534
42453SOL     OW29255   4.249  11.201  10.710
42453SOL    HW129256   4.314  11.164  10.770
42453SOL    HW229257   4.165  11.171  10.745
42454SOL     OW29258   3.067  14.514  12.356
42454SOL    HW129259   3.051  14.420  12.368
42454SOL    HW229260   3.109  14.542  12.436
42455SOL     OW29261  10.474   4.345   1.184
42455SOL    HW129262  10.420   4.330   1.107
42455SOL    HW229263  10.519   4.427   1.167
42456SOL     OW29264  13.832   6.391  12.222
42456SOL    HW129265  13.804   6.465  12.275
42456SOL    HW229266  13.761   6.328  12.230
42457SOL     OW29267   7.294   1.886   5.175
42457SOL    HW129268   7.229   1.819   5.152
42457SOL    HW229269   7.256   1.968   5.142
42458SOL     OW29270  11.302  10.176  11.435
42458SOL    HW129271  11.285  10.249  11.496
42458SOL    HW229272  11.324  10.219  11.353
42459SOL     OW29273   5.019   9.138   5.493
42459SOL    HW129274   4.956   9.177   5.432
42459SOL    HW229275   4.990   9.167   5.579
42460SOL     OW29276   9.837   8.352   6.680
42460SOL    HW129277   9.791   8.431   6.652
42460SOL    HW229278   9.910   8.344   6.618
42461SOL     OW29279   9.140   7.640   5.956
42461SOL    HW129280   9.163   7.715   6.011
42461SOL    HW229281   9.222   7.615   5.914
42462SOL     OW29282   1.476  14.416   1.910
42462SOL    HW129283   1.542  14.358   1.949
42462SOL    HW229284   1.408  14.422   1.977
42463SOL     OW29285   6.800   1.411   0.199
42463SOL    HW129286   6.727   1.373   0.150
42463SOL    HW229287   6.871   1.416   0.135
42464SOL     OW29288  11.726   4.857   4.075
42464SOL    HW129289  11.781   4.932   4.052
42464SOL    HW229290  11.652   4.863   4.014
42465SOL     OW29291  12.346   4.952  13.258
42465SOL    HW129292  12.396   4.919  13.184
42465SOL    HW229293  12.401   5.020  13.296
42466SOL     OW29294   4.966   9.047   0.548
42466SOL    HW129295   4.996   9.089   0.629
42466SOL    HW229296   4.903   9.110   0.511
42467SOL     OW29297   4.274  10.445  11.542
42467SOL    HW129298   4.248  10.373  11.599
42467SOL    HW229299   4.254  10.524  11.592
42468SOL     OW29300  12.149   0.963  14.660
42468SOL    HW129301  12.122   0.976  14.751
42468SOL    HW229302  12.205   0.886  14.662
42469SOL     OW29303  13.137  10.739   8.642
42469SOL    HW129304  13.077  10.785   8.701
42469SOL    HW229305  13.142  10.650   8.677
42470SOL     OW29306  13.233  10.058   8.406
42470SOL    HW129307  13.268   9.969   8.403
42470SOL    HW229308  13.224  10.084   8.315
42471SOL     OW29309   3.077  10.045  11.758
42471SOL    HW129310   3.116  10.132  11.750
42471SOL    HW229311   3.006  10.055  11.821
42472SOL     OW29312  14.805   5.577  12.424
42472SOL    HW129313  14.770   5.502  12.377
42472SOL    HW229314  14.743   5.593  12.495
42473SOL     OW29315  12.802  13.337  11.875
42473SOL    HW129316  12.854  13.311  11.799
42473SOL    HW229317  12.715  13.300  11.858
42474SOL     OW29318   4.532   9.024   7.777
42474SOL    HW129319   4.455   9.051   7.728
42474SOL    HW229320   4.592   8.990   7.710
42475SOL     OW29321   1.124   9.892   8.821
42475SOL    HW129322   1.091   9.945   8.893
42475SOL    HW229323   1.135   9.953   8.748
42476SOL     OW29324   0.949  12.995   3.969
42476SOL    HW129325   0.934  12.905   3.999
42476SOL    HW229326   1.038  13.015   3.999
42477SOL     OW29327   1.111   0.061   2.498
42477SOL    HW129328   1.072   0.012   2.570
42477SOL    HW229329   1.062   0.033   2.421
42478SOL     OW29330   8.916  10.789  12.580
42478SOL    HW129331   8.854  10.723  12.548
42478SOL    HW229332   8.864  10.868  12.591
42479SOL     OW29333  10.861  11.962   2.484
42479SOL    HW129334  10.797  11.897   2.512
42479SOL    HW229335  10.920  11.914   2.426
42480SOL     OW29336   2.030   4.476   4.624
42480SOL    HW129337   2.086   4.400   4.642
42480SOL    HW229338   1.998   4.461   4.535
42481SOL     OW29339   5.049   3.099  11.451
42481SOL    HW129340   5.026   3.069  11.539
42481SOL    HW229341   5.062   3.018  11.401
42482SOL     OW29342   1.290   0.760  11.448
42482SOL    HW129343   1.266   0.768  11.356
42482SOL    HW229344   1.208   0.744  11.493
42483SOL     OW29345   4.759   9.942   2.016
42483SOL    HW129346   4.788   9.912   2.102
42483SOL    HW229347   4.713   9.867   1.979
42484SOL     OW29348   4.340   7.106  10.723
42484SOL    HW129349   4.346   7.021  10.680
42484SOL    HW229350   4.417   7.110  10.779
42485SOL     OW29351   2.189   4.781   8.230
42485SOL    HW129352   2.181   4.752   8.321
42485SOL    HW229353   2.274   4.824   8.226
42486SOL     OW29354   9.699   4.173   0.583
42486SOL    HW129355   9.756   4.241   0.547
42486SOL    HW229356   9.724   4.167   0.675
42487SOL     OW29357   7.849   9.601   5.353
42487SOL    HW129358   7.797   9.568   5.280
42487SOL    HW229359   7.797   9.582   5.431
42488SOL     OW29360   6.570  13.351   2.615
42488SOL    HW129361   6.643  13.320   2.669
42488SOL    HW229362   6.538  13.429   2.660
42489SOL     OW29363   6.816   6.098   6.683
42489SOL    HW129364   6.872   6.161   6.638
42489SOL    HW229365   6.850   6.094   6.772
42490SOL     OW29366   4.878  13.592   1.348
42490SOL    HW129367   4.896  13.662   1.411
42490SOL    HW229368   4.871  13.513   1.401
42491SOL     OW29369  10.268   6.644   8.008
42491SOL    HW129370  10.310   6.724   8.039
42491SOL    HW229371  10.217   6.672   7.931
42492SOL     OW29372   6.580   2.569   9.103
42492SOL    HW129373   6.485   2.581   9.103
42492SOL    HW229374   6.607   2.591   9.014
42493SOL     OW29375  12.508  12.207   4.704
42493SOL    HW129376  12.463  12.147   4.764
42493SOL    HW229377  12.470  12.188   4.619
42494SOL     OW29378   1.984  11.228  13.696
42494SOL    HW129379   1.971  11.134  13.679
42494SOL    HW229380   1.986  11.235  13.792
42495SOL     OW29381  13.127   6.297   2.557
42495SOL    HW129382  13.086   6.267   2.639
42495SOL    HW229383  13.215   6.259   2.559
42496SOL     OW29384   9.284  12.201   9.254
42496SOL    HW129385   9.195  12.165   9.260
42496SOL    HW229386   9.303  12.233   9.342
42497SOL     OW29387  10.973  12.296  13.650
42497SOL    HW129388  11.011  12.234  13.587
42497SOL    HW229389  10.886  12.261  13.669
42498SOL     OW29390   7.113   4.562  14.633
42498SOL    HW129391   7.112   4.519  14.719
42498SOL    HW229392   7.058   4.506  14.579
42499SOL     OW29393   7.016   9.844   3.946
42499SOL    HW129394   7.054   9.763   3.912
42499SOL    HW229395   7.091   9.896   3.974
42500SOL     OW29396   2.265   3.512  13.441
42500SOL    HW129397   2.231   3.597  13.468
42500SOL    HW229398   2.207   3.448  13.483
42501SOL     OW29399   2.410   2.890  11.338
42501SOL    HW129400   2.316   2.898  11.326
42501SOL    HW229401   2.446   2.889  11.249
42502SOL     OW29402   2.965  13.058   2.713
42502SOL    HW129403   2.948  13.021   2.799
42502SOL    HW229404   3.028  12.998   2.673
42503SOL     OW29405   7.700   6.262  11.148
42503SOL    HW129406   7.674   6.241  11.238
42503SOL    HW229407   7.699   6.178  11.102
42504SOL     OW29408   2.702   9.770  14.038
42504SOL    HW129409   2.728   9.831  14.107
42504SOL    HW229410   2.779   9.762  13.983
42505SOL     OW29411   9.350   4.805  14.624
42505SOL    HW129412   9.272   4.774  14.671
42505SOL    HW229413   9.315   4.843  14.543
42506SOL     OW29414  13.007   7.391  12.699
42506SOL    HW129415  12.934   7.444  12.667
42506SOL    HW229416  12.994   7.305  12.657
42507SOL     OW29417  12.758   7.908   1.453
42507SOL    HW129418  12.670   7.898   1.416
42507SOL    HW229419  12.813   7.853   1.396
42508SOL     OW29420  13.401   0.726  14.799
42508SOL    HW129421  13.440   0.724  14.711
42508SOL    HW229422  13.407   0.636  14.830
42509SOL     OW29423   2.473   5.876   9.700
42509SOL    HW129424   2.503   5.875   9.608
42509SOL    HW229425   2.378   5.865   9.694
42510SOL     OW29426  11.056   0.520   9.057
42510SOL    HW129427  11.144   0.484   9.062
42510SOL    HW229428  11.012   0.487   9.135
42511SOL     OW29429  13.095   3.248   4.506
42511SOL    HW129430  12.999   3.241   4.509
42511SOL    HW229431  13.115   3.260   4.413
42512SOL     OW29432   2.861  14.002   4.910
42512SOL    HW129433   2.939  14.053   4.935
42512SOL    HW229434   2.879  13.914   4.944
42513SOL     OW29435  12.796   5.037   1.905
42513SOL    HW129436  12.741   4.958   1.903
42513SOL    HW229437  12.737   5.107   1.877
42514SOL     OW29438   6.278  10.511   6.378
42514SOL    HW129439   6.350  10.574   6.380
42514SOL    HW229440   6.252  10.501   6.469
42515SOL     OW29441   5.501   8.037   2.710
42515SOL    HW129442   5.504   8.113   2.653
42515SOL    HW229443   5.430   7.983   2.675
42516SOL     OW29444   5.077  12.340   3.227
42516SOL    HW129445   5.002  12.289   3.198
42516SOL    HW229446   5.119  12.286   3.293
42517SOL     OW29447   5.024   6.757   2.926
42517SOL    HW129448   4.982   6.671   2.936
42517SOL    HW229449   5.020   6.774   2.832
42518SOL     OW29450   0.849   7.322  13.190
42518SOL    HW129451   0.783   7.391  13.176
42518SOL    HW229452   0.910   7.360  13.254
42519SOL     OW29453  13.951   2.657   8.313
42519SOL    HW129454  13.939   2.614   8.229
42519SOL    HW229455  13.934   2.589   8.378
42520SOL     OW29456   8.534  11.224   9.793
42520SOL    HW129457   8.590  11.301   9.782
42520SOL    HW229458   8.491  11.213   9.709
42521SOL     OW29459  14.135  10.777   2.925
42521SOL    HW129460  14.192  10.731   2.864
42521SOL    HW229461  14.155  10.870   2.912
42522SOL     OW29462   5.351   3.706   4.619
42522SOL    HW129463   5.322   3.699   4.710
42522SOL    HW229464   5.446   3.698   4.622
42523SOL     OW29465   8.899   8.952   3.616
42523SOL    HW129466   8.824   8.930   3.562
42523SOL    HW229467   8.942   9.024   3.569
42524SOL     OW29468  12.272   4.725  13.421
42524SOL    HW129469  12.275   4.784  13.346
42524SOL    HW229470  12.259   4.783  13.497
42525SOL     OW29471  13.606   7.452   1.183
42525SOL    HW129472  13.701   7.466   1.186
42525SOL    HW229473  13.581   7.477   1.094
42526SOL     OW29474   2.410  13.921   5.268
42526SOL    HW129475   2.325  13.963   5.262
42526SOL    HW229476   2.395  13.846   5.326
42527SOL     OW29477  14.167  10.376   0.661
42527SOL    HW129478  14.221  10.300   0.687
42527SOL    HW229479  14.099  10.380   0.728
42528SOL     OW29480   8.343   2.555   2.676
42528SOL    HW129481   8.352   2.499   2.599
42528SOL    HW229482   8.432   2.584   2.695
42529SOL     OW29483   5.185   8.093   3.395
42529SOL    HW129484   5.271   8.113   3.357
42529SOL    HW229485   5.190   8.000   3.418
42530SOL     OW29486   2.968   3.333  13.777
42530SOL    HW129487   2.977   3.239  13.760
42530SOL    HW229488   2.912   3.338  13.855
42531SOL     OW29489   4.335   2.111  14.862
42531SOL    HW129490   4.311   2.202  14.876
42531SOL    HW229491   4.421   2.101   0.021
42532SOL     OW29492   2.697  11.824   0.877
42532SOL    HW129493   2.714  11.902   0.929
42532SOL    HW229494   2.602  11.818   0.873
42533SOL     OW29495   6.470   9.579   6.076
42533SOL    HW129496   6.408   9.599   6.006
42533SOL    HW229497   6.552   9.559   6.031
42534SOL     OW29498   4.370  11.202   0.267
42534SOL    HW129499   4.328  11.146   0.333
42534SOL    HW229500   4.354  11.157   0.184
42535SOL     OW29501  10.572  12.673  10.464
42535SOL    HW129502  10.500  12.613  10.483
42535SOL    HW229503  10.559  12.746  10.524
42536SOL     OW29504   9.577   8.236  13.672
42536SOL    HW129505   9.667   8.231  13.641
42536SOL    HW229506   9.564   8.328  13.695
42537SOL     OW29507   1.075  12.078  12.842
42537SOL    HW129508   1.096  12.087  12.935
42537SOL    HW229509   1.160  12.085  12.798
42538SOL     OW29510   5.268   1.951  10.641
42538SOL    HW129511   5.328   1.972  10.712
42538SOL    HW229512   5.295   1.865  10.611
42539SOL     OW29513   3.621   5.049   7.785
42539SOL    HW129514   3.620   5.011   7.873
42539SOL    HW229515   3.699   5.104   7.784
42540SOL     OW29516   5.247   3.291  13.175
42540SOL    HW129517   5.291   3.206  13.175
42540SOL    HW229518   5.298   3.345  13.236
42541SOL     OW29519   7.613  11.171   3.034
42541SOL    HW129520   7.659  11.245   2.994
42541SOL    HW229521   7.585  11.205   3.119
42542SOL     OW29522  13.214   6.349   1.626
42542SOL    HW129523  13.242   6.440   1.633
42542SOL    HW229524  13.282   6.299   1.672
42543SOL     OW29525  11.760   2.536   6.759
42543SOL    HW129526  11.685   2.562   6.706
42543SOL    HW229527  11.753   2.441   6.767
42544SOL     OW29528   4.143   0.567  13.068
42544SOL    HW129529   4.085   0.503  13.027
42544SOL    HW229530   4.095   0.598  13.145
42545SOL     OW29531   8.992  11.690   7.287
42545SOL    HW129532   9.035  11.623   7.341
42545SOL    HW229533   9.064  11.740   7.249
42546SOL     OW29534   2.045   3.805  11.315
42546SOL    HW129535   2.002   3.801  11.230
42546SOL    HW229536   2.093   3.723  11.323
42547SOL     OW29537   6.568  13.424  11.332
42547SOL    HW129538   6.529  13.367  11.397
42547SOL    HW229539   6.501  13.435  11.265
42548SOL     OW29540   9.769   8.984   6.368
42548SOL    HW129541   9.678   8.955   6.379
42548SOL    HW229542   9.810   8.966   6.453
42549SOL     OW29543   8.889   7.745   2.207
42549SOL    HW129544   8.948   7.800   2.155
42549SOL    HW229545   8.929   7.743   2.294
42550SOL     OW29546   5.677  11.040  11.492
42550SOL    HW129547   5.729  11.012  11.416
42550SOL    HW229548   5.668  11.135  11.480
42551SOL     OW29549   3.711  12.414   4.242
42551SOL    HW129550   3.771  12.341   4.237
42551SOL    HW229551   3.630  12.377   4.277
42552SOL     OW29552   7.535   0.504   4.450
42552SOL    HW129553   7.465   0.560   4.481
42552SOL    HW229554   7.491   0.432   4.405
42553SOL     OW29555   4.754   2.544  14.202
42553SOL    HW129556   4.688   2.531  14.135
42553SOL    HW229557   4.811   2.468  14.196
42554SOL     OW29558  12.932   7.596  10.414
42554SOL    HW129559  12.861   7.575  10.474
42554SOL    HW229560  12.952   7.513  10.370
42555SOL     OW29561   2.421  11.956   4.525
42555SOL    HW129562   2.424  12.010   4.603
42555SOL    HW229563   2.398  11.869   4.557
42556SOL     OW29564   2.280   7.612   4.108
42556SOL    HW129565   2.203   7.669   4.108
42556SOL    HW229566   2.245   7.525   4.126
42557SOL     OW29567   1.823  10.301   9.999
42557SOL    HW129568   1.814  10.396  10.001
42557SOL    HW229569   1.863  10.279  10.083
42558SOL     OW29570  14.050  12.520   0.329
42558SOL    HW129571  13.967  12.567   0.337
42558SOL    HW229572  14.097  12.540   0.410
42559SOL     OW29573  10.979   9.547   8.887
42559SOL    HW129574  11.055   9.549   8.944
42559SOL    HW229575  10.965   9.453   8.869
42560SOL     OW29576   7.924   3.363   5.994
42560SOL    HW129577   7.875   3.433   5.952
42560SOL    HW229578   7.966   3.406   6.069
42561SOL     OW29579   5.642   4.811   0.184
42561SOL    HW129580   5.590   4.884   0.151
42561SOL    HW229581   5.664   4.835   0.274
42562SOL     OW29582  10.871  10.718   3.449
42562SOL    HW129583  10.851  10.807   3.420
42562SOL    HW229584  10.815  10.705   3.526
42563SOL     OW29585   4.564  11.987  10.948
42563SOL    HW129586   4.542  12.069  10.906
42563SOL    HW229587   4.534  11.919  10.888
42564SOL     OW29588   1.196   4.540  14.873
42564SOL    HW129589   1.213   4.621   0.038
42564SOL    HW229590   1.174   4.476   0.060
42565SOL     OW29591   0.118  14.242   2.680
42565SOL    HW129592   0.191  14.298   2.652
42565SOL    HW229593   0.158  14.180   2.741
42566SOL     OW29594   7.279   0.387   0.681
42566SOL    HW129595   7.374   0.396   0.684
42566SOL    HW229596   7.260   0.313   0.738
42567SOL     OW29597   4.622   5.460  12.471
42567SOL    HW129598   4.574   5.439  12.551
42567SOL    HW229599   4.671   5.539  12.491
42568SOL     OW29600  10.528   1.926   0.710
42568SOL    HW129601  10.521   1.971   0.626
42568SOL    HW229602  10.475   1.979   0.770
42569SOL     OW29603   7.374   8.204   7.364
42569SOL    HW129604   7.290   8.243   7.388
42569SOL    HW229605   7.353   8.140   7.296
42570SOL     OW29606   4.801  10.216  11.371
42570SOL    HW129607   4.850  10.237  11.451
42570SOL    HW229608   4.709  10.218  11.398
42571SOL     OW29609   6.887   9.497  11.489
42571SOL    HW129610   6.923   9.490  11.401
42571SOL    HW229611   6.919   9.420  11.535
42572SOL     OW29612  13.544  13.088   8.136
42572SOL    HW129613  13.465  13.042   8.109
42572SOL    HW229614  13.612  13.022   8.136
42573SOL     OW29615   3.091  14.567   0.708
42573SOL    HW129616   3.074  14.646   0.655
42573SOL    HW229617   3.063  14.495   0.652
42574SOL     OW29618  11.185  10.553   8.624
42574SOL    HW129619  11.206  10.537   8.716
42574SOL    HW229620  11.108  10.500   8.607
42575SOL     OW29621  12.016   7.905   8.357
42575SOL    HW129622  12.009   7.826   8.410
42575SOL    HW229623  11.945   7.961   8.388
42576SOL     OW29624   1.684  10.857   5.770
42576SOL    HW129625   1.740  10.789   5.806
42576SOL    HW229626   1.729  10.885   5.690
42577SOL     OW29627   7.941   3.482  14.340
42577SOL    HW129628   7.977   3.394  14.347
42577SOL    HW229629   7.997   3.525  14.275
42578SOL     OW29630   5.872   8.671   6.982
42578SOL    HW129631   5.799   8.692   7.040
42578SOL    HW229632   5.905   8.587   7.015
42579SOL     OW29633   7.091   7.565   5.768
42579SOL    HW129634   7.068   7.649   5.727
42579SOL    HW229635   7.186   7.559   5.758
42580SOL     OW29636   3.552   1.429   3.194
42580SOL    HW129637   3.527   1.358   3.135
42580SOL    HW229638   3.637   1.402   3.228
42581SOL     OW29639  11.311   2.796   8.773
42581SOL    HW129640  11.280   2.813   8.862
42581SOL    HW229641  11.241   2.828   8.716
42582SOL     OW29642   0.973  11.602   3.556
42582SOL    HW129643   1.032  11.624   3.485
42582SOL    HW229644   1.028  11.601   3.634
42583SOL     OW29645  11.149   4.269   3.360
42583SOL    HW129646  11.100   4.194   3.326
42583SOL    HW229647  11.240   4.240   3.360
42584SOL     OW29648   0.458   6.869  10.655
42584SOL    HW129649   0.533   6.854  10.713
42584SOL    HW229650   0.484   6.829  10.572
42585SOL     OW29651   7.702  10.532   6.358
42585SOL    HW129652   7.654  10.615   6.349
42585SOL    HW229653   7.662  10.490   6.434
42586SOL     OW29654   7.393   7.266  11.919
42586SOL    HW129655   7.383   7.348  11.872
42586SOL    HW229656   7.363   7.199  11.858
42587SOL     OW29657   8.411   1.385   7.642
42587SOL    HW129658   8.361   1.466   7.655
42587SOL    HW229659   8.360   1.318   7.688
42588SOL     OW29660  12.609   2.067   7.458
42588SOL    HW129661  12.539   2.103   7.404
42588SOL    HW229662  12.635   2.141   7.514
42589SOL     OW29663   8.720   6.801   3.880
42589SOL    HW129664   8.764   6.791   3.964
42589SOL    HW229665   8.758   6.881   3.843
42590SOL     OW29666   5.900  12.318   7.473
42590SOL    HW129667   5.915  12.392   7.532
42590SOL    HW229668   5.966  12.254   7.498
42591SOL     OW29669  11.719   2.291   5.388
42591SOL    HW129670  11.733   2.220   5.451
42591SOL    HW229671  11.730   2.250   5.302
42592SOL     OW29672   7.175  13.083  12.451
42592SOL    HW129673   7.138  13.109  12.367
42592SOL    HW229674   7.229  13.006  12.431
42593SOL     OW29675   8.376   7.578   7.628
42593SOL    HW129676   8.408   7.509   7.686
42593SOL    HW229677   8.289   7.548   7.601
42594SOL     OW29678  10.280  11.630   4.155
42594SOL    HW129679  10.332  11.693   4.205
42594SOL    HW229680  10.189  11.658   4.168
42595SOL     OW29681   7.821  12.585  13.104
42595SOL    HW129682   7.842  12.517  13.167
42595SOL    HW229683   7.742  12.626  13.137
42596SOL     OW29684   1.474   8.033  13.379
42596SOL    HW129685   1.560   8.050  13.418
42596SOL    HW229686   1.412   8.049  13.451
42597SOL     OW29687  13.571  10.759   7.475
42597SOL    HW129688  13.489  10.759   7.524
42597SOL    HW229689  13.556  10.821   7.403
42598SOL     OW29690   3.929   2.742  10.935
42598SOL    HW129691   4.002   2.681  10.940
42598SOL    HW229692   3.967   2.827  10.957
42599SOL     OW29693  14.854  13.315   0.745
42599SOL    HW129694  14.766  13.332   0.778
42599SOL    HW229695  14.856  13.221   0.728
42600SOL     OW29696  10.460  14.313   4.159
42600SOL    HW129697  10.466  14.284   4.068
42600SOL    HW229698  10.543  14.359   4.175
42601SOL     OW29699   3.297   2.005   1.621
42601SOL    HW129700   3.379   2.031   1.579
42601SOL    HW229701   3.324   1.940   1.687
42602SOL     OW29702  10.962   2.629   9.307
42602SOL    HW129703  10.974   2.697   9.373
42602SOL    HW229704  11.018   2.655   9.234
42603SOL     OW29705   6.074  14.334  13.834
42603SOL    HW129706   6.012  14.406  13.850
42603SOL    HW229707   6.123  14.326  13.916
42604SOL     OW29708   3.405   9.280  11.259
42604SOL    HW129709   3.376   9.281  11.350
42604SOL    HW229710   3.459   9.202  11.252
42605SOL     OW29711   7.296   0.174   7.670
42605SOL    HW129712   7.203   0.185   7.650
42605SOL    HW229713   7.299   0.158   7.765
42606SOL     OW29714  10.816   3.255   7.570
42606SOL    HW129715  10.840   3.252   7.663
42606SOL    HW229716  10.896   3.230   7.524
42607SOL     OW29717   5.308  10.587   1.869
42607SOL    HW129718   5.241  10.563   1.933
42607SOL    HW229719   5.385  10.536   1.894
42608SOL     OW29720   7.767   1.863  12.016
42608SOL    HW129721   7.704   1.851  11.945
42608SOL    HW229722   7.735   1.804  12.085
42609SOL     OW29723   5.535  11.471  12.849
42609SOL    HW129724   5.572  11.541  12.903
42609SOL    HW229725   5.561  11.494  12.760
42610SOL     OW29726   0.981   5.507   7.316
42610SOL    HW129727   0.973   5.523   7.222
42610SOL    HW229728   1.033   5.428   7.323
42611SOL     OW29729   0.941  14.150  14.410
42611SOL    HW129730   0.891  14.069  14.420
42611SOL    HW229731   0.987  14.160  14.493
42612SOL     OW29732  12.297   9.124   3.458
42612SOL    HW129733  12.250   9.129   3.541
42612SOL    HW229734  12.330   9.213   3.444
42613SOL     OW29735  13.717   5.413   6.295
42613SOL    HW129736  13.781   5.479   6.268
42613SOL    HW229737  13.760   5.366   6.366
42614SOL     OW29738  13.191   2.474   5.007
42614SOL    HW129739  13.226   2.513   4.927
42614SOL    HW229740  13.153   2.391   4.978
42615SOL     OW29741  13.442  12.278   3.028
42615SOL    HW129742  13.517  12.322   2.988
42615SOL    HW229743  13.475  12.243   3.111
42616SOL     OW29744  10.658   7.866  11.857
42616SOL    HW129745  10.613   7.782  11.854
42616SOL    HW229746  10.589   7.931  11.868
42617SOL     OW29747  12.177   3.359  13.220
42617SOL    HW129748  12.224   3.410  13.287
42617SOL    HW229749  12.114   3.421  13.183
42618SOL     OW29750   1.110  13.465   2.606
42618SOL    HW129751   1.117  13.396   2.540
42618SOL    HW229752   1.024  13.453   2.645
42619SOL     OW29753   2.340   9.538   3.053
42619SOL    HW129754   2.334   9.465   2.991
42619SOL    HW229755   2.324   9.498   3.139
42620SOL     OW29756  10.851   2.358   8.876
42620SOL    HW129757  10.867   2.412   8.954
42620SOL    HW229758  10.763   2.322   8.890
42621SOL     OW29759   3.579  14.684   3.274
42621SOL    HW129760   3.661  14.636   3.261
42621SOL    HW229761   3.602  14.754   3.334
42622SOL     OW29762   4.960   2.166   6.815
42622SOL    HW129763   4.906   2.224   6.763
42622SOL    HW229764   4.898   2.112   6.864
42623SOL     OW29765  11.808   1.886  13.727
42623SOL    HW129766  11.853   1.938  13.793
42623SOL    HW229767  11.785   1.804  13.771
42624SOL     OW29768   5.367  10.162   7.894
42624SOL    HW129769   5.310  10.165   7.817
42624SOL    HW229770   5.430  10.233   7.880
42625SOL     OW29771   1.283  12.082  11.548
42625SOL    HW129772   1.286  11.989  11.572
42625SOL    HW229773   1.350  12.091  11.480
42626SOL     OW29774   8.931  11.090   1.069
42626SOL    HW129775   8.965  11.057   0.985
42626SOL    HW229776   8.925  11.185   1.056
42627SOL     OW29777   3.796   1.028  13.028
42627SOL    HW129778   3.804   1.000  12.937
42627SOL    HW229779   3.769   1.120  13.022
42628SOL     OW29780  10.298  10.871   4.926
42628SOL    HW129781  10.251  10.865   5.009
42628SOL    HW229782  10.338  10.958   4.927
42629SOL     OW29783  10.636  10.642   0.364
42629SOL    HW129784  10.590  10.558   0.372
42629SOL    HW229785  10.648  10.653   0.270
42630SOL     OW29786   5.183   2.961  10.230
42630SOL    HW129787   5.109   2.910  10.264
42630SOL    HW229788   5.247   2.896  10.202
42631SOL     OW29789  11.646   6.552   2.379
42631SOL    HW129790  11.684   6.636   2.407
42631SOL    HW229791  11.553   6.571   2.367
42632SOL     OW29792  14.337   2.454  11.791
42632SOL    HW129793  14.253   2.443  11.746
42632SOL    HW229794  14.384   2.372  11.774
42633SOL     OW29795   9.848   9.369   4.953
42633SOL    HW129796   9.844   9.328   5.039
42633SOL    HW229797   9.782   9.323   4.901
42634SOL     OW29798  10.314   9.407   4.567
42634SOL    HW129799  10.248   9.384   4.501
42634SOL    HW229800  10.263   9.444   4.639
42635SOL     OW29801  12.820   2.941   3.314
42635SOL    HW129802  12.761   2.936   3.390
42635SOL    HW229803  12.885   2.873   3.330
42636SOL     OW29804   5.282   4.455  12.404
42636SOL    HW129805   5.309   4.533  12.453
42636SOL    HW229806   5.187   4.449  12.419
42637SOL     OW29807  12.508   7.847   1.376
42637SOL    HW129808  12.491   7.787   1.304
42637SOL    HW229809  12.437   7.829   1.439
42638SOL     OW29810   0.956  10.372   3.402
42638SOL    HW129811   0.970  10.440   3.336
42638SOL    HW229812   0.991  10.409   3.483
42639SOL     OW29813   0.379  12.591   8.544
42639SOL    HW129814   0.421  12.512   8.510
42639SOL    HW229815   0.439  12.662   8.519
42640SOL     OW29816  10.040   3.294  11.898
42640SOL    HW129817  10.073   3.205  11.884
42640SOL    HW229818  10.079   3.321  11.981
42641SOL     OW29819   0.887   8.784  13.749
42641SOL    HW129820   0.956   8.764  13.812
42641SOL    HW229821   0.933   8.799  13.667
42642SOL     OW29822   3.321   7.612  13.617
42642SOL    HW129823   3.309   7.526  13.656
42642SOL    HW229824   3.353   7.594  13.528
42643SOL     OW29825   6.369   0.395  12.687
42643SOL    HW129826   6.436   0.446  12.732
42643SOL    HW229827   6.334   0.455  12.621
42644SOL     OW29828  14.368   7.883   1.468
42644SOL    HW129829  14.281   7.914   1.495
42644SOL    HW229830  14.349   7.816   1.402
42645SOL     OW29831   3.089  12.782   9.086
42645SOL    HW129832   3.149  12.767   9.159
42645SOL    HW229833   3.028  12.849   9.118
42646SOL     OW29834   6.141  13.928   5.758
42646SOL    HW129835   6.101  13.964   5.837
42646SOL    HW229836   6.138  14.001   5.695
42647SOL     OW29837   7.352   9.842   4.382
42647SOL    HW129838   7.276   9.829   4.325
42647SOL    HW229839   7.350   9.767   4.442
42648SOL     OW29840   8.369  12.596   4.391
42648SOL    HW129841   8.446  12.553   4.429
42648SOL    HW229842   8.309  12.609   4.464
42649SOL     OW29843  12.294  14.434   7.229
42649SOL    HW129844  12.389  14.440   7.230
42649SOL    HW229845  12.266  14.509   7.176
42650SOL     OW29846   0.600   5.679   0.098
42650SOL    HW129847   0.563   5.740   0.161
42650SOL    HW229848   0.687   5.659   0.131
42651SOL     OW29849  14.601  14.291   0.266
42651SOL    HW129850  14.657  14.310   0.341
42651SOL    HW229851  14.548  14.216   0.292
42652SOL     OW29852   4.856   9.237  13.714
42652SOL    HW129853   4.814   9.157  13.682
42652SOL    HW229854   4.949   9.224  13.694
42653SOL     OW29855   5.211  14.442  13.754
42653SOL    HW129856   5.230  14.526  13.794
42653SOL    HW229857   5.245  14.449  13.665
42654SOL     OW29858   3.871  12.435   1.820
42654SOL    HW129859   3.960  12.467   1.837
42654SOL    HW229860   3.840  12.405   1.906
42655SOL     OW29861   6.780   4.053   5.432
42655SOL    HW129862   6.713   3.985   5.438
42655SOL    HW229863   6.793   4.065   5.338
42656SOL     OW29864   4.909   9.718   0.177
42656SOL    HW129865   4.926   9.693   0.268
42656SOL    HW229866   4.814   9.727   0.172
42657SOL     OW29867   0.453   4.887  13.269
42657SOL    HW129868   0.514   4.910  13.200
42657SOL    HW229869   0.427   4.971  13.308
42658SOL     OW29870   0.199   5.479   3.205
42658SOL    HW129871   0.195   5.569   3.238
42658SOL    HW229872   0.132   5.433   3.255
42659SOL     OW29873   8.188   1.762   4.540
42659SOL    HW129874   8.232   1.846   4.552
42659SOL    HW229875   8.111   1.783   4.487
42660SOL     OW29876  14.668   3.015   2.464
42660SOL    HW129877  14.610   2.942   2.441
42660SOL    HW229878  14.722   3.028   2.387
42661SOL     OW29879   8.989  10.002   8.080
42661SOL    HW129880   8.904   9.975   8.113
42661SOL    HW229881   8.982  10.097   8.070
42662SOL     OW29882   2.367   9.893  14.041
42662SOL    HW129883   2.416   9.814  14.018
42662SOL    HW229884   2.383   9.953  13.968
42663SOL     OW29885   6.565   0.772   7.019
42663SOL    HW129886   6.593   0.686   7.048
42663SOL    HW229887   6.597   0.780   6.929
42664SOL     OW29888  12.698   5.482   9.901
42664SOL    HW129889  12.709   5.388   9.893
42664SOL    HW229890  12.649   5.507   9.822
42665SOL     OW29891  12.146   0.478   0.386
42665SOL    HW129892  12.214   0.543   0.405
42665SOL    HW229893  12.193   0.395   0.380
42666SOL     OW29894  11.306  14.379  10.614
42666SOL    HW129895  11.361  14.453  10.639
42666SOL    HW229896  11.349  14.303  10.654
42667SOL     OW29897  11.265   4.536  14.049
42667SOL    HW129898  11.335   4.482  14.012
42667SOL    HW229899  11.188   4.516  13.996
42668SOL     OW29900   5.467   2.108  11.137
42668SOL    HW129901   5.382   2.104  11.182
42668SOL    HW229902   5.481   2.201  11.120
42669SOL     OW29903   4.562  12.263  12.611
42669SOL    HW129904   4.640  12.310  12.639
42669SOL    HW229905   4.595  12.187  12.563
42670SOL     OW29906   1.463  13.283   7.100
42670SOL    HW129907   1.430  13.360   7.148
42670SOL    HW229908   1.452  13.306   7.008
42671SOL     OW29909  11.063   0.400   0.031
42671SOL    HW129910  11.011   0.471  14.876
42671SOL    HW229911  11.008   0.322   0.022
42672SOL     OW29912   7.136   7.778  12.204
42672SOL    HW129913   7.163   7.722  12.276
42672SOL    HW229914   7.140   7.722  12.126
42673SOL     OW29915   8.439   8.773   4.088
42673SOL    HW129916   8.506   8.810   4.145
42673SOL    HW229917   8.428   8.839   4.019
42674SOL     OW29918   3.734   6.177  14.495
42674SOL    HW129919   3.748   6.117  14.569
42674SOL    HW229920   3.694   6.254  14.535
42675SOL     OW29921  14.197   8.408  13.198
42675SOL    HW129922  14.145   8.368  13.128
42675SOL    HW229923  14.287   8.381  13.180
42676SOL     OW29924   9.575   6.917   1.534
42676SOL    HW129925   9.602   6.942   1.445
42676SOL    HW229926   9.653   6.933   1.588
42677SOL     OW29927   8.725   4.769   3.320
42677SOL    HW129928   8.663   4.717   3.371
42677SOL    HW229929   8.691   4.766   3.231
42678SOL     OW29930   7.899   3.111  14.595
42678SOL    HW129931   7.876   3.022  14.569
42678SOL    HW229932   7.817   3.147  14.630
42679SOL     OW29933   9.057   3.522   0.984
42679SOL    HW129934   9.062   3.537   1.078
42679SOL    HW229935   8.963   3.509   0.967
42680SOL     OW29936   5.148  12.726   3.054
42680SOL    HW129937   5.169  12.715   3.147
42680SOL    HW229938   5.084  12.797   3.052
42681SOL     OW29939  14.461   0.031   1.383
42681SOL    HW129940  14.528   0.013   1.449
42681SOL    HW229941  14.403   0.095   1.425
42682SOL     OW29942   3.842  10.012   3.525
42682SOL    HW129943   3.935   9.992   3.517
42682SOL    HW229944   3.798   9.930   3.505
42683SOL     OW29945  10.039   6.027   6.855
42683SOL    HW129946  10.083   6.110   6.836
42683SOL    HW229947   9.947   6.050   6.864
42684SOL     OW29948  14.006  10.045   2.104
42684SOL    HW129949  14.016   9.997   2.022
42684SOL    HW229950  13.954   9.987   2.160
42685SOL     OW29951   6.133  12.553   3.298
42685SOL    HW129952   6.177  12.629   3.336
42685SOL    HW229953   6.201  12.508   3.249
42686SOL     OW29954  14.296   4.426  11.527
42686SOL    HW129955  14.283   4.521  11.519
42686SOL    HW229956  14.307   4.411  11.621
42687SOL     OW29957   7.392  10.318   5.451
42687SOL    HW129958   7.331  10.307   5.378
42687SOL    HW229959   7.442  10.397   5.430
42688SOL     OW29960  13.477  12.521   5.124
42688SOL    HW129961  13.503  12.444   5.074
42688SOL    HW229962  13.387  12.501   5.151
42689SOL     OW29963   4.698   4.584   0.483
42689SOL    HW129964   4.667   4.569   0.573
42689SOL    HW229965   4.636   4.646   0.446
42690SOL     OW29966  13.755   9.490   4.900
42690SOL    HW129967  13.793   9.556   4.842
42690SOL    HW229968  13.694   9.442   4.846
42691SOL     OW29969   3.142   1.891  10.153
42691SOL    HW129970   3.132   1.904  10.247
42691SOL    HW229971   3.139   1.979  10.115
42692SOL     OW29972  12.938   1.653  13.464
42692SOL    HW129973  12.926   1.569  13.509
42692SOL    HW229974  12.849   1.684  13.448
42693SOL     OW29975  14.152   8.202   4.366
42693SOL    HW129976  14.099   8.165   4.438
42693SOL    HW229977  14.241   8.201   4.399
42694SOL     OW29978   2.509   1.679  11.373
42694SOL    HW129979   2.430   1.730  11.386
42694SOL    HW229980   2.579   1.733  11.411
42695SOL     OW29981   2.656   5.110   9.223
42695SOL    HW129982   2.671   5.033   9.277
42695SOL    HW229983   2.743   5.132   9.188
42696SOL     OW29984   0.522  12.491   6.835
42696SOL    HW129985   0.456  12.517   6.900
42696SOL    HW229986   0.475  12.496   6.751
42697SOL     OW29987   4.005   0.087   2.845
42697SOL    HW129988   3.941   0.123   2.783
42697SOL    HW229989   4.089   0.125   2.819
42698SOL     OW29990   3.909   7.854   9.587
42698SOL    HW129991   3.914   7.839   9.682
42698SOL    HW229992   3.981   7.913   9.568
42699SOL     OW29993   5.305   2.702   3.070
42699SOL    HW129994   5.290   2.643   3.144
42699SOL    HW229995   5.317   2.788   3.110
42700SOL     OW29996   2.995  14.537   4.859
42700SOL    HW129997   2.918  14.533   4.915
42700SOL    HW229998   3.069  14.539   4.920
42701SOL     OW29999   6.076   1.954  14.574
42701SOL    HW130000   6.134   2.030  14.582
42701SOL    HW230001   6.120   1.898  14.511
42702SOL     OW30002   7.833  12.907   6.036
42702SOL    HW130003   7.745  12.893   6.002
42702SOL    HW230004   7.890  12.901   5.960
42703SOL     OW30005   0.538   1.340   6.329
42703SOL    HW130006   0.601   1.412   6.336
42703SOL    HW230007   0.467   1.375   6.275
42704SOL     OW30008   1.540  10.582  13.688
42704SOL    HW130009   1.469  10.532  13.649
42704SOL    HW230010   1.514  10.591  13.780
42705SOL     OW30011   5.496   8.010   0.809
42705SOL    HW130012   5.402   8.014   0.793
42705SOL    HW230013   5.533   8.080   0.755
42706SOL     OW30014   5.774  10.624  11.787
42706SOL    HW130015   5.679  10.610  11.790
42706SOL    HW230016   5.784  10.712  11.752
42707SOL     OW30017   1.484   1.783  10.518
42707SOL    HW130018   1.579   1.785  10.525
42707SOL    HW230019   1.453   1.785  10.609
42708SOL     OW30020  10.246   4.223  11.259
42708SOL    HW130021  10.341   4.217  11.270
42708SOL    HW230022  10.213   4.138  11.289
42709SOL     OW30023   6.981   2.778  11.035
42709SOL    HW130024   7.056   2.788  10.976
42709SOL    HW230025   6.967   2.865  11.071
42710SOL     OW30026   0.621   2.621   4.960
42710SOL    HW130027   0.603   2.715   4.969
42710SOL    HW230028   0.578   2.596   4.878
42711SOL     OW30029   1.987   1.333   5.530
42711SOL    HW130030   2.018   1.399   5.593
42711SOL    HW230031   1.978   1.381   5.448
42712SOL     OW30032   8.131   7.349   3.050
42712SOL    HW130033   8.191   7.424   3.048
42712SOL    HW230034   8.121   7.325   2.958
42713SOL     OW30035   0.113   2.389   5.781
42713SOL    HW130036   0.123   2.362   5.690
42713SOL    HW230037   0.021   2.370   5.802
42714SOL     OW30038   4.457   3.409   6.452
42714SOL    HW130039   4.522   3.341   6.439
42714SOL    HW230040   4.507   3.491   6.457
42715SOL     OW30041  12.667   7.538  13.677
42715SOL    HW130042  12.651   7.448  13.706
42715SOL    HW230043  12.608   7.551  13.604
42716SOL     OW30044   0.586   6.721   4.192
42716SOL    HW130045   0.623   6.809   4.193
42716SOL    HW230046   0.635   6.675   4.125
42717SOL     OW30047  10.708   7.878  10.870
42717SOL    HW130048  10.692   7.931  10.948
42717SOL    HW230049  10.667   7.794  10.890
42718SOL     OW30050  11.135   7.451  12.786
42718SOL    HW130051  11.205   7.396  12.821
42718SOL    HW230052  11.155   7.539  12.818
42719SOL     OW30053  11.725  12.450   6.862
42719SOL    HW130054  11.784  12.500   6.919
42719SOL    HW230055  11.767  12.365   6.852
42720SOL     OW30056  11.438  14.042   6.060
42720SOL    HW130057  11.452  13.991   5.980
42720SOL    HW230058  11.396  13.980   6.120
42721SOL     OW30059  11.887  12.212   2.736
42721SOL    HW130060  11.831  12.168   2.800
42721SOL    HW230061  11.975  12.177   2.753
42722SOL     OW30062  14.496   6.167   2.361
42722SOL    HW130063  14.443   6.140   2.286
42722SOL    HW230064  14.473   6.259   2.374
42723SOL     OW30065   9.338  14.481   1.866
42723SOL    HW130066   9.407  14.527   1.818
42723SOL    HW230067   9.316  14.407   1.810
42724SOL     OW30068  12.439   9.910   1.304
42724SOL    HW130069  12.443   9.897   1.209
42724SOL    HW230070  12.361   9.862   1.332
42725SOL     OW30071  14.109  12.288   1.638
42725SOL    HW130072  14.119  12.194   1.629
42725SOL    HW230073  14.157  12.325   1.564
42726SOL     OW30074   1.034   4.447   4.589
42726SOL    HW130075   0.950   4.480   4.555
42726SOL    HW230076   1.046   4.364   4.544
42727SOL     OW30077   8.163   6.392  12.294
42727SOL    HW130078   8.079   6.420  12.256
42727SOL    HW230079   8.211   6.474  12.309
42728SOL     OW30080  13.578  11.690   9.001
42728SOL    HW130081  13.510  11.719   9.062
42728SOL    HW230082  13.593  11.764   8.944
42729SOL     OW30083   2.577   5.282  13.317
42729SOL    HW130084   2.572   5.296  13.412
42729SOL    HW230085   2.516   5.346  13.280
42730SOL     OW30086   5.288   7.231   6.665
42730SOL    HW130087   5.209   7.268   6.626
42730SOL    HW230088   5.357   7.293   6.642
42731SOL     OW30089   8.313  14.335   4.876
42731SOL    HW130090   8.337  14.414   4.827
42731SOL    HW230091   8.386  14.275   4.861
42732SOL     OW30092   8.278  12.626  13.980
42732SOL    HW130093   8.316  12.714  13.984
42732SOL    HW230094   8.300  12.586  14.064
42733SOL     OW30095  13.621   6.183   2.898
42733SOL    HW130096  13.689   6.125   2.932
42733SOL    HW230097  13.621   6.258   2.957
42734SOL     OW30098   3.937   1.116   3.133
42734SOL    HW130099   3.998   1.155   3.195
42734SOL    HW230100   3.984   1.041   3.097
42735SOL     OW30101   6.430   3.308  10.845
42735SOL    HW130102   6.465   3.281  10.761
42735SOL    HW230103   6.473   3.250  10.909
42736SOL     OW30104  14.445   4.154   4.265
42736SOL    HW130105  14.463   4.093   4.194
42736SOL    HW230106  14.357   4.187   4.246
42737SOL     OW30107  13.692   8.579  12.567
42737SOL    HW130108  13.765   8.554  12.511
42737SOL    HW230109  13.730   8.640  12.630
42738SOL     OW30110  13.388   6.960   0.890
42738SOL    HW130111  13.416   6.886   0.944
42738SOL    HW230112  13.468   6.990   0.848
42739SOL     OW30113  14.103  12.779  14.521
42739SOL    HW130114  14.113  12.726  14.600
42739SOL    HW230115  14.074  12.717  14.454
42740SOL     OW30116   5.253   0.366  11.052
42740SOL    HW130117   5.308   0.429  11.099
42740SOL    HW230118   5.273   0.282  11.093
42741SOL     OW30119  13.750   6.159   1.721
42741SOL    HW130120  13.660   6.127   1.720
42741SOL    HW230121  13.745   6.244   1.765
42742SOL     OW30122   6.980  11.669   4.155
42742SOL    HW130123   6.969  11.698   4.065
42742SOL    HW230124   7.000  11.748   4.204
42743SOL     OW30125  12.589   7.783   6.550
42743SOL    HW130126  12.573   7.766   6.643
42743SOL    HW230127  12.522   7.846   6.525
42744SOL     OW30128   5.429  11.502   6.543
42744SOL    HW130129   5.520  11.506   6.572
42744SOL    HW230130   5.389  11.582   6.579
42745SOL     OW30131   9.552   9.060   9.181
42745SOL    HW130132   9.526   9.128   9.243
42745SOL    HW230133   9.648   9.065   9.179
42746SOL     OW30134   1.583   4.524  14.713
42746SOL    HW130135   1.617   4.601  14.668
42746SOL    HW230136   1.499   4.507  14.671
42747SOL     OW30137   1.300   8.969  10.809
42747SOL    HW130138   1.341   8.962  10.723
42747SOL    HW230139   1.236   8.898  10.811
42748SOL     OW30140   5.837   9.672   2.538
42748SOL    HW130141   5.787   9.592   2.548
42748SOL    HW230142   5.784   9.727   2.480
42749SOL     OW30143   2.369   3.901   4.998
42749SOL    HW130144   2.456   3.920   4.965
42749SOL    HW230145   2.310   3.929   4.928
42750SOL     OW30146  11.842   2.977  10.599
42750SOL    HW130147  11.908   2.909  10.589
42750SOL    HW230148  11.758   2.931  10.586
42751SOL     OW30149   3.078  11.265   2.127
42751SOL    HW130150   3.005  11.221   2.085
42751SOL    HW230151   3.148  11.200   2.129
42752SOL     OW30152  14.467   8.447   4.494
42752SOL    HW130153  14.389   8.463   4.547
42752SOL    HW230154  14.538   8.443   4.557
42753SOL     OW30155  11.861   6.751  12.513
42753SOL    HW130156  11.814   6.669  12.499
42753SOL    HW230157  11.944   6.725  12.552
42754SOL     OW30158   9.239   4.939  10.019
42754SOL    HW130159   9.155   4.893  10.028
42754SOL    HW230160   9.232   4.985   9.936
42755SOL     OW30161   6.804   9.571   6.600
42755SOL    HW130162   6.752   9.498   6.566
42755SOL    HW230163   6.741   9.621   6.653
42756SOL     OW30164   9.819   0.720   2.049
42756SOL    HW130165   9.727   0.729   2.073
42756SOL    HW230166   9.819   0.652   1.981
42757SOL     OW30167   0.437   8.147   8.985
42757SOL    HW130168   0.386   8.167   8.907
42757SOL    HW230169   0.374   8.110   9.046
42758SOL     OW30170   5.726   9.589   6.740
42758SOL    HW130171   5.672   9.532   6.795
42758SOL    HW230172   5.767   9.528   6.678
42759SOL     OW30173   8.551   7.558  11.358
42759SOL    HW130174   8.510   7.586  11.440
42759SOL    HW230175   8.504   7.607  11.290
42760SOL     OW30176   8.764  13.818   6.960
42760SOL    HW130177   8.734  13.896   6.914
42760SOL    HW230178   8.685  13.783   7.001
42761SOL     OW30179   5.481   1.789   1.539
42761SOL    HW130180   5.504   1.773   1.448
42761SOL    HW230181   5.388   1.767   1.545
42762SOL     OW30182   8.546   3.267  12.428
42762SOL    HW130183   8.631   3.247  12.389
42762SOL    HW230184   8.495   3.187  12.417
42763SOL     OW30185  12.268   7.961   9.404
42763SOL    HW130186  12.201   7.996   9.345
42763SOL    HW230187  12.350   7.997   9.371
42764SOL     OW30188  13.373   8.191   7.469
42764SOL    HW130189  13.279   8.172   7.467
42764SOL    HW230190  13.401   8.184   7.378
42765SOL     OW30191   9.658   2.830   2.410
42765SOL    HW130192   9.750   2.805   2.411
42765SOL    HW230193   9.611   2.747   2.397
42766SOL     OW30194   8.427   9.049   8.946
42766SOL    HW130195   8.352   9.014   8.897
42766SOL    HW230196   8.420   9.010   9.033
42767SOL     OW30197  10.393  12.085  13.161
42767SOL    HW130198  10.401  12.176  13.132
42767SOL    HW230199  10.299  12.069  13.167
42768SOL     OW30200  11.208  13.580   5.382
42768SOL    HW130201  11.248  13.660   5.418
42768SOL    HW230202  11.116  13.586   5.407
42769SOL     OW30203   3.652  11.499   8.387
42769SOL    HW130204   3.682  11.472   8.299
42769SOL    HW230205   3.727  11.480   8.444
42770SOL     OW30206   8.340   5.129  11.971
42770SOL    HW130207   8.372   5.040  11.983
42770SOL    HW230208   8.245   5.122  11.986
42771SOL     OW30209   2.924  12.676   8.441
42771SOL    HW130210   2.954  12.668   8.350
42771SOL    HW230211   2.971  12.752   8.475
42772SOL     OW30212   3.227  14.345   1.801
42772SOL    HW130213   3.265  14.285   1.865
42772SOL    HW230214   3.238  14.432   1.839
42773SOL     OW30215   3.423   5.877   4.978
42773SOL    HW130216   3.489   5.841   5.037
42773SOL    HW230217   3.340   5.839   5.008
42774SOL     OW30218  12.694   9.736  14.649
42774SOL    HW130219  12.667   9.827  14.641
42774SOL    HW230220  12.724   9.712  14.561
42775SOL     OW30221   9.228  11.632  12.369
42775SOL    HW130222   9.200  11.541  12.361
42775SOL    HW230223   9.238  11.646  12.463
42776SOL     OW30224   2.266   2.896   1.282
42776SOL    HW130225   2.174   2.912   1.260
42776SOL    HW230226   2.314   2.916   1.201
42777SOL     OW30227   4.381   6.569  10.472
42777SOL    HW130228   4.357   6.528  10.555
42777SOL    HW230229   4.467   6.533  10.452
42778SOL     OW30230   5.336   4.368  13.354
42778SOL    HW130231   5.263   4.399  13.301
42778SOL    HW230232   5.296   4.312  13.421
42779SOL     OW30233   6.229   9.117   1.196
42779SOL    HW130234   6.311   9.068   1.201
42779SOL    HW230235   6.221   9.140   1.104
42780SOL     OW30236   9.675   7.739   2.952
42780SOL    HW130237   9.646   7.672   2.889
42780SOL    HW230238   9.595   7.785   2.976
42781SOL     OW30239   0.641   3.076   6.275
42781SOL    HW130240   0.710   3.141   6.264
42781SOL    HW230241   0.563   3.127   6.294
42782SOL     OW30242   0.522   5.804  13.293
42782SOL    HW130243   0.430   5.775  13.295
42782SOL    HW230244   0.530   5.862  13.368
42783SOL     OW30245  12.746   0.250  11.982
42783SOL    HW130246  12.708   0.237  12.068
42783SOL    HW230247  12.707   0.181  11.928
42784SOL     OW30248   4.445  12.527   2.979
42784SOL    HW130249   4.389  12.588   3.027
42784SOL    HW230250   4.411  12.529   2.889
42785SOL     OW30251   6.950   4.903   1.517
42785SOL    HW130252   6.949   4.997   1.497
42785SOL    HW230253   6.869   4.888   1.565
42786SOL     OW30254  14.393   1.620   5.133
42786SOL    HW130255  14.480   1.623   5.091
42786SOL    HW230256  14.332   1.620   5.060
42787SOL     OW30257   7.073  13.279   4.610
42787SOL    HW130258   7.104  13.216   4.545
42787SOL    HW230259   6.993  13.315   4.571
42788SOL     OW30260  11.743  14.324   5.178
42788SOL    HW130261  11.836  14.311   5.198
42788SOL    HW230262  11.731  14.419   5.182
42789SOL     OW30263   0.009   5.074   6.116
42789SOL    HW130264   0.003   5.037   6.204
42789SOL    HW230265   0.095   5.115   6.113
42790SOL     OW30266  13.098  11.773   6.080
42790SOL    HW130267  13.082  11.708   6.011
42790SOL    HW230268  13.018  11.824   6.084
42791SOL     OW30269   0.216   0.017  12.657
42791SOL    HW130270   0.258   0.101  12.640
42791SOL    HW230271   0.169   0.031  12.740
42792SOL     OW30272   9.328  13.807  14.716
42792SOL    HW130273   9.409  13.857  14.726
42792SOL    HW230274   9.323  13.753  14.795
42793SOL     OW30275   5.656   1.416   1.891
42793SOL    HW130276   5.569   1.451   1.911
42793SOL    HW230277   5.662   1.422   1.796
42794SOL     OW30278  12.817   0.997   4.675
42794SOL    HW130279  12.891   1.049   4.644
42794SOL    HW230280  12.754   1.061   4.708
42795SOL     OW30281   9.392   9.014   0.550
42795SOL    HW130282   9.413   8.940   0.608
42795SOL    HW230283   9.396   9.091   0.607
42796SOL     OW30284  12.768  11.535   9.290
42796SOL    HW130285  12.674  11.524   9.274
42796SOL    HW230286  12.810  11.490   9.217
42797SOL     OW30287   1.718   1.993  11.159
42797SOL    HW130288   1.786   1.967  11.221
42797SOL    HW230289   1.654   2.040  11.213
42798SOL     OW30290  13.500  11.850   3.837
42798SOL    HW130291  13.415  11.893   3.827
42798SOL    HW230292  13.486  11.761   3.807
42799SOL     OW30293   5.725   5.163   1.065
42799SOL    HW130294   5.713   5.121   1.151
42799SOL    HW230295   5.796   5.113   1.025
42800SOL     OW30296   8.722   5.114   4.229
42800SOL    HW130297   8.785   5.108   4.300
42800SOL    HW230298   8.687   5.025   4.220
42801SOL     OW30299   5.858   1.434   2.784
42801SOL    HW130300   5.897   1.520   2.798
42801SOL    HW230301   5.890   1.380   2.856
42802SOL     OW30302   3.069  12.267   0.201
42802SOL    HW130303   3.092  12.341   0.145
42802SOL    HW230304   3.047  12.307   0.286
42803SOL     OW30305  10.629   3.778   7.617
42803SOL    HW130306  10.689   3.704   7.625
42803SOL    HW230307  10.685   3.855   7.625
42804SOL     OW30308   5.439  14.826   9.292
42804SOL    HW130309   5.408  14.777   9.368
42804SOL    HW230310   5.489   0.017   9.329
42805SOL     OW30311  12.486   5.451   5.404
42805SOL    HW130312  12.520   5.386   5.342
42805SOL    HW230313  12.404   5.413   5.436
42806SOL     OW30314   8.519   4.660   0.126
42806SOL    HW130315   8.499   4.575   0.087
42806SOL    HW230316   8.433   4.697   0.149
42807SOL     OW30317   4.211   3.143  13.021
42807SOL    HW130318   4.237   3.229  13.054
42807SOL    HW230319   4.223   3.149  12.927
42808SOL     OW30320   8.278  10.090   3.095
42808SOL    HW130321   8.339  10.162   3.112
42808SOL    HW230322   8.333  10.022   3.055
42809SOL     OW30323  11.222   4.358  12.396
42809SOL    HW130324  11.278   4.435  12.387
42809SOL    HW230325  11.280   4.291  12.433
42810SOL     OW30326   7.399  12.910   8.255
42810SOL    HW130327   7.366  12.822   8.272
42810SOL    HW230328   7.321  12.964   8.248
42811SOL     OW30329   2.523   2.851   9.791
42811SOL    HW130330   2.516   2.926   9.733
42811SOL    HW230331   2.457   2.790   9.759
42812SOL     OW30332  14.616  12.978  11.814
42812SOL    HW130333  14.595  12.889  11.842
42812SOL    HW230334  14.609  13.030  11.895
42813SOL     OW30335   3.861   3.622   6.242
42813SOL    HW130336   3.777   3.616   6.196
42813SOL    HW230337   3.871   3.715   6.262
42814SOL     OW30338   7.146   9.010  12.817
42814SOL    HW130339   7.073   8.984  12.872
42814SOL    HW230340   7.214   8.944  12.835
42815SOL     OW30341   7.345   3.757   7.957
42815SOL    HW130342   7.371   3.848   7.972
42815SOL    HW230343   7.427   3.708   7.959
42816SOL     OW30344  14.569   4.029  14.393
42816SOL    HW130345  14.477   4.054  14.386
42816SOL    HW230346  14.611   4.067  14.316
42817SOL     OW30347   8.340  14.472   6.258
42817SOL    HW130348   8.286  14.437   6.329
42817SOL    HW230349   8.348  14.399   6.196
42818SOL     OW30350   4.245   5.555   7.952
42818SOL    HW130351   4.153   5.580   7.958
42818SOL    HW230352   4.257   5.530   7.860
42819SOL     OW30353   1.329   1.502  13.086
42819SOL    HW130354   1.253   1.508  13.143
42819SOL    HW230355   1.384   1.435  13.126
42820SOL     OW30356  12.706  13.116  13.539
42820SOL    HW130357  12.749  13.186  13.589
42820SOL    HW230358  12.703  13.042  13.600
42821SOL     OW30359   9.974   5.197   2.386
42821SOL    HW130360   9.995   5.108   2.415
42821SOL    HW230361   9.945   5.243   2.465
42822SOL     OW30362   6.451   4.059  11.988
42822SOL    HW130363   6.451   4.130  11.924
42822SOL    HW230364   6.398   4.093  12.060
42823SOL     OW30365  13.009   7.600   5.245
42823SOL    HW130366  12.950   7.622   5.317
42823SOL    HW230367  13.095   7.629   5.275
42824SOL     OW30368   8.958   5.894  10.779
42824SOL    HW130369   8.930   5.985  10.776
42824SOL    HW230370   8.912   5.858  10.855
42825SOL     OW30371   1.920  12.908   3.807
42825SOL    HW130372   1.934  13.001   3.790
42825SOL    HW230373   2.003  12.878   3.842
42826SOL     OW30374   2.393  14.159   0.374
42826SOL    HW130375   2.444  14.234   0.346
42826SOL    HW230376   2.338  14.193   0.445
42827SOL     OW30377   0.255   4.471   9.214
42827SOL    HW130378   0.266   4.542   9.277
42827SOL    HW230379   0.227   4.515   9.134
42828SOL     OW30380   2.803   1.374   9.335
42828SOL    HW130381   2.826   1.420   9.416
42828SOL    HW230382   2.758   1.295   9.364
42829SOL     OW30383   1.758  12.367   5.756
42829SOL    HW130384   1.756  12.456   5.721
42829SOL    HW230385   1.762  12.379   5.850
42830SOL     OW30386  11.082   4.698   5.845
42830SOL    HW130387  11.128   4.704   5.761
42830SOL    HW230388  11.001   4.748   5.831
42831SOL     OW30389  14.501   1.138  13.379
42831SOL    HW130390  14.440   1.142  13.453
42831SOL    HW230391  14.587   1.135  13.420
42832SOL     OW30392   2.340  10.336   0.658
42832SOL    HW130393   2.328  10.251   0.616
42832SOL    HW230394   2.301  10.399   0.598
42833SOL     OW30395   4.287   8.768   1.892
42833SOL    HW130396   4.349   8.818   1.839
42833SOL    HW230397   4.257   8.830   1.959
42834SOL     OW30398   4.578   7.302   8.343
42834SOL    HW130399   4.664   7.260   8.343
42834SOL    HW230400   4.541   7.280   8.258
42835SOL     OW30401   0.032   3.150   4.345
42835SOL    HW130402  14.877   3.062   4.351
42835SOL    HW230403  14.840   3.208   4.361
42836SOL     OW30404  13.683   8.142   3.537
42836SOL    HW130405  13.720   8.121   3.451
42836SOL    HW230406  13.663   8.236   3.531
42837SOL     OW30407   2.544   6.328   9.239
42837SOL    HW130408   2.599   6.250   9.245
42837SOL    HW230409   2.455   6.296   9.253
42838SOL     OW30410  11.453   6.353  12.088
42838SOL    HW130411  11.405   6.272  12.107
42838SOL    HW230412  11.402   6.395  12.019
42839SOL     OW30413   3.261  14.706   5.310
42839SOL    HW130414   3.354  14.711   5.292
42839SOL    HW230415   3.255  14.678   5.401
42840SOL     OW30416   0.055   2.972   9.146
42840SOL    HW130417   0.003   3.011   9.076
42840SOL    HW230418   0.014   3.003   9.227
42841SOL     OW30419   6.692   3.249   9.429
42841SOL    HW130420   6.737   3.201   9.360
42841SOL    HW230421   6.760   3.303   9.470
42842SOL     OW30422  11.955   7.918   3.071
42842SOL    HW130423  11.983   7.934   2.981
42842SOL    HW230424  12.031   7.939   3.124
42843SOL     OW30425  12.284  12.746   6.312
42843SOL    HW130426  12.274  12.655   6.286
42843SOL    HW230427  12.246  12.750   6.400
42844SOL     OW30428   5.583   6.544   3.033
42844SOL    HW130429   5.604   6.552   2.940
42844SOL    HW230430   5.546   6.629   3.057
42845SOL     OW30431   6.761   9.902   0.030
42845SOL    HW130432   6.698   9.911  14.840
42845SOL    HW230433   6.838   9.950   0.000
42846SOL     OW30434   5.571   0.039   9.655
42846SOL    HW130435   5.477   0.055   9.645
42846SOL    HW230436   5.602   0.024   9.565
42847SOL     OW30437  12.193   7.710   7.552
42847SOL    HW130438  12.171   7.756   7.633
42847SOL    HW230439  12.283   7.680   7.565
42848SOL     OW30440  12.656   6.862   1.947
42848SOL    HW130441  12.746   6.855   1.915
42848SOL    HW230442  12.644   6.956   1.961
42849SOL     OW30443  14.698   4.247   8.088
42849SOL    HW130444  14.644   4.303   8.143
42849SOL    HW230445  14.787   4.277   8.104
42850SOL     OW30446  12.226   3.374   6.433
42850SOL    HW130447  12.171   3.326   6.496
42850SOL    HW230448  12.167   3.397   6.362
42851SOL     OW30449   0.387   4.184   1.532
42851SOL    HW130450   0.392   4.162   1.625
42851SOL    HW230451   0.427   4.109   1.488
42852SOL     OW30452  10.863   0.996   7.925
42852SOL    HW130453  10.808   0.959   7.857
42852SOL    HW230454  10.827   1.083   7.942
42853SOL     OW30455   1.412   1.730  11.451
42853SOL    HW130456   1.389   1.810  11.499
42853SOL    HW230457   1.505   1.742  11.428
42854SOL     OW30458   6.747   4.518  11.033
42854SOL    HW130459   6.693   4.440  11.020
42854SOL    HW230460   6.698   4.572  11.095
42855SOL     OW30461   3.255  11.355   7.617
42855SOL    HW130462   3.323  11.289   7.623
42855SOL    HW230463   3.173  11.307   7.633
42856SOL     OW30464   0.194   9.477   4.721
42856SOL    HW130465   0.183   9.557   4.670
42856SOL    HW230466   0.187   9.406   4.656
42857SOL     OW30467   6.068  10.888   2.251
42857SOL    HW130468   6.111  10.803   2.241
42857SOL    HW230469   6.114  10.930   2.324
42858SOL     OW30470  12.717  12.792   2.642
42858SOL    HW130471  12.703  12.872   2.693
42858SOL    HW230472  12.715  12.722   2.707
42859SOL     OW30473   6.657   6.306  14.380
42859SOL    HW130474   6.660   6.315  14.285
42859SOL    HW230475   6.570   6.270  14.398
42860SOL     OW30476   5.050  11.021   0.363
42860SOL    HW130477   5.013  11.109   0.373
42860SOL    HW230478   4.983  10.971   0.317
42861SOL     OW30479   7.367   8.566   8.690
42861SOL    HW130480   7.292   8.615   8.725
42861SOL    HW230481   7.371   8.487   8.743
42862SOL     OW30482   6.589   7.790  11.549
42862SOL    HW130483   6.600   7.703  11.511
42862SOL    HW230484   6.615   7.850  11.479
42863SOL     OW30485   9.000   7.264   4.107
42863SOL    HW130486   9.020   7.271   4.200
42863SOL    HW230487   9.081   7.231   4.067
42864SOL     OW30488   2.397  11.732   2.734
42864SOL    HW130489   2.325  11.672   2.713
42864SOL    HW230490   2.430  11.703   2.819
42865SOL     OW30491   7.531   6.575  12.465
42865SOL    HW130492   7.509   6.516  12.393
42865SOL    HW230493   7.626   6.585  12.460
42866SOL     OW30494  10.664  14.382   7.315
42866SOL    HW130495  10.726  14.365   7.386
42866SOL    HW230496  10.603  14.446   7.351
42867SOL     OW30497   0.039   4.982   4.005
42867SOL    HW130498   0.030   4.920   4.077
42867SOL    HW230499  14.836   5.025   4.000
42868SOL     OW30500  13.887   0.277   7.440
42868SOL    HW130501  13.798   0.270   7.473
42868SOL    HW230502  13.910   0.187   7.414
42869SOL     OW30503   4.867  13.772  10.899
42869SOL    HW130504   4.865  13.693  10.845
42869SOL    HW230505   4.810  13.834  10.853
42870SOL     OW30506   3.418   4.021   2.018
42870SOL    HW130507   3.488   4.078   1.986
42870SOL    HW230508   3.459   3.969   2.087
42871SOL     OW30509   8.865   1.442  11.291
42871SOL    HW130510   8.946   1.446  11.343
42871SOL    HW230511   8.812   1.374  11.334
42872SOL     OW30512   7.067   8.623   6.678
42872SOL    HW130513   7.037   8.547   6.728
42872SOL    HW230514   7.071   8.694   6.742
42873SOL     OW30515  10.718  11.239   5.036
42873SOL    HW130516  10.776  11.254   4.962
42873SOL    HW230517  10.774  11.249   5.113
42874SOL     OW30518  12.388   9.710  10.212
42874SOL    HW130519  12.436   9.639  10.254
42874SOL    HW230520  12.321   9.736  10.275
42875SOL     OW30521  14.773  12.477   2.862
42875SOL    HW130522  14.822  12.465   2.943
42875SOL    HW230523  14.780  12.394   2.817
42876SOL     OW30524   6.200   8.960   0.392
42876SOL    HW130525   6.131   8.995   0.336
42876SOL    HW230526   6.188   9.004   0.476
42877SOL     OW30527  10.883   6.823   7.445
42877SOL    HW130528  10.940   6.900   7.437
42877SOL    HW230529  10.814   6.837   7.380
42878SOL     OW30530   5.245   3.820   5.857
42878SOL    HW130531   5.230   3.899   5.908
42878SOL    HW230532   5.199   3.751   5.904
42879SOL     OW30533   9.010   0.139   7.135
42879SOL    HW130534   9.087   0.181   7.097
42879SOL    HW230535   8.936   0.177   7.088
42880SOL     OW30536   0.674  10.992   6.952
42880SOL    HW130537   0.611  10.935   6.996
42880SOL    HW230538   0.705  10.940   6.878
42881SOL     OW30539   9.743  13.285   8.982
42881SOL    HW130540   9.769  13.238   9.061
42881SOL    HW230541   9.819  13.279   8.924
42882SOL     OW30542  11.669   8.511  10.310
42882SOL    HW130543  11.604   8.575  10.281
42882SOL    HW230544  11.680   8.530  10.403
42883SOL     OW30545  12.700  11.279   0.965
42883SOL    HW130546  12.743  11.226   0.897
42883SOL    HW230547  12.672  11.215   1.030
42884SOL     OW30548   0.851   0.973   7.672
42884SOL    HW130549   0.907   1.023   7.732
42884SOL    HW230550   0.832   1.035   7.602
42885SOL     OW30551  11.937   7.020   6.469
42885SOL    HW130552  11.906   7.068   6.392
42885SOL    HW230553  11.862   6.967   6.495
42886SOL     OW30554   9.944   1.161   2.259
42886SOL    HW130555   9.870   1.121   2.305
42886SOL    HW230556   9.973   1.094   2.196
42887SOL     OW30557   0.013  11.231  13.952
42887SOL    HW130558   0.051  11.316  13.974
42887SOL    HW230559   0.058  11.169  14.008
42888SOL     OW30560   1.018  12.325  10.570
42888SOL    HW130561   0.948  12.352  10.511
42888SOL    HW230562   1.040  12.236  10.541
42889SOL     OW30563   0.881   7.263  11.956
42889SOL    HW130564   0.870   7.215  11.874
42889SOL    HW230565   0.968   7.304  11.948
42890SOL     OW30566   5.192   0.883  13.277
42890SOL    HW130567   5.257   0.921  13.336
42890SOL    HW230568   5.130   0.840  13.335
42891SOL     OW30569   3.350  14.777   4.217
42891SOL    HW130570   3.329  14.718   4.289
42891SOL    HW230571   3.401  14.847   4.258
42892SOL     OW30572   9.761   1.212  10.646
42892SOL    HW130573   9.702   1.141  10.618
42892SOL    HW230574   9.735   1.287  10.593
42893SOL     OW30575   2.893  14.309  14.699
42893SOL    HW130576   2.888  14.352  14.784
42893SOL    HW230577   2.808  14.325  14.659
42894SOL     OW30578   5.958  11.964   8.248
42894SOL    HW130579   5.873  11.927   8.223
42894SOL    HW230580   5.938  12.054   8.272
42895SOL     OW30581   6.676   6.768  12.291
42895SOL    HW130582   6.678   6.829  12.365
42895SOL    HW230583   6.684   6.681  12.331
42896SOL     OW30584   7.726  12.861   6.426
42896SOL    HW130585   7.726  12.816   6.342
42896SOL    HW230586   7.812  12.841   6.463
42897SOL     OW30587   3.562  12.126  10.252
42897SOL    HW130588   3.648  12.084  10.250
42897SOL    HW230589   3.573  12.198  10.314
42898SOL     OW30590  10.315   0.057   3.817
42898SOL    HW130591  10.275  14.865   3.864
42898SOL    HW230592  10.377   0.094   3.880
42899SOL     OW30593   9.360   2.818   5.905
42899SOL    HW130594   9.316   2.733   5.905
42899SOL    HW230595   9.300   2.876   5.951
42900SOL     OW30596   8.486  11.478  11.676
42900SOL    HW130597   8.550  11.490  11.746
42900SOL    HW230598   8.410  11.530  11.704
42901SOL     OW30599   4.028   2.659   2.681
42901SOL    HW130600   4.080   2.739   2.675
42901SOL    HW230601   4.092   2.588   2.674
42902SOL     OW30602   4.398   6.134  12.733
42902SOL    HW130603   4.375   6.045  12.705
42902SOL    HW230604   4.405   6.184  12.651
42903SOL     OW30605   4.652   4.399   9.543
42903SOL    HW130606   4.656   4.420   9.637
42903SOL    HW230607   4.562   4.422   9.518
42904SOL     OW30608   6.229  12.102   3.150
42904SOL    HW130609   6.145  12.140   3.175
42904SOL    HW230610   6.272  12.083   3.233
42905SOL     OW30611   4.590   6.208   2.046
42905SOL    HW130612   4.663   6.149   2.064
42905SOL    HW230613   4.517   6.149   2.023
42906SOL     OW30614  12.856   8.319   6.760
42906SOL    HW130615  12.885   8.384   6.697
42906SOL    HW230616  12.932   8.261   6.770
42907SOL     OW30617   2.890   5.279   3.655
42907SOL    HW130618   2.972   5.312   3.619
42907SOL    HW230619   2.891   5.306   3.747
42908SOL     OW30620  13.172   4.068   3.552
42908SOL    HW130621  13.245   4.126   3.574
42908SOL    HW230622  13.213   3.996   3.503
42909SOL     OW30623   4.495   2.309  13.697
42909SOL    HW130624   4.420   2.347  13.650
42909SOL    HW230625   4.571   2.350  13.657
42910SOL     OW30626  10.439  14.231   9.339
42910SOL    HW130627  10.428  14.288   9.416
42910SOL    HW230628  10.450  14.292   9.266
42911SOL     OW30629  14.196  13.557   0.306
42911SOL    HW130630  14.168  13.643   0.337
42911SOL    HW230631  14.163  13.496   0.371
42912SOL     OW30632   8.388   6.765   1.677
42912SOL    HW130633   8.326   6.834   1.703
42912SOL    HW230634   8.342   6.717   1.608
42913SOL     OW30635   5.331  12.433   8.204
42913SOL    HW130636   5.300  12.439   8.113
42913SOL    HW230637   5.415  12.387   8.198
42914SOL     OW30638   4.701   9.693  11.700
42914SOL    HW130639   4.785   9.738  11.696
42914SOL    HW230640   4.664   9.718  11.785
42915SOL     OW30641   4.707   6.592   4.945
42915SOL    HW130642   4.757   6.515   4.919
42915SOL    HW230643   4.773   6.661   4.954
42916SOL     OW30644   1.167   2.083   2.884
42916SOL    HW130645   1.141   2.030   2.959
42916SOL    HW230646   1.242   2.035   2.846
42917SOL     OW30647   4.060  14.042  13.643
42917SOL    HW130648   4.011  13.959  13.637
42917SOL    HW230649   4.152  14.016  13.638
42918SOL     OW30650  14.791  10.219  10.156
42918SOL    HW130651  14.792  10.299  10.208
42918SOL    HW230652  14.732  10.237  10.083
42919SOL     OW30653   1.646   8.261  14.555
42919SOL    HW130654   1.603   8.255  14.640
42919SOL    HW230655   1.581   8.228  14.493
42920SOL     OW30656   6.559   6.784  13.988
42920SOL    HW130657   6.535   6.704  13.941
42920SOL    HW230658   6.630   6.822  13.937
42921SOL     OW30659   5.820   7.453  13.116
42921SOL    HW130660   5.865   7.480  13.036
42921SOL    HW230661   5.728   7.470  13.099
42922SOL     OW30662   4.648  13.522   5.074
42922SOL    HW130663   4.736  13.509   5.039
42922SOL    HW230664   4.621  13.436   5.105
42923SOL     OW30665   5.638   3.382  12.120
42923SOL    HW130666   5.564   3.342  12.074
42923SOL    HW230667   5.599   3.431  12.192
42924SOL     OW30668  12.812  10.123   5.287
42924SOL    HW130669  12.744  10.058   5.304
42924SOL    HW230670  12.765  10.200   5.254
42925SOL     OW30671   7.326   1.239   3.357
42925SOL    HW130672   7.251   1.206   3.307
42925SOL    HW230673   7.362   1.308   3.301
42926SOL     OW30674  13.536   2.997  12.348
42926SOL    HW130675  13.526   3.092  12.344
42926SOL    HW230676  13.517   2.967  12.259
42927SOL     OW30677  12.030   0.340   2.904
42927SOL    HW130678  11.947   0.335   2.951
42927SOL    HW230679  12.027   0.266   2.843
42928SOL     OW30680   3.595   6.472   3.575
42928SOL    HW130681   3.676   6.522   3.568
42928SOL    HW230682   3.527   6.533   3.546
42929SOL     OW30683   3.699   0.954   2.999
42929SOL    HW130684   3.711   0.921   3.088
42929SOL    HW230685   3.783   0.996   2.978
42930SOL     OW30686  11.305   2.184   0.847
42930SOL    HW130687  11.239   2.235   0.801
42930SOL    HW230688  11.293   2.208   0.939
42931SOL     OW30689   2.983   2.938   4.373
42931SOL    HW130690   3.031   2.913   4.295
42931SOL    HW230691   2.920   3.004   4.343
42932SOL     OW30692   8.297  14.788  13.799
42932SOL    HW130693   8.249  14.840  13.864
42932SOL    HW230694   8.236  14.717  13.777
42933SOL     OW30695   5.768   0.727   8.055
42933SOL    HW130696   5.797   0.720   7.964
42933SOL    HW230697   5.847   0.710   8.107
42934SOL     OW30698  14.691   4.965   8.576
42934SOL    HW130699  14.783   4.945   8.558
42934SOL    HW230700  14.644   4.931   8.499
42935SOL     OW30701  11.105  13.416   7.275
42935SOL    HW130702  11.113  13.477   7.348
42935SOL    HW230703  11.175  13.352   7.289
42936SOL     OW30704   2.250   5.780   7.022
42936SOL    HW130705   2.335   5.787   6.980
42936SOL    HW230706   2.249   5.692   7.061
42937SOL     OW30707  12.886   0.352  13.169
42937SOL    HW130708  12.939   0.274  13.153
42937SOL    HW230709  12.852   0.376  13.082
42938SOL     OW30710   2.644  10.191  14.291
42938SOL    HW130711   2.624  10.253  14.220
42938SOL    HW230712   2.690  10.243  14.356
42939SOL     OW30713   6.144  10.561  13.467
42939SOL    HW130714   6.230  10.536  13.432
42939SOL    HW230715   6.139  10.656  13.453
42940SOL     OW30716   5.126  11.073   1.750
42940SOL    HW130717   5.192  11.014   1.788
42940SOL    HW230718   5.176  11.131   1.692
42941SOL     OW30719   9.260   2.669   1.993
42941SOL    HW130720   9.325   2.618   2.042
42941SOL    HW230721   9.299   2.756   1.986
42942SOL     OW30722  10.106   0.389   7.220
42942SOL    HW130723  10.165   0.367   7.292
42942SOL    HW230724  10.132   0.477   7.194
42943SOL     OW30725  10.827   9.121   6.317
42943SOL    HW130726  10.755   9.067   6.352
42943SOL    HW230727  10.789   9.164   6.241
42944SOL     OW30728  14.099   2.559   2.843
42944SOL    HW130729  14.091   2.654   2.852
42944SOL    HW230730  14.137   2.530   2.926
42945SOL     OW30731   7.988   9.278   5.019
42945SOL    HW130732   8.042   9.200   5.007
42945SOL    HW230733   7.899   9.248   5.003
42946SOL     OW30734   4.480   8.504  12.651
42946SOL    HW130735   4.396   8.464  12.674
42946SOL    HW230736   4.496   8.475  12.561
42947SOL     OW30737   5.097   1.293   4.019
42947SOL    HW130738   5.121   1.372   3.972
42947SOL    HW230739   5.132   1.306   4.107
42948SOL     OW30740   8.049  10.502  11.987
42948SOL    HW130741   8.068  10.553  11.909
42948SOL    HW230742   8.100  10.422  11.977
42949SOL     OW30743  11.016  11.740  12.861
42949SOL    HW130744  10.937  11.789  12.884
42949SOL    HW230745  10.991  11.690  12.784
42950SOL     OW30746   8.506  13.669   1.406
42950SOL    HW130747   8.449  13.598   1.437
42950SOL    HW230748   8.582  13.624   1.369
42951SOL     OW30749  11.475  12.077   2.231
42951SOL    HW130750  11.534  12.008   2.200
42951SOL    HW230751  11.500  12.091   2.322
42952SOL     OW30752   2.197   0.025  13.526
42952SOL    HW130753   2.122   0.047  13.580
42952SOL    HW230754   2.197  14.812  13.522
42953SOL     OW30755  11.407   1.229   1.129
42953SOL    HW130756  11.440   1.292   1.193
42953SOL    HW230757  11.463   1.152   1.141
42954SOL     OW30758   4.080   6.032  11.619
42954SOL    HW130759   4.099   6.084  11.697
42954SOL    HW230760   4.092   5.941  11.647
42955SOL     OW30761  12.854   6.886  12.550
42955SOL    HW130762  12.900   6.851  12.626
42955SOL    HW230763  12.832   6.809  12.498
42956SOL     OW30764   6.622   8.484   1.865
42956SOL    HW130765   6.630   8.575   1.837
42956SOL    HW230766   6.548   8.484   1.926
42957SOL     OW30767   4.928  12.200   2.629
42957SOL    HW130768   5.008  12.163   2.667
42957SOL    HW230769   4.958  12.275   2.577
42958SOL     OW30770   2.619   7.798  13.604
42958SOL    HW130771   2.683   7.788  13.534
42958SOL    HW230772   2.555   7.861  13.570
42959SOL     OW30773  13.563   1.644  12.905
42959SOL    HW130774  13.518   1.579  12.957
42959SOL    HW230775  13.648   1.604  12.885
42960SOL     OW30776  11.063   8.431  10.652
42960SOL    HW130777  10.981   8.400  10.689
42960SOL    HW230778  11.041   8.457  10.563
42961SOL     OW30779  14.662   8.163   5.358
42961SOL    HW130780  14.736   8.206   5.402
42961SOL    HW230781  14.663   8.199   5.269
42962SOL     OW30782   6.692  11.148   2.239
42962SOL    HW130783   6.706  11.137   2.145
42962SOL    HW230784   6.603  11.115   2.254
42963SOL     OW30785   5.362   6.232   0.154
42963SOL    HW130786   5.377   6.323   0.179
42963SOL    HW230787   5.446   6.204   0.117
42964SOL     OW30788   1.665  10.907   8.738
42964SOL    HW130789   1.664  10.958   8.657
42964SOL    HW230790   1.698  10.968   8.804
42965SOL     OW30791   2.160   0.483  12.339
42965SOL    HW130792   2.212   0.410  12.371
42965SOL    HW230793   2.142   0.535  12.418
42966SOL     OW30794   6.746   4.098   3.984
42966SOL    HW130795   6.670   4.145   3.950
42966SOL    HW230796   6.714   4.010   4.003
42967SOL     OW30797  10.526   9.796   5.008
42967SOL    HW130798  10.469   9.819   4.935
42967SOL    HW230799  10.478   9.729   5.057
42968SOL     OW30800   1.172   5.753   1.254
42968SOL    HW130801   1.183   5.667   1.215
42968SOL    HW230802   1.094   5.789   1.213
42969SOL     OW30803   3.105  13.364   9.295
42969SOL    HW130804   3.184  13.367   9.348
42969SOL    HW230805   3.046  13.305   9.343
42970SOL     OW30806   7.263   9.962   0.847
42970SOL    HW130807   7.274  10.009   0.930
42970SOL    HW230808   7.193   9.899   0.865
42971SOL     OW30809   3.163  12.960  12.397
42971SOL    HW130810   3.156  12.979  12.303
42971SOL    HW230811   3.245  12.911  12.406
42972SOL     OW30812   9.873  12.413   4.715
42972SOL    HW130813   9.817  12.358   4.770
42972SOL    HW230814   9.901  12.483   4.773
42973SOL     OW30815   7.295   0.427   7.849
42973SOL    HW130816   7.223   0.483   7.821
42973SOL    HW230817   7.363   0.438   7.782
42974SOL     OW30818   8.485   0.293   6.949
42974SOL    HW130819   8.480   0.347   6.870
42974SOL    HW230820   8.518   0.351   7.017
42975SOL     OW30821   3.009  10.839   9.000
42975SOL    HW130822   2.936  10.800   9.048
42975SOL    HW230823   3.009  10.794   8.915
42976SOL     OW30824  10.280   9.278   5.860
42976SOL    HW130825  10.301   9.222   5.785
42976SOL    HW230826  10.362   9.284   5.909
42977SOL     OW30827   0.540  14.445  14.250
42977SOL    HW130828   0.610  14.506  14.270
42977SOL    HW230829   0.583  14.360  14.241
42978SOL     OW30830  11.007   8.479   5.924
42978SOL    HW130831  10.985   8.466   6.017
42978SOL    HW230832  11.034   8.393   5.894
42979SOL     OW30833  13.165  10.895  14.365
42979SOL    HW130834  13.129  10.927  14.283
42979SOL    HW230835  13.207  10.972  14.404
42980SOL     OW30836   1.337   5.007   5.280
42980SOL    HW130837   1.360   4.985   5.370
42980SOL    HW230838   1.249   4.972   5.268
42981SOL     OW30839   6.113  10.287   9.403
42981SOL    HW130840   6.110  10.244   9.317
42981SOL    HW230841   6.032  10.339   9.405
42982SOL     OW30842   7.860   3.084   8.339
42982SOL    HW130843   7.838   3.170   8.375
42982SOL    HW230844   7.954   3.087   8.325
42983SOL     OW30845  11.020  10.158  11.327
42983SOL    HW130846  11.061  10.097  11.388
42983SOL    HW230847  10.962  10.211  11.382
42984SOL     OW30848   3.305   4.537  10.756
42984SOL    HW130849   3.234   4.556  10.695
42984SOL    HW230850   3.264   4.484  10.824
42985SOL     OW30851   8.538  10.756   6.322
42985SOL    HW130852   8.541  10.699   6.399
42985SOL    HW230853   8.480  10.828   6.348
42986SOL     OW30854   0.047   7.951   5.753
42986SOL    HW130855  14.868   7.956   5.826
42986SOL    HW230856   0.061   7.858   5.739
42987SOL     OW30857   3.697  12.798   8.991
42987SOL    HW130858   3.649  12.730   9.038
42987SOL    HW230859   3.630  12.844   8.940
42988SOL     OW30860   9.315   1.357   3.973
42988SOL    HW130861   9.223   1.383   3.976
42988SOL    HW230862   9.353   1.394   4.052
42989SOL     OW30863   7.274   2.007   9.549
42989SOL    HW130864   7.294   1.943   9.481
42989SOL    HW230865   7.181   2.026   9.537
42990SOL     OW30866  12.655   5.978   8.123
42990SOL    HW130867  12.570   5.955   8.086
42990SOL    HW230868  12.717   5.960   8.053
42991SOL     OW30869  10.597  10.679  12.690
42991SOL    HW130870  10.597  10.745  12.620
42991SOL    HW230871  10.518  10.699  12.741
42992SOL     OW30872   8.017   4.338   4.828
42992SOL    HW130873   8.081   4.360   4.895
42992SOL    HW230874   7.995   4.421   4.786
42993SOL     OW30875   3.774   7.966  12.531
42993SOL    HW130876   3.730   7.946  12.448
42993SOL    HW230877   3.847   8.022  12.507
42994SOL     OW30878   2.304  14.196  10.380
42994SOL    HW130879   2.335  14.285  10.366
42994SOL    HW230880   2.375  14.153  10.427
42995SOL     OW30881   5.236   6.503  14.720
42995SOL    HW130882   5.256   6.568  14.788
42995SOL    HW230883   5.224   6.555  14.640
42996SOL     OW30884   9.229  12.647  11.180
42996SOL    HW130885   9.148  12.651  11.232
42996SOL    HW230886   9.267  12.562  11.200
42997SOL     OW30887  13.838   3.111  14.839
42997SOL    HW130888  13.775   3.141   0.021
42997SOL    HW230889  13.827   3.171  14.765
42998SOL     OW30890  12.665   5.565  10.890
42998SOL    HW130891  12.681   5.481  10.847
42998SOL    HW230892  12.748   5.589  10.930
42999SOL     OW30893   1.476  11.615   4.629
42999SOL    HW130894   1.437  11.535   4.593
42999SOL    HW230895   1.526  11.585   4.705
43000SOL     OW30896  14.324   5.631   3.501
43000SOL    HW130897  14.364   5.561   3.552
43000SOL    HW230898  14.261   5.586   3.444
43001SOL     OW30899   8.485  11.852  14.597
43001SOL    HW130900   8.453  11.779  14.650
43001SOL    HW230901   8.505  11.921  14.661
43002SOL     OW30902   5.530  13.003  14.860
43002SOL    HW130903   5.499  13.093  14.854
43002SOL    HW230904   5.622  13.007  14.834
43003SOL     OW30905   3.427   7.238   4.066
43003SOL    HW130906   3.480   7.269   4.140
43003SOL    HW230907   3.391   7.318   4.027
43004SOL     OW30908   5.611   4.424  12.575
43004SOL    HW130909   5.561   4.436  12.656
43004SOL    HW230910   5.671   4.499  12.574
43005SOL     OW30911  10.841   0.445  13.201
43005SOL    HW130912  10.900   0.442  13.276
43005SOL    HW230913  10.897   0.462  13.126
43006SOL     OW30914   2.969   6.691  14.456
43006SOL    HW130915   3.001   6.604  14.434
43006SOL    HW230916   2.877   6.691  14.427
43007SOL     OW30917   5.064   2.749   7.945
43007SOL    HW130918   5.044   2.821   8.005
43007SOL    HW230919   5.005   2.763   7.870
43008SOL     OW30920   5.919  13.963   4.561
43008SOL    HW130921   5.925  14.056   4.584
43008SOL    HW230922   5.825  13.943   4.566
43009SOL     OW30923   5.387   3.442  14.592
43009SOL    HW130924   5.403   3.445  14.498
43009SOL    HW230925   5.296   3.471  14.602
43010SOL     OW30926   9.436   4.776  11.884
43010SOL    HW130927   9.452   4.853  11.829
43010SOL    HW230928   9.386   4.716  11.829
43011SOL     OW30929   1.549   9.211   6.902
43011SOL    HW130930   1.527   9.161   6.980
43011SOL    HW230931   1.467   9.217   6.853
43012SOL     OW30932   7.329  10.109  10.002
43012SOL    HW130933   7.260  10.082   9.941
43012SOL    HW230934   7.343  10.033  10.058
43013SOL     OW30935   3.961   9.792   6.662
43013SOL    HW130936   3.973   9.814   6.570
43013SOL    HW230937   4.036   9.833   6.706
43014SOL     OW30938   7.957   2.997  12.074
43014SOL    HW130939   8.004   2.939  12.135
43014SOL    HW230940   8.004   2.987  11.991
43015SOL     OW30941  14.635   5.017   3.396
43015SOL    HW130942  14.663   4.989   3.309
43015SOL    HW230943  14.679   4.958   3.456
43016SOL     OW30944   8.073   7.975   6.678
43016SOL    HW130945   8.147   8.004   6.625
43016SOL    HW230946   8.087   8.016   6.764
43017SOL     OW30947   6.963  11.867   6.833
43017SOL    HW130948   6.966  11.926   6.758
43017SOL    HW230949   6.871  11.843   6.841
43018SOL     OW30950   8.922   0.792   4.445
43018SOL    HW130951   8.921   0.850   4.369
43018SOL    HW230952   8.876   0.841   4.513
43019SOL     OW30953   7.105   6.189   5.134
43019SOL    HW130954   7.078   6.252   5.201
43019SOL    HW230955   7.200   6.190   5.137
43020SOL     OW30956  13.086   0.204   7.587
43020SOL    HW130957  13.023   0.220   7.657
43020SOL    HW230958  13.057   0.121   7.548
43021SOL     OW30959   0.572   5.370   9.124
43021SOL    HW130960   0.622   5.440   9.081
43021SOL    HW230961   0.519   5.332   9.054
43022SOL     OW30962  13.283   5.662   0.755
43022SOL    HW130963  13.327   5.652   0.839
43022SOL    HW230964  13.192   5.637   0.772
43023SOL     OW30965   7.142  10.844  13.960
43023SOL    HW130966   7.183  10.881  13.882
43023SOL    HW230967   7.199  10.870  14.032
43024SOL     OW30968   9.742   2.757  12.518
43024SOL    HW130969   9.794   2.738  12.596
43024SOL    HW230970   9.786   2.709  12.447
43025SOL     OW30971  12.950   1.267   3.426
43025SOL    HW130972  12.989   1.179   3.429
43025SOL    HW230973  13.014   1.323   3.471
43026SOL     OW30974   6.097   9.667   0.042
43026SOL    HW130975   6.164   9.673  14.856
43026SOL    HW230976   6.134   9.608   0.108
43027SOL     OW30977   7.992  11.020   5.263
43027SOL    HW130978   8.035  11.025   5.177
43027SOL    HW230979   7.961  10.929   5.268
43028SOL     OW30980  10.124   2.582   1.919
43028SOL    HW130981  10.178   2.542   1.850
43028SOL    HW230982  10.103   2.669   1.885
43029SOL     OW30983  13.597   5.199  11.444
43029SOL    HW130984  13.690   5.215  11.426
43029SOL    HW230985  13.551   5.275  11.409
43030SOL     OW30986   1.134   9.376  14.501
43030SOL    HW130987   1.208   9.322  14.475
43030SOL    HW230988   1.082   9.318  14.557
43031SOL     OW30989   9.467   7.057  14.619
43031SOL    HW130990   9.435   6.973  14.587
43031SOL    HW230991   9.459   7.116  14.544
43032SOL     OW30992  13.302  12.925  11.488
43032SOL    HW130993  13.300  12.983  11.412
43032SOL    HW230994  13.216  12.937  11.529
43033SOL     OW30995   9.267   9.436  12.475
43033SOL    HW130996   9.200   9.368  12.469
43033SOL    HW230997   9.328   9.416  12.404
43034SOL     OW30998   2.052   6.619  10.971
43034SOL    HW130999   2.115   6.687  10.948
43034SOL    HW231000   1.993   6.660  11.034
43035SOL     OW31001   4.844   0.915   9.054
43035SOL    HW131002   4.911   0.968   9.012
43035SOL    HW231003   4.822   0.848   8.989
43036SOL     OW31004   6.726   8.639   5.741
43036SOL    HW131005   6.749   8.731   5.756
43036SOL    HW231006   6.714   8.633   5.646
43037SOL     OW31007   3.474  12.149   6.774
43037SOL    HW131008   3.489  12.238   6.741
43037SOL    HW231009   3.400  12.117   6.723
43038SOL     OW31010   5.005   9.212   8.752
43038SOL    HW131011   4.985   9.212   8.659
43038SOL    HW231012   5.070   9.143   8.763
43039SOL     OW31013  11.381   8.086   2.884
43039SOL    HW131014  11.415   8.172   2.910
43039SOL    HW231015  11.454   8.026   2.900
43040SOL     OW31016   3.969  14.777   6.780
43040SOL    HW131017   4.015  14.707   6.827
43040SOL    HW231018   4.039  14.826   6.736
43041SOL     OW31019   4.613   5.037  12.193
43041SOL    HW131020   4.652   5.111  12.240
43041SOL    HW231021   4.535   5.015  12.244
43042SOL     OW31022   2.803  13.413   6.908
43042SOL    HW131023   2.890  13.386   6.880
43042SOL    HW231024   2.775  13.345   6.969
43043SOL     OW31025   2.468  13.146  10.035
43043SOL    HW131026   2.528  13.074  10.054
43043SOL    HW231027   2.509  13.192   9.962
43044SOL     OW31028   7.953   9.371   2.396
43044SOL    HW131029   7.998   9.398   2.477
43044SOL    HW231030   7.872   9.331   2.427
43045SOL     OW31031  13.460   2.191  14.591
43045SOL    HW131032  13.401   2.207  14.518
43045SOL    HW231033  13.517   2.121  14.562
43046SOL     OW31034   9.457   3.218   2.658
43046SOL    HW131035   9.521   3.197   2.725
43046SOL    HW231036   9.460   3.144   2.597
43047SOL     OW31037   6.194  13.998   4.703
43047SOL    HW131038   6.227  14.053   4.632
43047SOL    HW231039   6.104  13.977   4.677
43048SOL     OW31040  14.864   3.411  12.223
43048SOL    HW131041   0.037   3.466  12.279
43048SOL    HW231042   0.015   3.427  12.134
43049SOL     OW31043   1.505   3.850   2.140
43049SOL    HW131044   1.410   3.859   2.132
43049SOL    HW231045   1.519   3.823   2.231
43050SOL     OW31046  11.799   9.129   8.145
43050SOL    HW131047  11.728   9.114   8.083
43050SOL    HW231048  11.804   9.225   8.154
43051SOL     OW31049   5.690  14.811   3.954
43051SOL    HW131050   5.667  14.820   4.046
43051SOL    HW231051   5.785  14.801   3.954
43052SOL     OW31052  10.372  11.358  10.780
43052SOL    HW131053  10.349  11.322  10.866
43052SOL    HW231054  10.391  11.281  10.726
43053SOL     OW31055   5.468  12.016   9.145
43053SOL    HW131056   5.377  11.989   9.133
43053SOL    HW231057   5.489  12.065   9.066
43054SOL     OW31058  14.002   2.086  12.128
43054SOL    HW131059  14.043   2.042  12.054
43054SOL    HW231060  14.015   2.028  12.202
43055SOL     OW31061   6.599   6.189   3.779
43055SOL    HW131062   6.606   6.124   3.709
43055SOL    HW231063   6.623   6.141   3.858
43056SOL     OW31064   2.068   0.828   2.291
43056SOL    HW131065   2.022   0.906   2.323
43056SOL    HW231066   2.017   0.754   2.325
43057SOL     OW31067  12.677   9.856   2.544
43057SOL    HW131068  12.744   9.897   2.489
43057SOL    HW231069  12.664   9.919   2.616
43058SOL     OW31070  11.759   3.965   5.216
43058SOL    HW131071  11.756   3.878   5.256
43058SOL    HW231072  11.772   3.948   5.123
43059SOL     OW31073   5.872  14.340   4.176
43059SOL    HW131074   5.917  14.269   4.221
43059SOL    HW231075   5.813  14.296   4.114
43060SOL     OW31076  10.713  13.941   1.247
43060SOL    HW131077  10.787  13.964   1.192
43060SOL    HW231078  10.655  13.889   1.191
43061SOL     OW31079   9.362  11.914   4.268
43061SOL    HW131080   9.271  11.929   4.244
43061SOL    HW231081   9.384  11.830   4.228
43062SOL     OW31082  12.984   9.805   5.177
43062SOL    HW131083  13.056   9.831   5.234
43062SOL    HW231084  12.932   9.744   5.229
43063SOL     OW31085  13.241   4.601  12.302
43063SOL    HW131086  13.336   4.599  12.295
43063SOL    HW231087  13.210   4.547  12.230
43064SOL     OW31088   4.908  12.784  10.372
43064SOL    HW131089   4.914  12.697  10.413
43064SOL    HW231090   4.973  12.781  10.302
43065SOL     OW31091   0.761   5.265   5.397
43065SOL    HW131092   0.678   5.237   5.359
43065SOL    HW231093   0.811   5.300   5.323
43066SOL     OW31094   7.257  14.451   6.628
43066SOL    HW131095   7.249  14.356   6.636
43066SOL    HW231096   7.171  14.479   6.596
43067SOL     OW31097   4.853   7.176   6.067
43067SOL    HW131098   4.944   7.146   6.071
43067SOL    HW231099   4.859   7.266   6.035
43068SOL     OW31100   0.967  10.561   2.509
43068SOL    HW131101   0.958  10.587   2.417
43068SOL    HW231102   1.033  10.492   2.508
43069SOL     OW31103   4.111   0.221  12.314
43069SOL    HW131104   4.164   0.164  12.259
43069SOL    HW231105   4.034   0.169  12.338
43070SOL     OW31106   9.702   5.266   3.018
43070SOL    HW131107   9.620   5.295   3.057
43070SOL    HW231108   9.728   5.190   3.071
43071SOL     OW31109  11.002  12.920   7.206
43071SOL    HW131110  10.931  12.984   7.194
43071SOL    HW231111  11.057  12.957   7.275
43072SOL     OW31112  13.799   2.003   8.997
43072SOL    HW131113  13.767   2.004   9.087
43072SOL    HW231114  13.737   2.056   8.948
43073SOL     OW31115   9.189   0.685   4.744
43073SOL    HW131116   9.241   0.766   4.745
43073SOL    HW231117   9.221   0.638   4.667
43074SOL     OW31118   5.330   9.897  13.013
43074SOL    HW131119   5.339   9.992  13.018
43074SOL    HW231120   5.337   9.876  12.920
43075SOL     OW31121   4.018   7.316  11.893
43075SOL    HW131122   3.933   7.341  11.857
43075SOL    HW231123   4.014   7.220  11.899
43076SOL     OW31124   9.593   3.178  13.969
43076SOL    HW131125   9.517   3.125  13.946
43076SOL    HW231126   9.558   3.253  14.016
43077SOL     OW31127   6.066   7.176   4.729
43077SOL    HW131128   6.003   7.121   4.683
43077SOL    HW231129   6.022   7.261   4.735
43078SOL     OW31130   9.867  10.341   5.884
43078SOL    HW131131   9.812  10.264   5.868
43078SOL    HW231132   9.817  10.394   5.946
43079SOL     OW31133   8.751   3.375   8.756
43079SOL    HW131134   8.766   3.375   8.851
43079SOL    HW231135   8.672   3.322   8.745
43080SOL     OW31136   4.106   9.492   6.691
43080SOL    HW131137   4.082   9.583   6.672
43080SOL    HW231138   4.157   9.497   6.771
43081SOL     OW31139   4.082  10.905  11.597
43081SOL    HW131140   3.999  10.880  11.639
43081SOL    HW231141   4.141  10.832  11.615
43082SOL     OW31142  11.480   5.064   4.303
43082SOL    HW131143  11.462   5.158   4.310
43082SOL    HW231144  11.424   5.035   4.230
43083SOL     OW31145   5.590   1.567   4.257
43083SOL    HW131146   5.526   1.620   4.210
43083SOL    HW231147   5.547   1.548   4.341
43084SOL     OW31148   1.118   2.552  10.999
43084SOL    HW131149   1.171   2.508  11.066
43084SOL    HW231150   1.129   2.499  10.921
43085SOL     OW31151   3.827   3.177   6.136
43085SOL    HW131152   3.823   3.174   6.040
43085SOL    HW231153   3.880   3.254   6.156
43086SOL     OW31154  14.251  10.593   3.395
43086SOL    HW131155  14.237  10.625   3.485
43086SOL    HW231156  14.333  10.545   3.399
43087SOL     OW31157   8.520   8.482   1.482
43087SOL    HW131158   8.502   8.392   1.509
43087SOL    HW231159   8.446   8.507   1.427
43088SOL     OW31160   3.728   9.883  12.744
43088SOL    HW131161   3.689   9.961  12.704
43088SOL    HW231162   3.817   9.880  12.709
43089SOL     OW31163   5.789   8.578   1.933
43089SOL    HW131164   5.796   8.539   2.020
43089SOL    HW231165   5.879   8.578   1.900
43090SOL     OW31166  11.506   4.962  13.834
43090SOL    HW131167  11.480   4.931  13.920
43090SOL    HW231168  11.472   4.896  13.773
43091SOL     OW31169   6.027  12.445   1.265
43091SOL    HW131170   6.025  12.516   1.202
43091SOL    HW231171   6.109  12.456   1.312
43092SOL     OW31172   3.981   2.126   5.235
43092SOL    HW131173   3.984   2.091   5.146
43092SOL    HW231174   4.016   2.055   5.289
43093SOL     OW31175   1.559   5.300   2.949
43093SOL    HW131176   1.596   5.213   2.962
43093SOL    HW231177   1.607   5.355   3.011
43094SOL     OW31178   7.808   9.980   9.662
43094SOL    HW131179   7.813   9.964   9.568
43094SOL    HW231180   7.724  10.025   9.674
43095SOL     OW31181   8.709   7.475   5.775
43095SOL    HW131182   8.750   7.505   5.856
43095SOL    HW231183   8.640   7.539   5.758
43096SOL     OW31184  10.868  13.484   4.928
43096SOL    HW131185  10.779  13.459   4.905
43096SOL    HW231186  10.870  13.579   4.914
43097SOL     OW31187   9.282  13.741   9.980
43097SOL    HW131188   9.316  13.653   9.969
43097SOL    HW231189   9.295  13.761  10.073
43098SOL     OW31190   0.585   9.983  13.986
43098SOL    HW131191   0.577   9.888  13.994
43098SOL    HW231192   0.501  10.011  13.950
43099SOL     OW31193  13.660  11.409  10.149
43099SOL    HW131194  13.615  11.493  10.155
43099SOL    HW231195  13.614  11.363  10.078
43100SOL     OW31196   3.646   0.077   5.849
43100SOL    HW131197   3.668   0.170   5.852
43100SOL    HW231198   3.682   0.046   5.767
43101SOL     OW31199  12.202   6.900   1.904
43101SOL    HW131200  12.249   6.965   1.956
43101SOL    HW231201  12.173   6.835   1.968
43102SOL     OW31202   1.349  14.686   2.838
43102SOL    HW131203   1.389  14.768   2.866
43102SOL    HW231204   1.421  14.624   2.836
43103SOL     OW31205  11.648   8.007   3.914
43103SOL    HW131206  11.674   8.091   3.953
43103SOL    HW231207  11.687   8.009   3.827
43104SOL     OW31208   7.912  10.774   8.233
43104SOL    HW131209   8.005  10.763   8.213
43104SOL    HW231210   7.873  10.688   8.218
43105SOL     OW31211  12.719   0.285   4.475
43105SOL    HW131212  12.634   0.324   4.456
43105SOL    HW231213  12.730   0.296   4.569
43106SOL     OW31214   7.591   6.278   3.722
43106SOL    HW131215   7.549   6.333   3.789
43106SOL    HW231216   7.681   6.312   3.717
43107SOL     OW31217   6.734   2.703   1.989
43107SOL    HW131218   6.724   2.799   1.989
43107SOL    HW231219   6.778   2.684   1.906
43108SOL     OW31220  10.584  10.101   3.435
43108SOL    HW131221  10.616  10.011   3.440
43108SOL    HW231222  10.659  10.151   3.404
43109SOL     OW31223   4.803   0.855   3.739
43109SOL    HW131224   4.802   0.760   3.747
43109SOL    HW231225   4.896   0.878   3.749
43110SOL     OW31226   4.989   0.044   9.036
43110SOL    HW131227   5.026  14.852   9.085
43110SOL    HW231228   5.065   0.086   8.996
43111SOL     OW31229   0.805  14.544   4.478
43111SOL    HW131230   0.876  14.597   4.443
43111SOL    HW231231   0.843  14.457   4.491
43112SOL     OW31232   2.053   8.820  12.629
43112SOL    HW131233   2.134   8.859  12.596
43112SOL    HW231234   2.032   8.752  12.565
43113SOL     OW31235  13.491   9.179   7.878
43113SOL    HW131236  13.405   9.193   7.839
43113SOL    HW231237  13.527   9.104   7.830
43114SOL     OW31238   8.000   9.411   8.714
43114SOL    HW131239   7.921   9.385   8.666
43114SOL    HW231240   8.014   9.340   8.777
43115SOL     OW31241   3.335  11.379   1.629
43115SOL    HW131242   3.412  11.344   1.584
43115SOL    HW231243   3.281  11.302   1.648
43116SOL     OW31244   7.118   2.792   2.727
43116SOL    HW131245   7.207   2.768   2.751
43116SOL    HW231246   7.063   2.730   2.774
43117SOL     OW31247   1.423   3.353   7.169
43117SOL    HW131248   1.411   3.441   7.132
43117SOL    HW231249   1.348   3.303   7.137
43118SOL     OW31250   5.304  10.013   7.622
43118SOL    HW131251   5.230  10.002   7.681
43118SOL    HW231252   5.309   9.931   7.573
43119SOL     OW31253   6.485  10.619   5.927
43119SOL    HW131254   6.536  10.552   5.972
43119SOL    HW231255   6.394  10.598   5.948
43120SOL     OW31256   6.510   8.639   0.052
43120SOL    HW131257   6.517   8.548   0.083
43120SOL    HW231258   6.460   8.684   0.121
43121SOL     OW31259   6.937   5.489   9.317
43121SOL    HW131260   7.031   5.500   9.325
43121SOL    HW231261   6.914   5.428   9.388
43122SOL     OW31262  14.495   9.190   6.056
43122SOL    HW131263  14.461   9.263   6.108
43122SOL    HW231264  14.549   9.231   5.989
43123SOL     OW31265   1.721  14.229   0.967
43123SOL    HW131266   1.677  14.224   1.052
43123SOL    HW231267   1.663  14.182   0.908
43124SOL     OW31268  13.929  13.564  13.545
43124SOL    HW131269  13.995  13.633  13.546
43124SOL    HW231270  13.916  13.543  13.453
43125SOL     OW31271   9.598  13.051   2.601
43125SOL    HW131272   9.657  13.006   2.540
43125SOL    HW231273   9.535  12.983   2.627
43126SOL     OW31274   5.376   4.650  11.658
43126SOL    HW131275   5.451   4.598  11.687
43126SOL    HW231276   5.330   4.672  11.739
43127SOL     OW31277  11.760   7.632   3.879
43127SOL    HW131278  11.665   7.645   3.878
43127SOL    HW231279  11.790   7.686   3.951
43128SOL     OW31280  14.301   4.223   3.532
43128SOL    HW131281  14.329   4.152   3.590
43128SOL    HW231282  14.378   4.279   3.525
43129SOL     OW31283   7.763   3.844   7.126
43129SOL    HW131284   7.680   3.892   7.132
43129SOL    HW231285   7.804   3.856   7.212
43130SOL     OW31286  14.463   4.639   3.362
43130SOL    HW131287  14.465   4.726   3.403
43130SOL    HW231288  14.553   4.607   3.368
43131SOL     OW31289  14.556   7.973  14.408
43131SOL    HW131290  14.540   7.893  14.358
43131SOL    HW231291  14.637   7.955  14.457
43132SOL     OW31292  14.305   1.007   2.257
43132SOL    HW131293  14.241   1.026   2.189
43132SOL    HW231294  14.253   1.001   2.338
43133SOL     OW31295   5.631  14.655  12.185
43133SOL    HW131296   5.580  14.605  12.249
43133SOL    HW231297   5.602  14.746  12.196
43134SOL     OW31298  14.607  12.529  10.067
43134SOL    HW131299  14.573  12.440  10.073
43134SOL    HW231300  14.683  12.530  10.124
43135SOL     OW31301   5.005  14.241   1.051
43135SOL    HW131302   5.092  14.206   1.037
43135SOL    HW231303   4.958  14.221   0.970
43136SOL     OW31304   7.209  14.436   5.118
43136SOL    HW131305   7.152  14.376   5.070
43136SOL    HW231306   7.154  14.512   5.137
43137SOL     OW31307   6.250   9.028   1.660
43137SOL    HW131308   6.198   9.099   1.698
43137SOL    HW231309   6.328   9.071   1.624
43138SOL     OW31310   0.086  10.854  12.044
43138SOL    HW131311   0.021  10.785  12.026
43138SOL    HW231312   0.127  10.829  12.126
43139SOL     OW31313  12.834   5.823   5.064
43139SOL    HW131314  12.828   5.877   4.985
43139SOL    HW231315  12.869   5.881   5.131
43140SOL     OW31316   4.447   9.586  11.589
43140SOL    HW131317   4.430   9.512  11.530
43140SOL    HW231318   4.542   9.599  11.582
43141SOL     OW31319   0.835   3.231   2.344
43141SOL    HW131320   0.827   3.138   2.364
43141SOL    HW231321   0.917   3.238   2.294
43142SOL     OW31322   1.409   2.912  11.191
43142SOL    HW131323   1.435   2.820  11.183
43142SOL    HW231324   1.483   2.953  11.237
43143SOL     OW31325  11.628  12.648  12.446
43143SOL    HW131326  11.540  12.678  12.424
43143SOL    HW231327  11.684  12.682  12.376
43144SOL     OW31328   8.425  13.507  10.740
43144SOL    HW131329   8.383  13.468  10.817
43144SOL    HW231330   8.456  13.593  10.770
43145SOL     OW31331  11.847   0.669   1.372
43145SOL    HW131332  11.926   0.663   1.425
43145SOL    HW231333  11.877   0.669   1.281
43146SOL     OW31334   8.371   8.055   6.072
43146SOL    HW131335   8.388   8.119   6.003
43146SOL    HW231336   8.447   8.060   6.129
43147SOL     OW31337  11.431   0.075  14.264
43147SOL    HW131338  11.441   0.169  14.275
43147SOL    HW231339  11.361   0.051  14.324
43148SOL     OW31340  10.830   4.853  12.329
43148SOL    HW131341  10.908   4.800  12.344
43148SOL    HW231342  10.861   4.925  12.273
43149SOL     OW31343   1.264  13.725   9.610
43149SOL    HW131344   1.322  13.762   9.543
43149SOL    HW231345   1.210  13.661   9.563
43150SOL     OW31346   1.955   0.831   0.517
43150SOL    HW131347   1.893   0.862   0.451
43150SOL    HW231348   1.926   0.873   0.599
43151SOL     OW31349   7.710   0.687  11.644
43151SOL    HW131350   7.796   0.702  11.606
43151SOL    HW231351   7.666   0.772  11.640
43152SOL     OW31352   3.509   1.130   9.328
43152SOL    HW131353   3.486   1.170   9.244
43152SOL    HW231354   3.425   1.104   9.367
43153SOL     OW31355  11.647  14.496   4.230
43153SOL    HW131356  11.708  14.552   4.181
43153SOL    HW231357  11.644  14.534   4.317
43154SOL     OW31358   7.661   5.570   6.367
43154SOL    HW131359   7.652   5.572   6.462
43154SOL    HW231360   7.680   5.478   6.347
43155SOL     OW31361  11.046   3.720   3.689
43155SOL    HW131362  11.050   3.814   3.705
43155SOL    HW231363  11.087   3.681   3.766
43156SOL     OW31364   0.044   9.276  14.610
43156SOL    HW131365   0.121   9.332  14.599
43156SOL    HW231366  14.857   9.320  14.561
43157SOL     OW31367  10.383   7.546   9.078
43157SOL    HW131368  10.365   7.615   9.142
43157SOL    HW231369  10.301   7.537   9.029
43158SOL     OW31370   4.982   7.372   2.830
43158SOL    HW131371   4.947   7.343   2.746
43158SOL    HW231372   5.043   7.443   2.807
43159SOL     OW31373   0.728   3.433   5.691
43159SOL    HW131374   0.729   3.436   5.595
43159SOL    HW231375   0.657   3.372   5.712
43160SOL     OW31376   6.299   2.984  13.375
43160SOL    HW131377   6.364   3.006  13.441
43160SOL    HW231378   6.316   3.045  13.303
43161SOL     OW31379   4.847  12.517   5.459
43161SOL    HW131380   4.864  12.440   5.404
43161SOL    HW231381   4.932  12.538   5.497
43162SOL     OW31382  12.453   5.766  10.602
43162SOL    HW131383  12.527   5.811  10.643
43162SOL    HW231384  12.444   5.684  10.651
43163SOL     OW31385  10.166   3.309   7.275
43163SOL    HW131386  10.261   3.324   7.271
43163SOL    HW231387  10.129   3.370   7.211
43164SOL     OW31388   1.943  13.580   0.578
43164SOL    HW131389   2.005  13.534   0.522
43164SOL    HW231390   1.998  13.626   0.641
43165SOL     OW31391   7.778  14.652  11.097
43165SOL    HW131392   7.730  14.585  11.144
43165SOL    HW231393   7.860  14.609  11.072
43166SOL     OW31394   7.846  13.124  11.328
43166SOL    HW131395   7.751  13.123  11.331
43166SOL    HW231396   7.869  13.045  11.279
43167SOL     OW31397   8.457   1.675  10.712
43167SOL    HW131398   8.507   1.700  10.635
43167SOL    HW231399   8.523   1.646  10.775
43168SOL     OW31400  14.036  13.781   4.794
43168SOL    HW131401  14.070  13.739   4.874
43168SOL    HW231402  13.991  13.859   4.826
43169SOL     OW31403   6.703   5.224   0.954
43169SOL    HW131404   6.713   5.318   0.937
43169SOL    HW231405   6.651   5.219   1.034
43170SOL     OW31406   8.934   6.601  10.511
43170SOL    HW131407   8.951   6.656  10.435
43170SOL    HW231408   8.938   6.661  10.585
43171SOL     OW31409  14.775   6.749   6.348
43171SOL    HW131410  14.680   6.737   6.351
43171SOL    HW231411  14.809   6.661   6.334
43172SOL     OW31412   2.236   8.111  11.377
43172SOL    HW131413   2.314   8.124  11.322
43172SOL    HW231414   2.208   8.021  11.359
43173SOL     OW31415   1.500  10.570   3.643
43173SOL    HW131416   1.539  10.525   3.568
43173SOL    HW231417   1.517  10.511   3.717
43174SOL     OW31418   9.930  14.333  12.999
43174SOL    HW131419   9.896  14.396  12.935
43174SOL    HW231420   9.852  14.293  13.037
43175SOL     OW31421  13.255   0.170  12.467
43175SOL    HW131422  13.251   0.099  12.532
43175SOL    HW231423  13.348   0.179  12.446
43176SOL     OW31424  14.648   6.707   1.496
43176SOL    HW131425  14.628   6.614   1.482
43176SOL    HW231426  14.568   6.743   1.534
43177SOL     OW31427   6.074   1.582  12.303
43177SOL    HW131428   6.087   1.543  12.390
43177SOL    HW231429   6.021   1.517  12.256
43178SOL     OW31430   3.943   1.601  14.591
43178SOL    HW131431   3.972   1.510  14.593
43178SOL    HW231432   4.021   1.651  14.565
43179SOL     OW31433   5.730   9.346   7.139
43179SOL    HW131434   5.818   9.375   7.163
43179SOL    HW231435   5.677   9.363   7.216
43180SOL     OW31436   5.101   0.614   5.284
43180SOL    HW131437   5.073   0.700   5.315
43180SOL    HW231438   5.193   0.608   5.311
43181SOL     OW31439  10.361   1.693  10.889
43181SOL    HW131440  10.365   1.690  10.985
43181SOL    HW231441  10.379   1.785  10.868
43182SOL     OW31442   2.992   3.478   1.918
43182SOL    HW131443   2.935   3.419   1.869
43182SOL    HW231444   3.059   3.505   1.855
43183SOL     OW31445   9.939   4.730   0.695
43183SOL    HW131446   9.973   4.642   0.675
43183SOL    HW231447   9.845   4.717   0.706
43184SOL     OW31448   2.209   5.817   5.238
43184SOL    HW131449   2.140   5.857   5.184
43184SOL    HW231450   2.263   5.891   5.266
43185SOL     OW31451  11.074   4.356   5.756
43185SOL    HW131452  11.075   4.325   5.666
43185SOL    HW231453  11.078   4.451   5.749
43186SOL     OW31454   8.784   0.716  13.448
43186SOL    HW131455   8.772   0.693  13.541
43186SOL    HW231456   8.867   0.763  13.446
43187SOL     OW31457   7.304   3.528   2.186
43187SOL    HW131458   7.240   3.562   2.249
43187SOL    HW231459   7.363   3.602   2.171
43188SOL     OW31460  11.468   4.600   3.917
43188SOL    HW131461  11.427   4.677   3.877
43188SOL    HW231462  11.473   4.536   3.845
43189SOL     OW31463   8.632   6.200   3.533
43189SOL    HW131464   8.574   6.147   3.477
43189SOL    HW231465   8.657   6.274   3.477
43190SOL     OW31466  12.711   2.123  12.158
43190SOL    HW131467  12.759   2.077  12.227
43190SOL    HW231468  12.660   2.054  12.115
43191SOL     OW31469   0.507   8.793   8.337
43191SOL    HW131470   0.499   8.797   8.432
43191SOL    HW231471   0.512   8.885   8.309
43192SOL     OW31472  14.706   4.009  13.622
43192SOL    HW131473  14.780   3.949  13.613
43192SOL    HW231474  14.709   4.064  13.544
43193SOL     OW31475   2.526   6.205   6.409
43193SOL    HW131476   2.557   6.187   6.497
43193SOL    HW231477   2.455   6.142   6.395
43194SOL     OW31478   7.792  12.343   0.602
43194SOL    HW131479   7.861  12.292   0.560
43194SOL    HW231480   7.712  12.291   0.588
43195SOL     OW31481  12.866   8.146   5.665
43195SOL    HW131482  12.820   8.190   5.593
43195SOL    HW231483  12.945   8.199   5.678
43196SOL     OW31484   7.120   0.500   4.837
43196SOL    HW131485   7.103   0.594   4.828
43196SOL    HW231486   7.205   0.486   4.797
43197SOL     OW31487   1.656   8.502   0.676
43197SOL    HW131488   1.637   8.569   0.611
43197SOL    HW231489   1.742   8.469   0.653
43198SOL     OW31490  13.274   6.694   6.568
43198SOL    HW131491  13.198   6.735   6.527
43198SOL    HW231492  13.242   6.607   6.596
43199SOL     OW31493   0.496   7.761   9.898
43199SOL    HW131494   0.561   7.690   9.899
43199SOL    HW231495   0.543   7.835   9.861
43200SOL     OW31496   3.336   4.927  11.527
43200SOL    HW131497   3.371   4.981  11.597
43200SOL    HW231498   3.307   4.989  11.460
43201SOL     OW31499   6.893   5.274   4.909
43201SOL    HW131500   6.868   5.232   4.827
43201SOL    HW231501   6.970   5.227   4.938
43202SOL     OW31502   8.697   6.829   8.658
43202SOL    HW131503   8.619   6.852   8.609
43202SOL    HW231504   8.765   6.819   8.592
43203SOL     OW31505   3.005  13.621   5.892
43203SOL    HW131506   3.075  13.569   5.933
43203SOL    HW231507   2.925  13.571   5.910
43204SOL     OW31508   6.732   8.089   7.390
43204SOL    HW131509   6.789   8.124   7.459
43204SOL    HW231510   6.720   7.997   7.413
43205SOL     OW31511  10.549  14.672   9.753
43205SOL    HW131512  10.619  14.727   9.789
43205SOL    HW231513  10.518  14.622   9.828
43206SOL     OW31514  13.180   8.146   8.980
43206SOL    HW131515  13.111   8.192   9.027
43206SOL    HW231516  13.195   8.066   9.031
43207SOL     OW31517  12.133   5.737   7.263
43207SOL    HW131518  12.166   5.752   7.174
43207SOL    HW231519  12.099   5.822   7.290
43208SOL     OW31520   5.573   0.986  14.627
43208SOL    HW131521   5.587   0.945  14.542
43208SOL    HW231522   5.580   1.080  14.610
43209SOL     OW31523   8.153  11.494   8.205
43209SOL    HW131524   8.144  11.558   8.134
43209SOL    HW231525   8.097  11.421   8.178
43210SOL     OW31526  13.937   0.362   7.718
43210SOL    HW131527  13.959   0.342   7.627
43210SOL    HW231528  13.981   0.295   7.769
43211SOL     OW31529  14.264   9.067  11.804
43211SOL    HW131530  14.276   8.972  11.792
43211SOL    HW231531  14.176   9.076  11.840
43212SOL     OW31532  11.007  12.787   3.722
43212SOL    HW131533  11.096  12.760   3.698
43212SOL    HW231534  10.975  12.718   3.780
43213SOL     OW31535  10.289  10.073   1.843
43213SOL    HW131536  10.205  10.085   1.798
43213SOL    HW231537  10.346  10.034   1.776
43214SOL     OW31538   7.789   0.011  14.326
43214SOL    HW131539   7.810   0.062  14.404
43214SOL    HW231540   7.804   0.071  14.253
43215SOL     OW31541   8.577   1.411  13.270
43215SOL    HW131542   8.572   1.322  13.237
43215SOL    HW231543   8.664   1.442  13.243
43216SOL     OW31544  11.319  10.948   1.477
43216SOL    HW131545  11.338  10.907   1.562
43216SOL    HW231546  11.353  11.037   1.485
43217SOL     OW31547  12.710  10.310   1.086
43217SOL    HW131548  12.758  10.291   1.167
43217SOL    HW231549  12.638  10.367   1.114
43218SOL     OW31550   7.931   6.592   3.534
43218SOL    HW131551   7.898   6.561   3.619
43218SOL    HW231552   8.018   6.553   3.527
43219SOL     OW31553   7.527  14.657  13.395
43219SOL    HW131554   7.434  14.646  13.415
43219SOL    HW231555   7.531  14.735  13.340
43220SOL     OW31556   5.960   2.496  12.194
43220SOL    HW131557   5.927   2.572  12.241
43220SOL    HW231558   5.932   2.421  12.246
43221SOL     OW31559   1.252   5.725   9.919
43221SOL    HW131560   1.300   5.707  10.000
43221SOL    HW231561   1.320   5.735   9.853
43222SOL     OW31562  12.595  14.434  13.568
43222SOL    HW131563  12.596  14.339  13.563
43222SOL    HW231564  12.688  14.459  13.570
43223SOL     OW31565   3.577   5.366   7.098
43223SOL    HW131566   3.660   5.386   7.142
43223SOL    HW231567   3.510   5.404   7.155
43224SOL     OW31568   3.167  13.836  14.674
43224SOL    HW131569   3.100  13.861  14.738
43224SOL    HW231570   3.121  13.829  14.591
43225SOL     OW31571   0.198   7.493  14.577
43225SOL    HW131572   0.155   7.411  14.554
43225SOL    HW231573   0.164   7.515  14.664
43226SOL     OW31574  14.518   7.622   2.063
43226SOL    HW131575  14.426   7.602   2.081
43226SOL    HW231576  14.517   7.660   1.975
43227SOL     OW31577  14.183   7.770   0.419
43227SOL    HW131578  14.102   7.739   0.378
43227SOL    HW231579  14.222   7.828   0.354
43228SOL     OW31580  13.560  14.167  13.190
43228SOL    HW131581  13.595  14.079  13.201
43228SOL    HW231582  13.477  14.154  13.144
43229SOL     OW31583  10.395   9.375   9.461
43229SOL    HW131584  10.327   9.351   9.399
43229SOL    HW231585  10.432   9.292   9.490
43230SOL     OW31586   8.022   3.268  12.084
43230SOL    HW131587   8.049   3.288  12.174
43230SOL    HW231588   8.007   3.174  12.083
43231SOL     OW31589  13.020  11.047   2.100
43231SOL    HW131590  12.987  11.126   2.142
43231SOL    HW231591  13.023  11.069   2.007
43232SOL     OW31592  10.279  10.829   9.025
43232SOL    HW131593  10.237  10.821   8.940
43232SOL    HW231594  10.266  10.921   9.050
43233SOL     OW31595   6.755   3.488   4.188
43233SOL    HW131596   6.833   3.457   4.234
43233SOL    HW231597   6.782   3.570   4.147
43234SOL     OW31598   1.909   1.089  12.508
43234SOL    HW131599   1.861   1.101  12.425
43234SOL    HW231600   1.876   1.006  12.543
43235SOL     OW31601   3.628   9.565  14.402
43235SOL    HW131602   3.601   9.505  14.332
43235SOL    HW231603   3.643   9.648  14.358
43236SOL     OW31604   3.290  12.796   3.079
43236SOL    HW131605   3.229  12.833   3.143
43236SOL    HW231606   3.367  12.852   3.083
43237SOL     OW31607   1.249   8.735   1.594
43237SOL    HW131608   1.213   8.749   1.506
43237SOL    HW231609   1.342   8.755   1.585
43238SOL     OW31610   3.514   1.548   7.158
43238SOL    HW131611   3.595   1.535   7.208
43238SOL    HW231612   3.504   1.643   7.154
43239SOL     OW31613   7.390   9.027   8.378
43239SOL    HW131614   7.407   9.028   8.284
43239SOL    HW231615   7.298   9.002   8.385
43240SOL     OW31616   5.953   9.682   7.892
43240SOL    HW131617   5.908   9.620   7.950
43240SOL    HW231618   6.008   9.627   7.836
43241SOL     OW31619   6.170   3.445  10.871
43241SOL    HW131620   6.193   3.537  10.883
43241SOL    HW231621   6.254   3.399  10.870
43242SOL     OW31622  11.769   4.768  11.351
43242SOL    HW131623  11.707   4.832  11.316
43242SOL    HW231624  11.791   4.801  11.438
43243SOL     OW31625   4.112  13.104   2.879
43243SOL    HW131626   4.151  13.019   2.860
43243SOL    HW231627   4.184  13.157   2.912
43244SOL     OW31628  14.607  11.241  13.572
43244SOL    HW131629  14.516  11.216  13.558
43244SOL    HW231630  14.657  11.171  13.529
43245SOL     OW31631   9.791   3.294   5.797
43245SOL    HW131632   9.736   3.270   5.722
43245SOL    HW231633   9.729   3.303   5.869
43246SOL     OW31634   5.467   1.598   8.211
43246SOL    HW131635   5.504   1.650   8.281
43246SOL    HW231636   5.417   1.660   8.158
43247SOL     OW31637  13.210  14.816   6.637
43247SOL    HW131638  13.224  14.723   6.617
43247SOL    HW231639  13.298  14.852   6.648
43248SOL     OW31640   3.730   7.697   2.164
43248SOL    HW131641   3.650   7.747   2.149
43248SOL    HW231642   3.799   7.750   2.126
43249SOL     OW31643   8.892  12.011   1.748
43249SOL    HW131644   8.954  12.059   1.694
43249SOL    HW231645   8.808  12.023   1.704
43250SOL     OW31646  12.881   4.864   7.579
43250SOL    HW131647  12.833   4.791   7.539
43250SOL    HW231648  12.940   4.822   7.642
43251SOL     OW31649   2.231  13.588   6.932
43251SOL    HW131650   2.260  13.498   6.948
43251SOL    HW231651   2.279  13.616   6.854
43252SOL     OW31652   3.680   3.956   0.612
43252SOL    HW131653   3.698   3.873   0.657
43252SOL    HW231654   3.758   3.973   0.559
43253SOL     OW31655   2.363  11.648   0.372
43253SOL    HW131656   2.340  11.565   0.414
43253SOL    HW231657   2.357  11.713   0.442
43254SOL     OW31658   8.488  12.774   4.716
43254SOL    HW131659   8.419  12.732   4.664
43254SOL    HW231660   8.458  12.864   4.729
43255SOL     OW31661   5.307   2.591  11.483
43255SOL    HW131662   5.323   2.681  11.510
43255SOL    HW231663   5.215   2.575  11.507
43256SOL     OW31664   0.694  14.509  13.597
43256SOL    HW131665   0.708  14.414  13.596
43256SOL    HW231666   0.660  14.528  13.685
43257SOL     OW31667  14.741   8.615   5.608
43257SOL    HW131668  14.722   8.709   5.615
43257SOL    HW231669  14.836   8.609   5.620
43258SOL     OW31670   5.569   7.715  11.873
43258SOL    HW131671   5.640   7.779  11.867
43258SOL    HW231672   5.596   7.656  11.943
43259SOL     OW31673   0.455   0.528  13.729
43259SOL    HW131674   0.543   0.561  13.709
43259SOL    HW231675   0.396   0.595  13.693
43260SOL     OW31676   0.672   3.026   0.999
43260SOL    HW131677   0.613   2.993   0.932
43260SOL    HW231678   0.741   2.961   1.006
43261SOL     OW31679  13.934  14.791  10.158
43261SOL    HW131680  13.907  14.874  10.198
43261SOL    HW231681  13.889  14.788  10.074
43262SOL     OW31682   3.577   0.518   3.660
43262SOL    HW131683   3.620   0.542   3.579
43262SOL    HW231684   3.578   0.422   3.660
43263SOL     OW31685   4.954   4.123  12.779
43263SOL    HW131686   4.859   4.130  12.788
43263SOL    HW231687   4.973   4.031  12.801
43264SOL     OW31688  11.827   5.054  12.074
43264SOL    HW131689  11.892   4.996  12.035
43264SOL    HW231690  11.834   5.135  12.023
43265SOL     OW31691  12.192   5.080   8.723
43265SOL    HW131692  12.131   5.009   8.739
43265SOL    HW231693  12.140   5.160   8.736
43266SOL     OW31694   9.171   7.465   5.149
43266SOL    HW131695   9.084   7.426   5.162
43266SOL    HW231696   9.231   7.390   5.146
43267SOL     OW31697   2.343   2.641   9.737
43267SOL    HW131698   2.340   2.611   9.647
43267SOL    HW231699   2.307   2.569   9.788
43268SOL     OW31700  12.241   4.869   4.986
43268SOL    HW131701  12.278   4.820   4.913
43268SOL    HW231702  12.283   4.832   5.064
43269SOL     OW31703   8.592   3.682   2.308
43269SOL    HW131704   8.598   3.777   2.296
43269SOL    HW231705   8.539   3.652   2.234
43270SOL     OW31706  14.335   8.472   8.396
43270SOL    HW131707  14.264   8.455   8.458
43270SOL    HW231708  14.310   8.552   8.351
43271SOL     OW31709  10.758   8.634   7.434
43271SOL    HW131710  10.811   8.712   7.419
43271SOL    HW231711  10.712   8.653   7.516
43272SOL     OW31712   9.865   0.536  13.545
43272SOL    HW131713   9.910   0.586  13.612
43272SOL    HW231714   9.900   0.447  13.553
43273SOL     OW31715  12.254  10.858   3.788
43273SOL    HW131716  12.229  10.797   3.857
43273SOL    HW231717  12.175  10.867   3.734
43274SOL     OW31718   7.256   5.634   6.364
43274SOL    HW131719   7.290   5.685   6.437
43274SOL    HW231720   7.170   5.604   6.394
43275SOL     OW31721   8.278   3.327  14.485
43275SOL    HW131722   8.197   3.303  14.441
43275SOL    HW231723   8.309   3.404  14.438
43276SOL     OW31724  10.535   7.812   4.324
43276SOL    HW131725  10.505   7.820   4.414
43276SOL    HW231726  10.630   7.811   4.330
43277SOL     OW31727  14.074   1.831  12.180
43277SOL    HW131728  14.083   1.743  12.143
43277SOL    HW231729  14.163   1.865  12.183
43278SOL     OW31730   3.268   0.660   7.683
43278SOL    HW131731   3.271   0.573   7.643
43278SOL    HW231732   3.354   0.671   7.724
43279SOL     OW31733  14.277  12.704   8.993
43279SOL    HW131734  14.282  12.794   8.959
43279SOL    HW231735  14.212  12.661   8.938
43280SOL     OW31736   1.085   0.026  12.636
43280SOL    HW131737   1.088  14.873  12.547
43280SOL    HW231738   1.156   0.090  12.639
43281SOL     OW31739  12.117   3.451  11.835
43281SOL    HW131740  12.092   3.489  11.919
43281SOL    HW231741  12.035   3.439  11.788
43282SOL     OW31742   8.421   3.615   8.324
43282SOL    HW131743   8.469   3.588   8.402
43282SOL    HW231744   8.476   3.588   8.251
43283SOL     OW31745   6.739   2.157   2.783
43283SOL    HW131746   6.758   2.077   2.832
43283SOL    HW231747   6.760   2.135   2.692
43284SOL     OW31748   7.416  12.153   0.947
43284SOL    HW131749   7.469  12.194   1.015
43284SOL    HW231750   7.399  12.223   0.884
43285SOL     OW31751  14.273  13.091  12.119
43285SOL    HW131752  14.330  13.018  12.095
43285SOL    HW231753  14.280  13.096  12.215
43286SOL     OW31754  13.382   1.538   2.264
43286SOL    HW131755  13.415   1.604   2.324
43286SOL    HW231756  13.431   1.459   2.285
43287SOL     OW31757   9.140   3.620   9.929
43287SOL    HW131758   9.057   3.662   9.906
43287SOL    HW231759   9.119   3.527   9.939
43288SOL     OW31760   1.800  14.438  12.991
43288SOL    HW131761   1.815  14.371  13.058
43288SOL    HW231762   1.870  14.424  12.927
43289SOL     OW31763  12.420   8.832   5.587
43289SOL    HW131764  12.385   8.861   5.503
43289SOL    HW231765  12.443   8.740   5.574
43290SOL     OW31766  14.826   2.273  11.506
43290SOL    HW131767  14.758   2.207  11.519
43290SOL    HW231768  14.788   2.353  11.543
43291SOL     OW31769  12.104   5.753  10.956
43291SOL    HW131770  12.134   5.832  10.911
43291SOL    HW231771  12.181   5.720  11.002
43292SOL     OW31772   9.539  13.836   3.126
43292SOL    HW131773   9.475  13.817   3.058
43292SOL    HW231774   9.493  13.893   3.188
43293SOL     OW31775  11.969   2.244   0.045
43293SOL    HW131776  11.919   2.199  14.860
43293SOL    HW231777  12.035   2.294  14.879
43294SOL     OW31778  12.125   5.029   4.556
43294SOL    HW131779  12.210   5.003   4.521
43294SOL    HW231780  12.133   5.124   4.569
43295SOL     OW31781   7.894   2.721   7.957
43295SOL    HW131782   7.834   2.775   7.905
43295SOL    HW231783   7.850   2.711   8.041
43296SOL     OW31784  10.204   2.968  11.428
43296SOL    HW131785  10.140   2.982  11.498
43296SOL    HW231786  10.194   2.876  11.404
43297SOL     OW31787   1.206  10.288   7.000
43297SOL    HW131788   1.182  10.199   6.977
43297SOL    HW231789   1.148  10.311   7.073
43298SOL     OW31790   3.376   8.081  14.041
43298SOL    HW131791   3.301   8.023  14.027
43298SOL    HW231792   3.433   8.032  14.100
43299SOL     OW31793   5.920   2.841  11.948
43299SOL    HW131794   5.921   2.826  11.853
43299SOL    HW231795   5.882   2.761  11.984
43300SOL     OW31796  11.115  14.654   8.436
43300SOL    HW131797  11.040  14.702   8.470
43300SOL    HW231798  11.090  14.562   8.442
43301SOL     OW31799   2.305   4.405  11.061
43301SOL    HW131800   2.273   4.429  11.148
43301SOL    HW231801   2.392   4.444  11.057
43302SOL     OW31802   6.274   3.485  10.449
43302SOL    HW131803   6.369   3.495  10.451
43302SOL    HW231804   6.243   3.531  10.527
43303SOL     OW31805   4.535   6.036  12.946
43303SOL    HW131806   4.492   6.068  12.866
43303SOL    HW231807   4.504   5.946  12.955
43304SOL     OW31808   4.228  10.725   9.774
43304SOL    HW131809   4.208  10.784   9.847
43304SOL    HW231810   4.318  10.747   9.749
43305SOL     OW31811  12.213  12.175  12.139
43305SOL    HW131812  12.187  12.149  12.050
43305SOL    HW231813  12.280  12.242  12.125
43306SOL     OW31814   0.868   6.388   3.854
43306SOL    HW131815   0.928   6.453   3.816
43306SOL    HW231816   0.880   6.310   3.800
43307SOL     OW31817  11.967   1.865   6.219
43307SOL    HW131818  11.902   1.810   6.176
43307SOL    HW231819  12.045   1.858   6.164
43308SOL     OW31820   7.935   6.034  13.133
43308SOL    HW131821   7.864   6.092  13.159
43308SOL    HW231822   7.928   5.958  13.190
43309SOL     OW31823   9.116   7.455   6.170
43309SOL    HW131824   9.060   7.391   6.127
43309SOL    HW231825   9.158   7.503   6.099
43310SOL     OW31826   0.178  10.486  11.982
43310SOL    HW131827   0.175  10.396  12.015
43310SOL    HW231828   0.200  10.538  12.059
43311SOL     OW31829  13.486   5.323   0.406
43311SOL    HW131830  13.467   5.352   0.317
43311SOL    HW231831  13.417   5.363   0.459
43312SOL     OW31832  14.305  11.497  10.992
43312SOL    HW131833  14.370  11.548  11.041
43312SOL    HW231834  14.313  11.527  10.902
43313SOL     OW31835   3.935   5.392   1.882
43313SOL    HW131836   4.012   5.445   1.902
43313SOL    HW231837   3.937   5.381   1.787
43314SOL     OW31838  10.964   6.508   2.437
43314SOL    HW131839  10.960   6.514   2.342
43314SOL    HW231840  10.942   6.416   2.456
43315SOL     OW31841   5.557   1.720   8.698
43315SOL    HW131842   5.639   1.739   8.652
43315SOL    HW231843   5.535   1.801   8.743
43316SOL     OW31844   1.546  12.148  13.078
43316SOL    HW131845   1.484  12.176  13.145
43316SOL    HW231846   1.615  12.214  13.081
43317SOL     OW31847  12.519   1.227  10.580
43317SOL    HW131848  12.427   1.215  10.557
43317SOL    HW231849  12.565   1.160  10.529
43318SOL     OW31850   6.616   2.566   2.642
43318SOL    HW131851   6.640   2.652   2.675
43318SOL    HW231852   6.673   2.505   2.690
43319SOL     OW31853  13.569   2.177  12.936
43319SOL    HW131854  13.588   2.084  12.948
43319SOL    HW231855  13.600   2.219  13.016
43320SOL     OW31856  12.903  12.752   7.531
43320SOL    HW131857  12.976  12.697   7.502
43320SOL    HW231858  12.943  12.815   7.591
43321SOL     OW31859   7.057   0.654   9.259
43321SOL    HW131860   7.007   0.588   9.212
43321SOL    HW231861   7.012   0.664   9.342
43322SOL     OW31862   1.015   6.179  11.507
43322SOL    HW131863   0.940   6.139  11.551
43322SOL    HW231864   1.066   6.219  11.578
43323SOL     OW31865   2.463  11.977  10.071
43323SOL    HW131866   2.557  11.958  10.065
43323SOL    HW231867   2.445  11.976  10.165
43324SOL     OW31868   9.817  11.187  13.206
43324SOL    HW131869   9.748  11.140  13.159
43324SOL    HW231870   9.788  11.186  13.297
43325SOL     OW31871   7.155   4.339   6.480
43325SOL    HW131872   7.097   4.415   6.483
43325SOL    HW231873   7.101   4.269   6.443
43326SOL     OW31874   9.891   0.612   6.414
43326SOL    HW131875   9.918   0.577   6.329
43326SOL    HW231876   9.896   0.536   6.473
43327SOL     OW31877   6.992   0.983   9.696
43327SOL    HW131878   6.904   0.951   9.676
43327SOL    HW231879   7.011   0.948   9.782
43328SOL     OW31880   2.245   4.695   7.717
43328SOL    HW131881   2.269   4.755   7.787
43328SOL    HW231882   2.229   4.751   7.641
43329SOL     OW31883   2.206   1.571  11.052
43329SOL    HW131884   2.281   1.565  11.110
43329SOL    HW231885   2.197   1.484  11.013
43330SOL     OW31886  14.836   6.555   0.326
43330SOL    HW131887  14.764   6.610   0.356
43330SOL    HW231888   0.025   6.617   0.310
43331SOL     OW31889   6.174  12.018   2.859
43331SOL    HW131890   6.219  11.935   2.840
43331SOL    HW231891   6.105  11.994   2.921
43332SOL     OW31892   9.849   8.208  13.661
43332SOL    HW131893   9.918   8.174  13.718
43332SOL    HW231894   9.865   8.164  13.577
43333SOL     OW31895   5.471   5.290   1.300
43333SOL    HW131896   5.553   5.251   1.328
43333SOL    HW231897   5.485   5.384   1.303
43334SOL     OW31898   9.746   7.486  12.468
43334SOL    HW131899   9.779   7.552  12.529
43334SOL    HW231900   9.714   7.536  12.393
43335SOL     OW31901   0.664  12.771  12.461
43335SOL    HW131902   0.592  12.826  12.429
43335SOL    HW231903   0.688  12.717  12.386
43336SOL     OW31904  10.014  14.193   4.964
43336SOL    HW131905  10.014  14.124   4.898
43336SOL    HW231906  10.042  14.271   4.916
43337SOL     OW31907   3.248   2.575   2.947
43337SOL    HW131908   3.227   2.645   3.009
43337SOL    HW231909   3.337   2.595   2.918
43338SOL     OW31910  13.948   6.575   7.043
43338SOL    HW131911  13.940   6.580   6.948
43338SOL    HW231912  13.858   6.585   7.075
43339SOL     OW31913  12.152  12.265   1.700
43339SOL    HW131914  12.178  12.175   1.685
43339SOL    HW231915  12.132  12.300   1.613
43340SOL     OW31916   6.606  10.522   3.666
43340SOL    HW131917   6.598  10.578   3.589
43340SOL    HW231918   6.531  10.543   3.721
43341SOL     OW31919  14.073   4.167   3.407
43341SOL    HW131920  14.166   4.183   3.423
43341SOL    HW231921  14.072   4.089   3.351
43342SOL     OW31922   7.535   8.929   7.660
43342SOL    HW131923   7.617   8.882   7.643
43342SOL    HW231924   7.468   8.861   7.659
43343SOL     OW31925   4.765   7.007   6.456
43343SOL    HW131926   4.715   6.955   6.519
43343SOL    HW231927   4.853   6.969   6.459
43344SOL     OW31928   8.981   3.123  10.370
43344SOL    HW131929   8.952   3.205  10.330
43344SOL    HW231930   8.906   3.064  10.359
43345SOL     OW31931   6.179   0.686   7.071
43345SOL    HW131932   6.154   0.594   7.074
43345SOL    HW231933   6.245   0.691   7.002
43346SOL     OW31934   5.237   5.392   7.728
43346SOL    HW131935   5.309   5.452   7.704
43346SOL    HW231936   5.162   5.424   7.678
43347SOL     OW31937   0.373  12.311   4.547
43347SOL    HW131938   0.350  12.340   4.459
43347SOL    HW231939   0.306  12.348   4.604
43348SOL     OW31940  13.394   3.171   8.149
43348SOL    HW131941  13.428   3.166   8.238
43348SOL    HW231942  13.433   3.095   8.104
43349SOL     OW31943   7.899   9.199  14.021
43349SOL    HW131944   7.847   9.269  14.061
43349SOL    HW231945   7.918   9.231  13.933
43350SOL     OW31946  11.892  12.887   7.089
43350SOL    HW131947  11.960  12.831   7.125
43350SOL    HW231948  11.869  12.846   7.005
43351SOL     OW31949  11.412  11.950  13.284
43351SOL    HW131950  11.470  12.005  13.336
43351SOL    HW231951  11.340  11.928  13.342
43352SOL     OW31952  11.064   9.504   1.511
43352SOL    HW131953  11.056   9.449   1.589
43352SOL    HW231954  11.053   9.443   1.438
43353SOL     OW31955   4.146   3.550  10.941
43353SOL    HW131956   4.094   3.567  11.019
43353SOL    HW231957   4.143   3.454  10.930
43354SOL     OW31958   0.344  14.010  12.456
43354SOL    HW131959   0.255  13.991  12.487
43354SOL    HW231960   0.332  14.055  12.372
43355SOL     OW31961   1.969   7.373   3.584
43355SOL    HW131962   2.011   7.446   3.630
43355SOL    HW231963   1.926   7.322   3.652
43356SOL     OW31964   9.974   6.149   6.573
43356SOL    HW131965  10.048   6.159   6.633
43356SOL    HW231966  10.014   6.146   6.486
43357SOL     OW31967   4.751  14.211   0.900
43357SOL    HW131968   4.741  14.298   0.861
43357SOL    HW231969   4.690  14.210   0.974
43358SOL     OW31970   5.032   3.909  10.048
43358SOL    HW131971   4.993   3.833  10.006
43358SOL    HW231972   5.081   3.873  10.122
43359SOL     OW31973  10.949   4.044  11.534
43359SOL    HW131974  10.970   4.021  11.443
43359SOL    HW231975  11.035   4.054  11.576
43360SOL     OW31976   1.765  11.912  10.847
43360SOL    HW131977   1.801  11.992  10.808
43360SOL    HW231978   1.842  11.860  10.868
43361SOL     OW31979  13.196  13.736  11.685
43361SOL    HW131980  13.157  13.824  11.679
43361SOL    HW231981  13.277  13.749  11.734
43362SOL     OW31982   7.573   8.478   0.944
43362SOL    HW131983   7.507   8.527   0.994
43362SOL    HW231984   7.612   8.419   1.009
43363SOL     OW31985   4.708   3.033  13.104
43363SOL    HW131986   4.676   2.969  13.168
43363SOL    HW231987   4.740   3.106  13.158
43364SOL     OW31988   6.947   8.999  12.994
43364SOL    HW131989   6.911   8.918  13.031
43364SOL    HW231990   6.887   9.022  12.924
43365SOL     OW31991   4.038   4.393  13.572
43365SOL    HW131992   3.951   4.358  13.591
43365SOL    HW231993   4.034   4.417  13.479
43366SOL     OW31994   8.971   8.250  11.810
43366SOL    HW131995   8.953   8.224  11.719
43366SOL    HW231996   9.032   8.323  11.803
43367SOL     OW31997  11.899   0.734   0.683
43367SOL    HW131998  11.841   0.675   0.730
43367SOL    HW231999  11.852   0.757   0.604
43368SOL     OW32000   9.786   6.515   6.374
43368SOL    HW132001   9.797   6.420   6.369
43368SOL    HW232002   9.728   6.536   6.301
43369SOL     OW32003   6.317   8.818   3.663
43369SOL    HW132004   6.390   8.772   3.620
43369SOL    HW232005   6.307   8.773   3.747
43370SOL     OW32006   7.759   0.745   4.941
43370SOL    HW132007   7.733   0.837   4.947
43370SOL    HW232008   7.845   0.741   4.983
43371SOL     OW32009  11.725   3.895   6.852
43371SOL    HW132010  11.794   3.935   6.906
43371SOL    HW232011  11.707   3.960   6.785
43372SOL     OW32012   1.742   5.261   7.701
43372SOL    HW132013   1.677   5.244   7.769
43372SOL    HW232014   1.827   5.253   7.745
43373SOL     OW32015  13.054  12.457  10.605
43373SOL    HW132016  13.109  12.381  10.584
43373SOL    HW232017  13.013  12.480  10.522
43374SOL     OW32018  13.694  10.329  11.403
43374SOL    HW132019  13.609  10.327  11.448
43374SOL    HW232020  13.702  10.418  11.370
43375SOL     OW32021  13.593   9.910   8.086
43375SOL    HW132022  13.637   9.953   8.160
43375SOL    HW232023  13.501   9.911   8.109
43376SOL     OW32024  12.165  12.696  12.321
43376SOL    HW132025  12.109  12.745  12.261
43376SOL    HW232026  12.105  12.658  12.385
43377SOL     OW32027   8.091  10.793  13.297
43377SOL    HW132028   8.118  10.884  13.312
43377SOL    HW232029   8.019  10.779  13.359
43378SOL     OW32030  13.618  10.115   0.967
43378SOL    HW132031  13.638  10.023   0.950
43378SOL    HW232032  13.524  10.116   0.984
43379SOL     OW32033   4.739   9.806  14.035
43379SOL    HW132034   4.686   9.784  13.958
43379SOL    HW232035   4.747   9.724  14.083
43380SOL     OW32036   1.730   0.573   8.546
43380SOL    HW132037   1.811   0.623   8.559
43380SOL    HW232038   1.716   0.530   8.630
43381SOL     OW32039  10.034   0.609   3.662
43381SOL    HW132040   9.974   0.674   3.626
43381SOL    HW232041  10.003   0.526   3.625
43382SOL     OW32042  11.489  13.535   3.031
43382SOL    HW132043  11.503  13.614   2.978
43382SOL    HW232044  11.395  13.538   3.053
43383SOL     OW32045  14.546   7.822   8.644
43383SOL    HW132046  14.591   7.763   8.583
43383SOL    HW232047  14.479   7.767   8.684
43384SOL     OW32048  14.191   0.042   7.595
43384SOL    HW132049  14.127   0.080   7.656
43384SOL    HW232050  14.276   0.075   7.625
43385SOL     OW32051  12.429   5.230   6.202
43385SOL    HW132052  12.384   5.167   6.259
43385SOL    HW232053  12.474   5.289   6.263
43386SOL     OW32054  13.626   5.693  12.631
43386SOL    HW132055  13.657   5.781  12.612
43386SOL    HW232056  13.555   5.679  12.567
43387SOL     OW32057   7.188  14.591   1.812
43387SOL    HW132058   7.094  14.575   1.808
43387SOL    HW232059   7.220  14.527   1.876
43388SOL     OW32060   7.150   1.590   2.547
43388SOL    HW132061   7.119   1.656   2.610
43388SOL    HW232062   7.241   1.576   2.571
43389SOL     OW32063   5.744  10.623  11.458
43389SOL    HW132064   5.823  10.669  11.488
43389SOL    HW232065   5.754  10.534  11.493
43390SOL     OW32066   4.635   0.136  12.073
43390SOL    HW132067   4.708   0.187  12.039
43390SOL    HW232068   4.557   0.185  12.047
43391SOL     OW32069  12.183  11.081  10.023
43391SOL    HW132070  12.213  11.122   9.941
43391SOL    HW232071  12.090  11.105  10.028
43392SOL     OW32072   5.918   6.216   5.819
43392SOL    HW132073   5.912   6.155   5.892
43392SOL    HW232074   5.901   6.163   5.741
43393SOL     OW32075   8.830   7.349   7.736
43393SOL    HW132076   8.832   7.423   7.675
43393SOL    HW232077   8.788   7.385   7.815
43394SOL     OW32078  12.030   3.016   1.098
43394SOL    HW132079  12.094   2.946   1.113
43394SOL    HW232080  11.991   3.031   1.184
43395SOL     OW32081  14.412   4.541   2.107
43395SOL    HW132082  14.420   4.591   2.188
43395SOL    HW232083  14.430   4.604   2.038
43396SOL     OW32084   0.027  14.698  13.468
43396SOL    HW132085   0.024  14.610  13.432
43396SOL    HW232086  14.878  14.689  13.558
43397SOL     OW32087  12.681   0.811  10.327
43397SOL    HW132088  12.676   0.716  10.338
43397SOL    HW232089  12.668   0.825  10.233
43398SOL     OW32090   0.423   1.272  14.128
43398SOL    HW132091   0.516   1.275  14.149
43398SOL    HW232092   0.396   1.363  14.120
43399SOL     OW32093   0.025   2.276   8.886
43399SOL    HW132094  14.875   2.315   8.805
43399SOL    HW232095   0.002   2.340   8.954
43400SOL     OW32096   8.349  11.050   4.346
43400SOL    HW132097   8.295  11.108   4.292
43400SOL    HW232098   8.365  11.100   4.426
43401SOL     OW32099   8.119   9.295   9.114
43401SOL    HW132100   8.182   9.274   9.183
43401SOL    HW232101   8.034   9.290   9.156
43402SOL     OW32102  14.605  10.434  12.056
43402SOL    HW132103  14.587  10.518  12.097
43402SOL    HW232104  14.577  10.369  12.121
43403SOL     OW32105  10.462   9.536  14.189
43403SOL    HW132106  10.368   9.520  14.194
43403SOL    HW232107  10.489   9.555  14.279
43404SOL     OW32108  13.663  14.459  14.188
43404SOL    HW132109  13.687  14.495  14.274
43404SOL    HW232110  13.623  14.375  14.208
43405SOL     OW32111  12.509   7.001  12.212
43405SOL    HW132112  12.565   6.926  12.227
43405SOL    HW232113  12.497   7.040  12.299
43406SOL     OW32114   0.329   0.258  11.564
43406SOL    HW132115   0.364   0.342  11.593
43406SOL    HW232116   0.362   0.248  11.475
43407SOL     OW32117   8.451  12.107   2.459
43407SOL    HW132118   8.453  12.156   2.377
43407SOL    HW232119   8.540  12.073   2.469
43408SOL     OW32120   7.685   2.632  12.448
43408SOL    HW132121   7.662   2.631  12.541
43408SOL    HW232122   7.670   2.542  12.418
43409SOL     OW32123   8.481   7.464   3.212
43409SOL    HW132124   8.531   7.546   3.209
43409SOL    HW232125   8.393   7.490   3.185
43410SOL     OW32126   1.902   2.175  14.361
43410SOL    HW132127   1.905   2.224  14.279
43410SOL    HW232128   1.992   2.177  14.394
43411SOL     OW32129   1.802  13.413   5.155
43411SOL    HW132130   1.787  13.399   5.061
43411SOL    HW232131   1.890  13.378   5.171
43412SOL     OW32132   2.271   9.173   7.614
43412SOL    HW132133   2.216   9.230   7.560
43412SOL    HW232134   2.348   9.226   7.633
43413SOL     OW32135   9.013   2.000  14.237
43413SOL    HW132136   9.061   2.024  14.316
43413SOL    HW232137   8.930   1.965  14.269
43414SOL     OW32138   1.785  13.356   2.595
43414SOL    HW132139   1.710  13.344   2.537
43414SOL    HW232140   1.816  13.267   2.612
43415SOL     OW32141   7.002   1.885   4.845
43415SOL    HW132142   6.908   1.863   4.847
43415SOL    HW232143   7.011   1.957   4.908
43416SOL     OW32144   2.221   1.722   4.406
43416SOL    HW132145   2.233   1.629   4.389
43416SOL    HW232146   2.185   1.758   4.324
43417SOL     OW32147   1.933   4.976   2.279
43417SOL    HW132148   1.850   4.966   2.233
43417SOL    HW232149   2.000   4.951   2.215
43418SOL     OW32150  14.260   6.748  12.951
43418SOL    HW132151  14.351   6.773  12.965
43418SOL    HW232152  14.225   6.817  12.894
43419SOL     OW32153  14.877   5.379   6.298
43419SOL    HW132154   0.062   5.410   6.239
43419SOL    HW232155   0.036   5.381   6.385
43420SOL     OW32156   0.089   0.451  10.410
43420SOL    HW132157   0.121   0.476  10.497
43420SOL    HW232158   0.020   0.516  10.391
43421SOL     OW32159   6.453   4.191   9.993
43421SOL    HW132160   6.414   4.186   9.905
43421SOL    HW232161   6.382   4.223  10.048
43422SOL     OW32162   3.367   7.540  12.263
43422SOL    HW132163   3.414   7.494  12.194
43422SOL    HW232164   3.422   7.616  12.282
43423SOL     OW32165   1.989  11.196   7.715
43423SOL    HW132166   2.068  11.209   7.662
43423SOL    HW232167   1.917  11.201   7.651
43424SOL     OW32168   2.566   2.239   6.429
43424SOL    HW132169   2.583   2.149   6.457
43424SOL    HW232170   2.470   2.244   6.423
43425SOL     OW32171  10.940   8.141   9.099
43425SOL    HW132172  10.915   8.130   9.007
43425SOL    HW232173  10.860   8.123   9.148
43426SOL     OW32174   8.888  12.160   0.108
43426SOL    HW132175   8.941  12.169   0.187
43426SOL    HW232176   8.949  12.177   0.036
43427SOL     OW32177   2.482   0.116  13.917
43427SOL    HW132178   2.498   0.103  13.824
43427SOL    HW232179   2.393   0.153  13.921
43428SOL     OW32180   5.553  10.175  14.661
43428SOL    HW132181   5.545  10.106  14.726
43428SOL    HW232182   5.469  10.174  14.614
43429SOL     OW32183  10.302   3.724   0.910
43429SOL    HW132184  10.219   3.765   0.933
43429SOL    HW232185  10.283   3.630   0.911
43430SOL     OW32186   1.895   5.904   0.872
43430SOL    HW132187   1.990   5.917   0.879
43430SOL    HW232188   1.878   5.895   0.779
43431SOL     OW32189   1.597   3.515   8.072
43431SOL    HW132190   1.552   3.506   8.157
43431SOL    HW232191   1.688   3.491   8.090
43432SOL     OW32192   5.027   8.375   3.729
43432SOL    HW132193   4.944   8.416   3.706
43432SOL    HW232194   5.086   8.447   3.750
43433SOL     OW32195   1.472  11.527   0.739
43433SOL    HW132196   1.482  11.613   0.780
43433SOL    HW232197   1.418  11.478   0.801
43434SOL     OW32198  10.570   5.525   2.080
43434SOL    HW132199  10.547   5.474   2.158
43434SOL    HW232200  10.487   5.561   2.050
43435SOL     OW32201  11.612  13.333   7.554
43435SOL    HW132202  11.676  13.352   7.623
43435SOL    HW232203  11.639  13.388   7.480
43436SOL     OW32204  12.221   7.053   7.212
43436SOL    HW132205  12.168   7.099   7.147
43436SOL    HW232206  12.311   7.062   7.180
43437SOL     OW32207   3.469  12.933  13.040
43437SOL    HW132208   3.427  12.991  12.976
43437SOL    HW232209   3.461  12.845  13.002
43438SOL     OW32210  11.343  10.714   8.165
43438SOL    HW132211  11.365  10.775   8.095
43438SOL    HW232212  11.250  10.729   8.181
43439SOL     OW32213  13.853  11.845   9.338
43439SOL    HW132214  13.881  11.781   9.273
43439SOL    HW232215  13.763  11.819   9.359
43440SOL     OW32216  14.726  12.603   3.527
43440SOL    HW132217  14.653  12.651   3.565
43440SOL    HW232218  14.787  12.591   3.600
43441SOL     OW32219  13.124  13.996   6.475
43441SOL    HW132220  13.145  14.021   6.565
43441SOL    HW232221  13.041  14.039   6.456
43442SOL     OW32222   4.552  12.506   1.487
43442SOL    HW132223   4.482  12.570   1.505
43442SOL    HW232224   4.549  12.446   1.561
43443SOL     OW32225   3.351   7.483   4.498
43443SOL    HW132226   3.362   7.464   4.591
43443SOL    HW232227   3.290   7.416   4.467
43444SOL     OW32228   9.843   6.586   1.605
43444SOL    HW132229   9.801   6.585   1.691
43444SOL    HW232230   9.930   6.621   1.622
43445SOL     OW32231  12.298   5.608   6.506
43445SOL    HW132232  12.348   5.690   6.505
43445SOL    HW232233  12.274   5.596   6.598
43446SOL     OW32234   3.668   5.014  13.562
43446SOL    HW132235   3.577   5.041  13.578
43446SOL    HW232236   3.662   4.921  13.543
43447SOL     OW32237   3.117  11.100   5.190
43447SOL    HW132238   3.185  11.096   5.257
43447SOL    HW232239   3.165  11.092   5.107
43448SOL     OW32240  11.734   8.720  13.849
43448SOL    HW132241  11.797   8.654  13.822
43448SOL    HW232242  11.649   8.680  13.832
43449SOL     OW32243  13.252  10.288   3.904
43449SOL    HW132244  13.193  10.347   3.857
43449SOL    HW232245  13.224  10.201   3.878
43450SOL     OW32246   5.551  13.051   3.310
43450SOL    HW132247   5.624  13.018   3.362
43450SOL    HW232248   5.590  13.119   3.254
43451SOL     OW32249   8.684   5.133   3.457
43451SOL    HW132250   8.660   5.110   3.367
43451SOL    HW232251   8.766   5.087   3.472
43452SOL     OW32252  10.186  12.235   4.969
43452SOL    HW132253  10.093  12.215   4.970
43452SOL    HW232254  10.206  12.254   4.877
43453SOL     OW32255   5.583  10.583   7.550
43453SOL    HW132256   5.555  10.635   7.626
43453SOL    HW232257   5.567  10.640   7.475
43454SOL     OW32258   5.138   4.187  14.814
43454SOL    HW132259   5.089   4.266  14.790
43454SOL    HW232260   5.078   4.138  14.870
43455SOL     OW32261  12.862  11.089  13.238
43455SOL    HW132262  12.926  11.018  13.249
43455SOL    HW232263  12.784  11.058  13.284
43456SOL     OW32264   4.746   5.649   1.923
43456SOL    HW132265   4.771   5.565   1.961
43456SOL    HW232266   4.666   5.674   1.969
43457SOL     OW32267   3.668   2.097   7.573
43457SOL    HW132268   3.605   2.029   7.597
43457SOL    HW232269   3.698   2.133   7.657
43458SOL     OW32270   1.743  13.476   5.567
43458SOL    HW132271   1.833  13.500   5.542
43458SOL    HW232272   1.730  13.390   5.527
43459SOL     OW32273  12.450   4.748   7.122
43459SOL    HW132274  12.456   4.841   7.098
43459SOL    HW232275  12.361   4.737   7.155
43460SOL     OW32276   8.857   4.493   3.112
43460SOL    HW132277   8.802   4.566   3.082
43460SOL    HW232278   8.799   4.417   3.108
43461SOL     OW32279  12.641   1.713   4.677
43461SOL    HW132280  12.647   1.745   4.587
43461SOL    HW232281  12.730   1.722   4.712
43462SOL     OW32282   0.740   5.467  14.621
43462SOL    HW132283   0.659   5.515  14.638
43462SOL    HW232284   0.780   5.457  14.707
43463SOL     OW32285  10.207  11.111  14.705
43463SOL    HW132286  10.188  11.019  14.686
43463SOL    HW232287  10.168  11.159  14.632
43464SOL     OW32288   4.952   6.412  13.419
43464SOL    HW132289   4.901   6.452  13.348
43464SOL    HW232290   4.900   6.336  13.446
43465SOL     OW32291   7.629   4.233   7.134
43465SOL    HW132292   7.585   4.172   7.193
43465SOL    HW232293   7.565   4.250   7.065
43466SOL     OW32294   6.263   4.660   6.810
43466SOL    HW132295   6.215   4.734   6.846
43466SOL    HW232296   6.332   4.701   6.756
43467SOL     OW32297   1.985   0.423   7.338
43467SOL    HW132298   1.966   0.442   7.430
43467SOL    HW232299   1.902   0.439   7.293
43468SOL     OW32300   0.630   1.920   9.158
43468SOL    HW132301   0.631   1.834   9.199
43468SOL    HW232302   0.538   1.935   9.134
43469SOL     OW32303   2.251  11.047  10.490
43469SOL    HW132304   2.272  11.092  10.571
43469SOL    HW232305   2.254  10.954  10.513
43470SOL     OW32306  13.780  10.265   8.483
43470SOL    HW132307  13.812  10.350   8.510
43470SOL    HW232308  13.684  10.274   8.482
43471SOL     OW32309   2.762   7.889   0.918
43471SOL    HW132310   2.716   7.848   0.991
43471SOL    HW232311   2.714   7.971   0.903
43472SOL     OW32312   9.641   7.961  13.425
43472SOL    HW132313   9.680   7.874  13.434
43472SOL    HW232314   9.715   8.018  13.404
43473SOL     OW32315  13.000   2.480   8.341
43473SOL    HW132316  12.994   2.567   8.302
43473SOL    HW232317  12.914   2.465   8.379
43474SOL     OW32318   0.230   6.349   6.422
43474SOL    HW132319   0.254   6.290   6.493
43474SOL    HW232320   0.304   6.344   6.361
43475SOL     OW32321   6.383   8.572   3.080
43475SOL    HW132322   6.450   8.517   3.121
43475SOL    HW232323   6.301   8.545   3.121
43476SOL     OW32324  14.221   1.557   1.926
43476SOL    HW132325  14.175   1.474   1.916
43476SOL    HW232326  14.189   1.592   2.009
43477SOL     OW32327   0.118  13.283   5.563
43477SOL    HW132328   0.169  13.219   5.613
43477SOL    HW232329   0.074  13.335   5.630
43478SOL     OW32330  10.196   0.277  11.501
43478SOL    HW132331  10.213   0.186  11.475
43478SOL    HW232332  10.187   0.273  11.596
43479SOL     OW32333   7.114   7.544  12.056
43479SOL    HW132334   7.179   7.474  12.052
43479SOL    HW232335   7.064   7.535  11.975
43480SOL     OW32336  11.183   5.154  12.221
43480SOL    HW132337  11.203   5.174  12.130
43480SOL    HW232338  11.248   5.204  12.271
43481SOL     OW32339  10.602   7.565  11.944
43481SOL    HW132340  10.531   7.503  11.925
43481SOL    HW232341  10.569   7.616  12.018
43482SOL     OW32342   6.719   1.608   6.112
43482SOL    HW132343   6.649   1.673   6.116
43482SOL    HW232344   6.746   1.597   6.203
43483SOL     OW32345   2.877   5.293  10.057
43483SOL    HW132346   2.940   5.362  10.034
43483SOL    HW232347   2.932   5.220  10.086
43484SOL     OW32348  12.790   8.671   8.205
43484SOL    HW132349  12.706   8.718   8.211
43484SOL    HW232350  12.831   8.684   8.291
43485SOL     OW32351  14.336   8.569   2.202
43485SOL    HW132352  14.428   8.572   2.228
43485SOL    HW232353  14.314   8.476   2.201
43486SOL     OW32354   3.768   1.539   2.222
43486SOL    HW132355   3.735   1.483   2.293
43486SOL    HW232356   3.859   1.555   2.245
43487SOL     OW32357   6.187   0.462  10.515
43487SOL    HW132358   6.205   0.469  10.421
43487SOL    HW232359   6.166   0.551  10.542
43488SOL     OW32360  14.721   9.544   2.709
43488SOL    HW132361  14.658   9.587   2.651
43488SOL    HW232362  14.791   9.515   2.650
43489SOL     OW32363   6.051  14.455   7.948
43489SOL    HW132364   5.959  14.429   7.949
43489SOL    HW232365   6.083  14.429   7.862
43490SOL     OW32366   2.094  10.191  14.162
43490SOL    HW132367   2.028  10.159  14.100
43490SOL    HW232368   2.160  10.234  14.106
43491SOL     OW32369  13.489  13.420   9.204
43491SOL    HW132370  13.472  13.329   9.226
43491SOL    HW232371  13.584  13.429   9.211
43492SOL     OW32372   8.188   3.769   4.182
43492SOL    HW132373   8.238   3.849   4.198
43492SOL    HW232374   8.152   3.746   4.268
43493SOL     OW32375   3.115   6.551   9.770
43493SOL    HW132376   3.115   6.502   9.688
43493SOL    HW232377   3.025   6.544   9.802
43494SOL     OW32378   0.899  13.868   6.029
43494SOL    HW132379   0.873  13.810   5.957
43494SOL    HW232380   0.973  13.918   5.994
43495SOL     OW32381   1.881   1.108   1.014
43495SOL    HW132382   1.921   1.144   1.093
43495SOL    HW232383   1.809   1.167   0.994
43496SOL     OW32384   2.897   4.247  14.362
43496SOL    HW132385   2.897   4.257  14.457
43496SOL    HW232386   2.958   4.314  14.331
43497SOL     OW32387  13.641   2.609  12.117
43497SOL    HW132388  13.667   2.528  12.161
43497SOL    HW232389  13.680   2.679  12.170
43498SOL     OW32390   7.087   4.050   2.977
43498SOL    HW132391   7.141   4.055   3.056
43498SOL    HW232392   7.011   4.104   2.997
43499SOL     OW32393   5.435   9.897   5.815
43499SOL    HW132394   5.454   9.940   5.731
43499SOL    HW232395   5.438   9.804   5.796
43500SOL     OW32396  12.668   5.025   4.441
43500SOL    HW132397  12.706   5.101   4.487
43500SOL    HW232398  12.639   4.967   4.511
43501SOL     OW32399  11.510   0.940   7.376
43501SOL    HW132400  11.545   0.940   7.287
43501SOL    HW232401  11.568   0.882   7.425
43502SOL     OW32402  12.065  13.022  14.200
43502SOL    HW132403  12.103  12.949  14.248
43502SOL    HW232404  12.082  13.000  14.108
43503SOL     OW32405   7.438   0.157   3.129
43503SOL    HW132406   7.421   0.251   3.120
43503SOL    HW232407   7.438   0.124   3.039
43504SOL     OW32408   0.870  12.458   5.866
43504SOL    HW132409   0.928  12.498   5.931
43504SOL    HW232410   0.834  12.532   5.818
43505SOL     OW32411   1.344  14.296   4.671
43505SOL    HW132412   1.279  14.366   4.679
43505SOL    HW232413   1.316  14.229   4.733
43506SOL     OW32414   6.145   9.909   0.624
43506SOL    HW132415   6.180   9.858   0.697
43506SOL    HW232416   6.221   9.925   0.568
43507SOL     OW32417  13.218   0.839   0.257
43507SOL    HW132418  13.146   0.902   0.260
43507SOL    HW232419  13.177   0.754   0.268
43508SOL     OW32420   5.387   5.661   4.267
43508SOL    HW132421   5.434   5.590   4.224
43508SOL    HW232422   5.430   5.741   4.235
43509SOL     OW32423  11.985   9.063   7.936
43509SOL    HW132424  11.925   9.079   8.009
43509SOL    HW232425  12.049   9.002   7.971
43510SOL     OW32426   0.737   5.791   7.683
43510SOL    HW132427   0.803   5.763   7.745
43510SOL    HW232428   0.738   5.725   7.614
43511SOL     OW32429   2.253  13.322   6.648
43511SOL    HW132430   2.306  13.264   6.702
43511SOL    HW232431   2.261  13.288   6.559
43512SOL     OW32432  11.277  11.819  13.579
43512SOL    HW132433  11.270  11.733  13.539
43512SOL    HW232434  11.365  11.821  13.619
43513SOL     OW32435   4.902   1.360   4.707
43513SOL    HW132436   4.842   1.434   4.700
43513SOL    HW232437   4.985   1.392   4.672
43514SOL     OW32438  11.137   1.026   4.141
43514SOL    HW132439  11.191   0.963   4.094
43514SOL    HW232440  11.076   0.973   4.191
43515SOL     OW32441  10.717   3.123   3.723
43515SOL    HW132442  10.720   3.095   3.632
43515SOL    HW232443  10.800   3.168   3.737
43516SOL     OW32444  10.648   1.528  11.234
43516SOL    HW132445  10.686   1.485  11.157
43516SOL    HW232446  10.723   1.548  11.290
43517SOL     OW32447  11.756   7.261  10.702
43517SOL    HW132448  11.679   7.205  10.690
43517SOL    HW232449  11.756   7.281  10.795
43518SOL     OW32450   9.941   2.899   4.265
43518SOL    HW132451   9.875   2.930   4.203
43518SOL    HW232452   9.986   2.979   4.293
43519SOL     OW32453   1.795  12.387   7.162
43519SOL    HW132454   1.759  12.366   7.076
43519SOL    HW232455   1.799  12.482   7.164
43520SOL     OW32456   6.057  10.218  14.303
43520SOL    HW132457   6.137  10.252  14.263
43520SOL    HW232458   5.989  10.280  14.276
43521SOL     OW32459  13.962   2.950  14.032
43521SOL    HW132460  14.039   2.964  13.977
43521SOL    HW232461  13.989   2.981  14.119
43522SOL     OW32462   7.295   6.699  11.609
43522SOL    HW132463   7.287   6.782  11.562
43522SOL    HW232464   7.214   6.652  11.588
43523SOL     OW32465   3.160   2.799   0.122
43523SOL    HW132466   3.230   2.863   0.127
43523SOL    HW232467   3.202   2.720   0.089
43524SOL     OW32468   8.988   5.916  13.946
43524SOL    HW132469   8.921   5.921  13.878
43524SOL    HW232470   8.998   5.823  13.963
43525SOL     OW32471   3.026   4.466  12.134
43525SOL    HW132472   3.047   4.373  12.128
43525SOL    HW232473   3.073   4.507  12.061
43526SOL     OW32474   4.230   1.507   4.243
43526SOL    HW132475   4.201   1.464   4.324
43526SOL    HW232476   4.166   1.481   4.177
43527SOL     OW32477   7.129   4.090   0.649
43527SOL    HW132478   7.176   4.158   0.698
43527SOL    HW232479   7.197   4.027   0.626
43528SOL     OW32480   5.047   7.610   4.921
43528SOL    HW132481   4.965   7.607   4.870
43528SOL    HW232482   5.113   7.575   4.862
43529SOL     OW32483   1.321   3.301   0.723
43529SOL    HW132484   1.231   3.270   0.733
43529SOL    HW232485   1.322   3.387   0.766
43530SOL     OW32486   2.394   3.665  12.036
43530SOL    HW132487   2.313   3.618  12.054
43530SOL    HW232488   2.390   3.685  11.942
43531SOL     OW32489  12.164   3.066  13.108
43531SOL    HW132490  12.176   3.151  13.150
43531SOL    HW232491  12.225   3.067  13.034
43532SOL     OW32492  12.213  14.401   6.800
43532SOL    HW132493  12.289  14.449   6.768
43532SOL    HW232494  12.249  14.330   6.853
43533SOL     OW32495  13.003   9.824  13.682
43533SOL    HW132496  13.086   9.854  13.646
43533SOL    HW232497  13.016   9.824  13.777
43534SOL     OW32498   9.778  14.838   2.193
43534SOL    HW132499   9.839  14.803   2.259
43534SOL    HW232500   9.749   0.039   2.230
43535SOL     OW32501   8.388  11.172  10.969
43535SOL    HW132502   8.314  11.132  10.924
43535SOL    HW232503   8.381  11.143  11.060
43536SOL     OW32504   8.541   7.524   0.959
43536SOL    HW132505   8.562   7.614   0.981
43536SOL    HW232506   8.603   7.471   1.009
43537SOL     OW32507   1.271   7.065  14.028
43537SOL    HW132508   1.220   7.011  13.967
43537SOL    HW232509   1.345   7.010  14.051
43538SOL     OW32510   7.904   6.378   3.757
43538SOL    HW132511   7.926   6.296   3.800
43538SOL    HW232512   7.863   6.431   3.826
43539SOL     OW32513  14.019   8.284   8.985
43539SOL    HW132514  14.019   8.371   9.025
43539SOL    HW232515  13.933   8.277   8.943
43540SOL     OW32516  12.031   6.749  14.501
43540SOL    HW132517  11.993   6.837  14.511
43540SOL    HW232518  12.112   6.753  14.552
43541SOL     OW32519   9.212   6.462   6.049
43541SOL    HW132520   9.274   6.507   5.992
43541SOL    HW232521   9.225   6.369   6.031
43542SOL     OW32522   3.641   7.440   9.046
43542SOL    HW132523   3.549   7.415   9.054
43542SOL    HW232524   3.643   7.533   9.066
43543SOL     OW32525  12.493   8.763   9.738
43543SOL    HW132526  12.544   8.683   9.752
43543SOL    HW232527  12.513   8.817   9.814
43544SOL     OW32528  12.981  11.991   4.267
43544SOL    HW132529  12.992  12.060   4.203
43544SOL    HW232530  12.988  11.910   4.217
43545SOL     OW32531   9.197   4.675   4.880
43545SOL    HW132532   9.220   4.751   4.827
43545SOL    HW232533   9.231   4.695   4.968
43546SOL     OW32534   5.579   3.227   6.782
43546SOL    HW132535   5.502   3.237   6.839
43546SOL    HW232536   5.641   3.176   6.835
43547SOL     OW32537   1.781   3.480  10.986
43547SOL    HW132538   1.745   3.413  10.929
43547SOL    HW232539   1.705   3.519  11.028
43548SOL     OW32540   9.095   9.523  10.023
43548SOL    HW132541   9.138   9.550   9.942
43548SOL    HW232542   9.133   9.580  10.090
43549SOL     OW32543   4.471   5.646   1.220
43549SOL    HW132544   4.493   5.733   1.251
43549SOL    HW232545   4.377   5.637   1.237
43550SOL     OW32546   3.008   3.971  14.600
43550SOL    HW132547   2.931   4.013  14.640
43550SOL    HW232548   2.973   3.890  14.562
43551SOL     OW32549   7.743   5.860   9.095
43551SOL    HW132550   7.712   5.922   9.029
43551SOL    HW232551   7.744   5.911   9.176
43552SOL     OW32552   2.125   9.541   5.734
43552SOL    HW132553   2.090   9.459   5.768
43552SOL    HW232554   2.069   9.562   5.659
43553SOL     OW32555   9.045   5.766  14.573
43553SOL    HW132556   9.037   5.742  14.481
43553SOL    HW232557   9.131   5.733  14.599
43554SOL     OW32558   8.855   5.305   0.606
43554SOL    HW132559   8.943   5.318   0.571
43554SOL    HW232560   8.821   5.393   0.620
43555SOL     OW32561   7.288   1.462   8.350
43555SOL    HW132562   7.265   1.414   8.270
43555SOL    HW232563   7.381   1.447   8.361
43556SOL     OW32564  10.463   8.494   4.310
43556SOL    HW132565  10.444   8.445   4.229
43556SOL    HW232566  10.556   8.516   4.303
43557SOL     OW32567   0.403   3.779  14.662
43557SOL    HW132568   0.335   3.843  14.678
43557SOL    HW232569   0.391   3.752  14.571
43558SOL     OW32570   1.839  12.840  11.568
43558SOL    HW132571   1.825  12.905  11.498
43558SOL    HW232572   1.793  12.762  11.537
43559SOL     OW32573  10.641   1.043  14.456
43559SOL    HW132574  10.570   1.015  14.514
43559SOL    HW232575  10.596   1.083  14.381
43560SOL     OW32576   3.946   0.761   7.910
43560SOL    HW132577   4.023   0.746   7.855
43560SOL    HW232578   3.911   0.674   7.926
43561SOL     OW32579   4.723   6.968   4.750
43561SOL    HW132580   4.718   6.957   4.844
43561SOL    HW232581   4.668   6.898   4.714
43562SOL     OW32582  14.510  14.715   5.210
43562SOL    HW132583  14.492  14.685   5.121
43562SOL    HW232584  14.532  14.635   5.258
43563SOL     OW32585   1.564  13.798   0.703
43563SOL    HW132586   1.472  13.786   0.726
43563SOL    HW232587   1.593  13.711   0.676
43564SOL     OW32588   2.549   5.727   1.831
43564SOL    HW132589   2.545   5.648   1.886
43564SOL    HW232590   2.633   5.720   1.786
43565SOL     OW32591   4.965  13.675   4.835
43565SOL    HW132592   5.044  13.680   4.889
43565SOL    HW232593   4.915  13.603   4.872
43566SOL     OW32594   0.086   2.222   4.910
43566SOL    HW132595   0.118   2.147   4.860
43566SOL    HW232596   0.056   2.284   4.843
43567SOL     OW32597  14.338  14.101   9.772
43567SOL    HW132598  14.243  14.099   9.760
43567SOL    HW232599  14.355  14.187   9.811
43568SOL     OW32600   5.616  11.882  13.839
43568SOL    HW132601   5.582  11.834  13.914
43568SOL    HW232602   5.674  11.820  13.795
43569SOL     OW32603   6.248   1.316   4.062
43569SOL    HW132604   6.196   1.250   4.016
43569SOL    HW232605   6.298   1.266   4.126
43570SOL     OW32606   0.319   7.087  11.425
43570SOL    HW132607   0.298   7.059  11.336
43570SOL    HW232608   0.342   7.007  11.472
43571SOL     OW32609   3.336   4.084   9.980
43571SOL    HW132610   3.371   4.021  10.044
43571SOL    HW232611   3.242   4.085   9.997
43572SOL     OW32612  11.815  13.028   0.730
43572SOL    HW132613  11.905  13.008   0.754
43572SOL    HW232614  11.770  13.045   0.813
43573SOL     OW32615  11.123   9.448  10.841
43573SOL    HW132616  11.055   9.515  10.836
43573SOL    HW232617  11.107   9.391  10.765
43574SOL     OW32618   5.990   8.587   7.301
43574SOL    HW132619   5.929   8.549   7.238
43574SOL    HW232620   5.957   8.675   7.317
43575SOL     OW32621  10.800   4.845   2.233
43575SOL    HW132622  10.794   4.904   2.158
43575SOL    HW232623  10.712   4.808   2.241
43576SOL     OW32624   1.609   0.920   9.087
43576SOL    HW132625   1.673   0.901   9.018
43576SOL    HW232626   1.659   0.968   9.153
43577SOL     OW32627   3.445  12.993   3.405
43577SOL    HW132628   3.493  12.914   3.429
43577SOL    HW232629   3.357  12.961   3.383
43578SOL     OW32630   7.496  10.648   0.756
43578SOL    HW132631   7.587  10.661   0.730
43578SOL    HW232632   7.452  10.621   0.675
43579SOL     OW32633  14.277   6.765   2.387
43579SOL    HW132634  14.258   6.682   2.344
43579SOL    HW232635  14.286   6.743   2.479
43580SOL     OW32636   9.315  10.886  14.602
43580SOL    HW132637   9.323  10.930  14.686
43580SOL    HW232638   9.315  10.956  14.537
43581SOL     OW32639   6.499   5.759  12.367
43581SOL    HW132640   6.562   5.782  12.298
43581SOL    HW232641   6.507   5.664  12.375
43582SOL     OW32642  10.549   0.210   0.249
43582SOL    HW132643  10.608   0.135   0.243
43582SOL    HW232644  10.462   0.172   0.258
43583SOL     OW32645   3.782   1.577   6.992
43583SOL    HW132646   3.720   1.606   6.924
43583SOL    HW232647   3.728   1.526   7.053
43584SOL     OW32648   9.634   0.467  11.711
43584SOL    HW132649   9.555   0.417  11.689
43584SOL    HW232650   9.675   0.486  11.626
43585SOL     OW32651   5.932   2.335  14.500
43585SOL    HW132652   5.907   2.390  14.575
43585SOL    HW232653   5.909   2.387  14.423
43586SOL     OW32654   1.151   1.184   6.653
43586SOL    HW132655   1.165   1.099   6.612
43586SOL    HW232656   1.237   1.226   6.653
43587SOL     OW32657  14.567   3.897   8.021
43587SOL    HW132658  14.533   3.827   7.966
43587SOL    HW232659  14.626   3.854   8.083
43588SOL     OW32660  11.052   8.260   8.633
43588SOL    HW132661  11.028   8.178   8.676
43588SOL    HW232662  11.145   8.250   8.613
43589SOL     OW32663  12.317  13.832   9.132
43589SOL    HW132664  12.323  13.823   9.227
43589SOL    HW232665  12.232  13.873   9.116
43590SOL     OW32666   9.161   9.952   1.261
43590SOL    HW132667   9.120   9.881   1.211
43590SOL    HW232668   9.240   9.974   1.211
43591SOL     OW32669   4.202   7.128   1.445
43591SOL    HW132670   4.207   7.125   1.350
43591SOL    HW232671   4.292   7.113   1.475
43592SOL     OW32672   7.014  10.033  11.099
43592SOL    HW132673   7.054  10.114  11.130
43592SOL    HW232674   6.965  10.059  11.021
43593SOL     OW32675   6.932   9.209  12.553
43593SOL    HW132676   6.913   9.298  12.522
43593SOL    HW232677   7.028   9.205  12.554
43594SOL     OW32678  14.455  14.573  13.460
43594SOL    HW132679  14.437  14.635  13.390
43594SOL    HW232680  14.394  14.500  13.444
43595SOL     OW32681   9.535   7.597   7.859
43595SOL    HW132682   9.539   7.544   7.939
43595SOL    HW232683   9.498   7.538   7.793
43596SOL     OW32684   3.930   0.557   9.208
43596SOL    HW132685   3.877   0.539   9.286
43596SOL    HW232686   3.985   0.479   9.198
43597SOL     OW32687  11.289  11.099   9.050
43597SOL    HW132688  11.194  11.092   9.049
43597SOL    HW232689  11.306  11.193   9.045
43598SOL     OW32690  10.660  13.437  14.036
43598SOL    HW132691  10.682  13.386  13.958
43598SOL    HW232692  10.679  13.378  14.109
43599SOL     OW32693  11.468   5.014   8.908
43599SOL    HW132694  11.413   5.090   8.893
43599SOL    HW232695  11.441   4.982   8.994
43600SOL     OW32696  10.100  10.776   9.598
43600SOL    HW132697  10.023  10.816   9.638
43600SOL    HW232698  10.140  10.848   9.548
43601SOL     OW32699  10.134   6.520   3.068
43601SOL    HW132700  10.219   6.549   3.036
43601SOL    HW232701  10.133   6.426   3.054
43602SOL     OW32702   4.809   0.700  12.744
43602SOL    HW132703   4.778   0.755  12.816
43602SOL    HW232704   4.777   0.612  12.766
43603SOL     OW32705   5.135  12.830   7.556
43603SOL    HW132706   5.150  12.793   7.469
43603SOL    HW232707   5.070  12.899   7.541
43604SOL     OW32708   5.460   4.189   2.685
43604SOL    HW132709   5.506   4.156   2.608
43604SOL    HW232710   5.507   4.269   2.709
43605SOL     OW32711   3.277   2.282   1.413
43605SOL    HW132712   3.343   2.224   1.374
43605SOL    HW232713   3.204   2.224   1.433
43606SOL     OW32714  13.722  10.021  11.035
43606SOL    HW132715  13.678  10.003  10.951
43606SOL    HW232716  13.810  10.051  11.010
43607SOL     OW32717  10.643   1.998   0.454
43607SOL    HW132718  10.572   2.027   0.397
43607SOL    HW232719  10.649   1.904   0.439
43608SOL     OW32720  14.435   9.734  10.534
43608SOL    HW132721  14.378   9.692  10.470
43608SOL    HW232722  14.385   9.809  10.565
43609SOL     OW32723   4.692   5.864   4.085
43609SOL    HW132724   4.776   5.900   4.055
43609SOL    HW232725   4.673   5.793   4.024
43610SOL     OW32726  10.601  10.712   1.620
43610SOL    HW132727  10.624  10.670   1.703
43610SOL    HW232728  10.552  10.646   1.572
43611SOL     OW32729   1.420   9.162   9.778
43611SOL    HW132730   1.383   9.171   9.690
43611SOL    HW232731   1.361   9.100   9.822
43612SOL     OW32732   1.013   7.747   5.776
43612SOL    HW132733   0.969   7.775   5.696
43612SOL    HW232734   1.070   7.675   5.748
43613SOL     OW32735  10.159   8.876   5.411
43613SOL    HW132736  10.133   8.836   5.494
43613SOL    HW232737  10.148   8.970   5.425
43614SOL     OW32738   7.400   8.709   6.364
43614SOL    HW132739   7.369   8.764   6.436
43614SOL    HW232740   7.331   8.715   6.298
43615SOL     OW32741  11.736   7.523  14.115
43615SOL    HW132742  11.806   7.587  14.131
43615SOL    HW232743  11.658   7.563  14.152
43616SOL     OW32744   9.763   3.565   0.541
43616SOL    HW132745   9.738   3.514   0.464
43616SOL    HW232746   9.827   3.628   0.509
43617SOL     OW32747  14.657   0.732   9.359
43617SOL    HW132748  14.664   0.707   9.451
43617SOL    HW232749  14.744   0.711   9.322
43618SOL     OW32750  14.688   0.470  14.357
43618SOL    HW132751  14.738   0.533  14.306
43618SOL    HW232752  14.650   0.523  14.428
43619SOL     OW32753   0.614   5.076  13.143
43619SOL    HW132754   0.665   5.059  13.064
43619SOL    HW232755   0.677   5.109  13.207
43620SOL     OW32756   8.078  13.617   5.117
43620SOL    HW132757   8.164  13.576   5.121
43620SOL    HW232758   8.088  13.687   5.053
43621SOL     OW32759   0.734   9.418   4.348
43621SOL    HW132760   0.803   9.389   4.288
43621SOL    HW232761   0.706   9.339   4.394
43622SOL     OW32762   3.998  13.488   9.738
43622SOL    HW132763   4.063  13.492   9.808
43622SOL    HW232764   4.049  13.488   9.658
43623SOL     OW32765   8.141  10.422  12.410
43623SOL    HW132766   8.169  10.336  12.379
43623SOL    HW232767   8.174  10.483  12.344
43624SOL     OW32768  12.755  13.130   4.583
43624SOL    HW132769  12.772  13.153   4.674
43624SOL    HW232770  12.738  13.036   4.583
43625SOL     OW32771   7.734   7.864  14.074
43625SOL    HW132772   7.675   7.938  14.062
43625SOL    HW232773   7.692   7.809  14.141
43626SOL     OW32774  11.782  11.288  14.299
43626SOL    HW132775  11.711  11.261  14.357
43626SOL    HW232776  11.846  11.329  14.357
43627SOL     OW32777   7.706   6.208   4.100
43627SOL    HW132778   7.762   6.227   4.025
43627SOL    HW232779   7.640   6.277   4.099
43628SOL     OW32780   7.233   4.683  11.225
43628SOL    HW132781   7.162   4.644  11.172
43628SOL    HW232782   7.194   4.762  11.262
43629SOL     OW32783   2.391   9.942   3.946
43629SOL    HW132784   2.460   9.956   3.880
43629SOL    HW232785   2.403   9.852   3.974
43630SOL     OW32786  12.095  14.858  11.812
43630SOL    HW132787  12.182  14.826  11.837
43630SOL    HW232788  12.044  14.854  11.894
43631SOL     OW32789  12.958   8.417  10.584
43631SOL    HW132790  12.908   8.382  10.657
43631SOL    HW232791  12.893   8.459  10.527
43632SOL     OW32792   2.404   8.840  11.519
43632SOL    HW132793   2.499   8.848  11.511
43632SOL    HW232794   2.392   8.778  11.591
43633SOL     OW32795   2.428   0.449   8.462
43633SOL    HW132796   2.432   0.373   8.521
43633SOL    HW232797   2.518   0.458   8.430
43634SOL     OW32798  12.865   6.505  11.836
43634SOL    HW132799  12.946   6.477  11.793
43634SOL    HW232800  12.795   6.474  11.779
43635SOL     OW32801   7.159   8.881  14.560
43635SOL    HW132802   7.170   8.938  14.636
43635SOL    HW232803   7.094   8.816  14.587
43636SOL     OW32804   2.428   0.350   7.049
43636SOL    HW132805   2.418   0.409   6.974
43636SOL    HW232806   2.499   0.388   7.101
43637SOL     OW32807   8.938   7.286  14.409
43637SOL    HW132808   9.025   7.320  14.433
43637SOL    HW232809   8.895   7.269  14.493
43638SOL     OW32810  13.765  11.503  12.122
43638SOL    HW132811  13.670  11.499  12.133
43638SOL    HW232812  13.787  11.596  12.125
43639SOL     OW32813   9.704   0.753  10.333
43639SOL    HW132814   9.751   0.704  10.266
43639SOL    HW232815   9.736   0.843  10.323
43640SOL     OW32816  12.196   4.584   5.615
43640SOL    HW132817  12.169   4.676   5.612
43640SOL    HW232818  12.267   4.582   5.678
43641SOL     OW32819  13.694   9.644  10.648
43641SOL    HW132820  13.625   9.709  10.653
43641SOL    HW232821  13.680   9.587  10.724
43642SOL     OW32822   2.473  11.745  14.241
43642SOL    HW132823   2.567  11.750  14.225
43642SOL    HW232824   2.434  11.807  14.179
43643SOL     OW32825   6.280  10.259   5.581
43643SOL    HW132826   6.263  10.174   5.621
43643SOL    HW232827   6.198  10.307   5.592
43644SOL     OW32828  14.171   5.369   3.100
43644SOL    HW132829  14.220   5.351   3.020
43644SOL    HW232830  14.090   5.319   3.091
43645SOL     OW32831   2.746   5.718   1.625
43645SOL    HW132832   2.704   5.777   1.561
43645SOL    HW232833   2.771   5.642   1.574
43646SOL     OW32834   3.345  12.162   4.490
43646SOL    HW132835   3.376  12.108   4.562
43646SOL    HW232836   3.249  12.157   4.496
43647SOL     OW32837   5.206   4.309   3.368
43647SOL    HW132838   5.221   4.404   3.374
43647SOL    HW232839   5.232   4.275   3.453
43648SOL     OW32840   9.368  12.010   9.090
43648SOL    HW132841   9.460  11.993   9.112
43648SOL    HW232842   9.340  12.074   9.155
43649SOL     OW32843   4.792   5.643  14.143
43649SOL    HW132844   4.808   5.562  14.094
43649SOL    HW232845   4.825   5.625  14.231
43650SOL     OW32846  11.309   9.628  13.065
43650SOL    HW132847  11.295   9.588  12.979
43650SOL    HW232848  11.368   9.567  13.110
43651SOL     OW32849   3.407   8.071   6.056
43651SOL    HW132850   3.418   8.159   6.019
43651SOL    HW232851   3.345   8.028   5.996
43652SOL     OW32852   8.819   6.025  14.860
43652SOL    HW132853   8.819   6.087  14.787
43652SOL    HW232854   8.894   5.967  14.843
43653SOL     OW32855   2.967  10.071  11.315
43653SOL    HW132856   3.052  10.076  11.357
43653SOL    HW232857   2.941  10.162  11.302
43654SOL     OW32858   1.256   3.403   6.744
43654SOL    HW132859   1.201   3.482   6.747
43654SOL    HW232860   1.343   3.436   6.722
43655SOL     OW32861   2.225   9.262  10.461
43655SOL    HW132862   2.185   9.332  10.408
43655SOL    HW232863   2.195   9.181  10.420
43656SOL     OW32864   6.058  14.583   4.974
43656SOL    HW132865   6.004  14.511   5.006
43656SOL    HW232866   6.106  14.613   5.052
43657SOL     OW32867   7.384  12.867  13.433
43657SOL    HW132868   7.328  12.800  13.393
43657SOL    HW232869   7.457  12.817  13.470
43658SOL     OW32870   9.386   1.578   8.520
43658SOL    HW132871   9.427   1.568   8.435
43658SOL    HW232872   9.447   1.539   8.582
43659SOL     OW32873  13.974   7.306   5.587
43659SOL    HW132874  13.895   7.286   5.637
43659SOL    HW232875  13.962   7.258   5.504
43660SOL     OW32876   7.060   8.510  14.063
43660SOL    HW132877   7.052   8.417  14.083
43660SOL    HW232878   7.139   8.516  14.009
43661SOL     OW32879   4.556   9.547  12.674
43661SOL    HW132880   4.600   9.489  12.613
43661SOL    HW232881   4.627   9.597  12.715
43662SOL     OW32882   5.273   3.088   7.377
43662SOL    HW132883   5.283   2.999   7.344
43662SOL    HW232884   5.188   3.088   7.422
43663SOL     OW32885   8.152   3.452   2.965
43663SOL    HW132886   8.239   3.433   2.929
43663SOL    HW232887   8.109   3.505   2.898
43664SOL     OW32888   4.024  13.720   8.714
43664SOL    HW132889   4.030  13.740   8.807
43664SOL    HW232890   4.011  13.625   8.711
43665SOL     OW32891   3.839   2.526   9.156
43665SOL    HW132892   3.860   2.498   9.245
43665SOL    HW232893   3.849   2.621   9.158
43666SOL     OW32894  13.253   6.576   9.038
43666SOL    HW132895  13.169   6.546   9.005
43666SOL    HW232896  13.312   6.570   8.964
43667SOL     OW32897  14.865  14.362   0.887
43667SOL    HW132898   0.037  14.288   0.912
43667SOL    HW232899   0.037  14.411   0.825
43668SOL     OW32900  10.845   7.830   6.339
43668SOL    HW132901  10.906   7.883   6.288
43668SOL    HW232902  10.901   7.776   6.395
43669SOL     OW32903   2.845   3.304   1.766
43669SOL    HW132904   2.763   3.340   1.801
43669SOL    HW232905   2.823   3.281   1.675
43670SOL     OW32906   5.193  11.621  12.943
43670SOL    HW132907   5.271  11.601  12.995
43670SOL    HW232908   5.141  11.541  12.946
43671SOL     OW32909   9.042  11.530  12.812
43671SOL    HW132910   9.093  11.465  12.861
43671SOL    HW232911   9.101  11.559  12.742
43672SOL     OW32912   8.291   6.328  12.517
43672SOL    HW132913   8.361   6.333  12.453
43672SOL    HW232914   8.214   6.301  12.467
43673SOL     OW32915   8.132   0.546   8.262
43673SOL    HW132916   8.068   0.615   8.280
43673SOL    HW232917   8.213   0.593   8.241
43674SOL     OW32918  14.081   1.677   6.111
43674SOL    HW132919  14.013   1.687   6.045
43674SOL    HW232920  14.054   1.736   6.182
43675SOL     OW32921  12.628   7.384   9.376
43675SOL    HW132922  12.595   7.408   9.289
43675SOL    HW232923  12.589   7.449   9.435
43676SOL     OW32924   1.066   9.551   1.713
43676SOL    HW132925   1.091   9.471   1.666
43676SOL    HW232926   0.993   9.524   1.769
43677SOL     OW32927   4.417  12.177   5.952
43677SOL    HW132928   4.437  12.137   6.037
43677SOL    HW232929   4.404  12.103   5.893
43678SOL     OW32930   3.273   3.632   8.571
43678SOL    HW132931   3.293   3.539   8.581
43678SOL    HW232932   3.178   3.635   8.563
43679SOL     OW32933   7.906  14.043   4.713
43679SOL    HW132934   7.917  14.099   4.789
43679SOL    HW232935   7.845  14.091   4.656
43680SOL     OW32936   5.729   7.150  10.665
43680SOL    HW132937   5.817   7.183  10.647
43680SOL    HW232938   5.733   7.120  10.755
43681SOL     OW32939  14.693   7.544   0.639
43681SOL    HW132940  14.734   7.533   0.553
43681SOL    HW232941  14.599   7.554   0.620
43682SOL     OW32942  11.489   1.927  11.269
43682SOL    HW132943  11.488   1.952  11.362
43682SOL    HW232944  11.432   1.850  11.265
43683SOL     OW32945   5.738  13.864   5.616
43683SOL    HW132946   5.808  13.927   5.601
43683SOL    HW232947   5.658  13.917   5.621
43684SOL     OW32948   4.121   1.476   5.357
43684SOL    HW132949   4.096   1.500   5.446
43684SOL    HW232950   4.193   1.413   5.368
43685SOL     OW32951   1.817   7.534   0.214
43685SOL    HW132952   1.864   7.486   0.146
43685SOL    HW232953   1.812   7.473   0.287
43686SOL     OW32954   1.409   1.738   1.355
43686SOL    HW132955   1.387   1.808   1.417
43686SOL    HW232956   1.486   1.771   1.308
43687SOL     OW32957   2.364  10.372   3.833
43687SOL    HW132958   2.343  10.350   3.924
43687SOL    HW232959   2.451  10.411   3.837
43688SOL     OW32960   8.908   4.190  10.417
43688SOL    HW132961   8.936   4.121  10.357
43688SOL    HW232962   8.904   4.147  10.503
43689SOL     OW32963   4.021   9.125   1.196
43689SOL    HW132964   3.926   9.138   1.199
43689SOL    HW232965   4.041   9.116   1.103
43690SOL     OW32966   7.586  11.145   1.992
43690SOL    HW132967   7.561  11.166   2.082
43690SOL    HW232968   7.561  11.053   1.981
43691SOL     OW32969   1.973   1.314   7.902
43691SOL    HW132970   1.892   1.264   7.908
43691SOL    HW232971   1.957   1.378   7.832
43692SOL     OW32972  10.847  13.619   6.501
43692SOL    HW132973  10.834  13.564   6.424
43692SOL    HW232974  10.912  13.571   6.554
43693SOL     OW32975  13.264   4.576   9.945
43693SOL    HW132976  13.289   4.602  10.034
43693SOL    HW232977  13.302   4.644   9.889
43694SOL     OW32978   1.963   1.035   7.465
43694SOL    HW132979   1.988   1.043   7.557
43694SOL    HW232980   2.042   1.002   7.421
43695SOL     OW32981  13.349   0.982   5.494
43695SOL    HW132982  13.419   1.041   5.465
43695SOL    HW232983  13.316   0.942   5.414
43696SOL     OW32984   6.214  12.440   5.849
43696SOL    HW132985   6.122  12.438   5.822
43696SOL    HW232986   6.223  12.521   5.898
43697SOL     OW32987   0.352   4.904   8.199
43697SOL    HW132988   0.308   4.980   8.162
43697SOL    HW232989   0.446   4.924   8.190
43698SOL     OW32990  13.229  13.064   1.704
43698SOL    HW132991  13.152  13.120   1.711
43698SOL    HW232992  13.195  12.975   1.706
43699SOL     OW32993   7.988  12.648  14.172
43699SOL    HW132994   8.060  12.666  14.232
43699SOL    HW232995   7.910  12.651  14.227
43700SOL     OW32996   6.067   7.285   9.557
43700SOL    HW132997   5.974   7.267   9.569
43700SOL    HW232998   6.090   7.342   9.630
43701SOL     OW32999  13.813  13.655   2.602
43701SOL    HW133000  13.900  13.686   2.577
43701SOL    HW233001  13.753  13.698   2.541
43702SOL     OW33002  11.164  11.971  11.845
43702SOL    HW133003  11.086  11.922  11.817
43702SOL    HW233004  11.196  11.922  11.921
43703SOL     OW33005   1.744   5.908   2.931
43703SOL    HW133006   1.688   5.910   3.009
43703SOL    HW233007   1.785   5.994   2.929
43704SOL     OW33008   4.038  14.495   6.910
43704SOL    HW133009   4.092  14.530   6.840
43704SOL    HW233010   4.100  14.467   6.978
43705SOL     OW33011   1.020   4.720   8.429
43705SOL    HW133012   0.950   4.770   8.472
43705SOL    HW233013   0.988   4.704   8.341
43706SOL     OW33014  11.060   5.017   8.203
43706SOL    HW133015  11.019   5.010   8.289
43706SOL    HW233016  11.141   5.066   8.219
43707SOL     OW33017   9.370   9.748   1.926
43707SOL    HW133018   9.431   9.726   1.855
43707SOL    HW233019   9.340   9.836   1.905
43708SOL     OW33020  14.794  11.551   3.513
43708SOL    HW133021  14.848  11.519   3.441
43708SOL    HW233022  14.721  11.491   3.518
43709SOL     OW33023   8.201   9.012   0.471
43709SOL    HW133024   8.184   8.956   0.396
43709SOL    HW233025   8.133   8.990   0.535
43710SOL     OW33026  10.568   5.014  12.844
43710SOL    HW133027  10.630   5.082  12.821
43710SOL    HW233028  10.568   5.012  12.940
43711SOL     OW33029   5.182   5.622   5.820
43711SOL    HW133030   5.228   5.621   5.736
43711SOL    HW233031   5.096   5.586   5.800
43712SOL     OW33032   7.872  10.271   5.751
43712SOL    HW133033   7.931  10.242   5.821
43712SOL    HW233034   7.806  10.324   5.795
43713SOL     OW33035  12.501  11.629   7.373
43713SOL    HW133036  12.505  11.534   7.371
43713SOL    HW233037  12.579  11.656   7.421
43714SOL     OW33038  13.283   6.138   9.077
43714SOL    HW133039  13.262   6.231   9.080
43714SOL    HW233040  13.378   6.134   9.076
43715SOL     OW33041  10.575  12.107  10.476
43715SOL    HW133042  10.528  12.074  10.553
43715SOL    HW233043  10.637  12.038  10.455
43716SOL     OW33044   2.264   8.172   7.923
43716SOL    HW133045   2.247   8.084   7.956
43716SOL    HW233046   2.197   8.187   7.857
43717SOL     OW33047   5.375   5.200  10.669
43717SOL    HW133048   5.437   5.265  10.702
43717SOL    HW233049   5.355   5.145  10.744
43718SOL     OW33050  13.362  13.471   6.115
43718SOL    HW133051  13.365  13.405   6.185
43718SOL    HW233052  13.281  13.519   6.131
43719SOL     OW33053  11.363  12.151   7.204
43719SOL    HW133054  11.412  12.221   7.161
43719SOL    HW233055  11.355  12.083   7.137
43720SOL     OW33056   7.840   7.236  11.164
43720SOL    HW133057   7.763   7.196  11.205
43720SOL    HW233058   7.890   7.271  11.238
43721SOL     OW33059  10.659  10.809   5.490
43721SOL    HW133060  10.614  10.726   5.473
43721SOL    HW233061  10.594  10.876   5.469
43722SOL     OW33062  12.157  13.040   5.012
43722SOL    HW133063  12.175  12.990   4.933
43722SOL    HW233064  12.211  12.998   5.079
43723SOL     OW33065   1.792   8.393   8.503
43723SOL    HW133066   1.864   8.361   8.557
43723SOL    HW233067   1.829   8.467   8.455
43724SOL     OW33068   5.239  11.599   3.752
43724SOL    HW133069   5.156  11.599   3.703
43724SOL    HW233070   5.286  11.522   3.720
43725SOL     OW33071   2.694   4.324  13.396
43725SOL    HW133072   2.696   4.418  13.413
43725SOL    HW233073   2.701   4.284  13.483
43726SOL     OW33074   5.389   4.278   7.878
43726SOL    HW133075   5.434   4.232   7.950
43726SOL    HW233076   5.317   4.324   7.921
43727SOL     OW33077   8.926   9.437   7.714
43727SOL    HW133078   8.891   9.474   7.633
43727SOL    HW233079   8.980   9.506   7.751
43728SOL     OW33080   1.544   2.572  10.665
43728SOL    HW133081   1.489   2.508  10.620
43728SOL    HW233082   1.503   2.656  10.649
43729SOL     OW33083   8.619   2.637   2.693
43729SOL    HW133084   8.634   2.613   2.784
43729SOL    HW233085   8.663   2.721   2.682
43730SOL     OW33086  14.834   7.040   7.016
43730SOL    HW133087  14.825   6.948   6.993
43730SOL    HW233088   0.007   7.040   7.094
43731SOL     OW33089   9.282   6.221   4.201
43731SOL    HW133090   9.309   6.212   4.110
43731SOL    HW233091   9.263   6.131   4.229
43732SOL     OW33092   9.932  10.130   9.311
43732SOL    HW133093  10.023  10.161   9.303
43732SOL    HW233094   9.899  10.172   9.390
43733SOL     OW33095   2.922   4.383   5.543
43733SOL    HW133096   2.891   4.469   5.572
43733SOL    HW233097   3.017   4.389   5.550
43734SOL     OW33098   0.223  12.424  14.773
43734SOL    HW133099   0.180  12.482  14.836
43734SOL    HW233100   0.201  12.336  14.804
43735SOL     OW33101  14.248  12.164  11.306
43735SOL    HW133102  14.274  12.194  11.219
43735SOL    HW233103  14.288  12.078  11.315
43736SOL     OW33104  14.559   6.917   2.980
43736SOL    HW133105  14.502   6.877   2.914
43736SOL    HW233106  14.506   6.985   3.020
43737SOL     OW33107  14.753   4.383  14.487
43737SOL    HW133108  14.786   4.437  14.415
43737SOL    HW233109  14.728   4.446  14.555
43738SOL     OW33110  11.015   9.953  11.515
43738SOL    HW133111  11.099   9.925  11.552
43738SOL    HW233112  10.987   9.880  11.459
43739SOL     OW33113   7.968   5.004   1.528
43739SOL    HW133114   7.988   5.010   1.434
43739SOL    HW233115   7.896   4.942   1.534
43740SOL     OW33116   0.702   0.752   3.823
43740SOL    HW133117   0.711   0.835   3.870
43740SOL    HW233118   0.785   0.707   3.838
43741SOL     OW33119   8.187  11.470  12.062
43741SOL    HW133120   8.229  11.550  12.094
43741SOL    HW233121   8.106  11.463  12.112
43742SOL     OW33122   0.909   8.399  10.587
43742SOL    HW133123   0.972   8.398  10.515
43742SOL    HW233124   0.876   8.309  10.590
43743SOL     OW33125   9.240  10.683  11.918
43743SOL    HW133126   9.268  10.647  12.002
43743SOL    HW233127   9.184  10.615  11.881
43744SOL     OW33128   3.638   1.033   2.136
43744SOL    HW133129   3.614   1.015   2.227
43744SOL    HW233130   3.555   1.050   2.091
43745SOL     OW33131   4.571   6.839   9.247
43745SOL    HW133132   4.529   6.885   9.175
43745SOL    HW233133   4.554   6.746   9.230
43746SOL     OW33134   0.473  14.269   5.882
43746SOL    HW133135   0.402  14.223   5.837
43746SOL    HW233136   0.510  14.326   5.816
43747SOL     OW33137   7.815   7.435  13.849
43747SOL    HW133138   7.838   7.513  13.899
43747SOL    HW233139   7.761   7.467  13.777
43748SOL     OW33140   5.972  13.737  12.796
43748SOL    HW133141   5.905  13.742  12.728
43748SOL    HW233142   6.050  13.705  12.750
43749SOL     OW33143  10.905  14.560  10.567
43749SOL    HW133144  10.849  14.497  10.521
43749SOL    HW233145  10.971  14.585  10.503
43750SOL     OW33146   9.221   4.042  13.670
43750SOL    HW133147   9.272   4.120  13.689
43750SOL    HW233148   9.252   4.014  13.584
43751SOL     OW33149   5.107   7.060   1.450
43751SOL    HW133150   5.140   7.016   1.371
43751SOL    HW233151   5.017   7.084   1.428
43752SOL     OW33152   7.441   1.354  13.830
43752SOL    HW133153   7.496   1.280  13.805
43752SOL    HW233154   7.472   1.379  13.917
43753SOL     OW33155  12.241   2.073   5.213
43753SOL    HW133156  12.303   2.108   5.277
43753SOL    HW233157  12.161   2.058   5.264
43754SOL     OW33158   5.810  11.915  12.434
43754SOL    HW133159   5.879  11.980  12.426
43754SOL    HW233160   5.854  11.831  12.415
43755SOL     OW33161  10.356   2.506   1.701
43755SOL    HW133162  10.265   2.523   1.676
43755SOL    HW233163  10.404   2.581   1.665
43756SOL     OW33164   3.227   9.593   8.068
43756SOL    HW133165   3.266   9.572   8.152
43756SOL    HW233166   3.138   9.623   8.089
43757SOL     OW33167   2.323   2.493   2.966
43757SOL    HW133168   2.294   2.425   2.905
43757SOL    HW233169   2.409   2.465   2.996
43758SOL     OW33170   9.305   7.222   5.142
43758SOL    HW133171   9.298   7.153   5.077
43758SOL    HW233172   9.252   7.191   5.216
43759SOL     OW33173  10.065   3.389   9.260
43759SOL    HW133174   9.994   3.333   9.229
43759SOL    HW233175  10.128   3.328   9.299
43760SOL     OW33176  14.026   3.200   6.244
43760SOL    HW133177  14.057   3.141   6.313
43760SOL    HW233178  13.939   3.166   6.222
43761SOL     OW33179   6.224   5.490   8.305
43761SOL    HW133180   6.239   5.420   8.369
43761SOL    HW233181   6.259   5.456   8.223
43762SOL     OW33182   4.932   4.388   8.100
43762SOL    HW133183   4.949   4.446   8.025
43762SOL    HW233184   4.913   4.447   8.172
43763SOL     OW33185   9.416   9.582   2.152
43763SOL    HW133186   9.423   9.637   2.074
43763SOL    HW233187   9.331   9.539   2.143
43764SOL     OW33188  13.177   8.511   1.486
43764SOL    HW133189  13.127   8.437   1.452
43764SOL    HW233190  13.197   8.564   1.409
43765SOL     OW33191   1.917   9.039   3.116
43765SOL    HW133192   1.836   9.030   3.167
43765SOL    HW233193   1.974   8.970   3.150
43766SOL     OW33194   9.653   1.180   7.548
43766SOL    HW133195   9.582   1.137   7.594
43766SOL    HW233196   9.623   1.187   7.457
43767SOL     OW33197   0.509   2.692  11.043
43767SOL    HW133198   0.486   2.600  11.026
43767SOL    HW233199   0.515   2.732  10.956
43768SOL     OW33200   1.038   4.639  11.330
43768SOL    HW133201   1.063   4.718  11.379
43768SOL    HW233202   0.944   4.649  11.316
43769SOL     OW33203  13.572  11.149   7.983
43769SOL    HW133204  13.630  11.220   7.957
43769SOL    HW233205  13.617  11.106   8.056
43770SOL     OW33206  10.089  11.340   5.776
43770SOL    HW133207  10.079  11.305   5.687
43770SOL    HW233208  10.181  11.324   5.797
43771SOL     OW33209   8.592   2.001  12.927
43771SOL    HW133210   8.506   2.001  12.970
43771SOL    HW233211   8.644   2.064  12.977
43772SOL     OW33212   5.197   3.912  13.789
43772SOL    HW133213   5.257   3.884  13.858
43772SOL    HW233214   5.238   3.880  13.708
43773SOL     OW33215  10.317   0.318   9.606
43773SOL    HW133216  10.335   0.243   9.663
43773SOL    HW233217  10.371   0.302   9.528
43774SOL     OW33218   1.898   2.439   9.050
43774SOL    HW133219   1.901   2.534   9.056
43774SOL    HW233220   1.816   2.421   9.004
43775SOL     OW33221  14.630   1.522   0.286
43775SOL    HW133222  14.535   1.534   0.278
43775SOL    HW233223  14.664   1.610   0.301
43776SOL     OW33224   7.890  13.002   4.705
43776SOL    HW133225   7.872  12.941   4.634
43776SOL    HW233226   7.812  13.058   4.711
43777SOL     OW33227   5.322   8.883   5.237
43777SOL    HW133228   5.259   8.840   5.295
43777SOL    HW233229   5.394   8.820   5.229
43778SOL     OW33230   2.622   0.497  11.654
43778SOL    HW133231   2.677   0.575  11.650
43778SOL    HW233232   2.651   0.444  11.580
43779SOL     OW33233   3.498   6.188   7.706
43779SOL    HW133234   3.465   6.177   7.796
43779SOL    HW233235   3.589   6.215   7.717
43780SOL     OW33236   9.605   3.912   1.141
43780SOL    HW133237   9.623   3.837   1.085
43780SOL    HW233238   9.624   3.881   1.230
43781SOL     OW33239   5.833  14.287  14.725
43781SOL    HW133240   5.800  14.272  14.636
43781SOL    HW233241   5.822  14.381  14.738
43782SOL     OW33242  14.000   4.597   9.842
43782SOL    HW133243  14.035   4.510   9.863
43782SOL    HW233244  13.981   4.594   9.749
43783SOL     OW33245   3.702  13.720  14.304
43783SOL    HW133246   3.612  13.719  14.335
43783SOL    HW233247   3.702  13.663  14.227
43784SOL     OW33248   7.262   5.085  13.098
43784SOL    HW133249   7.231   5.171  13.071
43784SOL    HW233250   7.349   5.101  13.134
43785SOL     OW33251   0.288   2.909   6.969
43785SOL    HW133252   0.215   2.935   7.024
43785SOL    HW233253   0.342   2.988   6.962
43786SOL     OW33254   7.575  12.212   2.205
43786SOL    HW133255   7.551  12.297   2.170
43786SOL    HW233256   7.496  12.159   2.196
43787SOL     OW33257  12.565   3.840   9.496
43787SOL    HW133258  12.580   3.932   9.473
43787SOL    HW233259  12.635   3.793   9.450
43788SOL     OW33260   4.018   6.212   1.612
43788SOL    HW133261   4.009   6.186   1.704
43788SOL    HW233262   4.055   6.300   1.615
43789SOL     OW33263   1.014   0.506   4.521
43789SOL    HW133264   0.961   0.447   4.575
43789SOL    HW233265   1.095   0.519   4.571
43790SOL     OW33266   1.487   9.482   8.948
43790SOL    HW133267   1.402   9.495   8.906
43790SOL    HW233268   1.546   9.463   8.875
43791SOL     OW33269  12.035   6.231   5.916
43791SOL    HW133270  12.060   6.295   5.982
43791SOL    HW233271  12.096   6.246   5.844
43792SOL     OW33272   8.259   3.890   3.521
43792SOL    HW133273   8.295   3.805   3.496
43792SOL    HW233274   8.226   3.876   3.610
43793SOL     OW33275   7.600   0.205   5.679
43793SOL    HW133276   7.530   0.205   5.614
43793SOL    HW233277   7.581   0.280   5.735
43794SOL     OW33278  10.565   7.074   9.914
43794SOL    HW133279  10.579   7.097  10.006
43794SOL    HW233280  10.475   7.102   9.896
43795SOL     OW33281   8.105  13.884  11.844
43795SOL    HW133282   8.047  13.910  11.772
43795SOL    HW233283   8.073  13.933  11.920
43796SOL     OW33284   9.397  12.085   7.075
43796SOL    HW133285   9.349  12.099   7.157
43796SOL    HW233286   9.451  12.008   7.092
43797SOL     OW33287   8.502  12.336   7.523
43797SOL    HW133288   8.427  12.316   7.579
43797SOL    HW233289   8.571  12.276   7.553
43798SOL     OW33290  11.453   8.441  12.895
43798SOL    HW133291  11.386   8.407  12.953
43798SOL    HW233292  11.488   8.364  12.849
43799SOL     OW33293   3.002   5.930   9.667
43799SOL    HW133294   3.025   5.851   9.618
43799SOL    HW233295   2.908   5.923   9.680
43800SOL     OW33296   3.067  10.933   9.333
43800SOL    HW133297   3.010  10.874   9.283
43800SOL    HW233298   3.006  10.984   9.387
43801SOL     OW33299   1.223  11.665   9.652
43801SOL    HW133300   1.292  11.685   9.716
43801SOL    HW233301   1.270  11.658   9.569
43802SOL     OW33302   3.892  13.894   4.742
43802SOL    HW133303   3.947  13.950   4.797
43802SOL    HW233304   3.905  13.806   4.778
43803SOL     OW33305   3.834   3.792   3.109
43803SOL    HW133306   3.922   3.782   3.146
43803SOL    HW233307   3.787   3.846   3.173
43804SOL     OW33308  13.949  12.268   3.746
43804SOL    HW133309  14.033  12.306   3.721
43804SOL    HW233310  13.941  12.288   3.839
43805SOL     OW33311  10.745   8.515  11.940
43805SOL    HW133312  10.666   8.568  11.933
43805SOL    HW233313  10.769   8.496  11.849
43806SOL     OW33314  11.703   1.043   9.153
43806SOL    HW133315  11.745   1.115   9.107
43806SOL    HW233316  11.637   1.085   9.208
43807SOL     OW33317  14.134   7.162  10.207
43807SOL    HW133318  14.045   7.166  10.243
43807SOL    HW233319  14.124   7.182  10.115
43808SOL     OW33320  11.438   4.254  10.446
43808SOL    HW133321  11.440   4.198  10.524
43808SOL    HW233322  11.403   4.338  10.477
43809SOL     OW33323   6.096  10.970   8.977
43809SOL    HW133324   6.093  10.961   8.882
43809SOL    HW233325   6.182  10.936   9.002
43810SOL     OW33326  10.532   9.963   9.112
43810SOL    HW133327  10.500   9.980   9.023
43810SOL    HW233328  10.627   9.970   9.105
43811SOL     OW33329   6.897  13.328   1.724
43811SOL    HW133330   6.982  13.287   1.740
43811SOL    HW233331   6.841  13.294   1.794
43812SOL     OW33332   5.824  11.404  13.341
43812SOL    HW133333   5.755  11.378  13.280
43812SOL    HW233334   5.847  11.323  13.387
43813SOL     OW33335  11.372   1.707   2.243
43813SOL    HW133336  11.389   1.753   2.326
43813SOL    HW233337  11.401   1.617   2.259
43814SOL     OW33338   2.384   7.457   7.279
43814SOL    HW133339   2.445   7.482   7.349
43814SOL    HW233340   2.422   7.495   7.200
43815SOL     OW33341   5.097   4.764   8.038
43815SOL    HW133342   5.054   4.705   7.976
43815SOL    HW233343   5.093   4.718   8.122
43816SOL     OW33344  10.066   8.217   6.444
43816SOL    HW133345  10.111   8.267   6.375
43816SOL    HW233346  10.135   8.194   6.506
43817SOL     OW33347  10.903   6.133  11.637
43817SOL    HW133348  10.918   6.039  11.645
43817SOL    HW233349  10.826   6.150  11.691
43818SOL     OW33350  12.491   8.992   4.902
43818SOL    HW133351  12.436   8.914   4.894
43818SOL    HW233352  12.438   9.053   4.955
43819SOL     OW33353   9.219   4.290   9.944
43819SOL    HW133354   9.163   4.261  10.016
43819SOL    HW233355   9.301   4.243   9.957
43820SOL     OW33356  12.006   9.418   5.719
43820SOL    HW133357  12.102   9.423   5.717
43820SOL    HW233358  11.986   9.343   5.774
43821SOL     OW33359   3.705   8.225  12.133
43821SOL    HW133360   3.749   8.309  12.140
43821SOL    HW233361   3.613   8.243  12.153
43822SOL     OW33362   3.594   0.110   8.398
43822SOL    HW133363   3.633   0.144   8.317
43822SOL    HW233364   3.578   0.188   8.451
43823SOL     OW33365   1.871  11.631   2.493
43823SOL    HW133366   1.845  11.680   2.571
43823SOL    HW233367   1.834  11.544   2.507
43824SOL     OW33368   8.951  13.745  14.151
43824SOL    HW133369   8.982  13.772  14.064
43824SOL    HW233370   9.011  13.787  14.212
43825SOL     OW33371  12.566   5.958   0.054
43825SOL    HW133372  12.523   6.038   0.082
43825SOL    HW233373  12.605   5.922   0.134
43826SOL     OW33374   3.437  13.207   3.200
43826SOL    HW133375   3.431  13.141   3.269
43826SOL    HW233376   3.359  13.262   3.212
43827SOL     OW33377  13.105   6.487   5.870
43827SOL    HW133378  13.177   6.546   5.849
43827SOL    HW233379  13.141   6.400   5.859
43828SOL     OW33380  14.006   1.925   2.329
43828SOL    HW133381  13.918   1.962   2.317
43828SOL    HW233382  14.055   1.954   2.252
43829SOL     OW33383  12.645   1.360  12.255
43829SOL    HW133384  12.698   1.439  12.248
43829SOL    HW233385  12.679   1.315  12.332
43830SOL     OW33386  11.682  14.625   9.244
43830SOL    HW133387  11.752  14.660   9.190
43830SOL    HW233388  11.724  14.557   9.297
43831SOL     OW33389   0.373   6.866   4.643
43831SOL    HW133390   0.416   6.790   4.684
43831SOL    HW233391   0.311   6.828   4.581
43832SOL     OW33392   4.246  11.994   1.831
43832SOL    HW133393   4.268  12.012   1.740
43832SOL    HW233394   4.227  12.080   1.868
43833SOL     OW33395   3.021   8.038  13.427
43833SOL    HW133396   3.087   8.020  13.359
43833SOL    HW233397   3.035   7.969  13.491
43834SOL     OW33398   8.486   9.328  11.743
43834SOL    HW133399   8.408   9.289  11.784
43834SOL    HW233400   8.556   9.265  11.760
43835SOL     OW33401   5.023   7.402   7.865
43835SOL    HW133402   4.955   7.338   7.842
43835SOL    HW233403   5.028   7.460   7.789
43836SOL     OW33404   9.402   8.023   5.416
43836SOL    HW133405   9.436   8.080   5.347
43836SOL    HW233406   9.385   7.940   5.372
43837SOL     OW33407   7.808   9.579  13.906
43837SOL    HW133408   7.767   9.576  13.820
43837SOL    HW233409   7.899   9.552  13.890
43838SOL     OW33410   7.845  11.041   9.678
43838SOL    HW133411   7.781  11.026   9.749
43838SOL    HW233412   7.909  11.101   9.716
43839SOL     OW33413  12.719   2.896   9.689
43839SOL    HW133414  12.755   2.820   9.642
43839SOL    HW233415  12.640   2.919   9.640
43840SOL     OW33416  13.927   7.814   4.629
43840SOL    HW133417  13.952   7.750   4.695
43840SOL    HW233418  14.009   7.854   4.600
43841SOL     OW33419   2.973   4.911  10.312
43841SOL    HW133420   3.000   4.962  10.388
43841SOL    HW233421   2.903   4.855  10.345
43842SOL     OW33422   7.527   5.650  12.098
43842SOL    HW133423   7.531   5.667  12.003
43842SOL    HW233424   7.476   5.723  12.133
43843SOL     OW33425  13.495   6.682   1.965
43843SOL    HW133426  13.495   6.707   2.057
43843SOL    HW233427  13.415   6.630   1.954
43844SOL     OW33428  10.673   8.479  10.795
43844SOL    HW133429  10.600   8.534  10.766
43844SOL    HW233430  10.646   8.447  10.881
43845SOL     OW33431  14.856   1.522  13.452
43845SOL    HW133432   0.017   1.458  13.396
43845SOL    HW233433   0.037   1.594  13.459
43846SOL     OW33434  14.840   8.145  14.078
43846SOL    HW133435   0.051   8.135  14.098
43846SOL    HW233436  14.838   8.174  13.987
43847SOL     OW33437   4.302   1.706  13.228
43847SOL    HW133438   4.377   1.689  13.286
43847SOL    HW233439   4.323   1.791  13.188
43848SOL     OW33440  13.624   1.234   7.462
43848SOL    HW133441  13.648   1.255   7.552
43848SOL    HW233442  13.567   1.157   7.469
43849SOL     OW33443  12.729   0.223   7.322
43849SOL    HW133444  12.645   0.267   7.309
43849SOL    HW233445  12.742   0.223   7.417
43850SOL     OW33446   8.661   4.027  11.303
43850SOL    HW133447   8.574   3.989  11.297
43850SOL    HW233448   8.649   4.118  11.276
43851SOL     OW33449   8.824  10.880  14.107
43851SOL    HW133450   8.862  10.946  14.049
43851SOL    HW233451   8.900  10.833  14.142
43852SOL     OW33452   1.199   2.148  14.751
43852SOL    HW133453   1.257   2.182  14.682
43852SOL    HW233454   1.157   2.072  14.711
43853SOL     OW33455   9.090  10.441   7.916
43853SOL    HW133456   9.063  10.464   7.827
43853SOL    HW233457   9.152  10.509   7.941
43854SOL     OW33458   1.378   5.837   2.981
43854SOL    HW133459   1.434   5.865   3.053
43854SOL    HW233460   1.335   5.918   2.951
43855SOL     OW33461  13.119  13.329  10.031
43855SOL    HW133462  13.118  13.418   9.996
43855SOL    HW233463  13.100  13.340  10.124
43856SOL     OW33464  14.353   8.773   5.382
43856SOL    HW133465  14.420   8.705   5.391
43856SOL    HW233466  14.294   8.738   5.315
43857SOL     OW33467   1.732  11.126   2.561
43857SOL    HW133468   1.740  11.123   2.466
43857SOL    HW233469   1.676  11.052   2.583
43858SOL     OW33470   1.371   7.990   9.263
43858SOL    HW133471   1.434   7.979   9.192
43858SOL    HW233472   1.305   7.923   9.247
43859SOL     OW33473  10.783   4.902   0.089
43859SOL    HW133474  10.871   4.884   0.122
43859SOL    HW233475  10.728   4.902   0.167
43860SOL     OW33476  10.444   1.002   7.730
43860SOL    HW133477  10.401   1.012   7.815
43860SOL    HW233478  10.406   1.070   7.675
43861SOL     OW33479   7.606  11.368  12.876
43861SOL    HW133480   7.610  11.463  12.884
43861SOL    HW233481   7.676  11.336  12.933
43862SOL     OW33482   7.705   6.232  13.145
43862SOL    HW133483   7.629   6.174  13.142
43862SOL    HW233484   7.718   6.259  13.054
43863SOL     OW33485   9.921  10.101   3.824
43863SOL    HW133486  10.016  10.087   3.814
43863SOL    HW233487   9.890  10.023   3.869
43864SOL     OW33488   1.345   0.384   9.454
43864SOL    HW133489   1.357   0.310   9.513
43864SOL    HW233490   1.359   0.462   9.508
43865SOL     OW33491  12.632   2.414   9.902
43865SOL    HW133492  12.555   2.381   9.949
43865SOL    HW233493  12.684   2.458   9.970
43866SOL     OW33494  14.550   2.143   3.200
43866SOL    HW133495  14.519   2.131   3.289
43866SOL    HW233496  14.515   2.229   3.174
43867SOL     OW33497  11.899   2.552   7.317
43867SOL    HW133498  11.910   2.588   7.405
43867SOL    HW233499  11.922   2.460   7.325
43868SOL     OW33500  13.633   0.478   0.370
43868SOL    HW133501  13.675   0.564   0.369
43868SOL    HW233502  13.581   0.476   0.289
43869SOL     OW33503   6.913   1.902   9.032
43869SOL    HW133504   6.843   1.892   9.096
43869SOL    HW233505   6.958   1.818   9.032
43870SOL     OW33506   6.176  11.597   7.826
43870SOL    HW133507   6.221  11.632   7.903
43870SOL    HW233508   6.194  11.503   7.829
43871SOL     OW33509  13.636  13.028  12.102
43871SOL    HW133510  13.730  13.044  12.093
43871SOL    HW233511  13.624  13.003  12.193
43872SOL     OW33512   6.240   8.534  12.130
43872SOL    HW133513   6.269   8.446  12.153
43872SOL    HW233514   6.280   8.590  12.197
43873SOL     OW33515   7.453  12.703   6.226
43873SOL    HW133516   7.418  12.699   6.136
43873SOL    HW233517   7.546  12.720   6.215
43874SOL     OW33518  13.969   4.546  12.193
43874SOL    HW133519  13.974   4.610  12.122
43874SOL    HW233520  13.904   4.482  12.164
43875SOL     OW33521  13.853   5.571   7.364
43875SOL    HW133522  13.816   5.639   7.308
43875SOL    HW233523  13.848   5.491   7.312
43876SOL     OW33524  14.167  14.094   6.826
43876SOL    HW133525  14.134  14.176   6.863
43876SOL    HW233526  14.259  14.090   6.853
43877SOL     OW33527  13.922   4.099   4.729
43877SOL    HW133528  14.002   4.062   4.765
43877SOL    HW233529  13.944   4.190   4.710
43878SOL     OW33530   8.211  11.018   9.888
43878SOL    HW133531   8.282  10.957   9.867
43878SOL    HW233532   8.242  11.064   9.965
43879SOL     OW33533  12.095   7.979   4.618
43879SOL    HW133534  12.053   8.027   4.548
43879SOL    HW233535  12.045   8.003   4.697
43880SOL     OW33536  13.986  10.091   9.188
43880SOL    HW133537  13.923  10.121   9.253
43880SOL    HW233538  13.986  10.159   9.120
43881SOL     OW33539   3.412   9.139  10.821
43881SOL    HW133540   3.474   9.212  10.819
43881SOL    HW233541   3.386   9.127  10.730
43882SOL     OW33542  13.590  11.286  13.326
43882SOL    HW133543  13.608  11.231  13.250
43882SOL    HW233544  13.656  11.356  13.321
43883SOL     OW33545   7.777   2.731   0.748
43883SOL    HW133546   7.811   2.817   0.726
43883SOL    HW233547   7.850   2.671   0.730
43884SOL     OW33548   4.317   1.688   1.848
43884SOL    HW133549   4.320   1.784   1.846
43884SOL    HW233550   4.326   1.665   1.940
43885SOL     OW33551   6.193   5.100   1.892
43885SOL    HW133552   6.229   5.175   1.844
43885SOL    HW233553   6.150   5.047   1.825
43886SOL     OW33554   5.606   8.479   8.709
43886SOL    HW133555   5.676   8.416   8.728
43886SOL    HW233556   5.537   8.427   8.667
43887SOL     OW33557  14.456   8.182   2.967
43887SOL    HW133558  14.416   8.162   3.052
43887SOL    HW233559  14.407   8.258   2.935
43888SOL     OW33560   7.745   5.961  11.268
43888SOL    HW133561   7.770   6.000  11.184
43888SOL    HW233562   7.736   6.036  11.327
43889SOL     OW33563   6.621  10.408  13.907
43889SOL    HW133564   6.660  10.492  13.928
43889SOL    HW233565   6.653  10.348  13.975
43890SOL     OW33566   6.146   1.204   1.194
43890SOL    HW133567   6.078   1.221   1.260
43890SOL    HW233568   6.118   1.255   1.118
43891SOL     OW33569   4.835   0.768   0.409
43891SOL    HW133570   4.908   0.751   0.468
43891SOL    HW233571   4.846   0.702   0.339
43892SOL     OW33572   0.549   6.295  14.845
43892SOL    HW133573   0.587   6.228   0.020
43892SOL    HW233574   0.547   6.374   0.016
43893SOL     OW33575  12.279  10.821  14.394
43893SOL    HW133576  12.329  10.840  14.315
43893SOL    HW233577  12.341  10.834  14.466
43894SOL     OW33578   1.045   6.704  10.237
43894SOL    HW133579   1.050   6.639  10.167
43894SOL    HW233580   1.107   6.672  10.303
43895SOL     OW33581  13.917   4.662   9.147
43895SOL    HW133582  13.888   4.615   9.225
43895SOL    HW233583  14.007   4.633   9.133
43896SOL     OW33584  13.167   7.157  14.254
43896SOL    HW133585  13.090   7.207  14.279
43896SOL    HW233586  13.213   7.213  14.192
43897SOL     OW33587   1.929   9.822  12.772
43897SOL    HW133588   1.975   9.738  12.776
43897SOL    HW233589   1.861   9.809  12.705
43898SOL     OW33590   2.986   6.404   1.408
43898SOL    HW133591   3.040   6.429   1.333
43898SOL    HW233592   3.027   6.323   1.441
43899SOL     OW33593   5.375  11.802   3.109
43899SOL    HW133594   5.380  11.716   3.069
43899SOL    HW233595   5.445  11.802   3.175
43900SOL     OW33596  13.725   4.492  11.412
43900SOL    HW133597  13.682   4.571  11.382
43900SOL    HW233598  13.808   4.522  11.448
43901SOL     OW33599   0.682  11.837   9.777
43901SOL    HW133600   0.741  11.841   9.853
43901SOL    HW233601   0.670  11.743   9.763
43902SOL     OW33602   0.514  10.673   0.808
43902SOL    HW133603   0.581  10.631   0.862
43902SOL    HW233604   0.448  10.703   0.871
43903SOL     OW33605   8.282  13.362   3.161
43903SOL    HW133606   8.266  13.397   3.248
43903SOL    HW233607   8.195  13.357   3.121
43904SOL     OW33608   8.346   1.372   9.869
43904SOL    HW133609   8.413   1.423   9.824
43904SOL    HW233610   8.285   1.438   9.902
43905SOL     OW33611   3.248  13.651   8.932
43905SOL    HW133612   3.190  13.717   8.893
43905SOL    HW233613   3.201  13.569   8.922
43906SOL     OW33614   2.679   0.392   1.326
43906SOL    HW133615   2.671   0.472   1.273
43906SOL    HW233616   2.614   0.333   1.289
43907SOL     OW33617  12.960   3.497  14.157
43907SOL    HW133618  12.974   3.545  14.239
43907SOL    HW233619  12.872   3.523  14.128
43908SOL     OW33620   6.417  13.101   3.098
43908SOL    HW133621   6.386  13.181   3.056
43908SOL    HW233622   6.457  13.051   3.027
43909SOL     OW33623   8.053  10.156   0.922
43909SOL    HW133624   8.137  10.111   0.927
43909SOL    HW233625   8.065  10.235   0.975
43910SOL     OW33626   6.193  13.260   4.891
43910SOL    HW133627   6.118  13.242   4.948
43910SOL    HW233628   6.241  13.177   4.888
43911SOL     OW33629  10.659   1.398  13.353
43911SOL    HW133630  10.568   1.425  13.359
43911SOL    HW233631  10.709   1.480  13.351
43912SOL     OW33632  13.541   5.675   8.104
43912SOL    HW133633  13.565   5.602   8.047
43912SOL    HW233634  13.603   5.671   8.177
43913SOL     OW33635   7.840   3.740   0.432
43913SOL    HW133636   7.856   3.800   0.505
43913SOL    HW233637   7.744   3.738   0.424
43914SOL     OW33638   0.741   2.534   9.180
43914SOL    HW133639   0.822   2.570   9.218
43914SOL    HW233640   0.768   2.500   9.094
43915SOL     OW33641   6.226  12.058   6.786
43915SOL    HW133642   6.146  12.006   6.785
43915SOL    HW233643   6.205  12.134   6.841
43916SOL     OW33644   7.892  10.895   0.505
43916SOL    HW133645   7.930  10.843   0.576
43916SOL    HW233646   7.906  10.842   0.426
43917SOL     OW33647   3.057  14.272   6.041
43917SOL    HW133648   3.135  14.277   6.096
43917SOL    HW233649   3.078  14.206   5.975
43918SOL     OW33650   4.429   3.390   5.511
43918SOL    HW133651   4.368   3.453   5.548
43918SOL    HW233652   4.470   3.436   5.438
43919SOL     OW33653   2.562   0.798   8.915
43919SOL    HW133654   2.630   0.734   8.894
43919SOL    HW233655   2.485   0.769   8.866
43920SOL     OW33656   0.801   1.976   3.835
43920SOL    HW133657   0.813   1.947   3.745
43920SOL    HW233658   0.886   2.010   3.861
43921SOL     OW33659   0.259   9.779   0.270
43921SOL    HW133660   0.322   9.765   0.199
43921SOL    HW233661   0.210   9.857   0.243
43922SOL     OW33662   1.989  11.475   1.840
43922SOL    HW133663   1.995  11.568   1.816
43922SOL    HW233664   2.025  11.471   1.929
43923SOL     OW33665   1.234   3.159   4.186
43923SOL    HW133666   1.225   3.221   4.258
43923SOL    HW233667   1.144   3.136   4.163
43924SOL     OW33668  12.848   2.223   6.796
43924SOL    HW133669  12.843   2.136   6.835
43924SOL    HW233670  12.765   2.265   6.818
43925SOL     OW33671   9.237   3.972  11.953
43925SOL    HW133672   9.319   3.937  11.921
43925SOL    HW233673   9.184   3.987  11.875
43926SOL     OW33674   3.150  10.430   4.156
43926SOL    HW133675   3.211  10.492   4.196
43926SOL    HW233676   3.063  10.465   4.178
43927SOL     OW33677   2.005   6.778  10.116
43927SOL    HW133678   2.029   6.768  10.208
43927SOL    HW233679   1.935   6.842  10.116
43928SOL     OW33680   5.327  10.097  11.301
43928SOL    HW133681   5.412  10.142  11.297
43928SOL    HW233682   5.348  10.009  11.331
43929SOL     OW33683   8.323   6.164   1.703
43929SOL    HW133684   8.298   6.186   1.614
43929SOL    HW233685   8.398   6.219   1.722
43930SOL     OW33686   2.665   0.134   3.542
43930SOL    HW133687   2.624   0.088   3.469
43930SOL    HW233688   2.702   0.065   3.596
43931SOL     OW33689   1.660   1.618  11.132
43931SOL    HW133690   1.693   1.693  11.182
43931SOL    HW233691   1.592   1.580  11.188
43932SOL     OW33692   7.258   7.216   4.348
43932SOL    HW133693   7.237   7.275   4.420
43932SOL    HW233694   7.352   7.198   4.359
43933SOL     OW33695   8.514  13.007   7.443
43933SOL    HW133696   8.526  13.096   7.411
43933SOL    HW233697   8.527  12.952   7.367
43934SOL     OW33698   1.985   0.395   3.979
43934SOL    HW133699   1.999   0.465   4.043
43934SOL    HW233700   2.033   0.423   3.901
43935SOL     OW33701   3.839  13.292  14.664
43935SOL    HW133702   3.783  13.327  14.734
43935SOL    HW233703   3.925  13.282  14.705
43936SOL     OW33704   7.830  10.009   0.494
43936SOL    HW133705   7.753  10.060   0.519
43936SOL    HW233706   7.903  10.053   0.538
43937SOL     OW33707   9.235  12.134  10.077
43937SOL    HW133708   9.175  12.119  10.150
43937SOL    HW233709   9.184  12.110   9.999
43938SOL     OW33710   0.065   4.428   2.427
43938SOL    HW133711   0.154   4.437   2.462
43938SOL    HW233712   0.056   4.334   2.411
43939SOL     OW33713  14.823  11.571   7.115
43939SOL    HW133714  14.873  11.647   7.084
43939SOL    HW233715  14.855  11.558   7.205
43940SOL     OW33716  11.453  13.557   9.922
43940SOL    HW133717  11.388  13.505   9.969
43940SOL    HW233718  11.423  13.648   9.931
43941SOL     OW33719   8.317  13.467   1.616
43941SOL    HW133720   8.258  13.412   1.667
43941SOL    HW233721   8.402  13.422   1.622
43942SOL     OW33722  13.345   0.522   8.697
43942SOL    HW133723  13.280   0.528   8.627
43942SOL    HW233724  13.373   0.431   8.696
43943SOL     OW33725  12.882  10.759  13.139
43943SOL    HW133726  12.875  10.783  13.231
43943SOL    HW233727  12.791  10.758  13.108
43944SOL     OW33728   6.121   4.810  13.514
43944SOL    HW133729   6.106   4.775  13.602
43944SOL    HW233730   6.212   4.839  13.515
43945SOL     OW33731  12.675   3.489   4.484
43945SOL    HW133732  12.765   3.510   4.509
43945SOL    HW233733  12.621   3.553   4.532
43946SOL     OW33734   1.601   3.164   6.109
43946SOL    HW133735   1.554   3.227   6.164
43946SOL    HW233736   1.533   3.110   6.070
43947SOL     OW33737   5.601   1.171  10.389
43947SOL    HW133738   5.509   1.194  10.393
43947SOL    HW233739   5.602   1.075  10.389
43948SOL     OW33740   1.531   8.065   8.049
43948SOL    HW133741   1.505   8.058   8.141
43948SOL    HW233742   1.481   7.996   8.004
43949SOL     OW33743  14.648   5.498   4.215
43949SOL    HW133744  14.561   5.537   4.206
43949SOL    HW233745  14.659   5.443   4.138
43950SOL     OW33746   7.514   1.073  14.834
43950SOL    HW133747   7.448   1.004  14.847
43950SOL    HW233748   7.520   1.116   0.037
43951SOL     OW33749   8.666   1.884   2.477
43951SOL    HW133750   8.640   1.924   2.560
43951SOL    HW233751   8.603   1.813   2.464
43952SOL     OW33752   0.376   9.469  13.619
43952SOL    HW133753   0.396   9.464  13.525
43952SOL    HW233754   0.320   9.393  13.635
43953SOL     OW33755   3.002   5.378  10.993
43953SOL    HW133756   2.914   5.342  10.984
43953SOL    HW233757   3.017   5.425  10.911
43954SOL     OW33758  11.066   5.865   9.724
43954SOL    HW133759  10.990   5.871   9.665
43954SOL    HW233760  11.137   5.835   9.667
43955SOL     OW33761   5.924   3.520   9.059
43955SOL    HW133762   5.954   3.431   9.041
43955SOL    HW233763   5.834   3.509   9.088
43956SOL     OW33764   0.543   1.439   6.727
43956SOL    HW133765   0.638   1.451   6.722
43956SOL    HW233766   0.525   1.427   6.821
43957SOL     OW33767   3.756   9.899  14.617
43957SOL    HW133768   3.832   9.955  14.631
43957SOL    HW233769   3.746   9.896  14.521
43958SOL     OW33770   5.589   4.127   8.932
43958SOL    HW133771   5.662   4.160   8.985
43958SOL    HW233772   5.553   4.206   8.890
43959SOL     OW33773  10.556   7.276  10.843
43959SOL    HW133774  10.544   7.369  10.825
43959SOL    HW233775  10.507   7.261  10.924
43960SOL     OW33776   4.424   5.529   3.361
43960SOL    HW133777   4.452   5.437   3.360
43960SOL    HW233778   4.416   5.552   3.268
43961SOL     OW33779   6.770  13.076   6.310
43961SOL    HW133780   6.690  13.066   6.257
43961SOL    HW233781   6.812  13.155   6.276
43962SOL     OW33782   9.091   0.596  12.073
43962SOL    HW133783   9.120   0.514  12.114
43962SOL    HW233784   9.152   0.662  12.107
43963SOL     OW33785   0.520  14.745   2.406
43963SOL    HW133786   0.435  14.710   2.380
43963SOL    HW233787   0.583  14.684   2.368
43964SOL     OW33788  14.701   3.369  13.461
43964SOL    HW133789  14.771   3.305  13.475
43964SOL    HW233790  14.640   3.353  13.533
43965SOL     OW33791   1.165   8.835   3.245
43965SOL    HW133792   1.159   8.897   3.172
43965SOL    HW233793   1.144   8.750   3.206
43966SOL     OW33794   6.989  10.340   8.337
43966SOL    HW133795   6.950  10.263   8.295
43966SOL    HW233796   7.076  10.312   8.363
43967SOL     OW33797   3.192   7.007   4.840
43967SOL    HW133798   3.142   6.969   4.767
43967SOL    HW233799   3.282   6.976   4.825
43968SOL     OW33800   1.220   6.198   1.550
43968SOL    HW133801   1.204   6.275   1.496
43968SOL    HW233802   1.301   6.160   1.515
43969SOL     OW33803   4.799  12.337   7.490
43969SOL    HW133804   4.792  12.317   7.397
43969SOL    HW233805   4.863  12.408   7.495
43970SOL     OW33806   9.014  14.523   6.672
43970SOL    HW133807   8.934  14.470   6.663
43970SOL    HW233808   8.982  14.612   6.690
43971SOL     OW33809  10.207   5.609   9.484
43971SOL    HW133810  10.269   5.679   9.505
43971SOL    HW233811  10.122   5.644   9.511
43972SOL     OW33812   4.304   1.949   9.519
43972SOL    HW133813   4.261   1.887   9.460
43972SOL    HW233814   4.378   1.984   9.469
43973SOL     OW33815   7.163   7.298   6.133
43973SOL    HW133816   7.160   7.250   6.050
43973SOL    HW233817   7.079   7.277   6.175
43974SOL     OW33818   3.481  13.538   1.512
43974SOL    HW133819   3.412  13.526   1.447
43974SOL    HW233820   3.484  13.633   1.527
43975SOL     OW33821   4.893  13.342   9.684
43975SOL    HW133822   4.839  13.264   9.675
43975SOL    HW233823   4.938  13.351   9.600
43976SOL     OW33824  12.969  10.348   6.022
43976SOL    HW133825  13.018  10.268   6.003
43976SOL    HW233826  12.955  10.389   5.937
43977SOL     OW33827  11.044   7.358   5.964
43977SOL    HW133828  10.952   7.383   5.971
43977SOL    HW233829  11.044   7.280   5.908
43978SOL     OW33830  14.110   0.578   6.988
43978SOL    HW133831  14.092   0.650   7.048
43978SOL    HW233832  14.097   0.615   6.901
43979SOL     OW33833  11.397   1.003   9.458
43979SOL    HW133834  11.322   1.037   9.507
43979SOL    HW233835  11.361   0.930   9.408
43980SOL     OW33836   2.976  14.753  11.768
43980SOL    HW133837   2.979  14.819  11.838
43980SOL    HW233838   2.898  14.701  11.786
43981SOL     OW33839   1.261   9.352  13.528
43981SOL    HW133840   1.238   9.328  13.439
43981SOL    HW233841   1.318   9.429  13.518
43982SOL     OW33842  10.935  11.750   1.691
43982SOL    HW133843  10.930  11.668   1.643
43982SOL    HW233844  10.905  11.816   1.629
43983SOL     OW33845   1.765  12.149  13.802
43983SOL    HW133846   1.806  12.182  13.882
43983SOL    HW233847   1.810  12.196  13.731
43984SOL     OW33848   2.016  12.657   5.755
43984SOL    HW133849   1.936  12.672   5.704
43984SOL    HW233850   2.069  12.601   5.699
43985SOL     OW33851   4.482   8.056   0.653
43985SOL    HW133852   4.499   8.130   0.595
43985SOL    HW233853   4.392   8.068   0.682
43986SOL     OW33854  10.115   6.844   4.552
43986SOL    HW133855  10.041   6.843   4.612
43986SOL    HW233856  10.167   6.920   4.578
43987SOL     OW33857  14.380  13.105   1.628
43987SOL    HW133858  14.415  13.178   1.677
43987SOL    HW233859  14.344  13.046   1.695
43988SOL     OW33860  10.806   4.028  12.512
43988SOL    HW133861  10.822   4.062  12.424
43988SOL    HW233862  10.893   4.013  12.548
43989SOL     OW33863   2.105  13.997   6.744
43989SOL    HW133864   2.100  13.903   6.761
43989SOL    HW233865   2.136  14.035   6.826
43990SOL     OW33866   0.612  11.636   4.702
43990SOL    HW133867   0.699  11.627   4.662
43990SOL    HW233868   0.565  11.557   4.675
43991SOL     OW33869  12.925  14.160  13.898
43991SOL    HW133870  12.970  14.133  13.978
43991SOL    HW233871  12.937  14.254  13.894
43992SOL     OW33872   3.342  11.210   3.819
43992SOL    HW133873   3.324  11.116   3.825
43992SOL    HW233874   3.368  11.236   3.907
43993SOL     OW33875   0.122   2.093   7.398
43993SOL    HW133876   0.143   2.042   7.320
43993SOL    HW233877   0.172   2.174   7.387
43994SOL     OW33878  13.419  12.660   1.827
43994SOL    HW133879  13.474  12.663   1.749
43994SOL    HW233880  13.478  12.679   1.900
43995SOL     OW33881   9.180   0.321  13.519
43995SOL    HW133882   9.126   0.399  13.509
43995SOL    HW233883   9.259   0.352  13.563
43996SOL     OW33884   1.592   1.048   7.202
43996SOL    HW133885   1.534   1.119   7.173
43996SOL    HW233886   1.635   1.082   7.280
43997SOL     OW33887   5.409  12.120   5.398
43997SOL    HW133888   5.351  12.045   5.388
43997SOL    HW233889   5.357  12.184   5.447
43998SOL     OW33890   9.629   3.423   2.967
43998SOL    HW133891   9.540   3.407   2.938
43998SOL    HW233892   9.653   3.507   2.927
43999SOL     OW33893   8.701   3.764  10.315
43999SOL    HW133894   8.636   3.715  10.265
43999SOL    HW233895   8.659   3.849  10.330
44000SOL     OW33896   6.623   1.322   0.781
44000SOL    HW133897   6.627   1.227   0.786
44000SOL    HW233898   6.562   1.339   0.709
44001SOL     OW33899  10.940  10.943   7.040
44001SOL    HW133900  10.868  10.896   6.997
44001SOL    HW233901  11.016  10.886   7.028
44002SOL     OW33902  11.668  11.150  10.463
44002SOL    HW133903  11.760  11.128  10.447
44002SOL    HW233904  11.647  11.214  10.395
44003SOL     OW33905   5.817  14.016   7.083
44003SOL    HW133906   5.869  13.954   7.033
44003SOL    HW233907   5.729  13.977   7.086
44004SOL     OW33908   1.197   8.592   6.404
44004SOL    HW133909   1.250   8.514   6.417
44004SOL    HW233910   1.168   8.587   6.313
44005SOL     OW33911   1.263   7.990  11.169
44005SOL    HW133912   1.206   8.065  11.151
44005SOL    HW233913   1.299   8.008  11.256
44006SOL     OW33914   2.282   0.591   5.404
44006SOL    HW133915   2.327   0.507   5.398
44006SOL    HW233916   2.288   0.615   5.497
44007SOL     OW33917  10.279  11.318   3.699
44007SOL    HW133918  10.332  11.323   3.620
44007SOL    HW233919  10.278  11.407   3.734
44008SOL     OW33920   1.009  13.602   1.325
44008SOL    HW133921   1.062  13.648   1.390
44008SOL    HW233922   0.962  13.672   1.279
44009SOL     OW33923  12.748   0.820  10.040
44009SOL    HW133924  12.729   0.902   9.995
44009SOL    HW233925  12.811   0.775   9.983
44010SOL     OW33926   2.913   5.023   4.287
44010SOL    HW133927   2.874   4.950   4.240
44010SOL    HW233928   2.889   5.009   4.378
44011SOL     OW33929   1.070   7.374   0.602
44011SOL    HW133930   0.975   7.368   0.593
44011SOL    HW233931   1.103   7.364   0.513
44012SOL     OW33932   1.859  14.537   2.797
44012SOL    HW133933   1.943  14.494   2.782
44012SOL    HW233934   1.871  14.583   2.880
44013SOL     OW33935   2.992   1.187   1.731
44013SOL    HW133936   3.063   1.218   1.675
44013SOL    HW233937   2.925   1.156   1.669
44014SOL     OW33938  14.552  11.609  14.248
44014SOL    HW133939  14.615  11.626  14.178
44014SOL    HW233940  14.606  11.591  14.325
44015SOL     OW33941  11.194   3.321   0.118
44015SOL    HW133942  11.154   3.407   0.118
44015SOL    HW233943  11.187   3.292   0.026
44016SOL     OW33944   5.327   6.498  12.543
44016SOL    HW133945   5.264   6.426  12.542
44016SOL    HW233946   5.293   6.560  12.478
44017SOL     OW33947  14.396   8.366   2.621
44017SOL    HW133948  14.348   8.388   2.701
44017SOL    HW233949  14.429   8.450   2.589
44018SOL     OW33950   9.214   7.185   1.240
44018SOL    HW133951   9.222   7.095   1.272
44018SOL    HW233952   9.295   7.228   1.269
44019SOL     OW33953   1.369  14.347  13.966
44019SOL    HW133954   1.375  14.407  14.040
44019SOL    HW233955   1.279  14.315  13.968
44020SOL     OW33956   8.280   4.232  10.288
44020SOL    HW133957   8.364   4.214  10.244
44020SOL    HW233958   8.305   4.265  10.374
44021SOL     OW33959  10.977   2.276   0.982
44021SOL    HW133960  10.977   2.344   1.050
44021SOL    HW233961  10.957   2.195   1.029
44022SOL     OW33962  11.379   3.324   1.015
44022SOL    HW133963  11.314   3.350   1.081
44022SOL    HW233964  11.332   3.329   0.932
44023SOL     OW33965   9.695   3.506   8.094
44023SOL    HW133966   9.713   3.570   8.162
44023SOL    HW233967   9.664   3.558   8.019
44024SOL     OW33968   4.414   9.168   6.797
44024SOL    HW133969   4.461   9.223   6.735
44024SOL    HW233970   4.481   9.108   6.832
44025SOL     OW33971   5.611   0.335   0.831
44025SOL    HW133972   5.603   0.241   0.819
44025SOL    HW233973   5.678   0.345   0.899
44026SOL     OW33974   6.007   2.248   2.644
44026SOL    HW133975   6.078   2.230   2.582
44026SOL    HW233976   6.024   2.338   2.674
44027SOL     OW33977   3.923   9.148  13.205
44027SOL    HW133978   3.857   9.119  13.142
44027SOL    HW233979   4.000   9.167  13.152
44028SOL     OW33980   1.201  11.128   0.354
44028SOL    HW133981   1.286  11.110   0.314
44028SOL    HW233982   1.222  11.163   0.441
44029SOL     OW33983   5.508   1.235   6.817
44029SOL    HW133984   5.537   1.240   6.726
44029SOL    HW233985   5.575   1.281   6.867
44030SOL     OW33986   4.569  13.933   5.509
44030SOL    HW133987   4.536  13.897   5.427
44030SOL    HW233988   4.573  13.858   5.569
44031SOL     OW33989   5.713   9.944  12.990
44031SOL    HW133990   5.759  10.013  12.943
44031SOL    HW233991   5.644   9.988  13.038
44032SOL     OW33992   2.112   9.688   3.385
44032SOL    HW133993   2.166   9.628   3.332
44032SOL    HW233994   2.023   9.655   3.374
44033SOL     OW33995  11.614   9.404   6.416
44033SOL    HW133996  11.690   9.398   6.475
44033SOL    HW233997  11.603   9.498   6.401
44034SOL     OW33998   1.767   9.429  12.299
44034SOL    HW133999   1.763   9.444  12.205
44034SOL    HW234000   1.706   9.357  12.315
44035SOL     OW34001   9.024   8.009   6.988
44035SOL    HW134002   8.929   7.996   6.994
44035SOL    HW234003   9.043   8.068   7.061
44036SOL     OW34004   0.494  10.445   5.262
44036SOL    HW134005   0.436  10.408   5.329
44036SOL    HW234006   0.519  10.369   5.208
44037SOL     OW34007  12.527  14.488   5.401
44037SOL    HW134008  12.543  14.501   5.308
44037SOL    HW234009  12.511  14.576   5.435
44038SOL     OW34010   7.345   2.306  14.511
44038SOL    HW134011   7.372   2.331  14.423
44038SOL    HW234012   7.358   2.211  14.514
44039SOL     OW34013   1.254   3.542   6.391
44039SOL    HW134014   1.211   3.601   6.330
44039SOL    HW234015   1.280   3.598   6.464
44040SOL     OW34016  10.021  11.746   6.015
44040SOL    HW134017   9.997  11.707   5.931
44040SOL    HW234018   9.987  11.686   6.080
44041SOL     OW34019   7.792   2.760  10.800
44041SOL    HW134020   7.849   2.693  10.837
44041SOL    HW234021   7.832   2.782  10.716
44042SOL     OW34022  11.666   7.261   8.219
44042SOL    HW134023  11.600   7.225   8.160
44042SOL    HW234024  11.631   7.243   8.307
44043SOL     OW34025  11.317   0.887   0.244
44043SOL    HW134026  11.382   0.947   0.281
44043SOL    HW234027  11.308   0.818   0.309
44044SOL     OW34028   0.446  13.827   0.045
44044SOL    HW134029   0.397  13.881   0.107
44044SOL    HW234030   0.409  13.739   0.055
44045SOL     OW34031  11.337  14.675  11.483
44045SOL    HW134032  11.403  14.744  11.477
44045SOL    HW234033  11.256  14.720  11.507
44046SOL     OW34034   2.778  14.794   9.027
44046SOL    HW134035   2.837  14.855   9.071
44046SOL    HW234036   2.690  14.825   9.048
44047SOL     OW34037  11.288   5.752   0.250
44047SOL    HW134038  11.288   5.673   0.303
44047SOL    HW234039  11.199   5.786   0.257
44048SOL     OW34040   5.916   7.521   0.947
44048SOL    HW134041   5.963   7.590   0.901
44048SOL    HW234042   5.853   7.488   0.883
44049SOL     OW34043   1.707   1.296   0.990
44049SOL    HW134044   1.736   1.349   1.065
44049SOL    HW234045   1.620   1.329   0.970
44050SOL     OW34046   0.790  11.883   7.687
44050SOL    HW134047   0.733  11.886   7.610
44050SOL    HW234048   0.731  11.869   7.761
44051SOL     OW34049   5.266   4.820  13.491
44051SOL    HW134050   5.244   4.860  13.407
44051SOL    HW234051   5.266   4.893  13.553
44052SOL     OW34052  12.051   1.866   3.284
44052SOL    HW134053  11.967   1.911   3.285
44052SOL    HW234054  12.094   1.893   3.366
44053SOL     OW34055  12.522   1.592   5.251
44053SOL    HW134056  12.470   1.535   5.307
44053SOL    HW234057  12.456   1.642   5.201
44054SOL     OW34058   1.881   5.249  11.215
44054SOL    HW134059   1.900   5.157  11.235
44054SOL    HW234060   1.787   5.249  11.195
44055SOL     OW34061  13.236   2.103   8.138
44055SOL    HW134062  13.237   2.151   8.220
44055SOL    HW234063  13.297   2.151   8.081
44056SOL     OW34064   1.039  10.156  12.853
44056SOL    HW134065   0.982  10.224  12.891
44056SOL    HW234066   1.060  10.099  12.927
44057SOL     OW34067   9.803   9.477   1.668
44057SOL    HW134068   9.802   9.566   1.703
44057SOL    HW234069   9.745   9.480   1.593
44058SOL     OW34070   0.533   0.078   9.114
44058SOL    HW134071   0.599   0.100   9.048
44058SOL    HW234072   0.541  14.865   9.124
44059SOL     OW34073  12.583   3.118  11.604
44059SOL    HW134074  12.607   3.195  11.551
44059SOL    HW234075  12.488   3.111  11.595
44060SOL     OW34076   6.759   1.774   8.823
44060SOL    HW134077   6.759   1.849   8.882
44060SOL    HW234078   6.708   1.707   8.867
44061SOL     OW34079   2.601   2.605   5.683
44061SOL    HW134080   2.516   2.595   5.726
44061SOL    HW234081   2.658   2.543   5.728
44062SOL     OW34082   1.218  10.443   4.749
44062SOL    HW134083   1.259  10.494   4.680
44062SOL    HW234084   1.260  10.357   4.745
44063SOL     OW34085   8.064   5.593   9.741
44063SOL    HW134086   8.065   5.667   9.801
44063SOL    HW234087   8.146   5.546   9.759
44064SOL     OW34088  12.689  11.727   0.512
44064SOL    HW134089  12.723  11.680   0.588
44064SOL    HW234090  12.627  11.791   0.548
44065SOL     OW34091  13.172   4.663  13.971
44065SOL    HW134092  13.241   4.725  13.947
44065SOL    HW234093  13.095   4.693  13.923
44066SOL     OW34094  13.218  13.489   4.242
44066SOL    HW134095  13.268  13.536   4.308
44066SOL    HW234096  13.143  13.452   4.290
44067SOL     OW34097  11.708  11.160   3.007
44067SOL    HW134098  11.737  11.237   2.958
44067SOL    HW234099  11.642  11.195   3.067
44068SOL     OW34100   4.779   5.691   6.418
44068SOL    HW134101   4.803   5.630   6.348
44068SOL    HW234102   4.837   5.766   6.405
44069SOL     OW34103   5.121  14.811  13.227
44069SOL    HW134104   5.134   0.021  13.250
44069SOL    HW234105   5.185  14.764  13.282
44070SOL     OW34106   9.307   7.832   0.949
44070SOL    HW134107   9.365   7.868   0.882
44070SOL    HW234108   9.360   7.766   0.994
44071SOL     OW34109   9.506   5.370   6.262
44071SOL    HW134110   9.546   5.310   6.200
44071SOL    HW234111   9.521   5.329   6.347
44072SOL     OW34112  12.766   6.118   8.328
44072SOL    HW134113  12.730   6.061   8.261
44072SOL    HW234114  12.689   6.159   8.368
44073SOL     OW34115  13.439  12.747   4.104
44073SOL    HW134116  13.394  12.663   4.106
44073SOL    HW234117  13.389  12.799   4.041
44074SOL     OW34118   9.672   0.863   4.555
44074SOL    HW134119   9.733   0.882   4.484
44074SOL    HW234120   9.661   0.947   4.601
44075SOL     OW34121   2.559  10.158   6.470
44075SOL    HW134122   2.504  10.156   6.391
44075SOL    HW234123   2.505  10.116   6.537
44076SOL     OW34124   2.388   3.577   2.449
44076SOL    HW134125   2.324   3.545   2.385
44076SOL    HW234126   2.444   3.637   2.399
44077SOL     OW34127   0.882   9.186  11.503
44077SOL    HW134128   0.902   9.151  11.590
44077SOL    HW234129   0.842   9.271  11.519
44078SOL     OW34130   2.354  13.589  12.521
44078SOL    HW134131   2.363  13.608  12.428
44078SOL    HW234132   2.411  13.653  12.564
44079SOL     OW34133   7.045   1.862   9.316
44079SOL    HW134134   7.115   1.798   9.330
44079SOL    HW234135   7.075   1.914   9.242
44080SOL     OW34136   4.185   2.601  10.943
44080SOL    HW134137   4.232   2.518  10.935
44080SOL    HW234138   4.197   2.627  11.035
44081SOL     OW34139   9.200   9.608  10.355
44081SOL    HW134140   9.145   9.539  10.394
44081SOL    HW234141   9.139   9.661  10.304
44082SOL     OW34142   7.288   7.177   3.550
44082SOL    HW134143   7.321   7.259   3.587
44082SOL    HW234144   7.277   7.194   3.457
44083SOL     OW34145   8.830   4.966  12.953
44083SOL    HW134146   8.912   4.975  13.002
44083SOL    HW234147   8.762   4.984  13.017
44084SOL     OW34148   0.401  11.435   1.392
44084SOL    HW134149   0.477  11.377   1.399
44084SOL    HW234150   0.328  11.377   1.372
44085SOL     OW34151   3.442   9.398  10.286
44085SOL    HW134152   3.473   9.331  10.346
44085SOL    HW234153   3.510   9.464  10.286
44086SOL     OW34154   5.000   9.512  14.227
44086SOL    HW134155   5.021   9.576  14.159
44086SOL    HW234156   5.041   9.547  14.306
44087SOL     OW34157   0.529   4.927   7.333
44087SOL    HW134158   0.465   4.995   7.352
44087SOL    HW234159   0.534   4.926   7.237
44088SOL     OW34160   2.973   3.720   0.638
44088SOL    HW134161   3.021   3.769   0.705
44088SOL    HW234162   3.041   3.680   0.583
44089SOL     OW34163   4.858   8.638   7.895
44089SOL    HW134164   4.855   8.542   7.895
44089SOL    HW234165   4.825   8.664   7.809
44090SOL     OW34166   7.709   6.843  13.939
44090SOL    HW134167   7.778   6.898  13.975
44090SOL    HW234168   7.627   6.886  13.966
44091SOL     OW34169   7.035  10.989  11.521
44091SOL    HW134170   6.944  11.012  11.538
44091SOL    HW234171   7.086  11.059  11.561
44092SOL     OW34172   7.805  10.652   5.809
44092SOL    HW134173   7.862  10.582   5.841
44092SOL    HW234174   7.731  10.605   5.770
44093SOL     OW34175   3.428  10.121  14.505
44093SOL    HW134176   3.466  10.204  14.535
44093SOL    HW234177   3.494  10.085  14.445
44094SOL     OW34178   8.001   8.599   6.650
44094SOL    HW134179   7.973   8.571   6.562
44094SOL    HW234180   7.997   8.518   6.702
44095SOL     OW34181   9.311   3.362   6.091
44095SOL    HW134182   9.321   3.432   6.156
44095SOL    HW234183   9.217   3.343   6.092
44096SOL     OW34184  10.655   9.010   6.077
44096SOL    HW134185  10.715   9.078   6.108
44096SOL    HW234186  10.699   8.928   6.096
44097SOL     OW34187   7.974   2.251   3.695
44097SOL    HW134188   7.978   2.156   3.691
44097SOL    HW234189   8.028   2.281   3.622
44098SOL     OW34190   3.832  14.636  11.612
44098SOL    HW134191   3.758  14.595  11.657
44098SOL    HW234192   3.890  14.664  11.683
44099SOL     OW34193  12.168   3.944  12.452
44099SOL    HW134194  12.246   3.888  12.451
44099SOL    HW234195  12.169   3.984  12.539
44100SOL     OW34196  11.674   3.471   0.587
44100SOL    HW134197  11.721   3.446   0.508
44100SOL    HW234198  11.741   3.480   0.654
44101SOL     OW34199   7.742   5.305   7.978
44101SOL    HW134200   7.787   5.378   8.021
44101SOL    HW234201   7.715   5.247   8.049
44102SOL     OW34202   4.951  10.641   6.100
44102SOL    HW134203   4.924  10.621   6.011
44102SOL    HW234204   4.879  10.693   6.137
44103SOL     OW34205   0.911  13.980   5.541
44103SOL    HW134206   0.910  13.884   5.544
44103SOL    HW234207   0.822  14.004   5.514
44104SOL     OW34208   3.458   5.594  13.402
44104SOL    HW134209   3.462   5.540  13.481
44104SOL    HW234210   3.371   5.633  13.403
44105SOL     OW34211  11.103   2.545  10.329
44105SOL    HW134212  11.052   2.547  10.248
44105SOL    HW234213  11.191   2.520  10.302
44106SOL     OW34214   6.704   4.539  14.810
44106SOL    HW134215   6.788   4.550  14.854
44106SOL    HW234216   6.676   4.628  14.789
44107SOL     OW34217  10.378   7.532   7.242
44107SOL    HW134218  10.339   7.467   7.301
44107SOL    HW234219  10.390   7.485   7.160
44108SOL     OW34220  11.835  10.355   5.831
44108SOL    HW134221  11.769  10.424   5.835
44108SOL    HW234222  11.797  10.283   5.881
44109SOL     OW34223   0.563   5.475   6.803
44109SOL    HW134224   0.527   5.515   6.725
44109SOL    HW234225   0.535   5.384   6.800
44110SOL     OW34226   3.806   1.585  11.257
44110SOL    HW134227   3.785   1.602  11.166
44110SOL    HW234228   3.797   1.669  11.301
44111SOL     OW34229   0.821  13.296   0.492
44111SOL    HW134230   0.874  13.216   0.493
44111SOL    HW234231   0.765  13.286   0.415
44112SOL     OW34232  13.962   9.960  12.298
44112SOL    HW134233  13.969   9.894  12.229
44112SOL    HW234234  13.932  10.038  12.252
44113SOL     OW34235  10.589   5.796   9.933
44113SOL    HW134236  10.532   5.840   9.996
44113SOL    HW234237  10.663   5.855   9.923
44114SOL     OW34238   7.711   8.224  10.321
44114SOL    HW134239   7.731   8.158  10.388
44114SOL    HW234240   7.645   8.183  10.265
44115SOL     OW34241   0.266   4.914   5.335
44115SOL    HW134242   0.177   4.891   5.310
44115SOL    HW234243   0.306   4.947   5.254
44116SOL     OW34244   0.425  10.491  11.296
44116SOL    HW134245   0.491  10.424  11.279
44116SOL    HW234246   0.347  10.442  11.322
44117SOL     OW34247   4.802   3.893   2.697
44117SOL    HW134248   4.735   3.923   2.635
44117SOL    HW234249   4.795   3.954   2.771
44118SOL     OW34250   8.926   6.581   3.960
44118SOL    HW134251   8.881   6.613   4.038
44118SOL    HW234252   8.988   6.516   3.993
44119SOL     OW34253   4.420   9.698   6.185
44119SOL    HW134254   4.336   9.696   6.231
44119SOL    HW234255   4.419   9.782   6.139
44120SOL     OW34256  14.218   0.075   3.329
44120SOL    HW134257  14.180   0.032   3.406
44120SOL    HW234258  14.187   0.023   3.255
44121SOL     OW34259  13.934   2.104   8.087
44121SOL    HW134260  13.910   2.166   8.156
44121SOL    HW234261  14.030   2.106   8.086
44122SOL     OW34262  12.614   8.299   9.054
44122SOL    HW134263  12.593   8.258   8.970
44122SOL    HW234264  12.694   8.254   9.084
44123SOL     OW34265  11.014   9.082  10.763
44123SOL    HW134266  10.979   9.172  10.766
44123SOL    HW234267  10.947   9.032  10.716
44124SOL     OW34268   9.078   6.672   3.452
44124SOL    HW134269   9.080   6.661   3.547
44124SOL    HW234270   9.016   6.744   3.437
44125SOL     OW34271  13.313  12.228  13.925
44125SOL    HW134272  13.404  12.256  13.936
44125SOL    HW234273  13.286  12.265  13.842
44126SOL     OW34274   5.085  11.458   5.834
44126SOL    HW134275   5.082  11.520   5.907
44126SOL    HW234276   5.177  11.456   5.807
44127SOL     OW34277   3.996   6.060  14.108
44127SOL    HW134278   4.025   6.114  14.035
44127SOL    HW234279   4.044   5.978  14.098
44128SOL     OW34280   7.429   4.412  12.232
44128SOL    HW134281   7.443   4.409  12.327
44128SOL    HW234282   7.504   4.365  12.195
44129SOL     OW34283   9.905   0.406  13.214
44129SOL    HW134284   9.951   0.433  13.293
44129SOL    HW234285   9.828   0.359  13.246
44130SOL     OW34286   3.018  13.484   9.680
44130SOL    HW134287   2.932  13.487   9.639
44130SOL    HW234288   3.021  13.561   9.736
44131SOL     OW34289   9.144   2.756  12.747
44131SOL    HW134290   9.073   2.738  12.807
44131SOL    HW234291   9.224   2.743  12.798
44132SOL     OW34292  10.424   4.778  14.091
44132SOL    HW134293  10.413   4.873  14.099
44132SOL    HW234294  10.447   4.749  14.180
44133SOL     OW34295   0.369   8.393   8.524
44133SOL    HW134296   0.323   8.445   8.458
44133SOL    HW234297   0.456   8.432   8.529
44134SOL     OW34298   0.426   1.595   5.222
44134SOL    HW134299   0.410   1.659   5.290
44134SOL    HW234300   0.517   1.611   5.195
44135SOL     OW34301  13.158   7.347  13.939
44135SOL    HW134302  13.212   7.349  13.860
44135SOL    HW234303  13.221   7.340  14.011
44136SOL     OW34304   7.155   8.799  14.155
44136SOL    HW134305   7.134   8.705  14.160
44136SOL    HW234306   7.076   8.839  14.120
44137SOL     OW34307   0.141   3.858   3.271
44137SOL    HW134308   0.075   3.789   3.283
44137SOL    HW234309   0.093   3.940   3.281
44138SOL     OW34310   6.139   2.574  10.798
44138SOL    HW134311   6.112   2.484  10.778
44138SOL    HW234312   6.111   2.588  10.888
44139SOL     OW34313  12.717  11.051   3.636
44139SOL    HW134314  12.628  11.046   3.669
44139SOL    HW234315  12.765  10.985   3.687
44140SOL     OW34316  13.169   7.098   5.541
44140SOL    HW134317  13.091   7.154   5.536
44140SOL    HW234318  13.210   7.106   5.455
44141SOL     OW34319   8.326  14.224   7.151
44141SOL    HW134320   8.293  14.145   7.193
44141SOL    HW234321   8.262  14.243   7.083
44142SOL     OW34322  13.166   8.559   4.967
44142SOL    HW134323  13.203   8.547   5.054
44142SOL    HW234324  13.100   8.628   4.978
44143SOL     OW34325   2.195   2.153  14.352
44143SOL    HW134326   2.249   2.218  14.397
44143SOL    HW234327   2.221   2.161  14.260
44144SOL     OW34328   3.052   6.442  14.849
44144SOL    HW134329   3.110   6.412   0.037
44144SOL    HW234330   3.092   6.408  14.769
44145SOL     OW34331  12.558   4.452   2.366
44145SOL    HW134332  12.569   4.386   2.434
44145SOL    HW234333  12.463   4.464   2.360
44146SOL     OW34334   5.844  11.980   2.253
44146SOL    HW134335   5.920  12.017   2.208
44146SOL    HW234336   5.786  12.054   2.268
44147SOL     OW34337  13.964   7.432   4.151
44147SOL    HW134338  13.939   7.515   4.193
44147SOL    HW234339  14.021   7.459   4.078
44148SOL     OW34340   2.664  12.542   5.524
44148SOL    HW134341   2.576  12.574   5.500
44148SOL    HW234342   2.655  12.515   5.616
44149SOL     OW34343  14.051   0.929   8.599
44149SOL    HW134344  14.037   0.922   8.694
44149SOL    HW234345  14.101   0.850   8.577
44150SOL     OW34346  12.792   7.301  12.046
44150SOL    HW134347  12.880   7.319  12.080
44150SOL    HW234348  12.791   7.207  12.029
44151SOL     OW34349   1.222   6.444   6.760
44151SOL    HW134350   1.222   6.535   6.729
44151SOL    HW234351   1.286   6.400   6.704
44152SOL     OW34352   1.589   7.072   2.489
44152SOL    HW134353   1.599   7.161   2.455
44152SOL    HW234354   1.495   7.056   2.486
44153SOL     OW34355   9.154   1.280  14.109
44153SOL    HW134356   9.188   1.192  14.092
44153SOL    HW234357   9.191   1.304  14.194
44154SOL     OW34358  14.841   3.675  13.441
44154SOL    HW134359  14.833   3.596  13.494
44154SOL    HW234360  14.875   3.741  13.501
44155SOL     OW34361   0.304   1.789   1.468
44155SOL    HW134362   0.280   1.880   1.486
44155SOL    HW234363   0.339   1.757   1.552
44156SOL     OW34364  14.061   5.777  10.091
44156SOL    HW134365  13.985   5.797  10.146
44156SOL    HW234366  14.126   5.740  10.152
44157SOL     OW34367   9.658   0.586   1.254
44157SOL    HW134368   9.577   0.540   1.277
44157SOL    HW234369   9.647   0.674   1.290
44158SOL     OW34370  14.300   6.331   0.954
44158SOL    HW134371  14.305   6.240   0.926
44158SOL    HW234372  14.280   6.380   0.874
44159SOL     OW34373  13.257   9.265   3.707
44159SOL    HW134374  13.207   9.201   3.759
44159SOL    HW234375  13.327   9.213   3.667
44160SOL     OW34376   9.488  12.930  13.605
44160SOL    HW134377   9.534  12.859  13.561
44160SOL    HW234378   9.457  12.890  13.687
44161SOL     OW34379   7.940   9.793   5.666
44161SOL    HW134380   7.917   9.885   5.653
44161SOL    HW234381   7.867   9.757   5.716
44162SOL     OW34382   3.143  10.714   5.971
44162SOL    HW134383   3.110  10.800   5.997
44162SOL    HW234384   3.193  10.684   6.047
44163SOL     OW34385   9.029   2.184  10.917
44163SOL    HW134386   8.956   2.189  10.855
44163SOL    HW234387   9.002   2.119  10.982
44164SOL     OW34388  13.875   6.152   8.131
44164SOL    HW134389  13.911   6.098   8.061
44164SOL    HW234390  13.950   6.167   8.190
44165SOL     OW34391  14.008   8.500   5.606
44165SOL    HW134392  14.079   8.436   5.611
44165SOL    HW234393  13.934   8.451   5.570
44166SOL     OW34394   1.496  13.839   3.713
44166SOL    HW134395   1.454  13.829   3.628
44166SOL    HW234396   1.507  13.749   3.745
44167SOL     OW34397   8.851   4.197  10.978
44167SOL    HW134398   8.906   4.257  11.029
44167SOL    HW234399   8.906   4.121  10.962
44168SOL     OW34400   4.904   7.894   7.316
44168SOL    HW134401   4.942   7.965   7.265
44168SOL    HW234402   4.979   7.851   7.357
44169SOL     OW34403   6.387   1.486   8.839
44169SOL    HW134404   6.349   1.519   8.921
44169SOL    HW234405   6.326   1.515   8.771
44170SOL     OW34406   7.587   8.135   2.516
44170SOL    HW134407   7.661   8.112   2.573
44170SOL    HW234408   7.583   8.062   2.453
44171SOL     OW34409   5.711   5.355  13.395
44171SOL    HW134410   5.772   5.327  13.327
44171SOL    HW234411   5.625   5.347  13.354
44172SOL     OW34412   0.705   9.830   2.545
44172SOL    HW134413   0.733   9.863   2.630
44172SOL    HW234414   0.730   9.737   2.546
44173SOL     OW34415  10.489   3.935   2.150
44173SOL    HW134416  10.499   3.963   2.241
44173SOL    HW234417  10.573   3.895   2.127
44174SOL     OW34418  13.030   6.035   6.694
44174SOL    HW134419  12.952   5.981   6.704
44174SOL    HW234420  13.010   6.114   6.744
44175SOL     OW34421   7.519  13.375   7.365
44175SOL    HW134422   7.433  13.400   7.331
44175SOL    HW234423   7.512  13.389   7.459
44176SOL     OW34424   3.861   1.553   4.024
44176SOL    HW134425   3.866   1.586   4.114
44176SOL    HW234426   3.826   1.627   3.973
44177SOL     OW34427   6.574   9.167   6.630
44177SOL    HW134428   6.573   9.165   6.726
44177SOL    HW234429   6.482   9.164   6.604
44178SOL     OW34430   1.049   5.595  11.587
44178SOL    HW134431   1.037   5.620  11.679
44178SOL    HW234432   1.069   5.678  11.543
44179SOL     OW34433  12.805   1.913  11.942
44179SOL    HW134434  12.892   1.886  11.913
44179SOL    HW234435  12.763   1.946  11.863
44180SOL     OW34436   7.779   7.719   5.081
44180SOL    HW134437   7.732   7.801   5.095
44180SOL    HW234438   7.871   7.745   5.079
44181SOL     OW34439   6.302  10.006   6.244
44181SOL    HW134440   6.240   9.981   6.175
44181SOL    HW234441   6.269  10.091   6.275
44182SOL     OW34442   9.400   1.579  12.364
44182SOL    HW134443   9.330   1.638  12.338
44182SOL    HW234444   9.464   1.586  12.293
44183SOL     OW34445   6.170  11.432   4.769
44183SOL    HW134446   6.115  11.508   4.748
44183SOL    HW234447   6.139  11.405   4.855
44184SOL     OW34448  11.368  11.746   0.913
44184SOL    HW134449  11.294  11.701   0.872
44184SOL    HW234450  11.332  11.778   0.996
44185SOL     OW34451   8.068   8.678   4.636
44185SOL    HW134452   8.024   8.705   4.716
44185SOL    HW234453   8.142   8.737   4.627
44186SOL     OW34454  11.997  10.210   3.324
44186SOL    HW134455  11.972  10.171   3.240
44186SOL    HW234456  12.081  10.169   3.346
44187SOL     OW34457   9.001   8.875   5.212
44187SOL    HW134458   8.979   8.935   5.284
44187SOL    HW234459   9.027   8.794   5.255
44188SOL     OW34460  10.266  12.532   7.084
44188SOL    HW134461  10.216  12.502   7.160
44188SOL    HW234462  10.216  12.499   7.008
44189SOL     OW34463   6.126   3.712   1.655
44189SOL    HW134464   6.095   3.624   1.636
44189SOL    HW234465   6.162   3.706   1.743
44190SOL     OW34466   7.654  12.669   5.868
44190SOL    HW134467   7.575  12.722   5.875
44190SOL    HW234468   7.682  12.678   5.777
44191SOL     OW34469  12.986   4.742  11.874
44191SOL    HW134470  12.907   4.692  11.855
44191SOL    HW234471  13.002   4.728  11.967
44192SOL     OW34472   0.603   5.097  11.828
44192SOL    HW134473   0.599   5.031  11.759
44192SOL    HW234474   0.671   5.066  11.888
44193SOL     OW34475  11.720  10.938   4.075
44193SOL    HW134476  11.796  10.987   4.106
44193SOL    HW234477  11.750  10.895   3.995
44194SOL     OW34478  10.799   9.379   2.306
44194SOL    HW134479  10.719   9.425   2.330
44194SOL    HW234480  10.792   9.365   2.212
44195SOL     OW34481  10.246   4.135   1.635
44195SOL    HW134482  10.290   4.181   1.563
44195SOL    HW234483  10.168   4.187   1.652
44196SOL     OW34484  14.302   3.557   8.481
44196SOL    HW134485  14.288   3.482   8.538
44196SOL    HW234486  14.221   3.563   8.429
44197SOL     OW34487   7.346   2.102   2.530
44197SOL    HW134488   7.363   2.177   2.473
44197SOL    HW234489   7.430   2.082   2.571
44198SOL     OW34490  12.026   8.510   7.468
44198SOL    HW134491  12.041   8.604   7.478
44198SOL    HW234492  12.109   8.475   7.436
44199SOL     OW34493   4.896  10.916   7.044
44199SOL    HW134494   4.839  10.845   7.073
44199SOL    HW234495   4.889  10.915   6.948
44200SOL     OW34496  12.271   9.762   4.504
44200SOL    HW134497  12.365   9.766   4.525
44200SOL    HW234498  12.243   9.853   4.501
44201SOL     OW34499   4.423   4.977   9.667
44201SOL    HW134500   4.334   4.972   9.703
44201SOL    HW234501   4.445   4.886   9.647
44202SOL     OW34502  14.775  14.310   1.267
44202SOL    HW134503  14.789  14.248   1.339
44202SOL    HW234504  14.826  14.274   1.195
44203SOL     OW34505   2.806   9.933   5.163
44203SOL    HW134506   2.794   9.922   5.257
44203SOL    HW234507   2.901   9.927   5.150
44204SOL     OW34508  13.164  11.189  12.982
44204SOL    HW134509  13.084  11.236  13.007
44204SOL    HW234510  13.184  11.221  12.895
44205SOL     OW34511  12.360   8.056   1.285
44205SOL    HW134512  12.326   8.065   1.374
44205SOL    HW234513  12.425   7.986   1.290
44206SOL     OW34514   2.823  13.778   9.988
44206SOL    HW134515   2.873  13.844   9.940
44206SOL    HW234516   2.735  13.815   9.995
44207SOL     OW34517   2.433   0.081   5.438
44207SOL    HW134518   2.412   0.171   5.461
44207SOL    HW234519   2.404   0.029   5.513
44208SOL     OW34520  12.261   5.664   5.575
44208SOL    HW134521  12.167   5.676   5.565
44208SOL    HW234522  12.274   5.653   5.669
44209SOL     OW34523  10.951   1.642  12.251
44209SOL    HW134524  10.908   1.619  12.169
44209SOL    HW234525  10.883   1.629  12.318
44210SOL     OW34526   5.259   8.843   1.512
44210SOL    HW134527   5.246   8.802   1.426
44210SOL    HW234528   5.310   8.780   1.562
44211SOL     OW34529   5.475   4.598   1.336
44211SOL    HW134530   5.391   4.564   1.366
44211SOL    HW234531   5.451   4.661   1.267
44212SOL     OW34532   4.152   9.840   0.262
44212SOL    HW134533   4.116   9.809   0.345
44212SOL    HW234534   4.184   9.761   0.218
44213SOL     OW34535   0.285  13.662   2.948
44213SOL    HW134536   0.346  13.713   3.001
44213SOL    HW234537   0.277  13.710   2.866
44214SOL     OW34538  11.164   4.070  11.692
44214SOL    HW134539  11.155   4.082  11.786
44214SOL    HW234540  11.242   4.016  11.683
44215SOL     OW34541  10.873   6.036   7.038
44215SOL    HW134542  10.876   6.061   7.131
44215SOL    HW234543  10.795   5.982   7.030
44216SOL     OW34544   4.608   2.277   4.060
44216SOL    HW134545   4.544   2.298   3.992
44216SOL    HW234546   4.603   2.181   4.068
44217SOL     OW34547   7.667   1.402  12.842
44217SOL    HW134548   7.652   1.483  12.793
44217SOL    HW234549   7.737   1.357  12.794
44218SOL     OW34550   1.263  11.374   1.175
44218SOL    HW134551   1.206  11.412   1.107
44218SOL    HW234552   1.202  11.334   1.237
44219SOL     OW34553   9.452  12.042  10.196
44219SOL    HW134554   9.367  12.061  10.156
44219SOL    HW234555   9.462  11.947  10.187
44220SOL     OW34556   9.182  11.023   2.823
44220SOL    HW134557   9.239  11.067   2.886
44220SOL    HW234558   9.104  10.999   2.872
44221SOL     OW34559  14.338  13.205  14.804
44221SOL    HW134560  14.349  13.299  14.790
44221SOL    HW234561  14.390  13.164  14.735
44222SOL     OW34562   5.244  10.358   5.627
44222SOL    HW134563   5.172  10.320   5.679
44222SOL    HW234564   5.321  10.348   5.683
44223SOL     OW34565  12.417  13.388   0.022
44223SOL    HW134566  12.452  13.455   0.081
44223SOL    HW234567  12.336  13.359   0.064
44224SOL     OW34568   9.617   6.212  11.261
44224SOL    HW134569   9.608   6.299  11.223
44224SOL    HW234570   9.528   6.188  11.287
44225SOL     OW34571   7.166   3.321   9.963
44225SOL    HW134572   7.261   3.329   9.959
44225SOL    HW234573   7.139   3.390  10.024
44226SOL     OW34574  14.370   2.715   3.464
44226SOL    HW134575  14.366   2.742   3.556
44226SOL    HW234576  14.287   2.744   3.426
44227SOL     OW34577   9.174  12.449  13.104
44227SOL    HW134578   9.085  12.421  13.125
44227SOL    HW234579   9.168  12.544  13.094
44228SOL     OW34580   9.377   7.389   7.683
44228SOL    HW134581   9.369   7.370   7.590
44228SOL    HW234582   9.286   7.401   7.712
44229SOL     OW34583   3.782  13.058  13.760
44229SOL    HW134584   3.730  12.980  13.777
44229SOL    HW234585   3.719  13.130  13.763
44230SOL     OW34586   4.355  12.510   8.447
44230SOL    HW134587   4.286  12.488   8.385
44230SOL    HW234588   4.423  12.551   8.394
44231SOL     OW34589   7.656   0.052   7.086
44231SOL    HW134590   7.605   0.054   7.005
44231SOL    HW234591   7.591   0.036   7.154
44232SOL     OW34592  12.461   0.358  11.547
44232SOL    HW134593  12.454   0.452  11.535
44232SOL    HW234594  12.550   0.344  11.579
44233SOL     OW34595   8.381   9.922   4.575
44233SOL    HW134596   8.443   9.930   4.647
44233SOL    HW234597   8.330   9.843   4.595
44234SOL     OW34598   6.183   6.411  14.090
44234SOL    HW134599   6.268   6.421  14.048
44234SOL    HW234600   6.201   6.358  14.168
44235SOL     OW34601  13.150   8.961   7.700
44235SOL    HW134602  13.224   8.937   7.644
44235SOL    HW234603  13.077   8.975   7.639
44236SOL     OW34604   1.340   9.159  12.283
44236SOL    HW134605   1.294   9.078  12.260
44236SOL    HW234606   1.316   9.175  12.374
44237SOL     OW34607  12.584  14.228  10.151
44237SOL    HW134608  12.544  14.209  10.066
44237SOL    HW234609  12.627  14.312  10.139
44238SOL     OW34610   3.458   6.103  13.065
44238SOL    HW134611   3.425   6.050  13.138
44238SOL    HW234612   3.552   6.086  13.064
44239SOL     OW34613  10.958  10.481   4.402
44239SOL    HW134614  10.900  10.550   4.433
44239SOL    HW234615  10.996  10.516   4.321
44240SOL     OW34616   0.145  12.231   6.534
44240SOL    HW134617   0.235  12.217   6.503
44240SOL    HW234618   0.155  12.256   6.626
44241SOL     OW34619   5.334  11.173   9.708
44241SOL    HW134620   5.359  11.155   9.618
44241SOL    HW234621   5.356  11.094   9.756
44242SOL     OW34622   4.550   6.256   3.518
44242SOL    HW134623   4.482   6.301   3.468
44242SOL    HW234624   4.503   6.218   3.592
44243SOL     OW34625  14.179  10.471  11.980
44243SOL    HW134626  14.207  10.394  12.030
44243SOL    HW234627  14.112  10.512  12.035
44244SOL     OW34628   6.716   5.214  10.861
44244SOL    HW134629   6.745   5.193  10.950
44244SOL    HW234630   6.624   5.188  10.859
44245SOL     OW34631   1.909  13.207   0.466
44245SOL    HW134632   1.984  13.244   0.420
44245SOL    HW234633   1.915  13.244   0.554
44246SOL     OW34634  12.072   5.626   2.747
44246SOL    HW134635  12.076   5.705   2.693
44246SOL    HW234636  12.163   5.608   2.771
44247SOL     OW34637   3.654   7.668   3.642
44247SOL    HW134638   3.617   7.587   3.606
44247SOL    HW234639   3.587   7.701   3.702
44248SOL     OW34640  11.729   7.864  13.102
44248SOL    HW134641  11.781   7.784  13.110
44248SOL    HW234642  11.786   7.932  13.137
44249SOL     OW34643   2.359  10.416  11.257
44249SOL    HW134644   2.294  10.450  11.318
44249SOL    HW234645   2.309  10.366  11.193
44250SOL     OW34646   7.769  14.695   4.910
44250SOL    HW134647   7.705  14.753   4.869
44250SOL    HW234648   7.717  14.627   4.953
44251SOL     OW34649  11.821   9.018  13.617
44251SOL    HW134650  11.910   9.049  13.633
44251SOL    HW234651  11.833   8.935  13.570
44252SOL     OW34652   2.235   5.779   4.733
44252SOL    HW134653   2.253   5.734   4.816
44252SOL    HW234654   2.302   5.747   4.673
44253SOL     OW34655   5.470   0.652   2.775
44253SOL    HW134656   5.426   0.595   2.712
44253SOL    HW234657   5.525   0.709   2.721
44254SOL     OW34658  14.855   9.744   1.414
44254SOL    HW134659  14.873   9.691   1.492
44254SOL    HW234660   0.022   9.700   1.344
44255SOL     OW34661  14.357  12.821  13.319
44255SOL    HW134662  14.264  12.809  13.302
44255SOL    HW234663  14.400  12.801  13.236
44256SOL     OW34664  13.929  11.254   7.438
44256SOL    HW134665  13.891  11.339   7.461
44256SOL    HW234666  14.011  11.251   7.488
44257SOL     OW34667   4.254   3.068   8.421
44257SOL    HW134668   4.185   3.060   8.355
44257SOL    HW234669   4.335   3.046   8.375
44258SOL     OW34670   0.363   4.837   0.114
44258SOL    HW134671   0.371   4.817   0.020
44258SOL    HW234672   0.430   4.904   0.129
44259SOL     OW34673   1.019  10.776   8.688
44259SOL    HW134674   0.970  10.856   8.705
44259SOL    HW234675   1.066  10.793   8.606
44260SOL     OW34676   2.205   0.293   6.267
44260SOL    HW134677   2.216   0.341   6.184
44260SOL    HW234678   2.263   0.218   6.259
44261SOL     OW34679   2.547   7.733   6.850
44261SOL    HW134680   2.584   7.802   6.905
44261SOL    HW234681   2.506   7.779   6.777
44262SOL     OW34682   2.683  13.810   6.799
44262SOL    HW134683   2.650  13.776   6.882
44262SOL    HW234684   2.605  13.825   6.746
44263SOL     OW34685   1.971   3.776   4.918
44263SOL    HW134686   2.040   3.733   4.868
44263SOL    HW234687   1.933   3.839   4.857
44264SOL     OW34688  12.822  14.831  10.753
44264SOL    HW134689  12.830  14.739  10.775
44264SOL    HW234690  12.747  14.836  10.693
44265SOL     OW34691  13.770   2.617  10.959
44265SOL    HW134692  13.783   2.681  11.028
44265SOL    HW234693  13.676   2.596  10.963
44266SOL     OW34694  10.584   1.374  12.938
44266SOL    HW134695  10.550   1.461  12.916
44266SOL    HW234696  10.580   1.371  13.034
44267SOL     OW34697  14.833   9.845  10.768
44267SOL    HW134698  14.808   9.779  10.832
44267SOL    HW234699   0.020   9.803  10.716
44268SOL     OW34700  14.269   3.722   3.263
44268SOL    HW134701  14.356   3.742   3.298
44268SOL    HW234702  14.281   3.720   3.169
44269SOL     OW34703  10.526   3.503   2.080
44269SOL    HW134704  10.621   3.509   2.094
44269SOL    HW234705  10.516   3.513   1.985
44270SOL     OW34706   2.240  10.513   3.296
44270SOL    HW134707   2.266  10.448   3.362
44270SOL    HW234708   2.270  10.597   3.331
44271SOL     OW34709   4.204  14.155  14.495
44271SOL    HW134710   4.213  14.250  14.483
44271SOL    HW234711   4.293  14.122  14.495
44272SOL     OW34712  14.011   9.972  11.716
44272SOL    HW134713  14.093   9.982  11.764
44272SOL    HW234714  13.977   9.887  11.742
44273SOL     OW34715   6.630   1.660  13.298
44273SOL    HW134716   6.572   1.666  13.223
44273SOL    HW234717   6.576   1.621  13.367
44274SOL     OW34718  10.247   8.944   4.063
44274SOL    HW134719  10.327   8.968   4.108
44274SOL    HW234720  10.194   8.899   4.129
44275SOL     OW34721   1.166   9.599   9.502
44275SOL    HW134722   1.205   9.675   9.547
44275SOL    HW234723   1.234   9.571   9.440
44276SOL     OW34724  14.296   0.808  12.130
44276SOL    HW134725  14.276   0.898  12.156
44276SOL    HW234726  14.212   0.763  12.134
44277SOL     OW34727   8.767   9.852   1.147
44277SOL    HW134728   8.712   9.822   1.220
44277SOL    HW234729   8.755   9.947   1.147
44278SOL     OW34730   5.628   4.111   9.594
44278SOL    HW134731   5.673   4.191   9.621
44278SOL    HW234732   5.630   4.055   9.672
44279SOL     OW34733   3.452  12.688  14.358
44279SOL    HW134734   3.387  12.754  14.382
44279SOL    HW234735   3.417  12.649  14.278
44280SOL     OW34736   4.526  11.762  10.779
44280SOL    HW134737   4.452  11.706  10.756
44280SOL    HW234738   4.599  11.702  10.790
44281SOL     OW34739   0.122   7.569   5.522
44281SOL    HW134740   0.147   7.656   5.492
44281SOL    HW234741   0.111   7.518   5.442
44282SOL     OW34742   7.040   7.817   2.952
44282SOL    HW134743   7.115   7.809   3.012
44282SOL    HW234744   7.068   7.769   2.874
44283SOL     OW34745   3.477  11.261   8.920
44283SOL    HW134746   3.488  11.335   8.861
44283SOL    HW234747   3.467  11.300   9.007
44284SOL     OW34748   4.627   2.006   3.422
44284SOL    HW134749   4.637   1.977   3.332
44284SOL    HW234750   4.554   1.955   3.456
44285SOL     OW34751   4.062   9.016   7.490
44285SOL    HW134752   4.000   9.028   7.418
44285SOL    HW234753   4.012   8.969   7.557
44286SOL     OW34754   3.098  14.210   4.626
44286SOL    HW134755   3.168  14.276   4.629
44286SOL    HW234756   3.076  14.193   4.717
44287SOL     OW34757  14.842   4.545  14.296
44287SOL    HW134758  14.782   4.533  14.222
44287SOL    HW234759  14.855   4.640  14.302
44288SOL     OW34760   5.143  14.881   6.414
44288SOL    HW134761   5.116   0.055   6.341
44288SOL    HW234762   5.099  14.798   6.398
44289SOL     OW34763  10.347   6.023  11.828
44289SOL    HW134764  10.405   5.967  11.880
44289SOL    HW234765  10.311   5.964  11.762
44290SOL     OW34766   3.461  14.327  13.699
44290SOL    HW134767   3.463  14.397  13.634
44290SOL    HW234768   3.499  14.251  13.654
44291SOL     OW34769   7.909   5.145   2.880
44291SOL    HW134770   7.935   5.237   2.886
44291SOL    HW234771   7.952   5.113   2.801
44292SOL     OW34772  13.568   2.795   3.847
44292SOL    HW134773  13.579   2.861   3.778
44292SOL    HW234774  13.550   2.846   3.926
44293SOL     OW34775   7.533  14.346   7.271
44293SOL    HW134776   7.568  14.261   7.299
44293SOL    HW234777   7.569  14.359   7.183
44294SOL     OW34778  11.176  11.400  10.810
44294SOL    HW134779  11.222  11.462  10.867
44294SOL    HW234780  11.246  11.345  10.774
44295SOL     OW34781  10.976   2.746   5.470
44295SOL    HW134782  11.067   2.759   5.498
44295SOL    HW234783  10.955   2.657   5.497
44296SOL     OW34784   6.691  11.316  10.193
44296SOL    HW134785   6.648  11.261  10.128
44296SOL    HW234786   6.726  11.255  10.258
44297SOL     OW34787  11.724   6.876   6.201
44297SOL    HW134788  11.789   6.943   6.224
44297SOL    HW234789  11.722   6.876   6.106
44298SOL     OW34790   2.465   6.613   3.968
44298SOL    HW134791   2.468   6.707   3.984
44298SOL    HW234792   2.548   6.580   4.002
44299SOL     OW34793   7.821   4.392   9.069
44299SOL    HW134794   7.818   4.331   8.996
44299SOL    HW234795   7.871   4.466   9.037
44300SOL     OW34796  10.449   0.352   6.508
44300SOL    HW134797  10.405   0.290   6.451
44300SOL    HW234798  10.522   0.303   6.546
44301SOL     OW34799  10.742   2.623   8.268
44301SOL    HW134800  10.660   2.619   8.316
44301SOL    HW234801  10.739   2.706   8.221
44302SOL     OW34802   7.421   6.157   1.128
44302SOL    HW134803   7.472   6.200   1.197
44302SOL    HW234804   7.413   6.066   1.157
44303SOL     OW34805  12.628  11.861  11.644
44303SOL    HW134806  12.707  11.914  11.657
44303SOL    HW234807  12.568  11.890  11.712
44304SOL     OW34808  10.985   7.790  10.112
44304SOL    HW134809  10.896   7.825  10.106
44304SOL    HW234810  10.977   7.698  10.091
44305SOL     OW34811   8.193   0.306  10.353
44305SOL    HW134812   8.212   0.396  10.378
44305SOL    HW234813   8.234   0.252  10.421
44306SOL     OW34814   0.432   0.515   5.580
44306SOL    HW134815   0.470   0.585   5.633
44306SOL    HW234816   0.464   0.434   5.621
44307SOL     OW34817   3.842   9.566  10.496
44307SOL    HW134818   3.786   9.525  10.561
44307SOL    HW234819   3.832   9.660  10.513
44308SOL     OW34820  13.263   0.509  11.188
44308SOL    HW134821  13.222   0.576  11.243
44308SOL    HW234822  13.212   0.430  11.205
44309SOL     OW34823   0.779  11.795   0.947
44309SOL    HW134824   0.694  11.751   0.948
44309SOL    HW234825   0.834  11.740   0.891
44310SOL     OW34826  14.744   3.356   5.088
44310SOL    HW134827  14.713   3.327   5.002
44310SOL    HW234828  14.732   3.280   5.145
44311SOL     OW34829   5.414   3.315   8.614
44311SOL    HW134830   5.414   3.399   8.568
44311SOL    HW234831   5.321   3.293   8.624
44312SOL     OW34832  10.906   9.368  11.657
44312SOL    HW134833  10.938   9.331  11.575
44312SOL    HW234834  10.954   9.451  11.666
44313SOL     OW34835  12.240  14.339   5.985
44313SOL    HW134836  12.191  14.318   5.906
44313SOL    HW234837  12.182  14.312   6.057
44314SOL     OW34838   8.781   9.292   0.977
44314SOL    HW134839   8.737   9.249   0.904
44314SOL    HW234840   8.781   9.385   0.953
44315SOL     OW34841   9.322  10.943  14.877
44315SOL    HW134842   9.349  10.853   0.010
44315SOL    HW234843   9.226  10.938  14.869
44316SOL     OW34844   1.704   3.772   8.335
44316SOL    HW134845   1.689   3.854   8.381
44316SOL    HW234846   1.618   3.730   8.332
44317SOL     OW34847  11.590   5.424   4.619
44317SOL    HW134848  11.628   5.509   4.639
44317SOL    HW234849  11.665   5.368   4.601
44318SOL     OW34850  14.644   7.111  10.153
44318SOL    HW134851  14.712   7.044  10.164
44318SOL    HW234852  14.564   7.067  10.183
44319SOL     OW34853  12.615   8.081  14.078
44319SOL    HW134854  12.552   8.146  14.048
44319SOL    HW234855  12.698   8.129  14.083
44320SOL     OW34856   3.057   7.754  10.677
44320SOL    HW134857   3.041   7.828  10.736
44320SOL    HW234858   2.995   7.687  10.705
44321SOL     OW34859   8.138  14.144  14.795
44321SOL    HW134860   8.119  14.236  14.780
44321SOL    HW234861   8.207  14.123  14.732
44322SOL     OW34862  13.194  10.184  12.767
44322SOL    HW134863  13.212  10.181  12.861
44322SOL    HW234864  13.145  10.266  12.754
44323SOL     OW34865   8.269  12.573   6.254
44323SOL    HW134866   8.275  12.483   6.286
44323SOL    HW234867   8.343  12.583   6.195
44324SOL     OW34868   3.188  11.687   9.630
44324SOL    HW134869   3.162  11.620   9.693
44324SOL    HW234870   3.214  11.638   9.552
44325SOL     OW34871  14.318   5.464   9.332
44325SOL    HW134872  14.260   5.389   9.317
44325SOL    HW234873  14.404   5.434   9.300
44326SOL     OW34874   6.939   8.458  12.751
44326SOL    HW134875   6.988   8.403  12.812
44326SOL    HW234876   6.955   8.548  12.782
44327SOL     OW34877  11.066   9.889   5.154
44327SOL    HW134878  11.020   9.973   5.153
44327SOL    HW234879  11.011   9.832   5.208
44328SOL     OW34880   4.981   3.754   4.643
44328SOL    HW134881   5.047   3.752   4.573
44328SOL    HW234882   4.993   3.671   4.689
44329SOL     OW34883   6.817  10.568   9.788
44329SOL    HW134884   6.743  10.530   9.740
44329SOL    HW234885   6.881  10.497   9.795
44330SOL     OW34886   7.806  13.208   6.913
44330SOL    HW134887   7.832  13.291   6.952
44330SOL    HW234888   7.747  13.233   6.842
44331SOL     OW34889   2.889   0.971  14.166
44331SOL    HW134890   2.854   1.047  14.212
44331SOL    HW234891   2.906   1.002  14.077
44332SOL     OW34892  11.928   5.839   9.329
44332SOL    HW134893  11.996   5.776   9.303
44332SOL    HW234894  11.846   5.793   9.313
44333SOL     OW34895   1.478   7.810   6.102
44333SOL    HW134896   1.531   7.889   6.091
44333SOL    HW234897   1.389   7.837   6.077
44334SOL     OW34898   2.138   2.166   6.433
44334SOL    HW134899   2.141   2.261   6.440
44334SOL    HW234900   2.205   2.144   6.368
44335SOL     OW34901  10.714   2.163  12.096
44335SOL    HW134902  10.658   2.124  12.164
44335SOL    HW234903  10.653   2.185  12.025
44336SOL     OW34904   3.259  14.851   8.493
44336SOL    HW134905   3.323  14.849   8.422
44336SOL    HW234906   3.230  14.760   8.502
44337SOL     OW34907   2.707   2.147   9.774
44337SOL    HW134908   2.658   2.069   9.747
44337SOL    HW234909   2.738   2.126   9.862
44338SOL     OW34910   6.581   8.784  11.631
44338SOL    HW134911   6.615   8.851  11.691
44338SOL    HW234912   6.658   8.755  11.582
44339SOL     OW34913   6.012  10.703   1.172
44339SOL    HW134914   6.044  10.640   1.237
44339SOL    HW234915   6.076  10.700   1.102
44340SOL     OW34916   4.546   8.846   1.766
44340SOL    HW134917   4.559   8.918   1.827
44340SOL    HW234918   4.622   8.850   1.708
44341SOL     OW34919  12.883   7.719  12.413
44341SOL    HW134920  12.957   7.779  12.420
44341SOL    HW234921  12.902   7.667  12.335
44342SOL     OW34922   4.851   7.956   8.440
44342SOL    HW134923   4.763   7.950   8.477
44342SOL    HW234924   4.882   7.865   8.437
44343SOL     OW34925   2.547   1.799  12.898
44343SOL    HW134926   2.617   1.864  12.889
44343SOL    HW234927   2.561   1.761  12.985
44344SOL     OW34928  14.523   4.939  11.620
44344SOL    HW134929  14.543   4.864  11.564
44344SOL    HW234930  14.566   4.918  11.704
44345SOL     OW34931   7.944   0.821  12.657
44345SOL    HW134932   7.992   0.757  12.604
44345SOL    HW234933   7.891   0.768  12.716
44346SOL     OW34934   9.990  11.608   5.779
44346SOL    HW134935  10.023  11.639   5.695
44346SOL    HW234936  10.027  11.519   5.788
44347SOL     OW34937  14.047   6.553   0.796
44347SOL    HW134938  14.013   6.515   0.876
44347SOL    HW234939  14.140   6.528   0.794
44348SOL     OW34940   4.456   8.616  11.072
44348SOL    HW134941   4.430   8.658  10.991
44348SOL    HW234942   4.551   8.621  11.073
44349SOL     OW34943   8.515  14.538   2.950
44349SOL    HW134944   8.494  14.484   3.026
44349SOL    HW234945   8.436  14.590   2.935
44350SOL     OW34946   5.849   4.592   7.805
44350SOL    HW134947   5.867   4.634   7.889
44350SOL    HW234948   5.761   4.555   7.815
44351SOL     OW34949   8.545   7.347  11.940
44351SOL    HW134950   8.540   7.260  11.901
44351SOL    HW234951   8.628   7.347  11.987
44352SOL     OW34952  14.630   0.680   3.135
44352SOL    HW134953  14.658   0.653   3.048
44352SOL    HW234954  14.569   0.611   3.163
44353SOL     OW34955   8.858   1.002  12.658
44353SOL    HW134956   8.868   0.988  12.563
44353SOL    HW234957   8.797   1.075  12.664
44354SOL     OW34958   9.849   0.037  14.250
44354SOL    HW134959   9.851   0.120  14.297
44354SOL    HW234960   9.780   0.047  14.184
44355SOL     OW34961   1.935  10.102   6.119
44355SOL    HW134962   2.023  10.074   6.143
44355SOL    HW234963   1.913  10.049   6.041
44356SOL     OW34964  10.363   2.866   0.745
44356SOL    HW134965  10.337   2.785   0.702
44356SOL    HW234966  10.452   2.882   0.714
44357SOL     OW34967   2.135   3.055   0.219
44357SOL    HW134968   2.070   3.099   0.274
44357SOL    HW234969   2.126   3.097   0.133
44358SOL     OW34970   7.938   7.407  13.472
44358SOL    HW134971   7.946   7.482  13.530
44358SOL    HW234972   7.850   7.374  13.487
44359SOL     OW34973   9.194   9.269   4.607
44359SOL    HW134974   9.209   9.184   4.566
44359SOL    HW234975   9.098   9.277   4.611
44360SOL     OW34976   0.967  13.904   6.662
44360SOL    HW134977   0.939  13.813   6.667
44360SOL    HW234978   1.034  13.904   6.592
44361SOL     OW34979   1.658  10.708  10.256
44361SOL    HW134980   1.579  10.680  10.209
44361SOL    HW234981   1.676  10.637  10.317
44362SOL     OW34982  10.137   5.459   5.536
44362SOL    HW134983  10.111   5.515   5.463
44362SOL    HW234984  10.101   5.373   5.514
44363SOL     OW34985  10.840  11.847   4.156
44363SOL    HW134986  10.800  11.906   4.093
44363SOL    HW234987  10.929  11.833   4.121
44364SOL     OW34988   9.191  13.469   5.393
44364SOL    HW134989   9.122  13.438   5.451
44364SOL    HW234990   9.259  13.401   5.399
44365SOL     OW34991   8.219   7.139  11.029
44365SOL    HW134992   8.205   7.048  11.003
44365SOL    HW234993   8.310   7.157  11.006
44366SOL     OW34994  14.275   7.571   1.814
44366SOL    HW134995  14.257   7.547   1.905
44366SOL    HW234996  14.237   7.500   1.762
44367SOL     OW34997   5.609   0.540   6.791
44367SOL    HW134998   5.540   0.606   6.784
44367SOL    HW234999   5.664   0.554   6.714
44368SOL     OW35000   0.860   7.763   8.719
44368SOL    HW135001   0.779   7.781   8.765
44368SOL    HW235002   0.851   7.672   8.690
44369SOL     OW35003   4.284  11.452   6.435
44369SOL    HW135004   4.326  11.509   6.370
44369SOL    HW235005   4.235  11.388   6.383
44370SOL     OW35006   5.567   6.490   5.823
44370SOL    HW135007   5.494   6.550   5.811
44370SOL    HW235008   5.535   6.405   5.791
44371SOL     OW35009  14.835   9.334   6.340
44371SOL    HW135010  14.873   9.352   6.255
44371SOL    HW235011   0.025   9.295   6.391
44372SOL     OW35012   5.611  10.655   6.355
44372SOL    HW135013   5.518  10.668   6.337
44372SOL    HW235014   5.612  10.608   6.439
44373SOL     OW35015  11.496   2.940   4.457
44373SOL    HW135016  11.552   2.866   4.431
44373SOL    HW235017  11.554   3.016   4.453
44374SOL     OW35018   5.122   1.808  12.505
44374SOL    HW135019   5.086   1.735  12.555
44374SOL    HW235020   5.217   1.798  12.514
44375SOL     OW35021  13.898   8.117   7.837
44375SOL    HW135022  13.876   8.156   7.753
44375SOL    HW235023  13.946   8.037   7.814
44376SOL     OW35024   0.766   7.267  12.463
44376SOL    HW135025   0.837   7.283  12.401
44376SOL    HW235026   0.807   7.278  12.549
44377SOL     OW35027   2.106  12.540   8.024
44377SOL    HW135028   2.117  12.558   8.117
44377SOL    HW235029   2.195  12.520   7.993
44378SOL     OW35030  11.095  12.953  11.806
44378SOL    HW135031  11.105  12.919  11.717
44378SOL    HW235032  11.048  13.036  11.795
44379SOL     OW35033   8.772  10.343   2.548
44379SOL    HW135034   8.739  10.256   2.567
44379SOL    HW235035   8.756  10.355   2.455
44380SOL     OW35036   8.271  11.592  11.797
44380SOL    HW135037   8.271  11.565  11.889
44380SOL    HW235038   8.178  11.600  11.775
44381SOL     OW35039  10.841   4.769   5.594
44381SOL    HW135040  10.824   4.675   5.590
44381SOL    HW235041  10.825   4.793   5.685
44382SOL     OW35042   7.097  14.094   6.025
44382SOL    HW135043   7.149  14.165   5.989
44382SOL    HW235044   7.110  14.101   6.120
44383SOL     OW35045  14.383   8.379   6.196
44383SOL    HW135046  14.445   8.361   6.125
44383SOL    HW235047  14.438   8.398   6.272
44384SOL     OW35048  11.892   0.549   6.923
44384SOL    HW135049  11.829   0.483   6.953
44384SOL    HW235050  11.840   0.609   6.870
44385SOL     OW35051   9.534   5.211   8.853
44385SOL    HW135052   9.628   5.192   8.846
44385SOL    HW235053   9.492   5.135   8.813
44386SOL     OW35054  10.834   6.569   1.226
44386SOL    HW135055  10.770   6.603   1.164
44386SOL    HW235056  10.813   6.475   1.232
44387SOL     OW35057  12.888   5.567   5.083
44387SOL    HW135058  12.963   5.561   5.143
44387SOL    HW235059  12.866   5.660   5.081
44388SOL     OW35060  11.313  14.230  12.366
44388SOL    HW135061  11.313  14.149  12.417
44388SOL    HW235062  11.224  14.237  12.332
44389SOL     OW35063   7.578   2.222   5.043
44389SOL    HW135064   7.615   2.135   5.056
44389SOL    HW235065   7.534   2.242   5.126
44390SOL     OW35066   1.751   0.929  11.081
44390SOL    HW135067   1.656   0.920  11.094
44390SOL    HW235068   1.761   0.941  10.987
44391SOL     OW35069   7.474   8.099   5.266
44391SOL    HW135070   7.429   8.160   5.209
44391SOL    HW235071   7.462   8.134   5.354
44392SOL     OW35072   6.560   9.231   1.365
44392SOL    HW135073   6.525   9.164   1.306
44392SOL    HW235074   6.635   9.267   1.319
44393SOL     OW35075  13.458   9.637   1.484
44393SOL    HW135076  13.378   9.683   1.507
44393SOL    HW235077  13.464   9.566   1.548
44394SOL     OW35078   0.868   3.592  13.003
44394SOL    HW135079   0.784   3.579  12.959
44394SOL    HW235080   0.894   3.505  13.031
44395SOL     OW35081   8.573   2.390   0.622
44395SOL    HW135082   8.596   2.458   0.559
44395SOL    HW235083   8.484   2.412   0.651
44396SOL     OW35084  12.229  14.419   3.478
44396SOL    HW135085  12.198  14.476   3.408
44396SOL    HW235086  12.247  14.335   3.436
44397SOL     OW35087   7.321   9.641   4.921
44397SOL    HW135088   7.340   9.587   4.998
44397SOL    HW235089   7.364   9.596   4.849
44398SOL     OW35090   7.032  10.527   9.208
44398SOL    HW135091   7.014  10.452   9.152
44398SOL    HW235092   7.114  10.505   9.251
44399SOL     OW35093   2.824   5.594   5.204
44399SOL    HW135094   2.835   5.510   5.250
44399SOL    HW235095   2.734   5.590   5.170
44400SOL     OW35096   6.989   4.317  12.671
44400SOL    HW135097   7.053   4.246  12.665
44400SOL    HW235098   6.975   4.329  12.765
44401SOL     OW35099   5.429   7.030   6.742
44401SOL    HW135100   5.410   7.001   6.831
44401SOL    HW235101   5.372   7.107   6.730
44402SOL     OW35102   1.840   6.397   6.679
44402SOL    HW135103   1.788   6.421   6.756
44402SOL    HW235104   1.839   6.302   6.677
44403SOL     OW35105   9.287   5.703   4.125
44403SOL    HW135106   9.273   5.714   4.220
44403SOL    HW235107   9.267   5.611   4.108
44404SOL     OW35108   5.404   9.515  13.197
44404SOL    HW135109   5.480   9.462  13.222
44404SOL    HW235110   5.428   9.604  13.220
44405SOL     OW35111  12.391  12.449   2.064
44405SOL    HW135112  12.339  12.502   2.125
44405SOL    HW235113  12.408  12.507   1.990
44406SOL     OW35114   7.137   6.631  13.505
44406SOL    HW135115   7.233   6.637  13.502
44406SOL    HW235116   7.117   6.627  13.598
44407SOL     OW35117  12.246  13.230   1.650
44407SOL    HW135118  12.281  13.300   1.595
44407SOL    HW235119  12.171  13.196   1.600
44408SOL     OW35120  11.746   6.981  10.103
44408SOL    HW135121  11.675   7.044  10.095
44408SOL    HW235122  11.822   7.033  10.129
44409SOL     OW35123  13.936   5.181  11.672
44409SOL    HW135124  13.992   5.212  11.601
44409SOL    HW235125  13.914   5.091  11.647
44410SOL     OW35126   9.416   7.032  14.870
44410SOL    HW135127   9.422   7.047  14.776
44410SOL    HW235128   9.339   7.082   0.016
44411SOL     OW35129   3.635  13.565   3.936
44411SOL    HW135130   3.709  13.606   3.981
44411SOL    HW235131   3.558  13.604   3.977
44412SOL     OW35132  13.501   1.682   6.860
44412SOL    HW135133  13.497   1.661   6.953
44412SOL    HW235134  13.410   1.676   6.830
44413SOL     OW35135   7.785   5.620  10.431
44413SOL    HW135136   7.861   5.662  10.472
44413SOL    HW235137   7.710   5.653  10.481
44414SOL     OW35138   5.822  14.353  11.139
44414SOL    HW135139   5.879  14.373  11.065
44414SOL    HW235140   5.762  14.428  11.143
44415SOL     OW35141   2.843   3.251   1.247
44415SOL    HW135142   2.819   3.235   1.156
44415SOL    HW235143   2.893   3.173   1.272
44416SOL     OW35144   0.004  12.586   9.918
44416SOL    HW135145   0.028  12.499   9.950
44416SOL    HW235146   0.037  12.646   9.985
44417SOL     OW35147   3.215   6.518   3.968
44417SOL    HW135148   3.132   6.555   3.999
44417SOL    HW235149   3.192   6.470   3.888
44418SOL     OW35150   1.882   7.538   6.599
44418SOL    HW135151   1.917   7.487   6.672
44418SOL    HW235152   1.819   7.480   6.556
44419SOL     OW35153   3.397   8.448   0.328
44419SOL    HW135154   3.429   8.466   0.240
44419SOL    HW235155   3.302   8.448   0.319
44420SOL     OW35156   7.620   3.649   8.035
44420SOL    HW135157   7.602   3.706   8.110
44420SOL    HW235158   7.699   3.601   8.060
44421SOL     OW35159   9.385  13.315   6.288
44421SOL    HW135160   9.367  13.401   6.250
44421SOL    HW235161   9.480  13.314   6.301
44422SOL     OW35162   2.381   9.170   9.858
44422SOL    HW135163   2.365   9.173   9.952
44422SOL    HW235164   2.372   9.261   9.829
44423SOL     OW35165  12.684   7.109  10.118
44423SOL    HW135166  12.639   7.192  10.101
44423SOL    HW235167  12.614   7.049  10.146
44424SOL     OW35168   3.179  11.815  11.512
44424SOL    HW135169   3.220  11.871  11.578
44424SOL    HW235170   3.239  11.741  11.502
44425SOL     OW35171  11.672   0.966   4.377
44425SOL    HW135172  11.737   1.035   4.367
44425SOL    HW235173  11.594   1.001   4.334
44426SOL     OW35174   3.105  11.191  13.062
44426SOL    HW135175   3.071  11.270  13.104
44426SOL    HW235176   3.195  11.183  13.095
44427SOL     OW35177   9.879   5.044   5.252
44427SOL    HW135178   9.906   5.088   5.333
44427SOL    HW235179   9.813   4.981   5.279
44428SOL     OW35180  11.390   0.206  11.463
44428SOL    HW135181  11.393   0.302  11.456
44428SOL    HW235182  11.371   0.190  11.555
44429SOL     OW35183  13.209  10.075   7.195
44429SOL    HW135184  13.237  10.025   7.119
44429SOL    HW235185  13.136  10.128   7.163
44430SOL     OW35186   5.443   3.959   9.082
44430SOL    HW135187   5.416   4.018   9.152
44430SOL    HW235188   5.479   4.018   9.015
44431SOL     OW35189  12.021   6.119   4.261
44431SOL    HW135190  11.952   6.114   4.327
44431SOL    HW235191  12.102   6.104   4.309
44432SOL     OW35192   3.600   2.778  11.164
44432SOL    HW135193   3.603   2.838  11.090
44432SOL    HW235194   3.663   2.814  11.227
44433SOL     OW35195   4.453   7.914   3.888
44433SOL    HW135196   4.428   7.912   3.981
44433SOL    HW235197   4.379   7.873   3.843
44434SOL     OW35198   3.989  14.768   7.930
44434SOL    HW135199   4.045  14.794   7.858
44434SOL    HW235200   3.922  14.836   7.935
44435SOL     OW35201   8.751   9.146   1.432
44435SOL    HW135202   8.744   9.180   1.520
44435SOL    HW235203   8.697   9.204   1.378
44436SOL     OW35204   3.103   8.999   3.170
44436SOL    HW135205   3.153   9.050   3.106
44436SOL    HW235206   3.169   8.949   3.217
44437SOL     OW35207   1.411   5.448   0.236
44437SOL    HW135208   1.444   5.515   0.295
44437SOL    HW235209   1.404   5.492   0.151
44438SOL     OW35210   0.611   5.387   8.752
44438SOL    HW135211   0.686   5.446   8.760
44438SOL    HW235212   0.567   5.415   8.672
44439SOL     OW35213  13.809  13.427   0.405
44439SOL    HW135214  13.763  13.431   0.489
44439SOL    HW235215  13.740  13.411   0.341
44440SOL     OW35216  13.292   9.279   2.324
44440SOL    HW135217  13.306   9.221   2.249
44440SOL    HW235218  13.333   9.233   2.398
44441SOL     OW35219  12.661  13.566  12.043
44441SOL    HW135220  12.604  13.632  12.005
44441SOL    HW235221  12.735  13.561  11.983
44442SOL     OW35222  11.877   8.998  10.557
44442SOL    HW135223  11.822   9.056  10.609
44442SOL    HW235224  11.964   9.038  10.558
44443SOL     OW35225   4.032   7.311  13.211
44443SOL    HW135226   4.106   7.321  13.151
44443SOL    HW235227   4.073   7.296  13.297
44444SOL     OW35228   9.595   1.862   0.744
44444SOL    HW135229   9.512   1.911   0.740
44444SOL    HW235230   9.612   1.852   0.838
44445SOL     OW35231   1.191  11.015  12.503
44445SOL    HW135232   1.135  11.082  12.465
44445SOL    HW235233   1.135  10.939  12.513
44446SOL     OW35234   9.788   0.860   5.258
44446SOL    HW135235   9.728   0.788   5.237
44446SOL    HW235236   9.845   0.868   5.182
44447SOL     OW35237   7.194  11.826  13.135
44447SOL    HW135238   7.241  11.755  13.179
44447SOL    HW235239   7.117  11.783  13.097
44448SOL     OW35240   9.574   5.296   8.308
44448SOL    HW135241   9.640   5.356   8.272
44448SOL    HW235242   9.586   5.301   8.403
44449SOL     OW35243   5.796  12.625   1.714
44449SOL    HW135244   5.765  12.613   1.803
44449SOL    HW235245   5.758  12.708   1.686
44450SOL     OW35246  11.493   7.633   0.478
44450SOL    HW135247  11.555   7.587   0.535
44450SOL    HW235248  11.543   7.654   0.400
44451SOL     OW35249  12.321   2.407   1.754
44451SOL    HW135250  12.402   2.433   1.799
44451SOL    HW235251  12.350   2.383   1.665
44452SOL     OW35252   7.645   8.958   9.476
44452SOL    HW135253   7.699   8.963   9.398
44452SOL    HW235254   7.691   9.012   9.541
44453SOL     OW35255   4.237   8.829   9.259
44453SOL    HW135256   4.199   8.798   9.177
44453SOL    HW235257   4.213   8.762   9.324
44454SOL     OW35258   7.177  12.399   3.815
44454SOL    HW135259   7.249  12.344   3.846
44454SOL    HW235260   7.164  12.463   3.885
44455SOL     OW35261   2.312   7.964   5.024
44455SOL    HW135262   2.337   7.908   4.951
44455SOL    HW235263   2.370   8.040   5.018
44456SOL     OW35264   0.313   0.962  10.359
44456SOL    HW135265   0.299   0.882  10.408
44456SOL    HW235266   0.322   0.933  10.268
44457SOL     OW35267   6.588   6.645   0.134
44457SOL    HW135268   6.582   6.657   0.229
44457SOL    HW235269   6.567   6.731   0.098
44458SOL     OW35270  11.948   2.300   7.337
44458SOL    HW135271  12.004   2.256   7.401
44458SOL    HW235272  11.873   2.240   7.326
44459SOL     OW35273   1.274  11.735  12.822
44459SOL    HW135274   1.284  11.822  12.860
44459SOL    HW235275   1.340  11.682  12.866
44460SOL     OW35276  13.732  11.834   7.414
44460SOL    HW135277  13.803  11.792   7.366
44460SOL    HW235278  13.670  11.763   7.431
44461SOL     OW35279  10.946   3.312   3.396
44461SOL    HW135280  10.941   3.398   3.437
44461SOL    HW235281  10.998   3.326   3.317
44462SOL     OW35282  14.110  14.662  12.670
44462SOL    HW135283  14.125  14.587  12.613
44462SOL    HW235284  14.145  14.634  12.755
44463SOL     OW35285   2.978   1.102   7.972
44463SOL    HW135286   3.024   1.092   8.055
44463SOL    HW235287   2.970   1.012   7.938
44464SOL     OW35288   0.233  13.522   6.191
44464SOL    HW135289   0.302  13.579   6.156
44464SOL    HW235290   0.264  13.433   6.171
44465SOL     OW35291   2.374   4.322   5.727
44465SOL    HW135292   2.291   4.286   5.695
44465SOL    HW235293   2.438   4.301   5.659
44466SOL     OW35294   0.869   6.842   2.417
44466SOL    HW135295   0.947   6.849   2.362
44466SOL    HW235296   0.797   6.825   2.356
44467SOL     OW35297   4.245   1.050   0.908
44467SOL    HW135298   4.152   1.030   0.901
44467SOL    HW235299   4.251   1.144   0.892
44468SOL     OW35300  14.073   3.106   0.967
44468SOL    HW135301  14.018   3.142   0.897
44468SOL    HW235302  14.025   3.030   0.999
44469SOL     OW35303   1.129   9.074   2.522
44469SOL    HW135304   1.192   9.072   2.450
44469SOL    HW235305   1.162   9.143   2.580
44470SOL     OW35306  14.796   7.857   4.606
44470SOL    HW135307  14.843   7.912   4.668
44470SOL    HW235308  14.709   7.847   4.643
44471SOL     OW35309   4.011   5.706   5.564
44471SOL    HW135310   3.924   5.734   5.535
44471SOL    HW235311   4.009   5.716   5.659
44472SOL     OW35312  14.210   4.852   7.629
44472SOL    HW135313  14.152   4.909   7.679
44472SOL    HW235314  14.153   4.811   7.564
44473SOL     OW35315  10.338  14.108   7.002
44473SOL    HW135316  10.299  14.024   6.977
44473SOL    HW235317  10.289  14.134   7.080
44474SOL     OW35318   0.057  14.237   4.238
44474SOL    HW135319   0.011  14.241   4.321
44474SOL    HW235320   0.150  14.239   4.261
44475SOL     OW35321   7.922  12.509  11.886
44475SOL    HW135322   7.955  12.425  11.853
44475SOL    HW235323   7.984  12.535  11.954
44476SOL     OW35324   2.668   6.449  14.570
44476SOL    HW135325   2.693   6.456  14.662
44476SOL    HW235326   2.595   6.387  14.569
44477SOL     OW35327   9.360   8.705  10.024
44477SOL    HW135328   9.451   8.709   9.997
44477SOL    HW235329   9.315   8.660   9.952
44478SOL     OW35330   5.974  13.969   0.266
44478SOL    HW135331   5.943  14.016   0.188
44478SOL    HW235332   6.046  14.022   0.299
44479SOL     OW35333   9.146   0.148   7.700
44479SOL    HW135334   9.137   0.211   7.629
44479SOL    HW235335   9.093   0.184   7.771
44480SOL     OW35336   4.782   9.684   7.221
44480SOL    HW135337   4.710   9.692   7.158
44480SOL    HW235338   4.857   9.722   7.176
44481SOL     OW35339  12.305   7.272   4.511
44481SOL    HW135340  12.354   7.350   4.484
44481SOL    HW235341  12.214   7.299   4.508
44482SOL     OW35342   8.155   9.381   7.564
44482SOL    HW135343   8.100   9.417   7.494
44482SOL    HW235344   8.178   9.457   7.617
44483SOL     OW35345   8.659  11.657   0.931
44483SOL    HW135346   8.571  11.697   0.931
44483SOL    HW235347   8.646  11.571   0.971
44484SOL     OW35348   5.368   4.977   0.972
44484SOL    HW135349   5.347   4.944   0.885
44484SOL    HW235350   5.337   4.909   1.032
44485SOL     OW35351   0.330  11.903   7.034
44485SOL    HW135352   0.350  11.966   6.964
44485SOL    HW235353   0.380  11.934   7.109
44486SOL     OW35354   3.740   3.192  10.748
44486SOL    HW135355   3.712   3.126  10.684
44486SOL    HW235356   3.663   3.206  10.802
44487SOL     OW35357  11.453   2.868  13.065
44487SOL    HW135358  11.374   2.816  13.076
44487SOL    HW235359  11.503   2.821  12.998
44488SOL     OW35360   7.181   9.802   9.614
44488SOL    HW135361   7.220   9.715   9.602
44488SOL    HW235362   7.103   9.801   9.558
44489SOL     OW35363  14.489   8.143  11.297
44489SOL    HW135364  14.565   8.180  11.342
44489SOL    HW235365  14.420   8.145  11.363
44490SOL     OW35366   7.070  14.013   7.486
44490SOL    HW135367   7.055  14.001   7.580
44490SOL    HW235368   7.089  14.106   7.477
44491SOL     OW35369   3.484   4.384  11.755
44491SOL    HW135370   3.513   4.293  11.754
44491SOL    HW235371   3.485   4.408  11.848
44492SOL     OW35372  10.234  12.937   7.903
44492SOL    HW135373  10.207  12.916   7.993
44492SOL    HW235374  10.327  12.958   7.911
44493SOL     OW35375  14.337   6.109   5.336
44493SOL    HW135376  14.303   6.167   5.268
44493SOL    HW235377  14.364   6.169   5.406
44494SOL     OW35378   8.254   5.994   0.651
44494SOL    HW135379   8.307   6.070   0.672
44494SOL    HW235380   8.172   6.031   0.618
44495SOL     OW35381  13.303  12.629   1.488
44495SOL    HW135382  13.313  12.684   1.410
44495SOL    HW235383  13.260  12.686   1.551
44496SOL     OW35384   9.684  10.880   3.362
44496SOL    HW135385   9.599  10.918   3.381
44496SOL    HW235386   9.676  10.788   3.385
44497SOL     OW35387  14.686  10.486   2.882
44497SOL    HW135388  14.742  10.409   2.874
44497SOL    HW235389  14.680  10.520   2.792
44498SOL     OW35390   2.177   5.387   7.624
44498SOL    HW135391   2.091   5.399   7.664
44498SOL    HW235392   2.174   5.440   7.544
44499SOL     OW35393   4.985  10.647   7.920
44499SOL    HW135394   4.971  10.635   8.014
44499SOL    HW235395   4.990  10.557   7.885
44500SOL     OW35396   0.539  14.536  12.106
44500SOL    HW135397   0.587  14.614  12.081
44500SOL    HW235398   0.606  14.469  12.121
44501SOL     OW35399   6.715   6.464   9.630
44501SOL    HW135400   6.679   6.517   9.701
44501SOL    HW235401   6.778   6.522   9.586
44502SOL     OW35402   3.175   4.871   8.779
44502SOL    HW135403   3.152   4.931   8.709
44502SOL    HW235404   3.203   4.927   8.851
44503SOL     OW35405   8.487   6.818  12.432
44503SOL    HW135406   8.461   6.907  12.406
44503SOL    HW235407   8.433   6.798  12.508
44504SOL     OW35408   3.337   6.216   6.625
44504SOL    HW135409   3.414   6.211   6.568
44504SOL    HW235410   3.367   6.260   6.704
44505SOL     OW35411   6.096   5.276   0.375
44505SOL    HW135412   6.151   5.278   0.297
44505SOL    HW235413   6.149   5.228   0.439
44506SOL     OW35414  12.336   8.984  10.413
44506SOL    HW135415  12.267   8.975  10.347
44506SOL    HW235416  12.329   9.075  10.441
44507SOL     OW35417   3.123   6.326  13.267
44507SOL    HW135418   3.132   6.232  13.279
44507SOL    HW235419   3.212   6.360  13.273
44508SOL     OW35420   5.251   9.872   5.382
44508SOL    HW135421   5.324   9.821   5.346
44508SOL    HW235422   5.188   9.877   5.311
44509SOL     OW35423  11.204   4.271   0.607
44509SOL    HW135424  11.163   4.248   0.524
44509SOL    HW235425  11.281   4.215   0.612
44510SOL     OW35426  13.111   3.668   5.342
44510SOL    HW135427  13.071   3.612   5.276
44510SOL    HW235428  13.147   3.742   5.291
44511SOL     OW35429   4.128   0.094  13.683
44511SOL    HW135430   4.173   0.079  13.600
44511SOL    HW235431   4.035   0.083  13.662
44512SOL     OW35432   9.161  14.550   0.989
44512SOL    HW135433   9.147  14.468   0.942
44512SOL    HW235434   9.081  14.601   0.975
44513SOL     OW35435  10.258   6.736  12.862
44513SOL    HW135436  10.314   6.728  12.785
44513SOL    HW235437  10.254   6.647  12.897
44514SOL     OW35438   9.468   5.241   1.990
44514SOL    HW135439   9.433   5.154   1.970
44514SOL    HW235440   9.452   5.253   2.083
44515SOL     OW35441  11.317  12.693   4.352
44515SOL    HW135442  11.263  12.770   4.335
44515SOL    HW235443  11.358  12.710   4.436
44516SOL     OW35444   8.213   4.743   6.305
44516SOL    HW135445   8.160   4.812   6.263
44516SOL    HW235446   8.225   4.677   6.237
44517SOL     OW35447   5.437   3.327   6.987
44517SOL    HW135448   5.386   3.337   7.067
44517SOL    HW235449   5.445   3.416   6.952
44518SOL     OW35450   8.712   7.229  10.732
44518SOL    HW135451   8.645   7.187  10.678
44518SOL    HW235452   8.776   7.160  10.750
44519SOL     OW35453   5.939   0.695  10.480
44519SOL    HW135454   5.881   0.621  10.496
44519SOL    HW235455   5.886   0.758  10.432
44520SOL     OW35456   7.545  14.763  14.390
44520SOL    HW135457   7.621  14.805  14.350
44520SOL    HW235458   7.581  14.715  14.465
44521SOL     OW35459   1.433   2.568   0.174
44521SOL    HW135460   1.355   2.617   0.151
44521SOL    HW235461   1.491   2.578   0.098
44522SOL     OW35462   6.007  10.461   7.107
44522SOL    HW135463   5.968  10.431   7.025
44522SOL    HW235464   6.101  10.453   7.093
44523SOL     OW35465  14.370  10.159  11.191
44523SOL    HW135466  14.433  10.139  11.122
44523SOL    HW235467  14.424  10.177  11.268
44524SOL     OW35468  13.148  14.425  13.682
44524SOL    HW135469  13.231  14.461  13.713
44524SOL    HW235470  13.154  14.430  13.587
44525SOL     OW35471   6.540  13.315   4.861
44525SOL    HW135472   6.447  13.320   4.882
44525SOL    HW235473   6.583  13.364   4.932
44526SOL     OW35474  14.069   2.213   6.906
44526SOL    HW135475  14.130   2.163   6.960
44526SOL    HW235476  14.106   2.302   6.905
44527SOL     OW35477   6.712   2.781   4.777
44527SOL    HW135478   6.763   2.701   4.761
44527SOL    HW235479   6.702   2.785   4.872
44528SOL     OW35480   6.192   3.266   0.828
44528SOL    HW135481   6.142   3.259   0.747
44528SOL    HW235482   6.128   3.253   0.898
44529SOL     OW35483  13.960   7.899  14.850
44529SOL    HW135484  13.958   7.995  14.844
44529SOL    HW235485  13.869   7.873  14.834
44530SOL     OW35486   3.301   6.623   0.061
44530SOL    HW135487   3.368   6.658   0.120
44530SOL    HW235488   3.287   6.533   0.090
44531SOL     OW35489   5.185   9.028   0.206
44531SOL    HW135490   5.189   9.121   0.229
44531SOL    HW235491   5.271   9.008   0.170
44532SOL     OW35492   9.436   5.674   1.576
44532SOL    HW135493   9.454   5.742   1.641
44532SOL    HW235494   9.522   5.639   1.553
44533SOL     OW35495   8.928  11.756   1.782
44533SOL    HW135496   8.926  11.830   1.721
44533SOL    HW235497   9.022  11.736   1.791
44534SOL     OW35498   4.767   1.190   2.475
44534SOL    HW135499   4.793   1.137   2.400
44534SOL    HW235500   4.713   1.260   2.438
44535SOL     OW35501  13.849   4.981   1.112
44535SOL    HW135502  13.891   5.040   1.174
44535SOL    HW235503  13.834   4.901   1.162
44536SOL     OW35504   1.842   8.472   0.903
44536SOL    HW135505   1.930   8.463   0.867
44536SOL    HW235506   1.799   8.536   0.847
44537SOL     OW35507   1.190   9.718   6.745
44537SOL    HW135508   1.122   9.651   6.744
44537SOL    HW235509   1.210   9.730   6.838
44538SOL     OW35510  12.521   5.627   9.741
44538SOL    HW135511  12.447   5.686   9.747
44538SOL    HW235512  12.595   5.683   9.717
44539SOL     OW35513   2.566   4.779   0.431
44539SOL    HW135514   2.639   4.762   0.372
44539SOL    HW235515   2.544   4.693   0.467
44540SOL     OW35516   3.869   5.454  13.304
44540SOL    HW135517   3.808   5.435  13.375
44540SOL    HW235518   3.912   5.370  13.286
44541SOL     OW35519  13.432  10.610  12.440
44541SOL    HW135520  13.352  10.659  12.421
44541SOL    HW235521  13.484  10.670  12.493
44542SOL     OW35522   3.661   7.248   7.968
44542SOL    HW135523   3.660   7.185   8.040
44542SOL    HW235524   3.659   7.194   7.889
44543SOL     OW35525   1.537   0.317  13.960
44543SOL    HW135526   1.521   0.224  13.949
44543SOL    HW235527   1.450   0.357  13.958
44544SOL     OW35528  14.273   9.368   7.774
44544SOL    HW135529  14.208   9.311   7.733
44544SOL    HW235530  14.335   9.308   7.815
44545SOL     OW35531   9.505  13.189   0.036
44545SOL    HW135532   9.534  13.267  14.871
44545SOL    HW235533   9.557  13.190   0.117
44546SOL     OW35534   2.184   9.123  10.889
44546SOL    HW135535   2.117   9.055  10.897
44546SOL    HW235536   2.267   9.075  10.888
44547SOL     OW35537   6.179  10.576  11.944
44547SOL    HW135538   6.252  10.618  11.989
44547SOL    HW235539   6.105  10.633  11.960
44548SOL     OW35540   5.850   7.729   0.125
44548SOL    HW135541   5.880   7.802   0.072
44548SOL    HW235542   5.851   7.762   0.215
44549SOL     OW35543   1.577  14.661  14.431
44549SOL    HW135544   1.482  14.673  14.427
44549SOL    HW235545   1.589  14.573  14.466
44550SOL     OW35546   9.644  12.213   2.526
44550SOL    HW135547   9.672  12.208   2.617
44550SOL    HW235548   9.725  12.233   2.477
44551SOL     OW35549   0.054   1.007   5.512
44551SOL    HW135550   0.005   1.089   5.503
44551SOL    HW235551   0.128   1.016   5.452
44552SOL     OW35552   4.886   0.304  12.004
44552SOL    HW135553   4.939   0.259  12.070
44552SOL    HW235554   4.871   0.391  12.041
44553SOL     OW35555   5.316  10.976   1.065
44553SOL    HW135556   5.271  10.904   1.022
44553SOL    HW235557   5.261  10.998   1.140
44554SOL     OW35558  13.793   4.997   9.800
44554SOL    HW135559  13.746   4.920   9.832
44554SOL    HW235560  13.842   4.966   9.724
44555SOL     OW35561   3.845  13.003   8.420
44555SOL    HW135562   3.925  12.992   8.472
44555SOL    HW235563   3.876  13.036   8.336
44556SOL     OW35564   8.286  12.981  11.481
44556SOL    HW135565   8.329  13.044  11.540
44556SOL    HW235566   8.283  12.900  11.531
44557SOL     OW35567   4.237   7.188  10.035
44557SOL    HW135568   4.297   7.184   9.961
44557SOL    HW235569   4.251   7.275  10.073
44558SOL     OW35570   7.150  12.217   7.830
44558SOL    HW135571   7.150  12.296   7.883
44558SOL    HW235572   7.241  12.204   7.805
44559SOL     OW35573  14.253   8.001   8.865
44559SOL    HW135574  14.272   7.931   8.927
44559SOL    HW235575  14.339   8.027   8.831
44560SOL     OW35576   1.183  10.640   6.076
44560SOL    HW135577   1.190  10.614   6.168
44560SOL    HW235578   1.222  10.567   6.028
44561SOL     OW35579   9.713  11.973  14.035
44561SOL    HW135580   9.721  11.889  13.990
44561SOL    HW235581   9.740  11.953  14.125
44562SOL     OW35582   1.321   8.998   0.541
44562SOL    HW135583   1.307   8.962   0.454
44562SOL    HW235584   1.351   8.924   0.593
44563SOL     OW35585  10.419   4.004   3.098
44563SOL    HW135586  10.490   4.059   3.130
44563SOL    HW235587  10.373   3.974   3.177
44564SOL     OW35588  12.340   1.609   8.313
44564SOL    HW135589  12.395   1.649   8.245
44564SOL    HW235590  12.394   1.538   8.348
44565SOL     OW35591   7.026   0.876  11.458
44565SOL    HW135592   6.984   0.863  11.373
44565SOL    HW235593   6.954   0.884  11.520
44566SOL     OW35594   6.186   0.030   5.397
44566SOL    HW135595   6.140   0.093   5.453
44566SOL    HW235596   6.178  14.829   5.444
44567SOL     OW35597  10.914  10.327  11.952
44567SOL    HW135598  10.978  10.312  11.882
44567SOL    HW235599  10.902  10.241  11.992
44568SOL     OW35600  11.207   0.049  12.793
44568SOL    HW135601  11.164  14.847  12.776
44568SOL    HW235602  11.136   0.113  12.796
44569SOL     OW35603   8.782   7.044  10.287
44569SOL    HW135604   8.765   7.053  10.381
44569SOL    HW235605   8.824   6.958  10.278
44570SOL     OW35606   4.456  11.429   3.491
44570SOL    HW135607   4.411  11.374   3.556
44570SOL    HW235608   4.548  11.424   3.516
44571SOL     OW35609   1.852   8.170   0.909
44571SOL    HW135610   1.800   8.243   0.876
44571SOL    HW235611   1.833   8.166   1.003
44572SOL     OW35612   5.318   7.690   4.289
44572SOL    HW135613   5.409   7.661   4.292
44572SOL    HW235614   5.319   7.778   4.326
44573SOL     OW35615   0.754   5.894   3.484
44573SOL    HW135616   0.805   5.838   3.426
44573SOL    HW235617   0.746   5.843   3.565
44574SOL     OW35618   5.864  12.537   3.684
44574SOL    HW135619   5.938  12.476   3.691
44574SOL    HW235620   5.852  12.548   3.590
44575SOL     OW35621   1.239   3.485   7.496
44575SOL    HW135622   1.197   3.552   7.442
44575SOL    HW235623   1.333   3.501   7.484
44576SOL     OW35624  14.434   1.640   9.332
44576SOL    HW135625  14.395   1.703   9.393
44576SOL    HW235626  14.379   1.644   9.254
44577SOL     OW35627   3.454   5.528   9.983
44577SOL    HW135628   3.424   5.441  10.010
44577SOL    HW235629   3.549   5.519   9.976
44578SOL     OW35630  10.972  13.465   1.822
44578SOL    HW135631  10.973  13.464   1.727
44578SOL    HW235632  11.006  13.380   1.848
44579SOL     OW35633  10.696  13.095   6.712
44579SOL    HW135634  10.678  13.053   6.629
44579SOL    HW235635  10.704  13.188   6.691
44580SOL     OW35636   0.702   0.008   1.052
44580SOL    HW135637   0.673  14.803   1.024
44580SOL    HW235638   0.625   0.064   1.042
44581SOL     OW35639   1.986  12.772   9.315
44581SOL    HW135640   1.921  12.766   9.245
44581SOL    HW235641   1.961  12.851   9.364
44582SOL     OW35642   8.523   3.940   0.222
44582SOL    HW135643   8.602   3.976   0.262
44582SOL    HW235644   8.516   3.852   0.257
44583SOL     OW35645  14.470   9.988  13.792
44583SOL    HW135646  14.458  10.063  13.850
44583SOL    HW235647  14.444  10.020  13.706
44584SOL     OW35648   7.767  10.488   6.997
44584SOL    HW135649   7.785  10.560   7.058
44584SOL    HW235650   7.721  10.530   6.924
44585SOL     OW35651  11.869  11.171   4.249
44585SOL    HW135652  11.786  11.139   4.284
44585SOL    HW235653  11.847  11.253   4.206
44586SOL     OW35654   7.034   3.316  11.169
44586SOL    HW135655   6.965   3.382  11.173
44586SOL    HW235656   7.115   3.366  11.159
44587SOL     OW35657   3.304   5.542   1.036
44587SOL    HW135658   3.284   5.556   1.129
44587SOL    HW235659   3.310   5.630   1.000
44588SOL     OW35660   1.727   1.705  12.091
44588SOL    HW135661   1.768   1.753  12.163
44588SOL    HW235662   1.664   1.647  12.134
44589SOL     OW35663   2.058   1.781   6.396
44589SOL    HW135664   2.050   1.860   6.342
44589SOL    HW235665   2.123   1.804   6.463
44590SOL     OW35666   6.040   8.031   6.944
44590SOL    HW135667   6.053   8.126   6.942
44590SOL    HW235668   5.950   8.020   6.975
44591SOL     OW35669  12.901   4.673   2.336
44591SOL    HW135670  12.948   4.653   2.417
44591SOL    HW235671  12.895   4.589   2.291
44592SOL     OW35672   0.480  14.276  11.090
44592SOL    HW135673   0.573  14.294  11.098
44592SOL    HW235674   0.448  14.340  11.026
44593SOL     OW35675   0.118  12.760   0.578
44593SOL    HW135676   0.197  12.762   0.631
44593SOL    HW235677   0.149  12.750   0.489
44594SOL     OW35678   5.988  12.977   2.561
44594SOL    HW135679   6.030  13.046   2.612
44594SOL    HW235680   5.927  12.936   2.622
44595SOL     OW35681   1.877  14.046   8.196
44595SOL    HW135682   1.914  14.081   8.115
44595SOL    HW235683   1.805  14.106   8.217
44596SOL     OW35684   0.341   1.932   9.900
44596SOL    HW135685   0.331   1.909   9.992
44596SOL    HW235686   0.429   1.970   9.895
44597SOL     OW35687  11.566   3.899  10.682
44597SOL    HW135688  11.575   3.994  10.688
44597SOL    HW235689  11.560   3.869  10.772
44598SOL     OW35690   5.411  11.903  12.374
44598SOL    HW135691   5.457  11.819  12.365
44598SOL    HW235692   5.327  11.880  12.412
44599SOL     OW35693  12.198  13.283  14.102
44599SOL    HW135694  12.200  13.332  14.185
44599SOL    HW235695  12.149  13.204  14.123
44600SOL     OW35696   4.124   1.820   9.066
44600SOL    HW135697   4.157   1.909   9.081
44600SOL    HW235698   4.042   1.816   9.116
44601SOL     OW35699   1.328   1.531   7.879
44601SOL    HW135700   1.291   1.476   7.949
44601SOL    HW235701   1.336   1.471   7.805
44602SOL     OW35702  13.542  11.831   1.872
44602SOL    HW135703  13.634  11.860   1.870
44602SOL    HW235704  13.534  11.785   1.956
44603SOL     OW35705  10.278   5.514  14.880
44603SOL    HW135706  10.315   5.562  14.806
44603SOL    HW235707  10.185   5.504  14.858
44604SOL     OW35708   4.327   4.217  11.516
44604SOL    HW135709   4.252   4.242  11.570
44604SOL    HW235710   4.291   4.205  11.428
44605SOL     OW35711   3.129  14.366  13.653
44605SOL    HW135712   3.086  14.358  13.738
44605SOL    HW235713   3.104  14.453  13.622
44606SOL     OW35714   7.940   4.333  14.290
44606SOL    HW135715   7.888   4.339  14.370
44606SOL    HW235716   8.029   4.316  14.321
44607SOL     OW35717   8.980  12.405   7.889
44607SOL    HW135718   9.065  12.402   7.933
44607SOL    HW235719   8.921  12.357   7.947
44608SOL     OW35720   8.255  13.380  10.919
44608SOL    HW135721   8.247  13.287  10.894
44608SOL    HW235722   8.205  13.387  11.000
44609SOL     OW35723  13.026  10.917   8.886
44609SOL    HW135724  12.936  10.905   8.915
44609SOL    HW235725  13.075  10.847   8.929
44610SOL     OW35726   2.223   6.526  13.233
44610SOL    HW135727   2.261   6.600  13.186
44610SOL    HW235728   2.184   6.472  13.165
44611SOL     OW35729  13.771   1.990   7.550
44611SOL    HW135730  13.682   2.004   7.583
44611SOL    HW235731  13.818   2.070   7.573
44612SOL     OW35732   8.498  12.336   0.590
44612SOL    HW135733   8.442  12.274   0.543
44612SOL    HW235734   8.584  12.295   0.593
44613SOL     OW35735   4.910   4.045   9.271
44613SOL    HW135736   4.974   4.089   9.216
44613SOL    HW235737   4.950   4.041   9.357
44614SOL     OW35738  11.736   0.811  13.687
44614SOL    HW135739  11.714   0.867  13.762
44614SOL    HW235740  11.731   0.722  13.722
44615SOL     OW35741   6.860   2.699   9.139
44615SOL    HW135742   6.807   2.639   9.085
44615SOL    HW235743   6.933   2.724   9.082
44616SOL     OW35744   3.939   6.945   3.042
44616SOL    HW135745   3.882   6.981   3.109
44616SOL    HW235746   3.945   6.852   3.062
44617SOL     OW35747   3.772   6.293   0.037
44617SOL    HW135748   3.812   6.234  14.855
44617SOL    HW235749   3.841   6.311   0.100
44618SOL     OW35750  12.343  14.169  14.453
44618SOL    HW135751  12.316  14.204  14.369
44618SOL    HW235752  12.418  14.222  14.479
44619SOL     OW35753   2.521   2.647  13.790
44619SOL    HW135754   2.445   2.639  13.848
44619SOL    HW235755   2.563   2.728  13.817
44620SOL     OW35756  14.795  11.448  13.104
44620SOL    HW135757  14.862  11.410  13.046
44620SOL    HW235758  14.809  11.405  13.188
44621SOL     OW35759  11.032   5.500   4.469
44621SOL    HW135760  11.087   5.550   4.529
44621SOL    HW235761  11.087   5.485   4.392
44622SOL     OW35762  14.807   8.806  14.325
44622SOL    HW135763  14.803   8.842  14.413
44622SOL    HW235764   0.013   8.769  14.319
44623SOL     OW35765   7.712   5.294   4.172
44623SOL    HW135766   7.785   5.349   4.145
44623SOL    HW235767   7.639   5.320   4.115
44624SOL     OW35768   1.721   9.771  13.381
44624SOL    HW135769   1.771   9.853  13.377
44624SOL    HW235770   1.758   9.724  13.456
44625SOL     OW35771   2.274   7.735  10.749
44625SOL    HW135772   2.278   7.704  10.659
44625SOL    HW235773   2.332   7.811  10.751
44626SOL     OW35774   9.893   8.260  12.299
44626SOL    HW135775   9.932   8.341  12.330
44626SOL    HW235776   9.904   8.198  12.371
44627SOL     OW35777   2.922   0.800   1.104
44627SOL    HW135778   2.930   0.705   1.096
44627SOL    HW235779   2.829   0.818   1.091
44628SOL     OW35780   2.023  12.811   5.411
44628SOL    HW135781   2.067  12.896   5.400
44628SOL    HW235782   1.934  12.833   5.436
44629SOL     OW35783   1.355  14.557   8.681
44629SOL    HW135784   1.334  14.642   8.720
44629SOL    HW235785   1.331  14.567   8.589
44630SOL     OW35786   7.517   0.553   7.088
44630SOL    HW135787   7.534   0.540   7.182
44630SOL    HW235788   7.582   0.497   7.045
44631SOL     OW35789   6.916   0.694  10.148
44631SOL    HW135790   6.890   0.604  10.164
44631SOL    HW235791   6.958   0.693  10.062
44632SOL     OW35792   5.641   6.598   0.921
44632SOL    HW135793   5.600   6.629   0.841
44632SOL    HW235794   5.580   6.534   0.957
44633SOL     OW35795   6.857  11.481   3.194
44633SOL    HW135796   6.868  11.546   3.262
44633SOL    HW235797   6.829  11.531   3.117
44634SOL     OW35798  12.869   0.128   4.729
44634SOL    HW135799  12.874   0.040   4.693
44634SOL    HW235800  12.904   0.121   4.817
44635SOL     OW35801   6.805  11.920  11.384
44635SOL    HW135802   6.729  11.955  11.430
44635SOL    HW235803   6.880  11.948  11.435
44636SOL     OW35804  11.557  11.606  12.926
44636SOL    HW135805  11.534  11.686  12.973
44636SOL    HW235806  11.652  11.611  12.915
44637SOL     OW35807   0.500  13.339   0.839
44637SOL    HW135808   0.471  13.364   0.751
44637SOL    HW235809   0.562  13.267   0.824
44638SOL     OW35810   3.839   7.795   5.042
44638SOL    HW135811   3.926   7.809   5.005
44638SOL    HW235812   3.832   7.860   5.112
44639SOL     OW35813   6.069   4.409   5.954
44639SOL    HW135814   6.094   4.435   6.043
44639SOL    HW235815   6.038   4.490   5.913
44640SOL     OW35816   4.184   6.306   7.976
44640SOL    HW135817   4.179   6.218   8.015
44640SOL    HW235818   4.163   6.292   7.883
44641SOL     OW35819   0.771   4.734  11.299
44641SOL    HW135820   0.706   4.798  11.327
44641SOL    HW235821   0.719   4.659  11.270
44642SOL     OW35822   7.816  11.440   5.128
44642SOL    HW135823   7.817  11.360   5.075
44642SOL    HW235824   7.862  11.415   5.208
44643SOL     OW35825   5.039   1.569  12.628
44643SOL    HW135826   5.062   1.504  12.561
44643SOL    HW235827   5.050   1.523  12.711
44644SOL     OW35828   8.163  14.190   6.916
44644SOL    HW135829   8.071  14.217   6.919
44644SOL    HW235830   8.202  14.244   6.847
44645SOL     OW35831  13.587  14.527   5.214
44645SOL    HW135832  13.587  14.508   5.120
44645SOL    HW235833  13.680  14.532   5.238
44646SOL     OW35834   1.514  13.347  13.850
44646SOL    HW135835   1.608  13.356  13.835
44646SOL    HW235836   1.475  13.345  13.763
44647SOL     OW35837   2.560   2.167   8.461
44647SOL    HW135838   2.500   2.128   8.398
44647SOL    HW235839   2.504   2.194   8.534
44648SOL     OW35840   3.571   7.062   6.499
44648SOL    HW135841   3.579   6.969   6.478
44648SOL    HW235842   3.660   7.089   6.521
44649SOL     OW35843  13.704   1.943  12.124
44649SOL    HW135844  13.622   1.894  12.139
44649SOL    HW235845  13.760   1.919  12.197
44650SOL     OW35846  10.836  13.369   9.058
44650SOL    HW135847  10.878  13.285   9.040
44650SOL    HW235848  10.899  13.434   9.027
44651SOL     OW35849   2.039   7.764   6.900
44651SOL    HW135850   2.016   7.786   6.810
44651SOL    HW235851   2.126   7.723   6.894
44652SOL     OW35852   6.475  13.180  13.019
44652SOL    HW135853   6.443  13.149  13.104
44652SOL    HW235854   6.443  13.116  12.956
44653SOL     OW35855   6.914   5.959   3.951
44653SOL    HW135856   6.936   5.871   3.983
44653SOL    HW235857   6.818   5.959   3.945
44654SOL     OW35858   9.007   0.672   0.651
44654SOL    HW135859   8.951   0.735   0.696
44654SOL    HW235860   9.029   0.715   0.568
44655SOL     OW35861  12.722   8.328   0.542
44655SOL    HW135862  12.711   8.234   0.555
44655SOL    HW235863  12.782   8.356   0.612
44656SOL     OW35864   5.933  12.516   5.843
44656SOL    HW135865   5.923  12.595   5.790
44656SOL    HW235866   5.922  12.546   5.933
44657SOL     OW35867  14.476   8.071   4.927
44657SOL    HW135868  14.402   8.132   4.919
44657SOL    HW235869  14.525   8.082   4.845
44658SOL     OW35870   4.111   0.179   6.059
44658SOL    HW135871   4.189   0.189   6.005
44658SOL    HW235872   4.110   0.258   6.114
44659SOL     OW35873   4.203  12.108   5.707
44659SOL    HW135874   4.273  12.063   5.660
44659SOL    HW235875   4.122  12.070   5.671
44660SOL     OW35876   0.088   1.832   3.369
44660SOL    HW135877   0.089   1.775   3.447
44660SOL    HW235878   0.004   1.877   3.374
44661SOL     OW35879  14.205  12.138   8.165
44661SOL    HW135880  14.170  12.076   8.101
44661SOL    HW235881  14.176  12.224   8.134
44662SOL     OW35882  10.312   6.970  13.557
44662SOL    HW135883  10.337   6.878  13.558
44662SOL    HW235884  10.324   6.997  13.466
44663SOL     OW35885  12.131   0.319   8.203
44663SOL    HW135886  12.176   0.299   8.121
44663SOL    HW235887  12.119   0.235   8.246
44664SOL     OW35888   9.941   9.976   5.636
44664SOL    HW135889   9.919  10.065   5.608
44664SOL    HW235890  10.033   9.966   5.612
44665SOL     OW35891   6.993   6.604  12.121
44665SOL    HW135892   7.037   6.536  12.172
44665SOL    HW235893   6.917   6.560  12.082
44666SOL     OW35894   0.821   7.161   7.382
44666SOL    HW135895   0.815   7.237   7.324
44666SOL    HW235896   0.910   7.164   7.417
44667SOL     OW35897   7.654   4.132   1.731
44667SOL    HW135898   7.720   4.158   1.666
44667SOL    HW235899   7.572   4.133   1.682
44668SOL     OW35900   7.657   8.846  13.079
44668SOL    HW135901   7.710   8.880  13.151
44668SOL    HW235902   7.696   8.883  13.000
44669SOL     OW35903  12.677  10.995   0.176
44669SOL    HW135904  12.746  11.033   0.120
44669SOL    HW235905  12.619  11.068   0.195
44670SOL     OW35906   6.331  12.972   1.200
44670SOL    HW135907   6.313  12.925   1.282
44670SOL    HW235908   6.371  12.906   1.143
44671SOL     OW35909  10.346  10.906  14.235
44671SOL    HW135910  10.347  10.978  14.298
44671SOL    HW235911  10.437  10.876  14.232
44672SOL     OW35912   9.819   6.949   0.808
44672SOL    HW135913   9.790   6.868   0.766
44672SOL    HW235914   9.837   6.924   0.898
44673SOL     OW35915   5.597   6.664   7.631
44673SOL    HW135916   5.515   6.711   7.614
44673SOL    HW235917   5.570   6.573   7.642
44674SOL     OW35918   6.652   6.547   1.818
44674SOL    HW135919   6.630   6.610   1.749
44674SOL    HW235920   6.585   6.561   1.885
44675SOL     OW35921   8.840   4.508  11.352
44675SOL    HW135922   8.760   4.531  11.399
44675SOL    HW235923   8.904   4.490  11.420
44676SOL     OW35924   9.551  14.249   3.975
44676SOL    HW135925   9.625  14.280   3.923
44676SOL    HW235926   9.495  14.204   3.912
44677SOL     OW35927   3.333   6.245  10.074
44677SOL    HW135928   3.404   6.212  10.019
44677SOL    HW235929   3.255   6.199  10.043
44678SOL     OW35930   1.051   0.108   2.053
44678SOL    HW135931   0.984   0.103   2.121
44678SOL    HW235932   1.002   0.127   1.973
44679SOL     OW35933   6.173  10.526  11.371
44679SOL    HW135934   6.227  10.471  11.428
44679SOL    HW235935   6.096  10.546  11.423
44680SOL     OW35936  11.263  14.022   6.842
44680SOL    HW135937  11.284  13.939   6.798
44680SOL    HW235938  11.348  14.064   6.856
44681SOL     OW35939  12.882   3.543  11.509
44681SOL    HW135940  12.929   3.625  11.525
44681SOL    HW235941  12.809   3.568  11.452
44682SOL     OW35942   6.202  13.605   0.495
44682SOL    HW135943   6.282  13.559   0.471
44682SOL    HW235944   6.204  13.607   0.591
44683SOL     OW35945   8.819   0.317   8.604
44683SOL    HW135946   8.790   0.406   8.586
44683SOL    HW235947   8.750   0.261   8.568
44684SOL     OW35948   3.474   9.159   5.846
44684SOL    HW135949   3.452   9.094   5.779
44684SOL    HW235950   3.492   9.107   5.925
44685SOL     OW35951   5.989   5.424  11.286
44685SOL    HW135952   5.954   5.402  11.373
44685SOL    HW235953   5.919   5.397  11.226
44686SOL     OW35954   1.468   3.548  10.314
44686SOL    HW135955   1.389   3.525  10.266
44686SOL    HW235956   1.499   3.466  10.351
44687SOL     OW35957  13.666  14.311   6.751
44687SOL    HW135958  13.605  14.252   6.795
44687SOL    HW235959  13.752  14.274   6.770
44688SOL     OW35960  10.900   8.268   0.413
44688SOL    HW135961  10.945   8.235   0.491
44688SOL    HW235962  10.971   8.288   0.351
44689SOL     OW35963   8.236   2.848   3.456
44689SOL    HW135964   8.234   2.877   3.365
44689SOL    HW235965   8.226   2.928   3.507
44690SOL     OW35966   5.332   2.985   8.471
44690SOL    HW135967   5.360   2.894   8.458
44690SOL    HW235968   5.392   3.019   8.538
44691SOL     OW35969  10.933   8.869  10.084
44691SOL    HW135970  10.950   8.813  10.160
44691SOL    HW235971  10.873   8.817  10.030
44692SOL     OW35972  10.816   7.952   8.557
44692SOL    HW135973  10.811   8.030   8.503
44692SOL    HW235974  10.906   7.920   8.545
44693SOL     OW35975   1.235  13.113   6.066
44693SOL    HW135976   1.189  13.178   6.119
44693SOL    HW235977   1.200  13.124   5.978
44694SOL     OW35978   3.813  12.913   4.921
44694SOL    HW135979   3.866  12.903   5.000
44694SOL    HW235980   3.856  12.983   4.872
44695SOL     OW35981  12.849   0.908   5.330
44695SOL    HW135982  12.885   0.826   5.362
44695SOL    HW235983  12.910   0.975   5.361
44696SOL     OW35984  11.758   0.562   9.135
44696SOL    HW135985  11.706   0.484   9.154
44696SOL    HW235986  11.702   0.635   9.162
44697SOL     OW35987   2.761   5.937  12.843
44697SOL    HW135988   2.729   5.965  12.929
44697SOL    HW235989   2.744   5.843  12.841
44698SOL     OW35990   7.542   4.802   0.655
44698SOL    HW135991   7.580   4.720   0.623
44698SOL    HW235992   7.569   4.807   0.747
44699SOL     OW35993   0.636   4.152  12.598
44699SOL    HW135994   0.661   4.185  12.684
44699SOL    HW235995   0.651   4.226  12.539
44700SOL     OW35996  13.280   5.896   5.747
44700SOL    HW135997  13.193   5.934   5.756
44700SOL    HW235998  13.277   5.850   5.663
44701SOL     OW35999  11.176   3.426   1.623
44701SOL    HW136000  11.087   3.460   1.616
44701SOL    HW236001  11.204   3.413   1.532
44702SOL     OW36002  13.131   9.826   4.467
44702SOL    HW136003  13.115   9.814   4.374
44702SOL    HW236004  13.044   9.826   4.507
44703SOL     OW36005   3.788   8.665   6.808
44703SOL    HW136006   3.753   8.705   6.888
44703SOL    HW236007   3.744   8.580   6.802
44704SOL     OW36008   4.182   5.886   9.450
44704SOL    HW136009   4.263   5.937   9.460
44704SOL    HW236010   4.129   5.937   9.388
44705SOL     OW36011  12.619   2.092   3.060
44705SOL    HW136012  12.627   2.182   3.093
44705SOL    HW236013  12.527   2.070   3.074
44706SOL     OW36014  11.393  12.743   9.592
44706SOL    HW136015  11.384  12.740   9.687
44706SOL    HW236016  11.395  12.652   9.564
44707SOL     OW36017  12.784   5.351  11.257
44707SOL    HW136018  12.723   5.411  11.299
44707SOL    HW236019  12.808   5.288  11.325
44708SOL     OW36020   5.470   2.780   3.816
44708SOL    HW136021   5.384   2.767   3.776
44708SOL    HW236022   5.467   2.869   3.850
44709SOL     OW36023   1.368  11.659   9.992
44709SOL    HW136024   1.337  11.619  10.073
44709SOL    HW236025   1.462  11.669  10.004
44710SOL     OW36026   8.053  10.638  11.762
44710SOL    HW136027   8.053  10.734  11.767
44710SOL    HW236028   8.005  10.618  11.682
44711SOL     OW36029  12.771   8.998   0.502
44711SOL    HW136030  12.796   8.970   0.590
44711SOL    HW236031  12.852   9.028   0.462
44712SOL     OW36032   5.676   5.018   1.276
44712SOL    HW136033   5.588   4.983   1.293
44712SOL    HW236034   5.721   5.009   1.360
44713SOL     OW36035  11.210   3.019   9.619
44713SOL    HW136036  11.119   2.995   9.603
44713SOL    HW236037  11.222   3.101   9.571
44714SOL     OW36038   0.350   3.588   5.296
44714SOL    HW136039   0.350   3.513   5.355
44714SOL    HW236040   0.268   3.580   5.247
44715SOL     OW36041  11.245  10.088   8.874
44715SOL    HW136042  11.299  10.012   8.849
44715SOL    HW236043  11.266  10.155   8.808
44716SOL     OW36044   0.286  13.801  13.380
44716SOL    HW136045   0.335  13.811  13.298
44716SOL    HW236046   0.323  13.723  13.421
44717SOL     OW36047   7.408   4.976   6.528
44717SOL    HW136048   7.417   5.014   6.615
44717SOL    HW236049   7.380   4.886   6.544
44718SOL     OW36050   9.489  13.680   2.022
44718SOL    HW136051   9.547  13.608   2.046
44718SOL    HW236052   9.545  13.740   1.973
44719SOL     OW36053   1.574   5.525   0.460
44719SOL    HW136054   1.496   5.564   0.500
44719SOL    HW236055   1.647   5.566   0.506
44720SOL     OW36056   4.232   5.620   1.283
44720SOL    HW136057   4.181   5.697   1.261
44720SOL    HW236058   4.171   5.547   1.274
44721SOL     OW36059   8.055   3.997  13.210
44721SOL    HW136060   8.016   4.035  13.131
44721SOL    HW236061   7.988   3.938  13.244
44722SOL     OW36062  13.440   0.568  14.316
44722SOL    HW136063  13.362   0.563  14.371
44722SOL    HW236064  13.453   0.479  14.284
44723SOL     OW36065   0.117  10.559  11.190
44723SOL    HW136066   0.112  10.464  11.196
44723SOL    HW236067   0.031  10.586  11.157
44724SOL     OW36068   5.274   4.294   0.655
44724SOL    HW136069   5.365   4.277   0.682
44724SOL    HW236070   5.269   4.261   0.565
44725SOL     OW36071   3.898   1.897   9.564
44725SOL    HW136072   3.809   1.903   9.530
44725SOL    HW236073   3.936   1.983   9.546
44726SOL     OW36074   0.671  14.757  12.103
44726SOL    HW136075   0.668  14.815  12.028
44726SOL    HW236076   0.729  14.801  12.166
44727SOL     OW36077   2.754   1.583   2.674
44727SOL    HW136078   2.724   1.667   2.638
44727SOL    HW236079   2.777   1.603   2.765
44728SOL     OW36080   3.546   9.596   6.280
44728SOL    HW136081   3.474   9.547   6.240
44728SOL    HW236082   3.625   9.559   6.239
44729SOL     OW36083   5.761   9.751   6.351
44729SOL    HW136084   5.678   9.734   6.305
44729SOL    HW236085   5.737   9.815   6.418
44730SOL     OW36086   2.366   1.205   6.042
44730SOL    HW136087   2.364   1.272   5.973
44730SOL    HW236088   2.345   1.252   6.122
44731SOL     OW36089   7.750   5.386  11.501
44731SOL    HW136090   7.837   5.372  11.463
44731SOL    HW236091   7.748   5.331  11.579
44732SOL     OW36092  13.088   8.913  12.219
44732SOL    HW136093  13.039   8.962  12.153
44732SOL    HW236094  13.069   8.960  12.301
44733SOL     OW36095   4.873   3.561   8.149
44733SOL    HW136096   4.907   3.471   8.156
44733SOL    HW236097   4.951   3.614   8.135
44734SOL     OW36098   1.710  11.487  12.170
44734SOL    HW136099   1.669  11.566  12.134
44734SOL    HW236100   1.720  11.506  12.264
44735SOL     OW36101   4.678  10.550   9.262
44735SOL    HW136102   4.748  10.613   9.277
44735SOL    HW236103   4.723  10.473   9.227
44736SOL     OW36104   2.321   2.253   5.975
44736SOL    HW136105   2.416   2.250   5.989
44736SOL    HW236106   2.312   2.254   5.880
44737SOL     OW36107   4.048   7.623   3.486
44737SOL    HW136108   4.141   7.621   3.510
44737SOL    HW236109   4.048   7.658   3.397
44738SOL     OW36110  13.184   2.507  12.387
44738SOL    HW136111  13.106   2.483  12.436
44738SOL    HW236112  13.248   2.530  12.455
44739SOL     OW36113   8.017   9.897  13.381
44739SOL    HW136114   8.090   9.887  13.443
44739SOL    HW236115   7.969   9.815  13.387
44740SOL     OW36116   7.239   7.714   0.512
44740SOL    HW136117   7.192   7.778   0.566
44740SOL    HW236118   7.330   7.721   0.540
44741SOL     OW36119  10.345  12.583   8.739
44741SOL    HW136120  10.393  12.578   8.822
44741SOL    HW236121  10.310  12.672   8.738
44742SOL     OW36122   3.074  13.075   9.172
44742SOL    HW136123   3.137  13.145   9.184
44742SOL    HW236124   3.057  13.043   9.260
44743SOL     OW36125   0.378   8.026   8.606
44743SOL    HW136126   0.432   8.064   8.537
44743SOL    HW236127   0.360   8.099   8.665
44744SOL     OW36128   7.224  13.561  10.049
44744SOL    HW136129   7.203  13.521   9.965
44744SOL    HW236130   7.170  13.640  10.052
44745SOL     OW36131   5.655   5.268   9.394
44745SOL    HW136132   5.634   5.186   9.349
44745SOL    HW236133   5.582   5.280   9.456
44746SOL     OW36134   4.430   8.959   3.972
44746SOL    HW136135   4.417   8.884   4.031
44746SOL    HW236136   4.520   8.987   3.987
44747SOL     OW36137  10.371   6.545  10.051
44747SOL    HW136138  10.380   6.449  10.056
44747SOL    HW236139  10.458   6.576  10.025
44748SOL     OW36140  12.303  11.966   6.510
44748SOL    HW136141  12.270  12.027   6.445
44748SOL    HW236142  12.350  11.899   6.460
44749SOL     OW36143  11.989   9.017   8.301
44749SOL    HW136144  11.929   9.052   8.235
44749SOL    HW236145  11.996   9.087   8.366
44750SOL     OW36146  12.827  11.148  11.474
44750SOL    HW136147  12.810  11.093  11.551
44750SOL    HW236148  12.791  11.234  11.498
44751SOL     OW36149   2.202   4.885  11.834
44751SOL    HW136150   2.175   4.918  11.920
44751SOL    HW236151   2.287   4.844  11.850
44752SOL     OW36152   2.867  12.711  12.543
44752SOL    HW136153   2.796  12.648  12.559
44752SOL    HW236154   2.880  12.710  12.449
44753SOL     OW36155   2.937   6.809   1.724
44753SOL    HW136156   2.876   6.877   1.697
44753SOL    HW236157   3.007   6.856   1.769
44754SOL     OW36158  13.768   7.922   0.550
44754SOL    HW136159  13.847   7.876   0.581
44754SOL    HW236160  13.770   7.910   0.455
44755SOL     OW36161  14.355   9.965   7.533
44755SOL    HW136162  14.264   9.963   7.505
44755SOL    HW236163  14.356   9.920   7.617
44756SOL     OW36164   1.502  11.540   8.802
44756SOL    HW136165   1.423  11.550   8.855
44756SOL    HW236166   1.544  11.626   8.804
44757SOL     OW36167  11.615   9.074   7.945
44757SOL    HW136168  11.664   9.055   7.865
44757SOL    HW236169  11.545   9.009   7.947
44758SOL     OW36170   9.089   4.351   4.502
44758SOL    HW136171   9.118   4.359   4.592
44758SOL    HW236172   9.125   4.428   4.458
44759SOL     OW36173   3.693   2.637   4.674
44759SOL    HW136174   3.676   2.603   4.587
44759SOL    HW236175   3.651   2.723   4.675
44760SOL     OW36176   4.088  10.228   7.034
44760SOL    HW136177   4.053  10.193   7.116
44760SOL    HW236178   4.024  10.293   7.007
44761SOL     OW36179   5.565   8.186  11.450
44761SOL    HW136180   5.606   8.101  11.463
44761SOL    HW236181   5.508   8.198  11.526
44762SOL     OW36182  10.337   3.162   1.087
44762SOL    HW136183  10.377   3.135   1.170
44762SOL    HW236184  10.246   3.133   1.094
44763SOL     OW36185   9.769   4.735  12.464
44763SOL    HW136186   9.788   4.655  12.514
44763SOL    HW236187   9.707   4.707  12.397
44764SOL     OW36188   9.608   4.780  13.646
44764SOL    HW136189   9.529   4.729  13.664
44764SOL    HW236190   9.598   4.858  13.700
44765SOL     OW36191   9.482  11.624   7.878
44765SOL    HW136192   9.427  11.648   7.952
44765SOL    HW236193   9.549  11.692   7.875
44766SOL     OW36194   4.659  12.620   0.453
44766SOL    HW136195   4.579  12.602   0.402
44766SOL    HW236196   4.628  12.627   0.543
44767SOL     OW36197  13.333  14.067   3.828
44767SOL    HW136198  13.400  14.135   3.820
44767SOL    HW236199  13.304  14.072   3.919
44768SOL     OW36200  11.450   2.323   0.167
44768SOL    HW136201  11.455   2.418   0.171
44768SOL    HW236202  11.385   2.306   0.098
44769SOL     OW36203  12.687  10.917   4.155
44769SOL    HW136204  12.612  10.888   4.207
44769SOL    HW236205  12.675  10.875   4.070
44770SOL     OW36206  11.743  11.959   8.415
44770SOL    HW136207  11.829  11.963   8.458
44770SOL    HW236208  11.760  11.921   8.329
44771SOL     OW36209   1.463  10.410   3.877
44771SOL    HW136210   1.540  10.427   3.932
44771SOL    HW236211   1.424  10.331   3.913
44772SOL     OW36212  14.246   9.882   7.781
44772SOL    HW136213  14.169   9.938   7.772
44772SOL    HW236214  14.298   9.922   7.851
44773SOL     OW36215  12.449  14.440  10.293
44773SOL    HW136216  12.423  14.454  10.202
44773SOL    HW236217  12.462  14.345  10.300
44774SOL     OW36218  11.359   4.525   8.909
44774SOL    HW136219  11.358   4.615   8.875
44774SOL    HW236220  11.428   4.526   8.976
44775SOL     OW36221   0.870   9.466   8.642
44775SOL    HW136222   0.913   9.438   8.561
44775SOL    HW236223   0.891   9.397   8.705
44776SOL     OW36224   9.119   5.255   3.433
44776SOL    HW136225   9.084   5.207   3.359
44776SOL    HW236226   9.211   5.228   3.438
44777SOL     OW36227   7.332   1.794  10.592
44777SOL    HW136228   7.268   1.846  10.544
44777SOL    HW236229   7.289   1.771  10.674
44778SOL     OW36230   5.872  12.664   3.944
44778SOL    HW136231   5.899  12.646   3.854
44778SOL    HW236232   5.789  12.710   3.936
44779SOL     OW36233  10.856   2.755   7.791
44779SOL    HW136234  10.762   2.743   7.775
44779SOL    HW236235  10.875   2.694   7.863
44780SOL     OW36236   2.996   0.248  12.562
44780SOL    HW136237   2.975   0.275  12.473
44780SOL    HW236238   3.002   0.330  12.611
44781SOL     OW36239   9.996   7.287   7.641
44781SOL    HW136240   9.963   7.272   7.730
44781SOL    HW236241   9.931   7.344   7.600
44782SOL     OW36242   6.294   2.684   9.510
44782SOL    HW136243   6.313   2.596   9.477
44782SOL    HW236244   6.328   2.683   9.600
44783SOL     OW36245   3.694   0.475  10.617
44783SOL    HW136246   3.608   0.434  10.605
44783SOL    HW236247   3.755   0.402  10.621
44784SOL     OW36248   2.316   5.864   1.714
44784SOL    HW136249   2.353   5.950   1.732
44784SOL    HW236250   2.386   5.803   1.738
44785SOL     OW36251  10.678   7.422  11.727
44785SOL    HW136252  10.669   7.489  11.795
44785SOL    HW236253  10.773   7.413  11.715
44786SOL     OW36254  12.178   9.776   1.391
44786SOL    HW136255  12.100   9.740   1.434
44786SOL    HW236256  12.165   9.870   1.392
44787SOL     OW36257  13.269  11.727   4.257
44787SOL    HW136258  13.292  11.740   4.349
44787SOL    HW236259  13.266  11.632   4.247
44788SOL     OW36260   4.191   4.445   2.827
44788SOL    HW136261   4.111   4.491   2.803
44788SOL    HW236262   4.179   4.424   2.920
44789SOL     OW36263  11.260   6.781  10.019
44789SOL    HW136264  11.201   6.706  10.010
44789SOL    HW236265  11.243   6.835   9.942
44790SOL     OW36266   6.260   1.642   2.144
44790SOL    HW136267   6.245   1.590   2.065
44790SOL    HW236268   6.246   1.732   2.117
44791SOL     OW36269   7.106  11.500   3.538
44791SOL    HW136270   7.186  11.503   3.591
44791SOL    HW236271   7.054  11.430   3.577
44792SOL     OW36272   4.862  12.193   6.942
44792SOL    HW136273   4.924  12.234   6.883
44792SOL    HW236274   4.910  12.182   7.024
44793SOL     OW36275   0.043  14.093  10.546
44793SOL    HW136276  14.846  14.113  10.497
44793SOL    HW236277   0.114  14.128  10.493
44794SOL     OW36278  10.074   8.713  10.788
44794SOL    HW136279  10.136   8.691  10.857
44794SOL    HW236280   9.997   8.660  10.808
44795SOL     OW36281  10.422  13.421   9.355
44795SOL    HW136282  10.512  13.403   9.328
44795SOL    HW236283  10.430  13.477   9.432
44796SOL     OW36284   7.174   1.955  10.256
44796SOL    HW136285   7.259   1.997  10.267
44796SOL    HW236286   7.144   1.984  10.169
44797SOL     OW36287  14.282   5.472   0.702
44797SOL    HW136288  14.213   5.498   0.640
44797SOL    HW236289  14.239   5.407   0.758
44798SOL     OW36290  11.386   8.760   3.133
44798SOL    HW136291  11.368   8.854   3.125
44798SOL    HW236292  11.303   8.723   3.162
44799SOL     OW36293  13.607  12.578   9.273
44799SOL    HW136294  13.685  12.536   9.311
44799SOL    HW236295  13.614  12.670   9.298
44800SOL     OW36296   0.708   0.317  12.358
44800SOL    HW136297   0.641   0.381  12.384
44800SOL    HW236298   0.676   0.280  12.276
44801SOL     OW36299   8.268  11.608  13.957
44801SOL    HW136300   8.298  11.682  13.905
44801SOL    HW236301   8.183  11.636  13.991
44802SOL     OW36302   6.004  12.052  12.030
44802SOL    HW136303   6.044  12.020  12.111
44802SOL    HW236304   5.910  12.035  12.041
44803SOL     OW36305   1.742   4.210   9.797
44803SOL    HW136306   1.749   4.301   9.826
44803SOL    HW236307   1.819   4.166   9.833
44804SOL     OW36308   1.373   2.051   1.646
44804SOL    HW136309   1.313   2.077   1.717
44804SOL    HW236310   1.410   1.968   1.677
44805SOL     OW36311  13.852  10.299   5.823
44805SOL    HW136312  13.802  10.261   5.751
44805SOL    HW236313  13.800  10.279   5.901
44806SOL     OW36314   1.351   5.155  12.498
44806SOL    HW136315   1.394   5.177  12.581
44806SOL    HW236316   1.263   5.189  12.506
44807SOL     OW36317  10.162  10.067   2.079
44807SOL    HW136318  10.216  10.056   2.001
44807SOL    HW236319  10.206  10.136   2.130
44808SOL     OW36320   7.483   8.610   7.228
44808SOL    HW136321   7.469   8.583   7.319
44808SOL    HW236322   7.513   8.531   7.184
44809SOL     OW36323  13.567   5.848  14.578
44809SOL    HW136324  13.542   5.922  14.633
44809SOL    HW236325  13.493   5.788  14.583
44810SOL     OW36326   4.922   6.067   8.709
44810SOL    HW136327   4.898   6.126   8.637
44810SOL    HW236328   4.978   6.119   8.765
44811SOL     OW36329   1.983   0.486  12.868
44811SOL    HW136330   2.009   0.462  12.957
44811SOL    HW236331   2.048   0.445  12.812
44812SOL     OW36332   8.799   4.755   3.935
44812SOL    HW136333   8.871   4.693   3.924
44812SOL    HW236334   8.835   4.839   3.907
44813SOL     OW36335   3.831   4.822  14.317
44813SOL    HW136336   3.797   4.820  14.228
44813SOL    HW236337   3.766   4.873  14.366
44814SOL     OW36338  11.370   3.611  10.687
44814SOL    HW136339  11.314   3.601  10.764
44814SOL    HW236340  11.354   3.700  10.657
44815SOL     OW36341  13.367  14.476   8.186
44815SOL    HW136342  13.385  14.567   8.161
44815SOL    HW236343  13.451  14.431   8.174
44816SOL     OW36344  12.054   7.593  12.089
44816SOL    HW136345  12.118   7.645  12.041
44816SOL    HW236346  12.000   7.657  12.135
44817SOL     OW36347  14.806   2.962   2.690
44817SOL    HW136348  14.730   2.968   2.748
44817SOL    HW236349  14.775   2.996   2.606
44818SOL     OW36350   4.962   9.918   4.763
44818SOL    HW136351   4.931   9.869   4.838
44818SOL    HW236352   4.982  10.005   4.797
44819SOL     OW36353  10.163   2.070  11.280
44819SOL    HW136354  10.083   2.122  11.280
44819SOL    HW236355  10.135   1.982  11.255
44820SOL     OW36356   7.281   8.893  11.768
44820SOL    HW136357   7.311   8.957  11.704
44820SOL    HW236358   7.354   8.885  11.830
44821SOL     OW36359  14.490   7.204   2.401
44821SOL    HW136360  14.436   7.258   2.459
44821SOL    HW236361  14.429   7.141   2.363
44822SOL     OW36362   9.121   2.113   6.974
44822SOL    HW136363   9.123   2.206   6.994
44822SOL    HW236364   9.046   2.102   6.916
44823SOL     OW36365   1.664   1.197   0.497
44823SOL    HW136366   1.670   1.161   0.585
44823SOL    HW236367   1.711   1.135   0.442
44824SOL     OW36368  11.753  12.860   7.786
44824SOL    HW136369  11.730  12.947   7.819
44824SOL    HW236370  11.821  12.830   7.847
44825SOL     OW36371  11.527   1.998   5.186
44825SOL    HW136372  11.584   2.062   5.145
44825SOL    HW236373  11.442   2.012   5.145
44826SOL     OW36374   7.415   9.429  13.022
44826SOL    HW136375   7.377   9.355  12.974
44826SOL    HW236376   7.365   9.433  13.103
44827SOL     OW36377   7.373  14.504  12.797
44827SOL    HW136378   7.327  14.444  12.738
44827SOL    HW236379   7.455  14.524  12.751
44828SOL     OW36380  13.466   9.780  10.734
44828SOL    HW136381  13.417   9.717  10.787
44828SOL    HW236382  13.437   9.866  10.765
44829SOL     OW36383  10.651   5.925  14.431
44829SOL    HW136384  10.625   5.965  14.514
44829SOL    HW236385  10.605   5.841  14.430
44830SOL     OW36386   9.784   2.509   2.067
44830SOL    HW136387   9.709   2.480   2.016
44830SOL    HW236388   9.770   2.474   2.154
44831SOL     OW36389   1.246  14.555  10.904
44831SOL    HW136390   1.219  14.492  10.837
44831SOL    HW236391   1.207  14.522  10.985
44832SOL     OW36392  10.142   1.684   6.783
44832SOL    HW136393  10.068   1.736   6.813
44832SOL    HW236394  10.102   1.615   6.729
44833SOL     OW36395   9.915  12.136   4.988
44833SOL    HW136396   9.857  12.187   4.932
44833SOL    HW236397   9.880  12.047   4.985
44834SOL     OW36398   1.366   8.033   1.091
44834SOL    HW136399   1.320   7.969   1.037
44834SOL    HW236400   1.304   8.057   1.159
44835SOL     OW36401   3.791  14.717   1.843
44835SOL    HW136402   3.843  14.665   1.782
44835SOL    HW236403   3.843  14.720   1.923
44836SOL     OW36404   9.943   7.299   1.513
44836SOL    HW136405   9.850   7.284   1.531
44836SOL    HW236406   9.986   7.283   1.597
44837SOL     OW36407   9.465  10.498  11.068
44837SOL    HW136408   9.558  10.500  11.091
44837SOL    HW236409   9.420  10.533  11.145
44838SOL     OW36410   1.221  14.484   5.089
44838SOL    HW136411   1.312  14.512   5.083
44838SOL    HW236412   1.210  14.459   5.181
44839SOL     OW36413  12.919   7.391   4.164
44839SOL    HW136414  12.856   7.326   4.133
44839SOL    HW236415  12.893   7.472   4.121
44840SOL     OW36416   6.363  11.863  11.500
44840SOL    HW136417   6.313  11.849  11.580
44840SOL    HW236418   6.386  11.775  11.470
44841SOL     OW36419   2.228   1.407   5.902
44841SOL    HW136420   2.140   1.436   5.880
44841SOL    HW236421   2.283   1.439   5.830
44842SOL     OW36422   3.996   1.623   8.889
44842SOL    HW136423   4.030   1.699   8.935
44842SOL    HW236424   3.999   1.552   8.953
44843SOL     OW36425   0.265   3.636   6.725
44843SOL    HW136426   0.306   3.717   6.757
44843SOL    HW236427   0.227   3.596   6.803
44844SOL     OW36428  12.447  12.684   3.788
44844SOL    HW136429  12.534  12.645   3.782
44844SOL    HW236430  12.389  12.610   3.803
44845SOL     OW36431   9.005   1.480  12.395
44845SOL    HW136432   9.047   1.468  12.309
44845SOL    HW236433   9.035   1.405  12.447
44846SOL     OW36434   0.957   9.293  14.724
44846SOL    HW136435   0.910   9.284  14.807
44846SOL    HW236436   0.947   9.385  14.701
44847SOL     OW36437   2.661   3.552   0.344
44847SOL    HW136438   2.684   3.618   0.410
44847SOL    HW236439   2.677   3.595   0.261
44848SOL     OW36440   3.517   8.806   1.296
44848SOL    HW136441   3.437   8.841   1.337
44848SOL    HW236442   3.535   8.725   1.344
44849SOL     OW36443  10.497   7.056   0.542
44849SOL    HW136444  10.495   7.019   0.454
44849SOL    HW236445  10.514   6.981   0.599
44850SOL     OW36446   0.012   2.567   6.080
44850SOL    HW136447   0.029   2.524   6.164
44850SOL    HW236448  14.881   2.495   6.019
44851SOL     OW36449  11.764   8.975  13.971
44851SOL    HW136450  11.751   8.887  13.934
44851SOL    HW236451  11.705   9.031  13.921
44852SOL     OW36452   5.169   4.023  11.593
44852SOL    HW136453   5.114   3.968  11.537
44852SOL    HW236454   5.257   3.990  11.580
44853SOL     OW36455  13.158  14.599   4.135
44853SOL    HW136456  13.217  14.638   4.199
44853SOL    HW236457  13.163  14.656   4.059
44854SOL     OW36458  10.340  13.783   1.315
44854SOL    HW136459  10.386  13.841   1.376
44854SOL    HW236460  10.410  13.733   1.272
44855SOL     OW36461   6.859  14.179  13.047
44855SOL    HW136462   6.783  14.179  13.106
44855SOL    HW236463   6.853  14.095  13.001
44856SOL     OW36464   2.818  10.127   6.347
44856SOL    HW136465   2.815  10.186   6.271
44856SOL    HW236466   2.733  10.138   6.389
44857SOL     OW36467   3.037  10.197   7.316
44857SOL    HW136468   3.080  10.282   7.302
44857SOL    HW236469   2.963  10.197   7.255
44858SOL     OW36470   9.127  10.194  13.776
44858SOL    HW136471   9.082  10.156  13.700
44858SOL    HW236472   9.152  10.282  13.747
44859SOL     OW36473   0.289  10.967  13.562
44859SOL    HW136474   0.323  10.970  13.473
44859SOL    HW236475   0.253  11.055  13.577
44860SOL     OW36476   3.868   3.011   1.762
44860SOL    HW136477   3.907   3.076   1.820
44860SOL    HW236478   3.788   2.984   1.808
44861SOL     OW36479   7.369  10.307   5.800
44861SOL    HW136480   7.291  10.298   5.746
44861SOL    HW236481   7.386  10.218   5.833
44862SOL     OW36482  11.353   5.704  12.686
44862SOL    HW136483  11.320   5.764  12.752
44862SOL    HW236484  11.348   5.618  12.728
44863SOL     OW36485  10.000   1.290   0.144
44863SOL    HW136486  10.021   1.328   0.229
44863SOL    HW236487   9.962   1.205   0.165
44864SOL     OW36488   6.027   2.069   3.306
44864SOL    HW136489   6.065   2.021   3.232
44864SOL    HW236490   6.096   2.129   3.334
44865SOL     OW36491  11.625   1.024  11.162
44865SOL    HW136492  11.601   0.939  11.197
44865SOL    HW236493  11.720   1.028  11.171
44866SOL     OW36494  13.083   1.454   7.569
44866SOL    HW136495  13.066   1.380   7.628
44866SOL    HW236496  12.996   1.486   7.546
44867SOL     OW36497  12.562   6.071  12.363
44867SOL    HW136498  12.585   6.074  12.456
44867SOL    HW236499  12.466   6.077  12.362
44868SOL     OW36500   5.477  14.370  14.090
44868SOL    HW136501   5.559  14.333  14.057
44868SOL    HW236502   5.445  14.305  14.153
44869SOL     OW36503   0.738  14.097   2.000
44869SOL    HW136504   0.757  14.105   1.906
44869SOL    HW236505   0.824  14.098   2.042
44870SOL     OW36506   3.566   9.063  11.287
44870SOL    HW136507   3.576   8.984  11.234
44870SOL    HW236508   3.618   9.047  11.365
44871SOL     OW36509   8.915   4.322   2.260
44871SOL    HW136510   9.006   4.313   2.287
44871SOL    HW236511   8.919   4.348   2.168
44872SOL     OW36512   1.422  13.893   9.442
44872SOL    HW136513   1.435  13.944   9.522
44872SOL    HW236514   1.397  13.957   9.376
44873SOL     OW36515  12.314  10.835  13.761
44873SOL    HW136516  12.238  10.780  13.744
44873SOL    HW236517  12.304  10.909  13.701
44874SOL     OW36518   7.791  10.801   5.097
44874SOL    HW136519   7.697  10.805   5.086
44874SOL    HW236520   7.826  10.790   5.008
44875SOL     OW36521   4.869   5.246   1.477
44875SOL    HW136522   4.829   5.331   1.495
44875SOL    HW236523   4.809   5.182   1.515
44876SOL     OW36524   9.379  12.171   4.229
44876SOL    HW136525   9.370  12.080   4.259
44876SOL    HW236526   9.456  12.170   4.173
44877SOL     OW36527   5.491  12.710   3.585
44877SOL    HW136528   5.398  12.729   3.578
44877SOL    HW236529   5.528  12.738   3.501
44878SOL     OW36530   8.193   6.547   6.129
44878SOL    HW136531   8.217   6.467   6.175
44878SOL    HW236532   8.234   6.618   6.179
44879SOL     OW36533  11.130  12.110   9.699
44879SOL    HW136534  11.044  12.147   9.717
44879SOL    HW236535  11.135  12.033   9.757
44880SOL     OW36536   7.707   8.810   3.496
44880SOL    HW136537   7.652   8.761   3.556
44880SOL    HW236538   7.646   8.862   3.444
44881SOL     OW36539  13.998  13.972  14.455
44881SOL    HW136540  14.087  13.954  14.425
44881SOL    HW236541  13.976  13.897  14.512
44882SOL     OW36542   5.281   0.538   4.058
44882SOL    HW136543   5.294   0.629   4.032
44882SOL    HW236544   5.317   0.533   4.147
44883SOL     OW36545   2.285  10.821   0.239
44883SOL    HW136546   2.198  10.854   0.260
44883SOL    HW236547   2.324  10.888   0.183
44884SOL     OW36548   4.916   8.469   9.354
44884SOL    HW136549   4.857   8.474   9.279
44884SOL    HW236550   4.910   8.555   9.396
44885SOL     OW36551   7.962   5.668   9.482
44885SOL    HW136552   7.893   5.602   9.468
44885SOL    HW236553   7.986   5.657   9.574
44886SOL     OW36554   4.159   0.701   8.895
44886SOL    HW136555   4.213   0.624   8.912
44886SOL    HW236556   4.117   0.719   8.979
44887SOL     OW36557   2.915  14.182   6.874
44887SOL    HW136558   2.913  14.086   6.868
44887SOL    HW236559   3.008  14.204   6.869
44888SOL     OW36560   6.507   0.628   6.345
44888SOL    HW136561   6.572   0.584   6.401
44888SOL    HW236562   6.555   0.700   6.305
44889SOL     OW36563  10.373  11.253   5.873
44889SOL    HW136564  10.468  11.257   5.862
44889SOL    HW236565  10.350  11.162   5.853
44890SOL     OW36566   5.037   6.992  13.269
44890SOL    HW136567   5.029   6.898  13.285
44890SOL    HW236568   5.128   7.012  13.288
44891SOL     OW36569   6.227  11.440   1.833
44891SOL    HW136570   6.132  11.444   1.844
44891SOL    HW236571   6.262  11.479   1.913
44892SOL     OW36572   0.093   5.053  11.556
44892SOL    HW136573   0.060   4.986  11.496
44892SOL    HW236574   0.100   5.132  11.503
44893SOL     OW36575   9.517   5.240  10.717
44893SOL    HW136576   9.493   5.290  10.639
44893SOL    HW236577   9.542   5.307  10.781
44894SOL     OW36578   3.616   6.828   1.787
44894SOL    HW136579   3.700   6.868   1.765
44894SOL    HW236580   3.640   6.748   1.836
44895SOL     OW36581   7.279   3.215  10.336
44895SOL    HW136582   7.328   3.221  10.254
44895SOL    HW236583   7.345   3.222  10.404
44896SOL     OW36584   9.257  14.693   8.206
44896SOL    HW136585   9.257  14.610   8.158
44896SOL    HW236586   9.256  14.760   8.138
44897SOL     OW36587  13.002   7.247   7.193
44897SOL    HW136588  13.020   7.159   7.225
44897SOL    HW236589  12.917   7.241   7.149
44898SOL     OW36590   1.296  13.398   0.241
44898SOL    HW136591   1.220  13.341   0.228
44898SOL    HW236592   1.275  13.478   0.193
44899SOL     OW36593   9.111   2.915   2.158
44899SOL    HW136594   9.086   2.922   2.066
44899SOL    HW236595   9.064   2.986   2.201
44900SOL     OW36596  11.033   0.023   3.447
44900SOL    HW136597  11.053   0.047   3.356
44900SOL    HW236598  11.081  14.825   3.462
44901SOL     OW36599   8.196  11.030   1.652
44901SOL    HW136600   8.140  11.099   1.688
44901SOL    HW236601   8.227  11.066   1.569
44902SOL     OW36602   6.661   5.569   8.339
44902SOL    HW136603   6.657   5.508   8.412
44902SOL    HW236604   6.593   5.540   8.279
44903SOL     OW36605   7.320   9.253   2.215
44903SOL    HW136606   7.333   9.346   2.198
44903SOL    HW236607   7.353   9.239   2.304
44904SOL     OW36608   6.608   0.952   2.857
44904SOL    HW136609   6.584   0.972   2.948
44904SOL    HW236610   6.562   0.870   2.838
44905SOL     OW36611   4.568   6.400   7.432
44905SOL    HW136612   4.651   6.416   7.389
44905SOL    HW236613   4.585   6.412   7.525
44906SOL     OW36614   7.141  12.664   5.234
44906SOL    HW136615   7.130  12.633   5.324
44906SOL    HW236616   7.182  12.750   5.243
44907SOL     OW36617   4.479  13.359   9.783
44907SOL    HW136618   4.535  13.416   9.731
44907SOL    HW236619   4.404  13.414   9.806
44908SOL     OW36620   5.821  13.788   9.127
44908SOL    HW136621   5.830  13.853   9.197
44908SOL    HW236622   5.795  13.839   9.051
44909SOL     OW36623  12.076   5.418  12.863
44909SOL    HW136624  11.982   5.429  12.873
44909SOL    HW236625  12.095   5.454  12.776
44910SOL     OW36626   7.264   1.527  12.337
44910SOL    HW136627   7.317   1.606  12.327
44910SOL    HW236628   7.311   1.475  12.402
44911SOL     OW36629  11.259   5.368  14.742
44911SOL    HW136630  11.279   5.452  14.783
44911SOL    HW236631  11.306   5.369  14.659
44912SOL     OW36632  10.475   6.512   6.896
44912SOL    HW136633  10.420   6.590   6.907
44912SOL    HW236634  10.510   6.495   6.984
44913SOL     OW36635   8.956  12.261   9.228
44913SOL    HW136636   8.917  12.349   9.226
44913SOL    HW236637   8.882  12.202   9.215
44914SOL     OW36638  14.598   5.768  12.104
44914SOL    HW136639  14.512   5.810  12.097
44914SOL    HW236640  14.590   5.709  12.178
44915SOL     OW36641  11.919   1.511  13.565
44915SOL    HW136642  11.826   1.525  13.548
44915SOL    HW236643  11.922   1.472  13.652
44916SOL     OW36644   7.373   1.713   7.739
44916SOL    HW136645   7.456   1.699   7.693
44916SOL    HW236646   7.396   1.710   7.832
44917SOL     OW36647  14.801   2.380   6.553
44917SOL    HW136648  14.864   2.338   6.495
44917SOL    HW236649  14.717   2.374   6.506
44918SOL     OW36650   9.661   4.797   8.328
44918SOL    HW136651   9.637   4.750   8.248
44918SOL    HW236652   9.633   4.739   8.399
44919SOL     OW36653   6.396   6.700  13.098
44919SOL    HW136654   6.413   6.606  13.101
44919SOL    HW236655   6.479   6.740  13.122
44920SOL     OW36656   5.798   5.865  10.834
44920SOL    HW136657   5.745   5.894  10.760
44920SOL    HW236658   5.885   5.899  10.816
44921SOL     OW36659  13.567   1.859   1.392
44921SOL    HW136660  13.577   1.947   1.356
44921SOL    HW236661  13.542   1.805   1.317
44922SOL     OW36662  11.413  12.186  12.287
44922SOL    HW136663  11.460  12.251  12.235
44922SOL    HW236664  11.448  12.196  12.376
44923SOL     OW36665  12.307   4.912  11.007
44923SOL    HW136666  12.315   4.985  10.945
44923SOL    HW236667  12.377   4.927  11.071
44924SOL     OW36668   6.047   0.493  13.788
44924SOL    HW136669   6.115   0.454  13.843
44924SOL    HW236670   6.009   0.419  13.740
44925SOL     OW36671   7.896   6.336  12.525
44925SOL    HW136672   7.812   6.293  12.542
44925SOL    HW236673   7.950   6.313  12.601
44926SOL     OW36674   9.699   6.274   5.980
44926SOL    HW136675   9.613   6.283   6.022
44926SOL    HW236676   9.681   6.273   5.886
44927SOL     OW36677   2.676  11.352  14.388
44927SOL    HW136678   2.588  11.388  14.401
44927SOL    HW236679   2.733  11.406  14.444
44928SOL     OW36680  11.797   3.840  12.968
44928SOL    HW136681  11.866   3.787  12.928
44928SOL    HW236682  11.816   3.929  12.940
44929SOL     OW36683  12.708   2.167   0.447
44929SOL    HW136684  12.752   2.114   0.381
44929SOL    HW236685  12.763   2.161   0.525
44930SOL     OW36686   7.647   7.933   4.016
44930SOL    HW136687   7.656   8.018   3.974
44930SOL    HW236688   7.724   7.926   4.073
44931SOL     OW36689  12.224  13.063   3.163
44931SOL    HW136690  12.232  13.121   3.239
44931SOL    HW236691  12.264  12.981   3.191
44932SOL     OW36692   9.161   7.144   9.918
44932SOL    HW136693   9.201   7.086   9.853
44932SOL    HW236694   9.195   7.114  10.002
44933SOL     OW36695   3.089  11.565   2.114
44933SOL    HW136696   3.084  11.471   2.095
44933SOL    HW236697   2.997  11.593   2.119
44934SOL     OW36698   6.537   7.882  10.219
44934SOL    HW136699   6.574   7.850  10.301
44934SOL    HW236700   6.442   7.874  10.230
44935SOL     OW36701   2.529  11.982  12.449
44935SOL    HW136702   2.580  11.948  12.522
44935SOL    HW236703   2.544  12.077  12.452
44936SOL     OW36704  10.528  12.839   2.474
44936SOL    HW136705  10.460  12.775   2.454
44936SOL    HW236706  10.609  12.795   2.449
44937SOL     OW36707   0.758   9.130   6.022
44937SOL    HW136708   0.808   9.050   6.006
44937SOL    HW236709   0.680   9.100   6.069
44938SOL     OW36710  12.865   8.524  14.878
44938SOL    HW136711  12.824   8.609   0.009
44938SOL    HW236712  12.957   8.544  14.863
44939SOL     OW36713   1.589   2.361  13.798
44939SOL    HW136714   1.676   2.373  13.759
44939SOL    HW236715   1.530   2.408  13.739
44940SOL     OW36716  13.921   2.060   1.295
44940SOL    HW136717  13.893   1.994   1.232
44940SOL    HW236718  13.842   2.084   1.342
44941SOL     OW36719   4.976   1.861   4.020
44941SOL    HW136720   4.927   1.822   3.947
44941SOL    HW236721   4.911   1.869   4.090
44942SOL     OW36722   9.070  13.970   4.490
44942SOL    HW136723   9.156  13.941   4.521
44942SOL    HW236724   9.089  14.023   4.413
44943SOL     OW36725   4.488   9.942  10.248
44943SOL    HW136726   4.446   9.907  10.169
44943SOL    HW236727   4.532   9.866  10.286
44944SOL     OW36728   9.349   4.434   4.183
44944SOL    HW136729   9.303   4.360   4.144
44944SOL    HW236730   9.326   4.508   4.127
44945SOL     OW36731   4.403  11.080   4.725
44945SOL    HW136732   4.327  11.137   4.724
44945SOL    HW236733   4.367  10.992   4.737
44946SOL     OW36734   5.102   9.875   6.539
44946SOL    HW136735   5.109   9.953   6.594
44946SOL    HW236736   5.167   9.815   6.574
44947SOL     OW36737  10.905  11.922  13.692
44947SOL    HW136738  10.976  11.954  13.636
44947SOL    HW236739  10.878  11.998  13.743
44948SOL     OW36740  10.505  10.046  14.877
44948SOL    HW136741  10.485   9.969  14.823
44948SOL    HW236742  10.590  10.076  14.846
44949SOL     OW36743   7.219  11.030  10.323
44949SOL    HW136744   7.211  10.956  10.262
44949SOL    HW236745   7.142  11.024  10.379
44950SOL     OW36746  12.537   3.160  10.323
44950SOL    HW136747  12.491   3.243  10.331
44950SOL    HW236748  12.530   3.137  10.230
44951SOL     OW36749   0.924   6.799   5.015
44951SOL    HW136750   0.890   6.792   4.926
44951SOL    HW236751   0.935   6.893   5.030
44952SOL     OW36752  12.609   2.335  10.668
44952SOL    HW136753  12.632   2.242  10.670
44952SOL    HW236754  12.613   2.363  10.759
44953SOL     OW36755  11.227  13.637   2.003
44953SOL    HW136756  11.254  13.555   1.963
44953SOL    HW236757  11.216  13.698   1.930
44954SOL     OW36758  13.067  10.505  12.406
44954SOL    HW136759  13.084  10.597  12.387
44954SOL    HW236760  13.136  10.458  12.358
44955SOL     OW36761   1.200   5.030   0.021
44955SOL    HW136762   1.294   5.046   0.017
44955SOL    HW236763   1.160   5.108  14.863
44956SOL     OW36764   7.283   7.950   7.569
44956SOL    HW136765   7.204   7.898   7.558
44956SOL    HW236766   7.253   8.041   7.569
44957SOL     OW36767   0.865   6.567  10.947
44957SOL    HW136768   0.801   6.548  11.017
44957SOL    HW236769   0.839   6.509  10.876
44958SOL     OW36770  11.308   2.976   7.494
44958SOL    HW136771  11.248   2.925   7.548
44958SOL    HW236772  11.340   2.915   7.429
44959SOL     OW36773   1.822  11.347  12.717
44959SOL    HW136774   1.790  11.273  12.769
44959SOL    HW236775   1.824  11.315  12.627
44960SOL     OW36776   0.063  11.303  12.086
44960SOL    HW136777  14.856  11.330  12.108
44960SOL    HW236778   0.077  11.334  11.997
44961SOL     OW36779  12.171   1.265   2.692
44961SOL    HW136780  12.122   1.346   2.678
44961SOL    HW236781  12.262   1.288   2.671
44962SOL     OW36782  13.216   9.398   4.945
44962SOL    HW136783  13.147   9.346   4.985
44962SOL    HW236784  13.214   9.481   4.991
44963SOL     OW36785  14.625   7.097  13.189
44963SOL    HW136786  14.645   7.184  13.225
44963SOL    HW236787  14.629   7.039  13.265
44964SOL     OW36788   7.803   0.213  14.130
44964SOL    HW136789   7.805   0.285  14.193
44964SOL    HW236790   7.832   0.253  14.048
44965SOL     OW36791   6.093   4.729   7.729
44965SOL    HW136792   6.116   4.739   7.636
44965SOL    HW236793   6.015   4.674   7.729
44966SOL     OW36794   0.296  14.596   6.611
44966SOL    HW136795   0.353  14.650   6.556
44966SOL    HW236796   0.344  14.515   6.624
44967SOL     OW36797  10.646   3.779   9.463
44967SOL    HW136798  10.677   3.719   9.396
44967SOL    HW236799  10.555   3.752   9.479
44968SOL     OW36800   2.782   5.521   4.438
44968SOL    HW136801   2.719   5.501   4.369
44968SOL    HW236802   2.729   5.530   4.518
44969SOL     OW36803  10.127   9.291   4.863
44969SOL    HW136804  10.084   9.228   4.804
44969SOL    HW236805  10.060   9.356   4.882
44970SOL     OW36806  10.983   0.047   1.115
44970SOL    HW136807  10.984  14.841   1.154
44970SOL    HW236808  10.906   0.089   1.153
44971SOL     OW36809  10.422   5.314   0.167
44971SOL    HW136810  10.358   5.306   0.238
44971SOL    HW236811  10.370   5.344   0.092
44972SOL     OW36812   1.915   9.611   1.460
44972SOL    HW136813   1.880   9.579   1.376
44972SOL    HW236814   1.972   9.683   1.435
44973SOL     OW36815   9.235   3.908   3.848
44973SOL    HW136816   9.303   3.974   3.864
44973SOL    HW236817   9.281   3.838   3.802
44974SOL     OW36818   1.208  14.415   2.444
44974SOL    HW136819   1.237  14.364   2.520
44974SOL    HW236820   1.239  14.504   2.462
44975SOL     OW36821   1.851   8.797   7.903
44975SOL    HW136822   1.877   8.823   7.815
44975SOL    HW236823   1.764   8.836   7.914
44976SOL     OW36824   3.671  10.788   0.603
44976SOL    HW136825   3.618  10.867   0.614
44976SOL    HW236826   3.608  10.716   0.608
44977SOL     OW36827   0.206  10.913  13.056
44977SOL    HW136828   0.189  10.822  13.032
44977SOL    HW236829   0.258  10.947  12.984
44978SOL     OW36830  14.204  10.024  12.402
44978SOL    HW136831  14.182  10.116  12.419
44978SOL    HW236832  14.121   9.984  12.376
44979SOL     OW36833   4.048   1.942   9.868
44979SOL    HW136834   4.007   1.962   9.784
44979SOL    HW236835   4.002   1.865   9.900
44980SOL     OW36836  14.008  14.344  14.361
44980SOL    HW136837  14.050  14.291  14.429
44980SOL    HW236838  14.009  14.288  14.284
44981SOL     OW36839  10.242   2.304   9.542
44981SOL    HW136840  10.221   2.284   9.450
44981SOL    HW236841  10.313   2.369   9.537
44982SOL     OW36842   8.551   8.027   0.266
44982SOL    HW136843   8.617   7.958   0.266
44982SOL    HW236844   8.469   7.982   0.283
44983SOL     OW36845  13.986  13.556   4.997
44983SOL    HW136846  14.040  13.573   5.074
44983SOL    HW236847  13.910  13.509   5.031
44984SOL     OW36848   8.084  12.493  13.274
44984SOL    HW136849   8.043  12.536  13.349
44984SOL    HW236850   8.131  12.563  13.228
44985SOL     OW36851   9.306  11.417   4.867
44985SOL    HW136852   9.289  11.509   4.889
44985SOL    HW236853   9.353  11.421   4.784
44986SOL     OW36854   9.957   2.588   0.967
44986SOL    HW136855   9.995   2.571   0.880
44986SOL    HW236856   9.863   2.580   0.953
44987SOL     OW36857   2.952  10.481  13.297
44987SOL    HW136858   2.970  10.419  13.227
44987SOL    HW236859   3.038  10.505  13.332
44988SOL     OW36860   3.161  12.683   1.558
44988SOL    HW136861   3.086  12.717   1.508
44988SOL    HW236862   3.133  12.690   1.649
44989SOL     OW36863  14.505   9.370  13.331
44989SOL    HW136864  14.529   9.459  13.302
44989SOL    HW236865  14.462   9.332  13.255
44990SOL     OW36866   2.004   6.339  11.578
44990SOL    HW136867   1.952   6.264  11.607
44990SOL    HW236868   1.981   6.409  11.639
44991SOL     OW36869  14.410   0.089   1.676
44991SOL    HW136870  14.347   0.133   1.733
44991SOL    HW236871  14.475   0.156   1.656
44992SOL     OW36872  11.683  13.535   4.931
44992SOL    HW136873  11.671  13.630   4.930
44992SOL    HW236874  11.641  13.505   4.850
44993SOL     OW36875   7.002   5.841  11.831
44993SOL    HW136876   7.091   5.832  11.796
44993SOL    HW236877   6.991   5.935  11.846
44994SOL     OW36878  11.314   1.363   7.738
44994SOL    HW136879  11.325   1.440   7.793
44994SOL    HW236880  11.265   1.301   7.792
44995SOL     OW36881   3.659   0.815   1.851
44995SOL    HW136882   3.739   0.808   1.903
44995SOL    HW236883   3.588   0.794   1.913
44996SOL     OW36884   5.361  11.528   4.200
44996SOL    HW136885   5.371  11.471   4.277
44996SOL    HW236886   5.293  11.590   4.226
44997SOL     OW36887   4.504   4.752  13.220
44997SOL    HW136888   4.595   4.740  13.248
44997SOL    HW236889   4.470   4.663  13.216
44998SOL     OW36890   4.961  14.515   6.607
44998SOL    HW136891   4.866  14.517   6.620
44998SOL    HW236892   4.997  14.513   6.696
44999SOL     OW36893  14.262  11.206   8.559
44999SOL    HW136894  14.333  11.195   8.622
44999SOL    HW236895  14.257  11.301   8.545
45000SOL     OW36896   2.662   3.984   5.090
45000SOL    HW136897   2.712   3.907   5.061
45000SOL    HW236898   2.673   4.048   5.020
45001SOL     OW36899  12.058  10.442  10.076
45001SOL    HW136900  11.991  10.469  10.014
45001SOL    HW236901  12.058  10.347  10.073
45002SOL     OW36902   5.713   3.202   4.468
45002SOL    HW136903   5.646   3.247   4.519
45002SOL    HW236904   5.667   3.134   4.420
45003SOL     OW36905   4.909  12.982   3.043
45003SOL    HW136906   4.961  13.051   3.086
45003SOL    HW236907   4.842  12.960   3.107
45004SOL     OW36908   6.767   1.997   0.530
45004SOL    HW136909   6.791   2.086   0.503
45004SOL    HW236910   6.735   1.955   0.450
45005SOL     OW36911   2.516  12.110   8.411
45005SOL    HW136912   2.561  12.051   8.472
45005SOL    HW236913   2.438  12.062   8.384
45006SOL     OW36914   3.886   0.413  11.678
45006SOL    HW136915   3.866   0.324  11.647
45006SOL    HW236916   3.828   0.426  11.753
45007SOL     OW36917  13.743   1.447   0.690
45007SOL    HW136918  13.775   1.359   0.709
45007SOL    HW236919  13.722   1.445   0.597
45008SOL     OW36920   0.348   5.733  10.253
45008SOL    HW136921   0.296   5.737  10.333
45008SOL    HW236922   0.317   5.654  10.208
45009SOL     OW36923  14.303  11.588  14.751
45009SOL    HW136924  14.291  11.679  14.778
45009SOL    HW236925  14.347  11.546  14.824
45010SOL     OW36926   5.909   6.119   0.447
45010SOL    HW136927   5.858   6.200   0.454
45010SOL    HW236928   5.978   6.140   0.384
45011SOL     OW36929   2.789   9.162   7.968
45011SOL    HW136930   2.871   9.188   7.925
45011SOL    HW236931   2.788   9.212   8.049
45012SOL     OW36932  12.469   5.136   3.303
45012SOL    HW136933  12.394   5.138   3.363
45012SOL    HW236934  12.498   5.227   3.297
45013SOL     OW36935   6.343   9.472   3.697
45013SOL    HW136936   6.261   9.522   3.690
45013SOL    HW236937   6.395   9.503   3.623
45014SOL     OW36938  14.520  10.093   3.336
45014SOL    HW136939  14.487  10.054   3.254
45014SOL    HW236940  14.476  10.044   3.405
45015SOL     OW36941   2.763  14.259   2.841
45015SOL    HW136942   2.700  14.331   2.831
45015SOL    HW236943   2.711  14.186   2.874
45016SOL     OW36944  13.375   1.942   4.205
45016SOL    HW136945  13.433   1.999   4.154
45016SOL    HW236946  13.287   1.974   4.185
45017SOL     OW36947   0.582   5.893   9.230
45017SOL    HW136948   0.580   5.989   9.230
45017SOL    HW236949   0.633   5.870   9.307
45018SOL     OW36950   4.568  14.634   1.632
45018SOL    HW136951   4.486  14.681   1.647
45018SOL    HW236952   4.552  14.582   1.553
45019SOL     OW36953  11.640  13.179   8.223
45019SOL    HW136954  11.678  13.095   8.250
45019SOL    HW236955  11.716  13.236   8.212
45020SOL     OW36956  10.432   3.753  12.357
45020SOL    HW136957  10.411   3.665  12.323
45020SOL    HW236958  10.515   3.741  12.403
45021SOL     OW36959   5.295   2.106   7.134
45021SOL    HW136960   5.215   2.054   7.131
45021SOL    HW236961   5.346   2.069   7.205
45022SOL     OW36962   0.110   1.042  12.294
45022SOL    HW136963   0.048   1.103  12.334
45022SOL    HW236964   0.158   1.095  12.230
45023SOL     OW36965  10.755   4.394   2.194
45023SOL    HW136966  10.687   4.333   2.164
45023SOL    HW236967  10.837   4.355   2.163
45024SOL     OW36968  12.802   8.280   4.147
45024SOL    HW136969  12.743   8.352   4.167
45024SOL    HW236970  12.815   8.285   4.052
45025SOL     OW36971  12.067  11.037  12.354
45025SOL    HW136972  12.028  10.956  12.386
45025SOL    HW236973  12.015  11.059  12.276
45026SOL     OW36974   6.750   9.674   5.314
45026SOL    HW136975   6.697   9.623   5.376
45026SOL    HW236976   6.726   9.640   5.228
45027SOL     OW36977  12.622  10.778  13.779
45027SOL    HW136978  12.625  10.867  13.815
45027SOL    HW236979  12.530  10.754  13.784
45028SOL     OW36980   1.472  13.259   3.879
45028SOL    HW136981   1.450  13.351   3.896
45028SOL    HW236982   1.405  13.229   3.818
45029SOL     OW36983   7.639  13.852  11.744
45029SOL    HW136984   7.696  13.791  11.790
45029SOL    HW236985   7.616  13.807  11.663
45030SOL     OW36986   2.057   5.261  12.126
45030SOL    HW136987   2.021   5.273  12.214
45030SOL    HW236988   2.064   5.350  12.091
45031SOL     OW36989   0.070   6.397   1.993
45031SOL    HW136990   0.091   6.334   1.924
45031SOL    HW236991   0.132   6.469   1.980
45032SOL     OW36992   2.416   7.862  14.695
45032SOL    HW136993   2.484   7.795  14.685
45032SOL    HW236994   2.410   7.902  14.608
45033SOL     OW36995   7.210   1.214   7.425
45033SOL    HW136996   7.188   1.304   7.448
45033SOL    HW236997   7.250   1.221   7.339
45034SOL     OW36998   1.312   0.970   3.689
45034SOL    HW136999   1.227   1.014   3.675
45034SOL    HW237000   1.372   1.041   3.712
45035SOL     OW37001   6.849  13.792   0.614
45035SOL    HW137002   6.820  13.742   0.537
45035SOL    HW237003   6.853  13.883   0.582
45036SOL     OW37004   3.495   4.729   4.990
45036SOL    HW137005   3.455   4.786   5.056
45036SOL    HW237006   3.572   4.777   4.960
45037SOL     OW37007  10.000   1.198  13.292
45037SOL    HW137008  10.012   1.264  13.224
45037SOL    HW237009   9.905   1.199  13.309
45038SOL     OW37010   0.302  10.762  10.858
45038SOL    HW137011   0.358  10.688  10.882
45038SOL    HW237012   0.355  10.840  10.876
45039SOL     OW37013  11.646   2.536   5.998
45039SOL    HW137014  11.701   2.514   6.073
45039SOL    HW237015  11.636   2.631   6.002
45040SOL     OW37016   2.812   3.143   6.275
45040SOL    HW137017   2.823   3.155   6.369
45040SOL    HW237018   2.777   3.226   6.244
45041SOL     OW37019  12.377   3.180  11.948
45041SOL    HW137020  12.313   3.233  11.996
45041SOL    HW237021  12.326   3.139  11.878
45042SOL     OW37022  10.462   2.809   9.775
45042SOL    HW137023  10.435   2.788   9.685
45042SOL    HW237024  10.394   2.868   9.807
45043SOL     OW37025  10.023   7.483  11.506
45043SOL    HW137026   9.978   7.457  11.586
45043SOL    HW237027   9.964   7.459  11.435
45044SOL     OW37028   6.883   6.562   2.618
45044SOL    HW137029   6.814   6.564   2.685
45044SOL    HW237030   6.947   6.627   2.647
45045SOL     OW37031   0.241   2.207   8.507
45045SOL    HW137032   0.316   2.237   8.557
45045SOL    HW237033   0.271   2.127   8.464
45046SOL     OW37034  12.049  10.087   3.632
45046SOL    HW137035  11.992  10.028   3.583
45046SOL    HW237036  12.131  10.088   3.583
45047SOL     OW37037   5.521   6.495   6.985
45047SOL    HW137038   5.472   6.571   7.015
45047SOL    HW237039   5.508   6.492   6.891
45048SOL     OW37040   5.557   3.869   5.404
45048SOL    HW137041   5.516   3.809   5.342
45048SOL    HW237042   5.486   3.925   5.434
45049SOL     OW37043   2.905   1.679   9.077
45049SOL    HW137044   2.937   1.686   8.987
45049SOL    HW237045   2.922   1.588   9.102
45050SOL     OW37046   0.995   3.792   9.126
45050SOL    HW137047   1.053   3.865   9.102
45050SOL    HW237048   0.954   3.820   9.207
45051SOL     OW37049   5.792   8.956  13.485
45051SOL    HW137050   5.778   8.865  13.458
45051SOL    HW237051   5.882   8.976  13.458
45052SOL     OW37052  12.374   3.215  11.041
45052SOL    HW137053  12.334   3.256  10.964
45052SOL    HW237054  12.459   3.258  11.050
45053SOL     OW37055   7.972   5.667   0.016
45053SOL    HW137056   8.041   5.602   0.030
45053SOL    HW237057   7.899   5.637   0.069
45054SOL     OW37058   9.912   0.240  14.424
45054SOL    HW137059   9.949   0.321  14.460
45054SOL    HW237060   9.967   0.170  14.460
45055SOL     OW37061  12.440   0.562   8.035
45055SOL    HW137062  12.531   0.590   8.021
45055SOL    HW237063  12.447   0.473   8.067
45056SOL     OW37064   7.537   7.161  12.553
45056SOL    HW137065   7.498   7.221  12.490
45056SOL    HW237066   7.626   7.147  12.521
45057SOL     OW37067   9.300  12.756   1.341
45057SOL    HW137068   9.304  12.852   1.342
45057SOL    HW237069   9.354  12.731   1.266
45058SOL     OW37070   6.089   8.321   1.719
45058SOL    HW137071   6.001   8.359   1.719
45058SOL    HW237072   6.075   8.231   1.690
45059SOL     OW37073  13.091   8.271   3.440
45059SOL    HW137074  13.151   8.257   3.367
45059SOL    HW237075  13.077   8.365   3.442
45060SOL     OW37076   8.308   5.010  11.195
45060SOL    HW137077   8.403   5.012  11.203
45060SOL    HW237078   8.276   5.002  11.285
45061SOL     OW37079   8.621   3.263  11.766
45061SOL    HW137080   8.528   3.242  11.767
45061SOL    HW237081   8.656   3.224  11.846
45062SOL     OW37082   5.023   4.405   6.307
45062SOL    HW137083   4.980   4.323   6.283
45062SOL    HW237084   5.059   4.389   6.394
45063SOL     OW37085   1.964   2.905  14.307
45063SOL    HW137086   1.976   2.931  14.216
45063SOL    HW237087   1.880   2.859  14.308
45064SOL     OW37088  14.623   7.912  11.181
45064SOL    HW137089  14.559   7.978  11.208
45064SOL    HW237090  14.610   7.840  11.243
45065SOL     OW37091   9.024   0.767   3.894
45065SOL    HW137092   9.092   0.732   3.836
45065SOL    HW237093   9.063   0.846   3.932
45066SOL     OW37094   3.500   8.954   0.161
45066SOL    HW137095   3.419   8.944   0.112
45066SOL    HW237096   3.556   9.008   0.105
45067SOL     OW37097   5.484  10.430   9.533
45067SOL    HW137098   5.570  10.427   9.574
45067SOL    HW237099   5.501  10.449   9.441
45068SOL     OW37100   0.809   0.310  13.069
45068SOL    HW137101   0.855   0.384  13.109
45068SOL    HW237102   0.808   0.330  12.975
45069SOL     OW37103  13.258   8.078  10.313
45069SOL    HW137104  13.199   8.149  10.337
45069SOL    HW237105  13.314   8.066  10.390
45070SOL     OW37106   3.366   6.828   7.743
45070SOL    HW137107   3.272   6.827   7.760
45070SOL    HW237108   3.401   6.761   7.802
45071SOL     OW37109   1.473   4.077   7.746
45071SOL    HW137110   1.424   4.049   7.668
45071SOL    HW237111   1.542   4.011   7.755
45072SOL     OW37112   9.330  11.606  13.402
45072SOL    HW137113   9.353  11.697  13.424
45072SOL    HW237114   9.304  11.567  13.485
45073SOL     OW37115  12.817   7.039  12.023
45073SOL    HW137116  12.912   7.043  12.011
45073SOL    HW237117  12.791   6.956  11.983
45074SOL     OW37118   6.262   0.974   1.265
45074SOL    HW137119   6.257   0.924   1.184
45074SOL    HW237120   6.262   1.065   1.238
45075SOL     OW37121   0.209   8.100   4.131
45075SOL    HW137122   0.271   8.028   4.130
45075SOL    HW237123   0.160   8.088   4.213
45076SOL     OW37124   7.443  10.029   5.913
45076SOL    HW137125   7.385  10.049   5.986
45076SOL    HW237126   7.390   9.976   5.854
45077SOL     OW37127   3.552   9.830  10.189
45077SOL    HW137128   3.616   9.899  10.205
45077SOL    HW237129   3.604   9.749  10.185
45078SOL     OW37130  11.271   2.666   8.277
45078SOL    HW137131  11.360   2.653   8.245
45078SOL    HW237132  11.265   2.613   8.356
45079SOL     OW37133   3.291  12.183   0.566
45079SOL    HW137134   3.385  12.196   0.575
45079SOL    HW237135   3.256  12.269   0.541
45080SOL     OW37136   6.289  13.298   2.989
45080SOL    HW137137   6.314  13.352   2.914
45080SOL    HW237138   6.194  13.292   2.984
45081SOL     OW37139  10.505   2.354  12.945
45081SOL    HW137140  10.535   2.413  12.876
45081SOL    HW237141  10.578   2.293  12.958
45082SOL     OW37142   8.517   9.194   3.210
45082SOL    HW137143   8.576   9.155   3.146
45082SOL    HW237144   8.440   9.137   3.209
45083SOL     OW37145  14.822  11.703  14.460
45083SOL    HW137146  14.821  11.632  14.524
45083SOL    HW237147  14.747  11.757  14.482
45084SOL     OW37148  10.880   2.054  11.434
45084SOL    HW137149  10.886   2.107  11.354
45084SOL    HW237150  10.883   2.118  11.505
45085SOL     OW37151   5.455   3.755   3.157
45085SOL    HW137152   5.378   3.728   3.107
45085SOL    HW237153   5.479   3.679   3.210
45086SOL     OW37154   5.916  11.722   5.511
45086SOL    HW137155   6.011  11.711   5.521
45086SOL    HW237156   5.894  11.790   5.575
45087SOL     OW37157  11.678  12.786   3.878
45087SOL    HW137158  11.728  12.730   3.937
45087SOL    HW237159  11.743  12.825   3.820
45088SOL     OW37160  11.178   8.226  10.376
45088SOL    HW137161  11.122   8.304  10.375
45088SOL    HW237162  11.248   8.246  10.314
45089SOL     OW37163   4.452   9.018  10.768
45089SOL    HW137164   4.405   9.041  10.688
45089SOL    HW237165   4.541   9.049  10.754
45090SOL     OW37166   0.735   3.780  14.103
45090SOL    HW137167   0.694   3.861  14.132
45090SOL    HW237168   0.789   3.753  14.176
45091SOL     OW37169   6.118   9.561   7.634
45091SOL    HW137170   6.118   9.469   7.611
45091SOL    HW237171   6.210   9.587   7.633
45092SOL     OW37172   6.608   5.906   1.689
45092SOL    HW137173   6.703   5.899   1.700
45092SOL    HW237174   6.595   5.989   1.644
45093SOL     OW37175   3.841   0.619  12.862
45093SOL    HW137176   3.850   0.654  12.951
45093SOL    HW237177   3.928   0.583  12.841
45094SOL     OW37178   6.968  10.253   8.735
45094SOL    HW137179   6.879  10.280   8.712
45094SOL    HW237180   6.980  10.284   8.824
45095SOL     OW37181   6.001   3.256  13.260
45095SOL    HW137182   6.071   3.231  13.200
45095SOL    HW237183   5.967   3.338  13.223
45096SOL     OW37184   9.349   3.694   3.112
45096SOL    HW137185   9.309   3.616   3.073
45096SOL    HW237186   9.394   3.661   3.190
45097SOL     OW37187   7.249   0.054  12.138
45097SOL    HW137188   7.204   0.051  12.223
45097SOL    HW237189   7.178   0.057  12.074
45098SOL     OW37190   5.383   7.084   6.078
45098SOL    HW137191   5.445   7.153   6.056
45098SOL    HW237192   5.397   7.067   6.171
45099SOL     OW37193   5.431   6.706  13.707
45099SOL    HW137194   5.509   6.759  13.718
45099SOL    HW237195   5.432   6.680  13.615
45100SOL     OW37196   1.758   2.577   6.490
45100SOL    HW137197   1.816   2.592   6.415
45100SOL    HW237198   1.675   2.550   6.451
45101SOL     OW37199  12.458   2.636  11.482
45101SOL    HW137200  12.402   2.689  11.425
45101SOL    HW237201  12.509   2.699  11.531
45102SOL     OW37202   4.575   1.508   7.894
45102SOL    HW137203   4.483   1.524   7.914
45102SOL    HW237204   4.593   1.423   7.933
45103SOL     OW37205   6.032   8.733  13.444
45103SOL    HW137206   6.026   8.691  13.530
45103SOL    HW237207   6.111   8.786  13.449
45104SOL     OW37208   5.063   4.076   6.754
45104SOL    HW137209   5.028   4.089   6.842
45104SOL    HW237210   5.154   4.051   6.768
45105SOL     OW37211   1.507   2.787   1.112
45105SOL    HW137212   1.478   2.719   1.051
45105SOL    HW237213   1.435   2.850   1.114
45106SOL     OW37214  14.299  12.969   3.732
45106SOL    HW137215  14.295  13.039   3.667
45106SOL    HW237216  14.231  12.991   3.796
45107SOL     OW37217   7.477   7.908   9.146
45107SOL    HW137218   7.504   7.969   9.077
45107SOL    HW237219   7.454   7.828   9.099
45108SOL     OW37220   5.629   5.056   8.899
45108SOL    HW137221   5.579   5.124   8.944
45108SOL    HW237222   5.630   4.982   8.960
45109SOL     OW37223  12.118   8.196   1.208
45109SOL    HW137224  12.196   8.140   1.209
45109SOL    HW237225  12.083   8.190   1.297
45110SOL     OW37226   8.912   5.828   4.121
45110SOL    HW137227   8.853   5.866   4.056
45110SOL    HW237228   8.934   5.742   4.086
45111SOL     OW37229   4.961   2.301   9.016
45111SOL    HW137230   5.008   2.312   8.933
45111SOL    HW237231   5.016   2.243   9.068
45112SOL     OW37232   9.426  12.260   3.140
45112SOL    HW137233   9.393  12.174   3.167
45112SOL    HW237234   9.460  12.246   3.052
45113SOL     OW37235  10.761  14.419   1.762
45113SOL    HW137236  10.854  14.413   1.784
45113SOL    HW237237  10.717  14.428   1.846
45114SOL     OW37238   4.271   2.678   5.830
45114SOL    HW137239   4.318   2.761   5.826
45114SOL    HW237240   4.190   2.697   5.876
45115SOL     OW37241   6.989  12.369  13.829
45115SOL    HW137242   6.980  12.295  13.770
45115SOL    HW237243   7.016  12.442  13.773
45116SOL     OW37244  11.238  10.086   5.045
45116SOL    HW137245  11.193  10.005   5.070
45116SOL    HW237246  11.322  10.056   5.009
45117SOL     OW37247  12.418  14.177   4.199
45117SOL    HW137248  12.431  14.196   4.106
45117SOL    HW237249  12.323  14.184   4.212
45118SOL     OW37250   1.909   4.266  12.378
45118SOL    HW137251   1.926   4.336  12.441
45118SOL    HW237252   1.958   4.293  12.300
45119SOL     OW37253  13.733   3.766   5.100
45119SOL    HW137254  13.681   3.723   5.167
45119SOL    HW237255  13.771   3.694   5.049
45120SOL     OW37256   0.691   9.517   8.964
45120SOL    HW137257   0.782   9.546   8.958
45120SOL    HW237258   0.642   9.579   8.909
45121SOL     OW37259   6.221  14.677  13.355
45121SOL    HW137260   6.263  14.625  13.287
45121SOL    HW237261   6.221  14.766  13.321
45122SOL     OW37262   3.926   1.717  13.365
45122SOL    HW137263   4.001   1.729  13.423
45122SOL    HW237264   3.862   1.781  13.396
45123SOL     OW37265   4.071   4.821   0.001
45123SOL    HW137266   4.102   4.851  14.797
45123SOL    HW237267   4.150   4.816   0.054
45124SOL     OW37268  10.806   7.083   1.830
45124SOL    HW137269  10.832   6.995   1.804
45124SOL    HW237270  10.744   7.111   1.762
45125SOL     OW37271   9.515  13.026   1.564
45125SOL    HW137272   9.527  12.932   1.549
45125SOL    HW237273   9.521  13.036   1.659
45126SOL     OW37274   3.230   1.516   2.332
45126SOL    HW137275   3.283   1.515   2.412
45126SOL    HW237276   3.237   1.426   2.298
45127SOL     OW37277   3.798  11.436   2.717
45127SOL    HW137278   3.833  11.493   2.786
45127SOL    HW237279   3.737  11.378   2.762
45128SOL     OW37280   4.912  14.194   9.404
45128SOL    HW137281   4.974  14.210   9.332
45128SOL    HW237282   4.967  14.181   9.481
45129SOL     OW37283   2.374   5.902   8.695
45129SOL    HW137284   2.463   5.926   8.721
45129SOL    HW237285   2.377   5.807   8.685
45130SOL     OW37286   7.089   5.471  10.096
45130SOL    HW137287   7.121   5.556  10.066
45130SOL    HW237288   7.053   5.488  10.183
45131SOL     OW37289   7.108   1.859  13.726
45131SOL    HW137290   7.034   1.909  13.759
45131SOL    HW237291   7.140   1.810  13.803
45132SOL     OW37292   2.397   2.352   8.655
45132SOL    HW137293   2.464   2.394   8.709
45132SOL    HW237294   2.417   2.379   8.566
45133SOL     OW37295  11.081   9.587   4.143
45133SOL    HW137296  11.081   9.662   4.084
45133SOL    HW237297  11.020   9.610   4.213
45134SOL     OW37298  14.084  14.847  14.544
45134SOL    HW137299  14.158   0.002  14.497
45134SOL    HW237300  14.124  14.789  14.610
45135SOL     OW37301  14.250  13.509   3.864
45135SOL    HW137302  14.225  13.568   3.794
45135SOL    HW237303  14.171  13.502   3.919
45136SOL     OW37304   4.693  12.378   4.727
45136SOL    HW137305   4.629  12.344   4.665
45136SOL    HW237306   4.767  12.318   4.721
45137SOL     OW37307  13.959   2.096  13.180
45137SOL    HW137308  13.863   2.101  13.181
45137SOL    HW237309  13.987   2.176  13.136
45138SOL     OW37310   8.302   5.173  14.276
45138SOL    HW137311   8.346   5.213  14.200
45138SOL    HW237312   8.239   5.113  14.237
45139SOL     OW37313   2.992   2.577   3.490
45139SOL    HW137314   2.923   2.594   3.555
45139SOL    HW237315   2.983   2.648   3.427
45140SOL     OW37316   0.994   9.636   4.238
45140SOL    HW137317   1.015   9.702   4.172
45140SOL    HW237318   0.973   9.557   4.187
45141SOL     OW37319   8.917  12.558  14.609
45141SOL    HW137320   8.832  12.526  14.639
45141SOL    HW237321   8.896  12.620  14.539
45142SOL     OW37322  11.904   2.869   3.120
45142SOL    HW137323  11.842   2.935   3.152
45142SOL    HW237324  11.872   2.847   3.033
45143SOL     OW37325  14.706   2.690   2.653
45143SOL    HW137326  14.745   2.776   2.664
45143SOL    HW237327  14.724   2.644   2.735
45144SOL     OW37328   1.992   6.533  13.779
45144SOL    HW137329   1.997   6.622  13.746
45144SOL    HW237330   1.941   6.540  13.860
45145SOL     OW37331   0.460   4.569  12.571
45145SOL    HW137332   0.410   4.627  12.628
45145SOL    HW237333   0.396   4.538  12.506
45146SOL     OW37334   4.131  13.700   7.228
45146SOL    HW137335   4.211  13.665   7.189
45146SOL    HW237336   4.123  13.654   7.312
45147SOL     OW37337   8.460  12.810  11.909
45147SOL    HW137338   8.482  12.723  11.877
45147SOL    HW237339   8.373  12.828  11.875
45148SOL     OW37340   7.410   9.551   7.774
45148SOL    HW137341   7.454   9.467   7.787
45148SOL    HW237342   7.346   9.534   7.705
45149SOL     OW37343   3.108   5.001   9.393
45149SOL    HW137344   3.145   5.014   9.480
45149SOL    HW237345   3.060   5.082   9.375
45150SOL     OW37346   0.940  10.191   0.480
45150SOL    HW137347   1.020  10.178   0.531
45150SOL    HW237348   0.941  10.122   0.414
45151SOL     OW37349   5.847   5.127   1.749
45151SOL    HW137350   5.859   5.083   1.833
45151SOL    HW237351   5.875   5.217   1.764
45152SOL     OW37352   7.834  12.843   5.662
45152SOL    HW137353   7.925  12.836   5.634
45152SOL    HW237354   7.827  12.932   5.698
45153SOL     OW37355   6.307   5.118   6.217
45153SOL    HW137356   6.359   5.043   6.187
45153SOL    HW237357   6.353   5.150   6.294
45154SOL     OW37358  13.727  12.944   2.359
45154SOL    HW137359  13.691  13.029   2.332
45154SOL    HW237360  13.669  12.879   2.318
45155SOL     OW37361   2.118  12.766   2.441
45155SOL    HW137362   2.081  12.762   2.530
45155SOL    HW237363   2.101  12.679   2.405
45156SOL     OW37364   7.154  12.523   0.512
45156SOL    HW137365   7.154  12.609   0.553
45156SOL    HW237366   7.236  12.519   0.463
45157SOL     OW37367  14.070  12.426   1.998
45157SOL    HW137368  14.057  12.481   2.076
45157SOL    HW237369  14.048  12.484   1.925
45158SOL     OW37370  14.818   4.517  10.487
45158SOL    HW137371   0.006   4.580  10.472
45158SOL    HW237372  14.749   4.568  10.530
45159SOL     OW37373   0.612  13.602   1.327
45159SOL    HW137374   0.578  13.692   1.323
45159SOL    HW237375   0.551  13.551   1.274
45160SOL     OW37376  13.290   1.117   8.441
45160SOL    HW137377  13.252   1.088   8.358
45160SOL    HW237378  13.384   1.117   8.426
45161SOL     OW37379   9.683  12.053   8.032
45161SOL    HW137380   9.714  12.068   7.943
45161SOL    HW237381   9.670  12.140   8.069
45162SOL     OW37382  13.422  13.739   7.184
45162SOL    HW137383  13.405  13.665   7.126
45162SOL    HW237384  13.335  13.776   7.202
45163SOL     OW37385   9.689   1.954  14.826
45163SOL    HW137386   9.686   1.902  14.746
45163SOL    HW237387   9.610   1.929  14.874
45164SOL     OW37388   7.929   7.558   4.581
45164SOL    HW137389   8.007   7.528   4.535
45164SOL    HW237390   7.859   7.501   4.549
45165SOL     OW37391  11.638   4.178   9.108
45165SOL    HW137392  11.662   4.241   9.041
45165SOL    HW237393  11.710   4.182   9.172
45166SOL     OW37394   1.026   7.190   2.890
45166SOL    HW137395   0.985   7.129   2.951
45166SOL    HW237396   1.058   7.136   2.818
45167SOL     OW37397  13.483   1.874   9.784
45167SOL    HW137398  13.407   1.836   9.829
45167SOL    HW237399  13.554   1.812   9.802
45168SOL     OW37400   4.316   2.681   7.271
45168SOL    HW137401   4.332   2.663   7.363
45168SOL    HW237402   4.366   2.614   7.224
45169SOL     OW37403   3.819  14.360  10.740
45169SOL    HW137404   3.835  14.278  10.694
45169SOL    HW237405   3.900  14.378  10.787
45170SOL     OW37406  14.166  11.280  11.428
45170SOL    HW137407  14.123  11.348  11.481
45170SOL    HW237408  14.094  11.223  11.399
45171SOL     OW37409  13.701  13.467  13.883
45171SOL    HW137410  13.665  13.556  13.876
45171SOL    HW237411  13.697  13.447  13.976
45172SOL     OW37412   2.336  12.160   1.597
45172SOL    HW137413   2.364  12.180   1.508
45172SOL    HW237414   2.268  12.225   1.616
45173SOL     OW37415  10.792   5.727   8.091
45173SOL    HW137416  10.724   5.794   8.101
45173SOL    HW237417  10.812   5.728   7.997
45174SOL     OW37418  10.483  14.023   1.871
45174SOL    HW137419  10.396  14.061   1.871
45174SOL    HW237420  10.485  13.967   1.793
45175SOL     OW37421  13.184   1.778  11.162
45175SOL    HW137422  13.148   1.790  11.250
45175SOL    HW237423  13.119   1.722  11.118
45176SOL     OW37424   1.294  11.976   5.153
45176SOL    HW137425   1.255  12.018   5.077
45176SOL    HW237426   1.380  11.947   5.122
45177SOL     OW37427   1.242  14.284   4.387
45177SOL    HW137428   1.261  14.357   4.447
45177SOL    HW237429   1.182  14.227   4.435
45178SOL     OW37430   2.877  13.080  13.202
45178SOL    HW137431   2.873  12.990  13.168
45178SOL    HW237432   2.789  13.114  13.187
45179SOL     OW37433   8.132  14.857   0.754
45179SOL    HW137434   8.221  14.843   0.722
45179SOL    HW237435   8.141   0.039   0.824
45180SOL     OW37436   3.314  10.267  13.570
45180SOL    HW137437   3.226  10.284  13.605
45180SOL    HW237438   3.373  10.294  13.639
45181SOL     OW37439  13.858   1.735   0.464
45181SOL    HW137440  13.900   1.721   0.379
45181SOL    HW237441  13.893   1.819   0.495
45182SOL     OW37442   7.787   2.846   3.714
45182SOL    HW137443   7.803   2.822   3.623
45182SOL    HW237444   7.719   2.785   3.744
45183SOL     OW37445  14.556   9.929  12.547
45183SOL    HW137446  14.649   9.936  12.569
45183SOL    HW237447  14.550   9.961  12.457
45184SOL     OW37448   0.836   1.712  11.554
45184SOL    HW137449   0.747   1.721  11.517
45184SOL    HW237450   0.886   1.670  11.484
45185SOL     OW37451   4.418   6.266  12.078
45185SOL    HW137452   4.464   6.187  12.049
45185SOL    HW237453   4.485   6.319  12.121
45186SOL     OW37454   7.356  11.626  14.824
45186SOL    HW137455   7.297  11.694  14.792
45186SOL    HW237456   7.440  11.670  14.838
45187SOL     OW37457   8.842   2.030  11.121
45187SOL    HW137458   8.842   2.059  11.213
45187SOL    HW237459   8.751   2.011  11.102
45188SOL     OW37460   3.171   1.904   2.648
45188SOL    HW137461   3.100   1.858   2.604
45188SOL    HW237462   3.145   1.996   2.645
45189SOL     OW37463   2.888   4.649   1.440
45189SOL    HW137464   2.982   4.656   1.455
45189SOL    HW237465   2.861   4.736   1.410
45190SOL     OW37466   0.675   3.848  10.775
45190SOL    HW137467   0.650   3.940  10.779
45190SOL    HW237468   0.767   3.849  10.752
45191SOL     OW37469   9.866   1.058   5.420
45191SOL    HW137470   9.868   1.110   5.340
45191SOL    HW237471   9.811   0.982   5.398
45192SOL     OW37472  10.089   0.655   2.215
45192SOL    HW137473  10.018   0.707   2.177
45192SOL    HW237474  10.162   0.667   2.154
45193SOL     OW37475  11.075   9.209   8.622
45193SOL    HW137476  11.033   9.209   8.536
45193SOL    HW237477  11.167   9.227   8.604
45194SOL     OW37478  11.954  12.024   5.676
45194SOL    HW137479  11.875  12.061   5.638
45194SOL    HW237480  11.954  11.932   5.647
45195SOL     OW37481   6.267   5.187  10.995
45195SOL    HW137482   6.215   5.216  10.920
45195SOL    HW237483   6.257   5.257  11.059
45196SOL     OW37484  12.752  13.257   4.184
45196SOL    HW137485  12.733  13.243   4.091
45196SOL    HW237486  12.804  13.338   4.186
45197SOL     OW37487   0.717   4.710  14.298
45197SOL    HW137488   0.655   4.672  14.235
45197SOL    HW237489   0.710   4.654  14.375
45198SOL     OW37490   4.637   1.291  10.430
45198SOL    HW137491   4.566   1.340  10.387
45198SOL    HW237492   4.656   1.342  10.509
45199SOL     OW37493   2.223  12.875  12.264
45199SOL    HW137494   2.172  12.818  12.322
45199SOL    HW237495   2.160  12.906  12.199
45200SOL     OW37496   3.758  10.064  12.041
45200SOL    HW137497   3.678  10.038  12.085
45200SOL    HW237498   3.806  10.115  12.106
45201SOL     OW37499  12.833   8.015   4.009
45201SOL    HW137500  12.923   8.042   3.988
45201SOL    HW237501  12.831   8.012   4.104
45202SOL     OW37502   1.176   6.631   7.464
45202SOL    HW137503   1.162   6.547   7.419
45202SOL    HW237504   1.165   6.697   7.396
45203SOL     OW37505  11.448   2.371   2.017
45203SOL    HW137506  11.468   2.357   2.109
45203SOL    HW237507  11.405   2.291   1.988
45204SOL     OW37508  12.103   4.129   6.279
45204SOL    HW137509  12.176   4.067   6.287
45204SOL    HW237510  12.058   4.102   6.198
45205SOL     OW37511  12.204   8.601   8.203
45205SOL    HW137512  12.261   8.671   8.233
45205SOL    HW237513  12.193   8.544   8.279
45206SOL     OW37514   2.317   5.335  12.229
45206SOL    HW137515   2.229   5.316  12.196
45206SOL    HW237516   2.347   5.408  12.175
45207SOL     OW37517   6.338   1.364   7.892
45207SOL    HW137518   6.403   1.295   7.877
45207SOL    HW237519   6.324   1.403   7.806
45208SOL     OW37520  11.083   6.203   2.363
45208SOL    HW137521  11.154   6.267   2.367
45208SOL    HW237522  11.091   6.164   2.276
45209SOL     OW37523  11.095   0.675   3.005
45209SOL    HW137524  11.090   0.614   2.932
45209SOL    HW237525  11.005   0.680   3.038
45210SOL     OW37526  13.808  10.310  10.919
45210SOL    HW137527  13.759  10.262  10.852
45210SOL    HW237528  13.860  10.373  10.870
45211SOL     OW37529  10.617   3.916   1.141
45211SOL    HW137530  10.574   3.831   1.130
45211SOL    HW237531  10.581   3.951   1.222
45212SOL     OW37532   2.377   5.860   3.408
45212SOL    HW137533   2.397   5.924   3.339
45212SOL    HW237534   2.421   5.895   3.486
45213SOL     OW37535   1.787   2.926  10.346
45213SOL    HW137536   1.854   2.877  10.393
45213SOL    HW237537   1.830   2.953  10.264
45214SOL     OW37538   4.107   3.916   4.515
45214SOL    HW137539   4.126   3.982   4.449
45214SOL    HW237540   4.018   3.886   4.495
45215SOL     OW37541  10.633  12.197   7.164
45215SOL    HW137542  10.695  12.127   7.188
45215SOL    HW237543  10.566  12.153   7.112
45216SOL     OW37544   4.495   4.355  10.895
45216SOL    HW137545   4.556   4.425  10.915
45216SOL    HW237546   4.548   4.289  10.849
45217SOL     OW37547   4.625  14.627   0.373
45217SOL    HW137548   4.719  14.632   0.357
45217SOL    HW237549   4.610  14.539   0.407
45218SOL     OW37550  13.554  11.287   1.810
45218SOL    HW137551  13.591  11.249   1.730
45218SOL    HW237552  13.549  11.381   1.792
45219SOL     OW37553   1.591  11.668   6.625
45219SOL    HW137554   1.530  11.617   6.572
45219SOL    HW237555   1.557  11.662   6.714
45220SOL     OW37556  13.081   3.383   3.885
45220SOL    HW137557  13.039   3.432   3.956
45220SOL    HW237558  13.096   3.448   3.817
45221SOL     OW37559   2.081   5.983  11.712
45221SOL    HW137560   2.017   5.912  11.705
45221SOL    HW237561   2.061   6.041  11.639
45222SOL     OW37562   0.774   6.742  10.632
45222SOL    HW137563   0.848   6.803  10.628
45222SOL    HW237564   0.740   6.753  10.721
45223SOL     OW37565   7.627   0.775   0.751
45223SOL    HW137566   7.609   0.866   0.776
45223SOL    HW237567   7.658   0.734   0.832
45224SOL     OW37568  11.961  14.734  14.079
45224SOL    HW137569  12.003  14.680  14.012
45224SOL    HW237570  11.896  14.675  14.119
45225SOL     OW37571   5.573   2.733   3.550
45225SOL    HW137572   5.608   2.646   3.570
45225SOL    HW237573   5.543   2.766   3.635
45226SOL     OW37574   8.311  11.462   6.451
45226SOL    HW137575   8.250  11.435   6.519
45226SOL    HW237576   8.370  11.387   6.439
45227SOL     OW37577   8.410  12.981  13.322
45227SOL    HW137578   8.381  12.962  13.411
45227SOL    HW237579   8.329  13.001  13.274
45228SOL     OW37580  12.951   4.619   5.090
45228SOL    HW137581  13.025   4.680   5.089
45228SOL    HW237582  12.971   4.558   5.161
45229SOL     OW37583   2.131   3.481   1.319
45229SOL    HW137584   2.097   3.468   1.230
45229SOL    HW237585   2.147   3.392   1.352
45230SOL     OW37586   5.470   4.237  12.411
45230SOL    HW137587   5.398   4.299  12.406
45230SOL    HW237588   5.532   4.276  12.472
45231SOL     OW37589   6.990   3.961   0.207
45231SOL    HW137590   6.952   3.922   0.286
45231SOL    HW237591   6.962   3.904   0.136
45232SOL     OW37592  11.160   1.553   3.557
45232SOL    HW137593  11.202   1.581   3.475
45232SOL    HW237594  11.233   1.521   3.611
45233SOL     OW37595   3.845  12.070  11.298
45233SOL    HW137596   3.937  12.098  11.294
45233SOL    HW237597   3.833  12.014  11.221
45234SOL     OW37598  12.824   8.566  11.611
45234SOL    HW137599  12.879   8.640  11.639
45234SOL    HW237600  12.806   8.518  11.692
45235SOL     OW37601   3.002   0.183   6.842
45235SOL    HW137602   2.911   0.209   6.856
45235SOL    HW237603   3.050   0.231   6.909
45236SOL     OW37604  10.284   2.449  13.924
45236SOL    HW137605  10.335   2.368  13.926
45236SOL    HW237606  10.211   2.431  13.866
45237SOL     OW37607   8.235   0.660   3.798
45237SOL    HW137608   8.155   0.634   3.753
45237SOL    HW237609   8.267   0.580   3.840
45238SOL     OW37610  12.076  11.576   0.086
45238SOL    HW137611  12.047  11.485   0.094
45238SOL    HW237612  12.145  11.573   0.020
45239SOL     OW37613  10.507   8.635  12.959
45239SOL    HW137614  10.511   8.708  13.020
45239SOL    HW237615  10.459   8.567  13.005
45240SOL     OW37616  13.584   2.476  14.673
45240SOL    HW137617  13.672   2.508  14.654
45240SOL    HW237618  13.580   2.391  14.629
45241SOL     OW37619  11.307   6.372   2.253
45241SOL    HW137620  11.329   6.365   2.160
45241SOL    HW237621  11.331   6.461   2.277
45242SOL     OW37622   2.206  13.479  10.885
45242SOL    HW137623   2.222  13.498  10.978
45242SOL    HW237624   2.292  13.486  10.844
45243SOL     OW37625   9.264   3.824  12.687
45243SOL    HW137626   9.360   3.825  12.692
45243SOL    HW237627   9.239   3.916  12.687
45244SOL     OW37628   5.688  14.308  13.928
45244SOL    HW137629   5.681  14.230  13.872
45244SOL    HW237630   5.743  14.368  13.879
45245SOL     OW37631   4.814   5.945  11.203
45245SOL    HW137632   4.849   6.023  11.160
45245SOL    HW237633   4.892   5.898  11.234
45246SOL     OW37634   3.642  10.454   6.219
45246SOL    HW137635   3.552  10.422   6.224
45246SOL    HW237636   3.696  10.375   6.212
45247SOL     OW37637   7.343   8.188   3.753
45247SOL    HW137638   7.369   8.108   3.799
45247SOL    HW237639   7.327   8.252   3.822
45248SOL     OW37640  10.288  13.640  11.950
45248SOL    HW137641  10.379  13.615  11.932
45248SOL    HW237642  10.246  13.637  11.864
45249SOL     OW37643   2.805   7.260   7.229
45249SOL    HW137644   2.804   7.351   7.199
45249SOL    HW237645   2.898   7.242   7.246
45250SOL     OW37646  10.117  11.317   5.124
45250SOL    HW137647  10.162  11.367   5.192
45250SOL    HW237648  10.123  11.372   5.046
45251SOL     OW37649   8.693   0.482   4.520
45251SOL    HW137650   8.683   0.522   4.433
45251SOL    HW237651   8.752   0.541   4.566
45252SOL     OW37652   8.121  11.605   4.387
45252SOL    HW137653   8.138  11.652   4.469
45252SOL    HW237654   8.205  11.564   4.366
45253SOL     OW37655   5.505  14.441   3.048
45253SOL    HW137656   5.410  14.449   3.035
45253SOL    HW237657   5.518  14.349   3.071
45254SOL     OW37658   6.122   4.898  14.715
45254SOL    HW137659   6.032   4.883  14.688
45254SOL    HW237660   6.142   4.826  14.775
45255SOL     OW37661  13.027   1.705  13.229
45255SOL    HW137662  12.960   1.657  13.182
45255SOL    HW237663  13.002   1.697  13.321
45256SOL     OW37664  12.454  14.435   7.985
45256SOL    HW137665  12.471  14.393   8.069
45256SOL    HW237666  12.524  14.403   7.928
45257SOL     OW37667  14.483  12.044  14.742
45257SOL    HW137668  14.432  12.086  14.673
45257SOL    HW237669  14.573  12.071  14.725
45258SOL     OW37670   7.752  14.627   9.039
45258SOL    HW137671   7.775  14.652   8.949
45258SOL    HW237672   7.806  14.550   9.058
45259SOL     OW37673  10.882   4.371   9.234
45259SOL    HW137674  10.932   4.436   9.185
45259SOL    HW237675  10.811   4.346   9.174
45260SOL     OW37676   0.786   6.354   7.775
45260SOL    HW137677   0.789   6.366   7.681
45260SOL    HW237678   0.876   6.333   7.800
45261SOL     OW37679   7.838  12.533   7.466
45261SOL    HW137680   7.808  12.624   7.465
45261SOL    HW237681   7.849  12.511   7.373
45262SOL     OW37682   0.972  12.966   6.737
45262SOL    HW137683   0.895  12.911   6.745
45262SOL    HW237684   1.002  12.980   6.827
45263SOL     OW37685   7.727   4.724  10.361
45263SOL    HW137686   7.704   4.775  10.283
45263SOL    HW237687   7.820   4.705  10.351
45264SOL     OW37688  13.692   5.466  14.853
45264SOL    HW137689  13.701   5.518   0.051
45264SOL    HW237690  13.605   5.488  14.819
45265SOL     OW37691   2.961   9.562   6.544
45265SOL    HW137692   3.027   9.592   6.481
45265SOL    HW237693   2.964   9.467   6.539
45266SOL     OW37694   7.770   5.506   8.489
45266SOL    HW137695   7.783   5.430   8.545
45266SOL    HW237696   7.682   5.538   8.510
45267SOL     OW37697  11.936   5.628   3.973
45267SOL    HW137698  11.866   5.627   4.038
45267SOL    HW237699  12.013   5.658   4.021
45268SOL     OW37700  10.768   9.910  11.313
45268SOL    HW137701  10.673   9.901  11.304
45268SOL    HW237702  10.788   9.993  11.271
45269SOL     OW37703  12.889   1.546  11.990
45269SOL    HW137704  12.804   1.557  11.947
45269SOL    HW237705  12.934   1.630  11.977
45270SOL     OW37706  11.352   1.468  10.946
45270SOL    HW137707  11.288   1.412  10.991
45270SOL    HW237708  11.318   1.477  10.857
45271SOL     OW37709   9.255   4.139   5.898
45271SOL    HW137710   9.232   4.226   5.864
45271SOL    HW237711   9.211   4.134   5.983
45272SOL     OW37712  13.801   6.446   0.325
45272SOL    HW137713  13.746   6.485   0.393
45272SOL    HW237714  13.769   6.484   0.243
45273SOL     OW37715   3.144  10.594   4.688
45273SOL    HW137716   3.182  10.607   4.775
45273SOL    HW237717   3.094  10.674   4.671
45274SOL     OW37718   7.863  14.690   0.913
45274SOL    HW137719   7.909  14.668   0.832
45274SOL    HW237720   7.777  14.648   0.903
45275SOL     OW37721   7.167   2.649  10.432
45275SOL    HW137722   7.085   2.599  10.432
45275SOL    HW237723   7.206   2.631  10.346
45276SOL     OW37724   2.607   6.360   4.581
45276SOL    HW137725   2.570   6.445   4.603
45276SOL    HW237726   2.551   6.328   4.510
45277SOL     OW37727   4.591   6.665   5.174
45277SOL    HW137728   4.672   6.682   5.221
45277SOL    HW237729   4.617   6.612   5.099
45278SOL     OW37730   1.679   4.639   8.127
45278SOL    HW137731   1.734   4.666   8.054
45278SOL    HW237732   1.640   4.721   8.159
45279SOL     OW37733   6.183   6.287   4.750
45279SOL    HW137734   6.184   6.340   4.829
45279SOL    HW237735   6.274   6.287   4.719
45280SOL     OW37736   4.542  11.694   4.745
45280SOL    HW137737   4.618  11.645   4.713
45280SOL    HW237738   4.538  11.674   4.838
45281SOL     OW37739   3.742   6.223   6.578
45281SOL    HW137740   3.675   6.203   6.512
45281SOL    HW237741   3.756   6.317   6.570
45282SOL     OW37742   0.620  13.712   2.954
45282SOL    HW137743   0.579  13.686   3.036
45282SOL    HW237744   0.579  13.655   2.888
45283SOL     OW37745   5.830   7.508   1.853
45283SOL    HW137746   5.868   7.426   1.883
45283SOL    HW237747   5.755   7.482   1.800
45284SOL     OW37748   7.901  12.927  11.605
45284SOL    HW137749   7.964  12.888  11.544
45284SOL    HW237750   7.853  12.852  11.641
45285SOL     OW37751   8.533  10.031   1.563
45285SOL    HW137752   8.628  10.020   1.562
45285SOL    HW237753   8.499   9.943   1.582
45286SOL     OW37754  14.385   1.669  11.896
45286SOL    HW137755  14.293   1.662  11.873
45286SOL    HW237756  14.402   1.592  11.950
45287SOL     OW37757  14.373   2.325   1.704
45287SOL    HW137758  14.403   2.414   1.723
45287SOL    HW237759  14.290   2.317   1.751
45288SOL     OW37760   0.004  14.865  12.477
45288SOL    HW137761  14.808   0.017  12.519
45288SOL    HW237762   0.068  14.855  12.548
45289SOL     OW37763  12.241   4.584  12.082
45289SOL    HW137764  12.275   4.669  12.055
45289SOL    HW237765  12.160   4.574  12.032
45290SOL     OW37766   6.313  10.836   8.554
45290SOL    HW137767   6.346  10.747   8.565
45290SOL    HW237768   6.278  10.839   8.465
45291SOL     OW37769  11.754  11.661   4.437
45291SOL    HW137770  11.731  11.711   4.515
45291SOL    HW237771  11.755  11.570   4.466
45292SOL     OW37772   3.410   9.799  14.143
45292SOL    HW137773   3.496   9.804  14.100
45292SOL    HW237774   3.400   9.707  14.166
45293SOL     OW37775   6.623   1.417   4.461
45293SOL    HW137776   6.596   1.450   4.546
45293SOL    HW237777   6.561   1.456   4.399
45294SOL     OW37778   7.075   4.968   2.724
45294SOL    HW137779   7.146   4.986   2.663
45294SOL    HW237780   7.038   4.885   2.694
45295SOL     OW37781   2.509   0.563  10.667
45295SOL    HW137782   2.454   0.569  10.746
45295SOL    HW237783   2.525   0.469  10.657
45296SOL     OW37784  14.175   9.135   5.251
45296SOL    HW137785  14.207   9.199   5.187
45296SOL    HW237786  14.217   9.053   5.226
45297SOL     OW37787   9.819   6.483   7.963
45297SOL    HW137788   9.839   6.390   7.976
45297SOL    HW237789   9.808   6.493   7.869
45298SOL     OW37790   8.562   1.103  14.272
45298SOL    HW137791   8.574   1.012  14.244
45298SOL    HW237792   8.643   1.125  14.318
45299SOL     OW37793   8.626   8.297   5.179
45299SOL    HW137794   8.626   8.369   5.116
45299SOL    HW237795   8.712   8.302   5.220
45300SOL     OW37796  10.770   8.276  11.459
45300SOL    HW137797  10.699   8.215  11.479
45300SOL    HW237798  10.771   8.283  11.364
45301SOL     OW37799   4.926   3.050   1.961
45301SOL    HW137800   4.885   3.131   1.991
45301SOL    HW237801   5.019   3.071   1.954
45302SOL     OW37802   7.740  13.951   5.947
45302SOL    HW137803   7.789  13.872   5.971
45302SOL    HW237804   7.731  14.000   6.029
45303SOL     OW37805   0.335   0.822   4.557
45303SOL    HW137806   0.354   0.839   4.649
45303SOL    HW237807   0.363   0.902   4.511
45304SOL     OW37808  13.493   2.033   0.859
45304SOL    HW137809  13.539   1.950   0.858
45304SOL    HW237810  13.493   2.063   0.768
45305SOL     OW37811   1.315  13.064   0.746
45305SOL    HW137812   1.279  12.977   0.762
45305SOL    HW237813   1.408  13.057   0.770
45306SOL     OW37814   0.219  10.905   1.481
45306SOL    HW137815   0.265  10.823   1.462
45306SOL    HW237816   0.267  10.942   1.555
45307SOL     OW37817   3.875   8.165   1.951
45307SOL    HW137818   3.936   8.210   2.009
45307SOL    HW237819   3.850   8.231   1.886
45308SOL     OW37820   2.483   7.451   9.613
45308SOL    HW137821   2.532   7.409   9.684
45308SOL    HW237822   2.466   7.381   9.551
45309SOL     OW37823   4.971  11.714   9.385
45309SOL    HW137824   4.982  11.620   9.377
45309SOL    HW237825   5.060  11.749   9.378
45310SOL     OW37826  13.169   4.226   2.916
45310SOL    HW137827  13.240   4.272   2.959
45310SOL    HW237828  13.117   4.190   2.988
45311SOL     OW37829  10.341   1.982  10.731
45311SOL    HW137830  10.249   1.957  10.734
45311SOL    HW237831  10.342   2.071  10.766
45312SOL     OW37832   6.473   2.102   9.334
45312SOL    HW137833   6.490   2.185   9.290
45312SOL    HW237834   6.396   2.066   9.290
45313SOL     OW37835   6.926  11.466  14.325
45313SOL    HW137836   6.909  11.510  14.242
45313SOL    HW237837   6.980  11.390  14.302
45314SOL     OW37838   0.955   3.280  13.340
45314SOL    HW137839   0.881   3.333  13.310
45314SOL    HW237840   0.936   3.265  13.433
45315SOL     OW37841   9.918   9.629   0.667
45315SOL    HW137842   9.902   9.536   0.655
45315SOL    HW237843  10.014   9.637   0.668
45316SOL     OW37844  10.073   0.092   5.641
45316SOL    HW137845  10.090   0.178   5.679
45316SOL    HW237846  10.126   0.032   5.693
45317SOL     OW37847  13.871  13.366   3.376
45317SOL    HW137848  13.909  13.405   3.297
45317SOL    HW237849  13.925  13.290   3.393
45318SOL     OW37850  12.661   3.272   9.147
45318SOL    HW137851  12.679   3.221   9.068
45318SOL    HW237852  12.704   3.224   9.217
45319SOL     OW37853   3.005   7.413  13.748
45319SOL    HW137854   3.014   7.500  13.786
45319SOL    HW237855   3.070   7.411  13.678
45320SOL     OW37856  11.819   5.772   7.018
45320SOL    HW137857  11.815   5.696   6.959
45320SOL    HW237858  11.822   5.848   6.960
45321SOL     OW37859  10.090   5.202   3.642
45321SOL    HW137860  10.122   5.288   3.612
45321SOL    HW237861   9.998   5.217   3.664
45322SOL     OW37862   0.971   7.681   0.481
45322SOL    HW137863   0.926   7.732   0.549
45322SOL    HW237864   0.923   7.598   0.477
45323SOL     OW37865  14.398   7.775  13.281
45323SOL    HW137866  14.411   7.729  13.364
45323SOL    HW237867  14.423   7.711  13.214
45324SOL     OW37868   8.389  14.790   5.920
45324SOL    HW137869   8.423  14.873   5.887
45324SOL    HW237870   8.425  14.782   6.008
45325SOL     OW37871   7.094   9.218  10.343
45325SOL    HW137872   7.095   9.132  10.300
45325SOL    HW237873   7.039   9.272  10.287
45326SOL     OW37874  13.949  14.249   5.445
45326SOL    HW137875  13.891  14.236   5.370
45326SOL    HW237876  14.034  14.218   5.415
45327SOL     OW37877   9.086   1.083   7.826
45327SOL    HW137878   9.026   1.020   7.786
45327SOL    HW237879   9.153   1.030   7.868
45328SOL     OW37880   7.680   8.078   5.556
45328SOL    HW137881   7.602   8.112   5.514
45328SOL    HW237882   7.649   8.043   5.640
45329SOL     OW37883   0.154   3.798  12.796
45329SOL    HW137884   0.105   3.877  12.771
45329SOL    HW237885   0.104   3.760  12.867
45330SOL     OW37886   6.225  12.984   8.722
45330SOL    HW137887   6.151  12.939   8.762
45330SOL    HW237888   6.270  13.026   8.795
45331SOL     OW37889  11.273   5.722  14.681
45331SOL    HW137890  11.328   5.765  14.616
45331SOL    HW237891  11.186   5.718  14.641
45332SOL     OW37892   4.030   9.005  12.631
45332SOL    HW137893   4.038   8.937  12.564
45332SOL    HW237894   4.051   8.961  12.713
45333SOL     OW37895  11.829   6.300   2.796
45333SOL    HW137896  11.826   6.359   2.721
45333SOL    HW237897  11.856   6.215   2.759
45334SOL     OW37898  13.580  12.185   7.208
45334SOL    HW137899  13.658  12.227   7.172
45334SOL    HW237900  13.608  12.148   7.291
45335SOL     OW37901   5.806  10.629  12.072
45335SOL    HW137902   5.784  10.669  11.987
45335SOL    HW237903   5.899  10.647  12.083
45336SOL     OW37904   4.782  11.144  12.594
45336SOL    HW137905   4.723  11.075  12.625
45336SOL    HW237906   4.779  11.210  12.663
45337SOL     OW37907  10.662  11.476   8.259
45337SOL    HW137908  10.695  11.524   8.335
45337SOL    HW237909  10.582  11.523   8.234
45338SOL     OW37910   3.255   5.984   2.463
45338SOL    HW137911   3.272   5.997   2.557
45338SOL    HW237912   3.232   5.891   2.456
45339SOL     OW37913  10.414  14.614   1.484
45339SOL    HW137914  10.504  14.602   1.456
45339SOL    HW237915  10.406  14.708   1.501
45340SOL     OW37916   6.671  11.364   0.350
45340SOL    HW137917   6.584  11.351   0.388
45340SOL    HW237918   6.729  11.377   0.425
45341SOL     OW37919  10.844  13.132  12.660
45341SOL    HW137920  10.833  13.052  12.610
45341SOL    HW237921  10.757  13.173  12.661
45342SOL     OW37922   9.955   3.717   8.485
45342SOL    HW137923   9.868   3.712   8.524
45342SOL    HW237924   9.948   3.784   8.417
45343SOL     OW37925   8.334   9.242  12.271
45343SOL    HW137926   8.416   9.241  12.320
45343SOL    HW237927   8.315   9.149  12.255
45344SOL     OW37928   3.714   5.810   0.917
45344SOL    HW137929   3.728   5.884   0.976
45344SOL    HW237930   3.666   5.746   0.970
45345SOL     OW37931  13.693   3.954  13.013
45345SOL    HW137932  13.681   3.896  12.938
45345SOL    HW237933  13.731   4.034  12.977
45346SOL     OW37934   2.582   1.207   8.902
45346SOL    HW137935   2.648   1.144   8.874
45346SOL    HW237936   2.522   1.213   8.827
45347SOL     OW37937  12.143   5.772   1.130
45347SOL    HW137938  12.150   5.743   1.221
45347SOL    HW237939  12.049   5.766   1.111
45348SOL     OW37940   7.709   1.857   9.262
45348SOL    HW137941   7.802   1.839   9.274
45348SOL    HW237942   7.692   1.833   9.172
45349SOL     OW37943  11.659  11.856   8.833
45349SOL    HW137944  11.736  11.906   8.806
45349SOL    HW237945  11.587  11.918   8.827
45350SOL     OW37946   2.387   1.311   9.207
45350SOL    HW137947   2.432   1.381   9.159
45350SOL    HW237948   2.352   1.254   9.139
45351SOL     OW37949  13.232  14.048  12.620
45351SOL    HW137950  13.183  14.092  12.690
45351SOL    HW237951  13.314  14.097  12.613
45352SOL     OW37952   7.290  10.351   4.445
45352SOL    HW137953   7.247  10.381   4.525
45352SOL    HW237954   7.261  10.261   4.435
45353SOL     OW37955   7.171   4.728   4.184
45353SOL    HW137956   7.214   4.701   4.266
45353SOL    HW237957   7.151   4.647   4.139
45354SOL     OW37958  12.910   3.097   0.078
45354SOL    HW137959  12.947   3.149   0.007
45354SOL    HW237960  12.970   3.023   0.088
45355SOL     OW37961  11.954   8.675   1.664
45355SOL    HW137962  11.968   8.669   1.758
45355SOL    HW237963  11.885   8.611   1.646
45356SOL     OW37964   8.710   3.046   9.286
45356SOL    HW137965   8.735   2.961   9.323
45356SOL    HW237966   8.771   3.060   9.214
45357SOL     OW37967  11.710   0.519   5.918
45357SOL    HW137968  11.783   0.462   5.943
45357SOL    HW237969  11.642   0.500   5.982
45358SOL     OW37970   0.586   6.203  13.628
45358SOL    HW137971   0.652   6.272  13.623
45358SOL    HW237972   0.553   6.209  13.718
45359SOL     OW37973   8.124  14.859   2.750
45359SOL    HW137974   8.192   0.025   2.798
45359SOL    HW237975   8.152  14.862   2.659
45360SOL     OW37976   3.661   3.479   6.443
45360SOL    HW137977   3.635   3.422   6.371
45360SOL    HW237978   3.591   3.544   6.449
45361SOL     OW37979   3.383   0.948   4.203
45361SOL    HW137980   3.349   1.037   4.200
45361SOL    HW237981   3.454   0.952   4.268
45362SOL     OW37982   4.809   5.593   0.039
45362SOL    HW137983   4.876   5.662   0.046
45362SOL    HW237984   4.726   5.639   0.055
45363SOL     OW37985  13.529   4.029   3.088
45363SOL    HW137986  13.595   3.960   3.101
45363SOL    HW237987  13.452   3.982   3.054
45364SOL     OW37988  13.681   2.888   0.844
45364SOL    HW137989  13.614   2.825   0.868
45364SOL    HW237990  13.634   2.957   0.796
45365SOL     OW37991  14.054   5.372   5.819
45365SOL    HW137992  14.013   5.403   5.900
45365SOL    HW237993  14.026   5.281   5.812
45366SOL     OW37994   7.626   7.614   9.122
45366SOL    HW137995   7.609   7.645   9.033
45366SOL    HW237996   7.541   7.583   9.153
45367SOL     OW37997   6.305   3.741   3.861
45367SOL    HW137998   6.259   3.737   3.945
45367SOL    HW237999   6.396   3.760   3.885
45368SOL     OW38000  11.402   3.182  14.576
45368SOL    HW138001  11.483   3.181  14.625
45368SOL    HW238002  11.388   3.091  14.550
45369SOL     OW38003  14.517   6.717   0.827
45369SOL    HW138004  14.610   6.729   0.805
45369SOL    HW238005  14.506   6.622   0.832
45370SOL     OW38006   2.485  10.415  14.675
45370SOL    HW138007   2.524  10.493  14.636
45370SOL    HW238008   2.444  10.369  14.601
45371SOL     OW38009   6.080   8.506   0.327
45371SOL    HW138010   6.109   8.577   0.269
45371SOL    HW238011   6.002   8.541   0.370
45372SOL     OW38012  14.822   1.223   9.884
45372SOL    HW138013  14.844   1.287   9.952
45372SOL    HW238014   0.023   1.180   9.865
45373SOL     OW38015   3.104  10.051  10.105
45373SOL    HW138016   3.140  10.052  10.016
45373SOL    HW238017   3.031   9.990  10.101
45374SOL     OW38018   3.558   3.577   5.705
45374SOL    HW138019   3.558   3.583   5.800
45374SOL    HW238020   3.539   3.666   5.675
45375SOL     OW38021   0.539   7.696   4.142
45375SOL    HW138022   0.539   7.618   4.085
45375SOL    HW238023   0.602   7.755   4.102
45376SOL     OW38024   6.307  10.414   1.190
45376SOL    HW138025   6.220  10.409   1.151
45376SOL    HW238026   6.366  10.432   1.117
45377SOL     OW38027  10.057   3.077   7.291
45377SOL    HW138028   9.968   3.101   7.318
45377SOL    HW238029  10.102   3.161   7.281
45378SOL     OW38030   7.394   6.760   2.463
45378SOL    HW138031   7.401   6.692   2.396
45378SOL    HW238032   7.318   6.812   2.437
45379SOL     OW38033  14.102   1.442   0.862
45379SOL    HW138034  14.024   1.495   0.843
45379SOL    HW238035  14.121   1.399   0.779
45380SOL     OW38036   1.155  14.757   5.084
45380SOL    HW138037   1.179  14.665   5.075
45380SOL    HW238038   1.223  14.794   5.140
45381SOL     OW38039  14.736  11.914  11.373
45381SOL    HW138040  14.784  11.951  11.300
45381SOL    HW238041  14.803  11.875  11.430
45382SOL     OW38042   7.570  11.581   4.041
45382SOL    HW138043   7.588  11.488   4.051
45382SOL    HW238044   7.630  11.624   4.101
45383SOL     OW38045   7.528   5.851   2.088
45383SOL    HW138046   7.594   5.789   2.119
45383SOL    HW238047   7.467   5.798   2.037
45384SOL     OW38048   9.327   7.724  12.423
45384SOL    HW138049   9.307   7.746  12.514
45384SOL    HW238050   9.242   7.719  12.380
45385SOL     OW38051  10.032  14.777  11.976
45385SOL    HW138052  10.033  14.720  12.053
45385SOL    HW238053   9.980  14.729  11.911
45386SOL     OW38054   5.853   4.290   8.561
45386SOL    HW138055   5.898   4.324   8.483
45386SOL    HW238056   5.916   4.228   8.598
45387SOL     OW38057   0.840   0.668   8.038
45387SOL    HW138058   0.766   0.645   8.094
45387SOL    HW238059   0.887   0.736   8.086
45388SOL     OW38060   8.622   0.054   2.665
45388SOL    HW138061   8.678   0.060   2.588
45388SOL    HW238062   8.633  14.846   2.695
45389SOL     OW38063   8.720   6.557  12.497
45389SOL    HW138064   8.655   6.538  12.565
45389SOL    HW238065   8.671   6.548  12.415
45390SOL     OW38066   2.648   1.757   4.514
45390SOL    HW138067   2.571   1.812   4.521
45390SOL    HW238068   2.617   1.669   4.538
45391SOL     OW38069  12.903  10.032  14.725
45391SOL    HW138070  12.815  10.053  14.694
45391SOL    HW238071  12.929   9.956  14.673
45392SOL     OW38072   9.276   4.555   1.406
45392SOL    HW138073   9.187   4.525   1.388
45392SOL    HW238074   9.331   4.477   1.393
45393SOL     OW38075   2.857   6.270   7.002
45393SOL    HW138076   2.899   6.207   6.944
45393SOL    HW238077   2.916   6.345   7.004
45394SOL     OW38078   7.610   5.430  11.257
45394SOL    HW138079   7.616   5.378  11.178
45394SOL    HW238080   7.685   5.403  11.310
45395SOL     OW38081   4.803   2.213   5.180
45395SOL    HW138082   4.733   2.207   5.115
45395SOL    HW238083   4.763   2.178   5.260
45396SOL     OW38084   4.172  13.132  12.937
45396SOL    HW138085   4.168  13.053  12.992
45396SOL    HW238086   4.094  13.127  12.882
45397SOL     OW38087   5.441  11.830   7.631
45397SOL    HW138088   5.393  11.779   7.566
45397SOL    HW238089   5.465  11.911   7.586
45398SOL     OW38090  12.072   7.882   8.689
45398SOL    HW138091  12.106   7.887   8.778
45398SOL    HW238092  12.116   7.806   8.651
45399SOL     OW38093   1.709   6.542   5.824
45399SOL    HW138094   1.745   6.457   5.850
45399SOL    HW238095   1.621   6.543   5.861
45400SOL     OW38096   5.721   7.757   3.718
45400SOL    HW138097   5.671   7.726   3.794
45400SOL    HW238098   5.692   7.702   3.645
45401SOL     OW38099  13.533  13.933  14.554
45401SOL    HW138100  13.584  13.978  14.622
45401SOL    HW238101  13.565  13.843  14.556
45402SOL     OW38102   4.661   5.195   3.157
45402SOL    HW138103   4.654   5.274   3.210
45402SOL    HW238104   4.642   5.224   3.068
45403SOL     OW38105   2.572   1.262   7.305
45403SOL    HW138106   2.579   1.329   7.373
45403SOL    HW238107   2.518   1.194   7.344
45404SOL     OW38108   8.832   9.891   6.143
45404SOL    HW138109   8.790   9.928   6.066
45404SOL    HW238110   8.905   9.839   6.109
45405SOL     OW38111   1.943   1.584   4.519
45405SOL    HW138112   1.970   1.590   4.428
45405SOL    HW238113   1.978   1.500   4.550
45406SOL     OW38114   2.446  10.513  13.848
45406SOL    HW138115   2.409  10.480  13.766
45406SOL    HW238116   2.541  10.512  13.834
45407SOL     OW38117   0.409   0.737   7.351
45407SOL    HW138118   0.436   0.808   7.293
45407SOL    HW238119   0.347   0.686   7.299
45408SOL     OW38120   5.990   9.984  14.755
45408SOL    HW138121   6.082   9.960  14.740
45408SOL    HW238122   5.950   9.981  14.668
45409SOL     OW38123   1.997   5.457   4.072
45409SOL    HW138124   2.022   5.388   4.011
45409SOL    HW238125   1.901   5.451   4.076
45410SOL     OW38126   5.920  10.523  13.223
45410SOL    HW138127   5.866  10.447  13.244
45410SOL    HW238128   5.976  10.535  13.300
45411SOL     OW38129  10.597   8.317  10.038
45411SOL    HW138130  10.621   8.258   9.967
45411SOL    HW238131  10.539   8.382   9.997
45412SOL     OW38132  11.304  11.074   8.223
45412SOL    HW138133  11.338  11.056   8.310
45412SOL    HW238134  11.339  11.160   8.201
45413SOL     OW38135   5.365  13.307   7.162
45413SOL    HW138136   5.389  13.346   7.246
45413SOL    HW238137   5.290  13.251   7.182
45414SOL     OW38138   4.822   8.830   8.854
45414SOL    HW138139   4.740   8.877   8.868
45414SOL    HW238140   4.841   8.843   8.761
45415SOL     OW38141   7.599   4.919   2.003
45415SOL    HW138142   7.565   4.917   1.913
45415SOL    HW238143   7.589   4.829   2.034
45416SOL     OW38144   7.537  13.239  11.391
45416SOL    HW138145   7.524  13.234  11.485
45416SOL    HW238146   7.455  13.209  11.353
45417SOL     OW38147   2.996   3.263   6.553
45417SOL    HW138148   2.969   3.174   6.578
45417SOL    HW238149   3.019   3.305   6.636
45418SOL     OW38150   5.725   8.866   0.944
45418SOL    HW138151   5.721   8.961   0.952
45418SOL    HW238152   5.804   8.841   0.990
45419SOL     OW38153   2.643   0.090   7.177
45419SOL    HW138154   2.560   0.105   7.223
45419SOL    HW238155   2.709   0.126   7.235
45420SOL     OW38156   2.187  13.304   9.829
45420SOL    HW138157   2.208  13.216   9.800
45420SOL    HW238158   2.136  13.292   9.909
45421SOL     OW38159   7.380   8.759   0.088
45421SOL    HW138160   7.356   8.689   0.148
45421SOL    HW238161   7.329   8.742   0.009
45422SOL     OW38162   1.811   4.636  13.379
45422SOL    HW138163   1.880   4.702  13.369
45422SOL    HW238164   1.786   4.642  13.471
45423SOL     OW38165  14.519  10.980   0.781
45423SOL    HW138166  14.439  10.928   0.792
45423SOL    HW238167  14.563  10.973   0.866
45424SOL     OW38168   1.656   0.769   1.567
45424SOL    HW138169   1.601   0.691   1.554
45424SOL    HW238170   1.607   0.840   1.526
45425SOL     OW38171   1.867   2.248   2.533
45425SOL    HW138172   1.790   2.294   2.567
45425SOL    HW238173   1.840   2.219   2.446
45426SOL     OW38174  13.062   5.516   1.028
45426SOL    HW138175  13.032   5.523   0.937
45426SOL    HW238176  13.104   5.430   1.033
45427SOL     OW38177   5.298   7.226   3.038
45427SOL    HW138178   5.289   7.133   3.015
45427SOL    HW238179   5.208   7.259   3.038
45428SOL     OW38180   4.292   2.380   8.450
45428SOL    HW138181   4.200   2.394   8.430
45428SOL    HW238182   4.323   2.320   8.383
45429SOL     OW38183  10.151  13.039   3.365
45429SOL    HW138184  10.234  13.084   3.380
45429SOL    HW238185  10.176  12.960   3.316
45430SOL     OW38186   8.995   5.214  14.875
45430SOL    HW138187   9.085   5.187  14.857
45430SOL    HW238188   8.981   5.192   0.085
45431SOL     OW38189   5.786   1.953  10.142
45431SOL    HW138190   5.721   1.885  10.125
45431SOL    HW238191   5.868   1.904  10.152
45432SOL     OW38192   3.085   7.110   9.400
45432SOL    HW138193   3.113   7.193   9.362
45432SOL    HW238194   2.990   7.115   9.404
45433SOL     OW38195   4.729  11.424   2.482
45433SOL    HW138196   4.794  11.355   2.494
45433SOL    HW238197   4.702  11.416   2.390
45434SOL     OW38198   0.813   5.711   3.043
45434SOL    HW138199   0.874   5.665   2.987
45434SOL    HW238200   0.738   5.731   2.987
45435SOL     OW38201  12.183  12.633  12.820
45435SOL    HW138202  12.092  12.662  12.813
45435SOL    HW238203  12.222  12.652  12.735
45436SOL     OW38204  10.138  13.655  13.608
45436SOL    HW138205  10.180  13.740  13.624
45436SOL    HW238206  10.168  13.629  13.521
45437SOL     OW38207   0.029  10.547   8.807
45437SOL    HW138208  14.863  10.467   8.828
45437SOL    HW238209   0.045  10.542   8.713
45438SOL     OW38210  12.671  14.288   3.257
45438SOL    HW138211  12.691  14.241   3.176
45438SOL    HW238212  12.697  14.378   3.240
45439SOL     OW38213   3.016   4.656  12.404
45439SOL    HW138214   3.011   4.717  12.477
45439SOL    HW238215   2.971   4.578  12.435
45440SOL     OW38216  10.031   7.612  14.874
45440SOL    HW138217  10.032   7.670  14.798
45440SOL    HW238218  10.071   7.531  14.842
45441SOL     OW38219   1.185   2.535   8.013
45441SOL    HW138220   1.271   2.499   8.038
45441SOL    HW238221   1.187   2.624   8.047
45442SOL     OW38222   7.432   8.204   5.505
45442SOL    HW138223   7.497   8.274   5.511
45442SOL    HW238224   7.373   8.220   5.579
45443SOL     OW38225   1.214   8.411  10.869
45443SOL    HW138226   1.292   8.464  10.853
45443SOL    HW238227   1.211   8.349  10.797
45444SOL     OW38228   3.301   0.980   4.566
45444SOL    HW138229   3.380   0.928   4.583
45444SOL    HW238230   3.329   1.071   4.579
45445SOL     OW38231  12.376  10.979   6.676
45445SOL    HW138232  12.455  10.971   6.621
45445SOL    HW238233  12.408  10.971   6.766
45446SOL     OW38234  14.659   9.414   6.534
45446SOL    HW138235  14.586   9.353   6.543
45446SOL    HW238236  14.713   9.378   6.463
45447SOL     OW38237  12.969   1.865   1.956
45447SOL    HW138238  12.982   1.949   1.912
45447SOL    HW238239  13.030   1.806   1.911
45448SOL     OW38240   8.318   1.790   6.387
45448SOL    HW138241   8.374   1.846   6.334
45448SOL    HW238242   8.331   1.702   6.352
45449SOL     OW38243  11.818   0.530   7.661
45449SOL    HW138244  11.887   0.546   7.725
45449SOL    HW238245  11.860   0.547   7.576
45450SOL     OW38246   4.265   2.702  14.559
45450SOL    HW138247   4.175   2.728  14.579
45450SOL    HW238248   4.316   2.783  14.564
45451SOL     OW38249   9.730  10.151  10.856
45451SOL    HW138250   9.758  10.095  10.784
45451SOL    HW238251   9.811  10.177  10.900
45452SOL     OW38252  11.141  14.170  13.301
45452SOL    HW138253  11.159  14.122  13.382
45452SOL    HW238254  11.094  14.249  13.330
45453SOL     OW38255   4.079  10.367   0.913
45453SOL    HW138256   4.019  10.293   0.911
45453SOL    HW238257   4.027  10.440   0.946
45454SOL     OW38258   5.484  13.634  12.225
45454SOL    HW138259   5.447  13.649  12.138
45454SOL    HW238260   5.470  13.541  12.241
45455SOL     OW38261   7.400   1.228  14.627
45455SOL    HW138262   7.433   1.149  14.670
45455SOL    HW238263   7.476   1.286  14.622
45456SOL     OW38264  10.040   0.010   0.418
45456SOL    HW138265  10.074  14.834   0.486
45456SOL    HW238266   9.946  14.877   0.417
45457SOL     OW38267   2.022   6.573   0.157
45457SOL    HW138268   2.034   6.658   0.197
45457SOL    HW238269   1.943   6.582   0.103
45458SOL     OW38270   0.012   5.638   0.683
45458SOL    HW138271   0.108   5.636   0.679
45458SOL    HW238272  14.875   5.637   0.777
45459SOL     OW38273   9.916  13.588   3.189
45459SOL    HW138274   9.959  13.527   3.129
45459SOL    HW238275   9.826  13.593   3.157
45460SOL     OW38276   0.690   4.659   9.342
45460SOL    HW138277   0.625   4.630   9.405
45460SOL    HW238278   0.649   4.732   9.295
45461SOL     OW38279   4.571   8.160   8.365
45461SOL    HW138280   4.623   8.240   8.363
45461SOL    HW238281   4.581   8.122   8.277
45462SOL     OW38282   1.956   2.978   2.600
45462SOL    HW138283   1.999   3.023   2.528
45462SOL    HW238284   1.989   3.022   2.679
45463SOL     OW38285   8.191   9.914   1.489
45463SOL    HW138286   8.102   9.938   1.463
45463SOL    HW238287   8.184   9.896   1.583
45464SOL     OW38288   8.787   6.003   3.656
45464SOL    HW138289   8.873   6.044   3.648
45464SOL    HW238290   8.732   6.053   3.596
45465SOL     OW38291  12.839   4.925   6.573
45465SOL    HW138292  12.874   4.843   6.608
45465SOL    HW238293  12.834   4.911   6.479
45466SOL     OW38294   2.551   1.300   2.608
45466SOL    HW138295   2.622   1.282   2.546
45466SOL    HW238296   2.560   1.393   2.629
45467SOL     OW38297  14.575  13.890   1.817
45467SOL    HW138298  14.650  13.836   1.793
45467SOL    HW238299  14.611  13.977   1.832
45468SOL     OW38300   5.747   0.288  13.123
45468SOL    HW138301   5.663   0.279  13.168
45468SOL    HW238302   5.725   0.287  13.030
45469SOL     OW38303   2.946  10.180   2.151
45469SOL    HW138304   2.933  10.191   2.057
45469SOL    HW238305   2.862  10.148   2.183
45470SOL     OW38306   6.630  12.364   5.087
45470SOL    HW138307   6.571  12.290   5.072
45470SOL    HW238308   6.714  12.336   5.051
45471SOL     OW38309  10.078   0.443  14.831
45471SOL    HW138310  10.049   0.355  14.808
45471SOL    HW238311  10.143   0.430   0.018
45472SOL     OW38312  12.372  12.782   7.536
45472SOL    HW138313  12.391  12.876   7.540
45472SOL    HW238314  12.396  12.757   7.446
45473SOL     OW38315  14.803   0.132  10.827
45473SOL    HW138316  14.846   0.199  10.880
45473SOL    HW238317  14.846   0.051  10.852
45474SOL     OW38318   0.290   8.351   6.155
45474SOL    HW138319   0.204   8.339   6.114
45474SOL    HW238320   0.270   8.388   6.241
45475SOL     OW38321   3.315   0.789  13.212
45475SOL    HW138322   3.366   0.742  13.278
45475SOL    HW238323   3.281   0.720  13.155
45476SOL     OW38324  14.410   7.250  10.272
45476SOL    HW138325  14.417   7.238  10.177
45476SOL    HW238326  14.317   7.265  10.288
45477SOL     OW38327   1.071  13.315   5.516
45477SOL    HW138328   1.020  13.363   5.581
45477SOL    HW238329   1.129  13.380   5.477
45478SOL     OW38330   1.557   1.859   0.387
45478SOL    HW138331   1.534   1.834   0.298
45478SOL    HW238332   1.625   1.797   0.413
45479SOL     OW38333   9.207   1.290   5.601
45479SOL    HW138334   9.272   1.335   5.547
45479SOL    HW238335   9.161   1.361   5.646
45480SOL     OW38336   6.735   6.604   4.108
45480SOL    HW138337   6.664   6.565   4.058
45480SOL    HW238338   6.708   6.594   4.200
45481SOL     OW38339   6.923   7.467   0.883
45481SOL    HW138340   6.990   7.413   0.924
45481SOL    HW238341   6.936   7.455   0.789
45482SOL     OW38342  14.764   0.614  10.353
45482SOL    HW138343  14.676   0.582  10.372
45482SOL    HW238344  14.775   0.690  10.409
45483SOL     OW38345   9.725   4.595  14.831
45483SOL    HW138346   9.639   4.589  14.790
45483SOL    HW238347   9.787   4.576  14.761
45484SOL     OW38348   3.875   3.879   2.861
45484SOL    HW138349   3.851   3.865   2.952
45484SOL    HW238350   3.835   3.806   2.814
45485SOL     OW38351   3.392   0.854   5.015
45485SOL    HW138352   3.478   0.854   4.975
45485SOL    HW238353   3.372   0.946   5.031
45486SOL     OW38354   7.657   9.805   7.167
45486SOL    HW138355   7.745   9.839   7.151
45486SOL    HW238356   7.670   9.731   7.226
45487SOL     OW38357   2.747  11.050  12.931
45487SOL    HW138358   2.685  11.009  12.870
45487SOL    HW238359   2.805  10.978  12.957
45488SOL     OW38360   7.418  12.134  11.908
45488SOL    HW138361   7.432  12.045  11.874
45488SOL    HW238362   7.468  12.190  11.850
45489SOL     OW38363   4.017   4.217   7.438
45489SOL    HW138364   4.034   4.278   7.510
45489SOL    HW238365   3.937   4.171   7.462
45490SOL     OW38366   8.114   6.035   7.138
45490SOL    HW138367   8.189   6.056   7.194
45490SOL    HW238368   8.039   6.038   7.198
45491SOL     OW38369   4.385   9.334   3.460
45491SOL    HW138370   4.419   9.280   3.388
45491SOL    HW238371   4.375   9.421   3.421
45492SOL     OW38372   2.282   5.157   5.092
45492SOL    HW138373   2.213   5.137   5.155
45492SOL    HW238374   2.240   5.150   5.007
45493SOL     OW38375   8.608   2.245   2.978
45493SOL    HW138376   8.542   2.308   2.949
45493SOL    HW238377   8.685   2.265   2.926
45494SOL     OW38378  14.448   2.524   8.614
45494SOL    HW138379  14.418   2.570   8.692
45494SOL    HW238380  14.516   2.580   8.577
45495SOL     OW38381   2.892   5.172   6.147
45495SOL    HW138382   2.809   5.167   6.195
45495SOL    HW238383   2.939   5.093   6.174
45496SOL     OW38384  13.507  10.623   0.284
45496SOL    HW138385  13.530  10.682   0.356
45496SOL    HW238386  13.584  10.567   0.274
45497SOL     OW38387   9.203  12.994   7.555
45497SOL    HW138388   9.297  13.009   7.542
45497SOL    HW238389   9.160  13.057   7.498
45498SOL     OW38390   4.798   6.715  14.846
45498SOL    HW138391   4.785   6.805  14.876
45498SOL    HW238392   4.893   6.706  14.836
45499SOL     OW38393   5.773  12.846   7.158
45499SOL    HW138394   5.692  12.795   7.164
45499SOL    HW238395   5.749  12.923   7.105
45500SOL     OW38396   4.511  10.925   3.267
45500SOL    HW138397   4.465  10.918   3.183
45500SOL    HW238398   4.496  11.015   3.295
45501SOL     OW38399   2.526   3.406  13.405
45501SOL    HW138400   2.516   3.311  13.408
45501SOL    HW238401   2.440   3.439  13.433
45502SOL     OW38402   3.268   1.787  12.460
45502SOL    HW138403   3.309   1.710  12.500
45502SOL    HW238404   3.314   1.797  12.376
45503SOL     OW38405   2.653   3.166   6.548
45503SOL    HW138406   2.680   3.236   6.488
45503SOL    HW238407   2.595   3.110   6.495
45504SOL     OW38408   9.442   7.330  12.737
45504SOL    HW138409   9.424   7.322  12.831
45504SOL    HW238410   9.410   7.417  12.714
45505SOL     OW38411   1.931   8.965  11.843
45505SOL    HW138412   2.005   8.937  11.790
45505SOL    HW238413   1.865   8.897  11.831
45506SOL     OW38414   3.933   8.795  10.758
45506SOL    HW138415   3.916   8.718  10.812
45506SOL    HW238416   3.890   8.867  10.804
45507SOL     OW38417  12.483   8.649  10.828
45507SOL    HW138418  12.418   8.719  10.827
45507SOL    HW238419  12.472   8.604  10.743
45508SOL     OW38420   3.905  10.118   9.538
45508SOL    HW138421   3.938  10.176   9.607
45508SOL    HW238422   3.909  10.172   9.458
45509SOL     OW38423   6.364   8.475   6.701
45509SOL    HW138424   6.389   8.515   6.618
45509SOL    HW238425   6.433   8.413   6.720
45510SOL     OW38426   7.504  10.132   9.360
45510SOL    HW138427   7.523  10.039   9.353
45510SOL    HW238428   7.533  10.169   9.276
45511SOL     OW38429   3.103   5.149   1.283
45511SOL    HW138430   3.164   5.220   1.304
45511SOL    HW238431   3.131   5.118   1.197
45512SOL     OW38432   0.637   7.286  10.273
45512SOL    HW138433   0.625   7.294  10.178
45512SOL    HW238434   0.580   7.354  10.310
45513SOL     OW38435   0.455  14.071  12.909
45513SOL    HW138436   0.449  14.155  12.955
45513SOL    HW238437   0.548  14.048  12.915
45514SOL     OW38438   0.795   2.680  10.571
45514SOL    HW138439   0.717   2.657  10.622
45514SOL    HW238440   0.868   2.660  10.629
45515SOL     OW38441  11.162   3.402  12.952
45515SOL    HW138442  11.132   3.401  13.043
45515SOL    HW238443  11.256   3.387  12.957
45516SOL     OW38444   6.813   4.249  12.469
45516SOL    HW138445   6.881   4.281  12.529
45516SOL    HW238446   6.832   4.156  12.458
45517SOL     OW38447   3.541   1.170   8.530
45517SOL    HW138448   3.551   1.113   8.454
45517SOL    HW238449   3.566   1.257   8.498
45518SOL     OW38450   2.360  14.741   5.139
45518SOL    HW138451   2.323  14.829   5.153
45518SOL    HW238452   2.349  14.725   5.045
45519SOL     OW38453   0.031   3.567  11.579
45519SOL    HW138454   0.050   3.586  11.487
45519SOL    HW238455  14.822   3.537  11.579
45520SOL     OW38456  13.249   0.149  14.322
45520SOL    HW138457  13.251   0.089  14.397
45520SOL    HW238458  13.271   0.093  14.247
45521SOL     OW38459   8.334   2.853   0.232
45521SOL    HW138460   8.421   2.879   0.261
45521SOL    HW238461   8.309   2.919   0.167
45522SOL     OW38462   0.783   4.327   6.947
45522SOL    HW138463   0.831   4.249   6.917
45522SOL    HW238464   0.695   4.314   6.912
45523SOL     OW38465   0.409   1.167   6.058
45523SOL    HW138466   0.387   1.257   6.079
45523SOL    HW238467   0.359   1.115   6.120
45524SOL     OW38468   9.196   8.866   5.466
45524SOL    HW138469   9.248   8.843   5.543
45524SOL    HW238470   9.110   8.829   5.484
45525SOL     OW38471   3.012   2.223   5.101
45525SOL    HW138472   2.986   2.298   5.154
45525SOL    HW238473   2.947   2.219   5.031
45526SOL     OW38474   2.764   1.331   6.164
45526SOL    HW138475   2.832   1.264   6.169
45526SOL    HW238476   2.744   1.338   6.071
45527SOL     OW38477  10.062   8.775   6.413
45527SOL    HW138478  10.142   8.729   6.438
45527SOL    HW238479  10.089   8.830   6.339
45528SOL     OW38480   8.637   3.234   5.033
45528SOL    HW138481   8.661   3.187   5.112
45528SOL    HW238482   8.576   3.302   5.063
45529SOL     OW38483  10.088   4.653   2.390
45529SOL    HW138484  10.151   4.643   2.461
45529SOL    HW238485  10.130   4.613   2.314
45530SOL     OW38486   6.846   8.149   8.767
45530SOL    HW138487   6.880   8.067   8.803
45530SOL    HW238488   6.779   8.177   8.829
45531SOL     OW38489  12.860  10.138  12.549
45531SOL    HW138490  12.892  10.101  12.632
45531SOL    HW238491  12.804  10.070  12.513
45532SOL     OW38492   0.670  10.679   1.478
45532SOL    HW138493   0.715  10.760   1.453
45532SOL    HW238494   0.729  10.638   1.541
45533SOL     OW38495   4.624   8.461   3.363
45533SOL    HW138496   4.535   8.449   3.332
45533SOL    HW238497   4.678   8.409   3.303
45534SOL     OW38498  14.581   2.122  11.017
45534SOL    HW138499  14.618   2.124  11.105
45534SOL    HW238500  14.518   2.050  11.018
45535SOL     OW38501   4.266   7.125   4.674
45535SOL    HW138502   4.271   7.039   4.717
45535SOL    HW238503   4.250   7.186   4.746
45536SOL     OW38504   3.618  10.229   5.258
45536SOL    HW138505   3.672  10.272   5.191
45536SOL    HW238506   3.535  10.211   5.212
45537SOL     OW38507  10.274   8.323  12.725
45537SOL    HW138508  10.232   8.345  12.808
45537SOL    HW238509  10.206   8.340  12.659
45538SOL     OW38510   6.075   1.669   5.130
45538SOL    HW138511   6.138   1.709   5.189
45538SOL    HW238512   6.081   1.721   5.050
45539SOL     OW38513  14.626   6.401   1.476
45539SOL    HW138514  14.666   6.372   1.558
45539SOL    HW238515  14.548   6.346   1.467
45540SOL     OW38516   3.652   1.311  10.269
45540SOL    HW138517   3.711   1.348  10.334
45540SOL    HW238518   3.566   1.348  10.290
45541SOL     OW38519  11.820   2.064   5.528
45541SOL    HW138520  11.898   2.101   5.486
45541SOL    HW238521  11.834   2.079   5.621
45542SOL     OW38522  11.201   3.974   2.058
45542SOL    HW138523  11.224   4.049   2.003
45542SOL    HW238524  11.230   3.999   2.146
45543SOL     OW38525   3.540   3.728  11.528
45543SOL    HW138526   3.549   3.729  11.623
45543SOL    HW238527   3.553   3.637  11.503
45544SOL     OW38528  14.511   3.699   6.762
45544SOL    HW138529  14.595   3.715   6.806
45544SOL    HW238530  14.445   3.719   6.828
45545SOL     OW38531   2.886   1.604   0.932
45545SOL    HW138532   2.933   1.534   0.887
45545SOL    HW238533   2.794   1.577   0.928
45546SOL     OW38534   6.603  14.646   6.767
45546SOL    HW138535   6.661  14.578   6.804
45546SOL    HW238536   6.532  14.653   6.831
45547SOL     OW38537  13.021   3.018   3.167
45547SOL    HW138538  13.079   3.048   3.238
45547SOL    HW238539  12.945   2.982   3.212
45548SOL     OW38540   5.038  12.546   6.052
45548SOL    HW138541   4.957  12.559   6.102
45548SOL    HW238542   5.014  12.566   5.961
45549SOL     OW38543  14.582  12.200  14.446
45549SOL    HW138544  14.651  12.135  14.454
45549SOL    HW238545  14.620  12.281  14.479
45550SOL     OW38546  10.447   6.145   9.432
45550SOL    HW138547  10.463   6.215   9.495
45550SOL    HW238548  10.353   6.148   9.415
45551SOL     OW38549  13.693  11.477   2.163
45551SOL    HW138550  13.747  11.475   2.084
45551SOL    HW238551  13.604  11.493   2.132
45552SOL     OW38552   4.486   7.340   9.876
45552SOL    HW138553   4.566   7.332   9.823
45552SOL    HW238554   4.496   7.424   9.922
45553SOL     OW38555   5.995  12.872   7.321
45553SOL    HW138556   6.073  12.823   7.297
45553SOL    HW238557   5.935  12.860   7.247
45554SOL     OW38558   7.694   4.661   5.549
45554SOL    HW138559   7.753   4.630   5.480
45554SOL    HW238560   7.700   4.594   5.617
45555SOL     OW38561  10.915   4.448  13.793
45555SOL    HW138562  10.841   4.407  13.748
45555SOL    HW238563  10.992   4.420  13.743
45556SOL     OW38564  11.364  14.434   8.407
45556SOL    HW138565  11.333  14.346   8.385
45556SOL    HW238566  11.339  14.446   8.498
45557SOL     OW38567  11.343   0.859  10.797
45557SOL    HW138568  11.437   0.858  10.775
45557SOL    HW238569  11.316   0.949  10.780
45558SOL     OW38570   5.801   9.755   0.490
45558SOL    HW138571   5.722   9.701   0.487
45558SOL    HW238572   5.775   9.838   0.450
45559SOL     OW38573  14.504  13.767  14.848
45559SOL    HW138574  14.534  13.846   0.010
45559SOL    HW238575  14.578  13.741  14.793
45560SOL     OW38576   6.102   5.712   5.978
45560SOL    HW138577   6.039   5.685   5.911
45560SOL    HW238578   6.185   5.717   5.933
45561SOL     OW38579  11.730  14.402   7.581
45561SOL    HW138580  11.638  14.390   7.557
45561SOL    HW238581  11.745  14.496   7.574
45562SOL     OW38582   7.648  14.827   3.579
45562SOL    HW138583   7.666  14.733   3.584
45562SOL    HW238584   7.563  14.838   3.622
45563SOL     OW38585  12.247   2.465  14.251
45563SOL    HW138586  12.315   2.422  14.304
45563SOL    HW238587  12.171   2.470  14.309
45564SOL     OW38588  11.022   2.765   8.186
45564SOL    HW138589  11.102   2.719   8.212
45564SOL    HW238590  10.975   2.779   8.268
45565SOL     OW38591   1.496   2.870  10.382
45565SOL    HW138592   1.501   2.836  10.472
45565SOL    HW238593   1.581   2.913  10.369
45566SOL     OW38594  14.810   8.927   2.842
45566SOL    HW138595  14.800   8.842   2.798
45566SOL    HW238596  14.723   8.967   2.836
45567SOL     OW38597  14.010   4.566  14.183
45567SOL    HW138598  13.998   4.637  14.247
45567SOL    HW238599  14.079   4.599  14.124
45568SOL     OW38600   0.929   9.938   9.445
45568SOL    HW138601   0.982   9.889   9.382
45568SOL    HW238602   0.856   9.972   9.394
45569SOL     OW38603   8.245   6.073   4.711
45569SOL    HW138604   8.327   6.082   4.662
45569SOL    HW238605   8.238   5.980   4.730
45570SOL     OW38606   4.551   4.155   9.806
45570SOL    HW138607   4.635   4.119   9.832
45570SOL    HW238608   4.553   4.157   9.710
45571SOL     OW38609   2.435   0.519   9.179
45571SOL    HW138610   2.430   0.509   9.084
45571SOL    HW238611   2.348   0.495   9.211
45572SOL     OW38612   4.667  10.325  14.835
45572SOL    HW138613   4.700  10.235  14.826
45572SOL    HW238614   4.610  10.322   0.029
45573SOL     OW38615  13.131   6.224   4.116
45573SOL    HW138616  13.038   6.204   4.129
45573SOL    HW238617  13.175   6.182   4.189
45574SOL     OW38618  14.826   3.543   6.562
45574SOL    HW138619   0.010   3.552   6.630
45574SOL    HW238620  14.750   3.508   6.607
45575SOL     OW38621   0.343   0.004   7.583
45575SOL    HW138622   0.419  14.831   7.566
45575SOL    HW238623   0.276  14.853   7.522
45576SOL     OW38624  12.963   4.764  13.826
45576SOL    HW138625  12.951   4.841  13.770
45576SOL    HW238626  12.904   4.777  13.899
45577SOL     OW38627  10.266   1.591   4.216
45577SOL    HW138628  10.233   1.561   4.301
45577SOL    HW238629  10.193   1.639   4.178
45578SOL     OW38630   2.483  12.494   7.320
45578SOL    HW138631   2.400  12.484   7.367
45578SOL    HW238632   2.505  12.404   7.293
45579SOL     OW38633   2.185   4.225   9.077
45579SOL    HW138634   2.119   4.171   9.033
45579SOL    HW238635   2.267   4.204   9.033
45580SOL     OW38636   8.991   1.684  10.324
45580SOL    HW138637   8.996   1.598  10.281
45580SOL    HW238638   8.911   1.723  10.288
45581SOL     OW38639   6.006   5.174   3.984
45581SOL    HW138640   5.971   5.219   3.906
45581SOL    HW238641   6.082   5.127   3.951
45582SOL     OW38642  14.297   1.366   3.903
45582SOL    HW138643  14.270   1.452   3.932
45582SOL    HW238644  14.350   1.383   3.825
45583SOL     OW38645   4.389   2.855  10.448
45583SOL    HW138646   4.365   2.948  10.442
45583SOL    HW238647   4.485   2.856  10.453
45584SOL     OW38648  14.329  12.959   8.936
45584SOL    HW138649  14.241  12.998   8.930
45584SOL    HW238650  14.388  13.033   8.948
45585SOL     OW38651   9.717  11.420   5.220
45585SOL    HW138652   9.639  11.384   5.177
45585SOL    HW238653   9.774  11.447   5.147
45586SOL     OW38654  10.641  10.279   2.589
45586SOL    HW138655  10.604  10.367   2.600
45586SOL    HW238656  10.571  10.220   2.617
45587SOL     OW38657   2.719   8.960  10.377
45587SOL    HW138658   2.721   8.950  10.282
45587SOL    HW238659   2.673   9.042  10.392
45588SOL     OW38660  10.481   8.501  13.392
45588SOL    HW138661  10.416   8.484  13.460
45588SOL    HW238662  10.430   8.539  13.320
45589SOL     OW38663   9.293   8.666  11.849
45589SOL    HW138664   9.321   8.681  11.759
45589SOL    HW238665   9.364   8.702  11.903
45590SOL     OW38666   2.594   2.114   7.316
45590SOL    HW138667   2.555   2.111   7.403
45590SOL    HW238668   2.596   2.022   7.288
45591SOL     OW38669  13.872   4.919   3.944
45591SOL    HW138670  13.842   4.838   3.985
45591SOL    HW238671  13.801   4.981   3.960
45592SOL     OW38672  13.540   0.832   6.877
45592SOL    HW138673  13.485   0.778   6.935
45592SOL    HW238674  13.477   0.885   6.828
45593SOL     OW38675   1.037   1.962  14.271
45593SOL    HW138676   1.007   1.877  14.239
45593SOL    HW238677   0.976   2.025  14.232
45594SOL     OW38678  11.473   0.844  12.095
45594SOL    HW138679  11.552   0.794  12.074
45594SOL    HW238680  11.467   0.841  12.190
45595SOL     OW38681   4.111   7.892   6.548
45595SOL    HW138682   4.203   7.909   6.566
45595SOL    HW238683   4.098   7.921   6.458
45596SOL     OW38684  14.240   2.419   6.873
45596SOL    HW138685  14.284   2.490   6.921
45596SOL    HW238686  14.311   2.374   6.827
45597SOL     OW38687   2.099   0.402  14.860
45597SOL    HW138688   2.075   0.319  14.820
45597SOL    HW238689   2.162   0.378   0.046
45598SOL     OW38690   8.028  12.745   6.472
45598SOL    HW138691   8.103  12.695   6.504
45598SOL    HW238692   7.986  12.779   6.551
45599SOL     OW38693   8.237   6.308   6.238
45599SOL    HW138694   8.295   6.259   6.181
45599SOL    HW238695   8.252   6.272   6.326
45600SOL     OW38696   1.907   9.284   9.005
45600SOL    HW138697   1.895   9.203   9.053
45600SOL    HW238698   1.962   9.338   9.061
45601SOL     OW38699   0.737  13.469   6.808
45601SOL    HW138700   0.736  13.538   6.741
45601SOL    HW238701   0.830  13.462   6.833
45602SOL     OW38702   8.312   1.450   7.183
45602SOL    HW138703   8.237   1.470   7.127
45602SOL    HW238704   8.382   1.507   7.150
45603SOL     OW38705  10.787  12.442   5.963
45603SOL    HW138706  10.768  12.348   5.959
45603SOL    HW238707  10.707  12.483   5.928
45604SOL     OW38708  10.677   3.826   2.391
45604SOL    HW138709  10.631   3.886   2.449
45604SOL    HW238710  10.701   3.752   2.448
45605SOL     OW38711   8.323   0.087   0.412
45605SOL    HW138712   8.356   0.098   0.323
45605SOL    HW238713   8.276   0.169   0.430
45606SOL     OW38714  11.921   7.469   3.469
45606SOL    HW138715  11.874   7.551   3.456
45606SOL    HW238716  11.910   7.449   3.562
45607SOL     OW38717   7.104   2.240  13.137
45607SOL    HW138718   7.040   2.225  13.067
45607SOL    HW238719   7.150   2.157  13.146
45608SOL     OW38720  13.602   9.778   9.090
45608SOL    HW138721  13.665   9.731   9.035
45608SOL    HW238722  13.604   9.868   9.057
45609SOL     OW38723   6.711   8.370   6.515
45609SOL    HW138724   6.681   8.449   6.559
45609SOL    HW238725   6.736   8.310   6.586
45610SOL     OW38726   4.052  13.337   0.451
45610SOL    HW138727   4.110  13.399   0.406
45610SOL    HW238728   3.998  13.300   0.382
45611SOL     OW38729   3.228  13.177  11.081
45611SOL    HW138730   3.235  13.224  11.164
45611SOL    HW238731   3.136  13.186  11.056
45612SOL     OW38732   6.199   5.873   2.534
45612SOL    HW138733   6.209   5.951   2.589
45612SOL    HW238734   6.180   5.803   2.597
45613SOL     OW38735  10.184   9.996   5.536
45613SOL    HW138736  10.215   9.927   5.594
45613SOL    HW238737  10.238  10.072   5.558
45614SOL     OW38738   5.869   5.496  13.551
45614SOL    HW138739   5.918   5.522  13.473
45614SOL    HW238740   5.793   5.449  13.516
45615SOL     OW38741   3.616  12.729   1.123
45615SOL    HW138742   3.614  12.738   1.028
45615SOL    HW238743   3.709  12.718   1.144
45616SOL     OW38744  12.474  14.072   9.589
45616SOL    HW138745  12.489  13.979   9.608
45616SOL    HW238746  12.383  14.076   9.560
45617SOL     OW38747   2.388   6.220  14.235
45617SOL    HW138748   2.340   6.248  14.156
45617SOL    HW238749   2.341   6.142  14.264
45618SOL     OW38750  11.655   0.043   7.576
45618SOL    HW138751  11.565   0.065   7.550
45618SOL    HW238752  11.701   0.127   7.575
45619SOL     OW38753  10.790   1.376  12.759
45619SOL    HW138754  10.717   1.357  12.818
45619SOL    HW238755  10.861   1.402  12.818
45620SOL     OW38756  13.840   2.259   9.650
45620SOL    HW138757  13.775   2.259   9.721
45620SOL    HW238758  13.901   2.329   9.673
45621SOL     OW38759   8.757   0.140   2.442
45621SOL    HW138760   8.806   0.216   2.411
45621SOL    HW238761   8.820   0.068   2.437
45622SOL     OW38762  14.243   5.117   6.234
45622SOL    HW138763  14.329   5.089   6.202
45622SOL    HW238764  14.180   5.067   6.182
45623SOL     OW38765   3.714   8.075   6.937
45623SOL    HW138766   3.726   8.146   7.000
45623SOL    HW238767   3.709   8.118   6.852
45624SOL     OW38768   6.407   5.684   0.501
45624SOL    HW138769   6.496   5.692   0.535
45624SOL    HW238770   6.383   5.772   0.474
45625SOL     OW38771   9.475   7.892   7.683
45625SOL    HW138772   9.490   7.939   7.765
45625SOL    HW238773   9.404   7.941   7.641
45626SOL     OW38774   3.422  10.359   4.917
45626SOL    HW138775   3.397  10.277   4.874
45626SOL    HW238776   3.351  10.375   4.979
45627SOL     OW38777  14.434   1.890   4.875
45627SOL    HW138778  14.367   1.827   4.902
45627SOL    HW238779  14.477   1.849   4.801
45628SOL     OW38780  10.087  12.758   6.904
45628SOL    HW138781  10.090  12.665   6.886
45628SOL    HW238782  10.038  12.764   6.986
45629SOL     OW38783   1.280  10.176   4.679
45629SOL    HW138784   1.309  10.143   4.594
45629SOL    HW238785   1.354  10.158   4.737
45630SOL     OW38786   6.029  14.688   9.201
45630SOL    HW138787   5.957  14.738   9.241
45630SOL    HW238788   6.105  14.746   9.209
45631SOL     OW38789   8.940  13.901   1.114
45631SOL    HW138790   9.009  13.849   1.155
45631SOL    HW238791   8.869  13.901   1.177
45632SOL     OW38792   0.434  10.357   9.365
45632SOL    HW138793   0.347  10.343   9.401
45632SOL    HW238794   0.493  10.311   9.424
45633SOL     OW38795   7.094  14.146   4.743
45633SOL    HW138796   7.064  14.199   4.668
45633SOL    HW238797   7.187  14.167   4.751
45634SOL     OW38798   3.664   2.988  10.588
45634SOL    HW138799   3.601   2.916  10.581
45634SOL    HW238800   3.740   2.948  10.629
45635SOL     OW38801  10.919   5.119  12.253
45635SOL    HW138802  10.882   5.166  12.328
45635SOL    HW238803  11.008   5.152  12.245
45636SOL     OW38804  13.946   0.930   4.776
45636SOL    HW138805  13.889   0.853   4.776
45636SOL    HW238806  13.895   0.997   4.732
45637SOL     OW38807  13.881   8.507   7.790
45637SOL    HW138808  13.887   8.466   7.876
45637SOL    HW238809  13.797   8.553   7.791
45638SOL     OW38810   9.155   3.947   4.288
45638SOL    HW138811   9.152   3.863   4.334
45638SOL    HW238812   9.138   3.924   4.196
45639SOL     OW38813  10.793   2.773  10.342
45639SOL    HW138814  10.789   2.786  10.437
45639SOL    HW238815  10.756   2.853  10.305
45640SOL     OW38816  14.255  10.918  13.649
45640SOL    HW138817  14.205  10.983  13.698
45640SOL    HW238818  14.258  10.953  13.559
45641SOL     OW38819   2.001   3.386  14.055
45641SOL    HW138820   1.949   3.320  14.101
45641SOL    HW238821   2.014   3.350  13.968
45642SOL     OW38822  11.675  11.091   7.170
45642SOL    HW138823  11.610  11.161   7.169
45642SOL    HW238824  11.758  11.135   7.187
45643SOL     OW38825  11.442   0.446  10.670
45643SOL    HW138826  11.501   0.382  10.630
45643SOL    HW238827  11.355   0.409  10.659
45644SOL     OW38828   7.339   7.176   1.685
45644SOL    HW138829   7.347   7.267   1.715
45644SOL    HW238830   7.384   7.124   1.752
45645SOL     OW38831   7.103   5.076  10.519
45645SOL    HW138832   7.102   4.989  10.559
45645SOL    HW238833   7.173   5.072  10.455
45646SOL     OW38834  14.439  12.509  11.630
45646SOL    HW138835  14.366  12.517  11.569
45646SOL    HW238836  14.458  12.599  11.656
45647SOL     OW38837   7.334   5.490   7.168
45647SOL    HW138838   7.366   5.566   7.119
45647SOL    HW238839   7.403   5.472   7.232
45648SOL     OW38840   8.309   8.546   1.314
45648SOL    HW138841   8.228   8.595   1.298
45648SOL    HW238842   8.314   8.484   1.241
45649SOL     OW38843   7.591   3.217   2.609
45649SOL    HW138844   7.635   3.242   2.527
45649SOL    HW238845   7.498   3.224   2.589
45650SOL     OW38846   0.482  11.441  10.008
45650SOL    HW138847   0.451  11.491  10.084
45650SOL    HW238848   0.404  11.401   9.972
45651SOL     OW38849   4.054   7.651   6.676
45651SOL    HW138850   4.097   7.725   6.634
45651SOL    HW238851   4.118   7.618   6.739
45652SOL     OW38852  12.552   8.026  12.610
45652SOL    HW138853  12.491   8.034  12.684
45652SOL    HW238854  12.635   8.060  12.644
45653SOL     OW38855   0.434  13.534   7.774
45653SOL    HW138856   0.359  13.549   7.832
45653SOL    HW238857   0.470  13.450   7.804
45654SOL     OW38858   0.557   4.833   9.738
45654SOL    HW138859   0.651   4.850   9.731
45654SOL    HW238860   0.524   4.902   9.795
45655SOL     OW38861   8.327   2.514   8.908
45655SOL    HW138862   8.319   2.575   8.981
45655SOL    HW238863   8.264   2.445   8.928
45656SOL     OW38864   2.778   1.997  12.893
45656SOL    HW138865   2.872   1.985  12.884
45656SOL    HW238866   2.744   1.990  12.804
45657SOL     OW38867  12.024   6.291   4.562
45657SOL    HW138868  11.962   6.309   4.491
45657SOL    HW238869  12.070   6.374   4.575
45658SOL     OW38870  13.402   0.355   6.850
45658SOL    HW138871  13.384   0.362   6.756
45658SOL    HW238872  13.325   0.312   6.886
45659SOL     OW38873  14.627   3.170   1.500
45659SOL    HW138874  14.574   3.166   1.421
45659SOL    HW238875  14.655   3.261   1.506
45660SOL     OW38876  14.113   4.139   8.182
45660SOL    HW138877  14.075   4.193   8.113
45660SOL    HW238878  14.207   4.138   8.163
45661SOL     OW38879   9.971   0.511   3.160
45661SOL    HW138880   9.902   0.563   3.201
45661SOL    HW238881  10.017   0.572   3.103
45662SOL     OW38882   3.624   1.903   9.488
45662SOL    HW138883   3.597   1.834   9.428
45662SOL    HW238884   3.549   1.915   9.546
45663SOL     OW38885   6.204   6.759   1.211
45663SOL    HW138886   6.133   6.822   1.206
45663SOL    HW238887   6.284   6.812   1.207
45664SOL     OW38888   4.158   5.884  13.259
45664SOL    HW138889   4.106   5.871  13.338
45664SOL    HW238890   4.211   5.962  13.277
45665SOL     OW38891   8.655   8.945   6.542
45665SOL    HW138892   8.674   9.038   6.527
45665SOL    HW238893   8.680   8.931   6.634
45666SOL     OW38894   5.823   1.883   4.973
45666SOL    HW138895   5.758   1.832   5.021
45666SOL    HW238896   5.775   1.917   4.897
45667SOL     OW38897   0.972  11.623   9.894
45667SOL    HW138898   0.902  11.559   9.889
45667SOL    HW238899   1.040  11.589   9.835
45668SOL     OW38900  13.423   9.553  11.897
45668SOL    HW138901  13.345   9.518  11.941
45668SOL    HW238902  13.426   9.506  11.814
45669SOL     OW38903  10.798  13.364   8.134
45669SOL    HW138904  10.844  13.408   8.062
45669SOL    HW238905  10.740  13.431   8.170
45670SOL     OW38906   9.805  11.928  11.910
45670SOL    HW138907   9.752  12.005  11.931
45670SOL    HW238908   9.817  11.882  11.993
45671SOL     OW38909   2.357   5.883  11.787
45671SOL    HW138910   2.272   5.901  11.745
45671SOL    HW238911   2.349   5.922  11.874
45672SOL     OW38912   2.462  10.987   2.348
45672SOL    HW138913   2.442  10.899   2.380
45672SOL    HW238914   2.549  11.006   2.386
45673SOL     OW38915  13.714  13.721  10.956
45673SOL    HW138916  13.727  13.701  11.049
45673SOL    HW238917  13.739  13.813  10.947
45674SOL     OW38918   7.743  14.188  13.789
45674SOL    HW138919   7.661  14.173  13.741
45674SOL    HW238920   7.803  14.121  13.756
45675SOL     OW38921  10.294  12.222   2.127
45675SOL    HW138922  10.228  12.255   2.066
45675SOL    HW238923  10.374  12.219   2.075
45676SOL     OW38924   1.623   2.390   0.497
45676SOL    HW138925   1.588   2.418   0.582
45676SOL    HW238926   1.575   2.309   0.477
45677SOL     OW38927   4.635   4.075   9.256
45677SOL    HW138928   4.601   4.027   9.180
45677SOL    HW238929   4.727   4.048   9.262
45678SOL     OW38930  13.776   9.275  11.414
45678SOL    HW138931  13.723   9.263  11.335
45678SOL    HW238932  13.866   9.271  11.384
45679SOL     OW38933   3.533   7.255   2.358
45679SOL    HW138934   3.556   7.219   2.444
45679SOL    HW238935   3.473   7.326   2.377
45680SOL     OW38936   2.665  13.487  10.901
45680SOL    HW138937   2.755  13.465  10.924
45680SOL    HW238938   2.612  13.416  10.937
45681SOL     OW38939   6.078   2.271  14.083
45681SOL    HW138940   6.166   2.259  14.120
45681SOL    HW238941   6.094   2.306  13.995
45682SOL     OW38942   5.784   6.222   6.719
45682SOL    HW138943   5.781   6.226   6.623
45682SOL    HW238944   5.853   6.284   6.743
45683SOL     OW38945   9.389   6.102   5.233
45683SOL    HW138946   9.392   6.191   5.269
45683SOL    HW238947   9.409   6.046   5.308
45684SOL     OW38948  13.417   7.810   8.173
45684SOL    HW138949  13.328   7.811   8.138
45684SOL    HW238950  13.461   7.883   8.130
45685SOL     OW38951  13.420  12.397   1.812
45685SOL    HW138952  13.338  12.366   1.850
45685SOL    HW238953  13.411  12.492   1.807
45686SOL     OW38954   0.661   8.636  14.521
45686SOL    HW138955   0.746   8.678  14.529
45686SOL    HW238956   0.635   8.617  14.611
45687SOL     OW38957  14.838   5.233  11.750
45687SOL    HW138958  14.822   5.190  11.834
45687SOL    HW238959  14.867   5.162  11.693
45688SOL     OW38960   5.666   0.727   7.506
45688SOL    HW138961   5.748   0.742   7.460
45688SOL    HW238962   5.637   0.814   7.533
45689SOL     OW38963   2.012  14.537   1.215
45689SOL    HW138964   1.945  14.499   1.158
45689SOL    HW238965   2.024  14.626   1.183
45690SOL     OW38966  10.332  11.843   3.582
45690SOL    HW138967  10.313  11.863   3.491
45690SOL    HW238968  10.425  11.864   3.592
45691SOL     OW38969   8.192   9.112   4.377
45691SOL    HW138970   8.213   9.022   4.351
45691SOL    HW238971   8.123   9.102   4.443
45692SOL     OW38972   9.323   8.018   7.381
45692SOL    HW138973   9.326   8.104   7.341
45692SOL    HW238974   9.264   8.028   7.456
45693SOL     OW38975  10.119  12.969   9.638
45693SOL    HW138976  10.056  13.030   9.599
45693SOL    HW238977  10.186  13.025   9.677
45694SOL     OW38978   4.194   9.805   5.638
45694SOL    HW138979   4.132   9.796   5.565
45694SOL    HW238980   4.143   9.781   5.715
45695SOL     OW38981   5.821  12.765   9.913
45695SOL    HW138982   5.798  12.742  10.003
45695SOL    HW238983   5.880  12.695   9.884
45696SOL     OW38984  10.655  12.148  10.215
45696SOL    HW138985  10.615  12.164  10.301
45696SOL    HW238986  10.581  12.123  10.159
45697SOL     OW38987   2.678  10.481  10.546
45697SOL    HW138988   2.728  10.491  10.465
45697SOL    HW238989   2.714  10.401  10.585
45698SOL     OW38990  11.926   5.674   3.174
45698SOL    HW138991  11.876   5.671   3.256
45698SOL    HW238992  11.990   5.744   3.187
45699SOL     OW38993  10.694  12.678  11.558
45699SOL    HW138994  10.704  12.765  11.596
45699SOL    HW238995  10.676  12.695  11.465
45700SOL     OW38996   9.790   3.736  10.403
45700SOL    HW138997   9.743   3.778  10.475
45700SOL    HW238998   9.722   3.705  10.344
45701SOL     OW38999  12.343  13.301  10.249
45701SOL    HW139000  12.384  13.221  10.282
45701SOL    HW239001  12.266  13.313  10.304
45702SOL     OW39002   8.403   7.623   6.412
45702SOL    HW139003   8.362   7.573   6.342
45702SOL    HW239004   8.383   7.574   6.492
45703SOL     OW39005  13.403   4.953  14.136
45703SOL    HW139006  13.355   5.025  14.176
45703SOL    HW239007  13.495   4.973  14.155
45704SOL     OW39008  13.830   1.643   3.301
45704SOL    HW139009  13.801   1.552   3.304
45704SOL    HW239010  13.788   1.679   3.223
45705SOL     OW39011   6.482   6.915   2.619
45705SOL    HW139012   6.460   7.008   2.612
45705SOL    HW239013   6.563   6.905   2.569
45706SOL     OW39014   3.852  11.114  12.859
45706SOL    HW139015   3.845  11.180  12.928
45706SOL    HW239016   3.909  11.154  12.793
45707SOL     OW39017   9.278   0.661   0.795
45707SOL    HW139018   9.193   0.658   0.751
45707SOL    HW239019   9.265   0.611   0.875
45708SOL     OW39020   9.569   6.585  12.986
45708SOL    HW139021   9.629   6.514  12.964
45708SOL    HW239022   9.580   6.648  12.915
45709SOL     OW39023   2.118   0.024   8.310
45709SOL    HW139024   2.194  14.849   8.302
45709SOL    HW239025   2.077  14.880   8.393
45710SOL     OW39026  13.246   4.422   5.304
45710SOL    HW139027  13.277   4.457   5.220
45710SOL    HW239028  13.159   4.387   5.286
45711SOL     OW39029   8.332   2.720  10.633
45711SOL    HW139030   8.248   2.680  10.610
45711SOL    HW239031   8.328   2.808  10.596
45712SOL     OW39032   7.012   9.239  13.253
45712SOL    HW139033   7.082   9.174  13.260
45712SOL    HW239034   7.024   9.278  13.166
45713SOL     OW39035   3.920   2.573   0.382
45713SOL    HW139036   3.860   2.552   0.310
45713SOL    HW239037   3.989   2.626   0.341
45714SOL     OW39038  13.712  12.967   4.543
45714SOL    HW139039  13.783  12.957   4.479
45714SOL    HW239040  13.632  12.946   4.493
45715SOL     OW39041   1.209   7.810   7.434
45715SOL    HW139042   1.203   7.723   7.474
45715SOL    HW239043   1.200   7.794   7.340
45716SOL     OW39044  10.909  14.696   2.376
45716SOL    HW139045  10.835  14.756   2.367
45716SOL    HW239046  10.868  14.612   2.399
45717SOL     OW39047  10.084   1.809  14.264
45717SOL    HW139048  10.086   1.873  14.336
45717SOL    HW239049  10.023   1.847  14.200
45718SOL     OW39050   3.291   3.142   2.587
45718SOL    HW139051   3.249   3.198   2.522
45718SOL    HW239052   3.229   3.140   2.660
45719SOL     OW39053   7.977   4.843  14.594
45719SOL    HW139054   8.040   4.915  14.594
45719SOL    HW239055   7.999   4.792  14.516
45720SOL     OW39056   9.518   5.235  13.682
45720SOL    HW139057   9.480   5.153  13.650
45720SOL    HW239058   9.576   5.265  13.612
45721SOL     OW39059  13.117   3.302   5.384
45721SOL    HW139060  13.208   3.274   5.375
45721SOL    HW239061  13.111   3.381   5.330
45722SOL     OW39062   6.664   0.594   3.809
45722SOL    HW139063   6.740   0.571   3.862
45722SOL    HW239064   6.685   0.561   3.721
45723SOL     OW39065  14.444   4.845   7.059
45723SOL    HW139066  14.384   4.834   7.133
45723SOL    HW239067  14.525   4.802   7.086
45724SOL     OW39068  11.240   8.970   2.186
45724SOL    HW139069  11.243   8.938   2.095
45724SOL    HW239070  11.214   8.894   2.237
45725SOL     OW39071   0.205   9.448   3.130
45725SOL    HW139072   0.116   9.415   3.126
45725SOL    HW239073   0.196   9.537   3.165
45726SOL     OW39074   3.149   2.138   9.679
45726SOL    HW139075   3.154   2.232   9.662
45726SOL    HW239076   3.117   2.100   9.598
45727SOL     OW39077   6.385   7.636  12.965
45727SOL    HW139078   6.438   7.559  12.948
45727SOL    HW239079   6.332   7.647  12.887
45728SOL     OW39080   8.903   9.954  14.050
45728SOL    HW139081   8.941  10.038  14.023
45728SOL    HW239082   8.883   9.910  13.968
45729SOL     OW39083  11.211   3.043   2.474
45729SOL    HW139084  11.139   3.053   2.537
45729SOL    HW239085  11.279   2.996   2.522
45730SOL     OW39086  14.103  13.492   1.081
45730SOL    HW139087  14.132  13.498   0.990
45730SOL    HW239088  14.176  13.450   1.127
45731SOL     OW39089   2.302   4.108  12.129
45731SOL    HW139090   2.312   4.063  12.213
45731SOL    HW239091   2.213   4.145  12.132
45732SOL     OW39092   4.832   6.610   9.041
45732SOL    HW139093   4.878   6.552   9.102
45732SOL    HW239094   4.741   6.608   9.069
45733SOL     OW39095   1.265   9.047   5.747
45733SOL    HW139096   1.333   9.111   5.770
45733SOL    HW239097   1.183   9.087   5.776
45734SOL     OW39098  14.661   1.798   1.450
45734SOL    HW139099  14.582   1.767   1.495
45734SOL    HW239100  14.732   1.779   1.511
45735SOL     OW39101   2.979   2.335  14.435
45735SOL    HW139102   2.935   2.367  14.515
45735SOL    HW239103   2.936   2.252  14.416
45736SOL     OW39104   0.053  11.505   5.309
45736SOL    HW139105  14.881  11.538   5.237
45736SOL    HW239106  14.873  11.465   5.369
45737SOL     OW39107   8.413  12.140   1.296
45737SOL    HW139108   8.388  12.215   1.350
45737SOL    HW239109   8.392  12.064   1.349
45738SOL     OW39110   7.187  12.247   4.975
45738SOL    HW139111   7.135  12.180   4.931
45738SOL    HW239112   7.275  12.209   4.983
45739SOL     OW39113  10.768   7.415   3.192
45739SOL    HW139114  10.679   7.403   3.161
45739SOL    HW239115  10.780   7.347   3.259
45740SOL     OW39116  10.536  10.289   9.510
45740SOL    HW139117  10.583  10.210   9.485
45740SOL    HW239118  10.590  10.361   9.477
45741SOL     OW39119  10.078   7.274   4.638
45741SOL    HW139120  10.001   7.251   4.690
45741SOL    HW239121  10.124   7.192   4.626
45742SOL     OW39122   0.813  12.946   9.558
45742SOL    HW139123   0.882  13.009   9.576
45742SOL    HW239124   0.761  12.944   9.638
45743SOL     OW39125   9.808  13.929  11.056
45743SOL    HW139126   9.895  13.963  11.035
45743SOL    HW239127   9.807  13.922  11.151
45744SOL     OW39128   9.823   2.544  14.707
45744SOL    HW139129   9.766   2.610  14.747
45744SOL    HW239130   9.884   2.596  14.655
45745SOL     OW39131  10.364   9.891   4.803
45745SOL    HW139132  10.296   9.878   4.870
45745SOL    HW239133  10.353   9.818   4.743
45746SOL     OW39134   1.099   2.044   8.772
45746SOL    HW139135   1.120   2.029   8.864
45746SOL    HW239136   1.004   2.053   8.770
45747SOL     OW39137  11.926   6.125  13.689
45747SOL    HW139138  11.881   6.210  13.696
45747SOL    HW239139  11.983   6.135  13.613
45748SOL     OW39140   1.153  10.831   0.561
45748SOL    HW139141   1.169  10.763   0.626
45748SOL    HW239142   1.132  10.784   0.481
45749SOL     OW39143  14.510   0.733   0.182
45749SOL    HW139144  14.434   0.791   0.190
45749SOL    HW239145  14.494   0.684   0.101
45750SOL     OW39146  12.320   5.666  11.564
45750SOL    HW139147  12.330   5.575  11.593
45750SOL    HW239148  12.340   5.718  11.641
45751SOL     OW39149  14.820   3.931   2.849
45751SOL    HW139150  14.846   3.987   2.776
45751SOL    HW239151   0.016   3.926   2.904
45752SOL     OW39152   9.052  10.959   7.891
45752SOL    HW139153   9.116  10.997   7.831
45752SOL    HW239154   9.100  10.946   7.973
45753SOL     OW39155   3.968   5.126  11.462
45753SOL    HW139156   3.952   5.067  11.535
45753SOL    HW239157   3.890   5.182  11.458
45754SOL     OW39158   6.522   4.375   6.700
45754SOL    HW139159   6.602   4.422   6.680
45754SOL    HW239160   6.551   4.286   6.721
45755SOL     OW39161   9.478   4.818   9.265
45755SOL    HW139162   9.478   4.780   9.353
45755SOL    HW239163   9.437   4.904   9.275
45756SOL     OW39164  11.434   4.321   5.446
45756SOL    HW139165  11.402   4.411   5.443
45756SOL    HW239166  11.387   4.277   5.375
45757SOL     OW39167  11.660  14.819   7.239
45757SOL    HW139168  11.693  14.850   7.155
45757SOL    HW239169  11.721  14.856   7.303
45758SOL     OW39170  11.836   9.111   4.854
45758SOL    HW139171  11.931   9.102   4.865
45758SOL    HW239172  11.808   9.025   4.822
45759SOL     OW39173   0.697  10.307  10.090
45759SOL    HW139174   0.635  10.359  10.140
45759SOL    HW239175   0.739  10.371  10.031
45760SOL     OW39176  10.685   7.786   1.140
45760SOL    HW139177  10.629   7.862   1.125
45760SOL    HW239178  10.656   7.721   1.076
45761SOL     OW39179  12.794   8.801  14.416
45761SOL    HW139180  12.798   8.878  14.360
45761SOL    HW239181  12.713   8.813  14.467
45762SOL     OW39182   3.490   7.860  10.412
45762SOL    HW139183   3.559   7.815  10.363
45762SOL    HW239184   3.534   7.936  10.451
45763SOL     OW39185   7.577   2.099   2.695
45763SOL    HW139186   7.644   2.099   2.626
45763SOL    HW239187   7.606   2.031   2.757
45764SOL     OW39188  11.469  11.506   7.327
45764SOL    HW139189  11.492  11.574   7.390
45764SOL    HW239190  11.374  11.498   7.333
45765SOL     OW39191   9.227  12.622  13.714
45765SOL    HW139192   9.292  12.571  13.666
45765SOL    HW239193   9.190  12.681  13.649
45766SOL     OW39194   5.154   5.887   4.819
45766SOL    HW139195   5.061   5.906   4.809
45766SOL    HW239196   5.172   5.820   4.752
45767SOL     OW39197  12.098  13.663   4.993
45767SOL    HW139198  12.063  13.590   5.044
45767SOL    HW239199  12.057  13.653   4.906
45768SOL     OW39200   6.116  14.809  10.433
45768SOL    HW139201   6.055  14.735  10.426
45768SOL    HW239202   6.107  14.838  10.523
45769SOL     OW39203  14.079   8.686   6.149
45769SOL    HW139204  13.992   8.656   6.119
45769SOL    HW239205  14.137   8.668   6.075
45770SOL     OW39206   6.075   4.921   5.052
45770SOL    HW139207   6.017   4.940   5.126
45770SOL    HW239208   6.155   4.886   5.093
45771SOL     OW39209   3.781   6.561   4.420
45771SOL    HW139210   3.856   6.574   4.477
45771SOL    HW239211   3.807   6.600   4.336
45772SOL     OW39212   1.606   7.263   5.362
45772SOL    HW139213   1.617   7.357   5.379
45772SOL    HW239214   1.675   7.242   5.299
45773SOL     OW39215   2.109   8.312   4.940
45773SOL    HW139216   2.114   8.325   5.035
45773SOL    HW239217   2.110   8.217   4.928
45774SOL     OW39218  11.030   5.140   7.826
45774SOL    HW139219  10.946   5.145   7.872
45774SOL    HW239220  11.012   5.088   7.748
45775SOL     OW39221   5.063   0.379   1.344
45775SOL    HW139222   5.066   0.359   1.438
45775SOL    HW239223   5.100   0.467   1.337
45776SOL     OW39224   2.013   3.614   5.346
45776SOL    HW139225   1.937   3.563   5.376
45776SOL    HW239226   2.068   3.549   5.302
45777SOL     OW39227   6.434  12.775  11.030
45777SOL    HW139228   6.410  12.716  11.101
45777SOL    HW239229   6.518  12.741  10.998
45778SOL     OW39230  12.774  13.143   5.497
45778SOL    HW139231  12.866  13.159   5.518
45778SOL    HW239232  12.765  13.048   5.499
45779SOL     OW39233   2.859   0.775   2.458
45779SOL    HW139234   2.924   0.720   2.413
45779SOL    HW239235   2.825   0.833   2.390
45780SOL     OW39236   0.737   6.616   8.847
45780SOL    HW139237   0.649   6.581   8.835
45780SOL    HW239238   0.737   6.651   8.936
45781SOL     OW39239  14.338  14.183   3.556
45781SOL    HW139240  14.331  14.145   3.644
45781SOL    HW239241  14.248  14.183   3.523
45782SOL     OW39242   7.919   1.255   2.129
45782SOL    HW139243   7.836   1.213   2.106
45782SOL    HW239244   7.954   1.200   2.199
45783SOL     OW39245   9.890   8.600   7.237
45783SOL    HW139246   9.913   8.560   7.322
45783SOL    HW239247   9.975   8.615   7.194
45784SOL     OW39248  13.693   0.936  12.130
45784SOL    HW139249  13.744   0.855  12.130
45784SOL    HW239250  13.613   0.914  12.176
45785SOL     OW39251  12.110   9.930   7.441
45785SOL    HW139252  12.063  10.013   7.443
45785SOL    HW239253  12.165   9.931   7.520
45786SOL     OW39254  10.046   4.528   7.207
45786SOL    HW139255   9.992   4.598   7.244
45786SOL    HW239256  10.012   4.515   7.119
45787SOL     OW39257   9.519  10.273   5.605
45787SOL    HW139258   9.501  10.251   5.696
45787SOL    HW239259   9.561  10.195   5.569
45788SOL     OW39260  10.991  11.913   2.204
45788SOL    HW139261  11.068  11.969   2.205
45788SOL    HW239262  10.965  11.910   2.112
45789SOL     OW39263   4.398   4.143   8.108
45789SOL    HW139264   4.405   4.221   8.054
45789SOL    HW239265   4.316   4.101   8.081
45790SOL     OW39266   3.480   9.674   7.191
45790SOL    HW139267   3.471   9.587   7.152
45790SOL    HW239268   3.412   9.726   7.149
45791SOL     OW39269   9.930   1.361  12.893
45791SOL    HW139270   9.855   1.314  12.857
45791SOL    HW239271   9.984   1.293  12.934
45792SOL     OW39272   1.104   8.200  14.227
45792SOL    HW139273   1.100   8.296  14.234
45792SOL    HW239274   1.041   8.168  14.291
45793SOL     OW39275  14.611  11.414  13.876
45793SOL    HW139276  14.669  11.395  13.802
45793SOL    HW239277  14.536  11.459  13.836
45794SOL     OW39278   2.976  10.542   5.215
45794SOL    HW139279   2.976  10.616   5.153
45794SOL    HW239280   2.958  10.582   5.300
45795SOL     OW39281   1.538   0.873   2.800
45795SOL    HW139282   1.454   0.847   2.839
45795SOL    HW239283   1.596   0.798   2.816
45796SOL     OW39284   2.178   7.438  13.300
45796SOL    HW139285   2.100   7.417  13.248
45796SOL    HW239286   2.242   7.468  13.235
45797SOL     OW39287   8.652  11.032   6.483
45797SOL    HW139288   8.721  11.054   6.546
45797SOL    HW239289   8.636  10.939   6.497
45798SOL     OW39290  11.894  13.149   2.705
45798SOL    HW139291  11.967  13.158   2.644
45798SOL    HW239292  11.876  13.056   2.708
45799SOL     OW39293  11.803   2.886   4.217
45799SOL    HW139294  11.787   2.971   4.257
45799SOL    HW239295  11.768   2.823   4.279
45800SOL     OW39296   5.072   4.562   5.538
45800SOL    HW139297   4.977   4.552   5.542
45800SOL    HW239298   5.097   4.596   5.624
45801SOL     OW39299  12.677   9.529  13.196
45801SOL    HW139300  12.590   9.539  13.156
45801SOL    HW239301  12.658   9.506  13.287
45802SOL     OW39302   3.158   3.286   5.831
45802SOL    HW139303   3.127   3.299   5.742
45802SOL    HW239304   3.139   3.194   5.850
45803SOL     OW39305  14.386   4.841   0.381
45803SOL    HW139306  14.389   4.842   0.286
45803SOL    HW239307  14.384   4.934   0.406
45804SOL     OW39308   9.985  11.843   4.409
45804SOL    HW139309  10.001  11.804   4.322
45804SOL    HW239310   9.988  11.937   4.393
45805SOL     OW39311   5.637   0.961   1.428
45805SOL    HW139312   5.714   0.964   1.371
45805SOL    HW239313   5.609   0.870   1.425
45806SOL     OW39314  11.067   8.233   1.407
45806SOL    HW139315  11.014   8.313   1.415
45806SOL    HW239316  11.084   8.225   1.313
45807SOL     OW39317   2.655   2.264  11.462
45807SOL    HW139318   2.616   2.242  11.546
45807SOL    HW239319   2.663   2.180  11.416
45808SOL     OW39320   9.716  11.944  14.860
45808SOL    HW139321   9.640  11.893  14.830
45808SOL    HW239322   9.760  11.970  14.780
45809SOL     OW39323   6.391   6.913   1.474
45809SOL    HW139324   6.406   6.936   1.382
45809SOL    HW239325   6.303   6.947   1.493
45810SOL     OW39326  11.157   4.144   9.981
45810SOL    HW139327  11.219   4.152  10.054
45810SOL    HW239328  11.084   4.201  10.005
45811SOL     OW39329   2.133  13.381   0.380
45811SOL    HW139330   2.163  13.469   0.356
45811SOL    HW239331   2.153  13.328   0.303
45812SOL     OW39332   3.697  12.658   8.039
45812SOL    HW139333   3.787  12.625   8.037
45812SOL    HW239334   3.647  12.597   7.985
45813SOL     OW39335   8.412   0.000   6.702
45813SOL    HW139336   8.346  14.820   6.672
45813SOL    HW239337   8.495  14.834   6.697
45814SOL     OW39338  13.064   8.992   0.489
45814SOL    HW139339  13.115   9.067   0.522
45814SOL    HW239340  13.108   8.916   0.527
45815SOL     OW39341   8.525   3.837  11.912
45815SOL    HW139342   8.512   3.744  11.893
45815SOL    HW239343   8.449   3.881  11.872
45816SOL     OW39344   1.461   2.967  14.107
45816SOL    HW139345   1.408   2.924  14.039
45816SOL    HW239346   1.399   2.987  14.177
45817SOL     OW39347  12.011   5.680   5.034
45817SOL    HW139348  11.940   5.742   5.051
45817SOL    HW239349  12.043   5.704   4.947
45818SOL     OW39350   4.963   4.687   4.949
45818SOL    HW139351   4.993   4.640   4.872
45818SOL    HW239352   4.916   4.763   4.915
45819SOL     OW39353   4.167   1.753   4.132
45819SOL    HW139354   4.181   1.674   4.184
45819SOL    HW239355   4.193   1.728   4.043
45820SOL     OW39356  12.368   0.172   0.719
45820SOL    HW139357  12.408   0.253   0.685
45820SOL    HW239358  12.420   0.150   0.796
45821SOL     OW39359   8.091   5.430   8.280
45821SOL    HW139360   8.024   5.495   8.258
45821SOL    HW239361   8.163   5.482   8.317
45822SOL     OW39362   3.354   0.069  14.728
45822SOL    HW139363   3.390   0.140  14.782
45822SOL    HW239364   3.357   0.103  14.639
45823SOL     OW39365   9.545   7.513   5.216
45823SOL    HW139366   9.589   7.530   5.132
45823SOL    HW239367   9.485   7.587   5.227
45824SOL     OW39368   2.104   7.624   3.438
45824SOL    HW139369   2.159   7.550   3.465
45824SOL    HW239370   2.018   7.585   3.424
45825SOL     OW39371   9.655  12.754  11.348
45825SOL    HW139372   9.690  12.816  11.410
45825SOL    HW239373   9.680  12.668  11.382
45826SOL     OW39374   6.648   1.527   2.655
45826SOL    HW139375   6.689   1.479   2.728
45826SOL    HW239376   6.564   1.556   2.690
45827SOL     OW39377   1.019   9.678   7.333
45827SOL    HW139378   0.996   9.591   7.301
45827SOL    HW239379   1.012   9.735   7.256
45828SOL     OW39380  13.901  14.779   7.221
45828SOL    HW139381  13.809  14.763   7.242
45828SOL    HW239382  13.939  14.813   7.302
45829SOL     OW39383   5.029   1.221   5.264
45829SOL    HW139384   5.041   1.277   5.341
45829SOL    HW239385   4.980   1.275   5.202
45830SOL     OW39386   7.910   7.521   6.010
45830SOL    HW139387   7.845   7.469   6.057
45830SOL    HW239388   7.880   7.611   6.019
45831SOL     OW39389  14.357   6.668   6.053
45831SOL    HW139390  14.329   6.701   5.968
45831SOL    HW239391  14.278   6.635   6.094
45832SOL     OW39392   9.597  13.495  14.864
45832SOL    HW139393   9.633  13.549  14.794
45832SOL    HW239394   9.522  13.546   0.014
45833SOL     OW39395   2.248  10.146   7.058
45833SOL    HW139396   2.193  10.224   7.056
45833SOL    HW239397   2.238  10.111   7.147
45834SOL     OW39398   8.028   7.780  12.469
45834SOL    HW139399   7.962   7.722  12.509
45834SOL    HW239400   8.077   7.814  12.544
45835SOL     OW39401   0.653   0.598   9.328
45835SOL    HW139402   0.673   0.587   9.421
45835SOL    HW239403   0.733   0.573   9.283
45836SOL     OW39404   6.915   0.877  11.224
45836SOL    HW139405   6.858   0.835  11.159
45836SOL    HW239406   6.865   0.953  11.254
45837SOL     OW39407  13.997  14.259   5.934
45837SOL    HW139408  13.991  14.326   6.002
45837SOL    HW239409  13.952  14.183   5.972
45838SOL     OW39410  13.875   2.381   2.294
45838SOL    HW139411  13.929   2.313   2.254
45838SOL    HW239412  13.806   2.398   2.230
45839SOL     OW39413   4.415  13.676   1.204
45839SOL    HW139414   4.509  13.693   1.197
45839SOL    HW239415   4.407  13.582   1.188
45840SOL     OW39416   5.510   6.287   3.171
45840SOL    HW139417   5.601   6.307   3.149
45840SOL    HW239418   5.459   6.343   3.113
45841SOL     OW39419   7.786  14.367   5.427
45841SOL    HW139420   7.806  14.412   5.345
45841SOL    HW239421   7.702  14.403   5.454
45842SOL     OW39422  12.724  14.299  13.132
45842SOL    HW139423  12.705  14.250  13.212
45842SOL    HW239424  12.685  14.247  13.062
45843SOL     OW39425  13.224   4.529   7.534
45843SOL    HW139426  13.214   4.623   7.521
45843SOL    HW239427  13.158   4.490   7.477
45844SOL     OW39428   8.059   4.325  10.142
45844SOL    HW139429   8.109   4.324  10.060
45844SOL    HW239430   8.123   4.301  10.209
45845SOL     OW39431   0.500  11.478   8.748
45845SOL    HW139432   0.444  11.497   8.824
45845SOL    HW239433   0.456  11.405   8.704
45846SOL     OW39434  11.538  13.628  10.265
45846SOL    HW139435  11.487  13.572  10.206
45846SOL    HW239436  11.501  13.611  10.352
45847SOL     OW39437   0.365   1.853  13.859
45847SOL    HW139438   0.308   1.778  13.844
45847SOL    HW239439   0.378   1.892  13.773
45848SOL     OW39440   3.797  12.762  12.131
45848SOL    HW139441   3.776  12.842  12.180
45848SOL    HW239442   3.888  12.743  12.154
45849SOL     OW39443   0.678   7.760   2.468
45849SOL    HW139444   0.736   7.711   2.526
45849SOL    HW239445   0.632   7.821   2.525
45850SOL     OW39446   7.383   2.544   3.421
45850SOL    HW139447   7.400   2.638   3.425
45850SOL    HW239448   7.288   2.537   3.414
45851SOL     OW39449  11.125   6.926   1.304
45851SOL    HW139450  11.086   6.839   1.295
45851SOL    HW239451  11.217   6.908   1.324
45852SOL     OW39452  14.442   5.554   6.940
45852SOL    HW139453  14.372   5.575   7.002
45852SOL    HW239454  14.405   5.574   6.854
45853SOL     OW39455   5.917  10.405   8.636
45853SOL    HW139456   5.888  10.323   8.674
45853SOL    HW239457   6.005  10.387   8.603
45854SOL     OW39458  12.562   7.511  14.451
45854SOL    HW139459  12.571   7.535  14.359
45854SOL    HW239460  12.584   7.591  14.499
45855SOL     OW39461  11.825  12.864   2.736
45855SOL    HW139462  11.762  12.803   2.698
45855SOL    HW239463  11.789  12.886   2.822
45856SOL     OW39464  13.520   4.140   1.558
45856SOL    HW139465  13.486   4.055   1.531
45856SOL    HW239466  13.614   4.136   1.537
45857SOL     OW39467   6.831   7.523   5.465
45857SOL    HW139468   6.768   7.581   5.508
45857SOL    HW239469   6.825   7.441   5.515
45858SOL     OW39470   1.644   8.552   9.951
45858SOL    HW139471   1.550   8.561   9.939
45858SOL    HW239472   1.682   8.603   9.879
45859SOL     OW39473   1.629   6.021  13.149
45859SOL    HW139474   1.543   5.994  13.180
45859SOL    HW239475   1.686   5.946  13.170
45860SOL     OW39476   7.099   0.379   2.809
45860SOL    HW139477   7.094   0.283   2.808
45860SOL    HW239478   7.014   0.407   2.775
45861SOL     OW39479  11.865   5.082  14.836
45861SOL    HW139480  11.869   5.131   0.036
45861SOL    HW239481  11.865   4.990  14.863
45862SOL     OW39482   0.173   2.345   0.905
45862SOL    HW139483   0.243   2.282   0.922
45862SOL    HW239484   0.194   2.420   0.961
45863SOL     OW39485  11.729   3.459   6.770
45863SOL    HW139486  11.677   3.539   6.782
45863SOL    HW239487  11.690   3.397   6.831
45864SOL     OW39488   3.004   5.731   7.408
45864SOL    HW139489   2.923   5.695   7.372
45864SOL    HW239490   2.988   5.737   7.502
45865SOL     OW39491  13.654  10.009  12.651
45865SOL    HW139492  13.626   9.987  12.740
45865SOL    HW239493  13.627  10.100  12.639
45866SOL     OW39494  10.674   8.961   5.091
45866SOL    HW139495  10.589   8.921   5.069
45866SOL    HW239496  10.652   9.035   5.148
45867SOL     OW39497  10.232  11.509  14.711
45867SOL    HW139498  10.248  11.596  14.746
45867SOL    HW239499  10.298  11.497  14.643
45868SOL     OW39500   6.508   0.586  14.028
45868SOL    HW139501   6.576   0.650  14.047
45868SOL    HW239502   6.556   0.510  13.993
45869SOL     OW39503   0.143  14.169   5.403
45869SOL    HW139504   0.212  14.109   5.376
45869SOL    HW239505   0.163  14.251   5.357
45870SOL     OW39506  13.980   1.176  11.560
45870SOL    HW139507  14.007   1.118  11.632
45870SOL    HW239508  14.061   1.216  11.529
45871SOL     OW39509  10.568  13.931   4.781
45871SOL    HW139510  10.584  13.985   4.703
45871SOL    HW239511  10.594  13.986   4.855
45872SOL     OW39512   9.118   3.401  11.595
45872SOL    HW139513   9.121   3.372  11.504
45872SOL    HW239514   9.047   3.350  11.635
45873SOL     OW39515  11.135   7.256   9.073
45873SOL    HW139516  11.228   7.277   9.070
45873SOL    HW239517  11.091   7.341   9.065
45874SOL     OW39518   7.268  12.688  14.203
45874SOL    HW139519   7.185  12.651  14.232
45874SOL    HW239520   7.290  12.753  14.269
45875SOL     OW39521   1.122   8.770  13.935
45875SOL    HW139522   1.145   8.859  13.908
45875SOL    HW239523   1.082   8.781  14.021
45876SOL     OW39524  10.035   5.234  13.284
45876SOL    HW139525  10.117   5.218  13.329
45876SOL    HW239526  10.051   5.312  13.231
45877SOL     OW39527  11.279  11.237  11.562
45877SOL    HW139528  11.359  11.221  11.611
45877SOL    HW239529  11.265  11.157  11.511
45878SOL     OW39530   5.484   4.160   0.736
45878SOL    HW139531   5.409   4.113   0.774
45878SOL    HW239532   5.550   4.092   0.723
45879SOL     OW39533   7.373   8.969   9.393
45879SOL    HW139534   7.463   8.935   9.399
45879SOL    HW239535   7.318   8.891   9.402
45880SOL     OW39536   5.907   8.260  12.818
45880SOL    HW139537   5.914   8.274  12.913
45880SOL    HW239538   5.993   8.287  12.784
45881SOL     OW39539  13.679   7.231   3.200
45881SOL    HW139540  13.754   7.172   3.190
45881SOL    HW239541  13.666   7.237   3.295
45882SOL     OW39542   5.171  11.140   4.905
45882SOL    HW139543   5.247  11.097   4.944
45882SOL    HW239544   5.208  11.212   4.853
45883SOL     OW39545   6.391   0.380  11.041
45883SOL    HW139546   6.483   0.357  11.055
45883SOL    HW239547   6.382   0.388  10.946
45884SOL     OW39548   5.858   4.254   3.140
45884SOL    HW139549   5.879   4.162   3.154
45884SOL    HW239550   5.767   4.255   3.110
45885SOL     OW39551   9.578   9.294  10.845
45885SOL    HW139552   9.553   9.345  10.923
45885SOL    HW239553   9.599   9.207  10.879
45886SOL     OW39554  12.244   9.553  12.063
45886SOL    HW139555  12.286   9.495  11.999
45886SOL    HW239556  12.228   9.634  12.014
45887SOL     OW39557  14.497   0.001  11.227
45887SOL    HW139558  14.579  14.836  11.210
45887SOL    HW239559  14.500   0.075  11.167
45888SOL     OW39560   9.987   0.786  14.624
45888SOL    HW139561   9.918   0.803  14.560
45888SOL    HW239562  10.068   0.804  14.577
45889SOL     OW39563   6.082  10.736   3.825
45889SOL    HW139564   5.997  10.760   3.786
45889SOL    HW239565   6.085  10.640   3.818
45890SOL     OW39566   2.914  13.507  10.985
45890SOL    HW139567   2.940  13.473  11.071
45890SOL    HW239568   2.988  13.485  10.928
45891SOL     OW39569   0.631   1.146   5.327
45891SOL    HW139570   0.579   1.198   5.264
45891SOL    HW239571   0.705   1.114   5.276
45892SOL     OW39572   5.976   3.193   0.235
45892SOL    HW139573   6.070   3.214   0.236
45892SOL    HW239574   5.938   3.255   0.173
45893SOL     OW39575   8.736   5.996   8.463
45893SOL    HW139576   8.732   5.981   8.368
45893SOL    HW239577   8.650   5.969   8.495
45894SOL     OW39578   5.018  13.280   9.431
45894SOL    HW139579   5.100  13.240   9.460
45894SOL    HW239580   4.968  13.207   9.393
45895SOL     OW39581   1.941   3.304   2.429
45895SOL    HW139582   1.910   3.381   2.476
45895SOL    HW239583   2.022   3.280   2.474
45896SOL     OW39584  10.656   0.620   5.187
45896SOL    HW139585  10.650   0.610   5.282
45896SOL    HW239586  10.736   0.671   5.173
45897SOL     OW39587   3.972   8.679   5.723
45897SOL    HW139588   4.066   8.679   5.702
45897SOL    HW239589   3.969   8.680   5.818
45898SOL     OW39590   2.651   9.916  12.734
45898SOL    HW139591   2.723   9.944  12.791
45898SOL    HW239592   2.666   9.822  12.722
45899SOL     OW39593  14.664  12.418   8.067
45899SOL    HW139594  14.642  12.375   8.150
45899SOL    HW239595  14.667  12.511   8.089
45900SOL     OW39596   3.803  10.413   9.127
45900SOL    HW139597   3.762  10.349   9.185
45900SOL    HW239598   3.857  10.467   9.185
45901SOL     OW39599   1.689  12.157   8.103
45901SOL    HW139600   1.772  12.111   8.108
45901SOL    HW239601   1.646  12.121   8.025
45902SOL     OW39602  11.635  10.099   9.642
45902SOL    HW139603  11.587  10.089   9.724
45902SOL    HW239604  11.665  10.011   9.620
45903SOL     OW39605   2.331  13.157   1.349
45903SOL    HW139606   2.403  13.220   1.341
45903SOL    HW239607   2.359  13.099   1.420
45904SOL     OW39608  11.251   3.161   9.064
45904SOL    HW139609  11.329   3.216   9.067
45904SOL    HW239610  11.218   3.171   8.974
45905SOL     OW39611   1.435  11.231   4.118
45905SOL    HW139612   1.482  11.313   4.103
45905SOL    HW239613   1.471  11.171   4.052
45906SOL     OW39614   6.001   7.346   0.378
45906SOL    HW139615   5.995   7.272   0.318
45906SOL    HW239616   6.030   7.419   0.324
45907SOL     OW39617   3.723   0.228   9.317
45907SOL    HW139618   3.794   0.164   9.308
45907SOL    HW239619   3.647   0.175   9.343
45908SOL     OW39620  10.574   8.481   3.129
45908SOL    HW139621  10.546   8.462   3.218
45908SOL    HW239622  10.622   8.403   3.101
45909SOL     OW39623   2.098   1.024   5.795
45909SOL    HW139624   2.143   1.025   5.711
45909SOL    HW239625   2.155   0.974   5.853
45910SOL     OW39626  11.761   5.834   7.489
45910SOL    HW139627  11.828   5.895   7.461
45910SOL    HW239628  11.809   5.758   7.522
45911SOL     OW39629   1.614   9.795   1.338
45911SOL    HW139630   1.687   9.853   1.316
45911SOL    HW239631   1.647   9.707   1.320
45912SOL     OW39632   0.367   6.596   7.439
45912SOL    HW139633   0.414   6.572   7.360
45912SOL    HW239634   0.329   6.682   7.420
45913SOL     OW39635   9.224   9.481   9.499
45913SOL    HW139636   9.204   9.423   9.572
45913SOL    HW239637   9.184   9.564   9.523
45914SOL     OW39638   7.931   5.559   1.639
45914SOL    HW139639   7.948   5.465   1.633
45914SOL    HW239640   7.988   5.589   1.711
45915SOL     OW39641   8.515   9.811   7.542
45915SOL    HW139642   8.566   9.815   7.623
45915SOL    HW239643   8.466   9.894   7.540
45916SOL     OW39644  10.050   1.087   4.502
45916SOL    HW139645  10.078   1.129   4.584
45916SOL    HW239646  10.105   1.009   4.495
45917SOL     OW39647   4.226   5.593  13.347
45917SOL    HW139648   4.150   5.606  13.403
45917SOL    HW239649   4.192   5.544  13.272
45918SOL     OW39650   7.755  11.918   0.217
45918SOL    HW139651   7.837  11.912   0.266
45918SOL    HW239652   7.689  11.884   0.276
45919SOL     OW39653   6.128   1.381   0.969
45919SOL    HW139654   6.086   1.424   0.895
45919SOL    HW239655   6.198   1.328   0.930
45920SOL     OW39656  10.727  11.305   0.390
45920SOL    HW139657  10.757  11.331   0.302
45920SOL    HW239658  10.633  11.322   0.389
45921SOL     OW39659   0.247  13.619   4.358
45921SOL    HW139660   0.271  13.544   4.302
45921SOL    HW239661   0.299  13.607   4.437
45922SOL     OW39662   4.760   2.829   6.277
45922SOL    HW139663   4.729   2.761   6.217
45922SOL    HW239664   4.852   2.809   6.291
45923SOL     OW39665   4.871   5.044   3.470
45923SOL    HW139666   4.897   5.121   3.520
45923SOL    HW239667   4.953   5.011   3.433
45924SOL     OW39668  12.535   5.791   4.821
45924SOL    HW139669  12.522   5.713   4.876
45924SOL    HW239670  12.522   5.865   4.881
45925SOL     OW39671   4.409  10.686   0.909
45925SOL    HW139672   4.376  10.772   0.883
45925SOL    HW239673   4.496  10.703   0.946
45926SOL     OW39674   1.813  10.943   0.136
45926SOL    HW139675   1.830  10.950   0.043
45926SOL    HW239676   1.795  10.850   0.151
45927SOL     OW39677   8.175   0.759   1.999
45927SOL    HW139678   8.233   0.826   1.962
45927SOL    HW239679   8.227   0.718   2.068
45928SOL     OW39680  12.681   1.212  11.760
45928SOL    HW139681  12.627   1.284  11.795
45928SOL    HW239682  12.619   1.141  11.745
45929SOL     OW39683   7.888  11.014  11.600
45929SOL    HW139684   7.816  11.030  11.659
45929SOL    HW239685   7.939  11.095  11.601
45930SOL     OW39686  13.391   6.481   4.771
45930SOL    HW139687  13.383   6.506   4.863
45930SOL    HW239688  13.329   6.408   4.760
45931SOL     OW39689   3.134  13.752   9.944
45931SOL    HW139690   3.168  13.838   9.970
45931SOL    HW239691   3.087  13.768   9.863
45932SOL     OW39692  13.137   3.246   1.474
45932SOL    HW139693  13.127   3.283   1.386
45932SOL    HW239694  13.224   3.275   1.503
45933SOL     OW39695  13.873   3.011  10.582
45933SOL    HW139696  13.895   3.093  10.625
45933SOL    HW239697  13.875   2.945  10.652
45934SOL     OW39698   4.156   0.645   0.858
45934SOL    HW139699   4.131   0.585   0.928
45934SOL    HW239700   4.231   0.692   0.893
45935SOL     OW39701   0.082   9.603   1.134
45935SOL    HW139702   0.147   9.673   1.139
45935SOL    HW239703   0.099   9.559   1.051
45936SOL     OW39704   4.391  12.684   2.491
45936SOL    HW139705   4.483  12.673   2.514
45936SOL    HW239706   4.375  12.778   2.501
45937SOL     OW39707   7.968  10.502  14.017
45937SOL    HW139708   7.931  10.423  13.978
45937SOL    HW239709   7.998  10.554  13.942
45938SOL     OW39710  14.493   3.790   7.162
45938SOL    HW139711  14.459   3.852   7.098
45938SOL    HW239712  14.448   3.812   7.244
45939SOL     OW39713   4.258  11.998   9.632
45939SOL    HW139714   4.264  12.091   9.609
45939SOL    HW239715   4.174  11.991   9.679
45940SOL     OW39716  11.103  13.487   2.216
45940SOL    HW139717  11.009  13.487   2.197
45940SOL    HW239718  11.142  13.542   2.148
45941SOL     OW39719  11.904   9.781   3.077
45941SOL    HW139720  11.881   9.846   3.011
45941SOL    HW239721  11.820   9.745   3.106
45942SOL     OW39722   3.487   5.913   9.002
45942SOL    HW139723   3.498   6.008   9.004
45942SOL    HW239724   3.475   5.892   8.910
45943SOL     OW39725   6.497   0.482   2.295
45943SOL    HW139726   6.490   0.390   2.320
45943SOL    HW239727   6.415   0.501   2.251
45944SOL     OW39728   7.808   7.577   6.304
45944SOL    HW139729   7.740   7.533   6.355
45944SOL    HW239730   7.889   7.532   6.329
45945SOL     OW39731   6.357   4.916  14.560
45945SOL    HW139732   6.344   4.827  14.526
45945SOL    HW239733   6.278   4.935  14.610
45946SOL     OW39734   0.193  13.117  14.689
45946SOL    HW139735   0.155  13.087  14.606
45946SOL    HW239736   0.130  13.180  14.723
45947SOL     OW39737  10.360   0.931  11.175
45947SOL    HW139738  10.314   0.973  11.247
45947SOL    HW239739  10.304   0.859  11.148
45948SOL     OW39740   6.587   8.599   6.593
45948SOL    HW139741   6.535   8.679   6.594
45948SOL    HW239742   6.678   8.629   6.595
45949SOL     OW39743   1.297  11.034   1.344
45949SOL    HW139744   1.305  11.086   1.424
45949SOL    HW239745   1.381  10.989   1.336
45950SOL     OW39746  12.887   1.897   8.538
45950SOL    HW139747  12.937   1.913   8.618
45950SOL    HW239748  12.910   1.970   8.480
45951SOL     OW39749  10.582   1.419   2.665
45951SOL    HW139750  10.582   1.340   2.611
45951SOL    HW239751  10.625   1.391   2.746
45952SOL     OW39752   1.521   3.024   6.993
45952SOL    HW139753   1.538   2.979   7.076
45952SOL    HW239754   1.438   2.987   6.963
45953SOL     OW39755  14.283   6.039  14.465
45953SOL    HW139756  14.246   5.951  14.457
45953SOL    HW239757  14.207   6.097  14.461
45954SOL     OW39758   9.540  14.410  11.544
45954SOL    HW139759   9.489  14.486  11.572
45954SOL    HW239760   9.564  14.429  11.453
45955SOL     OW39761   5.573   1.129  10.787
45955SOL    HW139762   5.564   1.213  10.743
45955SOL    HW239763   5.501   1.076  10.752
45956SOL     OW39764   5.068   7.780   0.220
45956SOL    HW139765   5.100   7.802   0.133
45956SOL    HW239766   4.973   7.784   0.214
45957SOL     OW39767  11.623  13.420   8.969
45957SOL    HW139768  11.696  13.467   9.008
45957SOL    HW239769  11.658  13.384   8.887
45958SOL     OW39770  14.036   8.099   0.875
45958SOL    HW139771  13.946   8.099   0.842
45958SOL    HW239772  14.026   8.102   0.970
45959SOL     OW39773   9.040   3.883   6.605
45959SOL    HW139774   9.085   3.949   6.551
45959SOL    HW239775   8.978   3.842   6.545
45960SOL     OW39776  14.369   9.650   3.920
45960SOL    HW139777  14.389   9.737   3.956
45960SOL    HW239778  14.443   9.596   3.948
45961SOL     OW39779  11.266   9.180  11.589
45961SOL    HW139780  11.271   9.087  11.609
45961SOL    HW239781  11.349   9.216  11.622
45962SOL     OW39782   3.812  10.678   1.451
45962SOL    HW139783   3.896  10.723   1.439
45962SOL    HW239784   3.835  10.586   1.464
45963SOL     OW39785   2.659  12.770   9.228
45963SOL    HW139786   2.666  12.675   9.219
45963SOL    HW239787   2.612  12.783   9.311
45964SOL     OW39788   0.991   4.054   8.097
45964SOL    HW139789   1.005   3.964   8.067
45964SOL    HW239790   1.039   4.107   8.033
45965SOL     OW39791   6.938  12.298  13.054
45965SOL    HW139792   6.884  12.315  12.977
45965SOL    HW239793   6.875  12.296  13.127
45966SOL     OW39794  10.388   2.586   2.627
45966SOL    HW139795  10.484   2.592   2.634
45966SOL    HW239796  10.361   2.542   2.707
45967SOL     OW39797  11.927  10.013   1.160
45967SOL    HW139798  11.887   9.934   1.122
45967SOL    HW239799  11.941  10.071   1.085
45968SOL     OW39800  12.357   2.866   8.796
45968SOL    HW139801  12.437   2.814   8.793
45968SOL    HW239802  12.297   2.822   8.736
45969SOL     OW39803  13.215  10.216   0.088
45969SOL    HW139804  13.147  10.152   0.110
45969SOL    HW239805  13.190  10.295   0.136
45970SOL     OW39806   9.727  12.755   4.812
45970SOL    HW139807   9.809  12.719   4.846
45970SOL    HW239808   9.666  12.681   4.814
45971SOL     OW39809   0.249   2.337   0.455
45971SOL    HW139810   0.326   2.338   0.399
45971SOL    HW239811   0.271   2.276   0.525
45972SOL     OW39812   3.432  14.027   3.232
45972SOL    HW139813   3.438  14.041   3.326
45972SOL    HW239814   3.482  13.947   3.216
45973SOL     OW39815   7.651   5.513  11.839
45973SOL    HW139816   7.581   5.577  11.826
45973SOL    HW239817   7.611   5.429  11.819
45974SOL     OW39818   3.973   7.780   3.281
45974SOL    HW139819   3.926   7.844   3.335
45974SOL    HW239820   3.997   7.828   3.202
45975SOL     OW39821  12.622  11.680  14.438
45975SOL    HW139822  12.571  11.611  14.480
45975SOL    HW239823  12.558  11.747  14.415
45976SOL     OW39824   1.662   7.158   4.707
45976SOL    HW139825   1.734   7.145   4.646
45976SOL    HW239826   1.685   7.105   4.784
45977SOL     OW39827  12.577   2.502  10.459
45977SOL    HW139828  12.620   2.577  10.501
45977SOL    HW239829  12.569   2.437  10.528
45978SOL     OW39830   9.173  10.467   5.014
45978SOL    HW139831   9.170  10.397   4.949
45978SOL    HW239832   9.091  10.459   5.062
45979SOL     OW39833  10.858   4.106  12.250
45979SOL    HW139834  10.813   4.189  12.236
45979SOL    HW239835  10.941   4.115  12.203
45980SOL     OW39836   3.701  10.259   0.120
45980SOL    HW139837   3.617  10.299   0.146
45980SOL    HW239838   3.743  10.326   0.066
45981SOL     OW39839   4.526   8.318   7.808
45981SOL    HW139840   4.551   8.321   7.900
45981SOL    HW239841   4.572   8.241   7.773
45982SOL     OW39842  12.991   6.333  14.452
45982SOL    HW139843  12.946   6.359  14.372
45982SOL    HW239844  13.084   6.347  14.433
45983SOL     OW39845   7.484   2.845   9.795
45983SOL    HW139846   7.414   2.859   9.731
45983SOL    HW239847   7.442   2.795   9.865
45984SOL     OW39848  14.430   6.932   0.671
45984SOL    HW139849  14.491   6.877   0.721
45984SOL    HW239850  14.356   6.874   0.654
45985SOL     OW39851  12.426  14.067   0.347
45985SOL    HW139852  12.390  13.994   0.296
45985SOL    HW239853  12.471  14.025   0.420
45986SOL     OW39854  10.430  13.464   5.125
45986SOL    HW139855  10.474  13.465   5.210
45986SOL    HW239856  10.496  13.432   5.064
45987SOL     OW39857   1.804   1.245  10.131
45987SOL    HW139858   1.860   1.194  10.073
45987SOL    HW239859   1.861   1.314  10.166
45988SOL     OW39860   9.767   6.712   5.341
45988SOL    HW139861   9.672   6.721   5.342
45988SOL    HW239862   9.799   6.784   5.395
45989SOL     OW39863   1.056   8.749   0.520
45989SOL    HW139864   1.092   8.695   0.449
45989SOL    HW239865   0.969   8.712   0.536
45990SOL     OW39866  14.680  12.735   8.051
45990SOL    HW139867  14.688  12.816   8.001
45990SOL    HW239868  14.756  12.735   8.109
45991SOL     OW39869   0.947   7.466   5.148
45991SOL    HW139870   0.879   7.532   5.161
45991SOL    HW239871   1.028   7.517   5.141
45992SOL     OW39872   6.179   4.702  10.875
45992SOL    HW139873   6.105   4.676  10.929
45992SOL    HW239874   6.176   4.642  10.800
45993SOL     OW39875  14.040   6.652   9.271
45993SOL    HW139876  14.079   6.731   9.308
45993SOL    HW239877  13.946   6.665   9.278
45994SOL     OW39878   5.214   8.349   0.833
45994SOL    HW139879   5.261   8.401   0.768
45994SOL    HW239880   5.283   8.311   0.887
45995SOL     OW39881  11.386   7.789   7.130
45995SOL    HW139882  11.348   7.827   7.208
45995SOL    HW239883  11.392   7.696   7.148
45996SOL     OW39884  14.612   6.930   0.242
45996SOL    HW139885  14.587   7.006   0.295
45996SOL    HW239886  14.576   6.855   0.289
45997SOL     OW39887  13.467   6.394   5.324
45997SOL    HW139888  13.549   6.422   5.284
45997SOL    HW239889  13.474   6.299   5.331
45998SOL     OW39890   7.715   3.839   9.832
45998SOL    HW139891   7.631   3.794   9.829
45998SOL    HW239892   7.773   3.785   9.779
45999SOL     OW39893   2.631   9.427   5.485
45999SOL    HW139894   2.601   9.350   5.533
45999SOL    HW239895   2.692   9.392   5.420
46000SOL     OW39896   4.257   4.968   6.935
46000SOL    HW139897   4.248   4.881   6.897
46000SOL    HW239898   4.223   4.960   7.024
46001SOL     OW39899   3.924   2.749   4.397
46001SOL    HW139900   3.979   2.823   4.423
46001SOL    HW239901   3.843   2.760   4.447
46002SOL     OW39902   3.531   4.156   4.691
46002SOL    HW139903   3.449   4.128   4.730
46002SOL    HW239904   3.599   4.124   4.751
46003SOL     OW39905   8.469  10.668   3.237
46003SOL    HW139906   8.553  10.689   3.197
46003SOL    HW239907   8.404  10.688   3.170
46004SOL     OW39908   7.051  10.837  10.486
46004SOL    HW139909   7.034  10.769  10.420
46004SOL    HW239910   7.008  10.804  10.565
46005SOL     OW39911   2.969   0.784   2.908
46005SOL    HW139912   2.943   0.710   2.854
46005SOL    HW239913   2.938   0.861   2.861
46006SOL     OW39914   9.963   7.901   7.203
46006SOL    HW139915   9.970   7.949   7.285
46006SOL    HW239916  10.034   7.837   7.207
46007SOL     OW39917  13.599  11.740  13.815
46007SOL    HW139918  13.649  11.821  13.821
46007SOL    HW239919  13.507  11.768  13.824
46008SOL     OW39920   8.646   5.785   2.613
46008SOL    HW139921   8.637   5.705   2.561
46008SOL    HW239922   8.658   5.754   2.703
46009SOL     OW39923   6.167   9.278   7.514
46009SOL    HW139924   6.200   9.224   7.586
46009SOL    HW239925   6.227   9.260   7.442
46010SOL     OW39926   7.591   2.660   3.691
46010SOL    HW139927   7.635   2.609   3.622
46010SOL    HW239928   7.512   2.611   3.711
46011SOL     OW39929  12.473   4.706  14.275
46011SOL    HW139930  12.565   4.701  14.300
46011SOL    HW239931  12.426   4.683  14.355
46012SOL     OW39932  12.701   0.463   3.680
46012SOL    HW139933  12.760   0.391   3.657
46012SOL    HW239934  12.737   0.500   3.760
46013SOL     OW39935   5.349   5.298  11.108
46013SOL    HW139936   5.306   5.328  11.028
46013SOL    HW239937   5.440   5.323  11.098
46014SOL     OW39938   6.796  11.264  13.150
46014SOL    HW139939   6.877  11.308  13.177
46014SOL    HW239940   6.826  11.185  13.105
46015SOL     OW39941  13.218   6.309  10.511
46015SOL    HW139942  13.255   6.271  10.591
46015SOL    HW239943  13.179   6.391  10.539
46016SOL     OW39944   7.325  11.238   7.234
46016SOL    HW139945   7.334  11.195   7.319
46016SOL    HW239946   7.236  11.272   7.234
46017SOL     OW39947  10.470   4.290  13.448
46017SOL    HW139948  10.388   4.310  13.493
46017SOL    HW239949  10.484   4.197  13.463
46018SOL     OW39950  11.980  10.890   9.670
46018SOL    HW139951  12.013  10.856   9.754
46018SOL    HW239952  11.897  10.845   9.657
46019SOL     OW39953  11.575   1.181  10.680
46019SOL    HW139954  11.587   1.227  10.762
46019SOL    HW239955  11.642   1.112  10.681
46020SOL     OW39956   0.850  13.817   8.258
46020SOL    HW139957   0.815  13.731   8.235
46020SOL    HW239958   0.776  13.864   8.297
46021SOL     OW39959   2.018   8.530  10.795
46021SOL    HW139960   2.067   8.520  10.877
46021SOL    HW239961   2.084   8.518  10.727
46022SOL     OW39962  12.938   9.261   3.706
46022SOL    HW139963  12.884   9.333   3.674
46022SOL    HW239964  12.922   9.189   3.645
46023SOL     OW39965   0.774   7.774   5.612
46023SOL    HW139966   0.760   7.850   5.554
46023SOL    HW239967   0.746   7.805   5.698
46024SOL     OW39968   4.923   7.827   2.422
46024SOL    HW139969   5.009   7.794   2.396
46024SOL    HW239970   4.888   7.759   2.479
46025SOL     OW39971   2.325   6.417  13.455
46025SOL    HW139972   2.411   6.396  13.421
46025SOL    HW239973   2.278   6.456  13.381
46026SOL     OW39974   1.269   4.082   0.783
46026SOL    HW139975   1.342   4.085   0.844
46026SOL    HW239976   1.304   4.038   0.705
46027SOL     OW39977   8.851   6.602   0.687
46027SOL    HW139978   8.802   6.541   0.632
46027SOL    HW239979   8.927   6.553   0.716
46028SOL     OW39980   2.715   7.554   9.438
46028SOL    HW139981   2.674   7.632   9.401
46028SOL    HW239982   2.644   7.508   9.483
46029SOL     OW39983  10.043   2.938   3.853
46029SOL    HW139984  10.073   3.012   3.801
46029SOL    HW239985  10.123   2.894   3.881
46030SOL     OW39986   5.569  14.389   4.827
46030SOL    HW139987   5.550  14.298   4.802
46030SOL    HW239988   5.493  14.416   4.878
46031SOL     OW39989  12.306   7.649   4.176
46031SOL    HW139990  12.233   7.693   4.220
46031SOL    HW239991  12.342   7.716   4.117
46032SOL     OW39992   6.480  13.413   1.831
46032SOL    HW139993   6.482  13.367   1.915
46032SOL    HW239994   6.564  13.459   1.828
46033SOL     OW39995   0.825   3.183  11.675
46033SOL    HW139996   0.835   3.142  11.590
46033SOL    HW239997   0.740   3.151  11.707
46034SOL     OW39998   3.638   8.506  11.416
46034SOL    HW139999   3.590   8.436  11.372
46034SOL    HW240000   3.592   8.518  11.499
46035SOL     OW40001  14.756   4.901  13.860
46035SOL    HW140002  14.673   4.944  13.844
46035SOL    HW240003  14.821   4.958  13.818
46036SOL     OW40004   3.897   0.574  14.706
46036SOL    HW140005   3.948   0.638  14.756
46036SOL    HW240006   3.825   0.549  14.764
46037SOL     OW40007   3.830   9.681   4.690
46037SOL    HW140008   3.818   9.641   4.603
46037SOL    HW240009   3.779   9.624   4.749
46038SOL     OW40010   5.795   6.867   2.220
46038SOL    HW140011   5.781   6.852   2.126
46038SOL    HW240012   5.728   6.815   2.263
46039SOL     OW40013   0.299  11.682   4.444
46039SOL    HW140014   0.353  11.707   4.369
46039SOL    HW240015   0.301  11.758   4.502
46040SOL     OW40016  11.536  13.408  13.347
46040SOL    HW140017  11.500  13.332  13.392
46040SOL    HW240018  11.468  13.475  13.353
46041SOL     OW40019  12.363   8.657   2.373
46041SOL    HW140020  12.272   8.685   2.384
46041SOL    HW240021  12.359   8.590   2.305
46042SOL     OW40022   3.028  14.312   4.021
46042SOL    HW140023   3.008  14.285   3.931
46042SOL    HW240024   2.943  14.313   4.066
46043SOL     OW40025   6.354   3.385   9.133
46043SOL    HW140026   6.280   3.440   9.161
46043SOL    HW240027   6.381   3.338   9.212
46044SOL     OW40028  12.806  14.838   7.814
46044SOL    HW140029  12.750  14.799   7.881
46044SOL    HW240030  12.753   0.027   7.777
46045SOL     OW40031   4.660   7.921   8.629
46045SOL    HW140032   4.669   7.979   8.705
46045SOL    HW240033   4.704   7.840   8.656
46046SOL     OW40034  13.919  12.587   9.165
46046SOL    HW140035  13.962  12.546   9.090
46046SOL    HW240036  13.847  12.637   9.127
46047SOL     OW40037   6.824  12.127   9.930
46047SOL    HW140038   6.741  12.101   9.890
46047SOL    HW240039   6.816  12.221   9.945
46048SOL     OW40040   6.400  13.374  13.335
46048SOL    HW140041   6.417  13.340  13.248
46048SOL    HW240042   6.305  13.367  13.345
46049SOL     OW40043   8.825  11.764   0.700
46049SOL    HW140044   8.760  11.714   0.749
46049SOL    HW240045   8.805  11.856   0.720
46050SOL     OW40046   7.729   1.379  10.866
46050SOL    HW140047   7.780   1.368  10.786
46050SOL    HW240048   7.789   1.356  10.937
46051SOL     OW40049   9.983   2.080   9.512
46051SOL    HW140050   9.997   2.096   9.605
46051SOL    HW240051  10.020   2.157   9.469
46052SOL     OW40052   1.160   1.054   4.732
46052SOL    HW140053   1.112   1.031   4.812
46052SOL    HW240054   1.112   1.011   4.662
46053SOL     OW40055   3.076   0.857  11.849
46053SOL    HW140056   3.046   0.905  11.926
46053SOL    HW240057   3.090   0.768  11.880
46054SOL     OW40058   9.863   1.511   6.716
46054SOL    HW140059   9.893   1.486   6.629
46054SOL    HW240060   9.882   1.436   6.771
46055SOL     OW40061  10.647   0.202   6.628
46055SOL    HW140062  10.612   0.122   6.667
46055SOL    HW240063  10.723   0.172   6.577
46056SOL     OW40064   5.096  13.784   6.441
46056SOL    HW140065   5.161  13.767   6.372
46056SOL    HW240066   5.144  13.837   6.505
46057SOL     OW40067  14.040   0.217   1.700
46057SOL    HW140068  13.958   0.205   1.749
46057SOL    HW240069  14.094   0.142   1.725
46058SOL     OW40070  14.864   3.643  13.709
46058SOL    HW140071   0.040   3.705  13.754
46058SOL    HW240072  14.804   3.614  13.777
46059SOL     OW40073  10.622   2.781   4.446
46059SOL    HW140074  10.593   2.786   4.355
46059SOL    HW240075  10.542   2.781   4.497
46060SOL     OW40076   0.700   2.422   6.544
46060SOL    HW140077   0.615   2.402   6.503
46060SOL    HW240078   0.682   2.498   6.600
46061SOL     OW40079   7.545  12.315   4.801
46061SOL    HW140080   7.492  12.377   4.851
46061SOL    HW240081   7.484  12.275   4.739
46062SOL     OW40082   6.154   3.178   4.599
46062SOL    HW140083   6.140   3.190   4.506
46062SOL    HW240084   6.225   3.238   4.621
46063SOL     OW40085   1.111   6.373   6.995
46063SOL    HW140086   1.138   6.408   6.910
46063SOL    HW240087   1.164   6.295   7.007
46064SOL     OW40088   2.255   5.162   6.513
46064SOL    HW140089   2.280   5.209   6.592
46064SOL    HW240090   2.171   5.200   6.488
46065SOL     OW40091   4.198  11.957   3.406
46065SOL    HW140092   4.289  11.940   3.431
46065SOL    HW240093   4.148  11.887   3.448
46066SOL     OW40094  10.788  13.262  13.872
46066SOL    HW140095  10.880  13.240  13.856
46066SOL    HW240096  10.743  13.177  13.870
46067SOL     OW40097   9.060   5.347  12.403
46067SOL    HW140098   9.073   5.436  12.437
46067SOL    HW240099   9.067   5.291  12.480
46068SOL     OW40100  13.910   0.882   6.349
46068SOL    HW140101  13.898   0.810   6.288
46068SOL    HW240102  13.979   0.936   6.309
46069SOL     OW40103   7.953   9.373   5.484
46069SOL    HW140104   7.883   9.320   5.446
46069SOL    HW240105   7.945   9.458   5.441
46070SOL     OW40106   8.575   1.752   4.250
46070SOL    HW140107   8.617   1.832   4.281
46070SOL    HW240108   8.622   1.730   4.170
46071SOL     OW40109   3.305  10.686   4.915
46071SOL    HW140110   3.318  10.776   4.944
46071SOL    HW240111   3.393  10.654   4.896
46072SOL     OW40112   5.321   6.680   3.364
46072SOL    HW140113   5.280   6.762   3.389
46072SOL    HW240114   5.248   6.625   3.334
46073SOL     OW40115   1.872   4.245   6.021
46073SOL    HW140116   1.794   4.296   6.041
46073SOL    HW240117   1.944   4.294   6.060
46074SOL     OW40118   2.019   4.579  13.735
46074SOL    HW140119   1.937   4.605  13.693
46074SOL    HW240120   2.007   4.486  13.755
46075SOL     OW40121   8.150  14.416  14.744
46075SOL    HW140122   8.071  14.426  14.690
46075SOL    HW240123   8.144  14.488  14.807
46076SOL     OW40124   1.174   4.207   6.712
46076SOL    HW140125   1.094   4.170   6.675
46076SOL    HW240126   1.199   4.145   6.781
46077SOL     OW40127   1.550   4.343   1.869
46077SOL    HW140128   1.581   4.287   1.798
46077SOL    HW240129   1.531   4.427   1.827
46078SOL     OW40130   3.432   5.603   9.077
46078SOL    HW140131   3.442   5.698   9.077
46078SOL    HW240132   3.449   5.577   9.167
46079SOL     OW40133  10.807   2.727  10.618
46079SOL    HW140134  10.725   2.733  10.668
46079SOL    HW240135  10.817   2.634  10.599
46080SOL     OW40136  10.302  13.776  12.937
46080SOL    HW140137  10.230  13.838  12.944
46080SOL    HW240138  10.356  13.794  13.014
46081SOL     OW40139   2.284  14.439  10.786
46081SOL    HW140140   2.326  14.523  10.764
46081SOL    HW240141   2.214  14.463  10.847
46082SOL     OW40142  12.907   9.800  10.820
46082SOL    HW140143  12.944   9.816  10.906
46082SOL    HW240144  12.871   9.711  10.825
46083SOL     OW40145  12.351  13.808   7.606
46083SOL    HW140146  12.380  13.751   7.678
46083SOL    HW240147  12.297  13.752   7.551
46084SOL     OW40148  14.197   4.998   2.311
46084SOL    HW140149  14.265   4.948   2.356
46084SOL    HW240150  14.199   5.084   2.352
46085SOL     OW40151  11.757   4.332   4.902
46085SOL    HW140152  11.723   4.280   4.975
46085SOL    HW240153  11.753   4.422   4.933
46086SOL     OW40154   9.962  13.021   4.920
46086SOL    HW140155  10.015  13.044   4.996
46086SOL    HW240156  10.018  12.963   4.868
46087SOL     OW40157   0.863  11.059   9.623
46087SOL    HW140158   0.874  11.148   9.587
46087SOL    HW240159   0.942  11.013   9.595
46088SOL     OW40160   9.366  12.118  11.079
46088SOL    HW140161   9.320  12.119  11.163
46088SOL    HW240162   9.338  12.036  11.038
46089SOL     OW40163   0.299   0.186   1.755
46089SOL    HW140164   0.292   0.222   1.844
46089SOL    HW240165   0.307   0.091   1.768
46090SOL     OW40166   1.865   1.030   8.578
46090SOL    HW140167   1.938   0.970   8.563
46090SOL    HW240168   1.809   1.019   8.501
46091SOL     OW40169   7.999  12.491  10.836
46091SOL    HW140170   7.975  12.505  10.745
46091SOL    HW240171   8.088  12.455  10.831
46092SOL     OW40172   1.313   1.331   7.703
46092SOL    HW140173   1.285   1.242   7.726
46092SOL    HW240174   1.343   1.324   7.612
46093SOL     OW40175  13.773   8.281   9.154
46093SOL    HW140176  13.847   8.316   9.202
46093SOL    HW240177  13.712   8.354   9.147
46094SOL     OW40178   8.506  11.404   3.722
46094SOL    HW140179   8.559  11.483   3.730
46094SOL    HW240180   8.526  11.354   3.801
46095SOL     OW40181   4.311   0.418  11.761
46095SOL    HW140182   4.268   0.503  11.762
46095SOL    HW240183   4.395   0.435  11.718
46096SOL     OW40184   7.067   7.124   0.102
46096SOL    HW140185   7.056   7.111   0.007
46096SOL    HW240186   7.002   7.065   0.141
46097SOL     OW40187   2.519   1.483  13.643
46097SOL    HW140188   2.563   1.564  13.669
46097SOL    HW240189   2.428   1.508  13.628
46098SOL     OW40190  14.079   1.068   5.227
46098SOL    HW140191  14.028   1.070   5.146
46098SOL    HW240192  14.160   1.113   5.205
46099SOL     OW40193   8.258  11.682   2.506
46099SOL    HW140194   8.244  11.635   2.588
46099SOL    HW240195   8.270  11.773   2.532
46100SOL     OW40196  10.813   6.013   6.298
46100SOL    HW140197  10.728   6.057   6.285
46100SOL    HW240198  10.877   6.078   6.271
46101SOL     OW40199   7.951  11.710   5.844
46101SOL    HW140200   7.968  11.795   5.885
46101SOL    HW240201   7.857  11.709   5.827
46102SOL     OW40202  13.687   3.952   6.454
46102SOL    HW140203  13.681   4.031   6.507
46102SOL    HW240204  13.596   3.924   6.442
46103SOL     OW40205  10.997  10.215  11.725
46103SOL    HW140206  10.979  10.142  11.666
46103SOL    HW240207  11.089  10.206  11.748
46104SOL     OW40208   3.023   8.720   8.252
46104SOL    HW140209   3.049   8.642   8.204
46104SOL    HW240210   3.104   8.767   8.268
46105SOL     OW40211   3.673   5.375   1.951
46105SOL    HW140212   3.660   5.416   2.037
46105SOL    HW240213   3.766   5.385   1.933
46106SOL     OW40214  10.943  14.837   6.541
46106SOL    HW140215  11.034  14.806   6.532
46106SOL    HW240216  10.906  14.781   6.610
46107SOL     OW40217   6.681   4.757  10.875
46107SOL    HW140218   6.600   4.770  10.924
46107SOL    HW240219   6.710   4.669  10.899
46108SOL     OW40220   6.766   2.300  14.526
46108SOL    HW140221   6.727   2.387  14.512
46108SOL    HW240222   6.839   2.297  14.465
46109SOL     OW40223   6.509   5.346  11.611
46109SOL    HW140224   6.502   5.265  11.561
46109SOL    HW240225   6.440   5.339  11.677
46110SOL     OW40226   4.485   0.579   8.719
46110SOL    HW140227   4.482   0.592   8.814
46110SOL    HW240228   4.551   0.511   8.706
46111SOL     OW40229   7.393  12.527  12.955
46111SOL    HW140230   7.324  12.594  12.954
46111SOL    HW240231   7.349  12.449  12.989
46112SOL     OW40232   2.277   6.284  13.985
46112SOL    HW140233   2.333   6.314  13.914
46112SOL    HW240234   2.188   6.295  13.951
46113SOL     OW40235  12.899  13.549  12.942
46113SOL    HW140236  12.857  13.635  12.934
46113SOL    HW240237  12.917  13.523  12.851
46114SOL     OW40238  10.701   4.073  11.629
46114SOL    HW140239  10.794   4.052  11.623
46114SOL    HW240240  10.658   3.988  11.642
46115SOL     OW40241   6.237   6.969  10.382
46115SOL    HW140242   6.264   6.955  10.291
46115SOL    HW240243   6.293   7.040  10.413
46116SOL     OW40244   7.270   2.617  13.821
46116SOL    HW140245   7.210   2.553  13.782
46116SOL    HW240246   7.345   2.618  13.762
46117SOL     OW40247   6.271   1.852  13.922
46117SOL    HW140248   6.193   1.862  13.976
46117SOL    HW240249   6.294   1.760  13.929
46118SOL     OW40250   1.038   3.257   8.669
46118SOL    HW140251   1.020   3.203   8.746
46118SOL    HW240252   1.033   3.347   8.702
46119SOL     OW40253  13.257   8.651  11.403
46119SOL    HW140254  13.332   8.622  11.352
46119SOL    HW240255  13.243   8.742  11.376
46120SOL     OW40256   2.242   6.373  11.438
46120SOL    HW140257   2.298   6.300  11.461
46120SOL    HW240258   2.160   6.357  11.484
46121SOL     OW40259   5.106  13.468  11.618
46121SOL    HW140260   5.051  13.542  11.642
46121SOL    HW240261   5.163  13.454  11.694
46122SOL     OW40262  12.729  10.730   0.904
46122SOL    HW140263  12.809  10.686   0.873
46122SOL    HW240264  12.659  10.692   0.851
46123SOL     OW40265  11.985  11.795  14.646
46123SOL    HW140266  12.077  11.789  14.671
46123SOL    HW240267  11.937  11.750  14.716
46124SOL     OW40268   3.869   3.485   8.054
46124SOL    HW140269   3.929   3.497   7.981
46124SOL    HW240270   3.791   3.537   8.030
46125SOL     OW40271   2.694  12.684   2.082
46125SOL    HW140272   2.750  12.718   2.153
46125SOL    HW240273   2.605  12.696   2.114
46126SOL     OW40274  10.758   3.738  12.853
46126SOL    HW140275  10.728   3.743  12.944
46126SOL    HW240276  10.749   3.828  12.820
46127SOL     OW40277   8.973   0.810   0.118
46127SOL    HW140278   8.913   0.812   0.193
46127SOL    HW240279   8.938   0.875   0.057
46128SOL     OW40280   0.310  14.740   5.419
46128SOL    HW140281   0.331  14.787   5.500
46128SOL    HW240282   0.217  14.720   5.427
46129SOL     OW40283   6.418   0.319   4.583
46129SOL    HW140284   6.326   0.327   4.611
46129SOL    HW240285   6.424   0.229   4.549
46130SOL     OW40286  14.128   1.439   6.326
46130SOL    HW140287  14.061   1.418   6.390
46130SOL    HW240288  14.153   1.529   6.344
46131SOL     OW40289   6.610  13.712   3.087
46131SOL    HW140290   6.566  13.718   3.172
46131SOL    HW240291   6.673  13.784   3.088
46132SOL     OW40292   9.928  14.730   9.946
46132SOL    HW140293   9.975  14.652   9.918
46132SOL    HW240294   9.959  14.799   9.888
46133SOL     OW40295   5.759  11.349   4.783
46133SOL    HW140296   5.819  11.337   4.710
46133SOL    HW240297   5.764  11.267   4.831
46134SOL     OW40298  12.796  12.076   1.735
46134SOL    HW140299  12.756  11.995   1.703
46134SOL    HW240300  12.776  12.077   1.829
46135SOL     OW40301   9.083   4.838   2.061
46135SOL    HW140302   9.075   4.796   1.976
46135SOL    HW240303   9.005   4.809   2.109
46136SOL     OW40304   9.274   6.416   3.240
46136SOL    HW140305   9.209   6.485   3.229
46136SOL    HW240306   9.303   6.395   3.151
46137SOL     OW40307   4.434  11.309   8.014
46137SOL    HW140308   4.474  11.234   8.058
46137SOL    HW240309   4.468  11.386   8.061
46138SOL     OW40310  13.859   7.870  14.052
46138SOL    HW140311  13.844   7.959  14.021
46138SOL    HW240312  13.787   7.819  14.016
46139SOL     OW40313   4.863   9.433   9.868
46139SOL    HW140314   4.887   9.362   9.928
46139SOL    HW240315   4.945   9.456   9.824
46140SOL     OW40316   4.119  13.811   6.836
46140SOL    HW140317   4.124  13.907   6.839
46140SOL    HW240318   4.208  13.784   6.811
46141SOL     OW40319   4.847   9.746   8.798
46141SOL    HW140320   4.818   9.678   8.859
46141SOL    HW240321   4.771   9.801   8.785
46142SOL     OW40322   7.970   8.809   4.846
46142SOL    HW140323   7.941   8.766   4.927
46142SOL    HW240324   7.890   8.828   4.798
46143SOL     OW40325   1.779   2.745   1.931
46143SOL    HW140326   1.784   2.746   2.027
46143SOL    HW240327   1.694   2.705   1.912
46144SOL     OW40328  11.361   3.580   9.709
46144SOL    HW140329  11.347   3.602   9.801
46144SOL    HW240330  11.405   3.495   9.710
46145SOL     OW40331   6.042   1.493  14.477
46145SOL    HW140332   5.996   1.500  14.560
46145SOL    HW240333   5.981   1.530  14.413
46146SOL     OW40334   5.692  11.215   9.286
46146SOL    HW140335   5.647  11.236   9.368
46146SOL    HW240336   5.753  11.145   9.309
46147SOL     OW40337   9.213  14.646   1.271
46147SOL    HW140338   9.122  14.649   1.300
46147SOL    HW240339   9.209  14.611   1.182
46148SOL     OW40340   5.425  13.403   5.664
46148SOL    HW140341   5.373  13.323   5.656
46148SOL    HW240342   5.479  13.405   5.585
46149SOL     OW40343  12.874   1.700   4.492
46149SOL    HW140344  12.804   1.739   4.440
46149SOL    HW240345  12.936   1.666   4.428
46150SOL     OW40346   0.693  12.159  11.951
46150SOL    HW140347   0.759  12.216  11.991
46150SOL    HW240348   0.611  12.182  11.996
46151SOL     OW40349  11.466   1.726  12.064
46151SOL    HW140350  11.511   1.783  12.126
46151SOL    HW240351  11.402   1.782  12.021
46152SOL     OW40352   6.986   6.925   7.666
46152SOL    HW140353   6.959   7.001   7.615
46152SOL    HW240354   7.080   6.918   7.651
46153SOL     OW40355   6.782   7.753  13.791
46153SOL    HW140356   6.756   7.824  13.850
46153SOL    HW240357   6.735   7.676  13.824
46154SOL     OW40358  14.563  10.853   9.493
46154SOL    HW140359  14.495  10.879   9.431
46154SOL    HW240360  14.515  10.822   9.570
46155SOL     OW40361  10.017  13.981   0.114
46155SOL    HW140362  10.062  13.967   0.198
46155SOL    HW240363   9.952  14.049   0.133
46156SOL     OW40364   5.049  14.862   3.248
46156SOL    HW140365   5.110   0.046   3.217
46156SOL    HW240366   5.070  14.850   3.341
46157SOL     OW40367  11.826   5.428  11.417
46157SOL    HW140368  11.819   5.520  11.389
46157SOL    HW240369  11.735   5.403  11.436
46158SOL     OW40370   5.372   7.052  14.734
46158SOL    HW140371   5.364   7.144  14.760
46158SOL    HW240372   5.406   7.055  14.644
46159SOL     OW40373   0.615   3.900  12.701
46159SOL    HW140374   0.631   3.984  12.658
46159SOL    HW240375   0.656   3.909  12.787
46160SOL     OW40376  10.990   0.403  11.931
46160SOL    HW140377  10.961   0.328  11.879
46160SOL    HW240378  11.047   0.364  11.998
46161SOL     OW40379  14.804  11.055   6.238
46161SOL    HW140380  14.771  11.138   6.272
46161SOL    HW240381  14.841  11.010   6.314
46162SOL     OW40382  14.577   3.204   4.429
46162SOL    HW140383  14.608   3.275   4.484
46162SOL    HW240384  14.514   3.245   4.370
46163SOL     OW40385   1.460  10.713   7.219
46163SOL    HW140386   1.463  10.743   7.128
46163SOL    HW240387   1.375  10.744   7.252
46164SOL     OW40388   9.092   1.661   2.362
46164SOL    HW140389   9.052   1.574   2.356
46164SOL    HW240390   9.039   1.707   2.427
46165SOL     OW40391   8.320   6.504  11.539
46165SOL    HW140392   8.328   6.411  11.522
46165SOL    HW240393   8.235   6.514  11.583
46166SOL     OW40394  13.220  13.985   1.171
46166SOL    HW140395  13.172  14.045   1.114
46166SOL    HW240396  13.163  13.908   1.178
46167SOL     OW40397   1.316   1.395   2.490
46167SOL    HW140398   1.289   1.478   2.529
46167SOL    HW240399   1.321   1.412   2.396
46168SOL     OW40400   1.887   4.600   1.105
46168SOL    HW140401   1.964   4.656   1.119
46168SOL    HW240402   1.819   4.660   1.074
46169SOL     OW40403   0.579   2.405  11.000
46169SOL    HW140404   0.670   2.394  11.027
46169SOL    HW240405   0.528   2.360  11.068
46170SOL     OW40406   4.787  12.647  14.200
46170SOL    HW140407   4.773  12.611  14.113
46170SOL    HW240408   4.882  12.662  14.205
46171SOL     OW40409   5.018   2.960   1.077
46171SOL    HW140410   5.042   2.970   0.985
46171SOL    HW240411   4.979   2.873   1.082
46172SOL     OW40412   1.058  10.102  11.178
46172SOL    HW140413   1.138  10.136  11.218
46172SOL    HW240414   1.085  10.071  11.092
46173SOL     OW40415   6.235  10.844   9.368
46173SOL    HW140416   6.291  10.842   9.290
46173SOL    HW240417   6.177  10.919   9.354
46174SOL     OW40418   8.485   4.084   8.973
46174SOL    HW140419   8.474   4.078   8.878
46174SOL    HW240420   8.414   4.140   9.003
46175SOL     OW40421   8.860  12.132   3.590
46175SOL    HW140422   8.791  12.175   3.539
46175SOL    HW240423   8.935  12.192   3.585
46176SOL     OW40424   2.199   5.246   8.310
46176SOL    HW140425   2.129   5.311   8.319
46176SOL    HW240426   2.160   5.177   8.256
46177SOL     OW40427   4.220   7.196  12.186
46177SOL    HW140428   4.230   7.179  12.092
46177SOL    HW240429   4.144   7.254  12.192
46178SOL     OW40430  12.228  10.518  11.959
46178SOL    HW140431  12.133  10.521  11.971
46178SOL    HW240432  12.264  10.538  12.046
46179SOL     OW40433   6.835   2.815   1.131
46179SOL    HW140434   6.773   2.830   1.059
46179SOL    HW240435   6.825   2.723   1.152
46180SOL     OW40436   3.749  11.200  13.671
46180SOL    HW140437   3.676  11.189  13.610
46180SOL    HW240438   3.753  11.118  13.720
46181SOL     OW40439   8.574   8.373   5.602
46181SOL    HW140440   8.667   8.370   5.625
46181SOL    HW240441   8.572   8.421   5.519
46182SOL     OW40442  12.628   4.255  13.704
46182SOL    HW140443  12.625   4.297  13.618
46182SOL    HW240444  12.580   4.315  13.761
46183SOL     OW40445   6.617   2.988  10.060
46183SOL    HW140446   6.686   2.955  10.118
46183SOL    HW240447   6.589   2.911  10.011
46184SOL     OW40448  13.888  11.546   5.503
46184SOL    HW140449  13.982  11.535   5.521
46184SOL    HW240450  13.878  11.638   5.480
46185SOL     OW40451   2.508   6.863   5.250
46185SOL    HW140452   2.557   6.828   5.176
46185SOL    HW240453   2.515   6.796   5.318
46186SOL     OW40454   9.237  10.884   1.036
46186SOL    HW140455   9.197  10.801   1.011
46186SOL    HW240456   9.326  10.879   1.003
46187SOL     OW40457   1.921   2.485   1.689
46187SOL    HW140458   1.903   2.563   1.637
46187SOL    HW240459   2.017   2.477   1.687
46188SOL     OW40460   9.469   6.086   9.979
46188SOL    HW140461   9.390   6.080  10.033
46188SOL    HW240462   9.471   6.003   9.931
46189SOL     OW40463  11.297   2.090   8.851
46189SOL    HW140464  11.260   2.007   8.822
46189SOL    HW240465  11.299   2.144   8.772
46190SOL     OW40466  14.150  10.825  10.191
46190SOL    HW140467  14.090  10.887  10.232
46190SOL    HW240468  14.193  10.780  10.264
46191SOL     OW40469   9.389   4.970   8.815
46191SOL    HW140470   9.303   4.963   8.857
46191SOL    HW240471   9.448   4.921   8.872
46192SOL     OW40472   6.791  13.252   8.920
46192SOL    HW140473   6.791  13.162   8.887
46192SOL    HW240474   6.788  13.307   8.841
46193SOL     OW40475   1.596  12.752   0.179
46193SOL    HW140476   1.576  12.715   0.265
46193SOL    HW240477   1.554  12.838   0.179
46194SOL     OW40478  14.604   7.687   7.450
46194SOL    HW140479  14.667   7.617   7.434
46194SOL    HW240480  14.519   7.648   7.428
46195SOL     OW40481  12.419  13.587  14.452
46195SOL    HW140482  12.399  13.639  14.530
46195SOL    HW240483  12.464  13.648  14.393
46196SOL     OW40484  14.396   1.908   1.591
46196SOL    HW140485  14.339   1.980   1.565
46196SOL    HW240486  14.340   1.830   1.587
46197SOL     OW40487   7.356  12.341  10.700
46197SOL    HW140488   7.350  12.301  10.787
46197SOL    HW240489   7.436  12.306  10.663
46198SOL     OW40490   5.532   5.016   3.213
46198SOL    HW140491   5.578   4.935   3.237
46198SOL    HW240492   5.487   4.994   3.131
46199SOL     OW40493   5.880   4.891  14.618
46199SOL    HW140494   5.838   4.966  14.578
46199SOL    HW240495   5.856   4.817  14.563
46200SOL     OW40496   3.854   4.155   0.726
46200SOL    HW140497   3.903   4.236   0.717
46200SOL    HW240498   3.915   4.086   0.699
46201SOL     OW40499  14.533   2.944   6.407
46201SOL    HW140500  14.592   2.951   6.332
46201SOL    HW240501  14.549   2.857   6.442
46202SOL     OW40502   3.712   5.958  13.733
46202SOL    HW140503   3.766   5.962  13.654
46202SOL    HW240504   3.690   6.049  13.752
46203SOL     OW40505  14.638   1.177   3.206
46203SOL    HW140506  14.581   1.101   3.195
46203SOL    HW240507  14.651   1.211   3.118
46204SOL     OW40508   3.311   9.806  13.705
46204SOL    HW140509   3.222   9.803  13.669
46204SOL    HW240510   3.351   9.882  13.663
46205SOL     OW40511  13.599   7.893   7.852
46205SOL    HW140512  13.611   7.954   7.925
46205SOL    HW240513  13.517   7.921   7.811
46206SOL     OW40514  13.516   3.020  14.035
46206SOL    HW140515  13.511   3.116  14.031
46206SOL    HW240516  13.475   2.990  13.954
46207SOL     OW40517   7.897  14.457   9.565
46207SOL    HW140518   7.880  14.549   9.583
46207SOL    HW240519   7.978  14.458   9.513
46208SOL     OW40520   6.962   1.729   4.616
46208SOL    HW140521   7.022   1.750   4.688
46208SOL    HW240522   6.880   1.771   4.641
46209SOL     OW40523  10.297   9.046   1.700
46209SOL    HW140524  10.288   8.957   1.732
46209SOL    HW240525  10.241   9.049   1.622
46210SOL     OW40526  11.070   3.841   8.369
46210SOL    HW140527  11.073   3.894   8.290
46210SOL    HW240528  10.990   3.870   8.413
46211SOL     OW40529   7.050   8.111   3.749
46211SOL    HW140530   7.112   8.077   3.685
46211SOL    HW240531   6.966   8.072   3.725
46212SOL     OW40532  10.509   4.922   6.141
46212SOL    HW140533  10.585   4.896   6.192
46212SOL    HW240534  10.545   4.970   6.067
46213SOL     OW40535   0.602   6.891   5.633
46213SOL    HW140536   0.604   6.947   5.556
46213SOL    HW240537   0.541   6.934   5.693
46214SOL     OW40538  10.375   5.600  11.986
46214SOL    HW140539  10.393   5.594  12.080
46214SOL    HW240540  10.451   5.646  11.950
46215SOL     OW40541   6.686   5.129   6.275
46215SOL    HW140542   6.673   5.152   6.183
46215SOL    HW240543   6.745   5.054   6.274
46216SOL     OW40544   3.639   4.591   5.691
46216SOL    HW140545   3.591   4.516   5.726
46216SOL    HW240546   3.574   4.661   5.684
46217SOL     OW40547   3.934  12.910   9.599
46217SOL    HW140548   3.909  12.918   9.691
46217SOL    HW240549   3.882  12.837   9.566
46218SOL     OW40550  13.861   0.389  13.816
46218SOL    HW140551  13.942   0.439  13.803
46218SOL    HW240552  13.811   0.442  13.879
46219SOL     OW40553   3.867   7.242  13.564
46219SOL    HW140554   3.867   7.337  13.574
46219SOL    HW240555   3.858   7.227  13.470
46220SOL     OW40556   0.831   9.775   5.558
46220SOL    HW140557   0.808   9.845   5.619
46220SOL    HW240558   0.770   9.704   5.578
46221SOL     OW40559  10.227  14.600   3.705
46221SOL    HW140560  10.227  14.525   3.645
46221SOL    HW240561  10.159  14.579   3.769
46222SOL     OW40562   2.746  12.726  14.409
46222SOL    HW140563   2.791  12.793  14.460
46222SOL    HW240564   2.654  12.733  14.436
46223SOL     OW40565   0.104  13.986   4.082
46223SOL    HW140566   0.190  13.956   4.051
46223SOL    HW240567   0.114  14.081   4.089
46224SOL     OW40568  13.245   4.592  13.096
46224SOL    HW140569  13.225   4.635  13.013
46224SOL    HW240570  13.236   4.661  13.161
46225SOL     OW40571  11.486   7.782  14.641
46225SOL    HW140572  11.418   7.743  14.697
46225SOL    HW240573  11.540   7.833  14.701
46226SOL     OW40574   0.613  13.898   3.513
46226SOL    HW140575   0.603  13.813   3.470
46226SOL    HW240576   0.566  13.959   3.457
46227SOL     OW40577  12.945  13.502   1.419
46227SOL    HW140578  12.984  13.542   1.497
46227SOL    HW240579  12.909  13.575   1.370
46228SOL     OW40580   5.650   4.332  14.446
46228SOL    HW140581   5.659   4.345  14.352
46228SOL    HW240582   5.631   4.238  14.456
46229SOL     OW40583   9.089   2.059  12.869
46229SOL    HW140584   9.138   2.007  12.806
46229SOL    HW240585   9.018   2.002  12.898
46230SOL     OW40586  10.467   6.120   5.504
46230SOL    HW140587  10.394   6.121   5.442
46230SOL    HW240588  10.526   6.189   5.474
46231SOL     OW40589   5.262  11.108  11.142
46231SOL    HW140590   5.328  11.127  11.075
46231SOL    HW240591   5.274  11.015  11.161
46232SOL     OW40592  11.353  13.328  11.505
46232SOL    HW140593  11.280  13.389  11.514
46232SOL    HW240594  11.425  13.367  11.555
46233SOL     OW40595  10.438   6.619  11.525
46233SOL    HW140596  10.424   6.692  11.586
46233SOL    HW240597  10.523   6.583  11.550
46234SOL     OW40598   6.782   2.780   8.171
46234SOL    HW140599   6.773   2.861   8.120
46234SOL    HW240600   6.861   2.795   8.224
46235SOL     OW40601  10.100  11.670   4.754
46235SOL    HW140602  10.148  11.673   4.671
46235SOL    HW240603  10.139  11.740   4.807
46236SOL     OW40604   6.817   9.878  11.225
46236SOL    HW140605   6.902   9.917  11.207
46236SOL    HW240606   6.826   9.786  11.198
46237SOL     OW40607   7.472  14.533   8.921
46237SOL    HW140608   7.491  14.573   9.006
46237SOL    HW240609   7.541  14.469   8.908
46238SOL     OW40610   1.755  12.462   6.023
46238SOL    HW140611   1.702  12.527   5.977
46238SOL    HW240612   1.721  12.461   6.112
46239SOL     OW40613  10.837  13.353   5.368
46239SOL    HW140614  10.915  13.356   5.313
46239SOL    HW240615  10.836  13.264   5.403
46240SOL     OW40616  13.362   3.709  12.513
46240SOL    HW140617  13.276   3.675  12.536
46240SOL    HW240618  13.422   3.637  12.535
46241SOL     OW40619  13.866   6.746   0.335
46241SOL    HW140620  13.858   6.702   0.250
46241SOL    HW240621  13.785   6.795   0.345
46242SOL     OW40622  12.347   4.980  10.063
46242SOL    HW140623  12.307   5.033   9.994
46242SOL    HW240624  12.276   4.927  10.097
46243SOL     OW40625  10.042   1.975  10.670
46243SOL    HW140626   9.994   1.986  10.751
46243SOL    HW240627   9.975   1.975  10.602
46244SOL     OW40628  12.015  12.877  13.054
46244SOL    HW140629  11.946  12.940  13.077
46244SOL    HW240630  11.979  12.830  12.979
46245SOL     OW40631   8.646   4.151   4.544
46245SOL    HW140632   8.583   4.208   4.500
46245SOL    HW240633   8.711   4.212   4.582
46246SOL     OW40634   4.268   9.015   1.265
46246SOL    HW140635   4.274   8.952   1.193
46246SOL    HW240636   4.195   9.072   1.241
46247SOL     OW40637   2.304   9.431   1.067
46247SOL    HW140638   2.359   9.353   1.066
46247SOL    HW240639   2.361   9.502   1.037
46248SOL     OW40640  11.585   0.164   1.769
46248SOL    HW140641  11.547   0.151   1.682
46248SOL    HW240642  11.679   0.155   1.756
46249SOL     OW40643   4.327   8.572   7.191
46249SOL    HW140644   4.301   8.624   7.115
46249SOL    HW240645   4.413   8.605   7.215
46250SOL     OW40646   2.220   4.291   8.288
46250SOL    HW140647   2.307   4.298   8.248
46250SOL    HW240648   2.224   4.353   8.362
46251SOL     OW40649   3.885  10.386  13.037
46251SOL    HW140650   3.805  10.338  13.058
46251SOL    HW240651   3.875  10.411  12.945
46252SOL     OW40652   2.433  11.474  11.557
46252SOL    HW140653   2.504  11.410  11.548
46252SOL    HW240654   2.354  11.421  11.569
46253SOL     OW40655   3.308  13.485   4.915
46253SOL    HW140656   3.386  13.462   4.865
46253SOL    HW240657   3.245  13.514   4.849
46254SOL     OW40658  11.867   9.269   4.500
46254SOL    HW140659  11.870   9.338   4.433
46254SOL    HW240660  11.911   9.308   4.576
46255SOL     OW40661   7.559   6.914   1.213
46255SOL    HW140662   7.569   6.884   1.304
46255SOL    HW240663   7.491   6.982   1.218
46256SOL     OW40664  13.859   1.643  11.128
46256SOL    HW140665  13.857   1.558  11.172
46256SOL    HW240666  13.770   1.653  11.093
46257SOL     OW40667   7.551  10.281  14.241
46257SOL    HW140668   7.459  10.266  14.220
46257SOL    HW240669   7.595  10.286  14.157
46258SOL     OW40670   9.506   6.007   1.078
46258SOL    HW140671   9.550   5.944   1.136
46258SOL    HW240672   9.453   6.060   1.137
46259SOL     OW40673  11.288   5.781   2.731
46259SOL    HW140674  11.307   5.687   2.725
46259SOL    HW240675  11.337   5.820   2.660
46260SOL     OW40676   3.077  12.789  13.287
46260SOL    HW140677   3.092  12.768  13.379
46260SOL    HW240678   3.158  12.830  13.258
46261SOL     OW40679  12.037   4.857  12.601
46261SOL    HW140680  11.979   4.835  12.528
46261SOL    HW240681  12.053   4.951  12.590
46262SOL     OW40682  10.955  13.402   1.564
46262SOL    HW140683  10.875  13.453   1.552
46262SOL    HW240684  10.927  13.323   1.610
46263SOL     OW40685   0.069   3.906   6.679
46263SOL    HW140686   0.117   3.830   6.648
46263SOL    HW240687   0.104   3.979   6.627
46264SOL     OW40688   0.903   4.829  11.651
46264SOL    HW140689   0.924   4.905  11.705
46264SOL    HW240690   0.818   4.850  11.612
46265SOL     OW40691  13.465   3.359  14.507
46265SOL    HW140692  13.507   3.384  14.425
46265SOL    HW240693  13.419   3.278  14.487
46266SOL     OW40694   0.770   8.757  11.777
46266SOL    HW140695   0.815   8.741  11.694
46266SOL    HW240696   0.784   8.676  11.827
46267SOL     OW40697  11.412   8.941  14.637
46267SOL    HW140698  11.483   9.005  14.633
46267SOL    HW240699  11.332   8.994  14.640
46268SOL     OW40700   5.200   4.547  11.472
46268SOL    HW140701   5.171   4.474  11.527
46268SOL    HW240702   5.260   4.597  11.528
46269SOL     OW40703   6.208  11.778  13.524
46269SOL    HW140704   6.157  11.859  13.530
46269SOL    HW240705   6.165  11.728  13.454
46270SOL     OW40706   0.934  10.785   2.852
46270SOL    HW140707   0.964  10.844   2.921
46270SOL    HW240708   0.895  10.711   2.899
46271SOL     OW40709  13.774  13.981  10.694
46271SOL    HW140710  13.853  14.015  10.737
46271SOL    HW240711  13.808  13.925  10.623
46272SOL     OW40712  14.769   2.103  10.826
46272SOL    HW140713  14.732   2.027  10.782
46272SOL    HW240714  14.709   2.122  10.898
46273SOL     OW40715  11.175  14.641   0.947
46273SOL    HW140716  11.255  14.618   0.900
46273SOL    HW240717  11.141  14.558   0.980
46274SOL     OW40718   0.642  12.831  13.855
46274SOL    HW140719   0.642  12.924  13.835
46274SOL    HW240720   0.628  12.787  13.771
46275SOL     OW40721  10.184  10.840   8.006
46275SOL    HW140722  10.277  10.820   8.011
46275SOL    HW240723  10.180  10.926   7.964
46276SOL     OW40724  14.490   7.893   2.473
46276SOL    HW140725  14.493   7.981   2.511
46276SOL    HW240726  14.472   7.908   2.380
46277SOL     OW40727  14.262  12.380   8.410
46277SOL    HW140728  14.266  12.436   8.333
46277SOL    HW240729  14.170  12.357   8.419
46278SOL     OW40730   5.378   5.231   2.305
46278SOL    HW140731   5.448   5.295   2.313
46278SOL    HW240732   5.349   5.215   2.395
46279SOL     OW40733   0.174  14.628   6.872
46279SOL    HW140734   0.255  14.621   6.924
46279SOL    HW240735   0.204  14.621   6.781
46280SOL     OW40736   2.063   3.661  13.217
46280SOL    HW140737   2.152   3.642  13.187
46280SOL    HW240738   2.070   3.744  13.264
46281SOL     OW40739   3.274   3.919   0.061
46281SOL    HW140740   3.240   3.941   0.148
46281SOL    HW240741   3.328   3.994   0.037
46282SOL     OW40742  12.830  10.738   4.919
46282SOL    HW140743  12.774  10.798   4.868
46282SOL    HW240744  12.778  10.719   4.997
46283SOL     OW40745   4.040   7.154   2.540
46283SOL    HW140746   4.117   7.210   2.534
46283SOL    HW240747   4.005   7.171   2.628
46284SOL     OW40748  12.376   8.673   5.132
46284SOL    HW140749  12.337   8.713   5.054
46284SOL    HW240750  12.361   8.579   5.121
46285SOL     OW40751   8.174   1.753   1.056
46285SOL    HW140752   8.149   1.771   1.146
46285SOL    HW240753   8.093   1.763   1.006
46286SOL     OW40754   5.583   6.870   8.185
46286SOL    HW140755   5.640   6.793   8.174
46286SOL    HW240756   5.620   6.916   8.261
46287SOL     OW40757   7.823   4.393  12.961
46287SOL    HW140758   7.754   4.409  12.897
46287SOL    HW240759   7.894   4.453  12.935
46288SOL     OW40760   0.920   8.690  14.590
46288SOL    HW140761   0.902   8.655  14.677
46288SOL    HW240762   0.977   8.765  14.605
46289SOL     OW40763   7.876  10.548  11.574
46289SOL    HW140764   7.932  10.475  11.547
46289SOL    HW240765   7.811  10.508  11.632
46290SOL     OW40766  11.018   5.608   6.609
46290SOL    HW140767  11.003   5.525   6.564
46290SOL    HW240768  10.931   5.640   6.632
46291SOL     OW40769   1.868   8.929   6.871
46291SOL    HW140770   1.890   9.015   6.908
46291SOL    HW240771   1.895   8.935   6.779
46292SOL     OW40772  13.021   9.287   2.346
46292SOL    HW140773  12.996   9.376   2.371
46292SOL    HW240774  13.117   9.287   2.350
46293SOL     OW40775  14.627   4.292   3.417
46293SOL    HW140776  14.676   4.367   3.385
46293SOL    HW240777  14.632   4.227   3.346
46294SOL     OW40778   6.269  13.313   6.163
46294SOL    HW140779   6.182  13.301   6.200
46294SOL    HW240780   6.256  13.374   6.090
46295SOL     OW40781   7.968   6.825   7.684
46295SOL    HW140782   7.874   6.842   7.697
46295SOL    HW240783   8.002   6.816   7.773
46296SOL     OW40784   1.714  10.513   6.166
46296SOL    HW140785   1.638  10.457   6.152
46296SOL    HW240786   1.783  10.473   6.113
46297SOL     OW40787  12.912   7.533   0.524
46297SOL    HW140788  12.888   7.527   0.616
46297SOL    HW240789  12.884   7.620   0.497
46298SOL     OW40790  12.131   6.076   2.527
46298SOL    HW140791  12.051   6.116   2.561
46298SOL    HW240792  12.129   5.986   2.559
46299SOL     OW40793   2.336   7.631   1.725
46299SOL    HW140794   2.425   7.615   1.757
46299SOL    HW240795   2.294   7.545   1.725
46300SOL     OW40796   8.365   3.257  10.348
46300SOL    HW140797   8.324   3.260  10.435
46300SOL    HW240798   8.293   3.235  10.289
46301SOL     OW40799  13.245   0.344  11.980
46301SOL    HW140800  13.172   0.309  12.031
46301SOL    HW240801  13.308   0.272  11.978
46302SOL     OW40802   4.322   1.093  13.566
46302SOL    HW140803   4.308   1.163  13.630
46302SOL    HW240804   4.374   1.028  13.613
46303SOL     OW40805   1.974   0.198   5.047
46303SOL    HW140806   1.919   0.276   5.051
46303SOL    HW240807   1.924   0.132   5.095
46304SOL     OW40808   2.590   6.035   7.060
46304SOL    HW140809   2.645   6.101   7.102
46304SOL    HW240810   2.500   6.064   7.078
46305SOL     OW40811   5.836   9.673   9.578
46305SOL    HW140812   5.834   9.744   9.514
46305SOL    HW240813   5.919   9.630   9.563
46306SOL     OW40814   6.083  13.617   9.104
46306SOL    HW140815   5.988  13.620   9.093
46306SOL    HW240816   6.118  13.653   9.023
46307SOL     OW40817   0.456   5.600   3.547
46307SOL    HW140818   0.548   5.582   3.530
46307SOL    HW240819   0.454   5.692   3.574
46308SOL     OW40820  14.284   5.271  11.630
46308SOL    HW140821  14.248   5.228  11.552
46308SOL    HW240822  14.335   5.344  11.595
46309SOL     OW40823  11.331  14.459  13.087
46309SOL    HW140824  11.253  14.424  13.045
46309SOL    HW240825  11.391  14.477  13.015
46310SOL     OW40826   2.452   0.244   3.924
46310SOL    HW140827   2.514   0.314   3.905
46310SOL    HW240828   2.419   0.217   3.839
46311SOL     OW40829   7.180   4.241  14.567
46311SOL    HW140830   7.140   4.170  14.617
46311SOL    HW240831   7.268   4.210  14.547
46312SOL     OW40832   8.022  10.715   9.401
46312SOL    HW140833   7.934  10.700   9.365
46312SOL    HW240834   8.006  10.737   9.493
46313SOL     OW40835   1.596  12.652   5.869
46313SOL    HW140836   1.536  12.625   5.799
46313SOL    HW240837   1.659  12.710   5.825
46314SOL     OW40838   7.456  13.880   4.598
46314SOL    HW140839   7.466  13.801   4.546
46314SOL    HW240840   7.498  13.949   4.546
46315SOL     OW40841   5.255   7.421  14.123
46315SOL    HW140842   5.201   7.352  14.161
46315SOL    HW240843   5.274   7.391  14.034
46316SOL     OW40844   9.861   8.096  12.538
46316SOL    HW140845   9.877   8.179  12.581
46316SOL    HW240846   9.907   8.031  12.592
46317SOL     OW40847   2.718   0.606   8.617
46317SOL    HW140848   2.810   0.619   8.640
46317SOL    HW240849   2.720   0.578   8.526
46318SOL     OW40850   4.721   6.388   1.885
46318SOL    HW140851   4.705   6.354   1.797
46318SOL    HW240852   4.685   6.320   1.943
46319SOL     OW40853   4.437  13.920  14.737
46319SOL    HW140854   4.401  13.846  14.688
46319SOL    HW240855   4.403  13.908  14.826
46320SOL     OW40856   0.655   7.132   2.352
46320SOL    HW140857   0.615   7.054   2.313
46320SOL    HW240858   0.655   7.196   2.281
46321SOL     OW40859   1.103   9.127  12.784
46321SOL    HW140860   1.109   9.156  12.875
46321SOL    HW240861   1.136   9.037  12.785
46322SOL     OW40862   0.678  10.047   8.730
46322SOL    HW140863   0.677  10.025   8.637
46322SOL    HW240864   0.699  10.141   8.731
46323SOL     OW40865   4.585   8.996  11.235
46323SOL    HW140866   4.537   9.070  11.273
46323SOL    HW240867   4.624   8.952  11.310
46324SOL     OW40868   2.515   8.444   5.620
46324SOL    HW140869   2.423   8.461   5.599
46324SOL    HW240870   2.516   8.356   5.657
46325SOL     OW40871   7.109  11.408   8.511
46325SOL    HW140872   7.132  11.453   8.592
46325SOL    HW240873   7.165  11.447   8.444
46326SOL     OW40874   5.079   2.552   3.793
46326SOL    HW140875   5.055   2.465   3.763
46326SOL    HW240876   5.029   2.565   3.874
46327SOL     OW40877   5.486   8.347   3.469
46327SOL    HW140878   5.479   8.292   3.547
46327SOL    HW240879   5.475   8.286   3.396
46328SOL     OW40880  13.054  11.153   5.259
46328SOL    HW140881  13.128  11.165   5.200
46328SOL    HW240882  12.986  11.212   5.223
46329SOL     OW40883   2.819  14.176   5.363
46329SOL    HW140884   2.839  14.209   5.275
46329SOL    HW240885   2.725  14.192   5.373
46330SOL     OW40886   0.129   8.595   5.651
46330SOL    HW140887   0.209   8.543   5.657
46330SOL    HW240888   0.098   8.602   5.741
46331SOL     OW40889   1.542   1.908  14.129
46331SOL    HW140890   1.450   1.890  14.150
46331SOL    HW240891   1.552   2.002  14.144
46332SOL     OW40892   8.529   2.828  12.363
46332SOL    HW140893   8.470   2.787  12.426
46332SOL    HW240894   8.475   2.839  12.284
46333SOL     OW40895   7.172   5.160   4.994
46333SOL    HW140896   7.180   5.216   5.072
46333SOL    HW240897   7.226   5.203   4.928
46334SOL     OW40898   9.632   7.241   9.212
46334SOL    HW140899   9.550   7.194   9.226
46334SOL    HW240900   9.645   7.291   9.293
46335SOL     OW40901  12.021   2.649   0.629
46335SOL    HW140902  11.941   2.652   0.576
46335SOL    HW240903  12.091   2.629   0.567
46336SOL     OW40904  14.722   0.410  13.845
46336SOL    HW140905  14.688   0.361  13.920
46336SOL    HW240906  14.796   0.459  13.880
46337SOL     OW40907   8.919   6.049   1.574
46337SOL    HW140908   8.861   6.073   1.502
46337SOL    HW240909   8.978   5.984   1.537
46338SOL     OW40910   2.670   3.626   5.290
46338SOL    HW140911   2.627   3.705   5.322
46338SOL    HW240912   2.634   3.555   5.342
46339SOL     OW40913  14.100   4.940  12.800
46339SOL    HW140914  14.049   4.981  12.730
46339SOL    HW240915  14.191   4.949  12.771
46340SOL     OW40916   9.017   6.263   9.268
46340SOL    HW140917   9.066   6.284   9.188
46340SOL    HW240918   9.057   6.319   9.335
46341SOL     OW40919   5.295   0.434   6.957
46341SOL    HW140920   5.247   0.483   7.023
46341SOL    HW240921   5.287   0.342   6.985
46342SOL     OW40922   8.226   4.789   1.525
46342SOL    HW140923   8.234   4.880   1.554
46342SOL    HW240924   8.263   4.737   1.597
46343SOL     OW40925   3.493   7.644  11.801
46343SOL    HW140926   3.498   7.710  11.870
46343SOL    HW240927   3.400   7.630  11.787
46344SOL     OW40928  12.908   0.682   3.034
46344SOL    HW140929  12.892   0.621   3.106
46344SOL    HW240930  12.925   0.626   2.958
46345SOL     OW40931  14.202   3.823   1.716
46345SOL    HW140932  14.193   3.845   1.809
46345SOL    HW240933  14.296   3.828   1.700
46346SOL     OW40934   5.232   7.616  12.121
46346SOL    HW140935   5.142   7.647  12.110
46346SOL    HW240936   5.271   7.677  12.183
46347SOL     OW40937   4.371   8.565   6.340
46347SOL    HW140938   4.357   8.482   6.387
46347SOL    HW240939   4.431   8.542   6.269
46348SOL     OW40940   2.246  12.614  14.310
46348SOL    HW140941   2.181  12.621  14.380
46348SOL    HW240942   2.282  12.526  14.321
46349SOL     OW40943   4.101   3.949   4.020
46349SOL    HW140944   4.030   4.009   3.999
46349SOL    HW240945   4.132   3.917   3.935
46350SOL     OW40946   2.764   3.394   4.254
46350SOL    HW140947   2.775   3.396   4.349
46350SOL    HW240948   2.682   3.442   4.239
46351SOL     OW40949  13.162   7.727   6.639
46351SOL    HW140950  13.243   7.683   6.615
46351SOL    HW240951  13.185   7.820   6.643
46352SOL     OW40952   3.493   9.397   7.088
46352SOL    HW140953   3.550   9.425   7.017
46352SOL    HW240954   3.423   9.348   7.044
46353SOL     OW40955   3.398   7.633  14.538
46353SOL    HW140956   3.362   7.545  14.550
46353SOL    HW240957   3.458   7.645  14.612
46354SOL     OW40958   5.270   6.190  14.482
46354SOL    HW140959   5.274   6.123  14.414
46354SOL    HW240960   5.184   6.231  14.470
46355SOL     OW40961  13.442   8.263  12.295
46355SOL    HW140962  13.435   8.348  12.337
46355SOL    HW240963  13.536   8.243  12.297
46356SOL     OW40964  12.948  13.588   5.936
46356SOL    HW140965  12.954  13.618   6.026
46356SOL    HW240966  12.924  13.666   5.886
46357SOL     OW40967   0.169   7.612  13.818
46357SOL    HW140968   0.205   7.651  13.739
46357SOL    HW240969   0.075   7.626  13.811
46358SOL     OW40970   0.608  12.320   8.303
46358SOL    HW140971   0.669  12.249   8.322
46358SOL    HW240972   0.565  12.293   8.221
46359SOL     OW40973   3.818  13.741   1.332
46359SOL    HW140974   3.728  13.743   1.365
46359SOL    HW240975   3.842  13.833   1.322
46360SOL     OW40976   1.667  13.554   0.602
46360SOL    HW140977   1.761  13.563   0.587
46360SOL    HW240978   1.632  13.524   0.518
46361SOL     OW40979  14.328  13.534  12.179
46361SOL    HW140980  14.298  13.522  12.269
46361SOL    HW240981  14.279  13.609  12.147
46362SOL     OW40982   6.118   7.313  10.357
46362SOL    HW140983   6.055   7.271  10.417
46362SOL    HW240984   6.202   7.275  10.381
46363SOL     OW40985  10.329   7.175   1.311
46363SOL    HW140986  10.330   7.193   1.405
46363SOL    HW240987  10.400   7.228   1.275
46364SOL     OW40988  10.211  10.179   3.743
46364SOL    HW140989  10.250  10.131   3.816
46364SOL    HW240990  10.285  10.222   3.700
46365SOL     OW40991  11.923   6.561   4.094
46365SOL    HW140992  11.881   6.601   4.170
46365SOL    HW240993  11.851   6.546   4.032
46366SOL     OW40994  11.858   6.379   4.917
46366SOL    HW140995  11.805   6.413   4.845
46366SOL    HW240996  11.876   6.455   4.972
46367SOL     OW40997   3.877   7.110   8.241
46367SOL    HW140998   3.963   7.066   8.241
46367SOL    HW240999   3.880   7.169   8.316
46368SOL     OW41000   3.584  13.946   3.511
46368SOL    HW141001   3.636  13.904   3.579
46368SOL    HW241002   3.514  13.883   3.492
46369SOL     OW41003  13.787   7.827   4.973
46369SOL    HW141004  13.733   7.751   4.949
46369SOL    HW241005  13.869   7.788   5.004
46370SOL     OW41006  11.516   9.151  10.904
46370SOL    HW141007  11.439   9.094  10.903
46370SOL    HW241008  11.486   9.230  10.948
46371SOL     OW41009   3.523  10.696  11.406
46371SOL    HW141010   3.493  10.739  11.486
46371SOL    HW241011   3.548  10.608  11.435
46372SOL     OW41012   0.959  12.420  12.827
46372SOL    HW141013   1.021  12.491  12.843
46372SOL    HW241014   0.934  12.390  12.915
46373SOL     OW41015   6.937   6.096   5.736
46373SOL    HW141016   6.964   6.086   5.828
46373SOL    HW241017   7.006   6.053   5.686
46374SOL     OW41018   1.398   5.490  10.123
46374SOL    HW141019   1.457   5.424  10.159
46374SOL    HW241020   1.457   5.559  10.092
46375SOL     OW41021   9.506   0.021   1.095
46375SOL    HW141022   9.428  14.862   1.057
46375SOL    HW241023   9.483   0.114   1.103
46376SOL     OW41024  12.863   0.671  14.173
46376SOL    HW141025  12.773   0.686  14.144
46376SOL    HW241026  12.917   0.704  14.101
46377SOL     OW41027  12.946   8.193   2.145
46377SOL    HW141028  12.895   8.168   2.068
46377SOL    HW241029  12.959   8.288   2.136
46378SOL     OW41030   5.095   1.134   9.440
46378SOL    HW141031   5.042   1.151   9.362
46378SOL    HW241032   5.068   1.201   9.502
46379SOL     OW41033   2.763   9.969   3.869
46379SOL    HW141034   2.834  10.002   3.924
46379SOL    HW241035   2.758  10.031   3.796
46380SOL     OW41036   7.655   0.596   6.457
46380SOL    HW141037   7.658   0.652   6.535
46380SOL    HW241038   7.745   0.591   6.427
46381SOL     OW41039   2.758  10.982   4.024
46381SOL    HW141040   2.761  11.021   4.111
46381SOL    HW241041   2.840  11.011   3.982
46382SOL     OW41042   8.025   0.028  13.646
46382SOL    HW141043   8.041  14.838  13.707
46382SOL    HW241044   8.043   0.107  13.697
46383SOL     OW41045  14.270   9.387  12.336
46383SOL    HW141046  14.330   9.353  12.402
46383SOL    HW241047  14.240   9.471  12.371
46384SOL     OW41048  10.502  12.930   0.683
46384SOL    HW141049  10.486  12.837   0.671
46384SOL    HW241050  10.416  12.968   0.698
46385SOL     OW41051   1.191   6.658  12.923
46385SOL    HW141052   1.111   6.610  12.945
46385SOL    HW241053   1.166   6.711  12.847
46386SOL     OW41054   2.060   4.849   3.891
46386SOL    HW141055   2.000   4.866   3.819
46386SOL    HW241056   2.030   4.907   3.961
46387SOL     OW41057  13.225   0.504   9.868
46387SOL    HW141058  13.214   0.481   9.775
46387SOL    HW241059  13.235   0.599   9.868
46388SOL     OW41060   5.067   0.099  12.150
46388SOL    HW141061   5.158   0.126  12.156
46388SOL    HW241062   5.044   0.073  12.239
46389SOL     OW41063   5.940   4.132  12.373
46389SOL    HW141064   5.907   4.042  12.375
46389SOL    HW241065   6.028   4.126  12.411
46390SOL     OW41066   3.596  13.553   6.082
46390SOL    HW141067   3.653  13.544   6.005
46390SOL    HW241068   3.508  13.536   6.048
46391SOL     OW41069   6.436   8.714   7.838
46391SOL    HW141070   6.359   8.677   7.794
46391SOL    HW241071   6.447   8.661   7.916
46392SOL     OW41072   3.389  13.237  11.896
46392SOL    HW141073   3.465  13.187  11.927
46392SOL    HW241074   3.346  13.179  11.833
46393SOL     OW41075   0.667   2.912   4.378
46393SOL    HW141076   0.603   2.876   4.439
46393SOL    HW241077   0.750   2.908   4.425
46394SOL     OW41078   1.105   5.322  10.506
46394SOL    HW141079   1.052   5.401  10.513
46394SOL    HW241080   1.071   5.277  10.428
46395SOL     OW41081   4.756  11.103   2.673
46395SOL    HW141082   4.787  11.014   2.655
46395SOL    HW241083   4.818  11.159   2.626
46396SOL     OW41084   3.325  13.882  12.678
46396SOL    HW141085   3.366  13.798  12.655
46396SOL    HW241086   3.396  13.936  12.711
46397SOL     OW41087   9.659   6.302   1.778
46397SOL    HW141088   9.658   6.337   1.689
46397SOL    HW241089   9.580   6.247   1.783
46398SOL     OW41090   3.847   8.541   9.498
46398SOL    HW141091   3.762   8.519   9.459
46398SOL    HW241092   3.871   8.624   9.457
46399SOL     OW41093   4.505   6.697   8.134
46399SOL    HW141094   4.525   6.608   8.163
46399SOL    HW241095   4.492   6.688   8.039
46400SOL     OW41096   2.264   6.451   2.504
46400SOL    HW141097   2.295   6.360   2.497
46400SOL    HW241098   2.321   6.491   2.569
46401SOL     OW41099   0.935   8.883   6.048
46401SOL    HW141100   0.957   8.847   5.961
46401SOL    HW241101   0.863   8.828   6.078
46402SOL     OW41102   3.167   9.634   9.490
46402SOL    HW141103   3.220   9.651   9.412
46402SOL    HW241104   3.227   9.591   9.550
46403SOL     OW41105   5.827  14.345  10.257
46403SOL    HW141106   5.779  14.340  10.174
46403SOL    HW241107   5.911  14.383  10.234
46404SOL     OW41108  12.800  10.897   2.411
46404SOL    HW141109  12.814  10.987   2.438
46404SOL    HW241110  12.781  10.902   2.317
46405SOL     OW41111  11.730   4.014   9.534
46405SOL    HW141112  11.768   4.054   9.612
46405SOL    HW241113  11.667   3.950   9.568
46406SOL     OW41114   7.926  14.159  12.532
46406SOL    HW141115   7.975  14.229  12.575
46406SOL    HW241116   7.834  14.180  12.550
46407SOL     OW41117   7.499   6.031   7.271
46407SOL    HW141118   7.408   6.016   7.247
46407SOL    HW241119   7.497   6.110   7.326
46408SOL     OW41120   0.895   1.942  10.592
46408SOL    HW141121   0.901   1.947  10.687
46408SOL    HW241122   0.829   2.006  10.568
46409SOL     OW41123  14.483   6.039   8.442
46409SOL    HW141124  14.389   6.047   8.460
46409SOL    HW241125  14.510   6.127   8.418
46410SOL     OW41126   9.423   0.865   0.682
46410SOL    HW141127   9.380   0.783   0.708
46410SOL    HW241128   9.458   0.901   0.763
46411SOL     OW41129  11.386   5.088  13.513
46411SOL    HW141130  11.377   5.098  13.419
46411SOL    HW241131  11.425   5.001  13.525
46412SOL     OW41132   3.886  10.598   0.095
46412SOL    HW141133   3.800  10.608   0.137
46412SOL    HW241134   3.874  10.633   0.007
46413SOL     OW41135  11.254  14.660   9.270
46413SOL    HW141136  11.331  14.621   9.230
46413SOL    HW241137  11.252  14.623   9.359
46414SOL     OW41138   6.358   5.997   9.618
46414SOL    HW141139   6.291   6.031   9.559
46414SOL    HW241140   6.365   6.063   9.687
46415SOL     OW41141   4.359   9.110   9.789
46415SOL    HW141142   4.400   9.024   9.796
46415SOL    HW241143   4.431   9.171   9.773
46416SOL     OW41144  14.058   1.306   9.756
46416SOL    HW141145  13.987   1.243   9.766
46416SOL    HW241146  14.133   1.254   9.728
46417SOL     OW41147   4.022  12.874  11.211
46417SOL    HW141148   4.048  12.889  11.120
46417SOL    HW241149   4.078  12.934  11.261
46418SOL     OW41150   5.456   7.209   9.278
46418SOL    HW141151   5.503   7.130   9.249
46418SOL    HW241152   5.514   7.248   9.344
46419SOL     OW41153   8.304  13.908  10.583
46419SOL    HW141154   8.317  13.822  10.543
46419SOL    HW241155   8.317  13.892  10.676
46420SOL     OW41156   4.038  11.039  14.661
46420SOL    HW141157   4.036  11.092  14.741
46420SOL    HW241158   3.949  11.005  14.654
46421SOL     OW41159   9.791   6.280   5.122
46421SOL    HW141160   9.800   6.209   5.185
46421SOL    HW241161   9.781   6.237   5.037
46422SOL     OW41162   1.816   5.333  14.791
46422SOL    HW141163   1.809   5.249  14.836
46422SOL    HW241164   1.741   5.384  14.823
46423SOL     OW41165  11.731  12.811   5.595
46423SOL    HW141166  11.765  12.722   5.581
46423SOL    HW241167  11.798  12.868   5.557
46424SOL     OW41168   7.129   0.756   2.877
46424SOL    HW141169   7.171   0.696   2.815
46424SOL    HW241170   7.046   0.780   2.834
46425SOL     OW41171  12.606   1.815  13.181
46425SOL    HW141172  12.530   1.869  13.202
46425SOL    HW241173  12.627   1.837  13.090
46426SOL     OW41174  14.830   8.211  14.618
46426SOL    HW141175  14.771   8.262  14.563
46426SOL    HW241176  14.803   8.120  14.606
46427SOL     OW41177  14.694   4.050  12.131
46427SOL    HW141178  14.697   3.969  12.181
46427SOL    HW241179  14.780   4.056  12.090
46428SOL     OW41180  11.720   1.970  13.464
46428SOL    HW141181  11.641   2.021  13.445
46428SOL    HW241182  11.743   1.993  13.554
46429SOL     OW41183   2.674   4.509   4.790
46429SOL    HW141184   2.655   4.550   4.706
46429SOL    HW241185   2.769   4.505   4.795
46430SOL     OW41186  10.400   1.435   0.776
46430SOL    HW141187  10.448   1.387   0.709
46430SOL    HW241188  10.332   1.374   0.805
46431SOL     OW41189  11.005   3.041   5.149
46431SOL    HW141190  11.048   3.075   5.227
46431SOL    HW241191  10.976   2.953   5.175
46432SOL     OW41192  10.840   8.432   9.408
46432SOL    HW141193  10.859   8.339   9.417
46432SOL    HW241194  10.924   8.472   9.386
46433SOL     OW41195   9.867   6.781  12.447
46433SOL    HW141196   9.810   6.823  12.511
46433SOL    HW241197   9.918   6.719  12.498
46434SOL     OW41198   4.490  14.208   1.417
46434SOL    HW141199   4.435  14.130   1.427
46434SOL    HW241200   4.580  14.176   1.418
46435SOL     OW41201   4.133   8.557   7.894
46435SOL    HW141202   4.128   8.528   7.802
46435SOL    HW241203   4.189   8.492   7.936
46436SOL     OW41204   3.710   0.479   5.659
46436SOL    HW141205   3.668   0.416   5.601
46436SOL    HW241206   3.724   0.431   5.740
46437SOL     OW41207  14.213   1.911   9.357
46437SOL    HW141208  14.279   1.941   9.294
46437SOL    HW241209  14.191   1.990   9.407
46438SOL     OW41210  11.881   6.415   7.950
46438SOL    HW141211  11.787   6.422   7.933
46438SOL    HW241212  11.891   6.450   8.038
46439SOL     OW41213   1.664  13.420   5.920
46439SOL    HW141214   1.699  13.447   5.835
46439SOL    HW241215   1.658  13.502   5.970
46440SOL     OW41216   3.627  12.822  13.754
46440SOL    HW141217   3.665  12.805  13.668
46440SOL    HW241218   3.581  12.741  13.777
46441SOL     OW41219   2.965   1.196  10.929
46441SOL    HW141220   3.053   1.158  10.928
46441SOL    HW241221   2.964   1.251  11.007
46442SOL     OW41222  12.838   8.256  14.102
46442SOL    HW141223  12.836   8.333  14.045
46442SOL    HW241224  12.931   8.235  14.110
46443SOL     OW41225   5.848  10.823   9.027
46443SOL    HW141226   5.920  10.883   9.006
46443SOL    HW241227   5.859  10.750   8.967
46444SOL     OW41228   0.058   8.818   0.204
46444SOL    HW141229   0.147   8.852   0.193
46444SOL    HW241230   0.039   8.831   0.297
46445SOL     OW41231   2.958  10.551   2.553
46445SOL    HW141232   2.970  10.475   2.497
46445SOL    HW241233   2.930  10.515   2.637
46446SOL     OW41234   4.640   2.361   7.280
46446SOL    HW141235   4.687   2.286   7.242
46446SOL    HW241236   4.650   2.349   7.375
46447SOL     OW41237   4.067   8.679   1.726
46447SOL    HW141238   4.156   8.710   1.742
46447SOL    HW241239   4.075   8.585   1.716
46448SOL     OW41240  13.020  11.623   0.169
46448SOL    HW141241  13.083  11.552   0.158
46448SOL    HW241242  12.972  11.600   0.249
46449SOL     OW41243  12.149  10.887   7.043
46449SOL    HW141244  12.151  10.857   6.952
46449SOL    HW241245  12.057  10.877   7.070
46450SOL     OW41246  14.494   6.109  10.672
46450SOL    HW141247  14.407   6.098  10.710
46450SOL    HW241248  14.477   6.147  10.586
46451SOL     OW41249  10.225   1.507  10.257
46451SOL    HW141250  10.169   1.569  10.304
46451SOL    HW241251  10.295   1.487  10.319
46452SOL     OW41252  11.244   2.868  10.842
46452SOL    HW141253  11.293   2.892  10.921
46452SOL    HW241254  11.159   2.910  10.853
46453SOL     OW41255   0.691   1.671  11.791
46453SOL    HW141256   0.683   1.749  11.847
46453SOL    HW241257   0.745   1.700  11.718
46454SOL     OW41258   3.886   5.522   3.224
46454SOL    HW141259   3.923   5.582   3.160
46454SOL    HW241260   3.957   5.503   3.285
46455SOL     OW41261  13.619   0.791   6.476
46455SOL    HW141262  13.653   0.881   6.469
46455SOL    HW241263  13.652   0.747   6.398
46456SOL     OW41264   1.463  10.126   4.350
46456SOL    HW141265   1.540  10.102   4.402
46456SOL    HW241266   1.432  10.044   4.314
46457SOL     OW41267  12.504   9.707  12.443
46457SOL    HW141268  12.492   9.613  12.453
46457SOL    HW241269  12.431   9.745  12.492
46458SOL     OW41270   6.376   1.783   4.359
46458SOL    HW141271   6.416   1.791   4.446
46458SOL    HW241272   6.283   1.795   4.374
46459SOL     OW41273  12.258  13.038   7.189
46459SOL    HW141274  12.199  13.036   7.264
46459SOL    HW241275  12.228  12.967   7.133
46460SOL     OW41276   9.970   3.085  13.542
46460SOL    HW141277   9.899   3.033  13.580
46460SOL    HW241278   9.939   3.175  13.547
46461SOL     OW41279   8.445  11.375   7.302
46461SOL    HW141280   8.392  11.341   7.230
46461SOL    HW241281   8.413  11.329   7.380
46462SOL     OW41282  10.356  13.473  10.969
46462SOL    HW141283  10.314  13.549  10.929
46462SOL    HW241284  10.286  13.407  10.974
46463SOL     OW41285   9.246   2.522   7.175
46463SOL    HW141286   9.246   2.616   7.194
46463SOL    HW241287   9.159   2.492   7.200
46464SOL     OW41288   7.459  10.180   6.380
46464SOL    HW141289   7.380  10.127   6.371
46464SOL    HW241290   7.521  10.123   6.425
46465SOL     OW41291   7.586  12.561   6.468
46465SOL    HW141292   7.568  12.595   6.381
46465SOL    HW241293   7.660  12.501   6.456
46466SOL     OW41294   2.370   8.624   6.565
46466SOL    HW141295   2.435   8.694   6.553
46466SOL    HW241296   2.347   8.627   6.657
46467SOL     OW41297   6.677   8.199   3.150
46467SOL    HW141298   6.605   8.167   3.097
46467SOL    HW241299   6.749   8.212   3.089
46468SOL     OW41300  13.564  13.054   8.858
46468SOL    HW141301  13.495  13.007   8.904
46468SOL    HW241302  13.523  13.086   8.777
46469SOL     OW41303   5.801   7.319   0.768
46469SOL    HW141304   5.795   7.236   0.815
46469SOL    HW241305   5.713   7.334   0.734
46470SOL     OW41306   7.177   3.290   0.074
46470SOL    HW141307   7.209   3.312  14.868
46470SOL    HW241308   7.223   3.209   0.095
46471SOL     OW41309   8.798   2.801   7.269
46471SOL    HW141310   8.847   2.881   7.286
46471SOL    HW241311   8.762   2.813   7.181
46472SOL     OW41312   6.743   8.670  11.983
46472SOL    HW141313   6.672   8.616  11.950
46472SOL    HW241314   6.816   8.609  11.995
46473SOL     OW41315   2.989  13.846  13.111
46473SOL    HW141316   2.999  13.751  13.114
46473SOL    HW241317   3.075  13.878  13.081
46474SOL     OW41318   9.861   8.212   1.340
46474SOL    HW141319   9.879   8.232   1.248
46474SOL    HW241320   9.918   8.271   1.390
46475SOL     OW41321   4.161  10.379   4.218
46475SOL    HW141322   4.067  10.382   4.202
46475SOL    HW241323   4.191  10.470   4.207
46476SOL     OW41324  14.295  13.038   6.549
46476SOL    HW141325  14.363  13.063   6.487
46476SOL    HW241326  14.280  12.945   6.533
46477SOL     OW41327   4.707   6.716  13.328
46477SOL    HW141328   4.796   6.734  13.361
46477SOL    HW241329   4.710   6.625  13.300
46478SOL     OW41330  10.166  12.597   2.803
46478SOL    HW141331  10.210  12.562   2.725
46478SOL    HW241332  10.092  12.647   2.769
46479SOL     OW41333  10.128   4.341  11.707
46479SOL    HW141334  10.081   4.403  11.651
46479SOL    HW241335  10.218   4.342  11.674
46480SOL     OW41336  12.526  12.382   9.032
46480SOL    HW141337  12.595  12.351   9.090
46480SOL    HW241338  12.529  12.477   9.038
46481SOL     OW41339  12.806   9.586   5.012
46481SOL    HW141340  12.758   9.613   5.090
46481SOL    HW241341  12.888   9.551   5.046
46482SOL     OW41342  10.713  10.548   8.698
46482SOL    HW141343  10.735  10.590   8.781
46482SOL    HW241344  10.726  10.616   8.632
46483SOL     OW41345   0.102   1.341   2.654
46483SOL    HW141346   0.175   1.314   2.598
46483SOL    HW241347   0.026   1.298   2.616
46484SOL     OW41348   7.561   6.957   9.708
46484SOL    HW141349   7.603   6.969   9.793
46484SOL    HW241350   7.481   6.909   9.727
46485SOL     OW41351  13.599  12.664   1.183
46485SOL    HW141352  13.539  12.718   1.132
46485SOL    HW241353  13.653  12.727   1.231
46486SOL     OW41354   7.256   6.825   7.792
46486SOL    HW141355   7.209   6.826   7.876
46486SOL    HW241356   7.280   6.916   7.777
46487SOL     OW41357   4.450   2.831   8.998
46487SOL    HW141358   4.443   2.736   8.993
46487SOL    HW241359   4.499   2.856   8.920
46488SOL     OW41360   3.459  12.908   0.416
46488SOL    HW141361   3.420  12.980   0.366
46488SOL    HW241362   3.515  12.863   0.353
46489SOL     OW41363   6.234   7.279   4.398
46489SOL    HW141364   6.156   7.298   4.345
46489SOL    HW241365   6.305   7.273   4.334
46490SOL     OW41366   3.748  12.298   4.693
46490SOL    HW141367   3.758  12.279   4.600
46490SOL    HW241368   3.794  12.381   4.706
46491SOL     OW41369  14.122   1.582  10.572
46491SOL    HW141370  14.101   1.552  10.484
46491SOL    HW241371  14.078   1.520  10.630
46492SOL     OW41372  12.589  12.761   9.815
46492SOL    HW141373  12.536  12.689   9.848
46492SOL    HW241374  12.661  12.719   9.768
46493SOL     OW41375   6.255   9.050   2.048
46493SOL    HW141376   6.337   9.023   2.008
46493SOL    HW241377   6.241   9.139   2.016
46494SOL     OW41378  12.204   8.169   0.400
46494SOL    HW141379  12.271   8.237   0.401
46494SOL    HW241380  12.161   8.177   0.485
46495SOL     OW41381   1.480   5.059   7.132
46495SOL    HW141382   1.525   5.143   7.134
46495SOL    HW241383   1.412   5.070   7.066
46496SOL     OW41384   3.034   8.824   9.747
46496SOL    HW141385   2.977   8.879   9.693
46496SOL    HW241386   3.120   8.831   9.706
46497SOL     OW41387  11.542   7.479  10.627
46497SOL    HW141388  11.474   7.529  10.581
46497SOL    HW241389  11.589   7.434  10.557
46498SOL     OW41390   7.806   1.784   6.814
46498SOL    HW141391   7.801   1.771   6.909
46498SOL    HW241392   7.900   1.779   6.794
46499SOL     OW41393   7.886  10.486  10.402
46499SOL    HW141394   7.907  10.497  10.310
46499SOL    HW241395   7.802  10.531  10.413
46500SOL     OW41396  12.273   7.634   0.163
46500SOL    HW141397  12.214   7.562   0.184
46500SOL    HW241398  12.217   7.699   0.121
46501SOL     OW41399  13.329   8.741   0.287
46501SOL    HW141400  13.366   8.814   0.237
46501SOL    HW241401  13.300   8.780   0.369
46502SOL     OW41402   6.144   4.016  13.321
46502SOL    HW141403   6.226   3.990  13.278
46502SOL    HW241404   6.153   4.110  13.336
46503SOL     OW41405   0.563   4.639  14.594
46503SOL    HW141406   0.596   4.550  14.607
46503SOL    HW241407   0.472   4.627  14.566
46504SOL     OW41408  11.778   8.148   1.445
46504SOL    HW141409  11.729   8.138   1.364
46504SOL    HW241410  11.710   8.150   1.513
46505SOL     OW41411   5.520  14.249   1.149
46505SOL    HW141412   5.493  14.229   1.059
46505SOL    HW241413   5.456  14.313   1.179
46506SOL     OW41414   4.051   6.568   9.868
46506SOL    HW141415   4.098   6.636   9.917
46506SOL    HW241416   4.102   6.556   9.789
46507SOL     OW41417  13.621  10.719   9.688
46507SOL    HW141418  13.614  10.635   9.644
46507SOL    HW241419  13.714  10.730   9.705
46508SOL     OW41420  10.004  10.821  12.303
46508SOL    HW141421  10.096  10.807  12.280
46508SOL    HW241422   9.959  10.744  12.268
46509SOL     OW41423   6.572  14.463  14.814
46509SOL    HW141424   6.546  14.387  14.762
46509SOL    HW241425   6.602  14.528  14.750
46510SOL     OW41426   9.844   8.134  11.874
46510SOL    HW141427   9.780   8.107  11.940
46510SOL    HW241428   9.861   8.226  11.894
46511SOL     OW41429  10.108   8.057   7.703
46511SOL    HW141430  10.039   8.029   7.763
46511SOL    HW241431  10.184   8.004   7.726
46512SOL     OW41432  10.170  12.517  10.727
46512SOL    HW141433  10.253  12.475  10.750
46512SOL    HW241434  10.105  12.476  10.783
46513SOL     OW41435   1.179   7.518  11.218
46513SOL    HW141436   1.171   7.577  11.143
46513SOL    HW241437   1.125   7.559  11.286
46514SOL     OW41438  12.191   8.628   6.924
46514SOL    HW141439  12.131   8.701   6.935
46514SOL    HW241440  12.134   8.551   6.920
46515SOL     OW41441   3.770   6.726  11.086
46515SOL    HW141442   3.733   6.796  11.140
46515SOL    HW241443   3.860   6.753  11.070
46516SOL     OW41444   0.460   4.996   1.309
46516SOL    HW141445   0.535   4.968   1.257
46516SOL    HW241446   0.384   4.970   1.257
46517SOL     OW41447   9.980  12.405   2.908
46517SOL    HW141448  10.033  12.340   2.953
46517SOL    HW241449  10.042  12.473   2.881
46518SOL     OW41450   8.031   9.599   7.356
46518SOL    HW141451   7.997   9.681   7.392
46518SOL    HW241452   8.125   9.615   7.345
46519SOL     OW41453   4.579   2.661   0.782
46519SOL    HW141454   4.488   2.672   0.806
46519SOL    HW241455   4.591   2.566   0.776
46520SOL     OW41456   7.070   9.594   3.823
46520SOL    HW141457   6.975   9.589   3.809
46520SOL    HW241458   7.108   9.568   3.739
46521SOL     OW41459  13.180  11.502   3.541
46521SOL    HW141460  13.088  11.497   3.567
46521SOL    HW241461  13.187  11.442   3.467
46522SOL     OW41462   1.953  10.744   2.242
46522SOL    HW141463   1.951  10.730   2.148
46522SOL    HW241464   1.876  10.697   2.275
46523SOL     OW41465   7.619  14.551   3.292
46523SOL    HW141466   7.529  14.567   3.321
46523SOL    HW241467   7.618  14.461   3.260
46524SOL     OW41468   4.120  14.674  12.609
46524SOL    HW141469   4.035  14.635  12.630
46524SOL    HW241470   4.134  14.652  12.517
46525SOL     OW41471   0.186   3.795   1.123
46525SOL    HW141472   0.106   3.828   1.082
46525SOL    HW241473   0.219   3.869   1.174
46526SOL     OW41474   6.135   5.848  10.521
46526SOL    HW141475   6.214   5.876  10.476
46526SOL    HW241476   6.085   5.799  10.455
46527SOL     OW41477   8.626   8.741  11.260
46527SOL    HW141478   8.642   8.688  11.182
46527SOL    HW241479   8.684   8.704  11.327
46528SOL     OW41480  11.106   8.250   5.786
46528SOL    HW141481  11.053   8.179   5.822
46528SOL    HW241482  11.187   8.208   5.758
46529SOL     OW41483  10.950  10.134   0.501
46529SOL    HW141484  10.860  10.162   0.482
46529SOL    HW241485  10.977  10.087   0.421
46530SOL     OW41486   8.151   8.032   7.937
46530SOL    HW141487   8.153   7.952   7.884
46530SOL    HW241488   8.060   8.060   7.933
46531SOL     OW41489   4.661   8.018   0.897
46531SOL    HW141490   4.570   8.014   0.868
46531SOL    HW241491   4.684   8.111   0.893
46532SOL     OW41492  14.617   2.178   2.661
46532SOL    HW141493  14.651   2.118   2.727
46532SOL    HW241494  14.593   2.257   2.710
46533SOL     OW41495   3.536   6.098   4.871
46533SOL    HW141496   3.491   6.016   4.895
46533SOL    HW241497   3.626   6.071   4.854
46534SOL     OW41498  10.157   7.799   5.748
46534SOL    HW141499  10.122   7.755   5.670
46534SOL    HW241500  10.107   7.880   5.754
46535SOL     OW41501   1.812   1.641   5.176
46535SOL    HW141502   1.741   1.617   5.117
46535SOL    HW241503   1.875   1.569   5.167
46536SOL     OW41504  13.110  14.159   0.997
46536SOL    HW141505  13.023  14.197   0.987
46536SOL    HW241506  13.167  14.234   1.017
46537SOL     OW41507   5.332   3.382   8.299
46537SOL    HW141508   5.341   3.287   8.307
46537SOL    HW241509   5.417   3.416   8.325
46538SOL     OW41510   9.786   3.246   4.198
46538SOL    HW141511   9.733   3.285   4.268
46538SOL    HW241512   9.729   3.179   4.160
46539SOL     OW41513   0.190   3.496   7.439
46539SOL    HW141514   0.231   3.582   7.441
46539SOL    HW241515   0.234   3.450   7.367
46540SOL     OW41516  11.178  13.721  14.090
46540SOL    HW141517  11.109  13.743  14.027
46540SOL    HW241518  11.258  13.717  14.036
46541SOL     OW41519  14.854   3.516   4.364
46541SOL    HW141520  14.826   3.606   4.346
46541SOL    HW241521   0.065   3.524   4.385
46542SOL     OW41522   7.821   9.685   4.487
46542SOL    HW141523   7.816   9.663   4.394
46542SOL    HW241524   7.802   9.779   4.490
46543SOL     OW41525  12.481   6.194   1.196
46543SOL    HW141526  12.444   6.206   1.108
46543SOL    HW241527  12.438   6.116   1.229
46544SOL     OW41528  11.065   5.126  13.351
46544SOL    HW141529  11.127   5.197  13.340
46544SOL    HW241530  11.090   5.085  13.434
46545SOL     OW41531   7.323   5.627   7.649
46545SOL    HW141532   7.244   5.574   7.658
46545SOL    HW241533   7.290   5.715   7.630
46546SOL     OW41534  13.492   5.168   5.646
46546SOL    HW141535  13.403   5.175   5.680
46546SOL    HW241536  13.523   5.083   5.677
46547SOL     OW41537  11.867   9.302  13.034
46547SOL    HW141538  11.862   9.236  13.103
46547SOL    HW241539  11.862   9.252  12.952
46548SOL     OW41540   8.961  12.503   1.987
46548SOL    HW141541   8.999  12.507   1.899
46548SOL    HW241542   8.920  12.589   1.999
46549SOL     OW41543  11.035  14.198  11.373
46549SOL    HW141544  10.987  14.279  11.354
46549SOL    HW241545  10.966  14.134  11.390
46550SOL     OW41546   0.584   6.044  10.395
46550SOL    HW141547   0.678   6.061  10.394
46550SOL    HW241548   0.575   5.961  10.442
46551SOL     OW41549   8.801  14.505  11.973
46551SOL    HW141550   8.783  14.413  11.994
46551SOL    HW241551   8.896  14.510  11.966
46552SOL     OW41552  12.605   2.491  11.311
46552SOL    HW141553  12.565   2.543  11.381
46552SOL    HW241554  12.537   2.430  11.283
46553SOL     OW41555   0.530   6.959  13.881
46553SOL    HW141556   0.548   7.025  13.948
46553SOL    HW241557   0.457   6.995  13.831
46554SOL     OW41558   4.075   5.936   7.033
46554SOL    HW141559   4.099   5.844   7.025
46554SOL    HW241560   4.135   5.970   7.100
46555SOL     OW41561  13.225   1.441   9.006
46555SOL    HW141562  13.301   1.387   8.987
46555SOL    HW241563  13.258   1.508   9.067
46556SOL     OW41564  13.188   2.418   7.100
46556SOL    HW141565  13.130   2.469   7.043
46556SOL    HW241566  13.207   2.339   7.050
46557SOL     OW41567   4.560   5.339   6.948
46557SOL    HW141568   4.569   5.258   6.897
46557SOL    HW241569   4.627   5.333   7.016
46558SOL     OW41570  11.341   6.197   1.493
46558SOL    HW141571  11.390   6.192   1.411
46558SOL    HW241572  11.263   6.247   1.472
46559SOL     OW41573  10.918  14.127  13.489
46559SOL    HW141574  10.860  14.139  13.414
46559SOL    HW241575  10.865  14.082  13.554
46560SOL     OW41576   3.545   0.906   2.753
46560SOL    HW141577   3.596   0.896   2.834
46560SOL    HW241578   3.490   0.983   2.769
46561SOL     OW41579  10.578   5.880   5.610
46561SOL    HW141580  10.516   5.861   5.680
46561SOL    HW241581  10.559   5.970   5.584
46562SOL     OW41582  12.137   7.574   7.909
46562SOL    HW141583  12.050   7.534   7.911
46562SOL    HW241584  12.122   7.663   7.877
46563SOL     OW41585  14.694  12.561  13.527
46563SOL    HW141586  14.751  12.498  13.572
46563SOL    HW241587  14.745  12.641  13.523
46564SOL     OW41588  11.055  10.655  11.703
46564SOL    HW141589  10.982  10.629  11.647
46564SOL    HW241590  11.092  10.733  11.661
46565SOL     OW41591   6.908  10.499   6.677
46565SOL    HW141592   6.841  10.521   6.743
46565SOL    HW241593   6.969  10.441   6.723
46566SOL     OW41594  10.652   2.806  13.548
46566SOL    HW141595  10.642   2.889  13.594
46566SOL    HW241596  10.695   2.748  13.612
46567SOL     OW41597   0.028   8.355   7.536
46567SOL    HW141598   0.068   8.268   7.535
46567SOL    HW241599   0.080   8.406   7.598
46568SOL     OW41600   3.267  10.026   6.268
46568SOL    HW141601   3.311  10.107   6.242
46568SOL    HW241602   3.330   9.957   6.245
46569SOL     OW41603  13.593  10.451   8.783
46569SOL    HW141604  13.534  10.376   8.773
46569SOL    HW241605  13.536  10.528   8.777
46570SOL     OW41606  14.313   5.822   6.175
46570SOL    HW141607  14.304   5.753   6.240
46570SOL    HW241608  14.225   5.831   6.137
46571SOL     OW41609   4.131   3.542  12.444
46571SOL    HW141610   4.174   3.497  12.518
46571SOL    HW241611   4.202   3.590  12.401
46572SOL     OW41612  11.884   1.534   6.382
46572SOL    HW141613  11.805   1.576   6.416
46572SOL    HW241614  11.928   1.500   6.459
46573SOL     OW41615   4.314  13.584  10.722
46573SOL    HW141616   4.302  13.617  10.811
46573SOL    HW241617   4.306  13.489  10.729
46574SOL     OW41618   6.912   0.454   3.326
46574SOL    HW141619   6.926   0.545   3.300
46574SOL    HW241620   6.856   0.417   3.257
46575SOL     OW41621   4.038  13.745   3.954
46575SOL    HW141622   3.957  13.790   3.981
46575SOL    HW241623   4.008  13.677   3.894
46576SOL     OW41624   7.826   1.917  10.858
46576SOL    HW141625   7.844   1.931  10.951
46576SOL    HW241626   7.816   1.822  10.849
46577SOL     OW41627   7.260   5.161   1.104
46577SOL    HW141628   7.242   5.162   1.198
46577SOL    HW241629   7.189   5.109   1.067
46578SOL     OW41630  12.457   8.524  13.177
46578SOL    HW141631  12.533   8.531  13.234
46578SOL    HW241632  12.462   8.436  13.141
46579SOL     OW41633   5.552   7.459   4.560
46579SOL    HW141634   5.582   7.489   4.474
46579SOL    HW241635   5.509   7.375   4.542
46580SOL     OW41636   5.195   0.183   8.921
46580SOL    HW141637   5.227   0.271   8.942
46580SOL    HW241638   5.266   0.125   8.948
46581SOL     OW41639  12.526  14.126   6.116
46581SOL    HW141640  12.497  14.181   6.189
46581SOL    HW241641  12.496  14.172   6.038
46582SOL     OW41642   3.610   7.292  11.268
46582SOL    HW141643   3.599   7.213  11.216
46582SOL    HW241644   3.621   7.261  11.358
46583SOL     OW41645  12.014   7.828   7.329
46583SOL    HW141646  12.096   7.801   7.373
46583SOL    HW241647  11.975   7.891   7.389
46584SOL     OW41648  12.325   0.714  14.522
46584SOL    HW141649  12.347   0.625  14.546
46584SOL    HW241650  12.273   0.705  14.441
46585SOL     OW41651   0.693  11.094  14.148
46585SOL    HW141652   0.622  11.114  14.087
46585SOL    HW241653   0.771  11.130  14.106
46586SOL     OW41654   5.323   8.373   9.328
46586SOL    HW141655   5.410   8.373   9.368
46586SOL    HW241656   5.297   8.280   9.328
46587SOL     OW41657   0.730  12.648   5.726
46587SOL    HW141658   0.808  12.704   5.724
46587SOL    HW241659   0.663  12.702   5.770
46588SOL     OW41660   2.210   3.274   0.837
46588SOL    HW141661   2.202   3.365   0.808
46588SOL    HW241662   2.157   3.224   0.775
46589SOL     OW41663   9.660   1.718   1.029
46589SOL    HW141664   9.608   1.646   0.992
46589SOL    HW241665   9.704   1.679   1.105
46590SOL     OW41666  10.827   0.062   4.334
46590SOL    HW141667  10.905   0.117   4.344
46590SOL    HW241668  10.817   0.050   4.240
46591SOL     OW41669   4.948  12.150   0.447
46591SOL    HW141670   4.984  12.101   0.521
46591SOL    HW241671   5.018  12.149   0.382
46592SOL     OW41672  13.721  14.030   7.294
46592SOL    HW141673  13.780  14.055   7.365
46592SOL    HW241674  13.677  14.111   7.271
46593SOL     OW41675  12.175   9.440  11.194
46593SOL    HW141676  12.089   9.431  11.151
46593SOL    HW241677  12.224   9.363  11.166
46594SOL     OW41678   7.624  10.105   1.326
46594SOL    HW141679   7.600  10.093   1.418
46594SOL    HW241680   7.659  10.020   1.299
46595SOL     OW41681   8.100   6.629   0.496
46595SOL    HW141682   8.102   6.713   0.541
46595SOL    HW241683   8.088   6.565   0.566
46596SOL     OW41684   0.225   3.143  11.307
46596SOL    HW141685   0.307   3.189  11.323
46596SOL    HW241686   0.203   3.103  11.391
46597SOL     OW41687   7.229  13.494   8.812
46597SOL    HW141688   7.152  13.528   8.859
46597SOL    HW241689   7.303  13.537   8.855
46598SOL     OW41690   7.671   3.179   5.793
46598SOL    HW141691   7.735   3.216   5.854
46598SOL    HW241692   7.594   3.163   5.847
46599SOL     OW41693   6.232   1.765  11.693
46599SOL    HW141694   6.185   1.839  11.731
46599SOL    HW241695   6.181   1.688  11.719
46600SOL     OW41696  14.210  14.746   4.649
46600SOL    HW141697  14.300  14.725   4.623
46600SOL    HW241698  14.206  14.723   4.742
46601SOL     OW41699  12.620   9.958   6.546
46601SOL    HW141700  12.561   9.929   6.476
46601SOL    HW241701  12.645   9.877   6.590
46602SOL     OW41702  14.787  13.149  13.871
46602SOL    HW141703  14.865  13.163  13.925
46602SOL    HW241704  14.766  13.056  13.882
46603SOL     OW41705   4.722   9.596  12.288
46603SOL    HW141706   4.777   9.592  12.366
46603SOL    HW241707   4.738   9.513  12.243
46604SOL     OW41708   0.436   2.126   1.173
46604SOL    HW141709   0.482   2.072   1.238
46604SOL    HW241710   0.474   2.213   1.183
46605SOL     OW41711   7.773  14.009   1.908
46605SOL    HW141712   7.852  13.970   1.872
46605SOL    HW241713   7.706  13.942   1.899
46606SOL     OW41714   8.784   8.156  14.087
46606SOL    HW141715   8.774   8.235  14.139
46606SOL    HW241716   8.703   8.107  14.101
46607SOL     OW41717   0.768   0.337   3.025
46607SOL    HW141718   0.741   0.270   2.962
46607SOL    HW241719   0.726   0.417   2.993
46608SOL     OW41720   6.021   3.901   5.825
46608SOL    HW141721   6.087   3.857   5.772
46608SOL    HW241722   6.009   3.844   5.901
46609SOL     OW41723   8.112  14.194  12.320
46609SOL    HW141724   8.076  14.273  12.279
46609SOL    HW241725   8.056  14.181  12.397
46610SOL     OW41726  14.803  10.500  12.372
46610SOL    HW141727  14.737  10.543  12.426
46610SOL    HW241728  14.788  10.406  12.386
46611SOL     OW41729  13.443  13.422  12.299
46611SOL    HW141730  13.374  13.406  12.235
46611SOL    HW241731  13.519  13.447  12.247
46612SOL     OW41732   8.253   3.405  11.198
46612SOL    HW141733   8.160   3.391  11.216
46612SOL    HW241734   8.282   3.465  11.267
46613SOL     OW41735   5.766  13.008   3.547
46613SOL    HW141736   5.851  13.051   3.532
46613SOL    HW241737   5.764  12.992   3.641
46614SOL     OW41738   1.937   2.550   9.669
46614SOL    HW141739   1.850   2.576   9.639
46614SOL    HW241740   1.927   2.459   9.697
46615SOL     OW41741   0.319   0.210   5.054
46615SOL    HW141742   0.363   0.276   5.107
46615SOL    HW241743   0.238   0.252   5.026
46616SOL     OW41744   5.468   5.351  13.299
46616SOL    HW141745   5.479   5.260  13.327
46616SOL    HW241746   5.418   5.392  13.370
46617SOL     OW41747   5.845  12.877   4.350
46617SOL    HW141748   5.848  12.961   4.397
46617SOL    HW241749   5.778  12.827   4.397
46618SOL     OW41750  12.794   5.992   1.144
46618SOL    HW141751  12.743   6.053   1.196
46618SOL    HW241752  12.815   6.041   1.064
46619SOL     OW41753   9.719  12.153  12.032
46619SOL    HW141754   9.701  12.084  12.095
46619SOL    HW241755   9.811  12.176  12.046
46620SOL     OW41756  12.810  13.130   7.393
46620SOL    HW141757  12.753  13.066   7.436
46620SOL    HW241758  12.850  13.179   7.464
46621SOL     OW41759   3.702   4.073   2.685
46621SOL    HW141760   3.794   4.051   2.703
46621SOL    HW241761   3.655   3.991   2.699
46622SOL     OW41762   7.360   0.852   8.781
46622SOL    HW141763   7.432   0.811   8.733
46622SOL    HW241764   7.379   0.833   8.873
46623SOL     OW41765  11.925   6.649   1.289
46623SOL    HW141766  12.010   6.643   1.331
46623SOL    HW241767  11.938   6.610   1.203
46624SOL     OW41768   2.162   6.856   8.925
46624SOL    HW141769   2.076   6.890   8.951
46624SOL    HW241770   2.142   6.788   8.861
46625SOL     OW41771   8.437  14.558   8.790
46625SOL    HW141772   8.346  14.566   8.820
46625SOL    HW241773   8.430  14.527   8.700
46626SOL     OW41774  14.816  12.240   9.060
46626SOL    HW141775  14.804  12.209   8.970
46626SOL    HW241776   0.026  12.264   9.064
46627SOL     OW41777   9.560   4.917   9.803
46627SOL    HW141778   9.493   4.850   9.818
46627SOL    HW241779   9.529   4.964   9.726
46628SOL     OW41780   3.480   2.284  12.103
46628SOL    HW141781   3.471   2.334  12.022
46628SOL    HW241782   3.553   2.326  12.149
46629SOL     OW41783  14.274  13.281   7.564
46629SOL    HW141784  14.211  13.286   7.492
46629SOL    HW241785  14.276  13.370   7.600
46630SOL     OW41786   2.613   9.330   9.224
46630SOL    HW141787   2.527   9.304   9.190
46630SOL    HW241788   2.618   9.288   9.310
46631SOL     OW41789   0.976  10.993   3.081
46631SOL    HW141790   0.920  11.070   3.072
46631SOL    HW241791   0.961  10.961   3.170
46632SOL     OW41792  11.583  10.252  11.898
46632SOL    HW141793  11.632  10.252  11.815
46632SOL    HW241794  11.542  10.165  11.901
46633SOL     OW41795   7.803   2.933   6.346
46633SOL    HW141796   7.832   3.024   6.345
46633SOL    HW241797   7.828   2.901   6.433
46634SOL     OW41798  13.836   6.798   8.303
46634SOL    HW141799  13.850   6.749   8.222
46634SOL    HW241800  13.918   6.846   8.317
46635SOL     OW41801   3.046   9.826   0.505
46635SOL    HW141802   3.003   9.822   0.590
46635SOL    HW241803   3.133   9.788   0.520
46636SOL     OW41804   0.095  13.327   9.482
46636SOL    HW141805   0.044  13.379   9.544
46636SOL    HW241806   0.062  13.354   9.396
46637SOL     OW41807   9.141  13.902  14.313
46637SOL    HW141808   9.187  13.969  14.262
46637SOL    HW241809   9.150  13.929  14.404
46638SOL     OW41810  11.231   9.296   9.388
46638SOL    HW141811  11.256   9.388   9.385
46638SOL    HW241812  11.151   9.291   9.336
46639SOL     OW41813   3.064   3.804   7.571
46639SOL    HW141814   3.084   3.711   7.568
46639SOL    HW241815   3.130   3.845   7.515
46640SOL     OW41816   1.984   2.796   7.305
46640SOL    HW141817   2.067   2.785   7.349
46640SOL    HW241818   1.918   2.774   7.371
46641SOL     OW41819  14.364  13.405   8.558
46641SOL    HW141820  14.408  13.357   8.489
46641SOL    HW241821  14.357  13.342   8.630
46642SOL     OW41822   6.117   1.532  10.240
46642SOL    HW141823   6.157   1.581  10.169
46642SOL    HW241824   6.056   1.473  10.198
46643SOL     OW41825   3.146   7.693   4.467
46643SOL    HW141826   3.221   7.634   4.460
46643SOL    HW241827   3.073   7.645   4.430
46644SOL     OW41828  13.441  10.729   5.644
46644SOL    HW141829  13.521  10.712   5.692
46644SOL    HW241830  13.374  10.678   5.690
46645SOL     OW41831   6.384   6.674   5.386
46645SOL    HW141832   6.289   6.668   5.396
46645SOL    HW241833   6.401   6.767   5.372
46646SOL     OW41834   4.297  13.897   0.880
46646SOL    HW141835   4.238  13.895   0.805
46646SOL    HW241836   4.291  13.810   0.918
46647SOL     OW41837   0.234   4.426   4.609
46647SOL    HW141838   0.224   4.361   4.679
46647SOL    HW241839   0.203   4.381   4.530
46648SOL     OW41840   2.536   4.064  11.443
46648SOL    HW141841   2.481   4.142  11.435
46648SOL    HW241842   2.490   3.998  11.391
46649SOL     OW41843  14.846  13.901   1.372
46649SOL    HW141844  14.781  13.861   1.315
46649SOL    HW241845   0.034  13.836   1.379
46650SOL     OW41846   5.444  12.322  12.531
46650SOL    HW141847   5.492  12.241  12.547
46650SOL    HW241848   5.449  12.334  12.436
46651SOL     OW41849   0.871   8.621   9.741
46651SOL    HW141850   0.871   8.608   9.646
46651SOL    HW241851   0.798   8.680   9.757
46652SOL     OW41852   0.675   1.289   9.232
46652SOL    HW141853   0.648   1.198   9.220
46652SOL    HW241854   0.770   1.286   9.225
46653SOL     OW41855   0.744   5.904  14.786
46653SOL    HW141856   0.651   5.917  14.768
46653SOL    HW241857   0.754   5.809  14.792
46654SOL     OW41858  14.170   4.473   3.415
46654SOL    HW141859  14.223   4.433   3.346
46654SOL    HW241860  14.084   4.431   3.406
46655SOL     OW41861  13.619   2.623   7.655
46655SOL    HW141862  13.713   2.608   7.657
46655SOL    HW241863  13.595   2.640   7.746
46656SOL     OW41864  10.662  13.659   5.545
46656SOL    HW141865  10.707  13.732   5.502
46656SOL    HW241866  10.621  13.611   5.473
46657SOL     OW41867   6.929   9.166   9.333
46657SOL    HW141868   6.959   9.229   9.399
46657SOL    HW241869   6.910   9.219   9.256
46658SOL     OW41870   8.360   2.604   1.298
46658SOL    HW141871   8.400   2.517   1.295
46658SOL    HW241872   8.411   2.652   1.363
46659SOL     OW41873   0.259   8.189   7.001
46659SOL    HW141874   0.276   8.220   6.911
46659SOL    HW241875   0.345   8.162   7.033
46660SOL     OW41876   1.339   1.974   2.061
46660SOL    HW141877   1.290   1.896   2.037
46660SOL    HW241878   1.427   1.943   2.082
46661SOL     OW41879   8.981  12.340   1.230
46661SOL    HW141880   8.982  12.284   1.152
46661SOL    HW241881   9.069  12.377   1.234
46662SOL     OW41882   3.151   7.953   4.523
46662SOL    HW141883   3.067   7.968   4.566
46662SOL    HW241884   3.154   7.859   4.508
46663SOL     OW41885  12.222   4.159  12.293
46663SOL    HW141886  12.205   4.126  12.204
46663SOL    HW241887  12.222   4.081  12.348
46664SOL     OW41888  13.332  12.891   2.948
46664SOL    HW141889  13.302  12.815   2.898
46664SOL    HW241890  13.411  12.860   2.993
46665SOL     OW41891   0.883   7.768   6.045
46665SOL    HW141892   0.832   7.687   6.040
46665SOL    HW241893   0.964   7.749   5.997
46666SOL     OW41894   2.007   8.340  11.238
46666SOL    HW141895   2.002   8.279  11.164
46666SOL    HW241896   1.951   8.300  11.305
46667SOL     OW41897  14.476  11.716   4.637
46667SOL    HW141898  14.551  11.657   4.627
46667SOL    HW241899  14.434  11.688   4.718
46668SOL     OW41900  14.196   6.581   2.695
46668SOL    HW141901  14.169   6.673   2.696
46668SOL    HW241902  14.134   6.539   2.636
46669SOL     OW41903   1.389   2.128   7.619
46669SOL    HW141904   1.410   2.141   7.712
46669SOL    HW241905   1.397   2.034   7.606
46670SOL     OW41906   3.057  13.260   9.843
46670SOL    HW141907   2.993  13.259   9.914
46670SOL    HW241908   3.021  13.324   9.780
46671SOL     OW41909  11.149   3.932   5.342
46671SOL    HW141910  11.138   3.840   5.317
46671SOL    HW241911  11.180   3.929   5.432
46672SOL     OW41912  11.226  11.225   2.163
46672SOL    HW141913  11.132  11.218   2.175
46672SOL    HW241914  11.247  11.161   2.096
46673SOL     OW41915   0.501   3.784   8.277
46673SOL    HW141916   0.464   3.863   8.319
46673SOL    HW241917   0.590   3.779   8.311
46674SOL     OW41918   3.888   0.845  10.880
46674SOL    HW141919   3.960   0.859  10.818
46674SOL    HW241920   3.894   0.752  10.903
46675SOL     OW41921  11.677   8.028   6.274
46675SOL    HW141922  11.654   8.060   6.361
46675SOL    HW241923  11.624   7.950   6.261
46676SOL     OW41924   1.042  12.211   1.473
46676SOL    HW141925   0.997  12.129   1.452
46676SOL    HW241926   1.100  12.188   1.545
46677SOL     OW41927  13.384  10.687  11.432
46677SOL    HW141928  13.317  10.645  11.378
46677SOL    HW241929  13.360  10.665  11.522
46678SOL     OW41930   0.991   2.283   3.312
46678SOL    HW141931   1.041   2.328   3.380
46678SOL    HW241932   1.030   2.312   3.229
46679SOL     OW41933  11.065   8.459   5.475
46679SOL    HW141934  11.111   8.485   5.396
46679SOL    HW241935  11.089   8.526   5.540
46680SOL     OW41936   6.458   7.023   5.772
46680SOL    HW141937   6.446   7.091   5.706
46680SOL    HW241938   6.523   6.964   5.734
46681SOL     OW41939  14.275  11.123   6.659
46681SOL    HW141940  14.287  11.097   6.568
46681SOL    HW241941  14.308  11.050   6.710
46682SOL     OW41942   0.572  14.759   4.992
46682SOL    HW141943   0.590  14.842   5.037
46682SOL    HW241944   0.514  14.711   5.051
46683SOL     OW41945  12.359  13.141  11.270
46683SOL    HW141946  12.450  13.132  11.240
46683SOL    HW241947  12.309  13.083  11.212
46684SOL     OW41948   0.641   4.519   8.658
46684SOL    HW141949   0.586   4.457   8.610
46684SOL    HW241950   0.728   4.478   8.658
46685SOL     OW41951   6.840   6.473   7.177
46685SOL    HW141952   6.876   6.534   7.241
46685SOL    HW241953   6.898   6.480   7.101
46686SOL     OW41954   5.516   0.871   4.745
46686SOL    HW141955   5.501   0.785   4.782
46686SOL    HW241956   5.430   0.899   4.713
46687SOL     OW41957  13.176   4.282  10.937
46687SOL    HW141958  13.101   4.230  10.907
46687SOL    HW241959  13.140   4.342  11.002
46688SOL     OW41960  13.178   2.470   1.923
46688SOL    HW141961  13.193   2.511   2.008
46688SOL    HW241962  13.182   2.542   1.860
46689SOL     OW41963   5.228   9.520   4.288
46689SOL    HW141964   5.212   9.591   4.226
46689SOL    HW241965   5.141   9.483   4.305
46690SOL     OW41966   7.827  10.352  12.163
46690SOL    HW141967   7.900  10.407  12.135
46690SOL    HW241968   7.794  10.313  12.082
46691SOL     OW41969   1.167   5.575   2.082
46691SOL    HW141970   1.187   5.661   2.046
46691SOL    HW241971   1.073   5.577   2.099
46692SOL     OW41972  13.260  13.798   7.832
46692SOL    HW141973  13.346  13.759   7.817
46692SOL    HW241974  13.263  13.881   7.785
46693SOL     OW41975   9.832  13.912  14.743
46693SOL    HW141976   9.907  13.968  14.724
46693SOL    HW241977   9.865  13.847  14.805
46694SOL     OW41978   8.012  11.741   2.343
46694SOL    HW141979   8.051  11.671   2.396
46694SOL    HW241980   7.919  11.720   2.341
46695SOL     OW41981   8.652   4.455  10.099
46695SOL    HW141982   8.717   4.413  10.042
46695SOL    HW241983   8.686   4.442  10.187
46696SOL     OW41984   8.580   7.406   9.321
46696SOL    HW141985   8.539   7.320   9.313
46696SOL    HW241986   8.522   7.455   9.380
46697SOL     OW41987   5.763   4.660  12.749
46697SOL    HW141988   5.768   4.745  12.704
46697SOL    HW241989   5.671   4.651  12.773
46698SOL     OW41990  11.970  12.980   8.527
46698SOL    HW141991  11.950  13.060   8.479
46698SOL    HW241992  11.986  12.914   8.459
46699SOL     OW41993   5.476   9.040   0.370
46699SOL    HW141994   5.548   9.004   0.319
46699SOL    HW241995   5.450   8.968   0.428
46700SOL     OW41996  12.567   0.877   6.451
46700SOL    HW141997  12.662   0.869   6.462
46700SOL    HW241998  12.551   0.971   6.444
46701SOL     OW41999  14.317  13.872  14.229
46701SOL    HW142000  14.289  13.797  14.175
46701SOL    HW242001  14.339  13.940  14.166
46702SOL     OW42002  11.881  11.032   8.570
46702SOL    HW142003  11.831  10.959   8.607
46702SOL    HW242004  11.854  11.108   8.622
46703SOL     OW42005   5.666  14.277   8.393
46703SOL    HW142006   5.676  14.312   8.305
46703SOL    HW242007   5.583  14.313   8.424
46704SOL     OW42008   5.943  12.988   0.186
46704SOL    HW142009   5.939  12.893   0.191
46704SOL    HW242010   5.905  13.018   0.269
46705SOL     OW42011   9.218   8.598   9.823
46705SOL    HW142012   9.210   8.546   9.743
46705SOL    HW242013   9.154   8.560   9.883
46706SOL     OW42014   6.463  14.193   7.787
46706SOL    HW142015   6.450  14.105   7.752
46706SOL    HW242016   6.417  14.192   7.871
46707SOL     OW42017   9.940   4.528   6.969
46707SOL    HW142018   9.863   4.492   7.013
46707SOL    HW242019   9.906   4.602   6.919
46708SOL     OW42020   6.347  13.951   7.399
46708SOL    HW142021   6.412  14.012   7.433
46708SOL    HW242022   6.376  13.933   7.309
46709SOL     OW42023   4.753   7.708  11.644
46709SOL    HW142024   4.761   7.802  11.659
46709SOL    HW242025   4.839   7.672  11.666
46710SOL     OW42026   6.835  13.420   8.694
46710SOL    HW142027   6.782  13.495   8.668
46710SOL    HW242028   6.890  13.401   8.618
46711SOL     OW42029   5.478  11.814   5.532
46711SOL    HW142030   5.541  11.743   5.534
46711SOL    HW242031   5.467  11.834   5.439
46712SOL     OW42032  12.779  13.207  14.413
46712SOL    HW142033  12.799  13.136  14.474
46712SOL    HW242034  12.683  13.214  14.415
46713SOL     OW42035   9.928  10.739   8.530
46713SOL    HW142036   9.842  10.712   8.495
46713SOL    HW242037   9.913  10.751   8.624
46714SOL     OW42038   9.298   9.812   3.965
46714SOL    HW142039   9.228   9.747   3.972
46714SOL    HW242040   9.259   9.884   3.915
46715SOL     OW42041   5.984   1.630   9.427
46715SOL    HW142042   5.927   1.702   9.455
46715SOL    HW242043   6.066   1.672   9.403
46716SOL     OW42044   9.172   0.675   9.514
46716SOL    HW142045   9.096   0.732   9.502
46716SOL    HW242046   9.211   0.704   9.597
46717SOL     OW42047   3.895  11.911   5.062
46717SOL    HW142048   3.935  11.895   4.977
46717SOL    HW242049   3.824  11.847   5.067
46718SOL     OW42050   6.466  12.401  11.375
46718SOL    HW142051   6.544  12.449  11.401
46718SOL    HW242052   6.429  12.370  11.458
46719SOL     OW42053   6.307  12.299  10.424
46719SOL    HW142054   6.221  12.306  10.465
46719SOL    HW242055   6.292  12.248  10.344
46720SOL     OW42056   1.488   5.599   9.085
46720SOL    HW142057   1.429   5.674   9.101
46720SOL    HW242058   1.479   5.581   8.992
46721SOL     OW42059   7.378   6.225   3.540
46721SOL    HW142060   7.306   6.289   3.544
46721SOL    HW242061   7.424   6.236   3.623
46722SOL     OW42062   7.639  10.063   5.746
46722SOL    HW142063   7.715  10.048   5.802
46722SOL    HW242064   7.563  10.053   5.804
46723SOL     OW42065   2.021   5.270   2.987
46723SOL    HW142066   2.054   5.184   3.012
46723SOL    HW242067   1.990   5.308   3.069
46724SOL     OW42068  13.466   8.601  14.298
46724SOL    HW142069  13.455   8.669  14.365
46724SOL    HW242070  13.561   8.596  14.284
46725SOL     OW42071   1.599   2.566   8.445
46725SOL    HW142072   1.651   2.646   8.438
46725SOL    HW242073   1.537   2.584   8.515
46726SOL     OW42074   5.157   4.555   3.791
46726SOL    HW142075   5.118   4.603   3.864
46726SOL    HW242076   5.170   4.621   3.723
46727SOL     OW42077  12.357   1.998  12.731
46727SOL    HW142078  12.276   1.949  12.724
46727SOL    HW242079  12.342   2.060  12.802
46728SOL     OW42080   6.930  11.269  13.991
46728SOL    HW142081   6.875  11.296  13.918
46728SOL    HW242082   6.950  11.177  13.974
46729SOL     OW42083   3.798  10.932   2.069
46729SOL    HW142084   3.818  11.026   2.065
46729SOL    HW242085   3.820  10.907   2.158
46730SOL     OW42086   1.444  13.551   8.419
46730SOL    HW142087   1.530  13.582   8.446
46730SOL    HW242088   1.460  13.465   8.381
46731SOL     OW42089   5.781   8.171   3.934
46731SOL    HW142090   5.777   8.142   3.843
46731SOL    HW242091   5.831   8.102   3.978
46732SOL     OW42092   7.248   8.723   7.165
46732SOL    HW142093   7.335   8.689   7.187
46732SOL    HW242094   7.205   8.735   7.249
46733SOL     OW42095  14.537   5.185  13.254
46733SOL    HW142096  14.628   5.157  13.244
46733SOL    HW242097  14.538   5.278  13.232
46734SOL     OW42098   7.608   7.504   7.783
46734SOL    HW142099   7.562   7.587   7.781
46734SOL    HW242100   7.667   7.511   7.858
46735SOL     OW42101  13.790   0.437   1.649
46735SOL    HW142102  13.827   0.367   1.703
46735SOL    HW242103  13.785   0.400   1.561
46736SOL     OW42104   6.509   6.194  13.852
46736SOL    HW142105   6.556   6.145  13.919
46736SOL    HW242106   6.431   6.227  13.897
46737SOL     OW42107   0.441   8.213   5.121
46737SOL    HW142108   0.482   8.299   5.117
46737SOL    HW242109   0.446   8.188   5.214
46738SOL     OW42110   6.376  12.805   3.604
46738SOL    HW142111   6.387  12.893   3.639
46738SOL    HW242112   6.311  12.815   3.535
46739SOL     OW42113  11.774   2.553   5.712
46739SOL    HW142114  11.682   2.566   5.689
46739SOL    HW242115  11.773   2.543   5.807
46740SOL     OW42116   4.240   8.145   4.710
46740SOL    HW142117   4.148   8.121   4.720
46740SOL    HW242118   4.286   8.091   4.774
46741SOL     OW42119   7.543   2.123  10.558
46741SOL    HW142120   7.606   2.051  10.569
46741SOL    HW242121   7.597   2.201  10.544
46742SOL     OW42122  11.495   4.436   2.597
46742SOL    HW142123  11.587   4.455   2.614
46742SOL    HW242124  11.450   4.520   2.612
46743SOL     OW42125  12.680   3.999  13.514
46743SOL    HW142126  12.654   4.076  13.464
46743SOL    HW242127  12.776   4.004  13.519
46744SOL     OW42128  12.178   4.686   9.902
46744SOL    HW142129  12.248   4.726   9.851
46744SOL    HW242130  12.112   4.755   9.911
46745SOL     OW42131   5.335   8.521  10.271
46745SOL    HW142132   5.338   8.579  10.347
46745SOL    HW242133   5.327   8.579  10.196
46746SOL     OW42134  13.666   2.635   4.411
46746SOL    HW142135  13.572   2.651   4.396
46746SOL    HW242136  13.667   2.557   4.467
46747SOL     OW42137   0.790   4.876   0.097
46747SOL    HW142138   0.820   4.785   0.098
46747SOL    HW242139   0.731   4.881   0.021
46748SOL     OW42140  10.757   3.368   9.829
46748SOL    HW142141  10.750   3.411   9.743
46748SOL    HW242142  10.832   3.411   9.870
46749SOL     OW42143   5.344   1.531   3.547
46749SOL    HW142144   5.341   1.439   3.573
46749SOL    HW242145   5.265   1.570   3.584
46750SOL     OW42146  13.679   5.781   4.970
46750SOL    HW142147  13.693   5.717   4.900
46750SOL    HW242148  13.754   5.770   5.028
46751SOL     OW42149  11.621   9.928   6.234
46751SOL    HW142150  11.586   9.842   6.259
46751SOL    HW242151  11.562   9.959   6.166
46752SOL     OW42152   3.270   4.538   7.321
46752SOL    HW142153   3.239   4.520   7.232
46752SOL    HW242154   3.205   4.597   7.358
46753SOL     OW42155  11.084  13.990   7.594
46753SOL    HW142156  11.168  13.951   7.571
46753SOL    HW242157  11.019  13.925   7.567
46754SOL     OW42158   3.009   8.734   7.039
46754SOL    HW142159   2.996   8.805   6.976
46754SOL    HW242160   2.938   8.745   7.101
46755SOL     OW42161   9.240   1.756   9.628
46755SOL    HW142162   9.276   1.700   9.559
46755SOL    HW242163   9.234   1.700   9.705
46756SOL     OW42164  13.204   2.152   6.491
46756SOL    HW142165  13.223   2.094   6.565
46756SOL    HW242166  13.111   2.173   6.501
46757SOL     OW42167  12.025   7.762  14.719
46757SOL    HW142168  12.069   7.806  14.792
46757SOL    HW242169  12.047   7.669  14.729
46758SOL     OW42170   4.166  12.298  10.253
46758SOL    HW142171   4.226  12.224  10.264
46758SOL    HW242172   4.120  12.280  10.171
46759SOL     OW42173   6.410   6.002   4.697
46759SOL    HW142174   6.477   6.068   4.718
46759SOL    HW242175   6.383   5.967   4.782
46760SOL     OW42176  13.746   6.955   6.519
46760SOL    HW142177  13.739   7.032   6.463
46760SOL    HW242178  13.676   6.896   6.489
46761SOL     OW42179  13.911   5.617   9.580
46761SOL    HW142180  13.911   5.618   9.675
46761SOL    HW242181  13.819   5.623   9.556
46762SOL     OW42182   2.159   5.154   0.188
46762SOL    HW142183   2.150   5.118   0.276
46762SOL    HW242184   2.230   5.103   0.149
46763SOL     OW42185   7.117   9.205  12.070
46763SOL    HW142186   7.094   9.267  12.140
46763SOL    HW242187   7.213   9.207  12.067
46764SOL     OW42188  14.687   8.591  11.568
46764SOL    HW142189  14.685   8.684  11.594
46764SOL    HW242190  14.780   8.570  11.564
46765SOL     OW42191   3.873  14.123   9.385
46765SOL    HW142192   3.805  14.058   9.366
46765SOL    HW242193   3.918  14.088   9.462
46766SOL     OW42194   9.236   6.816   4.066
46766SOL    HW142195   9.277   6.850   4.145
46766SOL    HW242196   9.142   6.820   4.085
46767SOL     OW42197   2.515   8.986   8.782
46767SOL    HW142198   2.479   9.055   8.838
46767SOL    HW242199   2.516   9.025   8.695
46768SOL     OW42200   3.282   7.644  14.028
46768SOL    HW142201   3.299   7.556  14.061
46768SOL    HW242202   3.357   7.663  13.971
46769SOL     OW42203   3.051   7.885   0.249
46769SOL    HW142204   3.005   7.803   0.269
46769SOL    HW242205   3.140   7.858   0.229
46770SOL     OW42206   0.507  13.816  12.216
46770SOL    HW142207   0.485  13.805  12.308
46770SOL    HW242208   0.558  13.897  12.212
46771SOL     OW42209   9.672   8.590   0.398
46771SOL    HW142210   9.725   8.666   0.377
46771SOL    HW242211   9.599   8.593   0.336
46772SOL     OW42212  12.439   4.792   5.182
46772SOL    HW142213  12.443   4.819   5.274
46772SOL    HW242214  12.529   4.764   5.161
46773SOL     OW42215   9.801   2.155  12.805
46773SOL    HW142216   9.838   2.184  12.888
46773SOL    HW242217   9.708   2.141  12.824
46774SOL     OW42218   5.072   3.800   8.685
46774SOL    HW142219   4.976   3.806   8.693
46774SOL    HW242220   5.104   3.836   8.768
46775SOL     OW42221   7.176   1.830   3.405
46775SOL    HW142222   7.090   1.789   3.413
46775SOL    HW242223   7.159   1.912   3.359
46776SOL     OW42224   5.771   7.047   4.345
46776SOL    HW142225   5.704   7.077   4.284
46776SOL    HW242226   5.791   6.958   4.316
46777SOL     OW42227  11.978   0.290  10.076
46777SOL    HW142228  12.016   0.369  10.037
46777SOL    HW242229  12.023   0.280  10.160
46778SOL     OW42230   7.669  13.195   4.647
46778SOL    HW142231   7.713  13.254   4.587
46778SOL    HW242232   7.630  13.252   4.713
46779SOL     OW42233  11.721   6.111  13.441
46779SOL    HW142234  11.794   6.052  13.463
46779SOL    HW242235  11.751   6.158  13.363
46780SOL     OW42236  12.932  14.560   0.663
46780SOL    HW142237  12.892  14.644   0.640
46780SOL    HW242238  12.910  14.502   0.590
46781SOL     OW42239   0.196   9.999  11.311
46781SOL    HW142240   0.266   9.962  11.257
46781SOL    HW242241   0.148  10.057  11.252
46782SOL     OW42242   0.803  12.713   7.781
46782SOL    HW142243   0.773  12.792   7.736
46782SOL    HW242244   0.851  12.746   7.858
46783SOL     OW42245   1.615   4.145   8.653
46783SOL    HW142246   1.634   4.053   8.636
46783SOL    HW242247   1.700   4.183   8.674
46784SOL     OW42248   7.227  14.842   1.950
46784SOL    HW142249   7.217  14.762   1.897
46784SOL    HW242250   7.218  14.811   2.041
46785SOL     OW42251   3.836  12.855   3.947
46785SOL    HW142252   3.858  12.926   3.887
46785SOL    HW242253   3.831  12.896   4.033
46786SOL     OW42254   0.648   0.654   2.098
46786SOL    HW142255   0.668   0.711   2.173
46786SOL    HW242256   0.628   0.569   2.136
46787SOL     OW42257  10.646   8.430   1.256
46787SOL    HW142258  10.714   8.471   1.203
46787SOL    HW242259  10.615   8.357   1.203
46788SOL     OW42260   6.812   2.093   6.314
46788SOL    HW142261   6.848   2.181   6.307
46788SOL    HW242262   6.825   2.068   6.405
46789SOL     OW42263  10.200   8.932   5.899
46789SOL    HW142264  10.219   8.846   5.861
46789SOL    HW242265  10.105   8.940   5.895
46790SOL     OW42266   8.509   4.149   3.400
46790SOL    HW142267   8.483   4.081   3.338
46790SOL    HW242268   8.439   4.214   3.396
46791SOL     OW42269   1.169   9.365   0.575
46791SOL    HW142270   1.225   9.437   0.547
46791SOL    HW242271   1.201   9.342   0.662
46792SOL     OW42272   4.604   8.072   5.632
46792SOL    HW142273   4.579   8.051   5.722
46792SOL    HW242274   4.648   7.994   5.600
46793SOL     OW42275   9.270   2.336  12.326
46793SOL    HW142276   9.338   2.288  12.374
46793SOL    HW242277   9.299   2.427  12.330
46794SOL     OW42278  11.592  11.682   9.453
46794SOL    HW142279  11.532  11.731   9.398
46794SOL    HW242280  11.540  11.654   9.528
46795SOL     OW42281  14.070  12.169   9.051
46795SOL    HW142282  14.098  12.098   9.108
46795SOL    HW242283  14.107  12.248   9.090
46796SOL     OW42284  13.970   8.414  12.781
46796SOL    HW142285  13.882   8.395  12.748
46796SOL    HW242286  14.010   8.467  12.713
46797SOL     OW42287   4.708   2.033   8.869
46797SOL    HW142288   4.644   2.052   8.937
46797SOL    HW242289   4.664   2.059   8.788
46798SOL     OW42290   1.906  13.937   0.030
46798SOL    HW142291   1.912  13.993  14.835
46798SOL    HW242292   1.958  13.982   0.096
46799SOL     OW42293   3.102   4.158   7.453
46799SOL    HW142294   3.194   4.149   7.427
46799SOL    HW242295   3.078   4.071   7.486
46800SOL     OW42296   2.519  14.351   5.570
46800SOL    HW142297   2.505  14.312   5.484
46800SOL    HW242298   2.524  14.276   5.630
46801SOL     OW42299   9.348   4.020   1.047
46801SOL    HW142300   9.442   4.037   1.039
46801SOL    HW242301   9.343   3.934   1.089
46802SOL     OW42302   3.350   1.771   1.760
46802SOL    HW142303   3.270   1.757   1.710
46802SOL    HW242304   3.404   1.694   1.739
46803SOL     OW42305  10.421   5.714   3.756
46803SOL    HW142306  10.383   5.638   3.800
46803SOL    HW242307  10.489   5.746   3.816
46804SOL     OW42308   6.132  12.495  12.163
46804SOL    HW142309   6.084  12.469  12.084
46804SOL    HW242310   6.194  12.423  12.178
46805SOL     OW42311   6.403   4.839   6.632
46805SOL    HW142312   6.379   4.931   6.638
46805SOL    HW242313   6.498   4.839   6.623
46806SOL     OW42314  13.459  12.723   2.739
46806SOL    HW142315  13.504  12.806   2.727
46806SOL    HW242316  13.446  12.690   2.650
46807SOL     OW42317   4.452   3.658   6.182
46807SOL    HW142318   4.506   3.628   6.109
46807SOL    HW242319   4.381   3.593   6.187
46808SOL     OW42320   4.825   3.117   3.176
46808SOL    HW142321   4.806   3.024   3.173
46808SOL    HW242322   4.770   3.155   3.107
46809SOL     OW42323  11.658   6.712   4.000
46809SOL    HW142324  11.703   6.705   3.916
46809SOL    HW242325  11.688   6.795   4.036
46810SOL     OW42326  11.533   1.613   2.785
46810SOL    HW142327  11.563   1.702   2.798
46810SOL    HW242328  11.610   1.565   2.754
46811SOL     OW42329  12.643   9.409  14.050
46811SOL    HW142330  12.560   9.407  14.003
46811SOL    HW242331  12.692   9.481  14.010
46812SOL     OW42332   4.080   0.455  12.813
46812SOL    HW142333   4.141   0.402  12.865
46812SOL    HW242334   4.113   0.449  12.724
46813SOL     OW42335   9.638   7.493   4.409
46813SOL    HW142336   9.711   7.527   4.357
46813SOL    HW242337   9.601   7.570   4.452
46814SOL     OW42338  10.312   1.312  13.148
46814SOL    HW142339  10.332   1.233  13.199
46814SOL    HW242340  10.365   1.380  13.189
46815SOL     OW42341   7.073  13.133   7.285
46815SOL    HW142342   7.080  13.039   7.301
46815SOL    HW242343   6.979  13.149   7.277
46816SOL     OW42344   0.031   5.724  12.260
46816SOL    HW142345   0.004   5.693  12.173
46816SOL    HW242346   0.001   5.657  12.320
46817SOL     OW42347   2.932   1.633   4.705
46817SOL    HW142348   2.843   1.638   4.669
46817SOL    HW242349   2.928   1.561   4.768
46818SOL     OW42350  12.423   5.088   9.294
46818SOL    HW142351  12.417   5.059   9.202
46818SOL    HW242352  12.511   5.123   9.303
46819SOL     OW42353  11.827   0.505   3.940
46819SOL    HW142354  11.766   0.574   3.964
46819SOL    HW242355  11.882   0.544   3.872
46820SOL     OW42356   3.655   7.143   8.980
46820SOL    HW142357   3.750   7.158   8.987
46820SOL    HW242358   3.616   7.229   8.995
46821SOL     OW42359   5.608  11.493   8.318
46821SOL    HW142360   5.686  11.455   8.358
46821SOL    HW242361   5.538  11.477   8.381
46822SOL     OW42362  14.480   8.101   5.577
46822SOL    HW142363  14.529   8.146   5.646
46822SOL    HW242364  14.534   8.109   5.499
46823SOL     OW42365  13.732   5.856   6.908
46823SOL    HW142366  13.689   5.913   6.845
46823SOL    HW242367  13.763   5.781   6.857
46824SOL     OW42368  12.015   2.190   5.356
46824SOL    HW142369  12.035   2.235   5.274
46824SOL    HW242370  11.990   2.259   5.417
46825SOL     OW42371   9.803  13.663   0.401
46825SOL    HW142372   9.764  13.714   0.330
46825SOL    HW242373   9.808  13.574   0.367
46826SOL     OW42374  14.271   7.382   8.805
46826SOL    HW142375  14.337   7.352   8.867
46826SOL    HW242376  14.192   7.393   8.858
46827SOL     OW42377   5.877   3.037   1.976
46827SOL    HW142378   5.925   3.069   2.052
46827SOL    HW242379   5.865   3.115   1.921
46828SOL     OW42380  13.489  10.278   0.143
46828SOL    HW142381  13.393  10.270   0.137
46828SOL    HW242382  13.519  10.190   0.165
46829SOL     OW42383   7.459   1.504   6.055
46829SOL    HW142384   7.415   1.548   6.128
46829SOL    HW242385   7.517   1.570   6.018
46830SOL     OW42386   0.194   3.658   9.684
46830SOL    HW142387   0.121   3.630   9.740
46830SOL    HW242388   0.239   3.725   9.736
46831SOL     OW42389   7.753   0.885   2.381
46831SOL    HW142390   7.674   0.927   2.416
46831SOL    HW242391   7.732   0.869   2.289
46832SOL     OW42392   5.309   7.424  13.832
46832SOL    HW142393   5.224   7.455  13.801
46832SOL    HW242394   5.366   7.433  13.756
46833SOL     OW42395   3.444  12.895  10.887
46833SOL    HW142396   3.510  12.835  10.920
46833SOL    HW242397   3.387  12.841  10.833
46834SOL     OW42398   0.111  11.740   6.994
46834SOL    HW142399   0.191  11.782   7.028
46834SOL    HW242400   0.129  11.725   6.902
46835SOL     OW42401   6.266   6.311  14.327
46835SOL    HW142402   6.212   6.378  14.368
46835SOL    HW242403   6.307   6.265  14.400
46836SOL     OW42404   3.001   8.350   2.454
46836SOL    HW142405   2.998   8.298   2.374
46836SOL    HW242406   3.084   8.326   2.495
46837SOL     OW42407  10.240   2.203   7.838
46837SOL    HW142408  10.172   2.248   7.788
46837SOL    HW242409  10.233   2.112   7.810
46838SOL     OW42410  11.280   6.129   5.366
46838SOL    HW142411  11.208   6.075   5.398
46838SOL    HW242412  11.238   6.210   5.337
46839SOL     OW42413   5.664  14.595   4.674
46839SOL    HW142414   5.628  14.521   4.722
46839SOL    HW242415   5.755  14.570   4.656
46840SOL     OW42416   3.970   0.056   4.235
46840SOL    HW142417   3.990  14.872   4.169
46840SOL    HW242418   4.011   0.136   4.202
46841SOL     OW42419  10.838  13.961   6.712
46841SOL    HW142420  10.916  13.905   6.713
46841SOL    HW242421  10.817  13.975   6.804
46842SOL     OW42422   9.095   1.140  13.775
46842SOL    HW142423   9.070   1.228  13.802
46842SOL    HW242424   9.132   1.100  13.854
46843SOL     OW42425   1.249   8.797  12.725
46843SOL    HW142426   1.274   8.805  12.817
46843SOL    HW242427   1.154   8.788  12.726
46844SOL     OW42428   7.229   4.050   5.216
46844SOL    HW142429   7.320   4.037   5.190
46844SOL    HW242430   7.180   4.053   5.134
46845SOL     OW42431  11.935   6.617   3.063
46845SOL    HW142432  11.851   6.615   3.108
46845SOL    HW242433  11.954   6.710   3.052
46846SOL     OW42434  13.097   7.817   4.280
46846SOL    HW142435  13.089   7.762   4.202
46846SOL    HW242436  13.008   7.825   4.314
46847SOL     OW42437   5.412   0.538   9.676
46847SOL    HW142438   5.348   0.606   9.653
46847SOL    HW242439   5.416   0.482   9.599
46848SOL     OW42440   6.675   5.697   0.395
46848SOL    HW142441   6.735   5.644   0.448
46848SOL    HW242442   6.602   5.638   0.375
46849SOL     OW42443   0.454   2.749  12.151
46849SOL    HW142444   0.375   2.768  12.101
46849SOL    HW242445   0.471   2.656  12.135
46850SOL     OW42446   6.866   1.402  11.313
46850SOL    HW142447   6.795   1.451  11.273
46850SOL    HW242448   6.927   1.469  11.344
46851SOL     OW42449  10.420   0.249   9.366
46851SOL    HW142450  10.435   0.156   9.346
46851SOL    HW242451  10.338   0.270   9.322
46852SOL     OW42452   6.511   6.463  13.332
46852SOL    HW142453   6.513   6.381  13.382
46852SOL    HW242454   6.463   6.442  13.252
46853SOL     OW42455  14.300   6.714   7.841
46853SOL    HW142456  14.335   6.638   7.887
46853SOL    HW242457  14.320   6.788   7.898
46854SOL     OW42458  14.154   6.657  14.406
46854SOL    HW142459  14.108   6.575  14.389
46854SOL    HW242460  14.091   6.726  14.384
46855SOL     OW42461  11.339  11.985   8.693
46855SOL    HW142462  11.367  12.020   8.777
46855SOL    HW242463  11.386  12.038   8.628
46856SOL     OW42464  10.278   5.398  11.439
46856SOL    HW142465  10.300   5.451  11.515
46856SOL    HW242466  10.245   5.461  11.375
46857SOL     OW42467  13.057  10.416   4.906
46857SOL    HW142468  13.057  10.362   4.827
46857SOL    HW242469  13.007  10.365   4.970
46858SOL     OW42470   4.297   2.929  11.665
46858SOL    HW142471   4.339   3.012  11.689
46858SOL    HW242472   4.208   2.936  11.700
46859SOL     OW42473   8.333   2.159   8.393
46859SOL    HW142474   8.373   2.242   8.420
46859SOL    HW242475   8.319   2.169   8.299
46860SOL     OW42476   5.443  13.666   5.452
46860SOL    HW142477   5.355  13.633   5.471
46860SOL    HW242478   5.498  13.625   5.519
46861SOL     OW42479  10.991  11.197   8.158
46861SOL    HW142480  11.041  11.125   8.120
46861SOL    HW242481  11.057  11.251   8.202
46862SOL     OW42482   2.985   0.678   2.226
46862SOL    HW142483   3.055   0.735   2.194
46862SOL    HW242484   2.908   0.705   2.176
46863SOL     OW42485  13.448   9.625   9.591
46863SOL    HW142486  13.520   9.685   9.613
46863SOL    HW242487  13.486   9.538   9.604
46864SOL     OW42488   7.216   4.020   5.689
46864SOL    HW142489   7.235   4.044   5.599
46864SOL    HW242490   7.132   3.973   5.684
46865SOL     OW42491  10.232   9.791  11.135
46865SOL    HW142492  10.199   9.707  11.103
46865SOL    HW242493  10.307   9.810  11.080
46866SOL     OW42494   2.953   6.575  12.219
46866SOL    HW142495   3.017   6.510  12.248
46866SOL    HW242496   2.948   6.638  12.292
46867SOL     OW42497  11.453   3.732   2.275
46867SOL    HW142498  11.424   3.782   2.352
46867SOL    HW242499  11.528   3.682   2.307
46868SOL     OW42500   7.535  12.123   2.711
46868SOL    HW142501   7.598  12.191   2.688
46868SOL    HW242502   7.485  12.161   2.784
46869SOL     OW42503  12.419  11.346   7.354
46869SOL    HW142504  12.333  11.306   7.346
46869SOL    HW242505  12.452  11.350   7.264
46870SOL     OW42506   1.821   7.874   7.654
46870SOL    HW142507   1.907   7.853   7.692
46870SOL    HW242508   1.837   7.952   7.601
46871SOL     OW42509  13.159  10.554  13.152
46871SOL    HW142510  13.087  10.539  13.212
46871SOL    HW242511  13.234  10.510  13.192
46872SOL     OW42512   1.550   4.869  10.304
46872SOL    HW142513   1.522   4.792  10.352
46872SOL    HW242514   1.504   4.863  10.220
46873SOL     OW42515   7.194   4.337   9.055
46873SOL    HW142516   7.219   4.414   9.004
46873SOL    HW242517   7.273   4.313   9.103
46874SOL     OW42518   9.697  10.277   3.605
46874SOL    HW142519   9.649  10.357   3.586
46874SOL    HW242520   9.770  10.277   3.543
46875SOL     OW42521   6.936   5.165   1.476
46875SOL    HW142522   6.864   5.185   1.536
46875SOL    HW242523   6.958   5.250   1.437
46876SOL     OW42524  13.689  12.583   0.566
46876SOL    HW142525  13.748  12.557   0.637
46876SOL    HW242526  13.743  12.581   0.487
46877SOL     OW42527   1.866  13.042   6.134
46877SOL    HW142528   1.861  13.105   6.206
46877SOL    HW242529   1.843  13.093   6.056
46878SOL     OW42530   6.840  13.927   3.580
46878SOL    HW142531   6.832  13.998   3.517
46878SOL    HW242532   6.910  13.872   3.546
46879SOL     OW42533  12.190  12.824   9.612
46879SOL    HW142534  12.265  12.770   9.587
46879SOL    HW242535  12.148  12.774   9.682
46880SOL     OW42536  10.703   6.701   1.773
46880SOL    HW142537  10.764   6.764   1.734
46880SOL    HW242538  10.727   6.699   1.866
46881SOL     OW42539  11.024   5.920  12.996
46881SOL    HW142540  11.034   5.946  13.088
46881SOL    HW242541  11.093   5.855  12.982
46882SOL     OW42542   9.472   3.430  10.494
46882SOL    HW142543   9.449   3.343  10.461
46882SOL    HW242544   9.391   3.481  10.486
46883SOL     OW42545   1.172  11.957   5.564
46883SOL    HW142546   1.121  11.954   5.483
46883SOL    HW242547   1.256  11.994   5.538
46884SOL     OW42548   8.475  10.611   8.904
46884SOL    HW142549   8.543  10.575   8.847
46884SOL    HW242550   8.483  10.706   8.894
46885SOL     OW42551  13.111   6.380  14.116
46885SOL    HW142552  13.024   6.390  14.154
46885SOL    HW242553  13.117   6.450  14.051
46886SOL     OW42554  12.502  14.399   0.065
46886SOL    HW142555  12.416  14.388   0.108
46886SOL    HW242556  12.552  14.322   0.090
46887SOL     OW42557   4.346  14.770   4.890
46887SOL    HW142558   4.372  14.708   4.823
46887SOL    HW242559   4.288  14.831   4.845
46888SOL     OW42560  13.585   0.663  11.860
46888SOL    HW142561  13.490   0.655  11.862
46888SOL    HW242562  13.613   0.613  11.783
46889SOL     OW42563  13.228   8.378  10.638
46889SOL    HW142564  13.276   8.456  10.663
46889SOL    HW242565  13.136   8.400  10.654
46890SOL     OW42566   5.350   8.261   1.344
46890SOL    HW142567   5.329   8.352   1.363
46890SOL    HW242568   5.445   8.262   1.330
46891SOL     OW42569  14.645   1.545   3.298
46891SOL    HW142570  14.661   1.465   3.347
46891SOL    HW242571  14.671   1.615   3.358
46892SOL     OW42572   0.608   5.744  11.810
46892SOL    HW142573   0.522   5.785  11.801
46892SOL    HW242574   0.606   5.703  11.897
46893SOL     OW42575   4.884   8.765   7.226
46893SOL    HW142576   4.910   8.679   7.258
46893SOL    HW242577   4.791   8.772   7.246
46894SOL     OW42578  10.822   3.844   0.497
46894SOL    HW142579  10.869   3.870   0.418
46894SOL    HW242580  10.760   3.915   0.513
46895SOL     OW42581   2.501   9.163   6.206
46895SOL    HW142582   2.405   9.162   6.209
46895SOL    HW242583   2.524   9.255   6.213
46896SOL     OW42584  10.081   4.425  11.361
46896SOL    HW142585  10.125   4.348  11.326
46896SOL    HW242586  10.002   4.390  11.403
46897SOL     OW42587   3.950   7.449   1.536
46897SOL    HW142588   3.921   7.484   1.452
46897SOL    HW242589   4.045   7.455   1.533
46898SOL     OW42590   7.777   4.371   1.082
46898SOL    HW142591   7.707   4.378   1.147
46898SOL    HW242592   7.788   4.460   1.049
46899SOL     OW42593   0.443  13.294  11.022
46899SOL    HW142594   0.529  13.315  10.986
46899SOL    HW242595   0.391  13.374  11.010
46900SOL     OW42596   9.074  13.206   4.869
46900SOL    HW142597   9.042  13.290   4.901
46900SOL    HW242598   8.996  13.162   4.835
46901SOL     OW42599   9.266   4.512  10.653
46901SOL    HW142600   9.248   4.472  10.738
46901SOL    HW242601   9.219   4.457  10.590
46902SOL     OW42602   8.545  13.975  14.031
46902SOL    HW142603   8.617  14.007  14.086
46902SOL    HW242604   8.471  13.965  14.090
46903SOL     OW42605   4.877   4.933   8.728
46903SOL    HW142606   4.946   4.895   8.674
46903SOL    HW242607   4.799   4.933   8.672
46904SOL     OW42608   7.780   5.917   8.418
46904SOL    HW142609   7.796   6.009   8.396
46904SOL    HW242610   7.798   5.910   8.511
46905SOL     OW42611   2.990   0.439   9.368
46905SOL    HW142612   3.076   0.462   9.332
46905SOL    HW242613   2.927   0.477   9.306
46906SOL     OW42614   1.862  12.266  12.102
46906SOL    HW142615   1.776  12.225  12.097
46906SOL    HW242616   1.844  12.358  12.118
46907SOL     OW42617  10.080   8.663   3.248
46907SOL    HW142618  10.109   8.657   3.339
46907SOL    HW242619   9.998   8.613   3.246
46908SOL     OW42620   5.801   8.825   4.637
46908SOL    HW142621   5.754   8.777   4.569
46908SOL    HW242622   5.736   8.837   4.707
46909SOL     OW42623  10.221  11.302   4.018
46909SOL    HW142624  10.145  11.355   4.042
46909SOL    HW242625  10.219  11.300   3.922
46910SOL     OW42626   9.710  10.503   6.041
46910SOL    HW142627   9.724  10.551   6.122
46910SOL    HW242628   9.618  10.518   6.020
46911SOL     OW42629   7.118   2.580   3.393
46911SOL    HW142630   7.080   2.660   3.358
46911SOL    HW242631   7.061   2.555   3.465
46912SOL     OW42632   9.996   2.240   7.703
46912SOL    HW142633   9.973   2.329   7.732
46912SOL    HW242634   9.989   2.244   7.608
46913SOL     OW42635  11.763   7.079  11.575
46913SOL    HW142636  11.850   7.092  11.538
46913SOL    HW242637  11.703   7.089  11.501
46914SOL     OW42638   1.778   8.585   2.383
46914SOL    HW142639   1.694   8.573   2.427
46914SOL    HW242640   1.795   8.679   2.390
46915SOL     OW42641  13.833  13.066  11.293
46915SOL    HW142642  13.808  12.983  11.335
46915SOL    HW242643  13.890  13.108  11.357
46916SOL     OW42644   4.217   8.971   0.406
46916SOL    HW142645   4.261   8.962   0.490
46916SOL    HW242646   4.159   8.896   0.400
46917SOL     OW42647   2.091   0.603   8.241
46917SOL    HW142648   2.059   0.605   8.151
46917SOL    HW242649   2.091   0.509   8.264
46918SOL     OW42650   2.537   9.257   2.302
46918SOL    HW142651   2.586   9.242   2.221
46918SOL    HW242652   2.460   9.307   2.274
46919SOL     OW42653  10.729   0.860   6.941
46919SOL    HW142654  10.663   0.918   6.901
46919SOL    HW242655  10.693   0.838   7.027
46920SOL     OW42656   2.876  10.214  12.702
46920SOL    HW142657   2.912  10.303  12.699
46920SOL    HW242658   2.787  10.225  12.734
46921SOL     OW42659   1.077  11.735   8.922
46921SOL    HW142660   1.050  11.678   8.850
46921SOL    HW242661   1.002  11.736   8.981
46922SOL     OW42662  11.136   9.706   7.673
46922SOL    HW142663  11.148   9.623   7.720
46922SOL    HW242664  11.183   9.694   7.591
46923SOL     OW42665   7.797   3.424  12.340
46923SOL    HW142666   7.715   3.447  12.384
46923SOL    HW242667   7.773   3.353  12.281
46924SOL     OW42668   8.230   6.959   4.508
46924SOL    HW142669   8.256   6.907   4.584
46924SOL    HW242670   8.248   7.049   4.533
46925SOL     OW42671   5.506  13.717   0.003
46925SOL    HW142672   5.512  13.771  14.806
46925SOL    HW242673   5.596  13.685   0.017
46926SOL     OW42674   8.525   7.674   0.597
46926SOL    HW142675   8.467   7.720   0.657
46926SOL    HW242676   8.605   7.660   0.646
46927SOL     OW42677   9.862  10.273  11.358
46927SOL    HW142678   9.922  10.232  11.421
46927SOL    HW242679   9.811  10.199  11.323
46928SOL     OW42680  11.156   4.505  11.687
46928SOL    HW142681  11.160   4.447  11.611
46928SOL    HW242682  11.245   4.541  11.694
46929SOL     OW42683  10.330  12.881   3.231
46929SOL    HW142684  10.287  12.826   3.165
46929SOL    HW242685  10.359  12.819   3.298
46930SOL     OW42686   5.540  13.946   1.896
46930SOL    HW142687   5.579  14.033   1.891
46930SOL    HW242688   5.473  13.947   1.827
46931SOL     OW42689  10.047   4.840   7.565
46931SOL    HW142690  10.093   4.784   7.628
46931SOL    HW242691  10.024   4.918   7.615
46932SOL     OW42692  12.239  13.008   8.504
46932SOL    HW142693  12.271  12.974   8.588
46932SOL    HW242694  12.144  13.006   8.512
46933SOL     OW42695   6.609  10.368  14.527
46933SOL    HW142696   6.542  10.434  14.548
46933SOL    HW242697   6.560  10.285  14.524
46934SOL     OW42698  10.030   3.537   4.053
46934SOL    HW142699  10.036   3.442   4.063
46934SOL    HW242700   9.963   3.563   4.116
46935SOL     OW42701  12.393   0.260  13.810
46935SOL    HW142702  12.399   0.343  13.762
46935SOL    HW242703  12.462   0.265  13.876
46936SOL     OW42704   6.043   7.793  14.461
46936SOL    HW142705   6.033   7.702  14.488
46936SOL    HW242706   6.136   7.802  14.441
46937SOL     OW42707   4.825  11.665   8.759
46937SOL    HW142708   4.915  11.655   8.727
46937SOL    HW242709   4.773  11.679   8.679
46938SOL     OW42710  10.512   6.470  13.262
46938SOL    HW142711  10.448   6.539  13.248
46938SOL    HW242712  10.544   6.484  13.351
46939SOL     OW42713   7.339  10.718   0.366
46939SOL    HW142714   7.421  10.674   0.388
46939SOL    HW242715   7.272  10.650   0.370
46940SOL     OW42716   0.018  13.750   7.023
46940SOL    HW142717  14.866  13.804   6.952
46940SOL    HW242718  14.833  13.683   7.037
46941SOL     OW42719   6.186   3.032  11.265
46941SOL    HW142720   6.259   3.034  11.203
46941SOL    HW242721   6.201   2.954  11.318
46942SOL     OW42722   1.586   7.350   6.594
46942SOL    HW142723   1.649   7.326   6.662
46942SOL    HW242724   1.629   7.326   6.512
46943SOL     OW42725  13.668  12.123   4.638
46943SOL    HW142726  13.663  12.104   4.545
46943SOL    HW242727  13.749  12.081   4.667
46944SOL     OW42728   4.322   7.303   5.908
46944SOL    HW142729   4.257   7.251   5.861
46944SOL    HW242730   4.284   7.315   5.995
46945SOL     OW42731   4.671  12.935  12.375
46945SOL    HW142732   4.663  12.991  12.451
46945SOL    HW242733   4.580  12.921  12.346
46946SOL     OW42734  10.720   2.004   1.048
46946SOL    HW142735  10.650   1.954   1.006
46946SOL    HW242736  10.678   2.046   1.123
46947SOL     OW42737  10.702   1.564   4.599
46947SOL    HW142738  10.721   1.541   4.690
46947SOL    HW242739  10.780   1.611   4.569
46948SOL     OW42740   3.936   1.023  13.307
46948SOL    HW142741   4.013   1.051  13.258
46948SOL    HW242742   3.868   1.014  13.240
46949SOL     OW42743   2.653  14.386   9.675
46949SOL    HW142744   2.742  14.400   9.643
46949SOL    HW242745   2.634  14.465   9.727
46950SOL     OW42746   1.943   6.996   5.471
46950SOL    HW142747   1.937   6.985   5.566
46950SOL    HW242748   2.036   7.012   5.454
46951SOL     OW42749  14.441  10.490   0.109
46951SOL    HW142750  14.396  10.475   0.025
46951SOL    HW242751  14.371  10.497   0.173
46952SOL     OW42752   7.749   8.357   8.112
46952SOL    HW142753   7.799   8.437   8.126
46952SOL    HW242754   7.687   8.379   8.042
46953SOL     OW42755   7.447  11.182  10.282
46953SOL    HW142756   7.390  11.107  10.301
46953SOL    HW242757   7.528  11.142  10.249
46954SOL     OW42758   9.093  10.522   6.549
46954SOL    HW142759   9.061  10.478   6.628
46954SOL    HW242760   9.188  10.525   6.560
46955SOL     OW42761   0.699   7.303   2.651
46955SOL    HW142762   0.624   7.248   2.625
46955SOL    HW242763   0.699   7.299   2.746
46956SOL     OW42764   2.688  14.662   0.432
46956SOL    HW142765   2.774  14.621   0.432
46956SOL    HW242766   2.681  14.702   0.345
46957SOL     OW42767   0.726   4.800  13.923
46957SOL    HW142768   0.814   4.786  13.957
46957SOL    HW242769   0.668   4.758  13.987
46958SOL     OW42770  12.842   6.694   6.338
46958SOL    HW142771  12.759   6.716   6.296
46958SOL    HW242772  12.897   6.661   6.266
46959SOL     OW42773   2.031  10.278   3.464
46959SOL    HW142774   2.108  10.333   3.449
46959SOL    HW242775   2.064  10.188   3.463
46960SOL     OW42776  13.526  11.043   6.397
46960SOL    HW142777  13.436  11.065   6.420
46960SOL    HW242778  13.574  11.045   6.480
46961SOL     OW42779  11.659   2.724   4.399
46961SOL    HW142780  11.622   2.642   4.364
46961SOL    HW242781  11.740   2.697   4.442
46962SOL     OW42782   2.646   9.464  14.701
46962SOL    HW142783   2.682   9.506  14.622
46962SOL    HW242784   2.706   9.392  14.720
46963SOL     OW42785   3.913  10.851   1.099
46963SOL    HW142786   3.915  10.851   1.195
46963SOL    HW242787   3.871  10.933   1.075
46964SOL     OW42788  10.774   4.361  11.242
46964SOL    HW142789  10.744   4.365  11.333
46964SOL    HW242790  10.801   4.451  11.222
46965SOL     OW42791   9.873  11.822  10.263
46965SOL    HW142792   9.965  11.845  10.246
46965SOL    HW242793   9.838  11.896  10.311
46966SOL     OW42794  10.878   3.208   8.371
46966SOL    HW142795  10.798   3.189   8.420
46966SOL    HW242796  10.926   3.269   8.427
46967SOL     OW42797   3.577  12.929   5.577
46967SOL    HW142798   3.523  12.851   5.564
46967SOL    HW242799   3.520  13.002   5.549
46968SOL     OW42800   6.541   1.243   9.628
46968SOL    HW142801   6.586   1.171   9.583
46968SOL    HW242802   6.590   1.321   9.604
46969SOL     OW42803   7.553  13.919   5.546
46969SOL    HW142804   7.477  13.898   5.493
46969SOL    HW242805   7.614  13.961   5.485
46970SOL     OW42806   5.244   1.037   5.041
46970SOL    HW142807   5.178   1.000   5.099
46970SOL    HW242808   5.299   1.091   5.099
46971SOL     OW42809   1.649  10.521   4.861
46971SOL    HW142810   1.661  10.583   4.933
46971SOL    HW242811   1.567  10.477   4.881
46972SOL     OW42812   8.535  11.055  10.017
46972SOL    HW142813   8.569  10.977   9.973
46972SOL    HW242814   8.536  11.123   9.950
46973SOL     OW42815   6.875   7.467   3.584
46973SOL    HW142816   6.823   7.539   3.619
46973SOL    HW242817   6.833   7.388   3.618
46974SOL     OW42818  11.441   3.086  12.458
46974SOL    HW142819  11.462   3.154  12.522
46974SOL    HW242820  11.419   3.009  12.510
46975SOL     OW42821   9.532  14.819   0.530
46975SOL    HW142822   9.442  14.787   0.527
46975SOL    HW242823   9.561  14.802   0.620
46976SOL     OW42824  13.537   6.518  10.742
46976SOL    HW142825  13.489   6.580  10.796
46976SOL    HW242826  13.536   6.556  10.655
46977SOL     OW42827  13.450   6.430  12.584
46977SOL    HW142828  13.528   6.466  12.625
46977SOL    HW242829  13.377   6.464  12.636
46978SOL     OW42830  10.556   0.030   8.299
46978SOL    HW142831  10.556   0.078   8.216
46978SOL    HW242832  10.531  14.824   8.275
46979SOL     OW42833   5.650   4.954  12.146
46979SOL    HW142834   5.692   4.868  12.153
46979SOL    HW242835   5.706   5.012  12.197
46980SOL     OW42836  10.998  13.829  13.403
46980SOL    HW142837  10.978  13.913  13.444
46980SOL    HW242838  10.961  13.836  13.315
46981SOL     OW42839   7.779   8.254  14.215
46981SOL    HW142840   7.709   8.246  14.280
46981SOL    HW242841   7.740   8.227  14.132
46982SOL     OW42842   6.185  10.858   4.103
46982SOL    HW142843   6.176  10.766   4.128
46982SOL    HW242844   6.255  10.892   4.158
46983SOL     OW42845   2.833   5.914  11.976
46983SOL    HW142846   2.794   5.895  11.891
46983SOL    HW242847   2.767   5.966  12.022
46984SOL     OW42848   7.923  14.436   7.711
46984SOL    HW142849   7.912  14.454   7.804
46984SOL    HW242850   7.835  14.414   7.680
46985SOL     OW42851   3.223  11.730   6.433
46985SOL    HW142852   3.297  11.781   6.401
46985SOL    HW242853   3.194  11.776   6.511
46986SOL     OW42854   2.889   2.325   9.689
46986SOL    HW142855   2.893   2.384   9.764
46986SOL    HW242856   2.827   2.256   9.715
46987SOL     OW42857   7.945  12.613   5.306
46987SOL    HW142858   7.934  12.696   5.261
46987SOL    HW242859   7.926  12.547   5.239
46988SOL     OW42860   0.502  10.766   6.143
46988SOL    HW142861   0.575  10.710   6.169
46988SOL    HW242862   0.455  10.715   6.078
46989SOL     OW42863   3.237  13.304  10.042
46989SOL    HW142864   3.195  13.298   9.956
46989SOL    HW242865   3.202  13.386  10.079
46990SOL     OW42866   1.559   3.613  12.886
46990SOL    HW142867   1.470   3.596  12.917
46990SOL    HW242868   1.616   3.587  12.958
46991SOL     OW42869   9.624   7.252  12.540
46991SOL    HW142870   9.659   7.340  12.523
46991SOL    HW242871   9.549   7.267  12.598
46992SOL     OW42872   9.258   3.399   7.598
46992SOL    HW142873   9.248   3.445   7.515
46992SOL    HW242874   9.277   3.467   7.661
46993SOL     OW42875   2.865   9.534   0.333
46993SOL    HW142876   2.907   9.573   0.257
46993SOL    HW242877   2.895   9.443   0.333
46994SOL     OW42878   1.792   7.192  14.854
46994SOL    HW142879   1.713   7.209   0.023
46994SOL    HW242880   1.857   7.254   0.006
46995SOL     OW42881   0.442   1.565   7.916
46995SOL    HW142882   0.496   1.556   7.837
46995SOL    HW242883   0.497   1.615   7.976
46996SOL     OW42884   6.122   7.240  13.267
46996SOL    HW142885   6.125   7.325  13.223
46996SOL    HW242886   6.159   7.255  13.353
46997SOL     OW42887  14.802   9.520   8.910
46997SOL    HW142888  14.718   9.562   8.930
46997SOL    HW242889  14.779   9.436   8.872
46998SOL     OW42890   6.186  14.166   5.575
46998SOL    HW142891   6.278  14.151   5.554
46998SOL    HW242892   6.170  14.257   5.548
46999SOL     OW42893   9.759  13.637   0.684
46999SOL    HW142894   9.761  13.627   0.589
46999SOL    HW242895   9.831  13.698   0.703
47000SOL     OW42896   2.452   0.787   5.736
47000SOL    HW142897   2.431   0.822   5.822
47000SOL    HW242898   2.456   0.864   5.679
47001SOL     OW42899   3.462   0.510   9.588
47001SOL    HW142900   3.533   0.446   9.584
47001SOL    HW242901   3.494   0.586   9.539
47002SOL     OW42902  11.872  13.813  12.242
47002SOL    HW142903  11.797  13.765  12.279
47002SOL    HW242904  11.938  13.746  12.226
47003SOL     OW42905   5.849   7.722  11.702
47003SOL    HW142906   5.925   7.768  11.667
47003SOL    HW242907   5.835   7.761  11.789
47004SOL     OW42908   0.170   7.580  14.862
47004SOL    HW142909   0.257   7.606   0.010
47004SOL    HW242910   0.175   7.485  14.854
47005SOL     OW42911   2.437   6.049   4.671
47005SOL    HW142912   2.370   6.113   4.695
47005SOL    HW242913   2.501   6.052   4.742
47006SOL     OW42914   8.212   6.418   0.922
47006SOL    HW142915   8.258   6.423   1.005
47006SOL    HW242916   8.119   6.420   0.946
47007SOL     OW42917   4.460  14.714   2.089
47007SOL    HW142918   4.473  14.765   2.009
47007SOL    HW242919   4.456  14.623   2.059
47008SOL     OW42920  11.901   9.629   9.871
47008SOL    HW142921  11.977   9.628   9.813
47008SOL    HW242922  11.856   9.711   9.850
47009SOL     OW42923   8.308   6.545  14.667
47009SOL    HW142924   8.347   6.583  14.588
47009SOL    HW242925   8.377   6.548  14.732
47010SOL     OW42926   7.229  13.965  10.966
47010SOL    HW142927   7.316  13.993  10.935
47010SOL    HW242928   7.197  13.907  10.896
47011SOL     OW42929   4.770  10.321   1.937
47011SOL    HW142930   4.686  10.281   1.959
47011SOL    HW242931   4.797  10.276   1.857
47012SOL     OW42932   7.958  11.715   8.301
47012SOL    HW142933   8.015  11.780   8.259
47012SOL    HW242934   7.950  11.645   8.236
47013SOL     OW42935   4.443   1.182   4.542
47013SOL    HW142936   4.399   1.267   4.532
47013SOL    HW242937   4.399   1.125   4.479
47014SOL     OW42938   4.149   5.249   3.563
47014SOL    HW142939   4.109   5.321   3.515
47014SOL    HW242940   4.236   5.239   3.525
47015SOL     OW42941  13.530   1.623   5.524
47015SOL    HW142942  13.458   1.566   5.499
47015SOL    HW242943  13.488   1.702   5.558
47016SOL     OW42944   9.664   6.871   1.246
47016SOL    HW142945   9.654   6.961   1.214
47016SOL    HW242946   9.730   6.832   1.189
47017SOL     OW42947  14.631   9.649   5.451
47017SOL    HW142948  14.638   9.730   5.401
47017SOL    HW242949  14.553   9.661   5.505
47018SOL     OW42950   1.002   1.420  12.230
47018SOL    HW142951   1.083   1.470  12.222
47018SOL    HW242952   0.934   1.486  12.245
47019SOL     OW42953   7.637   6.239  12.558
47019SOL    HW142954   7.592   6.318  12.586
47019SOL    HW242955   7.584   6.167  12.592
47020SOL     OW42956   6.417   2.155  13.516
47020SOL    HW142957   6.325   2.178  13.504
47020SOL    HW242958   6.416   2.084  13.580
47021SOL     OW42959   1.754   7.003   7.885
47021SOL    HW142960   1.800   7.035   7.808
47021SOL    HW242961   1.668   7.044   7.882
47022SOL     OW42962   0.522   0.338   6.509
47022SOL    HW142963   0.567   0.421   6.498
47022SOL    HW242964   0.470   0.349   6.589
47023SOL     OW42965   7.456   7.957   6.910
47023SOL    HW142966   7.512   7.892   6.867
47023SOL    HW242967   7.508   8.037   6.910
47024SOL     OW42968   7.066  10.630   0.728
47024SOL    HW142969   6.989  10.576   0.709
47024SOL    HW242970   7.128  10.570   0.770
47025SOL     OW42971   6.423   2.439  13.383
47025SOL    HW142972   6.332   2.431  13.412
47025SOL    HW242973   6.471   2.373  13.433
47026SOL     OW42974   9.844  13.267   4.932
47026SOL    HW142975   9.911  13.310   4.985
47026SOL    HW242976   9.885  13.186   4.902
47027SOL     OW42977   0.435   1.547  10.404
47027SOL    HW142978   0.396   1.505  10.481
47027SOL    HW242979   0.375   1.619  10.384
47028SOL     OW42980   4.621   7.107   1.103
47028SOL    HW142981   4.689   7.149   1.049
47028SOL    HW242982   4.568   7.059   1.040
47029SOL     OW42983   0.795   8.352   2.105
47029SOL    HW142984   0.755   8.424   2.057
47029SOL    HW242985   0.733   8.334   2.176
47030SOL     OW42986   5.869   9.331   3.712
47030SOL    HW142987   5.805   9.283   3.660
47030SOL    HW242988   5.836   9.325   3.802
47031SOL     OW42989   8.098   1.209  11.239
47031SOL    HW142990   8.068   1.147  11.306
47031SOL    HW242991   8.163   1.161  11.188
47032SOL     OW42992   1.102  10.543  13.908
47032SOL    HW142993   1.170  10.479  13.885
47032SOL    HW242994   1.131  10.581  13.990
47033SOL     OW42995  11.510  11.254   9.637
47033SOL    HW142996  11.539  11.252   9.728
47033SOL    HW242997  11.515  11.163   9.608
47034SOL     OW42998   2.632   0.811   3.620
47034SOL    HW142999   2.655   0.880   3.682
47034SOL    HW243000   2.695   0.821   3.549
47035SOL     OW43001   7.391  11.610   1.478
47035SOL    HW143002   7.450  11.614   1.403
47035SOL    HW243003   7.318  11.554   1.450
47036SOL     OW43004   5.452  13.986   3.475
47036SOL    HW143005   5.498  13.954   3.552
47036SOL    HW243006   5.459  14.081   3.481
47037SOL     OW43007   3.208  12.247  11.656
47037SOL    HW143008   3.148  12.304  11.607
47037SOL    HW243009   3.155  12.173  11.683
47038SOL     OW43010   1.038   2.666  10.691
47038SOL    HW143011   1.074   2.618  10.765
47038SOL    HW243012   1.099   2.650  10.620
47039SOL     OW43013   3.730   7.737   4.046
47039SOL    HW143014   3.735   7.768   3.956
47039SOL    HW243015   3.817   7.700   4.064
47040SOL     OW43016   0.881   5.013   8.232
47040SOL    HW143017   0.806   5.054   8.275
47040SOL    HW243018   0.952   5.022   8.295
47041SOL     OW43019  13.476   1.047   9.988
47041SOL    HW143020  13.486   1.095   9.905
47041SOL    HW243021  13.430   1.108  10.045
47042SOL     OW43022   8.545  13.311  14.573
47042SOL    HW143023   8.564  13.253  14.647
47042SOL    HW243024   8.508  13.389  14.613
47043SOL     OW43025   3.132  10.155   4.259
47043SOL    HW143026   3.113  10.234   4.209
47043SOL    HW243027   3.206  10.115   4.214
47044SOL     OW43028   5.665   0.927   4.214
47044SOL    HW143029   5.663   1.014   4.253
47044SOL    HW243030   5.573   0.903   4.203
47045SOL     OW43031  11.078   9.905   4.327
47045SOL    HW143032  11.022   9.914   4.404
47045SOL    HW243033  11.167   9.900   4.362
47046SOL     OW43034  13.501   9.496   0.711
47046SOL    HW143035  13.482   9.509   0.618
47046SOL    HW243036  13.454   9.416   0.734
47047SOL     OW43037   9.432  12.270  10.463
47047SOL    HW143038   9.490  12.346  10.464
47047SOL    HW243039   9.388  12.275  10.378
47048SOL     OW43040   6.477   6.168   2.664
47048SOL    HW143041   6.450   6.250   2.623
47048SOL    HW243042   6.573   6.174   2.666
47049SOL     OW43043   6.238  14.309   2.431
47049SOL    HW143044   6.162  14.330   2.377
47049SOL    HW243045   6.312  14.310   2.370
47050SOL     OW43046  11.862   4.523   5.837
47050SOL    HW143047  11.844   4.481   5.753
47050SOL    HW243048  11.784   4.506   5.890
47051SOL     OW43049   6.293   5.906   4.333
47051SOL    HW143050   6.336   5.855   4.402
47051SOL    HW243051   6.280   5.993   4.372
47052SOL     OW43052   4.100   9.870   6.094
47052SOL    HW143053   4.142   9.838   6.174
47052SOL    HW243054   4.145   9.953   6.075
47053SOL     OW43055   3.610   8.203  14.822
47053SOL    HW143056   3.622   8.116  14.785
47053SOL    HW243057   3.576   8.256  14.749
47054SOL     OW43058   8.702   6.725  11.335
47054SOL    HW143059   8.737   6.807  11.369
47054SOL    HW243060   8.768   6.659  11.356
47055SOL     OW43061  11.592   5.736   0.619
47055SOL    HW143062  11.529   5.807   0.627
47055SOL    HW243063  11.637   5.752   0.536
47056SOL     OW43064   8.616   0.488   5.592
47056SOL    HW143065   8.542   0.494   5.652
47056SOL    HW243066   8.692   0.508   5.647
47057SOL     OW43067  10.082  13.733  13.952
47057SOL    HW143068  10.088  13.645  13.988
47057SOL    HW243069  10.164  13.775  13.978
47058SOL     OW43070   9.150   7.854   6.131
47058SOL    HW143071   9.063   7.888   6.152
47058SOL    HW243072   9.202   7.872   6.210
47059SOL     OW43073   2.144  10.543   8.678
47059SOL    HW143074   2.080  10.603   8.640
47059SOL    HW243075   2.200  10.599   8.732
47060SOL     OW43076  11.943   0.369   1.531
47060SOL    HW143077  11.929   0.342   1.441
47060SOL    HW243078  11.959   0.463   1.526
47061SOL     OW43079   8.791  14.158  13.026
47061SOL    HW143080   8.804  14.230  13.089
47061SOL    HW243081   8.697  14.163  13.005
47062SOL     OW43082   7.709  10.449   7.371
47062SOL    HW143083   7.657  10.499   7.434
47062SOL    HW243084   7.768  10.513   7.332
47063SOL     OW43085   3.605   7.332  13.614
47063SOL    HW143086   3.667   7.259  13.614
47063SOL    HW243087   3.627   7.382  13.536
47064SOL     OW43088   7.935   9.649  13.435
47064SOL    HW143089   7.870   9.596  13.390
47064SOL    HW243090   8.001   9.586  13.464
47065SOL     OW43091   2.444   8.674   2.930
47065SOL    HW143092   2.513   8.650   2.992
47065SOL    HW243093   2.444   8.770   2.931
47066SOL     OW43094   6.701  10.794   2.101
47066SOL    HW143095   6.658  10.865   2.053
47066SOL    HW243096   6.647  10.717   2.083
47067SOL     OW43097  13.205   2.192   1.185
47067SOL    HW143098  13.183   2.236   1.267
47067SOL    HW243099  13.206   2.099   1.207
47068SOL     OW43100  11.229  11.281   7.126
47068SOL    HW143101  11.139  11.273   7.157
47068SOL    HW243102  11.221  11.313   7.036
47069SOL     OW43103  11.872  13.985   1.431
47069SOL    HW143104  11.867  14.035   1.349
47069SOL    HW243105  11.865  14.050   1.500
47070SOL     OW43106  12.487  14.446  13.052
47070SOL    HW143107  12.485  14.358  13.015
47070SOL    HW243108  12.459  14.434  13.142
47071SOL     OW43109  13.056   1.440   2.091
47071SOL    HW143110  13.147   1.469   2.104
47071SOL    HW243111  13.050   1.423   1.997
47072SOL     OW43112   1.353   8.453  12.255
47072SOL    HW143113   1.443   8.486  12.262
47072SOL    HW243114   1.326   8.442  12.346
47073SOL     OW43115  14.054  12.266  13.951
47073SOL    HW143116  14.015  12.198  14.005
47073SOL    HW243117  14.112  12.219  13.891
47074SOL     OW43118   2.437   7.314  14.064
47074SOL    HW143119   2.398   7.254  14.127
47074SOL    HW243120   2.373   7.385  14.055
47075SOL     OW43121   5.749   8.822   7.701
47075SOL    HW143122   5.770   8.737   7.664
47075SOL    HW243123   5.750   8.882   7.626
47076SOL     OW43124   6.909   3.437  12.690
47076SOL    HW143125   6.873   3.351  12.709
47076SOL    HW243126   7.000   3.432  12.717
47077SOL     OW43127  14.677   9.781   3.371
47077SOL    HW143128  14.692   9.817   3.283
47077SOL    HW243129  14.754   9.806   3.421
47078SOL     OW43130   2.177   8.192   7.179
47078SOL    HW143131   2.118   8.117   7.181
47078SOL    HW243132   2.263   8.156   7.199
47079SOL     OW43133  10.231   5.835   0.149
47079SOL    HW143134  10.223   5.829   0.054
47079SOL    HW243135  10.268   5.922   0.165
47080SOL     OW43136   4.346   7.829   5.975
47080SOL    HW143137   4.365   7.788   6.059
47080SOL    HW243138   4.275   7.890   5.993
47081SOL     OW43139   9.824   4.814   9.775
47081SOL    HW143140   9.735   4.848   9.762
47081SOL    HW243141   9.819   4.764   9.857
47082SOL     OW43142   7.916   2.958   9.856
47082SOL    HW143143   7.948   2.998   9.775
47082SOL    HW243144   7.847   2.898   9.828
47083SOL     OW43145   0.574   4.114   0.553
47083SOL    HW143146   0.532   4.108   0.638
47083SOL    HW243147   0.667   4.125   0.573
47084SOL     OW43148   1.921  10.609  11.204
47084SOL    HW143149   1.885  10.528  11.168
47084SOL    HW243150   1.988  10.636  11.141
47085SOL     OW43151   0.081   3.233  10.245
47085SOL    HW143152   0.161   3.201  10.286
47085SOL    HW243153   0.014   3.225  10.313
47086SOL     OW43154  12.072   4.931   3.450
47086SOL    HW143155  12.032   4.921   3.537
47086SOL    HW243156  12.047   4.852   3.403
47087SOL     OW43157   6.689   4.686   0.953
47087SOL    HW143158   6.644   4.670   0.870
47087SOL    HW243159   6.782   4.683   0.931
47088SOL     OW43160  10.966   4.485   5.113
47088SOL    HW143161  11.050   4.466   5.155
47088SOL    HW243162  10.989   4.528   5.031
47089SOL     OW43163  11.721  13.551   9.447
47089SOL    HW143164  11.810  13.560   9.412
47089SOL    HW243165  11.710  13.626   9.505
47090SOL     OW43166  13.305   8.308  13.084
47090SOL    HW143167  13.230   8.290  13.027
47090SOL    HW243168  13.377   8.326  13.025
47091SOL     OW43169   7.227   8.521  13.866
47091SOL    HW143170   7.291   8.461  13.904
47091SOL    HW243171   7.280   8.584  13.817
47092SOL     OW43172   2.325   7.065   5.837
47092SOL    HW143173   2.267   7.123   5.887
47092SOL    HW243174   2.288   7.065   5.749
47093SOL     OW43175  14.226  11.349  11.826
47093SOL    HW143176  14.197  11.266  11.789
47093SOL    HW243177  14.322  11.347  11.815
47094SOL     OW43178   1.066   1.892  10.391
47094SOL    HW143179   1.110   1.815  10.428
47094SOL    HW243180   1.010   1.924  10.462
47095SOL     OW43181   1.501  14.267  11.103
47095SOL    HW143182   1.447  14.210  11.048
47095SOL    HW243183   1.441  14.302  11.168
47096SOL     OW43184   9.546   0.616   3.090
47096SOL    HW143185   9.605   0.622   3.015
47096SOL    HW243186   9.548   0.703   3.129
47097SOL     OW43187   4.041   8.972   1.673
47097SOL    HW143188   3.955   9.000   1.703
47097SOL    HW243189   4.045   8.878   1.692
47098SOL     OW43190   6.388   2.694  12.983
47098SOL    HW143191   6.404   2.634  13.056
47098SOL    HW243192   6.467   2.749  12.979
47099SOL     OW43193   0.523   2.639  13.286
47099SOL    HW143194   0.520   2.566  13.225
47099SOL    HW243195   0.587   2.700  13.249
47100SOL     OW43196  12.328   9.975   5.493
47100SOL    HW143197  12.322   9.879   5.495
47100SOL    HW243198  12.356   9.999   5.581
47101SOL     OW43199   4.660   9.151  11.827
47101SOL    HW143200   4.627   9.172  11.915
47101SOL    HW243201   4.683   9.058  11.832
47102SOL     OW43202   3.601   8.331   2.941
47102SOL    HW143203   3.515   8.311   2.978
47102SOL    HW243204   3.586   8.338   2.847
47103SOL     OW43205   9.693   9.844   8.238
47103SOL    HW143206   9.737   9.820   8.320
47103SOL    HW243207   9.764   9.855   8.175
47104SOL     OW43208   3.267   1.877   5.393
47104SOL    HW143209   3.188   1.905   5.441
47104SOL    HW243210   3.338   1.887   5.456
47105SOL     OW43211   6.124  13.972  13.056
47105SOL    HW143212   6.196  14.023  13.020
47105SOL    HW243213   6.165  13.895  13.094
47106SOL     OW43214   8.237  11.660   3.875
47106SOL    HW143215   8.210  11.699   3.792
47106SOL    HW243216   8.200  11.717   3.942
47107SOL     OW43217   5.528  10.783  11.900
47107SOL    HW143218   5.483  10.760  11.819
47107SOL    HW243219   5.458  10.792  11.964
47108SOL     OW43220   4.266   2.190  12.515
47108SOL    HW143221   4.273   2.106  12.471
47108SOL    HW243222   4.300   2.253  12.452
47109SOL     OW43223   1.816   4.665   3.809
47109SOL    HW143224   1.768   4.584   3.825
47109SOL    HW243225   1.772   4.705   3.734
47110SOL     OW43226   1.318  12.542   7.770
47110SOL    HW143227   1.395  12.559   7.716
47110SOL    HW243228   1.253  12.507   7.709
47111SOL     OW43229   3.861   7.595   0.469
47111SOL    HW143230   3.892   7.517   0.422
47111SOL    HW243231   3.828   7.653   0.400
47112SOL     OW43232  14.373   2.280   6.205
47112SOL    HW143233  14.324   2.355   6.239
47112SOL    HW243234  14.370   2.216   6.276
47113SOL     OW43235   8.920   9.182   3.436
47113SOL    HW143236   8.880   9.268   3.436
47113SOL    HW243237   8.994   9.190   3.375
47114SOL     OW43238   2.966  12.976   8.651
47114SOL    HW143239   2.977  12.893   8.698
47114SOL    HW243240   3.004  13.041   8.710
47115SOL     OW43241   9.364  12.003   8.037
47115SOL    HW143242   9.343  11.974   7.948
47115SOL    HW243243   9.460  11.999   8.042
47116SOL     OW43244  12.832   9.959   7.601
47116SOL    HW143245  12.892   9.995   7.536
47116SOL    HW243246  12.823  10.029   7.666
47117SOL     OW43247  11.621   9.315   1.762
47117SOL    HW143248  11.619   9.367   1.682
47117SOL    HW243249  11.629   9.224   1.731
47118SOL     OW43250   7.087  10.079   3.671
47118SOL    HW143251   7.146  10.153   3.654
47118SOL    HW243252   7.145  10.004   3.683
47119SOL     OW43253  13.314   8.652   4.361
47119SOL    HW143254  13.360   8.655   4.278
47119SOL    HW243255  13.276   8.739   4.372
47120SOL     OW43256  14.416   8.707  10.255
47120SOL    HW143257  14.335   8.695  10.305
47120SOL    HW243258  14.429   8.802  10.254
47121SOL     OW43259  14.256   9.087   1.355
47121SOL    HW143260  14.351   9.100   1.358
47121SOL    HW243261  14.224   9.124   1.437
47122SOL     OW43262   3.973   3.035   9.033
47122SOL    HW143263   4.009   3.017   8.946
47122SOL    HW243264   4.050   3.057   9.086
47123SOL     OW43265   9.360   9.866   6.993
47123SOL    HW143266   9.395   9.954   6.975
47123SOL    HW243267   9.281   9.860   6.939
47124SOL     OW43268   3.610   4.087  11.635
47124SOL    HW143269   3.574   4.014  11.584
47124SOL    HW243270   3.644   4.148  11.570
47125SOL     OW43271   8.963  11.516   9.779
47125SOL    HW143272   8.994  11.462   9.706
47125SOL    HW243273   8.995  11.473   9.857
47126SOL     OW43274   3.172  10.457  11.137
47126SOL    HW143275   3.176  10.547  11.167
47126SOL    HW243276   3.151  10.406  11.215
47127SOL     OW43277  12.887  13.470   2.713
47127SOL    HW143278  12.906  13.432   2.628
47127SOL    HW243279  12.973  13.485   2.753
47128SOL     OW43280  14.517   8.616   1.856
47128SOL    HW143281  14.591   8.582   1.905
47128SOL    HW243282  14.491   8.696   1.901
47129SOL     OW43283   5.182  12.725   9.285
47129SOL    HW143284   5.102  12.777   9.278
47129SOL    HW243285   5.185  12.674   9.203
47130SOL     OW43286  11.239   8.880   5.253
47130SOL    HW143287  11.265   8.938   5.180
47130SOL    HW243288  11.199   8.939   5.316
47131SOL     OW43289  14.164  13.945   9.502
47131SOL    HW143290  14.125  13.973   9.585
47131SOL    HW243291  14.100  13.884   9.464
47132SOL     OW43292   0.986   4.009  13.348
47132SOL    HW143293   1.003   4.033  13.439
47132SOL    HW243294   0.984   3.913  13.348
47133SOL     OW43295   1.594   6.597   2.963
47133SOL    HW143296   1.626   6.684   2.986
47133SOL    HW243297   1.617   6.586   2.871
47134SOL     OW43298  13.844   4.921  11.618
47134SOL    HW143299  13.782   4.851  11.640
47134SOL    HW243300  13.844   4.923  11.522
47135SOL     OW43301   7.384   5.435  12.214
47135SOL    HW143302   7.329   5.476  12.280
47135SOL    HW243303   7.330   5.429  12.136
47136SOL     OW43304   1.694  11.024   1.422
47136SOL    HW143305   1.718  11.009   1.513
47136SOL    HW243306   1.773  11.063   1.383
47137SOL     OW43307  13.666   8.864  13.318
47137SOL    HW143308  13.718   8.795  13.277
47137SOL    HW243309  13.576   8.831  13.318
47138SOL     OW43310  14.232   1.783   9.833
47138SOL    HW143311  14.303   1.743   9.783
47138SOL    HW243312  14.274   1.818   9.911
47139SOL     OW43313   6.874   5.971   4.691
47139SOL    HW143314   6.805   5.925   4.740
47139SOL    HW243315   6.898   6.045   4.747
47140SOL     OW43316   8.544   7.720  11.976
47140SOL    HW143317   8.598   7.764  12.042
47140SOL    HW243318   8.495   7.790  11.933
47141SOL     OW43319   2.678   7.987  12.175
47141SOL    HW143320   2.681   8.023  12.264
47141SOL    HW243321   2.766   7.950  12.161
47142SOL     OW43322   8.182  10.757   4.408
47142SOL    HW143323   8.271  10.790   4.425
47142SOL    HW243324   8.195  10.665   4.386
47143SOL     OW43325   6.706   4.510   5.382
47143SOL    HW143326   6.642   4.486   5.448
47143SOL    HW243327   6.742   4.594   5.411
47144SOL     OW43328   7.629   7.534   6.901
47144SOL    HW143329   7.535   7.538   6.921
47144SOL    HW243330   7.665   7.477   6.969
47145SOL     OW43331   0.596   3.206  10.533
47145SOL    HW143332   0.663   3.159  10.483
47145SOL    HW243333   0.631   3.295  10.541
47146SOL     OW43334   7.763   9.761  10.185
47146SOL    HW143335   7.800   9.777  10.098
47146SOL    HW243336   7.805   9.681  10.215
47147SOL     OW43337   5.389   5.872   0.665
47147SOL    HW143338   5.365   5.854   0.574
47147SOL    HW243339   5.483   5.853   0.669
47148SOL     OW43340   4.986  12.207   0.921
47148SOL    HW143341   4.968  12.115   0.941
47148SOL    HW243342   4.956  12.218   0.831
47149SOL     OW43343  13.218   6.127   6.956
47149SOL    HW143344  13.186   6.210   6.920
47149SOL    HW243345  13.190   6.128   7.047
47150SOL     OW43346  14.753   2.375   1.785
47150SOL    HW143347  14.716   2.312   1.848
47150SOL    HW243348  14.744   2.460   1.828
47151SOL     OW43349   8.480  11.518   8.742
47151SOL    HW143350   8.388  11.544   8.745
47151SOL    HW243351   8.508  11.514   8.833
47152SOL     OW43352   1.678   3.051  14.567
47152SOL    HW143353   1.749   2.992  14.591
47152SOL    HW243354   1.600   2.995  14.560
47153SOL     OW43355   7.933   8.710   2.830
47153SOL    HW143356   7.929   8.625   2.787
47153SOL    HW243357   7.928   8.691   2.923
47154SOL     OW43358  13.363   4.511   5.072
47154SOL    HW143359  13.457   4.515   5.055
47154SOL    HW243360  13.324   4.491   4.987
47155SOL     OW43361  12.987   0.250   1.126
47155SOL    HW143362  12.964   0.260   1.218
47155SOL    HW243363  12.955   0.163   1.103
47156SOL     OW43364   2.195  11.917  13.790
47156SOL    HW143365   2.144  11.898  13.869
47156SOL    HW243366   2.158  11.860  13.723
47157SOL     OW43367   3.166   6.727  10.605
47157SOL    HW143368   3.094   6.756  10.549
47157SOL    HW243369   3.169   6.632  10.594
47158SOL     OW43370   2.205   4.857   7.484
47158SOL    HW143371   2.240   4.945   7.477
47158SOL    HW243372   2.272   4.801   7.443
47159SOL     OW43373   4.844   1.838   9.863
47159SOL    HW143374   4.861   1.891   9.785
47159SOL    HW243375   4.920   1.852   9.919
47160SOL     OW43376  13.951  10.971  11.788
47160SOL    HW143377  14.019  10.966  11.721
47160SOL    HW243378  13.987  11.030  11.854
47161SOL     OW43379   1.883   1.980   5.655
47161SOL    HW143380   1.858   2.002   5.565
47161SOL    HW243381   1.812   1.923   5.686
47162SOL     OW43382   6.845   7.890  12.714
47162SOL    HW143383   6.864   7.922  12.626
47162SOL    HW243384   6.803   7.805  12.700
47163SOL     OW43385  13.234   8.040   6.585
47163SOL    HW143386  13.312   8.005   6.629
47163SOL    HW243387  13.268   8.098   6.517
47164SOL     OW43388   5.387   3.760  13.086
47164SOL    HW143389   5.366   3.849  13.115
47164SOL    HW243390   5.472   3.768  13.043
47165SOL     OW43391   8.759  12.297   1.829
47165SOL    HW143392   8.833  12.301   1.891
47165SOL    HW243393   8.752  12.204   1.807
47166SOL     OW43394  10.493  13.270   5.805
47166SOL    HW143395  10.525  13.201   5.862
47166SOL    HW243396  10.566  13.331   5.796
47167SOL     OW43397   9.573   8.594   8.533
47167SOL    HW143398   9.668   8.583   8.535
47167SOL    HW243399   9.538   8.512   8.570
47168SOL     OW43400  13.709  13.452   1.415
47168SOL    HW143401  13.700  13.358   1.434
47168SOL    HW243402  13.785  13.457   1.356
47169SOL     OW43403   1.838   5.206   6.781
47169SOL    HW143404   1.833   5.193   6.686
47169SOL    HW243405   1.810   5.122   6.818
47170SOL     OW43406   4.449   8.538   9.848
47170SOL    HW143407   4.543   8.525   9.856
47170SOL    HW243408   4.439   8.632   9.832
47171SOL     OW43409   1.009   4.388   9.177
47171SOL    HW143410   1.006   4.293   9.166
47171SOL    HW243411   1.063   4.420   9.104
47172SOL     OW43412   1.716   4.454   6.992
47172SOL    HW143413   1.719   4.446   7.087
47172SOL    HW243414   1.624   4.435   6.969
47173SOL     OW43415   2.557   0.091  11.970
47173SOL    HW143416   2.564   0.012  11.916
47173SOL    HW243417   2.531   0.059  12.056
47174SOL     OW43418  12.526  12.458  10.689
47174SOL    HW143419  12.596  12.393  10.685
47174SOL    HW243420  12.487  12.458  10.601
47175SOL     OW43421   2.938   8.701  10.839
47175SOL    HW143422   2.877   8.627  10.837
47175SOL    HW243423   2.982   8.698  10.754
47176SOL     OW43424   0.254  13.626   4.889
47176SOL    HW143425   0.217  13.694   4.833
47176SOL    HW243426   0.225  13.544   4.850
47177SOL     OW43427   9.201  14.744   9.602
47177SOL    HW143428   9.125  14.711   9.554
47177SOL    HW243429   9.184  14.837   9.615
47178SOL     OW43430   8.809  12.968  12.353
47178SOL    HW143431   8.754  12.949  12.277
47178SOL    HW243432   8.778  13.053  12.385
47179SOL     OW43433   2.281   8.527   2.713
47179SOL    HW143434   2.210   8.591   2.710
47179SOL    HW243435   2.285   8.501   2.805
47180SOL     OW43436   5.812   6.268   1.033
47180SOL    HW143437   5.769   6.214   1.099
47180SOL    HW243438   5.826   6.353   1.075
47181SOL     OW43439   9.834  14.833  10.714
47181SOL    HW143440   9.823  14.769  10.643
47181SOL    HW243441   9.755   0.003  10.712
47182SOL     OW43442   5.962  11.641   8.786
47182SOL    HW143443   6.033  11.587   8.752
47182SOL    HW243444   6.003  11.725   8.806
47183SOL     OW43445   3.343   5.861  13.205
47183SOL    HW143446   3.293   5.792  13.161
47183SOL    HW243447   3.342   5.837  13.297
47184SOL     OW43448   7.557   2.757  14.566
47184SOL    HW143449   7.561   2.729  14.658
47184SOL    HW243450   7.504   2.690  14.523
47185SOL     OW43451   8.507   8.394   3.334
47185SOL    HW143452   8.542   8.465   3.387
47185SOL    HW243453   8.567   8.387   3.260
47186SOL     OW43454   0.834   8.032   9.988
47186SOL    HW143455   0.854   8.088  10.064
47186SOL    HW243456   0.812   7.947  10.027
47187SOL     OW43457   6.402   0.513  13.111
47187SOL    HW143458   6.411   0.419  13.100
47187SOL    HW243459   6.481   0.540  13.158
47188SOL     OW43460   2.931  10.547   5.911
47188SOL    HW143461   3.002  10.600   5.947
47188SOL    HW243462   2.852  10.601   5.923
47189SOL     OW43463   3.457   4.566   0.081
47189SOL    HW143464   3.490   4.515   0.154
47189SOL    HW243465   3.467   4.509   0.005
47190SOL     OW43466  11.819   4.967  13.962
47190SOL    HW143467  11.872   4.890  13.943
47190SOL    HW243468  11.746   4.962  13.901
47191SOL     OW43469   2.402   9.688  10.399
47191SOL    HW143470   2.435   9.755  10.339
47191SOL    HW243471   2.321   9.656  10.357
47192SOL     OW43472  14.011  12.619   7.897
47192SOL    HW143473  13.953  12.544   7.890
47192SOL    HW243474  14.092  12.584   7.933
47193SOL     OW43475   8.698   3.635   7.478
47193SOL    HW143476   8.735   3.713   7.521
47193SOL    HW243477   8.612   3.624   7.519
47194SOL     OW43478   6.824  12.074   1.067
47194SOL    HW143479   6.747  12.120   1.097
47194SOL    HW243480   6.792  11.989   1.036
47195SOL     OW43481  10.471  11.423  10.182
47195SOL    HW143482  10.550  11.370  10.187
47195SOL    HW243483  10.450  11.428  10.089
47196SOL     OW43484   9.844  10.647   0.721
47196SOL    HW143485   9.756  10.664   0.687
47196SOL    HW243486   9.897  10.721   0.691
47197SOL     OW43487   9.965   4.944   8.979
47197SOL    HW143488   9.934   4.939   9.069
47197SOL    HW243489  10.058   4.965   8.988
47198SOL     OW43490  10.965   6.616   9.857
47198SOL    HW143491  10.903   6.685   9.880
47198SOL    HW243492  10.946   6.595   9.766
47199SOL     OW43493   5.335  11.647   8.317
47199SOL    HW143494   5.253  11.657   8.365
47199SOL    HW243495   5.403  11.647   8.385
47200SOL     OW43496   9.877   5.950  10.004
47200SOL    HW143497   9.891   5.860   9.976
47200SOL    HW243498   9.861   5.998   9.923
47201SOL     OW43499   7.719   4.873   7.065
47201SOL    HW143500   7.682   4.785   7.072
47201SOL    HW243501   7.775   4.882   7.142
47202SOL     OW43502  12.926   4.389  10.122
47202SOL    HW143503  12.957   4.386  10.031
47202SOL    HW243504  12.914   4.482  10.140
47203SOL     OW43505   5.642   6.385   9.273
47203SOL    HW143506   5.634   6.386   9.177
47203SOL    HW243507   5.678   6.471   9.295
47204SOL     OW43508   4.226  12.953   4.329
47204SOL    HW143509   4.212  12.858   4.335
47204SOL    HW243510   4.250  12.968   4.238
47205SOL     OW43511   2.942   1.516   2.324
47205SOL    HW143512   2.922   1.440   2.378
47205SOL    HW243513   3.031   1.502   2.293
47206SOL     OW43514   7.853  12.815   2.382
47206SOL    HW143515   7.899  12.898   2.377
47206SOL    HW243516   7.788  12.819   2.312
47207SOL     OW43517   4.915  12.186   2.265
47207SOL    HW143518   4.854  12.161   2.196
47207SOL    HW243519   4.905  12.281   2.272
47208SOL     OW43520  11.698   7.545   1.262
47208SOL    HW143521  11.762   7.548   1.191
47208SOL    HW243522  11.734   7.602   1.330
47209SOL     OW43523   4.212   9.022   6.586
47209SOL    HW143524   4.238   8.943   6.540
47209SOL    HW243525   4.267   9.024   6.664
47210SOL     OW43526   3.335   8.924   7.763
47210SOL    HW143527   3.360   8.879   7.683
47210SOL    HW243528   3.345   9.017   7.742
47211SOL     OW43529  11.707   5.164   2.735
47211SOL    HW143530  11.616   5.191   2.721
47211SOL    HW243531  11.743   5.156   2.647
47212SOL     OW43532   8.250  14.525   5.917
47212SOL    HW143533   8.283  14.451   5.968
47212SOL    HW243534   8.313  14.534   5.845
47213SOL     OW43535  12.650   6.366  11.099
47213SOL    HW143536  12.601   6.288  11.075
47213SOL    HW243537  12.592   6.439  11.076
47214SOL     OW43538   6.085   1.454  12.574
47214SOL    HW143539   6.032   1.386  12.533
47214SOL    HW243540   6.023   1.505  12.626
47215SOL     OW43541   9.734  10.122   4.863
47215SOL    HW143542   9.749  10.181   4.937
47215SOL    HW243543   9.704  10.179   4.792
47216SOL     OW43544  12.920   4.389  13.202
47216SOL    HW143545  12.913   4.455  13.133
47216SOL    HW243546  12.979   4.428  13.266
47217SOL     OW43547   9.359   9.468   2.572
47217SOL    HW143548   9.332   9.441   2.660
47217SOL    HW243549   9.277   9.477   2.523
47218SOL     OW43550  12.153   6.491  12.361
47218SOL    HW143551  12.225   6.536  12.317
47218SOL    HW243552  12.107   6.446  12.290
47219SOL     OW43553   6.131   3.610   7.615
47219SOL    HW143554   6.187   3.533   7.605
47219SOL    HW243555   6.062   3.582   7.675
47220SOL     OW43556  13.470   5.820   5.359
47220SOL    HW143557  13.394   5.772   5.393
47220SOL    HW243558  13.466   5.808   5.264
47221SOL     OW43559  13.893   2.630   0.102
47221SOL    HW143560  13.871   2.567   0.034
47221SOL    HW243561  13.887   2.581   0.184
47222SOL     OW43562  12.602   4.961  11.427
47222SOL    HW143563  12.636   4.921  11.347
47222SOL    HW243564  12.529   5.016  11.398
47223SOL     OW43565   6.602   2.929   8.859
47223SOL    HW143566   6.599   2.960   8.768
47223SOL    HW243567   6.566   2.840   8.855
47224SOL     OW43568   0.852   2.482   3.880
47224SOL    HW143569   0.762   2.513   3.872
47224SOL    HW243570   0.844   2.397   3.923
47225SOL     OW43571   6.542   8.170   4.692
47225SOL    HW143572   6.613   8.171   4.756
47225SOL    HW243573   6.575   8.223   4.619
47226SOL     OW43574   4.686   1.133   0.298
47226SOL    HW143575   4.698   1.098   0.210
47226SOL    HW243576   4.772   1.123   0.340
47227SOL     OW43577  14.194   6.704   5.314
47227SOL    HW143578  14.201   6.716   5.408
47227SOL    HW243579  14.284   6.700   5.283
47228SOL     OW43580   2.818  13.592   7.178
47228SOL    HW143581   2.726  13.592   7.153
47228SOL    HW243582   2.863  13.637   7.106
47229SOL     OW43583   4.502   6.206  11.720
47229SOL    HW143584   4.590   6.182  11.688
47229SOL    HW243585   4.495   6.300  11.703
47230SOL     OW43586   5.845  14.327   5.488
47230SOL    HW143587   5.754  14.306   5.510
47230SOL    HW243588   5.860  14.412   5.529
47231SOL     OW43589   9.898   3.476  13.773
47231SOL    HW143590   9.955   3.508  13.843
47231SOL    HW243591   9.819   3.530  13.780
47232SOL     OW43592   0.181   8.728   8.638
47232SOL    HW143593   0.121   8.657   8.663
47232SOL    HW243594   0.226   8.696   8.560
47233SOL     OW43595   9.991  11.089   9.317
47233SOL    HW143596   9.925  11.023   9.299
47233SOL    HW243597   9.943  11.160   9.359
47234SOL     OW43598   0.827   9.312   4.957
47234SOL    HW143599   0.792   9.283   4.872
47234SOL    HW243600   0.900   9.369   4.934
47235SOL     OW43601   6.073  14.556   0.753
47235SOL    HW143602   6.105  14.645   0.744
47235SOL    HW243603   5.980  14.561   0.731
47236SOL     OW43604   5.837   7.573  13.797
47236SOL    HW143605   5.832   7.662  13.763
47236SOL    HW243606   5.827   7.517  13.719
47237SOL     OW43607   9.922  13.446   3.583
47237SOL    HW143608  10.017  13.434   3.580
47237SOL    HW243609   9.908  13.537   3.554
47238SOL     OW43610   3.433   2.310   7.818
47238SOL    HW143611   3.442   2.313   7.913
47238SOL    HW243612   3.476   2.229   7.793
47239SOL     OW43613  12.378   7.109   2.850
47239SOL    HW143614  12.324   7.135   2.925
47239SOL    HW243615  12.324   7.128   2.773
47240SOL     OW43616  12.176   7.710   6.558
47240SOL    HW143617  12.081   7.711   6.543
47240SOL    HW243618  12.213   7.683   6.474
47241SOL     OW43619  10.655  13.269  10.109
47241SOL    HW143620  10.656  13.275  10.014
47241SOL    HW243621  10.740  13.230  10.131
47242SOL     OW43622   7.687  13.851   4.147
47242SOL    HW143623   7.610  13.906   4.132
47242SOL    HW243624   7.759  13.914   4.159
47243SOL     OW43625   7.338   0.689   8.164
47243SOL    HW143626   7.269   0.755   8.166
47243SOL    HW243627   7.398   0.719   8.097
47244SOL     OW43628  12.999   9.723   1.099
47244SOL    HW143629  13.086   9.720   1.139
47244SOL    HW243630  13.004   9.793   1.034
47245SOL     OW43631   9.489  11.072  10.921
47245SOL    HW143632   9.569  11.119  10.944
47245SOL    HW243633   9.480  11.087  10.827
47246SOL     OW43634   2.562   7.388   6.114
47246SOL    HW143635   2.582   7.343   6.032
47246SOL    HW243636   2.570   7.481   6.093
47247SOL     OW43637   6.396  13.580   6.620
47247SOL    HW143638   6.462  13.644   6.644
47247SOL    HW243639   6.333  13.628   6.566
47248SOL     OW43640   9.065  14.753   7.232
47248SOL    HW143641   8.974  14.723   7.229
47248SOL    HW243642   9.073  14.813   7.158
47249SOL     OW43643   5.104  12.394   8.360
47249SOL    HW143644   5.111  12.482   8.397
47249SOL    HW243645   5.171  12.392   8.292
47250SOL     OW43646  12.235   5.140  12.131
47250SOL    HW143647  12.163   5.104  12.079
47250SOL    HW243648  12.224   5.235  12.126
47251SOL     OW43649   3.394   7.480   8.177
47251SOL    HW143650   3.384   7.390   8.209
47251SOL    HW243651   3.456   7.520   8.238
47252SOL     OW43652  11.708   7.308   3.235
47252SOL    HW143653  11.675   7.348   3.316
47252SOL    HW243654  11.705   7.214   3.252
47253SOL     OW43655   3.000  13.288   1.722
47253SOL    HW143656   2.936  13.279   1.652
47253SOL    HW243657   3.072  13.230   1.697
47254SOL     OW43658   8.839   1.368   7.161
47254SOL    HW143659   8.763   1.423   7.179
47254SOL    HW243660   8.856   1.323   7.244
47255SOL     OW43661   2.285   3.236   2.736
47255SOL    HW143662   2.360   3.295   2.740
47255SOL    HW243663   2.212   3.288   2.771
47256SOL     OW43664   0.087   9.627  10.391
47256SOL    HW143665   0.012   9.568  10.391
47256SOL    HW243666   0.049   9.715  10.387
47257SOL     OW43667   3.713   5.971   7.883
47257SOL    HW143668   3.780   6.021   7.930
47257SOL    HW243669   3.760   5.896   7.846
47258SOL     OW43670   9.249   3.134   9.026
47258SOL    HW143671   9.331   3.133   9.076
47258SOL    HW243672   9.191   3.192   9.077
47259SOL     OW43673   1.520   1.181   2.875
47259SOL    HW143674   1.487   1.135   2.798
47259SOL    HW243675   1.451   1.244   2.897
47260SOL     OW43676  12.729   1.254  14.742
47260SOL    HW143677  12.816   1.278  14.712
47260SOL    HW243678  12.681   1.336  14.746
47261SOL     OW43679  13.843   5.339   6.017
47261SOL    HW143680  13.766   5.328   5.962
47261SOL    HW243681  13.858   5.252   6.054
47262SOL     OW43682   3.358  11.174   9.190
47262SOL    HW143683   3.315  11.116   9.253
47262SOL    HW243684   3.297  11.177   9.116
47263SOL     OW43685   4.685  11.121   2.949
47263SOL    HW143686   4.614  11.057   2.952
47263SOL    HW243687   4.718  11.116   2.859
47264SOL     OW43688   1.994   3.393   2.749
47264SOL    HW143689   2.032   3.439   2.674
47264SOL    HW243690   1.938   3.458   2.792
47265SOL     OW43691  13.128  14.686  11.749
47265SOL    HW143692  13.102  14.673  11.658
47265SOL    HW243693  13.046  14.703  11.795
47266SOL     OW43694  12.435   8.240  10.130
47266SOL    HW143695  12.407   8.286  10.052
47266SOL    HW243696  12.523   8.207  10.108
47267SOL     OW43697  13.928   4.922   2.628
47267SOL    HW143698  13.976   4.880   2.699
47267SOL    HW243699  13.986   4.993   2.599
47268SOL     OW43700  13.882  11.649   9.139
47268SOL    HW143701  13.794  11.611   9.131
47268SOL    HW243702  13.941  11.576   9.122
47269SOL     OW43703  10.329  12.370   6.178
47269SOL    HW143704  10.238  12.340   6.178
47269SOL    HW243705  10.373  12.314   6.115
47270SOL     OW43706   1.578  11.268  14.190
47270SOL    HW143707   1.577  11.310  14.103
47270SOL    HW243708   1.487  11.271  14.219
47271SOL     OW43709   5.973  12.528  10.278
47271SOL    HW143710   5.913  12.585  10.232
47271SOL    HW243711   6.057  12.573  10.276
47272SOL     OW43712  10.296   0.731   5.251
47272SOL    HW143713  10.262   0.650   5.213
47272SOL    HW243714  10.390   0.715   5.262
47273SOL     OW43715   4.675  10.532   6.238
47273SOL    HW143716   4.737  10.543   6.310
47273SOL    HW243717   4.684  10.612   6.186
47274SOL     OW43718   2.790   9.890   9.375
47274SOL    HW143719   2.823   9.815   9.326
47274SOL    HW243720   2.863   9.952   9.375
47275SOL     OW43721   5.564  11.350   2.476
47275SOL    HW143722   5.577  11.255   2.479
47275SOL    HW243723   5.580  11.373   2.385
47276SOL     OW43724  14.152   5.424  11.272
47276SOL    HW143725  14.178   5.343  11.317
47276SOL    HW243726  14.066   5.405  11.235
47277SOL     OW43727   2.712  13.947  11.240
47277SOL    HW143728   2.710  13.884  11.167
47277SOL    HW243729   2.667  13.901  11.311
47278SOL     OW43730   6.828  10.490  14.372
47278SOL    HW143731   6.743  10.455  14.400
47278SOL    HW243732   6.878  10.412  14.346
47279SOL     OW43733  14.878   6.947   6.197
47279SOL    HW143734  14.811   6.934   6.130
47279SOL    HW243735  14.847   6.896   6.272
47280SOL     OW43736   2.052   8.086  10.002
47280SOL    HW143737   2.030   8.107  10.092
47280SOL    HW243738   2.056   7.990  10.000
47281SOL     OW43739  13.259   8.077   4.941
47281SOL    HW143740  13.279   8.010   4.876
47281SOL    HW243741  13.163   8.078   4.946
47282SOL     OW43742   3.139   9.907   3.836
47282SOL    HW143743   3.092   9.989   3.824
47282SOL    HW243744   3.071   9.843   3.856
47283SOL     OW43745   3.244   4.626  13.540
47283SOL    HW143746   3.269   4.534  13.535
47283SOL    HW243747   3.151   4.625  13.562
47284SOL     OW43748   5.947   6.272  11.683
47284SOL    HW143749   5.861   6.235  11.665
47284SOL    HW243750   5.963   6.332  11.611
47285SOL     OW43751   2.282   8.436   3.011
47285SOL    HW143752   2.339   8.510   2.988
47285SOL    HW243753   2.245   8.459   3.095
47286SOL     OW43754   8.073   3.709  13.432
47286SOL    HW143755   8.015   3.786  13.428
47286SOL    HW243756   8.059   3.665  13.349
47287SOL     OW43757  11.977  11.161   9.138
47287SOL    HW143758  11.919  11.118   9.201
47287SOL    HW243759  11.919  11.186   9.066
47288SOL     OW43760   0.455   7.418  13.567
47288SOL    HW143761   0.499   7.465  13.638
47288SOL    HW243762   0.465   7.475  13.491
47289SOL     OW43763   3.873  11.022   7.208
47289SOL    HW143764   3.876  11.115   7.231
47289SOL    HW243765   3.834  11.021   7.120
47290SOL     OW43766  12.650   0.583   9.375
47290SOL    HW143767  12.661   0.670   9.336
47290SOL    HW243768  12.605   0.599   9.458
47291SOL     OW43769   1.743   2.032   6.747
47291SOL    HW143770   1.715   2.020   6.657
47291SOL    HW243771   1.670   2.075   6.790
47292SOL     OW43772   3.459   5.227  11.519
47292SOL    HW143773   3.380   5.271  11.552
47292SOL    HW243774   3.525   5.243  11.586
47293SOL     OW43775  14.410   2.355  11.032
47293SOL    HW143776  14.465   2.433  11.018
47293SOL    HW243777  14.464   2.282  11.002
47294SOL     OW43778   4.345  11.854   5.120
47294SOL    HW143779   4.309  11.893   5.200
47294SOL    HW243780   4.276  11.795   5.090
47295SOL     OW43781   6.144   5.797   9.026
47295SOL    HW143782   6.171   5.873   9.077
47295SOL    HW243783   6.202   5.727   9.055
47296SOL     OW43784   7.766  13.184   8.325
47296SOL    HW143785   7.778  13.270   8.364
47296SOL    HW243786   7.847  13.168   8.277
47297SOL     OW43787   3.566   2.430   6.029
47297SOL    HW143788   3.606   2.357   6.077
47297SOL    HW243789   3.598   2.508   6.075
47298SOL     OW43790   3.715   4.353  10.805
47298SOL    HW143791   3.721   4.260  10.781
47298SOL    HW243792   3.799   4.372  10.848
47299SOL     OW43793  10.424   2.058  12.150
47299SOL    HW143794  10.489   2.058  12.220
47299SOL    HW243795  10.417   1.966  12.124
47300SOL     OW43796  10.716  10.900  13.156
47300SOL    HW143797  10.708  10.812  13.191
47300SOL    HW243798  10.766  10.889  13.075
47301SOL     OW43799   9.155   4.900   7.351
47301SOL    HW143800   9.120   4.987   7.334
47301SOL    HW243801   9.080   4.842   7.344
47302SOL     OW43802  13.020   2.564   0.891
47302SOL    HW143803  12.940   2.515   0.907
47302SOL    HW243804  13.079   2.538   0.962
47303SOL     OW43805   0.903   3.967   3.521
47303SOL    HW143806   0.866   3.991   3.436
47303SOL    HW243807   0.846   4.008   3.585
47304SOL     OW43808   3.785   8.896   5.650
47304SOL    HW143809   3.765   8.985   5.679
47304SOL    HW243810   3.869   8.875   5.691
47305SOL     OW43811  14.714   8.862  14.090
47305SOL    HW143812  14.719   8.956  14.072
47305SOL    HW243813  14.750   8.853  14.178
47306SOL     OW43814  12.976   6.578   0.205
47306SOL    HW143815  12.976   6.673   0.193
47306SOL    HW243816  12.929   6.545   0.128
47307SOL     OW43817   4.670   3.184   2.095
47307SOL    HW143818   4.676   3.259   2.035
47307SOL    HW243819   4.576   3.170   2.106
47308SOL     OW43820  10.791   6.994   2.735
47308SOL    HW143821  10.869   6.997   2.679
47308SOL    HW243822  10.819   6.947   2.813
47309SOL     OW43823   6.967   5.341  10.750
47309SOL    HW143824   6.923   5.281  10.810
47309SOL    HW243825   6.924   5.425  10.765
47310SOL     OW43826  12.060   7.015  12.991
47310SOL    HW143827  12.127   6.994  13.057
47310SOL    HW243828  12.027   6.930  12.962
47311SOL     OW43829   8.758   3.252   2.129
47311SOL    HW143830   8.784   3.343   2.139
47311SOL    HW243831   8.662   3.254   2.132
47312SOL     OW43832   9.145  12.359   6.825
47312SOL    HW143833   9.114  12.322   6.908
47312SOL    HW243834   9.085  12.322   6.760
47313SOL     OW43835   8.501  11.261   6.462
47313SOL    HW143836   8.418  11.214   6.469
47313SOL    HW243837   8.567  11.196   6.483
47314SOL     OW43838   9.364   1.361  13.781
47314SOL    HW143839   9.279   1.395  13.810
47314SOL    HW243840   9.424   1.381  13.853
47315SOL     OW43841  12.566   0.789  13.847
47315SOL    HW143842  12.573   0.709  13.899
47315SOL    HW243843  12.613   0.769  13.766
47316SOL     OW43844   1.263   8.991  11.894
47316SOL    HW143845   1.266   9.075  11.939
47316SOL    HW243846   1.180   8.952  11.923
47317SOL     OW43847  11.100  10.440  10.130
47317SOL    HW143848  11.043  10.375  10.172
47317SOL    HW243849  11.136  10.394  10.055
47318SOL     OW43850  10.873  10.768   9.300
47318SOL    HW143851  10.836  10.856   9.294
47318SOL    HW243852  10.803  10.716   9.340
47319SOL     OW43853   2.841   5.312   9.182
47319SOL    HW143854   2.878   5.273   9.104
47319SOL    HW243855   2.835   5.406   9.162
47320SOL     OW43856   1.263   8.038   0.524
47320SOL    HW143857   1.255   8.129   0.553
47320SOL    HW243858   1.218   7.988   0.593
47321SOL     OW43859   9.406   2.292   9.389
47321SOL    HW143860   9.353   2.362   9.427
47321SOL    HW243861   9.393   2.218   9.448
47322SOL     OW43862   3.939  12.617  14.382
47322SOL    HW143863   3.940  12.558  14.457
47322SOL    HW243864   3.847  12.631  14.364
47323SOL     OW43865   9.042  10.994  14.878
47323SOL    HW143866   8.967  10.975  14.822
47323SOL    HW243867   9.060  11.087  14.862
47324SOL     OW43868  11.436   8.010   2.088
47324SOL    HW143869  11.484   8.022   2.169
47324SOL    HW243870  11.347   8.041   2.108
47325SOL     OW43871   6.573  14.012  11.479
47325SOL    HW143872   6.653  14.004  11.531
47325SOL    HW243873   6.595  14.074  11.409
47326SOL     OW43874   9.653  11.053   0.670
47326SOL    HW143875   9.694  10.986   0.615
47326SOL    HW243876   9.583  11.089   0.615
47327SOL     OW43877   7.465  11.291   7.761
47327SOL    HW143878   7.382  11.336   7.748
47327SOL    HW243879   7.452  11.204   7.725
47328SOL     OW43880  10.907   6.730   3.339
47328SOL    HW143881  10.892   6.636   3.334
47328SOL    HW243882  10.907   6.749   3.433
47329SOL     OW43883   4.547   3.254   4.804
47329SOL    HW143884   4.556   3.160   4.820
47329SOL    HW243885   4.499   3.287   4.880
47330SOL     OW43886   7.329  13.018   4.332
47330SOL    HW143887   7.345  13.089   4.269
47330SOL    HW243888   7.247  13.042   4.374
47331SOL     OW43889  12.853   3.094   5.233
47331SOL    HW143890  12.870   3.019   5.177
47331SOL    HW243891  12.913   3.083   5.306
47332SOL     OW43892   0.262   8.888   9.507
47332SOL    HW143893   0.185   8.944   9.519
47332SOL    HW243894   0.332   8.948   9.482
47333SOL     OW43895   5.515   3.183   2.818
47333SOL    HW143896   5.513   3.256   2.880
47333SOL    HW243897   5.567   3.116   2.862
47334SOL     OW43898  14.174   8.760   9.523
47334SOL    HW143899  14.091   8.807   9.514
47334SOL    HW243900  14.217   8.801   9.598
47335SOL     OW43901   1.352   1.916   5.355
47335SOL    HW143902   1.391   1.829   5.360
47335SOL    HW243903   1.427   1.976   5.362
47336SOL     OW43904  11.706   5.348   1.916
47336SOL    HW143905  11.650   5.425   1.925
47336SOL    HW243906  11.721   5.341   1.822
47337SOL     OW43907  14.384  13.192  11.314
47337SOL    HW143908  14.407  13.280  11.282
47337SOL    HW243909  14.415  13.190  11.404
47338SOL     OW43910  11.985   2.398   5.509
47338SOL    HW143911  11.895   2.396   5.540
47338SOL    HW243912  11.994   2.484   5.468
47339SOL     OW43913   2.800  10.663   0.763
47339SOL    HW143914   2.784  10.596   0.830
47339SOL    HW243915   2.832  10.739   0.813
47340SOL     OW43916   2.973  13.061   9.676
47340SOL    HW143917   2.890  13.039   9.716
47340SOL    HW243918   3.011  13.127   9.734
47341SOL     OW43919  12.489   9.807  12.154
47341SOL    HW143920  12.492   9.757  12.072
47341SOL    HW243921  12.504   9.742  12.222
47342SOL     OW43922   6.301   3.940   2.880
47342SOL    HW143923   6.387   3.977   2.902
47342SOL    HW243924   6.278   3.983   2.797
47343SOL     OW43925   5.921  12.322   7.890
47343SOL    HW143926   5.979  12.393   7.863
47343SOL    HW243927   5.912  12.333   7.985
47344SOL     OW43928   8.411   8.505   7.522
47344SOL    HW143929   8.361   8.505   7.604
47344SOL    HW243930   8.345   8.504   7.453
47345SOL     OW43931  14.030   7.735   3.128
47345SOL    HW143932  14.088   7.798   3.086
47345SOL    HW243933  14.050   7.743   3.221
47346SOL     OW43934  13.972   9.777   8.304
47346SOL    HW143935  13.891   9.746   8.263
47346SOL    HW243936  13.994   9.709   8.368
47347SOL     OW43937   1.823   6.286   3.906
47347SOL    HW143938   1.779   6.211   3.947
47347SOL    HW243939   1.783   6.363   3.947
47348SOL     OW43940   7.161   0.185   2.200
47348SOL    HW143941   7.127   0.208   2.113
47348SOL    HW243942   7.171   0.090   2.198
47349SOL     OW43943   0.290   8.371   5.710
47349SOL    HW143944   0.380   8.362   5.740
47349SOL    HW243945   0.272   8.291   5.661
47350SOL     OW43946  11.290   7.494   5.983
47350SOL    HW143947  11.289   7.547   6.063
47350SOL    HW243948  11.210   7.443   5.985
47351SOL     OW43949  13.022  12.551   7.377
47351SOL    HW143950  13.024  12.535   7.282
47351SOL    HW243951  13.040  12.466   7.416
47352SOL     OW43952   1.165   3.769   6.220
47352SOL    HW143953   1.169   3.828   6.144
47352SOL    HW243954   1.073   3.745   6.227
47353SOL     OW43955   1.062  14.616  12.691
47353SOL    HW143956   1.127  14.603  12.622
47353SOL    HW243957   1.004  14.684  12.656
47354SOL     OW43958   7.549   1.399   3.731
47354SOL    HW143959   7.558   1.331   3.797
47354SOL    HW243960   7.455   1.417   3.727
47355SOL     OW43961   6.513   0.225   3.522
47355SOL    HW143962   6.459   0.166   3.574
47355SOL    HW243963   6.565   0.167   3.467
47356SOL     OW43964  13.181   4.445  10.706
47356SOL    HW143965  13.089   4.443  10.678
47356SOL    HW243966  13.180   4.407  10.794
47357SOL     OW43967   4.517   7.337  11.844
47357SOL    HW143968   4.505   7.397  11.918
47357SOL    HW243969   4.606   7.303  11.854
47358SOL     OW43970   4.802   5.418   9.753
47358SOL    HW143971   4.883   5.375   9.725
47358SOL    HW243972   4.735   5.350   9.747
47359SOL     OW43973  13.890   7.884  12.042
47359SOL    HW143974  13.904   7.918  11.954
47359SOL    HW243975  13.903   7.960  12.099
47360SOL     OW43976   7.321   3.648  13.143
47360SOL    HW143977   7.231   3.632  13.170
47360SOL    HW243978   7.362   3.562  13.146
47361SOL     OW43979   2.980   7.285   6.294
47361SOL    HW143980   2.985   7.380   6.306
47361SOL    HW243981   2.921   7.256   6.363
47362SOL     OW43982   2.678   9.742   1.343
47362SOL    HW143983   2.635   9.828   1.344
47362SOL    HW243984   2.718   9.737   1.257
47363SOL     OW43985   2.821   4.101   2.784
47363SOL    HW143986   2.768   4.096   2.705
47363SOL    HW243987   2.887   4.167   2.765
47364SOL     OW43988   8.645   3.624   6.253
47364SOL    HW143989   8.659   3.551   6.313
47364SOL    HW243990   8.558   3.657   6.275
47365SOL     OW43991   3.079   4.060   4.567
47365SOL    HW143992   3.122   4.074   4.482
47365SOL    HW243993   3.132   3.994   4.610
47366SOL     OW43994  14.401   8.318   4.082
47366SOL    HW143995  14.338   8.262   4.129
47366SOL    HW243996  14.452   8.257   4.028
47367SOL     OW43997  14.229  14.440   4.135
47367SOL    HW143998  14.276  14.478   4.062
47367SOL    HW243999  14.245  14.500   4.208
47368SOL     OW44000   9.051   9.469   5.475
47368SOL    HW144001   9.062   9.374   5.475
47368SOL    HW244002   9.054   9.494   5.567
47369SOL     OW44003   2.130   2.728   3.644
47369SOL    HW144004   2.148   2.814   3.605
47369SOL    HW244005   2.192   2.669   3.600
47370SOL     OW44006  10.790   2.550  13.143
47370SOL    HW144007  10.800   2.583  13.233
47370SOL    HW244008  10.762   2.460  13.153
47371SOL     OW44009  14.714  13.371  12.698
47371SOL    HW144010  14.790  13.415  12.736
47371SOL    HW244011  14.703  13.293  12.752
47372SOL     OW44012  11.420   2.290   1.328
47372SOL    HW144013  11.507   2.265   1.358
47372SOL    HW244014  11.414   2.383   1.350
47373SOL     OW44015   2.210   7.587  12.254
47373SOL    HW144016   2.276   7.526  12.287
47373SOL    HW244017   2.206   7.655  12.321
47374SOL     OW44018   2.483   8.379   3.291
47374SOL    HW144019   2.508   8.469   3.315
47374SOL    HW244020   2.407   8.390   3.234
47375SOL     OW44021   9.670  13.287  13.734
47375SOL    HW144022   9.686  13.197  13.764
47375SOL    HW244023   9.652  13.278  13.641
47376SOL     OW44024   9.592   1.420   8.653
47376SOL    HW144025   9.598   1.511   8.683
47376SOL    HW244026   9.629   1.421   8.565
47377SOL     OW44027  12.250   6.142   1.466
47377SOL    HW144028  12.264   6.066   1.408
47377SOL    HW244029  12.208   6.207   1.410
47378SOL     OW44030   5.868   4.591  12.410
47378SOL    HW144031   5.952   4.555  12.438
47378SOL    HW244032   5.873   4.591  12.314
47379SOL     OW44033   6.001   6.713  10.191
47379SOL    HW144034   6.032   6.685  10.277
47379SOL    HW244035   5.962   6.634  10.153
47380SOL     OW44036   3.141  14.474   3.652
47380SOL    HW144037   3.184  14.409   3.596
47380SOL    HW244038   3.075  14.424   3.700
47381SOL     OW44039   3.339   4.237   5.770
47381SOL    HW144040   3.280   4.167   5.797
47381SOL    HW244041   3.420   4.192   5.744
47382SOL     OW44042   7.787  14.287   4.278
47382SOL    HW144043   7.703  14.299   4.322
47382SOL    HW244044   7.804  14.193   4.283
47383SOL     OW44045  13.225   2.581   6.268
47383SOL    HW144046  13.276   2.648   6.316
47383SOL    HW244047  13.291   2.534   6.217
47384SOL     OW44048   9.834  13.441   7.143
47384SOL    HW144049   9.791  13.495   7.209
47384SOL    HW244050   9.900  13.392   7.191
47385SOL     OW44051   1.662   3.887  10.888
47385SOL    HW144052   1.574   3.850  10.892
47385SOL    HW244053   1.667   3.929  10.802
47386SOL     OW44054   4.027   4.008   5.950
47386SOL    HW144055   3.978   3.927   5.935
47386SOL    HW244056   4.083   4.017   5.874
47387SOL     OW44057  13.120  13.522   1.657
47387SOL    HW144058  13.206  13.487   1.634
47387SOL    HW244059  13.124  13.535   1.752
47388SOL     OW44060  10.356  12.226   5.227
47388SOL    HW144061  10.309  12.261   5.303
47388SOL    HW244062  10.289  12.219   5.159
47389SOL     OW44063   3.268   6.255   2.145
47389SOL    HW144064   3.332   6.259   2.216
47389SOL    HW244065   3.206   6.325   2.164
47390SOL     OW44066  12.079   1.999   9.478
47390SOL    HW144067  12.016   2.009   9.407
47390SOL    HW244068  12.028   1.962   9.550
47391SOL     OW44069   3.501   5.519   0.148
47391SOL    HW144070   3.531   5.594   0.200
47391SOL    HW244071   3.564   5.514   0.076
47392SOL     OW44072   0.582   7.053   4.688
47392SOL    HW144073   0.638   6.988   4.647
47392SOL    HW244074   0.493   7.019   4.677
47393SOL     OW44075  11.225   1.846   8.768
47393SOL    HW144076  11.264   1.775   8.718
47393SOL    HW244077  11.211   1.809   8.855
47394SOL     OW44078   8.529   7.198   0.870
47394SOL    HW144079   8.596   7.131   0.884
47394SOL    HW244080   8.567   7.259   0.807
47395SOL     OW44081   4.333   4.589  14.822
47395SOL    HW144082   4.387   4.641  14.881
47395SOL    HW244083   4.366   4.608  14.734
47396SOL     OW44084  11.409   1.100   4.976
47396SOL    HW144085  11.387   1.040   4.905
47396SOL    HW244086  11.339   1.164   4.977
47397SOL     OW44087  11.445   7.892   8.578
47397SOL    HW144088  11.355   7.922   8.590
47397SOL    HW244089  11.497   7.972   8.568
47398SOL     OW44090  13.536  11.204   6.695
47398SOL    HW144091  13.532  11.108   6.698
47398SOL    HW244092  13.502  11.232   6.779
47399SOL     OW44093   4.881   8.856   5.428
47399SOL    HW144094   4.951   8.916   5.455
47399SOL    HW244095   4.920   8.769   5.439
47400SOL     OW44096   8.832   2.877   2.317
47400SOL    HW144097   8.907   2.866   2.375
47400SOL    HW244098   8.837   2.803   2.257
47401SOL     OW44099   9.627   5.243   9.602
47401SOL    HW144100   9.588   5.244   9.690
47401SOL    HW244101   9.695   5.311   9.605
47402SOL     OW44102   3.974  10.623   5.746
47402SOL    HW144103   3.914  10.576   5.688
47402SOL    HW244104   3.921  10.692   5.786
47403SOL     OW44105   1.414  14.341   1.446
47403SOL    HW144106   1.504  14.373   1.434
47403SOL    HW244107   1.377  14.400   1.512
47404SOL     OW44108   6.939  14.662   4.582
47404SOL    HW144109   6.888  14.706   4.651
47404SOL    HW244110   6.873  14.635   4.518
47405SOL     OW44111   8.533  10.903  10.997
47405SOL    HW144112   8.494  10.981  11.038
47405SOL    HW244113   8.626  10.926  10.987
47406SOL     OW44114   7.492   4.441   1.157
47406SOL    HW144115   7.467   4.360   1.202
47406SOL    HW244116   7.432   4.507   1.193
47407SOL     OW44117   4.424  13.819  12.403
47407SOL    HW144118   4.406  13.860  12.319
47407SOL    HW244119   4.465  13.735  12.381
47408SOL     OW44120   2.169  11.685   7.373
47408SOL    HW144121   2.180  11.701   7.280
47408SOL    HW244122   2.165  11.589   7.381
47409SOL     OW44123  10.138   1.092   9.970
47409SOL    HW144124  10.227   1.126   9.975
47409SOL    HW244125  10.148   1.001   9.943
47410SOL     OW44126   9.970   7.946  12.327
47410SOL    HW144127   9.996   8.005  12.256
47410SOL    HW244128   9.885   7.980  12.356
47411SOL     OW44129   7.702  12.165   7.873
47411SOL    HW144130   7.765  12.096   7.894
47411SOL    HW244131   7.728  12.239   7.928
47412SOL     OW44132   4.292   7.980  13.194
47412SOL    HW144133   4.387   7.967  13.205
47412SOL    HW244134   4.274   8.061  13.241
47413SOL     OW44135   6.520   4.166   0.052
47413SOL    HW144136   6.587   4.184  14.869
47413SOL    HW244137   6.527   4.238   0.115
47414SOL     OW44138  13.174  11.977  11.214
47414SOL    HW144139  13.186  11.903  11.155
47414SOL    HW244140  13.082  12.001  11.205
47415SOL     OW44141  14.189   5.636  13.262
47415SOL    HW144142  14.115   5.661  13.207
47415SOL    HW244143  14.183   5.695  13.337
47416SOL     OW44144   8.369   9.307  14.545
47416SOL    HW144145   8.312   9.351  14.481
47416SOL    HW244146   8.352   9.353  14.627
47417SOL     OW44147   9.950   7.071  10.125
47417SOL    HW144148  10.044   7.054  10.133
47417SOL    HW244149   9.910   7.002  10.177
47418SOL     OW44150   1.832   6.706  14.275
47418SOL    HW144151   1.833   6.754  14.358
47418SOL    HW244152   1.860   6.770  14.209
47419SOL     OW44153   8.640  11.095  13.591
47419SOL    HW144154   8.713  11.083  13.529
47419SOL    HW244155   8.564  11.062  13.545
47420SOL     OW44156  13.870   7.081   1.548
47420SOL    HW144157  13.927   7.007   1.524
47420SOL    HW244158  13.845   7.063   1.639
47421SOL     OW44159  14.259   6.041  10.776
47421SOL    HW144160  14.186   6.096  10.751
47421SOL    HW244161  14.262   6.047  10.872
47422SOL     OW44162   1.532   2.037   5.027
47422SOL    HW144163   1.573   2.012   4.944
47422SOL    HW244164   1.575   1.983   5.093
47423SOL     OW44165   8.714   7.828   7.258
47423SOL    HW144166   8.790   7.787   7.217
47423SOL    HW244167   8.734   7.829   7.351
47424SOL     OW44168  11.999   1.403  10.149
47424SOL    HW144169  12.066   1.372  10.089
47424SOL    HW244170  11.978   1.327  10.204
47425SOL     OW44171   5.871   6.419   3.867
47425SOL    HW144172   5.836   6.494   3.818
47425SOL    HW244173   5.803   6.352   3.859
47426SOL     OW44174  11.206   5.307  10.366
47426SOL    HW144175  11.266   5.349  10.304
47426SOL    HW244176  11.258   5.237  10.407
47427SOL     OW44177   3.062   0.922   1.874
47427SOL    HW144178   3.068   1.004   1.825
47427SOL    HW244179   3.049   0.855   1.807
47428SOL     OW44180  12.588   9.569   3.025
47428SOL    HW144181  12.504   9.572   2.978
47428SOL    HW244182  12.564   9.570   3.118
47429SOL     OW44183  13.068   3.414   9.319
47429SOL    HW144184  13.020   3.461   9.251
47429SOL    HW244185  13.055   3.466   9.398
47430SOL     OW44186   7.544  12.411   5.788
47430SOL    HW144187   7.521  12.438   5.878
47430SOL    HW244188   7.583  12.490   5.750
47431SOL     OW44189  11.361   4.584   4.468
47431SOL    HW144190  11.421   4.582   4.393
47431SOL    HW244191  11.336   4.676   4.476
47432SOL     OW44192  11.337  12.876  11.423
47432SOL    HW144193  11.385  12.953  11.392
47432SOL    HW244194  11.334  12.817  11.348
47433SOL     OW44195  14.342   4.103   4.959
47433SOL    HW144196  14.413   4.049   4.993
47433SOL    HW244197  14.363   4.192   4.987
47434SOL     OW44198   3.292   3.618   1.235
47434SOL    HW144199   3.359   3.685   1.248
47434SOL    HW244200   3.262   3.631   1.145
47435SOL     OW44201   0.867   0.791   1.585
47435SOL    HW144202   0.905   0.711   1.549
47435SOL    HW244203   0.826   0.764   1.667
47436SOL     OW44204   7.182   9.103  12.562
47436SOL    HW144205   7.163   9.075  12.651
47436SOL    HW244206   7.277   9.117  12.561
47437SOL     OW44207  11.334  10.094  14.767
47437SOL    HW144208  11.337  10.015  14.713
47437SOL    HW244209  11.279  10.154  14.718
47438SOL     OW44210   4.460   6.692   5.864
47438SOL    HW144211   4.432   6.752   5.933
47438SOL    HW244212   4.549   6.721   5.843
47439SOL     OW44213   1.026   5.838   0.909
47439SOL    HW144214   1.060   5.924   0.882
47439SOL    HW244215   1.010   5.847   1.003
47440SOL     OW44216   8.750  11.641   7.169
47440SOL    HW144217   8.689  11.609   7.235
47440SOL    HW244218   8.834  11.644   7.215
47441SOL     OW44219  10.167   6.697  10.171
47441SOL    HW144220  10.237   6.642  10.136
47441SOL    HW244221  10.213   6.768  10.216
47442SOL     OW44222  12.016  11.435   2.616
47442SOL    HW144223  12.079  11.374   2.654
47442SOL    HW244224  12.021  11.419   2.521
47443SOL     OW44225   2.522   5.241   3.792
47443SOL    HW144226   2.525   5.336   3.803
47443SOL    HW244227   2.563   5.206   3.872
47444SOL     OW44228  12.282   2.334   0.900
47444SOL    HW144229  12.236   2.296   0.975
47444SOL    HW244230  12.227   2.312   0.825
47445SOL     OW44231   6.373  13.743  14.799
47445SOL    HW144232   6.371  13.704  14.712
47445SOL    HW244233   6.330  13.679  14.855
47446SOL     OW44234   3.912  13.127   0.306
47446SOL    HW144235   3.846  13.081   0.359
47446SOL    HW244236   3.874  13.132   0.219
47447SOL     OW44237   7.736   8.865  12.092
47447SOL    HW144238   7.707   8.948  12.130
47447SOL    HW244239   7.828   8.879  12.070
47448SOL     OW44240  10.114   2.248   5.597
47448SOL    HW144241  10.084   2.233   5.507
47448SOL    HW244242  10.071   2.330   5.623
47449SOL     OW44243  13.748   4.999  14.851
47449SOL    HW144244  13.753   4.919   0.022
47449SOL    HW244245  13.818   4.989  14.786
47450SOL     OW44246   9.912  14.428   5.925
47450SOL    HW144247   9.967  14.504   5.910
47450SOL    HW244248   9.831  14.464   5.962
47451SOL     OW44249  13.881   8.495   6.821
47451SOL    HW144250  13.911   8.545   6.745
47451SOL    HW244251  13.961   8.473   6.868
47452SOL     OW44252   8.628  12.347   8.363
47452SOL    HW144253   8.708  12.376   8.408
47452SOL    HW244254   8.623  12.400   8.284
47453SOL     OW44255  14.430   5.855   3.341
47453SOL    HW144256  14.408   5.790   3.408
47453SOL    HW244257  14.413   5.810   3.258
47454SOL     OW44258  11.100   6.914   3.986
47454SOL    HW144259  11.116   6.977   4.056
47454SOL    HW244260  11.010   6.884   4.000
47455SOL     OW44261   2.040  12.789  12.044
47455SOL    HW144262   2.025  12.750  11.957
47455SOL    HW244263   1.952  12.798  12.081
47456SOL     OW44264   9.622  10.016   6.288
47456SOL    HW144265   9.625   9.954   6.361
47456SOL    HW244266   9.691  10.080   6.307
47457SOL     OW44267   3.375   9.911   4.554
47457SOL    HW144268   3.338   9.871   4.475
47457SOL    HW244269   3.361   9.845   4.622
47458SOL     OW44270   8.652   2.553  13.771
47458SOL    HW144271   8.634   2.562  13.864
47458SOL    HW244272   8.648   2.643  13.737
47459SOL     OW44273   0.208  11.309   5.148
47459SOL    HW144274   0.183  11.393   5.188
47459SOL    HW244275   0.247  11.333   5.064
47460SOL     OW44276  11.787   3.418   0.323
47460SOL    HW144277  11.749   3.334   0.297
47460SOL    HW244278  11.721   3.483   0.301
47461SOL     OW44279   5.902  13.365   4.894
47461SOL    HW144280   5.833  13.305   4.864
47461SOL    HW244281   5.939  13.322   4.971
47462SOL     OW44282   2.172   1.568  10.777
47462SOL    HW144283   2.199   1.584  10.868
47462SOL    HW244284   2.161   1.473  10.772
47463SOL     OW44285   8.458  12.783   7.983
47463SOL    HW144286   8.552  12.783   8.003
47463SOL    HW244287   8.454  12.799   7.888
47464SOL     OW44288   6.645   6.851   5.595
47464SOL    HW144289   6.633   6.760   5.569
47464SOL    HW244290   6.617   6.902   5.518
47465SOL     OW44291   4.381   9.403   0.959
47465SOL    HW144292   4.429   9.466   1.013
47465SOL    HW244293   4.306   9.376   1.013
47466SOL     OW44294   4.226   4.924   3.649
47466SOL    HW144295   4.277   5.002   3.628
47466SOL    HW244296   4.287   4.851   3.634
47467SOL     OW44297   2.650   1.309   3.606
47467SOL    HW144298   2.708   1.263   3.546
47467SOL    HW244299   2.569   1.257   3.606
47468SOL     OW44300   5.386   7.844   8.812
47468SOL    HW144301   5.371   7.926   8.860
47468SOL    HW244302   5.481   7.840   8.803
47469SOL     OW44303   0.982   7.138  11.731
47469SOL    HW144304   1.074   7.111  11.726
47469SOL    HW244305   0.938   7.082  11.666
47470SOL     OW44306  14.745  14.661  13.706
47470SOL    HW144307  14.785  14.638  13.790
47470SOL    HW244308  14.676  14.723  13.729
47471SOL     OW44309  12.596  12.998   3.653
47471SOL    HW144310  12.641  12.915   3.670
47471SOL    HW244311  12.632  13.028   3.569
47472SOL     OW44312   0.643  13.398   8.351
47472SOL    HW144313   0.676  13.318   8.393
47472SOL    HW244314   0.608  13.450   8.423
47473SOL     OW44315   0.874   1.369   9.512
47473SOL    HW144316   0.789   1.341   9.547
47473SOL    HW244317   0.892   1.452   9.555
47474SOL     OW44318   3.189   8.587   7.180
47474SOL    HW144319   3.147   8.504   7.204
47474SOL    HW244320   3.117   8.643   7.153
47475SOL     OW44321   4.450   2.657  10.269
47475SOL    HW144322   4.534   2.692  10.239
47475SOL    HW244323   4.403   2.733  10.303
47476SOL     OW44324   0.282   2.160  14.711
47476SOL    HW144325   0.259   2.068  14.722
47476SOL    HW244326   0.200   2.207  14.722
47477SOL     OW44327   1.284  11.587   9.094
47477SOL    HW144328   1.238  11.667   9.067
47477SOL    HW244329   1.291  11.595   9.189
47478SOL     OW44330   7.623   6.515  11.315
47478SOL    HW144331   7.655   6.465  11.240
47478SOL    HW244332   7.697   6.573  11.337
47479SOL     OW44333   7.107   6.471   6.702
47479SOL    HW144334   7.139   6.498   6.616
47479SOL    HW244335   7.067   6.385   6.687
47480SOL     OW44336   2.782   2.637  12.547
47480SOL    HW144337   2.841   2.566  12.573
47480SOL    HW244338   2.840   2.710  12.526
47481SOL     OW44339   5.662  11.097   6.057
47481SOL    HW144340   5.674  11.029   6.123
47481SOL    HW244341   5.638  11.049   5.977
47482SOL     OW44342   1.338   1.000   8.253
47482SOL    HW144343   1.339   0.954   8.337
47482SOL    HW244344   1.298   0.939   8.192
47483SOL     OW44345   7.862   2.728  14.805
47483SOL    HW144346   7.824   2.652  14.850
47483SOL    HW244347   7.849   2.709  14.712
47484SOL     OW44348   5.378   9.746   4.438
47484SOL    HW144349   5.312   9.679   4.423
47484SOL    HW244350   5.452   9.719   4.383
47485SOL     OW44351  13.949   9.477   0.938
47485SOL    HW144352  13.950   9.446   0.847
47485SOL    HW244353  13.897   9.412   0.985
47486SOL     OW44354  14.644   2.465  12.863
47486SOL    HW144355  14.661   2.371  12.869
47486SOL    HW244356  14.711   2.505  12.917
47487SOL     OW44357   9.236  10.979   0.334
47487SOL    HW144358   9.155  10.993   0.383
47487SOL    HW244359   9.245  11.057   0.280
47488SOL     OW44360  10.147  14.661   5.599
47488SOL    HW144361  10.174  14.721   5.530
47488SOL    HW244362  10.167  14.708   5.680
47489SOL     OW44363   1.466   8.473  12.562
47489SOL    HW144364   1.391   8.445  12.615
47489SOL    HW244365   1.538   8.416  12.590
47490SOL     OW44366   0.877  11.711  14.427
47490SOL    HW144367   0.921  11.764  14.361
47490SOL    HW244368   0.949  11.668  14.474
47491SOL     OW44369  14.047  11.499   6.437
47491SOL    HW144370  14.126  11.446   6.426
47491SOL    HW244371  14.078  11.580   6.479
47492SOL     OW44372  11.289  10.895   0.458
47492SOL    HW144373  11.376  10.866   0.430
47492SOL    HW244374  11.296  10.990   0.463
47493SOL     OW44375  13.596  12.506  12.137
47493SOL    HW144376  13.611  12.590  12.094
47493SOL    HW244377  13.598  12.442  12.065
47494SOL     OW44378   8.179   8.306   7.972
47494SOL    HW144379   8.101   8.338   7.927
47494SOL    HW244380   8.170   8.210   7.968
47495SOL     OW44381   5.954   9.216   5.158
47495SOL    HW144382   5.985   9.176   5.239
47495SOL    HW244383   5.879   9.163   5.131
47496SOL     OW44384  10.011   5.782  13.729
47496SOL    HW144385  10.045   5.764  13.642
47496SOL    HW244386  10.030   5.875  13.743
47497SOL     OW44387   9.744   2.751   6.706
47497SOL    HW144388   9.674   2.711   6.760
47497SOL    HW244389   9.824   2.733   6.754
47498SOL     OW44390   7.176  12.181   4.381
47498SOL    HW144391   7.186  12.258   4.325
47498SOL    HW244392   7.253  12.128   4.362
47499SOL     OW44393   2.497  13.687  13.995
47499SOL    HW144394   2.423  13.702  14.054
47499SOL    HW244395   2.553  13.625  14.042
47500SOL     OW44396  12.315  10.472  10.059
47500SOL    HW144397  12.355  10.385  10.061
47500SOL    HW244398  12.221  10.455  10.064
47501SOL     OW44399   4.860   6.357   6.228
47501SOL    HW144400   4.861   6.442   6.273
47501SOL    HW244401   4.904   6.297   6.288
47502SOL     OW44402   2.151  14.375   4.538
47502SOL    HW144403   2.141  14.459   4.493
47502SOL    HW244404   2.101  14.385   4.619
47503SOL     OW44405  13.973  14.870   9.537
47503SOL    HW144406  13.921  14.820   9.600
47503SOL    HW244407  13.943  14.840   9.451
47504SOL     OW44408   9.716   5.842  13.777
47504SOL    HW144409   9.722   5.937  13.784
47504SOL    HW244410   9.805   5.813  13.756
47505SOL     OW44411   2.094   4.398   1.092
47505SOL    HW144412   2.157   4.433   1.155
47505SOL    HW244413   2.015   4.450   1.107
47506SOL     OW44414   0.964   8.543   7.387
47506SOL    HW144415   0.944   8.621   7.438
47506SOL    HW244416   1.020   8.574   7.316
47507SOL     OW44417  12.305   8.625   9.396
47507SOL    HW144418  12.242   8.664   9.456
47507SOL    HW244419  12.254   8.604   9.318
47508SOL     OW44420   8.158   6.973  14.070
47508SOL    HW144421   8.247   6.958  14.038
47508SOL    HW244422   8.158   7.064  14.099
47509SOL     OW44423   7.164   3.512   9.611
47509SOL    HW144424   7.156   3.432   9.560
47509SOL    HW244425   7.252   3.507   9.649
47510SOL     OW44426   6.871  14.107   6.540
47510SOL    HW144427   6.850  14.014   6.534
47510SOL    HW244428   6.939  14.111   6.608
47511SOL     OW44429   8.473   5.140   4.106
47511SOL    HW144430   8.429   5.221   4.130
47511SOL    HW244431   8.545   5.132   4.169
47512SOL     OW44432  14.620   3.357  12.765
47512SOL    HW144433  14.583   3.297  12.700
47512SOL    HW244434  14.570   3.340  12.845
47513SOL     OW44435  10.114   1.708   5.708
47513SOL    HW144436  10.122   1.628   5.761
47513SOL    HW244437  10.197   1.714   5.662
47514SOL     OW44438   0.779  11.697   8.325
47514SOL    HW144439   0.857  11.727   8.371
47514SOL    HW244440   0.758  11.768   8.264
47515SOL     OW44441  11.836  12.963   1.969
47515SOL    HW144442  11.807  13.037   1.915
47515SOL    HW244443  11.859  12.895   1.906
47516SOL     OW44444   3.001  11.311   5.030
47516SOL    HW144445   3.006  11.284   5.122
47516SOL    HW244446   2.954  11.240   4.987
47517SOL     OW44447   6.967   5.816   3.079
47517SOL    HW144448   6.944   5.896   3.031
47517SOL    HW244449   6.934   5.745   3.024
47518SOL     OW44450   6.485   4.044   4.676
47518SOL    HW144451   6.506   4.119   4.731
47518SOL    HW244452   6.443   4.081   4.599
47519SOL     OW44453   0.753   3.843   8.468
47519SOL    HW144454   0.701   3.841   8.548
47519SOL    HW244455   0.842   3.820   8.495
47520SOL     OW44456   6.541   1.916   9.810
47520SOL    HW144457   6.628   1.917   9.769
47520SOL    HW244458   6.547   1.851   9.880
47521SOL     OW44459  12.242   4.523   2.371
47521SOL    HW144460  12.217   4.511   2.279
47521SOL    HW244461  12.176   4.584   2.405
47522SOL     OW44462   0.730  14.324   6.091
47522SOL    HW144463   0.651  14.318   6.038
47522SOL    HW244464   0.736  14.417   6.115
47523SOL     OW44465  12.265  10.334   0.464
47523SOL    HW144466  12.361  10.333   0.470
47523SOL    HW244467  12.238  10.247   0.492
47524SOL     OW44468  14.450   5.727   8.516
47524SOL    HW144469  14.442   5.799   8.578
47524SOL    HW244470  14.400   5.756   8.439
47525SOL     OW44471   1.084   2.429   5.183
47525SOL    HW144472   1.030   2.458   5.109
47525SOL    HW244473   1.097   2.335   5.168
47526SOL     OW44474   5.780   1.080   2.522
47526SOL    HW144475   5.769   1.144   2.593
47526SOL    HW244476   5.748   1.126   2.444
47527SOL     OW44477  12.404  12.426  14.699
47527SOL    HW144478  12.350  12.387  14.768
47527SOL    HW244479  12.345  12.435  14.625
47528SOL     OW44480  13.303   1.642   1.538
47528SOL    HW144481  13.366   1.592   1.485
47528SOL    HW244482  13.243   1.576   1.571
47529SOL     OW44483   7.585   0.135   8.297
47529SOL    HW144484   7.613   0.172   8.380
47529SOL    HW244485   7.495   0.166   8.286
47530SOL     OW44486   4.059   5.057   1.037
47530SOL    HW144487   4.122   5.066   1.110
47530SOL    HW244488   4.109   5.084   0.960
47531SOL     OW44489  13.817   5.556  12.935
47531SOL    HW144490  13.727   5.582  12.914
47531SOL    HW244491  13.864   5.563  12.852
47532SOL     OW44492  11.105   3.559   0.854
47532SOL    HW144493  11.116   3.554   0.949
47532SOL    HW244494  11.179   3.613   0.824
47533SOL     OW44495   9.431  14.563   7.188
47533SOL    HW144496   9.388  14.641   7.224
47533SOL    HW244497   9.430  14.500   7.259
47534SOL     OW44498   5.523   4.140   1.624
47534SOL    HW144499   5.532   4.081   1.549
47534SOL    HW244500   5.471   4.090   1.687
47535SOL     OW44501   2.823   5.560   3.296
47535SOL    HW144502   2.804   5.579   3.387
47535SOL    HW244503   2.859   5.641   3.261
47536SOL     OW44504   9.467  11.057   5.669
47536SOL    HW144505   9.441  10.965   5.657
47536SOL    HW244506   9.559  11.060   5.642
47537SOL     OW44507   2.896   9.861   2.671
47537SOL    HW144508   2.855   9.820   2.747
47537SOL    HW244509   2.969   9.911   2.707
47538SOL     OW44510   8.513   4.938  13.921
47538SOL    HW144511   8.475   4.962  13.837
47538SOL    HW244512   8.558   5.018  13.950
47539SOL     OW44513  12.239  10.669  11.713
47539SOL    HW144514  12.218  10.639  11.801
47539SOL    HW244515  12.333  10.653  11.704
47540SOL     OW44516   3.435   5.811   7.776
47540SOL    HW144517   3.438   5.835   7.683
47540SOL    HW244518   3.507   5.858   7.816
47541SOL     OW44519   5.418   4.486  13.737
47541SOL    HW144520   5.436   4.543  13.662
47541SOL    HW244521   5.410   4.546  13.811
47542SOL     OW44522   9.413  10.930   3.380
47542SOL    HW144523   9.374  10.969   3.458
47542SOL    HW244524   9.403  10.997   3.312
47543SOL     OW44525  14.095   5.908   8.657
47543SOL    HW144526  14.044   5.838   8.699
47543SOL    HW244527  14.059   5.989   8.693
47544SOL     OW44528  10.405  10.840  12.533
47544SOL    HW144529  10.395  10.835  12.437
47544SOL    HW244530  10.315  10.839  12.566
47545SOL     OW44531  10.945   8.189   9.479
47545SOL    HW144532  10.907   8.110   9.519
47545SOL    HW244533  10.968   8.245   9.553
47546SOL     OW44534  13.239  13.135   3.553
47546SOL    HW144535  13.260  13.046   3.526
47546SOL    HW244536  13.157  13.127   3.601
47547SOL     OW44537   3.267   3.463   5.562
47547SOL    HW144538   3.204   3.395   5.589
47547SOL    HW244539   3.344   3.447   5.617
47548SOL     OW44540  12.541  13.744   6.946
47548SOL    HW144541  12.459  13.702   6.973
47548SOL    HW244542  12.535  13.833   6.979
47549SOL     OW44543  12.717   8.588   9.002
47549SOL    HW144544  12.640   8.628   9.044
47549SOL    HW244545  12.758   8.537   9.072
47550SOL     OW44546  10.460  13.477   2.054
47550SOL    HW144547  10.412  13.404   2.015
47550SOL    HW244548  10.528  13.435   2.108
47551SOL     OW44549   4.359  13.972   4.543
47551SOL    HW144550   4.417  13.997   4.614
47551SOL    HW244551   4.273  14.002   4.571
47552SOL     OW44552  12.378  10.577   9.369
47552SOL    HW144553  12.442  10.635   9.410
47552SOL    HW244554  12.301  10.632   9.355
47553SOL     OW44555   6.773   2.973   1.926
47553SOL    HW144556   6.767   3.014   1.840
47553SOL    HW244557   6.819   3.037   1.980
47554SOL     OW44558   9.053   4.138   8.280
47554SOL    HW144559   9.133   4.191   8.272
47554SOL    HW244560   9.076   4.054   8.240
47555SOL     OW44561   4.853  11.685   0.122
47555SOL    HW144562   4.810  11.694   0.207
47555SOL    HW244563   4.944  11.710   0.137
47556SOL     OW44564   1.420  13.925   4.678
47556SOL    HW144565   1.444  13.993   4.615
47556SOL    HW244566   1.474  13.850   4.655
47557SOL     OW44567   8.098   3.496   7.244
47557SOL    HW144568   8.080   3.405   7.219
47557SOL    HW244569   8.035   3.548   7.193
47558SOL     OW44570  10.392   7.980  11.229
47558SOL    HW144571  10.356   7.938  11.151
47558SOL    HW244572  10.321   7.976  11.293
47559SOL     OW44573   6.246   1.932  14.288
47559SOL    HW144574   6.315   1.919  14.353
47559SOL    HW244575   6.212   1.844  14.271
47560SOL     OW44576   9.150   9.284   1.578
47560SOL    HW144577   9.244   9.304   1.577
47560SOL    HW244578   9.119   9.319   1.662
47561SOL     OW44579   6.546   6.222   6.865
47561SOL    HW144580   6.498   6.265   6.937
47561SOL    HW244581   6.587   6.294   6.817
47562SOL     OW44582   7.954  11.053   4.733
47562SOL    HW144583   7.871  11.074   4.689
47562SOL    HW244584   8.020  11.060   4.664
47563SOL     OW44585  12.456  10.548   4.003
47563SOL    HW144586  12.503  10.503   4.073
47563SOL    HW244587  12.455  10.485   3.930
47564SOL     OW44588  11.106   6.906  11.780
47564SOL    HW144589  11.105   6.814  11.754
47564SOL    HW244590  11.032   6.945  11.734
47565SOL     OW44591   6.009   6.515   9.865
47565SOL    HW144592   6.013   6.611   9.869
47565SOL    HW244593   6.019   6.487   9.955
47566SOL     OW44594   3.930   4.106   8.688
47566SOL    HW144595   3.933   4.075   8.598
47566SOL    HW244596   3.855   4.061   8.727
47567SOL     OW44597  13.857  12.780   0.882
47567SOL    HW144598  13.825  12.768   0.971
47567SOL    HW244599  13.937  12.832   0.892
47568SOL     OW44600  13.920   6.646  12.563
47568SOL    HW144601  14.006   6.636  12.522
47568SOL    HW244602  13.929   6.722  12.620
47569SOL     OW44603   9.363  14.803  13.141
47569SOL    HW144604   9.376   0.016  13.145
47569SOL    HW244605   9.439  14.771  13.093
47570SOL     OW44606   0.182   5.917   0.649
47570SOL    HW144607   0.116   5.944   0.713
47570SOL    HW244608   0.132   5.893   0.572
47571SOL     OW44609   0.081  11.284   4.122
47571SOL    HW144610   0.110  11.283   4.213
47571SOL    HW244611   0.155  11.249   4.072
47572SOL     OW44612   7.934   3.778  10.616
47572SOL    HW144613   8.016   3.772  10.665
47572SOL    HW244614   7.958   3.760  10.526
47573SOL     OW44615   2.239  14.101   9.378
47573SOL    HW144616   2.302  14.161   9.416
47573SOL    HW244617   2.176  14.084   9.449
47574SOL     OW44618   6.480   9.142   8.583
47574SOL    HW144619   6.465   9.214   8.644
47574SOL    HW244620   6.399   9.137   8.532
47575SOL     OW44621   2.388   3.829   4.661
47575SOL    HW144622   2.411   3.769   4.590
47575SOL    HW244623   2.461   3.822   4.722
47576SOL     OW44624  11.126   7.311   0.437
47576SOL    HW144625  11.135   7.256   0.360
47576SOL    HW244626  11.138   7.400   0.405
47577SOL     OW44627   9.927   0.256   3.105
47577SOL    HW144628   9.934   0.349   3.126
47577SOL    HW244629  10.007   0.217   3.140
47578SOL     OW44630   8.110  12.449   4.348
47578SOL    HW144631   8.047  12.494   4.291
47578SOL    HW244632   8.177  12.514   4.366
47579SOL     OW44633   3.388   0.342   4.357
47579SOL    HW144634   3.313   0.361   4.302
47579SOL    HW244635   3.354   0.348   4.447
47580SOL     OW44636   3.096   0.837   7.815
47580SOL    HW144637   3.149   0.915   7.831
47580SOL    HW244638   3.150   0.782   7.758
47581SOL     OW44639   3.405   0.301   5.804
47581SOL    HW144640   3.351   0.369   5.764
47581SOL    HW244641   3.455   0.265   5.732
47582SOL     OW44642  12.639   1.777  11.028
47582SOL    HW144643  12.733   1.762  11.029
47582SOL    HW244644  12.629   1.870  11.009
47583SOL     OW44645   9.993  13.227   6.965
47583SOL    HW144646   9.910  13.266   6.938
47583SOL    HW244647  10.005  13.255   7.056
47584SOL     OW44648  10.113   2.304  10.403
47584SOL    HW144649  10.135   2.222  10.448
47584SOL    HW244650  10.182   2.365  10.429
47585SOL     OW44651   8.961  13.178   3.886
47585SOL    HW144652   9.006  13.104   3.846
47585SOL    HW244653   8.949  13.152   3.977
47586SOL     OW44654  12.491   5.019   7.052
47586SOL    HW144655  12.560   5.059   7.104
47586SOL    HW244656  12.421   5.083   7.051
47587SOL     OW44657   0.173   5.495   5.130
47587SOL    HW144658   0.080   5.516   5.129
47587SOL    HW244659   0.176   5.400   5.118
47588SOL     OW44660   5.184   3.823   9.240
47588SOL    HW144661   5.179   3.914   9.210
47588SOL    HW244662   5.216   3.774   9.164
47589SOL     OW44663   3.740  14.755  10.628
47589SOL    HW144664   3.782  14.676  10.595
47589SOL    HW244665   3.800  14.788  10.695
47590SOL     OW44666  11.749   9.783   0.753
47590SOL    HW144667  11.803   9.847   0.707
47590SOL    HW244668  11.809   9.711   0.773
47591SOL     OW44669   3.088   6.695   8.165
47591SOL    HW144670   3.087   6.692   8.261
47591SOL    HW244671   3.021   6.760   8.142
47592SOL     OW44672  13.310   6.109   4.275
47592SOL    HW144673  13.339   6.199   4.289
47592SOL    HW244674  13.272   6.082   4.358
47593SOL     OW44675   0.162   3.423  14.178
47593SOL    HW144676   0.110   3.450  14.253
47593SOL    HW244677   0.131   3.335  14.157
47594SOL     OW44678   9.077   8.516  10.031
47594SOL    HW144679   9.061   8.422  10.036
47594SOL    HW244680   9.147   8.532  10.095
47595SOL     OW44681  10.476   1.029   1.859
47595SOL    HW144682  10.380   1.031   1.856
47595SOL    HW244683  10.500   1.111   1.903
47596SOL     OW44684   0.052   5.823   9.105
47596SOL    HW144685  14.839   5.824   9.095
47596SOL    HW244686   0.069   5.883   9.178
47597SOL     OW44687   3.869   0.038   5.387
47597SOL    HW144688   3.816   0.110   5.354
47597SOL    HW244689   3.882  14.863   5.311
47598SOL     OW44690  14.720   3.783   2.472
47598SOL    HW144691  14.755   3.851   2.530
47598SOL    HW244692  14.634   3.818   2.446
47599SOL     OW44693   3.678  13.184  13.414
47599SOL    HW144694   3.734  13.198  13.490
47599SOL    HW244695   3.657  13.271  13.382
47600SOL     OW44696   9.933   7.547   7.228
47600SOL    HW144697  10.011   7.495   7.209
47600SOL    HW244698   9.961   7.637   7.212
47601SOL     OW44699  10.653  11.608  12.380
47601SOL    HW144700  10.741  11.621  12.416
47601SOL    HW244701  10.667  11.598  12.285
47602SOL     OW44702  14.295   9.469  13.869
47602SOL    HW144703  14.287   9.530  13.942
47602SOL    HW244704  14.269   9.519  13.793
47603SOL     OW44705   4.088  12.446   4.034
47603SOL    HW144706   4.007  12.497   4.034
47603SOL    HW244707   4.151  12.501   4.080
47604SOL     OW44708   0.534  11.275   2.739
47604SOL    HW144709   0.586  11.346   2.700
47604SOL    HW244710   0.580  11.254   2.820
47605SOL     OW44711   2.194   1.964   8.900
47605SOL    HW144712   2.202   2.039   8.841
47605SOL    HW244713   2.139   1.996   8.971
47606SOL     OW44714   1.180   2.167  10.309
47606SOL    HW144715   1.177   2.072  10.319
47606SOL    HW244716   1.092   2.192  10.283
47607SOL     OW44717  12.181  14.509   4.329
47607SOL    HW144718  12.151  14.501   4.419
47607SOL    HW244719  12.173  14.421   4.292
47608SOL     OW44720   5.651   8.833   9.761
47608SOL    HW144721   5.608   8.812   9.678
47608SOL    HW244722   5.680   8.924   9.750
47609SOL     OW44723   9.599   5.394   7.106
47609SOL    HW144724   9.581   5.305   7.076
47609SOL    HW244725   9.535   5.409   7.175
47610SOL     OW44726  11.439  11.262   3.934
47610SOL    HW144727  11.467  11.193   3.994
47610SOL    HW244728  11.488  11.245   3.854
47611SOL     OW44729   8.357   3.001  10.596
47611SOL    HW144730   8.368   3.076  10.653
47611SOL    HW244731   8.427   3.010  10.531
47612SOL     OW44732   8.658  14.229   1.686
47612SOL    HW144733   8.646  14.171   1.762
47612SOL    HW244734   8.726  14.186   1.634
47613SOL     OW44735   5.987   7.806   2.859
47613SOL    HW144736   5.925   7.761   2.916
47613SOL    HW244737   5.959   7.898   2.859
47614SOL     OW44738  12.622   8.273   5.756
47614SOL    HW144739  12.644   8.193   5.803
47614SOL    HW244740  12.678   8.273   5.679
47615SOL     OW44741   1.335   4.275   7.885
47615SOL    HW144742   1.386   4.265   7.965
47615SOL    HW244743   1.378   4.217   7.821
47616SOL     OW44744   2.599   7.766   7.382
47616SOL    HW144745   2.592   7.683   7.428
47616SOL    HW244746   2.525   7.818   7.413
47617SOL     OW44747   5.337   7.192   8.869
47617SOL    HW144748   5.409   7.233   8.918
47617SOL    HW244749   5.372   7.109   8.839
47618SOL     OW44750  12.351  13.258  13.830
47618SOL    HW144751  12.329  13.167  13.849
47618SOL    HW244752  12.317  13.307  13.905
47619SOL     OW44753   6.715  11.514  10.509
47619SOL    HW144754   6.695  11.557  10.592
47619SOL    HW244755   6.808  11.495  10.513
47620SOL     OW44756   1.077  14.128   7.874
47620SOL    HW144757   1.019  14.052   7.880
47620SOL    HW244758   1.110  14.140   7.964
47621SOL     OW44759   7.051  14.348   4.570
47621SOL    HW144760   7.037  14.416   4.636
47621SOL    HW244761   7.139  14.365   4.536
47622SOL     OW44762   2.798  13.979  13.999
47622SOL    HW144763   2.771  13.981  13.907
47622SOL    HW244764   2.827  13.889  14.013
47623SOL     OW44765   1.816  12.523   0.531
47623SOL    HW144766   1.832  12.464   0.457
47623SOL    HW244767   1.781  12.467   0.600
47624SOL     OW44768  14.714   5.402   8.055
47624SOL    HW144769  14.681   5.454   8.128
47624SOL    HW244770  14.721   5.465   7.982
47625SOL     OW44771  13.678   5.831   8.701
47625SOL    HW144772  13.737   5.789   8.764
47625SOL    HW244773  13.734   5.858   8.629
47626SOL     OW44774   6.684   6.299   3.268
47626SOL    HW144775   6.625   6.276   3.340
47626SOL    HW244776   6.762   6.334   3.312
47627SOL     OW44777   1.262   0.259   5.332
47627SOL    HW144778   1.273   0.311   5.252
47627SOL    HW244779   1.178   0.215   5.320
47628SOL     OW44780   3.135   4.822   0.499
47628SOL    HW144781   3.066   4.884   0.522
47628SOL    HW244782   3.089   4.741   0.478
47629SOL     OW44783   1.030  14.762   0.774
47629SOL    HW144784   0.972  14.699   0.731
47629SOL    HW244785   1.073  14.808   0.702
47630SOL     OW44786   1.153   5.051  13.165
47630SOL    HW144787   1.233   5.024  13.121
47630SOL    HW244788   1.102   5.096  13.098
47631SOL     OW44789  11.937   6.617   5.012
47631SOL    HW144790  12.023   6.584   5.039
47631SOL    HW244791  11.949   6.711   5.002
47632SOL     OW44792   2.588   0.958  13.763
47632SOL    HW144793   2.520   0.999  13.816
47632SOL    HW244794   2.658   1.024  13.758
47633SOL     OW44795   2.426   6.094   1.159
47633SOL    HW144796   2.394   6.164   1.102
47633SOL    HW244797   2.454   6.025   1.100
47634SOL     OW44798   1.641   3.763   6.591
47634SOL    HW144799   1.652   3.758   6.496
47634SOL    HW244800   1.583   3.837   6.605
47635SOL     OW44801   0.106   7.773  10.322
47635SOL    HW144802   0.158   7.819  10.256
47635SOL    HW244803   0.152   7.788  10.404
47636SOL     OW44804   4.527   5.613   9.027
47636SOL    HW144805   4.551   5.599   9.119
47636SOL    HW244806   4.457   5.550   9.010
47637SOL     OW44807   2.019   4.287   3.475
47637SOL    HW144808   2.058   4.334   3.401
47637SOL    HW244809   1.925   4.301   3.465
47638SOL     OW44810  11.156   1.359   1.604
47638SOL    HW144811  11.214   1.432   1.625
47638SOL    HW244812  11.121   1.381   1.517
47639SOL     OW44813   3.325   1.430  10.051
47639SOL    HW144814   3.411   1.390  10.056
47639SOL    HW244815   3.335   1.502   9.987
47640SOL     OW44816   1.487  13.845  11.888
47640SOL    HW144817   1.419  13.879  11.947
47640SOL    HW244818   1.490  13.751  11.906
47641SOL     OW44819  11.456  12.614   0.679
47641SOL    HW144820  11.400  12.680   0.638
47641SOL    HW244821  11.504  12.575   0.605
47642SOL     OW44822   4.618   1.684  10.954
47642SOL    HW144823   4.713   1.692  10.941
47642SOL    HW244824   4.581   1.708  10.869
47643SOL     OW44825   1.340  13.201   2.318
47643SOL    HW144826   1.347  13.209   2.222
47643SOL    HW244827   1.323  13.108   2.332
47644SOL     OW44828  14.300  10.476  11.158
47644SOL    HW144829  14.285  10.516  11.244
47644SOL    HW244830  14.288  10.382  11.173
47645SOL     OW44831  10.898   9.487   3.741
47645SOL    HW144832  10.942   9.432   3.676
47645SOL    HW244833  10.808   9.454   3.743
47646SOL     OW44834  13.064   6.903   7.473
47646SOL    HW144835  13.001   6.834   7.491
47646SOL    HW244836  13.100   6.925   7.559
47647SOL     OW44837   7.391   2.238  11.158
47647SOL    HW144838   7.336   2.162  11.140
47647SOL    HW244839   7.336   2.295  11.212
47648SOL     OW44840   0.172  13.686   3.762
47648SOL    HW144841   0.092  13.727   3.727
47648SOL    HW244842   0.242  13.747   3.739
47649SOL     OW44843   1.631   9.966  14.733
47649SOL    HW144844   1.649   9.878  14.701
47649SOL    HW244845   1.715  10.012  14.725
47650SOL     OW44846   8.556  10.609   3.852
47650SOL    HW144847   8.604  10.673   3.799
47650SOL    HW244848   8.612  10.531   3.851
47651SOL     OW44849   5.250   8.149  14.034
47651SOL    HW144850   5.303   8.123  13.958
47651SOL    HW244851   5.260   8.077  14.096
47652SOL     OW44852  12.229   4.927   7.614
47652SOL    HW144853  12.298   4.920   7.549
47652SOL    HW244854  12.186   4.842   7.615
47653SOL     OW44855  11.462   5.934   1.353
47653SOL    HW144856  11.368   5.932   1.375
47653SOL    HW244857  11.476   6.020   1.313
47654SOL     OW44858   1.856   7.982  11.389
47654SOL    HW144859   1.945   7.959  11.361
47654SOL    HW244860   1.859   8.076  11.405
47655SOL     OW44861   9.548   7.943   4.260
47655SOL    HW144862   9.600   7.913   4.185
47655SOL    HW244863   9.459   7.917   4.239
47656SOL     OW44864  13.209   5.751   7.320
47656SOL    HW144865  13.195   5.819   7.386
47656SOL    HW244866  13.121   5.728   7.291
47657SOL     OW44867   9.815  13.223   6.450
47657SOL    HW144868   9.820  13.278   6.528
47657SOL    HW244869   9.849  13.138   6.479
47658SOL     OW44870   0.784  14.404   8.062
47658SOL    HW144871   0.741  14.487   8.084
47658SOL    HW244872   0.751  14.342   8.127
47659SOL     OW44873   1.158  10.503  12.748
47659SOL    HW144874   1.100  10.451  12.693
47659SOL    HW244875   1.099  10.553  12.805
47660SOL     OW44876   5.068   3.774   6.444
47660SOL    HW144877   5.098   3.864   6.435
47660SOL    HW244878   5.090   3.750   6.533
47661SOL     OW44879   4.588   9.109   6.465
47661SOL    HW144880   4.620   9.047   6.530
47661SOL    HW244881   4.562   9.055   6.391
47662SOL     OW44882   9.042  12.318   9.897
47662SOL    HW144883   9.076  12.367   9.972
47662SOL    HW244884   9.120  12.285   9.853
47663SOL     OW44885  10.435  10.799   3.638
47663SOL    HW144886  10.424  10.860   3.565
47663SOL    HW244887  10.370  10.827   3.703
47664SOL     OW44888   8.973   0.379  11.761
47664SOL    HW144889   8.959   0.447  11.695
47664SOL    HW244890   8.927   0.411  11.838
47665SOL     OW44891   8.217  14.607   7.391
47665SOL    HW144892   8.264  14.687   7.413
47665SOL    HW244893   8.240  14.546   7.462
47666SOL     OW44894  10.571  11.678  14.512
47666SOL    HW144895  10.625  11.655  14.436
47666SOL    HW244896  10.482  11.655  14.485
47667SOL     OW44897  13.404   1.189  12.386
47667SOL    HW144898  13.403   1.099  12.355
47667SOL    HW244899  13.320   1.225  12.358
47668SOL     OW44900   6.932  10.932  11.082
47668SOL    HW144901   7.015  10.883  11.086
47668SOL    HW244902   6.933  10.986  11.161
47669SOL     OW44903  10.263   5.299  11.746
47669SOL    HW144904  10.323   5.307  11.673
47669SOL    HW244905  10.318   5.272  11.820
47670SOL     OW44906   8.322  10.875   1.847
47670SOL    HW144907   8.352  10.959   1.883
47670SOL    HW244908   8.282  10.898   1.763
47671SOL     OW44909  13.558   0.973   5.827
47671SOL    HW144910  13.590   1.023   5.902
47671SOL    HW244911  13.596   1.017   5.751
47672SOL     OW44912  14.316  12.342  12.605
47672SOL    HW144913  14.346  12.283  12.536
47672SOL    HW244914  14.311  12.287  12.683
47673SOL     OW44915   3.429   3.589   3.197
47673SOL    HW144916   3.387   3.674   3.182
47673SOL    HW244917   3.510   3.593   3.146
47674SOL     OW44918  12.525   4.460   7.506
47674SOL    HW144919  12.448   4.440   7.558
47674SOL    HW244920  12.492   4.468   7.417
47675SOL     OW44921  12.809  11.820   3.282
47675SOL    HW144922  12.757  11.744   3.258
47675SOL    HW244923  12.894  11.806   3.241
47676SOL     OW44924   4.691   5.447   4.647
47676SOL    HW144925   4.617   5.421   4.701
47676SOL    HW244926   4.736   5.365   4.627
47677SOL     OW44927   6.637   8.048   6.926
47677SOL    HW144928   6.598   7.966   6.895
47677SOL    HW244929   6.688   8.080   6.851
47678SOL     OW44930  14.660  14.695   2.655
47678SOL    HW144931  14.681  14.626   2.718
47678SOL    HW244932  14.565  14.707   2.663
47679SOL     OW44933   1.521   6.569  14.533
47679SOL    HW144934   1.483   6.652  14.561
47679SOL    HW244935   1.544   6.584  14.441
47680SOL     OW44936   9.188  13.637   1.563
47680SOL    HW144937   9.234  13.658   1.644
47680SOL    HW244938   9.111  13.693   1.563
47681SOL     OW44939   4.290   5.277   9.724
47681SOL    HW144940   4.274   5.225   9.645
47681SOL    HW244941   4.319   5.362   9.691
47682SOL     OW44942   6.142  13.697   9.370
47682SOL    HW144943   6.237  13.687   9.375
47682SOL    HW244944   6.120  13.681   9.278
47683SOL     OW44945   5.419   3.247   0.868
47683SOL    HW144946   5.377   3.226   0.785
47683SOL    HW244947   5.477   3.173   0.885
47684SOL     OW44948   4.212   9.362  10.915
47684SOL    HW144949   4.257   9.340  10.996
47684SOL    HW244950   4.132   9.406  10.943
47685SOL     OW44951  13.491   5.198   2.176
47685SOL    HW144952  13.399   5.221   2.173
47685SOL    HW244953  13.492   5.103   2.187
47686SOL     OW44954  11.205   4.773   0.465
47686SOL    HW144955  11.283   4.792   0.517
47686SOL    HW244956  11.225   4.689   0.422
47687SOL     OW44957  13.874   5.270   6.532
47687SOL    HW144958  13.871   5.198   6.594
47687SOL    HW244959  13.957   5.259   6.486
47688SOL     OW44960   4.713   7.460   8.553
47688SOL    HW144961   4.664   7.409   8.488
47688SOL    HW244962   4.788   7.406   8.574
47689SOL     OW44963   0.851   8.374   5.088
47689SOL    HW144964   0.763   8.360   5.123
47689SOL    HW244965   0.906   8.311   5.134
47690SOL     OW44966   1.799  12.876   3.242
47690SOL    HW144967   1.771  12.819   3.314
47690SOL    HW244968   1.830  12.955   3.286
47691SOL     OW44969   7.660   1.411   1.791
47691SOL    HW144970   7.581   1.437   1.745
47691SOL    HW244971   7.634   1.404   1.883
47692SOL     OW44972  11.866   1.619  11.599
47692SOL    HW144973  11.812   1.696  11.581
47692SOL    HW244974  11.948   1.656  11.634
47693SOL     OW44975   3.838   5.208   0.966
47693SOL    HW144976   3.870   5.221   0.877
47693SOL    HW244977   3.910   5.162   1.010
47694SOL     OW44978   1.165  13.699  10.569
47694SOL    HW144979   1.091  13.734  10.620
47694SOL    HW244980   1.181  13.613  10.607
47695SOL     OW44981   4.441   9.824   6.474
47695SOL    HW144982   4.495   9.748   6.495
47695SOL    HW244983   4.418   9.861   6.559
47696SOL     OW44984   9.227   2.847   9.070
47696SOL    HW144985   9.198   2.867   9.159
47696SOL    HW244986   9.249   2.932   9.032
47697SOL     OW44987  12.155   3.267  12.742
47697SOL    HW144988  12.215   3.203  12.780
47697SOL    HW244989  12.114   3.220  12.669
47698SOL     OW44990  14.180   0.048  11.726
47698SOL    HW144991  14.215   0.131  11.694
47698SOL    HW244992  14.253  14.869  11.719
47699SOL     OW44993   5.329  12.585   2.172
47699SOL    HW144994   5.294  12.666   2.135
47699SOL    HW244995   5.381  12.613   2.248
47700SOL     OW44996   9.979   4.374   9.255
47700SOL    HW144997   9.988   4.469   9.264
47700SOL    HW244998  10.069   4.342   9.253
47701SOL     OW44999   3.220   0.084   1.364
47701SOL    HW145000   3.192   0.018   1.427
47701SOL    HW245001   3.252   0.034   1.289
47702SOL     OW45002   2.155   6.345   8.231
47702SOL    HW145003   2.182   6.314   8.144
47702SOL    HW245004   2.175   6.439   8.229
47703SOL     OW45005   5.688   9.046  13.719
47703SOL    HW145006   5.706   9.140  13.707
47703SOL    HW245007   5.724   9.005  13.640
47704SOL     OW45008   4.593   3.436   7.872
47704SOL    HW145009   4.606   3.349   7.911
47704SOL    HW245010   4.569   3.492   7.945
47705SOL     OW45011   2.401   3.936  12.325
47705SOL    HW145012   2.488   3.976  12.332
47705SOL    HW245013   2.415   3.858  12.272
47706SOL     OW45014  13.874   6.119   9.125
47706SOL    HW145015  13.798   6.134   9.068
47706SOL    HW245016  13.917   6.204   9.131
47707SOL     OW45017   4.933   1.224  11.153
47707SOL    HW145018   4.867   1.163  11.185
47707SOL    HW245019   4.906   1.245  11.064
47708SOL     OW45020   2.831   7.897  14.110
47708SOL    HW145021   2.785   7.851  14.039
47708SOL    HW245022   2.782   7.979  14.120
47709SOL     OW45023   9.431   3.030  12.924
47709SOL    HW145024   9.351   2.995  12.963
47709SOL    HW245025   9.434   2.992  12.836
47710SOL     OW45026   5.292  11.323  12.828
47710SOL    HW145027   5.357  11.388  12.854
47710SOL    HW245028   5.274  11.274  12.909
47711SOL     OW45029   8.837   8.038   2.802
47711SOL    HW145030   8.841   7.948   2.771
47711SOL    HW245031   8.845   8.091   2.722
47712SOL     OW45032  10.397  14.684   8.269
47712SOL    HW145033  10.446  14.622   8.323
47712SOL    HW245034  10.338  14.630   8.217
47713SOL     OW45035   4.782   8.648   7.636
47713SOL    HW145036   4.813   8.736   7.612
47713SOL    HW245037   4.824   8.590   7.573
47714SOL     OW45038   2.512   6.386   2.226
47714SOL    HW145039   2.541   6.344   2.307
47714SOL    HW245040   2.585   6.374   2.165
47715SOL     OW45041  13.547   8.588   2.216
47715SOL    HW145042  13.609   8.655   2.246
47715SOL    HW245043  13.492   8.570   2.292
47716SOL     OW45044   5.374   8.638  12.208
47716SOL    HW145045   5.459   8.594  12.212
47716SOL    HW245046   5.389   8.725  12.243
47717SOL     OW45047   4.503   1.633   6.520
47717SOL    HW145048   4.415   1.625   6.557
47717SOL    HW245049   4.501   1.581   6.440
47718SOL     OW45050   5.217   6.887  10.451
47718SOL    HW145051   5.241   6.795  10.442
47718SOL    HW245052   5.259   6.916  10.532
47719SOL     OW45053   8.469  12.059   9.032
47719SOL    HW145054   8.387  12.054   8.982
47719SOL    HW245055   8.483  11.970   9.063
47720SOL     OW45056  10.450  14.775  12.068
47720SOL    HW145057  10.361  14.800  12.091
47720SOL    HW245058  10.445  14.749  11.976
47721SOL     OW45059   6.611  14.778   8.598
47721SOL    HW145060   6.616  14.686   8.571
47721SOL    HW245061   6.606  14.827   8.516
47722SOL     OW45062   5.686   5.036   6.363
47722SOL    HW145063   5.757   4.993   6.316
47722SOL    HW245064   5.608   5.019   6.310
47723SOL     OW45065   5.622   5.820  12.515
47723SOL    HW145066   5.532   5.814  12.482
47723SOL    HW245067   5.677   5.807  12.438
47724SOL     OW45068   7.815  11.706   5.237
47724SOL    HW145069   7.899  11.746   5.212
47724SOL    HW245070   7.816  11.620   5.194
47725SOL     OW45071  12.891  14.212   2.174
47725SOL    HW145072  12.819  14.200   2.236
47725SOL    HW245073  12.966  14.168   2.215
47726SOL     OW45074  14.101   4.059   0.338
47726SOL    HW145075  14.125   3.968   0.323
47726SOL    HW245076  14.049   4.083   0.261
47727SOL     OW45077   5.443   2.063   7.345
47727SOL    HW145078   5.508   1.992   7.349
47727SOL    HW245079   5.392   2.053   7.425
47728SOL     OW45080  10.477   4.623   0.225
47728SOL    HW145081  10.469   4.602   0.132
47728SOL    HW245082  10.447   4.713   0.232
47729SOL     OW45083   7.575   4.516  14.775
47729SOL    HW145084   7.637   4.586  14.756
47729SOL    HW245085   7.513   4.518  14.703
47730SOL     OW45086  12.733   8.177  10.175
47730SOL    HW145087  12.738   8.217  10.262
47730SOL    HW245088  12.824   8.162  10.150
47731SOL     OW45089   3.073   5.006   9.023
47731SOL    HW145090   2.997   5.057   8.994
47731SOL    HW245091   3.038   4.919   9.041
47732SOL     OW45092   5.568  11.642   7.059
47732SOL    HW145093   5.601  11.679   6.978
47732SOL    HW245094   5.597  11.702   7.128
47733SOL     OW45095   6.792  14.582   9.155
47733SOL    HW145096   6.745  14.504   9.128
47733SOL    HW245097   6.770  14.593   9.247
47734SOL     OW45098   5.615  14.291   7.149
47734SOL    HW145099   5.628  14.272   7.242
47734SOL    HW245100   5.701  14.320   7.118
47735SOL     OW45101   8.307   0.974   3.065
47735SOL    HW145102   8.385   0.989   3.010
47735SOL    HW245103   8.299   0.879   3.068
47736SOL     OW45104   6.570   6.100   6.265
47736SOL    HW145105   6.494   6.049   6.237
47736SOL    HW245106   6.534   6.169   6.320
47737SOL     OW45107   6.192   6.939   6.115
47737SOL    HW145108   6.159   6.909   6.199
47737SOL    HW245109   6.123   6.917   6.053
47738SOL     OW45110   9.311   7.524   4.619
47738SOL    HW145111   9.364   7.567   4.686
47738SOL    HW245112   9.313   7.584   4.544
47739SOL     OW45113   7.927  13.893   0.412
47739SOL    HW145114   7.976  13.942   0.478
47739SOL    HW245115   7.895  13.960   0.351
47740SOL     OW45116   7.505  10.371   1.924
47740SOL    HW145117   7.583  10.426   1.930
47740SOL    HW245118   7.436  10.429   1.894
47741SOL     OW45119   4.300  13.104   1.239
47741SOL    HW145120   4.228  13.153   1.279
47741SOL    HW245121   4.277  13.012   1.254
47742SOL     OW45122  13.307  13.611   9.210
47742SOL    HW145123  13.383  13.556   9.193
47742SOL    HW245124  13.263  13.618   9.125
47743SOL     OW45125  12.991  10.385  12.649
47743SOL    HW145126  13.013  10.414  12.560
47743SOL    HW245127  12.929  10.313  12.635
47744SOL     OW45128   7.245   7.186  11.260
47744SOL    HW145129   7.269   7.235  11.338
47744SOL    HW245130   7.303   7.219  11.192
47745SOL     OW45131   0.328  10.496  14.179
47745SOL    HW145132   0.300  10.433  14.113
47745SOL    HW245133   0.354  10.442  14.254
47746SOL     OW45134   2.296   8.827   5.377
47746SOL    HW145135   2.300   8.884   5.301
47746SOL    HW245136   2.385   8.791   5.384
47747SOL     OW45137   5.428   8.290   1.897
47747SOL    HW145138   5.446   8.349   1.971
47747SOL    HW245139   5.442   8.202   1.932
47748SOL     OW45140  11.659  11.876   2.179
47748SOL    HW145141  11.665  11.807   2.245
47748SOL    HW245142  11.687  11.833   2.097
47749SOL     OW45143  12.840  11.853   1.038
47749SOL    HW145144  12.859  11.786   0.973
47749SOL    HW245145  12.926  11.881   1.069
47750SOL     OW45146  10.577   8.124   4.117
47750SOL    HW145147  10.509   8.057   4.116
47750SOL    HW245148  10.658   8.077   4.135
47751SOL     OW45149   4.871   1.508   0.445
47751SOL    HW145150   4.848   1.425   0.485
47751SOL    HW245151   4.803   1.569   0.475
47752SOL     OW45152   7.693   4.813   3.706
47752SOL    HW145153   7.748   4.874   3.656
47752SOL    HW245154   7.709   4.836   3.798
47753SOL     OW45155   6.541   3.092   0.191
47753SOL    HW145156   6.608   3.047   0.242
47753SOL    HW245157   6.557   3.062   0.101
47754SOL     OW45158   0.537  12.468  10.215
47754SOL    HW145159   0.617  12.422  10.191
47754SOL    HW245160   0.566  12.556  10.238
47755SOL     OW45161  10.706   8.520   9.101
47755SOL    HW145162  10.612   8.539   9.102
47755SOL    HW245163  10.724   8.482   9.186
47756SOL     OW45164  13.127  13.344   2.238
47756SOL    HW145165  13.160  13.256   2.258
47756SOL    HW245166  13.062  13.361   2.306
47757SOL     OW45167   3.382   9.230   0.562
47757SOL    HW145168   3.297   9.238   0.517
47757SOL    HW245169   3.365   9.263   0.650
47758SOL     OW45170  12.112   6.307   7.605
47758SOL    HW145171  12.090   6.289   7.697
47758SOL    HW245172  12.173   6.381   7.610
47759SOL     OW45173   4.595   2.978   9.183
47759SOL    HW145174   4.544   2.917   9.130
47759SOL    HW245175   4.680   2.936   9.194
47760SOL     OW45176   0.122   0.202  10.442
47760SOL    HW145177   0.092   0.293  10.434
47760SOL    HW245178   0.048   0.156  10.482
47761SOL     OW45179   4.443   2.718  12.353
47761SOL    HW145180   4.404   2.749  12.272
47761SOL    HW245181   4.536   2.743  12.347
47762SOL     OW45182  12.595  10.452   8.515
47762SOL    HW145183  12.564  10.391   8.582
47762SOL    HW245184  12.683  10.477   8.544
47763SOL     OW45185   0.022   8.412  12.897
47763SOL    HW145186   0.052   8.334  12.943
47763SOL    HW245187   0.056   8.485  12.948
47764SOL     OW45188   6.710  12.529   1.877
47764SOL    HW145189   6.620  12.500   1.890
47764SOL    HW245190   6.763  12.452   1.893
47765SOL     OW45191   8.501   4.001   4.769
47765SOL    HW145192   8.416   4.042   4.755
47765SOL    HW245193   8.555   4.032   4.697
47766SOL     OW45194  11.625   7.742   4.700
47766SOL    HW145195  11.606   7.715   4.611
47766SOL    HW245196  11.539   7.763   4.738
47767SOL     OW45197   5.540   5.558   0.783
47767SOL    HW145198   5.485   5.480   0.776
47767SOL    HW245199   5.588   5.560   0.700
47768SOL     OW45200   2.693  10.430  14.858
47768SOL    HW145201   2.732  10.343  14.867
47768SOL    HW245202   2.644  10.426  14.776
47769SOL     OW45203  14.245   2.440   2.039
47769SOL    HW145204  14.179   2.375   2.063
47769SOL    HW245205  14.239   2.506   2.108
47770SOL     OW45206  12.037   2.765   9.380
47770SOL    HW145207  12.033   2.781   9.474
47770SOL    HW245208  12.066   2.674   9.373
47771SOL     OW45209   5.392   5.886   9.712
47771SOL    HW145210   5.342   5.915   9.789
47771SOL    HW245211   5.376   5.954   9.646
47772SOL     OW45212  13.394   9.309  13.839
47772SOL    HW145213  13.434   9.370  13.901
47772SOL    HW245214  13.465   9.285  13.780
47773SOL     OW45215   9.693  14.552   5.998
47773SOL    HW145216   9.602  14.542   5.971
47773SOL    HW245217   9.689  14.608   6.076
47774SOL     OW45218   0.793  12.446  13.871
47774SOL    HW145219   0.791  12.401  13.787
47774SOL    HW245220   0.822  12.534  13.851
47775SOL     OW45221  14.253  14.750   9.633
47775SOL    HW145222  14.230  14.658   9.645
47775SOL    HW245223  14.176  14.789   9.593
47776SOL     OW45224  10.084   0.560   7.497
47776SOL    HW145225  10.164   0.522   7.461
47776SOL    HW245226  10.109   0.649   7.522
47777SOL     OW45227  10.062   1.236   6.694
47777SOL    HW145228  10.041   1.218   6.786
47777SOL    HW245229  10.047   1.152   6.650
47778SOL     OW45230  14.801   6.530   3.913
47778SOL    HW145231  14.823   6.529   3.820
47778SOL    HW245232  14.882   6.503   3.956
47779SOL     OW45233   9.088   3.701  14.196
47779SOL    HW145234   9.154   3.667  14.136
47779SOL    HW245235   9.030   3.627  14.214
47780SOL     OW45236  10.781   1.301   2.202
47780SOL    HW145237  10.801   1.391   2.228
47780SOL    HW245238  10.746   1.260   2.281
47781SOL     OW45239   0.340  10.920   6.544
47781SOL    HW145240   0.432  10.921   6.572
47781SOL    HW245241   0.319  11.012   6.527
47782SOL     OW45242  10.229   4.905   7.878
47782SOL    HW145243  10.320   4.910   7.907
47782SOL    HW245244  10.191   4.834   7.930
47783SOL     OW45245  10.712  10.695   3.696
47783SOL    HW145246  10.633  10.748   3.693
47783SOL    HW245247  10.715  10.661   3.785
47784SOL     OW45248  12.611   6.194  12.770
47784SOL    HW145249  12.605   6.255  12.844
47784SOL    HW245250  12.672   6.235  12.709
47785SOL     OW45251  11.478  12.525  10.296
47785SOL    HW145252  11.572  12.507  10.306
47785SOL    HW245253  11.467  12.613  10.331
47786SOL     OW45254  11.829   2.224   2.530
47786SOL    HW145255  11.809   2.191   2.442
47786SOL    HW245256  11.865   2.149   2.577
47787SOL     OW45257   7.036  10.126  12.922
47787SOL    HW145258   7.124  10.095  12.905
47787SOL    HW245259   6.990  10.114  12.839
47788SOL     OW45260  11.613   0.597  12.468
47788SOL    HW145261  11.698   0.571  12.433
47788SOL    HW245262  11.618   0.577  12.562
47789SOL     OW45263   8.600   8.702   5.664
47789SOL    HW145264   8.518   8.741   5.633
47789SOL    HW245265   8.655   8.696   5.586
47790SOL     OW45266   1.452  14.076  14.040
47790SOL    HW145267   1.468  14.170  14.032
47790SOL    HW245268   1.536  14.035  14.022
47791SOL     OW45269   5.973   5.863   0.507
47791SOL    HW145270   6.051   5.860   0.562
47791SOL    HW245271   5.960   5.956   0.489
47792SOL     OW45272  11.882   1.937   2.624
47792SOL    HW145273  11.879   1.914   2.531
47792SOL    HW245274  11.953   1.884   2.660
47793SOL     OW45275  10.679  12.595  14.271
47793SOL    HW145276  10.598  12.562  14.309
47793SOL    HW245277  10.746  12.573  14.335
47794SOL     OW45278   7.976   8.238  12.713
47794SOL    HW145279   7.959   8.237  12.807
47794SOL    HW245280   8.067   8.209  12.706
47795SOL     OW45281   1.563   0.523  12.729
47795SOL    HW145282   1.639   0.486  12.773
47795SOL    HW245283   1.577   0.618  12.731
47796SOL     OW45284  13.566   4.112  13.829
47796SOL    HW145285  13.537   4.148  13.745
47796SOL    HW245286  13.658   4.090  13.816
47797SOL     OW45287  14.046  10.970   8.702
47797SOL    HW145288  14.026  11.062   8.716
47797SOL    HW245289  14.112  10.949   8.769
47798SOL     OW45290   3.557   0.745   2.136
47798SOL    HW145291   3.557   0.730   2.230
47798SOL    HW245292   3.614   0.820   2.123
47799SOL     OW45293   6.665   1.639   5.013
47799SOL    HW145294   6.582   1.596   4.991
47799SOL    HW245295   6.662   1.650   5.108
47800SOL     OW45296   3.802   4.429   1.304
47800SOL    HW145297   3.753   4.510   1.291
47800SOL    HW245298   3.751   4.380   1.369
47801SOL     OW45299   5.406   1.752   1.189
47801SOL    HW145300   5.414   1.731   1.095
47801SOL    HW245301   5.430   1.844   1.195
47802SOL     OW45302   7.142   4.328  13.612
47802SOL    HW145303   7.094   4.249  13.588
47802SOL    HW245304   7.224   4.296  13.650
47803SOL     OW45305   9.601   1.387   6.137
47803SOL    HW145306   9.532   1.323   6.121
47803SOL    HW245307   9.562   1.471   6.115
47804SOL     OW45308   4.300   1.031  14.710
47804SOL    HW145309   4.283   1.026  14.616
47804SOL    HW245310   4.283   0.943  14.742
47805SOL     OW45311   8.350   4.371   3.467
47805SOL    HW145312   8.277   4.336   3.519
47805SOL    HW245313   8.427   4.361   3.524
47806SOL     OW45314   8.956   4.034  14.714
47806SOL    HW145315   8.904   4.024  14.635
47806SOL    HW245316   8.938   4.124  14.743
47807SOL     OW45317   8.240   7.036  13.630
47807SOL    HW145318   8.309   7.056  13.694
47807SOL    HW245319   8.242   7.109  13.569
47808SOL     OW45320   9.613   9.061   2.792
47808SOL    HW145321   9.555   9.078   2.718
47808SOL    HW245322   9.701   9.063   2.755
47809SOL     OW45323  13.426  11.628   9.853
47809SOL    HW145324  13.488  11.667   9.793
47809SOL    HW245325  13.447  11.666   9.939
47810SOL     OW45326   5.051   1.686   9.513
47810SOL    HW145327   4.966   1.686   9.470
47810SOL    HW245328   5.096   1.762   9.478
47811SOL     OW45329   1.046   1.144   7.480
47811SOL    HW145330   1.010   1.090   7.409
47811SOL    HW245331   1.011   1.232   7.463
47812SOL     OW45332   0.389   2.184  10.796
47812SOL    HW145333   0.346   2.269  10.806
47812SOL    HW245334   0.423   2.164  10.884
47813SOL     OW45335   8.140   0.990   5.446
47813SOL    HW145336   8.115   1.063   5.390
47813SOL    HW245337   8.236   0.989   5.443
47814SOL     OW45338  10.359  13.775   4.266
47814SOL    HW145339  10.413  13.832   4.321
47814SOL    HW245340  10.308  13.836   4.213
47815SOL     OW45341   0.764   1.251  12.914
47815SOL    HW145342   0.848   1.206  12.911
47815SOL    HW245343   0.777   1.323  12.975
47816SOL     OW45344   4.914   8.819   5.769
47816SOL    HW145345   4.927   8.812   5.864
47816SOL    HW245346   4.951   8.738   5.734
47817SOL     OW45347   6.576   2.625   1.523
47817SOL    HW145348   6.637   2.690   1.488
47817SOL    HW245349   6.628   2.572   1.583
47818SOL     OW45350   6.640   3.294  11.084
47818SOL    HW145351   6.608   3.209  11.113
47818SOL    HW245352   6.619   3.354  11.156
47819SOL     OW45353  12.550   3.368   9.911
47819SOL    HW145354  12.549   3.419   9.992
47819SOL    HW245355  12.620   3.408   9.859
47820SOL     OW45356  13.368   5.831  10.449
47820SOL    HW145357  13.289   5.838  10.504
47820SOL    HW245358  13.440   5.848  10.509
47821SOL     OW45359   8.518  13.305   3.472
47821SOL    HW145360   8.460  13.373   3.436
47821SOL    HW245361   8.467  13.266   3.542
47822SOL     OW45362   1.621   4.781   7.495
47822SOL    HW145363   1.565   4.828   7.433
47822SOL    HW245364   1.604   4.688   7.476
47823SOL     OW45365   2.742   5.806   7.867
47823SOL    HW145366   2.670   5.842   7.815
47823SOL    HW245367   2.700   5.749   7.931
47824SOL     OW45368  14.476  13.557   4.644
47824SOL    HW145369  14.559  13.514   4.624
47824SOL    HW245370  14.410  13.498   4.609
47825SOL     OW45371  14.212  14.295  14.626
47825SOL    HW145372  14.272  14.241  14.677
47825SOL    HW245373  14.159  14.341  14.691
47826SOL     OW45374  10.303   8.353   3.116
47826SOL    HW145375  10.293   8.348   3.211
47826SOL    HW245376  10.396   8.336   3.100
47827SOL     OW45377  13.909   4.860  14.658
47827SOL    HW145378  13.880   4.769  14.660
47827SOL    HW245379  14.000   4.856  14.628
47828SOL     OW45380   2.479  12.110   2.069
47828SOL    HW145381   2.520  12.105   1.983
47828SOL    HW245382   2.398  12.158   2.054
47829SOL     OW45383   7.461   6.284  11.613
47829SOL    HW145384   7.370   6.269  11.589
47829SOL    HW245385   7.466   6.377  11.634
47830SOL     OW45386  11.475  14.510  10.934
47830SOL    HW145387  11.426  14.431  10.955
47830SOL    HW245388  11.469  14.564  11.013
47831SOL     OW45389   7.030  11.430   2.464
47831SOL    HW145390   6.959  11.367   2.449
47831SOL    HW245391   7.010  11.469   2.549
47832SOL     OW45392   0.864  10.600   1.671
47832SOL    HW145393   0.883  10.506   1.661
47832SOL    HW245394   0.847  10.610   1.765
47833SOL     OW45395   3.373   3.061  14.334
47833SOL    HW145396   3.343   3.083  14.246
47833SOL    HW245397   3.468   3.069  14.330
47834SOL     OW45398   7.631   8.405   6.152
47834SOL    HW145399   7.593   8.479   6.106
47834SOL    HW245400   7.642   8.435   6.242
47835SOL     OW45401   0.948  10.604  14.566
47835SOL    HW145402   0.995  10.683  14.593
47835SOL    HW245403   0.992  10.577  14.485
47836SOL     OW45404   7.489  13.986  14.574
47836SOL    HW145405   7.411  13.976  14.519
47836SOL    HW245406   7.502  14.081  14.579
47837SOL     OW45407   5.661   2.718  11.867
47837SOL    HW145408   5.605   2.674  11.804
47837SOL    HW245409   5.643   2.811  11.854
47838SOL     OW45410   6.701  11.768   3.756
47838SOL    HW145411   6.677  11.681   3.724
47838SOL    HW245412   6.620  11.802   3.793
47839SOL     OW45413   3.979   0.843   9.295
47839SOL    HW145414   3.905   0.901   9.313
47839SOL    HW245415   3.939   0.765   9.257
47840SOL     OW45416  13.114   7.305   5.104
47840SOL    HW145417  13.039   7.256   5.137
47840SOL    HW245418  13.166   7.324   5.183
47841SOL     OW45419   9.826  10.202   3.095
47841SOL    HW145420   9.897  10.206   3.031
47841SOL    HW245421   9.800  10.109   3.095
47842SOL     OW45422   3.958   0.970  12.132
47842SOL    HW145423   3.874   0.925  12.123
47842SOL    HW245424   3.935   1.062  12.146
47843SOL     OW45425   8.236   0.104   2.033
47843SOL    HW145426   8.201   0.063   2.113
47843SOL    HW245427   8.165   0.097   1.970
47844SOL     OW45428  14.350   0.217   7.745
47844SOL    HW145429  14.435   0.259   7.756
47844SOL    HW245430  14.292   0.288   7.717
47845SOL     OW45431   5.563   0.757  11.257
47845SOL    HW145432   5.498   0.797  11.198
47845SOL    HW245433   5.540   0.790  11.344
47846SOL     OW45434  13.435   0.449   1.332
47846SOL    HW145435  13.471   0.489   1.253
47846SOL    HW245436  13.361   0.398   1.301
47847SOL     OW45437  14.367  10.137  11.703
47847SOL    HW145438  14.434  10.203  11.688
47847SOL    HW245439  14.394  10.093  11.783
47848SOL     OW45440  14.594  12.209   3.500
47848SOL    HW145441  14.601  12.125   3.545
47848SOL    HW245442  14.670  12.212   3.442
47849SOL     OW45443   2.461   7.157   6.269
47849SOL    HW145444   2.517   7.129   6.341
47849SOL    HW245445   2.511   7.226   6.225
47850SOL     OW45446   5.737   1.123   9.435
47850SOL    HW145447   5.790   1.203   9.445
47850SOL    HW245448   5.648   1.155   9.420
47851SOL     OW45449   0.195   6.912  13.407
47851SOL    HW145450   0.105   6.881  13.395
47851SOL    HW245451   0.237   6.898  13.322
47852SOL     OW45452  12.301   2.979   7.153
47852SOL    HW145453  12.281   3.049   7.090
47852SOL    HW245454  12.396   2.971   7.151
47853SOL     OW45455   8.490   7.808   9.307
47853SOL    HW145456   8.449   7.743   9.364
47853SOL    HW245457   8.581   7.777   9.298
47854SOL     OW45458   4.462   8.038   9.417
47854SOL    HW145459   4.484   8.016   9.508
47854SOL    HW245460   4.522   8.110   9.395
47855SOL     OW45461   7.273   8.881  13.402
47855SOL    HW145462   7.364   8.882  13.372
47855SOL    HW245463   7.222   8.907  13.326
47856SOL     OW45464  12.005   6.296  11.843
47856SOL    HW145465  11.936   6.356  11.872
47856SOL    HW245466  12.081   6.351  11.827
47857SOL     OW45467   2.472   5.321   8.641
47857SOL    HW145468   2.457   5.287   8.729
47857SOL    HW245469   2.388   5.312   8.596
47858SOL     OW45470  10.459   6.378   9.593
47858SOL    HW145471  10.524   6.448   9.588
47858SOL    HW245472  10.376   6.420   9.572
47859SOL     OW45473   2.832  14.476   4.267
47859SOL    HW145474   2.841  14.506   4.176
47859SOL    HW245475   2.768  14.405   4.262
47860SOL     OW45476   7.628  10.677  10.692
47860SOL    HW145477   7.544  10.663  10.737
47860SOL    HW245478   7.607  10.665  10.599
47861SOL     OW45479  11.058   6.617  14.459
47861SOL    HW145480  11.141   6.575  14.483
47861SOL    HW245481  11.068   6.708  14.488
47862SOL     OW45482   9.496   5.876   4.015
47862SOL    HW145483   9.432   5.823   4.064
47862SOL    HW245484   9.563   5.899   4.080
47863SOL     OW45485   0.993   6.274   9.431
47863SOL    HW145486   1.064   6.278   9.495
47863SOL    HW245487   0.954   6.187   9.445
47864SOL     OW45488  10.686   2.043   5.192
47864SOL    HW145489  10.624   2.018   5.261
47864SOL    HW245490  10.676   1.976   5.125
47865SOL     OW45491   0.244   0.601   6.256
47865SOL    HW145492   0.292   0.666   6.205
47865SOL    HW245493   0.308   0.531   6.271
47866SOL     OW45494   4.642   9.324   8.592
47866SOL    HW145495   4.567   9.267   8.576
47866SOL    HW245496   4.717   9.275   8.557
47867SOL     OW45497   0.142   5.240  14.322
47867SOL    HW145498   0.132   5.154  14.281
47867SOL    HW245499   0.174   5.221  14.410
47868SOL     OW45500  11.691   9.881   2.583
47868SOL    HW145501  11.615   9.918   2.538
47868SOL    HW245502  11.660   9.796   2.615
47869SOL     OW45503  13.869  14.318   3.635
47869SOL    HW145504  13.802  14.384   3.618
47869SOL    HW245505  13.902  14.339   3.723
47870SOL     OW45506   1.411   3.686   4.614
47870SOL    HW145507   1.397   3.652   4.702
47870SOL    HW245508   1.505   3.675   4.598
47871SOL     OW45509   3.602   2.655   6.542
47871SOL    HW145510   3.548   2.577   6.555
47871SOL    HW245511   3.613   2.690   6.630
47872SOL     OW45512   2.677   2.630   8.391
47872SOL    HW145513   2.631   2.633   8.475
47872SOL    HW245514   2.693   2.537   8.376
47873SOL     OW45515   6.900   2.206  14.039
47873SOL    HW145516   6.884   2.271  14.107
47873SOL    HW245517   6.841   2.134  14.060
47874SOL     OW45518  12.111   5.575   9.296
47874SOL    HW145519  12.172   5.502   9.284
47874SOL    HW245520  12.027   5.534   9.315
47875SOL     OW45521  12.174  13.740   8.064
47875SOL    HW145522  12.127  13.657   8.060
47875SOL    HW245523  12.126  13.792   8.128
47876SOL     OW45524  11.728   4.750   9.309
47876SOL    HW145525  11.715   4.720   9.399
47876SOL    HW245526  11.796   4.692   9.274
47877SOL     OW45527   6.950   1.063   5.759
47877SOL    HW145528   6.873   1.012   5.782
47877SOL    HW245529   7.006   1.002   5.711
47878SOL     OW45530  12.851   2.067   8.289
47878SOL    HW145531  12.812   2.045   8.204
47878SOL    HW245532  12.919   2.000   8.302
47879SOL     OW45533   2.411   9.823  12.140
47879SOL    HW145534   2.330   9.870  12.162
47879SOL    HW245535   2.441   9.865  12.059
47880SOL     OW45536   6.437   5.420   5.587
47880SOL    HW145537   6.425   5.406   5.493
47880SOL    HW245538   6.351   5.407   5.625
47881SOL     OW45539   5.064  10.708   6.622
47881SOL    HW145540   5.041  10.655   6.698
47881SOL    HW245541   5.137  10.762   6.651
47882SOL     OW45542  12.246   1.870  10.204
47882SOL    HW145543  12.315   1.833  10.259
47882SOL    HW245544  12.184   1.798  10.191
47883SOL     OW45545   3.327   4.089   8.415
47883SOL    HW145546   3.410   4.104   8.368
47883SOL    HW245547   3.266   4.064   8.346
47884SOL     OW45548  10.194   1.965   0.521
47884SOL    HW145549  10.253   2.039   0.535
47884SOL    HW245550  10.107   2.005   0.514
47885SOL     OW45551  11.429   7.693   6.708
47885SOL    HW145552  11.465   7.605   6.717
47885SOL    HW245553  11.501   7.751   6.732
47886SOL     OW45554   0.003   7.898   8.013
47886SOL    HW145555   0.076   7.869   8.069
47886SOL    HW245556  14.846   7.971   8.061
47887SOL     OW45557   8.171   6.870  10.939
47887SOL    HW145558   8.190   6.780  10.966
47887SOL    HW245559   8.100   6.861  10.876
47888SOL     OW45560   9.167  12.436   7.274
47888SOL    HW145561   9.073  12.445   7.285
47888SOL    HW245562   9.204  12.512   7.320
47889SOL     OW45563  13.031   4.977   0.690
47889SOL    HW145564  13.082   5.002   0.613
47889SOL    HW245565  13.087   4.915   0.736
47890SOL     OW45566   6.771   2.688  13.627
47890SOL    HW145567   6.818   2.606  13.612
47890SOL    HW245568   6.747   2.684  13.720
47891SOL     OW45569  10.653   2.669   0.872
47891SOL    HW145570  10.603   2.727   0.930
47891SOL    HW245571  10.736   2.716   0.859
47892SOL     OW45572   5.618  13.275   6.880
47892SOL    HW145573   5.541  13.332   6.886
47892SOL    HW245574   5.598  13.215   6.808
47893SOL     OW45575   1.208   9.773  13.112
47893SOL    HW145576   1.215   9.773  13.207
47893SOL    HW245577   1.293   9.742  13.082
47894SOL     OW45578   8.500  10.671   5.693
47894SOL    HW145579   8.578  10.671   5.638
47894SOL    HW245580   8.472  10.579   5.694
47895SOL     OW45581   5.971   7.153  13.883
47895SOL    HW145582   6.048   7.098  13.896
47895SOL    HW245583   5.962   7.200  13.965
47896SOL     OW45584  13.800  10.659  12.909
47896SOL    HW145585  13.803  10.598  12.982
47896SOL    HW245586  13.736  10.725  12.935
47897SOL     OW45587  12.476   3.518   8.523
47897SOL    HW145588  12.475   3.613   8.530
47897SOL    HW245589  12.568   3.494   8.538
47898SOL     OW45590   6.495  13.412   7.749
47898SOL    HW145591   6.410  13.435   7.712
47898SOL    HW245592   6.515  13.482   7.811
47899SOL     OW45593   2.344   6.163  10.707
47899SOL    HW145594   2.419   6.147  10.650
47899SOL    HW245595   2.364   6.247  10.749
47900SOL     OW45596   0.808   4.883  10.514
47900SOL    HW145597   0.849   4.797  10.509
47900SOL    HW245598   0.879   4.942  10.541
47901SOL     OW45599  11.876  12.898  13.923
47901SOL    HW145600  11.868  12.815  13.875
47901SOL    HW245601  11.970  12.917  13.922
47902SOL     OW45602   6.282   0.124   9.571
47902SOL    HW145603   6.196   0.128   9.611
47902SOL    HW245604   6.324   0.208   9.593
47903SOL     OW45605  14.850   1.808   7.765
47903SOL    HW145606  14.877   1.894   7.795
47903SOL    HW245607   0.034   1.748   7.800
47904SOL     OW45608   2.549  10.124   0.192
47904SOL    HW145609   2.505  10.206   0.170
47904SOL    HW245610   2.490  10.055   0.162
47905SOL     OW45611   3.723  13.902  13.415
47905SOL    HW145612   3.735  13.875  13.324
47905SOL    HW245613   3.797  13.864  13.462
47906SOL     OW45614   4.885  12.113  14.108
47906SOL    HW145615   4.837  12.193  14.131
47906SOL    HW245616   4.928  12.134  14.025
47907SOL     OW45617  13.953  10.564  13.901
47907SOL    HW145618  14.047  10.547  13.893
47907SOL    HW245619  13.911  10.494  13.851
47908SOL     OW45620   3.155   0.437   4.245
47908SOL    HW145621   3.143   0.507   4.181
47908SOL    HW245622   3.069   0.397   4.254
47909SOL     OW45623  11.880   5.362   3.862
47909SOL    HW145624  11.817   5.377   3.792
47909SOL    HW245625  11.888   5.447   3.906
47910SOL     OW45626  12.792  13.120   6.234
47910SOL    HW145627  12.799  13.216   6.239
47910SOL    HW245628  12.880  13.091   6.212
47911SOL     OW45629   6.670   5.755  10.408
47911SOL    HW145630   6.690   5.672  10.453
47911SOL    HW245631   6.701   5.823  10.468
47912SOL     OW45632   6.874   6.248   6.207
47912SOL    HW145633   6.785   6.276   6.187
47912SOL    HW245634   6.864   6.168   6.257
47913SOL     OW45635   2.652   8.824   0.523
47913SOL    HW145636   2.653   8.909   0.569
47913SOL    HW245637   2.745   8.804   0.508
47914SOL     OW45638  13.075   3.749   1.193
47914SOL    HW145639  12.986   3.777   1.174
47914SOL    HW245640  13.074   3.654   1.178
47915SOL     OW45641   4.393  13.629   9.748
47915SOL    HW145642   4.431  13.693   9.688
47915SOL    HW245643   4.434  13.648   9.832
47916SOL     OW45644   2.642  14.279   0.085
47916SOL    HW145645   2.632  14.318   0.172
47916SOL    HW245646   2.730  14.304   0.057
47917SOL     OW45647   1.369   7.873   5.275
47917SOL    HW145648   1.385   7.812   5.203
47917SOL    HW245649   1.301   7.830   5.327
47918SOL     OW45650   0.789   0.239   9.854
47918SOL    HW145651   0.756   0.326   9.876
47918SOL    HW245652   0.878   0.255   9.824
47919SOL     OW45653   5.803   6.859   3.133
47919SOL    HW145654   5.717   6.835   3.168
47919SOL    HW245655   5.792   6.948   3.099
47920SOL     OW45656  13.990  13.197  13.970
47920SOL    HW145657  14.054  13.266  13.956
47920SOL    HW245658  14.025  13.122  13.922
47921SOL     OW45659   4.607   2.803   0.545
47921SOL    HW145660   4.609   2.770   0.634
47921SOL    HW245661   4.516   2.791   0.516
47922SOL     OW45662   8.881   6.457  12.904
47922SOL    HW145663   8.848   6.447  12.815
47922SOL    HW245664   8.803   6.471  12.957
47923SOL     OW45665   6.837   0.235   9.941
47923SOL    HW145666   6.827   0.298   9.870
47923SOL    HW245667   6.749   0.200   9.955
47924SOL     OW45668  10.577  11.860   1.582
47924SOL    HW145669  10.648  11.899   1.632
47924SOL    HW245670  10.497  11.897   1.619
47925SOL     OW45671   9.514  12.323   9.091
47925SOL    HW145672   9.542  12.274   9.168
47925SOL    HW245673   9.512  12.258   9.021
47926SOL     OW45674   3.913   4.518  13.918
47926SOL    HW145675   3.861   4.499  13.840
47926SOL    HW245676   3.947   4.433  13.946
47927SOL     OW45677  10.632   1.803  14.434
47927SOL    HW145678  10.647   1.895  14.410
47927SOL    HW245679  10.655   1.754  14.355
47928SOL     OW45680  11.646   7.852   6.767
47928SOL    HW145681  11.659   7.928   6.823
47928SOL    HW245682  11.729   7.804   6.771
47929SOL     OW45683   6.853  12.582  12.381
47929SOL    HW145684   6.943  12.553  12.396
47929SOL    HW245685   6.861  12.676  12.361
47930SOL     OW45686   9.710   6.578   0.502
47930SOL    HW145687   9.679   6.536   0.582
47930SOL    HW245688   9.729   6.505   0.442
47931SOL     OW45689   7.232   8.381   6.280
47931SOL    HW145690   7.175   8.325   6.227
47931SOL    HW245691   7.239   8.462   6.229
47932SOL     OW45692   4.543   2.589   5.047
47932SOL    HW145693   4.548   2.681   5.074
47932SOL    HW245694   4.629   2.571   5.008
47933SOL     OW45695  11.892   7.783  12.207
47933SOL    HW145696  11.805   7.767  12.245
47933SOL    HW245697  11.926   7.857  12.258
47934SOL     OW45698   9.911   6.693   8.098
47934SOL    HW145699   9.947   6.682   8.186
47934SOL    HW245700   9.885   6.605   8.071
47935SOL     OW45701   2.863   5.516   1.493
47935SOL    HW145702   2.937   5.516   1.555
47935SOL    HW245703   2.861   5.427   1.459
47936SOL     OW45704   4.941   2.182   4.456
47936SOL    HW145705   4.890   2.240   4.400
47936SOL    HW245706   4.978   2.117   4.396
47937SOL     OW45707  11.443   0.765   3.034
47937SOL    HW145708  11.372   0.812   2.989
47937SOL    HW245709  11.519   0.822   3.025
47938SOL     OW45710   6.666   6.410   5.276
47938SOL    HW145711   6.655   6.408   5.181
47938SOL    HW245712   6.579   6.393   5.311
47939SOL     OW45713   9.997   1.140  12.456
47939SOL    HW145714  10.077   1.096  12.485
47939SOL    HW245715   9.935   1.126  12.527
47940SOL     OW45716   7.289  13.295  10.398
47940SOL    HW145717   7.265  13.230  10.464
47940SOL    HW245718   7.218  13.360  10.402
47941SOL     OW45719   1.156   1.148  11.462
47941SOL    HW145720   1.133   1.237  11.435
47941SOL    HW245721   1.218   1.118  11.396
47942SOL     OW45722  14.220  10.723   3.651
47942SOL    HW145723  14.314  10.738   3.641
47942SOL    HW245724  14.208  10.715   3.745
47943SOL     OW45725  11.753   3.834   4.158
47943SOL    HW145726  11.701   3.914   4.165
47943SOL    HW245727  11.839   3.864   4.130
47944SOL     OW45728   9.008  13.811   3.255
47944SOL    HW145729   8.938  13.856   3.303
47944SOL    HW245730   9.060  13.769   3.324
47945SOL     OW45731   0.842  10.960  10.058
47945SOL    HW145732   0.929  10.990  10.029
47945SOL    HW245733   0.785  11.035  10.043
47946SOL     OW45734   8.770   3.875   9.870
47946SOL    HW145735   8.694   3.899   9.922
47946SOL    HW245736   8.800   3.958   9.832
47947SOL     OW45737  10.759   0.954  12.240
47947SOL    HW145738  10.749   0.864  12.210
47947SOL    HW245739  10.812   0.996  12.172
47948SOL     OW45740   4.458   7.409  14.291
47948SOL    HW145741   4.535   7.460  14.268
47948SOL    HW245742   4.489   7.345  14.355
47949SOL     OW45743   5.851  14.579  14.157
47949SOL    HW145744   5.789  14.587  14.229
47949SOL    HW245745   5.906  14.657  14.164
47950SOL     OW45746   0.905   6.581   8.555
47950SOL    HW145747   0.911   6.626   8.639
47950SOL    HW245748   0.912   6.651   8.490
47951SOL     OW45749   1.940  14.676   4.598
47951SOL    HW145750   1.868  14.627   4.637
47951SOL    HW245751   2.007  14.679   4.666
47952SOL     OW45752   8.878   7.858   9.491
47952SOL    HW145753   8.913   7.778   9.531
47952SOL    HW245754   8.896   7.926   9.555
47953SOL     OW45755   1.375  14.833   5.229
47953SOL    HW145756   1.345  14.824   5.320
47953SOL    HW245757   1.466  14.803   5.231
47954SOL     OW45758  10.857  10.100   2.654
47954SOL    HW145759  10.788  10.154   2.616
47954SOL    HW245760  10.840  10.101   2.748
47955SOL     OW45761   4.081   0.775  11.613
47955SOL    HW145762   3.987   0.759  11.619
47955SOL    HW245763   4.107   0.734  11.530
47956SOL     OW45764   1.269   7.327   9.352
47956SOL    HW145765   1.176   7.310   9.339
47956SOL    HW245766   1.272   7.410   9.400
47957SOL     OW45767  13.868   8.771   7.132
47957SOL    HW145768  13.873   8.755   7.038
47957SOL    HW245769  13.931   8.710   7.171
47958SOL     OW45770  11.873   8.821   3.358
47958SOL    HW145771  11.788   8.795   3.321
47958SOL    HW245772  11.932   8.822   3.282
47959SOL     OW45773  10.715   1.156   5.414
47959SOL    HW145774  10.762   1.235   5.388
47959SOL    HW245775  10.736   1.145   5.507
47960SOL     OW45776   0.011  12.124   5.481
47960SOL    HW145777  14.831  12.065   5.523
47960SOL    HW245778  14.845  12.206   5.470
47961SOL     OW45779   0.663   0.374  11.814
47961SOL    HW145780   0.741   0.348  11.863
47961SOL    HW245781   0.633   0.294  11.772
47962SOL     OW45782  13.165  13.219  13.059
47962SOL    HW145783  13.099  13.230  13.128
47962SOL    HW245784  13.245  13.196  13.106
47963SOL     OW45785  13.421   3.587   8.752
47963SOL    HW145786  13.415   3.613   8.661
47963SOL    HW245787  13.389   3.496   8.754
47964SOL     OW45788   1.968   1.421   6.822
47964SOL    HW145789   1.972   1.515   6.841
47964SOL    HW245790   2.056   1.389   6.845
47965SOL     OW45791   6.770   8.549  14.103
47965SOL    HW145792   6.762   8.573  14.196
47965SOL    HW245793   6.865   8.544  14.088
47966SOL     OW45794   5.636   7.632   3.464
47966SOL    HW145795   5.542   7.633   3.442
47966SOL    HW245796   5.680   7.634   3.379
47967SOL     OW45797   8.743   8.945  11.432
47967SOL    HW145798   8.729   8.916  11.522
47967SOL    HW245799   8.669   8.910  11.383
47968SOL     OW45800   4.207   7.331   0.221
47968SOL    HW145801   4.142   7.268   0.193
47968SOL    HW245802   4.290   7.298   0.186
47969SOL     OW45803  10.356   8.132   0.347
47969SOL    HW145804  10.291   8.085   0.399
47969SOL    HW245805  10.364   8.217   0.390
47970SOL     OW45806   0.759   7.992   7.754
47970SOL    HW145807   0.673   8.021   7.722
47970SOL    HW245808   0.751   7.998   7.849
47971SOL     OW45809   6.749   5.745  11.056
47971SOL    HW145810   6.740   5.680  11.125
47971SOL    HW245811   6.669   5.737  11.005
47972SOL     OW45812  13.297   3.602  14.364
47972SOL    HW145813  13.284   3.563  14.451
47972SOL    HW245814  13.297   3.697  14.381
47973SOL     OW45815  14.483  13.719   0.308
47973SOL    HW145816  14.460  13.753   0.222
47973SOL    HW245817  14.423  13.764   0.368
47974SOL     OW45818   4.997   6.829   9.127
47974SOL    HW145819   4.947   6.752   9.101
47974SOL    HW245820   5.052   6.798   9.199
47975SOL     OW45821   9.081   5.575   6.840
47975SOL    HW145822   9.036   5.647   6.797
47975SOL    HW245823   9.022   5.500   6.830
47976SOL     OW45824   7.138  11.001   8.944
47976SOL    HW145825   7.208  10.959   8.894
47976SOL    HW245826   7.077  10.930   8.963
47977SOL     OW45827   4.864  14.019   8.076
47977SOL    HW145828   4.830  14.104   8.103
47977SOL    HW245829   4.816  13.956   8.129
47978SOL     OW45830   8.388  12.664  12.873
47978SOL    HW145831   8.373  12.606  12.798
47978SOL    HW245832   8.364  12.751  12.842
47979SOL     OW45833  10.242   7.660   5.312
47979SOL    HW145834  10.293   7.740   5.322
47979SOL    HW245835  10.300   7.601   5.264
47980SOL     OW45836   8.800   6.413   9.097
47980SOL    HW145837   8.795   6.397   9.192
47980SOL    HW245838   8.835   6.332   9.061
47981SOL     OW45839   2.279  11.224  10.718
47981SOL    HW145840   2.245  11.313  10.730
47981SOL    HW245841   2.374  11.235  10.720
47982SOL     OW45842  10.013  14.003   2.565
47982SOL    HW145843  10.015  14.090   2.605
47982SOL    HW245844  10.029  14.019   2.472
47983SOL     OW45845  12.618  11.527   1.738
47983SOL    HW145846  12.695  11.473   1.719
47983SOL    HW245847  12.649  11.589   1.804
47984SOL     OW45848  12.066   4.883   5.618
47984SOL    HW145849  12.079   4.978   5.628
47984SOL    HW245850  11.995   4.863   5.680
47985SOL     OW45851  14.475  13.284  14.228
47985SOL    HW145852  14.560  13.290  14.185
47985SOL    HW245853  14.412  13.273  14.157
47986SOL     OW45854  11.850   4.503   1.870
47986SOL    HW145855  11.942   4.476   1.870
47986SOL    HW245856  11.851   4.592   1.906
47987SOL     OW45857   1.085   5.885  10.705
47987SOL    HW145858   0.996   5.919  10.710
47987SOL    HW245859   1.092   5.825  10.779
47988SOL     OW45860   2.845   7.014   9.741
47988SOL    HW145861   2.905   6.972   9.802
47988SOL    HW245862   2.868   7.107   9.745
47989SOL     OW45863   4.614  12.519  12.199
47989SOL    HW145864   4.592  12.587  12.263
47989SOL    HW245865   4.531  12.478  12.178
47990SOL     OW45866   6.632  14.246   3.349
47990SOL    HW145867   6.583  14.236   3.267
47990SOL    HW245868   6.590  14.319   3.393
47991SOL     OW45869   9.257   8.399   2.469
47991SOL    HW145870   9.315   8.393   2.546
47991SOL    HW245871   9.190   8.462   2.495
47992SOL     OW45872   5.143   8.742   5.947
47992SOL    HW145873   5.222   8.688   5.947
47992SOL    HW245874   5.173   8.828   5.919
47993SOL     OW45875   1.089   6.630  12.596
47993SOL    HW145876   0.995   6.613  12.590
47993SOL    HW245877   1.129   6.544  12.608
47994SOL     OW45878  11.602   5.343  13.166
47994SOL    HW145879  11.622   5.264  13.115
47994SOL    HW245880  11.665   5.341  13.238
47995SOL     OW45881   4.800   5.598   3.697
47995SOL    HW145882   4.895   5.604   3.688
47995SOL    HW245883   4.782   5.624   3.787
47996SOL     OW45884   5.095   3.522   5.240
47996SOL    HW145885   5.110   3.573   5.320
47996SOL    HW245886   5.179   3.523   5.195
47997SOL     OW45887   9.992   3.141  11.582
47997SOL    HW145888   9.933   3.149  11.507
47997SOL    HW245889  10.063   3.202  11.563
47998SOL     OW45890   3.027   8.459   8.116
47998SOL    HW145891   3.058   8.379   8.075
47998SOL    HW245892   2.967   8.430   8.184
47999SOL     OW45893   5.117   9.948  13.594
47999SOL    HW145894   5.197   9.910  13.630
47999SOL    HW245895   5.086  10.009  13.661
48000SOL     OW45896   7.116   3.159  14.524
48000SOL    HW145897   7.169   3.089  14.486
48000SOL    HW245898   7.034   3.157  14.474
48001SOL     OW45899   7.832  11.477   7.589
48001SOL    HW145900   7.925  11.462   7.574
48001SOL    HW245901   7.795  11.390   7.602
48002SOL     OW45902  10.625   1.250  12.126
48002SOL    HW145903  10.708   1.231  12.169
48002SOL    HW245904  10.572   1.171  12.140
48003SOL     OW45905   5.492   3.413  11.340
48003SOL    HW145906   5.398   3.398  11.349
48003SOL    HW245907   5.503   3.437  11.248
48004SOL     OW45908  13.097   9.811   1.863
48004SOL    HW145909  13.136   9.794   1.949
48004SOL    HW245910  13.035   9.739   1.849
48005SOL     OW45911   5.752  11.185   8.990
48005SOL    HW145912   5.732  11.102   9.034
48005SOL    HW245913   5.688  11.247   9.024
48006SOL     OW45914   1.757   6.552   1.017
48006SOL    HW145915   1.757   6.457   1.008
48006SOL    HW245916   1.742   6.585   0.928
48007SOL     OW45917   4.048   1.307  11.872
48007SOL    HW145918   4.061   1.280  11.963
48007SOL    HW245919   4.132   1.345  11.847
48008SOL     OW45920  14.158   2.012   5.549
48008SOL    HW145921  14.247   1.978   5.558
48008SOL    HW245922  14.149   2.074   5.622
48009SOL     OW45923   4.671   5.697  14.478
48009SOL    HW145924   4.629   5.712  14.562
48009SOL    HW245925   4.628   5.619  14.443
48010SOL     OW45926   8.800   4.135   2.598
48010SOL    HW145927   8.797   4.109   2.690
48010SOL    HW245928   8.756   4.064   2.551
48011SOL     OW45929  14.091   1.097   7.850
48011SOL    HW145930  14.112   1.119   7.760
48011SOL    HW245931  14.032   1.168   7.879
48012SOL     OW45932   1.241   6.809  10.022
48012SOL    HW145933   1.175   6.873   9.995
48012SOL    HW245934   1.193   6.726  10.027
48013SOL     OW45935  10.324  14.381   1.986
48013SOL    HW145936  10.335  14.399   1.893
48013SOL    HW245937  10.398  14.425   2.029
48014SOL     OW45938   1.481  11.597  12.959
48014SOL    HW145939   1.511  11.506  12.968
48014SOL    HW245940   1.481  11.631  13.048
48015SOL     OW45941  14.731   4.789   4.415
48015SOL    HW145942  14.794   4.740   4.468
48015SOL    HW245943  14.660   4.727   4.398
48016SOL     OW45944   0.390  11.545  14.531
48016SOL    HW145945   0.366  11.581  14.616
48016SOL    HW245946   0.438  11.616  14.488
48017SOL     OW45947   1.524  11.213  11.341
48017SOL    HW145948   1.548  11.126  11.309
48017SOL    HW245949   1.586  11.230  11.412
48018SOL     OW45950  11.055   6.999   7.387
48018SOL    HW145951  11.059   7.004   7.292
48018SOL    HW245952  11.050   7.090   7.416
48019SOL     OW45953  10.587   1.123  12.790
48019SOL    HW145954  10.582   1.218  12.797
48019SOL    HW245955  10.543   1.091  12.869
48020SOL     OW45956   8.481   5.892   9.552
48020SOL    HW145957   8.564   5.927   9.519
48020SOL    HW245958   8.477   5.923   9.643
48021SOL     OW45959   3.561   4.411   5.865
48021SOL    HW145960   3.480   4.370   5.896
48021SOL    HW245961   3.629   4.345   5.883
48022SOL     OW45962   3.233   5.194   5.658
48022SOL    HW145963   3.163   5.172   5.719
48022SOL    HW245964   3.300   5.236   5.712
48023SOL     OW45965  13.607  13.454   7.195
48023SOL    HW145966  13.598  13.548   7.211
48023SOL    HW245967  13.523  13.428   7.158
48024SOL     OW45968   1.030  13.389  14.798
48024SOL    HW145969   1.055  13.399   0.008
48024SOL    HW245970   0.970  13.462  14.781
48025SOL     OW45971  11.081   6.882   9.220
48025SOL    HW145972  11.027   6.813   9.180
48025SOL    HW245973  11.018   6.947   9.251
48026SOL     OW45974   4.972   3.634  13.640
48026SOL    HW145975   4.990   3.720  13.677
48026SOL    HW245976   4.880   3.617  13.662
48027SOL     OW45977  11.162   9.524   3.005
48027SOL    HW145978  11.109   9.450   3.033
48027SOL    HW245979  11.103   9.599   3.009
48028SOL     OW45980   1.056   6.810   7.245
48028SOL    HW145981   1.104   6.886   7.212
48028SOL    HW245982   0.964   6.830   7.227
48029SOL     OW45983  13.940   3.032   4.900
48029SOL    HW145984  13.927   2.990   4.815
48029SOL    HW245985  13.896   3.117   4.892
48030SOL     OW45986   4.563   7.153  10.903
48030SOL    HW145987   4.554   7.234  10.954
48030SOL    HW245988   4.655   7.151  10.877
48031SOL     OW45989  14.592  11.833  14.526
48031SOL    HW145990  14.542  11.866  14.600
48031SOL    HW245991  14.530  11.831  14.453
48032SOL     OW45992  14.811   6.632   7.243
48032SOL    HW145993  14.775   6.664   7.325
48032SOL    HW245994  14.745   6.572   7.209
48033SOL     OW45995  13.922   1.285   1.264
48033SOL    HW145996  14.004   1.280   1.214
48033SOL    HW245997  13.948   1.323   1.348
48034SOL     OW45998   3.550  10.948  10.051
48034SOL    HW145999   3.466  10.909  10.028
48034SOL    HW246000   3.592  10.881  10.106
48035SOL     OW46001   1.599  11.581   1.198
48035SOL    HW146002   1.520  11.624   1.163
48035SOL    HW246003   1.612  11.621   1.284
48036SOL     OW46004   7.261  10.306   8.124
48036SOL    HW146005   7.254  10.265   8.211
48036SOL    HW246006   7.197  10.258   8.071
48037SOL     OW46007   8.813   3.168   0.916
48037SOL    HW146008   8.854   3.231   0.857
48037SOL    HW246009   8.886   3.124   0.959
48038SOL     OW46010   7.397   9.402  10.135
48038SOL    HW146011   7.368   9.314  10.110
48038SOL    HW246012   7.319   9.456  10.127
48039SOL     OW46013  11.016   6.040  13.739
48039SOL    HW146014  11.101   6.050  13.696
48039SOL    HW246015  11.005   5.946  13.750
48040SOL     OW46016  12.002  13.807  10.137
48040SOL    HW146017  11.920  13.789  10.183
48040SOL    HW246018  12.011  13.902  10.139
48041SOL     OW46019   3.053   6.830  11.002
48041SOL    HW146020   2.967   6.816  11.042
48041SOL    HW246021   3.094   6.743  11.004
48042SOL     OW46022  11.106  10.931   9.306
48042SOL    HW146023  11.061  10.996   9.251
48042SOL    HW246024  11.054  10.852   9.297
48043SOL     OW46025   9.954  10.970   6.321
48043SOL    HW146026   9.933  10.934   6.234
48043SOL    HW246027   9.869  10.973   6.366
48044SOL     OW46028  14.469   3.838   8.792
48044SOL    HW146029  14.560   3.864   8.801
48044SOL    HW246030  14.472   3.755   8.745
48045SOL     OW46031   9.930  14.245   7.857
48045SOL    HW146032   9.952  14.200   7.938
48045SOL    HW246033   9.993  14.317   7.851
48046SOL     OW46034   3.272   0.795   4.024
48046SOL    HW146035   3.312   0.834   4.102
48046SOL    HW246036   3.240   0.870   3.974
48047SOL     OW46037   9.148  14.793  14.676
48047SOL    HW146038   9.186  14.875  14.643
48047SOL    HW246039   9.059  14.817  14.702
48048SOL     OW46040   5.939  10.786   6.457
48048SOL    HW146041   5.946  10.779   6.552
48048SOL    HW246042   5.854  10.827   6.441
48049SOL     OW46043   8.119  10.959  10.207
48049SOL    HW146044   8.181  10.983  10.277
48049SOL    HW246045   8.162  10.887  10.161
48050SOL     OW46046   6.616  11.811   6.034
48050SOL    HW146047   6.607  11.780   5.944
48050SOL    HW246048   6.608  11.906   6.028
48051SOL     OW46049   3.650  12.063  12.782
48051SOL    HW146050   3.711  12.052  12.709
48051SOL    HW246051   3.687  12.136  12.833
48052SOL     OW46052   8.567  12.464   1.797
48052SOL    HW146053   8.634  12.395   1.805
48052SOL    HW246054   8.612  12.536   1.754
48053SOL     OW46055   1.393  10.108  13.605
48053SOL    HW146056   1.485  10.130  13.594
48053SOL    HW246057   1.364  10.160  13.680
48054SOL     OW46058   3.028   2.944   2.824
48054SOL    HW146059   3.073   2.890   2.760
48054SOL    HW246060   3.072   3.029   2.818
48055SOL     OW46061   0.385   9.280  10.288
48055SOL    HW146062   0.470   9.299  10.248
48055SOL    HW246063   0.323   9.332  10.238
48056SOL     OW46064  13.350   6.563   1.342
48056SOL    HW146065  13.299   6.613   1.279
48056SOL    HW246066  13.397   6.630   1.393
48057SOL     OW46067   0.023  12.683  14.085
48057SOL    HW146068   0.079  12.626  14.138
48057SOL    HW246069  14.816  12.651  14.103
48058SOL     OW46070   7.449   9.267   1.637
48058SOL    HW146071   7.504   9.260   1.559
48058SOL    HW246072   7.392   9.190   1.633
48059SOL     OW46073   9.349   6.889   0.716
48059SOL    HW146074   9.421   6.949   0.736
48059SOL    HW246075   9.348   6.827   0.790
48060SOL     OW46076   5.108   4.343   4.508
48060SOL    HW146077   5.102   4.297   4.592
48060SOL    HW246078   5.125   4.274   4.444
48061SOL     OW46079  11.670   1.262   7.969
48061SOL    HW146080  11.616   1.285   8.044
48061SOL    HW246081  11.623   1.191   7.926
48062SOL     OW46082   6.838  13.036  11.541
48062SOL    HW146083   6.787  13.012  11.464
48062SOL    HW246084   6.929  13.039  11.510
48063SOL     OW46085  12.608   1.854   7.281
48063SOL    HW146086  12.612   1.926   7.345
48063SOL    HW246087  12.637   1.893   7.199
48064SOL     OW46088  11.900  10.915   7.106
48064SOL    HW146089  11.903  10.884   7.196
48064SOL    HW246090  11.808  10.941   7.093
48065SOL     OW46091   5.116   9.408   3.633
48065SOL    HW146092   5.072   9.336   3.587
48065SOL    HW246093   5.169   9.451   3.565
48066SOL     OW46094   5.887  10.657   7.864
48066SOL    HW146095   5.852  10.720   7.801
48066SOL    HW246096   5.824  10.659   7.937
48067SOL     OW46097  12.457   6.577  11.074
48067SOL    HW146098  12.412   6.603  11.154
48067SOL    HW246099  12.445   6.650  11.014
48068SOL     OW46100  10.685   2.835   1.388
48068SOL    HW146101  10.745   2.892   1.341
48068SOL    HW246102  10.619   2.811   1.323
48069SOL     OW46103   3.150   6.980   5.670
48069SOL    HW146104   3.060   6.951   5.661
48069SOL    HW246105   3.148   7.073   5.650
48070SOL     OW46106  10.697  10.310   6.971
48070SOL    HW146107  10.630  10.291   7.036
48070SOL    HW246108  10.710  10.227   6.924
48071SOL     OW46109   6.996  13.810   6.177
48071SOL    HW146110   7.005  13.893   6.224
48071SOL    HW246111   7.074  13.804   6.123
48072SOL     OW46112   5.710  13.820   0.508
48072SOL    HW146113   5.624  13.858   0.528
48072SOL    HW246114   5.706  13.800   0.415
48073SOL     OW46115   9.233  14.762   5.841
48073SOL    HW146116   9.286  14.759   5.921
48073SOL    HW246117   9.213  14.855   5.830
48074SOL     OW46118   6.991   3.607  14.555
48074SOL    HW146119   6.948   3.527  14.525
48074SOL    HW246120   6.919   3.665  14.581
48075SOL     OW46121  14.191   6.350  14.003
48075SOL    HW146122  14.198   6.441  13.974
48075SOL    HW246123  14.250   6.301  13.946
48076SOL     OW46124   4.306   9.748  13.334
48076SOL    HW146125   4.230   9.691  13.326
48076SOL    HW246126   4.377   9.690  13.362
48077SOL     OW46127  12.230   1.796   2.467
48077SOL    HW146128  12.216   1.880   2.510
48077SOL    HW246129  12.297   1.813   2.402
48078SOL     OW46130   1.378  10.340   6.419
48078SOL    HW146131   1.444  10.302   6.477
48078SOL    HW246132   1.356  10.270   6.358
48079SOL     OW46133  10.980   8.029   2.787
48079SOL    HW146134  10.917   8.074   2.730
48079SOL    HW246135  11.055   8.011   2.730
48080SOL     OW46136   4.849   8.868   3.379
48080SOL    HW146137   4.771   8.817   3.360
48080SOL    HW246138   4.913   8.840   3.313
48081SOL     OW46139   2.412   5.560   6.937
48081SOL    HW146140   2.439   5.575   6.846
48081SOL    HW246141   2.377   5.470   6.936
48082SOL     OW46142  12.935   6.860   1.808
48082SOL    HW146143  13.013   6.898   1.848
48082SOL    HW246144  12.909   6.924   1.741
48083SOL     OW46145  12.108   1.814   2.808
48083SOL    HW146146  12.170   1.807   2.881
48083SOL    HW246147  12.148   1.878   2.749
48084SOL     OW46148  14.588   9.163   4.079
48084SOL    HW146149  14.560   9.144   3.989
48084SOL    HW246150  14.512   9.140   4.133
48085SOL     OW46151   4.981   6.640  11.127
48085SOL    HW146152   4.982   6.640  11.223
48085SOL    HW246153   4.915   6.574  11.104
48086SOL     OW46154  12.377   7.204   3.381
48086SOL    HW146155  12.369   7.114   3.348
48086SOL    HW246156  12.296   7.220   3.429
48087SOL     OW46157   5.939   5.586   7.286
48087SOL    HW146158   5.998   5.656   7.258
48087SOL    HW246159   5.974   5.507   7.245
48088SOL     OW46160  12.081  13.463   8.132
48088SOL    HW146161  12.139  13.436   8.203
48088SOL    HW246162  12.113  13.416   8.055
48089SOL     OW46163  12.439   3.090  12.291
48089SOL    HW146164  12.531   3.063  12.297
48089SOL    HW246165  12.442   3.179  12.258
48090SOL     OW46166  10.885   6.946   4.287
48090SOL    HW146167  10.945   6.910   4.351
48090SOL    HW246168  10.884   7.040   4.305
48091SOL     OW46169  10.408   9.571   6.572
48091SOL    HW146170  10.332   9.519   6.598
48091SOL    HW246171  10.386   9.660   6.600
48092SOL     OW46172   0.770   0.122   0.808
48092SOL    HW146173   0.709   0.141   0.737
48092SOL    HW246174   0.718   0.073   0.872
48093SOL     OW46175  11.254   9.189   7.066
48093SOL    HW146176  11.334   9.194   7.014
48093SOL    HW246177  11.204   9.118   7.027
48094SOL     OW46178  10.185   4.495  13.250
48094SOL    HW146179  10.122   4.515  13.180
48094SOL    HW246180  10.258   4.452  13.205
48095SOL     OW46181  13.969  11.543  13.955
48095SOL    HW146182  14.023  11.465  13.951
48095SOL    HW246183  13.980  11.584  13.869
48096SOL     OW46184   5.624  11.705   6.297
48096SOL    HW146185   5.620  11.780   6.356
48096SOL    HW246186   5.550  11.718   6.237
48097SOL     OW46187   9.431  13.570   1.492
48097SOL    HW146188   9.336  13.578   1.503
48097SOL    HW246189   9.458  13.654   1.455
48098SOL     OW46190  13.168   3.579   0.379
48098SOL    HW146191  13.178   3.508   0.442
48098SOL    HW246192  13.095   3.551   0.323
48099SOL     OW46193  10.560   6.796  13.119
48099SOL    HW146194  10.555   6.754  13.033
48099SOL    HW246195  10.602   6.880  13.102
48100SOL     OW46196   6.458   2.242   8.423
48100SOL    HW146197   6.512   2.305   8.375
48100SOL    HW246198   6.499   2.158   8.407
48101SOL     OW46199  14.575   1.845   2.745
48101SOL    HW146200  14.638   1.779   2.715
48101SOL    HW246201  14.560   1.824   2.837
48102SOL     OW46202   2.276   4.431  14.542
48102SOL    HW146203   2.236   4.412  14.457
48102SOL    HW246204   2.257   4.354  14.595
48103SOL     OW46205  10.873   0.558   0.998
48103SOL    HW146206  10.920   0.608   1.065
48103SOL    HW246207  10.796   0.611   0.978
48104SOL     OW46208  10.684  13.406   9.287
48104SOL    HW146209  10.733  13.367   9.215
48104SOL    HW246210  10.660  13.493   9.255
48105SOL     OW46211  10.813   1.059   4.349
48105SOL    HW146212  10.872   1.113   4.295
48105SOL    HW246213  10.853   0.972   4.348
48106SOL     OW46214   5.416   9.980  13.991
48106SOL    HW146215   5.378   9.896  13.962
48106SOL    HW246216   5.490   9.993  13.933
48107SOL     OW46217  12.342   8.865  12.376
48107SOL    HW146218  12.275   8.797  12.364
48107SOL    HW246219  12.369   8.887  12.287
48108SOL     OW46220  14.079  14.030   3.994
48108SOL    HW146221  14.061  13.936   3.999
48108SOL    HW246222  14.147  14.045   4.060
48109SOL     OW46223   1.380   6.485  11.561
48109SOL    HW146224   1.355   6.477  11.469
48109SOL    HW246225   1.451   6.550  11.561
48110SOL     OW46226   9.981   6.249   3.480
48110SOL    HW146227  10.075   6.233   3.485
48110SOL    HW246228   9.971   6.314   3.411
48111SOL     OW46229   7.121  13.829   1.026
48111SOL    HW146230   7.156  13.784   0.949
48111SOL    HW246231   7.155  13.918   1.021
48112SOL     OW46232   8.476  14.491  14.597
48112SOL    HW146233   8.491  14.518  14.507
48112SOL    HW246234   8.457  14.573  14.644
48113SOL     OW46235   8.100  11.009  13.807
48113SOL    HW146236   8.072  11.080  13.749
48113SOL    HW246237   8.169  10.964  13.758
48114SOL     OW46238   1.981   2.674   6.941
48114SOL    HW146239   1.948   2.763   6.949
48114SOL    HW246240   1.923   2.632   6.878
48115SOL     OW46241  10.248   2.636   5.937
48115SOL    HW146242  10.170   2.660   5.887
48115SOL    HW246243  10.217   2.573   6.002
48116SOL     OW46244   8.722  13.764  13.903
48116SOL    HW146245   8.812  13.795  13.894
48116SOL    HW246246   8.673  13.841  13.931
48117SOL     OW46247   3.474   3.256  12.491
48117SOL    HW146248   3.520   3.240  12.408
48117SOL    HW246249   3.387   3.284  12.465
48118SOL     OW46250   1.091  10.349   0.073
48118SOL    HW146251   1.132  10.276   0.027
48118SOL    HW246252   1.029  10.385   0.011
48119SOL     OW46253   1.273   1.838  14.168
48119SOL    HW146254   1.203   1.902  14.179
48119SOL    HW246255   1.268   1.783  14.247
48120SOL     OW46256  13.228   1.291  14.796
48120SOL    HW146257  13.297   1.357  14.804
48120SOL    HW246258  13.253   1.221  14.856
48121SOL     OW46259  11.859   1.748   8.382
48121SOL    HW146260  11.843   1.708   8.468
48121SOL    HW246261  11.952   1.767   8.381
48122SOL     OW46262   7.263   0.214   6.504
48122SOL    HW146263   7.332   0.280   6.497
48122SOL    HW246264   7.214   0.239   6.583
48123SOL     OW46265   4.727   8.485   9.890
48123SOL    HW146266   4.771   8.498   9.974
48123SOL    HW246267   4.712   8.390   9.885
48124SOL     OW46268   6.501   5.916  11.464
48124SOL    HW146269   6.448   5.973  11.520
48124SOL    HW246270   6.586   5.912  11.508
48125SOL     OW46271  10.572  10.892   1.128
48125SOL    HW146272  10.659  10.931   1.134
48125SOL    HW246273  10.588  10.799   1.109
48126SOL     OW46274   0.712   3.090   8.563
48126SOL    HW146275   0.716   3.065   8.656
48126SOL    HW246276   0.801   3.075   8.531
48127SOL     OW46277   9.560  10.828   8.913
48127SOL    HW146278   9.508  10.890   8.963
48127SOL    HW246279   9.516  10.823   8.828
48128SOL     OW46280  14.155   7.679   2.675
48128SOL    HW146281  14.194   7.765   2.690
48128SOL    HW246282  14.089   7.670   2.744
48129SOL     OW46283  13.673   5.749   9.118
48129SOL    HW146284  13.640   5.685   9.055
48129SOL    HW246285  13.745   5.793   9.072
48130SOL     OW46286   8.519   0.762   8.855
48130SOL    HW146287   8.529   0.826   8.784
48130SOL    HW246288   8.425   0.744   8.858
48131SOL     OW46289   5.211  12.562   5.110
48131SOL    HW146290   5.248  12.592   5.027
48131SOL    HW246291   5.116  12.568   5.097
48132SOL     OW46292   1.530   5.279  10.597
48132SOL    HW146293   1.494   5.221  10.530
48132SOL    HW246294   1.461   5.284  10.663
48133SOL     OW46295   8.016  10.399  10.122
48133SOL    HW146296   7.993  10.346  10.046
48133SOL    HW246297   8.090  10.352  10.161
48134SOL     OW46298  10.233   5.908   5.729
48134SOL    HW146299  10.269   5.990   5.762
48134SOL    HW246300  10.212   5.927   5.637
48135SOL     OW46301   1.784   1.836   3.796
48135SOL    HW146302   1.740   1.842   3.880
48135SOL    HW246303   1.750   1.909   3.745
48136SOL     OW46304   9.856  13.384   4.629
48136SOL    HW146305   9.940  13.376   4.674
48136SOL    HW246306   9.791  13.374   4.700
48137SOL     OW46307   7.813   2.526   8.153
48137SOL    HW146308   7.751   2.473   8.103
48137SOL    HW246309   7.899   2.492   8.129
48138SOL     OW46310   8.229   0.318  12.215
48138SOL    HW146311   8.290   0.278  12.153
48138SOL    HW246312   8.160   0.355  12.160
48139SOL     OW46313   5.847   3.990   9.411
48139SOL    HW146314   5.834   3.895   9.407
48139SOL    HW246315   5.777   4.021   9.469
48140SOL     OW46316   3.772  10.988   6.541
48140SOL    HW146317   3.769  10.894   6.556
48140SOL    HW246318   3.694  11.022   6.584
48141SOL     OW46319   1.286   4.399   6.555
48141SOL    HW146320   1.255   4.345   6.628
48141SOL    HW246321   1.208   4.443   6.522
48142SOL     OW46322  11.756   7.812  11.252
48142SOL    HW146323  11.759   7.760  11.332
48142SOL    HW246324  11.663   7.832  11.240
48143SOL     OW46325   0.768   2.710   1.606
48143SOL    HW146326   0.789   2.731   1.515
48143SOL    HW246327   0.673   2.702   1.607
48144SOL     OW46328   5.338  10.551   5.009
48144SOL    HW146329   5.432  10.567   5.020
48144SOL    HW246330   5.296  10.629   5.044
48145SOL     OW46331  10.916   3.405   2.618
48145SOL    HW146332  10.884   3.315   2.622
48145SOL    HW246333  10.845   3.453   2.575
48146SOL     OW46334   3.727   7.875  10.737
48146SOL    HW146335   3.801   7.936  10.731
48146SOL    HW246336   3.654   7.922  10.696
48147SOL     OW46337  14.059   8.102   3.709
48147SOL    HW146338  14.010   8.022   3.727
48147SOL    HW246339  14.013   8.170   3.757
48148SOL     OW46340   6.742  10.498   2.077
48148SOL    HW146341   6.706  10.452   2.001
48148SOL    HW246342   6.831  10.520   2.051
48149SOL     OW46343   2.300   4.004   3.749
48149SOL    HW146344   2.251   3.963   3.820
48149SOL    HW246345   2.391   3.975   3.764
48150SOL     OW46346   7.247   3.699  12.075
48150SOL    HW146347   7.302   3.623  12.057
48150SOL    HW246348   7.273   3.764  12.010
48151SOL     OW46349   2.371   0.162  14.578
48151SOL    HW146350   2.408   0.075  14.594
48151SOL    HW246351   2.427   0.222  14.627
48152SOL     OW46352   7.674   6.890   7.999
48152SOL    HW146353   7.669   6.854   7.910
48152SOL    HW246354   7.754   6.943   7.998
48153SOL     OW46355  11.814   4.299   2.388
48153SOL    HW146356  11.865   4.284   2.467
48153SOL    HW246357  11.848   4.382   2.353
48154SOL     OW46358   1.848  12.192   0.502
48154SOL    HW146359   1.923  12.195   0.443
48154SOL    HW246360   1.778  12.238   0.455
48155SOL     OW46361  10.902  14.356   9.556
48155SOL    HW146362  10.926  14.367   9.464
48155SOL    HW246363  10.954  14.282   9.587
48156SOL     OW46364  13.211  14.638   4.906
48156SOL    HW146365  13.301  14.638   4.875
48156SOL    HW246366  13.202  14.556   4.953
48157SOL     OW46367   3.565  13.999   4.871
48157SOL    HW146368   3.540  14.086   4.842
48157SOL    HW246369   3.488  13.944   4.853
48158SOL     OW46370  10.081  12.355   3.302
48158SOL    HW146371  10.084  12.282   3.364
48158SOL    HW246372  10.148  12.415   3.334
48159SOL     OW46373   1.871   7.856   2.984
48159SOL    HW146374   1.860   7.819   3.071
48159SOL    HW246375   1.784   7.891   2.961
48160SOL     OW46376   8.977   5.548   4.045
48160SOL    HW146377   9.049   5.486   4.047
48160SOL    HW246378   8.900   5.497   4.072
48161SOL     OW46379   9.611   0.292   4.289
48161SOL    HW146380   9.645   0.273   4.376
48161SOL    HW246381   9.664   0.239   4.230
48162SOL     OW46382  13.589   8.362   3.136
48162SOL    HW146383  13.570   8.280   3.092
48162SOL    HW246384  13.646   8.409   3.075
48163SOL     OW46385   0.297   7.022   1.575
48163SOL    HW146386   0.287   6.970   1.495
48163SOL    HW246387   0.290   7.113   1.545
48164SOL     OW46388  10.360   7.145   3.697
48164SOL    HW146389  10.318   7.078   3.750
48164SOL    HW246390  10.452   7.142   3.723
48165SOL     OW46391  10.077   1.778   9.264
48165SOL    HW146392  10.090   1.721   9.189
48165SOL    HW246393  10.150   1.758   9.322
48166SOL     OW46394   1.789   7.217   5.189
48166SOL    HW146395   1.871   7.207   5.237
48166SOL    HW246396   1.797   7.156   5.116
48167SOL     OW46397   2.794   3.503   8.345
48167SOL    HW146398   2.786   3.432   8.409
48167SOL    HW246399   2.782   3.583   8.397
48168SOL     OW46400  14.599   6.011   5.500
48168SOL    HW146401  14.672   6.069   5.475
48168SOL    HW246402  14.574   5.968   5.418
48169SOL     OW46403   7.235  14.395   9.764
48169SOL    HW146404   7.150  14.387   9.806
48169SOL    HW246405   7.297  14.406   9.836
48170SOL     OW46406   6.350   9.774  12.101
48170SOL    HW146407   6.394   9.858  12.110
48170SOL    HW246408   6.259   9.793  12.124
48171SOL     OW46409   3.362  14.684  14.242
48171SOL    HW146410   3.407  14.653  14.163
48171SOL    HW246411   3.406  14.766  14.264
48172SOL     OW46412   7.301   3.354   2.790
48172SOL    HW146413   7.352   3.375   2.712
48172SOL    HW246414   7.235   3.292   2.760
48173SOL     OW46415   1.178   3.185   1.336
48173SOL    HW146416   1.133   3.143   1.263
48173SOL    HW246417   1.266   3.148   1.335
48174SOL     OW46418   0.919   4.621  10.507
48174SOL    HW146419   0.880   4.588  10.426
48174SOL    HW246420   0.903   4.552  10.571
48175SOL     OW46421   2.045   4.535   8.058
48175SOL    HW146422   1.972   4.532   7.995
48175SOL    HW246423   2.045   4.625   8.090
48176SOL     OW46424   4.161  12.101   0.518
48176SOL    HW146425   4.095  12.031   0.516
48176SOL    HW246426   4.206  12.089   0.601
48177SOL     OW46427   6.474   3.694   9.731
48177SOL    HW146428   6.521   3.645   9.799
48177SOL    HW246429   6.496   3.786   9.748
48178SOL     OW46430   9.701  13.712   5.892
48178SOL    HW146431   9.613  13.745   5.874
48178SOL    HW246432   9.700  13.622   5.858
48179SOL     OW46433   8.798   1.540   6.260
48179SOL    HW146434   8.731   1.479   6.229
48179SOL    HW246435   8.761   1.626   6.241
48180SOL     OW46436   5.323  13.551   5.889
48180SOL    HW146437   5.335  13.640   5.855
48180SOL    HW246438   5.372  13.496   5.829
48181SOL     OW46439  10.904   3.627   1.791
48181SOL    HW146440  10.914   3.570   1.867
48181SOL    HW246441  10.975   3.691   1.800
48182SOL     OW46442  14.713   7.159   9.812
48182SOL    HW146443  14.684   7.077   9.852
48182SOL    HW246444  14.793   7.181   9.859
48183SOL     OW46445   9.898   9.957   8.064
48183SOL    HW146446   9.980   9.984   8.022
48183SOL    HW246447   9.833  10.021   8.034
48184SOL     OW46448  14.841   3.329   3.915
48184SOL    HW146449  14.776   3.345   3.983
48184SOL    HW246450  14.880   3.415   3.899
48185SOL     OW46451  12.988   6.193   1.763
48185SOL    HW146452  12.992   6.164   1.854
48185SOL    HW246453  13.062   6.252   1.752
48186SOL     OW46454   5.312  10.180   1.101
48186SOL    HW146455   5.220  10.203   1.090
48186SOL    HW246456   5.358  10.229   1.033
48187SOL     OW46457   8.255  13.058   7.568
48187SOL    HW146458   8.205  13.081   7.490
48187SOL    HW246459   8.339  13.027   7.535
48188SOL     OW46460  12.478   6.176  14.038
48188SOL    HW146461  12.435   6.237  13.978
48188SOL    HW246462  12.438   6.091  14.019
48189SOL     OW46463   1.608  10.331  13.539
48189SOL    HW146464   1.613  10.260  13.474
48189SOL    HW246465   1.520  10.367  13.528
48190SOL     OW46466   6.753   0.190   8.610
48190SOL    HW146467   6.667   0.220   8.580
48190SOL    HW246468   6.734   0.115   8.666
48191SOL     OW46469   8.970  12.394  12.710
48191SOL    HW146470   9.056  12.435  12.698
48191SOL    HW246471   8.950  12.353  12.626
48192SOL     OW46472   8.203   3.414   9.250
48192SOL    HW146473   8.194   3.509   9.260
48192SOL    HW246474   8.246   3.385   9.330
48193SOL     OW46475   6.771   9.065  12.765
48193SOL    HW146476   6.711   9.007  12.719
48193SOL    HW246477   6.826   9.102  12.697
48194SOL     OW46478  12.931  11.499   7.713
48194SOL    HW146479  12.970  11.578   7.750
48194SOL    HW246480  12.974  11.427   7.760
48195SOL     OW46481   8.243  12.167  10.942
48195SOL    HW146482   8.330  12.135  10.966
48195SOL    HW246483   8.235  12.146  10.849
48196SOL     OW46484   4.151   6.494   4.006
48196SOL    HW146485   4.186   6.406   3.989
48196SOL    HW246486   4.057   6.480   4.017
48197SOL     OW46487   9.101   1.486  12.129
48197SOL    HW146488   9.153   1.561  12.100
48197SOL    HW246489   9.093   1.431  12.051
48198SOL     OW46490  12.661  12.327  12.396
48198SOL    HW146491  12.612  12.272  12.457
48198SOL    HW246492  12.686  12.268  12.325
48199SOL     OW46493   9.040   9.323   6.184
48199SOL    HW146494   9.104   9.392   6.200
48199SOL    HW246495   9.021   9.286   6.270
48200SOL     OW46496  11.063   6.340  11.550
48200SOL    HW146497  11.140   6.286  11.532
48200SOL    HW246498  10.994   6.277  11.573
48201SOL     OW46499  14.419   2.531   9.637
48201SOL    HW146500  14.461   2.574   9.712
48201SOL    HW246501  14.452   2.442   9.638
48202SOL     OW46502  11.512  14.871   2.169
48202SOL    HW146503  11.418   0.007   2.173
48202SOL    HW246504  11.552   0.076   2.165
48203SOL     OW46505   7.629  11.476   2.643
48203SOL    HW146506   7.560  11.410   2.632
48203SOL    HW246507   7.659  11.463   2.733
48204SOL     OW46508   1.604   2.596   4.622
48204SOL    HW146509   1.681   2.605   4.565
48204SOL    HW246510   1.594   2.502   4.635
48205SOL     OW46511   0.067   6.927   9.231
48205SOL    HW146512   0.152   6.971   9.234
48205SOL    HW246513   0.003   6.998   9.244
48206SOL     OW46514   1.298   4.191   3.972
48206SOL    HW146515   1.380   4.184   4.021
48206SOL    HW246516   1.242   4.124   4.010
48207SOL     OW46517   1.853  11.080   1.912
48207SOL    HW146518   1.849  11.117   2.000
48207SOL    HW246519   1.936  11.111   1.877
48208SOL     OW46520   1.915  13.678   9.727
48208SOL    HW146521   2.001  13.660   9.764
48208SOL    HW246522   1.878  13.591   9.709
48209SOL     OW46523   4.968   9.421   4.334
48209SOL    HW146524   4.878   9.453   4.343
48209SOL    HW246525   4.963   9.355   4.264
48210SOL     OW46526   8.105   0.424   6.510
48210SOL    HW146527   8.184   0.375   6.532
48210SOL    HW246528   8.061   0.438   6.594
48211SOL     OW46529   8.923  11.056   6.222
48211SOL    HW146530   8.941  11.125   6.159
48211SOL    HW246531   8.989  11.069   6.291
48212SOL     OW46532   1.502   6.850   8.365
48212SOL    HW146533   1.585   6.810   8.392
48212SOL    HW246534   1.508   6.940   8.396
48213SOL     OW46535   7.106  11.682   9.932
48213SOL    HW146536   7.097  11.776   9.945
48213SOL    HW246537   7.090  11.670   9.838
48214SOL     OW46538   4.687   4.082   7.550
48214SOL    HW146539   4.703   4.023   7.624
48214SOL    HW246540   4.665   4.025   7.477
48215SOL     OW46541   2.474   7.836   6.074
48215SOL    HW146542   2.436   7.899   6.135
48215SOL    HW246543   2.456   7.872   5.987
48216SOL     OW46544   5.870   1.341   3.041
48216SOL    HW146545   5.860   1.423   3.089
48216SOL    HW246546   5.951   1.302   3.077
48217SOL     OW46547  10.356   2.747   9.523
48217SOL    HW146548  10.275   2.798   9.519
48217SOL    HW246549  10.402   2.768   9.442
48218SOL     OW46550   7.543   3.799  13.800
48218SOL    HW146551   7.461   3.816  13.845
48218SOL    HW246552   7.608   3.849  13.849
48219SOL     OW46553  12.659   0.765   4.627
48219SOL    HW146554  12.712   0.845   4.628
48219SOL    HW246555  12.712   0.702   4.578
48220SOL     OW46556  12.952   2.314   2.588
48220SOL    HW146557  12.883   2.248   2.584
48220SOL    HW246558  12.984   2.310   2.678
48221SOL     OW46559   1.266  10.057   3.563
48221SOL    HW146560   1.184  10.103   3.580
48221SOL    HW246561   1.254  10.018   3.476
48222SOL     OW46562   4.818  12.504   8.574
48222SOL    HW146563   4.887  12.443   8.602
48222SOL    HW246564   4.854  12.545   8.495
48223SOL     OW46565   9.199   8.466  14.678
48223SOL    HW146566   9.110   8.490  14.653
48223SOL    HW246567   9.200   8.370  14.671
48224SOL     OW46568   4.720   5.359   9.332
48224SOL    HW146569   4.733   5.287   9.393
48224SOL    HW246570   4.723   5.318   9.245
48225SOL     OW46571   6.376   3.562   3.690
48225SOL    HW146572   6.331   3.640   3.723
48225SOL    HW246573   6.469   3.580   3.705
48226SOL     OW46574  14.530   6.297   6.005
48226SOL    HW146575  14.491   6.344   6.079
48226SOL    HW246576  14.506   6.206   6.019
48227SOL     OW46577   7.364   3.436   6.932
48227SOL    HW146578   7.306   3.427   7.008
48227SOL    HW246579   7.391   3.528   6.934
48228SOL     OW46580   6.916   4.476  14.094
48228SOL    HW146581   6.876   4.425  14.164
48228SOL    HW246582   6.976   4.415  14.052
48229SOL     OW46583  14.104   5.568   4.144
48229SOL    HW146584  14.083   5.561   4.237
48229SOL    HW246585  14.022   5.548   4.099
48230SOL     OW46586   0.928  14.337   1.798
48230SOL    HW146587   0.943  14.376   1.884
48230SOL    HW246588   0.981  14.257   1.799
48231SOL     OW46589   9.005   4.756   3.274
48231SOL    HW146590   9.041   4.678   3.316
48231SOL    HW246591   8.911   4.751   3.291
48232SOL     OW46592  10.239   1.439   4.686
48232SOL    HW146593  10.212   1.358   4.729
48232SOL    HW246594  10.321   1.415   4.641
48233SOL     OW46595   1.166   1.956   0.754
48233SOL    HW146596   1.201   1.997   0.832
48233SOL    HW246597   1.206   2.004   0.681
48234SOL     OW46598  13.239   6.689   3.736
48234SOL    HW146599  13.251   6.645   3.651
48234SOL    HW246600  13.311   6.752   3.740
48235SOL     OW46601   6.627   7.036  14.786
48235SOL    HW146602   6.601   7.014  14.696
48235SOL    HW246603   6.692   6.969  14.808
48236SOL     OW46604  12.411   7.559   0.781
48236SOL    HW146605  12.341   7.575   0.844
48236SOL    HW246606  12.448   7.646   0.765
48237SOL     OW46607   4.595   0.841  11.962
48237SOL    HW146608   4.570   0.931  11.945
48237SOL    HW246609   4.536   0.813  12.032
48238SOL     OW46610   4.550   3.698  13.129
48238SOL    HW146611   4.482   3.766  13.130
48238SOL    HW246612   4.543   3.655  13.215
48239SOL     OW46613   3.288   5.132  11.328
48239SOL    HW146614   3.359   5.169  11.380
48239SOL    HW246615   3.208   5.163  11.373
48240SOL     OW46616   5.422   5.736  11.381
48240SOL    HW146617   5.399   5.651  11.418
48240SOL    HW246618   5.396   5.730  11.289
48241SOL     OW46619   7.562  13.843  13.969
48241SOL    HW146620   7.598  13.784  13.903
48241SOL    HW246621   7.467  13.836  13.960
48242SOL     OW46622  13.129   1.524  10.675
48242SOL    HW146623  13.178   1.550  10.597
48242SOL    HW246624  13.076   1.449  10.647
48243SOL     OW46625   3.775   8.740   1.042
48243SOL    HW146626   3.719   8.817   1.047
48243SOL    HW246627   3.860   8.769   1.076
48244SOL     OW46628   1.444   2.611   2.556
48244SOL    HW146629   1.500   2.595   2.632
48244SOL    HW246630   1.363   2.565   2.576
48245SOL     OW46631   0.455   0.401   4.559
48245SOL    HW146632   0.446   0.457   4.637
48245SOL    HW246633   0.374   0.350   4.557
48246SOL     OW46634   4.819   6.550   2.945
48246SOL    HW146635   4.760   6.625   2.954
48246SOL    HW246636   4.805   6.499   3.025
48247SOL     OW46637   2.986   0.942   2.667
48247SOL    HW146638   2.965   0.884   2.593
48247SOL    HW246639   3.080   0.931   2.680
48248SOL     OW46640  12.148   0.873   3.989
48248SOL    HW146641  12.226   0.921   3.965
48248SOL    HW246642  12.079   0.939   3.997
48249SOL     OW46643  12.013   2.536  12.759
48249SOL    HW146644  12.006   2.620  12.805
48249SOL    HW246645  11.946   2.540  12.691
48250SOL     OW46646  12.649   7.468   5.912
48250SOL    HW146647  12.555   7.455   5.900
48250SOL    HW246648  12.664   7.450   6.005
48251SOL     OW46649   8.073   6.432   1.645
48251SOL    HW146650   8.082   6.353   1.699
48251SOL    HW246651   8.117   6.410   1.563
48252SOL     OW46652   3.063   1.771   8.860
48252SOL    HW146653   3.031   1.771   8.770
48252SOL    HW246654   3.149   1.813   8.855
48253SOL     OW46655   2.874   8.790   5.589
48253SOL    HW146656   2.832   8.737   5.656
48253SOL    HW246657   2.965   8.763   5.589
48254SOL     OW46658   7.353   5.611  12.520
48254SOL    HW146659   7.314   5.628  12.434
48254SOL    HW246660   7.313   5.675  12.578
48255SOL     OW46661  12.958   7.738  11.461
48255SOL    HW146662  12.981   7.831  11.469
48255SOL    HW246663  13.033   7.698  11.417
48256SOL     OW46664   3.858   6.211   5.703
48256SOL    HW146665   3.950   6.214   5.675
48256SOL    HW246666   3.861   6.229   5.797
48257SOL     OW46667  12.543   4.986   0.409
48257SOL    HW146668  12.501   4.982   0.323
48257SOL    HW246669  12.635   5.000   0.389
48258SOL     OW46670  11.753  11.124   7.656
48258SOL    HW146671  11.823  11.189   7.661
48258SOL    HW246672  11.704  11.148   7.577
48259SOL     OW46673   5.617   8.581   3.438
48259SOL    HW146674   5.572   8.496   3.444
48259SOL    HW246675   5.680   8.580   3.510
48260SOL     OW46676   0.065   4.137   0.026
48260SOL    HW146677  14.862   4.180   0.017
48260SOL    HW246678   0.116   4.169  14.833
48261SOL     OW46679  10.992  11.151   9.947
48261SOL    HW146680  11.060  11.092   9.915
48261SOL    HW246681  11.020  11.175  10.035
48262SOL     OW46682   0.170   5.865  14.425
48262SOL    HW146683   0.230   5.806  14.470
48262SOL    HW246684   0.220   5.945  14.412
48263SOL     OW46685   9.205  12.777   5.299
48263SOL    HW146686   9.243  12.858   5.334
48263SOL    HW246687   9.155  12.806   5.222
48264SOL     OW46688   7.783  13.033  13.888
48264SOL    HW146689   7.864  13.011  13.933
48264SOL    HW246690   7.788  12.985  13.805
48265SOL     OW46691  12.983   6.974  10.791
48265SOL    HW146692  13.002   7.067  10.804
48265SOL    HW246693  12.951   6.944  10.876
48266SOL     OW46694   8.790   1.280   1.358
48266SOL    HW146695   8.885   1.286   1.349
48266SOL    HW246696   8.757   1.361   1.319
48267SOL     OW46697  12.822   8.361  10.849
48267SOL    HW146698  12.775   8.319  10.921
48267SOL    HW246699  12.774   8.442  10.832
48268SOL     OW46700   6.013   5.881   7.112
48268SOL    HW146701   5.959   5.834   7.048
48268SOL    HW246702   5.989   5.973   7.100
48269SOL     OW46703   3.135   7.287  13.257
48269SOL    HW146704   3.120   7.320  13.168
48269SOL    HW246705   3.200   7.218  13.246
48270SOL     OW46706  13.609   9.611  14.519
48270SOL    HW146707  13.571   9.603  14.606
48270SOL    HW246708  13.660   9.531  14.507
48271SOL     OW46709   3.504  14.284   6.263
48271SOL    HW146710   3.549  14.206   6.230
48271SOL    HW246711   3.421  14.251   6.297
48272SOL     OW46712  11.000  12.737   2.614
48272SOL    HW146713  11.014  12.822   2.657
48272SOL    HW246714  11.077  12.725   2.559
48273SOL     OW46715   5.803   5.154   6.653
48273SOL    HW146716   5.729   5.095   6.665
48273SOL    HW246717   5.846   5.124   6.573
48274SOL     OW46718   6.384   7.192   8.031
48274SOL    HW146719   6.355   7.257   7.966
48274SOL    HW246720   6.303   7.146   8.055
48275SOL     OW46721   8.419   5.151   8.731
48275SOL    HW146722   8.429   5.063   8.694
48275SOL    HW246723   8.483   5.154   8.801
48276SOL     OW46724  14.088  12.537   7.333
48276SOL    HW146725  14.141  12.459   7.317
48276SOL    HW246726  14.058  12.527   7.423
48277SOL     OW46727   3.598   6.462  10.612
48277SOL    HW146728   3.661   6.403  10.651
48277SOL    HW246729   3.602   6.443  10.518
48278SOL     OW46730  10.929  13.356  14.330
48278SOL    HW146731  10.900  13.309  14.251
48278SOL    HW246732  11.008  13.310  14.357
48279SOL     OW46733   2.802   2.460   8.640
48279SOL    HW146734   2.779   2.432   8.551
48279SOL    HW246735   2.850   2.542   8.627
48280SOL     OW46736  13.718   3.305   1.697
48280SOL    HW146737  13.801   3.336   1.661
48280SOL    HW246738  13.710   3.348   1.782
48281SOL     OW46739  14.737   5.211   3.983
48281SOL    HW146740  14.782   5.282   3.936
48281SOL    HW246741  14.653   5.202   3.938
48282SOL     OW46742  14.708   4.991   1.814
48282SOL    HW146743  14.678   4.933   1.743
48282SOL    HW246744  14.627   5.020   1.856
48283SOL     OW46745   1.961  11.398   9.136
48283SOL    HW146746   1.997  11.487   9.142
48283SOL    HW246747   1.920  11.394   9.050
48284SOL     OW46748   0.877   3.334   6.748
48284SOL    HW146749   0.905   3.269   6.682
48284SOL    HW246750   0.903   3.418   6.711
48285SOL     OW46751   2.979  13.141   1.943
48285SOL    HW146752   2.997  13.209   1.878
48285SOL    HW246753   2.947  13.067   1.891
48286SOL     OW46754   6.472   1.954   6.558
48286SOL    HW146755   6.462   1.907   6.641
48286SOL    HW246756   6.440   2.042   6.577
48287SOL     OW46757   1.342   6.351  12.909
48287SOL    HW146758   1.426   6.314  12.936
48287SOL    HW246759   1.334   6.432  12.960
48288SOL     OW46760   4.473  14.010  11.384
48288SOL    HW146761   4.552  14.045  11.425
48288SOL    HW246762   4.415  14.086  11.376
48289SOL     OW46763   1.577   9.456   2.781
48289SOL    HW146764   1.605   9.494   2.864
48289SOL    HW246765   1.532   9.375   2.806
48290SOL     OW46766   6.520   4.385   3.627
48290SOL    HW146767   6.432   4.406   3.596
48290SOL    HW246768   6.509   4.361   3.719
48291SOL     OW46769  10.363   9.985   6.253
48291SOL    HW146770  10.358  10.074   6.288
48291SOL    HW246771  10.443   9.949   6.292
48292SOL     OW46772   9.323   8.250   7.218
48292SOL    HW146773   9.327   8.343   7.240
48292SOL    HW246774   9.277   8.248   7.134
48293SOL     OW46775   1.015  11.545  13.894
48293SOL    HW146776   1.043  11.634  13.871
48293SOL    HW246777   0.925  11.555  13.923
48294SOL     OW46778   5.222   5.591  10.943
48294SOL    HW146779   5.239   5.569  10.851
48294SOL    HW246780   5.155   5.529  10.970
48295SOL     OW46781   1.770  11.754   9.615
48295SOL    HW146782   1.687  11.711   9.595
48295SOL    HW246783   1.837  11.694   9.583
48296SOL     OW46784   2.384   9.147  12.594
48296SOL    HW146785   2.327   9.080  12.558
48296SOL    HW246786   2.411   9.199  12.519
48297SOL     OW46787   4.376   7.693   9.184
48297SOL    HW146788   4.335   7.667   9.267
48297SOL    HW246789   4.459   7.731   9.210
48298SOL     OW46790  11.958  14.875  12.768
48298SOL    HW146791  11.959   0.019  12.676
48298SOL    HW246792  12.030   0.043  12.808
48299SOL     OW46793  12.229  13.810   4.623
48299SOL    HW146794  12.302  13.764   4.583
48299SOL    HW246795  12.244  13.803   4.717
48300SOL     OW46796  11.441   9.168  10.091
48300SOL    HW146797  11.528   9.201  10.069
48300SOL    HW246798  11.386   9.194  10.017
48301SOL     OW46799   1.980  14.820  12.242
48301SOL    HW146800   2.049   0.002  12.226
48301SOL    HW246801   1.935  14.852  12.320
48302SOL     OW46802   4.300   4.176   9.231
48302SOL    HW146803   4.234   4.216   9.173
48302SOL    HW246804   4.299   4.084   9.208
48303SOL     OW46805   8.565   0.918  12.760
48303SOL    HW146806   8.607   1.001  12.738
48303SOL    HW246807   8.516   0.937  12.840
48304SOL     OW46808  11.261   0.885  13.002
48304SOL    HW146809  11.192   0.948  13.022
48304SOL    HW246810  11.221   0.825  12.939
48305SOL     OW46811  14.591   6.378   8.844
48305SOL    HW146812  14.555   6.291   8.828
48305SOL    HW246813  14.644   6.397   8.766
48306SOL     OW46814  10.143   8.304   4.509
48306SOL    HW146815  10.225   8.353   4.520
48306SOL    HW246816  10.165   8.234   4.447
48307SOL     OW46817   0.574  11.862   3.586
48307SOL    HW146818   0.497  11.917   3.576
48307SOL    HW246819   0.543  11.774   3.564
48308SOL     OW46820  14.524   7.106  10.951
48308SOL    HW146821  14.468   7.035  10.918
48308SOL    HW246822  14.472   7.185  10.936
48309SOL     OW46823   4.208   6.994   6.703
48309SOL    HW146824   4.275   7.027   6.763
48309SOL    HW246825   4.126   7.004   6.752
48310SOL     OW46826   8.405   4.995   7.287
48310SOL    HW146827   8.456   4.953   7.356
48310SOL    HW246828   8.419   5.088   7.300
48311SOL     OW46829   6.226  13.722   4.072
48311SOL    HW146830   6.277  13.648   4.039
48311SOL    HW246831   6.282  13.761   4.139
48312SOL     OW46832   9.750   3.310  12.853
48312SOL    HW146833   9.695   3.383  12.825
48312SOL    HW246834   9.712   3.281  12.936
48313SOL     OW46835   0.847   5.548   8.094
48313SOL    HW146836   0.859   5.595   8.011
48313SOL    HW246837   0.760   5.575   8.124
48314SOL     OW46838   3.914   4.931  11.877
48314SOL    HW146839   3.927   4.904  11.786
48314SOL    HW246840   3.845   4.873  11.910
48315SOL     OW46841  11.668   6.553  13.824
48315SOL    HW146842  11.725   6.563  13.900
48315SOL    HW246843  11.645   6.642  13.799
48316SOL     OW46844   8.639   5.579   8.651
48316SOL    HW146845   8.715   5.615   8.605
48316SOL    HW246846   8.676   5.515   8.711
48317SOL     OW46847   2.542   6.109  10.526
48317SOL    HW146848   2.494   6.155  10.457
48317SOL    HW246849   2.635   6.121  10.502
48318SOL     OW46850   9.618   7.503   6.151
48318SOL    HW146851   9.635   7.486   6.058
48318SOL    HW246852   9.552   7.573   6.151
48319SOL     OW46853   5.929   0.057   6.744
48319SOL    HW146854   5.885   0.122   6.689
48319SOL    HW246855   5.859   0.006   6.782
48320SOL     OW46856   8.553   9.580  13.818
48320SOL    HW146857   8.550   9.574  13.723
48320SOL    HW246858   8.474   9.535  13.848
48321SOL     OW46859   1.521   0.736   9.866
48321SOL    HW146860   1.524   0.822   9.907
48321SOL    HW246861   1.431   0.728   9.833
48322SOL     OW46862  12.520   5.716   9.319
48322SOL    HW146863  12.537   5.649   9.253
48322SOL    HW246864  12.604   5.726   9.365
48323SOL     OW46865   0.335   4.886   2.638
48323SOL    HW146866   0.396   4.958   2.654
48323SOL    HW246867   0.250   4.928   2.629
48324SOL     OW46868   2.061  14.358  11.119
48324SOL    HW146869   1.975  14.355  11.160
48324SOL    HW246870   2.068  14.276  11.071
48325SOL     OW46871  13.349   2.590  12.606
48325SOL    HW146872  13.404   2.515  12.626
48325SOL    HW246873  13.410   2.660  12.586
48326SOL     OW46874  13.567  11.501   4.912
48326SOL    HW146875  13.605  11.563   4.974
48326SOL    HW246876  13.523  11.436   4.966
48327SOL     OW46877   1.685   0.961  14.220
48327SOL    HW146878   1.593   0.935  14.217
48327SOL    HW246879   1.683   1.053  14.246
48328SOL     OW46880   1.049  11.264   3.938
48328SOL    HW146881   1.091  11.256   3.853
48328SOL    HW246882   0.957  11.282   3.918
48329SOL     OW46883   5.104   9.491   6.696
48329SOL    HW146884   5.173   9.554   6.679
48329SOL    HW246885   5.023   9.535   6.667
48330SOL     OW46886   2.671   2.694   9.954
48330SOL    HW146887   2.614   2.689  10.031
48330SOL    HW246888   2.638   2.770   9.905
48331SOL     OW46889  11.048   1.481   4.017
48331SOL    HW146890  10.958   1.457   3.996
48331SOL    HW246891  11.081   1.522   3.937
48332SOL     OW46892  13.273  10.869   3.668
48332SOL    HW146893  13.287  10.826   3.752
48332SOL    HW246894  13.275  10.963   3.688
48333SOL     OW46895  10.430   6.338  12.329
48333SOL    HW146896  10.363   6.357  12.395
48333SOL    HW246897  10.388   6.358  12.246
48334SOL     OW46898   7.033   2.409   4.490
48334SOL    HW146899   6.940   2.413   4.470
48334SOL    HW246900   7.053   2.315   4.495
48335SOL     OW46901   7.990  10.696   1.172
48335SOL    HW146902   8.059  10.722   1.111
48335SOL    HW246903   7.927  10.649   1.118
48336SOL     OW46904   9.233   1.354   8.421
48336SOL    HW146905   9.297   1.299   8.467
48336SOL    HW246906   9.280   1.434   8.401
48337SOL     OW46907  13.999   3.882   8.202
48337SOL    HW146908  14.084   3.846   8.229
48337SOL    HW246909  14.020   3.970   8.171
48338SOL     OW46910   3.513  11.278   9.858
48338SOL    HW146911   3.591  11.316   9.817
48338SOL    HW246912   3.541  11.259   9.948
48339SOL     OW46913  11.412  12.742  12.170
48339SOL    HW146914  11.393  12.783  12.254
48339SOL    HW246915  11.385  12.806  12.104
48340SOL     OW46916   3.462   4.632  14.230
48340SOL    HW146917   3.554   4.611  14.212
48340SOL    HW246918   3.415   4.551  14.209
48341SOL     OW46919   2.696   3.710   3.197
48341SOL    HW146920   2.650   3.725   3.115
48341SOL    HW246921   2.780   3.674   3.171
48342SOL     OW46922   8.155   7.713   6.583
48342SOL    HW146923   8.146   7.798   6.627
48342SOL    HW246924   8.148   7.734   6.489
48343SOL     OW46925   9.809   0.973  13.398
48343SOL    HW146926   9.890   0.933  13.366
48343SOL    HW246927   9.741   0.943  13.337
48344SOL     OW46928   8.860   3.060   9.632
48344SOL    HW146929   8.890   2.997   9.697
48344SOL    HW246930   8.906   3.036   9.551
48345SOL     OW46931   8.603   3.132  10.427
48345SOL    HW146932   8.644   3.088  10.353
48345SOL    HW246933   8.537   3.189  10.387
48346SOL     OW46934  13.466  10.533  11.742
48346SOL    HW146935  13.531  10.491  11.799
48346SOL    HW246936  13.468  10.625  11.767
48347SOL     OW46937  13.061   1.835  12.328
48347SOL    HW146938  12.973   1.861  12.302
48347SOL    HW246939  13.064   1.851  12.423
48348SOL     OW46940  11.971   5.151  12.324
48348SOL    HW146941  12.064   5.131  12.315
48348SOL    HW246942  11.932   5.123  12.241
48349SOL     OW46943  10.370   0.883  14.727
48349SOL    HW146944  10.306   0.819  14.756
48349SOL    HW246945  10.319   0.961  14.708
48350SOL     OW46946  14.184  14.394  10.751
48350SOL    HW146947  14.178  14.360  10.840
48350SOL    HW246948  14.262  14.450  10.751
48351SOL     OW46949  10.999   1.782   2.908
48351SOL    HW146950  11.082   1.793   2.955
48351SOL    HW246951  10.952   1.716   2.959
48352SOL     OW46952  14.319   2.064   0.446
48352SOL    HW146953  14.271   2.083   0.526
48352SOL    HW246954  14.383   1.997   0.472
48353SOL     OW46955   5.840   4.798   8.979
48353SOL    HW146956   5.821   4.754   8.896
48353SOL    HW246957   5.762   4.784   9.032
48354SOL     OW46958  13.403  10.105   3.447
48354SOL    HW146959  13.398  10.142   3.359
48354SOL    HW246960  13.468  10.158   3.493
48355SOL     OW46961  13.017   8.021  11.504
48355SOL    HW146962  12.925   8.041  11.518
48355SOL    HW246963  13.062   8.064  11.577
48356SOL     OW46964  10.627   6.302   5.362
48356SOL    HW146965  10.691   6.309   5.290
48356SOL    HW246966  10.609   6.392   5.387
48357SOL     OW46967   3.708  14.657   4.563
48357SOL    HW146968   3.800  14.654   4.587
48357SOL    HW246969   3.706  14.711   4.484
48358SOL     OW46970   9.140   0.443   5.103
48358SOL    HW146971   9.207   0.495   5.148
48358SOL    HW246972   9.184   0.360   5.083
48359SOL     OW46973  11.349   2.360  12.466
48359SOL    HW146974  11.350   2.278  12.416
48359SOL    HW246975  11.379   2.335  12.553
48360SOL     OW46976   0.092   4.103   9.449
48360SOL    HW146977   0.096   4.010   9.427
48360SOL    HW246978   0.128   4.108   9.538
48361SOL     OW46979  14.864   2.762  11.341
48361SOL    HW146980  14.842   2.794  11.254
48361SOL    HW246981   0.065   2.716  11.330
48362SOL     OW46982  12.804   6.736   0.628
48362SOL    HW146983  12.804   6.828   0.600
48362SOL    HW246984  12.741   6.693   0.569
48363SOL     OW46985  13.016   0.178  11.359
48363SOL    HW146986  13.012   0.095  11.407
48363SOL    HW246987  12.985   0.243  11.421
48364SOL     OW46988   5.826   0.164  11.221
48364SOL    HW146989   5.896   0.227  11.240
48364SOL    HW246990   5.799   0.132  11.308
48365SOL     OW46991  10.536   8.018  13.588
48365SOL    HW146992  10.514   8.108  13.566
48365SOL    HW246993  10.490   8.001  13.670
48366SOL     OW46994   9.627   4.204   6.541
48366SOL    HW146995   9.596   4.292   6.558
48366SOL    HW246996   9.550   4.157   6.509
48367SOL     OW46997   0.360  13.203   9.101
48367SOL    HW146998   0.386  13.283   9.146
48367SOL    HW246999   0.307  13.233   9.027
48368SOL     OW47000  12.023   0.039   2.750
48368SOL    HW147001  12.011  14.830   2.724
48368SOL    HW247002  12.086   0.036   2.822
48369SOL     OW47003   8.846  11.866   1.026
48369SOL    HW147004   8.816  11.782   0.992
48369SOL    HW247005   8.795  11.878   1.106
48370SOL     OW47006   0.762   0.302  10.887
48370SOL    HW147007   0.697   0.236  10.911
48370SOL    HW247008   0.815   0.261  10.819
48371SOL     OW47009   1.598  13.541  14.034
48371SOL    HW147010   1.542  13.481  13.986
48371SOL    HW247011   1.687  13.520  14.004
48372SOL     OW47012   0.999  12.605   6.848
48372SOL    HW147013   1.093  12.619   6.861
48372SOL    HW247014   0.989  12.597   6.753
48373SOL     OW47015  12.722  10.590  14.390
48373SOL    HW147016  12.762  10.610  14.475
48373SOL    HW247017  12.785  10.623  14.325
48374SOL     OW47018  10.977   5.765   0.585
48374SOL    HW147019  10.936   5.843   0.621
48374SOL    HW247020  10.993   5.787   0.493
48375SOL     OW47021   2.196   8.292   2.581
48375SOL    HW147022   2.226   8.363   2.638
48375SOL    HW247023   2.101   8.301   2.579
48376SOL     OW47024   6.098  10.700   1.685
48376SOL    HW147025   6.128  10.615   1.716
48376SOL    HW247026   6.123  10.761   1.755
48377SOL     OW47027  10.807   6.391   8.636
48377SOL    HW147028  10.751   6.400   8.559
48377SOL    HW247029  10.837   6.480   8.655
48378SOL     OW47030   9.981  13.877   1.767
48378SOL    HW147031  10.020  13.814   1.707
48378SOL    HW247032   9.886  13.865   1.755
48379SOL     OW47033   1.397  13.411   6.852
48379SOL    HW147034   1.301  13.415   6.850
48379SOL    HW247035   1.423  13.496   6.886
48380SOL     OW47036  13.520   4.768  12.838
48380SOL    HW147037  13.427   4.774  12.861
48380SOL    HW247038  13.553   4.698  12.894
48381SOL     OW47039   8.465   2.981  12.879
48381SOL    HW147040   8.452   3.016  12.792
48381SOL    HW247041   8.558   2.958  12.882
48382SOL     OW47042  10.463  10.686  11.836
48382SOL    HW147043  10.401  10.709  11.905
48382SOL    HW247044  10.539  10.652  11.883
48383SOL     OW47045  11.713  13.853   2.036
48383SOL    HW147046  11.673  13.939   2.022
48383SOL    HW247047  11.691  13.804   1.957
48384SOL     OW47048   5.842   7.304   5.955
48384SOL    HW147049   5.899   7.253   5.898
48384SOL    HW247050   5.899   7.372   5.991
48385SOL     OW47051  14.674   2.616   3.407
48385SOL    HW147052  14.669   2.618   3.503
48385SOL    HW247053  14.618   2.687   3.378
48386SOL     OW47054  10.878  10.642   2.868
48386SOL    HW147055  10.850  10.594   2.945
48386SOL    HW247056  10.974  10.641   2.872
48387SOL     OW47057   4.851   7.652   3.464
48387SOL    HW147058   4.842   7.558   3.477
48387SOL    HW247059   4.776   7.690   3.510
48388SOL     OW47060  13.676   5.275  12.041
48388SOL    HW147061  13.607   5.336  12.013
48388SOL    HW247062  13.754   5.305  11.995
48389SOL     OW47063   2.835   2.651   1.048
48389SOL    HW147064   2.780   2.721   1.083
48389SOL    HW247065   2.919   2.692   1.031
48390SOL     OW47066  11.166  10.112   5.431
48390SOL    HW147067  11.244  10.154   5.395
48390SOL    HW247068  11.177  10.019   5.409
48391SOL     OW47069   8.293   5.880   4.417
48391SOL    HW147070   8.343   5.814   4.368
48391SOL    HW247071   8.305   5.856   4.509
48392SOL     OW47072  13.009   1.026   0.881
48392SOL    HW147073  13.104   1.032   0.883
48392SOL    HW247074  12.991   0.948   0.827
48393SOL     OW47075   9.039   7.857   1.182
48393SOL    HW147076   8.986   7.936   1.174
48393SOL    HW247077   9.096   7.873   1.257
48394SOL     OW47078  14.022  11.058  13.711
48394SOL    HW147079  13.976  11.002  13.774
48394SOL    HW247080  13.984  11.035  13.627
48395SOL     OW47081   2.339  13.168   8.281
48395SOL    HW147082   2.422  13.125   8.304
48395SOL    HW247083   2.354  13.261   8.298
48396SOL     OW47084   6.682  12.300   9.439
48396SOL    HW147085   6.618  12.321   9.507
48396SOL    HW247086   6.634  12.243   9.378
48397SOL     OW47087   8.540   5.068   3.234
48397SOL    HW147088   8.474   5.125   3.196
48397SOL    HW247089   8.494   4.985   3.248
48398SOL     OW47090  12.445   9.923  13.637
48398SOL    HW147091  12.441   9.914  13.732
48398SOL    HW247092  12.366   9.972  13.614
48399SOL     OW47093   8.591  13.052   0.934
48399SOL    HW147094   8.525  12.985   0.917
48399SOL    HW247095   8.662  13.032   0.874
48400SOL     OW47096  11.676  13.149  10.670
48400SOL    HW147097  11.585  13.166  10.644
48400SOL    HW247098  11.685  13.054  10.664
48401SOL     OW47099   0.166   2.626  10.990
48401SOL    HW147100   0.111   2.557  11.028
48401SOL    HW247101   0.111   2.667  10.924
48402SOL     OW47102   9.793  10.891   7.034
48402SOL    HW147103   9.809  10.913   6.942
48402SOL    HW247104   9.738  10.962   7.066
48403SOL     OW47105   2.156   6.039   0.861
48403SOL    HW147106   2.221   5.989   0.910
48403SOL    HW247107   2.203   6.074   0.786
48404SOL     OW47108  14.828  13.012   8.470
48404SOL    HW147109  14.734  12.994   8.472
48404SOL    HW247110  14.848  13.044   8.558
48405SOL     OW47111  12.320   7.505   1.593
48405SOL    HW147112  12.290   7.438   1.655
48405SOL    HW247113  12.401   7.470   1.557
48406SOL     OW47114  10.176   3.431   1.752
48406SOL    HW147115  10.262   3.392   1.737
48406SOL    HW247116  10.191   3.525   1.751
48407SOL     OW47117  11.263  12.938   8.305
48407SOL    HW147118  11.324  12.928   8.232
48407SOL    HW247119  11.183  12.892   8.276
48408SOL     OW47120   4.326   0.494   3.383
48408SOL    HW147121   4.422   0.487   3.380
48408SOL    HW247122   4.301   0.449   3.464
48409SOL     OW47123  13.108  10.608   4.341
48409SOL    HW147124  13.059  10.645   4.415
48409SOL    HW247125  13.099  10.674   4.272
48410SOL     OW47126   4.586   5.270   2.899
48410SOL    HW147127   4.644   5.227   2.837
48410SOL    HW247128   4.580   5.361   2.868
48411SOL     OW47129  13.524   0.441   1.658
48411SOL    HW147130  13.547   0.348   1.659
48411SOL    HW247131  13.608   0.486   1.652
48412SOL     OW47132   9.898   4.119   6.601
48412SOL    HW147133   9.821   4.105   6.545
48412SOL    HW247134   9.952   4.181   6.552
48413SOL     OW47135   8.452  11.943  10.653
48413SOL    HW147136   8.518  12.003  10.619
48413SOL    HW247137   8.473  11.859  10.612
48414SOL     OW47138   3.917  14.403  14.289
48414SOL    HW147139   3.990  14.447  14.245
48414SOL    HW247140   3.938  14.409  14.382
48415SOL     OW47141   2.341   1.326   4.018
48415SOL    HW147142   2.427   1.367   4.005
48415SOL    HW247143   2.349   1.241   3.973
48416SOL     OW47144   5.873  13.893  14.163
48416SOL    HW147145   5.808  13.861  14.101
48416SOL    HW247146   5.899  13.816  14.213
48417SOL     OW47147   0.646   2.520   1.968
48417SOL    HW147148   0.675   2.588   1.907
48417SOL    HW247149   0.712   2.451   1.959
48418SOL     OW47150  12.072  13.332  10.734
48418SOL    HW147151  12.078  13.383  10.815
48418SOL    HW247152  11.980  13.338  10.709
48419SOL     OW47153   1.636  11.970   7.815
48419SOL    HW147154   1.644  12.033   7.743
48419SOL    HW247155   1.723  11.969   7.856
48420SOL     OW47156  11.717   9.192  12.816
48420SOL    HW147157  11.702   9.119  12.756
48420SOL    HW247158  11.634   9.202  12.862
48421SOL     OW47159   4.462  14.453   0.860
48421SOL    HW147160   4.417  14.486   0.783
48421SOL    HW247161   4.392  14.432   0.922
48422SOL     OW47162   2.696   3.572   4.953
48422SOL    HW147163   2.748   3.529   5.021
48422SOL    HW247164   2.607   3.572   4.988
48423SOL     OW47165  10.583   5.960   4.372
48423SOL    HW147166  10.648   6.029   4.360
48423SOL    HW247167  10.571   5.954   4.467
48424SOL     OW47168  11.258   0.057  14.005
48424SOL    HW147169  11.205  14.865  13.975
48424SOL    HW247170  11.274   0.039  14.098
48425SOL     OW47171   5.032   8.546   3.224
48425SOL    HW147172   5.060   8.638   3.216
48425SOL    HW247173   5.101   8.504   3.275
48426SOL     OW47174  12.997   5.693  12.082
48426SOL    HW147175  13.033   5.666  11.997
48426SOL    HW247176  12.960   5.613  12.119
48427SOL     OW47177   8.023   5.336   7.535
48427SOL    HW147178   7.975   5.416   7.557
48427SOL    HW247179   7.962   5.265   7.557
48428SOL     OW47180   2.286  12.521  12.802
48428SOL    HW147181   2.207  12.574  12.811
48428SOL    HW247182   2.357  12.584  12.793
48429SOL     OW47183   5.500   1.932   9.423
48429SOL    HW147184   5.509   2.026   9.410
48429SOL    HW247185   5.538   1.892   9.345
48430SOL     OW47186   2.905  10.451   2.821
48430SOL    HW147187   2.933  10.465   2.911
48430SOL    HW247188   2.854  10.370   2.825
48431SOL     OW47189  12.328   0.144   2.504
48431SOL    HW147190  12.339   0.239   2.507
48431SOL    HW247191  12.241   0.132   2.466
48432SOL     OW47192   7.831  12.952   7.958
48432SOL    HW147193   7.747  12.973   7.998
48432SOL    HW247194   7.823  12.984   7.868
48433SOL     OW47195  11.706   4.958  10.085
48433SOL    HW147196  11.634   4.946  10.147
48433SOL    HW247197  11.726   5.051  10.090
48434SOL     OW47198   8.747   0.385   3.102
48434SOL    HW147199   8.765   0.294   3.079
48434SOL    HW247200   8.800   0.436   3.040
48435SOL     OW47201   5.742  12.441   8.893
48435SOL    HW147202   5.796  12.433   8.815
48435SOL    HW247203   5.803  12.469   8.961
48436SOL     OW47204   9.218  11.138   5.464
48436SOL    HW147205   9.305  11.149   5.426
48436SOL    HW247206   9.160  11.185   5.405
48437SOL     OW47207   6.766   9.558   3.878
48437SOL    HW147208   6.760   9.575   3.784
48437SOL    HW247209   6.691   9.501   3.897
48438SOL     OW47210   2.122   5.717   3.336
48438SOL    HW147211   2.207   5.750   3.366
48438SOL    HW247212   2.076   5.795   3.304
48439SOL     OW47213  11.455  14.641   5.933
48439SOL    HW147214  11.462  14.571   5.997
48439SOL    HW247215  11.535  14.692   5.944
48440SOL     OW47216   9.664   3.354   0.134
48440SOL    HW147217   9.657   3.395   0.048
48440SOL    HW247218   9.583   3.305   0.144
48441SOL     OW47219   2.180  12.063   8.650
48441SOL    HW147220   2.195  12.157   8.639
48441SOL    HW247221   2.242  12.036   8.718
48442SOL     OW47222  12.745   2.800   5.054
48442SOL    HW147223  12.720   2.783   5.144
48442SOL    HW247224  12.708   2.887   5.035
48443SOL     OW47225   9.858  12.493  14.463
48443SOL    HW147226   9.806  12.413  14.469
48443SOL    HW247227   9.926  12.473  14.399
48444SOL     OW47228  13.902   2.935  10.985
48444SOL    HW147229  13.874   2.872  11.051
48444SOL    HW247230  13.821   2.978  10.957
48445SOL     OW47231  14.609   2.725  11.542
48445SOL    HW147232  14.640   2.764  11.624
48445SOL    HW247233  14.687   2.717  11.488
48446SOL     OW47234  13.233   6.738  13.531
48446SOL    HW147235  13.225   6.786  13.613
48446SOL    HW247236  13.154   6.761  13.482
48447SOL     OW47237   4.764   3.114   3.876
48447SOL    HW147238   4.754   3.197   3.829
48447SOL    HW247239   4.686   3.063   3.853
48448SOL     OW47240   5.234  12.151  13.198
48448SOL    HW147241   5.315  12.163  13.149
48448SOL    HW247242   5.173  12.113  13.135
48449SOL     OW47243  12.703   6.801   8.526
48449SOL    HW147244  12.672   6.710   8.526
48449SOL    HW247245  12.763   6.806   8.600
48450SOL     OW47246   2.577  12.239   7.267
48450SOL    HW147247   2.513  12.180   7.228
48450SOL    HW247248   2.613  12.287   7.193
48451SOL     OW47249  14.569  13.550   3.189
48451SOL    HW147250  14.535  13.617   3.248
48451SOL    HW247251  14.664  13.549   3.206
48452SOL     OW47252   1.129  14.158   9.489
48452SOL    HW147253   1.069  14.230   9.475
48452SOL    HW247254   1.119  14.102   9.412
48453SOL     OW47255   9.324   8.486   6.942
48453SOL    HW147256   9.251   8.425   6.950
48453SOL    HW247257   9.282   8.570   6.924
48454SOL     OW47258  12.428   1.427   2.337
48454SOL    HW147259  12.457   1.505   2.288
48454SOL    HW247260  12.432   1.356   2.272
48455SOL     OW47261   7.425  13.362   0.429
48455SOL    HW147262   7.506  13.397   0.392
48455SOL    HW247263   7.365  13.436   0.431
48456SOL     OW47264   9.818   8.871   7.865
48456SOL    HW147265   9.728   8.877   7.897
48456SOL    HW247266   9.822   8.932   7.792
48457SOL     OW47267  10.644  12.835   6.594
48457SOL    HW147268  10.576  12.848   6.660
48457SOL    HW247269  10.705  12.774   6.633
48458SOL     OW47270   9.531  14.012   1.849
48458SOL    HW147271   9.524  14.104   1.873
48458SOL    HW247272   9.444  13.976   1.865
48459SOL     OW47273   4.492   6.665   6.160
48459SOL    HW147274   4.571   6.717   6.145
48459SOL    HW247275   4.522   6.574   6.161
48460SOL     OW47276   7.067  11.365   1.897
48460SOL    HW147277   7.049  11.376   1.991
48460SOL    HW247278   7.114  11.444   1.872
48461SOL     OW47279   3.579   1.624  10.170
48461SOL    HW147280   3.532   1.705  10.191
48461SOL    HW247281   3.519   1.576  10.112
48462SOL     OW47282   8.827  10.020  12.202
48462SOL    HW147283   8.893  10.006  12.134
48462SOL    HW247284   8.769   9.945  12.195
48463SOL     OW47285  10.074  13.500   4.793
48463SOL    HW147286  10.145  13.452   4.836
48463SOL    HW247287  10.009  13.514   4.862
48464SOL     OW47288   4.192  13.336  13.260
48464SOL    HW147289   4.265  13.319  13.200
48464SOL    HW247290   4.120  13.365  13.203
48465SOL     OW47291   1.524   4.406   5.190
48465SOL    HW147292   1.533   4.370   5.278
48465SOL    HW247293   1.539   4.332   5.132
48466SOL     OW47294   1.116   1.715  14.793
48466SOL    HW147295   1.051   1.779  14.823
48466SOL    HW247296   1.166   1.694  14.871
48467SOL     OW47297   9.060  10.575   2.418
48467SOL    HW147298   9.098  10.538   2.338
48467SOL    HW247299   9.049  10.500   2.476
48468SOL     OW47300  12.791  10.164   6.230
48468SOL    HW147301  12.807  10.161   6.135
48468SOL    HW247302  12.852  10.099   6.266
48469SOL     OW47303   0.032  12.802   0.944
48469SOL    HW147304  14.876  12.813   1.031
48469SOL    HW247305   0.073  12.715   0.947
48470SOL     OW47306  10.791   5.080  11.211
48470SOL    HW147307  10.708   5.107  11.249
48470SOL    HW247308  10.831   5.161  11.180
48471SOL     OW47309   6.007  13.837   0.525
48471SOL    HW147310   5.968  13.867   0.443
48471SOL    HW247311   6.037  13.748   0.507
48472SOL     OW47312   0.224   1.151  13.005
48472SOL    HW147313   0.193   1.199  12.928
48472SOL    HW247314   0.194   1.202  13.080
48473SOL     OW47315   2.911  14.768   2.083
48473SOL    HW147316   2.873  14.778   1.996
48473SOL    HW247317   2.838  14.740   2.138
48474SOL     OW47318   6.779   8.914   1.286
48474SOL    HW147319   6.867   8.939   1.259
48474SOL    HW247320   6.788   8.892   1.379
48475SOL     OW47321   6.659  11.445  13.481
48475SOL    HW147322   6.665  11.535  13.515
48475SOL    HW247323   6.750  11.416  13.477
48476SOL     OW47324  11.303   1.290  12.248
48476SOL    HW147325  11.209   1.303  12.259
48476SOL    HW247326  11.320   1.205  12.290
48477SOL     OW47327   6.583  13.035  11.672
48477SOL    HW147328   6.559  12.942  11.672
48477SOL    HW247329   6.665  13.039  11.622
48478SOL     OW47330   6.719  14.238   9.859
48478SOL    HW147331   6.668  14.319   9.852
48478SOL    HW247332   6.693  14.201   9.943
48479SOL     OW47333   0.209   6.674   0.350
48479SOL    HW147334   0.253   6.624   0.281
48479SOL    HW247335   0.254   6.758   0.350
48480SOL     OW47336   5.466   5.118  14.121
48480SOL    HW147337   5.467   5.041  14.064
48480SOL    HW247338   5.553   5.158  14.108
48481SOL     OW47339   5.345   0.245  10.675
48481SOL    HW147340   5.413   0.289  10.726
48481SOL    HW247341   5.392   0.211  10.598
48482SOL     OW47342   5.007  10.677  14.763
48482SOL    HW147343   5.033  10.596  14.808
48482SOL    HW247344   4.912  10.684  14.779
48483SOL     OW47345   7.562   8.231   0.015
48483SOL    HW147346   7.606   8.195  14.820
48483SOL    HW247347   7.586   8.324   0.016
48484SOL     OW47348   2.513  10.348  14.114
48484SOL    HW147349   2.424  10.317  14.097
48484SOL    HW247350   2.521  10.429  14.064
48485SOL     OW47351  11.060   5.275  12.766
48485SOL    HW147352  11.117   5.203  12.741
48485SOL    HW247353  11.084   5.296  12.856
48486SOL     OW47354   0.655   7.580   5.364
48486SOL    HW147355   0.577   7.600   5.313
48486SOL    HW247356   0.678   7.663   5.406
48487SOL     OW47357  11.454   7.802  10.763
48487SOL    HW147358  11.463   7.884  10.713
48487SOL    HW247359  11.386   7.821  10.828
48488SOL     OW47360  11.753   1.884   5.834
48488SOL    HW147361  11.765   1.979   5.838
48488SOL    HW247362  11.659   1.871   5.846
48489SOL     OW47363  10.334  11.141   0.206
48489SOL    HW147364  10.344  11.210   0.272
48489SOL    HW247365  10.346  11.185   0.122
48490SOL     OW47366   2.793   5.015   9.795
48490SOL    HW147367   2.835   4.944   9.746
48490SOL    HW247368   2.853   5.089   9.786
48491SOL     OW47369   6.138  13.023  11.945
48491SOL    HW147370   6.170  13.076  11.872
48491SOL    HW247371   6.163  13.072  12.023
48492SOL     OW47372   4.418  10.861   3.002
48492SOL    HW147373   4.436  10.802   2.928
48492SOL    HW247374   4.352  10.922   2.968
48493SOL     OW47375   3.534  11.854  13.378
48493SOL    HW147376   3.561  11.914  13.309
48493SOL    HW247377   3.578  11.771  13.357
48494SOL     OW47378   3.232  13.236   8.158
48494SOL    HW147379   3.252  13.291   8.234
48494SOL    HW247380   3.254  13.290   8.083
48495SOL     OW47381   9.584  12.487   3.261
48495SOL    HW147382   9.638  12.449   3.192
48495SOL    HW247383   9.540  12.411   3.301
48496SOL     OW47384   4.291   9.237  14.365
48496SOL    HW147385   4.354   9.170  14.390
48496SOL    HW247386   4.319   9.264  14.277
48497SOL     OW47387   9.318  13.128   5.298
48497SOL    HW147388   9.411  13.147   5.281
48497SOL    HW247389   9.312  13.126   5.394
48498SOL     OW47390   5.971   3.461  12.370
48498SOL    HW147391   5.956   3.554  12.388
48498SOL    HW247392   5.962   3.453  12.275
48499SOL     OW47393   7.118   4.171   4.259
48499SOL    HW147394   7.195   4.225   4.279
48499SOL    HW247395   7.147   4.116   4.185
48500SOL     OW47396   8.515   0.932   1.096
48500SOL    HW147397   8.437   0.879   1.078
48500SOL    HW247398   8.499   0.967   1.184
48501SOL     OW47399  12.754   8.681   5.739
48501SOL    HW147400  12.728   8.599   5.781
48501SOL    HW247401  12.836   8.705   5.782
48502SOL     OW47402   5.395  10.058   9.877
48502SOL    HW147403   5.463  10.007   9.923
48502SOL    HW247404   5.323  10.064   9.940
48503SOL     OW47405   7.776   4.696  13.565
48503SOL    HW147406   7.826   4.734  13.638
48503SOL    HW247407   7.692   4.742  13.567
48504SOL     OW47408   1.811  12.945  10.820
48504SOL    HW147409   1.905  12.936  10.807
48504SOL    HW247410   1.772  12.913  10.739
48505SOL     OW47411  11.784   6.419   2.023
48505SOL    HW147412  11.782   6.467   1.940
48505SOL    HW247413  11.781   6.327   1.997
48506SOL     OW47414   0.929   4.097   4.593
48506SOL    HW147415   0.988   4.146   4.536
48506SOL    HW247416   0.849   4.149   4.595
48507SOL     OW47417   6.484  11.277  14.525
48507SOL    HW147418   6.439  11.235  14.451
48507SOL    HW247419   6.442  11.363  14.532
48508SOL     OW47420  14.837   8.511   9.031
48508SOL    HW147421  14.754   8.488   8.989
48508SOL    HW247422   0.000   8.564   8.966
48509SOL     OW47423  14.416   4.851  12.549
48509SOL    HW147424  14.331   4.807  12.555
48509SOL    HW247425  14.404   4.934  12.595
48510SOL     OW47426  12.405   0.589  13.310
48510SOL    HW147427  12.425   0.500  13.283
48510SOL    HW247428  12.321   0.609  13.268
48511SOL     OW47429   1.502  13.246   8.550
48511SOL    HW147430   1.477  13.247   8.458
48511SOL    HW247431   1.583  13.297   8.554
48512SOL     OW47432   7.612  13.608   1.050
48512SOL    HW147433   7.671  13.683   1.042
48512SOL    HW247434   7.612  13.569   0.963
48513SOL     OW47435   0.237  14.753   9.925
48513SOL    HW147436   0.291  14.827   9.953
48513SOL    HW247437   0.299  14.690   9.890
48514SOL     OW47438   3.026  10.857  13.520
48514SOL    HW147439   2.991  10.934  13.566
48514SOL    HW247440   3.045  10.889  13.432
48515SOL     OW47441  12.336   2.211   3.712
48515SOL    HW147442  12.301   2.217   3.801
48515SOL    HW247443  12.262   2.180   3.659
48516SOL     OW47444   8.423  10.988   7.020
48516SOL    HW147445   8.397  10.897   7.008
48516SOL    HW247446   8.340  11.036   7.024
48517SOL     OW47447  14.422  12.768  12.279
48517SOL    HW147448  14.341  12.782  12.230
48517SOL    HW247449  14.417  12.678  12.309
48518SOL     OW47450   6.265  10.575   7.822
48518SOL    HW147451   6.268  10.501   7.761
48518SOL    HW247452   6.212  10.543   7.896
48519SOL     OW47453   0.678   2.099  14.751
48519SOL    HW147454   0.703   2.181  14.708
48519SOL    HW247455   0.618   2.057  14.689
48520SOL     OW47456   9.916  14.048   8.770
48520SOL    HW147457   9.879  14.013   8.688
48520SOL    HW247458   9.989  13.989   8.790
48521SOL     OW47459  10.523  13.931   7.105
48521SOL    HW147460  10.490  14.019   7.088
48521SOL    HW247461  10.551  13.933   7.196
48522SOL     OW47462   8.107  12.537  11.088
48522SOL    HW147463   8.059  12.467  11.132
48522SOL    HW247464   8.063  12.547  11.004
48523SOL     OW47465  13.187  13.400  10.519
48523SOL    HW147466  13.263  13.444  10.482
48523SOL    HW247467  13.160  13.458  10.591
48524SOL     OW47468   9.430   6.956   8.981
48524SOL    HW147469   9.508   6.901   8.971
48524SOL    HW247470   9.450   7.011   9.058
48525SOL     OW47471  13.017  13.520   5.328
48525SOL    HW147472  12.989  13.517   5.419
48525SOL    HW247473  13.040  13.612   5.312
48526SOL     OW47474  11.120   1.828   0.002
48526SOL    HW147475  11.185   1.814   0.071
48526SOL    HW247476  11.166   1.806  14.804
48527SOL     OW47477   7.669   8.342   9.714
48527SOL    HW147478   7.658   8.255   9.753
48527SOL    HW247479   7.734   8.385   9.769
48528SOL     OW47480   1.640  12.844   3.883
48528SOL    HW147481   1.724  12.881   3.854
48528SOL    HW247482   1.613  12.901   3.955
48529SOL     OW47483   6.046  11.073   1.724
48529SOL    HW147484   6.037  11.160   1.687
48529SOL    HW247485   5.996  11.076   1.805
48530SOL     OW47486  12.776   6.367  14.633
48530SOL    HW147487  12.716   6.294  14.615
48530SOL    HW247488  12.840   6.364  14.562
48531SOL     OW47489   8.961  12.164   2.239
48531SOL    HW147490   8.920  12.236   2.190
48531SOL    HW247491   8.954  12.191   2.331
48532SOL     OW47492   0.771  11.581  14.757
48532SOL    HW147493   0.782  11.539  14.672
48532SOL    HW247494   0.701  11.530  14.799
48533SOL     OW47495   8.832   7.220  13.186
48533SOL    HW147496   8.907   7.253  13.234
48533SOL    HW247497   8.762   7.215  13.251
48534SOL     OW47498   6.236   4.189   3.016
48534SOL    HW147499   6.235   4.170   3.109
48534SOL    HW247500   6.253   4.105   2.973
48535SOL     OW47501   5.484   5.714  14.543
48535SOL    HW147502   5.539   5.748  14.473
48535SOL    HW247503   5.395   5.735  14.516
48536SOL     OW47504   6.298  12.380   0.872
48536SOL    HW147505   6.289  12.474   0.856
48536SOL    HW247506   6.382  12.371   0.917
48537SOL     OW47507   7.050   2.881   1.956
48537SOL    HW147508   6.959   2.862   1.933
48537SOL    HW247509   7.101   2.839   1.886
48538SOL     OW47510  14.430  14.656   9.007
48538SOL    HW147511  14.443  14.706   9.088
48538SOL    HW247512  14.458  14.716   8.937
48539SOL     OW47513  11.406   9.911   6.862
48539SOL    HW147514  11.378   9.822   6.840
48539SOL    HW247515  11.498   9.901   6.888
48540SOL     OW47516   9.566   8.471  10.595
48540SOL    HW147517   9.498   8.404  10.592
48540SOL    HW247518   9.532   8.536  10.657
48541SOL     OW47519   1.485   8.594   2.475
48541SOL    HW147520   1.435   8.572   2.554
48541SOL    HW247521   1.504   8.687   2.484
48542SOL     OW47522   4.324   0.667   6.008
48542SOL    HW147523   4.393   0.621   6.056
48542SOL    HW247524   4.295   0.736   6.068
48543SOL     OW47525   8.553   2.593  10.378
48543SOL    HW147526   8.642   2.572  10.408
48543SOL    HW247527   8.527   2.669  10.430
48544SOL     OW47528   9.076   5.784   0.937
48544SOL    HW147529   9.053   5.718   0.870
48544SOL    HW247530   9.160   5.818   0.908
48545SOL     OW47531   3.958  14.533   4.414
48545SOL    HW147532   4.011  14.604   4.449
48545SOL    HW247533   4.007  14.454   4.437
48546SOL     OW47534   7.422   8.584  12.985
48546SOL    HW147535   7.494   8.544  12.936
48546SOL    HW247536   7.344   8.560  12.935
48547SOL     OW47537   7.701   7.515  13.582
48547SOL    HW147538   7.714   7.574  13.508
48547SOL    HW247539   7.608   7.494  13.580
48548SOL     OW47540  14.716   2.349  10.515
48548SOL    HW147541  14.735   2.265  10.557
48548SOL    HW247542  14.656   2.328  10.444
48549SOL     OW47543  10.491   7.234   0.078
48549SOL    HW147544  10.501   7.327   0.059
48549SOL    HW247545  10.445   7.231   0.162
48550SOL     OW47546  10.522   8.643   1.633
48550SOL    HW147547  10.550   8.559   1.599
48550SOL    HW247548  10.441   8.663   1.586
48551SOL     OW47549   4.412  13.134   4.456
48551SOL    HW147550   4.475  13.153   4.387
48551SOL    HW247551   4.342  13.085   4.412
48552SOL     OW47552   6.345   6.442  11.841
48552SOL    HW147553   6.269   6.400  11.882
48552SOL    HW247554   6.326   6.535  11.844
48553SOL     OW47555  12.907   8.066   8.392
48553SOL    HW147556  12.839   8.055   8.458
48553SOL    HW247557  12.924   8.160   8.390
48554SOL     OW47558  12.833  10.597  13.773
48554SOL    HW147559  12.777  10.672  13.789
48554SOL    HW247560  12.820  10.540  13.849
48555SOL     OW47561  11.591   1.014  10.234
48555SOL    HW147562  11.607   1.052  10.148
48555SOL    HW247563  11.588   1.089  10.293
48556SOL     OW47564   0.144  12.434  10.465
48556SOL    HW147565   0.221  12.427  10.522
48556SOL    HW247566   0.116  12.343  10.451
48557SOL     OW47567   0.930   9.792  11.872
48557SOL    HW147568   0.933   9.820  11.781
48557SOL    HW247569   0.842   9.817  11.902
48558SOL     OW47570   3.233   8.141  13.253
48558SOL    HW147571   3.211   8.219  13.202
48558SOL    HW247572   3.327   8.149  13.270
48559SOL     OW47573   7.541   1.025   2.454
48559SOL    HW147574   7.465   1.080   2.434
48559SOL    HW247575   7.529   1.001   2.546
48560SOL     OW47576   3.345   4.190  11.441
48560SOL    HW147577   3.293   4.249  11.496
48560SOL    HW247578   3.313   4.102  11.463
48561SOL     OW47579   7.696  11.759   4.183
48561SOL    HW147580   7.663  11.849   4.190
48561SOL    HW247581   7.720  11.735   4.273
48562SOL     OW47582   1.364   4.869   7.332
48562SOL    HW147583   1.399   4.937   7.390
48562SOL    HW247584   1.409   4.883   7.249
48563SOL     OW47585  12.423   5.634   5.014
48563SOL    HW147586  12.364   5.583   5.069
48563SOL    HW247587  12.436   5.716   5.061
48564SOL     OW47588   0.464   1.859   9.551
48564SOL    HW147589   0.539   1.905   9.514
48564SOL    HW247590   0.418   1.823   9.475
48565SOL     OW47591   0.174  13.442   0.159
48565SOL    HW147592   0.208  13.363   0.201
48565SOL    HW247593   0.252  13.491   0.133
48566SOL     OW47594  13.817  11.839   0.533
48566SOL    HW147595  13.898  11.838   0.584
48566SOL    HW247596  13.824  11.916   0.477
48567SOL     OW47597   6.317   8.147  11.691
48567SOL    HW147598   6.285   8.103  11.770
48567SOL    HW247599   6.299   8.086  11.620
48568SOL     OW47600   0.886  12.303   5.010
48568SOL    HW147601   0.895  12.398   5.017
48568SOL    HW247602   0.809  12.290   4.954
48569SOL     OW47603  12.363   9.273  12.998
48569SOL    HW147604  12.414   9.202  13.037
48569SOL    HW247605  12.375   9.347  13.057
48570SOL     OW47606  12.113   9.225   5.442
48570SOL    HW147607  12.121   9.320   5.434
48570SOL    HW247608  12.111   9.208   5.536
48571SOL     OW47609   2.455   3.631   1.672
48571SOL    HW147610   2.458   3.726   1.683
48571SOL    HW247611   2.462   3.617   1.578
48572SOL     OW47612   6.142   9.449   1.205
48572SOL    HW147613   6.202   9.466   1.132
48572SOL    HW247614   6.114   9.358   1.193
48573SOL     OW47615   8.401   5.474  12.488
48573SOL    HW147616   8.426   5.446  12.575
48573SOL    HW247617   8.435   5.563  12.481
48574SOL     OW47618   2.673  13.086   1.658
48574SOL    HW147619   2.731  13.146   1.611
48574SOL    HW247620   2.633  13.139   1.727
48575SOL     OW47621   0.717   7.366   8.201
48575SOL    HW147622   0.775   7.443   8.199
48575SOL    HW247623   0.755   7.309   8.268
48576SOL     OW47624   7.410   7.874   8.163
48576SOL    HW147625   7.375   7.952   8.207
48576SOL    HW247626   7.347   7.855   8.094
48577SOL     OW47627   9.424   6.390   3.468
48577SOL    HW147628   9.367   6.369   3.394
48577SOL    HW247629   9.475   6.310   3.481
48578SOL     OW47630  13.263   6.147   3.677
48578SOL    HW147631  13.252   6.198   3.757
48578SOL    HW247632  13.288   6.060   3.708
48579SOL     OW47633   8.774   4.904  11.802
48579SOL    HW147634   8.810   4.992  11.813
48579SOL    HW247635   8.850   4.846  11.807
48580SOL     OW47636   7.889  12.988  10.039
48580SOL    HW147637   7.827  12.941   9.982
48580SOL    HW247638   7.855  12.973  10.128
48581SOL     OW47639   7.516   5.099   8.136
48581SOL    HW147640   7.603   5.060   8.128
48581SOL    HW247641   7.522   5.155   8.213
48582SOL     OW47642   1.113  12.019   3.162
48582SOL    HW147643   1.164  11.999   3.240
48582SOL    HW247644   1.025  11.987   3.182
48583SOL     OW47645  11.182   0.431  11.014
48583SOL    HW147646  11.253   0.368  11.007
48583SOL    HW247647  11.211   0.507  10.963
48584SOL     OW47648   2.734   3.744   7.026
48584SOL    HW147649   2.654   3.798   7.023
48584SOL    HW247650   2.753   3.726   6.934
48585SOL     OW47651  12.479  12.680   4.916
48585SOL    HW147652  12.420  12.684   4.991
48585SOL    HW247653  12.484  12.587   4.895
48586SOL     OW47654   3.673  11.904   7.760
48586SOL    HW147655   3.585  11.937   7.779
48586SOL    HW247656   3.661  11.809   7.752
48587SOL     OW47657   2.151   1.195   2.230
48587SOL    HW147658   2.216   1.233   2.289
48587SOL    HW247659   2.202   1.141   2.169
48588SOL     OW47660   5.479   5.437   3.691
48588SOL    HW147661   5.480   5.383   3.770
48588SOL    HW247662   5.566   5.478   3.688
48589SOL     OW47663  14.756  14.380  12.459
48589SOL    HW147664  14.813  14.366  12.384
48589SOL    HW247665  14.749  14.475  12.467
48590SOL     OW47666   7.652  13.850   5.204
48590SOL    HW147667   7.583  13.784   5.201
48590SOL    HW247668   7.729  13.804   5.238
48591SOL     OW47669  12.799  13.213   1.548
48591SOL    HW147670  12.784  13.199   1.455
48591SOL    HW247671  12.757  13.297   1.566
48592SOL     OW47672   5.261  12.323  10.754
48592SOL    HW147673   5.221  12.245  10.716
48592SOL    HW247674   5.220  12.396  10.707
48593SOL     OW47675  10.368  14.342   0.110
48593SOL    HW147676  10.329  14.325   0.196
48593SOL    HW247677  10.419  14.264   0.091
48594SOL     OW47678   7.038  14.507   8.258
48594SOL    HW147679   7.077  14.500   8.170
48594SOL    HW247680   7.101  14.464   8.316
48595SOL     OW47681   5.010   5.290  12.240
48595SOL    HW147682   4.915   5.288  12.229
48595SOL    HW247683   5.040   5.360  12.182
48596SOL     OW47684   1.387   1.990   6.147
48596SOL    HW147685   1.360   1.939   6.223
48596SOL    HW247686   1.306   2.032   6.117
48597SOL     OW47687  11.892   2.084   9.937
48597SOL    HW147688  11.903   2.179   9.929
48597SOL    HW247689  11.829   2.060   9.869
48598SOL     OW47690   8.642   4.542  11.982
48598SOL    HW147691   8.694   4.473  11.941
48598SOL    HW247692   8.638   4.612  11.917
48599SOL     OW47693   9.056  12.307   3.638
48599SOL    HW147694   9.107  12.252   3.697
48599SOL    HW247695   9.048  12.391   3.684
48600SOL     OW47696   1.075   7.054   5.141
48600SOL    HW147697   1.035   7.131   5.099
48600SOL    HW247698   1.056   7.065   5.234
48601SOL     OW47699   2.863  13.704   7.843
48601SOL    HW147700   2.933  13.644   7.817
48601SOL    HW247701   2.800  13.699   7.770
48602SOL     OW47702  11.862   8.095  14.769
48602SOL    HW147703  11.940   8.086  14.823
48602SOL    HW247704  11.895   8.105  14.680
48603SOL     OW47705  10.303   9.069   7.065
48603SOL    HW147706  10.296   9.065   6.969
48603SOL    HW247707  10.215   9.051   7.097
48604SOL     OW47708  14.460  14.502  10.467
48604SOL    HW147709  14.542  14.537  10.434
48604SOL    HW247710  14.432  14.564  10.534
48605SOL     OW47711   3.598   0.616   0.361
48605SOL    HW147712   3.575   0.671   0.436
48605SOL    HW247713   3.693   0.605   0.367
48606SOL     OW47714  10.623  12.633  12.411
48606SOL    HW147715  10.646  12.643  12.319
48606SOL    HW247716  10.676  12.698  12.456
48607SOL     OW47717  14.220   5.153   9.082
48607SOL    HW147718  14.227   5.219   9.013
48607SOL    HW247719  14.155   5.189   9.143
48608SOL     OW47720   3.996  13.194   5.510
48608SOL    HW147721   3.905  13.222   5.502
48608SOL    HW247722   4.030  13.246   5.583
48609SOL     OW47723   9.782   1.687  11.026
48609SOL    HW147724   9.790   1.599  11.063
48609SOL    HW247725   9.757   1.672  10.935
48610SOL     OW47726   4.353   5.479  13.650
48610SOL    HW147727   4.348   5.411  13.582
48610SOL    HW247728   4.268   5.523  13.646
48611SOL     OW47729  12.349   6.738   8.172
48611SOL    HW147730  12.423   6.750   8.232
48611SOL    HW247731  12.374   6.662   8.119
48612SOL     OW47732   0.449   9.495   9.065
48612SOL    HW147733   0.538   9.514   9.035
48612SOL    HW247734   0.438   9.401   9.050
48613SOL     OW47735  13.863   6.139   1.470
48613SOL    HW147736  13.957   6.153   1.481
48613SOL    HW247737  13.827   6.151   1.558
48614SOL     OW47738  12.141   3.487   2.012
48614SOL    HW147739  12.185   3.403   2.001
48614SOL    HW247740  12.207   3.552   1.987
48615SOL     OW47741   9.098  14.106   5.768
48615SOL    HW147742   9.032  14.140   5.829
48615SOL    HW247743   9.180  14.144   5.798
48616SOL     OW47744   9.237  12.778   9.645
48616SOL    HW147745   9.173  12.778   9.574
48616SOL    HW247746   9.293  12.853   9.626
48617SOL     OW47747   4.163  10.240   0.338
48617SOL    HW147748   4.169  10.324   0.384
48617SOL    HW247749   4.117  10.183   0.400
48618SOL     OW47750   2.607   8.417   7.574
48618SOL    HW147751   2.572   8.478   7.510
48618SOL    HW247752   2.538   8.411   7.641
48619SOL     OW47753   7.669  11.815   6.160
48619SOL    HW147754   7.694  11.763   6.237
48619SOL    HW247755   7.587  11.776   6.131
48620SOL     OW47756  14.293  10.185   4.823
48620SOL    HW147757  14.281  10.260   4.764
48620SOL    HW247758  14.205  10.162   4.852
48621SOL     OW47759  10.630  11.507   9.845
48621SOL    HW147760  10.545  11.550   9.856
48621SOL    HW247761  10.610  11.414   9.855
48622SOL     OW47762   1.114   0.707   2.474
48622SOL    HW147763   1.160   0.788   2.494
48622SOL    HW247764   1.089   0.715   2.382
48623SOL     OW47765   4.256   1.897   6.261
48623SOL    HW147766   4.206   1.874   6.339
48623SOL    HW247767   4.325   1.955   6.293
48624SOL     OW47768  13.101   3.282   3.370
48624SOL    HW147769  13.105   3.369   3.328
48624SOL    HW247770  13.010   3.275   3.400
48625SOL     OW47771   2.150  13.003   6.034
48625SOL    HW147772   2.142  13.057   6.112
48625SOL    HW247773   2.084  12.934   6.045
48626SOL     OW47774   6.606   1.565   6.370
48626SOL    HW147775   6.688   1.614   6.378
48626SOL    HW247776   6.609   1.503   6.443
48627SOL     OW47777   1.161   5.569   8.243
48627SOL    HW147778   1.106   5.504   8.198
48627SOL    HW247779   1.099   5.623   8.291
48628SOL     OW47780   7.925   2.252   3.127
48628SOL    HW147781   7.987   2.297   3.184
48628SOL    HW247782   7.841   2.295   3.145
48629SOL     OW47783   5.802   3.311   5.701
48629SOL    HW147784   5.716   3.332   5.664
48629SOL    HW247785   5.782   3.268   5.784
48630SOL     OW47786   9.306   9.895  14.128
48630SOL    HW147787   9.370   9.956  14.166
48630SOL    HW247788   9.288   9.931  14.041
48631SOL     OW47789   6.836   9.070   4.458
48631SOL    HW147790   6.921   9.033   4.437
48631SOL    HW247791   6.846   9.164   4.446
48632SOL     OW47792   6.651   9.882  12.380
48632SOL    HW147793   6.641   9.926  12.465
48632SOL    HW247794   6.576   9.912  12.328
48633SOL     OW47795   7.630  14.063  14.343
48633SOL    HW147796   7.602  14.084  14.254
48633SOL    HW247797   7.558  14.013  14.380
48634SOL     OW47798  13.975  11.698  11.953
48634SOL    HW147799  13.978  11.726  11.862
48634SOL    HW247800  14.027  11.764  12.000
48635SOL     OW47801   4.983  10.910  11.350
48635SOL    HW147802   5.008  10.875  11.264
48635SOL    HW247803   4.889  10.894  11.356
48636SOL     OW47804   4.583  12.599  12.676
48636SOL    HW147805   4.522  12.610  12.749
48636SOL    HW247806   4.627  12.516  12.694
48637SOL     OW47807  11.341   7.738   0.685
48637SOL    HW147808  11.393   7.699   0.755
48637SOL    HW247809  11.385   7.711   0.605
48638SOL     OW47810   6.959   3.794   6.720
48638SOL    HW147811   6.909   3.813   6.642
48638SOL    HW247812   6.939   3.703   6.741
48639SOL     OW47813   1.754  13.344   8.674
48639SOL    HW147814   1.782  13.319   8.762
48639SOL    HW247815   1.835  13.349   8.623
48640SOL     OW47816   9.238  11.596   9.241
48640SOL    HW147817   9.201  11.658   9.304
48640SOL    HW247818   9.315  11.560   9.284
48641SOL     OW47819   3.448  12.503   7.086
48641SOL    HW147820   3.526  12.461   7.122
48641SOL    HW247821   3.405  12.542   7.162
48642SOL     OW47822  11.202   1.717  11.537
48642SOL    HW147823  11.208   1.629  11.502
48642SOL    HW247824  11.158   1.707  11.622
48643SOL     OW47825  12.639   5.509  13.884
48643SOL    HW147826  12.712   5.543  13.935
48643SOL    HW247827  12.655   5.539  13.795
48644SOL     OW47828  14.666   1.187   4.660
48644SOL    HW147829  14.714   1.175   4.578
48644SOL    HW247830  14.583   1.141   4.645
48645SOL     OW47831   8.523   1.448   4.501
48645SOL    HW147832   8.457   1.478   4.564
48645SOL    HW247833   8.601   1.499   4.523
48646SOL     OW47834   0.834  10.732   3.905
48646SOL    HW147835   0.873  10.690   3.981
48646SOL    HW247836   0.781  10.664   3.864
48647SOL     OW47837   0.147   6.412   7.178
48647SOL    HW147838   0.095   6.421   7.098
48647SOL    HW247839   0.125   6.490   7.230
48648SOL     OW47840  14.508   2.052   5.351
48648SOL    HW147841  14.550   1.985   5.297
48648SOL    HW247842  14.470   2.004   5.424
48649SOL     OW47843   0.312   0.329  12.534
48649SOL    HW147844   0.377   0.377  12.482
48649SOL    HW247845   0.363   0.284  12.601
48650SOL     OW47846  13.737   6.752   3.298
48650SOL    HW147847  13.785   6.682   3.254
48650SOL    HW247848  13.767   6.747   3.389
48651SOL     OW47849   1.907   5.162   6.290
48651SOL    HW147850   1.969   5.093   6.315
48651SOL    HW247851   1.829   5.115   6.263
48652SOL     OW47852   0.448  12.429   2.589
48652SOL    HW147853   0.462  12.445   2.682
48652SOL    HW247854   0.504  12.492   2.545
48653SOL     OW47855   7.367   5.572   5.612
48653SOL    HW147856   7.314   5.603   5.538
48653SOL    HW247857   7.437   5.637   5.621
48654SOL     OW47858   7.172   8.751  11.509
48654SOL    HW147859   7.187   8.782  11.599
48654SOL    HW247860   7.236   8.798  11.457
48655SOL     OW47861   3.739   8.386  10.984
48655SOL    HW147862   3.666   8.396  11.045
48655SOL    HW247863   3.746   8.292  10.969
48656SOL     OW47864   4.432  14.785  12.608
48656SOL    HW147865   4.398  14.701  12.639
48656SOL    HW247866   4.439  14.774  12.513
48657SOL     OW47867  13.697  10.423   3.742
48657SOL    HW147868  13.737  10.497   3.787
48657SOL    HW247869  13.703  10.445   3.649
48658SOL     OW47870  14.870   4.383   2.020
48658SOL    HW147871   0.033   4.357   1.939
48658SOL    HW247872  14.785   4.341   2.015
48659SOL     OW47873   8.227  10.597   7.436
48659SOL    HW147874   8.308  10.648   7.435
48659SOL    HW247875   8.188  10.617   7.521
48660SOL     OW47876   7.982   1.802   2.280
48660SOL    HW147877   7.999   1.816   2.187
48660SOL    HW247878   8.021   1.716   2.298
48661SOL     OW47879   7.977   4.192   4.529
48661SOL    HW147880   7.881   4.187   4.532
48661SOL    HW247881   8.002   4.214   4.619
48662SOL     OW47882   5.682   9.492   9.186
48662SOL    HW147883   5.672   9.457   9.098
48662SOL    HW247884   5.604   9.544   9.202
48663SOL     OW47885   5.462   4.458   9.466
48663SOL    HW147886   5.557   4.465   9.480
48663SOL    HW247887   5.428   4.544   9.489
48664SOL     OW47888   1.314   7.605  12.770
48664SOL    HW147889   1.354   7.518  12.775
48664SOL    HW247890   1.269   7.606  12.685
48665SOL     OW47891   1.125  13.847   7.253
48665SOL    HW147892   1.093  13.925   7.297
48665SOL    HW247893   1.101  13.859   7.161
48666SOL     OW47894  14.305   5.858  13.640
48666SOL    HW147895  14.299   5.950  13.612
48666SOL    HW247896  14.239   5.813  13.588
48667SOL     OW47897  13.690  10.896   4.448
48667SOL    HW147898  13.695  10.804   4.475
48667SOL    HW247899  13.621  10.898   4.381
48668SOL     OW47900   8.083  13.666   2.610
48668SOL    HW147901   8.040  13.701   2.532
48668SOL    HW247902   8.070  13.572   2.605
48669SOL     OW47903   5.517   9.178   4.842
48669SOL    HW147904   5.549   9.100   4.795
48669SOL    HW247905   5.497   9.146   4.930
48670SOL     OW47906   0.122   2.001   0.398
48670SOL    HW147907   0.217   1.994   0.400
48670SOL    HW247908   0.105   2.095   0.398
48671SOL     OW47909   4.208   9.948   7.018
48671SOL    HW147910   4.279   9.975   7.076
48671SOL    HW247911   4.162  10.028   6.995
48672SOL     OW47912  13.523   5.571   4.435
48672SOL    HW147913  13.502   5.617   4.354
48672SOL    HW247914  13.530   5.479   4.410
48673SOL     OW47915   5.448  12.883   3.849
48673SOL    HW147916   5.495  12.915   3.772
48673SOL    HW247917   5.404  12.803   3.818
48674SOL     OW47918   8.795   7.211  14.204
48674SOL    HW147919   8.780   7.118  14.215
48674SOL    HW247920   8.857   7.234  14.273
48675SOL     OW47921   4.107   6.552  10.146
48675SOL    HW147922   4.167   6.626  10.159
48675SOL    HW247923   4.020   6.589  10.161
48676SOL     OW47924   8.983   6.812   9.367
48676SOL    HW147925   9.002   6.889   9.421
48676SOL    HW247926   8.909   6.839   9.312
48677SOL     OW47927  13.677  11.826   4.698
48677SOL    HW147928  13.595  11.873   4.678
48677SOL    HW247929  13.702  11.856   4.785
48678SOL     OW47930   6.515  12.373   9.667
48678SOL    HW147931   6.491  12.332   9.749
48678SOL    HW247932   6.512  12.467   9.685
48679SOL     OW47933   9.784   3.174  11.095
48679SOL    HW147934   9.851   3.220  11.045
48679SOL    HW247935   9.742   3.117  11.030
48680SOL     OW47936   4.134   1.790   8.553
48680SOL    HW147937   4.183   1.772   8.633
48680SOL    HW247938   4.046   1.812   8.584
48681SOL     OW47939   3.465   3.001  13.371
48681SOL    HW147940   3.470   2.992  13.275
48681SOL    HW247941   3.427   3.087  13.385
48682SOL     OW47942   0.213   8.968  13.715
48682SOL    HW147943   0.128   9.004  13.742
48682SOL    HW247944   0.269   8.979  13.792
48683SOL     OW47945   5.560  10.036  10.654
48683SOL    HW147946   5.483   9.984  10.673
48683SOL    HW247947   5.624  10.012  10.721
48684SOL     OW47948  10.431   8.400  10.529
48684SOL    HW147949  10.445   8.310  10.498
48684SOL    HW247950  10.519   8.436  10.539
48685SOL     OW47951   1.898   3.158   2.827
48685SOL    HW147952   1.981   3.119   2.852
48685SOL    HW247953   1.922   3.241   2.786
48686SOL     OW47954   3.773  10.498   5.625
48686SOL    HW147955   3.781  10.432   5.555
48686SOL    HW247956   3.680  10.521   5.625
48687SOL     OW47957  11.989  12.720   5.080
48687SOL    HW147958  11.899  12.719   5.046
48687SOL    HW247959  11.984  12.773   5.159
48688SOL     OW47960  11.012   9.594   2.612
48688SOL    HW147961  10.926   9.595   2.654
48688SOL    HW247962  11.002   9.650   2.535
48689SOL     OW47963  12.848  12.449   6.203
48689SOL    HW147964  12.942  12.465   6.195
48689SOL    HW247965  12.838  12.355   6.190
48690SOL     OW47966   9.219   5.435   4.051
48690SOL    HW147967   9.228   5.423   3.957
48690SOL    HW247968   9.224   5.347   4.088
48691SOL     OW47969  10.823   6.483  13.992
48691SOL    HW147970  10.876   6.403  13.995
48691SOL    HW247971  10.825   6.516  14.082
48692SOL     OW47972   1.635   7.465   5.094
48692SOL    HW147973   1.642   7.513   5.176
48692SOL    HW247974   1.680   7.382   5.110
48693SOL     OW47975   1.972   8.481   8.740
48693SOL    HW147976   2.040   8.540   8.775
48693SOL    HW247977   1.955   8.420   8.812
48694SOL     OW47978   1.473   6.212   8.263
48694SOL    HW147979   1.484   6.147   8.194
48694SOL    HW247980   1.380   6.234   8.261
48695SOL     OW47981   8.199  10.358  13.978
48695SOL    HW147982   8.133  10.325  13.918
48695SOL    HW247983   8.189  10.454  13.974
48696SOL     OW47984   7.540   4.887  13.507
48696SOL    HW147985   7.532   4.906  13.601
48696SOL    HW247986   7.555   4.972  13.466
48697SOL     OW47987   1.633   2.370   7.520
48697SOL    HW147988   1.608   2.444   7.465
48697SOL    HW247989   1.571   2.301   7.497
48698SOL     OW47990   0.904   0.864   4.383
48698SOL    HW147991   0.903   0.876   4.288
48698SOL    HW247992   0.985   0.906   4.411
48699SOL     OW47993   6.838   4.966  14.452
48699SOL    HW147994   6.915   4.925  14.491
48699SOL    HW247995   6.865   4.988  14.363
48700SOL     OW47996   4.439  13.022   3.808
48700SOL    HW147997   4.465  13.024   3.900
48700SOL    HW247998   4.518  13.047   3.760
48701SOL     OW47999  12.947  10.538   1.681
48701SOL    HW148000  12.917  10.505   1.597
48701SOL    HW248001  13.043  10.535   1.676
48702SOL     OW48002   7.203   7.201   8.154
48702SOL    HW148003   7.136   7.133   8.148
48702SOL    HW248004   7.161   7.279   8.117
48703SOL     OW48005   5.356   8.161   4.352
48703SOL    HW148006   5.403   8.202   4.279
48703SOL    HW248007   5.277   8.215   4.362
48704SOL     OW48008   7.883   0.191   2.879
48704SOL    HW148009   7.897   0.265   2.820
48704SOL    HW248010   7.916   0.115   2.830
48705SOL     OW48011   2.884  10.570   7.654
48705SOL    HW148012   2.836  10.500   7.609
48705SOL    HW248013   2.822  10.602   7.720
48706SOL     OW48014   4.621  11.559  10.347
48706SOL    HW148015   4.672  11.631  10.384
48706SOL    HW248016   4.545  11.551  10.405
48707SOL     OW48017   2.656   1.774   2.420
48707SOL    HW148018   2.647   1.734   2.334
48707SOL    HW248019   2.580   1.832   2.428
48708SOL     OW48020  11.076   6.669   2.675
48708SOL    HW148021  11.130   6.748   2.675
48708SOL    HW248022  11.077   6.638   2.585
48709SOL     OW48023  13.699   9.704  12.171
48709SOL    HW148024  13.617   9.695  12.220
48709SOL    HW248025  13.763   9.656  12.223
48710SOL     OW48026   9.563  12.217   5.897
48710SOL    HW148027   9.562  12.156   5.824
48710SOL    HW248028   9.471  12.238   5.913
48711SOL     OW48029  11.576   5.411   3.084
48711SOL    HW148030  11.577   5.501   3.114
48711SOL    HW248031  11.664   5.377   3.105
48712SOL     OW48032   5.220   1.819   5.826
48712SOL    HW148033   5.282   1.790   5.758
48712SOL    HW248034   5.249   1.774   5.905
48713SOL     OW48035  14.168  14.430   5.654
48713SOL    HW148036  14.096  14.480   5.615
48713SOL    HW248037  14.184  14.473   5.737
48714SOL     OW48038   3.329  14.415   3.971
48714SOL    HW148039   3.256  14.356   3.988
48714SOL    HW248040   3.387  14.403   4.046
48715SOL     OW48041   5.692  13.413  13.995
48715SOL    HW148042   5.641  13.483  14.035
48715SOL    HW248043   5.782  13.430  14.023
48716SOL     OW48044   2.890   2.866  11.819
48716SOL    HW148045   2.927   2.943  11.776
48716SOL    HW248046   2.827   2.832  11.756
48717SOL     OW48047   0.602   8.652   3.182
48717SOL    HW148048   0.686   8.683   3.145
48717SOL    HW248049   0.612   8.663   3.276
48718SOL     OW48050   7.852   0.359   0.061
48718SOL    HW148051   7.945   0.337   0.068
48718SOL    HW248052   7.808   0.274   0.051
48719SOL     OW48053   8.377  14.506   3.552
48719SOL    HW148054   8.300  14.450   3.564
48719SOL    HW248055   8.341  14.593   3.532
48720SOL     OW48056   8.485  11.078   5.258
48720SOL    HW148057   8.501  10.984   5.249
48720SOL    HW248058   8.565  11.112   5.298
48721SOL     OW48059  14.373   5.906   8.688
48721SOL    HW148060  14.280   5.913   8.669
48721SOL    HW248061  14.386   5.955   8.769
48722SOL     OW48062   2.757   6.596  13.786
48722SOL    HW148063   2.744   6.501  13.781
48722SOL    HW248064   2.748   6.626  13.696
48723SOL     OW48065   2.194   6.871  12.165
48723SOL    HW148066   2.241   6.952  12.187
48723SOL    HW248067   2.142   6.894  12.089
48724SOL     OW48068   6.878  13.482   9.475
48724SOL    HW148069   6.857  13.518   9.562
48724SOL    HW248070   6.973  13.477   9.473
48725SOL     OW48071   1.263   3.660   8.419
48725SOL    HW148072   1.181   3.613   8.403
48725SOL    HW248073   1.236   3.750   8.436
48726SOL     OW48074   2.705   5.616  11.978
48726SOL    HW148075   2.712   5.542  11.917
48726SOL    HW248076   2.684   5.691  11.922
48727SOL     OW48077   0.906   3.958   9.872
48727SOL    HW148078   0.951   3.986   9.952
48727SOL    HW248079   0.825   3.917   9.904
48728SOL     OW48080   4.152   1.764   6.868
48728SOL    HW148081   4.095   1.731   6.937
48728SOL    HW248082   4.220   1.813   6.914
48729SOL     OW48083  14.382   2.250   9.872
48729SOL    HW148084  14.385   2.178   9.809
48729SOL    HW248085  14.304   2.300   9.848
48730SOL     OW48086   1.176   1.009   9.542
48730SOL    HW148087   1.173   1.103   9.557
48730SOL    HW248088   1.259   0.981   9.580
48731SOL     OW48089  12.779  14.505   9.090
48731SOL    HW148090  12.685  14.519   9.079
48731SOL    HW248091  12.803  14.562   9.163
48732SOL     OW48092   2.681   1.055   0.769
48732SOL    HW148093   2.652   0.965   0.783
48732SOL    HW248094   2.771   1.057   0.800
48733SOL     OW48095   9.901   8.250   4.998
48733SOL    HW148096   9.924   8.278   4.909
48733SOL    HW248097   9.938   8.163   5.006
48734SOL     OW48098   8.592   9.306   7.204
48734SOL    HW148099   8.574   9.382   7.260
48734SOL    HW248100   8.683   9.282   7.225
48735SOL     OW48101   4.212  14.092   6.899
48735SOL    HW148102   4.248  14.028   6.960
48735SOL    HW248103   4.174  14.160   6.954
48736SOL     OW48104  12.872   4.799   0.914
48736SOL    HW148105  12.965   4.801   0.891
48736SOL    HW248106  12.843   4.890   0.905
48737SOL     OW48107  13.332   0.533  13.103
48737SOL    HW148108  13.270   0.497  13.040
48737SOL    HW248109  13.283   0.541  13.184
48738SOL     OW48110  12.238  11.209   1.898
48738SOL    HW148111  12.159  11.242   1.856
48738SOL    HW248112  12.290  11.288   1.915
48739SOL     OW48113   4.846   2.115   3.534
48739SOL    HW148114   4.764   2.078   3.501
48739SOL    HW248115   4.901   2.124   3.456
48740SOL     OW48116   7.234  12.409   3.171
48740SOL    HW148117   7.239  12.486   3.115
48740SOL    HW248118   7.140  12.387   3.173
48741SOL     OW48119   0.727   4.932   0.771
48741SOL    HW148120   0.652   4.990   0.773
48741SOL    HW248121   0.690   4.844   0.780
48742SOL     OW48122   2.524   8.142   9.107
48742SOL    HW148123   2.461   8.129   9.179
48742SOL    HW248124   2.577   8.062   9.108
48743SOL     OW48125   7.953  12.094  11.959
48743SOL    HW148126   7.998  12.054  12.033
48743SOL    HW248127   7.868  12.120  11.994
48744SOL     OW48128  10.631   4.182   4.335
48744SOL    HW148129  10.722   4.208   4.346
48744SOL    HW248130  10.581   4.261   4.355
48745SOL     OW48131  10.692   8.009   6.451
48745SOL    HW148132  10.698   7.999   6.546
48745SOL    HW248133  10.748   7.940   6.416
48746SOL     OW48134   8.734   9.390   4.896
48746SOL    HW148135   8.701   9.415   4.809
48746SOL    HW248136   8.676   9.321   4.925
48747SOL     OW48137  10.716  14.510   2.423
48747SOL    HW148138  10.728  14.485   2.515
48747SOL    HW248139  10.716  14.427   2.376
48748SOL     OW48140  11.781   7.331  14.347
48748SOL    HW148141  11.720   7.304  14.416
48748SOL    HW248142  11.753   7.420  14.324
48749SOL     OW48143  11.907   8.263   7.507
48749SOL    HW148144  11.925   8.341   7.456
48749SOL    HW248145  11.944   8.281   7.593
48750SOL     OW48146  12.279   7.801  10.734
48750SOL    HW148147  12.197   7.775  10.775
48750SOL    HW248148  12.285   7.895  10.750
48751SOL     OW48149   4.927  13.897   0.195
48751SOL    HW148150   4.941  13.971   0.254
48751SOL    HW248151   4.870  13.932   0.126
48752SOL     OW48152   7.651   4.406   9.483
48752SOL    HW148153   7.703   4.417   9.563
48752SOL    HW248154   7.628   4.313   9.481
48753SOL     OW48155   9.841   8.478   0.008
48753SOL    HW148156   9.849   8.570  14.864
48753SOL    HW248157   9.748   8.467   0.030
48754SOL     OW48158   4.674  14.448   8.702
48754SOL    HW148159   4.640  14.487   8.782
48754SOL    HW248160   4.757  14.491   8.687
48755SOL     OW48161   5.824   9.136   0.004
48755SOL    HW148162   5.732   9.155  14.865
48755SOL    HW248163   5.870   9.217  14.864
48756SOL     OW48164   7.253   0.485   0.437
48756SOL    HW148165   7.334   0.498   0.387
48756SOL    HW248166   7.282   0.448   0.520
48757SOL     OW48167   1.786  12.971  12.734
48757SOL    HW148168   1.840  12.920  12.674
48757SOL    HW248169   1.839  12.980  12.814
48758SOL     OW48170   3.766   0.661   2.307
48758SOL    HW148171   3.854   0.642   2.338
48758SOL    HW248172   3.725   0.708   2.380
48759SOL     OW48173   7.292  10.114  11.398
48759SOL    HW148174   7.369  10.071  11.435
48759SOL    HW248175   7.292  10.087  11.306
48760SOL     OW48176  10.905   8.857   1.873
48760SOL    HW148177  10.810   8.845   1.872
48760SOL    HW248178  10.918   8.952   1.862
48761SOL     OW48179  13.469   9.812   7.800
48761SOL    HW148180  13.405   9.843   7.736
48761SOL    HW248181  13.499   9.890   7.846
48762SOL     OW48182  11.393   2.064   4.518
48762SOL    HW148183  11.474   2.101   4.483
48762SOL    HW248184  11.421   2.018   4.597
48763SOL     OW48185  10.751   0.241   5.021
48763SOL    HW148186  10.767   0.242   5.115
48763SOL    HW248187  10.777   0.328   4.991
48764SOL     OW48188   3.146   7.805  12.867
48764SOL    HW148189   3.071   7.758  12.832
48764SOL    HW248190   3.186   7.846  12.791
48765SOL     OW48191   4.732   9.164  14.175
48765SOL    HW148192   4.802   9.184  14.114
48765SOL    HW248193   4.689   9.248  14.191
48766SOL     OW48194   9.851   1.634   8.477
48766SOL    HW148195   9.862   1.729   8.478
48766SOL    HW248196   9.870   1.607   8.567
48767SOL     OW48197  14.702   1.988  11.288
48767SOL    HW148198  14.713   2.055  11.356
48767SOL    HW248199  14.608   1.970  11.288
48768SOL     OW48200  10.100  11.063  13.182
48768SOL    HW148201  10.038  11.136  13.181
48768SOL    HW248202  10.186  11.104  13.184
48769SOL     OW48203   4.072  10.072  14.158
48769SOL    HW148204   4.113  10.076  14.244
48769SOL    HW248205   4.145  10.061  14.097
48770SOL     OW48206   1.229   4.044   4.679
48770SOL    HW148207   1.139   4.038   4.710
48770SOL    HW248208   1.249   4.138   4.680
48771SOL     OW48209   2.748  13.592   4.185
48771SOL    HW148210   2.821  13.631   4.233
48771SOL    HW248211   2.677  13.655   4.195
48772SOL     OW48212  12.663   5.947   5.795
48772SOL    HW148213  12.623   5.920   5.878
48772SOL    HW248214  12.674   6.042   5.804
48773SOL     OW48215   9.576  10.706   1.582
48773SOL    HW148216   9.546  10.732   1.495
48773SOL    HW248217   9.615  10.619   1.569
48774SOL     OW48218   9.530   0.745   6.630
48774SOL    HW148219   9.565   0.769   6.544
48774SOL    HW248220   9.444   0.708   6.613
48775SOL     OW48221   0.850  12.009   1.412
48775SOL    HW148222   0.882  11.966   1.491
48775SOL    HW248223   0.861  11.944   1.343
48776SOL     OW48224   9.331   4.863   8.240
48776SOL    HW148225   9.258   4.921   8.218
48776SOL    HW248226   9.332   4.861   8.336
48777SOL     OW48227   7.429  10.125   7.704
48777SOL    HW148228   7.337  10.148   7.690
48777SOL    HW248229   7.449  10.061   7.636
48778SOL     OW48230  12.005   2.243  14.503
48778SOL    HW148231  11.938   2.209  14.444
48778SOL    HW248232  12.080   2.184  14.491
48779SOL     OW48233   6.378   4.021  11.544
48779SOL    HW148234   6.363   4.022  11.450
48779SOL    HW248235   6.464   3.982  11.554
48780SOL     OW48236   2.356   7.296  14.553
48780SOL    HW148237   2.323   7.206  14.558
48780SOL    HW248238   2.411   7.306  14.630
48781SOL     OW48239   8.754   0.335  11.928
48781SOL    HW148240   8.673   0.328  11.878
48781SOL    HW248241   8.727   0.369  12.013
48782SOL     OW48242   7.410   8.689   7.699
48782SOL    HW148243   7.502   8.678   7.721
48782SOL    HW248244   7.363   8.640   7.766
48783SOL     OW48245  10.382  10.295   3.564
48783SOL    HW148246  10.384  10.379   3.519
48783SOL    HW248247  10.474  10.271   3.576
48784SOL     OW48248   6.136  11.549  14.212
48784SOL    HW148249   6.121  11.528  14.304
48784SOL    HW248250   6.088  11.482  14.164
48785SOL     OW48251  11.996  10.871   5.010
48785SOL    HW148252  12.067  10.933   4.998
48785SOL    HW248253  11.928  10.898   4.948
48786SOL     OW48254   2.905  12.694   9.963
48786SOL    HW148255   2.810  12.696   9.976
48786SOL    HW248256   2.924  12.603   9.940
48787SOL     OW48257   0.412   2.791   2.390
48787SOL    HW148258   0.364   2.758   2.465
48787SOL    HW248259   0.492   2.828   2.427
48788SOL     OW48260  11.622   4.113   1.231
48788SOL    HW148261  11.533   4.100   1.200
48788SOL    HW248262  11.629   4.207   1.246
48789SOL     OW48263   0.551   8.343   2.643
48789SOL    HW148264   0.458   8.349   2.662
48789SOL    HW248265   0.576   8.430   2.613
48790SOL     OW48266   4.764   6.120  11.657
48790SOL    HW148267   4.824   6.137  11.584
48790SOL    HW248268   4.757   6.024  11.660
48791SOL     OW48269   1.933   9.153   4.481
48791SOL    HW148270   1.948   9.157   4.387
48791SOL    HW248271   1.886   9.070   4.494
48792SOL     OW48272   7.693   6.682   6.124
48792SOL    HW148273   7.729   6.769   6.104
48792SOL    HW248274   7.616   6.674   6.068
48793SOL     OW48275   7.895   2.022   5.604
48793SOL    HW148276   7.827   1.981   5.551
48793SOL    HW248277   7.854   2.102   5.638
48794SOL     OW48278  11.149   1.058  10.960
48794SOL    HW148279  11.229   1.089  11.002
48794SOL    HW248280  11.161   0.963  10.953
48795SOL     OW48281  13.713  12.112  14.027
48795SOL    HW148282  13.644  12.048  14.045
48795SOL    HW248283  13.735  12.099  13.935
48796SOL     OW48284   2.074   8.893   9.706
48796SOL    HW148285   1.979   8.900   9.717
48796SOL    HW248286   2.104   8.984   9.702
48797SOL     OW48287   6.326   0.053   0.233
48797SOL    HW148288   6.308  14.844   0.212
48797SOL    HW248289   6.387   0.049   0.307
48798SOL     OW48290   3.495   1.966   4.804
48798SOL    HW148291   3.557   1.968   4.878
48798SOL    HW248292   3.551   1.966   4.726
48799SOL     OW48293   4.155  10.452   8.981
48799SOL    HW148294   4.145  10.541   9.016
48799SOL    HW248295   4.218  10.462   8.910
48800SOL     OW48296  13.836   9.754   9.353
48800SOL    HW148297  13.864   9.821   9.416
48800SOL    HW248298  13.750   9.783   9.323
48801SOL     OW48299   2.202   1.378  10.107
48801SOL    HW148300   2.205   1.474  10.114
48801SOL    HW248301   2.133   1.351  10.167
48802SOL     OW48302  13.282  11.198   1.357
48802SOL    HW148303  13.276  11.272   1.297
48802SOL    HW248304  13.228  11.130   1.316
48803SOL     OW48305   1.859   0.870   7.054
48803SOL    HW148306   1.783   0.928   7.052
48803SOL    HW248307   1.824   0.783   7.040
48804SOL     OW48308  10.348   8.864   2.894
48804SOL    HW148309  10.316   8.782   2.855
48804SOL    HW248310  10.439   8.870   2.867
48805SOL     OW48311   3.792   4.863   5.730
48805SOL    HW148312   3.696   4.867   5.738
48805SOL    HW248313   3.825   4.899   5.812
48806SOL     OW48314  10.477   5.928  12.196
48806SOL    HW148315  10.544   5.963  12.254
48806SOL    HW248316  10.451   5.846  12.237
48807SOL     OW48317   0.875  10.111   3.357
48807SOL    HW148318   0.911  10.189   3.399
48807SOL    HW248319   0.927  10.099   3.278
48808SOL     OW48320  12.971   4.278  13.794
48808SOL    HW148321  12.881   4.253  13.816
48808SOL    HW248322  12.965   4.315  13.706
48809SOL     OW48323  11.095  14.240   7.732
48809SOL    HW148324  11.009  14.264   7.766
48809SOL    HW248325  11.077  14.167   7.672
48810SOL     OW48326  13.958  13.052   8.398
48810SOL    HW148327  13.899  12.977   8.402
48810SOL    HW248328  14.009  13.046   8.479
48811SOL     OW48329   2.373   4.752   9.853
48811SOL    HW148330   2.404   4.779   9.767
48811SOL    HW248331   2.369   4.834   9.903
48812SOL     OW48332  11.911  12.674   1.605
48812SOL    HW148333  11.854  12.600   1.626
48812SOL    HW248334  11.913  12.676   1.509
48813SOL     OW48335   3.936  13.438   9.200
48813SOL    HW148336   3.928  13.360   9.145
48813SOL    HW248337   3.868  13.426   9.267
48814SOL     OW48338   3.560   5.307  11.758
48814SOL    HW148339   3.605   5.253  11.823
48814SOL    HW248340   3.601   5.393  11.767
48815SOL     OW48341   7.597   0.510  14.862
48815SOL    HW148342   7.532   0.528   0.048
48815SOL    HW248343   7.681   0.532   0.021
48816SOL     OW48344  10.199   5.878   2.748
48816SOL    HW148345  10.201   5.973   2.762
48816SOL    HW248346  10.291   5.853   2.738
48817SOL     OW48347  14.809   8.196  12.668
48817SOL    HW148348   0.016   8.167  12.650
48817SOL    HW248349  14.794   8.173  12.759
48818SOL     OW48350   1.762   9.463   9.237
48818SOL    HW148351   1.855   9.467   9.215
48818SOL    HW248352   1.721   9.530   9.182
48819SOL     OW48353   5.952   2.421   5.151
48819SOL    HW148354   5.873   2.435   5.100
48819SOL    HW248355   6.019   2.473   5.107
48820SOL     OW48356  10.638   7.282   9.394
48820SOL    HW148357  10.587   7.209   9.431
48820SOL    HW248358  10.604   7.292   9.305
48821SOL     OW48359   1.824   8.165   1.180
48821SOL    HW148360   1.732   8.193   1.187
48821SOL    HW248361   1.838   8.111   1.257
48822SOL     OW48362   8.330   4.647   1.722
48822SOL    HW148363   8.409   4.632   1.774
48822SOL    HW248364   8.265   4.589   1.761
48823SOL     OW48365   8.057   1.655   1.331
48823SOL    HW148366   8.040   1.626   1.421
48823SOL    HW248367   8.025   1.583   1.277
48824SOL     OW48368   3.026  12.014   1.416
48824SOL    HW148369   3.118  12.022   1.441
48824SOL    HW248370   3.001  12.101   1.385
48825SOL     OW48371  12.769   9.794   5.630
48825SOL    HW148372  12.824   9.718   5.649
48825SOL    HW248373  12.682   9.757   5.615
48826SOL     OW48374   1.167   7.719   5.379
48826SOL    HW148375   1.106   7.690   5.447
48826SOL    HW248376   1.180   7.642   5.323
48827SOL     OW48377   4.820   0.864   5.496
48827SOL    HW148378   4.911   0.885   5.519
48827SOL    HW248379   4.811   0.771   5.518
48828SOL     OW48380  11.813   8.387   4.220
48828SOL    HW148381  11.861   8.419   4.144
48828SOL    HW248382  11.872   8.401   4.294
48829SOL     OW48383  12.022   1.990   7.208
48829SOL    HW148384  12.052   1.961   7.294
48829SOL    HW248385  12.082   2.060   7.183
48830SOL     OW48386   0.670  11.994   2.560
48830SOL    HW148387   0.687  12.068   2.502
48830SOL    HW248388   0.755  11.974   2.599
48831SOL     OW48389   7.184   6.177   9.394
48831SOL    HW148390   7.161   6.107   9.333
48831SOL    HW248391   7.251   6.140   9.451
48832SOL     OW48392  12.837   4.073   0.179
48832SOL    HW148393  12.924   4.058   0.141
48832SOL    HW248394  12.788   3.994   0.158
48833SOL     OW48395   6.551  11.144   6.409
48833SOL    HW148396   6.486  11.142   6.339
48833SOL    HW248397   6.575  11.052   6.422
48834SOL     OW48398   7.832   7.223  12.496
48834SOL    HW148399   7.833   7.314  12.466
48834SOL    HW248400   7.868   7.172  12.423
48835SOL     OW48401   4.326   2.384  11.332
48835SOL    HW148402   4.403   2.326  11.338
48835SOL    HW248403   4.256   2.327  11.301
48836SOL     OW48404  10.413  12.770  13.735
48836SOL    HW148405  10.373  12.683  13.737
48836SOL    HW248406  10.490  12.759  13.679
48837SOL     OW48407   8.181   9.094  10.379
48837SOL    HW148408   8.262   9.136  10.350
48837SOL    HW248409   8.208   9.036  10.450
48838SOL     OW48410   3.854   7.509   8.585
48838SOL    HW148411   3.887   7.429   8.624
48838SOL    HW248412   3.921   7.534   8.521
48839SOL     OW48413  11.019  14.285   2.174
48839SOL    HW148414  11.086  14.296   2.106
48839SOL    HW248415  11.008  14.191   2.183
48840SOL     OW48416   6.974   7.388   1.283
48840SOL    HW148417   6.884   7.399   1.313
48840SOL    HW248418   7.027   7.404   1.362
48841SOL     OW48419   2.553   6.996   6.049
48841SOL    HW148420   2.497   7.034   6.116
48841SOL    HW248421   2.493   6.974   5.978
48842SOL     OW48422  13.852   3.193   9.833
48842SOL    HW148423  13.946   3.181   9.818
48842SOL    HW248424  13.812   3.178   9.747
48843SOL     OW48425   0.642   0.994   6.657
48843SOL    HW148426   0.673   0.907   6.683
48843SOL    HW248427   0.554   1.000   6.693
48844SOL     OW48428  11.635   8.202   4.119
48844SOL    HW148429  11.585   8.276   4.084
48844SOL    HW248430  11.715   8.241   4.154
48845SOL     OW48431   1.091  13.129   9.146
48845SOL    HW148432   1.072  13.044   9.186
48845SOL    HW248433   1.143  13.108   9.069
48846SOL     OW48434  14.346  10.177  10.643
48846SOL    HW148435  14.300  10.230  10.708
48846SOL    HW248436  14.438  10.184  10.667
48847SOL     OW48437   0.182   5.749   3.240
48847SOL    HW148438   0.214   5.824   3.289
48847SOL    HW248439   0.190   5.776   3.148
48848SOL     OW48440   6.692   6.278  11.517
48848SOL    HW148441   6.784   6.260  11.535
48848SOL    HW248442   6.664   6.332  11.591
48849SOL     OW48443  11.621  11.144  10.966
48849SOL    HW148444  11.630  11.049  10.959
48849SOL    HW248445  11.550  11.158  11.028
48850SOL     OW48446   5.887   0.504   4.132
48850SOL    HW148447   5.877   0.450   4.054
48850SOL    HW248448   5.875   0.594   4.102
48851SOL     OW48449   3.881   4.680   2.144
48851SOL    HW148450   3.860   4.752   2.204
48851SOL    HW248451   3.820   4.691   2.071
48852SOL     OW48452  14.166   7.383   3.201
48852SOL    HW148453  14.209   7.340   3.127
48852SOL    HW248454  14.176   7.476   3.185
48853SOL     OW48455   0.619   5.978   9.718
48853SOL    HW148456   0.663   6.035   9.655
48853SOL    HW248457   0.557   6.036   9.763
48854SOL     OW48458   0.872   8.558   0.592
48854SOL    HW148459   0.884   8.466   0.568
48854SOL    HW248460   0.784   8.580   0.562
48855SOL     OW48461   3.109   0.073  10.596
48855SOL    HW148462   3.190   0.106  10.557
48855SOL    HW248463   3.129  14.865  10.620
48856SOL     OW48464   9.126  11.214   5.221
48856SOL    HW148465   9.106  11.228   5.129
48856SOL    HW248466   9.135  11.302   5.258
48857SOL     OW48467   5.443   5.274   5.929
48857SOL    HW148468   5.457   5.329   6.006
48857SOL    HW248469   5.348   5.273   5.917
48858SOL     OW48470   3.094   5.475   9.482
48858SOL    HW148471   3.035   5.444   9.414
48858SOL    HW248472   3.159   5.405   9.490
48859SOL     OW48473   1.268  12.613   6.901
48859SOL    HW148474   1.275  12.550   6.973
48859SOL    HW248475   1.304  12.694   6.937
48860SOL     OW48476   9.584   6.336  13.876
48860SOL    HW148477   9.600   6.406  13.940
48860SOL    HW248478   9.637   6.361  13.800
48861SOL     OW48479   3.137   4.671   6.714
48861SOL    HW148480   3.138   4.752   6.765
48861SOL    HW248481   3.224   4.666   6.674
48862SOL     OW48482   9.803  13.504   9.567
48862SOL    HW148483   9.812  13.577   9.505
48862SOL    HW248484   9.837  13.539   9.649
48863SOL     OW48485   2.265   5.690   0.400
48863SOL    HW148486   2.203   5.759   0.375
48863SOL    HW248487   2.311   5.670   0.319
48864SOL     OW48488   0.087   5.367   8.286
48864SOL    HW148489   0.073   5.317   8.206
48864SOL    HW248490   0.081   5.303   8.357
48865SOL     OW48491  13.078  13.205   0.467
48865SOL    HW148492  13.166  13.243   0.467
48865SOL    HW248493  13.092  13.113   0.446
48866SOL     OW48494   7.954  14.032  13.696
48866SOL    HW148495   8.011  13.976  13.748
48866SOL    HW248496   7.929  13.978  13.621
48867SOL     OW48497   7.142   6.644  13.794
48867SOL    HW148498   7.048   6.637  13.779
48867SOL    HW248499   7.150   6.705  13.867
48868SOL     OW48500   6.251   4.022   7.520
48868SOL    HW148501   6.164   4.054   7.497
48868SOL    HW248502   6.262   3.943   7.467
48869SOL     OW48503  13.029   8.113   8.744
48869SOL    HW148504  13.027   8.018   8.738
48869SOL    HW248505  13.088   8.131   8.818
48870SOL     OW48506   9.406   0.998  11.563
48870SOL    HW148507   9.453   0.915  11.558
48870SOL    HW248508   9.321   0.976  11.602
48871SOL     OW48509   9.805   8.421   5.279
48871SOL    HW148510   9.834   8.330   5.291
48871SOL    HW248511   9.868   8.458   5.217
48872SOL     OW48512   0.108   1.341   6.688
48872SOL    HW148513   0.075   1.334   6.777
48872SOL    HW248514   0.148   1.428   6.683
48873SOL     OW48515   1.250  10.717  10.622
48873SOL    HW148516   1.231  10.656  10.551
48873SOL    HW248517   1.283  10.661  10.693
48874SOL     OW48518  13.285  10.909   8.155
48874SOL    HW148519  13.375  10.895   8.125
48874SOL    HW248520  13.242  10.824   8.144
48875SOL     OW48521   0.826   6.743  13.190
48875SOL    HW148522   0.870   6.717  13.109
48875SOL    HW248523   0.737   6.765  13.163
48876SOL     OW48524   5.605   7.194  13.203
48876SOL    HW148525   5.568   7.122  13.151
48876SOL    HW248526   5.698   7.196  13.180
48877SOL     OW48527   3.517   2.394   6.620
48877SOL    HW148528   3.593   2.373   6.566
48877SOL    HW248529   3.456   2.321   6.606
48878SOL     OW48530   3.127   1.119   7.661
48878SOL    HW148531   3.115   1.080   7.574
48878SOL    HW248532   3.208   1.169   7.655
48879SOL     OW48533   2.040   8.713   9.258
48879SOL    HW148534   1.986   8.740   9.332
48879SOL    HW248535   2.081   8.793   9.227
48880SOL     OW48536  11.369  11.605   6.440
48880SOL    HW148537  11.372  11.510   6.427
48880SOL    HW248538  11.460  11.634   6.430
48881SOL     OW48539  10.754  10.964   2.567
48881SOL    HW148540  10.671  11.002   2.537
48881SOL    HW248541  10.820  11.030   2.546
48882SOL     OW48542   4.295  14.222   8.031
48882SOL    HW148543   4.233  14.245   8.100
48882SOL    HW248544   4.241  14.208   7.954
48883SOL     OW48545   8.310  12.766  10.389
48883SOL    HW148546   8.312  12.776  10.294
48883SOL    HW248547   8.218  12.776  10.412
48884SOL     OW48548  13.274   9.835   3.106
48884SOL    HW148549  13.192   9.884   3.101
48884SOL    HW248550  13.253   9.759   3.160
48885SOL     OW48551   1.360   5.726   8.361
48885SOL    HW148552   1.297   5.797   8.370
48885SOL    HW248553   1.306   5.649   8.342
48886SOL     OW48554  10.127   3.695   5.680
48886SOL    HW148555  10.091   3.783   5.669
48886SOL    HW248556  10.168   3.676   5.596
48887SOL     OW48557   1.697   4.417   2.726
48887SOL    HW148558   1.609   4.380   2.714
48887SOL    HW248559   1.733   4.370   2.801
48888SOL     OW48560   3.794   6.706   7.451
48888SOL    HW148561   3.797   6.796   7.418
48888SOL    HW248562   3.771   6.653   7.374
48889SOL     OW48563   2.349  12.313  14.880
48889SOL    HW148564   2.254  12.309   0.009
48889SOL    HW248565   2.381  12.353   0.078
48890SOL     OW48566   2.985   6.295   3.569
48890SOL    HW148567   2.894   6.268   3.554
48890SOL    HW248568   3.012   6.335   3.486
48891SOL     OW48569   3.057  10.613   0.994
48891SOL    HW148570   2.963  10.619   1.010
48891SOL    HW248571   3.077  10.520   1.003
48892SOL     OW48572   4.126   7.960  12.086
48892SOL    HW148573   4.207   7.942  12.134
48892SOL    HW248574   4.081   7.875  12.084
48893SOL     OW48575  12.510  13.197   0.408
48893SOL    HW148576  12.554  13.268   0.360
48893SOL    HW248577  12.436  13.239   0.451
48894SOL     OW48578   4.461  10.140   8.153
48894SOL    HW148579   4.427  10.086   8.225
48894SOL    HW248580   4.387  10.151   8.094
48895SOL     OW48581   7.358   6.413   8.926
48895SOL    HW148582   7.344   6.501   8.961
48895SOL    HW248583   7.304   6.410   8.847
48896SOL     OW48584  11.423  10.039   4.088
48896SOL    HW148585  11.505   9.999   4.059
48896SOL    HW248586  11.449  10.121   4.130
48897SOL     OW48587   0.785   9.655   9.645
48897SOL    HW148588   0.809   9.638   9.736
48897SOL    HW248589   0.714   9.719   9.650
48898SOL     OW48590  11.126  10.070   2.605
48898SOL    HW148591  11.152   9.997   2.661
48898SOL    HW248592  11.038  10.093   2.636
48899SOL     OW48593   0.083   8.409   0.265
48899SOL    HW148594   0.005   8.409   0.321
48899SOL    HW248595   0.156   8.400   0.326
48900SOL     OW48596   6.975   1.356   1.628
48900SOL    HW148597   6.940   1.299   1.696
48900SOL    HW248598   7.004   1.296   1.559
48901SOL     OW48599   6.513  10.246   0.588
48901SOL    HW148600   6.497  10.180   0.655
48901SOL    HW248601   6.426  10.276   0.562
48902SOL     OW48602  12.056  14.877   1.229
48902SOL    HW148603  12.144   0.031   1.220
48902SOL    HW248604  12.001   0.055   1.178
48903SOL     OW48605  12.812   6.120   5.516
48903SOL    HW148606  12.766   6.036   5.519
48903SOL    HW248607  12.807   6.147   5.424
48904SOL     OW48608  10.284   4.150  14.790
48904SOL    HW148609  10.326   4.090  14.852
48904SOL    HW248610  10.286   4.103  14.707
48905SOL     OW48611   1.184  12.088  13.763
48905SOL    HW148612   1.175  12.115  13.854
48905SOL    HW248613   1.276  12.104  13.743
48906SOL     OW48614   2.726   4.949   3.250
48906SOL    HW148615   2.820   4.936   3.261
48906SOL    HW248616   2.685   4.879   3.300
48907SOL     OW48617   2.632  11.543   2.655
48907SOL    HW148618   2.654  11.488   2.731
48907SOL    HW248619   2.575  11.488   2.601
48908SOL     OW48620   5.192  10.476   3.267
48908SOL    HW148621   5.198  10.402   3.206
48908SOL    HW248622   5.109  10.518   3.245
48909SOL     OW48623   8.345   6.683   7.314
48909SOL    HW148624   8.433   6.692   7.351
48909SOL    HW248625   8.308   6.608   7.360
48910SOL     OW48626   2.825  10.972   7.762
48910SOL    HW148627   2.803  11.026   7.686
48910SOL    HW248628   2.921  10.967   7.760
48911SOL     OW48629   6.751   4.817  13.496
48911SOL    HW148630   6.792   4.896  13.531
48911SOL    HW248631   6.694   4.787  13.567
48912SOL     OW48632   1.908   0.669   2.426
48912SOL    HW148633   1.942   0.698   2.511
48912SOL    HW248634   1.816   0.651   2.441
48913SOL     OW48635   0.527  13.614   4.108
48913SOL    HW148636   0.497  13.546   4.048
48913SOL    HW248637   0.557  13.566   4.185
48914SOL     OW48638   3.017   7.176   8.196
48914SOL    HW148639   3.039   7.172   8.103
48914SOL    HW248640   3.088   7.227   8.236
48915SOL     OW48641  14.327   8.965   9.184
48915SOL    HW148642  14.405   9.004   9.144
48915SOL    HW248643  14.311   9.019   9.261
48916SOL     OW48644  14.167   1.321   1.157
48916SOL    HW148645  14.131   1.331   1.069
48916SOL    HW248646  14.235   1.255   1.148
48917SOL     OW48647  13.914  12.824  13.453
48917SOL    HW148648  13.971  12.829  13.531
48917SOL    HW248649  13.873  12.738  13.460
48918SOL     OW48650   5.004   3.031   9.386
48918SOL    HW148651   5.080   3.043   9.443
48918SOL    HW248652   4.977   2.940   9.400
48919SOL     OW48653  13.359   9.016   9.839
48919SOL    HW148654  13.415   9.002   9.763
48919SOL    HW248655  13.394   8.956   9.905
48920SOL     OW48656  12.033   4.374   4.535
48920SOL    HW148657  11.990   4.347   4.616
48920SOL    HW248658  12.033   4.295   4.480
48921SOL     OW48659  13.633  11.857   8.565
48921SOL    HW148660  13.594  11.878   8.480
48921SOL    HW248661  13.727  11.861   8.550
48922SOL     OW48662   7.833   8.489   7.205
48922SOL    HW148663   7.742   8.494   7.236
48922SOL    HW248664   7.831   8.528   7.118
48923SOL     OW48665   5.709  11.552  11.768
48923SOL    HW148666   5.693  11.630  11.716
48923SOL    HW248667   5.702  11.582  11.859
48924SOL     OW48668  13.122   9.108  13.690
48924SOL    HW148669  13.142   9.165  13.764
48924SOL    HW248670  13.110   9.022  13.728
48925SOL     OW48671   3.700   0.186   7.488
48925SOL    HW148672   3.634   0.138   7.538
48925SOL    HW248673   3.691   0.154   7.399
48926SOL     OW48674   7.424  14.143   7.493
48926SOL    HW148675   7.477  14.168   7.418
48926SOL    HW248676   7.443  14.050   7.506
48927SOL     OW48677   6.942  10.831   7.871
48927SOL    HW148678   6.907  10.895   7.810
48927SOL    HW248679   7.037  10.832   7.857
48928SOL     OW48680   7.489  11.964  11.046
48928SOL    HW148681   7.441  12.045  11.064
48928SOL    HW248682   7.482  11.914  11.127
48929SOL     OW48683   8.676   5.348   9.993
48929SOL    HW148684   8.626   5.307   9.923
48929SOL    HW248685   8.658   5.295  10.070
48930SOL     OW48686  10.488  13.206   8.189
48930SOL    HW148687  10.469  13.140   8.122
48930SOL    HW248688  10.488  13.289   8.141
48931SOL     OW48689   3.104   1.608  10.512
48931SOL    HW148690   3.076   1.685  10.463
48931SOL    HW248691   3.146   1.552  10.447
48932SOL     OW48692   0.183   4.848   3.005
48932SOL    HW148693   0.108   4.881   2.955
48932SOL    HW248694   0.169   4.881   3.094
48933SOL     OW48695   6.801   8.104   3.386
48933SOL    HW148696   6.838   8.190   3.406
48933SOL    HW248697   6.753   8.116   3.304
48934SOL     OW48698  13.375   1.579   5.860
48934SOL    HW148699  13.415   1.657   5.820
48934SOL    HW248700  13.373   1.514   5.789
48935SOL     OW48701   5.092  13.666   2.645
48935SOL    HW148702   5.133  13.679   2.559
48935SOL    HW248703   5.022  13.732   2.648
48936SOL     OW48704   0.283   3.256   9.705
48936SOL    HW148705   0.293   3.322   9.773
48936SOL    HW248706   0.217   3.292   9.645
48937SOL     OW48707   7.605   0.895   9.742
48937SOL    HW148708   7.519   0.922   9.712
48937SOL    HW248709   7.643   0.974   9.781
48938SOL     OW48710   5.343  14.751  12.785
48938SOL    HW148711   5.364  14.688  12.716
48938SOL    HW248712   5.286  14.702  12.845
48939SOL     OW48713  13.513   0.477   8.383
48939SOL    HW148714  13.452   0.404   8.371
48939SOL    HW248715  13.599   0.439   8.368
48940SOL     OW48716  10.753  12.932   1.243
48940SOL    HW148717  10.694  12.988   1.192
48940SOL    HW248718  10.754  12.972   1.330
48941SOL     OW48719  14.444  12.394   8.887
48941SOL    HW148720  14.471  12.438   8.967
48941SOL    HW248721  14.354  12.423   8.872
48942SOL     OW48722   7.353   7.834   1.305
48942SOL    HW148723   7.430   7.890   1.296
48942SOL    HW248724   7.325   7.816   1.216
48943SOL     OW48725   5.793  11.993  11.615
48943SOL    HW148726   5.839  11.979  11.532
48943SOL    HW248727   5.861  11.979  11.681
48944SOL     OW48728   8.147   4.070  12.774
48944SOL    HW148729   8.191   4.067  12.860
48944SOL    HW248730   8.197   4.009  12.720
48945SOL     OW48731   4.264   5.608   4.534
48945SOL    HW148732   4.245   5.545   4.602
48945SOL    HW248733   4.335   5.568   4.483
48946SOL     OW48734   2.344   0.712   0.694
48946SOL    HW148735   2.348   0.708   0.598
48946SOL    HW248736   2.435   0.724   0.721
48947SOL     OW48737  13.052   2.311   2.829
48947SOL    HW148738  13.044   2.246   2.899
48947SOL    HW248739  13.118   2.372   2.861
48948SOL     OW48740  11.394  10.497   4.108
48948SOL    HW148741  11.460  10.481   4.040
48948SOL    HW248742  11.385  10.592   4.110
48949SOL     OW48743  11.263   3.242   8.157
48949SOL    HW148744  11.334   3.288   8.202
48949SOL    HW248745  11.185   3.295   8.175
48950SOL     OW48746   1.757   5.276   9.220
48950SOL    HW148747   1.815   5.265   9.145
48950SOL    HW248748   1.784   5.208   9.281
48951SOL     OW48749   3.435   4.641   9.884
48951SOL    HW148750   3.387   4.561   9.904
48951SOL    HW248751   3.527   4.619   9.901
48952SOL     OW48752   6.481   8.591   7.370
48952SOL    HW148753   6.397   8.584   7.415
48952SOL    HW248754   6.534   8.521   7.408
48953SOL     OW48755  13.485   5.585   3.872
48953SOL    HW148756  13.453   5.656   3.927
48953SOL    HW248757  13.522   5.629   3.795
48954SOL     OW48758  14.482   4.850   9.449
48954SOL    HW148759  14.506   4.784   9.384
48954SOL    HW248760  14.387   4.839   9.459
48955SOL     OW48761   1.980   8.530   5.256
48955SOL    HW148762   2.009   8.453   5.306
48955SOL    HW248763   1.916   8.495   5.193
48956SOL     OW48764   8.979   9.880   8.608
48956SOL    HW148765   9.035   9.942   8.655
48956SOL    HW248766   8.959   9.923   8.525
48957SOL     OW48767   6.933  12.637   3.865
48957SOL    HW148768   6.887  12.702   3.918
48957SOL    HW248769   6.986  12.689   3.804
48958SOL     OW48770  13.910  11.812   4.218
48958SOL    HW148771  13.836  11.817   4.157
48958SOL    HW248772  13.951  11.898   4.214
48959SOL     OW48773   9.417   6.539   8.129
48959SOL    HW148774   9.440   6.613   8.072
48959SOL    HW248775   9.358   6.577   8.194
48960SOL     OW48776   8.313   5.862   3.201
48960SOL    HW148777   8.334   5.909   3.120
48960SOL    HW248778   8.398   5.850   3.244
48961SOL     OW48779   4.383   0.292   2.427
48961SOL    HW148780   4.431   0.371   2.403
48961SOL    HW248781   4.441   0.245   2.487
48962SOL     OW48782   6.262   8.277   3.990
48962SOL    HW148783   6.238   8.286   3.898
48962SOL    HW248784   6.274   8.182   4.002
48963SOL     OW48785  10.723  14.008  13.303
48963SOL    HW148786  10.651  14.042  13.249
48963SOL    HW248787  10.795  13.995  13.241
48964SOL     OW48788  12.042   0.842   7.899
48964SOL    HW148789  11.958   0.873   7.864
48964SOL    HW248790  12.075   0.783   7.831
48965SOL     OW48791   1.555   1.076   4.921
48965SOL    HW148792   1.494   1.137   4.964
48965SOL    HW248793   1.554   1.103   4.829
48966SOL     OW48794   7.805  11.447   3.802
48966SOL    HW148795   7.737  11.380   3.791
48966SOL    HW248796   7.863  11.436   3.727
48967SOL     OW48797   1.540   9.168   2.560
48967SOL    HW148798   1.601   9.203   2.495
48967SOL    HW248799   1.561   9.217   2.640
48968SOL     OW48800  13.414   3.133   5.139
48968SOL    HW148801  13.477   3.171   5.199
48968SOL    HW248802  13.371   3.064   5.190
48969SOL     OW48803   2.898   2.592   7.787
48969SOL    HW148804   2.889   2.669   7.843
48969SOL    HW248805   2.963   2.537   7.832
48970SOL     OW48806  12.593   1.013   4.253
48970SOL    HW148807  12.599   1.054   4.339
48970SOL    HW248808  12.515   0.958   4.258
48971SOL     OW48809  13.301  13.691  10.314
48971SOL    HW148810  13.314  13.729  10.401
48971SOL    HW248811  13.369  13.624  10.307
48972SOL     OW48812  10.232  11.375  12.614
48972SOL    HW148813  10.235  11.463  12.650
48972SOL    HW248814  10.316  11.336  12.636
48973SOL     OW48815   4.366   6.911  11.386
48973SOL    HW148816   4.273   6.925  11.403
48973SOL    HW248817   4.391   6.985  11.331
48974SOL     OW48818   5.785  13.340  14.244
48974SOL    HW148819   5.778  13.303  14.332
48974SOL    HW248820   5.698  13.378  14.228
48975SOL     OW48821   4.275   4.224   7.423
48975SOL    HW148822   4.179   4.222   7.419
48975SOL    HW248823   4.294   4.306   7.470
48976SOL     OW48824   2.136  10.187   8.047
48976SOL    HW148825   2.187  10.178   7.967
48976SOL    HW248826   2.141  10.281   8.068
48977SOL     OW48827   1.875   4.621  12.896
48977SOL    HW148828   1.899   4.592  12.983
48977SOL    HW248829   1.946   4.680  12.869
48978SOL     OW48830   4.379  13.661   5.059
48978SOL    HW148831   4.352  13.604   5.132
48978SOL    HW248832   4.467  13.631   5.037
48979SOL     OW48833   2.545   3.098   7.490
48979SOL    HW148834   2.540   3.103   7.585
48979SOL    HW248835   2.458   3.071   7.462
48980SOL     OW48836   5.518  10.485   1.371
48980SOL    HW148837   5.582  10.547   1.339
48980SOL    HW248838   5.537  10.404   1.323
48981SOL     OW48839   8.198   0.940  14.796
48981SOL    HW148840   8.137   0.866  14.795
48981SOL    HW248841   8.283   0.901  14.815
48982SOL     OW48842   9.231  13.134  10.107
48982SOL    HW148843   9.165  13.190  10.066
48982SOL    HW248844   9.264  13.080  10.035
48983SOL     OW48845  14.458  10.691   6.470
48983SOL    HW148846  14.493  10.624   6.530
48983SOL    HW248847  14.532  10.749   6.455
48984SOL     OW48848   0.959   7.098   1.523
48984SOL    HW148849   0.947   7.191   1.544
48984SOL    HW248850   1.035   7.071   1.574
48985SOL     OW48851  12.097   4.083   7.202
48985SOL    HW148852  12.153   4.131   7.263
48985SOL    HW248853  12.019   4.062   7.253
48986SOL     OW48854   5.587   4.016  14.185
48986SOL    HW148855   5.676   4.008  14.150
48986SOL    HW248856   5.592   3.980  14.273
48987SOL     OW48857   4.186  12.980  13.174
48987SOL    HW148858   4.092  12.986  13.192
48987SOL    HW248859   4.225  12.956  13.258
48988SOL     OW48860   3.680  10.616  13.284
48988SOL    HW148861   3.659  10.599  13.193
48988SOL    HW248862   3.737  10.544  13.310
48989SOL     OW48863   6.309   1.562   7.347
48989SOL    HW148864   6.394   1.520   7.334
48989SOL    HW248865   6.283   1.590   7.260
48990SOL     OW48866   7.194   3.202   7.118
48990SOL    HW148867   7.263   3.269   7.114
48990SOL    HW248868   7.238   3.121   7.090
48991SOL     OW48869   5.041   8.061  13.421
48991SOL    HW148870   5.015   8.145  13.383
48991SOL    HW248871   5.079   8.083  13.505
48992SOL     OW48872   6.856   8.300  13.025
48992SOL    HW148873   6.921   8.361  13.060
48992SOL    HW248874   6.896   8.214  13.034
48993SOL     OW48875  14.497  14.259   1.279
48993SOL    HW148876  14.574  14.230   1.230
48993SOL    HW248877  14.527  14.268   1.369
48994SOL     OW48878   4.362  11.577   1.224
48994SOL    HW148879   4.337  11.596   1.134
48994SOL    HW248880   4.285  11.599   1.276
48995SOL     OW48881   7.205  11.388   0.595
48995SOL    HW148882   7.164  11.308   0.628
48995SOL    HW248883   7.187  11.454   0.662
48996SOL     OW48884   4.515  13.188  11.788
48996SOL    HW148885   4.600  13.153  11.761
48996SOL    HW248886   4.481  13.232  11.710
48997SOL     OW48887   0.289  12.120   3.029
48997SOL    HW148888   0.286  12.146   2.937
48997SOL    HW248889   0.305  12.201   3.077
48998SOL     OW48890   6.876  13.151   6.970
48998SOL    HW148891   6.839  13.129   7.055
48998SOL    HW248892   6.958  13.195   6.990
48999SOL     OW48893   6.127  10.582   5.406
48999SOL    HW148894   6.194  10.526   5.444
48999SOL    HW248895   6.104  10.539   5.324
49000SOL     OW48896   0.396  13.586   4.576
49000SOL    HW148897   0.486  13.605   4.606
49000SOL    HW248898   0.361  13.528   4.643
49001SOL     OW48899   9.944   1.928   3.002
49001SOL    HW148900   9.882   1.855   3.000
49001SOL    HW248901   9.994   1.915   3.082
49002SOL     OW48902   2.489   6.486   3.708
49002SOL    HW148903   2.513   6.556   3.769
49002SOL    HW248904   2.397   6.469   3.727
49003SOL     OW48905   7.943  14.015   6.224
49003SOL    HW148906   7.980  14.095   6.260
49003SOL    HW248907   7.848  14.029   6.227
49004SOL     OW48908   4.854   1.697   5.946
49004SOL    HW148909   4.903   1.719   5.867
49004SOL    HW248910   4.821   1.781   5.977
49005SOL     OW48911   9.525   8.781   0.889
49005SOL    HW148912   9.501   8.707   0.832
49005SOL    HW248913   9.493   8.756   0.975
49006SOL     OW48914   8.923   2.746   9.153
49006SOL    HW148915   8.985   2.787   9.093
49006SOL    HW248916   8.857   2.707   9.097
49007SOL     OW48917  10.029  11.766   3.220
49007SOL    HW148918  10.012  11.682   3.262
49007SOL    HW248919   9.943  11.799   3.195
49008SOL     OW48920  11.937   9.579   0.758
49008SOL    HW148921  11.931   9.597   0.852
49008SOL    HW248922  12.029   9.558   0.743
49009SOL     OW48923   4.865   7.194   9.422
49009SOL    HW148924   4.944   7.245   9.404
49009SOL    HW248925   4.874   7.116   9.368
49010SOL     OW48926   2.515   5.889   0.072
49010SOL    HW148927   2.433   5.845   0.097
49010SOL    HW248928   2.551   5.834   0.002
49011SOL     OW48929   1.111   9.809   5.506
49011SOL    HW148930   1.021   9.826   5.536
49011SOL    HW248931   1.109   9.718   5.476
49012SOL     OW48932   9.498   7.495   0.678
49012SOL    HW148933   9.490   7.511   0.772
49012SOL    HW248934   9.450   7.414   0.663
49013SOL     OW48935   9.261  13.654  14.279
49013SOL    HW148936   9.205  13.726  14.307
49013SOL    HW248937   9.326  13.695  14.222
49014SOL     OW48938  12.380   9.895  14.495
49014SOL    HW148939  12.372   9.835  14.570
49014SOL    HW248940  12.330   9.853  14.425
49015SOL     OW48941   9.123   5.399   6.601
49015SOL    HW148942   9.208   5.441   6.610
49015SOL    HW248943   9.142   5.306   6.611
49016SOL     OW48944  12.338   7.130   9.242
49016SOL    HW148945  12.416   7.140   9.296
49016SOL    HW248946  12.267   7.120   9.305
49017SOL     OW48947  12.849   7.794   0.472
49017SOL    HW148948  12.763   7.810   0.432
49017SOL    HW248949  12.911   7.807   0.401
49018SOL     OW48950  13.882  13.073  12.199
49018SOL    HW148951  13.911  12.995  12.247
49018SOL    HW248952  13.847  13.131  12.266
49019SOL     OW48953   2.492  14.568  10.334
49019SOL    HW148954   2.573  14.616  10.352
49019SOL    HW248955   2.520  14.477  10.321
49020SOL     OW48956   7.377  13.659   2.104
49020SOL    HW148957   7.384  13.612   2.021
49020SOL    HW248958   7.444  13.620   2.160
49021SOL     OW48959  13.907   4.396  12.880
49021SOL    HW148960  13.912   4.489  12.860
49021SOL    HW248961  13.969   4.355  12.820
49022SOL     OW48962   9.235   6.114   6.268
49022SOL    HW148963   9.178   6.132   6.342
49022SOL    HW248964   9.286   6.037   6.295
49023SOL     OW48965   4.101   8.396   5.873
49023SOL    HW148966   4.127   8.441   5.953
49023SOL    HW248967   4.176   8.402   5.815
49024SOL     OW48968  14.697   6.087   9.562
49024SOL    HW148969  14.616   6.075   9.513
49024SOL    HW248970  14.710   6.182   9.566
49025SOL     OW48971   0.403  13.160  12.542
49025SOL    HW148972   0.351  13.240  12.555
49025SOL    HW248973   0.487  13.191  12.509
49026SOL     OW48974   5.338   3.870   7.865
49026SOL    HW148975   5.413   3.873   7.924
49026SOL    HW248976   5.376   3.880   7.778
49027SOL     OW48977   2.011   4.793   7.912
49027SOL    HW148978   2.074   4.726   7.886
49027SOL    HW248979   2.001   4.847   7.834
49028SOL     OW48980   8.409   9.654   2.983
49028SOL    HW148981   8.389   9.630   2.893
49028SOL    HW248982   8.446   9.574   3.021
49029SOL     OW48983   3.147  11.795   2.000
49029SOL    HW148984   3.125  11.853   2.074
49029SOL    HW248985   3.124  11.707   2.032
49030SOL     OW48986   4.280   0.812   5.771
49030SOL    HW148987   4.365   0.840   5.736
49030SOL    HW248988   4.302   0.761   5.849
49031SOL     OW48989  13.079   1.453   6.594
49031SOL    HW148990  12.996   1.493   6.567
49031SOL    HW248991  13.136   1.461   6.517
49032SOL     OW48992   7.595   0.529  13.606
49032SOL    HW148993   7.517   0.532  13.551
49032SOL    HW248994   7.666   0.561  13.550
49033SOL     OW48995  13.496  13.537  12.943
49033SOL    HW148996  13.433  13.521  13.014
49033SOL    HW248997  13.443  13.577  12.874
49034SOL     OW48998   9.118   1.087   3.492
49034SOL    HW148999   9.202   1.041   3.493
49034SOL    HW249000   9.073   1.051   3.416
49035SOL     OW49001   6.521  11.362   6.554
49035SOL    HW149002   6.539  11.279   6.511
49035SOL    HW249003   6.563  11.428   6.499
49036SOL     OW49004  14.551   0.915   3.314
49036SOL    HW149005  14.606   0.859   3.261
49036SOL    HW249006  14.610   0.953   3.379
49037SOL     OW49007   0.604   6.458   5.855
49037SOL    HW149008   0.638   6.405   5.928
49037SOL    HW249009   0.509   6.455   5.865
49038SOL     OW49010  13.704   2.844  12.709
49038SOL    HW149011  13.615   2.821  12.682
49038SOL    HW249012  13.760   2.778  12.667
49039SOL     OW49013   6.446  14.073   3.883
49039SOL    HW149014   6.406  14.142   3.830
49039SOL    HW249015   6.477  14.009   3.819
49040SOL     OW49016   9.224  13.961   5.331
49040SOL    HW149017   9.180  13.973   5.415
49040SOL    HW249018   9.312  13.931   5.355
49041SOL     OW49019   4.127   6.265   5.721
49041SOL    HW149020   4.152   6.189   5.773
49041SOL    HW249021   4.200   6.278   5.661
49042SOL     OW49022   4.589  14.570   5.696
49042SOL    HW149023   4.662  14.631   5.696
49042SOL    HW249024   4.559  14.567   5.787
49043SOL     OW49025   9.116   3.340  12.470
49043SOL    HW149026   9.124   3.435  12.483
49043SOL    HW249027   9.202   3.313  12.438
49044SOL     OW49028   1.885   2.377  12.206
49044SOL    HW149029   1.980   2.381  12.205
49044SOL    HW249030   1.861   2.390  12.298
49045SOL     OW49031  14.809   6.201  11.830
49045SOL    HW149032  14.718   6.232  11.836
49045SOL    HW249033  14.816   6.164  11.743
49046SOL     OW49034   8.666   9.227   6.554
49046SOL    HW149035   8.675   9.321   6.537
49046SOL    HW249036   8.615   9.222   6.635
49047SOL     OW49037   6.021  13.716   2.478
49047SOL    HW149038   5.981  13.788   2.525
49047SOL    HW249039   5.993  13.729   2.387
49048SOL     OW49040   3.432   6.913   1.992
49048SOL    HW149041   3.513   6.887   1.948
49048SOL    HW249042   3.455   6.993   2.039
49049SOL     OW49043   7.206   2.391  10.971
49049SOL    HW149044   7.227   2.323  11.035
49049SOL    HW249045   7.171   2.344  10.896
49050SOL     OW49046   6.425   5.190   3.585
49050SOL    HW149047   6.400   5.144   3.665
49050SOL    HW249048   6.518   5.169   3.574
49051SOL     OW49049   1.994  11.423   7.162
49051SOL    HW149050   2.062  11.408   7.227
49051SOL    HW249051   1.988  11.340   7.114
49052SOL     OW49052  13.344   3.910  11.805
49052SOL    HW149053  13.314   3.993  11.844
49052SOL    HW249054  13.425   3.933  11.761
49053SOL     OW49055   5.433   5.725  14.030
49053SOL    HW149056   5.473   5.676  14.102
49053SOL    HW249057   5.341   5.700  14.033
49054SOL     OW49058   9.837  14.427  11.181
49054SOL    HW149059   9.784  14.488  11.129
49054SOL    HW249060   9.774  14.378  11.233
49055SOL     OW49061   5.131   4.611   8.907
49055SOL    HW149062   5.063   4.586   8.969
49055SOL    HW249063   5.212   4.607   8.956
49056SOL     OW49064   6.039  11.913   6.282
49056SOL    HW149065   6.111  11.930   6.221
49056SOL    HW249066   5.962  11.903   6.226
49057SOL     OW49067   4.147   7.308   8.032
49057SOL    HW149068   4.104   7.381   8.077
49057SOL    HW249069   4.177   7.251   8.103
49058SOL     OW49070  10.483   2.248   5.284
49058SOL    HW149071  10.393   2.274   5.303
49058SOL    HW249072  10.483   2.228   5.190
49059SOL     OW49073   8.715  14.443   7.803
49059SOL    HW149074   8.768  14.404   7.873
49059SOL    HW249075   8.626  14.443   7.838
49060SOL     OW49076   4.631   0.188   3.371
49060SOL    HW149077   4.568   0.136   3.421
49060SOL    HW249078   4.697   0.214   3.435
49061SOL     OW49079   3.492   2.043  13.968
49061SOL    HW149080   3.537   1.963  13.942
49061SOL    HW249081   3.400   2.018  13.972
49062SOL     OW49082  13.246   3.390   0.008
49062SOL    HW149083  13.306   3.343   0.066
49062SOL    HW249084  13.182   3.430   0.067
49063SOL     OW49085  11.711   2.006   7.097
49063SOL    HW149086  11.744   2.009   7.187
49063SOL    HW249087  11.734   1.918   7.066
49064SOL     OW49088   1.519  12.623   8.969
49064SOL    HW149089   1.517  12.613   9.065
49064SOL    HW249090   1.461  12.554   8.936
49065SOL     OW49091  12.364   5.019   8.512
49065SOL    HW149092  12.288   5.052   8.561
49065SOL    HW249093  12.360   5.064   8.428
49066SOL     OW49094  10.548   7.270  13.987
49066SOL    HW149095  10.475   7.324  13.958
49066SOL    HW249096  10.517   7.180  13.975
49067SOL     OW49097   7.661  13.994   8.617
49067SOL    HW149098   7.721  14.003   8.690
49067SOL    HW249099   7.671  14.076   8.567
49068SOL     OW49100  10.933   9.883   7.702
49068SOL    HW149101  10.975   9.968   7.718
49068SOL    HW249102  11.003   9.819   7.713
49069SOL     OW49103   3.970   3.888   0.631
49069SOL    HW149104   4.007   3.855   0.549
49069SOL    HW249105   3.921   3.814   0.666
49070SOL     OW49106  11.924  14.579   8.462
49070SOL    HW149107  11.947  14.494   8.499
49070SOL    HW249108  11.886  14.559   8.377
49071SOL     OW49109  10.559  13.217  12.545
49071SOL    HW149110  10.579  13.287  12.607
49071SOL    HW249111  10.484  13.171  12.584
49072SOL     OW49112   7.090   2.643   5.184
49072SOL    HW149113   7.009   2.635   5.234
49072SOL    HW249114   7.097   2.736   5.164
49073SOL     OW49115   8.904   8.848   4.296
49073SOL    HW149116   8.977   8.811   4.246
49073SOL    HW249117   8.945   8.889   4.372
49074SOL     OW49118  13.387  11.967   4.178
49074SOL    HW149119  13.346  11.884   4.202
49074SOL    HW249120  13.355  12.029   4.243
49075SOL     OW49121  13.670  14.248   9.336
49075SOL    HW149122  13.584  14.254   9.294
49075SOL    HW249123  13.687  14.337   9.369
49076SOL     OW49124   6.198   9.441   4.122
49076SOL    HW149125   6.262   9.508   4.143
49076SOL    HW249126   6.113   9.485   4.129
49077SOL     OW49127   4.869   1.007   4.486
49077SOL    HW149128   4.824   1.082   4.526
49077SOL    HW249129   4.817   0.931   4.512
49078SOL     OW49130  12.080   3.534  12.679
49078SOL    HW149131  12.127   3.458  12.713
49078SOL    HW249132  12.098   3.532  12.584
49079SOL     OW49133   7.630   2.093  11.206
49079SOL    HW149134   7.556   2.138  11.165
49079SOL    HW249135   7.630   2.123  11.296
49080SOL     OW49136   2.932   7.165   7.544
49080SOL    HW149137   2.882   7.108   7.602
49080SOL    HW249138   2.983   7.105   7.490
49081SOL     OW49139   6.542   4.480  13.349
49081SOL    HW149140   6.571   4.571  13.341
49081SOL    HW249141   6.448   4.485  13.366
49082SOL     OW49142  11.515  13.002   3.931
49082SOL    HW149143  11.521  12.986   4.025
49082SOL    HW249144  11.559  12.927   3.891
49083SOL     OW49145   8.800  10.907   7.028
49083SOL    HW149146   8.761  10.986   6.990
49083SOL    HW249147   8.798  10.843   6.956
49084SOL     OW49148   9.123   3.764  10.281
49084SOL    HW149149   9.165   3.679  10.264
49084SOL    HW249150   9.195   3.827  10.279
49085SOL     OW49151  11.315  12.262   5.947
49085SOL    HW149152  11.290  12.171   5.961
49085SOL    HW249153  11.406  12.267   5.976
49086SOL     OW49154   4.534   3.246  10.816
49086SOL    HW149155   4.454   3.283  10.853
49086SOL    HW249156   4.599   3.315  10.826
49087SOL     OW49157  11.168   0.163   5.184
49087SOL    HW149158  11.210   0.187   5.267
49087SOL    HW249159  11.188   0.236   5.126
49088SOL     OW49160   1.412   2.576   7.815
49088SOL    HW149161   1.329   2.541   7.783
49088SOL    HW249162   1.388   2.659   7.857
49089SOL     OW49163  12.533   6.977   5.447
49089SOL    HW149164  12.459   6.980   5.386
49089SOL    HW249165  12.604   7.022   5.402
49090SOL     OW49166   2.222   6.406  12.106
49090SOL    HW149167   2.272   6.369  12.033
49090SOL    HW249168   2.267   6.488  12.127
49091SOL     OW49169   2.840  11.430  10.097
49091SOL    HW149170   2.910  11.479  10.140
49091SOL    HW249171   2.810  11.367  10.163
49092SOL     OW49172   5.484  13.256   2.125
49092SOL    HW149173   5.514  13.207   2.202
49092SOL    HW249174   5.524  13.342   2.136
49093SOL     OW49175   2.274   9.466   9.362
49093SOL    HW149176   2.359   9.473   9.406
49093SOL    HW249177   2.214   9.515   9.418
49094SOL     OW49178   3.181   7.270   4.448
49094SOL    HW149179   3.123   7.244   4.519
49094SOL    HW249180   3.181   7.195   4.388
49095SOL     OW49181   4.325  14.381   0.375
49095SOL    HW149182   4.258  14.440   0.411
49095SOL    HW249183   4.276  14.306   0.342
49096SOL     OW49184  10.737   1.235   8.458
49096SOL    HW149185  10.656   1.277   8.431
49096SOL    HW249186  10.712   1.144   8.478
49097SOL     OW49187   9.950   3.904  10.943
49097SOL    HW149188   9.927   3.971  10.878
49097SOL    HW249189   9.891   3.831  10.924
49098SOL     OW49190   4.364   5.681  12.089
49098SOL    HW149191   4.435   5.743  12.102
49098SOL    HW249192   4.380   5.645  12.002
49099SOL     OW49193   9.985   7.350  10.128
49099SOL    HW149194   9.955   7.261  10.113
49099SOL    HW249195   9.994   7.357  10.223
49100SOL     OW49196   1.389  11.889   4.821
49100SOL    HW149197   1.311  11.849   4.784
49100SOL    HW249198   1.462  11.850   4.773
49101SOL     OW49199   6.072   9.284  14.223
49101SOL    HW149200   6.156   9.282  14.177
49101SOL    HW249201   6.038   9.195  14.215
49102SOL     OW49202   7.212   5.080  13.724
49102SOL    HW149203   7.198   5.170  13.693
49102SOL    HW249204   7.290   5.050  13.676
49103SOL     OW49205   2.791  12.275   5.064
49103SOL    HW149206   2.732  12.259   5.138
49103SOL    HW249207   2.836  12.192   5.051
49104SOL     OW49208   3.960   6.155  10.386
49104SOL    HW149209   4.026   6.215  10.422
49104SOL    HW249210   3.926   6.201  10.309
49105SOL     OW49211   7.615   5.422   6.706
49105SOL    HW149212   7.630   5.329   6.690
49105SOL    HW249213   7.533   5.441   6.660
49106SOL     OW49214   8.568  12.140   5.826
49106SOL    HW149215   8.559  12.222   5.778
49106SOL    HW249216   8.590  12.075   5.759
49107SOL     OW49217  13.071   9.266  11.609
49107SOL    HW149218  13.091   9.173  11.612
49107SOL    HW249219  13.045   9.289  11.698
49108SOL     OW49220   3.542   2.589   6.276
49108SOL    HW149221   3.560   2.655   6.210
49108SOL    HW249222   3.583   2.623   6.356
49109SOL     OW49223   2.279   6.454  12.488
49109SOL    HW149224   2.272   6.519  12.418
49109SOL    HW249225   2.215   6.481  12.554
49110SOL     OW49226   4.943   1.767   0.002
49110SOL    HW149227   4.988   1.706   0.062
49110SOL    HW249228   4.859   1.785   0.044
49111SOL     OW49229  11.821  12.974  12.690
49111SOL    HW149230  11.810  12.991  12.597
49111SOL    HW249231  11.786  13.052  12.733
49112SOL     OW49232   1.560   2.834   8.657
49112SOL    HW149233   1.493   2.786   8.608
49112SOL    HW249234   1.517   2.916   8.682
49113SOL     OW49235   5.158  12.083   9.177
49113SOL    HW149236   5.072  12.069   9.136
49113SOL    HW249237   5.144  12.062   9.269
49114SOL     OW49238   3.530  13.263   4.774
49114SOL    HW149239   3.590  13.283   4.702
49114SOL    HW249240   3.578  13.290   4.853
49115SOL     OW49241   2.310   5.912   1.370
49115SOL    HW149242   2.336   6.003   1.353
49115SOL    HW249243   2.218   5.917   1.394
49116SOL     OW49244   8.847   0.485   9.578
49116SOL    HW149245   8.814   0.441   9.656
49116SOL    HW249246   8.773   0.483   9.517
49117SOL     OW49247   9.711   9.643   8.505
49117SOL    HW149248   9.803   9.623   8.523
49117SOL    HW249249   9.688   9.587   8.432
49118SOL     OW49250  10.041   1.284   1.906
49118SOL    HW149251   9.967   1.270   1.847
49118SOL    HW249252  10.084   1.363   1.874
49119SOL     OW49253   8.279   6.531  14.298
49119SOL    HW149254   8.196   6.513  14.255
49119SOL    HW249255   8.324   6.447  14.299
49120SOL     OW49256   3.325   0.347  11.047
49120SOL    HW149257   3.333   0.322  10.955
49120SOL    HW249258   3.415   0.359  11.076
49121SOL     OW49259  12.172  12.674   2.432
49121SOL    HW149260  12.093  12.725   2.446
49121SOL    HW249261  12.199  12.695   2.342
49122SOL     OW49262   6.382  12.301   3.471
49122SOL    HW149263   6.384  12.206   3.457
49122SOL    HW249264   6.453  12.335   3.418
49123SOL     OW49265  11.016  11.703   5.580
49123SOL    HW149266  10.976  11.653   5.652
49123SOL    HW249267  10.944  11.752   5.542
49124SOL     OW49268   2.774   0.450   3.091
49124SOL    HW149269   2.747   0.535   3.056
49124SOL    HW249270   2.692   0.404   3.109
49125SOL     OW49271   2.325   3.829  10.737
49125SOL    HW149272   2.417   3.846  10.757
49125SOL    HW249273   2.319   3.733  10.735
49126SOL     OW49274  12.904   3.084  10.682
49126SOL    HW149275  12.858   3.121  10.607
49126SOL    HW249276  12.945   3.004  10.648
49127SOL     OW49277   2.135   2.354   3.729
49127SOL    HW149278   2.198   2.409   3.775
49127SOL    HW249279   2.057   2.409   3.720
49128SOL     OW49280  13.880   8.580  10.880
49128SOL    HW149281  13.823   8.512  10.917
49128SOL    HW249282  13.963   8.535  10.862
49129SOL     OW49283   4.494  14.142  10.435
49129SOL    HW149284   4.509  14.194  10.514
49129SOL    HW249285   4.444  14.066  10.465
49130SOL     OW49286   2.283  12.568   6.441
49130SOL    HW149287   2.206  12.623   6.454
49130SOL    HW249288   2.329  12.569   6.525
49131SOL     OW49289   1.378   8.786   0.899
49131SOL    HW149290   1.376   8.692   0.920
49131SOL    HW249291   1.348   8.791   0.809
49132SOL     OW49292  14.449  14.355  14.464
49132SOL    HW149293  14.359  14.326  14.475
49132SOL    HW249294  14.502  14.276  14.479
49133SOL     OW49295   2.465   8.501  13.459
49133SOL    HW149296   2.511   8.497  13.543
49133SOL    HW249297   2.471   8.412  13.424
49134SOL     OW49298  13.438   0.758   8.421
49134SOL    HW149299  13.426   0.787   8.331
49134SOL    HW249300  13.456   0.664   8.414
49135SOL     OW49301   9.230   1.080   0.789
49135SOL    HW149302   9.196   1.116   0.707
49135SOL    HW249303   9.281   1.003   0.762
49136SOL     OW49304   6.168   9.472  11.296
49136SOL    HW149305   6.201   9.478  11.206
49136SOL    HW249306   6.143   9.380  11.305
49137SOL     OW49307  12.847   5.969   4.158
49137SOL    HW149308  12.769   5.976   4.104
49137SOL    HW249309  12.880   6.059   4.164
49138SOL     OW49310   4.038   6.143  10.753
49138SOL    HW149311   4.033   6.115  10.844
49138SOL    HW249312   4.132   6.147  10.734
49139SOL     OW49313  10.124  10.670  12.061
49139SOL    HW149314  10.169  10.754  12.059
49139SOL    HW249315  10.138  10.638  12.151
49140SOL     OW49316   0.135   2.217   9.451
49140SOL    HW149317   0.194   2.184   9.519
49140SOL    HW249318   0.113   2.140   9.399
49141SOL     OW49319   2.122   9.559   9.843
49141SOL    HW149320   2.151   9.631   9.787
49141SOL    HW249321   2.126   9.594   9.931
49142SOL     OW49322   1.826   0.960   8.124
49142SOL    HW149323   1.762   0.970   8.195
49142SOL    HW249324   1.807   0.874   8.087
49143SOL     OW49325   0.500   7.109   3.094
49143SOL    HW149326   0.496   7.172   3.022
49143SOL    HW249327   0.500   7.024   3.051
49144SOL     OW49328  14.843   0.631  14.230
49144SOL    HW149329   0.011   0.694  14.282
49144SOL    HW249330  14.865   0.652  14.139
49145SOL     OW49331   4.897   2.270   1.630
49145SOL    HW149332   4.936   2.188   1.600
49145SOL    HW249333   4.895   2.326   1.552
49146SOL     OW49334  12.220   8.203  14.399
49146SOL    HW149335  12.220   8.107  14.395
49146SOL    HW249336  12.155   8.229  14.334
49147SOL     OW49337   8.570   4.563  10.547
49147SOL    HW149338   8.572   4.543  10.641
49147SOL    HW249339   8.595   4.655  10.542
49148SOL     OW49340   2.961  10.236   0.274
49148SOL    HW149341   2.930  10.154   0.236
49148SOL    HW249342   2.882  10.287   0.288
49149SOL     OW49343   8.653   9.010   5.403
49149SOL    HW149344   8.634   9.074   5.471
49149SOL    HW249345   8.600   9.037   5.327
49150SOL     OW49346  12.353  12.754  14.182
49150SOL    HW149347  12.439  12.775  14.219
49150SOL    HW249348  12.363  12.768  14.088
49151SOL     OW49349   9.869   4.721   1.999
49151SOL    HW149350   9.857   4.801   1.948
49151SOL    HW249351   9.803   4.661   1.965
49152SOL     OW49352   8.961  12.873  10.795
49152SOL    HW149353   8.877  12.854  10.752
49152SOL    HW249354   9.027  12.850  10.729
49153SOL     OW49355   4.338  14.175   3.308
49153SOL    HW149356   4.243  14.174   3.318
49153SOL    HW249357   4.362  14.084   3.295
49154SOL     OW49358  13.443   7.676   7.554
49154SOL    HW149359  13.410   7.594   7.515
49154SOL    HW249360  13.452   7.656   7.647
49155SOL     OW49361   4.731  11.786  10.076
49155SOL    HW149362   4.636  11.776  10.080
49155SOL    HW249363   4.758  11.735   9.999
49156SOL     OW49364   1.441   1.463   6.375
49156SOL    HW149365   1.431   1.401   6.303
49156SOL    HW249366   1.533   1.456   6.400
49157SOL     OW49367   8.012  10.026   1.755
49157SOL    HW149368   8.094  10.074   1.757
49157SOL    HW249369   7.944  10.094   1.750
49158SOL     OW49370   5.794   4.512  12.982
49158SOL    HW149371   5.777   4.422  12.954
49158SOL    HW249372   5.794   4.563  12.900
49159SOL     OW49373   7.067   6.899   5.456
49159SOL    HW149374   7.138   6.959   5.480
49159SOL    HW249375   6.996   6.919   5.516
49160SOL     OW49376  11.427   9.276  13.658
49160SOL    HW149377  11.422   9.224  13.578
49160SOL    HW249378  11.337   9.282  13.689
49161SOL     OW49379   6.579   2.121  14.280
49161SOL    HW149380   6.561   2.041  14.329
49161SOL    HW249381   6.545   2.191  14.336
49162SOL     OW49382   4.481   7.811   8.472
49162SOL    HW149383   4.518   7.813   8.383
49162SOL    HW249384   4.555   7.832   8.529
49163SOL     OW49385   5.400   2.157   8.743
49163SOL    HW149386   5.317   2.148   8.697
49163SOL    HW249387   5.451   2.219   8.690
49164SOL     OW49388   4.574  12.231   9.761
49164SOL    HW149389   4.626  12.311   9.756
49164SOL    HW249390   4.628  12.165   9.717
49165SOL     OW49391   7.881   2.521   4.076
49165SOL    HW149392   7.787   2.530   4.066
49165SOL    HW249393   7.894   2.503   4.169
49166SOL     OW49394   7.450  13.445   1.941
49166SOL    HW149395   7.546  13.449   1.944
49166SOL    HW249396   7.431  13.351   1.941
49167SOL     OW49397  11.048  14.440  12.068
49167SOL    HW149398  11.052  14.520  12.016
49167SOL    HW249399  11.063  14.370  12.004
49168SOL     OW49400  11.987   9.751  14.415
49168SOL    HW149401  11.892   9.753  14.402
49168SOL    HW249402  11.998   9.716  14.503
49169SOL     OW49403   4.869   2.741   9.827
49169SOL    HW149404   4.775   2.761   9.833
49169SOL    HW249405   4.910   2.799   9.891
49170SOL     OW49406   3.851   1.674   7.385
49170SOL    HW149407   3.788   1.646   7.451
49170SOL    HW249408   3.831   1.766   7.370
49171SOL     OW49409  13.790  12.581   2.203
49171SOL    HW149410  13.882  12.555   2.196
49171SOL    HW249411  13.774  12.586   2.298
49172SOL     OW49412   1.265   9.183  11.619
49172SOL    HW149413   1.215   9.145  11.691
49172SOL    HW249414   1.215   9.262  11.595
49173SOL     OW49415  13.215  14.413  14.045
49173SOL    HW149416  13.189  14.494  14.088
49173SOL    HW249417  13.162  14.346  14.087
49174SOL     OW49418   2.364   4.838   9.069
49174SOL    HW149419   2.342   4.930   9.055
49174SOL    HW249420   2.333   4.794   8.990
49175SOL     OW49421   2.187   1.124   2.946
49175SOL    HW149422   2.171   1.056   3.011
49175SOL    HW249423   2.132   1.197   2.973
49176SOL     OW49424  14.158   9.023  14.369
49176SOL    HW149425  14.208   8.947  14.399
49176SOL    HW249426  14.163   9.019  14.274
49177SOL     OW49427   8.115  13.801   6.114
49177SOL    HW149428   8.200  13.799   6.159
49177SOL    HW249429   8.076  13.884   6.141
49178SOL     OW49430   9.679  12.758   3.068
49178SOL    HW149431   9.734  12.733   3.142
49178SOL    HW249432   9.609  12.812   3.107
49179SOL     OW49433  12.720  13.253   8.242
49179SOL    HW149434  12.667  13.260   8.321
49179SOL    HW249435  12.691  13.172   8.200
49180SOL     OW49436  11.163  12.840  11.163
49180SOL    HW149437  11.092  12.866  11.221
49180SOL    HW249438  11.189  12.921  11.119
49181SOL     OW49439   8.673   4.574   9.133
49181SOL    HW149440   8.580   4.596   9.118
49181SOL    HW249441   8.718   4.612   9.058
49182SOL     OW49442   7.367   0.436   2.448
49182SOL    HW149443   7.424   0.496   2.497
49182SOL    HW249444   7.279   0.472   2.459
49183SOL     OW49445   1.122   9.146   1.292
49183SOL    HW149446   1.195   9.101   1.334
49183SOL    HW249447   1.052   9.143   1.357
49184SOL     OW49448   1.942  14.170   4.455
49184SOL    HW149449   2.000  14.229   4.503
49184SOL    HW249450   1.936  14.091   4.509
49185SOL     OW49451   3.142   0.322   1.068
49185SOL    HW149452   3.155   0.258   1.138
49185SOL    HW249453   3.223   0.374   1.068
49186SOL     OW49454   2.628  14.772   0.663
49186SOL    HW149455   2.539  14.805   0.653
49186SOL    HW249456   2.642  14.717   0.586
49187SOL     OW49457  14.113  13.414   4.800
49187SOL    HW149458  14.093  13.367   4.881
49187SOL    HW249459  14.090  13.505   4.819
49188SOL     OW49460   1.646  11.114   7.072
49188SOL    HW149461   1.669  11.163   7.151
49188SOL    HW249462   1.660  11.176   7.000
49189SOL     OW49463   9.943   1.716   5.333
49189SOL    HW149464   9.993   1.642   5.301
49189SOL    HW249465   9.851   1.688   5.325
49190SOL     OW49466   3.120   1.184  13.406
49190SOL    HW149467   3.089   1.162  13.319
49190SOL    HW249468   3.059   1.251  13.437
49191SOL     OW49469  13.226   6.080  12.591
49191SOL    HW149470  13.265   5.994  12.611
49191SOL    HW249471  13.148   6.083  12.647
49192SOL     OW49472   0.459   2.001   3.484
49192SOL    HW149473   0.386   2.012   3.423
49192SOL    HW249474   0.431   2.049   3.563
49193SOL     OW49475   3.683   1.208   6.219
49193SOL    HW149476   3.724   1.220   6.133
49193SOL    HW249477   3.752   1.229   6.281
49194SOL     OW49478  10.185  11.370   2.183
49194SOL    HW149479  10.140  11.305   2.129
49194SOL    HW249480  10.143  11.453   2.160
49195SOL     OW49481  11.860  12.390  14.030
49195SOL    HW149482  11.870  12.315  14.088
49195SOL    HW249483  11.944  12.436  14.036
49196SOL     OW49484   0.992   4.204   6.076
49196SOL    HW149485   1.000   4.109   6.065
49196SOL    HW249486   0.916   4.215   6.133
49197SOL     OW49487  13.227   2.016  12.154
49197SOL    HW149488  13.165   2.062  12.098
49197SOL    HW249489  13.173   1.979  12.224
49198SOL     OW49490   9.579   2.010   1.736
49198SOL    HW149491   9.485   1.991   1.728
49198SOL    HW249492   9.613   1.940   1.792
49199SOL     OW49493   2.374  10.696  13.008
49199SOL    HW149494   2.463  10.731  12.996
49199SOL    HW249495   2.369  10.624  12.946
49200SOL     OW49496  10.580   3.421  10.663
49200SOL    HW149497  10.548   3.337  10.696
49200SOL    HW249498  10.502   3.469  10.639
49201SOL     OW49499  13.086   2.811   0.836
49201SOL    HW149500  13.057   2.854   0.916
49201SOL    HW249501  13.049   2.723   0.841
49202SOL     OW49502   5.719   4.507   0.283
49202SOL    HW149503   5.715   4.597   0.252
49202SOL    HW249504   5.751   4.513   0.373
49203SOL     OW49505  11.494  10.357  12.652
49203SOL    HW149506  11.485  10.281  12.709
49203SOL    HW249507  11.582  10.349  12.615
49204SOL     OW49508   8.991   9.964  10.291
49204SOL    HW149509   8.949   9.889  10.250
49204SOL    HW249510   9.078   9.933  10.316
49205SOL     OW49511   8.030   0.067   7.583
49205SOL    HW149512   8.034   0.102   7.494
49205SOL    HW249513   7.993  14.861   7.573
49206SOL     OW49514  14.037   6.087   6.383
49206SOL    HW149515  14.099   6.022   6.416
49206SOL    HW249516  13.975   6.037   6.330
49207SOL     OW49517   5.724  11.495   3.587
49207SOL    HW149518   5.709  11.426   3.651
49207SOL    HW249519   5.689  11.574   3.628
49208SOL     OW49520   0.751   9.864   8.922
49208SOL    HW149521   0.729   9.777   8.887
49208SOL    HW249522   0.745   9.922   8.846
49209SOL     OW49523  11.606  12.892   5.824
49209SOL    HW149524  11.604  12.981   5.789
49209SOL    HW249525  11.638  12.838   5.751
49210SOL     OW49526  10.260   3.614  11.015
49210SOL    HW149527  10.309   3.533  11.005
49210SOL    HW249528  10.193   3.610  10.947
49211SOL     OW49529  11.220   3.946   0.248
49211SOL    HW149530  11.313   3.945   0.271
49211SOL    HW249531  11.218   3.932   0.154
49212SOL     OW49532   5.513  12.305   0.759
49212SOL    HW149533   5.422  12.285   0.781
49212SOL    HW249534   5.554  12.327   0.843
49213SOL     OW49535   2.831  11.895  13.143
49213SOL    HW149536   2.918  11.908  13.182
49213SOL    HW249537   2.785  11.977  13.160
49214SOL     OW49538  12.419   1.691   1.195
49214SOL    HW149539  12.414   1.759   1.128
49214SOL    HW249540  12.504   1.705   1.237
49215SOL     OW49541  13.150   4.788   9.221
49215SOL    HW149542  13.120   4.871   9.184
49215SOL    HW249543  13.176   4.736   9.145
49216SOL     OW49544   1.603  12.066  11.705
49216SOL    HW149545   1.561  12.146  11.736
49216SOL    HW249546   1.675  12.052  11.767
49217SOL     OW49547   1.131  13.250   6.636
49217SOL    HW149548   1.075  13.172   6.632
49217SOL    HW249549   1.180  13.250   6.554
49218SOL     OW49550   6.550   3.944   9.812
49218SOL    HW149551   6.507   4.029   9.822
49218SOL    HW249552   6.602   3.935   9.892
49219SOL     OW49553  14.246   5.263   1.314
49219SOL    HW149554  14.303   5.242   1.389
49219SOL    HW249555  14.264   5.356   1.296
49220SOL     OW49556  14.612   3.233  13.039
49220SOL    HW149557  14.648   3.297  13.101
49220SOL    HW249558  14.543   3.189  13.088
49221SOL     OW49559   9.936   8.241   0.634
49221SOL    HW149560   9.971   8.168   0.686
49221SOL    HW249561   9.853   8.262   0.676
49222SOL     OW49562   6.708  13.005   5.125
49222SOL    HW149563   6.792  13.042   5.099
49222SOL    HW249564   6.729  12.948   5.198
49223SOL     OW49565   7.188   3.555   5.785
49223SOL    HW149566   7.224   3.541   5.698
49223SOL    HW249567   7.095   3.571   5.771
49224SOL     OW49568   7.353   2.708   2.587
49224SOL    HW149569   7.386   2.666   2.507
49224SOL    HW249570   7.328   2.796   2.559
49225SOL     OW49571   3.413   5.466   4.027
49225SOL    HW149572   3.468   5.544   4.032
49225SOL    HW249573   3.406   5.436   4.118
49226SOL     OW49574   8.690   0.623   2.300
49226SOL    HW149575   8.716   0.699   2.247
49226SOL    HW249576   8.631   0.573   2.243
49227SOL     OW49577   4.813   0.877   6.817
49227SOL    HW149578   4.763   0.800   6.843
49227SOL    HW249579   4.794   0.943   6.884
49228SOL     OW49580   2.087   7.201  12.455
49228SOL    HW149581   2.150   7.222  12.387
49228SOL    HW249582   2.113   7.255  12.529
49229SOL     OW49583  14.047   8.688   4.933
49229SOL    HW149584  14.022   8.607   4.979
49229SOL    HW249585  14.044   8.665   4.841
49230SOL     OW49586   3.988   7.452  10.204
49230SOL    HW149587   3.929   7.475  10.276
49230SOL    HW249588   3.969   7.517  10.137
49231SOL     OW49589   4.299   5.578   9.952
49231SOL    HW149590   4.245   5.656   9.940
49231SOL    HW249591   4.307   5.541   9.864
49232SOL     OW49592   4.303  11.819   2.696
49232SOL    HW149593   4.273  11.910   2.701
49232SOL    HW249594   4.230  11.769   2.732
49233SOL     OW49595  11.149   0.684   1.038
49233SOL    HW149596  11.232   0.710   1.077
49233SOL    HW249597  11.156   0.711   0.946
49234SOL     OW49598  12.091   9.154  10.650
49234SOL    HW149599  12.163   9.134  10.590
49234SOL    HW249600  12.113   9.240  10.687
49235SOL     OW49601   5.554   4.919   4.155
49235SOL    HW149602   5.535   4.970   4.233
49235SOL    HW249603   5.627   4.966   4.113
49236SOL     OW49604  14.276   8.178  11.503
49236SOL    HW149605  14.328   8.134  11.570
49236SOL    HW249606  14.193   8.199  11.547
49237SOL     OW49607   4.404   9.793  11.755
49237SOL    HW149608   4.447   9.773  11.838
49237SOL    HW249609   4.451   9.740  11.691
49238SOL     OW49610  13.903   7.362  12.623
49238SOL    HW149611  13.832   7.425  12.616
49238SOL    HW249612  13.866   7.281  12.589
49239SOL     OW49613  12.166  11.228   0.845
49239SOL    HW149614  12.241  11.276   0.879
49239SOL    HW249615  12.093  11.290   0.850
49240SOL     OW49616   3.960   2.746   1.745
49240SOL    HW149617   3.933   2.736   1.837
49240SOL    HW249618   3.943   2.838   1.725
49241SOL     OW49619  11.010   3.532  13.527
49241SOL    HW149620  11.082   3.550  13.587
49241SOL    HW249621  11.038   3.570  13.444
49242SOL     OW49622  10.368  14.348   4.678
49242SOL    HW149623  10.325  14.276   4.723
49242SOL    HW249624  10.402  14.309   4.597
49243SOL     OW49625   6.859   7.669   3.955
49243SOL    HW149626   6.931   7.655   3.893
49243SOL    HW249627   6.865   7.594   4.015
49244SOL     OW49628   7.589   4.838   4.572
49244SOL    HW149629   7.518   4.792   4.528
49244SOL    HW249630   7.657   4.847   4.505
49245SOL     OW49631   7.907   5.394   9.865
49245SOL    HW149632   7.811   5.401   9.860
49245SOL    HW249633   7.939   5.451   9.795
49246SOL     OW49634   6.909   0.667   5.474
49246SOL    HW149635   6.836   0.687   5.415
49246SOL    HW249636   6.900   0.573   5.492
49247SOL     OW49637   9.973   7.910   7.894
49247SOL    HW149638   9.891   7.888   7.850
49247SOL    HW249639  10.029   7.833   7.880
49248SOL     OW49640   9.867   5.407   8.209
49248SOL    HW149641   9.809   5.479   8.236
49248SOL    HW249642   9.953   5.447   8.203
49249SOL     OW49643  14.455   6.447  14.195
49249SOL    HW149644  14.377   6.408  14.156
49249SOL    HW249645  14.482   6.385  14.262
49250SOL     OW49646   0.029   9.291   5.202
49250SOL    HW149647  14.842   9.357   5.199
49250SOL    HW249648  14.866   9.208   5.219
49251SOL     OW49649   7.329   1.037   9.750
49251SOL    HW149650   7.278   1.020   9.670
49251SOL    HW249651   7.276   0.998   9.820
49252SOL     OW49652  14.446   8.372  13.112
49252SOL    HW149653  14.449   8.315  13.036
49252SOL    HW249654  14.507   8.443  13.091
49253SOL     OW49655   2.381   4.025  12.688
49253SOL    HW149656   2.404   4.017  12.780
49253SOL    HW249657   2.458   4.064  12.647
49254SOL     OW49658  11.012   6.330  11.224
49254SOL    HW149659  11.062   6.291  11.296
49254SOL    HW249660  11.034   6.277  11.147
49255SOL     OW49661   8.368   5.923   1.962
49255SOL    HW149662   8.329   5.835   1.961
49255SOL    HW249663   8.296   5.981   1.987
49256SOL     OW49664   7.278   2.811   3.765
49256SOL    HW149665   7.311   2.850   3.684
49256SOL    HW249666   7.302   2.718   3.759
49257SOL     OW49667   3.520  14.698   5.177
49257SOL    HW149668   3.516  14.672   5.085
49257SOL    HW249669   3.590  14.646   5.214
49258SOL     OW49670   7.056  13.482   9.809
49258SOL    HW149671   7.091  13.568   9.789
49258SOL    HW249672   7.133  13.425   9.815
49259SOL     OW49673  10.608  10.262   6.653
49259SOL    HW149674  10.648  10.186   6.695
49259SOL    HW249675  10.674  10.293   6.592
49260SOL     OW49676   7.989   5.749  11.516
49260SOL    HW149677   7.998   5.824  11.458
49260SOL    HW249678   7.988   5.673  11.458
49261SOL     OW49679   4.689   2.243   5.808
49261SOL    HW149680   4.752   2.303   5.848
49261SOL    HW249681   4.680   2.274   5.719
49262SOL     OW49682   0.762   2.545   8.418
49262SOL    HW149683   0.827   2.572   8.483
49262SOL    HW249684   0.796   2.577   8.335
49263SOL     OW49685   8.572   0.802  13.796
49263SOL    HW149686   8.567   0.733  13.730
49263SOL    HW249687   8.577   0.754  13.879
49264SOL     OW49688  10.923   3.717   6.196
49264SOL    HW149689  10.900   3.793   6.143
49264SOL    HW249690  10.840   3.681   6.226
49265SOL     OW49691   7.937  10.547  12.545
49265SOL    HW149692   8.012  10.589  12.587
49265SOL    HW249693   7.976  10.479  12.490
49266SOL     OW49694   5.750   6.779  12.901
49266SOL    HW149695   5.789   6.697  12.930
49266SOL    HW249696   5.817   6.820  12.847
49267SOL     OW49697   1.142   7.936   4.036
49267SOL    HW149698   1.181   7.956   3.951
49267SOL    HW249699   1.217   7.928   4.095
49268SOL     OW49700  14.043   3.241   0.431
49268SOL    HW149701  14.130   3.236   0.391
49268SOL    HW249702  14.013   3.151   0.435
49269SOL     OW49703  11.019  12.666  10.958
49269SOL    HW149704  11.054  12.732  11.018
49269SOL    HW249705  11.039  12.582  10.999
49270SOL     OW49706   4.485   6.546   0.246
49270SOL    HW149707   4.580   6.533   0.253
49270SOL    HW249708   4.461   6.505   0.163
49271SOL     OW49709  14.772  14.023  14.714
49271SOL    HW149710  14.734  13.939  14.689
49271SOL    HW249711  14.855  14.000  14.754
49272SOL     OW49712   3.330  12.333   7.587
49272SOL    HW149713   3.335  12.406   7.648
49272SOL    HW249714   3.417  12.330   7.546
49273SOL     OW49715   0.458   5.097   5.435
49273SOL    HW149716   0.379   5.048   5.411
49273SOL    HW249717   0.497   5.121   5.351
49274SOL     OW49718   1.013   9.456  10.435
49274SOL    HW149719   1.103   9.442  10.407
49274SOL    HW249720   0.989   9.541  10.399
49275SOL     OW49721   5.800   3.689  13.201
49275SOL    HW149722   5.847   3.763  13.240
49275SOL    HW249723   5.747   3.655  13.273
49276SOL     OW49724   9.394   7.673   8.705
49276SOL    HW149725   9.461   7.620   8.661
49276SOL    HW249726   9.353   7.723   8.635
49277SOL     OW49727  14.139  13.007  10.261
49277SOL    HW149728  14.197  13.045  10.327
49277SOL    HW249729  14.083  13.080  10.234
49278SOL     OW49730   7.977  10.861   9.092
49278SOL    HW149731   7.939  10.833   9.176
49278SOL    HW249732   7.901  10.872   9.034
49279SOL     OW49733  10.681  10.553   5.813
49279SOL    HW149734  10.751  10.515   5.760
49279SOL    HW249735  10.697  10.521   5.902
49280SOL     OW49736   5.125   5.169   1.584
49280SOL    HW149737   5.044   5.196   1.539
49280SOL    HW249738   5.095   5.136   1.669
49281SOL     OW49739   1.457   7.503  10.053
49281SOL    HW149740   1.421   7.415  10.044
49281SOL    HW249741   1.552   7.489  10.060
49282SOL     OW49742   7.428  12.580   0.470
49282SOL    HW149743   7.430  12.672   0.494
49282SOL    HW249744   7.518  12.550   0.484
49283SOL     OW49745   1.076   3.639   3.974
49283SOL    HW149746   1.127   3.652   4.054
49283SOL    HW249747   1.142   3.629   3.905
49284SOL     OW49748   0.179   3.759   0.602
49284SOL    HW149749   0.227   3.770   0.684
49284SOL    HW249750   0.137   3.844   0.588
49285SOL     OW49751   7.508   1.463  14.110
49285SOL    HW149752   7.543   1.375  14.099
49285SOL    HW249753   7.504   1.475  14.205
49286SOL     OW49754   8.979   1.476   1.737
49286SOL    HW149755   9.014   1.557   1.774
49286SOL    HW249756   8.980   1.489   1.642
49287SOL     OW49757   0.994   5.509   4.962
49287SOL    HW149758   0.950   5.593   4.950
49287SOL    HW249759   1.083   5.532   4.987
49288SOL     OW49760   4.087   1.648   2.732
49288SOL    HW149761   4.131   1.634   2.649
49288SOL    HW249762   4.006   1.598   2.725
49289SOL     OW49763   1.813  14.286  13.276
49289SOL    HW149764   1.801  14.354  13.342
49289SOL    HW249765   1.724  14.259  13.254
49290SOL     OW49766  14.680  13.414   9.917
49290SOL    HW149767  14.730  13.453   9.989
49290SOL    HW249768  14.732  13.339   9.889
49291SOL     OW49769   6.954   0.776  12.413
49291SOL    HW149770   7.005   0.736  12.483
49291SOL    HW249771   7.005   0.758  12.333
49292SOL     OW49772  10.200   3.454  12.719
49292SOL    HW149773  10.215   3.476  12.811
49292SOL    HW249774  10.284   3.423  12.687
49293SOL     OW49775   9.717   7.988   1.378
49293SOL    HW149776   9.751   8.077   1.374
49293SOL    HW249777   9.749   7.946   1.299
49294SOL     OW49778   6.156   5.788  10.788
49294SOL    HW149779   6.188   5.871  10.824
49294SOL    HW249780   6.139   5.808  10.695
49295SOL     OW49781   7.927   5.643   0.596
49295SOL    HW149782   7.957   5.666   0.684
49295SOL    HW249783   7.938   5.548   0.591
49296SOL     OW49784  10.531   9.177   2.177
49296SOL    HW149785  10.565   9.106   2.232
49296SOL    HW249786  10.486   9.235   2.237
49297SOL     OW49787   5.635   4.529  12.137
49297SOL    HW149788   5.605   4.557  12.224
49297SOL    HW249789   5.712   4.584  12.120
49298SOL     OW49790  13.335   1.516   0.636
49298SOL    HW149791  13.376   1.478   0.713
49298SOL    HW249792  13.407   1.536   0.577
49299SOL     OW49793   7.528   6.116  11.823
49299SOL    HW149794   7.514   6.182  11.755
49299SOL    HW249795   7.494   6.157  11.903
49300SOL     OW49796  10.117   3.036   2.373
49300SOL    HW149797  10.071   3.116   2.348
49300SOL    HW249798  10.130   2.988   2.291
49301SOL     OW49799   3.661  13.878   2.671
49301SOL    HW149800   3.724  13.917   2.731
49301SOL    HW249801   3.603  13.825   2.727
49302SOL     OW49802   9.791   6.811   6.256
49302SOL    HW149803   9.702   6.833   6.230
49302SOL    HW249804   9.783   6.730   6.306
49303SOL     OW49805  10.632   0.607   3.341
49303SOL    HW149806  10.637   0.517   3.373
49303SOL    HW249807  10.611   0.659   3.418
49304SOL     OW49808  13.158  14.335   8.086
49304SOL    HW149809  13.231  14.386   8.120
49304SOL    HW249810  13.193  14.247   8.076
49305SOL     OW49811  12.510   0.460  14.618
49305SOL    HW149812  12.575   0.410  14.569
49305SOL    HW249813  12.560   0.504  14.686
49306SOL     OW49814   3.183   1.245   7.268
49306SOL    HW149815   3.120   1.227   7.198
49306SOL    HW249816   3.159   1.331   7.301
49307SOL     OW49817   5.035   3.104   9.715
49307SOL    HW149818   5.028   3.018   9.674
49307SOL    HW249819   5.128   3.114   9.734
49308SOL     OW49820   3.749   9.518  12.480
49308SOL    HW149821   3.761   9.515  12.574
49308SOL    HW249822   3.775   9.607  12.455
49309SOL     OW49823   4.978   7.623   1.028
49309SOL    HW149824   4.941   7.549   0.981
49309SOL    HW249825   4.917   7.695   1.011
49310SOL     OW49826   9.830   5.605   3.389
49310SOL    HW149827   9.742   5.642   3.398
49310SOL    HW249828   9.887   5.680   3.371
49311SOL     OW49829   7.801   5.900   4.802
49311SOL    HW149830   7.801   5.853   4.718
49311SOL    HW249831   7.709   5.922   4.817
49312SOL     OW49832  11.777   1.475   2.686
49312SOL    HW149833  11.772   1.380   2.687
49312SOL    HW249834  11.859   1.496   2.730
49313SOL     OW49835   7.593  14.748   8.202
49313SOL    HW149836   7.591  14.753   8.106
49313SOL    HW249837   7.614  14.838   8.230
49314SOL     OW49838   5.239  12.453  12.657
49314SOL    HW149839   5.294  12.385  12.617
49314SOL    HW249840   5.186  12.486  12.585
49315SOL     OW49841   7.907   9.787   8.856
49315SOL    HW149842   7.989   9.837   8.855
49315SOL    HW249843   7.919   9.723   8.926
49316SOL     OW49844   0.806   5.924   8.542
49316SOL    HW149845   0.839   5.834   8.542
49316SOL    HW249846   0.874   5.974   8.588
49317SOL     OW49847   8.168   2.699  13.470
49317SOL    HW149848   8.244   2.692  13.413
49317SOL    HW249849   8.095   2.666  13.418
49318SOL     OW49850   5.715   1.810   7.269
49318SOL    HW149851   5.731   1.775   7.356
49318SOL    HW249852   5.786   1.872   7.254
49319SOL     OW49853  12.694   0.529  11.912
49319SOL    HW149854  12.702   0.560  12.002
49319SOL    HW249855  12.725   0.438  11.915
49320SOL     OW49856   5.330   5.580   3.506
49320SOL    HW149857   5.395   5.530   3.555
49320SOL    HW249858   5.345   5.671   3.531
49321SOL     OW49859   3.545   2.881   4.612
49321SOL    HW149860   3.485   2.949   4.642
49321SOL    HW249861   3.492   2.826   4.554
49322SOL     OW49862  10.386   0.624  14.205
49322SOL    HW149863  10.364   0.593  14.293
49322SOL    HW249864  10.353   0.714  14.202
49323SOL     OW49865   5.848   7.774  13.055
49323SOL    HW149866   5.754   7.780  13.074
49323SOL    HW249867   5.853   7.720  12.976
49324SOL     OW49868  10.671   0.545   2.913
49324SOL    HW149869  10.607   0.502   2.969
49324SOL    HW249870  10.748   0.558   2.969
49325SOL     OW49871   0.027   2.116  10.609
49325SOL    HW149872  14.842   2.082  10.549
49325SOL    HW249873  14.868   2.112  10.695
49326SOL     OW49874   1.777   7.966   8.169
49326SOL    HW149875   1.838   8.023   8.217
49326SOL    HW249876   1.713   8.025   8.131
49327SOL     OW49877   2.726   5.907   3.428
49327SOL    HW149878   2.729   5.831   3.486
49327SOL    HW249879   2.800   5.894   3.367
49328SOL     OW49880   5.981   9.699   0.746
49328SOL    HW149881   5.979   9.714   0.651
49328SOL    HW249882   5.898   9.734   0.777
49329SOL     OW49883  11.128   0.061   0.034
49329SOL    HW149884  11.211   0.095   0.066
49329SOL    HW249885  11.136   0.064  14.821
49330SOL     OW49886   0.699   6.607  10.179
49330SOL    HW149887   0.791   6.588  10.164
49330SOL    HW249888   0.658   6.596  10.093
49331SOL     OW49889   0.240  11.525   6.278
49331SOL    HW149890   0.258  11.515   6.185
49331SOL    HW249891   0.179  11.600   6.283
49332SOL     OW49892  11.416  11.974  14.224
49332SOL    HW149893  11.484  11.964  14.290
49332SOL    HW249894  11.454  11.935  14.145
49333SOL     OW49895  10.498   7.906   5.713
49333SOL    HW149896  10.463   7.994   5.722
49333SOL    HW249897  10.576   7.905   5.768
49334SOL     OW49898   2.343   4.864   4.291
49334SOL    HW149899   2.280   4.797   4.316
49334SOL    HW249900   2.360   4.912   4.373
49335SOL     OW49901  10.846   0.068  10.386
49335SOL    HW149902  10.803   0.046  10.468
49335SOL    HW249903  10.940   0.061  10.406
49336SOL     OW49904  14.279  10.710  11.920
49336SOL    HW149905  14.279  10.621  11.955
49336SOL    HW249906  14.290  10.766  11.997
49337SOL     OW49907  12.151   2.517   9.451
49337SOL    HW149908  12.159   2.422   9.445
49337SOL    HW249909  12.234   2.545   9.490
49338SOL     OW49910  10.809   1.159  13.313
49338SOL    HW149911  10.900   1.158  13.340
49338SOL    HW249912  10.773   1.239  13.351
49339SOL     OW49913  13.872   9.272  13.783
49339SOL    HW149914  13.779   9.257  13.768
49339SOL    HW249915  13.912   9.262  13.697
49340SOL     OW49916   0.917  11.936   9.927
49340SOL    HW149917   0.991  11.992   9.905
49340SOL    HW249918   0.943  11.849   9.896
49341SOL     OW49919  11.798   1.548  11.219
49341SOL    HW149920  11.716   1.591  11.196
49341SOL    HW249921  11.788   1.526  11.312
49342SOL     OW49922   5.278  11.559   2.905
49342SOL    HW149923   5.331  11.534   2.830
49342SOL    HW249924   5.332  11.537   2.981
49343SOL     OW49925  11.583   0.625   3.768
49343SOL    HW149926  11.617   0.604   3.681
49343SOL    HW249927  11.625   0.708   3.791
49344SOL     OW49928  11.773  13.362   9.840
49344SOL    HW149929  11.684  13.355   9.804
49344SOL    HW249930  11.796  13.454   9.829
49345SOL     OW49931   9.295   7.502  14.844
49345SOL    HW149932   9.327   7.495  14.754
49345SOL    HW249933   9.364   7.551   0.008
49346SOL     OW49934   9.954   3.761   0.517
49346SOL    HW149935   9.917   3.799   0.438
49346SOL    HW249936  10.019   3.825   0.547
49347SOL     OW49937   3.561   0.069   5.103
49347SOL    HW149938   3.487   0.082   5.042
49347SOL    HW249939   3.552  14.861   5.133
49348SOL     OW49940   1.398   9.260   3.122
49348SOL    HW149941   1.430   9.269   3.212
49348SOL    HW249942   1.303   9.267   3.130
49349SOL     OW49943   2.887  14.431  13.824
49349SOL    HW149944   2.834  14.357  13.854
49349SOL    HW249945   2.828  14.481  13.768
49350SOL     OW49946   1.652  12.672   6.702
49350SOL    HW149947   1.613  12.653   6.616
49350SOL    HW249948   1.611  12.754   6.730
49351SOL     OW49949  13.979   3.810  14.575
49351SOL    HW149950  14.033   3.859  14.513
49351SOL    HW249951  13.923   3.756  14.521
49352SOL     OW49952   3.168   7.209  14.187
49352SOL    HW149953   3.132   7.223  14.100
49352SOL    HW249954   3.095   7.173  14.237
49353SOL     OW49955   0.619  13.554  11.671
49353SOL    HW149956   0.664  13.580  11.592
49353SOL    HW249957   0.625  13.630  11.729
49354SOL     OW49958  13.057  12.046   6.324
49354SOL    HW149959  13.148  12.023   6.305
49354SOL    HW249960  13.029  11.980   6.387
49355SOL     OW49961   6.685  13.190   6.041
49355SOL    HW149962   6.619  13.123   6.062
49355SOL    HW249963   6.648  13.272   6.073
49356SOL     OW49964  13.923   4.901  13.833
49356SOL    HW149965  13.956   4.885  13.744
49356SOL    HW249966  13.936   4.817  13.878
49357SOL     OW49967   0.473   8.892   5.914
49357SOL    HW149968   0.509   8.975   5.882
49357SOL    HW249969   0.402   8.917   5.973
49358SOL     OW49970  13.175   7.189   6.496
49358SOL    HW149971  13.127   7.266   6.527
49358SOL    HW249972  13.267   7.214   6.500
49359SOL     OW49973  12.856   9.945   9.970
49359SOL    HW149974  12.858   9.872  10.032
49359SOL    HW249975  12.927   9.926   9.909
49360SOL     OW49976   7.710   4.096   9.934
49360SOL    HW149977   7.729   4.004   9.918
49360SOL    HW249978   7.628   4.112   9.887
49361SOL     OW49979   0.386   4.123   9.776
49361SOL    HW149980   0.293   4.132   9.757
49361SOL    HW249981   0.429   4.128   9.690
49362SOL     OW49982   7.405   2.771  11.843
49362SOL    HW149983   7.423   2.835  11.912
49362SOL    HW249984   7.401   2.823  11.763
49363SOL     OW49985  12.025   7.235  13.792
49363SOL    HW149986  11.986   7.263  13.709
49363SOL    HW249987  12.102   7.291  13.801
49364SOL     OW49988  13.313   0.261   4.656
49364SOL    HW149989  13.279   0.187   4.707
49364SOL    HW249990  13.237   0.294   4.608
49365SOL     OW49991  10.271   4.929  13.236
49365SOL    HW149992  10.263   4.856  13.297
49365SOL    HW249993  10.266   4.889  13.150
49366SOL     OW49994   0.169  12.727  12.674
49366SOL    HW149995   0.258  12.722  12.640
49366SOL    HW249996   0.125  12.650  12.637
49367SOL     OW49997   5.406   6.856   1.073
49367SOL    HW149998   5.364   6.928   1.121
49367SOL    HW249999   5.368   6.861   0.985
49368SOL     OW50000   5.168   6.028   8.861
49368SOL    HW150001   5.166   6.082   8.782
49368SOL    HW250002   5.153   6.090   8.933
49369SOL     OW50003   7.099  12.002  10.274
49369SOL    HW150004   7.123  11.945  10.347
49369SOL    HW250005   7.005  12.015  10.283
49370SOL     OW50006   0.764   5.796   4.634
49370SOL    HW150007   0.726   5.738   4.700
49370SOL    HW250008   0.705   5.789   4.559
49371SOL     OW50009  12.953  10.872  13.401
49371SOL    HW150010  12.896  10.813  13.452
49371SOL    HW250011  13.031  10.819  13.383
49372SOL     OW50012   9.878  14.730   3.886
49372SOL    HW150013   9.929  14.685   3.954
49372SOL    HW250014   9.945  14.772   3.831
49373SOL     OW50015  13.679   1.835   6.671
49373SOL    HW150016  13.643   1.777   6.738
49373SOL    HW250017  13.643   1.922   6.694
49374SOL     OW50018   7.249   7.332  14.160
49374SOL    HW150019   7.228   7.267  14.227
49374SOL    HW250020   7.262   7.413  14.208
49375SOL     OW50021   1.475   3.004   7.413
49375SOL    HW150022   1.530   2.963   7.347
49375SOL    HW250023   1.392   2.957   7.408
49376SOL     OW50024  11.105  12.058   0.667
49376SOL    HW150025  11.177  12.116   0.643
49376SOL    HW250026  11.127  11.974   0.625
49377SOL     OW50027   9.730   7.551  14.696
49377SOL    HW150028   9.748   7.618  14.762
49377SOL    HW250029   9.801   7.488  14.706
49378SOL     OW50030   9.148  13.864   9.404
49378SOL    HW150031   9.151  13.836   9.496
49378SOL    HW250032   9.239  13.886   9.383
49379SOL     OW50033  13.111   7.073   9.316
49379SOL    HW150034  13.103   7.167   9.330
49379SOL    HW250035  13.042   7.052   9.253
49380SOL     OW50036  11.327  10.913   5.993
49380SOL    HW150037  11.309  10.875   6.079
49380SOL    HW250038  11.273  10.863   5.933
49381SOL     OW50039  13.847   9.912  13.041
49381SOL    HW150040  13.887   9.945  12.961
49381SOL    HW250041  13.899   9.835  13.064
49382SOL     OW50042  13.707  13.808   9.640
49382SOL    HW150043  13.678  13.835   9.552
49382SOL    HW250044  13.629  13.819   9.694
49383SOL     OW50045   3.171  10.101  14.664
49383SOL    HW150046   3.242  10.099  14.600
49383SOL    HW250047   3.203  10.047  14.736
49384SOL     OW50048   5.929   6.523  12.013
49384SOL    HW150049   5.991   6.550  11.946
49384SOL    HW250050   5.867   6.596  12.019
49385SOL     OW50051  11.006   3.088   4.225
49385SOL    HW150052  11.012   3.182   4.211
49385SOL    HW250053  10.991   3.051   4.138
49386SOL     OW50054   3.389  12.951  11.179
49386SOL    HW150055   3.330  13.019  11.147
49386SOL    HW250056   3.422  12.908  11.100
49387SOL     OW50057  10.175  10.934   5.509
49387SOL    HW150058  10.108  11.001   5.495
49387SOL    HW250059  10.234  10.972   5.574
49388SOL     OW50060   6.850  13.758   2.851
49388SOL    HW150061   6.917  13.804   2.902
49388SOL    HW250062   6.826  13.819   2.782
49389SOL     OW50063   2.041   9.088   0.461
49389SOL    HW150064   2.041   9.052   0.372
49389SOL    HW250065   2.092   9.025   0.512
49390SOL     OW50066  13.759  14.864   6.566
49390SOL    HW150067  13.843  14.833   6.599
49390SOL    HW250068  13.771   0.077   6.557
49391SOL     OW50069   7.429   4.326   6.534
49391SOL    HW150070   7.334   4.319   6.530
49391SOL    HW250071   7.445   4.388   6.605
49392SOL     OW50072   2.338  12.355  14.395
49392SOL    HW150073   2.299  12.282  14.347
49392SOL    HW250074   2.349  12.322  14.484
49393SOL     OW50075  10.511   9.139   9.560
49393SOL    HW150076  10.456   9.079   9.610
49393SOL    HW250077  10.584   9.160   9.619
49394SOL     OW50078   3.840  12.519   2.868
49394SOL    HW150079   3.754  12.560   2.867
49394SOL    HW250080   3.822  12.426   2.881
49395SOL     OW50081  12.741  14.196  11.919
49395SOL    HW150082  12.653  14.212  11.886
49395SOL    HW250083  12.772  14.283  11.947
49396SOL     OW50084   4.226   5.418   0.473
49396SOL    HW150085   4.197   5.411   0.564
49396SOL    HW250086   4.312   5.376   0.471
49397SOL     OW50087   3.718   8.313   1.257
49397SOL    HW150088   3.792   8.352   1.304
49397SOL    HW250089   3.690   8.382   1.196
49398SOL     OW50090  13.604   4.341  13.983
49398SOL    HW150091  13.657   4.402  13.932
49398SOL    HW250092  13.599   4.262  13.928
49399SOL     OW50093  13.783   7.026  13.800
49399SOL    HW150094  13.846   7.082  13.754
49399SOL    HW250095  13.772   6.950  13.743
49400SOL     OW50096   3.691  11.841   1.900
49400SOL    HW150097   3.716  11.754   1.931
49400SOL    HW250098   3.759  11.864   1.836
49401SOL     OW50099   7.235   0.113   1.543
49401SOL    HW150100   7.214   0.105   1.450
49401SOL    HW250101   7.201   0.199   1.567
49402SOL     OW50102   2.424  12.075  13.732
49402SOL    HW150103   2.354  12.012  13.715
49402SOL    HW250104   2.502  12.022  13.744
49403SOL     OW50105  11.099   4.376   4.430
49403SOL    HW150106  11.167   4.311   4.411
49403SOL    HW250107  11.147   4.457   4.443
49404SOL     OW50108   7.650  12.077   4.711
49404SOL    HW150109   7.689  12.130   4.781
49404SOL    HW250110   7.629  11.993   4.753
49405SOL     OW50111   8.193  13.737   7.344
49405SOL    HW150112   8.219  13.668   7.282
49405SOL    HW250113   8.226  13.707   7.429
49406SOL     OW50114   2.590  14.387  13.497
49406SOL    HW150115   2.607  14.440  13.420
49406SOL    HW250116   2.569  14.450  13.566
49407SOL     OW50117   6.853   2.384   6.831
49407SOL    HW150118   6.937   2.377   6.787
49407SOL    HW250119   6.874   2.378   6.924
49408SOL     OW50120  13.114  11.214  13.930
49408SOL    HW150121  13.083  11.217  14.020
49408SOL    HW250122  13.060  11.147  13.888
49409SOL     OW50123   8.716   8.296   2.880
49409SOL    HW150124   8.797   8.334   2.849
49409SOL    HW250125   8.735   8.202   2.890
49410SOL     OW50126  12.856  12.497   2.761
49410SOL    HW150127  12.768  12.532   2.777
49410SOL    HW250128  12.862  12.421   2.818
49411SOL     OW50129   3.863  12.781  10.677
49411SOL    HW150130   3.858  12.803  10.584
49411SOL    HW250131   3.772  12.785  10.707
49412SOL     OW50132   0.703   8.005   9.029
49412SOL    HW150133   0.697   7.941   9.100
49412SOL    HW250134   0.616   8.045   9.026
49413SOL     OW50135   7.202   5.392   1.619
49413SOL    HW150136   7.283   5.433   1.588
49413SOL    HW250137   7.153   5.373   1.540
49414SOL     OW50138   9.315  12.591   3.968
49414SOL    HW150139   9.347  12.518   4.021
49414SOL    HW250140   9.259  12.641   4.027
49415SOL     OW50141   6.665   8.844  14.814
49415SOL    HW150142   6.610   8.768  14.834
49415SOL    HW250143   6.688   8.880   0.017
49416SOL     OW50144   0.078   1.069  10.436
49416SOL    HW150145   0.069   1.118  10.355
49416SOL    HW250146   0.170   1.040  10.436
49417SOL     OW50147   8.470   5.061   1.487
49417SOL    HW150148   8.466   4.979   1.536
49417SOL    HW250149   8.560   5.066   1.456
49418SOL     OW50150   6.048   2.398   9.479
49418SOL    HW150151   6.059   2.438   9.393
49418SOL    HW250152   6.049   2.472   9.540
49419SOL     OW50153   5.033   0.722  14.066
49419SOL    HW150154   4.990   0.718  14.151
49419SOL    HW250155   5.127   0.722  14.087
49420SOL     OW50156   2.757  10.038  13.920
49420SOL    HW150157   2.831   9.985  13.890
49420SOL    HW250158   2.719   9.988  13.992
49421SOL     OW50159   6.128   4.241  11.964
49421SOL    HW150160   6.200   4.270  11.907
49421SOL    HW250161   6.074   4.320  11.975
49422SOL     OW50162   6.309   6.033   0.846
49422SOL    HW150163   6.275   6.122   0.837
49422SOL    HW250164   6.398   6.038   0.810
49423SOL     OW50165   2.496   6.526  12.653
49423SOL    HW150166   2.447   6.519  12.571
49423SOL    HW250167   2.571   6.582  12.632
49424SOL     OW50168   9.143  14.059   6.207
49424SOL    HW150169   9.083  14.085   6.136
49424SOL    HW250170   9.205  14.131   6.213
49425SOL     OW50171  10.842   4.557   4.475
49425SOL    HW150172  10.866   4.478   4.426
49425SOL    HW250173  10.877   4.541   4.563
49426SOL     OW50174   8.151   4.212   6.145
49426SOL    HW150175   8.156   4.280   6.078
49426SOL    HW250176   8.140   4.130   6.097
49427SOL     OW50177  14.704   3.998   3.407
49427SOL    HW150178  14.686   3.971   3.317
49427SOL    HW250179  14.774   4.063   3.399
49428SOL     OW50180   9.982  14.555  14.264
49428SOL    HW150181  10.022  14.642  14.270
49428SOL    HW250182   9.895  14.567  14.302
49429SOL     OW50183  12.592   2.982   3.470
49429SOL    HW150184  12.530   2.962   3.540
49429SOL    HW250185  12.645   3.055   3.505
49430SOL     OW50186   1.206   2.186  13.861
49430SOL    HW150187   1.187   2.153  13.773
49430SOL    HW250188   1.121   2.219  13.893
49431SOL     OW50189   0.017  13.920   1.977
49431SOL    HW150190   0.060  13.877   2.051
49431SOL    HW250191   0.031  14.014   1.992
49432SOL     OW50192  12.242   6.262   4.803
49432SOL    HW150193  12.189   6.338   4.779
49432SOL    HW250194  12.322   6.300   4.840
49433SOL     OW50195  10.174   2.897   6.664
49433SOL    HW150196  10.191   2.974   6.719
49433SOL    HW250197  10.196   2.822   6.719
49434SOL     OW50198   9.161  14.816   9.039
49434SOL    HW150199   9.195   0.004   9.094
49434SOL    HW250200   9.108  14.763   9.098
49435SOL     OW50201  10.715  11.011   6.873
49435SOL    HW150202  10.734  11.085   6.930
49435SOL    HW250203  10.699  10.938   6.932
49436SOL     OW50204   0.542   7.092   9.654
49436SOL    HW150205   0.483   7.046   9.595
49436SOL    HW250206   0.536   7.043   9.736
49437SOL     OW50207   0.154   3.034  12.479
49437SOL    HW150208   0.095   3.036  12.555
49437SOL    HW250209   0.190   3.122  12.475
49438SOL     OW50210   7.241   4.071  12.025
49438SOL    HW150211   7.229   3.986  11.983
49438SOL    HW250212   7.306   4.115  11.970
49439SOL     OW50213   7.561   1.824   6.067
49439SOL    HW150214   7.578   1.910   6.106
49439SOL    HW250215   7.615   1.764   6.118
49440SOL     OW50216  13.938  14.202   0.266
49440SOL    HW150217  13.930  14.208   0.362
49440SOL    HW250218  13.858  14.157   0.238
49441SOL     OW50219   7.665  13.203  13.413
49441SOL    HW150220   7.614  13.182  13.336
49441SOL    HW250221   7.612  13.171  13.487
49442SOL     OW50222   3.266   6.172  14.026
49442SOL    HW150223   3.322   6.215  14.090
49442SOL    HW250224   3.199   6.237  14.004
49443SOL     OW50225   2.835   4.515   8.307
49443SOL    HW150226   2.762   4.546   8.254
49443SOL    HW250227   2.794   4.463   8.377
49444SOL     OW50228  12.562  12.658  13.086
49444SOL    HW150229  12.476  12.667  13.126
49444SOL    HW250230  12.555  12.706  13.003
49445SOL     OW50231   0.180   3.364   9.090
49445SOL    HW150232   0.245   3.414   9.040
49445SOL    HW250233   0.226   3.283   9.113
49446SOL     OW50234   6.478   4.611   0.131
49446SOL    HW150235   6.544   4.579   0.070
49446SOL    HW250236   6.397   4.567   0.104
49447SOL     OW50237   6.971   7.231   2.217
49447SOL    HW150238   6.916   7.298   2.178
49447SOL    HW250239   7.024   7.279   2.281
49448SOL     OW50240  12.428  13.617   7.768
49448SOL    HW150241  12.489  13.669   7.821
49448SOL    HW250242  12.414  13.537   7.819
49449SOL     OW50243  13.240   4.670   2.777
49449SOL    HW150244  13.161   4.718   2.801
49449SOL    HW250245  13.312   4.731   2.795
49450SOL     OW50246  12.992   2.062   7.055
49450SOL    HW150247  12.917   2.022   7.010
49450SOL    HW250248  13.057   1.992   7.059
49451SOL     OW50249   1.100  13.928   0.510
49451SOL    HW150250   1.126  13.950   0.600
49451SOL    HW250251   1.021  13.980   0.495
49452SOL     OW50252   8.277   8.348  11.999
49452SOL    HW150253   8.229   8.414  12.049
49452SOL    HW250254   8.360   8.390  11.978
49453SOL     OW50255  14.626   8.266   0.967
49453SOL    HW150256  14.691   8.330   0.936
49453SOL    HW250257  14.562   8.318   1.016
49454SOL     OW50258  13.342   5.359   9.441
49454SOL    HW150259  13.403   5.375   9.513
49454SOL    HW250260  13.290   5.284   9.469
49455SOL     OW50261  13.935   1.309   7.818
49455SOL    HW150262  13.972   1.371   7.754
49455SOL    HW250263  13.840   1.317   7.806
49456SOL     OW50264   6.271   0.458   5.205
49456SOL    HW150265   6.282   0.544   5.163
49456SOL    HW250266   6.193   0.421   5.163
49457SOL     OW50267   8.105   0.358   2.034
49457SOL    HW150268   8.025   0.364   1.982
49457SOL    HW250269   8.138   0.270   2.017
49458SOL     OW50270   0.043   6.286  14.545
49458SOL    HW150271   0.115   6.330  14.591
49458SOL    HW250272   0.014   6.217  14.605
49459SOL     OW50273   2.093   2.428  14.327
49459SOL    HW150274   2.153   2.491  14.366
49459SOL    HW250275   2.122   2.343  14.360
49460SOL     OW50276   9.045   2.624  13.292
49460SOL    HW150277   9.079   2.706  13.257
49460SOL    HW250278   9.119   2.584  13.338
49461SOL     OW50279   9.623   0.309   8.612
49461SOL    HW150280   9.625   0.404   8.622
49461SOL    HW250281   9.690   0.277   8.672
49462SOL     OW50282  11.940   5.810   8.119
49462SOL    HW150283  11.903   5.747   8.058
49462SOL    HW250284  11.891   5.891   8.104
49463SOL     OW50285   9.282   8.361   5.457
49463SOL    HW150286   9.291   8.447   5.417
49463SOL    HW250287   9.252   8.379   5.546
49464SOL     OW50288  13.835   0.030   3.370
49464SOL    HW150289  13.913   0.035   3.426
49464SOL    HW250290  13.845   0.104   3.310
49465SOL     OW50291   2.646  10.725  12.607
49465SOL    HW150292   2.739  10.705  12.618
49465SOL    HW250293   2.637  10.751  12.515
49466SOL     OW50294   2.883   6.399  10.616
49466SOL    HW150295   2.798   6.403  10.662
49466SOL    HW250296   2.947   6.424  10.683
49467SOL     OW50297   4.541   5.487  14.324
49467SOL    HW150298   4.452   5.455  14.343
49467SOL    HW250299   4.529   5.545  14.248
49468SOL     OW50300  10.800   6.321   6.040
49468SOL    HW150301  10.718   6.293   5.998
49468SOL    HW250302  10.853   6.355   5.968
49469SOL     OW50303   6.559   4.484  12.438
49469SOL    HW150304   6.637   4.445  12.399
49469SOL    HW250305   6.551   4.440  12.523
49470SOL     OW50306  13.895   5.778   5.135
49470SOL    HW150307  13.892   5.765   5.230
49470SOL    HW250308  13.938   5.863   5.124
49471SOL     OW50309   9.602   6.567  10.190
49471SOL    HW150310   9.614   6.495  10.252
49471SOL    HW250311   9.688   6.580  10.152
49472SOL     OW50312  10.009  13.392  10.705
49472SOL    HW150313  10.012  13.414  10.612
49472SOL    HW250314  10.004  13.296  10.707
49473SOL     OW50315  11.841   5.851   6.214
49473SOL    HW150316  11.865   5.761   6.192
49473SOL    HW250317  11.867   5.903   6.138
49474SOL     OW50318   1.162  13.178   5.804
49474SOL    HW150319   1.092  13.244   5.799
49474SOL    HW250320   1.127  13.102   5.759
49475SOL     OW50321   2.351   4.069   3.105
49475SOL    HW150322   2.370   3.975   3.105
49475SOL    HW250323   2.429   4.109   3.065
49476SOL     OW50324  12.318   0.805  10.216
49476SOL    HW150325  12.367   0.884  10.192
49476SOL    HW250326  12.250   0.835  10.276
49477SOL     OW50327   4.535   7.894   1.176
49477SOL    HW150328   4.538   7.805   1.210
49477SOL    HW250329   4.621   7.907   1.135
49478SOL     OW50330  11.191   0.084  10.798
49478SOL    HW150331  11.109   0.099  10.750
49478SOL    HW250332  11.165   0.084  10.890
49479SOL     OW50333   2.900  14.724  12.429
49479SOL    HW150334   2.954  14.791  12.471
49479SOL    HW250335   2.960  14.653  12.410
49480SOL     OW50336   9.299   7.903   1.282
49480SOL    HW150337   9.354   7.849   1.337
49480SOL    HW250338   9.283   7.849   1.204
49481SOL     OW50339   1.981  14.269  13.559
49481SOL    HW150340   2.012  14.359  13.560
49481SOL    HW250341   1.943  14.256  13.646
49482SOL     OW50342   6.075   6.194   7.382
49482SOL    HW150343   6.004   6.203   7.446
49482SOL    HW250344   6.064   6.270   7.324
49483SOL     OW50345   0.736   3.950  12.439
49483SOL    HW150346   0.829   3.971  12.449
49483SOL    HW250347   0.690   4.024  12.478
49484SOL     OW50348  13.608   5.929   9.309
49484SOL    HW150349  13.637   5.894   9.393
49484SOL    HW250350  13.616   5.856   9.248
49485SOL     OW50351  11.572   3.172   1.187
49485SOL    HW150352  11.639   3.130   1.132
49485SOL    HW250353  11.498   3.185   1.128
49486SOL     OW50354   8.314  11.202   5.066
49486SOL    HW150355   8.322  11.131   5.003
49486SOL    HW250356   8.389  11.191   5.124
49487SOL     OW50357   4.377   8.766   6.022
49487SOL    HW150358   4.452   8.789   5.967
49487SOL    HW250359   4.414   8.740   6.105
49488SOL     OW50360   6.099  13.907   6.345
49488SOL    HW150361   6.183  13.910   6.299
49488SOL    HW250362   6.078  13.999   6.362
49489SOL     OW50363   0.085  11.579   7.638
49489SOL    HW150364   0.173  11.581   7.676
49489SOL    HW250365   0.053  11.492   7.658
49490SOL     OW50366  12.526   8.558  10.577
49490SOL    HW150367  12.614   8.542  10.544
49490SOL    HW250368  12.489   8.622  10.515
49491SOL     OW50369   8.066  12.296  14.778
49491SOL    HW150370   8.004  12.255  14.838
49491SOL    HW250371   8.055  12.248  14.696
49492SOL     OW50372   0.970   6.391  14.878
49492SOL    HW150373   0.917   6.390   0.076
49492SOL    HW250374   1.002   6.301  14.870
49493SOL     OW50375   4.760   0.478   9.683
49493SOL    HW150376   4.707   0.446   9.610
49493SOL    HW250377   4.711   0.453   9.761
49494SOL     OW50378   3.592   3.172   1.662
49494SOL    HW150379   3.506   3.155   1.699
49494SOL    HW250380   3.653   3.133   1.725
49495SOL     OW50381   9.502  10.079  12.879
49495SOL    HW150382   9.502   9.986  12.857
49495SOL    HW250383   9.509  10.123  12.794
49496SOL     OW50384   2.185   4.500  14.149
49496SOL    HW150385   2.110   4.535  14.100
49496SOL    HW250386   2.260   4.550  14.117
49497SOL     OW50387  12.337   3.356   0.670
49497SOL    HW150388  12.379   3.279   0.707
49497SOL    HW250389  12.243   3.336   0.672
49498SOL     OW50390   9.253   2.770   9.395
49498SOL    HW150391   9.210   2.692   9.360
49498SOL    HW250392   9.191   2.804   9.460
49499SOL     OW50393  11.992   3.853   8.857
49499SOL    HW150394  12.025   3.819   8.775
49499SOL    HW250395  12.070   3.873   8.908
49500SOL     OW50396   1.086   1.317   2.691
49500SOL    HW150397   1.170   1.271   2.689
49500SOL    HW250398   1.107   1.407   2.666
49501SOL     OW50399   4.871   4.102   4.275
49501SOL    HW150400   4.897   4.020   4.316
49501SOL    HW250401   4.954   4.144   4.250
49502SOL     OW50402  11.743  12.422   9.972
49502SOL    HW150403  11.803  12.423  10.047
49502SOL    HW250404  11.687  12.346   9.988
49503SOL     OW50405   1.881   5.172  10.213
49503SOL    HW150406   1.848   5.158  10.124
49503SOL    HW250407   1.975   5.157  10.206
49504SOL     OW50408   5.828   6.221   7.549
49504SOL    HW150409   5.768   6.224   7.624
49504SOL    HW250410   5.811   6.302   7.501
49505SOL     OW50411   5.877   3.540   5.085
49505SOL    HW150412   5.958   3.491   5.095
49505SOL    HW250413   5.857   3.572   5.174
49506SOL     OW50414  13.597  11.164   5.458
49506SOL    HW150415  13.662  11.208   5.402
49506SOL    HW250416  13.577  11.228   5.526
49507SOL     OW50417  12.518   0.075   7.045
49507SOL    HW150418  12.521   0.008   7.113
49507SOL    HW250419  12.428   0.107   7.046
49508SOL     OW50420   4.771   8.254   1.277
49508SOL    HW150421   4.683   8.217   1.269
49508SOL    HW250422   4.760   8.330   1.333
49509SOL     OW50423  10.100   9.456   8.515
49509SOL    HW150424  10.132   9.420   8.432
49509SOL    HW250425  10.100   9.381   8.575
49510SOL     OW50426   0.933   9.277   8.348
49510SOL    HW150427   1.005   9.281   8.285
49510SOL    HW250428   0.855   9.263   8.294
49511SOL     OW50429  14.020   6.023   4.413
49511SOL    HW150430  14.002   5.982   4.328
49511SOL    HW250431  14.055   5.952   4.467
49512SOL     OW50432  14.282  10.819   0.794
49512SOL    HW150433  14.256  10.776   0.875
49512SOL    HW250434  14.221  10.892   0.784
49513SOL     OW50435   5.358   9.826  13.664
49513SOL    HW150436   5.437   9.774  13.669
49513SOL    HW250437   5.388   9.912  13.633
49514SOL     OW50438   5.307  10.903   0.299
49514SOL    HW150439   5.375  10.969   0.303
49514SOL    HW250440   5.225  10.951   0.314
49515SOL     OW50441  13.122   0.981   4.371
49515SOL    HW150442  13.108   0.886   4.365
49515SOL    HW250443  13.161   0.994   4.458
49516SOL     OW50444   6.681  14.128   8.369
49516SOL    HW150445   6.661  14.035   8.369
49516SOL    HW250446   6.767  14.135   8.327
49517SOL     OW50447   4.184   1.498   8.391
49517SOL    HW150448   4.139   1.496   8.475
49517SOL    HW250449   4.270   1.536   8.410
49518SOL     OW50450   4.029   8.663   5.224
49518SOL    HW150451   4.019   8.581   5.175
49518SOL    HW250452   3.962   8.721   5.187
49519SOL     OW50453   7.477  14.820   7.809
49519SOL    HW150454   7.561  14.853   7.841
49519SOL    HW250455   7.414   0.006   7.833
49520SOL     OW50456   7.211   7.541  12.719
49520SOL    HW150457   7.290   7.509  12.763
49520SOL    HW250458   7.183   7.616  12.771
49521SOL     OW50459   4.298  10.140  11.372
49521SOL    HW150460   4.297  10.046  11.355
49521SOL    HW250461   4.228  10.176  11.317
49522SOL     OW50462   4.151  14.309  13.596
49522SOL    HW150463   4.121  14.379  13.654
49522SOL    HW250464   4.093  14.235  13.615
49523SOL     OW50465   9.354  13.760   2.946
49523SOL    HW150466   9.260  13.780   2.948
49523SOL    HW250467   9.385  13.798   2.864
49524SOL     OW50468   9.248   3.763   7.814
49524SOL    HW150469   9.305   3.690   7.841
49524SOL    HW250470   9.235   3.749   7.721
49525SOL     OW50471   0.382   3.030   5.837
49525SOL    HW150472   0.455   3.023   5.898
49525SOL    HW250473   0.419   3.002   5.753
49526SOL     OW50474  11.001  11.828  10.131
49526SOL    HW150475  10.943  11.903  10.118
49526SOL    HW250476  10.954  11.772  10.193
49527SOL     OW50477   6.802   2.701  12.793
49527SOL    HW150478   6.793   2.763  12.865
49527SOL    HW250479   6.733   2.637  12.806
49528SOL     OW50480   5.587   7.909  10.852
49528SOL    HW150481   5.508   7.880  10.898
49528SOL    HW250482   5.554   7.952  10.772
49529SOL     OW50483  10.181  10.573   0.533
49529SOL    HW150484  10.190  10.659   0.574
49529SOL    HW250485  10.262  10.528   0.556
49530SOL     OW50486   3.462   0.717  10.907
49530SOL    HW150487   3.373   0.688  10.889
49530SOL    HW250488   3.518   0.654  10.862
49531SOL     OW50489   7.603  13.610  12.100
49531SOL    HW150490   7.565  13.523  12.096
49531SOL    HW250491   7.687  13.602  12.054
49532SOL     OW50492   3.340  10.853  14.659
49532SOL    HW150493   3.320  10.863  14.566
49532SOL    HW250494   3.261  10.885  14.703
49533SOL     OW50495   1.878   1.343  11.579
49533SOL    HW150496   1.925   1.425  11.571
49533SOL    HW250497   1.809   1.360  11.642
49534SOL     OW50498   3.700   1.746  14.636
49534SOL    HW150499   3.766   1.702  14.582
49534SOL    HW250500   3.648   1.797  14.574
49535SOL     OW50501   8.980   8.493   9.002
49535SOL    HW150502   8.906   8.510   9.060
49535SOL    HW250503   8.951   8.422   8.946
49536SOL     OW50504   7.573   2.046  13.202
49536SOL    HW150505   7.617   2.085  13.277
49536SOL    HW250506   7.590   1.952  13.210
49537SOL     OW50507  11.990  14.194  14.058
49537SOL    HW150508  11.928  14.253  14.017
49537SOL    HW250509  11.987  14.217  14.151
49538SOL     OW50510  13.126   6.313   3.457
49538SOL    HW150511  13.075   6.257   3.398
49538SOL    HW250512  13.210   6.268   3.467
49539SOL     OW50513   3.229   0.660   6.526
49539SOL    HW150514   3.195   0.582   6.570
49539SOL    HW250515   3.189   0.659   6.440
49540SOL     OW50516   8.562  12.486   8.139
49540SOL    HW150517   8.551  12.440   8.055
49540SOL    HW250518   8.481  12.536   8.149
49541SOL     OW50519   4.174   3.070   1.710
49541SOL    HW150520   4.168   3.060   1.615
49541SOL    HW250521   4.267   3.054   1.729
49542SOL     OW50522  10.261  14.441   6.119
49542SOL    HW150523  10.351  14.412   6.136
49542SOL    HW250524  10.259  14.458   6.025
49543SOL     OW50525  12.367   7.478   5.958
49543SOL    HW150526  12.389   7.563   5.996
49543SOL    HW250527  12.344   7.424   6.033
49544SOL     OW50528   9.492   3.252   8.389
49544SOL    HW150529   9.587   3.253   8.372
49544SOL    HW250530   9.466   3.344   8.380
49545SOL     OW50531   0.635  12.017   4.664
49545SOL    HW150532   0.639  12.000   4.759
49545SOL    HW250533   0.718  11.982   4.631
49546SOL     OW50534   9.003   6.049  11.057
49546SOL    HW150535   9.066   5.978  11.053
49546SOL    HW250536   9.048   6.119  11.103
49547SOL     OW50537  14.216  11.650   9.682
49547SOL    HW150538  14.194  11.616   9.769
49547SOL    HW250539  14.310  11.635   9.674
49548SOL     OW50540   2.819   5.582   9.144
49548SOL    HW150541   2.771   5.547   9.069
49548SOL    HW250542   2.879   5.646   9.107
49549SOL     OW50543   8.346  14.527   8.521
49549SOL    HW150544   8.261  14.501   8.487
49549SOL    HW250545   8.407  14.461   8.487
49550SOL     OW50546   1.061   0.984   1.657
49550SOL    HW150547   1.039   1.076   1.667
49550SOL    HW250548   0.980   0.943   1.626
49551SOL     OW50549  12.425  12.425   5.671
49551SOL    HW150550  12.348  12.470   5.637
49551SOL    HW250551  12.487  12.423   5.598
49552SOL     OW50552   0.121   5.082   0.053
49552SOL    HW150553   0.079   4.996   0.048
49552SOL    HW250554   0.097   5.116   0.140
49553SOL     OW50555   7.019  10.810   6.918
49553SOL    HW150556   7.011  10.728   6.967
49553SOL    HW250557   7.001  10.784   6.827
49554SOL     OW50558  11.299   4.105   3.778
49554SOL    HW150559  11.269   4.049   3.849
49554SOL    HW250560  11.389   4.128   3.801
49555SOL     OW50561  12.215   5.605   6.813
49555SOL    HW150562  12.166   5.524   6.808
49555SOL    HW250563  12.173   5.656   6.882
49556SOL     OW50564   2.794   5.601  14.590
49556SOL    HW150565   2.809   5.621  14.497
49556SOL    HW250566   2.719   5.541  14.590
49557SOL     OW50567   7.158   5.968   7.826
49557SOL    HW150568   7.189   6.047   7.781
49557SOL    HW250569   7.121   6.000   7.908
49558SOL     OW50570  11.163   9.818   5.463
49558SOL    HW150571  11.093   9.858   5.514
49558SOL    HW250572  11.241   9.825   5.519
49559SOL     OW50573   8.033   4.571  11.550
49559SOL    HW150574   8.116   4.524  11.555
49559SOL    HW250575   7.984   4.528  11.480
49560SOL     OW50576   0.745   0.639   8.721
49560SOL    HW150577   0.705   0.594   8.647
49560SOL    HW250578   0.672   0.680   8.767
49561SOL     OW50579   2.363  13.741   7.584
49561SOL    HW150580   2.314  13.773   7.507
49561SOL    HW250581   2.334  13.650   7.594
49562SOL     OW50582   3.997  12.163   1.429
49562SOL    HW150583   3.951  12.214   1.362
49562SOL    HW250584   3.985  12.214   1.509
49563SOL     OW50585  13.474   4.655   7.285
49563SOL    HW150586  13.480   4.738   7.239
49563SOL    HW250587  13.380   4.638   7.293
49564SOL     OW50588  14.556   2.939   8.780
49564SOL    HW150589  14.490   2.968   8.844
49564SOL    HW250590  14.542   2.995   8.704
49565SOL     OW50591   3.339   1.442  11.824
49565SOL    HW150592   3.353   1.516  11.766
49565SOL    HW250593   3.415   1.386  11.812
49566SOL     OW50594   8.783  11.766   1.295
49566SOL    HW150595   8.696  11.797   1.323
49566SOL    HW250596   8.844  11.815   1.350
49567SOL     OW50597  13.363   5.782   4.605
49567SOL    HW150598  13.380   5.701   4.557
49567SOL    HW250599  13.446   5.801   4.649
49568SOL     OW50600   8.336   3.512   6.119
49568SOL    HW150601   8.304   3.440   6.174
49568SOL    HW250602   8.392   3.468   6.054
49569SOL     OW50603   6.460  11.219  13.529
49569SOL    HW150604   6.460  11.289  13.594
49569SOL    HW250605   6.528  11.243  13.466
49570SOL     OW50606   2.417   8.998   7.960
49570SOL    HW150607   2.328   9.033   7.962
49570SOL    HW250608   2.424   8.946   8.040
49571SOL     OW50609   6.177  13.227   7.551
49571SOL    HW150610   6.155  13.236   7.458
49571SOL    HW250611   6.166  13.134   7.570
49572SOL     OW50612   6.800   9.948  11.488
49572SOL    HW150613   6.799   9.914  11.399
49572SOL    HW250614   6.884   9.920  11.525
49573SOL     OW50615  12.167   8.921   8.929
49573SOL    HW150616  12.138   8.966   9.008
49573SOL    HW250617  12.215   8.987   8.880
49574SOL     OW50618   7.052   4.744   5.848
49574SOL    HW150619   6.986   4.809   5.823
49574SOL    HW250620   7.136   4.791   5.843
49575SOL     OW50621   5.775   2.990   0.884
49575SOL    HW150622   5.765   2.919   0.820
49575SOL    HW250623   5.833   3.053   0.842
49576SOL     OW50624  13.984   1.128   2.404
49576SOL    HW150625  14.036   1.073   2.461
49576SOL    HW250626  13.939   1.067   2.345
49577SOL     OW50627   0.186   7.468   9.184
49577SOL    HW150628   0.168   7.561   9.170
49577SOL    HW250629   0.117   7.439   9.244
49578SOL     OW50630   4.546   3.545   5.274
49578SOL    HW150631   4.456   3.558   5.244
49578SOL    HW250632   4.596   3.532   5.193
49579SOL     OW50633   9.562   0.827   2.073
49579SOL    HW150634   9.555   0.901   2.132
49579SOL    HW250635   9.496   0.764   2.105
49580SOL     OW50636   2.018   7.368   6.752
49580SOL    HW150637   1.970   7.285   6.749
49580SOL    HW250638   2.111   7.342   6.748
49581SOL     OW50639  13.092   4.608   0.131
49581SOL    HW150640  13.075   4.623   0.224
49581SOL    HW250641  13.048   4.526   0.111
49582SOL     OW50642  13.945  10.821  12.091
49582SOL    HW150643  13.926  10.807  11.998
49582SOL    HW250644  13.863  10.851  12.129
49583SOL     OW50645   9.111   7.960  11.685
49583SOL    HW150646   9.058   8.028  11.642
49583SOL    HW250647   9.191   7.955  11.633
49584SOL     OW50648  12.446   8.516   9.037
49584SOL    HW150649  12.512   8.450   9.056
49584SOL    HW250650  12.381   8.506   9.107
49585SOL     OW50651   8.163   0.212  11.778
49585SOL    HW150652   8.109   0.226  11.701
49585SOL    HW250653   8.235   0.156  11.747
49586SOL     OW50654  14.242   0.418  13.877
49586SOL    HW150655  14.246   0.371  13.960
49586SOL    HW250656  14.331   0.413  13.842
49587SOL     OW50657   1.179  12.078   1.666
49587SOL    HW150658   1.227  12.002   1.697
49587SOL    HW250659   1.089  12.065   1.697
49588SOL     OW50660   5.901   2.337   5.957
49588SOL    HW150661   5.877   2.430   5.957
49588SOL    HW250662   5.891   2.310   5.865
49589SOL     OW50663   5.580   5.332  11.932
49589SOL    HW150664   5.662   5.305  11.893
49589SOL    HW250665   5.594   5.424  11.956
49590SOL     OW50666   9.753   0.846  13.768
49590SOL    HW150667   9.735   0.896  13.689
49590SOL    HW250668   9.715   0.898  13.839
49591SOL     OW50669   0.768   1.658  12.868
49591SOL    HW150670   0.835   1.693  12.926
49591SOL    HW250671   0.810   1.585  12.823
49592SOL     OW50672   6.045   6.696  14.012
49592SOL    HW150673   6.089   6.657  14.087
49592SOL    HW250674   6.114   6.708  13.947
49593SOL     OW50675   1.904  11.086   3.993
49593SOL    HW150676   1.963  11.017   4.022
49593SOL    HW250677   1.866  11.053   3.911
49594SOL     OW50678   0.213   7.329  14.212
49594SOL    HW150679   0.242   7.371  14.130
49594SOL    HW250680   0.126   7.367  14.227
49595SOL     OW50681   5.341   8.288   5.949
49595SOL    HW150682   5.431   8.258   5.937
49595SOL    HW250683   5.288   8.224   5.900
49596SOL     OW50684  11.802  14.150   1.616
49596SOL    HW150685  11.836  14.136   1.705
49596SOL    HW250686  11.764  14.237   1.619
49597SOL     OW50687   3.660   4.650   1.245
49597SOL    HW150688   3.600   4.702   1.300
49597SOL    HW250689   3.728   4.712   1.220
49598SOL     OW50690   8.632   4.288   3.643
49598SOL    HW150691   8.719   4.267   3.678
49598SOL    HW250692   8.617   4.220   3.577
49599SOL     OW50693   0.813  11.435  10.798
49599SOL    HW150694   0.735  11.490  10.798
49599SOL    HW250695   0.856  11.453  10.881
49600SOL     OW50696   7.204  11.595  11.559
49600SOL    HW150697   7.124  11.543  11.561
49600SOL    HW250698   7.185  11.671  11.614
49601SOL     OW50699   4.294   1.886   0.806
49601SOL    HW150700   4.215   1.921   0.846
49601SOL    HW250701   4.263   1.821   0.743
49602SOL     OW50702   2.963   3.577   0.058
49602SOL    HW150703   2.995   3.492   0.088
49602SOL    HW250704   3.032   3.611   0.002
49603SOL     OW50705  12.882   5.265   9.156
49603SOL    HW150706  12.838   5.288   9.074
49603SOL    HW250707  12.946   5.335   9.169
49604SOL     OW50708  12.117   9.080   9.161
49604SOL    HW150709  12.146   9.167   9.135
49604SOL    HW250710  12.174   9.057   9.234
49605SOL     OW50711  10.213   6.490   0.549
49605SOL    HW150712  10.226   6.528   0.636
49605SOL    HW250713  10.162   6.555   0.501
49606SOL     OW50714   2.934  13.898  10.514
49606SOL    HW150715   2.913  13.806  10.528
49606SOL    HW250716   2.973  13.926  10.597
49607SOL     OW50717   8.694   7.851   4.455
49607SOL    HW150718   8.727   7.914   4.519
49607SOL    HW250719   8.733   7.879   4.372
49608SOL     OW50720  13.288   3.377   2.709
49608SOL    HW150721  13.377   3.365   2.676
49608SOL    HW250722  13.233   3.330   2.646
49609SOL     OW50723  13.468   6.494   0.047
49609SOL    HW150724  13.402   6.447   0.098
49609SOL    HW250725  13.498   6.431  14.864
49610SOL     OW50726   5.119   7.363   1.053
49610SOL    HW150727   5.155   7.403   0.974
49610SOL    HW250728   5.146   7.421   1.124
49611SOL     OW50729  13.159   6.445  12.282
49611SOL    HW150730  13.209   6.366  12.260
49611SOL    HW250731  13.084   6.442  12.223
49612SOL     OW50732  12.242   5.702   3.067
49612SOL    HW150733  12.198   5.654   3.137
49612SOL    HW250734  12.299   5.637   3.026
49613SOL     OW50735   1.979  10.738   3.464
49613SOL    HW150736   1.963  10.814   3.408
49613SOL    HW250737   2.009  10.775   3.547
49614SOL     OW50738   4.559   2.255  11.293
49614SOL    HW150739   4.620   2.300  11.234
49614SOL    HW250740   4.569   2.163  11.271
49615SOL     OW50741   2.501  10.548   6.556
49615SOL    HW150742   2.440  10.474   6.565
49615SOL    HW250743   2.451  10.613   6.506
49616SOL     OW50744   2.735   8.348   5.944
49616SOL    HW150745   2.679   8.292   5.998
49616SOL    HW250746   2.730   8.309   5.857
49617SOL     OW50747   3.936   7.269   8.747
49617SOL    HW150748   4.015   7.221   8.772
49617SOL    HW250749   3.929   7.339   8.812
49618SOL     OW50750   9.625   8.292  11.634
49618SOL    HW150751   9.571   8.299  11.554
49618SOL    HW250752   9.704   8.247  11.605
49619SOL     OW50753   6.959  14.177   3.941
49619SOL    HW150754   6.864  14.173   3.936
49619SOL    HW250755   6.983  14.103   3.998
49620SOL     OW50756   7.589  12.872   2.873
49620SOL    HW150757   7.653  12.938   2.900
49620SOL    HW250758   7.626  12.789   2.902
49621SOL     OW50759   3.167  12.764   6.970
49621SOL    HW150760   3.174  12.860   6.961
49621SOL    HW250761   3.209  12.745   7.054
49622SOL     OW50762   5.430  13.266  14.877
49622SOL    HW150763   5.359  13.202  14.872
49622SOL    HW250764   5.387  13.351  14.866
49623SOL     OW50765   2.183  14.603  14.548
49623SOL    HW150766   2.105  14.551  14.569
49623SOL    HW250767   2.150  14.676  14.495
49624SOL     OW50768   0.010   5.653   4.146
49624SOL    HW150769  14.853   5.675   4.231
49624SOL    HW250770  14.835   5.584   4.111
49625SOL     OW50771   6.978   0.589  11.556
49625SOL    HW150772   6.970   0.684  11.563
49625SOL    HW250773   6.901   0.556  11.602
49626SOL     OW50774   2.972   2.388   6.985
49626SOL    HW150775   3.004   2.433   6.907
49626SOL    HW250776   2.919   2.454   7.030
49627SOL     OW50777  14.196   2.546  10.068
49627SOL    HW150778  14.281   2.512  10.097
49627SOL    HW250779  14.158   2.585  10.147
49628SOL     OW50780  12.166  13.580   9.649
49628SOL    HW150781  12.159  13.532   9.732
49628SOL    HW250782  12.190  13.513   9.585
49629SOL     OW50783   7.996   8.944   5.219
49629SOL    HW150784   8.037   8.859   5.235
49629SOL    HW250785   8.010   8.993   5.300
49630SOL     OW50786   3.028  13.421   4.447
49630SOL    HW150787   3.050  13.403   4.355
49630SOL    HW250788   3.038  13.516   4.455
49631SOL     OW50789  12.425   2.220   6.255
49631SOL    HW150790  12.396   2.145   6.308
49631SOL    HW250791  12.417   2.190   6.165
49632SOL     OW50792   6.436  13.910   7.791
49632SOL    HW150793   6.405  13.857   7.717
49632SOL    HW250794   6.424  13.854   7.867
49633SOL     OW50795  14.077   8.498   3.063
49633SOL    HW150796  14.090   8.587   3.095
49633SOL    HW250797  14.049   8.448   3.139
49634SOL     OW50798   5.022   3.538   3.816
49634SOL    HW150799   4.949   3.553   3.876
49634SOL    HW250800   5.057   3.625   3.799
49635SOL     OW50801   5.261   9.492   5.314
49635SOL    HW150802   5.208   9.549   5.369
49635SOL    HW250803   5.325   9.453   5.373
49636SOL     OW50804   5.572  14.486   4.152
49636SOL    HW150805   5.563  14.535   4.070
49636SOL    HW250806   5.606  14.401   4.126
49637SOL     OW50807   2.767   9.560   8.026
49637SOL    HW150808   2.782   9.525   7.938
49637SOL    HW250809   2.784   9.486   8.084
49638SOL     OW50810   9.452   2.756  13.759
49638SOL    HW150811   9.365   2.772  13.796
49638SOL    HW250812   9.436   2.706  13.679
49639SOL     OW50813   6.122   1.231   5.560
49639SOL    HW150814   6.123   1.237   5.465
49639SOL    HW250815   6.112   1.322   5.590
49640SOL     OW50816  13.415   9.439   6.991
49640SOL    HW150817  13.332   9.487   6.989
49640SOL    HW250818  13.413   9.385   6.913
49641SOL     OW50819   2.637   1.581  10.868
49641SOL    HW150820   2.647   1.497  10.912
49641SOL    HW250821   2.726   1.611  10.853
49642SOL     OW50822  13.974   8.930   4.210
49642SOL    HW150823  13.944   8.897   4.125
49642SOL    HW250824  14.029   8.859   4.244
49643SOL     OW50825   9.692   8.747   8.967
49643SOL    HW150826   9.632   8.795   8.910
49643SOL    HW250827   9.647   8.745   9.052
49644SOL     OW50828  10.019  10.422   8.656
49644SOL    HW150829  10.028  10.341   8.706
49644SOL    HW250830   9.925  10.430   8.640
49645SOL     OW50831   3.342  12.515   7.778
49645SOL    HW150832   3.428  12.488   7.809
49645SOL    HW250833   3.345  12.611   7.778
49646SOL     OW50834   2.880  13.765   5.045
49646SOL    HW150835   2.923  13.714   5.113
49646SOL    HW250836   2.799  13.797   5.085
49647SOL     OW50837  10.266   9.221   0.598
49647SOL    HW150838  10.176   9.206   0.629
49647SOL    HW250839  10.316   9.238   0.678
49648SOL     OW50840   5.709   0.190  13.536
49648SOL    HW150841   5.741   0.210  13.624
49648SOL    HW250842   5.620   0.158  13.550
49649SOL     OW50843   2.605   5.951   8.826
49649SOL    HW150844   2.662   5.892   8.777
49649SOL    HW250845   2.656   6.031   8.836
49650SOL     OW50846  14.141   5.513   7.345
49650SOL    HW150847  14.047   5.525   7.357
49650SOL    HW250848  14.181   5.550   7.423
49651SOL     OW50849  14.815   7.043  12.565
49651SOL    HW150850  14.875   6.982  12.608
49651SOL    HW250851  14.741   7.049  12.625
49652SOL     OW50852   6.147   4.647   6.526
49652SOL    HW150853   6.072   4.618   6.579
49652SOL    HW250854   6.182   4.722   6.574
49653SOL     OW50855   0.242   0.636   5.151
49653SOL    HW150856   0.270   0.610   5.063
49653SOL    HW250857   0.158   0.680   5.137
49654SOL     OW50858   8.835  12.176  10.216
49654SOL    HW150859   8.768  12.164  10.283
49654SOL    HW250860   8.917  12.154  10.261
49655SOL     OW50861   4.563   4.823   2.092
49655SOL    HW150862   4.599   4.766   2.160
49655SOL    HW250863   4.606   4.907   2.106
49656SOL     OW50864   6.857   6.571   6.092
49656SOL    HW150865   6.808   6.648   6.062
49656SOL    HW250866   6.918   6.552   6.021
49657SOL     OW50867   4.499   8.597   2.473
49657SOL    HW150868   4.520   8.690   2.475
49657SOL    HW250869   4.535   8.566   2.390
49658SOL     OW50870  14.195   6.230  11.944
49658SOL    HW150871  14.117   6.261  11.990
49658SOL    HW250872  14.267   6.245  12.005
49659SOL     OW50873   1.899   4.814  14.799
49659SOL    HW150874   1.894   4.863  14.717
49659SOL    HW250875   1.808   4.798  14.824
49660SOL     OW50876   8.518   8.317  10.979
49660SOL    HW150877   8.505   8.403  11.019
49660SOL    HW250878   8.469   8.257  11.035
49661SOL     OW50879  13.334   7.548  14.030
49661SOL    HW150880  13.364   7.631  14.067
49661SOL    HW250881  13.272   7.573  13.962
49662SOL     OW50882   4.009  11.508  10.566
49662SOL    HW150883   3.972  11.424  10.540
49662SOL    HW250884   4.057  11.538  10.489
49663SOL     OW50885  13.696   1.919  13.446
49663SOL    HW150886  13.717   1.881  13.361
49663SOL    HW250887  13.709   1.848  13.508
49664SOL     OW50888   8.262   1.734  12.560
49664SOL    HW150889   8.268   1.672  12.487
49664SOL    HW250890   8.326   1.802  12.538
49665SOL     OW50891   4.081   0.162   6.399
49665SOL    HW150892   4.056   0.195   6.485
49665SOL    HW250893   4.085   0.240   6.343
49666SOL     OW50894   3.413  12.414   5.296
49666SOL    HW150895   3.372  12.454   5.372
49666SOL    HW250896   3.436  12.326   5.324
49667SOL     OW50897  11.829   9.860   2.246
49667SOL    HW150898  11.875   9.904   2.175
49667SOL    HW250899  11.834   9.920   2.320
49668SOL     OW50900   6.650   2.260  10.276
49668SOL    HW150901   6.669   2.235  10.186
49668SOL    HW250902   6.659   2.356  10.277
49669SOL     OW50903   7.491   6.261   0.112
49669SOL    HW150904   7.435   6.205   0.058
49669SOL    HW250905   7.566   6.282   0.056
49670SOL     OW50906   6.185  11.786  12.197
49670SOL    HW150907   6.250  11.767  12.265
49670SOL    HW250908   6.219  11.742  12.119
49671SOL     OW50909  11.488   4.057   6.078
49671SOL    HW150910  11.578   4.084   6.098
49671SOL    HW250911  11.434   4.132   6.104
49672SOL     OW50912   8.395   6.439   4.315
49672SOL    HW150913   8.314   6.489   4.322
49672SOL    HW250914   8.464   6.504   4.329
49673SOL     OW50915   3.109   5.174  11.906
49673SOL    HW150916   3.184   5.137  11.859
49673SOL    HW250917   3.081   5.104  11.965
49674SOL     OW50918   0.430  10.786   9.111
49674SOL    HW150919   0.402  10.791   9.203
49674SOL    HW250920   0.355  10.748   9.065
49675SOL     OW50921   2.940   4.846   5.285
49675SOL    HW150922   2.912   4.758   5.308
49675SOL    HW250923   2.926   4.897   5.365
49676SOL     OW50924  12.740   3.931   6.886
49676SOL    HW150925  12.691   3.849   6.877
49676SOL    HW250926  12.674   4.000   6.874
49677SOL     OW50927   0.950  10.149   1.998
49677SOL    HW150928   0.885  10.117   2.061
49677SOL    HW250929   0.929  10.242   1.988
49678SOL     OW50930   7.455  13.541   5.429
49678SOL    HW150931   7.521  13.558   5.362
49678SOL    HW250932   7.484  13.460   5.471
49679SOL     OW50933  11.055   4.896   4.335
49679SOL    HW150934  11.014   4.815   4.304
49679SOL    HW250935  10.981   4.951   4.362
49680SOL     OW50936  11.149  11.949   5.660
49680SOL    HW150937  11.068  11.979   5.701
49680SOL    HW250938  11.122  11.878   5.602
49681SOL     OW50939  13.865   8.643   3.351
49681SOL    HW150940  13.882   8.636   3.445
49681SOL    HW250941  13.934   8.702   3.319
49682SOL     OW50942   8.330   3.593  12.619
49682SOL    HW150943   8.408   3.608  12.672
49682SOL    HW250944   8.309   3.500  12.633
49683SOL     OW50945   6.704   6.474  12.416
49683SOL    HW150946   6.619   6.449  12.451
49683SOL    HW250947   6.733   6.397  12.367
49684SOL     OW50948   9.803   2.287   7.469
49684SOL    HW150949   9.751   2.351   7.420
49684SOL    HW250950   9.751   2.268   7.547
49685SOL     OW50951   5.874   1.143   7.730
49685SOL    HW150952   5.869   1.239   7.737
49685SOL    HW250953   5.962   1.122   7.760
49686SOL     OW50954   6.796  11.354   8.277
49686SOL    HW150955   6.771  11.436   8.235
49686SOL    HW250956   6.890  11.345   8.258
49687SOL     OW50957   6.993   1.937   2.589
49687SOL    HW150958   6.984   2.032   2.590
49687SOL    HW250959   6.909   1.905   2.555
49688SOL     OW50960  10.331   1.028  14.494
49688SOL    HW150961  10.347   1.065  14.407
49688SOL    HW250962  10.296   0.941  14.476
49689SOL     OW50963  11.884  11.876   0.347
49689SOL    HW150964  11.802  11.860   0.394
49689SOL    HW250965  11.862  11.857   0.256
49690SOL     OW50966   1.148   9.519  11.623
49690SOL    HW150967   1.156   9.517  11.528
49690SOL    HW250968   1.060   9.553  11.639
49691SOL     OW50969   1.821   3.451  10.350
49691SOL    HW150970   1.845   3.388  10.282
49691SOL    HW250971   1.726   3.443  10.359
49692SOL     OW50972   8.895   7.639  14.481
49692SOL    HW150973   8.928   7.553  14.506
49692SOL    HW250974   8.959   7.701  14.517
49693SOL     OW50975  13.218   1.462  14.507
49693SOL    HW150976  13.140   1.412  14.531
49693SOL    HW250977  13.207   1.480  14.414
49694SOL     OW50978   2.928  14.275   5.110
49694SOL    HW150979   2.996  14.250   5.047
49694SOL    HW250980   2.975  14.321   5.179
49695SOL     OW50981   0.462   9.697   8.362
49695SOL    HW150982   0.547   9.654   8.351
49695SOL    HW250983   0.441   9.685   8.455
49696SOL     OW50984  13.688   4.538   1.923
49696SOL    HW150985  13.624   4.468   1.909
49696SOL    HW250986  13.710   4.568   1.834
49697SOL     OW50987   3.513   0.249   3.655
49697SOL    HW150988   3.495   0.169   3.606
49697SOL    HW250989   3.499   0.225   3.746
49698SOL     OW50990   2.476   7.765   2.038
49698SOL    HW150991   2.448   7.768   2.130
49698SOL    HW250992   2.461   7.854   2.006
49699SOL     OW50993   3.092   4.815   2.373
49699SOL    HW150994   3.026   4.865   2.422
49699SOL    HW250995   3.083   4.847   2.283
49700SOL     OW50996  14.704   5.187  12.251
49700SOL    HW150997  14.733   5.116  12.308
49700SOL    HW250998  14.775   5.251  12.255
49701SOL     OW50999   0.725  12.372  14.547
49701SOL    HW151000   0.757  12.445  14.600
49701SOL    HW251001   0.632  12.366  14.568
49702SOL     OW51002  10.147   8.379  14.436
49702SOL    HW151003  10.090   8.351  14.365
49702SOL    HW251004  10.236   8.359  14.404
49703SOL     OW51005   1.128   6.706  14.134
49703SOL    HW151006   1.163   6.626  14.095
49703SOL    HW251007   1.104   6.761  14.060
49704SOL     OW51008  10.196   0.043   4.618
49704SOL    HW151009  10.234  14.848   4.576
49704SOL    HW251010  10.153   0.009   4.697
49705SOL     OW51011   8.926   1.843   3.140
49705SOL    HW151012   8.843   1.796   3.150
49705SOL    HW251013   8.932   1.862   3.046
49706SOL     OW51014   4.464  10.263   5.675
49706SOL    HW151015   4.424  10.296   5.756
49706SOL    HW251016   4.404  10.290   5.606
49707SOL     OW51017   2.374  13.758   7.226
49707SOL    HW151018   2.295  13.771   7.279
49707SOL    HW251019   2.411  13.846   7.215
49708SOL     OW51020   3.505   4.062   1.052
49708SOL    HW151021   3.454   4.044   0.973
49708SOL    HW251022   3.596   4.061   1.022
49709SOL     OW51023  14.777   1.418   7.252
49709SOL    HW151024  14.770   1.325   7.273
49709SOL    HW251025  14.838   1.453   7.317
49710SOL     OW51026   6.961   3.583   1.564
49710SOL    HW151027   7.014   3.573   1.485
49710SOL    HW251028   6.992   3.664   1.604
49711SOL     OW51029  13.751   5.231   1.378
49711SOL    HW151030  13.835   5.277   1.380
49711SOL    HW251031  13.766   5.151   1.428
49712SOL     OW51032   3.109   4.615   3.867
49712SOL    HW151033   3.198   4.650   3.864
49712SOL    HW251034   3.099   4.571   3.782
49713SOL     OW51035   1.095  13.430   4.634
49713SOL    HW151036   1.177  13.383   4.644
49713SOL    HW251037   1.118  13.510   4.587
49714SOL     OW51038   7.798   0.705  12.154
49714SOL    HW151039   7.841   0.726  12.071
49714SOL    HW251040   7.767   0.615  12.142
49715SOL     OW51041   1.673   6.681  12.271
49715SOL    HW151042   1.635   6.756  12.226
49715SOL    HW251043   1.664   6.609  12.209
49716SOL     OW51044   9.261   1.817  13.857
49716SOL    HW151045   9.310   1.892  13.823
49716SOL    HW251046   9.271   1.750  13.788
49717SOL     OW51047  12.916  10.779  14.850
49717SOL    HW151048  13.006  10.774  14.818
49717SOL    HW251049  12.917  10.853   0.029
49718SOL     OW51050  13.571  13.749  14.848
49718SOL    HW151051  13.631  13.816  14.815
49718SOL    HW251052  13.627  13.673  14.864
49719SOL     OW51053   0.703  11.474   2.626
49719SOL    HW151054   0.791  11.483   2.661
49719SOL    HW251055   0.716  11.445   2.535
49720SOL     OW51056   0.885   7.290  10.336
49720SOL    HW151057   0.880   7.201  10.370
49720SOL    HW251058   0.795   7.310  10.309
49721SOL     OW51059   4.749   7.186  14.024
49721SOL    HW151060   4.800   7.154  13.949
49721SOL    HW251061   4.684   7.244  13.985
49722SOL     OW51062  13.624   0.911  10.227
49722SOL    HW151063  13.718   0.894  10.217
49722SOL    HW251064  13.602   0.967  10.153
49723SOL     OW51065  12.350   4.702   0.683
49723SOL    HW151066  12.375   4.636   0.748
49723SOL    HW251067  12.433   4.732   0.647
49724SOL     OW51068   8.810  10.176   7.234
49724SOL    HW151069   8.832  10.267   7.253
49724SOL    HW251070   8.823  10.130   7.316
49725SOL     OW51071   9.677   0.586  12.993
49725SOL    HW151072   9.660   0.508  12.941
49725SOL    HW251073   9.655   0.561  13.082
49726SOL     OW51074   4.296  13.110   2.203
49726SOL    HW151075   4.389  13.112   2.179
49726SOL    HW251076   4.289  13.168   2.279
49727SOL     OW51077  13.999   1.114   7.343
49727SOL    HW151078  14.059   1.185   7.365
49727SOL    HW251079  14.011   1.050   7.413
49728SOL     OW51080   0.088   6.319  12.790
49728SOL    HW151081   0.053   6.407  12.777
49728SOL    HW251082   0.050   6.290  12.873
49729SOL     OW51083   5.914  11.094  13.973
49729SOL    HW151084   5.988  11.035  13.977
49729SOL    HW251085   5.839  11.042  14.002
49730SOL     OW51086   4.109   9.304   0.651
49730SOL    HW151087   4.015   9.301   0.632
49730SOL    HW251088   4.122   9.389   0.693
49731SOL     OW51089  11.553   5.967   6.418
49731SOL    HW151090  11.479   5.936   6.366
49731SOL    HW251091  11.533   5.940   6.507
49732SOL     OW51092   0.411  10.919  13.788
49732SOL    HW151093   0.362  10.928  13.706
49732SOL    HW251094   0.502  10.939  13.764
49733SOL     OW51095  10.244   2.793   7.051
49733SOL    HW151096  10.182   2.864   7.070
49733SOL    HW251097  10.262   2.753   7.136
49734SOL     OW51098  14.368   5.120   7.985
49734SOL    HW151099  14.383   5.031   7.953
49734SOL    HW251100  14.422   5.175   7.928
49735SOL     OW51101   1.460   2.573   3.826
49735SOL    HW151102   1.380   2.567   3.878
49735SOL    HW251103   1.474   2.666   3.813
49736SOL     OW51104   6.623  10.807  14.748
49736SOL    HW151105   6.711  10.770  14.755
49736SOL    HW251106   6.630  10.893  14.788
49737SOL     OW51107   8.667   1.661  10.907
49737SOL    HW151108   8.674   1.756  10.915
49737SOL    HW251109   8.665   1.629  10.997
49738SOL     OW51110   0.602   6.332   7.969
49738SOL    HW151111   0.666   6.309   7.902
49738SOL    HW251112   0.649   6.391   8.028
49739SOL     OW51113  11.215   8.960   9.623
49739SOL    HW151114  11.227   8.871   9.588
49739SOL    HW251115  11.176   8.947   9.709
49740SOL     OW51116  12.019   1.124  13.799
49740SOL    HW151117  12.066   1.086  13.725
49740SOL    HW251118  11.985   1.207  13.766
49741SOL     OW51119   8.117   0.449  13.547
49741SOL    HW151120   8.212   0.445  13.562
49741SOL    HW251121   8.092   0.537  13.577
49742SOL     OW51122  13.697  10.671   9.062
49742SOL    HW151123  13.702  10.753   9.013
49742SOL    HW251124  13.743  10.689   9.144
49743SOL     OW51125   5.237   9.967   4.427
49743SOL    HW151126   5.293  10.024   4.375
49743SOL    HW251127   5.281   9.882   4.424
49744SOL     OW51128   5.803  12.063  13.074
49744SOL    HW151129   5.776  12.046  13.165
49744SOL    HW251130   5.898  12.069  13.078
49745SOL     OW51131  12.660   6.519   9.482
49745SOL    HW151132  12.577   6.560   9.507
49745SOL    HW251133  12.727   6.585   9.502
49746SOL     OW51134  11.131   0.089  11.937
49746SOL    HW151135  11.052   0.108  11.886
49746SOL    HW251136  11.127   0.151  12.010
49747SOL     OW51137   3.606   8.406   8.303
49747SOL    HW151138   3.659   8.334   8.337
49747SOL    HW251139   3.640   8.421   8.215
49748SOL     OW51140  11.405   8.054   5.558
49748SOL    HW151141  11.362   8.126   5.512
49748SOL    HW251142  11.390   8.072   5.651
49749SOL     OW51143   3.842   1.492   0.206
49749SOL    HW151144   3.910   1.468   0.143
49749SOL    HW251145   3.795   1.564   0.164
49750SOL     OW51146   6.339   9.895   2.680
49750SOL    HW151147   6.254   9.872   2.716
49750SOL    HW251148   6.397   9.825   2.709
49751SOL     OW51149  11.064   9.841  14.124
49751SOL    HW151150  10.971   9.842  14.149
49751SOL    HW251151  11.080   9.751  14.096
49752SOL     OW51152  12.935   3.018   2.269
49752SOL    HW151153  12.841   3.003   2.282
49752SOL    HW251154  12.945   3.113   2.274
49753SOL     OW51155  14.836   3.159   3.339
49753SOL    HW151156  14.852   3.170   3.246
49753SOL    HW251157  14.861   3.243   3.378
49754SOL     OW51158  13.245   5.856   0.379
49754SOL    HW151159  13.161   5.844   0.423
49754SOL    HW251160  13.310   5.851   0.448
49755SOL     OW51161   1.971   7.342   2.250
49755SOL    HW151162   1.963   7.432   2.283
49755SOL    HW251163   1.995   7.290   2.327
49756SOL     OW51164   7.124   0.032   5.921
49756SOL    HW151165   7.111  14.842   5.982
49756SOL    HW251166   7.084   0.002   5.839
49757SOL     OW51167  12.479   7.726   4.376
49757SOL    HW151168  12.413   7.698   4.313
49757SOL    HW251169  12.555   7.749   4.323
49758SOL     OW51170  12.048   1.698   9.806
49758SOL    HW151171  12.032   1.767   9.741
49758SOL    HW251172  11.961   1.677   9.839
49759SOL     OW51173   4.514   5.398  11.373
49759SOL    HW151174   4.567   5.436  11.302
49759SOL    HW251175   4.578   5.355  11.430
49760SOL     OW51176   3.494   2.256   7.384
49760SOL    HW151177   3.522   2.262   7.292
49760SOL    HW251178   3.566   2.209   7.427
49761SOL     OW51179   9.965  11.167   0.511
49761SOL    HW151180   9.884  11.214   0.529
49761SOL    HW251181  10.004  11.214   0.437
49762SOL     OW51182   8.091   4.835  12.483
49762SOL    HW151183   8.099   4.748  12.522
49762SOL    HW251184   8.169   4.844  12.429
49763SOL     OW51185   3.335  12.854  10.449
49763SOL    HW151186   3.307  12.943  10.427
49763SOL    HW251187   3.261  12.798  10.423
49764SOL     OW51188   9.841  10.412   6.456
49764SOL    HW151189   9.783  10.477   6.417
49764SOL    HW251190   9.928  10.450   6.449
49765SOL     OW51191   3.874   0.575  13.966
49765SOL    HW151192   3.920   0.638  14.023
49765SOL    HW251193   3.806   0.538  14.022
49766SOL     OW51194  10.525  13.697   2.861
49766SOL    HW151195  10.539  13.787   2.889
49766SOL    HW251196  10.488  13.704   2.773
49767SOL     OW51197  12.355   9.177   1.363
49767SOL    HW151198  12.370   9.192   1.269
49767SOL    HW251199  12.278   9.230   1.383
49768SOL     OW51200   9.159   4.307   2.349
49768SOL    HW151201   9.237   4.269   2.309
49768SOL    HW251202   9.186   4.395   2.375
49769SOL     OW51203  11.525  10.939   7.427
49769SOL    HW151204  11.556  10.964   7.339
49769SOL    HW251205  11.436  10.908   7.412
49770SOL     OW51206  12.289  11.610   8.600
49770SOL    HW151207  12.370  11.660   8.613
49770SOL    HW251208  12.222  11.677   8.586
49771SOL     OW51209   6.579   1.911   3.751
49771SOL    HW151210   6.497   1.891   3.795
49771SOL    HW251211   6.558   1.988   3.697
49772SOL     OW51212   4.123  11.608   8.644
49772SOL    HW151213   4.091  11.641   8.728
49772SOL    HW251214   4.137  11.514   8.659
49773SOL     OW51215  12.487  10.731   7.930
49773SOL    HW151216  12.447  10.779   8.002
49773SOL    HW251217  12.581  10.731   7.951
49774SOL     OW51218   2.604  13.713  10.406
49774SOL    HW151219   2.595  13.716  10.501
49774SOL    HW251220   2.590  13.621  10.383
49775SOL     OW51221   1.914   2.504  10.316
49775SOL    HW151222   1.942   2.504  10.407
49775SOL    HW251223   1.831   2.553  10.316
49776SOL     OW51224   6.418   5.534   6.618
49776SOL    HW151225   6.496   5.482   6.633
49776SOL    HW251226   6.450   5.615   6.578
49777SOL     OW51227   3.438   0.178  11.314
49777SOL    HW151228   3.467   0.231  11.240
49777SOL    HW251229   3.355   0.218  11.341
49778SOL     OW51230   6.643  10.338  13.443
49778SOL    HW151231   6.605  10.369  13.525
49778SOL    HW251232   6.715  10.280  13.471
49779SOL     OW51233   3.969   4.683  11.326
49779SOL    HW151234   4.024   4.761  11.335
49779SOL    HW251235   3.919   4.680  11.408
49780SOL     OW51236   3.906   4.587   0.830
49780SOL    HW151237   3.872   4.646   0.896
49780SOL    HW251238   3.879   4.625   0.746
49781SOL     OW51239   9.641   7.071   4.385
49781SOL    HW151240   9.581   7.145   4.399
49781SOL    HW251241   9.719   7.094   4.437
49782SOL     OW51242   5.347   6.300   5.934
49782SOL    HW151243   5.328   6.377   5.988
49782SOL    HW251244   5.387   6.238   5.995
49783SOL     OW51245   0.599   8.956   3.996
49783SOL    HW151246   0.524   8.925   3.946
49783SOL    HW251247   0.646   9.013   3.936
49784SOL     OW51248   8.055  11.962   1.342
49784SOL    HW151249   8.037  11.873   1.312
49784SOL    HW251250   7.977  12.011   1.318
49785SOL     OW51251   7.531  12.127  10.179
49785SOL    HW151252   7.523  12.209  10.228
49785SOL    HW251253   7.625  12.116  10.167
49786SOL     OW51254   2.918   1.563   7.778
49786SOL    HW151255   2.982   1.629   7.754
49786SOL    HW251256   2.940   1.487   7.724
49787SOL     OW51257   1.826  13.272   8.084
49787SOL    HW151258   1.919  13.255   8.096
49787SOL    HW251259   1.821  13.320   8.001
49788SOL     OW51260  13.680   4.584   1.565
49788SOL    HW151261  13.595   4.563   1.527
49788SOL    HW251262  13.662   4.659   1.622
49789SOL     OW51263   1.423  10.547  13.950
49789SOL    HW151264   1.430  10.620  14.012
49789SOL    HW251265   1.423  10.469  14.004
49790SOL     OW51266  14.325  10.051   1.120
49790SOL    HW151267  14.292   9.962   1.131
49790SOL    HW251268  14.255  10.107   1.153
49791SOL     OW51269  11.567  14.208  13.845
49791SOL    HW151270  11.633  14.261  13.800
49791SOL    HW251271  11.485  14.253  13.827
49792SOL     OW51272   4.298  10.183   3.007
49792SOL    HW151273   4.261  10.100   3.037
49792SOL    HW251274   4.236  10.250   3.037
49793SOL     OW51275   7.614   1.639   6.708
49793SOL    HW151276   7.678   1.701   6.742
49793SOL    HW251277   7.624   1.561   6.764
49794SOL     OW51278   0.131   2.566   1.320
49794SOL    HW151279   0.119   2.473   1.340
49794SOL    HW251280   0.206   2.592   1.373
49795SOL     OW51281   1.051   8.345   1.818
49795SOL    HW151282   1.072   8.394   1.738
49795SOL    HW251283   1.136   8.316   1.852
49796SOL     OW51284   6.164   9.678  13.208
49796SOL    HW151285   6.246   9.636  13.234
49796SOL    HW251286   6.131   9.718  13.288
49797SOL     OW51287   5.161   4.674  13.699
49797SOL    HW151288   5.238   4.667  13.756
49797SOL    HW251289   5.192   4.723  13.623
49798SOL     OW51290  13.044   8.390   0.507
49798SOL    HW151291  13.036   8.373   0.414
49798SOL    HW251292  13.015   8.309   0.549
49799SOL     OW51293   3.664   8.251   4.870
49799SOL    HW151294   3.649   8.340   4.903
49799SOL    HW251295   3.716   8.208   4.938
49800SOL     OW51296   2.896   9.452   3.501
49800SOL    HW151297   2.883   9.369   3.455
49800SOL    HW251298   2.869   9.434   3.591
49801SOL     OW51299   5.890  13.762   9.877
49801SOL    HW151300   5.844  13.846   9.885
49801SOL    HW251301   5.850  13.719   9.801
49802SOL     OW51302  10.718  10.893  12.221
49802SOL    HW151303  10.675  10.979  12.225
49802SOL    HW251304  10.736  10.881  12.128
49803SOL     OW51305   6.552   5.841   1.168
49803SOL    HW151306   6.584   5.832   1.258
49803SOL    HW251307   6.611   5.906   1.129
49804SOL     OW51308   7.021   5.840   6.210
49804SOL    HW151309   6.997   5.877   6.124
49804SOL    HW251310   7.113   5.864   6.221
49805SOL     OW51311   8.752   2.074  11.377
49805SOL    HW151312   8.696   2.150  11.391
49805SOL    HW251313   8.750   2.027  11.461
49806SOL     OW51314  11.793   8.731  13.483
49806SOL    HW151315  11.764   8.641  13.472
49806SOL    HW251316  11.854   8.745  13.411
49807SOL     OW51317  14.691  10.836  10.297
49807SOL    HW151318  14.779  10.820  10.330
49807SOL    HW251319  14.654  10.903  10.355
49808SOL     OW51320   2.337   0.232   1.521
49808SOL    HW151321   2.321   0.188   1.604
49808SOL    HW251322   2.363   0.321   1.545
49809SOL     OW51323   4.039   9.206   5.597
49809SOL    HW151324   4.012   9.269   5.664
49809SOL    HW251325   3.982   9.224   5.522
49810SOL     OW51326   8.244  13.809   2.751
49810SOL    HW151327   8.193  13.881   2.788
49810SOL    HW251328   8.185  13.767   2.689
49811SOL     OW51329   7.044   7.331   1.547
49811SOL    HW151330   7.102   7.407   1.550
49811SOL    HW251331   7.048   7.295   1.636
49812SOL     OW51332   0.893  10.418   0.337
49812SOL    HW151333   0.917  10.350   0.399
49812SOL    HW251334   0.954  10.406   0.264
49813SOL     OW51335   8.487   0.647  14.005
49813SOL    HW151336   8.537   0.573  14.039
49813SOL    HW251337   8.398   0.631  14.036
49814SOL     OW51338   2.902   1.315  11.167
49814SOL    HW151339   2.873   1.314  11.258
49814SOL    HW251340   2.875   1.401  11.135
49815SOL     OW51341  14.691   7.212   6.218
49815SOL    HW151342  14.706   7.220   6.124
49815SOL    HW251343  14.765   7.160   6.249
49816SOL     OW51344   1.790  13.365   7.277
49816SOL    HW151345   1.795  13.355   7.372
49816SOL    HW251346   1.879  13.388   7.250
49817SOL     OW51347   1.816   9.584  11.968
49817SOL    HW151348   1.910   9.593  11.981
49817SOL    HW251349   1.779   9.666  12.002
49818SOL     OW51350   2.660   1.179   9.462
49818SOL    HW151351   2.568   1.205   9.465
49818SOL    HW251352   2.658   1.091   9.423
49819SOL     OW51353  14.342   3.872   7.613
49819SOL    HW151354  14.269   3.896   7.669
49819SOL    HW251355  14.401   3.947   7.616
49820SOL     OW51356  10.263   1.978  12.947
49820SOL    HW151357  10.209   2.048  12.911
49820SOL    HW251358  10.211   1.899  12.935
49821SOL     OW51359  10.346   7.100   7.446
49821SOL    HW151360  10.425   7.049   7.465
49821SOL    HW251361  10.280   7.067   7.507
49822SOL     OW51362  13.794  10.835   1.977
49822SOL    HW151363  13.826  10.755   2.019
49822SOL    HW251364  13.755  10.885   2.048
49823SOL     OW51365   0.420  14.423   5.417
49823SOL    HW151366   0.418  14.455   5.507
49823SOL    HW251367   0.347  14.468   5.374
49824SOL     OW51368   1.200   4.434  10.217
49824SOL    HW151369   1.268   4.455  10.153
49824SOL    HW251370   1.126   4.404  10.165
49825SOL     OW51371   3.737  12.427   8.368
49825SOL    HW151372   3.678  12.359   8.401
49825SOL    HW251373   3.682  12.504   8.356
49826SOL     OW51374   1.199   6.102  11.299
49826SOL    HW151375   1.141   6.038  11.257
49826SOL    HW251376   1.149   6.134  11.374
49827SOL     OW51377   9.708   0.120   8.140
49827SOL    HW151378   9.677   0.192   8.194
49827SOL    HW251379   9.801   0.139   8.126
49828SOL     OW51380  13.869  10.274   2.926
49828SOL    HW151381  13.947  10.255   2.873
49828SOL    HW251382  13.878  10.366   2.950
49829SOL     OW51383  13.336   6.719  13.859
49829SOL    HW151384  13.402   6.680  13.916
49829SOL    HW251385  13.353   6.813  13.863
49830SOL     OW51386  13.721   7.549  10.751
49830SOL    HW151387  13.651   7.611  10.730
49830SOL    HW251388  13.714   7.536  10.845
49831SOL     OW51389   6.658   5.465   0.193
49831SOL    HW151390   6.616   5.449   0.277
49831SOL    HW251391   6.611   5.410   0.131
49832SOL     OW51392   8.732   3.508   2.431
49832SOL    HW151393   8.671   3.562   2.381
49832SOL    HW251394   8.679   3.436   2.465
49833SOL     OW51395   4.566  13.025   4.068
49833SOL    HW151396   4.655  12.990   4.065
49833SOL    HW251397   4.574  13.104   4.122
49834SOL     OW51398   2.011   5.829   2.879
49834SOL    HW151399   1.999   5.879   2.798
49834SOL    HW251400   1.924   5.826   2.918
49835SOL     OW51401   1.968   0.076   8.801
49835SOL    HW151402   1.998  14.868   8.786
49835SOL    HW251403   1.974   0.088   8.895
49836SOL     OW51404  11.660  12.953  12.183
49836SOL    HW151405  11.636  12.865  12.153
49836SOL    HW251406  11.593  13.010  12.146
49837SOL     OW51407   8.937   1.796   4.712
49837SOL    HW151408   8.954   1.722   4.771
49837SOL    HW251409   8.871   1.848   4.758
49838SOL     OW51410  13.999   4.770   8.377
49838SOL    HW151411  14.069   4.704   8.370
49838SOL    HW251412  14.044   4.851   8.396
49839SOL     OW51413  13.830  12.058   9.081
49839SOL    HW151414  13.915  12.098   9.063
49839SOL    HW251415  13.831  12.040   9.175
49840SOL     OW51416   7.943   1.999   3.783
49840SOL    HW151417   7.858   2.005   3.826
49840SOL    HW251418   7.945   1.911   3.746
49841SOL     OW51419   4.407  11.312   3.781
49841SOL    HW151420   4.325  11.263   3.784
49841SOL    HW251421   4.470  11.250   3.743
49842SOL     OW51422   9.570  11.642  10.669
49842SOL    HW151423   9.510  11.690  10.725
49842SOL    HW251424   9.649  11.631  10.722
49843SOL     OW51425   0.296   6.930   4.323
49843SOL    HW151426   0.222   6.922   4.383
49843SOL    HW251427   0.287   6.856   4.264
49844SOL     OW51428   5.394   9.986  12.508
49844SOL    HW151429   5.433  10.058  12.558
49844SOL    HW251430   5.300  10.001  12.514
49845SOL     OW51431   4.899   4.485  14.132
49845SOL    HW151432   4.943   4.437  14.061
49845SOL    HW251433   4.913   4.431  14.210
49846SOL     OW51434   4.003  14.451   5.118
49846SOL    HW151435   4.075  14.408   5.164
49846SOL    HW251436   4.003  14.412   5.031
49847SOL     OW51437  11.367  11.212   4.497
49847SOL    HW151438  11.360  11.307   4.493
49847SOL    HW251439  11.296  11.180   4.441
49848SOL     OW51440   0.285  12.690   3.920
49848SOL    HW151441   0.287  12.601   3.884
49848SOL    HW251442   0.373  12.724   3.904
49849SOL     OW51443   1.983   1.277   8.862
49849SOL    HW151444   1.980   1.283   8.766
49849SOL    HW251445   1.925   1.347   8.892
49850SOL     OW51446   5.525   6.196   2.668
49850SOL    HW151447   5.516   6.278   2.717
49850SOL    HW251448   5.592   6.215   2.602
49851SOL     OW51449   4.927   7.470   8.127
49851SOL    HW151450   4.991   7.498   8.192
49851SOL    HW251451   4.979   7.441   8.053
49852SOL     OW51452   0.013   3.973   4.750
49852SOL    HW151453   0.104   3.987   4.725
49852SOL    HW251454   0.004   4.017   4.834
49853SOL     OW51455   0.974  14.607  13.534
49853SOL    HW151456   0.979  14.582  13.442
49853SOL    HW251457   0.909  14.548  13.572
49854SOL     OW51458   2.459   0.611  12.341
49854SOL    HW151459   2.444   0.678  12.275
49854SOL    HW251460   2.371   0.580  12.363
49855SOL     OW51461  14.840   3.806   6.415
49855SOL    HW151462  14.810   3.717   6.431
49855SOL    HW251463  14.779   3.861   6.464
49856SOL     OW51464   5.865   9.573  12.057
49856SOL    HW151465   5.923   9.510  12.015
49856SOL    HW251466   5.902   9.658  12.034
49857SOL     OW51467   3.477  11.042   6.936
49857SOL    HW151468   3.412  10.972   6.945
49857SOL    HW251469   3.433  11.119   6.971
49858SOL     OW51470  11.927   5.963   5.986
49858SOL    HW151471  11.853   5.937   5.931
49858SOL    HW251472  11.957   6.046   5.949
49859SOL     OW51473  11.345   9.962   4.746
49859SOL    HW151474  11.277  10.010   4.698
49859SOL    HW251475  11.298   9.899   4.800
49860SOL     OW51476   5.551   6.825   4.220
49860SOL    HW151477   5.538   6.763   4.148
49860SOL    HW251478   5.565   6.771   4.297
49861SOL     OW51479   1.452  11.790  11.834
49861SOL    HW151480   1.393  11.815  11.762
49861SOL    HW251481   1.406  11.817  11.913
49862SOL     OW51482   1.653   4.251   0.333
49862SOL    HW151483   1.701   4.259   0.251
49862SOL    HW251484   1.652   4.339   0.370
49863SOL     OW51485  14.334   3.158   9.209
49863SOL    HW151486  14.414   3.105   9.211
49863SOL    HW251487  14.361   3.241   9.171
49864SOL     OW51488   9.427  14.394   9.931
49864SOL    HW151489   9.382  14.479   9.928
49864SOL    HW251490   9.401  14.350   9.850
49865SOL     OW51491   0.808   2.807   7.504
49865SOL    HW151492   0.727   2.765   7.531
49865SOL    HW251493   0.873   2.776   7.568
49866SOL     OW51494  12.468   7.400   4.109
49866SOL    HW151495  12.475   7.445   4.025
49866SOL    HW251496  12.375   7.402   4.130
49867SOL     OW51497  10.832   3.522   9.366
49867SOL    HW151498  10.885   3.540   9.288
49867SOL    HW251499  10.871   3.442   9.404
49868SOL     OW51500   6.032   8.892   9.335
49868SOL    HW151501   5.991   8.844   9.264
49868SOL    HW251502   5.972   8.882   9.409
49869SOL     OW51503   9.445  11.637   3.217
49869SOL    HW151504   9.372  11.694   3.190
49869SOL    HW251505   9.517  11.697   3.236
49870SOL     OW51506   6.377   3.124   9.927
49870SOL    HW151507   6.440   3.136   9.998
49870SOL    HW251508   6.429   3.124   9.847
49871SOL     OW51509   3.721  14.619  13.695
49871SOL    HW151510   3.788  14.560  13.661
49871SOL    HW251511   3.639  14.584  13.661
49872SOL     OW51512  11.737   6.079   3.732
49872SOL    HW151513  11.749   6.041   3.645
49872SOL    HW251514  11.823   6.114   3.755
49873SOL     OW51515   0.868   9.062  13.316
49873SOL    HW151516   0.791   9.119  13.317
49873SOL    HW251517   0.847   8.994  13.252
49874SOL     OW51518   3.473  14.149   2.688
49874SOL    HW151519   3.410  14.221   2.678
49874SOL    HW251520   3.430  14.088   2.748
49875SOL     OW51521   7.348   0.681   4.495
49875SOL    HW151522   7.353   0.686   4.591
49875SOL    HW251523   7.331   0.771   4.468
49876SOL     OW51524   5.195   4.992   6.018
49876SOL    HW151525   5.237   4.987   5.932
49876SOL    HW251526   5.194   5.086   6.039
49877SOL     OW51527   5.879  10.287   2.200
49877SOL    HW151528   5.840  10.269   2.115
49877SOL    HW251529   5.806  10.291   2.261
49878SOL     OW51530   7.494  11.869   4.952
49878SOL    HW151531   7.516  11.844   4.863
49878SOL    HW251532   7.404  11.838   4.964
49879SOL     OW51533  14.036   3.322   9.001
49879SOL    HW151534  13.988   3.369   8.933
49879SOL    HW251535  14.128   3.344   8.985
49880SOL     OW51536   2.354   6.893   3.621
49880SOL    HW151537   2.392   6.980   3.607
49880SOL    HW251538   2.262   6.902   3.598
49881SOL     OW51539  13.166   1.358  13.068
49881SOL    HW151540  13.151   1.338  12.976
49881SOL    HW251541  13.095   1.313  13.114
49882SOL     OW51542  10.150   2.432  13.190
49882SOL    HW151543  10.106   2.510  13.223
49882SOL    HW251544  10.242   2.444  13.214
49883SOL     OW51545   1.658  10.994  14.204
49883SOL    HW151546   1.640  11.076  14.250
49883SOL    HW251547   1.753  10.990  14.197
49884SOL     OW51548   5.054   0.715  13.422
49884SOL    HW151549   5.100   0.701  13.505
49884SOL    HW251550   5.012   0.631  13.404
49885SOL     OW51551   2.051   9.815   7.054
49885SOL    HW151552   2.071   9.766   7.134
49885SOL    HW251553   2.011   9.896   7.086
49886SOL     OW51554   0.964  12.970   3.613
49886SOL    HW151555   0.912  12.926   3.680
49886SOL    HW251556   1.055  12.958   3.641
49887SOL     OW51557   2.514  13.882   4.480
49887SOL    HW151558   2.551  13.935   4.551
49887SOL    HW251559   2.419  13.892   4.489
49888SOL     OW51560   8.790  10.228   6.396
49888SOL    HW151561   8.730  10.183   6.456
49888SOL    HW251562   8.735  10.253   6.322
49889SOL     OW51563   2.341   5.533   2.460
49889SOL    HW151564   2.282   5.589   2.511
49889SOL    HW251565   2.349   5.454   2.513
49890SOL     OW51566   4.147  11.670  13.138
49890SOL    HW151567   4.181  11.694  13.225
49890SOL    HW251568   4.174  11.742  13.081
49891SOL     OW51569   9.956   0.919   4.759
49891SOL    HW151570   9.913   0.998   4.725
49891SOL    HW251571  10.044   0.922   4.723
49892SOL     OW51572   4.123   2.240   7.327
49892SOL    HW151573   4.067   2.190   7.385
49892SOL    HW251574   4.069   2.255   7.249
49893SOL     OW51575   7.137  13.257  10.075
49893SOL    HW151576   7.067  13.195  10.054
49893SOL    HW251577   7.090  13.333  10.112
49894SOL     OW51578   2.093   5.132  12.875
49894SOL    HW151579   2.091   5.050  12.924
49894SOL    HW251580   2.008   5.135  12.831
49895SOL     OW51581   5.069   4.462  14.783
49895SOL    HW151582   5.108   4.450  14.870
49895SOL    HW251583   4.980   4.494  14.801
49896SOL     OW51584   0.845   6.361  12.783
49896SOL    HW151585   0.906   6.299  12.743
49896SOL    HW251586   0.799   6.309  12.850
49897SOL     OW51587   0.065   9.430  11.615
49897SOL    HW151588   0.012   9.501  11.654
49897SOL    HW251589   0.017   9.405  11.537
49898SOL     OW51590   5.491   8.814   1.328
49898SOL    HW151591   5.532   8.844   1.247
49898SOL    HW251592   5.414   8.765   1.299
49899SOL     OW51593   1.404  13.063  13.172
49899SOL    HW151594   1.476  13.052  13.234
49899SOL    HW251595   1.443  13.106  13.096
49900SOL     OW51596  11.506  11.387   0.860
49900SOL    HW151597  11.591  11.343   0.865
49900SOL    HW251598  11.526  11.480   0.856
49901SOL     OW51599  11.741   4.312  14.494
49901SOL    HW151600  11.690   4.374  14.443
49901SOL    HW251601  11.752   4.236  14.436
49902SOL     OW51602  14.002   8.502   3.602
49902SOL    HW151603  13.934   8.461   3.549
49902SOL    HW251604  13.997   8.457   3.686
49903SOL     OW51605  11.723   5.853  12.811
49903SOL    HW151606  11.734   5.933  12.861
49903SOL    HW251607  11.658   5.802  12.860
49904SOL     OW51608   1.795  10.884   3.295
49904SOL    HW151609   1.757  10.855   3.378
49904SOL    HW251610   1.721  10.914   3.243
49905SOL     OW51611   9.512   5.951   5.428
49905SOL    HW151612   9.431   5.922   5.470
49905SOL    HW251613   9.581   5.913   5.482
49906SOL     OW51614   5.546   8.388   7.875
49906SOL    HW151615   5.633   8.427   7.883
49906SOL    HW251616   5.562   8.298   7.847
49907SOL     OW51617   9.891  13.660   9.343
49907SOL    HW151618   9.982  13.687   9.355
49907SOL    HW251619   9.841  13.723   9.395
49908SOL     OW51620   7.199   2.891  14.467
49908SOL    HW151621   7.184   2.872  14.375
49908SOL    HW251622   7.186   2.807  14.511
49909SOL     OW51623   6.492   9.683   4.993
49909SOL    HW151624   6.429   9.647   5.055
49909SOL    HW251625   6.507   9.612   4.930
49910SOL     OW51626   2.993  12.937  10.246
49910SOL    HW151627   2.981  12.920  10.153
49910SOL    HW251628   3.067  12.999  10.249
49911SOL     OW51629  12.230   9.985   5.917
49911SOL    HW151630  12.214  10.058   5.977
49911SOL    HW251631  12.166   9.996   5.848
49912SOL     OW51632  14.649   6.722   7.512
49912SOL    HW151633  14.565   6.712   7.467
49912SOL    HW251634  14.638   6.676   7.595
49913SOL     OW51635   6.992   7.499  13.424
49913SOL    HW151636   6.929   7.428  13.439
49913SOL    HW251637   6.947   7.577  13.458
49914SOL     OW51638  13.035   3.567   9.815
49914SOL    HW151639  13.044   3.659   9.793
49914SOL    HW251640  13.098   3.553   9.886
49915SOL     OW51641  14.084   8.480  13.429
49915SOL    HW151642  14.146   8.516  13.493
49915SOL    HW251643  14.134   8.472  13.348
49916SOL     OW51644   3.772   0.867   8.301
49916SOL    HW151645   3.755   0.960   8.286
49916SOL    HW251646   3.851   0.848   8.249
49917SOL     OW51647   2.210  14.503   5.187
49917SOL    HW151648   2.246  14.590   5.206
49917SOL    HW251649   2.197  14.464   5.273
49918SOL     OW51650   6.716  12.227   8.948
49918SOL    HW151651   6.623  12.205   8.950
49918SOL    HW251652   6.729  12.270   8.864
49919SOL     OW51653  10.752   7.585   4.702
49919SOL    HW151654  10.747   7.596   4.796
49919SOL    HW251655  10.713   7.665   4.666
49920SOL     OW51656   1.336  12.358  10.450
49920SOL    HW151657   1.264  12.319  10.499
49920SOL    HW251658   1.404  12.372  10.515
49921SOL     OW51659  10.117  10.692   1.202
49921SOL    HW151660  10.049  10.702   1.136
49921SOL    HW251661  10.199  10.700   1.153
49922SOL     OW51662   8.177  12.675   8.482
49922SOL    HW151663   8.175  12.611   8.411
49922SOL    HW251664   8.195  12.623   8.560
49923SOL     OW51665  14.759   9.031  11.244
49923SOL    HW151666  14.730   9.033  11.335
49923SOL    HW251667  14.850   9.059  11.247
49924SOL     OW51668   0.673   1.624   6.369
49924SOL    HW151669   0.665   1.714   6.401
49924SOL    HW251670   0.761   1.597   6.396
49925SOL     OW51671   0.228   7.798  10.839
49925SOL    HW151672   0.296   7.730  10.832
49925SOL    HW251673   0.192   7.786  10.927
49926SOL     OW51674   4.850   5.838   7.328
49926SOL    HW151675   4.862   5.868   7.238
49926SOL    HW251676   4.766   5.876   7.355
49927SOL     OW51677   4.319  12.460  11.133
49927SOL    HW151678   4.344  12.491  11.221
49927SOL    HW251679   4.352  12.370  11.129
49928SOL     OW51680  10.677   4.917   4.646
49928SOL    HW151681  10.726   4.980   4.594
49928SOL    HW251682  10.641   4.856   4.581
49929SOL     OW51683   1.589   0.818  10.529
49929SOL    HW151684   1.564   0.781  10.444
49929SOL    HW251685   1.534   0.896  10.539
49930SOL     OW51686   1.527  14.705  10.529
49930SOL    HW151687   1.620  14.684  10.519
49930SOL    HW251688   1.517  14.723  10.623
49931SOL     OW51689   0.533   7.694   2.110
49931SOL    HW151690   0.578   7.772   2.141
49931SOL    HW251691   0.527   7.706   2.015
49932SOL     OW51692  13.013   2.791  10.308
49932SOL    HW151693  12.949   2.756  10.247
49932SOL    HW251694  13.088   2.732  10.301
49933SOL     OW51695   6.809  12.893   6.504
49933SOL    HW151696   6.812  12.968   6.445
49933SOL    HW251697   6.900  12.876   6.527
49934SOL     OW51698  11.002  14.640   2.063
49934SOL    HW151699  10.927  14.587   2.089
49934SOL    HW251700  10.988  14.658   1.970
49935SOL     OW51701   3.756  14.049   3.106
49935SOL    HW151702   3.708  13.971   3.135
49935SOL    HW251703   3.762  14.104   3.184
49936SOL     OW51704   4.906  11.336   5.352
49936SOL    HW151705   4.989  11.331   5.399
49936SOL    HW251706   4.931  11.339   5.260
49937SOL     OW51707  10.751   1.370   5.937
49937SOL    HW151708  10.730   1.399   6.026
49937SOL    HW251709  10.733   1.276   5.938
49938SOL     OW51710   2.684   5.880   2.818
49938SOL    HW151711   2.775   5.907   2.802
49938SOL    HW251712   2.688   5.784   2.819
49939SOL     OW51713   9.131  11.494   3.010
49939SOL    HW151714   9.068  11.425   2.988
49939SOL    HW251715   9.216  11.451   3.006
49940SOL     OW51716  11.019   2.393   0.175
49940SOL    HW151717  10.970   2.313   0.193
49940SOL    HW251718  11.035   2.431   0.262
49941SOL     OW51719  12.467   2.580   6.877
49941SOL    HW151720  12.505   2.657   6.837
49941SOL    HW251721  12.393   2.557   6.820
49942SOL     OW51722   7.415   4.785   9.458
49942SOL    HW151723   7.443   4.812   9.371
49942SOL    HW251724   7.486   4.812   9.516
49943SOL     OW51725   0.292   2.480  11.511
49943SOL    HW151726   0.241   2.411  11.468
49943SOL    HW251727   0.350   2.512  11.442
49944SOL     OW51728  11.343  13.136  12.547
49944SOL    HW151729  11.362  13.160  12.638
49944SOL    HW251730  11.339  13.220  12.501
49945SOL     OW51731   0.779  12.083   0.962
49945SOL    HW151732   0.728  12.111   1.038
49945SOL    HW251733   0.795  11.990   0.977
49946SOL     OW51734  12.594   7.337  14.656
49946SOL    HW151735  12.563   7.386  14.580
49946SOL    HW251736  12.666   7.283  14.623
49947SOL     OW51737  11.204  11.221  11.255
49947SOL    HW151738  11.278  11.257  11.206
49947SOL    HW251739  11.127  11.265  11.217
49948SOL     OW51740   0.009   3.630  10.028
49948SOL    HW151741  14.860   3.547   9.991
49948SOL    HW251742   0.098   3.638   9.997
49949SOL     OW51743   0.410   7.180  14.803
49949SOL    HW151744   0.398   7.239  14.877
49949SOL    HW251745   0.504   7.161  14.802
49950SOL     OW51746  10.086   6.055  11.643
49950SOL    HW151747  10.099   6.123  11.710
49950SOL    HW251748  10.000   6.075  11.606
49951SOL     OW51749  14.086   4.412  10.983
49951SOL    HW151750  14.029   4.414  11.060
49951SOL    HW251751  14.174   4.419  11.018
49952SOL     OW51752   2.493   5.811  14.595
49952SOL    HW151753   2.517   5.757  14.520
49952SOL    HW251754   2.543   5.776  14.668
49953SOL     OW51755   5.348   6.257  12.975
49953SOL    HW151756   5.341   6.194  12.903
49953SOL    HW251757   5.269   6.311  12.968
49954SOL     OW51758  13.301   8.058  10.016
49954SOL    HW151759  13.221   8.012   9.989
49954SOL    HW251760  13.298   8.057  10.111
49955SOL     OW51761  12.540  10.336   7.114
49955SOL    HW151762  12.567  10.283   7.039
49955SOL    HW251763  12.446  10.323   7.120
49956SOL     OW51764   2.551  13.475   7.835
49956SOL    HW151765   2.580  13.429   7.913
49956SOL    HW251766   2.534  13.406   7.771
49957SOL     OW51767  12.653  12.368   8.264
49957SOL    HW151768  12.731  12.370   8.320
49957SOL    HW251769  12.591  12.312   8.311
49958SOL     OW51770   3.496  11.356   5.368
49958SOL    HW151771   3.451  11.426   5.322
49958SOL    HW251772   3.527  11.297   5.299
49959SOL     OW51773   2.044   8.829   5.107
49959SOL    HW151774   2.057   8.906   5.053
49959SOL    HW251775   2.080   8.853   5.192
49960SOL     OW51776  12.682   1.039  13.859
49960SOL    HW151777  12.632   0.957  13.867
49960SOL    HW251778  12.618   1.103  13.829
49961SOL     OW51779   3.572   9.721  13.516
49961SOL    HW151780   3.546   9.813  13.518
49961SOL    HW251781   3.535   9.684  13.597
49962SOL     OW51782   7.717   3.487   0.820
49962SOL    HW151783   7.662   3.561   0.795
49962SOL    HW251784   7.703   3.422   0.751
49963SOL     OW51785   1.399   9.464  14.592
49963SOL    HW151786   1.483   9.456  14.637
49963SOL    HW251787   1.382   9.558  14.589
49964SOL     OW51788   4.231  14.508   1.006
49964SOL    HW151789   4.171  14.434   0.991
49964SOL    HW251790   4.175  14.575   1.045
49965SOL     OW51791   0.651  11.817  14.775
49965SOL    HW151792   0.734  11.862  14.763
49965SOL    HW251793   0.674  11.724  14.777
49966SOL     OW51794   2.695   6.414   1.308
49966SOL    HW151795   2.675   6.508   1.303
49966SOL    HW251796   2.786   6.411   1.337
49967SOL     OW51797  10.544   9.259  11.736
49967SOL    HW151798  10.454   9.291  11.739
49967SOL    HW251799  10.584   9.305  11.662
49968SOL     OW51800   7.088   5.044  13.312
49968SOL    HW151801   7.166   5.067  13.262
49968SOL    HW251802   7.096   4.950  13.327
49969SOL     OW51803  13.515   1.879   0.306
49969SOL    HW151804  13.575   1.806   0.292
49969SOL    HW251805  13.553   1.926   0.381
49970SOL     OW51806  10.734  13.954   7.626
49970SOL    HW151807  10.732  14.039   7.582
49970SOL    HW251808  10.675  13.899   7.575
49971SOL     OW51809   4.922   4.584   9.124
49971SOL    HW151810   4.845   4.541   9.163
49971SOL    HW251811   4.919   4.673   9.157
49972SOL     OW51812  11.522   7.364   7.809
49972SOL    HW151813  11.615   7.339   7.802
49972SOL    HW251814  11.486   7.347   7.722
49973SOL     OW51815   5.163   5.724  14.464
49973SOL    HW151816   5.199   5.813  14.466
49973SOL    HW251817   5.116   5.715  14.547
49974SOL     OW51818  10.175   7.573   0.525
49974SOL    HW151819  10.161   7.480   0.506
49974SOL    HW251820  10.148   7.618   0.445
49975SOL     OW51821   4.307   1.970   1.975
49975SOL    HW151822   4.367   1.947   1.904
49975SOL    HW251823   4.338   2.055   2.005
49976SOL     OW51824   4.052   9.435  12.517
49976SOL    HW151825   4.135   9.471  12.547
49976SOL    HW251826   3.986   9.478  12.572
49977SOL     OW51827  13.135  11.830  10.413
49977SOL    HW151828  13.159  11.882  10.336
49977SOL    HW251829  13.087  11.755  10.377
49978SOL     OW51830   4.966   1.622  11.807
49978SOL    HW151831   5.049   1.666  11.827
49978SOL    HW251832   4.915   1.688  11.759
49979SOL     OW51833   2.472   3.582  13.020
49979SOL    HW151834   2.469   3.559  12.927
49979SOL    HW251835   2.420   3.662  13.026
49980SOL     OW51836  12.184   0.488   2.749
49980SOL    HW151837  12.139   0.501   2.665
49980SOL    HW251838  12.115   0.461   2.809
49981SOL     OW51839  11.549  14.054  11.635
49981SOL    HW151840  11.632  14.072  11.590
49981SOL    HW251841  11.557  13.963  11.664
49982SOL     OW51842  10.326  10.725   1.064
49982SOL    HW151843  10.322  10.773   0.981
49982SOL    HW251844  10.371  10.784   1.123
49983SOL     OW51845  10.461  14.109   7.800
49983SOL    HW151846  10.485  14.200   7.816
49983SOL    HW251847  10.522  14.059   7.855
49984SOL     OW51848  14.729  11.115  11.794
49984SOL    HW151849  14.716  11.080  11.883
49984SOL    HW251850  14.749  11.038  11.741
49985SOL     OW51851   6.174   6.593  12.280
49985SOL    HW151852   6.131   6.673  12.248
49985SOL    HW251853   6.121   6.566  12.355
49986SOL     OW51854  11.255   4.854   6.551
49986SOL    HW151855  11.328   4.794   6.533
49986SOL    HW251856  11.258   4.918   6.480
49987SOL     OW51857   9.371   1.962   2.247
49987SOL    HW151858   9.412   2.017   2.314
49987SOL    HW251859   9.414   1.876   2.257
49988SOL     OW51860   2.014  10.975   7.865
49988SOL    HW151861   2.011  10.911   7.794
49988SOL    HW251862   2.017  11.060   7.821
49989SOL     OW51863   4.097  11.112   1.340
49989SOL    HW151864   4.127  11.198   1.370
49989SOL    HW251865   4.041  11.131   1.265
49990SOL     OW51866  13.771   8.759   2.239
49990SOL    HW151867  13.795   8.837   2.289
49990SOL    HW251868  13.840   8.750   2.174
49991SOL     OW51869   5.026  11.408   7.231
49991SOL    HW151870   5.024  11.444   7.143
49991SOL    HW251871   5.075  11.327   7.223
49992SOL     OW51872  14.876  11.586   0.580
49992SOL    HW151873   0.081  11.547   0.586
49992SOL    HW251874  14.816  11.511   0.583
49993SOL     OW51875   6.200  11.049   2.423
49993SOL    HW151876   6.182  11.053   2.517
49993SOL    HW251877   6.181  11.137   2.391
49994SOL     OW51878   4.925  13.602  12.519
49994SOL    HW151879   4.923  13.694  12.493
49994SOL    HW251880   4.871  13.557  12.455
49995SOL     OW51881   8.825   6.897  12.849
49995SOL    HW151882   8.738   6.923  12.880
49995SOL    HW251883   8.876   6.978  12.850
49996SOL     OW51884   3.778   5.984   4.815
49996SOL    HW151885   3.725   5.931   4.756
49996SOL    HW251886   3.853   5.928   4.837
49997SOL     OW51887   7.040   1.569   1.798
49997SOL    HW151888   7.009   1.520   1.722
49997SOL    HW251889   7.066   1.501   1.861
49998SOL     OW51890  10.856   6.506   9.333
49998SOL    HW151891  10.878   6.414   9.320
49998SOL    HW251892  10.878   6.523   9.425
49999SOL     OW51893   7.672  11.242  13.396
49999SOL    HW151894   7.653  11.325  13.352
49999SOL    HW251895   7.611  11.239  13.469
50000SOL     OW51896  11.090  12.868  12.544
50000SOL    HW151897  11.161  12.928  12.565
50000SOL    HW251898  11.131  12.801  12.489
50001SOL     OW51899  14.010  10.947   1.088
50001SOL    HW151900  13.921  10.920   1.065
50001SOL    HW251901  14.002  10.984   1.175
50002SOL     OW51902  12.146  11.111   3.913
50002SOL    HW151903  12.189  11.190   3.946
50002SOL    HW251904  12.201  11.083   3.840
50003SOL     OW51905   0.365   5.549  13.170
50003SOL    HW151906   0.293   5.611  13.170
50003SOL    HW251907   0.444   5.603  13.177
50004SOL     OW51908  14.521  14.642  12.742
50004SOL    HW151909  14.467  14.710  12.782
50004SOL    HW251910  14.516  14.568  12.803
50005SOL     OW51911   5.836  12.264   0.408
50005SOL    HW151912   5.803  12.315   0.482
50005SOL    HW251913   5.788  12.182   0.411
50006SOL     OW51914   9.930   8.621   8.989
50006SOL    HW151915   9.987   8.693   8.960
50006SOL    HW251916   9.843   8.660   8.996
50007SOL     OW51917  12.415  14.780   4.459
50007SOL    HW151918  12.424  14.720   4.385
50007SOL    HW251919  12.410  14.724   4.536
50008SOL     OW51920  10.444   4.875  13.467
50008SOL    HW151921  10.361   4.827  13.467
50008SOL    HW251922  10.423   4.960  13.504
50009SOL     OW51923  12.580  12.652  14.788
50009SOL    HW151924  12.622  12.676  14.705
50009SOL    HW251925  12.507  12.595  14.762
50010SOL     OW51926   8.425   7.620  10.803
50010SOL    HW151927   8.388   7.639  10.717
50010SOL    HW251928   8.353   7.639  10.864
50011SOL     OW51929   5.722   2.434   4.990
50011SOL    HW151930   5.670   2.381   4.929
50011SOL    HW251931   5.680   2.421   5.075
50012SOL     OW51932   7.168   1.065   8.410
50012SOL    HW151933   7.217   0.983   8.417
50012SOL    HW251934   7.105   1.061   8.483
50013SOL     OW51935   0.865   5.950   6.294
50013SOL    HW151936   0.882   5.915   6.382
50013SOL    HW251937   0.835   6.040   6.310
50014SOL     OW51938   3.864   5.817  10.955
50014SOL    HW151939   3.947   5.783  10.989
50014SOL    HW251940   3.862   5.908  10.984
50015SOL     OW51941   8.468   5.929  10.844
50015SOL    HW151942   8.481   5.996  10.776
50015SOL    HW251943   8.489   5.973  10.926
50016SOL     OW51944   8.401  12.790   9.820
50016SOL    HW151945   8.436  12.729   9.755
50016SOL    HW251946   8.306  12.777   9.816
50017SOL     OW51947   0.176   2.273  13.306
50017SOL    HW151948   0.109   2.275  13.375
50017SOL    HW251949   0.144   2.336  13.241
50018SOL     OW51950  13.242   9.998   0.739
50018SOL    HW151951  13.268  10.047   0.661
50018SOL    HW251952  13.271   9.908   0.721
50019SOL     OW51953   0.384  12.669   0.476
50019SOL    HW151954   0.400  12.671   0.570
50019SOL    HW251955   0.470  12.683   0.437
50020SOL     OW51956   0.639   1.372   4.049
50020SOL    HW151957   0.620   1.465   4.062
50020SOL    HW251958   0.691   1.347   4.125
50021SOL     OW51959   7.875  13.058   4.291
50021SOL    HW151960   7.905  12.983   4.342
50021SOL    HW251961   7.781  13.063   4.307
50022SOL     OW51962   1.164   6.497   5.933
50022SOL    HW151963   1.126   6.453   5.857
50022SOL    HW251964   1.088   6.529   5.982
50023SOL     OW51965   6.865   7.869   8.173
50023SOL    HW151966   6.878   7.846   8.265
50023SOL    HW251967   6.772   7.892   8.168
50024SOL     OW51968  14.292   7.230   9.798
50024SOL    HW151969  14.378   7.266   9.775
50024SOL    HW251970  14.308   7.182   9.879
50025SOL     OW51971  11.708   7.857  14.438
50025SOL    HW151972  11.623   7.853  14.482
50025SOL    HW251973  11.686   7.858  14.345
50026SOL     OW51974  14.331   6.887  11.939
50026SOL    HW151975  14.394   6.915  11.872
50026SOL    HW251976  14.286   6.968  11.965
50027SOL     OW51977   2.634  13.248   0.943
50027SOL    HW151978   2.691  13.306   0.994
50027SOL    HW251979   2.559  13.302   0.920
50028SOL     OW51980  10.732   8.744   8.193
50028SOL    HW151981  10.820   8.707   8.187
50028SOL    HW251982  10.682   8.681   8.244
50029SOL     OW51983  13.725  14.504  11.240
50029SOL    HW151984  13.772  14.584  11.263
50029SOL    HW251985  13.711  14.511  11.145
50030SOL     OW51986   7.067   6.787  13.129
50030SOL    HW151987   7.162   6.781  13.120
50030SOL    HW251988   7.038   6.826  13.047
50031SOL     OW51989   5.078  12.005  11.218
50031SOL    HW151990   5.163  11.963  11.231
50031SOL    HW251991   5.067  12.010  11.123
50032SOL     OW51992   4.760   0.105  10.408
50032SOL    HW151993   4.717   0.084  10.491
50032SOL    HW251994   4.804   0.024  10.382
50033SOL     OW51995  13.700   6.788   5.573
50033SOL    HW151996  13.626   6.730   5.558
50033SOL    HW251997  13.665   6.876   5.558
50034SOL     OW51998   0.313   9.965   4.646
50034SOL    HW151999   0.223   9.993   4.663
50034SOL    HW252000   0.365  10.045   4.653
50035SOL     OW52001   5.758   4.248   3.839
50035SOL    HW152002   5.847   4.223   3.813
50035SOL    HW252003   5.724   4.169   3.881
50036SOL     OW52004   3.176  11.228  12.428
50036SOL    HW152005   3.220  11.269  12.354
50036SOL    HW252006   3.196  11.135  12.420
50037SOL     OW52007  12.784  10.827  12.791
50037SOL    HW152008  12.768  10.817  12.697
50037SOL    HW252009  12.846  10.757  12.813
50038SOL     OW52010  13.920   7.904   2.759
50038SOL    HW152011  14.016   7.905   2.768
50038SOL    HW252012  13.889   7.961   2.829
50039SOL     OW52013   5.562   3.819   4.372
50039SOL    HW152014   5.591   3.765   4.446
50039SOL    HW252015   5.492   3.768   4.331
50040SOL     OW52016   1.967   6.754   0.733
50040SOL    HW152017   2.005   6.710   0.657
50040SOL    HW252018   1.875   6.730   0.732
50041SOL     OW52019  10.679   8.105   4.880
50041SOL    HW152020  10.608   8.121   4.942
50041SOL    HW252021  10.659   8.161   4.805
50042SOL     OW52022   2.178   0.710  10.429
50042SOL    HW152023   2.256   0.718  10.374
50042SOL    HW252024   2.186   0.781  10.493
50043SOL     OW52025   2.741   6.947  12.040
50043SOL    HW152026   2.795   6.871  12.017
50043SOL    HW252027   2.653   6.925  12.008
50044SOL     OW52028   8.779   4.362   4.366
50044SOL    HW152029   8.839   4.373   4.440
50044SOL    HW252030   8.747   4.451   4.348
50045SOL     OW52031   0.359   7.437   0.786
50045SOL    HW152032   0.439   7.400   0.824
50045SOL    HW252033   0.325   7.368   0.730
50046SOL     OW52034   9.447   1.785   1.263
50046SOL    HW152035   9.510   1.717   1.238
50046SOL    HW252036   9.416   1.758   1.349
50047SOL     OW52037  11.901  11.235   3.786
50047SOL    HW152038  11.986  11.251   3.828
50047SOL    HW252039  11.917  11.159   3.729
50048SOL     OW52040  14.402   2.720   2.993
50048SOL    HW152041  14.346   2.682   3.061
50048SOL    HW252042  14.433   2.803   3.031
50049SOL     OW52043  12.400   6.851  14.634
50049SOL    HW152044  12.423   6.802  14.555
50049SOL    HW252045  12.313   6.820  14.656
50050SOL     OW52046   3.704  13.615  14.033
50050SOL    HW152047   3.778  13.582  13.983
50050SOL    HW252048   3.693  13.705  14.003
50051SOL     OW52049   6.792  11.262   1.700
50051SOL    HW152050   6.861  11.198   1.680
50051SOL    HW252051   6.710  11.216   1.685
50052SOL     OW52052   3.325   7.742   5.408
50052SOL    HW152053   3.411   7.774   5.434
50052SOL    HW252054   3.341   7.695   5.326
50053SOL     OW52055   6.525  13.130  10.349
50053SOL    HW152056   6.591  13.061  10.336
50053SOL    HW252057   6.501  13.157  10.260
50054SOL     OW52058   7.959   9.560   4.915
50054SOL    HW152059   7.975   9.546   4.822
50054SOL    HW252060   8.022   9.503   4.960
50055SOL     OW52061  11.036  12.735   8.234
50055SOL    HW152062  10.942  12.752   8.242
50055SOL    HW252063  11.043  12.669   8.165
50056SOL     OW52064  11.580   4.228  12.330
50056SOL    HW152065  11.508   4.190  12.280
50056SOL    HW252066  11.565   4.322  12.327
50057SOL     OW52067   4.764  11.764   9.568
50057SOL    HW152068   4.686  11.776   9.513
50057SOL    HW252069   4.836  11.755   9.505
50058SOL     OW52070  13.411   6.918  11.092
50058SOL    HW152071  13.345   6.877  11.148
50058SOL    HW252072  13.450   6.985  11.147
50059SOL     OW52073   4.476   4.308   0.931
50059SOL    HW152074   4.398   4.253   0.939
50059SOL    HW252075   4.446   4.395   0.959
50060SOL     OW52076  12.933   0.946  10.386
50060SOL    HW152077  12.853   0.904  10.356
50060SOL    HW252078  12.974   0.882  10.444
50061SOL     OW52079   9.882   5.934   9.081
50061SOL    HW152080   9.834   5.851   9.077
50061SOL    HW252081   9.936   5.926   9.160
50062SOL     OW52082   7.849  11.632   0.142
50062SOL    HW152083   7.918  11.664   0.199
50062SOL    HW252084   7.876  11.543   0.118
50063SOL     OW52085   3.544   4.365  13.506
50063SOL    HW152086   3.544   4.438  13.444
50063SOL    HW252087   3.452   4.338  13.510
50064SOL     OW52088  14.650   3.484   2.264
50064SOL    HW152089  14.591   3.462   2.336
50064SOL    HW252090  14.626   3.424   2.193
50065SOL     OW52091   4.418  14.163   4.338
50065SOL    HW152092   4.413  14.087   4.395
50065SOL    HW252093   4.511  14.173   4.319
50066SOL     OW52094  14.653  11.711  11.631
50066SOL    HW152095  14.579  11.771  11.634
50066SOL    HW252096  14.668  11.695  11.538
50067SOL     OW52097   3.989   3.429   8.732
50067SOL    HW152098   4.049   3.392   8.797
50067SOL    HW252099   4.036   3.423   8.649
50068SOL     OW52100   6.864  12.744   1.947
50068SOL    HW152101   6.953  12.709   1.950
50068SOL    HW252102   6.811  12.671   1.915
50069SOL     OW52103   4.531   1.266   5.917
50069SOL    HW152104   4.536   1.362   5.918
50069SOL    HW252105   4.486   1.244   5.999
50070SOL     OW52106   4.071  11.560   8.170
50070SOL    HW152107   4.114  11.567   8.085
50070SOL    HW252108   4.134  11.512   8.225
50071SOL     OW52109   3.891   8.765   8.457
50071SOL    HW152110   3.875   8.859   8.457
50071SOL    HW252111   3.947   8.749   8.533
50072SOL     OW52112  12.136  10.408   3.649
50072SOL    HW152113  12.232  10.404   3.650
50072SOL    HW252114  12.112  10.426   3.740
50073SOL     OW52115   3.132   3.294   3.730
50073SOL    HW152116   3.080   3.284   3.810
50073SOL    HW252117   3.217   3.326   3.761
50074SOL     OW52118   4.250   1.889   4.410
50074SOL    HW152119   4.161   1.921   4.425
50074SOL    HW252120   4.301   1.968   4.391
50075SOL     OW52121   3.294  11.535   9.422
50075SOL    HW152122   3.381  11.501   9.403
50075SOL    HW252123   3.237  11.458   9.418
50076SOL     OW52124   2.207   0.471  11.694
50076SOL    HW152125   2.256   0.553  11.700
50076SOL    HW252126   2.274   0.402  11.699
50077SOL     OW52127   2.960  10.595   5.490
50077SOL    HW152128   2.865  10.584   5.479
50077SOL    HW252129   2.977  10.684   5.459
50078SOL     OW52130   0.877   8.048   3.634
50078SOL    HW152131   0.789   8.079   3.615
50078SOL    HW252132   0.927   8.067   3.555
50079SOL     OW52133  13.152   7.084  13.492
50079SOL    HW152134  13.243   7.068  13.468
50079SOL    HW252135  13.143   7.045  13.579
50080SOL     OW52136   4.486   0.322  14.119
50080SOL    HW152137   4.451   0.270  14.191
50080SOL    HW252138   4.577   0.339  14.143
50081SOL     OW52139   0.654  10.310   8.478
50081SOL    HW152140   0.564  10.339   8.492
50081SOL    HW252141   0.695  10.316   8.565
50082SOL     OW52142   1.811  10.854  13.274
50082SOL    HW152143   1.762  10.854  13.356
50082SOL    HW252144   1.845  10.765  13.266
50083SOL     OW52145   6.466   5.630   8.151
50083SOL    HW152146   6.373   5.655   8.148
50083SOL    HW252147   6.508   5.688   8.088
50084SOL     OW52148   9.980  12.651  14.645
50084SOL    HW152149   9.955  12.579  14.587
50084SOL    HW252150  10.059  12.687  14.605
50085SOL     OW52151   1.023   4.408  14.668
50085SOL    HW152152   1.081   4.409  14.744
50085SOL    HW252153   0.985   4.320  14.669
50086SOL     OW52154   2.253   8.357   2.328
50086SOL    HW152155   2.245   8.336   2.422
50086SOL    HW252156   2.167   8.389   2.303
50087SOL     OW52157   9.753   7.444  13.425
50087SOL    HW152158   9.841   7.407  13.421
50087SOL    HW252159   9.700   7.387  13.369
50088SOL     OW52160  10.215  10.133   8.736
50088SOL    HW152161  10.248  10.191   8.667
50088SOL    HW252162  10.151  10.186   8.783
50089SOL     OW52163   2.672   2.143   2.504
50089SOL    HW152164   2.606   2.204   2.471
50089SOL    HW252165   2.653   2.061   2.459
50090SOL     OW52166   3.717   5.172   5.801
50090SOL    HW152167   3.674   5.126   5.728
50090SOL    HW252168   3.787   5.222   5.759
50091SOL     OW52169  12.815  14.806   0.565
50091SOL    HW152170  12.731  14.769   0.538
50091SOL    HW252171  12.815   0.013   0.532
50092SOL     OW52172  14.604   2.386  13.640
50092SOL    HW152173  14.515   2.418  13.658
50092SOL    HW252174  14.610   2.303  13.688
50093SOL     OW52175  12.547  10.266   8.702
50093SOL    HW152176  12.540  10.240   8.794
50093SOL    HW252177  12.497  10.200   8.655
50094SOL     OW52178   5.232   2.018  14.653
50094SOL    HW152179   5.175   2.094  14.670
50094SOL    HW252180   5.175   1.943  14.668
50095SOL     OW52181  14.698   1.217  11.501
50095SOL    HW152182  14.659   1.232  11.415
50095SOL    HW252183  14.698   1.122  11.510
50096SOL     OW52184   9.763   8.391   2.904
50096SOL    HW152185   9.776   8.378   2.998
50096SOL    HW252186   9.851   8.392   2.867
50097SOL     OW52187   1.812   8.042   0.059
50097SOL    HW152188   1.847   7.996  14.864
50097SOL    HW252189   1.872   8.020   0.129
50098SOL     OW52190  12.690   6.983   3.275
50098SOL    HW152191  12.673   6.971   3.182
50098SOL    HW252192  12.706   7.077   3.285
50099SOL     OW52193   3.025   9.811   4.868
50099SOL    HW152194   3.036   9.807   4.963
50099SOL    HW252195   3.032   9.904   4.847
50100SOL     OW52196   5.711   5.285   9.079
50100SOL    HW152197   5.658   5.321   9.007
50100SOL    HW252198   5.738   5.362   9.129
50101SOL     OW52199   9.557  11.847  13.711
50101SOL    HW152200   9.610  11.926  13.711
50101SOL    HW252201   9.494  11.861  13.640
50102SOL     OW52202   8.098   1.568   6.641
50102SOL    HW152203   8.190   1.576   6.617
50102SOL    HW252204   8.062   1.656   6.625
50103SOL     OW52205  14.370   1.210  14.546
50103SOL    HW152206  14.275   1.220  14.536
50103SOL    HW252207  14.398   1.171  14.463
50104SOL     OW52208   5.701   0.513   0.447
50104SOL    HW152209   5.620   0.533   0.494
50104SOL    HW252210   5.770   0.556   0.498
50105SOL     OW52211  12.159   6.011  11.334
50105SOL    HW152212  12.133   5.921  11.316
50105SOL    HW252213  12.203   6.006  11.418
50106SOL     OW52214  12.521   3.931  11.891
50106SOL    HW152215  12.589   3.869  11.866
50106SOL    HW252216  12.543   3.957  11.980
50107SOL     OW52217   0.502   2.695   1.723
50107SOL    HW152218   0.436   2.749   1.766
50107SOL    HW252219   0.462   2.609   1.714
50108SOL     OW52220   1.423   0.838   7.166
50108SOL    HW152221   1.491   0.899   7.194
50108SOL    HW252222   1.378   0.813   7.247
50109SOL     OW52223   3.091   4.461   4.329
50109SOL    HW152224   3.057   4.480   4.241
50109SOL    HW252225   3.061   4.373   4.348
50110SOL     OW52226   8.410  10.465  13.064
50110SOL    HW152227   8.350  10.534  13.034
50110SOL    HW252228   8.483  10.468  13.002
50111SOL     OW52229   1.683   9.822   0.457
50111SOL    HW152230   1.677   9.916   0.441
50111SOL    HW252231   1.673   9.813   0.551
50112SOL     OW52232  13.270  13.979   9.080
50112SOL    HW152233  13.176  13.962   9.090
50112SOL    HW252234  13.308  13.893   9.061
50113SOL     OW52235   4.273  12.504   9.216
50113SOL    HW152236   4.318  12.428   9.178
50113SOL    HW252237   4.265  12.565   9.142
50114SOL     OW52238   1.726   8.920   8.439
50114SOL    HW152239   1.771   8.860   8.498
50114SOL    HW252240   1.774   8.912   8.356
50115SOL     OW52241   5.747   7.346   4.909
50115SOL    HW152242   5.819   7.407   4.926
50115SOL    HW252243   5.684   7.398   4.859
50116SOL     OW52244   4.575   2.384   9.779
50116SOL    HW152245   4.638   2.435   9.728
50116SOL    HW252246   4.550   2.312   9.721
50117SOL     OW52247  11.044   3.945   2.999
50117SOL    HW152248  11.121   3.962   3.052
50117SOL    HW252249  10.980   4.011   3.027
50118SOL     OW52250   5.167  11.940   8.257
50118SOL    HW152251   5.165  11.845   8.263
50118SOL    HW252252   5.109  11.961   8.184
50119SOL     OW52253   4.863   2.947   0.556
50119SOL    HW152254   4.774   2.952   0.521
50119SOL    HW252255   4.852   2.958   0.650
50120SOL     OW52256   4.884   3.041   7.187
50120SOL    HW152257   4.808   3.062   7.241
50120SOL    HW252258   4.907   2.951   7.212
50121SOL     OW52259   1.805  14.766  12.024
50121SOL    HW152260   1.844  14.774  12.111
50121SOL    HW252261   1.850  14.833  11.971
50122SOL     OW52262   2.681  12.515  11.949
50122SOL    HW152263   2.630  12.515  11.868
50122SOL    HW252264   2.629  12.464  12.011
50123SOL     OW52265   3.838   5.745  11.314
50123SOL    HW152266   3.862   5.653  11.302
50123SOL    HW252267   3.907   5.794  11.269
50124SOL     OW52268   6.259   0.829  11.352
50124SOL    HW152269   6.176   0.870  11.378
50124SOL    HW252270   6.301   0.895  11.297
50125SOL     OW52271   9.524   0.900   7.102
50125SOL    HW152272   9.564   0.853   7.174
50125SOL    HW252273   9.578   0.978   7.091
50126SOL     OW52274   4.374   9.657   1.829
50126SOL    HW152275   4.368   9.562   1.828
50126SOL    HW252276   4.284   9.688   1.819
50127SOL     OW52277   0.613   1.803   1.762
50127SOL    HW152278   0.553   1.857   1.813
50127SOL    HW252279   0.556   1.742   1.715
50128SOL     OW52280  12.204   6.897   0.999
50128SOL    HW152281  12.293   6.900   0.964
50128SOL    HW252282  12.155   6.842   0.938
50129SOL     OW52283   6.348  13.032  11.078
50129SOL    HW152284   6.365  13.036  10.984
50129SOL    HW252285   6.387  12.949  11.107
50130SOL     OW52286   4.166   7.693   5.470
50130SOL    HW152287   4.254   7.729   5.484
50130SOL    HW252288   4.117   7.764   5.429
50131SOL     OW52289   3.122   0.396   7.322
50131SOL    HW152290   3.199   0.338   7.317
50131SOL    HW252291   3.104   0.402   7.416
50132SOL     OW52292  11.896   6.876   3.262
50132SOL    HW152293  11.924   6.877   3.171
50132SOL    HW252294  11.822   6.936   3.265
50133SOL     OW52295   6.952  12.093   0.559
50133SOL    HW152296   6.962  12.186   0.538
50133SOL    HW252297   6.861  12.085   0.589
50134SOL     OW52298   3.863   4.101   8.420
50134SOL    HW152299   3.780   4.089   8.466
50134SOL    HW252300   3.839   4.140   8.336
50135SOL     OW52301  14.316  13.842   1.010
50135SOL    HW152302  14.227  13.823   0.981
50135SOL    HW252303  14.309  13.924   1.058
50136SOL     OW52304  14.034   3.527   1.984
50136SOL    HW152305  14.059   3.517   1.892
50136SOL    HW252306  13.987   3.446   2.004
50137SOL     OW52307   0.365   8.269  12.327
50137SOL    HW152308   0.342   8.177  12.341
50137SOL    HW252309   0.454   8.277  12.361
50138SOL     OW52310   6.076   8.295   6.982
50138SOL    HW152311   6.116   8.347   6.913
50138SOL    HW252312   6.110   8.333   7.064
50139SOL     OW52313  10.116   9.650   7.853
50139SOL    HW152314  10.032   9.672   7.813
50139SOL    HW252315  10.114   9.554   7.861
50140SOL     OW52316  13.658   1.066  14.238
50140SOL    HW152317  13.593   1.108  14.294
50140SOL    HW252318  13.634   0.973  14.238
50141SOL     OW52319  14.717   7.824   7.147
50141SOL    HW152320  14.646   7.806   7.208
50141SOL    HW252321  14.783   7.870   7.199
50142SOL     OW52322  14.375  10.515   9.571
50142SOL    HW152323  14.320  10.478   9.502
50142SOL    HW252324  14.353  10.465   9.649
50143SOL     OW52325   5.876   5.708   6.911
50143SOL    HW152326   5.812   5.750   6.855
50143SOL    HW252327   5.823   5.665   6.979
50144SOL     OW52328   6.231  13.547   8.313
50144SOL    HW152329   6.146  13.584   8.339
50144SOL    HW252330   6.289  13.565   8.387
50145SOL     OW52331   2.464   7.468   3.858
50145SOL    HW152332   2.515   7.484   3.938
50145SOL    HW252333   2.527   7.482   3.787
50146SOL     OW52334  14.252   7.543   5.194
50146SOL    HW152335  14.232   7.450   5.195
50146SOL    HW252336  14.334   7.550   5.145
50147SOL     OW52337  11.215  10.946  12.546
50147SOL    HW152338  11.148  10.883  12.573
50147SOL    HW252339  11.220  11.008  12.618
50148SOL     OW52340   4.972   1.254  11.900
50148SOL    HW152341   4.920   1.191  11.950
50148SOL    HW252342   4.917   1.276  11.825
50149SOL     OW52343   8.561  13.356   4.729
50149SOL    HW152344   8.588  13.319   4.813
50149SOL    HW252345   8.633  13.336   4.669
50150SOL     OW52346  12.532   8.789  10.408
50150SOL    HW152347  12.528   8.743  10.324
50150SOL    HW252348  12.477   8.866  10.396
50151SOL     OW52349   4.315  12.529  10.843
50151SOL    HW152350   4.230  12.562  10.813
50151SOL    HW252351   4.308  12.525  10.938
50152SOL     OW52352   0.129   2.009   3.674
50152SOL    HW152353   0.129   2.049   3.587
50152SOL    HW252354   0.129   1.915   3.657
50153SOL     OW52355  13.344   9.263   6.108
50153SOL    HW152356  13.382   9.333   6.054
50153SOL    HW252357  13.251   9.262   6.084
50154SOL     OW52358  11.538   9.530   8.761
50154SOL    HW152359  11.463   9.589   8.771
50154SOL    HW252360  11.530   9.496   8.672
50155SOL     OW52361  12.176   8.626  12.170
50155SOL    HW152362  12.087   8.660  12.182
50155SOL    HW252363  12.213   8.621  12.258
50156SOL     OW52364   8.893  14.605   9.493
50156SOL    HW152365   8.804  14.612   9.527
50156SOL    HW252366   8.915  14.512   9.503
50157SOL     OW52367   3.954   2.329  11.083
50157SOL    HW152368   3.910   2.413  11.072
50157SOL    HW252369   3.964   2.318  11.178
50158SOL     OW52370   2.238   8.408   5.591
50158SOL    HW152371   2.185   8.383   5.667
50158SOL    HW252372   2.188   8.478   5.550
50159SOL     OW52373   4.183   3.241   7.695
50159SOL    HW152374   4.219   3.160   7.732
50159SOL    HW252375   4.256   3.280   7.647
50160SOL     OW52376   4.396   8.929   8.908
50160SOL    HW152377   4.418   8.865   8.839
50160SOL    HW252378   4.476   8.981   8.917
50161SOL     OW52379  14.545   5.675   2.422
50161SOL    HW152380  14.496   5.645   2.498
50161SOL    HW252381  14.483   5.730   2.374
50162SOL     OW52382   2.969   3.460   3.559
50162SOL    HW152383   2.919   3.405   3.499
50162SOL    HW252384   3.019   3.398   3.612
50163SOL     OW52385   8.496   7.174  10.378
50163SOL    HW152386   8.536   7.095  10.416
50163SOL    HW252387   8.569   7.218  10.335
50164SOL     OW52388  12.949   0.146  12.611
50164SOL    HW152389  12.980   0.223  12.660
50164SOL    HW252390  12.975   0.072  12.666
50165SOL     OW52391   6.160   3.419   9.877
50165SOL    HW152392   6.076   3.392   9.841
50165SOL    HW252393   6.216   3.431   9.800
50166SOL     OW52394   2.261   6.304   9.178
50166SOL    HW152395   2.298   6.260   9.102
50166SOL    HW252396   2.277   6.397   9.162
50167SOL     OW52397   8.262  13.048  11.197
50167SOL    HW152398   8.236  12.962  11.165
50167SOL    HW252399   8.269  13.038  11.292
50168SOL     OW52400  12.681   6.094  13.492
50168SOL    HW152401  12.644   6.105  13.580
50168SOL    HW252402  12.775   6.085  13.507
50169SOL     OW52403  10.138  12.307  10.469
50169SOL    HW152404  10.103  12.227  10.508
50169SOL    HW252405  10.066  12.370  10.474
50170SOL     OW52406  10.824  11.935   5.635
50170SOL    HW152407  10.776  11.870   5.585
50170SOL    HW252408  10.765  12.011   5.637
50171SOL     OW52409   5.336   9.000   7.775
50171SOL    HW152410   5.250   8.957   7.782
50171SOL    HW252411   5.329   9.076   7.834
50172SOL     OW52412   1.652   4.364  13.938
50172SOL    HW152413   1.571   4.334  13.896
50172SOL    HW252414   1.631   4.452  13.968
50173SOL     OW52415   2.734   2.365   8.384
50173SOL    HW152416   2.815   2.314   8.378
50173SOL    HW252417   2.665   2.299   8.393
50174SOL     OW52418   5.362   3.579   4.876
50174SOL    HW152419   5.307   3.501   4.881
50174SOL    HW252420   5.439   3.558   4.928
50175SOL     OW52421   1.297   3.629   3.806
50175SOL    HW152422   1.375   3.646   3.753
50175SOL    HW252423   1.270   3.541   3.782
50176SOL     OW52424   3.723  11.764   6.617
50176SOL    HW152425   3.760  11.792   6.534
50176SOL    HW252426   3.757  11.675   6.630
50177SOL     OW52427   7.316  13.629  14.540
50177SOL    HW152428   7.295  13.536  14.536
50177SOL    HW252429   7.234  13.671  14.564
50178SOL     OW52430   9.461   0.261   1.310
50178SOL    HW152431   9.451   0.355   1.294
50178SOL    HW252432   9.379   0.223   1.280
50179SOL     OW52433   3.841   1.289   7.604
50179SOL    HW152434   3.870   1.367   7.651
50179SOL    HW252435   3.753   1.310   7.574
50180SOL     OW52436   3.889  13.415   5.985
50180SOL    HW152437   3.857  13.482   5.925
50180SOL    HW252438   3.941  13.357   5.930
50181SOL     OW52439   7.104   6.839   0.527
50181SOL    HW152440   7.150   6.919   0.503
50181SOL    HW252441   7.139   6.815   0.613
50182SOL     OW52442   5.451  12.774   1.681
50182SOL    HW152443   5.364  12.815   1.678
50182SOL    HW252444   5.481  12.789   1.770
50183SOL     OW52445  11.765   9.533   2.728
50183SOL    HW152446  11.763   9.478   2.806
50183SOL    HW252447  11.825   9.489   2.669
50184SOL     OW52448  11.020   6.637   4.191
50184SOL    HW152449  11.012   6.593   4.276
50184SOL    HW252450  11.098   6.692   4.200
50185SOL     OW52451   0.084  14.559  11.818
50185SOL    HW152452   0.027  14.622  11.863
50185SOL    HW252453   0.156  14.613  11.784
50186SOL     OW52454   7.248   4.014   3.190
50186SOL    HW152455   7.271   4.048   3.277
50186SOL    HW252456   7.314   3.948   3.172
50187SOL     OW52457   0.931   4.468   0.834
50187SOL    HW152458   1.003   4.408   0.818
50187SOL    HW252459   0.853   4.413   0.831
50188SOL     OW52460  13.597   0.911   4.798
50188SOL    HW152461  13.537   0.837   4.804
50188SOL    HW252462  13.636   0.903   4.711
50189SOL     OW52463  10.201   0.408  12.483
50189SOL    HW152464  10.185   0.396  12.576
50189SOL    HW252465  10.297   0.408  12.475
50190SOL     OW52466  10.575   2.398   0.907
50190SOL    HW152467  10.524   2.374   0.984
50190SOL    HW252468  10.602   2.489   0.923
50191SOL     OW52469  13.502   7.375  10.107
50191SOL    HW152470  13.559   7.443  10.071
50191SOL    HW252471  13.486   7.402  10.198
50192SOL     OW52472   0.484   8.276   5.372
50192SOL    HW152473   0.543   8.332   5.322
50192SOL    HW252474   0.536   8.246   5.446
50193SOL     OW52475   2.752   5.647   9.987
50193SOL    HW152476   2.804   5.567   9.979
50193SOL    HW252477   2.699   5.633  10.066
50194SOL     OW52478  13.984   3.642   2.966
50194SOL    HW152479  13.896   3.679   2.961
50194SOL    HW252480  14.042   3.713   2.938
50195SOL     OW52481   3.263   3.107   8.553
50195SOL    HW152482   3.217   3.172   8.606
50195SOL    HW252483   3.274   3.149   8.468
50196SOL     OW52484   0.642   8.781   2.054
50196SOL    HW152485   0.594   8.863   2.045
50196SOL    HW252486   0.656   8.751   1.964
50197SOL     OW52487   1.396  10.400   7.317
50197SOL    HW152488   1.451  10.338   7.365
50197SOL    HW252489   1.320  10.414   7.375
50198SOL     OW52490   0.046   2.144   6.772
50198SOL    HW152491   0.094   2.169   6.692
50198SOL    HW252492   0.021   2.053   6.758
50199SOL     OW52493   0.813  14.864   4.794
50199SOL    HW152494   0.718  14.866   4.779
50199SOL    HW252495   0.826  14.791   4.854
50200SOL     OW52496   4.884   0.779   7.346
50200SOL    HW152497   4.976   0.799   7.326
50200SOL    HW252498   4.854   0.728   7.270
50201SOL     OW52499  10.121   4.275   8.852
50201SOL    HW152500  10.084   4.304   8.769
50201SOL    HW252501  10.207   4.239   8.829
50202SOL     OW52502   6.510   5.088   1.832
50202SOL    HW152503   6.431   5.141   1.817
50202SOL    HW252504   6.536   5.109   1.921
50203SOL     OW52505   7.369  14.852   6.527
50203SOL    HW152506   7.319   0.051   6.519
50203SOL    HW252507   7.435  14.858   6.457
50204SOL     OW52508   5.402  10.514   6.800
50204SOL    HW152509   5.366  10.596   6.766
50204SOL    HW252510   5.411  10.528   6.894
50205SOL     OW52511   5.809  10.582   7.229
50205SOL    HW152512   5.784  10.500   7.272
50205SOL    HW252513   5.872  10.556   7.162
50206SOL     OW52514  11.581   3.624  11.209
50206SOL    HW152515  11.633   3.701  11.186
50206SOL    HW252516  11.547   3.593  11.125
50207SOL     OW52517  11.834   0.949   7.737
50207SOL    HW152518  11.792   0.906   7.663
50207SOL    HW252519  11.766   1.004   7.775
50208SOL     OW52520   4.984   7.192   7.482
50208SOL    HW152521   5.075   7.205   7.454
50208SOL    HW252522   4.938   7.268   7.448
50209SOL     OW52523   0.899  10.639   7.392
50209SOL    HW152524   0.822  10.661   7.445
50209SOL    HW252525   0.877  10.670   7.304
50210SOL     OW52526  11.300  11.680  13.073
50210SOL    HW152527  11.316  11.709  12.983
50210SOL    HW252528  11.210  11.649  13.073
50211SOL     OW52529  14.377   6.836   1.553
50211SOL    HW152530  14.436   6.902   1.590
50211SOL    HW252531  14.320   6.886   1.494
50212SOL     OW52532   7.227  11.377  12.562
50212SOL    HW152533   7.323  11.371  12.564
50212SOL    HW252534   7.198  11.291  12.591
50213SOL     OW52535   0.941   8.863   3.415
50213SOL    HW152536   1.015   8.880   3.356
50213SOL    HW252537   0.980   8.867   3.503
50214SOL     OW52538  14.766  12.653   5.791
50214SOL    HW152539  14.800  12.603   5.717
50214SOL    HW252540  14.740  12.586   5.855
50215SOL     OW52541   5.246   3.071   2.888
50215SOL    HW152542   5.268   3.052   2.979
50215SOL    HW252543   5.324   3.113   2.853
50216SOL     OW52544  14.720  12.064   2.094
50216SOL    HW152545  14.700  11.995   2.157
50216SOL    HW252546  14.637  12.110   2.082
50217SOL     OW52547   6.589   5.238   6.962
50217SOL    HW152548   6.625   5.293   7.032
50217SOL    HW252549   6.585   5.150   7.000
50218SOL     OW52550   6.526   5.835   9.147
50218SOL    HW152551   6.525   5.911   9.206
50218SOL    HW252552   6.574   5.768   9.196
50219SOL     OW52553  13.829  14.374   4.653
50219SOL    HW152554  13.806  14.281   4.655
50219SOL    HW252555  13.889  14.383   4.579
50220SOL     OW52556   2.582   9.071   5.154
50220SOL    HW152557   2.569   9.124   5.076
50220SOL    HW252558   2.620   8.989   5.122
50221SOL     OW52559  11.812   4.940   7.627
50221SOL    HW152560  11.776   4.866   7.676
50221SOL    HW252561  11.822   5.010   7.693
50222SOL     OW52562   7.304  14.090   1.317
50222SOL    HW152563   7.328  14.098   1.409
50222SOL    HW252564   7.312  14.179   1.282
50223SOL     OW52565  13.560   8.080   8.120
50223SOL    HW152566  13.623   8.149   8.101
50223SOL    HW252567  13.557   8.075   8.215
50224SOL     OW52568   4.949   6.456   2.000
50224SOL    HW152569   4.915   6.489   2.083
50224SOL    HW252570   4.871   6.430   1.950
50225SOL     OW52571   3.502   7.494   1.236
50225SOL    HW152572   3.579   7.544   1.264
50225SOL    HW252573   3.465   7.459   1.317
50226SOL     OW52574  11.486   2.092  13.846
50226SOL    HW152575  11.553   2.142  13.799
50226SOL    HW252576  11.495   2.120  13.937
50227SOL     OW52577  12.958  14.086   6.029
50227SOL    HW152578  12.871  14.096   5.989
50227SOL    HW252579  12.982  14.175   6.055
50228SOL     OW52580   7.732  14.499   9.888
50228SOL    HW152581   7.711  14.591   9.900
50228SOL    HW252582   7.732  14.462   9.976
50229SOL     OW52583  12.171  14.687   9.633
50229SOL    HW152584  12.217  14.748   9.690
50229SOL    HW252585  12.199  14.711   9.544
50230SOL     OW52586   8.090  13.015   8.246
50230SOL    HW152587   8.080  13.102   8.206
50230SOL    HW252588   8.176  12.985   8.216
50231SOL     OW52589   8.078   8.095   0.896
50231SOL    HW152590   8.170   8.109   0.876
50231SOL    HW252591   8.039   8.182   0.894
50232SOL     OW52592  13.770   6.208   8.546
50232SOL    HW152593  13.718   6.192   8.624
50232SOL    HW252594  13.844   6.260   8.576
50233SOL     OW52595   6.002   5.585  13.344
50233SOL    HW152596   5.937   5.591  13.274
50233SOL    HW252597   6.069   5.526  13.310
50234SOL     OW52598   1.089   1.375   4.667
50234SOL    HW152599   1.176   1.341   4.689
50234SOL    HW252600   1.044   1.382   4.751
50235SOL     OW52601   8.035   1.151  14.673
50235SOL    HW152602   8.060   1.211  14.603
50235SOL    HW252603   8.105   1.085  14.674
50236SOL     OW52604   1.612   5.992   6.874
50236SOL    HW152605   1.584   6.084   6.878
50236SOL    HW252606   1.585   5.955   6.958
50237SOL     OW52607   5.627  10.866   0.647
50237SOL    HW152608   5.678  10.927   0.701
50237SOL    HW252609   5.669  10.781   0.659
50238SOL     OW52610   2.999  11.730  11.191
50238SOL    HW152611   3.067  11.666  11.215
50238SOL    HW252612   3.044  11.814  11.192
50239SOL     OW52613   2.579  11.196   6.658
50239SOL    HW152614   2.561  11.108   6.692
50239SOL    HW252615   2.616  11.244   6.733
50240SOL     OW52616  10.086  14.043   0.609
50240SOL    HW152617  10.121  14.012   0.693
50240SOL    HW252618  10.033  14.119   0.632
50241SOL     OW52619   4.113   2.006  13.731
50241SOL    HW152620   4.129   1.915  13.708
50241SOL    HW252621   4.082   2.046  13.650
50242SOL     OW52622  11.771   8.480  10.941
50242SOL    HW152623  11.723   8.522  10.869
50242SOL    HW252624  11.800   8.553  10.996
50243SOL     OW52625   6.510   8.180  11.448
50243SOL    HW152626   6.454   8.192  11.372
50243SOL    HW252627   6.571   8.112  11.422
50244SOL     OW52628   7.580   5.064   9.306
50244SOL    HW152629   7.633   4.990   9.275
50244SOL    HW252630   7.549   5.105   9.225
50245SOL     OW52631   4.740   6.175   4.574
50245SOL    HW152632   4.696   6.227   4.642
50245SOL    HW252633   4.763   6.239   4.506
50246SOL     OW52634  13.203  13.982  10.802
50246SOL    HW152635  13.197  13.939  10.716
50246SOL    HW252636  13.134  13.941  10.854
50247SOL     OW52637   4.238   2.522  12.567
50247SOL    HW152638   4.312   2.563  12.521
50247SOL    HW252639   4.272   2.438  12.596
50248SOL     OW52640   6.099   2.570   9.711
50248SOL    HW152641   6.158   2.645   9.717
50248SOL    HW252642   6.125   2.512   9.782
50249SOL     OW52643   1.503  13.585   2.705
50249SOL    HW152644   1.509  13.672   2.745
50249SOL    HW252645   1.439  13.538   2.758
50250SOL     OW52646  12.418  12.646  11.703
50250SOL    HW152647  12.459  12.574  11.751
50250SOL    HW252648  12.338  12.665  11.752
50251SOL     OW52649   6.954   6.729   1.761
50251SOL    HW152650   7.041   6.767   1.774
50251SOL    HW252651   6.941   6.671   1.836
50252SOL     OW52652  10.237   8.106  10.706
50252SOL    HW152653  10.328   8.108  10.734
50252SOL    HW252654  10.190   8.155  10.773
50253SOL     OW52655   5.573  13.272  13.516
50253SOL    HW152656   5.489  13.292  13.556
50253SOL    HW252657   5.554  13.203  13.452
50254SOL     OW52658   7.451   4.298  13.683
50254SOL    HW152659   7.516   4.247  13.635
50254SOL    HW252660   7.478   4.291  13.774
50255SOL     OW52661   3.265  11.114   4.201
50255SOL    HW152662   3.341  11.113   4.142
50255SOL    HW252663   3.259  11.025   4.235
50256SOL     OW52664  11.403   0.574   9.864
50256SOL    HW152665  11.309   0.583   9.851
50256SOL    HW252666  11.417   0.601   9.955
50257SOL     OW52667   8.494   3.917   6.650
50257SOL    HW152668   8.452   3.947   6.569
50257SOL    HW252669   8.448   3.963   6.720
50258SOL     OW52670   3.016  11.223   9.686
50258SOL    HW152671   2.987  11.234   9.777
50258SOL    HW252672   3.015  11.128   9.673
50259SOL     OW52673   9.655  11.229   1.881
50259SOL    HW152674   9.639  11.169   1.809
50259SOL    HW252675   9.614  11.187   1.957
50260SOL     OW52676   7.383   6.975  13.356
50260SOL    HW152677   7.411   6.940  13.271
50260SOL    HW252678   7.329   7.051  13.334
50261SOL     OW52679  10.834   2.734  11.849
50261SOL    HW152680  10.913   2.786  11.864
50261SOL    HW252681  10.832   2.672  11.922
50262SOL     OW52682   1.644   1.917   8.227
50262SOL    HW152683   1.647   1.833   8.271
50262SOL    HW252684   1.570   1.963   8.267
50263SOL     OW52685   2.058   0.897  14.553
50263SOL    HW152686   1.989   0.938  14.604
50263SOL    HW252687   2.013   0.831  14.500
50264SOL     OW52688   4.277   7.191   0.500
50264SOL    HW152689   4.333   7.257   0.461
50264SOL    HW252690   4.294   7.112   0.448
50265SOL     OW52691   2.901  11.331   2.326
50265SOL    HW152692   2.958  11.283   2.386
50265SOL    HW252693   2.943  11.321   2.240
50266SOL     OW52694   8.426   2.105   8.980
50266SOL    HW152695   8.512   2.063   8.987
50266SOL    HW252696   8.441   2.182   8.925
50267SOL     OW52697   9.076   0.669  11.827
50267SOL    HW152698   8.988   0.695  11.801
50267SOL    HW252699   9.066   0.634  11.915
50268SOL     OW52700   9.503   7.314   8.627
50268SOL    HW152701   9.539   7.400   8.604
50268SOL    HW252702   9.415   7.333   8.660
50269SOL     OW52703   0.535  14.818   7.933
50269SOL    HW152704   0.483   0.015   7.920
50269SOL    HW252705   0.471  14.747   7.942
50270SOL     OW52706   3.010   8.902   2.659
50270SOL    HW152707   2.978   8.984   2.696
50270SOL    HW252708   2.956   8.888   2.582
50271SOL     OW52709   9.900   4.550   7.816
50271SOL    HW152710   9.822   4.602   7.830
50271SOL    HW252711   9.905   4.539   7.721
50272SOL     OW52712  14.705   9.894  14.270
50272SOL    HW152713  14.649   9.845  14.210
50272SOL    HW252714  14.756   9.952  14.212
50273SOL     OW52715   8.655   2.766   1.993
50273SOL    HW152716   8.687   2.712   1.920
50273SOL    HW252717   8.572   2.726   2.018
50274SOL     OW52718   4.084  10.674   8.700
50274SOL    HW152719   3.991  10.665   8.679
50274SOL    HW252720   4.116  10.584   8.709
50275SOL     OW52721   8.457   1.686  10.148
50275SOL    HW152722   8.414   1.748  10.089
50275SOL    HW252723   8.512   1.632  10.092
50276SOL     OW52724   2.944   5.498   6.144
50276SOL    HW152725   2.879   5.447   6.097
50276SOL    HW252726   3.024   5.447   6.138
50277SOL     OW52727  12.616  10.330  10.731
50277SOL    HW152728  12.598  10.243  10.767
50277SOL    HW252729  12.625  10.387  10.807
50278SOL     OW52730   5.001   0.611  11.546
50278SOL    HW152731   4.940   0.596  11.473
50278SOL    HW252732   5.037   0.525  11.565
50279SOL     OW52733   6.950   8.530   5.803
50279SOL    HW152734   6.868   8.576   5.783
50279SOL    HW252735   7.017   8.580   5.756
50280SOL     OW52736  10.714   1.965   1.882
50280SOL    HW152737  10.685   1.926   1.800
50280SOL    HW252738  10.806   1.986   1.867
50281SOL     OW52739   6.426   5.322  12.276
50281SOL    HW152740   6.470   5.269  12.343
50281SOL    HW252741   6.399   5.402  12.322
50282SOL     OW52742   3.616   8.515   9.391
50282SOL    HW152743   3.555   8.478   9.327
50282SOL    HW252744   3.569   8.510   9.474
50283SOL     OW52745   3.857  10.784   7.371
50283SOL    HW152746   3.869  10.853   7.306
50283SOL    HW252747   3.946  10.756   7.393
50284SOL     OW52748   7.862  10.797   4.827
50284SOL    HW152749   7.818  10.753   4.755
50284SOL    HW252750   7.901  10.875   4.788
50285SOL     OW52751  13.753   3.760   8.311
50285SOL    HW152752  13.841   3.776   8.278
50285SOL    HW252753  13.753   3.796   8.399
50286SOL     OW52754   0.590   2.888  12.334
50286SOL    HW152755   0.673   2.843  12.345
50286SOL    HW252756   0.535   2.826  12.286
50287SOL     OW52757   7.624  14.303  12.345
50287SOL    HW152758   7.687  14.235  12.320
50287SOL    HW252759   7.604  14.285  12.436
50288SOL     OW52760  12.663  10.999  13.428
50288SOL    HW152761  12.692  10.908  13.434
50288SOL    HW252762  12.574  10.995  13.393
50289SOL     OW52763   2.791   7.812  13.385
50289SOL    HW152764   2.805   7.876  13.315
50289SOL    HW252765   2.875   7.767  13.393
50290SOL     OW52766   7.587   7.164   1.928
50290SOL    HW152767   7.658   7.220   1.961
50290SOL    HW252768   7.547   7.128   2.008
50291SOL     OW52769   6.494  12.296   1.043
50291SOL    HW152770   6.417  12.293   1.100
50291SOL    HW252771   6.516  12.204   1.028
50292SOL     OW52772   8.752  13.038   3.691
50292SOL    HW152773   8.688  13.096   3.733
50292SOL    HW252774   8.824  13.033   3.753
50293SOL     OW52775   7.322   9.674  12.467
50293SOL    HW152776   7.278   9.588  12.463
50293SOL    HW252777   7.333   9.690  12.561
50294SOL     OW52778   2.929   6.538  10.864
50294SOL    HW152779   3.014   6.553  10.905
50294SOL    HW252780   2.912   6.618  10.814
50295SOL     OW52781   6.032   5.386  10.879
50295SOL    HW152782   5.967   5.425  10.937
50295SOL    HW252783   6.029   5.439  10.799
50296SOL     OW52784   9.849  11.393   7.865
50296SOL    HW152785   9.813  11.455   7.801
50296SOL    HW252786   9.773  11.367   7.918
50297SOL     OW52787   9.896   6.829   2.207
50297SOL    HW152788   9.804   6.853   2.217
50297SOL    HW252789   9.939   6.865   2.284
50298SOL     OW52790  11.878   7.319   0.146
50298SOL    HW152791  11.798   7.272   0.169
50298SOL    HW252792  11.927   7.258   0.091
50299SOL     OW52793   7.099   1.945   9.824
50299SOL    HW152794   7.123   2.030   9.860
50299SOL    HW252795   7.039   1.907   9.889
50300SOL     OW52796   6.319  12.257  12.122
50300SOL    HW152797   6.408  12.233  12.149
50300SOL    HW252798   6.290  12.182  12.070
50301SOL     OW52799   7.914   0.977   9.275
50301SOL    HW152800   7.985   1.031   9.241
50301SOL    HW252801   7.927   0.977   9.370
50302SOL     OW52802  14.654   7.515  11.712
50302SOL    HW152803  14.729   7.457  11.704
50302SOL    HW252804  14.691   7.602  11.725
50303SOL     OW52805   5.759  13.916   1.418
50303SOL    HW152806   5.782  13.978   1.348
50303SOL    HW252807   5.843  13.895   1.459
50304SOL     OW52808  12.811  14.333   1.383
50304SOL    HW152809  12.894  14.334   1.335
50304SOL    HW252810  12.774  14.246   1.365
50305SOL     OW52811   5.097   1.962   4.347
50305SOL    HW152812   5.136   1.978   4.261
50305SOL    HW252813   5.013   1.919   4.327
50306SOL     OW52814  12.272   1.954   3.921
50306SOL    HW152815  12.309   1.901   3.850
50306SOL    HW252816  12.346   2.004   3.955
50307SOL     OW52817   4.651  12.300  14.811
50307SOL    HW152818   4.668  12.206  14.823
50307SOL    HW252819   4.585  12.303  14.741
50308SOL     OW52820   2.090   5.963  10.038
50308SOL    HW152821   2.164   6.000   9.989
50308SOL    HW252822   2.035   6.039  10.057
50309SOL     OW52823   9.751   2.324  14.586
50309SOL    HW152824   9.736   2.354  14.496
50309SOL    HW252825   9.804   2.394  14.626
50310SOL     OW52826  13.626   6.889   0.478
50310SOL    HW152827  13.607   6.980   0.500
50310SOL    HW252828  13.584   6.839   0.547
50311SOL     OW52829  12.546   9.565   8.129
50311SOL    HW152830  12.572   9.635   8.070
50311SOL    HW252831  12.536   9.488   8.073
50312SOL     OW52832  12.901   1.159   4.292
50312SOL    HW152833  12.830   1.146   4.355
50312SOL    HW252834  12.973   1.106   4.326
50313SOL     OW52835   6.137   1.801   1.556
50313SOL    HW152836   6.189   1.795   1.476
50313SOL    HW252837   6.064   1.741   1.541
50314SOL     OW52838   8.337  10.243  14.479
50314SOL    HW152839   8.426  10.276  14.472
50314SOL    HW252840   8.286  10.317  14.512
50315SOL     OW52841   0.721  13.454   7.928
50315SOL    HW152842   0.691  13.486   8.013
50315SOL    HW252843   0.669  13.375   7.912
50316SOL     OW52844   4.281   2.273   2.382
50316SOL    HW152845   4.331   2.275   2.464
50316SOL    HW252846   4.195   2.307   2.406
50317SOL     OW52847   1.476   8.333  10.512
50317SOL    HW152848   1.381   8.321  10.507
50317SOL    HW252849   1.494   8.403  10.450
50318SOL     OW52850   8.805   9.531  14.544
50318SOL    HW152851   8.894   9.500  14.562
50318SOL    HW252852   8.750   9.480  14.605
50319SOL     OW52853   8.431   3.827   8.745
50319SOL    HW152854   8.393   3.788   8.665
50319SOL    HW252855   8.446   3.918   8.722
50320SOL     OW52856   9.085   3.992   3.621
50320SOL    HW152857   9.014   3.928   3.617
50320SOL    HW252858   9.135   3.967   3.698
50321SOL     OW52859  14.070   4.773   0.981
50321SOL    HW152860  14.159   4.768   0.945
50321SOL    HW252861  14.049   4.866   0.980
50322SOL     OW52862  13.844   9.274   5.270
50322SOL    HW152863  13.813   9.267   5.360
50322SOL    HW252864  13.813   9.360   5.240
50323SOL     OW52865  13.698   5.554  10.789
50323SOL    HW152866  13.760   5.504  10.735
50323SOL    HW252867  13.673   5.628  10.733
50324SOL     OW52868   3.094   1.221   0.018
50324SOL    HW152869   3.009   1.197   0.054
50324SOL    HW252870   3.126   1.290   0.076
50325SOL     OW52871   5.853   7.413   9.387
50325SOL    HW152872   5.887   7.326   9.364
50325SOL    HW252873   5.931   7.465   9.407
50326SOL     OW52874  13.884   2.757   6.229
50326SOL    HW152875  13.978   2.739   6.224
50326SOL    HW252876  13.855   2.715   6.310
50327SOL     OW52877   1.063  14.739   8.607
50327SOL    HW152878   1.129  14.797   8.570
50327SOL    HW252879   0.992  14.796   8.634
50328SOL     OW52880  12.210  10.930   9.304
50328SOL    HW152881  12.285  10.930   9.245
50328SOL    HW252882  12.243  10.889   9.384
50329SOL     OW52883  14.095   3.134   2.675
50329SOL    HW152884  14.080   3.102   2.764
50329SOL    HW252885  14.008   3.132   2.634
50330SOL     OW52886   7.436   7.437   6.646
50330SOL    HW152887   7.462   7.421   6.737
50330SOL    HW252888   7.377   7.512   6.651
50331SOL     OW52889   6.035  10.470  12.224
50331SOL    HW152890   6.128  10.449  12.221
50331SOL    HW252891   5.998  10.431  12.145
50332SOL     OW52892  11.840   1.706   7.751
50332SOL    HW152893  11.843   1.639   7.683
50332SOL    HW252894  11.767   1.763   7.725
50333SOL     OW52895  14.773  12.380   5.874
50333SOL    HW152896  14.798  12.386   5.781
50333SOL    HW252897  14.782  12.288   5.895
50334SOL     OW52898  10.090   8.956   1.909
50334SOL    HW152899  10.008   8.992   1.875
50334SOL    HW252900  10.095   8.988   1.999
50335SOL     OW52901   0.564   9.332   6.613
50335SOL    HW152902   0.614   9.413   6.626
50335SOL    HW252903   0.615   9.283   6.548
50336SOL     OW52904  11.572   0.770   8.210
50336SOL    HW152905  11.489   0.776   8.257
50336SOL    HW252906  11.619   0.850   8.235
50337SOL     OW52907  10.811  12.803   5.840
50337SOL    HW152908  10.817  12.766   5.752
50337SOL    HW252909  10.881  12.760   5.889
50338SOL     OW52910  11.707   3.835   5.751
50338SOL    HW152911  11.781   3.776   5.735
50338SOL    HW252912  11.747   3.921   5.766
50339SOL     OW52913   8.830  12.615   9.092
50339SOL    HW152914   8.737  12.628   9.113
50339SOL    HW252915   8.830  12.577   9.004
50340SOL     OW52916  12.527   0.324   1.128
50340SOL    HW152917  12.583   0.392   1.167
50340SOL    HW252918  12.460   0.308   1.194
50341SOL     OW52919   9.389   2.046   8.085
50341SOL    HW152920   9.450   2.089   8.025
50341SOL    HW252921   9.333   1.992   8.028
50342SOL     OW52922   7.777   3.623   3.989
50342SOL    HW152923   7.865   3.661   3.991
50342SOL    HW252924   7.729   3.677   3.926
50343SOL     OW52925   3.512  14.020   9.103
50343SOL    HW152926   3.515  13.935   9.059
50343SOL    HW252927   3.564  14.007   9.183
50344SOL     OW52928   4.575   1.253  12.395
50344SOL    HW152929   4.515   1.327  12.385
50344SOL    HW252930   4.647   1.274  12.335
50345SOL     OW52931   8.236   7.941  10.210
50345SOL    HW152932   8.269   7.869  10.264
50345SOL    HW252933   8.141   7.927  10.207
50346SOL     OW52934   6.138   0.249   1.081
50346SOL    HW152935   6.198   0.267   1.153
50346SOL    HW252936   6.052   0.279   1.112
50347SOL     OW52937   7.411   6.603   0.094
50347SOL    HW152938   7.502   6.575   0.087
50347SOL    HW252939   7.405   6.643   0.181
50348SOL     OW52940  14.165  14.194   9.052
50348SOL    HW152941  14.085  14.146   9.075
50348SOL    HW252942  14.181  14.170   8.961
50349SOL     OW52943   6.495   1.636   9.621
50349SOL    HW152944   6.434   1.705   9.649
50349SOL    HW252945   6.558   1.630   9.693
50350SOL     OW52946   4.268  12.860  13.395
50350SOL    HW152947   4.205  12.883  13.463
50350SOL    HW252948   4.292  12.769  13.415
50351SOL     OW52949   5.479  10.964  10.882
50351SOL    HW152950   5.533  10.940  10.957
50351SOL    HW252951   5.528  10.932  10.806
50352SOL     OW52952   5.111  12.728   9.878
50352SOL    HW152953   5.204  12.739   9.897
50352SOL    HW252954   5.079  12.816   9.861
50353SOL     OW52955  13.027   3.656   3.763
50353SOL    HW152956  12.954   3.655   3.825
50353SOL    HW252957  13.090   3.716   3.802
50354SOL     OW52958  11.594   1.711  13.413
50354SOL    HW152959  11.654   1.780  13.438
50354SOL    HW252960  11.650   1.637  13.390
50355SOL     OW52961   8.134   5.206  11.137
50355SOL    HW152962   8.184   5.125  11.146
50355SOL    HW252963   8.196   5.270  11.101
50356SOL     OW52964   3.516  10.540   8.331
50356SOL    HW152965   3.469  10.459   8.308
50356SOL    HW252966   3.607  10.512   8.342
50357SOL     OW52967   3.181  11.971  11.276
50357SOL    HW152968   3.214  11.931  11.356
50357SOL    HW252969   3.260  11.994  11.226
50358SOL     OW52970  14.009   8.598   0.092
50358SOL    HW152971  14.042   8.686   0.072
50358SOL    HW252972  13.986   8.561   0.006
50359SOL     OW52973  13.921   8.098  11.119
50359SOL    HW152974  13.943   8.024  11.175
50359SOL    HW252975  13.908   8.171  11.180
50360SOL     OW52976   6.937   0.400   8.727
50360SOL    HW152977   6.866   0.341   8.702
50360SOL    HW252978   7.003   0.343   8.766
50361SOL     OW52979   5.806  12.575  13.825
50361SOL    HW152980   5.731  12.606  13.776
50361SOL    HW252981   5.769  12.517  13.892
50362SOL     OW52982  12.973   5.782   5.478
50362SOL    HW152983  12.954   5.694   5.446
50362SOL    HW252984  12.887   5.821   5.493
50363SOL     OW52985   6.689  14.484  11.439
50363SOL    HW152986   6.729  14.571  11.429
50363SOL    HW252987   6.598  14.497  11.412
50364SOL     OW52988  10.883   8.048  12.888
50364SOL    HW152989  10.962   8.093  12.857
50364SOL    HW252990  10.849   8.105  12.957
50365SOL     OW52991   8.712  10.215  11.210
50365SOL    HW152992   8.713  10.210  11.114
50365SOL    HW252993   8.761  10.138  11.239
50366SOL     OW52994   0.209   3.280   7.642
50366SOL    HW152995   0.115   3.265   7.651
50366SOL    HW252996   0.217   3.344   7.572
50367SOL     OW52997   0.439   6.051   2.872
50367SOL    HW152998   0.367   6.095   2.826
50367SOL    HW252999   0.444   6.095   2.957
50368SOL     OW53000   8.539   2.331   5.370
50368SOL    HW153001   8.590   2.403   5.333
50368SOL    HW253002   8.544   2.262   5.304
50369SOL     OW53003   9.223  11.021   9.505
50369SOL    HW153004   9.217  11.041   9.599
50369SOL    HW253005   9.132  11.016   9.476
50370SOL     OW53006   4.165  14.850  12.164
50370SOL    HW153007   4.076  14.868  12.135
50370SOL    HW253008   4.159  14.767  12.211
50371SOL     OW53009  14.669   5.419   7.512
50371SOL    HW153010  14.645   5.372   7.592
50371SOL    HW253011  14.752   5.461   7.534
50372SOL     OW53012   1.243   1.572  12.147
50372SOL    HW153013   1.315   1.551  12.207
50372SOL    HW253014   1.285   1.612  12.072
50373SOL     OW53015   4.245   2.696   4.126
50373SOL    HW153016   4.247   2.747   4.206
50373SOL    HW253017   4.305   2.741   4.066
50374SOL     OW53018  10.539   0.035   6.221
50374SOL    HW153019  10.529  14.836   6.172
50374SOL    HW253020  10.633   0.042   6.237
50375SOL     OW53021   6.330  12.202   1.592
50375SOL    HW153022   6.416  12.209   1.635
50375SOL    HW253023   6.324  12.109   1.568
50376SOL     OW53024   9.096   9.605   7.020
50376SOL    HW153025   9.081   9.697   7.039
50376SOL    HW253026   9.038   9.585   6.947
50377SOL     OW53027   1.138   2.227   5.638
50377SOL    HW153028   1.115   2.306   5.687
50377SOL    HW253029   1.204   2.256   5.576
50378SOL     OW53030   5.459  14.651   3.904
50378SOL    HW153031   5.531  14.715   3.905
50378SOL    HW253032   5.399  14.683   3.972
50379SOL     OW53033   2.638   4.921  11.416
50379SOL    HW153034   2.546   4.895  11.422
50379SOL    HW253035   2.679   4.852  11.363
50380SOL     OW53036   2.622   2.131   7.018
50380SOL    HW153037   2.693   2.109   7.078
50380SOL    HW253038   2.606   2.224   7.032
50381SOL     OW53039  10.985   9.751   0.129
50381SOL    HW153040  10.933   9.689   0.180
50381SOL    HW253041  11.064   9.702   0.106
50382SOL     OW53042  13.436   2.438   2.979
50382SOL    HW153043  13.418   2.526   2.946
50382SOL    HW253044  13.431   2.446   3.074
50383SOL     OW53045  13.230   2.278   0.568
50383SOL    HW153046  13.322   2.262   0.592
50383SOL    HW253047  13.180   2.228   0.632
50384SOL     OW53048  13.377  11.788   4.535
50384SOL    HW153049  13.387  11.750   4.623
50384SOL    HW253050  13.345  11.877   4.551
50385SOL     OW53051   4.387  13.693   6.484
50385SOL    HW153052   4.379  13.710   6.578
50385SOL    HW253053   4.327  13.757   6.444
50386SOL     OW53054   7.167   3.132   3.411
50386SOL    HW153055   7.138   3.164   3.497
50386SOL    HW253056   7.135   3.197   3.349
50387SOL     OW53057   2.820  10.455   4.103
50387SOL    HW153058   2.806  10.377   4.050
50387SOL    HW253059   2.733  10.493   4.113
50388SOL     OW53060  11.267  13.276   5.550
50388SOL    HW153061  11.197  13.286   5.615
50388SOL    HW253062  11.313  13.359   5.552
50389SOL     OW53063  14.196  13.217   0.170
50389SOL    HW153064  14.148  13.299   0.164
50389SOL    HW253065  14.233  13.205   0.082
50390SOL     OW53066   6.487  14.334  11.918
50390SOL    HW153067   6.422  14.289  11.972
50390SOL    HW253068   6.448  14.335  11.830
50391SOL     OW53069  12.718   2.644   5.601
50391SOL    HW153070  12.771   2.601   5.534
50391SOL    HW253071  12.779   2.657   5.674
50392SOL     OW53072   3.519  13.586   7.001
50392SOL    HW153073   3.522  13.537   7.083
50392SOL    HW253074   3.577  13.538   6.942
50393SOL     OW53075   3.527  14.618   1.771
50393SOL    HW153076   3.599  14.679   1.780
50393SOL    HW253077   3.561  14.535   1.804
50394SOL     OW53078  10.293   1.768   4.501
50394SOL    HW153079  10.231   1.702   4.469
50394SOL    HW253080  10.266   1.849   4.457
50395SOL     OW53081   2.452   2.662   6.690
50395SOL    HW153082   2.541   2.693   6.677
50395SOL    HW253083   2.410   2.731   6.743
50396SOL     OW53084  12.056   4.564  12.383
50396SOL    HW153085  11.993   4.560  12.311
50396SOL    HW253086  12.002   4.568  12.462
50397SOL     OW53087  10.916   9.537  11.931
50397SOL    HW153088  10.872   9.522  11.847
50397SOL    HW253089  10.846   9.529  11.996
50398SOL     OW53090   0.363  13.719   6.513
50398SOL    HW153091   0.452  13.717   6.479
50398SOL    HW253092   0.324  13.636   6.485
50399SOL     OW53093  11.515   1.970  11.533
50399SOL    HW153094  11.586   2.034  11.530
50399SOL    HW253095  11.456   2.002  11.601
50400SOL     OW53096  11.669   7.696  12.742
50400SOL    HW153097  11.754   7.679  12.701
50400SOL    HW253098  11.625   7.756  12.682
50401SOL     OW53099   3.716   6.873   2.740
50401SOL    HW153100   3.793   6.904   2.788
50401SOL    HW253101   3.696   6.788   2.778
50402SOL     OW53102  11.131   0.644   5.434
50402SOL    HW153103  11.148   0.616   5.525
50402SOL    HW253104  11.143   0.739   5.436
50403SOL     OW53105   5.431   7.672  14.401
50403SOL    HW153106   5.336   7.662  14.403
50403SOL    HW253107   5.460   7.608  14.336
50404SOL     OW53108  13.680   3.982   1.816
50404SOL    HW153109  13.657   4.051   1.878
50404SOL    HW253110  13.763   3.947   1.849
50405SOL     OW53111   6.233   0.733  14.632
50405SOL    HW153112   6.320   0.731  14.593
50405SOL    HW253113   6.238   0.668  14.703
50406SOL     OW53114  14.710  10.248  13.674
50406SOL    HW153115  14.648  10.233  13.745
50406SOL    HW253116  14.796  10.233  13.714
50407SOL     OW53117   9.528   6.776  14.848
50407SOL    HW153118   9.484   6.861  14.851
50407SOL    HW253119   9.494   6.729   0.041
50408SOL     OW53120  11.048   2.420  12.718
50408SOL    HW153121  11.100   2.340  12.707
50408SOL    HW253122  11.050   2.462  12.632
50409SOL     OW53123   3.552   9.821   0.968
50409SOL    HW153124   3.621   9.885   0.985
50409SOL    HW253125   3.479   9.848   1.023
50410SOL     OW53126   0.039   7.295  12.612
50410SOL    HW153127   0.068   7.269  12.699
50410SOL    HW253128   0.013   7.213  12.570
50411SOL     OW53129   6.314   9.602  12.823
50411SOL    HW153130   6.219   9.592  12.819
50411SOL    HW253131   6.347   9.513  12.841
50412SOL     OW53132   1.587  13.369   8.244
50412SOL    HW153133   1.515  13.307   8.231
50412SOL    HW253134   1.655  13.339   8.184
50413SOL     OW53135   9.949   1.462   8.276
50413SOL    HW153136   9.920   1.537   8.326
50413SOL    HW253137   9.928   1.484   8.185
50414SOL     OW53138   8.308   4.192  13.662
50414SOL    HW153139   8.349   4.194  13.576
50414SOL    HW253140   8.218   4.165  13.646
50415SOL     OW53141   0.163  11.412   9.496
50415SOL    HW153142   0.125  11.464   9.567
50415SOL    HW253143   0.104  11.337   9.488
50416SOL     OW53144  12.992  14.787   8.404
50416SOL    HW153145  13.043  14.706   8.412
50416SOL    HW253146  13.053  14.856   8.432
50417SOL     OW53147   8.905   0.568  14.849
50417SOL    HW153148   8.934   0.640  14.793
50417SOL    HW253149   8.951   0.581   0.050
50418SOL     OW53150   1.848  14.445   6.344
50418SOL    HW153151   1.820  14.354   6.348
50418SOL    HW253152   1.938  14.441   6.312
50419SOL     OW53153   6.354   2.098   2.196
50419SOL    HW153154   6.362   2.082   2.290
50419SOL    HW253155   6.317   2.186   2.189
50420SOL     OW53156   6.050   4.235  10.273
50420SOL    HW153157   5.992   4.301  10.235
50420SOL    HW253158   6.030   4.155  10.226
50421SOL     OW53159  11.689  12.335   7.373
50421SOL    HW153160  11.747  12.293   7.310
50421SOL    HW253161  11.667  12.266   7.435
50422SOL     OW53162   3.595   4.587  11.155
50422SOL    HW153163   3.550   4.668  11.176
50422SOL    HW253164   3.570   4.568  11.064
50423SOL     OW53165   0.011   2.845   6.212
50423SOL    HW153166   0.030   2.809   6.126
50423SOL    HW253167   0.085   2.817   6.267
50424SOL     OW53168   5.560  12.827   4.429
50424SOL    HW153169   5.479  12.868   4.461
50424SOL    HW253170   5.592  12.775   4.503
50425SOL     OW53171   6.714  11.820   8.176
50425SOL    HW153172   6.678  11.845   8.261
50425SOL    HW253173   6.796  11.870   8.170
50426SOL     OW53174   4.035   0.956   5.768
50426SOL    HW153175   4.097   0.884   5.774
50426SOL    HW253176   4.090   1.034   5.757
50427SOL     OW53177   9.422   6.831  10.771
50427SOL    HW153178   9.378   6.803  10.691
50427SOL    HW253179   9.367   6.797  10.842
50428SOL     OW53180   0.896   5.880   7.374
50428SOL    HW153181   0.889   5.874   7.470
50428SOL    HW253182   0.847   5.959   7.351
50429SOL     OW53183   6.997  13.262   1.147
50429SOL    HW153184   7.040  13.229   1.068
50429SOL    HW253185   7.064  13.314   1.190
50430SOL     OW53186   9.978  11.521   3.340
50430SOL    HW153187   9.893  11.477   3.346
50430SOL    HW253188  10.041  11.451   3.326
50431SOL     OW53189  10.828  11.068   5.363
50431SOL    HW153190  10.815  11.060   5.458
50431SOL    HW253191  10.871  11.153   5.352
50432SOL     OW53192  10.917  10.457  12.414
50432SOL    HW153193  10.861  10.385  12.386
50432SOL    HW253194  10.962  10.486  12.333
50433SOL     OW53195  12.307   0.188  11.388
50433SOL    HW153196  12.239   0.241  11.348
50433SOL    HW253197  12.359   0.250  11.439
50434SOL     OW53198   4.020   0.727  14.459
50434SOL    HW153199   3.965   0.766  14.527
50434SOL    HW253200   3.966   0.658  14.421
50435SOL     OW53201   8.547   5.458   3.381
50435SOL    HW153202   8.523   5.531   3.324
50435SOL    HW253203   8.484   5.389   3.359
50436SOL     OW53204  12.821   0.604   4.424
50436SOL    HW153205  12.793   0.671   4.361
50436SOL    HW253206  12.808   0.521   4.379
50437SOL     OW53207   5.852   6.169   5.564
50437SOL    HW153208   5.850   6.089   5.512
50437SOL    HW253209   5.787   6.226   5.523
50438SOL     OW53210   5.417  11.514   1.178
50438SOL    HW153211   5.469  11.503   1.258
50438SOL    HW253212   5.326  11.519   1.209
50439SOL     OW53213   5.143   6.024  11.152
50439SOL    HW153214   5.113   5.936  11.132
50439SOL    HW253215   5.238   6.019  11.145
50440SOL     OW53216   1.703   7.364   6.924
50440SOL    HW153217   1.704   7.457   6.947
50440SOL    HW253218   1.612   7.337   6.939
50441SOL     OW53219  13.924   5.175   0.517
50441SOL    HW153220  13.905   5.246   0.456
50441SOL    HW253221  13.851   5.114   0.507
50442SOL     OW53222  13.871   4.095   1.206
50442SOL    HW153223  13.936   4.162   1.185
50442SOL    HW253224  13.795   4.117   1.152
50443SOL     OW53225   9.348   6.433   2.207
50443SOL    HW153226   9.341   6.525   2.235
50443SOL    HW253227   9.319   6.383   2.282
50444SOL     OW53228   9.208  10.368  12.114
50444SOL    HW153229   9.167  10.440  12.161
50444SOL    HW253230   9.202  10.293  12.174
50445SOL     OW53231  12.750   3.194   0.762
50445SOL    HW153232  12.810   3.183   0.688
50445SOL    HW253233  12.792   3.147   0.834
50446SOL     OW53234  14.243   3.247   3.053
50446SOL    HW153235  14.268   3.244   2.961
50446SOL    HW253236  14.183   3.321   3.059
50447SOL     OW53237  12.471   5.339   7.462
50447SOL    HW153238  12.394   5.320   7.515
50447SOL    HW253239  12.545   5.321   7.520
50448SOL     OW53240   4.582   3.761  13.694
50448SOL    HW153241   4.597   3.701  13.620
50448SOL    HW253242   4.608   3.847  13.660
50449SOL     OW53243  12.955   6.552   9.174
50449SOL    HW153244  12.916   6.538   9.260
50449SOL    HW253245  13.013   6.628   9.185
50450SOL     OW53246   2.617  13.733  10.701
50450SOL    HW153247   2.557  13.720  10.774
50450SOL    HW253248   2.696  13.685  10.727
50451SOL     OW53249   8.808   5.799   5.508
50451SOL    HW153250   8.739   5.767   5.566
50451SOL    HW253251   8.835   5.722   5.459
50452SOL     OW53252  11.540   2.588  11.711
50452SOL    HW153253  11.557   2.503  11.753
50452SOL    HW253254  11.607   2.596  11.644
50453SOL     OW53255   3.153  10.527   9.687
50453SOL    HW153256   3.234  10.485   9.714
50453SOL    HW253257   3.156  10.614   9.725
50454SOL     OW53258   7.563   7.751   3.135
50454SOL    HW153259   7.549   7.692   3.209
50454SOL    HW253260   7.647   7.723   3.098
50455SOL     OW53261   3.575  12.199  11.226
50455SOL    HW153262   3.639  12.148  11.276
50455SOL    HW253263   3.503  12.214  11.287
50456SOL     OW53264  11.565   2.423   7.593
50456SOL    HW153265  11.514   2.341   7.597
50456SOL    HW253266  11.646   2.403   7.640
50457SOL     OW53267  12.636   0.828   9.695
50457SOL    HW153268  12.702   0.780   9.644
50457SOL    HW253269  12.578   0.759   9.728
50458SOL     OW53270   4.774   7.458   2.031
50458SOL    HW153271   4.681   7.481   2.025
50458SOL    HW253272   4.783   7.379   1.978
50459SOL     OW53273   6.388  10.455   4.272
50459SOL    HW153274   6.308  10.491   4.233
50459SOL    HW253275   6.364  10.367   4.300
50460SOL     OW53276   9.743   5.853   5.572
50460SOL    HW153277   9.793   5.932   5.592
50460SOL    HW253278   9.742   5.804   5.654
50461SOL     OW53279   3.114   5.924   4.420
50461SOL    HW153280   3.149   5.966   4.341
50461SOL    HW253281   3.083   5.839   4.390
50462SOL     OW53282   5.527   0.986   1.674
50462SOL    HW153283   5.581   1.035   1.736
50462SOL    HW253284   5.560   1.011   1.588
50463SOL     OW53285   9.452  11.941   6.769
50463SOL    HW153286   9.431  11.912   6.858
50463SOL    HW253287   9.458  12.036   6.776
50464SOL     OW53288   0.661   1.222   3.801
50464SOL    HW153289   0.671   1.312   3.831
50464SOL    HW253290   0.620   1.230   3.715
50465SOL     OW53291   5.455  13.955   5.498
50465SOL    HW153292   5.472  13.998   5.414
50465SOL    HW253293   5.465  13.862   5.479
50466SOL     OW53294  11.856   5.358   9.722
50466SOL    HW153295  11.916   5.422   9.686
50466SOL    HW253296  11.903   5.275   9.718
50467SOL     OW53297   5.370   7.290  11.664
50467SOL    HW153298   5.319   7.326  11.592
50467SOL    HW253299   5.330   7.326  11.743
50468SOL     OW53300   8.058   0.143   5.356
50468SOL    HW153301   8.133   0.129   5.413
50468SOL    HW253302   7.983   0.148   5.415
50469SOL     OW53303   5.690  12.835   2.531
50469SOL    HW153304   5.717  12.816   2.621
50469SOL    HW253305   5.739  12.772   2.478
50470SOL     OW53306   1.704   5.589   6.530
50470SOL    HW153307   1.780   5.621   6.579
50470SOL    HW253308   1.719   5.619   6.441
50471SOL     OW53309   7.426   6.049   9.544
50471SOL    HW153310   7.478   5.991   9.488
50471SOL    HW253311   7.358   5.992   9.581
50472SOL     OW53312  14.543  13.659   4.311
50472SOL    HW153313  14.478  13.728   4.321
50472SOL    HW253314  14.616  13.685   4.368
50473SOL     OW53315   8.714   4.804   6.505
50473SOL    HW153316   8.630   4.807   6.458
50473SOL    HW253317   8.696   4.849   6.588
50474SOL     OW53318   8.973   4.149   1.544
50474SOL    HW153319   9.068   4.157   1.551
50474SOL    HW253320   8.958   4.122   1.453
50475SOL     OW53321   9.149   6.019   7.136
50475SOL    HW153322   9.229   6.041   7.183
50475SOL    HW253323   9.086   6.085   7.165
50476SOL     OW53324   0.260   7.183   2.268
50476SOL    HW153325   0.259   7.087   2.277
50476SOL    HW253326   0.353   7.204   2.256
50477SOL     OW53327   2.492   9.993  14.388
50477SOL    HW153328   2.549   9.958  14.456
50477SOL    HW253329   2.546  10.059  14.343
50478SOL     OW53330  13.327   7.228  14.494
50478SOL    HW153331  13.279   7.236  14.412
50478SOL    HW253332  13.356   7.317  14.514
50479SOL     OW53333   1.792   5.391   3.640
50479SOL    HW153334   1.887   5.379   3.649
50479SOL    HW253335   1.766   5.322   3.579
50480SOL     OW53336  12.327   6.810  10.955
50480SOL    HW153337  12.308   6.858  11.036
50480SOL    HW253338  12.249   6.822  10.901
50481SOL     OW53339   2.022  13.230   1.924
50481SOL    HW153340   1.928  13.236   1.912
50481SOL    HW253341   2.051  13.168   1.857
50482SOL     OW53342   3.194   7.988   9.893
50482SOL    HW153343   3.238   7.904   9.879
50482SOL    HW253344   3.168   7.986   9.985
50483SOL     OW53345   1.821   2.610   7.836
50483SOL    HW153346   1.864   2.551   7.898
50483SOL    HW253347   1.728   2.589   7.844
50484SOL     OW53348  14.674   9.926   1.835
50484SOL    HW153349  14.717   9.841   1.840
50484SOL    HW253350  14.634   9.928   1.748
50485SOL     OW53351   1.697   4.805   5.641
50485SOL    HW153352   1.704   4.894   5.677
50485SOL    HW253353   1.787   4.775   5.635
50486SOL     OW53354   4.362   0.378   6.678
50486SOL    HW153355   4.364   0.391   6.583
50486SOL    HW253356   4.393   0.461   6.714
50487SOL     OW53357   1.038   4.380   5.284
50487SOL    HW153358   0.961   4.390   5.340
50487SOL    HW253359   1.037   4.459   5.229
50488SOL     OW53360  14.749   8.572   7.492
50488SOL    HW153361  14.754   8.573   7.396
50488SOL    HW253362  14.790   8.489   7.517
50489SOL     OW53363   2.493   6.417   1.576
50489SOL    HW153364   2.518   6.429   1.484
50489SOL    HW253365   2.567   6.450   1.626
50490SOL     OW53366   1.888   8.583   3.422
50490SOL    HW153367   1.953   8.535   3.371
50490SOL    HW253368   1.938   8.622   3.494
50491SOL     OW53369  14.185   7.953   4.819
50491SOL    HW153370  14.207   7.917   4.905
50491SOL    HW253371  14.223   8.041   4.820
50492SOL     OW53372  13.313  13.811  13.326
50492SOL    HW153373  13.237  13.855  13.288
50492SOL    HW253374  13.300  13.818  13.420
50493SOL     OW53375  11.009   7.647   5.822
50493SOL    HW153376  10.989   7.579   5.758
50493SOL    HW253377  10.989   7.606   5.906
50494SOL     OW53378  12.733   6.842   9.540
50494SOL    HW153379  12.677   6.908   9.582
50494SOL    HW253380  12.816   6.847   9.587
50495SOL     OW53381  14.145   8.595  11.495
50495SOL    HW153382  14.202   8.572  11.422
50495SOL    HW253383  14.196   8.575  11.573
50496SOL     OW53384   2.900   5.245   7.893
50496SOL    HW153385   2.898   5.174   7.957
50496SOL    HW253386   2.883   5.203   7.809
50497SOL     OW53387  13.723   8.233  10.107
50497SOL    HW153388  13.694   8.142  10.114
50497SOL    HW253389  13.799   8.239  10.165
50498SOL     OW53390  11.566   4.542  11.199
50498SOL    HW153391  11.580   4.485  11.275
50498SOL    HW253392  11.491   4.503  11.154
50499SOL     OW53393   4.467   2.554  10.540
50499SOL    HW153394   4.386   2.513  10.572
50499SOL    HW253395   4.445   2.584  10.452
50500SOL     OW53396  12.811   2.694  11.213
50500SOL    HW153397  12.748   2.627  11.239
50500SOL    HW253398  12.770   2.777  11.235
50501SOL     OW53399   4.388  13.308   4.865
50501SOL    HW153400   4.426  13.329   4.780
50501SOL    HW253401   4.436  13.231   4.895
50502SOL     OW53402  14.074  11.585   4.245
50502SOL    HW153403  14.034  11.671   4.234
50502SOL    HW253404  14.159  11.603   4.286
50503SOL     OW53405  13.040   0.276   4.230
50503SOL    HW153406  13.113   0.216   4.213
50503SOL    HW253407  12.962   0.220   4.228
50504SOL     OW53408  10.815  14.412   7.529
50504SOL    HW153409  10.850  14.397   7.617
50504SOL    HW253410  10.746  14.477   7.542
50505SOL     OW53411   6.843  12.749   9.417
50505SOL    HW153412   6.837  12.663   9.377
50505SOL    HW253413   6.805  12.737   9.505
50506SOL     OW53414   2.225   3.346   9.342
50506SOL    HW153415   2.138   3.307   9.343
50506SOL    HW253416   2.211   3.437   9.370
50507SOL     OW53417   2.640   6.391   5.174
50507SOL    HW153418   2.667   6.383   5.083
50507SOL    HW253419   2.659   6.305   5.212
50508SOL     OW53420  13.475   8.846  12.222
50508SOL    HW153421  13.472   8.791  12.300
50508SOL    HW253422  13.565   8.879  12.219
50509SOL     OW53423  10.748   2.234   9.147
50509SOL    HW153424  10.817   2.300   9.157
50509SOL    HW253425  10.690   2.249   9.222
50510SOL     OW53426   3.056   1.649   8.011
50510SOL    HW153427   2.989   1.584   7.994
50510SOL    HW253428   3.125   1.630   7.947
50511SOL     OW53429   5.922  12.864   1.344
50511SOL    HW153430   5.993  12.812   1.382
50511SOL    HW253431   5.860  12.878   1.415
50512SOL     OW53432   4.925   1.630  10.498
50512SOL    HW153433   5.013   1.596  10.480
50512SOL    HW253434   4.922   1.714  10.452
50513SOL     OW53435  13.433  12.309   4.765
50513SOL    HW153436  13.448  12.398   4.733
50513SOL    HW253437  13.496  12.299   4.836
50514SOL     OW53438   1.541   0.124   5.427
50514SOL    HW153439   1.523   0.132   5.521
50514SOL    HW253440   1.487   0.192   5.386
50515SOL     OW53441  12.444  10.702   6.348
50515SOL    HW153442  12.450  10.764   6.421
50515SOL    HW253443  12.403  10.625   6.386
50516SOL     OW53444   5.825   1.649   5.243
50516SOL    HW153445   5.901   1.627   5.188
50516SOL    HW253446   5.835   1.742   5.260
50517SOL     OW53447  11.218   1.227   7.515
50517SOL    HW153448  11.258   1.258   7.596
50517SOL    HW253449  11.141   1.179   7.543
50518SOL     OW53450  10.533  10.135   1.985
50518SOL    HW153451  10.609  10.125   1.927
50518SOL    HW253452  10.458  10.134   1.927
50519SOL     OW53453   8.417   0.493   7.151
50519SOL    HW153454   8.511   0.483   7.164
50519SOL    HW253455   8.389   0.550   7.223
50520SOL     OW53456   3.895   3.143   1.031
50520SOL    HW153457   3.892   3.048   1.036
50520SOL    HW253458   3.817   3.172   1.078
50521SOL     OW53459   7.358   3.604   4.118
50521SOL    HW153460   7.398   3.617   4.032
50521SOL    HW253461   7.401   3.668   4.174
50522SOL     OW53462   0.438   4.852   3.116
50522SOL    HW153463   0.357   4.876   3.071
50522SOL    HW253464   0.503   4.841   3.047
50523SOL     OW53465  10.813  14.424   1.476
50523SOL    HW153466  10.781  14.514   1.465
50523SOL    HW253467  10.795  14.404   1.568
50524SOL     OW53468   5.924  11.257  13.740
50524SOL    HW153469   5.943  11.193  13.809
50524SOL    HW253470   5.843  11.300  13.769
50525SOL     OW53471  12.126   9.511   5.383
50525SOL    HW153472  12.134   9.523   5.288
50525SOL    HW253473  12.217   9.508   5.414
50526SOL     OW53474   1.251   4.723   9.154
50526SOL    HW153475   1.168   4.755   9.190
50526SOL    HW253476   1.307   4.800   9.150
50527SOL     OW53477  12.725   9.679   6.964
50527SOL    HW153478  12.664   9.710   7.031
50527SOL    HW253479  12.791   9.629   7.012
50528SOL     OW53480   1.516   0.423   1.056
50528SOL    HW153481   1.528   0.508   1.099
50528SOL    HW253482   1.421   0.412   1.049
50529SOL     OW53483   5.291   5.532  10.687
50529SOL    HW153484   5.201   5.557  10.666
50529SOL    HW253485   5.340   5.615  10.683
50530SOL     OW53486  14.151   8.839   5.621
50530SOL    HW153487  14.182   8.869   5.536
50530SOL    HW253488  14.061   8.812   5.606
50531SOL     OW53489  12.991   6.961   7.942
50531SOL    HW153490  12.962   7.005   8.022
50531SOL    HW253491  13.015   6.873   7.972
50532SOL     OW53492  12.980   6.819  11.316
50532SOL    HW153493  12.894   6.777  11.313
50532SOL    HW253494  13.004   6.819  11.409
50533SOL     OW53495   9.794   6.691  10.985
50533SOL    HW153496   9.730   6.737  10.932
50533SOL    HW253497   9.845   6.640  10.923
50534SOL     OW53498  13.946   1.188   0.722
50534SOL    HW153499  14.012   1.149   0.778
50534SOL    HW253500  13.982   1.179   0.633
50535SOL     OW53501   1.136   4.773   0.131
50535SOL    HW153502   1.196   4.798   0.202
50535SOL    HW253503   1.139   4.847   0.070
50536SOL     OW53504  12.480  12.881  11.021
50536SOL    HW153505  12.481  12.913  11.111
50536SOL    HW253506  12.474  12.786  11.030
50537SOL     OW53507  11.225  11.640  14.041
50537SOL    HW153508  11.191  11.692  13.968
50537SOL    HW253509  11.277  11.572  13.999
50538SOL     OW53510   5.877  12.692  14.202
50538SOL    HW153511   5.785  12.699  14.177
50538SOL    HW253512   5.877  12.638  14.281
50539SOL     OW53513   7.025   5.512  12.910
50539SOL    HW153514   6.970   5.590  12.909
50539SOL    HW253515   7.013   5.473  12.823
50540SOL     OW53516   7.068  14.833   9.122
50540SOL    HW153517   7.100   0.018   9.182
50540SOL    HW253518   6.983  14.865   9.092
50541SOL     OW53519   7.229   3.369  11.397
50541SOL    HW153520   7.163   3.316  11.441
50541SOL    HW253521   7.188   3.455  11.389
50542SOL     OW53522   9.776   6.846  14.777
50542SOL    HW153523   9.831   6.773  14.806
50542SOL    HW253524   9.688   6.809  14.774
50543SOL     OW53525   5.851   3.914   8.198
50543SOL    HW153526   5.781   3.868   8.153
50543SOL    HW253527   5.925   3.910   8.137
50544SOL     OW53528   2.820   8.911   8.273
50544SOL    HW153529   2.869   8.975   8.325
50544SOL    HW253530   2.879   8.836   8.265
50545SOL     OW53531   6.345   4.587  10.209
50545SOL    HW153532   6.370   4.579  10.117
50545SOL    HW253533   6.421   4.627  10.251
50546SOL     OW53534   2.801  12.550   5.059
50546SOL    HW153535   2.811  12.454   5.058
50546SOL    HW253536   2.853  12.580   4.985
50547SOL     OW53537   2.799  12.107   1.596
50547SOL    HW153538   2.860  12.148   1.657
50547SOL    HW253539   2.847  12.103   1.513
50548SOL     OW53540   5.653  14.748   2.165
50548SOL    HW153541   5.705  14.730   2.086
50548SOL    HW253542   5.710  14.801   2.220
50549SOL     OW53543   2.728   7.515  12.667
50549SOL    HW153544   2.645   7.525  12.620
50549SOL    HW253545   2.708   7.454  12.739
50550SOL     OW53546  12.420   9.726   3.862
50550SOL    HW153547  12.336   9.749   3.823
50550SOL    HW253548  12.410   9.749   3.955
50551SOL     OW53549   1.459   6.804  10.315
50551SOL    HW153550   1.479   6.751  10.238
50551SOL    HW253551   1.405   6.747  10.370
50552SOL     OW53552   3.013   8.620   2.426
50552SOL    HW153553   3.008   8.532   2.464
50552SOL    HW253554   2.935   8.665   2.459
50553SOL     OW53555  14.025  12.332  11.971
50553SOL    HW153556  14.015  12.284  12.054
50553SOL    HW253557  13.937  12.365  11.953
50554SOL     OW53558  12.711   7.738   7.025
50554SOL    HW153559  12.774   7.679   6.984
50554SOL    HW253560  12.765   7.802   7.072
50555SOL     OW53561   5.972   5.540  12.301
50555SOL    HW153562   5.985   5.591  12.381
50555SOL    HW253563   5.887   5.568  12.267
50556SOL     OW53564   7.595  12.012   4.210
50556SOL    HW153565   7.503  11.985   4.222
50556SOL    HW253566   7.598  12.102   4.242
50557SOL     OW53567  12.943  14.483  11.278
50557SOL    HW153568  12.977  14.401  11.244
50557SOL    HW253569  12.876  14.510  11.215
50558SOL     OW53570   7.847   6.824  12.609
50558SOL    HW153571   7.802   6.794  12.688
50558SOL    HW253572   7.856   6.746  12.555
50559SOL     OW53573  14.827   0.937   3.434
50559SOL    HW153574  14.878   0.857   3.450
50559SOL    HW253575  14.840   0.956   3.342
50560SOL     OW53576   4.510  13.124   8.112
50560SOL    HW153577   4.535  13.061   8.179
50560SOL    HW253578   4.585  13.184   8.106
50561SOL     OW53579   5.786  11.695   2.350
50561SOL    HW153580   5.700  11.703   2.393
50561SOL    HW253581   5.798  11.780   2.306
50562SOL     OW53582  10.017  12.167   8.118
50562SOL    HW153583   9.932  12.209   8.133
50562SOL    HW253584  10.062  12.225   8.055
50563SOL     OW53585   3.579  11.193  10.852
50563SOL    HW153586   3.639  11.171  10.923
50563SOL    HW253587   3.492  11.171  10.887
50564SOL     OW53588   5.129   5.772   1.700
50564SOL    HW153589   5.127   5.822   1.618
50564SOL    HW253590   5.128   5.681   1.672
50565SOL     OW53591  10.352  10.449  14.146
50565SOL    HW153592  10.420  10.390  14.114
50565SOL    HW253593  10.291  10.458  14.073
50566SOL     OW53594   8.459   7.317  11.166
50566SOL    HW153595   8.366   7.323  11.189
50566SOL    HW253596   8.504   7.371  11.230
50567SOL     OW53597  12.571   0.960   8.207
50567SOL    HW153598  12.579   1.048   8.243
50567SOL    HW253599  12.575   0.902   8.283
50568SOL     OW53600   6.148   3.778  12.426
50568SOL    HW153601   6.173   3.718  12.355
50568SOL    HW253602   6.130   3.720  12.500
50569SOL     OW53603   4.435   4.162  12.459
50569SOL    HW153604   4.466   4.213  12.384
50569SOL    HW253605   4.449   4.219  12.534
50570SOL     OW53606   3.302   5.716   6.140
50570SOL    HW153607   3.307   5.809   6.117
50570SOL    HW253608   3.361   5.707   6.215
50571SOL     OW53609   1.393  13.657   6.366
50571SOL    HW153610   1.475  13.707   6.365
50571SOL    HW253611   1.420  13.567   6.354
50572SOL     OW53612   7.466   0.006  13.800
50572SOL    HW153613   7.379   0.021  13.837
50572SOL    HW253614   7.527   0.042  13.864
50573SOL     OW53615  14.363   7.567   7.397
50573SOL    HW153616  14.340   7.481   7.361
50573SOL    HW253617  14.344   7.560   7.490
50574SOL     OW53618   1.536   7.973   2.553
50574SOL    HW153619   1.519   8.046   2.494
50574SOL    HW253620   1.565   8.013   2.634
50575SOL     OW53621   7.007  14.511   6.557
50575SOL    HW153622   6.915  14.493   6.536
50575SOL    HW253623   7.031  14.582   6.498
50576SOL     OW53624  14.728   1.520   2.518
50576SOL    HW153625  14.703   1.436   2.557
50576SOL    HW253626  14.756   1.573   2.593
50577SOL     OW53627   7.720   8.415   8.838
50577SOL    HW153628   7.760   8.430   8.753
50577SOL    HW253629   7.626   8.415   8.820
50578SOL     OW53630  12.860  11.034   4.313
50578SOL    HW153631  12.807  10.986   4.249
50578SOL    HW253632  12.796  11.067   4.376
50579SOL     OW53633   2.910   3.686   3.910
50579SOL    HW153634   2.963   3.764   3.923
50579SOL    HW253635   2.919   3.637   3.992
50580SOL     OW53636   3.255   1.090  10.175
50580SOL    HW153637   3.283   1.106  10.265
50580SOL    HW253638   3.320   1.028  10.141
50581SOL     OW53639   4.152   1.867  12.433
50581SOL    HW153640   4.225   1.914  12.392
50581SOL    HW253641   4.079   1.878  12.373
50582SOL     OW53642  12.451   3.020   4.475
50582SOL    HW153643  12.420   3.061   4.556
50582SOL    HW253644  12.522   2.962   4.503
50583SOL     OW53645   0.017   4.802   4.191
50583SOL    HW153646  14.844   4.820   4.267
50583SOL    HW253647   0.024   4.706   4.190
50584SOL     OW53648  12.950   1.105  11.700
50584SOL    HW153649  12.984   1.070  11.782
50584SOL    HW253650  12.857   1.119  11.717
50585SOL     OW53651   0.856   7.707   4.359
50585SOL    HW153652   0.948   7.706   4.334
50585SOL    HW253653   0.814   7.765   4.296
50586SOL     OW53654   8.939   7.858   9.956
50586SOL    HW153655   8.871   7.917   9.923
50586SOL    HW253656   9.021   7.906   9.945
50587SOL     OW53657  12.182   7.546   8.492
50587SOL    HW153658  12.246   7.617   8.480
50587SOL    HW253659  12.100   7.582   8.457
50588SOL     OW53660  10.255  10.479   7.980
50588SOL    HW153661  10.189  10.419   7.944
50588SOL    HW253662  10.317  10.493   7.908
50589SOL     OW53663  12.387   6.112   2.249
50589SOL    HW153664  12.357   6.144   2.334
50589SOL    HW253665  12.307   6.102   2.198
50590SOL     OW53666   7.591   2.555  12.684
50590SOL    HW153667   7.606   2.533  12.776
50590SOL    HW253668   7.532   2.487  12.653
50591SOL     OW53669   3.026   0.442   3.185
50591SOL    HW153670   2.941   0.452   3.143
50591SOL    HW253671   3.009   0.387   3.262
50592SOL     OW53672   3.056  12.516   3.943
50592SOL    HW153673   3.150  12.530   3.934
50592SOL    HW253674   3.018  12.604   3.941
50593SOL     OW53675   7.869   4.041   2.863
50593SOL    HW153676   7.822   3.966   2.899
50593SOL    HW253677   7.799   4.102   2.837
50594SOL     OW53678   5.387   6.828  13.291
50594SOL    HW153679   5.471   6.834  13.246
50594SOL    HW253680   5.365   6.919  13.313
50595SOL     OW53681   0.363   6.004  10.226
50595SOL    HW153682   0.452   6.019  10.258
50595SOL    HW253683   0.339   5.918  10.262
50596SOL     OW53684   0.784   1.105  13.860
50596SOL    HW153685   0.691   1.088  13.844
50596SOL    HW253686   0.806   1.177  13.801
50597SOL     OW53687   3.374  12.233   3.968
50597SOL    HW153688   3.352  12.302   3.906
50597SOL    HW253689   3.334  12.154   3.932
50598SOL     OW53690   7.163  14.668  13.531
50598SOL    HW153691   7.196  14.682  13.442
50598SOL    HW253692   7.143  14.575  13.535
50599SOL     OW53693   0.286  11.344   5.478
50599SOL    HW153694   0.365  11.344   5.531
50599SOL    HW253695   0.306  11.405   5.406
50600SOL     OW53696   2.116   2.091   0.439
50600SOL    HW153697   2.167   2.164   0.474
50600SOL    HW253698   2.039   2.132   0.399
50601SOL     OW53699  13.267   1.553   5.488
50601SOL    HW153700  13.216   1.622   5.445
50601SOL    HW253701  13.208   1.518   5.555
50602SOL     OW53702   4.879  14.526   9.723
50602SOL    HW153703   4.825  14.585   9.775
50602SOL    HW253704   4.875  14.442   9.768
50603SOL     OW53705   9.018   9.473   3.526
50603SOL    HW153706   8.923   9.476   3.511
50603SOL    HW253707   9.029   9.421   3.605
50604SOL     OW53708   7.200   4.611   1.645
50604SOL    HW153709   7.152   4.668   1.706
50604SOL    HW253710   7.275   4.581   1.695
50605SOL     OW53711   7.492  12.412  10.288
50605SOL    HW153712   7.419  12.364  10.326
50605SOL    HW253713   7.530  12.461  10.361
50606SOL     OW53714   4.027   0.905   6.874
50606SOL    HW153715   4.023   0.874   6.964
50606SOL    HW253716   4.054   0.829   6.823
50607SOL     OW53717   7.395  11.809   6.336
50607SOL    HW153718   7.349  11.739   6.382
50607SOL    HW253719   7.460  11.840   6.399
50608SOL     OW53720   2.326  12.494   5.878
50608SOL    HW153721   2.274  12.543   5.941
50608SOL    HW253722   2.269  12.422   5.850
50609SOL     OW53723  13.634   4.319  14.706
50609SOL    HW153724  13.716   4.358  14.736
50609SOL    HW253725  13.645   4.311  14.611
50610SOL     OW53726  11.759   9.850   9.862
50610SOL    HW153727  11.768   9.868   9.769
50610SOL    HW253728  11.678   9.895   9.887
50611SOL     OW53729   2.285  11.509  14.118
50611SOL    HW153730   2.351  11.559  14.166
50611SOL    HW253731   2.233  11.576  14.073
50612SOL     OW53732  14.521   4.739  12.305
50612SOL    HW153733  14.471   4.779  12.375
50612SOL    HW253734  14.598   4.795  12.294
50613SOL     OW53735  14.363   6.591   4.500
50613SOL    HW153736  14.271   6.566   4.498
50613SOL    HW253737  14.362   6.686   4.509
50614SOL     OW53738   1.618   9.035  10.556
50614SOL    HW153739   1.655   8.999  10.636
50614SOL    HW253740   1.651   8.979  10.486
50615SOL     OW53741   3.686   0.824   7.910
50615SOL    HW153742   3.631   0.752   7.880
50615SOL    HW253743   3.775   0.787   7.913
50616SOL     OW53744   7.247   4.901   0.129
50616SOL    HW153745   7.178   4.864   0.184
50616SOL    HW253746   7.290   4.966   0.184
50617SOL     OW53747  13.179   8.426   0.062
50617SOL    HW153748  13.267   8.391   0.079
50617SOL    HW253749  13.195   8.501   0.004
50618SOL     OW53750   9.691   8.529   9.569
50618SOL    HW153751   9.748   8.561   9.499
50618SOL    HW253752   9.740   8.455   9.608
50619SOL     OW53753  13.721   4.039   7.890
50619SOL    HW153754  13.664   4.030   7.814
50619SOL    HW253755  13.807   4.060   7.853
50620SOL     OW53756   0.371   9.107   6.719
50620SOL    HW153757   0.388   9.030   6.665
50620SOL    HW253758   0.419   9.178   6.676
50621SOL     OW53759   6.214  14.709   5.162
50621SOL    HW153760   6.175  14.778   5.217
50621SOL    HW253761   6.273  14.662   5.221
50622SOL     OW53762  12.964   1.312   1.118
50622SOL    HW153763  12.927   1.305   1.030
50622SOL    HW253764  12.971   1.406   1.133
50623SOL     OW53765  11.125  14.077   0.875
50623SOL    HW153766  11.096  14.009   0.815
50623SOL    HW253767  11.198  14.037   0.923
50624SOL     OW53768  12.688   2.469   2.642
50624SOL    HW153769  12.656   2.552   2.676
50624SOL    HW253770  12.780   2.465   2.669
50625SOL     OW53771   6.266   0.280   3.283
50625SOL    HW153772   6.279   0.204   3.227
50625SOL    HW253773   6.251   0.244   3.371
50626SOL     OW53774   8.928  14.098  11.304
50626SOL    HW153775   8.999  14.147  11.262
50626SOL    HW253776   8.964  14.011  11.319
50627SOL     OW53777   9.273   1.347   6.844
50627SOL    HW153778   9.263   1.403   6.921
50627SOL    HW253779   9.196   1.290   6.845
50628SOL     OW53780   3.133  12.339   8.737
50628SOL    HW153781   3.121  12.408   8.802
50628SOL    HW253782   3.100  12.260   8.780
50629SOL     OW53783   5.953   3.051  11.518
50629SOL    HW153784   5.981   3.141  11.533
50629SOL    HW253785   5.936   3.047  11.424
50630SOL     OW53786   9.804  13.870  10.361
50630SOL    HW153787   9.804  13.941  10.424
50630SOL    HW253788   9.751  13.902  10.288
50631SOL     OW53789  10.445   3.081   7.126
50631SOL    HW153790  10.463   3.022   7.199
50631SOL    HW253791  10.530   3.100   7.088
50632SOL     OW53792  12.540   1.696   8.150
50632SOL    HW153793  12.469   1.678   8.088
50632SOL    HW253794  12.616   1.653   8.111
50633SOL     OW53795  14.134   4.456   0.516
50633SOL    HW153796  14.197   4.405   0.465
50633SOL    HW253797  14.087   4.391   0.567
50634SOL     OW53798   6.032  10.165   2.404
50634SOL    HW153799   6.105  10.209   2.448
50634SOL    HW253800   6.023  10.211   2.321
50635SOL     OW53801   4.512   8.275   4.006
50635SOL    HW153802   4.578   8.213   4.037
50635SOL    HW253803   4.439   8.219   3.978
50636SOL     OW53804   8.598   4.750  11.015
50636SOL    HW153805   8.595   4.733  11.109
50636SOL    HW253806   8.598   4.845  11.008
50637SOL     OW53807   3.532  13.813   6.065
50637SOL    HW153808   3.556  13.720   6.077
50637SOL    HW253809   3.521  13.823   5.971
50638SOL     OW53810   1.186   3.736  11.309
50638SOL    HW153811   1.109   3.780  11.273
50638SOL    HW253812   1.181   3.754  11.403
50639SOL     OW53813   6.005  13.802  13.862
50639SOL    HW153814   5.973  13.892  13.866
50639SOL    HW253815   5.939  13.756  13.809
50640SOL     OW53816   6.279   7.406   2.614
50640SOL    HW153817   6.212   7.462   2.574
50640SOL    HW253818   6.348   7.467   2.639
50641SOL     OW53819  12.914   5.138   2.699
50641SOL    HW153820  12.872   5.203   2.755
50641SOL    HW253821  12.941   5.187   2.622
50642SOL     OW53822  12.340  10.956   2.468
50642SOL    HW153823  12.347  10.866   2.436
50642SOL    HW253824  12.249  10.980   2.451
50643SOL     OW53825  10.746  10.653  10.032
50643SOL    HW153826  10.823  10.645   9.975
50643SOL    HW253827  10.756  10.739  10.073
50644SOL     OW53828   9.220   6.910   6.492
50644SOL    HW153829   9.201   6.938   6.403
50644SOL    HW253830   9.307   6.871   6.487
50645SOL     OW53831   7.185   9.179   7.293
50645SOL    HW153832   7.121   9.196   7.362
50645SOL    HW253833   7.269   9.172   7.340
50646SOL     OW53834  12.714  10.125   1.426
50646SOL    HW153835  12.634  10.089   1.388
50646SOL    HW253836  12.698  10.124   1.520
50647SOL     OW53837  13.253   0.446  12.406
50647SOL    HW153838  13.258   0.351  12.402
50647SOL    HW253839  13.231   0.465  12.497
50648SOL     OW53840   6.044  14.362  11.495
50648SOL    HW153841   6.090  14.357  11.411
50648SOL    HW253842   5.969  14.303  11.484
50649SOL     OW53843   4.576   0.299   1.697
50649SOL    HW153844   4.662   0.305   1.739
50649SOL    HW253845   4.591   0.244   1.620
50650SOL     OW53846   1.073   6.840   6.938
50650SOL    HW153847   1.005   6.774   6.948
50650SOL    HW253848   1.027   6.924   6.946
50651SOL     OW53849   4.783  11.871   2.900
50651SOL    HW153850   4.735  11.789   2.884
50651SOL    HW253851   4.870  11.842   2.928
50652SOL     OW53852  13.383   9.438   2.747
50652SOL    HW153853  13.404   9.524   2.710
50652SOL    HW253854  13.454   9.421   2.808
50653SOL     OW53855  10.837  13.177   2.137
50653SOL    HW153856  10.795  13.263   2.128
50653SOL    HW253857  10.798  13.140   2.216
50654SOL     OW53858   7.780   1.270   9.709
50654SOL    HW153859   7.847   1.303   9.649
50654SOL    HW253860   7.828   1.214   9.770
50655SOL     OW53861  12.147  11.466   4.920
50655SOL    HW153862  12.207  11.475   4.994
50655SOL    HW253863  12.098  11.386   4.939
50656SOL     OW53864   9.620  10.146   9.692
50656SOL    HW153865   9.559  10.208   9.733
50656SOL    HW253866   9.574  10.062   9.695
50657SOL     OW53867  12.116   8.151   2.249
50657SOL    HW153868  12.166   8.093   2.308
50657SOL    HW253869  12.053   8.194   2.307
50658SOL     OW53870  14.760   5.954  12.513
50658SOL    HW153871  14.754   5.891  12.585
50658SOL    HW253872  14.675   5.949  12.470
50659SOL     OW53873   3.618  11.739   9.828
50659SOL    HW153874   3.533  11.731   9.870
50659SOL    HW253875   3.673  11.673   9.871
50660SOL     OW53876  13.527  14.431   0.479
50660SOL    HW153877  13.552  14.377   0.554
50660SOL    HW253878  13.587  14.405   0.410
50661SOL     OW53879   8.956  10.721  11.510
50661SOL    HW153880   8.946  10.781  11.583
50661SOL    HW253881   8.956  10.777  11.432
50662SOL     OW53882  12.874   8.295   6.325
50662SOL    HW153883  12.907   8.214   6.366
50662SOL    HW253884  12.935   8.311   6.253
50663SOL     OW53885   6.346   3.207  10.415
50663SOL    HW153886   6.306   3.291  10.393
50663SOL    HW253887   6.438   3.218  10.392
50664SOL     OW53888   5.676   8.910  10.848
50664SOL    HW153889   5.604   8.924  10.786
50664SOL    HW253890   5.641   8.847  10.912
50665SOL     OW53891   6.094   2.691  11.067
50665SOL    HW153892   6.014   2.731  11.102
50665SOL    HW253893   6.161   2.758  11.079
50666SOL     OW53894   3.589  10.791  13.738
50666SOL    HW153895   3.506  10.808  13.784
50666SOL    HW253896   3.566  10.726  13.672
50667SOL     OW53897   6.123   2.151  12.026
50667SOL    HW153898   6.180   2.149  12.104
50667SOL    HW253899   6.090   2.241  12.024
50668SOL     OW53900  11.066   5.368   3.306
50668SOL    HW153901  11.009   5.414   3.244
50668SOL    HW253902  11.050   5.275   3.289
50669SOL     OW53903  13.607  11.422   0.835
50669SOL    HW153904  13.685  11.409   0.889
50669SOL    HW253905  13.567  11.502   0.870
50670SOL     OW53906   8.216  12.697  10.705
50670SOL    HW153907   8.304  12.719  10.677
50670SOL    HW253908   8.212  12.601  10.701
50671SOL     OW53909   2.519   3.963   2.178
50671SOL    HW153910   2.483   4.027   2.239
50671SOL    HW253911   2.610   3.953   2.204
50672SOL     OW53912   4.446   0.505   1.502
50672SOL    HW153913   4.481   0.502   1.413
50672SOL    HW253914   4.520   0.536   1.555
50673SOL     OW53915   3.480   4.463   1.717
50673SOL    HW153916   3.552   4.425   1.767
50673SOL    HW253917   3.498   4.437   1.626
50674SOL     OW53918   6.499   2.168   0.839
50674SOL    HW153919   6.537   2.105   0.901
50674SOL    HW253920   6.449   2.113   0.777
50675SOL     OW53921  10.135   6.112   0.563
50675SOL    HW153922  10.218   6.154   0.541
50675SOL    HW253923  10.072   6.184   0.570
50676SOL     OW53924  12.331   0.809  12.840
50676SOL    HW153925  12.323   0.880  12.903
50676SOL    HW253926  12.293   0.844  12.759
50677SOL     OW53927   4.977   4.069  11.259
50677SOL    HW153928   4.925   4.028  11.190
50677SOL    HW253929   5.021   3.996  11.303
50678SOL     OW53930   6.910   2.184   3.791
50678SOL    HW153931   6.823   2.179   3.831
50678SOL    HW253932   6.955   2.106   3.824
50679SOL     OW53933   6.624  11.967   7.500
50679SOL    HW153934   6.536  11.971   7.538
50679SOL    HW253935   6.673  11.911   7.561
50680SOL     OW53936   3.061   6.353  14.097
50680SOL    HW153937   2.977   6.399  14.094
50680SOL    HW253938   3.108   6.394  14.170
50681SOL     OW53939  13.202   4.706   5.164
50681SOL    HW153940  13.244   4.635   5.115
50681SOL    HW253941  13.260   4.724   5.237
50682SOL     OW53942   2.568  11.264  11.782
50682SOL    HW153943   2.480  11.291  11.754
50682SOL    HW253944   2.557  11.241  11.874
50683SOL     OW53945   0.252  14.880   3.328
50683SOL    HW153946   0.321  14.821   3.359
50683SOL    HW253947   0.206  14.830   3.261
50684SOL     OW53948  12.350   3.011   3.691
50684SOL    HW153949  12.321   3.025   3.782
50684SOL    HW253950  12.269   3.015   3.640
50685SOL     OW53951  12.829   1.206  11.360
50685SOL    HW153952  12.903   1.162  11.319
50685SOL    HW253953  12.782   1.137  11.406
50686SOL     OW53954  14.159   2.514  13.815
50686SOL    HW153955  14.082   2.557  13.776
50686SOL    HW253956  14.202   2.470  13.741
50687SOL     OW53957  14.651  11.720  11.011
50687SOL    HW153958  14.668  11.802  10.965
50687SOL    HW253959  14.715  11.659  10.975
50688SOL     OW53960  10.701   8.441   8.554
50688SOL    HW153961  10.694   8.513   8.616
50688SOL    HW253962  10.795   8.431   8.540
50689SOL     OW53963   7.855   3.382   0.449
50689SOL    HW153964   7.782   3.437   0.421
50689SOL    HW253965   7.928   3.408   0.392
50690SOL     OW53966   8.220   3.660   9.348
50690SOL    HW153967   8.314   3.679   9.349
50690SOL    HW253968   8.179   3.739   9.382
50691SOL     OW53969  14.047   1.579   8.113
50691SOL    HW153970  14.120   1.546   8.061
50691SOL    HW253971  13.984   1.612   8.049
50692SOL     OW53972  12.366  14.172  14.769
50692SOL    HW153973  12.287  14.133  14.806
50692SOL    HW253974  12.351  14.170  14.674
50693SOL     OW53975   2.609  11.320  11.386
50693SOL    HW153976   2.562  11.354  11.309
50693SOL    HW253977   2.684  11.275  11.349
50694SOL     OW53978   5.742   1.486   8.805
50694SOL    HW153979   5.703   1.549   8.744
50694SOL    HW253980   5.738   1.402   8.759
50695SOL     OW53981  14.278   4.714  11.562
50695SOL    HW153982  14.237   4.767  11.493
50695SOL    HW253983  14.210   4.705  11.629
50696SOL     OW53984  10.544   9.295   7.563
50696SOL    HW153985  10.470   9.243   7.593
50696SOL    HW253986  10.515   9.331   7.479
50697SOL     OW53987   5.217   4.367  13.619
50697SOL    HW153988   5.181   4.451  13.590
50697SOL    HW253989   5.291   4.390  13.674
50698SOL     OW53990  12.822   6.704   5.070
50698SOL    HW153991  12.740   6.753   5.079
50698SOL    HW253992  12.861   6.708   5.158
50699SOL     OW53993   1.112   8.283   0.642
50699SOL    HW153994   1.069   8.202   0.615
50699SOL    HW253995   1.103   8.284   0.737
50700SOL     OW53996  10.769  13.611  12.464
50700SOL    HW153997  10.743  13.627  12.554
50700SOL    HW253998  10.706  13.545  12.433
50701SOL     OW53999   7.858  11.904   2.518
50701SOL    HW154000   7.922  11.864   2.459
50701SOL    HW254001   7.860  11.997   2.497
50702SOL     OW54002   8.300   1.344  11.953
50702SOL    HW154003   8.301   1.419  11.894
50702SOL    HW254004   8.208   1.319  11.958
50703SOL     OW54005  12.399   4.675   4.020
50703SOL    HW154006  12.365   4.586   4.026
50703SOL    HW254007  12.353   4.714   3.946
50704SOL     OW54008   8.296  11.910   1.442
50704SOL    HW154009   8.205  11.933   1.421
50704SOL    HW254010   8.289  11.852   1.518
50705SOL     OW54011   4.314   1.852   3.802
50705SOL    HW154012   4.223   1.848   3.831
50705SOL    HW254013   4.330   1.766   3.763
50706SOL     OW54014   2.713  12.427   6.061
50706SOL    HW154015   2.637  12.457   6.111
50706SOL    HW254016   2.693  12.450   5.971
50707SOL     OW54017   8.602  11.538   0.590
50707SOL    HW154018   8.658  11.544   0.512
50707SOL    HW254019   8.591  11.628   0.618
50708SOL     OW54020  11.720   3.955   8.944
50708SOL    HW154021  11.797   3.941   8.889
50708SOL    HW254022  11.755   3.961   9.033
50709SOL     OW54023   9.841  13.676  11.477
50709SOL    HW154024   9.846  13.645  11.567
50709SOL    HW254025   9.753  13.712  11.469
50710SOL     OW54026   0.754   6.711  12.102
50710SOL    HW154027   0.808   6.788  12.121
50710SOL    HW254028   0.667   6.734  12.135
50711SOL     OW54029   9.586   7.581  10.887
50711SOL    HW154030   9.542   7.664  10.901
50711SOL    HW254031   9.517   7.522  10.857
50712SOL     OW54032   8.679   2.482   2.454
50712SOL    HW154033   8.772   2.461   2.454
50712SOL    HW254034   8.665   2.531   2.535
50713SOL     OW54035  12.533   1.675  10.770
50713SOL    HW154036  12.442   1.703  10.762
50713SOL    HW254037  12.554   1.685  10.863
50714SOL     OW54038   8.255  13.586   9.555
50714SOL    HW154039   8.275  13.668   9.601
50714SOL    HW254040   8.311  13.587   9.478
50715SOL     OW54041   5.065   3.329   7.804
50715SOL    HW154042   5.155   3.360   7.801
50715SOL    HW254043   5.014   3.407   7.830
50716SOL     OW54044   9.610   5.436   2.792
50716SOL    HW154045   9.636   5.394   2.874
50716SOL    HW254046   9.676   5.407   2.729
50717SOL     OW54047   0.362   0.882   2.749
50717SOL    HW154048   0.373   0.895   2.843
50717SOL    HW254049   0.268   0.891   2.734
50718SOL     OW54050   6.395   9.978   2.108
50718SOL    HW154051   6.458  10.049   2.115
50718SOL    HW254052   6.388   9.943   2.196
50719SOL     OW54053   6.799  13.910   3.136
50719SOL    HW154054   6.808  13.982   3.198
50719SOL    HW254055   6.873  13.920   3.076
50720SOL     OW54056   6.691  13.383  13.986
50720SOL    HW154057   6.710  13.347  13.899
50720SOL    HW254058   6.598  13.404  13.984
50721SOL     OW54059   3.956   4.970  10.848
50721SOL    HW154060   4.037   4.920  10.835
50721SOL    HW254061   3.894   4.906  10.883
50722SOL     OW54062   6.506  11.729   3.989
50722SOL    HW154063   6.463  11.790   3.929
50722SOL    HW254064   6.492  11.767   4.076
50723SOL     OW54065   5.060  14.032   7.874
50723SOL    HW154066   5.007  14.038   7.953
50723SOL    HW254067   5.095  14.120   7.861
50724SOL     OW54068   5.854   5.416  10.576
50724SOL    HW154069   5.936   5.462  10.594
50724SOL    HW254070   5.786   5.483  10.585
50725SOL     OW54071   5.739  12.657  12.719
50725SOL    HW154072   5.760  12.700  12.636
50725SOL    HW254073   5.775  12.569  12.711
50726SOL     OW54074  11.549   1.867   9.294
50726SOL    HW154075  11.547   1.849   9.200
50726SOL    HW254076  11.478   1.814   9.330
50727SOL     OW54077   0.753  13.085   7.975
50727SOL    HW154078   0.830  13.049   7.931
50727SOL    HW254079   0.775  13.082   8.068
50728SOL     OW54080  10.062  11.050   7.856
50728SOL    HW154081  10.126  11.013   7.796
50728SOL    HW254082  10.002  11.099   7.799
50729SOL     OW54083   8.296   2.929   7.813
50729SOL    HW154084   8.350   2.902   7.887
50729SOL    HW254085   8.359   2.948   7.744
50730SOL     OW54086   0.310   8.004   0.020
50730SOL    HW154087   0.226   8.044  14.880
50730SOL    HW254088   0.350   7.984  14.818
50731SOL     OW54089  14.300  11.967   5.951
50731SOL    HW154090  14.221  11.931   5.910
50731SOL    HW254091  14.364  11.896   5.944
50732SOL     OW54092   2.589   8.270   1.453
50732SOL    HW154093   2.566   8.227   1.370
50732SOL    HW254094   2.649   8.208   1.495
50733SOL     OW54095   6.155   2.556  14.103
50733SOL    HW154096   6.085   2.492  14.115
50733SOL    HW254097   6.199   2.528  14.022
50734SOL     OW54098   1.426   8.496  10.733
50734SOL    HW154099   1.442   8.431  10.665
50734SOL    HW254100   1.500   8.486  10.794
50735SOL     OW54101   7.343   2.517   0.278
50735SOL    HW154102   7.338   2.539   0.372
50735SOL    HW254103   7.437   2.505   0.262
50736SOL     OW54104   4.783   0.442   9.233
50736SOL    HW154105   4.718   0.388   9.279
50736SOL    HW254106   4.749   0.531   9.241
50737SOL     OW54107   4.744   0.958   5.227
50737SOL    HW154108   4.687   1.033   5.211
50737SOL    HW254109   4.716   0.924   5.312
50738SOL     OW54110  12.388  14.778   3.157
50738SOL    HW154111  12.342  14.844   3.210
50738SOL    HW254112  12.351  14.695   3.185
50739SOL     OW54113   7.967   7.251   6.828
50739SOL    HW154114   7.975   7.317   6.759
50739SOL    HW254115   8.003   7.172   6.789
50740SOL     OW54116  12.172   3.195   3.170
50740SOL    HW154117  12.083   3.230   3.177
50740SOL    HW254118  12.195   3.170   3.259
50741SOL     OW54119   1.324   3.755   2.631
50741SOL    HW154120   1.329   3.734   2.724
50741SOL    HW254121   1.238   3.724   2.604
50742SOL     OW54122   8.784   3.071   5.572
50742SOL    HW154123   8.841   3.142   5.546
50742SOL    HW254124   8.801   3.001   5.508
50743SOL     OW54125   5.766  10.187   2.584
50743SOL    HW154126   5.778  10.155   2.673
50743SOL    HW254127   5.839  10.151   2.535
50744SOL     OW54128  11.494   1.308   9.049
50744SOL    HW154129  11.474   1.256   9.127
50744SOL    HW254130  11.409   1.337   9.017
50745SOL     OW54131   9.885   3.589   4.292
50745SOL    HW154132   9.940   3.525   4.338
50745SOL    HW254133   9.803   3.589   4.342
50746SOL     OW54134  11.219   2.577   6.851
50746SOL    HW154135  11.161   2.620   6.914
50746SOL    HW254136  11.191   2.611   6.766
50747SOL     OW54137  13.303  12.217  10.164
50747SOL    HW154138  13.371  12.216  10.096
50747SOL    HW254139  13.334  12.283  10.226
50748SOL     OW54140   9.921   1.473  13.679
50748SOL    HW154141   9.933   1.378  13.671
50748SOL    HW254142   9.856   1.483  13.749
50749SOL     OW54143  11.531  12.455  13.683
50749SOL    HW154144  11.466  12.474  13.616
50749SOL    HW254145  11.480  12.431  13.761
50750SOL     OW54146   8.623  13.514   1.198
50750SOL    HW154147   8.605  13.447   1.132
50750SOL    HW254148   8.678  13.578   1.153
50751SOL     OW54149  12.871  11.209   4.070
50751SOL    HW154150  12.875  11.155   4.149
50751SOL    HW254151  12.953  11.190   4.024
50752SOL     OW54152   1.010   3.941  12.428
50752SOL    HW154153   1.071   3.914  12.360
50752SOL    HW254154   1.065   3.971  12.500
50753SOL     OW54155   9.984   3.523   3.033
50753SOL    HW154156  10.050   3.592   3.025
50753SOL    HW254157   9.930   3.531   2.955
50754SOL     OW54158  10.289   2.584   4.007
50754SOL    HW154159  10.268   2.566   4.099
50754SOL    HW254160  10.248   2.513   3.958
50755SOL     OW54161  11.846   7.439   3.718
50755SOL    HW154162  11.800   7.511   3.762
50755SOL    HW254163  11.778   7.373   3.703
50756SOL     OW54164   8.690   5.782   7.162
50756SOL    HW154165   8.760   5.825   7.113
50756SOL    HW254166   8.699   5.816   7.251
50757SOL     OW54167  10.561  11.614   3.627
50757SOL    HW154168  10.578  11.693   3.575
50757SOL    HW254169  10.605  11.630   3.710
50758SOL     OW54170   0.120  10.465   8.541
50758SOL    HW154171   0.063  10.399   8.502
50758SOL    HW254172   0.104  10.544   8.490
50759SOL     OW54173   2.335   4.440   8.005
50759SOL    HW154174   2.244   4.465   8.022
50759SOL    HW254175   2.379   4.523   7.986
50760SOL     OW54176   4.639   2.077   1.632
50760SOL    HW154177   4.568   2.095   1.571
50760SOL    HW254178   4.701   2.149   1.619
50761SOL     OW54179   1.330  13.758  11.598
50761SOL    HW154180   1.352  13.813  11.673
50761SOL    HW254181   1.385  13.791  11.527
50762SOL     OW54182   1.828   8.440   4.697
50762SOL    HW154183   1.781   8.358   4.711
50762SOL    HW254184   1.918   8.415   4.681
50763SOL     OW54185  12.294  14.061   8.757
50763SOL    HW154186  12.325  14.128   8.695
50763SOL    HW254187  12.313  14.099   8.843
50764SOL     OW54188   1.025   3.821   8.582
50764SOL    HW154189   1.098   3.871   8.545
50764SOL    HW254190   1.028   3.839   8.675
50765SOL     OW54191  13.181   0.089   6.172
50765SOL    HW154192  13.259   0.043   6.142
50765SOL    HW254193  13.215   0.168   6.214
50766SOL     OW54194  11.487   3.516   2.646
50766SOL    HW154195  11.461   3.450   2.582
50766SOL    HW254196  11.582   3.525   2.633
50767SOL     OW54197   2.070  12.058   7.469
50767SOL    HW154198   2.015  12.092   7.398
50767SOL    HW254199   2.031  11.974   7.491
50768SOL     OW54200   7.039   2.732   6.904
50768SOL    HW154201   7.041   2.707   6.996
50768SOL    HW254202   7.090   2.814   6.901
50769SOL     OW54203   0.607   7.304   2.121
50769SOL    HW154204   0.549   7.321   2.046
50769SOL    HW254205   0.665   7.380   2.124
50770SOL     OW54206   1.551   0.661  10.963
50770SOL    HW154207   1.630   0.622  10.999
50770SOL    HW254208   1.512   0.709  11.036
50771SOL     OW54209   9.932   8.818  13.706
50771SOL    HW154210   9.905   8.814  13.797
50771SOL    HW254211   9.881   8.889  13.668
50772SOL     OW54212   4.187  14.642   9.837
50772SOL    HW154213   4.139  14.691   9.770
50772SOL    HW254214   4.156  14.552   9.830
50773SOL     OW54215   4.957   0.640   5.759
50773SOL    HW154216   5.013   0.670   5.687
50773SOL    HW254217   4.875   0.615   5.716
50774SOL     OW54218   9.821   9.551   2.743
50774SOL    HW154219   9.817   9.481   2.678
50774SOL    HW254220   9.915   9.567   2.755
50775SOL     OW54221   0.082   3.699  12.183
50775SOL    HW154222   0.072   3.790  12.155
50775SOL    HW254223   0.142   3.703  12.258
50776SOL     OW54224   2.588   6.158  10.221
50776SOL    HW154225   2.532   6.232  10.241
50776SOL    HW254226   2.614   6.171  10.129
50777SOL     OW54227   2.720   9.161  13.351
50777SOL    HW154228   2.716   9.078  13.304
50777SOL    HW254229   2.644   9.158  13.410
50778SOL     OW54230   5.142  10.877   3.232
50778SOL    HW154231   5.049  10.893   3.246
50778SOL    HW254232   5.164  10.930   3.156
50779SOL     OW54233   8.934   2.616   1.345
50779SOL    HW154234   8.995   2.618   1.419
50779SOL    HW254235   8.988   2.642   1.270
50780SOL     OW54236   4.054  13.649  12.952
50780SOL    HW154237   4.096  13.585  13.010
50780SOL    HW254238   4.121  13.667  12.885
50781SOL     OW54239   4.750   2.791   7.901
50781SOL    HW154240   4.784   2.706   7.929
50781SOL    HW254241   4.748   2.843   7.981
50782SOL     OW54242  13.261  10.759  10.639
50782SOL    HW154243  13.325  10.785  10.572
50782SOL    HW254244  13.213  10.687  10.598
50783SOL     OW54245   8.480   1.176  13.218
50783SOL    HW154246   8.453   1.099  13.168
50783SOL    HW254247   8.411   1.188  13.283
50784SOL     OW54248   4.250  12.666  10.101
50784SOL    HW154249   4.333  12.626  10.076
50784SOL    HW254250   4.186  12.596  10.092
50785SOL     OW54251   9.258   0.194   4.003
50785SOL    HW154252   9.303   0.112   4.023
50785SOL    HW254253   9.165   0.172   4.004
50786SOL     OW54254   3.100  12.790  13.862
50786SOL    HW154255   3.007  12.771  13.845
50786SOL    HW254256   3.146  12.711  13.834
50787SOL     OW54257   7.661   5.242  12.814
50787SOL    HW154258   7.704   5.316  12.857
50787SOL    HW254259   7.632   5.276  12.729
50788SOL     OW54260   2.128  12.625  11.382
50788SOL    HW154261   2.065  12.575  11.331
50788SOL    HW254262   2.175  12.678  11.318
50789SOL     OW54263   5.119   8.003   4.352
50789SOL    HW154264   5.112   8.000   4.448
50789SOL    HW254265   5.211   8.023   4.336
50790SOL     OW54266   4.449   6.963   0.938
50790SOL    HW154267   4.450   7.008   0.854
50790SOL    HW254268   4.405   6.880   0.921
50791SOL     OW54269   2.468  14.610   9.051
50791SOL    HW154270   2.436  14.544   9.113
50791SOL    HW254271   2.551  14.575   9.019
50792SOL     OW54272  12.414  13.582   4.541
50792SOL    HW154273  12.487  13.618   4.490
50792SOL    HW254274  12.457  13.527   4.607
50793SOL     OW54275   1.299   2.430   9.522
50793SOL    HW154276   1.387   2.441   9.486
50793SOL    HW254277   1.249   2.391   9.450
50794SOL     OW54278   2.226   7.009   5.387
50794SOL    HW154279   2.240   7.093   5.344
50794SOL    HW254280   2.296   6.953   5.353
50795SOL     OW54281   3.973   3.386   5.375
50795SOL    HW154282   3.944   3.414   5.288
50795SOL    HW254283   3.913   3.316   5.400
50796SOL     OW54284   6.485   7.678  14.739
50796SOL    HW154285   6.498   7.592  14.780
50796SOL    HW254286   6.509   7.741  14.807
50797SOL     OW54287   7.075  12.929  14.495
50797SOL    HW154288   7.010  12.864  14.519
50797SOL    HW254289   7.053  13.006  14.546
50798SOL     OW54290   2.662  10.437   7.451
50798SOL    HW154291   2.681  10.510   7.392
50798SOL    HW254292   2.598  10.384   7.404
50799SOL     OW54293   2.266   8.799  14.226
50799SOL    HW154294   2.359   8.821  14.229
50799SOL    HW254295   2.222   8.883  14.211
50800SOL     OW54296   2.512   8.910  14.196
50800SOL    HW154297   2.522   8.900  14.290
50800SOL    HW254298   2.471   8.996  14.186
50801SOL     OW54299   5.564  13.937  13.660
50801SOL    HW154300   5.559  13.945  13.565
50801SOL    HW254301   5.638  13.878  13.676
50802SOL     OW54302   3.440   7.262   7.220
50802SOL    HW154303   3.374   7.316   7.262
50802SOL    HW254304   3.406   7.248   7.131
50803SOL     OW54305   7.485   7.390   5.482
50803SOL    HW154306   7.528   7.330   5.422
50803SOL    HW254307   7.463   7.466   5.429
50804SOL     OW54308   9.615  13.744  12.802
50804SOL    HW154309   9.587  13.701  12.721
50804SOL    HW254310   9.643  13.673  12.859
50805SOL     OW54311  11.802   6.030  14.455
50805SOL    HW154312  11.818   6.116  14.495
50805SOL    HW254313  11.884   5.982  14.468
50806SOL     OW54314   2.843   6.597  11.733
50806SOL    HW154315   2.918   6.587  11.673
50806SOL    HW254316   2.870   6.666  11.794
50807SOL     OW54317  13.925  14.187   0.560
50807SOL    HW154318  13.852  14.235   0.599
50807SOL    HW254319  13.925  14.103   0.605
50808SOL     OW54320   7.900  10.324   2.709
50808SOL    HW154321   7.987  10.306   2.744
50808SOL    HW254322   7.913  10.399   2.651
50809SOL     OW54323   3.251  11.515   4.293
50809SOL    HW154324   3.157  11.523   4.305
50809SOL    HW254325   3.278  11.598   4.254
50810SOL     OW54326   5.784  11.151  12.338
50810SOL    HW154327   5.760  11.058  12.341
50810SOL    HW254328   5.771  11.181  12.428
50811SOL     OW54329   0.523   0.699   0.234
50811SOL    HW154330   0.580   0.730   0.304
50811SOL    HW254331   0.529   0.603   0.239
50812SOL     OW54332   3.275  13.462   8.323
50812SOL    HW154333   3.217  13.495   8.392
50812SOL    HW254334   3.356  13.510   8.335
50813SOL     OW54335   4.440   1.334  10.096
50813SOL    HW154336   4.425   1.395  10.023
50813SOL    HW254337   4.471   1.390  10.168
50814SOL     OW54338   8.482   3.626   4.204
50814SOL    HW154339   8.401   3.666   4.172
50814SOL    HW254340   8.474   3.628   4.299
50815SOL     OW54341   6.328   4.569   5.105
50815SOL    HW154342   6.329   4.664   5.098
50815SOL    HW254343   6.248   4.542   5.061
50816SOL     OW54344   7.957  12.148   3.779
50816SOL    HW154345   7.940  12.081   3.845
50816SOL    HW254346   8.051  12.142   3.762
50817SOL     OW54347   3.976  11.831   4.547
50817SOL    HW154348   3.964  11.860   4.456
50817SOL    HW254349   3.894  11.856   4.590
50818SOL     OW54350   8.299  13.615  13.470
50818SOL    HW154351   8.251  13.533  13.483
50818SOL    HW254352   8.383  13.601  13.513
50819SOL     OW54353   0.560  13.037   6.505
50819SOL    HW154354   0.610  13.098   6.559
50819SOL    HW254355   0.501  13.092   6.454
50820SOL     OW54356   3.962   2.882   8.267
50820SOL    HW154357   3.997   2.800   8.232
50820SOL    HW254358   3.993   2.949   8.206
50821SOL     OW54359   9.606  11.436   2.962
50821SOL    HW154360   9.667  11.486   3.016
50821SOL    HW254361   9.652  11.353   2.947
50822SOL     OW54362  12.880  12.507   3.911
50822SOL    HW154363  12.944  12.570   3.945
50822SOL    HW254364  12.825  12.487   3.987
50823SOL     OW54365   1.245   5.293  14.486
50823SOL    HW154366   1.252   5.388  14.478
50823SOL    HW254367   1.333   5.261  14.466
50824SOL     OW54368   5.670   7.990   5.543
50824SOL    HW154369   5.644   7.952   5.626
50824SOL    HW254370   5.657   7.920   5.479
50825SOL     OW54371   8.920  10.169  11.951
50825SOL    HW154372   8.911  10.224  11.873
50825SOL    HW254373   8.830  10.153  11.980
50826SOL     OW54374  13.421   6.293   8.397
50826SOL    HW154375  13.497   6.310   8.341
50826SOL    HW254376  13.426   6.360   8.465
50827SOL     OW54377   6.345   6.398   9.650
50827SOL    HW154378   6.395   6.374   9.572
50827SOL    HW254379   6.369   6.331   9.715
50828SOL     OW54380   9.521   6.401   9.190
50828SOL    HW154381   9.593   6.457   9.219
50828SOL    HW254382   9.510   6.422   9.098
50829SOL     OW54383  12.929  11.843  12.926
50829SOL    HW154384  12.900  11.893  12.849
50829SOL    HW254385  13.001  11.893  12.962
50830SOL     OW54386   6.016   2.116   9.846
50830SOL    HW154387   6.095   2.071   9.875
50830SOL    HW254388   5.967   2.134   9.927
50831SOL     OW54389   9.877   2.686   7.504
50831SOL    HW154390   9.867   2.621   7.434
50831SOL    HW254391   9.968   2.714   7.497
50832SOL     OW54392   6.234   4.674   9.258
50832SOL    HW154393   6.159   4.733   9.267
50832SOL    HW254394   6.290   4.696   9.332
50833SOL     OW54395  10.791  11.712   4.560
50833SOL    HW154396  10.850  11.640   4.583
50833SOL    HW254397  10.780  11.704   4.465
50834SOL     OW54398  14.241  10.725   4.685
50834SOL    HW154399  14.255  10.740   4.592
50834SOL    HW254400  14.147  10.705   4.693
50835SOL     OW54401  12.609   1.900  14.832
50835SOL    HW154402  12.700   1.927  14.822
50835SOL    HW254403  12.597   1.830  14.768
50836SOL     OW54404  13.747  11.629  14.163
50836SOL    HW154405  13.803  11.564  14.119
50836SOL    HW254406  13.681  11.651  14.097
50837SOL     OW54407   7.858  13.828  12.086
50837SOL    HW154408   7.930  13.891  12.093
50837SOL    HW254409   7.781  13.875  12.117
50838SOL     OW54410   9.007   7.499   4.937
50838SOL    HW154411   9.077   7.542   4.985
50838SOL    HW254412   9.053   7.439   4.877
50839SOL     OW54413  10.855   4.512   1.153
50839SOL    HW154414  10.912   4.549   1.085
50839SOL    HW254415  10.899   4.432   1.180
50840SOL     OW54416  10.404   5.528   1.072
50840SOL    HW154417  10.465   5.545   1.144
50840SOL    HW254418  10.329   5.585   1.090
50841SOL     OW54419   6.953   7.118  13.272
50841SOL    HW154420   6.957   7.073  13.357
50841SOL    HW254421   6.968   7.049  13.208
50842SOL     OW54422   9.493   7.654   1.065
50842SOL    HW154423   9.578   7.698   1.057
50842SOL    HW254424   9.479   7.644   1.159
50843SOL     OW54425   6.949  11.054  10.813
50843SOL    HW154426   6.964  11.147  10.799
50843SOL    HW254427   6.962  11.041  10.907
50844SOL     OW54428   2.968   8.420  12.292
50844SOL    HW154429   2.972   8.512  12.265
50844SOL    HW254430   3.058   8.400  12.320
50845SOL     OW54431   9.057   8.596   7.965
50845SOL    HW154432   9.086   8.590   7.874
50845SOL    HW254433   8.975   8.546   7.967
50846SOL     OW54434  12.522   8.422   1.495
50846SOL    HW154435  12.428   8.434   1.483
50846SOL    HW254436  12.562   8.500   1.455
50847SOL     OW54437   5.297  10.407   4.628
50847SOL    HW154438   5.227  10.342   4.621
50847SOL    HW254439   5.375  10.356   4.649
50848SOL     OW54440   3.931   9.419   3.177
50848SOL    HW154441   4.015   9.375   3.193
50848SOL    HW254442   3.882   9.406   3.258
50849SOL     OW54443   5.616   7.110   2.360
50849SOL    HW154444   5.702   7.083   2.326
50849SOL    HW254445   5.588   7.180   2.300
50850SOL     OW54446  12.603  13.319   3.002
50850SOL    HW154447  12.676  13.308   3.063
50850SOL    HW254448  12.611  13.409   2.972
50851SOL     OW54449  11.754   8.563   2.113
50851SOL    HW154450  11.686   8.629   2.102
50851SOL    HW254451  11.740   8.527   2.200
50852SOL     OW54452   3.395   3.698   2.907
50852SOL    HW154453   3.318   3.642   2.892
50852SOL    HW254454   3.368   3.756   2.978
50853SOL     OW54455   7.895   2.677   7.547
50853SOL    HW154456   7.807   2.643   7.563
50853SOL    HW254457   7.911   2.736   7.620
50854SOL     OW54458   7.400   2.904   1.638
50854SOL    HW154459   7.485   2.937   1.669
50854SOL    HW254460   7.354   2.982   1.608
50855SOL     OW54461   1.567  10.916  12.096
50855SOL    HW154462   1.539  10.934  12.185
50855SOL    HW254463   1.643  10.972  12.083
50856SOL     OW54464   0.473   3.698   5.837
50856SOL    HW154465   0.416   3.715   5.912
50856SOL    HW254466   0.424   3.636   5.783
50857SOL     OW54467   3.598  12.566   8.713
50857SOL    HW154468   3.597  12.519   8.630
50857SOL    HW254469   3.578  12.656   8.690
50858SOL     OW54470   2.954   3.024  12.853
50858SOL    HW154471   3.005   2.946  12.831
50858SOL    HW254472   3.019   3.092  12.869
50859SOL     OW54473   3.143   0.292   2.583
50859SOL    HW154474   3.051   0.319   2.585
50859SOL    HW254475   3.151   0.240   2.503
50860SOL     OW54476   8.138  12.377   6.941
50860SOL    HW154477   8.177  12.434   7.007
50860SOL    HW254478   8.067  12.429   6.903
50861SOL     OW54479  11.091  11.856   4.885
50861SOL    HW154480  11.052  11.923   4.828
50861SOL    HW254481  11.051  11.774   4.855
50862SOL     OW54482   5.792   0.340   2.006
50862SOL    HW154483   5.855   0.277   1.971
50862SOL    HW254484   5.718   0.286   2.033
50863SOL     OW54485   7.401   1.600   4.997
50863SOL    HW154486   7.315   1.640   5.009
50863SOL    HW254487   7.462   1.666   5.030
50864SOL     OW54488   8.220   5.980  13.314
50864SOL    HW154489   8.213   5.885  13.322
50864SOL    HW254490   8.285   5.994  13.245
50865SOL     OW54491  11.397   3.568   2.910
50865SOL    HW154492  11.387   3.473   2.911
50865SOL    HW254493  11.436   3.587   2.825
50866SOL     OW54494   8.272  12.087  13.589
50866SOL    HW154495   8.338  12.138  13.636
50866SOL    HW254496   8.289  12.106  13.497
50867SOL     OW54497   9.772   1.602  11.598
50867SOL    HW154498   9.765   1.508  11.581
50867SOL    HW254499   9.772   1.609  11.694
50868SOL     OW54500   1.967   6.986  11.693
50868SOL    HW154501   1.872   6.997  11.694
50868SOL    HW254502   2.000   7.062  11.742
50869SOL     OW54503   0.094   3.187  12.111
50869SOL    HW154504   0.052   3.263  12.150
50869SOL    HW254505   0.188   3.208  12.113
50870SOL     OW54506  10.915   5.921  14.455
50870SOL    HW154507  10.821   5.935  14.443
50870SOL    HW254508  10.932   5.944  14.546
50871SOL     OW54509   4.893   5.937   4.798
50871SOL    HW154510   4.820   5.905   4.746
50871SOL    HW254511   4.867   6.024   4.827
50872SOL     OW54512  12.421   5.173  10.276
50872SOL    HW154513  12.465   5.256  10.260
50872SOL    HW254514  12.386   5.147  10.190
50873SOL     OW54515   5.098  14.300   0.601
50873SOL    HW154516   5.040  14.235   0.641
50873SOL    HW254517   5.040  14.370   0.573
50874SOL     OW54518   8.575   0.497   7.838
50874SOL    HW154519   8.528   0.430   7.888
50874SOL    HW254520   8.579   0.462   7.749
50875SOL     OW54521  12.298  13.948  10.750
50875SOL    HW154522  12.316  13.863  10.709
50875SOL    HW254523  12.294  14.010  10.677
50876SOL     OW54524   2.038   3.258  10.124
50876SOL    HW154525   2.129   3.282  10.106
50876SOL    HW254526   2.044   3.184  10.185
50877SOL     OW54527   7.631   5.399   0.815
50877SOL    HW154528   7.555   5.343   0.832
50877SOL    HW254529   7.632   5.408   0.719
50878SOL     OW54530   5.284   2.313   0.005
50878SOL    HW154531   5.249   2.402   0.014
50878SOL    HW254532   5.288   2.298  14.793
50879SOL     OW54533   5.227   5.731   7.984
50879SOL    HW154534   5.147   5.679   7.989
50879SOL    HW254535   5.228   5.765   7.895
50880SOL     OW54536  14.735  14.679   2.201
50880SOL    HW154537  14.823  14.698   2.235
50880SOL    HW254538  14.726  14.736   2.125
50881SOL     OW54539  10.824   9.234   3.584
50881SOL    HW154540  10.751   9.173   3.574
50881SOL    HW254541  10.854   9.251   3.495
50882SOL     OW54542   3.197  12.505   3.329
50882SOL    HW154543   3.118  12.475   3.284
50882SOL    HW254544   3.268  12.456   3.287
50883SOL     OW54545  10.462   2.177   4.740
50883SOL    HW154546  10.535   2.122   4.709
50883SOL    HW254547  10.404   2.184   4.664
50884SOL     OW54548  13.274  14.221  11.210
50884SOL    HW154549  13.196  14.210  11.263
50884SOL    HW254550  13.310  14.133  11.199
50885SOL     OW54551   4.627   3.951  11.500
50885SOL    HW154552   4.536   3.960  11.473
50885SOL    HW254553   4.668   4.033  11.473
50886SOL     OW54554   3.529  11.021   0.729
50886SOL    HW154555   3.609  11.037   0.781
50886SOL    HW254556   3.486  11.107   0.727
50887SOL     OW54557   1.355  10.613   5.265
50887SOL    HW154558   1.279  10.633   5.319
50887SOL    HW254559   1.319  10.589   5.180
50888SOL     OW54560  11.681   7.170   8.756
50888SOL    HW154561  11.711   7.217   8.679
50888SOL    HW254562  11.725   7.213   8.829
50889SOL     OW54563  13.765  13.208   9.220
50889SOL    HW154564  13.710  13.142   9.264
50889SOL    HW254565  13.821  13.242   9.290
50890SOL     OW54566   9.502  11.007   4.992
50890SOL    HW154567   9.525  10.989   5.084
50890SOL    HW254568   9.440  10.937   4.970
50891SOL     OW54569  12.208   6.844   9.235
50891SOL    HW154570  12.199   6.873   9.326
50891SOL    HW254571  12.151   6.767   9.230
50892SOL     OW54572   8.711   9.773   7.737
50892SOL    HW154573   8.800   9.787   7.703
50892SOL    HW254574   8.722   9.767   7.832
50893SOL     OW54575   0.213  14.317   6.393
50893SOL    HW154576   0.180  14.248   6.450
50893SOL    HW254577   0.295  14.282   6.358
50894SOL     OW54578   3.881   1.610  13.912
50894SOL    HW154579   3.822   1.543  13.880
50894SOL    HW254580   3.955   1.562  13.949
50895SOL     OW54581   4.336   6.536   8.509
50895SOL    HW154582   4.305   6.625   8.491
50895SOL    HW254583   4.257   6.482   8.506
50896SOL     OW54584   1.738   1.983   4.850
50896SOL    HW154585   1.811   1.923   4.865
50896SOL    HW254586   1.732   1.991   4.755
50897SOL     OW54587   2.833  13.506   3.925
50897SOL    HW154588   2.924  13.536   3.929
50897SOL    HW254589   2.801  13.515   4.014
50898SOL     OW54590  11.686   3.440   2.035
50898SOL    HW154591  11.591   3.439   2.019
50898SOL    HW254592  11.696   3.484   2.119
50899SOL     OW54593   6.007   2.274   4.898
50899SOL    HW154594   5.962   2.251   4.980
50899SOL    HW254595   5.937   2.300   4.838
50900SOL     OW54596   7.667   1.130   2.214
50900SOL    HW154597   7.684   1.040   2.188
50900SOL    HW254598   7.618   1.123   2.296
50901SOL     OW54599  10.157  10.031   2.462
50901SOL    HW154600  10.141   9.985   2.544
50901SOL    HW254601  10.214   9.972   2.413
50902SOL     OW54602  11.362   7.054   2.377
50902SOL    HW154603  11.320   7.140   2.382
50902SOL    HW254604  11.403   7.041   2.463
50903SOL     OW54605  11.304   0.560  13.484
50903SOL    HW154606  11.352   0.481  13.457
50903SOL    HW254607  11.236   0.527  13.543
50904SOL     OW54608   4.405   4.468   9.403
50904SOL    HW154609   4.461   4.479   9.327
50904SOL    HW254610   4.340   4.538   9.395
50905SOL     OW54611  10.683   6.315  10.120
50905SOL    HW154612  10.767   6.276  10.093
50905SOL    HW254613  10.702   6.409  10.128
50906SOL     OW54614   7.436  13.389  13.891
50906SOL    HW154615   7.437  13.417  13.799
50906SOL    HW254616   7.367  13.442  13.931
50907SOL     OW54617   8.973  12.604  13.415
50907SOL    HW154618   8.946  12.688  13.376
50907SOL    HW254619   8.890  12.559  13.432
50908SOL     OW54620  14.444   0.373  12.632
50908SOL    HW154621  14.523   0.423  12.610
50908SOL    HW254622  14.427   0.396  12.724
50909SOL     OW54623   3.926   4.839   1.352
50909SOL    HW154624   3.972   4.786   1.288
50909SOL    HW254625   3.923   4.785   1.431
50910SOL     OW54626  12.442   9.240  13.705
50910SOL    HW154627  12.508   9.171  13.698
50910SOL    HW254628  12.449   9.288  13.622
50911SOL     OW54629   2.837  11.523   8.800
50911SOL    HW154630   2.753  11.562   8.826
50911SOL    HW254631   2.839  11.530   8.705
50912SOL     OW54632   2.866   1.499  10.236
50912SOL    HW154633   2.806   1.569  10.208
50912SOL    HW254634   2.892   1.456  10.154
50913SOL     OW54635   9.774  10.992   7.702
50913SOL    HW154636   9.733  10.994   7.788
50913SOL    HW254637   9.799  11.082   7.684
50914SOL     OW54638   2.014  14.473   2.063
50914SOL    HW154639   2.061  14.411   2.119
50914SOL    HW254640   1.934  14.493   2.111
50915SOL     OW54641  11.287   6.340   6.891
50915SOL    HW154642  11.338   6.262   6.913
50915SOL    HW254643  11.252   6.322   6.804
50916SOL     OW54644   1.251   1.207   4.317
50916SOL    HW154645   1.227   1.243   4.232
50916SOL    HW254646   1.344   1.226   4.325
50917SOL     OW54647   1.919   6.196   8.557
50917SOL    HW154648   1.832   6.160   8.576
50917SOL    HW254649   1.914   6.223   8.465
50918SOL     OW54650  12.074   9.930   9.642
50918SOL    HW154651  12.105   9.972   9.562
50918SOL    HW254652  12.082   9.836   9.625
50919SOL     OW54653  12.847   0.618  10.845
50919SOL    HW154654  12.766   0.658  10.875
50919SOL    HW254655  12.916   0.664  10.893
50920SOL     OW54656   6.751   6.538   6.380
50920SOL    HW154657   6.782   6.544   6.290
50920SOL    HW254658   6.659   6.513   6.372
50921SOL     OW54659   3.601   7.669  10.219
50921SOL    HW154660   3.539   7.619  10.166
50921SOL    HW254661   3.590   7.760  10.190
50922SOL     OW54662   4.721   4.884   3.687
50922SOL    HW154663   4.772   4.954   3.646
50922SOL    HW254664   4.786   4.825   3.723
50923SOL     OW54665   7.947   2.962   1.505
50923SOL    HW154666   8.017   2.911   1.545
50923SOL    HW254667   7.906   2.902   1.442
50924SOL     OW54668   1.482   6.635  12.965
50924SOL    HW154669   1.387   6.647  12.958
50924SOL    HW254670   1.497   6.611  13.056
50925SOL     OW54671   3.224   4.803   0.986
50925SOL    HW154672   3.319   4.799   0.982
50925SOL    HW254673   3.200   4.744   1.057
50926SOL     OW54674  12.351  12.873  12.738
50926SOL    HW154675  12.303  12.841  12.815
50926SOL    HW254676  12.442  12.847  12.755
50927SOL     OW54677  12.908  12.355   8.002
50927SOL    HW154678  12.948  12.395   7.925
50927SOL    HW254679  12.926  12.261   7.992
50928SOL     OW54680  11.947  11.652  11.734
50928SOL    HW154681  11.890  11.724  11.762
50928SOL    HW254682  11.891  11.594  11.685
50929SOL     OW54683   2.897  10.313   9.593
50929SOL    HW154684   2.920  10.304   9.686
50929SOL    HW254685   2.977  10.294   9.546
50930SOL     OW54686   4.694   4.270   1.116
50930SOL    HW154687   4.635   4.259   1.191
50930SOL    HW254688   4.639   4.255   1.040
50931SOL     OW54689  11.467  13.257  10.911
50931SOL    HW154690  11.447  13.203  10.835
50931SOL    HW254691  11.449  13.347  10.882
50932SOL     OW54692  11.548   0.710   5.981
50932SOL    HW154693  11.484   0.649   5.944
50932SOL    HW254694  11.633   0.677   5.952
50933SOL     OW54695  13.871  14.187   0.865
50933SOL    HW154696  13.929  14.255   0.900
50933SOL    HW254697  13.858  14.127   0.939
50934SOL     OW54698  11.215  14.641   3.550
50934SOL    HW154699  11.279  14.662   3.482
50934SOL    HW254700  11.150  14.586   3.506
50935SOL     OW54701   1.780  10.440   3.076
50935SOL    HW154702   1.844  10.471   3.140
50935SOL    HW254703   1.698  10.482   3.102
50936SOL     OW54704  13.100   1.632   5.946
50936SOL    HW154705  13.178   1.635   5.891
50936SOL    HW254706  13.087   1.722   5.974
50937SOL     OW54707   0.285   2.342   9.808
50937SOL    HW154708   0.371   2.362   9.770
50937SOL    HW254709   0.230   2.415   9.781
50938SOL     OW54710   9.485   7.652   1.346
50938SOL    HW154711   9.498   7.734   1.393
50938SOL    HW254712   9.565   7.602   1.360
50939SOL     OW54713  12.679  10.092  12.305
50939SOL    HW154714  12.684  10.034  12.380
50939SOL    HW254715  12.677  10.034  12.229
50940SOL     OW54716  10.619   5.986   2.356
50940SOL    HW154717  10.706   5.995   2.395
50940SOL    HW254718  10.616   6.053   2.288
50941SOL     OW54719   2.568   3.286   5.610
50941SOL    HW154720   2.622   3.295   5.532
50941SOL    HW254721   2.624   3.317   5.682
50942SOL     OW54722   4.425   0.341   1.061
50942SOL    HW154723   4.425   0.245   1.069
50942SOL    HW254724   4.335   0.362   1.034
50943SOL     OW54725   2.330   9.218  11.602
50943SOL    HW154726   2.240   9.204  11.573
50943SOL    HW254727   2.383   9.199  11.524
50944SOL     OW54728  14.504   6.800   2.224
50944SOL    HW154729  14.545   6.866   2.280
50944SOL    HW254730  14.419   6.783   2.264
50945SOL     OW54731   0.104  12.630   9.058
50945SOL    HW154732   0.046  12.703   9.079
50945SOL    HW254733   0.184  12.647   9.107
50946SOL     OW54734   9.814   8.803   9.607
50946SOL    HW154735   9.722   8.785   9.588
50946SOL    HW254736   9.849   8.837   9.525
50947SOL     OW54737   0.733   3.717   5.754
50947SOL    HW154738   0.640   3.722   5.774
50947SOL    HW254739   0.746   3.627   5.723
50948SOL     OW54740  13.222   1.564   9.548
50948SOL    HW154741  13.301   1.610   9.522
50948SOL    HW254742  13.213   1.581   9.642
50949SOL     OW54743  11.364  14.526   7.848
50949SOL    HW154744  11.382  14.543   7.941
50949SOL    HW254745  11.443  14.556   7.803
50950SOL     OW54746   1.500  11.051   0.244
50950SOL    HW154747   1.531  10.965   0.272
50950SOL    HW254748   1.544  11.113   0.302
50951SOL     OW54749   6.644   2.378   7.637
50951SOL    HW154750   6.650   2.316   7.564
50951SOL    HW254751   6.714   2.351   7.697
50952SOL     OW54752   3.872  13.070  14.331
50952SOL    HW154753   3.796  13.036  14.284
50952SOL    HW254754   3.868  13.026  14.416
50953SOL     OW54755   2.828   4.536   7.587
50953SOL    HW154756   2.758   4.586   7.546
50953SOL    HW254757   2.820   4.448   7.550
50954SOL     OW54758  13.740   1.337   5.093
50954SOL    HW154759  13.828   1.332   5.056
50954SOL    HW254760  13.747   1.400   5.164
50955SOL     OW54761  10.204   2.755   8.352
50955SOL    HW154762  10.201   2.661   8.336
50955SOL    HW254763  10.242   2.792   8.273
50956SOL     OW54764   2.848   2.667   3.735
50956SOL    HW154765   2.897   2.744   3.705
50956SOL    HW254766   2.846   2.676   3.831
50957SOL     OW54767   2.744   5.755   8.643
50957SOL    HW154768   2.814   5.786   8.586
50957SOL    HW254769   2.668   5.745   8.585
50958SOL     OW54770  12.340  13.618   6.747
50958SOL    HW154771  12.420  13.665   6.723
50958SOL    HW254772  12.331  13.634   6.841
50959SOL     OW54773   5.788   3.164   5.926
50959SOL    HW154774   5.704   3.142   5.966
50959SOL    HW254775   5.851   3.156   5.997
50960SOL     OW54776   5.826   4.963   4.081
50960SOL    HW154777   5.857   5.054   4.078
50960SOL    HW254778   5.861   4.929   4.164
50961SOL     OW54779   5.306   1.207   9.151
50961SOL    HW154780   5.382   1.211   9.094
50961SOL    HW254781   5.343   1.201   9.240
50962SOL     OW54782   5.413  10.719   6.140
50962SOL    HW154783   5.341  10.774   6.108
50962SOL    HW254784   5.384  10.629   6.122
50963SOL     OW54785  10.288   0.134   4.963
50963SOL    HW154786  10.336   0.215   4.949
50963SOL    HW254787  10.325   0.073   4.899
50964SOL     OW54788   7.683   6.880   0.454
50964SOL    HW154789   7.679   6.949   0.520
50964SOL    HW254790   7.699   6.800   0.504
50965SOL     OW54791   9.817  13.508  13.860
50965SOL    HW154792   9.837  13.444  13.792
50965SOL    HW254793   9.721  13.516  13.857
50966SOL     OW54794   0.301  12.373  13.242
50966SOL    HW154795   0.310  12.310  13.313
50966SOL    HW254796   0.214  12.355  13.206
50967SOL     OW54797   5.684   5.368  12.443
50967SOL    HW154798   5.685   5.426  12.368
50967SOL    HW254799   5.776   5.346  12.459
50968SOL     OW54800   1.839   5.064   2.716
50968SOL    HW154801   1.829   4.999   2.647
50968SOL    HW254802   1.856   5.146   2.670
50969SOL     OW54803   7.714   0.850   8.250
50969SOL    HW154804   7.677   0.921   8.303
50969SOL    HW254805   7.760   0.894   8.179
50970SOL     OW54806   2.210   8.834   6.768
50970SOL    HW154807   2.153   8.757   6.773
50970SOL    HW254808   2.288   8.809   6.818
50971SOL     OW54809   3.834   9.603  14.599
50971SOL    HW154810   3.762   9.586  14.538
50971SOL    HW254811   3.824   9.695  14.623
50972SOL     OW54812   5.157   7.843   4.592
50972SOL    HW154813   5.098   7.771   4.615
50972SOL    HW254814   5.244   7.811   4.616
50973SOL     OW54815  10.437  13.986   5.710
50973SOL    HW154816  10.400  14.070   5.740
50973SOL    HW254817  10.378  13.957   5.640
50974SOL     OW54818   1.987   4.755   7.279
50974SOL    HW154819   1.934   4.827   7.315
50974SOL    HW254820   2.072   4.764   7.323
50975SOL     OW54821   4.153   1.800  13.544
50975SOL    HW154822   4.129   1.751  13.622
50975SOL    HW254823   4.245   1.780  13.530
50976SOL     OW54824   2.106   2.097  13.909
50976SOL    HW154825   2.163   2.163  13.869
50976SOL    HW254826   2.127   2.016  13.861
50977SOL     OW54827  10.311   0.603   4.393
50977SOL    HW154828  10.359   0.684   4.408
50977SOL    HW254829  10.219   0.630   4.385
50978SOL     OW54830  14.513   8.929   7.877
50978SOL    HW154831  14.430   8.902   7.914
50978SOL    HW254832  14.534   8.862   7.811
50979SOL     OW54833  11.530   6.019   7.186
50979SOL    HW154834  11.567   5.932   7.202
50979SOL    HW254835  11.468   6.032   7.258
50980SOL     OW54836   4.523  10.164   1.737
50980SOL    HW154837   4.492  10.245   1.698
50980SOL    HW254838   4.509  10.098   1.669
50981SOL     OW54839  10.228   1.085  12.628
50981SOL    HW154840  10.243   1.179  12.614
50981SOL    HW254841  10.314   1.045  12.616
50982SOL     OW54842  10.876  11.399  13.402
50982SOL    HW154843  10.842  11.403  13.491
50982SOL    HW254844  10.933  11.322  13.402
50983SOL     OW54845  10.681   1.951   9.333
50983SOL    HW154846  10.662   2.011   9.405
50983SOL    HW254847  10.774   1.964   9.314
50984SOL     OW54848  13.003   1.150   6.284
50984SOL    HW154849  13.044   1.237   6.280
50984SOL    HW254850  12.930   1.156   6.223
50985SOL     OW54851  10.348   7.587   6.487
50985SOL    HW154852  10.366   7.504   6.442
50985SOL    HW254853  10.434   7.623   6.507
50986SOL     OW54854  12.320  10.279   0.145
50986SOL    HW154855  12.363  10.201   0.180
50986SOL    HW254856  12.231  10.251   0.123
50987SOL     OW54857  10.371   1.265   9.763
50987SOL    HW154858  10.379   1.332   9.695
50987SOL    HW254859  10.379   1.313   9.846
50988SOL     OW54860   7.940  13.459   1.811
50988SOL    HW154861   7.993  13.397   1.761
50988SOL    HW254862   7.949  13.542   1.764
50989SOL     OW54863   7.892  12.320  14.461
50989SOL    HW154864   7.930  12.294  14.377
50989SOL    HW254865   7.922  12.253  14.523
50990SOL     OW54866  12.640   5.168  12.090
50990SOL    HW154867  12.595   5.159  12.173
50990SOL    HW254868  12.621   5.087  12.043
50991SOL     OW54869  10.785   0.328  14.267
50991SOL    HW154870  10.839   0.356  14.193
50991SOL    HW254871  10.739   0.407  14.296
50992SOL     OW54872  14.854  12.202  10.458
50992SOL    HW154873  14.832  12.172  10.369
50992SOL    HW254874  14.772  12.239  10.491
50993SOL     OW54875  12.615   9.402   6.893
50993SOL    HW154876  12.598   9.415   6.986
50993SOL    HW254877  12.663   9.481   6.867
50994SOL     OW54878   4.152   9.790  14.194
50994SOL    HW154879   4.100   9.731  14.139
50994SOL    HW254880   4.153   9.873  14.146
50995SOL     OW54881  12.814   8.605  11.144
50995SOL    HW154882  12.807   8.525  11.197
50995SOL    HW254883  12.903   8.637  11.161
50996SOL     OW54884  14.364   3.959   1.282
50996SOL    HW154885  14.438   4.009   1.316
50996SOL    HW254886  14.298   3.963   1.351
50997SOL     OW54887   2.201   2.250   3.485
50997SOL    HW154888   2.277   2.195   3.503
50997SOL    HW254889   2.179   2.288   3.570
50998SOL     OW54890  11.024   3.637  11.529
50998SOL    HW154891  10.936   3.648  11.492
50998SOL    HW254892  11.083   3.665  11.459
50999SOL     OW54893   6.558   7.290   3.230
50999SOL    HW154894   6.641   7.261   3.268
50999SOL    HW254895   6.523   7.212   3.187
51000SOL     OW54896   7.203   4.963   9.508
51000SOL    HW154897   7.263   5.028   9.546
51000SOL    HW254898   7.256   4.884   9.500
51001SOL     OW54899   3.292   5.162   9.159
51001SOL    HW154900   3.363   5.177   9.096
51001SOL    HW254901   3.220   5.128   9.107
51002SOL     OW54902  14.354   8.325  12.031
51002SOL    HW154903  14.373   8.418  12.044
51002SOL    HW254904  14.440   8.284  12.025
51003SOL     OW54905   4.447  12.948   3.057
51003SOL    HW154906   4.452  12.888   3.131
51003SOL    HW254907   4.538  12.964   3.032
51004SOL     OW54908   7.700   9.177  13.199
51004SOL    HW154909   7.741   9.090  13.199
51004SOL    HW254910   7.772   9.237  13.176
51005SOL     OW54911  11.445  12.992   7.388
51005SOL    HW154912  11.408  13.080   7.379
51005SOL    HW254913  11.518  12.990   7.326
51006SOL     OW54914   8.563  13.662   6.528
51006SOL    HW154915   8.616  13.728   6.483
51006SOL    HW254916   8.479  13.664   6.482
51007SOL     OW54917   9.046   0.958   3.227
51007SOL    HW154918   9.067   0.866   3.212
51007SOL    HW254919   8.969   0.956   3.283
51008SOL     OW54920  14.363  10.426  10.057
51008SOL    HW154921  14.319  10.346  10.087
51008SOL    HW254922  14.326  10.443   9.970
51009SOL     OW54923   9.576  13.626   0.870
51009SOL    HW154924   9.504  13.563   0.874
51009SOL    HW254925   9.623  13.603   0.790
51010SOL     OW54926   3.988   1.986   0.518
51010SOL    HW154927   3.904   2.011   0.556
51010SOL    HW254928   4.052   2.042   0.560
51011SOL     OW54929   3.537   3.942   5.107
51011SOL    HW154930   3.507   3.888   5.181
51011SOL    HW254931   3.462   3.998   5.087
51012SOL     OW54932   7.829  10.575   9.879
51012SOL    HW154933   7.906  10.570   9.936
51012SOL    HW254934   7.834  10.496   9.825
51013SOL     OW54935  12.816   4.071   1.712
51013SOL    HW154936  12.791   4.044   1.623
51013SOL    HW254937  12.740   4.048   1.766
51014SOL     OW54938   1.587  14.636   3.654
51014SOL    HW154939   1.551  14.557   3.614
51014SOL    HW254940   1.537  14.708   3.615
51015SOL     OW54941   0.797   0.619  14.216
51015SOL    HW154942   0.820   0.534  14.179
51015SOL    HW254943   0.753   0.665  14.145
51016SOL     OW54944  10.391  13.213   2.212
51016SOL    HW154945  10.369  13.123   2.236
51016SOL    HW254946  10.455  13.241   2.277
51017SOL     OW54947   7.260   3.186   5.601
51017SOL    HW154948   7.198   3.118   5.575
51017SOL    HW254949   7.346   3.152   5.578
51018SOL     OW54950   7.959   8.338   0.892
51018SOL    HW154951   7.866   8.317   0.883
51018SOL    HW254952   7.961   8.432   0.910
51019SOL     OW54953  11.668   2.855   3.840
51019SOL    HW154954  11.607   2.929   3.838
51019SOL    HW254955  11.618   2.784   3.880
51020SOL     OW54956   7.038   4.786  10.637
51020SOL    HW154957   6.950   4.810  10.665
51020SOL    HW254958   7.025   4.728  10.563
51021SOL     OW54959   2.828   7.422   5.775
51021SOL    HW154960   2.814   7.347   5.717
51021SOL    HW254961   2.746   7.431   5.823
51022SOL     OW54962   5.721   6.584  13.601
51022SOL    HW154963   5.631   6.559  13.585
51022SOL    HW254964   5.772   6.506  13.582
51023SOL     OW54965  12.732  14.330   6.095
51023SOL    HW154966  12.778  14.359   6.016
51023SOL    HW254967  12.690  14.249   6.070
51024SOL     OW54968  11.790  11.812   4.224
51024SOL    HW154969  11.776  11.764   4.306
51024SOL    HW254970  11.755  11.754   4.156
51025SOL     OW54971   0.919   9.458   9.160
51025SOL    HW154972   0.923   9.501   9.245
51025SOL    HW254973   0.933   9.528   9.097
51026SOL     OW54974   3.717   1.530   9.252
51026SOL    HW154975   3.746   1.439   9.244
51026SOL    HW254976   3.731   1.567   9.165
51027SOL     OW54977  10.043  14.816   3.676
51027SOL    HW154978  10.094  14.741   3.644
51027SOL    HW254979  10.091   0.010   3.646
51028SOL     OW54980  13.396   8.728   0.745
51028SOL    HW154981  13.399   8.644   0.698
51028SOL    HW254982  13.483   8.766   0.734
51029SOL     OW54983   0.006   2.411  13.762
51029SOL    HW154984  14.871   2.496  13.722
51029SOL    HW254985  14.829   2.408  13.837
51030SOL     OW54986   5.025   4.215   0.208
51030SOL    HW154987   4.941   4.206   0.253
51030SOL    HW254988   5.042   4.309   0.207
51031SOL     OW54989   1.434  11.331   4.645
51031SOL    HW154990   1.468  11.389   4.713
51031SOL    HW254991   1.509  11.315   4.587
51032SOL     OW54992   9.186   7.441   0.631
51032SOL    HW154993   9.197   7.472   0.721
51032SOL    HW254994   9.249   7.369   0.623
51033SOL     OW54995   1.011   4.359   9.911
51033SOL    HW154996   1.025   4.454   9.910
51033SOL    HW254997   0.960   4.341   9.832
51034SOL     OW54998   8.394  10.999  14.542
51034SOL    HW154999   8.457  11.045  14.486
51034SOL    HW255000   8.320  10.980  14.484
51035SOL     OW55001   3.734  10.075   4.227
51035SOL    HW155002   3.696  10.001   4.179
51035SOL    HW255003   3.711  10.059   4.318
51036SOL     OW55004   3.463   3.408   6.658
51036SOL    HW155005   3.386   3.425   6.712
51036SOL    HW255006   3.460   3.474   6.589
51037SOL     OW55007  13.831  12.725   7.544
51037SOL    HW155008  13.873  12.756   7.624
51037SOL    HW255009  13.837  12.629   7.550
51038SOL     OW55010   0.873   7.889  13.649
51038SOL    HW155011   0.961   7.923  13.665
51038SOL    HW255012   0.832   7.954  13.592
51039SOL     OW55013  12.538   4.960   4.688
51039SOL    HW155014  12.502   4.876   4.716
51039SOL    HW255015  12.472   5.025   4.715
51040SOL     OW55016   6.733   0.795   6.779
51040SOL    HW155017   6.720   0.764   6.689
51040SOL    HW255018   6.799   0.737   6.815
51041SOL     OW55019   9.324   0.779   6.968
51041SOL    HW155020   9.387   0.832   7.017
51041SOL    HW255021   9.261   0.842   6.934
51042SOL     OW55022   4.080  10.219   9.112
51042SOL    HW155023   4.092  10.297   9.057
51042SOL    HW255024   4.074  10.254   9.202
51043SOL     OW55025  10.198   6.603   2.170
51043SOL    HW155026  10.263   6.547   2.128
51043SOL    HW255027  10.235   6.623   2.256
51044SOL     OW55028  11.139   4.751   2.269
51044SOL    HW155029  11.114   4.812   2.200
51044SOL    HW255030  11.061   4.697   2.283
51045SOL     OW55031   6.803  10.261  14.679
51045SOL    HW155032   6.760  10.304  14.605
51045SOL    HW255033   6.804  10.327  14.748
51046SOL     OW55034   5.832  12.139   9.318
51046SOL    HW155035   5.759  12.077   9.325
51046SOL    HW255036   5.846  12.150   9.224
51047SOL     OW55037   9.774   5.603  10.567
51047SOL    HW155038   9.700   5.591  10.626
51047SOL    HW255039   9.747   5.672  10.507
51048SOL     OW55040  14.241   9.428  10.719
51048SOL    HW155041  14.217   9.392  10.634
51048SOL    HW255042  14.336   9.427  10.719
51049SOL     OW55043  10.172   5.269   4.039
51049SOL    HW155044  10.105   5.334   4.017
51049SOL    HW255045  10.139   5.226   4.118
51050SOL     OW55046  10.798   0.832   0.101
51050SOL    HW155047  10.750   0.849   0.182
51050SOL    HW255048  10.761   0.892   0.037
51051SOL     OW55049   4.173   3.148  13.847
51051SOL    HW155050   4.172   3.055  13.825
51051SOL    HW255051   4.257   3.161  13.890
51052SOL     OW55052   7.951  11.870   7.658
51052SOL    HW155053   8.031  11.882   7.607
51052SOL    HW255054   7.918  11.959   7.670
51053SOL     OW55055  13.543   9.866   0.415
51053SOL    HW155056  13.501   9.938   0.463
51053SOL    HW255057  13.637   9.878   0.432
51054SOL     OW55058   2.642   5.685  14.817
51054SOL    HW155059   2.614   5.596  14.795
51054SOL    HW255060   2.723   5.673  14.867
51055SOL     OW55061   3.341  12.482   9.370
51055SOL    HW155062   3.256  12.466   9.409
51055SOL    HW255063   3.328  12.466   9.276
51056SOL     OW55064   5.653   1.170   0.564
51056SOL    HW155065   5.624   1.083   0.591
51056SOL    HW255066   5.648   1.223   0.644
51057SOL     OW55067   9.902   0.512   0.881
51057SOL    HW155068   9.964   0.487   0.812
51057SOL    HW255069   9.823   0.540   0.834
51058SOL     OW55070   7.941   6.124   3.195
51058SOL    HW155071   7.904   6.207   3.223
51058SOL    HW255072   8.027   6.147   3.158
51059SOL     OW55073   7.334  10.838  10.539
51059SOL    HW155074   7.326  10.901  10.611
51059SOL    HW255075   7.248  10.839  10.496
51060SOL     OW55076  10.824  14.393   9.121
51060SOL    HW155077  10.889  14.376   9.190
51060SOL    HW255078  10.766  14.458   9.159
51061SOL     OW55079   1.382  14.194   7.449
51061SOL    HW155080   1.449  14.240   7.499
51061SOL    HW255081   1.343  14.133   7.513
51062SOL     OW55082   9.677   6.984  12.588
51062SOL    HW155083   9.592   6.949  12.559
51062SOL    HW255084   9.668   7.079  12.579
51063SOL     OW55085  12.515  10.178   5.879
51063SOL    HW155086  12.586  10.115   5.865
51063SOL    HW255087  12.459  10.138   5.946
51064SOL     OW55088   4.002   3.362  10.106
51064SOL    HW155089   4.020   3.302  10.179
51064SOL    HW255090   3.980   3.445  10.148
51065SOL     OW55091   6.775   7.918   2.922
51065SOL    HW155092   6.703   7.856   2.937
51065SOL    HW255093   6.853   7.863   2.925
51066SOL     OW55094   2.917   3.385   0.900
51066SOL    HW155095   2.999   3.342   0.878
51066SOL    HW255096   2.941   3.451   0.965
51067SOL     OW55097   0.699   5.514   6.448
51067SOL    HW155098   0.691   5.445   6.382
51067SOL    HW255099   0.755   5.580   6.408
51068SOL     OW55100   6.915   5.200   8.336
51068SOL    HW155101   6.994   5.245   8.364
51068SOL    HW255102   6.885   5.153   8.413
51069SOL     OW55103  13.836   0.025   1.414
51069SOL    HW155104  13.886  14.828   1.432
51069SOL    HW255105  13.792   0.008   1.331
51070SOL     OW55106   4.063   6.577   5.166
51070SOL    HW155107   4.073   6.618   5.252
51070SOL    HW255108   3.970   6.587   5.145
51071SOL     OW55109   4.993  10.774  11.115
51071SOL    HW155110   4.914  10.813  11.079
51071SOL    HW255111   4.981  10.680  11.102
51072SOL     OW55112   9.991   8.214   6.881
51072SOL    HW155113   9.900   8.243   6.871
51072SOL    HW255114  10.001   8.197   6.975
51073SOL     OW55115   9.078   9.482  13.129
51073SOL    HW155116   8.997   9.532  13.134
51073SOL    HW255117   9.131   9.514  13.202
51074SOL     OW55118  10.041   3.045   9.212
51074SOL    HW155119   9.958   3.090   9.197
51074SOL    HW255120  10.066   3.012   9.126
51075SOL     OW55121   3.683  11.058   5.550
51075SOL    HW155122   3.608  11.109   5.579
51075SOL    HW255123   3.645  10.977   5.516
51076SOL     OW55124  13.284  12.331   0.632
51076SOL    HW155125  13.318  12.314   0.720
51076SOL    HW255126  13.360  12.360   0.582
51077SOL     OW55127   6.797  11.013   8.292
51077SOL    HW155128   6.753  10.987   8.373
51077SOL    HW255129   6.741  11.081   8.255
51078SOL     OW55130   0.035  12.879   1.250
51078SOL    HW155131   0.006  12.955   1.300
51078SOL    HW255132   0.122  12.860   1.283
51079SOL     OW55133  10.752   7.719  13.731
51079SOL    HW155134  10.755   7.731  13.636
51079SOL    HW255135  10.661   7.700  13.750
51080SOL     OW55136   4.628  13.587   9.076
51080SOL    HW155137   4.616  13.669   9.124
51080SOL    HW255138   4.552  13.581   9.018
51081SOL     OW55139   2.452   6.502   3.279
51081SOL    HW155140   2.387   6.435   3.263
51081SOL    HW255141   2.515   6.462   3.339
51082SOL     OW55142   4.280  12.369   2.157
51082SOL    HW155143   4.334  12.379   2.079
51082SOL    HW255144   4.295  12.449   2.207
51083SOL     OW55145   8.919   8.260   8.856
51083SOL    HW155146   8.947   8.257   8.764
51083SOL    HW255147   8.923   8.169   8.884
51084SOL     OW55148  13.855  10.628   1.368
51084SOL    HW155149  13.935  10.669   1.399
51084SOL    HW255150  13.805  10.609   1.447
51085SOL     OW55151   8.258  14.861   2.408
51085SOL    HW155152   8.354  14.852   2.409
51085SOL    HW255153   8.242   0.055   2.354
51086SOL     OW55154   5.665   5.958   8.635
51086SOL    HW155155   5.729   5.892   8.663
51086SOL    HW255156   5.586   5.907   8.614
51087SOL     OW55157  13.989   4.368   2.926
51087SOL    HW155158  14.058   4.305   2.911
51087SOL    HW255159  13.925   4.321   2.979
51088SOL     OW55160   0.942  12.451  10.021
51088SOL    HW155161   1.008  12.387  10.049
51088SOL    HW255162   0.894  12.406   9.952
51089SOL     OW55163  13.128   6.927  13.698
51089SOL    HW155164  13.171   6.932  13.783
51089SOL    HW255165  13.040   6.895  13.717
51090SOL     OW55166  12.661  12.363   9.817
51090SOL    HW155167  12.639  12.288   9.761
51090SOL    HW255168  12.576  12.400   9.841
51091SOL     OW55169   1.595   9.672   9.105
51091SOL    HW155170   1.551   9.600   9.059
51091SOL    HW255171   1.563   9.751   9.063
51092SOL     OW55172   9.085   8.590   2.603
51092SOL    HW155173   9.092   8.680   2.571
51092SOL    HW255174   9.129   8.590   2.688
51093SOL     OW55175   2.452   8.250   5.807
51093SOL    HW155176   2.449   8.161   5.842
51093SOL    HW255177   2.373   8.292   5.841
51094SOL     OW55178  10.783  13.731  13.023
51094SOL    HW155179  10.701  13.681  13.026
51094SOL    HW255180  10.833  13.700  13.098
51095SOL     OW55181  10.779   9.458  14.767
51095SOL    HW155182  10.755   9.421  14.682
51095SOL    HW255183  10.788   9.552  14.751
51096SOL     OW55184   5.533   2.254  11.864
51096SOL    HW155185   5.609   2.303  11.892
51096SOL    HW255186   5.542   2.169  11.907
51097SOL     OW55187   7.146   1.079   4.664
51097SOL    HW155188   7.066   1.054   4.619
51097SOL    HW255189   7.122   1.081   4.756
51098SOL     OW55190   7.847   1.208   0.631
51098SOL    HW155191   7.931   1.170   0.606
51098SOL    HW255192   7.851   1.298   0.598
51099SOL     OW55193   8.853  11.232   7.446
51099SOL    HW155194   8.839  11.202   7.356
51099SOL    HW255195   8.880  11.154   7.494
51100SOL     OW55196   9.336   0.033  10.795
51100SOL    HW155197   9.344  14.866  10.713
51100SOL    HW255198   9.250   0.009  10.830
51101SOL     OW55199   2.579  10.465   9.264
51101SOL    HW155200   2.537  10.551   9.256
51101SOL    HW255201   2.519  10.405   9.220
51102SOL     OW55202  11.681  11.232   9.846
51102SOL    HW155203  11.672  11.150   9.895
51102SOL    HW255204  11.769  11.263   9.868
51103SOL     OW55205   4.771  11.277   4.255
51103SOL    HW155206   4.744  11.357   4.302
51103SOL    HW255207   4.689  11.240   4.222
51104SOL     OW55208  11.020  13.524   8.937
51104SOL    HW155209  11.020  13.600   8.996
51104SOL    HW255210  11.040  13.560   8.851
51105SOL     OW55211  11.731   3.497  12.802
51105SOL    HW155212  11.636   3.500  12.791
51105SOL    HW255213  11.762   3.581  12.770
51106SOL     OW55214  14.879   9.921  12.936
51106SOL    HW155215  14.815   9.967  12.990
51106SOL    HW255216   0.064   9.892  12.997
51107SOL     OW55217   8.002   7.408   3.851
51107SOL    HW155218   8.045   7.449   3.776
51107SOL    HW255219   7.942   7.474   3.884
51108SOL     OW55220   5.185  11.854   9.622
51108SOL    HW155221   5.151  11.814   9.542
51108SOL    HW255222   5.280  11.843   9.617
51109SOL     OW55223   5.457   1.941  13.817
51109SOL    HW155224   5.507   2.017  13.786
51109SOL    HW255225   5.418   1.903  13.738
51110SOL     OW55226   0.152  12.778   0.244
51110SOL    HW155227   0.112  12.790   0.158
51110SOL    HW255228   0.246  12.789   0.228
51111SOL     OW55229   9.030  11.241  10.552
51111SOL    HW155230   9.022  11.297  10.630
51111SOL    HW255231   9.065  11.158  10.585
51112SOL     OW55232   5.672  10.672   0.192
51112SOL    HW155233   5.689  10.622   0.113
51112SOL    HW255234   5.656  10.606   0.260
51113SOL     OW55235   1.974   9.334   5.817
51113SOL    HW155236   1.989   9.239   5.823
51113SOL    HW255237   1.907   9.352   5.882
51114SOL     OW55238   2.360   2.301   5.225
51114SOL    HW155239   2.382   2.361   5.295
51114SOL    HW255240   2.264   2.306   5.218
51115SOL     OW55241   2.783   2.179   0.779
51115SOL    HW155242   2.780   2.252   0.841
51115SOL    HW255243   2.745   2.214   0.698
51116SOL     OW55244  14.754   8.259   5.100
51116SOL    HW155245  14.787   8.177   5.063
51116SOL    HW255246  14.830   8.317   5.101
51117SOL     OW55247   3.403  14.404   5.307
51117SOL    HW155248   3.464  14.440   5.370
51117SOL    HW255249   3.454  14.396   5.226
51118SOL     OW55250   3.676   1.068   1.705
51118SOL    HW155251   3.715   0.994   1.751
51118SOL    HW255252   3.584   1.044   1.694
51119SOL     OW55253   6.089   1.075   9.797
51119SOL    HW155254   6.073   1.169   9.808
51119SOL    HW255255   6.004   1.034   9.814
51120SOL     OW55256   0.091   0.991   9.012
51120SOL    HW155257   0.073   1.073   8.968
51120SOL    HW255258   0.152   0.945   8.954
51121SOL     OW55259   0.166  10.440  12.446
51121SOL    HW155260   0.173  10.456  12.540
51121SOL    HW255261   0.075  10.462  12.424
51122SOL     OW55262   5.038   5.336   9.664
51122SOL    HW155263   5.058   5.412   9.609
51122SOL    HW255264   5.111   5.332   9.727
51123SOL     OW55265  12.857  11.359  14.417
51123SOL    HW155266  12.868  11.454  14.405
51123SOL    HW255267  12.767  11.342  14.388
51124SOL     OW55268   2.234   8.302  11.933
51124SOL    HW155269   2.237   8.207  11.942
51124SOL    HW255270   2.143   8.326  11.950
51125SOL     OW55271   0.051   0.321  11.216
51125SOL    HW155272   0.143   0.333  11.194
51125SOL    HW255273   0.042   0.357  11.304
51126SOL     OW55274   8.249  14.272  10.318
51126SOL    HW155275   8.217  14.335  10.383
51126SOL    HW255276   8.171  14.225  10.289
51127SOL     OW55277  11.017  11.135   7.222
51127SOL    HW155278  11.062  11.091   7.295
51127SOL    HW255279  10.992  11.063   7.163
51128SOL     OW55280  11.124  13.373   4.207
51128SOL    HW155281  11.034  13.403   4.220
51128SOL    HW255282  11.177  13.435   4.257
51129SOL     OW55283   3.957  10.020   7.457
51129SOL    HW155284   3.959   9.988   7.367
51129SOL    HW255285   3.881  10.077   7.462
51130SOL     OW55286  14.092   6.274   1.741
51130SOL    HW155287  14.083   6.302   1.650
51130SOL    HW255288  14.021   6.211   1.755
51131SOL     OW55289  10.936   7.548   3.507
51131SOL    HW155290  10.841   7.538   3.515
51131SOL    HW255291  10.950   7.577   3.417
51132SOL     OW55292  12.185  11.869   7.426
51132SOL    HW155293  12.181  11.776   7.403
51132SOL    HW255294  12.265  11.877   7.478
51133SOL     OW55295  13.366   8.908  12.587
51133SOL    HW155296  13.368   8.986  12.531
51133SOL    HW255297  13.415   8.842  12.539
51134SOL     OW55298  11.931   2.185  10.355
51134SOL    HW155299  11.951   2.124  10.426
51134SOL    HW255300  11.872   2.249  10.395
51135SOL     OW55301  13.831   8.140  14.036
51135SOL    HW155302  13.745   8.141  13.994
51135SOL    HW255303  13.829   8.213  14.097
51136SOL     OW55304   8.592   6.740  14.704
51136SOL    HW155305   8.528   6.747  14.633
51136SOL    HW255306   8.676   6.753  14.662
51137SOL     OW55307   3.129   0.634   2.528
51137SOL    HW155308   3.140   0.546   2.492
51137SOL    HW255309   3.203   0.645   2.589
51138SOL     OW55310  10.296  10.503   9.848
51138SOL    HW155311  10.376  10.496   9.900
51138SOL    HW255312  10.293  10.423   9.796
51139SOL     OW55313   2.567  10.300   8.108
51139SOL    HW155314   2.585  10.246   8.032
51139SOL    HW255315   2.653  10.326   8.141
51140SOL     OW55316  10.161  11.619   0.365
51140SOL    HW155317  10.200  11.654   0.285
51140SOL    HW255318  10.093  11.683   0.387
51141SOL     OW55319   6.683   7.032  10.075
51141SOL    HW155320   6.630   6.959  10.043
51141SOL    HW255321   6.632   7.069  10.147
51142SOL     OW55322   0.872   9.613  13.623
51142SOL    HW155323   0.851   9.612  13.717
51142SOL    HW255324   0.904   9.525  13.605
51143SOL     OW55325  10.754   9.066  10.157
51143SOL    HW155326  10.814   8.996  10.132
51143SOL    HW255327  10.712   9.093  10.076
51144SOL     OW55328  13.397   8.565   7.145
51144SOL    HW155329  13.307   8.599   7.139
51144SOL    HW255330  13.434   8.579   7.058
51145SOL     OW55331   3.878  14.872   8.791
51145SOL    HW155332   3.913  14.785   8.810
51145SOL    HW255333   3.902   0.006   8.700
51146SOL     OW55334   4.151   7.496   2.707
51146SOL    HW155335   4.173   7.578   2.752
51146SOL    HW255336   4.179   7.511   2.616
51147SOL     OW55337   1.755  14.802   9.299
51147SOL    HW155338   1.779  14.718   9.338
51147SOL    HW255339   1.689  14.781   9.233
51148SOL     OW55340   0.484  12.650   4.445
51148SOL    HW155341   0.460  12.564   4.412
51148SOL    HW255342   0.473  12.644   4.540
51149SOL     OW55343  10.608   2.771  12.934
51149SOL    HW155344  10.540   2.708  12.911
51149SOL    HW255345  10.681   2.717  12.964
51150SOL     OW55346   5.598  11.977   7.154
51150SOL    HW155347   5.662  11.910   7.130
51150SOL    HW255348   5.650  12.048   7.191
51151SOL     OW55349  14.487   6.773   6.272
51151SOL    HW155350  14.425   6.727   6.216
51151SOL    HW255351  14.550   6.812   6.211
51152SOL     OW55352   2.624   1.845   0.040
51152SOL    HW155353   2.580   1.804  14.848
51152SOL    HW255354   2.618   1.939   0.022
51153SOL     OW55355   0.946  14.673  14.829
51153SOL    HW155356   0.985  14.590  14.859
51153SOL    HW255357   0.910  14.712   0.027
51154SOL     OW55358   1.055   7.069  11.279
51154SOL    HW155359   1.036   6.991  11.226
51154SOL    HW255360   0.969   7.104  11.302
51155SOL     OW55361   7.760   2.881  11.043
51155SOL    HW155362   7.702   2.810  11.070
51155SOL    HW255363   7.801   2.848  10.963
51156SOL     OW55364   7.302  10.805   0.925
51156SOL    HW155365   7.373  10.810   0.990
51156SOL    HW255366   7.346  10.779   0.844
51157SOL     OW55367  13.981   2.183   1.588
51157SOL    HW155368  13.993   2.224   1.503
51157SOL    HW255369  13.904   2.127   1.577
51158SOL     OW55370   9.486  13.276  11.722
51158SOL    HW155371   9.552  13.279  11.652
51158SOL    HW255372   9.476  13.183  11.741
51159SOL     OW55373   5.056   4.767   0.004
51159SOL    HW155374   5.141   4.777  14.844
51159SOL    HW255375   5.075   4.729   0.089
51160SOL     OW55376   3.724   1.899  13.426
51160SOL    HW155377   3.673   1.819  13.436
51160SOL    HW255378   3.684   1.944  13.352
51161SOL     OW55379   5.118   1.441   1.737
51161SOL    HW155380   5.049   1.375   1.739
51161SOL    HW255381   5.187   1.402   1.683
51162SOL     OW55382   8.808   1.179  11.308
51162SOL    HW155383   8.900   1.172  11.283
51162SOL    HW255384   8.777   1.089  11.311
51163SOL     OW55385   3.650   7.440   4.558
51163SOL    HW155386   3.555   7.441   4.545
51163SOL    HW255387   3.683   7.507   4.498
51164SOL     OW55388   0.411   1.959   4.801
51164SOL    HW155389   0.383   1.968   4.892
51164SOL    HW255390   0.494   2.008   4.797
51165SOL     OW55391   4.080   9.026   2.546
51165SOL    HW155392   4.125   8.954   2.590
51165SOL    HW255393   4.151   9.081   2.511
51166SOL     OW55394  10.792   9.867   8.063
51166SOL    HW155395  10.741   9.832   7.991
51166SOL    HW255396  10.731   9.921   8.113
51167SOL     OW55397  10.311   1.131   7.198
51167SOL    HW155398  10.289   1.062   7.135
51167SOL    HW255399  10.405   1.121   7.212
51168SOL     OW55400  10.048   3.912   1.900
51168SOL    HW155401  10.027   3.982   1.839
51168SOL    HW255402  10.138   3.930   1.927
51169SOL     OW55403  13.581   1.738   1.130
51169SOL    HW155404  13.557   1.645   1.131
51169SOL    HW255405  13.676   1.738   1.123
51170SOL     OW55406  14.241  10.912   8.887
51170SOL    HW155407  14.329  10.880   8.865
51170SOL    HW255408  14.255  10.969   8.962
51171SOL     OW55409  12.312   5.487   1.139
51171SOL    HW155410  12.219   5.476   1.159
51171SOL    HW255411  12.315   5.567   1.086
51172SOL     OW55412   9.999   7.359   9.853
51172SOL    HW155413   9.982   7.274   9.812
51172SOL    HW255414   9.971   7.347   9.944
51173SOL     OW55415  11.035   0.570   7.596
51173SOL    HW155416  11.074   0.591   7.681
51173SOL    HW255417  10.945   0.545   7.616
51174SOL     OW55418   7.336   7.528   4.944
51174SOL    HW155419   7.345   7.581   5.024
51174SOL    HW255420   7.425   7.519   4.911
51175SOL     OW55421  14.119   1.362   4.359
51175SOL    HW155422  14.047   1.407   4.314
51175SOL    HW255423  14.152   1.299   4.295
51176SOL     OW55424   5.151   5.211   2.991
51176SOL    HW155425   5.081   5.184   2.932
51176SOL    HW255426   5.216   5.141   2.985
51177SOL     OW55427  12.098   1.148   0.408
51177SOL    HW155428  12.099   1.229   0.458
51177SOL    HW255429  12.111   1.079   0.473
51178SOL     OW55430  10.045   2.373  12.307
51178SOL    HW155431  10.124   2.322  12.289
51178SOL    HW255432  10.067   2.428  12.381
51179SOL     OW55433   5.806  10.830   3.723
51179SOL    HW155434   5.721  10.787   3.727
51179SOL    HW255435   5.833  10.821   3.632
51180SOL     OW55436   5.307   8.886  13.506
51180SOL    HW155437   5.371   8.821  13.478
51180SOL    HW255438   5.291   8.939  13.428
51181SOL     OW55439   0.569  11.247  12.831
51181SOL    HW155440   0.658  11.241  12.865
51181SOL    HW255441   0.566  11.183  12.760
51182SOL     OW55442  10.937   8.319   3.621
51182SOL    HW155443  10.971   8.406   3.602
51182SOL    HW255444  10.954   8.268   3.542
51183SOL     OW55445  12.182   8.419  11.200
51183SOL    HW155446  12.137   8.437  11.283
51183SOL    HW255447  12.134   8.346  11.162
51184SOL     OW55448   9.221  12.423  13.380
51184SOL    HW155449   9.216  12.433  13.285
51184SOL    HW255450   9.150  12.478  13.413
51185SOL     OW55451   4.673   2.515   6.865
51185SOL    HW155452   4.634   2.431   6.889
51185SOL    HW255453   4.599   2.576   6.868
51186SOL     OW55454   1.296  14.369   6.810
51186SOL    HW155455   1.218  14.322   6.781
51186SOL    HW255456   1.317  14.427   6.737
51187SOL     OW55457   0.792   8.015   9.513
51187SOL    HW155458   0.718   8.018   9.573
51187SOL    HW255459   0.788   8.098   9.465
51188SOL     OW55460   4.212   9.846  11.529
51188SOL    HW155461   4.220   9.760  11.488
51188SOL    HW255462   4.284   9.848  11.593
51189SOL     OW55463  11.448  14.746   8.743
51189SOL    HW155464  11.496  14.774   8.821
51189SOL    HW255465  11.491  14.664   8.717
51190SOL     OW55466  11.939   0.560   8.936
51190SOL    HW155467  11.874   0.555   9.007
51190SOL    HW255468  11.896   0.519   8.861
51191SOL     OW55469  10.262  14.191  11.258
51191SOL    HW155470  10.253  14.269  11.312
51191SOL    HW255471  10.173  14.169  11.231
51192SOL     OW55472   5.392  14.025   2.562
51192SOL    HW155473   5.364  13.938   2.589
51192SOL    HW255474   5.483  14.013   2.535
51193SOL     OW55475  13.257  13.863   5.563
51193SOL    HW155476  13.313  13.816   5.624
51193SOL    HW255477  13.203  13.920   5.618
51194SOL     OW55478  14.874   0.975  14.253
51194SOL    HW155479  14.786   1.010  14.241
51194SOL    HW255480  14.869   0.926  14.335
51195SOL     OW55481   0.109   9.343   7.720
51195SOL    HW155482   0.049   9.290   7.668
51195SOL    HW255483   0.053   9.408   7.762
51196SOL     OW55484   5.441   5.303   9.584
51196SOL    HW155485   5.360   5.271   9.622
51196SOL    HW255486   5.510   5.262   9.636
51197SOL     OW55487  14.381  13.380   2.802
51197SOL    HW155488  14.390  13.323   2.725
51197SOL    HW255489  14.451  13.352   2.861
51198SOL     OW55490   0.408  13.361  14.792
51198SOL    HW155491   0.342  13.384  14.727
51198SOL    HW255492   0.438  13.274  14.767
51199SOL     OW55493   1.816  12.628   7.994
51199SOL    HW155494   1.908  12.600   7.992
51199SOL    HW255495   1.766  12.548   7.978
51200SOL     OW55496   6.900   3.117  14.351
51200SOL    HW155497   6.845   3.044  14.379
51200SOL    HW255498   6.868   3.138  14.263
51201SOL     OW55499   6.802  11.683   6.199
51201SOL    HW155500   6.762  11.743   6.136
51201SOL    HW255501   6.887  11.661   6.161
51202SOL     OW55502   5.323   2.700   1.112
51202SOL    HW155503   5.402   2.740   1.076
51202SOL    HW255504   5.285   2.768   1.166
51203SOL     OW55505   8.403   3.273  13.854
51203SOL    HW155506   8.403   3.330  13.777
51203SOL    HW255507   8.454   3.320  13.920
51204SOL     OW55508   4.283   5.093   8.507
51204SOL    HW155509   4.251   5.177   8.474
51204SOL    HW255510   4.205   5.038   8.512
51205SOL     OW55511  11.417   7.444  14.690
51205SOL    HW155512  11.357   7.373  14.668
51205SOL    HW255513  11.438   7.430  14.782
51206SOL     OW55514   3.042   6.586  11.249
51206SOL    HW155515   2.996   6.503  11.236
51206SOL    HW255516   3.132   6.561  11.268
51207SOL     OW55517  10.603   6.421  11.871
51207SOL    HW155518  10.548   6.493  11.903
51207SOL    HW255519  10.641   6.455  11.790
51208SOL     OW55520   9.730  10.953   9.253
51208SOL    HW155521   9.771  10.973   9.169
51208SOL    HW255522   9.637  10.941   9.233
51209SOL     OW55523   2.146  10.562  12.046
51209SOL    HW155524   2.118  10.637  12.098
51209SOL    HW255525   2.090  10.490  12.076
51210SOL     OW55526   7.667  10.304   8.675
51210SOL    HW155527   7.695  10.395   8.689
51210SOL    HW255528   7.608  10.308   8.601
51211SOL     OW55529   6.975   6.645   7.396
51211SOL    HW155530   7.056   6.615   7.437
51211SOL    HW255531   6.923   6.680   7.468
51212SOL     OW55532   2.204   1.090  11.147
51212SOL    HW155533   2.271   1.093  11.079
51212SOL    HW255534   2.185   0.996  11.159
51213SOL     OW55535  10.312   7.824   3.913
51213SOL    HW155536  10.327   7.743   3.864
51213SOL    HW255537  10.312   7.893   3.847
51214SOL     OW55538   1.605   4.175   1.651
51214SOL    HW155539   1.687   4.158   1.605
51214SOL    HW255540   1.547   4.212   1.585
51215SOL     OW55541   5.247   3.114   7.858
51215SOL    HW155542   5.249   3.056   7.781
51215SOL    HW255543   5.218   3.198   7.823
51216SOL     OW55544   7.065  11.181   7.953
51216SOL    HW155545   7.059  11.126   8.032
51216SOL    HW255546   7.034  11.267   7.982
51217SOL     OW55547   8.359   6.241  11.503
51217SOL    HW155548   8.454   6.241  11.492
51217SOL    HW255549   8.341   6.156  11.545
51218SOL     OW55550   2.659  14.372  10.842
51218SOL    HW155551   2.708  14.338  10.767
51218SOL    HW255552   2.697  14.328  10.918
51219SOL     OW55553   7.578   3.753  12.305
51219SOL    HW155554   7.529   3.810  12.365
51219SOL    HW255555   7.561   3.664  12.338
51220SOL     OW55556  13.308   1.028  11.610
51220SOL    HW155557  13.386   0.979  11.635
51220SOL    HW255558  13.305   1.102  11.671
51221SOL     OW55559   3.267   0.626  10.733
51221SOL    HW155560   3.187   0.674  10.713
51221SOL    HW255561   3.326   0.647  10.661
51222SOL     OW55562  12.345   7.853   9.866
51222SOL    HW155563  12.424   7.810   9.898
51222SOL    HW255564  12.321   7.915   9.935
51223SOL     OW55565   1.765   3.555   4.409
51223SOL    HW155566   1.749   3.536   4.501
51223SOL    HW255567   1.784   3.470   4.370
51224SOL     OW55568   3.273   6.525  11.349
51224SOL    HW155569   3.291   6.483  11.433
51224SOL    HW255570   3.354   6.516  11.299
51225SOL     OW55571   2.863  14.853   0.899
51225SOL    HW155572   2.839  14.814   0.815
51225SOL    HW255573   2.786   0.021   0.925
51226SOL     OW55574  12.275  12.829   1.698
51226SOL    HW155575  12.239  12.833   1.609
51226SOL    HW255576  12.323  12.911   1.709
51227SOL     OW55577   1.112  11.138   1.743
51227SOL    HW155578   1.060  11.138   1.824
51227SOL    HW255579   1.163  11.057   1.748
51228SOL     OW55580  13.608  12.082   4.113
51228SOL    HW155581  13.527  12.040   4.142
51228SOL    HW255582  13.657  12.012   4.069
51229SOL     OW55583   2.203   8.387   0.504
51229SOL    HW155584   2.284   8.339   0.521
51229SOL    HW255585   2.141   8.320   0.477
51230SOL     OW55586   8.732   4.437  14.575
51230SOL    HW155587   8.685   4.392  14.504
51230SOL    HW255588   8.670   4.503  14.606
51231SOL     OW55589  13.234  11.477   5.156
51231SOL    HW155590  13.149  11.515   5.175
51231SOL    HW255591  13.295  11.525   5.213
51232SOL     OW55592   1.877  13.134   5.047
51232SOL    HW155593   1.970  13.132   5.026
51232SOL    HW255594   1.842  13.207   4.996
51233SOL     OW55595   3.559   3.305   1.427
51233SOL    HW155596   3.630   3.271   1.373
51233SOL    HW255597   3.577   3.273   1.515
51234SOL     OW55598   5.176   3.518   0.889
51234SOL    HW155599   5.159   3.555   0.975
51234SOL    HW255600   5.108   3.451   0.877
51235SOL     OW55601   1.720   5.459   4.121
51235SOL    HW155602   1.691   5.538   4.075
51235SOL    HW255603   1.696   5.475   4.212
51236SOL     OW55604   2.140  13.537  14.709
51236SOL    HW155605   2.092  13.602  14.658
51236SOL    HW255606   2.126  13.454  14.662
51237SOL     OW55607   6.269  11.490   1.521
51237SOL    HW155608   6.345  11.454   1.477
51237SOL    HW255609   6.304  11.560   1.577
51238SOL     OW55610   9.957   7.948   4.670
51238SOL    HW155611  10.052   7.934   4.674
51238SOL    HW255612   9.930   7.905   4.589
51239SOL     OW55613   8.426  11.651  10.123
51239SOL    HW155614   8.425  11.602  10.040
51239SOL    HW255615   8.504  11.706  10.117
51240SOL     OW55616   3.108  13.011   7.904
51240SOL    HW155617   3.168  12.937   7.910
51240SOL    HW255618   3.057  12.995   7.825
51241SOL     OW55619  12.178   8.656  11.876
51241SOL    HW155620  12.171   8.628  11.967
51241SOL    HW255621  12.203   8.577  11.828
51242SOL     OW55622   1.222   0.437   1.086
51242SOL    HW155623   1.210   0.343   1.077
51242SOL    HW255624   1.156   0.463   1.150
51243SOL     OW55625   2.718   4.007  10.021
51243SOL    HW155626   2.632   3.972   9.997
51243SOL    HW255627   2.758   3.937  10.073
51244SOL     OW55628  11.524   4.960  11.476
51244SOL    HW155629  11.556   5.037  11.428
51244SOL    HW255630  11.464   4.917  11.416
51245SOL     OW55631   3.194   1.861  10.786
51245SOL    HW155632   3.232   1.797  10.726
51245SOL    HW255633   3.263   1.925  10.800
51246SOL     OW55634   4.535   1.815   4.653
51246SOL    HW155635   4.540   1.839   4.560
51246SOL    HW255636   4.444   1.836   4.678
51247SOL     OW55637  11.255   6.698  12.706
51247SOL    HW155638  11.298   6.621  12.668
51247SOL    HW255639  11.169   6.666  12.734
51248SOL     OW55640   7.491   1.275  10.782
51248SOL    HW155641   7.571   1.328  10.789
51248SOL    HW255642   7.518   1.197  10.734
51249SOL     OW55643  11.610   4.500  14.138
51249SOL    HW155644  11.627   4.499  14.232
51249SOL    HW255645  11.548   4.429  14.123
51250SOL     OW55646   4.759   7.216  11.463
51250SOL    HW155647   4.720   7.152  11.403
51250SOL    HW255648   4.782   7.290  11.408
51251SOL     OW55649   5.103  14.779   9.703
51251SOL    HW155650   5.172  14.731   9.748
51251SOL    HW255651   5.149  14.851   9.658
51252SOL     OW55652   1.836   5.142  11.486
51252SOL    HW155653   1.817   5.103  11.571
51252SOL    HW255654   1.928   5.166  11.491
51253SOL     OW55655   9.716   7.017   2.281
51253SOL    HW155656   9.703   7.091   2.341
51253SOL    HW255657   9.630   6.974   2.277
51254SOL     OW55658   5.148   1.655   6.256
51254SOL    HW155659   5.148   1.746   6.285
51254SOL    HW255660   5.123   1.605   6.334
51255SOL     OW55661   2.190   1.383  12.212
51255SOL    HW155662   2.232   1.465  12.234
51255SOL    HW255663   2.252   1.339  12.153
51256SOL     OW55664  11.035   3.203   1.379
51256SOL    HW155665  11.051   3.220   1.472
51256SOL    HW255666  11.116   3.161   1.349
51257SOL     OW55667   9.649   7.695  11.807
51257SOL    HW155668   9.718   7.759  11.821
51257SOL    HW255669   9.571   7.747  11.787
51258SOL     OW55670   4.371  14.449  12.484
51258SOL    HW155671   4.444  14.421  12.540
51258SOL    HW255672   4.294  14.443  12.541
51259SOL     OW55673   1.620  13.793  14.575
51259SOL    HW155674   1.607  13.887  14.582
51259SOL    HW255675   1.584  13.758  14.656
51260SOL     OW55676   1.889   6.100  13.851
51260SOL    HW155677   1.889   6.136  13.940
51260SOL    HW255678   1.969   6.135  13.812
51261SOL     OW55679   2.726   3.082   3.984
51261SOL    HW155680   2.699   3.156   3.929
51261SOL    HW255681   2.817   3.065   3.956
51262SOL     OW55682   7.553   0.365   1.788
51262SOL    HW155683   7.624   0.426   1.804
51262SOL    HW255684   7.547   0.313   1.869
51263SOL     OW55685  14.606  14.725  14.071
51263SOL    HW155686  14.584  14.815  14.047
51263SOL    HW255687  14.546  14.671  14.019
51264SOL     OW55688   5.867  11.223   5.657
51264SOL    HW155689   5.817  11.295   5.695
51264SOL    HW255690   5.934  11.203   5.722
51265SOL     OW55691   4.026   6.724  11.619
51265SOL    HW155692   4.074   6.793  11.573
51265SOL    HW255693   3.940   6.724  11.579
51266SOL     OW55694  11.716   1.626   3.546
51266SOL    HW155695  11.728   1.636   3.451
51266SOL    HW255696  11.649   1.690   3.568
51267SOL     OW55697   5.360   9.542   1.582
51267SOL    HW155698   5.324   9.607   1.522
51267SOL    HW255699   5.427   9.497   1.530
51268SOL     OW55700   0.315   1.553   4.753
51268SOL    HW155701   0.271   1.469   4.764
51268SOL    HW255702   0.402   1.539   4.790
51269SOL     OW55703   5.735   9.845   7.208
51269SOL    HW155704   5.753   9.751   7.205
51269SOL    HW255705   5.775   9.880   7.129
51270SOL     OW55706  10.534   7.730  14.100
51270SOL    HW155707  10.570   7.724  14.188
51270SOL    HW255708  10.580   7.661  14.051
51271SOL     OW55709  14.260   8.845   1.207
51271SOL    HW155710  14.255   8.924   1.260
51271SOL    HW255711  14.174   8.839   1.164
51272SOL     OW55712   8.015  12.441   3.310
51272SOL    HW155713   8.070  12.383   3.257
51272SOL    HW255714   7.981  12.384   3.379
51273SOL     OW55715   5.903  12.655   4.593
51273SOL    HW155716   5.923  12.607   4.513
51273SOL    HW255717   5.988  12.687   4.624
51274SOL     OW55718   8.171   4.273  11.096
51274SOL    HW155719   8.166   4.178  11.106
51274SOL    HW255720   8.262   4.291  11.072
51275SOL     OW55721  13.158  11.642   9.946
51275SOL    HW155722  13.148  11.733   9.972
51275SOL    HW255723  13.247  11.637   9.910
51276SOL     OW55724   6.878  10.747   0.293
51276SOL    HW155725   6.815  10.818   0.277
51276SOL    HW255726   6.955  10.791   0.330
51277SOL     OW55727   5.076   8.122   3.632
51277SOL    HW155728   5.069   8.212   3.666
51277SOL    HW255729   5.130   8.130   3.553
51278SOL     OW55730   9.448   8.931  10.446
51278SOL    HW155731   9.392   9.005  10.422
51278SOL    HW255732   9.427   8.915  10.539
51279SOL     OW55733   2.976   2.949   6.564
51279SOL    HW155734   3.022   2.944   6.480
51279SOL    HW255735   2.923   2.870   6.568
51280SOL     OW55736  12.713   1.088   9.642
51280SOL    HW155737  12.694   0.995   9.632
51280SOL    HW255738  12.707   1.124   9.554
51281SOL     OW55739   4.434   4.485   6.561
51281SOL    HW155740   4.500   4.555   6.570
51281SOL    HW255741   4.477   4.408   6.597
51282SOL     OW55742  11.555   1.321  12.550
51282SOL    HW155743  11.650   1.318  12.564
51282SOL    HW255744  11.520   1.364  12.628
51283SOL     OW55745   4.850   0.138   8.131
51283SOL    HW155746   4.888   0.075   8.193
51283SOL    HW255747   4.757   0.139   8.153
51284SOL     OW55748   8.376  12.019  12.749
51284SOL    HW155749   8.310  11.951  12.767
51284SOL    HW255750   8.371  12.033  12.655
51285SOL     OW55751   0.823   8.978  13.893
51285SOL    HW155752   0.912   9.013  13.901
51285SOL    HW255753   0.829   8.911  13.825
51286SOL     OW55754   7.868  12.963   1.065
51286SOL    HW155755   7.892  13.049   1.030
51286SOL    HW255756   7.774  12.958   1.051
51287SOL     OW55757  13.699   9.375  10.011
51287SOL    HW155758  13.613   9.356   9.973
51287SOL    HW255759  13.758   9.313   9.969
51288SOL     OW55760  10.586   2.053   3.013
51288SOL    HW155761  10.674   2.035   3.045
51288SOL    HW255762  10.553   1.967   2.985
51289SOL     OW55763   0.950   2.587   1.044
51289SOL    HW155764   1.001   2.633   0.978
51289SOL    HW255765   0.913   2.657   1.098
51290SOL     OW55766  13.595  12.315   6.390
51290SOL    HW155767  13.507  12.293   6.359
51290SOL    HW255768  13.620  12.391   6.339
51291SOL     OW55769  13.286   3.857   9.702
51291SOL    HW155770  13.364   3.841   9.755
51291SOL    HW255771  13.218   3.880   9.766
51292SOL     OW55772   5.495  13.543   9.205
51292SOL    HW155773   5.569  13.492   9.173
51292SOL    HW255774   5.427  13.477   9.223
51293SOL     OW55775  13.786   1.474   4.476
51293SOL    HW155776  13.864   1.529   4.485
51293SOL    HW255777  13.714   1.536   4.460
51294SOL     OW55778  14.043   2.006   9.790
51294SOL    HW155779  14.079   1.926   9.829
51294SOL    HW255780  13.975   2.034   9.851
51295SOL     OW55781  13.388   6.353   9.366
51295SOL    HW155782  13.407   6.260   9.361
51295SOL    HW255783  13.294   6.359   9.350
51296SOL     OW55784   1.148  13.050   8.553
51296SOL    HW155785   1.241  13.059   8.573
51296SOL    HW255786   1.111  13.005   8.629
51297SOL     OW55787  12.650  10.349  11.346
51297SOL    HW155788  12.558  10.328  11.328
51297SOL    HW255789  12.646  10.426  11.403
51298SOL     OW55790   4.808  10.286   0.773
51298SOL    HW155791   4.849  10.258   0.691
51298SOL    HW255792   4.873  10.342   0.815
51299SOL     OW55793  13.029  13.203   5.556
51299SOL    HW155794  13.117  13.234   5.534
51299SOL    HW255795  13.030  13.194   5.652
51300SOL     OW55796  12.836   8.115  14.872
51300SOL    HW155797  12.922   8.105  14.833
51300SOL    HW255798  12.788   8.036  14.846
51301SOL     OW55799   8.184   2.113   3.854
51301SOL    HW155800   8.097   2.075   3.859
51301SOL    HW255801   8.173   2.204   3.879
51302SOL     OW55802   8.132   1.670   4.172
51302SOL    HW155803   8.069   1.718   4.226
51302SOL    HW255804   8.201   1.643   4.233
51303SOL     OW55805   9.846   7.963   8.373
51303SOL    HW155806   9.756   7.996   8.377
51303SOL    HW255807   9.863   7.953   8.279
51304SOL     OW55808   0.400   7.498   3.449
51304SOL    HW155809   0.457   7.463   3.380
51304SOL    HW255810   0.321   7.445   3.445
51305SOL     OW55811  11.548   9.432  12.658
51305SOL    HW155812  11.571   9.472  12.741
51305SOL    HW255813  11.596   9.349  12.657
51306SOL     OW55814   1.324   9.501   2.513
51306SOL    HW155815   1.389   9.512   2.444
51306SOL    HW255816   1.345   9.416   2.551
51307SOL     OW55817  13.071   1.035   6.866
51307SOL    HW155818  12.994   0.981   6.846
51307SOL    HW255819  13.053   1.119   6.823
51308SOL     OW55820  11.165  10.415   2.838
51308SOL    HW155821  11.235  10.370   2.792
51308SOL    HW255822  11.085  10.390   2.792
51309SOL     OW55823   5.616   9.368   0.276
51309SOL    HW155824   5.638   9.285   0.318
51309SOL    HW255825   5.648   9.359   0.187
51310SOL     OW55826   0.463   3.104   4.114
51310SOL    HW155827   0.504   3.190   4.106
51310SOL    HW255828   0.369   3.124   4.116
51311SOL     OW55829   3.880  13.784  12.100
51311SOL    HW155830   3.820  13.802  12.028
51311SOL    HW255831   3.963  13.764  12.058
51312SOL     OW55832   9.437   0.511   1.990
51312SOL    HW155833   9.363   0.451   1.983
51312SOL    HW255834   9.458   0.513   2.084
51313SOL     OW55835  11.276  12.575  11.745
51313SOL    HW155836  11.315  12.516  11.810
51313SOL    HW255837  11.347  12.636  11.722
51314SOL     OW55838  10.223   4.964  10.014
51314SOL    HW155839  10.232   4.991   9.923
51314SOL    HW255840  10.128   4.959  10.028
51315SOL     OW55841   9.191   9.806  10.949
51315SOL    HW155842   9.125   9.872  10.970
51315SOL    HW255843   9.211   9.765  11.034
51316SOL     OW55844   9.980   8.334   2.688
51316SOL    HW155845   9.962   8.253   2.641
51316SOL    HW255846  10.075   8.336   2.697
51317SOL     OW55847   4.220  10.433   1.466
51317SOL    HW155848   4.131  10.423   1.502
51317SOL    HW255849   4.208  10.424   1.371
51318SOL     OW55850   7.182   2.435  12.321
51318SOL    HW155851   7.241   2.504  12.291
51318SOL    HW255852   7.241   2.368  12.356
51319SOL     OW55853  14.593   7.398   3.838
51319SOL    HW155854  14.634   7.413   3.923
51319SOL    HW255855  14.500   7.388   3.857
51320SOL     OW55856  10.202  12.754  12.985
51320SOL    HW155857  10.108  12.733  12.978
51320SOL    HW255858  10.241  12.719  12.905
51321SOL     OW55859  10.372  12.057  11.574
51321SOL    HW155860  10.351  12.125  11.638
51321SOL    HW255861  10.444  12.094  11.523
51322SOL     OW55862   6.278  13.290   0.074
51322SOL    HW155863   6.251  13.271   0.165
51322SOL    HW255864   6.207  13.254   0.021
51323SOL     OW55865  14.512   2.478   0.218
51323SOL    HW155866  14.522   2.545   0.286
51323SOL    HW255867  14.431   2.433   0.240
51324SOL     OW55868  11.455   4.654   3.263
51324SOL    HW155869  11.506   4.708   3.322
51324SOL    HW255870  11.452   4.704   3.181
51325SOL     OW55871   5.372   2.567   9.737
51325SOL    HW155872   5.385   2.621   9.659
51325SOL    HW255873   5.434   2.603   9.801
51326SOL     OW55874  14.392  10.770   9.678
51326SOL    HW155875  14.323  10.797   9.738
51326SOL    HW255876  14.364  10.684   9.647
51327SOL     OW55877   3.968  11.430  13.829
51327SOL    HW155878   4.004  11.514  13.858
51327SOL    HW255879   4.038  11.368  13.844
51328SOL     OW55880   3.757  13.617   5.824
51328SOL    HW155881   3.838  13.667   5.809
51328SOL    HW255882   3.689  13.684   5.829
51329SOL     OW55883  10.098  13.241   8.516
51329SOL    HW155884  10.138  13.167   8.470
51329SOL    HW255885  10.172  13.287   8.556
51330SOL     OW55886   0.981   0.364   3.330
51330SOL    HW155887   1.020   0.296   3.386
51330SOL    HW255888   0.907   0.320   3.288
51331SOL     OW55889   7.025   5.543   6.867
51331SOL    HW155890   7.113   5.578   6.851
51331SOL    HW255891   6.966   5.614   6.843
51332SOL     OW55892   8.814   7.410   5.394
51332SOL    HW155893   8.803   7.332   5.448
51332SOL    HW255894   8.845   7.477   5.455
51333SOL     OW55895   2.556   0.636   9.861
51333SOL    HW155896   2.622   0.572   9.834
51333SOL    HW255897   2.487   0.584   9.903
51334SOL     OW55898  14.378   6.298  11.500
51334SOL    HW155899  14.297   6.303  11.448
51334SOL    HW255900  14.351   6.318  11.589
51335SOL     OW55901  12.764   3.972  10.822
51335SOL    HW155902  12.678   3.994  10.786
51335SOL    HW255903  12.762   3.877  10.832
51336SOL     OW55904   2.035   2.228   1.539
51336SOL    HW155905   2.047   2.320   1.519
51336SOL    HW255906   1.941   2.218   1.554
51337SOL     OW55907  11.973   8.383   4.449
51337SOL    HW155908  12.033   8.441   4.405
51337SOL    HW255909  11.995   8.391   4.542
51338SOL     OW55910   0.910  11.162   6.489
51338SOL    HW155911   0.877  11.197   6.571
51338SOL    HW255912   0.851  11.198   6.422
51339SOL     OW55913   0.233   0.419   2.423
51339SOL    HW155914   0.224   0.476   2.346
51339SOL    HW255915   0.157   0.361   2.418
51340SOL     OW55916  10.320   5.623   0.342
51340SOL    HW155917  10.314   5.702   0.288
51340SOL    HW255918  10.383   5.568   0.298
51341SOL     OW55919  14.456  13.552  13.814
51341SOL    HW155920  14.410  13.576  13.734
51341SOL    HW255921  14.484  13.462  13.799
51342SOL     OW55922   9.325  14.616   6.188
51342SOL    HW155923   9.387  14.681   6.155
51342SOL    HW255924   9.369  14.579   6.266
51343SOL     OW55925  13.194  14.356   9.421
51343SOL    HW155926  13.277  14.403   9.415
51343SOL    HW255927  13.210  14.288   9.486
51344SOL     OW55928   5.504   2.682   9.521
51344SOL    HW155929   5.568   2.626   9.477
51344SOL    HW255930   5.552   2.763   9.540
51345SOL     OW55931   0.885   6.469   3.167
51345SOL    HW155932   0.801   6.513   3.180
51345SOL    HW255933   0.901   6.423   3.249
51346SOL     OW55934  13.261   1.815   4.438
51346SOL    HW155935  13.321   1.836   4.366
51346SOL    HW255936  13.174   1.817   4.397
51347SOL     OW55937  13.758  12.872   5.214
51347SOL    HW155938  13.781  12.960   5.243
51347SOL    HW255939  13.717  12.831   5.291
51348SOL     OW55940  11.416   2.026   6.092
51348SOL    HW155941  11.351   2.096   6.104
51348SOL    HW255942  11.500   2.071   6.090
51349SOL     OW55943  12.701  13.957  10.224
51349SOL    HW155944  12.666  14.046  10.232
51349SOL    HW255945  12.630  13.907  10.183
51350SOL     OW55946  12.520   5.299  13.786
51350SOL    HW155947  12.565   5.361  13.844
51350SOL    HW255948  12.439   5.278  13.832
51351SOL     OW55949   0.816  13.148   8.701
51351SOL    HW155950   0.887  13.206   8.673
51351SOL    HW255951   0.859  13.070   8.735
51352SOL     OW55952  10.588  14.185  13.910
51352SOL    HW155953  10.642  14.246  13.959
51352SOL    HW255954  10.535  14.240  13.853
51353SOL     OW55955  12.093  14.786   1.528
51353SOL    HW155956  12.145  14.722   1.479
51353SOL    HW255957  12.131  14.870   1.506
51354SOL     OW55958   4.366   6.922   0.337
51354SOL    HW155959   4.452   6.965   0.337
51354SOL    HW255960   4.375   6.848   0.397
51355SOL     OW55961   7.713   4.645  13.128
51355SOL    HW155962   7.782   4.651  13.061
51355SOL    HW255963   7.667   4.729  13.122
51356SOL     OW55964   6.163   7.511   5.071
51356SOL    HW155965   6.086   7.563   5.047
51356SOL    HW255966   6.128   7.425   5.091
51357SOL     OW55967   1.292   6.435   9.334
51357SOL    HW155968   1.380   6.404   9.316
51357SOL    HW255969   1.235   6.367   9.299
51358SOL     OW55970   9.236  10.598   5.295
51358SOL    HW155971   9.331  10.607   5.285
51358SOL    HW255972   9.204  10.580   5.207
51359SOL     OW55973  10.680  14.836  11.373
51359SOL    HW155974  10.689  14.760  11.315
51359SOL    HW255975  10.666   0.028  11.314
51360SOL     OW55976  13.001   8.414   1.723
51360SOL    HW155977  12.956   8.485   1.677
51360SOL    HW255978  12.932   8.351   1.744
51361SOL     OW55979   4.453  12.937  14.138
51361SOL    HW155980   4.358  12.950  14.134
51361SOL    HW255981   4.487  13.023  14.161
51362SOL     OW55982   8.465   4.128   1.569
51362SOL    HW155983   8.475   4.222   1.556
51362SOL    HW255984   8.554   4.094   1.573
51363SOL     OW55985  12.288   1.925  13.229
51363SOL    HW155986  12.198   1.958  13.232
51363SOL    HW255987  12.317   1.926  13.320
51364SOL     OW55988  13.592   9.708   5.907
51364SOL    HW155989  13.608   9.756   5.826
51364SOL    HW255990  13.510   9.745   5.941
51365SOL     OW55991   8.253  12.483  11.814
51365SOL    HW155992   8.241  12.516  11.903
51365SOL    HW255993   8.198  12.405  11.810
51366SOL     OW55994   2.714   7.803   0.460
51366SOL    HW155995   2.783   7.737   0.467
51366SOL    HW255996   2.686   7.799   0.369
51367SOL     OW55997   6.440   6.670  10.201
51367SOL    HW155998   6.457   6.715  10.283
51367SOL    HW255999   6.459   6.578  10.219
51368SOL     OW56000   0.396  11.620   0.530
51368SOL    HW156001   0.376  11.527   0.531
51368SOL    HW256002   0.488  11.625   0.557
51369SOL     OW56003   1.044   4.627   6.070
51369SOL    HW156004   1.049   4.722   6.074
51369SOL    HW256005   0.952   4.607   6.085
51370SOL     OW56006   4.222   9.647   3.111
51370SOL    HW156007   4.172   9.725   3.135
51370SOL    HW256008   4.155   9.582   3.088
51371SOL     OW56009   1.531   6.046   5.112
51371SOL    HW156010   1.592   6.031   5.040
51371SOL    HW256011   1.581   6.027   5.191
51372SOL     OW56012  10.956   7.508   1.755
51372SOL    HW156013  10.931   7.513   1.847
51372SOL    HW256014  11.043   7.549   1.751
51373SOL     OW56015  10.498   5.392   4.316
51373SOL    HW156016  10.592   5.400   4.331
51373SOL    HW256017  10.477   5.302   4.342
51374SOL     OW56018   1.330  13.950  10.627
51374SOL    HW156019   1.402  13.950  10.565
51374SOL    HW256020   1.267  13.889  10.591
51375SOL     OW56021   2.306   3.697   1.215
51375SOL    HW156022   2.399   3.682   1.228
51375SOL    HW256023   2.263   3.622   1.258
51376SOL     OW56024   8.297   5.384  11.926
51376SOL    HW156025   8.352   5.423  11.994
51376SOL    HW256026   8.314   5.290  11.931
51377SOL     OW56027   0.019   7.632   5.795
51377SOL    HW156028   0.072   7.613   5.717
51377SOL    HW256029  14.839   7.560   5.799
51378SOL     OW56030   4.989   0.564  13.804
51378SOL    HW156031   4.902   0.558  13.765
51378SOL    HW256032   4.981   0.632  13.871
51379SOL     OW56033   9.749   7.972   7.438
51379SOL    HW156034   9.842   7.990   7.450
51379SOL    HW256035   9.720   8.038   7.376
51380SOL     OW56036  13.207   6.617   2.960
51380SOL    HW156037  13.226   6.571   3.042
51380SOL    HW256038  13.279   6.594   2.902
51381SOL     OW56039  11.607   7.077   0.011
51381SOL    HW156040  11.603   7.123   0.095
51381SOL    HW256041  11.672   7.008   0.025
51382SOL     OW56042   2.865  14.074   8.758
51382SOL    HW156043   2.834  14.043   8.673
51382SOL    HW256044   2.788  14.114   8.799
51383SOL     OW56045   5.804   5.044  11.405
51383SOL    HW156046   5.737   5.110  11.389
51383SOL    HW256047   5.770   4.991  11.477
51384SOL     OW56048   9.542   4.130  14.512
51384SOL    HW156049   9.560   4.204  14.454
51384SOL    HW256050   9.569   4.053  14.463
51385SOL     OW56051  11.671   9.076  12.219
51385SOL    HW156052  11.718   9.063  12.136
51385SOL    HW256053  11.736   9.115  12.277
51386SOL     OW56054   3.464  14.731   6.371
51386SOL    HW156055   3.378  14.747   6.410
51386SOL    HW256056   3.503  14.663   6.426
51387SOL     OW56057   3.424   2.592  10.755
51387SOL    HW156058   3.502   2.633  10.793
51387SOL    HW256059   3.432   2.499  10.775
51388SOL     OW56060  11.545   0.030  12.394
51388SOL    HW156061  11.585  14.840  12.441
51388SOL    HW256062  11.492   0.076  12.459
51389SOL     OW56063  10.706   2.399  14.091
51389SOL    HW156064  10.785   2.345  14.098
51389SOL    HW256065  10.679   2.389  14.000
51390SOL     OW56066   4.884  11.279   6.916
51390SOL    HW156067   4.942  11.242   6.983
51390SOL    HW256068   4.938  11.280   6.837
51391SOL     OW56069   3.220   0.960   7.230
51391SOL    HW156070   3.195   1.024   7.164
51391SOL    HW256071   3.165   0.980   7.306
51392SOL     OW56072   7.216   1.755  10.852
51392SOL    HW156073   7.121   1.746  10.861
51392SOL    HW256074   7.252   1.685  10.905
51393SOL     OW56075   3.599   7.357   5.197
51393SOL    HW156076   3.630   7.268   5.179
51393SOL    HW256077   3.679   7.407   5.211
51394SOL     OW56078   0.535  14.022  10.997
51394SOL    HW156079   0.508  14.114  11.005
51394SOL    HW256080   0.628  14.022  11.021
51395SOL     OW56081  10.485   6.802   2.146
51395SOL    HW156082  10.498   6.883   2.097
51395SOL    HW256083  10.392   6.781   2.132
51396SOL     OW56084  11.172  13.704   1.186
51396SOL    HW156085  11.166  13.610   1.203
51396SOL    HW256086  11.221  13.711   1.105
51397SOL     OW56087   6.612   1.464  11.213
51397SOL    HW156088   6.549   1.454  11.142
51397SOL    HW256089   6.567   1.429  11.290
51398SOL     OW56090   9.088   1.402  11.452
51398SOL    HW156091   9.166   1.416  11.399
51398SOL    HW256092   9.076   1.307  11.453
51399SOL     OW56093  10.432   9.104   4.653
51399SOL    HW156094  10.372   9.140   4.588
51399SOL    HW256095  10.513   9.153   4.640
51400SOL     OW56096  12.323   1.542  10.239
51400SOL    HW156097  12.300   1.489  10.163
51400SOL    HW256098  12.398   1.593  10.210
51401SOL     OW56099   7.251  11.673   2.410
51401SOL    HW156100   7.218  11.584   2.407
51401SOL    HW256101   7.343  11.664   2.435
51402SOL     OW56102   3.570   4.862   1.784
51402SOL    HW156103   3.660   4.858   1.814
51402SOL    HW256104   3.575   4.847   1.690
51403SOL     OW56105   9.665   6.872  14.325
51403SOL    HW156106   9.639   6.935  14.258
51403SOL    HW256107   9.583   6.829  14.350
51404SOL     OW56108  12.021   1.756   7.084
51404SOL    HW156109  12.002   1.850   7.080
51404SOL    HW256110  12.056   1.742   7.172
51405SOL     OW56111  13.693   2.357  12.216
51405SOL    HW156112  13.759   2.326  12.154
51405SOL    HW256113  13.639   2.279  12.234
51406SOL     OW56114   0.281  13.816  11.357
51406SOL    HW156115   0.211  13.870  11.395
51406SOL    HW256116   0.273  13.732  11.402
51407SOL     OW56117   9.362   5.683   5.645
51407SOL    HW156118   9.405   5.695   5.730
51407SOL    HW256119   9.430   5.644   5.590
51408SOL     OW56120  11.666  11.485  10.008
51408SOL    HW156121  11.739  11.503   9.949
51408SOL    HW256122  11.591  11.473   9.951
51409SOL     OW56123   6.080  14.590  12.019
51409SOL    HW156124   6.077  14.502  12.056
51409SOL    HW256125   5.988  14.613  12.004
51410SOL     OW56126   7.275   2.414   8.111
51410SOL    HW156127   7.246   2.478   8.176
51410SOL    HW256128   7.193   2.378   8.076
51411SOL     OW56129   5.110   6.396   7.892
51411SOL    HW156130   5.099   6.335   7.966
51411SOL    HW256131   5.180   6.455   7.920
51412SOL     OW56132  10.940   0.976  10.209
51412SOL    HW156133  10.932   1.038  10.136
51412SOL    HW256134  10.892   1.017  10.281
51413SOL     OW56135   1.366   7.351   2.510
51413SOL    HW156136   1.329   7.272   2.550
51413SOL    HW256137   1.315   7.423   2.547
51414SOL     OW56138   6.782  13.949  12.918
51414SOL    HW156139   6.823  13.870  12.883
51414SOL    HW256140   6.715  13.916  12.979
51415SOL     OW56141  14.681  10.457   7.060
51415SOL    HW156142  14.706  10.439   7.150
51415SOL    HW256143  14.585  10.462   7.062
51416SOL     OW56144   0.826  13.506   8.604
51416SOL    HW156145   0.834  13.520   8.698
51416SOL    HW256146   0.902  13.453   8.581
51417SOL     OW56147   7.542   1.523   0.874
51417SOL    HW156148   7.522   1.614   0.893
51417SOL    HW256149   7.462   1.476   0.897
51418SOL     OW56150   1.357   3.210  13.948
51418SOL    HW156151   1.404   3.193  14.030
51418SOL    HW256152   1.403   3.285  13.910
51419SOL     OW56153  10.894   4.850   9.964
51419SOL    HW156154  10.968   4.905   9.988
51419SOL    HW256155  10.819   4.888  10.010
51420SOL     OW56156  10.733   0.567   7.807
51420SOL    HW156157  10.771   0.655   7.800
51420SOL    HW256158  10.740   0.531   7.719
51421SOL     OW56159  10.859   9.176   7.936
51421SOL    HW156160  10.902   9.236   7.996
51421SOL    HW256161  10.855   9.093   7.983
51422SOL     OW56162   4.017   6.944   8.848
51422SOL    HW156163   3.963   6.873   8.814
51422SOL    HW256164   4.001   6.943   8.943
51423SOL     OW56165  13.294   9.574   4.156
51423SOL    HW156166  13.202   9.555   4.173
51423SOL    HW256167  13.315   9.524   4.077
51424SOL     OW56168   0.893  11.813   8.632
51424SOL    HW156169   0.892  11.728   8.676
51424SOL    HW256170   0.801  11.841   8.633
51425SOL     OW56171  10.942   1.175   9.999
51425SOL    HW156172  10.854   1.211   9.987
51425SOL    HW256173  10.972   1.154   9.910
51426SOL     OW56174  11.747   2.377   3.647
51426SOL    HW156175  11.797   2.318   3.702
51426SOL    HW256176  11.672   2.403   3.702
51427SOL     OW56177  11.583   7.952   7.513
51427SOL    HW156178  11.596   8.024   7.451
51427SOL    HW256179  11.659   7.895   7.500
51428SOL     OW56180   1.320   0.460  11.796
51428SOL    HW156181   1.291   0.520  11.865
51428SOL    HW256182   1.365   0.390  11.842
51429SOL     OW56183   4.575   6.047  13.228
51429SOL    HW156184   4.586   6.037  13.133
51429SOL    HW256185   4.487   6.083  13.238
51430SOL     OW56186   3.210   2.043  11.896
51430SOL    HW156187   3.180   1.990  11.823
51430SOL    HW256188   3.150   2.021  11.968
51431SOL     OW56189   1.097  10.290   0.760
51431SOL    HW156190   1.110  10.383   0.742
51431SOL    HW256191   1.149  10.245   0.694
51432SOL     OW56192   7.859  13.206   9.853
51432SOL    HW156193   7.914  13.182   9.778
51432SOL    HW256194   7.885  13.145   9.922
51433SOL     OW56195  10.957   1.006   4.727
51433SOL    HW156196  10.929   1.096   4.708
51433SOL    HW256197  10.903   0.980   4.802
51434SOL     OW56198   0.081   7.324  14.810
51434SOL    HW156199  14.876   7.351  14.779
51434SOL    HW256200   0.063   7.269   0.004
51435SOL     OW56201   8.165  12.974   6.368
51435SOL    HW156202   8.134  12.982   6.278
51435SOL    HW256203   8.140  12.885   6.394
51436SOL     OW56204  11.633   0.022  14.034
51436SOL    HW156205  11.568   0.065  14.090
51436SOL    HW256206  11.602  14.814  14.028
51437SOL     OW56207   8.058   3.744   8.734
51437SOL    HW156208   8.001   3.668   8.722
51437SOL    HW256209   8.137   3.722   8.685
51438SOL     OW56210   3.578   4.564   4.207
51438SOL    HW156211   3.666   4.590   4.180
51438SOL    HW256212   3.592   4.487   4.263
51439SOL     OW56213  10.626   5.924   8.136
51439SOL    HW156214  10.663   5.928   8.224
51439SOL    HW256215  10.646   6.009   8.097
51440SOL     OW56216  11.983  11.173  10.394
51440SOL    HW156217  11.971  11.187  10.300
51440SOL    HW256218  12.005  11.080  10.401
51441SOL     OW56219   8.980   4.585   9.857
51441SOL    HW156220   8.957   4.658   9.915
51441SOL    HW256221   8.951   4.613   9.770
51442SOL     OW56222   6.724   6.669   1.184
51442SOL    HW156223   6.703   6.666   1.091
51442SOL    HW256224   6.693   6.585   1.218
51443SOL     OW56225   1.421  12.350  14.586
51443SOL    HW156226   1.496  12.314  14.538
51443SOL    HW256227   1.460  12.394  14.662
51444SOL     OW56228  10.023   6.018   5.236
51444SOL    HW156229   9.937   6.018   5.279
51444SOL    HW256230  10.009   5.968   5.156
51445SOL     OW56231   0.295   3.384   9.999
51445SOL    HW156232   0.333   3.358  10.083
51445SOL    HW256233   0.268   3.475  10.011
51446SOL     OW56234   7.951  13.655  11.170
51446SOL    HW156235   7.924  13.563  11.176
51446SOL    HW256236   7.894  13.701  11.231
51447SOL     OW56237  11.930   0.584  14.500
51447SOL    HW156238  11.866   0.651  14.525
51447SOL    HW256239  11.882   0.526  14.440
51448SOL     OW56240   6.340   2.948  14.033
51448SOL    HW156241   6.399   2.921  14.103
51448SOL    HW256242   6.370   3.035  14.008
51449SOL     OW56243   3.303  14.154  12.397
51449SOL    HW156244   3.322  14.061  12.395
51449SOL    HW256245   3.366  14.193  12.335
51450SOL     OW56246   2.891   1.186   6.768
51450SOL    HW156247   2.808   1.147   6.796
51450SOL    HW256248   2.899   1.161   6.676
51451SOL     OW56249   5.572   9.102  13.365
51451SOL    HW156250   5.653   9.066  13.400
51451SOL    HW256251   5.551   9.047  13.290
51452SOL     OW56252   2.355   4.689   7.344
51452SOL    HW156253   2.368   4.647   7.258
51452SOL    HW256254   2.437   4.674   7.391
51453SOL     OW56255   6.057   1.825   6.432
51453SOL    HW156256   6.017   1.747   6.395
51453SOL    HW256257   6.150   1.803   6.437
51454SOL     OW56258   0.675   9.276  10.218
51454SOL    HW156259   0.760   9.233  10.213
51454SOL    HW256260   0.642   9.274  10.128
51455SOL     OW56261   6.575   6.702   3.014
51455SOL    HW156262   6.620   6.722   3.096
51455SOL    HW256263   6.522   6.625   3.034
51456SOL     OW56264   2.038  13.549  13.405
51456SOL    HW156265   2.043  13.642  13.382
51456SOL    HW256266   2.115  13.534  13.460
51457SOL     OW56267   4.944   9.423   6.260
51457SOL    HW156268   4.899   9.442   6.177
51457SOL    HW256269   4.894   9.352   6.299
51458SOL     OW56270   9.108  11.857  10.428
51458SOL    HW156271   9.043  11.787  10.430
51458SOL    HW256272   9.139  11.865  10.518
51459SOL     OW56273   3.845   8.534   4.019
51459SOL    HW156274   3.800   8.596   3.963
51459SOL    HW256275   3.915   8.497   3.964
51460SOL     OW56276  14.114   8.197   8.282
51460SOL    HW156277  14.165   8.223   8.205
51460SOL    HW256278  14.175   8.205   8.355
51461SOL     OW56279   1.287  12.227   3.752
51461SOL    HW156280   1.337  12.259   3.827
51461SOL    HW256281   1.283  12.301   3.692
51462SOL     OW56282   1.399  14.119   6.727
51462SOL    HW156283   1.385  14.154   6.815
51462SOL    HW256284   1.398  14.024   6.738
51463SOL     OW56285   0.903  14.673  10.265
51463SOL    HW156286   0.899  14.724  10.184
51463SOL    HW256287   0.987  14.627  10.260
51464SOL     OW56288   8.063  10.076   7.449
51464SOL    HW156289   8.132  10.137   7.476
51464SOL    HW256290   7.991  10.132   7.422
51465SOL     OW56291   3.566   3.066  12.677
51465SOL    HW156292   3.488   3.012  12.692
51465SOL    HW256293   3.531   3.152  12.652
51466SOL     OW56294  13.437   4.879   2.639
51466SOL    HW156295  13.378   4.949   2.611
51466SOL    HW256296  13.521   4.899   2.596
51467SOL     OW56297   8.394   0.450   4.855
51467SOL    HW156298   8.306   0.432   4.891
51467SOL    HW256299   8.422   0.530   4.900
51468SOL     OW56300   2.815  13.618  13.389
51468SOL    HW156301   2.863  13.698  13.409
51468SOL    HW256302   2.828  13.605  13.295
51469SOL     OW56303   3.325   0.350   8.649
51469SOL    HW156304   3.303   0.378   8.738
51469SOL    HW256305   3.314   0.429   8.596
51470SOL     OW56306   0.868   6.662   9.890
51470SOL    HW156307   0.899   6.665   9.800
51470SOL    HW256308   0.790   6.607   9.887
51471SOL     OW56309   4.535   8.727   0.093
51471SOL    HW156310   4.569   8.645   0.057
51471SOL    HW256311   4.494   8.701   0.176
51472SOL     OW56312  12.569  10.841  12.274
51472SOL    HW156313  12.496  10.902  12.258
51472SOL    HW256314  12.598  10.862  12.363
51473SOL     OW56315  11.858   8.586  14.700
51473SOL    HW156316  11.905   8.584  14.783
51473SOL    HW256317  11.780   8.639  14.718
51474SOL     OW56318   9.644   4.977  10.954
51474SOL    HW156319   9.603   4.939  11.032
51474SOL    HW256320   9.679   5.061  10.985
51475SOL     OW56321   0.260  13.224   8.290
51475SOL    HW156322   0.244  13.250   8.381
51475SOL    HW256323   0.177  13.187   8.260
51476SOL     OW56324  11.532   1.607   5.644
51476SOL    HW156325  11.442   1.629   5.668
51476SOL    HW256326  11.555   1.535   5.703
51477SOL     OW56327  11.392   2.563  14.758
51477SOL    HW156328  11.363   2.474  14.738
51477SOL    HW256329  11.323   2.619  14.722
51478SOL     OW56330  10.025  10.761   1.453
51478SOL    HW156331  10.026  10.687   1.393
51478SOL    HW256332  10.090  10.822   1.417
51479SOL     OW56333   9.479   5.554   2.446
51479SOL    HW156334   9.458   5.621   2.511
51479SOL    HW256335   9.524   5.485   2.495
51480SOL     OW56336   3.330   5.258   5.365
51480SOL    HW156337   3.357   5.170   5.392
51480SOL    HW256338   3.357   5.314   5.437
51481SOL     OW56339   4.552   1.783   9.175
51481SOL    HW156340   4.609   1.706   9.180
51481SOL    HW256341   4.479   1.754   9.120
51482SOL     OW56342   5.901   4.052   6.433
51482SOL    HW156343   5.968   4.068   6.367
51482SOL    HW256344   5.820   4.042   6.384
51483SOL     OW56345   1.813   3.094   8.498
51483SOL    HW156346   1.828   3.001   8.510
51483SOL    HW256347   1.791   3.103   8.405
51484SOL     OW56348  13.495  11.340  14.813
51484SOL    HW156349  13.527  11.329   0.021
51484SOL    HW256350  13.399  11.335  14.822
51485SOL     OW56351   2.512   9.998   8.099
51485SOL    HW156352   2.526   9.950   8.018
51485SOL    HW256353   2.417  10.010   8.105
51486SOL     OW56354   2.744  12.199   9.852
51486SOL    HW156355   2.799  12.274   9.875
51486SOL    HW256356   2.750  12.193   9.757
51487SOL     OW56357  12.029   3.737   9.914
51487SOL    HW156358  12.096   3.671   9.896
51487SOL    HW256359  12.048   3.807   9.851
51488SOL     OW56360   1.753  13.393  12.799
51488SOL    HW156361   1.831  13.343  12.820
51488SOL    HW256362   1.782  13.458  12.735
51489SOL     OW56363   6.724   8.103   6.663
51489SOL    HW156364   6.647   8.080   6.610
51489SOL    HW256365   6.798   8.074   6.610
51490SOL     OW56366  13.645  14.123  13.594
51490SOL    HW156367  13.601  14.043  13.621
51490SOL    HW256368  13.657  14.173  13.675
51491SOL     OW56369   4.300   0.922  11.654
51491SOL    HW156370   4.212   0.886  11.644
51491SOL    HW256371   4.320   0.911  11.747
51492SOL     OW56372   9.982  13.991  13.636
51492SOL    HW156373   9.952  14.010  13.725
51492SOL    HW256374   9.935  13.911  13.611
51493SOL     OW56375   1.447   5.179   3.645
51493SOL    HW156376   1.524   5.141   3.687
51493SOL    HW256377   1.479   5.219   3.564
51494SOL     OW56378   8.423   1.134  14.696
51494SOL    HW156379   8.343   1.082  14.684
51494SOL    HW256380   8.494   1.070  14.692
51495SOL     OW56381   9.869   5.456   9.481
51495SOL    HW156382   9.883   5.383   9.421
51495SOL    HW256383   9.883   5.418   9.568
51496SOL     OW56384   5.906   5.472   5.102
51496SOL    HW156385   5.869   5.394   5.060
51496SOL    HW256386   5.836   5.537   5.096
51497SOL     OW56387  14.744  13.568  11.891
51497SOL    HW156388  14.688  13.639  11.860
51497SOL    HW256389  14.833  13.605  11.889
51498SOL     OW56390  13.041   8.073   7.575
51498SOL    HW156391  13.002   7.987   7.559
51498SOL    HW256392  13.021   8.124   7.497
51499SOL     OW56393   5.417   1.754   8.007
51499SOL    HW156394   5.377   1.841   8.003
51499SOL    HW256395   5.462   1.746   7.923
51500SOL     OW56396   2.620   7.590   6.444
51500SOL    HW156397   2.650   7.640   6.368
51500SOL    HW256398   2.666   7.506   6.437
51501SOL     OW56399   1.630  12.653   6.443
51501SOL    HW156400   1.699  12.635   6.378
51501SOL    HW256401   1.608  12.745   6.429
51502SOL     OW56402  12.862   9.430   8.246
51502SOL    HW156403  12.953   9.402   8.256
51502SOL    HW256404  12.811   9.350   8.251
51503SOL     OW56405   0.283   9.122   2.720
51503SOL    HW156406   0.211   9.151   2.777
51503SOL    HW256407   0.362   9.146   2.769
51504SOL     OW56408   4.936  10.270   0.109
51504SOL    HW156409   4.899  10.307   0.189
51504SOL    HW256410   4.896  10.184   0.102
51505SOL     OW56411   9.460   9.600   9.561
51505SOL    HW156412   9.388   9.545   9.531
51505SOL    HW256413   9.513   9.543   9.615
51506SOL     OW56414  12.478   7.190   3.707
51506SOL    HW156415  12.493   7.143   3.624
51506SOL    HW256416  12.439   7.273   3.681
51507SOL     OW56417   9.131   9.708  12.299
51507SOL    HW156418   9.154   9.749  12.383
51507SOL    HW256419   9.037   9.690  12.306
51508SOL     OW56420  14.681   4.606   8.413
51508SOL    HW156421  14.716   4.603   8.324
51508SOL    HW256422  14.633   4.688   8.418
51509SOL     OW56423   4.970   3.763   3.121
51509SOL    HW156424   4.999   3.843   3.077
51509SOL    HW256425   4.902   3.728   3.063
51510SOL     OW56426   4.992  13.256   2.749
51510SOL    HW156427   5.070  13.271   2.697
51510SOL    HW256428   4.920  13.259   2.686
51511SOL     OW56429  11.100   7.816   8.704
51511SOL    HW156430  11.158   7.740   8.697
51511SOL    HW256431  11.096   7.852   8.616
51512SOL     OW56432   3.249  11.954   0.731
51512SOL    HW156433   3.192  11.969   0.806
51512SOL    HW256434   3.276  12.042   0.703
51513SOL     OW56435   1.001  12.512   3.508
51513SOL    HW156436   1.045  12.474   3.584
51513SOL    HW256437   0.916  12.541   3.542
51514SOL     OW56438  14.520   3.127  14.174
51514SOL    HW156439  14.593   3.182  14.144
51514SOL    HW256440  14.533   3.118  14.268
51515SOL     OW56441   2.915   9.739   3.766
51515SOL    HW156442   2.864   9.809   3.807
51515SOL    HW256443   2.856   9.664   3.765
51516SOL     OW56444   8.062  12.388   6.617
51516SOL    HW156445   7.994  12.332   6.655
51516SOL    HW256446   8.062  12.465   6.673
51517SOL     OW56447   5.946   1.515   7.510
51517SOL    HW156448   6.016   1.451   7.495
51517SOL    HW256449   5.879   1.467   7.558
51518SOL     OW56450   3.133   1.310   8.374
51518SOL    HW156451   3.096   1.392   8.341
51518SOL    HW256452   3.109   1.309   8.467
51519SOL     OW56453   6.883   5.030  11.728
51519SOL    HW156454   6.830   5.102  11.761
51519SOL    HW256455   6.851   4.953  11.775
51520SOL     OW56456   6.382   5.121   7.978
51520SOL    HW156457   6.329   5.089   7.905
51520SOL    HW256458   6.399   5.213   7.957
51521SOL     OW56459  10.938  14.022  13.777
51521SOL    HW156460  10.847  13.995  13.763
51521SOL    HW256461  10.982  13.943  13.808
51522SOL     OW56462   2.054  10.000  10.771
51522SOL    HW156463   2.096   9.927  10.816
51522SOL    HW256464   1.981   9.959  10.724
51523SOL     OW56465   7.883  11.968   1.017
51523SOL    HW156466   7.968  11.975   0.973
51523SOL    HW256467   7.845  11.888   0.982
51524SOL     OW56468   7.697   2.389  10.608
51524SOL    HW156469   7.636   2.460  10.586
51524SOL    HW256470   7.756   2.384  10.533
51525SOL     OW56471   0.466  10.084   4.215
51525SOL    HW156472   0.371  10.084   4.228
51525SOL    HW256473   0.487   9.993   4.192
51526SOL     OW56474   5.854   8.984   2.249
51526SOL    HW156475   5.921   8.937   2.299
51526SOL    HW256476   5.846   9.068   2.294
51527SOL     OW56477   3.155  12.692  13.565
51527SOL    HW156478   3.232  12.740  13.594
51527SOL    HW256479   3.081  12.741  13.600
51528SOL     OW56480   7.958  14.538   4.403
51528SOL    HW156481   7.875  14.557   4.359
51528SOL    HW256482   7.974  14.446   4.385
51529SOL     OW56483  14.301  10.315   8.275
51529SOL    HW156484  14.313  10.377   8.204
51529SOL    HW256485  14.355  10.350   8.347
51530SOL     OW56486   3.444   2.004   7.768
51530SOL    HW156487   3.351   2.009   7.789
51530SOL    HW256488   3.480   1.940   7.830
51531SOL     OW56489   3.770  11.238   4.873
51531SOL    HW156490   3.830  11.207   4.940
51531SOL    HW256491   3.789  11.332   4.865
51532SOL     OW56492   8.033   0.273  13.769
51532SOL    HW156493   7.962   0.328  13.804
51532SOL    HW256494   8.033   0.292  13.675
51533SOL     OW56495  10.327  13.942   3.300
51533SOL    HW156496  10.287  13.888   3.368
51533SOL    HW256497  10.313  13.894   3.219
51534SOL     OW56498   7.434   5.017  12.834
51534SOL    HW156499   7.437   5.111  12.854
51534SOL    HW256500   7.413   5.013  12.740
51535SOL     OW56501  10.952  11.206   4.499
51535SOL    HW156502  10.888  11.170   4.561
51535SOL    HW256503  11.001  11.129   4.469
51536SOL     OW56504  11.827  14.072  12.728
51536SOL    HW156505  11.749  14.035  12.770
51536SOL    HW256506  11.845  14.152  12.779
51537SOL     OW56507   2.158  11.795  10.294
51537SOL    HW156508   2.158  11.718  10.351
51537SOL    HW256509   2.073  11.837  10.311
51538SOL     OW56510   2.032   8.577  13.571
51538SOL    HW156511   2.035   8.481  13.580
51538SOL    HW256512   1.950   8.603  13.613
51539SOL     OW56513   4.111   5.749  13.765
51539SOL    HW156514   4.049   5.715  13.829
51539SOL    HW256515   4.183   5.784  13.818
51540SOL     OW56516  13.902   4.332  14.111
51540SOL    HW156517  13.965   4.394  14.146
51540SOL    HW256518  13.818   4.361  14.146
51541SOL     OW56519  13.712   7.591   7.423
51541SOL    HW156520  13.698   7.651   7.497
51541SOL    HW256521  13.674   7.636   7.348
51542SOL     OW56522  10.495   9.931  14.065
51542SOL    HW156523  10.534   9.845  14.050
51542SOL    HW256524  10.423   9.937  14.002
51543SOL     OW56525   4.015   8.093  14.812
51543SOL    HW156526   4.106   8.110  14.791
51543SOL    HW256527   3.969   8.100  14.728
51544SOL     OW56528  14.180   4.541   8.371
51544SOL    HW156529  14.227   4.608   8.421
51544SOL    HW256530  14.226   4.537   8.287
51545SOL     OW56531   4.595   0.188   4.744
51545SOL    HW156532   4.558   0.200   4.832
51545SOL    HW256533   4.633   0.273   4.722
51546SOL     OW56534  12.108  10.076  14.356
51546SOL    HW156535  12.148  10.154  14.318
51546SOL    HW256536  12.113  10.010  14.287
51547SOL     OW56537   4.103   2.915   9.644
51547SOL    HW156538   4.054   2.833   9.642
51547SOL    HW256539   4.041   2.981   9.613
51548SOL     OW56540   2.977   2.451  12.639
51548SOL    HW156541   2.924   2.376  12.612
51548SOL    HW256542   2.989   2.438  12.733
51549SOL     OW56543   4.577  10.641  11.618
51549SOL    HW156544   4.529  10.722  11.601
51549SOL    HW256545   4.630  10.661  11.695
51550SOL     OW56546   5.754  10.921   7.980
51550SOL    HW156547   5.750  10.997   8.039
51550SOL    HW256548   5.753  10.845   8.039
51551SOL     OW56549  11.495  12.604   6.130
51551SOL    HW156550  11.526  12.578   6.217
51551SOL    HW256551  11.517  12.530   6.074
51552SOL     OW56552  14.857   9.833  10.143
51552SOL    HW156553  14.768   9.818  10.177
51552SOL    HW256554   0.024   9.867  10.217
51553SOL     OW56555  10.911   8.797   2.164
51553SOL    HW156556  10.942   8.783   2.075
51553SOL    HW256557  10.895   8.891   2.170
51554SOL     OW56558   6.849   8.986   4.996
51554SOL    HW156559   6.877   9.069   4.957
51554SOL    HW256560   6.756   8.980   4.974
51555SOL     OW56561  13.032   9.391   1.901
51555SOL    HW156562  13.074   9.317   1.945
51555SOL    HW256563  13.103   9.434   1.853
51556SOL     OW56564  11.120   5.867  10.800
51556SOL    HW156565  11.109   5.956  10.765
51556SOL    HW256566  11.127   5.879  10.895
51557SOL     OW56567   7.814   7.142   4.863
51557SOL    HW156568   7.742   7.168   4.806
51557SOL    HW256569   7.781   7.067   4.912
51558SOL     OW56570   8.536   6.585   5.876
51558SOL    HW156571   8.551   6.546   5.790
51558SOL    HW256572   8.450   6.625   5.869
51559SOL     OW56573  14.655  10.710  14.359
51559SOL    HW156574  14.690  10.798  14.351
51559SOL    HW256575  14.588  10.704  14.290
51560SOL     OW56576   5.062   0.931  10.723
51560SOL    HW156577   5.041   0.856  10.779
51560SOL    HW256578   4.977   0.958  10.687
51561SOL     OW56579   6.511   2.146  12.467
51561SOL    HW156580   6.541   2.119  12.380
51561SOL    HW256581   6.421   2.113  12.471
51562SOL     OW56582   3.714  10.090   5.847
51562SOL    HW156583   3.657  10.061   5.918
51562SOL    HW256584   3.655  10.116   5.777
51563SOL     OW56585   5.315  10.340  12.186
51563SOL    HW156586   5.390  10.292  12.150
51563SOL    HW256587   5.314  10.422  12.137
51564SOL     OW56588  13.457   5.754   0.569
51564SOL    HW156589  13.413   5.742   0.653
51564SOL    HW256590  13.500   5.670   0.552
51565SOL     OW56591   2.109  13.092   7.247
51565SOL    HW156592   2.034  13.066   7.193
51565SOL    HW256593   2.161  13.013   7.257
51566SOL     OW56594  12.152   8.593  13.330
51566SOL    HW156595  12.137   8.504  13.364
51566SOL    HW256596  12.229   8.623  13.377
51567SOL     OW56597   6.642  10.219   0.091
51567SOL    HW156598   6.587  10.294   0.114
51567SOL    HW256599   6.586  10.164   0.036
51568SOL     OW56600  12.257   1.406   3.389
51568SOL    HW156601  12.197   1.474   3.417
51568SOL    HW256602  12.326   1.452   3.341
51569SOL     OW56603   8.810   2.357   2.836
51569SOL    HW156604   8.878   2.294   2.811
51569SOL    HW256605   8.856   2.440   2.846
51570SOL     OW56606  10.538  13.616  13.087
51570SOL    HW156607  10.498  13.702  13.103
51570SOL    HW256608  10.468  13.553  13.102
51571SOL     OW56609   7.865   6.669   4.191
51571SOL    HW156610   7.838   6.750   4.149
51571SOL    HW256611   7.841   6.681   4.283
51572SOL     OW56612   3.868  13.759   2.452
51572SOL    HW156613   3.853  13.701   2.527
51572SOL    HW256614   3.792  13.816   2.450
51573SOL     OW56615  13.500   1.127   9.348
51573SOL    HW156616  13.434   1.067   9.383
51573SOL    HW256617  13.494   1.205   9.403
51574SOL     OW56618  12.515  10.008   0.018
51574SOL    HW156619  12.430   9.967   0.036
51574SOL    HW256620  12.572   9.975   0.088
51575SOL     OW56621   7.477  13.084   9.789
51575SOL    HW156622   7.464  13.137   9.868
51575SOL    HW256623   7.429  13.003   9.806
51576SOL     OW56624   5.740  11.899  14.415
51576SOL    HW156625   5.710  11.862  14.331
51576SOL    HW256626   5.834  11.883  14.416
51577SOL     OW56627   7.647  12.290   1.053
51577SOL    HW156628   7.716  12.325   0.997
51577SOL    HW256629   7.666  12.326   1.140
51578SOL     OW56630   9.841  10.889   1.983
51578SOL    HW156631   9.823  10.969   2.032
51578SOL    HW256632   9.770  10.882   1.920
51579SOL     OW56633  10.329  12.541  13.128
51579SOL    HW156634  10.278  12.605  13.078
51579SOL    HW256635  10.323  12.571  13.218
51580SOL     OW56636   1.872   0.275   7.722
51580SOL    HW156637   1.920   0.292   7.803
51580SOL    HW256638   1.781   0.267   7.750
51581SOL     OW56639  12.321  12.602   0.457
51581SOL    HW156640  12.351  12.516   0.428
51581SOL    HW256641  12.245  12.583   0.512
51582SOL     OW56642   1.820   8.403  13.672
51582SOL    HW156643   1.757   8.338  13.702
51582SOL    HW256644   1.791   8.485  13.712
51583SOL     OW56645  10.709  10.139   1.792
51583SOL    HW156646  10.721  10.210   1.729
51583SOL    HW256647  10.634  10.090   1.758
51584SOL     OW56648   2.499  11.352   9.344
51584SOL    HW156649   2.556  11.276   9.332
51584SOL    HW256650   2.544  11.423   9.299
51585SOL     OW56651   8.428   7.354   2.308
51585SOL    HW156652   8.443   7.393   2.394
51585SOL    HW256653   8.363   7.285   2.324
51586SOL     OW56654   1.447   1.499   4.157
51586SOL    HW156655   1.478   1.410   4.168
51586SOL    HW256656   1.415   1.524   4.244
51587SOL     OW56657   9.647  10.483   7.964
51587SOL    HW156658   9.716  10.546   7.986
51587SOL    HW256659   9.623  10.503   7.874
51588SOL     OW56660   0.453   9.764   9.891
51588SOL    HW156661   0.384   9.771   9.957
51588SOL    HW256662   0.511   9.837   9.910
51589SOL     OW56663   9.186   3.770   9.508
51589SOL    HW156664   9.134   3.690   9.517
51589SOL    HW256665   9.124   3.841   9.519
51590SOL     OW56666  11.781  10.091   4.230
51590SOL    HW156667  11.874  10.069   4.217
51590SOL    HW256668  11.742  10.083   4.142
51591SOL     OW56669   3.240   4.429   1.019
51591SOL    HW156670   3.326   4.459   1.050
51591SOL    HW256671   3.227   4.475   0.936
51592SOL     OW56672   8.047   2.461   6.607
51592SOL    HW156673   8.117   2.409   6.566
51592SOL    HW256674   8.084   2.549   6.613
51593SOL     OW56675   4.329  13.600  11.989
51593SOL    HW156676   4.317  13.505  11.983
51593SOL    HW256677   4.407  13.617  11.936
51594SOL     OW56678   9.862   2.361  11.787
51594SOL    HW156679   9.885   2.277  11.747
51594SOL    HW256680   9.841   2.418  11.713
51595SOL     OW56681   7.728   1.431  12.394
51595SOL    HW156682   7.775   1.414  12.476
51595SOL    HW256683   7.666   1.502  12.416
51596SOL     OW56684  11.519  11.879  13.674
51596SOL    HW156685  11.611  11.871  13.699
51596SOL    HW256686  11.491  11.963  13.709
51597SOL     OW56687  13.881   5.286   0.783
51597SOL    HW156688  13.865   5.380   0.795
51597SOL    HW256689  13.891   5.276   0.688
51598SOL     OW56690   6.667   6.480   8.745
51598SOL    HW156691   6.589   6.506   8.795
51598SOL    HW256692   6.673   6.544   8.674
51599SOL     OW56693  11.118  10.337  13.339
51599SOL    HW156694  11.138  10.365  13.428
51599SOL    HW256695  11.163  10.400  13.283
51600SOL     OW56696   4.309  12.019   8.777
51600SOL    HW156697   4.343  11.974   8.700
51600SOL    HW256698   4.375  12.085   8.797
51601SOL     OW56699   2.254   4.727   9.290
51601SOL    HW156700   2.302   4.787   9.233
51601SOL    HW256701   2.320   4.666   9.321
51602SOL     OW56702  12.286  10.558  12.616
51602SOL    HW156703  12.227  10.583  12.545
51602SOL    HW256704  12.373  10.555  12.575
51603SOL     OW56705  12.094   9.274   1.376
51603SOL    HW156706  12.062   9.236   1.294
51603SOL    HW256707  12.037   9.236   1.444
51604SOL     OW56708  10.869   5.883  11.690
51604SOL    HW156709  10.776   5.861  11.691
51604SOL    HW256710  10.912   5.805  11.724
51605SOL     OW56711   9.384   0.220  13.731
51605SOL    HW156712   9.302   0.199  13.775
51605SOL    HW256713   9.439   0.143  13.745
51606SOL     OW56714  10.420  12.339   0.041
51606SOL    HW156715  10.457  12.250   0.039
51606SOL    HW256716  10.413  12.359   0.134
51607SOL     OW56717  13.857   7.952   9.577
51607SOL    HW156718  13.950   7.975   9.583
51607SOL    HW256719  13.812   8.023   9.623
51608SOL     OW56720   2.267   4.063   9.498
51608SOL    HW156721   2.224   4.139   9.538
51608SOL    HW256722   2.332   4.102   9.438
51609SOL     OW56723  11.929  11.760   5.607
51609SOL    HW156724  11.870  11.725   5.540
51609SOL    HW256725  11.905  11.714   5.687
51610SOL     OW56726  10.332   8.676   0.275
51610SOL    HW156727  10.384   8.739   0.225
51610SOL    HW256728  10.244   8.683   0.240
51611SOL     OW56729   9.132   7.765   7.357
51611SOL    HW156730   9.212   7.775   7.304
51611SOL    HW256731   9.132   7.673   7.383
51612SOL     OW56732  11.364  12.429  11.465
51612SOL    HW156733  11.319  12.488  11.405
51612SOL    HW256734  11.359  12.472  11.550
51613SOL     OW56735   5.886  10.447  14.246
51613SOL    HW156736   5.874  10.418  14.155
51613SOL    HW256737   5.821  10.516  14.258
51614SOL     OW56738   8.138   6.442   8.432
51614SOL    HW156739   8.157   6.532   8.456
51614SOL    HW256740   8.054   6.423   8.474
51615SOL     OW56741   8.170   5.338   9.546
51615SOL    HW156742   8.190   5.245   9.531
51615SOL    HW256743   8.154   5.374   9.459
51616SOL     OW56744   7.701   3.889  10.405
51616SOL    HW156745   7.739   3.976  10.418
51616SOL    HW256746   7.720   3.842  10.486
51617SOL     OW56747   0.076   4.462   5.762
51617SOL    HW156748   0.017   4.453   5.687
51617SOL    HW256749   0.132   4.384   5.758
51618SOL     OW56750  12.634   0.726  11.713
51618SOL    HW156751  12.709   0.751  11.660
51618SOL    HW256752  12.670   0.674  11.784
51619SOL     OW56753   6.865   2.537   4.815
51619SOL    HW156754   6.953   2.562   4.788
51619SOL    HW256755   6.860   2.561   4.908
51620SOL     OW56756   1.956  14.481  14.644
51620SOL    HW156757   1.975  14.546  14.711
51620SOL    HW256758   1.896  14.419  14.686
51621SOL     OW56759   1.844   3.633   2.216
51621SOL    HW156760   1.864   3.722   2.187
51621SOL    HW256761   1.809   3.644   2.305
51622SOL     OW56762  13.663  11.705   5.049
51622SOL    HW156763  13.698  11.780   5.001
51622SOL    HW256764  13.581  11.737   5.085
51623SOL     OW56765   4.255   7.328   2.468
51623SOL    HW156766   4.296   7.371   2.393
51623SOL    HW256767   4.311   7.252   2.485
51624SOL     OW56768  13.667   9.635  12.585
51624SOL    HW156769  13.708   9.594  12.662
51624SOL    HW256770  13.705   9.722  12.582
51625SOL     OW56771  14.198  12.542  13.251
51625SOL    HW156772  14.156  12.627  13.242
51625SOL    HW256773  14.237  12.543  13.338
51626SOL     OW56774   2.746   9.685   0.574
51626SOL    HW156775   2.747   9.778   0.549
51626SOL    HW256776   2.780   9.640   0.496
51627SOL     OW56777   9.339   8.743   4.786
51627SOL    HW156778   9.434   8.758   4.789
51627SOL    HW256779   9.302   8.807   4.847
51628SOL     OW56780   3.466   5.054  12.031
51628SOL    HW156781   3.432   4.970  12.059
51628SOL    HW256782   3.510   5.090  12.109
51629SOL     OW56783  13.858   9.128  12.383
51629SOL    HW156784  13.841   9.220  12.363
51629SOL    HW256785  13.834   9.119  12.476
51630SOL     OW56786  11.243  14.519   4.475
51630SOL    HW156787  11.332  14.538   4.508
51630SOL    HW256788  11.191  14.509   4.554
51631SOL     OW56789   6.707  14.773   0.738
51631SOL    HW156790   6.624  14.728   0.752
51631SOL    HW256791   6.764  14.740   0.808
51632SOL     OW56792  13.512   7.690   1.282
51632SOL    HW156793  13.556   7.627   1.224
51632SOL    HW256794  13.568   7.767   1.281
51633SOL     OW56795   0.623  13.863   2.538
51633SOL    HW156796   0.647  13.795   2.475
51633SOL    HW256797   0.576  13.816   2.607
51634SOL     OW56798  11.621   8.612   0.485
51634SOL    HW156799  11.692   8.671   0.458
51634SOL    HW256800  11.541   8.663   0.472
51635SOL     OW56801   8.907  10.899   5.528
51635SOL    HW156802   8.915  10.957   5.453
51635SOL    HW256803   8.989  10.910   5.576
51636SOL     OW56804  13.047   3.367   0.764
51636SOL    HW156805  12.975   3.357   0.701
51636SOL    HW256806  13.122   3.391   0.710
51637SOL     OW56807   7.604  14.226   1.853
51637SOL    HW156808   7.584  14.256   1.942
51637SOL    HW256809   7.646  14.141   1.865
51638SOL     OW56810   3.535  11.514  11.887
51638SOL    HW156811   3.614  11.540  11.934
51638SOL    HW256812   3.495  11.596  11.859
51639SOL     OW56813  14.070  11.161  12.437
51639SOL    HW156814  14.081  11.103  12.362
51639SOL    HW256815  14.086  11.105  12.513
51640SOL     OW56816   7.611   7.683   1.844
51640SOL    HW156817   7.649   7.757   1.796
51640SOL    HW256818   7.667   7.673   1.921
51641SOL     OW56819  10.686   2.323   6.202
51641SOL    HW156820  10.683   2.375   6.122
51641SOL    HW256821  10.705   2.386   6.272
51642SOL     OW56822   2.252   2.627  10.052
51642SOL    HW156823   2.288   2.570   9.985
51642SOL    HW256824   2.327   2.648  10.108
51643SOL     OW56825  11.400   0.763   1.355
51643SOL    HW156826  11.365   0.701   1.419
51643SOL    HW256827  11.323   0.797   1.310
51644SOL     OW56828  11.607   8.401   0.060
51644SOL    HW156829  11.673   8.357   0.006
51644SOL    HW256830  11.550   8.445  14.879
51645SOL     OW56831   1.189   5.774   2.697
51645SOL    HW156832   1.160   5.841   2.759
51645SOL    HW256833   1.203   5.696   2.750
51646SOL     OW56834  14.501   9.598   1.325
51646SOL    HW156835  14.412   9.605   1.360
51646SOL    HW256836  14.504   9.510   1.287
51647SOL     OW56837   9.630  10.719   5.745
51647SOL    HW156838   9.697  10.720   5.676
51647SOL    HW256839   9.561  10.663   5.710
51648SOL     OW56840  12.098  13.956   2.420
51648SOL    HW156841  12.176  13.907   2.445
51648SOL    HW256842  12.025  13.896   2.438
51649SOL     OW56843   1.266   1.314   1.886
51649SOL    HW156844   1.295   1.393   1.933
51649SOL    HW256845   1.200   1.275   1.943
51650SOL     OW56846   8.769   9.556   9.156
51650SOL    HW156847   8.788   9.650   9.161
51650SOL    HW256848   8.686   9.552   9.108
51651SOL     OW56849  14.041   9.895   4.932
51651SOL    HW156850  14.051   9.979   4.886
51651SOL    HW256851  13.969   9.910   4.993
51652SOL     OW56852   6.626   0.502   5.725
51652SOL    HW156853   6.656   0.458   5.646
51652SOL    HW256854   6.636   0.436   5.794
51653SOL     OW56855   3.293   2.049  12.281
51653SOL    HW156856   3.363   2.060  12.346
51653SOL    HW256857   3.281   2.137  12.245
51654SOL     OW56858  14.104   9.838   9.187
51654SOL    HW156859  14.040   9.910   9.194
51654SOL    HW256860  14.167   9.856   9.257
51655SOL     OW56861   1.799  13.081  13.258
51655SOL    HW156862   1.778  13.141  13.330
51655SOL    HW256863   1.734  13.011  13.265
51656SOL     OW56864   5.602  14.388  10.061
51656SOL    HW156865   5.593  14.340   9.978
51656SOL    HW256866   5.525  14.363  10.112
51657SOL     OW56867  11.883   7.568  10.959
51657SOL    HW156868  11.801   7.599  10.920
51657SOL    HW256869  11.927   7.523  10.887
51658SOL     OW56870   8.069   9.798   8.279
51658SOL    HW156871   8.163   9.808   8.295
51658SOL    HW256872   8.045   9.719   8.328
51659SOL     OW56873  12.351   0.144   6.719
51659SOL    HW156874  12.282   0.209   6.706
51659SOL    HW256875  12.364   0.143   6.814
51660SOL     OW56876  13.830   5.408  11.538
51660SOL    HW156877  13.745   5.436  11.573
51660SOL    HW256878  13.852   5.330  11.589
51661SOL     OW56879   5.004   9.456   4.906
51661SOL    HW156880   4.938   9.526   4.912
51661SOL    HW256881   5.012   9.439   4.812
51662SOL     OW56882   5.139  13.144   8.265
51662SOL    HW156883   5.193  13.153   8.344
51662SOL    HW256884   5.200  13.159   8.192
51663SOL     OW56885  14.426   5.142   5.818
51663SOL    HW156886  14.510   5.111   5.852
51663SOL    HW256887  14.449   5.220   5.766
51664SOL     OW56888   7.881   8.197   8.639
51664SOL    HW156889   7.867   8.121   8.582
51664SOL    HW256890   7.903   8.160   8.724
51665SOL     OW56891  14.441  14.142   5.607
51665SOL    HW156892  14.349  14.124   5.628
51665SOL    HW256893  14.452  14.108   5.519
51666SOL     OW56894   7.798  14.194   8.892
51666SOL    HW156895   7.864  14.149   8.839
51666SOL    HW256896   7.813  14.164   8.981
51667SOL     OW56897   2.417   0.397   4.949
51667SOL    HW156898   2.491   0.455   4.935
51667SOL    HW256899   2.440   0.345   5.026
51668SOL     OW56900   6.617   8.545   9.314
51668SOL    HW156901   6.650   8.561   9.225
51668SOL    HW256902   6.655   8.461   9.339
51669SOL     OW56903   1.357  12.073   9.294
51669SOL    HW156904   1.270  12.076   9.255
51669SOL    HW256905   1.346  12.020   9.373
51670SOL     OW56906   6.080   8.923  11.442
51670SOL    HW156907   6.173   8.940  11.458
51670SOL    HW256908   6.077   8.892  11.352
51671SOL     OW56909  14.733   3.165  11.709
51671SOL    HW156910  14.686   3.211  11.639
51671SOL    HW256911  14.755   3.080  11.672
51672SOL     OW56912   0.714  13.202   5.971
51672SOL    HW156913   0.621  13.194   5.950
51672SOL    HW256914   0.728  13.141   6.043
51673SOL     OW56915   2.857   6.875   0.516
51673SOL    HW156916   2.860   6.817   0.440
51673SOL    HW256917   2.780   6.845   0.565
51674SOL     OW56918  10.055   8.658   4.651
51674SOL    HW156919  10.041   8.622   4.738
51674SOL    HW256920   9.975   8.639   4.603
51675SOL     OW56921   4.863   6.566   2.232
51675SOL    HW156922   4.843   6.655   2.202
51675SOL    HW256923   4.835   6.565   2.324
51676SOL     OW56924  12.708   2.364   7.316
51676SOL    HW156925  12.630   2.391   7.269
51676SOL    HW256926  12.781   2.390   7.260
51677SOL     OW56927   7.497   4.453   3.766
51677SOL    HW156928   7.570   4.440   3.827
51677SOL    HW256929   7.514   4.392   3.695
51678SOL     OW56930  13.958   7.380   8.081
51678SOL    HW156931  14.047   7.416   8.077
51678SOL    HW256932  13.937   7.356   7.991
51679SOL     OW56933   5.547   4.235   8.476
51679SOL    HW156934   5.603   4.306   8.507
51679SOL    HW256935   5.591   4.202   8.398
51680SOL     OW56936   2.916   1.889  10.792
51680SOL    HW156937   3.008   1.909  10.774
51680SOL    HW256938   2.907   1.796  10.769
51681SOL     OW56939   4.815   4.521   5.300
51681SOL    HW156940   4.788   4.534   5.391
51681SOL    HW256941   4.795   4.604   5.257
51682SOL     OW56942   9.325  13.373  12.729
51682SOL    HW156943   9.389  13.345  12.794
51682SOL    HW256944   9.285  13.291  12.698
51683SOL     OW56945  13.902   2.467   6.138
51683SOL    HW156946  13.915   2.420   6.220
51683SOL    HW256947  13.831   2.528   6.156
51684SOL     OW56948  12.751   9.533   4.696
51684SOL    HW156949  12.813   9.467   4.666
51684SOL    HW256950  12.779   9.552   4.786
51685SOL     OW56951  12.434   1.417   2.939
51685SOL    HW156952  12.345   1.411   2.973
51685SOL    HW256953  12.439   1.349   2.872
51686SOL     OW56954  14.684  13.720  13.450
51686SOL    HW156955  14.693  13.626  13.437
51686SOL    HW256956  14.758  13.758  13.402
51687SOL     OW56957   2.552   5.195  11.609
51687SOL    HW156958   2.485   5.234  11.553
51687SOL    HW256959   2.521   5.106  11.626
51688SOL     OW56960   8.933   6.379  11.771
51688SOL    HW156961   8.935   6.467  11.810
51688SOL    HW256962   8.881   6.390  11.692
51689SOL     OW56963   7.114   0.188   8.792
51689SOL    HW156964   7.203   0.164   8.820
51689SOL    HW256965   7.070   0.104   8.778
51690SOL     OW56966   6.481  13.963   3.648
51690SOL    HW156967   6.552  13.960   3.583
51690SOL    HW256968   6.475  13.873   3.681
51691SOL     OW56969   4.052  11.567  14.598
51691SOL    HW156970   3.963  11.602  14.598
51691SOL    HW256971   4.105  11.636  14.557
51692SOL     OW56972   8.825  10.128   5.404
51692SOL    HW156973   8.846  10.039   5.431
51692SOL    HW256974   8.863  10.137   5.317
51693SOL     OW56975   7.895   6.201  14.388
51693SOL    HW156976   7.988   6.192  14.366
51693SOL    HW256977   7.881   6.138  14.459
51694SOL     OW56978   8.730  14.639   5.712
51694SOL    HW156979   8.758  14.724   5.744
51694SOL    HW256980   8.638  14.650   5.688
51695SOL     OW56981  11.120   7.603   2.627
51695SOL    HW156982  11.082   7.637   2.708
51695SOL    HW256983  11.192   7.663   2.608
51696SOL     OW56984   9.022   4.569   7.801
51696SOL    HW156985   9.035   4.612   7.716
51696SOL    HW256986   8.943   4.609   7.837
51697SOL     OW56987  12.960  14.837  14.572
51697SOL    HW156988  12.879  14.785  14.571
51697SOL    HW256989  12.983  14.843  14.665
51698SOL     OW56990   1.625  13.990   8.019
51698SOL    HW156991   1.635  13.900   7.988
51698SOL    HW256992   1.658  13.988   8.109
51699SOL     OW56993   7.103   1.073   5.349
51699SOL    HW156994   7.114   1.150   5.405
51699SOL    HW256995   7.157   1.006   5.390
51700SOL     OW56996   0.308  11.981   3.314
51700SOL    HW156997   0.382  12.036   3.290
51700SOL    HW256998   0.253  12.036   3.370
51701SOL     OW56999   8.799   1.320   7.599
51701SOL    HW157000   8.877   1.371   7.621
51701SOL    HW257001   8.733   1.351   7.662
51702SOL     OW57002   1.531   5.275   6.156
51702SOL    HW157003   1.489   5.308   6.235
51702SOL    HW257004   1.569   5.191   6.181
51703SOL     OW57005   3.592   9.064  12.009
51703SOL    HW157006   3.535   9.137  12.030
51703SOL    HW257007   3.670   9.078  12.063
51704SOL     OW57008   0.220   9.598   5.267
51704SOL    HW157009   0.149   9.610   5.331
51704SOL    HW257010   0.234   9.504   5.264
51705SOL     OW57011   4.265   2.615  14.270
51705SOL    HW157012   4.258   2.521  14.284
51705SOL    HW257013   4.262   2.653  14.358
51706SOL     OW57014   6.989   4.382  10.782
51706SOL    HW157015   7.054   4.450  10.762
51706SOL    HW257016   6.928   4.386  10.708
51707SOL     OW57017  12.352   9.561   0.078
51707SOL    HW157018  12.434   9.559   0.127
51707SOL    HW257019  12.332   9.468   0.062
51708SOL     OW57020   3.213  12.436   0.508
51708SOL    HW157021   3.224  12.531   0.515
51708SOL    HW257022   3.121  12.423   0.488
51709SOL     OW57023   9.126   6.950   3.122
51709SOL    HW157024   9.158   6.947   3.212
51709SOL    HW257025   9.164   7.030   3.085
51710SOL     OW57026   3.059   2.746   9.840
51710SOL    HW157027   3.015   2.732   9.756
51710SOL    HW257028   3.059   2.841   9.851
51711SOL     OW57029   4.973   5.962  12.326
51711SOL    HW157030   4.988   5.905  12.250
51711SOL    HW257031   4.933   6.041  12.290
51712SOL     OW57032  13.313   6.552   3.496
51712SOL    HW157033  13.400   6.524   3.467
51712SOL    HW257034  13.269   6.470   3.519
51713SOL     OW57035   9.929   1.353  10.367
51713SOL    HW157036   9.930   1.262  10.396
51713SOL    HW257037   9.913   1.348  10.273
51714SOL     OW57038   9.605   8.198  11.078
51714SOL    HW157039   9.616   8.106  11.103
51714SOL    HW257040   9.537   8.231  11.137
51715SOL     OW57041   3.901   2.678  12.362
51715SOL    HW157042   3.901   2.604  12.423
51715SOL    HW257043   3.870   2.752  12.414
51716SOL     OW57044  11.820  12.548   8.085
51716SOL    HW157045  11.907  12.586   8.074
51716SOL    HW257046  11.811  12.486   8.013
51717SOL     OW57047   3.240   3.237   3.476
51717SOL    HW157048   3.207   3.242   3.566
51717SOL    HW257049   3.286   3.320   3.463
51718SOL     OW57050   4.604   2.738   9.866
51718SOL    HW157051   4.549   2.809   9.835
51718SOL    HW257052   4.543   2.676   9.907
51719SOL     OW57053   9.924  12.610   3.734
51719SOL    HW157054   9.862  12.666   3.781
51719SOL    HW257055   9.937  12.535   3.792
51720SOL     OW57056   0.005   9.604   5.516
51720SOL    HW157057   0.026   9.696   5.537
51720SOL    HW257058  14.793   9.604   5.501
51721SOL     OW57059  12.907  12.642  13.026
51721SOL    HW157060  12.828  12.598  12.994
51721SOL    HW257061  12.950  12.674  12.946
51722SOL     OW57062  13.802   2.267   8.302
51722SOL    HW157063  13.739   2.213   8.350
51722SOL    HW257064  13.749   2.308   8.232
51723SOL     OW57065  13.058   6.505   7.746
51723SOL    HW157066  13.008   6.455   7.810
51723SOL    HW257067  13.148   6.503   7.778
51724SOL     OW57068  13.690  10.038   4.867
51724SOL    HW157069  13.758  10.021   4.932
51724SOL    HW257070  13.669  10.131   4.877
51725SOL     OW57071   2.913  13.488   7.666
51725SOL    HW157072   2.851  13.484   7.593
51725SOL    HW257073   2.894  13.410   7.718
51726SOL     OW57074   0.477  13.485  14.186
51726SOL    HW157075   0.463  13.574  14.218
51726SOL    HW257076   0.452  13.489  14.094
51727SOL     OW57077   5.982   2.534   0.198
51727SOL    HW157078   6.004   2.568   0.111
51727SOL    HW257079   5.906   2.585   0.225
51728SOL     OW57080   3.099   6.945   1.000
51728SOL    HW157081   3.178   6.998   1.007
51728SOL    HW257082   3.029   7.008   0.980
51729SOL     OW57083  10.447   9.402   8.603
51729SOL    HW157084  10.397   9.483   8.610
51729SOL    HW257085  10.538   9.430   8.607
51730SOL     OW57086  11.049  12.772   2.238
51730SOL    HW157087  11.080  12.856   2.272
51730SOL    HW257088  11.058  12.780   2.143
51731SOL     OW57089   5.366  10.848   8.060
51731SOL    HW157090   5.427  10.828   8.131
51731SOL    HW257091   5.393  10.935   8.030
51732SOL     OW57092   3.472   0.687  10.585
51732SOL    HW157093   3.481   0.721  10.496
51732SOL    HW257094   3.552   0.716  10.629
51733SOL     OW57095  11.256   1.208   1.872
51733SOL    HW157096  11.215   1.288   1.906
51733SOL    HW257097  11.246   1.215   1.777
51734SOL     OW57098  12.719  12.448   6.839
51734SOL    HW157099  12.743  12.514   6.904
51734SOL    HW257100  12.796  12.392   6.832
51735SOL     OW57101  12.500   3.674   0.900
51735SOL    HW157102  12.504   3.607   0.831
51735SOL    HW257103  12.512   3.757   0.854
51736SOL     OW57104   6.366  10.072   7.478
51736SOL    HW157105   6.272  10.087   7.489
51736SOL    HW257106   6.405  10.096   7.563
51737SOL     OW57107  14.179  12.237   4.387
51737SOL    HW157108  14.085  12.252   4.385
51737SOL    HW257109  14.211  12.271   4.304
51738SOL     OW57110   9.941   0.342  11.762
51738SOL    HW157111   9.964   0.405  11.694
51738SOL    HW257112   9.887   0.277  11.717
51739SOL     OW57113  13.723   5.669   6.687
51739SOL    HW157114  13.718   5.753   6.642
51739SOL    HW257115  13.801   5.627   6.653
51740SOL     OW57116  12.173   4.012  12.706
51740SOL    HW157117  12.260   3.985  12.736
51740SOL    HW257118  12.118   4.004  12.784
51741SOL     OW57119  13.143   1.894  11.685
51741SOL    HW157120  13.106   1.848  11.760
51741SOL    HW257121  13.136   1.987  11.707
51742SOL     OW57122  12.232  14.862   2.940
51742SOL    HW157123  12.266   0.063   2.973
51742SOL    HW257124  12.265  14.796   3.001
51743SOL     OW57125  10.823   6.447  12.608
51743SOL    HW157126  10.770   6.454  12.528
51743SOL    HW257127  10.759   6.456  12.679
51744SOL     OW57128   6.203   7.994   2.046
51744SOL    HW157129   6.181   7.916   2.097
51744SOL    HW257130   6.161   7.980   1.962
51745SOL     OW57131   1.747   8.917  13.253
51745SOL    HW157132   1.781   8.835  13.219
51745SOL    HW257133   1.663   8.928  13.207
51746SOL     OW57134   0.209   4.466   0.065
51746SOL    HW157135   0.303   4.468   0.052
51746SOL    HW257136   0.197   4.422   0.149
51747SOL     OW57137   5.391   3.346   1.147
51747SOL    HW157138   5.360   3.422   1.196
51747SOL    HW257139   5.349   3.355   1.061
51748SOL     OW57140   8.247   8.850   4.297
51748SOL    HW157141   8.336   8.850   4.261
51748SOL    HW257142   8.194   8.805   4.231
51749SOL     OW57143  12.006  10.022   5.214
51749SOL    HW157144  12.041  10.080   5.282
51749SOL    HW257145  12.066  10.033   5.140
51750SOL     OW57146   0.405  14.221   3.402
51750SOL    HW157147   0.454  14.295   3.437
51750SOL    HW257148   0.358  14.256   3.326
51751SOL     OW57149  12.738   1.289   9.079
51751SOL    HW157150  12.761   1.199   9.055
51751SOL    HW257151  12.820   1.337   9.071
51752SOL     OW57152   7.743   9.939  11.048
51752SOL    HW157153   7.800  10.013  11.028
51752SOL    HW257154   7.793   9.885  11.109
51753SOL     OW57155   6.359  10.935   5.282
51753SOL    HW157156   6.394  10.851   5.310
51753SOL    HW257157   6.361  10.932   5.187
51754SOL     OW57158   7.262   8.402  11.093
51754SOL    HW157159   7.253   8.308  11.108
51754SOL    HW257160   7.179   8.439  11.123
51755SOL     OW57161   1.112   5.904   7.705
51755SOL    HW157162   1.066   5.897   7.789
51755SOL    HW257163   1.078   5.831   7.653
51756SOL     OW57164   0.533   6.557   7.647
51756SOL    HW157165   0.464   6.576   7.584
51756SOL    HW257166   0.595   6.502   7.599
51757SOL     OW57167   8.510   1.621   5.299
51757SOL    HW157168   8.487   1.646   5.210
51757SOL    HW257169   8.428   1.596   5.340
51758SOL     OW57170   2.293   2.700  12.552
51758SOL    HW157171   2.242   2.650  12.616
51758SOL    HW257172   2.236   2.705  12.475
51759SOL     OW57173  11.635   8.995  10.381
51759SOL    HW157174  11.602   9.085  10.373
51759SOL    HW257175  11.710   9.002  10.440
51760SOL     OW57176   1.861   9.029  12.594
51760SOL    HW157177   1.829   9.006  12.681
51760SOL    HW257178   1.917   8.955  12.569
51761SOL     OW57179   4.574   7.553   5.085
51761SOL    HW157180   4.640   7.599   5.136
51761SOL    HW257181   4.574   7.464   5.120
51762SOL     OW57182   1.460   0.479   2.754
51762SOL    HW157183   1.388   0.541   2.765
51762SOL    HW257184   1.475   0.476   2.660
51763SOL     OW57185  12.607  11.974   6.321
51763SOL    HW157186  12.588  11.913   6.392
51763SOL    HW257187  12.669  11.927   6.265
51764SOL     OW57188   4.844   8.910   7.607
51764SOL    HW157189   4.921   8.965   7.598
51764SOL    HW257190   4.779   8.950   7.548
51765SOL     OW57191   7.975   5.424   9.054
51765SOL    HW157192   8.028   5.418   9.133
51765SOL    HW257193   7.934   5.511   9.059
51766SOL     OW57194  11.596  10.277   7.742
51766SOL    HW157195  11.574  10.338   7.671
51766SOL    HW257196  11.684  10.303   7.770
51767SOL     OW57197   8.440  12.512   7.021
51767SOL    HW157198   8.518  12.563   6.998
51767SOL    HW257199   8.392  12.503   6.939
51768SOL     OW57200  10.365  11.136  10.567
51768SOL    HW157201  10.431  11.149  10.499
51768SOL    HW257202  10.337  11.045  10.557
51769SOL     OW57203  14.077   4.246   5.671
51769SOL    HW157204  14.015   4.319   5.673
51769SOL    HW257205  14.146   4.272   5.732
51770SOL     OW57206   2.109  11.983   5.199
51770SOL    HW157207   2.144  12.030   5.275
51770SOL    HW257208   2.128  11.891   5.217
51771SOL     OW57209  11.135  11.922  11.378
51771SOL    HW157210  11.090  11.930  11.294
51771SOL    HW257211  11.227  11.910  11.355
51772SOL     OW57212   6.804   6.184  13.815
51772SOL    HW157213   6.892   6.161  13.784
51772SOL    HW257214   6.746   6.125  13.767
51773SOL     OW57215   8.564   7.956   1.467
51773SOL    HW157216   8.509   7.926   1.395
51773SOL    HW257217   8.653   7.957   1.430
51774SOL     OW57218   1.299   3.600  13.003
51774SOL    HW157219   1.261   3.607  13.090
51774SOL    HW257220   1.241   3.651  12.947
51775SOL     OW57221   8.512  12.023   6.413
51775SOL    HW157222   8.552  12.105   6.442
51775SOL    HW257223   8.418  12.037   6.424
51776SOL     OW57224   1.828   2.828  12.709
51776SOL    HW157225   1.869   2.777  12.779
51776SOL    HW257226   1.746   2.782  12.690
51777SOL     OW57227  11.801   8.247  12.950
51777SOL    HW157228  11.715   8.218  12.979
51777SOL    HW257229  11.782   8.309  12.880
51778SOL     OW57230   2.033   1.323  11.026
51778SOL    HW157231   1.960   1.350  10.970
51778SOL    HW257232   2.088   1.268  10.970
51779SOL     OW57233  10.541   8.882   7.483
51779SOL    HW157234  10.484   8.820   7.438
51779SOL    HW257235  10.604   8.909   7.416
51780SOL     OW57236   0.881   5.275   6.970
51780SOL    HW157237   0.926   5.337   6.914
51780SOL    HW257238   0.807   5.324   7.005
51781SOL     OW57239  14.017   4.309   7.972
51781SOL    HW157240  13.948   4.367   8.002
51781SOL    HW257241  13.974   4.252   7.908
51782SOL     OW57242   1.592  10.203   0.158
51782SOL    HW157243   1.659  10.266   0.131
51782SOL    HW257244   1.528  10.204   0.087
51783SOL     OW57245   6.548   8.899   9.068
51783SOL    HW157246   6.456   8.920   9.049
51783SOL    HW257247   6.574   8.840   8.998
51784SOL     OW57248   4.054   7.131   5.613
51784SOL    HW157249   4.123   7.091   5.559
51784SOL    HW257250   4.084   7.220   5.628
51785SOL     OW57251  14.757   8.422   0.410
51785SOL    HW157252  14.723   8.456   0.493
51785SOL    HW257253  14.678   8.399   0.360
51786SOL     OW57254  14.161   7.775  11.907
51786SOL    HW157255  14.078   7.726  11.911
51786SOL    HW257256  14.187   7.786  11.998
51787SOL     OW57257  13.946   8.499  11.723
51787SOL    HW157258  14.005   8.482  11.797
51787SOL    HW257259  13.984   8.576  11.680
51788SOL     OW57260   6.738  14.326   8.945
51788SOL    HW157261   6.665  14.305   9.004
51788SOL    HW257262   6.699  14.384   8.879
51789SOL     OW57263   1.139   8.233   9.449
51789SOL    HW157264   1.062   8.267   9.494
51789SOL    HW257265   1.150   8.145   9.485
51790SOL     OW57266   2.948  11.279   1.760
51790SOL    HW157267   2.889  11.353   1.776
51790SOL    HW257268   2.923  11.214   1.825
51791SOL     OW57269   7.285  12.468  13.751
51791SOL    HW157270   7.208  12.524  13.743
51791SOL    HW257271   7.324  12.493  13.835
51792SOL     OW57272  13.832   1.525   6.731
51792SOL    HW157273  13.850   1.462   6.801
51792SOL    HW257274  13.739   1.514   6.712
51793SOL     OW57275  13.628  11.515   8.653
51793SOL    HW157276  13.572  11.590   8.631
51793SOL    HW257277  13.715  11.539   8.621
51794SOL     OW57278  12.791   6.921  12.916
51794SOL    HW157279  12.801   6.999  12.970
51794SOL    HW257280  12.872   6.917  12.864
51795SOL     OW57281  10.979  10.625   2.183
51795SOL    HW157282  11.004  10.532   2.185
51795SOL    HW257283  10.910  10.633   2.248
51796SOL     OW57284   7.135  12.171   6.713
51796SOL    HW157285   7.174  12.195   6.629
51796SOL    HW257286   7.044  12.148   6.692
51797SOL     OW57287   3.045   1.873   3.886
51797SOL    HW157288   3.121   1.922   3.918
51797SOL    HW257289   3.069   1.845   3.798
51798SOL     OW57290   6.172   2.878   2.715
51798SOL    HW157291   6.177   2.836   2.629
51798SOL    HW257292   6.081   2.864   2.742
51799SOL     OW57293   1.617   3.185   3.586
51799SOL    HW157294   1.708   3.157   3.574
51799SOL    HW257295   1.618   3.231   3.671
51800SOL     OW57296  11.026   1.869   7.026
51800SOL    HW157297  10.970   1.936   6.986
51800SOL    HW257298  11.104   1.867   6.971
51801SOL     OW57299  10.573   2.608   0.533
51801SOL    HW157300  10.495   2.657   0.559
51801SOL    HW257301  10.598   2.645   0.449
51802SOL     OW57302  11.106   7.681  13.113
51802SOL    HW157303  11.168   7.636  13.055
51802SOL    HW257304  11.047   7.727  13.053
51803SOL     OW57305   5.770   8.140  10.246
51803SOL    HW157306   5.757   8.138  10.151
51803SOL    HW257307   5.686   8.168  10.281
51804SOL     OW57308   7.466  13.913  11.961
51804SOL    HW157309   7.531  13.881  11.899
51804SOL    HW257310   7.409  13.969  11.909
51805SOL     OW57311   9.240   8.176  14.748
51805SOL    HW157312   9.282   8.122  14.815
51805SOL    HW257313   9.154   8.137  14.736
51806SOL     OW57314   5.249  13.365   3.953
51806SOL    HW157315   5.242  13.272   3.931
51806SOL    HW257316   5.311  13.400   3.889
51807SOL     OW57317  11.403   6.333   2.004
51807SOL    HW157318  11.480   6.294   2.046
51807SOL    HW257319  11.413   6.310   1.911
51808SOL     OW57320   7.882   4.856   2.026
51808SOL    HW157321   7.787   4.863   2.037
51808SOL    HW257322   7.913   4.947   2.030
51809SOL     OW57323   3.203  11.514  10.910
51809SOL    HW157324   3.279  11.544  10.960
51809SOL    HW257325   3.235  11.503  10.821
51810SOL     OW57326  12.441   5.825  11.744
51810SOL    HW157327  12.497   5.748  11.741
51810SOL    HW257328  12.502   5.899  11.746
51811SOL     OW57329   6.492   2.672   0.095
51811SOL    HW157330   6.580   2.638   0.081
51811SOL    HW257331   6.505   2.753   0.143
51812SOL     OW57332   5.654  10.574  13.342
51812SOL    HW157333   5.598  10.617  13.408
51812SOL    HW257334   5.738  10.561  13.387
51813SOL     OW57335   5.545  12.222   4.233
51813SOL    HW157336   5.462  12.206   4.277
51813SOL    HW257337   5.528  12.297   4.176
51814SOL     OW57338   6.863  14.096   6.909
51814SOL    HW157339   6.776  14.135   6.919
51814SOL    HW257340   6.924  14.167   6.928
51815SOL     OW57341  11.067   5.920  14.149
51815SOL    HW157342  11.113   5.971  14.216
51815SOL    HW257343  11.120   5.931  14.070
51816SOL     OW57344  14.052   1.386  14.093
51816SOL    HW157345  13.992   1.440  14.042
51816SOL    HW257346  13.997   1.316  14.128
51817SOL     OW57347   7.357  12.824   4.976
51817SOL    HW157348   7.279  12.794   4.930
51817SOL    HW257349   7.335  12.913   5.003
51818SOL     OW57350   5.632   9.895   9.558
51818SOL    HW157351   5.680   9.878   9.477
51818SOL    HW257352   5.690   9.953   9.608
51819SOL     OW57353   2.002   6.714   3.940
51819SOL    HW157354   1.988   6.707   3.845
51819SOL    HW257355   2.018   6.624   3.969
51820SOL     OW57356   7.007   1.033  11.877
51820SOL    HW157357   6.919   1.063  11.901
51820SOL    HW257358   7.026   1.078  11.795
51821SOL     OW57359   6.053  14.342  10.677
51821SOL    HW157360   6.071  14.425  10.720
51821SOL    HW257361   5.982  14.361  10.616
51822SOL     OW57362   7.200   5.070   9.224
51822SOL    HW157363   7.209   5.057   9.318
51822SOL    HW257364   7.166   5.159   9.215
51823SOL     OW57365   1.648  14.434   4.203
51823SOL    HW157366   1.735  14.408   4.172
51823SOL    HW257367   1.628  14.370   4.271
51824SOL     OW57368  13.804   8.677  12.247
51824SOL    HW157369  13.771   8.765  12.265
51824SOL    HW257370  13.891   8.674  12.286
51825SOL     OW57371   8.705   8.999   8.846
51825SOL    HW157372   8.613   9.016   8.868
51825SOL    HW257373   8.717   8.906   8.861
51826SOL     OW57374   1.620   5.022   0.914
51826SOL    HW157375   1.563   5.085   0.960
51826SOL    HW257376   1.560   4.959   0.875
51827SOL     OW57377   9.265  12.289   5.621
51827SOL    HW157378   9.238  12.200   5.599
51827SOL    HW257379   9.204  12.345   5.572
51828SOL     OW57380   9.256   7.188  11.740
51828SOL    HW157381   9.195   7.170  11.669
51828SOL    HW257382   9.201   7.214  11.814
51829SOL     OW57383   0.579   0.859   8.161
51829SOL    HW157384   0.576   0.950   8.131
51829SOL    HW257385   0.488   0.837   8.178
51830SOL     OW57386  12.828   9.162   1.965
51830SOL    HW157387  12.923   9.166   1.976
51830SOL    HW257388  12.798   9.109   2.040
51831SOL     OW57389   5.944   2.026   7.858
51831SOL    HW157390   5.867   2.018   7.915
51831SOL    HW257391   5.910   2.009   7.770
51832SOL     OW57392   1.139  10.744  13.433
51832SOL    HW157393   1.233  10.734  13.416
51832SOL    HW257394   1.135  10.805  13.507
51833SOL     OW57395  13.247  12.939  13.283
51833SOL    HW157396  13.240  12.849  13.250
51833SOL    HW257397  13.157  12.965  13.302
51834SOL     OW57398   2.694   1.448   0.238
51834SOL    HW157399   2.767   1.487   0.285
51834SOL    HW257400   2.730   1.424   0.152
51835SOL     OW57401   2.512   7.382   8.681
51835SOL    HW157402   2.546   7.302   8.720
51835SOL    HW257403   2.589   7.427   8.645
51836SOL     OW57404   5.135   5.314  13.587
51836SOL    HW157405   5.078   5.389  13.568
51836SOL    HW257406   5.107   5.284  13.673
51837SOL     OW57407   5.792   9.363  14.326
51837SOL    HW157408   5.870   9.310  14.310
51837SOL    HW257409   5.726   9.326  14.268
51838SOL     OW57410  14.734  14.067  10.963
51838SOL    HW157411  14.709  14.112  11.044
51838SOL    HW257412  14.749  14.138  10.900
51839SOL     OW57413   8.759   2.274   2.018
51839SOL    HW157414   8.853   2.275   2.036
51839SOL    HW257415   8.723   2.343   2.074
51840SOL     OW57416  11.312   3.077   3.219
51840SOL    HW157417  11.369   3.071   3.142
51840SOL    HW257418  11.241   3.016   3.201
51841SOL     OW57419  12.831   1.946   6.880
51841SOL    HW157420  12.880   1.864   6.868
51841SOL    HW257421  12.784   1.957   6.797
51842SOL     OW57422   2.703  13.534   0.713
51842SOL    HW157423   2.651  13.457   0.737
51842SOL    HW257424   2.726  13.519   0.622
51843SOL     OW57425   6.988   9.372  14.223
51843SOL    HW157426   7.050   9.445  14.227
51843SOL    HW257427   6.936   9.381  14.303
51844SOL     OW57428   2.637   2.316  12.806
51844SOL    HW157429   2.663   2.307  12.714
51844SOL    HW257430   2.608   2.406  12.815
51845SOL     OW57431   4.301  11.597  10.760
51845SOL    HW157432   4.241  11.669  10.782
51845SOL    HW257433   4.271  11.524  10.813
51846SOL     OW57434   9.388   8.339   4.231
51846SOL    HW157435   9.476   8.377   4.222
51846SOL    HW257436   9.342   8.366   4.151
51847SOL     OW57437  12.968  10.844   0.560
51847SOL    HW157438  12.905  10.773   0.572
51847SOL    HW257439  12.932  10.895   0.487
51848SOL     OW57440   5.618   6.968  12.018
51848SOL    HW157441   5.586   7.009  11.938
51848SOL    HW257442   5.555   6.994  12.085
51849SOL     OW57443   9.940   5.982   2.800
51849SOL    HW157444  10.012   6.044   2.788
51849SOL    HW257445   9.982   5.896   2.803
51850SOL     OW57446   8.998   6.901   0.957
51850SOL    HW157447   9.063   6.867   1.018
51850SOL    HW257448   8.986   6.993   0.982
51851SOL     OW57449   6.184   1.340   2.475
51851SOL    HW157450   6.101   1.374   2.441
51851SOL    HW257451   6.248   1.359   2.407
51852SOL     OW57452   6.662   8.455   1.325
51852SOL    HW157453   6.573   8.423   1.341
51852SOL    HW257454   6.711   8.377   1.298
51853SOL     OW57455   8.663   6.635  10.859
51853SOL    HW157456   8.634   6.709  10.912
51853SOL    HW257457   8.746   6.608  10.898
51854SOL     OW57458   8.061  14.601   6.212
51854SOL    HW157459   8.145  14.577   6.175
51854SOL    HW257460   8.001  14.531   6.185
51855SOL     OW57461   0.278  13.586   8.927
51855SOL    HW157462   0.221  13.652   8.968
51855SOL    HW257463   0.365  13.625   8.931
51856SOL     OW57464   1.080   4.630   1.022
51856SOL    HW157465   1.028   4.579   0.959
51856SOL    HW257466   1.134   4.565   1.067
51857SOL     OW57467  10.778   7.181  11.287
51857SOL    HW157468  10.794   7.189  11.193
51857SOL    HW257469  10.862   7.203  11.328
51858SOL     OW57470   9.060  14.846   4.558
51858SOL    HW157471   9.057   0.051   4.599
51858SOL    HW257472   8.968  14.819   4.552
51859SOL     OW57473   3.664   2.474  12.225
51859SOL    HW157474   3.643   2.561  12.191
51859SOL    HW257475   3.604   2.462  12.299
51860SOL     OW57476   9.572  11.046   7.104
51860SOL    HW157477   9.511  11.002   7.045
51860SOL    HW257478   9.536  11.031   7.191
51861SOL     OW57479   1.161   7.568   4.014
51861SOL    HW157480   1.098   7.555   3.943
51861SOL    HW257481   1.179   7.480   4.047
51862SOL     OW57482   6.907   7.183   1.134
51862SOL    HW157483   6.978   7.119   1.141
51862SOL    HW257484   6.928   7.249   1.201
51863SOL     OW57485   5.709  13.771   7.582
51863SOL    HW157486   5.792  13.723   7.577
51863SOL    HW257487   5.693  13.801   7.493
51864SOL     OW57488   3.662   4.524  14.028
51864SOL    HW157489   3.611   4.451  13.991
51864SOL    HW257490   3.752   4.503  14.006
51865SOL     OW57491  11.501   5.967  11.443
51865SOL    HW157492  11.579   5.950  11.496
51865SOL    HW257493  11.439   5.900  11.471
51866SOL     OW57494  14.048  10.233   2.730
51866SOL    HW157495  13.993  10.288   2.673
51866SOL    HW257496  14.134  10.273   2.727
51867SOL     OW57497  11.181  11.229  10.452
51867SOL    HW157498  11.197  11.208  10.544
51867SOL    HW257499  11.196  11.323  10.445
51868SOL     OW57500  13.683   4.989  13.939
51868SOL    HW157501  13.721   4.993  14.026
51868SOL    HW257502  13.749   4.947  13.885
51869SOL     OW57503   7.336  11.678  13.333
51869SOL    HW157504   7.370  11.593  13.305
51869SOL    HW257505   7.361  11.684  13.425
51870SOL     OW57506   8.910   4.253   3.662
51870SOL    HW157507   8.957   4.213   3.735
51870SOL    HW257508   8.978   4.272   3.598
51871SOL     OW57509   1.930   0.683   9.814
51871SOL    HW157510   2.005   0.739   9.795
51871SOL    HW257511   1.968   0.598   9.837
51872SOL     OW57512   5.920   8.707   3.796
51872SOL    HW157513   5.976   8.776   3.831
51872SOL    HW257514   5.903   8.649   3.870
51873SOL     OW57515   1.962  11.529   9.781
51873SOL    HW157516   1.892  11.477   9.820
51873SOL    HW257517   1.941  11.532   9.688
51874SOL     OW57518  10.940   6.398   4.041
51874SOL    HW157519  10.963   6.484   4.077
51874SOL    HW257520  11.000   6.337   4.084
51875SOL     OW57521   1.880   1.338   6.583
51875SOL    HW157522   1.805   1.285   6.609
51875SOL    HW257523   1.920   1.367   6.665
51876SOL     OW57524  14.406  10.243   6.975
51876SOL    HW157525  14.418  10.331   7.009
51876SOL    HW257526  14.348  10.253   6.900
51877SOL     OW57527   4.616   2.565  13.939
51877SOL    HW157528   4.616   2.651  13.980
51877SOL    HW257529   4.596   2.582  13.847
51878SOL     OW57530  14.866   8.322  11.728
51878SOL    HW157531  14.855   8.402  11.781
51878SOL    HW257532   0.017   8.353  11.644
51879SOL     OW57533   8.314   7.987   6.559
51879SOL    HW157534   8.327   7.935   6.480
51879SOL    HW257535   8.400   7.987   6.602
51880SOL     OW57536  14.742  11.835   0.826
51880SOL    HW157537  14.806  11.780   0.872
51880SOL    HW257538  14.740  11.800   0.737
51881SOL     OW57539   2.869  13.410  11.812
51881SOL    HW157540   2.797  13.349  11.802
51881SOL    HW257541   2.875  13.455  11.728
51882SOL     OW57542   5.128   5.803   5.324
51882SOL    HW157543   5.137   5.892   5.360
51882SOL    HW257544   5.167   5.809   5.237
51883SOL     OW57545  14.279   8.121   0.678
51883SOL    HW157546  14.353   8.086   0.628
51883SOL    HW257547  14.318   8.190   0.732
51884SOL     OW57548   9.020   1.880   4.195
51884SOL    HW157549   8.954   1.821   4.158
51884SOL    HW257550   9.086   1.821   4.231
51885SOL     OW57551  14.200   4.237   9.550
51885SOL    HW157552  14.250   4.240   9.468
51885SOL    HW257553  14.253   4.285   9.613
51886SOL     OW57554   3.149  10.110   4.894
51886SOL    HW157555   3.101  10.159   4.828
51886SOL    HW257556   3.241  10.118   4.868
51887SOL     OW57557   5.863   3.855   8.902
51887SOL    HW157558   5.882   3.807   8.821
51887SOL    HW257559   5.947   3.857   8.948
51888SOL     OW57560   9.916   7.872  14.397
51888SOL    HW157561   9.985   7.937  14.406
51888SOL    HW257562   9.836   7.917  14.424
51889SOL     OW57563   9.941  13.658  10.438
51889SOL    HW157564   9.906  13.743  10.411
51889SOL    HW257565   9.864  13.600  10.438
51890SOL     OW57566   1.548   4.579  14.074
51890SOL    HW157567   1.500   4.575  13.991
51890SOL    HW257568   1.498   4.640  14.128
51891SOL     OW57569  11.164   2.182   6.104
51891SOL    HW157570  11.092   2.129   6.072
51891SOL    HW257571  11.128   2.231   6.178
51892SOL     OW57572   8.027   1.299   3.754
51892SOL    HW157573   8.013   1.353   3.676
51892SOL    HW257574   8.044   1.363   3.823
51893SOL     OW57575   5.786  11.446   6.050
51893SOL    HW157576   5.729  11.440   6.127
51893SOL    HW257577   5.868  11.405   6.078
51894SOL     OW57578   6.110   4.971   5.926
51894SOL    HW157579   6.041   5.007   5.983
51894SOL    HW257580   6.065   4.952   5.844
51895SOL     OW57581   7.117  13.486   4.336
51895SOL    HW157582   7.066  13.406   4.323
51895SOL    HW257583   7.056  13.547   4.379
51896SOL     OW57584  13.906   6.627   4.628
51896SOL    HW157585  13.947   6.636   4.713
51896SOL    HW257586  13.835   6.691   4.629
51897SOL     OW57587   8.831   9.265   2.878
51897SOL    HW157588   8.888   9.208   2.929
51897SOL    HW257589   8.747   9.265   2.925
51898SOL     OW57590   5.703   6.141   4.170
51898SOL    HW157591   5.693   6.235   4.156
51898SOL    HW257592   5.786   6.133   4.218
51899SOL     OW57593   3.045   4.509   3.621
51899SOL    HW157594   2.962   4.543   3.655
51899SOL    HW257595   3.019   4.448   3.552
51900SOL     OW57596   1.645   2.942  13.905
51900SOL    HW157597   1.565   2.960  13.955
51900SOL    HW257598   1.698   2.886  13.962
51901SOL     OW57599   0.286   0.853   0.214
51901SOL    HW157600   0.364   0.799   0.204
51901SOL    HW257601   0.292   0.886   0.304
51902SOL     OW57602  13.527   8.586   8.768
51902SOL    HW157603  13.538   8.672   8.727
51902SOL    HW257604  13.469   8.602   8.842
51903SOL     OW57605   8.961   8.657   7.072
51903SOL    HW157606   8.963   8.596   7.146
51903SOL    HW257607   8.968   8.602   6.995
51904SOL     OW57608   6.324   3.299  13.868
51904SOL    HW157609   6.367   3.380  13.839
51904SOL    HW257610   6.289   3.260  13.788
51905SOL     OW57611  11.585   8.348   7.629
51905SOL    HW157612  11.652   8.360   7.695
51905SOL    HW257613  11.627   8.298   7.559
51906SOL     OW57614   4.003   5.111  12.277
51906SOL    HW157615   3.998   5.152  12.191
51906SOL    HW257616   3.918   5.130  12.318
51907SOL     OW57617   7.018  14.176   2.827
51907SOL    HW157618   7.029  14.268   2.804
51907SOL    HW257619   6.942  14.147   2.778
51908SOL     OW57620   0.134   4.341  12.851
51908SOL    HW157621   0.228   4.355  12.850
51908SOL    HW257622   0.122   4.264  12.907
51909SOL     OW57623  11.646   5.930  10.580
51909SOL    HW157624  11.591   5.875  10.635
51909SOL    HW257625  11.736   5.906  10.603
51910SOL     OW57626  11.808   6.504   7.555
51910SOL    HW157627  11.863   6.547   7.621
51910SOL    HW257628  11.722   6.497   7.597
51911SOL     OW57629   2.156   7.332   4.123
51911SOL    HW157630   2.145   7.305   4.214
51911SOL    HW257631   2.226   7.276   4.090
51912SOL     OW57632   9.365   2.539  11.359
51912SOL    HW157633   9.448   2.587  11.363
51912SOL    HW257634   9.366   2.497  11.273
51913SOL     OW57635   2.365   1.193   4.821
51913SOL    HW157636   2.318   1.264   4.865
51913SOL    HW257637   2.385   1.131   4.892
51914SOL     OW57638   1.287   7.792   6.375
51914SOL    HW157639   1.231   7.751   6.309
51914SOL    HW257640   1.292   7.884   6.349
51915SOL     OW57641  10.864   6.385  14.664
51915SOL    HW157642  10.953   6.421  14.666
51915SOL    HW257643  10.854   6.350  14.575
51916SOL     OW57644  14.256   7.941   3.983
51916SOL    HW157645  14.316   8.012   3.959
51916SOL    HW257646  14.173   7.985   3.999
51917SOL     OW57647   4.165  12.771   4.044
51917SOL    HW157648   4.077  12.788   4.080
51917SOL    HW257649   4.173  12.831   3.971
51918SOL     OW57650   0.862   4.901   1.289
51918SOL    HW157651   0.787   4.873   1.238
51918SOL    HW257652   0.936   4.898   1.228
51919SOL     OW57653   4.235   8.688   5.657
51919SOL    HW157654   4.309   8.630   5.676
51919SOL    HW257655   4.250   8.716   5.567
51920SOL     OW57656  11.112   6.160   1.692
51920SOL    HW157657  11.191   6.116   1.663
51920SOL    HW257658  11.041   6.115   1.645
51921SOL     OW57659   7.082   4.550  11.610
51921SOL    HW157660   7.122   4.521  11.692
51921SOL    HW257661   6.994   4.512  11.612
51922SOL     OW57662  10.665   7.429  13.063
51922SOL    HW157663  10.612   7.379  13.126
51922SOL    HW257664  10.623   7.414  12.979
51923SOL     OW57665   8.131  14.389  10.539
51923SOL    HW157666   8.048  14.408  10.583
51923SOL    HW257667   8.167  14.314  10.587
51924SOL     OW57668   3.785   7.343   1.727
51924SOL    HW157669   3.832   7.366   1.647
51924SOL    HW257670   3.789   7.422   1.781
51925SOL     OW57671  11.883   8.283  14.413
51925SOL    HW157672  11.905   8.364  14.458
51925SOL    HW257673  11.826   8.310  14.341
51926SOL     OW57674   0.626   1.156   2.327
51926SOL    HW157675   0.562   1.089   2.305
51926SOL    HW257676   0.652   1.136   2.417
51927SOL     OW57677   8.967  13.132  11.822
51927SOL    HW157678   8.949  13.126  11.916
51927SOL    HW257679   9.057  13.164  11.817
51928SOL     OW57680   6.425   8.113   5.491
51928SOL    HW157681   6.374   8.035   5.515
51928SOL    HW257682   6.365   8.186   5.504
51929SOL     OW57683  14.781   2.231   8.273
51929SOL    HW157684  14.823   2.265   8.352
51929SOL    HW257685  14.699   2.193   8.304
51930SOL     OW57686   0.237   6.717   0.053
51930SOL    HW157687   0.288   6.773   0.111
51930SOL    HW257688   0.147   6.748   0.063
51931SOL     OW57689   4.931  12.156  12.665
51931SOL    HW157690   5.018  12.118  12.678
51931SOL    HW257691   4.896  12.111  12.588
51932SOL     OW57692   7.228   5.495   5.124
51932SOL    HW157693   7.298   5.553   5.155
51932SOL    HW257694   7.192   5.540   5.047
51933SOL     OW57695  12.147   6.864  10.763
51933SOL    HW157696  12.137   6.795  10.698
51933SOL    HW257697  12.110   6.942  10.721
51934SOL     OW57698  14.741   8.037   3.285
51934SOL    HW157699  14.720   8.010   3.374
51934SOL    HW257700  14.741   8.132   3.288
51935SOL     OW57701   8.019   4.336  11.747
51935SOL    HW157702   8.011   4.428  11.770
51935SOL    HW257703   7.941   4.295  11.784
51936SOL     OW57704   9.896   8.334   9.634
51936SOL    HW157705   9.991   8.340   9.624
51936SOL    HW257706   9.882   8.324   9.728
51937SOL     OW57707  11.624  12.250  11.880
51937SOL    HW157708  11.545  12.294  11.914
51937SOL    HW257709  11.655  12.308  11.810
51938SOL     OW57710   4.086  11.262   3.704
51938SOL    HW157711   4.140  11.217   3.769
51938SOL    HW257712   3.996  11.236   3.725
51939SOL     OW57713   1.439   8.479   7.473
51939SOL    HW157714   1.412   8.389   7.490
51939SOL    HW257715   1.487   8.504   7.552
51940SOL     OW57716   9.989   7.776   5.216
51940SOL    HW157717   9.905   7.752   5.253
51940SOL    HW257718  10.052   7.720   5.260
51941SOL     OW57719   1.203   5.398  12.969
51941SOL    HW157720   1.225   5.401  13.062
51941SOL    HW257721   1.284   5.421  12.924
51942SOL     OW57722   7.761  13.085   0.127
51942SOL    HW157723   7.836  13.127   0.169
51942SOL    HW257724   7.751  13.001   0.172
51943SOL     OW57725   7.167   2.497   0.818
51943SOL    HW157726   7.151   2.433   0.749
51943SOL    HW257727   7.126   2.577   0.787
51944SOL     OW57728  10.357   8.788   3.166
51944SOL    HW157729  10.277   8.736   3.176
51944SOL    HW257730  10.365   8.801   3.071
51945SOL     OW57731   4.052   6.584   8.782
51945SOL    HW157732   4.024   6.502   8.822
51945SOL    HW257733   4.147   6.586   8.792
51946SOL     OW57734   6.948  11.236   7.594
51946SOL    HW157735   7.032  11.273   7.621
51946SOL    HW257736   6.932  11.165   7.656
51947SOL     OW57737  14.134   2.105   1.809
51947SOL    HW157738  14.083   2.129   1.732
51947SOL    HW257739  14.148   2.010   1.800
51948SOL     OW57740   1.045  14.354  13.964
51948SOL    HW157741   1.077  14.427  14.017
51948SOL    HW257742   1.038  14.280  14.025
51949SOL     OW57743   9.132   8.815   1.456
51949SOL    HW157744   9.176   8.886   1.504
51949SOL    HW257745   9.073   8.860   1.396
51950SOL     OW57746   7.240  14.049  13.557
51950SOL    HW157747   7.198  13.963  13.545
51950SOL    HW257748   7.220  14.097  13.477
51951SOL     OW57749   2.107   7.377   0.344
51951SOL    HW157750   2.013   7.393   0.331
51951SOL    HW257751   2.148   7.409   0.264
51952SOL     OW57752   9.783   1.648   4.993
51952SOL    HW157753   9.846   1.610   5.054
51952SOL    HW257754   9.779   1.587   4.920
51953SOL     OW57755   4.575   5.707   0.134
51953SOL    HW157756   4.505   5.654   0.171
51953SOL    HW257757   4.597   5.770   0.202
51954SOL     OW57758  13.812   8.649  14.545
51954SOL    HW157759  13.772   8.654  14.458
51954SOL    HW257760  13.882   8.714  14.543
51955SOL     OW57761   6.775   5.919  13.009
51955SOL    HW157762   6.837   5.863  12.963
51955SOL    HW257763   6.723   5.960  12.939
51956SOL     OW57764   1.932   4.550   2.950
51956SOL    HW157765   2.021   4.531   2.921
51956SOL    HW257766   1.885   4.467   2.937
51957SOL     OW57767   4.548   6.665   7.869
51957SOL    HW157768   4.576   6.743   7.820
51957SOL    HW257769   4.486   6.622   7.811
51958SOL     OW57770   2.392  13.751   8.336
51958SOL    HW157771   2.396  13.656   8.345
51958SOL    HW257772   2.300  13.773   8.351
51959SOL     OW57773  10.621   7.078   9.092
51959SOL    HW157774  10.566   7.043   9.022
51959SOL    HW257775  10.581   7.162   9.114
51960SOL     OW57776   0.106   8.391   5.132
51960SOL    HW157777   0.181   8.368   5.187
51960SOL    HW257778   0.141   8.448   5.065
51961SOL     OW57779   2.658   9.986   3.051
51961SOL    HW157780   2.700  10.068   3.078
51961SOL    HW257781   2.641   9.940   3.133
51962SOL     OW57782   2.196  10.423   5.826
51962SOL    HW157783   2.140  10.461   5.895
51962SOL    HW257784   2.281  10.464   5.838
51963SOL     OW57785   1.055   1.942   7.362
51963SOL    HW157786   1.091   1.943   7.450
51963SOL    HW257787   1.130   1.961   7.305
51964SOL     OW57788  12.749  14.320  10.748
51964SOL    HW157789  12.732  14.283  10.662
51964SOL    HW257790  12.709  14.258  10.810
51965SOL     OW57791   8.123  10.348   9.532
51965SOL    HW157792   8.058  10.379   9.595
51965SOL    HW257793   8.087  10.369   9.446
51966SOL     OW57794  11.264   9.227   9.655
51966SOL    HW157795  11.262   9.131   9.652
51966SOL    HW257796  11.246   9.255   9.566
51967SOL     OW57797   6.545   9.601   8.489
51967SOL    HW157798   6.606   9.635   8.423
51967SOL    HW257799   6.575   9.640   8.571
51968SOL     OW57800  10.209   5.442   2.871
51968SOL    HW157801  10.281   5.497   2.901
51968SOL    HW257802  10.192   5.471   2.782
51969SOL     OW57803  11.755   5.469   7.696
51969SOL    HW157804  11.751   5.472   7.600
51969SOL    HW257805  11.829   5.411   7.715
51970SOL     OW57806   8.805  14.648   0.075
51970SOL    HW157807   8.836  14.558   0.087
51970SOL    HW257808   8.855  14.699   0.139
51971SOL     OW57809  10.216  13.743   1.899
51971SOL    HW157810  10.208  13.837   1.889
51971SOL    HW257811  10.135  13.717   1.944
51972SOL     OW57812   7.507   4.056   7.683
51972SOL    HW157813   7.427   4.073   7.633
51972SOL    HW257814   7.551   3.987   7.634
51973SOL     OW57815  12.569   0.462   1.466
51973SOL    HW157816  12.554   0.379   1.511
51973SOL    HW257817  12.639   0.504   1.516
51974SOL     OW57818   7.295   4.910   7.007
51974SOL    HW157819   7.215   4.924   7.056
51974SOL    HW257820   7.354   4.865   7.068
51975SOL     OW57821   5.782   1.717   2.302
51975SOL    HW157822   5.792   1.624   2.287
51975SOL    HW257823   5.869   1.754   2.284
51976SOL     OW57824   9.345   0.858   1.415
51976SOL    HW157825   9.325   0.878   1.506
51976SOL    HW257826   9.405   0.784   1.419
51977SOL     OW57827   8.315  13.963  10.845
51977SOL    HW157828   8.286  13.908  10.918
51977SOL    HW257829   8.331  14.049  10.885
51978SOL     OW57830   6.220   1.075   2.433
51978SOL    HW157831   6.196   1.167   2.443
51978SOL    HW257832   6.249   1.048   2.520
51979SOL     OW57833  13.291  12.100   3.343
51979SOL    HW157834  13.286  12.063   3.431
51979SOL    HW257835  13.239  12.180   3.347
51980SOL     OW57836   6.933   0.138   2.956
51980SOL    HW157837   6.905   0.224   2.987
51980SOL    HW257838   6.926   0.144   2.860
51981SOL     OW57839   8.416   8.361   9.520
51981SOL    HW157840   8.343   8.420   9.538
51981SOL    HW257841   8.374   8.281   9.487
51982SOL     OW57842   9.525   6.109   4.557
51982SOL    HW157843   9.534   6.142   4.468
51982SOL    HW257844   9.592   6.041   4.565
51983SOL     OW57845   1.610   8.241   3.152
51983SOL    HW157846   1.519   8.269   3.146
51983SOL    HW257847   1.656   8.295   3.088
51984SOL     OW57848   3.965  10.632   0.383
51984SOL    HW157849   3.971  10.614   0.289
51984SOL    HW257850   3.981  10.548   0.425
51985SOL     OW57851   8.169   4.528  14.572
51985SOL    HW157852   8.127   4.584  14.506
51985SOL    HW257853   8.251   4.574  14.592
51986SOL     OW57854   5.302   6.896   8.731
51986SOL    HW157855   5.325   6.821   8.675
51986SOL    HW257856   5.367   6.962   8.710
51987SOL     OW57857   8.232   8.876   8.846
51987SOL    HW157858   8.208   8.847   8.758
51987SOL    HW257859   8.156   8.855   8.900
51988SOL     OW57860   8.702  10.538   1.052
51988SOL    HW157861   8.624  10.484   1.042
51988SOL    HW257862   8.775  10.479   1.034
51989SOL     OW57863  10.646  10.967  14.130
51989SOL    HW157864  10.664  10.999  14.041
51989SOL    HW257865  10.612  10.878  14.116
51990SOL     OW57866  12.066   3.494   2.407
51990SOL    HW157867  12.038   3.521   2.320
51990SOL    HW257868  12.072   3.576   2.457
51991SOL     OW57869   0.387   3.267   3.312
51991SOL    HW157870   0.392   3.180   3.274
51991SOL    HW257871   0.313   3.262   3.373
51992SOL     OW57872   5.871   6.800   6.566
51992SOL    HW157873   5.954   6.820   6.609
51992SOL    HW257874   5.810   6.782   6.638
51993SOL     OW57875   9.064   0.312   9.815
51993SOL    HW157876   9.101   0.384   9.865
51993SOL    HW257877   8.971   0.333   9.807
51994SOL     OW57878   7.966   1.997   3.031
51994SOL    HW157879   8.008   1.948   3.102
51994SOL    HW257880   7.939   2.079   3.073
51995SOL     OW57881  10.614  13.571   2.407
51995SOL    HW157882  10.653  13.649   2.367
51995SOL    HW257883  10.540  13.604   2.458
51996SOL     OW57884  11.138  11.399   8.298
51996SOL    HW157885  11.218  11.396   8.244
51996SOL    HW257886  11.170  11.416   8.386
51997SOL     OW57887  10.877   8.694  10.559
51997SOL    HW157888  10.852   8.772  10.610
51997SOL    HW257889  10.794   8.658  10.528
51998SOL     OW57890  12.283   7.271  14.531
51998SOL    HW157891  12.200   7.288  14.576
51998SOL    HW257892  12.350   7.303  14.592
51999SOL     OW57893   3.529  13.937   6.782
51999SOL    HW157894   3.492  13.863   6.733
51999SOL    HW257895   3.591  13.978   6.721
52000SOL     OW57896   9.654   8.165   1.647
52000SOL    HW157897   9.618   8.156   1.559
52000SOL    HW257898   9.581   8.196   1.700
52001SOL     OW57899   5.579   0.784   6.507
52001SOL    HW157900   5.521   0.770   6.583
52001SOL    HW257901   5.660   0.740   6.531
52002SOL     OW57902   6.134  10.966   4.782
52002SOL    HW157903   6.212  10.915   4.760
52002SOL    HW257904   6.122  10.953   4.876
52003SOL     OW57905  13.953   6.980   3.613
52003SOL    HW157906  13.908   7.028   3.682
52003SOL    HW257907  14.046   6.988   3.633
52004SOL     OW57908  11.233   8.304  12.665
52004SOL    HW157909  11.190   8.265  12.741
52004SOL    HW257910  11.181   8.382  12.646
52005SOL     OW57911  14.194   0.871   1.756
52005SOL    HW157912  14.210   0.934   1.685
52005SOL    HW257913  14.128   0.812   1.720
52006SOL     OW57914   7.554   9.865  11.903
52006SOL    HW157915   7.476   9.860  11.958
52006SOL    HW257916   7.624   9.831  11.958
52007SOL     OW57917  12.029   8.812   2.114
52007SOL    HW157918  12.026   8.787   2.206
52007SOL    HW257919  12.115   8.854   2.103
52008SOL     OW57920   5.630   8.483  11.142
52008SOL    HW157921   5.725   8.491  11.153
52008SOL    HW257922   5.612   8.391  11.159
52009SOL     OW57923   5.875   3.231   1.378
52009SOL    HW157924   5.820   3.189   1.312
52009SOL    HW257925   5.915   3.305   1.334
52010SOL     OW57926  14.331  14.392   4.790
52010SOL    HW157927  14.368  14.437   4.866
52010SOL    HW257928  14.286  14.316   4.827
52011SOL     OW57929   6.332  11.758   4.465
52011SOL    HW157930   6.247  11.802   4.464
52011SOL    HW257931   6.366  11.774   4.554
52012SOL     OW57932   6.318   7.811   1.084
52012SOL    HW157933   6.407   7.777   1.084
52012SOL    HW257934   6.269   7.747   1.136
52013SOL     OW57935   7.033   3.530   6.779
52013SOL    HW157936   6.969   3.486   6.835
52013SOL    HW257937   7.104   3.554   6.839
52014SOL     OW57938   3.153  12.805  10.746
52014SOL    HW157939   3.208  12.738  10.705
52014SOL    HW257940   3.110  12.849  10.672
52015SOL     OW57941   0.746   9.911   3.914
52015SOL    HW157942   0.807   9.985   3.917
52015SOL    HW257943   0.688   9.931   3.840
52016SOL     OW57944  11.194   2.667   3.962
52016SOL    HW157945  11.125   2.670   4.029
52016SOL    HW257946  11.228   2.578   3.967
52017SOL     OW57947   8.938   0.697   6.781
52017SOL    HW157948   8.995   0.720   6.708
52017SOL    HW257949   8.863   0.654   6.740
52018SOL     OW57950  11.853   3.359  13.226
52018SOL    HW157951  11.865   3.354  13.132
52018SOL    HW257952  11.871   3.451  13.247
52019SOL     OW57953  13.061   5.831   2.799
52019SOL    HW157954  13.007   5.905   2.772
52019SOL    HW257955  13.147   5.850   2.762
52020SOL     OW57956   8.786   3.610  11.288
52020SOL    HW157957   8.807   3.529  11.242
52020SOL    HW257958   8.783   3.586  11.380
52021SOL     OW57959   8.303   1.724  14.851
52021SOL    HW157960   8.377   1.692  14.799
52021SOL    HW257961   8.241   1.758  14.786
52022SOL     OW57962   3.882   1.782   8.617
52022SOL    HW157963   3.810   1.724   8.593
52022SOL    HW257964   3.900   1.761   8.709
52023SOL     OW57965   6.351   6.706   9.394
52023SOL    HW157966   6.354   6.752   9.478
52023SOL    HW257967   6.262   6.672   9.389
52024SOL     OW57968  14.247   7.437  13.315
52024SOL    HW157969  14.339   7.461  13.328
52024SOL    HW257970  14.226   7.468  13.227
52025SOL     OW57971   7.534  11.043   4.626
52025SOL    HW157972   7.543  11.137   4.607
52025SOL    HW257973   7.618  11.006   4.602
52026SOL     OW57974  11.009   1.066   6.775
52026SOL    HW157975  10.981   1.130   6.709
52026SOL    HW257976  11.073   1.113   6.829
52027SOL     OW57977  13.176   2.478   9.102
52027SOL    HW157978  13.203   2.458   9.192
52027SOL    HW257979  13.083   2.454   9.100
52028SOL     OW57980  10.760   5.871  12.902
52028SOL    HW157981  10.761   5.780  12.874
52028SOL    HW257982  10.852   5.892  12.920
52029SOL     OW57983   8.569   9.885   9.750
52029SOL    HW157984   8.504   9.909   9.684
52029SOL    HW257985   8.646   9.938   9.730
52030SOL     OW57986  11.287   6.172  13.932
52030SOL    HW157987  11.246   6.103  13.983
52030SOL    HW257988  11.340   6.126  13.867
52031SOL     OW57989  13.592   4.686  13.294
52031SOL    HW157990  13.592   4.758  13.232
52031SOL    HW257991  13.519   4.706  13.353
52032SOL     OW57992   1.152   7.162   7.379
52032SOL    HW157993   1.182   7.110   7.304
52032SOL    HW257994   1.209   7.135   7.451
52033SOL     OW57995   5.435   5.333   0.076
52033SOL    HW157996   5.469   5.321   0.165
52033SOL    HW257997   5.492   5.400   0.037
52034SOL     OW57998   5.105   2.064  10.450
52034SOL    HW157999   5.174   2.019  10.499
52034SOL    HW258000   5.032   2.001  10.449
52035SOL     OW58001   0.778   8.410  10.954
52035SOL    HW158002   0.797   8.458  10.874
52035SOL    HW258003   0.775   8.318  10.928
52036SOL     OW58004   9.732   4.366   4.757
52036SOL    HW158005   9.648   4.351   4.801
52036SOL    HW258006   9.713   4.438   4.696
52037SOL     OW58007  13.793   4.120  10.065
52037SOL    HW158008  13.887   4.107  10.058
52037SOL    HW258009  13.760   4.039  10.104
52038SOL     OW58010   2.917  10.462   3.105
52038SOL    HW158011   2.891  10.548   3.140
52038SOL    HW258012   3.001  10.444   3.148
52039SOL     OW58013   5.116  13.569   6.160
52039SOL    HW158014   5.195  13.614   6.190
52039SOL    HW258015   5.142  13.478   6.151
52040SOL     OW58016  14.237   6.631  11.892
52040SOL    HW158017  14.248   6.722  11.922
52040SOL    HW258018  14.144   6.624  11.871
52041SOL     OW58019   2.086   0.404   6.928
52041SOL    HW158020   2.016   0.432   6.869
52041SOL    HW258021   2.165   0.407   6.875
52042SOL     OW58022   5.375   6.450  13.203
52042SOL    HW158023   5.466   6.430  13.183
52042SOL    HW258024   5.325   6.393  13.144
52043SOL     OW58025  12.220  13.331   3.938
52043SOL    HW158026  12.254  13.421   3.935
52043SOL    HW258027  12.193  13.319   4.029
52044SOL     OW58028   0.342   1.191   1.303
52044SOL    HW158029   0.280   1.192   1.230
52044SOL    HW258030   0.424   1.159   1.266
52045SOL     OW58031   3.171   4.536  14.850
52045SOL    HW158032   3.266   4.537  14.843
52045SOL    HW258033   3.152   4.593   0.043
52046SOL     OW58034   4.001   7.837   8.325
52046SOL    HW158035   4.090   7.854   8.355
52046SOL    HW258036   3.950   7.830   8.406
52047SOL     OW58037  13.687   2.552   5.152
52047SOL    HW158038  13.651   2.483   5.096
52047SOL    HW258039  13.769   2.516   5.185
52048SOL     OW58040  13.792   8.052   7.537
52048SOL    HW158041  13.830   8.139   7.552
52048SOL    HW258042  13.698   8.069   7.526
52049SOL     OW58043   8.519   6.689   8.406
52049SOL    HW158044   8.477   6.747   8.470
52049SOL    HW258045   8.492   6.725   8.321
52050SOL     OW58046   1.125   2.141   7.584
52050SOL    HW158047   1.099   2.168   7.672
52050SOL    HW258048   1.219   2.126   7.590
52051SOL     OW58049   9.712   7.304   5.165
52051SOL    HW158050   9.650   7.364   5.205
52051SOL    HW258051   9.693   7.219   5.205
52052SOL     OW58052   2.331  12.608  14.735
52052SOL    HW158053   2.340  12.649  14.821
52052SOL    HW258054   2.318  12.515  14.754
52053SOL     OW58055   9.290  14.104  14.161
52053SOL    HW158056   9.293  14.193  14.126
52053SOL    HW258057   9.363  14.100  14.223
52054SOL     OW58058  12.173  13.390   9.837
52054SOL    HW158059  12.251  13.359   9.882
52054SOL    HW258060  12.128  13.310   9.810
52055SOL     OW58061   6.722  11.539   8.091
52055SOL    HW158062   6.677  11.618   8.121
52055SOL    HW258063   6.651  11.476   8.077
52056SOL     OW58064  10.773   3.176   2.610
52056SOL    HW158065  10.713   3.186   2.683
52056SOL    HW258066  10.718   3.189   2.532
52057SOL     OW58067  13.719   1.027  13.553
52057SOL    HW158068  13.629   1.013  13.523
52057SOL    HW258069  13.767   0.950  13.523
52058SOL     OW58070   5.460   8.056   5.014
52058SOL    HW158071   5.418   7.976   5.045
52058SOL    HW258072   5.430   8.124   5.074
52059SOL     OW58073   9.388  14.288   0.303
52059SOL    HW158074   9.394  14.364   0.244
52059SOL    HW258075   9.479  14.270   0.327
52060SOL     OW58076   2.126   9.208   5.213
52060SOL    HW158077   2.054   9.147   5.234
52060SOL    HW258078   2.200   9.151   5.194
52061SOL     OW58079   6.303   6.731  11.053
52061SOL    HW158080   6.267   6.773  11.131
52061SOL    HW258081   6.233   6.736  10.989
52062SOL     OW58082   8.400   8.563   5.290
52062SOL    HW158083   8.491   8.561   5.319
52062SOL    HW258084   8.368   8.650   5.317
52063SOL     OW58085   3.560   4.160   9.403
52063SOL    HW158086   3.619   4.114   9.343
52063SOL    HW258087   3.607   4.240   9.426
52064SOL     OW58088   7.475  10.331   7.103
52064SOL    HW158089   7.561  10.370   7.086
52064SOL    HW258090   7.467  10.261   7.038
52065SOL     OW58091   1.291  12.579   5.665
52065SOL    HW158092   1.287  12.491   5.627
52065SOL    HW258093   1.318  12.635   5.592
52066SOL     OW58094  10.809   4.101  14.042
52066SOL    HW158095  10.855   4.065  13.966
52066SOL    HW258096  10.799   4.027  14.102
52067SOL     OW58097   3.400  12.270  11.841
52067SOL    HW158098   3.478  12.260  11.787
52067SOL    HW258099   3.327  12.274  11.779
52068SOL     OW58100   3.302   1.010   2.895
52068SOL    HW158101   3.300   0.919   2.867
52068SOL    HW258102   3.212   1.031   2.917
52069SOL     OW58103   5.056   1.803  14.639
52069SOL    HW158104   4.989   1.779  14.575
52069SOL    HW258105   5.012   1.797  14.723
52070SOL     OW58106   2.130   3.383   3.586
52070SOL    HW158107   2.080   3.403   3.507
52070SOL    HW258108   2.119   3.460   3.642
52071SOL     OW58109   0.721   3.464  14.488
52071SOL    HW158110   0.816   3.475  14.498
52071SOL    HW258111   0.705   3.474  14.394
52072SOL     OW58112   5.576   7.309  10.506
52072SOL    HW158113   5.622   7.230  10.533
52072SOL    HW258114   5.641   7.360  10.458
52073SOL     OW58115  10.219   4.744   4.899
52073SOL    HW158116  10.285   4.812   4.914
52073SOL    HW258117  10.267   4.670   4.863
52074SOL     OW58118   4.592   3.597   9.742
52074SOL    HW158119   4.535   3.641   9.679
52074SOL    HW258120   4.534   3.566   9.811
52075SOL     OW58121  14.385   3.243   3.798
52075SOL    HW158122  14.372   3.152   3.769
52075SOL    HW258123  14.381   3.238   3.894
52076SOL     OW58124   1.655   2.451  14.630
52076SOL    HW158125   1.700   2.479  14.550
52076SOL    HW258126   1.723   2.410  14.683
52077SOL     OW58127   0.686   0.219  14.364
52077SOL    HW158128   0.608   0.270  14.346
52077SOL    HW258129   0.758   0.282  14.360
52078SOL     OW58130   6.649   7.303   0.275
52078SOL    HW158131   6.624   7.211   0.287
52078SOL    HW258132   6.723   7.315   0.334
52079SOL     OW58133   5.431  11.185  14.861
52079SOL    HW158134   5.524  11.171   0.001
52079SOL    HW258135   5.404  11.102  14.821
52080SOL     OW58136  11.009  14.371   6.607
52080SOL    HW158137  11.021  14.395   6.699
52080SOL    HW258138  10.949  14.296   6.609
52081SOL     OW58139   4.033  10.402   5.330
52081SOL    HW158140   4.028  10.402   5.235
52081SOL    HW258141   3.943  10.385   5.359
52082SOL     OW58142   8.023  13.094   8.767
52082SOL    HW158143   8.061  13.049   8.691
52082SOL    HW258144   8.019  13.028   8.835
52083SOL     OW58145   6.820   6.707  11.859
52083SOL    HW158146   6.737   6.720  11.905
52083SOL    HW258147   6.853   6.796  11.844
52084SOL     OW58148   3.185   6.385   3.737
52084SOL    HW158149   3.262   6.349   3.693
52084SOL    HW258150   3.111   6.358   3.682
52085SOL     OW58151   5.891   3.423   7.282
52085SOL    HW158152   5.827   3.381   7.224
52085SOL    HW258153   5.904   3.361   7.353
52086SOL     OW58154   7.206   4.729   0.770
52086SOL    HW158155   7.245   4.724   0.683
52086SOL    HW258156   7.214   4.641   0.805
52087SOL     OW58157   2.560  13.830   4.085
52087SOL    HW158158   2.574  13.844   3.991
52087SOL    HW258159   2.568  13.917   4.124
52088SOL     OW58160   4.255   1.642  10.546
52088SOL    HW158161   4.213   1.728  10.554
52088SOL    HW258162   4.211   1.601  10.471
52089SOL     OW58163   6.696  13.527   2.158
52089SOL    HW158164   6.737  13.570   2.232
52089SOL    HW258165   6.683  13.597   2.094
52090SOL     OW58166   9.077  12.383   0.869
52090SOL    HW158167   8.985  12.379   0.842
52090SOL    HW258168   9.075  12.430   0.952
52091SOL     OW58169   2.197   5.788   0.694
52091SOL    HW158170   2.194   5.855   0.625
52091SOL    HW258171   2.289   5.787   0.722
52092SOL     OW58172   4.053  11.272  14.460
52092SOL    HW158173   4.099  11.209  14.515
52092SOL    HW258174   4.000  11.322  14.521
52093SOL     OW58175  14.348   2.059  14.789
52093SOL    HW158176  14.268   2.027  14.830
52093SOL    HW258177  14.378   1.987  14.734
52094SOL     OW58178   5.527  12.287  11.432
52094SOL    HW158179   5.607  12.288  11.483
52094SOL    HW258180   5.556  12.278  11.341
52095SOL     OW58181  13.705   8.880   3.612
52095SOL    HW158182  13.678   8.791   3.588
52095SOL    HW258183  13.690   8.885   3.707
52096SOL     OW58184   9.493   3.346  11.027
52096SOL    HW158185   9.464   3.258  11.052
52096SOL    HW258186   9.549   3.374  11.099
52097SOL     OW58187   0.361  11.498   9.000
52097SOL    HW158188   0.327  11.507   9.089
52097SOL    HW258189   0.311  11.426   8.962
52098SOL     OW58190   4.180  13.715  11.591
52098SOL    HW158191   4.162  13.670  11.508
52098SOL    HW258192   4.271  13.696  11.609
52099SOL     OW58193  12.337  11.023   5.161
52099SOL    HW158194  12.425  11.004   5.126
52099SOL    HW258195  12.286  11.047   5.084
52100SOL     OW58196  13.462   8.270   5.032
52100SOL    HW158197  13.391   8.209   5.011
52100SOL    HW258198  13.542   8.224   5.007
52101SOL     OW58199   8.493   3.498   4.717
52101SOL    HW158200   8.488   3.588   4.684
52101SOL    HW258201   8.442   3.499   4.798
52102SOL     OW58202   2.515   0.941   2.797
52102SOL    HW158203   2.588   0.951   2.735
52102SOL    HW258204   2.530   0.856   2.839
52103SOL     OW58205  12.227   4.009   0.189
52103SOL    HW158206  12.291   4.075   0.212
52103SOL    HW258207  12.267   3.926   0.216
52104SOL     OW58208  13.765   3.311   0.305
52104SOL    HW158209  13.850   3.276   0.333
52104SOL    HW258210  13.786   3.365   0.229
52105SOL     OW58211   5.425   8.716   8.950
52105SOL    HW158212   5.478   8.643   8.980
52105SOL    HW258213   5.481   8.793   8.963
52106SOL     OW58214   6.726   8.842   3.203
52106SOL    HW158215   6.726   8.749   3.224
52106SOL    HW258216   6.655   8.879   3.256
52107SOL     OW58217   5.557   1.559   9.273
52107SOL    HW158218   5.463   1.575   9.270
52107SOL    HW258219   5.597   1.639   9.240
52108SOL     OW58220  12.824  10.284  13.234
52108SOL    HW158221  12.779  10.217  13.285
52108SOL    HW258222  12.759  10.353  13.221
52109SOL     OW58223   7.402   8.874   8.075
52109SOL    HW158224   7.489   8.834   8.072
52109SOL    HW258225   7.342   8.802   8.054
52110SOL     OW58226  10.464   5.345  12.207
52110SOL    HW158227  10.521   5.270  12.190
52110SOL    HW258228  10.376   5.314  12.187
52111SOL     OW58229  13.717   5.395   3.850
52111SOL    HW158230  13.642   5.446   3.881
52111SOL    HW258231  13.728   5.420   3.759
52112SOL     OW58232  11.174   3.579  13.759
52112SOL    HW158233  11.209   3.667  13.771
52112SOL    HW258234  11.171   3.542  13.848
52113SOL     OW58235  13.149  10.880   7.060
52113SOL    HW158236  13.071  10.931   7.083
52113SOL    HW258237  13.116  10.791   7.045
52114SOL     OW58238   7.262   0.939  10.664
52114SOL    HW158239   7.315   0.962  10.740
52114SOL    HW258240   7.174   0.925  10.699
52115SOL     OW58241   0.427   8.994   2.025
52115SOL    HW158242   0.412   9.062   1.958
52115SOL    HW258243   0.339   8.970   2.055
52116SOL     OW58244   0.430   4.672   8.865
52116SOL    HW158245   0.408   4.582   8.843
52116SOL    HW258246   0.466   4.709   8.784
52117SOL     OW58247  12.880  13.763   3.020
52117SOL    HW158248  12.958  13.710   3.035
52117SOL    HW258249  12.835  13.764   3.105
52118SOL     OW58250   8.276   2.994   9.477
52118SOL    HW158251   8.267   2.967   9.568
52118SOL    HW258252   8.193   2.968   9.436
52119SOL     OW58253  10.035  12.842  11.836
52119SOL    HW158254  10.059  12.769  11.893
52119SOL    HW258255   9.963  12.808  11.782
52120SOL     OW58256  13.749   1.968   4.115
52120SOL    HW158257  13.782   1.966   4.204
52120SOL    HW258258  13.666   2.016   4.120
52121SOL     OW58259   2.928   9.286   0.173
52121SOL    HW158260   3.016   9.251   0.180
52121SOL    HW258261   2.872   9.221   0.216
52122SOL     OW58262   4.949  12.017   7.439
52122SOL    HW158263   4.859  11.988   7.422
52122SOL    HW258264   4.941  12.080   7.510
52123SOL     OW58265   0.164  13.682   5.161
52123SOL    HW158266   0.182  13.644   5.075
52123SOL    HW258267   0.248  13.716   5.190
52124SOL     OW58268   6.179   3.776   7.413
52124SOL    HW158269   6.107   3.779   7.350
52124SOL    HW258270   6.146   3.723   7.486
52125SOL     OW58271   2.546  14.069   4.256
52125SOL    HW158272   2.591  14.025   4.328
52125SOL    HW258273   2.516  14.152   4.293
52126SOL     OW58274  11.108   6.746   8.546
52126SOL    HW158275  11.136   6.682   8.611
52126SOL    HW258276  11.172   6.739   8.475
52127SOL     OW58277  13.698  10.089   2.205
52127SOL    HW158278  13.630  10.120   2.145
52127SOL    HW258279  13.740  10.017   2.157
52128SOL     OW58280   5.323   9.297   2.986
52128SOL    HW158281   5.283   9.377   3.018
52128SOL    HW258282   5.277   9.227   3.033
52129SOL     OW58283   8.648  10.137   3.888
52129SOL    HW158284   8.689  10.069   3.836
52129SOL    HW258285   8.595  10.089   3.953
52130SOL     OW58286   1.707  11.110  10.334
52130SOL    HW158287   1.613  11.121  10.350
52130SOL    HW258288   1.749  11.170  10.395
52131SOL     OW58289   3.596  11.114   8.655
52131SOL    HW158290   3.577  11.176   8.583
52131SOL    HW258291   3.551  11.034   8.630
52132SOL     OW58292  14.801   4.731   0.843
52132SOL    HW158293  14.784   4.681   0.922
52132SOL    HW258294  14.846   4.669   0.785
52133SOL     OW58295   8.947   7.141   8.749
52133SOL    HW158296   8.880   7.084   8.787
52133SOL    HW258297   9.016   7.144   8.815
52134SOL     OW58298   0.857   8.007  12.878
52134SOL    HW158299   0.908   7.999  12.797
52134SOL    HW258300   0.806   7.926  12.882
52135SOL     OW58301   3.323  10.312  14.876
52135SOL    HW158302   3.299  10.221   0.010
52135SOL    HW258303   3.297  10.328  14.785
52136SOL     OW58304   4.704   5.019   2.212
52136SOL    HW158305   4.674   5.044   2.299
52136SOL    HW258306   4.796   4.995   2.223
52137SOL     OW58307   1.426  11.764  13.177
52137SOL    HW158308   1.473  11.748  13.259
52137SOL    HW258309   1.334  11.775  13.204
52138SOL     OW58310  11.895  12.571  10.671
52138SOL    HW158311  11.885  12.650  10.619
52138SOL    HW258312  11.977  12.583  10.719
52139SOL     OW58313  13.102   0.447   7.460
52139SOL    HW158314  13.195   0.468   7.466
52139SOL    HW258315  13.095   0.360   7.499
52140SOL     OW58316  10.523   3.074   5.386
52140SOL    HW158317  10.428   3.074   5.397
52140SOL    HW258318  10.546   3.166   5.367
52141SOL     OW58319  10.338   4.460   3.703
52141SOL    HW158320  10.268   4.395   3.698
52141SOL    HW258321  10.417   4.411   3.679
52142SOL     OW58322  12.320  14.063   7.551
52142SOL    HW158323  12.410  14.061   7.518
52142SOL    HW258324  12.298  13.971   7.565
52143SOL     OW58325   1.501   7.397  11.674
52143SOL    HW158326   1.562   7.354  11.734
52143SOL    HW258327   1.545   7.477  11.648
52144SOL     OW58328   9.466   7.070   8.178
52144SOL    HW158329   9.388   7.035   8.222
52144SOL    HW258330   9.459   7.165   8.189
52145SOL     OW58331   6.650  14.327   0.466
52145SOL    HW158332   6.605  14.346   0.384
52145SOL    HW258333   6.724  14.388   0.468
52146SOL     OW58334   2.960  13.067  11.995
52146SOL    HW158335   2.956  12.994  12.056
52146SOL    HW258336   2.869  13.093  11.982
52147SOL     OW58337   4.161   0.251  12.976
52147SOL    HW158338   4.179   0.163  12.944
52147SOL    HW258339   4.233   0.269  13.037
52148SOL     OW58340  14.002   1.156   1.834
52148SOL    HW158341  13.993   1.078   1.888
52148SOL    HW258342  13.948   1.139   1.757
52149SOL     OW58343   6.728  14.387   2.446
52149SOL    HW158344   6.719  14.422   2.534
52149SOL    HW258345   6.743  14.463   2.391
52150SOL     OW58346   8.141   8.267   4.586
52150SOL    HW158347   8.171   8.354   4.559
52150SOL    HW258348   8.100   8.281   4.671
52151SOL     OW58349   6.987   2.344  10.078
52151SOL    HW158350   6.976   2.288  10.154
52151SOL    HW258351   6.899   2.374  10.057
52152SOL     OW58352   0.726   2.903   0.053
52152SOL    HW158353   0.660   2.881  14.869
52152SOL    HW258354   0.796   2.946   0.003
52153SOL     OW58355  12.662  14.449   4.316
52153SOL    HW158356  12.716  14.412   4.247
52153SOL    HW258357  12.578  14.468   4.273
52154SOL     OW58358  13.412   1.778   4.655
52154SOL    HW158359  13.385   1.773   4.564
52154SOL    HW258360  13.332   1.797   4.703
52155SOL     OW58361   0.069  13.622  14.830
52155SOL    HW158362   0.117  13.608   0.030
52155SOL    HW258363   0.011  13.547  14.823
52156SOL     OW58364   0.870   3.570   8.110
52156SOL    HW158365   0.936   3.561   8.179
52156SOL    HW258366   0.830   3.655   8.126
52157SOL     OW58367  12.854   5.439   6.508
52157SOL    HW158368  12.923   5.424   6.573
52157SOL    HW258369  12.780   5.387   6.539
52158SOL     OW58370   6.515   1.108  10.316
52158SOL    HW158371   6.605   1.139  10.320
52158SOL    HW258372   6.462   1.186  10.331
52159SOL     OW58373  12.250   7.346  14.261
52159SOL    HW158374  12.187   7.418  14.263
52159SOL    HW258375  12.280   7.338  14.351
52160SOL     OW58376  12.709  10.179  13.790
52160SOL    HW158377  12.647  10.202  13.721
52160SOL    HW258378  12.795  10.190  13.750
52161SOL     OW58379   7.158   0.437  12.063
52161SOL    HW158380   7.069   0.457  12.034
52161SOL    HW258381   7.153   0.438  12.158
52162SOL     OW58382   8.260  14.872   8.634
52162SOL    HW158383   8.177  14.843   8.671
52162SOL    HW258384   8.236   0.047   8.561
52163SOL     OW58385   6.014   1.646   0.836
52163SOL    HW158386   5.953   1.674   0.905
52163SOL    HW258387   6.051   1.728   0.803
52164SOL     OW58388   5.063  13.892  14.554
52164SOL    HW158389   5.129  13.839  14.599
52164SOL    HW258390   4.980  13.861  14.588
52165SOL     OW58391  11.361   9.300   2.649
52165SOL    HW158392  11.406   9.341   2.575
52165SOL    HW258393  11.431   9.282   2.712
52166SOL     OW58394  11.407   0.521  12.045
52166SOL    HW158395  11.488   0.571  12.041
52166SOL    HW258396  11.427   0.447  12.102
52167SOL     OW58397  10.549  13.019   8.411
52167SOL    HW158398  10.513  13.001   8.324
52167SOL    HW258399  10.629  13.069   8.394
52168SOL     OW58400  14.637   1.097  14.555
52168SOL    HW158401  14.691   1.173  14.576
52168SOL    HW258402  14.552   1.116  14.594
52169SOL     OW58403   3.751   9.070   3.129
52169SOL    HW158404   3.714   9.126   3.197
52169SOL    HW258405   3.845   9.083   3.136
52170SOL     OW58406  11.235   8.818   8.500
52170SOL    HW158407  11.246   8.732   8.459
52170SOL    HW258408  11.154   8.852   8.463
52171SOL     OW58409  14.704   6.571  10.104
52171SOL    HW158410  14.798   6.552  10.111
52171SOL    HW258411  14.688   6.581  10.010
52172SOL     OW58412   9.379  11.170  12.598
52172SOL    HW158413   9.429  11.248  12.623
52172SOL    HW258414   9.401  11.156  12.506
52173SOL     OW58415  13.758   0.522  14.582
52173SOL    HW158416  13.828   0.542  14.520
52173SOL    HW258417  13.725   0.437  14.554
52174SOL     OW58418   6.941   2.072   3.551
52174SOL    HW158419   6.906   2.134   3.614
52174SOL    HW258420   6.906   1.988   3.577
52175SOL     OW58421  12.621   6.797  14.788
52175SOL    HW158422  12.537   6.808  14.743
52175SOL    HW258423  12.617   6.858  14.861
52176SOL     OW58424  10.516   8.909   0.973
52176SOL    HW158425  10.489   8.830   1.020
52176SOL    HW258426  10.567   8.959   1.038
52177SOL     OW58427   4.616   3.294  12.779
52177SOL    HW158428   4.710   3.309  12.769
52177SOL    HW258429   4.581   3.377  12.810
52178SOL     OW58430   4.515   1.923   6.655
52178SOL    HW158431   4.511   1.829   6.637
52178SOL    HW258432   4.606   1.939   6.680
52179SOL     OW58433   3.113  12.543   8.921
52179SOL    HW158434   3.125  12.491   9.000
52179SOL    HW258435   3.097  12.632   8.953
52180SOL     OW58436  11.303  14.220   1.826
52180SOL    HW158437  11.384  14.223   1.876
52180SOL    HW258438  11.263  14.306   1.840
52181SOL     OW58439  13.891  14.060  12.637
52181SOL    HW158440  13.894  14.156  12.636
52181SOL    HW258441  13.885  14.036  12.545
52182SOL     OW58442   8.726   9.030  11.157
52182SOL    HW158443   8.705   8.940  11.180
52182SOL    HW258444   8.791   9.022  11.086
52183SOL     OW58445  12.356   6.393  13.860
52183SOL    HW158446  12.274   6.393  13.812
52183SOL    HW258447  12.331   6.416  13.950
52184SOL     OW58448  10.105  11.446   4.887
52184SOL    HW158449  10.172  11.412   4.828
52184SOL    HW258450  10.084  11.533   4.852
52185SOL     OW58451  10.201   4.409  12.814
52185SOL    HW158452  10.225   4.463  12.739
52185SOL    HW258453  10.245   4.325  12.798
52186SOL     OW58454   8.086  12.053  12.221
52186SOL    HW158455   8.053  11.964  12.215
52186SOL    HW258456   8.087  12.072  12.315
52187SOL     OW58457   6.610   9.852   2.498
52187SOL    HW158458   6.528   9.821   2.461
52187SOL    HW258459   6.650   9.775   2.538
52188SOL     OW58460   5.392  11.302  10.516
52188SOL    HW158461   5.305  11.264  10.506
52188SOL    HW258462   5.380  11.396  10.500
52189SOL     OW58463   3.083   2.139   4.684
52189SOL    HW158464   2.990   2.118   4.671
52189SOL    HW258465   3.088   2.234   4.671
52190SOL     OW58466  13.546   2.654  11.839
52190SOL    HW158467  13.608   2.601  11.889
52190SOL    HW258468  13.600   2.699  11.774
52191SOL     OW58469   4.324  11.458   9.569
52191SOL    HW158470   4.265  11.446   9.643
52191SOL    HW258471   4.266  11.465   9.493
52192SOL     OW58472  10.021   5.783   6.026
52192SOL    HW158473  10.014   5.701   5.977
52192SOL    HW258474   9.978   5.849   5.971
52193SOL     OW58475   4.417  14.182  11.758
52193SOL    HW158476   4.352  14.221  11.699
52193SOL    HW258477   4.491  14.244  11.757
52194SOL     OW58478  14.773  13.025   4.534
52194SOL    HW158479  14.779  13.053   4.443
52194SOL    HW258480  14.724  12.943   4.531
52195SOL     OW58481   6.024   0.565   9.692
52195SOL    HW158482   6.057   0.601   9.610
52195SOL    HW258483   6.103   0.548   9.744
52196SOL     OW58484   8.137  13.417  13.124
52196SOL    HW158485   8.150  13.422  13.219
52196SOL    HW258486   8.224  13.434  13.087
52197SOL     OW58487   1.996   2.400   2.049
52197SOL    HW158488   2.019   2.390   2.142
52197SOL    HW258489   1.902   2.412   2.049
52198SOL     OW58490   0.256  11.657  13.686
52198SOL    HW158491   0.256  11.563  13.667
52198SOL    HW258492   0.325  11.668  13.751
52199SOL     OW58493   4.980   7.247   0.660
52199SOL    HW158494   5.038   7.240   0.736
52199SOL    HW258495   5.026   7.306   0.600
52200SOL     OW58496   7.116   9.506   7.650
52200SOL    HW158497   7.148   9.570   7.586
52200SOL    HW258498   7.167   9.427   7.633
52201SOL     OW58499   4.961   3.867  11.964
52201SOL    HW158500   4.905   3.922  11.909
52201SOL    HW258501   5.044   3.913  11.967
52202SOL     OW58502   4.767   6.174   7.526
52202SOL    HW158503   4.833   6.196   7.592
52202SOL    HW258504   4.787   6.232   7.452
52203SOL     OW58505  13.988   4.432   4.095
52203SOL    HW158506  13.990   4.415   4.000
52203SOL    HW258507  14.040   4.362   4.133
52204SOL     OW58508   9.679  10.648   9.148
52204SOL    HW158509   9.639  10.717   9.095
52204SOL    HW258510   9.639  10.658   9.235
52205SOL     OW58511   9.544   5.291   7.720
52205SOL    HW158512   9.453   5.319   7.726
52205SOL    HW258513   9.559   5.241   7.800
52206SOL     OW58514  12.088   3.728  13.055
52206SOL    HW158515  12.083   3.820  13.027
52206SOL    HW258516  12.181   3.707  13.050
52207SOL     OW58517  14.391   5.123   0.380
52207SOL    HW158518  14.368   5.168   0.461
52207SOL    HW258519  14.315   5.135   0.323
52208SOL     OW58520  11.043  12.436   0.920
52208SOL    HW158521  11.045  12.367   0.853
52208SOL    HW258522  11.130  12.432   0.961
52209SOL     OW58523   5.730   5.586   1.870
52209SOL    HW158524   5.660   5.571   1.806
52209SOL    HW258525   5.724   5.680   1.890
52210SOL     OW58526   0.139   8.014   8.910
52210SOL    HW158527   0.098   8.063   8.981
52210SOL    HW258528   0.067   7.995   8.850
52211SOL     OW58529   1.223   2.880   7.676
52211SOL    HW158530   1.273   2.853   7.753
52211SOL    HW258531   1.225   2.976   7.678
52212SOL     OW58532   4.302  12.295  14.550
52212SOL    HW158533   4.395  12.299  14.529
52212SOL    HW258534   4.257  12.312  14.467
52213SOL     OW58535   1.056   3.435   1.437
52213SOL    HW158536   1.111   3.356   1.431
52213SOL    HW258537   1.042   3.446   1.531
52214SOL     OW58538   9.909   9.144  11.707
52214SOL    HW158539   9.935   9.235  11.721
52214SOL    HW258540   9.840   9.149  11.640
52215SOL     OW58541   6.540   7.948   4.209
52215SOL    HW158542   6.548   7.854   4.193
52215SOL    HW258543   6.601   7.966   4.281
52216SOL     OW58544  10.812   5.801   4.123
52216SOL    HW158545  10.884   5.816   4.185
52216SOL    HW258546  10.832   5.716   4.084
52217SOL     OW58547   9.436   2.836  11.127
52217SOL    HW158548   9.361   2.833  11.187
52217SOL    HW258549   9.459   2.929  11.123
52218SOL     OW58550   3.781  11.564   8.750
52218SOL    HW158551   3.808  11.656   8.751
52218SOL    HW258552   3.789  11.536   8.842
52219SOL     OW58553   9.765   0.461   4.786
52219SOL    HW158554   9.711   0.520   4.733
52219SOL    HW258555   9.785   0.512   4.865
52220SOL     OW58556   4.862   0.556   1.508
52220SOL    HW158557   4.841   0.640   1.466
52220SOL    HW258558   4.919   0.579   1.581
52221SOL     OW58559   1.960   3.924   8.189
52221SOL    HW158560   1.970   3.881   8.104
52221SOL    HW258561   1.875   3.891   8.221
52222SOL     OW58562   1.757  11.609  10.720
52222SOL    HW158563   1.762  11.524  10.763
52222SOL    HW258564   1.731  11.670  10.789
52223SOL     OW58565  12.534   5.342  14.110
52223SOL    HW158566  12.551   5.396  14.033
52223SOL    HW258567  12.588   5.380  14.179
52224SOL     OW58568   6.827   1.919  10.299
52224SOL    HW158569   6.841   1.824  10.303
52224SOL    HW258570   6.732   1.929  10.286
52225SOL     OW58571   9.618   3.655   7.853
52225SOL    HW158572   9.592   3.740   7.818
52225SOL    HW258573   9.654   3.608   7.778
52226SOL     OW58574  12.753  14.134  11.345
52226SOL    HW158575  12.790  14.154  11.259
52226SOL    HW258576  12.659  14.126  11.329
52227SOL     OW58577   9.986   3.295  10.897
52227SOL    HW158578   9.965   3.350  10.821
52227SOL    HW258579   9.970   3.206  10.868
52228SOL     OW58580   7.029   4.419   8.041
52228SOL    HW158581   7.064   4.482   7.979
52228SOL    HW258582   7.025   4.466   8.124
52229SOL     OW58583   5.234   2.968   2.420
52229SOL    HW158584   5.180   3.003   2.491
52229SOL    HW258585   5.269   3.046   2.377
52230SOL     OW58586   3.074  11.370   0.060
52230SOL    HW158587   3.139  11.322   0.111
52230SOL    HW258588   3.044  11.440   0.118
52231SOL     OW58589   3.221   8.424   6.552
52231SOL    HW158590   3.171   8.398   6.475
52231SOL    HW258591   3.169   8.494   6.592
52232SOL     OW58592   1.735  11.183  11.540
52232SOL    HW158593   1.704  11.161  11.628
52232SOL    HW258594   1.786  11.263  11.552
52233SOL     OW58595   2.107  14.084   9.656
52233SOL    HW158596   2.091  14.145   9.728
52233SOL    HW258597   2.148  14.008   9.697
52234SOL     OW58598  13.492   4.336   7.895
52234SOL    HW158599  13.506   4.342   7.989
52234SOL    HW258600  13.564   4.282   7.863
52235SOL     OW58601   2.895  14.715   1.528
52235SOL    HW158602   2.872  14.750   1.442
52235SOL    HW258603   2.991  14.718   1.530
52236SOL     OW58604   4.842   1.249   3.594
52236SOL    HW158605   4.915   1.307   3.572
52236SOL    HW258606   4.859   1.169   3.545
52237SOL     OW58607   5.715  12.831   5.660
52237SOL    HW158608   5.805  12.840   5.694
52237SOL    HW258609   5.725  12.838   5.565
52238SOL     OW58610  11.735   8.517   8.335
52238SOL    HW158611  11.777   8.465   8.267
52238SOL    HW258612  11.715   8.601   8.293
52239SOL     OW58613  14.147  12.956   6.243
52239SOL    HW158614  14.140  12.861   6.238
52239SOL    HW258615  14.057  12.988   6.243
52240SOL     OW58616  11.285   4.479   1.914
52240SOL    HW158617  11.323   4.469   2.001
52240SOL    HW258618  11.304   4.569   1.890
52241SOL     OW58619   6.994   5.703   4.088
52241SOL    HW158620   6.947   5.661   4.016
52241SOL    HW258621   6.956   5.664   4.167
52242SOL     OW58622  10.003   7.399  13.108
52242SOL    HW158623   9.969   7.452  13.037
52242SOL    HW258624  10.011   7.460  13.182
52243SOL     OW58625   2.631   3.502  14.028
52243SOL    HW158626   2.537   3.521  14.024
52243SOL    HW258627   2.656   3.526  14.117
52244SOL     OW58628  11.510   7.767   3.827
52244SOL    HW158629  11.416   7.778   3.813
52244SOL    HW258630  11.537   7.846   3.873
52245SOL     OW58631   4.698  13.694  10.124
52245SOL    HW158632   4.758  13.622  10.141
52245SOL    HW258633   4.725  13.763  10.185
52246SOL     OW58634   0.966  14.434   5.424
52246SOL    HW158635   0.890  14.436   5.365
52246SOL    HW258636   0.930  14.457   5.510
52247SOL     OW58637  10.829  12.711   7.416
52247SOL    HW158638  10.797  12.643   7.357
52247SOL    HW258639  10.904  12.749   7.369
52248SOL     OW58640  10.349   6.939   7.795
52248SOL    HW158641  10.309   6.996   7.729
52248SOL    HW258642  10.375   6.998   7.866
52249SOL     OW58643   6.378   5.443  11.348
52249SOL    HW158644   6.324   5.435  11.427
52249SOL    HW258645   6.316   5.433  11.275
52250SOL     OW58646   6.292   2.668   5.323
52250SOL    HW158647   6.241   2.638   5.398
52250SOL    HW258648   6.264   2.758   5.310
52251SOL     OW58649  13.868  11.694  13.400
52251SOL    HW158650  13.884  11.776  13.353
52251SOL    HW258651  13.791  11.657  13.356
52252SOL     OW58652  12.362   2.911   2.215
52252SOL    HW158653  12.386   2.909   2.307
52252SOL    HW258654  12.311   2.991   2.205
52253SOL     OW58655   9.193   3.543   9.024
52253SOL    HW158656   9.202   3.497   8.941
52253SOL    HW258657   9.270   3.600   9.029
52254SOL     OW58658  14.189   5.989   0.715
52254SOL    HW158659  14.102   5.966   0.748
52254SOL    HW258660  14.212   5.919   0.654
52255SOL     OW58661  10.937   0.438  14.068
52255SOL    HW158662  10.939   0.532  14.047
52255SOL    HW258663  11.028   0.410  14.063
52256SOL     OW58664  11.662  13.187   3.294
52256SOL    HW158665  11.747  13.162   3.258
52256SOL    HW258666  11.617  13.231   3.222
52257SOL     OW58667   2.845   0.089   9.228
52257SOL    HW158668   2.926   0.128   9.263
52257SOL    HW258669   2.782   0.097   9.299
52258SOL     OW58670  11.107  14.619   5.672
52258SOL    HW158671  11.189  14.572   5.689
52258SOL    HW258672  11.094  14.673   5.750
52259SOL     OW58673   3.620   9.645   5.890
52259SOL    HW158674   3.561   9.586   5.843
52259SOL    HW258675   3.690   9.588   5.923
52260SOL     OW58676  13.095   7.073  12.258
52260SOL    HW158677  13.108   6.985  12.291
52260SOL    HW258678  13.067   7.061  12.167
52261SOL     OW58679  12.064   0.283  11.014
52261SOL    HW158680  12.143   0.257  10.967
52261SOL    HW258681  12.029   0.356  10.963
52262SOL     OW58682  12.574  13.780   3.033
52262SOL    HW158683  12.513  13.707   3.031
52262SOL    HW258684  12.519  13.858   3.025
52263SOL     OW58685   4.645   6.868   6.734
52263SOL    HW158686   4.679   6.779   6.743
52263SOL    HW258687   4.561   6.866   6.778
52264SOL     OW58688  14.693   4.894   5.059
52264SOL    HW158689  14.690   4.896   4.963
52264SOL    HW258690  14.610   4.856   5.085
52265SOL     OW58691   3.836   1.104   3.511
52265SOL    HW158692   3.775   1.101   3.585
52265SOL    HW258693   3.910   1.050   3.539
52266SOL     OW58694   1.050   7.539  10.703
52266SOL    HW158695   1.130   7.591  10.693
52266SOL    HW258696   1.018   7.560  10.790
52267SOL     OW58697   8.683  13.902   2.238
52267SOL    HW158698   8.706  13.810   2.250
52267SOL    HW258699   8.712  13.922   2.148
52268SOL     OW58700   3.620   5.713   0.307
52268SOL    HW158701   3.691   5.649   0.306
52268SOL    HW258702   3.664   5.797   0.320
52269SOL     OW58703   6.632   1.666   1.972
52269SOL    HW158704   6.602   1.754   1.996
52269SOL    HW258705   6.727   1.669   1.985
52270SOL     OW58706  11.934   4.855   4.613
52270SOL    HW158707  11.997   4.924   4.588
52270SOL    HW258708  11.877   4.846   4.536
52271SOL     OW58709   1.778  14.849   7.428
52271SOL    HW158710   1.852  14.821   7.482
52271SOL    HW258711   1.701  14.817   7.474
52272SOL     OW58712  12.388  10.716   4.789
52272SOL    HW158713  12.424  10.803   4.771
52272SOL    HW258714  12.424  10.660   4.721
52273SOL     OW58715   3.727   8.961   6.654
52273SOL    HW158716   3.722   8.882   6.707
52273SOL    HW258717   3.817   8.993   6.667
52274SOL     OW58718   7.360  12.059   7.456
52274SOL    HW158719   7.360  12.154   7.466
52274SOL    HW258720   7.417  12.027   7.526
52275SOL     OW58721   9.226   7.065   8.843
52275SOL    HW158722   9.304   7.035   8.889
52275SOL    HW258723   9.207   6.996   8.779
52276SOL     OW58724   1.578  13.835   8.567
52276SOL    HW158725   1.557  13.853   8.476
52276SOL    HW258726   1.669  13.865   8.577
52277SOL     OW58727  10.943  11.001   2.816
52277SOL    HW158728  10.901  10.992   2.731
52277SOL    HW258729  11.031  10.966   2.804
52278SOL     OW58730   1.561  11.770   0.893
52278SOL    HW158731   1.651  11.755   0.863
52278SOL    HW258732   1.550  11.865   0.888
52279SOL     OW58733   0.538   7.738  13.947
52279SOL    HW158734   0.615   7.793  13.966
52279SOL    HW258735   0.468   7.801  13.931
52280SOL     OW58736   1.417  10.715  13.435
52280SOL    HW158737   1.467  10.761  13.504
52280SOL    HW258738   1.434  10.623  13.451
52281SOL     OW58739  14.202   5.619   7.093
52281SOL    HW158740  14.178   5.599   7.184
52281SOL    HW258741  14.223   5.712   7.094
52282SOL     OW58742   3.768   2.338   0.754
52282SOL    HW158743   3.836   2.354   0.689
52282SOL    HW258744   3.789   2.251   0.789
52283SOL     OW58745   1.105   4.499  12.330
52283SOL    HW158746   1.137   4.501  12.239
52283SOL    HW258747   1.120   4.409  12.359
52284SOL     OW58748  13.327   0.827   2.484
52284SOL    HW158749  13.278   0.903   2.517
52284SOL    HW258750  13.274   0.752   2.509
52285SOL     OW58751   2.844   1.476   7.394
52285SOL    HW158752   2.753   1.478   7.423
52285SOL    HW258753   2.847   1.534   7.318
52286SOL     OW58754   4.943   1.129   1.563
52286SOL    HW158755   4.897   1.212   1.578
52286SOL    HW258756   4.947   1.120   1.468
52287SOL     OW58757  14.547   5.227   4.618
52287SOL    HW158758  14.526   5.147   4.667
52287SOL    HW258759  14.605   5.197   4.549
52288SOL     OW58760  10.888   9.010   4.156
52288SOL    HW158761  10.962   8.950   4.158
52288SOL    HW258762  10.878   9.033   4.064
52289SOL     OW58763   7.933   2.638   1.012
52289SOL    HW158764   7.889   2.697   1.072
52289SOL    HW258765   8.025   2.663   1.017
52290SOL     OW58766   4.585   2.987  14.433
52290SOL    HW158767   4.655   3.045  14.403
52290SOL    HW258768   4.506   3.021  14.392
52291SOL     OW58769  10.269   4.206   1.022
52291SOL    HW158770  10.344   4.163   0.982
52291SOL    HW258771  10.242   4.147   1.093
52292SOL     OW58772  14.528   0.422  11.832
52292SOL    HW158773  14.440   0.414  11.795
52292SOL    HW258774  14.586   0.417  11.756
52293SOL     OW58775   2.547   4.170   7.673
52293SOL    HW158776   2.487   4.137   7.605
52293SOL    HW258777   2.492   4.220   7.732
52294SOL     OW58778   9.284  10.897   7.654
52294SOL    HW158779   9.215  10.957   7.628
52294SOL    HW258780   9.336  10.884   7.575
52295SOL     OW58781  12.137   7.939   0.774
52295SOL    HW158782  12.220   7.968   0.812
52295SOL    HW258783  12.081   8.016   0.776
52296SOL     OW58784   2.246  14.510  10.176
52296SOL    HW158785   2.239  14.575  10.107
52296SOL    HW258786   2.318  14.541  10.231
52297SOL     OW58787   3.207   3.358   2.394
52297SOL    HW158788   3.112   3.344   2.397
52297SOL    HW258789   3.216   3.452   2.374
52298SOL     OW58790  12.397   8.443   8.771
52298SOL    HW158791  12.489   8.466   8.762
52298SOL    HW258792  12.376   8.463   8.862
52299SOL     OW58793  11.400   0.263   0.381
52299SOL    HW158794  11.369   0.203   0.449
52299SOL    HW258795  11.398   0.350   0.423
52300SOL     OW58796   9.852   4.951  12.322
52300SOL    HW158797   9.839   4.895  12.398
52300SOL    HW258798   9.947   4.951  12.308
52301SOL     OW58799  11.403  10.252  14.478
52301SOL    HW158800  11.345  10.283  14.408
52301SOL    HW258801  11.483  10.227  14.433
52302SOL     OW58802   9.366   6.547  10.054
52302SOL    HW158803   9.451   6.543  10.097
52302SOL    HW258804   9.385   6.577   9.965
52303SOL     OW58805   5.753   4.011  13.155
52303SOL    HW158806   5.757   3.924  13.115
52303SOL    HW258807   5.801   4.001  13.238
52304SOL     OW58808   4.597   4.719   6.440
52304SOL    HW158809   4.680   4.686   6.407
52304SOL    HW258810   4.620   4.791   6.499
52305SOL     OW58811   8.105   7.254   0.043
52305SOL    HW158812   8.057   7.336   0.031
52305SOL    HW258813   8.051   7.188  14.882
52306SOL     OW58814  13.497  13.288   2.531
52306SOL    HW158815  13.530  13.244   2.609
52306SOL    HW258816  13.420  13.336   2.560
52307SOL     OW58817   3.361   6.049  10.689
52307SOL    HW158818   3.382   5.997  10.612
52307SOL    HW258819   3.385   6.139  10.665
52308SOL     OW58820  12.481   8.624   0.321
52308SOL    HW158821  12.438   8.708   0.334
52308SOL    HW258822  12.534   8.636   0.242
52309SOL     OW58823   8.596  11.770   5.464
52309SOL    HW158824   8.635  11.808   5.385
52309SOL    HW258825   8.646  11.690   5.480
52310SOL     OW58826  11.684   8.244   2.746
52310SOL    HW158827  11.613   8.268   2.688
52310SOL    HW258828  11.753   8.210   2.688
52311SOL     OW58829   6.890   1.549   2.813
52311SOL    HW158830   6.970   1.512   2.850
52311SOL    HW258831   6.905   1.643   2.814
52312SOL     OW58832   3.360   7.782   7.719
52312SOL    HW158833   3.336   7.745   7.634
52312SOL    HW258834   3.456   7.779   7.720
52313SOL     OW58835   4.287  10.105   9.584
52313SOL    HW158836   4.266  10.033   9.525
52313SOL    HW258837   4.334  10.064   9.656
52314SOL     OW58838   1.383  11.897  13.629
52314SOL    HW158839   1.329  11.835  13.580
52314SOL    HW258840   1.431  11.945  13.561
52315SOL     OW58841   6.997  12.754   6.881
52315SOL    HW158842   7.042  12.825   6.835
52315SOL    HW258843   7.008  12.678   6.824
52316SOL     OW58844   1.928  13.633   2.252
52316SOL    HW158845   1.899  13.599   2.336
52316SOL    HW258846   1.942  13.556   2.198
52317SOL     OW58847   5.824   7.123   6.152
52317SOL    HW158848   5.910   7.144   6.187
52317SOL    HW258849   5.801   7.197   6.097
52318SOL     OW58850   7.832   7.898   5.452
52318SOL    HW158851   7.865   7.861   5.534
52318SOL    HW258852   7.796   7.983   5.478
52319SOL     OW58853   0.812   5.478  10.763
52319SOL    HW158854   0.883   5.445  10.709
52319SOL    HW258855   0.820   5.431  10.846
52320SOL     OW58856   0.342  10.354  12.220
52320SOL    HW158857   0.417  10.407  12.245
52320SOL    HW258858   0.292  10.344  12.302
52321SOL     OW58859   3.760   7.004   4.204
52321SOL    HW158860   3.766   6.980   4.112
52321SOL    HW258861   3.711   6.932   4.245
52322SOL     OW58862  13.330   8.696   8.932
52322SOL    HW158863  13.324   8.787   8.960
52322SOL    HW258864  13.240   8.663   8.939
52323SOL     OW58865   9.759   5.224   3.976
52323SOL    HW158866   9.681   5.171   3.989
52323SOL    HW258867   9.767   5.276   4.056
52324SOL     OW58868   0.618  14.570  10.604
52324SOL    HW158869   0.679  14.631  10.561
52324SOL    HW258870   0.567  14.533  10.533
52325SOL     OW58871   6.244   6.221   0.516
52325SOL    HW158872   6.232   6.306   0.474
52325SOL    HW258873   6.250   6.241   0.609
52326SOL     OW58874   6.655   6.770  13.185
52326SOL    HW158875   6.731   6.745  13.132
52326SOL    HW258876   6.682   6.753  13.275
52327SOL     OW58877   7.145   7.676   2.745
52327SOL    HW158878   7.214   7.613   2.767
52327SOL    HW258879   7.120   7.654   2.655
52328SOL     OW58880   1.988   7.807   3.657
52328SOL    HW158881   1.983   7.769   3.745
52328SOL    HW258882   2.042   7.747   3.607
52329SOL     OW58883   4.393  10.188   8.568
52329SOL    HW158884   4.342  10.110   8.588
52329SOL    HW258885   4.478  10.173   8.610
52330SOL     OW58886  10.322   8.771  11.355
52330SOL    HW158887  10.252   8.757  11.418
52330SOL    HW258888  10.280   8.821  11.284
52331SOL     OW58889   5.532  14.553  14.306
52331SOL    HW158890   5.455  14.561  14.362
52331SOL    HW258891   5.497  14.530  14.220
52332SOL     OW58892   7.128   4.336   1.881
52332SOL    HW158893   7.088   4.300   1.960
52332SOL    HW258894   7.062   4.325   1.813
52333SOL     OW58895   2.551   4.034   8.035
52333SOL    HW158896   2.533   4.059   8.125
52333SOL    HW258897   2.541   3.939   8.034
52334SOL     OW58898  13.124   1.212   9.689
52334SOL    HW158899  13.191   1.236   9.753
52334SOL    HW258900  13.045   1.258   9.719
52335SOL     OW58901   9.424  10.492   3.567
52335SOL    HW158902   9.395  10.477   3.657
52335SOL    HW258903   9.362  10.556   3.532
52336SOL     OW58904   4.981   1.762   5.681
52336SOL    HW158905   4.955   1.830   5.619
52336SOL    HW258906   5.060   1.796   5.722
52337SOL     OW58907   2.716  14.785  13.491
52337SOL    HW158908   2.643  14.779  13.430
52337SOL    HW258909   2.794  14.792  13.435
52338SOL     OW58910   2.783   9.977  14.202
52338SOL    HW158911   2.874  10.006  14.207
52338SOL    HW258912   2.732  10.056  14.221
52339SOL     OW58913   7.297   8.793   9.891
52339SOL    HW158914   7.289   8.871   9.835
52339SOL    HW258915   7.207   8.765   9.906
52340SOL     OW58916   9.027   2.341   8.679
52340SOL    HW158917   8.964   2.397   8.725
52340SOL    HW258918   9.106   2.395   8.672
52341SOL     OW58919  14.206   6.816  10.448
52341SOL    HW158920  14.238   6.775  10.529
52341SOL    HW258921  14.114   6.834  10.466
52342SOL     OW58922  14.084   3.950  13.396
52342SOL    HW158923  14.173   3.980  13.382
52342SOL    HW258924  14.086   3.904  13.480
52343SOL     OW58925   6.375   1.002  12.307
52343SOL    HW158926   6.373   0.968  12.396
52343SOL    HW258927   6.305   0.955  12.262
52344SOL     OW58928   3.222  11.120   5.651
52344SOL    HW158929   3.238  11.063   5.726
52344SOL    HW258930   3.214  11.208   5.689
52345SOL     OW58931   9.008  10.341  13.366
52345SOL    HW158932   9.052  10.313  13.286
52345SOL    HW258933   8.951  10.413  13.338
52346SOL     OW58934   9.340  10.479   9.060
52346SOL    HW158935   9.425  10.513   9.030
52346SOL    HW258936   9.358  10.446   9.148
52347SOL     OW58937  13.046  10.114   9.085
52347SOL    HW158938  12.965  10.155   9.113
52347SOL    HW258939  13.029  10.083   8.996
52348SOL     OW58940   4.535  10.226  13.997
52348SOL    HW158941   4.530  10.135  14.027
52348SOL    HW258942   4.599  10.267  14.055
52349SOL     OW58943   8.932   8.913   8.384
52349SOL    HW158944   8.869   8.856   8.427
52349SOL    HW258945   8.956   8.866   8.304
52350SOL     OW58946  11.869  10.589  10.590
52350SOL    HW158947  11.935  10.541  10.638
52350SOL    HW258948  11.910  10.608  10.505
52351SOL     OW58949   2.316   9.412   9.732
52351SOL    HW158950   2.239   9.465   9.754
52351SOL    HW258951   2.365   9.465   9.669
52352SOL     OW58952   4.655  14.146   2.956
52352SOL    HW158953   4.685  14.231   2.922
52352SOL    HW258954   4.581  14.168   3.013
52353SOL     OW58955   7.508   0.921   2.713
52353SOL    HW158956   7.591   0.902   2.756
52353SOL    HW258957   7.444   0.925   2.784
52354SOL     OW58958   1.698   1.780  11.389
52354SOL    HW158959   1.740   1.727  11.457
52354SOL    HW258960   1.701   1.869  11.423
52355SOL     OW58961  10.321   6.052   4.848
52355SOL    HW158962  10.358   6.123   4.900
52355SOL    HW258963  10.248   6.093   4.801
52356SOL     OW58964  11.022  13.254   3.817
52356SOL    HW158965  10.999  13.234   3.908
52356SOL    HW258966  11.021  13.350   3.813
52357SOL     OW58967   2.645  12.006   5.729
52357SOL    HW158968   2.676  11.918   5.748
52357SOL    HW258969   2.653  12.053   5.812
52358SOL     OW58970   7.276  11.316  11.013
52358SOL    HW158971   7.266  11.222  11.026
52358SOL    HW258972   7.230  11.356  11.087
52359SOL     OW58973  11.947   4.439   5.252
52359SOL    HW158974  12.023   4.429   5.194
52359SOL    HW258975  11.933   4.352   5.289
52360SOL     OW58976   9.101  13.124  11.484
52360SOL    HW158977   9.132  13.071  11.558
52360SOL    HW258978   9.035  13.182  11.521
52361SOL     OW58979   5.567   1.037   2.036
52361SOL    HW158980   5.637   1.086   1.991
52361SOL    HW258981   5.587   0.945   2.018
52362SOL     OW58982   2.598   7.497   5.146
52362SOL    HW158983   2.670   7.473   5.205
52362SOL    HW258984   2.639   7.503   5.060
52363SOL     OW58985   1.379   5.845   7.779
52363SOL    HW158986   1.302   5.896   7.753
52363SOL    HW258987   1.392   5.868   7.871
52364SOL     OW58988  13.099   9.920   2.498
52364SOL    HW158989  13.168   9.962   2.446
52364SOL    HW258990  13.020   9.933   2.445
52365SOL     OW58991   0.497   4.216  12.252
52365SOL    HW158992   0.551   4.269  12.311
52365SOL    HW258993   0.424   4.273  12.229
52366SOL     OW58994   7.198   6.427   8.697
52366SOL    HW158995   7.267   6.423   8.631
52366SOL    HW258996   7.137   6.493   8.664
52367SOL     OW58997   6.536  12.238   9.913
52367SOL    HW158998   6.590  12.243   9.992
52367SOL    HW258999   6.531  12.144   9.895
52368SOL     OW59000   0.497  13.599   8.122
52368SOL    HW159001   0.486  13.504   8.132
52368SOL    HW259002   0.421  13.627   8.070
52369SOL     OW59003   8.185  11.934   8.577
52369SOL    HW159004   8.240  11.878   8.523
52369SOL    HW259005   8.127  11.978   8.514
52370SOL     OW59006   6.315   6.520   0.179
52370SOL    HW159007   6.335   6.445   0.123
52370SOL    HW259008   6.399   6.543   0.219
52371SOL     OW59009   0.576   7.967  10.181
52371SOL    HW159010   0.530   8.011  10.109
52371SOL    HW259011   0.646   8.028  10.204
52372SOL     OW59012   5.701   4.824  12.400
52372SOL    HW159013   5.697   4.843  12.494
52372SOL    HW259014   5.758   4.747  12.394
52373SOL     OW59015  13.381   6.544   0.443
52373SOL    HW159016  13.320   6.552   0.516
52373SOL    HW259017  13.325   6.533   0.366
52374SOL     OW59018  11.951   7.480  13.286
52374SOL    HW159019  11.939   7.536  13.209
52374SOL    HW259020  11.908   7.398  13.263
52375SOL     OW59021   1.339   5.225   4.838
52375SOL    HW159022   1.347   5.263   4.925
52375SOL    HW259023   1.355   5.298   4.778
52376SOL     OW59024   8.627   9.619   1.768
52376SOL    HW159025   8.617   9.693   1.829
52376SOL    HW259026   8.540   9.608   1.729
52377SOL     OW59027   9.526   7.191   9.646
52377SOL    HW159028   9.591   7.208   9.715
52377SOL    HW259029   9.503   7.278   9.613
52378SOL     OW59030   6.894   3.681  12.214
52378SOL    HW159031   6.906   3.701  12.121
52378SOL    HW259032   6.860   3.591  12.215
52379SOL     OW59033   7.745   2.270   9.334
52379SOL    HW159034   7.739   2.226   9.419
52379SOL    HW259035   7.727   2.362   9.353
52380SOL     OW59036   4.166   6.075  14.751
52380SOL    HW159037   4.200   6.088  14.662
52380SOL    HW259038   4.206   6.144  14.803
52381SOL     OW59039  14.102   6.230   9.323
52381SOL    HW159040  14.100   6.275   9.407
52381SOL    HW259041  14.084   6.138   9.345
52382SOL     OW59042   7.783   5.710  10.883
52382SOL    HW159043   7.855   5.771  10.898
52382SOL    HW259044   7.726   5.721  10.959
52383SOL     OW59045  11.272   2.804   6.077
52383SOL    HW159046  11.281   2.710   6.094
52383SOL    HW259047  11.316   2.846   6.150
52384SOL     OW59048   0.879   2.638  10.191
52384SOL    HW159049   0.915   2.558  10.152
52384SOL    HW259050   0.786   2.620  10.203
52385SOL     OW59051   0.336  13.468   7.277
52385SOL    HW159052   0.326  13.478   7.182
52385SOL    HW259053   0.381  13.385   7.288
52386SOL     OW59054   1.659   8.719   7.635
52386SOL    HW159055   1.615   8.650   7.685
52386SOL    HW259056   1.598   8.793   7.637
52387SOL     OW59057   0.667   2.399   8.658
52387SOL    HW159058   0.725   2.448   8.599
52387SOL    HW259059   0.617   2.342   8.600
52388SOL     OW59060   5.508   7.180   0.960
52388SOL    HW159061   5.464   7.131   0.890
52388SOL    HW259062   5.600   7.152   0.955
52389SOL     OW59063   1.297   8.740  11.757
52389SOL    HW159064   1.211   8.775  11.779
52389SOL    HW259065   1.327   8.697  11.837
52390SOL     OW59066  12.968   5.335   9.437
52390SOL    HW159067  13.025   5.272   9.480
52390SOL    HW259068  13.022   5.371   9.366
52391SOL     OW59069  13.877  13.704  11.627
52391SOL    HW159070  13.852  13.620  11.664
52391SOL    HW259071  13.859  13.767  11.697
52392SOL     OW59072   5.490  14.670   8.589
52392SOL    HW159073   5.531  14.711   8.512
52392SOL    HW259074   5.469  14.743   8.647
52393SOL     OW59075   3.593   5.845   2.614
52393SOL    HW159076   3.527   5.799   2.666
52393SOL    HW259077   3.639   5.900   2.678
52394SOL     OW59078   3.807   3.965   8.944
52394SOL    HW159079   3.839   3.876   8.961
52394SOL    HW259080   3.712   3.954   8.932
52395SOL     OW59081   3.148  10.388   9.224
52395SOL    HW159082   3.133  10.306   9.178
52395SOL    HW259083   3.209  10.436   9.168
52396SOL     OW59084   1.839  13.597  12.627
52396SOL    HW159085   1.832  13.656  12.551
52396SOL    HW259086   1.916  13.628  12.674
52397SOL     OW59087   4.714   8.981   4.947
52397SOL    HW159088   4.737   8.985   5.040
52397SOL    HW259089   4.619   8.968   4.947
52398SOL     OW59090   4.629  13.443   3.853
52398SOL    HW159091   4.615  13.538   3.845
52398SOL    HW259092   4.690  13.422   3.782
52399SOL     OW59093   9.769   4.575   5.657
52399SOL    HW159094   9.818   4.559   5.576
52399SOL    HW259095   9.804   4.512   5.720
52400SOL     OW59096  11.604   0.062  10.652
52400SOL    HW159097  11.645   0.016  10.725
52400SOL    HW259098  11.647   0.148  10.651
52401SOL     OW59099  11.562  12.137   7.737
52401SOL    HW159100  11.613  12.109   7.661
52401SOL    HW259101  11.504  12.063   7.756
52402SOL     OW59102  11.020   9.116  11.052
52402SOL    HW159103  11.024   9.084  10.962
52402SOL    HW259104  11.064   9.048  11.103
52403SOL     OW59105   6.146   6.550   1.881
52403SOL    HW159106   6.144   6.472   1.935
52403SOL    HW259107   6.231   6.548   1.838
52404SOL     OW59108   6.791  13.452  11.199
52404SOL    HW159109   6.719  13.446  11.262
52404SOL    HW259110   6.869  13.458  11.253
52405SOL     OW59111   9.302   1.668  13.629
52405SOL    HW159112   9.219   1.628  13.605
52405SOL    HW259113   9.332   1.712  13.549
52406SOL     OW59114   4.597  10.509   3.142
52406SOL    HW159115   4.651  10.559   3.203
52406SOL    HW259116   4.653  10.496   3.065
52407SOL     OW59117   5.246   2.044   2.558
52407SOL    HW159118   5.322   1.988   2.545
52407SOL    HW259119   5.187   2.022   2.486
52408SOL     OW59120   1.214  12.283   5.673
52408SOL    HW159121   1.211  12.229   5.752
52408SOL    HW259122   1.307  12.286   5.650
52409SOL     OW59123   2.296   7.035   0.583
52409SOL    HW159124   2.359   7.008   0.649
52409SOL    HW259125   2.349   7.059   0.507
52410SOL     OW59126   0.791   8.816   6.948
52410SOL    HW159127   0.805   8.782   6.860
52410SOL    HW259128   0.702   8.850   6.947
52411SOL     OW59129   4.975  14.052   2.306
52411SOL    HW159130   4.883  14.045   2.282
52411SOL    HW259131   5.018  14.082   2.225
52412SOL     OW59132  14.512  10.822  14.735
52412SOL    HW159133  14.484  10.897  14.684
52412SOL    HW259134  14.443  10.757  14.723
52413SOL     OW59135   8.181   7.473   2.532
52413SOL    HW159136   8.221   7.533   2.469
52413SOL    HW259137   8.256   7.434   2.578
52414SOL     OW59138   2.321  12.680   6.162
52414SOL    HW159139   2.233  12.690   6.126
52414SOL    HW259140   2.308  12.637   6.246
52415SOL     OW59141  14.790   3.810   5.333
52415SOL    HW159142  14.779   3.716   5.321
52415SOL    HW259143  14.705   3.840   5.366
52416SOL     OW59144   2.452   3.595   9.525
52416SOL    HW159145   2.507   3.670   9.548
52416SOL    HW259146   2.514   3.523   9.513
52417SOL     OW59147   2.911   3.836   2.387
52417SOL    HW159148   3.006   3.845   2.381
52417SOL    HW259149   2.880   3.851   2.298
52418SOL     OW59150   6.090   0.565   0.287
52418SOL    HW159151   6.180   0.556   0.255
52418SOL    HW259152   6.087   0.651   0.329
52419SOL     OW59153   4.077  13.042   7.705
52419SOL    HW159154   4.003  12.990   7.737
52419SOL    HW259155   4.101  13.097   7.780
52420SOL     OW59156   6.118   3.429  12.852
52420SOL    HW159157   6.139   3.506  12.905
52420SOL    HW259158   6.182   3.430  12.781
52421SOL     OW59159   0.871   1.076   5.977
52421SOL    HW159160   0.887   1.020   6.053
52421SOL    HW259161   0.887   1.019   5.902
52422SOL     OW59162   4.859   4.038   2.053
52422SOL    HW159163   4.773   4.015   2.019
52422SOL    HW259164   4.889   3.959   2.099
52423SOL     OW59165   4.074   5.232   8.907
52423SOL    HW159166   3.997   5.288   8.920
52423SOL    HW259167   4.077   5.218   8.812
52424SOL     OW59168   5.090   3.383   8.144
52424SOL    HW159169   5.120   3.381   8.054
52424SOL    HW259170   5.167   3.410   8.195
52425SOL     OW59171   6.984   9.116   9.006
52425SOL    HW159172   6.981   9.212   9.010
52425SOL    HW259173   7.006   9.097   8.915
52426SOL     OW59174   7.453   5.543  11.006
52426SOL    HW159175   7.494   5.502  11.082
52426SOL    HW259176   7.514   5.614  10.982
52427SOL     OW59177  13.986  12.895   1.392
52427SOL    HW159178  14.021  12.935   1.472
52427SOL    HW259179  14.033  12.812   1.384
52428SOL     OW59180   8.490   2.987  14.377
52428SOL    HW159181   8.500   3.079  14.402
52428SOL    HW259182   8.427   2.989  14.305
52429SOL     OW59183   1.201   6.269   8.291
52429SOL    HW159184   1.190   6.342   8.351
52429SOL    HW259185   1.116   6.225   8.290
52430SOL     OW59186  14.071  13.762   0.916
52430SOL    HW159187  14.077  13.692   0.850
52430SOL    HW259188  13.977  13.782   0.920
52431SOL     OW59189   9.098   0.389   3.617
52431SOL    HW159190   9.030   0.339   3.661
52431SOL    HW259191   9.171   0.389   3.678
52432SOL     OW59192  10.106   2.257   5.897
52432SOL    HW159193  10.149   2.172   5.908
52432SOL    HW259194  10.098   2.268   5.803
52433SOL     OW59195   5.739   9.797  12.744
52433SOL    HW159196   5.755   9.826  12.834
52433SOL    HW259197   5.695   9.713  12.753
52434SOL     OW59198   0.033   6.397   9.719
52434SOL    HW159199   0.080   6.464   9.769
52434SOL    HW259200   0.043   6.318   9.771
52435SOL     OW59201   5.729   4.439   9.534
52435SOL    HW159202   5.732   4.437   9.630
52435SOL    HW259203   5.820   4.437   9.506
52436SOL     OW59204  13.908  11.003   1.337
52436SOL    HW159205  13.860  10.921   1.341
52436SOL    HW259206  13.961  11.005   1.416
52437SOL     OW59207  14.183   0.978   3.308
52437SOL    HW159208  14.132   1.047   3.350
52437SOL    HW259209  14.120   0.908   3.291
52438SOL     OW59210   9.918  12.563   4.938
52438SOL    HW159211   9.908  12.552   5.033
52438SOL    HW259212  10.012  12.571   4.925
52439SOL     OW59213  11.283   6.422   3.743
52439SOL    HW159214  11.267   6.350   3.804
52439SOL    HW259215  11.242   6.394   3.661
52440SOL     OW59216  12.015   9.533   9.070
52440SOL    HW159217  11.991   9.620   9.037
52440SOL    HW259218  11.933   9.496   9.102
52441SOL     OW59219   1.011   9.345  14.031
52441SOL    HW159220   1.005   9.440  14.019
52441SOL    HW259221   0.947   9.326  14.099
52442SOL     OW59222   4.536   9.613   1.062
52442SOL    HW159223   4.580   9.592   1.144
52442SOL    HW259224   4.584   9.689   1.028
52443SOL     OW59225   1.596  13.310   2.407
52443SOL    HW159226   1.504  13.283   2.404
52443SOL    HW259227   1.606  13.367   2.331
52444SOL     OW59228   1.622  10.974   4.532
52444SOL    HW159229   1.562  10.948   4.601
52444SOL    HW259230   1.578  10.949   4.451
52445SOL     OW59231   5.010   2.886   5.450
52445SOL    HW159232   5.063   2.877   5.530
52445SOL    HW259233   4.925   2.917   5.481
52446SOL     OW59234  12.250   1.139   6.917
52446SOL    HW159235  12.280   1.076   6.851
52446SOL    HW259236  12.202   1.086   6.981
52447SOL     OW59237   7.421   6.188   2.073
52447SOL    HW159238   7.369   6.251   2.123
52447SOL    HW259239   7.416   6.219   1.982
52448SOL     OW59240   0.580   7.610  11.415
52448SOL    HW159241   0.660   7.635  11.368
52448SOL    HW259242   0.509   7.646  11.362
52449SOL     OW59243   1.731  11.950   1.549
52449SOL    HW159244   1.657  11.958   1.609
52449SOL    HW259245   1.691  11.930   1.464
52450SOL     OW59246  11.171  14.671   7.035
52450SOL    HW159247  11.188  14.594   7.090
52450SOL    HW259248  11.255  14.716   7.031
52451SOL     OW59249   1.086   8.252   2.852
52451SOL    HW159250   1.016   8.231   2.790
52451SOL    HW259251   1.125   8.167   2.873
52452SOL     OW59252   5.829  10.742  12.790
52452SOL    HW159253   5.863  10.684  12.859
52452SOL    HW259254   5.797  10.819  12.837
52453SOL     OW59255   1.950   0.290   0.664
52453SOL    HW159256   1.864   0.315   0.696
52453SOL    HW259257   1.985   0.370   0.623
52454SOL     OW59258   4.487   7.799  10.402
52454SOL    HW159259   4.566   7.759  10.437
52454SOL    HW259260   4.415   7.751  10.442
52455SOL     OW59261   0.307   6.875  13.157
52455SOL    HW159262   0.402   6.870  13.159
52455SOL    HW259263   0.280   6.812  13.090
52456SOL     OW59264  10.401  10.027   0.675
52456SOL    HW159265  10.459   9.997   0.744
52456SOL    HW259266  10.437  10.112   0.648
52457SOL     OW59267   9.301   4.263   1.791
52457SOL    HW159268   9.371   4.201   1.810
52457SOL    HW259269   9.334   4.347   1.821
52458SOL     OW59270  12.952   8.165   0.619
52458SOL    HW159271  12.884   8.123   0.567
52458SOL    HW259272  12.940   8.130   0.707
52459SOL     OW59273  10.082   0.079   1.471
52459SOL    HW159274  10.124   0.160   1.501
52459SOL    HW259275  10.149   0.034   1.420
52460SOL     OW59276   8.963   4.079  12.426
52460SOL    HW159277   9.017   4.115  12.355
52460SOL    HW259278   8.875   4.076  12.390
52461SOL     OW59279  12.352   2.344  12.369
52461SOL    HW159280  12.326   2.323  12.279
52461SOL    HW259281  12.441   2.311  12.377
52462SOL     OW59282   3.700   4.712   8.926
52462SOL    HW159283   3.670   4.635   8.975
52462SOL    HW259284   3.658   4.704   8.841
52463SOL     OW59285   8.545   6.479   5.600
52463SOL    HW159286   8.458   6.519   5.592
52463SOL    HW259287   8.581   6.480   5.512
52464SOL     OW59288   0.171   0.968   8.379
52464SOL    HW159289   0.189   0.887   8.427
52464SOL    HW259290   0.257   1.006   8.361
52465SOL     OW59291   0.281   2.813   1.003
52465SOL    HW159292   0.267   2.862   1.084
52465SOL    HW259293   0.263   2.876   0.933
52466SOL     OW59294  11.069   4.493  10.997
52466SOL    HW159295  10.977   4.520  10.987
52466SOL    HW259296  11.089   4.511  11.089
52467SOL     OW59297   7.506  14.840   9.711
52467SOL    HW159298   7.463  14.844   9.626
52467SOL    HW259299   7.584  14.787   9.695
52468SOL     OW59300   2.862  12.598   6.218
52468SOL    HW159301   2.812  12.533   6.170
52468SOL    HW259302   2.951  12.562   6.222
52469SOL     OW59303   3.358   0.282   2.273
52469SOL    HW159304   3.401   0.347   2.328
52469SOL    HW259305   3.286   0.249   2.327
52470SOL     OW59306   6.360  10.372   3.587
52470SOL    HW159307   6.416  10.368   3.665
52470SOL    HW259308   6.272  10.357   3.619
52471SOL     OW59309   3.310   5.941  10.120
52471SOL    HW159310   3.253   5.877  10.161
52471SOL    HW259311   3.267   6.026  10.135
52472SOL     OW59312  11.128  10.304   1.251
52472SOL    HW159313  11.215  10.324   1.217
52472SOL    HW259314  11.143  10.249   1.328
52473SOL     OW59315   9.040   8.696   5.629
52473SOL    HW159316   9.085   8.622   5.671
52473SOL    HW259317   9.025   8.667   5.539
52474SOL     OW59318   8.757   5.075   1.428
52474SOL    HW159319   8.837   5.095   1.477
52474SOL    HW259320   8.767   5.122   1.346
52475SOL     OW59321   8.293  12.067  14.514
52475SOL    HW159322   8.370  12.068  14.571
52475SOL    HW259323   8.304  11.989  14.460
52476SOL     OW59324   1.161  12.026   8.639
52476SOL    HW159325   1.115  12.097   8.594
52476SOL    HW259326   1.152  11.951   8.580
52477SOL     OW59327   9.128  13.756   3.511
52477SOL    HW159328   9.169  13.786   3.592
52477SOL    HW259329   9.073  13.682   3.538
52478SOL     OW59330  13.555  12.989  11.134
52478SOL    HW159331  13.631  13.018  11.183
52478SOL    HW259332  13.480  13.013  11.189
52479SOL     OW59333  13.620   1.723   9.197
52479SOL    HW159334  13.702   1.764   9.223
52479SOL    HW259335  13.597   1.666   9.271
52480SOL     OW59336   0.405  10.493  10.916
52480SOL    HW159337   0.386  10.479  11.009
52480SOL    HW259338   0.353  10.427  10.871
52481SOL     OW59339  12.300   5.415   9.594
52481SOL    HW159340  12.274   5.505   9.574
52481SOL    HW259341  12.267   5.364   9.520
52482SOL     OW59342   2.405   2.021   9.437
52482SOL    HW159343   2.359   2.086   9.385
52482SOL    HW259344   2.356   1.940   9.424
52483SOL     OW59345   6.021   6.035  14.865
52483SOL    HW159346   6.036   6.055   0.076
52483SOL    HW259347   6.058   5.948  14.852
52484SOL     OW59348  10.244  13.964   4.092
52484SOL    HW159349  10.242  13.998   4.002
52484SOL    HW259350  10.237  14.041   4.148
52485SOL     OW59351  14.014   8.399   5.884
52485SOL    HW159352  14.046   8.436   5.801
52485SOL    HW259353  14.087   8.345   5.916
52486SOL     OW59354   4.352   9.945   8.304
52486SOL    HW159355   4.374   9.872   8.245
52486SOL    HW259356   4.323   9.902   8.384
52487SOL     OW59357   2.400   0.068   5.947
52487SOL    HW159358   2.408   0.164   5.952
52487SOL    HW259359   2.360   0.044   6.031
52488SOL     OW59360  10.984   6.898   7.794
52488SOL    HW159361  10.904   6.848   7.809
52488SOL    HW259362  11.050   6.831   7.776
52489SOL     OW59363   9.673   7.862   4.047
52489SOL    HW159364   9.639   7.918   3.977
52489SOL    HW259365   9.701   7.782   4.003
52490SOL     OW59366   7.052  12.651  13.229
52490SOL    HW159367   6.985  12.677  13.293
52490SOL    HW259368   7.003  12.636  13.148
52491SOL     OW59369   5.933  13.593   2.916
52491SOL    HW159370   5.844  13.604   2.883
52491SOL    HW259371   5.968  13.682   2.920
52492SOL     OW59372  10.249   3.518   3.293
52492SOL    HW159373  10.223   3.426   3.284
52492SOL    HW259374  10.270   3.546   3.204
52493SOL     OW59375  12.107  13.085   5.377
52493SOL    HW159376  12.121  13.060   5.286
52493SOL    HW259377  12.194  13.112   5.409
52494SOL     OW59378   7.876   8.216  14.863
52494SOL    HW159379   7.945   8.275  14.833
52494SOL    HW259380   7.811   8.217  14.793
52495SOL     OW59381   3.001   2.742  12.762
52495SOL    HW159382   3.040   2.712  12.680
52495SOL    HW259383   2.972   2.661  12.805
52496SOL     OW59384   0.109  13.450   1.426
52496SOL    HW159385   0.066  13.501   1.357
52496SOL    HW259386   0.161  13.385   1.378
52497SOL     OW59387   5.435  11.802  10.405
52497SOL    HW159388   5.364  11.846  10.358
52497SOL    HW259389   5.439  11.848  10.489
52498SOL     OW59390   0.734  12.593   9.363
52498SOL    HW159391   0.691  12.655   9.304
52498SOL    HW259392   0.796  12.646   9.412
52499SOL     OW59393   8.421   3.161   2.227
52499SOL    HW159394   8.471   3.089   2.266
52499SOL    HW259395   8.343   3.169   2.281
52500SOL     OW59396   6.371   3.452   5.927
52500SOL    HW159397   6.362   3.496   6.012
52500SOL    HW259398   6.399   3.363   5.949
52501SOL     OW59399   4.539   9.554   5.954
52501SOL    HW159400   4.512   9.625   6.013
52501SOL    HW259401   4.612   9.591   5.904
52502SOL     OW59402   8.353   5.581   4.417
52502SOL    HW159403   8.263   5.593   4.446
52502SOL    HW259404   8.350   5.502   4.363
52503SOL     OW59405   7.124   4.983   6.534
52503SOL    HW159406   7.209   5.019   6.509
52503SOL    HW259407   7.106   4.916   6.468
52504SOL     OW59408  10.490   7.616  13.800
52504SOL    HW159409  10.430   7.546  13.776
52504SOL    HW259410  10.438   7.696  13.793
52505SOL     OW59411   5.931   3.989  14.390
52505SOL    HW159412   5.991   3.984  14.465
52505SOL    HW259413   5.892   3.902  14.384
52506SOL     OW59414   5.871  11.262  14.536
52506SOL    HW159415   5.835  11.199  14.599
52506SOL    HW259416   5.818  11.250  14.457
52507SOL     OW59417   9.408   9.108   3.481
52507SOL    HW159418   9.329   9.110   3.427
52507SOL    HW259419   9.376   9.109   3.571
52508SOL     OW59420   1.764  13.565   9.173
52508SOL    HW159421   1.698  13.630   9.198
52508SOL    HW259422   1.771  13.575   9.078
52509SOL     OW59423   7.599  12.256  12.928
52509SOL    HW159424   7.664  12.244  12.859
52509SOL    HW259425   7.561  12.169  12.941
52510SOL     OW59426   1.100   6.146  12.348
52510SOL    HW159427   1.155   6.152  12.271
52510SOL    HW259428   1.118   6.059  12.384
52511SOL     OW59429  14.335   2.493  13.261
52511SOL    HW159430  14.400   2.559  13.239
52511SOL    HW259431  14.252   2.531  13.233
52512SOL     OW59432  14.700   9.768   8.714
52512SOL    HW159433  14.650   9.707   8.770
52512SOL    HW259434  14.791   9.748   8.734
52513SOL     OW59435   9.760   4.243   1.910
52513SOL    HW159436   9.765   4.328   1.865
52513SOL    HW259437   9.760   4.265   2.003
52514SOL     OW59438  14.299   3.665  10.042
52514SOL    HW159439  14.384   3.661  10.086
52514SOL    HW259440  14.240   3.616  10.100
52515SOL     OW59441  11.919   7.331  14.645
52515SOL    HW159442  11.902   7.349  14.553
52515SOL    HW259443  11.852   7.381  14.692
52516SOL     OW59444   1.072   0.099   4.911
52516SOL    HW159445   0.977   0.104   4.915
52516SOL    HW259446   1.096   0.044   4.985
52517SOL     OW59447   0.408   3.828  12.878
52517SOL    HW159448   0.476   3.835  12.812
52517SOL    HW259449   0.326   3.836  12.830
52518SOL     OW59450  12.880   9.946   4.987
52518SOL    HW159451  12.935   9.900   5.050
52518SOL    HW259452  12.795   9.953   5.030
52519SOL     OW59453   6.062   9.116  12.504
52519SOL    HW159454   6.001   9.070  12.562
52519SOL    HW259455   6.146   9.071  12.517
52520SOL     OW59456  11.132  14.054  12.176
52520SOL    HW159457  11.145  14.118  12.105
52520SOL    HW259458  11.132  13.969  12.131
52521SOL     OW59459   4.452   9.150   0.857
52521SOL    HW159460   4.381   9.162   0.794
52521SOL    HW259461   4.447   9.225   0.915
52522SOL     OW59462   2.116   7.964   5.518
52522SOL    HW159463   2.029   7.949   5.482
52522SOL    HW259464   2.170   7.986   5.442
52523SOL     OW59465   5.047   5.854   3.681
52523SOL    HW159466   4.991   5.871   3.756
52523SOL    HW259467   5.023   5.921   3.617
52524SOL     OW59468   8.366  10.774   1.504
52524SOL    HW159469   8.293  10.733   1.457
52524SOL    HW259470   8.354  10.868   1.490
52525SOL     OW59471   9.030  10.006   1.935
52525SOL    HW159472   9.061   9.940   1.873
52525SOL    HW259473   9.016  10.084   1.881
52526SOL     OW59474   6.523   1.628   8.256
52526SOL    HW159475   6.544   1.607   8.347
52526SOL    HW259476   6.558   1.555   8.206
52527SOL     OW59477   2.348   9.855   7.831
52527SOL    HW159478   2.306   9.891   7.909
52527SOL    HW259479   2.306   9.770   7.819
52528SOL     OW59480   4.491   2.876   2.228
52528SOL    HW159481   4.444   2.794   2.211
52528SOL    HW259482   4.450   2.940   2.171
52529SOL     OW59483   7.237   7.680  13.512
52529SOL    HW159484   7.158   7.731  13.529
52529SOL    HW259485   7.243   7.676  13.416
52530SOL     OW59486   3.654  10.889  13.371
52530SOL    HW159487   3.664  10.828  13.298
52530SOL    HW259488   3.738  10.886  13.417
52531SOL     OW59489  12.757   5.293   7.497
52531SOL    HW159490  12.821   5.339   7.442
52531SOL    HW259491  12.803   5.277   7.579
52532SOL     OW59492   3.478   8.444  10.444
52532SOL    HW159493   3.560   8.435  10.395
52532SOL    HW259494   3.439   8.525  10.411
52533SOL     OW59495   9.614   3.448  10.802
52533SOL    HW159496   9.563   3.417  10.727
52533SOL    HW259497   9.557   3.431  10.877
52534SOL     OW59498  14.455  10.111   2.825
52534SOL    HW159499  14.441  10.171   2.898
52534SOL    HW259500  14.439  10.163   2.747
52535SOL     OW59501  14.409  10.499   7.060
52535SOL    HW159502  14.411  10.582   7.108
52535SOL    HW259503  14.326  10.502   7.012
52536SOL     OW59504   5.368  13.811   5.820
52536SOL    HW159505   5.323  13.865   5.885
52536SOL    HW259506   5.383  13.870   5.746
52537SOL     OW59507   6.792  10.223   2.551
52537SOL    HW159508   6.720  10.281   2.576
52537SOL    HW259509   6.780  10.145   2.605
52538SOL     OW59510   0.878   6.014   2.573
52538SOL    HW159511   0.846   6.032   2.661
52538SOL    HW259512   0.925   6.094   2.549
52539SOL     OW59513   6.944   4.307  11.226
52539SOL    HW159514   6.985   4.260  11.154
52539SOL    HW259515   6.937   4.398  11.196
52540SOL     OW59516  14.232  11.302   2.449
52540SOL    HW159517  14.168  11.305   2.521
52540SOL    HW259518  14.184  11.262   2.376
52541SOL     OW59519   7.354  13.150   4.723
52541SOL    HW159520   7.307  13.230   4.744
52541SOL    HW259521   7.371  13.156   4.629
52542SOL     OW59522  14.243   1.808  10.714
52542SOL    HW159523  14.222   1.740  10.650
52542SOL    HW259524  14.165   1.864  10.716
52543SOL     OW59525  11.857   9.045   8.825
52543SOL    HW159526  11.948   9.063   8.850
52543SOL    HW259527  11.810   9.127   8.843
52544SOL     OW59528   9.832   0.542   9.450
52544SOL    HW159529   9.785   0.605   9.396
52544SOL    HW259530   9.914   0.525   9.402
52545SOL     OW59531   9.215   0.056  10.466
52545SOL    HW159532   9.228   0.020  10.379
52545SOL    HW259533   9.128   0.025  10.492
52546SOL     OW59534   7.976   9.604   8.465
52546SOL    HW159535   8.061   9.569   8.491
52546SOL    HW259536   7.943   9.649   8.543
52547SOL     OW59537  13.991  11.892  11.433
52547SOL    HW159538  14.050  11.910  11.506
52547SOL    HW259539  13.960  11.803  11.449
52548SOL     OW59540   5.149  10.434   9.825
52548SOL    HW159541   5.080  10.370   9.810
52548SOL    HW259542   5.183  10.453   9.738
52549SOL     OW59543   4.468  14.201   5.616
52549SOL    HW159544   4.497  14.190   5.707
52549SOL    HW259545   4.496  14.121   5.572
52550SOL     OW59546  11.362   2.124  11.957
52550SOL    HW159547  11.448   2.082  11.958
52550SOL    HW259548  11.305   2.064  12.005
52551SOL     OW59549   9.265   0.610  13.033
52551SOL    HW159550   9.205   0.580  13.102
52551SOL    HW259551   9.341   0.644  13.080
52552SOL     OW59552   2.224   5.329  13.397
52552SOL    HW159553   2.282   5.401  13.372
52552SOL    HW259554   2.139   5.371  13.411
52553SOL     OW59555  12.931  10.397   4.339
52553SOL    HW159556  13.005  10.457   4.336
52553SOL    HW259557  12.960  10.321   4.287
52554SOL     OW59558   6.875   0.988   0.063
52554SOL    HW159559   6.804   1.050   0.079
52554SOL    HW259560   6.838   0.923   0.004
52555SOL     OW59561   4.385   0.539   4.326
52555SOL    HW159562   4.395   0.614   4.267
52555SOL    HW259563   4.379   0.464   4.268
52556SOL     OW59564   1.483  14.582   5.075
52556SOL    HW159565   1.471  14.644   5.003
52556SOL    HW259566   1.556  14.527   5.047
52557SOL     OW59567  12.365  14.075   1.366
52557SOL    HW159568  12.375  14.136   1.439
52557SOL    HW259569  12.353  13.989   1.407
52558SOL     OW59570  12.876  10.228   9.456
52558SOL    HW159571  12.824  10.256   9.532
52558SOL    HW259572  12.829  10.153   9.421
52559SOL     OW59573  11.364  10.449   8.214
52559SOL    HW159574  11.370  10.540   8.186
52559SOL    HW259575  11.439  10.406   8.173
52560SOL     OW59576   6.462  14.353   3.758
52560SOL    HW159577   6.467  14.359   3.663
52560SOL    HW259578   6.384  14.404   3.781
52561SOL     OW59579   7.996   5.702   5.571
52561SOL    HW159580   7.994   5.727   5.479
52561SOL    HW259581   7.978   5.608   5.571
52562SOL     OW59582   4.323   3.677   5.219
52562SOL    HW159583   4.364   3.750   5.173
52562SOL    HW259584   4.275   3.719   5.291
52563SOL     OW59585  13.940  14.825   4.995
52563SOL    HW159586  13.895  14.777   4.926
52563SOL    HW259587  14.014  14.867   4.952
52564SOL     OW59588   9.635   5.654   6.825
52564SOL    HW159589   9.546   5.650   6.861
52564SOL    HW259590   9.667   5.741   6.848
52565SOL     OW59591   0.825   0.359  13.411
52565SOL    HW159592   0.854   0.268  13.417
52565SOL    HW259593   0.737   0.358  13.448
52566SOL     OW59594   1.266   7.333   1.918
52566SOL    HW159595   1.232   7.404   1.865
52566SOL    HW259596   1.281   7.372   2.004
52567SOL     OW59597  13.232   0.227   2.727
52567SOL    HW159598  13.145   0.188   2.739
52567SOL    HW259599  13.255   0.206   2.637
52568SOL     OW59600  13.694   9.378   7.975
52568SOL    HW159601  13.627   9.416   8.033
52568SOL    HW259602  13.652   9.303   7.935
52569SOL     OW59603   8.603   5.701   2.887
52569SOL    HW159604   8.579   5.612   2.863
52569SOL    HW259605   8.573   5.712   2.977
52570SOL     OW59606   4.223  10.485   2.152
52570SOL    HW159607   4.178  10.401   2.142
52570SOL    HW259608   4.282  10.490   2.078
52571SOL     OW59609   3.039  11.490   7.387
52571SOL    HW159610   3.024  11.569   7.438
52571SOL    HW259611   2.986  11.423   7.429
52572SOL     OW59612  12.376   8.010   9.002
52572SOL    HW159613  12.325   7.934   8.975
52572SOL    HW259614  12.322   8.086   8.980
52573SOL     OW59615   6.550  10.124   9.443
52573SOL    HW159616   6.556  10.201   9.500
52573SOL    HW259617   6.463  10.088   9.461
52574SOL     OW59618   7.157  14.085   1.087
52574SOL    HW159619   7.202  14.104   1.170
52574SOL    HW259620   7.169  14.164   1.034
52575SOL     OW59621  13.116   7.688   1.689
52575SOL    HW159622  13.140   7.622   1.623
52575SOL    HW259623  13.021   7.679   1.699
52576SOL     OW59624  14.285   7.939  11.709
52576SOL    HW159625  14.243   7.881  11.772
52576SOL    HW259626  14.298   8.021  11.757
52577SOL     OW59627   4.509   6.400   1.237
52577SOL    HW159628   4.602   6.375   1.240
52577SOL    HW259629   4.507   6.490   1.269
52578SOL     OW59630   5.474  12.064  12.587
52578SOL    HW159631   5.452  12.011  12.511
52578SOL    HW259632   5.569  12.056  12.595
52579SOL     OW59633  13.861  13.975   1.057
52579SOL    HW159634  13.767  13.955   1.062
52579SOL    HW259635  13.896  13.952   1.143
52580SOL     OW59636   9.438  13.279   0.534
52580SOL    HW159637   9.532  13.264   0.536
52580SOL    HW259638   9.408  13.235   0.455
52581SOL     OW59639   3.858   5.007   3.868
52581SOL    HW159640   3.832   5.094   3.897
52581SOL    HW259641   3.882   5.018   3.776
52582SOL     OW59642  12.144   4.895   1.449
52582SOL    HW159643  12.054   4.922   1.430
52582SOL    HW259644  12.135   4.813   1.497
52583SOL     OW59645  12.484   7.876  13.038
52583SOL    HW159646  12.541   7.844  13.108
52583SOL    HW259647  12.468   7.968  13.060
52584SOL     OW59648   7.881  14.137  10.622
52584SOL    HW159649   7.968  14.166  10.647
52584SOL    HW259650   7.848  14.090  10.699
52585SOL     OW59651  12.694   8.396  11.817
52585SOL    HW159652  12.620   8.387  11.757
52585SOL    HW259653  12.654   8.408  11.903
52586SOL     OW59654   8.683   7.708  10.885
52586SOL    HW159655   8.691   7.796  10.849
52586SOL    HW259656   8.592   7.683  10.869
52587SOL     OW59657  14.628   6.621   6.050
52587SOL    HW159658  14.536   6.642   6.034
52587SOL    HW259659  14.666   6.610   5.963
52588SOL     OW59660  13.489  13.984  10.337
52588SOL    HW159661  13.395  13.998  10.351
52588SOL    HW259662  13.518  13.938  10.416
52589SOL     OW59663   2.862   0.298   1.493
52589SOL    HW159664   2.949   0.335   1.477
52589SOL    HW259665   2.804   0.351   1.438
52590SOL     OW59666   2.213  12.685   4.501
52590SOL    HW159667   2.151  12.754   4.526
52590SOL    HW259668   2.169  12.639   4.430
52591SOL     OW59669   6.468  10.580  10.636
52591SOL    HW159670   6.444  10.556  10.726
52591SOL    HW259671   6.514  10.503  10.602
52592SOL     OW59672   3.986   8.919   2.940
52592SOL    HW159673   4.020   8.922   3.029
52592SOL    HW259674   3.959   9.009   2.921
52593SOL     OW59675   8.195  14.657  10.483
52593SOL    HW159676   8.285  14.639  10.509
52593SOL    HW259677   8.156  14.570  10.471
52594SOL     OW59678  12.840   1.503  10.815
52594SOL    HW159679  12.775   1.564  10.779
52594SOL    HW259680  12.885   1.468  10.737
52595SOL     OW59681  11.940  11.624  10.580
52595SOL    HW159682  11.927  11.530  10.589
52595SOL    HW259683  11.852  11.661  10.582
52596SOL     OW59684   1.386  13.780   8.840
52596SOL    HW159685   1.454  13.729   8.796
52596SOL    HW259686   1.304  13.749   8.802
52597SOL     OW59687   9.326  11.153   3.211
52597SOL    HW159688   9.236  11.187   3.215
52597SOL    HW259689   9.381  11.230   3.228
52598SOL     OW59690   1.505   3.974   6.685
52598SOL    HW159691   1.537   4.020   6.762
52598SOL    HW259692   1.503   4.040   6.616
52599SOL     OW59693   6.949  13.907   2.572
52599SOL    HW159694   6.992  13.822   2.559
52599SOL    HW259695   6.863  13.896   2.530
52600SOL     OW59696  12.560   4.089   3.426
52600SOL    HW159697  12.490   4.025   3.412
52600SOL    HW259698  12.622   4.044   3.484
52601SOL     OW59699  14.452   5.043  12.282
52601SOL    HW159700  14.437   5.029  12.188
52601SOL    HW259701  14.536   5.088  12.287
52602SOL     OW59702  14.295  14.430   3.063
52602SOL    HW159703  14.282  14.440   3.157
52602SOL    HW259704  14.212  14.392   3.031
52603SOL     OW59705   7.600   0.892  12.895
52603SOL    HW159706   7.618   0.934  12.979
52603SOL    HW259707   7.632   0.953  12.829
52604SOL     OW59708  12.497   9.985   7.247
52604SOL    HW159709  12.439  10.055   7.276
52604SOL    HW259710  12.494   9.920   7.318
52605SOL     OW59711  10.004   1.078   7.151
52605SOL    HW159712   9.998   1.150   7.214
52605SOL    HW259713   9.992   1.120   7.066
52606SOL     OW59714   7.215  12.372  13.061
52606SOL    HW159715   7.206  12.315  13.137
52606SOL    HW259716   7.131  12.367  13.016
52607SOL     OW59717  13.131   9.878   5.784
52607SOL    HW159718  13.101   9.837   5.703
52607SOL    HW259719  13.138   9.805   5.846
52608SOL     OW59720   6.172   9.816   5.035
52608SOL    HW159721   6.185   9.824   4.940
52608SOL    HW259722   6.177   9.722   5.052
52609SOL     OW59723  10.501   2.981   3.805
52609SOL    HW159724  10.479   2.996   3.897
52609SOL    HW259725  10.586   3.024   3.794
52610SOL     OW59726  12.535   9.268   8.014
52610SOL    HW159727  12.494   9.195   7.968
52610SOL    HW259728  12.511   9.255   8.106
52611SOL     OW59729   6.417   7.522   3.821
52611SOL    HW159730   6.493   7.545   3.874
52611SOL    HW259731   6.349   7.584   3.847
52612SOL     OW59732  11.315   9.916  10.514
52612SOL    HW159733  11.368   9.890  10.589
52612SOL    HW259734  11.375   9.913  10.439
52613SOL     OW59735   4.433   3.891   5.058
52613SOL    HW159736   4.510   3.878   5.004
52613SOL    HW259737   4.456   3.963   5.117
52614SOL     OW59738   9.652   7.410   0.974
52614SOL    HW159739   9.611   7.496   0.976
52614SOL    HW259740   9.746   7.428   0.979
52615SOL     OW59741   3.077  13.826   9.706
52615SOL    HW159742   3.024  13.832   9.627
52615SOL    HW259743   3.136  13.901   9.701
52616SOL     OW59744  12.369  10.545   2.611
52616SOL    HW159745  12.290  10.491   2.614
52616SOL    HW259746  12.384  10.570   2.702
52617SOL     OW59747  14.527  13.028   7.426
52617SOL    HW159748  14.565  13.051   7.511
52617SOL    HW259749  14.554  12.938   7.411
52618SOL     OW59750   0.849   0.391   2.159
52618SOL    HW159751   0.915   0.385   2.228
52618SOL    HW259752   0.894   0.430   2.085
52619SOL     OW59753   9.767   5.803   3.771
52619SOL    HW159754   9.755   5.820   3.677
52619SOL    HW259755   9.764   5.890   3.811
52620SOL     OW59756  10.840   8.402   2.563
52620SOL    HW159757  10.756   8.401   2.516
52620SOL    HW259758  10.874   8.490   2.548
52621SOL     OW59759   7.234   3.257  12.137
52621SOL    HW159760   7.145   3.224  12.145
52621SOL    HW259761   7.242   3.287  12.047
52622SOL     OW59762   5.834  13.394   3.921
52622SOL    HW159763   5.825  13.340   3.999
52622SOL    HW259764   5.893  13.344   3.864
52623SOL     OW59765   1.744   3.317   0.867
52623SOL    HW159766   1.769   3.227   0.888
52623SOL    HW259767   1.768   3.367   0.945
52624SOL     OW59768  10.550  13.084  11.871
52624SOL    HW159769  10.465  13.120  11.895
52624SOL    HW259770  10.611  13.158  11.879
52625SOL     OW59771   1.683   5.333   7.411
52625SOL    HW159772   1.759   5.338   7.352
52625SOL    HW259773   1.716   5.365   7.495
52626SOL     OW59774   2.432   3.252   4.255
52626SOL    HW159775   2.510   3.198   4.252
52626SOL    HW259776   2.457   3.334   4.212
52627SOL     OW59777  13.994   8.117   2.010
52627SOL    HW159778  13.902   8.128   1.985
52627SOL    HW259779  13.994   8.132   2.105
52628SOL     OW59780   5.144   9.569   2.524
52628SOL    HW159781   5.215   9.567   2.588
52628SOL    HW259782   5.092   9.645   2.548
52629SOL     OW59783   7.485  14.300   4.102
52629SOL    HW159784   7.399  14.318   4.064
52629SOL    HW259785   7.533  14.382   4.094
52630SOL     OW59786   0.373   4.057  12.005
52630SOL    HW159787   0.399   4.110  12.080
52630SOL    HW259788   0.428   3.979  12.010
52631SOL     OW59789  11.742   2.172   5.142
52631SOL    HW159790  11.807   2.110   5.108
52631SOL    HW259791  11.781   2.258   5.127
52632SOL     OW59792   2.269   3.636   9.274
52632SOL    HW159793   2.259   3.561   9.215
52632SOL    HW259794   2.340   3.611   9.333
52633SOL     OW59795   6.995  10.728   4.324
52633SOL    HW159796   7.044  10.766   4.397
52633SOL    HW259797   7.048  10.653   4.296
52634SOL     OW59798   3.499   6.657   5.997
52634SOL    HW159799   3.591   6.680   6.004
52634SOL    HW259800   3.457   6.734   5.959
52635SOL     OW59801   8.616   2.203   3.525
52635SOL    HW159802   8.694   2.254   3.500
52635SOL    HW259803   8.547   2.269   3.535
52636SOL     OW59804  11.322   2.736   7.679
52636SOL    HW159805  11.328   2.802   7.748
52636SOL    HW259806  11.409   2.735   7.638
52637SOL     OW59807  13.533  12.377  13.998
52637SOL    HW159808  13.600  12.394  13.932
52637SOL    HW259809  13.583  12.350  14.076
52638SOL     OW59810   3.879   5.925   0.355
52638SOL    HW159811   3.952   5.864   0.361
52638SOL    HW259812   3.872   5.963   0.442
52639SOL     OW59813  12.302   9.492   9.318
52639SOL    HW159814  12.235   9.529   9.376
52639SOL    HW259815  12.325   9.564   9.260
52640SOL     OW59816  12.109  10.223  12.159
52640SOL    HW159817  12.023  10.242  12.197
52640SOL    HW259818  12.097  10.140  12.113
52641SOL     OW59819  10.176   4.040   5.062
52641SOL    HW159820  10.267   4.019   5.083
52641SOL    HW259821  10.126   4.010   5.138
52642SOL     OW59822   1.291  12.360   9.761
52642SOL    HW159823   1.250  12.407   9.689
52642SOL    HW259824   1.248  12.274   9.762
52643SOL     OW59825  12.885   5.170   3.056
52643SOL    HW159826  12.824   5.096   3.056
52643SOL    HW259827  12.845   5.234   3.114
52644SOL     OW59828   5.962   7.525  11.035
52644SOL    HW159829   5.994   7.588  10.971
52644SOL    HW259830   6.029   7.457  11.037
52645SOL     OW59831   4.263  11.912   9.338
52645SOL    HW159832   4.246  11.932   9.430
52645SOL    HW259833   4.280  11.818   9.336
52646SOL     OW59834   7.709   5.685  11.149
52646SOL    HW159835   7.721   5.760  11.208
52646SOL    HW259836   7.662   5.620  11.202
52647SOL     OW59837   0.078  14.844   6.346
52647SOL    HW159838   0.143   0.019   6.387
52647SOL    HW259839   0.120  14.759   6.341
52648SOL     OW59840   1.179   4.152  14.852
52648SOL    HW159841   1.105   4.092  14.858
52648SOL    HW259842   1.254   4.096  14.833
52649SOL     OW59843   6.478  12.140   9.337
52649SOL    HW159844   6.538  12.111   9.269
52649SOL    HW259845   6.417  12.067   9.348
52650SOL     OW59846   4.146   0.682   7.180
52650SOL    HW159847   4.205   0.751   7.152
52650SOL    HW259848   4.150   0.616   7.110
52651SOL     OW59849  14.721   7.691   6.085
52651SOL    HW159850  14.658   7.620   6.073
52651SOL    HW259851  14.735   7.695   6.180
52652SOL     OW59852   0.429   7.198  14.286
52652SOL    HW159853   0.464   7.254  14.355
52652SOL    HW259854   0.354   7.246  14.252
52653SOL     OW59855   4.390   4.339   9.945
52653SOL    HW159856   4.451   4.312   9.876
52653SOL    HW259857   4.328   4.267   9.952
52654SOL     OW59858   6.357   6.375  14.706
52654SOL    HW159859   6.304   6.297  14.690
52654SOL    HW259860   6.423   6.347  14.770
52655SOL     OW59861  13.059  14.687   8.755
52655SOL    HW159862  13.054  14.637   8.836
52655SOL    HW259863  13.033  14.625   8.686
52656SOL     OW59864   9.201   5.198  13.202
52656SOL    HW159865   9.169   5.252  13.130
52656SOL    HW259866   9.137   5.126  13.208
52657SOL     OW59867  10.564   7.272  10.396
52657SOL    HW159868  10.473   7.265  10.368
52657SOL    HW259869  10.570   7.220  10.476
52658SOL     OW59870   6.645   4.024  10.083
52658SOL    HW159871   6.574   3.963  10.105
52658SOL    HW259872   6.600   4.101  10.047
52659SOL     OW59873  14.122   9.554  10.436
52659SOL    HW159874  14.029   9.552  10.413
52659SOL    HW259875  14.135   9.639  10.478
52660SOL     OW59876  11.338   9.667   0.827
52660SOL    HW159877  11.429   9.644   0.848
52660SOL    HW259878  11.291   9.584   0.829
52661SOL     OW59879  12.015   6.515  10.684
52661SOL    HW159880  11.957   6.454  10.639
52661SOL    HW259881  11.965   6.544  10.761
52662SOL     OW59882   3.204   5.501   5.735
52662SOL    HW159883   3.282   5.471   5.688
52662SOL    HW259884   3.186   5.431   5.798
52663SOL     OW59885   9.621  10.965   0.934
52663SOL    HW159886   9.565  11.041   0.949
52663SOL    HW259887   9.645  10.969   0.842
52664SOL     OW59888  12.495   4.187   5.788
52664SOL    HW159889  12.534   4.256   5.734
52664SOL    HW259890  12.482   4.228   5.873
52665SOL     OW59891   8.199   7.449   5.628
52665SOL    HW159892   8.294   7.433   5.623
52665SOL    HW259893   8.160   7.372   5.587
52666SOL     OW59894   7.320   5.660  12.823
52666SOL    HW159895   7.394   5.693  12.875
52666SOL    HW259896   7.333   5.565  12.821
52667SOL     OW59897   4.112  11.025   8.446
52667SOL    HW159898   4.039  11.001   8.502
52667SOL    HW259899   4.170  10.949   8.448
52668SOL     OW59900   6.956   6.444   5.878
52668SOL    HW159901   6.885   6.399   5.832
52668SOL    HW259902   7.008   6.373   5.915
52669SOL     OW59903  11.704  10.205   0.652
52669SOL    HW159904  11.708  10.116   0.617
52669SOL    HW259905  11.769  10.254   0.601
52670SOL     OW59906   5.732   0.334   1.106
52670SOL    HW159907   5.748   0.253   1.155
52670SOL    HW259908   5.727   0.402   1.174
52671SOL     OW59909   9.893   9.305   0.268
52671SOL    HW159910   9.904   9.221   0.313
52671SOL    HW259911   9.920   9.370   0.333
52672SOL     OW59912  10.115   3.855  12.786
52672SOL    HW159913  10.079   3.772  12.819
52672SOL    HW259914  10.140   3.836  12.696
52673SOL     OW59915  11.141   4.715   9.817
52673SOL    HW159916  11.060   4.757   9.847
52673SOL    HW259917  11.151   4.638   9.872
52674SOL     OW59918   3.754   6.740   5.980
52674SOL    HW159919   3.767   6.815   5.921
52674SOL    HW259920   3.827   6.746   6.042
52675SOL     OW59921  12.162   3.055  11.770
52675SOL    HW159922  12.081   3.052  11.720
52675SOL    HW259923  12.231   3.065  11.704
52676SOL     OW59924   9.286   0.733   5.738
52676SOL    HW159925   9.244   0.647   5.741
52676SOL    HW259926   9.214   0.795   5.748
52677SOL     OW59927  12.970   0.143   3.110
52677SOL    HW159928  12.972   0.059   3.064
52677SOL    HW259929  13.061   0.173   3.109
52678SOL     OW59930   8.160   3.092   4.264
52678SOL    HW159931   8.116   3.034   4.202
52678SOL    HW259932   8.250   3.061   4.267
52679SOL     OW59933  11.021  12.599   9.880
52679SOL    HW159934  10.993  12.666   9.818
52679SOL    HW259935  11.086  12.547   9.832
52680SOL     OW59936   8.625  11.151  13.855
52680SOL    HW159937   8.656  11.241  13.854
52680SOL    HW259938   8.638  11.120  13.765
52681SOL     OW59939  13.369   0.235   9.377
52681SOL    HW159940  13.355   0.223   9.283
52681SOL    HW259941  13.306   0.176   9.418
52682SOL     OW59942   2.434   0.721   7.096
52682SOL    HW159943   2.375   0.709   7.169
52682SOL    HW259944   2.377   0.739   7.021
52683SOL     OW59945  13.167  14.656   3.233
52683SOL    HW159946  13.192  14.747   3.252
52683SOL    HW259947  13.228  14.604   3.285
52684SOL     OW59948  10.145   4.037   8.117
52684SOL    HW159949  10.058   3.997   8.105
52684SOL    HW259950  10.206   3.971   8.084
52685SOL     OW59951  12.070   7.215   7.059
52685SOL    HW159952  11.997   7.179   7.110
52685SOL    HW259953  12.090   7.298   7.101
52686SOL     OW59954   0.780   1.563  10.484
52686SOL    HW159955   0.871   1.535  10.481
52686SOL    HW259956   0.758   1.586  10.394
52687SOL     OW59957   1.034   2.555   3.632
52687SOL    HW159958   1.055   2.643   3.663
52687SOL    HW259959   0.956   2.530   3.683
52688SOL     OW59960   7.144   4.401   9.349
52688SOL    HW159961   7.219   4.450   9.383
52688SOL    HW259962   7.096   4.464   9.296
52689SOL     OW59963  12.098  14.368   2.042
52689SOL    HW159964  12.192  14.386   2.043
52689SOL    HW259965  12.082  14.317   2.121
52690SOL     OW59966   2.823   4.983   7.108
52690SOL    HW159967   2.916   4.984   7.130
52690SOL    HW259968   2.819   4.944   7.020
52691SOL     OW59969  12.087   1.892  14.119
52691SOL    HW159970  12.036   1.888  14.200
52691SOL    HW259971  12.170   1.850  14.142
52692SOL     OW59972  13.222   5.942   2.091
52692SOL    HW159973  13.252   5.864   2.044
52692SOL    HW259974  13.133   5.957   2.060
52693SOL     OW59975   6.527   9.833   7.004
52693SOL    HW159976   6.539   9.752   6.954
52693SOL    HW259977   6.593   9.829   7.073
52694SOL     OW59978  10.321   4.559   6.976
52694SOL    HW159979  10.363   4.558   6.890
52694SOL    HW259980  10.393   4.567   7.038
52695SOL     OW59981   7.498   5.761   6.203
52695SOL    HW159982   7.589   5.737   6.220
52695SOL    HW259983   7.447   5.694   6.248
52696SOL     OW59984   3.443   7.001   1.619
52696SOL    HW159985   3.464   7.091   1.644
52696SOL    HW259986   3.453   6.951   1.700
52697SOL     OW59987  14.750   2.501   0.075
52697SOL    HW159988  14.815   2.545   0.129
52697SOL    HW259989  14.672   2.496   0.130
52698SOL     OW59990  11.193   5.698   1.370
52698SOL    HW159991  11.224   5.656   1.290
52698SOL    HW259992  11.100   5.713   1.355
52699SOL     OW59993   9.144   9.561   6.263
52699SOL    HW159994   9.214   9.516   6.310
52699SOL    HW259995   9.079   9.582   6.330
52700SOL     OW59996  14.869  11.523  10.930
52700SOL    HW159997  14.836  11.433  10.936
52700SOL    HW259998   0.040  11.523  10.851
52701SOL     OW59999  10.257   8.410   9.345
52701SOL    HW160000  10.243   8.339   9.408
52701SOL    HW260001  10.241   8.490   9.395
52702SOL     OW60002  10.481   2.423   1.149
52702SOL    HW160003  10.547   2.430   1.219
52702SOL    HW260004  10.399   2.449   1.190
52703SOL     OW60005   2.764   8.274   8.171
52703SOL    HW160006   2.729   8.196   8.129
52703SOL    HW260007   2.707   8.289   8.246
52704SOL     OW60008  14.882   9.770   7.496
52704SOL    HW160009  14.840   9.686   7.515
52704SOL    HW260010   0.016   9.809   7.582
52705SOL     OW60011   3.283  10.455   4.502
52705SOL    HW160012   3.257  10.362   4.504
52705SOL    HW260013   3.220  10.499   4.559
52706SOL     OW60014  11.903   5.624  13.591
52706SOL    HW160015  11.905   5.715  13.559
52706SOL    HW260016  11.824   5.619  13.644
52707SOL     OW60017   8.853   3.089   4.491
52707SOL    HW160018   8.839   3.183   4.477
52707SOL    HW260019   8.948   3.079   4.491
52708SOL     OW60020   0.383   6.248   3.330
52708SOL    HW160021   0.305   6.303   3.333
52708SOL    HW260022   0.398   6.221   3.420
52709SOL     OW60023   2.927   4.037   4.206
52709SOL    HW160024   2.921   4.092   4.284
52709SOL    HW260025   3.009   4.063   4.163
52710SOL     OW60026  13.748   2.899   8.871
52710SOL    HW160027  13.704   2.911   8.955
52710SOL    HW260028  13.721   2.812   8.842
52711SOL     OW60029  12.303   3.779  12.806
52711SOL    HW160030  12.250   3.733  12.741
52711SOL    HW260031  12.308   3.719  12.880
52712SOL     OW60032   7.312   3.834   1.119
52712SOL    HW160033   7.399   3.873   1.110
52712SOL    HW260034   7.326   3.741   1.099
52713SOL     OW60035   9.000   8.089  12.171
52713SOL    HW160036   8.989   8.127  12.259
52713SOL    HW260037   8.938   8.136  12.116
52714SOL     OW60038   7.637  10.841   7.283
52714SOL    HW160039   7.706  10.776   7.271
52714SOL    HW260040   7.624  10.880   7.197
52715SOL     OW60041   1.304   3.010   0.339
52715SOL    HW160042   1.377   2.994   0.399
52715SOL    HW260043   1.232   3.037   0.395
52716SOL     OW60044  13.873   5.876  10.250
52716SOL    HW160045  13.806   5.937  10.221
52716SOL    HW260046  13.886   5.896  10.343
52717SOL     OW60047   3.469   7.620   6.444
52717SOL    HW160048   3.555   7.653   6.418
52717SOL    HW260049   3.485   7.528   6.467
52718SOL     OW60050   4.188   6.277   6.899
52718SOL    HW160051   4.205   6.229   6.980
52718SOL    HW260052   4.274   6.292   6.861
52719SOL     OW60053   8.914   3.510   6.581
52719SOL    HW160054   8.901   3.441   6.516
52719SOL    HW260055   8.958   3.580   6.533
52720SOL     OW60056   8.488  11.972   5.088
52720SOL    HW160057   8.504  11.945   4.998
52720SOL    HW260058   8.470  12.066   5.082
52721SOL     OW60059   7.621  13.095   7.809
52721SOL    HW160060   7.536  13.053   7.821
52721SOL    HW260061   7.607  13.186   7.834
52722SOL     OW60062  10.772   0.862   2.156
52722SOL    HW160063  10.678   0.847   2.148
52722SOL    HW260064  10.789   0.940   2.104
52723SOL     OW60065   8.993   7.167   1.081
52723SOL    HW160066   8.919   7.206   1.126
52723SOL    HW260067   9.068   7.187   1.137
52724SOL     OW60068   2.017   1.780  11.296
52724SOL    HW160069   1.942   1.799  11.352
52724SOL    HW260070   1.995   1.698  11.253
52725SOL     OW60071  14.032  13.825  12.713
52725SOL    HW160072  13.988  13.907  12.735
52725SOL    HW260073  14.094  13.848  12.644
52726SOL     OW60074   6.938  13.607   1.541
52726SOL    HW160075   6.882  13.535   1.509
52726SOL    HW260076   6.904  13.684   1.497
52727SOL     OW60077   4.492  13.807   4.354
52727SOL    HW160078   4.580  13.816   4.391
52727SOL    HW260079   4.436  13.860   4.411
52728SOL     OW60080   7.137  13.004   8.283
52728SOL    HW160081   7.108  12.962   8.364
52728SOL    HW260082   7.088  13.086   8.280
52729SOL     OW60083   7.297   7.096   6.900
52729SOL    HW160084   7.217   7.138   6.869
52729SOL    HW260085   7.283   7.002   6.885
52730SOL     OW60086   9.495  14.160   0.008
52730SOL    HW160087   9.528  14.132  14.805
52730SOL    HW260088   9.522  14.090   0.068
52731SOL     OW60089   2.088  10.187  13.333
52731SOL    HW160090   2.073  10.174  13.239
52731SOL    HW260091   2.184  10.181  13.342
52732SOL     OW60092   9.144   2.311   3.601
52732SOL    HW160093   9.123   2.253   3.675
52732SOL    HW260094   9.238   2.296   3.586
52733SOL     OW60095   7.614   1.691   7.527
52733SOL    HW160096   7.573   1.620   7.576
52733SOL    HW260097   7.643   1.753   7.594
52734SOL     OW60098  14.253   1.304  11.457
52734SOL    HW160099  14.297   1.296  11.542
52734SOL    HW260100  14.268   1.220  11.414
52735SOL     OW60101  11.347   0.594   6.383
52735SOL    HW160102  11.440   0.588   6.406
52735SOL    HW260103  11.313   0.664   6.437
52736SOL     OW60104   3.823  12.197   0.415
52736SOL    HW160105   3.836  12.178   0.508
52736SOL    HW260106   3.731  12.176   0.399
52737SOL     OW60107  11.402   3.778   9.525
52737SOL    HW160108  11.482   3.782   9.576
52737SOL    HW260109  11.342   3.724   9.577
52738SOL     OW60110   7.501   5.723   9.018
52738SOL    HW160111   7.589   5.731   9.054
52738SOL    HW260112   7.455   5.801   9.049
52739SOL     OW60113   6.243   7.175   0.059
52739SOL    HW160114   6.229   7.111  14.871
52739SOL    HW260115   6.240   7.260   0.015
52740SOL     OW60116   2.284   6.471  10.602
52740SOL    HW160117   2.197   6.510  10.590
52740SOL    HW260118   2.282   6.433  10.690
52741SOL     OW60119  14.049   9.563   1.709
52741SOL    HW160120  13.961   9.561   1.746
52741SOL    HW260121  14.098   9.622   1.767
52742SOL     OW60122   6.921  12.758  10.999
52742SOL    HW160123   6.923  12.852  10.984
52742SOL    HW260124   7.011  12.736  11.025
52743SOL     OW60125   4.568   9.376   4.197
52743SOL    HW160126   4.507   9.408   4.131
52743SOL    HW260127   4.527   9.295   4.229
52744SOL     OW60128  14.051   8.194   1.756
52744SOL    HW160129  13.981   8.250   1.722
52744SOL    HW260130  14.022   8.172   1.845
52745SOL     OW60131  13.106   0.115   8.517
52745SOL    HW160132  13.192   0.098   8.556
52745SOL    HW260133  13.064   0.176   8.578
52746SOL     OW60134  14.326   1.598   0.927
52746SOL    HW160135  14.413   1.566   0.906
52746SOL    HW260136  14.267   1.526   0.901
52747SOL     OW60137  13.901  10.865   0.004
52747SOL    HW160138  13.921  10.877  14.793
52747SOL    HW260139  13.848  10.942   0.027
52748SOL     OW60140  11.400   4.626   6.375
52748SOL    HW160141  11.475   4.583   6.416
52748SOL    HW260142  11.329   4.562   6.382
52749SOL     OW60143   4.685   4.219   7.951
52749SOL    HW160144   4.748   4.228   7.880
52749SOL    HW260145   4.631   4.298   7.946
52750SOL     OW60146  14.213   5.481  10.969
52750SOL    HW160147  14.243   5.564  10.933
52750SOL    HW260148  14.129   5.501  11.009
52751SOL     OW60149   7.855  14.847   4.341
52751SOL    HW160150   7.947  14.852   4.366
52751SOL    HW260151   7.814   0.041   4.382
52752SOL     OW60152  13.570   1.733   8.058
52752SOL    HW160153  13.615   1.702   7.979
52752SOL    HW260154  13.636   1.784   8.104
52753SOL     OW60155   9.376   8.025  13.429
52753SOL    HW160156   9.355   7.999  13.339
52753SOL    HW260157   9.470   8.009  13.437
52754SOL     OW60158   0.824   2.666   7.937
52754SOL    HW160159   0.836   2.753   7.899
52754SOL    HW260160   0.730   2.648   7.928
52755SOL     OW60161  13.293   7.742   4.982
52755SOL    HW160162  13.351   7.809   4.945
52755SOL    HW260163  13.346   7.663   4.984
52756SOL     OW60164   4.130  14.655   3.154
52756SOL    HW160165   4.109  14.720   3.221
52756SOL    HW260166   4.053  14.598   3.150
52757SOL     OW60167   0.984   3.330  13.071
52757SOL    HW160168   0.919   3.260  13.067
52757SOL    HW260169   1.002   3.340  13.165
52758SOL     OW60170  10.122   9.456   3.367
52758SOL    HW160171  10.191   9.415   3.315
52758SOL    HW260172  10.169   9.508   3.432
52759SOL     OW60173   8.703  12.107   2.122
52759SOL    HW160174   8.743  12.193   2.139
52759SOL    HW260175   8.768  12.044   2.153
52760SOL     OW60176   5.616   0.456  11.706
52760SOL    HW160177   5.585   0.547  11.697
52760SOL    HW260178   5.632   0.427  11.616
52761SOL     OW60179  13.055  14.512   4.484
52761SOL    HW160180  13.148  14.518   4.462
52761SOL    HW260181  13.010  14.512   4.399
52762SOL     OW60182   9.588   9.565   4.256
52762SOL    HW160183   9.657   9.555   4.191
52762SOL    HW260184   9.552   9.653   4.239
52763SOL     OW60185   8.285  11.138   5.703
52763SOL    HW160186   8.363  11.165   5.655
52763SOL    HW260187   8.287  11.190   5.783
52764SOL     OW60188   0.385   5.259   8.360
52764SOL    HW160189   0.325   5.300   8.298
52764SOL    HW260190   0.381   5.315   8.437
52765SOL     OW60191   3.120  12.491  11.125
52765SOL    HW160192   3.055  12.542  11.077
52765SOL    HW260193   3.160  12.553  11.185
52766SOL     OW60194  13.640  14.795   9.151
52766SOL    HW160195  13.720  14.758   9.114
52766SOL    HW260196  13.652  14.790   9.245
52767SOL     OW60197  14.282   8.084   7.655
52767SOL    HW160198  14.369   8.080   7.614
52767SOL    HW260199  14.299   8.124   7.740
52768SOL     OW60200   9.549   4.900   4.971
52768SOL    HW160201   9.638   4.936   4.960
52768SOL    HW260202   9.495   4.953   4.911
52769SOL     OW60203   9.168  10.408   0.822
52769SOL    HW160204   9.169  10.466   0.897
52769SOL    HW260205   9.212  10.328   0.852
52770SOL     OW60206   7.683   0.365  14.337
52770SOL    HW160207   7.594   0.331  14.340
52770SOL    HW260208   7.684   0.436  14.401
52771SOL     OW60209   9.250   3.079   7.244
52771SOL    HW160210   9.306   3.128   7.304
52771SOL    HW260211   9.248   3.134   7.165
52772SOL     OW60212   6.216  12.506   0.354
52772SOL    HW160213   6.156  12.434   0.333
52772SOL    HW260214   6.257  12.528   0.270
52773SOL     OW60215   6.143   2.449  12.457
52773SOL    HW160216   6.130   2.543  12.445
52773SOL    HW260217   6.062   2.410  12.428
52774SOL     OW60218   3.558   7.942  12.732
52774SOL    HW160219   3.621   7.913  12.666
52774SOL    HW260220   3.604   7.934  12.815
52775SOL     OW60221   0.748  11.417   2.346
52775SOL    HW160222   0.771  11.510   2.341
52775SOL    HW260223   0.679  11.406   2.281
52776SOL     OW60224  14.564   8.649   9.993
52776SOL    HW160225  14.575   8.731   9.945
52776SOL    HW260226  14.532   8.676  10.079
52777SOL     OW60227  12.382  10.526   7.785
52777SOL    HW160228  12.328  10.493   7.857
52777SOL    HW260229  12.420  10.607   7.818
52778SOL     OW60230   1.086   7.258  13.578
52778SOL    HW160231   1.089   7.203  13.499
52778SOL    HW260232   1.016   7.320  13.561
52779SOL     OW60233  14.085   5.350   8.478
52779SOL    HW160234  14.150   5.419   8.472
52779SOL    HW260235  14.117   5.292   8.548
52780SOL     OW60236  11.814   8.377   1.080
52780SOL    HW160237  11.754   8.331   1.138
52780SOL    HW260238  11.852   8.309   1.025
52781SOL     OW60239   4.242  13.509   5.560
52781SOL    HW160240   4.306  13.502   5.631
52781SOL    HW260241   4.295  13.524   5.482
52782SOL     OW60242   4.709   2.025   2.071
52782SOL    HW160243   4.647   2.016   1.999
52782SOL    HW260244   4.748   1.938   2.081
52783SOL     OW60245  10.594  14.748   1.118
52783SOL    HW160246  10.625  14.781   1.033
52783SOL    HW260247  10.498  14.751   1.112
52784SOL     OW60248   3.964   5.568   2.667
52784SOL    HW160249   4.056   5.559   2.642
52784SOL    HW260250   3.955   5.658   2.697
52785SOL     OW60251   0.568   5.177   5.914
52785SOL    HW160252   0.548   5.216   5.830
52785SOL    HW260253   0.572   5.251   5.975
52786SOL     OW60254   6.048   8.820   2.073
52786SOL    HW160255   6.066   8.768   1.995
52786SOL    HW260256   6.072   8.909   2.050
52787SOL     OW60257   2.773   0.284  14.485
52787SOL    HW160258   2.799   0.375  14.469
52787SOL    HW260259   2.765   0.246  14.398
52788SOL     OW60260   3.149  11.978   6.292
52788SOL    HW160261   3.076  11.951   6.348
52788SOL    HW260262   3.124  12.065   6.261
52789SOL     OW60263   6.980  10.507   9.516
52789SOL    HW160264   6.986  10.467   9.429
52789SOL    HW260265   6.917  10.578   9.506
52790SOL     OW60266  14.054   3.667   4.322
52790SOL    HW160267  14.149   3.665   4.329
52790SOL    HW260268  14.022   3.651   4.410
52791SOL     OW60269  10.545   4.764   0.491
52791SOL    HW160270  10.565   4.724   0.576
52791SOL    HW260271  10.529   4.690   0.433
52792SOL     OW60272   6.309  10.361  11.540
52792SOL    HW160273   6.265  10.323  11.616
52792SOL    HW260274   6.372  10.294  11.513
52793SOL     OW60275   3.991   8.684   7.202
52793SOL    HW160276   4.033   8.601   7.181
52793SOL    HW260277   4.063   8.746   7.209
52794SOL     OW60278  13.279  12.758   4.868
52794SOL    HW160279  13.306  12.785   4.780
52794SOL    HW260280  13.362  12.741   4.914
52795SOL     OW60281  14.087   7.277   2.785
52795SOL    HW160282  14.155   7.316   2.840
52795SOL    HW260283  14.116   7.187   2.769
52796SOL     OW60284   8.318  10.683  11.518
52796SOL    HW160285   8.355  10.705  11.432
52796SOL    HW260286   8.348  10.594  11.536
52797SOL     OW60287  11.031  12.802   3.339
52797SOL    HW160288  11.103  12.827   3.397
52797SOL    HW260289  10.953  12.804   3.396
52798SOL     OW60290  13.644   8.677   0.125
52798SOL    HW160291  13.674   8.623   0.198
52798SOL    HW260292  13.549   8.663   0.122
52799SOL     OW60293  11.030   9.720   8.462
52799SOL    HW160294  10.974   9.661   8.513
52799SOL    HW260295  10.993   9.807   8.479
52800SOL     OW60296   5.011   9.715   7.472
52800SOL    HW160297   5.034   9.788   7.414
52800SOL    HW260298   4.970   9.651   7.415
52801SOL     OW60299  12.926  10.077  12.841
52801SOL    HW160300  12.994  10.014  12.862
52801SOL    HW260301  12.936  10.147  12.905
52802SOL     OW60302  12.612   2.212  14.818
52802SOL    HW160303  12.627   2.269   0.011
52802SOL    HW260304  12.612   2.123  14.855
52803SOL     OW60305   7.389  10.486  12.387
52803SOL    HW160306   7.302  10.509  12.421
52803SOL    HW260307   7.416  10.563  12.337
52804SOL     OW60308   7.795   3.287   6.544
52804SOL    HW160309   7.739   3.225   6.498
52804SOL    HW260310   7.878   3.285   6.495
52805SOL     OW60311   0.508   8.760   3.565
52805SOL    HW160312   0.464   8.704   3.501
52805SOL    HW260313   0.538   8.836   3.515
52806SOL     OW60314   2.073  11.803   8.322
52806SOL    HW160315   2.007  11.785   8.256
52806SOL    HW260316   2.130  11.726   8.321
52807SOL     OW60317   3.252   3.282   0.433
52807SOL    HW160318   3.309   3.206   0.444
52807SOL    HW260319   3.184   3.271   0.499
52808SOL     OW60320   6.231  12.437   9.951
52808SOL    HW160321   6.224  12.376  10.024
52808SOL    HW260322   6.209  12.385   9.874
52809SOL     OW60323   7.826   1.241   2.597
52809SOL    HW160324   7.763   1.198   2.655
52809SOL    HW260325   7.781   1.319   2.566
52810SOL     OW60326  14.068  10.654  10.601
52810SOL    HW160327  13.982  10.657  10.559
52810SOL    HW260328  14.087  10.560  10.608
52811SOL     OW60329   5.595   2.898   2.555
52811SOL    HW160330   5.555   2.941   2.631
52811SOL    HW260331   5.563   2.808   2.559
52812SOL     OW60332   3.738  10.869  14.370
52812SOL    HW160333   3.663  10.899  14.319
52812SOL    HW260334   3.720  10.777  14.389
52813SOL     OW60335   8.539   3.737   3.419
52813SOL    HW160336   8.633   3.727   3.407
52813SOL    HW260337   8.512   3.661   3.470
52814SOL     OW60338  12.148  14.199  12.830
52814SOL    HW160339  12.227  14.252  12.826
52814SOL    HW260340  12.137  14.164  12.742
52815SOL     OW60341  13.241   0.546   9.010
52815SOL    HW160342  13.307   0.478   9.022
52815SOL    HW260343  13.266   0.591   8.930
52816SOL     OW60344   8.044   8.730   6.949
52816SOL    HW160345   8.116   8.667   6.945
52816SOL    HW260346   7.965   8.676   6.956
52817SOL     OW60347  13.502   5.716   9.795
52817SOL    HW160348  13.445   5.792   9.784
52817SOL    HW260349  13.443   5.644   9.815
52818SOL     OW60350  12.113   2.253   4.206
52818SOL    HW160351  12.051   2.312   4.249
52818SOL    HW260352  12.148   2.199   4.278
52819SOL     OW60353   6.078  12.042  13.175
52819SOL    HW160354   6.129  11.992  13.111
52819SOL    HW260355   6.102  12.005  13.260
52820SOL     OW60356  11.976   5.351   2.675
52820SOL    HW160357  11.881   5.365   2.668
52820SOL    HW260358  12.012   5.439   2.685
52821SOL     OW60359   9.603   4.671   6.452
52821SOL    HW160360   9.553   4.725   6.391
52821SOL    HW260361   9.615   4.727   6.529
52822SOL     OW60362   0.379   1.421   5.541
52822SOL    HW160363   0.398   1.397   5.631
52822SOL    HW260364   0.435   1.496   5.523
52823SOL     OW60365   1.182   8.739   2.286
52823SOL    HW160366   1.189   8.789   2.204
52823SOL    HW260367   1.272   8.718   2.309
52824SOL     OW60368   1.210   6.179   3.981
52824SOL    HW160369   1.157   6.156   4.058
52824SOL    HW260370   1.202   6.274   3.975
52825SOL     OW60371   9.802   6.789   1.958
52825SOL    HW160372   9.853   6.861   1.995
52825SOL    HW260373   9.837   6.710   2.000
52826SOL     OW60374   8.280  10.177   4.738
52826SOL    HW160375   8.276  10.112   4.809
52826SOL    HW260376   8.194  10.174   4.697
52827SOL     OW60377   1.678  12.908   6.324
52827SOL    HW160378   1.765  12.948   6.323
52827SOL    HW260379   1.657  12.891   6.232
52828SOL     OW60380  10.992   2.198  12.071
52828SOL    HW160381  11.021   2.161  12.154
52828SOL    HW260382  10.898   2.177  12.067
52829SOL     OW60383   9.352   3.255  12.267
52829SOL    HW160384   9.289   3.321  12.238
52829SOL    HW260385   9.367   3.202  12.188
52830SOL     OW60386  10.375   1.731  14.864
52830SOL    HW160387  10.421   1.812  14.845
52830SOL    HW260388  10.408   1.669  14.799
52831SOL     OW60389   4.688   1.613   6.714
52831SOL    HW160390   4.639   1.621   6.632
52831SOL    HW260391   4.778   1.596   6.687
52832SOL     OW60392   1.991   2.011  12.044
52832SOL    HW160393   2.027   1.956  11.975
52832SOL    HW260394   2.067   2.055  12.082
52833SOL     OW60395   3.516  14.726   7.102
52833SOL    HW160396   3.434  14.696   7.140
52833SOL    HW260397   3.580  14.660   7.127
52834SOL     OW60398  14.479   3.134   8.587
52834SOL    HW160399  14.413   3.189   8.628
52834SOL    HW260400  14.431   3.083   8.522
52835SOL     OW60401  14.125  11.744   6.570
52835SOL    HW160402  14.065  11.814   6.545
52835SOL    HW260403  14.144  11.761   6.663
52836SOL     OW60404   7.787   5.669   0.206
52836SOL    HW160405   7.832   5.586   0.225
52836SOL    HW260406   7.720   5.645   0.142
52837SOL     OW60407  13.022  12.270   1.519
52837SOL    HW160408  13.020  12.353   1.566
52837SOL    HW260409  12.931  12.254   1.494
52838SOL     OW60410  12.664   8.462   5.957
52838SOL    HW160411  12.660   8.415   5.873
52838SOL    HW260412  12.615   8.407   6.018
52839SOL     OW60413  13.347   1.206   2.264
52839SOL    HW160414  13.431   1.249   2.279
52839SOL    HW260415  13.302   1.262   2.201
52840SOL     OW60416   7.941  10.853  13.957
52840SOL    HW160417   8.006  10.904  13.908
52840SOL    HW260418   7.966  10.864  14.048
52841SOL     OW60419  11.742   4.623  11.763
52841SOL    HW160420  11.682   4.553  11.789
52841SOL    HW260421  11.695   4.704  11.786
52842SOL     OW60422   1.501   6.294   6.106
52842SOL    HW160423   1.483   6.381   6.072
52842SOL    HW260424   1.424   6.242   6.084
52843SOL     OW60425   2.846   7.533  13.109
52843SOL    HW160426   2.926   7.584  13.118
52843SOL    HW260427   2.861   7.454  13.162
52844SOL     OW60428   9.546   5.969  14.627
52844SOL    HW160429   9.484   5.940  14.561
52844SOL    HW260430   9.524   5.918  14.705
52845SOL     OW60431   1.255  12.998   3.113
52845SOL    HW160432   1.340  13.041   3.120
52845SOL    HW260433   1.194  13.058   3.156
52846SOL     OW60434   5.144   8.155   1.801
52846SOL    HW160435   5.107   8.199   1.724
52846SOL    HW260436   5.231   8.126   1.772
52847SOL     OW60437   5.145   6.975   9.999
52847SOL    HW160438   5.136   7.066  10.026
52847SOL    HW260439   5.224   6.945  10.043
52848SOL     OW60440   7.335   1.911   1.592
52848SOL    HW160441   7.429   1.907   1.612
52848SOL    HW260442   7.292   1.880   1.672
52849SOL     OW60443   7.955   2.584  12.366
52849SOL    HW160444   7.976   2.496  12.397
52849SOL    HW260445   7.879   2.572  12.309
52850SOL     OW60446   6.355  14.611   4.053
52850SOL    HW160447   6.449  14.600   4.041
52850SOL    HW260448   6.327  14.533   4.102
52851SOL     OW60449  10.609   4.633   7.016
52851SOL    HW160450  10.694   4.675   7.009
52851SOL    HW260451  10.629   4.542   7.038
52852SOL     OW60452  13.403  14.692   5.331
52852SOL    HW160453  13.398  14.649   5.416
52852SOL    HW260454  13.461  14.635   5.279
52853SOL     OW60455   4.427   8.525  14.553
52853SOL    HW160456   4.387   8.479  14.480
52853SOL    HW260457   4.355   8.571  14.596
52854SOL     OW60458   8.218   4.875   9.231
52854SOL    HW160459   8.174   4.798   9.267
52854SOL    HW260460   8.311   4.861   9.252
52855SOL     OW60461   4.388  13.898  10.444
52855SOL    HW160462   4.306  13.874  10.487
52855SOL    HW260463   4.439  13.817  10.443
52856SOL     OW60464   4.495   3.247   8.974
52856SOL    HW160465   4.425   3.265   9.037
52856SOL    HW260466   4.449   3.207   8.899
52857SOL     OW60467   5.244   4.955  10.201
52857SOL    HW160468   5.194   4.989  10.275
52857SOL    HW260469   5.327   4.925  10.239
52858SOL     OW60470   2.603   6.711  14.789
52858SOL    HW160471   2.642   6.625  14.799
52858SOL    HW260472   2.559   6.707  14.704
52859SOL     OW60473   4.112   6.682   0.019
52859SOL    HW160474   4.113   6.637  14.817
52859SOL    HW260475   4.152   6.767   0.002
52860SOL     OW60476   3.043   0.052   2.944
52860SOL    HW160477   3.012   0.040   3.034
52860SOL    HW260478   2.967   0.086   2.897
52861SOL     OW60479   5.990   6.621  11.572
52861SOL    HW160480   6.065   6.575  11.534
52861SOL    HW260481   6.016   6.639  11.662
52862SOL     OW60482   9.019  11.292   6.071
52862SOL    HW160483   9.101  11.277   6.025
52862SOL    HW260484   9.029  11.377   6.113
52863SOL     OW60485  13.193   9.043   9.444
52863SOL    HW160486  13.150   9.091   9.373
52863SOL    HW260487  13.123   8.995   9.488
52864SOL     OW60488   4.783  11.739  12.420
52864SOL    HW160489   4.853  11.684  12.385
52864SOL    HW260490   4.760  11.797  12.348
52865SOL     OW60491   8.608   8.451   1.167
52865SOL    HW160492   8.654   8.493   1.239
52865SOL    HW260493   8.543   8.395   1.209
52866SOL     OW60494   3.190  13.970  10.106
52866SOL    HW160495   3.134  13.916  10.162
52866SOL    HW260496   3.251  14.012  10.168
52867SOL     OW60497  12.295  14.040  10.439
52867SOL    HW160498  12.207  14.007  10.419
52867SOL    HW260499  12.351  14.001  10.372
52868SOL     OW60500   2.706  13.153   2.885
52868SOL    HW160501   2.736  13.194   2.804
52868SOL    HW260502   2.762  13.076   2.895
52869SOL     OW60503   8.645   3.866   9.151
52869SOL    HW160504   8.667   3.939   9.093
52869SOL    HW260505   8.553   3.846   9.133
52870SOL     OW60506   7.908  11.060   3.244
52870SOL    HW160507   7.900  10.964   3.249
52870SOL    HW260508   7.850  11.085   3.172
52871SOL     OW60509   5.946  14.601   2.261
52871SOL    HW160510   6.003  14.525   2.273
52871SOL    HW260511   5.890  14.602   2.338
52872SOL     OW60512   0.107  10.191  12.334
52872SOL    HW160513   0.124  10.277  12.371
52872SOL    HW260514   0.017  10.171  12.361
52873SOL     OW60515   5.287   1.358   5.152
52873SOL    HW160516   5.371   1.354   5.107
52873SOL    HW260517   5.226   1.311   5.094
52874SOL     OW60518   8.385   6.891   4.237
52874SOL    HW160519   8.412   6.799   4.241
52874SOL    HW260520   8.336   6.904   4.318
52875SOL     OW60521  14.120   2.229   6.608
52875SOL    HW160522  14.171   2.148   6.612
52875SOL    HW260523  14.115   2.258   6.699
52876SOL     OW60524   2.800   9.568  10.206
52876SOL    HW160525   2.736   9.526  10.264
52876SOL    HW260526   2.879   9.576  10.258
52877SOL     OW60527   2.889  13.632  11.299
52877SOL    HW160528   2.969  13.659  11.255
52877SOL    HW260529   2.819  13.677  11.251
52878SOL     OW60530  11.264  14.086  11.248
52878SOL    HW160531  11.246  13.992  11.241
52878SOL    HW260532  11.202  14.116  11.315
52879SOL     OW60533   2.210   6.703  13.034
52879SOL    HW160534   2.154   6.635  12.998
52879SOL    HW260535   2.283   6.709  12.972
52880SOL     OW60536   1.526   9.184   9.393
52880SOL    HW160537   1.492   9.273   9.403
52880SOL    HW260538   1.465   9.142   9.332
52881SOL     OW60539   3.155   0.327  14.769
52881SOL    HW160540   3.068   0.346  14.802
52881SOL    HW260541   3.144   0.252  14.711
52882SOL     OW60542  14.305   5.991   0.321
52882SOL    HW160543  14.295   6.083   0.346
52882SOL    HW260544  14.349   5.994   0.237
52883SOL     OW60545   7.849   2.395   8.778
52883SOL    HW160546   7.859   2.353   8.693
52883SOL    HW260547   7.870   2.487   8.762
52884SOL     OW60548   8.041   9.064   6.227
52884SOL    HW160549   8.024   8.971   6.213
52884SOL    HW260550   7.966   9.095   6.279
52885SOL     OW60551   7.194  10.171   0.176
52885SOL    HW160552   7.108  10.210   0.163
52885SOL    HW260553   7.240  10.184   0.093
52886SOL     OW60554  10.537   0.990   9.232
52886SOL    HW160555  10.447   0.960   9.243
52886SOL    HW260556  10.591   0.918   9.267
52887SOL     OW60557   4.897  10.736   1.696
52887SOL    HW160558   4.923  10.679   1.769
52887SOL    HW260559   4.822  10.691   1.657
52888SOL     OW60560  12.418   5.311   8.789
52888SOL    HW160561  12.373   5.232   8.759
52888SOL    HW260562  12.499   5.313   8.738
52889SOL     OW60563   0.402   2.334  10.101
52889SOL    HW160564   0.398   2.260  10.040
52889SOL    HW260565   0.369   2.408  10.050
52890SOL     OW60566   9.234  13.146   4.673
52890SOL    HW160567   9.169  13.165   4.741
52890SOL    HW260568   9.261  13.232   4.641
52891SOL     OW60569  12.486  14.073  11.579
52891SOL    HW160570  12.436  14.151  11.556
52891SOL    HW260571  12.426  14.023  11.635
52892SOL     OW60572   8.539   6.429   0.736
52892SOL    HW160573   8.499   6.505   0.695
52892SOL    HW260574   8.625   6.421   0.694
52893SOL     OW60575  10.585   8.239   3.018
52893SOL    HW160576  10.637   8.174   2.971
52893SOL    HW260577  10.561   8.303   2.950
52894SOL     OW60578   2.083   9.463  11.490
52894SOL    HW160579   2.120   9.384  11.451
52894SOL    HW260580   2.012   9.488  11.430
52895SOL     OW60581  11.580   9.736  11.919
52895SOL    HW160582  11.631   9.766  11.995
52895SOL    HW260583  11.492   9.721  11.954
52896SOL     OW60584   8.093  14.878  13.076
52896SOL    HW160585   8.032   0.068  13.080
52896SOL    HW260586   8.039  14.800  13.089
52897SOL     OW60587   6.179   2.231  14.856
52897SOL    HW160588   6.104   2.244   0.031
52897SOL    HW260589   6.250   2.205   0.033
52898SOL     OW60590   8.211  14.730  11.803
52898SOL    HW160591   8.182  14.653  11.755
52898SOL    HW260592   8.251  14.786  11.737
52899SOL     OW60593  12.589  14.465   2.896
52899SOL    HW160594  12.546  14.411   2.963
52899SOL    HW260595  12.632  14.535   2.946
52900SOL     OW60596   9.431   4.762   7.679
52900SOL    HW160597   9.339   4.775   7.704
52900SOL    HW260598   9.462   4.848   7.654
52901SOL     OW60599   8.627   4.942   4.467
52901SOL    HW160600   8.581   4.992   4.534
52901SOL    HW260601   8.687   4.885   4.516
52902SOL     OW60602   4.595  11.659   8.925
52902SOL    HW160603   4.531  11.613   8.871
52902SOL    HW260604   4.674  11.660   8.871
52903SOL     OW60605  12.689   6.963  11.647
52903SOL    HW160606  12.658   7.023  11.715
52903SOL    HW260607  12.778   6.939  11.675
52904SOL     OW60608   8.793   1.580   9.098
52904SOL    HW160609   8.705   1.604   9.068
52904SOL    HW260610   8.851   1.641   9.054
52905SOL     OW60611   5.988   0.809   2.669
52905SOL    HW160612   5.935   0.886   2.650
52905SOL    HW260613   5.931   0.754   2.724
52906SOL     OW60614   3.585  13.517   4.348
52906SOL    HW160615   3.526  13.591   4.364
52906SOL    HW260616   3.598  13.477   4.433
52907SOL     OW60617   9.950   9.072   0.390
52907SOL    HW160618  10.045   9.076   0.396
52907SOL    HW260619   9.924   9.013   0.460
52908SOL     OW60620   6.316  12.637   5.282
52908SOL    HW160621   6.322  12.657   5.375
52908SOL    HW260622   6.270  12.554   5.278
52909SOL     OW60623   4.381   9.448  12.886
52909SOL    HW160624   4.467   9.479  12.857
52909SOL    HW260625   4.384   9.353  12.874
52910SOL     OW60626   8.439  14.157   3.950
52910SOL    HW160627   8.521  14.184   3.909
52910SOL    HW260628   8.426  14.067   3.919
52911SOL     OW60629  10.599   0.010   5.876
52911SOL    HW160630  10.600  14.805   5.915
52911SOL    HW260631  10.582  14.877   5.784
52912SOL     OW60632   2.711  10.006   8.812
52912SOL    HW160633   2.672   9.923   8.838
52912SOL    HW260634   2.720   9.999   8.717
52913SOL     OW60635  14.808   0.056   6.129
52913SOL    HW160636  14.864   0.011   6.193
52913SOL    HW260637  14.858   0.134   6.104
52914SOL     OW60638   6.044   0.383   9.397
52914SOL    HW160639   6.133   0.380   9.362
52914SOL    HW260640   6.040   0.468   9.442
52915SOL     OW60641  14.565   0.580   3.530
52915SOL    HW160642  14.656   0.609   3.534
52915SOL    HW260643  14.567   0.504   3.473
52916SOL     OW60644  14.472  12.916  14.205
52916SOL    HW160645  14.419  12.993  14.186
52916SOL    HW260646  14.511  12.893  14.120
52917SOL     OW60647  12.721   7.740   9.589
52917SOL    HW160648  12.668   7.720   9.511
52917SOL    HW260649  12.727   7.656   9.635
52918SOL     OW60650   4.287   1.234   5.414
52918SOL    HW160651   4.365   1.190   5.449
52918SOL    HW260652   4.243   1.166   5.363
52919SOL     OW60653  10.635   4.861  11.583
52919SOL    HW160654  10.700   4.911  11.632
52919SOL    HW260655  10.679   4.836  11.502
52920SOL     OW60656   9.229   0.165  11.649
52920SOL    HW160657   9.277   0.083  11.642
52920SOL    HW260658   9.234   0.188  11.741
52921SOL     OW60659  14.600  12.691   8.322
52921SOL    HW160660  14.596  12.713   8.229
52921SOL    HW260661  14.641  12.605   8.325
52922SOL     OW60662   9.587   1.588   3.782
52922SOL    HW160663   9.675   1.550   3.772
52922SOL    HW260664   9.528   1.518   3.754
52923SOL     OW60665  10.646   3.722   3.053
52923SOL    HW160666  10.708   3.651   3.041
52923SOL    HW260667  10.571   3.682   3.097
52924SOL     OW60668   3.253   3.942   1.816
52924SOL    HW160669   3.285   3.954   1.905
52924SOL    HW260670   3.308   4.000   1.763
52925SOL     OW60671  14.083  13.604   9.585
52925SOL    HW160672  14.172  13.568   9.578
52925SOL    HW260673  14.077  13.665   9.512
52926SOL     OW60674  13.876  12.942   9.344
52926SOL    HW160675  13.962  12.910   9.319
52926SOL    HW260676  13.857  12.898   9.427
52927SOL     OW60677   7.777   1.200  10.294
52927SOL    HW160678   7.703   1.139  10.296
52927SOL    HW260679   7.828   1.178  10.372
52928SOL     OW60680   9.482   4.684   5.601
52928SOL    HW160681   9.418   4.718   5.538
52928SOL    HW260682   9.567   4.699   5.560
52929SOL     OW60683  14.447   4.860   7.459
52929SOL    HW160684  14.405   4.876   7.374
52929SOL    HW260685  14.376   4.833   7.516
52930SOL     OW60686   8.954   0.717  13.915
52930SOL    HW160687   8.939   0.801  13.873
52930SOL    HW260688   9.043   0.723  13.950
52931SOL     OW60689   6.273  10.217   8.910
52931SOL    HW160690   6.256  10.276   8.837
52931SOL    HW260691   6.341  10.261   8.961
52932SOL     OW60692   5.137   0.043   8.680
52932SOL    HW160693   5.189   0.095   8.619
52932SOL    HW260694   5.166   0.071   8.767
52933SOL     OW60695   7.075   6.900   9.261
52933SOL    HW160696   6.998   6.859   9.300
52933SOL    HW260697   7.109   6.835   9.200
52934SOL     OW60698  11.896   5.856  13.425
52934SOL    HW160699  11.932   5.938  13.390
52934SOL    HW260700  11.882   5.801  13.349
52935SOL     OW60701  10.993   4.294   2.058
52935SOL    HW160702  11.034   4.346   1.988
52935SOL    HW260703  11.050   4.307   2.134
52936SOL     OW60704  13.733  12.457  10.669
52936SOL    HW160705  13.705  12.366  10.657
52936SOL    HW260706  13.824  12.451  10.697
52937SOL     OW60707   4.190  14.613  12.306
52937SOL    HW160708   4.146  14.564  12.236
52937SOL    HW260709   4.250  14.550  12.345
52938SOL     OW60710   0.080   9.402   9.186
52938SOL    HW160711   0.075   9.350   9.266
52938SOL    HW260712   0.074   9.338   9.115
52939SOL     OW60713  10.341   8.194   0.617
52939SOL    HW160714  10.284   8.271   0.607
52939SOL    HW260715  10.286   8.129   0.660
52940SOL     OW60716  13.472   9.725   2.695
52940SOL    HW160717  13.447   9.752   2.607
52940SOL    HW260718  13.441   9.797   2.751
52941SOL     OW60719   4.129   1.807  14.239
52941SOL    HW160720   4.187   1.854  14.299
52941SOL    HW260721   4.121   1.865  14.164
52942SOL     OW60722   8.157  11.316  10.290
52942SOL    HW160723   8.233  11.306  10.347
52942SOL    HW260724   8.083  11.330  10.350
52943SOL     OW60725   6.304   4.929  14.159
52943SOL    HW160726   6.354   4.962  14.085
52943SOL    HW260727   6.256   4.854  14.124
52944SOL     OW60728   0.144   0.437   6.896
52944SOL    HW160729   0.085   0.407   6.966
52944SOL    HW260730   0.113   0.525   6.875
52945SOL     OW60731  11.513   5.146   1.437
52945SOL    HW160732  11.540   5.158   1.346
52945SOL    HW260733  11.483   5.055   1.442
52946SOL     OW60734   8.939  14.373   3.902
52946SOL    HW160735   8.945  14.278   3.891
52946SOL    HW260736   9.027  14.400   3.926
52947SOL     OW60737   3.270   6.711   7.192
52947SOL    HW160738   3.211   6.777   7.228
52947SOL    HW260739   3.275   6.644   7.260
52948SOL     OW60740   9.097   5.692   4.654
52948SOL    HW160741   9.029   5.637   4.692
52948SOL    HW260742   9.054   5.776   4.636
52949SOL     OW60743   0.167   4.915   9.990
52949SOL    HW160744   0.174   4.835   9.939
52949SOL    HW260745   0.147   4.885  10.079
52950SOL     OW60746   3.193   5.807   9.297
52950SOL    HW160747   3.136   5.821   9.222
52950SOL    HW260748   3.267   5.865   9.281
52951SOL     OW60749   7.666   9.961   8.581
52951SOL    HW160750   7.666   9.979   8.487
52951SOL    HW260751   7.577   9.982   8.610
52952SOL     OW60752   3.237  13.222  11.596
52952SOL    HW160753   3.280  13.235  11.511
52952SOL    HW260754   3.304  13.178  11.649
52953SOL     OW60755  12.463   2.053  14.241
52953SOL    HW160756  12.494   2.084  14.156
52953SOL    HW260757  12.541   2.050  14.296
52954SOL     OW60758   5.281   5.871   7.405
52954SOL    HW160759   5.327   5.788   7.392
52954SOL    HW260760   5.350   5.931   7.434
52955SOL     OW60761   5.357  12.876  14.538
52955SOL    HW160762   5.437  12.838  14.575
52955SOL    HW260763   5.286  12.841  14.592
52956SOL     OW60764   2.594   7.120   8.440
52956SOL    HW160765   2.645   7.195   8.411
52956SOL    HW260766   2.585   7.131   8.535
52957SOL     OW60767   3.326  13.475   3.197
52957SOL    HW160768   3.250  13.467   3.255
52957SOL    HW260769   3.289  13.468   3.109
52958SOL     OW60770  10.021   1.910   4.434
52958SOL    HW160771   9.948   1.858   4.400
52958SOL    HW260772  10.078   1.924   4.358
52959SOL     OW60773   7.320  14.563   2.998
52959SOL    HW160774   7.314  14.653   2.964
52959SOL    HW260775   7.232  14.544   3.031
52960SOL     OW60776   7.639  11.844   7.262
52960SOL    HW160777   7.546  11.860   7.242
52960SOL    HW260778   7.670  11.927   7.297
52961SOL     OW60779   3.705  14.700   9.749
52961SOL    HW160780   3.712  14.712   9.655
52961SOL    HW260781   3.711  14.605   9.761
52962SOL     OW60782  11.252   8.770   7.158
52962SOL    HW160783  11.298   8.848   7.189
52962SOL    HW260784  11.182   8.756   7.222
52963SOL     OW60785  13.792   2.448   6.735
52963SOL    HW160786  13.875   2.458   6.781
52963SOL    HW260787  13.817   2.414   6.648
52964SOL     OW60788   9.023  11.436   1.053
52964SOL    HW160789   9.109  11.404   1.024
52964SOL    HW260790   9.036  11.460   1.145
52965SOL     OW60791  14.683  14.047   5.078
52965SOL    HW160792  14.726  14.118   5.125
52965SOL    HW260793  14.744  14.025   5.007
52966SOL     OW60794   8.785  11.435   6.006
52966SOL    HW160795   8.728  11.411   6.079
52966SOL    HW260796   8.866  11.386   6.021
52967SOL     OW60797   5.198   3.632   7.067
52967SOL    HW160798   5.269   3.586   7.023
52967SOL    HW260799   5.224   3.724   7.063
52968SOL     OW60800  10.796   1.138  11.051
52968SOL    HW160801  10.819   1.138  11.144
52968SOL    HW260802  10.701   1.133  11.049
52969SOL     OW60803   7.675   0.526  14.104
52969SOL    HW160804   7.686   0.481  14.187
52969SOL    HW260805   7.594   0.490  14.067
52970SOL     OW60806   4.065   0.530   6.016
52970SOL    HW160807   4.141   0.542   5.959
52970SOL    HW260808   4.024   0.616   6.022
52971SOL     OW60809   4.506   8.068   5.890
52971SOL    HW160810   4.497   8.155   5.927
52971SOL    HW260811   4.477   8.009   5.960
52972SOL     OW60812   1.776   7.685   0.827
52972SOL    HW160813   1.824   7.633   0.762
52972SOL    HW260814   1.835   7.757   0.848
52973SOL     OW60815  13.388  10.061   7.421
52973SOL    HW160816  13.326  10.097   7.358
52973SOL    HW260817  13.446  10.006   7.369
52974SOL     OW60818  11.797   4.330  11.862
52974SOL    HW160819  11.745   4.263  11.908
52974SOL    HW260820  11.863   4.358  11.926
52975SOL     OW60821  11.169   0.061  14.554
52975SOL    HW160822  11.149  14.853  14.529
52975SOL    HW260823  11.136   0.113  14.481
52976SOL     OW60824   3.625   0.691  13.688
52976SOL    HW160825   3.646   0.640  13.609
52976SOL    HW260826   3.711   0.719  13.720
52977SOL     OW60827   4.198   6.729   0.676
52977SOL    HW160828   4.137   6.791   0.636
52977SOL    HW260829   4.268   6.719   0.612
52978SOL     OW60830   6.902  10.011  10.083
52978SOL    HW160831   6.881  10.038   9.994
52978SOL    HW260832   6.972   9.947  10.074
52979SOL     OW60833   3.819  12.621   9.934
52979SOL    HW160834   3.728  12.589   9.929
52979SOL    HW260835   3.869  12.559   9.881
52980SOL     OW60836   3.008   4.928  14.789
52980SOL    HW160837   3.053   4.975  14.859
52980SOL    HW260838   2.947   4.991  14.753
52981SOL     OW60839   3.531   1.907  11.298
52981SOL    HW160840   3.540   1.904  11.203
52981SOL    HW260841   3.450   1.860  11.316
52982SOL     OW60842   0.374   7.241   4.563
52982SOL    HW160843   0.409   7.194   4.488
52982SOL    HW260844   0.330   7.318   4.526
52983SOL     OW60845   2.806   0.038   5.125
52983SOL    HW160846   2.889   0.002   5.156
52983SOL    HW260847   2.739  14.871   5.172
52984SOL     OW60848   9.932  14.515  12.149
52984SOL    HW160849  10.004  14.453  12.142
52984SOL    HW260850   9.857  14.470  12.110
52985SOL     OW60851  10.268   1.289  12.881
52985SOL    HW160852  10.292   1.292  12.974
52985SOL    HW260853  10.219   1.207  12.872
52986SOL     OW60854   6.583   4.119   2.290
52986SOL    HW160855   6.645   4.160   2.349
52986SOL    HW260856   6.636   4.090   2.215
52987SOL     OW60857   2.142   7.306   8.220
52987SOL    HW160858   2.195   7.386   8.221
52987SOL    HW260859   2.180   7.252   8.151
52988SOL     OW60860  10.436   7.552  12.746
52988SOL    HW160861  10.425   7.557  12.841
52988SOL    HW260862  10.497   7.622  12.726
52989SOL     OW60863   4.097  11.996   3.147
52989SOL    HW160864   4.135  11.988   3.235
52989SOL    HW260865   4.043  12.074   3.152
52990SOL     OW60866   3.409   9.133   4.017
52990SOL    HW160867   3.375   9.161   4.102
52990SOL    HW260868   3.465   9.058   4.036
52991SOL     OW60869   4.602   0.853   3.343
52991SOL    HW160870   4.606   0.944   3.316
52991SOL    HW260871   4.522   0.819   3.303
52992SOL     OW60872   0.079   3.142   5.121
52992SOL    HW160873   0.108   3.051   5.115
52992SOL    HW260874   0.049   3.152   5.212
52993SOL     OW60875  10.539   7.285   3.455
52993SOL    HW160876  10.615   7.229   3.439
52993SOL    HW260877  10.475   7.258   3.389
52994SOL     OW60878   7.823   1.504   6.420
52994SOL    HW160879   7.804   1.413   6.397
52994SOL    HW260880   7.790   1.514   6.509
52995SOL     OW60881   0.019  12.157   4.985
52995SOL    HW160882   0.040  12.106   5.064
52995SOL    HW260883  14.844  12.099   4.934
52996SOL     OW60884   4.399  11.663  11.282
52996SOL    HW160885   4.429  11.661  11.372
52996SOL    HW260886   4.338  11.590  11.274
52997SOL     OW60887   5.658   3.708   1.738
52997SOL    HW160888   5.694   3.792   1.710
52997SOL    HW260889   5.596   3.730   1.807
52998SOL     OW60890  14.639   0.076   2.425
52998SOL    HW160891  14.700   0.004   2.446
52998SOL    HW260892  14.680   0.121   2.351
52999SOL     OW60893   7.543   8.580   6.888
52999SOL    HW160894   7.487   8.657   6.885
52999SOL    HW260895   7.485   8.509   6.914
53000SOL     OW60896  10.643   7.419   9.721
53000SOL    HW160897  10.627   7.433   9.815
53000SOL    HW260898  10.565   7.454   9.678
53001SOL     OW60899   7.477   0.765   9.007
53001SOL    HW160900   7.503   0.678   8.975
53001SOL    HW260901   7.426   0.746   9.086
53002SOL     OW60902  10.390  11.825  13.822
53002SOL    HW160903  10.315  11.791  13.871
53002SOL    HW260904  10.462  11.767  13.846
53003SOL     OW60905   6.012   6.194   5.120
53003SOL    HW160906   5.964   6.277   5.113
53003SOL    HW260907   6.018   6.162   5.030
53004SOL     OW60908  10.595   3.610   6.998
53004SOL    HW160909  10.548   3.632   6.917
53004SOL    HW260910  10.624   3.693   7.033
53005SOL     OW60911   8.914  14.703  13.555
53005SOL    HW160912   8.874  14.619  13.528
53005SOL    HW260913   8.940  14.744  13.473
53006SOL     OW60914  13.388   4.456   8.794
53006SOL    HW160915  13.397   4.395   8.721
53006SOL    HW260916  13.319   4.516   8.766
53007SOL     OW60917   7.928  14.618  12.406
53007SOL    HW160918   7.876  14.694  12.379
53007SOL    HW260919   7.967  14.586  12.325
53008SOL     OW60920  12.325  13.470  13.270
53008SOL    HW160921  12.377  13.509  13.341
53008SOL    HW260922  12.310  13.380  13.299
53009SOL     OW60923   1.364  12.280  13.325
53009SOL    HW160924   1.414  12.329  13.391
53009SOL    HW260925   1.302  12.344  13.290
53010SOL     OW60926  10.715  13.802  13.525
53010SOL    HW160927  10.745  13.724  13.479
53010SOL    HW260928  10.719  13.871  13.459
53011SOL     OW60929   2.475   7.249   9.396
53011SOL    HW160930   2.468   7.270   9.303
53011SOL    HW260931   2.439   7.161   9.403
53012SOL     OW60932   7.450   2.079   3.830
53012SOL    HW160933   7.382   2.124   3.780
53012SOL    HW260934   7.476   2.005   3.776
53013SOL     OW60935   7.927  13.874   3.549
53013SOL    HW160936   7.914  13.786   3.584
53013SOL    HW260937   7.882  13.932   3.610
53014SOL     OW60938  13.059  12.460  10.921
53014SOL    HW160939  12.965  12.479  10.925
53014SOL    HW260940  13.075  12.434  10.831
53015SOL     OW60941   7.569  14.082  13.098
53015SOL    HW160942   7.528  14.061  13.014
53015SOL    HW260943   7.632  14.011  13.112
53016SOL     OW60944  10.541   3.776   4.359
53016SOL    HW160945  10.549   3.684   4.335
53016SOL    HW260946  10.468   3.809   4.306
53017SOL     OW60947   6.817   0.998   4.903
53017SOL    HW160948   6.911   0.989   4.920
53017SOL    HW260949   6.804   1.091   4.885
53018SOL     OW60950   3.395  14.033   0.993
53018SOL    HW160951   3.361  14.109   1.040
53018SOL    HW260952   3.320  13.996   0.948
53019SOL     OW60953  14.168   6.177  12.973
53019SOL    HW160954  14.206   6.260  13.003
53019SOL    HW260955  14.135   6.136  13.053
53020SOL     OW60956  14.088  13.442   8.841
53020SOL    HW160957  14.060  13.518   8.790
53020SOL    HW260958  14.045  13.452   8.926
53021SOL     OW60959  11.905   3.499   0.730
53021SOL    HW160960  11.890   3.470   0.820
53021SOL    HW260961  11.963   3.432   0.693
53022SOL     OW60962   5.839  11.922   3.748
53022SOL    HW160963   5.791  11.996   3.710
53022SOL    HW260964   5.904  11.963   3.806
53023SOL     OW60965   6.494   5.105  11.510
53023SOL    HW160966   6.430   5.124  11.442
53023SOL    HW260967   6.557   5.047  11.467
53024SOL     OW60968   1.480  13.848   2.822
53024SOL    HW160969   1.518  13.892   2.898
53024SOL    HW260970   1.421  13.913   2.784
53025SOL     OW60971   3.605  14.372   9.031
53025SOL    HW160972   3.687  14.326   9.049
53025SOL    HW260973   3.627  14.433   8.961
53026SOL     OW60974   1.563   9.540   0.481
53026SOL    HW160975   1.555   9.497   0.567
53026SOL    HW260976   1.583   9.631   0.501
53027SOL     OW60977   3.110   7.937  14.014
53027SOL    HW160978   3.143   7.949  14.103
53027SOL    HW260979   3.024   7.896  14.025
53028SOL     OW60980   5.756  13.097   4.616
53028SOL    HW160981   5.823  13.058   4.671
53028SOL    HW260982   5.675  13.089   4.667
53029SOL     OW60983  10.606   0.555   5.810
53029SOL    HW160984  10.603   0.648   5.832
53029SOL    HW260985  10.614   0.510   5.895
53030SOL     OW60986  13.483   3.840  11.291
53030SOL    HW160987  13.465   3.874  11.204
53030SOL    HW260988  13.469   3.914  11.350
53031SOL     OW60989  12.646  13.678   7.967
53031SOL    HW160990  12.701  13.733   8.023
53031SOL    HW260991  12.699  13.601   7.949
53032SOL     OW60992   5.493   4.045   5.747
53032SOL    HW160993   5.524   4.057   5.658
53032SOL    HW260994   5.543   3.971   5.781
53033SOL     OW60995  10.120   0.877   3.360
53033SOL    HW160996  10.184   0.840   3.421
53033SOL    HW260997  10.131   0.971   3.368
53034SOL     OW60998  14.870   8.544   0.028
53034SOL    HW160999   0.025   8.504   0.107
53034SOL    HW261000  14.860   8.636   0.050
53035SOL     OW61001  12.356   6.779  13.416
53035SOL    HW161002  12.448   6.756  13.402
53035SOL    HW261003  12.329   6.821  13.335
53036SOL     OW61004   6.730   7.642   0.833
53036SOL    HW161005   6.797   7.583   0.867
53036SOL    HW261006   6.762   7.667   0.746
53037SOL     OW61007   0.671  13.604   4.581
53037SOL    HW161008   0.755  13.568   4.611
53037SOL    HW261009   0.675  13.697   4.607
53038SOL     OW61010  14.335   1.278   6.325
53038SOL    HW161011  14.372   1.258   6.239
53038SOL    HW261012  14.247   1.313   6.305
53039SOL     OW61013   4.610  13.949   6.823
53039SOL    HW161014   4.652  13.943   6.738
53039SOL    HW261015   4.606  14.043   6.842
53040SOL     OW61016   6.569   9.705   2.000
53040SOL    HW161017   6.509   9.737   1.933
53040SOL    HW261018   6.615   9.783   2.030
53041SOL     OW61019  14.125  12.366   2.682
53041SOL    HW161020  14.122  12.332   2.592
53041SOL    HW261021  14.062  12.439   2.681
53042SOL     OW61022  14.371   0.868  14.795
53042SOL    HW161023  14.391   0.919  14.873
53042SOL    HW261024  14.331   0.788  14.829
53043SOL     OW61025  11.200  11.515   7.335
53043SOL    HW161026  11.162  11.473   7.258
53043SOL    HW261027  11.190  11.609   7.319
53044SOL     OW61028   3.459   3.306  13.732
53044SOL    HW161029   3.451   3.239  13.664
53044SOL    HW261030   3.372   3.346  13.736
53045SOL     OW61031   6.385   4.358   8.716
53045SOL    HW161032   6.363   4.448   8.741
53045SOL    HW261033   6.408   4.364   8.623
53046SOL     OW61034   2.248   4.663   6.490
53046SOL    HW161035   2.221   4.572   6.502
53046SOL    HW261036   2.326   4.658   6.434
53047SOL     OW61037  13.646   6.577  12.055
53047SOL    HW161038  13.573   6.518  12.037
53047SOL    HW261039  13.604   6.662  12.071
53048SOL     OW61040  14.522   0.745   2.620
53048SOL    HW161041  14.514   0.650   2.610
53048SOL    HW261042  14.447   0.769   2.674
53049SOL     OW61043   5.878  10.135   7.129
53049SOL    HW161044   5.962  10.094   7.151
53049SOL    HW261045   5.848  10.174   7.211
53050SOL     OW61046   3.194   5.742   4.126
53050SOL    HW161047   3.175   5.658   4.168
53050SOL    HW261048   3.264   5.780   4.179
53051SOL     OW61049  13.560  12.139  11.163
53051SOL    HW161050  13.585  12.055  11.124
53051SOL    HW261051  13.519  12.188  11.091
53052SOL     OW61052   6.325  14.396   3.309
53052SOL    HW161053   6.375  14.421   3.231
53052SOL    HW261054   6.275  14.475   3.331
53053SOL     OW61055   1.267   7.237  11.269
53053SOL    HW161056   1.195   7.176  11.253
53053SOL    HW261057   1.229   7.323  11.250
53054SOL     OW61058   8.067  14.666  10.014
53054SOL    HW161059   8.121  14.717  10.074
53054SOL    HW261060   8.072  14.577  10.048
53055SOL     OW61061   7.450  11.249   1.522
53055SOL    HW161062   7.452  11.159   1.554
53055SOL    HW261063   7.391  11.294   1.583
53056SOL     OW61064   2.494   3.939   6.380
53056SOL    HW161065   2.413   3.888   6.373
53056SOL    HW261066   2.487   3.983   6.465
53057SOL     OW61067   4.884  11.170   9.883
53057SOL    HW161068   4.899  11.086   9.927
53057SOL    HW261069   4.789  11.172   9.868
53058SOL     OW61070   5.810  11.263   7.544
53058SOL    HW161071   5.867  11.337   7.567
53058SOL    HW261072   5.736  11.269   7.605
53059SOL     OW61073  12.136  10.518   7.574
53059SOL    HW161074  12.130  10.490   7.482
53059SOL    HW261075  12.218  10.568   7.578
53060SOL     OW61076  12.407   8.803   0.827
53060SOL    HW161077  12.314   8.824   0.811
53060SOL    HW261078  12.412   8.784   0.920
53061SOL     OW61079  12.781   4.101   8.161
53061SOL    HW161080  12.751   4.191   8.176
53061SOL    HW261081  12.720   4.066   8.096
53062SOL     OW61082   5.587   8.776   5.472
53062SOL    HW161083   5.599   8.871   5.473
53062SOL    HW261084   5.534   8.759   5.550
53063SOL     OW61085   7.361  12.037  11.590
53063SOL    HW161086   7.346  11.993  11.506
53063SOL    HW261087   7.372  12.129  11.568
53064SOL     OW61088   7.524   2.968   6.587
53064SOL    HW161089   7.571   2.966   6.670
53064SOL    HW261090   7.492   2.879   6.574
53065SOL     OW61091   9.460   4.681  14.837
53065SOL    HW161092   9.466   4.736   0.033
53065SOL    HW261093   9.417   4.737  14.771
53066SOL     OW61094   9.117   0.632   1.911
53066SOL    HW161095   9.126   0.662   1.821
53066SOL    HW261096   9.104   0.712   1.962
53067SOL     OW61097   2.850   4.350   1.398
53067SOL    HW161098   2.898   4.338   1.316
53067SOL    HW261099   2.877   4.437   1.429
53068SOL     OW61100   4.073   7.838   4.345
53068SOL    HW161101   4.054   7.842   4.438
53068SOL    HW261102   4.094   7.928   4.320
53069SOL     OW61103  12.819   3.249   4.547
53069SOL    HW161104  12.759   3.322   4.528
53069SOL    HW261105  12.793   3.180   4.486
53070SOL     OW61106   9.059   4.612   5.687
53070SOL    HW161107   9.083   4.704   5.677
53070SOL    HW261108   8.963   4.613   5.693
53071SOL     OW61109   9.487  11.198   7.558
53071SOL    HW161110   9.484  11.201   7.654
53071SOL    HW261111   9.443  11.278   7.531
53072SOL     OW61112   6.804   5.431   2.283
53072SOL    HW161113   6.839   5.492   2.218
53072SOL    HW261114   6.712   5.453   2.289
53073SOL     OW61115   7.224   4.136  13.891
53073SOL    HW161116   7.236   4.042  13.903
53073SOL    HW261117   7.313   4.172  13.892
53074SOL     OW61118   8.024   9.445   9.969
53074SOL    HW161119   7.990   9.368  10.014
53074SOL    HW261120   7.996   9.432   9.878
53075SOL     OW61121   3.056  11.003   6.126
53075SOL    HW161122   3.014  10.925   6.163
53075SOL    HW261123   2.996  11.074   6.146
53076SOL     OW61124   8.380  11.911  10.937
53076SOL    HW161125   8.436  11.843  10.975
53076SOL    HW261126   8.415  11.923  10.849
53077SOL     OW61127   4.887  10.177   8.923
53077SOL    HW161128   4.942  10.126   8.864
53077SOL    HW261129   4.827  10.112   8.961
53078SOL     OW61130  10.007   8.212   4.716
53078SOL    HW161131   9.979   8.121   4.705
53078SOL    HW261132  10.063   8.228   4.640
53079SOL     OW61133  10.237  14.744   6.872
53079SOL    HW161134  10.286  14.688   6.811
53079SOL    HW261135  10.193  14.682   6.930
53080SOL     OW61136  11.661  11.912   6.011
53080SOL    HW161137  11.746  11.924   6.053
53080SOL    HW261138  11.660  11.821   5.983
53081SOL     OW61139  14.175   6.564  14.782
53081SOL    HW161140  14.243   6.610  14.832
53081SOL    HW261141  14.105   6.629  14.771
53082SOL     OW61142   3.406   6.512   0.840
53082SOL    HW161143   3.381   6.534   0.929
53082SOL    HW261144   3.329   6.533   0.787
53083SOL     OW61145   4.838   3.657  10.110
53083SOL    HW161146   4.894   3.598  10.059
53083SOL    HW261147   4.800   3.717  10.045
53084SOL     OW61148   0.873  14.296   5.833
53084SOL    HW161149   0.944  14.287   5.896
53084SOL    HW261150   0.832  14.209   5.831
53085SOL     OW61151   4.205  12.742   5.213
53085SOL    HW161152   4.110  12.750   5.223
53085SOL    HW261153   4.218  12.655   5.175
53086SOL     OW61154   7.180   2.320   6.309
53086SOL    HW161155   7.268   2.325   6.273
53086SOL    HW261156   7.158   2.227   6.304
53087SOL     OW61157   9.543   8.398  14.424
53087SOL    HW161158   9.458   8.432  14.450
53087SOL    HW261159   9.525   8.342  14.348
53088SOL     OW61160  12.802   0.626   8.549
53088SOL    HW161161  12.842   0.674   8.620
53088SOL    HW261162  12.743   0.564   8.592
53089SOL     OW61163   5.550  11.320  12.401
53089SOL    HW161164   5.494  11.280  12.468
53089SOL    HW261165   5.576  11.247  12.344
53090SOL     OW61166   8.910   3.306  14.346
53090SOL    HW161167   8.938   3.216  14.364
53090SOL    HW261168   8.815   3.303  14.348
53091SOL     OW61169   8.714   3.171  14.231
53091SOL    HW161170   8.672   3.105  14.176
53091SOL    HW261171   8.801   3.136  14.249
53092SOL     OW61172   1.622   2.542  10.925
53092SOL    HW161173   1.573   2.547  10.843
53092SOL    HW261174   1.641   2.449  10.936
53093SOL     OW61175   5.910   1.308  10.675
53093SOL    HW161176   5.819   1.325  10.649
53093SOL    HW261177   5.933   1.382  10.731
53094SOL     OW61178  14.510  13.816  11.309
53094SOL    HW161179  14.470  13.847  11.227
53094SOL    HW261180  14.472  13.873  11.377
53095SOL     OW61181  12.765   7.453  14.114
53095SOL    HW161182  12.770   7.361  14.088
53095SOL    HW261183  12.807   7.500  14.042
53096SOL     OW61184   6.662  13.926   9.872
53096SOL    HW161185   6.614  13.871   9.934
53096SOL    HW261186   6.721  13.977   9.927
53097SOL     OW61187   5.887   5.364   0.573
53097SOL    HW161188   5.910   5.310   0.648
53097SOL    HW261189   5.950   5.339   0.505
53098SOL     OW61190   1.876   8.312  10.820
53098SOL    HW161191   1.909   8.402  10.829
53098SOL    HW261192   1.938   8.259  10.869
53099SOL     OW61193   3.361  12.041   1.237
53099SOL    HW161194   3.333  11.970   1.294
53099SOL    HW261195   3.429  12.002   1.182
53100SOL     OW61196   2.477  12.469   2.153
53100SOL    HW161197   2.429  12.547   2.125
53100SOL    HW261198   2.542  12.456   2.084
53101SOL     OW61199   2.577   6.377   3.476
53101SOL    HW161200   2.618   6.291   3.487
53101SOL    HW261201   2.556   6.405   3.565
53102SOL     OW61202   1.909   9.995   5.228
53102SOL    HW161203   1.885   9.913   5.271
53102SOL    HW261204   1.903  10.061   5.298
53103SOL     OW61205  12.562   4.654   2.675
53103SOL    HW161206  12.500   4.582   2.684
53103SOL    HW261207  12.623   4.644   2.748
53104SOL     OW61208   7.951   2.094   4.748
53104SOL    HW161209   8.044   2.076   4.763
53104SOL    HW261210   7.905   2.031   4.804
53105SOL     OW61211  11.071   8.772   9.422
53105SOL    HW161212  11.027   8.813   9.348
53105SOL    HW261213  11.080   8.680   9.397
53106SOL     OW61214   3.966  12.480  14.609
53106SOL    HW161215   4.054  12.493  14.645
53106SOL    HW261216   3.931  12.406  14.658
53107SOL     OW61217   0.504   4.407   7.478
53107SOL    HW161218   0.499   4.502   7.462
53107SOL    HW261219   0.501   4.399   7.573
53108SOL     OW61220   7.341   3.913   6.588
53108SOL    HW161221   7.425   3.956   6.605
53108SOL    HW261222   7.299   3.968   6.522
53109SOL     OW61223   3.053  12.997   3.976
53109SOL    HW161224   3.027  12.982   3.885
53109SOL    HW261225   3.092  12.914   4.004
53110SOL     OW61226  12.768   1.564   0.646
53110SOL    HW161227  12.853   1.578   0.687
53110SOL    HW261228  12.773   1.477   0.607
53111SOL     OW61229   7.221   7.039  10.070
53111SOL    HW161230   7.211   7.025  10.164
53111SOL    HW261231   7.132   7.050  10.037
53112SOL     OW61232   1.332   8.876  12.977
53112SOL    HW161233   1.398   8.815  13.008
53112SOL    HW261234   1.381   8.956  12.956
53113SOL     OW61235   8.177   1.167   9.850
53113SOL    HW161236   8.226   1.250   9.842
53113SOL    HW261237   8.237   1.109   9.897
53114SOL     OW61238  12.063  10.685  13.482
53114SOL    HW161239  11.999  10.613  13.476
53114SOL    HW261240  12.113  10.666  13.562
53115SOL     OW61241   4.973  12.505   1.648
53115SOL    HW161242   4.909  12.540   1.710
53115SOL    HW261243   4.921  12.452   1.587
53116SOL     OW61244   9.487   2.741  10.393
53116SOL    HW161245   9.440   2.661  10.370
53116SOL    HW261246   9.579   2.716  10.392
53117SOL     OW61247   9.848   3.238   9.162
53117SOL    HW161248   9.784   3.283   9.218
53117SOL    HW261249   9.826   3.269   9.074
53118SOL     OW61250  12.562  12.294  13.304
53118SOL    HW161251  12.489  12.281  13.243
53118SOL    HW261252  12.628  12.230  13.276
53119SOL     OW61253   4.923   1.112   4.106
53119SOL    HW161254   4.981   1.177   4.067
53119SOL    HW261255   4.890   1.154   4.186
53120SOL     OW61256   3.817  14.753   0.919
53120SOL    HW161257   3.769  14.679   0.955
53120SOL    HW261258   3.886  14.714   0.865
53121SOL     OW61259   1.909   4.191   9.137
53121SOL    HW161260   1.917   4.106   9.182
53121SOL    HW261261   1.820   4.219   9.154
53122SOL     OW61262   9.263   7.112  10.596
53122SOL    HW161263   9.321   7.164  10.540
53122SOL    HW261264   9.313   7.033  10.616
53123SOL     OW61265   6.918   7.545   4.420
53123SOL    HW161266   6.831   7.507   4.429
53123SOL    HW261267   6.951   7.550   4.510
53124SOL     OW61268  12.395   5.879  10.273
53124SOL    HW161269  12.445   5.959  10.282
53124SOL    HW261270  12.457   5.809  10.294
53125SOL     OW61271   3.185   0.329  12.081
53125SOL    HW161272   3.120   0.284  12.135
53125SOL    HW261273   3.251   0.359  12.143
53126SOL     OW61274   9.153   7.107   5.933
53126SOL    HW161275   9.062   7.110   5.965
53126SOL    HW261276   9.166   7.192   5.891
53127SOL     OW61277   6.085   9.506   5.535
53127SOL    HW161278   6.033   9.505   5.455
53127SOL    HW261279   6.153   9.572   5.518
53128SOL     OW61280  11.515   5.586   5.169
53128SOL    HW161281  11.535   5.513   5.110
53128SOL    HW261282  11.582   5.580   5.237
53129SOL     OW61283   9.475   7.947   1.761
53129SOL    HW161284   9.380   7.934   1.766
53129SOL    HW261285   9.487   8.041   1.779
53130SOL     OW61286   3.701   4.563  14.623
53130SOL    HW161287   3.785   4.575  14.667
53130SOL    HW261288   3.722   4.563  14.530
53131SOL     OW61289   0.642   6.740   6.767
53131SOL    HW161290   0.557   6.767   6.804
53131SOL    HW261291   0.643   6.778   6.679
53132SOL     OW61292  14.062   9.631   2.315
53132SOL    HW161293  13.991   9.681   2.274
53132SOL    HW261294  14.063   9.660   2.406
53133SOL     OW61295   1.558   5.539  11.059
53133SOL    HW161296   1.536   5.502  11.144
53133SOL    HW261297   1.651   5.561  11.066
53134SOL     OW61298  10.652  14.440  12.891
53134SOL    HW161299  10.602  14.391  12.826
53134SOL    HW261300  10.587  14.474  12.952
53135SOL     OW61301   0.068  10.080   0.806
53135SOL    HW161302   0.099  10.048   0.891
53135SOL    HW261303   0.109  10.166   0.796
53136SOL     OW61304   3.327   6.622   1.106
53136SOL    HW161305   3.240   6.589   1.131
53136SOL    HW261306   3.342   6.696   1.164
53137SOL     OW61307   4.845   0.453   1.847
53137SOL    HW161308   4.908   0.520   1.820
53137SOL    HW261309   4.898   0.374   1.859
53138SOL     OW61310   1.939   5.056   4.043
53138SOL    HW161311   1.958   5.076   4.135
53138SOL    HW261312   1.857   5.102   4.025
53139SOL     OW61313  13.631   4.794   1.736
53139SOL    HW161314  13.536   4.786   1.741
53139SOL    HW261315  13.659   4.800   1.827
53140SOL     OW61316   1.646   1.854  13.610
53140SOL    HW161317   1.592   1.867  13.688
53140SOL    HW261318   1.613   1.918  13.547
53141SOL     OW61319   1.372   3.570   1.188
53141SOL    HW161320   1.348   3.518   1.111
53141SOL    HW261321   1.289   3.588   1.232
53142SOL     OW61322   1.357   3.370  12.877
53142SOL    HW161323   1.348   3.415  12.961
53142SOL    HW261324   1.268   3.370  12.840
53143SOL     OW61325   4.788   9.678   7.643
53143SOL    HW161326   4.740   9.598   7.621
53143SOL    HW261327   4.841   9.697   7.566
53144SOL     OW61328   3.355   8.414   0.610
53144SOL    HW161329   3.356   8.454   0.523
53144SOL    HW261330   3.352   8.320   0.593
53145SOL     OW61331   2.307  11.821   0.138
53145SOL    HW161332   2.310  11.838   0.233
53145SOL    HW261333   2.296  11.726   0.132
53146SOL     OW61334  10.959  12.506   0.111
53146SOL    HW161335  10.998  12.496   0.198
53146SOL    HW261336  10.939  12.600   0.105
53147SOL     OW61337   8.784  10.427   1.534
53147SOL    HW161338   8.726  10.483   1.483
53147SOL    HW261339   8.746  10.427   1.622
53148SOL     OW61340  14.287  14.699   8.128
53148SOL    HW161341  14.282  14.755   8.050
53148SOL    HW261342  14.222  14.631   8.112
53149SOL     OW61343  13.952  10.577   4.669
53149SOL    HW161344  13.860  10.558   4.684
53149SOL    HW261345  13.952  10.652   4.609
53150SOL     OW61346   1.690   8.587  13.215
53150SOL    HW161347   1.780   8.561  13.234
53150SOL    HW261348   1.636   8.514  13.247
53151SOL     OW61349   4.264   2.333   6.622
53151SOL    HW161350   4.309   2.396   6.679
53151SOL    HW261351   4.259   2.253   6.674
53152SOL     OW61352   2.307   5.114  13.900
53152SOL    HW161353   2.279   5.164  13.824
53152SOL    HW261354   2.282   5.024  13.880
53153SOL     OW61355   5.513   2.228   9.918
53153SOL    HW161356   5.460   2.268   9.850
53153SOL    HW261357   5.603   2.256   9.899
53154SOL     OW61358   0.273  11.392   9.776
53154SOL    HW161359   0.214  11.464   9.799
53154SOL    HW261360   0.348  11.434   9.734
53155SOL     OW61361  14.021   2.253  11.709
53155SOL    HW161362  14.065   2.335  11.687
53155SOL    HW261363  13.934   2.280  11.739
53156SOL     OW61364   8.687  11.221   8.939
53156SOL    HW161365   8.675  11.181   9.025
53156SOL    HW261366   8.753  11.166   8.896
53157SOL     OW61367   1.974   0.751   2.670
53157SOL    HW161368   2.050   0.741   2.727
53157SOL    HW261369   1.934   0.834   2.698
53158SOL     OW61370   8.451   2.067   0.703
53158SOL    HW161371   8.497   2.150   0.694
53158SOL    HW261372   8.455   2.048   0.797
53159SOL     OW61373   0.801  11.909   0.631
53159SOL    HW161374   0.730  11.967   0.606
53159SOL    HW261375   0.791  11.898   0.726
53160SOL     OW61376  11.092  11.992   1.532
53160SOL    HW161377  11.173  11.970   1.578
53160SOL    HW261378  11.108  11.967   1.441
53161SOL     OW61379   3.941   3.727   5.930
53161SOL    HW161380   3.975   3.674   6.003
53161SOL    HW261381   3.857   3.761   5.961
53162SOL     OW61382  11.852   6.041   2.709
53162SOL    HW161383  11.861   6.022   2.803
53162SOL    HW261384  11.888   5.964   2.665
53163SOL     OW61385  11.332   5.515   2.034
53163SOL    HW161386  11.282   5.587   2.074
53163SOL    HW261387  11.310   5.520   1.940
53164SOL     OW61388   6.942   1.905   2.261
53164SOL    HW161389   6.945   1.820   2.304
53164SOL    HW261390   7.029   1.942   2.274
53165SOL     OW61391  12.287   0.382   9.500
53165SOL    HW161392  12.243   0.429   9.571
53165SOL    HW261393  12.314   0.450   9.439
53166SOL     OW61394  12.360   7.386   7.950
53166SOL    HW161395  12.284   7.443   7.947
53166SOL    HW261396  12.332   7.307   7.903
53167SOL     OW61397   2.916   8.104   0.785
53167SOL    HW161398   2.993   8.058   0.820
53167SOL    HW261399   2.870   8.038   0.734
53168SOL     OW61400  11.529   0.631   9.391
53168SOL    HW161401  11.457   0.634   9.454
53168SOL    HW261402  11.578   0.712   9.406
53169SOL     OW61403  10.936   5.759  14.788
53169SOL    HW161404  10.904   5.848  14.773
53169SOL    HW261405  10.889   5.729  14.866
53170SOL     OW61406   3.449   4.145  10.846
53170SOL    HW161407   3.446   4.049  10.855
53170SOL    HW261408   3.413   4.161  10.759
53171SOL     OW61409   2.590   9.292   8.878
53171SOL    HW161410   2.617   9.237   8.804
53171SOL    HW261411   2.545   9.232   8.937
53172SOL     OW61412  10.645   2.200   2.022
53172SOL    HW161413  10.614   2.260   1.954
53172SOL    HW261414  10.645   2.114   1.979
53173SOL     OW61415   3.944   1.012  10.395
53173SOL    HW161416   3.969   0.969  10.477
53173SOL    HW261417   4.004   1.086  10.388
53174SOL     OW61418   0.886  13.908  13.865
53174SOL    HW161419   0.819  13.966  13.902
53174SOL    HW261420   0.851  13.881  13.781
53175SOL     OW61421   2.974   6.137   9.439
53175SOL    HW161422   3.006   6.047   9.443
53175SOL    HW261423   3.008   6.178   9.519
53176SOL     OW61424  14.738   6.987   8.793
53176SOL    HW161425  14.664   6.927   8.787
53176SOL    HW261426  14.791   6.953   8.864
53177SOL     OW61427   1.470   7.536   6.071
53177SOL    HW161428   1.444   7.510   6.159
53177SOL    HW261429   1.461   7.631   6.069
53178SOL     OW61430  13.873  14.783  12.545
53178SOL    HW161431  13.833  14.841  12.610
53178SOL    HW261432  13.953  14.751  12.588
53179SOL     OW61433   8.409   8.554  14.086
53179SOL    HW161434   8.317   8.553  14.112
53179SOL    HW261435   8.454   8.602  14.156
53180SOL     OW61436   2.090  14.236   7.136
53180SOL    HW161437   2.141  14.305   7.179
53180SOL    HW261438   2.140  14.216   7.056
53181SOL     OW61439  14.080  11.108   7.008
53181SOL    HW161440  14.072  11.022   6.968
53181SOL    HW261441  13.998  11.120   7.055
53182SOL     OW61442   5.124   0.804  11.348
53182SOL    HW161443   5.143   0.864  11.421
53182SOL    HW261444   5.029   0.791  11.353
53183SOL     OW61445  13.553   9.231   4.950
53183SOL    HW161446  13.538   9.288   4.874
53183SOL    HW261447  13.580   9.147   4.912
53184SOL     OW61448  11.159   6.935   2.704
53184SOL    HW161449  11.098   6.965   2.637
53184SOL    HW261450  11.244   6.970   2.676
53185SOL     OW61451   2.201  14.765   2.365
53185SOL    HW161452   2.145  14.781   2.289
53185SOL    HW261453   2.199  14.670   2.376
53186SOL     OW61454   5.229   2.778   3.663
53186SOL    HW161455   5.165   2.845   3.636
53186SOL    HW261456   5.183   2.725   3.728
53187SOL     OW61457   7.130  14.112   6.283
53187SOL    HW161458   7.142  14.075   6.370
53187SOL    HW261459   7.205  14.171   6.271
53188SOL     OW61460   1.179   2.273  14.368
53188SOL    HW161461   1.133   2.333  14.427
53188SOL    HW261462   1.110   2.241  14.309
53189SOL     OW61463  10.175   6.479  14.674
53189SOL    HW161464  10.121   6.402  14.660
53189SOL    HW261465  10.230   6.485  14.596
53190SOL     OW61466   7.844   0.671   5.645
53190SOL    HW161467   7.816   0.761   5.625
53190SOL    HW261468   7.763   0.620   5.644
53191SOL     OW61469  11.495   6.761   6.263
53191SOL    HW161470  11.505   6.720   6.348
53191SOL    HW261471  11.582   6.794   6.241
53192SOL     OW61472  11.926  12.590   4.392
53192SOL    HW161473  11.987  12.526   4.355
53192SOL    HW261474  11.912  12.560   4.482
53193SOL     OW61475  12.311   4.446   9.168
53193SOL    HW161476  12.264   4.418   9.247
53193SOL    HW261477  12.241   4.463   9.104
53194SOL     OW61478   8.824  14.212   7.504
53194SOL    HW161479   8.754  14.267   7.470
53194SOL    HW261480   8.807  14.126   7.467
53195SOL     OW61481  10.808   7.408   0.194
53195SOL    HW161482  10.788   7.382   0.284
53195SOL    HW261483  10.748   7.479   0.175
53196SOL     OW61484   3.633   8.979   7.645
53196SOL    HW161485   3.664   8.943   7.562
53196SOL    HW261486   3.544   9.011   7.626
53197SOL     OW61487   8.064  10.356   1.124
53197SOL    HW161488   7.983  10.408   1.119
53197SOL    HW261489   8.060  10.314   1.209
53198SOL     OW61490   8.549  12.507  11.231
53198SOL    HW161491   8.500  12.522  11.150
53198SOL    HW261492   8.611  12.438  11.208
53199SOL     OW61493   1.251   7.226  12.666
53199SOL    HW161494   1.340   7.234  12.701
53199SOL    HW261495   1.261   7.168  12.590
53200SOL     OW61496   0.422   1.051  14.326
53200SOL    HW161497   0.374   1.099  14.258
53200SOL    HW261498   0.430   1.114  14.398
53201SOL     OW61499  10.368   8.115  13.962
53201SOL    HW161500  10.379   8.181  13.894
53201SOL    HW261501  10.280   8.132  13.997
53202SOL     OW61502  12.208   6.337   8.110
53202SOL    HW161503  12.131   6.386   8.137
53202SOL    HW261504  12.275   6.404   8.095
53203SOL     OW61505   5.736   7.443  14.402
53203SOL    HW161506   5.666   7.435  14.336
53203SOL    HW261507   5.782   7.523  14.379
53204SOL     OW61508  14.164   3.965   5.258
53204SOL    HW161509  14.097   3.977   5.191
53204SOL    HW261510  14.178   4.053   5.294
53205SOL     OW61511   0.558  11.173   6.621
53205SOL    HW161512   0.644  11.210   6.604
53205SOL    HW261513   0.572  11.079   6.624
53206SOL     OW61514   0.172   7.154  11.670
53206SOL    HW161515   0.206   7.148  11.580
53206SOL    HW261516   0.201   7.073  11.712
53207SOL     OW61517  13.586  12.565   5.382
53207SOL    HW161518  13.656  12.500   5.374
53207SOL    HW261519  13.540  12.561   5.298
53208SOL     OW61520   9.305   5.420  12.826
53208SOL    HW161521   9.320   5.508  12.861
53208SOL    HW261522   9.357   5.417  12.745
53209SOL     OW61523   6.061  10.656  14.198
53209SOL    HW161524   5.990  10.594  14.215
53209SOL    HW261525   6.137  10.600  14.181
53210SOL     OW61526   4.788  13.896  14.248
53210SOL    HW161527   4.706  13.942  14.234
53210SOL    HW261528   4.772  13.839  14.324
53211SOL     OW61529  12.093   2.538   9.991
53211SOL    HW161530  12.023   2.481  10.022
53211SOL    HW261531  12.169   2.480   9.982
53212SOL     OW61532   6.450   7.142  11.191
53212SOL    HW161533   6.495   7.059  11.177
53212SOL    HW261534   6.402   7.158  11.110
53213SOL     OW61535   3.545   2.112  12.443
53213SOL    HW161536   3.529   2.202  12.472
53213SOL    HW261537   3.639   2.100  12.454
53214SOL     OW61538  14.041  10.784   3.452
53214SOL    HW161539  13.961  10.811   3.497
53214SOL    HW261540  14.107  10.778   3.521
53215SOL     OW61541   1.740  13.395  10.815
53215SOL    HW161542   1.732  13.461  10.883
53215SOL    HW261543   1.830  13.364  10.823
53216SOL     OW61544   8.340   2.905  13.567
53216SOL    HW161545   8.339   2.921  13.661
53216SOL    HW261546   8.261   2.854  13.550
53217SOL     OW61547   9.738   8.545  11.746
53217SOL    HW161548   9.688   8.463  11.745
53217SOL    HW261549   9.680   8.608  11.703
53218SOL     OW61550   8.080   4.595   1.286
53218SOL    HW161551   8.087   4.670   1.346
53218SOL    HW261552   8.161   4.546   1.300
53219SOL     OW61553  12.217   1.301   8.647
53219SOL    HW161554  12.166   1.276   8.570
53219SOL    HW261555  12.184   1.245   8.717
53220SOL     OW61556   4.505  13.279   5.160
53220SOL    HW161557   4.469  13.217   5.098
53220SOL    HW261558   4.509  13.231   5.243
53221SOL     OW61559  13.286   0.342   6.190
53221SOL    HW161560  13.322   0.431   6.191
53221SOL    HW261561  13.364   0.286   6.196
53222SOL     OW61562   4.665   3.927   0.882
53222SOL    HW161563   4.603   3.910   0.953
53222SOL    HW261564   4.748   3.944   0.927
53223SOL     OW61565   4.165   1.510   8.132
53223SOL    HW161566   4.156   1.422   8.095
53223SOL    HW261567   4.178   1.495   8.226
53224SOL     OW61568   2.411  12.927   2.852
53224SOL    HW161569   2.409  12.838   2.888
53224SOL    HW261570   2.330  12.934   2.801
53225SOL     OW61571  13.740  11.529   1.596
53225SOL    HW161572  13.699  11.566   1.675
53225SOL    HW261573  13.688  11.452   1.576
53226SOL     OW61574   7.093   3.101   3.703
53226SOL    HW161575   7.053   3.127   3.786
53226SOL    HW261576   7.041   3.027   3.673
53227SOL     OW61577   1.602   7.714  13.164
53227SOL    HW161578   1.624   7.714  13.257
53227SOL    HW261579   1.651   7.788  13.128
53228SOL     OW61580   8.974   0.507  10.340
53228SOL    HW161581   9.065   0.488  10.315
53228SOL    HW261582   8.947   0.578  10.283
53229SOL     OW61583   9.102   4.672   6.543
53229SOL    HW161584   9.090   4.584   6.508
53229SOL    HW261585   9.122   4.659   6.635
53230SOL     OW61586   0.382  14.219   0.070
53230SOL    HW161587   0.362  14.308   0.100
53230SOL    HW261588   0.349  14.217  14.862
53231SOL     OW61589   5.159  10.855   2.550
53231SOL    HW161590   5.168  10.782   2.612
53231SOL    HW261591   5.165  10.933   2.604
53232SOL     OW61592   2.811   6.482  14.087
53232SOL    HW161593   2.820   6.529  14.004
53232SOL    HW261594   2.777   6.547  14.148
53233SOL     OW61595  13.985   1.892   6.596
53233SOL    HW161596  13.916   1.926   6.654
53233SOL    HW261597  13.942   1.882   6.511
53234SOL     OW61598   3.588   5.891   6.644
53234SOL    HW161599   3.641   5.901   6.723
53234SOL    HW261600   3.574   5.980   6.613
53235SOL     OW61601  12.193   5.090  14.105
53235SOL    HW161602  12.184   5.162  14.043
53235SOL    HW261603  12.241   5.127  14.178
53236SOL     OW61604   4.688   2.823   2.750
53236SOL    HW161605   4.751   2.762   2.788
53236SOL    HW261606   4.611   2.770   2.731
53237SOL     OW61607  14.449  12.242   7.928
53237SOL    HW161608  14.378  12.301   7.901
53237SOL    HW261609  14.511  12.299   7.974
53238SOL     OW61610  14.509   0.123  10.968
53238SOL    HW161611  14.492   0.215  10.948
53238SOL    HW261612  14.598   0.106  10.935
53239SOL     OW61613   3.397   9.925  12.443
53239SOL    HW161614   3.374   9.933  12.536
53239SOL    HW261615   3.317   9.948  12.396
53240SOL     OW61616  12.459   6.200   8.730
53240SOL    HW161617  12.420   6.115   8.711
53240SOL    HW261618  12.392   6.247   8.779
53241SOL     OW61619   3.003   1.106  13.188
53241SOL    HW161620   2.916   1.068  13.198
53241SOL    HW261621   2.992   1.175  13.123
53242SOL     OW61622  11.784  14.119   8.984
53242SOL    HW161623  11.839  14.152   8.912
53242SOL    HW261624  11.715  14.070   8.940
53243SOL     OW61625  13.626  10.318   4.234
53243SOL    HW161626  13.571  10.368   4.295
53243SOL    HW261627  13.565  10.288   4.166
53244SOL     OW61628   2.142   5.895   5.952
53244SOL    HW161629   2.192   5.943   6.019
53244SOL    HW261630   2.099   5.963   5.901
53245SOL     OW61631   5.909   6.460   0.259
53245SOL    HW161632   5.883   6.414   0.338
53245SOL    HW261633   5.996   6.496   0.279
53246SOL     OW61634   6.597   2.805   0.973
53246SOL    HW161635   6.511   2.785   1.010
53246SOL    HW261636   6.624   2.724   0.929
53247SOL     OW61637   8.313   9.141   8.285
53247SOL    HW161638   8.351   9.110   8.203
53247SOL    HW261639   8.265   9.066   8.320
53248SOL     OW61640   8.303  12.565   8.714
53248SOL    HW161641   8.368  12.614   8.664
53248SOL    HW261642   8.312  12.474   8.684
53249SOL     OW61643   8.209   4.232   1.865
53249SOL    HW161644   8.220   4.198   1.954
53249SOL    HW261645   8.298   4.229   1.828
53250SOL     OW61646   8.167   5.211   6.200
53250SOL    HW161647   8.100   5.277   6.218
53250SOL    HW261648   8.204   5.237   6.116
53251SOL     OW61649   6.238   7.576   0.659
53251SOL    HW161650   6.204   7.624   0.734
53251SOL    HW261651   6.165   7.521   0.630
53252SOL     OW61652   5.935   1.897   2.590
53252SOL    HW161653   5.870   1.908   2.660
53252SOL    HW261654   6.016   1.873   2.636
53253SOL     OW61655   1.344   6.595   2.371
53253SOL    HW161656   1.345   6.658   2.443
53253SOL    HW261657   1.287   6.524   2.401
53254SOL     OW61658   8.311   7.348   1.427
53254SOL    HW161659   8.250   7.328   1.356
53254SOL    HW261660   8.372   7.412   1.391
53255SOL     OW61661   5.370  12.043   5.978
53255SOL    HW161662   5.424  12.112   5.939
53255SOL    HW261663   5.281  12.064   5.952
53256SOL     OW61664  12.089   2.986   8.563
53256SOL    HW161665  12.112   3.008   8.653
53256SOL    HW261666  12.001   2.947   8.569
53257SOL     OW61667  14.452   7.936   2.196
53257SOL    HW161668  14.488   8.024   2.206
53257SOL    HW261669  14.520   7.888   2.148
53258SOL     OW61670   2.327   5.773  11.184
53258SOL    HW161671   2.272   5.702  11.151
53258SOL    HW261672   2.269   5.824  11.241
53259SOL     OW61673   5.095  10.057  11.595
53259SOL    HW161674   5.019  10.116  11.587
53259SOL    HW261675   5.167  10.106  11.556
53260SOL     OW61676   8.723   5.541   0.711
53260SOL    HW161677   8.692   5.476   0.774
53260SOL    HW261678   8.643   5.574   0.670
53261SOL     OW61679  11.435   0.178   3.185
53261SOL    HW161680  11.459   0.242   3.252
53261SOL    HW261681  11.473   0.095   3.216
53262SOL     OW61682  11.286   5.545  10.075
53262SOL    HW161683  11.275   5.637  10.100
53262SOL    HW261684  11.368   5.543  10.026
53263SOL     OW61685  14.177  13.589   4.387
53263SOL    HW161686  14.232  13.528   4.437
53263SOL    HW261687  14.115  13.623   4.451
53264SOL     OW61688  11.594   4.888   0.326
53264SOL    HW161689  11.582   4.797   0.355
53264SOL    HW261690  11.619   4.880   0.234
53265SOL     OW61691  10.908   7.484   9.754
53265SOL    HW161692  10.939   7.420   9.818
53265SOL    HW261693  10.829   7.445   9.718
53266SOL     OW61694   4.326   2.293  14.605
53266SOL    HW161695   4.302   2.349  14.679
53266SOL    HW261696   4.391   2.344  14.558
53267SOL     OW61697   9.780   2.145  10.900
53267SOL    HW161698   9.777   2.058  10.862
53267SOL    HW261699   9.688   2.172  10.907
53268SOL     OW61700   9.211  10.938   5.176
53268SOL    HW161701   9.205  11.003   5.106
53268SOL    HW261702   9.214  10.990   5.256
53269SOL     OW61703   8.701  10.126   8.816
53269SOL    HW161704   8.773  10.072   8.783
53269SOL    HW261705   8.646  10.066   8.866
53270SOL     OW61706   8.054  13.035   3.006
53270SOL    HW161707   8.103  13.063   3.083
53270SOL    HW261708   8.120  12.999   2.947
53271SOL     OW61709   1.390   8.920   9.343
53271SOL    HW161710   1.430   8.884   9.422
53271SOL    HW261711   1.462   8.927   9.280
53272SOL     OW61712   6.369   8.257  12.166
53272SOL    HW161713   6.379   8.164  12.187
53272SOL    HW261714   6.454   8.282  12.129
53273SOL     OW61715   0.446   4.760   4.155
53273SOL    HW161716   0.366   4.775   4.104
53273SOL    HW261717   0.517   4.786   4.095
53274SOL     OW61718   3.733   0.391   6.259
53274SOL    HW161719   3.733   0.425   6.169
53274SOL    HW261720   3.704   0.300   6.250
53275SOL     OW61721   2.987   8.376   9.954
53275SOL    HW161722   2.898   8.343   9.967
53275SOL    HW261723   2.974   8.461   9.912
53276SOL     OW61724   7.336   9.568   8.460
53276SOL    HW161725   7.351   9.476   8.483
53276SOL    HW261726   7.241   9.577   8.456
53277SOL     OW61727   3.891   8.381   2.783
53277SOL    HW161728   3.886   8.307   2.844
53277SOL    HW261729   3.799   8.400   2.762
53278SOL     OW61730   6.732  12.053   0.696
53278SOL    HW161731   6.732  12.039   0.791
53278SOL    HW261732   6.679  12.132   0.684
53279SOL     OW61733  12.333  14.052   2.623
53279SOL    HW161734  12.299  13.963   2.630
53279SOL    HW261735  12.376  14.054   2.537
53280SOL     OW61736   8.501   6.720   9.223
53280SOL    HW161737   8.523   6.681   9.308
53280SOL    HW261738   8.474   6.645   9.169
53281SOL     OW61739   0.645   7.462   1.224
53281SOL    HW161740   0.633   7.538   1.281
53281SOL    HW261741   0.698   7.401   1.277
53282SOL     OW61742  13.588   7.242  11.093
53282SOL    HW161743  13.676   7.216  11.065
53282SOL    HW261744  13.583   7.212  11.184
53283SOL     OW61745   5.588   2.168   8.536
53283SOL    HW161746   5.591   2.238   8.471
53283SOL    HW261747   5.526   2.104   8.500
53284SOL     OW61748   0.695   3.119   7.138
53284SOL    HW161749   0.627   3.054   7.155
53284SOL    HW261750   0.713   3.111   7.044
53285SOL     OW61751   7.379   2.212  10.124
53285SOL    HW161752   7.363   2.243  10.213
53285SOL    HW261753   7.470   2.183  10.125
53286SOL     OW61754   9.074   3.502   7.999
53286SOL    HW161755   9.143   3.436   7.988
53286SOL    HW261756   9.043   3.519   7.910
53287SOL     OW61757   2.166   2.703   2.185
53287SOL    HW161758   2.208   2.621   2.161
53287SOL    HW261759   2.155   2.749   2.102
53288SOL     OW61760   1.967   4.328   8.191
53288SOL    HW161761   1.994   4.399   8.133
53288SOL    HW261762   2.044   4.312   8.246
53289SOL     OW61763   3.424   7.942   2.480
53289SOL    HW161764   3.472   7.992   2.546
53289SOL    HW261765   3.333   7.964   2.495
53290SOL     OW61766   7.110  10.302  11.174
53290SOL    HW161767   7.072  10.389  11.163
53290SOL    HW261768   7.157  10.285  11.093
53291SOL     OW61769   6.756   3.408   2.196
53291SOL    HW161770   6.730   3.459   2.119
53291SOL    HW261771   6.768   3.319   2.164
53292SOL     OW61772   9.484   0.192   3.056
53292SOL    HW161773   9.454   0.275   3.021
53292SOL    HW261774   9.459   0.127   2.990
53293SOL     OW61775   3.465   8.915  12.867
53293SOL    HW161776   3.448   8.977  12.938
53293SOL    HW261777   3.541   8.864  12.896
53294SOL     OW61778   8.550  11.505  13.071
53294SOL    HW161779   8.531  11.499  13.165
53294SOL    HW261780   8.636  11.463  13.062
53295SOL     OW61781   5.697  12.377   7.760
53295SOL    HW161782   5.706  12.472   7.748
53295SOL    HW261783   5.776  12.351   7.807
53296SOL     OW61784   8.123   7.820   7.779
53296SOL    HW161785   8.170   7.770   7.713
53296SOL    HW261786   8.097   7.755   7.844
53297SOL     OW61787   9.612  12.609   1.213
53297SOL    HW161788   9.704  12.614   1.188
53297SOL    HW261789   9.576  12.694   1.188
53298SOL     OW61790   4.528   0.531   6.141
53298SOL    HW161791   4.608   0.552   6.190
53298SOL    HW261792   4.559   0.510   6.053
53299SOL     OW61793  10.408  13.724   4.721
53299SOL    HW161794  10.468  13.649   4.727
53299SOL    HW261795  10.464  13.800   4.733
53300SOL     OW61796   5.719  12.428   2.532
53300SOL    HW161797   5.712  12.336   2.505
53300SOL    HW261798   5.638  12.445   2.580
53301SOL     OW61799   2.033   7.608   2.960
53301SOL    HW161800   2.033   7.679   2.896
53301SOL    HW261801   2.124   7.605   2.992
53302SOL     OW61802  10.580   5.387  12.481
53302SOL    HW161803  10.572   5.298  12.447
53302SOL    HW261804  10.649   5.427  12.428
53303SOL     OW61805   7.317   0.377   8.145
53303SOL    HW161806   7.278   0.460   8.171
53303SOL    HW261807   7.333   0.386   8.051
53304SOL     OW61808   7.415  14.585   9.200
53304SOL    HW161809   7.471  14.538   9.261
53304SOL    HW261810   7.327  14.555   9.220
53305SOL     OW61811   7.337  14.119  12.797
53305SOL    HW161812   7.284  14.156  12.726
53305SOL    HW261813   7.273  14.084  12.859
53306SOL     OW61814   5.859   3.620   5.685
53306SOL    HW161815   5.884   3.533   5.717
53306SOL    HW261816   5.781   3.605   5.632
53307SOL     OW61817   6.454  14.165   8.736
53307SOL    HW161818   6.481  14.130   8.821
53307SOL    HW261819   6.535  14.199   8.697
53308SOL     OW61820  10.441  12.958   7.557
53308SOL    HW161821  10.482  13.035   7.595
53308SOL    HW261822  10.423  12.982   7.467
53309SOL     OW61823   7.374   6.447  11.353
53309SOL    HW161824   7.322   6.519  11.318
53309SOL    HW261825   7.464   6.480  11.353
53310SOL     OW61826   5.365  12.694   9.809
53310SOL    HW161827   5.410  12.626   9.859
53310SOL    HW261828   5.431  12.727   9.749
53311SOL     OW61829  10.146   9.243   8.926
53311SOL    HW161830  10.210   9.191   8.878
53311SOL    HW261831  10.186   9.329   8.936
53312SOL     OW61832   3.907   2.423   5.723
53312SOL    HW161833   3.836   2.365   5.697
53312SOL    HW261834   3.956   2.374   5.790
53313SOL     OW61835   4.905   9.246  11.743
53313SOL    HW161836   4.913   9.195  11.663
53313SOL    HW261837   4.817   9.227  11.775
53314SOL     OW61838  11.656  11.250   1.817
53314SOL    HW161839  11.749  11.247   1.839
53314SOL    HW261840  11.652  11.243   1.722
53315SOL     OW61841   9.176   0.820  12.859
53315SOL    HW161842   9.118   0.799  12.786
53315SOL    HW261843   9.216   0.736  12.882
53316SOL     OW61844  10.285   8.563  13.159
53316SOL    HW161845  10.236   8.516  13.092
53316SOL    HW261846  10.249   8.652  13.158
53317SOL     OW61847  11.345   7.843   0.294
53317SOL    HW161848  11.326   7.927   0.336
53317SOL    HW261849  11.439   7.832   0.304
53318SOL     OW61850   4.156  13.756  12.107
53318SOL    HW161851   4.137  13.733  12.198
53318SOL    HW261852   4.215  13.687  12.076
53319SOL     OW61853   2.581  12.304   0.566
53319SOL    HW161854   2.654  12.245   0.547
53319SOL    HW261855   2.600  12.339   0.653
53320SOL     OW61856  14.731   9.774   9.849
53320SOL    HW161857  14.759   9.794   9.760
53320SOL    HW261858  14.765   9.847   9.902
53321SOL     OW61859   3.135   3.129  11.111
53321SOL    HW161860   3.041   3.138  11.098
53321SOL    HW261861   3.159   3.049  11.066
53322SOL     OW61862   1.360  11.537  13.413
53322SOL    HW161863   1.307  11.534  13.333
53322SOL    HW261864   1.300  11.510  13.482
53323SOL     OW61865   5.983   9.218   2.919
53323SOL    HW161866   5.934   9.136   2.910
53323SOL    HW261867   5.923   9.276   2.966
53324SOL     OW61868  10.201   7.801   9.904
53324SOL    HW161869  10.111   7.790   9.935
53324SOL    HW261870  10.217   7.895   9.909
53325SOL     OW61871   7.015  13.306  11.781
53325SOL    HW161872   6.990  13.398  11.774
53325SOL    HW261873   7.088  13.295  11.721
53326SOL     OW61874   4.561  10.975   2.163
53326SOL    HW161875   4.534  10.884   2.161
53326SOL    HW261876   4.616  10.982   2.241
53327SOL     OW61877  13.317  13.679  14.510
53327SOL    HW161878  13.227  13.647  14.515
53327SOL    HW261879  13.359  13.645  14.589
53328SOL     OW61880  12.402   7.556   7.563
53328SOL    HW161881  12.364   7.477   7.601
53328SOL    HW261882  12.426   7.531   7.474
53329SOL     OW61883   3.187   2.897   4.159
53329SOL    HW161884   3.226   2.964   4.102
53329SOL    HW261885   3.253   2.828   4.164
53330SOL     OW61886  14.399   0.143   6.354
53330SOL    HW161887  14.482   0.108   6.386
53330SOL    HW261888  14.369   0.078   6.290
53331SOL     OW61889   4.879  14.652  14.298
53331SOL    HW161890   4.826  14.656  14.377
53331SOL    HW261891   4.832  14.707  14.235
53332SOL     OW61892   6.024   5.994   1.303
53332SOL    HW161893   6.000   5.962   1.217
53332SOL    HW261894   6.083   5.927   1.339
53333SOL     OW61895  12.713   5.340  10.672
53333SOL    HW161896  12.655   5.263  10.674
53333SOL    HW261897  12.795   5.309  10.711
53334SOL     OW61898  11.517   9.018  11.316
53334SOL    HW161899  11.530   8.964  11.394
53334SOL    HW261900  11.569   8.974  11.248
53335SOL     OW61901   0.937  13.589   8.841
53335SOL    HW161902   0.913  13.670   8.886
53335SOL    HW261903   0.961  13.529   8.912
53336SOL     OW61904   2.738  14.509  13.309
53336SOL    HW161905   2.798  14.582  13.327
53336SOL    HW261906   2.790  14.431  13.328
53337SOL     OW61907  12.827  11.122   7.673
53337SOL    HW161908  12.790  11.041   7.708
53337SOL    HW261909  12.753  11.168   7.634
53338SOL     OW61910  13.461   7.469  14.597
53338SOL    HW161911  13.417   7.523  14.531
53338SOL    HW261912  13.449   7.516  14.679
53339SOL     OW61913  10.068   4.174   6.174
53339SOL    HW161914   9.976   4.194   6.189
53339SOL    HW261915  10.075   4.162   6.080
53340SOL     OW61916   7.702   2.268   2.321
53340SOL    HW161917   7.773   2.278   2.259
53340SOL    HW261918   7.627   2.241   2.268
53341SOL     OW61919  10.483  11.326   5.199
53341SOL    HW161920  10.490  11.260   5.131
53341SOL    HW261921  10.558  11.384   5.185
53342SOL     OW61922   7.287   4.911   8.164
53342SOL    HW161923   7.348   4.983   8.179
53342SOL    HW261924   7.200   4.951   8.174
53343SOL     OW61925   0.543   2.354  14.247
53343SOL    HW161926   0.480   2.426  14.249
53343SOL    HW261927   0.530   2.313  14.161
53344SOL     OW61928   5.368  12.776   7.683
53344SOL    HW161929   5.287  12.793   7.634
53344SOL    HW261930   5.376  12.852   7.741
53345SOL     OW61931   5.252   2.425   6.170
53345SOL    HW161932   5.248   2.480   6.247
53345SOL    HW261933   5.345   2.401   6.162
53346SOL     OW61934  10.096   6.140  14.045
53346SOL    HW161935  10.190   6.131  14.026
53346SOL    HW261936  10.084   6.234  14.061
53347SOL     OW61937   1.094  11.806   8.458
53347SOL    HW161938   1.144  11.730   8.488
53347SOL    HW261939   1.019  11.810   8.517
53348SOL     OW61940   9.305   4.716  13.314
53348SOL    HW161941   9.392   4.754  13.319
53348SOL    HW261942   9.252   4.781  13.267
53349SOL     OW61943   9.927   7.787   2.069
53349SOL    HW161944   9.889   7.832   1.994
53349SOL    HW261945   9.887   7.700   2.068
53350SOL     OW61946  13.944   3.270   8.564
53350SOL    HW161947  13.930   3.335   8.495
53350SOL    HW261948  13.863   3.273   8.615
53351SOL     OW61949   3.402   6.202   7.976
53351SOL    HW161950   3.411   6.131   8.039
53351SOL    HW261951   3.463   6.269   8.006
53352SOL     OW61952   9.343   3.677  13.843
53352SOL    HW161953   9.391   3.691  13.761
53352SOL    HW261954   9.263   3.728  13.833
53353SOL     OW61955   5.522   8.042  10.616
53353SOL    HW161956   5.591   8.090  10.661
53353SOL    HW261957   5.455   8.108  10.597
53354SOL     OW61958   7.135   5.917   5.960
53354SOL    HW161959   7.128   5.857   5.886
53354SOL    HW261960   7.224   5.906   5.993
53355SOL     OW61961  11.477   0.324  14.835
53355SOL    HW161962  11.405   0.384  14.857
53355SOL    HW261963  11.450   0.284  14.752
53356SOL     OW61964  13.722   8.933   0.192
53356SOL    HW161965  13.710   8.869   0.122
53356SOL    HW261966  13.680   8.893   0.268
53357SOL     OW61967  13.751   7.165  14.417
53357SOL    HW161968  13.842   7.142  14.440
53357SOL    HW261969  13.753   7.174  14.322
53358SOL     OW61970   1.297  12.703  12.009
53358SOL    HW161971   1.279  12.789  11.969
53358SOL    HW261972   1.313  12.646  11.934
53359SOL     OW61973  10.427   2.056   2.674
53359SOL    HW161974  10.464   2.135   2.714
53359SOL    HW261975  10.376   2.015   2.744
53360SOL     OW61976   0.354   9.336  14.019
53360SOL    HW161977   0.351   9.291  14.104
53360SOL    HW261978   0.264   9.331  13.987
53361SOL     OW61979   0.202  14.395   0.734
53361SOL    HW161980   0.250  14.401   0.652
53361SOL    HW261981   0.222  14.307   0.767
53362SOL     OW61982  12.816   9.617  13.869
53362SOL    HW161983  12.906   9.610  13.838
53362SOL    HW261984  12.769   9.659  13.797
53363SOL     OW61985  11.711   0.422   7.169
53363SOL    HW161986  11.666   0.417   7.084
53363SOL    HW261987  11.650   0.471   7.225
53364SOL     OW61988   7.586   4.694   0.216
53364SOL    HW161989   7.602   4.789   0.221
53364SOL    HW261990   7.641   4.665   0.144
53365SOL     OW61991   3.986  11.150   5.013
53365SOL    HW161992   4.027  11.066   5.035
53365SOL    HW261993   4.047  11.216   5.047
53366SOL     OW61994   1.413  13.181   9.656
53366SOL    HW161995   1.374  13.209   9.739
53366SOL    HW261996   1.504  13.212   9.661
53367SOL     OW61997   7.452   3.805   2.721
53367SOL    HW161998   7.401   3.744   2.668
53367SOL    HW261999   7.435   3.891   2.683
53368SOL     OW62000   1.009   4.598   3.992
53368SOL    HW162001   1.102   4.594   3.969
53368SOL    HW262002   0.971   4.656   3.925
53369SOL     OW62003   3.925   3.996   2.391
53369SOL    HW162004   3.871   4.075   2.394
53369SOL    HW262005   3.962   3.996   2.303
53370SOL     OW62006   8.403   3.921  13.475
53370SOL    HW162007   8.493   3.911  13.506
53370SOL    HW262008   8.393   4.015  13.460
53371SOL     OW62009   8.534   3.301  10.824
53371SOL    HW162010   8.626   3.296  10.849
53371SOL    HW262011   8.503   3.211  10.829
53372SOL     OW62012   3.385  10.442   9.762
53372SOL    HW162013   3.438  10.405   9.691
53372SOL    HW262014   3.446  10.497   9.811
53373SOL     OW62015   6.672   2.502   8.454
53373SOL    HW162016   6.620   2.582   8.458
53373SOL    HW262017   6.701   2.496   8.363
53374SOL     OW62018  11.026   2.960   4.490
53374SOL    HW162019  11.001   3.025   4.424
53374SOL    HW262020  10.977   2.882   4.465
53375SOL     OW62021   2.589   8.557   4.790
53375SOL    HW162022   2.546   8.591   4.711
53375SOL    HW262023   2.560   8.466   4.795
53376SOL     OW62024   5.780   0.318  11.466
53376SOL    HW162025   5.798   0.225  11.480
53376SOL    HW262026   5.850   0.348  11.409
53377SOL     OW62027  13.043   9.349   7.284
53377SOL    HW162028  12.989   9.292   7.339
53377SOL    HW262029  13.086   9.408   7.346
53378SOL     OW62030   9.098   0.732   9.138
53378SOL    HW162031   9.067   0.641   9.135
53378SOL    HW262032   9.028   0.782   9.096
53379SOL     OW62033   1.195   3.252   2.968
53379SOL    HW162034   1.234   3.278   2.885
53379SOL    HW262035   1.104   3.281   2.962
53380SOL     OW62036   6.387   6.970  14.121
53380SOL    HW162037   6.441   6.898  14.091
53380SOL    HW262038   6.440   7.048  14.105
53381SOL     OW62039   5.184  10.800  10.849
53381SOL    HW162040   5.100  10.844  10.857
53381SOL    HW262041   5.162  10.707  10.843
53382SOL     OW62042   2.121   8.875  11.693
53382SOL    HW162043   2.164   8.790  11.701
53382SOL    HW262044   2.185   8.930  11.648
53383SOL     OW62045   6.041   2.030   6.591
53383SOL    HW162046   6.050   1.958   6.530
53383SOL    HW262047   5.954   2.018   6.630
53384SOL     OW62048   1.477  11.539  11.101
53384SOL    HW162049   1.565  11.575  11.094
53384SOL    HW262050   1.457  11.544  11.195
53385SOL     OW62051  10.492   9.287  10.584
53385SOL    HW162052  10.457   9.296  10.495
53385SOL    HW262053  10.419   9.314  10.641
53386SOL     OW62054   0.952   5.306   8.135
53386SOL    HW162055   0.914   5.393   8.121
53386SOL    HW262056   0.898   5.267   8.204
53387SOL     OW62057  14.536   0.783   0.696
53387SOL    HW162058  14.479   0.834   0.753
53387SOL    HW262059  14.605   0.843   0.670
53388SOL     OW62060   5.969   1.594  12.780
53388SOL    HW162061   6.021   1.632  12.850
53388SOL    HW262062   5.884   1.576  12.820
53389SOL     OW62063   4.104   0.017   2.508
53389SOL    HW162064   4.063  14.833   2.563
53389SOL    HW262065   4.170   0.057   2.565
53390SOL     OW62066   2.482   4.016  14.870
53390SOL    HW162067   2.511   4.082   0.051
53390SOL    HW262068   2.435   3.951   0.041
53391SOL     OW62069   3.556   7.343  14.766
53391SOL    HW162070   3.523   7.432  14.754
53391SOL    HW262071   3.650   7.351  14.756
53392SOL     OW62072   6.502   4.416   7.777
53392SOL    HW162073   6.596   4.405   7.787
53392SOL    HW262074   6.475   4.340   7.724
53393SOL     OW62075   4.147   6.849   3.314
53393SOL    HW162076   4.167   6.868   3.406
53393SOL    HW262077   4.194   6.916   3.265
53394SOL     OW62078   9.318   4.765   5.396
53394SOL    HW162079   9.386   4.821   5.360
53394SOL    HW262080   9.249   4.825   5.425
53395SOL     OW62081   3.961  10.796   0.587
53395SOL    HW162082   3.980  10.741   0.511
53395SOL    HW262083   3.866  10.805   0.588
53396SOL     OW62084   9.978   5.485   1.984
53396SOL    HW162085   9.986   5.504   2.078
53396SOL    HW262086  10.008   5.565   1.941
53397SOL     OW62087   9.491   5.857  14.860
53397SOL    HW162088   9.472   5.887   0.067
53397SOL    HW262089   9.517   5.766  14.871
53398SOL     OW62090  13.249   4.375  13.740
53398SOL    HW162091  13.318   4.329  13.693
53398SOL    HW262092  13.238   4.325  13.821
53399SOL     OW62093  11.739  11.216   0.728
53399SOL    HW162094  11.705  11.132   0.759
53399SOL    HW262095  11.752  11.268   0.807
53400SOL     OW62096   1.752   6.982  11.281
53400SOL    HW162097   1.709   7.044  11.340
53400SOL    HW262098   1.834   6.959  11.326
53401SOL     OW62099   4.577   6.517  11.332
53401SOL    HW162100   4.546   6.427  11.320
53401SOL    HW262101   4.644   6.511  11.400
53402SOL     OW62102   3.676   8.712   0.695
53402SOL    HW162103   3.650   8.662   0.618
53402SOL    HW262104   3.656   8.655   0.769
53403SOL     OW62105   7.971   0.505   6.743
53403SOL    HW162106   7.918   0.425   6.735
53403SOL    HW262107   7.908   0.573   6.767
53404SOL     OW62108   9.098   8.923   0.128
53404SOL    HW162109   9.106   8.885   0.040
53404SOL    HW262110   9.177   8.894   0.174
53405SOL     OW62111   4.101   1.251  12.135
53405SOL    HW162112   4.103   1.310  12.210
53405SOL    HW262113   4.192   1.221  12.126
53406SOL     OW62114   5.126   9.539   9.785
53406SOL    HW162115   5.196   9.605   9.785
53406SOL    HW262116   5.168   9.460   9.751
53407SOL     OW62117  13.600   2.786  13.707
53407SOL    HW162118  13.573   2.874  13.680
53407SOL    HW262119  13.684   2.800  13.751
53408SOL     OW62120  11.552   9.093   0.374
53408SOL    HW162121  11.588   9.010   0.344
53408SOL    HW262122  11.492   9.069   0.446
53409SOL     OW62123   1.320   4.551   4.260
53409SOL    HW162124   1.303   4.577   4.351
53409SOL    HW262125   1.311   4.456   4.260
53410SOL     OW62126   9.976   5.546  12.933
53410SOL    HW162127   9.895   5.593  12.916
53410SOL    HW262128  10.007   5.580  13.016
53411SOL     OW62129   8.333   2.545   3.725
53411SOL    HW162130   8.330   2.492   3.804
53411SOL    HW262131   8.291   2.490   3.658
53412SOL     OW62132   3.879   9.236   2.371
53412SOL    HW162133   3.793   9.235   2.330
53412SOL    HW262134   3.940   9.228   2.298
53413SOL     OW62135   6.554   5.108   8.365
53413SOL    HW162136   6.625   5.051   8.394
53413SOL    HW262137   6.594   5.163   8.298
53414SOL     OW62138   2.241   0.633   5.664
53414SOL    HW162139   2.175   0.636   5.734
53414SOL    HW262140   2.318   0.675   5.702
53415SOL     OW62141   6.179  10.979  10.424
53415SOL    HW162142   6.221  10.993  10.339
53415SOL    HW262143   6.217  10.898  10.457
53416SOL     OW62144   5.059  10.856  13.549
53416SOL    HW162145   4.987  10.918  13.542
53416SOL    HW262146   5.091  10.846  13.459
53417SOL     OW62147   5.349  12.372   6.043
53417SOL    HW162148   5.426  12.340   5.996
53417SOL    HW262149   5.298  12.419   5.977
53418SOL     OW62150  10.350  12.141  14.398
53418SOL    HW162151  10.289  12.183  14.458
53418SOL    HW262152  10.402  12.083  14.454
53419SOL     OW62153   9.555  13.417   4.558
53419SOL    HW162154   9.560  13.508   4.528
53419SOL    HW262155   9.575  13.421   4.652
53420SOL     OW62156   3.784   0.735   0.862
53420SOL    HW162157   3.831   0.773   0.788
53420SOL    HW262158   3.841   0.751   0.937
53421SOL     OW62159   1.753   5.151   4.564
53421SOL    HW162160   1.658   5.143   4.571
53421SOL    HW262161   1.786   5.116   4.646
53422SOL     OW62162  11.891   8.089   0.769
53422SOL    HW162163  11.842   8.007   0.771
53422SOL    HW262164  11.824   8.157   0.778
53423SOL     OW62165  10.588  12.428   3.834
53423SOL    HW162166  10.536  12.509   3.833
53423SOL    HW262167  10.553  12.378   3.907
53424SOL     OW62168  12.562  14.702   5.773
53424SOL    HW162169  12.504  14.629   5.790
53424SOL    HW262170  12.521  14.777   5.816
53425SOL     OW62171   9.041   3.677   0.263
53425SOL    HW162172   9.095   3.640   0.333
53425SOL    HW262173   9.056   3.620   0.188
53426SOL     OW62174   9.312  11.721   9.730
53426SOL    HW162175   9.367  11.696   9.805
53426SOL    HW262176   9.282  11.638   9.693
53427SOL     OW62177   9.603   8.910   8.317
53427SOL    HW162178   9.600   8.904   8.222
53427SOL    HW262179   9.517   8.881   8.346
53428SOL     OW62180   8.586  13.889   4.970
53428SOL    HW162181   8.666  13.862   4.924
53428SOL    HW262182   8.528  13.814   4.961
53429SOL     OW62183   5.547   4.435   6.437
53429SOL    HW162184   5.555   4.520   6.393
53429SOL    HW262185   5.637   4.410   6.457
53430SOL     OW62186   6.179   4.777   4.499
53430SOL    HW162187   6.182   4.793   4.593
53430SOL    HW262188   6.270   4.780   4.470
53431SOL     OW62189  10.558  11.684   6.577
53431SOL    HW162190  10.514  11.639   6.505
53431SOL    HW262191  10.588  11.767   6.539
53432SOL     OW62192   5.669  11.614  10.790
53432SOL    HW162193   5.674  11.542  10.728
53432SOL    HW262194   5.736  11.676  10.760
53433SOL     OW62195   1.788   6.849   8.223
53433SOL    HW162196   1.741   6.768   8.204
53433SOL    HW262197   1.785   6.857   8.318
53434SOL     OW62198   4.949   0.119  13.710
53434SOL    HW162199   4.905   0.173  13.644
53434SOL    HW262200   4.984   0.182  13.773
53435SOL     OW62201   3.403   6.458  13.774
53435SOL    HW162202   3.340   6.514  13.818
53435SOL    HW262203   3.480   6.458  13.832
53436SOL     OW62204   5.736   5.565   3.608
53436SOL    HW162205   5.740   5.514   3.527
53436SOL    HW262206   5.798   5.636   3.594
53437SOL     OW62207  13.765  10.283  14.555
53437SOL    HW162208  13.846  10.266  14.507
53437SOL    HW262209  13.788  10.270  14.647
53438SOL     OW62210   9.268   9.641   9.838
53438SOL    HW162211   9.247   9.659   9.746
53438SOL    HW262212   9.331   9.570   9.834
53439SOL     OW62213   1.087   4.233   4.440
53439SOL    HW162214   1.176   4.256   4.413
53439SOL    HW262215   1.042   4.212   4.358
53440SOL     OW62216   1.989   6.876  11.381
53440SOL    HW162217   2.014   6.961  11.419
53440SOL    HW262218   2.034   6.811  11.436
53441SOL     OW62219   7.680   6.173  13.613
53441SOL    HW162220   7.704   6.127  13.533
53441SOL    HW262221   7.625   6.111  13.661
53442SOL     OW62222  12.394   6.230   9.193
53442SOL    HW162223  12.322   6.179   9.230
53442SOL    HW262224  12.375   6.321   9.217
53443SOL     OW62225  10.360  11.163  13.267
53443SOL    HW162226  10.349  11.246  13.220
53443SOL    HW262227  10.358  11.188  13.359
53444SOL     OW62228   0.649   5.139  12.534
53444SOL    HW162229   0.697   5.140  12.451
53444SOL    HW262230   0.574   5.196  12.518
53445SOL     OW62231   0.919   6.308   3.381
53445SOL    HW162232   0.983   6.243   3.354
53445SOL    HW262233   0.855   6.259   3.433
53446SOL     OW62234  10.631   8.983   2.338
53446SOL    HW162235  10.723   8.964   2.357
53446SOL    HW262236  10.587   8.899   2.349
53447SOL     OW62237  14.627  12.354   6.489
53447SOL    HW162238  14.557  12.292   6.469
53447SOL    HW262239  14.584  12.424   6.539
53448SOL     OW62240   9.733  14.561   7.435
53448SOL    HW162241   9.806  14.566   7.496
53448SOL    HW262242   9.671  14.627   7.466
53449SOL     OW62243   2.660   4.513  14.735
53449SOL    HW162244   2.743   4.556  14.753
53449SOL    HW262245   2.647   4.454  14.809
53450SOL     OW62246   2.598   8.449  11.557
53450SOL    HW162247   2.623   8.358  11.546
53450SOL    HW262248   2.529   8.463  11.492
53451SOL     OW62249  11.153  13.533   9.904
53451SOL    HW162250  11.204  13.572   9.832
53451SOL    HW262251  11.069  13.511   9.865
53452SOL     OW62252   5.874   2.859   2.769
53452SOL    HW162253   5.786   2.898   2.769
53452SOL    HW262254   5.883   2.820   2.856
53453SOL     OW62255   3.680   7.216   5.477
53453SOL    HW162256   3.701   7.159   5.551
53453SOL    HW262257   3.765   7.238   5.439
53454SOL     OW62258  11.242   4.887   4.718
53454SOL    HW162259  11.319   4.891   4.775
53454SOL    HW262260  11.277   4.869   4.631
53455SOL     OW62261   9.181   0.751   7.222
53455SOL    HW162262   9.197   0.725   7.132
53455SOL    HW262263   9.269   0.770   7.257
53456SOL     OW62264   2.605   4.933  14.857
53456SOL    HW162265   2.618   4.839  14.865
53456SOL    HW262266   2.544   4.942  14.784
53457SOL     OW62267  13.278  11.830  12.700
53457SOL    HW162268  13.275  11.753  12.757
53457SOL    HW262269  13.366  11.865  12.712
53458SOL     OW62270   6.497   9.266  12.654
53458SOL    HW162271   6.569   9.323  12.683
53458SOL    HW262272   6.470   9.220  12.734
53459SOL     OW62273   1.601   6.263   3.178
53459SOL    HW162274   1.584   6.343   3.227
53459SOL    HW262275   1.573   6.283   3.088
53460SOL     OW62276   5.255   9.909   0.908
53460SOL    HW162277   5.341   9.932   0.873
53460SOL    HW262278   5.194   9.928   0.837
53461SOL     OW62279  13.234   5.224   5.752
53461SOL    HW162280  13.212   5.316   5.738
53461SOL    HW262281  13.182   5.177   5.687
53462SOL     OW62282  12.441   3.390  12.228
53462SOL    HW162283  12.353   3.378  12.193
53462SOL    HW262284  12.493   3.418  12.153
53463SOL     OW62285  13.754  12.876   3.988
53463SOL    HW162286  13.701  12.827   3.924
53463SOL    HW262287  13.733  12.836   4.072
53464SOL     OW62288   5.737   0.080   3.016
53464SOL    HW162289   5.794   0.137   3.067
53464SOL    HW262290   5.750  14.875   3.054
53465SOL     OW62291   8.398   2.799  13.307
53465SOL    HW162292   8.391   2.846  13.390
53465SOL    HW262293   8.484   2.825  13.272
53466SOL     OW62294  14.640  11.743   7.424
53466SOL    HW162295  14.692  11.664   7.436
53466SOL    HW262296  14.691  11.812   7.466
53467SOL     OW62297   7.381   0.104   0.696
53467SOL    HW162298   7.316   0.108   0.626
53467SOL    HW262299   7.461   0.139   0.656
53468SOL     OW62300  13.657  11.636   9.533
53468SOL    HW162301  13.566  11.650   9.508
53468SOL    HW262302  13.686  11.720   9.569
53469SOL     OW62303   4.155  11.652   1.380
53469SOL    HW162304   4.221  11.694   1.435
53469SOL    HW262305   4.112  11.724   1.334
53470SOL     OW62306  10.910  10.637   0.724
53470SOL    HW162307  10.959  10.558   0.702
53470SOL    HW262308  10.923  10.649   0.818
53471SOL     OW62309   1.674  14.216   8.246
53471SOL    HW162310   1.739  14.285   8.233
53471SOL    HW262311   1.624  14.245   8.323
53472SOL     OW62312  10.870   5.321  11.062
53472SOL    HW162313  10.918   5.384  11.007
53472SOL    HW262314  10.808   5.375  11.111
53473SOL     OW62315  12.823   0.613   8.230
53473SOL    HW162316  12.770   0.655   8.162
53473SOL    HW262317  12.868   0.685   8.273
53474SOL     OW62318   5.288   9.193  10.838
53474SOL    HW162319   5.206   9.226  10.801
53474SOL    HW262320   5.354   9.256  10.808
53475SOL     OW62321  10.244   7.653   2.417
53475SOL    HW162322  10.303   7.726   2.395
53475SOL    HW262323  10.259   7.589   2.347
53476SOL     OW62324   5.334   9.052   7.380
53476SOL    HW162325   5.310   8.959   7.385
53476SOL    HW262326   5.377   9.070   7.463
53477SOL     OW62327   8.659   4.681   3.070
53477SOL    HW162328   8.565   4.662   3.072
53477SOL    HW262329   8.673   4.723   2.985
53478SOL     OW62330   7.950   1.385  11.116
53478SOL    HW162331   7.985   1.397  11.028
53478SOL    HW262332   8.022   1.344  11.165
53479SOL     OW62333  11.508   4.480  12.301
53479SOL    HW162334  11.525   4.547  12.235
53479SOL    HW262335  11.515   4.526  12.385
53480SOL     OW62336   5.511   1.744   7.095
53480SOL    HW162337   5.588   1.728   7.150
53480SOL    HW262338   5.444   1.775   7.156
53481SOL     OW62339  14.753   1.863   4.896
53481SOL    HW162340  14.699   1.803   4.947
53481SOL    HW262341  14.788   1.924   4.960
53482SOL     OW62342   1.125   1.791  10.119
53482SOL    HW162343   1.205   1.843  10.122
53482SOL    HW262344   1.090   1.796  10.208
53483SOL     OW62345   2.747   7.888   6.680
53483SOL    HW162346   2.808   7.857   6.613
53483SOL    HW262347   2.668   7.837   6.665
53484SOL     OW62348   8.353  13.938   1.685
53484SOL    HW162349   8.328  13.983   1.604
53484SOL    HW262350   8.275  13.888   1.709
53485SOL     OW62351  12.638   3.736   6.494
53485SOL    HW162352  12.723   3.778   6.504
53485SOL    HW262353  12.597   3.743   6.580
53486SOL     OW62354   1.895   4.837   9.826
53486SOL    HW162355   1.954   4.908   9.851
53486SOL    HW262356   1.926   4.761   9.875
53487SOL     OW62357  13.351   2.909   9.896
53487SOL    HW162358  13.394   2.986   9.933
53487SOL    HW262359  13.276   2.944   9.848
53488SOL     OW62360   0.825   7.196   0.185
53488SOL    HW162361   0.828   7.117   0.132
53488SOL    HW262362   0.859   7.265   0.128
53489SOL     OW62363   4.985   8.280  13.274
53489SOL    HW162364   5.054   8.344  13.292
53489SOL    HW262365   5.011   8.238  13.192
53490SOL     OW62366  10.419  13.128   4.935
53490SOL    HW162367  10.390  13.106   4.846
53490SOL    HW262368  10.431  13.043   4.978
53491SOL     OW62369   3.574  14.283   4.846
53491SOL    HW162370   3.655  14.288   4.796
53491SOL    HW262371   3.507  14.318   4.786
53492SOL     OW62372  12.125   5.002   0.101
53492SOL    HW162373  12.029   4.994   0.104
53492SOL    HW262374  12.146   5.064   0.170
53493SOL     OW62375  13.977   9.263   5.021
53493SOL    HW162376  13.954   9.356   5.022
53493SOL    HW262377  13.935   9.227   5.099
53494SOL     OW62378   6.175  11.400   4.355
53494SOL    HW162379   6.101  11.450   4.321
53494SOL    HW262380   6.251  11.457   4.345
53495SOL     OW62381   5.445   0.187  13.855
53495SOL    HW162382   5.412   0.115  13.802
53495SOL    HW262383   5.430   0.265  13.801
53496SOL     OW62384  11.283  10.413  14.257
53496SOL    HW162385  11.251  10.485  14.311
53496SOL    HW262386  11.322  10.456  14.181
53497SOL     OW62387   8.235  14.684   9.580
53497SOL    HW162388   8.227  14.762   9.525
53497SOL    HW262389   8.267  14.717   9.664
53498SOL     OW62390   3.050  10.800   6.395
53498SOL    HW162391   2.983  10.752   6.346
53498SOL    HW262392   3.060  10.751   6.477
53499SOL     OW62393   3.154   2.733   4.417
53499SOL    HW162394   3.084   2.795   4.437
53499SOL    HW262395   3.109   2.654   4.389
53500SOL     OW62396  14.318  11.697  14.186
53500SOL    HW162397  14.407  11.669  14.207
53500SOL    HW262398  14.283  11.627  14.131
53501SOL     OW62399  13.167   9.512   0.340
53501SOL    HW162400  13.105   9.470   0.280
53501SOL    HW262401  13.113   9.545   0.411
53502SOL     OW62402   2.721   4.215   7.121
53502SOL    HW162403   2.677   4.147   7.173
53502SOL    HW262404   2.814   4.204   7.140
53503SOL     OW62405   2.670   7.218   3.649
53503SOL    HW162406   2.681   7.265   3.732
53503SOL    HW262407   2.755   7.177   3.632
53504SOL     OW62408   4.650   8.328   3.787
53504SOL    HW162409   4.682   8.241   3.764
53504SOL    HW262410   4.614   8.318   3.875
53505SOL     OW62411   5.619   7.872  10.029
53505SOL    HW162412   5.630   7.829   9.944
53505SOL    HW262413   5.657   7.959  10.018
53506SOL     OW62414   7.567  10.348   0.215
53506SOL    HW162415   7.642  10.368   0.271
53506SOL    HW262416   7.507  10.299   0.272
53507SOL     OW62417   8.891  10.073   7.464
53507SOL    HW162418   8.899  10.097   7.556
53507SOL    HW262419   8.969  10.020   7.446
53508SOL     OW62420  10.765   9.486   5.416
53508SOL    HW162421  10.835   9.496   5.480
53508SOL    HW262422  10.725   9.402   5.437
53509SOL     OW62423   0.149  13.053  13.640
53509SOL    HW162424   0.203  13.030  13.564
53509SOL    HW262425   0.066  13.083  13.603
53510SOL     OW62426   8.701  14.036   5.218
53510SOL    HW162427   8.769  13.969   5.229
53510SOL    HW262428   8.688  14.042   5.124
53511SOL     OW62429   4.179   4.045   5.041
53511SOL    HW162430   4.240   3.973   5.059
53511SOL    HW262431   4.142   4.024   4.956
53512SOL     OW62432  13.537  13.278  10.928
53512SOL    HW162433  13.497  13.192  10.937
53512SOL    HW262434  13.604  13.267  10.860
53513SOL     OW62435   6.609   2.095   8.957
53513SOL    HW162436   6.611   2.025   9.022
53513SOL    HW262437   6.608   2.176   9.009
53514SOL     OW62438   6.586  13.229   7.364
53514SOL    HW162439   6.636  13.310   7.361
53514SOL    HW262440   6.587  13.203   7.456
53515SOL     OW62441   7.666   6.444   1.801
53515SOL    HW162442   7.573   6.445   1.779
53515SOL    HW262443   7.711   6.467   1.719
53516SOL     OW62444   3.104   1.794   3.597
53516SOL    HW162445   3.163   1.778   3.524
53516SOL    HW262446   3.081   1.886   3.590
53517SOL     OW62447  12.600   4.816   1.969
53517SOL    HW162448  12.581   4.722   1.972
53517SOL    HW262449  12.586   4.840   1.877
53518SOL     OW62450   5.424   4.165   9.286
53518SOL    HW162451   5.483   4.235   9.258
53518SOL    HW262452   5.355   4.210   9.335
53519SOL     OW62453   1.344  12.033   4.054
53519SOL    HW162454   1.397  11.994   3.985
53519SOL    HW262455   1.401  12.097   4.096
53520SOL     OW62456  14.860  12.833  13.868
53520SOL    HW162457   0.065  12.826  13.831
53520SOL    HW262458  14.866  12.792  13.954
53521SOL     OW62459   4.662  14.650   3.097
53521SOL    HW162460   4.752  14.682   3.101
53521SOL    HW262461   4.621  14.685   3.176
53522SOL     OW62462   4.326  13.905  10.141
53522SOL    HW162463   4.236  13.874  10.155
53522SOL    HW262464   4.361  13.917  10.229
53523SOL     OW62465   2.630   2.338   0.597
53523SOL    HW162466   2.622   2.416   0.543
53523SOL    HW262467   2.647   2.267   0.534
53524SOL     OW62468   9.707  14.386  12.563
53524SOL    HW162469   9.679  14.311  12.511
53524SOL    HW262470   9.704  14.460  12.502
53525SOL     OW62471   4.524  10.843  13.721
53525SOL    HW162472   4.507  10.774  13.657
53525SOL    HW262473   4.510  10.800  13.806
53526SOL     OW62474   4.904   5.590   7.155
53526SOL    HW162475   4.872   5.642   7.228
53526SOL    HW262476   4.883   5.641   7.077
53527SOL     OW62477   7.594  13.334   1.100
53527SOL    HW162478   7.583  13.425   1.127
53527SOL    HW262479   7.551  13.329   1.015
53528SOL     OW62480   4.025  13.282  13.465
53528SOL    HW162481   4.112  13.274  13.427
53528SOL    HW262482   3.979  13.343  13.408
53529SOL     OW62483   2.777  10.778  11.585
53529SOL    HW162484   2.734  10.844  11.640
53529SOL    HW262485   2.708  10.750  11.524
53530SOL     OW62486   1.082   5.911  13.960
53530SOL    HW162487   1.021   5.979  13.932
53530SOL    HW262488   1.026   5.836  13.981
53531SOL     OW62489   3.048   4.564  10.321
53531SOL    HW162490   2.972   4.538  10.269
53531SOL    HW262491   3.085   4.637  10.272
53532SOL     OW62492   4.146   7.953  14.502
53532SOL    HW162493   4.121   8.033  14.457
53532SOL    HW262494   4.071   7.932  14.557
53533SOL     OW62495  10.413  14.850  10.186
53533SOL    HW162496  10.467  14.790  10.238
53533SOL    HW262497  10.407   0.047  10.238
53534SOL     OW62498   7.741  11.876   1.899
53534SOL    HW162499   7.775  11.793   1.864
53534SOL    HW262500   7.665  11.850   1.951
53535SOL     OW62501   1.193   3.223  10.799
53535SOL    HW162502   1.139   3.245  10.723
53535SOL    HW262503   1.180   3.129  10.811
53536SOL     OW62504   1.961  11.646   7.800
53536SOL    HW162505   1.977  11.672   7.709
53536SOL    HW262506   2.026  11.577   7.816
53537SOL     OW62507   5.758   6.505  10.200
53537SOL    HW162508   5.731   6.596  10.210
53537SOL    HW262509   5.678   6.459  10.175
53538SOL     OW62510  11.674  11.684   5.864
53538SOL    HW162511  11.736  11.617   5.834
53538SOL    HW262512  11.614  11.695   5.790
53539SOL     OW62513   2.829   1.879   6.581
53539SOL    HW162514   2.912   1.859   6.537
53539SOL    HW262515   2.784   1.795   6.587
53540SOL     OW62516   7.848  11.783  13.693
53540SOL    HW162517   7.912  11.732  13.743
53540SOL    HW262518   7.896  11.861  13.665
53541SOL     OW62519   6.387   0.146  11.207
53541SOL    HW162520   6.374   0.189  11.292
53541SOL    HW262521   6.346   0.205  11.144
53542SOL     OW62522   3.149  14.425  12.826
53542SOL    HW162523   3.176  14.515  12.812
53542SOL    HW262524   3.200  14.374  12.764
53543SOL     OW62525  10.464   5.882   0.789
53543SOL    HW162526  10.380   5.865   0.748
53543SOL    HW262527  10.506   5.947   0.733
53544SOL     OW62528   7.865   4.697   0.784
53544SOL    HW162529   7.877   4.782   0.826
53544SOL    HW262530   7.950   4.677   0.745
53545SOL     OW62531   4.799   9.586   5.792
53545SOL    HW162532   4.786   9.673   5.752
53545SOL    HW262533   4.728   9.533   5.755
53546SOL     OW62534   5.382   9.263   6.865
53546SOL    HW162535   5.444   9.335   6.869
53546SOL    HW262536   5.367   9.239   6.956
53547SOL     OW62537  13.356   5.635  14.537
53547SOL    HW162538  13.325   5.545  14.541
53547SOL    HW262539  13.287   5.683  14.492
53548SOL     OW62540   0.148   7.426  12.038
53548SOL    HW162541   0.174   7.460  11.952
53548SOL    HW262542   0.067   7.378  12.022
53549SOL     OW62543   9.360  11.075  14.155
53549SOL    HW162544   9.369  11.023  14.075
53549SOL    HW262545   9.304  11.148  14.130
53550SOL     OW62546  13.790   5.334  12.309
53550SOL    HW162547  13.718   5.389  12.340
53550SOL    HW262548  13.763   5.306  12.222
53551SOL     OW62549  11.659  12.684   4.319
53551SOL    HW162550  11.753  12.671   4.330
53551SOL    HW262551  11.643  12.773   4.352
53552SOL     OW62552  12.948  10.607   5.905
53552SOL    HW162553  12.904  10.678   5.952
53552SOL    HW262554  12.954  10.536   5.969
53553SOL     OW62555   6.355   1.234  12.025
53553SOL    HW162556   6.337   1.278  12.107
53553SOL    HW262557   6.384   1.147  12.051
53554SOL     OW62558   0.416   1.352   3.075
53554SOL    HW162559   0.363   1.425   3.043
53554SOL    HW262560   0.501   1.365   3.033
53555SOL     OW62561   4.067  12.515  10.394
53555SOL    HW162562   4.113  12.431  10.389
53555SOL    HW262563   4.054  12.541  10.303
53556SOL     OW62564  10.407  12.112   4.699
53556SOL    HW162565  10.436  12.163   4.775
53556SOL    HW262566  10.471  12.042   4.692
53557SOL     OW62567   4.084  10.823  10.187
53557SOL    HW162568   4.061  10.731  10.173
53557SOL    HW262569   4.085  10.833  10.283
53558SOL     OW62570  13.277   7.884   5.543
53558SOL    HW162571  13.277   7.968   5.498
53558SOL    HW262572  13.335   7.829   5.490
53559SOL     OW62573   7.743   1.256   9.089
53559SOL    HW162574   7.805   1.210   9.032
53559SOL    HW262575   7.661   1.206   9.080
53560SOL     OW62576   5.916   3.426   3.486
53560SOL    HW162577   5.854   3.486   3.527
53560SOL    HW262578   5.903   3.343   3.531
53561SOL     OW62579   5.409  14.205  10.176
53561SOL    HW162580   5.345  14.180  10.109
53561SOL    HW262581   5.391  14.146  10.250
53562SOL     OW62582   6.420  10.173   1.175
53562SOL    HW162583   6.387  10.259   1.201
53562SOL    HW262584   6.515  10.179   1.189
53563SOL     OW62585   5.609   4.492   5.742
53563SOL    HW162586   5.678   4.437   5.705
53563SOL    HW262587   5.554   4.432   5.791
53564SOL     OW62588  10.260   3.159  13.394
53564SOL    HW162589  10.200   3.085  13.400
53564SOL    HW262590  10.292   3.158  13.304
53565SOL     OW62591  10.518   5.642  14.463
53565SOL    HW162592  10.592   5.606  14.414
53565SOL    HW262593  10.548   5.644  14.554
53566SOL     OW62594   5.501   7.914  14.018
53566SOL    HW162595   5.474   8.001  13.988
53566SOL    HW262596   5.456   7.854  13.958
53567SOL     OW62597  11.583  14.490   8.706
53567SOL    HW162598  11.664  14.513   8.752
53567SOL    HW262599  11.612  14.456   8.622
53568SOL     OW62600   8.715   4.818   8.183
53568SOL    HW162601   8.650   4.770   8.235
53568SOL    HW262602   8.669   4.897   8.154
53569SOL     OW62603   6.361   2.030   4.598
53569SOL    HW162604   6.397   1.942   4.610
53569SOL    HW262605   6.339   2.059   4.687
53570SOL     OW62606   7.600  13.393   3.612
53570SOL    HW162607   7.646  13.390   3.696
53570SOL    HW262608   7.596  13.302   3.583
53571SOL     OW62609   2.493   9.353  12.404
53571SOL    HW162610   2.477   9.343  12.310
53571SOL    HW262611   2.496   9.448  12.418
53572SOL     OW62612   5.262  11.569   5.145
53572SOL    HW162613   5.339  11.543   5.195
53572SOL    HW262614   5.287  11.557   5.053
53573SOL     OW62615  11.215  12.410   8.091
53573SOL    HW162616  11.179  12.340   8.037
53573SOL    HW262617  11.264  12.465   8.030
53574SOL     OW62618   0.259   7.010   2.555
53574SOL    HW162619   0.344   7.042   2.583
53574SOL    HW262620   0.274   6.971   2.469
53575SOL     OW62621   6.375   6.499  10.538
53575SOL    HW162622   6.437   6.434  10.569
53575SOL    HW262623   6.411   6.583  10.567
53576SOL     OW62624  12.061   6.504   1.077
53576SOL    HW162625  12.152   6.516   1.049
53576SOL    HW262626  12.018   6.461   1.002
53577SOL     OW62627  11.893   3.691  14.009
53577SOL    HW162628  11.902   3.781  13.979
53577SOL    HW262629  11.942   3.640  13.945
53578SOL     OW62630   5.903  14.835  12.279
53578SOL    HW162631   5.834  14.803  12.338
53578SOL    HW262632   5.976  14.856  12.336
53579SOL     OW62633   4.681  11.647   5.835
53579SOL    HW162634   4.760  11.648   5.782
53579SOL    HW262635   4.668  11.554   5.856
53580SOL     OW62636   4.874   5.287   8.485
53580SOL    HW162637   4.922   5.336   8.551
53580SOL    HW262638   4.924   5.300   8.404
53581SOL     OW62639  10.182   8.157   6.134
53581SOL    HW162640  10.227   8.096   6.075
53581SOL    HW262641  10.227   8.147   6.218
53582SOL     OW62642  10.727   4.933   3.336
53582SOL    HW162643  10.662   4.989   3.294
53582SOL    HW262644  10.765   4.988   3.405
53583SOL     OW62645   9.903  11.840   8.736
53583SOL    HW162646   9.998  11.856   8.733
53583SOL    HW262647   9.864  11.927   8.737
53584SOL     OW62648  13.475  12.677  11.701
53584SOL    HW162649  13.493  12.602  11.645
53584SOL    HW262650  13.560  12.720  11.711
53585SOL     OW62651  11.700   3.887   2.619
53585SOL    HW162652  11.710   3.845   2.704
53585SOL    HW262653  11.668   3.975   2.640
53586SOL     OW62654  12.472  12.024   9.421
53586SOL    HW162655  12.454  11.989   9.333
53586SOL    HW262656  12.508  11.949   9.469
53587SOL     OW62657   3.873  12.478  12.299
53587SOL    HW162658   3.903  12.468  12.209
53587SOL    HW262659   3.952  12.460  12.352
53588SOL     OW62660   5.279  12.436   3.067
53588SOL    HW162661   5.308  12.502   3.130
53588SOL    HW262662   5.200  12.398   3.106
53589SOL     OW62663  12.421  13.352   6.725
53589SOL    HW162664  12.373  13.284   6.772
53589SOL    HW262665  12.361  13.427   6.724
53590SOL     OW62666   7.321   5.601   4.501
53590SOL    HW162667   7.248   5.662   4.489
53590SOL    HW262668   7.315   5.541   4.427
53591SOL     OW62669   0.357   6.735   6.433
53591SOL    HW162670   0.347   6.827   6.455
53591SOL    HW262671   0.324   6.728   6.343
53592SOL     OW62672  10.637   0.162   2.787
53592SOL    HW162673  10.570   0.176   2.720
53592SOL    HW262674  10.620   0.075   2.821
53593SOL     OW62675   6.588   7.853   0.055
53593SOL    HW162676   6.652   7.814   0.114
53593SOL    HW262677   6.536   7.911   0.110
53594SOL     OW62678   9.834   8.272   3.168
53594SOL    HW162679   9.746   8.248   3.197
53594SOL    HW262680   9.872   8.191   3.135
53595SOL     OW62681   9.561  13.184  11.270
53595SOL    HW162682   9.474  13.221  11.259
53595SOL    HW262683   9.546  13.090  11.279
53596SOL     OW62684   9.221   0.826   3.503
53596SOL    HW162685   9.143   0.771   3.503
53596SOL    HW262686   9.245   0.833   3.595
53597SOL     OW62687   7.961   7.612   6.902
53597SOL    HW162688   7.877   7.566   6.902
53597SOL    HW262689   8.023   7.548   6.937
53598SOL     OW62690   6.412   8.559   4.430
53598SOL    HW162691   6.443   8.551   4.339
53598SOL    HW262692   6.322   8.528   4.427
53599SOL     OW62693   0.243   1.788   5.043
53599SOL    HW162694   0.305   1.721   5.013
53599SOL    HW262695   0.292   1.838   5.108
53600SOL     OW62696   5.023   7.265  14.389
53600SOL    HW162697   5.088   7.296  14.452
53600SOL    HW262698   5.069   7.197  14.340
53601SOL     OW62699  14.881  10.301   2.831
53601SOL    HW162700  14.879  10.254   2.747
53601SOL    HW262701   0.053  10.246   2.887
53602SOL     OW62702  10.067   1.438   3.988
53602SOL    HW162703  10.061   1.398   3.901
53602SOL    HW262704  10.161   1.439   4.008
53603SOL     OW62705  10.521  14.555   2.111
53603SOL    HW162706  10.522  14.649   2.093
53603SOL    HW262707  10.605  14.538   2.153
53604SOL     OW62708   3.705   5.430   6.724
53604SOL    HW162709   3.731   5.502   6.666
53604SOL    HW262710   3.609   5.430   6.721
53605SOL     OW62711   2.848  11.498  11.025
53605SOL    HW162712   2.913  11.531  10.962
53605SOL    HW262713   2.899  11.475  11.102
53606SOL     OW62714   6.381   5.965   0.116
53606SOL    HW162715   6.385   5.921   0.031
53606SOL    HW262716   6.463   5.940   0.159
53607SOL     OW62717  14.285  11.487  14.020
53607SOL    HW162718  14.293  11.517  13.929
53607SOL    HW262719  14.235  11.405  14.014
53608SOL     OW62720  14.783  13.546   7.713
53608SOL    HW162721  14.726  13.508   7.646
53608SOL    HW262722  14.831  13.472   7.749
53609SOL     OW62723  12.793   9.340   5.969
53609SOL    HW162724  12.790   9.248   5.941
53609SOL    HW262725  12.836   9.337   6.055
53610SOL     OW62726  14.327  11.460   8.349
53610SOL    HW162727  14.363  11.400   8.284
53610SOL    HW262728  14.351  11.547   8.318
53611SOL     OW62729  12.039   2.606   5.252
53611SOL    HW162730  12.030   2.681   5.311
53611SOL    HW262731  12.133   2.587   5.252
53612SOL     OW62732   8.211   9.895   7.625
53612SOL    HW162733   8.178   9.943   7.548
53612SOL    HW262734   8.195   9.954   7.698
53613SOL     OW62735  11.297  12.116  14.479
53613SOL    HW162736  11.319  12.129  14.386
53613SOL    HW262737  11.267  12.025  14.483
53614SOL     OW62738   8.593   2.417  10.101
53614SOL    HW162739   8.664   2.453  10.154
53614SOL    HW262740   8.600   2.463  10.017
53615SOL     OW62741   0.354   5.882   4.643
53615SOL    HW162742   0.285   5.822   4.614
53615SOL    HW262743   0.307   5.964   4.664
53616SOL     OW62744   1.561  11.503  12.599
53616SOL    HW162745   1.618  11.563  12.648
53616SOL    HW262746   1.567  11.420  12.646
53617SOL     OW62747  11.778   2.653   0.178
53617SOL    HW162748  11.835   2.576   0.172
53617SOL    HW262749  11.690   2.618   0.167
53618SOL     OW62750  10.069   1.486  14.817
53618SOL    HW162751  10.061   1.441   0.018
53618SOL    HW262752   9.991   1.462  14.768
53619SOL     OW62753   3.838  14.653  14.838
53619SOL    HW162754   3.886  14.656  14.755
53619SOL    HW262755   3.867  14.731   0.003
53620SOL     OW62756   9.625   9.975  11.747
53620SOL    HW162757   9.540   9.952  11.784
53620SOL    HW262758   9.675  10.009  11.821
53621SOL     OW62759   5.551   9.469   5.212
53621SOL    HW162760   5.639   9.491   5.181
53621SOL    HW262761   5.504   9.445   5.132
53622SOL     OW62762  12.178   2.792   4.439
53622SOL    HW162763  12.203   2.878   4.406
53622SOL    HW262764  12.259   2.742   4.441
53623SOL     OW62765  14.040   4.369   2.257
53623SOL    HW162766  14.046   4.409   2.170
53623SOL    HW262767  13.958   4.320   2.256
53624SOL     OW62768  11.164   3.248  14.729
53624SOL    HW162769  11.138   3.164  14.692
53624SOL    HW262770  11.255   3.260  14.701
53625SOL     OW62771   4.209   6.081   8.513
53625SOL    HW162772   4.262   6.014   8.470
53625SOL    HW262773   4.220   6.159   8.457
53626SOL     OW62774   7.419   3.201   9.836
53626SOL    HW162775   7.507   3.167   9.820
53626SOL    HW262776   7.427   3.251   9.917
53627SOL     OW62777   5.162   7.334   9.961
53627SOL    HW162778   5.125   7.313   9.875
53627SOL    HW262779   5.252   7.362   9.943
53628SOL     OW62780  10.650   2.688   7.428
53628SOL    HW162781  10.723   2.747   7.449
53628SOL    HW262782  10.684   2.600   7.445
53629SOL     OW62783   1.904   6.893   5.762
53629SOL    HW162784   1.899   6.842   5.844
53629SOL    HW262785   1.819   6.881   5.722
53630SOL     OW62786  11.200   2.892  14.191
53630SOL    HW162787  11.265   2.826  14.214
53630SOL    HW262788  11.250   2.974  14.188
53631SOL     OW62789  11.759   0.161   0.100
53631SOL    HW162790  11.671   0.135   0.126
53631SOL    HW262791  11.766   0.253   0.126
53632SOL     OW62792  10.369  11.472  11.933
53632SOL    HW162793  10.295  11.424  11.969
53632SOL    HW262794  10.424  11.404  11.893
53633SOL     OW62795   6.140  12.246   7.570
53633SOL    HW162796   6.128  12.267   7.663
53633SOL    HW262797   6.219  12.293   7.545
53634SOL     OW62798   2.469   4.344   9.930
53634SOL    HW162799   2.400   4.410   9.931
53634SOL    HW262800   2.521   4.362  10.007
53635SOL     OW62801  13.486   7.140   3.857
53635SOL    HW162802  13.393   7.118   3.855
53635SOL    HW262803  13.527   7.065   3.901
53636SOL     OW62804  13.602  12.938  11.433
53636SOL    HW162805  13.518  12.897  11.456
53636SOL    HW262806  13.653  12.866  11.395
53637SOL     OW62807   2.988  10.233   1.395
53637SOL    HW162808   3.032  10.271   1.471
53637SOL    HW262809   2.922  10.175   1.432
53638SOL     OW62810  13.641  14.457  11.721
53638SOL    HW162811  13.569  14.397  11.741
53638SOL    HW262812  13.597  14.536  11.688
53639SOL     OW62813   0.531   1.364  10.970
53639SOL    HW162814   0.594   1.320  10.913
53639SOL    HW262815   0.449   1.316  10.958
53640SOL     OW62816   8.120  11.270  11.538
53640SOL    HW162817   8.138  11.293  11.447
53640SOL    HW262818   8.033  11.306  11.555
53641SOL     OW62819   5.312  13.754  11.381
53641SOL    HW162820   5.363  13.675  11.363
53641SOL    HW262821   5.373  13.811  11.428
53642SOL     OW62822   2.512   3.021  13.839
53642SOL    HW162823   2.539   2.966  13.765
53642SOL    HW262824   2.553   2.979  13.915
53643SOL     OW62825   4.287   2.295   1.933
53643SOL    HW162826   4.372   2.330   1.905
53643SOL    HW262827   4.299   2.274   2.026
53644SOL     OW62828  11.766   6.137   6.407
53644SOL    HW162829  11.772   6.128   6.502
53644SOL    HW262830  11.707   6.067   6.380
53645SOL     OW62831   0.104   9.787  13.603
53645SOL    HW162832   0.177   9.746  13.557
53645SOL    HW262833   0.123   9.774  13.696
53646SOL     OW62834  11.930  14.044  13.384
53646SOL    HW162835  11.836  14.026  13.397
53646SOL    HW262836  11.970  14.016  13.466
53647SOL     OW62837  12.436   2.552   0.990
53647SOL    HW162838  12.354   2.570   1.036
53647SOL    HW262839  12.410   2.499   0.914
53648SOL     OW62840   8.985  13.681   0.086
53648SOL    HW162841   8.950  13.618   0.149
53648SOL    HW262842   9.045  13.629   0.032
53649SOL     OW62843  14.431   0.241  12.382
53649SOL    HW162844  14.374   0.164  12.387
53649SOL    HW262845  14.420   0.285  12.466
53650SOL     OW62846  13.675  13.559   0.933
53650SOL    HW162847  13.629  13.558   1.017
53650SOL    HW262848  13.746  13.623   0.946
53651SOL     OW62849   4.823   0.105  14.816
53651SOL    HW162850   4.736   0.146  14.813
53651SOL    HW262851   4.854   0.108  14.725
53652SOL     OW62852   4.018  14.482   8.449
53652SOL    HW162853   3.927  14.481   8.421
53652SOL    HW262854   4.041  14.574   8.457
53653SOL     OW62855   7.281  12.208  14.484
53653SOL    HW162856   7.222  12.208  14.409
53653SOL    HW262857   7.350  12.147  14.461
53654SOL     OW62858   5.933   5.598  14.552
53654SOL    HW162859   5.919   5.672  14.612
53654SOL    HW262860   5.983   5.535  14.603
53655SOL     OW62861   1.480  11.641  14.462
53655SOL    HW162862   1.421  11.580  14.505
53655SOL    HW262863   1.566  11.600  14.467
53656SOL     OW62864  12.027   6.433   0.339
53656SOL    HW162865  12.056   6.428   0.430
53656SOL    HW262866  12.107   6.450   0.290
53657SOL     OW62867   3.168  11.707   7.230
53657SOL    HW162868   3.239  11.686   7.290
53657SOL    HW262869   3.095  11.734   7.286
53658SOL     OW62870   0.665  12.499   6.273
53658SOL    HW162871   0.648  12.592   6.292
53658SOL    HW262872   0.645  12.454   6.355
53659SOL     OW62873  10.265   1.114   2.585
53659SOL    HW162874  10.208   1.169   2.531
53659SOL    HW262875  10.319   1.067   2.522
53660SOL     OW62876   0.033  12.665   4.564
53660SOL    HW162877   0.015  12.653   4.657
53660SOL    HW262878  14.880  12.586   4.522
53661SOL     OW62879   3.545  14.375  12.899
53661SOL    HW162880   3.504  14.429  12.968
53661SOL    HW262881   3.502  14.290  12.908
53662SOL     OW62882  13.312   6.869   4.656
53662SOL    HW162883  13.290   6.839   4.745
53662SOL    HW262884  13.290   6.795   4.600
53663SOL     OW62885   3.275   0.027   7.011
53663SOL    HW162886   3.233   0.113   7.005
53663SOL    HW262887   3.202  14.847   7.006
53664SOL     OW62888   7.969   5.076   8.744
53664SOL    HW162889   8.027   5.111   8.811
53664SOL    HW262890   7.988   4.982   8.743
53665SOL     OW62891  12.175  11.053  14.590
53665SOL    HW162892  12.202  10.982  14.649
53665SOL    HW262893  12.134  11.009  14.516
53666SOL     OW62894  12.576  12.246   0.333
53666SOL    HW162895  12.622  12.306   0.274
53666SOL    HW262896  12.643  12.216   0.394
53667SOL     OW62897   3.381   5.387   5.109
53667SOL    HW162898   3.452   5.328   5.085
53667SOL    HW262899   3.344   5.350   5.189
53668SOL     OW62900   5.125   0.749  11.765
53668SOL    HW162901   5.096   0.781  11.680
53668SOL    HW262902   5.194   0.810  11.792
53669SOL     OW62903  14.323   8.578   1.255
53669SOL    HW162904  14.325   8.674   1.245
53669SOL    HW262905  14.369   8.562   1.337
53670SOL     OW62906  11.651   2.718  11.450
53670SOL    HW162907  11.565   2.759  11.440
53670SOL    HW262908  11.663   2.669  11.369
53671SOL     OW62909   5.710  14.445  13.570
53671SOL    HW162910   5.776  14.433  13.501
53671SOL    HW262911   5.744  14.397  13.645
53672SOL     OW62912   8.379   1.032   2.466
53672SOL    HW162913   8.366   0.942   2.434
53672SOL    HW262914   8.472   1.049   2.450
53673SOL     OW62915   1.251   4.118   2.174
53673SOL    HW162916   1.263   4.025   2.156
53673SOL    HW262917   1.263   4.160   2.089
53674SOL     OW62918  13.533   1.050  14.788
53674SOL    HW162919  13.458   1.034  14.845
53674SOL    HW262920  13.572   0.964  14.774
53675SOL     OW62921  10.627   7.036   6.287
53675SOL    HW162922  10.629   6.947   6.322
53675SOL    HW262923  10.718   7.055   6.265
53676SOL     OW62924   9.930   7.872   0.511
53676SOL    HW162925   9.864   7.873   0.580
53676SOL    HW262926   9.884   7.907   0.434
53677SOL     OW62927  14.269   7.105   6.925
53677SOL    HW162928  14.296   7.017   6.953
53677SOL    HW262929  14.343   7.137   6.873
53678SOL     OW62930   1.879   6.362  14.698
53678SOL    HW162931   1.873   6.269  14.721
53678SOL    HW262932   1.790   6.395  14.711
53679SOL     OW62933  14.744   2.350   6.826
53679SOL    HW162934  14.777   2.373   6.739
53679SOL    HW262935  14.791   2.270   6.849
53680SOL     OW62936   8.883   7.105  14.815
53680SOL    HW162937   8.928   7.062  14.742
53680SOL    HW262938   8.844   7.183  14.775
53681SOL     OW62939  14.148   9.464   0.025
53681SOL    HW162940  14.065   9.456  14.860
53681SOL    HW262941  14.173   9.556   0.016
53682SOL     OW62942   9.654   7.968   0.557
53682SOL    HW162943   9.682   8.053   0.524
53682SOL    HW262944   9.598   7.932   0.488
53683SOL     OW62945   6.962  11.380   9.216
53683SOL    HW162946   6.936  11.288   9.222
53683SOL    HW262947   7.025  11.392   9.288
53684SOL     OW62948   7.932   3.381   1.761
53684SOL    HW162949   7.962   3.356   1.848
53684SOL    HW262950   7.890   3.302   1.726
53685SOL     OW62951  10.051  14.416  10.550
53685SOL    HW162952  10.091  14.464  10.478
53685SOL    HW262953  10.067  14.324  10.530
53686SOL     OW62954   2.518   0.425   0.483
53686SOL    HW162955   2.552   0.363   0.548
53686SOL    HW262956   2.543   0.511   0.517
53687SOL     OW62957   9.791  14.358   5.019
53687SOL    HW162958   9.860  14.292   5.011
53687SOL    HW262959   9.797  14.409   4.938
53688SOL     OW62960  13.723   3.574   1.517
53688SOL    HW162961  13.765   3.488   1.513
53688SOL    HW262962  13.744   3.607   1.605
53689SOL     OW62963   0.695   5.697  10.376
53689SOL    HW162964   0.732   5.766  10.320
53689SOL    HW262965   0.614   5.735  10.409
53690SOL     OW62966   6.678   7.189  12.932
53690SOL    HW162967   6.769   7.216  12.916
53690SOL    HW262968   6.628   7.271  12.932
53691SOL     OW62969   6.525  12.108  11.825
53691SOL    HW162970   6.582  12.036  11.850
53691SOL    HW262971   6.450  12.100  11.884
53692SOL     OW62972   0.424   2.340   9.387
53692SOL    HW162973   0.498   2.310   9.336
53692SOL    HW262974   0.348   2.328   9.329
53693SOL     OW62975  13.000   6.171   8.473
53693SOL    HW162976  12.928   6.154   8.413
53693SOL    HW262977  13.072   6.200   8.418
53694SOL     OW62978   5.771   8.732  13.319
53694SOL    HW162979   5.855   8.713  13.360
53694SOL    HW262980   5.791   8.733  13.225
53695SOL     OW62981   3.800   9.417   7.590
53695SOL    HW162982   3.820   9.509   7.610
53695SOL    HW262983   3.705   9.410   7.603
53696SOL     OW62984   1.383   2.337   4.958
53696SOL    HW162985   1.415   2.262   5.008
53696SOL    HW262986   1.292   2.315   4.938
53697SOL     OW62987   5.104  11.800  14.407
53697SOL    HW162988   5.044  11.860  14.362
53697SOL    HW262989   5.063  11.782  14.491
53698SOL     OW62990  12.568   8.983   9.350
53698SOL    HW162991  12.588   9.075   9.333
53698SOL    HW262992  12.626   8.958   9.422
53699SOL     OW62993   1.875   3.613   2.851
53699SOL    HW162994   1.911   3.675   2.914
53699SOL    HW262995   1.800   3.658   2.812
53700SOL     OW62996  13.194  10.151   2.980
53700SOL    HW162997  13.198  10.233   2.931
53700SOL    HW262998  13.108  10.114   2.957
53701SOL     OW62999  11.946   8.495  13.721
53701SOL    HW163000  11.976   8.413  13.760
53701SOL    HW263001  11.878   8.467  13.658
53702SOL     OW63002  11.796  10.536   6.785
53702SOL    HW163003  11.722  10.518   6.842
53702SOL    HW263004  11.844  10.454   6.781
53703SOL     OW63005  10.217   1.951  11.667
53703SOL    HW163006  10.196   1.972  11.758
53703SOL    HW263007  10.211   2.035  11.621
53704SOL     OW63008  13.144   2.195   4.890
53704SOL    HW163009  13.089   2.181   4.813
53704SOL    HW263010  13.111   2.132   4.954
53705SOL     OW63011   7.006  14.705  12.071
53705SOL    HW163012   6.983  14.613  12.057
53705SOL    HW263013   7.020  14.739  11.982
53706SOL     OW63014  12.903   3.585  11.181
53706SOL    HW163015  12.973   3.608  11.242
53706SOL    HW263016  12.824   3.623  11.220
53707SOL     OW63017   5.711  10.545   8.491
53707SOL    HW163018   5.779  10.502   8.543
53707SOL    HW263019   5.724  10.511   8.403
53708SOL     OW63020   1.988   4.201   2.705
53708SOL    HW163021   2.037   4.169   2.629
53708SOL    HW263022   1.953   4.286   2.678
53709SOL     OW63023   4.669   8.019   7.457
53709SOL    HW163024   4.672   8.072   7.378
53709SOL    HW263025   4.584   7.974   7.453
53710SOL     OW63026   9.328  13.164   4.241
53710SOL    HW163027   9.388  13.215   4.186
53710SOL    HW263028   9.337  13.203   4.328
53711SOL     OW63029  11.562   5.842  14.592
53711SOL    HW163030  11.573   5.799  14.508
53711SOL    HW263031  11.652   5.864  14.619
53712SOL     OW63032   4.303   1.867  12.661
53712SOL    HW163033   4.222   1.880  12.613
53712SOL    HW263034   4.345   1.792  12.618
53713SOL     OW63035  10.088   0.833   7.263
53713SOL    HW163036  10.018   0.768   7.272
53713SOL    HW263037  10.045   0.909   7.224
53714SOL     OW63038  12.199   7.878   5.938
53714SOL    HW163039  12.123   7.820   5.939
53714SOL    HW263040  12.194   7.926   6.020
53715SOL     OW63041   1.890  13.629   4.564
53715SOL    HW163042   1.831  13.598   4.497
53715SOL    HW263043   1.917  13.550   4.612
53716SOL     OW63044   1.602   6.916   2.718
53716SOL    HW163045   1.610   6.990   2.657
53716SOL    HW263046   1.542   6.856   2.674
53717SOL     OW63047   2.151   4.965  13.108
53717SOL    HW163048   2.097   5.040  13.134
53717SOL    HW263049   2.241   4.995  13.124
53718SOL     OW63050   7.145   0.389   1.571
53718SOL    HW163051   7.229   0.421   1.602
53718SOL    HW263052   7.115   0.456   1.509
53719SOL     OW63053   8.754   9.816   3.033
53719SOL    HW163054   8.830   9.799   3.087
53719SOL    HW263055   8.791   9.842   2.948
53720SOL     OW63056   3.893  12.907   4.286
53720SOL    HW163057   3.823  12.916   4.351
53720SOL    HW263058   3.972  12.894   4.338
53721SOL     OW63059  11.012   0.761   2.061
53721SOL    HW163060  10.925   0.783   2.093
53721SOL    HW263061  11.042   0.840   2.016
53722SOL     OW63062   0.490  10.506   0.576
53722SOL    HW163063   0.529  10.553   0.650
53722SOL    HW263064   0.532  10.544   0.499
53723SOL     OW63065   6.607  13.759   6.684
53723SOL    HW163066   6.567  13.846   6.677
53723SOL    HW263067   6.687  13.765   6.631
53724SOL     OW63068  14.149  14.582  12.199
53724SOL    HW163069  14.175  14.575  12.107
53724SOL    HW263070  14.070  14.635  12.198
53725SOL     OW63071  12.811   4.641   6.605
53725SOL    HW163072  12.786   4.584   6.533
53725SOL    HW263073  12.889   4.600   6.643
53726SOL     OW63074  12.190   7.134   0.111
53726SOL    HW163075  12.107   7.111   0.069
53726SOL    HW263076  12.256   7.092   0.056
53727SOL     OW63077   0.534   1.659  12.698
53727SOL    HW163078   0.595   1.686  12.766
53727SOL    HW263079   0.588   1.651  12.619
53728SOL     OW63080   9.970   3.407   1.218
53728SOL    HW163081  10.006   3.341   1.278
53728SOL    HW263082   9.913   3.357   1.160
53729SOL     OW63083   1.162  13.454   7.033
53729SOL    HW163084   1.141  13.434   7.125
53729SOL    HW263085   1.122  13.540   7.018
53730SOL     OW63086   1.707  13.546  11.606
53730SOL    HW163087   1.768  13.572  11.537
53730SOL    HW263088   1.748  13.575  11.687
53731SOL     OW63089  10.765  10.297  11.644
53731SOL    HW163090  10.743  10.228  11.582
53731SOL    HW263091  10.850  10.271  11.680
53732SOL     OW63092   6.009   9.878   1.806
53732SOL    HW163093   5.972   9.895   1.892
53732SOL    HW263094   5.960   9.936   1.747
53733SOL     OW63095   5.310  11.081   8.298
53733SOL    HW163096   5.232  11.105   8.248
53733SOL    HW263097   5.279  11.074   8.388
53734SOL     OW63098   4.732  12.026  14.792
53734SOL    HW163099   4.810  11.992  14.835
53734SOL    HW263100   4.660  11.974  14.828
53735SOL     OW63101   9.790  12.858   4.538
53735SOL    HW163102   9.772  12.854   4.632
53735SOL    HW263103   9.730  12.795   4.499
53736SOL     OW63104   6.895  13.721  12.992
53736SOL    HW163105   6.866  13.665  12.919
53736SOL    HW263106   6.898  13.662  13.067
53737SOL     OW63107   9.514   3.964   5.382
53737SOL    HW163108   9.482   3.902   5.316
53737SOL    HW263109   9.603   3.932   5.401
53738SOL     OW63110   6.098  11.686   2.469
53738SOL    HW163111   6.063  11.766   2.430
53738SOL    HW263112   6.020  11.637   2.496
53739SOL     OW63113   4.747   3.992   1.410
53739SOL    HW163114   4.825   4.046   1.400
53739SOL    HW263115   4.760   3.919   1.349
53740SOL     OW63116   0.316   2.699   3.206
53740SOL    HW163117   0.248   2.698   3.274
53740SOL    HW263118   0.291   2.629   3.146
53741SOL     OW63119  11.529  10.993   2.909
53741SOL    HW163120  11.506  10.956   2.995
53741SOL    HW263121  11.588  11.065   2.930
53742SOL     OW63122   6.999   2.185  12.355
53742SOL    HW163123   6.973   2.224  12.439
53742SOL    HW263124   7.037   2.258  12.306
53743SOL     OW63125  14.874   1.351  13.743
53743SOL    HW163126   0.008   1.310  13.828
53743SOL    HW263127  14.853   1.442  13.764
53744SOL     OW63128  12.269  13.593   3.963
53744SOL    HW163129  12.207  13.648   3.916
53744SOL    HW263130  12.252  13.612   4.056
53745SOL     OW63131   0.969   2.458   7.812
53745SOL    HW163132   0.936   2.529   7.867
53745SOL    HW263133   1.064   2.461   7.824
53746SOL     OW63134   1.810  13.641  11.326
53746SOL    HW163135   1.789  13.624  11.235
53746SOL    HW263136   1.900  13.675  11.324
53747SOL     OW63137  11.568   9.292   2.024
53747SOL    HW163138  11.601   9.325   1.941
53747SOL    HW263139  11.477   9.269   2.007
53748SOL     OW63140   9.365   5.509   9.529
53748SOL    HW163141   9.280   5.541   9.500
53748SOL    HW263142   9.397   5.455   9.456
53749SOL     OW63143  13.848   8.599   2.718
53749SOL    HW163144  13.843   8.565   2.629
53749SOL    HW263145  13.918   8.664   2.715
53750SOL     OW63146  14.822   5.825   6.988
53750SOL    HW163147  14.748   5.777   6.950
53750SOL    HW263148   0.014   5.802   6.932
53751SOL     OW63149   8.017  10.917  11.315
53751SOL    HW163150   7.984  10.925  11.405
53751SOL    HW263151   8.028  10.823  11.302
53752SOL     OW63152   6.696   8.931   1.694
53752SOL    HW163153   6.776   8.982   1.705
53752SOL    HW263154   6.712   8.851   1.743
53753SOL     OW63155  14.347   6.505   8.794
53753SOL    HW163156  14.354   6.593   8.756
53753SOL    HW263157  14.434   6.489   8.831
53754SOL     OW63158   6.965   4.549  12.535
53754SOL    HW163159   6.957   4.482  12.604
53754SOL    HW263160   7.059   4.554  12.517
53755SOL     OW63161   3.564   2.458   9.252
53755SOL    HW163162   3.556   2.364   9.233
53755SOL    HW263163   3.621   2.491   9.183
53756SOL     OW63164  11.228   9.491   7.336
53756SOL    HW163165  11.235   9.550   7.261
53756SOL    HW263166  11.156   9.431   7.313
53757SOL     OW63167   4.124   5.387  11.096
53757SOL    HW163168   4.081   5.310  11.059
53757SOL    HW263169   4.185   5.415  11.027
53758SOL     OW63170   5.520   7.108   4.220
53758SOL    HW163171   5.517   7.126   4.126
53758SOL    HW263172   5.524   7.013   4.226
53759SOL     OW63173   0.514  12.537   1.474
53759SOL    HW163174   0.563  12.616   1.451
53759SOL    HW263175   0.437  12.569   1.522
53760SOL     OW63176  11.957   7.266  11.376
53760SOL    HW163177  11.974   7.178  11.342
53760SOL    HW263178  11.915   7.312  11.304
53761SOL     OW63179   7.415   3.399  10.748
53761SOL    HW163180   7.421   3.475  10.806
53761SOL    HW263181   7.421   3.437  10.660
53762SOL     OW63182   3.953   2.900   2.877
53762SOL    HW163183   4.016   2.877   2.808
53762SOL    HW263184   3.941   2.995   2.868
53763SOL     OW63185   4.976   5.930   8.036
53763SOL    HW163186   5.013   5.901   7.953
53763SOL    HW263187   5.051   5.953   8.090
53764SOL     OW63188   6.669  14.298  12.542
53764SOL    HW163189   6.676  14.208  12.571
53764SOL    HW263190   6.723  14.348  12.603
53765SOL     OW63191  11.663   0.787  10.057
53765SOL    HW163192  11.567   0.791  10.056
53765SOL    HW263193  11.688   0.848  10.127
53766SOL     OW63194  10.264   1.667   5.023
53766SOL    HW163195  10.300   1.742   4.977
53766SOL    HW263196  10.310   1.592   4.987
53767SOL     OW63197   6.505  13.049   8.112
53767SOL    HW163198   6.536  13.137   8.135
53767SOL    HW263199   6.530  13.039   8.020
53768SOL     OW63200   5.567   4.291   1.363
53768SOL    HW163201   5.624   4.367   1.348
53768SOL    HW263202   5.591   4.261   1.451
53769SOL     OW63203   5.681  10.772  13.538
53769SOL    HW163204   5.667  10.721  13.618
53769SOL    HW263205   5.685  10.863  13.569
53770SOL     OW63206  10.243   1.902   4.877
53770SOL    HW163207  10.218   1.916   4.968
53770SOL    HW263208  10.190   1.963   4.827
53771SOL     OW63209  11.873   7.587   9.913
53771SOL    HW163210  11.963   7.609   9.936
53771SOL    HW263211  11.831   7.672   9.900
53772SOL     OW63212  12.054   6.235   1.765
53772SOL    HW163213  12.121   6.299   1.741
53772SOL    HW263214  11.988   6.242   1.695
53773SOL     OW63215  13.952  13.684   0.417
53773SOL    HW163216  13.907  13.602   0.400
53773SOL    HW263217  13.940  13.736   0.337
53774SOL     OW63218  10.372   5.681   5.818
53774SOL    HW163219  10.319   5.750   5.780
53774SOL    HW263220  10.325   5.655   5.897
53775SOL     OW63221  10.569   2.000   7.007
53775SOL    HW163222  10.559   1.906   7.021
53775SOL    HW263223  10.481   2.031   6.984
53776SOL     OW63224   1.528   6.321   8.488
53776SOL    HW163225   1.574   6.402   8.466
53776SOL    HW263226   1.507   6.281   8.403
53777SOL     OW63227   2.182   1.929  13.679
53777SOL    HW163228   2.185   1.925  13.583
53777SOL    HW263229   2.257   1.984  13.703
53778SOL     OW63230   2.083  11.495   2.099
53778SOL    HW163231   2.053  11.421   2.153
53778SOL    HW263232   2.095  11.566   2.162
53779SOL     OW63233   7.075   3.290   1.285
53779SOL    HW163234   7.160   3.247   1.291
53779SOL    HW263235   7.032   3.248   1.210
53780SOL     OW63236  13.752  13.228  12.448
53780SOL    HW163237  13.711  13.227  12.534
53780SOL    HW263238  13.767  13.320  12.429
53781SOL     OW63239  11.028   2.220  10.117
53781SOL    HW163240  10.982   2.263  10.189
53781SOL    HW263241  10.966   2.221  10.044
53782SOL     OW63242   8.632  10.604   1.408
53782SOL    HW163243   8.619  10.684   1.459
53782SOL    HW263244   8.555  10.598   1.352
53783SOL     OW63245  13.391   8.454   3.326
53783SOL    HW163246  13.460   8.443   3.260
53783SOL    HW263247  13.335   8.523   3.290
53784SOL     OW63248  11.742   5.822  12.136
53784SOL    HW163249  11.788   5.898  12.102
53784SOL    HW263250  11.658   5.857  12.166
53785SOL     OW63251   4.053   8.116  14.257
53785SOL    HW163252   4.048   8.072  14.173
53785SOL    HW263253   3.964   8.111  14.292
53786SOL     OW63254  10.969   2.259   6.720
53786SOL    HW163255  11.052   2.265   6.673
53786SOL    HW263256  10.993   2.242   6.811
53787SOL     OW63257  12.319   3.897   3.476
53787SOL    HW163258  12.336   3.808   3.445
53787SOL    HW263259  12.331   3.892   3.571
53788SOL     OW63260   4.794  10.887   0.358
53788SOL    HW163261   4.785  10.832   0.435
53788SOL    HW263262   4.758  10.972   0.384
53789SOL     OW63263   2.191  13.869   8.119
53789SOL    HW163264   2.271  13.910   8.087
53789SOL    HW263265   2.139  13.942   8.154
53790SOL     OW63266   4.316  12.629   2.233
53790SOL    HW163267   4.307  12.653   2.326
53790SOL    HW263268   4.373  12.696   2.197
53791SOL     OW63269  14.143  14.347   7.213
53791SOL    HW163270  14.138  14.365   7.307
53791SOL    HW263271  14.091  14.417   7.172
53792SOL     OW63272  11.038  11.209   1.661
53792SOL    HW163273  11.059  11.148   1.732
53792SOL    HW263274  11.095  11.284   1.677
53793SOL     OW63275  12.789   9.230  14.470
53793SOL    HW163276  12.729   9.163  14.435
53793SOL    HW263277  12.860   9.233  14.406
53794SOL     OW63278  11.451   0.165   2.412
53794SOL    HW163279  11.410   0.224   2.349
53794SOL    HW263280  11.407   0.081   2.399
53795SOL     OW63281   1.107  11.849  10.814
53795SOL    HW163282   1.196  11.855  10.849
53795SOL    HW263283   1.110  11.774  10.755
53796SOL     OW63284   4.724   3.406   4.648
53796SOL    HW163285   4.709   3.499   4.666
53796SOL    HW263286   4.653   3.361   4.693
53797SOL     OW63287   6.173   6.757   4.190
53797SOL    HW163288   6.209   6.820   4.251
53797SOL    HW263289   6.250   6.713   4.152
53798SOL     OW63290   3.980  14.017   5.999
53798SOL    HW163291   3.916  14.087   6.003
53798SOL    HW263292   3.948  13.951   6.060
53799SOL     OW63293  11.621   6.979   9.827
53799SOL    HW163294  11.547   6.945   9.777
53799SOL    HW263295  11.634   6.915   9.897
53800SOL     OW63296   8.781  12.822  10.567
53800SOL    HW163297   8.715  12.890  10.581
53800SOL    HW263298   8.767  12.793  10.477
53801SOL     OW63299   7.400  10.042   5.354
53801SOL    HW163300   7.472   9.995   5.398
53801SOL    HW263301   7.411  10.133   5.381
53802SOL     OW63302   9.786   5.336   7.963
53802SOL    HW163303   9.693   5.319   7.976
53802SOL    HW263304   9.823   5.333   8.051
53803SOL     OW63305  11.724   2.957   7.389
53803SOL    HW163306  11.778   2.931   7.464
53803SOL    HW263307  11.740   2.889   7.324
53804SOL     OW63308   5.700   9.889  11.910
53804SOL    HW163309   5.788   9.854  11.898
53804SOL    HW263310   5.647   9.813  11.934
53805SOL     OW63311   0.999   4.046   0.643
53805SOL    HW163312   1.093   4.048   0.657
53805SOL    HW263313   0.971   3.961   0.678
53806SOL     OW63314  11.427  14.116   5.680
53806SOL    HW163315  11.517  14.129   5.652
53806SOL    HW263316  11.427  14.032   5.725
53807SOL     OW63317   0.312   0.530  13.453
53807SOL    HW163318   0.325   0.623  13.468
53807SOL    HW263319   0.248   0.504  13.520
53808SOL     OW63320   5.282  13.902   1.220
53808SOL    HW163321   5.200  13.856   1.208
53808SOL    HW263322   5.350  13.834   1.214
53809SOL     OW63323   3.951   3.336  11.421
53809SOL    HW163324   3.870   3.387  11.411
53809SOL    HW263325   4.014   3.399  11.456
53810SOL     OW63326   2.202   7.294  10.076
53810SOL    HW163327   2.280   7.305  10.021
53810SOL    HW263328   2.154   7.222  10.036
53811SOL     OW63329   1.342   9.374   2.213
53811SOL    HW163330   1.307   9.444   2.158
53811SOL    HW263331   1.419   9.413   2.256
53812SOL     OW63332  10.796   1.225   7.168
53812SOL    HW163333  10.830   1.302   7.214
53812SOL    HW263334  10.866   1.160   7.174
53813SOL     OW63335   1.510  12.943   6.757
53813SOL    HW163336   1.466  12.959   6.840
53813SOL    HW263337   1.456  12.988   6.692
53814SOL     OW63338  12.986   9.493  12.356
53814SOL    HW163339  12.977   9.538  12.273
53814SOL    HW263340  12.973   9.561  12.422
53815SOL     OW63341   2.895   5.381  14.334
53815SOL    HW163342   2.820   5.334  14.369
53815SOL    HW263343   2.945   5.314  14.286
53816SOL     OW63344  10.941   5.620   9.332
53816SOL    HW163345  10.864   5.563   9.329
53816SOL    HW263346  10.959   5.640   9.240
53817SOL     OW63347   4.183   6.568   2.827
53817SOL    HW163348   4.200   6.662   2.833
53817SOL    HW263349   4.110   6.554   2.888
53818SOL     OW63350  10.102  13.243  10.450
53818SOL    HW163351  10.074  13.175  10.390
53818SOL    HW263352  10.101  13.201  10.537
53819SOL     OW63353   7.177   5.903   3.528
53819SOL    HW163354   7.220   5.953   3.597
53819SOL    HW263355   7.121   5.966   3.482
53820SOL     OW63356   5.540   6.861  10.540
53820SOL    HW163357   5.503   6.795  10.481
53820SOL    HW263358   5.631   6.870  10.512
53821SOL     OW63359  13.059   6.442   8.916
53821SOL    HW163360  12.996   6.440   8.988
53821SOL    HW263361  13.006   6.424   8.838
53822SOL     OW63362   2.706   7.294  12.825
53822SOL    HW163363   2.699   7.229  12.755
53822SOL    HW263364   2.775   7.261  12.882
53823SOL     OW63365   0.121  12.685  10.654
53823SOL    HW163366   0.126  12.648  10.566
53823SOL    HW263367   0.203  12.661  10.695
53824SOL     OW63368  14.410  14.294   1.920
53824SOL    HW163369  14.437  14.347   1.995
53824SOL    HW263370  14.490  14.253   1.890
53825SOL     OW63371  13.863   8.467  14.786
53825SOL    HW163372  13.776   8.502  14.766
53825SOL    HW263373  13.905   8.458  14.700
53826SOL     OW63374   5.042   5.062   3.912
53826SOL    HW163375   5.022   5.097   3.998
53826SOL    HW263376   4.997   4.978   3.909
53827SOL     OW63377   1.526  13.607   3.198
53827SOL    HW163378   1.541  13.525   3.152
53827SOL    HW263379   1.433  13.626   3.183
53828SOL     OW63380   5.652  12.010   3.036
53828SOL    HW163381   5.696  11.931   3.069
53828SOL    HW263382   5.692  12.025   2.950
53829SOL     OW63383   7.005  11.122   5.727
53829SOL    HW163384   7.077  11.073   5.686
53829SOL    HW263385   6.942  11.054   5.752
53830SOL     OW63386   5.595   2.657   4.033
53830SOL    HW163387   5.564   2.683   3.947
53830SOL    HW263388   5.689   2.677   4.033
53831SOL     OW63389  11.914   5.264   3.477
53831SOL    HW163390  11.860   5.185   3.478
53831SOL    HW263391  11.966   5.259   3.558
53832SOL     OW63392   6.839   7.423   2.096
53832SOL    HW163393   6.813   7.515   2.105
53832SOL    HW263394   6.759   7.374   2.110
53833SOL     OW63395   1.668   0.190  14.740
53833SOL    HW163396   1.660   0.109  14.690
53833SOL    HW263397   1.607   0.251  14.697
53834SOL     OW63398  13.715  12.725   9.039
53834SOL    HW163399  13.645  12.660   9.048
53834SOL    HW263400  13.688  12.797   9.096
53835SOL     OW63401   0.231   2.970  11.534
53835SOL    HW163402   0.279   2.989  11.615
53835SOL    HW263403   0.205   2.878  11.542
53836SOL     OW63404   8.415   0.473  11.245
53836SOL    HW163405   8.478   0.477  11.172
53836SOL    HW263406   8.342   0.528  11.217
53837SOL     OW63407   7.430  12.207  13.767
53837SOL    HW163408   7.423  12.292  13.724
53837SOL    HW263409   7.469  12.225  13.852
53838SOL     OW63410   3.327   9.937  11.659
53838SOL    HW163411   3.245   9.906  11.622
53838SOL    HW263412   3.303  10.015  11.709
53839SOL     OW63413  13.992   5.923  10.508
53839SOL    HW163414  14.006   5.989  10.576
53839SOL    HW263415  14.074   5.923  10.458
53840SOL     OW63416  14.674  10.562   2.605
53840SOL    HW163417  14.721  10.639   2.637
53840SOL    HW263418  14.734  10.520   2.543
53841SOL     OW63419   5.508   2.520   5.665
53841SOL    HW163420   5.466   2.566   5.738
53841SOL    HW263421   5.460   2.548   5.588
53842SOL     OW63422   2.060  12.872  14.164
53842SOL    HW163423   2.007  12.809  14.215
53842SOL    HW263424   2.139  12.823  14.140
53843SOL     OW63425  13.775   0.251   0.926
53843SOL    HW163426  13.769   0.265   1.020
53843SOL    HW263427  13.862   0.213   0.913
53844SOL     OW63428  11.208  14.764   2.949
53844SOL    HW163429  11.235  14.806   2.868
53844SOL    HW263430  11.282  14.708   2.973
53845SOL     OW63431   7.008   6.908  10.806
53845SOL    HW163432   7.070   6.866  10.865
53845SOL    HW263433   7.056   6.919  10.724
53846SOL     OW63434   4.475   8.852   5.337
53846SOL    HW163435   4.534   8.906   5.389
53846SOL    HW263436   4.390   8.860   5.381
53847SOL     OW63437  12.360   2.556  13.040
53847SOL    HW163438  12.357   2.633  13.097
53847SOL    HW263439  12.450   2.555  13.006
53848SOL     OW63440   6.578   1.312   2.075
53848SOL    HW163441   6.665   1.353   2.074
53848SOL    HW263442   6.524   1.370   2.127
53849SOL     OW63443   2.451   2.196  12.090
53849SOL    HW163444   2.487   2.237  12.169
53849SOL    HW263445   2.492   2.243  12.018
53850SOL     OW63446   8.735   6.474   9.467
53850SOL    HW163447   8.796   6.507   9.533
53850SOL    HW263448   8.653   6.520   9.484
53851SOL     OW63449  14.629   1.048   4.906
53851SOL    HW163450  14.622   0.956   4.880
53851SOL    HW263451  14.662   1.093   4.828
53852SOL     OW63452   7.019  14.235   5.000
53852SOL    HW163453   6.938  14.197   5.034
53852SOL    HW263454   7.037  14.185   4.920
53853SOL     OW63455   8.028   8.894   6.743
53853SOL    HW163456   8.031   8.866   6.834
53853SOL    HW263457   8.027   8.813   6.693
53854SOL     OW63458   5.505   7.475  14.237
53854SOL    HW163459   5.557   7.510  14.164
53854SOL    HW263460   5.436   7.425  14.194
53855SOL     OW63461   4.536  11.948   3.765
53855SOL    HW163462   4.532  12.044   3.760
53855SOL    HW263463   4.468  11.925   3.828
53856SOL     OW63464   5.429   4.395   9.729
53856SOL    HW163465   5.423   4.409   9.634
53856SOL    HW263466   5.384   4.312   9.743
53857SOL     OW63467  11.854   7.793   4.073
53857SOL    HW163468  11.926   7.819   4.016
53857SOL    HW263469  11.796   7.869   4.075
53858SOL     OW63470   9.734  13.798   1.963
53858SOL    HW163471   9.685  13.871   1.923
53858SOL    HW263472   9.731  13.816   2.057
53859SOL     OW63473  12.726   3.325  14.620
53859SOL    HW163474  12.716   3.280  14.704
53859SOL    HW263475  12.669   3.402  14.627
53860SOL     OW63476  10.068  14.033   3.711
53860SOL    HW163477  10.149  14.080   3.729
53860SOL    HW263478  10.089  13.977   3.636
53861SOL     OW63479  14.120   1.294  14.535
53861SOL    HW163480  14.051   1.242  14.494
53861SOL    HW263481  14.080   1.328  14.615
53862SOL     OW63482   7.302   9.896   0.257
53862SOL    HW163483   7.240   9.967   0.272
53862SOL    HW263484   7.248   9.817   0.252
53863SOL     OW63485   9.642  14.667   3.813
53863SOL    HW163486   9.725  14.670   3.859
53863SOL    HW263487   9.663  14.633   3.726
53864SOL     OW63488   5.331   9.741   9.763
53864SOL    HW163489   5.274   9.813   9.736
53864SOL    HW263490   5.362   9.703   9.680
53865SOL     OW63491   9.862   0.172   4.167
53865SOL    HW163492   9.873   0.265   4.145
53865SOL    HW263493   9.874   0.127   4.083
53866SOL     OW63494   9.209   5.724  12.381
53866SOL    HW163495   9.259   5.645  12.403
53866SOL    HW263496   9.230   5.740  12.289
53867SOL     OW63497  12.642  13.390  13.968
53867SOL    HW163498  12.704  13.338  14.019
53867SOL    HW263499  12.558  13.345  13.979
53868SOL     OW63500  11.126   7.650   0.359
53868SOL    HW163501  11.210   7.679   0.323
53868SOL    HW263502  11.073   7.629   0.282
53869SOL     OW63503  10.305   7.426   5.622
53869SOL    HW163504  10.381   7.403   5.674
53869SOL    HW263505  10.320   7.516   5.595
53870SOL     OW63506   4.991   0.277   0.107
53870SOL    HW163507   5.066   0.243   0.156
53870SOL    HW263508   4.951   0.200   0.067
53871SOL     OW63509   1.297   8.459   4.157
53871SOL    HW163510   1.321   8.468   4.065
53871SOL    HW263511   1.381   8.458   4.204
53872SOL     OW63512   5.651  12.269   1.431
53872SOL    HW163513   5.692  12.352   1.407
53872SOL    HW263514   5.725  12.210   1.449
53873SOL     OW63515   6.176   8.861   6.434
53873SOL    HW163516   6.204   8.791   6.375
53873SOL    HW263517   6.084   8.873   6.415
53874SOL     OW63518   9.578  11.663   4.735
53874SOL    HW163519   9.600  11.665   4.828
53874SOL    HW263520   9.644  11.720   4.694
53875SOL     OW63521  12.321  11.743   4.334
53875SOL    HW163522  12.366  11.731   4.251
53875SOL    HW263523  12.231  11.714   4.317
53876SOL     OW63524  11.286   2.712   0.316
53876SOL    HW163525  11.236   2.777   0.267
53876SOL    HW263526  11.220   2.658   0.360
53877SOL     OW63527   2.048  13.698  12.766
53877SOL    HW163528   2.133  13.689  12.809
53877SOL    HW263529   1.998  13.755  12.825
53878SOL     OW63530   4.807   4.103   9.851
53878SOL    HW163531   4.875   4.154   9.894
53878SOL    HW263532   4.815   4.126   9.758
53879SOL     OW63533  11.065   3.438   8.179
53879SOL    HW163534  11.008   3.431   8.255
53879SOL    HW263535  11.012   3.483   8.113
53880SOL     OW63536  13.679   3.686   5.766
53880SOL    HW163537  13.747   3.733   5.815
53880SOL    HW263538  13.649   3.748   5.700
53881SOL     OW63539  14.344   3.117   5.784
53881SOL    HW163540  14.317   3.193   5.835
53881SOL    HW263541  14.408   3.151   5.722
53882SOL     OW63542   8.764   5.532  13.830
53882SOL    HW163543   8.739   5.515  13.921
53882SOL    HW263544   8.709   5.473  13.778
53883SOL     OW63545   8.204   3.494   1.899
53883SOL    HW163546   8.238   3.410   1.866
53883SOL    HW263547   8.146   3.470   1.970
53884SOL     OW63548   7.484   1.162  12.167
53884SOL    HW163549   7.471   1.098  12.097
53884SOL    HW263550   7.474   1.247  12.125
53885SOL     OW63551  14.326   0.412   8.486
53885SOL    HW163552  14.299   0.441   8.399
53885SOL    HW263553  14.400   0.468   8.508
53886SOL     OW63554  14.845   5.097   9.235
53886SOL    HW163555  14.770   5.148   9.206
53886SOL    HW263556   0.010   5.155   9.294
53887SOL     OW63557   2.799  14.008   8.149
53887SOL    HW163558   2.869  13.955   8.188
53887SOL    HW263559   2.734  14.017   8.219
53888SOL     OW63560   0.547   3.778   4.105
53888SOL    HW163561   0.529   3.795   4.012
53888SOL    HW263562   0.637   3.746   4.107
53889SOL     OW63563  12.378   8.009   4.350
53889SOL    HW163564  12.303   7.950   4.361
53889SOL    HW263565  12.423   7.977   4.272
53890SOL     OW63566   1.863   5.911  11.957
53890SOL    HW163567   1.935   5.880  12.011
53890SOL    HW263568   1.873   5.863  11.874
53891SOL     OW63569   8.842   2.893   8.399
53891SOL    HW163570   8.925   2.858   8.367
53891SOL    HW263571   8.867   2.959   8.464
53892SOL     OW63572  12.168  14.721   6.715
53892SOL    HW163573  12.262  14.703   6.707
53892SOL    HW263574  12.155  14.803   6.669
53893SOL     OW63575   9.634  11.149   8.297
53893SOL    HW163576   9.636  11.165   8.391
53893SOL    HW263577   9.722  11.117   8.276
53894SOL     OW63578  11.218  10.743  13.087
53894SOL    HW163579  11.269  10.665  13.064
53894SOL    HW263580  11.195  10.782  13.002
53895SOL     OW63581   7.574   0.535   5.188
53895SOL    HW163582   7.606   0.522   5.099
53895SOL    HW263583   7.634   0.599   5.226
53896SOL     OW63584   8.469   0.765   1.480
53896SOL    HW163585   8.476   0.856   1.450
53896SOL    HW263586   8.464   0.772   1.576
53897SOL     OW63587   7.538   8.564   2.244
53897SOL    HW163588   7.503   8.646   2.277
53897SOL    HW263589   7.464   8.522   2.200
53898SOL     OW63590   0.064   8.505  12.606
53898SOL    HW163591   0.093   8.469  12.689
53898SOL    HW263592   0.145   8.534  12.563
53899SOL     OW63593  12.745   7.546   4.022
53899SOL    HW163594  12.650   7.547   4.031
53899SOL    HW263595  12.761   7.520   3.931
53900SOL     OW63596   4.595  12.237  13.351
53900SOL    HW163597   4.608  12.269  13.440
53900SOL    HW263598   4.680  12.202  13.325
53901SOL     OW63599  12.868   6.371   6.990
53901SOL    HW163600  12.794   6.383   7.050
53901SOL    HW263601  12.860   6.443   6.927
53902SOL     OW63602  13.090   0.599   6.811
53902SOL    HW163603  13.070   0.512   6.845
53902SOL    HW263604  13.075   0.658   6.886
53903SOL     OW63605   0.762  14.220  11.930
53903SOL    HW163606   0.801  14.195  11.846
53903SOL    HW263607   0.837  14.231  11.989
53904SOL     OW63608   6.553  10.574   4.955
53904SOL    HW163609   6.615  10.624   4.901
53904SOL    HW263610   6.485  10.637   4.978
53905SOL     OW63611   8.297   7.022  12.427
53905SOL    HW163612   8.317   7.023  12.334
53905SOL    HW263613   8.215   6.973  12.433
53906SOL     OW63614  10.573  13.540  14.672
53906SOL    HW163615  10.612  13.456  14.648
53906SOL    HW263616  10.603  13.601  14.603
53907SOL     OW63617  11.841   4.513   9.840
53907SOL    HW163618  11.757   4.467   9.848
53907SOL    HW263619  11.829   4.595   9.888
53908SOL     OW63620   6.326   2.836   9.913
53908SOL    HW163621   6.367   2.923   9.920
53908SOL    HW263622   6.244   2.844   9.962
53909SOL     OW63623  13.111  10.650  11.793
53909SOL    HW163624  13.174  10.603  11.848
53909SOL    HW263625  13.109  10.739  11.828
53910SOL     OW63626   7.777   4.527   1.334
53910SOL    HW163627   7.862   4.564   1.360
53910SOL    HW263628   7.727   4.603   1.301
53911SOL     OW63629   7.119   0.901  10.210
53911SOL    HW163630   7.094   0.812  10.233
53911SOL    HW263631   7.128   0.946  10.294
53912SOL     OW63632   2.242   8.725   2.051
53912SOL    HW163633   2.164   8.740   2.104
53912SOL    HW263634   2.247   8.802   1.994
53913SOL     OW63635   6.666   5.892   4.511
53913SOL    HW163636   6.683   5.867   4.420
53913SOL    HW263637   6.750   5.922   4.544
53914SOL     OW63638  13.431   1.041  10.369
53914SOL    HW163639  13.491   1.077  10.434
53914SOL    HW263640  13.480   0.969  10.328
53915SOL     OW63641  12.367  14.520   3.940
53915SOL    HW163642  12.369  14.539   3.846
53915SOL    HW263643  12.389  14.427   3.946
53916SOL     OW63644  10.325   2.146   2.263
53916SOL    HW163645  10.274   2.224   2.281
53916SOL    HW263646  10.412   2.166   2.297
53917SOL     OW63647   4.686   0.428   8.806
53917SOL    HW163648   4.632   0.408   8.882
53917SOL    HW263649   4.736   0.348   8.791
53918SOL     OW63650   9.881   6.304  11.534
53918SOL    HW163651   9.834   6.227  11.564
53918SOL    HW263652   9.886   6.293  11.439
53919SOL     OW63653  13.822  12.021   3.739
53919SOL    HW163654  13.855  12.109   3.750
53919SOL    HW263655  13.896  11.964   3.759
53920SOL     OW63656   4.022  12.998   5.694
53920SOL    HW163657   4.076  12.947   5.634
53920SOL    HW263658   3.996  13.075   5.643
53921SOL     OW63659   3.324  12.581   6.220
53921SOL    HW163660   3.323  12.559   6.126
53921SOL    HW263661   3.399  12.641   6.229
53922SOL     OW63662   4.470   4.416   6.961
53922SOL    HW163663   4.489   4.508   6.941
53922SOL    HW263664   4.451   4.415   7.055
53923SOL     OW63665   6.801   6.348   8.401
53923SOL    HW163666   6.822   6.438   8.426
53923SOL    HW263667   6.816   6.297   8.481
53924SOL     OW63668   8.313  14.421  12.516
53924SOL    HW163669   8.220  14.406  12.528
53924SOL    HW263670   8.321  14.456  12.427
53925SOL     OW63671  13.105   1.384  14.236
53925SOL    HW163672  13.163   1.373  14.161
53925SOL    HW263673  13.088   1.294  14.266
53926SOL     OW63674   1.390   0.423  11.514
53926SOL    HW163675   1.400   0.330  11.495
53926SOL    HW263676   1.373   0.427  11.608
53927SOL     OW63677   2.123  13.939   1.851
53927SOL    HW163678   2.129  13.935   1.756
53927SOL    HW263679   2.030  13.951   1.869
53928SOL     OW63680   0.481   9.338   1.826
53928SOL    HW163681   0.536   9.400   1.778
53928SOL    HW263682   0.478   9.373   1.916
53929SOL     OW63683   5.688   2.841  12.481
53929SOL    HW163684   5.706   2.935  12.488
53929SOL    HW263685   5.593   2.836  12.469
53930SOL     OW63686  14.387   0.417   6.333
53930SOL    HW163687  14.407   0.324   6.328
53930SOL    HW263688  14.428   0.446   6.415
53931SOL     OW63689   3.257   2.622  12.569
53931SOL    HW163690   3.338   2.671  12.573
53931SOL    HW263691   3.253   2.576  12.653
53932SOL     OW63692   7.052  12.597   6.014
53932SOL    HW163693   7.008  12.540   5.951
53932SOL    HW263694   7.115  12.539   6.058
53933SOL     OW63695   4.195   3.348   8.885
53933SOL    HW163696   4.220   3.296   8.808
53933SOL    HW263697   4.230   3.298   8.959
53934SOL     OW63698  13.172   0.335   0.418
53934SOL    HW163699  13.259   0.315   0.453
53934SOL    HW263700  13.112   0.291   0.478
53935SOL     OW63701   0.138   8.721   3.002
53935SOL    HW163702   0.206   8.763   3.055
53935SOL    HW263703   0.188   8.669   2.938
53936SOL     OW63704   2.714   5.468   4.700
53936SOL    HW163705   2.708   5.375   4.678
53936SOL    HW263706   2.788   5.473   4.762
53937SOL     OW63707  11.614  10.869  11.268
53937SOL    HW163708  11.559  10.861  11.190
53937SOL    HW263709  11.667  10.789  11.268
53938SOL     OW63710   5.560  10.910  12.750
53938SOL    HW163711   5.579  10.833  12.697
53938SOL    HW263712   5.578  10.984  12.692
53939SOL     OW63713  11.439   0.342  14.295
53939SOL    HW163714  11.399   0.429  14.289
53939SOL    HW263715  11.523   0.352  14.249
53940SOL     OW63716   2.422   5.689  12.848
53940SOL    HW163717   2.500   5.680  12.902
53940SOL    HW263718   2.411   5.784  12.839
53941SOL     OW63719   1.137   8.624  10.562
53941SOL    HW163720   1.152   8.699  10.505
53941SOL    HW263721   1.133   8.549  10.503
53942SOL     OW63722  13.153  10.996   9.900
53942SOL    HW163723  13.215  11.065   9.875
53942SOL    HW263724  13.074  11.043   9.926
53943SOL     OW63725  13.183   9.481  11.417
53943SOL    HW163726  13.256   9.440  11.370
53943SOL    HW263727  13.165   9.421  11.490
53944SOL     OW63728   8.343   5.306   3.277
53944SOL    HW163729   8.283   5.354   3.220
53944SOL    HW263730   8.299   5.223   3.293
53945SOL     OW63731   9.321  10.920   3.973
53945SOL    HW163732   9.229  10.896   3.978
53945SOL    HW263733   9.323  11.004   3.927
53946SOL     OW63734   6.441   8.778   5.859
53946SOL    HW163735   6.372   8.725   5.900
53946SOL    HW263736   6.519   8.723   5.865
53947SOL     OW63737  12.159   9.255  11.526
53947SOL    HW163738  12.212   9.332  11.505
53947SOL    HW263739  12.112   9.237  11.445
53948SOL     OW63740  14.501   2.064  14.405
53948SOL    HW163741  14.423   2.098  14.361
53948SOL    HW263742  14.532   2.137  14.459
53949SOL     OW63743   7.033  12.617  13.698
53949SOL    HW163744   7.081  12.699  13.692
53949SOL    HW263745   7.008  12.596  13.608
53950SOL     OW63746   2.930   0.331  14.042
53950SOL    HW163747   2.844   0.309  14.078
53950SOL    HW263748   2.963   0.248  14.006
53951SOL     OW63749   5.120   3.831   0.577
53951SOL    HW163750   5.105   3.737   0.584
53951SOL    HW263751   5.033   3.870   0.585
53952SOL     OW63752  14.793   3.774  12.512
53952SOL    HW163753   0.002   3.745  12.502
53952SOL    HW263754  14.755   3.712  12.574
53953SOL     OW63755   6.027  11.246   8.989
53953SOL    HW163756   6.050  11.154   9.005
53953SOL    HW263757   5.933  11.250   9.009
53954SOL     OW63758   1.012  13.989   9.268
53954SOL    HW163759   0.945  14.047   9.234
53954SOL    HW263760   0.963  13.918   9.310
53955SOL     OW63761   0.047   0.219  13.736
53955SOL    HW163762   0.111   0.284  13.707
53955SOL    HW263763  14.845   0.264  13.731
53956SOL     OW63764  11.620  13.828   4.517
53956SOL    HW163765  11.617  13.896   4.585
53956SOL    HW263766  11.577  13.753   4.556
53957SOL     OW63767   7.224  11.020  12.150
53957SOL    HW163768   7.168  10.966  12.094
53957SOL    HW263769   7.303  10.967  12.162
53958SOL     OW63770  10.641   3.765  12.546
53958SOL    HW163771  10.705   3.832  12.519
53958SOL    HW263772  10.657   3.753  12.639
53959SOL     OW63773   3.557   0.717   8.369
53959SOL    HW163774   3.626   0.783   8.368
53959SOL    HW263775   3.499   0.744   8.440
53960SOL     OW63776  13.602   7.981  10.191
53960SOL    HW163777  13.676   7.927  10.218
53960SOL    HW263778  13.560   7.932  10.121
53961SOL     OW63779   4.340   8.061   7.842
53961SOL    HW163780   4.430   8.056   7.808
53961SOL    HW263781   4.312   8.150   7.821
53962SOL     OW63782   0.936   6.743   8.322
53962SOL    HW163783   0.910   6.758   8.231
53962SOL    HW263784   0.914   6.824   8.366
53963SOL     OW63785   4.150   6.485   1.585
53963SOL    HW163786   4.095   6.488   1.507
53963SOL    HW263787   4.228   6.536   1.562
53964SOL     OW63788  11.298   9.832   5.700
53964SOL    HW163789  11.306   9.752   5.753
53964SOL    HW263790  11.301   9.903   5.764
53965SOL     OW63791   0.466   9.263  11.461
53965SOL    HW163792   0.425   9.321  11.525
53965SOL    HW263793   0.481   9.181  11.508
53966SOL     OW63794   5.349  12.247   0.248
53966SOL    HW163795   5.357  12.223   0.340
53966SOL    HW263796   5.438  12.266   0.220
53967SOL     OW63797   4.287   9.143   2.375
53967SOL    HW163798   4.291   9.171   2.284
53967SOL    HW263799   4.301   9.048   2.371
53968SOL     OW63800   9.401   3.189   7.448
53968SOL    HW163801   9.369   3.124   7.511
53968SOL    HW263802   9.439   3.258   7.503
53969SOL     OW63803  12.409  12.809   0.075
53969SOL    HW163804  12.425  12.813   0.169
53969SOL    HW263805  12.480  12.754   0.041
53970SOL     OW63806   2.217   4.431  12.853
53970SOL    HW163807   2.147   4.367  12.860
53970SOL    HW263808   2.189   4.504  12.908
53971SOL     OW63809  14.237   0.680   6.093
53971SOL    HW163810  14.256   0.773   6.086
53971SOL    HW263811  14.314   0.636   6.056
53972SOL     OW63812   2.487  12.180   1.041
53972SOL    HW163813   2.567  12.179   0.989
53972SOL    HW263814   2.507  12.236   1.116
53973SOL     OW63815   8.247  14.789   7.809
53973SOL    HW163816   8.314  14.741   7.761
53973SOL    HW263817   8.166  14.773   7.761
53974SOL     OW63818   5.927   0.937  10.145
53974SOL    HW163819   5.959   0.847  10.157
53974SOL    HW263820   5.909   0.944  10.052
53975SOL     OW63821   5.355   7.969   0.255
53975SOL    HW163822   5.340   7.902   0.322
53975SOL    HW263823   5.372   7.920   0.175
53976SOL     OW63824  14.296   9.070  12.908
53976SOL    HW163825  14.234   8.999  12.891
53976SOL    HW263826  14.365   9.058  12.843
53977SOL     OW63827   6.867   9.391  14.468
53977SOL    HW163828   6.891   9.337  14.543
53977SOL    HW263829   6.772   9.385  14.462
53978SOL     OW63830   1.728   4.690  14.506
53978SOL    HW163831   1.655   4.715  14.450
53978SOL    HW263832   1.783   4.768  14.510
53979SOL     OW63833  12.430  12.626   7.796
53979SOL    HW163834  12.351  12.668   7.763
53979SOL    HW263835  12.443  12.550   7.738
53980SOL     OW63836   7.099   9.781  11.933
53980SOL    HW163837   7.171   9.844  11.928
53980SOL    HW263838   7.112   9.736  12.017
53981SOL     OW63839   8.290  12.613  13.118
53981SOL    HW163840   8.312  12.523  13.142
53981SOL    HW263841   8.334  12.627  13.034
53982SOL     OW63842   6.102   4.063   4.359
53982SOL    HW163843   6.144   4.086   4.442
53982SOL    HW263844   6.057   3.980   4.377
53983SOL     OW63845   3.507  12.781   0.125
53983SOL    HW163846   3.584  12.737   0.159
53983SOL    HW263847   3.514  12.771   0.030
53984SOL     OW63848  12.361   7.411  14.813
53984SOL    HW163849  12.381   7.380   0.020
53984SOL    HW263850  12.447   7.417  14.771
53985SOL     OW63851   4.359  10.385   5.900
53985SOL    HW163852   4.414  10.355   5.972
53985SOL    HW263853   4.277  10.410   5.941
53986SOL     OW63854  11.645  12.984  13.828
53986SOL    HW163855  11.671  13.017  13.742
53986SOL    HW263856  11.728  12.960  13.870
53987SOL     OW63857   6.538   5.383   0.435
53987SOL    HW163858   6.459   5.384   0.489
53987SOL    HW263859   6.569   5.292   0.438
53988SOL     OW63860   7.875  13.693   5.294
53988SOL    HW163861   7.907  13.781   5.315
53988SOL    HW263862   7.926  13.667   5.217
53989SOL     OW63863  13.752   7.672  12.804
53989SOL    HW163864  13.759   7.730  12.728
53989SOL    HW263865  13.840   7.673  12.843
53990SOL     OW63866   7.515   8.110   2.961
53990SOL    HW163867   7.473   8.184   3.003
53990SOL    HW263868   7.536   8.050   3.033
53991SOL     OW63869  13.407  11.677   1.497
53991SOL    HW163870  13.383  11.715   1.413
53991SOL    HW263871  13.409  11.751   1.557
53992SOL     OW63872  13.876   4.617   0.799
53992SOL    HW163873  13.810   4.593   0.864
53992SOL    HW263874  13.959   4.602   0.842
53993SOL     OW63875   8.111  11.437   7.534
53993SOL    HW163876   8.156  11.489   7.600
53993SOL    HW263877   8.170  11.364   7.516
53994SOL     OW63878   6.920   1.998   1.811
53994SOL    HW163879   6.953   1.982   1.722
53994SOL    HW263880   6.967   2.076   1.840
53995SOL     OW63881  11.827   8.650   6.091
53995SOL    HW163882  11.854   8.722   6.148
53995SOL    HW263883  11.751   8.684   6.043
53996SOL     OW63884  13.321   6.066   9.375
53996SOL    HW163885  13.226   6.069   9.385
53996SOL    HW263886  13.340   5.974   9.358
53997SOL     OW63887  13.622   3.869   0.332
53997SOL    HW163888  13.538   3.826   0.351
53997SOL    HW263889  13.678   3.799   0.299
53998SOL     OW63890   0.455  14.350  13.756
53998SOL    HW163891   0.504  14.425  13.790
53998SOL    HW263892   0.363  14.376  13.766
53999SOL     OW63893  13.996   3.624   4.570
53999SOL    HW163894  14.082   3.609   4.610
53999SOL    HW263895  13.953   3.686   4.629
54000SOL     OW63896  13.069   2.726  12.243
54000SOL    HW163897  13.090   2.657  12.305
54000SOL    HW263898  13.090   2.689  12.157
54001SOL     OW63899   4.889   0.678   7.632
54001SOL    HW163900   4.889   0.735   7.555
54001SOL    HW263901   4.952   0.718   7.692
54002SOL     OW63902  11.085   0.315   7.900
54002SOL    HW163903  11.157   0.314   7.963
54002SOL    HW263904  11.057   0.406   7.897
54003SOL     OW63905  14.042  14.375  10.522
54003SOL    HW163906  13.952  14.346  10.537
54003SOL    HW263907  14.077  14.391  10.609
54004SOL     OW63908  11.375  14.276  13.609
54004SOL    HW163909  11.360  14.316  13.695
54004SOL    HW263910  11.299  14.219  13.595
54005SOL     OW63911   0.877   7.664   1.290
54005SOL    HW163912   0.902   7.626   1.206
54005SOL    HW263913   0.954   7.650   1.346
54006SOL     OW63914   6.034  12.168   3.456
54006SOL    HW163915   6.068  12.245   3.501
54006SOL    HW263916   6.079  12.094   3.497
54007SOL     OW63917   1.279  14.537   7.023
54007SOL    HW163918   1.349  14.481   7.055
54007SOL    HW263919   1.248  14.494   6.944
54008SOL     OW63920   7.531   9.873   6.262
54008SOL    HW163921   7.545   9.857   6.169
54008SOL    HW263922   7.494   9.790   6.295
54009SOL     OW63923  12.544   8.590   0.726
54009SOL    HW163924  12.485   8.541   0.669
54009SOL    HW263925  12.493   8.665   0.754
54010SOL     OW63926   6.557  14.174   4.887
54010SOL    HW163927   6.580  14.156   4.978
54010SOL    HW263928   6.561  14.088   4.844
54011SOL     OW63929  13.974   9.869  12.776
54011SOL    HW163930  13.940   9.958  12.762
54011SOL    HW263931  13.948   9.820  12.698
54012SOL     OW63932  12.534   2.467   0.636
54012SOL    HW163933  12.462   2.415   0.671
54012SOL    HW263934  12.543   2.439   0.545
54013SOL     OW63935   2.218   8.342  11.546
54013SOL    HW163936   2.201   8.418  11.491
54013SOL    HW263937   2.231   8.270  11.484
54014SOL     OW63938   6.445   3.861   6.182
54014SOL    HW163939   6.388   3.936   6.168
54014SOL    HW263940   6.507   3.864   6.109
54015SOL     OW63941   4.916   2.436   3.357
54015SOL    HW163942   4.873   2.514   3.392
54015SOL    HW263943   4.930   2.455   3.265
54016SOL     OW63944   2.954  11.597  13.006
54016SOL    HW163945   2.863  11.586  13.035
54016SOL    HW263946   2.977  11.685  13.037
54017SOL     OW63947   8.488   0.236   4.211
54017SOL    HW163948   8.477   0.190   4.127
54017SOL    HW263949   8.580   0.263   4.210
54018SOL     OW63950  11.175  10.978   5.675
54018SOL    HW163951  11.203  10.895   5.636
54018SOL    HW263952  11.110  10.953   5.741
54019SOL     OW63953   7.751  13.559   3.310
54019SOL    HW163954   7.689  13.601   3.368
54019SOL    HW263955   7.726  13.589   3.222
54020SOL     OW63956   2.776  10.628   6.559
54020SOL    HW163957   2.681  10.637   6.574
54020SOL    HW263958   2.812  10.613   6.646
54021SOL     OW63959   2.731  12.866   7.103
54021SOL    HW163960   2.750  12.810   7.027
54021SOL    HW263961   2.811  12.918   7.114
54022SOL     OW63962  13.397   0.744  12.658
54022SOL    HW163963  13.354   0.828  12.639
54022SOL    HW263964  13.355   0.681  12.600
54023SOL     OW63965   2.553  10.731  11.811
54023SOL    HW163966   2.570  10.824  11.828
54023SOL    HW263967   2.484  10.731  11.745
54024SOL     OW63968   8.670  10.478   1.763
54024SOL    HW163969   8.596  10.536   1.748
54024SOL    HW263970   8.725  10.526   1.825
54025SOL     OW63971   0.481   5.425   5.947
54025SOL    HW163972   0.388   5.438   5.929
54025SOL    HW263973   0.526   5.477   5.880
54026SOL     OW63974   7.600   0.116  10.782
54026SOL    HW163975   7.649   0.090  10.860
54026SOL    HW263976   7.586   0.035  10.733
54027SOL     OW63977  12.513  13.723  12.680
54027SOL    HW163978  12.503  13.628  12.678
54027SOL    HW263979  12.505  13.751  12.589
54028SOL     OW63980   1.371   3.776  10.856
54028SOL    HW163981   1.302   3.723  10.895
54028SOL    HW263982   1.328   3.857  10.831
54029SOL     OW63983   7.241   0.598   6.925
54029SOL    HW163984   7.235   0.673   6.866
54029SOL    HW263985   7.287   0.631   7.002
54030SOL     OW63986   6.233  14.064   3.631
54030SOL    HW163987   6.244  14.096   3.542
54030SOL    HW263988   6.309  14.008   3.646
54031SOL     OW63989   7.219   0.899   9.533
54031SOL    HW163990   7.251   0.951   9.459
54031SOL    HW263991   7.129   0.929   9.547
54032SOL     OW63992   6.478   2.165   4.959
54032SOL    HW163993   6.536   2.147   4.884
54032SOL    HW263994   6.510   2.248   4.994
54033SOL     OW63995   3.599   6.934  11.971
54033SOL    HW163996   3.515   6.953  11.929
54033SOL    HW263997   3.661   6.930  11.898
54034SOL     OW63998   3.942   0.501   4.193
54034SOL    HW163999   3.928   0.453   4.275
54034SOL    HW264000   3.889   0.580   4.202
54035SOL     OW64001  14.604   0.255   6.868
54035SOL    HW164002  14.599   0.205   6.950
54035SOL    HW264003  14.644   0.338   6.894
54036SOL     OW64004  11.915   7.360   8.244
54036SOL    HW164005  11.837   7.312   8.216
54036SOL    HW264006  11.986   7.321   8.193
54037SOL     OW64007   1.296   3.348   8.546
54037SOL    HW164008   1.226   3.305   8.594
54037SOL    HW264009   1.279   3.327   8.454
54038SOL     OW64010   1.661  14.833  14.631
54038SOL    HW164011   1.621  14.784  14.559
54038SOL    HW264012   1.751  14.848  14.602
54039SOL     OW64013   4.283   0.272   3.608
54039SOL    HW164014   4.296   0.248   3.700
54039SOL    HW264015   4.337   0.210   3.559
54040SOL     OW64016  12.560   9.748   8.399
54040SOL    HW164017  12.518   9.668   8.429
54040SOL    HW264018  12.614   9.721   8.325
54041SOL     OW64019   5.196   1.937   8.035
54041SOL    HW164020   5.177   1.987   8.114
54041SOL    HW264021   5.144   1.857   8.044
54042SOL     OW64022   0.063  14.363   7.776
54042SOL    HW164023   0.046  14.379   7.683
54042SOL    HW264024   0.038  14.444   7.819
54043SOL     OW64025   6.679   2.392   6.098
54043SOL    HW164026   6.621   2.463   6.070
54043SOL    HW264027   6.649   2.316   6.047
54044SOL     OW64028   4.729   0.550   6.388
54044SOL    HW164029   4.716   0.555   6.482
54044SOL    HW264030   4.693   0.633   6.355
54045SOL     OW64031   2.485   7.103  13.438
54045SOL    HW164032   2.409   7.125  13.383
54045SOL    HW264033   2.538   7.183  13.438
54046SOL     OW64034  13.109   5.436   9.221
54046SOL    HW164035  13.170   5.386   9.166
54046SOL    HW264036  13.152   5.521   9.233
54047SOL     OW64037  13.215   8.139   5.419
54047SOL    HW164038  13.202   8.096   5.335
54047SOL    HW264039  13.154   8.213   5.419
54048SOL     OW64040   4.620   2.117  12.750
54048SOL    HW164041   4.612   2.028  12.784
54048SOL    HW264042   4.644   2.107  12.658
54049SOL     OW64043  13.110  10.972   2.531
54049SOL    HW164044  13.072  10.901   2.582
54049SOL    HW264045  13.183  11.004   2.585
54050SOL     OW64046   3.734  11.473   3.133
54050SOL    HW164047   3.706  11.396   3.082
54050SOL    HW264048   3.776  11.530   3.069
54051SOL     OW64049   6.762  14.180   2.691
54051SOL    HW164050   6.713  14.101   2.668
54051SOL    HW264051   6.749  14.239   2.616
54052SOL     OW64052   4.376   6.558  14.255
54052SOL    HW164053   4.410   6.486  14.308
54052SOL    HW264054   4.387   6.635  14.310
54053SOL     OW64055   8.459   7.147  13.479
54053SOL    HW164056   8.507   7.229  13.484
54053SOL    HW264057   8.522   7.085  13.442
54054SOL     OW64058   0.765   4.720   7.087
54054SOL    HW164059   0.752   4.722   6.992
54054SOL    HW264060   0.858   4.737   7.099
54055SOL     OW64061  14.220   1.748   3.558
54055SOL    HW164062  14.236   1.743   3.652
54055SOL    HW264063  14.217   1.842   3.539
54056SOL     OW64064   7.431  10.695   2.846
54056SOL    HW164065   7.473  10.738   2.771
54056SOL    HW264066   7.504  10.668   2.902
54057SOL     OW64067   5.994  11.022   5.518
54057SOL    HW164068   6.072  11.036   5.464
54057SOL    HW264069   5.972  11.109   5.551
54058SOL     OW64070   8.091   7.580  13.270
54058SOL    HW164071   8.047   7.500  13.299
54058SOL    HW264072   8.109   7.565  13.177
54059SOL     OW64073   5.146   6.617   7.403
54059SOL    HW164074   5.228   6.577   7.431
54059SOL    HW264075   5.099   6.635   7.484
54060SOL     OW64076   4.966   2.180   3.270
54060SOL    HW164077   4.930   2.261   3.306
54060SOL    HW264078   5.024   2.209   3.200
54061SOL     OW64079   4.964   6.147   3.123
54061SOL    HW164080   4.907   6.089   3.072
54061SOL    HW264081   5.015   6.194   3.057
54062SOL     OW64082   1.702  12.375   0.719
54062SOL    HW164083   1.666  12.425   0.792
54062SOL    HW264084   1.724  12.290   0.756
54063SOL     OW64085   8.082  14.729   8.338
54063SOL    HW164086   8.057  14.781   8.414
54063SOL    HW264087   8.006  14.672   8.322
54064SOL     OW64088  10.656   0.934   5.241
54064SOL    HW164089  10.669   0.987   5.319
54064SOL    HW264090  10.562   0.941   5.221
54065SOL     OW64091  12.099   3.478   5.448
54065SOL    HW164092  12.070   3.388   5.464
54065SOL    HW264093  12.141   3.476   5.362
54066SOL     OW64094   6.898  12.277   2.816
54066SOL    HW164095   6.838  12.221   2.766
54066SOL    HW264096   6.935  12.218   2.882
54067SOL     OW64097   7.958   4.174   0.983
54067SOL    HW164098   7.877   4.214   1.015
54067SOL    HW264099   8.004   4.146   1.062
54068SOL     OW64100   2.702   6.841   9.262
54068SOL    HW164101   2.689   6.845   9.357
54068SOL    HW264102   2.742   6.756   9.246
54069SOL     OW64103  10.525   2.660   7.185
54069SOL    HW164104  10.438   2.656   7.224
54069SOL    HW264105  10.580   2.698   7.254
54070SOL     OW64106  14.402  14.482  12.266
54070SOL    HW164107  14.315  14.516  12.244
54070SOL    HW264108  14.390  14.441  12.352
54071SOL     OW64109   4.680  14.382   5.517
54071SOL    HW164110   4.605  14.328   5.541
54071SOL    HW264111   4.666  14.464   5.564
54072SOL     OW64112  13.289   8.475   0.458
54072SOL    HW164113  13.272   8.564   0.426
54072SOL    HW264114  13.202   8.441   0.480
54073SOL     OW64115   0.110   3.175  13.126
54073SOL    HW164116   0.171   3.131  13.067
54073SOL    HW264117   0.137   3.267  13.125
54074SOL     OW64118   3.024  12.171   4.589
54074SOL    HW164119   3.010  12.264   4.576
54074SOL    HW264120   2.951  12.129   4.543
54075SOL     OW64121   8.074  10.388   6.186
54075SOL    HW164122   8.068  10.452   6.115
54075SOL    HW264123   8.163  10.398   6.219
54076SOL     OW64124   4.098   3.028  10.545
54076SOL    HW164125   4.168   2.979  10.590
54076SOL    HW264126   4.101   2.996  10.455
54077SOL     OW64127   0.454   4.102   6.490
54077SOL    HW164128   0.439   4.179   6.435
54077SOL    HW264129   0.369   4.059   6.495
54078SOL     OW64130  14.645  12.155  10.250
54078SOL    HW164131  14.558  12.123  10.229
54078SOL    HW264132  14.687  12.168  10.165
54079SOL     OW64133   7.280   2.080  14.126
54079SOL    HW164134   7.369   2.081  14.090
54079SOL    HW264135   7.255   1.987  14.124
54080SOL     OW64136   5.325   2.360   4.042
54080SOL    HW164137   5.416   2.365   4.014
54080SOL    HW264138   5.289   2.284   3.996
54081SOL     OW64139  10.658   4.104  12.009
54081SOL    HW164140  10.570   4.132  11.983
54081SOL    HW264141  10.645   4.056  12.090
54082SOL     OW64142   5.016   0.019   4.573
54082SOL    HW164143   5.087  14.837   4.567
54082SOL    HW264144   4.953  14.874   4.506
54083SOL     OW64145   3.247  12.853   8.551
54083SOL    HW164146   3.250  12.920   8.620
54083SOL    HW264147   3.191  12.891   8.484
54084SOL     OW64148   1.372   2.865   3.673
54084SOL    HW164149   1.407   2.822   3.595
54084SOL    HW264150   1.380   2.959   3.654
54085SOL     OW64151   5.599   0.317   7.941
54085SOL    HW164152   5.576   0.228   7.969
54085SOL    HW264153   5.526   0.344   7.885
54086SOL     OW64154  11.616   3.489   1.020
54086SOL    HW164155  11.677   3.428   0.979
54086SOL    HW264156  11.534   3.440   1.030
54087SOL     OW64157  12.863   1.336   9.767
54087SOL    HW164158  12.836   1.423   9.737
54087SOL    HW264159  12.781   1.287   9.773
54088SOL     OW64160  14.520   5.489   0.829
54088SOL    HW164161  14.585   5.448   0.772
54088SOL    HW264162  14.437   5.473   0.785
54089SOL     OW64163   2.154   4.793  14.697
54089SOL    HW164164   2.079   4.814  14.753
54089SOL    HW264165   2.125   4.816  14.608
54090SOL     OW64166  10.827   0.321   0.291
54090SOL    HW164167  10.918   0.343   0.310
54090SOL    HW264168  10.832   0.256   0.221
54091SOL     OW64169   4.059   2.200  14.119
54091SOL    HW164170   4.027   2.266  14.057
54091SOL    HW264171   3.983   2.183  14.175
54092SOL     OW64172   1.978  14.438   4.271
54092SOL    HW164173   2.029  14.513   4.300
54092SOL    HW264174   1.970  14.382   4.348
54093SOL     OW64175   5.365   6.821   9.249
54093SOL    HW164176   5.281   6.786   9.278
54093SOL    HW264177   5.422   6.812   9.325
54094SOL     OW64178   2.950  12.234  12.858
54094SOL    HW164179   2.862  12.261  12.833
54094SOL    HW264180   2.990  12.314  12.893
54095SOL     OW64181  10.422  12.578  13.990
54095SOL    HW164182  10.359  12.506  13.995
54095SOL    HW264183  10.407  12.628  14.070
54096SOL     OW64184   4.946  12.286  11.164
54096SOL    HW164185   4.954  12.198  11.201
54096SOL    HW264186   4.853  12.306  11.170
54097SOL     OW64187  13.639  11.962  10.381
54097SOL    HW164188  13.594  11.883  10.411
54097SOL    HW264189  13.727  11.955  10.417
54098SOL     OW64190   3.070   5.893  14.483
54098SOL    HW164191   3.131   5.823  14.457
54098SOL    HW264192   3.038   5.928  14.400
54099SOL     OW64193   0.952  11.577  11.659
54099SOL    HW164194   0.940  11.665  11.623
54099SOL    HW264195   0.882  11.567  11.723
54100SOL     OW64196   0.068   1.710   4.744
54100SOL    HW164197   0.038   1.739   4.830
54100SOL    HW264198   0.130   1.640   4.763
54101SOL     OW64199   8.538   0.589   9.222
54101SOL    HW164200   8.513   0.538   9.145
54101SOL    HW264201   8.540   0.680   9.191
54102SOL     OW64202   2.518   6.676  10.558
54102SOL    HW164203   2.596   6.731  10.562
54102SOL    HW264204   2.445   6.738  10.560
54103SOL     OW64205  12.517   7.840  11.403
54103SOL    HW164206  12.472   7.912  11.359
54103SOL    HW264207  12.608   7.868  11.407
54104SOL     OW64208   3.339   0.505  14.869
54104SOL    HW164209   3.291   0.587  14.868
54104SOL    HW264210   3.282   0.442  14.825
54105SOL     OW64211   1.228   2.182  11.618
54105SOL    HW164212   1.197   2.216  11.702
54105SOL    HW264213   1.275   2.256  11.579
54106SOL     OW64214  13.400   9.368  13.100
54106SOL    HW164215  13.447   9.379  13.017
54106SOL    HW264216  13.468   9.375  13.167
54107SOL     OW64217   2.801  11.107   6.473
54107SOL    HW164218   2.751  11.148   6.544
54107SOL    HW264219   2.756  11.024   6.457
54108SOL     OW64220   4.692  13.492  10.676
54108SOL    HW164221   4.644  13.504  10.758
54108SOL    HW264222   4.783  13.482  10.703
54109SOL     OW64223   3.754  13.408  12.441
54109SOL    HW164224   3.827  13.345  12.440
54109SOL    HW264225   3.758  13.451  12.356
54110SOL     OW64226  11.522   7.886   2.359
54110SOL    HW164227  11.606   7.840   2.370
54110SOL    HW264228  11.542   7.978   2.376
54111SOL     OW64229   2.053   5.550  12.131
54111SOL    HW164230   2.078   5.635  12.094
54111SOL    HW264231   1.985   5.571  12.194
54112SOL     OW64232   3.189  14.869   1.805
54112SOL    HW164233   3.114   0.044   1.821
54112SOL    HW264234   3.265   0.036   1.834
54113SOL     OW64235   1.422  13.843   3.458
54113SOL    HW164236   1.480  13.915   3.434
54113SOL    HW264237   1.399  13.803   3.374
54114SOL     OW64238   9.859  10.774   5.000
54114SOL    HW164239   9.925  10.823   5.050
54114SOL    HW264240   9.827  10.836   4.935
54115SOL     OW64241   0.566  12.648   7.520
54115SOL    HW164242   0.585  12.578   7.582
54115SOL    HW264243   0.652  12.676   7.489
54116SOL     OW64244   1.157   9.158  14.817
54116SOL    HW164245   1.080   9.210  14.795
54116SOL    HW264246   1.141   9.126   0.023
54117SOL     OW64247   6.769  13.375   2.838
54117SOL    HW164248   6.864  13.380   2.848
54117SOL    HW264249   6.746  13.290   2.876
54118SOL     OW64250   6.390   2.154   4.342
54118SOL    HW164251   6.348   2.102   4.411
54118SOL    HW264252   6.476   2.175   4.377
54119SOL     OW64253   1.586   9.564   4.050
54119SOL    HW164254   1.641   9.495   4.088
54119SOL    HW264255   1.629   9.646   4.075
54120SOL     OW64256   2.737   1.942   8.269
54120SOL    HW164257   2.723   2.026   8.225
54120SOL    HW264258   2.767   1.883   8.200
54121SOL     OW64259   0.106   8.241   1.535
54121SOL    HW164260   0.040   8.231   1.467
54121SOL    HW264261   0.112   8.335   1.550
54122SOL     OW64262   4.678  13.271   7.754
54122SOL    HW164263   4.605  13.244   7.697
54122SOL    HW264264   4.643  13.345   7.803
54123SOL     OW64265  13.453   8.206   2.032
54123SOL    HW164266  13.407   8.224   2.114
54123SOL    HW264267  13.437   8.282   1.977
54124SOL     OW64268  12.114  12.446   4.276
54124SOL    HW164269  12.160  12.500   4.211
54124SOL    HW264270  12.038  12.411   4.230
54125SOL     OW64271   4.758  11.218  11.252
54125SOL    HW164272   4.796  11.301  11.222
54125SOL    HW264273   4.689  11.245  11.313
54126SOL     OW64274   0.601  12.683   5.996
54126SOL    HW164275   0.505  12.683   6.001
54126SOL    HW264276   0.625  12.592   6.012
54127SOL     OW64277   5.801   4.205  14.711
54127SOL    HW164278   5.883   4.196  14.662
54127SOL    HW264279   5.738   4.152  14.662
54128SOL     OW64280   4.993   0.929   6.352
54128SOL    HW164281   4.918   0.986   6.332
54128SOL    HW264282   5.047   0.933   6.273
54129SOL     OW64283   8.484   4.381  12.473
54129SOL    HW164284   8.532   4.449  12.520
54129SOL    HW264285   8.472   4.418  12.385
54130SOL     OW64286  10.445   5.767   1.837
54130SOL    HW164287  10.488   5.767   1.752
54130SOL    HW264288  10.422   5.859   1.852
54131SOL     OW64289   1.703   1.125   8.798
54131SOL    HW164290   1.768   1.122   8.728
54131SOL    HW264291   1.652   1.045   8.786
54132SOL     OW64292  11.258   0.993  13.389
54132SOL    HW164293  11.260   0.904  13.354
54132SOL    HW264294  11.308   1.045  13.326
54133SOL     OW64295   0.231  14.797  13.328
54133SOL    HW164296   0.205  14.819  13.239
54133SOL    HW264297   0.150  14.770  13.371
54134SOL     OW64298   6.478   6.882   1.953
54134SOL    HW164299   6.458   6.830   1.875
54134SOL    HW264300   6.572   6.896   1.949
54135SOL     OW64301  12.296  13.109   5.974
54135SOL    HW164302  12.367  13.087   6.034
54135SOL    HW264303  12.318  13.063   5.893
54136SOL     OW64304   9.560   2.460   8.668
54136SOL    HW164305   9.481   2.430   8.623
54136SOL    HW264306   9.557   2.556   8.661
54137SOL     OW64307   3.961   0.298   9.496
54137SOL    HW164308   3.872   0.285   9.463
54137SOL    HW264309   3.956   0.381   9.545
54138SOL     OW64310   5.024   6.018   4.527
54138SOL    HW164311   4.943   5.970   4.546
54138SOL    HW264312   5.018   6.040   4.434
54139SOL     OW64313   0.648   3.632   8.971
54139SOL    HW164314   0.645   3.614   8.877
54139SOL    HW264315   0.640   3.727   8.977
54140SOL     OW64316   3.924  11.796   9.204
54140SOL    HW164317   3.965  11.759   9.283
54140SOL    HW264318   3.837  11.756   9.202
54141SOL     OW64319   7.207   7.762   3.588
54141SOL    HW164320   7.185   7.853   3.567
54141SOL    HW264321   7.189   7.714   3.507
54142SOL     OW64322  13.379   5.368   8.845
54142SOL    HW164323  13.372   5.297   8.909
54142SOL    HW264324  13.324   5.437   8.880
54143SOL     OW64325  13.410   9.449  11.651
54143SOL    HW164326  13.497   9.461  11.612
54143SOL    HW264327  13.401   9.354  11.661
54144SOL     OW64328  14.726   0.682   1.877
54144SOL    HW164329  14.642   0.718   1.849
54144SOL    HW264330  14.790   0.726   1.821
54145SOL     OW64331   7.829   6.321   1.342
54145SOL    HW164332   7.871   6.394   1.297
54145SOL    HW264333   7.836   6.248   1.279
54146SOL     OW64334  13.101  12.544   6.003
54146SOL    HW164335  13.067  12.533   5.915
54146SOL    HW264336  13.144  12.629   6.002
54147SOL     OW64337   2.047  13.931   3.747
54147SOL    HW164338   2.080  14.021   3.758
54147SOL    HW264339   1.959  13.934   3.785
54148SOL     OW64340  13.114   3.933   2.224
54148SOL    HW164341  13.130   3.959   2.133
54148SOL    HW264342  13.159   3.998   2.277
54149SOL     OW64343   4.333  10.824   8.055
54149SOL    HW164344   4.314  10.916   8.036
54149SOL    HW264345   4.364  10.788   7.972
54150SOL     OW64346  12.674   1.825   9.393
54150SOL    HW164347  12.612   1.897   9.381
54150SOL    HW264348  12.727   1.851   9.468
54151SOL     OW64349  10.155   7.694   9.496
54151SOL    HW164350  10.245   7.728   9.489
54151SOL    HW264351  10.149   7.662   9.586
54152SOL     OW64352  11.738   4.139   3.035
54152SOL    HW164353  11.643   4.135   3.027
54152SOL    HW264354  11.769   4.055   3.001
54153SOL     OW64355  13.349  12.592  13.546
54153SOL    HW164356  13.263  12.623  13.516
54153SOL    HW264357  13.408  12.665  13.528
54154SOL     OW64358   7.136   3.626  12.338
54154SOL    HW164359   7.054   3.671  12.315
54154SOL    HW264360   7.198   3.654  12.271
54155SOL     OW64361  10.902   3.551   4.820
54155SOL    HW164362  10.820   3.597   4.836
54155SOL    HW264363  10.876   3.465   4.787
54156SOL     OW64364   8.577   8.141  14.336
54156SOL    HW164365   8.565   8.109  14.246
54156SOL    HW264366   8.553   8.066  14.391
54157SOL     OW64367   4.775   0.514  12.133
54157SOL    HW164368   4.703   0.502  12.196
54157SOL    HW264369   4.830   0.580  12.174
54158SOL     OW64370  11.813  12.754   0.870
54158SOL    HW164371  11.815  12.837   0.916
54158SOL    HW264372  11.888  12.705   0.904
54159SOL     OW64373   7.737  11.916  12.325
54159SOL    HW164374   7.705  11.827  12.334
54159SOL    HW264375   7.719  11.940  12.234
54160SOL     OW64376   2.372   3.066   8.017
54160SOL    HW164377   2.440   3.006   7.988
54160SOL    HW264378   2.295   3.010   8.032
54161SOL     OW64379   0.969   7.218   9.670
54161SOL    HW164380   1.057   7.242   9.699
54161SOL    HW264381   0.959   7.127   9.697
54162SOL     OW64382   2.593   3.033  12.402
54162SOL    HW164383   2.500   3.010  12.410
54162SOL    HW264384   2.622   3.044  12.493
54163SOL     OW64385  12.987   7.419   4.718
54163SOL    HW164386  13.018   7.423   4.627
54163SOL    HW264387  13.058   7.377   4.766
54164SOL     OW64388   5.720   4.539   9.922
54164SOL    HW164389   5.781   4.612   9.933
54164SOL    HW264390   5.638   4.580   9.896
54165SOL     OW64391   3.938   1.435   9.085
54165SOL    HW164392   4.009   1.461   9.144
54165SOL    HW264393   3.885   1.374   9.135
54166SOL     OW64394   1.322   8.416  13.287
54166SOL    HW164395   1.239   8.444  13.326
54166SOL    HW264396   1.388   8.438  13.353
54167SOL     OW64397   7.582   0.258   3.372
54167SOL    HW164398   7.594   0.203   3.295
54167SOL    HW264399   7.522   0.209   3.428
54168SOL     OW64400  12.724   9.473   1.616
54168SOL    HW164401  12.732   9.534   1.542
54168SOL    HW264402  12.633   9.479   1.642
54169SOL     OW64403  11.057   3.661   5.008
54169SOL    HW164404  10.984   3.717   5.033
54169SOL    HW264405  11.022   3.605   4.939
54170SOL     OW64406   3.502  12.289  13.934
54170SOL    HW164407   3.527  12.202  13.903
54170SOL    HW264408   3.418  12.276  13.978
54171SOL     OW64409   8.681   6.506  11.888
54171SOL    HW164410   8.690   6.413  11.910
54171SOL    HW264411   8.589   6.526  11.905
54172SOL     OW64412  14.420   6.734   7.355
54172SOL    HW164413  14.341   6.693   7.321
54172SOL    HW264414  14.445   6.798   7.289
54173SOL     OW64415   8.713  13.902  12.433
54173SOL    HW164416   8.671  13.903  12.519
54173SOL    HW264417   8.647  13.936  12.373
54174SOL     OW64418   1.118   8.942   3.968
54174SOL    HW164419   1.065   8.912   4.043
54174SOL    HW264420   1.154   8.862   3.931
54175SOL     OW64421   8.819   1.312   5.607
54175SOL    HW164422   8.814   1.239   5.669
54175SOL    HW264423   8.746   1.299   5.547
54176SOL     OW64424  11.139   6.086   9.868
54176SOL    HW164425  11.232   6.065   9.882
54176SOL    HW264426  11.107   6.015   9.813
54177SOL     OW64427  10.294  13.457  10.361
54177SOL    HW164428  10.381  13.421  10.379
54177SOL    HW264429  10.234  13.383  10.373
54178SOL     OW64430   3.700  13.457  12.130
54178SOL    HW164431   3.679  13.532  12.186
54178SOL    HW264432   3.619  13.440  12.082
54179SOL     OW64433   5.446   0.400   6.006
54179SOL    HW164434   5.526   0.376   5.959
54179SOL    HW264435   5.391   0.323   6.001
54180SOL     OW64436   2.637  12.396   1.936
54180SOL    HW164437   2.729  12.415   1.957
54180SOL    HW264438   2.637  12.383   1.841
54181SOL     OW64439   1.456  14.184  12.959
54181SOL    HW164440   1.509  14.106  12.980
54181SOL    HW264441   1.371  14.148  12.934
54182SOL     OW64442   0.580  11.795   2.393
54182SOL    HW164443   0.497  11.769   2.433
54182SOL    HW264444   0.614  11.864   2.450
54183SOL     OW64445   8.899   0.866   2.280
54183SOL    HW164446   8.880   0.862   2.186
54183SOL    HW264447   8.966   0.800   2.294
54184SOL     OW64448   4.094  10.363   8.177
54184SOL    HW164449   4.062  10.321   8.256
54184SOL    HW264450   4.187  10.380   8.194
54185SOL     OW64451   7.360  10.455  11.867
54185SOL    HW164452   7.300  10.382  11.851
54185SOL    HW264453   7.430  10.444  11.803
54186SOL     OW64454   1.478   3.472   8.696
54186SOL    HW164455   1.434   3.433   8.620
54186SOL    HW264456   1.484   3.565   8.674
54187SOL     OW64457   1.423   5.643   4.143
54187SOL    HW164458   1.434   5.573   4.207
54187SOL    HW264459   1.357   5.611   4.082
54188SOL     OW64460  10.487  11.576   3.977
54188SOL    HW164461  10.490  11.670   3.963
54188SOL    HW264462  10.418  11.564   4.042
54189SOL     OW64463   5.570  12.286   5.916
54189SOL    HW164464   5.619  12.215   5.874
54189SOL    HW264465   5.572  12.357   5.852
54190SOL     OW64466   3.884  13.850  11.258
54190SOL    HW164467   3.886  13.943  11.235
54190SOL    HW264468   3.805  13.816  11.215
54191SOL     OW64469   6.662  12.127  12.450
54191SOL    HW164470   6.746  12.081  12.459
54191SOL    HW264471   6.647  12.168  12.535
54192SOL     OW64472   3.964  12.409   4.477
54192SOL    HW164473   3.962  12.321   4.514
54192SOL    HW264474   3.958  12.467   4.553
54193SOL     OW64475  12.327  12.857  10.098
54193SOL    HW164476  12.399  12.917  10.079
54193SOL    HW264477  12.257  12.884  10.038
54194SOL     OW64478   8.616   4.417  13.056
54194SOL    HW164479   8.698   4.442  13.013
54194SOL    HW264480   8.610   4.323  13.041
54195SOL     OW64481   8.739  14.391   4.696
54195SOL    HW164482   8.751  14.449   4.621
54195SOL    HW264483   8.815  14.332   4.693
54196SOL     OW64484   2.995   3.470   6.064
54196SOL    HW164485   3.059   3.400   6.055
54196SOL    HW264486   3.031   3.528   6.132
54197SOL     OW64487   2.837   3.519   1.318
54197SOL    HW164488   2.845   3.424   1.314
54197SOL    HW264489   2.893   3.544   1.392
54198SOL     OW64490   1.549   5.927  11.757
54198SOL    HW164491   1.580   6.016  11.740
54198SOL    HW264492   1.502   5.902  11.678
54199SOL     OW64493   9.731   0.703   2.467
54199SOL    HW164494   9.721   0.710   2.562
54199SOL    HW264495   9.792   0.630   2.456
54200SOL     OW64496   7.692   3.611  14.131
54200SOL    HW164497   7.779   3.649  14.143
54200SOL    HW264498   7.699   3.523  14.167
54201SOL     OW64499   2.044   1.570  10.534
54201SOL    HW164500   2.083   1.586  10.620
54201SOL    HW264501   2.025   1.657  10.500
54202SOL     OW64502   5.077  13.699  14.207
54202SOL    HW164503   5.094  13.784  14.247
54202SOL    HW264504   4.989  13.706  14.171
54203SOL     OW64505   5.835   1.917  14.665
54203SOL    HW164506   5.905   1.941  14.604
54203SOL    HW264507   5.876   1.921  14.751
54204SOL     OW64508   2.537   7.268   7.881
54204SOL    HW164509   2.546   7.224   7.796
54204SOL    HW264510   2.627   7.292   7.905
54205SOL     OW64511  12.539  13.487   1.147
54205SOL    HW164512  12.492  13.404   1.139
54205SOL    HW264513  12.510  13.538   1.071
54206SOL     OW64514   7.488   6.922  10.348
54206SOL    HW164515   7.394   6.940  10.342
54206SOL    HW264516   7.509   6.940  10.440
54207SOL     OW64517  13.627  11.828  11.505
54207SOL    HW164518  13.549  11.823  11.450
54207SOL    HW264519  13.656  11.919  11.497
54208SOL     OW64520   1.405   0.122   3.817
54208SOL    HW164521   1.420   0.038   3.860
54208SOL    HW264522   1.336   0.163   3.869
54209SOL     OW64523   1.894  10.281  14.330
54209SOL    HW164524   1.951  10.231  14.272
54209SOL    HW264525   1.930  10.370  14.330
54210SOL     OW64526   6.125   6.627  13.522
54210SOL    HW164527   6.104   6.552  13.578
54210SOL    HW264528   6.107   6.596  13.433
54211SOL     OW64529  14.259   2.079  14.228
54211SOL    HW164530  14.193   2.045  14.167
54211SOL    HW264531  14.209   2.129  14.292
54212SOL     OW64532   2.968  11.393  14.135
54212SOL    HW164533   2.906  11.414  14.065
54212SOL    HW264534   2.944  11.304  14.162
54213SOL     OW64535   5.580   0.302   3.202
54213SOL    HW164536   5.529   0.381   3.215
54213SOL    HW264537   5.653   0.329   3.146
54214SOL     OW64538   9.263  13.710   0.247
54214SOL    HW164539   9.346  13.758   0.250
54214SOL    HW264540   9.208  13.760   0.186
54215SOL     OW64541   1.043   7.657  11.457
54215SOL    HW164542   1.067   7.717  11.527
54215SOL    HW264543   1.040   7.571  11.499
54216SOL     OW64544   4.920  13.545   0.720
54216SOL    HW164545   4.830  13.537   0.751
54216SOL    HW264546   4.917  13.513   0.630
54217SOL     OW64547  10.267  14.382   2.631
54217SOL    HW164548  10.233  14.467   2.603
54217SOL    HW264549  10.302  14.343   2.551
54218SOL     OW64550  11.502   1.386   6.790
54218SOL    HW164551  11.464   1.300   6.804
54218SOL    HW264552  11.497   1.429   6.875
54219SOL     OW64553  13.126   9.449   5.822
54219SOL    HW164554  13.145   9.442   5.916
54219SOL    HW264555  13.210   9.473   5.783
54220SOL     OW64556   3.379   0.420   1.034
54220SOL    HW164557   3.425   0.471   0.968
54220SOL    HW264558   3.448   0.371   1.079
54221SOL     OW64559   4.586   1.724   8.288
54221SOL    HW164560   4.589   1.790   8.219
54221SOL    HW264561   4.594   1.641   8.241
54222SOL     OW64562   7.939   0.353  14.556
54222SOL    HW164563   7.956   0.427  14.614
54222SOL    HW264564   7.906   0.393  14.475
54223SOL     OW64565   7.497   1.333  13.397
54223SOL    HW164566   7.440   1.285  13.337
54223SOL    HW264567   7.478   1.425  13.380
54224SOL     OW64568  12.982  13.513   3.688
54224SOL    HW164569  12.982  13.524   3.783
54224SOL    HW264570  13.073  13.497   3.665
54225SOL     OW64571   3.559   4.244  10.316
54225SOL    HW164572   3.524   4.265  10.402
54225SOL    HW264573   3.654   4.249  10.327
54226SOL     OW64574   3.770   2.573   3.506
54226SOL    HW164575   3.674   2.577   3.508
54226SOL    HW264576   3.790   2.479   3.517
54227SOL     OW64577   8.735  12.699   8.088
54227SOL    HW164578   8.794  12.685   8.163
54227SOL    HW264579   8.664  12.637   8.102
54228SOL     OW64580  12.196   6.245   9.994
54228SOL    HW164581  12.258   6.295   9.941
54228SOL    HW264582  12.217   6.270  10.084
54229SOL     OW64583   9.714  14.103   1.291
54229SOL    HW164584   9.779  14.036   1.272
54229SOL    HW264585   9.673  14.073   1.373
54230SOL     OW64586   9.572   5.577   4.562
54230SOL    HW164587   9.608   5.630   4.633
54230SOL    HW264588   9.628   5.500   4.560
54231SOL     OW64589  14.522  10.359   4.419
54231SOL    HW164590  14.539  10.419   4.491
54231SOL    HW264591  14.439  10.390   4.382
54232SOL     OW64592   7.273   0.725  11.846
54232SOL    HW164593   7.211   0.652  11.846
54232SOL    HW264594   7.241   0.784  11.914
54233SOL     OW64595   6.061   8.274   4.199
54233SOL    HW164596   6.125   8.279   4.128
54233SOL    HW264597   6.090   8.341   4.261
54234SOL     OW64598  10.725   4.515  12.270
54234SOL    HW164599  10.725   4.548  12.360
54234SOL    HW264600  10.690   4.426  12.277
54235SOL     OW64601  12.008  14.350   5.316
54235SOL    HW164602  12.082  14.349   5.377
54235SOL    HW264603  12.029  14.419   5.254
54236SOL     OW64604   1.217   5.511   2.826
54236SOL    HW164605   1.280   5.468   2.768
54236SOL    HW264606   1.259   5.509   2.913
54237SOL     OW64607   0.666  14.173   0.204
54237SOL    HW164608   0.657  14.077   0.207
54237SOL    HW264609   0.582  14.203   0.168
54238SOL     OW64610   5.898   3.789   5.300
54238SOL    HW164611   5.979   3.780   5.250
54238SOL    HW264612   5.880   3.701   5.333
54239SOL     OW64613   6.928   9.742  12.606
54239SOL    HW164614   6.842   9.778  12.628
54239SOL    HW264615   6.966   9.717  12.690
54240SOL     OW64616  13.159  13.238  12.569
54240SOL    HW164617  13.084  13.253  12.627
54240SOL    HW264618  13.120  13.210  12.486
54241SOL     OW64619   5.371   0.435  13.760
54241SOL    HW164620   5.409   0.462  13.677
54241SOL    HW264621   5.401   0.501  13.823
54242SOL     OW64622   7.789   0.651  11.202
54242SOL    HW164623   7.755   0.563  11.187
54242SOL    HW264624   7.871   0.637  11.250
54243SOL     OW64625  14.318  13.255  12.658
54243SOL    HW164626  14.288  13.268  12.748
54243SOL    HW264627  14.359  13.338  12.635
54244SOL     OW64628  10.671   9.068  10.901
54244SOL    HW164629  10.609   9.135  10.932
54244SOL    HW264630  10.690   9.016  10.979
54245SOL     OW64631  11.608   9.956   3.421
54245SOL    HW164632  11.619  10.022   3.353
54245SOL    HW264633  11.689   9.961   3.472
54246SOL     OW64634   8.198   1.907  11.933
54246SOL    HW164635   8.247   1.928  12.013
54246SOL    HW264636   8.229   1.820  11.909
54247SOL     OW64637  10.956  11.781   3.283
54247SOL    HW164638  11.001  11.697   3.273
54247SOL    HW264639  11.026  11.844   3.302
54248SOL     OW64640  12.723   4.681   3.339
54248SOL    HW164641  12.707   4.588   3.348
54248SOL    HW264642  12.658   4.723   3.395
54249SOL     OW64643   2.026  10.596   9.344
54249SOL    HW164644   1.974  10.595   9.264
54249SOL    HW264645   1.966  10.565   9.412
54250SOL     OW64646   1.286   5.723   5.323
54250SOL    HW164647   1.294   5.756   5.234
54250SOL    HW264648   1.214   5.772   5.361
54251SOL     OW64649   9.273  13.557   5.714
54251SOL    HW164650   9.327  13.633   5.736
54251SOL    HW264651   9.199  13.561   5.775
54252SOL     OW64652   8.575   6.764   9.500
54252SOL    HW164653   8.575   6.844   9.448
54252SOL    HW264654   8.497   6.772   9.556
54253SOL     OW64655   4.244  12.182   2.365
54253SOL    HW164656   4.241  12.251   2.299
54253SOL    HW264657   4.336  12.153   2.365
54254SOL     OW64658   3.371  11.493   3.463
54254SOL    HW164659   3.402  11.484   3.553
54254SOL    HW264660   3.445  11.531   3.416
54255SOL     OW64661   2.830   8.061  12.396
54255SOL    HW164662   2.797   8.148  12.418
54255SOL    HW264663   2.923   8.064  12.420
54256SOL     OW64664  10.629  13.669   7.128
54256SOL    HW164665  10.589  13.750   7.097
54256SOL    HW264666  10.567  13.600   7.104
54257SOL     OW64667   0.137   1.984   5.331
54257SOL    HW164668   0.216   1.932   5.315
54257SOL    HW264669   0.065   1.927   5.304
54258SOL     OW64670  13.665   5.547   8.646
54258SOL    HW164671  13.643   5.640   8.656
54258SOL    HW264672  13.717   5.543   8.566
54259SOL     OW64673   9.824  11.243  10.604
54259SOL    HW164674   9.868  11.316  10.648
54259SOL    HW264675   9.878  11.224  10.528
54260SOL     OW64676   5.228   0.101   9.617
54260SOL    HW164677   5.181   0.183   9.629
54260SOL    HW264678   5.244   0.096   9.523
54261SOL     OW64679   3.260   6.525   6.522
54261SOL    HW164680   3.223   6.609   6.550
54261SOL    HW264681   3.225   6.512   6.434
54262SOL     OW64682   8.962   2.981  13.895
54262SOL    HW164683   8.949   3.061  13.946
54262SOL    HW264684   8.892   2.922  13.924
54263SOL     OW64685   7.740  13.823   8.420
54263SOL    HW164686   7.741  13.740   8.468
54263SOL    HW264687   7.737  13.891   8.488
54264SOL     OW64688  11.842  12.173   5.381
54264SOL    HW164689  11.769  12.133   5.335
54264SOL    HW264690  11.821  12.165   5.473
54265SOL     OW64691  12.011   3.500  13.840
54265SOL    HW164692  11.969   3.434  13.785
54265SOL    HW264693  12.100   3.467  13.854
54266SOL     OW64694  12.775   0.950  13.553
54266SOL    HW164695  12.776   0.856  13.536
54266SOL    HW264696  12.866   0.972  13.571
54267SOL     OW64697   2.452  11.915   6.033
54267SOL    HW164698   2.401  11.840   6.004
54267SOL    HW264699   2.533  11.878   6.067
54268SOL     OW64700   5.747  14.310   1.300
54268SOL    HW164701   5.677  14.303   1.236
54268SOL    HW264702   5.719  14.253   1.372
54269SOL     OW64703   7.593  11.554   4.819
54269SOL    HW164704   7.645  11.634   4.808
54269SOL    HW264705   7.655  11.482   4.807
54270SOL     OW64706   8.634   0.349   7.348
54270SOL    HW164707   8.662   0.368   7.258
54270SOL    HW264708   8.647   0.255   7.358
54271SOL     OW64709  13.277  12.838  12.132
54271SOL    HW164710  13.238  12.841  12.045
54271SOL    HW264711  13.283  12.930  12.159
54272SOL     OW64712   8.708   7.225   5.155
54272SOL    HW164713   8.717   7.318   5.133
54272SOL    HW264714   8.704   7.181   5.071
54273SOL     OW64715   7.956   4.710   9.167
54273SOL    HW164716   7.903   4.705   9.247
54273SOL    HW264717   7.935   4.795   9.129
54274SOL     OW64718  14.143   4.785   4.501
54274SOL    HW164719  14.155   4.865   4.551
54274SOL    HW264720  14.228   4.770   4.460
54275SOL     OW64721  14.533  13.766   6.326
54275SOL    HW164722  14.532  13.835   6.393
54275SOL    HW264723  14.471  13.796   6.260
54276SOL     OW64724  11.423  14.121  10.697
54276SOL    HW164725  11.392  14.116  10.788
54276SOL    HW264726  11.514  14.150  10.704
54277SOL     OW64727  11.899   0.090  12.502
54277SOL    HW164728  11.828   0.096  12.438
54277SOL    HW264729  11.909  14.879  12.518
54278SOL     OW64730  12.140   1.766  12.903
54278SOL    HW164731  12.093   1.843  12.870
54278SOL    HW264732  12.188   1.733  12.827
54279SOL     OW64733  10.199   3.957  11.633
54279SOL    HW164734  10.273   3.900  11.612
54279SOL    HW264735  10.165   3.985  11.548
54280SOL     OW64736  14.385   7.433   0.401
54280SOL    HW164737  14.379   7.470   0.489
54280SOL    HW264738  14.337   7.494   0.345
54281SOL     OW64739   7.563  14.187   9.498
54281SOL    HW164740   7.644  14.145   9.469
54281SOL    HW264741   7.589  14.238   9.574
54282SOL     OW64742   5.177  13.968   4.164
54282SOL    HW164743   5.204  14.019   4.240
54282SOL    HW264744   5.136  14.031   4.105
54283SOL     OW64745  14.020  13.340   9.384
54283SOL    HW164746  13.979  13.355   9.469
54283SOL    HW264747  14.092  13.279   9.402
54284SOL     OW64748   5.487   8.884   6.100
54284SOL    HW164749   5.566   8.855   6.144
54284SOL    HW264750   5.440   8.934   6.166
54285SOL     OW64751   2.073   9.352  14.056
54285SOL    HW164752   2.120   9.279  14.015
54285SOL    HW264753   2.120   9.430  14.028
54286SOL     OW64754   4.862   1.207   3.190
54286SOL    HW164755   4.887   1.296   3.214
54286SOL    HW264756   4.873   1.157   3.271
54287SOL     OW64757   3.846  12.644  14.023
54287SOL    HW164758   3.860  12.679  14.111
54287SOL    HW264759   3.780  12.575  14.035
54288SOL     OW64760   1.682  10.442   2.446
54288SOL    HW164761   1.739  10.373   2.413
54288SOL    HW264762   1.713  10.521   2.402
54289SOL     OW64763   6.110  12.986   0.888
54289SOL    HW164764   6.029  13.026   0.855
54289SOL    HW264765   6.086  12.947   0.972
54290SOL     OW64766   9.308   1.682   5.102
54290SOL    HW164767   9.248   1.756   5.094
54290SOL    HW264768   9.388   1.721   5.138
54291SOL     OW64769  11.859   3.855   8.369
54291SOL    HW164770  11.802   3.799   8.421
54291SOL    HW264771  11.912   3.795   8.318
54292SOL     OW64772   6.194   6.273   0.784
54292SOL    HW164773   6.099   6.266   0.773
54292SOL    HW264774   6.208   6.363   0.812
54293SOL     OW64775   8.454   1.998  14.732
54293SOL    HW164776   8.427   1.987  14.641
54293SOL    HW264777   8.410   1.927  14.779
54294SOL     OW64778   5.090   9.955   7.326
54294SOL    HW164779   5.141  10.036   7.319
54294SOL    HW264780   5.083   9.922   7.236
54295SOL     OW64781   0.338   7.508   6.412
54295SOL    HW164782   0.309   7.595   6.438
54295SOL    HW264783   0.433   7.513   6.413
54296SOL     OW64784   6.687   5.376  14.791
54296SOL    HW164785   6.684   5.451  14.732
54296SOL    HW264786   6.625   5.313  14.754
54297SOL     OW64787   6.097  10.184   4.800
54297SOL    HW164788   6.121  10.233   4.721
54297SOL    HW264789   6.181  10.151   4.834
54298SOL     OW64790  11.001  12.472   1.503
54298SOL    HW164791  11.074  12.483   1.564
54298SOL    HW264792  10.929  12.521   1.543
54299SOL     OW64793   0.877   9.544  14.698
54299SOL    HW164794   0.867   9.610  14.630
54299SOL    HW264795   0.965   9.559  14.734
54300SOL     OW64796   4.218   7.568   4.082
54300SOL    HW164797   4.299   7.620   4.084
54300SOL    HW264798   4.239   7.490   4.132
54301SOL     OW64799   2.376   7.668  13.411
54301SOL    HW164800   2.438   7.616  13.360
54301SOL    HW264801   2.420   7.685  13.494
54302SOL     OW64802   3.421  12.770  12.373
54302SOL    HW164803   3.381  12.704  12.429
54302SOL    HW264804   3.470  12.720  12.307
54303SOL     OW64805   4.593  14.730   2.327
54303SOL    HW164806   4.556  14.666   2.388
54303SOL    HW264807   4.548  14.713   2.244
54304SOL     OW64808   6.427   8.002  12.920
54304SOL    HW164809   6.514   8.014  12.881
54304SOL    HW264810   6.445   7.961  13.005
54305SOL     OW64811   1.473  10.469  10.376
54305SOL    HW164812   1.523  10.463  10.294
54305SOL    HW264813   1.502  10.393  10.427
54306SOL     OW64814  14.192   3.688   2.108
54306SOL    HW164815  14.138   3.615   2.080
54306SOL    HW264816  14.277   3.672   2.067
54307SOL     OW64817   2.668   2.321  11.108
54307SOL    HW164818   2.695   2.237  11.146
54307SOL    HW264819   2.749   2.370  11.098
54308SOL     OW64820   9.764   8.161  14.374
54308SOL    HW164821   9.849   8.191  14.342
54308SOL    HW264822   9.713   8.241  14.386
54309SOL     OW64823   9.625  10.178  11.236
54309SOL    HW164824   9.617  10.264  11.194
54309SOL    HW264825   9.555  10.177  11.302
54310SOL     OW64826  10.589   4.821   4.349
54310SOL    HW164827  10.573   4.914   4.332
54310SOL    HW264828  10.501   4.782   4.349
54311SOL     OW64829  11.276  10.880  10.568
54311SOL    HW164830  11.311  10.808  10.621
54311SOL    HW264831  11.236  10.939  10.633
54312SOL     OW64832   9.657   8.966  12.414
54312SOL    HW164833   9.702   8.885  12.437
54312SOL    HW264834   9.600   8.942  12.341
54313SOL     OW64835  13.566   6.117  13.553
54313SOL    HW164836  13.651   6.157  13.570
54313SOL    HW264837  13.514   6.187  13.513
54314SOL     OW64838   9.577   5.912   3.231
54314SOL    HW164839   9.600   6.005   3.234
54314SOL    HW264840   9.625   5.878   3.155
54315SOL     OW64841   7.930   6.916   8.501
54315SOL    HW164842   7.890   6.922   8.588
54315SOL    HW264843   8.023   6.929   8.516
54316SOL     OW64844   3.380   0.999   5.506
54316SOL    HW164845   3.427   0.936   5.562
54316SOL    HW264846   3.388   1.082   5.553
54317SOL     OW64847  11.611  13.593   5.400
54317SOL    HW164848  11.668  13.540   5.344
54317SOL    HW264849  11.668  13.661   5.435
54318SOL     OW64850  11.610   2.090  10.893
54318SOL    HW164851  11.525   2.129  10.911
54318SOL    HW264852  11.599   2.048  10.807
54319SOL     OW64853  13.514   6.510  14.393
54319SOL    HW164854  13.599   6.504  14.437
54319SOL    HW264855  13.477   6.593  14.424
54320SOL     OW64856   7.171   0.711  12.258
54320SOL    HW164857   7.185   0.617  12.267
54320SOL    HW264858   7.222   0.736  12.181
54321SOL     OW64859   4.515   6.718  12.331
54321SOL    HW164860   4.499   6.768  12.251
54321SOL    HW264861   4.594   6.757  12.368
54322SOL     OW64862   5.343   4.996  12.498
54322SOL    HW164863   5.280   5.045  12.445
54322SOL    HW264864   5.426   5.041  12.485
54323SOL     OW64865   8.672   0.166   8.942
54323SOL    HW164866   8.728   0.236   8.979
54323SOL    HW264867   8.603   0.154   9.007
54324SOL     OW64868  14.210   1.384   0.604
54324SOL    HW164869  14.269   1.332   0.658
54324SOL    HW264870  14.178   1.323   0.538
54325SOL     OW64871   9.827   8.038   8.717
54325SOL    HW164872   9.857   8.084   8.795
54325SOL    HW264873   9.816   8.107   8.651
54326SOL     OW64874   6.813  14.220  14.725
54326SOL    HW164875   6.820  14.130  14.692
54326SOL    HW264876   6.753  14.213  14.800
54327SOL     OW64877   3.078  10.355  13.680
54327SOL    HW164878   3.002  10.321  13.727
54327SOL    HW264879   3.060  10.448  13.671
54328SOL     OW64880   0.862   2.680  12.839
54328SOL    HW164881   0.773   2.649  12.849
54328SOL    HW264882   0.909   2.607  12.798
54329SOL     OW64883   9.884   1.867   5.546
54329SOL    HW164884   9.947   1.855   5.617
54329SOL    HW264885   9.917   1.812   5.475
54330SOL     OW64886  14.526   2.895   3.314
54330SOL    HW164887  14.473   2.839   3.371
54330SOL    HW264888  14.524   2.981   3.357
54331SOL     OW64889  13.783  11.001   4.152
54331SOL    HW164890  13.750  11.078   4.105
54331SOL    HW264891  13.711  10.973   4.207
54332SOL     OW64892   0.467   6.492   0.579
54332SOL    HW164893   0.376   6.482   0.607
54332SOL    HW264894   0.516   6.508   0.659
54333SOL     OW64895   5.278   8.000   3.778
54333SOL    HW164896   5.191   8.014   3.741
54333SOL    HW264897   5.337   8.008   3.703
54334SOL     OW64898   7.714   8.892   4.055
54334SOL    HW164899   7.772   8.956   4.096
54334SOL    HW264900   7.729   8.903   3.961
54335SOL     OW64901   6.139   5.574   0.011
54335SOL    HW164902   6.146   5.479   0.023
54335SOL    HW264903   6.191   5.612   0.081
54336SOL     OW64904  10.644   3.079   0.214
54336SOL    HW164905  10.599   3.135   0.277
54336SOL    HW264906  10.661   2.998   0.261
54337SOL     OW64907   5.491   7.137   3.552
54337SOL    HW164908   5.542   7.217   3.567
54337SOL    HW264909   5.536   7.094   3.479
54338SOL     OW64910   6.264   6.628   8.729
54338SOL    HW164911   6.240   6.542   8.696
54338SOL    HW264912   6.237   6.690   8.661
54339SOL     OW64913   3.892   1.146  14.373
54339SOL    HW164914   3.908   1.237  14.350
54339SOL    HW264915   3.942   1.095  14.309
54340SOL     OW64916   4.655   8.003   8.916
54340SOL    HW164917   4.726   7.942   8.937
54340SOL    HW264918   4.579   7.969   8.963
54341SOL     OW64919   6.599   6.651   8.504
54341SOL    HW164920   6.527   6.697   8.461
54341SOL    HW264921   6.614   6.701   8.585
54342SOL     OW64922   6.171  11.222   8.713
54342SOL    HW164923   6.146  11.261   8.797
54342SOL    HW264924   6.259  11.256   8.696
54343SOL     OW64925   2.069  13.631   8.081
54343SOL    HW164926   2.124  13.706   8.101
54343SOL    HW264927   2.005  13.628   8.153
54344SOL     OW64928   9.297  13.551  14.542
54344SOL    HW164929   9.259  13.591  14.464
54344SOL    HW264930   9.314  13.624  14.601
54345SOL     OW64931  14.091   6.358   1.982
54345SOL    HW164932  14.139   6.439   1.965
54345SOL    HW264933  14.069   6.325   1.895
54346SOL     OW64934   7.547   3.072  13.635
54346SOL    HW164935   7.605   3.016  13.583
54346SOL    HW264936   7.567   3.050  13.726
54347SOL     OW64937   7.810   9.251   7.972
54347SOL    HW164938   7.904   9.236   7.967
54347SOL    HW264939   7.776   9.181   8.027
54348SOL     OW64940   8.990   3.098   1.615
54348SOL    HW164941   8.934   3.164   1.572
54348SOL    HW264942   8.928   3.034   1.651
54349SOL     OW64943  10.580   2.898  10.041
54349SOL    HW164944  10.610   2.988  10.032
54349SOL    HW264945  10.654   2.845  10.010
54350SOL     OW64946   4.496   5.371  12.715
54350SOL    HW164947   4.415   5.408  12.751
54350SOL    HW264948   4.468   5.295  12.664
54351SOL     OW64949  14.753  10.383  11.753
54351SOL    HW164950  14.837  10.424  11.771
54351SOL    HW264951  14.750  10.377  11.657
54352SOL     OW64952   6.015   9.961   7.792
54352SOL    HW164953   5.998   9.885   7.848
54352SOL    HW264954   6.042   9.924   7.708
54353SOL     OW64955  13.411   4.857  10.767
54353SOL    HW164956  13.462   4.905  10.833
54353SOL    HW264957  13.452   4.770  10.764
54354SOL     OW64958   8.225  11.230   7.172
54354SOL    HW164959   8.229  11.135   7.188
54354SOL    HW264960   8.135  11.254   7.194
54355SOL     OW64961   3.842   0.770  11.885
54355SOL    HW164962   3.895   0.848  11.870
54355SOL    HW264963   3.785   0.794  11.958
54356SOL     OW64964  12.787  14.124   0.456
54356SOL    HW164965  12.760  14.180   0.528
54356SOL    HW264966  12.883  14.121   0.462
54357SOL     OW64967  11.121  10.562  11.411
54357SOL    HW164968  11.076  10.521  11.485
54357SOL    HW264969  11.208  10.584  11.445
54358SOL     OW64970   0.272   8.822   5.153
54358SOL    HW164971   0.195   8.857   5.109
54358SOL    HW264972   0.243   8.740   5.192
54359SOL     OW64973   7.433  11.063   7.991
54359SOL    HW164974   7.388  10.996   8.044
54359SOL    HW264975   7.384  11.065   7.909
54360SOL     OW64976  11.165   1.265   6.916
54360SOL    HW164977  11.254   1.232   6.929
54360SOL    HW264978  11.161   1.346   6.967
54361SOL     OW64979   0.345   1.701   1.231
54361SOL    HW164980   0.343   1.746   1.316
54361SOL    HW264981   0.265   1.649   1.230
54362SOL     OW64982   3.290  14.342   2.671
54362SOL    HW164983   3.306  14.436   2.677
54362SOL    HW264984   3.199  14.331   2.697
54363SOL     OW64985  13.594  11.240  11.841
54363SOL    HW164986  13.631  11.222  11.754
54363SOL    HW264987  13.648  11.310  11.877
54364SOL     OW64988   8.352   5.158   5.074
54364SOL    HW164989   8.380   5.229   5.132
54364SOL    HW264990   8.272   5.124   5.114
54365SOL     OW64991   1.535   0.175  10.527
54365SOL    HW164992   1.489   0.122  10.593
54365SOL    HW264993   1.573   0.110  10.468
54366SOL     OW64994   2.117  12.609  13.434
54366SOL    HW164995   2.203  12.647  13.452
54366SOL    HW264996   2.125  12.518  13.464
54367SOL     OW64997  13.315   2.581  12.032
54367SOL    HW164998  13.318   2.517  12.103
54367SOL    HW264999  13.404   2.617  12.028
54368SOL     OW65000  14.830   0.562  10.105
54368SOL    HW165001  14.797   0.583  10.192
54368SOL    HW265002   0.042   0.573  10.112
54369SOL     OW65003  14.005  13.831   8.141
54369SOL    HW165004  13.922  13.784   8.145
54369SOL    HW265005  14.066  13.777   8.191
54370SOL     OW65006  13.302   3.977   4.557
54370SOL    HW165007  13.385   4.009   4.521
54370SOL    HW265008  13.237   4.040   4.525
54371SOL     OW65009   5.207  13.485   2.239
54371SOL    HW165010   5.289  13.459   2.280
54371SOL    HW265011   5.206  13.438   2.155
54372SOL     OW65012   3.776   1.195  10.836
54372SOL    HW165013   3.835   1.128  10.869
54372SOL    HW265014   3.702   1.147  10.800
54373SOL     OW65015   4.409   2.173   2.169
54373SOL    HW165016   4.504   2.180   2.171
54373SOL    HW265017   4.380   2.214   2.251
54374SOL     OW65018  10.782   5.715  10.875
54374SOL    HW165019  10.728   5.651  10.921
54374SOL    HW265020  10.754   5.799  10.911
54375SOL     OW65021  11.058   0.776   3.488
54375SOL    HW165022  11.103   0.751   3.407
54375SOL    HW265023  11.001   0.848   3.462
54376SOL     OW65024   0.328  11.711   9.969
54376SOL    HW165025   0.362  11.750   9.889
54376SOL    HW265026   0.245  11.670   9.943
54377SOL     OW65027  10.142  11.081   3.783
54377SOL    HW165028  10.196  11.139   3.729
54377SOL    HW265029  10.068  11.058   3.727
54378SOL     OW65030   9.279   1.033  12.124
54378SOL    HW165031   9.264   1.128  12.132
54378SOL    HW265032   9.357   1.016  12.177
54379SOL     OW65033   0.880  14.295   4.477
54379SOL    HW165034   0.950  14.236   4.504
54379SOL    HW265035   0.849  14.259   4.394
54380SOL     OW65036   5.595  12.211   7.580
54380SOL    HW165037   5.647  12.203   7.500
54380SOL    HW265038   5.652  12.257   7.641
54381SOL     OW65039   8.647  13.466  10.438
54381SOL    HW165040   8.554  13.487  10.448
54381SOL    HW265041   8.671  13.426  10.521
54382SOL     OW65042   3.480  13.651   8.436
54382SOL    HW165043   3.499  13.621   8.525
54382SOL    HW265044   3.427  13.729   8.449
54383SOL     OW65045   7.209   5.329  13.627
54383SOL    HW165046   7.190   5.376  13.546
54383SOL    HW265047   7.141   5.358  13.688
54384SOL     OW65048  10.896   2.194   1.307
54384SOL    HW165049  10.886   2.285   1.277
54384SOL    HW265050  10.984   2.192   1.346
54385SOL     OW65051  11.259  12.729  14.027
54385SOL    HW165052  11.302  12.650  14.061
54385SOL    HW265053  11.282  12.732  13.934
54386SOL     OW65054   9.680   3.470   3.995
54386SOL    HW165055   9.711   3.421   4.072
54386SOL    HW265056   9.623   3.538   4.032
54387SOL     OW65057  10.842   8.923   7.370
54387SOL    HW165058  10.926   8.879   7.366
54387SOL    HW265059  10.821   8.944   7.279
54388SOL     OW65060  14.111  13.388   7.322
54388SOL    HW165061  14.042  13.421   7.264
54388SOL    HW265062  14.193  13.408   7.278
54389SOL     OW65063   3.412   2.435  14.176
54389SOL    HW165064   3.487   2.378  14.193
54389SOL    HW265065   3.352   2.417  14.249
54390SOL     OW65066   7.463  11.898   6.831
54390SOL    HW165067   7.493  11.807   6.827
54390SOL    HW265068   7.426  11.915   6.744
54391SOL     OW65069   9.204   4.336   3.250
54391SOL    HW165070   9.122   4.356   3.295
54391SOL    HW265071   9.265   4.315   3.320
54392SOL     OW65072   1.700   3.895   2.462
54392SOL    HW165073   1.781   3.849   2.481
54392SOL    HW265074   1.727   3.985   2.444
54393SOL     OW65075   7.696  14.586   2.331
54393SOL    HW165076   7.693  14.668   2.282
54393SOL    HW265077   7.621  14.536   2.300
54394SOL     OW65078   3.451  14.381  14.331
54394SOL    HW165079   3.535  14.383  14.285
54394SOL    HW265080   3.394  14.438  14.279
54395SOL     OW65081   4.708   8.685  11.073
54395SOL    HW165082   4.669   8.769  11.049
54395SOL    HW265083   4.788   8.708  11.120
54396SOL     OW65084   9.823   5.786  12.527
54396SOL    HW165085   9.893   5.775  12.462
54396SOL    HW265086   9.749   5.820  12.477
54397SOL     OW65087   7.287   6.614  14.229
54397SOL    HW165088   7.318   6.530  14.194
54397SOL    HW265089   7.359   6.675  14.211
54398SOL     OW65090   1.088   5.966   6.102
54398SOL    HW165091   1.108   5.873   6.095
54398SOL    HW265092   0.998   5.968   6.137
54399SOL     OW65093   9.573   4.888   4.647
54399SOL    HW165094   9.618   4.819   4.696
54399SOL    HW265095   9.592   4.868   4.555
54400SOL     OW65096   6.899  14.243  13.388
54400SOL    HW165097   6.918  14.157  13.425
54400SOL    HW265098   6.815  14.233  13.344
54401SOL     OW65099   3.844  10.287   7.166
54401SOL    HW165100   3.878  10.376   7.173
54401SOL    HW265101   3.815  10.265   7.255
54402SOL     OW65102   8.862   3.390   0.687
54402SOL    HW165103   8.831   3.335   0.615
54402SOL    HW265104   8.938   3.435   0.651
54403SOL     OW65105   9.799   9.571   5.246
54403SOL    HW165106   9.720   9.560   5.194
54403SOL    HW265107   9.782   9.524   5.327
54404SOL     OW65108   0.725  10.054  11.379
54404SOL    HW165109   0.756  10.132  11.333
54404SOL    HW265110   0.725   9.985  11.312
54405SOL     OW65111   4.189   9.971   7.816
54405SOL    HW165112   4.099   9.992   7.791
54405SOL    HW265113   4.204  10.020   7.897
54406SOL     OW65114   4.636   2.056  10.441
54406SOL    HW165115   4.676   2.140  10.461
54406SOL    HW265116   4.693   2.018  10.374
54407SOL     OW65117   0.240   2.977   9.853
54407SOL    HW165118   0.307   2.909   9.862
54407SOL    HW265119   0.288   3.059   9.857
54408SOL     OW65120   0.121   6.038  10.098
54408SOL    HW165121   0.057   5.975  10.133
54408SOL    HW265122   0.200   6.023  10.149
54409SOL     OW65123  14.461   0.652   0.470
54409SOL    HW165124  14.478   0.729   0.524
54409SOL    HW265125  14.478   0.680   0.380
54410SOL     OW65126   3.502   5.270   8.460
54410SOL    HW165127   3.480   5.313   8.543
54410SOL    HW265128   3.436   5.202   8.450
54411SOL     OW65129   6.083   6.583   5.010
54411SOL    HW165130   6.090   6.606   5.102
54411SOL    HW265131   6.017   6.513   5.007
54412SOL     OW65132   5.414   0.944   3.206
54412SOL    HW165133   5.334   0.992   3.188
54412SOL    HW265134   5.465   0.950   3.126
54413SOL     OW65135   6.265  14.770  11.238
54413SOL    HW165136   6.202  14.757  11.309
54413SOL    HW265137   6.326  14.836  11.271
54414SOL     OW65138   7.963  11.813   9.938
54414SOL    HW165139   7.960  11.905   9.963
54414SOL    HW265140   8.025  11.773   9.999
54415SOL     OW65141   6.687  14.828   5.307
54415SOL    HW165142   6.750  14.781   5.252
54415SOL    HW265143   6.614  14.848   5.249
54416SOL     OW65144   3.788   1.064   9.347
54416SOL    HW165145   3.713   1.008   9.331
54416SOL    HW265146   3.763   1.119   9.421
54417SOL     OW65147   7.242   5.375   0.208
54417SOL    HW165148   7.162   5.324   0.193
54417SOL    HW265149   7.216   5.443   0.269
54418SOL     OW65150   8.760   6.218   9.366
54418SOL    HW165151   8.853   6.211   9.343
54418SOL    HW265152   8.751   6.308   9.400
54419SOL     OW65153   0.832   8.558   6.574
54419SOL    HW165154   0.891   8.482   6.565
54419SOL    HW265155   0.769   8.547   6.503
54420SOL     OW65156   2.026  10.238   1.841
54420SOL    HW165157   2.057  10.195   1.761
54420SOL    HW265158   2.086  10.311   1.854
54421SOL     OW65159  14.762   6.380   0.146
54421SOL    HW165160  14.783   6.438   0.219
54421SOL    HW265161  14.846   6.369   0.100
54422SOL     OW65162   2.457  12.147  12.049
54422SOL    HW165163   2.518  12.118  11.981
54422SOL    HW265164   2.377  12.096  12.033
54423SOL     OW65165   7.798  12.332   4.440
54423SOL    HW165166   7.893  12.333   4.437
54423SOL    HW265167   7.776  12.366   4.527
54424SOL     OW65168   5.630   1.558  13.261
54424SOL    HW165169   5.691   1.559  13.335
54424SOL    HW265170   5.579   1.478  13.273
54425SOL     OW65171   6.941   3.313  10.527
54425SOL    HW165172   6.978   3.228  10.550
54425SOL    HW265173   6.945   3.363  10.608
54426SOL     OW65174   2.973  12.975   0.512
54426SOL    HW165175   2.943  12.932   0.432
54426SOL    HW265176   2.981  12.903   0.576
54427SOL     OW65177  10.884   1.319   0.316
54427SOL    HW165178  10.796   1.295   0.288
54427SOL    HW265179  10.919   1.371   0.244
54428SOL     OW65180  10.846   1.849   3.799
54428SOL    HW165181  10.840   1.912   3.727
54428SOL    HW265182  10.903   1.780   3.766
54429SOL     OW65183  14.268   2.062   8.355
54429SOL    HW165184  14.248   1.980   8.309
54429SOL    HW265185  14.235   2.048   8.444
54430SOL     OW65186  10.765   0.019   0.202
54430SOL    HW165187  10.839  14.870   0.254
54430SOL    HW265188  10.714  14.823   0.182
54431SOL     OW65189   0.452   4.666  10.776
54431SOL    HW165190   0.462   4.617  10.858
54431SOL    HW265191   0.381   4.621  10.730
54432SOL     OW65192  10.386   8.441   4.576
54432SOL    HW165193  10.410   8.407   4.490
54432SOL    HW265194  10.460   8.497   4.601
54433SOL     OW65195   2.596   5.539  10.737
54433SOL    HW165196   2.524   5.583  10.693
54433SOL    HW265197   2.646   5.609  10.778
54434SOL     OW65198  10.688  13.754   2.219
54434SOL    HW165199  10.732  13.834   2.249
54434SOL    HW265200  10.615  13.786   2.166
54435SOL     OW65201   8.953  11.838   7.654
54435SOL    HW165202   8.959  11.865   7.745
54435SOL    HW265203   8.944  11.920   7.605
54436SOL     OW65204   2.025  10.108   4.636
54436SOL    HW165205   1.989  10.192   4.664
54436SOL    HW265206   2.115  10.109   4.667
54437SOL     OW65207   2.312   4.828  10.785
54437SOL    HW165208   2.235   4.804  10.837
54437SOL    HW265209   2.338   4.914  10.819
54438SOL     OW65210  12.642   6.224   0.719
54438SOL    HW165211  12.686   6.146   0.752
54438SOL    HW265212  12.710   6.291   0.716
54439SOL     OW65213  14.638  14.247  13.802
54439SOL    HW165214  14.696  14.213  13.734
54439SOL    HW265215  14.578  14.305  13.757
54440SOL     OW65216   0.020  13.135   0.024
54440SOL    HW165217   0.023  13.042  14.881
54440SOL    HW265218  14.818  13.144   0.069
54441SOL     OW65219   1.053   3.960   2.663
54441SOL    HW165220   1.050   4.035   2.604
54441SOL    HW265221   1.040   3.884   2.605
54442SOL     OW65222   3.860   5.737   7.807
54442SOL    HW165223   3.926   5.729   7.739
54442SOL    HW265224   3.909   5.755   7.887
54443SOL     OW65225  13.331   2.927   5.862
54443SOL    HW165226  13.335   3.022   5.855
54443SOL    HW265227  13.276   2.910   5.938
54444SOL     OW65228   6.783   0.034   7.896
54444SOL    HW165229   6.690   0.027   7.918
54444SOL    HW265230   6.812  14.826   7.884
54445SOL     OW65231   7.363   1.288   9.539
54445SOL    HW165232   7.280   1.300   9.585
54445SOL    HW265233   7.394   1.203   9.568
54446SOL     OW65234  10.595   9.661   3.966
54446SOL    HW165235  10.507   9.696   3.950
54446SOL    HW265236  10.589   9.618   4.051
54447SOL     OW65237   5.592   9.302   4.084
54447SOL    HW165238   5.599   9.387   4.128
54447SOL    HW265239   5.561   9.325   3.996
54448SOL     OW65240  13.216  13.557   8.652
54448SOL    HW165241  13.243  13.646   8.676
54448SOL    HW265242  13.275  13.500   8.701
54449SOL     OW65243   1.523   3.674   3.686
54449SOL    HW165244   1.568   3.721   3.755
54449SOL    HW265245   1.585   3.607   3.657
54450SOL     OW65246   6.828  12.835   4.005
54450SOL    HW165247   6.748  12.812   4.052
54450SOL    HW265248   6.800  12.902   3.943
54451SOL     OW65249   3.339   3.077   4.001
54451SOL    HW165250   3.434   3.075   4.010
54451SOL    HW265251   3.323   3.069   3.907
54452SOL     OW65252  11.197   6.295   6.639
54452SOL    HW165253  11.289   6.288   6.613
54452SOL    HW265254  11.150   6.306   6.556
54453SOL     OW65255   8.049  11.126   2.453
54453SOL    HW165256   7.972  11.182   2.466
54453SOL    HW265257   8.121  11.175   2.491
54454SOL     OW65258   6.389   0.535  14.485
54454SOL    HW165259   6.472   0.499  14.453
54454SOL    HW265260   6.361   0.595  14.416
54455SOL     OW65261   5.355   8.517   8.105
54455SOL    HW165262   5.306   8.581   8.156
54455SOL    HW265263   5.410   8.472   8.169
54456SOL     OW65264  14.248   9.323   6.320
54456SOL    HW165265  14.294   9.309   6.402
54456SOL    HW265266  14.295   9.395   6.278
54457SOL     OW65267   1.798  12.689   0.823
54457SOL    HW165268   1.877  12.636   0.816
54457SOL    HW265269   1.830  12.780   0.826
54458SOL     OW65270  11.549   2.336   6.436
54458SOL    HW165271  11.613   2.330   6.365
54458SOL    HW265272  11.533   2.245   6.462
54459SOL     OW65273  14.315  13.404  10.125
54459SOL    HW165274  14.235  13.436  10.084
54459SOL    HW265275  14.364  13.483  10.146
54460SOL     OW65276   3.737   6.838  13.676
54460SOL    HW165277   3.779   6.758  13.709
54460SOL    HW265278   3.661   6.850  13.734
54461SOL     OW65279   5.250   7.498  12.621
54461SOL    HW165280   5.318   7.557  12.655
54461SOL    HW265281   5.283   7.470  12.535
54462SOL     OW65282   1.294   2.883  12.809
54462SOL    HW165283   1.249   2.961  12.842
54462SOL    HW265284   1.287   2.889  12.714
54463SOL     OW65285   9.925   7.642  13.234
54463SOL    HW165286   9.946   7.695  13.310
54463SOL    HW265287   9.902   7.706  13.166
54464SOL     OW65288   7.969   4.878  14.165
54464SOL    HW165289   8.055   4.912  14.141
54464SOL    HW265290   7.925   4.951  14.209
54465SOL     OW65291   3.593   5.150  12.257
54465SOL    HW165292   3.648   5.136  12.334
54465SOL    HW265293   3.556   5.238  12.270
54466SOL     OW65294   1.396   6.999   5.724
54466SOL    HW165295   1.453   7.066   5.686
54466SOL    HW265296   1.439   6.974   5.806
54467SOL     OW65297  13.204  11.088   2.898
54467SOL    HW165298  13.118  11.057   2.871
54467SOL    HW265299  13.265  11.033   2.848
54468SOL     OW65300  13.827   4.807   1.942
54468SOL    HW165301  13.836   4.744   2.014
54468SOL    HW265302  13.776   4.879   1.979
54469SOL     OW65303   5.158   2.537   5.885
54469SOL    HW165304   5.151   2.503   5.974
54469SOL    HW265305   5.248   2.567   5.878
54470SOL     OW65306   8.672   7.468  14.335
54470SOL    HW165307   8.750   7.521  14.346
54470SOL    HW265308   8.704   7.383  14.306
54471SOL     OW65309   3.208   6.659   9.503
54471SOL    HW165310   3.120   6.667   9.541
54471SOL    HW265311   3.241   6.749   9.500
54472SOL     OW65312  12.547   7.132  12.468
54472SOL    HW165313  12.523   7.154  12.558
54472SOL    HW265314  12.625   7.185  12.450
54473SOL     OW65315  12.053   8.262  12.707
54473SOL    HW165316  12.033   8.336  12.764
54473SOL    HW265317  12.036   8.295  12.618
54474SOL     OW65318   3.399   8.187   4.271
54474SOL    HW165319   3.478   8.154   4.228
54474SOL    HW265320   3.328   8.132   4.237
54475SOL     OW65321   5.297   3.940   0.740
54475SOL    HW165322   5.217   3.926   0.689
54475SOL    HW265323   5.272   3.923   0.831
54476SOL     OW65324   4.497   5.742   7.745
54476SOL    HW165325   4.569   5.804   7.742
54476SOL    HW265326   4.466   5.744   7.835
54477SOL     OW65327  10.521  10.066  10.452
54477SOL    HW165328  10.478  10.016  10.521
54477SOL    HW265329  10.489  10.155  10.463
54478SOL     OW65330   9.831   5.083   4.372
54478SOL    HW165331   9.853   4.992   4.351
54478SOL    HW265332   9.792   5.118   4.291
54479SOL     OW65333   7.066   3.483   7.781
54479SOL    HW165334   7.124   3.558   7.765
54479SOL    HW265335   7.119   3.407   7.757
54480SOL     OW65336   0.067   7.911  11.858
54480SOL    HW165337   0.142   7.957  11.820
54480SOL    HW265338   0.070   7.933  11.951
54481SOL     OW65339  11.965  10.831   2.557
54481SOL    HW165340  12.043  10.821   2.611
54481SOL    HW265341  11.992  10.802   2.470
54482SOL     OW65342   4.458   0.069   4.110
54482SOL    HW165343   4.545   0.108   4.120
54482SOL    HW265344   4.463   0.017   4.030
54483SOL     OW65345  12.829   6.002   8.742
54483SOL    HW165346  12.788   6.081   8.706
54483SOL    HW265347  12.883   6.035   8.814
54484SOL     OW65348   1.994  13.194   3.933
54484SOL    HW165349   1.991  13.290   3.926
54484SOL    HW265350   1.905  13.166   3.912
54485SOL     OW65351   3.299   2.425  10.431
54485SOL    HW165352   3.306   2.394  10.522
54485SOL    HW265353   3.299   2.344  10.379
54486SOL     OW65354   0.864   1.958   9.290
54486SOL    HW165355   0.798   1.976   9.357
54486SOL    HW265356   0.814   1.943   9.210
54487SOL     OW65357  10.173   5.257   6.149
54487SOL    HW165358  10.224   5.257   6.230
54487SOL    HW265359  10.238   5.246   6.079
54488SOL     OW65360   2.428   9.319   4.050
54488SOL    HW165361   2.337   9.339   4.074
54488SOL    HW265362   2.476   9.399   4.071
54489SOL     OW65363   4.973   0.094  10.629
54489SOL    HW165364   5.028   0.118  10.704
54489SOL    HW265365   5.019   0.130  10.553
54490SOL     OW65366   4.010  12.379   0.834
54490SOL    HW165367   3.964  12.324   0.770
54490SOL    HW265368   3.952  12.454   0.848
54491SOL     OW65369  11.760   8.636   3.551
54491SOL    HW165370  11.719   8.567   3.499
54491SOL    HW265371  11.790   8.700   3.486
54492SOL     OW65372  14.490   5.685  13.197
54492SOL    HW165373  14.467   5.664  13.107
54492SOL    HW265374  14.412   5.662  13.248
54493SOL     OW65375   6.807   8.900   0.203
54493SOL    HW165376   6.864   8.929   0.274
54493SOL    HW265377   6.840   8.813   0.180
54494SOL     OW65378   6.236   3.876  13.004
54494SOL    HW165379   6.291   3.934  13.056
54494SOL    HW265380   6.147   3.901  13.026
54495SOL     OW65381  12.832  12.658   7.017
54495SOL    HW165382  12.902  12.686   6.957
54495SOL    HW265383  12.775  12.735   7.022
54496SOL     OW65384   5.759   9.081  11.958
54496SOL    HW165385   5.830   9.106  12.016
54496SOL    HW265386   5.802   9.049  11.879
54497SOL     OW65387  11.906  11.426   6.759
54497SOL    HW165388  11.843  11.356   6.776
54497SOL    HW265389  11.895  11.447   6.667
54498SOL     OW65390   2.990   2.628   8.581
54498SOL    HW165391   3.051   2.639   8.654
54498SOL    HW265392   3.044   2.639   8.503
54499SOL     OW65393  12.451   3.305   3.104
54499SOL    HW165394  12.379   3.260   3.059
54499SOL    HW265395  12.451   3.393   3.067
54500SOL     OW65396   7.262   4.701   4.722
54500SOL    HW165397   7.257   4.778   4.778
54500SOL    HW265398   7.273   4.628   4.782
54501SOL     OW65399   8.750   2.853   3.366
54501SOL    HW165400   8.767   2.877   3.457
54501SOL    HW265401   8.716   2.763   3.371
54502SOL     OW65402   2.943  11.846   1.096
54502SOL    HW165403   2.981  11.808   1.176
54502SOL    HW265404   2.863  11.888   1.125
54503SOL     OW65405  12.536  12.034  11.872
54503SOL    HW165406  12.466  12.076  11.821
54503SOL    HW265407  12.602  12.102  11.882
54504SOL     OW65408  12.676   5.761   7.306
54504SOL    HW165409  12.636   5.757   7.219
54504SOL    HW265410  12.609   5.723   7.364
54505SOL     OW65411  10.648  13.761   6.607
54505SOL    HW165412  10.689  13.834   6.653
54505SOL    HW265413  10.721  13.711   6.571
54506SOL     OW65414   1.212   8.556   8.355
54506SOL    HW165415   1.225   8.473   8.401
54506SOL    HW265416   1.300   8.593   8.347
54507SOL     OW65417   5.130   4.417  13.183
54507SOL    HW165418   5.080   4.338  13.168
54507SOL    HW265419   5.067   4.489  13.171
54508SOL     OW65420   3.454   0.512  14.088
54508SOL    HW165421   3.385   0.475  14.143
54508SOL    HW265422   3.409   0.575  14.032
54509SOL     OW65423   0.467   3.649  14.125
54509SOL    HW165424   0.462   3.556  14.101
54509SOL    HW265425   0.560   3.670  14.117
54510SOL     OW65426   4.731  11.135  14.377
54510SOL    HW165427   4.815  11.125  14.331
54510SOL    HW265428   4.756  11.146  14.469
54511SOL     OW65429   7.546  10.146   4.501
54511SOL    HW165430   7.479  10.119   4.438
54511SOL    HW265431   7.500  10.150   4.585
54512SOL     OW65432   8.455  11.602   9.827
54512SOL    HW165433   8.461  11.569   9.737
54512SOL    HW265434   8.507  11.682   9.827
54513SOL     OW65435   3.185   4.631   5.351
54513SOL    HW165436   3.239   4.559   5.318
54513SOL    HW265437   3.234   4.665   5.425
54514SOL     OW65438   5.813   8.355   4.138
54514SOL    HW165439   5.894   8.313   4.168
54514SOL    HW265440   5.788   8.306   4.060
54515SOL     OW65441   9.794   6.764   9.032
54515SOL    HW165442   9.781   6.858   9.038
54515SOL    HW265443   9.873   6.753   8.979
54516SOL     OW65444  11.897   7.572   6.221
54516SOL    HW165445  11.882   7.492   6.170
54516SOL    HW265446  11.902   7.543   6.312
54517SOL     OW65447  11.914   4.286  10.675
54517SOL    HW165448  11.861   4.347  10.726
54517SOL    HW265449  11.861   4.207  10.669
54518SOL     OW65450   0.036  10.304   4.154
54518SOL    HW165451  14.872  10.300   4.070
54518SOL    HW265452   0.078  10.390   4.153
54519SOL     OW65453   8.148   6.468  11.757
54519SOL    HW165454   8.106   6.384  11.738
54519SOL    HW265455   8.078   6.521  11.796
54520SOL     OW65456   4.598   9.863   8.818
54520SOL    HW165457   4.570   9.901   8.901
54520SOL    HW265458   4.540   9.788   8.804
54521SOL     OW65459  14.164   4.695  12.507
54521SOL    HW165460  14.170   4.612  12.459
54521SOL    HW265461  14.112   4.752  12.450
54522SOL     OW65462   3.401   2.356   0.865
54522SOL    HW165463   3.460   2.338   0.938
54522SOL    HW265464   3.407   2.279   0.809
54523SOL     OW65465   4.098  12.872  13.599
54523SOL    HW165466   4.043  12.830  13.666
54523SOL    HW265467   4.165  12.918  13.650
54524SOL     OW65468  13.836   7.162  11.027
54524SOL    HW165469  13.868   7.111  11.101
54524SOL    HW265470  13.846   7.103  10.952
54525SOL     OW65471  11.177   1.669   8.179
54525SOL    HW165472  11.270   1.649   8.166
54525SOL    HW265473  11.146   1.696   8.093
54526SOL     OW65474  12.579   4.740   0.568
54526SOL    HW165475  12.671   4.720   0.581
54526SOL    HW265476  12.577   4.792   0.488
54527SOL     OW65477   6.740   5.486   7.432
54527SOL    HW165478   6.831   5.497   7.406
54527SOL    HW265479   6.721   5.562   7.488
54528SOL     OW65480   2.707  12.944   0.195
54528SOL    HW165481   2.736  13.028   0.230
54528SOL    HW265482   2.691  12.962   0.102
54529SOL     OW65483  12.913  12.451   3.641
54529SOL    HW165484  12.913  12.465   3.735
54529SOL    HW265485  12.823  12.427   3.620
54530SOL     OW65486   1.465   4.917  13.603
54530SOL    HW165487   1.476   5.010  13.619
54530SOL    HW265488   1.520   4.898  13.527
54531SOL     OW65489  11.120  11.267  13.972
54531SOL    HW165490  11.044  11.268  14.031
54531SOL    HW265491  11.150  11.176  13.973
54532SOL     OW65492  10.323   6.299   5.995
54532SOL    HW165493  10.243   6.318   6.044
54532SOL    HW265494  10.309   6.341   5.910
54533SOL     OW65495  10.792  11.931   8.584
54533SOL    HW165496  10.727  11.998   8.562
54533SOL    HW265497  10.871  11.958   8.538
54534SOL     OW65498   3.836   5.540   1.437
54534SOL    HW165499   3.771   5.609   1.421
54534SOL    HW265500   3.803   5.465   1.387
54535SOL     OW65501  11.939   0.287   7.285
54535SOL    HW165502  11.880   0.362   7.280
54535SOL    HW265503  12.017   0.314   7.237
54536SOL     OW65504   1.140   7.990  12.192
54536SOL    HW165505   1.202   8.021  12.126
54536SOL    HW265506   1.133   7.896  12.177
54537SOL     OW65507  11.836  13.301   0.169
54537SOL    HW165508  11.886  13.368   0.123
54537SOL    HW265509  11.809  13.343   0.250
54538SOL     OW65510   8.750   1.544   4.604
54538SOL    HW165511   8.809   1.608   4.563
54538SOL    HW265512   8.805   1.498   4.667
54539SOL     OW65513  10.931   0.551   3.810
54539SOL    HW165514  11.015   0.591   3.784
54539SOL    HW265515  10.869   0.624   3.809
54540SOL     OW65516   2.911   1.364   3.003
54540SOL    HW165517   2.862   1.309   3.065
54540SOL    HW265518   2.853   1.437   2.984
54541SOL     OW65519   4.527   4.179  10.478
54541SOL    HW165520   4.549   4.262  10.521
54541SOL    HW265521   4.611   4.136  10.463
54542SOL     OW65522   1.141  14.255  11.661
54542SOL    HW165523   1.204  14.323  11.681
54542SOL    HW265524   1.075  14.299  11.607
54543SOL     OW65525   6.802   3.766  14.239
54543SOL    HW165526   6.857   3.707  14.189
54543SOL    HW265527   6.725   3.780  14.184
54544SOL     OW65528  11.284   0.924  11.621
54544SOL    HW165529  11.231   1.003  11.633
54544SOL    HW265530  11.233   0.855  11.663
54545SOL     OW65531  12.334   6.582   6.529
54545SOL    HW165532  12.377   6.549   6.450
54545SOL    HW265533  12.406   6.600   6.590
54546SOL     OW65534   6.926   5.365   5.968
54546SOL    HW165535   6.997   5.395   5.911
54546SOL    HW265536   6.915   5.436   6.031
54547SOL     OW65537   5.277   1.899   1.770
54547SOL    HW165538   5.345   1.851   1.816
54547SOL    HW265539   5.209   1.834   1.752
54548SOL     OW65540   9.914   7.795   8.569
54548SOL    HW165541   9.888   7.824   8.482
54548SOL    HW265542   9.888   7.867   8.627
54549SOL     OW65543  13.727  10.891  10.118
54549SOL    HW165544  13.766  10.933  10.195
54549SOL    HW265545  13.763  10.941  10.044
54550SOL     OW65546  13.949   3.833   7.077
54550SOL    HW165547  14.015   3.821   7.146
54550SOL    HW265548  13.880   3.884   7.119
54551SOL     OW65549  12.438   3.579   1.134
54551SOL    HW165550  12.413   3.623   1.052
54551SOL    HW265551  12.489   3.504   1.106
54552SOL     OW65552   7.678   6.314   6.787
54552SOL    HW165553   7.660   6.261   6.864
54552SOL    HW265554   7.664   6.255   6.713
54553SOL     OW65555   7.399   2.017  14.537
54553SOL    HW165556   7.311   1.987  14.558
54553SOL    HW265557   7.425   1.964  14.462
54554SOL     OW65558  12.089   1.489   4.729
54554SOL    HW165559  12.019   1.468   4.791
54554SOL    HW265560  12.151   1.416   4.737
54555SOL     OW65561  13.290   0.126   5.068
54555SOL    HW165562  13.324   0.102   5.155
54555SOL    HW265563  13.256   0.215   5.080
54556SOL     OW65564   5.279  11.653   1.953
54556SOL    HW165565   5.311  11.563   1.957
54556SOL    HW265566   5.263  11.676   2.044
54557SOL     OW65567  12.922   4.400  13.543
54557SOL    HW165568  12.974   4.440  13.473
54557SOL    HW265569  12.839   4.378  13.501
54558SOL     OW65570   6.395   5.742   1.712
54558SOL    HW165571   6.471   5.800   1.713
54558SOL    HW265572   6.388   5.714   1.620
54559SOL     OW65573   2.191  14.833   0.038
54559SOL    HW165574   2.186   0.001   0.119
54559SOL    HW265575   2.178  14.742   0.065
54560SOL     OW65576   2.471   3.482   7.160
54560SOL    HW165577   2.535   3.442   7.101
54560SOL    HW265578   2.507   3.467   7.248
54561SOL     OW65579   5.919   4.675   7.304
54561SOL    HW165580   5.981   4.668   7.376
54561SOL    HW265581   5.960   4.733   7.241
54562SOL     OW65582  13.608   4.849   4.733
54562SOL    HW165583  13.566   4.784   4.677
54562SOL    HW265584  13.544   4.865   4.803
54563SOL     OW65585   5.218  11.388  11.880
54563SOL    HW165586   5.172  11.316  11.836
54563SOL    HW265587   5.310  11.374  11.859
54564SOL     OW65588   8.831  10.918   3.338
54564SOL    HW165589   8.907  10.957   3.294
54564SOL    HW265590   8.868  10.876   3.416
54565SOL     OW65591   7.522   8.048   6.511
54565SOL    HW165592   7.617   8.036   6.517
54565SOL    HW265593   7.486   7.961   6.527
54566SOL     OW65594   2.312   7.712   7.691
54566SOL    HW165595   2.301   7.621   7.720
54566SOL    HW265596   2.406   7.729   7.700
54567SOL     OW65597  11.985   5.213   1.837
54567SOL    HW165598  12.008   5.131   1.880
54567SOL    HW265599  11.903   5.194   1.793
54568SOL     OW65600   7.570   3.794   0.407
54568SOL    HW165601   7.570   3.888   0.389
54568SOL    HW265602   7.521   3.755   0.335
54569SOL     OW65603  13.163   2.006   9.419
54569SOL    HW165604  13.087   2.064   9.417
54569SOL    HW265605  13.235   2.060   9.389
54570SOL     OW65606  14.644   0.313  13.181
54570SOL    HW165607  14.646   0.237  13.124
54570SOL    HW265608  14.666   0.387  13.124
54571SOL     OW65609   2.011  13.216   3.618
54571SOL    HW165610   2.086  13.156   3.613
54571SOL    HW265611   2.030  13.272   3.694
54572SOL     OW65612   9.801   6.337  10.202
54572SOL    HW165613   9.890   6.334  10.168
54572SOL    HW265614   9.798   6.271  10.270
54573SOL     OW65615   4.183   8.792   9.976
54573SOL    HW165616   4.153   8.879   9.949
54573SOL    HW265617   4.118   8.732   9.940
54574SOL     OW65618  10.383  14.316   2.337
54574SOL    HW165619  10.325  14.392   2.347
54574SOL    HW265620  10.417  14.325   2.248
54575SOL     OW65621   3.971   5.710   3.059
54575SOL    HW165622   4.008   5.683   2.975
54575SOL    HW265623   3.964   5.805   3.052
54576SOL     OW65624   4.082   5.237   8.074
54576SOL    HW165625   4.067   5.180   8.150
54576SOL    HW265626   4.135   5.184   8.015
54577SOL     OW65627  14.723   2.490   8.048
54577SOL    HW165628  14.662   2.447   7.988
54577SOL    HW265629  14.675   2.495   8.130
54578SOL     OW65630  14.067   2.182  10.194
54578SOL    HW165631  14.075   2.091  10.164
54578SOL    HW265632  14.145   2.225  10.160
54579SOL     OW65633  13.988  14.715   5.282
54579SOL    HW165634  13.981  14.740   5.190
54579SOL    HW265635  14.073  14.749   5.309
54580SOL     OW65636   8.633  10.577  11.514
54580SOL    HW165637   8.542  10.549  11.524
54580SOL    HW265638   8.668  10.576  11.603
54581SOL     OW65639  12.847   2.297   0.986
54581SOL    HW165640  12.818   2.279   1.076
54581SOL    HW265641  12.780   2.354   0.950
54582SOL     OW65642  12.155   9.669  14.232
54582SOL    HW165643  12.171   9.575  14.243
54582SOL    HW265644  12.092   9.691  14.301
54583SOL     OW65645   1.566   0.121   4.541
54583SOL    HW165646   1.540   0.037   4.502
54583SOL    HW265647   1.580   0.101   4.633
54584SOL     OW65648   6.931   7.276  12.862
54584SOL    HW165649   6.878   7.258  12.784
54584SOL    HW265650   7.022   7.266  12.832
54585SOL     OW65651  12.760  11.019  11.734
54585SOL    HW165652  12.820  10.998  11.806
54585SOL    HW265653  12.681  11.052  11.777
54586SOL     OW65654   6.005   8.992   8.532
54586SOL    HW165655   5.982   9.065   8.476
54586SOL    HW265656   5.932   8.931   8.523
54587SOL     OW65657   4.803   8.389   4.973
54587SOL    HW165658   4.729   8.343   4.934
54587SOL    HW265659   4.782   8.393   5.066
54588SOL     OW65660   4.290   9.517   5.627
54588SOL    HW165661   4.278   9.595   5.681
54588SOL    HW265662   4.280   9.444   5.687
54589SOL     OW65663   6.341  14.276   9.197
54589SOL    HW165664   6.303  14.284   9.284
54589SOL    HW265665   6.285  14.331   9.142
54590SOL     OW65666   0.721  11.864   7.143
54590SOL    HW165667   0.728  11.801   7.070
54590SOL    HW265668   0.792  11.926   7.128
54591SOL     OW65669   3.842   0.236   7.746
54591SOL    HW165670   3.845   0.158   7.802
54591SOL    HW265671   3.844   0.201   7.657
54592SOL     OW65672   3.391   8.698   3.869
54592SOL    HW165673   3.323   8.635   3.847
54592SOL    HW265674   3.365   8.732   3.955
54593SOL     OW65675   5.871  10.023  10.765
54593SOL    HW165676   5.954  10.067  10.751
54593SOL    HW265677   5.830  10.070  10.837
54594SOL     OW65678   4.202   9.913   6.739
54594SOL    HW165679   4.236   9.990   6.694
54594SOL    HW265680   4.252   9.909   6.821
54595SOL     OW65681   4.475  11.964   7.422
54595SOL    HW165682   4.438  11.911   7.352
54595SOL    HW265683   4.570  11.951   7.414
54596SOL     OW65684  10.328   5.101   2.740
54596SOL    HW165685  10.317   5.011   2.768
54596SOL    HW265686  10.349   5.149   2.820
54597SOL     OW65687   8.497   8.200   8.623
54597SOL    HW165688   8.523   8.278   8.673
54597SOL    HW265689   8.402   8.194   8.638
54598SOL     OW65690   6.232   2.449   0.457
54598SOL    HW165691   6.250   2.375   0.515
54598SOL    HW265692   6.188   2.410   0.382
54599SOL     OW65693   4.998  10.091  13.793
54599SOL    HW165694   5.014  10.056  13.881
54599SOL    HW265695   4.908  10.122  13.795
54600SOL     OW65696   0.523   8.839   5.572
54600SOL    HW165697   0.560   8.779   5.638
54600SOL    HW265698   0.502   8.918   5.621
54601SOL     OW65699   2.393   5.082   8.096
54601SOL    HW165700   2.317   5.139   8.105
54601SOL    HW265701   2.409   5.048   8.183
54602SOL     OW65702   0.474   2.583   6.667
54602SOL    HW165703   0.398   2.553   6.716
54602SOL    HW265704   0.467   2.539   6.582
54603SOL     OW65705   5.089  10.458   4.865
54603SOL    HW165706   5.071  10.473   4.958
54603SOL    HW265707   5.178  10.491   4.852
54604SOL     OW65708   9.065   9.855   4.252
54604SOL    HW165709   8.976   9.819   4.247
54604SOL    HW265710   9.118   9.783   4.287
54605SOL     OW65711   5.438   5.508   5.596
54605SOL    HW165712   5.368   5.572   5.579
54605SOL    HW265713   5.393   5.424   5.602
54606SOL     OW65714  11.113  13.563   7.041
54606SOL    HW165715  11.096  13.512   7.121
54606SOL    HW265716  11.056  13.639   7.048
54607SOL     OW65717  11.148  10.128  10.308
54607SOL    HW165718  11.101  10.058  10.354
54607SOL    HW265719  11.078  10.184  10.273
54608SOL     OW65720  10.457   1.597  12.536
54608SOL    HW165721  10.407   1.628  12.461
54608SOL    HW265722  10.512   1.527  12.502
54609SOL     OW65723   9.209  12.039   5.458
54609SOL    HW165724   9.161  12.025   5.539
54609SOL    HW265725   9.171  11.977   5.396
54610SOL     OW65726   6.091   4.820  12.886
54610SOL    HW165727   6.041   4.804  12.966
54610SOL    HW265728   6.096   4.734  12.844
54611SOL     OW65729  12.800   2.859   7.170
54611SOL    HW165730  12.852   2.807   7.231
54611SOL    HW265731  12.863   2.919   7.130
54612SOL     OW65732   6.460  12.829  11.379
54612SOL    HW165733   6.420  12.764  11.322
54612SOL    HW265734   6.493  12.779  11.454
54613SOL     OW65735  11.198   5.048   0.892
54613SOL    HW165736  11.241   5.107   0.830
54613SOL    HW265737  11.173   4.972   0.839
54614SOL     OW65738   8.263  10.563   0.323
54614SOL    HW165739   8.310  10.646   0.326
54614SOL    HW265740   8.306  10.513   0.254
54615SOL     OW65741   7.156   5.657   4.906
54615SOL    HW165742   7.113   5.595   4.846
54615SOL    HW265743   7.178   5.732   4.851
54616SOL     OW65744  13.955   8.100   1.366
54616SOL    HW165745  13.954   8.035   1.437
54616SOL    HW265746  13.931   8.182   1.408
54617SOL     OW65747  13.955   8.657  13.633
54617SOL    HW165748  13.986   8.569  13.613
54617SOL    HW265749  13.965   8.666  13.728
54618SOL     OW65750  11.568  13.402   2.713
54618SOL    HW165751  11.605  13.451   2.786
54618SOL    HW265752  11.579  13.310   2.738
54619SOL     OW65753   2.789   6.413   8.714
54619SOL    HW165754   2.883   6.428   8.724
54619SOL    HW265755   2.748   6.481   8.768
54620SOL     OW65756   9.880  12.797   0.232
54620SOL    HW165757   9.893  12.726   0.294
54620SOL    HW265758   9.935  12.775   0.157
54621SOL     OW65759   8.794   3.368   6.372
54621SOL    HW165760   8.761   3.311   6.303
54621SOL    HW265761   8.737   3.352   6.447
54622SOL     OW65762  10.928   5.541   8.211
54622SOL    HW165763  10.874   5.613   8.177
54622SOL    HW265764  11.015   5.557   8.175
54623SOL     OW65765  11.597   8.573   1.020
54623SOL    HW165766  11.656   8.605   1.089
54623SOL    HW265767  11.651   8.576   0.941
54624SOL     OW65768  14.368   2.942   8.445
54624SOL    HW165769  14.358   3.002   8.371
54624SOL    HW265770  14.284   2.895   8.449
54625SOL     OW65771   5.987  14.516  13.088
54625SOL    HW165772   5.931  14.591  13.111
54625SOL    HW265773   5.944  14.476  13.013
54626SOL     OW65774  14.226   7.932   2.738
54626SOL    HW165775  14.320   7.946   2.750
54626SOL    HW265776  14.194   8.017   2.705
54627SOL     OW65777  10.409  13.498  10.101
54627SOL    HW165778  10.467  13.574  10.095
54627SOL    HW265779  10.370  13.505  10.188
54628SOL     OW65780   0.407   6.890   6.951
54628SOL    HW165781   0.337   6.837   6.912
54628SOL    HW265782   0.384   6.980   6.930
54629SOL     OW65783   0.546   2.686  12.573
54629SOL    HW165784   0.496   2.759  12.538
54629SOL    HW265785   0.489   2.610  12.561
54630SOL     OW65786  11.680   4.035   3.638
54630SOL    HW165787  11.626   4.061   3.713
54630SOL    HW265788  11.770   4.038   3.672
54631SOL     OW65789   6.734   9.886   8.102
54631SOL    HW165790   6.728   9.905   8.009
54631SOL    HW265791   6.756   9.793   8.107
54632SOL     OW65792   0.963   1.577   8.337
54632SOL    HW165793   1.015   1.553   8.414
54632SOL    HW265794   0.894   1.634   8.371
54633SOL     OW65795   0.490   9.121   0.615
54633SOL    HW165796   0.522   9.159   0.533
54633SOL    HW265797   0.530   9.035   0.620
54634SOL     OW65798   5.974   1.164   4.444
54634SOL    HW165799   6.008   1.077   4.464
54634SOL    HW265800   5.970   1.208   4.529
54635SOL     OW65801   8.735   5.139   0.178
54635SOL    HW165802   8.816   5.146   0.228
54635SOL    HW265803   8.667   5.126   0.245
54636SOL     OW65804   1.756   1.893   2.635
54636SOL    HW165805   1.779   1.830   2.567
54636SOL    HW265806   1.740   1.975   2.587
54637SOL     OW65807   8.506  11.879   9.279
54637SOL    HW165808   8.523  11.847   9.368
54637SOL    HW265809   8.411  11.880   9.271
54638SOL     OW65810  11.636   2.073   0.136
54638SOL    HW165811  11.665   2.160   0.165
54638SOL    HW265812  11.706   2.014   0.163
54639SOL     OW65813  10.515   0.133   7.314
54639SOL    HW165814  10.451   0.201   7.337
54639SOL    HW265815  10.538   0.152   7.223
54640SOL     OW65816  11.513   6.183   9.122
54640SOL    HW165817  11.506   6.088   9.118
54640SOL    HW265818  11.423   6.214   9.132
54641SOL     OW65819   4.520  13.833   9.203
54641SOL    HW165820   4.504  13.914   9.155
54641SOL    HW265821   4.456  13.835   9.274
54642SOL     OW65822   4.870  13.606   3.761
54642SOL    HW165823   4.874  13.530   3.703
54642SOL    HW265824   4.828  13.674   3.709
54643SOL     OW65825  12.064  14.503   4.579
54643SOL    HW165826  12.021  14.418   4.592
54643SOL    HW265827  12.026  14.560   4.646
54644SOL     OW65828   5.937   9.556   4.703
54644SOL    HW165829   5.915   9.473   4.745
54644SOL    HW265830   5.855   9.605   4.702
54645SOL     OW65831   9.686   7.729  12.136
54645SOL    HW165832   9.613   7.689  12.089
54645SOL    HW265833   9.658   7.730  12.228
54646SOL     OW65834   0.590   2.916   0.777
54646SOL    HW165835   0.497   2.915   0.755
54646SOL    HW265836   0.622   2.831   0.746
54647SOL     OW65837  11.287   4.426  14.391
54647SOL    HW165838  11.216   4.389  14.338
54647SOL    HW265839  11.249   4.438  14.478
54648SOL     OW65840   0.332   8.638   9.552
54648SOL    HW165841   0.272   8.613   9.482
54648SOL    HW265842   0.312   8.730   9.568
54649SOL     OW65843  11.856   1.150   7.205
54649SOL    HW165844  11.871   1.169   7.113
54649SOL    HW265845  11.811   1.227   7.239
54650SOL     OW65846  11.122  12.482  13.809
54650SOL    HW165847  11.079  12.418  13.752
54650SOL    HW265848  11.108  12.566  13.766
54651SOL     OW65849  14.398  11.748   7.263
54651SOL    HW165850  14.353  11.665   7.280
54651SOL    HW265851  14.481  11.740   7.310
54652SOL     OW65852   3.875   9.716   6.167
54652SOL    HW165853   3.869   9.648   6.099
54652SOL    HW265854   3.954   9.765   6.144
54653SOL     OW65855  11.614   3.087   5.467
54653SOL    HW165856  11.673   3.013   5.477
54653SOL    HW265857  11.545   3.057   5.408
54654SOL     OW65858   5.859   2.853   9.188
54654SOL    HW165859   5.901   2.863   9.273
54654SOL    HW265860   5.791   2.787   9.202
54655SOL     OW65861   4.531   9.285  11.612
54655SOL    HW165862   4.589   9.258  11.684
54655SOL    HW265863   4.443   9.279  11.648
54656SOL     OW65864   2.520  10.196   7.420
54656SOL    HW165865   2.574  10.123   7.390
54656SOL    HW265866   2.433  10.177   7.384
54657SOL     OW65867   4.697   5.340  13.749
54657SOL    HW165868   4.657   5.264  13.790
54657SOL    HW265869   4.631   5.409  13.757
54658SOL     OW65870   6.089   4.659   1.754
54658SOL    HW165871   6.003   4.619   1.740
54658SOL    HW265872   6.130   4.604   1.821
54659SOL     OW65873   3.571   4.445  12.421
54659SOL    HW165874   3.500   4.398  12.466
54659SOL    HW265875   3.607   4.380  12.360
54660SOL     OW65876   0.871   3.051   2.731
54660SOL    HW165877   0.960   3.078   2.711
54660SOL    HW265878   0.876   2.957   2.743
54661SOL     OW65879   1.394   0.187  12.891
54661SOL    HW165880   1.379   0.278  12.863
54661SOL    HW265881   1.311   0.143  12.873
54662SOL     OW65882   7.855   3.184   3.699
54662SOL    HW165883   7.871   3.123   3.771
54662SOL    HW265884   7.769   3.222   3.718
54663SOL     OW65885  11.190   0.600  11.660
54663SOL    HW165886  11.125   0.659  11.620
54663SOL    HW265887  11.162   0.592  11.751
54664SOL     OW65888   3.608   5.753   5.141
54664SOL    HW165889   3.591   5.666   5.106
54664SOL    HW265890   3.651   5.736   5.225
54665SOL     OW65891   1.553   6.036   6.540
54665SOL    HW165892   1.458   6.046   6.540
54665SOL    HW265893   1.577   6.042   6.633
54666SOL     OW65894   0.492  11.395  12.469
54666SOL    HW165895   0.482  11.300  12.468
54666SOL    HW265896   0.485  11.421  12.378
54667SOL     OW65897   2.953   7.777  11.834
54667SOL    HW165898   2.955   7.856  11.780
54667SOL    HW265899   2.890   7.719  11.791
54668SOL     OW65900   7.128   9.148   2.807
54668SOL    HW165901   7.053   9.189   2.763
54668SOL    HW265902   7.183   9.221   2.834
54669SOL     OW65903  12.212   1.381   9.341
54669SOL    HW165904  12.235   1.293   9.313
54669SOL    HW265905  12.288   1.435   9.315
54670SOL     OW65906  12.202  11.684  13.700
54670SOL    HW165907  12.285  11.732  13.707
54670SOL    HW265908  12.152  11.735  13.636
54671SOL     OW65909   7.404   3.333   6.499
54671SOL    HW165910   7.345   3.282   6.443
54671SOL    HW265911   7.492   3.299   6.479
54672SOL     OW65912   8.067   8.405   8.333
54672SOL    HW165913   8.019   8.415   8.250
54672SOL    HW265914   8.159   8.414   8.309
54673SOL     OW65915   6.911  13.099  13.885
54673SOL    HW165916   6.888  13.006  13.888
54673SOL    HW265917   6.873  13.136  13.965
54674SOL     OW65918  11.664   4.854   8.585
54674SOL    HW165919  11.580   4.897   8.570
54674SOL    HW265920  11.651   4.801   8.664
54675SOL     OW65921   7.406   9.468   4.267
54675SOL    HW165922   7.389   9.521   4.345
54675SOL    HW265923   7.369   9.382   4.287
54676SOL     OW65924   1.320  12.937  13.772
54676SOL    HW165925   1.412  12.939  13.800
54676SOL    HW265926   1.270  12.945  13.854
54677SOL     OW65927   0.668   1.857  13.715
54677SOL    HW165928   0.724   1.931  13.740
54677SOL    HW265929   0.584   1.897  13.692
54678SOL     OW65930  14.874  14.834  14.380
54678SOL    HW165931   0.030   0.034  14.410
54678SOL    HW265932   0.019  14.827  14.289
54679SOL     OW65933   5.027   1.107   3.796
54679SOL    HW165934   4.953   1.139   3.743
54679SOL    HW265935   5.007   1.139   3.884
54680SOL     OW65936   1.247  12.849   1.839
54680SOL    HW165937   1.333  12.879   1.811
54680SOL    HW265938   1.261  12.814   1.928
54681SOL     OW65939   6.518   7.395  13.696
54681SOL    HW165940   6.609   7.364  13.691
54681SOL    HW265941   6.466   7.316  13.709
54682SOL     OW65942   2.758  10.547   0.217
54682SOL    HW165943   2.816  10.621   0.200
54682SOL    HW265944   2.738  10.511   0.131
54683SOL     OW65945   5.334   0.728  11.991
54683SOL    HW165946   5.333   0.810  12.039
54683SOL    HW265947   5.242   0.704  11.982
54684SOL     OW65948  13.156   5.940   8.558
54684SOL    HW165949  13.245   5.967   8.538
54684SOL    HW265950  13.102   6.017   8.536
54685SOL     OW65951   3.098  13.419   1.999
54685SOL    HW165952   3.123  13.508   1.974
54685SOL    HW265953   3.109  13.368   1.918
54686SOL     OW65954   0.958  11.193  14.623
54686SOL    HW165955   0.931  11.168  14.534
54686SOL    HW265956   1.050  11.168  14.628
54687SOL     OW65957  12.838   0.108   4.281
54687SOL    HW165958  12.749   0.100   4.247
54687SOL    HW265959  12.829   0.156   4.363
54688SOL     OW65960   4.738   0.265   2.896
54688SOL    HW165961   4.668   0.215   2.854
54688SOL    HW265962   4.697   0.349   2.917
54689SOL     OW65963   9.341   0.407   8.735
54689SOL    HW165964   9.401   0.478   8.760
54689SOL    HW265965   9.396   0.345   8.687
54690SOL     OW65966  10.751   5.560   3.733
54690SOL    HW165967  10.777   5.475   3.698
54690SOL    HW265968  10.772   5.555   3.826
54691SOL     OW65969  10.784   8.692   5.299
54691SOL    HW165970  10.742   8.608   5.278
54691SOL    HW265971  10.718   8.758   5.277
54692SOL     OW65972   8.037  14.656   0.227
54692SOL    HW165973   7.983  14.666   0.149
54692SOL    HW265974   8.124  14.633   0.193
54693SOL     OW65975   8.936   0.521   2.109
54693SOL    HW165976   9.007   0.532   2.046
54693SOL    HW265977   8.869   0.584   2.080
54694SOL     OW65978   5.170   6.729   3.916
54694SOL    HW165979   5.161   6.705   3.824
54694SOL    HW265980   5.204   6.819   3.915
54695SOL     OW65981   7.015   4.842   9.272
54695SOL    HW165982   7.084   4.908   9.261
54695SOL    HW265983   6.957   4.855   9.198
54696SOL     OW65984   5.676   0.363   5.004
54696SOL    HW165985   5.595   0.351   4.954
54696SOL    HW265986   5.720   0.437   4.961
54697SOL     OW65987   2.777  10.504   1.651
54697SOL    HW165988   2.852  10.450   1.675
54697SOL    HW265989   2.782  10.580   1.709
54698SOL     OW65990   8.516   4.345  14.321
54698SOL    HW165991   8.510   4.419  14.261
54698SOL    HW265992   8.517   4.268  14.264
54699SOL     OW65993  10.227   5.030  10.840
54699SOL    HW165994  10.204   5.123  10.851
54699SOL    HW265995  10.229   4.995  10.929
54700SOL     OW65996   6.581   1.081   3.384
54700SOL    HW165997   6.539   1.163   3.410
54700SOL    HW265998   6.633   1.056   3.460
54701SOL     OW65999   6.968   8.606   8.748
54701SOL    HW166000   6.962   8.512   8.759
54701SOL    HW266001   6.952   8.621   8.655
54702SOL     OW66002   9.613  11.206   6.621
54702SOL    HW166003   9.603  11.296   6.588
54702SOL    HW266004   9.633  11.218   6.714
54703SOL     OW66005   2.077   3.247   5.386
54703SOL    HW166006   2.068   3.193   5.465
54703SOL    HW266007   2.032   3.197   5.318
54704SOL     OW66008  11.429  11.936   3.978
54704SOL    HW166009  11.372  12.012   3.989
54704SOL    HW266010  11.371  11.867   3.943
54705SOL     OW66011   8.330   3.009   8.436
54705SOL    HW166012   8.281   3.079   8.480
54705SOL    HW266013   8.418   3.044   8.425
54706SOL     OW66014   4.328   5.760  12.861
54706SOL    HW166015   4.247   5.777  12.908
54706SOL    HW266016   4.314   5.799  12.774
54707SOL     OW66017  13.289   3.382  11.646
54707SOL    HW166018  13.329   3.300  11.618
54707SOL    HW266019  13.331   3.448  11.591
54708SOL     OW66020  12.264  10.568   1.423
54708SOL    HW166021  12.358  10.584   1.414
54708SOL    HW266022  12.223  10.652   1.402
54709SOL     OW66023  14.475   4.571   2.733
54709SOL    HW166024  14.417   4.518   2.788
54709SOL    HW266025  14.497   4.647   2.787
54710SOL     OW66026   2.672   4.616   2.416
54710SOL    HW166027   2.743   4.678   2.402
54710SOL    HW266028   2.664   4.569   2.333
54711SOL     OW66029   0.568  11.949   0.460
54711SOL    HW166030   0.541  12.031   0.419
54711SOL    HW266031   0.601  11.896   0.387
54712SOL     OW66032  11.151   0.811  14.121
54712SOL    HW166033  11.190   0.836  14.037
54712SOL    HW266034  11.081   0.873  14.135
54713SOL     OW66035   5.032  10.273   7.566
54713SOL    HW166036   4.957  10.214   7.573
54713SOL    HW266037   5.106  10.215   7.549
54714SOL     OW66038   5.136  10.783   6.989
54714SOL    HW166039   5.174  10.716   7.046
54714SOL    HW266040   5.068  10.824   7.042
54715SOL     OW66041   2.746  14.753  14.624
54715SOL    HW166042   2.809  14.761  14.695
54715SOL    HW266043   2.798  14.730  14.548
54716SOL     OW66044   1.865   1.772   2.072
54716SOL    HW166045   1.953   1.807   2.086
54716SOL    HW266046   1.877   1.702   2.008
54717SOL     OW66047  12.109  11.752   8.085
54717SOL    HW166048  12.187  11.701   8.063
54717SOL    HW266049  12.053  11.746   8.007
54718SOL     OW66050  11.972  11.085   1.081
54718SOL    HW166051  11.908  11.015   1.092
54718SOL    HW266052  11.981  11.124   1.168
54719SOL     OW66053   5.201   8.769   8.111
54719SOL    HW166054   5.130   8.710   8.132
54719SOL    HW266055   5.213   8.823   8.189
54720SOL     OW66056   5.087   5.892   3.380
54720SOL    HW166057   5.161   5.860   3.430
54720SOL    HW266058   5.070   5.980   3.414
54721SOL     OW66059   8.704   9.971   8.471
54721SOL    HW166060   8.770   9.978   8.540
54721SOL    HW266061   8.739  10.024   8.399
54722SOL     OW66062   1.915   1.247  14.560
54722SOL    HW166063   1.894   1.337  14.586
54722SOL    HW266064   1.832   1.200  14.568
54723SOL     OW66065   3.537   0.610   7.838
54723SOL    HW166066   3.527   0.580   7.928
54723SOL    HW266067   3.557   0.531   7.787
54724SOL     OW66068  10.413   1.933   8.954
54724SOL    HW166069  10.429   1.849   8.997
54724SOL    HW266070  10.418   1.998   9.024
54725SOL     OW66071   1.529  11.081   7.437
54725SOL    HW166072   1.577  11.000   7.417
54725SOL    HW266073   1.591  11.151   7.419
54726SOL     OW66074  10.617   2.785   2.353
54726SOL    HW166075  10.565   2.705   2.349
54726SOL    HW266076  10.654   2.793   2.265
54727SOL     OW66077  13.106   8.494  10.988
54727SOL    HW166078  13.080   8.418  10.936
54727SOL    HW266079  13.073   8.475  11.076
54728SOL     OW66080   0.641  10.339   3.428
54728SOL    HW166081   0.713  10.292   3.388
54728SOL    HW266082   0.664  10.432   3.417
54729SOL     OW66083   1.991   7.161  11.343
54729SOL    HW166084   2.061   7.213  11.384
54729SOL    HW266085   1.912   7.213  11.356
54730SOL     OW66086  10.861  13.718   7.757
54730SOL    HW166087  10.926  13.685   7.695
54730SOL    HW266088  10.809  13.780   7.707
54731SOL     OW66089  12.721   6.900   3.699
54731SOL    HW166090  12.742   6.836   3.766
54731SOL    HW266091  12.665   6.964   3.743
54732SOL     OW66092  10.528   0.631   2.270
54732SOL    HW166093  10.457   0.567   2.269
54732SOL    HW266094  10.546   0.648   2.177
54733SOL     OW66095   5.704  10.883  12.366
54733SOL    HW166096   5.780  10.837  12.329
54733SOL    HW266097   5.683  10.834  12.445
54734SOL     OW66098   1.284  11.599   5.434
54734SOL    HW166099   1.298  11.565   5.523
54734SOL    HW266100   1.329  11.683   5.433
54735SOL     OW66101   4.840   3.665  10.764
54735SOL    HW166102   4.794   3.746  10.740
54735SOL    HW266103   4.877   3.633  10.682
54736SOL     OW66104   0.455  13.700  12.482
54736SOL    HW166105   0.519  13.730  12.547
54736SOL    HW266106   0.377  13.678  12.533
54737SOL     OW66107   6.227  13.418   6.810
54737SOL    HW166108   6.197  13.343   6.759
54737SOL    HW266109   6.258  13.481   6.745
54738SOL     OW66110  11.653   7.241   0.854
54738SOL    HW166111  11.709   7.257   0.930
54738SOL    HW266112  11.567   7.272   0.881
54739SOL     OW66113   3.561   9.475   1.866
54739SOL    HW166114   3.557   9.560   1.822
54739SOL    HW266115   3.487   9.427   1.830
54740SOL     OW66116  11.343  10.721   2.328
54740SOL    HW166117  11.268  10.744   2.382
54740SOL    HW266118  11.312  10.729   2.238
54741SOL     OW66119  11.930   8.190   6.810
54741SOL    HW166120  11.858   8.230   6.761
54741SOL    HW266121  11.986   8.150   6.743
54742SOL     OW66122   7.204   6.446   3.693
54742SOL    HW166123   7.267   6.516   3.709
54742SOL    HW266124   7.217   6.385   3.765
54743SOL     OW66125  12.336   1.682   0.604
54743SOL    HW166126  12.431   1.688   0.592
54743SOL    HW266127  12.323   1.705   0.696
54744SOL     OW66128   9.057   6.242  13.129
54744SOL    HW166129   9.063   6.275  13.039
54744SOL    HW266130   8.965   6.252  13.152
54745SOL     OW66131   8.698   2.776  14.312
54745SOL    HW166132   8.629   2.842  14.300
54745SOL    HW266133   8.772   2.809  14.262
54746SOL     OW66134   4.571   5.768   2.367
54746SOL    HW166135   4.508   5.766   2.439
54746SOL    HW266136   4.597   5.860   2.361
54747SOL     OW66137   4.689   1.309   6.496
54747SOL    HW166138   4.695   1.356   6.580
54747SOL    HW266139   4.611   1.254   6.505
54748SOL     OW66140   5.563   9.674  11.546
54748SOL    HW166141   5.575   9.619  11.469
54748SOL    HW266142   5.475   9.653  11.577
54749SOL     OW66143   7.539  10.198   3.058
54749SOL    HW166144   7.609  10.262   3.050
54749SOL    HW266145   7.464  10.239   3.015
54750SOL     OW66146   5.360   8.855  12.581
54750SOL    HW166147   5.310   8.917  12.634
54750SOL    HW266148   5.294   8.793  12.549
54751SOL     OW66149   4.258  14.394  11.667
54751SOL    HW166150   4.304  14.432  11.592
54751SOL    HW266151   4.281  14.451  11.740
54752SOL     OW66152  11.476   7.375  12.530
54752SOL    HW166153  11.417   7.300  12.528
54752SOL    HW266154  11.548   7.350  12.472
54753SOL     OW66155  10.795  10.311  13.810
54753SOL    HW166156  10.876  10.274  13.778
54753SOL    HW266157  10.772  10.257  13.886
54754SOL     OW66158   5.400   1.087   1.387
54754SOL    HW166159   5.484   1.041   1.400
54754SOL    HW266160   5.334   1.024   1.417
54755SOL     OW66161   6.173   8.645  14.662
54755SOL    HW166162   6.230   8.711  14.701
54755SOL    HW266163   6.173   8.573  14.724
54756SOL     OW66164   6.485  14.296   8.414
54756SOL    HW166165   6.557  14.251   8.370
54756SOL    HW266166   6.413  14.233   8.411
54757SOL     OW66167  12.529  11.287   5.526
54757SOL    HW166168  12.579  11.238   5.461
54757SOL    HW266169  12.582  11.365   5.542
54758SOL     OW66170   7.755   6.062   0.075
54758SOL    HW166171   7.709   6.063  14.873
54758SOL    HW266172   7.839   6.105   0.056
54759SOL     OW66173   4.938   1.966   8.969
54759SOL    HW166174   4.848   1.996   8.953
54759SOL    HW266175   4.959   1.998   9.056
54760SOL     OW66176   9.829  14.366  14.722
54760SOL    HW166177   9.913  14.320  14.726
54760SOL    HW266178   9.782  14.337  14.800
54761SOL     OW66179   1.568   5.242   1.532
54761SOL    HW166180   1.651   5.196   1.520
54761SOL    HW266181   1.501   5.175   1.521
54762SOL     OW66182  14.224   5.291   3.440
54762SOL    HW166183  14.246   5.359   3.377
54762SOL    HW266184  14.271   5.213   3.408
54763SOL     OW66185   6.164   9.628  10.428
54763SOL    HW166186   6.218   9.697  10.391
54763SOL    HW266187   6.101   9.607  10.359
54764SOL     OW66188   5.489   3.323  10.771
54764SOL    HW166189   5.414   3.380  10.790
54764SOL    HW266190   5.514   3.345  10.681
54765SOL     OW66191   2.545   0.510   5.688
54765SOL    HW166192   2.533   0.605   5.692
54765SOL    HW266193   2.638   0.497   5.703
54766SOL     OW66194   9.828   0.416   6.802
54766SOL    HW166195   9.880   0.455   6.872
54766SOL    HW266196   9.874   0.440   6.721
54767SOL     OW66197  13.004   3.007   6.814
54767SOL    HW166198  13.008   2.977   6.905
54767SOL    HW266199  13.094   2.998   6.782
54768SOL     OW66200  13.430   3.484  13.254
54768SOL    HW166201  13.391   3.547  13.316
54768SOL    HW266202  13.496   3.535  13.207
54769SOL     OW66203   9.023   5.026  14.521
54769SOL    HW166204   9.073   5.091  14.472
54769SOL    HW266205   9.034   4.944  14.472
54770SOL     OW66206   6.977   3.898   4.755
54770SOL    HW166207   6.890   3.890   4.715
54770SOL    HW266208   7.037   3.898   4.680
54771SOL     OW66209   9.508   0.446   8.049
54771SOL    HW166210   9.576   0.441   7.982
54771SOL    HW266211   9.447   0.376   8.027
54772SOL     OW66212   7.588  13.199   1.662
54772SOL    HW166213   7.564  13.163   1.747
54772SOL    HW266214   7.639  13.129   1.620
54773SOL     OW66215   3.267  10.143   1.330
54773SOL    HW166216   3.296  10.216   1.275
54773SOL    HW266217   3.178  10.167   1.357
54774SOL     OW66218   7.641  14.424   4.467
54774SOL    HW166219   7.655  14.503   4.415
54774SOL    HW266220   7.579  14.451   4.535
54775SOL     OW66221  10.954   5.833  10.576
54775SOL    HW166222  10.919   5.921  10.564
54775SOL    HW266223  11.011   5.839  10.653
54776SOL     OW66224  14.255   9.113   5.748
54776SOL    HW166225  14.251   9.163   5.667
54776SOL    HW266226  14.222   9.026   5.726
54777SOL     OW66227   3.398  11.528  13.715
54777SOL    HW166228   3.488  11.538  13.683
54777SOL    HW266229   3.344  11.574  13.651
54778SOL     OW66230   8.769  12.583   8.440
54778SOL    HW166231   8.835  12.646   8.468
54778SOL    HW266232   8.714  12.570   8.517
54779SOL     OW66233  14.276  13.852   3.551
54779SOL    HW166234  14.214  13.787   3.585
54779SOL    HW266235  14.360  13.827   3.588
54780SOL     OW66236   0.582  10.799   4.924
54780SOL    HW166237   0.496  10.842   4.925
54780SOL    HW266238   0.563  10.709   4.896
54781SOL     OW66239  12.756   1.401  14.457
54781SOL    HW166240  12.674   1.381  14.412
54781SOL    HW266241  12.804   1.318  14.458
54782SOL     OW66242   6.500  10.480   8.206
54782SOL    HW166243   6.414  10.456   8.240
54782SOL    HW266244   6.505  10.575   8.217
54783SOL     OW66245   9.661  14.492  10.035
54783SOL    HW166246   9.727  14.500   9.966
54783SOL    HW266247   9.585  14.454   9.991
54784SOL     OW66248   8.777   7.706   9.801
54784SOL    HW166249   8.711   7.698   9.869
54784SOL    HW266250   8.858   7.723   9.848
54785SOL     OW66251   5.780   6.500   6.000
54785SOL    HW166252   5.706   6.480   5.942
54785SOL    HW266253   5.744   6.563   6.063
54786SOL     OW66254  13.256   2.942   0.172
54786SOL    HW166255  13.203   2.907   0.100
54786SOL    HW266256  13.287   3.027   0.140
54787SOL     OW66257   8.499  10.252   5.926
54787SOL    HW166258   8.552  10.300   5.863
54787SOL    HW266259   8.415  10.240   5.882
54788SOL     OW66260   2.178   0.108   0.282
54788SOL    HW166261   2.105   0.119   0.344
54788SOL    HW266262   2.191   0.196   0.246
54789SOL     OW66263   8.685  10.297   3.158
54789SOL    HW166264   8.721  10.283   3.245
54789SOL    HW266265   8.601  10.341   3.174
54790SOL     OW66266   2.012   9.807   2.495
54790SOL    HW166267   1.962   9.772   2.421
54790SOL    HW266268   1.950   9.864   2.541
54791SOL     OW66269  14.867  11.748  13.009
54791SOL    HW166270   0.015  11.660  12.987
54791SOL    HW266271  14.833  11.740  13.098
54792SOL     OW66272   8.652   5.685   6.340
54792SOL    HW166273   8.630   5.619   6.405
54792SOL    HW266274   8.586   5.674   6.271
54793SOL     OW66275   7.495   9.595   9.136
54793SOL    HW166276   7.554   9.535   9.181
54793SOL    HW266277   7.428   9.538   9.098
54794SOL     OW66278   0.221   9.171   2.433
54794SOL    HW166279   0.139   9.123   2.434
54794SOL    HW266280   0.267   9.143   2.512
54795SOL     OW66281  12.359   6.262   0.340
54795SOL    HW166282  12.422   6.334   0.349
54795SOL    HW266283  12.389   6.195   0.401
54796SOL     OW66284   3.256  11.824  13.359
54796SOL    HW166285   3.329  11.862  13.407
54796SOL    HW266286   3.296  11.788  13.280
54797SOL     OW66287  12.030  13.517   2.797
54797SOL    HW166288  12.075  13.509   2.713
54797SOL    HW266289  11.956  13.574   2.779
54798SOL     OW66290  11.163   5.163   4.797
54798SOL    HW166291  11.112   5.213   4.733
54798SOL    HW266292  11.189   5.084   4.750
54799SOL     OW66293   9.950   7.743   0.997
54799SOL    HW166294  10.003   7.681   0.948
54799SOL    HW266295   9.883   7.771   0.936
54800SOL     OW66296   9.670   3.189   6.855
54800SOL    HW166297   9.623   3.182   6.772
54800SOL    HW266298   9.629   3.263   6.900
54801SOL     OW66299   9.426  10.770  13.153
54801SOL    HW166300   9.333  10.764  13.178
54801SOL    HW266301   9.428  10.741  13.062
54802SOL     OW66302   1.920   9.120  10.447
54802SOL    HW166303   1.968   9.090  10.370
54802SOL    HW266304   1.874   9.043  10.479
54803SOL     OW66305  10.882   2.071   7.897
54803SOL    HW166306  10.977   2.055   7.903
54803SOL    HW266307  10.866   2.143   7.958
54804SOL     OW66308  14.561   4.822   1.353
54804SOL    HW166309  14.542   4.912   1.325
54804SOL    HW266310  14.652   4.807   1.328
54805SOL     OW66311   3.648   5.531   1.733
54805SOL    HW166312   3.639   5.459   1.796
54805SOL    HW266313   3.734   5.568   1.751
54806SOL     OW66314   2.466   1.951  13.515
54806SOL    HW166315   2.558   1.971  13.500
54806SOL    HW266316   2.422   1.969  13.432
54807SOL     OW66317   3.657   8.457   9.111
54807SOL    HW166318   3.670   8.524   9.178
54807SOL    HW266319   3.579   8.410   9.139
54808SOL     OW66320  13.296  13.545   2.138
54808SOL    HW166321  13.345  13.563   2.219
54808SOL    HW266322  13.226  13.486   2.166
54809SOL     OW66323  10.141   2.503   6.624
54809SOL    HW166324  10.098   2.578   6.582
54809SOL    HW266325  10.176   2.538   6.705
54810SOL     OW66326  12.062   8.702   2.372
54810SOL    HW166327  12.046   8.613   2.404
54810SOL    HW266328  11.985   8.751   2.401
54811SOL     OW66329   5.640   3.592  11.644
54811SOL    HW166330   5.556   3.558  11.675
54811SOL    HW266331   5.699   3.583  11.718
54812SOL     OW66332   7.047  10.827   7.388
54812SOL    HW166333   7.120  10.838   7.450
54812SOL    HW266334   7.089  10.811   7.304
54813SOL     OW66335  12.294   1.086   0.854
54813SOL    HW166336  12.210   1.129   0.869
54813SOL    HW266337  12.332   1.134   0.781
54814SOL     OW66338   1.300   5.136  13.383
54814SOL    HW166339   1.319   5.045  13.363
54814SOL    HW266340   1.217   5.154  13.340
54815SOL     OW66341   8.856   1.312   8.954
54815SOL    HW166342   8.829   1.389   9.005
54815SOL    HW266343   8.814   1.238   8.998
54816SOL     OW66344  14.054   7.806  14.401
54816SOL    HW166345  14.057   7.896  14.369
54816SOL    HW266346  14.029   7.754  14.324
54817SOL     OW66347  13.355   3.164   6.506
54817SOL    HW166348  13.397   3.139   6.589
54817SOL    HW266349  13.426   3.196   6.451
54818SOL     OW66350  11.831   4.871   8.090
54818SOL    HW166351  11.761   4.934   8.105
54818SOL    HW266352  11.891   4.883   8.165
54819SOL     OW66353   7.494   6.977   6.298
54819SOL    HW166354   7.549   6.922   6.354
54819SOL    HW266355   7.485   7.059   6.346
54820SOL     OW66356   5.399   8.536   2.524
54820SOL    HW166357   5.311   8.544   2.560
54820SOL    HW266358   5.443   8.617   2.552
54821SOL     OW66359   0.834   4.167  14.251
54821SOL    HW166360   0.905   4.103  14.249
54821SOL    HW266361   0.763   4.124  14.202
54822SOL     OW66362  10.710  11.386  10.473
54822SOL    HW166363  10.658  11.340  10.406
54822SOL    HW266364  10.677  11.475  10.472
54823SOL     OW66365   1.469   8.184  14.094
54823SOL    HW166366   1.448   8.165  14.186
54823SOL    HW266367   1.517   8.106  14.065
54824SOL     OW66368  10.661   8.200   0.308
54824SOL    HW166369  10.751   8.215   0.334
54824SOL    HW266370  10.623   8.150   0.379
54825SOL     OW66371   6.616  13.840  13.728
54825SOL    HW166372   6.581  13.812  13.813
54825SOL    HW266373   6.706  13.810  13.728
54826SOL     OW66374  11.799   2.769   7.200
54826SOL    HW166375  11.809   2.687   7.250
54826SOL    HW266376  11.889   2.797   7.184
54827SOL     OW66377   6.794   0.511   8.089
54827SOL    HW166378   6.752   0.536   8.172
54827SOL    HW266379   6.880   0.480   8.115
54828SOL     OW66380  12.326  10.840   8.112
54828SOL    HW166381  12.262  10.902   8.077
54828SOL    HW266382  12.315  10.844   8.207
54829SOL     OW66383   6.521   6.947   0.158
54829SOL    HW166384   6.426   6.942   0.164
54829SOL    HW266385   6.538   6.981   0.070
54830SOL     OW66386   6.424   9.311   2.299
54830SOL    HW166387   6.345   9.274   2.259
54830SOL    HW266388   6.418   9.405   2.283
54831SOL     OW66389  12.416   8.749  13.315
54831SOL    HW166390  12.415   8.673  13.258
54831SOL    HW266391  12.506   8.780  13.313
54832SOL     OW66392  10.475   5.891  10.707
54832SOL    HW166393  10.516   5.944  10.776
54832SOL    HW266394  10.547   5.840  10.670
54833SOL     OW66395   2.931   4.842   3.410
54833SOL    HW166396   2.872   4.906   3.448
54833SOL    HW266397   3.011   4.848   3.463
54834SOL     OW66398   0.144   7.291   2.501
54834SOL    HW166399   0.169   7.307   2.410
54834SOL    HW266400   0.163   7.199   2.516
54835SOL     OW66401   3.850   0.130  14.819
54835SOL    HW166402   3.781   0.164  14.876
54835SOL    HW266403   3.927   0.123  14.875
54836SOL     OW66404   3.948  14.417   7.300
54836SOL    HW166405   3.985  14.442   7.216
54836SOL    HW266406   3.960  14.495   7.355
54837SOL     OW66407   7.599  10.898   0.546
54837SOL    HW166408   7.609  10.950   0.466
54837SOL    HW266409   7.689  10.880   0.574
54838SOL     OW66410  13.733  10.911  11.464
54838SOL    HW166411  13.776  10.826  11.476
54838SOL    HW266412  13.704  10.936  11.551
54839SOL     OW66413   9.209  14.348   1.266
54839SOL    HW166414   9.301  14.330   1.244
54839SOL    HW266415   9.207  14.443   1.279
54840SOL     OW66416   7.746   0.199   0.917
54840SOL    HW166417   7.808   0.148   0.969
54840SOL    HW266418   7.765   0.175   0.827
54841SOL     OW66419  10.008   8.510   4.876
54841SOL    HW166420  10.078   8.464   4.922
54841SOL    HW266421   9.959   8.555   4.945
54842SOL     OW66422   8.199   0.784  10.145
54842SOL    HW166423   8.154   0.869  10.143
54842SOL    HW266424   8.242   0.777  10.060
54843SOL     OW66425  11.728   2.107   7.373
54843SOL    HW166426  11.756   2.130   7.462
54843SOL    HW266427  11.674   2.029   7.385
54844SOL     OW66428  10.747   7.746  11.159
54844SOL    HW166429  10.736   7.805  11.234
54844SOL    HW266430  10.660   7.707  11.146
54845SOL     OW66431   5.503   9.630   9.941
54845SOL    HW166432   5.443   9.670   9.879
54845SOL    HW266433   5.589   9.633   9.898
54846SOL     OW66434  14.745  14.442  13.543
54846SOL    HW166435  14.740  14.515  13.605
54846SOL    HW266436  14.659  14.441  13.501
54847SOL     OW66437   4.802  12.135   4.720
54847SOL    HW166438   4.858  12.076   4.669
54847SOL    HW266439   4.731  12.080   4.752
54848SOL     OW66440   3.407  10.931   4.378
54848SOL    HW166441   3.360  10.991   4.436
54848SOL    HW266442   3.445  10.866   4.436
54849SOL     OW66443  11.943   2.037  12.258
54849SOL    HW166444  11.935   1.947  12.292
54849SOL    HW266445  12.034   2.061  12.276
54850SOL     OW66446   5.358   6.823   7.570
54850SOL    HW166447   5.271   6.783   7.580
54850SOL    HW266448   5.361   6.850   7.478
54851SOL     OW66449   9.721  12.780  10.604
54851SOL    HW166450   9.756  12.805  10.518
54851SOL    HW266451   9.776  12.707  10.632
54852SOL     OW66452   0.610   5.836   5.665
54852SOL    HW166453   0.539   5.874   5.715
54852SOL    HW266454   0.686   5.890   5.685
54853SOL     OW66455  14.384   8.062   4.554
54853SOL    HW166456  14.433   8.069   4.472
54853SOL    HW266457  14.438   8.108   4.618
54854SOL     OW66458  10.537  10.911   3.035
54854SOL    HW166459  10.551  10.820   3.063
54854SOL    HW266460  10.608  10.960   3.076
54855SOL     OW66461   0.377   1.648   2.611
54855SOL    HW166462   0.376   1.595   2.531
54855SOL    HW266463   0.295   1.696   2.609
54856SOL     OW66464   0.240   9.242  13.600
54856SOL    HW166465   0.167   9.215  13.544
54856SOL    HW266466   0.283   9.159  13.624
54857SOL     OW66467  14.740   0.778  12.804
54857SOL    HW166468  14.698   0.790  12.718
54857SOL    HW266469  14.732   0.864  12.846
54858SOL     OW66470   7.472   0.363  10.822
54858SOL    HW166471   7.539   0.421  10.786
54858SOL    HW266472   7.495   0.277  10.787
54859SOL     OW66473   5.525   2.414   0.901
54859SOL    HW166474   5.433   2.433   0.879
54859SOL    HW266475   5.533   2.440   0.993
54860SOL     OW66476   0.940   5.554   2.864
54860SOL    HW166477   0.881   5.481   2.844
54860SOL    HW266478   1.026   5.515   2.872
54861SOL     OW66479   6.612  14.672   3.880
54861SOL    HW166480   6.589  14.765   3.878
54861SOL    HW266481   6.626  14.650   3.788
54862SOL     OW66482   4.681  13.775   3.686
54862SOL    HW166483   4.670  13.786   3.781
54862SOL    HW266484   4.684  13.865   3.652
54863SOL     OW66485  10.178  14.156   2.090
54863SOL    HW166486  10.246  14.222   2.074
54863SOL    HW266487  10.164  14.115   2.005
54864SOL     OW66488   9.244   5.062   0.464
54864SOL    HW166489   9.276   5.014   0.387
54864SOL    HW266490   9.163   5.103   0.434
54865SOL     OW66491   4.040   2.144   4.403
54865SOL    HW166492   3.983   2.202   4.454
54865SOL    HW266493   3.981   2.076   4.370
54866SOL     OW66494  11.590   1.315   8.743
54866SOL    HW166495  11.658   1.248   8.746
54866SOL    HW266496  11.515   1.271   8.702
54867SOL     OW66497   7.682  14.462  13.530
54867SOL    HW166498   7.651  14.379  13.494
54867SOL    HW266499   7.648  14.528  13.468
54868SOL     OW66500   6.806  10.227  10.674
54868SOL    HW166501   6.840  10.208  10.586
54868SOL    HW266502   6.711  10.225  10.663
54869SOL     OW66503  13.457   1.083  10.772
54869SOL    HW166504  13.466   1.151  10.705
54869SOL    HW266505  13.363   1.070  10.780
54870SOL     OW66506   9.369   2.488  10.824
54870SOL    HW166507   9.278   2.458  10.833
54870SOL    HW266508   9.364   2.582  10.842
54871SOL     OW66509   6.056   8.693   8.654
54871SOL    HW166510   6.149   8.716   8.651
54871SOL    HW266511   6.028   8.718   8.742
54872SOL     OW66512   3.720   9.151   5.734
54872SOL    HW166513   3.707   9.212   5.661
54872SOL    HW266514   3.632   9.137   5.769
54873SOL     OW66515  14.523  10.229   1.688
54873SOL    HW166516  14.592  10.187   1.636
54873SOL    HW266517  14.449  10.235   1.628
54874SOL     OW66518   6.611   5.452  10.423
54874SOL    HW166519   6.527   5.480  10.388
54874SOL    HW266520   6.597   5.446  10.518
54875SOL     OW66521   2.451   1.827   2.682
54875SOL    HW166522   2.409   1.882   2.748
54875SOL    HW266523   2.454   1.882   2.604
54876SOL     OW66524   0.590   9.130  11.071
54876SOL    HW166525   0.660   9.082  11.115
54876SOL    HW266526   0.514   9.073  11.078
54877SOL     OW66527   7.398  13.573   6.643
54877SOL    HW166528   7.477  13.582   6.590
54877SOL    HW266529   7.384  13.660   6.681
54878SOL     OW66530  14.827   3.696   6.140
54878SOL    HW166531  14.852   3.763   6.203
54878SOL    HW266532  14.825   3.615   6.190
54879SOL     OW66533   2.583   9.806   5.035
54879SOL    HW166534   2.659   9.808   5.093
54879SOL    HW266535   2.604   9.867   4.965
54880SOL     OW66536   3.962  10.455   6.928
54880SOL    HW166537   4.003  10.539   6.951
54880SOL    HW266538   3.868  10.472   6.934
54881SOL     OW66539   1.317  11.884   8.849
54881SOL    HW166540   1.245  11.833   8.883
54881SOL    HW266541   1.278  11.937   8.780
54882SOL     OW66542   5.669   8.306  14.281
54882SOL    HW166543   5.590   8.253  14.294
54882SOL    HW266544   5.714   8.264  14.208
54883SOL     OW66545   7.345  11.084  11.612
54883SOL    HW166546   7.283  11.135  11.664
54883SOL    HW266547   7.351  11.000  11.658
54884SOL     OW66548   8.463   9.795   0.972
54884SOL    HW166549   8.541   9.774   1.024
54884SOL    HW266550   8.467   9.735   0.898
54885SOL     OW66551   1.562   5.259   2.366
54885SOL    HW166552   1.567   5.242   2.272
54885SOL    HW266553   1.481   5.308   2.378
54886SOL     OW66554   3.668   8.841  11.908
54886SOL    HW166555   3.597   8.790  11.870
54886SOL    HW266556   3.626   8.922  11.937
54887SOL     OW66557  11.211  10.355  10.669
54887SOL    HW166558  11.219  10.443  10.706
54887SOL    HW266559  11.259  10.359  10.587
54888SOL     OW66560  11.451   5.745  11.140
54888SOL    HW166561  11.423   5.741  11.232
54888SOL    HW266562  11.492   5.831  11.131
54889SOL     OW66563   1.571   3.332  10.424
54889SOL    HW166564   1.551   3.238  10.416
54889SOL    HW266565   1.549   3.353  10.515
54890SOL     OW66566  10.171  10.072  13.061
54890SOL    HW166567  10.164  10.128  13.138
54890SOL    HW266568  10.185  10.133  12.989
54891SOL     OW66569   2.141   4.210   2.493
54891SOL    HW166570   2.054   4.219   2.454
54891SOL    HW266571   2.199   4.258   2.433
54892SOL     OW66572   1.279   4.860  13.794
54892SOL    HW166573   1.359   4.857  13.741
54892SOL    HW266574   1.209   4.875  13.730
54893SOL     OW66575   7.160   2.467  12.663
54893SOL    HW166576   7.088   2.403  12.662
54893SOL    HW266577   7.141   2.525  12.588
54894SOL     OW66578   3.898   2.460  13.508
54894SOL    HW166579   3.819   2.408  13.526
54894SOL    HW266580   3.916   2.445  13.415
54895SOL     OW66581   0.474   4.201  10.433
54895SOL    HW166582   0.447   4.254  10.358
54895SOL    HW266583   0.523   4.261  10.489
54896SOL     OW66584   4.850  10.069   7.140
54896SOL    HW166585   4.825  10.111   7.058
54896SOL    HW266586   4.852   9.975   7.118
54897SOL     OW66587   3.351   1.209  10.414
54897SOL    HW166588   3.429   1.162  10.443
54897SOL    HW266589   3.303   1.229  10.495
54898SOL     OW66590   7.125  11.780   7.270
54898SOL    HW166591   7.064  11.824   7.329
54898SOL    HW266592   7.069  11.724   7.216
54899SOL     OW66593  12.307   4.054   2.515
54899SOL    HW166594  12.285   4.146   2.525
54899SOL    HW266595  12.346   4.047   2.428
54900SOL     OW66596   0.226  11.138   1.075
54900SOL    HW166597   0.240  11.125   0.981
54900SOL    HW266598   0.205  11.230   1.084
54901SOL     OW66599   2.587  14.130  12.488
54901SOL    HW166600   2.668  14.147  12.534
54901SOL    HW266601   2.533  14.082  12.550
54902SOL     OW66602   5.704   5.776  13.478
54902SOL    HW166603   5.653   5.706  13.439
54902SOL    HW266604   5.641   5.847  13.492
54903SOL     OW66605   0.525   6.275   2.597
54903SOL    HW166606   0.606   6.261   2.644
54903SOL    HW266607   0.459   6.288   2.665
54904SOL     OW66608   4.955   6.417  14.091
54904SOL    HW166609   4.882   6.356  14.103
54904SOL    HW266610   4.914   6.500  14.068
54905SOL     OW66611   2.420   7.982   9.807
54905SOL    HW166612   2.440   7.993   9.900
54905SOL    HW266613   2.418   7.887   9.794
54906SOL     OW66614  14.450   7.591  13.486
54906SOL    HW166615  14.368   7.578  13.533
54906SOL    HW266616  14.511   7.622  13.553
54907SOL     OW66617   3.586   8.821   7.422
54907SOL    HW166618   3.525   8.786   7.357
54907SOL    HW266619   3.564   8.776   7.503
54908SOL     OW66620  10.276  14.238   3.831
54908SOL    HW166621  10.352  14.211   3.882
54908SOL    HW266622  10.313  14.272   3.749
54909SOL     OW66623   2.408  10.548  13.350
54909SOL    HW166624   2.406  10.487  13.277
54909SOL    HW266625   2.321  10.588  13.351
54910SOL     OW66626   7.367  10.598   5.907
54910SOL    HW166627   7.323  10.582   5.990
54910SOL    HW266628   7.380  10.512   5.868
54911SOL     OW66629  13.663   5.053  14.253
54911SOL    HW166630  13.758   5.067  14.250
54911SOL    HW266631  13.647   5.015  14.339
54912SOL     OW66632   2.930   0.172   2.160
54912SOL    HW166633   2.931   0.077   2.167
54912SOL    HW266634   2.837   0.195   2.152
54913SOL     OW66635   1.559   6.745   3.728
54913SOL    HW166636   1.568   6.737   3.823
54913SOL    HW266637   1.621   6.814   3.704
54914SOL     OW66638  11.282  11.166   4.830
54914SOL    HW166639  11.195  11.171   4.870
54914SOL    HW266640  11.281  11.084   4.782
54915SOL     OW66641   6.091   0.331   0.713
54915SOL    HW166642   6.130   0.283   0.639
54915SOL    HW266643   6.023   0.385   0.673
54916SOL     OW66644   0.470  11.810   0.706
54916SOL    HW166645   0.415  11.754   0.652
54916SOL    HW266646   0.523  11.860   0.644
54917SOL     OW66647  11.012   7.374   2.766
54917SOL    HW166648  10.983   7.465   2.764
54917SOL    HW266649  10.949   7.330   2.824
54918SOL     OW66650   4.590  14.846  10.909
54918SOL    HW166651   4.524  14.786  10.875
54918SOL    HW266652   4.632  14.797  10.980
54919SOL     OW66653   3.250   7.748   7.987
54919SOL    HW166654   3.242   7.653   7.989
54919SOL    HW266655   3.281   7.768   7.898
54920SOL     OW66656   3.036   5.836   8.526
54920SOL    HW166657   3.102   5.799   8.585
54920SOL    HW266658   3.043   5.783   8.446
54921SOL     OW66659   5.333   9.169   7.966
54921SOL    HW166660   5.340   9.164   8.062
54921SOL    HW266661   5.333   9.263   7.947
54922SOL     OW66662   1.383   9.918  12.902
54922SOL    HW166663   1.444   9.955  12.838
54922SOL    HW266664   1.419   9.831  12.922
54923SOL     OW66665  11.336   1.714   6.551
54923SOL    HW166666  11.365   1.762   6.473
54923SOL    HW266667  11.300   1.781   6.608
54924SOL     OW66668  10.254  12.451   2.290
54924SOL    HW166669  10.344  12.481   2.303
54924SOL    HW266670  10.263  12.371   2.238
54925SOL     OW66671   5.127   9.925   1.165
54925SOL    HW166672   5.159   9.926   1.075
54925SOL    HW266673   5.191   9.976   1.214
54926SOL     OW66674   1.876   3.418   8.026
54926SOL    HW166675   1.843   3.333   8.055
54926SOL    HW266676   1.936   3.398   7.954
54927SOL     OW66677  13.536  14.310   6.321
54927SOL    HW166678  13.608  14.350   6.369
54927SOL    HW266679  13.506  14.378   6.261
54928SOL     OW66680   3.440  12.772   8.103
54928SOL    HW166681   3.439  12.857   8.148
54928SOL    HW266682   3.532  12.745   8.105
54929SOL     OW66683  12.684   4.205   3.197
54929SOL    HW166684  12.605   4.179   3.245
54929SOL    HW266685  12.756   4.163   3.244
54930SOL     OW66686  11.831  10.844   6.795
54930SOL    HW166687  11.847  10.749   6.793
54930SOL    HW266688  11.736  10.852   6.783
54931SOL     OW66689  10.720   3.865   6.354
54931SOL    HW166690  10.766   3.933   6.304
54931SOL    HW266691  10.643   3.844   6.300
54932SOL     OW66692  11.441   3.732   7.637
54932SOL    HW166693  11.484   3.674   7.700
54932SOL    HW266694  11.482   3.712   7.553
54933SOL     OW66695   0.222   7.793   6.485
54933SOL    HW166696   0.191   7.875   6.446
54933SOL    HW266697   0.270   7.819   6.563
54934SOL     OW66698   6.961  10.474  12.721
54934SOL    HW166699   6.904  10.550  12.707
54934SOL    HW266700   6.969  10.467  12.816
54935SOL     OW66701   5.014  13.102   7.978
54935SOL    HW166702   5.082  13.163   7.949
54935SOL    HW266703   4.934  13.154   7.980
54936SOL     OW66704  14.493   1.394  10.329
54936SOL    HW166705  14.528   1.379  10.241
54936SOL    HW266706  14.414   1.341  10.333
54937SOL     OW66707   4.760   1.193  10.923
54937SOL    HW166708   4.704   1.195  10.845
54937SOL    HW266709   4.719   1.127  10.979
54938SOL     OW66710   7.833  12.500   7.205
54938SOL    HW166711   7.740  12.475   7.202
54938SOL    HW266712   7.837  12.583   7.158
54939SOL     OW66713  12.458   9.544   4.683
54939SOL    HW166714  12.554   9.537   4.679
54939SOL    HW266715  12.434   9.491   4.760
54940SOL     OW66716  13.207   3.347  13.980
54940SOL    HW166717  13.187   3.349  13.886
54940SOL    HW266718  13.214   3.439  14.005
54941SOL     OW66719  14.369   4.738   5.906
54941SOL    HW166720  14.423   4.674   5.952
54941SOL    HW266721  14.336   4.796   5.974
54942SOL     OW66722   5.457   7.918   4.358
54942SOL    HW166723   5.506   7.894   4.279
54942SOL    HW266724   5.420   8.004   4.338
54943SOL     OW66725   4.585   8.857   2.439
54943SOL    HW166726   4.677   8.856   2.415
54943SOL    HW266727   4.576   8.932   2.498
54944SOL     OW66728  14.221  10.535   0.275
54944SOL    HW166729  14.162  10.597   0.232
54944SOL    HW266730  14.241  10.575   0.360
54945SOL     OW66731   0.799   4.649  13.693
54945SOL    HW166732   0.828   4.727  13.741
54945SOL    HW266733   0.789   4.680  13.603
54946SOL     OW66734  12.108  11.079   6.662
54946SOL    HW166735  12.055  11.056   6.585
54946SOL    HW266736  12.177  11.012   6.663
54947SOL     OW66737   6.049   3.441   8.491
54947SOL    HW166738   5.955   3.450   8.479
54947SOL    HW266739   6.064   3.461   8.583
54948SOL     OW66740   8.706   9.610   9.554
54948SOL    HW166741   8.732   9.541   9.494
54948SOL    HW266742   8.683   9.565   9.635
54949SOL     OW66743  13.832   0.701   2.638
54949SOL    HW166744  13.823   0.796   2.643
54949SOL    HW266745  13.846   0.674   2.729
54950SOL     OW66746   9.569   8.923   3.785
54950SOL    HW166747   9.652   8.904   3.742
54950SOL    HW266748   9.575   8.881   3.870
54951SOL     OW66749   6.846   1.836   3.691
54951SOL    HW166750   6.758   1.872   3.700
54951SOL    HW266751   6.895   1.874   3.765
54952SOL     OW66752  11.525   5.963   5.441
54952SOL    HW166753  11.449   6.017   5.421
54952SOL    HW266754  11.489   5.886   5.485
54953SOL     OW66755   7.431   0.088   4.016
54953SOL    HW166756   7.516   0.064   4.051
54953SOL    HW266757   7.371   0.022   4.050
54954SOL     OW66758   6.168   5.822  14.809
54954SOL    HW166759   6.140   5.734  14.836
54954SOL    HW266760   6.246   5.807  14.756
54955SOL     OW66761   8.002  11.671   1.780
54955SOL    HW166762   7.921  11.644   1.822
54955SOL    HW266763   8.045  11.727   1.845
54956SOL     OW66764  13.002  13.329   0.070
54956SOL    HW166765  13.075  13.268   0.058
54956SOL    HW266766  13.037  13.414   0.041
54957SOL     OW66767   0.402   6.383   4.111
54957SOL    HW166768   0.446   6.328   4.176
54957SOL    HW266769   0.380   6.464   4.158
54958SOL     OW66770   8.339  13.789  12.213
54958SOL    HW166771   8.282  13.745  12.149
54958SOL    HW266772   8.400  13.839  12.160
54959SOL     OW66773  13.916   1.197  14.241
54959SOL    HW166774  13.979   1.146  14.292
54959SOL    HW266775  13.835   1.147  14.246
54960SOL     OW66776  14.167  10.970  14.709
54960SOL    HW166777  14.139  11.035  14.774
54960SOL    HW266778  14.094  10.966  14.647
54961SOL     OW66779   3.743  13.469  10.378
54961SOL    HW166780   3.678  13.451  10.309
54961SOL    HW266781   3.718  13.410  10.449
54962SOL     OW66782   3.725  10.103   3.192
54962SOL    HW166783   3.701  10.141   3.277
54962SOL    HW266784   3.649  10.122   3.136
54963SOL     OW66785   2.058   4.929   6.273
54963SOL    HW166786   2.145   4.925   6.232
54963SOL    HW266787   2.026   4.839   6.268
54964SOL     OW66788   9.896   2.448  10.263
54964SOL    HW166789   9.972   2.396  10.289
54964SOL    HW266790   9.915   2.475  10.173
54965SOL     OW66791  14.499   3.432   9.914
54965SOL    HW166792  14.519   3.484   9.836
54965SOL    HW266793  14.581   3.388   9.936
54966SOL     OW66794  10.199   9.130   3.236
54966SOL    HW166795  10.213   9.091   3.322
54966SOL    HW266796  10.104   9.134   3.226
54967SOL     OW66797   3.141   1.696   1.058
54967SOL    HW166798   3.082   1.670   0.987
54967SOL    HW266799   3.099   1.662   1.137
54968SOL     OW66800  10.659   9.532   5.773
54968SOL    HW166801  10.610   9.457   5.806
54968SOL    HW266802  10.739   9.494   5.737
54969SOL     OW66803  13.494   4.281   8.168
54969SOL    HW166804  13.571   4.255   8.219
54969SOL    HW266805  13.446   4.340   8.227
54970SOL     OW66806  12.537   5.861  14.546
54970SOL    HW166807  12.520   5.932  14.608
54970SOL    HW266808  12.490   5.886  14.466
54971SOL     OW66809  14.738  11.674   9.148
54971SOL    HW166810  14.812  11.732   9.163
54971SOL    HW266811  14.667  11.732   9.121
54972SOL     OW66812   9.393   2.719   4.859
54972SOL    HW166813   9.477   2.684   4.888
54972SOL    HW266814   9.413   2.775   4.784
54973SOL     OW66815   7.700  11.148   9.053
54973SOL    HW166816   7.746  11.074   9.013
54973SOL    HW266817   7.619  11.109   9.087
54974SOL     OW66818   0.366  12.964   9.235
54974SOL    HW166819   0.455  12.944   9.265
54974SOL    HW266820   0.374  13.048   9.190
54975SOL     OW66821  10.119  10.323   6.384
54975SOL    HW166822  10.079  10.244   6.348
54975SOL    HW266823  10.102  10.391   6.319
54976SOL     OW66824   0.742   8.467  10.187
54976SOL    HW166825   0.775   8.385  10.151
54976SOL    HW266826   0.686   8.503  10.118
54977SOL     OW66827   4.344  13.039   7.423
54977SOL    HW166828   4.256  13.058   7.456
54977SOL    HW266829   4.330  13.016   7.331
54978SOL     OW66830   5.996   1.052  10.784
54978SOL    HW166831   5.949   1.124  10.742
54978SOL    HW266832   6.042   1.008  10.712
54979SOL     OW66833   9.249   7.891   9.110
54979SOL    HW166834   9.332   7.877   9.064
54979SOL    HW266835   9.205   7.806   9.109
54980SOL     OW66836  13.472   9.074   9.382
54980SOL    HW166837  13.397   9.017   9.400
54980SOL    HW266838  13.436   9.163   9.389
54981SOL     OW66839   3.014  13.354   5.271
54981SOL    HW166840   2.981  13.270   5.303
54981SOL    HW266841   3.013  13.345   5.176
54982SOL     OW66842   4.151  12.412   1.769
54982SOL    HW166843   4.098  12.407   1.689
54982SOL    HW266844   4.226  12.355   1.752
54983SOL     OW66845  10.428  13.792   8.757
54983SOL    HW166846  10.375  13.717   8.784
54983SOL    HW266847  10.503  13.754   8.711
54984SOL     OW66848  10.996  11.563   9.514
54984SOL    HW166849  11.010  11.494   9.449
54984SOL    HW266850  11.031  11.642   9.472
54985SOL     OW66851   5.240  11.238  11.406
54985SOL    HW166852   5.259  11.192  11.324
54985SOL    HW266853   5.146  11.224  11.419
54986SOL     OW66854   5.450   0.507   7.189
54986SOL    HW166855   5.519   0.493   7.125
54986SOL    HW266856   5.453   0.428   7.244
54987SOL     OW66857   8.389   0.408   7.456
54987SOL    HW166858   8.396   0.325   7.503
54987SOL    HW266859   8.473   0.418   7.411
54988SOL     OW66860   7.566   6.981   4.053
54988SOL    HW166861   7.498   6.926   4.091
54988SOL    HW266862   7.648   6.941   4.082
54989SOL     OW66863  14.804   7.950  14.523
54989SOL    HW166864  14.805   7.902  14.606
54989SOL    HW266865   0.000   7.919  14.477
54990SOL     OW66866   3.798   9.328   6.797
54990SOL    HW166867   3.783   9.261   6.864
54990SOL    HW266868   3.892   9.322   6.778
54991SOL     OW66869  13.553  11.171   2.162
54991SOL    HW166870  13.463  11.203   2.148
54991SOL    HW266871  13.590  11.232   2.226
54992SOL     OW66872   2.988   2.026   0.200
54992SOL    HW166873   3.049   2.100   0.196
54992SOL    HW266874   3.000   1.989   0.288
54993SOL     OW66875  14.331   8.439  11.363
54993SOL    HW166876  14.285   8.435  11.279
54993SOL    HW266877  14.323   8.352  11.400
54994SOL     OW66878   2.928   8.281   6.732
54994SOL    HW166879   2.878   8.334   6.795
54994SOL    HW266880   2.981   8.345   6.684
54995SOL     OW66881  11.974   8.893  12.546
54995SOL    HW166882  11.992   8.969  12.490
54995SOL    HW266883  12.056   8.879  12.594
54996SOL     OW66884   7.180   1.721   9.031
54996SOL    HW166885   7.273   1.700   9.032
54996SOL    HW266886   7.176   1.812   9.062
54997SOL     OW66887   0.930   5.022   4.516
54997SOL    HW166888   0.909   5.035   4.424
54997SOL    HW266889   0.869   5.079   4.563
54998SOL     OW66890  13.277   7.211   7.586
54998SOL    HW166891  13.350   7.166   7.543
54998SOL    HW266892  13.235   7.144   7.639
54999SOL     OW66893  11.008   7.030   7.121
54999SOL    HW166894  10.957   7.110   7.108
54999SOL    HW266895  10.966   6.965   7.065
55000SOL     OW66896   8.066  13.595   9.871
55000SOL    HW166897   8.014  13.628   9.945
55000SOL    HW266898   8.100  13.511   9.901
55001SOL     OW66899  11.386   6.814  14.721
55001SOL    HW166900  11.393   6.869  14.643
55001SOL    HW266901  11.378   6.877  14.794
55002SOL     OW66902  11.064   9.333  10.576
55002SOL    HW166903  11.076   9.241  10.553
55002SOL    HW266904  10.973   9.338  10.607
55003SOL     OW66905  13.537   8.580  10.292
55003SOL    HW166906  13.583   8.547  10.215
55003SOL    HW266907  13.602   8.576  10.362
55004SOL     OW66908   3.702  12.093   5.785
55004SOL    HW166909   3.735  12.155   5.851
55004SOL    HW266910   3.618  12.063   5.821
55005SOL     OW66911   5.092   3.075   4.323
55005SOL    HW166912   5.068   3.167   4.317
55005SOL    HW266913   5.015   3.028   4.289
55006SOL     OW66914   6.051   1.234   6.177
55006SOL    HW166915   6.105   1.287   6.119
55006SOL    HW266916   5.964   1.234   6.135
55007SOL     OW66917  14.684  12.991   8.993
55007SOL    HW166918  14.668  13.005   8.900
55007SOL    HW266919  14.724  13.073   9.023
55008SOL     OW66920   3.133  12.225   5.943
55008SOL    HW166921   3.225  12.210   5.966
55008SOL    HW266922   3.136  12.274   5.861
55009SOL     OW66923   6.496  13.257   6.936
55009SOL    HW166924   6.409  13.298   6.939
55009SOL    HW266925   6.538  13.295   6.859
55010SOL     OW66926  10.117  14.518   2.139
55010SOL    HW166927  10.188  14.482   2.087
55010SOL    HW266928  10.063  14.567   2.077
55011SOL     OW66929  10.046   8.597   1.092
55011SOL    HW166930  10.034   8.616   1.185
55011SOL    HW266931  10.113   8.660   1.064
55012SOL     OW66932   0.907   2.871  10.398
55012SOL    HW166933   0.867   2.814  10.333
55012SOL    HW266934   0.935   2.813  10.468
55013SOL     OW66935  14.270   0.399  10.482
55013SOL    HW166936  14.191   0.406  10.428
55013SOL    HW266937  14.266   0.310  10.517
55014SOL     OW66938   4.862   5.435  13.948
55014SOL    HW166939   4.809   5.384  13.885
55014SOL    HW266940   4.915   5.492  13.893
55015SOL     OW66941  11.287   5.194   0.668
55015SOL    HW166942  11.241   5.150   0.597
55015SOL    HW266943  11.290   5.286   0.642
55016SOL     OW66944   0.004   1.507  10.748
55016SOL    HW166945   0.072   1.502  10.816
55016SOL    HW266946   0.032   1.444  10.681
55017SOL     OW66947   9.957   5.001   6.645
55017SOL    HW166948  10.052   5.000   6.632
55017SOL    HW266949   9.942   5.075   6.704
55018SOL     OW66950   3.207   9.723  14.603
55018SOL    HW166951   3.258   9.646  14.627
55018SOL    HW266952   3.210   9.726  14.508
55019SOL     OW66953   2.113  11.368   8.350
55019SOL    HW166954   2.122  11.369   8.445
55019SOL    HW266955   2.164  11.443   8.320
55020SOL     OW66956  13.468   2.629  13.905
55020SOL    HW166957  13.386   2.595  13.869
55020SOL    HW266958  13.508   2.677  13.832
55021SOL     OW66959   9.737   3.916   3.415
55021SOL    HW166960   9.717   3.826   3.440
55021SOL    HW266961   9.829   3.928   3.441
55022SOL     OW66962  14.492   1.714  11.051
55022SOL    HW166963  14.401   1.693  11.070
55022SOL    HW266964  14.488   1.787  10.989
55023SOL     OW66965   6.187  11.032  11.577
55023SOL    HW166966   6.202  10.952  11.527
55023SOL    HW266967   6.251  11.094  11.542
55024SOL     OW66968   2.254  10.981   7.461
55024SOL    HW166969   2.249  10.888   7.482
55024SOL    HW266970   2.294  10.984   7.374
55025SOL     OW66971  13.206  14.484  11.546
55025SOL    HW166972  13.188  14.558  11.487
55025SOL    HW266973  13.301  14.485  11.557
55026SOL     OW66974   0.888  10.598   4.138
55026SOL    HW166975   0.962  10.539   4.123
55026SOL    HW266976   0.825  10.545   4.189
55027SOL     OW66977   5.463   6.560   0.024
55027SOL    HW166978   5.455   6.651  14.877
55027SOL    HW266979   5.497   6.567   0.113
55028SOL     OW66980   1.431   0.632   3.927
55028SOL    HW166981   1.439   0.727   3.932
55028SOL    HW266982   1.352   0.612   3.977
55029SOL     OW66983   4.788   3.457   4.968
55029SOL    HW166984   4.697   3.478   4.945
55029SOL    HW266985   4.790   3.463   5.064
55030SOL     OW66986  14.791   5.046  12.720
55030SOL    HW166987  14.718   4.998  12.680
55030SOL    HW266988  14.752   5.089  12.797
55031SOL     OW66989   1.283   5.627   4.752
55031SOL    HW166990   1.202   5.665   4.719
55031SOL    HW266991   1.278   5.535   4.726
55032SOL     OW66992  10.097   7.905   2.393
55032SOL    HW166993  10.179   7.857   2.395
55032SOL    HW266994  10.090   7.937   2.302
55033SOL     OW66995   3.085   4.568   7.083
55033SOL    HW166996   3.106   4.653   7.122
55033SOL    HW266997   3.022   4.588   7.014
55034SOL     OW66998   0.235   4.315   1.833
55034SOL    HW166999   0.246   4.387   1.771
55034SOL    HW267000   0.320   4.310   1.878
55035SOL     OW67001   0.634   6.433   9.215
55035SOL    HW167002   0.587   6.416   9.297
55035SOL    HW267003   0.566   6.444   9.150
55036SOL     OW67004   2.696  12.769   7.777
55036SOL    HW167005   2.786  12.740   7.792
55036SOL    HW267006   2.674  12.735   7.690
55037SOL     OW67007  12.216  11.594   7.435
55037SOL    HW167008  12.190  11.542   7.511
55037SOL    HW267009  12.305  11.565   7.416
55038SOL     OW67010   1.331   8.130   2.115
55038SOL    HW167011   1.308   8.219   2.089
55038SOL    HW267012   1.261   8.075   2.080
55039SOL     OW67013  13.200   9.604   6.345
55039SOL    HW167014  13.147   9.651   6.409
55039SOL    HW267015  13.284   9.651   6.344
55040SOL     OW67016  13.061   3.625   8.649
55040SOL    HW167017  13.075   3.593   8.560
55040SOL    HW267018  13.146   3.660   8.675
55041SOL     OW67019   6.090   4.502  14.708
55041SOL    HW167020   6.019   4.507  14.773
55041SOL    HW267021   6.071   4.424  14.657
55042SOL     OW67022  13.156  12.295   6.145
55042SOL    HW167023  13.093  12.224   6.132
55042SOL    HW267024  13.120  12.369   6.096
55043SOL     OW67025  13.665  13.029  14.522
55043SOL    HW167026  13.755  13.042  14.494
55043SOL    HW267027  13.612  13.064  14.450
55044SOL     OW67028   0.742   0.532   6.193
55044SOL    HW167029   0.774   0.621   6.178
55044SOL    HW267030   0.805   0.494   6.254
55045SOL     OW67031  11.159   0.823   3.953
55045SOL    HW167032  11.177   0.772   3.873
55045SOL    HW267033  11.084   0.778   3.993
55046SOL     OW67034  12.875   6.847  11.046
55046SOL    HW167035  12.950   6.810  11.092
55046SOL    HW267036  12.854   6.927  11.095
55047SOL     OW67037   5.026  10.388   6.904
55047SOL    HW167038   5.079  10.408   6.981
55047SOL    HW267039   5.089  10.381   6.832
55048SOL     OW67040  10.528   0.353   2.544
55048SOL    HW167041  10.465   0.337   2.614
55048SOL    HW267042  10.513   0.282   2.481
55049SOL     OW67043  13.448  10.850  14.313
55049SOL    HW167044  13.357  10.880  14.308
55049SOL    HW267045  13.452  10.800  14.394
55050SOL     OW67046   9.152   2.506   9.351
55050SOL    HW167047   9.096   2.436   9.319
55050SOL    HW267048   9.163   2.488   9.445
55051SOL     OW67049   9.344   6.103   3.944
55051SOL    HW167050   9.381   6.015   3.951
55051SOL    HW267051   9.322   6.113   3.852
55052SOL     OW67052   0.700   1.689   0.162
55052SOL    HW167053   0.753   1.725   0.233
55052SOL    HW267054   0.732   1.732   0.083
55053SOL     OW67055   6.296   5.150   5.764
55053SOL    HW167056   6.294   5.129   5.670
55053SOL    HW267057   6.281   5.065   5.807
55054SOL     OW67058   5.502   7.768   8.503
55054SOL    HW167059   5.415   7.760   8.464
55054SOL    HW267060   5.503   7.701   8.572
55055SOL     OW67061   0.069   3.689   4.673
55055SOL    HW167062   0.003   3.757   4.682
55055SOL    HW267063   0.021   3.607   4.687
55056SOL     OW67064   3.022   9.008   6.524
55056SOL    HW167065   3.108   9.047   6.515
55056SOL    HW267066   3.013   8.992   6.618
55057SOL     OW67067   7.200   4.023   4.055
55057SOL    HW167068   7.242   4.072   3.985
55057SOL    HW267069   7.187   3.935   4.019
55058SOL     OW67070   8.039   5.246   1.198
55058SOL    HW167071   8.091   5.235   1.119
55058SOL    HW267072   8.069   5.177   1.257
55059SOL     OW67073   9.284   6.569  13.024
55059SOL    HW167074   9.339   6.642  12.995
55059SOL    HW267075   9.346   6.498  13.042
55060SOL     OW67076   9.956  10.020  13.691
55060SOL    HW167077   9.921  10.050  13.775
55060SOL    HW267078  10.051  10.018  13.704
55061SOL     OW67079   6.666   0.630   5.967
55061SOL    HW167080   6.643   0.605   5.877
55061SOL    HW267081   6.758   0.607   5.975
55062SOL     OW67082   8.956   2.830   7.799
55062SOL    HW167083   8.862   2.826   7.820
55062SOL    HW267084   8.990   2.746   7.828
55063SOL     OW67085   3.100   0.474   8.048
55063SOL    HW167086   3.147   0.394   8.069
55063SOL    HW267087   3.059   0.457   7.964
55064SOL     OW67088  12.328   1.796  12.229
55064SOL    HW167089  12.313   1.851  12.305
55064SOL    HW267090  12.341   1.708  12.265
55065SOL     OW67091   4.548   6.236  10.545
55065SOL    HW167092   4.484   6.175  10.510
55065SOL    HW267093   4.610   6.181  10.594
55066SOL     OW67094   3.716   8.624   1.519
55066SOL    HW167095   3.703   8.664   1.605
55066SOL    HW267096   3.629   8.593   1.494
55067SOL     OW67097   4.586  12.258  11.190
55067SOL    HW167098   4.526  12.193  11.154
55067SOL    HW267099   4.586  12.329  11.126
55068SOL     OW67100   1.800  14.468   3.555
55068SOL    HW167101   1.756  14.525   3.619
55068SOL    HW267102   1.757  14.383   3.565
55069SOL     OW67103   9.787  12.273   5.341
55069SOL    HW167104   9.796  12.367   5.359
55069SOL    HW267105   9.833  12.231   5.414
55070SOL     OW67106  13.042   3.994  12.843
55070SOL    HW167107  13.063   4.013  12.935
55070SOL    HW267108  13.127   3.976  12.803
55071SOL     OW67109   7.891   1.075   5.556
55071SOL    HW167110   7.972   1.048   5.513
55071SOL    HW267111   7.861   1.151   5.505
55072SOL     OW67112  13.260   9.985   1.737
55072SOL    HW167113  13.348   9.963   1.768
55072SOL    HW267114  13.202   9.929   1.789
55073SOL     OW67115   9.985   8.585   6.851
55073SOL    HW167116   9.940   8.551   6.774
55073SOL    HW267117  10.034   8.511   6.886
55074SOL     OW67118  13.420   2.366   5.120
55074SOL    HW167119  13.339   2.412   5.098
55074SOL    HW267120  13.413   2.349   5.214
55075SOL     OW67121   8.884  14.738  13.113
55075SOL    HW167122   8.837  14.773  13.038
55075SOL    HW267123   8.905  14.648  13.090
55076SOL     OW67124  14.806   5.051  13.207
55076SOL    HW167125   0.006   5.095  13.186
55076SOL    HW267126  14.832   4.974  13.258
55077SOL     OW67127   8.732   5.834  12.825
55077SOL    HW167128   8.737   5.738  12.818
55077SOL    HW267129   8.792   5.865  12.757
55078SOL     OW67130   4.342  14.796   1.678
55078SOL    HW167131   4.270  14.743   1.711
55078SOL    HW267132   4.299  14.869   1.633
55079SOL     OW67133  12.360   2.192   4.636
55079SOL    HW167134  12.319   2.272   4.602
55079SOL    HW267135  12.452   2.200   4.611
55080SOL     OW67136   0.324   9.984   2.511
55080SOL    HW167137   0.330  10.073   2.475
55080SOL    HW267138   0.239   9.952   2.480
55081SOL     OW67139  11.398   7.199   9.825
55081SOL    HW167140  11.351   7.156   9.754
55081SOL    HW267141  11.363   7.288   9.827
55082SOL     OW67142  10.894   9.944   1.922
55082SOL    HW167143  10.865  10.027   1.884
55082SOL    HW267144  10.975   9.924   1.876
55083SOL     OW67145  11.050  13.161   0.708
55083SOL    HW167146  10.958  13.174   0.729
55083SOL    HW267147  11.054  13.169   0.612
55084SOL     OW67148   8.568   3.674   5.686
55084SOL    HW167149   8.486   3.634   5.716
55084SOL    HW267150   8.634   3.607   5.700
55085SOL     OW67151   3.171   2.452  11.517
55085SOL    HW167152   3.198   2.429  11.428
55085SOL    HW267153   3.081   2.420  11.523
55086SOL     OW67154   6.067   5.863   2.800
55086SOL    HW167155   5.973   5.877   2.796
55086SOL    HW267156   6.106   5.947   2.776
55087SOL     OW67157   0.520   8.342   7.284
55087SOL    HW167158   0.581   8.357   7.356
55087SOL    HW267159   0.576   8.331   7.207
55088SOL     OW67160   4.042   5.561   9.384
55088SOL    HW167161   4.038   5.583   9.291
55088SOL    HW267162   4.129   5.522   9.396
55089SOL     OW67163   8.616   5.734   6.756
55089SOL    HW167164   8.619   5.671   6.684
55089SOL    HW267165   8.523   5.744   6.776
55090SOL     OW67166   7.192  12.301  11.322
55090SOL    HW167167   7.198  12.216  11.279
55090SOL    HW267168   7.098  12.314  11.338
55091SOL     OW67169   8.216  12.544   7.491
55091SOL    HW167170   8.175  12.457   7.488
55091SOL    HW267171   8.241  12.561   7.400
55092SOL     OW67172   6.107  10.907   2.724
55092SOL    HW167173   6.182  10.860   2.759
55092SOL    HW267174   6.128  11.000   2.737
55093SOL     OW67175  11.459   9.292  11.793
55093SOL    HW167176  11.547   9.326  11.781
55093SOL    HW267177  11.408   9.367  11.824
55094SOL     OW67178   6.967   2.447   7.551
55094SOL    HW167179   7.037   2.383   7.538
55094SOL    HW267180   6.941   2.435   7.643
55095SOL     OW67181   1.756  11.849   8.543
55095SOL    HW167182   1.850  11.838   8.559
55095SOL    HW267183   1.714  11.800   8.613
55096SOL     OW67184  13.174   1.318  12.779
55096SOL    HW167185  13.121   1.350  12.707
55096SOL    HW267186  13.248   1.273  12.737
55097SOL     OW67187  13.405   3.547   6.212
55097SOL    HW167188  13.484   3.528   6.264
55097SOL    HW267189  13.385   3.464   6.169
55098SOL     OW67190   9.960   3.991   3.983
55098SOL    HW167191  10.001   3.921   3.932
55098SOL    HW267192   9.935   3.949   4.065
55099SOL     OW67193   8.409   8.086  13.802
55099SOL    HW167194   8.375   8.063  13.716
55099SOL    HW267195   8.331   8.103  13.855
55100SOL     OW67196   2.898   8.786   7.519
55100SOL    HW167197   2.866   8.876   7.523
55100SOL    HW267198   2.910   8.761   7.611
55101SOL     OW67199   9.934   0.658   6.988
55101SOL    HW167200   9.899   0.667   7.077
55101SOL    HW267201  10.012   0.603   6.998
55102SOL     OW67202   7.579  13.333  10.212
55102SOL    HW167203   7.562  13.412  10.264
55102SOL    HW267204   7.672  13.315  10.226
55103SOL     OW67205   6.885   1.151  11.223
55103SOL    HW167206   6.980   1.161  11.229
55103SOL    HW267207   6.850   1.236  11.251
55104SOL     OW67208  12.237  14.578   8.902
55104SOL    HW167209  12.252  14.658   8.853
55104SOL    HW267210  12.232  14.607   8.993
55105SOL     OW67211   4.716   1.694   0.561
55105SOL    HW167212   4.789   1.754   0.551
55105SOL    HW267213   4.641   1.750   0.582
55106SOL     OW67214   5.081  11.421   6.188
55106SOL    HW167215   4.985  11.417   6.188
55106SOL    HW267216   5.108  11.346   6.136
55107SOL     OW67217  12.839   8.759   0.227
55107SOL    HW167218  12.774   8.829   0.227
55107SOL    HW267219  12.790   8.682   0.256
55108SOL     OW67220   7.683  10.814  14.765
55108SOL    HW167221   7.707  10.734  14.718
55108SOL    HW267222   7.619  10.786  14.829
55109SOL     OW67223   7.747   1.487  11.851
55109SOL    HW167224   7.660   1.476  11.813
55109SOL    HW267225   7.735   1.469  11.945
55110SOL     OW67226   7.079   1.391   8.850
55110SOL    HW167227   7.083   1.419   8.759
55110SOL    HW267228   7.170   1.378   8.876
55111SOL     OW67229  14.797   8.495  11.249
55111SOL    HW167230  14.702   8.497  11.248
55111SOL    HW267231  14.821   8.449  11.169
55112SOL     OW67232   7.415   7.619   8.010
55112SOL    HW167233   7.471   7.681   8.057
55112SOL    HW267234   7.402   7.547   8.071
55113SOL     OW67235   3.178   7.899   9.153
55113SOL    HW167236   3.107   7.855   9.199
55113SOL    HW267237   3.238   7.929   9.221
55114SOL     OW67238   5.843   3.321   6.667
55114SOL    HW167239   5.759   3.282   6.690
55114SOL    HW267240   5.820   3.406   6.629
55115SOL     OW67241   0.205   7.385   7.408
55115SOL    HW167242   0.295   7.409   7.386
55115SOL    HW267243   0.214   7.315   7.473
55116SOL     OW67244   1.507   5.361  14.384
55116SOL    HW167245   1.526   5.351  14.290
55116SOL    HW267246   1.518   5.454  14.401
55117SOL     OW67247   0.602  11.556   1.016
55117SOL    HW167248   0.507  11.555   1.002
55117SOL    HW267249   0.638  11.513   0.939
55118SOL     OW67250   8.082   7.311   2.797
55118SOL    HW167251   8.081   7.325   2.702
55118SOL    HW267252   8.018   7.241   2.811
55119SOL     OW67253   1.006   4.415   2.763
55119SOL    HW167254   1.061   4.424   2.685
55119SOL    HW267255   0.943   4.487   2.756
55120SOL     OW67256   1.528   6.635  13.500
55120SOL    HW167257   1.453   6.578  13.516
55120SOL    HW267258   1.602   6.588  13.539
55121SOL     OW67259   5.825  14.666   5.449
55121SOL    HW167260   5.748  14.685   5.396
55121SOL    HW267261   5.790  14.644   5.536
55122SOL     OW67262  14.847   1.900   6.696
55122SOL    HW167263  14.811   1.819   6.731
55122SOL    HW267264  14.809   1.908   6.609
55123SOL     OW67265   3.559   2.002  11.016
55123SOL    HW167266   3.609   1.946  10.958
55123SOL    HW267267   3.598   2.089  11.005
55124SOL     OW67268   1.983  10.555   7.182
55124SOL    HW167269   1.997  10.564   7.276
55124SOL    HW267270   1.903  10.606   7.165
55125SOL     OW67271   2.675   5.100   1.134
55125SOL    HW167272   2.610   5.164   1.161
55125SOL    HW267273   2.658   5.086   1.041
55126SOL     OW67274  10.976   9.578   4.783
55126SOL    HW167275  10.994   9.498   4.733
55126SOL    HW267276  10.941   9.547   4.866
55127SOL     OW67277   5.142   4.340   7.661
55127SOL    HW167278   5.176   4.420   7.622
55127SOL    HW267279   5.216   4.305   7.711
55128SOL     OW67280   7.343   2.896   5.765
55128SOL    HW167281   7.373   2.977   5.806
55128SOL    HW267282   7.275   2.925   5.704
55129SOL     OW67283  10.840   4.836  11.941
55129SOL    HW167284  10.838   4.772  11.869
55129SOL    HW267285  10.894   4.794  12.008
55130SOL     OW67286   5.295  14.543   0.766
55130SOL    HW167287   5.251  14.517   0.847
55130SOL    HW267288   5.387  14.526   0.782
55131SOL     OW67289   9.413   0.506   9.098
55131SOL    HW167290   9.474   0.432   9.098
55131SOL    HW267291   9.327   0.467   9.110
55132SOL     OW67292   6.535   4.493   9.345
55132SOL    HW167293   6.552   4.405   9.312
55132SOL    HW267294   6.482   4.534   9.277
55133SOL     OW67295   5.981   2.533  12.820
55133SOL    HW167296   5.974   2.519  12.915
55133SOL    HW267297   6.072   2.562  12.807
55134SOL     OW67298   1.047  10.169   7.900
55134SOL    HW167299   1.142  10.164   7.900
55134SOL    HW267300   1.022  10.158   7.992
55135SOL     OW67301   6.277   6.361   8.658
55135SOL    HW167302   6.198   6.307   8.650
55135SOL    HW267303   6.324   6.325   8.733
55136SOL     OW67304  13.605   8.780   0.404
55136SOL    HW167305  13.598   8.717   0.475
55136SOL    HW267306  13.516   8.813   0.391
55137SOL     OW67307   9.906   9.254   1.026
55137SOL    HW167308   9.846   9.194   0.983
55137SOL    HW267309   9.964   9.198   1.078
55138SOL     OW67310   6.337   1.978  10.926
55138SOL    HW167311   6.406   1.970  10.991
55138SOL    HW267312   6.319   2.072  10.922
55139SOL     OW67313   8.390   4.745  14.475
55139SOL    HW167314   8.466   4.727  14.530
55139SOL    HW267315   8.396   4.838  14.456
55140SOL     OW67316  10.808   9.228  11.869
55140SOL    HW167317  10.719   9.220  11.835
55140SOL    HW267318  10.854   9.282  11.805
55141SOL     OW67319   8.282  14.064   4.482
55141SOL    HW167320   8.365  14.055   4.528
55141SOL    HW267321   8.250  13.975   4.470
55142SOL     OW67322  14.399   1.248   6.816
55142SOL    HW167323  14.371   1.326   6.767
55142SOL    HW267324  14.494   1.247   6.806
55143SOL     OW67325   5.944   2.289  12.383
55143SOL    HW167326   5.975   2.198  12.375
55143SOL    HW267327   5.849   2.283  12.373
55144SOL     OW67328   6.474  11.673   9.366
55144SOL    HW167329   6.465  11.729   9.289
55144SOL    HW267330   6.412  11.602   9.351
55145SOL     OW67331   5.045   3.293   3.129
55145SOL    HW167332   5.082   3.313   3.216
55145SOL    HW267333   4.956   3.263   3.147
55146SOL     OW67334   1.654   1.102  12.711
55146SOL    HW167335   1.732   1.083  12.763
55146SOL    HW267336   1.586   1.046  12.749
55147SOL     OW67337   1.946  13.014   8.706
55147SOL    HW167338   2.018  13.003   8.768
55147SOL    HW267339   1.869  12.981   8.752
55148SOL     OW67340   7.304  10.882  14.528
55148SOL    HW167341   7.388  10.888  14.481
55148SOL    HW267342   7.304  10.959  14.585
55149SOL     OW67343  11.450  14.110   2.432
55149SOL    HW167344  11.359  14.090   2.454
55149SOL    HW267345  11.477  14.040   2.373
55150SOL     OW67346   1.783   5.073   1.577
55150SOL    HW167347   1.802   4.996   1.631
55150SOL    HW267348   1.858   5.131   1.589
55151SOL     OW67349   7.486  10.015   2.394
55151SOL    HW167350   7.498   9.955   2.468
55151SOL    HW267351   7.544   9.980   2.326
55152SOL     OW67352   3.788   2.873  12.231
55152SOL    HW167353   3.806   2.791  12.277
55152SOL    HW267354   3.821   2.858  12.142
55153SOL     OW67355   0.334   4.437  13.466
55153SOL    HW167356   0.403   4.411  13.404
55153SOL    HW267357   0.314   4.527  13.443
55154SOL     OW67358   4.014   7.030  11.866
55154SOL    HW167359   4.094   7.010  11.818
55154SOL    HW267360   4.006   6.959  11.930
55155SOL     OW67361  13.862   4.437   5.636
55155SOL    HW167362  13.826   4.370   5.578
55155SOL    HW267363  13.794   4.450   5.703
55156SOL     OW67364   4.484   4.226   2.732
55156SOL    HW167365   4.529   4.306   2.760
55156SOL    HW267366   4.391   4.245   2.747
55157SOL     OW67367   0.002  12.571  12.447
55157SOL    HW167368  14.875  12.637  12.379
55157SOL    HW267369   0.086  12.529  12.428
55158SOL     OW67370  13.620  13.904  11.270
55158SOL    HW167371  13.588  13.837  11.331
55158SOL    HW267372  13.544  13.927  11.217
55159SOL     OW67373   5.404  13.563   3.341
55159SOL    HW167374   5.335  13.505   3.309
55159SOL    HW267375   5.418  13.536   3.431
55160SOL     OW67376  13.895   0.787   3.831
55160SOL    HW167377  13.906   0.841   3.753
55160SOL    HW267378  13.931   0.841   3.902
55161SOL     OW67379   1.297   7.310  13.756
55161SOL    HW167380   1.231   7.319  13.824
55161SOL    HW267381   1.249   7.277  13.680
55162SOL     OW67382  13.114   3.681   8.213
55162SOL    HW167383  13.207   3.690   8.236
55162SOL    HW267384  13.083   3.772   8.206
55163SOL     OW67385  10.883   9.574   0.362
55163SOL    HW167386  10.809   9.625   0.395
55163SOL    HW267387  10.917   9.528   0.439
55164SOL     OW67388  12.498   0.640  11.423
55164SOL    HW167389  12.444   0.629  11.345
55164SOL    HW267390  12.445   0.692  11.483
55165SOL     OW67391   8.844   5.098   2.004
55165SOL    HW167392   8.917   5.070   1.948
55165SOL    HW267393   8.819   5.183   1.969
55166SOL     OW67394   0.671   9.159  10.619
55166SOL    HW167395   0.627   9.242  10.605
55166SOL    HW267396   0.668   9.115  10.533
55167SOL     OW67397  12.551   7.100   6.067
55167SOL    HW167398  12.591   7.095   6.154
55167SOL    HW267399  12.464   7.063   6.078
55168SOL     OW67400  12.246  14.866   0.982
55168SOL    HW167401  12.252   0.079   0.989
55168SOL    HW267402  12.303  14.832   1.051
55169SOL     OW67403   5.143  10.918   9.649
55169SOL    HW167404   5.137  11.006   9.685
55169SOL    HW267405   5.237  10.899   9.648
55170SOL     OW67406   4.983   9.518   0.690
55170SOL    HW167407   4.941   9.585   0.745
55170SOL    HW267408   5.070   9.507   0.727
55171SOL     OW67409   5.250   0.675  10.597
55171SOL    HW167410   5.158   0.659  10.576
55171SOL    HW267411   5.250   0.688  10.692
55172SOL     OW67412   4.656   4.108  13.153
55172SOL    HW167413   4.606   4.040  13.197
55172SOL    HW267414   4.637   4.188  13.201
55173SOL     OW67415  10.817   5.751   6.802
55173SOL    HW167416  10.759   5.805   6.856
55173SOL    HW267417  10.811   5.788   6.714
55174SOL     OW67418  10.653   3.571   6.220
55174SOL    HW167419  10.650   3.479   6.195
55174SOL    HW267420  10.567   3.587   6.261
55175SOL     OW67421   4.513  12.536   5.097
55175SOL    HW167422   4.594  12.486   5.098
55175SOL    HW267423   4.523  12.601   5.166
55176SOL     OW67424   3.528  13.430  11.701
55176SOL    HW167425   3.477  13.372  11.758
55176SOL    HW267426   3.491  13.517  11.716
55177SOL     OW67427   6.063   1.669   9.748
55177SOL    HW167428   5.977   1.696   9.778
55177SOL    HW267429   6.049   1.584   9.708
55178SOL     OW67430   4.647  13.451   0.198
55178SOL    HW167431   4.604  13.370   0.171
55178SOL    HW267432   4.635  13.510   0.124
55179SOL     OW67433  11.292   0.323   5.913
55179SOL    HW167434  11.272   0.263   5.841
55179SOL    HW267435  11.254   0.281   5.991
55180SOL     OW67436   6.290   6.092   6.306
55180SOL    HW167437   6.228   6.142   6.359
55180SOL    HW267438   6.308   6.014   6.358
55181SOL     OW67439   9.516   8.343   4.486
55181SOL    HW167440   9.605   8.317   4.464
55181SOL    HW267441   9.461   8.298   4.421
55182SOL     OW67442   6.707   8.377   9.089
55182SOL    HW167443   6.654   8.322   9.032
55182SOL    HW267444   6.794   8.336   9.088
55183SOL     OW67445  13.964   2.286  10.774
55183SOL    HW167446  13.880   2.266  10.815
55183SOL    HW267447  13.942   2.311  10.684
55184SOL     OW67448   2.760   2.911  11.561
55184SOL    HW167449   2.700   2.837  11.554
55184SOL    HW267450   2.782   2.933  11.471
55185SOL     OW67451   9.935   4.443   8.243
55185SOL    HW167452   9.995   4.369   8.257
55185SOL    HW267453   9.851   4.412   8.277
55186SOL     OW67454   5.694  14.016   6.213
55186SOL    HW167455   5.707  14.035   6.120
55186SOL    HW267456   5.622  13.953   6.214
55187SOL     OW67457   6.461   0.710   5.310
55187SOL    HW167458   6.457   0.724   5.215
55187SOL    HW267459   6.492   0.620   5.320
55188SOL     OW67460   7.645  14.051  11.556
55188SOL    HW167461   7.569  14.110  11.548
55188SOL    HW267462   7.619  13.988  11.623
55189SOL     OW67463   8.267  10.169   1.776
55189SOL    HW167464   8.313  10.188   1.694
55189SOL    HW267465   8.294  10.240   1.835
55190SOL     OW67466   4.509   8.329  14.720
55190SOL    HW167467   4.496   8.366  14.808
55190SOL    HW267468   4.477   8.397  14.661
55191SOL     OW67469  10.746   4.951  13.992
55191SOL    HW167470  10.812   4.956  13.924
55191SOL    HW267471  10.669   4.993  13.954
55192SOL     OW67472   6.255  14.774   9.748
55192SOL    HW167473   6.298  14.830   9.683
55192SOL    HW267474   6.197  14.718   9.696
55193SOL     OW67475  11.957   2.548   5.962
55193SOL    HW167476  11.957   2.461   5.922
55193SOL    HW267477  12.037   2.589   5.928
55194SOL     OW67478  11.790  11.366   6.115
55194SOL    HW167479  11.843  11.286   6.112
55194SOL    HW267480  11.730  11.357   6.040
55195SOL     OW67481   3.767   9.003   1.746
55195SOL    HW167482   3.734   9.093   1.746
55195SOL    HW267483   3.688   8.949   1.742
55196SOL     OW67484  13.550  11.682  10.070
55196SOL    HW167485  13.636  11.689  10.110
55196SOL    HW267486  13.515  11.771  10.071
55197SOL     OW67487   3.471   0.538   0.636
55197SOL    HW167488   3.388   0.501   0.668
55197SOL    HW267489   3.527   0.539   0.713
55198SOL     OW67490  10.311   9.183   8.502
55198SOL    HW167491  10.241   9.149   8.558
55198SOL    HW267492  10.346   9.258   8.551
55199SOL     OW67493   5.749  14.814   9.181
55199SOL    HW167494   5.675  14.754   9.189
55199SOL    HW267495   5.760  14.826   9.087
55200SOL     OW67496   5.037  11.644   0.713
55200SOL    HW167497   5.002  11.663   0.800
55200SOL    HW267498   5.001  11.558   0.691
55201SOL     OW67499  11.617   5.109  12.997
55201SOL    HW167500  11.616   5.014  12.997
55201SOL    HW267501  11.709   5.132  12.981
55202SOL     OW67502   0.260  10.595   2.531
55202SOL    HW167503   0.209  10.675   2.539
55202SOL    HW267504   0.261  10.558   2.619
55203SOL     OW67505   6.704  11.622   4.192
55203SOL    HW167506   6.666  11.659   4.113
55203SOL    HW267507   6.799  11.627   4.177
55204SOL     OW67508  14.756  13.401   9.609
55204SOL    HW167509  14.730  13.437   9.693
55204SOL    HW267510  14.759  13.306   9.623
55205SOL     OW67511   3.472   1.705   0.485
55205SOL    HW167512   3.521   1.630   0.519
55205SOL    HW267513   3.537   1.760   0.442
55206SOL     OW67514  14.457  11.198  11.814
55206SOL    HW167515  14.551  11.179  11.817
55206SOL    HW267516  14.422  11.135  11.751
55207SOL     OW67517   1.962   7.712  10.308
55207SOL    HW167518   2.010   7.646  10.258
55207SOL    HW267519   1.870   7.696  10.288
55208SOL     OW67520   6.529  13.123   9.137
55208SOL    HW167521   6.568  13.210   9.147
55208SOL    HW267522   6.603  13.064   9.129
55209SOL     OW67523   2.263  11.959   2.626
55209SOL    HW167524   2.337  12.006   2.666
55209SOL    HW267525   2.269  11.870   2.660
55210SOL     OW67526   1.679  14.241   1.992
55210SOL    HW167527   1.751  14.273   2.046
55210SOL    HW267528   1.721  14.187   1.925
55211SOL     OW67529   2.652  13.726   7.621
55211SOL    HW167530   2.648  13.640   7.580
55211SOL    HW267531   2.560  13.752   7.633
55212SOL     OW67532   3.028   6.170  11.497
55212SOL    HW167533   2.987   6.201  11.417
55212SOL    HW267534   2.957   6.170  11.562
55213SOL     OW67535   8.094   3.295   5.063
55213SOL    HW167536   8.089   3.280   5.157
55213SOL    HW267537   8.162   3.235   5.032
55214SOL     OW67538   7.303  11.569   9.303
55214SOL    HW167539   7.253  11.499   9.345
55214SOL    HW267540   7.306  11.544   9.210
55215SOL     OW67541   2.265  10.125  10.620
55215SOL    HW167542   2.210  10.067  10.673
55215SOL    HW267543   2.332  10.158  10.680
55216SOL     OW67544  11.912  10.234  13.883
55216SOL    HW167545  11.833  10.180  13.891
55216SOL    HW267546  11.983  10.176  13.909
55217SOL     OW67547  14.804   4.469  13.014
55217SOL    HW167548  14.824   4.537  12.950
55217SOL    HW267549  14.863   4.397  12.992
55218SOL     OW67550   0.836   2.830   0.430
55218SOL    HW167551   0.918   2.839   0.382
55218SOL    HW267552   0.854   2.765   0.497
55219SOL     OW67553  11.649   6.151   5.275
55219SOL    HW167554  11.614   6.116   5.193
55219SOL    HW267555  11.670   6.074   5.328
55220SOL     OW67556   2.556   0.875   5.419
55220SOL    HW167557   2.510   0.919   5.347
55220SOL    HW267558   2.533   0.926   5.496
55221SOL     OW67559   7.053   5.470   7.737
55221SOL    HW167560   7.110   5.458   7.813
55221SOL    HW267561   6.972   5.426   7.761
55222SOL     OW67562   7.671   8.637   4.801
55222SOL    HW167563   7.688   8.697   4.873
55222SOL    HW267564   7.750   8.582   4.797
55223SOL     OW67565   9.673   5.861   8.163
55223SOL    HW167566   9.640   5.860   8.253
55223SOL    HW267567   9.637   5.781   8.124
55224SOL     OW67568  13.450   5.622  10.264
55224SOL    HW167569  13.394   5.628  10.187
55224SOL    HW267570  13.426   5.698  10.317
55225SOL     OW67571   5.786   1.376   5.149
55225SOL    HW167572   5.765   1.462   5.188
55225SOL    HW267573   5.866   1.392   5.099
55226SOL     OW67574   7.766  12.735   7.095
55226SOL    HW167575   7.808  12.814   7.060
55226SOL    HW267576   7.679  12.735   7.054
55227SOL     OW67577   5.943  14.166   5.298
55227SOL    HW167578   5.898  14.187   5.217
55227SOL    HW267579   5.916  14.235   5.359
55228SOL     OW67580   6.832  10.927  13.328
55228SOL    HW167581   6.913  10.974  13.310
55228SOL    HW267582   6.810  10.883  13.246
55229SOL     OW67583   2.337  10.410  13.624
55229SOL    HW167584   2.349  10.436  13.533
55229SOL    HW267585   2.371  10.320  13.629
55230SOL     OW67586   9.018  14.526  10.859
55230SOL    HW167587   9.019  14.574  10.942
55230SOL    HW267588   9.025  14.595  10.792
55231SOL     OW67589  11.375   4.883  12.475
55231SOL    HW167590  11.328   4.868  12.393
55231SOL    HW267591  11.415   4.969  12.463
55232SOL     OW67592   5.471   0.113  10.470
55232SOL    HW167593   5.520   0.182  10.424
55232SOL    HW267594   5.426   0.066  10.400
55233SOL     OW67595  11.615   2.048   4.373
55233SOL    HW167596  11.670   2.001   4.435
55233SOL    HW267597  11.584   1.981   4.312
55234SOL     OW67598  12.964  10.492   1.953
55234SOL    HW167599  12.965  10.484   1.857
55234SOL    HW267600  12.978  10.402   1.984
55235SOL     OW67601   7.471  11.686  12.608
55235SOL    HW167602   7.390  11.719  12.647
55235SOL    HW267603   7.474  11.594  12.633
55236SOL     OW67604   3.599  11.785  12.395
55236SOL    HW167605   3.571  11.840  12.321
55236SOL    HW267606   3.573  11.696  12.370
55237SOL     OW67607   7.071   1.315  10.560
55237SOL    HW167608   7.061   1.299  10.653
55237SOL    HW267609   7.164   1.336  10.549
55238SOL     OW67610  13.351   7.632   8.685
55238SOL    HW167611  13.416   7.659   8.619
55238SOL    HW267612  13.322   7.545   8.656
55239SOL     OW67613   2.985   9.734  11.909
55239SOL    HW167614   3.071   9.691  11.915
55239SOL    HW267615   2.974   9.753  11.816
55240SOL     OW67616  11.927   2.748  14.614
55240SOL    HW167617  11.973   2.777  14.692
55240SOL    HW267618  11.838   2.726  14.644
55241SOL     OW67619   8.433   7.578   9.491
55241SOL    HW167620   8.342   7.554   9.474
55241SOL    HW267621   8.446   7.558   9.583
55242SOL     OW67622  10.015   5.889   1.387
55242SOL    HW167623  10.094   5.940   1.369
55242SOL    HW267624  10.026   5.809   1.336
55243SOL     OW67625   8.148   6.826   1.001
55243SOL    HW167626   8.083   6.843   0.932
55243SOL    HW267627   8.221   6.786   0.955
55244SOL     OW67628  14.644   5.557  13.403
55244SOL    HW167629  14.617   5.645  13.375
55244SOL    HW267630  14.655   5.508  13.321
55245SOL     OW67631  13.655   1.261   7.775
55245SOL    HW167632  13.669   1.167   7.769
55245SOL    HW267633  13.571   1.271   7.820
55246SOL     OW67634   2.113  14.708  10.487
55246SOL    HW167635   2.053  14.633  10.486
55246SOL    HW267636   2.093  14.756  10.407
55247SOL     OW67637   8.664  13.081  10.611
55247SOL    HW167638   8.612  13.076  10.691
55247SOL    HW267639   8.706  13.167  10.615
55248SOL     OW67640   3.188   6.036   7.405
55248SOL    HW167641   3.112   6.074   7.450
55248SOL    HW267642   3.150   5.978   7.339
55249SOL     OW67643   4.575   1.407   2.346
55249SOL    HW167644   4.567   1.493   2.389
55249SOL    HW267645   4.509   1.408   2.277
55250SOL     OW67646   6.769   9.090  13.953
55250SOL    HW167647   6.688   9.062  13.994
55250SOL    HW267648   6.837   9.067  14.017
55251SOL     OW67649   4.223  10.892   5.530
55251SOL    HW167650   4.157  10.919   5.594
55251SOL    HW267651   4.221  10.796   5.533
55252SOL     OW67652   5.470  13.103   8.103
55252SOL    HW167653   5.531  13.104   8.177
55252SOL    HW267654   5.433  13.191   8.101
55253SOL     OW67655  10.209   2.277   5.308
55253SOL    HW167656  10.221   2.230   5.226
55253SOL    HW267657  10.139   2.339   5.290
55254SOL     OW67658   3.922  12.756   8.838
55254SOL    HW167659   3.831  12.763   8.869
55254SOL    HW267660   3.953  12.673   8.874
55255SOL     OW67661   8.489  14.311   8.412
55255SOL    HW167662   8.580  14.316   8.443
55255SOL    HW267663   8.496  14.311   8.317
55256SOL     OW67664  12.776  10.590   9.558
55256SOL    HW167665  12.739  10.559   9.476
55256SOL    HW267666  12.752  10.523   9.622
55257SOL     OW67667   5.833  12.068   7.818
55257SOL    HW167668   5.751  12.065   7.868
55257SOL    HW267669   5.868  12.156   7.836
55258SOL     OW67670   5.308   3.556   1.313
55258SOL    HW167671   5.380   3.610   1.346
55258SOL    HW267672   5.231   3.613   1.320
55259SOL     OW67673   8.812   5.154   0.855
55259SOL    HW167674   8.752   5.206   0.909
55259SOL    HW267675   8.818   5.203   0.773
55260SOL     OW67676  10.197   1.079  10.970
55260SOL    HW167677  10.105   1.080  10.996
55260SOL    HW267678  10.220   0.986  10.971
55261SOL     OW67679  11.850   2.775  10.122
55261SOL    HW167680  11.811   2.830  10.191
55261SOL    HW267681  11.940   2.760  10.151
55262SOL     OW67682  14.462   0.434  13.725
55262SOL    HW167683  14.452   0.503  13.660
55262SOL    HW267684  14.545   0.455  13.768
55263SOL     OW67685   1.043  10.768   1.561
55263SOL    HW167686   0.997  10.697   1.606
55263SOL    HW267687   1.099  10.806   1.629
55264SOL     OW67688   2.022   8.391   2.017
55264SOL    HW167689   2.109   8.430   2.009
55264SOL    HW267690   1.967   8.441   1.957
55265SOL     OW67691   9.867   0.015   7.888
55265SOL    HW167692   9.881  14.815   7.935
55265SOL    HW267693   9.772   0.026   7.886
55266SOL     OW67694   2.746   9.047  14.584
55266SOL    HW167695   2.806   9.115  14.552
55266SOL    HW267696   2.678   9.096  14.630
55267SOL     OW67697   1.772   5.814   2.285
55267SOL    HW167698   1.739   5.750   2.222
55267SOL    HW267699   1.718   5.801   2.363
55268SOL     OW67700   2.293  10.358  14.471
55268SOL    HW167701   2.208  10.388  14.442
55268SOL    HW267702   2.288  10.262  14.465
55269SOL     OW67703   0.498  13.021   2.393
55269SOL    HW167704   0.566  13.014   2.460
55269SOL    HW267705   0.427  12.966   2.425
55270SOL     OW67706   3.580   7.028   7.037
55270SOL    HW167707   3.492   7.051   7.008
55270SOL    HW267708   3.591   6.937   7.012
55271SOL     OW67709   4.282   7.624  13.415
55271SOL    HW167710   4.303   7.531  13.421
55271SOL    HW267711   4.355   7.663  13.368
55272SOL     OW67712   5.823  13.188  11.294
55272SOL    HW167713   5.788  13.101  11.315
55272SOL    HW267714   5.813  13.237  11.376
55273SOL     OW67715  14.550   8.375   5.951
55273SOL    HW167716  14.612   8.446   5.966
55273SOL    HW267717  14.591   8.322   5.883
55274SOL     OW67718   8.803  11.837   2.181
55274SOL    HW167719   8.804  11.753   2.134
55274SOL    HW267720   8.850  11.820   2.262
55275SOL     OW67721   1.833   6.223   2.559
55275SOL    HW167722   1.799   6.158   2.498
55275SOL    HW267723   1.885   6.282   2.505
55276SOL     OW67724  14.856   8.660   6.595
55276SOL    HW167725   0.007   8.627   6.679
55276SOL    HW267726  14.771   8.698   6.616
55277SOL     OW67727  14.444   2.229   4.724
55277SOL    HW167728  14.430   2.136   4.708
55277SOL    HW267729  14.536   2.244   4.704
55278SOL     OW67730  11.052   8.053   5.411
55278SOL    HW167731  11.092   8.053   5.325
55278SOL    HW267732  11.020   7.964   5.424
55279SOL     OW67733  13.993   0.300   2.592
55279SOL    HW167734  14.025   0.240   2.524
55279SOL    HW267735  13.898   0.301   2.581
55280SOL     OW67736   2.559   4.758   3.418
55280SOL    HW167737   2.530   4.682   3.468
55280SOL    HW267738   2.489   4.822   3.428
55281SOL     OW67739   5.830  10.904   5.123
55281SOL    HW167740   5.786  10.836   5.071
55281SOL    HW267741   5.827  10.871   5.213
55282SOL     OW67742   2.437   8.256  13.873
55282SOL    HW167743   2.408   8.268  13.963
55282SOL    HW267744   2.356   8.251  13.822
55283SOL     OW67745  13.706   7.534   3.859
55283SOL    HW167746  13.726   7.604   3.921
55283SOL    HW267747  13.671   7.463   3.913
55284SOL     OW67748   7.455   6.042   1.825
55284SOL    HW167749   7.418   6.128   1.804
55284SOL    HW267750   7.444   6.035   1.920
55285SOL     OW67751   2.327   9.187   8.559
55285SOL    HW167752   2.268   9.199   8.633
55285SOL    HW267753   2.284   9.123   8.503
55286SOL     OW67754  13.489   4.419  14.231
55286SOL    HW167755  13.490   4.511  14.206
55286SOL    HW267756  13.522   4.373  14.154
55287SOL     OW67757   7.570  13.627   2.605
55287SOL    HW167758   7.661  13.629   2.634
55287SOL    HW267759   7.537  13.715   2.623
55288SOL     OW67760   4.786   5.040   6.017
55288SOL    HW167761   4.726   5.105   5.981
55288SOL    HW267762   4.800   5.068   6.108
55289SOL     OW67763   1.455  13.761  11.329
55289SOL    HW167764   1.545  13.729  11.329
55289SOL    HW267765   1.455  13.833  11.266
55290SOL     OW67766  10.798   3.517   7.608
55290SOL    HW167767  10.789   3.422   7.622
55290SOL    HW267768  10.880   3.539   7.653
55291SOL     OW67769   3.127  13.004   1.463
55291SOL    HW167770   3.167  13.070   1.406
55291SOL    HW267771   3.091  12.940   1.402
55292SOL     OW67772  12.366   3.727   8.226
55292SOL    HW167773  12.427   3.722   8.300
55292SOL    HW267774  12.348   3.635   8.204
55293SOL     OW67775  12.096   6.578  10.270
55293SOL    HW167776  12.000   6.574  10.273
55293SOL    HW267777  12.122   6.495  10.229
55294SOL     OW67778   3.264   2.300  13.977
55294SOL    HW167779   3.249   2.213  14.013
55294SOL    HW267780   3.272   2.356  14.054
55295SOL     OW67781  14.415   4.881   0.115
55295SOL    HW167782  14.445   4.964   0.077
55295SOL    HW267783  14.478   4.816   0.084
55296SOL     OW67784   3.961  14.852   1.490
55296SOL    HW167785   3.912  14.881   1.413
55296SOL    HW267786   4.050   0.004   1.476
55297SOL     OW67787   7.048   1.877   6.526
55297SOL    HW167788   7.094   1.933   6.463
55297SOL    HW267789   6.955   1.898   6.513
55298SOL     OW67790   0.796   6.476  13.662
55298SOL    HW167791   0.778   6.548  13.723
55298SOL    HW267792   0.773   6.511  13.576
55299SOL     OW67793   6.164   6.457   5.493
55299SOL    HW167794   6.167   6.362   5.503
55299SOL    HW267795   6.103   6.487   5.560
55300SOL     OW67796   9.716   5.451  14.857
55300SOL    HW167797   9.693   5.364   0.008
55300SOL    HW267798   9.784   5.434  14.791
55301SOL     OW67799  10.964   2.112   4.153
55301SOL    HW167800  10.896   2.127   4.218
55301SOL    HW267801  10.968   2.017   4.144
55302SOL     OW67802   1.652  12.745   2.736
55302SOL    HW167803   1.631  12.652   2.743
55302SOL    HW267804   1.568  12.789   2.748
55303SOL     OW67805   5.015   2.714  12.827
55303SOL    HW167806   4.968   2.751  12.902
55303SOL    HW267807   5.024   2.788  12.766
55304SOL     OW67808   1.162   0.560   3.271
55304SOL    HW167809   1.104   0.484   3.280
55304SOL    HW267810   1.148   0.610   3.352
55305SOL     OW67811   1.252   2.363   8.589
55305SOL    HW167812   1.174   2.326   8.547
55305SOL    HW267813   1.312   2.379   8.516
55306SOL     OW67814   4.384   5.382   1.775
55306SOL    HW167815   4.426   5.457   1.732
55306SOL    HW267816   4.301   5.416   1.806
55307SOL     OW67817   0.870   8.790   5.390
55307SOL    HW167818   0.945   8.848   5.377
55307SOL    HW267819   0.867   8.776   5.485
55308SOL     OW67820   3.197   6.252   7.839
55308SOL    HW167821   3.274   6.211   7.878
55308SOL    HW267822   3.159   6.304   7.910
55309SOL     OW67823  10.040  14.222   2.739
55309SOL    HW167824  10.078  14.303   2.705
55309SOL    HW267825  10.087  14.208   2.822
55310SOL     OW67826   6.346  12.872   4.532
55310SOL    HW167827   6.294  12.896   4.455
55310SOL    HW267828   6.435  12.862   4.499
55311SOL     OW67829  12.449  12.257   2.573
55311SOL    HW167830  12.477  12.256   2.481
55311SOL    HW267831  12.370  12.310   2.573
55312SOL     OW67832   4.354  10.730   4.469
55312SOL    HW167833   4.399  10.658   4.514
55312SOL    HW267834   4.335  10.695   4.382
55313SOL     OW67835  12.483  14.517  10.716
55313SOL    HW167836  12.435  14.531  10.798
55313SOL    HW267837  12.501  14.423  10.714
55314SOL     OW67838   4.649  11.956   3.323
55314SOL    HW167839   4.623  12.040   3.284
55314SOL    HW267840   4.663  11.898   3.248
55315SOL     OW67841   8.877   4.269  14.047
55315SOL    HW167842   8.934   4.346  14.057
55315SOL    HW267843   8.790   4.300  14.068
55316SOL     OW67844   4.662  10.668   2.711
55316SOL    HW167845   4.670  10.574   2.732
55316SOL    HW267846   4.693  10.675   2.621
55317SOL     OW67847   8.145  10.211   1.390
55317SOL    HW167848   8.178  10.140   1.446
55317SOL    HW267849   8.201  10.286   1.411
55318SOL     OW67850   4.194   9.293   8.119
55318SOL    HW167851   4.171   9.356   8.050
55318SOL    HW267852   4.240   9.223   8.074
55319SOL     OW67853   5.016   6.856   6.454
55319SOL    HW167854   5.059   6.896   6.530
55319SOL    HW267855   5.031   6.763   6.465
55320SOL     OW67856   1.306   2.769   7.463
55320SOL    HW167857   1.235   2.723   7.417
55320SOL    HW267858   1.263   2.814   7.535
55321SOL     OW67859   3.249  10.111   1.629
55321SOL    HW167860   3.248  10.046   1.559
55321SOL    HW267861   3.293  10.187   1.591
55322SOL     OW67862   2.931   2.518   2.967
55322SOL    HW167863   2.963   2.448   3.024
55322SOL    HW267864   2.852   2.550   3.011
55323SOL     OW67865   0.840   3.708   5.041
55323SOL    HW167866   0.758   3.718   4.993
55323SOL    HW267867   0.904   3.759   4.991
55324SOL     OW67868  10.595   5.742   4.572
55324SOL    HW167869  10.618   5.796   4.648
55324SOL    HW267870  10.679   5.716   4.534
55325SOL     OW67871   0.315   9.109   7.191
55325SOL    HW167872   0.292   9.136   7.103
55325SOL    HW267873   0.390   9.164   7.215
55326SOL     OW67874   6.333   2.242   9.626
55326SOL    HW167875   6.249   2.197   9.617
55326SOL    HW267876   6.339   2.299   9.550
55327SOL     OW67877   9.558  13.936   4.762
55327SOL    HW167878   9.569  14.029   4.745
55327SOL    HW267879   9.558  13.895   4.676
55328SOL     OW67880   9.047   3.747   5.191
55328SOL    HW167881   9.115   3.687   5.223
55328SOL    HW267882   9.024   3.714   5.105
55329SOL     OW67883   6.943   3.221   8.290
55329SOL    HW167884   6.989   3.274   8.355
55329SOL    HW267885   6.983   3.246   8.206
55330SOL     OW67886   9.492   7.042   4.939
55330SOL    HW167887   9.488   6.977   4.869
55330SOL    HW267888   9.561   7.010   4.997
55331SOL     OW67889   1.589   3.571   1.565
55331SOL    HW167890   1.505   3.527   1.581
55331SOL    HW267891   1.596   3.635   1.635
55332SOL     OW67892  10.448  14.252   8.060
55332SOL    HW167893  10.393  14.303   8.119
55332SOL    HW267894  10.453  14.305   7.980
55333SOL     OW67895   5.419   6.119   7.463
55333SOL    HW167896   5.438   6.169   7.383
55333SOL    HW267897   5.504   6.108   7.505
55334SOL     OW67898   7.467   1.412   0.043
55334SOL    HW167899   7.542   1.444   0.094
55334SOL    HW267900   7.436   1.336   0.091
55335SOL     OW67901   4.963   6.122   0.995
55335SOL    HW167902   4.897   6.102   1.062
55335SOL    HW267903   4.937   6.207   0.961
55336SOL     OW67904   7.653   6.424   9.934
55336SOL    HW167905   7.631   6.354   9.871
55336SOL    HW267906   7.627   6.388  10.019
55337SOL     OW67907   0.471  13.489   6.961
55337SOL    HW167908   0.459  13.566   7.016
55337SOL    HW267909   0.563  13.491   6.936
55338SOL     OW67910  10.997   6.409   7.235
55338SOL    HW167911  10.964   6.418   7.325
55338SOL    HW267912  11.090   6.388   7.246
55339SOL     OW67913   0.244   0.050  12.261
55339SOL    HW167914   0.319  14.872  12.262
55339SOL    HW267915   0.193   0.027  12.338
55340SOL     OW67916   9.950   2.769  14.281
55340SOL    HW167917  10.011   2.776  14.207
55340SOL    HW267918   9.902   2.851  14.281
55341SOL     OW67919  10.724   3.060  13.316
55341SOL    HW167920  10.732   3.095  13.405
55341SOL    HW267921  10.773   2.978  13.318
55342SOL     OW67922   6.782   6.739   0.401
55342SOL    HW167923   6.820   6.814   0.448
55342SOL    HW267924   6.812   6.662   0.450
55343SOL     OW67925   9.453   3.877   8.175
55343SOL    HW167926   9.360   3.873   8.197
55343SOL    HW267927   9.457   3.938   8.102
55344SOL     OW67928   5.672   4.735  11.393
55344SOL    HW167929   5.672   4.788  11.473
55344SOL    HW267930   5.765   4.723  11.373
55345SOL     OW67931  13.456  10.324   1.862
55345SOL    HW167932  13.546  10.298   1.844
55345SOL    HW267933  13.461  10.418   1.881
55346SOL     OW67934   5.493   1.474  11.369
55346SOL    HW167935   5.448   1.469  11.453
55346SOL    HW267936   5.582   1.500  11.391
55347SOL     OW67937  12.754   5.245   8.039
55347SOL    HW167938  12.679   5.228   7.983
55347SOL    HW267939  12.737   5.195   8.118
55348SOL     OW67940  11.024   6.994   9.765
55348SOL    HW167941  10.931   6.975   9.752
55348SOL    HW267942  11.029   7.089   9.770
55349SOL     OW67943   5.208   9.263  10.449
55349SOL    HW167944   5.256   9.345  10.461
55349SOL    HW267945   5.185   9.262  10.356
55350SOL     OW67946  12.861   5.213  11.484
55350SOL    HW167947  12.829   5.123  11.487
55350SOL    HW267948  12.896   5.228  11.572
55351SOL     OW67949  14.373  14.635  11.215
55351SOL    HW167950  14.377  14.726  11.244
55351SOL    HW267951  14.372  14.584  11.296
55352SOL     OW67952  12.629   1.625  13.747
55352SOL    HW167953  12.561   1.597  13.808
55352SOL    HW267954  12.675   1.544  13.723
55353SOL     OW67955   0.368  12.262   5.347
55353SOL    HW167956   0.313  12.204   5.400
55353SOL    HW267957   0.457  12.238   5.371
55354SOL     OW67958   0.188   4.572   2.150
55354SOL    HW167959   0.120   4.506   2.162
55354SOL    HW267960   0.270   4.528   2.172
55355SOL     OW67961  14.316   7.510  11.985
55355SOL    HW167962  14.383   7.518  11.917
55355SOL    HW267963  14.278   7.597  11.991
55356SOL     OW67964   5.851   3.164   2.856
55356SOL    HW167965   5.842   3.120   2.772
55356SOL    HW267966   5.939   3.202   2.854
55357SOL     OW67967   7.310   5.246  12.694
55357SOL    HW167968   7.220   5.217  12.715
55357SOL    HW267969   7.343   5.179  12.635
55358SOL     OW67970   1.474   7.386  12.416
55358SOL    HW167971   1.530   7.416  12.488
55358SOL    HW267972   1.527   7.321  12.370
55359SOL     OW67973   4.382   4.191   8.426
55359SOL    HW167974   4.368   4.282   8.450
55359SOL    HW267975   4.378   4.190   8.330
55360SOL     OW67976  11.896   6.011   3.482
55360SOL    HW167977  11.905   5.917   3.468
55360SOL    HW267978  11.899   6.050   3.395
55361SOL     OW67979   9.428   0.422   0.493
55361SOL    HW167980   9.464   0.335   0.474
55361SOL    HW267981   9.400   0.417   0.584
55362SOL     OW67982   2.911  10.473  14.655
55362SOL    HW167983   2.911  10.422  14.736
55362SOL    HW267984   2.986  10.532  14.663
55363SOL     OW67985  10.518  11.315   6.805
55363SOL    HW167986  10.538  11.223   6.789
55363SOL    HW267987  10.423  11.321   6.794
55364SOL     OW67988   7.520   6.664  10.295
55364SOL    HW167989   7.538   6.734  10.358
55364SOL    HW267990   7.495   6.709  10.214
55365SOL     OW67991   3.741  14.566   7.077
55365SOL    HW167992   3.830  14.545   7.049
55365SOL    HW267993   3.693  14.484   7.068
55366SOL     OW67994   7.361  14.558   0.787
55366SOL    HW167995   7.344  14.574   0.694
55366SOL    HW267996   7.370  14.463   0.794
55367SOL     OW67997   6.397   4.716   7.886
55367SOL    HW167998   6.313   4.722   7.839
55367SOL    HW267999   6.429   4.628   7.868
55368SOL     OW68000  14.811  13.536   8.081
55368SOL    HW168001  14.731  13.537   8.029
55368SOL    HW268002  14.812  13.450   8.123
55369SOL     OW68003   3.899   3.078   9.521
55369SOL    HW168004   3.848   3.012   9.476
55369SOL    HW268005   3.841   3.154   9.526
55370SOL     OW68006   9.685   9.093   5.773
55370SOL    HW168007   9.654   9.084   5.863
55370SOL    HW268008   9.606   9.106   5.721
55371SOL     OW68009   0.129  13.612   9.584
55371SOL    HW168010   0.173  13.648   9.661
55371SOL    HW268011   0.056  13.561   9.618
55372SOL     OW68012  14.498   4.085  14.791
55372SOL    HW168013  14.572   4.026  14.773
55372SOL    HW268014  14.437   4.069  14.719
55373SOL     OW68015  11.923   8.303  10.825
55373SOL    HW168016  11.975   8.360  10.769
55373SOL    HW268017  11.859   8.360  10.867
55374SOL     OW68018   1.227  12.775  12.271
55374SOL    HW168019   1.228  12.752  12.178
55374SOL    HW268020   1.170  12.852  12.276
55375SOL     OW68021  10.146   2.710   0.338
55375SOL    HW168022  10.152   2.803   0.318
55375SOL    HW268023  10.177   2.666   0.258
55376SOL     OW68024   6.757   2.078   2.221
55376SOL    HW168025   6.828   2.015   2.226
55376SOL    HW268026   6.681   2.032   2.257
55377SOL     OW68027  13.249  13.452   2.521
55377SOL    HW168028  13.217  13.537   2.490
55377SOL    HW268029  13.281  13.470   2.609
55378SOL     OW68030   8.095   9.895   4.810
55378SOL    HW168031   8.039   9.883   4.887
55378SOL    HW268032   8.042   9.946   4.749
55379SOL     OW68033   0.593   4.714   0.850
55379SOL    HW168034   0.573   4.652   0.780
55379SOL    HW268035   0.511   4.761   0.865
55380SOL     OW68036   0.565  11.696   9.233
55380SOL    HW168037   0.521  11.693   9.148
55380SOL    HW268038   0.548  11.611   9.272
55381SOL     OW68039   6.142   7.801  14.783
55381SOL    HW168040   6.088   7.725  14.762
55381SOL    HW268041   6.206   7.806  14.712
55382SOL     OW68042   2.132   9.606   6.337
55382SOL    HW168043   2.170   9.670   6.396
55382SOL    HW268044   2.042   9.595   6.368
55383SOL     OW68045   9.307   9.660  11.504
55383SOL    HW168046   9.373   9.640  11.437
55383SOL    HW268047   9.301   9.580  11.556
55384SOL     OW68048   2.499   8.576   9.828
55384SOL    HW168049   2.408   8.589   9.802
55384SOL    HW268050   2.543   8.659   9.807
55385SOL     OW68051  10.614  11.888   3.550
55385SOL    HW168052  10.614  11.951   3.479
55385SOL    HW268053  10.707  11.878   3.574
55386SOL     OW68054   9.326   8.040   3.161
55386SOL    HW168055   9.254   7.995   3.116
55386SOL    HW268056   9.355   8.107   3.099
55387SOL     OW68057   5.271   0.475   4.997
55387SOL    HW168058   5.301   0.558   5.033
55387SOL    HW268059   5.336   0.411   5.028
55388SOL     OW68060  12.131   8.802  12.979
55388SOL    HW168061  12.090   8.723  13.013
55388SOL    HW268062  12.223   8.778  12.968
55389SOL     OW68063  12.054   0.887   5.829
55389SOL    HW168064  12.013   0.868   5.745
55389SOL    HW268065  12.086   0.802   5.860
55390SOL     OW68066  14.668   5.428   3.593
55390SOL    HW168067  14.578   5.452   3.610
55390SOL    HW268068  14.671   5.333   3.604
55391SOL     OW68069   6.770   8.034   3.679
55391SOL    HW168070   6.695   7.993   3.723
55391SOL    HW268071   6.739   8.052   3.590
55392SOL     OW68072   2.654   2.790   6.319
55392SOL    HW168073   2.719   2.823   6.257
55392SOL    HW268074   2.703   2.773   6.399
55393SOL     OW68075   4.775   7.399   6.532
55393SOL    HW168076   4.782   7.407   6.437
55393SOL    HW268077   4.693   7.351   6.546
55394SOL     OW68078   9.455  11.394   5.537
55394SOL    HW168079   9.394  11.372   5.607
55394SOL    HW268080   9.426  11.341   5.463
55395SOL     OW68081  12.779  12.661  11.330
55395SOL    HW168082  12.747  12.619  11.409
55395SOL    HW268083  12.842  12.599  11.293
55396SOL     OW68084   9.482   9.333   5.956
55396SOL    HW168085   9.520   9.246   5.967
55396SOL    HW268086   9.399   9.317   5.911
55397SOL     OW68087   6.779  10.063   1.459
55397SOL    HW168088   6.868  10.089   1.480
55397SOL    HW268089   6.743  10.030   1.541
55398SOL     OW68090   6.192   1.900   2.030
55398SOL    HW168091   6.245   1.972   2.065
55398SOL    HW268092   6.211   1.900   1.936
55399SOL     OW68093   4.450   9.133   3.264
55399SOL    HW168094   4.439   9.053   3.316
55399SOL    HW268095   4.384   9.126   3.195
55400SOL     OW68096   1.285  12.895  12.995
55400SOL    HW168097   1.320  12.936  12.916
55400SOL    HW268098   1.350  12.913  13.062
55401SOL     OW68099   1.926   0.323  12.410
55401SOL    HW168100   1.928   0.301  12.503
55401SOL    HW268101   1.834   0.341  12.391
55402SOL     OW68102   9.399   3.500   8.413
55402SOL    HW168103   9.307   3.496   8.385
55402SOL    HW268104   9.418   3.594   8.419
55403SOL     OW68105  12.502   8.899   7.994
55403SOL    HW168106  12.597   8.914   7.996
55403SOL    HW268107  12.493   8.815   7.947
55404SOL     OW68108  11.638   4.685  13.750
55404SOL    HW168109  11.558   4.723  13.713
55404SOL    HW268110  11.697   4.677  13.675
55405SOL     OW68111   6.754   3.619   6.843
55405SOL    HW168112   6.690   3.678   6.802
55405SOL    HW268113   6.710   3.589   6.922
55406SOL     OW68114   4.908   1.491  12.030
55406SOL    HW168115   4.956   1.411  12.009
55406SOL    HW268116   4.905   1.541  11.949
55407SOL     OW68117   7.751   7.270   1.086
55407SOL    HW168118   7.803   7.204   1.133
55407SOL    HW268119   7.798   7.284   1.004
55408SOL     OW68120   3.149   0.875  12.174
55408SOL    HW168121   3.200   0.841  12.100
55408SOL    HW268122   3.079   0.810  12.186
55409SOL     OW68123   5.725   4.002  11.466
55409SOL    HW168124   5.767   4.027  11.548
55409SOL    HW268125   5.676   4.080  11.440
55410SOL     OW68126   6.236  10.000  13.944
55410SOL    HW168127   6.296  10.070  13.970
55410SOL    HW268128   6.153  10.021  13.987
55411SOL     OW68129   3.744  12.526   6.771
55411SOL    HW168130   3.772  12.435   6.780
55411SOL    HW268131   3.763  12.548   6.680
55412SOL     OW68132  14.515  12.944   4.647
55412SOL    HW168133  14.498  12.931   4.740
55412SOL    HW268134  14.540  13.036   4.639
55413SOL     OW68135  14.746  10.598  10.170
55413SOL    HW168136  14.698  10.672  10.133
55413SOL    HW268137  14.816  10.581  10.106
55414SOL     OW68138   4.422   3.057   4.349
55414SOL    HW168139   4.486   3.043   4.280
55414SOL    HW268140   4.447   2.995   4.418
55415SOL     OW68141   2.573   1.204   2.897
55415SOL    HW168142   2.568   1.109   2.883
55415SOL    HW268143   2.567   1.241   2.809
55416SOL     OW68144   7.282  14.563   8.441
55416SOL    HW168145   7.320  14.588   8.357
55416SOL    HW268146   7.271  14.646   8.488
55417SOL     OW68147   5.605  12.370  11.851
55417SOL    HW168148   5.629  12.402  11.764
55417SOL    HW268149   5.631  12.278  11.850
55418SOL     OW68150   9.133   2.978   5.773
55418SOL    HW168151   9.101   3.062   5.804
55418SOL    HW268152   9.063   2.916   5.792
55419SOL     OW68153   0.392   9.146   0.970
55419SOL    HW168154   0.391   9.126   1.063
55419SOL    HW268155   0.441   9.228   0.962
55420SOL     OW68156   8.979  13.722   2.242
55420SOL    HW168157   9.047  13.787   2.228
55420SOL    HW268158   9.000  13.651   2.181
55421SOL     OW68159   4.429   5.126  12.994
55421SOL    HW168160   4.385   5.097  12.914
55421SOL    HW268161   4.369   5.102  13.065
55422SOL     OW68162  14.304   9.742   2.530
55422SOL    HW168163  14.361   9.722   2.604
55422SOL    HW268164  14.316   9.669   2.469
55423SOL     OW68165  12.574   2.166   9.028
55423SOL    HW168166  12.509   2.162   9.098
55423SOL    HW268167  12.581   2.076   8.997
55424SOL     OW68168   7.533   6.678   8.658
55424SOL    HW168169   7.530   6.586   8.634
55424SOL    HW268170   7.441   6.704   8.666
55425SOL     OW68171   5.043   1.909  14.339
55425SOL    HW168172   4.962   1.874  14.377
55425SOL    HW268173   5.111   1.848  14.368
55426SOL     OW68174  13.504  12.139   0.543
55426SOL    HW168175  13.530  12.225   0.511
55426SOL    HW268176  13.530  12.079   0.473
55427SOL     OW68177   3.948   7.161   7.948
55427SOL    HW168178   3.889   7.146   8.021
55427SOL    HW268179   4.006   7.231   7.979
55428SOL     OW68180  10.501   4.539   1.961
55428SOL    HW168181  10.504   4.634   1.970
55428SOL    HW268182  10.480   4.508   2.050
55429SOL     OW68183   8.286  13.151   8.693
55429SOL    HW168184   8.209  13.163   8.750
55429SOL    HW268185   8.271  13.067   8.652
55430SOL     OW68186   0.514  12.562   7.936
55430SOL    HW168187   0.578  12.547   7.866
55430SOL    HW268188   0.561  12.612   8.002
55431SOL     OW68189  12.363   9.642   9.964
55431SOL    HW168190  12.276   9.603   9.962
55431SOL    HW268191  12.380   9.659  10.057
55432SOL     OW68192   4.286   3.556  10.173
55432SOL    HW168193   4.195   3.527  10.175
55432SOL    HW268194   4.296   3.608  10.253
55433SOL     OW68195   4.606   0.840   1.890
55433SOL    HW168196   4.528   0.817   1.940
55433SOL    HW268197   4.586   0.925   1.852
55434SOL     OW68198   7.013  11.793   6.368
55434SOL    HW168199   7.034  11.779   6.461
55434SOL    HW268200   7.028  11.708   6.327
55435SOL     OW68201   3.125   6.363   8.294
55435SOL    HW168202   3.175   6.285   8.315
55435SOL    HW268203   3.038   6.331   8.269
55436SOL     OW68204   3.733   6.269   6.888
55436SOL    HW168205   3.743   6.212   6.811
55436SOL    HW268206   3.781   6.224   6.957
55437SOL     OW68207   3.952   8.950  11.115
55437SOL    HW168208   3.901   8.879  11.154
55437SOL    HW268209   4.023   8.905  11.068
55438SOL     OW68210   8.599   3.787   6.003
55438SOL    HW168211   8.632   3.697   6.010
55438SOL    HW268212   8.637   3.832   6.079
55439SOL     OW68213   3.241   0.531   7.010
55439SOL    HW168214   3.319   0.583   6.991
55439SOL    HW268215   3.195   0.581   7.077
55440SOL     OW68216   8.013  10.536   3.655
55440SOL    HW168217   8.082  10.489   3.702
55440SOL    HW268218   8.042  10.627   3.656
55441SOL     OW68219  13.478  13.638   4.298
55441SOL    HW168220  13.473  13.579   4.223
55441SOL    HW268221  13.538  13.595   4.359
55442SOL     OW68222   9.770   5.478  12.662
55442SOL    HW168223   9.797   5.568  12.643
55442SOL    HW268224   9.845   5.425  12.635
55443SOL     OW68225   2.857   1.669   2.947
55443SOL    HW168226   2.813   1.697   3.027
55443SOL    HW268227   2.871   1.750   2.898
55444SOL     OW68228   6.751   1.682  13.746
55444SOL    HW168229   6.686   1.625  13.705
55444SOL    HW268230   6.765   1.752  13.682
55445SOL     OW68231  12.533   1.485   3.548
55445SOL    HW168232  12.550   1.528   3.632
55445SOL    HW268233  12.558   1.551   3.482
55446SOL     OW68234   6.771  12.667   3.416
55446SOL    HW168235   6.792  12.575   3.403
55446SOL    HW268236   6.854  12.707   3.440
55447SOL     OW68237   0.526  11.310  14.638
55447SOL    HW168238   0.618  11.333  14.625
55447SOL    HW268239   0.478  11.364  14.574
55448SOL     OW68240   0.657  13.223   6.694
55448SOL    HW168241   0.745  13.227   6.657
55448SOL    HW268242   0.640  13.311   6.727
55449SOL     OW68243  13.924  11.931  10.380
55449SOL    HW168244  13.957  12.009  10.425
55449SOL    HW268245  14.000  11.897  10.332
55450SOL     OW68246   5.649  11.570   9.921
55450SOL    HW168247   5.743  11.587   9.929
55450SOL    HW268248   5.621  11.548  10.010
55451SOL     OW68249   9.164   1.428  13.532
55451SOL    HW168250   9.076   1.421  13.568
55451SOL    HW268251   9.221   1.432  13.608
55452SOL     OW68252   2.628   4.297   6.880
55452SOL    HW168253   2.657   4.233   6.815
55452SOL    HW268254   2.679   4.278   6.958
55453SOL     OW68255   1.729   6.000   3.700
55453SOL    HW168256   1.799   6.042   3.751
55453SOL    HW268257   1.685   6.073   3.656
55454SOL     OW68258  14.849   4.532   9.727
55454SOL    HW168259  14.792   4.601   9.691
55454SOL    HW268260   0.033   4.518   9.660
55455SOL     OW68261   1.031  13.967   4.152
55455SOL    HW168262   0.989  13.888   4.186
55455SOL    HW268263   1.055  13.943   4.062
55456SOL     OW68264   1.432  13.282   6.090
55456SOL    HW168265   1.377  13.204   6.095
55456SOL    HW268266   1.419  13.316   6.002
55457SOL     OW68267   2.565  11.589   2.293
55457SOL    HW168268   2.537  11.537   2.368
55457SOL    HW268269   2.516  11.554   2.219
55458SOL     OW68270  12.124   4.560   7.790
55458SOL    HW168271  12.115   4.466   7.799
55458SOL    HW268272  12.094   4.596   7.874
55459SOL     OW68273   7.769   1.529  13.764
55459SOL    HW168274   7.773   1.478  13.683
55459SOL    HW268275   7.687   1.579  13.757
55460SOL     OW68276   5.785   9.424   5.569
55460SOL    HW168277   5.844   9.366   5.616
55460SOL    HW268278   5.747   9.370   5.500
55461SOL     OW68279   5.079  12.405   9.428
55461SOL    HW168280   5.150  12.373   9.373
55461SOL    HW268281   5.123  12.456   9.497
55462SOL     OW68282  12.007  13.138   7.038
55462SOL    HW168283  11.956  13.071   7.084
55462SOL    HW268284  12.052  13.090   6.968
55463SOL     OW68285   8.598   5.178   9.201
55463SOL    HW168286   8.549   5.226   9.268
55463SOL    HW268287   8.595   5.086   9.229
55464SOL     OW68288   6.410   9.861  12.856
55464SOL    HW168289   6.415   9.889  12.948
55464SOL    HW268290   6.409   9.766  12.860
55465SOL     OW68291  10.216  12.179   7.378
55465SOL    HW168292  10.257  12.106   7.423
55465SOL    HW268293  10.160  12.220   7.444
55466SOL     OW68294   6.093  11.358   0.061
55466SOL    HW168295   6.171  11.307   0.043
55466SOL    HW268296   6.027  11.294   0.087
55467SOL     OW68297   2.197  14.686   9.396
55467SOL    HW168298   2.195  14.591   9.381
55467SOL    HW268299   2.227  14.723   9.312
55468SOL     OW68300   6.438  11.539   2.883
55468SOL    HW168301   6.426  11.514   2.974
55468SOL    HW268302   6.497  11.472   2.847
55469SOL     OW68303   8.886  13.256   9.004
55469SOL    HW168304   8.810  13.208   8.971
55469SOL    HW268305   8.853  13.345   9.021
55470SOL     OW68306  13.553   3.556   9.936
55470SOL    HW168307  13.555   3.606   9.855
55470SOL    HW268308  13.640   3.569   9.974
55471SOL     OW68309   0.459   4.164   4.528
55471SOL    HW168310   0.461   4.204   4.441
55471SOL    HW268311   0.443   4.236   4.588
55472SOL     OW68312   8.655  11.042   6.198
55472SOL    HW168313   8.626  11.031   6.288
55472SOL    HW268314   8.747  11.068   6.206
55473SOL     OW68315   4.516   7.684  14.446
55473SOL    HW168316   4.534   7.642  14.362
55473SOL    HW268317   4.556   7.770  14.439
55474SOL     OW68318   2.105   1.517   9.653
55474SOL    HW168319   2.118   1.431   9.692
55474SOL    HW268320   2.179   1.569   9.686
55475SOL     OW68321   9.701   4.701  10.238
55475SOL    HW168322   9.680   4.769  10.302
55475SOL    HW268323   9.756   4.639  10.286
55476SOL     OW68324  14.288   2.198  11.655
55476SOL    HW168325  14.219   2.179  11.719
55476SOL    HW268326  14.271   2.137  11.583
55477SOL     OW68327  14.727   3.089   8.984
55477SOL    HW168328  14.680   3.052   8.910
55477SOL    HW268329  14.746   3.179   8.959
55478SOL     OW68330  13.648   8.249   2.821
55478SOL    HW168331  13.592   8.323   2.795
55478SOL    HW268332  13.629   8.181   2.757
55479SOL     OW68333   7.127   6.422   2.449
55479SOL    HW168334   7.120   6.438   2.543
55479SOL    HW268335   7.076   6.343   2.434
55480SOL     OW68336  10.361   6.119   8.282
55480SOL    HW168337  10.373   6.197   8.228
55480SOL    HW268338  10.403   6.049   8.233
55481SOL     OW68339   3.163   8.730   5.579
55481SOL    HW168340   3.247   8.709   5.619
55481SOL    HW268341   3.166   8.688   5.493
55482SOL     OW68342  13.485   7.847   0.975
55482SOL    HW168343  13.398   7.809   0.967
55482SOL    HW268344  13.517   7.851   0.885
55483SOL     OW68345   8.179   3.950   8.869
55483SOL    HW168346   8.242   3.927   8.800
55483SOL    HW268347   8.104   3.894   8.850
55484SOL     OW68348   0.106   6.214   1.000
55484SOL    HW168349   0.020   6.233   0.964
55484SOL    HW268350   0.163   6.281   0.962
55485SOL     OW68351   2.174   8.677   1.459
55485SOL    HW168352   2.117   8.606   1.429
55485SOL    HW268353   2.248   8.634   1.499
55486SOL     OW68354   5.425   8.796  14.006
55486SOL    HW168355   5.349   8.740  14.023
55486SOL    HW268356   5.501   8.740  14.024
55487SOL     OW68357   3.225   3.627  11.708
55487SOL    HW168358   3.219   3.677  11.627
55487SOL    HW268359   3.189   3.686  11.775
55488SOL     OW68360   8.098  14.407   0.691
55488SOL    HW168361   8.096  14.456   0.610
55488SOL    HW268362   8.012  14.422   0.731
55489SOL     OW68363   4.050   7.922   5.316
55489SOL    HW168364   3.959   7.932   5.343
55489SOL    HW268365   4.054   7.964   5.229
55490SOL     OW68366  11.734   9.020   7.697
55490SOL    HW168367  11.810   9.079   7.699
55490SOL    HW268368  11.768   8.937   7.730
55491SOL     OW68369   6.058   2.448   9.201
55491SOL    HW168370   6.068   2.539   9.171
55491SOL    HW268371   6.030   2.401   9.123
55492SOL     OW68372   8.200   6.922   2.163
55492SOL    HW168373   8.121   6.929   2.110
55492SOL    HW268374   8.228   7.012   2.178
55493SOL     OW68375   3.219   3.001   5.623
55493SOL    HW168376   3.189   2.939   5.556
55493SOL    HW268377   3.245   3.079   5.573
55494SOL     OW68378  14.607   9.683   8.315
55494SOL    HW168379  14.559   9.717   8.391
55494SOL    HW268380  14.680   9.634   8.352
55495SOL     OW68381  11.269   7.712   9.370
55495SOL    HW168382  11.299   7.733   9.459
55495SOL    HW268383  11.174   7.700   9.380
55496SOL     OW68384   0.989  14.461   4.212
55496SOL    HW168385   1.025  14.491   4.295
55496SOL    HW268386   1.058  14.478   4.148
55497SOL     OW68387   9.040  12.023   2.581
55497SOL    HW168388   9.021  12.112   2.551
55497SOL    HW268389   9.100  12.034   2.654
55498SOL     OW68390   0.186  11.666  11.769
55498SOL    HW168391   0.223  11.578  11.758
55498SOL    HW268392   0.262  11.725  11.761
55499SOL     OW68393   5.506   6.603   8.845
55499SOL    HW168394   5.483   6.596   8.752
55499SOL    HW268395   5.424   6.631   8.887
55500SOL     OW68396   6.520  13.736   6.359
55500SOL    HW168397   6.584  13.726   6.289
55500SOL    HW268398   6.534  13.660   6.415
55501SOL     OW68399   9.534   7.689   8.270
55501SOL    HW168400   9.507   7.621   8.208
55501SOL    HW268401   9.455   7.710   8.319
55502SOL     OW68402  14.696  12.081   9.734
55502SOL    HW168403  14.684  12.171   9.763
55502SOL    HW268404  14.783  12.080   9.695
55503SOL     OW68405  10.030   1.855  12.767
55503SOL    HW168406  10.095   1.817  12.708
55503SOL    HW268407   9.985   1.779  12.804
55504SOL     OW68408   2.542  13.471   2.713
55504SOL    HW168409   2.572  13.561   2.702
55504SOL    HW268410   2.615  13.418   2.685
55505SOL     OW68411  10.987   2.282   3.934
55505SOL    HW168412  10.957   2.236   4.013
55505SOL    HW268413  10.907   2.300   3.885
55506SOL     OW68414   5.322   6.816   0.576
55506SOL    HW168415   5.351   6.782   0.491
55506SOL    HW268416   5.227   6.800   0.577
55507SOL     OW68417   8.432   1.889   9.513
55507SOL    HW168418   8.495   1.830   9.473
55507SOL    HW268419   8.485   1.954   9.559
55508SOL     OW68420  14.434  12.201   0.101
55508SOL    HW168421  14.349  12.224   0.064
55508SOL    HW268422  14.465  12.128   0.048
55509SOL     OW68423   6.246   0.805   6.606
55509SOL    HW168424   6.311   0.824   6.538
55509SOL    HW268425   6.164   0.793   6.558
55510SOL     OW68426  14.808  10.310   6.001
55510SOL    HW168427   0.018  10.335   6.000
55510SOL    HW268428  14.786  10.300   6.093
55511SOL     OW68429   5.788   5.170   3.575
55511SOL    HW168430   5.877   5.146   3.601
55511SOL    HW268431   5.794   5.260   3.545
55512SOL     OW68432   0.249   6.674  14.487
55512SOL    HW168433   0.326   6.679  14.543
55512SOL    HW268434   0.196   6.749  14.513
55513SOL     OW68435   4.664  10.094   9.064
55513SOL    HW168436   4.666  10.023   9.127
55513SOL    HW268437   4.577  10.132   9.074
55514SOL     OW68438   4.574   9.227   8.160
55514SOL    HW168439   4.540   9.306   8.202
55514SOL    HW268440   4.505   9.201   8.099
55515SOL     OW68441  14.146   1.059  10.548
55515SOL    HW168442  14.218   1.055  10.485
55515SOL    HW268443  14.175   1.005  10.622
55516SOL     OW68444   7.945  14.273  11.576
55516SOL    HW168445   7.924  14.329  11.501
55516SOL    HW268446   7.976  14.334  11.643
55517SOL     OW68447   5.965  10.349   4.435
55517SOL    HW168448   5.877  10.381   4.454
55517SOL    HW268449   5.987  10.385   4.349
55518SOL     OW68450   0.054   4.345   8.902
55518SOL    HW168451   0.142   4.315   8.925
55518SOL    HW268452   0.053   4.438   8.924
55519SOL     OW68453   0.056   2.671   3.787
55519SOL    HW168454   0.091   2.611   3.853
55519SOL    HW268455   0.071   2.758   3.825
55520SOL     OW68456  14.562   4.998   2.892
55520SOL    HW168457  14.552   5.045   2.809
55520SOL    HW268458  14.527   5.058   2.957
55521SOL     OW68459  14.825  12.097   3.359
55521SOL    HW168460  14.841  12.072   3.268
55521SOL    HW268461   0.030  12.111   3.396
55522SOL     OW68462  13.622   6.160  14.029
55522SOL    HW168463  13.602   6.251  14.050
55522SOL    HW268464  13.548   6.130  13.976
55523SOL     OW68465   9.668   7.369  12.143
55523SOL    HW168466   9.752   7.361  12.189
55523SOL    HW268467   9.682   7.327  12.059
55524SOL     OW68468   7.882   1.463  12.628
55524SOL    HW168469   7.959   1.410  12.646
55524SOL    HW268470   7.902   1.549  12.666
55525SOL     OW68471   9.258   2.250   4.298
55525SOL    HW168472   9.268   2.335   4.255
55525SOL    HW268473   9.347   2.224   4.322
55526SOL     OW68474  12.565   2.273   2.799
55526SOL    HW168475  12.617   2.207   2.752
55526SOL    HW268476  12.556   2.345   2.736
55527SOL     OW68477  13.718  13.667  10.029
55527SOL    HW168478  13.719  13.754   9.988
55527SOL    HW268479  13.759  13.681  10.114
55528SOL     OW68480  13.182   9.737  11.334
55528SOL    HW168481  13.262   9.779  11.366
55528SOL    HW268482  13.187   9.648  11.369
55529SOL     OW68483   3.126   6.771   5.931
55529SOL    HW168484   3.102   6.763   5.839
55529SOL    HW268485   3.151   6.863   5.942
55530SOL     OW68486   8.792   5.459  13.468
55530SOL    HW168487   8.859   5.514  13.507
55530SOL    HW268488   8.824   5.441  13.379
55531SOL     OW68489   1.955   3.178   1.133
55531SOL    HW168490   1.888   3.245   1.144
55531SOL    HW268491   1.932   3.134   1.051
55532SOL     OW68492   1.616   9.533  12.769
55532SOL    HW168493   1.652   9.612  12.729
55532SOL    HW268494   1.635   9.463  12.706
55533SOL     OW68495   4.083   4.758   4.599
55533SOL    HW168496   4.149   4.762   4.668
55533SOL    HW268497   4.107   4.829   4.539
55534SOL     OW68498   8.764  11.889   3.771
55534SOL    HW168499   8.805  11.922   3.851
55534SOL    HW268500   8.806  11.938   3.700
55535SOL     OW68501  12.623   9.736   1.470
55535SOL    HW168502  12.570   9.693   1.537
55535SOL    HW268503  12.568   9.808   1.439
55536SOL     OW68504  11.511   7.544  11.070
55536SOL    HW168505  11.509   7.480  11.141
55536SOL    HW268506  11.532   7.493  10.992
55537SOL     OW68507  14.531  11.257   3.167
55537SOL    HW168508  14.526  11.251   3.072
55537SOL    HW268509  14.551  11.349   3.185
55538SOL     OW68510   3.774   4.792   6.767
55538SOL    HW168511   3.836   4.845   6.716
55538SOL    HW268512   3.740   4.728   6.704
55539SOL     OW68513   1.891   7.450   7.689
55539SOL    HW168514   1.970   7.462   7.742
55539SOL    HW268515   1.821   7.489   7.740
55540SOL     OW68516   6.698   0.808   3.473
55540SOL    HW168517   6.734   0.879   3.526
55540SOL    HW268518   6.628   0.771   3.527
55541SOL     OW68519   6.121  10.927   5.738
55541SOL    HW168520   6.126  10.840   5.779
55541SOL    HW268521   6.049  10.920   5.675
55542SOL     OW68522  10.699  10.074   6.823
55542SOL    HW168523  10.771  10.022   6.787
55542SOL    HW268524  10.643  10.011   6.867
55543SOL     OW68525   9.261  14.543  13.171
55543SOL    HW168526   9.279  14.636  13.152
55543SOL    HW268527   9.330  14.496  13.124
55544SOL     OW68528   6.213   5.485   5.757
55544SOL    HW168529   6.244   5.574   5.776
55544SOL    HW268530   6.243   5.433   5.832
55545SOL     OW68531   9.260   9.628   5.274
55545SOL    HW168532   9.167   9.626   5.294
55545SOL    HW268533   9.279   9.721   5.259
55546SOL     OW68534   6.622   8.198   0.471
55546SOL    HW168535   6.662   8.274   0.513
55546SOL    HW268536   6.547   8.177   0.526
55547SOL     OW68537   5.802   0.615  13.799
55547SOL    HW168538   5.785   0.599  13.706
55547SOL    HW268539   5.885   0.570  13.817
55548SOL     OW68540   0.327   8.000   2.251
55548SOL    HW168541   0.423   8.001   2.248
55548SOL    HW268542   0.302   8.093   2.246
55549SOL     OW68543   1.613  11.457   0.500
55549SOL    HW168544   1.689  11.461   0.558
55549SOL    HW268545   1.540  11.489   0.554
55550SOL     OW68546   1.700   7.653   7.307
55550SOL    HW168547   1.759   7.589   7.348
55550SOL    HW268548   1.641   7.601   7.253
55551SOL     OW68549   7.977  14.021   9.843
55551SOL    HW168550   8.016  14.016   9.756
55551SOL    HW268551   7.883  14.027   9.827
55552SOL     OW68552  13.477   4.670   3.509
55552SOL    HW168553  13.509   4.761   3.510
55552SOL    HW268554  13.553   4.619   3.479
55553SOL     OW68555   9.652   4.584   4.214
55553SOL    HW168556   9.738   4.581   4.171
55553SOL    HW268557   9.590   4.600   4.144
55554SOL     OW68558   2.911   7.047  10.434
55554SOL    HW168559   2.861   6.986  10.380
55554SOL    HW268560   2.962   7.098  10.372
55555SOL     OW68561   3.636   3.566   0.225
55555SOL    HW168562   3.640   3.477   0.188
55555SOL    HW268563   3.713   3.610   0.190
55556SOL     OW68564   8.859   5.715   8.832
55556SOL    HW168565   8.788   5.736   8.893
55556SOL    HW268566   8.938   5.750   8.874
55557SOL     OW68567   0.439  12.620   8.821
55557SOL    HW168568   0.448  12.714   8.805
55557SOL    HW268569   0.412  12.583   8.737
55558SOL     OW68570   9.249   5.516   8.997
55558SOL    HW168571   9.239   5.604   8.961
55558SOL    HW268572   9.189   5.462   8.945
55559SOL     OW68573   6.588  11.425   5.511
55559SOL    HW168574   6.569  11.355   5.574
55559SOL    HW268575   6.645  11.485   5.558
55560SOL     OW68576   2.243   9.870   1.760
55560SOL    HW168577   2.270   9.894   1.672
55560SOL    HW268578   2.325   9.865   1.810
55561SOL     OW68579   1.142   2.609  12.174
55561SOL    HW168580   1.129   2.528  12.125
55561SOL    HW268581   1.095   2.596  12.256
55562SOL     OW68582   7.667   7.146  13.939
55562SOL    HW168583   7.602   7.087  13.900
55562SOL    HW268584   7.626   7.177  14.019
55563SOL     OW68585  10.292   3.516  11.982
55563SOL    HW168586  10.257   3.460  12.051
55563SOL    HW268587  10.304   3.601  12.024
55564SOL     OW68588   6.472   9.276  13.522
55564SOL    HW168589   6.545   9.307  13.470
55564SOL    HW268590   6.513   9.232  13.597
55565SOL     OW68591   9.459  12.408   1.327
55565SOL    HW168592   9.522  12.471   1.290
55565SOL    HW268593   9.512  12.351   1.383
55566SOL     OW68594   9.099  11.764   0.908
55566SOL    HW168595   9.109  11.809   0.824
55566SOL    HW268596   9.033  11.815   0.954
55567SOL     OW68597   0.871   8.513  11.802
55567SOL    HW168598   0.928   8.455  11.853
55567SOL    HW268599   0.809   8.455  11.759
55568SOL     OW68600  11.150   4.817  10.865
55568SOL    HW168601  11.083   4.784  10.804
55568SOL    HW268602  11.110   4.807  10.951
55569SOL     OW68603  10.276  14.364   8.239
55569SOL    HW168604  10.307  14.397   8.323
55569SOL    HW268605  10.181  14.359   8.248
55570SOL     OW68606   7.224   1.482   3.683
55570SOL    HW168607   7.142   1.521   3.653
55570SOL    HW268608   7.272   1.465   3.602
55571SOL     OW68609   6.512   0.886   4.364
55571SOL    HW168610   6.555   0.814   4.317
55571SOL    HW268611   6.579   0.953   4.371
55572SOL     OW68612  12.836   2.866   4.791
55572SOL    HW168613  12.827   2.961   4.797
55572SOL    HW268614  12.821   2.835   4.880
55573SOL     OW68615  10.537   2.385   4.933
55573SOL    HW168616  10.533   2.332   4.853
55573SOL    HW268617  10.480   2.460   4.914
55574SOL     OW68618   1.277   2.039   0.515
55574SOL    HW168619   1.241   2.101   0.452
55574SOL    HW268620   1.364   2.018   0.482
55575SOL     OW68621  13.422   2.601   3.724
55575SOL    HW168622  13.466   2.680   3.757
55575SOL    HW268623  13.359   2.633   3.660
55576SOL     OW68624   0.892   5.305  11.821
55576SOL    HW168625   0.949   5.360  11.873
55576SOL    HW268626   0.809   5.304  11.868
55577SOL     OW68627  11.090  11.282   3.123
55577SOL    HW168628  11.113  11.343   3.053
55577SOL    HW268629  10.995  11.273   3.116
55578SOL     OW68630   2.382  11.311   9.632
55578SOL    HW168631   2.454  11.324   9.570
55578SOL    HW268632   2.348  11.399   9.648
55579SOL     OW68633  11.160  13.688   5.109
55579SOL    HW168634  11.253  13.690   5.131
55579SOL    HW268635  11.118  13.652   5.187
55580SOL     OW68636  11.790   9.533  11.131
55580SOL    HW168637  11.792   9.496  11.042
55580SOL    HW268638  11.701   9.565  11.141
55581SOL     OW68639   9.708   1.806   8.953
55581SOL    HW168640   9.656   1.876   8.993
55581SOL    HW268641   9.799   1.837   8.960
55582SOL     OW68642  11.927   3.339   3.230
55582SOL    HW168643  11.930   3.425   3.188
55582SOL    HW268644  11.922   3.358   3.324
55583SOL     OW68645  11.024   8.333   9.713
55583SOL    HW168646  11.012   8.277   9.789
55583SOL    HW268647  11.107   8.379   9.728
55584SOL     OW68648   6.328   0.415  10.784
55584SOL    HW168649   6.247   0.366  10.770
55584SOL    HW268650   6.390   0.377  10.722
55585SOL     OW68651   6.479  11.488   2.025
55585SOL    HW168652   6.480  11.536   2.108
55585SOL    HW268653   6.442  11.402   2.048
55586SOL     OW68654   4.504   5.011   4.807
55586SOL    HW168655   4.441   5.049   4.745
55586SOL    HW268656   4.546   5.087   4.847
55587SOL     OW68657  12.797   7.508   8.140
55587SOL    HW168658  12.718   7.516   8.087
55587SOL    HW268659  12.869   7.523   8.079
55588SOL     OW68660   1.762   8.584   4.454
55588SOL    HW168661   1.839   8.548   4.410
55588SOL    HW268662   1.784   8.582   4.547
55589SOL     OW68663   7.301   3.319   5.848
55589SOL    HW168664   7.259   3.262   5.784
55589SOL    HW268665   7.293   3.407   5.812
55590SOL     OW68666   2.894   5.073   5.857
55590SOL    HW168667   2.925   5.121   5.933
55590SOL    HW268668   2.817   5.025   5.888
55591SOL     OW68669   0.406   1.966  12.577
55591SOL    HW168670   0.354   1.887  12.564
55591SOL    HW268671   0.415   1.973  12.672
55592SOL     OW68672   1.524   0.943  12.905
55592SOL    HW168673   1.574   0.977  12.979
55592SOL    HW268674   1.452   0.895  12.946
55593SOL     OW68675  12.733  13.800   7.585
55593SOL    HW168676  12.803  13.862   7.606
55593SOL    HW268677  12.749  13.777   7.493
55594SOL     OW68678   3.433  12.448   0.853
55594SOL    HW168679   3.507  12.389   0.838
55594SOL    HW268680   3.470  12.536   0.848
55595SOL     OW68681   9.857   2.365   9.155
55595SOL    HW168682   9.772   2.321   9.157
55595SOL    HW268683   9.847   2.440   9.214
55596SOL     OW68684   4.927   1.817   1.549
55596SOL    HW168685   4.993   1.765   1.596
55596SOL    HW268686   4.857   1.755   1.531
55597SOL     OW68687  12.362  10.415   5.823
55597SOL    HW168688  12.429  10.477   5.793
55597SOL    HW268689  12.409  10.332   5.834
55598SOL     OW68690  13.333  12.722   3.248
55598SOL    HW168691  13.266  12.728   3.179
55598SOL    HW268692  13.416  12.737   3.202
55599SOL     OW68693   5.305  13.844   7.714
55599SOL    HW168694   5.233  13.831   7.653
55599SOL    HW268695   5.275  13.803   7.795
55600SOL     OW68696   7.650  12.763   4.980
55600SOL    HW168697   7.671  12.797   5.067
55600SOL    HW268698   7.555  12.776   4.972
55601SOL     OW68699   7.091   8.152   4.686
55601SOL    HW168700   7.069   8.115   4.600
55601SOL    HW268701   7.187   8.160   4.684
55602SOL     OW68702   1.935   5.078   5.493
55602SOL    HW168703   1.866   5.128   5.536
55602SOL    HW268704   1.969   5.020   5.562
55603SOL     OW68705   0.849  12.133  13.116
55603SOL    HW168706   0.788  12.189  13.164
55603SOL    HW268707   0.917  12.192  13.085
55604SOL     OW68708  13.646   9.658   9.768
55604SOL    HW168709  13.592   9.652   9.847
55604SOL    HW268710  13.665   9.567   9.746
55605SOL     OW68711   1.974   2.170  11.397
55605SOL    HW168712   2.017   2.110  11.457
55605SOL    HW268713   1.963   2.120  11.316
55606SOL     OW68714   0.502   3.847   7.194
55606SOL    HW168715   0.515   3.860   7.288
55606SOL    HW268716   0.578   3.889   7.153
55607SOL     OW68717   7.356  14.813   9.452
55607SOL    HW168718   7.343   0.024   9.432
55607SOL    HW268719   7.272  14.773   9.429
55608SOL     OW68720  12.286   7.582  14.428
55608SOL    HW168721  12.363   7.531  14.454
55608SOL    HW268722  12.293   7.663  14.478
55609SOL     OW68723  14.026  12.926   3.664
55609SOL    HW168724  14.083  12.850   3.650
55609SOL    HW268725  14.047  12.956   3.752
55610SOL     OW68726  12.080  13.832  11.360
55610SOL    HW168727  12.098  13.791  11.445
55610SOL    HW268728  11.984  13.833  11.354
55611SOL     OW68729   6.771  11.521  13.832
55611SOL    HW168730   6.804  11.541  13.744
55611SOL    HW268731   6.676  11.521  13.823
55612SOL     OW68732  12.225   1.694   6.118
55612SOL    HW168733  12.222   1.602   6.091
55612SOL    HW268734  12.291   1.696   6.187
55613SOL     OW68735   6.084  10.088   9.143
55613SOL    HW168736   6.039  10.146   9.082
55613SOL    HW268737   6.176  10.111   9.135
55614SOL     OW68738   8.435  14.639  11.164
55614SOL    HW168739   8.497  14.571  11.193
55614SOL    HW268740   8.491  14.713  11.142
55615SOL     OW68741   6.265   1.719   1.301
55615SOL    HW168742   6.281   1.637   1.256
55615SOL    HW268743   6.234   1.779   1.233
55616SOL     OW68744   6.573   5.893   2.722
55616SOL    HW168745   6.556   5.849   2.638
55616SOL    HW268746   6.617   5.975   2.697
55617SOL     OW68747   5.769   1.553  13.490
55617SOL    HW168748   5.860   1.580  13.505
55617SOL    HW268749   5.718   1.602  13.555
55618SOL     OW68750  14.199   4.651   6.260
55618SOL    HW168751  14.184   4.738   6.299
55618SOL    HW268752  14.184   4.590   6.332
55619SOL     OW68753   4.684  14.499   4.571
55619SOL    HW168754   4.716  14.409   4.579
55619SOL    HW268755   4.736  14.548   4.635
55620SOL     OW68756   0.044   8.446   7.263
55620SOL    HW168757   0.137   8.465   7.275
55620SOL    HW268758   0.020   8.397   7.342
55621SOL     OW68759   6.841   6.771   3.899
55621SOL    HW168760   6.844   6.711   3.825
55621SOL    HW268761   6.797   6.722   3.969
55622SOL     OW68762   1.220  13.276   0.907
55622SOL    HW168763   1.213  13.350   0.847
55622SOL    HW268764   1.258  13.206   0.854
55623SOL     OW68765   0.113  12.535   4.119
55623SOL    HW168766   0.069  12.456   4.088
55623SOL    HW268767   0.152  12.573   4.040
55624SOL     OW68768  14.413  13.367   0.314
55624SOL    HW168769  14.353  13.293   0.320
55624SOL    HW268770  14.357  13.444   0.314
55625SOL     OW68771   4.058  12.359  11.771
55625SOL    HW168772   4.116  12.434  11.782
55625SOL    HW268773   4.088  12.316  11.691
55626SOL     OW68774   2.134  10.812  13.934
55626SOL    HW168775   2.150  10.727  13.973
55626SOL    HW268776   2.125  10.872  14.008
55627SOL     OW68777   3.184  12.299   3.535
55627SOL    HW168778   3.119  12.237   3.501
55627SOL    HW268779   3.193  12.364   3.465
55628SOL     OW68780  10.562  13.682   7.999
55628SOL    HW168781  10.470  13.684   7.971
55628SOL    HW268782  10.603  13.754   7.950
55629SOL     OW68783   7.053   3.281   1.563
55629SOL    HW168784   7.031   3.344   1.632
55629SOL    HW268785   7.027   3.325   1.482
55630SOL     OW68786   8.277   7.966   1.581
55630SOL    HW168787   8.302   7.880   1.547
55630SOL    HW268788   8.300   7.962   1.674
55631SOL     OW68789   2.853   5.214   8.657
55631SOL    HW168790   2.908   5.138   8.637
55631SOL    HW268791   2.767   5.193   8.621
55632SOL     OW68792   5.127   7.795   9.300
55632SOL    HW168793   5.144   7.720   9.243
55632SOL    HW268794   5.214   7.835   9.312
55633SOL     OW68795   6.920  14.384  11.232
55633SOL    HW168796   6.989  14.374  11.298
55633SOL    HW268797   6.949  14.330  11.159
55634SOL     OW68798  14.785   1.553   8.149
55634SOL    HW168799  14.718   1.620   8.139
55634SOL    HW268800  14.786   1.506   8.065
55635SOL     OW68801   6.703   2.413   9.985
55635SOL    HW168802   6.734   2.329   9.951
55635SOL    HW268803   6.627   2.434   9.930
55636SOL     OW68804   9.398   8.614  14.712
55636SOL    HW168805   9.326   8.550  14.707
55636SOL    HW268806   9.437   8.614  14.625
55637SOL     OW68807   6.404  12.611  14.173
55637SOL    HW168808   6.325  12.558  14.182
55637SOL    HW268809   6.470  12.549  14.142
55638SOL     OW68810   4.627  10.289  13.615
55638SOL    HW168811   4.574  10.223  13.571
55638SOL    HW268812   4.646  10.354  13.547
55639SOL     OW68813   8.104  14.732  14.192
55639SOL    HW168814   8.064  14.703  14.110
55639SOL    HW268815   8.185  14.681  14.199
55640SOL     OW68816  10.748   9.668   3.192
55640SOL    HW168817  10.828   9.696   3.147
55640SOL    HW268818  10.705   9.610   3.130
55641SOL     OW68819   4.661   8.619   8.522
55641SOL    HW168820   4.621   8.602   8.436
55641SOL    HW268821   4.753   8.635   8.502
55642SOL     OW68822   3.742   1.628  12.467
55642SOL    HW168823   3.800   1.656  12.538
55642SOL    HW268824   3.784   1.661  12.387
55643SOL     OW68825  14.057   8.363   3.295
55643SOL    HW168826  14.084   8.277   3.328
55643SOL    HW268827  13.963   8.367   3.313
55644SOL     OW68828  11.549   3.400   7.583
55644SOL    HW168829  11.570   3.306   7.586
55644SOL    HW268830  11.631   3.443   7.606
55645SOL     OW68831  13.918   2.369  12.988
55645SOL    HW168832  13.916   2.295  12.927
55645SOL    HW268833  14.002   2.412  12.971
55646SOL     OW68834   7.204   8.228  12.615
55646SOL    HW168835   7.230   8.136  12.604
55646SOL    HW268836   7.122   8.235  12.566
55647SOL     OW68837   3.661  13.409  14.880
55647SOL    HW168838   3.578  13.444   0.030
55647SOL    HW268839   3.720  13.485  14.879
55648SOL     OW68840   4.561   0.495  10.792
55648SOL    HW168841   4.594   0.574  10.750
55648SOL    HW268842   4.619   0.425  10.760
55649SOL     OW68843   0.757   0.320   0.216
55649SOL    HW168844   0.742   0.225   0.220
55649SOL    HW268845   0.764   0.339   0.122
55650SOL     OW68846  11.888   5.948   7.759
55650SOL    HW168847  11.895   5.854   7.770
55650SOL    HW268848  11.976   5.976   7.734
55651SOL     OW68849   9.702  14.825   9.526
55651SOL    HW168850   9.611  14.800   9.543
55651SOL    HW268851   9.755  14.754   9.562
55652SOL     OW68852   5.024   4.332   2.920
55652SOL    HW168853   5.113   4.366   2.917
55652SOL    HW268854   4.998   4.339   3.012
55653SOL     OW68855   1.260  12.381   8.028
55653SOL    HW168856   1.189  12.364   7.965
55653SOL    HW268857   1.322  12.310   8.013
55654SOL     OW68858  10.926  11.562   0.586
55654SOL    HW168859  10.883  11.556   0.672
55654SOL    HW268860  10.961  11.475   0.570
55655SOL     OW68861   6.609   5.546  11.239
55655SOL    HW168862   6.620   5.471  11.181
55655SOL    HW268863   6.534   5.523  11.294
55656SOL     OW68864   7.407   1.105  14.388
55656SOL    HW168865   7.500   1.114  14.368
55656SOL    HW268866   7.397   1.144  14.474
55657SOL     OW68867   4.843   2.718  14.805
55657SOL    HW168868   4.802   2.637  14.772
55657SOL    HW268869   4.885   2.756  14.727
55658SOL     OW68870  11.126  12.157   7.875
55658SOL    HW168871  11.174  12.085   7.916
55658SOL    HW268872  11.040  12.119   7.853
55659SOL     OW68873   5.197   0.415   5.824
55659SOL    HW168874   5.256   0.483   5.857
55659SOL    HW268875   5.118   0.463   5.798
55660SOL     OW68876   3.649   0.368   8.049
55660SOL    HW168877   3.664   0.413   8.132
55660SOL    HW268878   3.734   0.372   8.004
55661SOL     OW68879   1.814   3.731   9.217
55661SOL    HW168880   1.763   3.679   9.155
55661SOL    HW268881   1.748   3.784   9.263
55662SOL     OW68882   8.226  12.328  14.282
55662SOL    HW168883   8.136  12.297  14.293
55662SOL    HW268884   8.272  12.253  14.243
55663SOL     OW68885   7.572  12.385   5.082
55663SOL    HW168886   7.546  12.380   5.174
55663SOL    HW268887   7.501  12.434   5.040
55664SOL     OW68888   8.660  14.012   4.418
55664SOL    HW168889   8.699  14.099   4.410
55664SOL    HW268890   8.611  14.000   4.336
55665SOL     OW68891   9.368  12.268   2.582
55665SOL    HW168892   9.462  12.274   2.562
55665SOL    HW268893   9.325  12.316   2.512
55666SOL     OW68894  12.075  12.738   7.402
55666SOL    HW168895  11.989  12.696   7.393
55666SOL    HW268896  12.135  12.665   7.421
55667SOL     OW68897   0.737  13.699   2.354
55667SOL    HW168898   0.723  13.758   2.280
55667SOL    HW268899   0.827  13.670   2.345
55668SOL     OW68900  13.125   5.612  13.363
55668SOL    HW168901  13.170   5.682  13.315
55668SOL    HW268902  13.194   5.571  13.415
55669SOL     OW68903  11.414   3.593  10.389
55669SOL    HW168904  11.504   3.563  10.377
55669SOL    HW268905  11.418   3.655  10.462
55670SOL     OW68906  13.476   9.612   3.298
55670SOL    HW168907  13.411   9.552   3.261
55670SOL    HW268908  13.554   9.599   3.244
55671SOL     OW68909   8.868   8.721   7.777
55671SOL    HW168910   8.872   8.639   7.826
55671SOL    HW268911   8.778   8.726   7.746
55672SOL     OW68912  13.340  10.782   5.331
55672SOL    HW168913  13.375  10.721   5.396
55672SOL    HW268914  13.418  10.827   5.297
55673SOL     OW68915   4.480   1.858  11.276
55673SOL    HW168916   4.403   1.809  11.245
55673SOL    HW268917   4.517   1.896  11.196
55674SOL     OW68918   1.424   0.509  10.253
55674SOL    HW168919   1.423   0.604  10.239
55674SOL    HW268920   1.457   0.498  10.343
55675SOL     OW68921   8.305   2.533   4.383
55675SOL    HW168922   8.311   2.592   4.308
55675SOL    HW268923   8.393   2.532   4.421
55676SOL     OW68924  10.450   5.643   3.256
55676SOL    HW168925  10.497   5.725   3.242
55676SOL    HW268926  10.493   5.603   3.332
55677SOL     OW68927  14.024   6.885   3.201
55677SOL    HW168928  13.960   6.939   3.249
55677SOL    HW268929  14.022   6.801   3.245
55678SOL     OW68930   9.810   5.429   6.957
55678SOL    HW168931   9.802   5.522   6.936
55678SOL    HW268932   9.724   5.405   6.994
55679SOL     OW68933  13.635  12.225  10.566
55679SOL    HW168934  13.653  12.233  10.472
55679SOL    HW268935  13.683  12.147  10.593
55680SOL     OW68936   2.782   9.428   6.337
55680SOL    HW168937   2.780   9.510   6.386
55680SOL    HW268938   2.822   9.365   6.397
55681SOL     OW68939  14.311   5.960   2.990
55681SOL    HW168940  14.376   6.003   3.045
55681SOL    HW268941  14.359   5.936   2.910
55682SOL     OW68942   0.767  10.298   6.533
55682SOL    HW168943   0.710  10.375   6.526
55682SOL    HW268944   0.806  10.289   6.446
55683SOL     OW68945   7.652   5.016  14.724
55683SOL    HW168946   7.691   5.044  14.641
55683SOL    HW268947   7.701   5.065  14.790
55684SOL     OW68948   2.520   4.578  14.508
55684SOL    HW168949   2.573   4.572  14.587
55684SOL    HW268950   2.442   4.526  14.527
55685SOL     OW68951   6.399   1.136   3.819
55685SOL    HW168952   6.429   1.225   3.800
55685SOL    HW268953   6.355   1.143   3.904
55686SOL     OW68954   9.558   0.270   9.075
55686SOL    HW168955   9.523   0.228   9.153
55686SOL    HW268956   9.555   0.203   9.007
55687SOL     OW68957   4.013   8.220  10.356
55687SOL    HW168958   4.107   8.239  10.361
55687SOL    HW268959   3.986   8.255  10.271
55688SOL     OW68960   8.983  10.297  10.023
55688SOL    HW168961   9.023  10.258  10.100
55688SOL    HW268962   8.894  10.262  10.021
55689SOL     OW68963  13.845   9.477   4.389
55689SOL    HW168964  13.861   9.389   4.424
55689SOL    HW268965  13.874   9.536   4.457
55690SOL     OW68966  12.650   4.339   8.218
55690SOL    HW168967  12.646   4.409   8.152
55690SOL    HW268968  12.569   4.348   8.268
55691SOL     OW68969  14.663   0.545   4.929
55691SOL    HW168970  14.644   0.622   4.982
55691SOL    HW268971  14.671   0.579   4.839
55692SOL     OW68972  12.051   1.199   5.272
55692SOL    HW168973  12.047   1.255   5.349
55692SOL    HW268974  12.020   1.254   5.200
55693SOL     OW68975   1.939  11.040  14.255
55693SOL    HW168976   1.930  11.128  14.291
55693SOL    HW268977   2.030  11.036  14.225
55694SOL     OW68978   4.730   5.799   3.025
55694SOL    HW168979   4.772   5.793   3.111
55694SOL    HW268980   4.769   5.876   2.984
55695SOL     OW68981   5.530   5.455  12.664
55695SOL    HW168982   5.610   5.460  12.716
55695SOL    HW268983   5.560   5.435  12.575
55696SOL     OW68984   0.860  10.520  13.810
55696SOL    HW168985   0.950  10.533  13.841
55696SOL    HW268986   0.865  10.446  13.751
55697SOL     OW68987   0.440  12.627   1.157
55697SOL    HW168988   0.487  12.579   1.225
55697SOL    HW268989   0.368  12.570   1.132
55698SOL     OW68990   5.669   5.498  10.329
55698SOL    HW168991   5.715   5.415  10.313
55698SOL    HW268992   5.587   5.472  10.370
55699SOL     OW68993   4.452   1.790  13.579
55699SOL    HW168994   4.462   1.871  13.630
55699SOL    HW268995   4.517   1.731  13.617
55700SOL     OW68996  11.436  11.113   0.447
55700SOL    HW168997  11.436  11.117   0.352
55700SOL    HW268998  11.521  11.073   0.470
55701SOL     OW68999  12.631  12.095   9.728
55701SOL    HW169000  12.723  12.073   9.715
55701SOL    HW269001  12.584  12.013   9.711
55702SOL     OW69002   4.177   7.749  10.314
55702SOL    HW169003   4.082   7.760  10.300
55702SOL    HW269004   4.183   7.698  10.394
55703SOL     OW69005   3.554  11.951   0.699
55703SOL    HW169006   3.460  11.941   0.681
55703SOL    HW269007   3.592  11.865   0.678
55704SOL     OW69008   1.247   5.908   6.817
55704SOL    HW169009   1.327   5.858   6.799
55704SOL    HW269010   1.179   5.841   6.826
55705SOL     OW69011   0.161   2.914   5.486
55705SOL    HW169012   0.213   2.869   5.552
55705SOL    HW269013   0.210   2.905   5.405
55706SOL     OW69014  11.450   9.636   9.676
55706SOL    HW169015  11.467   9.690   9.599
55706SOL    HW269016  11.406   9.695   9.738
55707SOL     OW69017   9.717  11.552   9.010
55707SOL    HW169018   9.741  11.462   9.033
55707SOL    HW269019   9.689  11.547   8.919
55708SOL     OW69020   7.871   1.562   9.089
55708SOL    HW169021   7.805   1.624   9.060
55708SOL    HW269022   7.833   1.519   9.165
55709SOL     OW69023  13.135   9.742  12.708
55709SOL    HW169024  13.082   9.732  12.788
55709SOL    HW269025  13.225   9.744  12.739
55710SOL     OW69026  12.595   7.510   1.007
55710SOL    HW169027  12.687   7.536   1.010
55710SOL    HW269028  12.566   7.534   0.919
55711SOL     OW69029   7.927   5.311   6.661
55711SOL    HW169030   7.961   5.260   6.588
55711SOL    HW269031   7.858   5.256   6.698
55712SOL     OW69032  11.839   7.631   6.906
55712SOL    HW169033  11.899   7.627   6.980
55712SOL    HW269034  11.756   7.657   6.943
55713SOL     OW69035   7.201   7.400   3.762
55713SOL    HW169036   7.261   7.361   3.825
55713SOL    HW269037   7.132   7.334   3.751
55714SOL     OW69038  14.643   0.308   5.057
55714SOL    HW169039  14.664   0.383   5.001
55714SOL    HW269040  14.615   0.348   5.140
55715SOL     OW69041   8.132   9.637   5.518
55715SOL    HW169042   8.088   9.574   5.461
55715SOL    HW269043   8.062   9.693   5.551
55716SOL     OW69044   9.051   1.652   2.733
55716SOL    HW169045   9.068   1.645   2.827
55716SOL    HW269046   9.125   1.607   2.692
55717SOL     OW69047   6.964  14.821  13.641
55717SOL    HW169048   7.029  14.762  13.604
55717SOL    HW269049   6.898  14.763  13.679
55718SOL     OW69050   7.112   8.983   4.320
55718SOL    HW169051   7.135   8.891   4.332
55718SOL    HW269052   7.046   8.981   4.250
55719SOL     OW69053  11.659   2.293   2.241
55719SOL    HW169054  11.701   2.283   2.155
55719SOL    HW269055  11.670   2.207   2.283
55720SOL     OW69056  12.697   1.666  13.377
55720SOL    HW169057  12.611   1.624  13.389
55720SOL    HW269058  12.681   1.736  13.314
55721SOL     OW69059  13.021   7.071   4.868
55721SOL    HW169060  12.968   6.996   4.840
55721SOL    HW269061  13.065   7.041   4.947
55722SOL     OW69062   0.325   4.724   9.314
55722SOL    HW169063   0.365   4.799   9.269
55722SOL    HW269064   0.364   4.725   9.401
55723SOL     OW69065  12.538  10.058   5.351
55723SOL    HW169066  12.578  10.140   5.381
55723SOL    HW269067  12.471  10.039   5.418
55724SOL     OW69068   9.286  14.198   8.370
55724SOL    HW169069   9.260  14.110   8.396
55724SOL    HW269070   9.323  14.187   8.282
55725SOL     OW69071   2.440  11.021   1.424
55725SOL    HW169072   2.414  11.102   1.380
55725SOL    HW269073   2.534  11.015   1.408
55726SOL     OW69074  11.034  14.286   2.585
55726SOL    HW169075  11.049  14.332   2.502
55726SOL    HW269076  10.940  14.270   2.588
55727SOL     OW69077   3.225  13.600   0.633
55727SOL    HW169078   3.240  13.573   0.724
55727SOL    HW269079   3.309  13.586   0.590
55728SOL     OW69080   0.182   2.494   1.959
55728SOL    HW169081   0.145   2.529   2.040
55728SOL    HW269082   0.123   2.525   1.890
55729SOL     OW69083   2.996   8.140   2.249
55729SOL    HW169084   2.923   8.085   2.222
55729SOL    HW269085   3.073   8.096   2.213
55730SOL     OW69086   6.222  12.476   2.598
55730SOL    HW169087   6.173  12.557   2.614
55730SOL    HW269088   6.222  12.432   2.683
55731SOL     OW69089   9.990   3.645   0.936
55731SOL    HW169090   9.913   3.598   0.905
55731SOL    HW269091   9.972   3.665   1.028
55732SOL     OW69092  12.407  11.538  10.557
55732SOL    HW169093  12.332  11.563  10.610
55732SOL    HW269094  12.435  11.453  10.592
55733SOL     OW69095  13.362   8.605   1.786
55733SOL    HW169096  13.277   8.576   1.819
55733SOL    HW269097  13.387   8.539   1.722
55734SOL     OW69098  10.592  13.279   9.818
55734SOL    HW169099  10.570  13.191   9.788
55734SOL    HW269100  10.512  13.330   9.804
55735SOL     OW69101  12.237   7.211  10.731
55735SOL    HW169102  12.270   7.289  10.688
55735SOL    HW269103  12.311   7.151  10.733
55736SOL     OW69104  12.695   1.364   2.408
55736SOL    HW169105  12.754   1.366   2.333
55736SOL    HW269106  12.622   1.420   2.382
55737SOL     OW69107  14.561   2.517   5.704
55737SOL    HW169108  14.628   2.495   5.638
55737SOL    HW269109  14.607   2.573   5.766
55738SOL     OW69110  10.206   1.311  12.381
55738SOL    HW169111  10.227   1.350  12.466
55738SOL    HW269112  10.123   1.265  12.396
55739SOL     OW69113   7.766  11.218   7.612
55739SOL    HW169114   7.721  11.208   7.696
55739SOL    HW269115   7.712  11.168   7.550
55740SOL     OW69116   6.614  12.122  10.140
55740SOL    HW169117   6.700  12.126  10.182
55740SOL    HW269118   6.569  12.051  10.186
55741SOL     OW69119   4.239  11.163   8.187
55741SOL    HW169120   4.232  11.258   8.195
55741SOL    HW269121   4.228  11.130   8.276
55742SOL     OW69122   1.396  11.381  14.523
55742SOL    HW169123   1.465  11.388  14.589
55742SOL    HW269124   1.335  11.316  14.557
55743SOL     OW69125   3.390   6.260   3.556
55743SOL    HW169126   3.472   6.308   3.569
55743SOL    HW269127   3.417   6.168   3.550
55744SOL     OW69128   4.192  13.802  13.366
55744SOL    HW169129   4.180  13.835  13.277
55744SOL    HW269130   4.245  13.723  13.356
55745SOL     OW69131  12.444  10.348   3.819
55745SOL    HW169132  12.510  10.343   3.751
55745SOL    HW269133  12.428  10.257   3.845
55746SOL     OW69134   5.594   2.432  13.134
55746SOL    HW169135   5.530   2.361  13.129
55746SOL    HW269136   5.542   2.512  13.142
55747SOL     OW69137   0.317   5.761   3.889
55747SOL    HW169138   0.312   5.796   3.978
55747SOL    HW269139   0.228   5.768   3.855
55748SOL     OW69140   6.467   4.398  14.646
55748SOL    HW169141   6.523   4.341  14.699
55748SOL    HW269142   6.412   4.444  14.709
55749SOL     OW69143   7.262   6.576  10.946
55749SOL    HW169144   7.226   6.661  10.971
55749SOL    HW269145   7.186   6.522  10.924
55750SOL     OW69146  12.453   1.511   9.357
55750SOL    HW169147  12.444   1.537   9.448
55750SOL    HW269148  12.528   1.451   9.356
55751SOL     OW69149   7.187   3.704   0.090
55751SOL    HW169150   7.196   3.646   0.015
55751SOL    HW269151   7.094   3.728   0.091
55752SOL     OW69152  14.268  11.998   7.522
55752SOL    HW169153  14.326  12.065   7.485
55752SOL    HW269154  14.317  11.958   7.593
55753SOL     OW69155   8.940  13.716  11.960
55753SOL    HW169156   8.959  13.810  11.962
55753SOL    HW269157   8.845  13.710  11.973
55754SOL     OW69158   3.516   6.499  11.981
55754SOL    HW169159   3.545   6.571  12.038
55754SOL    HW269160   3.422   6.493  11.996
55755SOL     OW69161  13.711   4.815   7.939
55755SOL    HW169162  13.752   4.775   8.016
55755SOL    HW269163  13.663   4.743   7.898
55756SOL     OW69164   8.658   6.405   8.202
55756SOL    HW169165   8.630   6.448   8.282
55756SOL    HW269166   8.718   6.336   8.232
55757SOL     OW69167   4.326   7.685   5.141
55757SOL    HW169168   4.382   7.747   5.188
55757SOL    HW269169   4.380   7.606   5.133
55758SOL     OW69170  11.709   2.311  11.497
55758SOL    HW169171  11.784   2.331  11.441
55758SOL    HW269172  11.634   2.317  11.439
55759SOL     OW69173   4.476   9.844   2.839
55759SOL    HW169174   4.494   9.910   2.773
55759SOL    HW269175   4.383   9.853   2.857
55760SOL     OW69176   7.371   4.348   4.334
55760SOL    HW169177   7.458   4.309   4.346
55760SOL    HW269178   7.372   4.381   4.244
55761SOL     OW69179   5.027   7.671  10.395
55761SOL    HW169180   5.038   7.716  10.311
55761SOL    HW269181   5.044   7.579  10.376
55762SOL     OW69182  11.818  13.409   4.483
55762SOL    HW169183  11.745  13.401   4.545
55762SOL    HW269184  11.824  13.503   4.465
55763SOL     OW69185   7.477   9.849   1.788
55763SOL    HW169186   7.496   9.937   1.822
55763SOL    HW269187   7.508   9.789   1.855
55764SOL     OW69188   0.621   3.708  13.380
55764SOL    HW169189   0.539   3.687  13.425
55764SOL    HW269190   0.657   3.783  13.428
55765SOL     OW69191   9.041   6.608   7.073
55765SOL    HW169192   9.127   6.565   7.074
55765SOL    HW269193   9.005   6.592   7.160
55766SOL     OW69194  14.786  14.027  13.003
55766SOL    HW169195  14.856  13.966  13.029
55766SOL    HW269196  14.706  13.976  13.012
55767SOL     OW69197   0.342  13.157   7.548
55767SOL    HW169198   0.401  13.094   7.588
55767SOL    HW269199   0.394  13.237   7.540
55768SOL     OW69200   7.639   0.924   9.253
55768SOL    HW169201   7.724   0.968   9.259
55768SOL    HW269202   7.639   0.862   9.327
55769SOL     OW69203  14.488   5.717   0.073
55769SOL    HW169204  14.573   5.735   0.112
55769SOL    HW269205  14.469   5.626   0.095
55770SOL     OW69206  13.088   3.231  14.212
55770SOL    HW169207  13.084   3.173  14.136
55770SOL    HW269208  13.044   3.311  14.184
55771SOL     OW69209   3.402   0.149   9.270
55771SOL    HW169210   3.311   0.134   9.245
55771SOL    HW269211   3.449   0.159   9.188
55772SOL     OW69212   9.648   3.709   9.993
55772SOL    HW169213   9.632   3.615   9.984
55772SOL    HW269214   9.622   3.745   9.908
55773SOL     OW69215   5.345   7.007  10.655
55773SOL    HW169216   5.375   7.076  10.714
55773SOL    HW269217   5.425   6.968  10.620
55774SOL     OW69218   8.797  12.511  10.429
55774SOL    HW169219   8.707  12.533  10.404
55774SOL    HW269220   8.851  12.578  10.388
55775SOL     OW69221   8.549  10.855  12.540
55775SOL    HW169222   8.598  10.773  12.530
55775SOL    HW269223   8.575  10.887  12.627
55776SOL     OW69224   6.312  12.682   5.557
55776SOL    HW169225   6.322  12.697   5.651
55776SOL    HW269226   6.371  12.744   5.516
55777SOL     OW69227   4.522  10.974  14.345
55777SOL    HW169228   4.601  11.015  14.380
55777SOL    HW269229   4.511  11.014  14.258
55778SOL     OW69230  11.006   4.000   3.716
55778SOL    HW169231  10.933   3.980   3.775
55778SOL    HW269232  11.055   4.069   3.760
55779SOL     OW69233  10.648   6.383   8.932
55779SOL    HW169234  10.574   6.365   8.874
55779SOL    HW269235  10.683   6.296   8.953
55780SOL     OW69236  14.622   9.871   5.323
55780SOL    HW169237  14.566   9.876   5.246
55780SOL    HW269238  14.633   9.962   5.351
55781SOL     OW69239  14.128   1.638  14.476
55781SOL    HW169240  14.176   1.597  14.404
55781SOL    HW269241  14.092   1.718  14.438
55782SOL     OW69242   7.668   1.319   3.041
55782SOL    HW169243   7.595   1.258   3.053
55782SOL    HW269244   7.654   1.357   2.954
55783SOL     OW69245  10.126   6.185   4.694
55783SOL    HW169246  10.095   6.271   4.666
55783SOL    HW269247  10.151   6.141   4.613
55784SOL     OW69248   6.100   6.966   1.503
55784SOL    HW169249   6.092   7.018   1.583
55784SOL    HW269250   6.028   6.903   1.508
55785SOL     OW69251  13.465   0.913  12.325
55785SOL    HW169252  13.465   0.817  12.316
55785SOL    HW269253  13.517   0.930  12.403
55786SOL     OW69254   2.389   0.535  11.341
55786SOL    HW169255   2.454   0.602  11.322
55786SOL    HW269256   2.380   0.486  11.259
55787SOL     OW69257  14.615   5.179   8.726
55787SOL    HW169258  14.553   5.142   8.789
55787SOL    HW269259  14.641   5.105   8.671
55788SOL     OW69260  11.095  14.341  13.015
55788SOL    HW169261  11.111  14.247  13.018
55788SOL    HW269262  11.036  14.353  12.940
55789SOL     OW69263   6.656  12.065   5.366
55789SOL    HW169264   6.645  12.137   5.428
55789SOL    HW269265   6.751  12.050   5.363
55790SOL     OW69266  13.071  13.678  10.156
55790SOL    HW169267  13.093  13.639  10.072
55790SOL    HW269268  13.155  13.707  10.192
55791SOL     OW69269  13.916   5.256   3.101
55791SOL    HW169270  13.882   5.179   3.054
55791SOL    HW269271  13.838   5.309   3.117
55792SOL     OW69272   1.650  10.299   1.103
55792SOL    HW169273   1.570  10.344   1.076
55792SOL    HW269274   1.626  10.253   1.183
55793SOL     OW69275   6.387  10.654  12.144
55793SOL    HW169276   6.364  10.722  12.207
55793SOL    HW269277   6.419  10.701  12.067
55794SOL     OW69278   4.498  13.670   8.836
55794SOL    HW169279   4.565  13.737   8.852
55794SOL    HW269280   4.485  13.671   8.742
55795SOL     OW69281  12.151   5.790   9.106
55795SOL    HW169282  12.176   5.703   9.138
55795SOL    HW269283  12.232   5.828   9.073
55796SOL     OW69284  11.293   1.496   0.234
55796SOL    HW169285  11.343   1.519   0.313
55796SOL    HW269286  11.341   1.424   0.195
55797SOL     OW69287   0.544   9.134   8.943
55797SOL    HW169288   0.496   9.204   8.899
55797SOL    HW269289   0.542   9.061   8.881
55798SOL     OW69290   8.152   3.799   2.013
55798SOL    HW169291   8.171   3.772   1.923
55798SOL    HW269292   8.191   3.886   2.021
55799SOL     OW69293  12.352   3.622   1.910
55799SOL    HW169294  12.401   3.702   1.923
55799SOL    HW269295  12.340   3.617   1.815
55800SOL     OW69296   8.339   9.929   8.975
55800SOL    HW169297   8.418   9.981   8.993
55800SOL    HW269298   8.372   9.848   8.936
55801SOL     OW69299  14.127   8.454   8.606
55801SOL    HW169300  14.043   8.431   8.645
55801SOL    HW269301  14.177   8.494   8.677
55802SOL     OW69302   6.737  10.046   2.327
55802SOL    HW169303   6.672   9.985   2.363
55802SOL    HW269304   6.752  10.109   2.397
55803SOL     OW69305  11.310  13.357   0.637
55803SOL    HW169306  11.315  13.282   0.695
55803SOL    HW269307  11.295  13.320   0.550
55804SOL     OW69308   0.508   6.650   4.708
55804SOL    HW169309   0.600   6.624   4.712
55804SOL    HW269310   0.467   6.586   4.650
55805SOL     OW69311   8.796  14.601   2.376
55805SOL    HW169312   8.870  14.597   2.435
55805SOL    HW269313   8.818  14.539   2.306
55806SOL     OW69314   3.662  14.252  11.803
55806SOL    HW169315   3.747  14.216  11.781
55806SOL    HW269316   3.608  14.176  11.824
55807SOL     OW69317   7.357   2.977   7.893
55807SOL    HW169318   7.390   2.894   7.928
55807SOL    HW269319   7.309   3.016   7.967
55808SOL     OW69320   7.390   0.463   6.515
55808SOL    HW169321   7.441   0.518   6.454
55808SOL    HW269322   7.411   0.498   6.602
55809SOL     OW69323   0.028  10.478   5.604
55809SOL    HW169324   0.116  10.441   5.606
55809SOL    HW269325   0.039  10.569   5.632
55810SOL     OW69326   9.831  11.621  12.082
55810SOL    HW169327   9.891  11.639  12.155
55810SOL    HW269328   9.883  11.638  12.003
55811SOL     OW69329  11.267   3.653   8.431
55811SOL    HW169330  11.204   3.724   8.416
55811SOL    HW269331  11.277   3.611   8.345
55812SOL     OW69332   3.227   4.519   0.767
55812SOL    HW169333   3.269   4.583   0.709
55812SOL    HW269334   3.138   4.510   0.732
55813SOL     OW69335   8.139   8.077   7.648
55813SOL    HW169336   8.067   8.115   7.698
55813SOL    HW269337   8.140   7.985   7.675
55814SOL     OW69338  14.557   3.843   5.461
55814SOL    HW169339  14.559   3.883   5.548
55814SOL    HW269340  14.512   3.759   5.475
55815SOL     OW69341   2.185  11.427   9.911
55815SOL    HW169342   2.253  11.460   9.852
55815SOL    HW269343   2.103  11.456   9.872
55816SOL     OW69344   4.832  10.141  12.904
55816SOL    HW169345   4.739  10.117  12.900
55816SOL    HW269346   4.835  10.214  12.967
55817SOL     OW69347  10.593  11.557  13.006
55817SOL    HW169348  10.645  11.581  13.083
55817SOL    HW269349  10.648  11.578  12.931
55818SOL     OW69350   2.102   8.466   9.145
55818SOL    HW169351   2.084   8.549   9.190
55818SOL    HW269352   2.191   8.474   9.113
55819SOL     OW69353   2.187   8.405  13.106
55819SOL    HW169354   2.163   8.361  13.187
55819SOL    HW269355   2.265   8.456  13.129
55820SOL     OW69356   5.844  11.275  12.113
55820SOL    HW169357   5.772  11.328  12.079
55820SOL    HW269358   5.812  11.240  12.196
55821SOL     OW69359  13.437  13.262  13.198
55821SOL    HW169360  13.387  13.342  13.217
55821SOL    HW269361  13.484  13.243  13.279
55822SOL     OW69362  14.565  10.676   3.061
55822SOL    HW169363  14.598  10.754   3.017
55822SOL    HW269364  14.591  10.603   3.004
55823SOL     OW69365   5.098  12.800  11.245
55823SOL    HW169366   5.065  12.717  11.280
55823SOL    HW269367   5.142  12.777  11.164
55824SOL     OW69368   9.617   2.091  14.387
55824SOL    HW169369   9.562   2.079  14.465
55824SOL    HW269370   9.586   2.172  14.348
55825SOL     OW69371   7.066  14.663  14.617
55825SOL    HW169372   7.025  14.606  14.552
55825SOL    HW269373   7.153  14.681  14.581
55826SOL     OW69374  10.349   9.657  11.361
55826SOL    HW169375  10.264   9.638  11.400
55826SOL    HW269376  10.330   9.720  11.291
55827SOL     OW69377   8.582   0.009  13.812
55827SOL    HW169378   8.672   0.010  13.781
55827SOL    HW269379   8.529   0.009  13.731
55828SOL     OW69380   4.326   2.012   8.736
55828SOL    HW169381   4.324   1.916   8.734
55828SOL    HW269382   4.256   2.036   8.796
55829SOL     OW69383   6.097  12.697  11.296
55829SOL    HW169384   6.046  12.623  11.328
55829SOL    HW269385   6.032  12.753  11.252
55830SOL     OW69386  11.216   3.444   5.565
55830SOL    HW169387  11.139   3.433   5.621
55830SOL    HW269388  11.220   3.364   5.513
55831SOL     OW69389   3.417  11.117   7.567
55831SOL    HW169390   3.452  11.124   7.479
55831SOL    HW269391   3.441  11.029   7.596
55832SOL     OW69392   3.984   1.880  10.246
55832SOL    HW169393   3.894   1.847  10.248
55832SOL    HW269394   4.033   1.815  10.197
55833SOL     OW69395   6.340   5.451  14.358
55833SOL    HW169396   6.402   5.481  14.291
55833SOL    HW269397   6.321   5.361  14.334
55834SOL     OW69398   3.025   5.028  12.112
55834SOL    HW169399   3.037   4.934  12.128
55834SOL    HW269400   3.039   5.069  12.197
55835SOL     OW69401  14.061   2.086   4.905
55835SOL    HW169402  14.061   2.077   5.001
55835SOL    HW269403  14.064   1.996   4.872
55836SOL     OW69404  12.630   0.027   8.224
55836SOL    HW169405  12.574   0.055   8.297
55836SOL    HW269406  12.585  14.834   8.186
55837SOL     OW69407  12.689  12.088   7.509
55837SOL    HW169408  12.644  12.144   7.446
55837SOL    HW269409  12.737  12.149   7.565
55838SOL     OW69410  12.060   1.148   4.040
55838SOL    HW169411  12.065   1.243   4.035
55838SOL    HW269412  12.118   1.125   4.113
55839SOL     OW69413  10.406   9.335   9.069
55839SOL    HW169414  10.408   9.428   9.093
55839SOL    HW269415  10.443   9.291   9.145
55840SOL     OW69416   0.091   5.406  11.078
55840SOL    HW169417   0.023   5.459  11.119
55840SOL    HW269418   0.046   5.359  11.008
55841SOL     OW69419   3.743  11.818   2.481
55841SOL    HW169420   3.785  11.865   2.409
55841SOL    HW269421   3.743  11.726   2.454
55842SOL     OW69422   0.917   3.030   5.432
55842SOL    HW169423   0.956   3.118   5.433
55842SOL    HW269424   0.863   3.028   5.511
55843SOL     OW69425   7.572  13.786   8.200
55843SOL    HW169426   7.569  13.692   8.215
55843SOL    HW269427   7.618  13.822   8.276
55844SOL     OW69428   8.943   6.991   1.362
55844SOL    HW169429   8.934   7.086   1.361
55844SOL    HW269430   8.975   6.971   1.450
55845SOL     OW69431   0.427   2.670   6.989
55845SOL    HW169432   0.341   2.628   6.984
55845SOL    HW269433   0.411   2.761   6.967
55846SOL     OW69434   7.310   5.839  12.067
55846SOL    HW169435   7.270   5.846  11.980
55846SOL    HW269436   7.393   5.886  12.059
55847SOL     OW69437   9.236   7.537  13.068
55847SOL    HW169438   9.200   7.625  13.057
55847SOL    HW269439   9.174   7.493  13.125
55848SOL     OW69440  12.219   9.485   0.471
55848SOL    HW169441  12.287   9.427   0.437
55848SOL    HW269442  12.156   9.427   0.514
55849SOL     OW69443  10.688   1.164   9.371
55849SOL    HW169444  10.655   1.181   9.459
55849SOL    HW269445  10.633   1.094   9.337
55850SOL     OW69446   7.063  12.471   5.019
55850SOL    HW169447   7.107  12.386   5.026
55850SOL    HW269448   7.087  12.517   5.099
55851SOL     OW69449   8.190   4.553  10.342
55851SOL    HW169450   8.238   4.475  10.371
55851SOL    HW269451   8.242   4.587  10.269
55852SOL     OW69452   3.022   5.374   4.772
55852SOL    HW169453   3.002   5.350   4.682
55852SOL    HW269454   3.111   5.341   4.787
55853SOL     OW69455   8.138  13.521   4.763
55853SOL    HW169456   8.202  13.569   4.711
55853SOL    HW269457   8.110  13.583   4.830
55854SOL     OW69458   5.126   4.421   9.191
55854SOL    HW169459   5.063   4.493   9.181
55854SOL    HW269460   5.198   4.444   9.133
55855SOL     OW69461   1.194  13.138   8.886
55855SOL    HW169462   1.213  13.216   8.834
55855SOL    HW269463   1.129  13.091   8.833
55856SOL     OW69464   8.781   6.846   6.700
55856SOL    HW169465   8.873   6.825   6.714
55856SOL    HW269466   8.781   6.905   6.624
55857SOL     OW69467   1.899  12.631   7.114
55857SOL    HW169468   1.871  12.714   7.153
55857SOL    HW269469   1.993  12.642   7.098
55858SOL     OW69470   1.541   4.626  11.796
55858SOL    HW169471   1.559   4.666  11.711
55858SOL    HW269472   1.594   4.546  11.797
55859SOL     OW69473  12.337   4.401   4.764
55859SOL    HW169474  12.277   4.476   4.761
55859SOL    HW269475  12.301   4.346   4.834
55860SOL     OW69476   6.207   6.827   3.486
55860SOL    HW169477   6.266   6.811   3.560
55860SOL    HW269478   6.119   6.823   3.525
55861SOL     OW69479   8.116   0.608  10.587
55861SOL    HW169480   8.032   0.654  10.592
55861SOL    HW269481   8.128   0.589  10.494
55862SOL     OW69482   4.211   3.148   3.459
55862SOL    HW169483   4.210   3.061   3.500
55862SOL    HW269484   4.127   3.155   3.416
55863SOL     OW69485   4.600   1.424  11.099
55863SOL    HW169486   4.612   1.512  11.063
55863SOL    HW269487   4.667   1.371  11.055
55864SOL     OW69488  11.668   1.535  14.136
55864SOL    HW169489  11.603   1.576  14.193
55864SOL    HW269490  11.720   1.481  14.195
55865SOL     OW69491   8.248  12.458   7.202
55865SOL    HW169492   8.264  12.364   7.212
55865SOL    HW269493   8.311  12.486   7.137
55866SOL     OW69494   0.514  10.809   7.066
55866SOL    HW169495   0.419  10.811   7.057
55866SOL    HW269496   0.529  10.802   7.160
55867SOL     OW69497   1.440   1.100   6.637
55867SOL    HW169498   1.519   1.152   6.652
55867SOL    HW269499   1.458   1.051   6.557
55868SOL     OW69500   1.008   1.461   9.896
55868SOL    HW169501   0.945   1.428   9.961
55868SOL    HW269502   0.966   1.538   9.858
55869SOL     OW69503   6.882   4.878   8.011
55869SOL    HW169504   6.955   4.913   8.062
55869SOL    HW269505   6.817   4.948   8.011
55870SOL     OW69506   3.741  13.915   9.301
55870SOL    HW169507   3.774  13.937   9.214
55870SOL    HW269508   3.781  13.831   9.321
55871SOL     OW69509  10.744   7.095   3.131
55871SOL    HW169510  10.807   7.069   3.198
55871SOL    HW269511  10.721   7.013   3.088
55872SOL     OW69512  11.805   3.055  12.995
55872SOL    HW169513  11.815   2.999  13.072
55872SOL    HW269514  11.891   3.052  12.952
55873SOL     OW69515  11.297  13.115   2.005
55873SOL    HW169516  11.314  13.098   2.098
55873SOL    HW269517  11.354  13.053   1.959
55874SOL     OW69518   3.758   3.695   0.693
55874SOL    HW169519   3.801   3.637   0.630
55874SOL    HW269520   3.665   3.674   0.684
55875SOL     OW69521   7.664   3.132  10.997
55875SOL    HW169522   7.730   3.066  11.017
55875SOL    HW269523   7.580   3.086  11.005
55876SOL     OW69524  12.774   3.356   8.005
55876SOL    HW169525  12.708   3.393   7.946
55876SOL    HW269526  12.854   3.406   7.986
55877SOL     OW69527  12.277  11.075   2.148
55877SOL    HW169528  12.345  11.110   2.206
55877SOL    HW269529  12.281  11.129   2.070
55878SOL     OW69530   1.792   0.706  10.035
55878SOL    HW169531   1.841   0.686   9.956
55878SOL    HW269532   1.835   0.783  10.072
55879SOL     OW69533   2.906  10.420   4.520
55879SOL    HW169534   2.820  10.427   4.561
55879SOL    HW269535   2.960  10.484   4.566
55880SOL     OW69536   4.519   6.671  12.861
55880SOL    HW169537   4.470   6.730  12.803
55880SOL    HW269538   4.599   6.719  12.882
55881SOL     OW69539  13.758   1.988  14.240
55881SOL    HW169540  13.808   2.067  14.259
55881SOL    HW269541  13.775   1.970  14.147
55882SOL     OW69542  13.013  13.889  11.120
55882SOL    HW169543  12.944  13.939  11.163
55882SOL    HW269544  13.048  13.831  11.189
55883SOL     OW69545   1.080  12.688   5.909
55883SOL    HW169546   1.056  12.688   5.816
55883SOL    HW269547   1.166  12.730   5.910
55884SOL     OW69548  13.192   6.697   1.137
55884SOL    HW169549  13.178   6.760   1.066
55884SOL    HW269550  13.167   6.612   1.099
55885SOL     OW69551   0.829   2.080   7.693
55885SOL    HW169552   0.807   2.170   7.667
55885SOL    HW269553   0.906   2.090   7.750
55886SOL     OW69554   8.129   9.562  10.491
55886SOL    HW169555   8.092   9.567  10.580
55886SOL    HW269556   8.127   9.652  10.459
55887SOL     OW69557   5.180  12.328   4.113
55887SOL    HW169558   5.263  12.375   4.105
55887SOL    HW269559   5.205  12.240   4.143
55888SOL     OW69560  14.625   8.389   7.735
55888SOL    HW169561  14.696   8.448   7.760
55888SOL    HW269562  14.649   8.358   7.648
55889SOL     OW69563   2.462  13.846   9.861
55889SOL    HW169564   2.378  13.860   9.818
55889SOL    HW269565   2.466  13.915   9.927
55890SOL     OW69566   1.208  13.935   4.332
55890SOL    HW169567   1.231  13.844   4.314
55890SOL    HW269568   1.141  13.957   4.268
55891SOL     OW69569  14.559   2.845   5.610
55891SOL    HW169570  14.562   2.782   5.539
55891SOL    HW269571  14.504   2.803   5.677
55892SOL     OW69572  13.221   7.779  13.840
55892SOL    HW169573  13.264   7.853  13.797
55892SOL    HW269574  13.209   7.715  13.770
55893SOL     OW69575   2.859   3.380   4.510
55893SOL    HW169576   2.945   3.352   4.542
55893SOL    HW269577   2.809   3.399   4.590
55894SOL     OW69578  12.446  11.553   6.244
55894SOL    HW169579  12.443  11.472   6.294
55894SOL    HW269580  12.506  11.534   6.172
55895SOL     OW69581   1.773   3.279   4.311
55895SOL    HW169582   1.778   3.193   4.354
55895SOL    HW269583   1.861   3.293   4.275
55896SOL     OW69584   2.172   8.269   4.176
55896SOL    HW169585   2.203   8.358   4.197
55896SOL    HW269586   2.077   8.274   4.184
55897SOL     OW69587   1.535   6.219   0.819
55897SOL    HW169588   1.619   6.266   0.820
55897SOL    HW269589   1.556   6.131   0.850
55898SOL     OW69590   0.335  14.484  10.689
55898SOL    HW169591   0.355  14.391  10.676
55898SOL    HW269592   0.406  14.530  10.645
55899SOL     OW69593   5.543   1.687  14.864
55899SOL    HW169594   5.470   1.645  14.818
55899SOL    HW269595   5.536   1.780  14.842
55900SOL     OW69596  11.903   5.148   7.773
55900SOL    HW169597  11.987   5.102   7.787
55900SOL    HW269598  11.925   5.220   7.714
55901SOL     OW69599   6.064  12.277   6.675
55901SOL    HW169600   6.052  12.198   6.622
55901SOL    HW269601   5.993  12.274   6.739
55902SOL     OW69602   8.241   2.437  11.515
55902SOL    HW169603   8.277   2.475  11.596
55902SOL    HW269604   8.288   2.355  11.504
55903SOL     OW69605  12.640   0.567   1.223
55903SOL    HW169606  12.569   0.566   1.288
55903SOL    HW269607  12.620   0.643   1.168
55904SOL     OW69608   2.737  13.291   2.640
55904SOL    HW169609   2.725  13.278   2.546
55904SOL    HW269610   2.828  13.317   2.649
55905SOL     OW69611   3.083   9.988   1.021
55905SOL    HW169612   3.173  10.016   1.040
55905SOL    HW269613   3.080   9.982   0.925
55906SOL     OW69614   2.154   1.762   2.106
55906SOL    HW169615   2.147   1.729   2.196
55906SOL    HW269616   2.213   1.837   2.113
55907SOL     OW69617  12.356   2.079   1.483
55907SOL    HW169618  12.349   2.048   1.392
55907SOL    HW269619  12.273   2.122   1.500
55908SOL     OW69620   7.735  10.642   1.378
55908SOL    HW169621   7.781  10.674   1.301
55908SOL    HW269622   7.797  10.581   1.419
55909SOL     OW69623   2.140  12.544  10.604
55909SOL    HW169624   2.141  12.598  10.525
55909SOL    HW269625   2.226  12.558  10.643
55910SOL     OW69626   3.152   3.705   2.036
55910SOL    HW169627   3.125   3.653   1.961
55910SOL    HW269628   3.100   3.785   2.030
55911SOL     OW69629   6.553   4.266   8.943
55911SOL    HW169630   6.641   4.239   8.917
55911SOL    HW269631   6.506   4.277   8.860
55912SOL     OW69632  11.462   9.729  12.397
55912SOL    HW169633  11.526   9.657  12.403
55912SOL    HW269634  11.377   9.685  12.392
55913SOL     OW69635  11.243   8.725  14.684
55913SOL    HW169636  11.176   8.707  14.618
55913SOL    HW269637  11.285   8.806  14.654
55914SOL     OW69638  10.551  10.713  14.351
55914SOL    HW169639  10.498  10.690  14.427
55914SOL    HW269640  10.590  10.797  14.372
55915SOL     OW69641   7.098  11.094   0.125
55915SOL    HW169642   7.152  11.163   0.163
55915SOL    HW269643   7.060  11.049   0.200
55916SOL     OW69644  12.111   5.126   0.684
55916SOL    HW169645  12.083   5.215   0.660
55916SOL    HW269646  12.177   5.103   0.619
55917SOL     OW69647  11.495   4.918   6.819
55917SOL    HW169648  11.571   4.977   6.825
55917SOL    HW269649  11.449   4.929   6.902
55918SOL     OW69650  10.484   4.893   9.622
55918SOL    HW169651  10.559   4.917   9.675
55918SOL    HW269652  10.408   4.923   9.672
55919SOL     OW69653  10.673   7.712   8.730
55919SOL    HW169654  10.616   7.636   8.717
55919SOL    HW269655  10.637   7.779   8.672
55920SOL     OW69656   5.216   1.761   3.941
55920SOL    HW169657   5.137   1.811   3.958
55920SOL    HW269658   5.253   1.745   4.028
55921SOL     OW69659  11.813  12.908   1.700
55921SOL    HW169660  11.826  12.954   1.617
55921SOL    HW269661  11.867  12.829   1.693
55922SOL     OW69662   8.108   2.187  12.572
55922SOL    HW169663   8.136   2.214  12.485
55922SOL    HW269664   8.019   2.223  12.581
55923SOL     OW69665  13.476   5.250  13.784
55923SOL    HW169666  13.565   5.263  13.817
55923SOL    HW269667  13.476   5.159  13.753
55924SOL     OW69668  10.557  12.717   8.892
55924SOL    HW169669  10.544  12.811   8.903
55924SOL    HW269670  10.640  12.709   8.843
55925SOL     OW69671   3.917  11.423   5.175
55925SOL    HW169672   3.826  11.408   5.201
55925SOL    HW269673   3.969  11.391   5.248
55926SOL     OW69674   3.567   4.865  12.480
55926SOL    HW169675   3.661   4.861  12.461
55926SOL    HW269676   3.537   4.775  12.467
55927SOL     OW69677  12.859  12.248  11.191
55927SOL    HW169678  12.838  12.269  11.100
55927SOL    HW269679  12.775  12.233  11.233
55928SOL     OW69680  10.318   3.783   3.363
55928SOL    HW169681  10.251   3.838   3.323
55928SOL    HW269682  10.291   3.693   3.341
55929SOL     OW69683   3.445  10.344   3.278
55929SOL    HW169684   3.453  10.296   3.196
55929SOL    HW269685   3.360  10.317   3.314
55930SOL     OW69686  14.541   5.556   5.374
55930SOL    HW169687  14.500   5.596   5.298
55930SOL    HW269688  14.472   5.554   5.441
55931SOL     OW69689   9.294   7.351   1.639
55931SOL    HW169690   9.324   7.264   1.665
55931SOL    HW269691   9.356   7.379   1.572
55932SOL     OW69692  11.991   6.437   8.239
55932SOL    HW169693  11.978   6.526   8.274
55932SOL    HW269694  11.903   6.400   8.235
55933SOL     OW69695   6.230  14.360   8.159
55933SOL    HW169696   6.234  14.435   8.218
55933SOL    HW269697   6.184  14.393   8.081
55934SOL     OW69698   8.092  14.608   4.629
55934SOL    HW169699   8.051  14.595   4.543
55934SOL    HW269700   8.044  14.680   4.668
55935SOL     OW69701  11.725  10.973   1.497
55935SOL    HW169702  11.702  11.066   1.493
55935SOL    HW269703  11.821  10.973   1.501
55936SOL     OW69704  14.725   8.063  13.457
55936SOL    HW169705  14.743   8.084  13.548
55936SOL    HW269706  14.654   8.122  13.432
55937SOL     OW69707  10.022   6.989   0.062
55937SOL    HW169708   9.930   6.986   0.088
55937SOL    HW269709  10.038   6.904   0.021
55938SOL     OW69710   3.712   8.646   7.706
55938SOL    HW169711   3.764   8.726   7.693
55938SOL    HW269712   3.739   8.614   7.792
55939SOL     OW69713  11.368   6.323   9.826
55939SOL    HW169714  11.458   6.347   9.803
55939SOL    HW269715  11.375   6.237   9.867
55940SOL     OW69716   5.776   0.608   1.894
55940SOL    HW169717   5.790   0.521   1.932
55940SOL    HW269718   5.682   0.612   1.879
55941SOL     OW69719   5.425   1.988  10.379
55941SOL    HW169720   5.473   2.042  10.442
55941SOL    HW269721   5.400   2.049  10.309
55942SOL     OW69722   5.430   6.575   7.950
55942SOL    HW169723   5.494   6.646   7.948
55942SOL    HW269724   5.455   6.519   7.876
55943SOL     OW69725   6.060   2.966   7.364
55943SOL    HW169726   6.151   2.966   7.334
55943SOL    HW269727   6.049   2.882   7.408
55944SOL     OW69728   4.521  11.007   9.266
55944SOL    HW169729   4.612  10.984   9.245
55944SOL    HW269730   4.507  11.092   9.224
55945SOL     OW69731   6.229  13.771   1.253
55945SOL    HW169732   6.229  13.824   1.332
55945SOL    HW269733   6.184  13.690   1.278
55946SOL     OW69734  13.915   9.856   5.787
55946SOL    HW169735  13.934   9.894   5.873
55946SOL    HW269736  13.935   9.763   5.797
55947SOL     OW69737   7.420  13.665   3.851
55947SOL    HW169738   7.478  13.739   3.872
55947SOL    HW269739   7.397  13.678   3.759
55948SOL     OW69740   0.950  14.658   9.758
55948SOL    HW169741   0.857  14.668   9.778
55948SOL    HW269742   0.959  14.684   9.667
55949SOL     OW69743   7.412   1.215   8.458
55949SOL    HW169744   7.324   1.176   8.458
55949SOL    HW269745   7.454   1.180   8.536
55950SOL     OW69746   0.154   0.904   1.549
55950SOL    HW169747   0.098   0.873   1.620
55950SOL    HW269748   0.105   0.976   1.509
55951SOL     OW69749  11.554   8.598   2.615
55951SOL    HW169750  11.546   8.605   2.710
55951SOL    HW269751  11.648   8.589   2.599
55952SOL     OW69752  13.897  10.079   3.852
55952SOL    HW169753  13.866  10.141   3.918
55952SOL    HW269754  13.953  10.018   3.901
55953SOL     OW69755  11.592   2.989  10.821
55953SOL    HW169756  11.588   3.060  10.757
55953SOL    HW269757  11.625   2.914  10.772
55954SOL     OW69758   0.812   1.654  12.179
55954SOL    HW169759   0.739   1.598  12.152
55954SOL    HW269760   0.779   1.743  12.168
55955SOL     OW69761  14.214   9.213  13.881
55955SOL    HW169762  14.225   9.164  13.799
55955SOL    HW269763  14.251   9.299  13.863
55956SOL     OW69764   1.314   6.499   0.350
55956SOL    HW169765   1.369   6.479   0.274
55956SOL    HW269766   1.342   6.435   0.416
55957SOL     OW69767   9.266   6.871   8.573
55957SOL    HW169768   9.356   6.844   8.554
55957SOL    HW269769   9.234   6.806   8.635
55958SOL     OW69770   6.321   0.182  10.451
55958SOL    HW169771   6.250   0.179  10.516
55958SOL    HW269772   6.323   0.094  10.414
55959SOL     OW69773   3.275  13.482   1.359
55959SOL    HW169774   3.286  13.390   1.333
55959SOL    HW269775   3.249  13.527   1.278
55960SOL     OW69776   0.114   6.735   3.585
55960SOL    HW169777   0.034   6.756   3.536
55960SOL    HW269778   0.150   6.820   3.609
55961SOL     OW69779  10.628   7.753  12.625
55961SOL    HW169780  10.578   7.835  12.627
55961SOL    HW269781  10.620   7.723  12.534
55962SOL     OW69782   6.130   0.956   4.554
55962SOL    HW169783   6.135   0.872   4.599
55962SOL    HW269784   6.176   0.941   4.471
55963SOL     OW69785   6.659   0.547   9.251
55963SOL    HW169786   6.729   0.485   9.234
55963SOL    HW269787   6.597   0.535   9.179
55964SOL     OW69788   3.915   5.141   7.674
55964SOL    HW169789   3.898   5.217   7.729
55964SOL    HW269790   4.000   5.159   7.633
55965SOL     OW69791   6.018   1.420   2.230
55965SOL    HW169792   6.075   1.494   2.210
55965SOL    HW269793   5.936   1.441   2.185
55966SOL     OW69794  11.306  14.635   9.828
55966SOL    HW169795  11.365  14.602   9.896
55966SOL    HW269796  11.260  14.557   9.797
55967SOL     OW69797  10.537   2.319  11.932
55967SOL    HW169798  10.545   2.392  11.871
55967SOL    HW269799  10.465   2.345  11.990
55968SOL     OW69800   9.031  13.329  10.314
55968SOL    HW169801   9.024  13.257  10.378
55968SOL    HW269802   8.956  13.317  10.256
55969SOL     OW69803   0.447  10.164  11.739
55969SOL    HW169804   0.410  10.120  11.662
55969SOL    HW269805   0.393  10.242  11.750
55970SOL     OW69806   3.151   1.419  12.034
55970SOL    HW169807   3.158   1.497  12.090
55970SOL    HW269808   3.185   1.447  11.949
55971SOL     OW69809   3.332   6.578  12.945
55971SOL    HW169810   3.382   6.497  12.931
55971SOL    HW269811   3.390   6.633  12.998
55972SOL     OW69812   0.777   1.654   9.937
55972SOL    HW169813   0.848   1.714   9.959
55972SOL    HW269814   0.731   1.696   9.864
55973SOL     OW69815   1.585   0.748  12.152
55973SOL    HW169816   1.524   0.696  12.203
55973SOL    HW269817   1.634   0.683  12.101
55974SOL     OW69818   0.478  14.803  13.104
55974SOL    HW169819   0.474  14.798  13.008
55974SOL    HW269820   0.561  14.761  13.127
55975SOL     OW69821   6.059   6.241   6.572
55975SOL    HW169822   6.052   6.335   6.555
55975SOL    HW269823   6.067   6.234   6.667
55976SOL     OW69824   2.546   3.052   6.960
55976SOL    HW169825   2.549   2.957   6.974
55976SOL    HW269826   2.496   3.085   7.035
55977SOL     OW69827  11.576  11.655   5.153
55977SOL    HW169828  11.584  11.564   5.125
55977SOL    HW269829  11.491  11.660   5.197
55978SOL     OW69830   7.773   1.204   6.432
55978SOL    HW169831   7.698   1.217   6.374
55978SOL    HW269832   7.829   1.141   6.386
55979SOL     OW69833  10.390  12.976  13.958
55979SOL    HW169834  10.455  12.962  14.027
55979SOL    HW269835  10.420  12.923  13.884
55980SOL     OW69836  14.137   3.246  13.567
55980SOL    HW169837  14.209   3.200  13.609
55980SOL    HW269838  14.085   3.281  13.640
55981SOL     OW69839   4.511   5.580   9.305
55981SOL    HW169840   4.558   5.497   9.295
55981SOL    HW269841   4.434   5.557   9.358
55982SOL     OW69842  13.669  12.435  12.661
55982SOL    HW169843  13.754  12.467  12.691
55982SOL    HW269844  13.663  12.463  12.570
55983SOL     OW69845   7.072   0.270   5.663
55983SOL    HW169846   7.110   0.188   5.630
55983SOL    HW269847   6.993   0.242   5.710
55984SOL     OW69848   5.855  10.833   9.625
55984SOL    HW169849   5.925  10.789   9.577
55984SOL    HW269850   5.840  10.778   9.702
55985SOL     OW69851  13.540   3.967   8.085
55985SOL    HW169852  13.612   3.992   8.028
55985SOL    HW269853  13.569   3.992   8.173
55986SOL     OW69854   7.655   1.630   4.823
55986SOL    HW169855   7.570   1.594   4.850
55986SOL    HW269856   7.711   1.619   4.900
55987SOL     OW69857   8.224   5.301  13.910
55987SOL    HW169858   8.183   5.384  13.933
55987SOL    HW269859   8.297   5.292  13.972
55988SOL     OW69860   4.052   5.339   9.823
55988SOL    HW169861   4.145   5.333   9.799
55988SOL    HW269862   4.006   5.344   9.740
55989SOL     OW69863  12.039  13.888  11.104
55989SOL    HW169864  12.058  13.853  11.191
55989SOL    HW269865  12.088  13.832  11.044
55990SOL     OW69866   1.563   9.558  14.200
55990SOL    HW169867   1.544   9.480  14.252
55990SOL    HW269868   1.650   9.585  14.230
55991SOL     OW69869   6.238   4.076   2.681
55991SOL    HW169870   6.237   4.139   2.609
55991SOL    HW269871   6.146   4.064   2.704
55992SOL     OW69872   1.735  14.075  12.854
55992SOL    HW169873   1.775  14.115  12.777
55992SOL    HW269874   1.799  14.088  12.924
55993SOL     OW69875   4.327   1.889   3.094
55993SOL    HW169876   4.356   1.977   3.072
55993SOL    HW269877   4.267   1.865   3.023
55994SOL     OW69878  10.187   1.612  13.687
55994SOL    HW169879  10.109   1.557  13.700
55994SOL    HW269880  10.207   1.604  13.594
55995SOL     OW69881   8.919  13.926   8.700
55995SOL    HW169882   8.984  13.857   8.713
55995SOL    HW269883   8.851  13.886   8.646
55996SOL     OW69884   8.355   9.445   4.748
55996SOL    HW169885   8.369   9.530   4.707
55996SOL    HW269886   8.329   9.465   4.838
55997SOL     OW69887   7.820   7.974   4.217
55997SOL    HW169888   7.859   7.888   4.232
55997SOL    HW269889   7.857   8.029   4.286
55998SOL     OW69890   2.053   0.532   9.133
55998SOL    HW169891   2.018   0.610   9.175
55998SOL    HW269892   2.070   0.559   9.043
55999SOL     OW69893   9.708  12.273   4.854
55999SOL    HW169894   9.624  12.298   4.891
55999SOL    HW269895   9.690  12.191   4.807
56000SOL     OW69896  14.069   2.794  13.517
56000SOL    HW169897  13.999   2.826  13.574
56000SOL    HW269898  14.023   2.749  13.446
56001SOL     OW69899   3.748   9.775   0.381
56001SOL    HW169900   3.689   9.709   0.345
56001SOL    HW269901   3.754   9.842   0.312
56002SOL     OW69902  12.619   0.026  12.972
56002SOL    HW169903  12.537  14.860  12.975
56002SOL    HW269904  12.610   0.094  13.038
56003SOL     OW69905   0.289   1.049  12.642
56003SOL    HW169906   0.240   1.127  12.668
56003SOL    HW269907   0.316   1.010  12.725
56004SOL     OW69908   1.645  11.793   8.787
56004SOL    HW169909   1.715  11.773   8.848
56004SOL    HW269910   1.628  11.886   8.800
56005SOL     OW69911   1.408  13.009   8.634
56005SOL    HW169912   1.435  13.101   8.624
56005SOL    HW269913   1.490  12.962   8.650
56006SOL     OW69914   9.046   9.023   4.807
56006SOL    HW169915   9.136   9.012   4.837
56006SOL    HW269916   9.019   9.107   4.845
56007SOL     OW69917  13.483   8.306  10.575
56007SOL    HW169918  13.527   8.391  10.566
56007SOL    HW269919  13.391   8.327  10.590
56008SOL     OW69920  10.749   3.760   8.645
56008SOL    HW169921  10.734   3.818   8.569
56008SOL    HW269922  10.661   3.744   8.680
56009SOL     OW69923   4.443   0.023   8.709
56009SOL    HW169924   4.384   0.093   8.682
56009SOL    HW269925   4.396  14.860   8.779
56010SOL     OW69926   2.181  10.443   1.765
56010SOL    HW169927   2.187  10.406   1.677
56010SOL    HW269928   2.270  10.470   1.786
56011SOL     OW69929   5.169   8.514   2.718
56011SOL    HW169930   5.124   8.466   2.649
56011SOL    HW269931   5.131   8.480   2.799
56012SOL     OW69932   9.125   3.927   1.785
56012SOL    HW169933   9.177   3.900   1.710
56012SOL    HW269934   9.185   3.978   1.840
56013SOL     OW69935   5.627  10.628  13.793
56013SOL    HW169936   5.550  10.616  13.849
56013SOL    HW269937   5.700  10.637  13.854
56014SOL     OW69938  10.442   9.874  11.011
56014SOL    HW169939  10.499   9.803  10.983
56014SOL    HW269940  10.486   9.954  10.980
56015SOL     OW69941   6.824  14.369   5.356
56015SOL    HW169942   6.846  14.410   5.440
56015SOL    HW269943   6.830  14.275   5.374
56016SOL     OW69944   5.474   2.817   5.402
56016SOL    HW169945   5.436   2.730   5.416
56016SOL    HW269946   5.405   2.867   5.359
56017SOL     OW69947  11.790  10.501   8.146
56017SOL    HW169948  11.884  10.506   8.128
56017SOL    HW269949  11.752  10.577   8.102
56018SOL     OW69950   7.212   5.681   2.722
56018SOL    HW169951   7.206   5.586   2.709
56018SOL    HW269952   7.226   5.692   2.816
56019SOL     OW69953   9.444  12.175  11.994
56019SOL    HW169954   9.539  12.182  12.001
56019SOL    HW269955   9.411  12.198  12.081
56020SOL     OW69956   1.338   1.386   9.573
56020SOL    HW169957   1.305   1.472   9.601
56020SOL    HW269958   1.289   1.323   9.625
56021SOL     OW69959  13.059  14.861  14.812
56021SOL    HW169960  12.977  14.875  14.859
56021SOL    HW269961  13.100  14.788  14.858
56022SOL     OW69962  12.688   5.025   3.227
56022SOL    HW169963  12.601   5.044   3.263
56022SOL    HW269964  12.706   4.935   3.257
56023SOL     OW69965  11.716  11.103   0.145
56023SOL    HW169966  11.718  11.163   0.070
56023SOL    HW269967  11.634  11.123   0.190
56024SOL     OW69968   2.210   8.986   3.494
56024SOL    HW169969   2.258   8.991   3.577
56024SOL    HW269970   2.118   8.996   3.518
56025SOL     OW69971   0.442  10.143   9.189
56025SOL    HW169972   0.362  10.091   9.196
56025SOL    HW269973   0.423  10.222   9.241
56026SOL     OW69974   7.217   4.791  14.052
56026SOL    HW169975   7.178   4.742  14.124
56026SOL    HW269976   7.171   4.759  13.974
56027SOL     OW69977   9.928   7.852  11.478
56027SOL    HW169978  10.013   7.819  11.508
56027SOL    HW269979   9.868   7.779  11.493
56028SOL     OW69980   9.402   8.889  12.333
56028SOL    HW169981   9.461   8.842  12.392
56028SOL    HW269982   9.315   8.873  12.369
56029SOL     OW69983   4.093   3.000  12.517
56029SOL    HW169984   4.068   3.090  12.537
56029SOL    HW269985   4.015   2.948  12.533
56030SOL     OW69986   5.539  11.771  13.526
56030SOL    HW169987   5.490  11.831  13.470
56030SOL    HW269988   5.480  11.753  13.600
56031SOL     OW69989  14.710  11.773   5.197
56031SOL    HW169990  14.705  11.750   5.104
56031SOL    HW269991  14.751  11.859   5.198
56032SOL     OW69992   2.938  12.815   9.488
56032SOL    HW169993   2.986  12.876   9.543
56032SOL    HW269994   3.003  12.783   9.425
56033SOL     OW69995   6.524  10.564  12.481
56033SOL    HW169996   6.591  10.631  12.490
56033SOL    HW269997   6.568  10.492  12.437
56034SOL     OW69998   4.847   6.619   8.766
56034SOL    HW169999   4.758   6.652   8.759
56034SOL    HW270000   4.875   6.642   8.854
56035SOL     OW70001  10.486  14.380   7.820
56035SOL    HW170002  10.453  14.446   7.881
56035SOL    HW270003  10.498  14.428   7.737
56036SOL     OW70004  14.617  13.326   5.831
56036SOL    HW170005  14.562  13.402   5.851
56036SOL    HW270006  14.571  13.282   5.759
56037SOL     OW70007   6.143   4.599   2.409
56037SOL    HW170008   6.174   4.607   2.318
56037SOL    HW270009   6.090   4.677   2.423
56038SOL     OW70010  11.673  11.012   8.144
56038SOL    HW170011  11.605  11.045   8.203
56038SOL    HW270012  11.628  10.997   8.061
56039SOL     OW70013   4.231   9.824  14.757
56039SOL    HW170014   4.324   9.805  14.770
56039SOL    HW270015   4.188   9.739  14.764
56040SOL     OW70016   2.437   2.976   2.508
56040SOL    HW170017   2.389   3.026   2.443
56040SOL    HW270018   2.483   2.909   2.458
56041SOL     OW70019  12.978   2.252   0.749
56041SOL    HW170020  12.940   2.234   0.835
56041SOL    HW270021  12.964   2.346   0.735
56042SOL     OW70022   5.402   8.718   7.857
56042SOL    HW170023   5.447   8.774   7.794
56042SOL    HW270024   5.366   8.778   7.922
56043SOL     OW70025   9.814   9.400   7.895
56043SOL    HW170026   9.894   9.394   7.947
56043SOL    HW270027   9.779   9.487   7.916
56044SOL     OW70028  12.409  13.351  13.542
56044SOL    HW170029  12.412  13.299  13.622
56044SOL    HW270030  12.490  13.331  13.496
56045SOL     OW70031   9.348   0.775   2.250
56045SOL    HW170032   9.341   0.839   2.322
56045SOL    HW270033   9.419   0.717   2.277
56046SOL     OW70034   0.003  11.913  10.502
56046SOL    HW170035   0.009  12.006  10.525
56046SOL    HW270036   0.094  11.883  10.498
56047SOL     OW70037  12.243   3.807   0.867
56047SOL    HW170038  12.256   3.713   0.855
56047SOL    HW270039  12.218   3.816   0.959
56048SOL     OW70040   6.434   7.085   3.103
56048SOL    HW170041   6.457   7.014   3.043
56048SOL    HW270042   6.371   7.047   3.163
56049SOL     OW70043   0.030   6.364   6.130
56049SOL    HW170044   0.007   6.433   6.193
56049SOL    HW270045   0.074   6.411   6.059
56050SOL     OW70046  10.304   3.041  10.553
56050SOL    HW170047  10.253   3.116  10.521
56050SOL    HW270048  10.394   3.061  10.528
56051SOL     OW70049   2.962  12.290   7.373
56051SOL    HW170050   2.952  12.195   7.364
56051SOL    HW270051   3.008  12.317   7.293
56052SOL     OW70052   6.758   7.575  12.735
56052SOL    HW170053   6.738   7.588  12.828
56052SOL    HW270054   6.685   7.524  12.701
56053SOL     OW70055   2.763   6.653  10.186
56053SOL    HW170056   2.810   6.595  10.247
56053SOL    HW270057   2.796   6.629  10.100
56054SOL     OW70058   0.793  11.196   5.235
56054SOL    HW170059   0.884  11.215   5.257
56054SOL    HW270060   0.768  11.267   5.174
56055SOL     OW70061   8.148   6.352   4.747
56055SOL    HW170062   8.171   6.260   4.755
56055SOL    HW270063   8.146   6.385   4.837
56056SOL     OW70064   9.187   9.062  14.286
56056SOL    HW170065   9.211   9.029  14.199
56056SOL    HW270066   9.251   9.131  14.304
56057SOL     OW70067   6.484  11.372  11.958
56057SOL    HW170068   6.568  11.413  11.981
56057SOL    HW270069   6.500  11.279  11.968
56058SOL     OW70070   7.787   8.641   2.461
56058SOL    HW170071   7.775   8.725   2.505
56058SOL    HW270072   7.809   8.663   2.371
56059SOL     OW70073  12.741   6.641  10.914
56059SOL    HW170074  12.783   6.717  10.955
56059SOL    HW270075  12.660   6.630  10.963
56060SOL     OW70076   5.456   6.183   9.041
56060SOL    HW170077   5.417   6.239   9.108
56060SOL    HW270078   5.415   6.097   9.055
56061SOL     OW70079   9.477   6.517  11.097
56061SOL    HW170080   9.461   6.564  11.179
56061SOL    HW270081   9.566   6.484  11.104
56062SOL     OW70082   9.851   1.650   2.910
56062SOL    HW170083   9.938   1.613   2.894
56062SOL    HW270084   9.815   1.598   2.981
56063SOL     OW70085   7.394   4.720  12.618
56063SOL    HW170086   7.406   4.632  12.582
56063SOL    HW270087   7.479   4.741  12.658
56064SOL     OW70088   0.273  12.784  12.215
56064SOL    HW170089   0.243  12.704  12.173
56064SOL    HW270090   0.300  12.841  12.142
56065SOL     OW70091   4.847   4.380   7.161
56065SOL    HW170092   4.809   4.336   7.085
56065SOL    HW270093   4.844   4.314   7.231
56066SOL     OW70094   8.793  11.715  13.853
56066SOL    HW170095   8.755  11.628  13.866
56066SOL    HW270096   8.795  11.727  13.758
56067SOL     OW70097   9.291   9.317  10.971
56067SOL    HW170098   9.209   9.336  10.926
56067SOL    HW270099   9.345   9.395  10.956
56068SOL     OW70100  12.858   1.676   5.855
56068SOL    HW170101  12.812   1.600   5.821
56068SOL    HW270102  12.935   1.639   5.898
56069SOL     OW70103  12.327  14.486  14.469
56069SOL    HW170104  12.306  14.524  14.554
56069SOL    HW270105  12.287  14.545  14.405
56070SOL     OW70106   5.611   5.662   5.463
56070SOL    HW170107   5.644   5.725   5.527
56070SOL    HW270108   5.544   5.613   5.510
56071SOL     OW70109   8.406   2.745  11.598
56071SOL    HW170110   8.464   2.792  11.538
56071SOL    HW270111   8.398   2.657  11.561
56072SOL     OW70112  13.327  12.586   3.840
56072SOL    HW170113  13.321  12.566   3.746
56072SOL    HW270114  13.268  12.660   3.852
56073SOL     OW70115   1.325   2.950  14.708
56073SOL    HW170116   1.391   2.899  14.660
56073SOL    HW270117   1.373   3.027  14.741
56074SOL     OW70118  11.370  11.448   4.890
56074SOL    HW170119  11.440  11.439   4.953
56074SOL    HW270120  11.335  11.359   4.880
56075SOL     OW70121   0.843   8.755   3.106
56075SOL    HW170122   0.898   8.742   3.029
56075SOL    HW270123   0.820   8.847   3.104
56076SOL     OW70124   2.955  13.932  11.416
56076SOL    HW170125   2.941  14.027  11.420
56076SOL    HW270126   2.877  13.898  11.371
56077SOL     OW70127   1.655   0.626   7.385
56077SOL    HW170128   1.731   0.678   7.356
56077SOL    HW270129   1.624   0.583   7.305
56078SOL     OW70130   8.321   0.750  13.253
56078SOL    HW170131   8.230   0.761  13.281
56078SOL    HW270132   8.364   0.831  13.280
56079SOL     OW70133   1.687  14.197   4.360
56079SOL    HW170134   1.778  14.212   4.387
56079SOL    HW270135   1.693  14.184   4.265
56080SOL     OW70136   5.179   8.061   1.365
56080SOL    HW170137   5.177   8.057   1.269
56080SOL    HW270138   5.238   8.134   1.385
56081SOL     OW70139   5.172   3.628  12.992
56081SOL    HW170140   5.117   3.598  13.065
56081SOL    HW270141   5.250   3.665  13.035
56082SOL     OW70142   5.212   4.617   7.280
56082SOL    HW170143   5.198   4.527   7.252
56082SOL    HW270144   5.242   4.610   7.370
56083SOL     OW70145   4.993   5.524  13.503
56083SOL    HW170146   4.899   5.518  13.517
56083SOL    HW270147   5.006   5.499  13.412
56084SOL     OW70148  11.889   7.282  13.554
56084SOL    HW170149  11.797   7.266  13.579
56084SOL    HW270150  11.906   7.217  13.486
56085SOL     OW70151   7.857   5.970   5.724
56085SOL    HW170152   7.896   6.020   5.652
56085SOL    HW270153   7.846   5.882   5.688
56086SOL     OW70154   0.255   5.221  10.556
56086SOL    HW170155   0.267   5.153  10.623
56086SOL    HW270156   0.200   5.287  10.599
56087SOL     OW70157   9.783   7.041   4.126
56087SOL    HW170158   9.773   6.951   4.158
56087SOL    HW270159   9.834   7.085   4.194
56088SOL     OW70160   0.913   5.791   2.174
56088SOL    HW170161   0.869   5.866   2.213
56088SOL    HW270162   0.923   5.728   2.245
56089SOL     OW70163  10.814  13.172   4.989
56089SOL    HW170164  10.808  13.091   5.039
56089SOL    HW270165  10.904  13.203   5.005
56090SOL     OW70166   0.855   1.952   4.229
56090SOL    HW170167   0.926   1.952   4.164
56090SOL    HW270168   0.780   1.916   4.182
56091SOL     OW70169   9.681  13.061  13.882
56091SOL    HW170170   9.757  13.027  13.929
56091SOL    HW270171   9.617  13.079  13.951
56092SOL     OW70172   3.938   5.086   3.635
56092SOL    HW170173   4.008   5.149   3.618
56092SOL    HW270174   3.980   5.001   3.627
56093SOL     OW70175   4.150   1.469   9.225
56093SOL    HW170176   4.105   1.428   9.299
56093SOL    HW270177   4.236   1.429   9.223
56094SOL     OW70178   8.176   8.081   2.264
56094SOL    HW170179   8.142   8.109   2.179
56094SOL    HW270180   8.109   8.108   2.327
56095SOL     OW70181   3.766   3.845   3.385
56095SOL    HW170182   3.790   3.758   3.417
56095SOL    HW270183   3.689   3.868   3.436
56096SOL     OW70184   5.224   0.107  12.744
56096SOL    HW170185   5.132   0.101  12.771
56096SOL    HW270186   5.256   0.017  12.746
56097SOL     OW70187   9.878   9.343  12.676
56097SOL    HW170188   9.803   9.327  12.620
56097SOL    HW270189   9.943   9.384  12.618
56098SOL     OW70190  13.306   5.891   3.326
56098SOL    HW170191  13.275   5.933   3.246
56098SOL    HW270192  13.226   5.858   3.368
56099SOL     OW70193   7.962   3.470  12.580
56099SOL    HW170194   7.901   3.437  12.514
56099SOL    HW270195   8.012   3.539  12.536
56100SOL     OW70196   7.882   9.935  12.543
56100SOL    HW170197   7.877   9.844  12.573
56100SOL    HW270198   7.833   9.985  12.609
56101SOL     OW70199  13.697   4.268   6.236
56101SOL    HW170200  13.675   4.354   6.201
56101SOL    HW270201  13.641   4.258   6.313
56102SOL     OW70202  13.908   5.830   1.628
56102SOL    HW170203  13.922   5.743   1.593
56102SOL    HW270204  13.844   5.871   1.569
56103SOL     OW70205   9.670   5.482  11.121
56103SOL    HW170206   9.593   5.480  11.177
56103SOL    HW270207   9.688   5.575  11.108
56104SOL     OW70208   3.311   8.195   1.083
56104SOL    HW170209   3.400   8.180   1.052
56104SOL    HW270210   3.293   8.286   1.061
56105SOL     OW70211  14.054   4.873   6.374
56105SOL    HW170212  13.986   4.937   6.354
56105SOL    HW270213  14.048   4.860   6.468
56106SOL     OW70214   2.047   1.630   7.477
56106SOL    HW170215   2.115   1.577   7.518
56106SOL    HW270216   1.990   1.566   7.434
56107SOL     OW70217   7.277  10.524   9.797
56107SOL    HW170218   7.371  10.535   9.811
56107SOL    HW270219   7.237  10.544   9.882
56108SOL     OW70220   3.965  14.272   6.379
56108SOL    HW170221   3.908  14.285   6.304
56108SOL    HW270222   3.939  14.186   6.413
56109SOL     OW70223  12.581  10.866   6.524
56109SOL    HW170224  12.609  10.826   6.606
56109SOL    HW270225  12.656  10.856   6.466
56110SOL     OW70226   7.811  14.139   5.781
56110SOL    HW170227   7.738  14.194   5.752
56110SOL    HW270228   7.770  14.075   5.839
56111SOL     OW70229  11.256  11.650   5.031
56111SOL    HW170230  11.216  11.717   4.976
56111SOL    HW270231  11.290  11.585   4.970
56112SOL     OW70232   5.407   2.799   9.055
56112SOL    HW170233   5.490   2.845   9.058
56112SOL    HW270234   5.377   2.796   9.146
56113SOL     OW70235   6.858  12.261   7.365
56113SOL    HW170236   6.907  12.198   7.312
56113SOL    HW270237   6.773  12.220   7.378
56114SOL     OW70238  12.167   4.452   0.889
56114SOL    HW170239  12.247   4.447   0.836
56114SOL    HW270240  12.115   4.376   0.861
56115SOL     OW70241   4.044   5.958   2.182
56115SOL    HW170242   3.968   5.974   2.238
56115SOL    HW270243   4.118   5.995   2.230
56116SOL     OW70244  11.099  11.821   9.052
56116SOL    HW170245  11.138  11.902   9.084
56116SOL    HW270246  11.043  11.848   8.979
56117SOL     OW70247   1.001   3.130   3.280
56117SOL    HW170248   1.054   3.058   3.246
56117SOL    HW270249   0.914   3.116   3.241
56118SOL     OW70250   4.332  13.375   0.249
56118SOL    HW170251   4.402  13.357   0.311
56118SOL    HW270252   4.296  13.459   0.277
56119SOL     OW70253  13.579   8.530   0.891
56119SOL    HW170254  13.599   8.494   0.978
56119SOL    HW270255  13.567   8.453   0.835
56120SOL     OW70256   8.174   1.688   4.917
56120SOL    HW170257   8.213   1.604   4.942
56120SOL    HW270258   8.118   1.667   4.842
56121SOL     OW70259   4.262   4.542   7.199
56121SOL    HW170260   4.185   4.497   7.164
56121SOL    HW270261   4.239   4.559   7.290
56122SOL     OW70262  10.627  12.305  13.276
56122SOL    HW170263  10.698  12.350  13.231
56122SOL    HW270264  10.566  12.280  13.207
56123SOL     OW70265   9.728   9.366  12.264
56123SOL    HW170266   9.815   9.359  12.305
56123SOL    HW270267   9.746   9.405  12.179
56124SOL     OW70268   9.862  11.933   6.613
56124SOL    HW170269   9.869  12.028   6.606
56124SOL    HW270270   9.841  11.917   6.705
56125SOL     OW70271   8.318   5.470   9.751
56125SOL    HW170272   8.304   5.391   9.698
56125SOL    HW270273   8.353   5.534   9.690
56126SOL     OW70274   1.105   5.388  12.615
56126SOL    HW170275   1.177   5.445  12.640
56126SOL    HW270276   1.079   5.418  12.528
56127SOL     OW70277   6.449  13.290  11.528
56127SOL    HW170278   6.397  13.210  11.516
56127SOL    HW270279   6.484  13.282  11.617
56128SOL     OW70280  11.456   6.696   0.585
56128SOL    HW170281  11.443   6.621   0.643
56128SOL    HW270282  11.414   6.768   0.631
56129SOL     OW70283   9.964  11.520   8.514
56129SOL    HW170284  10.000  11.443   8.471
56129SOL    HW270285   9.990  11.593   8.457
56130SOL     OW70286   3.708  11.391   1.852
56130SOL    HW170287   3.700  11.464   1.914
56130SOL    HW270288   3.733  11.432   1.770
56131SOL     OW70289  14.171  13.343  13.785
56131SOL    HW170290  14.139  13.430  13.759
56131SOL    HW270291  14.170  13.292  13.704
56132SOL     OW70292   8.099   8.902   7.264
56132SOL    HW170293   8.090   8.912   7.169
56132SOL    HW270294   8.020   8.941   7.301
56133SOL     OW70295   8.965  13.582  13.460
56133SOL    HW170296   8.902  13.516  13.488
56133SOL    HW270297   8.954  13.587  13.365
56134SOL     OW70298  14.774  10.748   1.979
56134SOL    HW170299  14.737  10.786   1.900
56134SOL    HW270300  14.793  10.657   1.956
56135SOL     OW70301   3.015   5.796  13.303
56135SOL    HW170302   3.012   5.733  13.231
56135SOL    HW270303   3.002   5.742  13.381
56136SOL     OW70304   3.524   9.439   8.504
56136SOL    HW170305   3.440   9.416   8.467
56136SOL    HW270306   3.561   9.356   8.534
56137SOL     OW70307   6.861  11.746   2.253
56137SOL    HW170308   6.909  11.805   2.311
56137SOL    HW270309   6.776  11.788   2.240
56138SOL     OW70310   2.961  10.205   6.609
56138SOL    HW170311   2.876  10.228   6.646
56138SOL    HW270312   2.943  10.134   6.548
56139SOL     OW70313   2.282  13.740   1.091
56139SOL    HW170314   2.232  13.803   1.040
56139SOL    HW270315   2.340  13.698   1.027
56140SOL     OW70316   4.980   6.654   3.267
56140SOL    HW170317   5.021   6.568   3.261
56140SOL    HW270318   4.949   6.660   3.358
56141SOL     OW70319   0.542   5.696  11.012
56141SOL    HW170320   0.635   5.716  11.007
56141SOL    HW270321   0.533   5.638  11.087
56142SOL     OW70322   5.572   0.539  14.194
56142SOL    HW170323   5.577   0.444  14.206
56142SOL    HW270324   5.547   0.573  14.280
56143SOL     OW70325   5.404  10.756  10.691
56143SOL    HW170326   5.352  10.819  10.742
56143SOL    HW270327   5.343  10.721  10.626
56144SOL     OW70328   1.515  14.771   0.354
56144SOL    HW170329   1.569  14.832   0.403
56144SOL    HW270330   1.516  14.804   0.264
56145SOL     OW70331   0.897   0.643  14.853
56145SOL    HW170332   0.912   0.737  14.859
56145SOL    HW270333   0.807   0.631   0.001
56146SOL     OW70334  14.874  10.843   6.678
56146SOL    HW170335  14.881  10.936   6.700
56146SOL    HW270336  14.791  10.815   6.717
56147SOL     OW70337  13.623  13.493  14.723
56147SOL    HW170338  13.652  13.402  14.723
56147SOL    HW270339  13.529  13.488  14.706
56148SOL     OW70340  11.348  10.607   1.438
56148SOL    HW170341  11.289  10.671   1.478
56148SOL    HW270342  11.436  10.643   1.454
56149SOL     OW70343   4.116   4.221   0.996
56149SOL    HW170344   4.094   4.176   1.078
56149SOL    HW270345   4.162   4.155   0.944
56150SOL     OW70346   2.375   8.999   6.595
56150SOL    HW170347   2.314   8.946   6.645
56150SOL    HW270348   2.333   9.010   6.509
56151SOL     OW70349  13.334  13.346   6.352
56151SOL    HW170350  13.323  13.300   6.435
56151SOL    HW270351  13.394  13.418   6.372
56152SOL     OW70352   2.759  11.035  10.768
56152SOL    HW170353   2.776  10.948  10.731
56152SOL    HW270354   2.753  11.093  10.692
56153SOL     OW70355  10.329  10.195   2.309
56153SOL    HW170356  10.275  10.173   2.385
56153SOL    HW270357  10.419  10.190   2.342
56154SOL     OW70358   5.969   8.221  14.257
56154SOL    HW170359   5.902   8.194  14.195
56154SOL    HW270360   5.958   8.315  14.266
56155SOL     OW70361  13.038   1.728   6.900
56155SOL    HW170362  13.086   1.752   6.979
56155SOL    HW270363  13.017   1.635   6.911
56156SOL     OW70364   5.939  12.311   4.371
56156SOL    HW170365   5.919  12.298   4.464
56156SOL    HW270366   5.906  12.399   4.352
56157SOL     OW70367   7.178  12.089  11.137
56157SOL    HW170368   7.088  12.101  11.105
56157SOL    HW270369   7.190  11.994  11.138
56158SOL     OW70370  10.468   7.202   0.770
56158SOL    HW170371  10.462   7.177   0.678
56158SOL    HW270372  10.393   7.160   0.812
56159SOL     OW70373   5.217  11.742   7.013
56159SOL    HW170374   5.257  11.795   7.083
56159SOL    HW270375   5.292  11.706   6.966
56160SOL     OW70376   3.336   9.922   1.809
56160SOL    HW170377   3.337   9.994   1.747
56160SOL    HW270378   3.405   9.944   1.872
56161SOL     OW70379   8.151   9.336   2.817
56161SOL    HW170380   8.243   9.331   2.842
56161SOL    HW270381   8.116   9.250   2.840
56162SOL     OW70382  14.570   0.120   7.491
56162SOL    HW170383  14.503   0.168   7.539
56162SOL    HW270384  14.652   0.161   7.517
56163SOL     OW70385   5.727  11.494   7.369
56163SOL    HW170386   5.757  11.406   7.394
56163SOL    HW270387   5.806  11.547   7.369
56164SOL     OW70388  11.836   7.445  11.188
56164SOL    HW170389  11.869   7.497  11.115
56164SOL    HW270390  11.784   7.506  11.241
56165SOL     OW70391  14.693   4.099   2.339
56165SOL    HW170392  14.607   4.063   2.316
56165SOL    HW270393  14.720   4.148   2.261
56166SOL     OW70394   3.227   5.688   3.409
56166SOL    HW170395   3.266   5.713   3.325
56166SOL    HW270396   3.223   5.592   3.406
56167SOL     OW70397  11.952   8.884   8.578
56167SOL    HW170398  11.912   8.919   8.498
56167SOL    HW270399  11.932   8.949   8.646
56168SOL     OW70400   6.672   4.815   8.495
56168SOL    HW170401   6.623   4.841   8.418
56168SOL    HW270402   6.608   4.768   8.550
56169SOL     OW70403  13.254  13.632   9.459
56169SOL    HW170404  13.221  13.720   9.471
56169SOL    HW270405  13.287  13.630   9.370
56170SOL     OW70406   2.229   0.684  12.959
56170SOL    HW170407   2.142   0.704  12.927
56170SOL    HW270408   2.220   0.598  13.000
56171SOL     OW70409  11.701  11.803  10.633
56171SOL    HW170410  11.764  11.801  10.705
56171SOL    HW270411  11.746  11.848  10.562
56172SOL     OW70412   7.667   3.888   1.516
56172SOL    HW170413   7.733   3.956   1.500
56172SOL    HW270414   7.695   3.814   1.462
56173SOL     OW70415   9.136   1.228  13.321
56173SOL    HW170416   9.161   1.291  13.388
56173SOL    HW270417   9.102   1.153  13.371
56174SOL     OW70418   2.841  10.953  12.152
56174SOL    HW170419   2.804  11.041  12.165
56174SOL    HW270420   2.771  10.894  12.181
56175SOL     OW70421   3.135   9.011   4.642
56175SOL    HW170422   3.205   9.073   4.661
56175SOL    HW270423   3.059   9.046   4.688
56176SOL     OW70424   6.083   4.431   1.109
56176SOL    HW170425   6.075   4.419   1.014
56176SOL    HW270426   6.156   4.375   1.134
56177SOL     OW70427  10.511  12.196  11.215
56177SOL    HW170428  10.423  12.158  11.213
56177SOL    HW270429  10.529  12.209  11.308
56178SOL     OW70430  10.108   0.655  12.044
56178SOL    HW170431  10.088   0.563  12.059
56178SOL    HW270432  10.109   0.694  12.131
56179SOL     OW70433  10.386   3.567   8.572
56179SOL    HW170434  10.363   3.645   8.521
56179SOL    HW270435  10.323   3.568   8.645
56180SOL     OW70436   6.781   9.031  13.509
56180SOL    HW170437   6.853   9.018  13.570
56180SOL    HW270438   6.741   9.113  13.536
56181SOL     OW70439   7.149   2.957   5.515
56181SOL    HW170440   7.069   2.935   5.467
56181SOL    HW270441   7.220   2.937   5.454
56182SOL     OW70442   8.057  14.405  12.165
56182SOL    HW170443   7.971  14.445  12.153
56182SOL    HW270444   8.089  14.389  12.076
56183SOL     OW70445   3.933   3.095  11.893
56183SOL    HW170446   3.917   3.122  11.803
56183SOL    HW270447   3.906   3.170  11.946
56184SOL     OW70448   6.280   3.198  14.784
56184SOL    HW170449   6.305   3.252  14.858
56184SOL    HW270450   6.184   3.205  14.780
56185SOL     OW70451  13.478  14.360   3.134
56185SOL    HW170452  13.478  14.381   3.040
56185SOL    HW270453  13.397  14.399   3.167
56186SOL     OW70454   2.782   5.406   5.395
56186SOL    HW170455   2.761   5.317   5.422
56186SOL    HW270456   2.839   5.440   5.464
56187SOL     OW70457  12.742  12.624  13.315
56187SOL    HW170458  12.788  12.707  13.308
56187SOL    HW270459  12.704  12.610  13.228
56188SOL     OW70460  13.564  14.363   4.133
56188SOL    HW170461  13.613  14.346   4.214
56188SOL    HW270462  13.475  14.384   4.163
56189SOL     OW70463   8.179   4.248  12.280
56189SOL    HW170464   8.237   4.237  12.356
56189SOL    HW270465   8.204   4.178  12.220
56190SOL     OW70466  13.056   1.130  14.403
56190SOL    HW170467  13.005   1.092  14.331
56190SOL    HW270468  13.138   1.157  14.363
56191SOL     OW70469  10.676  12.443  12.863
56191SOL    HW170470  10.744  12.448  12.795
56191SOL    HW270471  10.596  12.468  12.817
56192SOL     OW70472   9.891  10.963  10.316
56192SOL    HW170473   9.919  10.933  10.230
56192SOL    HW270474   9.880  10.883  10.368
56193SOL     OW70475   3.630   8.369   2.401
56193SOL    HW170476   3.550   8.343   2.356
56193SOL    HW270477   3.697   8.368   2.332
56194SOL     OW70478   1.698  12.728   9.763
56194SOL    HW170479   1.607  12.747   9.787
56194SOL    HW270480   1.697  12.724   9.667
56195SOL     OW70481  13.815   8.538  13.976
56195SOL    HW170482  13.829   8.480  13.901
56195SOL    HW270483  13.789   8.480  14.047
56196SOL     OW70484  12.478  13.286   5.193
56196SOL    HW170485  12.444  13.354   5.250
56196SOL    HW270486  12.573  13.292   5.203
56197SOL     OW70487   4.243  12.036   8.462
56197SOL    HW170488   4.196  11.953   8.476
56197SOL    HW270489   4.182  12.103   8.494
56198SOL     OW70490  13.364   3.387  10.820
56198SOL    HW170491  13.285   3.364  10.869
56198SOL    HW270492  13.337   3.382  10.728
56199SOL     OW70493  12.663   1.831   1.257
56199SOL    HW170494  12.717   1.825   1.336
56199SOL    HW270495  12.725   1.815   1.185
56200SOL     OW70496  12.236   7.240   6.549
56200SOL    HW170497  12.168   7.184   6.511
56200SOL    HW270498  12.212   7.247   6.641
56201SOL     OW70499   1.660   4.391   1.005
56201SOL    HW170500   1.736   4.445   0.981
56201SOL    HW270501   1.615   4.375   0.922
56202SOL     OW70502   4.625   3.654   6.874
56202SOL    HW170503   4.593   3.569   6.904
56202SOL    HW270504   4.568   3.717   6.917
56203SOL     OW70505  11.751  13.661   1.238
56203SOL    HW170506  11.778  13.730   1.178
56203SOL    HW270507  11.790  13.686   1.322
56204SOL     OW70508   2.819   6.164   4.668
56204SOL    HW170509   2.776   6.244   4.637
56204SOL    HW270510   2.903   6.163   4.623
56205SOL     OW70511   4.377   9.821   5.107
56205SOL    HW170512   4.369   9.824   5.203
56205SOL    HW270513   4.342   9.735   5.083
56206SOL     OW70514   0.241   6.252   2.765
56206SOL    HW170515   0.195   6.240   2.848
56206SOL    HW270516   0.188   6.204   2.701
56207SOL     OW70517  10.082  12.932  11.431
56207SOL    HW170518  10.060  12.839  11.438
56207SOL    HW270519  10.112  12.943  11.341
56208SOL     OW70520  12.148  10.580   1.667
56208SOL    HW170521  12.062  10.614   1.643
56208SOL    HW270522  12.192  10.565   1.584
56209SOL     OW70523   8.595   6.404   3.019
56209SOL    HW170524   8.577   6.440   3.107
56209SOL    HW270525   8.629   6.479   2.970
56210SOL     OW70526  11.074   7.701   7.577
56210SOL    HW170527  11.103   7.621   7.622
56210SOL    HW270528  11.155   7.747   7.555
56211SOL     OW70529   8.445  13.784  14.293
56211SOL    HW170530   8.530  13.804  14.253
56211SOL    HW270531   8.449  13.689  14.310
56212SOL     OW70532   1.641   4.342   6.121
56212SOL    HW170533   1.650   4.386   6.206
56212SOL    HW270534   1.587   4.402   6.069
56213SOL     OW70535  11.592  11.384   5.096
56213SOL    HW170536  11.508  11.340   5.105
56213SOL    HW270537  11.657  11.320   5.127
56214SOL     OW70538   2.258   6.323   3.236
56214SOL    HW170539   2.182   6.363   3.195
56214SOL    HW270540   2.264   6.236   3.195
56215SOL     OW70541   1.991   4.227  12.907
56215SOL    HW170542   1.987   4.132  12.911
56215SOL    HW270543   1.925   4.257  12.969
56216SOL     OW70544   7.823   9.794   1.592
56216SOL    HW170545   7.875   9.851   1.535
56216SOL    HW270546   7.792   9.724   1.534
56217SOL     OW70547  10.433   3.984   1.370
56217SOL    HW170548  10.434   4.064   1.422
56217SOL    HW270549  10.473   3.918   1.427
56218SOL     OW70550   6.227   3.070   6.177
56218SOL    HW170551   6.226   3.110   6.264
56218SOL    HW270552   6.318   3.076   6.149
56219SOL     OW70553   5.877   6.664   7.466
56219SOL    HW170554   5.808   6.649   7.532
56219SOL    HW270555   5.839   6.730   7.407
56220SOL     OW70556   2.247  13.586   3.537
56220SOL    HW170557   2.152  13.576   3.542
56220SOL    HW270558   2.261  13.666   3.486
56221SOL     OW70559   1.582  11.659   3.655
56221SOL    HW170560   1.667  11.665   3.610
56221SOL    HW270561   1.573  11.567   3.677
56222SOL     OW70562   9.116  10.287   1.961
56222SOL    HW170563   9.206  10.318   1.966
56222SOL    HW270564   9.081  10.325   1.880
56223SOL     OW70565   2.455  14.253   2.797
56223SOL    HW170566   2.368  14.274   2.830
56223SOL    HW270567   2.493  14.196   2.864
56224SOL     OW70568  10.002   4.078  12.988
56224SOL    HW170569   9.973   4.163  12.954
56224SOL    HW270570  10.017   4.024  12.911
56225SOL     OW70571   3.047   4.352  11.833
56225SOL    HW170572   3.084   4.435  11.862
56225SOL    HW270573   2.953   4.369  11.828
56226SOL     OW70574   7.512   9.540   3.724
56226SOL    HW170575   7.504   9.523   3.818
56226SOL    HW270576   7.429   9.509   3.687
56227SOL     OW70577  10.126   0.484  14.188
56227SOL    HW170578  10.178   0.474  14.268
56227SOL    HW270579  10.163   0.420  14.127
56228SOL     OW70580   5.829  13.591   1.704
56228SOL    HW170581   5.765  13.615   1.637
56228SOL    HW270582   5.783  13.603   1.787
56229SOL     OW70583   4.320   2.983  12.628
56229SOL    HW170584   4.374   2.918  12.584
56229SOL    HW270585   4.237   2.982  12.581
56230SOL     OW70586  11.922  13.631   3.031
56230SOL    HW170587  11.997  13.671   3.075
56230SOL    HW270588  11.958  13.553   2.990
56231SOL     OW70589   3.679   7.259  11.773
56231SOL    HW170590   3.622   7.294  11.842
56231SOL    HW270591   3.688   7.332  11.711
56232SOL     OW70592  12.085  12.681   2.817
56232SOL    HW170593  12.075  12.761   2.766
56232SOL    HW270594  12.067  12.707   2.907
56233SOL     OW70595   6.519   7.995   0.307
56233SOL    HW170596   6.539   8.084   0.336
56233SOL    HW270597   6.589   7.941   0.343
56234SOL     OW70598   7.988   4.980   1.259
56234SOL    HW170599   8.007   4.992   1.166
56234SOL    HW270600   7.893   4.974   1.263
56235SOL     OW70601   2.486   3.016   6.338
56235SOL    HW170602   2.417   2.975   6.390
56235SOL    HW270603   2.537   2.943   6.304
56236SOL     OW70604  14.344   1.120  12.385
56236SOL    HW170605  14.303   1.051  12.437
56236SOL    HW270606  14.415   1.076  12.339
56237SOL     OW70607   0.320   3.299   5.261
56237SOL    HW170608   0.376   3.223   5.279
56237SOL    HW270609   0.252   3.266   5.203
56238SOL     OW70610  12.475   7.945   3.143
56238SOL    HW170611  12.483   8.039   3.159
56238SOL    HW270612  12.557   7.921   3.099
56239SOL     OW70613  10.357   1.868   6.666
56239SOL    HW170614  10.286   1.826   6.715
56239SOL    HW270615  10.355   1.824   6.581
56240SOL     OW70616  12.902  13.970   4.807
56240SOL    HW170617  12.908  14.006   4.718
56240SOL    HW270618  12.875  14.044   4.861
56241SOL     OW70619   4.677   6.553   3.820
56241SOL    HW170620   4.615   6.539   3.748
56241SOL    HW270621   4.622   6.571   3.896
56242SOL     OW70622   0.013  12.903   5.522
56242SOL    HW170623   0.077  12.973   5.533
56242SOL    HW270624   0.065  12.823   5.524
56243SOL     OW70625  10.953   5.280  10.189
56243SOL    HW170626  10.998   5.224  10.252
56243SOL    HW270627  11.023   5.324  10.141
56244SOL     OW70628   3.276   5.081  14.499
56244SOL    HW170629   3.273   5.024  14.576
56244SOL    HW270630   3.314   5.026  14.430
56245SOL     OW70631  11.259   7.733   0.058
56245SOL    HW170632  11.263   7.811   0.114
56245SOL    HW270633  11.345   7.692   0.068
56246SOL     OW70634   6.952   0.407   7.116
56246SOL    HW170635   7.048   0.397   7.113
56246SOL    HW270636   6.922   0.366   7.035
56247SOL     OW70637   4.777   7.016  11.859
56247SOL    HW170638   4.797   7.107  11.836
56247SOL    HW270639   4.722   6.984  11.787
56248SOL     OW70640   3.545   2.121   6.523
56248SOL    HW170641   3.638   2.137   6.509
56248SOL    HW270642   3.522   2.054   6.459
56249SOL     OW70643   3.934   2.552   4.815
56249SOL    HW170644   3.912   2.546   4.908
56249SOL    HW270645   3.879   2.622   4.781
56250SOL     OW70646   2.028  14.397  12.822
56250SOL    HW170647   2.074  14.346  12.890
56250SOL    HW270648   2.057  14.487  12.836
56251SOL     OW70649   0.557   7.610  13.719
56251SOL    HW170650   0.531   7.634  13.808
56251SOL    HW270651   0.648   7.583  13.726
56252SOL     OW70652  12.420  10.231  10.003
56252SOL    HW170653  12.510  10.200   9.992
56252SOL    HW270654  12.369  10.178   9.942
56253SOL     OW70655  11.562   0.292   2.942
56253SOL    HW170656  11.513   0.263   3.019
56253SOL    HW270657  11.504   0.352   2.897
56254SOL     OW70658   3.489  13.667   3.654
56254SOL    HW170659   3.455  13.592   3.703
56254SOL    HW270660   3.474  13.645   3.563
56255SOL     OW70661   5.758  12.594  10.133
56255SOL    HW170662   5.695  12.574  10.064
56255SOL    HW270663   5.739  12.529  10.201
56256SOL     OW70664  14.629  10.023   0.403
56256SOL    HW170665  14.706  10.006   0.458
56256SOL    HW270666  14.655  10.098   0.349
56257SOL     OW70667   3.127   7.665   8.986
56257SOL    HW170668   3.061   7.686   9.053
56257SOL    HW270669   3.096   7.709   8.907
56258SOL     OW70670   5.888   1.823   3.163
56258SOL    HW170671   5.956   1.758   3.148
56258SOL    HW270672   5.847   1.798   3.246
56259SOL     OW70673   4.490   3.589   3.533
56259SOL    HW170674   4.397   3.608   3.539
56259SOL    HW270675   4.497   3.497   3.559
56260SOL     OW70676   5.080  13.808  11.731
56260SOL    HW170677   5.164  13.772  11.758
56260SOL    HW270678   5.054  13.865  11.804
56261SOL     OW70679   9.805   6.283  10.660
56261SOL    HW170680   9.767   6.281  10.748
56261SOL    HW270681   9.898   6.301  10.675
56262SOL     OW70682   7.616  12.163   8.743
56262SOL    HW170683   7.679  12.235   8.739
56262SOL    HW270684   7.600  12.150   8.837
56263SOL     OW70685   8.898  11.953   9.509
56263SOL    HW170686   8.811  11.991   9.496
56263SOL    HW270687   8.927  11.929   9.421
56264SOL     OW70688  11.136   6.433   6.128
56264SOL    HW170689  11.161   6.525   6.136
56264SOL    HW270690  11.217   6.388   6.105
56265SOL     OW70691   5.455   2.189   0.355
56265SOL    HW170692   5.517   2.128   0.396
56265SOL    HW270693   5.434   2.148   0.271
56266SOL     OW70694  10.361   6.397   2.063
56266SOL    HW170695  10.296   6.328   2.072
56266SOL    HW270696  10.335   6.444   1.984
56267SOL     OW70697   8.970   6.526   3.225
56267SOL    HW170698   9.008   6.538   3.313
56267SOL    HW270699   8.992   6.435   3.203
56268SOL     OW70700   6.970  10.609  13.312
56268SOL    HW170701   6.995  10.657  13.233
56268SOL    HW270702   7.012  10.658  13.383
56269SOL     OW70703   9.665  11.695  11.252
56269SOL    HW170704   9.699  11.679  11.164
56269SOL    HW270705   9.586  11.641  11.257
56270SOL     OW70706   9.683  14.224   3.335
56270SOL    HW170707   9.668  14.316   3.314
56270SOL    HW270708   9.778  14.216   3.345
56271SOL     OW70709   5.454   3.910  11.602
56271SOL    HW170710   5.474   3.957  11.683
56271SOL    HW270711   5.535   3.863  11.580
56272SOL     OW70712   9.550   2.202   6.792
56272SOL    HW170713   9.553   2.208   6.888
56272SOL    HW270714   9.514   2.115   6.775
56273SOL     OW70715  10.040   9.431   5.842
56273SOL    HW170716  10.048   9.471   5.928
56273SOL    HW270717  10.108   9.363   5.840
56274SOL     OW70718  12.990  14.096   9.376
56274SOL    HW170719  12.999  14.191   9.384
56274SOL    HW270720  12.946  14.083   9.292
56275SOL     OW70721   4.310  14.035   8.963
56275SOL    HW170722   4.325  13.962   8.903
56275SOL    HW270723   4.390  14.041   9.014
56276SOL     OW70724   0.749   5.634  12.705
56276SOL    HW170725   0.770   5.571  12.636
56276SOL    HW270726   0.697   5.583  12.768
56277SOL     OW70727   9.692   2.449  11.036
56277SOL    HW170728   9.780   2.414  11.052
56277SOL    HW270729   9.678   2.436  10.942
56278SOL     OW70730   0.429  13.402  13.197
56278SOL    HW170731   0.336  13.403  13.172
56278SOL    HW270732   0.475  13.413  13.114
56279SOL     OW70733   1.141   4.984  10.378
56279SOL    HW170734   1.152   4.891  10.358
56279SOL    HW270735   1.228   5.013  10.406
56280SOL     OW70736   5.006   8.271  12.048
56280SOL    HW170737   5.059   8.288  12.126
56280SOL    HW270738   5.045   8.327  11.981
56281SOL     OW70739   2.544  10.521   4.187
56281SOL    HW170740   2.483  10.455   4.154
56281SOL    HW270741   2.543  10.510   4.282
56282SOL     OW70742  10.776   5.123   6.170
56282SOL    HW170743  10.700   5.171   6.205
56282SOL    HW270744  10.749   5.098   6.081
56283SOL     OW70745   8.420  10.043   7.338
56283SOL    HW170746   8.449  10.059   7.428
56283SOL    HW270747   8.480  10.094   7.283
56284SOL     OW70748   7.413  11.619   8.664
56284SOL    HW170749   7.323  11.627   8.696
56284SOL    HW270750   7.417  11.675   8.587
56285SOL     OW70751   9.048  14.310  12.505
56285SOL    HW170752   9.100  14.319  12.425
56285SOL    HW270753   8.998  14.229  12.492
56286SOL     OW70754   8.271   5.808   5.747
56286SOL    HW170755   8.234   5.851   5.670
56286SOL    HW270756   8.232   5.854   5.822
56287SOL     OW70757   0.509   2.880   5.656
56287SOL    HW170758   0.551   2.875   5.570
56287SOL    HW270759   0.447   2.806   5.657
56288SOL     OW70760   5.607   3.203   9.046
56288SOL    HW170761   5.622   3.231   8.956
56288SOL    HW270762   5.580   3.283   9.092
56289SOL     OW70763   8.698  14.266   0.462
56289SOL    HW170764   8.653  14.299   0.540
56289SOL    HW270765   8.791  14.286   0.478
56290SOL     OW70766   2.356   0.135  14.273
56290SOL    HW170767   2.349   0.141  14.369
56290SOL    HW270768   2.442   0.095  14.258
56291SOL     OW70769  13.417   5.275   6.495
56291SOL    HW170770  13.436   5.348   6.553
56291SOL    HW270771  13.422   5.313   6.407
56292SOL     OW70772  11.545   3.876   1.813
56292SOL    HW170773  11.569   3.875   1.906
56292SOL    HW270774  11.553   3.968   1.787
56293SOL     OW70775   1.846   9.637  13.586
56293SOL    HW170776   1.936   9.625  13.556
56293SOL    HW270777   1.814   9.548  13.602
56294SOL     OW70778  13.670  11.086  14.845
56294SOL    HW170779  13.710  11.172  14.859
56294SOL    HW270780  13.634  11.091  14.757
56295SOL     OW70781   3.640   4.997  11.318
56295SOL    HW170782   3.610   5.085  11.296
56295SOL    HW270783   3.728   4.991  11.280
56296SOL     OW70784  14.113  10.675   4.993
56296SOL    HW170785  14.124  10.683   4.899
56296SOL    HW270786  14.091  10.763   5.023
56297SOL     OW70787  13.679   3.909   0.046
56297SOL    HW170788  13.699   3.816   0.034
56297SOL    HW270789  13.615   3.910   0.118
56298SOL     OW70790   7.982   7.511   4.873
56298SOL    HW170791   8.000   7.589   4.925
56298SOL    HW270792   7.969   7.544   4.784
56299SOL     OW70793   9.162  12.815   5.957
56299SOL    HW170794   9.242  12.809   6.009
56299SOL    HW270795   9.151  12.909   5.939
56300SOL     OW70796   2.147  12.465  14.015
56300SOL    HW170797   2.237  12.467  14.048
56300SOL    HW270798   2.095  12.439  14.090
56301SOL     OW70799   8.138   2.732  10.172
56301SOL    HW170800   8.212   2.792  10.166
56301SOL    HW270801   8.178   2.645  10.177
56302SOL     OW70802   7.116  10.503   5.373
56302SOL    HW170803   7.023  10.507   5.351
56302SOL    HW270804   7.153  10.440   5.311
56303SOL     OW70805   4.253  10.185   2.342
56303SOL    HW170806   4.198  10.147   2.274
56303SOL    HW270807   4.197  10.248   2.386
56304SOL     OW70808  10.929   5.635   9.064
56304SOL    HW170809  10.939   5.560   9.006
56304SOL    HW270810  10.869   5.693   9.017
56305SOL     OW70811   3.596   9.481   1.542
56305SOL    HW170812   3.641   9.549   1.492
56305SOL    HW270813   3.661   9.453   1.607
56306SOL     OW70814   6.503   5.683  13.226
56306SOL    HW170815   6.442   5.753  13.202
56306SOL    HW270816   6.497   5.678  13.321
56307SOL     OW70817  11.517   5.526  10.356
56307SOL    HW170818  11.565   5.519  10.439
56307SOL    HW270819  11.427   5.542  10.382
56308SOL     OW70820   8.292   4.570   6.081
56308SOL    HW170821   8.246   4.498   6.038
56308SOL    HW270822   8.299   4.637   6.013
56309SOL     OW70823   2.975   1.566  13.619
56309SOL    HW170824   2.884   1.597  13.625
56309SOL    HW270825   2.967   1.471  13.607
56310SOL     OW70826  12.953  11.544  12.164
56310SOL    HW170827  12.921  11.600  12.094
56310SOL    HW270828  12.899  11.566  12.240
56311SOL     OW70829   0.275   3.738   8.511
56311SOL    HW170830   0.331   3.816   8.517
56311SOL    HW270831   0.242   3.740   8.421
56312SOL     OW70832   1.013  13.565   3.894
56312SOL    HW170833   0.958  13.605   3.962
56312SOL    HW270834   1.066  13.636   3.860
56313SOL     OW70835   0.038  12.141   3.800
56313SOL    HW170836  14.865  12.149   3.722
56313SOL    HW270837  14.864  12.097   3.864
56314SOL     OW70838   6.114   4.556   0.261
56314SOL    HW170839   6.020   4.538   0.252
56314SOL    HW270840   6.135   4.528   0.350
56315SOL     OW70841   4.375   7.198   7.871
56315SOL    HW170842   4.304   7.261   7.878
56315SOL    HW270843   4.382   7.181   7.777
56316SOL     OW70844   2.694  13.264  13.271
56316SOL    HW170845   2.760  13.272  13.340
56316SOL    HW270846   2.622  13.320  13.301
56317SOL     OW70847   4.089   9.225  11.518
56317SOL    HW170848   4.150   9.260  11.583
56317SOL    HW270849   4.108   9.131  11.516
56318SOL     OW70850   9.679   1.343   4.453
56318SOL    HW170851   9.595   1.379   4.480
56318SOL    HW270852   9.688   1.263   4.504
56319SOL     OW70853   9.022   7.678   7.739
56319SOL    HW170854   8.969   7.639   7.669
56319SOL    HW270855   9.071   7.748   7.696
56320SOL     OW70856   4.931   6.729   9.603
56320SOL    HW170857   4.919   6.647   9.651
56320SOL    HW270858   4.914   6.797   9.668
56321SOL     OW70859  12.019  12.230   8.444
56321SOL    HW170860  11.988  12.215   8.354
56321SOL    HW270861  12.064  12.315   8.439
56322SOL     OW70862  11.274   6.759   4.264
56322SOL    HW170863  11.297   6.848   4.236
56322SOL    HW270864  11.356   6.711   4.262
56323SOL     OW70865   4.784   9.332   7.970
56323SOL    HW170866   4.733   9.282   8.034
56323SOL    HW270867   4.829   9.266   7.917
56324SOL     OW70868   2.399  13.213  13.796
56324SOL    HW170869   2.477  13.267  13.786
56324SOL    HW270870   2.374  13.188  13.707
56325SOL     OW70871  14.719   9.235  12.873
56325SOL    HW170872  14.703   9.208  12.783
56325SOL    HW270873  14.678   9.322  12.879
56326SOL     OW70874  14.405  13.483   7.899
56326SOL    HW170875  14.313  13.482   7.928
56326SOL    HW270876  14.453  13.445   7.973
56327SOL     OW70877  12.933   0.259   2.067
56327SOL    HW170878  12.840   0.255   2.088
56327SOL    HW270879  12.938   0.316   1.991
56328SOL     OW70880   4.977   9.987   6.345
56328SOL    HW170881   5.030   9.961   6.420
56328SOL    HW270882   4.946   9.904   6.309
56329SOL     OW70883   7.749  11.381   2.905
56329SOL    HW170884   7.763  11.430   2.986
56329SOL    HW270885   7.837  11.358   2.876
56330SOL     OW70886   2.587  11.440   7.339
56330SOL    HW170887   2.613  11.480   7.421
56330SOL    HW270888   2.570  11.513   7.280
56331SOL     OW70889  12.117   2.681  10.233
56331SOL    HW170890  12.196   2.640  10.267
56331SOL    HW270891  12.112   2.652  10.142
56332SOL     OW70892  13.529   0.138   1.033
56332SOL    HW170893  13.549   0.150   1.126
56332SOL    HW270894  13.611   0.157   0.988
56333SOL     OW70895   2.047   1.744  13.524
56333SOL    HW170896   1.988   1.790  13.465
56333SOL    HW270897   2.082   1.811  13.581
56334SOL     OW70898   2.130  11.581   4.623
56334SOL    HW170899   2.160  11.493   4.600
56334SOL    HW270900   2.075  11.607   4.549
56335SOL     OW70901   5.670  13.550   7.388
56335SOL    HW170902   5.602  13.500   7.343
56335SOL    HW270903   5.624  13.626   7.423
56336SOL     OW70904   4.452   8.391  11.241
56336SOL    HW170905   4.479   8.322  11.179
56336SOL    HW270906   4.434   8.466  11.185
56337SOL     OW70907   2.441  14.042   7.759
56337SOL    HW170908   2.474  13.978   7.822
56337SOL    HW270909   2.375  13.995   7.709
56338SOL     OW70910   6.168   2.590   2.975
56338SOL    HW170911   6.162   2.494   2.973
56338SOL    HW270912   6.249   2.610   2.929
56339SOL     OW70913   7.853   3.060   5.274
56339SOL    HW170914   7.900   2.981   5.246
56339SOL    HW270915   7.919   3.129   5.268
56340SOL     OW70916   4.328  13.327  10.804
56340SOL    HW170917   4.351  13.238  10.777
56340SOL    HW270918   4.376  13.340  10.886
56341SOL     OW70919   2.680   4.936   5.960
56341SOL    HW170920   2.662   4.932   6.054
56341SOL    HW270921   2.611   4.993   5.925
56342SOL     OW70922   4.689   3.342   0.517
56342SOL    HW170923   4.658   3.251   0.514
56342SOL    HW270924   4.778   3.338   0.482
56343SOL     OW70925  12.000   9.612  11.643
56343SOL    HW170926  11.920   9.591  11.595
56343SOL    HW270927  11.994   9.561  11.724
56344SOL     OW70928  13.254   7.644  13.027
56344SOL    HW170929  13.350   7.641  13.022
56344SOL    HW270930  13.236   7.683  13.112
56345SOL     OW70931  10.219   5.496  13.279
56345SOL    HW170932  10.246   5.586  13.262
56345SOL    HW270933  10.275   5.443  13.223
56346SOL     OW70934  12.294   3.251   0.386
56346SOL    HW170935  12.242   3.176   0.415
56346SOL    HW270936  12.230   3.310   0.346
56347SOL     OW70937   3.253   9.998   4.084
56347SOL    HW170938   3.298   9.926   4.129
56347SOL    HW270939   3.265   9.979   3.991
56348SOL     OW70940  12.129  11.059   2.844
56348SOL    HW170941  12.152  11.058   2.937
56348SOL    HW270942  12.177  10.985   2.806
56349SOL     OW70943  12.669  12.779   5.147
56349SOL    HW170944  12.686  12.688   5.173
56349SOL    HW270945  12.647  12.773   5.054
56350SOL     OW70946   0.504   4.494   0.708
56350SOL    HW170947   0.562   4.471   0.636
56350SOL    HW270948   0.426   4.439   0.696
56351SOL     OW70949   9.337   6.916   1.353
56351SOL    HW170950   9.377   6.929   1.267
56351SOL    HW270951   9.404   6.944   1.415
56352SOL     OW70952   6.806   5.550   7.960
56352SOL    HW170953   6.890   5.585   7.990
56352SOL    HW270954   6.776   5.495   8.033
56353SOL     OW70955   7.665   2.337  11.724
56353SOL    HW170956   7.673   2.296  11.638
56353SOL    HW270957   7.635   2.267  11.782
56354SOL     OW70958  14.082   1.644  12.748
56354SOL    HW170959  14.040   1.724  12.715
56354SOL    HW270960  14.009   1.589  12.777
56355SOL     OW70961   7.632   8.590   1.716
56355SOL    HW170962   7.537   8.583   1.726
56355SOL    HW270963   7.660   8.501   1.694
56356SOL     OW70964   7.365   5.658   0.417
56356SOL    HW170965   7.356   5.748   0.450
56356SOL    HW270966   7.363   5.668   0.322
56357SOL     OW70967   9.917   5.866   5.036
56357SOL    HW170968   9.920   5.907   4.949
56357SOL    HW270969   9.838   5.812   5.034
56358SOL     OW70970   9.520   6.276  12.086
56358SOL    HW170971   9.566   6.192  12.095
56358SOL    HW270972   9.549   6.326  12.163
56359SOL     OW70973   4.233   9.201  10.012
56359SOL    HW170974   4.217   9.285   9.970
56359SOL    HW270975   4.246   9.140   9.939
56360SOL     OW70976   5.945  14.063  13.869
56360SOL    HW170977   6.019  14.123  13.874
56360SOL    HW270978   5.885  14.104  13.806
56361SOL     OW70979   4.226   0.408   7.310
56361SOL    HW170980   4.230   0.342   7.241
56361SOL    HW270981   4.273   0.483   7.274
56362SOL     OW70982  14.793   3.512  13.958
56362SOL    HW170983  14.712   3.500  13.909
56362SOL    HW270984  14.782   3.596  14.003
56363SOL     OW70985   1.534   2.261  13.416
56363SOL    HW170986   1.500   2.330  13.473
56363SOL    HW270987   1.511   2.180  13.460
56364SOL     OW70988  12.621  11.143   4.455
56364SOL    HW170989  12.635  11.237   4.468
56364SOL    HW270990  12.538  11.125   4.498
56365SOL     OW70991   1.339   0.341   4.525
56365SOL    HW170992   1.413   0.282   4.535
56365SOL    HW270993   1.284   0.324   4.601
56366SOL     OW70994   9.009   2.929   7.543
56366SOL    HW170995   9.087   2.877   7.527
56366SOL    HW270996   8.984   2.909   7.633
56367SOL     OW70997   7.543   5.775   5.746
56367SOL    HW170998   7.552   5.859   5.790
56367SOL    HW270999   7.596   5.715   5.799
56368SOL     OW71000   7.703   5.807   6.847
56368SOL    HW171001   7.673   5.797   6.938
56368SOL    HW271002   7.740   5.895   6.843
56369SOL     OW71003  14.665   7.372   8.701
56369SOL    HW171004  14.662   7.394   8.608
56369SOL    HW271005  14.755   7.392   8.727
56370SOL     OW71006  12.671   3.979   3.981
56370SOL    HW171007  12.675   3.897   4.030
56370SOL    HW271008  12.762   4.008   3.977
56371SOL     OW71009   1.232   4.986  11.861
56371SOL    HW171010   1.235   4.966  11.955
56371SOL    HW271011   1.142   5.014  11.846
56372SOL     OW71012   5.324   8.866   8.395
56372SOL    HW171013   5.413   8.872   8.361
56372SOL    HW271014   5.331   8.808   8.471
56373SOL     OW71015  12.399  13.842  14.310
56373SOL    HW171016  12.461  13.888  14.252
56373SOL    HW271017  12.429  13.863  14.398
56374SOL     OW71018   8.689   9.420  14.760
56374SOL    HW171019   8.638   9.401  14.838
56374SOL    HW271020   8.780   9.422  14.790
56375SOL     OW71021  14.665   5.421  13.125
56375SOL    HW171022  14.603   5.466  13.068
56375SOL    HW271023  14.749   5.463  13.107
56376SOL     OW71024  12.257   7.517  10.260
56376SOL    HW171025  12.229   7.578  10.328
56376SOL    HW271026  12.329   7.562  10.216
56377SOL     OW71027   7.226  11.221  13.717
56377SOL    HW171028   7.213  11.127  13.724
56377SOL    HW271029   7.203  11.255  13.804
56378SOL     OW71030   8.037  14.845  12.011
56378SOL    HW171031   8.054  14.801  12.094
56378SOL    HW271032   8.087  14.795  11.947
56379SOL     OW71033   6.035  12.909  14.154
56379SOL    HW171034   5.968  12.973  14.129
56379SOL    HW271035   5.986  12.838  14.195
56380SOL     OW71036   1.728  11.613   6.312
56380SOL    HW171037   1.657  11.557   6.282
56380SOL    HW271038   1.765  11.649   6.231
56381SOL     OW71039   5.542   2.226  10.505
56381SOL    HW171040   5.491   2.301  10.535
56381SOL    HW271041   5.631   2.245  10.532
56382SOL     OW71042   0.335  13.880   8.796
56382SOL    HW171043   0.300  13.855   8.881
56382SOL    HW271044   0.426  13.848   8.798
56383SOL     OW71045   2.223   7.150  14.228
56383SOL    HW171046   2.282   7.095  14.279
56383SOL    HW271047   2.150   7.167  14.286
56384SOL     OW71048   4.554  14.094   9.100
56384SOL    HW171049   4.621  14.096   9.031
56384SOL    HW271050   4.572  14.171   9.154
56385SOL     OW71051  11.015   1.760  10.114
56385SOL    HW171052  11.047   1.687  10.168
56385SOL    HW271053  11.035   1.838  10.166
56386SOL     OW71054   3.848   5.392   9.025
56386SOL    HW171055   3.840   5.305   9.064
56386SOL    HW271056   3.794   5.448   9.081
56387SOL     OW71057   6.175  11.803   0.415
56387SOL    HW171058   6.186  11.834   0.325
56387SOL    HW271059   6.207  11.876   0.469
56388SOL     OW71060  12.578   8.407   2.386
56388SOL    HW171061  12.507   8.452   2.433
56388SOL    HW271062  12.602   8.335   2.444
56389SOL     OW71063   4.176   4.193   2.721
56389SOL    HW171064   4.158   4.280   2.756
56389SOL    HW271065   4.157   4.134   2.793
56390SOL     OW71066   9.559   1.104   1.211
56390SOL    HW171067   9.488   1.115   1.148
56390SOL    HW271068   9.539   1.166   1.281
56391SOL     OW71069  13.433  10.140   5.891
56391SOL    HW171070  13.381  10.207   5.936
56391SOL    HW271071  13.414  10.154   5.798
56392SOL     OW71072   6.023  10.331   4.153
56392SOL    HW171073   5.950  10.310   4.095
56392SOL    HW271074   6.089  10.264   4.133
56393SOL     OW71075  13.436   8.911  14.436
56393SOL    HW171076  13.359   8.910  14.493
56393SOL    HW271077  13.425   8.989  14.381
56394SOL     OW71078   8.191  10.556   8.483
56394SOL    HW171079   8.256  10.491   8.509
56394SOL    HW271080   8.239  10.638   8.481
56395SOL     OW71081   5.332   0.162   7.173
56395SOL    HW171082   5.394   0.177   7.102
56395SOL    HW271083   5.379   0.190   7.252
56396SOL     OW71084  13.186   9.064   3.878
56396SOL    HW171085  13.106   9.025   3.842
56396SOL    HW271086  13.194   9.025   3.965
56397SOL     OW71087   1.194   7.720   7.869
56397SOL    HW171088   1.281   7.735   7.905
56397SOL    HW271089   1.209   7.706   7.775
56398SOL     OW71090   0.670  12.104   1.238
56398SOL    HW171091   0.666  12.198   1.257
56398SOL    HW271092   0.724  12.068   1.308
56399SOL     OW71093   9.153   1.777   4.536
56399SOL    HW171094   9.155   1.705   4.473
56399SOL    HW271095   9.090   1.749   4.603
56400SOL     OW71096   7.469   4.461   6.761
56400SOL    HW171097   7.561   4.440   6.777
56400SOL    HW271098   7.423   4.427   6.837
56401SOL     OW71099  11.383   9.467   6.898
56401SOL    HW171100  11.380   9.440   6.990
56401SOL    HW271101  11.459   9.422   6.862
56402SOL     OW71102   9.549  14.391  13.327
56402SOL    HW171103   9.468  14.348  13.354
56402SOL    HW271104   9.534  14.415  13.235
56403SOL     OW71105  13.580   8.994   3.102
56403SOL    HW171106  13.600   9.036   3.018
56403SOL    HW271107  13.617   8.906   3.095
56404SOL     OW71108  12.610   1.797  12.636
56404SOL    HW171109  12.515   1.797  12.621
56404SOL    HW271110  12.623   1.856  12.710
56405SOL     OW71111  12.556  13.817   9.602
56405SOL    HW171112  12.624  13.810   9.536
56405SOL    HW271113  12.566  13.738   9.656
56406SOL     OW71114   8.930  14.193   6.033
56406SOL    HW171115   8.915  14.225   5.944
56406SOL    HW271116   8.920  14.270   6.088
56407SOL     OW71117  12.836  11.394   1.693
56407SOL    HW171118  12.812  11.306   1.663
56407SOL    HW271119  12.925  11.383   1.727
56408SOL     OW71120   5.873   3.842   1.994
56408SOL    HW171121   5.912   3.903   2.056
56408SOL    HW271122   5.799   3.889   1.957
56409SOL     OW71123   9.395   2.180   8.890
56409SOL    HW171124   9.327   2.217   8.833
56409SOL    HW271125   9.414   2.249   8.953
56410SOL     OW71126  11.086   8.461   2.104
56410SOL    HW171127  11.106   8.459   2.011
56410SOL    HW271128  11.155   8.515   2.142
56411SOL     OW71129   6.032   4.978   9.435
56411SOL    HW171130   6.064   5.016   9.354
56411SOL    HW271131   6.039   5.049   9.499
56412SOL     OW71132  13.504   2.280   6.976
56412SOL    HW171133  13.435   2.229   7.020
56412SOL    HW271134  13.551   2.215   6.924
56413SOL     OW71135   1.069   6.654   1.484
56413SOL    HW171136   0.978   6.650   1.513
56413SOL    HW271137   1.070   6.722   1.416
56414SOL     OW71138   9.862   7.367  11.734
56414SOL    HW171139   9.782   7.377  11.785
56414SOL    HW271140   9.906   7.291  11.772
56415SOL     OW71141   1.962   7.342  14.348
56415SOL    HW171142   1.893   7.335  14.282
56415SOL    HW271143   2.010   7.421  14.325
56416SOL     OW71144   7.362   8.563   4.874
56416SOL    HW171145   7.269   8.542   4.870
56416SOL    HW271146   7.371   8.644   4.823
56417SOL     OW71147  14.703   5.396   1.857
56417SOL    HW171148  14.730   5.405   1.765
56417SOL    HW271149  14.610   5.373   1.852
56418SOL     OW71150  11.847   2.267   3.297
56418SOL    HW171151  11.806   2.352   3.311
56418SOL    HW271152  11.940   2.282   3.310
56419SOL     OW71153   2.568  12.485   0.803
56419SOL    HW171154   2.495  12.547   0.803
56419SOL    HW271155   2.630  12.521   0.739
56420SOL     OW71156   9.647   4.792   4.405
56420SOL    HW171157   9.741   4.801   4.386
56420SOL    HW271158   9.622   4.711   4.359
56421SOL     OW71159   4.661  13.899  10.584
56421SOL    HW171160   4.619  13.813  10.593
56421SOL    HW271161   4.603  13.948  10.526
56422SOL     OW71162  11.637  10.665   4.163
56422SOL    HW171163  11.673  10.605   4.098
56422SOL    HW271164  11.664  10.752   4.132
56423SOL     OW71165   1.256   9.952   4.178
56423SOL    HW171166   1.188   9.899   4.136
56423SOL    HW271167   1.283   9.901   4.255
56424SOL     OW71168   3.145  14.267   2.931
56424SOL    HW171169   3.153  14.343   2.989
56424SOL    HW271170   3.148  14.191   2.989
56425SOL     OW71171   6.121   7.054   5.364
56425SOL    HW171172   6.133   7.095   5.450
56425SOL    HW271173   6.027   7.036   5.360
56426SOL     OW71174   9.735  11.331   0.559
56426SOL    HW171175   9.758  11.377   0.478
56426SOL    HW271176   9.641  11.347   0.569
56427SOL     OW71177   3.373   5.902  14.303
56427SOL    HW171178   3.326   5.844  14.363
56427SOL    HW271179   3.387   5.983  14.353
56428SOL     OW71180   0.459   7.554  14.183
56428SOL    HW171181   0.459   7.515  14.095
56428SOL    HW271182   0.492   7.643  14.170
56429SOL     OW71183  10.638   0.438   8.022
56429SOL    HW171184  10.683   0.481   7.949
56429SOL    HW271185  10.678   0.476   8.100
56430SOL     OW71186  12.037   5.458   1.135
56430SOL    HW171187  11.993   5.542   1.148
56430SOL    HW271188  12.014   5.433   1.045
56431SOL     OW71189  12.084   1.413  13.175
56431SOL    HW171190  12.113   1.456  13.255
56431SOL    HW271191  12.064   1.485  13.115
56432SOL     OW71192   9.624   2.999  14.549
56432SOL    HW171193   9.715   2.996  14.519
56432SOL    HW271194   9.609   2.913  14.588
56433SOL     OW71195   2.456  11.789   8.677
56433SOL    HW171196   2.380  11.750   8.632
56433SOL    HW271197   2.421  11.868   8.718
56434SOL     OW71198  13.998  12.077   4.981
56434SOL    HW171199  14.058  12.070   5.056
56434SOL    HW271200  14.039  12.023   4.913
56435SOL     OW71201   6.579   4.467  14.387
56435SOL    HW171202   6.533   4.441  14.467
56435SOL    HW271203   6.515   4.518  14.338
56436SOL     OW71204   6.848  13.582   2.648
56436SOL    HW171205   6.859  13.636   2.727
56436SOL    HW271206   6.851  13.492   2.680
56437SOL     OW71207   1.161  11.673   4.452
56437SOL    HW171208   1.167  11.584   4.419
56437SOL    HW271209   1.249  11.708   4.443
56438SOL     OW71210   8.409   5.812   7.533
56438SOL    HW171211   8.317   5.800   7.511
56438SOL    HW271212   8.429   5.739   7.592
56439SOL     OW71213   5.890   4.619   5.903
56439SOL    HW171214   5.809   4.584   5.865
56439SOL    HW271215   5.922   4.682   5.838
56440SOL     OW71216   2.663  11.980   8.599
56440SOL    HW171217   2.602  11.909   8.580
56440SOL    HW271218   2.713  11.950   8.675
56441SOL     OW71219  13.446   4.139  14.355
56441SOL    HW171220  13.426   4.176  14.269
56441SOL    HW271221  13.363   4.099  14.383
56442SOL     OW71222   2.354   8.315   8.975
56442SOL    HW171223   2.320   8.257   8.907
56442SOL    HW271224   2.404   8.258   9.033
56443SOL     OW71225   8.335   3.723  13.206
56443SOL    HW171226   8.378   3.730  13.291
56443SOL    HW271227   8.241   3.731  13.225
56444SOL     OW71228  12.601   8.261   6.812
56444SOL    HW171229  12.576   8.320   6.883
56444SOL    HW271230  12.688   8.290   6.786
56445SOL     OW71231   6.569   5.929  14.402
56445SOL    HW171232   6.650   5.908  14.355
56445SOL    HW271233   6.526   5.844  14.414
56446SOL     OW71234   9.919   5.279   0.648
56446SOL    HW171235   9.841   5.332   0.627
56446SOL    HW271236   9.887   5.212   0.708
56447SOL     OW71237  14.126   9.376  14.098
56447SOL    HW171238  14.150   9.342  14.012
56447SOL    HW271239  14.038   9.341  14.114
56448SOL     OW71240   9.436   4.245   7.859
56448SOL    HW171241   9.387   4.312   7.906
56448SOL    HW271242   9.502   4.294   7.810
56449SOL     OW71243  13.302  14.674   7.253
56449SOL    HW171244  13.264  14.586   7.260
56449SOL    HW271245  13.319  14.685   7.159
56450SOL     OW71246   8.458   1.575   0.495
56450SOL    HW171247   8.445   1.653   0.548
56450SOL    HW271248   8.451   1.605   0.405
56451SOL     OW71249  10.180   3.608   5.395
56451SOL    HW171250  10.253   3.546   5.396
56451SOL    HW271251  10.178   3.641   5.305
56452SOL     OW71252  13.158   4.563   1.529
56452SOL    HW171253  13.090   4.496   1.515
56452SOL    HW271254  13.198   4.540   1.613
56453SOL     OW71255   8.535   0.962   0.163
56453SOL    HW171256   8.580   1.020   0.102
56453SOL    HW271257   8.530   1.011   0.245
56454SOL     OW71258   9.657   2.571   7.332
56454SOL    HW171259   9.654   2.658   7.292
56454SOL    HW271260   9.721   2.523   7.280
56455SOL     OW71261  10.668   5.949   0.045
56455SOL    HW171262  10.707   6.019  14.874
56455SOL    HW271263  10.606   5.994   0.102
56456SOL     OW71264   5.291   4.438   2.934
56456SOL    HW171265   5.302   4.512   2.995
56456SOL    HW271266   5.301   4.360   2.989
56457SOL     OW71267   0.275   3.915  10.592
56457SOL    HW171268   0.287   3.858  10.668
56457SOL    HW271269   0.207   3.871  10.541
56458SOL     OW71270  10.653  10.818   0.003
56458SOL    HW171271  10.611  10.746   0.049
56458SOL    HW271272  10.581  10.877  14.863
56459SOL     OW71273  12.524   5.786  12.058
56459SOL    HW171274  12.519   5.839  11.978
56459SOL    HW271275  12.493   5.700  12.031
56460SOL     OW71276   8.570  12.181  10.920
56460SOL    HW171277   8.580  12.236  10.842
56460SOL    HW271278   8.597  12.094  10.891
56461SOL     OW71279  10.000   6.047   3.996
56461SOL    HW171280   9.916   6.078   3.963
56461SOL    HW271281  10.061   6.063   3.925
56462SOL     OW71282   9.061   7.524  11.911
56462SOL    HW171283   9.151   7.552  11.896
56462SOL    HW271284   9.024   7.592  11.968
56463SOL     OW71285  10.858   6.514   8.200
56463SOL    HW171286  10.796   6.513   8.127
56463SOL    HW271287  10.855   6.426   8.236
56464SOL     OW71288   5.973   6.940   5.957
56464SOL    HW171289   5.891   6.969   5.998
56464SOL    HW271290   6.012   7.020   5.922
56465SOL     OW71291  13.995   6.215   3.266
56465SOL    HW171292  14.043   6.293   3.237
56465SOL    HW271293  14.056   6.170   3.325
56466SOL     OW71294   3.878  13.058   8.801
56466SOL    HW171295   3.803  13.018   8.757
56466SOL    HW271296   3.930  12.983   8.832
56467SOL     OW71297   8.677   0.104   0.072
56467SOL    HW171298   8.692   0.092  14.861
56467SOL    HW271299   8.720   0.187   0.093
56468SOL     OW71300  12.594   8.309  12.160
56468SOL    HW171301  12.568   8.300  12.252
56468SOL    HW271302  12.537   8.377  12.125
56469SOL     OW71303   2.783   8.481   0.280
56469SOL    HW171304   2.762   8.388   0.278
56469SOL    HW271305   2.841   8.491   0.355
56470SOL     OW71306   2.001   7.565  11.411
56470SOL    HW171307   2.060   7.636  11.436
56470SOL    HW271308   1.977   7.584  11.320
56471SOL     OW71309  14.654   7.762   1.131
56471SOL    HW171310  14.652   7.856   1.144
56471SOL    HW271311  14.695   7.750   1.046
56472SOL     OW71312   4.941   8.879   4.800
56472SOL    HW171313   4.905   8.816   4.737
56472SOL    HW271314   4.865   8.924   4.835
56473SOL     OW71315  11.210   3.508   5.182
56473SOL    HW171316  11.165   3.566   5.121
56473SOL    HW271317  11.259   3.567   5.240
56474SOL     OW71318   7.848  13.878   0.796
56474SOL    HW171319   7.820  13.967   0.771
56474SOL    HW271320   7.786  13.820   0.751
56475SOL     OW71321   9.703  10.968   6.473
56475SOL    HW171322   9.678  11.047   6.520
56475SOL    HW271323   9.622  10.936   6.434
56476SOL     OW71324   5.677   3.750   7.694
56476SOL    HW171325   5.735   3.705   7.632
56476SOL    HW271326   5.662   3.686   7.763
56477SOL     OW71327   3.947   2.952   7.244
56477SOL    HW171328   4.010   2.936   7.314
56477SOL    HW271329   3.997   2.941   7.163
56478SOL     OW71330   7.514  10.755   3.887
56478SOL    HW171331   7.569  10.718   3.955
56478SOL    HW271332   7.432  10.777   3.931
56479SOL     OW71333   6.929  10.391   0.589
56479SOL    HW171334   6.980  10.417   0.513
56479SOL    HW271335   6.839  10.418   0.569
56480SOL     OW71336  12.476   8.543  12.071
56480SOL    HW171337  12.442   8.587  12.148
56480SOL    HW271338  12.503   8.614  12.013
56481SOL     OW71339   6.497   1.770  10.044
56481SOL    HW171340   6.519   1.685  10.083
56481SOL    HW271341   6.497   1.831  10.117
56482SOL     OW71342   5.633  11.161   4.507
56482SOL    HW171343   5.633  11.073   4.471
56482SOL    HW271344   5.709  11.164   4.564
56483SOL     OW71345   4.672   7.211   5.599
56483SOL    HW171346   4.610   7.257   5.654
56483SOL    HW271347   4.735   7.172   5.660
56484SOL     OW71348  12.223   7.533   0.510
56484SOL    HW171349  12.173   7.501   0.434
56484SOL    HW271350  12.208   7.467   0.577
56485SOL     OW71351  14.839   7.433  13.550
56485SOL    HW171352  14.788   7.362  13.590
56485SOL    HW271353   0.048   7.410  13.566
56486SOL     OW71354   1.660   9.923  10.874
56486SOL    HW171355   1.565   9.909  10.872
56486SOL    HW271356   1.678   9.955  10.963
56487SOL     OW71357   1.669   5.627   2.114
56487SOL    HW171358   1.660   5.630   2.018
56487SOL    HW271359   1.605   5.561   2.141
56488SOL     OW71360   3.214  12.533  13.840
56488SOL    HW171361   3.164  12.479  13.778
56488SOL    HW271362   3.176  12.512  13.925
56489SOL     OW71363   1.572   5.196  13.238
56489SOL    HW171364   1.551   5.155  13.154
56489SOL    HW271365   1.579   5.122  13.299
56490SOL     OW71366   8.447   3.038   1.224
56490SOL    HW171367   8.423   3.077   1.140
56490SOL    HW271368   8.373   2.982   1.247
56491SOL     OW71369  10.328   8.394   8.884
56491SOL    HW171370  10.237   8.381   8.911
56491SOL    HW271371  10.377   8.324   8.928
56492SOL     OW71372   1.063  13.396  11.161
56492SOL    HW171373   1.128  13.435  11.219
56492SOL    HW271374   0.993  13.461  11.155
56493SOL     OW71375   6.471   5.353   9.119
56493SOL    HW171376   6.463   5.257   9.123
56493SOL    HW271377   6.441   5.383   9.205
56494SOL     OW71378   7.224   1.462   7.764
56494SOL    HW171379   7.296   1.516   7.730
56494SOL    HW271380   7.264   1.376   7.779
56495SOL     OW71381   7.263  12.254  10.379
56495SOL    HW171382   7.305  12.231  10.462
56495SOL    HW271383   7.234  12.170  10.343
56496SOL     OW71384  11.555  11.788   4.818
56496SOL    HW171385  11.621  11.810   4.753
56496SOL    HW271386  11.602  11.789   4.901
56497SOL     OW71387  11.361   3.291   8.649
56497SOL    HW171388  11.283   3.266   8.698
56497SOL    HW271389  11.395   3.209   8.614
56498SOL     OW71390   9.077   2.276   2.158
56498SOL    HW171391   9.073   2.370   2.141
56498SOL    HW271392   9.132   2.268   2.236
56499SOL     OW71393   8.933   7.721   1.638
56499SOL    HW171394   8.950   7.809   1.672
56499SOL    HW271395   8.859   7.732   1.579
56500SOL     OW71396   6.681   7.690  10.439
56500SOL    HW171397   6.744   7.666  10.506
56500SOL    HW271398   6.722   7.663  10.357
56501SOL     OW71399   0.358  14.588  14.492
56501SOL    HW171400   0.437  14.586  14.439
56501SOL    HW271401   0.357  14.676  14.529
56502SOL     OW71402   1.091  14.601   8.893
56502SOL    HW171403   1.096  14.507   8.878
56502SOL    HW271404   1.090  14.639   8.806
56503SOL     OW71405   1.224  14.054   1.938
56503SOL    HW171406   1.301  14.061   1.995
56503SOL    HW271407   1.229  14.131   1.882
56504SOL     OW71408  12.729  11.136   9.304
56504SOL    HW171409  12.654  11.105   9.354
56504SOL    HW271410  12.690  11.184   9.230
56505SOL     OW71411  14.496   6.317   1.168
56505SOL    HW171412  14.425   6.301   1.106
56505SOL    HW271413  14.462   6.383   1.228
56506SOL     OW71414   1.763  11.207   4.206
56506SOL    HW171415   1.720  11.149   4.143
56506SOL    HW271416   1.851  11.217   4.171
56507SOL     OW71417   0.783  11.682   2.278
56507SOL    HW171418   0.710  11.713   2.330
56507SOL    HW271419   0.805  11.755   2.220
56508SOL     OW71420   6.490   2.256   0.443
56508SOL    HW171421   6.544   2.280   0.368
56508SOL    HW271422   6.505   2.162   0.454
56509SOL     OW71423   1.486   4.345  10.324
56509SOL    HW171424   1.416   4.311  10.268
56509SOL    HW271425   1.484   4.288  10.401
56510SOL     OW71426   7.344   9.123  11.087
56510SOL    HW171427   7.331   9.212  11.056
56510SOL    HW271428   7.437   9.118  11.109
56511SOL     OW71429   3.837   0.491  11.986
56511SOL    HW171430   3.851   0.581  11.955
56511SOL    HW271431   3.749   0.494  12.025
56512SOL     OW71432   9.996   6.821  11.108
56512SOL    HW171433   9.915   6.868  11.085
56512SOL    HW271434   9.968   6.732  11.128
56513SOL     OW71435   2.275   1.862  12.111
56513SOL    HW171436   2.224   1.838  12.034
56513SOL    HW271437   2.275   1.783  12.166
56514SOL     OW71438   0.864   8.262   8.968
56514SOL    HW171439   0.821   8.190   9.016
56514SOL    HW271440   0.939   8.220   8.926
56515SOL     OW71441  10.970   9.728   3.462
56515SOL    HW171442  10.983   9.763   3.550
56515SOL    HW271443  10.984   9.633   3.472
56516SOL     OW71444  11.784   0.886   0.032
56516SOL    HW171445  11.695   0.910   0.006
56516SOL    HW271446  11.797   0.929   0.117
56517SOL     OW71447  11.836  10.968   0.367
56517SOL    HW171448  11.816  11.021   0.290
56517SOL    HW271449  11.883  11.027   0.426
56518SOL     OW71450   7.125  13.716  12.781
56518SOL    HW171451   7.039  13.705  12.742
56518SOL    HW271452   7.116  13.792  12.839
56519SOL     OW71453  12.682   3.078  13.474
56519SOL    HW171454  12.742   3.129  13.420
56519SOL    HW271455  12.611   3.052  13.415
56520SOL     OW71456   6.696   3.358   3.642
56520SOL    HW171457   6.786   3.373   3.670
56520SOL    HW271458   6.701   3.284   3.582
56521SOL     OW71459   9.001   1.089   2.983
56521SOL    HW171460   8.909   1.105   3.002
56521SOL    HW271461   9.035   1.044   3.060
56522SOL     OW71462  13.037   6.368   7.348
56522SOL    HW171463  13.102   6.311   7.308
56522SOL    HW271464  12.963   6.366   7.288
56523SOL     OW71465   4.202   6.702   1.258
56523SOL    HW171466   4.123   6.748   1.287
56523SOL    HW271467   4.181   6.671   1.169
56524SOL     OW71468   8.418  11.774   7.448
56524SOL    HW171469   8.487  11.709   7.441
56524SOL    HW271470   8.436  11.836   7.378
56525SOL     OW71471   6.926  10.602  11.767
56525SOL    HW171472   6.887  10.548  11.698
56525SOL    HW271473   7.017  10.571  11.772
56526SOL     OW71474  11.949   1.340   3.093
56526SOL    HW171475  11.958   1.434   3.077
56526SOL    HW271476  11.870   1.332   3.146
56527SOL     OW71477  14.006   0.650   2.037
56527SOL    HW171478  14.017   0.571   2.090
56527SOL    HW271479  13.928   0.633   1.984
56528SOL     OW71480   7.528   8.355   4.700
56528SOL    HW171481   7.620   8.377   4.715
56528SOL    HW271482   7.480   8.411   4.762
56529SOL     OW71483   8.948   6.116   2.328
56529SOL    HW171484   8.971   6.158   2.411
56529SOL    HW271485   8.887   6.046   2.353
56530SOL     OW71486   0.533   4.909   2.299
56530SOL    HW171487   0.485   4.829   2.314
56530SOL    HW271488   0.531   4.921   2.204
56531SOL     OW71489  13.226  10.897   6.216
56531SOL    HW171490  13.146  10.934   6.179
56531SOL    HW271491  13.252  10.958   6.284
56532SOL     OW71492   3.578   8.305   5.668
56532SOL    HW171493   3.623   8.385   5.642
56532SOL    HW271494   3.617   8.282   5.752
56533SOL     OW71495  10.553  13.073   6.972
56533SOL    HW171496  10.568  13.091   6.880
56533SOL    HW271497  10.496  12.996   6.973
56534SOL     OW71498  10.575   1.594   6.642
56534SOL    HW171499  10.505   1.655   6.620
56534SOL    HW271500  10.646   1.617   6.582
56535SOL     OW71501   2.893  12.988   5.084
56535SOL    HW171502   2.986  13.013   5.078
56535SOL    HW271503   2.862  13.035   5.162
56536SOL     OW71504   2.617  11.385   6.847
56536SOL    HW171505   2.551  11.402   6.914
56536SOL    HW271506   2.655  11.471   6.829
56537SOL     OW71507  13.436   9.669   7.342
56537SOL    HW171508  13.489   9.747   7.358
56537SOL    HW271509  13.363   9.701   7.289
56538SOL     OW71510   0.823   0.197   9.413
56538SOL    HW171511   0.735   0.234   9.405
56538SOL    HW271512   0.875   0.267   9.452
56539SOL     OW71513   9.213   6.144   4.761
56539SOL    HW171514   9.188   6.148   4.853
56539SOL    HW271515   9.308   6.156   4.761
56540SOL     OW71516   4.255   3.828   6.284
56540SOL    HW171517   4.290   3.870   6.363
56540SOL    HW271518   4.321   3.763   6.260
56541SOL     OW71519   1.887  11.023   4.518
56541SOL    HW171520   1.792  11.016   4.524
56541SOL    HW271521   1.913  11.065   4.600
56542SOL     OW71522   3.483  11.279   7.849
56542SOL    HW171523   3.439  11.361   7.872
56542SOL    HW271524   3.512  11.243   7.933
56543SOL     OW71525   3.381   3.272  14.832
56543SOL    HW171526   3.289   3.251  14.848
56543SOL    HW271527   3.383   3.300  14.741
56544SOL     OW71528   4.571  10.397  12.462
56544SOL    HW171529   4.620  10.377  12.382
56544SOL    HW271530   4.633  10.448  12.514
56545SOL     OW71531  13.919   9.480   6.876
56545SOL    HW171532  13.921   9.552   6.939
56545SOL    HW271533  13.834   9.488   6.833
56546SOL     OW71534   1.595   2.125   0.460
56546SOL    HW171535   1.589   2.042   0.413
56546SOL    HW271536   1.610   2.099   0.551
56547SOL     OW71537  11.533   0.830  11.554
56547SOL    HW171538  11.448   0.862  11.584
56547SOL    HW271539  11.548   0.750  11.604
56548SOL     OW71540  11.220  12.410   6.474
56548SOL    HW171541  11.294  12.445   6.426
56548SOL    HW271542  11.258  12.343   6.531
56549SOL     OW71543   6.494   7.839  13.124
56549SOL    HW171544   6.414   7.793  13.096
56549SOL    HW271545   6.485   7.847  13.219
56550SOL     OW71546  12.342   4.842   9.431
56550SOL    HW171547  12.360   4.936   9.425
56550SOL    HW271548  12.248   4.836   9.445
56551SOL     OW71549   0.494  12.704   3.040
56551SOL    HW171550   0.579  12.677   3.074
56551SOL    HW271551   0.500  12.799   3.035
56552SOL     OW71552  14.165  14.362  13.940
56552SOL    HW171553  14.207  14.438  13.899
56552SOL    HW271554  14.114  14.399  14.013
56553SOL     OW71555   2.084  10.392  11.717
56553SOL    HW171556   2.147  10.438  11.771
56553SOL    HW271557   2.006  10.447  11.718
56554SOL     OW71558  12.331   9.155   7.838
56554SOL    HW171559  12.371   9.099   7.772
56554SOL    HW271560  12.306   9.094   7.908
56555SOL     OW71561   6.230  10.049  12.842
56555SOL    HW171562   6.297   9.981  12.844
56555SOL    HW271563   6.182  10.033  12.761
56556SOL     OW71564  10.917   6.846  13.247
56556SOL    HW171565  11.001   6.851  13.294
56556SOL    HW271566  10.857   6.806  13.310
56557SOL     OW71567   2.942  11.189   0.766
56557SOL    HW171568   2.929  11.201   0.672
56557SOL    HW271569   2.991  11.265   0.795
56558SOL     OW71570   8.224   5.324  10.727
56558SOL    HW171571   8.276   5.303  10.650
56558SOL    HW271572   8.144   5.362  10.691
56559SOL     OW71573   5.931   7.881   6.660
56559SOL    HW171574   5.878   7.802   6.669
56559SOL    HW271575   5.867   7.952   6.651
56560SOL     OW71576   7.317   2.931   3.311
56560SOL    HW171577   7.290   2.875   3.238
56560SOL    HW271578   7.242   2.989   3.326
56561SOL     OW71579   6.117   9.102   9.760
56561SOL    HW171580   6.127   9.184   9.809
56561SOL    HW271581   6.100   9.130   9.670
56562SOL     OW71582   9.588   9.952   6.705
56562SOL    HW171583   9.656   9.914   6.760
56562SOL    HW271584   9.552   9.877   6.657
56563SOL     OW71585   5.535   4.760   7.659
56563SOL    HW171586   5.526   4.678   7.611
56563SOL    HW271587   5.513   4.828   7.595
56564SOL     OW71588   9.897   8.810   5.211
56564SOL    HW171589   9.967   8.864   5.174
56564SOL    HW271590   9.899   8.830   5.305
56565SOL     OW71591  10.659  11.730   5.555
56565SOL    HW171592  10.566  11.741   5.533
56565SOL    HW271593  10.659  11.703   5.646
56566SOL     OW71594  14.159   7.395  11.682
56566SOL    HW171595  14.095   7.466  11.686
56566SOL    HW271596  14.126   7.336  11.614
56567SOL     OW71597   4.437   6.197   5.914
56567SOL    HW171598   4.356   6.246   5.898
56567SOL    HW271599   4.421   6.111   5.876
56568SOL     OW71600  10.350   1.040  12.353
56568SOL    HW171601  10.392   1.014  12.435
56568SOL    HW271602  10.325   1.131  12.367
56569SOL     OW71603   0.568  14.110  10.537
56569SOL    HW171604   0.493  14.073  10.489
56569SOL    HW271605   0.645  14.072  10.494
56570SOL     OW71606  13.216  10.486   3.213
56570SOL    HW171607  13.277  10.524   3.150
56570SOL    HW271608  13.129  10.505   3.177
56571SOL     OW71609  13.301  10.457   7.675
56571SOL    HW171610  13.240  10.408   7.731
56571SOL    HW271611  13.374  10.397   7.660
56572SOL     OW71612   5.408   1.878  12.123
56572SOL    HW171613   5.340   1.944  12.110
56572SOL    HW271614   5.484   1.913  12.078
56573SOL     OW71615  12.198   8.119   6.104
56573SOL    HW171616  12.221   8.163   6.186
56573SOL    HW271617  12.149   8.184   6.055
56574SOL     OW71618   8.166   4.097   0.740
56574SOL    HW171619   8.200   4.185   0.724
56574SOL    HW271620   8.072   4.103   0.724
56575SOL     OW71621   4.833   2.235   1.913
56575SOL    HW171622   4.876   2.233   1.828
56575SOL    HW271623   4.817   2.143   1.934
56576SOL     OW71624  11.816  12.139  14.147
56576SOL    HW171625  11.726  12.116  14.122
56576SOL    HW271626  11.871  12.093  14.084
56577SOL     OW71627   1.711  11.475   4.248
56577SOL    HW171628   1.763  11.401   4.217
56577SOL    HW271629   1.697  11.458   4.341
56578SOL     OW71630  10.414   5.826   1.502
56578SOL    HW171631  10.353   5.752   1.503
56578SOL    HW271632  10.364   5.898   1.465
56579SOL     OW71633  13.358   9.114  12.917
56579SOL    HW171634  13.304   9.191  12.902
56579SOL    HW271635  13.306   9.059  12.976
56580SOL     OW71636  14.209  10.760   1.071
56580SOL    HW171637  14.144  10.830   1.069
56580SOL    HW271638  14.281  10.796   1.123
56581SOL     OW71639  13.224   7.141   8.024
56581SOL    HW171640  13.173   7.109   8.098
56581SOL    HW271641  13.167   7.127   7.948
56582SOL     OW71642   9.830   5.610   9.071
56582SOL    HW171643   9.747   5.578   9.037
56582SOL    HW271644   9.817   5.613   9.166
56583SOL     OW71645   6.879   8.844   6.356
56583SOL    HW171646   6.932   8.913   6.316
56583SOL    HW271647   6.814   8.890   6.408
56584SOL     OW71648  13.156   8.926   7.966
56584SOL    HW171649  13.084   8.863   7.959
56584SOL    HW271650  13.174   8.951   7.875
56585SOL     OW71651  12.405   4.806   9.750
56585SOL    HW171652  12.418   4.770   9.663
56585SOL    HW271653  12.433   4.898   9.742
56586SOL     OW71654   4.479  10.175   6.928
56586SOL    HW171655   4.463  10.123   7.007
56586SOL    HW271656   4.571  10.202   6.935
56587SOL     OW71657   2.457   0.046  14.882
56587SOL    HW171658   2.477   0.032  14.789
56587SOL    HW271659   2.373   0.003   0.013
56588SOL     OW71660  11.269   6.264   0.774
56588SOL    HW171661  11.218   6.199   0.823
56588SOL    HW271662  11.354   6.265   0.816
56589SOL     OW71663   7.574  13.479   0.803
56589SOL    HW171664   7.616  13.425   0.736
56589SOL    HW271665   7.482  13.455   0.799
56590SOL     OW71666  14.303   9.201   9.647
56590SOL    HW171667  14.293   9.232   9.737
56590SOL    HW271668  14.397   9.208   9.630
56591SOL     OW71669  13.085   2.987  10.122
56591SOL    HW171670  13.021   2.927  10.160
56591SOL    HW271671  13.155   2.931  10.089
56592SOL     OW71672   8.146   4.707   7.914
56592SOL    HW171673   8.069   4.699   7.857
56592SOL    HW271674   8.143   4.629   7.969
56593SOL     OW71675   5.488   9.480  11.348
56593SOL    HW171676   5.519   9.395  11.379
56593SOL    HW271677   5.393   9.477  11.363
56594SOL     OW71678  12.386  10.267  12.173
56594SOL    HW171679  12.405  10.189  12.121
56594SOL    HW271680  12.291  10.279  12.164
56595SOL     OW71681   3.051   8.338  10.925
56595SOL    HW171682   3.123   8.364  10.983
56595SOL    HW271683   3.063   8.244  10.912
56596SOL     OW71684   0.816  13.319   1.230
56596SOL    HW171685   0.816  13.365   1.314
56596SOL    HW271686   0.838  13.229   1.252
56597SOL     OW71687  12.404   8.027   9.662
56597SOL    HW171688  12.375   7.980   9.740
56597SOL    HW271689  12.329   8.022   9.602
56598SOL     OW71690   2.913   9.905   5.692
56598SOL    HW171691   2.835   9.911   5.747
56598SOL    HW271692   2.981   9.871   5.750
56599SOL     OW71693  13.343  14.853   7.821
56599SOL    HW171694  13.251  14.871   7.842
56599SOL    HW271695  13.367   0.040   7.759
56600SOL     OW71696  10.334   0.106   6.043
56600SOL    HW171697  10.330   0.200   6.023
56600SOL    HW271698  10.410   0.098   6.102
56601SOL     OW71699   1.131  11.538   1.945
56601SOL    HW171700   1.146  11.502   2.033
56601SOL    HW271701   1.187  11.484   1.889
56602SOL     OW71702  10.550   4.414   6.474
56602SOL    HW171703  10.620   4.476   6.455
56602SOL    HW271704  10.488   4.425   6.401
56603SOL     OW71705   8.316   7.184   6.411
56603SOL    HW171706   8.369   7.262   6.425
56603SOL    HW271707   8.367   7.130   6.350
56604SOL     OW71708   9.075   1.548   6.594
56604SOL    HW171709   9.162   1.580   6.569
56604SOL    HW271710   9.077   1.455   6.574
56605SOL     OW71711  11.702  13.604   7.363
56605SOL    HW171712  11.706  13.680   7.305
56605SOL    HW271713  11.751  13.536   7.318
56606SOL     OW71714   8.786  13.937   8.253
56606SOL    HW171715   8.811  13.859   8.301
56606SOL    HW271716   8.849  14.004   8.280
56607SOL     OW71717   0.641  11.226   0.129
56607SOL    HW171718   0.591  11.163   0.077
56607SOL    HW271719   0.711  11.256   0.072
56608SOL     OW71720  13.254   7.716   1.368
56608SOL    HW171721  13.343   7.716   1.332
56608SOL    HW271722  13.243   7.629   1.407
56609SOL     OW71723   9.995   3.213  12.655
56609SOL    HW171724  10.009   3.221  12.750
56609SOL    HW271725   9.904   3.240  12.642
56610SOL     OW71726  11.291   5.754   3.793
56610SOL    HW171727  11.349   5.830   3.790
56610SOL    HW271728  11.343   5.682   3.757
56611SOL     OW71729   2.200   8.399  14.783
56611SOL    HW171730   2.143   8.337  14.737
56611SOL    HW271731   2.288   8.381  14.749
56612SOL     OW71732   0.536   3.499   1.798
56612SOL    HW171733   0.531   3.489   1.893
56612SOL    HW271734   0.451   3.469   1.766
56613SOL     OW71735   6.585   1.128  12.586
56613SOL    HW171736   6.563   1.171  12.503
56613SOL    HW271737   6.670   1.087  12.570
56614SOL     OW71738   4.568   3.718  12.153
56614SOL    HW171739   4.551   3.732  12.246
56614SOL    HW271740   4.485   3.687  12.118
56615SOL     OW71741   8.309   0.115  11.415
56615SOL    HW171742   8.230   0.064  11.402
56615SOL    HW271743   8.334   0.144  11.327
56616SOL     OW71744   0.898   1.439  11.853
56616SOL    HW171745   0.825   1.500  11.862
56616SOL    HW271746   0.902   1.394  11.937
56617SOL     OW71747   6.492  13.758   1.751
56617SOL    HW171748   6.508  13.665   1.738
56617SOL    HW271749   6.578  13.799   1.739
56618SOL     OW71750   1.628  10.568   5.643
56618SOL    HW171751   1.603  10.625   5.570
56618SOL    HW271752   1.545  10.530   5.672
56619SOL     OW71753   3.218  13.031   7.107
56619SOL    HW171754   3.209  13.114   7.153
56619SOL    HW271755   3.277  12.979   7.163
56620SOL     OW71756   8.899   3.999   1.275
56620SOL    HW171757   8.808   3.987   1.246
56620SOL    HW271758   8.941   4.048   1.205
56621SOL     OW71759   5.602   3.383  13.116
56621SOL    HW171760   5.550   3.403  13.193
56621SOL    HW271761   5.538   3.358  13.049
56622SOL     OW71762   7.429  13.109   7.029
56622SOL    HW171763   7.447  13.069   6.943
56622SOL    HW271764   7.504  13.084   7.083
56623SOL     OW71765  13.826  12.504   1.154
56623SOL    HW171766  13.818  12.473   1.244
56623SOL    HW271767  13.754  12.566   1.143
56624SOL     OW71768  11.779   4.111   5.748
56624SOL    HW171769  11.733   4.148   5.823
56624SOL    HW271770  11.714   4.114   5.677
56625SOL     OW71771   8.491   3.548  12.101
56625SOL    HW171772   8.570   3.495  12.089
56625SOL    HW271773   8.468   3.536  12.193
56626SOL     OW71774  10.766   6.029   4.749
56626SOL    HW171775  10.681   6.069   4.731
56626SOL    HW271776  10.791   5.990   4.665
56627SOL     OW71777   1.414  10.288  14.854
56627SOL    HW171778   1.386  10.376  14.827
56627SOL    HW271779   1.336  10.234  14.845
56628SOL     OW71780  14.617  14.032   9.771
56628SOL    HW171781  14.526  14.060   9.773
56628SOL    HW271782  14.641  14.031   9.679
56629SOL     OW71783   2.614   9.658   6.831
56629SOL    HW171784   2.631   9.696   6.745
56629SOL    HW271785   2.521   9.634   6.829
56630SOL     OW71786  14.011   6.309   9.571
56630SOL    HW171787  14.005   6.368   9.647
56630SOL    HW271788  13.940   6.246   9.585
56631SOL     OW71789   7.108  11.996  13.639
56631SOL    HW171790   7.137  11.979  13.550
56631SOL    HW271791   7.184  11.978  13.694
56632SOL     OW71792   4.929   6.899   8.144
56632SOL    HW171793   4.838   6.928   8.155
56632SOL    HW271794   4.956   6.870   8.231
56633SOL     OW71795  12.855   4.773   0.631
56633SOL    HW171796  12.916   4.846   0.625
56633SOL    HW271797  12.896   4.712   0.692
56634SOL     OW71798   6.361  13.680  12.887
56634SOL    HW171799   6.404  13.601  12.919
56634SOL    HW271800   6.433  13.742  12.873
56635SOL     OW71801   7.255  10.495   2.826
56635SOL    HW171802   7.307  10.487   2.746
56635SOL    HW271803   7.297  10.564   2.876
56636SOL     OW71804   9.726   3.304   8.939
56636SOL    HW171805   9.710   3.398   8.927
56636SOL    HW271806   9.717   3.266   8.852
56637SOL     OW71807  13.903   5.568   6.161
56637SOL    HW171808  13.891   5.496   6.100
56637SOL    HW271809  13.842   5.635   6.131
56638SOL     OW71810   6.036  14.030   1.975
56638SOL    HW171811   6.007  13.964   1.912
56638SOL    HW271812   6.103  13.985   2.027
56639SOL     OW71813   5.557   0.983   5.777
56639SOL    HW171814   5.554   1.037   5.698
56639SOL    HW271815   5.479   0.928   5.772
56640SOL     OW71816   0.407   1.091   8.487
56640SOL    HW171817   0.422   0.996   8.490
56640SOL    HW271818   0.361   1.110   8.569
56641SOL     OW71819   3.423  12.005  11.906
56641SOL    HW171820   3.394  12.096  11.900
56641SOL    HW271821   3.449  11.983  11.817
56642SOL     OW71822  13.297   4.969  14.441
56642SOL    HW171823  13.292   4.939  14.531
56642SOL    HW271824  13.332   4.895  14.392
56643SOL     OW71825  12.163  11.390   3.798
56643SOL    HW171826  12.107  11.439   3.859
56643SOL    HW271827  12.164  11.444   3.719
56644SOL     OW71828   1.800   5.332  10.591
56644SOL    HW171829   1.774   5.421  10.567
56644SOL    HW271830   1.719   5.282  10.590
56645SOL     OW71831   1.656   5.334   5.295
56645SOL    HW171832   1.698   5.417   5.271
56645SOL    HW271833   1.613   5.353   5.379
56646SOL     OW71834   6.005  11.133   5.106
56646SOL    HW171835   6.087  11.089   5.083
56646SOL    HW271836   5.956  11.068   5.157
56647SOL     OW71837  10.447   3.739   7.832
56647SOL    HW171838  10.522   3.785   7.795
56647SOL    HW271839  10.479   3.650   7.850
56648SOL     OW71840  14.609   3.680   9.749
56648SOL    HW171841  14.677   3.617   9.725
56648SOL    HW271842  14.583   3.720   9.666
56649SOL     OW71843  14.387   5.796   7.977
56649SOL    HW171844  14.304   5.793   7.929
56649SOL    HW271845  14.422   5.707   7.969
56650SOL     OW71846   0.765  14.500   9.344
56650SOL    HW171847   0.683  14.451   9.344
56650SOL    HW271848   0.768  14.542   9.258
56651SOL     OW71849   0.172   4.889  12.396
56651SOL    HW171850   0.172   4.793  12.392
56651SOL    HW271851   0.259   4.912  12.429
56652SOL     OW71852   2.443  14.800   1.587
56652SOL    HW171853   2.522  14.745   1.588
56652SOL    HW271854   2.373  14.740   1.561
56653SOL     OW71855   3.542   7.029   7.642
56653SOL    HW171856   3.540   7.024   7.546
56653SOL    HW271857   3.472   6.969   7.670
56654SOL     OW71858   1.448   0.591   8.098
56654SOL    HW171859   1.378   0.657   8.102
56654SOL    HW271860   1.403   0.507   8.104
56655SOL     OW71861  13.832   6.137  10.963
56655SOL    HW171862  13.767   6.178  10.905
56655SOL    HW271863  13.883   6.079  10.907
56656SOL     OW71864  14.239  11.388   7.139
56656SOL    HW171865  14.308  11.322   7.142
56656SOL    HW271866  14.213  11.392   7.047
56657SOL     OW71867   2.248  10.532   5.572
56657SOL    HW171868   2.310  10.482   5.518
56657SOL    HW271869   2.212  10.467   5.633
56658SOL     OW71870   9.294   2.926   0.475
56658SOL    HW171871   9.365   2.894   0.532
56658SOL    HW271872   9.225   2.952   0.536
56659SOL     OW71873   6.433   6.196   9.817
56659SOL    HW171874   6.525   6.224   9.822
56659SOL    HW271875   6.397   6.214   9.904
56660SOL     OW71876   6.301  14.069   8.380
56660SOL    HW171877   6.208  14.049   8.365
56660SOL    HW271878   6.316  14.043   8.471
56661SOL     OW71879  10.779   6.863   0.549
56661SOL    HW171880  10.751   6.907   0.629
56661SOL    HW271881  10.823   6.931   0.498
56662SOL     OW71882   4.357   3.874  13.061
56662SOL    HW171883   4.270   3.842  13.037
56662SOL    HW271884   4.342   3.935  13.133
56663SOL     OW71885   0.362  11.966   8.585
56663SOL    HW171886   0.394  11.967   8.676
56663SOL    HW271887   0.330  11.877   8.573
56664SOL     OW71888   7.444  12.250   7.752
56664SOL    HW171889   7.525  12.201   7.734
56664SOL    HW271890   7.451  12.275   7.844
56665SOL     OW71891   5.585  10.946  14.522
56665SOL    HW171892   5.524  10.980  14.587
56665SOL    HW271893   5.571  10.851  14.523
56666SOL     OW71894   7.302   3.324  14.640
56666SOL    HW171895   7.246   3.262  14.594
56666SOL    HW271896   7.391   3.296  14.621
56667SOL     OW71897  11.044   4.817   1.682
56667SOL    HW171898  10.974   4.878   1.660
56667SOL    HW271899  11.001   4.746   1.729
56668SOL     OW71900   2.373  11.744   5.493
56668SOL    HW171901   2.330  11.683   5.433
56668SOL    HW271902   2.360  11.706   5.579
56669SOL     OW71903   4.617  12.405  13.006
56669SOL    HW171904   4.710  12.387  12.988
56669SOL    HW271905   4.589  12.460  12.932
56670SOL     OW71906  13.839   5.983   0.398
56670SOL    HW171907  13.850   6.069   0.439
56670SOL    HW271908  13.821   6.003   0.306
56671SOL     OW71909  11.443   3.763  13.612
56671SOL    HW171910  11.536   3.758  13.634
56671SOL    HW271911  11.398   3.764  13.697
56672SOL     OW71912   6.888   0.904  14.265
56672SOL    HW171913   6.982   0.896  14.246
56672SOL    HW271914   6.860   0.816  14.287
56673SOL     OW71915   8.887   1.625   8.372
56673SOL    HW171916   8.906   1.631   8.466
56673SOL    HW271917   8.886   1.531   8.354
56674SOL     OW71918   1.386  10.412   8.356
56674SOL    HW171919   1.363  10.342   8.295
56674SOL    HW271920   1.418  10.366   8.434
56675SOL     OW71921  13.556  12.468   7.998
56675SOL    HW171922  13.531  12.377   7.980
56675SOL    HW271923  13.628  12.461   8.061
56676SOL     OW71924   9.215   8.949  10.716
56676SOL    HW171925   9.203   9.038  10.748
56676SOL    HW271926   9.147   8.938  10.650
56677SOL     OW71927  13.591   4.286   6.471
56677SOL    HW171928  13.506   4.279   6.514
56677SOL    HW271929  13.649   4.322   6.538
56678SOL     OW71930  13.152   0.013   4.509
56678SOL    HW171931  13.075  14.839   4.501
56678SOL    HW271932  13.135   0.065   4.587
56679SOL     OW71933   7.478   6.223   2.826
56679SOL    HW171934   7.447   6.141   2.790
56679SOL    HW271935   7.523   6.199   2.907
56680SOL     OW71936   9.168   3.028   9.851
56680SOL    HW171937   9.197   2.969   9.781
56680SOL    HW271938   9.189   3.116   9.818
56681SOL     OW71939   4.118  10.045   8.754
56681SOL    HW171940   4.098  10.126   8.708
56681SOL    HW271941   4.206  10.058   8.789
56682SOL     OW71942   1.401   6.962   2.910
56682SOL    HW171943   1.336   6.894   2.890
56682SOL    HW271944   1.483   6.927   2.874
56683SOL     OW71945   3.269   2.332  12.497
56683SOL    HW171946   3.224   2.410  12.530
56683SOL    HW271947   3.227   2.260  12.544
56684SOL     OW71948  13.840   2.066   6.942
56684SOL    HW171949  13.883   2.141   6.900
56684SOL    HW271950  13.890   1.990   6.911
56685SOL     OW71951   7.312  11.810   3.392
56685SOL    HW171952   7.232  11.781   3.435
56685SOL    HW271953   7.284  11.883   3.336
56686SOL     OW71954   5.115   4.086  14.517
56686SOL    HW171955   5.166   4.067  14.595
56686SOL    HW271956   5.171   4.144  14.465
56687SOL     OW71957   7.057   7.367   2.728
56687SOL    HW171958   7.130   7.321   2.770
56687SOL    HW271959   7.022   7.424   2.797
56688SOL     OW71960   7.631  10.944   3.438
56688SOL    HW171961   7.579  10.887   3.494
56688SOL    HW271962   7.568  11.006   3.402
56689SOL     OW71963   8.672   4.207   1.803
56689SOL    HW171964   8.692   4.145   1.733
56689SOL    HW271965   8.734   4.185   1.873
56690SOL     OW71966  10.624   9.991   1.345
56690SOL    HW171967  10.713   9.995   1.381
56690SOL    HW271968  10.582   9.920   1.394
56691SOL     OW71969   5.700   5.944  13.152
56691SOL    HW171970   5.604   5.946  13.150
56691SOL    HW271971   5.723   5.970  13.241
56692SOL     OW71972   8.766   4.678   8.903
56692SOL    HW171973   8.771   4.654   8.811
56692SOL    HW271974   8.844   4.640   8.943
56693SOL     OW71975  10.966   8.577   0.279
56693SOL    HW171976  10.964   8.661   0.234
56693SOL    HW271977  11.054   8.542   0.260
56694SOL     OW71978   3.179  13.589   1.589
56694SOL    HW171979   3.214  13.565   1.503
56694SOL    HW271980   3.210  13.520   1.648
56695SOL     OW71981   9.855  14.139   9.700
56695SOL    HW171982   9.772  14.143   9.652
56695SOL    HW271983   9.922  14.136   9.631
56696SOL     OW71984   1.519   3.308   5.495
56696SOL    HW171985   1.487   3.326   5.584
56696SOL    HW271986   1.493   3.217   5.479
56697SOL     OW71987   2.237  12.147   5.625
56697SOL    HW171988   2.300  12.144   5.697
56697SOL    HW271989   2.159  12.188   5.663
56698SOL     OW71990  13.252   8.330   6.481
56698SOL    HW171991  13.200   8.397   6.439
56698SOL    HW271992  13.310   8.297   6.413
56699SOL     OW71993   4.933   1.929   3.153
56699SOL    HW171994   4.991   1.962   3.084
56699SOL    HW271995   4.923   2.002   3.213
56700SOL     OW71996  12.024   6.764   0.849
56700SOL    HW171997  11.946   6.785   0.900
56700SOL    HW271998  12.039   6.671   0.866
56701SOL     OW71999   1.469   6.277   9.208
56701SOL    HW172000   1.450   6.312   9.121
56701SOL    HW272001   1.414   6.199   9.215
56702SOL     OW72002  10.726   3.037   4.502
56702SOL    HW172003  10.697   2.948   4.486
56702SOL    HW272004  10.743   3.041   4.596
56703SOL     OW72005   8.282   5.295   5.961
56703SOL    HW172006   8.370   5.333   5.967
56703SOL    HW272007   8.238   5.346   5.892
56704SOL     OW72008  12.192   9.097   0.175
56704SOL    HW172009  12.128   9.078   0.244
56704SOL    HW272010  12.219   9.011   0.143
56705SOL     OW72011   8.741   3.181   3.373
56705SOL    HW172012   8.794   3.133   3.309
56705SOL    HW272013   8.805   3.233   3.423
56706SOL     OW72014   3.809  14.407  12.789
56706SOL    HW172015   3.759  14.409  12.871
56706SOL    HW272016   3.762  14.345  12.733
56707SOL     OW72017  10.526   9.843   2.767
56707SOL    HW172018  10.557   9.859   2.678
56707SOL    HW272019  10.596   9.874   2.823
56708SOL     OW72020  14.249   9.881  12.818
56708SOL    HW172021  14.254   9.923  12.904
56708SOL    HW272022  14.157   9.887  12.794
56709SOL     OW72023   1.068   8.679  11.915
56709SOL    HW172024   0.981   8.718  11.910
56709SOL    HW272025   1.067   8.630  11.998
56710SOL     OW72026  12.097  13.457   6.022
56710SOL    HW172027  12.188  13.441   5.994
56710SOL    HW272028  12.046  13.451   5.941
56711SOL     OW72029   2.073   3.988   7.345
56711SOL    HW172030   2.117   3.940   7.275
56711SOL    HW272031   2.017   4.051   7.300
56712SOL     OW72032  13.797   2.519   2.974
56712SOL    HW172033  13.802   2.442   2.917
56712SOL    HW272034  13.773   2.591   2.915
56713SOL     OW72035   6.265   9.077  14.317
56713SOL    HW172036   6.207   9.097  14.245
56713SOL    HW272037   6.323   9.009  14.284
56714SOL     OW72038   5.989   1.092   7.063
56714SOL    HW172039   5.956   1.144   7.137
56714SOL    HW272040   5.914   1.040   7.034
56715SOL     OW72041   0.398   8.483  11.354
56715SOL    HW172042   0.404   8.512  11.445
56715SOL    HW272043   0.464   8.535  11.309
56716SOL     OW72044  10.316   7.922   6.490
56716SOL    HW172045  10.359   7.894   6.571
56716SOL    HW272046  10.232   7.876   6.490
56717SOL     OW72047  13.409   8.883   6.332
56717SOL    HW172048  13.379   8.927   6.253
56717SOL    HW272049  13.475   8.821   6.301
56718SOL     OW72050   4.660   1.879  14.791
56718SOL    HW172051   4.620   1.897  14.876
56718SOL    HW272052   4.593   1.832  14.742
56719SOL     OW72053   1.092   1.476   5.717
56719SOL    HW172054   1.038   1.542   5.760
56719SOL    HW272055   1.043   1.394   5.726
56720SOL     OW72056  11.041   0.283   7.232
56720SOL    HW172057  11.110   0.336   7.271
56720SOL    HW272058  11.084   0.200   7.211
56721SOL     OW72059   2.269   4.430   0.407
56721SOL    HW172060   2.179   4.408   0.383
56721SOL    HW272061   2.264   4.518   0.443
56722SOL     OW72062   3.322  14.351   4.632
56722SOL    HW172063   3.285  14.438   4.614
56722SOL    HW272064   3.391  14.341   4.567
56723SOL     OW72065  13.050  12.876   2.318
56723SOL    HW172066  13.100  12.801   2.348
56723SOL    HW272067  12.961  12.842   2.307
56724SOL     OW72068   2.300  13.043   9.821
56724SOL    HW172069   2.331  13.002   9.741
56724SOL    HW272070   2.378  13.048   9.877
56725SOL     OW72071   1.566   9.710   3.260
56725SOL    HW172072   1.606   9.647   3.320
56725SOL    HW272073   1.488   9.740   3.306
56726SOL     OW72074   4.178   9.991   1.363
56726SOL    HW172075   4.225  10.061   1.315
56726SOL    HW272076   4.199   9.911   1.314
56727SOL     OW72077   6.923   7.620  14.479
56727SOL    HW172078   6.856   7.553  14.494
56727SOL    HW272079   6.883   7.681  14.417
56728SOL     OW72080   0.801   6.420   4.529
56728SOL    HW172081   0.755   6.412   4.445
56728SOL    HW272082   0.876   6.361   4.520
56729SOL     OW72083   5.030  11.001   3.935
56729SOL    HW172084   5.121  11.028   3.918
56729SOL    HW272085   5.003  11.055   4.009
56730SOL     OW72086  10.532   3.433  10.063
56730SOL    HW172087  10.604   3.416  10.001
56730SOL    HW272088  10.467   3.481  10.012
56731SOL     OW72089   8.379   3.180   1.001
56731SOL    HW172090   8.353   3.116   0.934
56731SOL    HW272091   8.403   3.258   0.952
56732SOL     OW72092   2.208   8.026   4.324
56732SOL    HW172093   2.231   8.103   4.272
56732SOL    HW272094   2.140   8.057   4.383
56733SOL     OW72095  11.686  10.276  11.619
56733SOL    HW172096  11.683  10.324  11.536
56733SOL    HW272097  11.713  10.188  11.594
56734SOL     OW72098   8.900   3.555   2.126
56734SOL    HW172099   8.928   3.594   2.209
56734SOL    HW272100   8.807   3.580   2.118
56735SOL     OW72101   3.554   8.016   0.729
56735SOL    HW172102   3.468   8.031   0.689
56735SOL    HW272103   3.605   8.094   0.707
56736SOL     OW72104  11.167   0.847   2.332
56736SOL    HW172105  11.133   0.791   2.262
56736SOL    HW272106  11.238   0.896   2.292
56737SOL     OW72107  10.034   9.927   7.503
56737SOL    HW172108  10.074   9.939   7.417
56737SOL    HW272109  10.097   9.873   7.551
56738SOL     OW72110   4.497  14.656  14.617
56738SOL    HW172111   4.462  14.630  14.532
56738SOL    HW272112   4.540  14.577  14.650
56739SOL     OW72113   3.609  13.705   1.063
56739SOL    HW172114   3.584  13.721   1.154
56739SOL    HW272115   3.577  13.617   1.043
56740SOL     OW72116   1.635  13.371   3.055
56740SOL    HW172117   1.701  13.301   3.051
56740SOL    HW272118   1.661  13.431   2.985
56741SOL     OW72119   2.908   8.283  12.540
56741SOL    HW172120   2.911   8.337  12.461
56741SOL    HW272121   2.877   8.343  12.608
56742SOL     OW72122   6.707   5.727  14.117
56742SOL    HW172123   6.744   5.713  14.030
56742SOL    HW272124   6.784   5.737  14.174
56743SOL     OW72125   2.425   2.095   8.190
56743SOL    HW172126   2.405   2.003   8.207
56743SOL    HW272127   2.509   2.094   8.145
56744SOL     OW72128   4.109   1.437   2.089
56744SOL    HW172129   4.070   1.519   2.059
56744SOL    HW272130   4.123   1.387   2.008
56745SOL     OW72131   0.288  12.517   9.646
56745SOL    HW172132   0.234  12.484   9.718
56745SOL    HW272133   0.236  12.502   9.567
56746SOL     OW72134   3.557   5.664   7.132
56746SOL    HW172135   3.518   5.603   7.195
56746SOL    HW272136   3.579   5.742   7.183
56747SOL     OW72137  14.058   7.287   9.427
56747SOL    HW172138  14.146   7.301   9.462
56747SOL    HW272139  14.016   7.229   9.491
56748SOL     OW72140   6.956   4.177   0.003
56748SOL    HW172141   6.962   4.130  14.802
56748SOL    HW272142   7.026   4.140   0.056
56749SOL     OW72143   5.521   9.107  14.808
56749SOL    HW172144   5.485   9.022  14.783
56749SOL    HW272145   5.563   9.140  14.728
56750SOL     OW72146   1.565   7.338  13.353
56750SOL    HW172147   1.642   7.368  13.305
56750SOL    HW272148   1.595   7.327  13.443
56751SOL     OW72149  14.232   6.691   2.969
56751SOL    HW172150  14.293   6.722   2.902
56751SOL    HW272151  14.158   6.656   2.920
56752SOL     OW72152  14.058   8.440   2.080
56752SOL    HW172153  14.109   8.361   2.098
56752SOL    HW272154  13.977   8.428   2.129
56753SOL     OW72155   1.764   4.329  11.275
56753SOL    HW172156   1.684   4.353  11.227
56753SOL    HW272157   1.814   4.277  11.213
56754SOL     OW72158   9.213   0.549   2.793
56754SOL    HW172159   9.247   0.618   2.736
56754SOL    HW272160   9.138   0.513   2.746
56755SOL     OW72161   4.984   9.597   1.359
56755SOL    HW172162   4.996   9.592   1.264
56755SOL    HW272163   4.921   9.667   1.372
56756SOL     OW72164   3.657  12.245   3.890
56756SOL    HW172165   3.593  12.240   3.961
56756SOL    HW272166   3.670  12.339   3.876
56757SOL     OW72167   6.856   3.032   0.246
56757SOL    HW172168   6.878   3.124   0.231
56757SOL    HW272169   6.828   3.028   0.337
56758SOL     OW72170   0.997  10.357   9.487
56758SOL    HW172171   0.970  10.352   9.579
56758SOL    HW272172   0.917  10.378   9.439
56759SOL     OW72173   0.012  10.709   3.139
56759SOL    HW172174  14.835  10.634   3.142
56759SOL    HW272175   0.099  10.671   3.152
56760SOL     OW72176   6.838   5.575  10.819
56760SOL    HW172177   6.895   5.634  10.770
56760SOL    HW272178   6.830   5.616  10.905
56761SOL     OW72179  12.816   7.077  11.167
56761SOL    HW172180  12.819   7.071  11.262
56761SOL    HW272181  12.753   7.147  11.149
56762SOL     OW72182  12.922   6.708   9.717
56762SOL    HW172183  12.963   6.724   9.632
56762SOL    HW272184  12.930   6.791   9.764
56763SOL     OW72185   9.223   3.015   0.250
56763SOL    HW172186   9.188   3.104   0.249
56763SOL    HW272187   9.244   2.999   0.342
56764SOL     OW72188  14.113   0.111   2.402
56764SOL    HW172189  14.073   0.062   2.330
56764SOL    HW272190  14.199   0.070   2.413
56765SOL     OW72191  10.108   6.587   6.370
56765SOL    HW172192  10.064   6.672   6.367
56765SOL    HW272193  10.075   6.546   6.450
56766SOL     OW72194   1.512   1.902  14.642
56766SOL    HW172195   1.543   1.970  14.582
56766SOL    HW272196   1.431   1.870  14.602
56767SOL     OW72197  12.148   5.955   2.248
56767SOL    HW172198  12.061   5.915   2.236
56767SOL    HW272199  12.142   6.000   2.332
56768SOL     OW72200  10.846   5.489   8.653
56768SOL    HW172201  10.755   5.480   8.681
56768SOL    HW272202  10.850   5.445   8.568
56769SOL     OW72203   3.896   1.374  10.683
56769SOL    HW172204   3.943   1.445  10.727
56769SOL    HW272205   3.854   1.325  10.754
56770SOL     OW72206  14.520   8.143   0.045
56770SOL    HW172207  14.488   8.173  14.842
56770SOL    HW272208  14.559   8.058   0.028
56771SOL     OW72209   5.988  13.320  13.887
56771SOL    HW172210   6.029  13.276  13.961
56771SOL    HW272211   5.898  13.287  13.886
56772SOL     OW72212   7.063   0.013   3.136
56772SOL    HW172213   7.029   0.070   3.067
56772SOL    HW272214   7.106   0.074   3.197
56773SOL     OW72215  14.604   4.733  14.560
56773SOL    HW172216  14.597   4.802  14.627
56773SOL    HW272217  14.516   4.725  14.526
56774SOL     OW72218   3.174   5.404  13.072
56774SOL    HW172219   3.160   5.395  13.167
56774SOL    HW272220   3.268   5.424  13.064
56775SOL     OW72221   0.328   7.297   9.403
56775SOL    HW172222   0.275   7.371   9.373
56775SOL    HW272223   0.408   7.336   9.437
56776SOL     OW72224  14.642  14.711   0.108
56776SOL    HW172225  14.644  14.714   0.204
56776SOL    HW272226  14.549  14.702   0.086
56777SOL     OW72227  14.249   4.981  11.703
56777SOL    HW172228  14.341   4.967  11.682
56777SOL    HW272229  14.238   5.076  11.699
56778SOL     OW72230   4.172   3.273   2.963
56778SOL    HW172231   4.257   3.229   2.962
56778SOL    HW272232   4.159   3.298   3.054
56779SOL     OW72233   1.389  14.751   3.933
56779SOL    HW172234   1.377  14.666   3.891
56779SOL    HW272235   1.473  14.743   3.978
56780SOL     OW72236   2.563   2.241   3.047
56780SOL    HW172237   2.599   2.195   2.971
56780SOL    HW272238   2.473   2.210   3.054
56781SOL     OW72239   0.932   4.123   2.267
56781SOL    HW172240   0.895   4.040   2.295
56781SOL    HW272241   1.003   4.140   2.329
56782SOL     OW72242  10.723  11.126  13.853
56782SOL    HW172243  10.677  11.081  13.782
56782SOL    HW272244  10.695  11.217  13.847
56783SOL     OW72245   0.521   2.574   0.418
56783SOL    HW172246   0.579   2.631   0.368
56783SOL    HW272247   0.527   2.489   0.374
56784SOL     OW72248   9.824   2.244  10.510
56784SOL    HW172249   9.840   2.155  10.544
56784SOL    HW272250   9.905   2.266  10.463
56785SOL     OW72251   1.167  13.767   2.109
56785SOL    HW172252   1.255  13.801   2.091
56785SOL    HW272253   1.134  13.823   2.179
56786SOL     OW72254   1.657   1.662   0.990
56786SOL    HW172255   1.672   1.595   1.057
56786SOL    HW272256   1.608   1.617   0.922
56787SOL     OW72257   8.430  13.379   6.975
56787SOL    HW172258   8.466  13.435   6.906
56787SOL    HW272259   8.343  13.354   6.943
56788SOL     OW72260  12.431   9.223   5.938
56788SOL    HW172261  12.445   9.137   5.899
56788SOL    HW272262  12.358   9.261   5.888
56789SOL     OW72263   9.962   9.975   4.852
56789SOL    HW172264   9.950   9.913   4.779
56789SOL    HW272265   9.875  10.012   4.867
56790SOL     OW72266  12.447  13.506   5.007
56790SOL    HW172267  12.436  13.592   4.966
56790SOL    HW272268  12.359  13.467   5.006
56791SOL     OW72269  10.063   4.730  11.302
56791SOL    HW172270  10.092   4.689  11.221
56791SOL    HW272271  10.139   4.779  11.332
56792SOL     OW72272  12.258   5.294   1.358
56792SOL    HW172273  12.301   5.315   1.275
56792SOL    HW272274  12.262   5.199   1.364
56793SOL     OW72275   3.291   9.718  10.353
56793SOL    HW172276   3.266   9.809  10.365
56793SOL    HW272277   3.353   9.720  10.279
56794SOL     OW72278   7.890  10.479   5.405
56794SOL    HW172279   7.938  10.558   5.379
56794SOL    HW272280   7.929  10.453   5.488
56795SOL     OW72281  10.652   5.843  13.228
56795SOL    HW172282  10.618   5.755  13.210
56795SOL    HW272283  10.737   5.846  13.184
56796SOL     OW72284   2.938  11.948   2.765
56796SOL    HW172285   2.990  11.871   2.739
56796SOL    HW272286   2.849  11.926   2.739
56797SOL     OW72287   4.132   7.929   6.982
56797SOL    HW172288   4.163   7.856   7.036
56797SOL    HW272289   4.037   7.917   6.978
56798SOL     OW72290  12.019  14.211   4.919
56798SOL    HW172291  12.104  14.187   4.881
56798SOL    HW272292  11.971  14.128   4.924
56799SOL     OW72293   2.207   9.598  13.999
56799SOL    HW172294   2.295   9.634  14.009
56799SOL    HW272295   2.183   9.618  13.908
56800SOL     OW72296   7.848   6.157  13.844
56800SOL    HW172297   7.810   6.234  13.887
56800SOL    HW272298   7.798   6.149  13.763
56801SOL     OW72299   2.803   4.794   1.869
56801SOL    HW172300   2.765   4.881   1.881
56801SOL    HW272301   2.896   4.809   1.856
56802SOL     OW72302   4.739   7.289  12.656
56802SOL    HW172303   4.788   7.369  12.673
56802SOL    HW272304   4.705   7.262  12.741
56803SOL     OW72305   7.872   4.030   0.325
56803SOL    HW172306   7.783   3.995   0.321
56803SOL    HW272307   7.928   3.953   0.322
56804SOL     OW72308   0.208   7.046   8.224
56804SOL    HW172309   0.268   6.978   8.254
56804SOL    HW272310   0.210   7.039   8.129
56805SOL     OW72311  10.048   3.999   9.342
56805SOL    HW172312  10.054   4.078   9.395
56805SOL    HW272313  10.060   3.927   9.404
56806SOL     OW72314   7.745   2.353   2.016
56806SOL    HW172315   7.670   2.314   2.062
56806SOL    HW272316   7.822   2.317   2.061
56807SOL     OW72317   8.510  10.100  14.193
56807SOL    HW172318   8.559  10.085  14.275
56807SOL    HW272319   8.517  10.194  14.178
56808SOL     OW72320   1.123   4.325   3.432
56808SOL    HW172321   1.154   4.247   3.478
56808SOL    HW272322   1.096   4.293   3.346
56809SOL     OW72323   4.147  12.629  11.741
56809SOL    HW172324   4.071  12.667  11.697
56809SOL    HW272325   4.206  12.703  11.755
56810SOL     OW72326   4.614  12.131  13.925
56810SOL    HW172327   4.599  12.062  13.990
56810SOL    HW272328   4.689  12.100  13.874
56811SOL     OW72329   1.377   1.339   0.607
56811SOL    HW172330   1.385   1.244   0.614
56811SOL    HW272331   1.389   1.370   0.697
56812SOL     OW72332   6.865  11.511   0.875
56812SOL    HW172333   6.941  11.535   0.821
56812SOL    HW272334   6.901  11.494   0.961
56813SOL     OW72335  10.618   9.671  10.961
56813SOL    HW172336  10.681   9.617  10.915
56813SOL    HW272337  10.623   9.642  11.052
56814SOL     OW72338   1.258   5.649   1.528
56814SOL    HW172339   1.345   5.614   1.504
56814SOL    HW272340   1.234   5.705   1.454
56815SOL     OW72341  14.831  13.823   4.729
56815SOL    HW172342  14.816  13.774   4.648
56815SOL    HW272343   0.038  13.857   4.720
56816SOL     OW72344   2.199   3.373   0.225
56816SOL    HW172345   2.269   3.375   0.290
56816SOL    HW272346   2.128   3.423   0.264
56817SOL     OW72347   3.883   3.259   6.842
56817SOL    HW172348   3.857   3.298   6.758
56817SOL    HW272349   3.905   3.334   6.897
56818SOL     OW72350   7.800   5.115   0.037
56818SOL    HW172351   7.894   5.111   0.054
56818SOL    HW272352   7.779   5.209   0.042
56819SOL     OW72353   2.658   2.345   1.573
56819SOL    HW172354   2.575   2.308   1.545
56819SOL    HW272355   2.687   2.398   1.499
56820SOL     OW72356  11.885   8.829   0.843
56820SOL    HW172357  11.914   8.800   0.930
56820SOL    HW272358  11.803   8.875   0.858
56821SOL     OW72359  14.749   7.597   9.467
56821SOL    HW172360  14.660   7.576   9.439
56821SOL    HW272361  14.760   7.689   9.444
56822SOL     OW72362  13.468   1.952   8.975
56822SOL    HW172363  13.386   1.906   8.961
56822SOL    HW272364  13.520   1.892   9.028
56823SOL     OW72365  11.586   2.059   7.856
56823SOL    HW172366  11.507   2.096   7.895
56823SOL    HW272367  11.657   2.085   7.915
56824SOL     OW72368  14.154  11.772   6.865
56824SOL    HW172369  14.093  11.708   6.901
56824SOL    HW272370  14.234  11.759   6.916
56825SOL     OW72371  13.035   6.571   2.514
56825SOL    HW172372  13.050   6.596   2.423
56825SOL    HW272373  13.050   6.477   2.516
56826SOL     OW72374   8.859   0.327   2.281
56826SOL    HW172375   8.777   0.372   2.301
56826SOL    HW272376   8.904   0.386   2.220
56827SOL     OW72377   3.336  12.729   4.496
56827SOL    HW172378   3.354  12.822   4.507
56827SOL    HW272379   3.354  12.690   4.581
56828SOL     OW72380   6.618   4.277  13.508
56828SOL    HW172381   6.713   4.270  13.512
56828SOL    HW272382   6.601   4.342  13.440
56829SOL     OW72383   9.930  12.998  13.933
56829SOL    HW172384   9.960  12.923  13.881
56829SOL    HW272385   9.952  13.075  13.881
56830SOL     OW72386   7.728   1.586   6.153
56830SOL    HW172387   7.724   1.579   6.249
56830SOL    HW272388   7.814   1.624   6.136
56831SOL     OW72389   1.977   4.615   8.809
56831SOL    HW172390   1.945   4.695   8.849
56831SOL    HW272391   1.936   4.613   8.723
56832SOL     OW72392  10.204  11.826   8.456
56832SOL    HW172393  10.238  11.871   8.533
56832SOL    HW272394  10.139  11.887   8.420
56833SOL     OW72395   7.544   5.996   4.836
56833SOL    HW172396   7.455   5.963   4.847
56833SOL    HW272397   7.547   6.026   4.745
56834SOL     OW72398  14.848  10.609   0.498
56834SOL    HW172399  14.794  10.643   0.569
56834SOL    HW272400  14.837  10.673   0.427
56835SOL     OW72401   6.071   6.613   5.295
56835SOL    HW172402   6.064   6.692   5.348
56835SOL    HW272403   6.096   6.544   5.357
56836SOL     OW72404   3.241  11.546   2.911
56836SOL    HW172405   3.230  11.579   3.000
56836SOL    HW272406   3.221  11.453   2.918
56837SOL     OW72407  14.000   1.630   4.716
56837SOL    HW172408  14.020   1.537   4.703
56837SOL    HW272409  13.915   1.629   4.761
56838SOL     OW72410  11.467   2.204  14.109
56838SOL    HW172411  11.480   2.139  14.178
56838SOL    HW272412  11.476   2.288  14.155
56839SOL     OW72413  14.814  11.965   3.965
56839SOL    HW172414   0.008  11.916   3.996
56839SOL    HW272415  14.763  11.982   4.044
56840SOL     OW72416  10.029   3.488  11.388
56840SOL    HW172417   9.969   3.417  11.411
56840SOL    HW272418  10.066   3.462  11.304
56841SOL     OW72419   4.649   3.973   4.108
56841SOL    HW172420   4.562   3.952   4.143
56841SOL    HW272421   4.693   4.019   4.180
56842SOL     OW72422  11.947   9.680  12.578
56842SOL    HW172423  12.017   9.686  12.643
56842SOL    HW272424  11.932   9.586  12.568
56843SOL     OW72425   9.031  14.453   8.860
56843SOL    HW172426   9.007  14.361   8.852
56843SOL    HW272427   8.960  14.492   8.910
56844SOL     OW72428  11.628  11.182   3.734
56844SOL    HW172429  11.719  11.197   3.760
56844SOL    HW272430  11.623  11.088   3.715
56845SOL     OW72431   1.999   0.815  12.884
56845SOL    HW172432   1.989   0.910  12.892
56845SOL    HW272433   1.962   0.795  12.798
56846SOL     OW72434   5.422   2.033   8.310
56846SOL    HW172435   5.475   2.066   8.238
56846SOL    HW272436   5.332   2.056   8.286
56847SOL     OW72437   8.789   7.701   8.538
56847SOL    HW172438   8.855   7.733   8.477
56847SOL    HW272439   8.805   7.607   8.543
56848SOL     OW72440  13.100  12.287  14.100
56848SOL    HW172441  13.168  12.268  14.036
56848SOL    HW272442  13.106  12.382  14.114
56849SOL     OW72443  12.105  12.135   6.980
56849SOL    HW172444  12.079  12.061   7.035
56849SOL    HW272445  12.157  12.096   6.910
56850SOL     OW72446   2.030   3.031   5.563
56850SOL    HW172447   2.052   2.994   5.648
56850SOL    HW272448   2.098   2.998   5.504
56851SOL     OW72449   4.748   2.273   9.972
56851SOL    HW172450   4.696   2.319   9.906
56851SOL    HW272451   4.699   2.193   9.991
56852SOL     OW72452   1.546   4.103   5.304
56852SOL    HW172453   1.535   4.025   5.359
56852SOL    HW272454   1.640   4.122   5.306
56853SOL     OW72455   1.682   3.901   7.754
56853SOL    HW172456   1.677   3.817   7.800
56853SOL    HW272457   1.682   3.877   7.662
56854SOL     OW72458  12.206  13.817   9.760
56854SOL    HW172459  12.197  13.750   9.692
56854SOL    HW272460  12.213  13.769   9.842
56855SOL     OW72461   2.796   9.455  11.081
56855SOL    HW172462   2.889   9.469  11.069
56855SOL    HW272463   2.770   9.399  11.008
56856SOL     OW72464  14.860  10.692   7.055
56856SOL    HW172465  14.861  10.596   7.063
56856SOL    HW272466  14.778  10.712   7.011
56857SOL     OW72467  11.875  10.357   4.565
56857SOL    HW172468  11.927  10.342   4.645
56857SOL    HW272469  11.804  10.293   4.570
56858SOL     OW72470   3.089   7.168   7.149
56858SOL    HW172471   3.035   7.144   7.074
56858SOL    HW272472   3.093   7.264   7.145
56859SOL     OW72473   0.766   8.986   7.824
56859SOL    HW172474   0.774   8.939   7.741
56859SOL    HW272475   0.851   9.030   7.834
56860SOL     OW72476  12.262   0.933   6.083
56860SOL    HW172477  12.334   0.870   6.074
56860SOL    HW272478  12.254   0.973   5.997
56861SOL     OW72479   5.621   3.729   8.974
56861SOL    HW172480   5.555   3.757   9.038
56861SOL    HW272481   5.687   3.798   8.976
56862SOL     OW72482  12.864   9.097   9.853
56862SOL    HW172483  12.840   9.078   9.944
56862SOL    HW272484  12.958   9.082   9.849
56863SOL     OW72485   5.588   0.605   0.173
56863SOL    HW172486   5.528   0.531   0.168
56863SOL    HW272487   5.667   0.569   0.212
56864SOL     OW72488  12.716   3.380   4.952
56864SOL    HW172489  12.812   3.383   4.945
56864SOL    HW272490  12.698   3.351   5.041
56865SOL     OW72491   4.833  11.143   3.175
56865SOL    HW172492   4.783  11.148   3.094
56865SOL    HW272493   4.856  11.234   3.195
56866SOL     OW72494   2.786   8.008   1.184
56866SOL    HW172495   2.745   8.000   1.271
56866SOL    HW272496   2.788   7.919   1.150
56867SOL     OW72497   7.862   3.865   7.740
56867SOL    HW172498   7.814   3.875   7.822
56867SOL    HW272499   7.898   3.952   7.722
56868SOL     OW72500  13.759   8.898   5.463
56868SOL    HW172501  13.795   8.852   5.539
56868SOL    HW272502  13.829   8.895   5.397
56869SOL     OW72503   9.998   5.497  13.482
56869SOL    HW172504  10.076   5.441  13.487
56869SOL    HW272505  10.033   5.586  13.490
56870SOL     OW72506   4.636   5.948   9.709
56870SOL    HW172507   4.610   5.984   9.794
56870SOL    HW272508   4.628   6.021   9.648
56871SOL     OW72509  12.504   6.328   1.958
56871SOL    HW172510  12.567   6.346   1.888
56871SOL    HW272511  12.429   6.383   1.937
56872SOL     OW72512  13.512   7.995   0.086
56872SOL    HW172513  13.432   7.950   0.059
56872SOL    HW272514  13.494   8.025   0.175
56873SOL     OW72515   2.282   1.472   1.689
56873SOL    HW172516   2.356   1.532   1.694
56873SOL    HW272517   2.223   1.500   1.758
56874SOL     OW72518  13.071   3.180  12.732
56874SOL    HW172519  13.015   3.255  12.711
56874SOL    HW272520  13.022   3.104  12.701
56875SOL     OW72521   6.389  13.203   9.922
56875SOL    HW172522   6.383  13.124   9.868
56875SOL    HW272523   6.446  13.262   9.873
56876SOL     OW72524   7.238   9.346   9.703
56876SOL    HW172525   7.152   9.388   9.710
56876SOL    HW272526   7.234   9.297   9.621
56877SOL     OW72527   1.764   3.840  14.503
56877SOL    HW172528   1.713   3.907  14.547
56877SOL    HW272529   1.702   3.795  14.446
56878SOL     OW72530   3.985   3.934  12.227
56878SOL    HW172531   4.029   3.935  12.142
56878SOL    HW272532   4.042   3.985  12.284
56879SOL     OW72533   2.356  14.564  14.279
56879SOL    HW172534   2.283  14.503  14.288
56879SOL    HW272535   2.370  14.598  14.368
56880SOL     OW72536   8.073  14.799   5.619
56880SOL    HW172537   8.026  14.756   5.547
56880SOL    HW272538   8.130  14.862   5.576
56881SOL     OW72539  12.677   0.047  12.576
56881SOL    HW172540  12.667  14.836  12.598
56881SOL    HW272541  12.771   0.064  12.585
56882SOL     OW72542   9.764  14.665  11.829
56882SOL    HW172543   9.850  14.623  11.833
56882SOL    HW272544   9.702  14.593  11.839
56883SOL     OW72545   5.551  14.401   2.410
56883SOL    HW172546   5.590  14.409   2.497
56883SOL    HW272547   5.500  14.482   2.399
56884SOL     OW72548   2.269   3.243  12.967
56884SOL    HW172549   2.321   3.323  12.976
56884SOL    HW272550   2.179   3.271  12.983
56885SOL     OW72551  14.295   6.510  11.260
56885SOL    HW172552  14.274   6.523  11.352
56885SOL    HW272553  14.290   6.415  11.247
56886SOL     OW72554   9.091   3.613   3.444
56886SOL    HW172555   9.133   3.690   3.405
56886SOL    HW272556   9.017   3.650   3.493
56887SOL     OW72557   2.668   7.479  14.341
56887SOL    HW172558   2.578   7.489  14.310
56887SOL    HW272559   2.720   7.527  14.277
56888SOL     OW72560   7.861   2.995   3.943
56888SOL    HW172561   7.803   2.959   3.876
56888SOL    HW272562   7.804   3.009   4.019
56889SOL     OW72563   7.720   4.959   2.932
56889SOL    HW172564   7.782   5.032   2.922
56889SOL    HW272565   7.709   4.925   2.843
56890SOL     OW72566   0.060   5.864   0.419
56890SOL    HW172567   0.110   5.824   0.348
56890SOL    HW272568   0.025   5.945   0.381
56891SOL     OW72569   9.242   7.004   2.037
56891SOL    HW172570   9.185   7.047   1.974
56891SOL    HW272571   9.282   6.931   1.989
56892SOL     OW72572   2.370  13.464   2.469
56892SOL    HW172573   2.425  13.475   2.392
56892SOL    HW272574   2.428  13.430   2.537
56893SOL     OW72575   3.645   9.072  11.663
56893SOL    HW172576   3.553   9.093  11.680
56893SOL    HW272577   3.690   9.157  11.665
56894SOL     OW72578   8.300  11.734   6.393
56894SOL    HW172579   8.310  11.640   6.403
56894SOL    HW272580   8.372  11.772   6.443
56895SOL     OW72581   1.255   1.921  12.175
56895SOL    HW172582   1.312   1.864  12.122
56895SOL    HW272583   1.171   1.920  12.129
56896SOL     OW72584   2.907  14.190  11.453
56896SOL    HW172585   2.858  14.265  11.419
56896SOL    HW272586   2.986  14.229  11.491
56897SOL     OW72587   8.195   8.167   1.425
56897SOL    HW172588   8.215   8.094   1.484
56897SOL    HW272589   8.166   8.237   1.483
56898SOL     OW72590   8.404   6.278  14.697
56898SOL    HW172591   8.481   6.286  14.640
56898SOL    HW272592   8.347   6.350  14.669
56899SOL     OW72593   2.725  11.052   3.116
56899SOL    HW172594   2.713  10.957   3.112
56899SOL    HW272595   2.702  11.076   3.206
56900SOL     OW72596   2.776   6.607  12.881
56900SOL    HW172597   2.800   6.653  12.962
56900SOL    HW272598   2.837   6.534  12.875
56901SOL     OW72599  14.831   7.542   1.857
56901SOL    HW172600  14.758   7.605   1.859
56901SOL    HW272601   0.025   7.595   1.837
56902SOL     OW72602  12.135   3.586   7.763
56902SOL    HW172603  12.168   3.516   7.707
56902SOL    HW272604  12.095   3.541   7.837
56903SOL     OW72605  10.740  12.954   9.236
56903SOL    HW172606  10.793  12.876   9.217
56903SOL    HW272607  10.650  12.921   9.241
56904SOL     OW72608   0.674   0.116  13.268
56904SOL    HW172609   0.579   0.130  13.275
56904SOL    HW272610   0.700   0.167  13.191
56905SOL     OW72611  12.984  10.549  13.370
56905SOL    HW172612  12.903  10.544  13.320
56905SOL    HW272613  12.958  10.526  13.460
56906SOL     OW72614   7.206  14.597   7.396
56906SOL    HW172615   7.110  14.604   7.388
56906SOL    HW272616   7.233  14.683   7.429
56907SOL     OW72617  12.802   8.252   8.793
56907SOL    HW172618  12.884   8.204   8.782
56907SOL    HW272619  12.735   8.184   8.792
56908SOL     OW72620   2.795  12.518   6.614
56908SOL    HW172621   2.700  12.521   6.614
56908SOL    HW272622   2.817  12.426   6.626
56909SOL     OW72623   0.326   6.724  13.780
56909SOL    HW172624   0.291   6.812  13.797
56909SOL    HW272625   0.419   6.731  13.797
56910SOL     OW72626  10.603  11.473   7.921
56910SOL    HW172627  10.686  11.435   7.948
56910SOL    HW272628  10.616  11.497   7.829
56911SOL     OW72629  10.665   0.725  12.968
56911SOL    HW172630  10.689   0.729  13.060
56911SOL    HW272631  10.571   0.706  12.969
56912SOL     OW72632   5.460   9.670   9.168
56912SOL    HW172633   5.419   9.660   9.082
56912SOL    HW272634   5.396   9.720   9.219
56913SOL     OW72635   6.943  10.993  13.919
56913SOL    HW172636   7.025  10.942  13.923
56913SOL    HW272637   6.896  10.956  13.845
56914SOL     OW72638  14.361  13.276   2.056
56914SOL    HW172639  14.272  13.292   2.087
56914SOL    HW272640  14.387  13.359   2.015
56915SOL     OW72641  10.711   3.789   3.566
56915SOL    HW172642  10.645   3.754   3.627
56915SOL    HW272643  10.660   3.816   3.489
56916SOL     OW72644  13.842   2.533   5.461
56916SOL    HW172645  13.918   2.553   5.516
56916SOL    HW272646  13.879   2.486   5.386
56917SOL     OW72647  13.485   0.184   2.880
56917SOL    HW172648  13.534   0.132   2.816
56917SOL    HW272649  13.401   0.203   2.838
56918SOL     OW72650  13.343   0.903   9.429
56918SOL    HW172651  13.401   0.848   9.481
56918SOL    HW272652  13.282   0.941   9.493
56919SOL     OW72653   0.832  11.824   1.211
56919SOL    HW172654   0.854  11.818   1.118
56919SOL    HW272655   0.774  11.750   1.227
56920SOL     OW72656  13.672   5.025  10.820
56920SOL    HW172657  13.681   4.937  10.856
56920SOL    HW272658  13.666   5.012  10.725
56921SOL     OW72659   3.212   7.629  11.847
56921SOL    HW172660   3.193   7.596  11.935
56921SOL    HW272661   3.141   7.690  11.828
56922SOL     OW72662   4.143  14.363   1.381
56922SOL    HW172663   4.105  14.357   1.293
56922SOL    HW272664   4.193  14.445   1.380
56923SOL     OW72665  12.746   4.209  12.087
56923SOL    HW172666  12.768   4.196  11.995
56923SOL    HW272667  12.668   4.155  12.102
56924SOL     OW72668   5.100  13.554   8.949
56924SOL    HW172669   5.010  13.579   8.927
56924SOL    HW272670   5.095  13.522   9.039
56925SOL     OW72671   4.552   9.657   4.248
56925SOL    HW172672   4.643   9.628   4.244
56925SOL    HW272673   4.505   9.581   4.284
56926SOL     OW72674   6.853   4.373   1.678
56926SOL    HW172675   6.867   4.432   1.752
56926SOL    HW272676   6.803   4.426   1.615
56927SOL     OW72677   7.134   8.568  12.344
56927SOL    HW172678   7.135   8.659  12.375
56927SOL    HW272679   7.151   8.575  12.250
56928SOL     OW72680  13.088   3.861   0.417
56928SOL    HW172681  13.012   3.874   0.472
56928SOL    HW272682  13.084   3.770   0.390
56929SOL     OW72683   7.145   7.263  12.055
56929SOL    HW172684   7.239   7.278  12.042
56929SOL    HW272685   7.137   7.169  12.069
56930SOL     OW72686  13.639   8.328   0.401
56930SOL    HW172687  13.597   8.289   0.324
56930SOL    HW272688  13.701   8.391   0.364
56931SOL     OW72689   0.963   5.692  11.819
56931SOL    HW172690   0.916   5.699  11.902
56931SOL    HW272691   1.022   5.767  11.818
56932SOL     OW72692  12.285   3.672   5.336
56932SOL    HW172693  12.322   3.620   5.264
56932SOL    HW272694  12.331   3.640   5.414
56933SOL     OW72695  11.209  13.931  10.652
56933SOL    HW172696  11.293  13.977  10.657
56933SOL    HW272697  11.232  13.845  10.617
56934SOL     OW72698   6.257   6.392   9.108
56934SOL    HW172699   6.312   6.323   9.145
56934SOL    HW272700   6.207   6.347   9.040
56935SOL     OW72701   4.203   5.598   2.529
56935SOL    HW172702   4.255   5.569   2.454
56935SOL    HW272703   4.132   5.649   2.490
56936SOL     OW72704  12.110   5.645   6.103
56936SOL    HW172705  12.163   5.576   6.142
56936SOL    HW272706  12.144   5.726   6.141
56937SOL     OW72707   0.067  14.115   5.001
56937SOL    HW172708   0.150  14.085   5.036
56937SOL    HW272709   0.042  14.189   5.056
56938SOL     OW72710  14.482   1.237   0.372
56938SOL    HW172711  14.539   1.202   0.303
56938SOL    HW272712  14.455   1.160   0.422
56939SOL     OW72713   9.470   7.031   9.260
56939SOL    HW172714   9.379   7.004   9.274
56939SOL    HW272715   9.518   6.988   9.331
56940SOL     OW72716   6.504   6.608   3.471
56940SOL    HW172717   6.556   6.539   3.514
56940SOL    HW272718   6.526   6.688   3.519
56941SOL     OW72719   8.795   6.491   6.896
56941SOL    HW172720   8.726   6.469   6.959
56941SOL    HW272721   8.874   6.500   6.949
56942SOL     OW72722   7.772   7.329   7.005
56942SOL    HW172723   7.835   7.291   6.943
56942SOL    HW272724   7.703   7.263   7.013
56943SOL     OW72725   9.020  12.567   1.737
56943SOL    HW172726   9.053  12.496   1.682
56943SOL    HW272727   9.052  12.647   1.694
56944SOL     OW72728   4.822  12.153  11.579
56944SOL    HW172729   4.809  12.112  11.493
56944SOL    HW272730   4.736  12.148  11.621
56945SOL     OW72731  10.555   3.191  12.412
56945SOL    HW172732  10.573   3.138  12.334
56945SOL    HW272733  10.640   3.200  12.455
56946SOL     OW72734   0.264  12.074   8.321
56946SOL    HW172735   0.286  12.044   8.409
56946SOL    HW272736   0.169  12.071   8.317
56947SOL     OW72737   6.823  14.305   1.115
56947SOL    HW172738   6.816  14.345   1.028
56947SOL    HW272739   6.819  14.211   1.099
56948SOL     OW72740   9.625  13.385  12.202
56948SOL    HW172741   9.670  13.307  12.169
56948SOL    HW272742   9.582  13.422  12.126
56949SOL     OW72743   1.979   3.852   0.665
56949SOL    HW172744   1.980   3.868   0.760
56949SOL    HW272745   1.888   3.826   0.647
56950SOL     OW72746  11.557   3.125   7.604
56950SOL    HW172747  11.621   3.054   7.596
56950SOL    HW272748  11.472   3.083   7.586
56951SOL     OW72749   2.817  14.118   9.336
56951SOL    HW172750   2.911  14.136   9.338
56951SOL    HW272751   2.810  14.022   9.344
56952SOL     OW72752   6.501   6.408   3.047
56952SOL    HW172753   6.450   6.334   3.015
56952SOL    HW272754   6.528   6.382   3.135
56953SOL     OW72755   4.242   5.034   2.909
56953SOL    HW172756   4.236   4.954   2.856
56953SOL    HW272757   4.159   5.037   2.957
56954SOL     OW72758  12.647   7.544   9.053
56954SOL    HW172759  12.671   7.452   9.064
56954SOL    HW272760  12.618   7.550   8.962
56955SOL     OW72761  14.381  12.848   2.358
56955SOL    HW172762  14.417  12.905   2.426
56955SOL    HW272763  14.339  12.777   2.406
56956SOL     OW72764  14.304   8.596   0.212
56956SOL    HW172765  14.225   8.546   0.196
56956SOL    HW272766  14.283   8.685   0.184
56957SOL     OW72767  14.732   4.153   5.617
56957SOL    HW172768  14.670   4.102   5.669
56957SOL    HW272769  14.798   4.090   5.589
56958SOL     OW72770   3.994  14.071   0.852
56958SOL    HW172771   3.970  14.072   0.759
56958SOL    HW272772   3.947  13.995   0.888
56959SOL     OW72773  13.666  13.542   6.791
56959SOL    HW172774  13.587  13.595   6.799
56959SOL    HW272775  13.658  13.500   6.705
56960SOL     OW72776   3.220  13.070  10.219
56960SOL    HW172777   3.215  13.132  10.146
56960SOL    HW272778   3.302  13.023  10.205
56961SOL     OW72779  13.394   2.958   4.000
56961SOL    HW172780  13.326   3.013   3.961
56961SOL    HW272781  13.347   2.891   4.048
56962SOL     OW72782   7.680   1.103  12.724
56962SOL    HW172783   7.750   1.115  12.660
56962SOL    HW272784   7.600   1.105  12.672
56963SOL     OW72785   9.185   6.737   2.250
56963SOL    HW172786   9.263   6.792   2.262
56963SOL    HW272787   9.158   6.713   2.338
56964SOL     OW72788   1.501   9.554   5.886
56964SOL    HW172789   1.413   9.563   5.851
56964SOL    HW272790   1.502   9.466   5.924
56965SOL     OW72791   7.421   8.612   1.155
56965SOL    HW172792   7.443   8.538   1.212
56965SOL    HW272793   7.332   8.636   1.180
56966SOL     OW72794  11.293   6.129  12.149
56966SOL    HW172795  11.220   6.183  12.120
56966SOL    HW272796  11.256   6.069  12.213
56967SOL     OW72797  10.366  13.487  14.493
56967SOL    HW172798  10.430  13.495  14.564
56967SOL    HW272799  10.415  13.446  14.421
56968SOL     OW72800  11.970   1.975   4.442
56968SOL    HW172801  11.911   2.024   4.500
56968SOL    HW272802  11.997   1.899   4.493
56969SOL     OW72803   5.642   7.374  11.860
56969SOL    HW172804   5.668   7.413  11.777
56969SOL    HW272805   5.632   7.448  11.920
56970SOL     OW72806   9.269   3.275   5.537
56970SOL    HW172807   9.349   3.301   5.491
56970SOL    HW272808   9.218   3.356   5.545
56971SOL     OW72809   2.752   1.575   8.444
56971SOL    HW172810   2.780   1.658   8.482
56971SOL    HW272811   2.686   1.542   8.505
56972SOL     OW72812   9.121  14.731   8.624
56972SOL    HW172813   9.111  14.668   8.553
56972SOL    HW272814   9.045  14.716   8.680
56973SOL     OW72815   5.112   9.897   1.681
56973SOL    HW172816   5.054   9.954   1.733
56973SOL    HW272817   5.113   9.814   1.729
56974SOL     OW72818  10.048  10.639  12.540
56974SOL    HW172819  10.062  10.719  12.591
56974SOL    HW272820   9.953  10.628  12.539
56975SOL     OW72821   7.089   1.486   9.744
56975SOL    HW172822   7.174   1.506   9.783
56975SOL    HW272823   7.095   1.394   9.719
56976SOL     OW72824   1.301   8.829   2.751
56976SOL    HW172825   1.365   8.876   2.697
56976SOL    HW272826   1.265   8.762   2.693
56977SOL     OW72827  12.441   8.144  13.197
56977SOL    HW172828  12.402   8.220  13.154
56977SOL    HW272829  12.535   8.161  13.195
56978SOL     OW72830   1.979   0.686   6.154
56978SOL    HW172831   1.991   0.595   6.183
56978SOL    HW272832   1.886   0.703   6.170
56979SOL     OW72833   2.803   7.315  14.497
56979SOL    HW172834   2.755   7.378  14.444
56979SOL    HW272835   2.843   7.255  14.434
56980SOL     OW72836   8.035   7.460   6.629
56980SOL    HW172837   7.940   7.463   6.640
56980SOL    HW272838   8.063   7.552   6.628
56981SOL     OW72839   1.173   2.792   9.349
56981SOL    HW172840   1.144   2.874   9.390
56981SOL    HW272841   1.253   2.816   9.303
56982SOL     OW72842  11.191   1.219   0.126
56982SOL    HW172843  11.125   1.266   0.177
56982SOL    HW272844  11.148   1.138   0.098
56983SOL     OW72845   2.826   5.675   8.316
56983SOL    HW172846   2.796   5.587   8.340
56983SOL    HW272847   2.920   5.666   8.302
56984SOL     OW72848   7.985   0.151  11.054
56984SOL    HW172849   7.897   0.168  11.022
56984SOL    HW272850   8.022   0.238  11.071
56985SOL     OW72851  14.839   4.393   5.526
56985SOL    HW172852   0.022   4.372   5.459
56985SOL    HW272853  14.814   4.307   5.561
56986SOL     OW72854   8.960   3.613  12.838
56986SOL    HW172855   8.884   3.666  12.858
56986SOL    HW272856   8.927   3.544  12.780
56987SOL     OW72857   7.131   7.688   6.512
56987SOL    HW172858   7.215   7.684   6.558
56987SOL    HW272859   7.072   7.731   6.574
56988SOL     OW72860   6.090   5.947  13.125
56988SOL    HW172861   6.035   5.921  13.200
56988SOL    HW272862   6.049   5.905  13.050
56989SOL     OW72863   2.304  11.022  11.678
56989SOL    HW172864   2.381  11.058  11.633
56989SOL    HW272865   2.277  10.948  11.624
56990SOL     OW72866   5.231   1.422   8.275
56990SOL    HW172867   5.279   1.381   8.347
56990SOL    HW272868   5.295   1.481   8.235
56991SOL     OW72869   1.151   6.470  14.457
56991SOL    HW172870   1.193   6.505  14.535
56991SOL    HW272871   1.175   6.377  14.456
56992SOL     OW72872  10.745   5.625   4.993
56992SOL    HW172873  10.813   5.670   5.045
56992SOL    HW272874  10.694   5.696   4.955
56993SOL     OW72875   1.664   6.587   9.247
56993SOL    HW172876   1.676   6.494   9.265
56993SOL    HW272877   1.748   6.626   9.272
56994SOL     OW72878   9.556  10.026  14.232
56994SOL    HW172879   9.616  10.088  14.274
56994SOL    HW272880   9.549  10.057  14.142
56995SOL     OW72881   0.275  14.601   2.402
56995SOL    HW172882   0.189  14.641   2.390
56995SOL    HW272883   0.273  14.522   2.348
56996SOL     OW72884   3.957  13.587   3.709
56996SOL    HW172885   4.049  13.601   3.685
56996SOL    HW272886   3.909  13.600   3.627
56997SOL     OW72887   7.138   8.844   5.949
56997SOL    HW172888   7.176   8.926   5.982
56997SOL    HW272889   7.074   8.872   5.884
56998SOL     OW72890   0.041   1.922   9.735
56998SOL    HW172891   0.012   1.879   9.654
56998SOL    HW272892   0.134   1.937   9.722
56999SOL     OW72893  13.215   2.566  10.311
56999SOL    HW172894  13.247   2.612  10.233
56999SOL    HW272895  13.293   2.527  10.349
57000SOL     OW72896  10.468   9.716   9.369
57000SOL    HW172897  10.399   9.775   9.398
57000SOL    HW272898  10.428   9.629   9.371
57001SOL     OW72899   4.106  12.605  13.210
57001SOL    HW172900   4.189  12.580  13.251
57001SOL    HW272901   4.121  12.694  13.178
57002SOL     OW72902   1.801  14.827  12.495
57002SOL    HW172903   1.707  14.836  12.476
57002SOL    HW272904   1.807  14.754  12.555
57003SOL     OW72905  13.137   7.251  11.007
57003SOL    HW172906  13.232   7.251  11.010
57003SOL    HW272907  13.115   7.247  10.914
57004SOL     OW72908  11.357   7.740  11.433
57004SOL    HW172909  11.359   7.810  11.497
57004SOL    HW272910  11.289   7.766  11.370
57005SOL     OW72911   0.980   4.979   2.918
57005SOL    HW172912   0.920   4.930   2.862
57005SOL    HW272913   1.064   4.933   2.911
57006SOL     OW72914   5.260   0.506  11.759
57006SOL    HW172915   5.243   0.596  11.786
57006SOL    HW272916   5.279   0.511  11.665
57007SOL     OW72917   7.443   3.431   8.341
57007SOL    HW172918   7.531   3.469   8.339
57007SOL    HW272919   7.426   3.415   8.433
57008SOL     OW72920  12.460   0.340   4.494
57008SOL    HW172921  12.447   0.320   4.586
57008SOL    HW272922  12.380   0.309   4.451
57009SOL     OW72923   5.590   9.181  11.434
57009SOL    HW172924   5.681   9.156  11.449
57009SOL    HW272925   5.580   9.177  11.339
57010SOL     OW72926   9.118   3.509   9.526
57010SOL    HW172927   9.211   3.487   9.530
57010SOL    HW272928   9.079   3.460   9.598
57011SOL     OW72929   4.084   7.484   5.232
57011SOL    HW172930   4.117   7.455   5.317
57011SOL    HW272931   4.107   7.577   5.228
57012SOL     OW72932   9.777   6.834   7.745
57012SOL    HW172933   9.740   6.906   7.694
57012SOL    HW272934   9.770   6.863   7.836
57013SOL     OW72935  12.643   3.492  14.324
57013SOL    HW172936  12.656   3.397  14.332
57013SOL    HW272937  12.653   3.524  14.414
57014SOL     OW72938  12.925   2.983   7.557
57014SOL    HW172939  12.953   2.935   7.635
57014SOL    HW272940  12.830   2.968   7.553
57015SOL     OW72941   9.971   1.391   9.054
57015SOL    HW172942   9.899   1.439   9.015
57015SOL    HW272943   9.985   1.316   8.996
57016SOL     OW72944   7.200   5.559   3.009
57016SOL    HW172945   7.247   5.478   3.026
57016SOL    HW272946   7.127   5.532   2.953
57017SOL     OW72947  13.379   5.910   3.020
57017SOL    HW172948  13.291   5.933   3.049
57017SOL    HW272949  13.393   5.962   2.940
57018SOL     OW72950   5.575  10.430   9.954
57018SOL    HW172951   5.613  10.404  10.038
57018SOL    HW272952   5.626  10.383   9.888
57019SOL     OW72953   0.398   4.403   8.829
57019SOL    HW172954   0.492   4.391   8.815
57019SOL    HW272955   0.360   4.316   8.815
57020SOL     OW72956   6.000   6.906   0.814
57020SOL    HW172957   6.029   6.934   0.727
57020SOL    HW272958   6.075   6.859   0.850
57021SOL     OW72959  11.401   3.269  11.357
57021SOL    HW172960  11.468   3.227  11.412
57021SOL    HW272961  11.400   3.360  11.388
57022SOL     OW72962   0.152   6.799   5.572
57022SOL    HW172963   0.181   6.725   5.627
57022SOL    HW272964   0.067   6.771   5.539
57023SOL     OW72965  11.010   5.074  10.969
57023SOL    HW172966  11.064   5.131  10.913
57023SOL    HW272967  10.962   5.135  11.025
57024SOL     OW72968   8.837  12.257   7.312
57024SOL    HW172969   8.844  12.317   7.237
57024SOL    HW272970   8.746  12.225   7.309
57025SOL     OW72971   9.608   7.269   1.901
57025SOL    HW172972   9.538   7.291   1.840
57025SOL    HW272973   9.564   7.256   1.985
57026SOL     OW72974   6.769  13.112  13.325
57026SOL    HW172975   6.857  13.137  13.352
57026SOL    HW272976   6.713  13.138  13.398
57027SOL     OW72977  10.949   3.930  14.673
57027SOL    HW172978  11.022   3.906  14.617
57027SOL    HW272979  10.875   3.941  14.612
57028SOL     OW72980  11.522   3.899  12.954
57028SOL    HW172981  11.609   3.862  12.969
57028SOL    HW272982  11.461   3.829  12.978
57029SOL     OW72983   6.386  14.394  11.671
57029SOL    HW172984   6.395  14.457  11.600
57029SOL    HW272985   6.368  14.311  11.628
57030SOL     OW72986   8.601  14.865   6.366
57030SOL    HW172987   8.640   0.037   6.434
57030SOL    HW272988   8.639  14.778   6.380
57031SOL     OW72989  13.361   9.424  10.122
57031SOL    HW172990  13.386   9.398  10.033
57031SOL    HW272991  13.399   9.357  10.178
57032SOL     OW72992   3.137  12.712   5.651
57032SOL    HW172993   3.134  12.689   5.744
57032SOL    HW272994   3.050  12.689   5.618
57033SOL     OW72995   4.655   8.092   3.221
57033SOL    HW172996   4.746   8.072   3.241
57033SOL    HW272997   4.646   8.072   3.127
57034SOL     OW72998   2.428   5.451   7.399
57034SOL    HW172999   2.510   5.444   7.349
57034SOL    HW273000   2.362   5.412   7.342
57035SOL     OW73001  13.127   0.494   8.245
57035SOL    HW173002  13.191   0.491   8.174
57035SOL    HW273003  13.059   0.553   8.213
57036SOL     OW73004   6.035   5.970   1.997
57036SOL    HW173005   6.068   5.964   2.087
57036SOL    HW273006   6.091   5.911   1.947
57037SOL     OW73007   3.723  12.995  12.240
57037SOL    HW173008   3.687  13.024  12.324
57037SOL    HW273009   3.695  13.061  12.177
57038SOL     OW73010  13.154   0.097   2.175
57038SOL    HW173011  13.073   0.120   2.130
57038SOL    HW273012  13.172   0.008   2.146
57039SOL     OW73013   7.970   6.689  13.840
57039SOL    HW173014   8.009   6.749  13.776
57039SOL    HW273015   8.043   6.632  13.866
57040SOL     OW73016   8.491  10.648  10.263
57040SOL    HW173017   8.507  10.738  10.292
57040SOL    HW273018   8.572  10.602  10.286
57041SOL     OW73019   6.586   8.761  10.850
57041SOL    HW173020   6.554   8.832  10.905
57041SOL    HW273021   6.562   8.681  10.898
57042SOL     OW73022  10.515   6.580   2.593
57042SOL    HW173023  10.557   6.497   2.568
57042SOL    HW273024  10.574   6.647   2.559
57043SOL     OW73025   7.071  10.878   6.076
57043SOL    HW173026   7.044  10.796   6.035
57043SOL    HW273027   7.166  10.875   6.078
57044SOL     OW73028   8.087   1.796   8.779
57044SOL    HW173029   8.027   1.833   8.715
57044SOL    HW273030   8.172   1.834   8.759
57045SOL     OW73031   8.002   5.182  14.250
57045SOL    HW173032   7.974   5.274  14.245
57045SOL    HW273033   8.018   5.166  14.343
57046SOL     OW73034   0.304  10.768   7.820
57046SOL    HW173035   0.369  10.706   7.854
57046SOL    HW273036   0.280  10.732   7.735
57047SOL     OW73037  10.482  12.402   9.654
57047SOL    HW173038  10.498  12.311   9.679
57047SOL    HW273039  10.406  12.398   9.596
57048SOL     OW73040  14.152  12.686   0.984
57048SOL    HW173041  14.112  12.600   0.995
57048SOL    HW273042  14.214  12.693   1.056
57049SOL     OW73043  13.012   1.183   5.460
57049SOL    HW173044  13.069   1.192   5.536
57049SOL    HW273045  13.067   1.204   5.385
57050SOL     OW73046   3.637   9.915   0.625
57050SOL    HW173047   3.641  10.010   0.631
57050SOL    HW273048   3.664   9.895   0.535
57051SOL     OW73049  11.303  13.844   2.183
57051SOL    HW173050  11.282  13.760   2.142
57051SOL    HW273051  11.387  13.829   2.227
57052SOL     OW73052   3.140   8.725  11.957
57052SOL    HW173053   3.162   8.817  11.976
57052SOL    HW273054   3.225   8.681  11.955
57053SOL     OW73055  13.325  13.958  12.323
57053SOL    HW173056  13.406  13.927  12.362
57053SOL    HW273057  13.265  13.969  12.396
57054SOL     OW73058   6.827   4.945   1.073
57054SOL    HW173059   6.831   4.916   0.982
57054SOL    HW273060   6.735   4.933   1.098
57055SOL     OW73061   6.437  13.570   0.301
57055SOL    HW173062   6.492  13.492   0.307
57055SOL    HW273063   6.498  13.641   0.282
57056SOL     OW73064   8.172   2.405   3.962
57056SOL    HW173065   8.231   2.474   3.992
57056SOL    HW273066   8.154   2.353   4.041
57057SOL     OW73067  12.814  10.355   9.204
57057SOL    HW173068  12.739  10.351   9.263
57057SOL    HW273069  12.890  10.362   9.262
57058SOL     OW73070   1.944   9.165   2.432
57058SOL    HW173071   2.028   9.123   2.415
57058SOL    HW273072   1.928   9.151   2.525
57059SOL     OW73073  11.323   5.800  11.527
57059SOL    HW173074  11.231   5.824  11.538
57059SOL    HW273075  11.321   5.720  11.476
57060SOL     OW73076   9.846   3.758   1.796
57060SOL    HW173077   9.836   3.674   1.840
57060SOL    HW273078   9.916   3.802   1.842
57061SOL     OW73079   1.677   5.475   8.343
57061SOL    HW173080   1.660   5.569   8.340
57061SOL    HW273081   1.723   5.460   8.425
57062SOL     OW73082   0.996  11.475   6.619
57062SOL    HW173083   1.049  11.420   6.561
57062SOL    HW273084   0.951  11.536   6.560
57063SOL     OW73085   7.118   1.299   6.411
57063SOL    HW173086   7.201   1.273   6.449
57063SOL    HW273087   7.140   1.331   6.323
57064SOL     OW73088   3.078   2.091   0.644
57064SOL    HW173089   2.987   2.106   0.669
57064SOL    HW273090   3.118   2.050   0.721
57065SOL     OW73091   9.426   8.055   3.585
57065SOL    HW173092   9.368   8.086   3.516
57065SOL    HW273093   9.384   7.974   3.617
57066SOL     OW73094   8.628   8.873   8.337
57066SOL    HW173095   8.626   8.968   8.329
57066SOL    HW273096   8.668   8.857   8.422
57067SOL     OW73097  14.301   2.528   8.380
57067SOL    HW173098  14.353   2.512   8.458
57067SOL    HW273099  14.248   2.604   8.401
57068SOL     OW73100  13.774   5.684   4.543
57068SOL    HW173101  13.728   5.715   4.621
57068SOL    HW273102  13.710   5.631   4.497
57069SOL     OW73103   1.464  13.931   9.819
57069SOL    HW173104   1.430  13.938   9.908
57069SOL    HW273105   1.393  13.964   9.764
57070SOL     OW73106   6.851   0.460   2.617
57070SOL    HW173107   6.867   0.503   2.533
57070SOL    HW273108   6.759   0.476   2.635
57071SOL     OW73109  10.777   3.673   1.537
57071SOL    HW173110  10.752   3.764   1.523
57071SOL    HW273111  10.822   3.674   1.621
57072SOL     OW73112   4.263  14.724   6.486
57072SOL    HW173113   4.276  14.700   6.394
57072SOL    HW273114   4.299  14.812   6.493
57073SOL     OW73115  12.195   2.745   6.866
57073SOL    HW173116  12.106   2.780   6.876
57073SOL    HW273117  12.241   2.773   6.945
57074SOL     OW73118   6.554  10.088   5.698
57074SOL    HW173119   6.607  10.125   5.627
57074SOL    HW273120   6.538   9.998   5.671
57075SOL     OW73121   1.299   4.107   8.672
57075SOL    HW173122   1.252   4.126   8.753
57075SOL    HW273123   1.378   4.162   8.676
57076SOL     OW73124   4.142   1.547   9.706
57076SOL    HW173125   4.058   1.594   9.706
57076SOL    HW273126   4.123   1.466   9.659
57077SOL     OW73127   4.123   4.353  12.347
57077SOL    HW173128   4.183   4.419  12.381
57077SOL    HW273129   4.093   4.388  12.263
57078SOL     OW73130   2.823   4.030   4.754
57078SOL    HW173131   2.814   4.104   4.814
57078SOL    HW273132   2.900   4.052   4.701
57079SOL     OW73133   5.233  10.287   0.264
57079SOL    HW173134   5.263  10.291   0.174
57079SOL    HW273135   5.180  10.366   0.276
57080SOL     OW73136  11.562  13.810  11.745
57080SOL    HW173137  11.609  13.828  11.826
57080SOL    HW273138  11.483  13.763  11.772
57081SOL     OW73139   2.858   5.884   0.417
57081SOL    HW173140   2.879   5.975   0.397
57081SOL    HW273141   2.937   5.835   0.392
57082SOL     OW73142  10.846   1.349   8.677
57082SOL    HW173143  10.772   1.342   8.737
57082SOL    HW273144  10.810   1.329   8.591
57083SOL     OW73145   1.661   3.113   0.053
57083SOL    HW173146   1.728   3.178   0.029
57083SOL    HW273147   1.709   3.030   0.055
57084SOL     OW73148  13.684  14.105   5.882
57084SOL    HW173149  13.598  14.064   5.873
57084SOL    HW273150  13.681  14.180   5.823
57085SOL     OW73151  10.565   6.540   7.162
57085SOL    HW173152  10.592   6.622   7.204
57085SOL    HW273153  10.504   6.500   7.224
57086SOL     OW73154   9.642  12.459  11.477
57086SOL    HW173155   9.552  12.440  11.451
57086SOL    HW273156   9.663  12.392  11.542
57087SOL     OW73157  14.418  10.217   2.580
57087SOL    HW173158  14.385  10.136   2.540
57087SOL    HW273159  14.411  10.283   2.510
57088SOL     OW73160  11.862   9.355   2.489
57088SOL    HW173161  11.772   9.330   2.512
57088SOL    HW273162  11.876   9.318   2.402
57089SOL     OW73163   4.474   8.808  14.498
57089SOL    HW173164   4.420   8.801  14.420
57089SOL    HW273165   4.466   8.722  14.541
57090SOL     OW73166   9.734   7.723  13.501
57090SOL    HW173167   9.827   7.734  13.520
57090SOL    HW273168   9.723   7.629  13.483
57091SOL     OW73169  12.262   2.065   2.612
57091SOL    HW173170  12.254   2.142   2.669
57091SOL    HW273171  12.220   2.091   2.530
57092SOL     OW73172   1.356   1.525   2.038
57092SOL    HW173173   1.441   1.532   2.081
57092SOL    HW273174   1.325   1.616   2.032
57093SOL     OW73175   1.023   4.190   3.891
57093SOL    HW173176   1.110   4.208   3.926
57093SOL    HW273177   1.022   4.095   3.876
57094SOL     OW73178   5.803   1.534   2.092
57094SOL    HW173179   5.825   1.598   2.025
57094SOL    HW273180   5.747   1.470   2.047
57095SOL     OW73181   7.657  11.509   5.574
57095SOL    HW173182   7.716  11.436   5.594
57095SOL    HW273183   7.715  11.579   5.544
57096SOL     OW73184  14.562   9.853  12.836
57096SOL    HW173185  14.541   9.897  12.754
57096SOL    HW273186  14.498   9.783  12.844
57097SOL     OW73187  14.633  13.189   0.103
57097SOL    HW173188  14.542  13.159   0.099
57097SOL    HW273189  14.627  13.281   0.128
57098SOL     OW73190   7.932   4.680   4.480
57098SOL    HW173191   8.024   4.688   4.505
57098SOL    HW273192   7.887   4.664   4.563
57099SOL     OW73193   6.302   5.259   7.361
57099SOL    HW173194   6.383   5.237   7.406
57099SOL    HW273195   6.330   5.296   7.277
57100SOL     OW73196   3.022   8.573   3.914
57100SOL    HW173197   3.087   8.525   3.862
57100SOL    HW273198   3.062   8.579   4.001
57101SOL     OW73199   8.501   2.461   0.910
57101SOL    HW173200   8.450   2.467   0.829
57101SOL    HW273201   8.577   2.517   0.894
57102SOL     OW73202  13.204   3.576   7.517
57102SOL    HW173203  13.212   3.480   7.517
57102SOL    HW273204  13.291   3.607   7.492
57103SOL     OW73205  13.061   2.937  13.075
57103SOL    HW173206  13.128   3.005  13.080
57103SOL    HW273207  13.035   2.936  12.983
57104SOL     OW73208   1.173  14.097  12.739
57104SOL    HW173209   1.241  14.119  12.675
57104SOL    HW273210   1.117  14.174  12.742
57105SOL     OW73211  13.968  13.660   8.679
57105SOL    HW173212  13.900  13.656   8.612
57105SOL    HW273213  13.977  13.753   8.699
57106SOL     OW73214   4.529   1.155  14.419
57106SOL    HW173215   4.597   1.176  14.356
57106SOL    HW273216   4.571   1.162  14.504
57107SOL     OW73217   2.758   3.398   5.844
57107SOL    HW173218   2.755   3.334   5.915
57107SOL    HW273219   2.835   3.452   5.862
57108SOL     OW73220   4.590   7.828   9.262
57108SOL    HW173221   4.544   7.907   9.291
57108SOL    HW273222   4.683   7.850   9.273
57109SOL     OW73223   8.924   1.475  13.685
57109SOL    HW173224   8.834   1.508  13.693
57109SOL    HW273225   8.952   1.461  13.775
57110SOL     OW73226   4.312  12.853  11.771
57110SOL    HW173227   4.287  12.944  11.753
57110SOL    HW273228   4.405  12.849  11.748
57111SOL     OW73229   2.468  12.853   5.305
57111SOL    HW173230   2.521  12.784   5.264
57111SOL    HW273231   2.381  12.814   5.315
57112SOL     OW73232   4.121  13.859   3.318
57112SOL    HW173233   4.184  13.788   3.314
57112SOL    HW273234   4.122  13.886   3.410
57113SOL     OW73235   7.055  11.236   4.327
57113SOL    HW173236   6.996  11.274   4.262
57113SOL    HW273237   7.109  11.309   4.357
57114SOL     OW73238  14.099   4.945   7.032
57114SOL    HW173239  14.076   4.867   6.983
57114SOL    HW273240  14.127   5.008   6.966
57115SOL     OW73241   9.096   9.462   0.953
57115SOL    HW173242   9.019   9.489   0.904
57115SOL    HW273243   9.164   9.449   0.887
57116SOL     OW73244   8.809   1.482   3.081
57116SOL    HW173245   8.895   1.511   3.110
57116SOL    HW273246   8.748   1.531   3.136
57117SOL     OW73247   1.213   3.306  14.499
57117SOL    HW173248   1.305   3.309  14.525
57117SOL    HW273249   1.170   3.253  14.567
57118SOL     OW73250   1.082   5.102   9.784
57118SOL    HW173251   1.163   5.136   9.747
57118SOL    HW273252   1.020   5.175   9.778
57119SOL     OW73253   7.451   7.770   2.815
57119SOL    HW173254   7.430   7.740   2.904
57119SOL    HW273255   7.373   7.817   2.787
57120SOL     OW73256  10.700  12.571   3.042
57120SOL    HW173257  10.781  12.593   2.996
57120SOL    HW273258  10.632  12.616   2.994
57121SOL     OW73259   0.129   5.089   0.453
57121SOL    HW173260   0.077   5.015   0.484
57121SOL    HW273261   0.210   5.050   0.419
57122SOL     OW73262   6.775   3.696   8.967
57122SOL    HW173263   6.698   3.638   8.968
57122SOL    HW273264   6.780   3.728   8.877
57123SOL     OW73265  10.564  10.858   4.655
57123SOL    HW173266  10.577  10.877   4.748
57123SOL    HW273267  10.651  10.832   4.624
57124SOL     OW73268   1.424   3.205  14.828
57124SOL    HW173269   1.451   3.282  14.777
57124SOL    HW273270   1.507   3.165  14.855
57125SOL     OW73271  10.581  13.501   4.667
57125SOL    HW173272  10.523  13.429   4.640
57125SOL    HW273273  10.655  13.457   4.708
57126SOL     OW73274   7.299   0.809   8.414
57126SOL    HW173275   7.332   0.743   8.353
57126SOL    HW273276   7.378   0.849   8.451
57127SOL     OW73277  12.503  12.971   1.032
57127SOL    HW173278  12.502  13.012   0.946
57127SOL    HW273279  12.579  13.009   1.076
57128SOL     OW73280   3.254  14.058   6.017
57128SOL    HW173281   3.188  14.005   5.972
57128SOL    HW273282   3.265  14.016   6.102
57129SOL     OW73283   8.734  14.362   2.911
57129SOL    HW173284   8.742  14.306   2.988
57129SOL    HW273285   8.666  14.424   2.933
57130SOL     OW73286  13.750  13.065   0.251
57130SOL    HW173287  13.783  13.085   0.339
57130SOL    HW273288  13.823  13.087   0.193
57131SOL     OW73289   9.439   8.864   6.715
57131SOL    HW173290   9.422   8.792   6.655
57131SOL    HW273291   9.470   8.935   6.660
57132SOL     OW73292  13.904  11.981  12.582
57132SOL    HW173293  13.987  11.982  12.533
57132SOL    HW273294  13.862  11.899  12.557
57133SOL     OW73295  13.939   4.421  11.252
57133SOL    HW173296  13.910   4.504  11.291
57133SOL    HW273297  13.983   4.374  11.323
57134SOL     OW73298   6.180   4.269  13.918
57134SOL    HW173299   6.152   4.274  14.010
57134SOL    HW273300   6.233   4.189  13.914
57135SOL     OW73301  11.340   7.389   4.636
57135SOL    HW173302  11.268   7.444   4.605
57135SOL    HW273303  11.330   7.388   4.731
57136SOL     OW73304   9.907   5.016  14.708
57136SOL    HW173305   9.973   5.063  14.658
57136SOL    HW273306   9.866   4.957  14.645
57137SOL     OW73307  12.582   3.942   9.794
57137SOL    HW173308  12.630   3.994   9.729
57137SOL    HW273309  12.491   3.945   9.764
57138SOL     OW73310   3.996   1.172   1.269
57138SOL    HW173311   4.084   1.135   1.272
57138SOL    HW273312   3.949   1.128   1.340
57139SOL     OW73313   0.314   1.692  10.886
57139SOL    HW173314   0.246   1.636  10.924
57139SOL    HW273315   0.266   1.770  10.857
57140SOL     OW73316   6.068  11.852   1.337
57140SOL    HW173317   6.094  11.838   1.246
57140SOL    HW273318   5.993  11.794   1.350
57141SOL     OW73319  14.419   9.666   0.059
57141SOL    HW173320  14.487   9.728   0.084
57141SOL    HW273321  14.418   9.602   0.129
57142SOL     OW73322   1.210  14.623   4.139
57142SOL    HW173323   1.272  14.657   4.203
57142SOL    HW273324   1.256  14.629   4.055
57143SOL     OW73325   5.318  10.235   5.029
57143SOL    HW173326   5.289  10.320   4.994
57143SOL    HW273327   5.395  10.213   4.976
57144SOL     OW73328  12.784  14.592   2.457
57144SOL    HW173329  12.733  14.556   2.385
57144SOL    HW273330  12.821  14.673   2.422
57145SOL     OW73331   1.764   3.844   8.924
57145SOL    HW173332   1.714   3.883   8.996
57145SOL    HW273333   1.758   3.750   8.939
57146SOL     OW73334   4.625  10.156   6.551
57146SOL    HW173335   4.652  10.244   6.579
57146SOL    HW273336   4.616  10.164   6.456
57147SOL     OW73337  11.912  11.270   1.924
57147SOL    HW173338  11.961  11.343   1.886
57147SOL    HW273339  11.896  11.296   2.014
57148SOL     OW73340  10.526   4.822   2.741
57148SOL    HW173341  10.526   4.856   2.830
57148SOL    HW273342  10.618   4.807   2.720
57149SOL     OW73343   1.550   4.010   4.691
57149SOL    HW173344   1.490   3.956   4.742
57149SOL    HW273345   1.495   4.082   4.659
57150SOL     OW73346   2.556   8.034  10.032
57150SOL    HW173347   2.483   8.085  10.066
57150SOL    HW273348   2.599   7.999  10.111
57151SOL     OW73349   9.358   7.173  11.032
57151SOL    HW173350   9.352   7.225  11.112
57151SOL    HW273351   9.270   7.174  10.995
57152SOL     OW73352   7.965   5.549   6.385
57152SOL    HW173353   7.961   5.490   6.309
57152SOL    HW273354   7.913   5.625   6.359
57153SOL     OW73355   5.891  10.812   9.940
57153SOL    HW173356   5.974  10.851   9.912
57153SOL    HW273357   5.887  10.729   9.893
57154SOL     OW73358   9.798   7.018  13.655
57154SOL    HW173359   9.844   7.037  13.737
57154SOL    HW273360   9.767   7.104  13.624
57155SOL     OW73361  11.503   4.302   4.479
57155SOL    HW173362  11.437   4.276   4.414
57155SOL    HW273363  11.467   4.380   4.520
57156SOL     OW73364   0.273   8.221   9.723
57156SOL    HW173365   0.211   8.185   9.785
57156SOL    HW273366   0.331   8.277   9.776
57157SOL     OW73367  12.413   5.805  13.092
57157SOL    HW173368  12.430   5.711  13.086
57157SOL    HW273369  12.349   5.814  13.163
57158SOL     OW73370   5.069  10.118  11.007
57158SOL    HW173371   4.999  10.066  11.048
57158SOL    HW273372   5.032  10.207  11.001
57159SOL     OW73373  10.282   8.753  12.134
57159SOL    HW173374  10.253   8.688  12.070
57159SOL    HW273375  10.209   8.815  12.140
57160SOL     OW73376  14.434   5.199   2.470
57160SOL    HW173377  14.474   5.243   2.395
57160SOL    HW273378  14.342   5.228   2.468
57161SOL     OW73379   3.692   4.285   8.930
57161SOL    HW173380   3.752   4.319   8.863
57161SOL    HW273381   3.713   4.191   8.934
57162SOL     OW73382   4.399   2.891   6.484
57162SOL    HW173383   4.352   2.849   6.413
57162SOL    HW273384   4.355   2.976   6.495
57163SOL     OW73385   5.042  14.505   4.137
57163SOL    HW173386   5.001  14.515   4.223
57163SOL    HW273387   5.052  14.594   4.105
57164SOL     OW73388   0.476  12.193   0.278
57164SOL    HW173389   0.453  12.285   0.290
57164SOL    HW273390   0.394  12.151   0.251
57165SOL     OW73391   8.241   7.183  14.262
57165SOL    HW173392   8.206   7.253  14.318
57165SOL    HW273393   8.321   7.221  14.225
57166SOL     OW73394   3.377   5.765   2.736
57166SOL    HW173395   3.290   5.736   2.708
57166SOL    HW273396   3.360   5.834   2.799
57167SOL     OW73397  14.302  11.039   1.570
57167SOL    HW173398  14.296  11.135   1.570
57167SOL    HW273399  14.350  11.018   1.490
57168SOL     OW73400   8.276   7.745   8.494
57168SOL    HW173401   8.274   7.670   8.435
57168SOL    HW273402   8.353   7.730   8.549
57169SOL     OW73403   2.483   2.927   2.762
57169SOL    HW173404   2.527   3.005   2.795
57169SOL    HW273405   2.474   2.943   2.668
57170SOL     OW73406   0.321   0.867   8.063
57170SOL    HW173407   0.251   0.928   8.041
57170SOL    HW273408   0.376   0.865   7.984
57171SOL     OW73409   4.881   5.631   8.020
57171SOL    HW173410   4.792   5.652   7.992
57171SOL    HW273411   4.900   5.547   7.977
57172SOL     OW73412   7.876  11.959   8.842
57172SOL    HW173413   7.794  12.003   8.865
57172SOL    HW273414   7.859  11.919   8.757
57173SOL     OW73415   5.978  13.480   2.644
57173SOL    HW173416   5.895  13.489   2.690
57173SOL    HW273417   5.992  13.565   2.603
57174SOL     OW73418  14.502   0.916   7.563
57174SOL    HW173419  14.467   0.829   7.581
57174SOL    HW273420  14.529   0.949   7.649
57175SOL     OW73421   0.745   9.682   7.161
57175SOL    HW173422   0.737   9.641   7.247
57175SOL    HW273423   0.668   9.652   7.113
57176SOL     OW73424   3.033   0.686  11.261
57176SOL    HW173425   2.994   0.614  11.309
57176SOL    HW273426   3.023   0.762  11.319
57177SOL     OW73427   2.104   3.935  10.366
57177SOL    HW173428   2.009   3.934  10.356
57177SOL    HW273429   2.118   3.955  10.458
57178SOL     OW73430  12.747   2.899   8.723
57178SOL    HW173431  12.778   2.978   8.768
57178SOL    HW273432  12.727   2.928   8.634
57179SOL     OW73433   4.351   5.118  14.394
57179SOL    HW173434   4.265   5.126  14.436
57179SOL    HW273435   4.347   5.178  14.320
57180SOL     OW73436   7.024   0.478  14.354
57180SOL    HW173437   7.102   0.431  14.324
57180SOL    HW273438   6.990   0.521  14.275
57181SOL     OW73439   4.450   2.749  14.096
57181SOL    HW173440   4.405   2.694  14.159
57181SOL    HW273441   4.384   2.812  14.066
57182SOL     OW73442   1.912  13.991   0.748
57182SOL    HW173443   1.918  14.086   0.763
57182SOL    HW273444   1.883  13.983   0.657
57183SOL     OW73445   9.902   3.171   4.795
57183SOL    HW173446   9.986   3.217   4.801
57183SOL    HW273447   9.894   3.150   4.702
57184SOL     OW73448   9.745  12.214  12.932
57184SOL    HW173449   9.684  12.183  12.865
57184SOL    HW273450   9.827  12.227  12.885
57185SOL     OW73451  13.677   6.507   3.567
57185SOL    HW173452  13.760   6.554   3.577
57185SOL    HW273453  13.699   6.432   3.511
57186SOL     OW73454   9.143   7.794  13.056
57186SOL    HW173455   9.059   7.837  13.072
57186SOL    HW273456   9.206   7.846  13.105
57187SOL     OW73457  11.128   7.183   0.116
57187SOL    HW173458  11.163   7.110   0.168
57187SOL    HW273459  11.092   7.141   0.037
57188SOL     OW73460   8.628  11.767  12.780
57188SOL    HW173461   8.627  11.822  12.859
57188SOL    HW273462   8.637  11.829  12.708
57189SOL     OW73463   2.155  14.094  12.797
57189SOL    HW173464   2.077  14.043  12.818
57189SOL    HW273465   2.151  14.169  12.857
57190SOL     OW73466  11.046  14.366   5.515
57190SOL    HW173467  11.046  14.456   5.547
57190SOL    HW273468  11.085  14.316   5.587
57191SOL     OW73469   6.128   0.106  14.360
57191SOL    HW173470   6.063   0.053  14.407
57191SOL    HW273471   6.106   0.196  14.383
57192SOL     OW73472   3.686   1.234   5.644
57192SOL    HW173473   3.737   1.314   5.629
57192SOL    HW273474   3.595   1.264   5.648
57193SOL     OW73475   0.553   9.010  13.873
57193SOL    HW173476   0.550   9.045  13.784
57193SOL    HW273477   0.647   8.998  13.890
57194SOL     OW73478  12.705  10.474  10.959
57194SOL    HW173479  12.690  10.512  11.046
57194SOL    HW273480  12.799  10.482  10.945
57195SOL     OW73481   0.690   9.459   7.979
57195SOL    HW173482   0.634   9.384   7.997
57195SOL    HW273483   0.650   9.502   7.903
57196SOL     OW73484  10.296   6.977   0.862
57196SOL    HW173485  10.271   6.950   0.950
57196SOL    HW273486  10.216   7.015   0.825
57197SOL     OW73487  12.093  12.960  13.345
57197SOL    HW173488  12.069  13.010  13.267
57197SOL    HW273489  12.189  12.963  13.347
57198SOL     OW73490   8.592   5.069   8.109
57198SOL    HW173491   8.611   5.155   8.071
57198SOL    HW273492   8.501   5.076   8.138
57199SOL     OW73493   2.939   8.192   4.884
57199SOL    HW173494   2.995   8.181   4.807
57199SOL    HW273495   2.852   8.164   4.855
57200SOL     OW73496  11.274  11.476   4.111
57200SOL    HW173497  11.290  11.569   4.095
57200SOL    HW273498  11.358  11.441   4.138
57201SOL     OW73499   4.143   9.949  11.136
57201SOL    HW173500   4.174   9.863  11.165
57201SOL    HW273501   4.048   9.943  11.143
57202SOL     OW73502   1.199  12.291   9.064
57202SOL    HW173503   1.147  12.254   8.993
57202SOL    HW273504   1.184  12.233   9.139
57203SOL     OW73505  13.485   6.389   7.117
57203SOL    HW173506  13.504   6.457   7.181
57203SOL    HW273507  13.503   6.430   7.032
57204SOL     OW73508   6.629   8.391   0.797
57204SOL    HW173509   6.546   8.420   0.757
57204SOL    HW273510   6.603   8.344   0.876
57205SOL     OW73511   2.048   2.174   8.123
57205SOL    HW173512   1.970   2.224   8.098
57205SOL    HW273513   2.121   2.225   8.087
57206SOL     OW73514   2.326  13.505   6.272
57206SOL    HW173515   2.344  13.444   6.200
57206SOL    HW273516   2.413  13.532   6.302
57207SOL     OW73517  11.195   5.886  11.061
57207SOL    HW173518  11.275   5.834  11.066
57207SOL    HW273519  11.216   5.966  11.109
57208SOL     OW73520  12.790  13.000   4.241
57208SOL    HW173521  12.780  13.022   4.334
57208SOL    HW273522  12.786  13.085   4.196
57209SOL     OW73523   1.227   8.591   0.306
57209SOL    HW173524   1.162   8.522   0.321
57209SOL    HW273525   1.311   8.545   0.304
57210SOL     OW73526   9.345   2.558  10.163
57210SOL    HW173527   9.428   2.512  10.174
57210SOL    HW273528   9.279   2.499  10.199
57211SOL     OW73529   8.655   5.526   1.397
57211SOL    HW173530   8.744   5.501   1.420
57211SOL    HW273531   8.665   5.592   1.329
57212SOL     OW73532   9.671   1.666   8.254
57212SOL    HW173533   9.672   1.762   8.253
57212SOL    HW273534   9.714   1.643   8.336
57213SOL     OW73535   0.305  14.244  11.543
57213SOL    HW173536   0.311  14.200  11.627
57213SOL    HW273537   0.250  14.320  11.560
57214SOL     OW73538   5.110   1.218   2.372
57214SOL    HW173539   5.137   1.169   2.450
57214SOL    HW273540   5.038   1.166   2.335
57215SOL     OW73541   3.225  14.630  12.177
57215SOL    HW173542   3.157  14.610  12.241
57215SOL    HW273543   3.202  14.577  12.100
57216SOL     OW73544   8.870  12.140   4.622
57216SOL    HW173545   8.864  12.059   4.571
57216SOL    HW273546   8.820  12.204   4.571
57217SOL     OW73547   5.171  13.811  11.138
57217SOL    HW173548   5.206  13.900  11.137
57217SOL    HW273549   5.187  13.780  11.227
57218SOL     OW73550   7.313   2.744   1.144
57218SOL    HW173551   7.304   2.738   1.239
57218SOL    HW273552   7.330   2.654   1.116
57219SOL     OW73553   1.889  10.332   9.243
57219SOL    HW173554   1.875  10.427   9.247
57219SOL    HW273555   1.943  10.312   9.319
57220SOL     OW73556   4.575  11.240   8.701
57220SOL    HW173557   4.526  11.185   8.761
57220SOL    HW273558   4.656  11.261   8.747
57221SOL     OW73559   0.332   0.946   5.082
57221SOL    HW173560   0.252   0.917   5.038
57221SOL    HW273561   0.352   1.031   5.043
57222SOL     OW73562   9.544   3.609  11.987
57222SOL    HW173563   9.461   3.584  11.947
57222SOL    HW273564   9.603   3.624  11.912
57223SOL     OW73565   4.115   9.671  11.191
57223SOL    HW173566   4.123   9.652  11.285
57223SOL    HW273567   4.040   9.618  11.163
57224SOL     OW73568   0.735   1.123   2.664
57224SOL    HW173569   0.704   1.129   2.754
57224SOL    HW273570   0.681   1.056   2.624
57225SOL     OW73571   3.027  10.795  11.707
57225SOL    HW173572   2.949  10.808  11.653
57225SOL    HW273573   3.044  10.881  11.745
57226SOL     OW73574   4.722  11.668   1.492
57226SOL    HW173575   4.795  11.629   1.444
57226SOL    HW273576   4.764  11.720   1.560
57227SOL     OW73577   0.500  14.243   2.121
57227SOL    HW173578   0.573  14.196   2.082
57227SOL    HW273579   0.538  14.287   2.197
57228SOL     OW73580  10.166   7.522   6.684
57228SOL    HW173581  10.235   7.551   6.624
57228SOL    HW273582  10.157   7.594   6.746
57229SOL     OW73583   9.906  14.624  11.483
57229SOL    HW173584   9.949  14.606  11.400
57229SOL    HW273585   9.977  14.647  11.543
57230SOL     OW73586   0.407   3.142   5.501
57230SOL    HW173587   0.454   3.085   5.562
57230SOL    HW273588   0.447   3.124   5.416
57231SOL     OW73589   4.387   9.487  11.313
57231SOL    HW173590   4.353   9.456  11.229
57231SOL    HW273591   4.405   9.580  11.299
57232SOL     OW73592  11.089  14.801   5.188
57232SOL    HW173593  11.112  14.792   5.281
57232SOL    HW273594  11.105   0.011   5.168
57233SOL     OW73595   1.063   6.864  12.011
57233SOL    HW173596   0.988   6.921  12.025
57233SOL    HW273597   1.139   6.921  12.020
57234SOL     OW73598   2.330   1.059   8.546
57234SOL    HW173599   2.326   0.984   8.487
57234SOL    HW273600   2.264   1.120   8.512
57235SOL     OW73601   6.325   6.032   5.795
57235SOL    HW173602   6.348   6.040   5.888
57235SOL    HW273603   6.269   6.107   5.777
57236SOL     OW73604   3.567   7.841   1.144
57236SOL    HW173605   3.556   7.822   1.051
57236SOL    HW273606   3.656   7.874   1.151
57237SOL     OW73607  10.665   0.097  10.594
57237SOL    HW173608  10.672   0.161  10.664
57237SOL    HW273609  10.571   0.091  10.576
57238SOL     OW73610   6.719  10.377   0.881
57238SOL    HW173611   6.791  10.398   0.940
57238SOL    HW273612   6.752  10.306   0.826
57239SOL     OW73613   0.133  11.389   1.192
57239SOL    HW173614   0.163  11.325   1.257
57239SOL    HW273615   0.105  11.464   1.243
57240SOL     OW73616  10.816  11.058   8.893
57240SOL    HW173617  10.874  10.985   8.873
57240SOL    HW273618  10.779  11.083   8.808
57241SOL     OW73619  11.982   4.364  12.082
57241SOL    HW173620  11.951   4.450  12.110
57241SOL    HW273621  11.932   4.302  12.136
57242SOL     OW73622  10.875   8.402   2.261
57242SOL    HW173623  10.949   8.431   2.208
57242SOL    HW273624  10.896   8.311   2.285
57243SOL     OW73625  13.275   3.498   5.899
57243SOL    HW173626  13.230   3.473   5.980
57243SOL    HW273627  13.223   3.571   5.865
57244SOL     OW73628   8.040  12.551   1.165
57244SOL    HW173629   8.005  12.464   1.183
57244SOL    HW273630   8.052  12.591   1.252
57245SOL     OW73631  14.031   9.313   0.437
57245SOL    HW173632  13.961   9.308   0.372
57245SOL    HW273633  14.103   9.357   0.392
57246SOL     OW73634   9.642   5.341   1.058
57246SOL    HW173635   9.658   5.424   1.102
57246SOL    HW273636   9.548   5.325   1.070
57247SOL     OW73637   5.719   8.202   1.743
57247SOL    HW173638   5.770   8.151   1.806
57247SOL    HW273639   5.628   8.185   1.768
57248SOL     OW73640   5.005  12.061   1.520
57248SOL    HW173641   4.983  12.118   1.446
57248SOL    HW273642   5.062  12.115   1.575
57249SOL     OW73643  12.252  12.894   4.816
57249SOL    HW173644  12.274  12.932   4.731
57249SOL    HW273645  12.195  12.820   4.796
57250SOL     OW73646   7.224   1.740  13.519
57250SOL    HW173647   7.188   1.653  13.536
57250SOL    HW273648   7.186   1.795  13.587
57251SOL     OW73649  10.449   9.790   6.769
57251SOL    HW173650  10.510   9.725   6.806
57251SOL    HW273651  10.378   9.794   6.832
57252SOL     OW73652   1.778   1.191   0.088
57252SOL    HW173653   1.713   1.210   0.021
57252SOL    HW273654   1.848   1.254   0.073
57253SOL     OW73655   9.846   5.026   8.423
57253SOL    HW173656   9.901   4.976   8.484
57253SOL    HW273657   9.800   4.959   8.373
57254SOL     OW73658   0.369   8.328  12.702
57254SOL    HW173659   0.294   8.282  12.665
57254SOL    HW273660   0.373   8.298  12.793
57255SOL     OW73661   9.658   1.090   2.129
57255SOL    HW173662   9.741   1.058   2.164
57255SOL    HW273663   9.680   1.173   2.086
57256SOL     OW73664   7.788   5.040  13.732
57256SOL    HW173665   7.863   4.983  13.712
57256SOL    HW273666   7.824   5.108  13.789
57257SOL     OW73667   0.722  14.025   3.735
57257SOL    HW173668   0.759  13.944   3.770
57257SOL    HW273669   0.653  13.997   3.676
57258SOL     OW73670   7.543   9.726  11.664
57258SOL    HW173671   7.542   9.778  11.745
57258SOL    HW273672   7.630   9.686  11.663
57259SOL     OW73673   2.376   6.710  10.276
57259SOL    HW173674   2.443   6.696  10.343
57259SOL    HW273675   2.366   6.805  10.271
57260SOL     OW73676  14.557  14.478   9.551
57260SOL    HW173677  14.586  14.387   9.547
57260SOL    HW273678  14.495  14.488   9.479
57261SOL     OW73679   2.206  14.562  11.484
57261SOL    HW173680   2.111  14.576  11.494
57261SOL    HW273681   2.220  14.563  11.389
57262SOL     OW73682   8.785  11.220  14.270
57262SOL    HW173683   8.865  11.180  14.304
57262SOL    HW273684   8.804  11.233  14.177
57263SOL     OW73685   8.502   3.973   2.839
57263SOL    HW173686   8.508   3.878   2.828
57263SOL    HW273687   8.560   3.991   2.913
57264SOL     OW73688  10.779   5.956   0.692
57264SOL    HW173689  10.796   6.048   0.677
57264SOL    HW273690  10.769   5.949   0.787
57265SOL     OW73691   2.443   4.676  10.411
57265SOL    HW173692   2.460   4.665  10.505
57265SOL    HW273693   2.397   4.596  10.386
57266SOL     OW73694   4.010  13.694   5.678
57266SOL    HW173695   4.025  13.784   5.707
57266SOL    HW273696   4.082  13.644   5.715
57267SOL     OW73697   5.251  12.511  11.459
57267SOL    HW173698   5.252  12.447  11.389
57267SOL    HW273699   5.213  12.465  11.534
57268SOL     OW73700   2.462  13.464  10.714
57268SOL    HW173701   2.498  13.412  10.642
57268SOL    HW273702   2.540  13.492  10.764
57269SOL     OW73703   6.142   2.431   6.261
57269SOL    HW173704   6.097   2.349   6.284
57269SOL    HW273705   6.185   2.412   6.177
57270SOL     OW73706   9.076  14.807   2.143
57270SOL    HW173707   9.116  14.845   2.065
57270SOL    HW273708   9.137  14.739   2.170
57271SOL     OW73709   6.475  14.412  13.637
57271SOL    HW173710   6.449  14.504  13.649
57271SOL    HW273711   6.567  14.416  13.612
57272SOL     OW73712   8.510   6.861  13.706
57272SOL    HW173713   8.438   6.800  13.690
57272SOL    HW273714   8.518   6.911  13.625
57273SOL     OW73715   9.444  13.391   7.989
57273SOL    HW173716   9.423  13.331   8.061
57273SOL    HW273717   9.456  13.334   7.913
57274SOL     OW73718  11.713  13.503   8.270
57274SOL    HW173719  11.700  13.549   8.352
57274SOL    HW273720  11.625  13.485   8.238
57275SOL     OW73721   9.739  10.956   5.837
57275SOL    HW173722   9.764  11.000   5.756
57275SOL    HW273723   9.707  10.871   5.810
57276SOL     OW73724   8.767   9.834   9.173
57276SOL    HW173725   8.755   9.915   9.222
57276SOL    HW273726   8.852   9.844   9.131
57277SOL     OW73727  14.836   1.270   4.192
57277SOL    HW173728   0.028   1.268   4.132
57277SOL    HW273729  14.841   1.357   4.233
57278SOL     OW73730  14.439   7.343  11.765
57278SOL    HW173731  14.373   7.389  11.714
57278SOL    HW273732  14.520   7.393  11.751
57279SOL     OW73733   2.437  14.219  14.347
57279SOL    HW173734   2.447  14.155  14.417
57279SOL    HW273735   2.346  14.250  14.355
57280SOL     OW73736   2.656   2.059   5.516
57280SOL    HW173737   2.681   2.077   5.425
57280SOL    HW273738   2.724   1.999   5.547
57281SOL     OW73739  14.367   1.609   6.919
57281SOL    HW173740  14.457   1.580   6.930
57281SOL    HW273741  14.327   1.543   6.862
57282SOL     OW73742   1.407   6.187   0.347
57282SOL    HW173743   1.470   6.126   0.307
57282SOL    HW273744   1.363   6.136   0.414
57283SOL     OW73745   2.367   5.185   6.260
57283SOL    HW173746   2.318   5.122   6.207
57283SOL    HW273747   2.317   5.192   6.341
57284SOL     OW73748   4.964   1.253   2.047
57284SOL    HW173749   4.983   1.219   1.959
57284SOL    HW273750   4.945   1.176   2.099
57285SOL     OW73751  12.492   4.610   6.875
57285SOL    HW173752  12.480   4.655   6.959
57285SOL    HW273753  12.428   4.651   6.817
57286SOL     OW73754   4.277   6.075  10.359
57286SOL    HW173755   4.261   6.002  10.419
57286SOL    HW273756   4.248   6.152  10.407
57287SOL     OW73757   3.081   4.771  12.174
57287SOL    HW173758   3.048   4.718  12.101
57287SOL    HW273759   3.063   4.718  12.252
57288SOL     OW73760  12.228   7.481   4.764
57288SOL    HW173761  12.184   7.567   4.766
57288SOL    HW273762  12.290   7.488   4.691
57289SOL     OW73763   1.649  13.883  10.847
57289SOL    HW173764   1.600  13.804  10.869
57289SOL    HW273765   1.651  13.885  10.751
57290SOL     OW73766   4.724   5.458  12.806
57290SOL    HW173767   4.640   5.437  12.766
57290SOL    HW273768   4.704   5.527  12.870
57291SOL     OW73769   6.262   7.829  10.315
57291SOL    HW173770   6.243   7.793  10.402
57291SOL    HW273771   6.202   7.785  10.256
57292SOL     OW73772   2.557   9.547   1.758
57292SOL    HW173773   2.547   9.565   1.665
57292SOL    HW273774   2.504   9.469   1.774
57293SOL     OW73775  10.165  13.272   9.724
57293SOL    HW173776  10.225  13.273   9.798
57293SOL    HW273777  10.128  13.360   9.721
57294SOL     OW73778   3.956   7.659   3.765
57294SOL    HW173779   3.902   7.737   3.781
57294SOL    HW273780   3.914   7.616   3.690
57295SOL     OW73781   5.025  11.132  13.448
57295SOL    HW173782   5.106  11.106  13.405
57295SOL    HW273783   5.012  11.223  13.422
57296SOL     OW73784   0.244   9.930   7.505
57296SOL    HW173785   0.223   9.838   7.492
57296SOL    HW273786   0.303   9.952   7.432
57297SOL     OW73787   9.558  13.427   9.561
57297SOL    HW173788   9.523  13.481   9.490
57297SOL    HW273789   9.642  13.467   9.583
57298SOL     OW73790   6.291   3.277   2.612
57298SOL    HW173791   6.214   3.271   2.555
57298SOL    HW273792   6.290   3.194   2.661
57299SOL     OW73793   9.106  12.905   4.617
57299SOL    HW173794   9.051  12.978   4.587
57299SOL    HW273795   9.195  12.941   4.617
57300SOL     OW73796   0.270  13.116  13.356
57300SOL    HW173797   0.359  13.095  13.327
57300SOL    HW273798   0.214  13.061  13.302
57301SOL     OW73799  12.070  12.507   1.791
57301SOL    HW173800  12.067  12.549   1.706
57301SOL    HW273801  12.099  12.417   1.773
57302SOL     OW73802  14.848   7.183   0.414
57302SOL    HW173803   0.049   7.220   0.443
57302SOL    HW273804  14.793   7.183   0.493
57303SOL     OW73805   6.577  12.925   2.804
57303SOL    HW173806   6.551  12.862   2.871
57303SOL    HW273807   6.663  12.895   2.774
57304SOL     OW73808   1.098   1.465  14.201
57304SOL    HW173809   1.086   1.510  14.117
57304SOL    HW273810   1.141   1.383  14.179
57305SOL     OW73811   9.801   3.556   1.491
57305SOL    HW173812   9.853   3.624   1.533
57305SOL    HW273813   9.853   3.477   1.500
57306SOL     OW73814   9.559  13.679  14.186
57306SOL    HW173815   9.560  13.724  14.101
57306SOL    HW273816   9.525  13.592  14.167
57307SOL     OW73817   4.400   8.449   0.080
57307SOL    HW173818   4.367   8.361   0.098
57307SOL    HW273819   4.375   8.500   0.157
57308SOL     OW73820   2.806   6.809  13.089
57308SOL    HW173821   2.738   6.750  13.122
57308SOL    HW273822   2.763   6.895  13.086
57309SOL     OW73823   1.524  12.638  12.960
57309SOL    HW173824   1.553  12.653  12.870
57309SOL    HW273825   1.475  12.555  12.956
57310SOL     OW73826   8.363   7.005   0.417
57310SOL    HW173827   8.357   6.961   0.332
57310SOL    HW273828   8.448   6.978   0.453
57311SOL     OW73829   1.205  13.920   6.035
57311SOL    HW173830   1.180  13.944   5.946
57311SOL    HW273831   1.198  13.825   6.038
57312SOL     OW73832   3.983   8.664  14.428
57312SOL    HW173833   4.028   8.673  14.344
57312SOL    HW273834   3.962   8.754  14.453
57313SOL     OW73835   6.584  12.839  12.878
57313SOL    HW173836   6.647  12.864  12.945
57313SOL    HW273837   6.524  12.914  12.873
57314SOL     OW73838   5.050  14.784   8.193
57314SOL    HW173839   4.970  14.735   8.173
57314SOL    HW273840   5.082  14.745   8.274
57315SOL     OW73841   2.407   3.943   9.047
57315SOL    HW173842   2.446   3.896   9.120
57315SOL    HW273843   2.428   4.035   9.064
57316SOL     OW73844   8.795   5.310   1.620
57316SOL    HW173845   8.720   5.251   1.630
57316SOL    HW273846   8.771   5.388   1.671
57317SOL     OW73847  11.943   2.272  12.777
57317SOL    HW173848  11.967   2.193  12.729
57317SOL    HW273849  12.001   2.340  12.742
57318SOL     OW73850   1.628  10.359   6.800
57318SOL    HW173851   1.715  10.346   6.762
57318SOL    HW273852   1.641  10.346   6.894
57319SOL     OW73853   9.120   0.101   7.384
57319SOL    HW173854   9.055   0.089   7.315
57319SOL    HW273855   9.098   0.035   7.449
57320SOL     OW73856   0.339  12.066   1.488
57320SOL    HW173857   0.375  12.115   1.414
57320SOL    HW273858   0.253  12.038   1.459
57321SOL     OW73859  13.679   4.995   2.581
57321SOL    HW173860  13.702   5.084   2.605
57321SOL    HW273861  13.763   4.948   2.576
57322SOL     OW73862  13.636   6.433  12.971
57322SOL    HW173863  13.636   6.511  13.027
57322SOL    HW273864  13.656   6.467  12.884
57323SOL     OW73865   6.392   1.045   0.698
57323SOL    HW173866   6.301   1.042   0.668
57323SOL    HW273867   6.430   0.963   0.667
57324SOL     OW73868  11.577   7.389   4.488
57324SOL    HW173869  11.492   7.413   4.525
57324SOL    HW273870  11.568   7.296   4.466
57325SOL     OW73871   0.502   8.772   0.059
57325SOL    HW173872   0.424   8.826   0.065
57325SOL    HW273873   0.475   8.687   0.094
57326SOL     OW73874  13.978  10.626   8.360
57326SOL    HW173875  13.973  10.582   8.445
57326SOL    HW273876  13.968  10.719   8.381
57327SOL     OW73877   0.367   3.630   1.250
57327SOL    HW173878   0.357   3.688   1.325
57327SOL    HW273879   0.297   3.655   1.190
57328SOL     OW73880   7.307  12.758  10.163
57328SOL    HW173881   7.351  12.842  10.173
57328SOL    HW273882   7.219  12.773  10.199
57329SOL     OW73883   7.339   9.119  13.780
57329SOL    HW173884   7.312   9.079  13.862
57329SOL    HW273885   7.315   9.056  13.713
57330SOL     OW73886   7.599  14.825   2.227
57330SOL    HW173887   7.646  14.849   2.148
57330SOL    HW273888   7.539  14.755   2.199
57331SOL     OW73889  12.577   5.847   6.651
57331SOL    HW173890  12.610   5.901   6.723
57331SOL    HW273891  12.650   5.790   6.627
57332SOL     OW73892   3.611  11.332  10.108
57332SOL    HW173893   3.519  11.321  10.134
57332SOL    HW273894   3.660  11.325  10.190
57333SOL     OW73895   4.780   2.766   3.658
57333SOL    HW173896   4.721   2.840   3.662
57333SOL    HW273897   4.785   2.734   3.749
57334SOL     OW73898   7.831   2.502   4.424
57334SOL    HW173899   7.736   2.494   4.429
57334SOL    HW273900   7.863   2.449   4.497
57335SOL     OW73901   2.325   3.804  13.979
57335SOL    HW173902   2.364   3.719  13.960
57335SOL    HW273903   2.371   3.833  14.058
57336SOL     OW73904  13.097   8.682   8.402
57336SOL    HW173905  13.128   8.615   8.342
57336SOL    HW273906  13.029   8.639   8.454
57337SOL     OW73907   0.662   3.090  13.855
57337SOL    HW173908   0.600   3.132  13.795
57337SOL    HW273909   0.627   3.002  13.868
57338SOL     OW73910   1.190  13.838  10.330
57338SOL    HW173911   1.263  13.793  10.286
57338SOL    HW273912   1.184  13.796  10.416
57339SOL     OW73913   9.208   0.523   0.338
57339SOL    HW173914   9.214   0.619   0.338
57339SOL    HW273915   9.278   0.494   0.396
57340SOL     OW73916   4.532   6.032   2.845
57340SOL    HW173917   4.536   6.128   2.843
57340SOL    HW273918   4.591   6.004   2.774
57341SOL     OW73919  12.028   5.193   3.701
57341SOL    HW173920  11.985   5.255   3.760
57341SOL    HW273921  12.107   5.166   3.749
57342SOL     OW73922   7.859   8.233   6.542
57342SOL    HW173923   7.912   8.298   6.496
57342SOL    HW273924   7.815   8.282   6.611
57343SOL     OW73925  11.875   6.865   7.226
57343SOL    HW173926  11.928   6.788   7.206
57343SOL    HW273927  11.788   6.831   7.244
57344SOL     OW73928   0.293  14.325   9.278
57344SOL    HW173929   0.201  14.348   9.293
57344SOL    HW273930   0.342  14.392   9.324
57345SOL     OW73931   5.962  14.565  11.653
57345SOL    HW173932   5.977  14.515  11.733
57345SOL    HW273933   5.980  14.504  11.582
57346SOL     OW73934  12.403   3.356   7.881
57346SOL    HW173935  12.460   3.414   7.831
57346SOL    HW273936  12.361   3.301   7.815
57347SOL     OW73937   9.083  12.516   2.518
57347SOL    HW173938   9.006  12.569   2.496
57347SOL    HW273939   9.156  12.560   2.473
57348SOL     OW73940   4.964   2.767   4.215
57348SOL    HW173941   5.018   2.805   4.146
57348SOL    HW273942   4.920   2.843   4.255
57349SOL     OW73943  10.641  13.589   1.870
57349SOL    HW173944  10.562  13.559   1.914
57349SOL    HW273945  10.712  13.566   1.929
57350SOL     OW73946   5.452  13.378   8.158
57350SOL    HW173947   5.547  13.387   8.145
57350SOL    HW273948   5.434  13.432   8.236
57351SOL     OW73949   4.168   8.681   2.339
57351SOL    HW173950   4.242   8.739   2.326
57351SOL    HW273951   4.162   8.631   2.258
57352SOL     OW73952  10.901   3.389   0.947
57352SOL    HW173953  10.968   3.424   0.888
57352SOL    HW273954  10.854   3.467   0.978
57353SOL     OW73955   0.355   1.238   6.666
57353SOL    HW173956   0.412   1.314   6.675
57353SOL    HW273957   0.273   1.273   6.631
57354SOL     OW73958   3.853  14.345   1.443
57354SOL    HW173959   3.798  14.296   1.383
57354SOL    HW273960   3.942  14.331   1.411
57355SOL     OW73961   0.448  11.126   4.849
57355SOL    HW173962   0.492  11.083   4.922
57355SOL    HW273963   0.357  11.095   4.855
57356SOL     OW73964   0.790  12.536   2.238
57356SOL    HW173965   0.709  12.487   2.254
57356SOL    HW273966   0.774  12.622   2.276
57357SOL     OW73967   3.424   2.767   9.133
57357SOL    HW173968   3.376   2.685   9.129
57357SOL    HW273969   3.471   2.772   9.050
57358SOL     OW73970  12.782  11.502  13.984
57358SOL    HW173971  12.863  11.496  14.033
57358SOL    HW273972  12.808  11.489  13.893
57359SOL     OW73973  13.040   5.334  11.126
57359SOL    HW173974  12.973   5.374  11.181
57359SOL    HW273975  13.001   5.329  11.039
57360SOL     OW73976   4.249   4.922   3.948
57360SOL    HW173977   4.267   4.927   3.854
57360SOL    HW273978   4.168   4.871   3.954
57361SOL     OW73979   4.038   4.614   4.927
57361SOL    HW173980   4.067   4.538   4.876
57361SOL    HW273981   3.943   4.604   4.932
57362SOL     OW73982   4.887   6.264   6.540
57362SOL    HW173983   4.803   6.223   6.563
57362SOL    HW273984   4.888   6.346   6.590
57363SOL     OW73985   1.821  10.301   2.231
57363SOL    HW173986   1.829  10.303   2.136
57363SOL    HW273987   1.732  10.268   2.247
57364SOL     OW73988  11.753   9.300  11.343
57364SOL    HW173989  11.671   9.325  11.300
57364SOL    HW273990  11.726   9.263  11.427
57365SOL     OW73991   5.138  13.470   3.670
57365SOL    HW173992   5.210  13.433   3.618
57365SOL    HW273993   5.124  13.407   3.740
57366SOL     OW73994  10.511   9.039   8.374
57366SOL    HW173995  10.490   9.040   8.281
57366SOL    HW273996  10.436   9.080   8.417
57367SOL     OW73997  13.660   9.183   3.767
57367SOL    HW173998  13.684   9.095   3.795
57367SOL    HW273999  13.592   9.210   3.829
57368SOL     OW74000   5.077   9.049   8.148
57368SOL    HW174001   4.987   9.076   8.132
57368SOL    HW274002   5.115   9.039   8.060
57369SOL     OW74003  13.331   7.350   8.618
57369SOL    HW174004  13.346   7.288   8.689
57369SOL    HW274005  13.375   7.311   8.542
57370SOL     OW74006   9.153   6.868   4.517
57370SOL    HW174007   9.073   6.876   4.569
57370SOL    HW274008   9.190   6.957   4.517
57371SOL     OW74009  12.079   2.919   9.782
57371SOL    HW174010  12.168   2.916   9.746
57371SOL    HW274011  12.036   2.842   9.745
57372SOL     OW74012  14.281   1.210  14.037
57372SOL    HW174013  14.238   1.295  14.040
57372SOL    HW274014  14.279   1.178  14.127
57373SOL     OW74015  11.821   6.877   2.497
57373SOL    HW174016  11.823   6.911   2.408
57373SOL    HW274017  11.807   6.955   2.552
57374SOL     OW74018   7.946   0.100  14.638
57374SOL    HW174019   7.949   0.178  14.582
57374SOL    HW274020   8.035   0.094  14.675
57375SOL     OW74021  11.413   8.353   1.915
57375SOL    HW174022  11.353   8.396   1.977
57375SOL    HW274023  11.495   8.344   1.964
57376SOL     OW74024  12.181  13.134   8.862
57376SOL    HW174025  12.113  13.201   8.850
57376SOL    HW274026  12.236  13.168   8.933
57377SOL     OW74027   4.244   4.423   6.798
57377SOL    HW174028   4.285   4.473   6.727
57377SOL    HW274029   4.313   4.415   6.864
57378SOL     OW74030  12.345   0.876  10.900
57378SOL    HW174031  12.435   0.850  10.920
57378SOL    HW274032  12.303   0.795  10.873
57379SOL     OW74033   9.066  12.217   7.086
57379SOL    HW174034   9.073  12.255   7.174
57379SOL    HW274035   9.117  12.136   7.090
57380SOL     OW74036  11.014  12.374  10.321
57380SOL    HW174037  10.979  12.306  10.263
57380SOL    HW274038  10.946  12.386  10.388
57381SOL     OW74039   2.956   1.052  13.904
57381SOL    HW174040   3.030   1.079  13.849
57381SOL    HW274041   2.919   0.977  13.859
57382SOL     OW74042  13.082   6.324   9.297
57382SOL    HW174043  13.008   6.288   9.248
57382SOL    HW274044  13.056   6.414   9.317
57383SOL     OW74045  12.342   2.326   5.789
57383SOL    HW174046  12.433   2.353   5.774
57383SOL    HW274047  12.300   2.337   5.704
57384SOL     OW74048   1.620   5.004   2.871
57384SOL    HW174049   1.701   5.046   2.844
57384SOL    HW274050   1.592   4.953   2.795
57385SOL     OW74051  13.915  13.616  14.052
57385SOL    HW174052  13.902  13.544  14.114
57385SOL    HW274053  13.903  13.576  13.966
57386SOL     OW74054   1.307   0.738   2.829
57386SOL    HW174055   1.253   0.730   2.907
57386SOL    HW274056   1.255   0.791   2.769
57387SOL     OW74057   8.043   1.613  13.008
57387SOL    HW174058   8.136   1.630  12.995
57387SOL    HW274059   8.017   1.672  13.078
57388SOL     OW74060   8.665   0.820   6.479
57388SOL    HW174061   8.583   0.808   6.430
57388SOL    HW274062   8.702   0.901   6.445
57389SOL     OW74063   1.116  10.413   6.539
57389SOL    HW174064   1.170  10.372   6.607
57389SOL    HW274065   1.070  10.339   6.498
57390SOL     OW74066   3.664   9.494   4.842
57390SOL    HW174067   3.589   9.545   4.873
57390SOL    HW274068   3.690   9.442   4.918
57391SOL     OW74069  14.206  13.042   5.568
57391SOL    HW174070  14.192  12.950   5.546
57391SOL    HW274071  14.132  13.065   5.624
57392SOL     OW74072   1.571   1.909  12.830
57392SOL    HW174073   1.532   1.962  12.761
57392SOL    HW274074   1.497   1.863  12.870
57393SOL     OW74075  10.504   7.519   8.453
57393SOL    HW174076  10.473   7.508   8.543
57393SOL    HW274077  10.449   7.587   8.417
57394SOL     OW74078   4.875   0.365   4.262
57394SOL    HW174079   4.947   0.310   4.291
57394SOL    HW274080   4.871   0.436   4.326
57395SOL     OW74081   4.146  14.439   2.485
57395SOL    HW174082   4.055  14.452   2.457
57395SOL    HW274083   4.198  14.461   2.408
57396SOL     OW74084   1.054  11.072   4.855
57396SOL    HW174085   0.959  11.069   4.843
57396SOL    HW274086   1.070  11.008   4.925
57397SOL     OW74087   2.273   7.639   6.814
57397SOL    HW174088   2.349   7.664   6.866
57397SOL    HW274089   2.307   7.572   6.753
57398SOL     OW74090   0.935   1.150   8.150
57398SOL    HW174091   0.866   1.155   8.217
57398SOL    HW274092   0.963   1.241   8.139
57399SOL     OW74093   7.745   5.536   9.263
57399SOL    HW174094   7.771   5.484   9.339
57399SOL    HW274095   7.666   5.583   9.291
57400SOL     OW74096   7.949  12.934   7.290
57400SOL    HW174097   7.862  12.925   7.327
57400SOL    HW274098   7.988  12.847   7.298
57401SOL     OW74099   0.819   7.657   4.969
57401SOL    HW174100   0.846   7.748   4.957
57401SOL    HW274101   0.814   7.622   4.880
57402SOL     OW74102   5.340   1.880   3.731
57402SOL    HW174103   5.362   1.798   3.688
57402SOL    HW274104   5.359   1.865   3.823
57403SOL     OW74105   2.155   7.295   9.463
57403SOL    HW174106   2.147   7.384   9.497
57403SOL    HW274107   2.247   7.287   9.436
57404SOL     OW74108   8.469   2.723  12.796
57404SOL    HW174109   8.443   2.719  12.704
57404SOL    HW274110   8.452   2.813  12.822
57405SOL     OW74111  13.819   4.191   3.442
57405SOL    HW174112  13.911   4.168   3.454
57405SOL    HW274113  13.818   4.250   3.366
57406SOL     OW74114   7.525   0.561  12.010
57406SOL    HW174115   7.607   0.540  11.965
57406SOL    HW274116   7.475   0.612  11.946
57407SOL     OW74117   5.531   7.464  13.117
57407SOL    HW174118   5.547   7.392  13.178
57407SOL    HW274119   5.437   7.481  13.124
57408SOL     OW74120   4.893   4.487   3.838
57408SOL    HW174121   4.975   4.494   3.788
57408SOL    HW274122   4.824   4.486   3.772
57409SOL     OW74123   7.172  11.527   1.330
57409SOL    HW174124   7.086  11.499   1.362
57409SOL    HW274125   7.207  11.449   1.286
57410SOL     OW74126   7.359   4.287   7.814
57410SOL    HW174127   7.373   4.193   7.801
57410SOL    HW274128   7.446   4.322   7.831
57411SOL     OW74129   9.722  13.146   3.212
57411SOL    HW174130   9.752  13.071   3.160
57411SOL    HW274131   9.729  13.220   3.152
57412SOL     OW74132  11.948  11.128   4.680
57412SOL    HW174133  12.009  11.136   4.606
57412SOL    HW274134  11.903  11.212   4.682
57413SOL     OW74135   1.223  13.184  10.985
57413SOL    HW174136   1.229  13.105  11.038
57413SOL    HW274137   1.143  13.227  11.015
57414SOL     OW74138  13.032   1.042  11.146
57414SOL    HW174139  13.005   1.090  11.067
57414SOL    HW274140  13.127   1.034  11.138
57415SOL     OW74141  13.801  11.384   6.467
57415SOL    HW174142  13.886  11.420   6.440
57415SOL    HW274143  13.780  11.320   6.400
57416SOL     OW74144   5.059   7.343  11.659
57416SOL    HW174145   5.101   7.257  11.656
57416SOL    HW274146   5.051   7.369  11.567
57417SOL     OW74147   2.906   5.862  12.427
57417SOL    HW174148   2.925   5.829  12.339
57417SOL    HW274149   2.811   5.853  12.436
57418SOL     OW74150   6.910  12.893   9.838
57418SOL    HW174151   6.850  12.835   9.791
57418SOL    HW274152   6.989  12.893   9.785
57419SOL     OW74153   3.788   5.128  12.451
57419SOL    HW174154   3.787   5.214  12.494
57419SOL    HW274155   3.850   5.077  12.503
57420SOL     OW74156   2.571  11.258   1.673
57420SOL    HW174157   2.580  11.349   1.646
57420SOL    HW274158   2.480  11.236   1.656
57421SOL     OW74159  11.006   8.248   4.772
57421SOL    HW174160  11.030   8.280   4.685
57421SOL    HW274161  11.051   8.164   4.781
57422SOL     OW74162  10.604   2.529   3.210
57422SOL    HW174163  10.619   2.517   3.116
57422SOL    HW274164  10.691   2.524   3.249
57423SOL     OW74165  10.461  13.576   0.013
57423SOL    HW174166  10.513  13.566  14.816
57423SOL    HW274167  10.463  13.670   0.033
57424SOL     OW74168  14.253   0.123   1.918
57424SOL    HW174169  14.298   0.064   1.979
57424SOL    HW274170  14.253   0.208   1.962
57425SOL     OW74171  13.822   4.247   9.282
57425SOL    HW174172  13.779   4.166   9.254
57425SOL    HW274173  13.834   4.236   9.377
57426SOL     OW74174  10.003  11.947  11.550
57426SOL    HW174175   9.976  11.970  11.639
57426SOL    HW274176   9.921  11.924  11.506
57427SOL     OW74177   1.830   9.707   1.713
57427SOL    HW174178   1.866   9.661   1.638
57427SOL    HW274179   1.742   9.733   1.686
57428SOL     OW74180   5.557   5.410   4.957
57428SOL    HW174181   5.624   5.478   4.968
57428SOL    HW274182   5.493   5.450   4.899
57429SOL     OW74183   1.511   7.451   3.820
57429SOL    HW174184   1.567   7.491   3.753
57429SOL    HW274185   1.422   7.478   3.796
57430SOL     OW74186  14.544   7.812   6.949
57430SOL    HW174187  14.623   7.810   7.003
57430SOL    HW274188  14.562   7.877   6.882
57431SOL     OW74189   6.670   4.872   9.389
57431SOL    HW174190   6.603   4.855   9.455
57431SOL    HW274191   6.716   4.788   9.379
57432SOL     OW74192   1.944   6.970   2.661
57432SOL    HW174193   1.890   7.047   2.644
57432SOL    HW274194   1.997   6.994   2.736
57433SOL     OW74195   8.238  12.593   5.915
57433SOL    HW174196   8.186  12.581   5.835
57433SOL    HW274197   8.264  12.505   5.940
57434SOL     OW74198   3.527   8.998   1.950
57434SOL    HW174199   3.599   8.967   2.005
57434SOL    HW274200   3.458   9.022   2.011
57435SOL     OW74201  12.936  11.824  14.594
57435SOL    HW174202  12.882  11.893  14.554
57435SOL    HW274203  13.024  11.861  14.597
57436SOL     OW74204   7.141   1.634   6.504
57436SOL    HW174205   7.214   1.622   6.565
57436SOL    HW274206   7.111   1.723   6.521
57437SOL     OW74207   1.171   9.155   1.706
57437SOL    HW174208   1.088   9.158   1.754
57437SOL    HW274209   1.227   9.218   1.751
57438SOL     OW74210  13.144  11.558   2.537
57438SOL    HW174211  13.231  11.582   2.504
57438SOL    HW274212  13.084  11.578   2.464
57439SOL     OW74213   8.382   2.691   8.675
57439SOL    HW174214   8.394   2.649   8.761
57439SOL    HW274215   8.289   2.676   8.654
57440SOL     OW74216   2.750  12.844   2.326
57440SOL    HW174217   2.683  12.794   2.372
57440SOL    HW274218   2.781  12.907   2.391
57441SOL     OW74219  12.996  14.437   5.611
57441SOL    HW174220  13.080  14.405   5.580
57441SOL    HW274221  12.931  14.390   5.558
57442SOL     OW74222  14.409  10.025   5.202
57442SOL    HW174223  14.378   9.968   5.131
57442SOL    HW274224  14.451  10.098   5.157
57443SOL     OW74225   7.970   0.402   0.606
57443SOL    HW174226   7.952   0.494   0.624
57443SOL    HW274227   7.934   0.388   0.518
57444SOL     OW74228   4.658   0.788   6.284
57444SOL    HW174229   4.705   0.837   6.216
57444SOL    HW274230   4.692   0.823   6.366
57445SOL     OW74231  13.245   6.165  11.010
57445SOL    HW174232  13.207   6.168  11.098
57445SOL    HW274233  13.327   6.117  11.022
57446SOL     OW74234   2.250   9.342  12.878
57446SOL    HW174235   2.312   9.364  12.809
57446SOL    HW274236   2.240   9.423  12.928
57447SOL     OW74237  14.286   7.360  13.742
57447SOL    HW174238  14.232   7.418  13.688
57447SOL    HW274239  14.255   7.376  13.832
57448SOL     OW74240   2.416  10.089   0.450
57448SOL    HW174241   2.457  10.138   0.378
57448SOL    HW274242   2.323  10.110   0.442
57449SOL     OW74243   4.063   2.971  10.965
57449SOL    HW174244   4.079   3.044  10.904
57449SOL    HW274245   4.130   2.982  11.032
57450SOL     OW74246   6.329  14.206   6.646
57450SOL    HW174247   6.386  14.143   6.601
57450SOL    HW274248   6.313  14.166   6.732
57451SOL     OW74249   2.153   1.847  14.484
57451SOL    HW174250   2.182   1.758  14.463
57451SOL    HW274251   2.205   1.904  14.427
57452SOL     OW74252  14.289  14.365  10.319
57452SOL    HW174253  14.361  14.412  10.361
57452SOL    HW274254  14.232  14.340  10.391
57453SOL     OW74255   1.298   0.256   6.016
57453SOL    HW174256   1.298   0.298   5.930
57453SOL    HW274257   1.389   0.228   6.028
57454SOL     OW74258   0.231  12.434   0.568
57454SOL    HW174259   0.203  12.525   0.570
57454SOL    HW274260   0.277  12.420   0.650
57455SOL     OW74261   4.146  11.645   5.307
57455SOL    HW174262   4.137  11.663   5.213
57455SOL    HW274263   4.146  11.731   5.348
57456SOL     OW74264  10.038   1.114  12.993
57456SOL    HW174265   9.973   1.044  12.992
57456SOL    HW274266  10.121   1.071  13.014
57457SOL     OW74267   3.757   4.863   7.028
57457SOL    HW174268   3.762   4.837   6.937
57457SOL    HW274269   3.664   4.867   7.048
57458SOL     OW74270  12.592   5.335   6.990
57458SOL    HW174271  12.516   5.351   7.046
57458SOL    HW274272  12.642   5.416   6.994
57459SOL     OW74273   6.721   0.138  14.808
57459SOL    HW174274   6.730   0.135   0.021
57459SOL    HW274275   6.651   0.077  14.788
57460SOL     OW74276  14.255   9.059   3.012
57460SOL    HW174277  14.321   9.071   3.080
57460SOL    HW274278  14.176   9.100   3.048
57461SOL     OW74279   3.661  11.817   8.075
57461SOL    HW174280   3.731  11.875   8.107
57461SOL    HW274281   3.591  11.877   8.049
57462SOL     OW74282   0.294  13.547   5.889
57462SOL    HW174283   0.229  13.590   5.832
57462SOL    HW274284   0.341  13.619   5.931
57463SOL     OW74285   7.094   9.697   7.074
57463SOL    HW174286   7.091   9.601   7.068
57463SOL    HW274287   7.187   9.717   7.085
57464SOL     OW74288   0.543  11.949   1.611
57464SOL    HW174289   0.573  11.885   1.546
57464SOL    HW274290   0.480  12.004   1.564
57465SOL     OW74291   0.120   3.298   8.223
57465SOL    HW174292   0.183   3.316   8.292
57465SOL    HW274293   0.039   3.338   8.253
57466SOL     OW74294   0.347   7.878   7.884
57466SOL    HW174295   0.254   7.902   7.882
57466SOL    HW274296   0.376   7.905   7.971
57467SOL     OW74297  13.713  11.153   8.522
57467SOL    HW174298  13.803  11.161   8.493
57467SOL    HW274299  13.701  11.060   8.539
57468SOL     OW74300   9.642   4.864  13.038
57468SOL    HW174301   9.599   4.844  13.121
57468SOL    HW274302   9.658   4.958  13.042
57469SOL     OW74303  10.596   4.665   1.173
57469SOL    HW174304  10.605   4.737   1.111
57469SOL    HW274305  10.675   4.613   1.160
57470SOL     OW74306   8.382  11.580   9.562
57470SOL    HW174307   8.305  11.637   9.568
57470SOL    HW274308   8.369  11.531   9.481
57471SOL     OW74309   2.573  13.788  11.421
57471SOL    HW174310   2.569  13.693  11.432
57471SOL    HW274311   2.617  13.820  11.499
57472SOL     OW74312  10.181   3.142  14.354
57472SOL    HW174313  10.145   3.091  14.282
57472SOL    HW274314  10.195   3.229  14.318
57473SOL     OW74315  12.150   1.697  14.620
57473SOL    HW174316  12.216   1.704  14.552
57473SOL    HW274317  12.096   1.775  14.609
57474SOL     OW74318  10.002   1.289   9.656
57474SOL    HW174319  10.093   1.307   9.678
57474SOL    HW274320   9.986   1.200   9.689
57475SOL     OW74321  13.700   1.672   4.742
57475SOL    HW174322  13.646   1.698   4.817
57475SOL    HW274323  13.641   1.675   4.667
57476SOL     OW74324  10.807   3.096   3.471
57476SOL    HW174325  10.875   3.164   3.477
57476SOL    HW274326  10.842   3.032   3.409
57477SOL     OW74327  14.330   2.864   7.366
57477SOL    HW174328  14.354   2.947   7.408
57477SOL    HW274329  14.251   2.885   7.315
57478SOL     OW74330   9.370   1.869   5.716
57478SOL    HW174331   9.461   1.871   5.684
57478SOL    HW274332   9.322   1.920   5.651
57479SOL     OW74333  12.558   4.917   1.723
57479SOL    HW174334  12.555   5.010   1.703
57479SOL    HW274335  12.541   4.874   1.639
57480SOL     OW74336   4.921   6.250   0.141
57480SOL    HW174337   4.874   6.329   0.166
57480SOL    HW274338   4.947   6.265   0.050
57481SOL     OW74339  14.132   9.345   2.892
57481SOL    HW174340  14.084   9.403   2.833
57481SOL    HW274341  14.073   9.332   2.966
57482SOL     OW74342   8.410   7.166   3.770
57482SOL    HW174343   8.423   7.077   3.804
57482SOL    HW274344   8.366   7.212   3.842
57483SOL     OW74345   7.501   2.882   4.704
57483SOL    HW174346   7.467   2.888   4.793
57483SOL    HW274347   7.528   2.791   4.695
57484SOL     OW74348   1.393  13.024  11.871
57484SOL    HW174349   1.360  13.114  11.874
57484SOL    HW274350   1.315  12.969  11.875
57485SOL     OW74351  13.786  12.881   8.558
57485SOL    HW174352  13.805  12.885   8.652
57485SOL    HW274353  13.690  12.875   8.553
57486SOL     OW74354   1.059   2.269   8.425
57486SOL    HW174355   1.025   2.255   8.336
57486SOL    HW274356   0.998   2.330   8.465
57487SOL     OW74357   3.384  14.157  10.267
57487SOL    HW174358   3.359  14.221  10.201
57487SOL    HW274359   3.315  14.163  10.333
57488SOL     OW74360  13.092   0.888   6.006
57488SOL    HW174361  13.011   0.841   5.985
57488SOL    HW274362  13.070   0.980   5.993
57489SOL     OW74363  12.687   8.622  13.307
57489SOL    HW174364  12.742   8.622  13.385
57489SOL    HW274365  12.748   8.622  13.233
57490SOL     OW74366   5.156  14.665  11.258
57490SOL    HW174367   5.195  14.752  11.260
57490SOL    HW274368   5.178  14.631  11.171
57491SOL     OW74369  10.722  10.593  13.151
57491SOL    HW174370  10.627  10.595  13.165
57491SOL    HW274371  10.746  10.502  13.169
57492SOL     OW74372   4.398   1.471  12.325
57492SOL    HW174373   4.444   1.499  12.247
57492SOL    HW274374   4.305   1.485  12.305
57493SOL     OW74375   6.633   8.228  12.634
57493SOL    HW174376   6.682   8.193  12.559
57493SOL    HW274377   6.677   8.190  12.710
57494SOL     OW74378  13.549  10.385  12.723
57494SOL    HW174379  13.499  10.466  12.714
57494SOL    HW274380  13.637  10.409  12.694
57495SOL     OW74381   8.006   5.830   6.249
57495SOL    HW174382   8.021   5.878   6.330
57495SOL    HW274383   7.927   5.869   6.212
57496SOL     OW74384   1.039   3.018   9.411
57496SOL    HW174385   1.049   3.052   9.322
57496SOL    HW274386   1.077   3.085   9.468
57497SOL     OW74387  10.978   6.608   3.771
57497SOL    HW174388  11.025   6.527   3.791
57497SOL    HW274389  10.886   6.585   3.781
57498SOL     OW74390   4.161  11.895  12.415
57498SOL    HW174391   4.245  11.881  12.371
57498SOL    HW274392   4.126  11.975  12.376
57499SOL     OW74393   9.930   6.270   0.582
57499SOL    HW174394   9.847   6.228   0.561
57499SOL    HW274395   9.918   6.304   0.671
57500SOL     OW74396   4.240   5.621   1.564
57500SOL    HW174397   4.252   5.613   1.470
57500SOL    HW274398   4.328   5.607   1.601
57501SOL     OW74399  13.434  11.443   6.197
57501SOL    HW174400  13.472  11.518   6.151
57501SOL    HW274401  13.475  11.446   6.284
57502SOL     OW74402   1.732   0.914  10.811
57502SOL    HW174403   1.774   0.862  10.743
57502SOL    HW274404   1.641   0.922  10.783
57503SOL     OW74405   0.879   1.477   5.986
57503SOL    HW174406   0.947   1.413   6.010
57503SOL    HW274407   0.797   1.428   5.989
57504SOL     OW74408   1.428   1.914  10.096
57504SOL    HW174409   1.421   2.004  10.063
57504SOL    HW274410   1.435   1.924  10.191
57505SOL     OW74411   0.821   3.613   6.655
57505SOL    HW174412   0.800   3.704   6.634
57505SOL    HW274413   0.775   3.597   6.737
57506SOL     OW74414   1.206  12.722   3.536
57506SOL    HW174415   1.130  12.687   3.490
57506SOL    HW274416   1.199  12.686   3.624
57507SOL     OW74417   4.534   9.745   1.341
57507SOL    HW174418   4.564   9.657   1.364
57507SOL    HW274419   4.446   9.732   1.307
57508SOL     OW74420  10.266   8.229  12.115
57508SOL    HW174421  10.180   8.190  12.131
57508SOL    HW274422  10.256   8.275  12.032
57509SOL     OW74423   9.678  13.546   7.878
57509SOL    HW174424   9.750  13.588   7.925
57509SOL    HW274425   9.632  13.496   7.945
57510SOL     OW74426   4.021  10.100  10.674
57510SOL    HW174427   4.083  10.128  10.607
57510SOL    HW274428   4.074  10.082  10.751
57511SOL     OW74429  11.041   7.437   0.084
57511SOL    HW174430  11.069   7.347   0.069
57511SOL    HW274431  10.954   7.430   0.124
57512SOL     OW74432  10.381   8.801   6.585
57512SOL    HW174433  10.351   8.728   6.531
57512SOL    HW274434  10.459   8.833   6.541
57513SOL     OW74435   4.404   2.934  13.541
57513SOL    HW174436   4.366   3.022  13.536
57513SOL    HW274437   4.466   2.931  13.468
57514SOL     OW74438  14.672  13.453  13.390
57514SOL    HW174439  14.756  13.415  13.415
57514SOL    HW274440  14.607  13.401  13.438
57515SOL     OW74441  10.169   4.886  12.275
57515SOL    HW174442  10.215   4.842  12.347
57515SOL    HW274443  10.228   4.875  12.200
57516SOL     OW74444   5.560  11.254   0.920
57516SOL    HW174445   5.478  11.232   0.876
57516SOL    HW274446   5.579  11.343   0.891
57517SOL     OW74447   8.126   2.278   8.690
57517SOL    HW174448   8.035   2.283   8.659
57517SOL    HW274449   8.120   2.292   8.784
57518SOL     OW74450   5.162   4.309   9.927
57518SOL    HW174451   5.112   4.273   9.999
57518SOL    HW274452   5.231   4.361   9.968
57519SOL     OW74453   6.886   4.592  10.529
57519SOL    HW174454   6.954   4.598  10.462
57519SOL    HW274455   6.870   4.498  10.539
57520SOL     OW74456   3.354   4.040   4.907
57520SOL    HW174457   3.259   4.049   4.909
57520SOL    HW274458   3.370   3.950   4.878
57521SOL     OW74459  11.841   4.322  11.585
57521SOL    HW174460  11.910   4.255  11.585
57521SOL    HW274461  11.837   4.351  11.676
57522SOL     OW74462  11.543   9.549  14.790
57522SOL    HW174463  11.463   9.584  14.752
57522SOL    HW274464  11.547   9.588  14.878
57523SOL     OW74465  14.627   1.302  11.231
57523SOL    HW174466  14.604   1.311  11.138
57523SOL    HW274467  14.678   1.381  11.250
57524SOL     OW74468   6.874   0.699   9.477
57524SOL    HW174469   6.855   0.609   9.504
57524SOL    HW274470   6.810   0.752   9.523
57525SOL     OW74471  13.048   0.305   4.622
57525SOL    HW174472  13.025   0.396   4.639
57525SOL    HW274473  12.967   0.257   4.637
57526SOL     OW74474   6.781  14.594   1.681
57526SOL    HW174475   6.839  14.521   1.663
57526SOL    HW274476   6.803  14.622   1.770
57527SOL     OW74477   3.590   9.987   7.232
57527SOL    HW174478   3.647   9.913   7.253
57527SOL    HW274479   3.540  10.001   7.313
57528SOL     OW74480   7.564   3.739   6.719
57528SOL    HW174481   7.496   3.782   6.666
57528SOL    HW274482   7.591   3.664   6.667
57529SOL     OW74483   8.235  11.078   9.372
57529SOL    HW174484   8.190  11.035   9.300
57529SOL    HW274485   8.169  11.134   9.412
57530SOL     OW74486  13.452   1.516   2.994
57530SOL    HW174487  13.453   1.526   2.899
57530SOL    HW274488  13.531   1.465   3.014
57531SOL     OW74489  12.136   6.736   4.101
57531SOL    HW174490  12.069   6.798   4.131
57531SOL    HW274491  12.098   6.650   4.118
57532SOL     OW74492   6.430  10.711  13.764
57532SOL    HW174493   6.443  10.723  13.670
57532SOL    HW274494   6.492  10.642  13.789
57533SOL     OW74495   0.500   0.408   9.568
57533SOL    HW174496   0.512   0.350   9.493
57533SOL    HW274497   0.420   0.377   9.610
57534SOL     OW74498   5.635   5.063   2.135
57534SOL    HW174499   5.637   5.078   2.230
57534SOL    HW274500   5.664   5.146   2.097
57535SOL     OW74501  11.182  10.119   2.358
57535SOL    HW174502  11.151  10.095   2.446
57535SOL    HW274503  11.169  10.213   2.353
57536SOL     OW74504   7.750   9.890   2.869
57536SOL    HW174505   7.689   9.904   2.941
57536SOL    HW274506   7.742   9.968   2.815
57537SOL     OW74507   7.413   0.602  10.391
57537SOL    HW174508   7.448   0.519  10.424
57537SOL    HW274509   7.336   0.577  10.340
57538SOL     OW74510   9.115   1.838   3.373
57538SOL    HW174511   9.053   1.874   3.436
57538SOL    HW274512   9.062   1.815   3.297
57539SOL     OW74513   7.646  13.524  14.386
57539SOL    HW174514   7.659  13.430  14.372
57539SOL    HW274515   7.562  13.530  14.431
57540SOL     OW74516  10.317   5.597   6.195
57540SOL    HW174517  10.362   5.670   6.152
57540SOL    HW274518  10.267   5.638   6.265
57541SOL     OW74519   1.392   4.734  14.277
57541SOL    HW174520   1.390   4.738  14.373
57541SOL    HW274521   1.310   4.693  14.253
57542SOL     OW74522   4.193  13.781   4.901
57542SOL    HW174523   4.267  13.741   4.948
57542SOL    HW274524   4.131  13.805   4.969
57543SOL     OW74525   5.386   8.209  13.079
57543SOL    HW174526   5.366   8.200  12.986
57543SOL    HW274527   5.478   8.235  13.082
57544SOL     OW74528   9.894   0.225   9.407
57544SOL    HW174529   9.820   0.244   9.464
57544SOL    HW274530   9.947   0.163   9.457
57545SOL     OW74531   4.014   7.903   0.115
57545SOL    HW174532   4.054   7.837   0.059
57545SOL    HW274533   4.020   7.985   0.066
57546SOL     OW74534  13.512   3.842   6.782
57546SOL    HW174535  13.602   3.828   6.751
57546SOL    HW274536  13.523   3.887   6.866
57547SOL     OW74537  11.348   6.434   7.276
57547SOL    HW174538  11.321   6.397   7.361
57547SOL    HW274539  11.317   6.371   7.211
57548SOL     OW74540   8.068   1.695   0.624
57548SOL    HW174541   8.149   1.730   0.585
57548SOL    HW274542   7.999   1.755   0.594
57549SOL     OW74543   3.353   5.217  10.187
57549SOL    HW174544   3.421   5.156  10.214
57549SOL    HW274545   3.357   5.218  10.091
57550SOL     OW74546   5.802   9.843  13.757
57550SOL    HW174547   5.891   9.853  13.723
57550SOL    HW274548   5.814   9.823  13.850
57551SOL     OW74549   6.359   8.850   4.100
57551SOL    HW174550   6.366   8.945   4.088
57551SOL    HW274551   6.289   8.840   4.165
57552SOL     OW74552   6.389  12.820   2.651
57552SOL    HW174553   6.442  12.867   2.716
57552SOL    HW274554   6.452  12.797   2.582
57553SOL     OW74555  11.081   9.602   9.537
57553SOL    HW174556  11.111   9.662   9.605
57553SOL    HW274557  11.160   9.580   9.487
57554SOL     OW74558   7.714   9.627  11.356
57554SOL    HW174559   7.753   9.615  11.442
57554SOL    HW274560   7.738   9.715  11.330
57555SOL     OW74561   3.776   0.716  11.222
57555SOL    HW174562   3.799   0.641  11.277
57555SOL    HW274563   3.682   0.726  11.233
57556SOL     OW74564   0.175  11.919   2.499
57556SOL    HW174565   0.206  11.844   2.548
57556SOL    HW274566   0.100  11.952   2.549
57557SOL     OW74567   9.765   2.334  13.415
57557SOL    HW174568   9.852   2.311  13.385
57557SOL    HW274569   9.709   2.262  13.386
57558SOL     OW74570   8.181  14.806   1.520
57558SOL    HW174571   8.213  14.748   1.590
57558SOL    HW274572   8.228   0.006   1.534
57559SOL     OW74573   5.953   0.047   6.291
57559SOL    HW174574   5.868   0.005   6.284
57559SOL    HW274575   5.941   0.134   6.252
57560SOL     OW74576  10.879   9.920   6.673
57560SOL    HW174577  10.886   9.966   6.589
57560SOL    HW274578  10.968   9.887   6.689
57561SOL     OW74579   7.334  14.500   0.485
57561SOL    HW174580   7.375  14.525   0.402
57561SOL    HW274581   7.245  14.474   0.461
57562SOL     OW74582   9.328   1.740   3.471
57562SOL    HW174583   9.296   1.668   3.526
57562SOL    HW274584   9.249   1.775   3.430
57563SOL     OW74585   7.689  10.611  12.566
57563SOL    HW174586   7.653  10.555  12.496
57563SOL    HW274587   7.783  10.591  12.565
57564SOL     OW74588   3.374  12.305  14.416
57564SOL    HW174589   3.281  12.303  14.395
57564SOL    HW274590   3.400  12.213  14.417
57565SOL     OW74591   2.970   0.183   0.449
57565SOL    HW174592   2.991   0.276   0.448
57565SOL    HW274593   2.881   0.179   0.484
57566SOL     OW74594   3.237  14.088   7.155
57566SOL    HW174595   3.260  14.068   7.065
57566SOL    HW274596   3.258  14.181   7.166
57567SOL     OW74597   8.687   5.404   9.457
57567SOL    HW174598   8.725   5.436   9.375
57567SOL    HW274599   8.755   5.419   9.523
57568SOL     OW74600   3.055   3.833   1.256
57568SOL    HW174601   3.078   3.742   1.237
57568SOL    HW274602   3.086   3.847   1.345
57569SOL     OW74603   4.917  12.111  10.180
57569SOL    HW174604   4.925  12.127  10.274
57569SOL    HW274605   4.943  12.019  10.170
57570SOL     OW74606   2.775   8.229   3.637
57570SOL    HW174607   2.722   8.176   3.697
57570SOL    HW274608   2.735   8.317   3.642
57571SOL     OW74609   2.441   2.104   1.013
57571SOL    HW174610   2.507   2.091   1.082
57571SOL    HW274611   2.366   2.053   1.043
57572SOL     OW74612   8.807   0.246   1.846
57572SOL    HW174613   8.842   0.224   1.932
57572SOL    HW274614   8.874   0.218   1.784
57573SOL     OW74615   3.580   3.228   3.702
57573SOL    HW174616   3.494   3.190   3.721
57573SOL    HW274617   3.625   3.163   3.648
57574SOL     OW74618   0.806   2.570   5.297
57574SOL    HW174619   0.831   2.637   5.360
57574SOL    HW274620   0.863   2.586   5.222
57575SOL     OW74621   4.307   9.856  10.017
57575SOL    HW174622   4.356   9.775  10.028
57575SOL    HW274623   4.223   9.839  10.060
57576SOL     OW74624   2.616   9.500   4.429
57576SOL    HW174625   2.686   9.536   4.484
57576SOL    HW274626   2.655   9.422   4.389
57577SOL     OW74627   5.555  10.846  11.137
57577SOL    HW174628   5.462  10.853  11.159
57577SOL    HW274629   5.567  10.753  11.116
57578SOL     OW74630   7.757  11.700   6.387
57578SOL    HW174631   7.852  11.690   6.394
57578SOL    HW274632   7.721  11.617   6.417
57579SOL     OW74633   6.294   5.777   2.149
57579SOL    HW174634   6.258   5.711   2.090
57579SOL    HW274635   6.303   5.732   2.233
57580SOL     OW74636   2.957   7.364  12.921
57580SOL    HW174637   3.021   7.423  12.880
57580SOL    HW274638   2.899   7.423  12.970
57581SOL     OW74639   6.360   8.318   2.764
57581SOL    HW174640   6.380   8.365   2.683
57581SOL    HW274641   6.286   8.366   2.801
57582SOL     OW74642   4.321   6.402  13.986
57582SOL    HW174643   4.374   6.349  14.046
57582SOL    HW274644   4.383   6.467  13.952
57583SOL     OW74645   4.624   2.991  12.840
57583SOL    HW174646   4.613   3.085  12.825
57583SOL    HW274647   4.623   2.982  12.936
57584SOL     OW74648   0.042   6.464   3.674
57584SOL    HW174649   0.070   6.544   3.630
57584SOL    HW274650  14.856   6.428   3.617
57585SOL     OW74651  13.476   4.258   7.101
57585SOL    HW174652  13.389   4.251   7.061
57585SOL    HW274653  13.471   4.206   7.181
57586SOL     OW74654   9.497  14.697  14.182
57586SOL    HW174655   9.447  14.680  14.103
57586SOL    HW274656   9.431  14.712  14.250
57587SOL     OW74657   2.067  12.006   1.362
57587SOL    HW174658   2.016  12.085   1.343
57587SOL    HW274659   2.158  12.035   1.359
57588SOL     OW74660   9.558   0.479   6.720
57588SOL    HW174661   9.548   0.570   6.691
57588SOL    HW274662   9.639   0.479   6.771
57589SOL     OW74663   1.627  11.016  14.758
57589SOL    HW174664   1.546  11.009  14.809
57589SOL    HW274665   1.657  10.925  14.748
57590SOL     OW74666   1.567  10.150   1.313
57590SOL    HW174667   1.622  10.080   1.348
57590SOL    HW274668   1.478  10.119   1.326
57591SOL     OW74669  12.835   2.103  10.240
57591SOL    HW174670  12.740   2.114  10.232
57591SOL    HW274671  12.852   2.108  10.334
57592SOL     OW74672   4.635  12.780  13.130
57592SOL    HW174673   4.619  12.700  13.181
57592SOL    HW274674   4.726  12.772  13.102
57593SOL     OW74675  11.526  14.598  14.033
57593SOL    HW174676  11.543  14.608  13.939
57593SOL    HW274677  11.431  14.595  14.040
57594SOL     OW74678  10.051   1.500   2.819
57594SOL    HW174679  10.017   1.500   2.729
57594SOL    HW274680  10.143   1.474   2.810
57595SOL     OW74681   9.625   9.044  10.942
57595SOL    HW174682   9.553   8.981  10.941
57595SOL    HW274683   9.698   8.997  10.900
57596SOL     OW74684   0.075   9.726   7.948
57596SOL    HW174685   0.114   9.694   8.029
57596SOL    HW274686   0.149   9.736   7.887
57597SOL     OW74687   9.411   0.641   1.745
57597SOL    HW174688   9.424   0.619   1.837
57597SOL    HW274689   9.321   0.614   1.726
57598SOL     OW74690   3.826   2.688   9.894
57598SOL    HW174691   3.754   2.741   9.859
57598SOL    HW274692   3.825   2.704   9.988
57599SOL     OW74693  14.506  13.464  10.769
57599SOL    HW174694  14.443  13.405  10.728
57599SOL    HW274695  14.566  13.489  10.698
57600SOL     OW74696  13.304   3.322   9.275
57600SOL    HW174697  13.214   3.344   9.299
57600SOL    HW274698  13.328   3.387   9.209
57601SOL     OW74699  11.732   1.995   8.493
57601SOL    HW174700  11.761   1.912   8.456
57601SOL    HW274701  11.813   2.043   8.510
57602SOL     OW74702   2.234   0.691   9.373
57602SOL    HW174703   2.148   0.668   9.338
57602SOL    HW274704   2.272   0.748   9.306
57603SOL     OW74705  10.187  10.566  12.316
57603SOL    HW174706  10.196  10.473  12.295
57603SOL    HW274707  10.145  10.567  12.402
57604SOL     OW74708   7.710  11.741   3.007
57604SOL    HW174709   7.636  11.680   3.007
57604SOL    HW274710   7.717  11.770   2.916
57605SOL     OW74711   3.675   5.104   9.961
57605SOL    HW174712   3.644   5.163   9.892
57605SOL    HW274713   3.610   5.113  10.031
57606SOL     OW74714   5.561   0.677   0.904
57606SOL    HW174715   5.550   0.663   0.810
57606SOL    HW274716   5.649   0.643   0.923
57607SOL     OW74717  13.884   9.801  10.103
57607SOL    HW174718  13.837   9.761  10.176
57607SOL    HW274719  13.953   9.739  10.082
57608SOL     OW74720   9.615   2.607   6.958
57608SOL    HW174721   9.542   2.545   6.964
57608SOL    HW274722   9.693   2.555   6.978
57609SOL     OW74723   4.032  14.696  10.996
57609SOL    HW174724   4.001  14.691  11.087
57609SOL    HW274725   4.118  14.736  11.003
57610SOL     OW74726   2.892   9.442   6.101
57610SOL    HW174727   2.951   9.510   6.134
57610SOL    HW274728   2.838   9.419   6.177
57611SOL     OW74729   9.664  13.281  11.495
57611SOL    HW174730   9.651  13.272  11.401
57611SOL    HW274731   9.758  13.267  11.508
57612SOL     OW74732   3.626   5.831  11.443
57612SOL    HW174733   3.644   5.918  11.479
57612SOL    HW274734   3.699   5.815  11.383
57613SOL     OW74735   5.641   1.639  14.202
57613SOL    HW174736   5.558   1.641  14.250
57613SOL    HW274737   5.618   1.663  14.113
57614SOL     OW74738  13.733   2.117  10.827
57614SOL    HW174739  13.691   2.202  10.814
57614SOL    HW274740  13.685   2.058  10.769
57615SOL     OW74741  10.830   4.736   4.258
57615SOL    HW174742  10.840   4.679   4.334
57615SOL    HW274743  10.752   4.788   4.276
57616SOL     OW74744   6.276  13.171   2.182
57616SOL    HW174745   6.257  13.100   2.243
57616SOL    HW274746   6.277  13.129   2.096
57617SOL     OW74747   5.971  11.932  11.402
57617SOL    HW174748   6.010  11.844  11.400
57617SOL    HW274749   6.042  11.990  11.376
57618SOL     OW74750  12.892   7.251   0.409
57618SOL    HW174751  12.977   7.211   0.392
57618SOL    HW274752  12.909   7.345   0.413
57619SOL     OW74753  14.000   7.673   3.459
57619SOL    HW174754  13.913   7.660   3.421
57619SOL    HW274755  14.002   7.613   3.534
57620SOL     OW74756   5.550   2.972  11.872
57620SOL    HW174757   5.582   3.037  11.809
57620SOL    HW274758   5.478   2.928  11.826
57621SOL     OW74759   1.954  10.165   3.895
57621SOL    HW174760   2.019  10.103   3.861
57621SOL    HW274761   1.869  10.125   3.875
57622SOL     OW74762   2.691   9.657  12.666
57622SOL    HW174763   2.730   9.576  12.699
57622SOL    HW274764   2.625   9.628  12.603
57623SOL     OW74765   8.870   8.486   1.349
57623SOL    HW174766   8.913   8.494   1.264
57623SOL    HW274767   8.935   8.519   1.412
57624SOL     OW74768   0.315  14.001   4.956
57624SOL    HW174769   0.285  13.995   4.866
57624SOL    HW274770   0.402  13.960   4.956
57625SOL     OW74771   2.879   8.752  10.445
57625SOL    HW174772   2.799   8.804  10.457
57625SOL    HW274773   2.863   8.702  10.365
57626SOL     OW74774   2.640  10.390   0.728
57626SOL    HW174775   2.576  10.452   0.763
57626SOL    HW274776   2.593  10.341   0.661
57627SOL     OW74777   0.135   0.038   4.661
57627SOL    HW174778   0.169  14.865   4.590
57627SOL    HW274779   0.205   0.038   4.726
57628SOL     OW74780  12.510   9.997   4.654
57628SOL    HW174781  12.506  10.072   4.712
57628SOL    HW274782  12.597   9.960   4.668
57629SOL     OW74783  14.103   0.981  12.978
57629SOL    HW174784  14.098   0.929  13.059
57629SOL    HW274785  14.160   0.930  12.921
57630SOL     OW74786   9.418   7.351   1.132
57630SOL    HW174787   9.379   7.290   1.069
57630SOL    HW274788   9.503   7.374   1.094
57631SOL     OW74789   6.988   2.744   4.117
57631SOL    HW174790   7.022   2.765   4.204
57631SOL    HW274791   7.035   2.803   4.058
57632SOL     OW74792  14.587   1.611   0.859
57632SOL    HW174793  14.656   1.646   0.803
57632SOL    HW274794  14.573   1.678   0.926
57633SOL     OW74795  12.566   6.692   3.926
57633SOL    HW174796  12.514   6.771   3.920
57633SOL    HW274797  12.522   6.630   3.867
57634SOL     OW74798   3.148   7.886  13.626
57634SOL    HW174799   3.238   7.885  13.660
57634SOL    HW274800   3.093   7.897  13.704
57635SOL     OW74801   6.614   8.936   4.854
57635SOL    HW174802   6.609   8.840   4.853
57635SOL    HW274803   6.536   8.964   4.900
57636SOL     OW74804  14.605   5.998   3.928
57636SOL    HW174805  14.512   5.997   3.906
57636SOL    HW274806  14.637   6.083   3.898
57637SOL     OW74807   7.933   4.399   5.563
57637SOL    HW174808   8.016   4.404   5.611
57637SOL    HW274809   7.938   4.469   5.498
57638SOL     OW74810  13.959   1.389   6.532
57638SOL    HW174811  13.906   1.402   6.611
57638SOL    HW274812  14.028   1.329   6.559
57639SOL     OW74813   7.896   0.988   4.620
57639SOL    HW174814   7.869   0.897   4.630
57639SOL    HW274815   7.925   1.015   4.707
57640SOL     OW74816   5.648  10.108   4.984
57640SOL    HW174817   5.661  10.111   5.079
57640SOL    HW274818   5.566  10.061   4.972
57641SOL     OW74819   4.690   9.029   4.066
57641SOL    HW174820   4.735   9.024   3.982
57641SOL    HW274821   4.691   8.939   4.099
57642SOL     OW74822   5.961  11.534   4.288
57642SOL    HW174823   5.960  11.620   4.330
57642SOL    HW274824   5.872  11.522   4.255
57643SOL     OW74825   4.863   6.982   2.266
57643SOL    HW174826   4.852   6.905   2.211
57643SOL    HW274827   4.951   6.974   2.302
57644SOL     OW74828   1.721   3.227  11.576
57644SOL    HW174829   1.785   3.177  11.525
57644SOL    HW274830   1.709   3.177  11.656
57645SOL     OW74831   1.420   8.757   9.566
57645SOL    HW174832   1.392   8.813   9.639
57645SOL    HW274833   1.356   8.686   9.565
57646SOL     OW74834   3.125  11.323   5.402
57646SOL    HW174835   3.200  11.354   5.351
57646SOL    HW274836   3.141  11.358   5.490
57647SOL     OW74837   2.244   1.303   2.480
57647SOL    HW174838   2.220   1.379   2.533
57647SOL    HW274839   2.308   1.256   2.533
57648SOL     OW74840  14.477   7.951   9.409
57648SOL    HW174841  14.388   7.915   9.417
57648SOL    HW274842  14.517   7.900   9.338
57649SOL     OW74843   8.529   6.612   4.131
57649SOL    HW174844   8.603   6.595   4.073
57649SOL    HW274845   8.452   6.591   4.079
57650SOL     OW74846   6.750   6.415   1.075
57650SOL    HW174847   6.770   6.390   0.985
57650SOL    HW274848   6.672   6.363   1.098
57651SOL     OW74849  11.608  10.853   5.856
57651SOL    HW174850  11.683  10.903   5.889
57651SOL    HW274851  11.536  10.875   5.915
57652SOL     OW74852   7.141   3.785   2.871
57652SOL    HW174853   7.131   3.879   2.888
57652SOL    HW274854   7.148   3.746   2.958
57653SOL     OW74855   6.208   7.439   6.690
57653SOL    HW174856   6.187   7.364   6.746
57653SOL    HW274857   6.302   7.430   6.673
57654SOL     OW74858   9.200   6.370   5.540
57654SOL    HW174859   9.132   6.431   5.511
57654SOL    HW274860   9.152   6.299   5.582
57655SOL     OW74861   7.614   0.746   6.724
57655SOL    HW174862   7.584   0.658   6.747
57655SOL    HW274863   7.676   0.769   6.793
57656SOL     OW74864  10.218   7.911   5.989
57656SOL    HW174865  10.124   7.904   6.005
57656SOL    HW274866  10.232   7.865   5.906
57657SOL     OW74867  11.754   4.205   4.504
57657SOL    HW174868  11.667   4.226   4.539
57657SOL    HW274869  11.773   4.277   4.444
57658SOL     OW74870   3.626   7.979   9.402
57658SOL    HW174871   3.698   7.940   9.352
57658SOL    HW274872   3.662   8.062   9.433
57659SOL     OW74873   6.001   7.983  10.682
57659SOL    HW174874   6.061   8.054  10.660
57659SOL    HW274875   5.941   7.978  10.608
57660SOL     OW74876   5.785   9.364   4.257
57660SOL    HW174877   5.716   9.323   4.205
57660SOL    HW274878   5.829   9.290   4.300
57661SOL     OW74879  12.953  14.107   5.659
57661SOL    HW174880  12.871  14.134   5.701
57661SOL    HW274881  12.950  14.148   5.573
57662SOL     OW74882   3.508   0.733   8.111
57662SOL    HW174883   3.513   0.757   8.203
57662SOL    HW274884   3.568   0.792   8.066
57663SOL     OW74885   8.736   2.521   5.669
57663SOL    HW174886   8.825   2.526   5.634
57663SOL    HW274887   8.680   2.550   5.597
57664SOL     OW74888   7.125   0.899   6.347
57664SOL    HW174889   7.208   0.859   6.322
57664SOL    HW274890   7.135   0.916   6.441
57665SOL     OW74891  12.704   1.412   6.116
57665SOL    HW174892  12.628   1.355   6.104
57665SOL    HW274893  12.775   1.367   6.069
57666SOL     OW74894  10.879   5.753  14.088
57666SOL    HW174895  10.928   5.671  14.093
57666SOL    HW274896  10.941   5.820  14.118
57667SOL     OW74897   2.258   2.432   6.710
57667SOL    HW174898   2.330   2.485   6.675
57667SOL    HW274899   2.243   2.467   6.798
57668SOL     OW74900  10.010   4.334   6.467
57668SOL    HW174901  10.053   4.305   6.387
57668SOL    HW274902  10.081   4.360   6.525
57669SOL     OW74903   0.618   9.612  11.053
57669SOL    HW174904   0.581   9.533  11.092
57669SOL    HW274905   0.562   9.631  10.978
57670SOL     OW74906   2.905   9.868   6.988
57670SOL    HW174907   2.830   9.825   7.027
57670SOL    HW274908   2.975   9.802   6.990
57671SOL     OW74909   6.605   2.190   7.423
57671SOL    HW174910   6.517   2.168   7.392
57671SOL    HW274911   6.632   2.265   7.370
57672SOL     OW74912   6.732   3.899  12.280
57672SOL    HW174913   6.789   3.823  12.273
57672SOL    HW274914   6.643   3.864  12.276
57673SOL     OW74915  12.236   1.406  13.771
57673SOL    HW174916  12.189   1.490  13.769
57673SOL    HW274917  12.327   1.429  13.754
57674SOL     OW74918   1.571   8.644  12.806
57674SOL    HW174919   1.504   8.613  12.866
57674SOL    HW274920   1.524   8.665  12.726
57675SOL     OW74921   5.733   5.635   5.003
57675SOL    HW174922   5.687   5.679   5.074
57675SOL    HW274923   5.723   5.693   4.928
57676SOL     OW74924  10.244  13.941   7.770
57676SOL    HW174925  10.302  14.016   7.784
57676SOL    HW274926  10.160  13.980   7.745
57677SOL     OW74927   4.422  10.745   2.186
57677SOL    HW174928   4.340  10.722   2.143
57677SOL    HW274929   4.442  10.671   2.243
57678SOL     OW74930   1.288   8.401   7.167
57678SOL    HW174931   1.374   8.424   7.203
57678SOL    HW274932   1.233   8.387   7.244
57679SOL     OW74933   7.571   4.269   3.583
57679SOL    HW174934   7.562   4.176   3.603
57679SOL    HW274935   7.574   4.273   3.487
57680SOL     OW74936  10.601   1.455  14.009
57680SOL    HW174937  10.624   1.532  14.060
57680SOL    HW274938  10.535   1.486  13.947
57681SOL     OW74939   3.052   8.939   0.988
57681SOL    HW174940   2.957   8.923   0.982
57681SOL    HW274941   3.089   8.881   0.922
57682SOL     OW74942  14.825   3.474   6.286
57682SOL    HW174943  14.828   3.378   6.282
57682SOL    HW274944  14.880   3.496   6.362
57683SOL     OW74945   2.487   2.067   0.248
57683SOL    HW174946   2.556   2.090   0.310
57683SOL    HW274947   2.484   1.971   0.251
57684SOL     OW74948   1.604  11.022   9.980
57684SOL    HW174949   1.591  10.976  10.063
57684SOL    HW274950   1.552  11.102   9.989
57685SOL     OW74951   1.790   2.805  14.648
57685SOL    HW174952   1.874   2.786  14.606
57685SOL    HW274953   1.808   2.794  14.742
57686SOL     OW74954   3.842   7.516  13.215
57686SOL    HW174955   3.888   7.592  13.250
57686SOL    HW274956   3.911   7.449  13.208
57687SOL     OW74957   5.475  13.369  12.335
57687SOL    HW174958   5.478  13.309  12.409
57687SOL    HW274959   5.542  13.337  12.275
57688SOL     OW74960  10.662   3.979  10.244
57688SOL    HW174961  10.612   4.030  10.180
57688SOL    HW274962  10.657   3.889  10.213
57689SOL     OW74963   8.774  14.061  14.148
57689SOL    HW174964   8.829  14.053  14.226
57689SOL    HW274965   8.835  14.081  14.077
57690SOL     OW74966  14.116   6.206   4.849
57690SOL    HW174967  14.157   6.290   4.828
57690SOL    HW274968  14.051   6.194   4.779
57691SOL     OW74969  14.473   4.384   1.356
57691SOL    HW174970  14.514   4.411   1.438
57691SOL    HW274971  14.426   4.461   1.326
57692SOL     OW74972   8.901   8.267  12.357
57692SOL    HW174973   8.918   8.218  12.437
57692SOL    HW274974   8.815   8.307  12.372
57693SOL     OW74975   6.878  10.568   6.420
57693SOL    HW174976   6.878  10.567   6.516
57693SOL    HW274977   6.924  10.488   6.395
57694SOL     OW74978   9.557  13.980  14.677
57694SOL    HW174979   9.642  13.957  14.715
57694SOL    HW274980   9.566  14.072  14.653
57695SOL     OW74981   9.602   5.506   8.940
57695SOL    HW174982   9.570   5.420   8.914
57695SOL    HW274983   9.646   5.540   8.862
57696SOL     OW74984   9.438   0.339   0.848
57696SOL    HW174985   9.506   0.317   0.784
57696SOL    HW274986   9.377   0.265   0.844
57697SOL     OW74987   7.859  14.615   6.440
57697SOL    HW174988   7.939  14.621   6.388
57697SOL    HW274989   7.873  14.539   6.497
57698SOL     OW74990   2.842  14.018  12.032
57698SOL    HW174991   2.817  13.934  11.992
57698SOL    HW274992   2.937  14.017  12.031
57699SOL     OW74993  13.486   7.843   9.962
57699SOL    HW174994  13.427   7.906   9.922
57699SOL    HW274995  13.482   7.766   9.905
57700SOL     OW74996   2.739   7.617  11.716
57700SOL    HW174997   2.685   7.624  11.794
57700SOL    HW274998   2.686   7.657  11.647
57701SOL     OW74999   7.700   7.737   7.271
57701SOL    HW175000   7.698   7.642   7.263
57701SOL    HW275001   7.613   7.761   7.304
57702SOL     OW75002   2.966  13.922   5.386
57702SOL    HW175003   2.916  14.003   5.394
57702SOL    HW275004   2.924  13.874   5.315
57703SOL     OW75005   5.436   9.323   1.128
57703SOL    HW175006   5.432   9.261   1.055
57703SOL    HW275007   5.433   9.268   1.207
57704SOL     OW75008   9.074  10.488  11.829
57704SOL    HW175009   9.072  10.404  11.876
57704SOL    HW275010   9.042  10.467  11.741
57705SOL     OW75011   6.722   7.814   6.372
57705SOL    HW175012   6.638   7.789   6.335
57705SOL    HW275013   6.777   7.737   6.362
57706SOL     OW75014   0.687   8.632  11.354
57706SOL    HW175015   0.759   8.689  11.383
57706SOL    HW275016   0.725   8.579  11.285
57707SOL     OW75017   0.962   8.133  10.978
57707SOL    HW175018   0.935   8.041  10.977
57707SOL    HW275019   1.007   8.145  10.894
57708SOL     OW75020   0.041   6.189   1.477
57708SOL    HW175021   0.120   6.231   1.510
57708SOL    HW275022   0.036   6.216   1.385
57709SOL     OW75023   9.031   9.674   8.106
57709SOL    HW175024   9.027   9.766   8.129
57709SOL    HW275025   8.965   9.632   8.160
57710SOL     OW75026   4.456   5.133   6.795
57710SOL    HW175027   4.480   5.080   6.719
57710SOL    HW275028   4.391   5.081   6.841
57711SOL     OW75029  14.222   8.681   4.134
57711SOL    HW175030  14.199   8.604   4.082
57711SOL    HW275031  14.212   8.754   4.074
57712SOL     OW75032   2.683   0.729   4.204
57712SOL    HW175033   2.693   0.668   4.131
57712SOL    HW275034   2.770   0.736   4.243
57713SOL     OW75035  13.790   1.297  13.609
57713SOL    HW175036  13.757   1.214  13.575
57713SOL    HW275037  13.728   1.363  13.578
57714SOL     OW75038   5.648  11.279   7.768
57714SOL    HW175039   5.587  11.285   7.842
57714SOL    HW275040   5.710  11.211   7.794
57715SOL     OW75041   0.449   4.196  11.783
57715SOL    HW175042   0.421   4.131  11.847
57715SOL    HW275043   0.527   4.236  11.822
57716SOL     OW75044  10.320  12.396   0.368
57716SOL    HW175045  10.397  12.406   0.424
57716SOL    HW275046  10.295  12.304   0.378
57717SOL     OW75047   8.243   8.769   2.825
57717SOL    HW175048   8.169   8.710   2.811
57717SOL    HW275049   8.247   8.822   2.746
57718SOL     OW75050  13.531  12.427  13.426
57718SOL    HW175051  13.470  12.484  13.473
57718SOL    HW275052  13.577  12.380  13.495
57719SOL     OW75053   5.913   7.809  12.317
57719SOL    HW175054   5.922   7.880  12.381
57719SOL    HW275055   5.998   7.766  12.317
57720SOL     OW75056   9.616   6.720  12.179
57720SOL    HW175057   9.664   6.672  12.111
57720SOL    HW275058   9.590   6.653  12.242
57721SOL     OW75059   3.025  14.222   2.712
57721SOL    HW175060   2.936  14.208   2.744
57721SOL    HW275061   3.077  14.237   2.791
57722SOL     OW75062   3.792   2.540   1.188
57722SOL    HW175063   3.787   2.541   1.092
57722SOL    HW275064   3.701   2.530   1.216
57723SOL     OW75065   3.181  14.808   7.809
57723SOL    HW175066   3.213  14.877   7.868
57723SOL    HW275067   3.254  14.792   7.749
57724SOL     OW75068   1.283   8.946   9.896
57724SOL    HW175069   1.354   8.918   9.954
57724SOL    HW275070   1.203   8.921   9.942
57725SOL     OW75071   7.013   1.642  13.064
57725SOL    HW175072   6.959   1.680  13.133
57725SOL    HW275073   7.005   1.547  13.075
57726SOL     OW75074   4.616   2.846   1.002
57726SOL    HW175075   4.558   2.902   1.055
57726SOL    HW275076   4.567   2.832   0.921
57727SOL     OW75077   2.546   6.855   1.933
57727SOL    HW175078   2.493   6.922   1.890
57727SOL    HW275079   2.483   6.788   1.958
57728SOL     OW75080   4.341   5.222  12.544
57728SOL    HW175081   4.251   5.233  12.574
57728SOL    HW275082   4.335   5.226  12.449
57729SOL     OW75083  13.458   1.000  11.322
57729SOL    HW175084  13.551   0.992  11.299
57729SOL    HW275085  13.458   1.050  11.404
57730SOL     OW75086  11.347  13.481   6.719
57730SOL    HW175087  11.320  13.425   6.792
57730SOL    HW275088  11.329  13.570   6.749
57731SOL     OW75089   2.556  12.324   2.743
57731SOL    HW175090   2.652  12.325   2.740
57731SOL    HW275091   2.534  12.233   2.760
57732SOL     OW75092   0.841  10.768  13.092
57732SOL    HW175093   0.803  10.720  13.165
57732SOL    HW275094   0.896  10.835  13.133
57733SOL     OW75095  13.710   6.632   6.692
57733SOL    HW175096  13.683   6.710   6.644
57733SOL    HW275097  13.709   6.562   6.627
57734SOL     OW75098  13.085   0.351   4.904
57734SOL    HW175099  13.086   0.271   4.956
57734SOL    HW275100  13.069   0.322   4.815
57735SOL     OW75101  11.640   3.946   4.491
57735SOL    HW175102  11.723   3.898   4.488
57735SOL    HW275103  11.658   4.028   4.445
57736SOL     OW75104   1.160   1.877   9.354
57736SOL    HW175105   1.064   1.885   9.354
57736SOL    HW275106   1.178   1.809   9.290
57737SOL     OW75107  10.053   5.626   1.263
57737SOL    HW175108   9.973   5.599   1.308
57737SOL    HW275109  10.077   5.550   1.210
57738SOL     OW75110   6.547  14.689  11.205
57738SOL    HW175111   6.549  14.776  11.166
57738SOL    HW275112   6.633  14.652  11.184
57739SOL     OW75113   9.408   9.556   1.409
57739SOL    HW175114   9.374   9.595   1.329
57739SOL    HW275115   9.331   9.518   1.453
57740SOL     OW75116   8.662  10.612   6.106
57740SOL    HW175117   8.705  10.655   6.032
57740SOL    HW275118   8.661  10.678   6.175
57741SOL     OW75119  14.752   6.491  13.576
57741SOL    HW175120  14.829   6.547  13.586
57741SOL    HW275121  14.766   6.445  13.493
57742SOL     OW75122   1.485   6.165   4.586
57742SOL    HW175123   1.550   6.094   4.587
57742SOL    HW275124   1.502   6.213   4.667
57743SOL     OW75125  10.073   9.169   9.908
57743SOL    HW175126  10.134   9.146   9.978
57743SOL    HW275127  10.026   9.088   9.889
57744SOL     OW75128   3.989   0.825   5.511
57744SOL    HW175129   3.904   0.784   5.498
57744SOL    HW275130   3.972   0.898   5.570
57745SOL     OW75131   3.564   1.967   7.028
57745SOL    HW175132   3.650   1.961   6.986
57745SOL    HW275133   3.504   1.986   6.956
57746SOL     OW75134  11.891   8.927  11.274
57746SOL    HW175135  11.914   9.019  11.284
57746SOL    HW275136  11.908   8.888  11.360
57747SOL     OW75137   7.557  13.184   5.234
57747SOL    HW175138   7.520  13.116   5.291
57747SOL    HW275139   7.580  13.255   5.294
57748SOL     OW75140   9.982   2.782   7.195
57748SOL    HW175141   9.983   2.703   7.249
57748SOL    HW275142   9.980   2.854   7.258
57749SOL     OW75143  11.467  14.047   2.723
57749SOL    HW175144  11.411  13.970   2.711
57749SOL    HW275145  11.456  14.098   2.643
57750SOL     OW75146   1.078   0.227  13.314
57750SOL    HW175147   1.083   0.132  13.303
57750SOL    HW275148   1.094   0.242  13.407
57751SOL     OW75149   0.318  10.057  10.942
57751SOL    HW175150   0.270   9.976  10.955
57751SOL    HW275151   0.360  10.074  11.026
57752SOL     OW75152   8.536   1.552   5.620
57752SOL    HW175153   8.599   1.523   5.687
57752SOL    HW275154   8.507   1.638   5.650
57753SOL     OW75155  12.823   6.090   9.857
57753SOL    HW175156  12.895   6.154   9.855
57753SOL    HW275157  12.768   6.114   9.782
57754SOL     OW75158  13.889   9.376   0.193
57754SOL    HW175159  13.913   9.287   0.167
57754SOL    HW275160  13.836   9.408   0.120
57755SOL     OW75161  11.429   4.780   8.780
57755SOL    HW175162  11.394   4.820   8.700
57755SOL    HW275163  11.434   4.853   8.842
57756SOL     OW75164   7.237   5.699   3.925
57756SOL    HW175165   7.214   5.685   4.016
57756SOL    HW275166   7.154   5.715   3.880
57757SOL     OW75167   1.702   9.707   0.142
57757SOL    HW175168   1.608   9.693   0.127
57757SOL    HW275169   1.705   9.763   0.220
57758SOL     OW75170  11.994   2.068   0.954
57758SOL    HW175171  11.916   2.041   1.002
57758SOL    HW275172  11.962   2.083   0.864
57759SOL     OW75173   3.944   6.545   2.974
57759SOL    HW175174   3.860   6.580   2.945
57759SOL    HW275175   3.952   6.571   3.065
57760SOL     OW75176   6.631   9.623   3.243
57760SOL    HW175177   6.584   9.652   3.165
57760SOL    HW275178   6.636   9.700   3.299
57761SOL     OW75179   3.962   5.385   5.963
57761SOL    HW175180   3.870   5.382   5.989
57761SOL    HW275181   3.959   5.415   5.872
57762SOL     OW75182   4.879  10.894  12.725
57762SOL    HW175183   4.799  10.842  12.727
57762SOL    HW275184   4.926  10.869  12.805
57763SOL     OW75185   7.382  10.852   4.450
57763SOL    HW175186   7.288  10.852   4.464
57763SOL    HW275187   7.417  10.908   4.520
57764SOL     OW75188  12.807  12.622  14.398
57764SOL    HW175189  12.861  12.568  14.456
57764SOL    HW275190  12.841  12.604  14.311
57765SOL     OW75191   2.216   9.084   5.545
57765SOL    HW175192   2.182   9.084   5.635
57765SOL    HW275193   2.216   8.992   5.519
57766SOL     OW75194   9.297   2.596  11.616
57766SOL    HW175195   9.306   2.558  11.528
57766SOL    HW275196   9.364   2.551  11.668
57767SOL     OW75197  14.038   7.441  12.390
57767SOL    HW175198  13.991   7.404  12.465
57767SOL    HW275199  13.972   7.449  12.321
57768SOL     OW75200  10.917   5.057   3.574
57768SOL    HW175201  10.867   5.129   3.614
57768SOL    HW275202  10.982   5.101   3.520
57769SOL     OW75203  10.956   3.471   1.308
57769SOL    HW175204  10.881   3.434   1.261
57769SOL    HW275205  10.970   3.412   1.382
57770SOL     OW75206  10.162   1.946   1.418
57770SOL    HW175207  10.156   1.865   1.368
57770SOL    HW275208  10.228   1.928   1.485
57771SOL     OW75209   8.674   5.255  10.646
57771SOL    HW175210   8.699   5.269  10.738
57771SOL    HW275211   8.689   5.161  10.632
57772SOL     OW75212   1.667  13.860   2.151
57772SOL    HW175213   1.728  13.825   2.087
57772SOL    HW275214   1.612  13.785   2.175
57773SOL     OW75215  11.429   9.950   2.465
57773SOL    HW175216  11.472  10.026   2.426
57773SOL    HW275217  11.338   9.977   2.477
57774SOL     OW75218   8.258   0.680  11.125
57774SOL    HW175219   8.230   0.703  11.037
57774SOL    HW275220   8.176   0.670  11.174
57775SOL     OW75221   0.095   9.793  13.903
57775SOL    HW175222   0.112   9.753  13.989
57775SOL    HW275223   0.018   9.847  13.917
57776SOL     OW75224   0.198   6.871   4.031
57776SOL    HW175225   0.209   6.790   3.982
57776SOL    HW275226   0.104   6.877   4.047
57777SOL     OW75227  13.594   4.414   2.506
57777SOL    HW175228  13.595   4.319   2.509
57777SOL    HW275229  13.505   4.438   2.532
57778SOL     OW75230  11.059   9.802   3.974
57778SOL    HW175231  10.974   9.842   3.992
57778SOL    HW275232  11.119   9.877   3.968
57779SOL     OW75233  14.787   9.049  11.881
57779SOL    HW175234  14.768   9.068  11.973
57779SOL    HW275235  14.848   9.118  11.854
57780SOL     OW75236   0.299  12.369   1.382
57780SOL    HW175237   0.382  12.415   1.395
57780SOL    HW275238   0.233  12.438   1.385
57781SOL     OW75239  11.789   6.838   5.466
57781SOL    HW175240  11.767   6.772   5.401
57781SOL    HW275241  11.784   6.922   5.420
57782SOL     OW75242   5.899   6.272  10.272
57782SOL    HW175243   5.858   6.359  10.274
57782SOL    HW275244   5.939   6.266  10.186
57783SOL     OW75245  13.741   8.939  12.205
57783SOL    HW175246  13.793   9.012  12.237
57783SOL    HW275247  13.712   8.966  12.118
57784SOL     OW75248   2.461   1.951  14.667
57784SOL    HW175249   2.401   1.948  14.742
57784SOL    HW275250   2.448   1.867  14.623
57785SOL     OW75251   1.901  10.049   2.011
57785SOL    HW175252   1.948   9.971   1.983
57785SOL    HW275253   1.949  10.122   1.972
57786SOL     OW75254   3.902  13.887   2.890
57786SOL    HW175255   3.849  13.945   2.945
57786SOL    HW275256   3.990  13.894   2.927
57787SOL     OW75257   0.095  12.298  11.287
57787SOL    HW175258   0.090  12.311  11.382
57787SOL    HW275259   0.020  12.241  11.267
57788SOL     OW75260   5.732   9.886  11.592
57788SOL    HW175261   5.802   9.855  11.650
57788SOL    HW275262   5.681   9.808  11.572
57789SOL     OW75263   0.181   3.625   5.103
57789SOL    HW175264   0.123   3.556   5.070
57789SOL    HW275265   0.228   3.656   5.025
57790SOL     OW75266   8.672   5.320  11.977
57790SOL    HW175267   8.609   5.299  12.045
57790SOL    HW275268   8.620   5.325  11.896
57791SOL     OW75269   8.923   0.796   5.483
57791SOL    HW175270   8.830   0.814   5.467
57791SOL    HW275271   8.965   0.810   5.398
57792SOL     OW75272   8.940   4.671  12.738
57792SOL    HW175273   8.891   4.666  12.820
57792SOL    HW275274   9.032   4.672  12.766
57793SOL     OW75275   4.241   5.812  10.528
57793SOL    HW175276   4.186   5.775  10.597
57793SOL    HW275277   4.250   5.742  10.463
57794SOL     OW75278   8.926  11.666   2.592
57794SOL    HW175279   8.865  11.624   2.653
57794SOL    HW275280   9.013  11.650   2.630
57795SOL     OW75281   8.882  10.193   2.117
57795SOL    HW175282   8.868  10.108   2.074
57795SOL    HW275283   8.956  10.231   2.071
57796SOL     OW75284   4.649   0.219  10.885
57796SOL    HW175285   4.590   0.255  10.951
57796SOL    HW275286   4.641   0.124  10.895
57797SOL     OW75287   4.540   9.965  14.131
57797SOL    HW175288   4.521   9.940  14.222
57797SOL    HW275289   4.610   9.906  14.105
57798SOL     OW75290  14.148  10.075  13.339
57798SOL    HW175291  14.073  10.055  13.396
57798SOL    HW275292  14.147  10.170  13.330
57799SOL     OW75293  10.785  12.182   5.851
57799SOL    HW175294  10.759  12.195   5.760
57799SOL    HW275295  10.880  12.192   5.850
57800SOL     OW75296   0.873  10.097  12.607
57800SOL    HW175297   0.947  10.145  12.644
57800SOL    HW275298   0.796  10.135  12.650
57801SOL     OW75299   3.780   6.692   8.433
57801SOL    HW175300   3.700   6.639   8.434
57801SOL    HW275301   3.794   6.713   8.340
57802SOL     OW75302   1.815   8.212  10.204
57802SOL    HW175303   1.880   8.145  10.227
57802SOL    HW275304   1.731   8.167  10.210
57803SOL     OW75305   4.861  10.230   1.389
57803SOL    HW175306   4.920  10.290   1.343
57803SOL    HW275307   4.906  10.145   1.386
57804SOL     OW75308   4.897   7.446   1.279
57804SOL    HW175309   4.835   7.374   1.267
57804SOL    HW275310   4.938   7.428   1.364
57805SOL     OW75311  13.469  12.642   6.838
57805SOL    HW175312  13.526  12.597   6.900
57805SOL    HW275313  13.466  12.733   6.869
57806SOL     OW75314   7.318   5.504   6.118
57806SOL    HW175315   7.305   5.578   6.179
57806SOL    HW275316   7.289   5.538   6.034
57807SOL     OW75317  13.820  10.970  13.468
57807SOL    HW175318  13.827  10.878  13.494
57807SOL    HW275319  13.729  10.994  13.486
57808SOL     OW75320  11.462   2.841   1.733
57808SOL    HW175321  11.415   2.887   1.803
57808SOL    HW275322  11.413   2.760   1.720
57809SOL     OW75323  10.493   0.129   1.250
57809SOL    HW175324  10.486   0.055   1.309
57809SOL    HW275325  10.564   0.106   1.190
57810SOL     OW75326   3.684   3.032  12.933
57810SOL    HW175327   3.757   2.976  12.908
57810SOL    HW275328   3.645   3.058  12.849
57811SOL     OW75329  11.511  12.651   5.167
57811SOL    HW175330  11.559  12.576   5.201
57811SOL    HW275331  11.490  12.703   5.244
57812SOL     OW75332   0.616   0.555   2.938
57812SOL    HW175333   0.558   0.613   2.988
57812SOL    HW275334   0.627   0.600   2.854
57813SOL     OW75335  10.902   5.275  13.718
57813SOL    HW175336  10.849   5.208  13.674
57813SOL    HW275337  10.993   5.249  13.700
57814SOL     OW75338   3.970   1.316   0.917
57814SOL    HW175339   4.021   1.397   0.915
57814SOL    HW275340   3.881   1.344   0.894
57815SOL     OW75341  13.653  11.102  14.565
57815SOL    HW175342  13.629  11.131  14.477
57815SOL    HW275343  13.634  11.009  14.566
57816SOL     OW75344   4.573   0.209   2.018
57816SOL    HW175345   4.506   0.143   1.998
57816SOL    HW275346   4.618   0.223   1.935
57817SOL     OW75347   0.152   4.499   7.433
57817SOL    HW175348   0.168   4.417   7.385
57817SOL    HW275349   0.206   4.564   7.387
57818SOL     OW75350   2.032  13.635  14.475
57818SOL    HW175351   1.939  13.618  14.462
57818SOL    HW275352   2.076  13.569  14.421
57819SOL     OW75353   4.449   9.397  14.770
57819SOL    HW175354   4.543   9.379  14.766
57819SOL    HW275355   4.409   9.318  14.733
57820SOL     OW75356  11.054   3.538   0.102
57820SOL    HW175357  11.027   3.628   0.083
57820SOL    HW275358  11.030   3.489   0.023
57821SOL     OW75359   3.158   1.786   5.154
57821SOL    HW175360   3.204   1.809   5.235
57821SOL    HW275361   3.208   1.713   5.118
57822SOL     OW75362  12.231   9.673  10.432
57822SOL    HW175363  12.280   9.641  10.508
57822SOL    HW275364  12.139   9.665  10.457
57823SOL     OW75365   6.805   5.454   5.121
57823SOL    HW175366   6.840   5.541   5.101
57823SOL    HW275367   6.839   5.398   5.052
57824SOL     OW75368   0.939  11.416   9.148
57824SOL    HW175369   0.900  11.330   9.163
57824SOL    HW275370   0.954  11.421   9.054
57825SOL     OW75371   2.213   9.138  11.910
57825SOL    HW175372   2.150   9.143  11.982
57825SOL    HW275373   2.160   9.150  11.831
57826SOL     OW75374   0.800  11.450  10.214
57826SOL    HW175375   0.811  11.356  10.206
57826SOL    HW275376   0.786  11.481  10.125
57827SOL     OW75377  11.079  10.399   0.052
57827SOL    HW175378  11.165  10.441   0.051
57827SOL    HW275379  11.050  10.401  14.844
57828SOL     OW75380  12.611  13.280  13.339
57828SOL    HW175381  12.651  13.223  13.404
57828SOL    HW275382  12.681  13.341  13.314
57829SOL     OW75383   5.393   8.090   1.649
57829SOL    HW175384   5.357   8.095   1.560
57829SOL    HW275385   5.441   8.172   1.660
57830SOL     OW75386   9.513   1.403   2.761
57830SOL    HW175387   9.474   1.351   2.830
57830SOL    HW275388   9.480   1.364   2.680
57831SOL     OW75389   9.702  12.640   5.127
57831SOL    HW175390   9.661  12.602   5.049
57831SOL    HW275391   9.725  12.729   5.102
57832SOL     OW75392   3.492   4.121  11.887
57832SOL    HW175393   3.425   4.054  11.902
57832SOL    HW275394   3.530   4.098  11.801
57833SOL     OW75395   5.585  13.581  12.494
57833SOL    HW175396   5.557  13.507  12.440
57833SOL    HW275397   5.538  13.656  12.457
57834SOL     OW75398   3.481   1.517   0.843
57834SOL    HW175399   3.412   1.452   0.834
57834SOL    HW275400   3.562   1.470   0.825
57835SOL     OW75401   7.266   6.948   7.264
57835SOL    HW175402   7.170   6.950   7.270
57835SOL    HW275403   7.291   7.038   7.245
57836SOL     OW75404   7.223   8.772  10.492
57836SOL    HW175405   7.253   8.686  10.461
57836SOL    HW275406   7.205   8.821  10.412
57837SOL     OW75407   6.721   9.965   9.674
57837SOL    HW175408   6.663   9.986   9.601
57837SOL    HW275409   6.672   9.901   9.725
57838SOL     OW75410   1.692   1.114   7.680
57838SOL    HW175411   1.606   1.075   7.692
57838SOL    HW275412   1.717   1.145   7.767
57839SOL     OW75413   4.947   3.204   5.404
57839SOL    HW175414   4.882   3.254   5.354
57839SOL    HW275415   4.992   3.151   5.338
57840SOL     OW75416   6.605  10.876   8.456
57840SOL    HW175417   6.531  10.852   8.512
57840SOL    HW275418   6.580  10.842   8.370
57841SOL     OW75419  11.449   3.020  14.236
57841SOL    HW175420  11.486   3.108  14.232
57841SOL    HW275421  11.522   2.962  14.215
57842SOL     OW75422   4.113   7.261   3.186
57842SOL    HW175423   4.181   7.314   3.228
57842SOL    HW275424   4.102   7.301   3.099
57843SOL     OW75425   5.168   6.434   5.679
57843SOL    HW175426   5.226   6.498   5.721
57843SOL    HW275427   5.079   6.465   5.699
57844SOL     OW75428  10.660   7.710   5.242
57844SOL    HW175429  10.578   7.662   5.232
57844SOL    HW275430  10.701   7.673   5.320
57845SOL     OW75431   6.598  10.652  12.941
57845SOL    HW175432   6.613  10.559  12.931
57845SOL    HW275433   6.505  10.664  12.924
57846SOL     OW75434   6.207   3.081   5.384
57846SOL    HW175435   6.254   3.157   5.420
57846SOL    HW275436   6.119   3.114   5.368
57847SOL     OW75437   7.598   2.411   6.299
57847SOL    HW175438   7.633   2.491   6.338
57847SOL    HW275439   7.675   2.365   6.265
57848SOL     OW75440   3.679   9.795   3.336
57848SOL    HW175441   3.646   9.718   3.383
57848SOL    HW275442   3.605   9.855   3.332
57849SOL     OW75443   8.111   5.524  14.010
57849SOL    HW175444   8.027   5.503  14.050
57849SOL    HW275445   8.155   5.581  14.072
57850SOL     OW75446  11.873  11.572   1.092
57850SOL    HW175447  11.877  11.632   1.018
57850SOL    HW275448  11.823  11.618   1.159
57851SOL     OW75449  10.646   5.915   9.194
57851SOL    HW175450  10.553   5.934   9.209
57851SOL    HW275451  10.670   5.970   9.119
57852SOL     OW75452   3.736   0.213   4.958
57852SOL    HW175453   3.670   0.259   4.906
57852SOL    HW275454   3.687   0.149   5.010
57853SOL     OW75455   0.921   5.175  12.643
57853SOL    HW175456   0.957   5.263  12.650
57853SOL    HW275457   0.827   5.188  12.629
57854SOL     OW75458   7.538  14.778  11.897
57854SOL    HW175459   7.529  14.684  11.877
57854SOL    HW275460   7.486  14.822  11.830
57855SOL     OW75461   8.194  14.314   2.436
57855SOL    HW175462   8.126  14.247   2.424
57855SOL    HW275463   8.171  14.356   2.519
57856SOL     OW75464   0.048   6.782  12.418
57856SOL    HW175465   0.117   6.732  12.375
57856SOL    HW275466   0.016   6.841  12.351
57857SOL     OW75467   8.489   8.455   7.032
57857SOL    HW175468   8.493   8.478   7.125
57857SOL    HW275469   8.398   8.427   7.019
57858SOL     OW75470   5.086   9.803   7.952
57858SOL    HW175471   5.088   9.856   8.031
57858SOL    HW275472   5.078   9.866   7.880
57859SOL     OW75473   6.369  14.588   8.350
57859SOL    HW175474   6.305  14.556   8.415
57859SOL    HW275475   6.446  14.611   8.402
57860SOL     OW75476   2.365   1.911   7.866
57860SOL    HW175477   2.272   1.912   7.889
57860SOL    HW275478   2.398   1.830   7.903
57861SOL     OW75479   6.851   9.166   6.990
57861SOL    HW175480   6.814   9.122   7.066
57861SOL    HW275481   6.836   9.259   7.006
57862SOL     OW75482   5.576   4.388   9.132
57862SOL    HW175483   5.624   4.443   9.070
57862SOL    HW275484   5.640   4.324   9.163
57863SOL     OW75485   6.821   6.884   4.310
57863SOL    HW175486   6.855   6.825   4.243
57863SOL    HW275487   6.875   6.867   4.387
57864SOL     OW75488   3.670   8.831   5.413
57864SOL    HW175489   3.723   8.874   5.480
57864SOL    HW275490   3.732   8.776   5.365
57865SOL     OW75491   7.085  13.399   0.257
57865SOL    HW175492   7.096  13.322   0.313
57865SOL    HW275493   6.990  13.412   0.252
57866SOL     OW75494  13.687   5.384   2.787
57866SOL    HW175495  13.620   5.328   2.825
57866SOL    HW275496  13.703   5.347   2.700
57867SOL     OW75497   4.294   8.216   0.173
57867SOL    HW175498   4.317   8.155   0.244
57867SOL    HW275499   4.220   8.174   0.128
57868SOL     OW75500   8.398   7.754   0.810
57868SOL    HW175501   8.317   7.762   0.760
57868SOL    HW275502   8.372   7.713   0.892
57869SOL     OW75503  10.768  12.075  14.023
57869SOL    HW175504  10.855  12.052  13.989
57869SOL    HW275505  10.770  12.171  14.031
57870SOL     OW75506   1.806   3.263   9.671
57870SOL    HW175507   1.716   3.253   9.702
57870SOL    HW275508   1.851   3.306   9.744
57871SOL     OW75509   1.556  13.970  10.502
57871SOL    HW175510   1.547  14.063  10.480
57871SOL    HW275511   1.643  13.963  10.541
57872SOL     OW75512   0.124  13.846  13.053
57872SOL    HW175513   0.180  13.845  12.976
57872SOL    HW275514   0.067  13.769  13.044
57873SOL     OW75515   1.554   0.397  14.212
57873SOL    HW175516   1.608   0.468  14.178
57873SOL    HW275517   1.561   0.328  14.146
57874SOL     OW75518   9.028  11.507   0.744
57874SOL    HW175519   9.075  11.431   0.778
57874SOL    HW275520   9.064  11.581   0.793
57875SOL     OW75521   2.516   8.637  11.735
57875SOL    HW175522   2.550   8.575  11.670
57875SOL    HW275523   2.549   8.606  11.818
57876SOL     OW75524   7.255   7.035   7.556
57876SOL    HW175525   7.214   7.083   7.484
57876SOL    HW275526   7.269   6.947   7.521
57877SOL     OW75527   5.503  12.997   4.758
57877SOL    HW175528   5.595  12.970   4.768
57877SOL    HW275529   5.454  12.915   4.762
57878SOL     OW75530   0.324  14.652   4.847
57878SOL    HW175531   0.414  14.685   4.846
57878SOL    HW275532   0.278  14.711   4.908
57879SOL     OW75533  11.227   5.875  13.918
57879SOL    HW175534  11.320   5.867  13.896
57879SOL    HW275535  11.198   5.784  13.930
57880SOL     OW75536  10.911   5.594   2.386
57880SOL    HW175537  10.890   5.593   2.292
57880SOL    HW275538  10.948   5.680   2.402
57881SOL     OW75539   1.062  12.270   7.422
57881SOL    HW175540   0.973  12.270   7.458
57881SOL    HW275541   1.056  12.216   7.344
57882SOL     OW75542   1.204   9.150   0.802
57882SOL    HW175543   1.139   9.112   0.743
57882SOL    HW275544   1.165   9.143   0.889
57883SOL     OW75545   2.808   7.878  14.379
57883SOL    HW175546   2.822   7.885  14.285
57883SOL    HW275547   2.872   7.938  14.417
57884SOL     OW75548   3.953   8.334   6.931
57884SOL    HW175549   3.893   8.386   6.877
57884SOL    HW275550   4.016   8.297   6.870
57885SOL     OW75551   8.645  10.866   7.242
57885SOL    HW175552   8.716  10.902   7.189
57885SOL    HW275553   8.566  10.886   7.192
57886SOL     OW75554  10.133   1.692  12.019
57886SOL    HW175555  10.145   1.619  12.080
57886SOL    HW275556  10.142   1.770  12.073
57887SOL     OW75557  13.089   9.534   3.126
57887SOL    HW175558  13.108   9.562   3.036
57887SOL    HW275559  13.133   9.449   3.134
57888SOL     OW75560   2.366   0.959  11.471
57888SOL    HW175561   2.301   0.931  11.536
57888SOL    HW275562   2.395   0.877  11.430
57889SOL     OW75563   3.460   0.965  12.683
57889SOL    HW175564   3.438   1.024  12.755
57889SOL    HW275565   3.554   0.977  12.670
57890SOL     OW75566   3.649   5.700  12.977
57890SOL    HW175567   3.740   5.719  12.999
57890SOL    HW275568   3.603   5.704  13.061
57891SOL     OW75569   0.308   4.953  11.671
57891SOL    HW175570   0.327   4.889  11.602
57891SOL    HW275571   0.245   5.013  11.631
57892SOL     OW75572   7.357   4.166   3.836
57892SOL    HW175573   7.411   4.110   3.780
57892SOL    HW275574   7.418   4.206   3.897
57893SOL     OW75575   4.110  13.980  14.300
57893SOL    HW175576   4.172  14.018  14.363
57893SOL    HW275577   4.027  13.976  14.347
57894SOL     OW75578   5.186   9.019  13.280
57894SOL    HW175579   5.131   9.096  13.299
57894SOL    HW275580   5.226   9.039  13.196
57895SOL     OW75581  11.235   7.209   7.082
57895SOL    HW175582  11.246   7.221   6.988
57895SOL    HW275583  11.180   7.131   7.090
57896SOL     OW75584   6.710   7.897  14.056
57896SOL    HW175585   6.616   7.881  14.050
57896SOL    HW275586   6.720   7.991  14.037
57897SOL     OW75587   6.126  14.737   1.270
57897SOL    HW175588   6.120  14.818   1.321
57897SOL    HW275589   6.210  14.699   1.295
57898SOL     OW75590  14.210   3.943   4.465
57898SOL    HW175591  14.158   4.004   4.413
57898SOL    HW275592  14.243   3.995   4.538
57899SOL     OW75593  10.702   4.474   2.440
57899SOL    HW175594  10.701   4.385   2.475
57899SOL    HW275595  10.712   4.463   2.345
57900SOL     OW75596  12.423  12.247   8.353
57900SOL    HW175597  12.408  12.273   8.444
57900SOL    HW275598  12.378  12.163   8.344
57901SOL     OW75599  11.860   8.539  10.019
57901SOL    HW175600  11.785   8.598  10.025
57901SOL    HW275601  11.925   8.588   9.969
57902SOL     OW75602   4.226   5.634   3.151
57902SOL    HW175603   4.190   5.546   3.140
57902SOL    HW275604   4.150   5.692   3.144
57903SOL     OW75605  13.897   1.275  10.974
57903SOL    HW175606  13.817   1.282  11.025
57903SOL    HW275607  13.900   1.356  10.923
57904SOL     OW75608   1.303  11.178   8.466
57904SOL    HW175609   1.354  11.100   8.445
57904SOL    HW275610   1.366  11.250   8.459
57905SOL     OW75611  12.783  11.943  12.493
57905SOL    HW175612  12.855  11.905  12.544
57905SOL    HW275613  12.710  11.883  12.506
57906SOL     OW75614   9.401   5.868   9.838
57906SOL    HW175615   9.388   5.891   9.746
57906SOL    HW275616   9.433   5.777   9.836
57907SOL     OW75617   4.097   3.904  11.989
57907SOL    HW175618   4.186   3.938  11.985
57907SOL    HW275619   4.081   3.868  11.901
57908SOL     OW75620   4.541  14.141  13.593
57908SOL    HW175621   4.535  14.174  13.683
57908SOL    HW275622   4.622  14.090  13.592
57909SOL     OW75623  10.684  10.188   0.433
57909SOL    HW175624  10.726  10.160   0.352
57909SOL    HW275625  10.618  10.251   0.406
57910SOL     OW75626  11.667  11.278   6.389
57910SOL    HW175627  11.734  11.299   6.325
57910SOL    HW275628  11.677  11.184   6.404
57911SOL     OW75629   6.090   6.883  13.247
57911SOL    HW175630   6.134   6.927  13.319
57911SOL    HW275631   6.118   6.930  13.169
57912SOL     OW75632   5.603   6.992   9.201
57912SOL    HW175633   5.612   6.979   9.106
57912SOL    HW275634   5.533   6.933   9.226
57913SOL     OW75635   4.777   8.235  11.484
57913SOL    HW175636   4.778   8.290  11.406
57913SOL    HW275637   4.766   8.146  11.450
57914SOL     OW75638   8.426   3.012   2.611
57914SOL    HW175639   8.517   3.012   2.579
57914SOL    HW275640   8.424   2.945   2.679
57915SOL     OW75641   8.510   7.922   5.291
57915SOL    HW175642   8.550   7.962   5.368
57915SOL    HW275643   8.531   7.982   5.219
57916SOL     OW75644  14.428  10.024   1.897
57916SOL    HW175645  14.416  10.060   1.809
57916SOL    HW275646  14.518   9.994   1.899
57917SOL     OW75647  10.616   4.179  14.274
57917SOL    HW175648  10.594   4.246  14.209
57917SOL    HW275649  10.705   4.200  14.302
57918SOL     OW75650   2.665   2.989  14.614
57918SOL    HW175651   2.636   2.944  14.694
57918SOL    HW275652   2.587   2.992  14.559
57919SOL     OW75653  11.893   1.880  11.362
57919SOL    HW175654  11.834   1.926  11.302
57919SOL    HW275655  11.925   1.805  11.312
57920SOL     OW75656   1.270   9.144  14.152
57920SOL    HW175657   1.221   9.159  14.072
57920SOL    HW275658   1.269   9.229  14.197
57921SOL     OW75659   6.998   9.583  13.771
57921SOL    HW175660   7.089   9.612  13.771
57921SOL    HW275661   7.003   9.487  13.776
57922SOL     OW75662   0.414   4.423   2.751
57922SOL    HW175663   0.399   4.515   2.774
57922SOL    HW275664   0.376   4.415   2.663
57923SOL     OW75665   0.245   3.543  12.825
57923SOL    HW175666   0.221   3.633  12.804
57923SOL    HW275667   0.163   3.494  12.819
57924SOL     OW75668   8.715  10.805   3.125
57924SOL    HW175669   8.778  10.734   3.113
57924SOL    HW275670   8.734  10.840   3.212
57925SOL     OW75671  14.340  14.127   8.160
57925SOL    HW175672  14.402  14.162   8.097
57925SOL    HW275673  14.258  14.173   8.142
57926SOL     OW75674   8.007  13.265  10.221
57926SOL    HW175675   8.028  13.183  10.266
57926SOL    HW275676   7.912  13.260  10.206
57927SOL     OW75677  13.747   8.184   4.303
57927SOL    HW175678  13.663   8.227   4.289
57927SOL    HW275679  13.744   8.153   4.393
57928SOL     OW75680   6.841   1.413   2.501
57928SOL    HW175681   6.817   1.448   2.415
57928SOL    HW275682   6.775   1.448   2.560
57929SOL     OW75683  14.087  10.091   8.338
57929SOL    HW175684  14.156  10.157   8.339
57929SOL    HW275685  14.133  10.007   8.331
57930SOL     OW75686   5.038  13.233   3.027
57930SOL    HW175687   5.004  13.237   2.938
57930SOL    HW275688   4.984  13.294   3.077
57931SOL     OW75689   6.872   8.865   5.802
57931SOL    HW175690   6.954   8.891   5.760
57931SOL    HW275691   6.826   8.947   5.818
57932SOL     OW75692   5.588   6.002   7.066
57932SOL    HW175693   5.499   5.994   7.098
57932SOL    HW275694   5.580   6.042   6.980
57933SOL     OW75695   1.553   8.142  10.108
57933SOL    HW175696   1.505   8.185  10.179
57933SOL    HW275697   1.488   8.132  10.038
57934SOL     OW75698  13.784  14.437  13.941
57934SOL    HW175699  13.844  14.506  13.913
57934SOL    HW275700  13.767  14.457  14.034
57935SOL     OW75701  13.104   3.005  10.937
57935SOL    HW175702  13.147   3.058  11.004
57935SOL    HW275703  13.148   3.031  10.855
57936SOL     OW75704   3.893  13.718   0.661
57936SOL    HW175705   3.970  13.703   0.607
57936SOL    HW275706   3.917  13.685   0.748
57937SOL     OW75707   2.276   3.896   2.813
57937SOL    HW175708   2.368   3.899   2.787
57937SOL    HW275709   2.265   3.808   2.849
57938SOL     OW75710   0.232   8.739  14.721
57938SOL    HW175711   0.258   8.664  14.775
57938SOL    HW275712   0.247   8.815  14.777
57939SOL     OW75713  12.539   8.381  13.508
57939SOL    HW175714  12.520   8.444  13.577
57939SOL    HW275715  12.622   8.411  13.470
57940SOL     OW75716   7.344   9.534   1.388
57940SOL    HW175717   7.314   9.463   1.332
57940SOL    HW275718   7.302   9.612   1.352
57941SOL     OW75719   9.058   2.049   2.509
57941SOL    HW175720   9.018   2.114   2.451
57941SOL    HW275721   9.012   1.967   2.488
57942SOL     OW75722  11.957   5.702   3.706
57942SOL    HW175723  12.032   5.762   3.713
57942SOL    HW275724  11.957   5.655   3.789
57943SOL     OW75725   0.422   8.898  11.066
57943SOL    HW175726   0.410   8.823  11.007
57943SOL    HW275727   0.421   8.860  11.154
57944SOL     OW75728   1.179  11.456   7.941
57944SOL    HW175729   1.225  11.405   8.008
57944SOL    HW275730   1.161  11.393   7.872
57945SOL     OW75731   3.989   8.246   5.242
57945SOL    HW175732   4.081   8.222   5.248
57945SOL    HW275733   3.971   8.291   5.325
57946SOL     OW75734  10.677   1.737  12.753
57946SOL    HW175735  10.602   1.683  12.778
57946SOL    HW275736  10.640   1.820  12.726
57947SOL     OW75737   4.965   2.886  10.390
57947SOL    HW175738   4.920   2.971  10.383
57947SOL    HW275739   4.980   2.875  10.484
57948SOL     OW75740  12.341   3.042   3.003
57948SOL    HW175741  12.405   3.001   3.061
57948SOL    HW275742  12.276   3.079   3.062
57949SOL     OW75743  11.648   8.875   5.190
57949SOL    HW175744  11.688   8.857   5.275
57949SOL    HW275745  11.719   8.913   5.138
57950SOL     OW75746   9.122  14.055   7.084
57950SOL    HW175747   9.029  14.032   7.093
57950SOL    HW275748   9.142  14.038   6.992
57951SOL     OW75749   1.333  13.657   4.319
57951SOL    HW175750   1.370  13.684   4.234
57951SOL    HW275751   1.395  13.592   4.352
57952SOL     OW75752   8.025   8.918  13.777
57952SOL    HW175753   8.035   8.882  13.865
57952SOL    HW275754   8.025   9.013  13.790
57953SOL     OW75755   1.191  10.150  14.783
57953SOL    HW175756   1.194  10.065  14.826
57953SOL    HW275757   1.198  10.129  14.689
57954SOL     OW75758   0.793   5.278  12.275
57954SOL    HW175759   0.743   5.293  12.195
57954SOL    HW275760   0.787   5.361  12.323
57955SOL     OW75761   7.058   1.021   4.274
57955SOL    HW175762   7.150   0.998   4.258
57955SOL    HW275763   7.017   0.939   4.301
57956SOL     OW75764   3.788  13.140   7.447
57956SOL    HW175765   3.704  13.096   7.433
57956SOL    HW275766   3.852  13.069   7.451
57957SOL     OW75767  10.934   6.669   9.142
57957SOL    HW175768  10.853   6.675   9.092
57957SOL    HW275769  10.914   6.609   9.214
57958SOL     OW75770   1.767   2.157  12.090
57958SOL    HW175771   1.852   2.112  12.088
57958SOL    HW275772   1.790   2.250  12.096
57959SOL     OW75773   7.564   9.448   7.467
57959SOL    HW175774   7.590   9.531   7.507
57959SOL    HW275775   7.482   9.467   7.421
57960SOL     OW75776   2.942  11.657  11.515
57960SOL    HW175777   2.960  11.589  11.451
57960SOL    HW275778   3.024  11.706  11.522
57961SOL     OW75779   2.080  12.788   3.204
57961SOL    HW175780   2.110  12.831   3.284
57961SOL    HW275781   1.985  12.799   3.205
57962SOL     OW75782   0.676  11.352   4.097
57962SOL    HW175783   0.683  11.262   4.129
57962SOL    HW275784   0.720  11.351   4.012
57963SOL     OW75785   0.022   0.100  12.133
57963SOL    HW175786   0.105   0.068  12.167
57963SOL    HW275787  14.859   0.136  12.209
57964SOL     OW75788   2.507   1.288  13.446
57964SOL    HW175789   2.520   1.336  13.528
57964SOL    HW275790   2.456   1.211  13.471
57965SOL     OW75791  14.863  11.515  12.680
57965SOL    HW175792  14.779  11.547  12.713
57965SOL    HW275793   0.013  11.457  12.749
57966SOL     OW75794   5.387   0.591   2.322
57966SOL    HW175795   5.304   0.605   2.275
57966SOL    HW275796   5.441   0.541   2.261
57967SOL     OW75797   2.445   4.118  13.432
57967SOL    HW175798   2.531   4.160  13.419
57967SOL    HW275799   2.450   4.079  13.519
57968SOL     OW75800   7.436   9.414   4.771
57968SOL    HW175801   7.511   9.474   4.771
57968SOL    HW275802   7.457   9.349   4.839
57969SOL     OW75803   3.933   4.796  10.613
57969SOL    HW175804   4.021   4.814  10.579
57969SOL    HW275805   3.882   4.873  10.588
57970SOL     OW75806  11.365   0.281   7.298
57970SOL    HW175807  11.292   0.219   7.293
57970SOL    HW275808  11.389   0.296   7.207
57971SOL     OW75809   9.008   6.221   5.689
57971SOL    HW175810   9.004   6.126   5.694
57971SOL    HW275811   8.937   6.251   5.746
57972SOL     OW75812   4.837   1.364   2.666
57972SOL    HW175813   4.821   1.455   2.640
57972SOL    HW275814   4.833   1.314   2.584
57973SOL     OW75815   8.068   1.519   0.832
57973SOL    HW175816   8.094   1.584   0.768
57973SOL    HW275817   7.997   1.470   0.790
57974SOL     OW75818   5.683   3.946   9.791
57974SOL    HW175819   5.602   3.913   9.831
57974SOL    HW275820   5.741   3.869   9.788
57975SOL     OW75821   3.930   0.595   8.336
57975SOL    HW175822   4.021   0.565   8.328
57975SOL    HW275823   3.933   0.687   8.308
57976SOL     OW75824   1.849   9.322   4.664
57976SOL    HW175825   1.868   9.279   4.747
57976SOL    HW275826   1.897   9.270   4.599
57977SOL     OW75827   7.238   7.784  11.694
57977SOL    HW175828   7.229   7.701  11.646
57977SOL    HW275829   7.150   7.821  11.694
57978SOL     OW75830   3.597  13.054   3.692
57978SOL    HW175831   3.640  13.080   3.774
57978SOL    HW275832   3.630  13.115   3.627
57979SOL     OW75833  12.187   2.757   0.853
57979SOL    HW175834  12.222   2.823   0.792
57979SOL    HW275835  12.124   2.708   0.800
57980SOL     OW75836  12.589   4.201   6.231
57980SOL    HW175837  12.506   4.248   6.234
57980SOL    HW275838  12.612   4.186   6.323
57981SOL     OW75839   9.313  11.594  12.635
57981SOL    HW175840   9.319  11.688  12.651
57981SOL    HW275841   9.396  11.559  12.666
57982SOL     OW75842  12.233   3.904   8.523
57982SOL    HW175843  12.155   3.861   8.559
57982SOL    HW275844  12.262   3.846   8.453
57983SOL     OW75845   4.212   0.852   1.679
57983SOL    HW175846   4.139   0.840   1.739
57983SOL    HW275847   4.245   0.763   1.663
57984SOL     OW75848   1.316  12.393   2.859
57984SOL    HW175849   1.281  12.481   2.848
57984SOL    HW275850   1.402  12.405   2.899
57985SOL     OW75851   1.406   3.742   7.831
57985SOL    HW175852   1.391   3.814   7.769
57985SOL    HW275853   1.449   3.783   7.906
57986SOL     OW75854   8.314   3.273   9.472
57986SOL    HW175855   8.318   3.188   9.514
57986SOL    HW275856   8.353   3.333   9.536
57987SOL     OW75857  10.359   0.536   9.788
57987SOL    HW175858  10.378   0.522   9.881
57987SOL    HW275859  10.370   0.450   9.748
57988SOL     OW75860   9.710   6.526   8.848
57988SOL    HW175861   9.753   6.575   8.778
57988SOL    HW275862   9.722   6.581   8.926
57989SOL     OW75863  12.498  14.499   3.395
57989SOL    HW175864  12.404  14.505   3.409
57989SOL    HW275865  12.518  14.406   3.405
57990SOL     OW75866   5.311   3.536  13.787
57990SOL    HW175867   5.229   3.542  13.837
57990SOL    HW275868   5.349   3.453  13.814
57991SOL     OW75869   4.864   7.553  12.678
57991SOL    HW175870   4.906   7.530  12.595
57991SOL    HW275871   4.773   7.571  12.655
57992SOL     OW75872  11.763  13.683  12.776
57992SOL    HW175873  11.833  13.679  12.842
57992SOL    HW275874  11.748  13.777  12.764
57993SOL     OW75875   3.699  11.974  10.531
57993SOL    HW175876   3.764  11.992  10.464
57993SOL    HW275877   3.729  12.022  10.608
57994SOL     OW75878   7.267  13.763  13.967
57994SOL    HW175879   7.275  13.705  14.044
57994SOL    HW275880   7.194  13.821  13.989
57995SOL     OW75881   2.607   5.132   5.304
57995SOL    HW175882   2.667   5.096   5.239
57995SOL    HW275883   2.590   5.221   5.274
57996SOL     OW75884   6.579   2.780   8.443
57996SOL    HW175885   6.631   2.821   8.374
57996SOL    HW275886   6.572   2.848   8.510
57997SOL     OW75887   0.021   5.478   7.639
57997SOL    HW175888   0.099   5.483   7.695
57997SOL    HW275889   0.024   5.559   7.588
57998SOL     OW75890   6.687   3.246   5.440
57998SOL    HW175891   6.636   3.202   5.508
57998SOL    HW275892   6.637   3.326   5.420
57999SOL     OW75893   7.132   3.223   4.748
57999SOL    HW175894   7.227   3.233   4.748
57999SOL    HW275895   7.112   3.181   4.831
58000SOL     OW75896   9.111   6.503   1.562
58000SOL    HW175897   9.105   6.471   1.653
58000SOL    HW275898   9.138   6.594   1.571
58001SOL     OW75899   5.673   3.662  10.745
58001SOL    HW175900   5.710   3.600  10.682
58001SOL    HW275901   5.724   3.648  10.825
58002SOL     OW75902   8.746  13.250   6.781
58002SOL    HW175903   8.746  13.343   6.761
58002SOL    HW275904   8.800  13.211   6.712
58003SOL     OW75905  13.521   6.083  11.106
58003SOL    HW175906  13.578   6.154  11.076
58003SOL    HW275907  13.571   6.003  11.089
58004SOL     OW75908   0.452  14.172   6.432
58004SOL    HW175909   0.471  14.121   6.353
58004SOL    HW275910   0.459  14.108   6.503
58005SOL     OW75911  11.498   1.075   9.897
58005SOL    HW175912  11.437   1.139   9.935
58005SOL    HW275913  11.581   1.122   9.889
58006SOL     OW75914  14.234   0.777   4.992
58006SOL    HW175915  14.261   0.760   5.083
58006SOL    HW275916  14.240   0.691   4.949
58007SOL     OW75917   6.187   0.255   5.056
58007SOL    HW175918   6.275   0.232   5.086
58007SOL    HW275919   6.173   0.200   4.978
58008SOL     OW75920  12.032  12.356  13.497
58008SOL    HW175921  12.013  12.434  13.549
58008SOL    HW275922  12.094  12.386  13.430
58009SOL     OW75923   3.346   2.984   0.193
58009SOL    HW175924   3.398   3.013   0.268
58009SOL    HW275925   3.291   3.060   0.172
58010SOL     OW75926   3.716   0.862  12.536
58010SOL    HW175927   3.808   0.861  12.507
58010SOL    HW275928   3.671   0.806  12.473
58011SOL     OW75929   2.668   1.658   6.654
58011SOL    HW175930   2.632   1.625   6.736
58011SOL    HW275931   2.592   1.690   6.605
58012SOL     OW75932   0.597  14.288  10.744
58012SOL    HW175933   0.606  14.361  10.683
58012SOL    HW275934   0.545  14.224  10.696
58013SOL     OW75935  11.939   9.365   1.041
58013SOL    HW175936  11.949   9.434   1.107
58013SOL    HW275937  12.024   9.362   0.997
58014SOL     OW75938  13.867   8.349   1.185
58014SOL    HW175939  13.934   8.416   1.172
58014SOL    HW275940  13.907   8.288   1.247
58015SOL     OW75941  12.443  13.640  13.482
58015SOL    HW175942  12.482  13.713  13.531
58015SOL    HW275943  12.453  13.565  13.540
58016SOL     OW75944  13.517  10.520  14.846
58016SOL    HW175945  13.509  10.493   0.055
58016SOL    HW275946  13.516  10.437  14.797
58017SOL     OW75947   6.334   3.450   2.832
58017SOL    HW175948   6.374   3.392   2.896
58017SOL    HW275949   6.322   3.395   2.754
58018SOL     OW75950   8.679  14.694  14.438
58018SOL    HW175951   8.720  14.628  14.495
58018SOL    HW275952   8.672  14.651  14.353
58019SOL     OW75953   9.061   4.998  11.812
58019SOL    HW175954   9.143   5.035  11.845
58019SOL    HW275955   8.993   5.056  11.846
58020SOL     OW75956   4.971  11.857   6.876
58020SOL    HW175957   4.955  11.784   6.935
58020SOL    HW275958   5.057  11.891   6.902
58021SOL     OW75959   7.978   1.507   2.609
58021SOL    HW175960   7.945   1.522   2.698
58021SOL    HW275961   8.013   1.418   2.611
58022SOL     OW75962   1.407   7.844  12.879
58022SOL    HW175963   1.399   7.827  12.973
58022SOL    HW275964   1.360   7.771  12.838
58023SOL     OW75965  13.153   9.831   3.667
58023SOL    HW175966  13.231   9.823   3.612
58023SOL    HW275967  13.081   9.839   3.605
58024SOL     OW75968  14.643  13.937  12.707
58024SOL    HW175969  14.701  13.861  12.717
58024SOL    HW275970  14.678  13.984  12.631
58025SOL     OW75971   1.157   4.246   5.485
58025SOL    HW175972   1.207   4.196   5.420
58025SOL    HW275973   1.102   4.304   5.433
58026SOL     OW75974   7.284   0.537  13.774
58026SOL    HW175975   7.236   0.481  13.712
58026SOL    HW275976   7.331   0.476  13.830
58027SOL     OW75977   8.950  12.373  12.271
58027SOL    HW175978   9.046  12.363  12.271
58027SOL    HW275979   8.926  12.371  12.363
58028SOL     OW75980  13.310  10.090   7.862
58028SOL    HW175981  13.398  10.121   7.843
58028SOL    HW275982  13.288  10.034   7.787
58029SOL     OW75983   5.031   0.705  14.564
58029SOL    HW175984   5.084   0.685  14.641
58029SOL    HW275985   4.949   0.657  14.578
58030SOL     OW75986   8.963   9.285   6.489
58030SOL    HW175987   8.928   9.260   6.575
58030SOL    HW275988   8.982   9.201   6.447
58031SOL     OW75989  13.825   5.843   2.436
58031SOL    HW175990  13.900   5.797   2.474
58031SOL    HW275991  13.818   5.924   2.487
58032SOL     OW75992   6.089   2.044   3.938
58032SOL    HW175993   6.042   2.014   4.015
58032SOL    HW275994   6.062   1.984   3.869
58033SOL     OW75995  14.285  13.928  14.488
58033SOL    HW175996  14.346  14.002  14.496
58033SOL    HW275997  14.292  13.900  14.397
58034SOL     OW75998   6.965  14.322   5.612
58034SOL    HW175999   7.047  14.300   5.566
58034SOL    HW276000   6.933  14.238   5.646
58035SOL     OW76001   7.436   7.341   8.189
58035SOL    HW176002   7.351   7.297   8.193
58035SOL    HW276003   7.446   7.383   8.274
58036SOL     OW76004   8.484  10.042  12.167
58036SOL    HW176005   8.559   9.985  12.182
58036SOL    HW276006   8.453  10.020  12.080
58037SOL     OW76007   6.492   7.387  13.105
58037SOL    HW176008   6.518   7.305  13.147
58037SOL    HW276009   6.446   7.435  13.174
58038SOL     OW76010  14.533   4.019   4.044
58038SOL    HW176011  14.614   4.045   4.000
58038SOL    HW276012  14.557   3.940   4.092
58039SOL     OW76013   1.926   5.608   7.107
58039SOL    HW176014   1.867   5.533   7.100
58039SOL    HW276015   1.955   5.625   7.017
58040SOL     OW76016   6.448  13.328  12.720
58040SOL    HW176017   6.495  13.405  12.754
58040SOL    HW276018   6.373  13.318  12.779
58041SOL     OW76019   8.443   7.875   1.241
58041SOL    HW176020   8.479   7.827   1.167
58041SOL    HW276021   8.359   7.910   1.209
58042SOL     OW76022   4.580   2.945   5.440
58042SOL    HW176023   4.529   2.961   5.520
58042SOL    HW276024   4.666   2.983   5.458
58043SOL     OW76025  11.976   6.234   3.839
58043SOL    HW176026  11.989   6.283   3.920
58043SOL    HW276027  12.058   6.245   3.791
58044SOL     OW76028   0.008  13.240  10.457
58044SOL    HW176029  14.824  13.250  10.525
58044SOL    HW276030   0.089  13.223  10.505
58045SOL     OW76031   3.572   8.973  12.454
58045SOL    HW176032   3.523   8.945  12.376
58045SOL    HW276033   3.586   9.067  12.441
58046SOL     OW76034   1.291  13.508  12.084
58046SOL    HW176035   1.268  13.599  12.063
58046SOL    HW276036   1.311  13.509  12.177
58047SOL     OW76037  10.162  13.340   0.330
58047SOL    HW176038  10.205  13.278   0.271
58047SOL    HW276039  10.206  13.423   0.313
58048SOL     OW76040   0.019   6.512   2.234
58048SOL    HW176041   0.040   6.452   2.306
58048SOL    HW276042   0.030   6.460   2.155
58049SOL     OW76043   9.570   8.636   2.842
58049SOL    HW176044   9.648   8.691   2.833
58049SOL    HW276045   9.601   8.548   2.824
58050SOL     OW76046   3.720  10.498   7.543
58050SOL    HW176047   3.641  10.539   7.505
58050SOL    HW276048   3.762  10.568   7.592
58051SOL     OW76049  10.946   3.928   2.725
58051SOL    HW176050  10.885   3.862   2.755
58051SOL    HW276051  10.994   3.955   2.803
58052SOL     OW76052  12.421   4.107   9.989
58052SOL    HW176053  12.468   4.038   9.942
58052SOL    HW276054  12.360   4.059  10.045
58053SOL     OW76055   5.699  12.600   7.422
58053SOL    HW176056   5.793  12.594   7.403
58053SOL    HW276057   5.694  12.606   7.517
58054SOL     OW76058   3.066   9.966   5.119
58054SOL    HW176059   3.147   9.995   5.161
58054SOL    HW276060   3.055  10.024   5.044
58055SOL     OW76061  13.074   2.274   7.741
58055SOL    HW176062  13.006   2.279   7.675
58055SOL    HW276063  13.143   2.333   7.710
58056SOL     OW76064  14.219  10.577  11.406
58056SOL    HW176065  14.258  10.629  11.476
58056SOL    HW276066  14.127  10.604  11.404
58057SOL     OW76067   3.376   2.920   4.427
58057SOL    HW176068   3.290   2.879   4.423
58057SOL    HW276069   3.424   2.884   4.353
58058SOL     OW76070   6.233   7.708  11.033
58058SOL    HW176071   6.292   7.769  10.989
58058SOL    HW276072   6.168   7.686  10.967
58059SOL     OW76073   6.632   0.340  10.237
58059SOL    HW176074   6.639   0.279  10.164
58059SOL    HW276075   6.715   0.388  10.236
58060SOL     OW76076   6.743  10.391  13.170
58060SOL    HW176077   6.751  10.302  13.136
58060SOL    HW276078   6.709  10.380  13.259
58061SOL     OW76079   0.142  10.216  12.053
58061SOL    HW176080   0.211  10.154  12.030
58061SOL    HW276081   0.164  10.243  12.142
58062SOL     OW76082   2.793   1.820   9.708
58062SOL    HW176083   2.838   1.885   9.761
58062SOL    HW276084   2.735   1.775   9.769
58063SOL     OW76085   3.526   2.224   0.003
58063SOL    HW176086   3.470   2.301  14.879
58063SOL    HW276087   3.504   2.172  14.808
58064SOL     OW76088   9.753  14.262  12.161
58064SOL    HW176089   9.729  14.202  12.231
58064SOL    HW276090   9.828  14.220  12.118
58065SOL     OW76091   3.311   1.362   1.733
58065SOL    HW176092   3.296   1.306   1.810
58065SOL    HW276093   3.294   1.451   1.764
58066SOL     OW76094  14.174  12.118  13.364
58066SOL    HW176095  14.257  12.099  13.319
58066SOL    HW276096  14.139  12.194  13.318
58067SOL     OW76097  14.751   7.228   6.829
58067SOL    HW176098  14.834   7.272   6.810
58067SOL    HW276099  14.776   7.150   6.878
58068SOL     OW76100   5.866   8.697   5.479
58068SOL    HW176101   5.778   8.723   5.451
58068SOL    HW276102   5.895   8.635   5.411
58069SOL     OW76103   7.709  11.989   6.406
58069SOL    HW176104   7.770  12.045   6.360
58069SOL    HW276105   7.704  11.909   6.353
58070SOL     OW76106  12.818  12.559   0.542
58070SOL    HW176107  12.800  12.560   0.636
58070SOL    HW276108  12.898  12.508   0.533
58071SOL     OW76109   6.364  14.602   7.868
58071SOL    HW176110   6.371  14.678   7.809
58071SOL    HW276111   6.331  14.532   7.812
58072SOL     OW76112   4.411   9.218  13.529
58072SOL    HW176113   4.445   9.297  13.571
58072SOL    HW276114   4.489   9.164  13.515
58073SOL     OW76115   1.046   6.246  12.603
58073SOL    HW176116   1.065   6.216  12.514
58073SOL    HW276117   1.127   6.287  12.632
58074SOL     OW76118  10.313   9.836   2.333
58074SOL    HW176119  10.396   9.869   2.368
58074SOL    HW276120  10.331   9.823   2.240
58075SOL     OW76121   2.331  11.735   1.606
58075SOL    HW176122   2.425  11.738   1.625
58075SOL    HW276123   2.291  11.795   1.668
58076SOL     OW76124   9.484   8.165  10.093
58076SOL    HW176125   9.397   8.128  10.106
58076SOL    HW276126   9.494   8.227  10.165
58077SOL     OW76127   9.282   0.210   6.403
58077SOL    HW176128   9.286   0.119   6.376
58077SOL    HW276129   9.368   0.229   6.439
58078SOL     OW76130   0.122  11.531  11.170
58078SOL    HW176131   0.106  11.557  11.079
58078SOL    HW276132   0.149  11.439  11.164
58079SOL     OW76133   0.089   1.096   9.523
58079SOL    HW176134   0.164   1.145   9.489
58079SOL    HW276135   0.056   1.047   9.448
58080SOL     OW76136   3.755   0.047   7.955
58080SOL    HW176137   3.730   0.136   7.979
58080SOL    HW276138   3.716  14.874   8.023
58081SOL     OW76139   6.422  13.057   8.386
58081SOL    HW176140   6.406  13.058   8.292
58081SOL    HW276141   6.407  12.966   8.412
58082SOL     OW76142   6.243  14.576  12.230
58082SOL    HW176143   6.240  14.481  12.236
58082SOL    HW276144   6.173  14.599  12.169
58083SOL     OW76145   8.849  11.082   1.359
58083SOL    HW176146   8.881  11.062   1.271
58083SOL    HW276147   8.913  11.043   1.418
58084SOL     OW76148   3.327   2.760   5.228
58084SOL    HW176149   3.379   2.760   5.147
58084SOL    HW276150   3.321   2.853   5.252
58085SOL     OW76151   3.409  10.044   7.471
58085SOL    HW176152   3.416   9.976   7.538
58085SOL    HW276153   3.317  10.042   7.444
58086SOL     OW76154  11.696  12.847   9.709
58086SOL    HW176155  11.610  12.887   9.724
58086SOL    HW276156  11.748  12.916   9.667
58087SOL     OW76157   4.367  10.192  10.168
58087SOL    HW176158   4.388  10.100  10.183
58087SOL    HW276159   4.271  10.196  10.175
58088SOL     OW76160   0.623   3.068   8.863
58088SOL    HW176161   0.657   3.092   8.949
58088SOL    HW276162   0.615   2.973   8.866
58089SOL     OW76163  10.928   9.083   6.760
58089SOL    HW176164  10.935   9.136   6.681
58089SOL    HW276165  10.847   9.112   6.802
58090SOL     OW76166   1.795   3.633  13.108
58090SOL    HW176167   1.775   3.542  13.089
58090SOL    HW276168   1.883   3.632  13.146
58091SOL     OW76169  12.655   5.579   2.694
58091SOL    HW176170  12.673   5.635   2.618
58091SOL    HW276171  12.671   5.635   2.769
58092SOL     OW76172   7.098   0.554  13.106
58092SOL    HW176173   7.045   0.489  13.152
58092SOL    HW276174   7.150   0.596  13.174
58093SOL     OW76175   1.140  14.014   6.948
58093SOL    HW176176   1.106  14.039   6.862
58093SOL    HW276177   1.120  14.090   7.004
58094SOL     OW76178   1.036   9.374  13.724
58094SOL    HW176179   1.009   9.380  13.815
58094SOL    HW276180   1.028   9.281  13.702
58095SOL     OW76181   0.293  14.423   3.695
58095SOL    HW176182   0.279  14.360   3.766
58095SOL    HW276183   0.218  14.481   3.699
58096SOL     OW76184   0.906  12.856   5.759
58096SOL    HW176185   0.882  12.947   5.779
58096SOL    HW276186   0.981  12.863   5.700
58097SOL     OW76187  13.226   5.082   6.476
58097SOL    HW176188  13.150   5.140   6.477
58097SOL    HW276189  13.297   5.134   6.513
58098SOL     OW76190   1.060   6.897   2.211
58098SOL    HW176191   1.041   6.829   2.146
58098SOL    HW276192   1.154   6.912   2.203
58099SOL     OW76193  11.057  13.892  11.014
58099SOL    HW176194  10.965  13.896  10.991
58099SOL    HW276195  11.085  13.983  11.019
58100SOL     OW76196   8.608   7.256  12.242
58100SOL    HW176197   8.646   7.335  12.204
58100SOL    HW276198   8.681   7.194  12.246
58101SOL     OW76199   1.205   0.499  11.328
58101SOL    HW176200   1.142   0.526  11.395
58101SOL    HW276201   1.289   0.500  11.373
58102SOL     OW76202   6.329  12.197  12.745
58102SOL    HW176203   6.412  12.154  12.725
58102SOL    HW276204   6.280  12.133  12.796
58103SOL     OW76205   6.264   8.173   2.477
58103SOL    HW176206   6.341   8.178   2.533
58103SOL    HW276207   6.235   8.082   2.482
58104SOL     OW76208   7.324   4.584  11.464
58104SOL    HW176209   7.246   4.570  11.518
58104SOL    HW276210   7.291   4.632  11.388
58105SOL     OW76211   8.530   0.313   6.063
58105SOL    HW176212   8.566   0.259   6.133
58105SOL    HW276213   8.558   0.271   5.982
58106SOL     OW76214  12.665   8.450   4.465
58106SOL    HW176215  12.599   8.418   4.527
58106SOL    HW276216  12.744   8.400   4.487
58107SOL     OW76217   6.240  13.238   3.584
58107SOL    HW176218   6.303  13.180   3.626
58107SOL    HW276219   6.293  13.297   3.530
58108SOL     OW76220   4.950  12.269  12.000
58108SOL    HW176221   5.023  12.323  11.970
58108SOL    HW276222   4.962  12.186  11.954
58109SOL     OW76223  10.169   6.789  14.374
58109SOL    HW176224  10.080   6.760  14.396
58109SOL    HW276225  10.218   6.778  14.455
58110SOL     OW76226   7.420   7.493   0.015
58110SOL    HW176227   7.397   7.481   0.107
58110SOL    HW276228   7.357   7.558  14.865
58111SOL     OW76229   5.812  10.220   0.832
58111SOL    HW176230   5.897  10.206   0.791
58111SOL    HW276231   5.831  10.273   0.910
58112SOL     OW76232  12.214  10.720   6.035
58112SOL    HW176233  12.209  10.732   5.940
58112SOL    HW276234  12.243  10.630   6.047
58113SOL     OW76235  13.829   7.513  11.483
58113SOL    HW176236  13.763   7.444  11.489
58113SOL    HW276237  13.778   7.594  11.476
58114SOL     OW76238  13.820   4.408   0.013
58114SOL    HW176239  13.896   4.355   0.037
58114SOL    HW276240  13.775   4.425   0.095
58115SOL     OW76241  11.230   4.198   7.971
58115SOL    HW176242  11.184   4.256   7.909
58115SOL    HW276243  11.322   4.204   7.944
58116SOL     OW76244  10.901   0.281  13.667
58116SOL    HW176245  10.971   0.335  13.702
58116SOL    HW276246  10.881   0.318  13.582
58117SOL     OW76247   3.750   6.020   1.095
58117SOL    HW176248   3.797   6.102   1.075
58117SOL    HW276249   3.740   6.021   1.190
58118SOL     OW76250   2.240   8.084  12.611
58118SOL    HW176251   2.222   7.994  12.583
58118SOL    HW276252   2.306   8.076  12.679
58119SOL     OW76253   8.809   1.099   9.098
58119SOL    HW176254   8.724   1.120   9.137
58119SOL    HW276255   8.816   1.004   9.105
58120SOL     OW76256  10.487  12.804  13.158
58120SOL    HW176257  10.484  12.783  13.065
58120SOL    HW276258  10.395  12.804  13.185
58121SOL     OW76259  13.051  12.188   4.044
58121SOL    HW176260  13.035  12.261   4.103
58121SOL    HW276261  13.110  12.223   3.977
58122SOL     OW76262  11.365   7.189   5.811
58122SOL    HW176263  11.355   7.266   5.756
58122SOL    HW276264  11.292   7.132   5.786
58123SOL     OW76265   4.407   4.978  10.662
58123SOL    HW176266   4.434   4.905  10.718
58123SOL    HW276267   4.336   4.942  10.609
58124SOL     OW76268   6.391   7.494  12.358
58124SOL    HW176269   6.452   7.500  12.285
58124SOL    HW276270   6.435   7.536  12.431
58125SOL     OW76271   4.326   3.043   5.031
58125SOL    HW176272   4.362   3.023   5.118
58125SOL    HW276273   4.233   3.020   5.037
58126SOL     OW76274   7.099   3.796  10.233
58126SOL    HW176275   7.066   3.798  10.323
58126SOL    HW276276   7.174   3.736  10.236
58127SOL     OW76277   9.726   3.441   2.616
58127SOL    HW176278   9.794   3.475   2.675
58127SOL    HW276279   9.646   3.486   2.643
58128SOL     OW76280   7.214  14.216  13.322
58128SOL    HW176281   7.252  14.245  13.239
58128SOL    HW276282   7.122  14.240  13.315
58129SOL     OW76283   9.731   6.913   3.219
58129SOL    HW176284   9.650   6.964   3.225
58129SOL    HW276285   9.755   6.896   3.310
58130SOL     OW76286   0.118   0.684   6.837
58130SOL    HW176287   0.119   0.779   6.820
58130SOL    HW276288   0.028   0.658   6.818
58131SOL     OW76289   3.161  11.049   8.702
58131SOL    HW176290   3.164  11.131   8.753
58131SOL    HW276291   3.203  10.985   8.759
58132SOL     OW76292   7.139  11.452   3.241
58132SOL    HW176293   7.049  11.453   3.207
58132SOL    HW276294   7.129  11.470   3.334
58133SOL     OW76295  12.149   6.817   7.818
58133SOL    HW176296  12.092   6.885   7.853
58133SOL    HW276297  12.235   6.859   7.811
58134SOL     OW76298  14.317  10.322   3.039
58134SOL    HW176299  14.313  10.417   3.049
58134SOL    HW276300  14.232  10.291   3.070
58135SOL     OW76301  14.239   6.945  11.607
58135SOL    HW176302  14.305   7.007  11.638
58135SOL    HW276303  14.173   6.945  11.676
58136SOL     OW76304   5.091   1.534   4.671
58136SOL    HW176305   5.150   1.551   4.743
58136SOL    HW276306   5.147   1.535   4.593
58137SOL     OW76307   6.847  11.870   9.679
58137SOL    HW176308   6.791  11.845   9.753
58137SOL    HW276309   6.788  11.874   9.604
58138SOL     OW76310   6.562   0.127  12.993
58138SOL    HW176311   6.628   0.194  12.974
58138SOL    HW276312   6.557   0.075  12.913
58139SOL     OW76313  11.533   1.667   7.783
58139SOL    HW176314  11.475   1.737   7.753
58139SOL    HW276315  11.501   1.644   7.870
58140SOL     OW76316   7.445   3.694   7.308
58140SOL    HW176317   7.394   3.629   7.355
58140SOL    HW276318   7.521   3.646   7.274
58141SOL     OW76319  10.359  12.401   2.905
58141SOL    HW176320  10.351  12.320   2.853
58141SOL    HW276321  10.319  12.468   2.850
58142SOL     OW76322   9.221  12.825  14.568
58142SOL    HW176323   9.287  12.891  14.591
58142SOL    HW276324   9.174  12.863  14.493
58143SOL     OW76325   8.983   7.215   0.522
58143SOL    HW176326   9.064   7.192   0.475
58143SOL    HW276327   9.012   7.233   0.611
58144SOL     OW76328   1.614   4.625   2.186
58144SOL    HW176329   1.616   4.658   2.276
58144SOL    HW276330   1.674   4.682   2.138
58145SOL     OW76331   6.411   3.263   8.176
58145SOL    HW176332   6.470   3.250   8.102
58145SOL    HW276333   6.343   3.197   8.165
58146SOL     OW76334   0.758  12.075  13.647
58146SOL    HW176335   0.846  12.112  13.647
58146SOL    HW276336   0.701  12.150  13.663
58147SOL     OW76337   4.104   1.833  11.458
58147SOL    HW176338   4.143   1.756  11.416
58147SOL    HW276339   4.176   1.895  11.468
58148SOL     OW76340   9.230   9.832   7.710
58148SOL    HW176341   9.288   9.756   7.703
58148SOL    HW276342   9.267   9.885   7.780
58149SOL     OW76343  11.655  13.513  14.636
58149SOL    HW176344  11.677  13.462  14.714
58149SOL    HW276345  11.703  13.470  14.565
58150SOL     OW76346  11.095   5.602   6.297
58150SOL    HW176347  11.025   5.538   6.289
58150SOL    HW276348  11.084   5.640   6.384
58151SOL     OW76349   3.306  11.230   3.302
58151SOL    HW176350   3.353  11.312   3.320
58151SOL    HW276351   3.348  11.165   3.357
58152SOL     OW76352  14.315   9.142  11.394
58152SOL    HW176353  14.286   9.052  11.406
58152SOL    HW276354  14.370   9.161  11.470
58153SOL     OW76355   7.854   1.849   5.821
58153SOL    HW176356   7.809   1.772   5.786
58153SOL    HW276357   7.844   1.915   5.752
58154SOL     OW76358   0.804  11.339   1.628
58154SOL    HW176359   0.844  11.425   1.620
58154SOL    HW276360   0.870  11.278   1.593
58155SOL     OW76361  11.897  13.446   0.856
58155SOL    HW176362  11.808  13.482   0.850
58155SOL    HW276363  11.954  13.523   0.858
58156SOL     OW76364   2.592   8.410   9.253
58156SOL    HW176365   2.539   8.333   9.270
58156SOL    HW276366   2.669   8.376   9.205
58157SOL     OW76367  11.623   9.266   9.291
58157SOL    HW176368  11.603   9.304   9.377
58157SOL    HW276369  11.538   9.254   9.249
58158SOL     OW76370   0.466  10.673   1.677
58158SOL    HW176371   0.393  10.699   1.620
58158SOL    HW276372   0.538  10.655   1.617
58159SOL     OW76373   8.885   4.567  14.063
58159SOL    HW176374   8.897   4.649  14.016
58159SOL    HW276375   8.815   4.522  14.016
58160SOL     OW76376   8.304   9.771  12.084
58160SOL    HW176377   8.269   9.710  12.149
58160SOL    HW276378   8.255   9.752  12.004
58161SOL     OW76379   6.931   1.664   4.112
58161SOL    HW176380   6.972   1.649   4.198
58161SOL    HW276381   6.995   1.633   4.049
58162SOL     OW76382   5.734   5.007   8.440
58162SOL    HW176383   5.798   5.071   8.472
58162SOL    HW276384   5.715   4.951   8.515
58163SOL     OW76385   4.032   6.478   1.831
58163SOL    HW176386   4.066   6.466   1.742
58163SOL    HW276387   4.032   6.573   1.843
58164SOL     OW76388  12.592   7.982  14.342
58164SOL    HW176389  12.595   7.984  14.247
58164SOL    HW276390  12.562   8.069  14.367
58165SOL     OW76391  12.164   9.114   0.943
58165SOL    HW176392  12.249   9.124   0.985
58165SOL    HW276393  12.167   9.027   0.903
58166SOL     OW76394   3.273  14.197   0.173
58166SOL    HW176395   3.353  14.148   0.157
58166SOL    HW276396   3.273  14.265   0.106
58167SOL     OW76397   0.415   4.165  14.404
58167SOL    HW176398   0.488   4.223  14.382
58167SOL    HW276399   0.338   4.207  14.366
58168SOL     OW76400   5.146  10.483   8.209
58168SOL    HW176401   5.178  10.491   8.119
58168SOL    HW276402   5.073  10.545   8.214
58169SOL     OW76403   3.919   0.170   3.834
58169SOL    HW176404   3.998   0.126   3.805
58169SOL    HW276405   3.944   0.212   3.917
58170SOL     OW76406   4.883  11.285   8.443
58170SOL    HW176407   4.804  11.339   8.447
58170SOL    HW276408   4.850  11.195   8.441
58171SOL     OW76409  11.880   3.466  11.719
58171SOL    HW176410  11.866   3.513  11.636
58171SOL    HW276411  11.801   3.414  11.731
58172SOL     OW76412  10.100   7.749   6.472
58172SOL    HW176413  10.181   7.702   6.454
58172SOL    HW276414  10.040   7.722   6.403
58173SOL     OW76415   8.958   5.406  13.246
58173SOL    HW176416   9.024   5.395  13.315
58173SOL    HW276417   9.003   5.381  13.165
58174SOL     OW76418  11.832   4.463   7.221
58174SOL    HW176419  11.758   4.404   7.234
58174SOL    HW276420  11.866   4.479   7.310
58175SOL     OW76421   5.621   2.957   9.478
58175SOL    HW176422   5.615   3.051   9.494
58175SOL    HW276423   5.597   2.946   9.386
58176SOL     OW76424  11.870   0.374  14.330
58176SOL    HW176425  11.797   0.364  14.270
58176SOL    HW276426  11.943   0.402  14.274
58177SOL     OW76427   1.834   1.923   1.618
58177SOL    HW176428   1.816   1.985   1.689
58177SOL    HW276429   1.843   1.978   1.541
58178SOL     OW76430  12.295   5.519   2.081
58178SOL    HW176431  12.297   5.446   2.018
58178SOL    HW276432  12.358   5.494   2.148
58179SOL     OW76433  12.532   9.155   2.746
58179SOL    HW176434  12.583   9.217   2.695
58179SOL    HW276435  12.443   9.191   2.746
58180SOL     OW76436  12.032   2.522   6.712
58180SOL    HW176437  12.067   2.596   6.763
58180SOL    HW276438  11.946   2.505   6.750
58181SOL     OW76439   0.413   6.635   5.561
58181SOL    HW176440   0.391   6.555   5.514
58181SOL    HW276441   0.398   6.705   5.497
58182SOL     OW76442   0.831   4.380   2.194
58182SOL    HW176443   0.865   4.345   2.112
58182SOL    HW276444   0.848   4.312   2.259
58183SOL     OW76445   3.419  14.512   3.736
58183SOL    HW176446   3.344  14.512   3.677
58183SOL    HW276447   3.380  14.509   3.824
58184SOL     OW76448  13.003   3.977  13.210
58184SOL    HW176449  13.091   3.939  13.200
58184SOL    HW276450  13.010   4.032  13.288
58185SOL     OW76451  10.038  12.544   9.038
58185SOL    HW176452  10.093  12.470   9.067
58185SOL    HW276453   9.968  12.503   8.988
58186SOL     OW76454   3.694   6.567   0.079
58186SOL    HW176455   3.674   6.519   0.159
58186SOL    HW276456   3.717   6.499   0.015
58187SOL     OW76457   9.153   6.358   7.465
58187SOL    HW176458   9.099   6.316   7.532
58187SOL    HW276459   9.216   6.410   7.514
58188SOL     OW76460  13.097   8.539   8.925
58188SOL    HW176461  13.048   8.495   8.995
58188SOL    HW276462  13.134   8.468   8.874
58189SOL     OW76463   6.298  13.018  11.521
58189SOL    HW176464   6.381  12.975  11.501
58189SOL    HW276465   6.277  13.068  11.442
58190SOL     OW76466   7.242  10.537   7.000
58190SOL    HW176467   7.151  10.567   6.994
58190SOL    HW276468   7.288  10.586   6.932
58191SOL     OW76469   2.475   8.090   8.334
58191SOL    HW176470   2.467   8.161   8.271
58191SOL    HW276471   2.407   8.028   8.309
58192SOL     OW76472  14.102  13.183   8.854
58192SOL    HW176473  14.032  13.163   8.916
58192SOL    HW276474  14.099  13.278   8.843
58193SOL     OW76475  12.408   9.541   8.511
58193SOL    HW176476  12.356   9.570   8.586
58193SOL    HW276477  12.446   9.458   8.539
58194SOL     OW76478  11.758   4.970   5.848
58194SOL    HW176479  11.806   5.047   5.817
58194SOL    HW276480  11.667   4.987   5.824
58195SOL     OW76481   7.220  11.369   7.634
58195SOL    HW176482   7.161  11.417   7.691
58195SOL    HW276483   7.232  11.427   7.558
58196SOL     OW76484  10.539   6.098   9.762
58196SOL    HW176485  10.604   6.061   9.822
58196SOL    HW276486  10.589   6.123   9.685
58197SOL     OW76487   3.806   1.856   5.580
58197SOL    HW176488   3.780   1.910   5.506
58197SOL    HW276489   3.750   1.778   5.575
58198SOL     OW76490   9.781  13.007   5.304
58198SOL    HW176491   9.723  12.960   5.364
58198SOL    HW276492   9.752  12.981   5.217
58199SOL     OW76493   2.228  11.487   9.433
58199SOL    HW176494   2.305  11.538   9.409
58199SOL    HW276495   2.257  11.396   9.429
58200SOL     OW76496   0.940   7.496   7.470
58200SOL    HW176497   0.881   7.436   7.515
58200SOL    HW276498   0.889   7.530   7.397
58201SOL     OW76499  10.001   0.183   8.949
58201SOL    HW176500   9.950   0.237   9.009
58201SOL    HW276501   9.943   0.110   8.926
58202SOL     OW76502  13.560   1.115   1.430
58202SOL    HW176503  13.509   1.047   1.387
58202SOL    HW276504  13.644   1.074   1.449
58203SOL     OW76505   8.103   9.878  11.471
58203SOL    HW176506   8.041   9.847  11.537
58203SOL    HW276507   8.189   9.861  11.509
58204SOL     OW76508   2.480   0.102  13.095
58204SOL    HW176509   2.445   0.014  13.110
58204SOL    HW276510   2.404   0.155  13.072
58205SOL     OW76511   6.012   3.994   2.164
58205SOL    HW176512   6.008   3.972   2.257
58205SOL    HW276513   6.011   4.090   2.163
58206SOL     OW76514  12.934  14.532   8.564
58206SOL    HW176515  12.957  14.480   8.487
58206SOL    HW276516  12.848  14.569   8.543
58207SOL     OW76517   2.003  14.792   9.070
58207SOL    HW176518   1.995  14.785   9.165
58207SOL    HW276519   2.093  14.765   9.052
58208SOL     OW76520  10.069   7.721   4.081
58208SOL    HW176521  10.147   7.672   4.053
58208SOL    HW276522  10.070   7.800   4.026
58209SOL     OW76523   7.061  13.109   4.405
58209SOL    HW176524   6.995  13.053   4.445
58209SOL    HW276525   7.032  13.120   4.315
58210SOL     OW76526   7.998   0.785  11.637
58210SOL    HW176527   8.051   0.706  11.643
58210SOL    HW276528   7.959   0.794  11.724
58211SOL     OW76529  12.204  11.896  10.887
58211SOL    HW176530  12.291  11.861  10.866
58211SOL    HW276531  12.156  11.820  10.922
58212SOL     OW76532   8.875  14.760  14.694
58212SOL    HW176533   8.850  14.734  14.783
58212SOL    HW276534   8.831  14.696  14.638
58213SOL     OW76535   5.752   2.069   0.138
58213SOL    HW176536   5.757   2.158   0.173
58213SOL    HW276537   5.833   2.058   0.088
58214SOL     OW76538   1.853   0.756  13.101
58214SOL    HW176539   1.922   0.790  13.044
58214SOL    HW276540   1.900   0.707  13.169
58215SOL     OW76541   2.333  11.383  12.591
58215SOL    HW176542   2.385  11.307  12.616
58215SOL    HW276543   2.253  11.375  12.642
58216SOL     OW76544   3.897  12.782  14.832
58216SOL    HW176545   3.917  12.874  14.850
58216SOL    HW276546   3.969  12.733  14.872
58217SOL     OW76547  12.990   5.835   9.036
58217SOL    HW176548  13.012   5.924   9.009
58217SOL    HW276549  13.064   5.807   9.091
58218SOL     OW76550  12.153   6.463  13.695
58218SOL    HW176551  12.091   6.536  13.708
58218SOL    HW276552  12.155   6.450  13.601
58219SOL     OW76553  14.709   1.218   8.145
58219SOL    HW176554  14.678   1.157   8.212
58219SOL    HW276555  14.680   1.179   8.062
58220SOL     OW76556   5.318   8.943   5.878
58220SOL    HW176557   5.392   8.940   5.939
58220SOL    HW276558   5.330   9.024   5.830
58221SOL     OW76559   3.888  12.967  13.106
58221SOL    HW176560   3.862  12.944  13.195
58221SOL    HW276561   3.830  13.039  13.081
58222SOL     OW76562   4.478   7.992  10.867
58222SOL    HW176563   4.508   8.041  10.790
58222SOL    HW276564   4.453   7.906  10.833
58223SOL     OW76565  13.700   4.563   0.554
58223SOL    HW176566  13.737   4.650   0.566
58223SOL    HW276567  13.747   4.508   0.617
58224SOL     OW76568   2.419   5.547   2.805
58224SOL    HW176569   2.430   5.452   2.804
58224SOL    HW276570   2.499   5.582   2.766
58225SOL     OW76571   0.372   4.855   0.838
58225SOL    HW176572   0.400   4.939   0.803
58225SOL    HW276573   0.279   4.849   0.816
58226SOL     OW76574  10.423   1.451   3.725
58226SOL    HW176575  10.514   1.423   3.709
58226SOL    HW276576  10.391   1.478   3.639
58227SOL     OW76577  10.860   2.477   3.335
58227SOL    HW176578  10.898   2.517   3.414
58227SOL    HW276579  10.931   2.478   3.271
58228SOL     OW76580  10.525   6.687  10.403
58228SOL    HW176581  10.444   6.721  10.365
58228SOL    HW276582  10.575   6.765  10.428
58229SOL     OW76583   4.161   4.963   4.415
58229SOL    HW176584   4.080   5.014   4.412
58229SOL    HW276585   4.216   5.002   4.347
58230SOL     OW76586  10.572   3.327   2.461
58230SOL    HW176587  10.477   3.318   2.466
58230SOL    HW276588  10.594   3.297   2.373
58231SOL     OW76589   1.090   1.097   1.281
58231SOL    HW176590   1.148   1.173   1.285
58231SOL    HW276591   1.003   1.132   1.301
58232SOL     OW76592   5.132   5.084   4.659
58232SOL    HW176593   5.200   5.151   4.661
58232SOL    HW276594   5.068   5.116   4.596
58233SOL     OW76595   1.598   0.019   0.067
58233SOL    HW176596   1.674  14.844   0.076
58233SOL    HW276597   1.633   0.104   0.044
58234SOL     OW76598   2.500   1.103   0.009
58234SOL    HW176599   2.571   1.057  14.847
58234SOL    HW276600   2.503   1.192  14.856
58235SOL     OW76601  12.779   9.497   8.514
58235SOL    HW176602  12.712   9.446   8.468
58235SOL    HW276603  12.853   9.500   8.453
58236SOL     OW76604   4.350  12.082  10.209
58236SOL    HW176605   4.442  12.090  10.236
58236SOL    HW276606   4.352  12.018  10.138
58237SOL     OW76607  11.155   7.281   3.086
58237SOL    HW176608  11.064   7.283   3.059
58237SOL    HW276609  11.176   7.372   3.108
58238SOL     OW76610   1.512   1.685   6.949
58238SOL    HW176611   1.545   1.630   6.877
58238SOL    HW276612   1.539   1.774   6.924
58239SOL     OW76613   4.048   3.942   1.490
58239SOL    HW176614   4.031   4.007   1.422
58239SOL    HW276615   3.975   3.952   1.551
58240SOL     OW76616   7.936   6.577   1.279
58240SOL    HW176617   7.954   6.555   1.187
58240SOL    HW276618   7.934   6.673   1.280
58241SOL     OW76619   7.821   0.980  10.887
58241SOL    HW176620   7.850   0.947  10.972
58241SOL    HW276621   7.902   1.005  10.842
58242SOL     OW76622  11.014  12.228   4.496
58242SOL    HW176623  11.105  12.202   4.503
58242SOL    HW276624  11.016  12.324   4.500
58243SOL     OW76625   1.002   7.414  11.611
58243SOL    HW176626   0.922   7.437  11.659
58243SOL    HW276627   1.039   7.341  11.660
58244SOL     OW76628   2.929   7.364   7.845
58244SOL    HW176629   3.018   7.333   7.829
58244SOL    HW276630   2.880   7.285   7.870
58245SOL     OW76631   7.602   5.934  12.489
58245SOL    HW176632   7.632   5.872  12.422
58245SOL    HW276633   7.655   5.913  12.566
58246SOL     OW76634  11.534   3.643   7.096
58246SOL    HW176635  11.482   3.723   7.104
58246SOL    HW276636  11.516   3.611   7.008
58247SOL     OW76637   4.868   0.261   7.860
58247SOL    HW176638   4.869   0.234   7.952
58247SOL    HW276639   4.819   0.343   7.860
58248SOL     OW76640   9.825   2.759   8.233
58248SOL    HW176641   9.856   2.669   8.242
58248SOL    HW276642   9.894   2.812   8.274
58249SOL     OW76643  14.505   2.194   5.728
58249SOL    HW176644  14.453   2.269   5.759
58249SOL    HW276645  14.456   2.117   5.756
58250SOL     OW76646   2.013   9.825   1.896
58250SOL    HW176647   1.943   9.805   1.835
58250SOL    HW276648   2.093   9.813   1.845
58251SOL     OW76649   1.229   9.776  13.377
58251SOL    HW176650   1.164   9.774  13.448
58251SOL    HW276651   1.305   9.730  13.412
58252SOL     OW76652  12.824  14.785   1.218
58252SOL    HW176653  12.766  14.708   1.217
58252SOL    HW276654  12.911  14.748   1.234
58253SOL     OW76655   9.221   2.029   4.037
58253SOL    HW176656   9.250   1.938   4.043
58253SOL    HW276657   9.152   2.037   4.103
58254SOL     OW76658   6.553   5.770   2.980
58254SOL    HW176659   6.559   5.817   3.064
58254SOL    HW276660   6.549   5.840   2.914
58255SOL     OW76661   5.494   2.017   3.203
58255SOL    HW176662   5.575   2.038   3.156
58255SOL    HW276663   5.522   1.996   3.292
58256SOL     OW76664  10.621   9.304   7.913
58256SOL    HW176665  10.693   9.267   7.963
58256SOL    HW276666  10.558   9.232   7.904
58257SOL     OW76667   4.573   0.776   5.956
58257SOL    HW176668   4.541   0.692   5.925
58257SOL    HW276669   4.667   0.763   5.968
58258SOL     OW76670   4.746  14.126  13.122
58258SOL    HW176671   4.656  14.093  13.125
58258SOL    HW276672   4.754  14.179  13.202
58259SOL     OW76673   8.388  10.741   8.475
58259SOL    HW176674   8.454  10.693   8.526
58259SOL    HW276675   8.437  10.777   8.401
58260SOL     OW76676   5.721  11.682  13.344
58260SOL    HW176677   5.633  11.716  13.363
58260SOL    HW276678   5.731  11.607  13.403
58261SOL     OW76679   4.815   0.988  11.225
58261SOL    HW176680   4.863   0.909  11.200
58261SOL    HW276681   4.723   0.962  11.222
58262SOL     OW76682  12.104  12.570   8.084
58262SOL    HW176683  12.183  12.619   8.063
58262SOL    HW276684  12.132  12.502   8.145
58263SOL     OW76685  12.973  10.500  10.966
58263SOL    HW176686  13.055  10.451  10.959
58263SOL    HW276687  12.986  10.556  11.043
58264SOL     OW76688   7.820   9.959   5.953
58264SOL    HW176689   7.905   9.923   5.927
58264SOL    HW276690   7.835   9.997   6.040
58265SOL     OW76691   1.405   3.395   2.293
58265SOL    HW176692   1.403   3.317   2.238
58265SOL    HW276693   1.453   3.460   2.242
58266SOL     OW76694  11.534  13.875   5.496
58266SOL    HW176695  11.442  13.854   5.478
58266SOL    HW276696  11.558  13.937   5.427
58267SOL     OW76697  13.771  12.665   0.309
58267SOL    HW176698  13.733  12.625   0.231
58267SOL    HW276699  13.801  12.751   0.280
58268SOL     OW76700   4.397   7.836   7.173
58268SOL    HW176701   4.410   7.927   7.148
58268SOL    HW276702   4.439   7.786   7.103
58269SOL     OW76703  12.148   9.054   3.703
58269SOL    HW176704  12.061   9.091   3.713
58269SOL    HW276705  12.133   8.963   3.677
58270SOL     OW76706  12.902  14.036  13.054
58270SOL    HW176707  12.835  13.977  13.087
58270SOL    HW276708  12.856  14.091  12.990
58271SOL     OW76709   1.784   4.989  12.902
58271SOL    HW176710   1.825   5.034  12.828
58271SOL    HW276711   1.767   5.058  12.966
58272SOL     OW76712  12.652   9.920   0.508
58272SOL    HW176713  12.736   9.966   0.501
58272SOL    HW276714  12.637   9.913   0.602
58273SOL     OW76715   0.494  14.313   9.644
58273SOL    HW176716   0.431  14.265   9.698
58273SOL    HW276717   0.532  14.247   9.586
58274SOL     OW76718   9.009  14.511   0.640
58274SOL    HW176719   9.010  14.422   0.604
58274SOL    HW276720   9.026  14.499   0.733
58275SOL     OW76721   6.063  12.535   1.646
58275SOL    HW176722   6.105  12.451   1.667
58275SOL    HW276723   5.981  12.532   1.695
58276SOL     OW76724   9.430   5.347   6.778
58276SOL    HW176725   9.405   5.290   6.705
58276SOL    HW276726   9.447   5.432   6.738
58277SOL     OW76727  13.809   4.131   4.474
58277SOL    HW176728  13.843   4.211   4.435
58277SOL    HW276729  13.839   4.134   4.565
58278SOL     OW76730   0.378  13.655   2.620
58278SOL    HW176731   0.424  13.595   2.561
58278SOL    HW276732   0.285  13.636   2.606
58279SOL     OW76733   0.646   8.698  13.568
58279SOL    HW176734   0.725   8.725  13.615
58279SOL    HW276735   0.641   8.603  13.583
58280SOL     OW76736   6.499   0.314   9.154
58280SOL    HW176737   6.507   0.297   9.060
58280SOL    HW276738   6.520   0.230   9.195
58281SOL     OW76739   5.727   3.667   6.979
58281SOL    HW176740   5.805   3.618   6.951
58281SOL    HW276741   5.747   3.758   6.956
58282SOL     OW76742   4.695   4.205   7.037
58282SOL    HW176743   4.647   4.208   7.120
58282SOL    HW276744   4.626   4.196   6.970
58283SOL     OW76745  13.082  10.555  10.603
58283SOL    HW176746  13.077  10.463  10.630
58283SOL    HW276747  13.007  10.596  10.645
58284SOL     OW76748   3.972   6.719   5.403
58284SOL    HW176749   3.946   6.811   5.396
58284SOL    HW276750   4.066   6.722   5.421
58285SOL     OW76751   9.337   7.528  13.347
58285SOL    HW176752   9.371   7.580  13.274
58285SOL    HW276753   9.242   7.528  13.333
58286SOL     OW76754  10.110   8.320   8.045
58286SOL    HW176755  10.046   8.301   8.113
58286SOL    HW276756  10.165   8.389   8.082
58287SOL     OW76757   5.086   1.417   7.404
58287SOL    HW176758   5.043   1.459   7.479
58287SOL    HW276759   5.106   1.329   7.435
58288SOL     OW76760   6.930   9.836   6.906
58288SOL    HW176761   6.997   9.819   6.973
58288SOL    HW276762   6.873   9.902   6.947
58289SOL     OW76763  10.736  14.265   2.275
58289SOL    HW176764  10.708  14.189   2.223
58289SOL    HW276765  10.731  14.235   2.366
58290SOL     OW76766   1.418   8.576  13.521
58290SOL    HW176767   1.486   8.640  13.542
58290SOL    HW276768   1.378   8.555  13.606
58291SOL     OW76769   4.262  12.058   4.258
58291SOL    HW176770   4.262  12.148   4.290
58291SOL    HW276771   4.330  12.057   4.190
58292SOL     OW76772   6.682   7.017   0.378
58292SOL    HW176773   6.632   6.999   0.458
58292SOL    HW276774   6.634   6.970   0.309
58293SOL     OW76775   9.642  10.654   2.152
58293SOL    HW176776   9.606  10.571   2.181
58293SOL    HW276777   9.737  10.643   2.157
58294SOL     OW76778  12.822   7.067  11.419
58294SOL    HW176779  12.765   6.999  11.456
58294SOL    HW276780  12.873   7.098  11.494
58295SOL     OW76781   3.360  10.595   3.158
58295SOL    HW176782   3.399  10.578   3.244
58295SOL    HW276783   3.340  10.688   3.159
58296SOL     OW76784   9.772  12.567   6.811
58296SOL    HW176785   9.752  12.597   6.899
58296SOL    HW276786   9.727  12.629   6.753
58297SOL     OW76787  10.849  10.358   1.333
58297SOL    HW176788  10.837  10.453   1.336
58297SOL    HW276789  10.935  10.347   1.291
58298SOL     OW76790  13.871  11.164  14.313
58298SOL    HW176791  13.814  11.236  14.285
58298SOL    HW276792  13.815  11.087  14.313
58299SOL     OW76793   3.461  13.340   9.875
58299SOL    HW176794   3.545  13.299   9.893
58299SOL    HW276795   3.409  13.324   9.953
58300SOL     OW76796   5.838   1.781   0.989
58300SOL    HW176797   5.755   1.803   0.948
58300SOL    HW276798   5.871   1.864   1.024
58301SOL     OW76799   9.997   1.555   3.296
58301SOL    HW176800   9.935   1.503   3.348
58301SOL    HW276801  10.015   1.501   3.219
58302SOL     OW76802   0.092   1.003   2.704
58302SOL    HW176803   0.138   1.057   2.768
58302SOL    HW276804  14.882   1.011   2.728
58303SOL     OW76805  14.714  12.456   3.304
58303SOL    HW176806  14.723  12.517   3.377
58303SOL    HW276807  14.623  12.467   3.275
58304SOL     OW76808   8.193   9.422  14.369
58304SOL    HW176809   8.143   9.499  14.341
58304SOL    HW276810   8.170   9.354  14.305
58305SOL     OW76811   2.895   9.058  11.609
58305SOL    HW176812   2.860   9.122  11.671
58305SOL    HW276813   2.818   9.014  11.574
58306SOL     OW76814   3.882   2.152   7.090
58306SOL    HW176815   3.910   2.065   7.117
58306SOL    HW276816   3.879   2.148   6.994
58307SOL     OW76817   1.818  11.790   6.501
58307SOL    HW176818   1.751  11.755   6.560
58307SOL    HW276819   1.792  11.759   6.414
58308SOL     OW76820   6.868   1.697  14.763
58308SOL    HW176821   6.956   1.659  14.760
58308SOL    HW276822   6.882   1.790  14.778
58309SOL     OW76823  13.823   0.818   5.298
58309SOL    HW176824  13.799   0.833   5.206
58309SOL    HW276825  13.819   0.723   5.309
58310SOL     OW76826  13.053   9.477   8.969
58310SOL    HW176827  13.142   9.452   8.942
58310SOL    HW276828  12.995   9.427   8.912
58311SOL     OW76829   3.166   6.930   8.734
58311SOL    HW176830   3.128   6.847   8.763
58311SOL    HW276831   3.151   6.932   8.640
58312SOL     OW76832   5.373   6.450   2.508
58312SOL    HW176833   5.317   6.506   2.455
58312SOL    HW276834   5.417   6.393   2.445
58313SOL     OW76835  13.040   7.804   8.705
58313SOL    HW176836  12.974   7.758   8.654
58313SOL    HW276837  13.037   7.764   8.792
58314SOL     OW76838   8.999   4.979   6.141
58314SOL    HW176839   8.974   4.987   6.233
58314SOL    HW276840   9.070   5.042   6.129
58315SOL     OW76841   2.084  14.227  14.010
58315SOL    HW176842   2.005  14.219  14.063
58315SOL    HW276843   2.070  14.306  13.958
58316SOL     OW76844  10.945  13.851   0.732
58316SOL    HW176845  11.029  13.815   0.703
58316SOL    HW276846  10.880  13.810   0.676
58317SOL     OW76847   4.324  10.981  11.243
58317SOL    HW176848   4.415  10.991  11.216
58317SOL    HW276849   4.319  11.024  11.329
58318SOL     OW76850   8.239   7.770  11.902
58318SOL    HW176851   8.297   7.770  11.826
58318SOL    HW276852   8.158   7.731  11.870
58319SOL     OW76853   7.974   0.799   3.890
58319SOL    HW176854   7.980   0.895   3.892
58319SOL    HW276855   8.023   0.771   3.968
58320SOL     OW76856   4.943  10.416  12.418
58320SOL    HW176857   5.023  10.459  12.388
58320SOL    HW276858   4.935  10.339  12.361
58321SOL     OW76859   0.209  10.505   8.045
58321SOL    HW176860   0.161  10.468   7.971
58321SOL    HW276861   0.282  10.444   8.059
58322SOL     OW76862   1.762  10.166   6.320
58322SOL    HW176863   1.832  10.146   6.258
58322SOL    HW276864   1.686  10.118   6.286
58323SOL     OW76865   3.976   4.747   9.811
58323SOL    HW176866   3.936   4.684   9.751
58323SOL    HW276867   4.060   4.709   9.835
58324SOL     OW76868  10.830   3.484  13.038
58324SOL    HW176869  10.735   3.476  13.037
58324SOL    HW276870  10.853   3.521  12.953
58325SOL     OW76871   4.774  14.106   8.939
58325SOL    HW176872   4.814  14.173   8.883
58325SOL    HW276873   4.848  14.071   8.990
58326SOL     OW76874  11.552   3.330   6.953
58326SOL    HW176875  11.591   3.387   7.019
58326SOL    HW276876  11.473   3.295   6.995
58327SOL     OW76877   0.562   3.780   1.460
58327SOL    HW176878   0.585   3.870   1.485
58327SOL    HW276879   0.619   3.725   1.515
58328SOL     OW76880   5.994   7.925   0.999
58328SOL    HW176881   6.042   7.988   1.053
58328SOL    HW276882   5.910   7.968   0.982
58329SOL     OW76883  10.572   5.772  12.491
58329SOL    HW176884  10.522   5.730  12.561
58329SOL    HW276885  10.536   5.861  12.486
58330SOL     OW76886   9.275   2.843   3.231
58330SOL    HW176887   9.267   2.938   3.221
58330SOL    HW276888   9.314   2.814   3.149
58331SOL     OW76889  12.056   8.382  12.464
58331SOL    HW176890  12.131   8.406  12.409
58331SOL    HW276891  11.995   8.456  12.455
58332SOL     OW76892   1.930   9.869   6.381
58332SOL    HW176893   1.909   9.938   6.443
58332SOL    HW276894   2.010   9.899   6.337
58333SOL     OW76895  12.836   7.162   5.796
58333SOL    HW176896  12.885   7.210   5.863
58333SOL    HW276897  12.884   7.179   5.715
58334SOL     OW76898  11.306   0.830   6.807
58334SOL    HW176899  11.242   0.765   6.779
58334SOL    HW276900  11.277   0.856   6.894
58335SOL     OW76901  14.732   3.861   6.819
58335SOL    HW176902  14.810   3.871   6.765
58335SOL    HW276903  14.765   3.838   6.906
58336SOL     OW76904  12.445  14.819  13.574
58336SOL    HW176905  12.403  14.744  13.616
58336SOL    HW276906  12.377   0.004  13.570
58337SOL     OW76907   3.270  10.637   4.303
58337SOL    HW176908   3.268  10.579   4.379
58337SOL    HW276909   3.362  10.657   4.290
58338SOL     OW76910  13.697   3.452  11.077
58338SOL    HW176911  13.650   3.411  11.004
58338SOL    HW276912  13.787   3.421  11.068
58339SOL     OW76913   6.393   4.381  10.576
58339SOL    HW176914   6.330   4.315  10.547
58339SOL    HW276915   6.464   4.376  10.511
58340SOL     OW76916   2.378   7.837  11.969
58340SOL    HW176917   2.453   7.865  11.916
58340SOL    HW276918   2.340   7.918  12.002
58341SOL     OW76919   4.969   9.146   7.874
58341SOL    HW176920   4.976   9.053   7.896
58341SOL    HW276921   5.050   9.165   7.827
58342SOL     OW76922  14.499   0.120  14.116
58342SOL    HW176923  14.574   0.179  14.115
58342SOL    HW276924  14.493   0.088  14.206
58343SOL     OW76925  10.731   0.422   1.461
58343SOL    HW176926  10.715   0.477   1.538
58343SOL    HW276927  10.670   0.455   1.395
58344SOL     OW76928   6.014   7.428  11.762
58344SOL    HW176929   6.033   7.482  11.838
58344SOL    HW276930   5.920   7.438  11.748
58345SOL     OW76931   9.207  10.238   7.565
58345SOL    HW176932   9.199  10.236   7.469
58345SOL    HW276933   9.143  10.174   7.596
58346SOL     OW76934   0.497   2.492  12.119
58346SOL    HW176935   0.408   2.462  12.137
58346SOL    HW276936   0.510   2.478  12.025
58347SOL     OW76937   8.503   2.500  12.234
58347SOL    HW176938   8.458   2.475  12.314
58347SOL    HW276939   8.592   2.520  12.262
58348SOL     OW76940  13.782   6.638   1.394
58348SOL    HW176941  13.687   6.652   1.399
58348SOL    HW276942  13.794   6.590   1.312
58349SOL     OW76943   0.909   3.849   9.373
58349SOL    HW176944   0.897   3.756   9.392
58349SOL    HW276945   0.920   3.890   9.458
58350SOL     OW76946   9.200   8.073   6.765
58350SOL    HW176947   9.146   8.082   6.844
58350SOL    HW276948   9.138   8.058   6.695
58351SOL     OW76949   6.190   7.080  14.554
58351SOL    HW176950   6.134   7.122  14.489
58351SOL    HW276951   6.136   7.077  14.633
58352SOL     OW76952  10.876   6.237   3.383
58352SOL    HW176953  10.856   6.180   3.457
58352SOL    HW276954  10.951   6.195   3.340
58353SOL     OW76955   6.841   4.722  11.352
58353SOL    HW176956   6.795   4.710  11.269
58353SOL    HW276957   6.910   4.785  11.333
58354SOL     OW76958  13.663   8.765   8.976
58354SOL    HW176959  13.627   8.809   8.899
58354SOL    HW276960  13.674   8.834   9.040
58355SOL     OW76961  12.852   1.675   2.126
58355SOL    HW176962  12.918   1.612   2.155
58355SOL    HW276963  12.899   1.732   2.064
58356SOL     OW76964  12.001  14.781   5.536
58356SOL    HW176965  11.955  14.697   5.536
58356SOL    HW276966  11.964  14.829   5.610
58357SOL     OW76967  11.453   7.541   3.691
58357SOL    HW176968  11.443   7.473   3.757
58357SOL    HW276969  11.506   7.609   3.732
58358SOL     OW76970   1.336  13.750   0.827
58358SOL    HW176971   1.266  13.811   0.805
58358SOL    HW276972   1.296  13.691   0.891
58359SOL     OW76973   3.923   1.331   6.966
58359SOL    HW176974   3.837   1.290   6.973
58359SOL    HW276975   3.905   1.425   6.973
58360SOL     OW76976  11.920  11.974   8.799
58360SOL    HW176977  11.999  11.962   8.852
58360SOL    HW276978  11.953  12.009   8.716
58361SOL     OW76979   3.550   1.468  12.559
58361SOL    HW176980   3.507   1.416  12.491
58361SOL    HW276981   3.613   1.522  12.511
58362SOL     OW76982  11.675   4.371   2.914
58362SOL    HW176983  11.718   4.301   2.962
58362SOL    HW276984  11.613   4.408   2.977
58363SOL     OW76985   1.909   3.836  13.837
58363SOL    HW176986   1.894   3.813  13.929
58363SOL    HW276987   1.837   3.794  13.791
58364SOL     OW76988  11.679   3.743   6.126
58364SOL    HW176989  11.644   3.815   6.178
58364SOL    HW276990  11.773   3.761   6.122
58365SOL     OW76991   1.717   3.001   5.184
58365SOL    HW176992   1.640   3.027   5.133
58365SOL    HW276993   1.787   3.057   5.151
58366SOL     OW76994   1.516  12.584   9.231
58366SOL    HW176995   1.424  12.563   9.220
58366SOL    HW276996   1.553  12.509   9.278
58367SOL     OW76997   7.516   4.567   4.161
58367SOL    HW176998   7.501   4.646   4.108
58367SOL    HW276999   7.609   4.549   4.150
58368SOL     OW77000  10.763   3.261  12.108
58368SOL    HW177001  10.827   3.190  12.112
58368SOL    HW277002  10.815   3.338  12.086
58369SOL     OW77003   6.613  13.863  11.878
58369SOL    HW177004   6.675  13.913  11.826
58369SOL    HW277005   6.631  13.771  11.855
58370SOL     OW77006   7.007   9.287   8.762
58370SOL    HW177007   7.022   9.370   8.718
58370SOL    HW277008   7.094   9.252   8.779
58371SOL     OW77009   6.797   1.314   7.664
58371SOL    HW177010   6.718   1.367   7.672
58371SOL    HW277011   6.792   1.276   7.576
58372SOL     OW77012   0.267  14.844   0.425
58372SOL    HW177013   0.197  14.826   0.363
58372SOL    HW277014   0.314  14.761   0.433
58373SOL     OW77015   6.051   1.622   1.835
58373SOL    HW177016   5.971   1.663   1.870
58373SOL    HW277017   6.106   1.695   1.809
58374SOL     OW77018   0.619  11.153   8.694
58374SOL    HW177019   0.581  11.109   8.771
58374SOL    HW277020   0.544  11.179   8.641
58375SOL     OW77021   7.355  14.808  12.672
58375SOL    HW177022   7.340  14.715  12.661
58375SOL    HW277023   7.276  14.841  12.715
58376SOL     OW77024   4.132   7.442   6.146
58376SOL    HW177025   4.088   7.484   6.072
58376SOL    HW277026   4.061   7.409   6.201
58377SOL     OW77027   5.636   9.194   3.830
58377SOL    HW177028   5.557   9.145   3.853
58377SOL    HW277029   5.702   9.127   3.814
58378SOL     OW77030   4.256   4.851  14.359
58378SOL    HW177031   4.292   4.939  14.357
58378SOL    HW277032   4.295   4.807  14.283
58379SOL     OW77033   6.009  13.319   2.957
58379SOL    HW177034   5.922  13.295   2.987
58379SOL    HW277035   5.996  13.401   2.908
58380SOL     OW77036  11.278   3.505   2.238
58380SOL    HW177037  11.358   3.556   2.226
58380SOL    HW277038  11.286   3.466   2.325
58381SOL     OW77039   6.581   3.530  11.939
58381SOL    HW177040   6.566   3.472  11.864
58381SOL    HW277041   6.665   3.571  11.921
58382SOL     OW77042   3.208  10.086   3.574
58382SOL    HW177043   3.193  10.141   3.496
58382SOL    HW277044   3.300  10.101   3.596
58383SOL     OW77045  13.371  10.184   4.870
58383SOL    HW177046  13.295  10.177   4.927
58383SOL    HW277047  13.376  10.099   4.826
58384SOL     OW77048   0.150   7.062   7.226
58384SOL    HW177049   0.092   7.111   7.284
58384SOL    HW277050   0.196   7.130   7.176
58385SOL     OW77051   1.645   4.858   2.375
58385SOL    HW177052   1.736   4.845   2.402
58385SOL    HW277053   1.605   4.906   2.447
58386SOL     OW77054   1.748   3.263   1.446
58386SOL    HW177055   1.770   3.307   1.528
58386SOL    HW277056   1.760   3.330   1.378
58387SOL     OW77057   6.924   1.110   1.417
58387SOL    HW177058   6.934   1.157   1.335
58387SOL    HW277059   6.937   1.018   1.394
58388SOL     OW77060  13.722   5.638   9.965
58388SOL    HW177061  13.637   5.649   9.922
58388SOL    HW277062  13.715   5.554  10.011
58389SOL     OW77063  12.803  13.004  11.721
58389SOL    HW177064  12.752  13.077  11.756
58389SOL    HW277065  12.738  12.947  11.679
58390SOL     OW77066   4.547  12.549  14.493
58390SOL    HW177067   4.538  12.619  14.429
58390SOL    HW277068   4.641  12.539  14.506
58391SOL     OW77069  12.555  14.125   2.795
58391SOL    HW177070  12.532  14.136   2.888
58391SOL    HW277071  12.473  14.143   2.748
58392SOL     OW77072   2.228   2.174   0.048
58392SOL    HW177073   2.192   2.170   0.137
58392SOL    HW277074   2.152   2.170  14.873
58393SOL     OW77075   2.190   4.515   2.846
58393SOL    HW177076   2.249   4.584   2.875
58393SOL    HW277077   2.248   4.443   2.821
58394SOL     OW77078  14.639   1.781   5.542
58394SOL    HW177079  14.695   1.822   5.609
58394SOL    HW277080  14.627   1.691   5.573
58395SOL     OW77081   9.658   7.106   7.874
58395SOL    HW177082   9.656   7.032   7.935
58395SOL    HW277083   9.595   7.168   7.909
58396SOL     OW77084   0.543   9.575   7.768
58396SOL    HW177085   0.601   9.643   7.733
58396SOL    HW277086   0.538   9.510   7.697
58397SOL     OW77087   8.180  11.157   6.778
58397SOL    HW177088   8.140  11.095   6.840
58397SOL    HW277089   8.274  11.148   6.793
58398SOL     OW77090  12.872   9.932   3.434
58398SOL    HW177091  12.840   9.904   3.520
58398SOL    HW277092  12.805   9.900   3.372
58399SOL     OW77093   5.334   5.705  11.810
58399SOL    HW177094   5.376   5.781  11.770
58399SOL    HW277095   5.271   5.742  11.872
58400SOL     OW77096   5.837   8.843   0.433
58400SOL    HW177097   5.751   8.801   0.433
58400SOL    HW277098   5.830   8.913   0.369
58401SOL     OW77099   7.578   4.005   2.184
58401SOL    HW177100   7.499   4.053   2.159
58401SOL    HW277101   7.649   4.047   2.136
58402SOL     OW77102   5.113   3.199  12.374
58402SOL    HW177103   5.074   3.214  12.287
58402SOL    HW277104   5.202   3.169  12.355
58403SOL     OW77105   6.721   0.307  12.842
58403SOL    HW177106   6.651   0.363  12.807
58403SOL    HW277107   6.727   0.235  12.780
58404SOL     OW77108   3.591   3.000   6.880
58404SOL    HW177109   3.540   3.066   6.833
58404SOL    HW277110   3.656   3.050   6.929
58405SOL     OW77111  10.593   1.976  10.393
58405SOL    HW177112  10.598   1.967  10.298
58405SOL    HW277113  10.510   1.934  10.417
58406SOL     OW77114  10.545   7.433  11.319
58406SOL    HW177115  10.546   7.477  11.404
58406SOL    HW277116  10.634   7.401  11.307
58407SOL     OW77117   9.439   3.959   9.370
58407SOL    HW177118   9.522   3.966   9.416
58407SOL    HW277119   9.376   3.936   9.438
58408SOL     OW77120  10.784   5.369   4.340
58408SOL    HW177121  10.822   5.444   4.386
58408SOL    HW277122  10.849   5.345   4.274
58409SOL     OW77123   8.172   6.591   3.976
58409SOL    HW177124   8.239   6.550   3.921
58409SOL    HW277125   8.159   6.677   3.937
58410SOL     OW77126   6.868  13.666   7.720
58410SOL    HW177127   6.852  13.592   7.660
58410SOL    HW277128   6.785  13.676   7.767
58411SOL     OW77129   6.537   7.570   0.385
58411SOL    HW177130   6.577   7.487   0.359
58411SOL    HW277131   6.517   7.559   0.478
58412SOL     OW77132   6.583   0.964   7.610
58412SOL    HW177133   6.593   0.950   7.515
58412SOL    HW277134   6.666   0.937   7.647
58413SOL     OW77135   3.989  10.068   5.404
58413SOL    HW177136   3.975  10.039   5.314
58413SOL    HW277137   3.965   9.992   5.457
58414SOL     OW77138   0.165   5.354   2.283
58414SOL    HW177139   0.101   5.410   2.328
58414SOL    HW277140   0.129   5.342   2.195
58415SOL     OW77141  10.497  12.790  12.859
58415SOL    HW177142  10.581  12.754  12.831
58415SOL    HW277143  10.483  12.867  12.804
58416SOL     OW77144   7.080   6.660   2.289
58416SOL    HW177145   7.118   6.597   2.349
58416SOL    HW277146   7.131   6.740   2.303
58417SOL     OW77147   3.522   8.438   1.670
58417SOL    HW177148   3.492   8.428   1.579
58417SOL    HW277149   3.448   8.481   1.714
58418SOL     OW77150   7.920   7.797   7.426
58418SOL    HW177151   7.994   7.737   7.415
58418SOL    HW277152   7.844   7.747   7.394
58419SOL     OW77153  11.566   9.305   6.736
58419SOL    HW177154  11.594   9.214   6.745
58419SOL    HW277155  11.645   9.353   6.712
58420SOL     OW77156   1.518   8.866   2.544
58420SOL    HW177157   1.498   8.957   2.523
58420SOL    HW277158   1.585   8.870   2.612
58421SOL     OW77159   3.361  13.125   0.767
58421SOL    HW177160   3.271  13.095   0.754
58421SOL    HW277161   3.360  13.217   0.739
58422SOL     OW77162  12.389  14.771  13.021
58422SOL    HW177163  12.394  14.681  12.991
58422SOL    HW277164  12.297  14.796  13.009
58423SOL     OW77165   5.365   5.152   8.545
58423SOL    HW177166   5.285   5.110   8.576
58423SOL    HW277167   5.346   5.178   8.455
58424SOL     OW77168   9.750  12.008   4.717
58424SOL    HW177169   9.695  11.983   4.791
58424SOL    HW277170   9.767  11.926   4.670
58425SOL     OW77171   8.520   5.974   9.818
58425SOL    HW177172   8.526   6.063   9.851
58425SOL    HW277173   8.491   5.922   9.893
58426SOL     OW77174   9.776   5.354  14.038
58426SOL    HW177175   9.830   5.315  13.969
58426SOL    HW277176   9.765   5.445  14.011
58427SOL     OW77177   4.994   0.493   9.817
58427SOL    HW177178   4.905   0.499   9.783
58427SOL    HW277179   4.983   0.470   9.909
58428SOL     OW77180   5.410   4.913  11.194
58428SOL    HW177181   5.389   4.820  11.190
58428SOL    HW277182   5.465   4.929  11.117
58429SOL     OW77183  13.453   9.330   9.890
58429SOL    HW177184  13.471   9.249   9.842
58429SOL    HW277185  13.414   9.388   9.824
58430SOL     OW77186  13.068   4.208   0.943
58430SOL    HW177187  12.985   4.227   0.899
58430SOL    HW277188  13.126   4.178   0.873
58431SOL     OW77189  11.229   8.196   3.858
58431SOL    HW177190  11.144   8.179   3.901
58431SOL    HW277191  11.211   8.185   3.765
58432SOL     OW77192   1.800   6.187  14.375
58432SOL    HW177193   1.710   6.161  14.357
58432SOL    HW277194   1.807   6.276  14.340
58433SOL     OW77195  11.713  12.216  14.756
58433SOL    HW177196  11.767  12.138  14.758
58433SOL    HW277197  11.706  12.243  14.848
58434SOL     OW77198   4.808   1.930   6.709
58434SOL    HW177199   4.803   2.012   6.659
58434SOL    HW277200   4.862   1.873   6.654
58435SOL     OW77201  14.411   6.789   2.792
58435SOL    HW177202  14.354   6.860   2.764
58435SOL    HW277203  14.467   6.772   2.716
58436SOL     OW77204   7.879  14.411   2.452
58436SOL    HW177205   7.839  14.471   2.388
58436SOL    HW277206   7.805  14.363   2.489
58437SOL     OW77207   3.558   7.263  13.890
58437SOL    HW177208   3.482   7.207  13.908
58437SOL    HW277209   3.553   7.280  13.796
58438SOL     OW77210   7.927   5.935  10.204
58438SOL    HW177211   7.941   5.841  10.201
58438SOL    HW277212   7.963   5.962  10.289
58439SOL     OW77213   8.989  12.613   6.568
58439SOL    HW177214   8.965  12.706   6.576
58439SOL    HW277215   8.994  12.598   6.474
58440SOL     OW77216  14.487   1.770   1.079
58440SOL    HW177217  14.402   1.806   1.053
58440SOL    HW277218  14.523   1.835   1.140
58441SOL     OW77219  13.644   7.273  10.632
58441SOL    HW177220  13.687   7.355  10.655
58441SOL    HW277221  13.566   7.271  10.688
58442SOL     OW77222  13.011   3.670  14.666
58442SOL    HW177223  13.100   3.690  14.638
58442SOL    HW277224  12.991   3.587  14.624
58443SOL     OW77225  14.086  10.194   6.072
58443SOL    HW177226  14.142  10.187   5.994
58443SOL    HW277227  14.116  10.273   6.117
58444SOL     OW77228   4.873  13.327   7.916
58444SOL    HW177229   4.914  13.413   7.911
58444SOL    HW277230   4.831  13.315   7.831
58445SOL     OW77231   4.849  12.592  13.431
58445SOL    HW177232   4.883  12.522  13.486
58445SOL    HW277233   4.899  12.670  13.458
58446SOL     OW77234   4.733   3.529   6.056
58446SOL    HW177235   4.723   3.576   6.139
58446SOL    HW277236   4.812   3.477   6.067
58447SOL     OW77237  10.922   5.558  14.610
58447SOL    HW177238  10.919   5.635  14.667
58447SOL    HW277239  10.913   5.484  14.670
58448SOL     OW77240   8.598  13.946  11.530
58448SOL    HW177241   8.607  13.948  11.625
58448SOL    HW277242   8.590  13.854  11.508
58449SOL     OW77243   2.201   3.739   8.596
58449SOL    HW177244   2.251   3.753   8.516
58449SOL    HW277245   2.205   3.645   8.611
58450SOL     OW77246   2.998  11.690   7.561
58450SOL    HW177247   2.969  11.732   7.642
58450SOL    HW277248   3.091  11.711   7.554
58451SOL     OW77249   3.253   2.051   5.796
58451SOL    HW177250   3.235   2.124   5.736
58451SOL    HW277251   3.348   2.053   5.809
58452SOL     OW77252   2.200  14.137   3.238
58452SOL    HW177253   2.113  14.106   3.217
58452SOL    HW277254   2.240  14.066   3.289
58453SOL     OW77255  12.189  10.943   6.191
58453SOL    HW177256  12.277  10.968   6.218
58453SOL    HW277257  12.201  10.863   6.140
58454SOL     OW77258   1.998   6.525   2.488
58454SOL    HW177259   2.021   6.616   2.504
58454SOL    HW277260   2.083   6.480   2.480
58455SOL     OW77261   5.554   1.089   5.236
58455SOL    HW177262   5.647   1.078   5.257
58455SOL    HW277263   5.548   1.062   5.144
58456SOL     OW77264   2.301   1.286   1.913
58456SOL    HW177265   2.278   1.214   1.854
58456SOL    HW277266   2.225   1.345   1.909
58457SOL     OW77267   2.459  11.458   8.517
58457SOL    HW177268   2.430  11.366   8.516
58457SOL    HW277269   2.554  11.452   8.521
58458SOL     OW77270   9.048   1.826   1.465
58458SOL    HW177271   9.026   1.868   1.382
58458SOL    HW277272   9.055   1.898   1.527
58459SOL     OW77273  14.219  12.797   6.511
58459SOL    HW177274  14.131  12.835   6.502
58459SOL    HW277275  14.215  12.716   6.460
58460SOL     OW77276  13.269  10.828   6.798
58460SOL    HW177277  13.286  10.845   6.891
58460SOL    HW277278  13.228  10.908   6.765
58461SOL     OW77279   0.031   9.644  11.184
58461SOL    HW177280   0.082   9.564  11.195
58461SOL    HW277281  14.881   9.640  11.094
58462SOL     OW77282   6.244   2.324  12.666
58462SOL    HW177283   6.246   2.239  12.623
58462SOL    HW277284   6.210   2.384  12.600
58463SOL     OW77285  11.347   5.784   5.057
58463SOL    HW177286  11.376   5.728   5.129
58463SOL    HW277287  11.387   5.745   4.979
58464SOL     OW77288   9.259  11.080  14.418
58464SOL    HW177289   9.300  11.165  14.436
58464SOL    HW277290   9.294  11.055  14.332
58465SOL     OW77291   2.692   4.600  14.235
58465SOL    HW177292   2.775   4.606  14.282
58465SOL    HW277293   2.626   4.607  14.304
58466SOL     OW77294   5.174   8.600   8.903
58466SOL    HW177295   5.244   8.664   8.916
58466SOL    HW277296   5.182   8.540   8.977
58467SOL     OW77297   6.813  14.634   0.539
58467SOL    HW177298   6.772  14.691   0.475
58467SOL    HW277299   6.781  14.666   0.624
58468SOL     OW77300  11.365  11.643   4.697
58468SOL    HW177301  11.355  11.573   4.762
58468SOL    HW277302  11.424  11.706   4.738
58469SOL     OW77303  11.885  10.572   9.464
58469SOL    HW177304  11.951  10.609   9.523
58469SOL    HW277305  11.873  10.482   9.496
58470SOL     OW77306   1.385   9.651  12.642
58470SOL    HW177307   1.316   9.693  12.693
58470SOL    HW277308   1.440   9.608  12.707
58471SOL     OW77309  14.829   9.031   0.902
58471SOL    HW177310  14.818   9.095   0.831
58471SOL    HW277311  14.778   8.955   0.874
58472SOL     OW77312   9.852  12.443   7.500
58472SOL    HW177313   9.911  12.384   7.546
58472SOL    HW277314   9.817  12.500   7.569
58473SOL     OW77315   4.503   5.609   1.680
58473SOL    HW177316   4.578   5.579   1.627
58473SOL    HW277317   4.520   5.702   1.695
58474SOL     OW77318  10.103  12.089   6.950
58474SOL    HW177319  10.068  12.164   6.999
58474SOL    HW277320  10.170  12.127   6.894
58475SOL     OW77321   8.380   5.348   2.458
58475SOL    HW177322   8.439   5.422   2.444
58475SOL    HW277323   8.301   5.372   2.410
58476SOL     OW77324  10.177   8.486   5.585
58476SOL    HW177325  10.084   8.486   5.563
58476SOL    HW277326  10.187   8.419   5.652
58477SOL     OW77327   1.360   8.316   0.269
58477SOL    HW177328   1.385   8.283   0.182
58477SOL    HW277329   1.265   8.320   0.266
58478SOL     OW77330   0.747   3.869   6.592
58478SOL    HW177331   0.683   3.892   6.524
58478SOL    HW277332   0.729   3.929   6.664
58479SOL     OW77333  14.474  13.616   0.735
58479SOL    HW177334  14.536  13.673   0.690
58479SOL    HW277335  14.481  13.532   0.691
58480SOL     OW77336  14.200   0.682   5.547
58480SOL    HW177337  14.179   0.597   5.510
58480SOL    HW277338  14.117   0.729   5.551
58481SOL     OW77339   6.500   2.121  11.223
58481SOL    HW177340   6.473   2.072  11.301
58481SOL    HW277341   6.519   2.209  11.256
58482SOL     OW77342   3.356   0.495   8.152
58482SOL    HW177343   3.419   0.565   8.142
58482SOL    HW277344   3.271   0.535   8.131
58483SOL     OW77345   1.580   0.292   6.011
58483SOL    HW177346   1.583   0.367   5.951
58483SOL    HW277347   1.609   0.328   6.095
58484SOL     OW77348   4.001   9.974  12.693
58484SOL    HW177349   3.932  10.015  12.643
58484SOL    HW277350   4.067  10.042  12.706
58485SOL     OW77351   1.457  12.532   8.141
58485SOL    HW177352   1.371  12.491   8.126
58485SOL    HW277353   1.510  12.503   8.067
58486SOL     OW77354   8.098   9.810  14.020
58486SOL    HW177355   8.132   9.879  14.077
58486SOL    HW277356   8.003   9.820  14.023
58487SOL     OW77357   4.518   2.723   7.785
58487SOL    HW177358   4.595   2.772   7.814
58487SOL    HW277359   4.548   2.632   7.780
58488SOL     OW77360   7.271   9.299   5.686
58488SOL    HW177361   7.186   9.332   5.714
58488SOL    HW277362   7.288   9.345   5.603
58489SOL     OW77363  13.051   3.490   0.147
58489SOL    HW177364  13.019   3.562   0.093
58489SOL    HW277365  12.973   3.459   0.194
58490SOL     OW77366   9.075   9.340   5.202
58490SOL    HW177367   9.010   9.372   5.265
58490SOL    HW277368   9.153   9.393   5.219
58491SOL     OW77369  13.189   9.192  14.018
58491SOL    HW177370  13.119   9.256  14.034
58491SOL    HW277371  13.261   9.245  13.983
58492SOL     OW77372  10.566   4.984   9.161
58492SOL    HW177373  10.609   4.960   9.078
58492SOL    HW277374  10.530   5.071   9.145
58493SOL     OW77375   8.516   6.451   4.903
58493SOL    HW177376   8.568   6.371   4.894
58493SOL    HW277377   8.482   6.467   4.815
58494SOL     OW77378   6.154  11.605   3.234
58494SOL    HW177379   6.193  11.520   3.214
58494SOL    HW277380   6.063  11.586   3.256
58495SOL     OW77381  10.293   9.375   7.406
58495SOL    HW177382  10.207   9.385   7.364
58495SOL    HW277383  10.275   9.326   7.486
58496SOL     OW77384   6.519  14.457   6.476
58496SOL    HW177385   6.440  14.439   6.527
58496SOL    HW277386   6.531  14.551   6.482
58497SOL     OW77387   2.386   4.438   2.598
58497SOL    HW177388   2.361   4.366   2.655
58497SOL    HW277389   2.373   4.405   2.509
58498SOL     OW77390   3.887  14.253   5.310
58498SOL    HW177391   3.807  14.236   5.260
58498SOL    HW277392   3.929  14.326   5.265
58499SOL     OW77393   6.120   2.249   6.820
58499SOL    HW177394   6.028   2.223   6.816
58499SOL    HW277395   6.165   2.174   6.857
58500SOL     OW77396   5.207   2.168  11.246
58500SOL    HW177397   5.210   2.248  11.195
58500SOL    HW277398   5.114   2.145  11.250
58501SOL     OW77399  12.564   8.842  14.559
58501SOL    HW177400  12.536   8.752  14.576
58501SOL    HW277401  12.540   8.890  14.639
58502SOL     OW77402   5.883  12.606   6.525
58502SOL    HW177403   5.806  12.648   6.564
58502SOL    HW277404   5.847  12.531   6.478
58503SOL     OW77405   6.988  12.726  14.278
58503SOL    HW177406   6.986  12.822  14.280
58503SOL    HW277407   6.976  12.704  14.186
58504SOL     OW77408   7.860  10.092  12.270
58504SOL    HW177409   7.893  10.042  12.345
58504SOL    HW277410   7.925  10.161  12.257
58505SOL     OW77411  11.131   5.973  12.328
58505SOL    HW177412  11.081   5.936  12.255
58505SOL    HW277413  11.119   5.910  12.399
58506SOL     OW77414  12.554   8.749   3.588
58506SOL    HW177415  12.573   8.840   3.565
58506SOL    HW277416  12.598   8.735   3.672
58507SOL     OW77417   2.723   1.683  13.635
58507SOL    HW177418   2.640   1.712  13.596
58507SOL    HW277419   2.755   1.759  13.683
58508SOL     OW77420   2.293   3.057   9.379
58508SOL    HW177421   2.283   3.138   9.429
58508SOL    HW277422   2.203   3.025   9.367
58509SOL     OW77423   7.469   5.077   7.275
58509SOL    HW177424   7.512   4.995   7.302
58509SOL    HW277425   7.484   5.081   7.181
58510SOL     OW77426   4.313   3.020  10.786
58510SOL    HW177427   4.305   3.060  10.872
58510SOL    HW277428   4.378   2.951  10.796
58511SOL     OW77429   4.403   1.091  13.250
58511SOL    HW177430   4.455   1.020  13.213
58511SOL    HW277431   4.378   1.060  13.337
58512SOL     OW77432   4.777  14.690   5.348
58512SOL    HW177433   4.749  14.723   5.262
58512SOL    HW277434   4.702  14.707   5.405
58513SOL     OW77435  14.482   9.255   8.427
58513SOL    HW177436  14.446   9.260   8.338
58513SOL    HW277437  14.428   9.189   8.470
58514SOL     OW77438   5.860   4.522   1.710
58514SOL    HW177439   5.918   4.456   1.673
58514SOL    HW277440   5.782   4.519   1.654
58515SOL     OW77441  12.944   8.728   7.938
58515SOL    HW177442  12.908   8.711   8.025
58515SOL    HW277443  12.876   8.697   7.878
58516SOL     OW77444   6.088   8.263   3.685
58516SOL    HW177445   6.150   8.336   3.684
58516SOL    HW277446   6.021   8.288   3.621
58517SOL     OW77447  13.042   9.917   6.225
58517SOL    HW177448  13.095   9.865   6.164
58517SOL    HW277449  13.087  10.001   6.230
58518SOL     OW77450  12.051   5.383  13.623
58518SOL    HW177451  11.996   5.461  13.619
58518SOL    HW277452  11.989   5.311  13.635
58519SOL     OW77453   7.036   8.761   7.762
58519SOL    HW177454   7.086   8.688   7.798
58519SOL    HW277455   6.946   8.729   7.759
58520SOL     OW77456   0.989   1.964  11.542
58520SOL    HW177457   0.938   1.885  11.525
58520SOL    HW277458   1.029   1.949  11.628
58521SOL     OW77459  13.970   0.741  11.449
58521SOL    HW177460  13.985   0.650  11.474
58521SOL    HW277461  13.875   0.753  11.458
58522SOL     OW77462  13.361  11.113   7.827
58522SOL    HW177463  13.418  11.109   7.751
58522SOL    HW277464  13.419  11.131   7.901
58523SOL     OW77465   3.440   8.680  10.332
58523SOL    HW177466   3.521   8.713  10.371
58523SOL    HW277467   3.370   8.714  10.388
58524SOL     OW77468   2.801   7.699   2.370
58524SOL    HW177469   2.749   7.650   2.433
58524SOL    HW277470   2.750   7.778   2.352
58525SOL     OW77471   7.827   2.966   1.942
58525SOL    HW177472   7.805   3.059   1.950
58525SOL    HW277473   7.918   2.961   1.971
58526SOL     OW77474   6.704   9.891   6.691
58526SOL    HW177475   6.765   9.872   6.762
58526SOL    HW277476   6.693   9.986   6.693
58527SOL     OW77477   8.848   7.233  11.560
58527SOL    HW177478   8.759   7.251  11.530
58527SOL    HW277479   8.880   7.318  11.591
58528SOL     OW77480   5.970   3.106   6.138
58528SOL    HW177481   5.951   3.173   6.204
58528SOL    HW277482   6.065   3.094   6.144
58529SOL     OW77483  14.482   9.877   9.773
58529SOL    HW177484  14.565   9.840   9.805
58529SOL    HW277485  14.478   9.850   9.681
58530SOL     OW77486  14.777   5.856  10.011
58530SOL    HW177487  14.753   5.898   9.928
58530SOL    HW277488  14.809   5.770   9.986
58531SOL     OW77489   6.567  14.369  12.312
58531SOL    HW177490   6.591  14.355  12.403
58531SOL    HW277491   6.560  14.464  12.302
58532SOL     OW77492   2.882   6.336  11.306
58532SOL    HW177493   2.920   6.264  11.256
58532SOL    HW277494   2.793   6.344  11.274
58533SOL     OW77495  12.127  12.271  14.114
58533SOL    HW177496  12.181  12.224  14.050
58533SOL    HW277497  12.106  12.206  14.180
58534SOL     OW77498   0.746  11.826   6.122
58534SOL    HW177499   0.671  11.885   6.132
58534SOL    HW277500   0.709  11.738   6.130
58535SOL     OW77501   0.694   0.274   5.799
58535SOL    HW177502   0.652   0.251   5.716
58535SOL    HW277503   0.624   0.267   5.864
58536SOL     OW77504   7.682   8.020   3.217
58536SOL    HW177505   7.753   8.030   3.281
58536SOL    HW277506   7.643   7.935   3.238
58537SOL     OW77507   2.451  12.024  10.716
58537SOL    HW177508   2.485  11.981  10.794
58537SOL    HW277509   2.450  11.954  10.649
58538SOL     OW77510  10.449  13.524   3.579
58538SOL    HW177511  10.531  13.517   3.530
58538SOL    HW277512  10.474  13.503   3.669
58539SOL     OW77513   7.847  10.512  10.768
58539SOL    HW177514   7.824  10.421  10.789
58539SOL    HW277515   7.763  10.554  10.749
58540SOL     OW77516  11.274  11.473   2.122
58540SOL    HW177517  11.271  11.378   2.127
58540SOL    HW277518  11.309  11.492   2.035
58541SOL     OW77519  13.937   7.164   3.958
58541SOL    HW177520  13.892   7.084   3.931
58541SOL    HW277521  13.939   7.159   4.054
58542SOL     OW77522   3.569   3.923   3.579
58542SOL    HW177523   3.637   3.987   3.598
58542SOL    HW277524   3.543   3.889   3.665
58543SOL     OW77525   0.442  12.301   3.238
58543SOL    HW177526   0.481  12.213   3.236
58543SOL    HW277527   0.515  12.360   3.217
58544SOL     OW77528   2.995  14.338   1.540
58544SOL    HW177529   2.987  14.318   1.633
58544SOL    HW277530   2.975  14.431   1.533
58545SOL     OW77531  13.540   4.637  13.629
58545SOL    HW177532  13.463   4.676  13.587
58545SOL    HW277533  13.519   4.637  13.722
58546SOL     OW77534  14.005   9.780  14.439
58546SOL    HW177535  14.085   9.758  14.390
58546SOL    HW277536  14.010   9.725  14.517
58547SOL     OW77537   5.736  13.761   8.450
58547SOL    HW177538   5.659  13.727   8.497
58547SOL    HW277539   5.703  13.782   8.363
58548SOL     OW77540   3.981  10.674   2.504
58548SOL    HW177541   3.963  10.610   2.573
58548SOL    HW277542   4.028  10.745   2.548
58549SOL     OW77543  11.694  12.426   5.680
58549SOL    HW177544  11.607  12.454   5.707
58549SOL    HW277545  11.753  12.490   5.721
58550SOL     OW77546   1.377   9.629   7.982
58550SOL    HW177547   1.370   9.621   7.887
58550SOL    HW277548   1.431   9.555   8.009
58551SOL     OW77549  11.065  14.876   9.545
58551SOL    HW177550  11.159  14.859   9.550
58551SOL    HW277551  11.034  14.817   9.477
58552SOL     OW77552   8.691   4.122   0.811
58552SOL    HW177553   8.778   4.136   0.847
58552SOL    HW277554   8.702   4.049   0.749
58553SOL     OW77555  10.535  11.351   2.912
58553SOL    HW177556  10.490  11.267   2.905
58553SOL    HW277557  10.548  11.380   2.822
58554SOL     OW77558  10.911  10.078   1.138
58554SOL    HW177559  10.887   9.992   1.103
58554SOL    HW277560  10.997  10.096   1.101
58555SOL     OW77561  11.844   5.035  14.261
58555SOL    HW177562  11.821   5.017  14.170
58555SOL    HW277563  11.939   5.039  14.262
58556SOL     OW77564   3.706   2.491   6.931
58556SOL    HW177565   3.707   2.531   7.018
58556SOL    HW277566   3.662   2.555   6.875
58557SOL     OW77567   6.201  13.343  12.841
58557SOL    HW177568   6.139  13.408  12.809
58557SOL    HW277569   6.185  13.338  12.935
58558SOL     OW77570   4.662  14.369  11.313
58558SOL    HW177571   4.647  14.276  11.293
58558SOL    HW277572   4.740  14.369  11.368
58559SOL     OW77573   2.074  10.309   9.771
58559SOL    HW177574   2.046  10.361   9.696
58559SOL    HW277575   2.020  10.340   9.843
58560SOL     OW77576   1.436  10.451   7.953
58560SOL    HW177577   1.354  10.470   7.997
58560SOL    HW277578   1.473  10.377   8.001
58561SOL     OW77579   5.179   3.084  10.462
58561SOL    HW177580   5.198   3.041  10.379
58561SOL    HW277581   5.179   3.014  10.527
58562SOL     OW77582  13.140  10.877   9.352
58562SOL    HW177583  13.086  10.813   9.305
58562SOL    HW277584  13.195  10.824   9.409
58563SOL     OW77585  14.614  14.678   6.322
58563SOL    HW177586  14.667  14.606   6.355
58563SOL    HW277587  14.647  14.755   6.368
58564SOL     OW77588  14.801   6.008   4.142
58564SOL    HW177589  14.754   6.011   4.059
58564SOL    HW277590  14.880   6.061   4.127
58565SOL     OW77591  11.442   1.889   7.652
58565SOL    HW177592  11.458   1.930   7.566
58565SOL    HW277593  11.386   1.951   7.698
58566SOL     OW77594  14.639   6.683   5.776
58566SOL    HW177595  14.621   6.761   5.724
58566SOL    HW277596  14.566   6.624   5.757
58567SOL     OW77597   4.279   7.045   3.201
58567SOL    HW177598   4.217   7.114   3.180
58567SOL    HW277599   4.363   7.077   3.169
58568SOL     OW77600  12.583   7.956  10.053
58568SOL    HW177601  12.650   7.996  10.108
58568SOL    HW277602  12.631   7.921   9.978
58569SOL     OW77603  12.518  14.536  12.488
58569SOL    HW177604  12.591  14.544  12.550
58569SOL    HW277605  12.441  14.563  12.537
58570SOL     OW77606   7.118  11.637   2.998
58570SOL    HW177607   7.062  11.579   2.947
58570SOL    HW277608   7.127  11.594   3.083
58571SOL     OW77609   5.887  12.590   2.959
58571SOL    HW177610   5.806  12.583   3.010
58571SOL    HW277611   5.948  12.634   3.018
58572SOL     OW77612   5.178   0.954   1.501
58572SOL    HW177613   5.126   0.999   1.566
58572SOL    HW277614   5.120   0.945   1.425
58573SOL     OW77615   6.944  11.180   6.469
58573SOL    HW177616   6.892  11.191   6.389
58573SOL    HW277617   6.993  11.099   6.455
58574SOL     OW77618  13.670  14.500  10.980
58574SOL    HW177619  13.599  14.511  10.917
58574SOL    HW277620  13.746  14.541  10.939
58575SOL     OW77621  10.532  13.176  10.877
58575SOL    HW177622  10.438  13.174  10.861
58575SOL    HW277623  10.547  13.104  10.938
58576SOL     OW77624   5.644  12.338  10.883
58576SOL    HW177625   5.601  12.325  10.967
58576SOL    HW277626   5.715  12.274  10.882
58577SOL     OW77627  10.362   2.193   8.445
58577SOL    HW177628  10.442   2.141   8.443
58577SOL    HW277629  10.296   2.137   8.403
58578SOL     OW77630   6.969   8.357   3.827
58578SOL    HW177631   6.968   8.267   3.793
58578SOL    HW277632   6.976   8.347   3.922
58579SOL     OW77633   1.294   5.247   1.264
58579SOL    HW177634   1.200   5.239   1.283
58579SOL    HW277635   1.325   5.311   1.329
58580SOL     OW77636   6.924   1.743  14.085
58580SOL    HW177637   6.967   1.814  14.038
58580SOL    HW277638   6.831   1.762  14.078
58581SOL     OW77639   9.292   9.065   7.979
58581SOL    HW177640   9.337   9.123   8.040
58581SOL    HW277641   9.208   9.107   7.964
58582SOL     OW77642  14.878   0.510   5.434
58582SOL    HW177643   0.064   0.497   5.499
58582SOL    HW277644   0.009   0.600   5.403
58583SOL     OW77645   1.831   1.080   5.605
58583SOL    HW177646   1.861   1.166   5.576
58583SOL    HW277647   1.891   1.055   5.675
58584SOL     OW77648   3.438   8.334   9.254
58584SOL    HW177649   3.440   8.239   9.260
58584SOL    HW277650   3.345   8.355   9.239
58585SOL     OW77651   6.002   0.113   8.949
58585SOL    HW177652   6.058   0.111   8.872
58585SOL    HW277653   5.923   0.068   8.923
58586SOL     OW77654   3.353   2.858   8.324
58586SOL    HW177655   3.426   2.914   8.298
58586SOL    HW277656   3.287   2.919   8.358
58587SOL     OW77657  13.971   4.707  12.773
58587SOL    HW177658  14.025   4.784  12.757
58587SOL    HW277659  13.951   4.711  12.867
58588SOL     OW77660   2.610  13.903   0.843
58588SOL    HW177661   2.691  13.946   0.873
58588SOL    HW277662   2.540  13.955   0.882
58589SOL     OW77663   7.121   2.587  10.064
58589SOL    HW177664   7.100   2.494  10.073
58589SOL    HW277665   7.057   2.620  10.002
58590SOL     OW77666   4.620  10.797   7.402
58590SOL    HW177667   4.697  10.830   7.448
58590SOL    HW277668   4.568  10.874   7.383
58591SOL     OW77669   9.365   4.202   2.179
58591SOL    HW177670   9.426   4.153   2.235
58591SOL    HW277671   9.421   4.257   2.124
58592SOL     OW77672  12.450   4.989   0.145
58592SOL    HW177673  12.402   5.072   0.149
58592SOL    HW277674  12.437   4.958   0.056
58593SOL     OW77675   2.752   7.055   2.743
58593SOL    HW177676   2.806   7.065   2.664
58593SOL    HW277677   2.768   7.136   2.792
58594SOL     OW77678   4.880  10.685   9.547
58594SOL    HW177679   4.960  10.646   9.512
58594SOL    HW277680   4.898  10.698   9.640
58595SOL     OW77681  12.074  10.086  12.949
58595SOL    HW177682  11.993  10.133  12.968
58595SOL    HW277683  12.083  10.090  12.854
58596SOL     OW77684   6.007  12.011   6.540
58596SOL    HW177685   6.004  11.929   6.589
58596SOL    HW277686   6.036  11.986   6.452
58597SOL     OW77687  12.435  10.832   9.778
58597SOL    HW177688  12.509  10.887   9.806
58597SOL    HW277689  12.369  10.844   9.845
58598SOL     OW77690   6.034   1.128   0.184
58598SOL    HW177691   5.972   1.077   0.132
58598SOL    HW277692   6.012   1.219   0.164
58599SOL     OW77693   3.297   9.301   0.845
58599SOL    HW177694   3.274   9.393   0.834
58599SOL    HW277695   3.240   9.271   0.917
58600SOL     OW77696   5.624   0.824   1.127
58600SOL    HW177697   5.593   0.766   1.058
58600SOL    HW277698   5.678   0.890   1.082
58601SOL     OW77699   3.347   0.206  11.679
58601SOL    HW177700   3.259   0.212  11.716
58601SOL    HW277701   3.396   0.277  11.720
58602SOL     OW77702   2.621  11.495   5.716
58602SOL    HW177703   2.623  11.471   5.623
58602SOL    HW277704   2.623  11.591   5.716
58603SOL     OW77705  14.819   5.295   4.344
58603SOL    HW177706  14.759   5.365   4.319
58603SOL    HW277707  14.868   5.331   4.419
58604SOL     OW77708   2.292   1.517   6.976
58604SOL    HW177709   2.266   1.438   6.929
58604SOL    HW277710   2.217   1.535   7.034
58605SOL     OW77711   1.792  11.460   8.564
58605SOL    HW177712   1.718  11.400   8.573
58605SOL    HW277713   1.782  11.499   8.477
58606SOL     OW77714   4.464  11.624   4.997
58606SOL    HW177715   4.462  11.709   5.041
58606SOL    HW277716   4.433  11.562   5.064
58607SOL     OW77717  13.435   3.521  11.224
58607SOL    HW177718  13.483   3.440  11.204
58607SOL    HW277719  13.489   3.590  11.186
58608SOL     OW77720   5.732   9.206  12.586
58608SOL    HW177721   5.743   9.300  12.569
58608SOL    HW277722   5.774   9.163  12.512
58609SOL     OW77723   6.797   5.550   4.747
58609SOL    HW177724   6.777   5.485   4.816
58609SOL    HW277725   6.786   5.634   4.790
58610SOL     OW77726  11.522   1.381   0.910
58610SOL    HW177727  11.458   1.344   0.971
58610SOL    HW277728  11.580   1.434   0.964
58611SOL     OW77729  11.125   7.631   3.692
58611SOL    HW177730  11.202   7.588   3.655
58611SOL    HW277731  11.054   7.608   3.632
58612SOL     OW77732  14.253   8.187  13.461
58612SOL    HW177733  14.210   8.253  13.515
58612SOL    HW277734  14.338   8.224  13.440
58613SOL     OW77735  11.548  13.065   6.620
58613SOL    HW177736  11.614  13.062   6.689
58613SOL    HW277737  11.584  13.010   6.551
58614SOL     OW77738   2.020   8.308  10.461
58614SOL    HW177739   2.041   8.370  10.531
58614SOL    HW277740   1.926   8.292  10.470
58615SOL     OW77741  10.887   2.574   6.097
58615SOL    HW177742  10.948   2.559   6.024
58615SOL    HW277743  10.802   2.587   6.055
58616SOL     OW77744   5.336   8.896   4.157
58616SOL    HW177745   5.372   8.960   4.219
58616SOL    HW277746   5.336   8.813   4.205
58617SOL     OW77747   4.203   2.998   0.118
58617SOL    HW177748   4.269   3.052   0.160
58617SOL    HW277749   4.253   2.930   0.073
58618SOL     OW77750   9.650  14.178   4.683
58618SOL    HW177751   9.596  14.205   4.609
58618SOL    HW277752   9.670  14.259   4.729
58619SOL     OW77753  12.642  10.460   0.086
58619SOL    HW177754  12.626  10.375   0.045
58619SOL    HW277755  12.736  10.474   0.075
58620SOL     OW77756  11.941  13.274  12.029
58620SOL    HW177757  11.931  13.257  12.122
58620SOL    HW277758  12.017  13.332  12.022
58621SOL     OW77759  13.844  11.820   2.079
58621SOL    HW177760  13.930  11.777   2.084
58621SOL    HW277761  13.838  11.851   1.988
58622SOL     OW77762   5.531  14.655  10.057
58622SOL    HW177763   5.573  14.569  10.059
58622SOL    HW277764   5.589  14.709  10.003
58623SOL     OW77765  11.613   1.735   9.684
58623SOL    HW177766  11.622   1.643   9.708
58623SOL    HW277767  11.520   1.745   9.663
58624SOL     OW77768   2.471   2.981   3.053
58624SOL    HW177769   2.471   3.074   3.033
58624SOL    HW277770   2.448   2.938   2.971
58625SOL     OW77771   2.174  13.982   5.011
58625SOL    HW177772   2.216  14.066   5.031
58625SOL    HW277773   2.109  13.971   5.080
58626SOL     OW77774  10.597  12.519  14.779
58626SOL    HW177775  10.537  12.469  14.834
58626SOL    HW277776  10.680  12.518  14.826
58627SOL     OW77777   8.385   3.953   4.409
58627SOL    HW177778   8.361   3.994   4.326
58627SOL    HW277779   8.312   3.973   4.468
58628SOL     OW77780  11.526  12.130   6.920
58628SOL    HW177781  11.472  12.207   6.901
58628SOL    HW277782  11.500  12.066   6.854
58629SOL     OW77783  11.292   0.667  14.292
58629SOL    HW177784  11.256   0.712  14.216
58629SOL    HW277785  11.247   0.705  14.367
58630SOL     OW77786   9.551  12.905   9.687
58630SOL    HW177787   9.609  12.926   9.614
58630SOL    HW277788   9.566  12.812   9.704
58631SOL     OW77789  13.102   7.148  12.922
58631SOL    HW177790  13.028   7.204  12.946
58631SOL    HW277791  13.107   7.084  12.993
58632SOL     OW77792  14.606   0.906   7.076
58632SOL    HW177793  14.562   0.821   7.063
58632SOL    HW277794  14.562   0.944   7.152
58633SOL     OW77795  10.301   0.133   8.063
58633SOL    HW177796  10.292   0.175   8.148
58633SOL    HW277797  10.355   0.194   8.012
58634SOL     OW77798   3.006   0.555   4.603
58634SOL    HW177799   3.041   0.614   4.669
58634SOL    HW277800   3.019   0.601   4.520
58635SOL     OW77801   3.577   5.936  12.191
58635SOL    HW177802   3.655   5.904  12.145
58635SOL    HW277803   3.505   5.885  12.155
58636SOL     OW77804   8.595   5.409   5.452
58636SOL    HW177805   8.591   5.315   5.469
58636SOL    HW277806   8.513   5.429   5.407
58637SOL     OW77807  13.017   2.594   7.525
58637SOL    HW177808  13.097   2.643   7.507
58637SOL    HW277809  13.047   2.515   7.570
58638SOL     OW77810   3.188   4.152   3.013
58638SOL    HW177811   3.096   4.127   3.010
58638SOL    HW277812   3.209   4.157   3.106
58639SOL     OW77813   0.443  13.142   5.853
58639SOL    HW177814   0.482  13.181   5.776
58639SOL    HW277815   0.393  13.068   5.820
58640SOL     OW77816  10.674  13.678  12.713
58640SOL    HW177817  10.726  13.732  12.772
58640SOL    HW277818  10.584  13.705  12.728
58641SOL     OW77819  11.182  12.514   6.086
58641SOL    HW177820  11.201  12.584   6.023
58641SOL    HW277821  11.217  12.435   6.046
58642SOL     OW77822  12.640   7.502  13.305
58642SOL    HW177823  12.596   7.549  13.376
58642SOL    HW277824  12.589   7.523  13.227
58643SOL     OW77825   0.217   5.777  10.493
58643SOL    HW177826   0.184   5.717  10.560
58643SOL    HW277827   0.178   5.862  10.517
58644SOL     OW77828  13.753  10.790   6.122
58644SOL    HW177829  13.828  10.740   6.153
58644SOL    HW277830  13.685  10.775   6.187
58645SOL     OW77831  14.727  14.207   4.097
58645SOL    HW177832  14.679  14.248   4.169
58645SOL    HW277833  14.819  14.215   4.122
58646SOL     OW77834  14.752   8.620  14.601
58646SOL    HW177835  14.726   8.597  14.691
58646SOL    HW277836  14.676   8.664  14.564
58647SOL     OW77837   6.719  10.922   3.309
58647SOL    HW177838   6.753  10.950   3.394
58647SOL    HW277839   6.722  11.000   3.255
58648SOL     OW77840   1.627   2.506   0.777
58648SOL    HW177841   1.546   2.458   0.791
58648SOL    HW277842   1.598   2.597   0.763
58649SOL     OW77843  13.221  11.805   3.891
58649SOL    HW177844  13.167  11.813   3.812
58649SOL    HW277845  13.158  11.791   3.962
58650SOL     OW77846   9.401  10.651   4.655
58650SOL    HW177847   9.486  10.695   4.651
58650SOL    HW277848   9.355  10.694   4.727
58651SOL     OW77849   1.233   8.432   4.555
58651SOL    HW177850   1.182   8.492   4.610
58651SOL    HW277851   1.274   8.489   4.490
58652SOL     OW77852   1.548   9.392   7.689
58652SOL    HW177853   1.599   9.364   7.765
58652SOL    HW277854   1.535   9.313   7.637
58653SOL     OW77855  12.535   7.110   4.810
58653SOL    HW177856  12.607   7.143   4.863
58653SOL    HW277857  12.566   7.116   4.720
58654SOL     OW77858  10.639  14.434   5.811
58654SOL    HW177859  10.734  14.438   5.820
58654SOL    HW277860  10.610  14.376   5.881
58655SOL     OW77861   0.929   0.483  12.663
58655SOL    HW177862   0.845   0.512  12.628
58655SOL    HW277863   0.929   0.512  12.754
58656SOL     OW77864   3.132  13.720  14.059
58656SOL    HW177865   3.184  13.668  13.997
58656SOL    HW277866   3.137  13.672  14.141
58657SOL     OW77867   9.302  12.852   0.904
58657SOL    HW177868   9.339  12.901   0.831
58657SOL    HW277869   9.267  12.773   0.865
58658SOL     OW77870   5.656  14.823   9.891
58658SOL    HW177871   5.633  14.863   9.807
58658SOL    HW277872   5.743  14.786   9.876
58659SOL     OW77873   6.977   9.593   4.783
58659SOL    HW177874   7.034   9.517   4.768
58659SOL    HW277875   6.897   9.573   4.734
58660SOL     OW77876   1.340   9.475  11.863
58660SOL    HW177877   1.294   9.463  11.779
58660SOL    HW277878   1.425   9.512  11.839
58661SOL     OW77879  14.121   3.673   0.579
58661SOL    HW177880  14.215   3.659   0.573
58661SOL    HW277881  14.112   3.741   0.646
58662SOL     OW77882   2.453   8.455   4.045
58662SOL    HW177883   2.388   8.428   3.980
58662SOL    HW277884   2.537   8.431   4.006
58663SOL     OW77885  12.217  10.036   5.054
58663SOL    HW177886  12.278   9.979   5.101
58663SOL    HW277887  12.219  10.004   4.964
58664SOL     OW77888   1.308   0.363   0.243
58664SOL    HW177889   1.396   0.368   0.206
58664SOL    HW277890   1.257   0.426   0.192
58665SOL     OW77891   3.875   4.145   1.335
58665SOL    HW177892   3.871   4.227   1.285
58665SOL    HW277893   3.789   4.105   1.322
58666SOL     OW77894  10.344   0.651   7.781
58666SOL    HW177895  10.301   0.579   7.826
58666SOL    HW277896  10.285   0.674   7.709
58667SOL     OW77897  14.117   6.852   5.098
58667SOL    HW177898  14.139   6.796   5.173
58667SOL    HW277899  14.199   6.898   5.078
58668SOL     OW77900  11.552   3.482   9.951
58668SOL    HW177901  11.625   3.535   9.920
58668SOL    HW277902  11.551   3.406   9.892
58669SOL     OW77903   3.050   1.487  11.582
58669SOL    HW177904   3.093   1.401  11.583
58669SOL    HW277905   3.119   1.547  11.554
58670SOL     OW77906   2.456   0.709   0.354
58670SOL    HW177907   2.390   0.736   0.290
58670SOL    HW277908   2.538   0.747   0.321
58671SOL     OW77909   7.679  10.354   2.204
58671SOL    HW177910   7.591  10.391   2.192
58671SOL    HW277911   7.716  10.352   2.116
58672SOL     OW77912   3.312   3.800   6.168
58672SOL    HW177913   3.239   3.835   6.219
58672SOL    HW277914   3.368   3.875   6.150
58673SOL     OW77915   5.915   9.632   1.169
58673SOL    HW177916   5.983   9.574   1.203
58673SOL    HW277917   5.844   9.573   1.143
58674SOL     OW77918   5.328   8.248   0.245
58674SOL    HW177919   5.339   8.153   0.244
58674SOL    HW277920   5.389   8.278   0.313
58675SOL     OW77921   3.821   4.714   6.149
58675SOL    HW177922   3.906   4.759   6.144
58675SOL    HW277923   3.827   4.662   6.229
58676SOL     OW77924  14.709  11.262   4.261
58676SOL    HW177925  14.654  11.340   4.249
58676SOL    HW277926  14.799  11.295   4.254
58677SOL     OW77927  13.353   9.241  14.861
58677SOL    HW177928  13.286   9.173  14.868
58677SOL    HW277929  13.432   9.194  14.834
58678SOL     OW77930   1.865   2.714  13.766
58678SOL    HW177931   1.773   2.719  13.743
58678SOL    HW277932   1.912   2.745  13.688
58679SOL     OW77933   0.942   2.279   4.624
58679SOL    HW177934   0.962   2.186   4.634
58679SOL    HW277935   0.898   2.285   4.539
58680SOL     OW77936   3.468  13.020   1.399
58680SOL    HW177937   3.530  13.025   1.471
58680SOL    HW277938   3.419  12.939   1.414
58681SOL     OW77939  12.306   9.633  14.605
58681SOL    HW177940  12.350   9.628  14.690
58681SOL    HW277941  12.215   9.611  14.624
58682SOL     OW77942  12.514  10.188   8.960
58682SOL    HW177943  12.439  10.129   8.969
58682SOL    HW277944  12.519  10.234   9.044
58683SOL     OW77945  14.737   9.474   1.502
58683SOL    HW177946  14.677   9.548   1.512
58683SOL    HW277947  14.698   9.405   1.557
58684SOL     OW77948  10.104   2.849   1.849
58684SOL    HW177949  10.118   2.925   1.792
58684SOL    HW277950  10.013   2.824   1.832
58685SOL     OW77951  11.360  14.401  11.549
58685SOL    HW177952  11.421  14.352  11.493
58685SOL    HW277953  11.348  14.484  11.503
58686SOL     OW77954   8.219  13.853  13.374
58686SOL    HW177955   8.243  13.778  13.428
58686SOL    HW277956   8.269  13.841  13.293
58687SOL     OW77957  14.433   7.597  11.038
58687SOL    HW177958  14.439   7.515  10.988
58687SOL    HW277959  14.369   7.649  10.990
58688SOL     OW77960  10.380  10.841  10.499
58688SOL    HW177961  10.435  10.856  10.422
58688SOL    HW277962  10.323  10.768  10.475
58689SOL     OW77963   4.649   4.870  12.480
58689SOL    HW177964   4.592   4.918  12.419
58689SOL    HW277965   4.682   4.938  12.539
58690SOL     OW77966   8.124   3.872  14.378
58690SOL    HW177967   8.048   3.915  14.418
58690SOL    HW277968   8.123   3.901  14.287
58691SOL     OW77969   4.569   2.625  10.936
58691SOL    HW177970   4.508   2.557  10.907
58691SOL    HW277971   4.656   2.590  10.917
58692SOL     OW77972   9.437   0.380  12.336
58692SOL    HW177973   9.531   0.367  12.342
58692SOL    HW277974   9.412   0.424  12.417
58693SOL     OW77975   1.136   1.360  10.939
58693SOL    HW177976   1.127   1.453  10.961
58693SOL    HW277977   1.223   1.337  10.972
58694SOL     OW77978  13.316  12.311   8.605
58694SOL    HW177979  13.350  12.315   8.695
58694SOL    HW277980  13.373  12.370   8.556
58695SOL     OW77981   0.688   4.106   7.813
58695SOL    HW177982   0.725   4.100   7.725
58695SOL    HW277983   0.730   4.182   7.852
58696SOL     OW77984  12.887   6.480   9.900
58696SOL    HW177985  12.915   6.555   9.847
58696SOL    HW277986  12.848   6.520   9.979
58697SOL     OW77987   9.764  13.569   7.389
58697SOL    HW177988   9.851  13.589   7.424
58697SOL    HW277989   9.707  13.637   7.426
58698SOL     OW77990   2.210   0.761   7.742
58698SOL    HW177991   2.295   0.720   7.725
58698SOL    HW277992   2.225   0.854   7.724
58699SOL     OW77993  12.678   5.069   8.889
58699SOL    HW177994  12.706   5.161   8.885
58699SOL    HW277995  12.722   5.028   8.814
58700SOL     OW77996   1.042   7.956   4.814
58700SOL    HW177997   0.950   7.942   4.835
58700SOL    HW277998   1.041   7.995   4.726
58701SOL     OW77999   6.519   3.481   5.415
58701SOL    HW178000   6.485   3.540   5.348
58701SOL    HW278001   6.442   3.436   5.450
58702SOL     OW78002   2.917   4.750   4.619
58702SOL    HW178003   2.897   4.750   4.526
58702SOL    HW278004   2.839   4.788   4.660
58703SOL     OW78005  10.821   7.980   4.151
58703SOL    HW178006  10.870   7.946   4.226
58703SOL    HW278007  10.881   8.044   4.111
58704SOL     OW78008   0.228  11.406   4.874
58704SOL    HW178009   0.321  11.405   4.855
58704SOL    HW278010   0.201  11.497   4.859
58705SOL     OW78011   3.497   9.018   6.068
58705SOL    HW178012   3.436   8.945   6.065
58705SOL    HW278013   3.583   8.978   6.079
58706SOL     OW78014  10.378   3.805  13.183
58706SOL    HW178015  10.340   3.718  13.169
58706SOL    HW278016  10.353   3.856  13.106
58707SOL     OW78017  13.829   7.579   2.470
58707SOL    HW178018  13.761   7.515   2.490
58707SOL    HW278019  13.784   7.663   2.470
58708SOL     OW78020  14.160   7.167   1.498
58708SOL    HW178021  14.174   7.078   1.465
58708SOL    HW278022  14.248   7.199   1.518
58709SOL     OW78023   8.411  11.953   7.958
58709SOL    HW178024   8.467  11.915   8.026
58709SOL    HW278025   8.367  12.027   8.001
58710SOL     OW78026   9.094   2.745   8.524
58710SOL    HW178027   9.157   2.673   8.518
58710SOL    HW278028   9.083   2.775   8.434
58711SOL     OW78029   5.513  12.676   5.479
58711SOL    HW178030   5.564  12.752   5.452
58711SOL    HW278031   5.462  12.706   5.554
58712SOL     OW78032   9.257   3.145   1.758
58712SOL    HW178033   9.274   3.211   1.825
58712SOL    HW278034   9.172   3.169   1.722
58713SOL     OW78035  13.568   2.491   5.507
58713SOL    HW178036  13.661   2.489   5.482
58713SOL    HW278037  13.568   2.539   5.590
58714SOL     OW78038   8.850   0.021  12.366
58714SOL    HW178039   8.793   0.090  12.401
58714SOL    HW278040   8.915   0.068  12.315
58715SOL     OW78041   7.618   1.986   7.094
58715SOL    HW178042   7.650   1.990   7.184
58715SOL    HW278043   7.584   2.074   7.077
58716SOL     OW78044   0.207   8.075  14.608
58716SOL    HW178045   0.153   8.154  14.605
58716SOL    HW278046   0.183   8.027  14.528
58717SOL     OW78047  10.332   7.628  11.328
58717SOL    HW178048  10.358   7.542  11.361
58717SOL    HW278049  10.345   7.687  11.402
58718SOL     OW78050   8.888   8.615   5.879
58718SOL    HW178051   8.935   8.671   5.817
58718SOL    HW278052   8.949   8.602   5.951
58719SOL     OW78053  12.444   6.419   6.990
58719SOL    HW178054  12.365   6.398   6.939
58719SOL    HW278055  12.455   6.513   6.980
58720SOL     OW78056   1.877   4.374   5.184
58720SOL    HW178057   1.820   4.436   5.137
58720SOL    HW278058   1.845   4.375   5.274
58721SOL     OW78059   2.321  11.037   1.947
58721SOL    HW178060   2.295  11.121   1.986
58721SOL    HW278061   2.414  11.048   1.928
58722SOL     OW78062   2.245  11.312   5.658
58722SOL    HW178063   2.253  11.223   5.693
58722SOL    HW278064   2.265  11.369   5.732
58723SOL     OW78065   6.893   7.380  12.138
58723SOL    HW178066   6.847   7.326  12.073
58723SOL    HW278067   6.985   7.357  12.127
58724SOL     OW78068   8.101  12.502   3.584
58724SOL    HW178069   8.035  12.570   3.577
58724SOL    HW278070   8.060  12.424   3.546
58725SOL     OW78071   1.422  12.633  14.007
58725SOL    HW178072   1.456  12.658  14.093
58725SOL    HW278073   1.499  12.603  13.959
58726SOL     OW78074  11.031   6.007   5.383
58726SOL    HW178075  10.973   6.026   5.310
58726SOL    HW278076  10.986   5.940   5.433
58727SOL     OW78077  10.105  12.510   6.026
58727SOL    HW178078  10.149  12.578   6.077
58727SOL    HW278079  10.085  12.442   6.090
58728SOL     OW78080   2.932  13.881   3.982
58728SOL    HW178081   2.844  13.843   3.987
58728SOL    HW278082   2.936  13.942   4.056
58729SOL     OW78083   0.531   3.916  10.430
58729SOL    HW178084   0.452   3.909  10.483
58729SOL    HW278085   0.544   4.010  10.420
58730SOL     OW78086   8.835   5.931  11.695
58730SOL    HW178087   8.757   5.973  11.732
58730SOL    HW278088   8.891   5.914  11.771
58731SOL     OW78089   5.414   0.521  11.188
58731SOL    HW178090   5.463   0.469  11.251
58731SOL    HW278091   5.455   0.608  11.192
58732SOL     OW78092  11.757   4.835   4.829
58732SOL    HW178093  11.798   4.885   4.899
58732SOL    HW278094  11.826   4.825   4.764
58733SOL     OW78095   1.042  10.554  14.307
58733SOL    HW178096   1.101  10.517  14.242
58733SOL    HW278097   0.963  10.576  14.258
58734SOL     OW78098  10.846   8.100   2.547
58734SOL    HW178099  10.869   8.193   2.541
58734SOL    HW278100  10.751   8.098   2.534
58735SOL     OW78101  10.258  12.115   4.475
58735SOL    HW178102  10.313  12.180   4.430
58735SOL    HW278103  10.308  12.092   4.553
58736SOL     OW78104  13.036   5.097   5.597
58736SOL    HW178105  12.962   5.143   5.638
58736SOL    HW278106  13.001   5.012   5.571
58737SOL     OW78107   0.099   7.401   3.385
58737SOL    HW178108   0.055   7.477   3.422
58737SOL    HW278109   0.034   7.360   3.329
58738SOL     OW78110  13.744   3.835   3.722
58738SOL    HW178111  13.667   3.886   3.700
58738SOL    HW278112  13.726   3.748   3.688
58739SOL     OW78113   9.315   3.990   3.265
58739SOL    HW178114   9.313   3.964   3.356
58739SOL    HW278115   9.403   3.966   3.235
58740SOL     OW78116   7.844  14.361   0.798
58740SOL    HW178117   7.820  14.270   0.817
58740SOL    HW278118   7.780  14.413   0.846
58741SOL     OW78119   9.868   7.682  12.628
58741SOL    HW178120   9.832   7.768  12.646
58741SOL    HW278121   9.949   7.698  12.580
58742SOL     OW78122  11.929  14.491   4.994
58742SOL    HW178123  11.970  14.514   5.077
58742SOL    HW278124  11.959  14.401   4.976
58743SOL     OW78125   0.118  12.572  11.412
58743SOL    HW178126   0.209  12.594  11.430
58743SOL    HW278127   0.123  12.500  11.348
58744SOL     OW78128   5.710  11.349   3.864
58744SOL    HW178129   5.741  11.411   3.930
58744SOL    HW278130   5.755  11.267   3.886
58745SOL     OW78131   7.841   3.206   4.962
58745SOL    HW178132   7.864   3.125   4.917
58745SOL    HW278133   7.921   3.232   5.007
58746SOL     OW78134   8.949  14.182   4.677
58746SOL    HW178135   8.986  14.103   4.639
58746SOL    HW278136   9.008  14.205   4.748
58747SOL     OW78137   0.199   5.374   7.909
58747SOL    HW178138   0.164   5.457   7.940
58747SOL    HW278139   0.294   5.387   7.904
58748SOL     OW78140   7.326   1.091   7.664
58748SOL    HW178141   7.283   1.134   7.590
58748SOL    HW278142   7.407   1.056   7.627
58749SOL     OW78143  13.962  12.950  13.051
58749SOL    HW178144  13.998  13.020  12.997
58749SOL    HW278145  13.879  12.927  13.009
58750SOL     OW78146   1.914   1.391  12.268
58750SOL    HW178147   2.001   1.391  12.229
58750SOL    HW278148   1.855   1.377  12.194
58751SOL     OW78149   5.662  11.608   9.355
58751SOL    HW178150   5.739  11.551   9.359
58751SOL    HW278151   5.594  11.560   9.404
58752SOL     OW78152   4.541  12.983  13.292
58752SOL    HW178153   4.488  12.936  13.357
58752SOL    HW278154   4.554  12.919  13.222
58753SOL     OW78155  11.965   2.117  11.910
58753SOL    HW178156  11.943   2.183  11.975
58753SOL    HW278157  12.038   2.155  11.861
58754SOL     OW78158   0.611   2.451   6.926
58754SOL    HW178159   0.548   2.516   6.958
58754SOL    HW278160   0.671   2.502   6.871
58755SOL     OW78161   4.292   6.871   4.778
58755SOL    HW178162   4.260   6.795   4.827
58755SOL    HW278163   4.373   6.895   4.822
58756SOL     OW78164   7.660  12.363   8.478
58756SOL    HW178165   7.580  12.400   8.514
58756SOL    HW278166   7.709  12.331   8.554
58757SOL     OW78167   7.938   8.961   3.426
58757SOL    HW178168   7.992   8.882   3.428
58757SOL    HW278169   7.852   8.933   3.456
58758SOL     OW78170   0.185   0.764  14.834
58758SOL    HW178171   0.103   0.723  14.861
58758SOL    HW278172   0.217   0.808   0.030
58759SOL     OW78173   3.800   6.548  13.001
58759SOL    HW178174   3.708   6.525  13.012
58759SOL    HW278175   3.842   6.518  13.082
58760SOL     OW78176   0.969  12.666  13.762
58760SOL    HW178177   0.945  12.755  13.738
58760SOL    HW278178   1.008  12.674  13.849
58761SOL     OW78179  10.244  10.485  11.263
58761SOL    HW178180  10.210  10.505  11.350
58761SOL    HW278181  10.233  10.566  11.214
58762SOL     OW78182   5.338  10.137   8.205
58762SOL    HW178183   5.287  10.206   8.247
58762SOL    HW278184   5.340  10.163   8.112
58763SOL     OW78185   8.391  10.745   3.614
58763SOL    HW178186   8.370  10.838   3.620
58763SOL    HW278187   8.333  10.703   3.677
58764SOL     OW78188  12.007   5.919  13.050
58764SOL    HW178189  12.055   5.840  13.073
58764SOL    HW278190  12.069   5.969  12.996
58765SOL     OW78191   8.157   9.128   7.469
58765SOL    HW178192   8.175   9.126   7.375
58765SOL    HW278193   8.185   9.216   7.496
58766SOL     OW78194   0.589   9.399   3.539
58766SOL    HW178195   0.627   9.420   3.453
58766SOL    HW278196   0.597   9.304   3.546
58767SOL     OW78197   9.082   1.155   6.733
58767SOL    HW178198   9.042   1.114   6.656
58767SOL    HW278199   9.011   1.157   6.798
58768SOL     OW78200   3.159  13.678  11.208
58768SOL    HW178201   3.145  13.772  11.195
58768SOL    HW278202   3.210  13.651  11.132
58769SOL     OW78203   0.760   1.738   8.509
58769SOL    HW178204   0.708   1.698   8.578
58769SOL    HW278205   0.696   1.784   8.454
58770SOL     OW78206   3.530   2.494   1.263
58770SOL    HW178207   3.518   2.489   1.357
58770SOL    HW278208   3.465   2.558   1.233
58771SOL     OW78209  13.630  10.537   3.103
58771SOL    HW178210  13.713  10.513   3.062
58771SOL    HW278211  13.617  10.629   3.078
58772SOL     OW78212   6.842   3.433   1.744
58772SOL    HW178213   6.874   3.484   1.670
58772SOL    HW278214   6.764   3.388   1.711
58773SOL     OW78215   3.194   1.982   7.877
58773SOL    HW178216   3.139   2.055   7.848
58773SOL    HW278217   3.144   1.941   7.948
58774SOL     OW78218  12.155   1.048   3.759
58774SOL    HW178219  12.153   0.955   3.736
58774SOL    HW278220  12.090   1.056   3.829
58775SOL     OW78221   3.972   3.247  12.498
58775SOL    HW178222   3.922   3.324  12.525
58775SOL    HW278223   3.929   3.218  12.417
58776SOL     OW78224   1.022   2.425   4.172
58776SOL    HW178225   0.999   2.505   4.219
58776SOL    HW278226   0.937   2.386   4.148
58777SOL     OW78227  13.945   8.765   6.885
58777SOL    HW178228  13.912   8.758   6.795
58777SOL    HW278229  14.039   8.748   6.876
58778SOL     OW78230  10.098   5.705  14.216
58778SOL    HW178231  10.043   5.730  14.290
58778SOL    HW278232  10.036   5.683  14.146
58779SOL     OW78233  14.203   2.613   5.251
58779SOL    HW178234  14.200   2.684   5.315
58779SOL    HW278235  14.118   2.618   5.206
58780SOL     OW78236   4.601  12.098   5.601
58780SOL    HW178237   4.650  12.037   5.657
58780SOL    HW278238   4.584  12.174   5.657
58781SOL     OW78239  10.801   6.247   8.269
58781SOL    HW178240  10.814   6.198   8.187
58781SOL    HW278241  10.788   6.180   8.335
58782SOL     OW78242   8.984   0.149   7.968
58782SOL    HW178243   8.920   0.077   7.963
58782SOL    HW278244   8.961   0.195   8.048
58783SOL     OW78245   3.055   7.783   1.260
58783SOL    HW178246   3.073   7.800   1.168
58783SOL    HW278247   2.969   7.741   1.262
58784SOL     OW78248  12.487  11.373   3.834
58784SOL    HW178249  12.566  11.367   3.889
58784SOL    HW278250  12.522  11.382   3.745
58785SOL     OW78251  12.127   4.799  11.165
58785SOL    HW178252  12.085   4.724  11.124
58785SOL    HW278253  12.176   4.841  11.095
58786SOL     OW78254   9.654  11.494   1.947
58786SOL    HW178255   9.568  11.488   1.989
58786SOL    HW278256   9.651  11.427   1.879
58787SOL     OW78257   9.047  11.921  12.435
58787SOL    HW178258   9.018  11.835  12.405
58787SOL    HW278259   9.062  11.910  12.529
58788SOL     OW78260  12.571   7.139   7.687
58788SOL    HW178261  12.634   7.070   7.669
58788SOL    HW278262  12.590   7.168   7.776
58789SOL     OW78263   3.031   3.089   1.782
58789SOL    HW178264   2.974   3.165   1.774
58789SOL    HW278265   3.056   3.088   1.875
58790SOL     OW78266   9.049  13.483   7.690
58790SOL    HW178267   9.114  13.466   7.622
58790SOL    HW278268   9.068  13.418   7.758
58791SOL     OW78269   8.349   1.088  12.853
58791SOL    HW178270   8.354   1.057  12.943
58791SOL    HW278271   8.295   1.024  12.807
58792SOL     OW78272  12.284   1.812  11.965
58792SOL    HW178273  12.294   1.790  12.058
58792SOL    HW278274  12.191   1.832  11.955
58793SOL     OW78275   5.194  10.767  10.486
58793SOL    HW178276   5.152  10.681  10.490
58793SOL    HW278277   5.239  10.768  10.401
58794SOL     OW78278   6.232   1.563   3.624
58794SOL    HW178279   6.266   1.653   3.625
58794SOL    HW278280   6.271   1.522   3.701
58795SOL     OW78281   9.179  14.801   6.342
58795SOL    HW178282   9.219  14.740   6.281
58795SOL    HW278283   9.220  14.781   6.426
58796SOL     OW78284   5.189   6.866  11.988
58796SOL    HW178285   5.244   6.799  11.947
58796SOL    HW278286   5.131   6.895  11.918
58797SOL     OW78287  12.761  14.670   6.428
58797SOL    HW178288  12.717  14.755   6.435
58797SOL    HW278289  12.835  14.677   6.488
58798SOL     OW78290   3.843   7.012  11.204
58798SOL    HW178291   3.757   7.012  11.246
58798SOL    HW278292   3.849   7.097  11.160
58799SOL     OW78293  11.733   2.451   0.629
58799SOL    HW178294  11.702   2.449   0.539
58799SOL    HW278295  11.782   2.369   0.640
58800SOL     OW78296   2.807   1.104   5.810
58800SOL    HW178297   2.783   1.012   5.795
58800SOL    HW278298   2.735   1.154   5.772
58801SOL     OW78299  14.259   1.996   0.167
58801SOL    HW178300  14.231   2.046   0.243
58801SOL    HW278301  14.347   1.965   0.190
58802SOL     OW78302   9.917  14.373   2.330
58802SOL    HW178303   9.958  14.288   2.342
58802SOL    HW278304   9.968  14.415   2.261
58803SOL     OW78305  14.876   8.299   5.464
58803SOL    HW178306   0.066   8.344   5.422
58803SOL    HW278307   0.034   8.253   5.538
58804SOL     OW78308  11.237   3.576  14.666
58804SOL    HW178309  11.159   3.523  14.651
58804SOL    HW278310  11.300   3.543  14.602
58805SOL     OW78311   4.513   7.237  12.184
58805SOL    HW178312   4.531   7.153  12.143
58805SOL    HW278313   4.421   7.232  12.209
58806SOL     OW78314  10.933  12.251   3.589
58806SOL    HW178315  10.903  12.337   3.559
58806SOL    HW278316  10.957  12.204   3.509
58807SOL     OW78317   6.863   6.693   8.388
58807SOL    HW178318   6.770   6.696   8.365
58807SOL    HW278319   6.884   6.783   8.414
58808SOL     OW78320   0.273   9.834   5.360
58808SOL    HW178321   0.251   9.746   5.329
58808SOL    HW278322   0.318   9.875   5.287
58809SOL     OW78323   8.837  13.326   1.073
58809SOL    HW178324   8.820  13.419   1.084
58809SOL    HW278325   8.750  13.286   1.064
58810SOL     OW78326   3.129   0.012  12.516
58810SOL    HW178327   3.182   0.018  12.596
58810SOL    HW278328   3.084   0.096  12.511
58811SOL     OW78329   9.736   9.200  11.149
58811SOL    HW178330   9.683   9.150  11.087
58811SOL    HW278331   9.826   9.175  11.130
58812SOL     OW78332   0.782   4.015  10.153
58812SOL    HW178333   0.701   4.049  10.115
58812SOL    HW278334   0.851   4.070  10.117
58813SOL     OW78335   7.166  11.863  10.505
58813SOL    HW178336   7.140  11.823  10.587
58813SOL    HW278337   7.184  11.790  10.446
58814SOL     OW78338   0.071   7.511   6.045
58814SOL    HW178339  14.880   7.457   6.014
58814SOL    HW278340   0.086   7.574   5.974
58815SOL     OW78341  13.099   5.513   2.458
58815SOL    HW178342  13.194   5.523   2.460
58815SOL    HW278343  13.066   5.601   2.477
58816SOL     OW78344   9.325   2.629  12.313
58816SOL    HW178345   9.273   2.601  12.389
58816SOL    HW278346   9.414   2.639  12.349
58817SOL     OW78347   9.612   1.371  13.938
58817SOL    HW178348   9.707   1.375  13.940
58817SOL    HW278349   9.583   1.445  13.991
58818SOL     OW78350   8.674   2.269   8.557
58818SOL    HW178351   8.630   2.276   8.473
58818SOL    HW278352   8.603   2.271   8.622
58819SOL     OW78353   2.721   8.534   3.520
58819SOL    HW178354   2.685   8.592   3.454
58819SOL    HW278355   2.647   8.515   3.579
58820SOL     OW78356   2.354   8.735   3.849
58820SOL    HW178357   2.438   8.700   3.880
58820SOL    HW278358   2.294   8.661   3.858
58821SOL     OW78359   2.645   7.131   0.219
58821SOL    HW178360   2.649   7.070   0.145
58821SOL    HW278361   2.711   7.099   0.280
58822SOL     OW78362  13.250   5.785   5.500
58822SOL    HW178363  13.278   5.693   5.494
58822SOL    HW278364  13.155   5.781   5.489
58823SOL     OW78365  14.340  14.846  12.262
58823SOL    HW178366  14.363  14.850  12.355
58823SOL    HW278367  14.245  14.834  12.261
58824SOL     OW78368   3.151   5.425   7.469
58824SOL    HW178369   3.173   5.515   7.494
58824SOL    HW278370   3.192   5.371   7.536
58825SOL     OW78371   4.836   8.733  14.030
58825SOL    HW178372   4.884   8.798  13.979
58825SOL    HW278373   4.798   8.782  14.103
58826SOL     OW78374   6.761   8.269   1.778
58826SOL    HW178375   6.709   8.344   1.806
58826SOL    HW278376   6.811   8.245   1.856
58827SOL     OW78377   3.576   7.259  10.395
58827SOL    HW178378   3.659   7.236  10.437
58827SOL    HW278379   3.522   7.294  10.466
58828SOL     OW78380   3.623   0.403   2.936
58828SOL    HW178381   3.554   0.416   3.001
58828SOL    HW278382   3.652   0.313   2.949
58829SOL     OW78383  14.081  13.197  11.493
58829SOL    HW178384  14.077  13.284  11.454
58829SOL    HW278385  14.084  13.214  11.588
58830SOL     OW78386   0.190   8.235   0.971
58830SOL    HW178387   0.136   8.175   0.919
58830SOL    HW278388   0.137   8.253   1.049
58831SOL     OW78389   1.268  12.938  11.095
58831SOL    HW178390   1.273  12.888  11.014
58831SOL    HW278391   1.223  12.881  11.157
58832SOL     OW78392   3.092   1.829   1.883
58832SOL    HW178393   3.158   1.770   1.918
58832SOL    HW278394   3.101   1.909   1.935
58833SOL     OW78395   4.907  10.614   8.175
58833SOL    HW178396   4.819  10.585   8.198
58833SOL    HW278397   4.929  10.680   8.240
58834SOL     OW78398   3.866   9.041   8.456
58834SOL    HW178399   3.920   9.074   8.384
58834SOL    HW278400   3.929   9.023   8.527
58835SOL     OW78401   0.593   6.922   8.568
58835SOL    HW178402   0.526   6.966   8.621
58835SOL    HW278403   0.580   6.829   8.587
58836SOL     OW78404   4.541  11.620   3.276
58836SOL    HW178405   4.480  11.679   3.231
58836SOL    HW278406   4.510  11.617   3.366
58837SOL     OW78407  11.318   3.387   6.596
58837SOL    HW178408  11.242   3.368   6.540
58837SOL    HW278409  11.364   3.457   6.550
58838SOL     OW78410   4.068   7.136   9.802
58838SOL    HW178411   4.106   7.221   9.780
58838SOL    HW278412   4.077   7.129   9.897
58839SOL     OW78413  14.255  14.639   2.203
58839SOL    HW178414  14.325  14.604   2.149
58839SOL    HW278415  14.275  14.607   2.291
58840SOL     OW78416   8.639   2.232  13.986
58840SOL    HW178417   8.711   2.292  14.004
58840SOL    HW278418   8.648   2.163  14.052
58841SOL     OW78419   8.123  14.147  10.040
58841SOL    HW178420   8.213  14.120  10.058
58841SOL    HW278421   8.089  14.079   9.981
58842SOL     OW78422  12.393  13.288   9.990
58842SOL    HW178423  12.488  13.293   9.981
58842SOL    HW278424  12.377  13.295  10.084
58843SOL     OW78425   1.279   0.310   7.413
58843SOL    HW178426   1.254   0.219   7.430
58843SOL    HW278427   1.351   0.326   7.474
58844SOL     OW78428   1.772   6.524  10.889
58844SOL    HW178429   1.739   6.605  10.928
58844SOL    HW278430   1.867   6.537  10.882
58845SOL     OW78431   3.206   2.082   3.956
58845SOL    HW178432   3.289   2.093   3.909
58845SOL    HW278433   3.226   2.103   4.047
58846SOL     OW78434   4.268   6.045   1.706
58846SOL    HW178435   4.320   5.970   1.734
58846SOL    HW278436   4.180   6.010   1.693
58847SOL     OW78437   0.462  14.758   6.449
58847SOL    HW178438   0.540  14.702   6.448
58847SOL    HW278439   0.478  14.820   6.521
58848SOL     OW78440  10.549   2.090  11.194
58848SOL    HW178441  10.497   2.082  11.274
58848SOL    HW278442  10.517   2.170  11.152
58849SOL     OW78443  12.687   3.769   0.135
58849SOL    HW178444  12.633   3.800   0.063
58849SOL    HW278445  12.768   3.740   0.093
58850SOL     OW78446   7.196   9.107   4.697
58850SOL    HW178447   7.286   9.086   4.675
58850SOL    HW278448   7.146   9.030   4.670
58851SOL     OW78449   9.049   8.846   6.759
58851SOL    HW178450   8.976   8.802   6.802
58851SOL    HW278451   9.127   8.815   6.805
58852SOL     OW78452   2.487   3.482   2.993
58852SOL    HW178453   2.502   3.574   3.014
58852SOL    HW278454   2.448   3.484   2.905
58853SOL     OW78455   5.404   0.263  14.252
58853SOL    HW178456   5.365   0.201  14.314
58853SOL    HW278457   5.480   0.217  14.216
58854SOL     OW78458  14.005   8.880  13.414
58854SOL    HW178459  14.023   8.917  13.500
58854SOL    HW278460  13.983   8.788  13.432
58855SOL     OW78461   2.465   4.840  14.095
58855SOL    HW178462   2.501   4.923  14.063
58855SOL    HW278463   2.477   4.844  14.190
58856SOL     OW78464   0.118  12.302   7.771
58856SOL    HW178465   0.200  12.351   7.775
58856SOL    HW278466   0.105  12.270   7.861
58857SOL     OW78467   7.592  14.745   6.324
58857SOL    HW178468   7.657  14.677   6.340
58857SOL    HW278469   7.642  14.818   6.289
58858SOL     OW78470   0.577   8.503  14.735
58858SOL    HW178471   0.509   8.436  14.738
58858SOL    HW278472   0.654   8.462  14.773
58859SOL     OW78473   9.979   4.985   8.025
58859SOL    HW178474   9.909   4.920   8.016
58859SOL    HW278475  10.032   4.973   7.946
58860SOL     OW78476  13.171   2.304   5.390
58860SOL    HW178477  13.144   2.389   5.425
58860SOL    HW278478  13.266   2.305   5.393
58861SOL     OW78479   5.689   9.412   3.445
58861SOL    HW178480   5.779   9.384   3.433
58861SOL    HW278481   5.695   9.491   3.498
58862SOL     OW78482   4.455   6.271   2.282
58862SOL    HW178483   4.510   6.267   2.203
58862SOL    HW278484   4.440   6.364   2.297
58863SOL     OW78485   3.637   1.456   0.483
58863SOL    HW178486   3.675   1.382   0.434
58863SOL    HW278487   3.712   1.512   0.503
58864SOL     OW78488   5.896   3.912  13.374
58864SOL    HW178489   5.981   3.942  13.340
58864SOL    HW278490   5.876   3.974  13.444
58865SOL     OW78491   8.022  11.765   7.050
58865SOL    HW178492   7.951  11.788   6.989
58865SOL    HW278493   7.985  11.779   7.137
58866SOL     OW78494   8.933   3.649   4.073
58866SOL    HW178495   8.840   3.665   4.054
58866SOL    HW278496   8.975   3.733   4.058
58867SOL     OW78497   9.872   7.612   4.318
58867SOL    HW178498   9.928   7.545   4.357
58867SOL    HW278499   9.930   7.660   4.259
58868SOL     OW78500  13.860  10.847   7.170
58868SOL    HW178501  13.768  10.874   7.174
58868SOL    HW278502  13.866  10.797   7.088
58869SOL     OW78503  12.029   5.421   1.465
58869SOL    HW178504  12.027   5.510   1.429
58869SOL    HW278505  12.093   5.375   1.411
58870SOL     OW78506   0.207  12.130   4.740
58870SOL    HW178507   0.205  12.222   4.765
58870SOL    HW278508   0.209  12.082   4.823
58871SOL     OW78509   2.723  10.989   2.460
58871SOL    HW178510   2.700  10.898   2.480
58871SOL    HW278511   2.816  10.995   2.480
58872SOL     OW78512  14.321  14.400   6.635
58872SOL    HW178513  14.316  14.457   6.558
58872SOL    HW278514  14.259  14.438   6.697
58873SOL     OW78515   5.128   3.561  14.012
58873SOL    HW178516   5.036   3.579  14.030
58873SOL    HW278517   5.139   3.468  14.028
58874SOL     OW78518   9.885   1.129   3.336
58874SOL    HW178519   9.962   1.164   3.380
58874SOL    HW278520   9.864   1.048   3.384
58875SOL     OW78521   6.022   6.487   4.146
58875SOL    HW178522   5.937   6.486   4.102
58875SOL    HW278523   6.045   6.580   4.151
58876SOL     OW78524   2.929  10.229   5.975
58876SOL    HW178525   3.008  10.206   5.927
58876SOL    HW278526   2.907  10.317   5.945
58877SOL     OW78527   8.930  13.588   3.581
58877SOL    HW178528   8.850  13.592   3.633
58877SOL    HW278529   8.905  13.539   3.503
58878SOL     OW78530  10.948   8.949   1.445
58878SOL    HW178531  10.936   8.859   1.414
58878SOL    HW278532  10.902   9.003   1.381
58879SOL     OW78533  11.713   8.422   6.221
58879SOL    HW178534  11.771   8.497   6.208
58879SOL    HW278535  11.771   8.346   6.211
58880SOL     OW78536   3.895  13.176   4.823
58880SOL    HW178537   3.896  13.165   4.728
58880SOL    HW278538   3.986  13.200   4.844
58881SOL     OW78539   2.515   8.081  12.424
58881SOL    HW178540   2.443   8.143  12.423
58881SOL    HW278541   2.528   8.060  12.517
58882SOL     OW78542   3.598  14.285  12.210
58882SOL    HW178543   3.550  14.221  12.157
58882SOL    HW278544   3.541  14.362  12.211
58883SOL     OW78545   6.346  11.094  12.459
58883SOL    HW178546   6.310  11.163  12.403
58883SOL    HW278547   6.412  11.138  12.512
58884SOL     OW78548   1.560   1.257  14.771
58884SOL    HW178549   1.496   1.211  14.826
58884SOL    HW278550   1.537   1.349  14.780
58885SOL     OW78551   5.320   5.219   5.603
58885SOL    HW178552   5.225   5.210   5.609
58885SOL    HW278553   5.339   5.215   5.509
58886SOL     OW78554   4.686  12.405   6.086
58886SOL    HW178555   4.658  12.416   6.176
58886SOL    HW278556   4.711  12.493   6.058
58887SOL     OW78557   9.847  13.933  14.196
58887SOL    HW178558   9.916  13.971  14.250
58887SOL    HW278559   9.802  13.871  14.254
58888SOL     OW78560   0.098   1.727  12.147
58888SOL    HW178561   0.013   1.738  12.190
58888SOL    HW278562   0.076   1.697  12.059
58889SOL     OW78563   7.410  10.982   9.941
58889SOL    HW178564   7.384  10.949  10.027
58889SOL    HW278565   7.411  11.077   9.950
58890SOL     OW78566   4.274  10.176  13.241
58890SOL    HW178567   4.272  10.083  13.261
58890SOL    HW278568   4.303  10.181  13.150
58891SOL     OW78569  12.419   4.708  11.781
58891SOL    HW178570  12.429   4.616  11.802
58891SOL    HW278571  12.349   4.738  11.839
58892SOL     OW78572  11.063   8.130  11.669
58892SOL    HW178573  11.022   8.200  11.719
58892SOL    HW278574  11.146   8.168  11.638
58893SOL     OW78575  12.832  12.239  13.306
58893SOL    HW178576  12.826  12.261  13.213
58893SOL    HW278577  12.907  12.179  13.311
58894SOL     OW78578   6.979   4.955  13.625
58894SOL    HW178579   7.057   4.994  13.666
58894SOL    HW278580   7.007   4.934  13.536
58895SOL     OW78581  13.562   8.184  10.822
58895SOL    HW178582  13.477   8.214  10.853
58895SOL    HW278583  13.559   8.193  10.727
58896SOL     OW78584   5.377   5.760   0.059
58896SOL    HW178585   5.381   5.665   0.045
58896SOL    HW278586   5.457   5.780   0.107
58897SOL     OW78587  10.077   5.672   5.370
58897SOL    HW178588  10.068   5.755   5.416
58897SOL    HW278589   9.991   5.631   5.376
58898SOL     OW78590   7.980   7.925  14.160
58898SOL    HW178591   7.958   7.882  14.242
58898SOL    HW278592   7.900   7.921  14.108
58899SOL     OW78593   1.171   6.436   3.260
58899SOL    HW178594   1.110   6.434   3.186
58899SOL    HW278595   1.255   6.461   3.221
58900SOL     OW78596  13.186  10.843  10.310
58900SOL    HW178597  13.146  10.832  10.224
58900SOL    HW278598  13.142  10.779  10.366
58901SOL     OW78599   9.117   5.022  13.794
58901SOL    HW178600   9.194   5.060  13.835
58901SOL    HW278601   9.063   5.097  13.770
58902SOL     OW78602  10.785  11.523  11.222
58902SOL    HW178603  10.722  11.564  11.281
58902SOL    HW278604  10.735  11.501  11.144
58903SOL     OW78605  13.536   4.825   9.532
58903SOL    HW178606  13.629   4.800   9.537
58903SOL    HW278607  13.519   4.835   9.438
58904SOL     OW78608   5.044   2.030  12.332
58904SOL    HW178609   4.959   1.994  12.308
58904SOL    HW278610   5.075   1.974  12.403
58905SOL     OW78611   5.240   2.207  12.582
58905SOL    HW178612   5.176   2.278  12.585
58905SOL    HW278613   5.324   2.248  12.604
58906SOL     OW78614  13.641   5.289   6.841
58906SOL    HW178615  13.723   5.270   6.886
58906SOL    HW278616  13.643   5.235   6.762
58907SOL     OW78617   0.276   0.946  11.965
58907SOL    HW178618   0.297   1.030  12.006
58907SOL    HW278619   0.192   0.960  11.923
58908SOL     OW78620   0.355   5.267   3.956
58908SOL    HW178621   0.277   5.249   4.009
58908SOL    HW278622   0.346   5.211   3.880
58909SOL     OW78623   1.558  13.529  14.307
58909SOL    HW178624   1.550  13.526  14.212
58909SOL    HW278625   1.499  13.460  14.338
58910SOL     OW78626   9.293   3.890   8.622
58910SOL    HW178627   9.349   3.838   8.680
58910SOL    HW278628   9.205   3.857   8.638
58911SOL     OW78629  14.376   5.490  11.508
58911SOL    HW178630  14.400   5.485  11.415
58911SOL    HW278631  14.428   5.563  11.542
58912SOL     OW78632  10.302   4.849   6.871
58912SOL    HW178633  10.292   4.821   6.780
58912SOL    HW278634  10.314   4.768   6.920
58913SOL     OW78635   4.989   2.067   1.461
58913SOL    HW178636   5.001   2.046   1.369
58913SOL    HW278637   4.982   1.981   1.504
58914SOL     OW78638   3.725   5.727  14.825
58914SOL    HW178639   3.811   5.751  14.790
58914SOL    HW278640   3.665   5.788  14.782
58915SOL     OW78641   7.167  13.350  12.029
58915SOL    HW178642   7.159  13.444  12.013
58915SOL    HW278643   7.126  13.309  11.952
58916SOL     OW78644  10.268  12.223   8.304
58916SOL    HW178645  10.282  12.167   8.381
58916SOL    HW278646  10.218  12.169   8.243
58917SOL     OW78647  11.773  13.245  10.327
58917SOL    HW178648  11.713  13.265  10.255
58917SOL    HW278649  11.852  13.213  10.285
58918SOL     OW78650   9.289  10.089   5.538
58918SOL    HW178651   9.378  10.116   5.559
58918SOL    HW278652   9.235  10.166   5.555
58919SOL     OW78653   4.561   3.920   6.130
58919SOL    HW178654   4.601   3.889   6.049
58919SOL    HW278655   4.497   3.852   6.153
58920SOL     OW78656  11.096  13.407  12.199
58920SOL    HW178657  11.032  13.357  12.249
58920SOL    HW278658  11.121  13.479  12.257
58921SOL     OW78659  14.137   3.982   3.232
58921SOL    HW178660  14.169   4.041   3.164
58921SOL    HW278661  14.152   3.894   3.197
58922SOL     OW78662   5.406   1.326   3.746
58922SOL    HW178663   5.352   1.257   3.706
58922SOL    HW278664   5.491   1.318   3.702
58923SOL     OW78665   2.057  10.157  10.428
58923SOL    HW178666   2.122  10.154  10.498
58923SOL    HW278667   2.037  10.250  10.418
58924SOL     OW78668   2.597  14.559  12.312
58924SOL    HW178669   2.614  14.520  12.226
58924SOL    HW278670   2.560  14.488  12.364
58925SOL     OW78671   9.532   6.380   7.385
58925SOL    HW178672   9.583   6.460   7.400
58925SOL    HW278673   9.471   6.403   7.315
58926SOL     OW78674   9.487   1.778   0.102
58926SOL    HW178675   9.469   1.710   0.167
58926SOL    HW278676   9.494   1.859   0.153
58927SOL     OW78677   6.046   2.961   8.042
58927SOL    HW178678   5.987   3.031   8.014
58927SOL    HW278679   5.988   2.890   8.068
58928SOL     OW78680   6.925  14.642   6.880
58928SOL    HW178681   6.940  14.561   6.832
58928SOL    HW278682   6.851  14.624   6.937
58929SOL     OW78683   1.008  12.500   5.538
58929SOL    HW178684   1.086  12.472   5.586
58929SOL    HW278685   0.966  12.418   5.512
58930SOL     OW78686   3.885   6.869   2.144
58930SOL    HW178687   3.903   6.927   2.071
58930SOL    HW278688   3.939   6.792   2.128
58931SOL     OW78689   2.314  13.744  14.182
58931SOL    HW178690   2.385  13.806  14.198
58931SOL    HW278691   2.240  13.780  14.231
58932SOL     OW78692   6.520   5.930  10.916
58932SOL    HW178693   6.528   5.835  10.917
58932SOL    HW278694   6.522   5.956  11.008
58933SOL     OW78695   1.740   5.536   9.214
58933SOL    HW178696   1.751   5.443   9.234
58933SOL    HW278697   1.651   5.542   9.180
58934SOL     OW78698  14.495   0.863   8.630
58934SOL    HW178699  14.549   0.821   8.698
58934SOL    HW278700  14.480   0.951   8.664
58935SOL     OW78701   9.046   2.901   4.042
58935SOL    HW178702   8.975   2.880   3.981
58935SOL    HW278703   9.006   2.961   4.105
58936SOL     OW78704   1.775   2.395   8.303
58936SOL    HW178705   1.839   2.359   8.365
58936SOL    HW278706   1.739   2.472   8.347
58937SOL     OW78707   2.639   6.821  12.441
58937SOL    HW178708   2.674   6.739  12.407
58937SOL    HW278709   2.687   6.836  12.522
58938SOL     OW78710   5.908  14.294   1.737
58938SOL    HW178711   5.980  14.284   1.799
58938SOL    HW278712   5.950  14.295   1.651
58939SOL     OW78713   9.185   1.810   8.422
58939SOL    HW178714   9.135   1.749   8.367
58939SOL    HW278715   9.251   1.755   8.464
58940SOL     OW78716   7.678  13.696   6.101
58940SOL    HW178717   7.762  13.691   6.055
58940SOL    HW278718   7.647  13.605   6.106
58941SOL     OW78719  13.274  13.725   3.793
58941SOL    HW178720  13.363  13.760   3.794
58941SOL    HW278721  13.225  13.789   3.740
58942SOL     OW78722  13.787   1.927   7.866
58942SOL    HW178723  13.862   1.948   7.810
58942SOL    HW278724  13.791   1.991   7.937
58943SOL     OW78725   4.429   7.171   1.946
58943SOL    HW178726   4.500   7.218   1.902
58943SOL    HW278727   4.377   7.240   1.988
58944SOL     OW78728  11.105  14.197   9.650
58944SOL    HW178729  11.196  14.187   9.623
58944SOL    HW278730  11.075  14.108   9.669
58945SOL     OW78731   3.981  13.821   5.129
58945SOL    HW178732   4.025  13.768   5.195
58945SOL    HW278733   3.900  13.773   5.109
58946SOL     OW78734   9.437   3.474  13.472
58946SOL    HW178735   9.446   3.385  13.505
58946SOL    HW278736   9.440   3.465  13.377
58947SOL     OW78737   0.549   8.384   5.813
58947SOL    HW178738   0.607   8.437   5.759
58947SOL    HW278739   0.607   8.342   5.876
58948SOL     OW78740  12.809   8.018  12.401
58948SOL    HW178741  12.865   7.963  12.455
58948SOL    HW278742  12.739   7.960  12.372
58949SOL     OW78743   7.496   3.628   5.209
58949SOL    HW178744   7.511   3.657   5.119
58949SOL    HW278745   7.582   3.630   5.250
58950SOL     OW78746   9.689   5.764   9.284
58950SOL    HW178747   9.624   5.717   9.231
58950SOL    HW278748   9.639   5.797   9.359
58951SOL     OW78749   7.970   8.458   5.027
58951SOL    HW178750   7.951   8.384   5.084
58951SOL    HW278751   8.017   8.420   4.953
58952SOL     OW78752   9.215   6.836   5.244
58952SOL    HW178753   9.194   6.923   5.278
58952SOL    HW278754   9.218   6.847   5.149
58953SOL     OW78755  13.662   0.889   5.054
58953SOL    HW178756  13.606   0.838   5.113
58953SOL    HW278757  13.601   0.929   4.992
58954SOL     OW78758   0.344  12.542   6.603
58954SOL    HW178759   0.259  12.586   6.598
58954SOL    HW278760   0.382  12.553   6.516
58955SOL     OW78761   2.997   0.996  10.153
58955SOL    HW178762   2.957   1.074  10.192
58955SOL    HW278763   3.087   0.997  10.186
58956SOL     OW78764   6.236   8.337   0.492
58956SOL    HW178765   6.286   8.322   0.412
58956SOL    HW278766   6.155   8.378   0.462
58957SOL     OW78767  11.825   1.817   1.464
58957SOL    HW178768  11.732   1.831   1.483
58957SOL    HW278769  11.861   1.782   1.545
58958SOL     OW78770   9.668  14.224  11.310
58958SOL    HW178771   9.607  14.288  11.348
58958SOL    HW278772   9.622  14.190  11.233
58959SOL     OW78773   3.945  13.097   1.659
58959SOL    HW178774   4.027  13.089   1.707
58959SOL    HW278775   3.907  13.180   1.689
58960SOL     OW78776   2.598  11.706   8.377
58960SOL    HW178777   2.642  11.730   8.296
58960SOL    HW278778   2.523  11.765   8.383
58961SOL     OW78779   6.752   8.585   3.281
58961SOL    HW178780   6.677   8.529   3.262
58961SOL    HW278781   6.814   8.568   3.210
58962SOL     OW78782   0.636  11.838  12.594
58962SOL    HW178783   0.631  11.799  12.682
58962SOL    HW278784   0.729  11.853  12.580
58963SOL     OW78785   3.096   9.317   4.052
58963SOL    HW178786   3.164   9.355   3.996
58963SOL    HW278787   3.079   9.231   4.014
58964SOL     OW78788  10.966   0.320   6.668
58964SOL    HW178789  10.918   0.275   6.737
58964SOL    HW278790  11.057   0.294   6.681
58965SOL     OW78791  12.114  10.937  10.439
58965SOL    HW178792  12.136  10.863  10.382
58965SOL    HW278793  12.198  10.975  10.464
58966SOL     OW78794   0.991  13.803  10.161
58966SOL    HW178795   1.045  13.736  10.117
58966SOL    HW278796   1.048  13.837  10.230
58967SOL     OW78797   7.474   6.999   5.251
58967SOL    HW178798   7.533   7.074   5.262
58967SOL    HW278799   7.388   7.038   5.236
58968SOL     OW78800  14.529  11.580   2.817
58968SOL    HW178801  14.471  11.625   2.878
58968SOL    HW278802  14.474  11.512   2.777
58969SOL     OW78803   4.199   4.410   9.053
58969SOL    HW178804   4.259   4.372   8.989
58969SOL    HW278805   4.197   4.503   9.031
58970SOL     OW78806  14.620  10.832   4.717
58970SOL    HW178807  14.646  10.777   4.643
58970SOL    HW278808  14.701  10.849   4.765
58971SOL     OW78809  12.175   5.715   1.386
58971SOL    HW178810  12.223   5.639   1.418
58971SOL    HW278811  12.151   5.764   1.465
58972SOL     OW78812  12.996   4.011   6.977
58972SOL    HW178813  13.054   3.974   6.911
58972SOL    HW278814  12.908   3.985   6.949
58973SOL     OW78815   7.151  13.174   6.472
58973SOL    HW178816   7.088  13.109   6.443
58973SOL    HW278817   7.112  13.211   6.552
58974SOL     OW78818   8.982   5.690   5.218
58974SOL    HW178819   9.052   5.646   5.266
58974SOL    HW278820   8.909   5.627   5.220
58975SOL     OW78821   0.394   7.956  12.596
58975SOL    HW178822   0.390   7.861  12.607
58975SOL    HW278823   0.486   7.978  12.610
58976SOL     OW78824   2.481  13.576  13.749
58976SOL    HW178825   2.470  13.666  13.718
58976SOL    HW278826   2.504  13.586  13.842
58977SOL     OW78827   3.504   6.751  11.605
58977SOL    HW178828   3.580   6.734  11.662
58977SOL    HW278829   3.439   6.687  11.632
58978SOL     OW78830   3.442  13.489   7.645
58978SOL    HW178831   3.397  13.408   7.670
58978SOL    HW278832   3.534  13.464   7.638
58979SOL     OW78833   1.527   8.467   4.660
58979SOL    HW178834   1.530   8.401   4.730
58979SOL    HW278835   1.585   8.536   4.689
58980SOL     OW78836   9.393   1.096   8.214
58980SOL    HW178837   9.380   1.040   8.291
58980SOL    HW278838   9.305   1.126   8.191
58981SOL     OW78839   2.683   6.735  13.545
58981SOL    HW178840   2.701   6.827  13.560
58981SOL    HW278841   2.608   6.733  13.486
58982SOL     OW78842   6.673   3.299   0.811
58982SOL    HW178843   6.729   3.330   0.881
58982SOL    HW278844   6.674   3.204   0.818
58983SOL     OW78845  13.812  13.782   0.855
58983SOL    HW178846  13.759  13.812   0.929
58983SOL    HW278847  13.750  13.773   0.783
58984SOL     OW78848   8.740   0.779   0.285
58984SOL    HW178849   8.709   0.796   0.374
58984SOL    HW278850   8.678   0.824   0.228
58985SOL     OW78851   7.289  14.715   7.107
58985SOL    HW178852   7.331  14.779   7.164
58985SOL    HW278853   7.198  14.744   7.102
58986SOL     OW78854   5.627   2.086   7.644
58986SOL    HW178855   5.619   2.162   7.587
58986SOL    HW278856   5.700   2.035   7.608
58987SOL     OW78857   8.377   2.130   2.151
58987SOL    HW178858   8.307   2.107   2.213
58987SOL    HW278859   8.431   2.051   2.146
58988SOL     OW78860  13.386   2.893   8.840
58988SOL    HW178861  13.432   2.959   8.789
58988SOL    HW278862  13.456   2.846   8.886
58989SOL     OW78863   6.866   0.176  13.871
58989SOL    HW178864   6.832   0.112  13.934
58989SOL    HW278865   6.794   0.189  13.809
58990SOL     OW78866   2.055   6.271   3.779
58990SOL    HW178867   2.100   6.198   3.822
58990SOL    HW278868   1.966   6.269   3.814
58991SOL     OW78869  12.988   7.979   2.991
58991SOL    HW178870  12.988   7.936   2.905
58991SOL    HW278871  12.895   7.984   3.015
58992SOL     OW78872  10.071   6.328  10.214
58992SOL    HW178873  10.095   6.286  10.296
58992SOL    HW278874  10.066   6.421  10.234
58993SOL     OW78875  10.138   2.890   5.703
58993SOL    HW178876  10.074   2.839   5.654
58993SOL    HW278877  10.085   2.948   5.759
58994SOL     OW78878  12.071   6.264   6.652
58994SOL    HW178879  12.135   6.304   6.711
58994SOL    HW278880  11.988   6.307   6.673
58995SOL     OW78881   8.337  10.742   6.968
58995SOL    HW178882   8.344  10.674   7.036
58995SOL    HW278883   8.258  10.717   6.918
58996SOL     OW78884   9.444   6.285   8.207
58996SOL    HW178885   9.507   6.254   8.142
58996SOL    HW278886   9.431   6.377   8.187
58997SOL     OW78887   7.447  12.640   7.573
58997SOL    HW178888   7.525  12.687   7.603
58997SOL    HW278889   7.385  12.709   7.551
58998SOL     OW78890   7.784   7.125   7.888
58998SOL    HW178891   7.808   7.210   7.850
58998SOL    HW278892   7.739   7.147   7.969
58999SOL     OW78893   5.643   3.271   9.791
58999SOL    HW178894   5.598   3.269   9.706
58999SOL    HW278895   5.587   3.221   9.849
59000SOL     OW78896   1.651  11.359   9.481
59000SOL    HW178897   1.735  11.368   9.438
59000SOL    HW278898   1.634  11.264   9.481
59001SOL     OW78899   5.592   5.970   3.084
59001SOL    HW178900   5.567   5.990   2.994
59001SOL    HW278901   5.572   5.876   3.095
59002SOL     OW78902   3.967   2.145   9.534
59002SOL    HW178903   4.036   2.140   9.468
59002SOL    HW278904   4.000   2.208   9.598
59003SOL     OW78905   0.636  10.163  12.849
59003SOL    HW178906   0.659  10.256  12.851
59003SOL    HW278907   0.630  10.138  12.941
59004SOL     OW78908   7.317   7.277   9.705
59004SOL    HW178909   7.257   7.222   9.756
59004SOL    HW278910   7.334   7.353   9.761
59005SOL     OW78911   1.707   1.170   2.418
59005SOL    HW178912   1.647   1.227   2.370
59005SOL    HW278913   1.649   1.115   2.472
59006SOL     OW78914   0.412  10.156   6.895
59006SOL    HW178915   0.362  10.206   6.830
59006SOL    HW278916   0.362  10.075   6.906
59007SOL     OW78917   1.545   2.427   4.057
59007SOL    HW178918   1.635   2.440   4.086
59007SOL    HW278919   1.538   2.476   3.976
59008SOL     OW78920  13.503  12.934   1.896
59008SOL    HW178921  13.442  12.970   1.960
59008SOL    HW278922  13.458  12.858   1.859
59009SOL     OW78923   2.064   7.742   6.586
59009SOL    HW178924   2.123   7.666   6.579
59009SOL    HW278925   1.976   7.704   6.584
59010SOL     OW78926   5.476   8.291   2.605
59010SOL    HW178927   5.456   8.365   2.662
59010SOL    HW278928   5.506   8.331   2.523
59011SOL     OW78929   5.315   6.715   6.264
59011SOL    HW178930   5.399   6.691   6.303
59011SOL    HW278931   5.312   6.810   6.270
59012SOL     OW78932  14.408   2.632   8.026
59012SOL    HW178933  14.491   2.665   8.060
59012SOL    HW278934  14.408   2.655   7.934
59013SOL     OW78935  12.471   9.608   1.660
59013SOL    HW178936  12.454   9.577   1.749
59013SOL    HW278937  12.403   9.566   1.607
59014SOL     OW78938  12.941   6.635   3.658
59014SOL    HW178939  12.917   6.619   3.567
59014SOL    HW278940  13.026   6.678   3.653
59015SOL     OW78941   7.892   3.963   2.192
59015SOL    HW178942   7.852   3.967   2.105
59015SOL    HW278943   7.854   3.885   2.232
59016SOL     OW78944   7.934  13.058   7.695
59016SOL    HW178945   7.982  13.000   7.635
59016SOL    HW278946   7.990  13.135   7.704
59017SOL     OW78947   5.033  14.071   9.638
59017SOL    HW178948   4.966  14.004   9.648
59017SOL    HW278949   5.116  14.024   9.642
59018SOL     OW78950   9.309  14.665   5.361
59018SOL    HW178951   9.386  14.630   5.405
59018SOL    HW278952   9.237  14.648   5.421
59019SOL     OW78953   7.917  12.200  11.369
59019SOL    HW178954   7.951  12.201  11.280
59019SOL    HW278955   7.995  12.198  11.425
59020SOL     OW78956   8.352  13.256   5.050
59020SOL    HW178957   8.320  13.177   5.093
59020SOL    HW278958   8.293  13.269   4.976
59021SOL     OW78959   6.248  12.144   5.464
59021SOL    HW178960   6.265  12.150   5.558
59021SOL    HW278961   6.311  12.078   5.433
59022SOL     OW78962   3.476   1.921   7.275
59022SOL    HW178963   3.503   1.917   7.184
59022SOL    HW278964   3.425   2.002   7.282
59023SOL     OW78965   5.267   4.358  12.812
59023SOL    HW178966   5.245   4.326  12.900
59023SOL    HW278967   5.343   4.306  12.786
59024SOL     OW78968  11.829   0.179   4.829
59024SOL    HW178969  11.802   0.243   4.894
59024SOL    HW278970  11.907   0.217   4.789
59025SOL     OW78971   6.728   8.882   9.282
59025SOL    HW178972   6.658   8.856   9.222
59025SOL    HW278973   6.688   8.878   9.369
59026SOL     OW78974  13.569  11.964   1.408
59026SOL    HW178975  13.482  11.978   1.445
59026SOL    HW278976  13.623  11.939   1.483
59027SOL     OW78977   1.384   3.555   4.881
59027SOL    HW178978   1.296   3.520   4.865
59027SOL    HW278979   1.443   3.493   4.840
59028SOL     OW78980   0.057   5.476   4.576
59028SOL    HW178981  14.855   5.476   4.621
59028SOL    HW278982   0.075   5.569   4.561
59029SOL     OW78983  14.425   9.478  11.675
59029SOL    HW178984  14.501   9.501  11.622
59029SOL    HW278985  14.421   9.546  11.742
59030SOL     OW78986   5.291   8.852   4.871
59030SOL    HW178987   5.264   8.773   4.917
59030SOL    HW278988   5.215   8.909   4.874
59031SOL     OW78989   7.377   9.128   5.490
59031SOL    HW178990   7.402   9.037   5.476
59031SOL    HW278991   7.342   9.130   5.579
59032SOL     OW78992   0.523   1.304  14.846
59032SOL    HW178993   0.573   1.384  14.861
59032SOL    HW278994   0.458   1.328  14.780
59033SOL     OW78995   2.326   8.995   3.747
59033SOL    HW178996   2.347   8.917   3.800
59033SOL    HW278997   2.268   9.046   3.803
59034SOL     OW78998   1.715  13.283  13.442
59034SOL    HW178999   1.732  13.376  13.455
59034SOL    HW279000   1.620  13.275  13.443
59035SOL     OW79001   7.414   2.275   0.983
59035SOL    HW179002   7.370   2.235   0.908
59035SOL    HW279003   7.469   2.205   1.019
59036SOL     OW79004  12.017   7.902   6.349
59036SOL    HW179005  12.000   7.938   6.262
59036SOL    HW279006  12.107   7.870   6.345
59037SOL     OW79007   2.515   9.667  10.672
59037SOL    HW179008   2.609   9.652  10.657
59037SOL    HW279009   2.480   9.691  10.586
59038SOL     OW79010   2.279   1.293   7.832
59038SOL    HW179011   2.372   1.276   7.820
59038SOL    HW279012   2.263   1.280   7.925
59039SOL     OW79013  11.881  11.444   4.829
59039SOL    HW179014  11.826  11.495   4.888
59039SOL    HW279015  11.960  11.496   4.817
59040SOL     OW79016   1.280   9.391  14.243
59040SOL    HW179017   1.323   9.413  14.161
59040SOL    HW279018   1.224   9.466  14.262
59041SOL     OW79019  12.236  14.323   5.449
59041SOL    HW179020  12.297  14.308   5.378
59041SOL    HW279021  12.291  14.342   5.525
59042SOL     OW79022   5.784   0.616   1.225
59042SOL    HW179023   5.745   0.696   1.189
59042SOL    HW279024   5.878   0.628   1.215
59043SOL     OW79025   4.185   9.224   8.684
59043SOL    HW179026   4.149   9.300   8.731
59043SOL    HW279027   4.141   9.225   8.599
59044SOL     OW79028  10.441   1.079  13.324
59044SOL    HW179029  10.491   1.009  13.365
59044SOL    HW279030  10.363   1.089  13.378
59045SOL     OW79031  11.387  11.218   5.147
59045SOL    HW179032  11.304  11.218   5.194
59045SOL    HW279033  11.436  11.145   5.185
59046SOL     OW79034   4.117  10.068   1.804
59046SOL    HW179035   4.182  10.125   1.844
59046SOL    HW279036   4.033  10.106   1.832
59047SOL     OW79037  13.931  14.012   9.039
59047SOL    HW179038  13.915  14.049   9.125
59047SOL    HW279039  13.937  13.917   9.054
59048SOL     OW79040   6.265  11.725   2.764
59048SOL    HW179041   6.179  11.692   2.789
59048SOL    HW279042   6.327  11.666   2.807
59049SOL     OW79043   2.346  14.681   4.859
59049SOL    HW179044   2.382  14.598   4.826
59049SOL    HW279045   2.404  14.748   4.824
59050SOL     OW79046   8.756  13.551   5.567
59050SOL    HW179047   8.698  13.622   5.538
59050SOL    HW279048   8.705  13.471   5.554
59051SOL     OW79049  13.754   3.983   2.262
59051SOL    HW179050  13.799   3.915   2.312
59051SOL    HW279051  13.665   3.950   2.252
59052SOL     OW79052   8.120   3.477   3.268
59052SOL    HW179053   8.153   3.465   3.179
59052SOL    HW279054   8.163   3.408   3.319
59053SOL     OW79055   1.332   1.426   8.894
59053SOL    HW179056   1.390   1.413   8.818
59053SOL    HW279057   1.374   1.375   8.964
59054SOL     OW79058   9.279   4.665   5.154
59054SOL    HW179059   9.335   4.588   5.158
59054SOL    HW279060   9.296   4.712   5.235
59055SOL     OW79061  13.863   6.115   5.795
59055SOL    HW179062  13.816   6.111   5.712
59055SOL    HW279063  13.928   6.045   5.789
59056SOL     OW79064   9.708   5.857   0.844
59056SOL    HW179065   9.666   5.780   0.882
59056SOL    HW279066   9.731   5.830   0.755
59057SOL     OW79067   8.361  13.425  11.941
59057SOL    HW179068   8.288  13.376  11.904
59057SOL    HW279069   8.321  13.501  11.982
59058SOL     OW79070  12.047   9.466  13.360
59058SOL    HW179071  12.066   9.374  13.340
59058SOL    HW279072  12.114   9.492  13.423
59059SOL     OW79073   8.259   4.612  12.147
59059SOL    HW179074   8.320   4.648  12.211
59059SOL    HW279075   8.208   4.688  12.118
59060SOL     OW79076  14.521   5.110   0.004
59060SOL    HW179077  14.517   5.169   0.079
59060SOL    HW279078  14.512   5.167  14.810
59061SOL     OW79079   0.662   8.689   7.521
59061SOL    HW179080   0.713   8.769   7.528
59061SOL    HW279081   0.666   8.666   7.428
59062SOL     OW79082   2.290   0.454   1.097
59062SOL    HW179083   2.332   0.535   1.126
59062SOL    HW279084   2.250   0.476   1.013
59063SOL     OW79085   1.395   7.097   5.351
59063SOL    HW179086   1.432   7.023   5.399
59063SOL    HW279087   1.460   7.167   5.359
59064SOL     OW79088   0.610   3.326   2.218
59064SOL    HW179089   0.678   3.287   2.272
59064SOL    HW279090   0.656   3.389   2.162
59065SOL     OW79091  11.062   4.864   2.594
59065SOL    HW179092  11.111   4.800   2.542
59065SOL    HW279093  10.998   4.811   2.642
59066SOL     OW79094  14.459   2.187   3.466
59066SOL    HW179095  14.388   2.130   3.494
59066SOL    HW279096  14.425   2.276   3.480
59067SOL     OW79097  10.618  14.052   2.142
59067SOL    HW179098  10.539  14.021   2.186
59067SOL    HW279099  10.602  14.035   2.049
59068SOL     OW79100   9.355   9.072  12.106
59068SOL    HW179101   9.415   9.041  12.038
59068SOL    HW279102   9.386   9.030  12.186
59069SOL     OW79103   9.825   3.821   5.995
59069SOL    HW179104   9.770   3.790   6.067
59069SOL    HW279105   9.764   3.841   5.924
59070SOL     OW79106   7.979   3.968   9.106
59070SOL    HW179107   8.054   3.958   9.046
59070SOL    HW279108   7.903   3.974   9.048
59071SOL     OW79109  11.586  12.771   2.698
59071SOL    HW179110  11.502  12.815   2.680
59071SOL    HW279111  11.567  12.678   2.685
59072SOL     OW79112   6.588   7.697   1.079
59072SOL    HW179113   6.671   7.671   1.120
59072SOL    HW279114   6.596   7.668   0.988
59073SOL     OW79115   3.651   0.833   9.193
59073SOL    HW179116   3.683   0.776   9.123
59073SOL    HW279117   3.612   0.908   9.148
59074SOL     OW79118   0.655  13.584   6.250
59074SOL    HW179119   0.621  13.504   6.290
59074SOL    HW279120   0.662  13.646   6.322
59075SOL     OW79121   3.138   5.667   6.439
59075SOL    HW179122   3.081   5.691   6.512
59075SOL    HW279123   3.115   5.728   6.369
59076SOL     OW79124   2.251   3.012   4.285
59076SOL    HW179125   2.328   3.068   4.280
59076SOL    HW279126   2.285   2.927   4.312
59077SOL     OW79127   5.811  11.872  13.626
59077SOL    HW179128   5.843  11.962  13.627
59077SOL    HW279129   5.719  11.880  13.602
59078SOL     OW79130   1.092   5.928   8.611
59078SOL    HW179131   1.118   6.011   8.651
59078SOL    HW279132   1.125   5.861   8.671
59079SOL     OW79133   1.093   3.187   4.459
59079SOL    HW179134   1.134   3.101   4.472
59079SOL    HW279135   1.015   3.168   4.407
59080SOL     OW79136  14.607   7.582  11.242
59080SOL    HW179137  14.534   7.585  11.181
59080SOL    HW279138  14.573   7.620  11.323
59081SOL     OW79139   0.762   5.849   9.426
59081SOL    HW179140   0.817   5.774   9.406
59081SOL    HW279141   0.823   5.917   9.454
59082SOL     OW79142   7.618   7.468  13.144
59082SOL    HW179143   7.548   7.500  13.201
59082SOL    HW279144   7.623   7.531  13.073
59083SOL     OW79145   4.091  13.830   9.189
59083SOL    HW179146   4.053  13.906   9.143
59083SOL    HW279147   4.027  13.810   9.257
59084SOL     OW79148   1.310  12.232   2.462
59084SOL    HW179149   1.245  12.301   2.476
59084SOL    HW279150   1.377  12.274   2.408
59085SOL     OW79151  11.228   4.299   8.891
59085SOL    HW179152  11.195   4.277   8.978
59085SOL    HW279153  11.286   4.374   8.905
59086SOL     OW79154  13.210  12.884   0.892
59086SOL    HW179155  13.246  12.846   0.973
59086SOL    HW279156  13.254  12.968   0.884
59087SOL     OW79157   3.991   0.816   8.182
59087SOL    HW179158   3.964   0.802   8.091
59087SOL    HW279159   4.078   0.855   8.175
59088SOL     OW79160   2.661  13.825   3.811
59088SOL    HW179161   2.581  13.785   3.778
59088SOL    HW279162   2.720  13.825   3.736
59089SOL     OW79163  14.212   2.311  14.745
59089SOL    HW179164  14.125   2.272  14.754
59089SOL    HW279165  14.272   2.239  14.764
59090SOL     OW79166   0.049  12.799  11.568
59090SOL    HW179167   0.110  12.842  11.508
59090SOL    HW279168   0.063  12.705  11.553
59091SOL     OW79169  12.229   1.077   5.842
59091SOL    HW179170  12.181   1.156   5.815
59091SOL    HW279171  12.166   1.006   5.830
59092SOL     OW79172   8.894  13.239  14.129
59092SOL    HW179173   8.818  13.240  14.187
59092SOL    HW279174   8.948  13.312  14.160
59093SOL     OW79175  10.839   8.447   3.294
59093SOL    HW179176  10.753   8.468   3.330
59093SOL    HW279177  10.841   8.352   3.288
59094SOL     OW79178   2.864  12.027  14.707
59094SOL    HW179179   2.836  12.118  14.692
59094SOL    HW279180   2.892  12.026  14.798
59095SOL     OW79181  12.666   4.349  13.448
59095SOL    HW179182  12.597   4.416  13.453
59095SOL    HW279183  12.663   4.319  13.357
59096SOL     OW79184   3.240  14.049   2.404
59096SOL    HW179185   3.190  13.976   2.366
59096SOL    HW279186   3.187  14.126   2.385
59097SOL     OW79187   7.503  11.149   8.404
59097SOL    HW179188   7.585  11.173   8.362
59097SOL    HW279189   7.506  11.192   8.490
59098SOL     OW79190   2.731   1.698   7.028
59098SOL    HW179191   2.651   1.658   6.992
59098SOL    HW279192   2.721   1.791   7.011
59099SOL     OW79193   7.449  14.189  10.348
59099SOL    HW179194   7.392  14.119  10.315
59099SOL    HW279195   7.436  14.186  10.443
59100SOL     OW79196   6.000   5.868   1.041
59100SOL    HW179197   5.925   5.829   0.995
59100SOL    HW279198   6.076   5.845   0.988
59101SOL     OW79199   2.293   4.528   8.439
59101SOL    HW179200   2.365   4.538   8.501
59101SOL    HW279201   2.228   4.592   8.467
59102SOL     OW79202   9.334  12.468  14.066
59102SOL    HW179203   9.391  12.464  13.989
59102SOL    HW279204   9.283  12.387  14.063
59103SOL     OW79205   3.776   6.239  12.994
59103SOL    HW179206   3.826   6.315  12.964
59103SOL    HW279207   3.807   6.167  12.940
59104SOL     OW79208   0.330   3.858   9.839
59104SOL    HW179209   0.334   3.950   9.813
59104SOL    HW279210   0.421   3.828   9.837
59105SOL     OW79211   5.337  11.321   4.697
59105SOL    HW179212   5.277  11.372   4.643
59105SOL    HW279213   5.421  11.367   4.688
59106SOL     OW79214  14.502   7.286   5.750
59106SOL    HW179215  14.471   7.298   5.660
59106SOL    HW279216  14.484   7.194   5.770
59107SOL     OW79217   8.212   9.554   8.619
59107SOL    HW179218   8.283   9.547   8.683
59107SOL    HW279219   8.140   9.504   8.658
59108SOL     OW79220  13.005  11.402  12.518
59108SOL    HW179221  13.067  11.425  12.449
59108SOL    HW279222  13.026  11.462  12.590
59109SOL     OW79223   8.586   3.387   3.767
59109SOL    HW179224   8.516   3.337   3.724
59109SOL    HW279225   8.540   3.447   3.825
59110SOL     OW79226   2.303   6.400   2.867
59110SOL    HW179227   2.368   6.371   2.803
59110SOL    HW279228   2.264   6.479   2.827
59111SOL     OW79229   7.008  12.962   1.718
59111SOL    HW179230   7.066  12.955   1.794
59111SOL    HW279231   7.067  12.977   1.644
59112SOL     OW79232   7.620  11.597   0.741
59112SOL    HW179233   7.540  11.585   0.791
59112SOL    HW279234   7.681  11.638   0.803
59113SOL     OW79235  10.456   0.900   1.269
59113SOL    HW179236  10.472   0.978   1.322
59113SOL    HW279237  10.489   0.923   1.182
59114SOL     OW79238  12.918   6.811   5.303
59114SOL    HW179239  12.857   6.885   5.309
59114SOL    HW279240  12.920   6.775   5.392
59115SOL     OW79241   5.424   3.497  11.775
59115SOL    HW179242   5.449   3.548  11.851
59115SOL    HW279243   5.335   3.524  11.755
59116SOL     OW79244   5.864  11.814   7.169
59116SOL    HW179245   5.899  11.735   7.209
59116SOL    HW279246   5.895  11.885   7.225
59117SOL     OW79247   5.050   7.229   2.097
59117SOL    HW179248   5.104   7.278   2.034
59117SOL    HW279249   5.050   7.140   2.063
59118SOL     OW79250  13.061  10.778  10.056
59118SOL    HW179251  13.090  10.802   9.968
59118SOL    HW279252  13.095  10.689  10.069
59119SOL     OW79253  11.814   8.171  13.736
59119SOL    HW179254  11.898   8.135  13.763
59119SOL    HW279255  11.791   8.121  13.657
59120SOL     OW79256   5.311   3.075   5.716
59120SOL    HW179257   5.259   3.066   5.795
59120SOL    HW279258   5.264   3.139   5.663
59121SOL     OW79259   9.548  11.558  12.852
59121SOL    HW179260   9.551  11.539  12.946
59121SOL    HW279261   9.626  11.611  12.836
59122SOL     OW79262  11.804   3.591   3.963
59122SOL    HW179263  11.727   3.549   3.925
59122SOL    HW279264  11.775   3.681   3.981
59123SOL     OW79265   3.629  10.712  10.185
59123SOL    HW179266   3.676  10.637  10.222
59123SOL    HW279267   3.536  10.691  10.198
59124SOL     OW79268  13.974  12.055   0.404
59124SOL    HW179269  14.050  11.998   0.391
59124SOL    HW279270  14.001  12.140   0.370
59125SOL     OW79271   3.779  14.366   6.215
59125SOL    HW179272   3.788  14.461   6.230
59125SOL    HW279273   3.687  14.347   6.234
59126SOL     OW79274   0.172   5.751   8.887
59126SOL    HW179275   0.223   5.830   8.865
59126SOL    HW279276   0.135   5.769   8.974
59127SOL     OW79277  13.335   4.696   2.051
59127SOL    HW179278  13.416   4.660   2.088
59127SOL    HW279279  13.272   4.691   2.123
59128SOL     OW79280   8.813   2.075  10.438
59128SOL    HW179281   8.756   2.151  10.438
59128SOL    HW279282   8.756   2.002  10.461
59129SOL     OW79283   2.256   4.908  10.496
59129SOL    HW179284   2.275   4.848  10.568
59129SOL    HW279285   2.251   4.994  10.538
59130SOL     OW79286   3.843   0.083   5.649
59130SOL    HW179287   3.861   0.062   5.557
59130SOL    HW279288   3.891   0.017   5.698
59131SOL     OW79289  14.843  14.155   1.490
59131SOL    HW179290  14.848  14.066   1.456
59131SOL    HW279291   0.019  14.156   1.565
59132SOL     OW79292  14.472  12.431  14.066
59132SOL    HW179293  14.387  12.475  14.071
59132SOL    HW279294  14.465  12.360  14.130
59133SOL     OW79295   3.817  14.221   9.135
59133SOL    HW179296   3.844  14.147   9.080
59133SOL    HW279297   3.846  14.198   9.223
59134SOL     OW79298   9.230  11.337  10.245
59134SOL    HW179299   9.154  11.371  10.291
59134SOL    HW279300   9.219  11.369  10.155
59135SOL     OW79301   5.845  13.236   9.255
59135SOL    HW179302   5.941  13.238   9.257
59135SOL    HW279303   5.818  13.285   9.332
59136SOL     OW79304   3.255   9.515   0.144
59136SOL    HW179305   3.290   9.438   0.099
59136SOL    HW279306   3.180   9.541   0.092
59137SOL     OW79307  12.529   4.483  11.158
59137SOL    HW179308  12.476   4.520  11.087
59137SOL    HW279309  12.571   4.559  11.197
59138SOL     OW79310   5.553   6.577   9.753
59138SOL    HW179311   5.556   6.610   9.843
59138SOL    HW279312   5.645   6.577   9.725
59139SOL     OW79313   7.232  11.033  11.131
59139SOL    HW179314   7.157  11.079  11.168
59139SOL    HW279315   7.199  10.945  11.113
59140SOL     OW79316   2.570  11.605   8.822
59140SOL    HW179317   2.526  11.521   8.838
59140SOL    HW279318   2.511  11.652   8.763
59141SOL     OW79319   9.900   8.817   6.621
59141SOL    HW179320   9.835   8.746   6.613
59141SOL    HW279321   9.965   8.797   6.554
59142SOL     OW79322   4.730  11.912   5.755
59142SOL    HW179323   4.802  11.877   5.702
59142SOL    HW279324   4.691  11.835   5.796
59143SOL     OW79325  11.796   0.259   3.067
59143SOL    HW179326  11.795   0.168   3.096
59143SOL    HW279327  11.711   0.271   3.024
59144SOL     OW79328   4.617  14.249   5.874
59144SOL    HW179329   4.527  14.279   5.884
59144SOL    HW279330   4.656  14.261   5.960
59145SOL     OW79331  12.421   7.893   5.240
59145SOL    HW179332  12.430   7.931   5.327
59145SOL    HW279333  12.420   7.798   5.255
59146SOL     OW79334   9.004   6.647   8.976
59146SOL    HW179335   8.950   6.595   9.035
59146SOL    HW279336   8.986   6.738   9.001
59147SOL     OW79337   4.382   1.741   8.742
59147SOL    HW179338   4.465   1.743   8.788
59147SOL    HW279339   4.406   1.733   8.649
59148SOL     OW79340  14.645   0.873  12.310
59148SOL    HW179341  14.706   0.940  12.282
59148SOL    HW279342  14.593   0.853  12.232
59149SOL     OW79343  13.592   1.138  13.150
59149SOL    HW179344  13.576   1.044  13.134
59149SOL    HW279345  13.679   1.154  13.115
59150SOL     OW79346  11.904   4.496   6.254
59150SOL    HW179347  11.916   4.431   6.324
59150SOL    HW279348  11.854   4.450   6.187
59151SOL     OW79349  13.715   6.582   6.112
59151SOL    HW179350  13.654   6.640   6.068
59151SOL    HW279351  13.737   6.516   6.047
59152SOL     OW79352   3.689   1.255   6.987
59152SOL    HW179353   3.611   1.285   7.034
59152SOL    HW279354   3.699   1.163   7.014
59153SOL     OW79355   3.454   2.573   7.771
59153SOL    HW179356   3.438   2.480   7.759
59153SOL    HW279357   3.398   2.597   7.845
59154SOL     OW79358  11.808   9.526  12.156
59154SOL    HW179359  11.845   9.600  12.203
59154SOL    HW279360  11.723   9.511  12.197
59155SOL     OW79361   6.765   6.102   7.493
59155SOL    HW179362   6.806   6.073   7.575
59155SOL    HW279363   6.682   6.056   7.490
59156SOL     OW79364   1.186   3.572  14.138
59156SOL    HW179365   1.246   3.513  14.184
59156SOL    HW279366   1.241   3.614  14.071
59157SOL     OW79367  13.943   3.714  11.057
59157SOL    HW179368  13.924   3.807  11.050
59157SOL    HW279369  13.864   3.671  11.023
59158SOL     OW79370  13.071   4.310   2.656
59158SOL    HW179371  13.089   4.252   2.730
59158SOL    HW279372  12.986   4.349   2.676
59159SOL     OW79373  10.115  13.163   7.726
59159SOL    HW179374  10.150  13.080   7.760
59159SOL    HW279375  10.179  13.229   7.753
59160SOL     OW79376  12.753   2.502   7.081
59160SOL    HW179377  12.728   2.442   7.011
59160SOL    HW279378  12.670   2.537   7.114
59161SOL     OW79379   3.038   6.635   6.141
59161SOL    HW179380   2.944   6.625   6.127
59161SOL    HW279381   3.064   6.703   6.078
59162SOL     OW79382   5.515  10.781  14.126
59162SOL    HW179383   5.449  10.821  14.183
59162SOL    HW279384   5.464  10.732  14.062
59163SOL     OW79385  12.003   9.209   5.920
59163SOL    HW179386  11.940   9.164   5.977
59163SOL    HW279387  12.036   9.281   5.973
59164SOL     OW79388   8.435   2.309  10.652
59164SOL    HW179389   8.391   2.391  10.672
59164SOL    HW279390   8.373   2.261  10.597
59165SOL     OW79391  12.889   4.587  12.999
59165SOL    HW179392  12.954   4.579  12.929
59165SOL    HW279393  12.807   4.603  12.954
59166SOL     OW79394  12.134   9.500  12.312
59166SOL    HW179395  12.175   9.539  12.235
59166SOL    HW279396  12.053   9.550  12.325
59167SOL     OW79397   0.618  12.758   1.385
59167SOL    HW179398   0.586  12.836   1.431
59167SOL    HW279399   0.713  12.770   1.379
59168SOL     OW79400   5.017  10.244   7.260
59168SOL    HW179401   4.985  10.243   7.351
59168SOL    HW279402   4.974  10.169   7.219
59169SOL     OW79403  13.918   5.708  12.275
59169SOL    HW179404  13.943   5.616  12.267
59169SOL    HW279405  13.991   5.757  12.237
59170SOL     OW79406   2.828  11.581  13.880
59170SOL    HW179407   2.828  11.626  13.796
59170SOL    HW279408   2.736  11.576  13.905
59171SOL     OW79409   6.603  10.112  10.189
59171SOL    HW179410   6.599  10.102  10.284
59171SOL    HW279411   6.512  10.117  10.162
59172SOL     OW79412   6.107  13.185  10.885
59172SOL    HW179413   6.197  13.151  10.890
59172SOL    HW279414   6.076  13.184  10.976
59173SOL     OW79415   3.980  12.653  12.533
59173SOL    HW179416   3.991  12.742  12.501
59173SOL    HW279417   3.888  12.632  12.518
59174SOL     OW79418   9.357   8.960   1.359
59174SOL    HW179419   9.314   9.041   1.333
59174SOL    HW279420   9.356   8.962   1.454
59175SOL     OW79421   5.184   1.662  14.197
59175SOL    HW179422   5.145   1.630  14.116
59175SOL    HW279423   5.122   1.638  14.266
59176SOL     OW79424   1.092  11.611  10.699
59176SOL    HW179425   1.052  11.631  10.614
59176SOL    HW279426   1.178  11.574  10.677
59177SOL     OW79427  14.411   7.660   3.986
59177SOL    HW179428  14.329   7.699   3.954
59177SOL    HW279429  14.480   7.716   3.951
59178SOL     OW79430   5.091   4.846  13.957
59178SOL    HW179431   5.150   4.877  13.888
59178SOL    HW279432   5.004   4.848  13.917
59179SOL     OW79433   7.290   9.233   1.196
59179SOL    HW179434   7.285   9.138   1.207
59179SOL    HW279435   7.206   9.265   1.229
59180SOL     OW79436  11.229   7.567   8.694
59180SOL    HW179437  11.176   7.504   8.645
59180SOL    HW279438  11.281   7.513   8.754
59181SOL     OW79439   6.260  12.078  11.925
59181SOL    HW179440   6.175  12.049  11.960
59181SOL    HW279441   6.240  12.110  11.838
59182SOL     OW79442   8.850   1.934  12.400
59182SOL    HW179443   8.788   1.884  12.453
59182SOL    HW279444   8.859   2.018  12.445
59183SOL     OW79445   9.505   2.240   4.401
59183SOL    HW179446   9.513   2.208   4.490
59183SOL    HW279447   9.570   2.311   4.395
59184SOL     OW79448   0.387   4.665  12.994
59184SOL    HW179449   0.302   4.700  13.023
59184SOL    HW279450   0.419   4.730  12.932
59185SOL     OW79451   6.788   6.749   5.145
59185SOL    HW179452   6.713   6.724   5.091
59185SOL    HW279453   6.763   6.834   5.183
59186SOL     OW79454  10.173   9.804   4.998
59186SOL    HW179455  10.182   9.882   5.052
59186SOL    HW279456  10.080   9.780   5.007
59187SOL     OW79457   8.179   4.607   5.543
59187SOL    HW179458   8.135   4.635   5.463
59187SOL    HW279459   8.136   4.656   5.613
59188SOL     OW79460  10.190  12.530   7.764
59188SOL    HW179461  10.254  12.519   7.834
59188SOL    HW279462  10.209  12.616   7.727
59189SOL     OW79463  11.070  14.744   9.913
59189SOL    HW179464  11.147  14.707   9.870
59189SOL    HW279465  11.095  14.834   9.934
59190SOL     OW79466  10.031  13.425   6.122
59190SOL    HW179467  10.075  13.434   6.037
59190SOL    HW279468   9.982  13.507   6.131
59191SOL     OW79469  10.822   4.871  14.534
59191SOL    HW179470  10.860   4.953  14.503
59191SOL    HW279471  10.730   4.876  14.508
59192SOL     OW79472   9.537   4.584   1.626
59192SOL    HW179473   9.502   4.523   1.561
59192SOL    HW279474   9.462   4.640   1.648
59193SOL     OW79475  13.108  14.131  11.394
59193SOL    HW179476  13.079  14.186  11.467
59193SOL    HW279477  13.112  14.043  11.430
59194SOL     OW79478   5.689  10.328   9.725
59194SOL    HW179479   5.655  10.240   9.741
59194SOL    HW279480   5.752  10.317   9.654
59195SOL     OW79481  13.093  12.545   4.712
59195SOL    HW179482  13.040  12.526   4.790
59195SOL    HW279483  13.172  12.588   4.746
59196SOL     OW79484  11.505   0.233   3.444
59196SOL    HW179485  11.567   0.160   3.435
59196SOL    HW279486  11.509   0.257   3.537
59197SOL     OW79487   6.060   5.669   4.947
59197SOL    HW179488   6.015   5.602   4.999
59197SOL    HW279489   6.110   5.719   5.011
59198SOL     OW79490  14.854   0.327   7.103
59198SOL    HW179491  14.813   0.413   7.092
59198SOL    HW279492  14.786   0.273   7.143
59199SOL     OW79493  10.623  11.809  11.928
59199SOL    HW179494  10.663  11.896  11.918
59199SOL    HW279495  10.610  11.779  11.838
59200SOL     OW79496   3.472   9.735  10.577
59200SOL    HW179497   3.407   9.714  10.510
59200SOL    HW279498   3.486   9.829  10.568
59201SOL     OW79499   0.934  14.464   1.548
59201SOL    HW179500   0.967  14.549   1.577
59201SOL    HW279501   0.914  14.417   1.630
59202SOL     OW79502  11.425  13.218   7.700
59202SOL    HW179503  11.475  13.248   7.624
59202SOL    HW279504  11.492  13.184   7.760
59203SOL     OW79505   6.146   1.825   8.313
59203SOL    HW179506   6.177   1.913   8.291
59203SOL    HW279507   6.063   1.816   8.265
59204SOL     OW79508   7.542  11.355   3.494
59204SOL    HW179509   7.494  11.399   3.424
59204SOL    HW279510   7.630  11.345   3.460
59205SOL     OW79511   2.693   9.775   0.082
59205SOL    HW179512   2.760   9.843   0.093
59205SOL    HW279513   2.643   9.803   0.005
59206SOL     OW79514  11.848  11.178  10.161
59206SOL    HW179515  11.776  11.239  10.179
59206SOL    HW279516  11.816  11.125  10.088
59207SOL     OW79517   0.629   1.638   2.921
59207SOL    HW179518   0.669   1.632   2.835
59207SOL    HW279519   0.672   1.570   2.973
59208SOL     OW79520   0.556   5.121   1.837
59208SOL    HW179521   0.481   5.147   1.784
59208SOL    HW279522   0.566   5.027   1.821
59209SOL     OW79523  12.441  14.782   6.673
59209SOL    HW179524  12.404  14.865   6.703
59209SOL    HW279525  12.520  14.807   6.625
59210SOL     OW79526   1.745   3.896  11.321
59210SOL    HW179527   1.661   3.852  11.335
59210SOL    HW279528   1.786   3.847  11.250
59211SOL     OW79529  12.023   4.729   6.227
59211SOL    HW179530  11.970   4.804   6.200
59211SOL    HW279531  11.959   4.658   6.239
59212SOL     OW79532   3.944  12.566   5.216
59212SOL    HW179533   3.938  12.478   5.180
59212SOL    HW279534   3.987  12.556   5.301
59213SOL     OW79535   3.572  13.743   2.309
59213SOL    HW179536   3.526  13.660   2.306
59213SOL    HW279537   3.515  13.801   2.359
59214SOL     OW79538   9.194  13.568  10.991
59214SOL    HW179539   9.197  13.484  10.945
59214SOL    HW279540   9.285  13.598  10.993
59215SOL     OW79541   4.316   8.344   7.013
59215SOL    HW179542   4.241   8.302   6.971
59215SOL    HW279543   4.278   8.415   7.064
59216SOL     OW79544   6.715   1.897   2.856
59216SOL    HW179545   6.694   1.838   2.927
59216SOL    HW279546   6.730   1.840   2.780
59217SOL     OW79547   1.560   5.131  12.325
59217SOL    HW179548   1.479   5.147  12.373
59217SOL    HW279549   1.534   5.133  12.233
59218SOL     OW79550  11.737   3.707   8.566
59218SOL    HW179551  11.664   3.660   8.606
59218SOL    HW279552  11.714   3.799   8.572
59219SOL     OW79553   3.674  12.454   7.221
59219SOL    HW179554   3.696  12.378   7.167
59219SOL    HW279555   3.744  12.517   7.204
59220SOL     OW79556   0.776  12.574   3.659
59220SOL    HW179557   0.771  12.665   3.686
59220SOL    HW279558   0.752  12.524   3.737
59221SOL     OW79559   3.618   0.592   3.397
59221SOL    HW179560   3.558   0.583   3.323
59221SOL    HW279561   3.701   0.619   3.357
59222SOL     OW79562   7.062   0.823   5.898
59222SOL    HW179563   7.000   0.880   5.943
59222SOL    HW279564   7.049   0.842   5.805
59223SOL     OW79565   2.070   0.938   5.090
59223SOL    HW179566   2.073   0.871   5.022
59223SOL    HW279567   2.115   0.899   5.165
59224SOL     OW79568   4.259   2.078  12.009
59224SOL    HW179569   4.223   2.088  11.921
59224SOL    HW279570   4.346   2.116  12.004
59225SOL     OW79571   9.524  10.621   5.314
59225SOL    HW179572   9.494  10.620   5.405
59225SOL    HW279573   9.582  10.545   5.307
59226SOL     OW79574   1.614   0.487   7.871
59226SOL    HW179575   1.623   0.401   7.911
59226SOL    HW279576   1.525   0.515   7.892
59227SOL     OW79577   6.509  11.257   3.401
59227SOL    HW179578   6.561  11.207   3.464
59227SOL    HW279579   6.518  11.209   3.318
59228SOL     OW79580   1.836   5.485   9.497
59228SOL    HW179581   1.861   5.547   9.565
59228SOL    HW279582   1.803   5.540   9.426
59229SOL     OW79583   8.424  11.232   2.222
59229SOL    HW179584   8.340  11.253   2.262
59229SOL    HW279585   8.471  11.183   2.289
59230SOL     OW79586   2.102   7.680   6.115
59230SOL    HW179587   2.090   7.692   6.021
59230SOL    HW279588   2.136   7.591   6.124
59231SOL     OW79589   4.581  10.270  10.979
59231SOL    HW179590   4.655  10.255  10.920
59231SOL    HW279591   4.613  10.242  11.065
59232SOL     OW79592  13.983  14.500  10.281
59232SOL    HW179593  13.936  14.572  10.323
59232SOL    HW279594  14.027  14.455  10.353
59233SOL     OW79595  10.775   1.601   7.896
59233SOL    HW179596  10.705   1.535   7.898
59233SOL    HW279597  10.754   1.660   7.968
59234SOL     OW79598   8.231  12.741  13.718
59234SOL    HW179599   8.232  12.699  13.804
59234SOL    HW279600   8.295  12.692  13.666
59235SOL     OW79601   5.018   5.754   9.858
59235SOL    HW179602   4.938   5.718   9.896
59235SOL    HW279603   4.989   5.798   9.778
59236SOL     OW79604   8.362  12.483   6.776
59236SOL    HW179605   8.388  12.501   6.685
59236SOL    HW279606   8.299  12.412   6.769
59237SOL     OW79607  13.799  14.395   7.315
59237SOL    HW179608  13.867  14.458   7.291
59237SOL    HW279609  13.847  14.312   7.327
59238SOL     OW79610   9.072   5.719   2.037
59238SOL    HW179611   9.164   5.746   2.031
59238SOL    HW279612   9.023   5.800   2.047
59239SOL     OW79613   2.607   0.579   4.891
59239SOL    HW179614   2.617   0.655   4.834
59239SOL    HW279615   2.691   0.534   4.886
59240SOL     OW79616  13.553   8.539   3.889
59240SOL    HW179617  13.477   8.491   3.857
59240SOL    HW279618  13.628   8.489   3.856
59241SOL     OW79619   5.146   2.653   8.582
59241SOL    HW179620   5.142   2.559   8.597
59241SOL    HW279621   5.236   2.677   8.604
59242SOL     OW79622  11.126  12.658   9.519
59242SOL    HW179623  11.072  12.736   9.531
59242SOL    HW279624  11.114  12.607   9.599
59243SOL     OW79625   6.687   7.108   6.986
59243SOL    HW179626   6.610   7.097   7.042
59243SOL    HW279627   6.761   7.090   7.043
59244SOL     OW79628   2.673   0.806   0.219
59244SOL    HW179629   2.736   0.742   0.254
59244SOL    HW279630   2.641   0.766   0.138
59245SOL     OW79631   5.899   1.008   8.278
59245SOL    HW179632   5.959   0.938   8.251
59245SOL    HW279633   5.817   0.988   8.234
59246SOL     OW79634   4.826   8.361   8.319
59246SOL    HW179635   4.846   8.362   8.413
59246SOL    HW279636   4.878   8.288   8.284
59247SOL     OW79637  13.470   9.861  12.514
59247SOL    HW179638  13.548   9.910  12.540
59247SOL    HW279639  13.423   9.847  12.596
59248SOL     OW79640   6.115   1.007   0.890
59248SOL    HW179641   6.189   1.067   0.883
59248SOL    HW279642   6.045   1.048   0.839
59249SOL     OW79643   5.719  11.974  13.330
59249SOL    HW179644   5.624  11.986  13.320
59249SOL    HW279645   5.736  11.889  13.290
59250SOL     OW79646  10.348   4.377  12.229
59250SOL    HW179647  10.432   4.336  12.208
59250SOL    HW279648  10.365   4.471  12.222
59251SOL     OW79649  13.809  12.770   2.638
59251SOL    HW179650  13.854  12.854   2.644
59251SOL    HW279651  13.767  12.758   2.724
59252SOL     OW79652   4.750  11.503   9.152
59252SOL    HW179653   4.745  11.574   9.088
59252SOL    HW279654   4.720  11.542   9.234
59253SOL     OW79655   5.050   6.613   6.893
59253SOL    HW179656   5.087   6.701   6.906
59253SOL    HW279657   5.040   6.577   6.981
59254SOL     OW79658   3.429   6.781   8.379
59254SOL    HW179659   3.395   6.693   8.394
59254SOL    HW279660   3.475   6.776   8.296
59255SOL     OW79661   4.179   6.380   7.647
59255SOL    HW179662   4.216   6.398   7.561
59255SOL    HW279663   4.108   6.444   7.656
59256SOL     OW79664  14.314  13.832   2.300
59256SOL    HW179665  14.240  13.874   2.257
59256SOL    HW279666  14.363  13.790   2.229
59257SOL     OW79667  12.671   7.478   5.597
59257SOL    HW179668  12.590   7.440   5.631
59257SOL    HW279669  12.741   7.434   5.646
59258SOL     OW79670   5.783  10.287  10.619
59258SOL    HW179671   5.753  10.341  10.692
59258SOL    HW279672   5.711  10.227  10.602
59259SOL     OW79673   3.385   0.548   9.078
59259SOL    HW179674   3.461   0.496   9.104
59259SOL    HW279675   3.421   0.613   9.017
59260SOL     OW79676  11.514   9.287  11.191
59260SOL    HW179677  11.511   9.201  11.233
59260SOL    HW279678  11.434   9.291  11.138
59261SOL     OW79679   4.287   2.740   8.540
59261SOL    HW179680   4.206   2.786   8.517
59261SOL    HW279681   4.270   2.702   8.627
59262SOL     OW79682   0.449   5.626   8.828
59262SOL    HW179683   0.362   5.654   8.857
59262SOL    HW279684   0.453   5.651   8.736
59263SOL     OW79685   7.296  14.284  11.713
59263SOL    HW179686   7.387  14.287  11.742
59263SOL    HW279687   7.268  14.376  11.708
59264SOL     OW79688   2.732  13.876  12.992
59264SOL    HW179689   2.664  13.877  13.060
59264SOL    HW279690   2.814  13.868  13.039
59265SOL     OW79691  11.656   6.792   7.023
59265SOL    HW179692  11.609   6.875   7.035
59265SOL    HW279693  11.602   6.727   7.069
59266SOL     OW79694   1.899   4.931   3.702
59266SOL    HW179695   1.877   4.904   3.612
59266SOL    HW279696   1.833   4.996   3.724
59267SOL     OW79697   3.915   6.408   4.905
59267SOL    HW179698   3.890   6.333   4.959
59267SOL    HW279699   3.868   6.482   4.943
59268SOL     OW79700   5.923   0.399  12.059
59268SOL    HW179701   5.884   0.486  12.070
59268SOL    HW279702   5.885   0.366  11.978
59269SOL     OW79703   3.112  10.880  11.372
59269SOL    HW179704   3.151  10.960  11.408
59269SOL    HW279705   3.018  10.899  11.369
59270SOL     OW79706   6.453   4.922  10.641
59270SOL    HW179707   6.374   4.895  10.687
59270SOL    HW279708   6.509   4.844  10.641
59271SOL     OW79709  14.223   1.199   4.143
59271SOL    HW179710  14.200   1.257   4.070
59271SOL    HW279711  14.319   1.197   4.143
59272SOL     OW79712   9.108  13.089  14.086
59272SOL    HW179713   9.022  13.132  14.090
59272SOL    HW279714   9.152  13.119  14.166
59273SOL     OW79715  12.614   0.042   3.107
59273SOL    HW179716  12.666  14.847   3.083
59273SOL    HW279717  12.532   0.005   3.141
59274SOL     OW79718   4.901  12.718   1.294
59274SOL    HW179719   4.896  12.806   1.256
59274SOL    HW279720   4.977  12.721   1.351
59275SOL     OW79721   5.298   9.477   5.042
59275SOL    HW179722   5.264   9.391   5.017
59275SOL    HW279723   5.296   9.477   5.138
59276SOL     OW79724   0.169   1.205   2.013
59276SOL    HW179725   0.073   1.199   2.008
59276SOL    HW279726   0.185   1.260   2.089
59277SOL     OW79727   7.890   7.083  12.750
59277SOL    HW179728   7.879   6.998  12.709
59277SOL    HW279729   7.879   7.146  12.679
59278SOL     OW79730   7.031   9.422   7.911
59278SOL    HW179731   7.066   9.449   7.826
59278SOL    HW279732   7.086   9.349   7.938
59279SOL     OW79733  12.507  10.259   3.382
59279SOL    HW179734  12.536  10.332   3.436
59279SOL    HW279735  12.538  10.279   3.294
59280SOL     OW79736   2.661   2.148   8.076
59280SOL    HW179737   2.748   2.185   8.086
59280SOL    HW279738   2.629   2.181   7.992
59281SOL     OW79739  11.650   4.100  10.300
59281SOL    HW179740  11.578   4.091  10.362
59281SOL    HW279741  11.700   4.175  10.332
59282SOL     OW79742  13.567  10.946   5.306
59282SOL    HW179743  13.563  11.028   5.354
59282SOL    HW279744  13.626  10.963   5.233
59283SOL     OW79745   6.226  10.232   0.962
59283SOL    HW179746   6.305  10.253   0.913
59283SOL    HW279747   6.258  10.192   1.044
59284SOL     OW79748   7.673  11.730   5.789
59284SOL    HW179749   7.716  11.795   5.734
59284SOL    HW279750   7.613  11.684   5.730
59285SOL     OW79751   1.455   4.583  13.719
59285SOL    HW179752   1.446   4.661  13.664
59285SOL    HW279753   1.382   4.587  13.780
59286SOL     OW79754   2.246  11.346  14.727
59286SOL    HW179755   2.169  11.392  14.762
59286SOL    HW279756   2.222  11.253  14.734
59287SOL     OW79757   7.459   6.504   2.840
59287SOL    HW179758   7.380   6.513   2.894
59287SOL    HW279759   7.464   6.411   2.820
59288SOL     OW79760   1.543   5.667  11.852
59288SOL    HW179761   1.561   5.757  11.822
59288SOL    HW279762   1.450   5.668  11.874
59289SOL     OW79763   3.242   7.968   6.368
59289SOL    HW179764   3.286   7.918   6.298
59289SOL    HW279765   3.232   7.905   6.440
59290SOL     OW79766  13.630   7.195   8.020
59290SOL    HW179767  13.577   7.131   7.973
59290SOL    HW279768  13.657   7.150   8.100
59291SOL     OW79769   7.356   6.169   8.113
59291SOL    HW179770   7.295   6.238   8.141
59291SOL    HW279771   7.301   6.108   8.064
59292SOL     OW79772   3.968   0.594  10.461
59292SOL    HW179773   4.026   0.554  10.525
59292SOL    HW279774   3.908   0.524  10.435
59293SOL     OW79775  13.263  12.622   2.916
59293SOL    HW179776  13.273  12.556   2.985
59293SOL    HW279777  13.352  12.633   2.881
59294SOL     OW79778  12.346   6.557   7.271
59294SOL    HW179779  12.288   6.491   7.233
59294SOL    HW279780  12.343   6.630   7.208
59295SOL     OW79781   1.017   4.870   5.575
59295SOL    HW179782   0.925   4.857   5.595
59295SOL    HW279783   1.019   4.942   5.512
59296SOL     OW79784   8.314   4.751   2.513
59296SOL    HW179785   8.393   4.697   2.517
59296SOL    HW279786   8.322   4.810   2.588
59297SOL     OW79787   5.645   5.313   2.571
59297SOL    HW179788   5.620   5.406   2.577
59297SOL    HW279789   5.688   5.295   2.654
59298SOL     OW79790   9.824   4.070  10.728
59298SOL    HW179791   9.764   4.142  10.708
59298SOL    HW279792   9.906   4.094  10.684
59299SOL     OW79793   7.617   1.726  12.997
59299SOL    HW179794   7.678   1.750  13.066
59299SOL    HW279795   7.573   1.648  13.029
59300SOL     OW79796  10.816   7.055   2.115
59300SOL    HW179797  10.873   6.982   2.090
59300SOL    HW279798  10.814   7.111   2.037
59301SOL     OW79799   0.770   4.286   4.473
59301SOL    HW179800   0.766   4.373   4.512
59301SOL    HW279801   0.687   4.276   4.428
59302SOL     OW79802   3.121   4.272  14.032
59302SOL    HW179803   3.125   4.349  14.088
59302SOL    HW279804   3.184   4.211  14.070
59303SOL     OW79805   7.117   0.659  12.592
59303SOL    HW179806   7.106   0.585  12.652
59303SOL    HW279807   7.185   0.712  12.632
59304SOL     OW79808  11.735  13.740  13.695
59304SOL    HW179809  11.718  13.826  13.731
59304SOL    HW279810  11.749  13.684  13.771
59305SOL     OW79811   8.762   6.385   0.523
59305SOL    HW179812   8.798   6.298   0.536
59305SOL    HW279813   8.753   6.394   0.428
59306SOL     OW79814   3.126   6.999   7.399
59306SOL    HW179815   3.198   6.943   7.426
59306SOL    HW279816   3.144   7.020   7.307
59307SOL     OW79817  11.159   7.005   5.776
59307SOL    HW179818  11.080   7.055   5.794
59307SOL    HW279819  11.191   6.979   5.862
59308SOL     OW79820   3.808  14.083   9.794
59308SOL    HW179821   3.863  14.158   9.770
59308SOL    HW279822   3.833  14.015   9.733
59309SOL     OW79823  14.655   5.119   0.637
59309SOL    HW179824  14.739   5.099   0.679
59309SOL    HW279825  14.649   5.215   0.640
59310SOL     OW79826  11.506   8.566  10.711
59310SOL    HW179827  11.457   8.486  10.729
59310SOL    HW279828  11.447   8.637  10.738
59311SOL     OW79829  10.082   5.505  14.640
59311SOL    HW179830  10.116   5.437  14.582
59311SOL    HW279831   9.987   5.496  14.634
59312SOL     OW79832  13.568  14.264   7.225
59312SOL    HW179833  13.629  14.318   7.275
59312SOL    HW279834  13.538  14.321   7.154
59313SOL     OW79835   9.823  10.642   5.579
59313SOL    HW179836   9.916  10.658   5.600
59313SOL    HW279837   9.821  10.636   5.484
59314SOL     OW79838   1.778  10.946   5.013
59314SOL    HW179839   1.747  11.002   4.942
59314SOL    HW279840   1.815  11.008   5.077
59315SOL     OW79841   8.713  14.496  13.870
59315SOL    HW179842   8.677  14.545  13.945
59315SOL    HW279843   8.662  14.526  13.795
59316SOL     OW79844   0.010  11.023  12.431
59316SOL    HW179845   0.072  11.033  12.358
59316SOL    HW279846  14.866  11.112  12.452
59317SOL     OW79847  13.979  11.509   2.347
59317SOL    HW179848  13.887  11.492   2.326
59317SOL    HW279849  13.996  11.455   2.424
59318SOL     OW79850   3.138   2.721   2.721
59318SOL    HW179851   3.153   2.653   2.787
59318SOL    HW279852   3.099   2.674   2.647
59319SOL     OW79853   2.375  14.341  14.022
59319SOL    HW179854   2.410  14.380  14.102
59319SOL    HW279855   2.289  14.307  14.047
59320SOL     OW79856   7.638   2.708   0.499
59320SOL    HW179857   7.567   2.652   0.530
59320SOL    HW279858   7.684   2.737   0.578
59321SOL     OW79859   4.654   8.209   9.389
59321SOL    HW179860   4.645   8.246   9.301
59321SOL    HW279861   4.703   8.275   9.437
59322SOL     OW79862  12.963  13.874  14.725
59322SOL    HW179863  12.885  13.822  14.703
59322SOL    HW279864  12.968  13.939  14.655
59323SOL     OW79865  13.107   5.818   1.232
59323SOL    HW179866  13.095   5.739   1.180
59323SOL    HW279867  13.019   5.850   1.249
59324SOL     OW79868   3.308  12.527  13.173
59324SOL    HW179869   3.278  12.455  13.117
59324SOL    HW279870   3.262  12.514  13.256
59325SOL     OW79871   1.053  13.740   5.261
59325SOL    HW179872   1.091  13.660   5.224
59325SOL    HW279873   1.123  13.779   5.311
59326SOL     OW79874   7.448  12.966  10.999
59326SOL    HW179875   7.518  12.933  11.055
59326SOL    HW279876   7.491  13.027  10.940
59327SOL     OW79877   1.351  11.311  11.128
59327SOL    HW179878   1.394  11.292  11.211
59327SOL    HW279879   1.381  11.399  11.105
59328SOL     OW79880   2.085   6.285  13.767
59328SOL    HW179881   2.043   6.371  13.765
59328SOL    HW279882   2.105   6.266  13.675
59329SOL     OW79883  14.465   1.148   3.850
59329SOL    HW179884  14.399   1.204   3.892
59329SOL    HW279885  14.458   1.169   3.756
59330SOL     OW79886  14.453   9.344   1.215
59330SOL    HW179887  14.485   9.257   1.189
59330SOL    HW279888  14.360   9.343   1.192
59331SOL     OW79889  13.131   8.598   6.371
59331SOL    HW179890  13.145   8.687   6.402
59331SOL    HW279891  13.178   8.593   6.288
59332SOL     OW79892   0.060   1.247   5.765
59332SOL    HW179893   0.052   1.249   5.670
59332SOL    HW279894   0.152   1.223   5.781
59333SOL     OW79895   3.037   3.856   5.308
59333SOL    HW179896   3.102   3.903   5.255
59333SOL    HW279897   3.072   3.767   5.314
59334SOL     OW79898   6.681  14.056   9.331
59334SOL    HW179899   6.668  14.062   9.426
59334SOL    HW279900   6.735  14.131   9.309
59335SOL     OW79901   2.237   3.847   0.959
59335SOL    HW179902   2.150   3.886   0.946
59335SOL    HW279903   2.229   3.797   1.040
59336SOL     OW79904  11.696   6.857   8.496
59336SOL    HW179905  11.776   6.909   8.488
59336SOL    HW279906  11.630   6.906   8.446
59337SOL     OW79907   2.194   1.416   7.594
59337SOL    HW179908   2.220   1.352   7.660
59337SOL    HW279909   2.219   1.377   7.510
59338SOL     OW79910   0.191   5.882   3.528
59338SOL    HW179911   0.206   5.928   3.610
59338SOL    HW279912   0.238   5.933   3.463
59339SOL     OW79913   9.633   3.660   4.982
59339SOL    HW179914   9.549   3.628   4.950
59339SOL    HW279915   9.686   3.581   4.995
59340SOL     OW79916   3.420   9.291   0.125
59340SOL    HW179917   3.494   9.299   0.184
59340SOL    HW279918   3.453   9.323   0.041
59341SOL     OW79919   4.851   1.391  13.793
59341SOL    HW179920   4.799   1.446  13.851
59341SOL    HW279921   4.790   1.367  13.722
59342SOL     OW79922  12.984   2.828   5.414
59342SOL    HW179923  13.003   2.909   5.462
59342SOL    HW279924  12.891   2.812   5.431
59343SOL     OW79925   9.019   2.138   4.223
59343SOL    HW179926   9.114   2.150   4.233
59343SOL    HW279927   9.009   2.045   4.203
59344SOL     OW79928  11.013   3.070   9.875
59344SOL    HW179929  10.973   3.015   9.808
59344SOL    HW279930  11.050   3.145   9.827
59345SOL     OW79931   1.157   2.337   7.398
59345SOL    HW179932   1.074   2.374   7.366
59345SOL    HW279933   1.130   2.264   7.454
59346SOL     OW79934   1.614   3.372   6.449
59346SOL    HW179935   1.585   3.415   6.529
59346SOL    HW279936   1.709   3.383   6.448
59347SOL     OW79937   6.169   2.175   7.394
59347SOL    HW179938   6.190   2.081   7.397
59347SOL    HW279939   6.128   2.187   7.309
59348SOL     OW79940   2.466   8.965   4.206
59348SOL    HW179941   2.484   9.019   4.283
59348SOL    HW279942   2.552   8.932   4.180
59349SOL     OW79943   6.567   4.553   2.868
59349SOL    HW179944   6.621   4.606   2.927
59349SOL    HW279945   6.525   4.489   2.925
59350SOL     OW79946   6.989   5.308  14.356
59350SOL    HW179947   6.985   5.257  14.275
59350SOL    HW279948   6.901   5.304  14.393
59351SOL     OW79949  14.453   7.250   4.138
59351SOL    HW179950  14.417   7.318   4.195
59351SOL    HW279951  14.541   7.281   4.115
59352SOL     OW79952   6.304   5.677   2.384
59352SOL    HW179953   6.287   5.762   2.424
59352SOL    HW279954   6.239   5.619   2.423
59353SOL     OW79955   2.751   7.195   9.430
59353SOL    HW179956   2.658   7.195   9.408
59353SOL    HW279957   2.795   7.217   9.347
59354SOL     OW79958   6.006   9.364  12.412
59354SOL    HW179959   6.038   9.278  12.439
59354SOL    HW279960   6.059   9.426  12.462
59355SOL     OW79961  10.131   0.531   9.617
59355SOL    HW179962  10.179   0.449   9.602
59355SOL    HW279963  10.162   0.562   9.702
59356SOL     OW79964   1.635   4.111   5.769
59356SOL    HW179965   1.608   4.103   5.861
59356SOL    HW279966   1.565   4.162   5.728
59357SOL     OW79967   1.750   9.344   6.568
59357SOL    HW179968   1.677   9.308   6.518
59357SOL    HW279969   1.784   9.270   6.618
59358SOL     OW79970  10.662   9.176   6.556
59358SOL    HW179971  10.716   9.254   6.541
59358SOL    HW279972  10.598   9.203   6.622
59359SOL     OW79973   4.728  13.656   3.364
59359SOL    HW179974   4.801  13.706   3.399
59359SOL    HW279975   4.658  13.665   3.429
59360SOL     OW79976   6.749   8.572  11.131
59360SOL    HW179977   6.708   8.540  11.211
59360SOL    HW279978   6.679   8.569  11.066
59361SOL     OW79979   3.312  13.155   4.249
59361SOL    HW179980   3.407  13.152   4.233
59361SOL    HW279981   3.275  13.094   4.186
59362SOL     OW79982  11.176   4.351  10.791
59362SOL    HW179983  11.083   4.328  10.795
59362SOL    HW279984  11.186   4.420  10.856
59363SOL     OW79985  11.035   2.583   0.391
59363SOL    HW179986  10.994   2.641   0.327
59363SOL    HW279987  10.972   2.580   0.464
59364SOL     OW79988   9.875   1.122   9.903
59364SOL    HW179989   9.835   1.134   9.990
59364SOL    HW279990   9.966   1.100   9.922
59365SOL     OW79991   9.468   2.067   0.485
59365SOL    HW179992   9.526   2.083   0.559
59365SOL    HW279993   9.388   2.033   0.525
59366SOL     OW79994  10.475   1.803   9.244
59366SOL    HW179995  10.554   1.848   9.270
59366SOL    HW279996  10.413   1.818   9.316
59367SOL     OW79997   7.283   4.214   8.340
59367SOL    HW179998   7.275   4.200   8.434
59367SOL    HW279999   7.224   4.287   8.321
59368SOL     OW80000   2.681  13.478   4.445
59368SOL    HW180001   2.766  13.435   4.442
59368SOL    HW280002   2.701  13.571   4.453
59369SOL     OW80003   9.986   3.365   1.570
59369SOL    HW180004  10.045   3.385   1.643
59369SOL    HW280005  10.044   3.330   1.502
59370SOL     OW80006  11.641   8.485   2.356
59370SOL    HW180007  11.552   8.518   2.371
59370SOL    HW280008  11.687   8.500   2.438
59371SOL     OW80009   5.885  12.128  13.511
59371SOL    HW180010   5.901  12.216  13.477
59371SOL    HW280011   5.835  12.084  13.442
59372SOL     OW80012   5.673  10.146   3.158
59372SOL    HW180013   5.619  10.074   3.191
59372SOL    HW280014   5.760  10.128   3.192
59373SOL     OW80015   8.717   9.717   7.992
59373SOL    HW180016   8.659   9.643   7.977
59373SOL    HW280017   8.701   9.743   8.083
59374SOL     OW80018   9.826  11.534  13.706
59374SOL    HW180019   9.765  11.582  13.650
59374SOL    HW280020   9.787  11.447  13.715
59375SOL     OW80021   9.908   0.158  10.033
59375SOL    HW180022   9.955   0.121   9.959
59375SOL    HW280023   9.928   0.252  10.029
59376SOL     OW80024  13.623   7.831  12.024
59376SOL    HW180025  13.619   7.922  11.995
59376SOL    HW280026  13.716   7.817  12.045
59377SOL     OW80027   2.135  10.705  10.341
59377SOL    HW180028   2.075  10.780  10.340
59377SOL    HW280029   2.178  10.707  10.256
59378SOL     OW80030   1.318   4.223   1.933
59378SOL    HW180031   1.304   4.190   1.844
59378SOL    HW280032   1.409   4.252   1.934
59379SOL     OW80033   2.460   4.036  10.450
59379SOL    HW180034   2.544   3.990  10.452
59379SOL    HW280035   2.461   4.090  10.529
59380SOL     OW80036   0.097   9.759  11.423
59380SOL    HW180037   0.096   9.710  11.341
59380SOL    HW280038   0.139   9.842  11.401
59381SOL     OW80039  11.403   1.358  11.308
59381SOL    HW180040  11.448   1.339  11.390
59381SOL    HW280041  11.325   1.408  11.334
59382SOL     OW80042  11.095   1.893  11.355
59382SOL    HW180043  11.133   1.870  11.440
59382SOL    HW280044  11.004   1.915  11.375
59383SOL     OW80045   1.034  12.524  12.129
59383SOL    HW180046   1.081  12.499  12.208
59383SOL    HW280047   1.090  12.588  12.086
59384SOL     OW80048   8.406   8.915   1.145
59384SOL    HW180049   8.469   8.947   1.079
59384SOL    HW280050   8.461   8.879   1.215
59385SOL     OW80051   7.660   9.001   0.909
59385SOL    HW180052   7.635   9.042   0.826
59385SOL    HW280053   7.578   8.983   0.953
59386SOL     OW80054   8.953  14.590   7.979
59386SOL    HW180055   8.892  14.543   8.036
59386SOL    HW280056   9.017  14.523   7.953
59387SOL     OW80057   8.774  10.395   4.834
59387SOL    HW180058   8.798  10.307   4.807
59387SOL    HW280059   8.767  10.390   4.930
59388SOL     OW80060   5.608   0.251  12.403
59388SOL    HW180061   5.613   0.301  12.484
59388SOL    HW280062   5.575   0.314  12.338
59389SOL     OW80063   7.018   8.724  13.804
59389SOL    HW180064   7.069   8.799  13.772
59389SOL    HW280065   7.080   8.652  13.804
59390SOL     OW80066   2.607   7.520  13.260
59390SOL    HW180067   2.690   7.557  13.232
59390SOL    HW280068   2.564   7.492  13.179
59391SOL     OW80069   9.778   0.130   1.604
59391SOL    HW180070   9.729   0.120   1.686
59391SOL    HW280071   9.714   0.112   1.535
59392SOL     OW80072  10.443   4.109   4.525
59392SOL    HW180073  10.480   4.036   4.474
59392SOL    HW280074  10.520   4.159   4.554
59393SOL     OW80075   1.364  14.449   1.165
59393SOL    HW180076   1.368  14.415   1.254
59393SOL    HW280077   1.290  14.510   1.166
59394SOL     OW80078   5.616  10.459   5.404
59394SOL    HW180079   5.686  10.451   5.339
59394SOL    HW280080   5.661  10.454   5.488
59395SOL     OW80081   7.009   2.872  14.143
59395SOL    HW180082   7.053   2.871  14.058
59395SOL    HW280083   6.946   2.944  14.136
59396SOL     OW80084   0.263  11.238   3.411
59396SOL    HW180085   0.239  11.316   3.361
59396SOL    HW280086   0.267  11.267   3.502
59397SOL     OW80087  12.499   7.120   0.593
59397SOL    HW180088  12.528   7.207   0.565
59397SOL    HW280089  12.562   7.094   0.660
59398SOL     OW80090   7.176  12.168   3.372
59398SOL    HW180091   7.259  12.121   3.375
59398SOL    HW280092   7.192  12.242   3.314
59399SOL     OW80093   5.918   6.534  12.939
59399SOL    HW180094   5.970   6.580  13.005
59399SOL    HW280095   5.982   6.480  12.892
59400SOL     OW80096   8.947   5.778  14.860
59400SOL    HW180097   8.927   5.690   0.010
59400SOL    HW280098   8.951   5.769  14.765
59401SOL     OW80099   7.134   6.873   4.138
59401SOL    HW180100   7.169   6.822   4.211
59401SOL    HW280101   7.203   6.935   4.116
59402SOL     OW80102  13.189   7.163   6.838
59402SOL    HW180103  13.186   7.080   6.886
59402SOL    HW280104  13.249   7.218   6.890
59403SOL     OW80105   0.609   5.800  14.215
59403SOL    HW180106   0.522   5.760  14.206
59403SOL    HW280107   0.606   5.844  14.300
59404SOL     OW80108  14.356  13.172   7.821
59404SOL    HW180109  14.347  13.216   7.736
59404SOL    HW280110  14.439  13.206   7.856
59405SOL     OW80111  11.403   4.111  11.175
59405SOL    HW180112  11.404   4.156  11.091
59405SOL    HW280113  11.373   4.178  11.237
59406SOL     OW80114   4.076  10.573  12.681
59406SOL    HW180115   4.118  10.538  12.759
59406SOL    HW280116   4.090  10.668  12.687
59407SOL     OW80117   5.570   2.443   6.032
59407SOL    HW180118   5.558   2.393   6.113
59407SOL    HW280119   5.664   2.450   6.021
59408SOL     OW80120  10.520   2.921   5.102
59408SOL    HW180121  10.440   2.972   5.090
59408SOL    HW280122  10.578   2.977   5.154
59409SOL     OW80123   1.310   5.634  13.344
59409SOL    HW180124   1.234   5.662  13.293
59409SOL    HW280125   1.297   5.674  13.430
59410SOL     OW80126   0.896  11.627   0.779
59410SOL    HW180127   0.972  11.677   0.747
59410SOL    HW280128   0.869  11.574   0.704
59411SOL     OW80129   3.469  12.618   4.738
59411SOL    HW180130   3.543  12.645   4.792
59411SOL    HW280131   3.474  12.522   4.737
59412SOL     OW80132   3.025   1.411   9.542
59412SOL    HW180133   3.082   1.421   9.618
59412SOL    HW280134   2.963   1.483   9.548
59413SOL     OW80135   2.116  12.620   2.968
59413SOL    HW180136   2.097  12.659   3.053
59413SOL    HW280137   2.207  12.644   2.950
59414SOL     OW80138   4.178  13.195  13.891
59414SOL    HW180139   4.096  13.219  13.848
59414SOL    HW280140   4.203  13.113  13.849
59415SOL     OW80141  12.804   7.235   8.230
59415SOL    HW180142  12.811   7.329   8.217
59415SOL    HW280143  12.726   7.224   8.285
59416SOL     OW80144   2.738  13.768   8.706
59416SOL    HW180145   2.651  13.798   8.732
59416SOL    HW280146   2.767  13.714   8.779
59417SOL     OW80147  11.022  14.046   1.362
59417SOL    HW180148  10.990  13.959   1.385
59417SOL    HW280149  11.089  14.066   1.427
59418SOL     OW80150   5.364  14.462   1.279
59418SOL    HW180151   5.406  14.547   1.291
59418SOL    HW280152   5.327  14.442   1.365
59419SOL     OW80153   8.758   0.566   6.616
59419SOL    HW180154   8.725   0.616   6.541
59419SOL    HW280155   8.679   0.536   6.661
59420SOL     OW80156   2.135   7.138  11.982
59420SOL    HW180157   2.219   7.139  11.936
59420SOL    HW280158   2.158   7.134  12.074
59421SOL     OW80159  12.046  13.514  12.359
59421SOL    HW180160  12.008  13.533  12.445
59421SOL    HW280161  11.975  13.532  12.297
59422SOL     OW80162  13.824   2.302   2.554
59422SOL    HW180163  13.809   2.367   2.486
59422SOL    HW280164  13.812   2.218   2.511
59423SOL     OW80165   1.273  13.930   3.135
59423SOL    HW180166   1.208  13.865   3.161
59423SOL    HW280167   1.226  13.990   3.078
59424SOL     OW80168   6.483   0.001   5.113
59424SOL    HW180169   6.483   0.055   5.034
59424SOL    HW280170   6.467  14.794   5.081
59425SOL     OW80171   6.322   4.949  13.811
59425SOL    HW180172   6.351   4.906  13.730
59425SOL    HW280173   6.340   5.042  13.796
59426SOL     OW80174  13.393   4.966   3.485
59426SOL    HW180175  13.299   4.949   3.482
59426SOL    HW280176  13.402   5.046   3.537
59427SOL     OW80177  12.253   9.918   2.282
59427SOL    HW180178  12.176   9.878   2.242
59427SOL    HW280179  12.315   9.927   2.209
59428SOL     OW80180  14.069   1.107   3.798
59428SOL    HW180181  14.132   1.035   3.808
59428SOL    HW280182  14.115   1.172   3.745
59429SOL     OW80183  12.001   1.450  14.861
59429SOL    HW180184  12.012   1.405   0.062
59429SOL    HW280185  11.979   1.381  14.799
59430SOL     OW80186  13.522   7.648  12.991
59430SOL    HW180187  13.569   7.725  12.957
59430SOL    HW280188  13.584   7.606  13.050
59431SOL     OW80189  11.703   3.173   7.209
59431SOL    HW180190  11.782   3.168   7.155
59431SOL    HW280191  11.691   3.084   7.243
59432SOL     OW80192   4.503   8.788   7.933
59432SOL    HW180193   4.585   8.784   7.982
59432SOL    HW280194   4.510   8.868   7.881
59433SOL     OW80195   8.479   5.265  11.167
59433SOL    HW180196   8.424   5.308  11.101
59433SOL    HW280197   8.448   5.298  11.251
59434SOL     OW80198   6.661   0.184   7.490
59434SOL    HW180199   6.620   0.243   7.553
59434SOL    HW280200   6.755   0.195   7.505
59435SOL     OW80201   3.705  13.923   2.151
59435SOL    HW180202   3.659  13.877   2.222
59435SOL    HW280203   3.783  13.960   2.193
59436SOL     OW80204  11.357   3.583   4.546
59436SOL    HW180205  11.305   3.557   4.622
59436SOL    HW280206  11.389   3.671   4.568
59437SOL     OW80207   2.932   5.254  10.341
59437SOL    HW180208   2.917   5.190  10.411
59437SOL    HW280209   2.846   5.295  10.328
59438SOL     OW80210   4.462   4.994  11.709
59438SOL    HW180211   4.424   4.924  11.762
59438SOL    HW280212   4.553   4.998  11.736
59439SOL     OW80213  10.073   0.050  10.799
59439SOL    HW180214  10.075   0.132  10.751
59439SOL    HW280215   9.980   0.024  10.799
59440SOL     OW80216  14.819   9.805  14.852
59440SOL    HW180217  14.807   9.726  14.800
59440SOL    HW280218  14.750   9.864  14.823
59441SOL     OW80219   2.689   8.160  13.733
59441SOL    HW180220   2.618   8.223  13.746
59441SOL    HW280221   2.735   8.158  13.817
59442SOL     OW80222  13.936  10.061   8.577
59442SOL    HW180223  13.887  10.142   8.564
59442SOL    HW280224  14.012  10.069   8.520
59443SOL     OW80225  13.800   4.497   7.993
59443SOL    HW180226  13.804   4.569   8.056
59443SOL    HW280227  13.737   4.526   7.928
59444SOL     OW80228   4.003   3.478   4.698
59444SOL    HW180229   4.012   3.489   4.603
59444SOL    HW280230   4.054   3.550   4.736
59445SOL     OW80231   6.114   3.859   8.966
59445SOL    HW180232   6.173   3.929   8.995
59445SOL    HW280233   6.173   3.790   8.936
59446SOL     OW80234   9.069   8.501  12.443
59446SOL    HW180235   9.078   8.452  12.525
59446SOL    HW280236   9.062   8.433  12.375
59447SOL     OW80237   1.684   1.912   8.586
59447SOL    HW180238   1.685   1.872   8.673
59447SOL    HW280239   1.620   1.983   8.594
59448SOL     OW80240   9.336  12.334  13.619
59448SOL    HW180241   9.286  12.255  13.640
59448SOL    HW280242   9.298  12.367  13.538
59449SOL     OW80243   9.865   5.561   2.684
59449SOL    HW180244   9.847   5.583   2.592
59449SOL    HW280245   9.958   5.582   2.696
59450SOL     OW80246   3.253  11.689   8.105
59450SOL    HW180247   3.280  11.714   8.193
59450SOL    HW280248   3.209  11.766   8.070
59451SOL     OW80249   6.066   1.228   8.342
59451SOL    HW180250   6.040   1.143   8.307
59451SOL    HW280251   6.124   1.264   8.274
59452SOL     OW80252  14.839   9.477   2.198
59452SOL    HW180253   0.047   9.476   2.229
59452SOL    HW280254  14.813   9.569   2.201
59453SOL     OW80255  13.648   1.907   5.955
59453SOL    HW180256  13.589   1.910   6.031
59453SOL    HW280257  13.647   1.996   5.920
59454SOL     OW80258   2.638   1.508  13.973
59454SOL    HW180259   2.690   1.583  14.001
59454SOL    HW280260   2.549   1.543  13.964
59455SOL     OW80261   7.769  10.069   8.811
59455SOL    HW180262   7.718  10.135   8.764
59455SOL    HW280263   7.761   9.989   8.758
59456SOL     OW80264   0.495   4.373   7.756
59456SOL    HW180265   0.512   4.290   7.799
59456SOL    HW280266   0.531   4.439   7.816
59457SOL     OW80267   6.492  11.141   3.064
59457SOL    HW180268   6.580  11.169   3.088
59457SOL    HW280269   6.438  11.220   3.076
59458SOL     OW80270   2.393  10.904  12.217
59458SOL    HW180271   2.322  10.904  12.152
59458SOL    HW280272   2.355  10.861  12.294
59459SOL     OW80273   5.695   2.675   8.524
59459SOL    HW180274   5.728   2.765   8.528
59459SOL    HW280275   5.709   2.649   8.433
59460SOL     OW80276   8.658  14.843  11.466
59460SOL    HW180277   8.676  14.848  11.560
59460SOL    HW280278   8.634  14.752  11.451
59461SOL     OW80279   9.751  14.607  10.516
59461SOL    HW180280   9.769  14.514  10.525
59461SOL    HW280281   9.749  14.622  10.421
59462SOL     OW80282   1.854   6.114  12.649
59462SOL    HW180283   1.897   6.032  12.672
59462SOL    HW280284   1.772   6.113  12.698
59463SOL     OW80285  12.342   1.972  11.459
59463SOL    HW180286  12.368   2.059  11.492
59463SOL    HW280287  12.253   1.960  11.490
59464SOL     OW80288   7.955  13.135  13.015
59464SOL    HW180289   7.937  13.042  13.021
59464SOL    HW280290   8.009  13.144  12.936
59465SOL     OW80291   3.995   2.991   2.451
59465SOL    HW180292   3.971   2.899   2.436
59465SOL    HW280293   3.924   3.041   2.412
59466SOL     OW80294   8.715   9.338   1.977
59466SOL    HW180295   8.721   9.252   2.019
59466SOL    HW280296   8.621   9.349   1.958
59467SOL     OW80297   0.329   2.992   1.212
59467SOL    HW180298   0.402   2.958   1.264
59467SOL    HW280299   0.371   3.031   1.135
59468SOL     OW80300   5.756   9.109   8.744
59468SOL    HW180301   5.782   9.064   8.825
59468SOL    HW280302   5.793   9.054   8.675
59469SOL     OW80303   7.454   0.392   9.854
59469SOL    HW180304   7.517   0.345   9.799
59469SOL    HW280305   7.480   0.484   9.846
59470SOL     OW80306   4.376   0.226   0.111
59470SOL    HW180307   4.410   0.208   0.199
59470SOL    HW280308   4.327   0.308   0.121
59471SOL     OW80309  13.111  14.213   3.242
59471SOL    HW180310  13.026  14.170   3.241
59471SOL    HW280311  13.103  14.282   3.176
59472SOL     OW80312   3.941   9.311  13.406
59472SOL    HW180313   3.865   9.300  13.464
59472SOL    HW280314   3.926   9.248  13.336
59473SOL     OW80315  14.322  12.803  10.663
59473SOL    HW180316  14.374  12.755  10.600
59473SOL    HW280317  14.252  12.743  10.688
59474SOL     OW80318   0.752  14.781   4.169
59474SOL    HW180319   0.768  14.866   4.210
59474SOL    HW280320   0.833  14.762   4.121
59475SOL     OW80321  13.674   6.732  10.019
59475SOL    HW180322  13.592   6.752  10.064
59475SOL    HW280323  13.661   6.764   9.930
59476SOL     OW80324   9.993   1.221   7.711
59476SOL    HW180325   9.980   1.127   7.723
59476SOL    HW280326  10.082   1.229   7.677
59477SOL     OW80327   5.937   2.701   6.707
59477SOL    HW180328   5.984   2.642   6.766
59477SOL    HW280329   5.845   2.675   6.716
59478SOL     OW80330   4.401   6.248   5.506
59478SOL    HW180331   4.354   6.181   5.555
59478SOL    HW280332   4.485   6.256   5.551
59479SOL     OW80333   3.573   1.254   7.593
59479SOL    HW180334   3.486   1.294   7.593
59479SOL    HW280335   3.563   1.176   7.648
59480SOL     OW80336   7.844   7.381  14.444
59480SOL    HW180337   7.755   7.376  14.407
59480SOL    HW280338   7.901   7.395  14.368
59481SOL     OW80339  10.767   1.644   9.288
59481SOL    HW180340  10.690   1.700   9.292
59481SOL    HW280341  10.836   1.694   9.332
59482SOL     OW80342   5.185   7.522   4.721
59482SOL    HW180343   5.153   7.480   4.642
59482SOL    HW280344   5.277   7.538   4.705
59483SOL     OW80345   6.756   0.280   5.820
59483SOL    HW180346   6.734   0.194   5.783
59483SOL    HW280347   6.802   0.260   5.901
59484SOL     OW80348   6.733   4.268   5.597
59484SOL    HW180349   6.807   4.315   5.635
59484SOL    HW280350   6.773   4.207   5.535
59485SOL     OW80351   6.609  13.777  11.263
59485SOL    HW180352   6.578  13.851  11.314
59485SOL    HW280353   6.618  13.706  11.327
59486SOL     OW80354   6.912   0.565   6.852
59486SOL    HW180355   6.990   0.596   6.899
59486SOL    HW280356   6.911   0.470   6.867
59487SOL     OW80357  14.230   2.279   4.203
59487SOL    HW180358  14.270   2.365   4.216
59487SOL    HW280359  14.303   2.217   4.208
59488SOL     OW80360   7.940  10.188  13.151
59488SOL    HW180361   7.976  10.192  13.240
59488SOL    HW280362   8.009  10.221  13.095
59489SOL     OW80363   0.991   7.080  14.613
59489SOL    HW180364   1.054   7.108  14.545
59489SOL    HW280365   1.012   6.987  14.627
59490SOL     OW80366   9.655  13.913  10.112
59490SOL    HW180367   9.650  13.826  10.072
59490SOL    HW280368   9.656  13.973  10.037
59491SOL     OW80369   9.801   6.283  10.928
59491SOL    HW180370   9.779   6.358  10.984
59491SOL    HW280371   9.893   6.264  10.949
59492SOL     OW80372   9.122   1.869   2.172
59492SOL    HW180373   9.127   1.803   2.241
59492SOL    HW280374   9.187   1.934   2.197
59493SOL     OW80375  14.080   4.736   7.895
59493SOL    HW180376  14.016   4.690   7.950
59493SOL    HW280377  14.094   4.820   7.938
59494SOL     OW80378   4.961   4.929  13.476
59494SOL    HW180379   4.977   4.984  13.399
59494SOL    HW280380   4.973   4.988  13.551
59495SOL     OW80381   4.422   7.625  11.020
59495SOL    HW180382   4.389   7.553  10.966
59495SOL    HW280383   4.353   7.641  11.084
59496SOL     OW80384   2.488   9.851  13.765
59496SOL    HW180385   2.438   9.833  13.685
59496SOL    HW280386   2.482   9.770  13.815
59497SOL     OW80387   6.936   7.874   4.344
59497SOL    HW180388   7.020   7.834   4.368
59497SOL    HW280389   6.871   7.828   4.398
59498SOL     OW80390  12.495   9.857  11.512
59498SOL    HW180391  12.494   9.766  11.482
59498SOL    HW280392  12.588   9.880  11.516
59499SOL     OW80393   8.810   0.596   3.719
59499SOL    HW180394   8.895   0.639   3.725
59499SOL    HW280395   8.811   0.551   3.634
59500SOL     OW80396   2.014  11.836   8.614
59500SOL    HW180397   2.062  11.798   8.540
59500SOL    HW280398   2.050  11.924   8.625
59501SOL     OW80399   8.845   8.242   1.757
59501SOL    HW180400   8.912   8.177   1.776
59501SOL    HW280401   8.861   8.312   1.820
59502SOL     OW80402   6.900   2.060   5.079
59502SOL    HW180403   6.840   1.986   5.091
59502SOL    HW280404   6.849   2.136   5.106
59503SOL     OW80405   0.070   8.169  14.882
59503SOL    HW180406   0.009   8.153   0.071
59503SOL    HW280407   0.016   8.205  14.811
59504SOL     OW80408  11.586  10.434  10.547
59504SOL    HW180409  11.636  10.514  10.560
59504SOL    HW280410  11.528  10.453  10.473
59505SOL     OW80411   1.763   8.656   9.137
59505SOL    HW180412   1.810   8.620   9.213
59505SOL    HW280413   1.827   8.654   9.066
59506SOL     OW80414   6.920   3.454  11.485
59506SOL    HW180415   6.833   3.444  11.447
59506SOL    HW280416   6.954   3.534  11.446
59507SOL     OW80417   5.867   0.980   3.769
59507SOL    HW180418   5.875   0.901   3.714
59507SOL    HW280419   5.772   0.995   3.775
59508SOL     OW80420  11.573   8.648   6.649
59508SOL    HW180421  11.651   8.637   6.703
59508SOL    HW280422  11.505   8.675   6.711
59509SOL     OW80423  13.727   7.269   5.694
59509SOL    HW180424  13.703   7.361   5.704
59509SOL    HW280425  13.677   7.224   5.762
59510SOL     OW80426  12.444  11.783   3.104
59510SOL    HW180427  12.375  11.815   3.046
59510SOL    HW280428  12.513  11.849   3.097
59511SOL     OW80429   2.154  13.449  14.330
59511SOL    HW180430   2.209  13.371  14.337
59511SOL    HW280431   2.100  13.434  14.252
59512SOL     OW80432   5.561  12.875   0.765
59512SOL    HW180433   5.574  12.968   0.781
59512SOL    HW280434   5.527  12.870   0.676
59513SOL     OW80435   1.142  14.737  10.720
59513SOL    HW180436   1.173  14.826  10.739
59513SOL    HW280437   1.154  14.690  10.802
59514SOL     OW80438   3.416   4.632   2.924
59514SOL    HW180439   3.397   4.572   2.996
59514SOL    HW280440   3.446   4.712   2.967
59515SOL     OW80441   7.564   5.336   7.655
59515SOL    HW180442   7.545   5.343   7.562
59515SOL    HW280443   7.621   5.410   7.674
59516SOL     OW80444   5.891   8.552   5.005
59516SOL    HW180445   5.974   8.513   4.975
59516SOL    HW280446   5.843   8.568   4.924
59517SOL     OW80447   0.916   2.669   2.130
59517SOL    HW180448   0.907   2.581   2.094
59517SOL    HW280449   0.871   2.725   2.067
59518SOL     OW80450   5.843   5.584   2.161
59518SOL    HW180451   5.842   5.679   2.174
59518SOL    HW280452   5.820   5.572   2.069
59519SOL     OW80453  12.680   5.155   9.329
59519SOL    HW180454  12.696   5.249   9.318
59519SOL    HW280455  12.732   5.113   9.261
59520SOL     OW80456  12.817   7.293  13.318
59520SOL    HW180457  12.895   7.324  13.271
59520SOL    HW280458  12.756   7.366  13.315
59521SOL     OW80459   8.208   3.183   4.689
59521SOL    HW180460   8.175   3.262   4.648
59521SOL    HW280461   8.169   3.111   4.638
59522SOL     OW80462   0.805   2.087   3.232
59522SOL    HW180463   0.734   2.086   3.297
59522SOL    HW280464   0.858   2.163   3.256
59523SOL     OW80465   7.750   4.260   5.416
59523SOL    HW180466   7.808   4.305   5.478
59523SOL    HW280467   7.662   4.291   5.438
59524SOL     OW80468   1.854  14.819  10.848
59524SOL    HW180469   1.946  14.837  10.827
59524SOL    HW280470   1.829   0.007  10.909
59525SOL     OW80471  10.960  11.923   8.841
59525SOL    HW180472  10.869  11.905   8.819
59525SOL    HW280473  10.969  12.018   8.834
59526SOL     OW80474   0.588   5.361   2.677
59526SOL    HW180475   0.663   5.389   2.730
59526SOL    HW280476   0.623   5.291   2.622
59527SOL     OW80477   2.888  14.351  10.009
59527SOL    HW180478   2.887  14.424   9.946
59527SOL    HW280479   2.940  14.283   9.967
59528SOL     OW80480   3.728   7.132   3.233
59528SOL    HW180481   3.758   7.219   3.205
59528SOL    HW280482   3.635   7.131   3.211
59529SOL     OW80483   6.725  11.234   8.509
59529SOL    HW180484   6.743  11.265   8.421
59529SOL    HW280485   6.805  11.189   8.536
59530SOL     OW80486   6.852   0.304   7.784
59530SOL    HW180487   6.814   0.233   7.835
59530SOL    HW280488   6.913   0.347   7.843
59531SOL     OW80489  12.109   9.057   4.931
59531SOL    HW180490  12.153   8.994   4.874
59531SOL    HW280491  12.151   9.045   5.017
59532SOL     OW80492  11.949  14.009   4.293
59532SOL    HW180493  11.854  13.999   4.299
59532SOL    HW280494  11.984  13.922   4.311
59533SOL     OW80495   8.309  12.587  14.278
59533SOL    HW180496   8.278  12.620  14.363
59533SOL    HW280497   8.285  12.495  14.278
59534SOL     OW80498  11.002  12.765  14.142
59534SOL    HW180499  10.966  12.680  14.168
59534SOL    HW280500  11.096  12.750  14.136
59535SOL     OW80501   5.857  11.859  12.694
59535SOL    HW180502   5.778  11.814  12.722
59535SOL    HW280503   5.833  11.902  12.612
59536SOL     OW80504  10.627   2.045   8.093
59536SOL    HW180505  10.582   2.085   8.018
59536SOL    HW280506  10.661   1.962   8.059
59537SOL     OW80507  11.057   7.897   0.400
59537SOL    HW180508  11.088   7.812   0.370
59537SOL    HW280509  11.042   7.947   0.320
59538SOL     OW80510   3.051   7.700   5.282
59538SOL    HW180511   3.068   7.772   5.222
59538SOL    HW280512   3.008   7.741   5.357
59539SOL     OW80513   7.906   5.696   8.326
59539SOL    HW180514   7.876   5.782   8.356
59539SOL    HW280515   7.868   5.634   8.389
59540SOL     OW80516   8.218  14.617   7.112
59540SOL    HW180517   8.208  14.709   7.089
59540SOL    HW280518   8.225  14.616   7.208
59541SOL     OW80519   6.163   6.880   3.928
59541SOL    HW180520   6.141   6.806   3.871
59541SOL    HW280521   6.133   6.854   4.015
59542SOL     OW80522   3.359   2.223  11.648
59542SOL    HW180523   3.329   2.216  11.739
59542SOL    HW280524   3.431   2.161  11.642
59543SOL     OW80525   0.326   9.724  11.937
59543SOL    HW180526   0.246   9.751  11.981
59543SOL    HW280527   0.395   9.737  12.002
59544SOL     OW80528   2.687   4.051   3.223
59544SOL    HW180529   2.731   3.990   3.282
59544SOL    HW280530   2.630   4.102   3.280
59545SOL     OW80531  12.608  10.783   3.929
59545SOL    HW180532  12.657  10.738   3.860
59545SOL    HW280533  12.533  10.727   3.946
59546SOL     OW80534   4.649   8.006   2.721
59546SOL    HW180535   4.572   8.063   2.726
59546SOL    HW280536   4.650   7.961   2.806
59547SOL     OW80537   5.931   2.852   1.662
59547SOL    HW180538   5.912   2.856   1.756
59547SOL    HW280539   5.845   2.843   1.621
59548SOL     OW80540   5.108   4.630   4.580
59548SOL    HW180541   5.182   4.637   4.519
59548SOL    HW280542   5.102   4.717   4.620
59549SOL     OW80543  13.145   1.814  14.856
59549SOL    HW180544  13.136   1.732   0.021
59549SOL    HW280545  13.227   1.852   0.005
59550SOL     OW80546  12.426   6.485   2.501
59550SOL    HW180547  12.413   6.538   2.579
59550SOL    HW280548  12.448   6.548   2.432
59551SOL     OW80549   9.585   5.772  11.645
59551SOL    HW180550   9.522   5.734  11.705
59551SOL    HW280551   9.666   5.723  11.659
59552SOL     OW80552  14.791   7.598   5.033
59552SOL    HW180553  14.756   7.510   5.018
59552SOL    HW280554  14.738   7.633   5.105
59553SOL     OW80555   1.547   2.271   1.570
59553SOL    HW180556   1.499   2.198   1.608
59553SOL    HW280557   1.481   2.339   1.555
59554SOL     OW80558   9.478  11.577  11.995
59554SOL    HW180559   9.389  11.545  12.010
59554SOL    HW280560   9.526  11.502  11.961
59555SOL     OW80561   4.671   4.806   1.532
59555SOL    HW180562   4.657   4.861   1.455
59555SOL    HW280563   4.751   4.840   1.571
59556SOL     OW80564   0.433   5.280   8.895
59556SOL    HW180565   0.477   5.338   8.833
59556SOL    HW280566   0.340   5.303   8.889
59557SOL     OW80567  12.855   7.441   7.782
59557SOL    HW180568  12.881   7.425   7.692
59557SOL    HW280569  12.924   7.496   7.818
59558SOL     OW80570   7.921   4.430  14.798
59558SOL    HW180571   7.839   4.397  14.763
59558SOL    HW280572   7.989   4.381  14.750
59559SOL     OW80573   2.013   5.007   1.122
59559SOL    HW180574   1.941   5.045   1.173
59559SOL    HW280575   2.090   5.056   1.150
59560SOL     OW80576  12.231   6.922   3.845
59560SOL    HW180577  12.314   6.948   3.884
59560SOL    HW280578  12.166   6.939   3.913
59561SOL     OW80579  10.197  12.971   0.430
59561SOL    HW180580  10.160  12.884   0.443
59561SOL    HW280581  10.131  13.031   0.465
59562SOL     OW80582  14.319  10.884   9.385
59562SOL    HW180583  14.302  10.814   9.448
59562SOL    HW280584  14.242  10.885   9.328
59563SOL     OW80585   9.749   8.177   4.445
59563SOL    HW180586   9.759   8.182   4.350
59563SOL    HW280587   9.748   8.083   4.463
59564SOL     OW80588   4.736  13.059  10.540
59564SOL    HW180589   4.648  13.021  10.542
59564SOL    HW280590   4.787  13.007  10.601
59565SOL     OW80591  11.802  10.856  14.053
59565SOL    HW180592  11.780  10.918  14.123
59565SOL    HW280593  11.894  10.872  14.035
59566SOL     OW80594   2.275  13.469   8.618
59566SOL    HW180595   2.266  13.557   8.654
59566SOL    HW280596   2.316  13.418   8.688
59567SOL     OW80597   9.978   2.517  10.681
59567SOL    HW180598   9.890   2.500  10.714
59567SOL    HW280599   9.974   2.605  10.646
59568SOL     OW80600   7.693   9.784  13.622
59568SOL    HW180601   7.606   9.759  13.590
59568SOL    HW280602   7.738   9.701  13.634
59569SOL     OW80603   4.569   5.816   9.418
59569SOL    HW180604   4.575   5.760   9.496
59569SOL    HW280605   4.569   5.754   9.345
59570SOL     OW80606   1.542   8.546   5.297
59570SOL    HW180607   1.488   8.474   5.327
59570SOL    HW280608   1.519   8.619   5.356
59571SOL     OW80609   3.254  11.563  11.264
59571SOL    HW180610   3.290  11.582  11.351
59571SOL    HW280611   3.324  11.589  11.204
59572SOL     OW80612   2.798  14.790  13.042
59572SOL    HW180613   2.715  14.763  13.002
59572SOL    HW280614   2.866  14.757  12.983
59573SOL     OW80615   8.646  10.825   9.044
59573SOL    HW180616   8.684  10.740   9.022
59573SOL    HW280617   8.676  10.883   8.974
59574SOL     OW80618   7.468   5.303  11.656
59574SOL    HW180619   7.423   5.323  11.574
59574SOL    HW280620   7.402   5.257  11.708
59575SOL     OW80621  13.924  11.711  12.486
59575SOL    HW180622  13.918  11.702  12.582
59575SOL    HW280623  14.007  11.669  12.464
59576SOL     OW80624   6.118   2.463   1.121
59576SOL    HW180625   6.066   2.424   1.192
59576SOL    HW280626   6.125   2.556   1.144
59577SOL     OW80627   8.794   9.204   7.627
59577SOL    HW180628   8.849   9.278   7.654
59577SOL    HW280629   8.853   9.146   7.579
59578SOL     OW80630  12.449   6.440  10.486
59578SOL    HW180631  12.356   6.463  10.484
59578SOL    HW280632  12.451   6.352  10.522
59579SOL     OW80633  13.998   6.715  11.752
59579SOL    HW180634  13.977   6.670  11.671
59579SOL    HW280635  14.014   6.806  11.726
59580SOL     OW80636   1.638   8.790  13.019
59580SOL    HW180637   1.652   8.711  13.072
59580SOL    HW280638   1.627   8.758  12.930
59581SOL     OW80639   2.626   1.471   8.661
59581SOL    HW180640   2.564   1.403   8.687
59581SOL    HW280641   2.597   1.550   8.707
59582SOL     OW80642  10.927  10.120   5.117
59582SOL    HW180643  10.900  10.122   5.209
59582SOL    HW280644  10.911  10.209   5.085
59583SOL     OW80645  13.970   8.404  12.157
59583SOL    HW180646  13.933   8.382  12.243
59583SOL    HW280647  13.895   8.416  12.100
59584SOL     OW80648  13.252   3.006   6.995
59584SOL    HW180649  13.314   3.061   7.042
59584SOL    HW280650  13.234   2.933   7.055
59585SOL     OW80651  14.505   4.371   8.273
59585SOL    HW180652  14.505   4.406   8.363
59585SOL    HW280653  14.452   4.434   8.223
59586SOL     OW80654   0.189   6.529   9.334
59586SOL    HW180655   0.127   6.486   9.274
59586SOL    HW280656   0.163   6.498   9.421
59587SOL     OW80657   4.800   1.505  11.464
59587SOL    HW180658   4.817   1.560  11.540
59587SOL    HW280659   4.886   1.495  11.423
59588SOL     OW80660   4.911   5.321   4.813
59588SOL    HW180661   4.896   5.262   4.740
59588SOL    HW280662   5.003   5.308   4.837
59589SOL     OW80663   8.415   7.307   7.791
59589SOL    HW180664   8.458   7.222   7.781
59589SOL    HW280665   8.359   7.296   7.868
59590SOL     OW80666   8.836  13.519   4.108
59590SOL    HW180667   8.859  13.475   4.027
59590SOL    HW280668   8.766  13.465   4.146
59591SOL     OW80669   2.158   7.698   5.218
59591SOL    HW180670   2.235   7.705   5.274
59591SOL    HW280671   2.190   7.658   5.138
59592SOL     OW80672  12.276   3.030   9.308
59592SOL    HW180673  12.318   3.116   9.313
59592SOL    HW280674  12.183   3.048   9.326
59593SOL     OW80675   3.262   0.707   0.966
59593SOL    HW180676   3.309   0.689   1.047
59593SOL    HW280677   3.275   0.628   0.913
59594SOL     OW80678  10.996   9.175   6.523
59594SOL    HW180679  11.066   9.111   6.508
59594SOL    HW280680  10.949   9.179   6.439
59595SOL     OW80681   3.026  13.625   5.204
59595SOL    HW180682   3.109  13.671   5.189
59595SOL    HW280683   3.052  13.536   5.230
59596SOL     OW80684   6.145   3.535   9.213
59596SOL    HW180685   6.059   3.560   9.177
59596SOL    HW280686   6.181   3.617   9.247
59597SOL     OW80687   6.183  13.791   8.164
59597SOL    HW180688   6.160  13.865   8.220
59597SOL    HW280689   6.152  13.714   8.211
59598SOL     OW80690   9.767   0.273   0.474
59598SOL    HW180691   9.736   0.285   0.564
59598SOL    HW280692   9.695   0.227   0.430
59599SOL     OW80693   3.046  13.656   6.592
59599SOL    HW180694   2.999  13.662   6.675
59599SOL    HW280695   3.090  13.741   6.584
59600SOL     OW80696   9.321  12.007   2.495
59600SOL    HW180697   9.359  12.094   2.485
59600SOL    HW280698   9.227  12.022   2.495
59601SOL     OW80699   3.500   3.901   2.765
59601SOL    HW180700   3.483   3.825   2.821
59601SOL    HW280701   3.485   3.977   2.822
59602SOL     OW80702   7.612   1.079   9.519
59602SOL    HW180703   7.674   1.112   9.585
59602SOL    HW280704   7.642   1.118   9.437
59603SOL     OW80705   1.359   4.929   7.817
59603SOL    HW180706   1.368   4.917   7.912
59603SOL    HW280707   1.270   4.961   7.805
59604SOL     OW80708   3.719   5.466  14.845
59604SOL    HW180709   3.810   5.438  14.833
59604SOL    HW280710   3.724   5.562  14.841
59605SOL     OW80711   9.031   7.112   1.880
59605SOL    HW180712   9.049   7.175   1.810
59605SOL    HW280713   8.975   7.160   1.941
59606SOL     OW80714   9.533  11.530   0.523
59606SOL    HW180715   9.471  11.601   0.507
59606SOL    HW280716   9.562  11.545   0.613
59607SOL     OW80717   7.258  11.755   4.987
59607SOL    HW180718   7.200  11.789   5.055
59607SOL    HW280719   7.207  11.685   4.945
59608SOL     OW80720   7.189   5.329  13.040
59608SOL    HW180721   7.120   5.390  13.014
59608SOL    HW280722   7.270   5.374  13.018
59609SOL     OW80723  13.838  12.528  13.311
59609SOL    HW180724  13.902  12.463  13.339
59609SOL    HW280725  13.877  12.568  13.233
59610SOL     OW80726  13.738  14.300   3.245
59610SOL    HW180727  13.712  14.335   3.160
59610SOL    HW280728  13.655  14.281   3.290
59611SOL     OW80729   7.592   0.294   5.296
59611SOL    HW180730   7.657   0.253   5.238
59611SOL    HW280731   7.596   0.387   5.274
59612SOL     OW80732   3.885   6.475   0.355
59612SOL    HW180733   3.906   6.464   0.448
59612SOL    HW280734   3.859   6.388   0.325
59613SOL     OW80735  11.353   9.652  10.936
59613SOL    HW180736  11.383   9.740  10.957
59613SOL    HW280737  11.338   9.611  11.021
59614SOL     OW80738   1.104  14.557   7.230
59614SOL    HW180739   1.158  14.579   7.154
59614SOL    HW280740   1.124  14.465   7.247
59615SOL     OW80741   2.061   1.374   7.183
59615SOL    HW180742   2.044   1.299   7.126
59615SOL    HW280743   1.981   1.384   7.234
59616SOL     OW80744  10.532   1.707   2.874
59616SOL    HW180745  10.461   1.642   2.874
59616SOL    HW280746  10.527   1.746   2.961
59617SOL     OW80747   0.364   1.803  12.886
59617SOL    HW180748   0.328   1.719  12.915
59617SOL    HW280749   0.434   1.779  12.825
59618SOL     OW80750  12.278   3.728   4.068
59618SOL    HW180751  12.272   3.636   4.092
59618SOL    HW280752  12.277   3.728   3.972
59619SOL     OW80753   6.514   0.993  10.072
59619SOL    HW180754   6.520   1.024  10.162
59619SOL    HW280755   6.535   1.070  10.019
59620SOL     OW80756   7.798  13.580  11.811
59620SOL    HW180757   7.864  13.559  11.744
59620SOL    HW280758   7.849  13.600  11.889
59621SOL     OW80759  14.859   9.332  11.075
59621SOL    HW180760  14.778   9.369  11.040
59621SOL    HW280761   0.037   9.331  11.000
59622SOL     OW80762  10.643   9.443   9.240
59622SOL    HW180763  10.608   9.394   9.315
59622SOL    HW280764  10.672   9.376   9.179
59623SOL     OW80765  13.811   2.826   9.519
59623SOL    HW180766  13.895   2.862   9.547
59623SOL    HW280767  13.759   2.904   9.496
59624SOL     OW80768   8.755  13.493   9.660
59624SOL    HW180769   8.820  13.507   9.591
59624SOL    HW280770   8.674  13.528   9.624
59625SOL     OW80771  13.349   0.021  12.717
59625SOL    HW180772  13.300  14.824  12.696
59625SOL    HW280773  13.309   0.053  12.798
59626SOL     OW80774   5.266  13.090   3.929
59626SOL    HW180775   5.334  13.024   3.933
59626SOL    HW280776   5.188  13.043   3.901
59627SOL     OW80777  10.423  12.903   3.676
59627SOL    HW180778  10.426  12.995   3.652
59627SOL    HW280779  10.386  12.859   3.599
59628SOL     OW80780   3.816   2.849  14.874
59628SOL    HW180781   3.886   2.785   0.003
59628SOL    HW280782   3.764   2.815  14.802
59629SOL     OW80783   3.259   1.533   5.043
59629SOL    HW180784   3.317   1.535   5.119
59629SOL    HW280785   3.177   1.497   5.076
59630SOL     OW80786  12.180  13.386  12.066
59630SOL    HW180787  12.261  13.416  12.106
59630SOL    HW280788  12.202  13.370  11.974
59631SOL     OW80789   1.640   4.447   6.384
59631SOL    HW180790   1.680   4.389   6.449
59631SOL    HW280791   1.609   4.522   6.435
59632SOL     OW80792   1.824   4.887   8.448
59632SOL    HW180793   1.873   4.969   8.446
59632SOL    HW280794   1.890   4.819   8.434
59633SOL     OW80795   2.503   2.461  11.356
59633SOL    HW180796   2.574   2.405  11.388
59633SOL    HW280797   2.481   2.426  11.270
59634SOL     OW80798   4.670   5.447   3.263
59634SOL    HW180799   4.700   5.410   3.346
59634SOL    HW280800   4.708   5.535   3.262
59635SOL     OW80801   2.088   0.371   3.679
59635SOL    HW180802   2.087   0.461   3.712
59635SOL    HW280803   2.173   0.361   3.637
59636SOL     OW80804   0.575  10.252   9.559
59636SOL    HW180805   0.647  10.215   9.609
59636SOL    HW280806   0.496  10.218   9.601
59637SOL     OW80807  12.938  11.475  12.821
59637SOL    HW180808  12.881  11.416  12.872
59637SOL    HW280809  12.878  11.540  12.785
59638SOL     OW80810   6.260   3.909  11.863
59638SOL    HW180811   6.235   3.972  11.797
59638SOL    HW280812   6.314   3.959  11.925
59639SOL     OW80813   6.154   3.397   7.155
59639SOL    HW180814   6.126   3.341   7.082
59639SOL    HW280815   6.080   3.397   7.215
59640SOL     OW80816  11.465   0.438   0.585
59640SOL    HW180817  11.456   0.531   0.604
59640SOL    HW280818  11.445   0.394   0.667
59641SOL     OW80819   4.386   7.053  13.377
59641SOL    HW180820   4.477   7.036  13.353
59641SOL    HW280821   4.341   6.971  13.358
59642SOL     OW80822   7.571   3.974   0.765
59642SOL    HW180823   7.654   3.956   0.720
59642SOL    HW280824   7.576   4.066   0.790
59643SOL     OW80825   8.003   6.218   6.987
59643SOL    HW180826   8.021   6.135   7.032
59643SOL    HW280827   8.088   6.263   6.986
59644SOL     OW80828  13.444   2.151   4.932
59644SOL    HW180829  13.365   2.160   4.879
59644SOL    HW280830  13.438   2.223   4.996
59645SOL     OW80831   6.924  14.387   4.317
59645SOL    HW180832   6.882  14.312   4.276
59645SOL    HW280833   6.962  14.352   4.398
59646SOL     OW80834   3.786   0.329   3.434
59646SOL    HW180835   3.763   0.421   3.445
59646SOL    HW280836   3.882   0.328   3.433
59647SOL     OW80837   6.451   3.662   1.769
59647SOL    HW180838   6.473   3.755   1.777
59647SOL    HW280839   6.523   3.617   1.814
59648SOL     OW80840   5.560  12.726   9.315
59648SOL    HW180841   5.562  12.693   9.225
59648SOL    HW280842   5.624  12.672   9.362
59649SOL     OW80843   9.863   0.964  10.947
59649SOL    HW180844   9.834   0.875  10.929
59649SOL    HW280845   9.907   0.992  10.867
59650SOL     OW80846  12.314   7.978   2.380
59650SOL    HW180847  12.341   7.903   2.329
59650SOL    HW280848  12.304   7.944   2.469
59651SOL     OW80849   8.807   5.780  10.366
59651SOL    HW180850   8.757   5.757  10.287
59651SOL    HW280851   8.743   5.823  10.423
59652SOL     OW80852   9.171   2.426   7.645
59652SOL    HW180853   9.092   2.381   7.614
59652SOL    HW280854   9.207   2.468   7.567
59653SOL     OW80855   7.364   6.003   2.303
59653SOL    HW180856   7.387   6.060   2.230
59653SOL    HW280857   7.424   5.928   2.296
59654SOL     OW80858   2.252   4.417   0.854
59654SOL    HW180859   2.207   4.491   0.814
59654SOL    HW280860   2.218   4.413   0.944
59655SOL     OW80861  14.805  14.657   8.395
59655SOL    HW180862  14.769  14.641   8.483
59655SOL    HW280863   0.016  14.669   8.410
59656SOL     OW80864   7.236   8.914   9.003
59656SOL    HW180865   7.239   9.009   8.987
59656SOL    HW280866   7.218   8.906   9.097
59657SOL     OW80867   8.688  12.248  11.162
59657SOL    HW180868   8.781  12.257  11.143
59657SOL    HW280869   8.646  12.242  11.076
59658SOL     OW80870   4.561  13.735  11.355
59658SOL    HW180871   4.596  13.770  11.273
59658SOL    HW280872   4.538  13.812  11.407
59659SOL     OW80873   7.722  12.467   4.660
59659SOL    HW180874   7.659  12.517   4.607
59659SOL    HW280875   7.670  12.431   4.731
59660SOL     OW80876   9.398   2.333   5.464
59660SOL    HW180877   9.461   2.334   5.536
59660SOL    HW280878   9.332   2.399   5.489
59661SOL     OW80879  11.025  11.938  10.417
59661SOL    HW180880  11.080  12.008  10.384
59661SOL    HW280881  11.004  11.963  10.507
59662SOL     OW80882   3.511   5.565  10.696
59662SOL    HW180883   3.492   5.650  10.736
59662SOL    HW280884   3.538   5.510  10.770
59663SOL     OW80885  11.387  10.711   8.496
59663SOL    HW180886  11.356  10.802   8.492
59663SOL    HW280887  11.326  10.668   8.556
59664SOL     OW80888  14.585  11.910   0.142
59664SOL    HW180889  14.680  11.913   0.137
59664SOL    HW280890  14.561  11.836   0.087
59665SOL     OW80891   5.592   1.531  12.463
59665SOL    HW180892   5.574   1.585  12.386
59665SOL    HW280893   5.564   1.585  12.537
59666SOL     OW80894   7.468   8.223   9.257
59666SOL    HW180895   7.476   8.318   9.246
59666SOL    HW280896   7.430   8.192   9.175
59667SOL     OW80897  12.015   2.671  14.241
59667SOL    HW180898  12.009   2.598  14.303
59667SOL    HW280899  12.030   2.748  14.296
59668SOL     OW80900   6.587   6.386  12.034
59668SOL    HW180901   6.532   6.422  11.965
59668SOL    HW280902   6.530   6.381  12.111
59669SOL     OW80903   4.122  11.242   8.973
59669SOL    HW180904   4.121  11.244   8.877
59669SOL    HW280905   4.042  11.197   8.997
59670SOL     OW80906   6.437   9.522   5.276
59670SOL    HW180907   6.416   9.573   5.355
59670SOL    HW280908   6.456   9.434   5.309
59671SOL     OW80909   9.187   2.257   5.644
59671SOL    HW180910   9.138   2.204   5.707
59671SOL    HW280911   9.255   2.300   5.696
59672SOL     OW80912   4.215   8.212   3.784
59672SOL    HW180913   4.231   8.188   3.693
59672SOL    HW280914   4.203   8.129   3.830
59673SOL     OW80915   9.366  11.837  12.270
59673SOL    HW180916   9.459  11.815  12.275
59673SOL    HW280917   9.320  11.755  12.288
59674SOL     OW80918   9.745   0.544   2.909
59674SOL    HW180919   9.802   0.498   2.849
59674SOL    HW280920   9.800   0.613   2.947
59675SOL     OW80921   4.229   7.439   9.015
59675SOL    HW180922   4.135   7.455   9.006
59675SOL    HW280923   4.270   7.525   9.000
59676SOL     OW80924   9.793   0.575   1.799
59676SOL    HW180925   9.804   0.658   1.754
59676SOL    HW280926   9.834   0.510   1.741
59677SOL     OW80927   2.099   3.554  11.486
59677SOL    HW180928   2.030   3.519  11.543
59677SOL    HW280929   2.153   3.478  11.464
59678SOL     OW80930  13.522   6.722   1.691
59678SOL    HW180931  13.533   6.627   1.680
59678SOL    HW280932  13.502   6.733   1.783
59679SOL     OW80933  11.318   8.525   5.956
59679SOL    HW180934  11.262   8.573   6.017
59679SOL    HW280935  11.360   8.593   5.903
59680SOL     OW80936   4.271   9.059   3.085
59680SOL    HW180937   4.313   8.977   3.056
59680SOL    HW280938   4.225   9.091   3.007
59681SOL     OW80939  11.128   3.227   8.803
59681SOL    HW180940  11.081   3.144   8.802
59681SOL    HW280941  11.062   3.291   8.831
59682SOL     OW80942  11.400   7.060  13.097
59682SOL    HW180943  11.492   7.039  13.118
59682SOL    HW280944  11.370   6.985  13.046
59683SOL     OW80945   5.539   4.281   6.942
59683SOL    HW180946   5.550   4.365   6.987
59683SOL    HW280947   5.502   4.223   7.008
59684SOL     OW80948   5.190   3.820  10.252
59684SOL    HW180949   5.210   3.727  10.241
59684SOL    HW280950   5.271   3.865  10.228
59685SOL     OW80951   7.997   2.706   3.532
59685SOL    HW180952   7.942   2.699   3.454
59685SOL    HW280953   8.070   2.761   3.504
59686SOL     OW80954  11.777   3.934   7.582
59686SOL    HW180955  11.754   3.946   7.674
59686SOL    HW280956  11.864   3.895   7.584
59687SOL     OW80957   9.045  10.801   2.120
59687SOL    HW180958   8.972  10.777   2.177
59687SOL    HW280959   9.082  10.718   2.091
59688SOL     OW80960   1.469   7.258   0.787
59688SOL    HW180961   1.532   7.322   0.754
59688SOL    HW280962   1.459   7.279   0.880
59689SOL     OW80963  10.542   0.880  10.104
59689SOL    HW180964  10.550   0.836  10.189
59689SOL    HW280965  10.629   0.872  10.065
59690SOL     OW80966   1.793   0.221  11.455
59690SOL    HW180967   1.885   0.231  11.481
59690SOL    HW280968   1.765   0.311  11.436
59691SOL     OW80969   8.207  10.254   5.286
59691SOL    HW180970   8.121  10.273   5.247
59691SOL    HW280971   8.267  10.313   5.241
59692SOL     OW80972  11.682  14.335   0.070
59692SOL    HW180973  11.651  14.279   0.141
59692SOL    HW280974  11.688  14.277  14.877
59693SOL     OW80975  11.652  13.701   8.473
59693SOL    HW180976  11.589  13.728   8.406
59693SOL    HW280977  11.730  13.754   8.456
59694SOL     OW80978  12.791  10.673   3.744
59694SOL    HW180979  12.863  10.660   3.805
59694SOL    HW280980  12.833  10.682   3.659
59695SOL     OW80981   7.581   0.591   3.708
59695SOL    HW180982   7.636   0.514   3.721
59695SOL    HW280983   7.492   0.555   3.698
59696SOL     OW80984  10.901   6.320   4.847
59696SOL    HW180985  10.840   6.273   4.789
59696SOL    HW280986  10.893   6.275   4.931
59697SOL     OW80987   4.264  12.378   1.328
59697SOL    HW180988   4.279  12.285   1.345
59697SOL    HW280989   4.239  12.382   1.236
59698SOL     OW80990   6.936  12.381   0.561
59698SOL    HW180991   6.883  12.458   0.580
59698SOL    HW280992   7.024  12.416   0.544
59699SOL     OW80993   0.920   2.844  13.894
59699SOL    HW180994   0.918   2.930  13.935
59699SOL    HW280995   0.877   2.856  13.809
59700SOL     OW80996   9.853  13.423   2.742
59700SOL    HW180997   9.804  13.341   2.751
59700SOL    HW280998   9.895  13.434   2.828
59701SOL     OW80999   4.822   3.187  14.784
59701SOL    HW181000   4.818   3.116  14.719
59701SOL    HW281001   4.735   3.227  14.781
59702SOL     OW81002   9.095   7.733   2.884
59702SOL    HW181003   9.018   7.679   2.868
59702SOL    HW281004   9.168   7.680   2.851
59703SOL     OW81005  13.221   7.928   9.774
59703SOL    HW181006  13.221   7.865   9.702
59703SOL    HW281007  13.305   7.974   9.766
59704SOL     OW81008   8.205   7.443   6.849
59704SOL    HW181009   8.174   7.420   6.762
59704SOL    HW281010   8.230   7.360   6.889
59705SOL     OW81011  10.419  11.023   9.718
59705SOL    HW181012  10.495  11.035   9.660
59705SOL    HW281013  10.345  11.016   9.658
59706SOL     OW81014  10.432  13.798   2.103
59706SOL    HW181015  10.378  13.732   2.144
59706SOL    HW281016  10.376  13.838   2.037
59707SOL     OW81017   3.909   1.526   7.801
59707SOL    HW181018   3.913   1.515   7.896
59707SOL    HW281019   3.841   1.591   7.786
59708SOL     OW81020   4.309   3.537  13.760
59708SOL    HW181021   4.270   3.532  13.673
59708SOL    HW281022   4.357   3.455  13.770
59709SOL     OW81023   1.518   4.312   1.434
59709SOL    HW181024   1.587   4.325   1.369
59709SOL    HW281025   1.440   4.291   1.382
59710SOL     OW81026  11.809   1.783   1.212
59710SOL    HW181027  11.735   1.841   1.193
59710SOL    HW281028  11.824   1.792   1.306
59711SOL     OW81029   5.879   2.391   7.395
59711SOL    HW181030   5.824   2.320   7.427
59711SOL    HW281031   5.959   2.348   7.364
59712SOL     OW81032  10.931  12.087  11.475
59712SOL    HW181033  10.876  12.033  11.531
59712SOL    HW281034  11.000  12.028  11.444
59713SOL     OW81035   7.306  10.701  11.319
59713SOL    HW181036   7.232  10.664  11.367
59713SOL    HW281037   7.341  10.628  11.269
59714SOL     OW81038  12.793  11.706  12.023
59714SOL    HW181039  12.701  11.721  12.046
59714SOL    HW281040  12.824  11.791  11.991
59715SOL     OW81041  12.444   3.159   5.157
59715SOL    HW181042  12.461   3.185   5.248
59715SOL    HW281043  12.357   3.195   5.138
59716SOL     OW81044  11.078   6.884   2.126
59716SOL    HW181045  11.136   6.944   2.078
59716SOL    HW281046  11.103   6.797   2.095
59717SOL     OW81047   9.098   2.518  11.781
59717SOL    HW181048   9.083   2.433  11.740
59717SOL    HW281049   9.167   2.558  11.729
59718SOL     OW81050  11.151   7.952   9.576
59718SOL    HW181051  11.233   7.903   9.590
59718SOL    HW281052  11.173   8.015   9.507
59719SOL     OW81053  12.176   5.215  13.446
59719SOL    HW181054  12.271   5.220  13.452
59719SOL    HW281055  12.144   5.291  13.495
59720SOL     OW81056  13.042  13.065  14.065
59720SOL    HW181057  13.119  13.041  14.015
59720SOL    HW281058  13.039  13.002  14.137
59721SOL     OW81059   9.775   2.201   2.977
59721SOL    HW181060   9.728   2.187   3.059
59721SOL    HW281061   9.835   2.126   2.969
59722SOL     OW81062   5.376  13.539   0.944
59722SOL    HW181063   5.284  13.561   0.929
59722SOL    HW281064   5.375  13.445   0.962
59723SOL     OW81065  12.448  14.719  10.380
59723SOL    HW181066  12.449  14.626  10.359
59723SOL    HW281067  12.499  14.760  10.310
59724SOL     OW81068   1.093   3.717  13.538
59724SOL    HW181069   1.186   3.736  13.548
59724SOL    HW281070   1.058   3.721  13.627
59725SOL     OW81071   5.665  11.146   4.208
59725SOL    HW181072   5.753  11.183   4.204
59725SOL    HW281073   5.653  11.102   4.124
59726SOL     OW81074   2.627   8.226   7.381
59726SOL    HW181075   2.632   8.294   7.448
59726SOL    HW281076   2.661   8.147   7.423
59727SOL     OW81077   4.681   3.247   6.415
59727SOL    HW181078   4.663   3.194   6.337
59727SOL    HW281079   4.700   3.183   6.483
59728SOL     OW81080   0.092   3.688   0.201
59728SOL    HW181081   0.187   3.694   0.196
59728SOL    HW281082   0.072   3.598   0.175
59729SOL     OW81083   1.196   6.164  10.617
59729SOL    HW181084   1.202   6.071  10.593
59729SOL    HW281085   1.190   6.210  10.533
59730SOL     OW81086   9.905   8.963   3.676
59730SOL    HW181087   9.917   9.054   3.649
59730SOL    HW281088   9.953   8.955   3.758
59731SOL     OW81089   3.748  14.249   7.313
59731SOL    HW181090   3.824  14.307   7.303
59731SOL    HW281091   3.729  14.250   7.407
59732SOL     OW81092   2.561   1.317   7.040
59732SOL    HW181093   2.564   1.283   7.130
59732SOL    HW281094   2.568   1.238   6.986
59733SOL     OW81095   6.406  12.026   5.775
59733SOL    HW181096   6.397  12.119   5.758
59733SOL    HW281097   6.451  12.021   5.859
59734SOL     OW81098  14.531   8.596   8.572
59734SOL    HW181099  14.461   8.566   8.513
59734SOL    HW281100  14.530   8.532   8.643
59735SOL     OW81101  10.895   8.831  14.771
59735SOL    HW181102  10.828   8.898  14.758
59735SOL    HW281103  10.949   8.834  14.692
59736SOL     OW81104   8.026   6.709   2.222
59736SOL    HW181105   8.007   6.708   2.316
59736SOL    HW281106   8.099   6.770   2.214
59737SOL     OW81107   7.151  10.161   7.656
59737SOL    HW181108   7.144  10.081   7.604
59737SOL    HW281109   7.073  10.161   7.711
59738SOL     OW81110   9.908   1.920  14.089
59738SOL    HW181111   9.918   2.015  14.096
59738SOL    HW281112   9.827   1.901  14.138
59739SOL     OW81113  11.626   3.411   9.510
59739SOL    HW181114  11.656   3.455   9.430
59739SOL    HW281115  11.701   3.416   9.570
59740SOL     OW81116   4.394   7.602   6.202
59740SOL    HW181117   4.405   7.607   6.297
59740SOL    HW281118   4.307   7.564   6.190
59741SOL     OW81119   0.625  11.294  11.836
59741SOL    HW181120   0.718  11.313  11.820
59741SOL    HW281121   0.578  11.356  11.780
59742SOL     OW81122  12.386   0.377   2.264
59742SOL    HW181123  12.469   0.422   2.246
59742SOL    HW281124  12.370   0.393   2.357
59743SOL     OW81125   9.173   6.347  12.874
59743SOL    HW181126   9.173   6.396  12.957
59743SOL    HW281127   9.168   6.414  12.806
59744SOL     OW81128  10.560   3.234   7.558
59744SOL    HW181129  10.652   3.245   7.535
59744SOL    HW281130  10.526   3.324   7.560
59745SOL     OW81131  11.875  13.864  12.577
59745SOL    HW181132  11.935  13.887  12.506
59745SOL    HW281133  11.868  13.945  12.629
59746SOL     OW81134   6.877   4.930   5.766
59746SOL    HW181135   6.815   4.928   5.839
59746SOL    HW281136   6.823   4.916   5.688
59747SOL     OW81137   4.862  13.831   6.224
59747SOL    HW181138   4.789  13.788   6.270
59747SOL    HW281139   4.939  13.812   6.277
59748SOL     OW81140   4.353  13.336  13.055
59748SOL    HW181141   4.300  13.265  13.020
59748SOL    HW281142   4.413  13.359  12.985
59749SOL     OW81143  10.875  11.133   3.658
59749SOL    HW181144  10.847  11.057   3.710
59749SOL    HW281145  10.801  11.194   3.664
59750SOL     OW81146   6.526   1.773   7.353
59750SOL    HW181147   6.572   1.813   7.426
59750SOL    HW281148   6.464   1.841   7.324
59751SOL     OW81149  10.708  10.369   6.391
59751SOL    HW181150  10.622  10.390   6.354
59751SOL    HW281151  10.735  10.449   6.436
59752SOL     OW81152   7.920   1.406  11.446
59752SOL    HW181153   7.845   1.454  11.413
59752SOL    HW281154   7.883   1.341  11.506
59753SOL     OW81155  10.889   7.091  13.657
59753SOL    HW181156  10.926   7.025  13.599
59753SOL    HW281157  10.937   7.171  13.637
59754SOL     OW81158   0.113   3.662   8.931
59754SOL    HW181159   0.101   3.680   8.838
59754SOL    HW281160   0.170   3.585   8.933
59755SOL     OW81161   2.258   0.461  13.072
59755SOL    HW181162   2.176   0.413  13.085
59755SOL    HW281163   2.293   0.473  13.160
59756SOL     OW81164  14.124  11.296  14.373
59756SOL    HW181165  14.058  11.228  14.355
59756SOL    HW281166  14.185  11.289  14.300
59757SOL     OW81167   7.775   6.259   5.711
59757SOL    HW181168   7.823   6.204   5.649
59757SOL    HW281169   7.830   6.337   5.720
59758SOL     OW81170   3.295   7.826   9.439
59758SOL    HW181171   3.338   7.861   9.517
59758SOL    HW281172   3.211   7.793   9.472
59759SOL     OW81173   0.722   9.317   1.452
59759SOL    HW181174   0.711   9.405   1.489
59759SOL    HW281175   0.636   9.276   1.462
59760SOL     OW81176  10.459   4.210   2.271
59760SOL    HW181177  10.394   4.147   2.241
59760SOL    HW281178  10.447   4.215   2.366
59761SOL     OW81179   7.228  14.027   6.541
59761SOL    HW181180   7.216  13.963   6.610
59761SOL    HW281181   7.308  14.074   6.566
59762SOL     OW81182  10.490   9.466  10.137
59762SOL    HW181183  10.505   9.443  10.045
59762SOL    HW281184  10.404   9.508  10.138
59763SOL     OW81185  12.075   1.255  12.188
59763SOL    HW181186  12.138   1.314  12.146
59763SOL    HW281187  11.992   1.272  12.145
59764SOL     OW81188   4.927  13.262  11.089
59764SOL    HW181189   4.991  13.211  11.138
59764SOL    HW281190   4.950  13.247  10.997
59765SOL     OW81191   7.467  10.717   1.375
59765SOL    HW181192   7.411  10.642   1.394
59765SOL    HW281193   7.555  10.682   1.369
59766SOL     OW81194  13.678  13.682   3.753
59766SOL    HW181195  13.639  13.768   3.769
59766SOL    HW281196  13.742  13.672   3.823
59767SOL     OW81197   4.588  13.372   3.121
59767SOL    HW181198   4.612  13.336   3.036
59767SOL    HW281199   4.509  13.424   3.104
59768SOL     OW81200   6.610   7.721   2.965
59768SOL    HW181201   6.601   7.625   2.965
59768SOL    HW281202   6.546   7.751   3.030
59769SOL     OW81203   0.822   9.328   0.977
59769SOL    HW181204   0.760   9.317   1.049
59769SOL    HW281205   0.829   9.422   0.966
59770SOL     OW81206  12.171   4.085   4.739
59770SOL    HW181207  12.151   4.151   4.804
59770SOL    HW281208  12.092   4.080   4.684
59771SOL     OW81209  12.394   2.119   5.407
59771SOL    HW181210  12.389   2.159   5.494
59771SOL    HW281211  12.488   2.115   5.388
59772SOL     OW81212   3.228   5.538   4.936
59772SOL    HW181213   3.284   5.496   5.000
59772SOL    HW281214   3.183   5.608   4.985
59773SOL     OW81215  12.896   9.597   5.358
59773SOL    HW181216  12.946   9.525   5.320
59773SOL    HW281217  12.871   9.566   5.445
59774SOL     OW81218   4.249  12.465   5.153
59774SOL    HW181219   4.341  12.483   5.138
59774SOL    HW281220   4.224  12.405   5.083
59775SOL     OW81221   7.506   6.540  11.679
59775SOL    HW181222   7.555   6.578  11.752
59775SOL    HW281223   7.426   6.593  11.675
59776SOL     OW81224   1.352   4.656   8.307
59776SOL    HW181225   1.434   4.627   8.347
59776SOL    HW281226   1.299   4.687   8.380
59777SOL     OW81227   8.642   6.744   1.970
59777SOL    HW181228   8.738   6.750   1.963
59777SOL    HW281229   8.626   6.659   2.010
59778SOL     OW81230   1.657  10.971   8.208
59778SOL    HW181231   1.720  10.928   8.266
59778SOL    HW281232   1.574  10.968   8.256
59779SOL     OW81233  10.088   5.104  10.497
59779SOL    HW181234  10.138   5.136  10.572
59779SOL    HW281235   9.997   5.123  10.519
59780SOL     OW81236   1.296   0.848   5.688
59780SOL    HW181237   1.351   0.870   5.612
59780SOL    HW281238   1.276   0.755   5.677
59781SOL     OW81239   5.381  12.903   2.634
59781SOL    HW181240   5.370  12.895   2.729
59781SOL    HW281241   5.310  12.852   2.597
59782SOL     OW81242   4.836   6.642   7.245
59782SOL    HW181243   4.821   6.667   7.337
59782SOL    HW281244   4.881   6.717   7.207
59783SOL     OW81245   1.565   1.374  10.041
59783SOL    HW181246   1.528   1.394  10.128
59783SOL    HW281247   1.658   1.358  10.058
59784SOL     OW81248   3.373   4.290   3.628
59784SOL    HW181249   3.294   4.275   3.576
59784SOL    HW281250   3.375   4.385   3.642
59785SOL     OW81251  13.372   0.499   7.465
59785SOL    HW181252  13.383   0.582   7.512
59785SOL    HW281253  13.420   0.435   7.517
59786SOL     OW81254   5.558   4.945   2.717
59786SOL    HW181255   5.506   4.868   2.738
59786SOL    HW281256   5.641   4.909   2.684
59787SOL     OW81257  14.176   2.159  13.728
59787SOL    HW181258  14.263   2.197  13.721
59787SOL    HW281259  14.150   2.175  13.819
59788SOL     OW81260  10.624   2.937   0.686
59788SOL    HW181261  10.707   2.894   0.708
59788SOL    HW281262  10.647   3.001   0.619
59789SOL     OW81263  12.989   0.575   4.637
59789SOL    HW181264  12.942   0.599   4.717
59789SOL    HW281265  12.930   0.601   4.566
59790SOL     OW81266  13.510  13.664   1.623
59790SOL    HW181267  13.464  13.586   1.591
59790SOL    HW281268  13.603  13.642   1.616
59791SOL     OW81269   6.637   8.805  14.109
59791SOL    HW181270   6.658   8.711  14.108
59791SOL    HW281271   6.562   8.813  14.050
59792SOL     OW81272   4.646   6.824   2.916
59792SOL    HW181273   4.697   6.884   2.862
59792SOL    HW281274   4.599   6.769   2.853
59793SOL     OW81275  10.869   4.791   9.588
59793SOL    HW181276  10.814   4.861   9.625
59793SOL    HW281277  10.815   4.712   9.596
59794SOL     OW81278   5.449   1.270   9.403
59794SOL    HW181279   5.406   1.248   9.486
59794SOL    HW281280   5.439   1.365   9.395
59795SOL     OW81281   0.880  11.909   4.572
59795SOL    HW181282   0.928  11.908   4.655
59795SOL    HW281283   0.884  11.818   4.541
59796SOL     OW81284  13.949   4.026   5.740
59796SOL    HW181285  13.981   3.969   5.670
59796SOL    HW281286  14.001   4.106   5.729
59797SOL     OW81287  11.708   3.160   2.891
59797SOL    HW181288  11.778   3.225   2.892
59797SOL    HW281289  11.753   3.076   2.892
59798SOL     OW81290   3.419   4.459   9.536
59798SOL    HW181291   3.394   4.551   9.543
59798SOL    HW281292   3.462   4.439   9.619
59799SOL     OW81293   1.021  12.113  11.892
59799SOL    HW181294   0.964  12.047  11.851
59799SOL    HW281295   0.964  12.189  11.905
59800SOL     OW81296   8.943   1.302   0.747
59800SOL    HW181297   8.970   1.281   0.837
59800SOL    HW281298   9.005   1.369   0.719
59801SOL     OW81299  10.823  13.911   2.933
59801SOL    HW181300  10.823  13.905   2.837
59801SOL    HW281301  10.872  13.834   2.962
59802SOL     OW81302   4.726  12.897   3.225
59802SOL    HW181303   4.652  12.851   3.264
59802SOL    HW281304   4.798  12.884   3.287
59803SOL     OW81305   8.663   1.415  10.793
59803SOL    HW181306   8.673   1.367  10.875
59803SOL    HW281307   8.674   1.507  10.818
59804SOL     OW81308   2.527   9.626   8.517
59804SOL    HW181309   2.609   9.576   8.525
59804SOL    HW281310   2.473   9.573   8.458
59805SOL     OW81311   9.529   0.516   3.387
59805SOL    HW181312   9.596   0.558   3.333
59805SOL    HW281313   9.459   0.493   3.325
59806SOL     OW81314   9.930   2.753   6.934
59806SOL    HW181315   9.948   2.765   7.028
59806SOL    HW281316   9.935   2.841   6.898
59807SOL     OW81317   1.515   9.833  10.012
59807SOL    HW181318   1.567   9.843   9.933
59807SOL    HW281319   1.573   9.791  10.075
59808SOL     OW81320   2.994   9.814  14.747
59808SOL    HW181321   3.078   9.781  14.717
59808SOL    HW281322   2.949   9.842  14.667
59809SOL     OW81323   4.983   8.688   1.029
59809SOL    HW181324   4.964   8.770   0.982
59809SOL    HW281325   5.061   8.653   0.985
59810SOL     OW81326   9.276   3.461  13.988
59810SOL    HW181327   9.302   3.539  13.939
59810SOL    HW281328   9.250   3.397  13.921
59811SOL     OW81329   4.991   4.341  12.183
59811SOL    HW181330   4.933   4.347  12.107
59811SOL    HW281331   4.986   4.249  12.209
59812SOL     OW81332   5.603   5.978   1.117
59812SOL    HW181333   5.618   6.004   1.208
59812SOL    HW281334   5.546   5.902   1.123
59813SOL     OW81335  12.831  11.546   9.734
59813SOL    HW181336  12.879  11.467   9.761
59813SOL    HW281337  12.768  11.515   9.669
59814SOL     OW81338  12.442  12.784   2.486
59814SOL    HW181339  12.368  12.740   2.444
59814SOL    HW281340  12.449  12.742   2.572
59815SOL     OW81341   9.849  13.475  12.379
59815SOL    HW181342   9.795  13.469  12.299
59815SOL    HW281343   9.862  13.568  12.392
59816SOL     OW81344   1.388   5.891   7.395
59816SOL    HW181345   1.428   5.837   7.463
59816SOL    HW281346   1.306   5.846   7.374
59817SOL     OW81347   8.772  11.148   2.711
59817SOL    HW181348   8.736  11.220   2.661
59817SOL    HW281349   8.832  11.104   2.650
59818SOL     OW81350   6.968  12.675   8.193
59818SOL    HW181351   6.907  12.748   8.181
59818SOL    HW281352   6.934  12.605   8.137
59819SOL     OW81353   6.670   9.888   4.069
59819SOL    HW181354   6.655   9.881   3.975
59819SOL    HW281355   6.583   9.903   4.107
59820SOL     OW81356   1.374  10.143   7.942
59820SOL    HW181357   1.384  10.161   7.849
59820SOL    HW281358   1.411  10.055   7.953
59821SOL     OW81359   9.569  11.697   5.348
59821SOL    HW181360   9.476  11.717   5.357
59821SOL    HW281361   9.576  11.605   5.373
59822SOL     OW81362   2.595  11.788   0.100
59822SOL    HW181363   2.512  11.741   0.110
59822SOL    HW281364   2.571  11.880   0.103
59823SOL     OW81365  11.360   9.224   2.291
59823SOL    HW181366  11.294   9.287   2.319
59823SOL    HW281367  11.318   9.176   2.219
59824SOL     OW81368   8.852   5.790  10.997
59824SOL    HW181369   8.773   5.743  10.968
59824SOL    HW281370   8.871   5.755  11.084
59825SOL     OW81371   9.159  11.578   2.071
59825SOL    HW181372   9.185  11.653   2.124
59825SOL    HW281373   9.081  11.543   2.115
59826SOL     OW81374   7.998   2.273   4.538
59826SOL    HW181375   7.985   2.199   4.597
59826SOL    HW281376   8.085   2.259   4.500
59827SOL     OW81377  12.030  14.593   3.544
59827SOL    HW181378  12.108  14.540   3.559
59827SOL    HW281379  12.057  14.682   3.568
59828SOL     OW81380   1.634  10.137   2.739
59828SOL    HW181381   1.663  10.174   2.823
59828SOL    HW281382   1.548  10.176   2.725
59829SOL     OW81383   0.927   3.478  11.011
59829SOL    HW181384   0.884   3.433  10.938
59829SOL    HW281385   0.912   3.421  11.086
59830SOL     OW81386   1.327  13.949  12.255
59830SOL    HW181387   1.290  14.036  12.240
59830SOL    HW281388   1.282  13.916  12.332
59831SOL     OW81389   2.261   3.890   4.025
59831SOL    HW181390   2.255   3.978   4.062
59831SOL    HW281391   2.210   3.835   4.085
59832SOL     OW81392  10.184   7.126  10.541
59832SOL    HW181393  10.106   7.072  10.535
59832SOL    HW281394  10.191   7.147  10.635
59833SOL     OW81395  14.095  10.919   7.560
59833SOL    HW181396  14.188  10.938   7.550
59833SOL    HW281397  14.072  10.871   7.481
59834SOL     OW81398   0.995   9.041   6.794
59834SOL    HW181399   0.985   8.966   6.736
59834SOL    HW281400   1.062   9.015   6.857
59835SOL     OW81401   2.566   5.205   7.782
59835SOL    HW181402   2.586   5.298   7.775
59835SOL    HW281403   2.619   5.164   7.713
59836SOL     OW81404   9.844  11.699   4.920
59836SOL    HW181405   9.929  11.711   4.877
59836SOL    HW281406   9.845  11.763   4.992
59837SOL     OW81407   5.263   5.601  12.427
59837SOL    HW181408   5.296   5.524  12.380
59837SOL    HW281409   5.168   5.599  12.411
59838SOL     OW81410   6.958   2.891   9.676
59838SOL    HW181411   6.928   2.922   9.762
59838SOL    HW281412   6.969   2.970   9.624
59839SOL     OW81413   1.830   4.707   7.025
59839SOL    HW181414   1.878   4.722   7.107
59839SOL    HW281415   1.791   4.620   7.035
59840SOL     OW81416   5.569  13.347   3.802
59840SOL    HW181417   5.654  13.368   3.842
59840SOL    HW281418   5.515  13.424   3.820
59841SOL     OW81419  10.791  11.318  12.853
59841SOL    HW181420  10.846  11.257  12.803
59841SOL    HW281421  10.736  11.263  12.907
59842SOL     OW81422   9.518   9.497   7.602
59842SOL    HW181423   9.555   9.583   7.584
59842SOL    HW281424   9.537   9.482   7.695
59843SOL     OW81425  14.018   3.663   3.364
59843SOL    HW181426  14.110   3.678   3.342
59843SOL    HW281427  13.979   3.750   3.365
59844SOL     OW81428  12.822   7.199  14.007
59844SOL    HW181429  12.852   7.142  14.079
59844SOL    HW281430  12.902   7.239  13.973
59845SOL     OW81431  10.241  14.080  13.629
59845SOL    HW181432  10.148  14.057  13.634
59845SOL    HW281433  10.244  14.172  13.654
59846SOL     OW81434  10.488  13.298   2.823
59846SOL    HW181435  10.515  13.211   2.792
59846SOL    HW281436  10.555  13.322   2.887
59847SOL     OW81437   4.746   8.143  14.710
59847SOL    HW181438   4.710   8.123  14.796
59847SOL    HW281439   4.722   8.235  14.695
59848SOL     OW81440  11.298   9.304  13.011
59848SOL    HW181441  11.242   9.363  12.961
59848SOL    HW281442  11.244   9.279  13.086
59849SOL     OW81443   5.016   9.396   8.261
59849SOL    HW181444   4.961   9.472   8.242
59849SOL    HW281445   5.024   9.351   8.177
59850SOL     OW81446  12.129  10.587   2.358
59850SOL    HW181447  12.095  10.535   2.285
59850SOL    HW281448  12.074  10.562   2.433
59851SOL     OW81449   8.994   3.381  10.009
59851SOL    HW181450   8.928   3.450  10.017
59851SOL    HW281451   8.944   3.299  10.011
59852SOL     OW81452   7.376   8.726  13.759
59852SOL    HW181453   7.433   8.782  13.812
59852SOL    HW281454   7.435   8.688  13.694
59853SOL     OW81455  12.474   8.430   0.523
59853SOL    HW181456  12.561   8.391   0.534
59853SOL    HW281457  12.485   8.494   0.452
59854SOL     OW81458   2.645   4.392   1.818
59854SOL    HW181459   2.669   4.466   1.762
59854SOL    HW281460   2.550   4.393   1.819
59855SOL     OW81461   8.435   1.596   3.290
59855SOL    HW181462   8.373   1.592   3.363
59855SOL    HW281463   8.428   1.509   3.249
59856SOL     OW81464   6.844   7.029   3.979
59856SOL    HW181465   6.828   6.944   3.939
59856SOL    HW281466   6.920   7.014   4.036
59857SOL     OW81467   5.313  11.495   9.319
59857SOL    HW181468   5.285  11.476   9.409
59857SOL    HW281469   5.277  11.423   9.267
59858SOL     OW81470   1.149  12.862   4.863
59858SOL    HW181471   1.174  12.875   4.772
59858SOL    HW281472   1.188  12.778   4.886
59859SOL     OW81473  14.856   3.635   0.453
59859SOL    HW181474   0.011   3.659   0.368
59859SOL    HW281475   0.030   3.680   0.517
59860SOL     OW81476  14.100  12.949   0.871
59860SOL    HW181477  14.096  13.031   0.921
59860SOL    HW281478  14.161  12.894   0.921
59861SOL     OW81479   9.641   9.691  13.122
59861SOL    HW181480   9.732   9.664  13.134
59861SOL    HW281481   9.645   9.765  13.062
59862SOL     OW81482  11.707  10.976   0.817
59862SOL    HW181483  11.663  10.912   0.873
59862SOL    HW281484  11.777  11.011   0.872
59863SOL     OW81485   6.635   1.175  11.939
59863SOL    HW181486   6.560   1.215  11.896
59863SOL    HW281487   6.612   1.172  12.032
59864SOL     OW81488   4.817   5.077  11.853
59864SOL    HW181489   4.797   5.037  11.769
59864SOL    HW281490   4.897   5.127  11.838
59865SOL     OW81491  10.019   5.179   3.179
59865SOL    HW181492  10.016   5.272   3.201
59865SOL    HW281493   9.972   5.136   3.251
59866SOL     OW81494  10.083   1.189  13.814
59866SOL    HW181495  10.133   1.125  13.763
59866SOL    HW281496  10.150   1.240  13.860
59867SOL     OW81497   5.401   7.256   4.429
59867SOL    HW181498   5.346   7.330   4.403
59867SOL    HW281499   5.423   7.212   4.347
59868SOL     OW81500   6.996   6.545   4.163
59868SOL    HW181501   6.980   6.569   4.254
59868SOL    HW281502   6.910   6.549   4.121
59869SOL     OW81503  13.715  12.355   1.825
59869SOL    HW181504  13.626  12.358   1.791
59869SOL    HW281505  13.740  12.447   1.837
59870SOL     OW81506   9.748   1.109   9.673
59870SOL    HW181507   9.794   1.043   9.622
59870SOL    HW281508   9.789   1.105   9.760
59871SOL     OW81509   1.157   1.541   3.534
59871SOL    HW181510   1.218   1.473   3.563
59871SOL    HW281511   1.078   1.494   3.509
59872SOL     OW81512  11.766  12.369   7.871
59872SOL    HW181513  11.731  12.436   7.813
59872SOL    HW281514  11.698  12.301   7.872
59873SOL     OW81515   7.085  11.594   6.208
59873SOL    HW181516   7.057  11.532   6.276
59873SOL    HW281517   7.120  11.538   6.138
59874SOL     OW81518  13.475   6.301   0.433
59874SOL    HW181519  13.476   6.396   0.418
59874SOL    HW281520  13.563   6.282   0.467
59875SOL     OW81521  13.343   8.928   7.484
59875SOL    HW181522  13.384   8.854   7.441
59875SOL    HW281523  13.318   8.987   7.413
59876SOL     OW81524  12.840   9.417   8.762
59876SOL    HW181525  12.767   9.361   8.787
59876SOL    HW281526  12.815   9.452   8.677
59877SOL     OW81527  11.750   0.589  14.057
59877SOL    HW181528  11.819   0.649  14.086
59877SOL    HW281529  11.745   0.603  13.962
59878SOL     OW81530  10.810   4.663   4.009
59878SOL    HW181531  10.842   4.702   4.090
59878SOL    HW281532  10.743   4.601   4.037
59879SOL     OW81533   7.572  10.764   6.029
59879SOL    HW181534   7.526  10.689   5.989
59879SOL    HW281535   7.652  10.773   5.977
59880SOL     OW81536   3.379  13.622   2.651
59880SOL    HW181537   3.418  13.648   2.567
59880SOL    HW281538   3.285  13.636   2.639
59881SOL     OW81539   3.163  10.672   0.715
59881SOL    HW181540   3.177  10.650   0.807
59881SOL    HW281541   3.082  10.723   0.716
59882SOL     OW81542  11.249  10.172   6.593
59882SOL    HW181543  11.190  10.104   6.559
59882SOL    HW281544  11.291  10.208   6.515
59883SOL     OW81545   5.699   8.924  12.869
59883SOL    HW181546   5.663   9.011  12.850
59883SOL    HW281547   5.668   8.869  12.798
59884SOL     OW81548   9.286   0.846   9.768
59884SOL    HW181549   9.371   0.889   9.757
59884SOL    HW281550   9.307   0.763   9.812
59885SOL     OW81551   7.337   5.310   3.011
59885SOL    HW181552   7.385   5.273   3.085
59885SOL    HW281553   7.275   5.241   2.986
59886SOL     OW81554   5.649   1.151   4.362
59886SOL    HW181555   5.615   1.146   4.451
59886SOL    HW281556   5.744   1.140   4.372
59887SOL     OW81557   4.540   8.370   2.299
59887SOL    HW181558   4.539   8.292   2.244
59887SOL    HW281559   4.589   8.344   2.377
59888SOL     OW81560   3.667   7.366  10.851
59888SOL    HW181561   3.729   7.295  10.836
59888SOL    HW281562   3.718   7.446  10.838
59889SOL     OW81563   7.618   8.595   5.803
59889SOL    HW181564   7.539   8.555   5.765
59889SOL    HW281565   7.598   8.605   5.896
59890SOL     OW81566   0.250   5.331   0.490
59890SOL    HW181567   0.192   5.256   0.499
59890SOL    HW281568   0.234   5.363   0.401
59891SOL     OW81569  11.582   5.875   1.882
59891SOL    HW181570  11.676   5.857   1.874
59891SOL    HW281571  11.543   5.825   1.810
59892SOL     OW81572   7.038  11.110  11.277
59892SOL    HW181573   7.025  11.060  11.358
59892SOL    HW281574   6.989  11.191  11.292
59893SOL     OW81575  13.049   2.861   6.555
59893SOL    HW181576  13.046   2.879   6.461
59893SOL    HW281577  13.132   2.816   6.569
59894SOL     OW81578   3.459   7.979   6.763
59894SOL    HW181579   3.522   8.007   6.830
59894SOL    HW281580   3.392   8.047   6.765
59895SOL     OW81581   7.538   1.057   9.022
59895SOL    HW181582   7.588   1.000   9.081
59895SOL    HW281583   7.447   1.036   9.040
59896SOL     OW81584   3.624   1.172  13.267
59896SOL    HW181585   3.533   1.146  13.281
59896SOL    HW281586   3.651   1.212  13.350
59897SOL     OW81587  11.585   0.813   6.681
59897SOL    HW181588  11.500   0.831   6.722
59897SOL    HW281589  11.580   0.856   6.596
59898SOL     OW81590   2.649   5.145   0.860
59898SOL    HW181591   2.679   5.224   0.813
59898SOL    HW281592   2.654   5.075   0.795
59899SOL     OW81593   1.197   7.120  10.945
59899SOL    HW181594   1.238   7.133  11.030
59899SOL    HW281595   1.224   7.195  10.893
59900SOL     OW81596  11.767   6.102   7.993
59900SOL    HW181597  11.808   6.083   7.908
59900SOL    HW281598  11.841   6.109   8.054
59901SOL     OW81599   2.187   6.502   3.738
59901SOL    HW181600   2.121   6.558   3.695
59901SOL    HW281601   2.152   6.413   3.729
59902SOL     OW81602   5.567  12.556   6.265
59902SOL    HW181603   5.481  12.523   6.291
59902SOL    HW281604   5.549  12.642   6.227
59903SOL     OW81605  12.657   9.077  13.623
59903SOL    HW181606  12.748   9.062  13.597
59903SOL    HW281607  12.606   9.059  13.543
59904SOL     OW81608   7.094  13.701  12.278
59904SOL    HW181609   7.151  13.778  12.279
59904SOL    HW281610   7.008  13.734  12.252
59905SOL     OW81611  13.331  10.087   4.213
59905SOL    HW181612  13.393  10.072   4.142
59905SOL    HW281613  13.381  10.134   4.280
59906SOL     OW81614   4.977  14.620   1.541
59906SOL    HW181615   5.060  14.574   1.532
59906SOL    HW281616   4.923  14.585   1.470
59907SOL     OW81617  10.793  10.229  14.076
59907SOL    HW181618  10.806  10.239  14.170
59907SOL    HW281619  10.882  10.217  14.041
59908SOL     OW81620   5.619   9.726   3.066
59908SOL    HW181621   5.639   9.816   3.042
59908SOL    HW281622   5.665   9.712   3.149
59909SOL     OW81623   1.372   1.097   0.782
59909SOL    HW181624   1.336   1.008   0.782
59909SOL    HW281625   1.332   1.138   0.858
59910SOL     OW81626  12.265   1.490   1.495
59910SOL    HW181627  12.316   1.521   1.569
59910SOL    HW281628  12.177   1.478   1.529
59911SOL     OW81629   5.233   8.046  10.239
59911SOL    HW181630   5.192   8.080  10.160
59911SOL    HW281631   5.327   8.052  10.223
59912SOL     OW81632   6.741   2.709   5.809
59912SOL    HW181633   6.714   2.627   5.852
59912SOL    HW281634   6.740   2.774   5.878
59913SOL     OW81635   6.479   9.670   2.797
59913SOL    HW181636   6.511   9.730   2.864
59913SOL    HW281637   6.455   9.591   2.845
59914SOL     OW81638   1.272   8.357   5.009
59914SOL    HW181639   1.212   8.420   4.969
59914SOL    HW281640   1.215   8.287   5.041
59915SOL     OW81641  13.394   2.824   8.544
59915SOL    HW181642  13.385   2.872   8.626
59915SOL    HW281643  13.386   2.732   8.569
59916SOL     OW81644   4.355   6.159   2.575
59916SOL    HW181645   4.319   6.245   2.600
59916SOL    HW281646   4.449   6.174   2.568
59917SOL     OW81647  10.947   6.543   2.173
59917SOL    HW181648  11.019   6.554   2.111
59917SOL    HW281649  10.868   6.558   2.120
59918SOL     OW81650  14.282   0.313   2.922
59918SOL    HW181651  14.294   0.385   2.984
59918SOL    HW281652  14.327   0.239   2.963
59919SOL     OW81653   8.582  11.130  11.830
59919SOL    HW181654   8.513  11.183  11.789
59919SOL    HW281655   8.538  11.051  11.858
59920SOL     OW81656  13.446   2.216   1.065
59920SOL    HW181657  13.353   2.202   1.083
59920SOL    HW281658  13.474   2.137   1.019
59921SOL     OW81659   2.486  13.881  13.695
59921SOL    HW181660   2.566  13.922  13.662
59921SOL    HW281661   2.490  13.894  13.790
59922SOL     OW81662   2.918   1.724   4.431
59922SOL    HW181663   2.827   1.753   4.438
59922SOL    HW281664   2.953   1.734   4.519
59923SOL     OW81665  12.924   9.848  10.565
59923SOL    HW181666  12.866   9.788  10.517
59923SOL    HW281667  12.916   9.821  10.656
59924SOL     OW81668   1.972   8.143  11.048
59924SOL    HW181669   1.878   8.124  11.044
59924SOL    HW281670   2.014   8.058  11.053
59925SOL     OW81671   4.343   5.439  14.803
59925SOL    HW181672   4.352   5.533  14.788
59925SOL    HW281673   4.387   5.399  14.727
59926SOL     OW81674   2.321  14.805  12.488
59926SOL    HW181675   2.284   0.001  12.529
59926SOL    HW281676   2.411  14.802  12.520
59927SOL     OW81677   7.098   3.870   4.465
59927SOL    HW181678   7.191   3.892   4.460
59927SOL    HW281679   7.097   3.780   4.498
59928SOL     OW81680  12.839  13.920   2.316
59928SOL    HW181681  12.823  13.871   2.396
59928SOL    HW281682  12.911  13.979   2.338
59929SOL     OW81683   2.828   0.257   7.271
59929SOL    HW181684   2.883   0.283   7.344
59929SOL    HW281685   2.816   0.338   7.220
59930SOL     OW81686   1.522   3.014   4.962
59930SOL    HW181687   1.438   3.059   4.970
59930SOL    HW281688   1.508   2.949   4.893
59931SOL     OW81689   6.144   2.655   4.727
59931SOL    HW181690   6.155   2.738   4.681
59931SOL    HW281691   6.197   2.593   4.677
59932SOL     OW81692   4.811   2.924   0.832
59932SOL    HW181693   4.869   2.848   0.827
59932SOL    HW281694   4.749   2.903   0.902
59933SOL     OW81695  11.828   1.850  10.142
59933SOL    HW181696  11.805   1.875  10.231
59933SOL    HW281697  11.835   1.934  10.095
59934SOL     OW81698   0.808   4.291   0.084
59934SOL    HW181699   0.809   4.332  14.879
59934SOL    HW281700   0.716   4.286   0.107
59935SOL     OW81701  13.053   9.033  12.488
59935SOL    HW181702  13.099   9.094  12.547
59935SOL    HW281703  12.962   9.039  12.516
59936SOL     OW81704  10.043   3.917   4.873
59936SOL    HW181705  10.109   3.962   4.926
59936SOL    HW281706   9.967   3.975   4.874
59937SOL     OW81707   3.962  11.916   0.429
59937SOL    HW181708   3.930  11.920   0.339
59937SOL    HW281709   3.910  11.980   0.476
59938SOL     OW81710  14.332  11.964   4.302
59938SOL    HW181711  14.257  12.017   4.274
59938SOL    HW281712  14.406  11.998   4.252
59939SOL     OW81713  10.275   0.332   4.367
59939SOL    HW181714  10.294   0.424   4.383
59939SOL    HW281715  10.201   0.332   4.307
59940SOL     OW81716   4.915   0.014   2.517
59940SOL    HW181717   4.860  14.830   2.558
59940SOL    HW281718   4.854   0.072   2.471
59941SOL     OW81719  12.810   6.307   6.292
59941SOL    HW181720  12.763   6.298   6.209
59941SOL    HW281721  12.835   6.217   6.315
59942SOL     OW81722  10.687  10.545  11.202
59942SOL    HW181723  10.629  10.504  11.266
59942SOL    HW281724  10.726  10.471  11.155
59943SOL     OW81725  14.637   8.363   6.843
59943SOL    HW181726  14.578   8.436   6.860
59943SOL    HW281727  14.715   8.382   6.895
59944SOL     OW81728  13.936  13.943   8.686
59944SOL    HW181729  13.884  13.991   8.751
59944SOL    HW281730  13.889  13.955   8.604
59945SOL     OW81731   4.005  12.662   7.357
59945SOL    HW181732   4.099  12.675   7.344
59945SOL    HW281733   3.989  12.572   7.327
59946SOL     OW81734  11.457  14.433   7.566
59946SOL    HW181735  11.368  14.401   7.581
59946SOL    HW281736  11.445  14.516   7.521
59947SOL     OW81737   4.467   8.647   8.896
59947SOL    HW181738   4.408   8.616   8.964
59947SOL    HW281739   4.450   8.589   8.822
59948SOL     OW81740  14.767   7.577   2.870
59948SOL    HW181741  14.862   7.568   2.867
59948SOL    HW281742  14.738   7.552   2.782
59949SOL     OW81743   9.321   2.093  13.040
59949SOL    HW181744   9.236   2.101  12.997
59949SOL    HW281745   9.306   2.033  13.112
59950SOL     OW81746   0.368  11.758  13.182
59950SOL    HW181747   0.315  11.812  13.240
59950SOL    HW281748   0.452  11.749  13.229
59951SOL     OW81749   7.440   1.611  10.381
59951SOL    HW181750   7.361   1.588  10.333
59951SOL    HW281751   7.408   1.649  10.464
59952SOL     OW81752   7.983   8.192   2.462
59952SOL    HW181753   7.936   8.175   2.543
59952SOL    HW281754   7.932   8.261   2.419
59953SOL     OW81755   8.428   7.364  10.912
59953SOL    HW181756   8.443   7.454  10.883
59953SOL    HW281757   8.447   7.365  11.006
59954SOL     OW81758  14.693  11.534   4.550
59954SOL    HW181759  14.789  11.536   4.558
59954SOL    HW281760  14.665  11.469   4.614
59955SOL     OW81761   1.230   1.593  12.595
59955SOL    HW181762   1.233   1.498  12.578
59955SOL    HW281763   1.298   1.608  12.661
59956SOL     OW81764   4.679   1.217  12.658
59956SOL    HW181765   4.625   1.236  12.581
59956SOL    HW281766   4.684   1.299  12.706
59957SOL     OW81767  14.325   4.639   7.858
59957SOL    HW181768  14.247   4.691   7.840
59957SOL    HW281769  14.399   4.699   7.844
59958SOL     OW81770  10.700   9.724   7.840
59958SOL    HW181771  10.758   9.763   7.775
59958SOL    HW281772  10.661   9.649   7.796
59959SOL     OW81773   2.359   4.014   2.473
59959SOL    HW181774   2.312   3.944   2.427
59959SOL    HW281775   2.296   4.045   2.538
59960SOL     OW81776   1.647  13.756  10.356
59960SOL    HW181777   1.614  13.817  10.421
59960SOL    HW281778   1.701  13.809  10.298
59961SOL     OW81779   2.628   5.457   1.959
59961SOL    HW181780   2.620   5.449   1.864
59961SOL    HW281781   2.708   5.409   1.981
59962SOL     OW81782  14.819  10.830   9.370
59962SOL    HW181783  14.735  10.822   9.415
59962SOL    HW281784   0.002  10.827   9.440
59963SOL     OW81785  13.396  14.796   5.820
59963SOL    HW181786  13.445  14.823   5.742
59963SOL    HW281787  13.416  14.703   5.830
59964SOL     OW81788   2.807  14.083   3.214
59964SOL    HW181789   2.871  14.084   3.285
59964SOL    HW281790   2.812  14.171   3.176
59965SOL     OW81791   0.875   6.212  12.113
59965SOL    HW181792   0.837   6.288  12.156
59965SOL    HW281793   0.943   6.182  12.174
59966SOL     OW81794  12.780   3.842   4.398
59966SOL    HW181795  12.841   3.805   4.462
59966SOL    HW281796  12.743   3.918   4.442
59967SOL     OW81797   0.321  12.072  12.261
59967SOL    HW181798   0.416  12.065  12.250
59967SOL    HW281799   0.294  12.136  12.195
59968SOL     OW81800   3.699   4.253   3.381
59968SOL    HW181801   3.641   4.302   3.322
59968SOL    HW281802   3.736   4.183   3.328
59969SOL     OW81803   1.279   2.992  13.449
59969SOL    HW181804   1.311   3.081  13.435
59969SOL    HW281805   1.258   2.960  13.361
59970SOL     OW81806   1.446   1.011  10.851
59970SOL    HW181807   1.413   1.093  10.888
59970SOL    HW281808   1.438   1.022  10.757
59971SOL     OW81809   2.681  11.110   4.258
59971SOL    HW181810   2.624  11.184   4.278
59971SOL    HW281811   2.767  11.137   4.290
59972SOL     OW81812  12.930  11.737   2.342
59972SOL    HW181813  12.842  11.758   2.310
59972SOL    HW281814  12.944  11.796   2.416
59973SOL     OW81815   3.985   1.183   8.286
59973SOL    HW181816   4.005   1.272   8.316
59973SOL    HW281817   3.981   1.131   8.367
59974SOL     OW81818   8.860   0.791   1.780
59974SOL    HW181819   8.846   0.733   1.706
59974SOL    HW281820   8.900   0.869   1.743
59975SOL     OW81821   9.938   3.411   8.112
59975SOL    HW181822   9.849   3.418   8.078
59975SOL    HW281823   9.988   3.372   8.040
59976SOL     OW81824   1.909   0.137  12.654
59976SOL    HW181825   1.887   0.076  12.584
59976SOL    HW281826   1.825   0.154  12.698
59977SOL     OW81827   8.081  11.849   4.839
59977SOL    HW181828   8.107  11.938   4.815
59977SOL    HW281829   8.163  11.804   4.857
59978SOL     OW81830  10.490   7.876   8.128
59978SOL    HW181831  10.502   7.811   8.198
59978SOL    HW281832  10.405   7.916   8.147
59979SOL     OW81833   0.962   5.902   1.157
59979SOL    HW181834   0.986   5.954   1.233
59979SOL    HW281835   0.866   5.901   1.158
59980SOL     OW81836   0.443   0.774  13.240
59980SOL    HW181837   0.516   0.711  13.248
59980SOL    HW281838   0.485   0.857  13.220
59981SOL     OW81839   3.808  10.852   5.814
59981SOL    HW181840   3.740  10.807   5.863
59981SOL    HW281841   3.776  10.942   5.805
59982SOL     OW81842   9.237  14.242  12.809
59982SOL    HW181843   9.157  14.194  12.826
59982SOL    HW281844   9.249  14.237  12.714
59983SOL     OW81845  10.459   1.931   0.991
59983SOL    HW181846  10.418   1.849   0.963
59983SOL    HW281847  10.420   1.997   0.934
59984SOL     OW81848  11.641   7.176   0.250
59984SOL    HW181849  11.722   7.150   0.293
59984SOL    HW281850  11.601   7.240   0.309
59985SOL     OW81851   5.901  10.661  12.363
59985SOL    HW181852   5.841  10.621  12.426
59985SOL    HW281853   5.939  10.588  12.316
59986SOL     OW81854   9.092   0.793   7.490
59986SOL    HW181855   9.128   0.775   7.403
59986SOL    HW281856   9.113   0.885   7.507
59987SOL     OW81857  10.360   6.821   5.692
59987SOL    HW181858  10.315   6.747   5.733
59987SOL    HW281859  10.335   6.816   5.600
59988SOL     OW81860   2.656   3.998   5.777
59988SOL    HW181861   2.728   4.040   5.730
59988SOL    HW281862   2.606   3.953   5.709
59989SOL     OW81863   5.565   8.699   5.183
59989SOL    HW181864   5.576   8.604   5.178
59989SOL    HW281865   5.589   8.721   5.273
59990SOL     OW81866  10.514   2.814   4.199
59990SOL    HW181867  10.450   2.744   4.209
59990SOL    HW281868  10.463   2.890   4.171
59991SOL     OW81869   9.231   1.232   1.912
59991SOL    HW181870   9.243   1.305   1.974
59991SOL    HW281871   9.308   1.176   1.926
59992SOL     OW81872   7.664   6.599  14.613
59992SOL    HW181873   7.668   6.628  14.704
59992SOL    HW281874   7.570   6.588  14.595
59993SOL     OW81875   3.880   0.199  10.094
59993SOL    HW181876   3.933   0.236  10.165
59993SOL    HW281877   3.800   0.252  10.094
59994SOL     OW81878   1.158   8.342  13.670
59994SOL    HW181879   1.151   8.399  13.746
59994SOL    HW281880   1.094   8.378  13.608
59995SOL     OW81881   6.614  11.718   5.209
59995SOL    HW181882   6.524  11.703   5.240
59995SOL    HW281883   6.620  11.668   5.127
59996SOL     OW81884   7.586   3.387  11.123
59996SOL    HW181885   7.516   3.351  11.177
59996SOL    HW281886   7.624   3.311  11.079
59997SOL     OW81887   2.099   5.380  10.498
59997SOL    HW181888   2.008   5.397  10.521
59997SOL    HW281889   2.149   5.442  10.551
59998SOL     OW81890   0.855  13.532  14.691
59998SOL    HW181891   0.781  13.502  14.745
59998SOL    HW281892   0.827  13.514  14.601
59999SOL     OW81893  13.956  13.812   9.771
59999SOL    HW181894  13.880  13.806   9.713
59999SOL    HW281895  14.001  13.728   9.760
60000SOL     OW81896   3.265  14.304   3.478
60000SOL    HW181897   3.334  14.262   3.529
60000SOL    HW281898   3.312  14.351   3.409
60001SOL     OW81899   2.451   0.752   4.526
60001SOL    HW181900   2.421   0.663   4.506
60001SOL    HW281901   2.436   0.800   4.444
60002SOL     OW81902  12.737  14.423   7.897
60002SOL    HW181903  12.809  14.478   7.924
60002SOL    HW281904  12.778  14.341   7.870
60003SOL     OW81905   3.884   1.655   9.683
60003SOL    HW181906   3.902   1.740   9.644
60003SOL    HW281907   3.908   1.665   9.775
60004SOL     OW81908  12.618   0.771  12.818
60004SOL    HW181909  12.609   0.683  12.780
60004SOL    HW281910  12.529   0.799  12.836
60005SOL     OW81911   8.857   4.407   2.515
60005SOL    HW181912   8.878   4.356   2.437
60005SOL    HW281913   8.815   4.344   2.574
60006SOL     OW81914   5.857  10.217   8.312
60006SOL    HW181915   5.820  10.177   8.233
60006SOL    HW281916   5.821  10.166   8.384
60007SOL     OW81917   9.133   9.871   2.602
60007SOL    HW181918   9.098   9.946   2.553
60007SOL    HW281919   9.139   9.801   2.536
60008SOL     OW81920   9.342  12.699  12.453
60008SOL    HW181921   9.333  12.754  12.376
60008SOL    HW281922   9.436  12.697  12.470
60009SOL     OW81923   2.796   3.763   5.890
60009SOL    HW181924   2.719   3.711   5.867
60009SOL    HW281925   2.765   3.854   5.887
60010SOL     OW81926   7.615   8.587  10.739
60010SOL    HW181927   7.521   8.585  10.757
60010SOL    HW281928   7.640   8.495  10.735
60011SOL     OW81929   4.352  13.468   8.930
60011SOL    HW181930   4.411  13.519   8.874
60011SOL    HW281931   4.282  13.530   8.954
60012SOL     OW81932   3.220  10.677  12.076
60012SOL    HW181933   3.213  10.772  12.084
60012SOL    HW281934   3.155  10.653  12.009
60013SOL     OW81935   2.010   9.646  10.690
60013SOL    HW181936   2.037   9.686  10.774
60013SOL    HW281937   2.080   9.584  10.670
60014SOL     OW81938   0.580  12.906   1.123
60014SOL    HW181939   0.607  12.836   1.183
60014SOL    HW281940   0.528  12.965   1.178
60015SOL     OW81941  10.347  14.391   5.467
60015SOL    HW181942  10.329  14.456   5.399
60015SOL    HW281943  10.393  14.320   5.421
60016SOL     OW81944  14.000   2.305   0.781
60016SOL    HW181945  13.943   2.381   0.795
60016SOL    HW281946  14.004   2.262   0.867
60017SOL     OW81947   6.466   2.889   5.974
60017SOL    HW181948   6.469   2.960   5.909
60017SOL    HW281949   6.550   2.895   6.020
60018SOL     OW81950  12.039   9.253   6.548
60018SOL    HW181951  12.082   9.242   6.633
60018SOL    HW281952  11.991   9.171   6.534
60019SOL     OW81953   5.693   0.373   6.982
60019SOL    HW181954   5.672   0.414   6.898
60019SOL    HW281955   5.768   0.423   7.015
60020SOL     OW81956   5.490   6.599   1.225
60020SOL    HW181957   5.473   6.544   1.148
60020SOL    HW281958   5.487   6.688   1.191
60021SOL     OW81959   0.588   3.315   2.976
60021SOL    HW181960   0.588   3.219   2.975
60021SOL    HW281961   0.527   3.339   3.045
60022SOL     OW81962   1.813   5.644  11.105
60022SOL    HW181963   1.818   5.738  11.126
60022SOL    HW281964   1.849   5.638  11.016
60023SOL     OW81965   7.916   4.790   8.508
60023SOL    HW181966   7.821   4.799   8.508
60023SOL    HW281967   7.947   4.856   8.446
60024SOL     OW81968   1.973  14.862   1.155
60024SOL    HW181969   2.032  14.846   1.082
60024SOL    HW281970   2.031  14.876   1.230
60025SOL     OW81971   7.381  14.295   1.742
60025SOL    HW181972   7.401  14.373   1.690
60025SOL    HW281973   7.454  14.287   1.803
60026SOL     OW81974   8.054   1.859   8.208
60026SOL    HW181975   8.090   1.773   8.228
60026SOL    HW281976   8.083   1.915   8.279
60027SOL     OW81977   8.116   0.637   0.233
60027SOL    HW181978   8.038   0.650   0.287
60027SOL    HW281979   8.188   0.668   0.287
60028SOL     OW81980   1.783  12.149   9.404
60028SOL    HW181981   1.704  12.138   9.456
60028SOL    HW281982   1.834  12.070   9.421
60029SOL     OW81983   2.131   3.252  13.283
60029SOL    HW181984   2.066   3.205  13.231
60029SOL    HW281985   2.199   3.276  13.220
60030SOL     OW81986   9.925   0.876   0.722
60030SOL    HW181987   9.881   0.888   0.806
60030SOL    HW281988   9.878   0.804   0.680
60031SOL     OW81989   5.932   8.652   8.439
60031SOL    HW181990   5.978   8.651   8.523
60031SOL    HW281991   5.866   8.721   8.448
60032SOL     OW81992   6.988   3.171   0.923
60032SOL    HW181993   7.071   3.158   0.969
60032SOL    HW281994   7.013   3.181   0.831
60033SOL     OW81995   2.356  12.061   7.191
60033SOL    HW181996   2.264  12.083   7.177
60033SOL    HW281997   2.359  12.023   7.279
60034SOL     OW81998  13.360   2.711   2.302
60034SOL    HW181999  13.435   2.657   2.276
60034SOL    HW282000  13.395   2.799   2.310
60035SOL     OW82001   0.506   3.636   2.265
60035SOL    HW182002   0.467   3.627   2.352
60035SOL    HW282003   0.600   3.646   2.281
60036SOL     OW82004   9.830  11.402   0.255
60036SOL    HW182005   9.867  11.463   0.192
60036SOL    HW282006   9.805  11.326   0.202
60037SOL     OW82007  11.478  13.975  10.065
60037SOL    HW182008  11.456  13.937  10.149
60037SOL    HW282009  11.572  13.993  10.071
60038SOL     OW82010  10.681  11.266   5.554
60038SOL    HW182011  10.684  11.362   5.550
60038SOL    HW282012  10.761  11.242   5.601
60039SOL     OW82013   4.057   9.106   5.154
60039SOL    HW182014   4.145   9.105   5.192
60039SOL    HW282015   4.065   9.057   5.072
60040SOL     OW82016  10.391  14.705   5.112
60040SOL    HW182017  10.383  14.619   5.069
60040SOL    HW282018  10.392  14.768   5.040
60041SOL     OW82019   6.894   4.781   8.676
60041SOL    HW182020   6.824   4.811   8.734
60041SOL    HW282021   6.849   4.760   8.594
60042SOL     OW82022   7.948   2.621  11.956
60042SOL    HW182023   7.991   2.700  11.925
60042SOL    HW282024   7.864   2.618  11.910
60043SOL     OW82025  10.244   2.762  14.475
60043SOL    HW182026  10.270   2.853  14.490
60043SOL    HW282027  10.246   2.751  14.380
60044SOL     OW82028  13.221   9.770  12.072
60044SOL    HW182029  13.296   9.724  12.109
60044SOL    HW282030  13.227   9.754  11.978
60045SOL     OW82031  12.277  11.857  13.337
60045SOL    HW182032  12.339  11.790  13.366
60045SOL    HW282033  12.202  11.807  13.305
60046SOL     OW82034   6.255   9.641  11.462
60046SOL    HW182035   6.346   9.611  11.472
60046SOL    HW282036   6.211   9.570  11.416
60047SOL     OW82037   3.466   9.166   1.730
60047SOL    HW182038   3.475   9.115   1.811
60047SOL    HW282039   3.391   9.224   1.746
60048SOL     OW82040   2.560  14.290   8.222
60048SOL    HW182041   2.525  14.363   8.172
60048SOL    HW282042   2.655  14.299   8.214
60049SOL     OW82043   5.248  14.325   6.608
60049SOL    HW182044   5.287  14.331   6.520
60049SOL    HW282045   5.211  14.411   6.623
60050SOL     OW82046   6.495   8.970   1.481
60050SOL    HW182047   6.533   9.056   1.464
60050SOL    HW282048   6.547   8.933   1.553
60051SOL     OW82049  12.643   7.178   2.561
60051SOL    HW182050  12.562   7.163   2.512
60051SOL    HW282051  12.637   7.120   2.637
60052SOL     OW82052   2.162   3.476   5.640
60052SOL    HW182053   2.070   3.497   5.653
60052SOL    HW282054   2.208   3.524   5.710
60053SOL     OW82055   4.744  10.487   5.044
60053SOL    HW182056   4.821  10.465   5.097
60053SOL    HW282057   4.681  10.418   5.064
60054SOL     OW82058   6.614   5.706   7.569
60054SOL    HW182059   6.584   5.796   7.584
60054SOL    HW282060   6.630   5.672   7.657
60055SOL     OW82061   2.987  12.374   7.887
60055SOL    HW182062   3.013  12.386   7.796
60055SOL    HW282063   3.040  12.438   7.936
60056SOL     OW82064   3.202  14.684  10.678
60056SOL    HW182065   3.236  14.630  10.606
60056SOL    HW282066   3.255  14.659  10.754
60057SOL     OW82067   0.210   3.221   4.145
60057SOL    HW182068   0.157   3.190   4.218
60057SOL    HW282069   0.221   3.315   4.163
60058SOL     OW82070   0.305   2.443   8.326
60058SOL    HW182071   0.236   2.425   8.262
60058SOL    HW282072   0.263   2.433   8.411
60059SOL     OW82073   2.242  11.011   5.694
60059SOL    HW182074   2.332  10.980   5.706
60059SOL    HW282075   2.196  10.935   5.659
60060SOL     OW82076   1.859  13.084  11.365
60060SOL    HW182077   1.843  13.146  11.294
60060SOL    HW282078   1.924  13.023  11.330
60061SOL     OW82079   5.657  11.867   3.516
60061SOL    HW182080   5.677  11.959   3.531
60061SOL    HW282081   5.694  11.822   3.592
60062SOL     OW82082   0.611  12.397  10.992
60062SOL    HW182083   0.646  12.486  10.993
60062SOL    HW282084   0.686  12.342  11.018
60063SOL     OW82085   0.018   9.451   9.764
60063SOL    HW182086  14.865   9.364   9.749
60063SOL    HW282087   0.009   9.466   9.858
60064SOL     OW82088   7.856   2.043   1.412
60064SOL    HW182089   7.781   2.003   1.457
60064SOL    HW282090   7.819   2.119   1.368
60065SOL     OW82091   1.131  12.960  10.115
60065SOL    HW182092   1.143  12.866  10.104
60065SOL    HW282093   1.197  12.986  10.179
60066SOL     OW82094   0.531  13.486  10.759
60066SOL    HW182095   0.571  13.464  10.843
60066SOL    HW282096   0.443  13.514  10.780
60067SOL     OW82097   3.215   3.957  12.302
60067SOL    HW182098   3.232   3.926  12.391
60067SOL    HW282099   3.299   3.989  12.271
60068SOL     OW82100   7.451   4.324  11.763
60068SOL    HW182101   7.491   4.392  11.708
60068SOL    HW282102   7.482   4.242  11.726
60069SOL     OW82103  12.221   9.392   9.760
60069SOL    HW182104  12.314   9.405   9.780
60069SOL    HW282105  12.179   9.386   9.846
60070SOL     OW82106   2.334  11.280  14.468
60070SOL    HW182107   2.374  11.360  14.431
60070SOL    HW282108   2.300  11.308  14.552
60071SOL     OW82109   2.031   9.703  11.611
60071SOL    HW182110   2.061   9.733  11.697
60071SOL    HW282111   2.092   9.633  11.587
60072SOL     OW82112  13.326   8.230  10.940
60072SOL    HW182113  13.328   8.191  11.028
60072SOL    HW282114  13.235   8.219  10.912
60073SOL     OW82115   5.376   6.900  12.460
60073SOL    HW182116   5.407   6.918  12.548
60073SOL    HW282117   5.448   6.855  12.417
60074SOL     OW82118   0.285  11.559  13.012
60074SOL    HW182119   0.291  11.498  13.085
60074SOL    HW282120   0.311  11.644  13.048
60075SOL     OW82121   0.383  12.446  11.852
60075SOL    HW182122   0.430  12.504  11.792
60075SOL    HW282123   0.313  12.501  11.888
60076SOL     OW82124   6.386   6.316  11.576
60076SOL    HW182125   6.405   6.360  11.659
60076SOL    HW282126   6.469   6.320  11.527
60077SOL     OW82127   0.346   7.284   5.346
60077SOL    HW182128   0.364   7.304   5.254
60077SOL    HW282129   0.321   7.192   5.346
60078SOL     OW82130   9.720   3.089  11.707
60078SOL    HW182131   9.684   3.000  11.701
60078SOL    HW282132   9.814   3.077  11.695
60079SOL     OW82133   7.431   6.225   0.603
60079SOL    HW182134   7.483   6.268   0.536
60079SOL    HW282135   7.403   6.142   0.563
60080SOL     OW82136  11.347   8.044   1.012
60080SOL    HW182137  11.329   7.972   0.951
60080SOL    HW282138  11.268   8.097   1.011
60081SOL     OW82139   0.752  14.366  13.904
60081SOL    HW182140   0.841  14.381  13.872
60081SOL    HW282141   0.716  14.454  13.915
60082SOL     OW82142   4.644   2.156   8.124
60082SOL    HW182143   4.722   2.100   8.126
60082SOL    HW282144   4.669   2.235   8.171
60083SOL     OW82145   0.390   7.832   6.713
60083SOL    HW182146   0.428   7.747   6.689
60083SOL    HW282147   0.318   7.811   6.771
60084SOL     OW82148   2.982  11.060   2.543
60084SOL    HW182149   2.977  10.976   2.587
60084SOL    HW282150   3.068  11.060   2.501
60085SOL     OW82151   1.511   0.659   6.948
60085SOL    HW182152   1.480   0.728   7.007
60085SOL    HW282153   1.605   0.653   6.967
60086SOL     OW82154   4.900  12.526   5.808
60086SOL    HW182155   4.822  12.471   5.814
60086SOL    HW282156   4.871  12.603   5.758
60087SOL     OW82157  11.463  13.659  13.020
60087SOL    HW182158  11.506  13.606  12.952
60087SOL    HW282159  11.373  13.669  12.989
60088SOL     OW82160   3.861  13.927   6.235
60088SOL    HW182161   3.916  13.989   6.283
60088SOL    HW282162   3.903  13.842   6.248
60089SOL     OW82163   7.702   9.130  14.815
60089SOL    HW182164   7.761   9.062  14.782
60089SOL    HW282165   7.680   9.101   0.022
60090SOL     OW82166   7.492  14.659   6.947
60090SOL    HW182167   7.437  14.683   7.022
60090SOL    HW282168   7.436  14.674   6.871
60091SOL     OW82169   7.205   3.788   3.879
60091SOL    HW182170   7.282   3.731   3.883
60091SOL    HW282171   7.206   3.824   3.790
60092SOL     OW82172   2.483   4.476   5.416
60092SOL    HW182173   2.401   4.486   5.463
60092SOL    HW282174   2.525   4.400   5.456
60093SOL     OW82175  14.261   5.257   0.174
60093SOL    HW182176  14.252   5.178   0.121
60093SOL    HW282177  14.174   5.295   0.176
60094SOL     OW82178   0.138   9.165   0.316
60094SOL    HW182179   0.179   9.236   0.366
60094SOL    HW282180   0.057   9.146   0.363
60095SOL     OW82181   0.432   7.526   6.046
60095SOL    HW182182   0.386   7.591   6.100
60095SOL    HW282183   0.436   7.566   5.959
60096SOL     OW82184   3.179   4.625   7.877
60096SOL    HW182185   3.099   4.597   7.922
60096SOL    HW282186   3.204   4.548   7.825
60097SOL     OW82187   9.519   4.185   2.384
60097SOL    HW182188   9.575   4.257   2.355
60097SOL    HW282189   9.572   4.106   2.372
60098SOL     OW82190  14.457   7.390   3.572
60098SOL    HW182191  14.465   7.359   3.662
60098SOL    HW282192  14.432   7.482   3.581
60099SOL     OW82193  13.049   0.296   6.541
60099SOL    HW182194  12.984   0.318   6.474
60099SOL    HW282195  13.049   0.200   6.544
60100SOL     OW82196  12.215  11.759   9.316
60100SOL    HW182197  12.174  11.696   9.257
60100SOL    HW282198  12.269  11.813   9.258
60101SOL     OW82199   4.781   2.914   8.527
60101SOL    HW182200   4.721   2.906   8.601
60101SOL    HW282201   4.781   3.007   8.506
60102SOL     OW82202   3.205  10.554  13.347
60102SOL    HW182203   3.188  10.647  13.333
60102SOL    HW282204   3.277  10.533  13.287
60103SOL     OW82205  10.185   9.686  10.380
60103SOL    HW182206  10.092   9.697  10.400
60103SOL    HW282207  10.219   9.634  10.453
60104SOL     OW82208   4.878  13.816   8.666
60104SOL    HW182209   4.880  13.767   8.748
60104SOL    HW282210   4.918  13.900   8.688
60105SOL     OW82211   8.385  14.680   0.868
60105SOL    HW182212   8.362  14.761   0.914
60105SOL    HW282213   8.323  14.675   0.795
60106SOL     OW82214  12.974   9.262   3.002
60106SOL    HW182215  12.897   9.283   3.055
60106SOL    HW282216  12.963   9.170   2.979
60107SOL     OW82217   1.596   7.338   2.779
60107SOL    HW182218   1.649   7.308   2.706
60107SOL    HW282219   1.629   7.290   2.855
60108SOL     OW82220  11.299   9.578   9.359
60108SOL    HW182221  11.251   9.643   9.308
60108SOL    HW282222  11.366   9.545   9.299
60109SOL     OW82223  13.627  12.163  14.455
60109SOL    HW182224  13.608  12.099  14.523
60109SOL    HW282225  13.575  12.240  14.480
60110SOL     OW82226   5.996   0.857   8.754
60110SOL    HW182227   6.078   0.903   8.774
60110SOL    HW282228   5.955   0.910   8.686
60111SOL     OW82229   9.875   4.785   6.873
60111SOL    HW182230   9.932   4.754   6.803
60111SOL    HW282231   9.932   4.839   6.928
60112SOL     OW82232  11.182   7.811  10.572
60112SOL    HW182233  11.162   7.760  10.651
60112SOL    HW282234  11.177   7.902  10.601
60113SOL     OW82235   7.897  14.021  11.663
60113SOL    HW182236   7.812  14.010  11.620
60113SOL    HW282237   7.925  14.109  11.640
60114SOL     OW82238   4.870   6.477   1.622
60114SOL    HW182239   4.797   6.417   1.637
60114SOL    HW282240   4.886   6.471   1.528
60115SOL     OW82241   3.463  13.157  10.761
60115SOL    HW182242   3.433  13.075  10.800
60115SOL    HW282243   3.421  13.158  10.674
60116SOL     OW82244   4.931   7.570  13.144
60116SOL    HW182245   4.946   7.606  13.057
60116SOL    HW282246   4.837   7.549  13.145
60117SOL     OW82247  10.514  11.266   9.925
60117SOL    HW182248  10.567  11.199   9.969
60117SOL    HW282249  10.469  11.218   9.856
60118SOL     OW82250  14.714   8.491   2.003
60118SOL    HW182251  14.799   8.461   2.035
60118SOL    HW282252  14.662   8.504   2.082
60119SOL     OW82253  12.527   3.170   2.114
60119SOL    HW182254  12.462   3.185   2.045
60119SOL    HW282255  12.580   3.249   2.116
60120SOL     OW82256   3.368   1.285  14.156
60120SOL    HW182257   3.296   1.320  14.104
60120SOL    HW282258   3.446   1.303  14.105
60121SOL     OW82259  14.403   3.622   0.620
60121SOL    HW182260  14.445   3.634   0.705
60121SOL    HW282261  14.451   3.679   0.560
60122SOL     OW82262   0.873   5.215  13.223
60122SOL    HW182263   0.951   5.263  13.252
60122SOL    HW282264   0.840   5.174  13.303
60123SOL     OW82265   7.571  11.598   9.431
60123SOL    HW182266   7.547  11.582   9.522
60123SOL    HW282267   7.488  11.594   9.383
60124SOL     OW82268  11.428   5.997   0.925
60124SOL    HW182269  11.421   6.071   0.984
60124SOL    HW282270  11.439   5.921   0.982
60125SOL     OW82271   6.792   0.105  12.051
60125SOL    HW182272   6.735   0.030  12.035
60125SOL    HW282273   6.877   0.077  12.018
60126SOL     OW82274   8.428   0.395   8.234
60126SOL    HW182275   8.440   0.397   8.139
60126SOL    HW282276   8.333   0.390   8.246
60127SOL     OW82277   1.016   2.436  11.705
60127SOL    HW182278   1.111   2.451  11.705
60127SOL    HW282279   0.989   2.455  11.615
60128SOL     OW82280   0.039   2.755   8.119
60128SOL    HW182281   0.071   2.665   8.126
60128SOL    HW282282  14.844   2.758   8.176
60129SOL     OW82283  13.049   7.118   2.045
60129SOL    HW182284  12.966   7.159   2.023
60129SOL    HW282285  13.089   7.097   1.960
60130SOL     OW82286  10.715   4.504   8.734
60130SOL    HW182287  10.704   4.498   8.829
60130SOL    HW282288  10.628   4.529   8.702
60131SOL     OW82289   6.283   7.546   9.206
60131SOL    HW182290   6.266   7.482   9.276
60131SOL    HW282291   6.351   7.505   9.152
60132SOL     OW82292   2.587   5.229   2.610
60132SOL    HW182293   2.566   5.144   2.572
60132SOL    HW282294   2.528   5.238   2.685
60133SOL     OW82295  11.322  13.403   7.019
60133SOL    HW182296  11.374  13.417   7.098
60133SOL    HW282297  11.248  13.462   7.028
60134SOL     OW82298   5.227   1.486   3.892
60134SOL    HW182299   5.306   1.452   3.849
60134SOL    HW282300   5.243   1.580   3.898
60135SOL     OW82301  10.986   5.365   7.505
60135SOL    HW182302  11.009   5.280   7.543
60135SOL    HW282303  10.895   5.355   7.477
60136SOL     OW82304   8.748   3.441  12.114
60136SOL    HW182305   8.829   3.491  12.096
60136SOL    HW282306   8.763   3.403  12.201
60137SOL     OW82307  13.495   5.876  14.201
60137SOL    HW182308  13.583   5.865  14.239
60137SOL    HW282309  13.490   5.808  14.134
60138SOL     OW82310   0.625   5.449   5.124
60138SOL    HW182311   0.571   5.383   5.080
60138SOL    HW282312   0.563   5.510   5.162
60139SOL     OW82313   1.070  11.622   2.954
60139SOL    HW182314   1.038  11.640   3.042
60139SOL    HW282315   1.153  11.670   2.948
60140SOL     OW82316  12.837  14.822   6.712
60140SOL    HW182317  12.908  14.767   6.677
60140SOL    HW282318  12.811  14.779   6.793
60141SOL     OW82319  14.378   5.900  10.027
60141SOL    HW182320  14.354   5.839   9.957
60141SOL    HW282321  14.417   5.975   9.981
60142SOL     OW82322   8.449   0.177   9.968
60142SOL    HW182323   8.541   0.172   9.941
60142SOL    HW282324   8.453   0.209  10.059
60143SOL     OW82325   5.773  10.644   0.704
60143SOL    HW182326   5.821  10.565   0.679
60143SOL    HW282327   5.815  10.672   0.786
60144SOL     OW82328   1.753  13.453   1.648
60144SOL    HW182329   1.845  13.481   1.641
60144SOL    HW282330   1.731  13.421   1.561
60145SOL     OW82331   0.895   0.452   4.881
60145SOL    HW182332   0.825   0.402   4.841
60145SOL    HW282333   0.851   0.504   4.949
60146SOL     OW82334  11.996   2.938   7.476
60146SOL    HW182335  12.010   3.028   7.504
60146SOL    HW282336  12.053   2.928   7.399
60147SOL     OW82337   2.583   8.624   6.118
60147SOL    HW182338   2.559   8.588   6.032
60147SOL    HW282339   2.573   8.719   6.108
60148SOL     OW82340   8.234  12.104   3.631
60148SOL    HW182341   8.282  12.028   3.665
60148SOL    HW282342   8.161  12.066   3.582
60149SOL     OW82343   5.950   1.531   1.123
60149SOL    HW182344   5.934   1.614   1.077
60149SOL    HW282345   6.005   1.481   1.062
60150SOL     OW82346   5.174   3.589  14.530
60150SOL    HW182347   5.222   3.607  14.449
60150SOL    HW282348   5.082   3.584  14.503
60151SOL     OW82349   8.650   0.467   1.802
60151SOL    HW182350   8.722   0.408   1.824
60151SOL    HW282351   8.582   0.411   1.767
60152SOL     OW82352   5.998   8.075   1.593
60152SOL    HW182353   5.909   8.051   1.568
60152SOL    HW282354   6.051   8.052   1.517
60153SOL     OW82355   7.782   1.367   4.738
60153SOL    HW182356   7.733   1.450   4.741
60153SOL    HW282357   7.802   1.348   4.830
60154SOL     OW82358   2.897   8.518   8.397
60154SOL    HW182359   2.942   8.585   8.345
60154SOL    HW282360   2.938   8.524   8.483
60155SOL     OW82361   8.701   7.313   1.133
60155SOL    HW182362   8.687   7.276   1.220
60155SOL    HW282363   8.639   7.267   1.076
60156SOL     OW82364   8.403   4.942   5.373
60156SOL    HW182365   8.443   4.866   5.331
60156SOL    HW282366   8.408   4.923   5.467
60157SOL     OW82367  11.167   6.389   5.322
60157SOL    HW182368  11.169   6.390   5.417
60157SOL    HW282369  11.075   6.405   5.300
60158SOL     OW82370   3.823   5.795  13.268
60158SOL    HW182371   3.792   5.885  13.257
60158SOL    HW282372   3.784   5.767  13.351
60159SOL     OW82373  14.708   2.895   0.212
60159SOL    HW182374  14.773   2.962   0.234
60159SOL    HW282375  14.753   2.812   0.226
60160SOL     OW82376  13.042   5.785   2.509
60160SOL    HW182377  12.956   5.807   2.546
60160SOL    HW282378  13.103   5.842   2.557
60161SOL     OW82379  13.722   5.274  13.933
60161SOL    HW182380  13.682   5.199  13.977
60161SOL    HW282381  13.794   5.236  13.882
60162SOL     OW82382   2.159   7.858  12.200
60162SOL    HW182383   2.072   7.821  12.181
60162SOL    HW282384   2.162   7.863  12.296
60163SOL     OW82385   7.525   3.154  10.185
60163SOL    HW182386   7.561   3.081  10.135
60163SOL    HW282387   7.569   3.149  10.270
60164SOL     OW82388   8.672   3.437  13.967
60164SOL    HW182389   8.592   3.439  14.021
60164SOL    HW282390   8.655   3.500  13.897
60165SOL     OW82391   3.673  11.290   7.648
60165SOL    HW182392   3.614  11.253   7.582
60165SOL    HW282393   3.615  11.315   7.721
60166SOL     OW82394  14.808   3.395   3.501
60166SOL    HW182395  14.762   3.336   3.561
60166SOL    HW282396  14.747   3.467   3.486
60167SOL     OW82397   8.386  11.780   6.794
60167SOL    HW182398   8.433  11.797   6.712
60167SOL    HW282399   8.450  11.798   6.863
60168SOL     OW82400   8.544   4.667  13.869
60168SOL    HW182401   8.544   4.760  13.889
60168SOL    HW282402   8.470   4.655  13.810
60169SOL     OW82403  12.570   8.742  11.899
60169SOL    HW182404  12.541   8.756  11.809
60169SOL    HW282405  12.663   8.719  11.891
60170SOL     OW82406  13.364   0.486  10.250
60170SOL    HW182407  13.431   0.515  10.188
60170SOL    HW282408  13.329   0.567  10.288
60171SOL     OW82409   1.929   7.073  13.774
60171SOL    HW182410   1.982   7.140  13.818
60171SOL    HW282411   1.913   7.007  13.841
60172SOL     OW82412   5.569   6.886  14.169
60172SOL    HW182413   5.490   6.861  14.121
60172SOL    HW282414   5.640   6.844  14.122
60173SOL     OW82415   0.552   6.738   0.795
60173SOL    HW182416   0.583   6.648   0.785
60173SOL    HW282417   0.600   6.771   0.871
60174SOL     OW82418  10.667  10.473   7.535
60174SOL    HW182419  10.682  10.391   7.583
60174SOL    HW282420  10.688  10.541   7.599
60175SOL     OW82421   9.038   4.065   6.969
60175SOL    HW182422   9.085   4.088   6.889
60175SOL    HW282423   8.966   4.128   6.974
60176SOL     OW82424   4.423  13.087  12.038
60176SOL    HW182425   4.421  13.091  11.942
60176SOL    HW282426   4.504  13.133  12.062
60177SOL     OW82427   8.629   9.468   4.116
60177SOL    HW182428   8.540   9.485   4.085
60177SOL    HW282429   8.645   9.376   4.096
60178SOL     OW82430  12.118   0.351   8.634
60178SOL    HW182431  12.094   0.433   8.590
60178SOL    HW282432  12.213   0.348   8.628
60179SOL     OW82433   4.214   6.869  10.929
60179SOL    HW182434   4.302   6.891  10.959
60179SOL    HW282435   4.211   6.773  10.930
60180SOL     OW82436   5.425   4.489   4.635
60180SOL    HW182437   5.477   4.411   4.652
60180SOL    HW282438   5.382   4.472   4.551
60181SOL     OW82439   2.749   3.377   6.424
60181SOL    HW182440   2.839   3.408   6.438
60181SOL    HW282441   2.724   3.415   6.340
60182SOL     OW82442   8.591  11.309   8.031
60182SOL    HW182443   8.608  11.392   8.075
60182SOL    HW282444   8.678  11.270   8.019
60183SOL     OW82445  14.227   1.670  13.343
60183SOL    HW182446  14.278   1.678  13.424
60183SOL    HW282447  14.142   1.636  13.371
60184SOL     OW82448   9.634   2.991  10.356
60184SOL    HW182449   9.584   2.910  10.369
60184SOL    HW282450   9.708   2.964  10.301
60185SOL     OW82451   2.086   7.310   4.657
60185SOL    HW182452   2.128   7.236   4.702
60185SOL    HW282453   2.154   7.378   4.656
60186SOL     OW82454  10.704   6.246   0.171
60186SOL    HW182455  10.769   6.313   0.188
60186SOL    HW282456  10.636   6.290   0.119
60187SOL     OW82457   3.871   2.982   4.790
60187SOL    HW182458   3.843   3.071   4.767
60187SOL    HW282459   3.909   2.947   4.709
60188SOL     OW82460  12.986  10.687   3.949
60188SOL    HW182461  13.080  10.669   3.947
60188SOL    HW282462  12.974  10.746   4.024
60189SOL     OW82463   9.231   8.366   1.826
60189SOL    HW182464   9.182   8.351   1.746
60189SOL    HW282465   9.229   8.460   1.839
60190SOL     OW82466   7.350   7.521   5.733
60190SOL    HW182467   7.382   7.556   5.650
60190SOL    HW282468   7.378   7.429   5.733
60191SOL     OW82469   9.635   2.781   2.920
60191SOL    HW182470   9.730   2.780   2.912
60191SOL    HW282471   9.603   2.798   2.832
60192SOL     OW82472  10.900   0.058  14.258
60192SOL    HW182473  10.846   0.135  14.239
60192SOL    HW282474  10.982   0.093  14.291
60193SOL     OW82475   6.308   7.193   0.359
60193SOL    HW182476   6.353   7.182   0.275
60193SOL    HW282477   6.229   7.140   0.351
60194SOL     OW82478  13.560   6.813   1.434
60194SOL    HW182479  13.622   6.884   1.419
60194SOL    HW282480  13.566   6.796   1.528
60195SOL     OW82481   0.757  13.642   0.197
60195SOL    HW182482   0.710  13.615   0.276
60195SOL    HW282483   0.779  13.561   0.152
60196SOL     OW82484  11.883  13.393  11.086
60196SOL    HW182485  11.868  13.337  11.010
60196SOL    HW282486  11.968  13.366  11.120
60197SOL     OW82487  14.244   9.031   2.031
60197SOL    HW182488  14.239   8.959   2.094
60197SOL    HW282489  14.153   9.062   2.023
60198SOL     OW82490  14.011   1.173  12.789
60198SOL    HW182491  14.059   1.125  12.857
60198SOL    HW282492  14.079   1.209  12.732
60199SOL     OW82493   9.490  12.198  13.209
60199SOL    HW182494   9.574  12.242  13.216
60199SOL    HW282495   9.449  12.236  13.131
60200SOL     OW82496   8.980   2.414  12.868
60200SOL    HW182497   8.995   2.357  12.792
60200SOL    HW282498   8.951   2.354  12.937
60201SOL     OW82499  14.557  12.464   6.119
60201SOL    HW182500  14.536  12.518   6.044
60201SOL    HW282501  14.591  12.525   6.184
60202SOL     OW82502  11.751   3.227   1.481
60202SOL    HW182503  11.737   3.320   1.464
60202SOL    HW282504  11.663   3.188   1.479
60203SOL     OW82505  12.936   9.132   5.338
60203SOL    HW182506  12.898   9.078   5.269
60203SOL    HW282507  12.890   9.105   5.418
60204SOL     OW82508   2.195   0.612   8.485
60204SOL    HW182509   2.150   0.631   8.402
60204SOL    HW282510   2.278   0.574   8.459
60205SOL     OW82511   2.526   5.402   5.287
60205SOL    HW182512   2.522   5.458   5.209
60205SOL    HW282513   2.606   5.429   5.332
60206SOL     OW82514   6.737   6.030   1.012
60206SOL    HW182515   6.811   6.076   1.052
60206SOL    HW282516   6.734   6.062   0.922
60207SOL     OW82517   0.940   1.620   9.643
60207SOL    HW182518   0.845   1.611   9.652
60207SOL    HW282519   0.955   1.715   9.643
60208SOL     OW82520  14.284   0.261  12.967
60208SOL    HW182521  14.326   0.337  12.927
60208SOL    HW282522  14.353   0.221  13.019
60209SOL     OW82523   1.771   1.966   7.359
60209SOL    HW182524   1.768   1.892   7.420
60209SOL    HW282525   1.865   1.980   7.344
60210SOL     OW82526   0.022  11.641   2.225
60210SOL    HW182527   0.046  11.567   2.170
60210SOL    HW282528   0.003  11.602   2.310
60211SOL     OW82529   6.578   1.744   7.085
60211SOL    HW182530   6.548   1.750   7.176
60211SOL    HW282531   6.654   1.803   7.081
60212SOL     OW82532   6.247  12.442   6.278
60212SOL    HW182533   6.193  12.375   6.239
60212SOL    HW282534   6.250  12.420   6.371
60213SOL     OW82535   7.214   0.001   4.883
60213SOL    HW182536   7.189  14.873   4.791
60213SOL    HW282537   7.142  14.843   4.931
60214SOL     OW82538   8.083  10.065   0.632
60214SOL    HW182539   8.123  10.118   0.701
60214SOL    HW282540   8.152  10.058   0.565
60215SOL     OW82541   9.299   9.379  11.571
60215SOL    HW182542   9.219   9.398  11.621
60215SOL    HW282543   9.363   9.353  11.636
60216SOL     OW82544  13.241  11.104   3.395
60216SOL    HW182545  13.155  11.075   3.427
60216SOL    HW282546  13.231  11.198   3.384
60217SOL     OW82547   8.267  11.125  14.114
60217SOL    HW182548   8.317  11.044  14.109
60217SOL    HW282549   8.289  11.172  14.034
60218SOL     OW82550  10.341  10.510  14.785
60218SOL    HW182551  10.346  10.419  14.757
60218SOL    HW282552  10.247  10.529  14.789
60219SOL     OW82553   0.569  11.946  11.839
60219SOL    HW182554   0.614  12.017  11.885
60219SOL    HW282555   0.551  11.881  11.907
60220SOL     OW82556  10.908   8.638   2.436
60220SOL    HW182557  10.893   8.599   2.350
60220SOL    HW282558  10.881   8.730   2.425
60221SOL     OW82559  11.074   3.669   5.856
60221SOL    HW182560  11.163   3.700   5.841
60221SOL    HW282561  11.066   3.592   5.800
60222SOL     OW82562  12.933   5.245   0.739
60222SOL    HW182563  13.022   5.256   0.705
60222SOL    HW282564  12.915   5.152   0.729
60223SOL     OW82565   1.666   8.911   0.421
60223SOL    HW182566   1.641   8.827   0.459
60223SOL    HW282567   1.701   8.888   0.334
60224SOL     OW82568  11.978  11.659   1.646
60224SOL    HW182569  12.008  11.657   1.555
60224SOL    HW282570  11.936  11.745   1.655
60225SOL     OW82571   4.701   7.670   8.708
60225SOL    HW182572   4.641   7.638   8.775
60225SOL    HW282573   4.696   7.606   8.638
60226SOL     OW82574   8.055   2.224  10.793
60226SOL    HW182575   7.965   2.192  10.793
60226SOL    HW282576   8.104   2.159  10.843
60227SOL     OW82577   9.723   0.382  14.284
60227SOL    HW182578   9.738   0.445  14.213
60227SOL    HW282579   9.809   0.346  14.304
60228SOL     OW82580   6.275   6.035  10.019
60228SOL    HW182581   6.280   5.946   9.984
60228SOL    HW282582   6.308   6.027  10.109
60229SOL     OW82583   7.627  13.354   7.868
60229SOL    HW182584   7.695  13.378   7.805
60229SOL    HW282585   7.663  13.379   7.953
60230SOL     OW82586   7.936   9.179  10.095
60230SOL    HW182587   7.896   9.160  10.180
60230SOL    HW282588   8.030   9.167  10.109
60231SOL     OW82589   1.796   7.353   0.397
60231SOL    HW182590   1.849   7.336   0.476
60231SOL    HW282591   1.734   7.281   0.393
60232SOL     OW82592  14.465  13.177   2.594
60232SOL    HW182593  14.550  13.149   2.628
60232SOL    HW282594  14.471  13.165   2.499
60233SOL     OW82595   5.547   7.535   6.610
60233SOL    HW182596   5.560   7.442   6.629
60233SOL    HW282597   5.463   7.556   6.650
60234SOL     OW82598  11.801   5.241  10.224
60234SOL    HW182599  11.826   5.270  10.312
60234SOL    HW282600  11.742   5.310  10.193
60235SOL     OW82601   3.759   6.019   8.296
60235SOL    HW182602   3.800   6.055   8.375
60235SOL    HW282603   3.708   6.092   8.261
60236SOL     OW82604   7.791   4.484   4.311
60236SOL    HW182605   7.805   4.522   4.224
60236SOL    HW282606   7.845   4.536   4.370
60237SOL     OW82607   9.688   9.420   4.021
60237SOL    HW182608   9.643   9.467   3.951
60237SOL    HW282609   9.623   9.416   4.092
60238SOL     OW82610   1.736   8.014  13.474
60238SOL    HW182611   1.818   8.046  13.436
60238SOL    HW282612   1.761   7.939  13.527
60239SOL     OW82613  13.022  10.136  13.537
60239SOL    HW182614  12.968  10.210  13.511
60239SOL    HW282615  13.033  10.147  13.632
60240SOL     OW82616   3.776  10.003  10.118
60240SOL    HW182617   3.780  10.072  10.051
60240SOL    HW282618   3.792   9.922  10.070
60241SOL     OW82619   6.600  13.199   7.637
60241SOL    HW182620   6.535  13.251   7.684
60241SOL    HW282621   6.684  13.234   7.664
60242SOL     OW82622   4.159   9.628   4.819
60242SOL    HW182623   4.126   9.718   4.812
60242SOL    HW282624   4.198   9.624   4.906
60243SOL     OW82625   4.147  10.350  14.088
60243SOL    HW182626   4.101  10.377  14.167
60243SOL    HW282627   4.239  10.369  14.106
60244SOL     OW82628  12.496   0.052  14.069
60244SOL    HW182629  12.492   0.037  13.975
60244SOL    HW282630  12.501  14.847  14.107
60245SOL     OW82631  13.346  12.402   7.284
60245SOL    HW182632  13.397  12.331   7.245
60245SOL    HW282633  13.408  12.474   7.291
60246SOL     OW82634   0.059  13.040   8.175
60246SOL    HW182635   0.070  12.971   8.240
60246SOL    HW282636  14.846  13.050   8.166
60247SOL     OW82637  10.654  12.746   0.089
60247SOL    HW182638  10.640  12.683   0.018
60247SOL    HW282639  10.579  12.805   0.084
60248SOL     OW82640  10.414   0.645  13.370
60248SOL    HW182641  10.452   0.588  13.303
60248SOL    HW282642  10.394   0.587  13.443
60249SOL     OW82643   0.097   0.602   5.699
60249SOL    HW182644   0.192   0.597   5.701
60249SOL    HW282645   0.068   0.525   5.747
60250SOL     OW82646   5.291   1.117   3.615
60250SOL    HW182647   5.242   1.035   3.620
60250SOL    HW282648   5.382   1.090   3.604
60251SOL     OW82649   9.064   4.476   1.709
60251SOL    HW182650   9.021   4.399   1.745
60251SOL    HW282651   9.082   4.454   1.618
60252SOL     OW82652  10.442   2.293   7.453
60252SOL    HW182653  10.521   2.336   7.486
60252SOL    HW282654  10.444   2.206   7.493
60253SOL     OW82655   5.543   8.957  13.115
60253SOL    HW182656   5.572   8.899  13.044
60253SOL    HW282657   5.493   9.026  13.070
60254SOL     OW82658   3.434   7.724   4.106
60254SOL    HW182659   3.527   7.712   4.085
60254SOL    HW282660   3.431   7.723   4.202
60255SOL     OW82661   4.195   5.043   2.096
60255SOL    HW182662   4.276   5.089   2.120
60255SOL    HW282663   4.216   4.951   2.110
60256SOL     OW82664  12.680  12.702  12.035
60256SOL    HW182665  12.717  12.763  11.971
60256SOL    HW282666  12.753  12.644  12.057
60257SOL     OW82667   6.341   6.465   8.405
60257SOL    HW182668   6.321   6.448   8.497
60257SOL    HW282669   6.351   6.560   8.400
60258SOL     OW82670   9.976  13.776   4.018
60258SOL    HW182671  10.030  13.847   4.054
60258SOL    HW282672  10.009  13.697   4.060
60259SOL     OW82673   2.560  14.306   4.422
60259SOL    HW182674   2.627  14.326   4.488
60259SOL    HW282675   2.511  14.387   4.414
60260SOL     OW82676  12.293  10.757  12.809
60260SOL    HW182677  12.276  10.673  12.766
60260SOL    HW282678  12.297  10.821  12.737
60261SOL     OW82679   3.272  10.984  10.406
60261SOL    HW182680   3.228  11.032  10.477
60261SOL    HW282681   3.328  10.921  10.452
60262SOL     OW82682  11.920   3.320  13.669
60262SOL    HW182683  11.836   3.328  13.625
60262SOL    HW282684  11.981   3.291  13.601
60263SOL     OW82685   6.818   8.261  14.304
60263SOL    HW182686   6.823   8.262  14.209
60263SOL    HW282687   6.725   8.247  14.323
60264SOL     OW82688   8.045   2.584   9.080
60264SOL    HW182689   7.957   2.612   9.058
60264SOL    HW282690   8.101   2.657   9.052
60265SOL     OW82691  13.809  12.717   1.644
60265SOL    HW182692  13.717  12.721   1.621
60265SOL    HW282693  13.855  12.738   1.562
60266SOL     OW82694   8.087   8.952   0.716
60266SOL    HW182695   8.065   9.044   0.726
60266SOL    HW282696   8.137   8.930   0.796
60267SOL     OW82697   5.526   4.920  10.938
60267SOL    HW182698   5.567   4.839  10.969
60267SOL    HW282699   5.579   4.947  10.863
60268SOL     OW82700   5.647   9.064   7.189
60268SOL    HW182701   5.628   9.128   7.120
60268SOL    HW282702   5.588   8.991   7.171
60269SOL     OW82703   6.090   9.427   4.492
60269SOL    HW182704   6.003   9.453   4.523
60269SOL    HW282705   6.140   9.509   4.488
60270SOL     OW82706   3.478   9.726  11.450
60270SOL    HW182707   3.495   9.770  11.534
60270SOL    HW282708   3.383   9.714  11.449
60271SOL     OW82709   7.609  12.996  13.017
60271SOL    HW182710   7.566  13.018  13.100
60271SOL    HW282711   7.695  12.962  13.042
60272SOL     OW82712  14.226   7.213  11.878
60272SOL    HW182713  14.317   7.234  11.855
60272SOL    HW282714  14.177   7.292  11.857
60273SOL     OW82715  11.628  11.856   2.857
60273SOL    HW182716  11.592  11.841   2.770
60273SOL    HW282717  11.690  11.784   2.870
60274SOL     OW82718  10.297   4.296   5.270
60274SOL    HW182719  10.312   4.371   5.328
60274SOL    HW282720  10.250   4.232   5.324
60275SOL     OW82721  14.826  13.971   9.054
60275SOL    HW182722  14.772  13.905   9.011
60275SOL    HW282723  14.764  14.032   9.092
60276SOL     OW82724   3.362  11.987   2.676
60276SOL    HW182725   3.396  11.924   2.612
60276SOL    HW282726   3.341  11.934   2.753
60277SOL     OW82727  13.553   5.227   7.626
60277SOL    HW182728  13.599   5.174   7.692
60277SOL    HW282729  13.604   5.307   7.620
60278SOL     OW82730   1.138   3.784  11.778
60278SOL    HW182731   1.169   3.875  11.780
60278SOL    HW282732   1.091   3.773  11.860
60279SOL     OW82733  13.854   4.666   4.043
60279SOL    HW182734  13.767   4.640   4.012
60279SOL    HW282735  13.892   4.586   4.079
60280SOL     OW82736   2.248   5.956   4.925
60280SOL    HW182737   2.249   5.905   4.844
60280SOL    HW282738   2.156   5.973   4.943
60281SOL     OW82739   2.132   0.183   0.884
60281SOL    HW182740   2.113   0.243   0.811
60281SOL    HW282741   2.076   0.107   0.868
60282SOL     OW82742   8.426   1.486  14.331
60282SOL    HW182743   8.480   1.435  14.391
60282SOL    HW282744   8.444   1.577  14.354
60283SOL     OW82745   4.466  10.377  11.895
60283SOL    HW182746   4.386  10.328  11.880
60283SOL    HW282747   4.445  10.436  11.968
60284SOL     OW82748   2.237  11.495   3.606
60284SOL    HW182749   2.240  11.400   3.596
60284SOL    HW282750   2.303  11.529   3.546
60285SOL     OW82751   2.234  14.211   6.888
60285SOL    HW182752   2.321  14.250   6.890
60285SOL    HW282753   2.212  14.206   6.795
60286SOL     OW82754  10.787   9.844   2.586
60286SOL    HW182755  10.798   9.783   2.660
60286SOL    HW282756  10.836   9.922   2.612
60287SOL     OW82757  14.041  10.360  12.915
60287SOL    HW182758  14.001  10.282  12.953
60287SOL    HW282759  14.048  10.422  12.987
60288SOL     OW82760   2.309   6.776   8.359
60288SOL    HW182761   2.300   6.725   8.278
60288SOL    HW282762   2.347   6.859   8.331
60289SOL     OW82763   1.548  11.293   2.838
60289SOL    HW182764   1.607  11.241   2.891
60289SOL    HW282765   1.486  11.230   2.801
60290SOL     OW82766  14.038   1.758   4.468
60290SOL    HW182767  14.025   1.714   4.551
60290SOL    HW282768  13.961   1.813   4.457
60291SOL     OW82769   5.898   8.532   0.636
60291SOL    HW182770   5.961   8.489   0.693
60291SOL    HW282771   5.922   8.624   0.637
60292SOL     OW82772  12.207  12.405   4.780
60292SOL    HW182773  12.200  12.390   4.686
60292SOL    HW282774  12.117  12.417   4.809
60293SOL     OW82775   5.653   0.616   3.181
60293SOL    HW182776   5.646   0.589   3.089
60293SOL    HW282777   5.569   0.591   3.220
60294SOL     OW82778   5.277   6.086   4.607
60294SOL    HW182779   5.272   6.121   4.696
60294SOL    HW282780   5.186   6.087   4.576
60295SOL     OW82781   2.769   3.805   0.066
60295SOL    HW182782   2.724   3.804  14.864
60295SOL    HW282783   2.821   3.725   0.066
60296SOL     OW82784   9.304   6.893  12.910
60296SOL    HW182785   9.342   6.942  12.983
60296SOL    HW282786   9.225   6.853  12.946
60297SOL     OW82787  14.291   1.246   5.199
60297SOL    HW182788  14.359   1.282   5.256
60297SOL    HW282789  14.336   1.228   5.117
60298SOL     OW82790  14.013  12.615   2.703
60298SOL    HW182791  14.058  12.664   2.772
60298SOL    HW282792  13.932  12.664   2.688
60299SOL     OW82793   3.943   9.980   9.125
60299SOL    HW182794   3.935   9.969   9.030
60299SOL    HW282795   3.988  10.064   9.135
60300SOL     OW82796  11.582   4.135   1.786
60300SOL    HW182797  11.627   4.199   1.731
60300SOL    HW282798  11.562   4.182   1.866
60301SOL     OW82799  10.349   0.148   6.394
60301SOL    HW182800  10.355   0.103   6.479
60301SOL    HW282801  10.399   0.093   6.334
60302SOL     OW82802   9.165   0.796   8.556
60302SOL    HW182803   9.128   0.784   8.644
60302SOL    HW282804   9.235   0.731   8.551
60303SOL     OW82805  13.368  10.373   4.328
60303SOL    HW182806  13.360  10.380   4.424
60303SOL    HW282807  13.278  10.361   4.298
60304SOL     OW82808  11.331   1.742   9.679
60304SOL    HW182809  11.288   1.820   9.711
60304SOL    HW282810  11.304   1.672   9.739
60305SOL     OW82811   1.317   1.219   2.240
60305SOL    HW182812   1.394   1.275   2.249
60305SOL    HW282813   1.243   1.279   2.247
60306SOL     OW82814   2.146   5.801   3.809
60306SOL    HW182815   2.224   5.769   3.764
60306SOL    HW282816   2.078   5.805   3.742
60307SOL     OW82817   5.541   6.349  14.754
60307SOL    HW182818   5.479   6.417  14.781
60307SOL    HW282819   5.582   6.320  14.836
60308SOL     OW82820   9.669  14.202   7.046
60308SOL    HW182821   9.688  14.283   7.094
60308SOL    HW282822   9.755  14.172   7.015
60309SOL     OW82823  14.526  12.788  13.730
60309SOL    HW182824  14.565  12.703  13.752
60309SOL    HW282825  14.444  12.766  13.687
60310SOL     OW82826   7.150   3.487   8.371
60310SOL    HW182827   7.133   3.532   8.289
60310SOL    HW282828   7.239   3.451   8.361
60311SOL     OW82829  12.761   7.090   5.331
60311SOL    HW182830  12.807   7.162   5.373
60311SOL    HW282831  12.720   7.128   5.254
60312SOL     OW82832   0.929   6.845   3.913
60312SOL    HW182833   0.861   6.806   3.858
60312SOL    HW282834   0.939   6.783   3.985
60313SOL     OW82835   8.055   3.712   1.464
60313SOL    HW182836   7.995   3.656   1.416
60313SOL    HW282837   8.002   3.751   1.534
60314SOL     OW82838   2.252   8.418   3.855
60314SOL    HW182839   2.291   8.347   3.804
60314SOL    HW282840   2.160   8.394   3.863
60315SOL     OW82841  13.087   8.129   4.088
60315SOL    HW182842  13.151   8.198   4.074
60315SOL    HW282843  13.085   8.117   4.183
60316SOL     OW82844  10.683   3.249  13.919
60316SOL    HW182845  10.626   3.268  13.843
60316SOL    HW282846  10.728   3.168  13.895
60317SOL     OW82847  12.958  14.524   7.972
60317SOL    HW182848  13.008  14.464   8.027
60317SOL    HW282849  13.003  14.608   7.981
60318SOL     OW82850   8.892   6.824   1.615
60318SOL    HW182851   8.832   6.752   1.636
60318SOL    HW282852   8.838   6.902   1.624
60319SOL     OW82853  13.138  11.483  11.059
60319SOL    HW182854  13.103  11.431  10.987
60319SOL    HW282855  13.233  11.469  11.055
60320SOL     OW82856   5.655   4.902   9.400
60320SOL    HW182857   5.642   4.948   9.317
60320SOL    HW282858   5.691   4.817   9.373
60321SOL     OW82859   9.663   4.786   3.651
60321SOL    HW182860   9.616   4.868   3.669
60321SOL    HW282861   9.704   4.800   3.566
60322SOL     OW82862  11.252   5.631  10.777
60322SOL    HW182863  11.208   5.717  10.779
60322SOL    HW282864  11.233   5.597  10.689
60323SOL     OW82865   7.070   3.518  10.117
60323SOL    HW182866   7.026   3.556  10.194
60323SOL    HW282867   7.160   3.550  10.122
60324SOL     OW82868   6.908   2.640   0.314
60324SOL    HW182869   6.922   2.704   0.244
60324SOL    HW282870   6.818   2.655   0.342
60325SOL     OW82871   5.782   7.355  10.891
60325SOL    HW182872   5.851   7.337  10.828
60325SOL    HW282873   5.822   7.414  10.955
60326SOL     OW82874  13.526   7.662   4.350
60326SOL    HW182875  13.519   7.597   4.280
60326SOL    HW282876  13.611   7.703   4.336
60327SOL     OW82877   6.555   4.307  10.364
60327SOL    HW182878   6.490   4.279  10.300
60327SOL    HW282879   6.606   4.373  10.318
60328SOL     OW82880   1.809   2.700   7.488
60328SOL    HW182881   1.721   2.663   7.475
60328SOL    HW282882   1.857   2.631   7.534
60329SOL     OW82883   8.485   3.462  11.068
60329SOL    HW182884   8.502   3.422  10.983
60329SOL    HW282885   8.399   3.429  11.094
60330SOL     OW82886  12.397   0.662   9.756
60330SOL    HW182887  12.315   0.613   9.750
60330SOL    HW282888  12.371   0.754   9.751
60331SOL     OW82889  12.892   6.488   5.651
60331SOL    HW182890  12.818   6.428   5.662
60331SOL    HW282891  12.947   6.473   5.728
60332SOL     OW82892   8.578   8.144  12.142
60332SOL    HW182893   8.660   8.187  12.121
60332SOL    HW282894   8.596   8.051  12.128
60333SOL     OW82895   4.419   6.482  14.845
60333SOL    HW182896   4.476   6.420  14.800
60333SOL    HW282897   4.438   6.566  14.803
60334SOL     OW82898   4.020   6.621  11.875
60334SOL    HW182899   4.006   6.669  11.793
60334SOL    HW282900   3.999   6.685  11.944
60335SOL     OW82901   5.057   9.326  10.826
60335SOL    HW182902   5.042   9.307  10.918
60335SOL    HW282903   5.044   9.421  10.819
60336SOL     OW82904  10.313   2.113   3.104
60336SOL    HW182905  10.408   2.101   3.109
60336SOL    HW282906  10.278   2.053   3.170
60337SOL     OW82907  11.271   1.588  12.481
60337SOL    HW182908  11.237   1.504  12.511
60337SOL    HW282909  11.309   1.628  12.559
60338SOL     OW82910  13.996   5.959  14.762
60338SOL    HW182911  13.977   6.030  14.701
60338SOL    HW282912  13.920   5.901  14.757
60339SOL     OW82913   8.253   2.777   9.049
60339SOL    HW182914   8.286   2.780   9.138
60339SOL    HW282915   8.256   2.868   9.019
60340SOL     OW82916   1.338   5.349  13.556
60340SOL    HW182917   1.322   5.285  13.486
60340SOL    HW282918   1.253   5.363  13.596
60341SOL     OW82919  14.438   3.704   7.882
60341SOL    HW182920  14.375   3.632   7.876
60341SOL    HW282921  14.409   3.766   7.816
60342SOL     OW82922   2.752   1.890  11.013
60342SOL    HW182923   2.807   1.851  11.082
60342SOL    HW282924   2.802   1.876  10.932
60343SOL     OW82925   7.736   1.154   1.144
60343SOL    HW182926   7.661   1.128   1.091
60343SOL    HW282927   7.735   1.249   1.143
60344SOL     OW82928  14.753   4.513   7.957
60344SOL    HW182929  14.750   4.576   7.885
60344SOL    HW282930  14.775   4.430   7.915
60345SOL     OW82931   0.374   8.184  12.949
60345SOL    HW182932   0.439   8.204  13.018
60345SOL    HW282933   0.312   8.125  12.991
60346SOL     OW82934  12.699   2.061  13.849
60346SOL    HW182935  12.782   2.108  13.844
60346SOL    HW282936  12.710   2.001  13.923
60347SOL     OW82937   6.285  10.343   0.486
60347SOL    HW182938   6.224  10.402   0.441
60347SOL    HW282939   6.315  10.282   0.418
60348SOL     OW82940   9.269  14.118   7.810
60348SOL    HW182941   9.180  14.153   7.803
60348SOL    HW282942   9.276  14.055   7.737
60349SOL     OW82943  14.518   3.560   4.212
60349SOL    HW182944  14.496   3.593   4.125
60349SOL    HW282945  14.481   3.626   4.272
60350SOL     OW82946   1.627   3.909   0.066
60350SOL    HW182947   1.593   3.915  14.859
60350SOL    HW282948   1.593   3.987   0.111
60351SOL     OW82949   0.164   9.662   9.619
60351SOL    HW182950   0.184   9.594   9.683
60351SOL    HW282951   0.098   9.622   9.562
60352SOL     OW82952   9.158   1.270   3.681
60352SOL    HW182953   9.137   1.188   3.635
60352SOL    HW282954   9.173   1.242   3.772
60353SOL     OW82955  10.772   0.306   5.307
60353SOL    HW182956  10.811   0.275   5.389
60353SOL    HW282957  10.773   0.401   5.315
60354SOL     OW82958   3.393   0.447   7.468
60354SOL    HW182959   3.407   0.403   7.385
60354SOL    HW282960   3.342   0.385   7.520
60355SOL     OW82961   2.144   6.010  14.781
60355SOL    HW182962   2.082   6.066  14.735
60355SOL    HW282963   2.177   5.950  14.714
60356SOL     OW82964  10.171   8.721  10.299
60356SOL    HW182965  10.115   8.742  10.374
60356SOL    HW282966  10.203   8.805  10.268
60357SOL     OW82967  13.659   9.112  10.360
60357SOL    HW182968  13.701   9.042  10.310
60357SOL    HW282969  13.725   9.182  10.364
60358SOL     OW82970   6.310  10.026   3.892
60358SOL    HW182971   6.303   9.934   3.915
60358SOL    HW282972   6.380  10.030   3.827
60359SOL     OW82973   3.635   0.163   3.034
60359SOL    HW182974   3.602   0.203   3.115
60359SOL    HW282975   3.588   0.080   3.028
60360SOL     OW82976  13.447   3.325   9.556
60360SOL    HW182977  13.423   3.406   9.601
60360SOL    HW282978  13.385   3.318   9.484
60361SOL     OW82979   7.587   5.846   2.498
60361SOL    HW182980   7.504   5.801   2.489
60361SOL    HW282981   7.653   5.777   2.488
60362SOL     OW82982   2.690   7.999   1.454
60362SOL    HW182983   2.781   8.003   1.483
60362SOL    HW282984   2.651   7.929   1.506
60363SOL     OW82985  10.661   1.010   6.692
60363SOL    HW182986  10.744   1.001   6.738
60363SOL    HW282987  10.666   0.945   6.622
60364SOL     OW82988   0.527  10.736   5.219
60364SOL    HW182989   0.526  10.640   5.222
60364SOL    HW282990   0.499  10.758   5.130
60365SOL     OW82991   4.779  10.995  13.634
60365SOL    HW182992   4.711  10.931  13.656
60365SOL    HW282993   4.786  11.051  13.712
60366SOL     OW82994   0.276   9.528   4.975
60366SOL    HW182995   0.202   9.563   5.026
60366SOL    HW282996   0.240   9.511   4.888
60367SOL     OW82997   4.217   6.323  13.386
60367SOL    HW182998   4.274   6.330  13.463
60367SOL    HW282999   4.203   6.414  13.359
60368SOL     OW83000  13.926  12.460   6.901
60368SOL    HW183001  13.933  12.391   6.834
60368SOL    HW283002  14.014  12.498   6.905
60369SOL     OW83003  11.197   4.476   0.206
60369SOL    HW183004  11.274   4.423   0.190
60369SOL    HW283005  11.156   4.485   0.119
60370SOL     OW83006   6.078   9.312   0.126
60370SOL    HW183007   6.099   9.388   0.179
60370SOL    HW283008   6.062   9.347   0.038
60371SOL     OW83009   6.253  13.808  13.486
60371SOL    HW183010   6.202  13.785  13.408
60371SOL    HW283011   6.202  13.877  13.528
60372SOL     OW83012   9.191   1.308   8.051
60372SOL    HW183013   9.268   1.286   7.999
60372SOL    HW283014   9.209   1.394   8.088
60373SOL     OW83015  11.722  13.641   9.814
60373SOL    HW183016  11.650  13.578   9.819
60373SOL    HW283017  11.682  13.720   9.778
60374SOL     OW83018   3.274   9.816  11.163
60374SOL    HW183019   3.264   9.767  11.081
60374SOL    HW283020   3.299   9.749  11.227
60375SOL     OW83021   0.683   8.034   1.790
60375SOL    HW183022   0.704   8.059   1.700
60375SOL    HW283023   0.740   8.088   1.844
60376SOL     OW83024   2.305   8.862   3.287
60376SOL    HW183025   2.395   8.857   3.319
60376SOL    HW283026   2.256   8.901   3.359
60377SOL     OW83027   0.023   3.814   9.455
60377SOL    HW183028  14.868   3.797   9.541
60377SOL    HW283029  14.831   3.842   9.402
60378SOL     OW83030   9.675   9.711   4.979
60378SOL    HW183031   9.645   9.764   5.053
60378SOL    HW283032   9.650   9.762   4.902
60379SOL     OW83033   7.641   0.447  11.494
60379SOL    HW183034   7.631   0.527  11.547
60379SOL    HW283035   7.620   0.376  11.554
60380SOL     OW83036  13.331  10.218   3.200
60380SOL    HW183037  13.284  10.195   3.120
60380SOL    HW283038  13.303  10.308   3.220
60381SOL     OW83039   7.728  11.362   8.696
60381SOL    HW183040   7.738  11.436   8.756
60381SOL    HW283041   7.634  11.344   8.697
60382SOL     OW83042   1.725   5.524  13.869
60382SOL    HW183043   1.774   5.607  13.870
60382SOL    HW283044   1.649   5.542  13.813
60383SOL     OW83045   0.100   8.024   6.370
60383SOL    HW183046   0.028   8.080   6.398
60383SOL    HW283047   0.090   8.017   6.275
60384SOL     OW83048   9.228   4.305   4.742
60384SOL    HW183049   9.218   4.217   4.777
60384SOL    HW283050   9.197   4.363   4.811
60385SOL     OW83051   4.016   9.228   7.675
60385SOL    HW183052   3.923   9.251   7.664
60385SOL    HW283053   4.037   9.177   7.597
60386SOL     OW83054   0.121   4.157   1.630
60386SOL    HW183055   0.119   4.246   1.665
60386SOL    HW283056   0.202   4.153   1.579
60387SOL     OW83057   6.533  10.196  11.132
60387SOL    HW183058   6.445  10.169  11.158
60387SOL    HW283059   6.575  10.116  11.099
60388SOL     OW83060   7.027   9.022   1.244
60388SOL    HW183061   7.103   8.987   1.197
60388SOL    HW283062   6.982   9.076   1.178
60389SOL     OW83063  10.273   3.819   4.279
60389SOL    HW183064  10.317   3.901   4.257
60389SOL    HW283065  10.249   3.781   4.195
60390SOL     OW83066  10.430  11.194   5.465
60390SOL    HW183067  10.461  11.251   5.396
60390SOL    HW283068  10.499  11.197   5.532
60391SOL     OW83069  10.408   3.663   6.788
60391SOL    HW183070  10.333   3.668   6.730
60391SOL    HW283071  10.475   3.717   6.747
60392SOL     OW83072  12.579  12.656  13.706
60392SOL    HW183073  12.591  12.596  13.780
60392SOL    HW283074  12.562  12.599  13.631
60393SOL     OW83075  13.683  11.058   8.793
60393SOL    HW183076  13.695  10.973   8.750
60393SOL    HW283077  13.703  11.123   8.725
60394SOL     OW83078  13.778   2.281   2.822
60394SOL    HW183079  13.801   2.293   2.729
60394SOL    HW283080  13.692   2.239   2.820
60395SOL     OW83081   9.991  11.453   7.147
60395SOL    HW183082  10.045  11.374   7.141
60395SOL    HW283083   9.902  11.420   7.165
60396SOL     OW83084   2.769  14.685   5.918
60396SOL    HW183085   2.844  14.740   5.942
60396SOL    HW283086   2.808  14.608   5.876
60397SOL     OW83087  10.830  13.762  12.178
60397SOL    HW183088  10.829  13.818  12.255
60397SOL    HW283089  10.922  13.737  12.167
60398SOL     OW83090   3.676  12.803  11.018
60398SOL    HW183091   3.701  12.793  11.110
60398SOL    HW283092   3.730  12.876  10.987
60399SOL     OW83093   0.521   3.081  11.390
60399SOL    HW183094   0.474   3.126  11.460
60399SOL    HW283095   0.503   2.988  11.404
60400SOL     OW83096   1.754  14.020  11.096
60400SOL    HW183097   1.763  13.975  11.012
60400SOL    HW283098   1.823  14.086  11.095
60401SOL     OW83099  10.668  14.761  14.312
60401SOL    HW183100  10.726  14.835  14.330
60401SOL    HW283101  10.613  14.754  14.390
60402SOL     OW83102  10.045   0.237   4.550
60402SOL    HW183103  10.092   0.286   4.483
60402SOL    HW283104  10.106   0.168   4.577
60403SOL     OW83105  12.002   9.198  11.321
60403SOL    HW183106  12.002   9.246  11.238
60403SOL    HW283107  11.915   9.216  11.359
60404SOL     OW83108   9.385   2.915   0.986
60404SOL    HW183109   9.401   2.821   0.983
60404SOL    HW283110   9.290   2.924   0.987
60405SOL     OW83111   1.886   1.099   9.599
60405SOL    HW183112   1.832   1.113   9.521
60405SOL    HW283113   1.827   1.057   9.662
60406SOL     OW83114   7.182  11.085   1.236
60406SOL    HW183115   7.251  11.145   1.265
60406SOL    HW283116   7.200  11.070   1.144
60407SOL     OW83117  12.123  12.671   5.971
60407SOL    HW183118  12.205  12.709   6.002
60407SOL    HW283119  12.121  12.584   6.012
60408SOL     OW83120   5.834   0.455   0.206
60408SOL    HW183121   5.922   0.480   0.235
60408SOL    HW283122   5.783   0.454   0.287
60409SOL     OW83123   1.459  13.039   9.261
60409SOL    HW183124   1.456  13.007   9.171
60409SOL    HW283125   1.472  12.960   9.314
60410SOL     OW83126   1.043  14.692   1.678
60410SOL    HW183127   0.985  14.758   1.715
60410SOL    HW283128   1.125  14.702   1.726
60411SOL     OW83129   0.677   2.330   5.237
60411SOL    HW183130   0.738   2.402   5.249
60411SOL    HW283131   0.642   2.343   5.149
60412SOL     OW83132   0.482  12.969   0.871
60412SOL    HW183133   0.393  13.001   0.887
60412SOL    HW283134   0.515  12.948   0.958
60413SOL     OW83135   1.893  14.197   3.482
60413SOL    HW183136   1.988  14.188   3.479
60413SOL    HW283137   1.873  14.254   3.407
60414SOL     OW83138  14.602   5.391   9.368
60414SOL    HW183139  14.602   5.479   9.407
60414SOL    HW283140  14.664   5.341   9.421
60415SOL     OW83141   9.852  14.256   0.139
60415SOL    HW183142   9.935  14.284   0.100
60415SOL    HW283143   9.863  14.273   0.233
60416SOL     OW83144  11.768  14.270   4.295
60416SOL    HW183145  11.728  14.357   4.293
60416SOL    HW283146  11.820  14.265   4.214
60417SOL     OW83147   9.373  10.311   0.247
60417SOL    HW183148   9.397  10.242   0.185
60417SOL    HW283149   9.292  10.348   0.212
60418SOL     OW83150   5.692  10.970  14.057
60418SOL    HW183151   5.626  10.914  14.099
60418SOL    HW283152   5.660  11.059  14.072
60419SOL     OW83153  10.585   0.295  14.819
60419SOL    HW183154  10.540   0.224  14.866
60419SOL    HW283155  10.674   0.262  14.804
60420SOL     OW83156   8.445   1.381   1.317
60420SOL    HW183157   8.540   1.373   1.308
60420SOL    HW283158   8.413   1.394   1.228
60421SOL     OW83159   1.681   7.345  13.631
60421SOL    HW183160   1.765   7.312  13.600
60421SOL    HW283161   1.701   7.428  13.673
60422SOL     OW83162   7.463   4.447   1.566
60422SOL    HW183163   7.459   4.468   1.659
60422SOL    HW283164   7.473   4.533   1.523
60423SOL     OW83165   4.585  10.363   7.882
60423SOL    HW183166   4.587  10.294   7.816
60423SOL    HW283167   4.643  10.332   7.951
60424SOL     OW83168   9.220   9.718  11.903
60424SOL    HW183169   9.134   9.731  11.943
60424SOL    HW283170   9.229   9.623  11.895
60425SOL     OW83171  14.758   0.394   8.303
60425SOL    HW183172  14.703   0.389   8.225
60425SOL    HW283173  14.823   0.462   8.284
60426SOL     OW83174  14.213   4.925   2.766
60426SOL    HW183175  14.283   4.864   2.743
60426SOL    HW283176  14.163   4.880   2.834
60427SOL     OW83177  10.447  13.101  13.216
60427SOL    HW183178  10.359  13.073  13.194
60427SOL    HW283179  10.504  13.036  13.174
60428SOL     OW83180   8.994  14.066   1.729
60428SOL    HW183181   9.059  14.113   1.677
60428SOL    HW283182   8.995  13.977   1.695
60429SOL     OW83183  11.057   3.284  12.057
60429SOL    HW183184  11.093   3.250  11.976
60429SOL    HW283185  11.120   3.350  12.086
60430SOL     OW83186   5.367  13.784  13.109
60430SOL    HW183187   5.316  13.810  13.033
60430SOL    HW283188   5.434  13.852  13.118
60431SOL     OW83189   6.951  14.695   3.400
60431SOL    HW183190   7.008  14.772   3.396
60431SOL    HW283191   7.005  14.627   3.439
60432SOL     OW83192   7.675   6.174   2.498
60432SOL    HW183193   7.692   6.239   2.430
60432SOL    HW283194   7.593   6.132   2.471
60433SOL     OW83195   2.098   0.597   7.135
60433SOL    HW183196   2.058   0.550   7.208
60433SOL    HW283197   2.101   0.533   7.063
60434SOL     OW83198   9.805  10.057   7.005
60434SOL    HW183199   9.747  10.132   7.017
60434SOL    HW283200   9.820  10.054   6.911
60435SOL     OW83201   7.440   7.110   2.190
60435SOL    HW183202   7.376   7.081   2.125
60435SOL    HW283203   7.390   7.117   2.271
60436SOL     OW83204  11.966   3.378  12.956
60436SOL    HW183205  12.016   3.376  12.875
60436SOL    HW283206  11.912   3.457  12.949
60437SOL     OW83207  14.461   0.742   1.738
60437SOL    HW183208  14.494   0.728   1.650
60437SOL    HW283209  14.386   0.801   1.727
60438SOL     OW83210   7.811   8.988   6.576
60438SOL    HW183211   7.739   8.925   6.573
60438SOL    HW283212   7.865   8.959   6.650
60439SOL     OW83213   0.650  14.126   4.019
60439SOL    HW183214   0.698  14.109   3.938
60439SOL    HW283215   0.718  14.137   4.086
60440SOL     OW83216   7.134   2.616   7.152
60440SOL    HW183217   7.215   2.647   7.193
60440SOL    HW283218   7.148   2.522   7.141
60441SOL     OW83219  12.943   1.815   3.243
60441SOL    HW183220  12.938   1.766   3.160
60441SOL    HW283221  13.036   1.812   3.266
60442SOL     OW83222  13.653   0.807  14.627
60442SOL    HW183223  13.748   0.816  14.631
60442SOL    HW283224  13.634   0.799  14.533
60443SOL     OW83225   1.619  13.563   1.121
60443SOL    HW183226   1.529  13.535   1.102
60443SOL    HW283227   1.624  13.651   1.084
60444SOL     OW83228   8.410  11.236   8.873
60444SOL    HW183229   8.402  11.277   8.787
60444SOL    HW283230   8.501  11.254   8.900
60445SOL     OW83231   8.228   4.149   2.530
60445SOL    HW183232   8.173   4.175   2.603
60445SOL    HW283233   8.311   4.124   2.571
60446SOL     OW83234   6.514  14.094   9.050
60446SOL    HW183235   6.559  14.065   9.129
60446SOL    HW283236   6.449  14.158   9.081
60447SOL     OW83237  14.194   2.119   8.101
60447SOL    HW183238  14.212   2.142   8.192
60447SOL    HW283239  14.207   2.201   8.053
60448SOL     OW83240   1.820   6.483   7.940
60448SOL    HW183241   1.868   6.411   7.900
60448SOL    HW283242   1.743   6.495   7.884
60449SOL     OW83243  12.554  12.751   6.182
60449SOL    HW183244  12.514  12.710   6.105
60449SOL    HW283245  12.504  12.716   6.256
60450SOL     OW83246  10.337   0.949   4.215
60450SOL    HW183247  10.305   0.874   4.164
60450SOL    HW283248  10.379   0.909   4.292
60451SOL     OW83249  11.388   8.073   4.878
60451SOL    HW183250  11.403   8.152   4.826
60451SOL    HW283251  11.383   8.105   4.968
60452SOL     OW83252   3.970  14.641  13.174
60452SOL    HW183253   3.951  14.733  13.192
60452SOL    HW283254   3.891  14.607  13.133
60453SOL     OW83255   0.493   0.866   7.862
60453SOL    HW183256   0.507   0.959   7.848
60453SOL    HW283257   0.564   0.840   7.921
60454SOL     OW83258  13.655   2.963   2.866
60454SOL    HW183259  13.650   2.972   2.771
60454SOL    HW283260  13.676   3.050   2.898
60455SOL     OW83261   6.096  13.160   2.724
60455SOL    HW183262   6.070  13.204   2.805
60455SOL    HW283263   6.161  13.219   2.685
60456SOL     OW83264  11.218   2.154   9.091
60456SOL    HW183265  11.278   2.227   9.111
60456SOL    HW283266  11.236   2.133   9.000
60457SOL     OW83267  14.155   0.691   0.333
60457SOL    HW183268  14.170   0.750   0.407
60457SOL    HW283269  14.114   0.613   0.372
60458SOL     OW83270   9.954   9.945   4.527
60458SOL    HW183271  10.006  10.019   4.560
60458SOL    HW283272   9.879   9.985   4.483
60459SOL     OW83273   5.812   7.835   8.843
60459SOL    HW183274   5.756   7.842   8.920
60459SOL    HW283275   5.846   7.745   8.847
60460SOL     OW83276   2.595   8.581  10.901
60460SOL    HW183277   2.653   8.569  10.826
60460SOL    HW283278   2.526   8.638  10.868
60461SOL     OW83279   1.379   7.843   8.228
60461SOL    HW183280   1.411   7.806   8.145
60461SOL    HW283281   1.403   7.778   8.294
60462SOL     OW83282   3.318  11.478   5.205
60462SOL    HW183283   3.318  11.473   5.109
60462SOL    HW283284   3.331  11.571   5.224
60463SOL     OW83285  10.230  13.141   4.418
60463SOL    HW183286  10.154  13.177   4.372
60463SOL    HW283287  10.284  13.104   4.348
60464SOL     OW83288   4.096   5.163   6.032
60464SOL    HW183289   4.145   5.167   6.114
60464SOL    HW283290   4.052   5.248   6.027
60465SOL     OW83291   1.968  10.745   7.719
60465SOL    HW183292   1.992  10.726   7.628
60465SOL    HW283293   1.874  10.725   7.723
60466SOL     OW83294  10.921   7.875  12.568
60466SOL    HW183295  10.826   7.859  12.572
60466SOL    HW283296  10.939   7.886  12.475
60467SOL     OW83297   6.060   2.791  10.665
60467SOL    HW183298   6.098   2.812  10.579
60467SOL    HW283299   6.112   2.717  10.696
60468SOL     OW83300   5.426  11.472   2.665
60468SOL    HW183301   5.472  11.427   2.593
60468SOL    HW283302   5.487  11.541   2.691
60469SOL     OW83303   9.508   1.051   0.856
60469SOL    HW183304   9.540   1.116   0.793
60469SOL    HW283305   9.439   1.096   0.905
60470SOL     OW83306   8.313  10.318   4.219
60470SOL    HW183307   8.241  10.256   4.203
60470SOL    HW283308   8.341  10.344   4.131
60471SOL     OW83309   8.161   6.657   8.208
60471SOL    HW183310   8.171   6.752   8.210
60471SOL    HW283311   8.105   6.637   8.284
60472SOL     OW83312  10.533   9.912   1.121
60472SOL    HW183313  10.587   9.951   1.190
60472SOL    HW283314  10.460   9.872   1.166
60473SOL     OW83315  10.809  13.235   3.618
60473SOL    HW183316  10.862  13.247   3.697
60473SOL    HW283317  10.799  13.140   3.610
60474SOL     OW83318  11.628   3.388  13.960
60474SOL    HW183319  11.710   3.429  13.932
60474SOL    HW283320  11.596   3.343  13.883
60475SOL     OW83321  13.421  14.435  11.164
60475SOL    HW183322  13.512  14.406  11.163
60475SOL    HW283323  13.371  14.354  11.179
60476SOL     OW83324   7.401   9.539  13.331
60476SOL    HW183325   7.443   9.456  13.353
60476SOL    HW283326   7.318   9.514  13.290
60477SOL     OW83327   9.300   0.226   5.123
60477SOL    HW183328   9.224   0.168   5.132
60477SOL    HW283329   9.356   0.182   5.059
60478SOL     OW83330   2.459  10.900   4.133
60478SOL    HW183331   2.532  10.924   4.191
60478SOL    HW283332   2.483  10.940   4.049
60479SOL     OW83333  11.879   3.815   4.524
60479SOL    HW183334  11.906   3.797   4.614
60479SOL    HW283335  11.932   3.756   4.470
60480SOL     OW83336  10.660   6.481  12.376
60480SOL    HW183337  10.724   6.463  12.307
60480SOL    HW283338  10.591   6.415  12.361
60481SOL     OW83339   0.943   5.446  13.041
60481SOL    HW183340   1.033   5.452  13.008
60481SOL    HW283341   0.929   5.353  13.056
60482SOL     OW83342   1.136  11.748   0.741
60482SOL    HW183343   1.180  11.764   0.657
60482SOL    HW283344   1.147  11.829   0.789
60483SOL     OW83345   6.303   7.532   4.515
60483SOL    HW183346   6.298   7.512   4.608
60483SOL    HW283347   6.246   7.468   4.473
60484SOL     OW83348   0.872   8.120  14.353
60484SOL    HW183349   0.788   8.157  14.326
60484SOL    HW283350   0.853   8.075  14.436
60485SOL     OW83351   1.861   7.102   9.511
60485SOL    HW183352   1.883   7.138   9.425
60485SOL    HW283353   1.812   7.023   9.492
60486SOL     OW83354   9.568   6.319  14.541
60486SOL    HW183355   9.609   6.404  14.524
60486SOL    HW283356   9.566   6.276  14.456
60487SOL     OW83357   2.731   4.084   6.731
60487SOL    HW183358   2.788   4.035   6.791
60487SOL    HW283359   2.778   4.083   6.648
60488SOL     OW83360   5.205   3.400   9.856
60488SOL    HW183361   5.294   3.366   9.864
60488SOL    HW283362   5.187   3.402   9.762
60489SOL     OW83363   3.923  10.287   1.237
60489SOL    HW183364   3.998  10.335   1.202
60489SOL    HW283365   3.847  10.323   1.190
60490SOL     OW83366   0.160   1.669   3.129
60490SOL    HW183367   0.153   1.727   3.205
60490SOL    HW283368   0.251   1.679   3.100
60491SOL     OW83369  10.440   8.866  12.691
60491SOL    HW183370  10.387   8.920  12.632
60491SOL    HW283371  10.429   8.777  12.659
60492SOL     OW83372   1.020   4.851  13.321
60492SOL    HW183373   1.062   4.777  13.277
60492SOL    HW283374   1.064   4.928  13.285
60493SOL     OW83375   9.024   4.487   5.428
60493SOL    HW183376   9.006   4.520   5.516
60493SOL    HW283377   9.098   4.428   5.439
60494SOL     OW83378   7.442   5.721  11.334
60494SOL    HW183379   7.485   5.664  11.398
60494SOL    HW283380   7.361   5.676  11.312
60495SOL     OW83381   7.254  12.429   6.135
60495SOL    HW183382   7.344  12.401   6.119
60495SOL    HW283383   7.203  12.348   6.137
60496SOL     OW83384   5.564   1.774   9.645
60496SOL    HW183385   5.557   1.837   9.716
60496SOL    HW283386   5.550   1.825   9.565
60497SOL     OW83387  11.755   5.168  12.516
60497SOL    HW183388  11.809   5.152  12.438
60497SOL    HW283389  11.815   5.155  12.589
60498SOL     OW83390   2.230   6.079   6.399
60498SOL    HW183391   2.167   6.149   6.386
60498SOL    HW283392   2.211   6.045   6.487
60499SOL     OW83393  11.479   4.281   8.524
60499SOL    HW183394  11.393   4.240   8.539
60499SOL    HW283395  11.528   4.263   8.604
60500SOL     OW83396   5.191  10.914   5.338
60500SOL    HW183397   5.232  11.001   5.337
60500SOL    HW283398   5.160  10.904   5.428
60501SOL     OW83399  12.546   1.485   7.961
60501SOL    HW183400  12.610   1.533   7.908
60501SOL    HW283401  12.484   1.450   7.897
60502SOL     OW83402   1.413  11.311  13.900
60502SOL    HW183403   1.471  11.244  13.863
60502SOL    HW283404   1.456  11.394  13.880
60503SOL     OW83405   2.246  10.891  14.364
60503SOL    HW183406   2.297  10.811  14.378
60503SOL    HW283407   2.290  10.958  14.417
60504SOL     OW83408   8.199   4.818   4.492
60504SOL    HW183409   8.186   4.910   4.515
60504SOL    HW283410   8.183   4.814   4.398
60505SOL     OW83411   2.602   3.821   4.228
60505SOL    HW183412   2.512   3.852   4.237
60505SOL    HW283413   2.636   3.869   4.153
60506SOL     OW83414   9.913  11.002   3.349
60506SOL    HW183415   9.879  11.085   3.317
60506SOL    HW283416   9.836  10.947   3.363
60507SOL     OW83417   9.841  11.330   1.404
60507SOL    HW183418   9.923  11.296   1.368
60507SOL    HW283419   9.867  11.410   1.451
60508SOL     OW83420  13.046   3.838   0.890
60508SOL    HW183421  12.968   3.885   0.861
60508SOL    HW283422  13.072   3.786   0.814
60509SOL     OW83423   5.562   1.495   2.646
60509SOL    HW183424   5.571   1.418   2.591
60509SOL    HW283425   5.651   1.514   2.676
60510SOL     OW83426   4.657   9.378  13.878
60510SOL    HW183427   4.690   9.429  13.952
60510SOL    HW283428   4.732   9.324  13.851
60511SOL     OW83429  13.183   7.677   7.129
60511SOL    HW183430  13.140   7.608   7.080
60511SOL    HW283431  13.123   7.696   7.202
60512SOL     OW83432  13.742   3.253  13.821
60512SOL    HW183433  13.765   3.258  13.729
60512SOL    HW283434  13.649   3.277  13.824
60513SOL     OW83435  14.333   0.415   7.053
60513SOL    HW183436  14.358   0.374   6.971
60513SOL    HW283437  14.261   0.474   7.030
60514SOL     OW83438   0.752   6.448   8.353
60514SOL    HW183439   0.721   6.480   8.268
60514SOL    HW283440   0.811   6.516   8.384
60515SOL     OW83441   1.431  10.878   7.725
60515SOL    HW183442   1.380  10.819   7.670
60515SOL    HW283443   1.439  10.833   7.809
60516SOL     OW83444   3.613   4.091   4.003
60516SOL    HW183445   3.543   4.039   3.963
60516SOL    HW283446   3.567   4.163   4.046
60517SOL     OW83447   5.006   0.257   5.614
60517SOL    HW183448   5.069   0.186   5.627
60517SOL    HW283449   4.937   0.239   5.677
60518SOL     OW83450  14.245   3.935   4.033
60518SOL    HW183451  14.339   3.928   4.014
60518SOL    HW283452  14.202   3.903   3.954
60519SOL     OW83453   4.680   3.760   4.558
60519SOL    HW183454   4.769   3.733   4.577
60519SOL    HW283455   4.687   3.854   4.538
60520SOL     OW83456   7.013   0.037   6.688
60520SOL    HW183457   7.069   0.066   6.760
60520SOL    HW283458   6.991  14.828   6.710
60521SOL     OW83459   3.228  11.256   6.298
60521SOL    HW183460   3.306  11.223   6.254
60521SOL    HW283461   3.192  11.180   6.344
60522SOL     OW83462   3.858   4.329   5.057
60522SOL    HW183463   3.791   4.397   5.051
60522SOL    HW283464   3.886   4.315   4.966
60523SOL     OW83465   9.571  14.055  11.102
60523SOL    HW183466   9.661  14.023  11.094
60523SOL    HW283467   9.538  14.055  11.012
60524SOL     OW83468   6.080  13.268  13.087
60524SOL    HW183469   6.102  13.179  13.058
60524SOL    HW283470   6.058  13.258  13.180
60525SOL     OW83471  13.630  14.243  11.398
60525SOL    HW183472  13.628  14.325  11.349
60525SOL    HW283473  13.723  14.221  11.405
60526SOL     OW83474   0.145   4.310  14.332
60526SOL    HW183475   0.083   4.383  14.325
60526SOL    HW283476   0.100   4.244  14.384
60527SOL     OW83477   9.327  13.800   6.992
60527SOL    HW183478   9.258  13.855   6.954
60527SOL    HW283479   9.390  13.862   7.027
60528SOL     OW83480   4.592   4.135   0.071
60528SOL    HW183481   4.611   4.204   0.008
60528SOL    HW283482   4.533   4.176   0.134
60529SOL     OW83483   5.238   0.239   4.584
60529SOL    HW183484   5.319   0.193   4.606
60529SOL    HW283485   5.189   0.242   4.666
60530SOL     OW83486  12.846   2.619   3.162
60530SOL    HW183487  12.859   2.646   3.071
60530SOL    HW283488  12.751   2.614   3.172
60531SOL     OW83489   3.236   0.074   9.809
60531SOL    HW183490   3.246  14.869   9.771
60531SOL    HW283491   3.189   0.059   9.892
60532SOL     OW83492  13.617  11.032   0.230
60532SOL    HW183493  13.656  11.069   0.151
60532SOL    HW283494  13.542  10.982   0.200
60533SOL     OW83495   1.759  13.711   4.779
60533SOL    HW183496   1.677  13.665   4.795
60533SOL    HW283497   1.796  13.667   4.702
60534SOL     OW83498  14.291   7.385   2.910
60534SOL    HW183499  14.376   7.384   2.865
60534SOL    HW283500  14.292   7.465   2.962
60535SOL     OW83501   4.821  13.511   2.598
60535SOL    HW183502   4.906  13.473   2.574
60535SOL    HW283503   4.829  13.604   2.576
60536SOL     OW83504   9.725   7.821   3.349
60536SOL    HW183505   9.773   7.739   3.342
60536SOL    HW283506   9.655   7.814   3.285
60537SOL     OW83507  14.223  11.233   1.959
60537SOL    HW183508  14.287  11.171   1.926
60537SOL    HW283509  14.175  11.262   1.881
60538SOL     OW83510  14.457   5.636  12.325
60538SOL    HW183511  14.534   5.600  12.370
60538SOL    HW283512  14.387   5.574  12.345
60539SOL     OW83513   5.977   7.251  14.469
60539SOL    HW183514   5.888   7.281  14.450
60539SOL    HW283515   5.976   7.233  14.563
60540SOL     OW83516  10.435  13.657  13.534
60540SOL    HW183517  10.522  13.657  13.496
60540SOL    HW283518  10.416  13.565  13.552
60541SOL     OW83519   5.661  14.870   0.525
60541SOL    HW183520   5.628   0.042   0.453
60541SOL    HW283521   5.627   0.030   0.604
60542SOL     OW83522  10.647   6.652  14.871
60542SOL    HW183523  10.649   6.703  14.790
60542SOL    HW283524  10.702   6.701   0.050
60543SOL     OW83525  13.807   9.097   8.025
60543SOL    HW183526  13.789   9.069   7.935
60543SOL    HW283527  13.888   9.148   8.018
60544SOL     OW83528  14.122  11.735   2.011
60544SOL    HW183529  14.117  11.639   2.012
60544SOL    HW283530  14.200  11.754   1.958
60545SOL     OW83531   6.394  13.095   9.400
60545SOL    HW183532   6.442  13.097   9.317
60545SOL    HW283533   6.463  13.085   9.467
60546SOL     OW83534  12.664  12.620   6.605
60546SOL    HW183535  12.657  12.553   6.538
60546SOL    HW283536  12.664  12.572   6.688
60547SOL     OW83537   2.188   8.816   7.859
60547SOL    HW183538   2.237   8.805   7.777
60547SOL    HW283539   2.153   8.729   7.878
60548SOL     OW83540  12.779  12.109   0.890
60548SOL    HW183541  12.795  12.068   0.805
60548SOL    HW283542  12.785  12.036   0.952
60549SOL     OW83543   7.200  14.506   9.514
60549SOL    HW183544   7.247  14.441   9.462
60549SOL    HW283545   7.216  14.480   9.605
60550SOL     OW83546  14.411   6.115   9.859
60550SOL    HW183547  14.320   6.129   9.834
60550SOL    HW283548  14.450   6.202   9.859
60551SOL     OW83549   4.394   2.848   3.963
60551SOL    HW183550   4.456   2.888   4.024
60551SOL    HW283551   4.348   2.922   3.923
60552SOL     OW83552   9.129  13.301  12.211
60552SOL    HW183553   9.132  13.340  12.298
60552SOL    HW283554   9.088  13.369  12.156
60553SOL     OW83555  14.745  12.328   5.159
60553SOL    HW183556  14.798  12.277   5.098
60553SOL    HW283557  14.796  12.408   5.173
60554SOL     OW83558  11.955   5.394  14.079
60554SOL    HW183559  11.866   5.429  14.073
60554SOL    HW283560  12.011   5.471  14.065
60555SOL     OW83561   2.198   9.145   9.627
60555SOL    HW183562   2.271   9.083   9.628
60555SOL    HW283563   2.239   9.231   9.629
60556SOL     OW83564  11.788  12.204   1.103
60556SOL    HW183565  11.771  12.207   1.009
60556SOL    HW283566  11.871  12.157   1.111
60557SOL     OW83567  12.300  12.821   3.590
60557SOL    HW183568  12.222  12.836   3.643
60557SOL    HW283569  12.369  12.802   3.654
60558SOL     OW83570   8.156   7.639  12.279
60558SOL    HW183571   8.099   7.680  12.214
60558SOL    HW283572   8.119   7.665  12.363
60559SOL     OW83573   7.683  11.535  13.622
60559SOL    HW183574   7.687  11.488  13.705
60559SOL    HW283575   7.745  11.607  13.632
60560SOL     OW83576  11.828   9.338   2.945
60560SOL    HW183577  11.883   9.264   2.917
60560SOL    HW283578  11.865   9.364   3.030
60561SOL     OW83579   7.427  13.763  12.235
60561SOL    HW183580   7.449  13.734  12.324
60561SOL    HW283581   7.485  13.713  12.178
60562SOL     OW83582   5.703  12.897   4.915
60562SOL    HW183583   5.789  12.858   4.905
60562SOL    HW283584   5.648  12.827   4.950
60563SOL     OW83585   1.119   2.337   9.933
60563SOL    HW183586   1.208   2.368   9.952
60563SOL    HW283587   1.132   2.267   9.869
60564SOL     OW83588   4.590  10.693  13.244
60564SOL    HW183589   4.503  10.692  13.283
60564SOL    HW283590   4.586  10.762  13.178
60565SOL     OW83591   4.119  14.555  13.738
60565SOL    HW183592   4.050  14.598  13.686
60565SOL    HW283593   4.124  14.607  13.818
60566SOL     OW83594  12.346   5.924  13.986
60566SOL    HW183595  12.295   5.890  14.060
60566SOL    HW283596  12.280   5.955  13.924
60567SOL     OW83597  12.626   6.906   6.651
60567SOL    HW183598  12.615   7.001   6.643
60567SOL    HW283599  12.541   6.870   6.625
60568SOL     OW83600  12.139  11.980   7.194
60568SOL    HW183601  12.159  11.947   7.281
60568SOL    HW283602  12.116  11.902   7.143
60569SOL     OW83603   2.356   7.785   3.770
60569SOL    HW183604   2.263   7.794   3.790
60569SOL    HW283605   2.390   7.729   3.840
60570SOL     OW83606   8.155   3.801  10.775
60570SOL    HW183607   8.228   3.765  10.725
60570SOL    HW283608   8.163   3.762  10.862
60571SOL     OW83609  14.086   4.690  13.612
60571SOL    HW183610  14.055   4.621  13.554
60571SOL    HW283611  14.112   4.644  13.692
60572SOL     OW83612   7.116  10.221   1.748
60572SOL    HW183613   7.056  10.161   1.793
60572SOL    HW283614   7.090  10.216   1.656
60573SOL     OW83615  14.278   7.316   7.270
60573SOL    HW183616  14.253   7.306   7.178
60573SOL    HW283617  14.203   7.283   7.318
60574SOL     OW83618   5.637   5.261   7.640
60574SOL    HW183619   5.714   5.221   7.600
60574SOL    HW283620   5.603   5.195   7.699
60575SOL     OW83621   3.877   6.424   8.200
60575SOL    HW183622   3.968   6.422   8.169
60575SOL    HW283623   3.883   6.395   8.291
60576SOL     OW83624  12.322  14.087  13.610
60576SOL    HW183625  12.269  14.009  13.622
60576SOL    HW283626  12.281  14.134  13.538
60577SOL     OW83627   4.024   0.894   8.774
60577SOL    HW183628   4.080   0.817   8.789
60577SOL    HW283629   3.977   0.874   8.693
60578SOL     OW83630  12.272  12.061   5.212
60578SOL    HW183631  12.204  12.108   5.259
60578SOL    HW283632  12.225  12.006   5.150
60579SOL     OW83633   6.314   9.410   9.008
60579SOL    HW183634   6.300   9.504   9.012
60579SOL    HW283635   6.388   9.394   9.066
60580SOL     OW83636   4.518   8.582   1.238
60580SOL    HW183637   4.523   8.610   1.147
60580SOL    HW283638   4.426   8.558   1.250
60581SOL     OW83639   8.937   2.416   6.376
60581SOL    HW183640   8.912   2.415   6.469
60581SOL    HW283641   9.032   2.429   6.377
60582SOL     OW83642  13.748  13.027   7.667
60582SOL    HW183643  13.778  12.936   7.663
60582SOL    HW283644  13.824  13.078   7.641
60583SOL     OW83645  14.330   5.509   4.500
60583SOL    HW183646  14.258   5.558   4.462
60583SOL    HW283647  14.405   5.569   4.496
60584SOL     OW83648  10.793   8.773   0.664
60584SOL    HW183649  10.708   8.817   0.665
60584SOL    HW283650  10.775   8.689   0.621
60585SOL     OW83651   2.182  14.577   0.108
60585SOL    HW183652   2.104  14.526   0.085
60585SOL    HW283653   2.206  14.545   0.195
60586SOL     OW83654   6.727   3.052   8.113
60586SOL    HW183655   6.688   3.104   8.184
60586SOL    HW283656   6.813   3.091   8.099
60587SOL     OW83657   6.063   1.850   5.564
60587SOL    HW183658   6.117   1.895   5.629
60587SOL    HW283659   5.985   1.824   5.611
60588SOL     OW83660   1.790   8.504  12.886
60588SOL    HW183661   1.716   8.561  12.867
60588SOL    HW283662   1.750   8.423  12.919
60589SOL     OW83663  11.600   4.542  11.486
60589SOL    HW183664  11.628   4.602  11.417
60589SOL    HW283665  11.671   4.478  11.494
60590SOL     OW83666   8.074  13.759  12.265
60590SOL    HW183667   8.145  13.823  12.259
60590SOL    HW283668   8.006  13.803  12.316
60591SOL     OW83669   3.703  11.776  13.738
60591SOL    HW183670   3.710  11.814  13.826
60591SOL    HW283671   3.769  11.823  13.687
60592SOL     OW83672   0.299   5.759   4.146
60592SOL    HW183673   0.296   5.667   4.174
60592SOL    HW283674   0.211   5.792   4.165
60593SOL     OW83675   4.526   8.120   2.173
60593SOL    HW183676   4.563   8.032   2.174
60593SOL    HW283677   4.555   8.156   2.089
60594SOL     OW83678   8.427  12.314   4.164
60594SOL    HW183679   8.462  12.267   4.088
60594SOL    HW283680   8.348  12.357   4.131
60595SOL     OW83681   9.357  13.787   0.968
60595SOL    HW183682   9.278  13.756   0.923
60595SOL    HW283683   9.428  13.773   0.905
60596SOL     OW83684   0.725  14.645   3.548
60596SOL    HW183685   0.714  14.707   3.620
60596SOL    HW283686   0.682  14.565   3.578
60597SOL     OW83687   1.403   2.004   5.698
60597SOL    HW183688   1.317   1.993   5.739
60597SOL    HW283689   1.392   1.969   5.609
60598SOL     OW83690   4.315  12.978  13.729
60598SOL    HW183691   4.353  12.890  13.718
60598SOL    HW283692   4.384  13.038  13.701
60599SOL     OW83693   3.166   0.866  12.703
60599SOL    HW183694   3.154   0.898  12.792
60599SOL    HW283695   3.243   0.913  12.670
60600SOL     OW83696  12.633   9.419  10.710
60600SOL    HW183697  12.636   9.474  10.789
60600SOL    HW283698  12.709   9.362  10.718
60601SOL     OW83699  14.027   4.932  10.687
60601SOL    HW183700  13.979   5.004  10.644
60601SOL    HW283701  13.978   4.853  10.662
60602SOL     OW83702   8.413   6.265  12.954
60602SOL    HW183703   8.461   6.186  12.981
60602SOL    HW283704   8.476   6.336  12.966
60603SOL     OW83705   5.889  10.925   8.574
60603SOL    HW183706   5.896  11.000   8.634
60603SOL    HW283707   5.976  10.886   8.575
60604SOL     OW83708   5.956  13.618   0.868
60604SOL    HW183709   5.898  13.614   0.944
60604SOL    HW283710   5.943  13.706   0.832
60605SOL     OW83711   5.074   4.420   1.304
60605SOL    HW183712   5.157   4.372   1.305
60605SOL    HW283713   5.009   4.357   1.333
60606SOL     OW83714   2.033   3.211   7.282
60606SOL    HW183715   2.079   3.295   7.284
60606SOL    HW283716   2.016   3.190   7.374
60607SOL     OW83717   3.949   6.510   1.088
60607SOL    HW183718   3.860   6.541   1.073
60607SOL    HW283719   3.990   6.510   1.001
60608SOL     OW83720   6.270  11.951  10.061
60608SOL    HW183721   6.344  11.939  10.000
60608SOL    HW283722   6.260  11.865  10.102
60609SOL     OW83723   9.383  11.301   8.175
60609SOL    HW183724   9.395  11.394   8.155
60609SOL    HW283725   9.472  11.265   8.178
60610SOL     OW83726  11.104  14.682  14.515
60610SOL    HW183727  11.032  14.631  14.478
60610SOL    HW283728  11.118  14.645  14.602
60611SOL     OW83729  10.409   2.019   1.240
60611SOL    HW183730  10.320   2.053   1.249
60611SOL    HW283731  10.417   1.997   1.147
60612SOL     OW83732  14.371   7.646   0.577
60612SOL    HW183733  14.294   7.692   0.543
60612SOL    HW283734  14.417   7.712   0.629
60613SOL     OW83735  13.508  11.117  10.159
60613SOL    HW183736  13.486  11.059  10.232
60613SOL    HW283737  13.482  11.068  10.081
60614SOL     OW83738   5.273   9.819  12.248
60614SOL    HW183739   5.195   9.874  12.255
60614SOL    HW283740   5.252   9.742  12.301
60615SOL     OW83741   7.370   6.450   4.869
60615SOL    HW183742   7.451   6.414   4.833
60615SOL    HW283743   7.377   6.435   4.963
60616SOL     OW83744   7.025   2.838   3.352
60616SOL    HW183745   7.045   2.916   3.404
60616SOL    HW283746   6.982   2.872   3.274
60617SOL     OW83747   4.197   9.682   4.188
60617SOL    HW183748   4.104   9.700   4.179
60617SOL    HW283749   4.202   9.589   4.212
60618SOL     OW83750  11.509   0.596   5.176
60618SOL    HW183751  11.519   0.502   5.191
60618SOL    HW283752  11.485   0.604   5.084
60619SOL     OW83753  13.090   4.876   0.048
60619SOL    HW183754  13.091   4.784   0.076
60619SOL    HW283755  13.012   4.913   0.089
60620SOL     OW83756   7.925   5.651   7.861
60620SOL    HW183757   7.998   5.700   7.898
60620SOL    HW283758   7.905   5.584   7.926
60621SOL     OW83759   2.370   0.163   1.811
60621SOL    HW183760   2.413   0.248   1.817
60621SOL    HW283761   2.316   0.157   1.890
60622SOL     OW83762   5.682  13.567   2.541
60622SOL    HW183763   5.709  13.511   2.468
60622SOL    HW283764   5.660  13.651   2.501
60623SOL     OW83765   8.838   6.453   5.783
60623SOL    HW183766   8.895   6.488   5.715
60623SOL    HW283767   8.749   6.474   5.753
60624SOL     OW83768  13.596  14.806   0.655
60624SOL    HW183769  13.573  14.755   0.733
60624SOL    HW283770  13.674  14.762   0.620
60625SOL     OW83771   7.147  13.741   7.683
60625SOL    HW183772   7.056  13.725   7.708
60625SOL    HW283773   7.150  13.835   7.665
60626SOL     OW83774   9.674   7.775   4.796
60626SOL    HW183775   9.728   7.699   4.819
60626SOL    HW283776   9.698   7.794   4.706
60627SOL     OW83777   0.405  10.505   5.958
60627SOL    HW183778   0.397  10.565   5.884
60627SOL    HW283779   0.447  10.427   5.922
60628SOL     OW83780   4.054   9.632   3.344
60628SOL    HW183781   4.044   9.552   3.292
60628SOL    HW283782   4.000   9.697   3.298
60629SOL     OW83783   1.718   4.570   5.889
60629SOL    HW183784   1.723   4.606   5.977
60629SOL    HW283785   1.790   4.612   5.841
60630SOL     OW83786   6.997   2.065   9.535
60630SOL    HW183787   6.919   2.100   9.490
60630SOL    HW283788   7.001   1.974   9.508
60631SOL     OW83789   7.587  10.869   2.648
60631SOL    HW183790   7.535  10.904   2.576
60631SOL    HW283791   7.657  10.821   2.605
60632SOL     OW83792  13.941  14.083   3.296
60632SOL    HW183793  13.871  14.148   3.292
60632SOL    HW283794  13.898  14.002   3.324
60633SOL     OW83795  14.157   2.454  10.536
60633SOL    HW183796  14.070   2.414  10.539
60633SOL    HW283797  14.213   2.392  10.583
60634SOL     OW83798  13.429   2.414   3.911
60634SOL    HW183799  13.418   2.475   3.838
60634SOL    HW283800  13.480   2.462   3.976
60635SOL     OW83801   2.147  13.666   3.072
60635SOL    HW183802   2.148  13.573   3.094
60635SOL    HW283803   2.087  13.673   2.997
60636SOL     OW83804   0.039  14.761   3.463
60636SOL    HW183805  14.841  14.796   3.423
60636SOL    HW283806   0.108  14.785   3.403
60637SOL     OW83807   9.995   4.376   5.159
60637SOL    HW183808  10.089   4.369   5.143
60637SOL    HW283809   9.962   4.426   5.085
60638SOL     OW83810   6.667   0.036   5.678
60638SOL    HW183811   6.748   0.018   5.631
60638SOL    HW283812   6.629  14.832   5.694
60639SOL     OW83813  10.201   0.441   7.880
60639SOL    HW183814  10.150   0.366   7.913
60639SOL    HW283815  10.292   0.412   7.884
60640SOL     OW83816   8.489   1.781   7.071
60640SOL    HW183817   8.424   1.850   7.054
60640SOL    HW283818   8.573   1.822   7.050
60641SOL     OW83819  14.740  10.831   3.656
60641SOL    HW183820  14.652  10.853   3.624
60641SOL    HW283821  14.783  10.788   3.582
60642SOL     OW83822   2.886  11.336   3.728
60642SOL    HW183823   2.974  11.347   3.693
60642SOL    HW283824   2.874  11.412   3.785
60643SOL     OW83825  10.264  12.044  11.253
60643SOL    HW183826  10.169  12.029  11.252
60643SOL    HW283827  10.302  11.956  11.254
60644SOL     OW83828   5.082   8.833  12.877
60644SOL    HW183829   5.128   8.763  12.924
60644SOL    HW283830   5.042   8.789  12.801
60645SOL     OW83831   5.840  13.063  11.633
60645SOL    HW183832   5.913  13.003  11.617
60645SOL    HW283833   5.881  13.149  11.636
60646SOL     OW83834  10.530   7.583  11.539
60646SOL    HW183835  10.607   7.538  11.574
60646SOL    HW283836  10.497   7.634  11.612
60647SOL     OW83837   0.383   1.708  14.830
60647SOL    HW183838   0.325   1.634  14.849
60647SOL    HW283839   0.451   1.670  14.774
60648SOL     OW83840  14.194  12.530  14.393
60648SOL    HW183841  14.229  12.492  14.474
60648SOL    HW283842  14.268  12.577  14.355
60649SOL     OW83843   8.266   5.905  10.564
60649SOL    HW183844   8.302   5.816  10.569
60649SOL    HW283845   8.328   5.953  10.510
60650SOL     OW83846   9.272  11.360  14.488
60650SOL    HW183847   9.298  11.427  14.551
60650SOL    HW283848   9.265  11.407  14.405
60651SOL     OW83849   1.871  13.680   6.378
60651SOL    HW183850   1.946  13.652   6.432
60651SOL    HW283851   1.890  13.645   6.291
60652SOL     OW83852   3.744   6.175   7.416
60652SOL    HW183853   3.725   6.179   7.510
60652SOL    HW283854   3.790   6.091   7.405
60653SOL     OW83855  14.625   4.915  13.007
60653SOL    HW183856  14.657   4.918  13.097
60653SOL    HW283857  14.589   4.827  12.998
60654SOL     OW83858   5.152  12.763   7.278
60654SOL    HW183859   5.168  12.696   7.211
60654SOL    HW283860   5.235  12.811   7.284
60655SOL     OW83861   3.828  14.392   0.777
60655SOL    HW183862   3.747  14.342   0.770
60655SOL    HW283863   3.880  14.365   0.702
60656SOL     OW83864   4.783  13.553  13.607
60656SOL    HW183865   4.785  13.479  13.546
60656SOL    HW283866   4.874  13.584  13.609
60657SOL     OW83867   8.718  11.279   4.664
60657SOL    HW183868   8.796  11.265   4.718
60657SOL    HW283869   8.690  11.368   4.686
60658SOL     OW83870   3.593   6.581   7.968
60658SOL    HW183871   3.619   6.670   7.943
60658SOL    HW283872   3.515   6.563   7.915
60659SOL     OW83873   5.224   5.364   2.089
60659SOL    HW183874   5.290   5.425   2.057
60659SOL    HW283875   5.263   5.326   2.168
60660SOL     OW83876  13.293   0.747  12.923
60660SOL    HW183877  13.328   0.703  13.001
60660SOL    HW283878  13.352   0.722  12.853
60661SOL     OW83879  13.249  11.492  10.431
60661SOL    HW183880  13.257  11.475  10.338
60661SOL    HW283881  13.161  11.528  10.442
60662SOL     OW83882   8.509  11.211   7.779
60662SOL    HW183883   8.531  11.209   7.872
60662SOL    HW283884   8.439  11.147   7.770
60663SOL     OW83885   8.242   1.191   4.062
60663SOL    HW183886   8.274   1.136   4.134
60663SOL    HW283887   8.298   1.268   4.064
60664SOL     OW83888   2.191  13.561   7.857
60664SOL    HW183889   2.260  13.525   7.912
60664SOL    HW283890   2.122  13.587   7.918
60665SOL     OW83891   8.197   0.427  12.863
60665SOL    HW183892   8.216   0.434  12.957
60665SOL    HW283893   8.104   0.405  12.859
60666SOL     OW83894   3.556  13.288  13.725
60666SOL    HW183895   3.528  13.377  13.705
60666SOL    HW283896   3.544  13.279  13.820
60667SOL     OW83897   1.334   9.728  11.509
60667SOL    HW183898   1.416   9.769  11.479
60667SOL    HW283899   1.357   9.689  11.593
60668SOL     OW83900   5.002   9.780   9.856
60668SOL    HW183901   5.068   9.839   9.821
60668SOL    HW283902   5.036   9.693   9.840
60669SOL     OW83903   5.426  14.129   0.239
60669SOL    HW183904   5.380  14.047   0.223
60669SOL    HW283905   5.392  14.160   0.323
60670SOL     OW83906  14.315  12.988   0.633
60670SOL    HW183907  14.259  12.912   0.650
60670SOL    HW283908  14.261  13.047   0.582
60671SOL     OW83909  12.487   1.966   0.478
60671SOL    HW183910  12.521   1.881   0.507
60671SOL    HW283911  12.554   2.029   0.505
60672SOL     OW83912  10.451  10.109  14.531
60672SOL    HW183913  10.520  10.157  14.579
60672SOL    HW283914  10.376  10.168  14.532
60673SOL     OW83915  10.135  10.141   4.961
60673SOL    HW183916  10.080  10.065   4.945
60673SOL    HW283917  10.101  10.179   5.043
60674SOL     OW83918  10.539   7.069  10.653
60674SOL    HW183919  10.576   6.996  10.702
60674SOL    HW283920  10.547   7.144  10.711
60675SOL     OW83921   7.573   1.992  10.880
60675SOL    HW183922   7.661   1.977  10.844
60675SOL    HW283923   7.566   1.929  10.952
60676SOL     OW83924  10.508  12.936  14.474
60676SOL    HW183925  10.537  12.924  14.384
60676SOL    HW283926  10.430  12.991  14.468
60677SOL     OW83927   7.588   7.721   8.851
60677SOL    HW183928   7.669   7.746   8.805
60677SOL    HW283929   7.531   7.687   8.782
60678SOL     OW83930   9.362  14.206   9.727
60678SOL    HW183931   9.299  14.272   9.697
60678SOL    HW283932   9.308  14.139   9.769
60679SOL     OW83933   8.006   1.450   4.526
60679SOL    HW183934   7.911   1.437   4.520
60679SOL    HW283935   8.042   1.394   4.457
60680SOL     OW83936   5.314   4.451   8.103
60680SOL    HW183937   5.367   4.430   8.180
60680SOL    HW283938   5.350   4.534   8.071
60681SOL     OW83939   3.761   2.529  10.636
60681SOL    HW183940   3.748   2.582  10.558
60681SOL    HW283941   3.687   2.468  10.636
60682SOL     OW83942  10.509  10.033   5.457
60682SOL    HW183943  10.452   9.967   5.416
60682SOL    HW283944  10.473  10.116   5.428
60683SOL     OW83945   2.639   7.939   5.306
60683SOL    HW183946   2.597   7.987   5.378
60683SOL    HW283947   2.726   7.978   5.299
60684SOL     OW83948   1.330   2.684   4.429
60684SOL    HW183949   1.279   2.618   4.475
60684SOL    HW283950   1.289   2.690   4.343
60685SOL     OW83951  13.280   1.085   2.523
60685SOL    HW183952  13.208   1.109   2.581
60685SOL    HW283953  13.268   1.140   2.445
60686SOL     OW83954   9.609  13.655   3.312
60686SOL    HW183955   9.519  13.638   3.340
60686SOL    HW283956   9.601  13.719   3.242
60687SOL     OW83957   7.377   5.373   9.253
60687SOL    HW183958   7.293   5.331   9.233
60687SOL    HW283959   7.430   5.359   9.175
60688SOL     OW83960  12.030   7.028   3.462
60688SOL    HW183961  12.095   6.960   3.444
60688SOL    HW283962  11.975   7.031   3.383
60689SOL     OW83963  12.099   9.720   2.025
60689SOL    HW183964  12.064   9.781   1.960
60689SOL    HW283965  12.189   9.749   2.040
60690SOL     OW83966   5.723   2.026   4.469
60690SOL    HW183967   5.780   2.098   4.442
60690SOL    HW283968   5.634   2.058   4.453
60691SOL     OW83969  11.266   0.553  14.710
60691SOL    HW183970  11.187   0.598  14.680
60691SOL    HW283971  11.304   0.611  14.776
60692SOL     OW83972  13.972  12.360  13.481
60692SOL    HW183973  14.062  12.355  13.512
60692SOL    HW283974  13.921  12.377  13.561
60693SOL     OW83975  11.346   3.844  11.646
60693SOL    HW183976  11.416   3.784  11.618
60693SOL    HW283977  11.310   3.878  11.564
60694SOL     OW83978  13.756   6.370   1.885
60694SOL    HW183979  13.758   6.454   1.930
60694SOL    HW283980  13.762   6.305   1.954
60695SOL     OW83981   6.564  13.452  10.357
60695SOL    HW183982   6.596  13.437  10.268
60695SOL    HW283983   6.581  13.370  10.403
60696SOL     OW83984  14.772  10.053  13.164
60696SOL    HW183985  14.828  10.131  13.168
60696SOL    HW283986  14.819   9.987  13.215
60697SOL     OW83987   5.682   5.947   8.273
60697SOL    HW183988   5.622   5.883   8.236
60697SOL    HW283989   5.714   5.996   8.197
60698SOL     OW83990   8.631   6.279  11.480
60698SOL    HW183991   8.643   6.374  11.471
60698SOL    HW283992   8.717   6.247  11.509
60699SOL     OW83993  14.789   2.161   2.042
60699SOL    HW183994  14.703   2.164   2.001
60699SOL    HW283995  14.793   2.239   2.097
60700SOL     OW83996   7.246  10.737   7.174
60700SOL    HW183997   7.281  10.801   7.112
60700SOL    HW283998   7.253  10.653   7.128
60701SOL     OW83999   4.479  12.620  12.922
60701SOL    HW184000   4.510  12.694  12.974
60701SOL    HW284001   4.384  12.618  12.935
60702SOL     OW84002   4.394   4.466   4.213
60702SOL    HW184003   4.374   4.501   4.126
60702SOL    HW284004   4.470   4.409   4.199
60703SOL     OW84005   1.038   5.215  10.243
60703SOL    HW184006   0.955   5.179  10.212
60703SOL    HW284007   1.087   5.139  10.275
60704SOL     OW84008   7.220   0.628  11.380
60704SOL    HW184009   7.143   0.646  11.435
60704SOL    HW284010   7.294   0.661  11.431
60705SOL     OW84011  11.064   6.647   7.083
60705SOL    HW184012  11.045   6.565   7.130
60705SOL    HW284013  11.105   6.703   7.149
60706SOL     OW84014  14.840   7.221  11.994
60706SOL    HW184015  14.770   7.191  12.052
60706SOL    HW284016  14.882   7.140  11.964
60707SOL     OW84017   3.405   1.841  13.484
60707SOL    HW184018   3.312   1.817  13.479
60707SOL    HW284019   3.452   1.758  13.474
60708SOL     OW84020   0.779  10.051   2.208
60708SOL    HW184021   0.719   9.978   2.225
60708SOL    HW284022   0.765  10.111   2.280
60709SOL     OW84023   7.593   2.466  12.960
60709SOL    HW184024   7.616   2.524  13.033
60709SOL    HW284025   7.554   2.389  13.002
60710SOL     OW84026  11.235   5.045  11.211
60710SOL    HW184027  11.287   5.125  11.203
60710SOL    HW284028  11.227   5.032  11.305
60711SOL     OW84029   8.381  11.597  12.884
60711SOL    HW184030   8.443  11.637  12.823
60711SOL    HW284031   8.431  11.585  12.965
60712SOL     OW84032  14.258   8.492   3.889
60712SOL    HW184033  14.317   8.420   3.913
60712SOL    HW284034  14.181   8.478   3.943
60713SOL     OW84035   6.337  11.228  11.374
60713SOL    HW184036   6.426  11.203  11.398
60713SOL    HW284037   6.348  11.302  11.315
60714SOL     OW84038  14.008   2.622   1.381
60714SOL    HW184039  13.958   2.693   1.422
60714SOL    HW284040  14.011   2.646   1.288
60715SOL     OW84041   9.897   6.535  13.371
60715SOL    HW184042   9.802   6.528  13.371
60715SOL    HW284043   9.917   6.606  13.431
60716SOL     OW84044   2.930   8.746  12.603
60716SOL    HW184045   3.025   8.752  12.598
60716SOL    HW284046   2.898   8.834  12.587
60717SOL     OW84047   7.188   5.254   9.844
60717SOL    HW184048   7.112   5.273   9.789
60717SOL    HW284049   7.172   5.166   9.878
60718SOL     OW84050  12.955   8.017  13.819
60718SOL    HW184051  12.961   8.042  13.911
60718SOL    HW284052  12.953   7.921  13.820
60719SOL     OW84053   5.473   3.662   1.942
60719SOL    HW184054   5.532   3.652   2.017
60719SOL    HW284055   5.461   3.573   1.909
60720SOL     OW84056   8.553   6.508   3.276
60720SOL    HW184057   8.497   6.522   3.353
60720SOL    HW284058   8.626   6.568   3.289
60721SOL     OW84059  11.718   6.990   9.172
60721SOL    HW184060  11.748   7.053   9.106
60721SOL    HW284061  11.623   6.983   9.157
60722SOL     OW84062  11.344   3.595   3.978
60722SOL    HW184063  11.257   3.623   3.949
60722SOL    HW284064  11.333   3.578   4.072
60723SOL     OW84065   4.284   9.955   1.620
60723SOL    HW184066   4.231   9.976   1.543
60723SOL    HW284067   4.239   9.998   1.693
60724SOL     OW84068   7.129  12.689   9.710
60724SOL    HW184069   7.142  12.617   9.771
60724SOL    HW284070   7.057  12.661   9.654
60725SOL     OW84071   3.128  10.621  14.626
60725SOL    HW184072   3.132  10.557  14.554
60725SOL    HW284073   3.216  10.658  14.629
60726SOL     OW84074   0.129  14.017   3.030
60726SOL    HW184075   0.140  13.997   3.123
60726SOL    HW284076   0.217  14.030   2.996
60727SOL     OW84077  14.249   0.311   2.277
60727SOL    HW184078  14.337   0.305   2.315
60727SOL    HW284079  14.200   0.241   2.320
60728SOL     OW84080   8.249   3.482   0.845
60728SOL    HW184081   8.242   3.543   0.918
60728SOL    HW284082   8.334   3.440   0.857
60729SOL     OW84083  14.159   0.599   8.330
60729SOL    HW184084  14.064   0.595   8.340
60729SOL    HW284085  14.173   0.596   8.235
60730SOL     OW84086   3.628   6.749  14.489
60730SOL    HW184087   3.607   6.668  14.441
60730SOL    HW284088   3.623   6.725  14.581
60731SOL     OW84089   9.032   1.318  12.881
60731SOL    HW184090   9.077   1.271  12.952
60731SOL    HW284091   9.027   1.409  12.912
60732SOL     OW84092   7.443   6.104  12.729
60732SOL    HW184093   7.362   6.153  12.711
60732SOL    HW284094   7.432   6.022  12.681
60733SOL     OW84095  13.008   1.930   4.268
60733SOL    HW184096  13.043   2.018   4.284
60733SOL    HW284097  12.930   1.925   4.323
60734SOL     OW84098   7.553  12.290   4.346
60734SOL    HW184099   7.496  12.271   4.421
60734SOL    HW284100   7.642  12.283   4.381
60735SOL     OW84101   5.711   3.727  11.414
60735SOL    HW184102   5.701   3.701  11.505
60735SOL    HW284103   5.706   3.823  11.415
60736SOL     OW84104   0.500  13.070  14.762
60736SOL    HW184105   0.577  13.030  14.803
60736SOL    HW284106   0.449  12.997  14.729
60737SOL     OW84107   8.066   4.056   6.822
60737SOL    HW184108   8.085   3.963   6.810
60737SOL    HW284109   7.985   4.058   6.872
60738SOL     OW84110   9.124  10.299   3.996
60738SOL    HW184111   9.213  10.321   3.967
60738SOL    HW284112   9.120  10.331   4.086
60739SOL     OW84113  11.870   7.299   9.269
60739SOL    HW184114  11.854   7.376   9.324
60739SOL    HW284115  11.803   7.236   9.296
60740SOL     OW84116  12.716   4.697  12.808
60740SOL    HW184117  12.746   4.737  12.726
60740SOL    HW284118  12.625   4.673  12.791
60741SOL     OW84119  13.954   6.932  10.505
60741SOL    HW184120  13.916   6.844  10.498
60741SOL    HW284121  13.886   6.990  10.471
60742SOL     OW84122   0.983   8.809   7.921
60742SOL    HW184123   0.953   8.893   7.886
60742SOL    HW284124   1.068   8.795   7.879
60743SOL     OW84125  11.112  14.173   1.582
60743SOL    HW184126  11.035  14.192   1.635
60743SOL    HW284127  11.186  14.190   1.641
60744SOL     OW84128   0.873   1.153   0.671
60744SOL    HW184129   0.886   1.147   0.766
60744SOL    HW284130   0.933   1.222   0.643
60745SOL     OW84131   2.333   5.490   1.036
60745SOL    HW184132   2.364   5.562   1.091
60745SOL    HW284133   2.356   5.411   1.085
60746SOL     OW84134   4.106   8.641  10.320
60746SOL    HW184135   4.048   8.715  10.338
60746SOL    HW284136   4.188   8.682  10.290
60747SOL     OW84137  11.569   1.905   1.134
60747SOL    HW184138  11.510   1.892   1.060
60747SOL    HW284139  11.511   1.925   1.208
60748SOL     OW84140  11.145  10.183  14.597
60748SOL    HW184141  11.218  10.167  14.538
60748SOL    HW284142  11.070  10.141  14.555
60749SOL     OW84143   6.297  11.173   1.750
60749SOL    HW184144   6.218  11.119   1.752
60749SOL    HW284145   6.264  11.263   1.749
60750SOL     OW84146  12.645  12.679   3.133
60750SOL    HW184147  12.628  12.685   3.227
60750SOL    HW284148  12.716  12.615   3.126
60751SOL     OW84149   6.190   4.233   2.469
60751SOL    HW184150   6.121   4.288   2.432
60751SOL    HW284151   6.262   4.240   2.407
60752SOL     OW84152   8.184   0.744   7.355
60752SOL    HW184153   8.253   0.776   7.297
60752SOL    HW284154   8.163   0.819   7.411
60753SOL     OW84155  14.809   1.865   5.744
60753SOL    HW184156  14.772   1.813   5.815
60753SOL    HW284157  14.839   1.945   5.787
60754SOL     OW84158  11.254   2.876   0.668
60754SOL    HW184159  11.265   2.786   0.638
60754SOL    HW284160  11.330   2.923   0.634
60755SOL     OW84161   7.013   4.097   7.419
60755SOL    HW184162   6.952   4.039   7.374
60755SOL    HW284163   6.968   4.123   7.499
60756SOL     OW84164   0.243   6.671   1.021
60756SOL    HW184165   0.152   6.698   1.033
60756SOL    HW284166   0.288   6.704   1.099
60757SOL     OW84167   1.765   1.484   1.187
60757SOL    HW184168   1.720   1.517   1.264
60757SOL    HW284169   1.856   1.514   1.198
60758SOL     OW84170  13.147   9.156   1.949
60758SOL    HW184171  13.177   9.152   2.040
60758SOL    HW284172  13.183   9.077   1.909
60759SOL     OW84173  11.683  13.753   9.139
60759SOL    HW184174  11.639  13.808   9.074
60759SOL    HW284175  11.656  13.790   9.223
60760SOL     OW84176  12.962   0.057   9.043
60760SOL    HW184177  12.907   0.039   8.966
60760SOL    HW284178  12.929   0.140   9.077
60761SOL     OW84179   7.555  10.810  11.632
60761SOL    HW184180   7.624  10.861  11.674
60761SOL    HW284181   7.560  10.833  11.540
60762SOL     OW84182   0.239   6.017  11.768
60762SOL    HW184183   0.274   6.018  11.858
60762SOL    HW284184   0.152   5.978  11.777
60763SOL     OW84185   9.966  14.305  13.693
60763SOL    HW184186   9.903  14.288  13.623
60763SOL    HW284187  10.044  14.338  13.649
60764SOL     OW84188  10.910   5.943   1.655
60764SOL    HW184189  10.910   5.959   1.750
60764SOL    HW284190  10.831   5.893   1.639
60765SOL     OW84191  14.389   4.110  12.553
60765SOL    HW184192  14.344   4.123  12.469
60765SOL    HW284193  14.481   4.125  12.533
60766SOL     OW84194   7.157   6.079   2.454
60766SOL    HW184195   7.239   6.039   2.425
60766SOL    HW284196   7.090   6.036   2.400
60767SOL     OW84197   7.475   3.742   4.348
60767SOL    HW184198   7.468   3.695   4.431
60767SOL    HW284199   7.565   3.729   4.320
60768SOL     OW84200   0.381   8.307  14.705
60768SOL    HW184201   0.331   8.228  14.690
60768SOL    HW284202   0.316   8.377  14.709
60769SOL     OW84203   1.198   1.340   1.243
60769SOL    HW184204   1.275   1.385   1.276
60769SOL    HW284205   1.142   1.409   1.209
60770SOL     OW84206   0.497   5.212  11.049
60770SOL    HW184207   0.462   5.299  11.065
60770SOL    HW284208   0.445   5.155  11.106
60771SOL     OW84209  13.777   3.466  10.664
60771SOL    HW184210  13.781   3.416  10.582
60771SOL    HW284211  13.867   3.463  10.698
60772SOL     OW84212   5.906  13.104   6.631
60772SOL    HW184213   5.924  13.070   6.719
60772SOL    HW284214   5.843  13.174   6.645
60773SOL     OW84215   3.758   5.301   1.308
60773SOL    HW184216   3.676   5.320   1.354
60773SOL    HW284217   3.776   5.209   1.330
60774SOL     OW84218   7.076   7.709   7.989
60774SOL    HW184219   7.124   7.744   7.914
60774SOL    HW284220   7.029   7.785   8.024
60775SOL     OW84221   6.004   2.361  13.820
60775SOL    HW184222   5.929   2.302  13.816
60775SOL    HW284223   5.980   2.435  13.764
60776SOL     OW84224   8.369   0.766   2.714
60776SOL    HW184225   8.375   0.778   2.619
60776SOL    HW284226   8.276   0.775   2.734
60777SOL     OW84227  14.393   7.626   8.746
60777SOL    HW184228  14.386   7.531   8.740
60777SOL    HW284229  14.302   7.657   8.743
60778SOL     OW84230  11.506   3.165   9.433
60778SOL    HW184231  11.558   3.110   9.491
60778SOL    HW284232  11.546   3.252   9.440
60779SOL     OW84233   2.751   7.290   8.294
60779SOL    HW184234   2.824   7.239   8.330
60779SOL    HW284235   2.791   7.347   8.229
60780SOL     OW84236   8.810   2.702   0.483
60780SOL    HW184237   8.883   2.639   0.484
60780SOL    HW284238   8.853   2.788   0.478
60781SOL     OW84239  11.967  13.745  14.429
60781SOL    HW184240  12.027  13.707  14.493
60781SOL    HW284241  12.005  13.831  14.408
60782SOL     OW84242  14.559   1.360   2.659
60782SOL    HW184243  14.593   1.273   2.680
60782SOL    HW284244  14.524   1.393   2.742
60783SOL     OW84245   1.038  12.891  13.129
60783SOL    HW184246   1.024  12.973  13.176
60783SOL    HW284247   1.108  12.911  13.067
60784SOL     OW84248  13.150  11.504   7.096
60784SOL    HW184249  13.085  11.574   7.089
60784SOL    HW284250  13.098  11.425   7.111
60785SOL     OW84251  12.323  11.526   1.336
60785SOL    HW184252  12.287  11.499   1.252
60785SOL    HW284253  12.260  11.590   1.369
60786SOL     OW84254   0.118  10.824   4.021
60786SOL    HW184255   0.125  10.918   4.040
60786SOL    HW284256   0.024  10.809   4.010
60787SOL     OW84257   0.855   3.737   7.428
60787SOL    HW184258   0.764   3.757   7.448
60787SOL    HW284259   0.901   3.751   7.511
60788SOL     OW84260  11.208  14.332   0.744
60788SOL    HW184261  11.117  14.343   0.718
60788SOL    HW284262  11.209  14.251   0.795
60789SOL     OW84263   3.069   9.529   2.842
60789SOL    HW184264   3.068   9.495   2.931
60789SOL    HW284265   3.111   9.460   2.790
60790SOL     OW84266   7.450   9.135  12.612
60790SOL    HW184267   7.502   9.068  12.657
60790SOL    HW284268   7.482   9.132  12.521
60791SOL     OW84269   9.202   1.803   9.197
60791SOL    HW184270   9.287   1.832   9.231
60791SOL    HW284271   9.173   1.736   9.260
60792SOL     OW84272   0.428   5.154   1.549
60792SOL    HW184273   0.454   5.121   1.463
60792SOL    HW284274   0.410   5.247   1.535
60793SOL     OW84275   0.704  13.999   8.403
60793SOL    HW184276   0.618  14.016   8.364
60793SOL    HW284277   0.704  14.049   8.484
60794SOL     OW84278   7.010  14.282   3.554
60794SOL    HW184279   6.945  14.332   3.603
60794SOL    HW284280   7.048  14.344   3.493
60795SOL     OW84281   5.208  14.676   7.622
60795SOL    HW184282   5.185  14.715   7.537
60795SOL    HW284283   5.253  14.747   7.669
60796SOL     OW84284   0.130   9.432  12.949
60796SOL    HW184285   0.114   9.485  12.871
60796SOL    HW284286   0.120   9.341  12.918
60797SOL     OW84287   4.941   0.421   6.916
60797SOL    HW184288   4.993   0.349   6.950
60797SOL    HW284289   5.004   0.490   6.896
60798SOL     OW84290  14.737  12.555   6.327
60798SOL    HW184291  14.820  12.508   6.318
60798SOL    HW284292  14.685  12.499   6.385
60799SOL     OW84293   0.382  13.041  12.776
60799SOL    HW184294   0.375  13.127  12.818
60799SOL    HW284295   0.385  13.059  12.683
60800SOL     OW84296   3.208   5.135   3.748
60800SOL    HW184297   3.261   5.090   3.682
60800SOL    HW284298   3.215   5.228   3.724
60801SOL     OW84299   4.073   9.421   1.379
60801SOL    HW184300   4.038   9.336   1.404
60801SOL    HW284301   3.996   9.472   1.353
60802SOL     OW84302  11.364   1.057   6.322
60802SOL    HW184303  11.422   1.130   6.343
60802SOL    HW284304  11.405   1.015   6.247
60803SOL     OW84305  14.506   9.658  10.027
60803SOL    HW184306  14.470   9.746  10.032
60803SOL    HW284307  14.571   9.662   9.957
60804SOL     OW84308   4.639   5.983  10.205
60804SOL    HW184309   4.551   6.020  10.207
60804SOL    HW284310   4.626   5.893  10.175
60805SOL     OW84311  13.259  13.846   1.682
60805SOL    HW184312  13.350  13.821   1.702
60805SOL    HW284313  13.209  13.766   1.696
60806SOL     OW84314   1.012   6.286   4.866
60806SOL    HW184315   0.945   6.218   4.870
60806SOL    HW284316   1.090   6.241   4.833
60807SOL     OW84317   7.056  11.998  12.961
60807SOL    HW184318   6.990  12.052  13.004
60807SOL    HW284319   7.115  11.971  13.031
60808SOL     OW84320   6.894   6.149   0.091
60808SOL    HW184321   6.852   6.234   0.103
60808SOL    HW284322   6.927   6.125   0.177
60809SOL     OW84323  11.942   1.386   8.815
60809SOL    HW184324  11.933   1.371   8.721
60809SOL    HW284325  11.979   1.474   8.821
60810SOL     OW84326   2.206  10.888   1.114
60810SOL    HW184327   2.124  10.846   1.087
60810SOL    HW284328   2.187  10.982   1.108
60811SOL     OW84329   4.407   5.419   7.449
60811SOL    HW184330   4.478   5.459   7.399
60811SOL    HW284331   4.390   5.336   7.405
60812SOL     OW84332   8.485   5.959  12.207
60812SOL    HW184333   8.534   5.937  12.286
60812SOL    HW284334   8.398   5.984  12.239
60813SOL     OW84335  14.232   7.265  11.083
60813SOL    HW184336  14.191   7.227  11.006
60813SOL    HW284337  14.194   7.353  11.089
60814SOL     OW84338   0.302   7.030   6.525
60814SOL    HW184339   0.263   7.059   6.608
60814SOL    HW284340   0.293   7.106   6.467
60815SOL     OW84341   3.106  13.333   4.207
60815SOL    HW184342   3.035  13.286   4.164
60815SOL    HW284343   3.172  13.266   4.224
60816SOL     OW84344   7.228   2.211   8.846
60816SOL    HW184345   7.194   2.273   8.781
60816SOL    HW284346   7.176   2.132   8.834
60817SOL     OW84347   6.737   4.449  10.207
60817SOL    HW184348   6.820   4.405  10.188
60817SOL    HW284349   6.694   4.455  10.122
60818SOL     OW84350   8.040  12.804  10.503
60818SOL    HW184351   7.986  12.726  10.491
60818SOL    HW284352   8.099  12.783  10.575
60819SOL     OW84353  13.509  10.452   2.851
60819SOL    HW184354  13.521  10.467   2.945
60819SOL    HW284355  13.483  10.538   2.816
60820SOL     OW84356  10.124   4.498   0.040
60820SOL    HW184357  10.091   4.482  14.834
60820SOL    HW284358  10.176   4.578   0.032
60821SOL     OW84359  10.488   8.929   9.095
60821SOL    HW184360  10.578   8.945   9.068
60821SOL    HW284361  10.455   8.863   9.034
60822SOL     OW84362   1.283  13.983   9.192
60822SOL    HW184363   1.267  13.891   9.169
60822SOL    HW284364   1.201  14.013   9.231
60823SOL     OW84365  12.209   4.265   8.272
60823SOL    HW184366  12.124   4.299   8.299
60823SOL    HW284367  12.188   4.182   8.228
60824SOL     OW84368   1.241  11.337   5.867
60824SOL    HW184369   1.295  11.341   5.788
60824SOL    HW284370   1.223  11.429   5.888
60825SOL     OW84371   1.854   1.097   9.150
60825SOL    HW184372   1.904   1.137   9.079
60825SOL    HW284373   1.919   1.080   9.218
60826SOL     OW84374   6.163   8.189  10.563
60826SOL    HW184375   6.078   8.218  10.529
60826SOL    HW284376   6.219   8.184  10.486
60827SOL     OW84377   7.128   4.812  13.431
60827SOL    HW184378   7.088   4.725  13.422
60827SOL    HW284379   7.217   4.795  13.461
60828SOL     OW84380   5.360   1.768   7.641
60828SOL    HW184381   5.296   1.714   7.688
60828SOL    HW284382   5.444   1.727   7.660
60829SOL     OW84383   1.703  10.470  14.674
60829SOL    HW184384   1.657  10.425  14.603
60829SOL    HW284385   1.772  10.409  14.700
60830SOL     OW84386   8.074   6.902  12.463
60830SOL    HW184387   8.045   6.837  12.400
60830SOL    HW284388   7.997   6.916  12.519
60831SOL     OW84389  11.106   1.766   7.919
60831SOL    HW184390  11.169   1.798   7.854
60831SOL    HW284391  11.094   1.674   7.898
60832SOL     OW84392   8.657  12.508   5.630
60832SOL    HW184393   8.741  12.505   5.675
60832SOL    HW284394   8.595  12.538   5.697
60833SOL     OW84395   7.468   9.794   2.877
60833SOL    HW184396   7.512   9.832   2.953
60833SOL    HW284397   7.375   9.808   2.893
60834SOL     OW84398  13.912   8.727   7.550
60834SOL    HW184399  13.902   8.678   7.632
60834SOL    HW284400  13.861   8.678   7.486
60835SOL     OW84401  10.087   7.575   8.985
60835SOL    HW184402  10.073   7.571   8.890
60835SOL    HW284403  10.060   7.664   9.009
60836SOL     OW84404  12.208  13.170   8.047
60836SOL    HW184405  12.137  13.122   8.005
60836SOL    HW284406  12.237  13.113   8.118
60837SOL     OW84407   9.801  10.693   2.445
60837SOL    HW184408   9.799  10.669   2.538
60837SOL    HW284409   9.711  10.722   2.427
60838SOL     OW84410   9.868   4.109  13.441
60838SOL    HW184411   9.925   4.091  13.516
60838SOL    HW284412   9.837   4.023  13.414
60839SOL     OW84413   4.376   4.918   5.468
60839SOL    HW184414   4.380   4.843   5.409
60839SOL    HW284415   4.466   4.929   5.499
60840SOL     OW84416   0.659   4.505   4.584
60840SOL    HW184417   0.671   4.598   4.601
60840SOL    HW284418   0.654   4.465   4.671
60841SOL     OW84419   5.220   6.577   1.860
60841SOL    HW184420   5.133   6.598   1.895
60841SOL    HW284421   5.206   6.495   1.811
60842SOL     OW84422  14.592   8.734   3.417
60842SOL    HW184423  14.649   8.684   3.359
60842SOL    HW284424  14.653   8.784   3.472
60843SOL     OW84425   9.933  12.762  12.916
60843SOL    HW184426   9.916  12.671  12.892
60843SOL    HW284427   9.848  12.796  12.944
60844SOL     OW84428   4.397  10.351  14.189
60844SOL    HW184429   4.463  10.365  14.256
60844SOL    HW284430   4.446  10.316  14.114
60845SOL     OW84431   1.480   9.143  12.676
60845SOL    HW184432   1.543   9.201  12.635
60845SOL    HW284433   1.467   9.179  12.763
60846SOL     OW84434  10.474   3.383  14.467
60846SOL    HW184435  10.533   3.313  14.440
60846SOL    HW284436  10.420   3.401  14.390
60847SOL     OW84437   1.463   8.724   8.393
60847SOL    HW184438   1.518   8.788   8.437
60847SOL    HW284439   1.467   8.748   8.300
60848SOL     OW84440   6.150   1.073  13.957
60848SOL    HW184441   6.142   1.064  13.862
60848SOL    HW284442   6.095   1.003  13.993
60849SOL     OW84443   6.335   9.512   9.578
60849SOL    HW184444   6.389   9.455   9.523
60849SOL    HW284445   6.387   9.526   9.657
60850SOL     OW84446   7.183   0.311  14.095
60850SOL    HW184447   7.114   0.357  14.048
60850SOL    HW284448   7.137   0.238  14.139
60851SOL     OW84449   4.018   3.198   1.899
60851SOL    HW184450   4.074   3.150   1.838
60851SOL    HW284451   3.977   3.266   1.846
60852SOL     OW84452   1.890   7.299   0.666
60852SOL    HW184453   1.865   7.207   0.675
60852SOL    HW284454   1.889   7.333   0.756
60853SOL     OW84455   5.536   5.655  13.255
60853SOL    HW184456   5.469   5.620  13.314
60853SOL    HW284457   5.506   5.744  13.236
60854SOL     OW84458  11.526   6.407   5.751
60854SOL    HW184459  11.608   6.372   5.784
60854SOL    HW284460  11.534   6.502   5.763
60855SOL     OW84461   1.096   7.874   8.230
60855SOL    HW184462   1.168   7.811   8.233
60855SOL    HW284463   1.035   7.844   8.299
60856SOL     OW84464  13.372   8.577   2.427
60856SOL    HW184465  13.422   8.610   2.502
60856SOL    HW284466  13.281   8.582   2.455
60857SOL     OW84467  14.547   8.654  13.521
60857SOL    HW184468  14.584   8.642  13.433
60857SOL    HW284469  14.622   8.676  13.576
60858SOL     OW84470  13.498  13.064   0.938
60858SOL    HW184471  13.448  13.112   0.872
60858SOL    HW284472  13.535  13.133   0.995
60859SOL     OW84473  10.565   6.083  12.420
60859SOL    HW184474  10.556   6.166  12.374
60859SOL    HW284475  10.518   6.096  12.503
60860SOL     OW84476  12.715   0.201   0.731
60860SOL    HW184477  12.745   0.146   0.803
60860SOL    HW284478  12.749   0.159   0.652
60861SOL     OW84479  11.739  12.081   7.487
60861SOL    HW184480  11.820  12.043   7.520
60861SOL    HW284481  11.697  12.011   7.437
60862SOL     OW84482  13.265  14.519   2.507
60862SOL    HW184483  13.188  14.489   2.458
60862SOL    HW284484  13.316  14.439   2.521
60863SOL     OW84485   1.246   5.006  10.003
60863SOL    HW184486   1.194   5.031   9.927
60863SOL    HW284487   1.203   4.927  10.037
60864SOL     OW84488   0.061   2.185   9.818
60864SOL    HW184489   0.133   2.245   9.798
60864SOL    HW284490   0.057   2.126   9.743
60865SOL     OW84491   7.747   0.772   1.004
60865SOL    HW184492   7.813   0.832   0.971
60865SOL    HW284493   7.753   0.778   1.099
60866SOL     OW84494   7.687   4.587   1.903
60866SOL    HW184495   7.676   4.656   1.838
60866SOL    HW284496   7.774   4.550   1.884
60867SOL     OW84497  10.014  13.717   0.768
60867SOL    HW184498  10.035  13.691   0.678
60867SOL    HW284499  10.095  13.755   0.802
60868SOL     OW84500   0.539   6.338  12.913
60868SOL    HW184501   0.465   6.398  12.899
60868SOL    HW284502   0.505   6.252  12.889
60869SOL     OW84503   7.749  10.265  10.816
60869SOL    HW184504   7.707  10.215  10.746
60869SOL    HW284505   7.817  10.206  10.850
60870SOL     OW84506   6.120   4.400   7.681
60870SOL    HW184507   6.028   4.403   7.654
60870SOL    HW284508   6.163   4.466   7.626
60871SOL     OW84509   8.398   0.821   4.753
60871SOL    HW184510   8.449   0.768   4.815
60871SOL    HW284511   8.339   0.758   4.711
60872SOL     OW84512  13.753   6.256  13.164
60872SOL    HW184513  13.733   6.279  13.074
60872SOL    HW284514  13.676   6.209  13.195
60873SOL     OW84515   5.663   2.884   2.037
60873SOL    HW184516   5.623   2.945   2.098
60873SOL    HW284517   5.741   2.930   2.004
60874SOL     OW84518   2.033  13.410  14.032
60874SOL    HW184519   2.041  13.316  14.021
60874SOL    HW284520   1.951  13.433  13.987
60875SOL     OW84521  13.496   1.602  13.253
60875SOL    HW184522  13.456   1.620  13.338
60875SOL    HW284523  13.504   1.507  13.249
60876SOL     OW84524   4.332  14.455   9.583
60876SOL    HW184525   4.342  14.374   9.633
60876SOL    HW284526   4.242  14.453   9.551
60877SOL     OW84527  14.133  11.766   0.154
60877SOL    HW184528  14.180  11.809   0.083
60877SOL    HW284529  14.175  11.798   0.234
60878SOL     OW84530  10.009   3.741   1.566
60878SOL    HW184531  10.079   3.692   1.610
60878SOL    HW284532   9.946   3.762   1.635
60879SOL     OW84533   0.906  10.467  13.431
60879SOL    HW184534   0.993  10.438  13.402
60879SOL    HW284535   0.886  10.409  13.505
60880SOL     OW84536   4.312   5.690   4.960
60880SOL    HW184537   4.345   5.642   5.036
60880SOL    HW284538   4.225   5.653   4.944
60881SOL     OW84539   8.952   0.151  11.949
60881SOL    HW184540   9.011   0.194  11.887
60881SOL    HW284541   8.869   0.196  11.938
60882SOL     OW84542  11.415   1.541   1.934
60882SOL    HW184543  11.480   1.542   2.005
60882SOL    HW284544  11.464   1.513   1.857
60883SOL     OW84545   9.291   2.000   0.739
60883SOL    HW184546   9.232   2.055   0.688
60883SOL    HW284547   9.280   2.031   0.829
60884SOL     OW84548   7.060  14.549   9.135
60884SOL    HW184549   7.080  14.643   9.140
60884SOL    HW284550   6.965  14.544   9.136
60885SOL     OW84551   1.608   7.989   6.393
60885SOL    HW184552   1.527   8.009   6.348
60885SOL    HW284553   1.631   7.901   6.364
60886SOL     OW84554  14.805  14.110   8.721
60886SOL    HW184555  14.833  14.168   8.650
60886SOL    HW284556  14.826  14.022   8.690
60887SOL     OW84557  11.942  14.170   9.491
60887SOL    HW184558  11.952  14.224   9.569
60887SOL    HW284559  11.896  14.091   9.522
60888SOL     OW84560   8.824   1.677   5.099
60888SOL    HW184561   8.884   1.672   5.024
60888SOL    HW284562   8.848   1.602   5.154
60889SOL     OW84563  13.869   7.257  10.261
60889SOL    HW184564  13.825   7.199  10.323
60889SOL    HW284565  13.845   7.345  10.288
60890SOL     OW84566   6.403   3.778   5.376
60890SOL    HW184567   6.433   3.865   5.351
60890SOL    HW284568   6.321   3.794   5.423
60891SOL     OW84569   1.311  10.650   9.186
60891SOL    HW184570   1.324  10.610   9.100
60891SOL    HW284571   1.314  10.576   9.247
60892SOL     OW84572   2.998   5.033  11.433
60892SOL    HW184573   2.983   4.940  11.414
60892SOL    HW284574   2.980   5.077  11.349
60893SOL     OW84575   8.052   0.810   1.009
60893SOL    HW184576   8.030   0.877   1.074
60893SOL    HW284577   8.050   0.728   1.057
60894SOL     OW84578   4.674   7.362  13.686
60894SOL    HW184579   4.756   7.364  13.637
60894SOL    HW284580   4.634   7.279  13.661
60895SOL     OW84581   9.069   7.927   0.830
60895SOL    HW184582   9.156   7.895   0.852
60895SOL    HW284583   9.009   7.867   0.874
60896SOL     OW84584  10.924   0.057  12.942
60896SOL    HW184585  10.917  14.864  12.884
60896SOL    HW284586  10.860   0.120  12.907
60897SOL     OW84587   5.164   2.693   1.474
60897SOL    HW184588   5.220   2.651   1.540
60897SOL    HW284589   5.186   2.786   1.479
60898SOL     OW84590   8.632  11.606  14.292
60898SOL    HW184591   8.558  11.617  14.232
60898SOL    HW284592   8.709  11.629  14.239
60899SOL     OW84593  13.533  10.223   3.974
60899SOL    HW184594  13.559  10.148   3.921
60899SOL    HW284595  13.439  10.232   3.959
60900SOL     OW84596   2.826   7.720   5.828
60900SOL    HW184597   2.864   7.726   5.916
60900SOL    HW284598   2.791   7.631   5.824
60901SOL     OW84599   2.537   1.868   3.049
60901SOL    HW184600   2.503   1.786   3.012
60901SOL    HW284601   2.460   1.923   3.061
60902SOL     OW84602   7.752  14.235   3.517
60902SOL    HW184603   7.808  14.279   3.581
60902SOL    HW284604   7.678  14.294   3.506
60903SOL     OW84605  12.309   1.669   7.571
60903SOL    HW184606  12.398   1.688   7.541
60903SOL    HW284607  12.318   1.589   7.624
60904SOL     OW84608   5.451  11.564   1.482
60904SOL    HW184609   5.430  11.645   1.530
60904SOL    HW284610   5.412  11.495   1.534
60905SOL     OW84611   1.328  14.461   7.775
60905SOL    HW184612   1.364  14.492   7.858
60905SOL    HW284613   1.399  14.473   7.712
60906SOL     OW84614  11.417   9.882  13.040
60906SOL    HW184615  11.374   9.796  13.045
60906SOL    HW284616  11.383   9.921  12.960
60907SOL     OW84617   5.662   9.515  10.755
60907SOL    HW184618   5.707   9.470  10.826
60907SOL    HW284619   5.729   9.572  10.716
60908SOL     OW84620   4.823   3.863   8.762
60908SOL    HW184621   4.850   3.937   8.816
60908SOL    HW284622   4.763   3.900   8.698
60909SOL     OW84623   2.777   4.830  12.688
60909SOL    HW184624   2.807   4.833  12.779
60909SOL    HW284625   2.694   4.878  12.689
60910SOL     OW84626   0.151   4.331   3.940
60910SOL    HW184627   0.240   4.312   3.969
60910SOL    HW284628   0.136   4.422   3.966
60911SOL     OW84629   4.028   1.097   1.931
60911SOL    HW184630   4.054   1.006   1.916
60911SOL    HW284631   4.002   1.100   2.023
60912SOL     OW84632   1.837  11.245  10.513
60912SOL    HW184633   1.877  11.227  10.598
60912SOL    HW284634   1.792  11.329  10.525
60913SOL     OW84635   4.993  12.627   8.798
60913SOL    HW184636   5.041  12.708   8.782
60913SOL    HW284637   4.925  12.625   8.731
60914SOL     OW84638   6.558  11.370  13.231
60914SOL    HW184639   6.640  11.332  13.200
60914SOL    HW284640   6.578  11.400  13.319
60915SOL     OW84641   7.410  14.651   9.904
60915SOL    HW184642   7.433  14.695   9.822
60915SOL    HW284643   7.354  14.713   9.949
60916SOL     OW84644   6.402  11.934   5.413
60916SOL    HW184645   6.495  11.935   5.388
60916SOL    HW284646   6.387  11.845   5.445
60917SOL     OW84647   1.404   4.669   9.382
60917SOL    HW184648   1.329   4.654   9.440
60917SOL    HW284649   1.364   4.688   9.297
60918SOL     OW84650   1.573  14.541  13.128
60918SOL    HW184651   1.635  14.510  13.062
60918SOL    HW284652   1.606  14.506  13.211
60919SOL     OW84653   5.766   1.680  12.012
60919SOL    HW184654   5.775   1.751  11.949
60919SOL    HW284655   5.743   1.603  11.959
60920SOL     OW84656   0.851   6.010   2.841
60920SOL    HW184657   0.862   6.064   2.920
60920SOL    HW284658   0.791   5.941   2.867
60921SOL     OW84659   2.984   9.846   2.126
60921SOL    HW184660   2.951   9.903   2.196
60921SOL    HW284661   3.075   9.831   2.149
60922SOL     OW84662  10.661   0.829   0.615
60922SOL    HW184663  10.725   0.894   0.588
60922SOL    HW284664  10.701   0.788   0.692
60923SOL     OW84665   7.583   3.161   3.773
60923SOL    HW184666   7.562   3.096   3.840
60923SOL    HW284667   7.499   3.198   3.749
60924SOL     OW84668   0.209  11.142   6.224
60924SOL    HW184669   0.124  11.100   6.217
60924SOL    HW284670   0.251  11.128   6.140
60925SOL     OW84671   9.007  11.572   6.409
60925SOL    HW184672   9.066  11.497   6.407
60925SOL    HW284673   9.040  11.627   6.480
60926SOL     OW84674   1.300   6.412   4.555
60926SOL    HW184675   1.384   6.453   4.577
60926SOL    HW284676   1.324   6.333   4.506
60927SOL     OW84677   2.393   4.914   6.453
60927SOL    HW184678   2.336   4.849   6.495
60927SOL    HW284679   2.343   4.996   6.459
60928SOL     OW84680   9.339   0.177  13.127
60928SOL    HW184681   9.382   0.255  13.162
60928SOL    HW284682   9.305   0.204  13.041
60929SOL     OW84683  11.428   1.573   6.957
60929SOL    HW184684  11.371   1.628   7.010
60929SOL    HW284685  11.456   1.630   6.885
60930SOL     OW84686   7.899   5.953   2.051
60930SOL    HW184687   7.961   5.997   1.993
60930SOL    HW284688   7.832   6.019   2.068
60931SOL     OW84689  14.535  10.871   9.147
60931SOL    HW184690  14.558  10.787   9.186
60931SOL    HW284691  14.505  10.924   9.221
60932SOL     OW84692   4.057  13.396  14.391
60932SOL    HW184693   4.047  13.399  14.295
60932SOL    HW284694   3.968  13.384  14.423
60933SOL     OW84695   8.552  10.706   7.437
60933SOL    HW184696   8.601  10.721   7.357
60933SOL    HW284697   8.587  10.769   7.500
60934SOL     OW84698  12.308   4.615  10.962
60934SOL    HW184699  12.308   4.710  10.973
60934SOL    HW284700  12.347   4.601  10.875
60935SOL     OW84701  14.375   8.057   6.530
60935SOL    HW184702  14.459   8.086   6.496
60935SOL    HW284703  14.312   8.122   6.497
60936SOL     OW84704  13.322  10.554   3.672
60936SOL    HW184705  13.366  10.563   3.588
60936SOL    HW284706  13.355  10.627   3.725
60937SOL     OW84707   5.242  10.983   6.823
60937SOL    HW184708   5.211  10.911   6.879
60937SOL    HW284709   5.284  11.044   6.883
60938SOL     OW84710   2.694   4.385   6.234
60938SOL    HW184711   2.671   4.292   6.239
60938SOL    HW284712   2.653   4.417   6.154
60939SOL     OW84713  10.513   7.186   5.565
60939SOL    HW184714  10.461   7.119   5.520
60939SOL    HW284715  10.450   7.230   5.623
60940SOL     OW84716  13.472   3.716   2.725
60940SOL    HW184717  13.533   3.775   2.769
60940SOL    HW284718  13.517   3.631   2.724
60941SOL     OW84719   5.809   1.284   6.043
60941SOL    HW184720   5.851   1.294   5.957
60941SOL    HW284721   5.730   1.232   6.025
60942SOL     OW84722   5.437   6.318   8.447
60942SOL    HW184723   5.442   6.268   8.366
60942SOL    HW284724   5.478   6.402   8.427
60943SOL     OW84725   9.013   2.615   7.951
60943SOL    HW184726   9.100   2.580   7.933
60943SOL    HW284727   8.992   2.581   8.038
60944SOL     OW84728   5.258   1.009   3.921
60944SOL    HW184729   5.297   1.086   3.962
60944SOL    HW284730   5.188   1.044   3.865
60945SOL     OW84731  13.800   2.589  14.539
60945SOL    HW184732  13.888   2.554  14.552
60945SOL    HW284733  13.814   2.678  14.508
60946SOL     OW84734   7.689  14.069   9.811
60946SOL    HW184735   7.699  14.163   9.802
60946SOL    HW284736   7.595  14.053   9.802
60947SOL     OW84737  10.731   0.335  13.939
60947SOL    HW184738  10.795   0.291  13.883
60947SOL    HW284739  10.784   0.378  14.006
60948SOL     OW84740   9.944   6.408   9.960
60948SOL    HW184741   9.894   6.349   9.905
60948SOL    HW284742  10.035   6.380   9.950
60949SOL     OW84743   2.610   3.013   1.835
60949SOL    HW184744   2.585   2.921   1.822
60949SOL    HW284745   2.528   3.061   1.832
60950SOL     OW84746  14.110   2.232   2.622
60950SOL    HW184747  14.015   2.216   2.615
60950SOL    HW284748  14.140   2.237   2.532
60951SOL     OW84749   6.391   4.817  13.551
60951SOL    HW184750   6.339   4.767  13.488
60951SOL    HW284751   6.456   4.863  13.498
60952SOL     OW84752   1.606  11.101   4.857
60952SOL    HW184753   1.568  11.164   4.918
60952SOL    HW284754   1.531  11.051   4.825
60953SOL     OW84755   7.401   5.536  14.592
60953SOL    HW184756   7.381   5.518  14.684
60953SOL    HW284757   7.316   5.559  14.553
60954SOL     OW84758  11.206   5.698   2.198
60954SOL    HW184759  11.221   5.684   2.291
60954SOL    HW284760  11.128   5.754   2.194
60955SOL     OW84761   8.197   2.994   5.197
60955SOL    HW184762   8.195   2.899   5.183
60955SOL    HW284763   8.223   3.030   5.112
60956SOL     OW84764  10.454  14.196   6.733
60956SOL    HW184765  10.525  14.257   6.754
60956SOL    HW284766  10.443  14.144   6.813
60957SOL     OW84767   6.095   6.445  13.277
60957SOL    HW184768   6.113   6.381  13.208
60957SOL    HW284769   6.070   6.525  13.230
60958SOL     OW84770   4.064  13.637   5.323
60958SOL    HW184771   4.144  13.594   5.352
60958SOL    HW284772   3.997  13.608   5.385
60959SOL     OW84773   5.430   2.984   7.605
60959SOL    HW184774   5.422   2.889   7.596
60959SOL    HW284775   5.382   3.019   7.530
60960SOL     OW84776  13.606   9.779   6.897
60960SOL    HW184777  13.657   9.702   6.872
60960SOL    HW284778  13.632   9.846   6.833
60961SOL     OW84779   9.028   3.148   6.590
60961SOL    HW184780   8.942   3.184   6.608
60961SOL    HW284781   9.017   3.103   6.506
60962SOL     OW84782   9.216   2.987   5.526
60962SOL    HW184783   9.182   2.973   5.614
60962SOL    HW284784   9.224   3.083   5.518
60963SOL     OW84785   1.107  10.986   9.504
60963SOL    HW184786   1.158  10.912   9.471
60963SOL    HW284787   1.139  11.061   9.455
60964SOL     OW84788   1.838   9.441   7.445
60964SOL    HW184789   1.918   9.388   7.441
60964SOL    HW284790   1.793   9.423   7.363
60965SOL     OW84791   3.960   7.009  13.679
60965SOL    HW184792   3.938   7.100  13.661
60965SOL    HW284793   3.884   6.959  13.648
60966SOL     OW84794   3.320  12.193   2.019
60966SOL    HW184795   3.301  12.137   2.094
60966SOL    HW284796   3.405  12.163   1.987
60967SOL     OW84797  11.345   1.552  10.432
60967SOL    HW184798  11.422   1.502  10.408
60967SOL    HW284799  11.370   1.644  10.418
60968SOL     OW84800   5.120  13.236  11.439
60968SOL    HW184801   5.149  13.310  11.385
60968SOL    HW284802   5.119  13.271  11.528
60969SOL     OW84803   7.814   4.378   0.591
60969SOL    HW184804   7.887   4.438   0.572
60969SOL    HW284805   7.794   4.337   0.506
60970SOL     OW84806   5.294  12.416   1.283
60970SOL    HW184807   5.218  12.404   1.226
60970SOL    HW284808   5.357  12.465   1.229
60971SOL     OW84809   4.047   4.336  14.415
60971SOL    HW184810   4.034   4.429  14.431
60971SOL    HW284811   4.010   4.294  14.493
60972SOL     OW84812   4.172  10.851   2.645
60972SOL    HW184813   4.167  10.931   2.698
60972SOL    HW284814   4.258  10.815   2.665
60973SOL     OW84815   5.479   1.044   8.318
60973SOL    HW184816   5.407   1.063   8.377
60973SOL    HW284817   5.518   1.130   8.299
60974SOL     OW84818   2.873  14.312   8.180
60974SOL    HW184819   2.954  14.290   8.225
60974SOL    HW284820   2.875  14.259   8.100
60975SOL     OW84821  13.629   7.486   8.048
60975SOL    HW184822  13.666   7.401   8.022
60975SOL    HW284823  13.683   7.514   8.121
60976SOL     OW84824   5.002  13.651   5.264
60976SOL    HW184825   5.097  13.653   5.253
60976SOL    HW284826   4.982  13.559   5.283
60977SOL     OW84827  13.922   1.467  14.816
60977SOL    HW184828  13.873   1.390  14.788
60977SOL    HW284829  13.991   1.478  14.751
60978SOL     OW84830  14.335  11.286   0.564
60978SOL    HW184831  14.412  11.230   0.551
60978SOL    HW284832  14.261  11.229   0.543
60979SOL     OW84833   1.759   3.382  13.065
60979SOL    HW184834   1.725   3.358  13.152
60979SOL    HW284835   1.753   3.300  13.015
60980SOL     OW84836  11.298   9.318   8.534
60980SOL    HW184837  11.284   9.259   8.459
60980SOL    HW284838  11.381   9.362   8.513
60981SOL     OW84839   0.378   2.225   5.706
60981SOL    HW184840   0.424   2.260   5.630
60981SOL    HW284841   0.292   2.199   5.672
60982SOL     OW84842   2.899   1.049   0.153
60982SOL    HW184843   2.920   0.966   0.196
60982SOL    HW284844   2.815   1.075   0.189
60983SOL     OW84845  14.784   7.304   3.660
60983SOL    HW184846  14.702   7.330   3.701
60983SOL    HW284847  14.822   7.385   3.626
60984SOL     OW84848   1.172   2.406  10.785
60984SOL    HW184849   1.160   2.311  10.788
60984SOL    HW284850   1.216   2.421  10.701
60985SOL     OW84851  11.226   2.274   6.620
60985SOL    HW184852  11.283   2.208   6.580
60985SOL    HW284853  11.287   2.336   6.661
60986SOL     OW84854   0.252   9.668   2.234
60986SOL    HW184855   0.245   9.577   2.265
60986SOL    HW284856   0.324   9.705   2.283
60987SOL     OW84857   9.998   5.702   1.772
60987SOL    HW184858  10.086   5.740   1.785
60987SOL    HW284859   9.947   5.774   1.734
60988SOL     OW84860   8.571  13.909   8.113
60988SOL    HW184861   8.647  13.920   8.169
60988SOL    HW284862   8.607  13.886   8.027
60989SOL     OW84863  14.159   2.446  14.062
60989SOL    HW184864  14.207   2.520  14.098
60989SOL    HW284865  14.148   2.467  13.970
60990SOL     OW84866   7.347   9.862   5.047
60990SOL    HW184867   7.353   9.777   5.003
60990SOL    HW284868   7.291   9.846   5.123
60991SOL     OW84869   4.433  12.202  10.849
60991SOL    HW184870   4.382  12.270  10.806
60991SOL    HW284871   4.411  12.210  10.942
60992SOL     OW84872   2.008   2.266   7.198
60992SOL    HW184873   2.004   2.361   7.212
60992SOL    HW284874   1.974   2.254   7.109
60993SOL     OW84875  10.228   7.834  13.048
60993SOL    HW184876  10.318   7.822  13.080
60993SOL    HW284877  10.201   7.746  13.019
60994SOL     OW84878  11.730   3.521   3.653
60994SOL    HW184879  11.682   3.491   3.731
60994SOL    HW284880  11.668   3.580   3.609
60995SOL     OW84881   7.614   6.661   3.570
60995SOL    HW184882   7.627   6.590   3.507
60995SOL    HW284883   7.696   6.711   3.567
60996SOL     OW84884   4.302  10.230   4.848
60996SOL    HW184885   4.350  10.256   4.769
60996SOL    HW284886   4.323  10.137   4.859
60997SOL     OW84887   7.898   1.571   2.883
60997SOL    HW184888   7.991   1.574   2.905
60997SOL    HW284889   7.853   1.564   2.967
60998SOL     OW84890   0.241   9.144  10.053
60998SOL    HW184891   0.165   9.093  10.023
60998SOL    HW284892   0.205   9.231  10.072
60999SOL     OW84893   4.327   4.127  13.749
60999SOL    HW184894   4.256   4.079  13.706
60999SOL    HW284895   4.291   4.214  13.763
61000SOL     OW84896   4.301   3.901  12.653
61000SOL    HW184897   4.324   3.887  12.562
61000SOL    HW284898   4.234   3.836  12.672
61001SOL     OW84899   1.601   3.182   8.255
61001SOL    HW184900   1.672   3.197   8.193
61001SOL    HW284901   1.594   3.087   8.261
61002SOL     OW84902   4.095   3.671   4.171
61002SOL    HW184903   4.167   3.678   4.234
61002SOL    HW284904   4.101   3.751   4.118
61003SOL     OW84905   8.833  11.500  13.069
61003SOL    HW184906   8.890  11.533  13.139
61003SOL    HW284907   8.890  11.491  12.993
61004SOL     OW84908   3.660   7.022  10.889
61004SOL    HW184909   3.603   6.974  10.829
61004SOL    HW284910   3.748   7.001  10.859
61005SOL     OW84911   2.952   6.825   5.225
61005SOL    HW184912   2.924   6.734   5.223
61005SOL    HW284913   2.871   6.875   5.224
61006SOL     OW84914   2.417   4.831   1.450
61006SOL    HW184915   2.422   4.913   1.499
61006SOL    HW284916   2.384   4.767   1.513
61007SOL     OW84917   3.798   3.067  14.602
61007SOL    HW184918   3.755   3.068  14.516
61007SOL    HW284919   3.727   3.049  14.664
61008SOL     OW84920  10.341  13.881   5.940
61008SOL    HW184921  10.357  13.906   5.849
61008SOL    HW284922  10.247  13.861   5.943
61009SOL     OW84923   4.183  13.968   6.466
61009SOL    HW184924   4.183  14.021   6.546
61009SOL    HW284925   4.129  13.892   6.488
61010SOL     OW84926  12.338   4.308   6.250
61010SOL    HW184927  12.347   4.346   6.338
61010SOL    HW284928  12.257   4.257   6.255
61011SOL     OW84929   0.718   9.076   2.179
61011SOL    HW184930   0.712   9.067   2.274
61011SOL    HW284931   0.632   9.048   2.147
61012SOL     OW84932  13.258   5.037   1.198
61012SOL    HW184933  13.223   4.963   1.249
61012SOL    HW284934  13.346   5.009   1.174
61013SOL     OW84935  14.354  10.092  12.660
61013SOL    HW184936  14.435  10.055  12.624
61013SOL    HW284937  14.295  10.016  12.668
61014SOL     OW84938  14.711   8.876   0.688
61014SOL    HW184939  14.772   8.834   0.627
61014SOL    HW284940  14.654   8.929   0.631
61015SOL     OW84941   2.360   1.651  10.550
61015SOL    HW184942   2.271   1.619  10.563
61015SOL    HW284943   2.414   1.596  10.606
61016SOL     OW84944   1.352   4.020   8.049
61016SOL    HW184945   1.408   4.090   8.084
61016SOL    HW284946   1.310   3.982   8.126
61017SOL     OW84947   1.444   8.459   0.878
61017SOL    HW184948   1.525   8.484   0.834
61017SOL    HW284949   1.423   8.373   0.841
61018SOL     OW84950   9.472  14.809   6.081
61018SOL    HW184951   9.523  14.836   6.005
61018SOL    HW284952   9.496  14.871   6.149
61019SOL     OW84953   7.481   9.413   9.788
61019SOL    HW184954   7.397   9.375   9.762
61019SOL    HW284955   7.530   9.420   9.706
61020SOL     OW84956  12.588   0.478  12.741
61020SOL    HW184957  12.637   0.396  12.743
61020SOL    HW284958  12.571   0.493  12.648
61021SOL     OW84959   9.692   5.699   4.770
61021SOL    HW184960   9.754   5.636   4.807
61021SOL    HW284961   9.636   5.722   4.844
61022SOL     OW84962  10.063  10.183   5.257
61022SOL    HW184963  10.129  10.226   5.312
61022SOL    HW284964  10.080  10.089   5.269
61023SOL     OW84965  14.058  13.499   0.078
61023SOL    HW184966  14.110  13.541   0.147
61023SOL    HW284967  14.023  13.571   0.027
61024SOL     OW84968   2.188   2.890  11.748
61024SOL    HW184969   2.241   2.917  11.673
61024SOL    HW284970   2.215   2.799  11.765
61025SOL     OW84971  10.737   9.336   3.300
61025SOL    HW184972  10.667   9.343   3.366
61025SOL    HW284973  10.714   9.259   3.249
61026SOL     OW84974   1.273   3.833   9.589
61026SOL    HW184975   1.264   3.768   9.519
61026SOL    HW284976   1.203   3.813   9.650
61027SOL     OW84977  12.662   9.485  13.473
61027SOL    HW184978  12.642   9.578  13.482
61027SOL    HW284979  12.746   9.475  13.518
61028SOL     OW84980  13.650  13.198  12.999
61028SOL    HW184981  13.691  13.133  13.057
61028SOL    HW284982  13.577  13.232  13.051
61029SOL     OW84983   8.991   4.929  12.588
61029SOL    HW184984   8.976   4.839  12.619
61029SOL    HW284985   9.083   4.929  12.561
61030SOL     OW84986   5.985  13.432   0.427
61030SOL    HW184987   6.065  13.484   0.419
61030SOL    HW284988   5.930  13.481   0.488
61031SOL     OW84989   8.922   0.356   6.522
61031SOL    HW184990   9.006   0.361   6.569
61031SOL    HW284991   8.871   0.429   6.556
61032SOL     OW84992   0.704  14.148  13.280
61032SOL    HW184993   0.665  14.171  13.365
61032SOL    HW284994   0.631  14.149  13.219
61033SOL     OW84995   4.783   9.002   9.193
61033SOL    HW184996   4.701   8.953   9.185
61033SOL    HW284997   4.850   8.943   9.158
61034SOL     OW84998  10.057  11.267  12.832
61034SOL    HW184999  10.125  11.208  12.865
61034SOL    HW285000  10.104  11.332  12.780
61035SOL     OW85001  11.339   4.309  11.354
61035SOL    HW185002  11.400   4.286  11.423
61035SOL    HW285003  11.253   4.306  11.396
61036SOL     OW85004  12.654  12.912  13.666
61036SOL    HW185005  12.662  12.936  13.759
61036SOL    HW285006  12.636  12.818  13.668
61037SOL     OW85007  10.806   9.936   5.969
61037SOL    HW185008  10.793   9.998   5.898
61037SOL    HW285009  10.901   9.929   5.978
61038SOL     OW85010   4.800   6.586   8.009
61038SOL    HW185011   4.728   6.582   7.947
61038SOL    HW285012   4.874   6.621   7.958
61039SOL     OW85013   4.772  14.879   3.742
61039SOL    HW185014   4.822  14.877   3.823
61039SOL    HW285015   4.829   0.040   3.678
61040SOL     OW85016   1.853   3.627  11.870
61040SOL    HW185017   1.885   3.708  11.829
61040SOL    HW285018   1.859   3.643  11.964
61041SOL     OW85019  10.062   0.966   7.816
61041SOL    HW185020  10.120   1.042   7.829
61041SOL    HW285021  10.017   0.955   7.899
61042SOL     OW85022  13.129   4.630   9.615
61042SOL    HW185023  13.064   4.617   9.685
61042SOL    HW285024  13.087   4.591   9.538
61043SOL     OW85025   9.175   3.600  12.497
61043SOL    HW185026   9.228   3.638  12.427
61043SOL    HW285027   9.193   3.654  12.573
61044SOL     OW85028  13.805  13.664  13.314
61044SOL    HW185029  13.717  13.680  13.348
61044SOL    HW285030  13.793  13.601  13.244
61045SOL     OW85031   9.248   8.506   9.569
61045SOL    HW185032   9.180   8.537   9.510
61045SOL    HW285033   9.284   8.428   9.526
61046SOL     OW85034  13.892   5.026  11.354
61046SOL    HW185035  13.874   4.979  11.272
61046SOL    HW285036  13.862   5.115  11.338
61047SOL     OW85037  14.840   9.354   3.903
61047SOL    HW185038  14.817   9.377   3.813
61047SOL    HW285039  14.759   9.371   3.953
61048SOL     OW85040   4.344   0.785   0.963
61048SOL    HW185041   4.303   0.869   0.944
61048SOL    HW285042   4.380   0.796   1.051
61049SOL     OW85043   4.304  13.868   0.109
61049SOL    HW185044   4.288  13.779   0.077
61049SOL    HW285045   4.228  13.888   0.164
61050SOL     OW85046  11.509  13.486  11.281
61050SOL    HW185047  11.475  13.438  11.357
61050SOL    HW285048  11.557  13.420  11.232
61051SOL     OW85049   6.622   4.669  10.583
61051SOL    HW185050   6.599   4.646  10.493
61051SOL    HW285051   6.717   4.674  10.583
61052SOL     OW85052   6.048  13.973  12.480
61052SOL    HW185053   6.108  13.899  12.468
61052SOL    HW285054   6.102  14.040  12.522
61053SOL     OW85055   3.690   3.469   1.627
61053SOL    HW185056   3.683   3.517   1.544
61053SOL    HW285057   3.600   3.461   1.657
61054SOL     OW85058   9.137  12.563   1.462
61054SOL    HW185059   9.189  12.497   1.417
61054SOL    HW285060   9.175  12.646   1.435
61055SOL     OW85061   7.373  13.267  10.999
61055SOL    HW185062   7.376  13.346  11.053
61055SOL    HW285063   7.346  13.299  10.912
61056SOL     OW85064  12.206  11.232   9.543
61056SOL    HW185065  12.186  11.231   9.450
61056SOL    HW285066  12.133  11.281   9.582
61057SOL     OW85067   6.139  11.733   1.857
61057SOL    HW185068   6.226  11.764   1.835
61057SOL    HW285069   6.100  11.707   1.773
61058SOL     OW85070   8.622   2.977   8.106
61058SOL    HW185071   8.641   2.994   8.198
61058SOL    HW285072   8.615   3.063   8.066
61059SOL     OW85073   5.295   5.460  11.898
61059SOL    HW185074   5.307   5.555  11.891
61059SOL    HW285075   5.382   5.427  11.919
61060SOL     OW85076   9.066   3.333   9.158
61060SOL    HW185077   9.102   3.418   9.133
61060SOL    HW285078   9.015   3.352   9.238
61061SOL     OW85079   7.395   5.074   6.792
61061SOL    HW185080   7.379   5.005   6.856
61061SOL    HW285081   7.376   5.155   6.837
61062SOL     OW85082   9.465   8.222   1.820
61062SOL    HW185083   9.377   8.251   1.797
61062SOL    HW285084   9.477   8.253   1.910
61063SOL     OW85085   1.100   7.234   3.239
61063SOL    HW185086   1.093   7.277   3.153
61063SOL    HW285087   1.177   7.177   3.231
61064SOL     OW85088  13.179  10.292  12.101
61064SOL    HW185089  13.164  10.219  12.160
61064SOL    HW285090  13.096  10.304  12.055
61065SOL     OW85091   3.089   6.925   3.876
61065SOL    HW185092   3.026   6.984   3.917
61065SOL    HW285093   3.156   6.910   3.943
61066SOL     OW85094   7.074   3.777   3.172
61066SOL    HW185095   6.995   3.788   3.226
61066SOL    HW285096   7.142   3.825   3.220
61067SOL     OW85097   1.957   6.979   1.266
61067SOL    HW185098   1.876   6.972   1.317
61067SOL    HW285099   2.002   6.896   1.280
61068SOL     OW85100  12.175   2.748  13.487
61068SOL    HW185101  12.143   2.726  13.574
61068SOL    HW285102  12.161   2.843  13.480
61069SOL     OW85103  10.302  12.668  13.376
61069SOL    HW185104  10.239  12.731  13.410
61069SOL    HW285105  10.310  12.602  13.446
61070SOL     OW85106   5.044   4.628  12.836
61070SOL    HW185107   5.047   4.625  12.740
61070SOL    HW285108   5.078   4.544  12.864
61071SOL     OW85109   9.852  12.898   3.513
61071SOL    HW185110   9.905  12.971   3.479
61071SOL    HW285111   9.764  12.934   3.518
61072SOL     OW85112   8.315  12.556  13.469
61072SOL    HW185113   8.266  12.476  13.450
61072SOL    HW285114   8.255  12.627  13.445
61073SOL     OW85115   4.206   0.550   3.774
61073SOL    HW185116   4.140   0.485   3.752
61073SOL    HW285117   4.200   0.559   3.869
61074SOL     OW85118   6.414   3.819   7.289
61074SOL    HW185119   6.337   3.795   7.341
61074SOL    HW285120   6.411   3.762   7.213
61075SOL     OW85121  12.592   4.630  12.413
61075SOL    HW185122  12.499   4.645  12.433
61075SOL    HW285123  12.597   4.536  12.391
61076SOL     OW85124  12.740  12.741   3.639
61076SOL    HW185125  12.778  12.748   3.727
61076SOL    HW285126  12.815  12.753   3.580
61077SOL     OW85127   3.412   1.082   6.755
61077SOL    HW185128   3.384   1.133   6.832
61077SOL    HW285129   3.350   1.009   6.751
61078SOL     OW85130   1.015  10.125   6.747
61078SOL    HW185131   1.052  10.087   6.827
61078SOL    HW285132   1.089  10.168   6.704
61079SOL     OW85133   6.578   1.985   2.002
61079SOL    HW185134   6.644   2.023   2.060
61079SOL    HW285135   6.495   1.998   2.048
61080SOL     OW85136   1.874   1.583   9.131
61080SOL    HW185137   1.854   1.560   9.040
61080SOL    HW285138   1.800   1.548   9.181
61081SOL     OW85139  12.922  13.703   8.627
61081SOL    HW185140  12.994  13.656   8.586
61081SOL    HW285141  12.881  13.639   8.684
61082SOL     OW85142   9.298   4.478   7.375
61082SOL    HW185143   9.330   4.391   7.399
61082SOL    HW285144   9.359   4.539   7.418
61083SOL     OW85145  13.989   5.801   1.951
61083SOL    HW185146  13.988   5.843   2.037
61083SOL    HW285147  13.900   5.769   1.938
61084SOL     OW85148   5.698   7.553  12.089
61084SOL    HW185149   5.736   7.479  12.136
61084SOL    HW285150   5.674   7.615  12.158
61085SOL     OW85151  13.263   3.963   8.125
61085SOL    HW185152  13.356   3.977   8.109
61085SOL    HW285153  13.231   4.047   8.160
61086SOL     OW85154   8.155   7.773   0.633
61086SOL    HW185155   8.160   7.715   0.556
61086SOL    HW285156   8.134   7.859   0.597
61087SOL     OW85157   4.177  12.377   5.735
61087SOL    HW185158   4.186  12.287   5.704
61087SOL    HW285159   4.262  12.399   5.772
61088SOL     OW85160   0.645   7.246   5.687
61088SOL    HW185161   0.652   7.325   5.740
61088SOL    HW285162   0.662   7.275   5.597
61089SOL     OW85163  13.422   6.286   7.385
61089SOL    HW185164  13.431   6.283   7.290
61089SOL    HW285165  13.444   6.198   7.414
61090SOL     OW85166   4.679   8.258   2.564
61090SOL    HW185167   4.762   8.212   2.550
61090SOL    HW285168   4.626   8.198   2.616
61091SOL     OW85169   0.398   1.277   3.950
61091SOL    HW185170   0.417   1.184   3.940
61091SOL    HW285171   0.473   1.312   3.997
61092SOL     OW85172   5.236   1.428   0.225
61092SOL    HW185173   5.313   1.371   0.231
61092SOL    HW285174   5.178   1.395   0.294
61093SOL     OW85175   9.881   3.690  11.470
61093SOL    HW185176   9.944   3.621  11.449
61093SOL    HW285177   9.903   3.717  11.560
61094SOL     OW85178   1.714   0.558  10.735
61094SOL    HW185179   1.658   0.563  10.812
61094SOL    HW285180   1.654   0.562  10.661
61095SOL     OW85181   9.245  12.197  10.839
61095SOL    HW185182   9.291  12.272  10.877
61095SOL    HW285183   9.154  12.227  10.829
61096SOL     OW85184  14.333   0.738   9.958
61096SOL    HW185185  14.308   0.719   9.868
61096SOL    HW285186  14.428   0.734   9.958
61097SOL     OW85187  10.490  10.955   1.686
61097SOL    HW185188  10.566  10.995   1.728
61097SOL    HW285189  10.519  10.867   1.661
61098SOL     OW85190   9.012   5.183  10.709
61098SOL    HW185191   8.960   5.172  10.788
61098SOL    HW285192   9.034   5.276  10.707
61099SOL     OW85193   1.117  13.400  10.648
61099SOL    HW185194   1.035  13.363  10.680
61099SOL    HW285195   1.179  13.327  10.652
61100SOL     OW85196  13.951   5.189   3.499
61100SOL    HW185197  13.976   5.097   3.499
61100SOL    HW285198  14.034   5.236   3.485
61101SOL     OW85199   0.501   0.129  10.592
61101SOL    HW185200   0.443   0.180  10.648
61101SOL    HW285201   0.457   0.044  10.582
61102SOL     OW85202   3.365   8.534  13.102
61102SOL    HW185203   3.333   8.624  13.092
61102SOL    HW285204   3.440   8.529  13.043
61103SOL     OW85205   3.905   0.420   7.092
61103SOL    HW185206   3.905   0.353   7.160
61103SOL    HW285207   3.841   0.388   7.028
61104SOL     OW85208  10.837  10.196   3.662
61104SOL    HW185209  10.763  10.256   3.646
61104SOL    HW285210  10.903  10.251   3.704
61105SOL     OW85211  11.061   9.754  11.330
61105SOL    HW185212  11.043   9.726  11.241
61105SOL    HW285213  11.139   9.809  11.323
61106SOL     OW85214   4.914   4.765  14.140
61106SOL    HW185215   4.975   4.799  14.075
61106SOL    HW285216   4.911   4.670  14.124
61107SOL     OW85217   9.453  13.788   4.994
61107SOL    HW185218   9.407  13.860   5.037
61107SOL    HW285219   9.466  13.818   4.905
61108SOL     OW85220  10.227  12.452   2.577
61108SOL    HW185221  10.233  12.489   2.489
61108SOL    HW285222  10.212  12.358   2.563
61109SOL     OW85223   1.003   7.854  10.855
61109SOL    HW185224   0.986   7.889  10.768
61109SOL    HW285225   0.940   7.782  10.865
61110SOL     OW85226   2.870  12.838  13.115
61110SOL    HW185227   2.940  12.813  13.176
61110SOL    HW285228   2.874  12.772  13.045
61111SOL     OW85229  12.650   2.234  13.024
61111SOL    HW185230  12.633   2.201  13.112
61111SOL    HW285231  12.738   2.202  13.003
61112SOL     OW85232   8.774  12.547   3.806
61112SOL    HW185233   8.692  12.557   3.853
61112SOL    HW285234   8.816  12.472   3.847
61113SOL     OW85235   3.402   0.524   9.881
61113SOL    HW185236   3.412   0.504   9.788
61113SOL    HW285237   3.394   0.438   9.923
61114SOL     OW85238   6.034   6.687   3.752
61114SOL    HW185239   5.943   6.661   3.739
61114SOL    HW285240   6.080   6.604   3.767
61115SOL     OW85241  12.649  10.766   2.783
61115SOL    HW185242  12.711  10.752   2.855
61115SOL    HW285243  12.695  10.733   2.705
61116SOL     OW85244   1.222   8.064  14.008
61116SOL    HW185245   1.180   8.121  14.073
61116SOL    HW285246   1.315   8.087  14.012
61117SOL     OW85247   4.905   2.414   5.837
61117SOL    HW185248   4.926   2.357   5.764
61117SOL    HW285249   4.989   2.453   5.863
61118SOL     OW85250   4.895   6.198  11.407
61118SOL    HW185251   4.893   6.193  11.311
61118SOL    HW285252   4.879   6.291  11.426
61119SOL     OW85253   1.560  12.026  12.339
61119SOL    HW185254   1.638  12.081  12.344
61119SOL    HW285255   1.565  11.987  12.252
61120SOL     OW85256   9.178   5.835  11.100
61120SOL    HW185257   9.142   5.747  11.100
61120SOL    HW285258   9.248   5.833  11.035
61121SOL     OW85259   9.255   5.852   3.703
61121SOL    HW185260   9.263   5.773   3.650
61121SOL    HW285261   9.172   5.841   3.750
61122SOL     OW85262   0.236  13.403  12.556
61122SOL    HW185263   0.211  13.429  12.645
61122SOL    HW285264   0.193  13.467  12.499
61123SOL     OW85265   4.616   8.671   3.608
61123SOL    HW185266   4.567   8.635   3.534
61123SOL    HW285267   4.562   8.744   3.640
61124SOL     OW85268   1.777  10.221   8.890
61124SOL    HW185269   1.710  10.259   8.947
61124SOL    HW285270   1.856  10.218   8.945
61125SOL     OW85271   3.152   1.917  14.326
61125SOL    HW185272   3.123   1.965  14.404
61125SOL    HW285273   3.074   1.870  14.297
61126SOL     OW85274   2.263  14.780   9.137
61126SOL    HW185275   2.289  14.870   9.115
61126SOL    HW285276   2.336  14.726   9.106
61127SOL     OW85277  12.233   3.337   9.810
61127SOL    HW185278  12.220   3.314   9.901
61127SOL    HW285279  12.172   3.281   9.762
61128SOL     OW85280   2.484   3.174   3.658
61128SOL    HW185281   2.418   3.211   3.599
61128SOL    HW285282   2.495   3.083   3.630
61129SOL     OW85283   9.559  14.767   8.188
61129SOL    HW185284   9.512  14.773   8.271
61129SOL    HW285285   9.599  14.854   8.177
61130SOL     OW85286  13.289   1.383   2.675
61130SOL    HW185287  13.255   1.445   2.611
61130SOL    HW285288  13.376   1.416   2.696
61131SOL     OW85289  11.903   3.295   4.313
61131SOL    HW185290  11.944   3.301   4.399
61131SOL    HW285291  11.941   3.366   4.263
61132SOL     OW85292   8.532   0.126   1.461
61132SOL    HW185293   8.523   0.064   1.533
61132SOL    HW285294   8.449   0.175   1.463
61133SOL     OW85295   9.846   4.142   4.493
61133SOL    HW185296   9.810   4.092   4.566
61133SOL    HW285297   9.934   4.106   4.480
61134SOL     OW85298  12.542   4.189   7.210
61134SOL    HW185299  12.586   4.273   7.197
61134SOL    HW285300  12.461   4.197   7.159
61135SOL     OW85301   5.647  10.668   1.133
61135SOL    HW185302   5.729  10.678   1.180
61135SOL    HW285303   5.622  10.757   1.109
61136SOL     OW85304   4.008  14.239   9.635
61136SOL    HW185305   4.058  14.158   9.623
61136SOL    HW285306   4.052  14.302   9.578
61137SOL     OW85307   8.912   9.026  14.399
61137SOL    HW185308   8.854   8.954  14.374
61137SOL    HW285309   8.988   9.016  14.342
61138SOL     OW85310  13.895   7.925   2.476
61138SOL    HW185311  13.906   7.931   2.571
61138SOL    HW285312  13.937   7.842   2.453
61139SOL     OW85313  10.501  10.368  11.313
61139SOL    HW185314  10.411  10.391  11.291
61139SOL    HW285315  10.495  10.328  11.400
61140SOL     OW85316   9.547   1.988  11.495
61140SOL    HW185317   9.492   1.948  11.563
61140SOL    HW285318   9.589   1.915  11.452
61141SOL     OW85319  13.444  13.153  11.383
61141SOL    HW185320  13.486  13.236  11.361
61141SOL    HW285321  13.516  13.094  11.404
61142SOL     OW85322   8.318   9.403   1.443
61142SOL    HW185323   8.250   9.386   1.507
61142SOL    HW285324   8.272   9.443   1.369
61143SOL     OW85325   5.517   3.995  12.557
61143SOL    HW185326   5.532   3.927  12.492
61143SOL    HW285327   5.531   4.077  12.510
61144SOL     OW85328   4.254  14.356   6.307
61144SOL    HW185329   4.171  14.347   6.353
61144SOL    HW285330   4.241  14.430   6.248
61145SOL     OW85331   2.442  11.791   3.884
61145SOL    HW185332   2.419  11.698   3.891
61145SOL    HW285333   2.391  11.833   3.953
61146SOL     OW85334  12.034   0.860   6.865
61146SOL    HW185335  12.105   0.847   6.928
61146SOL    HW285336  12.074   0.905   6.791
61147SOL     OW85337  11.955  13.529   6.797
61147SOL    HW185338  11.986  13.488   6.716
61147SOL    HW285339  11.934  13.619   6.772
61148SOL     OW85340   1.583   3.013  12.514
61148SOL    HW185341   1.643   3.031  12.442
61148SOL    HW285342   1.531   3.093  12.523
61149SOL     OW85343  13.435   7.003   7.867
61149SOL    HW185344  13.458   6.916   7.899
61149SOL    HW285345  13.350   7.022   7.907
61150SOL     OW85346   2.492   8.592   7.396
61150SOL    HW185347   2.402   8.562   7.382
61150SOL    HW285348   2.490   8.685   7.371
61151SOL     OW85349   2.030   7.542  12.971
61151SOL    HW185350   1.991   7.462  13.006
61151SOL    HW285351   2.113   7.551  13.017
61152SOL     OW85352   2.883   3.394  12.303
61152SOL    HW185353   2.855   3.346  12.381
61152SOL    HW285354   2.927   3.472  12.338
61153SOL     OW85355   7.104   5.961   5.573
61153SOL    HW185356   7.161   6.017   5.521
61153SOL    HW285357   7.121   5.873   5.540
61154SOL     OW85358   9.191  14.019  10.457
61154SOL    HW185359   9.147  14.041  10.539
61154SOL    HW285360   9.133  13.956  10.415
61155SOL     OW85361   5.363   1.595   2.327
61155SOL    HW185362   5.362   1.671   2.268
61155SOL    HW285363   5.271   1.573   2.340
61156SOL     OW85364   6.129  13.101   9.270
61156SOL    HW185365   6.214  13.070   9.301
61156SOL    HW285366   6.073  13.099   9.348
61157SOL     OW85367   7.185   1.377   4.190
61157SOL    HW185368   7.096   1.347   4.209
61157SOL    HW285369   7.193   1.369   4.095
61158SOL     OW85370  13.517   0.367   5.461
61158SOL    HW185371  13.472   0.390   5.542
61158SOL    HW285372  13.499   0.273   5.449
61159SOL     OW85373  11.731   2.950  14.217
61159SOL    HW185374  11.756   2.892  14.145
61159SOL    HW285375  11.796   3.020  14.216
61160SOL     OW85376  12.129   0.672  14.316
61160SOL    HW185377  12.070   0.652  14.389
61160SOL    HW285378  12.132   0.590  14.266
61161SOL     OW85379   4.296   3.711   1.250
61161SOL    HW185380   4.227   3.774   1.228
61161SOL    HW285381   4.355   3.711   1.175
61162SOL     OW85382  14.775   2.444  14.016
61162SOL    HW185383  14.688   2.441  14.056
61162SOL    HW285384  14.812   2.357  14.034
61163SOL     OW85385   9.904   7.614   3.344
61163SOL    HW185386   9.996   7.640   3.337
61163SOL    HW285387   9.905   7.521   3.321
61164SOL     OW85388  12.311   5.901   0.358
61164SOL    HW185389  12.329   5.808   0.371
61164SOL    HW285390  12.340   5.942   0.440
61165SOL     OW85391  11.739  14.882   6.984
61165SOL    HW185392  11.808   0.040   6.932
61165SOL    HW285393  11.663  14.880   6.926
61166SOL     OW85394   2.080   7.042   8.337
61166SOL    HW185395   2.174   7.052   8.321
61166SOL    HW285396   2.041   7.121   8.300
61167SOL     OW85397   3.397   1.238  13.520
61167SOL    HW185398   3.332   1.206  13.457
61167SOL    HW285399   3.433   1.159  13.560
61168SOL     OW85400   2.915  14.718  12.761
61168SOL    HW185401   2.851  14.652  12.734
61168SOL    HW285402   2.884  14.799  12.722
61169SOL     OW85403  11.693  14.635   6.729
61169SOL    HW185404  11.766  14.616   6.788
61169SOL    HW285405  11.735  14.661   6.647
61170SOL     OW85406   5.990   6.556   2.886
61170SOL    HW185407   6.056   6.617   2.854
61170SOL    HW285408   5.914   6.612   2.907
61171SOL     OW85409  10.736   1.047   3.287
61171SOL    HW185410  10.765   1.130   3.250
61171SOL    HW285411  10.769   1.048   3.377
61172SOL     OW85412  13.536  14.306  12.383
61172SOL    HW185413  13.628  14.334  12.376
61172SOL    HW285414  13.486  14.381  12.352
61173SOL     OW85415  13.988  11.253   8.205
61173SOL    HW185416  14.053  11.292   8.146
61173SOL    HW285417  13.909  11.244   8.151
61174SOL     OW85418   1.604  13.224  10.012
61174SOL    HW185419   1.642  13.203   9.927
61174SOL    HW285420   1.579  13.317  10.005
61175SOL     OW85421  13.549   3.044  13.551
61175SOL    HW185422  13.536   3.110  13.483
61175SOL    HW285423  13.644   3.034  13.556
61176SOL     OW85424  11.244   7.231   2.842
61176SOL    HW185425  11.166   7.241   2.789
61176SOL    HW285426  11.214   7.243   2.932
61177SOL     OW85427  13.485  11.378   6.480
61177SOL    HW185428  13.526  11.321   6.545
61177SOL    HW285429  13.392  11.378   6.504
61178SOL     OW85430  14.365  11.138   5.054
61178SOL    HW185431  14.329  11.101   5.135
61178SOL    HW285432  14.298  11.119   4.988
61179SOL     OW85433  10.689  14.781   4.475
61179SOL    HW185434  10.752  14.783   4.548
61179SOL    HW285435  10.733  14.828   4.404
61180SOL     OW85436   2.629   1.017  10.137
61180SOL    HW185437   2.655   0.932  10.174
61180SOL    HW285438   2.578   0.994  10.059
61181SOL     OW85439   0.555   7.706   7.341
61181SOL    HW185440   0.481   7.663   7.298
61181SOL    HW285441   0.517   7.744   7.421
61182SOL     OW85442   8.505  11.962   4.141
61182SOL    HW185443   8.508  12.041   4.087
61182SOL    HW285444   8.499  11.890   4.078
61183SOL     OW85445  14.065   7.656   7.546
61183SOL    HW185446  13.971   7.662   7.562
61183SOL    HW285447  14.080   7.715   7.472
61184SOL     OW85448   6.699  11.789   9.923
61184SOL    HW185449   6.724  11.796  10.015
61184SOL    HW285450   6.642  11.712   9.918
61185SOL     OW85451   7.501  12.580   3.214
61185SOL    HW185452   7.593  12.599   3.227
61185SOL    HW285453   7.492  12.566   3.119
61186SOL     OW85454   1.315   1.088  11.250
61186SOL    HW185455   1.381   1.157  11.244
61186SOL    HW285456   1.353   1.013  11.205
61187SOL     OW85457   8.634   8.570   3.561
61187SOL    HW185458   8.550   8.548   3.603
61187SOL    HW285459   8.697   8.571   3.633
61188SOL     OW85460   6.864   2.389   8.634
61188SOL    HW185461   6.840   2.303   8.669
61188SOL    HW285462   6.795   2.409   8.570
61189SOL     OW85463   0.416   3.011  13.100
61189SOL    HW185464   0.417   2.946  13.030
61189SOL    HW285465   0.358   2.975  13.166
61190SOL     OW85466   4.966  13.112   0.127
61190SOL    HW185467   4.965  13.199   0.169
61190SOL    HW285468   5.017  13.057   0.187
61191SOL     OW85469   4.325  13.886  13.584
61191SOL    HW185470   4.403  13.890  13.528
61191SOL    HW285471   4.255  13.861  13.525
61192SOL     OW85472   0.876   6.195   3.065
61192SOL    HW185473   0.910   6.155   3.145
61192SOL    HW285474   0.876   6.289   3.084
61193SOL     OW85475   2.095   9.449   8.568
61193SOL    HW185476   2.041   9.387   8.618
61193SOL    HW285477   2.134   9.506   8.634
61194SOL     OW85478   1.266   5.211  10.685
61194SOL    HW185479   1.265   5.117  10.667
61194SOL    HW285480   1.207   5.249  10.621
61195SOL     OW85481  12.894  11.257   2.210
61195SOL    HW185482  12.801  11.282   2.204
61195SOL    HW285483  12.911  11.253   2.304
61196SOL     OW85484   6.582   9.310   5.069
61196SOL    HW185485   6.661   9.302   5.123
61196SOL    HW285486   6.559   9.403   5.075
61197SOL     OW85487  14.307   2.767   4.363
61197SOL    HW185488  14.228   2.810   4.396
61197SOL    HW285489  14.379   2.819   4.397
61198SOL     OW85490  10.441   6.243   9.973
61198SOL    HW185491  10.527   6.238  10.013
61198SOL    HW285492  10.456   6.218   9.882
61199SOL     OW85493   7.925   1.632  12.136
61199SOL    HW185494   7.848   1.650  12.190
61199SOL    HW285495   7.943   1.716  12.093
61200SOL     OW85496  14.317  14.450   7.585
61200SOL    HW185497  14.382  14.383   7.565
61200SOL    HW285498  14.321  14.511   7.511
61201SOL     OW85499   9.779   2.772   3.194
61201SOL    HW185500   9.702   2.736   3.150
61201SOL    HW285501   9.823   2.824   3.127
61202SOL     OW85502   3.618   2.733   6.817
61202SOL    HW185503   3.539   2.694   6.854
61202SOL    HW285504   3.605   2.827   6.827
61203SOL     OW85505   1.553   9.236   6.396
61203SOL    HW185506   1.512   9.167   6.448
61203SOL    HW285507   1.631   9.195   6.359
61204SOL     OW85508   3.216  12.748  11.253
61204SOL    HW185509   3.147  12.814  11.256
61204SOL    HW285510   3.297  12.797  11.252
61205SOL     OW85511   6.555   4.039   3.795
61205SOL    HW185512   6.460   4.053   3.794
61205SOL    HW285513   6.566   3.955   3.839
61206SOL     OW85514  11.394   7.137   4.500
61206SOL    HW185515  11.392   7.219   4.548
61206SOL    HW285516  11.425   7.072   4.565
61207SOL     OW85517   7.323   8.460   2.156
61207SOL    HW185518   7.287   8.398   2.092
61207SOL    HW285519   7.252   8.522   2.171
61208SOL     OW85520  12.146   3.019   8.262
61208SOL    HW185521  12.140   2.973   8.345
61208SOL    HW285522  12.197   3.098   8.281
61209SOL     OW85523   2.131  14.617  12.471
61209SOL    HW185524   2.046  14.657  12.454
61209SOL    HW285525   2.191  14.691  12.480
61210SOL     OW85526   7.210   6.864  11.888
61210SOL    HW185527   7.225   6.804  11.816
61210SOL    HW285528   7.267   6.938  11.870
61211SOL     OW85529   4.355   6.463   1.028
61211SOL    HW185530   4.412   6.412   0.971
61211SOL    HW285531   4.374   6.432   1.116
61212SOL     OW85532  11.511   6.490   8.999
61212SOL    HW185533  11.580   6.434   8.963
61212SOL    HW285534  11.547   6.578   8.995
61213SOL     OW85535  13.351   2.842   1.616
61213SOL    HW185536  13.428   2.898   1.602
61213SOL    HW285537  13.278   2.892   1.578
61214SOL     OW85538   1.663   2.606  10.415
61214SOL    HW185539   1.658   2.686  10.362
61214SOL    HW285540   1.657   2.637  10.506
61215SOL     OW85541   7.359   7.113  14.054
61215SOL    HW185542   7.417   7.092  14.127
61215SOL    HW285543   7.309   7.189  14.084
61216SOL     OW85544   4.168   0.103   7.149
61216SOL    HW185545   4.216   0.133   7.072
61216SOL    HW285546   4.181   0.008   7.150
61217SOL     OW85547   1.194   4.245  12.460
61217SOL    HW185548   1.262   4.218  12.397
61217SOL    HW285549   1.240   4.252  12.543
61218SOL     OW85550   2.617   5.430   1.699
61218SOL    HW185551   2.643   5.343   1.668
61218SOL    HW285552   2.598   5.480   1.620
61219SOL     OW85553  14.722  10.636  13.993
61219SOL    HW185554  14.637  10.647  14.035
61219SOL    HW285555  14.754  10.726  13.979
61220SOL     OW85556  13.566   9.651   8.410
61220SOL    HW185557  13.650   9.670   8.368
61220SOL    HW285558  13.516   9.602   8.344
61221SOL     OW85559  13.874   0.465  10.066
61221SOL    HW185560  13.947   0.523  10.086
61221SOL    HW285561  13.912   0.377  10.064
61222SOL     OW85562   5.990  10.503  12.935
61222SOL    HW185563   5.905  10.459  12.927
61222SOL    HW285564   5.985  10.548  13.019
61223SOL     OW85565   1.514  14.681  10.830
61223SOL    HW185566   1.426  14.697  10.865
61223SOL    HW285567   1.526  14.586  10.837
61224SOL     OW85568   7.017   1.327   3.294
61224SOL    HW185569   7.071   1.317   3.216
61224SOL    HW285570   7.018   1.240   3.335
61225SOL     OW85571  10.704   9.483  12.111
61225SOL    HW185572  10.752   9.400  12.111
61225SOL    HW285573  10.622   9.463  12.158
61226SOL     OW85574  13.261   3.736   3.970
61226SOL    HW185575  13.324   3.730   4.042
61226SOL    HW285576  13.188   3.787   4.006
61227SOL     OW85577  10.695  13.316  11.881
61227SOL    HW185578  10.788  13.300  11.898
61227SOL    HW285579  10.687  13.411  11.878
61228SOL     OW85580   0.913  13.504   2.279
61228SOL    HW185581   0.983  13.452   2.319
61228SOL    HW285582   0.934  13.507   2.186
61229SOL     OW85583   1.991   7.223  11.069
61229SOL    HW185584   2.041   7.155  11.023
61229SOL    HW285585   1.998   7.199  11.162
61230SOL     OW85586  11.797  12.888  11.005
61230SOL    HW185587  11.870  12.848  10.958
61230SOL    HW285588  11.719  12.842  10.972
61231SOL     OW85589   3.486   0.052   4.391
61231SOL    HW185590   3.455   0.134   4.352
61231SOL    HW285591   3.581   0.054   4.379
61232SOL     OW85592   4.416   1.595   3.977
61232SOL    HW185593   4.423   1.562   3.887
61232SOL    HW285594   4.384   1.521   4.028
61233SOL     OW85595   3.971  14.719   5.182
61233SOL    HW185596   3.947  14.631   5.155
61233SOL    HW285597   4.063  14.728   5.156
61234SOL     OW85598   0.421   1.779  14.373
61234SOL    HW185599   0.356   1.849  14.368
61234SOL    HW285600   0.429   1.746  14.283
61235SOL     OW85601  14.152   3.799   0.287
61235SOL    HW185602  14.219   3.786   0.220
61235SOL    HW285603  14.132   3.711   0.319
61236SOL     OW85604   4.535  10.398   2.693
61236SOL    HW185605   4.462  10.432   2.745
61236SOL    HW285606   4.603  10.380   2.758
61237SOL     OW85607  12.590   7.417   0.560
61237SOL    HW185608  12.655   7.434   0.628
61237SOL    HW285609  12.551   7.502   0.542
61238SOL     OW85610  14.661  14.724   0.969
61238SOL    HW185611  14.705  14.655   1.019
61238SOL    HW285612  14.630  14.785   1.035
61239SOL     OW85613  12.204   5.948   2.968
61239SOL    HW185614  12.221   5.860   3.002
61239SOL    HW285615  12.110   5.961   2.978
61240SOL     OW85616   7.319   3.653  10.181
61240SOL    HW185617   7.367   3.697  10.111
61240SOL    HW285618   7.371   3.669  10.260
61241SOL     OW85619   8.642   4.778   2.517
61241SOL    HW185620   8.736   4.795   2.509
61241SOL    HW285621   8.604   4.814   2.437
61242SOL     OW85622   0.524   8.637   5.387
61242SOL    HW185623   0.468   8.686   5.448
61242SOL    HW285624   0.548   8.702   5.320
61243SOL     OW85625  11.613  14.401   0.594
61243SOL    HW185626  11.587  14.455   0.668
61243SOL    HW285627  11.637  14.464   0.526
61244SOL     OW85628   0.328   6.403   6.952
61244SOL    HW185629   0.304   6.311   6.942
61244SOL    HW285630   0.417   6.409   6.918
61245SOL     OW85631   4.969  12.684  14.870
61245SOL    HW185632   4.941  12.620   0.054
61245SOL    HW285633   4.887  12.716  14.832
61246SOL     OW85634  13.636   5.583  14.377
61246SOL    HW185635  13.561   5.555  14.430
61246SOL    HW285636  13.631   5.528  14.299
61247SOL     OW85637   6.032  10.647  10.515
61247SOL    HW185638   5.984  10.661  10.434
61247SOL    HW285639   6.118  10.685  10.499
61248SOL     OW85640   9.755   2.112   2.196
61248SOL    HW185641   9.769   2.017   2.197
61248SOL    HW285642   9.834   2.147   2.155
61249SOL     OW85643   7.776   0.203   4.493
61249SOL    HW185644   7.832   0.280   4.499
61249SOL    HW285645   7.800   0.150   4.570
61250SOL     OW85646   6.677   2.099   4.788
61250SOL    HW185647   6.698   2.005   4.790
61250SOL    HW285648   6.758   2.141   4.760
61251SOL     OW85649  12.279  13.283  10.569
61251SOL    HW185650  12.195  13.285  10.615
61251SOL    HW285651  12.322  13.365  10.594
61252SOL     OW85652   3.301   4.145   7.937
61252SOL    HW185653   3.234   4.204   7.904
61252SOL    HW285654   3.340   4.105   7.859
61253SOL     OW85655   1.371  10.001  14.629
61253SOL    HW185656   1.361   9.910  14.601
61253SOL    HW285657   1.440   9.999  14.695
61254SOL     OW85658  13.765   5.730   0.156
61254SOL    HW185659  13.814   5.806   0.123
61254SOL    HW285660  13.702   5.768   0.218
61255SOL     OW85661   1.083   9.087  13.904
61255SOL    HW185662   1.153   9.105  13.841
61255SOL    HW285663   1.066   9.171  13.946
61256SOL     OW85664   5.736  12.198   2.422
61256SOL    HW185665   5.825  12.196   2.456
61256SOL    HW285666   5.693  12.122   2.461
61257SOL     OW85667   3.908  12.016   6.521
61257SOL    HW185668   3.969  12.056   6.459
61257SOL    HW285669   3.827  12.067   6.511
61258SOL     OW85670  11.656   5.088   3.178
61258SOL    HW185671  11.732   5.125   3.133
61258SOL    HW285672  11.582   5.108   3.121
61259SOL     OW85673   2.711  12.170   4.537
61259SOL    HW185674   2.656  12.202   4.609
61259SOL    HW285675   2.758  12.248   4.507
61260SOL     OW85676  11.732  11.668   8.584
61260SOL    HW185677  11.694  11.584   8.607
61260SOL    HW285678  11.658  11.729   8.585
61261SOL     OW85679  13.052   4.925   2.758
61261SOL    HW185680  12.993   4.987   2.716
61261SOL    HW285681  13.045   4.945   2.852
61262SOL     OW85682   2.800  10.069   1.514
61262SOL    HW185683   2.744  10.117   1.575
61262SOL    HW285684   2.840  10.001   1.568
61263SOL     OW85685   3.074  10.025  11.014
61263SOL    HW185686   3.029  10.071  11.085
61263SOL    HW285687   3.126   9.958  11.058
61264SOL     OW85688  14.561  10.324   0.617
61264SOL    HW185689  14.586  10.358   0.703
61264SOL    HW285690  14.542  10.232   0.632
61265SOL     OW85691  12.196  11.705   2.009
61265SOL    HW185692  12.107  11.742   2.007
61265SOL    HW285693  12.214  11.690   2.102
61266SOL     OW85694   8.176  13.458  11.269
61266SOL    HW185695   8.109  13.411  11.317
61266SOL    HW285696   8.259  13.427  11.306
61267SOL     OW85697   1.777  12.539  11.110
61267SOL    HW185698   1.764  12.541  11.205
61267SOL    HW285699   1.785  12.631  11.085
61268SOL     OW85700  11.452   6.634   9.665
61268SOL    HW185701  11.377   6.690   9.684
61268SOL    HW285702  11.511   6.689   9.614
61269SOL     OW85703   5.345  10.459   2.513
61269SOL    HW185704   5.432  10.429   2.484
61269SOL    HW285705   5.308  10.383   2.558
61270SOL     OW85706   7.682  13.851  10.255
61270SOL    HW185707   7.746  13.922  10.245
61270SOL    HW285708   7.672  13.842  10.350
61271SOL     OW85709   1.489   6.742  11.192
61271SOL    HW185710   1.579   6.710  11.197
61271SOL    HW285711   1.484   6.789  11.109
61272SOL     OW85712   6.461  13.964   6.557
61272SOL    HW185713   6.373  13.929   6.541
61272SOL    HW285714   6.509  13.945   6.477
61273SOL     OW85715   2.345   1.458  13.281
61273SOL    HW185716   2.412   1.397  13.313
61273SOL    HW285717   2.311   1.417  13.202
61274SOL     OW85718   4.486  10.474   6.477
61274SOL    HW185719   4.511  10.442   6.564
61274SOL    HW285720   4.560  10.451   6.421
61275SOL     OW85721   8.122   4.264   3.595
61275SOL    HW185722   8.154   4.232   3.680
61275SOL    HW285723   8.034   4.296   3.613
61276SOL     OW85724  14.346  14.616   3.975
61276SOL    HW185725  14.350  14.695   4.030
61276SOL    HW285726  14.255  14.614   3.944
61277SOL     OW85727  10.899  10.273   9.414
61277SOL    HW185728  10.888  10.290   9.321
61277SOL    HW285729  10.927  10.357   9.451
61278SOL     OW85730   1.244  13.219  14.812
61278SOL    HW185731   1.171  13.281  14.806
61278SOL    HW285732   1.203  13.133  14.800
61279SOL     OW85733   1.029   0.254  10.148
61279SOL    HW185734   1.124   0.260  10.151
61279SOL    HW285735   0.999   0.310  10.220
61280SOL     OW85736   3.087   4.858  12.560
61280SOL    HW185737   3.105   4.918  12.488
61280SOL    HW285738   3.121   4.902  12.638
61281SOL     OW85739  14.299   2.506   2.635
61281SOL    HW185740  14.244   2.542   2.704
61281SOL    HW285741  14.241   2.447   2.586
61282SOL     OW85742   3.014   9.526   4.847
61282SOL    HW185743   2.932   9.511   4.799
61282SOL    HW285744   3.022   9.621   4.850
61283SOL     OW85745   9.745  12.093   8.727
61283SOL    HW185746   9.649  12.092   8.727
61283SOL    HW285747   9.768  12.100   8.634
61284SOL     OW85748   4.773   4.803  10.649
61284SOL    HW185749   4.739   4.879  10.601
61284SOL    HW285750   4.768   4.829  10.741
61285SOL     OW85751  13.280  11.151   3.724
61285SOL    HW185752  13.195  11.181   3.691
61285SOL    HW285753  13.298  11.209   3.798
61286SOL     OW85754   6.175   0.590   8.862
61286SOL    HW185755   6.213   0.646   8.794
61286SOL    HW285756   6.196   0.634   8.944
61287SOL     OW85757  12.335   6.926   0.454
61287SOL    HW185758  12.394   6.989   0.495
61287SOL    HW285759  12.259   6.921   0.513
61288SOL     OW85760   6.296  14.769   1.535
61288SOL    HW185761   6.304  14.690   1.588
61288SOL    HW285762   6.345  14.835   1.584
61289SOL     OW85763   8.459  11.329   1.505
61289SOL    HW185764   8.448  11.234   1.504
61289SOL    HW285765   8.554  11.343   1.505
61290SOL     OW85766   7.469   1.839  11.356
61290SOL    HW185767   7.388   1.884  11.334
61290SOL    HW285768   7.455   1.806  11.445
61291SOL     OW85769   1.998   2.255   9.604
61291SOL    HW185770   1.986   2.274   9.511
61291SOL    HW285771   2.036   2.168   9.606
61292SOL     OW85772  12.396  13.031   6.644
61292SOL    HW185773  12.453  13.006   6.572
61292SOL    HW285774  12.455  13.064   6.712
61293SOL     OW85775   4.136   2.692  10.074
61293SOL    HW185776   4.143   2.783  10.101
61293SOL    HW285777   4.042   2.678  10.063
61294SOL     OW85778   7.940  10.046  12.021
61294SOL    HW185779   7.928   9.954  11.997
61294SOL    HW285780   7.877  10.061  12.092
61295SOL     OW85781   0.193   5.084  12.744
61295SOL    HW185782   0.244   5.034  12.808
61295SOL    HW285783   0.105   5.048  12.750
61296SOL     OW85784  13.224   5.171  14.099
61296SOL    HW185785  13.164   5.098  14.116
61296SOL    HW285786  13.226   5.178  14.004
61297SOL     OW85787  13.485   2.194   0.615
61297SOL    HW185788  13.550   2.138   0.573
61297SOL    HW285789  13.536   2.268   0.648
61298SOL     OW85790   6.490  11.716   0.511
61298SOL    HW185791   6.437  11.794   0.526
61298SOL    HW285792   6.454  11.677   0.431
61299SOL     OW85793   4.149   8.512   6.562
61299SOL    HW185794   4.225   8.488   6.616
61299SOL    HW285795   4.116   8.593   6.601
61300SOL     OW85796  11.656  14.120  12.452
61300SOL    HW185797  11.742  14.113  12.494
61300SOL    HW285798  11.661  14.203  12.404
61301SOL     OW85799  11.968   2.700   4.079
61301SOL    HW185800  11.898   2.747   4.124
61301SOL    HW285801  11.992   2.757   4.005
61302SOL     OW85802  14.435   4.454   6.256
61302SOL    HW185803  14.389   4.412   6.328
61302SOL    HW285804  14.392   4.539   6.246
61303SOL     OW85805   6.412  10.153   8.350
61303SOL    HW185806   6.388  10.073   8.398
61303SOL    HW285807   6.359  10.149   8.270
61304SOL     OW85808   1.384  14.844  10.264
61304SOL    HW185809   1.463  14.808  10.221
61304SOL    HW285810   1.349  14.771  10.314
61305SOL     OW85811   3.780  13.822   8.783
61305SOL    HW185812   3.795  13.736   8.822
61305SOL    HW285813   3.837  13.824   8.706
61306SOL     OW85814   1.928   0.758  11.279
61306SOL    HW185815   1.871   0.796  11.212
61306SOL    HW285816   1.893   0.791  11.362
61307SOL     OW85817  13.901  14.292  11.696
61307SOL    HW185818  13.931  14.221  11.753
61307SOL    HW285819  13.823  14.326  11.740
61308SOL     OW85820  12.202  12.731   4.391
61308SOL    HW185821  12.158  12.670   4.451
61308SOL    HW285822  12.222  12.678   4.313
61309SOL     OW85823  12.688   3.328  12.882
61309SOL    HW185824  12.608   3.346  12.930
61309SOL    HW285825  12.747   3.401  12.904
61310SOL     OW85826   7.050   0.662   7.626
61310SOL    HW185827   7.096   0.746   7.620
61310SOL    HW285828   7.021   0.658   7.717
61311SOL     OW85829  11.065   3.505   6.078
61311SOL    HW185830  11.088   3.574   6.015
61311SOL    HW285831  11.028   3.552   6.152
61312SOL     OW85832   6.126   3.780   6.809
61312SOL    HW185833   6.187   3.763   6.738
61312SOL    HW285834   6.072   3.853   6.779
61313SOL     OW85835   2.215   7.951   8.060
61313SOL    HW185836   2.201   8.000   8.141
61313SOL    HW285837   2.153   7.878   8.066
61314SOL     OW85838   8.842   0.218   4.770
61314SOL    HW185839   8.932   0.237   4.745
61314SOL    HW285840   8.849   0.182   4.859
61315SOL     OW85841   0.535  10.708  12.518
61315SOL    HW185842   0.622  10.695  12.557
61315SOL    HW285843   0.536  10.656  12.438
61316SOL     OW85844   4.998   5.902   3.985
61316SOL    HW185845   5.093   5.890   3.982
61316SOL    HW285846   4.981   5.976   3.926
61317SOL     OW85847   1.537   7.941  13.991
61317SOL    HW185848   1.540   7.879  14.064
61317SOL    HW285849   1.549   7.887  13.913
61318SOL     OW85850   6.147   0.279   4.013
61318SOL    HW185851   6.167   0.251   3.923
61318SOL    HW285852   6.174   0.371   4.015
61319SOL     OW85853   1.730  13.491   6.957
61319SOL    HW185854   1.764  13.493   6.868
61319SOL    HW285855   1.640  13.523   6.949
61320SOL     OW85856   9.096  10.766   0.698
61320SOL    HW185857   9.095  10.717   0.780
61320SOL    HW285858   9.188  10.766   0.672
61321SOL     OW85859  13.197   7.605  11.036
61321SOL    HW185860  13.113   7.576  11.072
61321SOL    HW285861  13.177   7.685  10.988
61322SOL     OW85862  14.185   2.028   8.603
61322SOL    HW185863  14.194   2.020   8.698
61322SOL    HW285864  14.093   2.007   8.586
61323SOL     OW85865   1.202   2.729   0.058
61323SOL    HW185866   1.258   2.785   0.004
61323SOL    HW285867   1.149   2.681  14.876
61324SOL     OW85868  11.328   5.305   0.145
61324SOL    HW185869  11.277   5.242   0.094
61324SOL    HW285870  11.374   5.357   0.080
61325SOL     OW85871   5.751  13.208   3.163
61325SOL    HW185872   5.827  13.159   3.130
61325SOL    HW285873   5.786  13.294   3.185
61326SOL     OW85874   4.133   9.146  10.773
61326SOL    HW185875   4.103   9.212  10.712
61326SOL    HW285876   4.171   9.195  10.846
61327SOL     OW85877   8.085   7.800   6.294
61327SOL    HW185878   7.991   7.817   6.284
61327SOL    HW285879   8.109   7.752   6.215
61328SOL     OW85880  14.331   0.718   5.777
61328SOL    HW185881  14.290   0.733   5.692
61328SOL    HW285882  14.297   0.634   5.807
61329SOL     OW85883   1.401   9.443   8.522
61329SOL    HW185884   1.456   9.462   8.597
61329SOL    HW285885   1.411   9.520   8.465
61330SOL     OW85886  10.336   5.367   7.204
61330SOL    HW185887  10.250   5.399   7.177
61330SOL    HW285888  10.320   5.278   7.236
61331SOL     OW85889   4.827   7.563  13.814
61331SOL    HW185890   4.784   7.485  13.780
61331SOL    HW285891   4.764   7.633  13.801
61332SOL     OW85892   9.868   2.185  13.074
61332SOL    HW185893   9.838   2.094  13.085
61332SOL    HW285894   9.871   2.220  13.163
61333SOL     OW85895  11.445   9.161   6.449
61333SOL    HW185896  11.507   9.234   6.446
61333SOL    HW285897  11.397   9.174   6.531
61334SOL     OW85898   8.728  14.568   8.980
61334SOL    HW185899   8.800  14.611   8.933
61334SOL    HW285900   8.650  14.595   8.932
61335SOL     OW85901   7.861   4.326   3.602
61335SOL    HW185902   7.778   4.304   3.644
61335SOL    HW285903   7.848   4.414   3.567
61336SOL     OW85904  11.268  10.193   0.638
61336SOL    HW185905  11.328  10.126   0.606
61336SOL    HW285906  11.181  10.153   0.630
61337SOL     OW85907   1.873   9.465   1.880
61337SOL    HW185908   1.889   9.543   1.828
61337SOL    HW285909   1.803   9.490   1.940
61338SOL     OW85910   0.249   7.445   6.792
61338SOL    HW185911   0.309   7.445   6.867
61338SOL    HW285912   0.162   7.450   6.830
61339SOL     OW85913  12.307   7.831   3.350
61339SOL    HW185914  12.351   7.869   3.274
61339SOL    HW285915  12.261   7.754   3.316
61340SOL     OW85916   2.051   9.789  14.738
61340SOL    HW185917   2.119   9.858  14.734
61340SOL    HW285918   2.072   9.730  14.666
61341SOL     OW85919   3.579   6.435   1.234
61341SOL    HW185920   3.605   6.451   1.144
61341SOL    HW285921   3.488   6.405   1.228
61342SOL     OW85922   3.771   4.140   8.183
61342SOL    HW185923   3.809   4.104   8.103
61342SOL    HW285924   3.690   4.182   8.154
61343SOL     OW85925  14.116   0.442  14.664
61343SOL    HW185926  14.188   0.402  14.712
61343SOL    HW285927  14.061   0.368  14.637
61344SOL     OW85928   3.863   7.614  11.914
61344SOL    HW185929   3.955   7.619  11.937
61344SOL    HW285930   3.816   7.632  11.995
61345SOL     OW85931   9.459   4.541   8.881
61345SOL    HW185932   9.495   4.555   8.793
61345SOL    HW285933   9.504   4.462   8.912
61346SOL     OW85934   8.011   8.352   6.793
61346SOL    HW185935   7.918   8.363   6.813
61346SOL    HW285936   8.026   8.258   6.796
61347SOL     OW85937   3.936  10.406   1.586
61347SOL    HW185938   3.946  10.462   1.663
61347SOL    HW285939   3.855  10.357   1.601
61348SOL     OW85940  14.267   3.911   8.606
61348SOL    HW185941  14.334   3.883   8.668
61348SOL    HW285942  14.303   3.988   8.564
61349SOL     OW85943   2.926   7.709   4.171
61349SOL    HW185944   2.985   7.776   4.137
61349SOL    HW285945   2.984   7.641   4.205
61350SOL     OW85946  10.437   3.614   9.205
61350SOL    HW185947  10.362   3.672   9.193
61350SOL    HW285948  10.420   3.570   9.288
61351SOL     OW85949  10.687  13.770  14.207
61351SOL    HW185950  10.670  13.831  14.135
61351SOL    HW285951  10.772  13.732  14.187
61352SOL     OW85952   3.400   2.084   0.716
61352SOL    HW185953   3.359   2.005   0.681
61352SOL    HW285954   3.391   2.149   0.646
61353SOL     OW85955   9.357  10.671   0.029
61353SOL    HW185956   9.344  10.652   0.122
61353SOL    HW285957   9.301  10.607  14.866
61354SOL     OW85958  12.613   4.739   2.404
61354SOL    HW185959  12.629   4.648   2.379
61354SOL    HW285960  12.614   4.739   2.499
61355SOL     OW85961   3.519   4.821  11.766
61355SOL    HW185962   3.566   4.842  11.686
61355SOL    HW285963   3.542   4.730  11.785
61356SOL     OW85964  14.610  13.456   0.159
61356SOL    HW185965  14.636  13.546   0.179
61356SOL    HW285966  14.544  13.435   0.224
61357SOL     OW85967   9.421   5.178   2.253
61357SOL    HW185968   9.509   5.198   2.284
61357SOL    HW285969   9.363   5.208   2.323
61358SOL     OW85970   3.900   4.060  11.393
61358SOL    HW185971   3.806   4.047  11.379
61358SOL    HW285972   3.939   4.048  11.307
61359SOL     OW85973   2.414   9.426  14.823
61359SOL    HW185974   2.485   9.450  14.763
61359SOL    HW285975   2.371   9.508  14.844
61360SOL     OW85976   0.084   2.844   4.187
61360SOL    HW185977   0.076   2.915   4.123
61360SOL    HW285978   0.029   2.774   4.153
61361SOL     OW85979  10.831   7.492   9.397
61361SOL    HW185980  10.801   7.571   9.351
61361SOL    HW285981  10.751   7.445   9.419
61362SOL     OW85982  12.485   8.511   2.643
61362SOL    HW185983  12.442   8.576   2.586
61362SOL    HW285984  12.530   8.563   2.710
61363SOL     OW85985  13.494  11.532   1.727
61363SOL    HW185986  13.442  11.540   1.807
61363SOL    HW285987  13.445  11.581   1.661
61364SOL     OW85988  10.971   0.582   8.814
61364SOL    HW185989  10.999   0.554   8.901
61364SOL    HW285990  11.046   0.562   8.757
61365SOL     OW85991  10.871   2.833   0.804
61365SOL    HW185992  10.936   2.765   0.822
61365SOL    HW285993  10.921   2.915   0.804
61366SOL     OW85994   0.639   4.028   5.879
61366SOL    HW185995   0.627   4.113   5.838
61366SOL    HW285996   0.640   3.966   5.807
61367SOL     OW85997   0.328   6.695  12.034
61367SOL    HW185998   0.246   6.679  11.988
61367SOL    HW285999   0.379   6.748  11.973
61368SOL     OW86000   2.488   1.734   3.318
61368SOL    HW186001   2.424   1.795   3.281
61368SOL    HW286002   2.469   1.733   3.412
61369SOL     OW86003   4.826   8.683   0.213
61369SOL    HW186004   4.760   8.749   0.235
61369SOL    HW286005   4.863   8.656   0.297
61370SOL     OW86006   7.728   1.259   8.097
61370SOL    HW186007   7.716   1.331   8.159
61370SOL    HW286008   7.778   1.298   8.025
61371SOL     OW86009  11.059   3.898  10.866
61371SOL    HW186010  11.133   3.959  10.876
61371SOL    HW286011  11.092   3.815  10.900
61372SOL     OW86012   8.234  10.191  11.311
61372SOL    HW186013   8.267  10.147  11.389
61372SOL    HW286014   8.222  10.120  11.247
61373SOL     OW86015   9.682  10.855  10.943
61373SOL    HW186016   9.744  10.904  10.890
61373SOL    HW286017   9.611  10.916  10.961
61374SOL     OW86018   0.017   2.252   0.339
61374SOL    HW186019  14.817   2.288   0.373
61374SOL    HW286020   0.085   2.311   0.374
61375SOL     OW86021   0.467   8.297   1.893
61375SOL    HW186022   0.498   8.347   1.818
61375SOL    HW286023   0.411   8.229   1.855
61376SOL     OW86024   6.466  12.473   8.422
61376SOL    HW186025   6.527  12.407   8.455
61376SOL    HW286026   6.514  12.516   8.351
61377SOL     OW86027   5.834   8.021   0.562
61377SOL    HW186028   5.887   8.054   0.634
61377SOL    HW286029   5.745   8.020   0.596
61378SOL     OW86030   9.017  12.400   7.617
61378SOL    HW186031   8.986  12.365   7.701
61378SOL    HW286032   8.940  12.440   7.577
61379SOL     OW86033  11.238  11.951  12.610
61379SOL    HW186034  11.179  11.968  12.683
61379SOL    HW286035  11.188  11.976  12.532
61380SOL     OW86036   8.911   8.103   5.214
61380SOL    HW186037   8.852   8.028   5.220
61380SOL    HW286038   8.936   8.122   5.305
61381SOL     OW86039   6.870   1.085  10.958
61381SOL    HW186040   6.871   1.089  11.054
61381SOL    HW286041   6.797   1.027  10.937
61382SOL     OW86042   9.138   3.284   0.190
61382SOL    HW186043   9.139   3.293   0.094
61382SOL    HW286044   9.221   3.322   0.218
61383SOL     OW86045   0.012   8.836   1.588
61383SOL    HW186046  14.871   8.928   1.579
61383SOL    HW286047  14.814   8.794   1.620
61384SOL     OW86048   6.776  10.575  10.806
61384SOL    HW186049   6.775  10.532  10.721
61384SOL    HW286050   6.788  10.668  10.786
61385SOL     OW86051  11.430  12.384  13.189
61385SOL    HW186052  11.384  12.332  13.123
61385SOL    HW286053  11.365  12.400  13.257
61386SOL     OW86054   1.512   8.712   8.976
61386SOL    HW186055   1.469   8.703   8.891
61386SOL    HW286056   1.606   8.701   8.956
61387SOL     OW86057  11.944   6.491  11.370
61387SOL    HW186058  11.894   6.533  11.439
61387SOL    HW286059  11.955   6.400  11.399
61388SOL     OW86060  13.939   0.565   5.074
61388SOL    HW186061  13.954   0.594   4.984
61388SOL    HW286062  13.844   0.550   5.078
61389SOL     OW86063  12.168  13.904   3.357
61389SOL    HW186064  12.076  13.925   3.344
61389SOL    HW286065  12.168  13.815   3.394
61390SOL     OW86066   7.280   7.073  12.904
61390SOL    HW186067   7.329   7.127  12.966
61390SOL    HW286068   7.259   7.131  12.832
61391SOL     OW86069   8.867   0.568  13.699
61391SOL    HW186070   8.886   0.474  13.697
61391SOL    HW286071   8.921   0.602  13.770
61392SOL     OW86072  11.352   5.284  11.201
61392SOL    HW186073  11.298   5.341  11.257
61392SOL    HW286074  11.343   5.322  11.114
61393SOL     OW86075   9.350   0.192   7.314
61393SOL    HW186076   9.328   0.255   7.246
61393SOL    HW286077   9.266   0.162   7.348
61394SOL     OW86078   2.264   4.165  10.296
61394SOL    HW186079   2.181   4.176  10.250
61394SOL    HW286080   2.268   4.072  10.318
61395SOL     OW86081   4.693   8.833   6.535
61395SOL    HW186082   4.778   8.818   6.495
61395SOL    HW286083   4.690   8.773   6.610
61396SOL     OW86084  11.203   0.715   3.258
61396SOL    HW186085  11.177   0.731   3.168
61396SOL    HW286086  11.215   0.621   3.264
61397SOL     OW86087  11.840   4.663   4.211
61397SOL    HW186088  11.921   4.683   4.258
61397SOL    HW286089  11.808   4.748   4.182
61398SOL     OW86090  12.098  14.274   7.285
61398SOL    HW186091  12.179  14.321   7.265
61398SOL    HW286092  12.114  14.185   7.257
61399SOL     OW86093  12.234  14.178  11.824
61399SOL    HW186094  12.234  14.151  11.915
61399SOL    HW286095  12.155  14.139  11.787
61400SOL     OW86096   3.332   1.681  11.329
61400SOL    HW186097   3.316   1.714  11.417
61400SOL    HW286098   3.315   1.587  11.335
61401SOL     OW86099   5.833   5.724  12.703
61401SOL    HW186100   5.754   5.748  12.656
61401SOL    HW286101   5.814   5.639  12.741
61402SOL     OW86102  12.257   8.622  10.124
61402SOL    HW186103  12.244   8.698  10.067
61402SOL    HW286104  12.344   8.590  10.101
61403SOL     OW86105  11.423   3.464  12.514
61403SOL    HW186106  11.333   3.442  12.488
61403SOL    HW286107  11.451   3.390  12.568
61404SOL     OW86108   2.810  12.633   7.286
61404SOL    HW186109   2.757  12.681   7.224
61404SOL    HW286110   2.811  12.543   7.252
61405SOL     OW86111   8.520   0.530  12.764
61405SOL    HW186112   8.443   0.579  12.794
61405SOL    HW286113   8.498   0.438  12.782
61406SOL     OW86114   0.010   2.684   3.064
61406SOL    HW186115   0.015   2.747   3.137
61406SOL    HW286116   0.083   2.624   3.079
61407SOL     OW86117   7.920  11.974   0.572
61407SOL    HW186118   8.005  11.936   0.552
61407SOL    HW286119   7.933  12.068   0.561
61408SOL     OW86120   7.113   2.531   4.732
61408SOL    HW186121   7.100   2.489   4.647
61408SOL    HW286122   7.190   2.587   4.719
61409SOL     OW86123   1.540   8.290   8.413
61409SOL    HW186124   1.617   8.334   8.375
61409SOL    HW286125   1.574   8.205   8.443
61410SOL     OW86126   4.776   2.675   3.381
61410SOL    HW186127   4.770   2.755   3.328
61410SOL    HW286128   4.760   2.705   3.471
61411SOL     OW86129   9.073   2.507   1.895
61411SOL    HW186130   9.127   2.427   1.897
61411SOL    HW286131   9.135   2.578   1.914
61412SOL     OW86132  13.895   7.825   3.684
61412SOL    HW186133  13.826   7.858   3.742
61412SOL    HW286134  13.856   7.826   3.597
61413SOL     OW86135   3.802   5.435   0.708
61413SOL    HW186136   3.721   5.449   0.757
61413SOL    HW286137   3.859   5.508   0.734
61414SOL     OW86138   7.942  14.664   7.391
61414SOL    HW186139   7.853  14.656   7.426
61414SOL    HW286140   7.969  14.573   7.375
61415SOL     OW86141   8.125   4.106   5.050
61415SOL    HW186142   8.058   4.070   4.991
61415SOL    HW286143   8.077   4.125   5.130
61416SOL     OW86144  13.772   8.375  11.944
61416SOL    HW186145  13.715   8.452  11.942
61416SOL    HW286146  13.815   8.375  11.858
61417SOL     OW86147   4.165   4.061  12.364
61417SOL    HW186148   4.155   4.153  12.342
61417SOL    HW286149   4.243   4.057  12.418
61418SOL     OW86150   8.198  13.404  14.423
61418SOL    HW186151   8.153  13.381  14.342
61418SOL    HW286152   8.131  13.392  14.491
61419SOL     OW86153   6.196   0.295   8.302
61419SOL    HW186154   6.225   0.204   8.288
61419SOL    HW286155   6.117   0.286   8.356
61420SOL     OW86156  10.184   9.969   0.042
61420SOL    HW186157  10.256   9.993   0.100
61420SOL    HW286158  10.226   9.935  14.845
61421SOL     OW86159   3.293   1.120   5.036
61421SOL    HW186160   3.213   1.147   4.990
61421SOL    HW286161   3.359   1.184   5.009
61422SOL     OW86162   2.670   3.238  13.954
61422SOL    HW186163   2.648   3.330  13.969
61422SOL    HW286164   2.597   3.204  13.902
61423SOL     OW86165   0.881  13.776   3.541
61423SOL    HW186166   0.923  13.862   3.540
61423SOL    HW286167   0.787  13.796   3.544
61424SOL     OW86168   2.950   7.512  11.565
61424SOL    HW186169   2.959   7.417  11.570
61424SOL    HW286170   2.881   7.533  11.628
61425SOL     OW86171   6.933  11.925   5.977
61425SOL    HW186172   7.025  11.943   5.959
61425SOL    HW286173   6.922  11.833   5.954
61426SOL     OW86174  11.666   8.226  10.401
61426SOL    HW186175  11.690   8.301  10.346
61426SOL    HW286176  11.725   8.232  10.477
61427SOL     OW86177   4.587   1.078   1.353
61427SOL    HW186178   4.547   1.066   1.439
61427SOL    HW286179   4.530   1.142   1.309
61428SOL     OW86180   6.370   7.340  12.790
61428SOL    HW186181   6.283   7.374  12.770
61428SOL    HW286182   6.356   7.278  12.862
61429SOL     OW86183  12.187  12.004   6.756
61429SOL    HW186184  12.100  11.998   6.718
61429SOL    HW286185  12.246  11.977   6.685
61430SOL     OW86186  11.553   1.162   7.029
61430SOL    HW186187  11.576   1.199   7.114
61430SOL    HW286188  11.636   1.155   6.982
61431SOL     OW86189   4.759   3.238   7.026
61431SOL    HW186190   4.825   3.284   6.975
61431SOL    HW286191   4.809   3.186   7.089
61432SOL     OW86192  10.718   3.952   4.176
61432SOL    HW186193  10.638   3.928   4.128
61432SOL    HW286194  10.687   3.978   4.263
61433SOL     OW86195   3.087  13.098   4.859
61433SOL    HW186196   3.120  13.013   4.829
61433SOL    HW286197   3.110  13.158   4.789
61434SOL     OW86198  10.964  11.715   1.030
61434SOL    HW186199  10.996  11.799   0.997
61434SOL    HW286200  11.021  11.650   0.989
61435SOL     OW86201   2.452  12.963   4.948
61435SOL    HW186202   2.515  12.997   4.885
61435SOL    HW286203   2.483  12.875   4.969
61436SOL     OW86204   4.358   1.584   3.672
61436SOL    HW186205   4.266   1.559   3.664
61436SOL    HW286206   4.406   1.518   3.621
61437SOL     OW86207  10.812   3.054  13.053
61437SOL    HW186208  10.784   3.125  12.995
61437SOL    HW286209  10.756   3.062  13.130
61438SOL     OW86210   8.437   0.310   1.708
61438SOL    HW186211   8.454   0.216   1.712
61438SOL    HW286212   8.356   0.318   1.658
61439SOL     OW86213  10.242  13.757  12.512
61439SOL    HW186214  10.282  13.684  12.465
61439SOL    HW286215  10.153  13.728  12.531
61440SOL     OW86216   7.123  14.227   5.347
61440SOL    HW186217   7.201  14.248   5.400
61440SOL    HW286218   7.139  14.271   5.263
61441SOL     OW86219   9.327  13.027   1.363
61441SOL    HW186220   9.389  13.051   1.432
61441SOL    HW286221   9.324  13.105   1.307
61442SOL     OW86222   7.587   4.568   0.457
61442SOL    HW186223   7.500   4.531   0.468
61442SOL    HW286224   7.581   4.619   0.376
61443SOL     OW86225   1.660   1.765   4.182
61443SOL    HW186226   1.583   1.764   4.238
61443SOL    HW286227   1.654   1.685   4.130
61444SOL     OW86228  14.176   7.321   2.210
61444SOL    HW186229  14.196   7.340   2.302
61444SOL    HW286230  14.108   7.254   2.214
61445SOL     OW86231   1.139  14.119  10.012
61445SOL    HW186232   1.163  14.081  10.097
61445SOL    HW286233   1.105  14.206  10.034
61446SOL     OW86234   5.038  10.891  12.226
61446SOL    HW186235   4.967  10.931  12.176
61446SOL    HW286236   5.008  10.891  12.316
61447SOL     OW86237   2.416  13.536   6.721
61447SOL    HW186238   2.505  13.501   6.729
61447SOL    HW286239   2.365  13.463   6.687
61448SOL     OW86240   4.406   2.773  12.817
61448SOL    HW186241   4.440   2.862  12.821
61448SOL    HW286242   4.473   2.724  12.768
61449SOL     OW86243   2.454   1.287   6.452
61449SOL    HW186244   2.490   1.375   6.453
61449SOL    HW286245   2.517   1.236   6.401
61450SOL     OW86246   3.250   5.198   7.315
61450SOL    HW186247   3.346   5.199   7.314
61450SOL    HW286248   3.225   5.288   7.336
61451SOL     OW86249   1.921   2.717   2.701
61451SOL    HW186250   2.002   2.666   2.693
61451SOL    HW286251   1.938   2.796   2.649
61452SOL     OW86252   2.993   4.320  13.557
61452SOL    HW186253   2.950   4.364  13.484
61452SOL    HW286254   2.958   4.362  13.635
61453SOL     OW86255   8.154  14.031   8.296
61453SOL    HW186256   8.178  14.118   8.264
61453SOL    HW286257   8.060  14.024   8.278
61454SOL     OW86258  11.197   7.503   7.686
61454SOL    HW186259  11.230   7.413   7.686
61454SOL    HW286260  11.193   7.527   7.779
61455SOL     OW86261   9.013   5.880   5.638
61455SOL    HW186262   8.969   5.918   5.713
61455SOL    HW286263   8.943   5.844   5.583
61456SOL     OW86264   7.902   9.463   9.734
61456SOL    HW186265   7.946   9.415   9.664
61456SOL    HW286266   7.816   9.422   9.740
61457SOL     OW86267   1.238   6.889   6.338
61457SOL    HW186268   1.236   6.794   6.328
61457SOL    HW286269   1.310   6.905   6.399
61458SOL     OW86270   2.437  11.890   0.863
61458SOL    HW186271   2.346  11.896   0.894
61458SOL    HW286272   2.467  11.980   0.861
61459SOL     OW86273   4.478   0.545  14.813
61459SOL    HW186274   4.524   0.466  14.783
61459SOL    HW286275   4.475   0.602  14.736
61460SOL     OW86276   8.028  14.544   5.741
61460SOL    HW186277   8.062  14.633   5.733
61460SOL    HW286278   8.091  14.499   5.798
61461SOL     OW86279   0.794   9.888   5.931
61461SOL    HW186280   0.871   9.888   5.988
61461SOL    HW286281   0.825   9.932   5.851
61462SOL     OW86282   7.480  13.677   1.686
61462SOL    HW186283   7.390  13.665   1.657
61462SOL    HW286284   7.506  13.591   1.720
61463SOL     OW86285  13.319  14.193   7.854
61463SOL    HW186286  13.261  14.153   7.789
61463SOL    HW286287  13.358  14.119   7.899
61464SOL     OW86288  10.138   0.559   2.457
61464SOL    HW186289  10.224   0.596   2.476
61464SOL    HW286290  10.114   0.596   2.372
61465SOL     OW86291  12.427   0.054   5.832
61465SOL    HW186292  12.364   0.006   5.778
61465SOL    HW286293  12.375   0.084   5.907
61466SOL     OW86294   6.575   0.116   6.080
61466SOL    HW186295   6.628   0.191   6.105
61466SOL    HW286296   6.583   0.055   6.153
61467SOL     OW86297   5.181   5.823   3.121
61467SOL    HW186298   5.239   5.870   3.181
61467SOL    HW286299   5.101   5.808   3.170
61468SOL     OW86300   9.004   3.075  10.994
61468SOL    HW186301   8.988   3.058  10.901
61468SOL    HW286302   8.986   2.991  11.036
61469SOL     OW86303   2.288  11.553   3.865
61469SOL    HW186304   2.270  11.516   3.779
61469SOL    HW286305   2.221  11.620   3.878
61470SOL     OW86306  10.232   3.657   5.133
61470SOL    HW186307  10.306   3.697   5.088
61470SOL    HW286308  10.164   3.650   5.066
61471SOL     OW86309   8.071   3.371   4.569
61471SOL    HW186310   8.049   3.320   4.491
61471SOL    HW286311   8.030   3.456   4.555
61472SOL     OW86312  12.115  13.008   9.999
61472SOL    HW186313  12.077  13.067   9.933
61472SOL    HW286314  12.041  12.953  10.026
61473SOL     OW86315  10.381   0.414   2.074
61473SOL    HW186316  10.348   0.361   2.002
61473SOL    HW286317  10.360   0.504   2.049
61474SOL     OW86318   3.240  13.269   7.659
61474SOL    HW186319   3.215  13.241   7.748
61474SOL    HW286320   3.320  13.219   7.640
61475SOL     OW86321   4.184   0.658  11.834
61475SOL    HW186322   4.218   0.743  11.860
61475SOL    HW286323   4.099   0.677  11.793
61476SOL     OW86324  11.529   6.788  13.795
61476SOL    HW186325  11.549   6.842  13.719
61476SOL    HW286326  11.528   6.849  13.869
61477SOL     OW86327   5.941   7.712  11.373
61477SOL    HW186328   6.017   7.763  11.343
61477SOL    HW286329   5.977   7.655  11.441
61478SOL     OW86330   3.183   3.015   7.638
61478SOL    HW186331   3.143   2.931   7.615
61478SOL    HW286332   3.222   2.999   7.724
61479SOL     OW86333  10.649   0.339  11.717
61479SOL    HW186334  10.666   0.414  11.659
61479SOL    HW286335  10.617   0.270  11.658
61480SOL     OW86336   8.958  13.085   6.606
61480SOL    HW186337   9.023  13.129   6.661
61480SOL    HW286338   9.009  13.030   6.548
61481SOL     OW86339   5.510   2.416   0.572
61481SOL    HW186340   5.440   2.388   0.631
61481SOL    HW286341   5.499   2.362   0.494
61482SOL     OW86342   6.551   9.266  13.204
61482SOL    HW186343   6.465   9.247  13.164
61482SOL    HW286344   6.605   9.191  13.178
61483SOL     OW86345   4.967  12.560   7.407
61483SOL    HW186346   4.963  12.635   7.465
61483SOL    HW286347   4.925  12.590   7.326
61484SOL     OW86348   3.794   8.814   4.179
61484SOL    HW186349   3.827   8.885   4.234
61484SOL    HW286350   3.856   8.742   4.192
61485SOL     OW86351   8.679  12.241   6.459
61485SOL    HW186352   8.718  12.328   6.448
61485SOL    HW286353   8.699  12.217   6.549
61486SOL     OW86354   5.002   0.949   1.284
61486SOL    HW186355   5.007   0.913   1.196
61486SOL    HW286356   4.963   1.036   1.272
61487SOL     OW86357  12.199   5.356   7.945
61487SOL    HW186358  12.200   5.338   8.039
61487SOL    HW286359  12.275   5.310   7.911
61488SOL     OW86360   9.797  11.844  10.813
61488SOL    HW186361   9.772  11.935  10.827
61488SOL    HW286362   9.876  11.850  10.759
61489SOL     OW86363   5.900   8.738  12.162
61489SOL    HW186364   5.970   8.754  12.099
61489SOL    HW286365   5.819   8.755  12.113
61490SOL     OW86366   6.215  11.054   7.297
61490SOL    HW186367   6.149  11.078   7.362
61490SOL    HW286368   6.297  11.087   7.334
61491SOL     OW86369   2.759   5.242   5.696
61491SOL    HW186370   2.671   5.213   5.718
61491SOL    HW286371   2.816   5.192   5.756
61492SOL     OW86372   1.097   7.042   6.677
61492SOL    HW186373   1.011   7.040   6.719
61492SOL    HW286374   1.082   7.090   6.595
61493SOL     OW86375   4.344   9.866   2.529
61493SOL    HW186376   4.403   9.938   2.505
61493SOL    HW286377   4.339   9.812   2.451
61494SOL     OW86378  13.267   5.593   2.842
61494SOL    HW186379  13.341   5.650   2.864
61494SOL    HW286380  13.194   5.629   2.893
61495SOL     OW86381   4.090   8.325   9.394
61495SOL    HW186382   4.140   8.295   9.470
61495SOL    HW286383   3.999   8.315   9.420
61496SOL     OW86384  13.942   3.457   9.416
61496SOL    HW186385  13.848   3.444   9.405
61496SOL    HW286386  13.960   3.542   9.375
61497SOL     OW86387   4.242   6.308   8.324
61497SOL    HW186388   4.182   6.379   8.302
61497SOL    HW286389   4.330   6.345   8.312
61498SOL     OW86390   9.160   2.341   4.550
61498SOL    HW186391   9.209   2.418   4.521
61498SOL    HW286392   9.170   2.278   4.479
61499SOL     OW86393   8.829   3.913   4.879
61499SOL    HW186394   8.803   4.005   4.874
61499SOL    HW286395   8.840   3.885   4.788
61500SOL     OW86396  12.992   6.698  12.233
61500SOL    HW186397  12.924   6.660  12.288
61500SOL    HW286398  12.998   6.639  12.157
61501SOL     OW86399  10.918   4.914  12.902
61501SOL    HW186400  10.966   4.892  12.823
61501SOL    HW286401  10.985   4.946  12.963
61502SOL     OW86402   7.784   1.235  11.633
61502SOL    HW186403   7.750   1.216  11.720
61502SOL    HW286404   7.716   1.206  11.573
61503SOL     OW86405  10.107   3.399  11.154
61503SOL    HW186406  10.200   3.378  11.142
61503SOL    HW286407  10.068   3.382  11.068
61504SOL     OW86408   6.799   1.038   3.587
61504SOL    HW186409   6.823   1.040   3.680
61504SOL    HW286410   6.859   1.100   3.546
61505SOL     OW86411  11.072  11.085   3.466
61505SOL    HW186412  11.034  11.104   3.380
61505SOL    HW286413  11.000  11.099   3.528
61506SOL     OW86414  10.313   6.332  12.767
61506SOL    HW186415  10.403   6.309  12.791
61506SOL    HW286416  10.277   6.373  12.846
61507SOL     OW86417   9.847  14.853  11.202
61507SOL    HW186418   9.865  14.803  11.122
61507SOL    HW286419   9.757  14.830  11.225
61508SOL     OW86420   1.921   4.093  14.337
61508SOL    HW186421   1.937   4.117  14.428
61508SOL    HW286422   2.000   4.047  14.309
61509SOL     OW86423  12.630   4.933   8.436
61509SOL    HW186424  12.546   4.954   8.478
61509SOL    HW286425  12.655   5.013   8.391
61510SOL     OW86426   5.160   6.317   6.832
61510SOL    HW186427   5.193   6.286   6.916
61510SOL    HW286428   5.154   6.412   6.842
61511SOL     OW86429  11.287   8.154   0.482
61511SOL    HW186430  11.369   8.104   0.489
61511SOL    HW286431  11.311   8.231   0.430
61512SOL     OW86432   0.766  12.136   2.915
61512SOL    HW186433   0.763  12.130   3.010
61512SOL    HW286434   0.705  12.069   2.884
61513SOL     OW86435   4.999  11.265   1.079
61513SOL    HW186436   5.042  11.215   1.148
61513SOL    HW286437   4.906  11.261   1.100
61514SOL     OW86438   5.579   3.465   5.029
61514SOL    HW186439   5.667   3.432   5.050
61514SOL    HW286440   5.525   3.435   5.103
61515SOL     OW86441  12.961   6.980   9.786
61515SOL    HW186442  13.024   7.014   9.724
61515SOL    HW286443  12.889   7.044   9.785
61516SOL     OW86444   8.498   7.126  12.635
61516SOL    HW186445   8.440   7.177  12.692
61516SOL    HW286446   8.455   7.126  12.550
61517SOL     OW86447  14.173   2.364  11.129
61517SOL    HW186448  14.154   2.450  11.168
61517SOL    HW286449  14.253   2.378  11.078
61518SOL     OW86450   8.892   9.545  10.859
61518SOL    HW186451   8.798   9.543  10.843
61518SOL    HW286452   8.907   9.477  10.924
61519SOL     OW86453   9.444   9.264  13.000
61519SOL    HW186454   9.407   9.193  13.052
61519SOL    HW286455   9.460   9.334  13.063
61520SOL     OW86456  10.593   6.776   3.940
61520SOL    HW186457  10.632   6.702   3.894
61520SOL    HW286458  10.501   6.752   3.950
61521SOL     OW86459   3.459  11.287  12.346
61521SOL    HW186460   3.422  11.203  12.373
61521SOL    HW286461   3.550  11.284  12.376
61522SOL     OW86462  11.867   9.904   7.994
61522SOL    HW186463  11.786   9.954   7.986
61522SOL    HW286464  11.873   9.880   8.087
61523SOL     OW86465  14.497   8.048  12.013
61523SOL    HW186466  14.581   8.066  11.971
61523SOL    HW286467  14.508   8.077  12.104
61524SOL     OW86468  13.669   9.938   8.632
61524SOL    HW186469  13.647   9.857   8.679
61524SOL    HW286470  13.749   9.969   8.675
61525SOL     OW86471   2.156   9.963   4.100
61525SOL    HW186472   2.144  10.058   4.093
61525SOL    HW286473   2.229   9.944   4.041
61526SOL     OW86474   2.735   0.799   2.121
61526SOL    HW186475   2.695   0.845   2.194
61526SOL    HW286476   2.740   0.864   2.051
61527SOL     OW86477   8.476   2.271   7.081
61527SOL    HW186478   8.420   2.312   7.148
61527SOL    HW286479   8.534   2.342   7.053
61528SOL     OW86480   5.019  13.554   3.980
61528SOL    HW186481   5.113  13.545   3.966
61528SOL    HW286482   4.983  13.574   3.894
61529SOL     OW86483   9.873   6.784  13.505
61529SOL    HW186484   9.948   6.827  13.463
61529SOL    HW286485   9.826   6.855  13.549
61530SOL     OW86486   3.202   7.530   8.721
61530SOL    HW186487   3.290   7.561   8.700
61530SOL    HW286488   3.150   7.610   8.734
61531SOL     OW86489   5.224  11.431  10.789
61531SOL    HW186490   5.279  11.449  10.714
61531SOL    HW286491   5.220  11.336  10.793
61532SOL     OW86492   7.143   2.919   3.971
61532SOL    HW186493   7.067   2.961   3.932
61532SOL    HW286494   7.184   2.871   3.899
61533SOL     OW86495   9.511  10.420   6.784
61533SOL    HW186496   9.458  10.419   6.704
61533SOL    HW286497   9.583  10.479   6.764
61534SOL     OW86498  11.365   0.016   5.799
61534SOL    HW186499  11.390  14.814   5.837
61534SOL    HW286500  11.448   0.064   5.790
61535SOL     OW86501   1.205   9.735  12.023
61535SOL    HW186502   1.200   9.641  12.006
61535SOL    HW286503   1.114   9.765  12.019
61536SOL     OW86504   0.234   1.731   2.193
61536SOL    HW186505   0.245   1.810   2.246
61536SOL    HW286506   0.230   1.763   2.103
61537SOL     OW86507   6.268  12.699   9.839
61537SOL    HW186508   6.247  12.617   9.883
61537SOL    HW286509   6.187  12.750   9.843
61538SOL     OW86510  11.281   0.031   8.597
61538SOL    HW186511  11.227  14.855   8.545
61538SOL    HW286512  11.342  14.855   8.643
61539SOL     OW86513   8.303   0.293   2.333
61539SOL    HW186514   8.345   0.275   2.249
61539SOL    HW286515   8.357   0.247   2.398
61540SOL     OW86516  11.285   5.179   8.253
61540SOL    HW186517  11.337   5.216   8.325
61540SOL    HW286518  11.346   5.178   8.179
61541SOL     OW86519   7.096   4.750   6.302
61541SOL    HW186520   7.111   4.698   6.381
61541SOL    HW286521   7.183   4.760   6.263
61542SOL     OW86522   7.656   9.239   1.994
61542SOL    HW186523   7.581   9.184   1.970
61542SOL    HW286524   7.652   9.312   1.932
61543SOL     OW86525   8.676  10.637  12.583
61543SOL    HW186526   8.679  10.553  12.536
61543SOL    HW286527   8.716  10.618  12.667
61544SOL     OW86528   2.728   4.930   4.782
61544SOL    HW186529   2.743   4.869   4.854
61544SOL    HW286530   2.672   4.998   4.820
61545SOL     OW86531  12.951   3.908   8.263
61545SOL    HW186532  13.026   3.960   8.293
61545SOL    HW286533  12.893   3.971   8.222
61546SOL     OW86534   3.603   1.040   3.995
61546SOL    HW186535   3.668   1.047   4.065
61546SOL    HW286536   3.587   0.946   3.987
61547SOL     OW86537  12.458   4.148   0.018
61547SOL    HW186538  12.408   4.230   0.020
61547SOL    HW286539  12.391   4.080   0.016
61548SOL     OW86540   8.241  11.591   8.705
61548SOL    HW186541   8.224  11.677   8.743
61548SOL    HW286542   8.166  11.574   8.649
61549SOL     OW86543   2.780   8.507  12.681
61549SOL    HW186544   2.802   8.599  12.668
61549SOL    HW286545   2.739   8.504  12.767
61550SOL     OW86546   1.803  13.973   4.789
61550SOL    HW186547   1.751  13.892   4.792
61550SOL    HW286548   1.762  14.025   4.720
61551SOL     OW86549   0.452   9.391   2.103
61551SOL    HW186550   0.477   9.322   2.163
61551SOL    HW286551   0.371   9.360   2.063
61552SOL     OW86552   2.754  13.090   6.454
61552SOL    HW186553   2.691  13.098   6.525
61552SOL    HW286554   2.724  13.014   6.403
61553SOL     OW86555   3.865   0.353   6.763
61553SOL    HW186556   3.778   0.391   6.759
61553SOL    HW286557   3.858   0.286   6.831
61554SOL     OW86558   3.390   1.781   4.463
61554SOL    HW186559   3.307   1.827   4.465
61554SOL    HW286560   3.454   1.843   4.497
61555SOL     OW86561   4.578   2.650  11.456
61555SOL    HW186562   4.630   2.715  11.503
61555SOL    HW286563   4.560   2.690  11.371
61556SOL     OW86564   1.631   5.391   4.471
61556SOL    HW186565   1.701   5.326   4.479
61556SOL    HW286566   1.678   5.475   4.465
61557SOL     OW86567   6.661  13.558  10.689
61557SOL    HW186568   6.606  13.483  10.669
61557SOL    HW286569   6.701  13.538  10.774
61558SOL     OW86570   4.560   0.202   3.716
61558SOL    HW186571   4.624   0.227   3.649
61558SOL    HW286572   4.585   0.113   3.741
61559SOL     OW86573   4.267   2.414  10.660
61559SOL    HW186574   4.177   2.446  10.669
61559SOL    HW286575   4.257   2.322  10.636
61560SOL     OW86576   4.991   1.928   7.762
61560SOL    HW186577   5.040   1.999   7.803
61560SOL    HW286578   4.907   1.926   7.808
61561SOL     OW86579   4.018   5.196  12.016
61561SOL    HW186580   4.082   5.152  11.960
61561SOL    HW286581   4.059   5.280  12.039
61562SOL     OW86582   5.350  11.898   7.224
61562SOL    HW186583   5.438  11.919   7.194
61562SOL    HW286584   5.309  11.982   7.241
61563SOL     OW86585  13.423  10.154  12.615
61563SOL    HW186586  13.388  10.124  12.699
61563SOL    HW286587  13.442  10.247  12.629
61564SOL     OW86588   8.788   4.626   1.656
61564SOL    HW186589   8.751   4.548   1.613
61564SOL    HW286590   8.881   4.606   1.667
61565SOL     OW86591   7.308   3.657   0.628
61565SOL    HW186592   7.278   3.693   0.545
61565SOL    HW286593   7.254   3.579   0.642
61566SOL     OW86594   9.070  14.325   7.615
61566SOL    HW186595   9.013  14.310   7.540
61566SOL    HW286596   9.025  14.284   7.688
61567SOL     OW86597   6.509  12.043  13.203
61567SOL    HW186598   6.560  12.022  13.126
61567SOL    HW286599   6.559  12.006  13.276
61568SOL     OW86600   3.169  14.473   0.960
61568SOL    HW186601   3.154  14.497   0.869
61568SOL    HW286602   3.104  14.523   1.009
61569SOL     OW86603   2.093   4.342   8.845
61569SOL    HW186604   2.059   4.431   8.834
61569SOL    HW286605   2.107   4.333   8.939
61570SOL     OW86606  10.783   3.068  10.241
61570SOL    HW186607  10.756   3.114  10.161
61570SOL    HW286608  10.857   3.119  10.274
61571SOL     OW86609   8.497   5.853  13.617
61571SOL    HW186610   8.546   5.873  13.696
61571SOL    HW286611   8.561   5.817  13.556
61572SOL     OW86612   8.615   7.140   7.655
61572SOL    HW186613   8.653   7.068   7.705
61572SOL    HW286614   8.665   7.217   7.681
61573SOL     OW86615  11.945   6.376   9.958
61573SOL    HW186616  11.940   6.371   9.862
61573SOL    HW286617  12.025   6.329   9.981
61574SOL     OW86618   1.382   4.522   2.301
61574SOL    HW186619   1.352   4.486   2.217
61574SOL    HW286620   1.471   4.552   2.283
61575SOL     OW86621   1.186   6.052   8.113
61575SOL    HW186622   1.265   6.031   8.062
61575SOL    HW286623   1.205   6.017   8.200
61576SOL     OW86624  10.865   1.605  13.412
61576SOL    HW186625  10.863   1.631  13.320
61576SOL    HW286626  10.911   1.677  13.456
61577SOL     OW86627   0.983   0.919   6.413
61577SOL    HW186628   1.056   0.965   6.371
61577SOL    HW286629   1.024   0.849   6.464
61578SOL     OW86630   0.273   2.017  14.352
61578SOL    HW186631   0.181   2.039  14.365
61578SOL    HW286632   0.321   2.088  14.395
61579SOL     OW86633   3.904   9.943  10.349
61579SOL    HW186634   3.929   9.853  10.329
61579SOL    HW286635   3.865   9.976  10.268
61580SOL     OW86636   1.841   3.838  11.585
61580SOL    HW186637   1.847   3.743  11.582
61580SOL    HW286638   1.751   3.856  11.613
61581SOL     OW86639   9.137   9.696   4.719
61581SOL    HW186640   9.200   9.647   4.666
61581SOL    HW286641   9.054   9.652   4.702
61582SOL     OW86642  11.325  13.171   0.409
61582SOL    HW186643  11.351  13.152   0.319
61582SOL    HW286644  11.229  13.175   0.406
61583SOL     OW86645  14.521   9.789  13.982
61583SOL    HW186646  14.471   9.850  13.927
61583SOL    HW286647  14.466   9.777  14.060
61584SOL     OW86648  11.286   6.533  11.940
61584SOL    HW186649  11.225   6.574  11.878
61584SOL    HW286650  11.234   6.521  12.020
61585SOL     OW86651  10.240   8.698   0.000
61585SOL    HW186652  10.200   8.621   0.040
61585SOL    HW286653  10.171   8.736  14.829
61586SOL     OW86654   1.880  11.005   6.149
61586SOL    HW186655   1.900  11.020   6.242
61586SOL    HW286656   1.957  11.036   6.103
61587SOL     OW86657   2.305  13.148  10.610
61587SOL    HW186658   2.282  13.088  10.539
61587SOL    HW286659   2.243  13.220  10.602
61588SOL     OW86660   5.338   5.446   6.599
61588SOL    HW186661   5.294   5.443   6.514
61588SOL    HW286662   5.356   5.539   6.613
61589SOL     OW86663   3.112   1.152  13.723
61589SOL    HW186664   3.115   1.203  13.642
61589SOL    HW286665   3.153   1.069  13.701
61590SOL     OW86666   2.741   6.099   7.913
61590SOL    HW186667   2.773   6.011   7.893
61590SOL    HW286668   2.794   6.157   7.859
61591SOL     OW86669   7.913  13.725   5.943
61591SOL    HW186670   7.984  13.750   6.002
61591SOL    HW286671   7.954  13.725   5.856
61592SOL     OW86672   8.775   3.527   9.598
61592SOL    HW186673   8.711   3.511   9.530
61592SOL    HW286674   8.809   3.440   9.621
61593SOL     OW86675  14.771   2.995  13.548
61593SOL    HW186676  14.780   3.050  13.471
61593SOL    HW286677  14.720   2.919  13.518
61594SOL     OW86678   4.372  10.524  12.122
61594SOL    HW186679   4.384  10.548  12.214
61594SOL    HW286680   4.280  10.502  12.114
61595SOL     OW86681  12.986   8.005   4.937
61595SOL    HW186682  12.958   7.932   4.993
61595SOL    HW286683  12.958   7.980   4.849
61596SOL     OW86684   2.874  10.725   3.562
61596SOL    HW186685   2.917  10.808   3.584
61596SOL    HW286686   2.780  10.746   3.563
61597SOL     OW86687   6.106   1.190  12.391
61597SOL    HW186688   6.101   1.097  12.369
61597SOL    HW286689   6.155   1.192  12.473
61598SOL     OW86690   7.112   7.112  14.305
61598SOL    HW186691   7.146   7.023  14.315
61598SOL    HW286692   7.071   7.112  14.218
61599SOL     OW86693   6.526  13.723   3.749
61599SOL    HW186694   6.441  13.679   3.750
61599SOL    HW286695   6.583  13.663   3.700
61600SOL     OW86696  11.753   8.988   6.787
61600SOL    HW186697  11.665   8.994   6.823
61600SOL    HW286698  11.802   9.058   6.831
61601SOL     OW86699  14.439   6.065   6.127
61601SOL    HW186700  14.368   6.001   6.125
61601SOL    HW286701  14.518   6.014   6.107
61602SOL     OW86702   5.245   9.751  10.743
61602SOL    HW186703   5.227   9.825  10.801
61602SOL    HW286704   5.308   9.697  10.791
61603SOL     OW86705   2.865   3.483  14.482
61603SOL    HW186706   2.858   3.394  14.515
61603SOL    HW286707   2.957   3.506  14.494
61604SOL     OW86708  11.499   2.581  12.380
61604SOL    HW186709  11.445   2.643  12.331
61604SOL    HW286710  11.436   2.517  12.414
61605SOL     OW86711   9.731  11.797   7.959
61605SOL    HW186712   9.802  11.819   7.899
61605SOL    HW286713   9.716  11.877   8.009
61606SOL     OW86714   5.858   7.765  13.359
61606SOL    HW186715   5.895   7.689  13.403
61606SOL    HW286716   5.859   7.742  13.266
61607SOL     OW86717   8.664   1.217   5.416
61607SOL    HW186718   8.603   1.211   5.342
61607SOL    HW286719   8.751   1.211   5.377
61608SOL     OW86720   4.013   4.344   9.843
61608SOL    HW186721   3.947   4.365   9.777
61608SOL    HW286722   4.085   4.306   9.794
61609SOL     OW86723  12.302   5.218   6.837
61609SOL    HW186724  12.247   5.175   6.772
61609SOL    HW286725  12.241   5.270   6.889
61610SOL     OW86726   0.255   5.210  12.217
61610SOL    HW186727   0.351   5.206  12.217
61610SOL    HW286728   0.227   5.125  12.183
61611SOL     OW86729  13.958   9.372   1.263
61611SOL    HW186730  13.986   9.283   1.240
61611SOL    HW286731  13.930   9.365   1.354
61612SOL     OW86732   4.330   2.126   7.043
61612SOL    HW186733   4.355   2.205   7.091
61612SOL    HW286734   4.349   2.054   7.104
61613SOL     OW86735   4.514  13.671  10.548
61613SOL    HW186736   4.577  13.601  10.565
61613SOL    HW286737   4.434  13.642  10.591
61614SOL     OW86738  10.312   0.841   3.586
61614SOL    HW186739  10.273   0.790   3.657
61614SOL    HW286740  10.267   0.925   3.589
61615SOL     OW86741   5.300   5.208  11.553
61615SOL    HW186742   5.353   5.170  11.482
61615SOL    HW286743   5.307   5.145  11.624
61616SOL     OW86744   0.479  10.637   8.364
61616SOL    HW186745   0.471  10.578   8.440
61616SOL    HW286746   0.395  10.630   8.320
61617SOL     OW86747   7.576   8.631   3.633
61617SOL    HW186748   7.574   8.618   3.728
61617SOL    HW286749   7.484   8.635   3.608
61618SOL     OW86750   8.922  14.200   7.798
61618SOL    HW186751   8.841  14.220   7.752
61618SOL    HW286752   8.913  14.108   7.824
61619SOL     OW86753  14.346  14.045  10.432
61619SOL    HW186754  14.382  14.054  10.520
61619SOL    HW286755  14.254  14.023  10.446
61620SOL     OW86756   6.161   3.970   9.677
61620SOL    HW186757   6.216   4.034   9.722
61620SOL    HW286758   6.135   4.014   9.596
61621SOL     OW86759  11.321  12.324   9.224
61621SOL    HW186760  11.366  12.408   9.220
61621SOL    HW286761  11.237  12.344   9.266
61622SOL     OW86762  12.745   6.831   2.303
61622SOL    HW186763  12.775   6.856   2.390
61622SOL    HW286764  12.824   6.823   2.251
61623SOL     OW86765   3.013   3.797   8.502
61623SOL    HW186766   3.036   3.886   8.531
61623SOL    HW286767   2.978   3.808   8.414
61624SOL     OW86768   5.669   5.831  11.063
61624SOL    HW186769   5.726   5.760  11.095
61624SOL    HW286770   5.696   5.844  10.972
61625SOL     OW86771   3.185   5.273   5.928
61625SOL    HW186772   3.251   5.223   5.976
61625SOL    HW286773   3.175   5.354   5.979
61626SOL     OW86774  12.664   1.533   8.497
61626SOL    HW186775  12.618   1.611   8.529
61626SOL    HW286776  12.719   1.506   8.571
61627SOL     OW86777   3.560   4.244   8.049
61627SOL    HW186778   3.476   4.211   8.020
61627SOL    HW286779   3.547   4.338   8.058
61628SOL     OW86780   0.395   9.172   3.937
61628SOL    HW186781   0.480   9.196   3.902
61628SOL    HW286782   0.406   9.176   4.032
61629SOL     OW86783   5.466   3.106   1.196
61629SOL    HW186784   5.390   3.048   1.203
61629SOL    HW286785   5.428   3.194   1.195
61630SOL     OW86786   7.892  11.568   8.862
61630SOL    HW186787   7.948  11.583   8.786
61630SOL    HW286788   7.823  11.633   8.855
61631SOL     OW86789   4.615  12.181   2.170
61631SOL    HW186790   4.586  12.143   2.253
61631SOL    HW286791   4.602  12.275   2.180
61632SOL     OW86792  11.100   5.073   9.704
61632SOL    HW186793  11.028   5.089   9.643
61632SOL    HW286794  11.146   4.997   9.666
61633SOL     OW86795  10.077  12.764   1.250
61633SOL    HW186796  10.098  12.847   1.207
61633SOL    HW286797  10.160  12.733   1.284
61634SOL     OW86798   2.361   9.951   5.511
61634SOL    HW186799   2.418   9.876   5.495
61634SOL    HW286800   2.279   9.912   5.541
61635SOL     OW86801   5.640  14.729   5.690
61635SOL    HW186802   5.701  14.673   5.739
61635SOL    HW286803   5.678  14.817   5.697
61636SOL     OW86804   6.571   9.187   6.891
61636SOL    HW186805   6.656   9.202   6.932
61636SOL    HW286806   6.525   9.270   6.901
61637SOL     OW86807   2.248   6.442   6.116
61637SOL    HW186808   2.325   6.420   6.169
61637SOL    HW286809   2.241   6.370   6.052
61638SOL     OW86810   7.384   1.082  11.738
61638SOL    HW186811   7.403   1.173  11.758
61638SOL    HW286812   7.305   1.063  11.788
61639SOL     OW86813  13.183   4.637   8.751
61639SOL    HW186814  13.110   4.590   8.792
61639SOL    HW286815  13.154   4.728   8.745
61640SOL     OW86816   0.419  13.855  10.770
61640SOL    HW186817   0.484  13.885  10.707
61640SOL    HW286818   0.444  13.897  10.853
61641SOL     OW86819   2.438   9.718  12.912
61641SOL    HW186820   2.432   9.731  12.818
61641SOL    HW286821   2.363   9.663  12.934
61642SOL     OW86822  11.688   2.177   1.347
61642SOL    HW186823  11.703   2.149   1.257
61642SOL    HW286824  11.729   2.263   1.353
61643SOL     OW86825   6.434  12.697  10.713
61643SOL    HW186826   6.491  12.704  10.637
61643SOL    HW286827   6.494  12.689  10.787
61644SOL     OW86828   5.743   1.205   8.705
61644SOL    HW186829   5.775   1.165   8.785
61644SOL    HW286830   5.655   1.168   8.693
61645SOL     OW86831  12.978   1.762   2.715
61645SOL    HW186832  12.891   1.792   2.739
61645SOL    HW286833  13.016   1.731   2.797
61646SOL     OW86834   9.576   5.637   0.923
61646SOL    HW186835   9.513   5.579   0.967
61646SOL    HW286836   9.660   5.592   0.930
61647SOL     OW86837   2.757   8.525   7.221
61647SOL    HW186838   2.670   8.528   7.260
61647SOL    HW286839   2.814   8.497   7.292
61648SOL     OW86840   9.409   2.584  13.553
61648SOL    HW186841   9.347   2.519  13.584
61648SOL    HW286842   9.494   2.555  13.585
61649SOL     OW86843   8.401   6.961   5.917
61649SOL    HW186844   8.376   6.869   5.916
61649SOL    HW286845   8.326   7.006   5.878
61650SOL     OW86846   7.491   9.061   7.913
61650SOL    HW186847   7.510   9.007   7.836
61650SOL    HW286848   7.475   8.998   7.983
61651SOL     OW86849  10.344  10.335   0.155
61651SOL    HW186850  10.252  10.324   0.130
61651SOL    HW286851  10.391  10.343   0.072
61652SOL     OW86852   6.984  12.569  10.087
61652SOL    HW186853   7.046  12.496  10.077
61652SOL    HW286854   7.040  12.645  10.102
61653SOL     OW86855   3.802   1.019  12.735
61653SOL    HW186856   3.843   1.078  12.671
61653SOL    HW286857   3.779   0.941  12.684
61654SOL     OW86858  10.238  14.858  12.252
61654SOL    HW186859  10.254  14.787  12.316
61654SOL    HW286860  10.192   0.043  12.302
61655SOL     OW86861  11.792   3.717   7.076
61655SOL    HW186862  11.788   3.759   6.991
61655SOL    HW286863  11.714   3.661   7.080
61656SOL     OW86864   3.749  10.763   8.868
61656SOL    HW186865   3.787  10.728   8.788
61656SOL    HW286866   3.670  10.809   8.840
61657SOL     OW86867   6.091   6.389  12.743
61657SOL    HW186868   6.061   6.431  12.663
61657SOL    HW286869   6.078   6.295  12.727
61658SOL     OW86870   5.976   1.858   3.737
61658SOL    HW186871   5.891   1.886   3.769
61658SOL    HW286872   5.972   1.763   3.735
61659SOL     OW86873  14.808   5.779   6.508
61659SOL    HW186874  14.799   5.732   6.425
61659SOL    HW286875  14.782   5.715   6.575
61660SOL     OW86876   3.560   2.733  13.378
61660SOL    HW186877   3.650   2.741  13.348
61660SOL    HW286878   3.529   2.823  13.386
61661SOL     OW86879  12.610   3.598   2.195
61661SOL    HW186880  12.523   3.561   2.180
61661SOL    HW286881  12.623   3.659   2.123
61662SOL     OW86882   1.068  12.246   2.216
61662SOL    HW186883   1.056  12.319   2.156
61662SOL    HW286884   1.076  12.286   2.302
61663SOL     OW86885  11.420   4.916   2.623
61663SOL    HW186886  11.489   4.850   2.613
61663SOL    HW286887  11.371   4.913   2.541
61664SOL     OW86888   8.145  12.406   2.114
61664SOL    HW186889   8.128  12.314   2.133
61664SOL    HW286890   8.195  12.405   2.032
61665SOL     OW86891  14.531  12.390   4.445
61665SOL    HW186892  14.621  12.420   4.441
61665SOL    HW286893  14.532  12.316   4.506
61666SOL     OW86894  14.834  14.824  11.588
61666SOL    HW186895  14.798   0.010  11.644
61666SOL    HW286896   0.040  14.855  11.566
61667SOL     OW86897  14.715  13.409   8.475
61667SOL    HW186898  14.759  13.391   8.558
61667SOL    HW286899  14.695  13.502   8.478
61668SOL     OW86900   1.741   4.727   4.743
61668SOL    HW186901   1.678   4.667   4.784
61668SOL    HW286902   1.826   4.699   4.776
61669SOL     OW86903  14.146   1.175   6.575
61669SOL    HW186904  14.204   1.173   6.500
61669SOL    HW286905  14.155   1.089   6.616
61670SOL     OW86906  12.807   9.912  12.122
61670SOL    HW186907  12.891   9.949  12.148
61670SOL    HW286908  12.779   9.861  12.198
61671SOL     OW86909   9.911   4.316   7.952
61671SOL    HW186910   9.917   4.392   7.894
61671SOL    HW286911   9.982   4.328   8.015
61672SOL     OW86912  14.141   2.539   5.982
61672SOL    HW186913  14.109   2.627   6.001
61672SOL    HW286914  14.087   2.482   6.037
61673SOL     OW86915   5.473   1.573   0.240
61673SOL    HW186916   5.507   1.621   0.165
61673SOL    HW286917   5.405   1.517   0.204
61674SOL     OW86918   1.579  12.700   4.941
61674SOL    HW186919   1.551  12.770   5.001
61674SOL    HW286920   1.674  12.700   4.948
61675SOL     OW86921   7.185   6.887   4.627
61675SOL    HW186922   7.199   6.980   4.644
61675SOL    HW286923   7.253   6.843   4.678
61676SOL     OW86924   7.598   5.423   4.418
61676SOL    HW186925   7.611   5.509   4.377
61676SOL    HW286926   7.614   5.360   4.347
61677SOL     OW86927   8.033   2.494   3.294
61677SOL    HW186928   8.109   2.547   3.274
61677SOL    HW286929   7.959   2.543   3.259
61678SOL     OW86930  11.823  14.372  13.919
61678SOL    HW186931  11.771  14.449  13.940
61678SOL    HW286932  11.806  14.356  13.827
61679SOL     OW86933   0.033  14.661   7.797
61679SOL    HW186934   0.001  14.724   7.862
61679SOL    HW286935   0.009  14.700   7.712
61680SOL     OW86936   3.693   0.338   1.040
61680SOL    HW186937   3.695   0.251   1.002
61680SOL    HW286938   3.767   0.340   1.100
61681SOL     OW86939   7.661   5.484  13.497
61681SOL    HW186940   7.650   5.421  13.569
61681SOL    HW286941   7.742   5.530  13.517
61682SOL     OW86942   9.305   3.193   8.765
61682SOL    HW186943   9.363   3.188   8.841
61682SOL    HW286944   9.316   3.109   8.721
61683SOL     OW86945   0.972   9.366  10.996
61683SOL    HW186946   0.925   9.322  10.926
61683SOL    HW286947   1.037   9.302  11.026
61684SOL     OW86948   4.246   6.719   5.422
61684SOL    HW186949   4.279   6.758   5.504
61684SOL    HW286950   4.281   6.775   5.353
61685SOL     OW86951   2.113   5.006  13.659
61685SOL    HW186952   2.062   4.999  13.740
61685SOL    HW286953   2.177   4.934  13.664
61686SOL     OW86954  11.983   1.729  12.235
61686SOL    HW186955  11.911   1.668  12.218
61686SOL    HW286956  12.016   1.752  12.148
61687SOL     OW86957   6.621  14.119  14.338
61687SOL    HW186958   6.561  14.079  14.275
61687SOL    HW286959   6.701  14.066  14.331
61688SOL     OW86960  11.609   6.453   3.488
61688SOL    HW186961  11.668   6.521   3.454
61688SOL    HW286962  11.563   6.496   3.559
61689SOL     OW86963  12.634  14.215   9.390
61689SOL    HW186964  12.592  14.174   9.466
61689SOL    HW286965  12.588  14.178   9.315
61690SOL     OW86966   7.510  13.643   9.888
61690SOL    HW186967   7.589  13.589   9.898
61690SOL    HW286968   7.537  13.730   9.920
61691SOL     OW86969   5.615   4.295   9.983
61691SOL    HW186970   5.660   4.377   9.964
61691SOL    HW286971   5.538   4.296   9.926
61692SOL     OW86972   2.643   3.356   7.013
61692SOL    HW186973   2.712   3.289   7.012
61692SOL    HW286974   2.632   3.381   6.921
61693SOL     OW86975   9.691   7.251   6.191
61693SOL    HW186976   9.659   7.341   6.194
61693SOL    HW286977   9.654   7.210   6.269
61694SOL     OW86978   0.648  14.342  14.542
61694SOL    HW186979   0.654  14.249  14.519
61694SOL    HW286980   0.563  14.350  14.585
61695SOL     OW86981   5.398   6.010   3.298
61695SOL    HW186982   5.408   6.102   3.274
61695SOL    HW286983   5.448   5.962   3.232
61696SOL     OW86984  13.022   0.996   7.366
61696SOL    HW186985  13.060   0.918   7.324
61696SOL    HW286986  12.946   0.962   7.413
61697SOL     OW86987  11.525   4.206   9.420
61697SOL    HW186988  11.567   4.142   9.363
61697SOL    HW286989  11.543   4.175   9.508
61698SOL     OW86990   2.995   2.432  10.120
61698SOL    HW186991   2.930   2.491  10.157
61698SOL    HW286992   2.970   2.422  10.028
61699SOL     OW86993   9.338  13.470  10.702
61699SOL    HW186994   9.272  13.521  10.656
61699SOL    HW286995   9.309  13.379  10.692
61700SOL     OW86996   5.389   5.239  13.549
61700SOL    HW186997   5.298   5.269  13.550
61700SOL    HW286998   5.383   5.143  13.558
61701SOL     OW86999  12.288   0.491   8.389
61701SOL    HW187000  12.363   0.446   8.350
61701SOL    HW287001  12.212   0.445   8.356
61702SOL     OW87002   8.565  14.000   1.849
61702SOL    HW187003   8.493  13.996   1.787
61702SOL    HW287004   8.570  13.912   1.887
61703SOL     OW87005   4.865  13.860   5.304
61703SOL    HW187006   4.934  13.810   5.261
61703SOL    HW287007   4.869  13.833   5.396
61704SOL     OW87008  12.951   0.112   3.389
61704SOL    HW187009  13.017   0.054   3.426
61704SOL    HW287010  12.960   0.101   3.294
61705SOL     OW87011   9.837   4.708  11.042
61705SOL    HW187012   9.743   4.687  11.037
61705SOL    HW287013   9.880   4.629  11.010
61706SOL     OW87014   2.525   6.880  11.932
61706SOL    HW187015   2.530   6.788  11.959
61706SOL    HW287016   2.446   6.885  11.878
61707SOL     OW87017   1.968   1.377  10.299
61707SOL    HW187018   2.010   1.325  10.367
61707SOL    HW287019   1.950   1.461  10.341
61708SOL     OW87020   7.852   7.250   6.168
61708SOL    HW187021   7.914   7.303   6.218
61708SOL    HW287022   7.857   7.163   6.207
61709SOL     OW87023   8.119   1.733   5.802
61709SOL    HW187024   8.029   1.746   5.834
61709SOL    HW287025   8.120   1.644   5.768
61710SOL     OW87026   3.997   2.246   2.276
61710SOL    HW187027   4.008   2.216   2.366
61710SOL    HW287028   4.024   2.171   2.222
61711SOL     OW87029  10.503   6.691   5.140
61711SOL    HW187030  10.465   6.735   5.064
61711SOL    HW287031  10.577   6.747   5.165
61712SOL     OW87032  12.922   9.552   0.485
61712SOL    HW187033  12.849   9.574   0.543
61712SOL    HW287034  12.884   9.550   0.397
61713SOL     OW87035  11.530   0.364   4.053
61713SOL    HW187036  11.556   0.297   4.117
61713SOL    HW287037  11.593   0.434   4.065
61714SOL     OW87038   1.756   4.838   1.057
61714SOL    HW187039   1.792   4.888   1.131
61714SOL    HW287040   1.706   4.902   1.007
61715SOL     OW87041   9.617  12.023   1.252
61715SOL    HW187042   9.591  12.106   1.212
61715SOL    HW287043   9.559  12.015   1.328
61716SOL     OW87044   9.317   0.471   8.350
61716SOL    HW187045   9.384   0.421   8.396
61716SOL    HW287046   9.367   0.527   8.290
61717SOL     OW87047   1.829  10.640   5.916
61717SOL    HW187048   1.855  10.578   5.848
61717SOL    HW287049   1.792  10.585   5.986
61718SOL     OW87050   6.196  14.566  12.623
61718SOL    HW187051   6.184  14.658  12.597
61718SOL    HW287052   6.108  14.530  12.626
61719SOL     OW87053  10.955   5.450  11.493
61719SOL    HW187054  10.931   5.535  11.456
61719SOL    HW287055  10.880   5.425  11.547
61720SOL     OW87056  14.217   1.577  11.413
61720SOL    HW187057  14.147   1.638  11.392
61720SOL    HW287058  14.180   1.491  11.392
61721SOL     OW87059  13.744   7.396  13.722
61721SOL    HW187060  13.742   7.440  13.637
61721SOL    HW287061  13.801   7.321  13.710
61722SOL     OW87062  10.155   4.157  12.207
61722SOL    HW187063  10.069   4.198  12.204
61722SOL    HW287064  10.216   4.230  12.200
61723SOL     OW87065   5.320   4.367   3.987
61723SOL    HW187066   5.282   4.454   3.973
61723SOL    HW287067   5.249   4.307   3.962
61724SOL     OW87068  13.739  11.216   6.253
61724SOL    HW187069  13.655  11.190   6.291
61724SOL    HW287070  13.752  11.155   6.180
61725SOL     OW87071   0.166   2.762   3.537
61725SOL    HW187072   0.124   2.719   3.611
61725SOL    HW287073   0.097   2.814   3.496
61726SOL     OW87074  10.284  14.121   4.799
61726SOL    HW187075  10.245  14.035   4.813
61726SOL    HW287076  10.337  14.138   4.877
61727SOL     OW87077   4.903  12.669   6.958
61727SOL    HW187078   4.876  12.586   6.920
61727SOL    HW287079   4.866  12.669   7.046
61728SOL     OW87080   8.832  14.279   0.060
61728SOL    HW187081   8.797  14.202   0.107
61728SOL    HW287082   8.762  14.304   0.000
61729SOL     OW87083   0.229   5.448   5.800
61729SOL    HW187084   0.177   5.443   5.880
61729SOL    HW287085   0.242   5.357   5.774
61730SOL     OW87086   8.862   9.250   7.207
61730SOL    HW187087   8.889   9.196   7.281
61730SOL    HW287088   8.916   9.328   7.213
61731SOL     OW87089   9.574   7.290   3.481
61731SOL    HW187090   9.576   7.285   3.576
61731SOL    HW287091   9.513   7.361   3.462
61732SOL     OW87092   5.565   6.710   0.689
61732SOL    HW187093   5.523   6.791   0.661
61732SOL    HW287094   5.650   6.712   0.645
61733SOL     OW87095  12.705   9.911   8.874
61733SOL    HW187096  12.725   9.821   8.848
61733SOL    HW287097  12.780   9.963   8.846
61734SOL     OW87098  11.053   7.317  10.807
61734SOL    HW187099  11.126   7.268  10.844
61734SOL    HW287100  11.082   7.339  10.718
61735SOL     OW87101   1.177   8.279   0.917
61735SOL    HW187102   1.262   8.249   0.884
61735SOL    HW287103   1.196   8.321   1.000
61736SOL     OW87104   1.798   3.561   7.266
61736SOL    HW187105   1.820   3.469   7.282
61736SOL    HW287106   1.797   3.600   7.353
61737SOL     OW87107  13.838  10.912  12.524
61737SOL    HW187108  13.903  10.952  12.583
61737SOL    HW287109  13.871  10.929  12.436
61738SOL     OW87110   6.772   9.924  12.723
61738SOL    HW187111   6.861   9.961  12.727
61738SOL    HW287112   6.720   9.991  12.679
61739SOL     OW87113   4.084   6.463  12.773
61739SOL    HW187114   4.030   6.491  12.698
61739SOL    HW287115   4.117   6.377  12.747
61740SOL     OW87116   1.439   8.850  10.375
61740SOL    HW187117   1.472   8.833  10.463
61740SOL    HW287118   1.394   8.934  10.382
61741SOL     OW87119  14.740   5.665   2.632
61741SOL    HW187120  14.835   5.673   2.621
61741SOL    HW287121  14.704   5.687   2.546
61742SOL     OW87122   4.364   3.258  10.576
61742SOL    HW187123   4.378   3.230  10.667
61742SOL    HW287124   4.363   3.176  10.526
61743SOL     OW87125  13.757   2.905   5.618
61743SOL    HW187126  13.835   2.872   5.572
61743SOL    HW287127  13.710   2.954   5.551
61744SOL     OW87128   6.692  14.029   0.883
61744SOL    HW187129   6.674  13.935   0.888
61744SOL    HW287130   6.757  14.045   0.951
61745SOL     OW87131   5.371   8.226   3.213
61745SOL    HW187132   5.335   8.216   3.125
61745SOL    HW287133   5.453   8.176   3.211
61746SOL     OW87134   1.342   4.671   5.090
61746SOL    HW187135   1.360   4.631   5.005
61746SOL    HW287136   1.421   4.722   5.110
61747SOL     OW87137  12.432   3.779   7.401
61747SOL    HW187138  12.484   3.742   7.330
61747SOL    HW287139  12.369   3.837   7.357
61748SOL     OW87140   2.337   5.519   9.227
61748SOL    HW187141   2.403   5.554   9.286
61748SOL    HW287142   2.376   5.438   9.192
61749SOL     OW87143  12.901  13.642   9.537
61749SOL    HW187144  12.939  13.656   9.450
61749SOL    HW287145  12.809  13.622   9.520
61750SOL     OW87146   3.466   6.233   9.221
61750SOL    HW187147   3.451   6.211   9.314
61750SOL    HW287148   3.405   6.305   9.204
61751SOL     OW87149   6.018  12.695  13.324
61751SOL    HW187150   6.033  12.789  13.320
61751SOL    HW287151   6.005  12.668  13.233
61752SOL     OW87152   4.412   1.089  14.043
61752SOL    HW187153   4.327   1.059  14.075
61752SOL    HW287154   4.418   1.053  13.954
61753SOL     OW87155  12.582   0.800   8.482
61753SOL    HW187156  12.645   0.740   8.522
61753SOL    HW287157  12.528   0.830   8.555
61754SOL     OW87158   2.000   6.545   6.121
61754SOL    HW187159   1.968   6.506   6.202
61754SOL    HW287160   2.093   6.522   6.117
61755SOL     OW87161   8.104  13.885   6.584
61755SOL    HW187162   8.021  13.837   6.590
61755SOL    HW287163   8.134  13.892   6.674
61756SOL     OW87164   8.812   2.965  14.604
61756SOL    HW187165   8.738   2.904  14.595
61756SOL    HW287166   8.786   3.024  14.674
61757SOL     OW87167  11.321  14.470   5.261
61757SOL    HW187168  11.293  14.554   5.298
61757SOL    HW287169  11.351  14.492   5.172
61758SOL     OW87170   0.017  14.587  13.947
61758SOL    HW187171   0.032  14.660  14.007
61758SOL    HW287172   0.011  14.510  14.004
61759SOL     OW87173   4.167  12.432   6.405
61759SOL    HW187174   4.259  12.457   6.408
61759SOL    HW287175   4.123  12.506   6.364
61760SOL     OW87176   5.453   0.324   6.320
61760SOL    HW187177   5.394   0.394   6.347
61760SOL    HW287178   5.541   0.360   6.334
61761SOL     OW87179   2.354   4.780  11.383
61761SOL    HW187180   2.274   4.728  11.389
61761SOL    HW287181   2.404   4.739  11.313
61762SOL     OW87182  12.165   5.171   9.207
61762SOL    HW187183  12.191   5.259   9.182
61762SOL    HW287184  12.244   5.132   9.245
61763SOL     OW87185   2.266   0.513  10.807
61763SOL    HW187186   2.234   0.497  10.718
61763SOL    HW287187   2.186   0.517  10.860
61764SOL     OW87188  14.055   2.573   1.678
61764SOL    HW187189  13.960   2.582   1.683
61764SOL    HW287190  14.075   2.577   1.585
61765SOL     OW87191   2.487   6.587   4.605
61765SOL    HW187192   2.494   6.646   4.679
61765SOL    HW287193   2.393   6.568   4.599
61766SOL     OW87194  14.208  11.972   2.877
61766SOL    HW187195  14.151  11.983   2.953
61766SOL    HW287196  14.272  12.043   2.884
61767SOL     OW87197   3.233   6.717  12.507
61767SOL    HW187198   3.159   6.758  12.463
61767SOL    HW287199   3.222   6.740  12.600
61768SOL     OW87200   9.389   2.428   0.288
61768SOL    HW187201   9.352   2.509   0.322
61768SOL    HW287202   9.402   2.373   0.366
61769SOL     OW87203   0.801  13.172   0.082
61769SOL    HW187204   0.817  13.103   0.018
61769SOL    HW287205   0.756  13.128   0.154
61770SOL     OW87206  14.049   7.671  14.149
61770SOL    HW187207  14.019   7.591  14.107
61770SOL    HW287208  14.011   7.741  14.095
61771SOL     OW87209   8.661  14.590  10.108
61771SOL    HW187210   8.718  14.576  10.032
61771SOL    HW287211   8.720  14.588  10.183
61772SOL     OW87212  11.379   1.727  12.698
61772SOL    HW187213  11.427   1.669  12.758
61772SOL    HW287214  11.448   1.780  12.657
61773SOL     OW87215   7.519   7.769   3.691
61773SOL    HW187216   7.424   7.764   3.677
61773SOL    HW287217   7.529   7.827   3.766
61774SOL     OW87218   2.945   8.280   1.975
61774SOL    HW187219   2.951   8.353   2.036
61774SOL    HW287220   2.929   8.203   2.030
61775SOL     OW87221  13.872   1.963   5.303
61775SOL    HW187222  13.932   2.022   5.258
61775SOL    HW287223  13.926   1.917   5.367
61776SOL     OW87224   8.947  12.626   5.376
61776SOL    HW187225   9.026  12.677   5.358
61776SOL    HW287226   8.888  12.648   5.304
61777SOL     OW87227   1.037  14.145   2.416
61777SOL    HW187228   1.127  14.178   2.414
61777SOL    HW287229   1.042  14.066   2.471
61778SOL     OW87230   9.894   2.162  11.311
61778SOL    HW187231   9.836   2.086  11.300
61778SOL    HW287232   9.846   2.234  11.271
61779SOL     OW87233   9.912   3.923   8.085
61779SOL    HW187234   9.914   3.953   7.994
61779SOL    HW287235   9.823   3.892   8.098
61780SOL     OW87236   2.555   8.728   5.033
61780SOL    HW187237   2.555   8.653   4.974
61780SOL    HW287238   2.577   8.803   4.978
61781SOL     OW87239   3.010   1.905   0.437
61781SOL    HW187240   2.995   1.958   0.515
61781SOL    HW287241   3.104   1.888   0.437
61782SOL     OW87242   9.401   5.934  10.376
61782SOL    HW187243   9.311   5.953  10.404
61782SOL    HW287244   9.391   5.860  10.316
61783SOL     OW87245  13.593  14.733   3.036
61783SOL    HW187246  13.524  14.680   2.997
61783SOL    HW287247  13.639  14.773   2.962
61784SOL     OW87248   0.216   7.477  11.385
61784SOL    HW187249   0.241   7.428  11.306
61784SOL    HW287250   0.120   7.477  11.384
61785SOL     OW87251  14.500   7.300   8.932
61785SOL    HW187252  14.549   7.303   9.014
61785SOL    HW287253  14.563   7.329   8.866
61786SOL     OW87254   3.438   5.369  12.324
61786SOL    HW187255   3.453   5.463  12.318
61786SOL    HW287256   3.346   5.357  12.299
61787SOL     OW87257  10.704   6.779  11.230
61787SOL    HW187258  10.644   6.759  11.158
61787SOL    HW287259  10.647   6.794  11.306
61788SOL     OW87260   3.868   7.209  12.407
61788SOL    HW187261   3.797   7.248  12.458
61788SOL    HW287262   3.939   7.198  12.470
61789SOL     OW87263   4.099   9.510  13.250
61789SOL    HW187264   4.176   9.457  13.227
61789SOL    HW287265   4.034   9.446  13.278
61790SOL     OW87266  13.560  12.895   0.071
61790SOL    HW187267  13.526  12.884  14.865
61790SOL    HW287268  13.655  12.896   0.060
61791SOL     OW87269  10.259   3.059   6.049
61791SOL    HW187270  10.169   3.067   6.080
61791SOL    HW287271  10.300   2.996   6.109
61792SOL     OW87272   5.302   2.391   4.781
61792SOL    HW187273   5.238   2.448   4.739
61792SOL    HW287274   5.266   2.303   4.769
61793SOL     OW87275  12.935   4.961   4.757
61793SOL    HW187276  12.874   5.011   4.811
61793SOL    HW287277  13.021   4.990   4.785
61794SOL     OW87278   8.234  14.301  13.394
61794SOL    HW187279   8.272  14.284  13.481
61794SOL    HW287280   8.188  14.384  13.403
61795SOL     OW87281   4.793   7.886   4.579
61795SOL    HW187282   4.820   7.929   4.498
61795SOL    HW287283   4.855   7.813   4.589
61796SOL     OW87284   8.734   2.650  11.204
61796SOL    HW187285   8.658   2.609  11.163
61796SOL    HW287286   8.745   2.604  11.286
61797SOL     OW87287   3.946   9.142  11.292
61797SOL    HW187288   4.017   9.148  11.355
61797SOL    HW287289   3.956   9.055  11.253
61798SOL     OW87290  13.100  13.797   5.352
61798SOL    HW187291  13.079  13.876   5.302
61798SOL    HW287292  13.154  13.828   5.425
61799SOL     OW87293  14.443   2.181  13.779
61799SOL    HW187294  14.513   2.117  13.773
61799SOL    HW287295  14.447   2.213  13.869
61800SOL     OW87296  14.691   7.921   5.881
61800SOL    HW187297  14.679   7.833   5.847
61800SOL    HW287298  14.658   7.917   5.971
61801SOL     OW87299  11.846  12.381  12.630
61801SOL    HW187300  11.844  12.295  12.588
61801SOL    HW287301  11.939  12.394  12.653
61802SOL     OW87302   3.807   3.481  11.806
61802SOL    HW187303   3.724   3.523  11.830
61802SOL    HW287304   3.866   3.552  11.783
61803SOL     OW87305   9.439   4.765   1.310
61803SOL    HW187306   9.400   4.693   1.360
61803SOL    HW287307   9.401   4.757   1.223
61804SOL     OW87308  13.427  13.477   2.733
61804SOL    HW187309  13.517  13.471   2.767
61804SOL    HW287310  13.373  13.492   2.811
61805SOL     OW87311   6.580  12.871  14.047
61805SOL    HW187312   6.560  12.953  14.092
61805SOL    HW287313   6.534  12.804  14.098
61806SOL     OW87314   5.007   9.890   8.377
61806SOL    HW187315   5.050   9.836   8.443
61806SOL    HW287316   4.923   9.847   8.362
61807SOL     OW87317  10.680  11.887  12.189
61807SOL    HW187318  10.639  11.840  12.261
61807SOL    HW287319  10.663  11.833  12.112
61808SOL     OW87320   2.093  14.070   9.146
61808SOL    HW187321   2.013  14.121   9.137
61808SOL    HW287322   2.121  14.085   9.236
61809SOL     OW87323   7.266   1.068   9.076
61809SOL    HW187324   7.221   0.994   9.036
61809SOL    HW287325   7.269   1.046   9.169
61810SOL     OW87326  13.226  10.544   5.076
61810SOL    HW187327  13.247  10.492   5.154
61810SOL    HW287328  13.190  10.480   5.014
61811SOL     OW87329   4.327   9.199   5.416
61811SOL    HW187330   4.375   9.180   5.496
61811SOL    HW287331   4.235   9.182   5.439
61812SOL     OW87332   2.341  11.900  13.110
61812SOL    HW187333   2.246  11.903  13.113
61812SOL    HW287334   2.370  11.981  13.153
61813SOL     OW87335  11.124   6.115   0.931
61813SOL    HW187336  11.104   6.051   0.863
61813SOL    HW287337  11.104   6.070   1.013
61814SOL     OW87338   1.098   7.299  12.892
61814SOL    HW187339   1.157   7.287  12.817
61814SOL    HW287340   1.127   7.380  12.933
61815SOL     OW87341   5.773   9.399  10.155
61815SOL    HW187342   5.740   9.419  10.243
61815SOL    HW287343   5.809   9.483  10.125
61816SOL     OW87344  13.954   2.603   4.711
61816SOL    HW187345  13.909   2.529   4.753
61816SOL    HW287346  13.979   2.569   4.625
61817SOL     OW87347   0.408   7.136   6.848
61817SOL    HW187348   0.330   7.096   6.810
61817SOL    HW287349   0.441   7.194   6.780
61818SOL     OW87350   1.534  12.154   9.574
61818SOL    HW187351   1.553  12.137   9.667
61818SOL    HW287352   1.470  12.087   9.550
61819SOL     OW87353   2.196  14.508   6.060
61819SOL    HW187354   2.198  14.554   5.976
61819SOL    HW287355   2.123  14.447   6.052
61820SOL     OW87356  10.603  10.357   4.582
61820SOL    HW187357  10.588  10.451   4.569
61820SOL    HW287358  10.534  10.315   4.530
61821SOL     OW87359  13.528  10.428   0.621
61821SOL    HW187360  13.555  10.355   0.678
61821SOL    HW287361  13.589  10.425   0.547
61822SOL     OW87362  14.159   6.968   3.923
61822SOL    HW187363  14.121   6.881   3.936
61822SOL    HW287364  14.085   7.028   3.925
61823SOL     OW87365  11.444   1.025   1.857
61823SOL    HW187366  11.484   1.058   1.776
61823SOL    HW287367  11.378   1.091   1.879
61824SOL     OW87368   2.764   7.012   1.595
61824SOL    HW187369   2.701   7.064   1.547
61824SOL    HW287370   2.848   7.056   1.581
61825SOL     OW87371  12.108   8.533   2.828
61825SOL    HW187372  12.013   8.520   2.830
61825SOL    HW287373  12.119   8.626   2.809
61826SOL     OW87374   6.979  13.158   5.080
61826SOL    HW187375   6.934  13.242   5.092
61826SOL    HW287376   6.993  13.152   4.986
61827SOL     OW87377  10.697  12.184   5.562
61827SOL    HW187378  10.735  12.180   5.474
61827SOL    HW287379  10.637  12.259   5.558
61828SOL     OW87380   1.929   3.959   9.294
61828SOL    HW187381   1.898   3.876   9.257
61828SOL    HW287382   2.023   3.959   9.277
61829SOL     OW87383   7.475   9.000  13.250
61829SOL    HW187384   7.479   9.084  13.204
61829SOL    HW287385   7.522   8.940  13.193
61830SOL     OW87386  10.429  10.718  14.590
61830SOL    HW187387  10.397  10.808  14.603
61830SOL    HW287388  10.393  10.669  14.663
61831SOL     OW87389   9.187   0.218   5.549
61831SOL    HW187390   9.173   0.298   5.499
61831SOL    HW287391   9.129   0.154   5.508
61832SOL     OW87392   9.302   7.599  11.878
61832SOL    HW187393   9.330   7.680  11.836
61832SOL    HW287394   9.380   7.543  11.876
61833SOL     OW87395   2.998   8.835  13.322
61833SOL    HW187396   3.068   8.880  13.370
61833SOL    HW287397   2.962   8.772  13.385
61834SOL     OW87398   3.238  11.638   2.437
61834SOL    HW187399   3.152  11.628   2.396
61834SOL    HW287400   3.249  11.559   2.489
61835SOL     OW87401  10.668   0.933   2.565
61835SOL    HW187402  10.657   0.870   2.636
61835SOL    HW287403  10.748   0.905   2.520
61836SOL     OW87404   6.296   5.947   5.389
61836SOL    HW187405   6.386   5.967   5.363
61836SOL    HW287406   6.252   6.031   5.390
61837SOL     OW87407  13.384   1.828  11.603
61837SOL    HW187408  13.397   1.824  11.508
61837SOL    HW287409  13.293   1.858  11.614
61838SOL     OW87410   2.298   7.502   3.108
61838SOL    HW187411   2.319   7.412   3.083
61838SOL    HW287412   2.247   7.494   3.188
61839SOL     OW87413   2.191  12.217   7.664
61839SOL    HW187414   2.137  12.250   7.735
61839SOL    HW287415   2.136  12.153   7.619
61840SOL     OW87416  12.210   4.953   3.137
61840SOL    HW187417  12.283   4.986   3.084
61840SOL    HW287418  12.239   4.867   3.167
61841SOL     OW87419  10.395   3.405  12.266
61841SOL    HW187420  10.472   3.428  12.214
61841SOL    HW287421  10.431   3.357  12.341
61842SOL     OW87422   2.143   6.532  14.220
61842SOL    HW187423   2.079   6.601  14.201
61842SOL    HW287424   2.201   6.530  14.144
61843SOL     OW87425   7.133   8.449   0.098
61843SOL    HW187426   7.147   8.376   0.038
61843SOL    HW287427   7.169   8.419   0.182
61844SOL     OW87428   3.436  10.369  11.749
61844SOL    HW187429   3.496  10.310  11.794
61844SOL    HW287430   3.454  10.455  11.786
61845SOL     OW87431   7.285  13.132  14.653
61845SOL    HW187432   7.269  13.040  14.633
61845SOL    HW287433   7.369  13.133  14.699
61846SOL     OW87434   2.803  11.920   9.452
61846SOL    HW187435   2.862  11.987   9.417
61846SOL    HW287436   2.860  11.847   9.475
61847SOL     OW87437   3.152   4.599  11.919
61847SOL    HW187438   3.246   4.589  11.939
61847SOL    HW287439   3.148   4.679  11.867
61848SOL     OW87440  11.510   0.393   6.095
61848SOL    HW187441  11.442   0.337   6.059
61848SOL    HW287442  11.531   0.354   6.180
61849SOL     OW87443  12.464   9.824  13.901
61849SOL    HW187444  12.547   9.788  13.870
61849SOL    HW287445  12.483   9.852  13.991
61850SOL     OW87446  14.709   6.789   8.247
61850SOL    HW187447  14.770   6.835   8.305
61850SOL    HW287448  14.648   6.857   8.217
61851SOL     OW87449  14.353   9.322   8.894
61851SOL    HW187450  14.320   9.252   8.838
61851SOL    HW287451  14.409   9.374   8.836
61852SOL     OW87452   8.310   8.987   3.219
61852SOL    HW187453   8.266   8.917   3.170
61852SOL    HW287454   8.324   8.950   3.306
61853SOL     OW87455  12.764  13.689  14.663
61853SOL    HW187456  12.733  13.697  14.573
61853SOL    HW287457  12.793  13.598  14.670
61854SOL     OW87458   1.536   4.804   4.091
61854SOL    HW187459   1.566   4.831   4.177
61854SOL    HW287460   1.441   4.796   4.099
61855SOL     OW87461  10.592  10.011   5.151
61855SOL    HW187462  10.584   9.932   5.099
61855SOL    HW287463  10.522  10.068   5.119
61856SOL     OW87464   8.555  10.800  12.830
61856SOL    HW187465   8.521  10.734  12.769
61856SOL    HW287466   8.482  10.817  12.890
61857SOL     OW87467  14.057   5.476  12.315
61857SOL    HW187468  14.022   5.387  12.323
61857SOL    HW287469  14.152   5.463  12.305
61858SOL     OW87470   1.063  13.094   6.985
61858SOL    HW187471   1.036  13.183   6.964
61858SOL    HW287472   0.994  13.060   7.042
61859SOL     OW87473  14.528   5.076  10.409
61859SOL    HW187474  14.588   5.151  10.403
61859SOL    HW287475  14.564   5.012  10.348
61860SOL     OW87476   8.286  13.656   6.913
61860SOL    HW187477   8.228  13.590   6.875
61860SOL    HW287478   8.236  13.737   6.908
61861SOL     OW87479   9.545   4.408   4.408
61861SOL    HW187480   9.537   4.440   4.318
61861SOL    HW287481   9.505   4.321   4.406
61862SOL     OW87482   5.952   4.389  10.584
61862SOL    HW187483   5.873   4.336  10.587
61862SOL    HW287484   6.022   4.327  10.568
61863SOL     OW87485   6.664   7.997   4.441
61863SOL    HW187486   6.582   7.990   4.490
61863SOL    HW287487   6.719   7.928   4.476
61864SOL     OW87488   3.010  11.760   1.745
61864SOL    HW187489   3.085  11.763   1.804
61864SOL    HW287490   2.936  11.791   1.798
61865SOL     OW87491   0.711   2.138   8.052
61865SOL    HW187492   0.674   2.167   7.969
61865SOL    HW287493   0.637   2.136   8.112
61866SOL     OW87494   0.874  12.016  12.202
61866SOL    HW187495   0.863  11.923  12.184
61866SOL    HW287496   0.897  12.054  12.117
61867SOL     OW87497   8.776  12.432  10.063
61867SOL    HW187498   8.865  12.406  10.039
61867SOL    HW287499   8.744  12.361  10.118
61868SOL     OW87500  14.256   7.549  12.511
61868SOL    HW187501  14.181   7.517  12.461
61868SOL    HW287502  14.324   7.564  12.444
61869SOL     OW87503  11.645   7.108   6.974
61869SOL    HW187504  11.643   7.057   6.894
61869SOL    HW287505  11.704   7.181   6.955
61870SOL     OW87506  12.836  10.886  14.409
61870SOL    HW187507  12.877  10.852  14.330
61870SOL    HW287508  12.821  10.809  14.464
61871SOL     OW87509   6.488   3.462  13.233
61871SOL    HW187510   6.460   3.553  13.237
61871SOL    HW287511   6.566   3.463  13.176
61872SOL     OW87512   4.420  12.248   7.054
61872SOL    HW187513   4.402  12.232   6.961
61872SOL    HW287514   4.501  12.199   7.071
61873SOL     OW87515  14.129  11.362   1.229
61873SOL    HW187516  14.185  11.326   1.160
61873SOL    HW287517  14.107  11.450   1.199
61874SOL     OW87518   5.101   5.027   0.657
61874SOL    HW187519   5.101   4.936   0.688
61874SOL    HW287520   5.107   5.020   0.561
61875SOL     OW87521  12.881  10.979   8.655
61875SOL    HW187522  12.936  11.008   8.728
61875SOL    HW287523  12.806  11.038   8.655
61876SOL     OW87524  10.002   7.471  10.956
61876SOL    HW187525  10.027   7.544  11.013
61876SOL    HW287526  10.020   7.393  11.008
61877SOL     OW87527   4.563   6.746   3.452
61877SOL    HW187528   4.607   6.829   3.471
61877SOL    HW287529   4.483   6.748   3.504
61878SOL     OW87530  13.052  13.363   0.701
61878SOL    HW187531  13.014  13.433   0.649
61878SOL    HW287532  13.026  13.282   0.657
61879SOL     OW87533   7.764   8.269   3.096
61879SOL    HW187534   7.742   8.180   3.121
61879SOL    HW287535   7.796   8.261   3.006
61880SOL     OW87536   6.866   5.043   1.862
61880SOL    HW187537   6.952   5.084   1.873
61880SOL    HW287538   6.805   5.116   1.850
61881SOL     OW87539   6.778   1.263   4.911
61881SOL    HW187540   6.811   1.272   5.001
61881SOL    HW287541   6.833   1.322   4.859
61882SOL     OW87542   9.283   5.520   7.505
61882SOL    HW187543   9.215   5.561   7.451
61882SOL    HW287544   9.238   5.495   7.585
61883SOL     OW87545   0.619   0.154  11.622
61883SOL    HW187546   0.628   0.059  11.615
61883SOL    HW287547   0.597   0.182  11.533
61884SOL     OW87548   8.766   1.317   3.440
61884SOL    HW187549   8.747   1.410   3.424
61884SOL    HW287550   8.857   1.317   3.471
61885SOL     OW87551  13.952   0.602   2.412
61885SOL    HW187552  13.903   0.598   2.493
61885SOL    HW287553  13.902   0.662   2.356
61886SOL     OW87554   0.780   1.067   9.724
61886SOL    HW187555   0.768   1.110   9.640
61886SOL    HW287556   0.691   1.060   9.760
61887SOL     OW87557   1.984   1.590  12.046
61887SOL    HW187558   1.889   1.582  12.038
61887SOL    HW287559   1.999   1.626  12.133
61888SOL     OW87560   2.970   9.756  10.417
61888SOL    HW187561   3.041   9.701  10.450
61888SOL    HW287562   3.011   9.840  10.398
61889SOL     OW87563   4.816   1.393   1.626
61889SOL    HW187564   4.818   1.448   1.705
61889SOL    HW287565   4.723   1.372   1.614
61890SOL     OW87566  14.506   1.362   1.901
61890SOL    HW187567  14.487   1.270   1.882
61890SOL    HW287568  14.466   1.378   1.987
61891SOL     OW87569   1.455   2.674   2.099
61891SOL    HW187570   1.501   2.654   2.181
61891SOL    HW287571   1.362   2.676   2.123
61892SOL     OW87572  14.718   0.930  11.458
61892SOL    HW187573  14.695   0.946  11.367
61892SOL    HW287574  14.765   0.846  11.457
61893SOL     OW87575   6.530   0.173   6.505
61893SOL    HW187576   6.459   0.126   6.548
61893SOL    HW287577   6.499   0.187   6.415
61894SOL     OW87578   6.176   1.033  13.189
61894SOL    HW187579   6.220   0.975  13.127
61894SOL    HW287580   6.140   0.973  13.255
61895SOL     OW87581   1.069   9.054   2.102
61895SOL    HW187582   0.991   9.038   2.155
61895SOL    HW287583   1.075   9.150   2.097
61896SOL     OW87584  11.333  12.986  10.271
61896SOL    HW187585  11.251  12.990  10.222
61896SOL    HW287586  11.359  13.077  10.283
61897SOL     OW87587   9.213   0.321   9.173
61897SOL    HW187588   9.146   0.357   9.116
61897SOL    HW287589   9.189   0.350   9.261
61898SOL     OW87590  14.169   9.646  12.106
61898SOL    HW187591  14.124   9.667  12.024
61898SOL    HW287592  14.099   9.645  12.171
61899SOL     OW87593  11.310   5.556   6.597
61899SOL    HW187594  11.290   5.480   6.651
61899SOL    HW287595  11.224   5.594   6.578
61900SOL     OW87596   0.882  14.550   6.686
61900SOL    HW187597   0.900  14.468   6.733
61900SOL    HW287598   0.943  14.613   6.723
61901SOL     OW87599  11.993   4.643   8.288
61901SOL    HW187600  11.988   4.568   8.229
61901SOL    HW287601  11.902   4.657   8.316
61902SOL     OW87602   8.086   6.146  10.493
61902SOL    HW187603   8.015   6.121  10.552
61902SOL    HW287604   8.154   6.081  10.508
61903SOL     OW87605  14.279   1.467   6.704
61903SOL    HW187606  14.221   1.541   6.686
61903SOL    HW287607  14.262   1.405   6.633
61904SOL     OW87608   2.588   0.965   1.566
61904SOL    HW187609   2.497   0.980   1.542
61904SOL    HW287610   2.630   1.051   1.556
61905SOL     OW87611   3.248   7.398  11.688
61905SOL    HW187612   3.230   7.490  11.709
61905SOL    HW287613   3.183   7.376  11.621
61906SOL     OW87614  10.076  13.067   1.267
61906SOL    HW187615  10.057  13.157   1.293
61906SOL    HW287616  10.080  13.018   1.349
61907SOL     OW87617   3.076   5.787   8.984
61907SOL    HW187618   3.000   5.752   8.937
61907SOL    HW287619   3.069   5.882   8.975
61908SOL     OW87620   3.643   1.018   2.449
61908SOL    HW187621   3.629   1.059   2.534
61908SOL    HW287622   3.628   0.925   2.464
61909SOL     OW87623   8.756   1.841  13.208
61909SOL    HW187624   8.670   1.850  13.166
61909SOL    HW287625   8.736   1.803  13.294
61910SOL     OW87626   3.366  12.138  14.877
61910SOL    HW187627   3.369  12.147   0.090
61910SOL    HW287628   3.433  12.198  14.845
61911SOL     OW87629  10.725   4.562   9.629
61911SOL    HW187630  10.793   4.519   9.578
61911SOL    HW287631  10.682   4.491   9.676
61912SOL     OW87632  13.137   5.938  11.943
61912SOL    HW187633  13.120   5.852  11.905
61912SOL    HW287634  13.167   5.991  11.869
61913SOL     OW87635   4.788  13.695   7.583
61913SOL    HW187636   4.708  13.680   7.634
61913SOL    HW287637   4.824  13.775   7.619
61914SOL     OW87638  10.709   7.797  12.314
61914SOL    HW187639  10.715   7.891  12.297
61914SOL    HW287640  10.628   7.770  12.270
61915SOL     OW87641   9.573   3.920   4.476
61915SOL    HW187642   9.573   3.892   4.384
61915SOL    HW287643   9.541   4.010   4.473
61916SOL     OW87644  12.805  12.981   8.303
61916SOL    HW187645  12.753  12.975   8.223
61916SOL    HW287646  12.857  13.061   8.291
61917SOL     OW87647   3.614   5.644   4.057
61917SOL    HW187648   3.620   5.598   4.141
61917SOL    HW287649   3.613   5.737   4.080
61918SOL     OW87650  14.408   3.687   3.985
61918SOL    HW187651  14.500   3.694   3.958
61918SOL    HW287652  14.360   3.674   3.903
61919SOL     OW87653  14.824   1.874  14.097
61919SOL    HW187654  14.790   1.866  14.186
61919SOL    HW287655  14.820   1.967  14.077
61920SOL     OW87656  14.073   3.572  13.525
61920SOL    HW187657  14.166   3.577  13.546
61920SOL    HW287658  14.059   3.481  13.497
61921SOL     OW87659  12.359   6.310  14.634
61921SOL    HW187660  12.387   6.361  14.558
61921SOL    HW287661  12.327   6.376  14.696
61922SOL     OW87662   0.626   3.511  11.394
61922SOL    HW187663   0.639   3.537  11.303
61922SOL    HW287664   0.701   3.455  11.413
61923SOL     OW87665   2.261  12.365   2.271
61923SOL    HW187666   2.286  12.337   2.359
61923SOL    HW287667   2.343  12.388   2.228
61924SOL     OW87668   9.168   8.424  11.893
61924SOL    HW187669   9.131   8.416  11.981
61924SOL    HW287670   9.224   8.501  11.898
61925SOL     OW87671  14.320  10.657   6.082
61925SOL    HW187672  14.370  10.713   6.024
61925SOL    HW287673  14.371  10.576   6.088
61926SOL     OW87674  13.356  11.835  11.899
61926SOL    HW187675  13.434  11.879  11.933
61926SOL    HW287676  13.283  11.889  11.929
61927SOL     OW87677   5.744   7.668   6.443
61927SOL    HW187678   5.759   7.577   6.418
61927SOL    HW287679   5.693   7.663   6.524
61928SOL     OW87680   8.105   9.748   0.666
61928SOL    HW187681   8.173   9.704   0.717
61928SOL    HW287682   8.147   9.826   0.631
61929SOL     OW87683  13.581   0.629   9.007
61929SOL    HW187684  13.515   0.560   9.009
61929SOL    HW287685  13.560   0.685   9.082
61930SOL     OW87686   5.314  11.461   8.996
61930SOL    HW187687   5.368  11.474   8.918
61930SOL    HW287688   5.376  11.437   9.064
61931SOL     OW87689   9.138  12.523   8.274
61931SOL    HW187690   9.182  12.539   8.358
61931SOL    HW287691   9.070  12.590   8.271
61932SOL     OW87692   3.005   3.587   6.837
61932SOL    HW187693   2.929   3.644   6.843
61932SOL    HW287694   2.970   3.498   6.847
61933SOL     OW87695   7.637   5.949   4.032
61933SOL    HW187696   7.640   5.946   3.937
61933SOL    HW287697   7.679   6.032   4.055
61934SOL     OW87698  13.258  14.320   4.145
61934SOL    HW187699  13.237  14.280   4.230
61934SOL    HW287700  13.214  14.405   4.148
61935SOL     OW87701   8.226  11.448   3.691
61935SOL    HW187702   8.308  11.398   3.687
61935SOL    HW287703   8.244  11.518   3.754
61936SOL     OW87704   1.694  14.221   3.677
61936SOL    HW187705   1.773  14.213   3.623
61936SOL    HW287706   1.726  14.253   3.761
61937SOL     OW87707   0.404  13.551   0.108
61937SOL    HW187708   0.477  13.533   0.167
61937SOL    HW287709   0.425  13.503   0.028
61938SOL     OW87710   7.313   2.201   1.492
61938SOL    HW187711   7.341   2.133   1.431
61938SOL    HW287712   7.326   2.283   1.444
61939SOL     OW87713   5.335  10.323  10.991
61939SOL    HW187714   5.398  10.251  10.998
61939SOL    HW287715   5.274  10.309  11.063
61940SOL     OW87716   8.426  12.262   1.983
61940SOL    HW187717   8.467  12.183   1.948
61940SOL    HW287718   8.470  12.334   1.938
61941SOL     OW87719  12.666   8.910   4.306
61941SOL    HW187720  12.724   8.837   4.326
61941SOL    HW287721  12.592   8.871   4.260
61942SOL     OW87722  10.549  14.489   8.553
61942SOL    HW187723  10.639  14.470   8.581
61942SOL    HW287724  10.507  14.526   8.630
61943SOL     OW87725   8.791  10.523  14.208
61943SOL    HW187726   8.878  10.524  14.249
61943SOL    HW287727   8.809  10.520  14.114
61944SOL     OW87728  12.599   1.399   1.061
61944SOL    HW187729  12.511   1.398   1.097
61944SOL    HW287730  12.589   1.434   0.972
61945SOL     OW87731   4.391   0.448   1.839
61945SOL    HW187732   4.311   0.396   1.835
61945SOL    HW287733   4.448   0.409   1.772
61946SOL     OW87734  11.756  10.785   8.583
61946SOL    HW187735  11.691  10.758   8.648
61946SOL    HW287736  11.710  10.778   8.500
61947SOL     OW87737   4.638  13.067   6.787
61947SOL    HW187738   4.612  12.977   6.766
61947SOL    HW287739   4.688  13.059   6.868
61948SOL     OW87740  14.215  12.555   0.104
61948SOL    HW187741  14.302  12.556   0.143
61948SOL    HW287742  14.155  12.550   0.178
61949SOL     OW87743   9.537   8.257   7.569
61949SOL    HW187744   9.581   8.265   7.654
61949SOL    HW287745   9.597   8.204   7.517
61950SOL     OW87746   1.574  10.200   7.029
61950SOL    HW187747   1.520  10.278   7.044
61950SOL    HW287748   1.601  10.173   7.117
61951SOL     OW87749  11.356   6.642   4.738
61951SOL    HW187750  11.329   6.621   4.828
61951SOL    HW287751  11.445   6.676   4.748
61952SOL     OW87752   4.392   3.839   2.794
61952SOL    HW187753   4.342   3.899   2.738
61952SOL    HW287754   4.459   3.803   2.736
61953SOL     OW87755   2.165   1.459   8.240
61953SOL    HW187756   2.194   1.517   8.169
61953SOL    HW287757   2.162   1.515   8.317
61954SOL     OW87758  10.653   4.266   1.758
61954SOL    HW187759  10.643   4.357   1.729
61954SOL    HW287760  10.622   4.265   1.848
61955SOL     OW87761  13.621  10.106  10.737
61955SOL    HW187762  13.576  10.133  10.657
61955SOL    HW287763  13.551  10.095  10.802
61956SOL     OW87764   8.623  10.895  10.562
61956SOL    HW187765   8.605  10.904  10.468
61956SOL    HW287766   8.545  10.853  10.597
61957SOL     OW87767   5.179   3.568  11.639
61957SOL    HW187768   5.127   3.607  11.709
61957SOL    HW287769   5.134   3.487  11.618
61958SOL     OW87770   2.932   5.912   5.491
61958SOL    HW187771   2.897   5.849   5.553
61958SOL    HW287772   2.957   5.860   5.415
61959SOL     OW87773  10.572   0.963   0.004
61959SOL    HW187774  10.505   0.921  14.833
61959SOL    HW287775  10.527   1.036   0.046
61960SOL     OW87776   5.412  11.220  11.606
61960SOL    HW187777   5.405  11.137  11.655
61960SOL    HW287778   5.341  11.216  11.542
61961SOL     OW87779  13.101   9.249  12.257
61961SOL    HW187780  13.083   9.198  12.337
61961SOL    HW287781  13.052   9.330  12.269
61962SOL     OW87782  13.985   6.993   6.254
61962SOL    HW187783  13.890   6.996   6.261
61962SOL    HW287784  14.004   6.904   6.223
61963SOL     OW87785   1.868   7.703   5.607
61963SOL    HW187786   1.845   7.776   5.550
61963SOL    HW287787   1.892   7.632   5.548
61964SOL     OW87788   9.407  12.042   9.695
61964SOL    HW187789   9.463  11.966   9.679
61964SOL    HW287790   9.318  12.009   9.683
61965SOL     OW87791   3.575   9.333   4.619
61965SOL    HW187792   3.570   9.255   4.675
61965SOL    HW287793   3.605   9.403   4.677
61966SOL     OW87794   5.157   1.038   3.208
61966SOL    HW187795   5.134   1.008   3.296
61966SOL    HW287796   5.160   1.133   3.214
61967SOL     OW87797   2.367   2.864   8.897
61967SOL    HW187798   2.343   2.907   8.979
61967SOL    HW287799   2.403   2.780   8.924
61968SOL     OW87800   5.313  11.175   5.240
61968SOL    HW187801   5.398  11.163   5.282
61968SOL    HW287802   5.326  11.142   5.151
61969SOL     OW87803   7.327   0.261   7.372
61969SOL    HW187804   7.391   0.230   7.436
61969SOL    HW287805   7.262   0.308   7.424
61970SOL     OW87806   8.149  14.298   2.831
61970SOL    HW187807   8.104  14.344   2.759
61970SOL    HW287808   8.242  14.308   2.810
61971SOL     OW87809  10.518   5.810   1.029
61971SOL    HW187810  10.518   5.840   0.938
61971SOL    HW287811  10.426   5.789   1.047
61972SOL     OW87812   4.148  11.789   8.441
61972SOL    HW187813   4.142  11.710   8.495
61972SOL    HW287814   4.061  11.798   8.402
61973SOL     OW87815  12.237  13.875   1.034
61973SOL    HW187816  12.191  13.916   0.961
61973SOL    HW287817  12.174  13.877   1.106
61974SOL     OW87818  12.190   1.426   6.777
61974SOL    HW187819  12.157   1.507   6.740
61974SOL    HW287820  12.166   1.430   6.869
61975SOL     OW87821   8.280   1.027   4.273
61975SOL    HW187822   8.211   1.040   4.338
61975SOL    HW287823   8.356   1.071   4.311
61976SOL     OW87824  11.831  11.226   8.909
61976SOL    HW187825  11.753  11.265   8.949
61976SOL    HW287826  11.881  11.301   8.877
61977SOL     OW87827  10.527   0.823   5.869
61977SOL    HW187828  10.476   0.877   5.809
61977SOL    HW287829  10.551   0.882   5.941
61978SOL     OW87830  11.263   7.942   6.619
61978SOL    HW187831  11.268   7.903   6.706
61978SOL    HW287832  11.345   7.918   6.577
61979SOL     OW87833  14.254  14.662   4.333
61979SOL    HW187834  14.320  14.695   4.394
61979SOL    HW287835  14.172  14.704   4.361
61980SOL     OW87836  14.540   9.888   9.196
61980SOL    HW187837  14.620   9.895   9.145
61980SOL    HW287838  14.570   9.875   9.286
61981SOL     OW87839  10.430   6.786   1.304
61981SOL    HW187840  10.476   6.708   1.273
61981SOL    HW287841  10.437   6.781   1.399
61982SOL     OW87842   7.398   0.824   0.627
61982SOL    HW187843   7.483   0.798   0.663
61982SOL    HW287844   7.347   0.850   0.704
61983SOL     OW87845   7.147  11.334   5.207
61983SOL    HW187846   7.181  11.352   5.294
61983SOL    HW287847   7.221  11.346   5.148
61984SOL     OW87848   7.695  12.925   2.599
61984SOL    HW187849   7.771  12.903   2.545
61984SOL    HW287850   7.726  12.918   2.689
61985SOL     OW87851  11.459   6.527   1.211
61985SOL    HW187852  11.459   6.498   1.302
61985SOL    HW287853  11.551   6.545   1.191
61986SOL     OW87854   9.270  13.322  13.200
61986SOL    HW187855   9.196  13.358  13.151
61986SOL    HW287856   9.232  13.248  13.249
61987SOL     OW87857   8.436  14.610  11.583
61987SOL    HW187858   8.499  14.674  11.618
61987SOL    HW287859   8.470  14.589  11.495
61988SOL     OW87860  11.304   5.559   8.710
61988SOL    HW187861  11.247   5.483   8.716
61988SOL    HW287862  11.246   5.631   8.685
61989SOL     OW87863   2.826   2.797  13.392
61989SOL    HW187864   2.751   2.739  13.404
61989SOL    HW287865   2.900   2.748  13.427
61990SOL     OW87866  11.700   8.077   5.152
61990SOL    HW187867  11.620   8.025   5.161
61990SOL    HW287868  11.767   8.026   5.198
61991SOL     OW87869   5.547   1.693   3.954
61991SOL    HW187870   5.501   1.707   4.037
61991SOL    HW287871   5.586   1.606   3.963
61992SOL     OW87872   9.851   6.525   5.526
61992SOL    HW187873   9.805   6.565   5.452
61992SOL    HW287874   9.942   6.551   5.513
61993SOL     OW87875   0.275  10.097   1.225
61993SOL    HW187876   0.322  10.152   1.162
61993SOL    HW287877   0.344  10.055   1.276
61994SOL     OW87878  11.178   8.992   8.105
61994SOL    HW187879  11.263   9.035   8.122
61994SOL    HW287880  11.173   8.989   8.009
61995SOL     OW87881  12.090   0.472   1.869
61995SOL    HW187882  12.008   0.520   1.867
61995SOL    HW287883  12.131   0.496   1.952
61996SOL     OW87884   3.397   3.171   4.544
61996SOL    HW187885   3.324   3.204   4.492
61996SOL    HW287886   3.428   3.094   4.497
61997SOL     OW87887  10.669  10.892   4.901
61997SOL    HW187888  10.581  10.882   4.939
61997SOL    HW287889  10.726  10.906   4.976
61998SOL     OW87890   9.547  12.690   6.686
61998SOL    HW187891   9.468  12.740   6.665
61998SOL    HW287892   9.514  12.603   6.708
61999SOL     OW87893   6.477   7.371   9.060
61999SOL    HW187894   6.549   7.382   8.998
61999SOL    HW287895   6.441   7.285   9.039
62000SOL     OW87896   5.199   2.299   1.467
62000SOL    HW187897   5.111   2.292   1.431
62000SOL    HW287898   5.223   2.210   1.491
62001SOL     OW87899   1.074  12.572   3.801
62001SOL    HW187900   1.037  12.483   3.798
62001SOL    HW287901   1.078  12.592   3.895
62002SOL     OW87902  14.615  13.851   8.906
62002SOL    HW187903  14.572  13.836   8.822
62002SOL    HW287904  14.545  13.877   8.965
62003SOL     OW87905  10.810  13.525   9.982
62003SOL    HW187906  10.861  13.452   9.946
62003SOL    HW287907  10.733  13.531   9.926
62004SOL     OW87908   1.442  13.863   4.131
62004SOL    HW187909   1.426  13.947   4.172
62004SOL    HW287910   1.490  13.883   4.051
62005SOL     OW87911  12.322   3.320  10.764
62005SOL    HW187912  12.360   3.235  10.741
62005SOL    HW287913  12.229   3.311  10.748
62006SOL     OW87914   1.006  13.418   6.826
62006SOL    HW187915   1.063  13.430   6.902
62006SOL    HW287916   1.053  13.357   6.770
62007SOL     OW87917   5.652  10.136   8.528
62007SOL    HW187918   5.589  10.206   8.510
62007SOL    HW287919   5.624  10.063   8.472
62008SOL     OW87920   7.836   6.185   0.721
62008SOL    HW187921   7.918   6.176   0.771
62008SOL    HW287922   7.810   6.095   0.703
62009SOL     OW87923   7.583   2.083   1.074
62009SOL    HW187924   7.568   2.017   1.142
62009SOL    HW287925   7.668   2.121   1.096
62010SOL     OW87926   1.510   5.188   8.537
62010SOL    HW187927   1.517   5.099   8.504
62010SOL    HW287928   1.462   5.235   8.469
62011SOL     OW87929   7.736   3.553   6.574
62011SOL    HW187930   7.709   3.580   6.486
62011SOL    HW287931   7.731   3.458   6.573
62012SOL     OW87932   4.292  12.224   7.383
62012SOL    HW187933   4.213  12.176   7.359
62012SOL    HW287934   4.354  12.157   7.411
62013SOL     OW87935  10.780   6.485   6.284
62013SOL    HW187936  10.758   6.462   6.194
62013SOL    HW287937  10.698   6.475   6.333
62014SOL     OW87938   2.715  10.895   2.153
62014SOL    HW187939   2.637  10.909   2.207
62014SOL    HW287940   2.754  10.816   2.190
62015SOL     OW87941  11.955   8.066   8.922
62015SOL    HW187942  11.894   8.067   8.995
62015SOL    HW287943  11.908   8.022   8.852
62016SOL     OW87944   9.256   6.938  13.599
62016SOL    HW187945   9.253   6.863  13.657
62016SOL    HW287946   9.325   6.918  13.536
62017SOL     OW87947   9.936   9.769   1.167
62017SOL    HW187948   9.848   9.794   1.193
62017SOL    HW287949   9.929   9.752   1.073
62018SOL     OW87950   2.718  10.259   6.701
62018SOL    HW187951   2.691  10.176   6.740
62018SOL    HW287952   2.654  10.275   6.632
62019SOL     OW87953  10.404  10.235   5.090
62019SOL    HW187954  10.329  10.185   5.058
62019SOL    HW287955  10.414  10.306   5.026
62020SOL     OW87956  14.555   7.726  11.452
62020SOL    HW187957  14.586   7.789  11.517
62020SOL    HW287958  14.488   7.675  11.499
62021SOL     OW87959  10.189   0.803  14.440
62021SOL    HW187960  10.135   0.803  14.361
62021SOL    HW287961  10.191   0.712  14.468
62022SOL     OW87962  11.111   9.434   3.540
62022SOL    HW187963  11.154   9.351   3.558
62022SOL    HW287964  11.179   9.489   3.501
62023SOL     OW87965   7.459   9.233   9.202
62023SOL    HW187966   7.427   9.244   9.112
62023SOL    HW287967   7.474   9.139   9.211
62024SOL     OW87968   4.509   3.093   8.335
62024SOL    HW187969   4.590   3.127   8.374
62024SOL    HW287970   4.456   3.172   8.319
62025SOL     OW87971   5.605   3.969   6.922
62025SOL    HW187972   5.666   4.035   6.890
62025SOL    HW287973   5.582   3.998   7.010
62026SOL     OW87974   3.366   7.978  11.159
62026SOL    HW187975   3.422   7.958  11.085
62026SOL    HW287976   3.390   7.913  11.225
62027SOL     OW87977   9.499   1.141  11.749
62027SOL    HW187978   9.491   1.100  11.662
62027SOL    HW287979   9.500   1.067  11.810
62028SOL     OW87980  13.669   6.179  11.352
62028SOL    HW187981  13.623   6.257  11.382
62028SOL    HW287982  13.601   6.127  11.309
62029SOL     OW87983   3.398  10.291   7.348
62029SOL    HW187984   3.402  10.221   7.414
62029SOL    HW287985   3.410  10.246   7.265
62030SOL     OW87986   7.981  10.985  12.678
62030SOL    HW187987   7.911  10.926  12.650
62030SOL    HW287988   7.958  11.007  12.768
62031SOL     OW87989   7.046  12.201   4.626
62031SOL    HW187990   7.100  12.207   4.547
62031SOL    HW287991   7.096  12.143   4.684
62032SOL     OW87992   5.554  12.932   6.495
62032SOL    HW187993   5.629  12.928   6.436
62032SOL    HW287994   5.482  12.894   6.444
62033SOL     OW87995  13.945  13.848  13.176
62033SOL    HW187996  13.865  13.899  13.165
62033SOL    HW287997  13.915  13.762  13.206
62034SOL     OW87998   6.626  13.190  11.885
62034SOL    HW187999   6.575  13.271  11.880
62034SOL    HW288000   6.583  13.131  11.823
62035SOL     OW88001  11.914   4.775  10.616
62035SOL    HW188002  11.830   4.819  10.609
62035SOL    HW288003  11.912   4.729  10.700
62036SOL     OW88004  11.355   4.588  12.927
62036SOL    HW188005  11.310   4.516  12.972
62036SOL    HW288006  11.448   4.572  12.943
62037SOL     OW88007   7.871   1.973  14.005
62037SOL    HW188008   7.871   1.877  14.010
62037SOL    HW288009   7.823   1.992  13.924
62038SOL     OW88010  14.285  13.401   5.596
62038SOL    HW188011  14.295  13.353   5.678
62038SOL    HW288012  14.219  13.468   5.615
62039SOL     OW88013  11.397   6.341   6.039
62039SOL    HW188014  11.433   6.389   5.965
62039SOL    HW288015  11.415   6.249   6.019
62040SOL     OW88016  11.242   5.034   3.643
62040SOL    HW188017  11.245   5.129   3.641
62040SOL    HW288018  11.265   5.007   3.553
62041SOL     OW88019   1.894   1.040   5.287
62041SOL    HW188020   1.958   1.006   5.224
62041SOL    HW288021   1.920   1.003   5.371
62042SOL     OW88022   2.297  13.899   2.572
62042SOL    HW188023   2.383  13.939   2.586
62042SOL    HW288024   2.316  13.810   2.542
62043SOL     OW88025   0.779   9.320   3.913
62043SOL    HW188026   0.765   9.268   3.833
62043SOL    HW288027   0.751   9.408   3.889
62044SOL     OW88028   2.376   7.243   1.075
62044SOL    HW188029   2.321   7.297   1.018
62044SOL    HW288030   2.359   7.276   1.163
62045SOL     OW88031   1.615   1.836   5.970
62045SOL    HW188032   1.572   1.896   6.031
62045SOL    HW288033   1.545   1.779   5.939
62046SOL     OW88034  10.679   4.763   7.996
62046SOL    HW188035  10.722   4.818   8.062
62046SOL    HW288036  10.751   4.715   7.955
62047SOL     OW88037   6.764  10.912   2.856
62047SOL    HW188038   6.722  10.853   2.793
62047SOL    HW288039   6.784  10.857   2.932
62048SOL     OW88040   4.546  10.868   5.878
62048SOL    HW188041   4.522  10.950   5.836
62048SOL    HW288042   4.466  10.817   5.881
62049SOL     OW88043   6.475  11.742  10.126
62049SOL    HW188044   6.552  11.686  10.137
62049SOL    HW288045   6.483  11.808  10.195
62050SOL     OW88046   2.279   8.473  10.347
62050SOL    HW188047   2.370   8.450  10.327
62050SOL    HW288048   2.231   8.456  10.266
62051SOL     OW88049   7.381   2.506   5.496
62051SOL    HW188050   7.389   2.563   5.573
62051SOL    HW288051   7.308   2.449   5.517
62052SOL     OW88052   3.476   4.238  12.714
62052SOL    HW188053   3.516   4.255  12.800
62052SOL    HW288054   3.383   4.256  12.727
62053SOL     OW88055   2.009   4.973  11.280
62053SOL    HW188056   2.090   4.998  11.238
62053SOL    HW288057   2.033   4.956  11.371
62054SOL     OW88058   1.477   1.912  13.840
62054SOL    HW188059   1.500   2.005  13.831
62054SOL    HW288060   1.489   1.893  13.933
62055SOL     OW88061   9.563  12.596   6.216
62055SOL    HW188062   9.617  12.672   6.194
62055SOL    HW288063   9.586  12.577   6.307
62056SOL     OW88064  10.837   7.834  14.707
62056SOL    HW188065  10.905   7.898  14.728
62056SOL    HW288066  10.882   7.750  14.707
62057SOL     OW88067   4.895  10.404  10.640
62057SOL    HW188068   4.963  10.369  10.582
62057SOL    HW288069   4.840  10.458  10.582
62058SOL     OW88070   0.176   6.528  13.933
62058SOL    HW188071   0.150   6.585  14.005
62058SOL    HW288072   0.244   6.577  13.887
62059SOL     OW88073  12.544   2.680   2.803
62059SOL    HW188074  12.471   2.693   2.742
62059SOL    HW288075  12.507   2.700   2.889
62060SOL     OW88076  11.912   4.825  11.575
62060SOL    HW188077  11.882   4.772  11.648
62060SOL    HW288078  11.972   4.767  11.527
62061SOL     OW88079  12.909  10.797  12.343
62061SOL    HW188080  12.984  10.780  12.285
62061SOL    HW288081  12.901  10.892  12.345
62062SOL     OW88082   6.616   4.269  10.872
62062SOL    HW188083   6.626   4.223  10.789
62062SOL    HW288084   6.593   4.359  10.848
62063SOL     OW88085   9.481   9.726   8.152
62063SOL    HW188086   9.558   9.747   8.205
62063SOL    HW288087   9.409   9.771   8.195
62064SOL     OW88088  10.578   8.699  10.544
62064SOL    HW188089  10.553   8.787  10.517
62064SOL    HW288090  10.573   8.647  10.464
62065SOL     OW88091   2.019  13.834  13.326
62065SOL    HW188092   1.953  13.771  13.299
62065SOL    HW288093   1.971  13.896  13.381
62066SOL     OW88094   2.655   1.575   3.182
62066SOL    HW188095   2.594   1.555   3.111
62066SOL    HW288096   2.604   1.627   3.243
62067SOL     OW88097   6.452  11.912  10.309
62067SOL    HW188098   6.361  11.882  10.317
62067SOL    HW288099   6.481  11.926  10.399
62068SOL     OW88100  11.561   7.104  10.604
62068SOL    HW188101  11.481   7.082  10.556
62068SOL    HW288102  11.626   7.122  10.535
62069SOL     OW88103   6.814   4.311  10.559
62069SOL    HW188104   6.737   4.272  10.600
62069SOL    HW288105   6.836   4.251  10.488
62070SOL     OW88106   5.456  13.628   7.682
62070SOL    HW188107   5.406  13.709   7.694
62070SOL    HW288108   5.536  13.656   7.639
62071SOL     OW88109  11.150   6.614   1.181
62071SOL    HW188110  11.130   6.541   1.123
62071SOL    HW288111  11.245   6.616   1.185
62072SOL     OW88112  13.108   5.295   5.423
62072SOL    HW188113  13.073   5.252   5.345
62072SOL    HW288114  13.094   5.231   5.493
62073SOL     OW88115  13.367  10.177   5.622
62073SOL    HW188116  13.436  10.211   5.564
62073SOL    HW288117  13.286  10.194   5.574
62074SOL     OW88118   8.754  13.408   3.466
62074SOL    HW188119   8.826  13.352   3.438
62074SOL    HW288120   8.677  13.351   3.463
62075SOL     OW88121  13.298   3.439  12.595
62075SOL    HW188122  13.361   3.460  12.664
62075SOL    HW288123  13.275   3.347  12.610
62076SOL     OW88124   2.304  10.494   7.612
62076SOL    HW188125   2.376  10.557   7.602
62076SOL    HW288126   2.345  10.418   7.654
62077SOL     OW88127   7.655   4.713   1.656
62077SOL    HW188128   7.739   4.696   1.613
62077SOL    HW288129   7.589   4.687   1.592
62078SOL     OW88130   3.751   7.860  12.920
62078SOL    HW188131   3.774   7.895  13.006
62078SOL    HW288132   3.712   7.775  12.939
62079SOL     OW88133   4.140   3.873  10.935
62079SOL    HW188134   4.106   3.950  10.890
62079SOL    HW288135   4.155   3.809  10.866
62080SOL     OW88136   7.044   9.008   5.195
62080SOL    HW188137   6.998   9.016   5.112
62080SOL    HW288138   7.135   9.028   5.173
62081SOL     OW88139   9.064  11.409   4.701
62081SOL    HW188140   9.092  11.431   4.790
62081SOL    HW288141   9.006  11.334   4.712
62082SOL     OW88142  14.362   8.325  13.789
62082SOL    HW188143  14.384   8.333  13.882
62082SOL    HW288144  14.334   8.234  13.778
62083SOL     OW88145   2.928   8.416   7.710
62083SOL    HW188146   2.912   8.472   7.786
62083SOL    HW288147   2.842   8.385   7.684
62084SOL     OW88148   5.678   0.356   2.382
62084SOL    HW188149   5.727   0.341   2.302
62084SOL    HW288150   5.654   0.448   2.379
62085SOL     OW88151   9.368   9.252   7.027
62085SOL    HW188152   9.363   9.278   6.935
62085SOL    HW288153   9.341   9.329   7.076
62086SOL     OW88154   0.888  14.326  13.227
62086SOL    HW188155   0.835  14.254  13.260
62086SOL    HW288156   0.829  14.378  13.174
62087SOL     OW88157   8.145  13.000   0.050
62087SOL    HW188158   8.098  13.083   0.048
62087SOL    HW288159   8.183  12.992  14.845
62088SOL     OW88160  11.493  10.493   1.933
62088SOL    HW188161  11.536  10.454   1.857
62088SOL    HW288162  11.404  10.513   1.903
62089SOL     OW88163   4.164   8.821   8.980
62089SOL    HW188164   4.245   8.862   8.952
62089SOL    HW288165   4.143   8.758   8.911
62090SOL     OW88166   4.826   8.244  10.601
62090SOL    HW188167   4.920   8.263  10.603
62090SOL    HW288168   4.785   8.329  10.585
62091SOL     OW88169   6.880   1.111  13.551
62091SOL    HW188170   6.915   1.176  13.489
62091SOL    HW288171   6.829   1.051  13.496
62092SOL     OW88172   4.281   7.647  11.225
62092SOL    HW188173   4.201   7.628  11.274
62092SOL    HW288174   4.350   7.650  11.292
62093SOL     OW88175   7.408   7.822   2.155
62093SOL    HW188176   7.369   7.763   2.220
62093SOL    HW288177   7.502   7.821   2.175
62094SOL     OW88178   5.930  12.822   7.599
62094SOL    HW188179   5.955  12.852   7.512
62094SOL    HW288180   5.835  12.816   7.597
62095SOL     OW88181   9.156   5.443   0.714
62095SOL    HW188182   9.191   5.439   0.803
62095SOL    HW288183   9.227   5.408   0.659
62096SOL     OW88184   2.924   5.622  13.507
62096SOL    HW188185   2.934   5.542  13.559
62096SOL    HW288186   2.858   5.600  13.442
62097SOL     OW88187   6.900   8.909   0.494
62097SOL    HW188188   6.905   9.004   0.510
62097SOL    HW288189   6.990   8.879   0.506
62098SOL     OW88190   9.045   4.557   2.918
62098SOL    HW188191   8.977   4.530   2.981
62098SOL    HW288192   9.126   4.552   2.968
62099SOL     OW88193   0.348  10.658   5.715
62099SOL    HW188194   0.342  10.639   5.621
62099SOL    HW288195   0.267  10.705   5.736
62100SOL     OW88196   0.738   7.233   9.473
62100SOL    HW188197   0.814   7.266   9.521
62100SOL    HW288198   0.671   7.220   9.540
62101SOL     OW88199   3.234  14.032   1.677
62101SOL    HW188200   3.170  14.050   1.745
62101SOL    HW288201   3.245  14.117   1.632
62102SOL     OW88202   7.224   6.137  10.430
62102SOL    HW188203   7.210   6.075  10.502
62102SOL    HW288204   7.310   6.176  10.448
62103SOL     OW88205   6.180   0.682   3.237
62103SOL    HW188206   6.092   0.652   3.261
62103SOL    HW288207   6.238   0.640   3.301
62104SOL     OW88208   6.308   6.284   7.870
62104SOL    HW188209   6.297   6.318   7.958
62104SOL    HW288210   6.368   6.346   7.828
62105SOL     OW88211   2.135   0.318  12.718
62105SOL    HW188212   2.069   0.259  12.680
62105SOL    HW288213   2.218   0.271  12.705
62106SOL     OW88214   6.936   3.615   5.751
62106SOL    HW188215   6.880   3.615   5.828
62106SOL    HW288216   6.882   3.576   5.682
62107SOL     OW88217   7.630   4.887   6.775
62107SOL    HW188218   7.717   4.868   6.740
62107SOL    HW288219   7.640   4.880   6.870
62108SOL     OW88220  11.901   5.445  14.762
62108SOL    HW188221  11.839   5.386  14.718
62108SOL    HW288222  11.850   5.525  14.777
62109SOL     OW88223  10.211   9.452   6.693
62109SOL    HW188224  10.241   9.455   6.784
62109SOL    HW288225  10.121   9.486   6.697
62110SOL     OW88226  12.335  14.503  10.067
62110SOL    HW188227  12.252  14.551  10.068
62110SOL    HW288228  12.366  14.514   9.977
62111SOL     OW88229  11.341   4.668   9.262
62111SOL    HW188230  11.425   4.623   9.259
62111SOL    HW288231  11.300   4.637   9.343
62112SOL     OW88232   6.721   1.141   4.606
62112SOL    HW188233   6.791   1.186   4.558
62112SOL    HW288234   6.643   1.194   4.589
62113SOL     OW88235   9.224   5.190  13.476
62113SOL    HW188236   9.224   5.286  13.480
62113SOL    HW288237   9.216   5.170  13.383
62114SOL     OW88238   2.571   0.217  10.214
62114SOL    HW188239   2.569   0.125  10.186
62114SOL    HW288240   2.655   0.225  10.259
62115SOL     OW88241   1.683   1.622  12.477
62115SOL    HW188242   1.732   1.691  12.432
62115SOL    HW288243   1.745   1.549  12.483
62116SOL     OW88244   2.124   8.848  11.080
62116SOL    HW188245   2.113   8.884  11.167
62116SOL    HW288246   2.063   8.896  11.025
62117SOL     OW88247  14.776   4.746   6.274
62117SOL    HW188248  14.846   4.807   6.248
62117SOL    HW288249  14.716   4.800   6.325
62118SOL     OW88250  12.699   2.085   4.990
62118SOL    HW188251  12.656   2.008   5.025
62118SOL    HW288252  12.792   2.072   5.008
62119SOL     OW88253   8.787  14.097  10.693
62119SOL    HW188254   8.739  14.049  10.625
62119SOL    HW288255   8.879  14.072  10.679
62120SOL     OW88256   3.302   2.502   9.021
62120SOL    HW188257   3.297   2.412   9.052
62120SOL    HW288258   3.232   2.548   9.067
62121SOL     OW88259  10.210  11.258   7.586
62121SOL    HW188260  10.201  11.353   7.581
62121SOL    HW288261  10.260  11.243   7.667
62122SOL     OW88262   2.559  13.590  11.858
62122SOL    HW188263   2.584  13.554  11.943
62122SOL    HW288264   2.537  13.681  11.876
62123SOL     OW88265   6.232   9.413  13.319
62123SOL    HW188266   6.233   9.328  13.363
62123SOL    HW288267   6.236   9.392  13.226
62124SOL     OW88268   8.847   6.141   0.543
62124SOL    HW188269   8.935   6.156   0.577
62124SOL    HW288270   8.855   6.060   0.492
62125SOL     OW88271   6.371   1.749   5.228
62125SOL    HW188272   6.401   1.712   5.311
62125SOL    HW288273   6.292   1.797   5.251
62126SOL     OW88274   8.064   7.030  14.481
62126SOL    HW188275   8.098   7.111  14.520
62126SOL    HW288276   8.139   6.994  14.433
62127SOL     OW88277  10.601   5.813   6.294
62127SOL    HW188278  10.685   5.856   6.311
62127SOL    HW288279  10.556   5.815   6.378
62128SOL     OW88280   2.174  14.172  11.380
62128SOL    HW188281   2.260  14.207  11.355
62128SOL    HW288282   2.138  14.137  11.299
62129SOL     OW88283   4.572   4.757   0.904
62129SOL    HW188284   4.515   4.784   0.833
62129SOL    HW288285   4.533   4.676   0.937
62130SOL     OW88286  11.037  12.645   0.603
62130SOL    HW188287  10.986  12.721   0.632
62130SOL    HW288288  11.117  12.649   0.656
62131SOL     OW88289   7.451   6.404  12.219
62131SOL    HW188290   7.416   6.387  12.131
62131SOL    HW288291   7.486   6.320  12.248
62132SOL     OW88292   8.074  12.293   0.865
62132SOL    HW188293   8.110  12.382   0.857
62132SOL    HW288294   7.979  12.305   0.862
62133SOL     OW88295   6.261   5.430   4.741
62133SOL    HW188296   6.229   5.521   4.742
62133SOL    HW288297   6.308   5.422   4.658
62134SOL     OW88298   4.285  10.953   0.365
62134SOL    HW188299   4.353  10.889   0.386
62134SOL    HW288300   4.247  10.976   0.449
62135SOL     OW88301   1.676   5.085   9.414
62135SOL    HW188302   1.756   5.092   9.465
62135SOL    HW288303   1.697   5.023   9.344
62136SOL     OW88304   4.750   2.537   0.463
62136SOL    HW188305   4.693   2.567   0.392
62136SOL    HW288306   4.835   2.575   0.442
62137SOL     OW88307   8.965   0.242   0.691
62137SOL    HW188308   8.995   0.175   0.753
62137SOL    HW288309   8.894   0.199   0.642
62138SOL     OW88310   1.588  12.975  12.043
62138SOL    HW188311   1.562  13.037  12.110
62138SOL    HW288312   1.538  13.001  11.965
62139SOL     OW88313   3.176  14.314   2.295
62139SOL    HW188314   3.209  14.380   2.234
62139SOL    HW288315   3.088  14.293   2.263
62140SOL     OW88316  11.657  14.069   6.364
62140SOL    HW188317  11.661  14.075   6.269
62140SOL    HW288318  11.609  13.988   6.382
62141SOL     OW88319   7.585   9.836  14.236
62141SOL    HW188320   7.638   9.897  14.287
62141SOL    HW288321   7.546   9.778  14.301
62142SOL     OW88322   8.184  12.230  11.510
62142SOL    HW188323   8.248  12.291  11.472
62142SOL    HW288324   8.193  12.151  11.457
62143SOL     OW88325   3.379  13.265   5.090
62143SOL    HW188326   3.367  13.337   5.030
62143SOL    HW288327   3.469  13.235   5.074
62144SOL     OW88328   7.400   5.691   0.162
62144SOL    HW188329   7.449   5.616   0.129
62144SOL    HW288330   7.466   5.760   0.173
62145SOL     OW88331   0.270  12.308   2.448
62145SOL    HW188332   0.323  12.355   2.512
62145SOL    HW288333   0.312  12.222   2.441
62146SOL     OW88334   2.539  13.148  12.938
62146SOL    HW188335   2.516  13.219  12.997
62146SOL    HW288336   2.628  13.169  12.908
62147SOL     OW88337  10.033  10.825   0.336
62147SOL    HW188338  10.040  10.899   0.275
62147SOL    HW288339   9.965  10.769   0.299
62148SOL     OW88340   0.080   5.580  14.797
62148SOL    HW188341   0.034   5.633  14.732
62148SOL    HW288342   0.034   5.496  14.796
62149SOL     OW88343  14.592   4.200   0.800
62149SOL    HW188344  14.589   4.117   0.753
62149SOL    HW288345  14.634   4.261   0.738
62150SOL     OW88346   5.212   3.943   8.895
62150SOL    HW188347   5.204   4.019   8.838
62150SOL    HW288348   5.257   3.975   8.973
62151SOL     OW88349   8.997   2.207   3.299
62151SOL    HW188350   9.045   2.144   3.246
62151SOL    HW288351   8.996   2.287   3.247
62152SOL     OW88352   3.439   3.191   5.750
62152SOL    HW188353   3.360   3.218   5.796
62152SOL    HW288354   3.480   3.127   5.809
62153SOL     OW88355  13.139   6.063  14.296
62153SOL    HW188356  13.123   6.063  14.391
62153SOL    HW288357  13.233   6.078  14.288
62154SOL     OW88358   5.836  10.143  11.497
62154SOL    HW188359   5.787  10.061  11.507
62154SOL    HW288360   5.928  10.116  11.501
62155SOL     OW88361   7.824   8.525   0.547
62155SOL    HW188362   7.871   8.511   0.466
62155SOL    HW288363   7.876   8.590   0.595
62156SOL     OW88364  12.751   1.652   1.716
62156SOL    HW188365  12.784   1.644   1.626
62156SOL    HW288366  12.699   1.732   1.715
62157SOL     OW88367  10.229  13.427   6.337
62157SOL    HW188368  10.147  13.446   6.383
62157SOL    HW288369  10.217  13.465   6.249
62158SOL     OW88370   8.640   2.525   5.938
62158SOL    HW188371   8.718   2.564   5.979
62158SOL    HW288372   8.662   2.523   5.845
62159SOL     OW88373  10.345   2.689  13.553
62159SOL    HW188374  10.429   2.726  13.579
62159SOL    HW288375  10.331   2.720  13.463
62160SOL     OW88376   9.177  13.070   1.037
62160SOL    HW188377   9.188  13.123   0.958
62160SOL    HW288378   9.238  12.997   1.025
62161SOL     OW88379   6.906   1.397  12.449
62161SOL    HW188380   6.902   1.482  12.494
62161SOL    HW288381   6.973   1.348  12.496
62162SOL     OW88382  13.987   5.587   3.542
62162SOL    HW188383  13.918   5.627   3.489
62162SOL    HW288384  14.052   5.557   3.478
62163SOL     OW88385   9.237  14.344   5.557
62163SOL    HW188386   9.257  14.434   5.581
62163SOL    HW288387   9.207  14.303   5.638
62164SOL     OW88388  12.950   0.132   0.227
62164SOL    HW188389  13.034   0.105   0.190
62164SOL    HW288390  12.887   0.121   0.156
62165SOL     OW88391  13.196   0.743  12.007
62165SOL    HW188392  13.280   0.697  12.014
62165SOL    HW288393  13.138   0.696  12.068
62166SOL     OW88394   4.693   6.493   9.869
62166SOL    HW188395   4.658   6.512   9.956
62166SOL    HW288396   4.644   6.417   9.839
62167SOL     OW88397   3.338   9.677  13.072
62167SOL    HW188398   3.396   9.722  13.011
62167SOL    HW288399   3.321   9.592  13.032
62168SOL     OW88400   1.019  12.151   0.876
62168SOL    HW188401   1.054  12.196   0.953
62168SOL    HW288402   0.930  12.127   0.902
62169SOL     OW88403   9.866  12.611   5.936
62169SOL    HW188404   9.955  12.584   5.959
62169SOL    HW288405   9.841  12.672   6.006
62170SOL     OW88406  13.642   5.004   1.995
62170SOL    HW188407  13.573   5.059   1.957
62170SOL    HW288408  13.603   4.966   2.073
62171SOL     OW88409  11.940   0.459  13.313
62171SOL    HW188410  11.909   0.513  13.241
62171SOL    HW288411  11.868   0.397  13.330
62172SOL     OW88412   1.369  14.690  14.720
62172SOL    HW188413   1.414  14.765  14.758
62172SOL    HW288414   1.403  14.683  14.631
62173SOL     OW88415   5.221   1.401  13.150
62173SOL    HW188416   5.147   1.446  13.190
62173SOL    HW288417   5.185   1.318  13.118
62174SOL     OW88418   3.811   7.326   2.038
62174SOL    HW188419   3.870   7.258   2.002
62174SOL    HW288420   3.816   7.314   2.133
62175SOL     OW88421  11.993   1.232   4.855
62175SOL    HW188422  12.018   1.288   4.929
62175SOL    HW288423  11.899   1.246   4.844
62176SOL     OW88424   4.552  11.304  14.261
62176SOL    HW188425   4.480  11.354  14.298
62176SOL    HW288426   4.588  11.255  14.335
62177SOL     OW88427  10.593   0.622   8.410
62177SOL    HW188428  10.504   0.638   8.440
62177SOL    HW288429  10.642   0.600   8.489
62178SOL     OW88430   6.511  10.376   6.262
62178SOL    HW188431   6.546  10.365   6.351
62178SOL    HW288432   6.419  10.400   6.276
62179SOL     OW88433  13.748  12.923   7.992
62179SOL    HW188434  13.826  12.913   8.047
62179SOL    HW288435  13.782  12.951   7.907
62180SOL     OW88436  14.685  10.021  13.518
62180SOL    HW188437  14.696  10.107  13.560
62180SOL    HW288438  14.761  10.012  13.461
62181SOL     OW88439   9.451   5.605   9.776
62181SOL    HW188440   9.480   5.523   9.816
62181SOL    HW288441   9.432   5.581   9.685
62182SOL     OW88442   6.004  11.912  14.334
62182SOL    HW188443   5.982  11.863  14.254
62182SOL    HW288444   6.042  11.994  14.303
62183SOL     OW88445   4.799  13.378  12.787
62183SOL    HW188446   4.775  13.326  12.864
62183SOL    HW288447   4.895  13.380  12.788
62184SOL     OW88448   8.999   9.032   3.868
62184SOL    HW188449   8.953   9.067   3.791
62184SOL    HW288450   9.069   8.979   3.832
62185SOL     OW88451   1.062   4.584   2.230
62185SOL    HW188452   1.091   4.507   2.181
62185SOL    HW288453   1.144   4.626   2.258
62186SOL     OW88454  14.025   3.576   6.629
62186SOL    HW188455  14.054   3.535   6.547
62186SOL    HW288456  13.966   3.646   6.602
62187SOL     OW88457  11.955   3.049   1.361
62187SOL    HW188458  12.001   3.047   1.445
62187SOL    HW288459  11.888   3.117   1.372
62188SOL     OW88460  12.143  12.977  11.096
62188SOL    HW188461  12.087  13.039  11.049
62188SOL    HW288462  12.207  12.949  11.031
62189SOL     OW88463   7.760   6.960   7.290
62189SOL    HW188464   7.738   6.892   7.227
62189SOL    HW288465   7.844   6.933   7.327
62190SOL     OW88466   7.827   1.175   8.700
62190SOL    HW188467   7.882   1.253   8.698
62190SOL    HW288468   7.854   1.124   8.625
62191SOL     OW88469  10.373  12.214   8.022
62191SOL    HW188470  10.342  12.131   8.059
62191SOL    HW288471  10.430  12.250   8.090
62192SOL     OW88472   8.513   4.184  10.147
62192SOL    HW188473   8.539   4.263  10.098
62192SOL    HW288474   8.500   4.118  10.080
62193SOL     OW88475  12.348   5.195   5.036
62193SOL    HW188476  12.336   5.106   5.003
62193SOL    HW288477  12.303   5.251   4.973
62194SOL     OW88478  14.304   0.729   3.413
62194SOL    HW188479  14.314   0.781   3.333
62194SOL    HW288480  14.394   0.709   3.440
62195SOL     OW88481  14.725   1.758  12.226
62195SOL    HW188482  14.677   1.718  12.299
62195SOL    HW288483  14.676   1.838  12.206
62196SOL     OW88484   4.674   5.528  10.004
62196SOL    HW188485   4.639   5.447  10.042
62196SOL    HW288486   4.709   5.502   9.919
62197SOL     OW88487   5.003   2.094  12.629
62197SOL    HW188488   5.093   2.114  12.603
62197SOL    HW288489   4.996   1.999  12.620
62198SOL     OW88490   0.063   8.020   4.804
62198SOL    HW188491   0.087   8.111   4.789
62198SOL    HW288492   0.146   7.974   4.809
62199SOL     OW88493   5.021   2.698   5.708
62199SOL    HW188494   5.061   2.638   5.771
62199SOL    HW288495   4.938   2.724   5.747
62200SOL     OW88496  14.846   8.630   9.265
62200SOL    HW188497   0.050   8.598   9.292
62200SOL    HW288498  14.828   8.586   9.182
62201SOL     OW88499  10.188   1.495  10.786
62201SOL    HW188500  10.252   1.558  10.820
62201SOL    HW288501  10.135   1.545  10.724
62202SOL     OW88502   7.668   2.325   8.956
62202SOL    HW188503   7.732   2.355   8.891
62202SOL    HW288504   7.718   2.322   9.038
62203SOL     OW88505   7.330  13.447   9.804
62203SOL    HW188506   7.353  13.371   9.857
62203SOL    HW288507   7.390  13.516   9.833
62204SOL     OW88508  13.364   1.205   0.175
62204SOL    HW188509  13.459   1.211   0.168
62204SOL    HW288510  13.345   1.111   0.175
62205SOL     OW88511  10.977  10.830  13.475
62205SOL    HW188512  10.912  10.760  13.474
62205SOL    HW288513  10.925  10.910  13.485
62206SOL     OW88514  13.876   0.485  12.664
62206SOL    HW188515  13.920   0.400  12.652
62206SOL    HW288516  13.888   0.505  12.757
62207SOL     OW88517  11.316  12.387  10.877
62207SOL    HW188518  11.305  12.407  10.784
62207SOL    HW288519  11.379  12.315  10.878
62208SOL     OW88520   3.265   7.414  14.626
62208SOL    HW188521   3.171   7.407  14.639
62208SOL    HW288522   3.298   7.324  14.634
62209SOL     OW88523   3.462  13.871   8.150
62209SOL    HW188524   3.401  13.910   8.213
62209SOL    HW288525   3.405  13.831   8.084
62210SOL     OW88526  14.579   9.604  13.194
62210SOL    HW188527  14.613   9.693  13.195
62210SOL    HW288528  14.502   9.608  13.137
62211SOL     OW88529   7.577   3.762   1.888
62211SOL    HW188530   7.553   3.725   1.973
62211SOL    HW288531   7.662   3.724   1.868
62212SOL     OW88532  12.187  10.551   5.586
62212SOL    HW188533  12.264  10.506   5.551
62212SOL    HW288534  12.222  10.634   5.619
62213SOL     OW88535  13.181   5.264   4.109
62213SOL    HW188536  13.201   5.318   4.186
62213SOL    HW288537  13.100   5.218   4.133
62214SOL     OW88538   8.113   3.954   8.512
62214SOL    HW188539   8.052   3.962   8.439
62214SOL    HW288540   8.136   3.861   8.514
62215SOL     OW88541   8.796   4.574  12.524
62215SOL    HW188542   8.788   4.481  12.545
62215SOL    HW288543   8.851   4.610  12.594
62216SOL     OW88544   0.719   0.772  13.410
62216SOL    HW188545   0.706   0.709  13.339
62216SOL    HW288546   0.737   0.854  13.364
62217SOL     OW88547   5.116   6.381  12.991
62217SOL    HW188548   5.068   6.463  13.003
62217SOL    HW288549   5.050   6.319  12.959
62218SOL     OW88550   3.812   5.169   7.434
62218SOL    HW188551   3.751   5.097   7.419
62218SOL    HW288552   3.847   5.153   7.521
62219SOL     OW88553   3.993   9.616   7.829
62219SOL    HW188554   3.925   9.662   7.779
62219SOL    HW288555   3.978   9.642   7.919
62220SOL     OW88556   6.311   6.820   8.049
62220SOL    HW188557   6.344   6.908   8.033
62220SOL    HW288558   6.271   6.826   8.136
62221SOL     OW88559   1.299   5.241   2.862
62221SOL    HW188560   1.392   5.259   2.876
62221SOL    HW288561   1.297   5.170   2.798
62222SOL     OW88562   1.762   6.427  14.232
62222SOL    HW188563   1.666   6.425  14.233
62222SOL    HW288564   1.785   6.518  14.249
62223SOL     OW88565  14.486   5.672   0.408
62223SOL    HW188566  14.469   5.582   0.377
62223SOL    HW288567  14.576   5.669   0.440
62224SOL     OW88568   7.686   2.023  13.820
62224SOL    HW188569   7.637   1.969  13.757
62224SOL    HW288570   7.667   2.113  13.793
62225SOL     OW88571   7.045  10.891   0.703
62225SOL    HW188572   7.081  10.804   0.689
62225SOL    HW288573   7.048  10.903   0.798
62226SOL     OW88574   0.871  11.971  10.319
62226SOL    HW188575   0.965  11.960  10.331
62226SOL    HW288576   0.832  11.911  10.383
62227SOL     OW88577   9.704   4.336  13.688
62227SOL    HW188578   9.762   4.376  13.753
62227SOL    HW288579   9.730   4.377  13.605
62228SOL     OW88580   8.422  10.729   2.521
62228SOL    HW188581   8.452  10.654   2.572
62228SOL    HW288582   8.470  10.803   2.558
62229SOL     OW88583   9.759   3.919   5.533
62229SOL    HW188584   9.791   3.974   5.604
62229SOL    HW288585   9.838   3.888   5.489
62230SOL     OW88586  11.628   1.809   4.179
62230SOL    HW188587  11.670   1.811   4.092
62230SOL    HW288588  11.697   1.779   4.238
62231SOL     OW88589  13.073   4.633   8.364
62231SOL    HW188590  13.056   4.576   8.289
62231SOL    HW288591  12.986   4.651   8.400
62232SOL     OW88592  10.304   1.245  10.237
62232SOL    HW188593  10.230   1.305  10.237
62232SOL    HW288594  10.305   1.209  10.326
62233SOL     OW88595   7.282   7.009  14.723
62233SOL    HW188596   7.188   7.026  14.730
62233SOL    HW288597   7.313   7.007  14.814
62234SOL     OW88598  10.057  10.802   8.248
62234SOL    HW188599  10.106  10.814   8.166
62234SOL    HW288600  10.013  10.718   8.238
62235SOL     OW88601   8.376   9.902   9.523
62235SOL    HW188602   8.348   9.971   9.463
62235SOL    HW288603   8.437   9.849   9.472
62236SOL     OW88604   4.086  10.383   6.306
62236SOL    HW188605   4.045  10.464   6.339
62236SOL    HW288606   4.174  10.410   6.282
62237SOL     OW88607   8.407   7.601  14.003
62237SOL    HW188608   8.441   7.540  14.069
62237SOL    HW288609   8.439   7.566  13.919
62238SOL     OW88610   5.145   8.355   9.568
62238SOL    HW188611   5.188   8.327   9.487
62238SOL    HW288612   5.055   8.373   9.543
62239SOL     OW88613   0.335   3.277   1.093
62239SOL    HW188614   0.251   3.243   1.061
62239SOL    HW288615   0.334   3.369   1.069
62240SOL     OW88616   2.245   4.733  12.294
62240SOL    HW188617   2.314   4.799  12.298
62240SOL    HW288618   2.223   4.717  12.386
62241SOL     OW88619   1.576  10.357   0.478
62241SOL    HW188620   1.607  10.266   0.483
62241SOL    HW288621   1.592  10.393   0.565
62242SOL     OW88622  11.841  10.304  11.364
62242SOL    HW188623  11.874  10.218  11.390
62242SOL    HW288624  11.810  10.292  11.275
62243SOL     OW88625  13.348   8.688   5.526
62243SOL    HW188626  13.295   8.737   5.463
62243SOL    HW288627  13.434   8.679   5.484
62244SOL     OW88628  11.388  11.873  11.369
62244SOL    HW188629  11.413  11.890  11.460
62244SOL    HW288630  11.435  11.941  11.319
62245SOL     OW88631   3.837   1.082   5.356
62245SOL    HW188632   3.916   1.068   5.408
62245SOL    HW288633   3.851   1.033   5.276
62246SOL     OW88634   2.163  14.427   6.346
62246SOL    HW188635   2.189  14.447   6.256
62246SOL    HW288636   2.245  14.422   6.395
62247SOL     OW88637   3.016   7.203  13.950
62247SOL    HW188638   3.031   7.246  13.865
62247SOL    HW288639   2.939   7.248  13.986
62248SOL     OW88640  13.600  13.874   9.406
62248SOL    HW188641  13.506  13.891   9.417
62248SOL    HW288642  13.607  13.836   9.318
62249SOL     OW88643  12.324   1.163  10.374
62249SOL    HW188644  12.371   1.199  10.298
62249SOL    HW288645  12.274   1.237  10.408
62250SOL     OW88646   2.716   0.443  12.609
62250SOL    HW188647   2.688   0.422  12.697
62250SOL    HW288648   2.675   0.377  12.553
62251SOL     OW88649  11.246  13.223   7.905
62251SOL    HW188650  11.268  13.136   7.939
62251SOL    HW288651  11.306  13.235   7.832
62252SOL     OW88652  10.889   1.395   9.632
62252SOL    HW188653  10.948   1.321   9.647
62252SOL    HW288654  10.805   1.367   9.669
62253SOL     OW88655  13.649   5.569  11.205
62253SOL    HW188656  13.588   5.600  11.138
62253SOL    HW288657  13.598   5.508  11.258
62254SOL     OW88658  10.742  12.067   1.737
62254SOL    HW188659  10.783  12.053   1.652
62254SOL    HW288660  10.687  12.144   1.724
62255SOL     OW88661   4.363  11.528  13.033
62255SOL    HW188662   4.283  11.550  13.081
62255SOL    HW288663   4.350  11.565  12.946
62256SOL     OW88664   3.395   3.624  11.182
62256SOL    HW188665   3.382   3.545  11.234
62256SOL    HW288666   3.390   3.594  11.091
62257SOL     OW88667   0.777   7.029   5.996
62257SOL    HW188668   0.759   7.076   5.914
62257SOL    HW288669   0.832   7.089   6.046
62258SOL     OW88670  11.652   0.871   0.576
62258SOL    HW188671  11.694   0.948   0.537
62258SOL    HW288672  11.621   0.820   0.501
62259SOL     OW88673  13.135  12.161   2.164
62259SOL    HW188674  13.221  12.132   2.196
62259SOL    HW288675  13.090  12.080   2.140
62260SOL     OW88676   8.660  10.381   3.610
62260SOL    HW188677   8.604  10.305   3.594
62260SOL    HW288678   8.612  10.454   3.570
62261SOL     OW88679   6.999   5.624  11.998
62261SOL    HW188680   7.008   5.654  12.089
62261SOL    HW288681   7.016   5.702  11.945
62262SOL     OW88682  10.254   4.784   1.194
62262SOL    HW188683  10.172   4.832   1.199
62262SOL    HW288684  10.299   4.820   1.117
62263SOL     OW88685   4.082   5.759  12.170
62263SOL    HW188686   4.101   5.699  12.098
62263SOL    HW288687   4.134   5.837  12.150
62264SOL     OW88688   8.727  10.050  10.433
62264SOL    HW188689   8.786   9.998  10.486
62264SOL    HW288690   8.699   9.991  10.363
62265SOL     OW88691  11.294   6.956  12.008
62265SOL    HW188692  11.214   6.927  11.964
62265SOL    HW288693  11.352   6.880  12.004
62266SOL     OW88694   3.781   7.136   7.190
62266SOL    HW188695   3.710   7.096   7.140
62266SOL    HW288696   3.817   7.203   7.131
62267SOL     OW88697   1.999  13.333  12.360
62267SOL    HW188698   2.062  13.358  12.428
62267SOL    HW288699   2.023  13.388  12.285
62268SOL     OW88700  10.015  11.388  10.087
62268SOL    HW188701  10.098  11.357  10.123
62268SOL    HW288702   9.965  11.309  10.071
62269SOL     OW88703  12.736   9.104   4.966
62269SOL    HW188704  12.642   9.089   4.968
62269SOL    HW288705  12.761   9.081   4.876
62270SOL     OW88706  10.065  10.790  11.440
62270SOL    HW188707  10.003  10.763  11.508
62270SOL    HW288708  10.082  10.882  11.458
62271SOL     OW88709   2.154   2.524   3.427
62271SOL    HW188710   2.080   2.528   3.367
62271SOL    HW288711   2.185   2.434   3.422
62272SOL     OW88712  12.619   1.348   5.457
62272SOL    HW188713  12.594   1.258   5.475
62272SOL    HW288714  12.547   1.401   5.491
62273SOL     OW88715  10.495   2.541  14.206
62273SOL    HW188716  10.474   2.474  14.271
62273SOL    HW288717  10.583   2.519  14.175
62274SOL     OW88718  12.664   6.963   8.013
62274SOL    HW188719  12.673   7.057   7.995
62274SOL    HW288720  12.675   6.955   8.107
62275SOL     OW88721   9.059  10.662   1.429
62275SOL    HW188722   9.039  10.719   1.355
62275SOL    HW288723   9.055  10.573   1.393
62276SOL     OW88724   9.129   2.210   1.278
62276SOL    HW188725   9.039   2.233   1.298
62276SOL    HW288726   9.155   2.150   1.348
62277SOL     OW88727   1.817   2.409   9.328
62277SOL    HW188728   1.885   2.456   9.376
62277SOL    HW288729   1.824   2.442   9.238
62278SOL     OW88730   2.458  13.332   4.495
62278SOL    HW188731   2.468  13.283   4.413
62278SOL    HW288732   2.537  13.386   4.500
62279SOL     OW88733   4.799   7.997   3.723
62279SOL    HW188734   4.882   8.044   3.711
62279SOL    HW288735   4.811   7.945   3.801
62280SOL     OW88736   9.216  13.828   9.664
62280SOL    HW188737   9.150  13.777   9.711
62280SOL    HW288738   9.241  13.897   9.726
62281SOL     OW88739   1.492  10.616   4.632
62281SOL    HW188740   1.463  10.701   4.663
62281SOL    HW288741   1.572  10.598   4.682
62282SOL     OW88742  11.836   8.600   6.737
62282SOL    HW188743  11.853   8.520   6.688
62282SOL    HW288744  11.792   8.570   6.817
62283SOL     OW88745   6.402   6.991   0.869
62283SOL    HW188746   6.454   7.058   0.914
62283SOL    HW288747   6.312   7.006   0.898
62284SOL     OW88748  14.195   1.090   5.497
62284SOL    HW188749  14.279   1.077   5.452
62284SOL    HW288750  14.132   1.102   5.426
62285SOL     OW88751   6.417   4.874   0.160
62285SOL    HW188752   6.450   4.787   0.140
62285SOL    HW288753   6.324   4.871   0.138
62286SOL     OW88754   0.192   6.803   8.661
62286SOL    HW188755   0.255   6.758   8.717
62286SOL    HW288756   0.214   6.775   8.573
62287SOL     OW88757   1.854   2.762   3.253
62287SOL    HW188758   1.918   2.831   3.269
62287SOL    HW288759   1.898   2.702   3.193
62288SOL     OW88760   4.506   6.508   2.471
62288SOL    HW188761   4.546   6.433   2.515
62288SOL    HW288762   4.412   6.499   2.491
62289SOL     OW88763   8.735   4.988  10.601
62289SOL    HW188764   8.668   4.949  10.546
62289SOL    HW288765   8.790   5.038  10.540
62290SOL     OW88766   4.479   7.487   2.040
62290SOL    HW188767   4.385   7.472   2.054
62290SOL    HW288768   4.519   7.469   2.124
62291SOL     OW88769   7.962   2.192   0.815
62291SOL    HW188770   8.031   2.234   0.865
62291SOL    HW288771   7.902   2.263   0.792
62292SOL     OW88772   7.857  12.605  14.423
62292SOL    HW188773   7.943  12.608  14.464
62292SOL    HW288774   7.810  12.536  14.469
62293SOL     OW88775  12.827   6.420   7.907
62293SOL    HW188776  12.764   6.483   7.942
62293SOL    HW288777  12.856   6.369   7.983
62294SOL     OW88778   1.051   9.134   4.735
62294SOL    HW188779   1.135   9.181   4.732
62294SOL    HW288780   1.005   9.163   4.657
62295SOL     OW88781   2.387   0.151  12.677
62295SOL    HW188782   2.379   0.063  12.713
62295SOL    HW288783   2.480   0.172  12.685
62296SOL     OW88784   8.827   4.862  14.005
62296SOL    HW188785   8.765   4.832  14.072
62296SOL    HW288786   8.870   4.938  14.043
62297SOL     OW88787  12.105   1.698  11.735
62297SOL    HW188788  12.096   1.743  11.819
62297SOL    HW288789  12.196   1.670  11.732
62298SOL     OW88790   4.690   1.120   7.340
62298SOL    HW188791   4.629   1.169   7.396
62298SOL    HW288792   4.774   1.163   7.354
62299SOL     OW88793   8.098  11.885   0.860
62299SOL    HW188794   8.132  11.958   0.809
62299SOL    HW288795   8.169  11.863   0.920
62300SOL     OW88796   0.321   8.039   2.957
62300SOL    HW188797   0.268   8.080   3.025
62300SOL    HW288798   0.410   8.068   2.974
62301SOL     OW88799   9.728  10.692   7.217
62301SOL    HW188800   9.756  10.767   7.164
62301SOL    HW288801   9.691  10.731   7.296
62302SOL     OW88802   0.852   9.129  13.644
62302SOL    HW188803   0.889   9.044  13.619
62302SOL    HW288804   0.758   9.113  13.648
62303SOL     OW88805   8.068   1.526   1.611
62303SOL    HW188806   8.157   1.537   1.579
62303SOL    HW288807   8.057   1.594   1.676
62304SOL     OW88808   0.573  10.177   4.483
62304SOL    HW188809   0.595  10.085   4.472
62304SOL    HW288810   0.533  10.202   4.399
62305SOL     OW88811  11.271   8.293   4.121
62305SOL    HW188812  11.310   8.374   4.088
62305SOL    HW288813  11.242   8.247   4.042
62306SOL     OW88814   4.437   6.351   6.874
62306SOL    HW188815   4.410   6.442   6.862
62306SOL    HW288816   4.471   6.347   6.963
62307SOL     OW88817   3.407   1.790  13.836
62307SOL    HW188818   3.385   1.698  13.820
62307SOL    HW288819   3.432   1.824  13.749
62308SOL     OW88820   8.333   5.748   0.882
62308SOL    HW188821   8.391   5.823   0.892
62308SOL    HW288822   8.245   5.783   0.897
62309SOL     OW88823   9.645  13.619   2.759
62309SOL    HW188824   9.711  13.559   2.724
62309SOL    HW288825   9.567  13.565   2.771
62310SOL     OW88826   8.740   5.331   8.803
62310SOL    HW188827   8.648   5.326   8.828
62310SOL    HW288828   8.753   5.258   8.743
62311SOL     OW88829   8.896   5.900  12.151
62311SOL    HW188830   8.856   5.874  12.235
62311SOL    HW288831   8.823   5.906  12.090
62312SOL     OW88832   4.063  13.336   7.598
62312SOL    HW188833   4.082  13.294   7.682
62312SOL    HW288834   3.995  13.282   7.559
62313SOL     OW88835  13.856   0.566  14.266
62313SOL    HW188836  13.809   0.527  14.192
62313SOL    HW288837  13.908   0.494  14.302
62314SOL     OW88838   3.622   6.061   3.812
62314SOL    HW188839   3.688   6.124   3.783
62314SOL    HW288840   3.564   6.051   3.737
62315SOL     OW88841  10.280  13.961  11.771
62315SOL    HW188842  10.263  13.963  11.676
62315SOL    HW288843  10.311  13.872  11.787
62316SOL     OW88844  13.766   1.551   2.624
62316SOL    HW188845  13.795   1.632   2.580
62316SOL    HW288846  13.809   1.555   2.710
62317SOL     OW88847   3.700   9.770   6.709
62317SOL    HW188848   3.794   9.789   6.702
62317SOL    HW288849   3.662   9.808   6.630
62318SOL     OW88850   8.441   8.577   8.563
62318SOL    HW188851   8.451   8.622   8.647
62318SOL    HW288852   8.361   8.613   8.526
62319SOL     OW88853  12.791   9.008  10.122
62319SOL    HW188854  12.713   9.059  10.144
62319SOL    HW288855  12.855   9.032  10.190
62320SOL     OW88856   0.376   5.085  13.889
62320SOL    HW188857   0.346   5.128  13.808
62320SOL    HW288858   0.404   5.157  13.945
62321SOL     OW88859   4.223   9.943   3.152
62321SOL    HW188860   4.258   9.941   3.241
62321SOL    HW288861   4.139   9.989   3.160
62322SOL     OW88862   5.716   4.531   1.276
62322SOL    HW188863   5.745   4.620   1.255
62322SOL    HW288864   5.622   4.540   1.295
62323SOL     OW88865   0.490   8.080   5.841
62323SOL    HW188866   0.417   8.053   5.896
62323SOL    HW288867   0.458   8.073   5.751
62324SOL     OW88868   3.622   7.029   0.874
62324SOL    HW188869   3.630   6.951   0.928
62324SOL    HW288870   3.696   7.085   0.899
62325SOL     OW88871   9.508   7.014   3.943
62325SOL    HW188872   9.435   6.953   3.945
62325SOL    HW288873   9.577   6.972   3.994
62326SOL     OW88874  12.129   1.150  12.909
62326SOL    HW188875  12.168   1.237  12.922
62326SOL    HW288876  12.154   1.101  12.987
62327SOL     OW88877   8.533   6.510  12.701
62327SOL    HW188878   8.438   6.521  12.710
62327SOL    HW288879   8.566   6.511  12.791
62328SOL     OW88880   1.162   7.845   3.551
62328SOL    HW188881   1.101   7.896   3.498
62328SOL    HW288882   1.188   7.772   3.495
62329SOL     OW88883   8.379  13.739  14.872
62329SOL    HW188884   8.419  13.824  14.858
62329SOL    HW288885   8.286  13.752  14.853
62330SOL     OW88886   5.092   2.643   5.194
62330SOL    HW188887   5.142   2.632   5.113
62330SOL    HW288888   5.056   2.556   5.213
62331SOL     OW88889   1.370  10.217   1.789
62331SOL    HW188890   1.456  10.176   1.780
62331SOL    HW288891   1.388  10.311   1.782
62332SOL     OW88892  10.882   1.381   5.421
62332SOL    HW188893  10.965   1.349   5.385
62332SOL    HW288894  10.909   1.435   5.496
62333SOL     OW88895  13.691   7.548   5.750
62333SOL    HW188896  13.625   7.527   5.815
62333SOL    HW288897  13.774   7.529   5.793
62334SOL     OW88898   1.823   6.431   7.278
62334SOL    HW188899   1.743   6.419   7.228
62334SOL    HW288900   1.812   6.376   7.355
62335SOL     OW88901  11.793  11.876   4.683
62335SOL    HW188902  11.848  11.943   4.642
62335SOL    HW288903  11.829  11.866   4.771
62336SOL     OW88904   8.297   5.590   7.281
62336SOL    HW188905   8.237   5.651   7.325
62336SOL    HW288906   8.242   5.514   7.260
62337SOL     OW88907   7.789  10.921  12.253
62337SOL    HW188908   7.863  10.879  12.210
62337SOL    HW288909   7.783  11.007  12.213
62338SOL     OW88910   5.624   4.348   0.905
62338SOL    HW188911   5.705   4.369   0.859
62338SOL    HW288912   5.574   4.294   0.843
62339SOL     OW88913   7.605   7.324  14.128
62339SOL    HW188914   7.657   7.403  14.142
62339SOL    HW288915   7.589   7.290  14.216
62340SOL     OW88916   0.462   0.125   0.956
62340SOL    HW188917   0.444   0.219   0.953
62340SOL    HW288918   0.423   0.090   0.875
62341SOL     OW88919   7.568  12.262  11.719
62341SOL    HW188920   7.524  12.246  11.635
62341SOL    HW288921   7.648  12.210  11.715
62342SOL     OW88922   2.756   7.982   7.430
62342SOL    HW188923   2.812   7.956   7.503
62342SOL    HW288924   2.706   7.903   7.408
62343SOL     OW88925  11.244   6.119  11.467
62343SOL    HW188926  11.331   6.082  11.478
62343SOL    HW288927  11.186   6.043  11.460
62344SOL     OW88928   9.360  12.571   4.480
62344SOL    HW188929   9.277  12.539   4.517
62344SOL    HW288930   9.427  12.523   4.529
62345SOL     OW88931  13.329   8.735  13.902
62345SOL    HW188932  13.355   8.780  13.982
62345SOL    HW288933  13.402   8.676  13.882
62346SOL     OW88934   9.298   2.288   1.635
62346SOL    HW188935   9.277   2.329   1.719
62346SOL    HW288936   9.393   2.273   1.639
62347SOL     OW88937  10.290   6.949  11.435
62347SOL    HW188938  10.386   6.947  11.439
62347SOL    HW288939  10.265   7.014  11.501
62348SOL     OW88940   3.834  12.224   7.889
62348SOL    HW188941   3.864  12.140   7.855
62348SOL    HW288942   3.740  12.212   7.906
62349SOL     OW88943  10.705  10.745   7.660
62349SOL    HW188944  10.741  10.753   7.572
62349SOL    HW288945  10.743  10.819   7.708
62350SOL     OW88946  14.270   0.888  12.742
62350SOL    HW188947  14.335   0.955  12.720
62350SOL    HW288948  14.317   0.805  12.733
62351SOL     OW88949   5.709   8.652   9.447
62351SOL    HW188950   5.761   8.722   9.487
62351SOL    HW288951   5.762   8.621   9.374
62352SOL     OW88952  12.730  13.810   3.263
62352SOL    HW188953  12.664  13.841   3.325
62352SOL    HW288954  12.678  13.781   3.187
62353SOL     OW88955  12.734  11.745   8.731
62353SOL    HW188956  12.741  11.835   8.699
62353SOL    HW288957  12.762  11.691   8.657
62354SOL     OW88958   9.987   5.473   1.573
62354SOL    HW188959   9.995   5.516   1.658
62354SOL    HW288960   9.905   5.424   1.579
62355SOL     OW88961   0.943   3.839   8.853
62355SOL    HW188962   0.898   3.922   8.867
62355SOL    HW288963   0.961   3.807   8.941
62356SOL     OW88964   4.833   2.520  13.119
62356SOL    HW188965   4.762   2.540  13.058
62356SOL    HW288966   4.845   2.600  13.169
62357SOL     OW88967   2.812  13.777  11.817
62357SOL    HW188968   2.800  13.860  11.772
62357SOL    HW288969   2.837  13.715  11.748
62358SOL     OW88970   1.803   6.865  10.417
62358SOL    HW188971   1.718   6.827  10.437
62358SOL    HW288972   1.867   6.802  10.450
62359SOL     OW88973  11.335   3.716   1.983
62359SOL    HW188974  11.331   3.769   2.063
62359SOL    HW288975  11.339   3.780   1.912
62360SOL     OW88976   8.707   8.354  10.774
62360SOL    HW188977   8.673   8.432  10.729
62360SOL    HW288978   8.632   8.319  10.821
62361SOL     OW88979  14.792   1.007   0.001
62361SOL    HW188980   0.001   1.026   0.024
62361SOL    HW288981  14.740   1.057   0.064
62362SOL     OW88982   4.183   2.840  11.367
62362SOL    HW188983   4.245   2.867  11.435
62362SOL    HW288984   4.205   2.749  11.348
62363SOL     OW88985  10.865   0.389  10.526
62363SOL    HW188986  10.784   0.427  10.560
62363SOL    HW288987  10.877   0.429  10.440
62364SOL     OW88988   7.638   5.342  14.158
62364SOL    HW188989   7.628   5.265  14.102
62364SOL    HW288990   7.600   5.316  14.242
62365SOL     OW88991   3.409  10.257  10.612
62365SOL    HW188992   3.372  10.290  10.694
62365SOL    HW288993   3.422  10.336  10.558
62366SOL     OW88994   2.881   8.935  12.243
62366SOL    HW188995   2.910   8.844  12.252
62366SOL    HW288996   2.813   8.932  12.176
62367SOL     OW88997  13.851   9.436   4.121
62367SOL    HW188998  13.853   9.408   4.213
62367SOL    HW288999  13.909   9.512   4.118
62368SOL     OW89000   2.336  13.321   1.044
62368SOL    HW189001   2.301  13.399   1.087
62368SOL    HW289002   2.344  13.257   1.115
62369SOL     OW89003   6.184   8.174   6.632
62369SOL    HW189004   6.157   8.264   6.647
62369SOL    HW289005   6.205   8.170   6.539
62370SOL     OW89006   1.806   3.390   1.677
62370SOL    HW189007   1.816   3.485   1.686
62370SOL    HW289008   1.744   3.367   1.747
62371SOL     OW89009  13.388   7.930  10.775
62371SOL    HW189010  13.454   7.993  10.804
62371SOL    HW289011  13.340   7.977  10.707
62372SOL     OW89012  13.076  12.018  13.247
62372SOL    HW189013  13.081  12.100  13.199
62372SOL    HW289014  13.127  11.956  13.195
62373SOL     OW89015   7.072  14.487   3.041
62373SOL    HW189016   7.023  14.405   3.038
62373SOL    HW289017   7.005  14.555   3.051
62374SOL     OW89018  10.539   9.887   7.703
62374SOL    HW189019  10.568   9.809   7.751
62374SOL    HW289020  10.520   9.952   7.771
62375SOL     OW89021  10.965  14.633   8.778
62375SOL    HW189022  10.970  14.681   8.695
62375SOL    HW289023  11.021  14.683   8.838
62376SOL     OW89024   1.642  10.085   1.778
62376SOL    HW189025   1.675  10.000   1.749
62376SOL    HW289026   1.665  10.088   1.871
62377SOL     OW89027   6.117   6.567   8.228
62377SOL    HW189028   6.185   6.633   8.244
62377SOL    HW289029   6.062   6.570   8.306
62378SOL     OW89030  14.814   0.740   8.963
62378SOL    HW189031  14.860   0.656   8.973
62378SOL    HW289032  14.867   0.802   9.012
62379SOL     OW89033   9.536   2.369   3.966
62379SOL    HW189034   9.448   2.352   3.999
62379SOL    HW289035   9.563   2.449   4.010
62380SOL     OW89036   9.359  10.352   3.860
62380SOL    HW189037   9.433  10.292   3.874
62380SOL    HW289038   9.303  10.305   3.797
62381SOL     OW89039  11.771   0.072   9.674
62381SOL    HW189040  11.852   0.121   9.659
62381SOL    HW289041  11.738   0.054   9.586
62382SOL     OW89042   7.883   5.198   9.642
62382SOL    HW189043   7.960   5.229   9.689
62382SOL    HW289044   7.844   5.277   9.604
62383SOL     OW89045   3.968  14.688   3.803
62383SOL    HW189046   4.001  14.608   3.761
62383SOL    HW289047   4.017  14.759   3.761
62384SOL     OW89048  13.678   7.977  14.717
62384SOL    HW189049  13.646   7.942  14.800
62384SOL    HW289050  13.670   8.072  14.726
62385SOL     OW89051   1.965   1.112  11.974
62385SOL    HW189052   1.911   1.177  12.019
62385SOL    HW289053   1.904   1.046  11.944
62386SOL     OW89054   9.688  13.930  13.740
62386SOL    HW189055   9.643  13.885  13.668
62386SOL    HW289056   9.774  13.889  13.744
62387SOL     OW89057   6.371   1.986  12.974
62387SOL    HW189058   6.353   1.953  12.886
62387SOL    HW289059   6.288   2.023  13.003
62388SOL     OW89060   7.860  12.660   3.614
62388SOL    HW189061   7.807  12.581   3.608
62388SOL    HW289062   7.827  12.717   3.545
62389SOL     OW89063   6.264   1.326   9.402
62389SOL    HW189064   6.298   1.336   9.491
62389SOL    HW289065   6.305   1.246   9.370
62390SOL     OW89066   6.809  14.839   5.915
62390SOL    HW189067   6.879   0.021   5.909
62390SOL    HW289068   6.731   0.003   5.884
62391SOL     OW89069  12.518  11.803   4.973
62391SOL    HW189070  12.546  11.854   4.897
62391SOL    HW289071  12.581  11.827   5.042
62392SOL     OW89072   1.139   0.590  11.946
62392SOL    HW189073   1.075   0.661  11.942
62392SOL    HW289074   1.135   0.560  12.037
62393SOL     OW89075  13.710  12.691   6.695
62393SOL    HW189076  13.786  12.687   6.753
62393SOL    HW289077  13.642  12.643   6.742
62394SOL     OW89078  11.367   8.577   0.862
62394SOL    HW189079  11.369   8.516   0.788
62394SOL    HW289080  11.444   8.553   0.914
62395SOL     OW89081  12.954   0.265   1.746
62395SOL    HW189082  13.013   0.201   1.786
62395SOL    HW289083  12.992   0.350   1.770
62396SOL     OW89084   7.129   5.721   5.433
62396SOL    HW189085   7.109   5.755   5.346
62396SOL    HW289086   7.104   5.629   5.429
62397SOL     OW89087  12.423  10.925  11.325
62397SOL    HW189088  12.423  10.978  11.246
62397SOL    HW289089  12.330  10.911  11.346
62398SOL     OW89090   1.082   2.651   7.358
62398SOL    HW189091   1.008   2.701   7.392
62398SOL    HW289092   1.058   2.631   7.267
62399SOL     OW89093   7.140  10.329  11.669
62399SOL    HW189094   7.195  10.253  11.650
62399SOL    HW289095   7.145  10.382  11.590
62400SOL     OW89096   2.155   9.708   2.981
62400SOL    HW189097   2.151   9.728   2.887
62400SOL    HW289098   2.233   9.655   2.991
62401SOL     OW89099   6.938   1.250   4.464
62401SOL    HW189100   6.917   1.301   4.386
62401SOL    HW289101   7.016   1.200   4.439
62402SOL     OW89102   1.878   5.282   7.932
62402SOL    HW189103   1.949   5.217   7.939
62402SOL    HW289104   1.838   5.282   8.019
62403SOL     OW89105   4.845   7.390   4.942
62403SOL    HW189106   4.893   7.425   5.018
62403SOL    HW289107   4.755   7.380   4.973
62404SOL     OW89108   7.424  11.761   5.994
62404SOL    HW189109   7.340  11.754   6.040
62404SOL    HW289110   7.425  11.687   5.934
62405SOL     OW89111   9.172   0.220   3.330
62405SOL    HW189112   9.101   0.156   3.322
62405SOL    HW289113   9.156   0.264   3.413
62406SOL     OW89114   9.624   6.120  14.857
62406SOL    HW189115   9.613   6.054  14.789
62406SOL    HW289116   9.555   6.184  14.840
62407SOL     OW89117   4.092  12.199  11.321
62407SOL    HW189118   4.126  12.202  11.231
62407SOL    HW289119   4.046  12.282  11.332
62408SOL     OW89120   0.697  11.567   1.264
62408SOL    HW189121   0.661  11.575   1.175
62408SOL    HW289122   0.650  11.492   1.302
62409SOL     OW89123  13.719   4.258  10.404
62409SOL    HW189124  13.726   4.235  10.311
62409SOL    HW289125  13.683   4.179  10.446
62410SOL     OW89126  13.754   1.704   2.261
62410SOL    HW189127  13.701   1.757   2.201
62410SOL    HW289128  13.693   1.678   2.330
62411SOL     OW89129   5.539   2.747   2.821
62411SOL    HW189130   5.469   2.789   2.772
62411SOL    HW289131   5.534   2.785   2.909
62412SOL     OW89132  12.317   1.498   5.444
62412SOL    HW189133  12.256   1.445   5.494
62412SOL    HW289134  12.326   1.579   5.494
62413SOL     OW89135  13.722  14.185  10.376
62413SOL    HW189136  13.689  14.225  10.457
62413SOL    HW289137  13.646  14.139  10.340
62414SOL     OW89138   5.567   0.572   8.368
62414SOL    HW189139   5.634   0.624   8.412
62414SOL    HW289140   5.562   0.609   8.280
62415SOL     OW89141  13.608  11.684  13.182
62415SOL    HW189142  13.533  11.648  13.134
62415SOL    HW289143  13.607  11.778  13.162
62416SOL     OW89144   4.961   2.990  12.523
62416SOL    HW189145   5.005   3.074  12.506
62416SOL    HW289146   5.015   2.926  12.477
62417SOL     OW89147   5.367   5.549  13.621
62417SOL    HW189148   5.322   5.568  13.539
62417SOL    HW289149   5.339   5.460  13.644
62418SOL     OW89150  12.197   6.086  10.380
62418SOL    HW189151  12.186   6.010  10.323
62418SOL    HW289152  12.246   6.053  10.456
62419SOL     OW89153  10.692   4.357   5.736
62419SOL    HW189154  10.695   4.417   5.662
62419SOL    HW289155  10.737   4.278   5.705
62420SOL     OW89156   7.685  12.392  11.961
62420SOL    HW189157   7.644  12.381  11.875
62420SOL    HW289158   7.749  12.462  11.948
62421SOL     OW89159   9.501  10.539   2.897
62421SOL    HW189160   9.470  10.502   2.980
62421SOL    HW289161   9.482  10.473   2.832
62422SOL     OW89162  10.662  11.140   1.802
62422SOL    HW189163  10.671  11.223   1.850
62422SOL    HW289164  10.701  11.075   1.860
62423SOL     OW89165  13.489   5.717   1.775
62423SOL    HW189166  13.396   5.722   1.798
62423SOL    HW289167  13.525   5.656   1.840
62424SOL     OW89168  10.746   5.751   7.645
62424SOL    HW189169  10.699   5.749   7.562
62424SOL    HW289170  10.831   5.789   7.623
62425SOL     OW89171  14.586   7.521   9.949
62425SOL    HW189172  14.631   7.446   9.988
62425SOL    HW289173  14.631   7.598   9.986
62426SOL     OW89174   2.833   6.086   2.250
62426SOL    HW189175   2.895   6.092   2.322
62426SOL    HW289176   2.886   6.062   2.174
62427SOL     OW89177  12.512   4.648   8.143
62427SOL    HW189178  12.435   4.675   8.092
62427SOL    HW289179  12.481   4.574   8.196
62428SOL     OW89180   1.514   2.876  11.526
62428SOL    HW189181   1.582   2.908  11.586
62428SOL    HW289182   1.493   2.951  11.472
62429SOL     OW89183  13.175   9.717   6.733
62429SOL    HW189184  13.127   9.693   6.812
62429SOL    HW289185  13.109   9.719   6.664
62430SOL     OW89186   6.521  10.875  12.575
62430SOL    HW189187   6.446  10.865  12.633
62430SOL    HW289188   6.519  10.967  12.549
62431SOL     OW89189   6.510   9.318   9.895
62431SOL    HW189190   6.499   9.249   9.829
62431SOL    HW289191   6.421   9.350   9.911
62432SOL     OW89192  10.300   7.416   1.940
62432SOL    HW189193  10.274   7.500   1.905
62432SOL    HW289194  10.391   7.405   1.913
62433SOL     OW89195   8.322   9.337   7.917
62433SOL    HW189196   8.283   9.273   7.858
62433SOL    HW289197   8.362   9.402   7.859
62434SOL     OW89198   1.800  10.054  11.862
62434SOL    HW189199   1.784  10.133  11.914
62434SOL    HW289200   1.883  10.072  11.817
62435SOL     OW89201   3.149   6.409  13.570
62435SOL    HW189202   3.182   6.497  13.554
62435SOL    HW289203   3.197   6.353  13.509
62436SOL     OW89204   5.589   8.809  11.116
62436SOL    HW189205   5.494   8.818  11.113
62436SOL    HW289206   5.604   8.715  11.123
62437SOL     OW89207   2.612  11.668   3.294
62437SOL    HW189208   2.646  11.642   3.379
62437SOL    HW289209   2.671  11.629   3.230
62438SOL     OW89210   3.968   4.133   5.207
62438SOL    HW189211   4.038   4.105   5.149
62438SOL    HW289212   3.916   4.194   5.154
62439SOL     OW89213   5.197   8.381   9.839
62439SOL    HW189214   5.155   8.373   9.753
62439SOL    HW289215   5.280   8.425   9.822
62440SOL     OW89216  11.320  12.790   4.612
62440SOL    HW189217  11.340  12.881   4.633
62440SOL    HW289218  11.257  12.763   4.679
62441SOL     OW89219  12.638   0.982   1.379
62441SOL    HW189220  12.564   1.026   1.337
62441SOL    HW289221  12.692   0.952   1.307
62442SOL     OW89222  10.272   9.011   0.093
62442SOL    HW189223  10.221   9.064   0.154
62442SOL    HW289224  10.215   8.938   0.070
62443SOL     OW89225   7.861   3.018   9.290
62443SOL    HW189226   7.915   3.096   9.278
62443SOL    HW289227   7.922   2.945   9.285
62444SOL     OW89228   2.985   7.064  12.073
62444SOL    HW189229   2.901   7.021  12.055
62444SOL    HW289230   2.991   7.134  12.008
62445SOL     OW89231   3.274   2.596   0.548
62445SOL    HW189232   3.362   2.615   0.516
62445SOL    HW289233   3.268   2.500   0.548
62446SOL     OW89234   9.314  10.831   6.626
62446SOL    HW189235   9.384  10.809   6.686
62446SOL    HW289236   9.240  10.855   6.682
62447SOL     OW89237   7.650   4.397   2.237
62447SOL    HW189238   7.598   4.350   2.171
62447SOL    HW289239   7.738   4.400   2.200
62448SOL     OW89240   5.888   6.816   4.293
62448SOL    HW189241   5.979   6.787   4.296
62448SOL    HW289242   5.849   6.780   4.372
62449SOL     OW89243   4.553   0.204   6.974
62449SOL    HW189244   4.580   0.112   6.972
62449SOL    HW289245   4.598   0.244   6.899
62450SOL     OW89246   0.540   7.426  14.426
62450SOL    HW189247   0.535   7.487  14.499
62450SOL    HW289248   0.486   7.466  14.358
62451SOL     OW89249   0.505   0.086  13.903
62451SOL    HW189250   0.586   0.110  13.857
62451SOL    HW289251   0.447   0.054  13.834
62452SOL     OW89252   9.973   5.567   6.574
62452SOL    HW189253   9.969   5.662   6.571
62452SOL    HW289254  10.052   5.548   6.624
62453SOL     OW89255  14.405   4.858   3.505
62453SOL    HW189256  14.315   4.829   3.519
62453SOL    HW289257  14.400   4.921   3.434
62454SOL     OW89258   0.845   2.484   5.732
62454SOL    HW189259   0.757   2.449   5.744
62454SOL    HW289260   0.869   2.457   5.643
62455SOL     OW89261  11.098   8.841   1.154
62455SOL    HW189262  11.123   8.753   1.180
62455SOL    HW289263  11.005   8.836   1.136
62456SOL     OW89264  14.786   1.320  14.694
62456SOL    HW189265  14.858   1.376  14.665
62456SOL    HW289266  14.766   1.351  14.782
62457SOL     OW89267   7.274  10.039   1.100
62457SOL    HW189268   7.190  10.077   1.074
62457SOL    HW289269   7.272  10.038   1.195
62458SOL     OW89270  14.224   6.213   4.372
62458SOL    HW189271  14.157   6.147   4.352
62458SOL    HW289272  14.178   6.297   4.362
62459SOL     OW89273   9.150   7.170   4.576
62459SOL    HW189274   9.143   7.224   4.655
62459SOL    HW289275   9.240   7.136   4.578
62460SOL     OW89276  10.806  14.056  12.594
62460SOL    HW189277  10.840  14.037  12.682
62460SOL    HW289278  10.711  14.052  12.605
62461SOL     OW89279  13.431   9.486  12.522
62461SOL    HW189280  13.509   9.528  12.559
62461SOL    HW289281  13.456   9.395  12.510
62462SOL     OW89282   1.501  12.616  12.215
62462SOL    HW189283   1.506  12.663  12.132
62462SOL    HW289284   1.437  12.546  12.199
62463SOL     OW89285   7.400  13.503   9.195
62463SOL    HW189286   7.368  13.419   9.161
62463SOL    HW289287   7.347  13.519   9.273
62464SOL     OW89288  12.972   3.989   8.941
62464SOL    HW189289  12.879   3.972   8.957
62464SOL    HW289290  12.984   3.971   8.848
62465SOL     OW89291   3.988   6.162   2.392
62465SOL    HW189292   4.074   6.122   2.380
62465SOL    HW289293   3.965   6.144   2.483
62466SOL     OW89294   9.113   2.762   0.040
62466SOL    HW189295   9.094   2.855   0.026
62466SOL    HW289296   9.208   2.755   0.034
62467SOL     OW89297   4.855   1.290   1.050
62467SOL    HW189298   4.923   1.345   1.012
62467SOL    HW289299   4.774   1.338   1.035
62468SOL     OW89300  10.256   9.675   8.174
62468SOL    HW189301  10.273   9.698   8.083
62468SOL    HW289302  10.334   9.704   8.221
62469SOL     OW89303  11.482   7.646  12.466
62469SOL    HW189304  11.398   7.690  12.476
62469SOL    HW289305  11.464   7.554  12.484
62470SOL     OW89306   7.814   3.046   8.058
62470SOL    HW189307   7.814   3.081   8.147
62470SOL    HW289308   7.907   3.041   8.034
62471SOL     OW89309  11.603  14.314  13.453
62471SOL    HW189310  11.539  14.313  13.382
62471SOL    HW289311  11.552  14.335  13.531
62472SOL     OW89312  12.759   9.571   1.103
62472SOL    HW189313  12.696   9.610   1.043
62472SOL    HW289314  12.843   9.612   1.081
62473SOL     OW89315  10.481  10.876   9.975
62473SOL    HW189316  10.456  10.788   9.946
62473SOL    HW289317  10.440  10.935   9.912
62474SOL     OW89318  13.691   9.653   2.335
62474SOL    HW189319  13.718   9.580   2.392
62474SOL    HW289320  13.605   9.678   2.368
62475SOL     OW89321   3.259  13.290  11.306
62475SOL    HW189322   3.348  13.325  11.298
62475SOL    HW289323   3.213  13.353  11.360
62476SOL     OW89324  12.877  13.543   5.599
62476SOL    HW189325  12.786  13.513   5.598
62476SOL    HW289326  12.877  13.615   5.663
62477SOL     OW89327  11.511  14.339   8.905
62477SOL    HW189328  11.586  14.284   8.881
62477SOL    HW289329  11.504  14.402   8.833
62478SOL     OW89330   4.409  11.554   7.286
62478SOL    HW189331   4.350  11.549   7.361
62478SOL    HW289332   4.362  11.512   7.215
62479SOL     OW89333   8.456   9.575   6.775
62479SOL    HW189334   8.534   9.567   6.830
62479SOL    HW289335   8.387   9.602   6.835
62480SOL     OW89336   2.004   3.125   9.093
62480SOL    HW189337   1.980   3.213   9.121
62480SOL    HW289338   1.989   3.124   8.999
62481SOL     OW89339  13.858  11.264   1.303
62481SOL    HW189340  13.943  11.296   1.333
62481SOL    HW289341  13.860  11.170   1.322
62482SOL     OW89342   4.221   6.171   0.714
62482SOL    HW189343   4.227   6.078   0.695
62482SOL    HW289344   4.216   6.175   0.810
62483SOL     OW89345   7.083   0.567   0.802
62483SOL    HW189346   7.015   0.523   0.751
62483SOL    HW289347   7.164   0.521   0.781
62484SOL     OW89348   1.332   2.457  10.010
62484SOL    HW189349   1.390   2.512   9.958
62484SOL    HW289350   1.279   2.519  10.060
62485SOL     OW89351   7.094   6.730   6.499
62485SOL    HW189352   7.137   6.757   6.418
62485SOL    HW289353   7.002   6.720   6.474
62486SOL     OW89354  10.366   7.950   4.149
62486SOL    HW189355  10.406   7.887   4.209
62486SOL    HW289356  10.333   7.897   4.076
62487SOL     OW89357  14.448   3.330   7.797
62487SOL    HW189358  14.490   3.248   7.769
62487SOL    HW289359  14.507   3.399   7.766
62488SOL     OW89360   7.907   1.324   7.906
62488SOL    HW189361   7.958   1.271   7.845
62488SOL    HW289362   7.906   1.411   7.867
62489SOL     OW89363   2.869   0.241   1.810
62489SOL    HW189364   2.873   0.146   1.798
62489SOL    HW289365   2.855   0.276   1.722
62490SOL     OW89366   6.083  10.538   5.039
62490SOL    HW189367   6.151  10.485   5.082
62490SOL    HW289368   6.003  10.487   5.048
62491SOL     OW89369  10.188   9.590   5.647
62491SOL    HW189370  10.200   9.526   5.577
62491SOL    HW289371  10.143   9.541   5.716
62492SOL     OW89372  14.864   5.865  13.509
62492SOL    HW189373  14.820   5.927  13.450
62492SOL    HW289374  14.795   5.833  13.566
62493SOL     OW89375   6.627   0.895   8.982
62493SOL    HW189376   6.666   0.947   8.912
62493SOL    HW289377   6.660   0.935   9.063
62494SOL     OW89378   6.496   0.595   0.485
62494SOL    HW189379   6.464   0.540   0.557
62494SOL    HW289380   6.564   0.542   0.444
62495SOL     OW89381   5.413   5.642   7.423
62495SOL    HW189382   5.500   5.662   7.458
62495SOL    HW289383   5.408   5.547   7.425
62496SOL     OW89384  10.949  13.163   1.105
62496SOL    HW189385  10.950  13.239   1.163
62496SOL    HW289386  10.868  13.172   1.055
62497SOL     OW89387  12.204   8.197   8.894
62497SOL    HW189388  12.117   8.165   8.917
62497SOL    HW289389  12.187   8.271   8.835
62498SOL     OW89390   8.338  10.404  11.160
62498SOL    HW189391   8.310  10.320  11.199
62498SOL    HW289392   8.433  10.401  11.164
62499SOL     OW89393   4.259   0.463  12.269
62499SOL    HW189394   4.238   0.371  12.286
62499SOL    HW289395   4.189   0.494  12.212
62500SOL     OW89396   8.824   0.493  14.017
62500SOL    HW189397   8.895   0.448  14.063
62500SOL    HW289398   8.856   0.582  14.003
62501SOL     OW89399  13.527  10.612  10.748
62501SOL    HW189400  13.561  10.702  10.751
62501SOL    HW289401  13.600  10.560  10.714
62502SOL     OW89402  12.523   0.622   3.039
62502SOL    HW189403  12.570   0.547   3.001
62502SOL    HW289404  12.451   0.583   3.088
62503SOL     OW89405   8.203  12.109   2.207
62503SOL    HW189406   8.296  12.129   2.213
62503SOL    HW289407   8.198  12.014   2.206
62504SOL     OW89408  11.495   8.036  10.651
62504SOL    HW189409  11.446   8.082  10.583
62504SOL    HW289410  11.585   8.068  10.641
62505SOL     OW89411   7.500   7.127   9.171
62505SOL    HW189412   7.445   7.183   9.116
62505SOL    HW289413   7.439   7.066   9.212
62506SOL     OW89414   3.930   1.353   4.322
62506SOL    HW189415   3.926   1.307   4.405
62506SOL    HW289416   3.991   1.302   4.269
62507SOL     OW89417   6.421   3.974   8.706
62507SOL    HW189418   6.362   4.018   8.645
62507SOL    HW289419   6.365   3.914   8.755
62508SOL     OW89420  12.445   4.772   1.528
62508SOL    HW189421  12.351   4.777   1.515
62508SOL    HW289422  12.473   4.698   1.473
62509SOL     OW89423   3.460   9.066   8.904
62509SOL    HW189424   3.465   8.972   8.919
62509SOL    HW289425   3.368   9.087   8.916
62510SOL     OW89426   4.607  11.324  12.270
62510SOL    HW189427   4.613  11.232  12.296
62510SOL    HW289428   4.516  11.348  12.286
62511SOL     OW89429  11.237  10.724   2.092
62511SOL    HW189430  11.144  10.703   2.094
62511SOL    HW289431  11.269  10.685   2.011
62512SOL     OW89432  12.034  11.052   0.057
62512SOL    HW189433  12.040  10.981  14.875
62512SOL    HW289434  11.941  11.072   0.062
62513SOL     OW89435  10.273   5.306   9.759
62513SOL    HW189436  10.361   5.301   9.797
62513SOL    HW289437  10.216   5.323   9.834
62514SOL     OW89438  10.409   4.182   8.843
62514SOL    HW189439  10.428   4.152   8.932
62514SOL    HW289440  10.495   4.197   8.803
62515SOL     OW89441   1.180  10.250   5.746
62515SOL    HW189442   1.147  10.224   5.832
62515SOL    HW289443   1.133  10.193   5.685
62516SOL     OW89444   0.333   1.146  10.993
62516SOL    HW189445   0.380   1.085  11.050
62516SOL    HW289446   0.326   1.099  10.910
62517SOL     OW89447   2.665  12.228   7.708
62517SOL    HW189448   2.695  12.266   7.626
62517SOL    HW289449   2.576  12.260   7.719
62518SOL     OW89450  12.891   1.141   9.334
62518SOL    HW189451  12.821   1.201   9.310
62518SOL    HW289452  12.960   1.197   9.370
62519SOL     OW89453   6.670   2.958  12.549
62519SOL    HW189454   6.703   2.984  12.463
62519SOL    HW289455   6.668   2.862  12.546
62520SOL     OW89456   3.222   1.845   4.711
62520SOL    HW189457   3.141   1.795   4.701
62520SOL    HW289458   3.288   1.780   4.733
62521SOL     OW89459   5.829   5.616   2.729
62521SOL    HW189460   5.741   5.592   2.756
62521SOL    HW289461   5.886   5.564   2.785
62522SOL     OW89462   5.965   1.586  10.483
62522SOL    HW189463   5.997   1.594  10.393
62522SOL    HW289464   5.873   1.562  10.473
62523SOL     OW89465   7.057   1.670   5.477
62523SOL    HW189466   7.034   1.631   5.562
62523SOL    HW289467   7.146   1.703   5.489
62524SOL     OW89468   3.256  10.397   2.965
62524SOL    HW189469   3.302  10.447   3.032
62524SOL    HW289470   3.324  10.374   2.901
62525SOL     OW89471   2.024  10.896   0.306
62525SOL    HW189472   1.979  10.862   0.383
62525SOL    HW289473   1.954  10.920   0.246
62526SOL     OW89474  11.413  11.041   9.889
62526SOL    HW189475  11.437  10.984   9.962
62526SOL    HW289476  11.438  10.992   9.810
62527SOL     OW89477   2.833   8.197   9.249
62527SOL    HW189478   2.873   8.186   9.163
62527SOL    HW289479   2.780   8.119   9.261
62528SOL     OW89480   9.746   4.310  11.173
62528SOL    HW189481   9.783   4.223  11.160
62528SOL    HW289482   9.794   4.345  11.248
62529SOL     OW89483  14.734  10.308   7.611
62529SOL    HW189484  14.712  10.221   7.643
62529SOL    HW289485  14.818  10.296   7.566
62530SOL     OW89486  10.677   1.543   1.634
62530SOL    HW189487  10.641   1.582   1.554
62530SOL    HW289488  10.760   1.504   1.606
62531SOL     OW89489   9.457   2.828   6.454
62531SOL    HW189490   9.463   2.824   6.358
62531SOL    HW289491   9.523   2.891   6.480
62532SOL     OW89492   3.937   2.352  13.936
62532SOL    HW189493   3.991   2.396  13.871
62532SOL    HW289494   3.896   2.280  13.887
62533SOL     OW89495   8.514  12.647   5.827
62533SOL    HW189496   8.514  12.737   5.859
62533SOL    HW289497   8.423  12.619   5.835
62534SOL     OW89498   2.612   0.294   7.879
62534SOL    HW189499   2.556   0.345   7.937
62534SOL    HW289500   2.634   0.215   7.930
62535SOL     OW89501   4.028  14.388   6.602
62535SOL    HW189502   3.982  14.361   6.523
62535SOL    HW289503   3.960  14.389   6.670
62536SOL     OW89504  12.231   9.174   5.142
62536SOL    HW189505  12.220   9.241   5.074
62536SOL    HW289506  12.153   9.184   5.197
62537SOL     OW89507   3.247   9.341   3.617
62537SOL    HW189508   3.329   9.292   3.608
62537SOL    HW289509   3.180   9.274   3.630
62538SOL     OW89510   7.081  13.346  12.628
62538SOL    HW189511   7.118  13.388  12.550
62538SOL    HW289512   7.122  13.260  12.631
62539SOL     OW89513   6.259   1.328   8.170
62539SOL    HW189514   6.254   1.409   8.120
62539SOL    HW289515   6.352   1.305   8.169
62540SOL     OW89516  14.388   3.350   4.316
62540SOL    HW189517  14.324   3.312   4.256
62540SOL    HW289518  14.417   3.430   4.272
62541SOL     OW89519  11.921   0.266  13.899
62541SOL    HW189520  11.970   0.348  13.889
62541SOL    HW289521  11.967   0.218  13.967
62542SOL     OW89522  12.180   9.192   6.783
62542SOL    HW189523  12.247   9.130   6.753
62542SOL    HW289524  12.231   9.262   6.824
62543SOL     OW89525   9.738   2.378   1.363
62543SOL    HW189526   9.644   2.370   1.347
62543SOL    HW289527   9.771   2.289   1.359
62544SOL     OW89528   1.727  12.415   3.625
62544SOL    HW189529   1.699  12.324   3.616
62544SOL    HW289530   1.646  12.463   3.643
62545SOL     OW89531   3.018  10.129   7.685
62545SOL    HW189532   2.968  10.186   7.627
62545SOL    HW289533   3.085  10.185   7.723
62546SOL     OW89534   9.777   4.583   3.208
62546SOL    HW189535   9.814   4.497   3.231
62546SOL    HW289536   9.724   4.565   3.130
62547SOL     OW89537  13.915  13.767  10.230
62547SOL    HW189538  13.890  13.797  10.318
62547SOL    HW289539  13.886  13.837  10.172
62548SOL     OW89540   0.672  11.321   7.566
62548SOL    HW189541   0.625  11.263   7.626
62548SOL    HW289542   0.670  11.274   7.482
62549SOL     OW89543  14.356   0.962   2.734
62549SOL    HW189544  14.410   0.977   2.656
62549SOL    HW289545  14.359   1.046   2.782
62550SOL     OW89546  13.661   1.983   0.504
62550SOL    HW189547  13.670   1.908   0.563
62550SOL    HW289548  13.718   2.050   0.542
62551SOL     OW89549   8.140   0.428   3.543
62551SOL    HW189550   8.099   0.397   3.462
62551SOL    HW289551   8.111   0.519   3.551
62552SOL     OW89552   3.430  14.127  13.252
62552SOL    HW189553   3.505  14.169  13.209
62552SOL    HW289554   3.362  14.127  13.185
62553SOL     OW89555   8.393  11.603   1.443
62553SOL    HW189556   8.459  11.665   1.474
62553SOL    HW289557   8.396  11.531   1.506
62554SOL     OW89558   2.598  14.356   1.478
62554SOL    HW189559   2.550  14.311   1.408
62554SOL    HW289560   2.619  14.287   1.540
62555SOL     OW89561   0.935  12.463   4.116
62555SOL    HW189562   0.982  12.397   4.066
62555SOL    HW289563   0.993  12.483   4.189
62556SOL     OW89564   0.335  11.796   3.910
62556SOL    HW189565   0.428  11.812   3.898
62556SOL    HW289566   0.326  11.701   3.901
62557SOL     OW89567   4.623  14.128   7.376
62557SOL    HW189568   4.570  14.049   7.369
62557SOL    HW289569   4.697  14.112   7.317
62558SOL     OW89570   0.453   1.173  11.451
62558SOL    HW189571   0.379   1.131  11.407
62558SOL    HW289572   0.530   1.129  11.415
62559SOL     OW89573   2.671  10.775   2.603
62559SOL    HW189574   2.721  10.829   2.665
62559SOL    HW289575   2.602  10.736   2.657
62560SOL     OW89576  13.159   1.823  10.080
62560SOL    HW189577  13.121   1.735  10.082
62560SOL    HW289578  13.157   1.848   9.988
62561SOL     OW89579   9.264   3.180  14.380
62561SOL    HW189580   9.355   3.157  14.359
62561SOL    HW289581   9.237   3.236  14.308
62562SOL     OW89582  10.584   3.309  13.279
62562SOL    HW189583  10.627   3.223  13.280
62562SOL    HW289584  10.598   3.343  13.368
62563SOL     OW89585   9.608   6.748   4.087
62563SOL    HW189586   9.522   6.706   4.078
62563SOL    HW289587   9.636   6.725   4.176
62564SOL     OW89588   0.639   4.137   5.531
62564SOL    HW189589   0.722   4.093   5.550
62564SOL    HW289590   0.573   4.068   5.538
62565SOL     OW89591   0.785  12.105   2.034
62565SOL    HW189592   0.754  12.120   1.945
62565SOL    HW289593   0.759  12.185   2.081
62566SOL     OW89594  12.123   9.559   6.809
62566SOL    HW189595  12.204   9.507   6.810
62566SOL    HW289596  12.151   9.647   6.835
62567SOL     OW89597   4.544  11.237   6.923
62567SOL    HW189598   4.494  11.306   6.966
62567SOL    HW289599   4.635  11.266   6.928
62568SOL     OW89600   5.236   9.752   4.723
62568SOL    HW189601   5.197   9.811   4.788
62568SOL    HW289602   5.164   9.731   4.664
62569SOL     OW89603   7.393   3.499   9.054
62569SOL    HW189604   7.374   3.591   9.035
62569SOL    HW289605   7.309   3.464   9.084
62570SOL     OW89606   8.463   2.529  11.208
62570SOL    HW189607   8.522   2.470  11.160
62570SOL    HW289608   8.379   2.482  11.210
62571SOL     OW89609   4.912   8.681   3.614
62571SOL    HW189610   4.911   8.594   3.575
62571SOL    HW289611   4.826   8.717   3.595
62572SOL     OW89612   0.379  13.505  13.933
62572SOL    HW189613   0.327  13.584  13.923
62572SOL    HW289614   0.319  13.433  13.912
62573SOL     OW89615   1.377  13.470  10.159
62573SOL    HW189616   1.470  13.466  10.137
62573SOL    HW289617   1.333  13.435  10.081
62574SOL     OW89618  11.103   3.011   7.734
62574SOL    HW189619  11.066   3.056   7.658
62574SOL    HW289620  11.158   3.077   7.776
62575SOL     OW89621   3.836   7.232   2.314
62575SOL    HW189622   3.901   7.291   2.351
62575SOL    HW289623   3.756   7.248   2.365
62576SOL     OW89624   4.570   8.610   4.851
62576SOL    HW189625   4.614   8.625   4.935
62576SOL    HW289626   4.580   8.516   4.835
62577SOL     OW89627   1.598   2.940   2.179
62577SOL    HW189628   1.515   2.898   2.154
62577SOL    HW289629   1.580   2.980   2.264
62578SOL     OW89630  14.621   3.173   6.575
62578SOL    HW189631  14.670   3.112   6.630
62578SOL    HW289632  14.588   3.120   6.503
62579SOL     OW89633   2.971   3.856  13.747
62579SOL    HW189634   3.007   3.852  13.836
62579SOL    HW289635   3.018   3.787  13.700
62580SOL     OW89636  13.770   3.248   5.884
62580SOL    HW189637  13.721   3.328   5.906
62580SOL    HW289638  13.711   3.198   5.829
62581SOL     OW89639   6.128   0.784   5.569
62581SOL    HW189640   6.057   0.848   5.568
62581SOL    HW289641   6.094   0.710   5.519
62582SOL     OW89642  12.688   1.309  12.937
62582SOL    HW189643  12.676   1.380  12.874
62582SOL    HW289644  12.625   1.242  12.910
62583SOL     OW89645  11.032  14.488   7.402
62583SOL    HW189646  11.057  14.531   7.484
62583SOL    HW289647  10.957  14.434   7.425
62584SOL     OW89648  13.877   9.425  14.735
62584SOL    HW189649  13.949   9.365  14.716
62584SOL    HW289650  13.806   9.395  14.678
62585SOL     OW89651  13.917  10.532   1.120
62585SOL    HW189652  13.875  10.563   1.200
62585SOL    HW289653  13.854  10.550   1.051
62586SOL     OW89654   8.412  12.993   6.103
62586SOL    HW189655   8.408  13.073   6.155
62586SOL    HW289656   8.424  12.923   6.168
62587SOL     OW89657   9.079   1.694   1.951
62587SOL    HW189658   9.154   1.672   1.897
62587SOL    HW289659   9.116   1.732   2.030
62588SOL     OW89660  12.285   9.703   7.426
62588SOL    HW189661  12.281   9.711   7.521
62588SOL    HW289662  12.226   9.771   7.393
62589SOL     OW89663   2.767  14.360   4.600
62589SOL    HW189664   2.758  14.456   4.606
62589SOL    HW289665   2.746  14.329   4.688
62590SOL     OW89666   1.059  14.211  14.679
62590SOL    HW189667   0.989  14.203  14.744
62590SOL    HW289668   1.115  14.135  14.696
62591SOL     OW89669   5.016   2.079   0.210
62591SOL    HW189670   4.988   2.073   0.119
62591SOL    HW289671   5.096   2.028   0.214
62592SOL     OW89672   3.672  11.917   7.385
62592SOL    HW189673   3.593  11.871   7.356
62592SOL    HW289674   3.640  11.989   7.439
62593SOL     OW89675   2.826   9.400  14.189
62593SOL    HW189676   2.881   9.454  14.247
62593SOL    HW289677   2.852   9.425  14.101
62594SOL     OW89678   4.260  12.205   1.118
62594SOL    HW189679   4.300  12.130   1.163
62594SOL    HW289680   4.294  12.200   1.029
62595SOL     OW89681  10.785   8.550   4.604
62595SOL    HW189682  10.782   8.608   4.528
62595SOL    HW289683  10.777   8.608   4.680
62596SOL     OW89684   1.817   0.253   0.182
62596SOL    HW189685   1.885   0.241   0.116
62596SOL    HW289686   1.847   0.201   0.257
62597SOL     OW89687  11.627  10.975  12.894
62597SOL    HW189688  11.582  11.003  12.974
62597SOL    HW289689  11.607  11.044  12.830
62598SOL     OW89690   9.270   8.087  12.386
62598SOL    HW189691   9.274   8.181  12.400
62598SOL    HW289692   9.218   8.053  12.459
62599SOL     OW89693   5.579  14.113   9.449
62599SOL    HW189694   5.489  14.137   9.428
62599SOL    HW289695   5.574  14.078   9.538
62600SOL     OW89696   4.189   5.604   6.458
62600SOL    HW189697   4.165   5.576   6.370
62600SOL    HW289698   4.283   5.623   6.451
62601SOL     OW89699   1.113  12.685  12.507
62601SOL    HW189700   1.047  12.625  12.473
62601SOL    HW289701   1.156  12.720  12.428
62602SOL     OW89702   2.145  13.869   8.491
62602SOL    HW189703   2.148  13.956   8.452
62602SOL    HW289704   2.059  13.835   8.469
62603SOL     OW89705  11.515   1.217   9.303
62603SOL    HW189706  11.596   1.251   9.340
62603SOL    HW289707  11.469   1.177   9.377
62604SOL     OW89708   8.058  14.378   5.521
62604SOL    HW189709   7.964  14.363   5.514
62604SOL    HW289710   8.068  14.441   5.592
62605SOL     OW89711   8.088   1.426  12.177
62605SOL    HW189712   8.066   1.357  12.113
62605SOL    HW289713   8.034   1.500  12.151
62606SOL     OW89714  14.049  14.834   2.192
62606SOL    HW189715  14.128  14.784   2.214
62606SOL    HW289716  14.035  14.819   2.099
62607SOL     OW89717   2.658   4.525   0.726
62607SOL    HW189718   2.657   4.436   0.763
62607SOL    HW289719   2.575   4.533   0.680
62608SOL     OW89720  10.454   4.537   6.741
62608SOL    HW189721  10.475   4.626   6.714
62608SOL    HW289722  10.528   4.484   6.711
62609SOL     OW89723   0.142  10.073  13.864
62609SOL    HW189724   0.086  10.004  13.828
62609SOL    HW289725   0.230  10.051  13.831
62610SOL     OW89726   2.162   4.443  10.818
62610SOL    HW189727   2.211   4.431  10.900
62610SOL    HW289728   2.178   4.363  10.768
62611SOL     OW89729   6.302   8.996  10.010
62611SOL    HW189730   6.263   9.078  10.039
62611SOL    HW289731   6.369   8.976  10.075
62612SOL     OW89732   4.357  12.505   3.347
62612SOL    HW189733   4.333  12.413   3.356
62612SOL    HW289734   4.363  12.538   3.437
62613SOL     OW89735  11.864   3.439   9.640
62613SOL    HW189736  11.909   3.436   9.555
62613SOL    HW289737  11.929   3.406   9.702
62614SOL     OW89738  14.457   7.617   4.975
62614SOL    HW189739  14.481   7.707   4.996
62614SOL    HW289740  14.399   7.625   4.898
62615SOL     OW89741   6.284   1.311  13.185
62615SOL    HW189742   6.242   1.366  13.119
62615SOL    HW289743   6.235   1.229  13.184
62616SOL     OW89744  10.226   6.314   0.138
62616SOL    HW189745  10.136   6.346   0.136
62616SOL    HW289746  10.275   6.376   0.084
62617SOL     OW89747   5.828   4.916   6.955
62617SOL    HW189748   5.833   5.012   6.953
62617SOL    HW289749   5.854   4.889   6.867
62618SOL     OW89750   1.786  13.255   7.516
62618SOL    HW189751   1.703  13.272   7.561
62618SOL    HW289752   1.789  13.160   7.506
62619SOL     OW89753  10.769   8.586  11.205
62619SOL    HW189754  10.849   8.585  11.257
62619SOL    HW289755  10.713   8.650  11.249
62620SOL     OW89756  11.236   8.877   0.809
62620SOL    HW189757  11.179   8.824   0.753
62620SOL    HW289758  11.277   8.813   0.867
62621SOL     OW89759   2.129   1.366   1.169
62621SOL    HW189760   2.071   1.442   1.179
62621SOL    HW289761   2.069   1.291   1.172
62622SOL     OW89762   3.873   4.595   5.868
62622SOL    HW189763   3.852   4.636   5.952
62622SOL    HW289764   3.795   4.607   5.814
62623SOL     OW89765  13.875   8.037   8.201
62623SOL    HW189766  13.934   8.083   8.261
62623SOL    HW289767  13.855   8.100   8.132
62624SOL     OW89768  14.834   8.786   3.599
62624SOL    HW189769   0.024   8.742   3.643
62624SOL    HW289770  14.856   8.879   3.604
62625SOL     OW89771   1.465  11.249  10.004
62625SOL    HW189772   1.373  11.255  10.028
62625SOL    HW289773   1.477  11.317   9.937
62626SOL     OW89774   9.690   5.533   6.593
62626SOL    HW189775   9.690   5.579   6.677
62626SOL    HW289776   9.782   5.527   6.569
62627SOL     OW89777   7.525   5.054   8.752
62627SOL    HW189778   7.567   4.996   8.689
62627SOL    HW289779   7.560   5.027   8.837
62628SOL     OW89780  13.113  11.474   4.909
62628SOL    HW189781  13.120  11.461   5.004
62628SOL    HW289782  13.019  11.485   4.893
62629SOL     OW89783  11.213  13.858  12.763
62629SOL    HW189784  11.176  13.782  12.718
62629SOL    HW289785  11.222  13.829  12.854
62630SOL     OW89786   1.342   7.613   1.117
62630SOL    HW189787   1.281   7.546   1.087
62630SOL    HW289788   1.328   7.618   1.212
62631SOL     OW89789   5.407  12.719   1.403
62631SOL    HW189790   5.313  12.702   1.414
62631SOL    HW289791   5.444  12.705   1.490
62632SOL     OW89792   2.410   5.944   9.156
62632SOL    HW189793   2.348   5.874   9.136
62632SOL    HW289794   2.398   6.008   9.086
62633SOL     OW89795  12.827   7.681  11.887
62633SOL    HW189796  12.778   7.714  11.962
62633SOL    HW289797  12.915   7.664  11.922
62634SOL     OW89798   7.044   6.158   4.857
62634SOL    HW189799   7.104   6.218   4.812
62634SOL    HW289800   7.047   6.184   4.948
62635SOL     OW89801   1.821  14.072   9.901
62635SOL    HW189802   1.745  14.105   9.949
62635SOL    HW289803   1.817  14.117   9.817
62636SOL     OW89804   2.936   0.092   7.680
62636SOL    HW189805   2.861   0.041   7.709
62636SOL    HW289806   3.012   0.038   7.701
62637SOL     OW89807   2.011   4.123  11.255
62637SOL    HW189808   1.986   4.162  11.171
62637SOL    HW289809   2.104   4.105  11.246
62638SOL     OW89810   7.824   2.000   9.932
62638SOL    HW189811   7.746   1.950   9.907
62638SOL    HW289812   7.790   2.086   9.958
62639SOL     OW89813   7.839   3.206  13.035
62639SOL    HW189814   7.833   3.111  13.028
62639SOL    HW289815   7.766   3.239  12.981
62640SOL     OW89816  11.592   7.974   7.771
62640SOL    HW189817  11.571   7.883   7.796
62640SOL    HW289818  11.578   7.976   7.676
62641SOL     OW89819  12.677   4.315   5.980
62641SOL    HW189820  12.766   4.328   6.014
62641SOL    HW289821  12.628   4.278   6.053
62642SOL     OW89822   0.313   0.786  14.586
62642SOL    HW189823   0.367   0.863  14.601
62642SOL    HW289824   0.284   0.759  14.673
62643SOL     OW89825  13.119  10.174  11.410
62643SOL    HW189826  13.147  10.208  11.495
62643SOL    HW289827  13.087  10.251  11.363
62644SOL     OW89828   9.307   3.412  14.559
62644SOL    HW189829   9.264   3.360  14.491
62644SOL    HW289830   9.254   3.492  14.565
62645SOL     OW89831   7.949   9.628   0.478
62645SOL    HW189832   7.980   9.630   0.569
62645SOL    HW289833   7.854   9.620   0.485
62646SOL     OW89834   1.793  14.504  13.452
62646SOL    HW189835   1.883  14.527  13.475
62646SOL    HW289836   1.753  14.587  13.425
62647SOL     OW89837   0.328  14.505   0.976
62647SOL    HW189838   0.304  14.433   1.034
62647SOL    HW289839   0.283  14.485   0.894
62648SOL     OW89840  11.993   8.781   7.549
62648SOL    HW189841  12.038   8.774   7.633
62648SOL    HW289842  11.987   8.875   7.533
62649SOL     OW89843   6.942  14.771  10.393
62649SOL    HW189844   6.945  14.678  10.372
62649SOL    HW289845   6.887  14.776  10.472
62650SOL     OW89846   9.981   2.335   2.493
62650SOL    HW189847   9.910   2.282   2.530
62650SOL    HW289848  10.060   2.298   2.531
62651SOL     OW89849   0.518   8.582   2.913
62651SOL    HW189850   0.515   8.601   3.007
62651SOL    HW289851   0.601   8.535   2.901
62652SOL     OW89852  14.602   3.625  12.669
62652SOL    HW189853  14.582   3.663  12.754
62652SOL    HW289854  14.580   3.532  12.677
62653SOL     OW89855   5.390   7.676  11.645
62653SOL    HW189856   5.445   7.691  11.722
62653SOL    HW289857   5.318   7.622  11.677
62654SOL     OW89858  10.324  12.021   6.785
62654SOL    HW189859  10.250  11.964   6.803
62654SOL    HW289860  10.337  12.014   6.691
62655SOL     OW89861   1.948   7.780   7.270
62655SOL    HW189862   1.997   7.705   7.303
62655SOL    HW289863   1.856   7.752   7.273
62656SOL     OW89864   5.225   2.525   6.923
62656SOL    HW189865   5.171   2.485   6.854
62656SOL    HW289866   5.304   2.554   6.878
62657SOL     OW89867   9.716   6.565   7.660
62657SOL    HW189868   9.681   6.595   7.576
62657SOL    HW289869   9.749   6.644   7.702
62658SOL     OW89870   4.260   0.201   4.905
62658SOL    HW189871   4.174   0.164   4.920
62658SOL    HW289872   4.249   0.258   4.828
62659SOL     OW89873  10.361   4.837   0.932
62659SOL    HW189874  10.421   4.911   0.923
62659SOL    HW289875  10.275   4.873   0.913
62660SOL     OW89876   2.898   8.708   5.897
62660SOL    HW189877   2.864   8.795   5.920
62660SOL    HW289878   2.823   8.662   5.860
62661SOL     OW89879   2.286   0.599   3.541
62661SOL    HW189880   2.235   0.569   3.466
62661SOL    HW289881   2.223   0.645   3.596
62662SOL     OW89882   2.869  14.797   4.825
62662SOL    HW189883   2.866  14.707   4.857
62662SOL    HW289884   2.844  14.850   4.901
62663SOL     OW89885  14.526   9.777  13.488
62663SOL    HW189886  14.436   9.794  13.461
62663SOL    HW289887  14.558   9.861  13.521
62664SOL     OW89888   8.994  11.163  14.429
62664SOL    HW189889   8.949  11.097  14.482
62664SOL    HW289890   9.086  11.139  14.433
62665SOL     OW89891   5.034   6.569  10.757
62665SOL    HW189892   5.035   6.664  10.764
62665SOL    HW289893   5.023   6.538  10.847
62666SOL     OW89894  10.773   8.517   9.684
62666SOL    HW189895  10.819   8.492   9.604
62666SOL    HW289896  10.709   8.582   9.655
62667SOL     OW89897   5.670  12.913  12.512
62667SOL    HW189898   5.717  12.881  12.435
62667SOL    HW289899   5.581  12.930  12.481
62668SOL     OW89900   8.627   8.136   4.581
62668SOL    HW189901   8.534   8.127   4.560
62668SOL    HW289902   8.657   8.205   4.521
62669SOL     OW89903   5.521   7.341  11.091
62669SOL    HW189904   5.578   7.270  11.061
62669SOL    HW289905   5.581   7.404  11.133
62670SOL     OW89906   9.573  14.067  14.186
62670SOL    HW189907   9.553  14.077  14.093
62670SOL    HW289908   9.653  14.015  14.188
62671SOL     OW89909   2.559  14.143  11.642
62671SOL    HW189910   2.557  14.204  11.567
62671SOL    HW289911   2.478  14.093  11.633
62672SOL     OW89912  14.871  13.455   8.700
62672SOL    HW189913  14.860  13.548   8.717
62672SOL    HW289914   0.026  13.420   8.781
62673SOL     OW89915   4.724   8.183   5.404
62673SOL    HW189916   4.788   8.248   5.432
62673SOL    HW289917   4.681   8.154   5.484
62674SOL     OW89918   2.075  14.564  12.164
62674SOL    HW189919   2.134  14.507  12.214
62674SOL    HW289920   2.070  14.644  12.215
62675SOL     OW89921   0.351   9.232   4.226
62675SOL    HW189922   0.388   9.282   4.153
62675SOL    HW289923   0.391   9.270   4.304
62676SOL     OW89924  11.779   8.797   7.872
62676SOL    HW189925  11.862   8.793   7.919
62676SOL    HW289926  11.726   8.729   7.912
62677SOL     OW89927   7.894   8.904   2.377
62677SOL    HW189928   7.937   8.975   2.331
62677SOL    HW289929   7.941   8.826   2.351
62678SOL     OW89930   9.739   1.291  11.690
62678SOL    HW189931   9.776   1.264  11.605
62678SOL    HW289932   9.650   1.256  11.690
62679SOL     OW89933   5.312  13.085  14.373
62679SOL    HW189934   5.390  13.081  14.317
62679SOL    HW289935   5.324  13.015  14.436
62680SOL     OW89936   4.900   6.723   1.752
62680SOL    HW189937   4.897   6.641   1.703
62680SOL    HW289938   4.879   6.790   1.687
62681SOL     OW89939   7.708   0.323   8.135
62681SOL    HW189940   7.674   0.241   8.172
62681SOL    HW289941   7.658   0.392   8.180
62682SOL     OW89942   6.029   3.249   2.474
62682SOL    HW189943   6.002   3.158   2.481
62682SOL    HW289944   5.959   3.291   2.423
62683SOL     OW89945   8.902   3.057   5.001
62683SOL    HW189946   8.892   3.029   4.910
62683SOL    HW289947   8.864   3.145   5.003
62684SOL     OW89948  11.172   2.142   9.582
62684SOL    HW189949  11.129   2.101   9.507
62684SOL    HW289950  11.240   2.197   9.544
62685SOL     OW89951  13.733   4.004  13.536
62685SOL    HW189952  13.669   3.937  13.511
62685SOL    HW289953  13.745   4.057  13.457
62686SOL     OW89954   2.156  11.784   7.086
62686SOL    HW189955   2.181  11.847   7.019
62686SOL    HW289956   2.061  11.773   7.074
62687SOL     OW89957   9.483   7.687   0.457
62687SOL    HW189958   9.523   7.630   0.523
62687SOL    HW289959   9.450   7.628   0.391
62688SOL     OW89960  12.933   0.305   8.675
62688SOL    HW189961  12.914   0.321   8.768
62688SOL    HW289962  12.849   0.280   8.638
62689SOL     OW89963  10.511   3.278   5.681
62689SOL    HW189964  10.482   3.190   5.660
62689SOL    HW289965  10.603   3.268   5.704
62690SOL     OW89966  13.564   8.188  14.120
62690SOL    HW189967  13.537   8.097  14.127
62690SOL    HW289968  13.499   8.228  14.062
62691SOL     OW89969   0.973   8.168   9.226
62691SOL    HW189970   0.984   8.229   9.153
62691SOL    HW289971   1.050   8.183   9.281
62692SOL     OW89972  12.450   7.781  11.840
62692SOL    HW189973  12.416   7.765  11.752
62692SOL    HW289974  12.490   7.698  11.865
62693SOL     OW89975   9.701   8.876   6.880
62693SOL    HW189976   9.619   8.899   6.837
62693SOL    HW289977   9.764   8.867   6.808
62694SOL     OW89978  12.771   2.758  10.134
62694SOL    HW189979  12.694   2.740  10.188
62694SOL    HW289980  12.756   2.846  10.100
62695SOL     OW89981  10.933  14.543   6.943
62695SOL    HW189982  11.013  14.580   6.981
62695SOL    HW289983  10.923  14.458   6.986
62696SOL     OW89984  12.629   3.601  14.583
62696SOL    HW189985  12.606   3.686  14.546
62696SOL    HW289986  12.600   3.605  14.675
62697SOL     OW89987   1.903  11.729  12.247
62697SOL    HW189988   1.855  11.663  12.295
62697SOL    HW289989   1.984  11.685  12.220
62698SOL     OW89990   3.593   5.386   1.497
62698SOL    HW189991   3.630   5.326   1.562
62698SOL    HW289992   3.593   5.471   1.540
62699SOL     OW89993   9.162   0.261  12.580
62699SOL    HW189994   9.110   0.220  12.650
62699SOL    HW289995   9.162   0.197  12.509
62700SOL     OW89996  12.368  13.355   7.952
62700SOL    HW189997  12.414  13.402   8.022
62700SOL    HW289998  12.310  13.294   7.998
62701SOL     OW89999  13.947   3.388   1.559
62701SOL    HW190000  13.982   3.386   1.470
62701SOL    HW290001  14.018   3.424   1.612
62702SOL     OW90002  10.409   8.107   3.405
62702SOL    HW190003  10.314   8.111   3.399
62702SOL    HW290004  10.426   8.024   3.451
62703SOL     OW90005   4.920  11.103   0.676
62703SOL    HW190006   4.936  11.187   0.718
62703SOL    HW290007   4.917  11.123   0.582
62704SOL     OW90008   0.872   1.701   5.723
62704SOL    HW190009   0.827   1.715   5.807
62704SOL    HW290010   0.814   1.641   5.675
62705SOL     OW90011  14.215   3.394  14.354
62705SOL    HW190012  14.232   3.485  14.379
62705SOL    HW290013  14.267   3.342  14.415
62706SOL     OW90014   0.190   4.599   0.992
62706SOL    HW190015   0.251   4.583   1.065
62706SOL    HW290016   0.111   4.552   1.018
62707SOL     OW90017   9.766  14.667   6.275
62707SOL    HW190018   9.812  14.612   6.338
62707SOL    HW290019   9.823  14.742   6.262
62708SOL     OW90020   1.369  13.063   2.025
62708SOL    HW190021   1.461  13.082   2.042
62708SOL    HW290022   1.354  12.976   2.062
62709SOL     OW90023  12.182  14.576   7.524
62709SOL    HW190024  12.212  14.532   7.444
62709SOL    HW290025  12.213  14.520   7.595
62710SOL     OW90026   7.849   2.253   0.204
62710SOL    HW190027   7.812   2.207   0.128
62710SOL    HW290028   7.931   2.207   0.221
62711SOL     OW90029  11.806   1.771   3.986
62711SOL    HW190030  11.838   1.686   3.959
62711SOL    HW290031  11.788   1.818   3.904
62712SOL     OW90032   5.019  11.860  11.458
62712SOL    HW190033   5.025  11.909  11.375
62712SOL    HW290034   5.032  11.926  11.526
62713SOL     OW90035   8.743   3.012   7.567
62713SOL    HW190036   8.829   3.024   7.607
62713SOL    HW290037   8.737   2.918   7.551
62714SOL     OW90038  11.473   5.536   8.353
62714SOL    HW190039  11.567   5.530   8.334
62714SOL    HW290040  11.453   5.456   8.403
62715SOL     OW90041   8.012  12.203   4.886
62715SOL    HW190042   7.916  12.203   4.891
62715SOL    HW290043   8.032  12.153   4.807
62716SOL     OW90044   6.413   3.780  14.434
62716SOL    HW190045   6.375   3.816  14.513
62716SOL    HW290046   6.418   3.685  14.449
62717SOL     OW90047   7.820  10.156   3.857
62717SOL    HW190048   7.740  10.142   3.908
62717SOL    HW290049   7.876  10.082   3.878
62718SOL     OW90050  12.860   3.920   1.155
62718SOL    HW190051  12.786   3.969   1.118
62718SOL    HW290052  12.932   3.983   1.157
62719SOL     OW90053   4.431  12.937   6.460
62719SOL    HW190054   4.407  12.898   6.544
62719SOL    HW290055   4.476  13.018   6.483
62720SOL     OW90056  10.069   2.736  10.062
62720SOL    HW190057  10.160   2.762  10.048
62720SOL    HW290058  10.074   2.643  10.081
62721SOL     OW90059   9.212   3.845  14.392
62721SOL    HW190060   9.173   3.800  14.318
62721SOL    HW290061   9.195   3.938  14.375
62722SOL     OW90062  10.445  11.151   3.265
62722SOL    HW190063  10.529  11.147   3.218
62722SOL    HW290064  10.386  11.195   3.204
62723SOL     OW90065   1.454   3.398   6.240
62723SOL    HW190066   1.514   3.402   6.314
62723SOL    HW290067   1.379   3.452   6.267
62724SOL     OW90068   5.402   1.492   8.575
62724SOL    HW190069   5.433   1.536   8.496
62724SOL    HW290070   5.444   1.540   8.647
62725SOL     OW90071   4.789   2.110   7.582
62725SOL    HW190072   4.862   2.143   7.633
62725SOL    HW290073   4.724   2.083   7.647
62726SOL     OW90074   1.432  11.026   6.409
62726SOL    HW190075   1.431  11.025   6.314
62726SOL    HW290076   1.342  11.042   6.435
62727SOL     OW90077   1.175   2.478   3.407
62727SOL    HW190078   1.268   2.460   3.419
62727SOL    HW290079   1.143   2.498   3.495
62728SOL     OW90080  10.061   7.387  14.495
62728SOL    HW190081  10.019   7.464  14.456
62728SOL    HW290082  10.040   7.316  14.435
62729SOL     OW90083   2.654   3.667   9.913
62729SOL    HW190084   2.618   3.725   9.979
62729SOL    HW290085   2.584   3.657   9.848
62730SOL     OW90086   2.256   9.566   1.364
62730SOL    HW190087   2.281   9.525   1.281
62730SOL    HW290088   2.170   9.528   1.384
62731SOL     OW90089   1.812   5.189  13.058
62731SOL    HW190090   1.763   5.236  13.126
62731SOL    HW290091   1.852   5.259  13.006
62732SOL     OW90092  12.764   3.466   8.533
62732SOL    HW190093  12.776   3.473   8.439
62732SOL    HW290094  12.783   3.553   8.567
62733SOL     OW90095   4.459   6.775  14.408
62733SOL    HW190096   4.445   6.864  14.376
62733SOL    HW290097   4.548   6.753  14.379
62734SOL     OW90098   2.809   6.800   5.754
62734SOL    HW190099   2.795   6.887   5.791
62734SOL    HW290100   2.846   6.817   5.667
62735SOL     OW90101   4.392  11.520   5.269
62735SOL    HW190102   4.304  11.556   5.285
62735SOL    HW290103   4.452  11.587   5.302
62736SOL     OW90104   1.444   2.183  11.904
62736SOL    HW190105   1.514   2.153  11.847
62736SOL    HW290106   1.445   2.121  11.977
62737SOL     OW90107   5.864   1.648  13.103
62737SOL    HW190108   5.790   1.638  13.044
62737SOL    HW290109   5.830   1.624  13.189
62738SOL     OW90110   7.010   2.327   1.317
62738SOL    HW190111   6.982   2.412   1.284
62738SOL    HW290112   6.967   2.264   1.259
62739SOL     OW90113   1.030   0.058   9.283
62739SOL    HW190114   0.971   0.055   9.208
62739SOL    HW290115   0.986   0.115   9.346
62740SOL     OW90116   5.194  13.792   8.941
62740SOL    HW190117   5.154  13.705   8.940
62740SOL    HW290118   5.285  13.777   8.967
62741SOL     OW90119   7.623   7.246   4.045
62741SOL    HW190120   7.586   7.158   4.036
62741SOL    HW290121   7.717   7.235   4.028
62742SOL     OW90122   3.914  10.675   7.671
62742SOL    HW190123   3.937  10.723   7.591
62742SOL    HW290124   3.968  10.715   7.739
62743SOL     OW90125   9.627   1.009  13.612
62743SOL    HW190126   9.685   1.034  13.540
62743SOL    HW290127   9.551   1.067  13.602
62744SOL     OW90128   5.489   3.212   1.462
62744SOL    HW190129   5.554   3.198   1.530
62744SOL    HW290130   5.536   3.197   1.380
62745SOL     OW90131  12.956   2.244   1.433
62745SOL    HW190132  12.865   2.265   1.455
62745SOL    HW290133  12.984   2.316   1.377
62746SOL     OW90134  10.407   0.094  10.606
62746SOL    HW190135  10.420   0.129  10.695
62746SOL    HW290136  10.321   0.052  10.609
62747SOL     OW90137   2.412  11.463  13.840
62747SOL    HW190138   2.426  11.392  13.903
62747SOL    HW290139   2.350  11.427  13.777
62748SOL     OW90140  12.792  12.903   2.022
62748SOL    HW190141  12.755  12.977   2.069
62748SOL    HW290142  12.741  12.828   2.051
62749SOL     OW90143   6.592   6.675   8.197
62749SOL    HW190144   6.537   6.685   8.274
62749SOL    HW290145   6.575   6.585   8.167
62750SOL     OW90146   0.119   3.922  14.660
62750SOL    HW190147   0.147   4.014  14.657
62750SOL    HW290148   0.099   3.901  14.568
62751SOL     OW90149   8.317  13.271   0.626
62751SOL    HW190150   8.293  13.363   0.638
62751SOL    HW290151   8.408  13.266   0.655
62752SOL     OW90152  10.414   1.886  13.982
62752SOL    HW190153  10.348   1.954  13.971
62752SOL    HW290154  10.373   1.823  14.043
62753SOL     OW90155  12.544   5.420  10.199
62753SOL    HW190156  12.584   5.431  10.112
62753SOL    HW290157  12.510   5.506  10.221
62754SOL     OW90158   1.398   0.671  13.290
62754SOL    HW190159   1.422   0.581  13.308
62754SOL    HW290160   1.482   0.716  13.277
62755SOL     OW90161   4.273   4.631   5.099
62755SOL    HW190162   4.284   4.540   5.070
62755SOL    HW290163   4.179   4.647   5.095
62756SOL     OW90164   2.719   4.270  13.129
62756SOL    HW190165   2.777   4.335  13.091
62756SOL    HW290166   2.709   4.296  13.221
62757SOL     OW90167  11.858  12.143  11.984
62757SOL    HW190168  11.781  12.154  11.928
62757SOL    HW290169  11.884  12.233  12.007
62758SOL     OW90170  11.755   1.195   1.209
62758SOL    HW190171  11.706   1.277   1.215
62758SOL    HW290172  11.696   1.135   1.163
62759SOL     OW90173   7.704  12.950   1.589
62759SOL    HW190174   7.678  12.938   1.497
62759SOL    HW290175   7.779  12.891   1.600
62760SOL     OW90176   8.364   1.696   4.011
62760SOL    HW190177   8.295   1.736   4.064
62760SOL    HW290178   8.346   1.724   3.922
62761SOL     OW90179   3.153   1.931  13.777
62761SOL    HW190180   3.182   2.004  13.723
62761SOL    HW290181   3.223   1.917  13.840
62762SOL     OW90182  14.207   7.826   0.081
62762SOL    HW190183  14.256   7.908   0.079
62762SOL    HW290184  14.120   7.849   0.048
62763SOL     OW90185   9.947   1.364  12.047
62763SOL    HW190186   9.931   1.284  11.998
62763SOL    HW290187  10.039   1.358  12.073
62764SOL     OW90188   7.277   7.915   5.478
62764SOL    HW190189   7.360   7.961   5.462
62764SOL    HW290190   7.210   7.979   5.455
62765SOL     OW90191  11.416   4.819   6.177
62765SOL    HW190192  11.408   4.763   6.254
62765SOL    HW290193  11.380   4.904   6.206
62766SOL     OW90194  10.429  11.109  11.924
62766SOL    HW190195  10.489  11.051  11.877
62766SOL    HW290196  10.478  11.137  12.001
62767SOL     OW90197  12.844   1.177   7.088
62767SOL    HW190198  12.924   1.129   7.068
62767SOL    HW290199  12.823   1.153   7.178
62768SOL     OW90200   8.126  12.917  12.471
62768SOL    HW190201   8.175  12.997  12.489
62768SOL    HW290202   8.037  12.935  12.501
62769SOL     OW90203   9.613  14.563   1.432
62769SOL    HW190204   9.683  14.610   1.478
62769SOL    HW290205   9.656  14.485   1.397
62770SOL     OW90206   1.461   6.510   7.796
62770SOL    HW190207   1.513   6.584   7.827
62770SOL    HW290208   1.409   6.483   7.873
62771SOL     OW90209  11.404   0.685  12.810
62771SOL    HW190210  11.331   0.747  12.813
62771SOL    HW290211  11.363   0.600  12.794
62772SOL     OW90212  12.456   1.574  13.313
62772SOL    HW190213  12.453   1.535  13.225
62772SOL    HW290214  12.412   1.658  13.303
62773SOL     OW90215   2.679   7.043  14.043
62773SOL    HW190216   2.649   6.963  14.002
62773SOL    HW290217   2.625   7.112  14.005
62774SOL     OW90218  13.013  12.357   0.554
62774SOL    HW190219  13.082  12.306   0.595
62774SOL    HW290220  13.056  12.404   0.483
62775SOL     OW90221   3.496  13.427   1.111
62775SOL    HW190222   3.576  13.383   1.082
62775SOL    HW290223   3.484  13.399   1.201
62776SOL     OW90224   5.222   8.480   4.711
62776SOL    HW190225   5.238   8.441   4.797
62776SOL    HW290226   5.128   8.495   4.708
62777SOL     OW90227   4.331   7.920   6.300
62777SOL    HW190228   4.327   7.965   6.384
62777SOL    HW290229   4.239   7.905   6.277
62778SOL     OW90230  11.886  12.626  13.811
62778SOL    HW190231  11.838  12.569  13.871
62778SOL    HW290232  11.978  12.599  13.821
62779SOL     OW90233   6.966  10.207  10.421
62779SOL    HW190234   7.057  10.182  10.434
62779SOL    HW290235   6.920  10.123  10.408
62780SOL     OW90236  13.438   2.927  10.761
62780SOL    HW190237  13.401   2.844  10.731
62780SOL    HW290238  13.365   2.990  10.754
62781SOL     OW90239   9.495  14.876  10.504
62781SOL    HW190240   9.517  14.821  10.428
62781SOL    HW290241   9.407   0.028  10.484
62782SOL     OW90242  10.402   1.723   4.759
62782SOL    HW190243  10.368   1.803   4.799
62782SOL    HW290244  10.371   1.726   4.669
62783SOL     OW90245  14.597   0.008  14.378
62783SOL    HW190246  14.668  14.826  14.376
62783SOL    HW290247  14.641   0.092  14.391
62784SOL     OW90248   0.086   7.231   4.101
62784SOL    HW190249   0.136   7.300   4.145
62784SOL    HW290250   0.151   7.163   4.082
62785SOL     OW90251   4.577  14.525   4.332
62785SOL    HW190252   4.497  14.575   4.351
62785SOL    HW290253   4.610  14.500   4.418
62786SOL     OW90254  10.351  11.088  14.427
62786SOL    HW190255  10.329  11.161  14.369
62786SOL    HW290256  10.383  11.128  14.507
62787SOL     OW90257   6.157   9.347   5.882
62787SOL    HW190258   6.102   9.426   5.882
62787SOL    HW290259   6.132   9.302   5.801
62788SOL     OW90260   0.596   7.294   0.851
62788SOL    HW190261   0.671   7.266   0.799
62788SOL    HW290262   0.556   7.213   0.881
62789SOL     OW90263  14.102   0.965  11.056
62789SOL    HW190264  14.125   0.892  11.112
62789SOL    HW290265  14.054   1.026  11.113
62790SOL     OW90266   6.318   3.533   8.201
62790SOL    HW190267   6.229   3.505   8.223
62790SOL    HW290268   6.368   3.451   8.196
62791SOL     OW90269   6.572   6.040   3.504
62791SOL    HW190270   6.523   6.113   3.465
62791SOL    HW290271   6.510   5.967   3.503
62792SOL     OW90272  10.539   8.582   4.766
62792SOL    HW190273  10.464   8.639   4.754
62792SOL    HW290274  10.595   8.629   4.828
62793SOL     OW90275   2.653   1.174   1.290
62793SOL    HW190276   2.581   1.231   1.265
62793SOL    HW290277   2.728   1.233   1.302
62794SOL     OW90278  14.533   8.192   2.161
62794SOL    HW190279  14.534   8.169   2.068
62794SOL    HW290280  14.626   8.201   2.184
62795SOL     OW90281   4.643   7.041   6.207
62795SOL    HW190282   4.690   7.042   6.289
62795SOL    HW290283   4.697   7.093   6.147
62796SOL     OW90284  14.472  10.681  14.123
62796SOL    HW190285  14.390  10.730  14.123
62796SOL    HW290286  14.445  10.590  14.109
62797SOL     OW90287   5.809   5.055   5.907
62797SOL    HW190288   5.836   5.098   5.826
62797SOL    HW290289   5.714   5.045   5.900
62798SOL     OW90290   1.295  14.634  13.585
62798SOL    HW190291   1.234  14.594  13.646
62798SOL    HW290292   1.372  14.576  13.586
62799SOL     OW90293  10.355   4.410   8.221
62799SOL    HW190294  10.299   4.353   8.169
62799SOL    HW290295  10.326   4.498   8.200
62800SOL     OW90296   0.953   2.889   0.755
62800SOL    HW190297   0.878   2.928   0.800
62800SOL    HW290298   0.953   2.930   0.668
62801SOL     OW90299   0.027   7.042   2.666
62801SOL    HW190300  14.846   7.012   2.600
62801SOL    HW290301   0.112   7.013   2.633
62802SOL     OW90302   9.170  11.063   4.669
62802SOL    HW190303   9.259  11.027   4.679
62802SOL    HW290304   9.172  11.108   4.585
62803SOL     OW90305   7.328   5.240   3.607
62803SOL    HW190306   7.383   5.316   3.624
62803SOL    HW290307   7.322   5.195   3.692
62804SOL     OW90308  12.417   6.365  14.372
62804SOL    HW190309  12.344   6.303  14.373
62804SOL    HW290310  12.472   6.337  14.299
62805SOL     OW90311   5.340   3.323   7.554
62805SOL    HW190312   5.314   3.246   7.502
62805SOL    HW290313   5.432   3.308   7.576
62806SOL     OW90314   9.883  10.588   5.322
62806SOL    HW190315   9.846  10.500   5.329
62806SOL    HW290316   9.929  10.588   5.238
62807SOL     OW90317  13.848  12.295   7.160
62807SOL    HW190318  13.886  12.353   7.094
62807SOL    HW290319  13.904  12.218   7.159
62808SOL     OW90320   8.826   2.930  12.543
62808SOL    HW190321   8.783   2.848  12.567
62808SOL    HW290322   8.784   2.996  12.598
62809SOL     OW90323   2.032   1.469   5.281
62809SOL    HW190324   2.034   1.422   5.198
62809SOL    HW290325   2.084   1.548   5.266
62810SOL     OW90326   6.695   2.440   1.700
62810SOL    HW190327   6.652   2.362   1.664
62810SOL    HW290328   6.785   2.413   1.716
62811SOL     OW90329   0.013  14.276   8.924
62811SOL    HW190330   0.101  14.269   8.962
62811SOL    HW290331  14.872  14.186   8.900
62812SOL     OW90332   6.558  12.265  12.984
62812SOL    HW190333   6.596  12.187  12.944
62812SOL    HW290334   6.528  12.236  13.070
62813SOL     OW90335   2.768  13.414   8.171
62813SOL    HW190336   2.744  13.348   8.106
62813SOL    HW290337   2.742  13.498   8.132
62814SOL     OW90338   6.788   4.121  10.347
62814SOL    HW190339   6.766   4.125  10.254
62814SOL    HW290340   6.753   4.037  10.376
62815SOL     OW90341   1.318   0.727   9.347
62815SOL    HW190342   1.368   0.703   9.425
62815SOL    HW290343   1.384   0.739   9.279
62816SOL     OW90344   7.012   1.069   3.407
62816SOL    HW190345   6.969   1.022   3.335
62816SOL    HW290346   7.087   1.014   3.430
62817SOL     OW90347  14.316   6.440   7.073
62817SOL    HW190348  14.289   6.350   7.056
62817SOL    HW290349  14.263   6.467   7.148
62818SOL     OW90350   6.447  10.538   9.892
62818SOL    HW190351   6.517  10.503   9.837
62818SOL    HW290352   6.493  10.592   9.957
62819SOL     OW90353  13.635   2.293   9.816
62819SOL    HW190354  13.609   2.204   9.838
62819SOL    HW290355  13.584   2.349   9.875
62820SOL     OW90356   2.685   3.736   2.495
62820SOL    HW190357   2.756   3.790   2.460
62820SOL    HW290358   2.694   3.652   2.449
62821SOL     OW90359  14.721   3.812  10.133
62821SOL    HW190360  14.761   3.733  10.097
62821SOL    HW290361  14.787   3.848  10.193
62822SOL     OW90362  13.680  10.853  10.790
62822SOL    HW190363  13.679  10.926  10.851
62822SOL    HW290364  13.745  10.878  10.724
62823SOL     OW90365   4.107   0.842   1.308
62823SOL    HW190366   4.155   0.761   1.325
62823SOL    HW290367   4.151   0.908   1.361
62824SOL     OW90368   5.842  14.289   3.154
62824SOL    HW190369   5.755  14.256   3.132
62824SOL    HW290370   5.833  14.323   3.243
62825SOL     OW90371   8.166   2.478  11.245
62825SOL    HW190372   8.127   2.391  11.246
62825SOL    HW290373   8.190   2.495  11.336
62826SOL     OW90374   2.291   1.031   7.682
62826SOL    HW190375   2.381   1.030   7.716
62826SOL    HW290376   2.256   1.116   7.710
62827SOL     OW90377   6.518   7.050   5.406
62827SOL    HW190378   6.442   7.021   5.356
62827SOL    HW290379   6.485   7.120   5.462
62828SOL     OW90380  11.107  10.096  13.965
62828SOL    HW190381  11.201  10.084  13.978
62828SOL    HW290382  11.069  10.010  13.986
62829SOL     OW90383  12.868   0.740   5.906
62829SOL    HW190384  12.790   0.705   5.862
62829SOL    HW290385  12.834   0.776   5.988
62830SOL     OW90386  12.726   4.752   6.825
62830SOL    HW190387  12.644   4.702   6.824
62830SOL    HW290388  12.767   4.730   6.742
62831SOL     OW90389   8.687   9.639  10.401
62831SOL    HW190390   8.680   9.656  10.495
62831SOL    HW290391   8.612   9.583  10.381
62832SOL     OW90392  12.541  11.606  13.651
62832SOL    HW190393  12.505  11.549  13.719
62832SOL    HW290394  12.626  11.634  13.685
62833SOL     OW90395   1.473  12.874   5.155
62833SOL    HW190396   1.489  12.963   5.186
62833SOL    HW290397   1.539  12.821   5.199
62834SOL     OW90398  11.990  11.006   6.409
62834SOL    HW190399  11.901  10.978   6.431
62834SOL    HW290400  12.007  10.968   6.323
62835SOL     OW90401   1.093  13.910   1.176
62835SOL    HW190402   1.080  13.974   1.106
62835SOL    HW290403   1.018  13.924   1.234
62836SOL     OW90404  11.692   9.855   1.046
62836SOL    HW190405  11.690   9.931   0.988
62836SOL    HW290406  11.619   9.868   1.106
62837SOL     OW90407   1.861  12.522  13.315
62837SOL    HW190408   1.950  12.501  13.287
62837SOL    HW290409   1.860  12.618  13.321
62838SOL     OW90410   3.193   3.544   7.484
62838SOL    HW190411   3.179   3.463   7.534
62838SOL    HW290412   3.234   3.515   7.402
62839SOL     OW90413   1.683   9.306  12.621
62839SOL    HW190414   1.715   9.247  12.553
62839SOL    HW290415   1.754   9.310  12.685
62840SOL     OW90416   2.642   6.741   1.627
62840SOL    HW190417   2.591   6.753   1.707
62840SOL    HW290418   2.727   6.783   1.646
62841SOL     OW90419   9.151   5.897  13.092
62841SOL    HW190420   9.180   5.810  13.119
62841SOL    HW290421   9.068   5.883  13.047
62842SOL     OW90422   5.494   4.669   8.433
62842SOL    HW190423   5.473   4.729   8.361
62842SOL    HW290424   5.579   4.633   8.410
62843SOL     OW90425  14.514   1.707  12.369
62843SOL    HW190426  14.466   1.626  12.351
62843SOL    HW290427  14.467   1.747  12.441
62844SOL     OW90428  11.606   7.808  12.296
62844SOL    HW190429  11.544   7.753  12.345
62844SOL    HW290430  11.561   7.826  12.213
62845SOL     OW90431   4.370   9.705   9.276
62845SOL    HW190432   4.290   9.686   9.325
62845SOL    HW290433   4.381   9.631   9.218
62846SOL     OW90434   3.029  14.708   8.416
62846SOL    HW190435   2.976  14.655   8.356
62846SOL    HW290436   3.109  14.657   8.428
62847SOL     OW90437   4.081   0.453   0.686
62847SOL    HW190438   4.117   0.522   0.742
62847SOL    HW290439   3.990   0.445   0.713
62848SOL     OW90440  10.209   8.650  11.021
62848SOL    HW190441  10.153   8.667  11.097
62848SOL    HW290442  10.187   8.561  10.994
62849SOL     OW90443   2.693  12.526   9.806
62849SOL    HW190444   2.783  12.508   9.781
62849SOL    HW290445   2.640  12.488   9.736
62850SOL     OW90446   3.459   2.950   1.409
62850SOL    HW190447   3.444   3.010   1.481
62850SOL    HW290448   3.405   2.873   1.431
62851SOL     OW90449  13.486   1.260   5.653
62851SOL    HW190450  13.549   1.265   5.581
62851SOL    HW290451  13.521   1.317   5.721
62852SOL     OW90452  14.275  11.681   2.937
62852SOL    HW190453  14.296  11.744   2.868
62852SOL    HW290454  14.182  11.694   2.955
62853SOL     OW90455   5.214  13.938  13.655
62853SOL    HW190456   5.281  13.915  13.719
62853SOL    HW290457   5.261  13.946  13.572
62854SOL     OW90458  13.003  11.550  14.126
62854SOL    HW190459  12.949  11.564  14.204
62854SOL    HW290460  13.067  11.621  14.129
62855SOL     OW90461   4.719   5.502   0.307
62855SOL    HW190462   4.752   5.429   0.255
62855SOL    HW290463   4.718   5.577   0.247
62856SOL     OW90464   0.629   1.705   5.850
62856SOL    HW190465   0.586   1.657   5.779
62856SOL    HW290466   0.644   1.639   5.917
62857SOL     OW90467   1.483  13.124   5.279
62857SOL    HW190468   1.505  13.216   5.265
62857SOL    HW290469   1.392  13.125   5.309
62858SOL     OW90470  12.910   5.404   0.353
62858SOL    HW190471  13.003   5.387   0.371
62858SOL    HW290472  12.909   5.440   0.265
62859SOL     OW90473  12.177   2.246   9.469
62859SOL    HW190474  12.231   2.235   9.547
62859SOL    HW290475  12.122   2.167   9.468
62860SOL     OW90476   6.301   1.578   9.082
62860SOL    HW190477   6.361   1.581   9.156
62860SOL    HW290478   6.235   1.514   9.108
62861SOL     OW90479   8.468  10.998   0.790
62861SOL    HW190480   8.500  11.054   0.862
62861SOL    HW290481   8.547  10.975   0.741
62862SOL     OW90482   2.158   3.144   2.503
62862SOL    HW190483   2.193   3.100   2.426
62862SOL    HW290484   2.235   3.173   2.552
62863SOL     OW90485  10.918   1.280  12.511
62863SOL    HW190486  10.880   1.288  12.598
62863SOL    HW290487  10.950   1.190  12.506
62864SOL     OW90488  13.565  12.736  10.209
62864SOL    HW190489  13.605  12.811  10.166
62864SOL    HW290490  13.502  12.774  10.270
62865SOL     OW90491   5.735  13.590   7.043
62865SOL    HW190492   5.772  13.645   6.974
62865SOL    HW290493   5.640  13.601   7.033
62866SOL     OW90494  11.850   0.381   8.716
62866SOL    HW190495  11.807   0.427   8.644
62866SOL    HW290496  11.936   0.359   8.683
62867SOL     OW90497   9.031   0.148   2.882
62867SOL    HW190498   9.059   0.196   2.804
62867SOL    HW290499   9.065   0.199   2.956
62868SOL     OW90500   5.533  10.928   5.867
62868SOL    HW190501   5.574  10.924   5.781
62868SOL    HW290502   5.463  10.863   5.864
62869SOL     OW90503   7.673   9.225   1.471
62869SOL    HW190504   7.704   9.136   1.489
62869SOL    HW290505   7.647   9.223   1.379
62870SOL     OW90506   0.187   8.709  14.296
62870SOL    HW190507   0.260   8.739  14.350
62870SOL    HW290508   0.210   8.736  14.207
62871SOL     OW90509   7.039   0.005   0.631
62871SOL    HW190510   7.093   0.013   0.552
62871SOL    HW290511   6.968  14.828   0.605
62872SOL     OW90512   5.191  10.055   3.939
62872SOL    HW190513   5.141  10.043   4.020
62872SOL    HW290514   5.127  10.043   3.870
62873SOL     OW90515   5.428   3.324   0.197
62873SOL    HW190516   5.405   3.241   0.156
62873SOL    HW290517   5.469   3.376   0.128
62874SOL     OW90518   8.087   1.305  14.203
62874SOL    HW190519   8.072   1.387  14.156
62874SOL    HW290520   8.181   1.288  14.190
62875SOL     OW90521   4.075   7.963  12.499
62875SOL    HW190522   4.152   7.908  12.488
62875SOL    HW290523   4.109   8.045  12.536
62876SOL     OW90524  11.848  12.870  11.688
62876SOL    HW190525  11.858  12.807  11.617
62876SOL    HW290526  11.762  12.851  11.725
62877SOL     OW90527  11.563   0.649   8.877
62877SOL    HW190528  11.516   0.678   8.955
62877SOL    HW290529  11.636   0.709   8.869
62878SOL     OW90530  14.456  14.701   4.538
62878SOL    HW190531  14.489  14.775   4.485
62878SOL    HW290532  14.528  14.638   4.537
62879SOL     OW90533   9.939  12.162   1.520
62879SOL    HW190534  10.012  12.214   1.487
62879SOL    HW290535   9.897  12.126   1.442
62880SOL     OW90536   9.308  10.004  13.863
62880SOL    HW190537   9.236  10.062  13.838
62880SOL    HW290538   9.285   9.920  13.823
62881SOL     OW90539   9.865   9.750   3.744
62881SOL    HW190540   9.924   9.724   3.673
62881SOL    HW290541   9.912   9.726   3.824
62882SOL     OW90542   3.810   7.525  10.429
62882SOL    HW190543   3.826   7.440  10.470
62882SOL    HW290544   3.727   7.555  10.465
62883SOL     OW90545   7.390   0.626   4.109
62883SOL    HW190546   7.392   0.542   4.155
62883SOL    HW290547   7.480   0.639   4.079
62884SOL     OW90548   1.319   9.799   4.387
62884SOL    HW190549   1.404   9.782   4.427
62884SOL    HW290550   1.256   9.784   4.457
62885SOL     OW90551  13.855  12.409   7.807
62885SOL    HW190552  13.849  12.330   7.861
62885SOL    HW290553  13.771  12.413   7.761
62886SOL     OW90554   2.511   8.141   9.615
62886SOL    HW190555   2.538   8.217   9.667
62886SOL    HW290556   2.478   8.078   9.679
62887SOL     OW90557   2.881   8.763  13.924
62887SOL    HW190558   2.918   8.850  13.943
62887SOL    HW290559   2.835   8.774  13.841
62888SOL     OW90560   8.372   0.544   5.761
62888SOL    HW190561   8.386   0.622   5.814
62888SOL    HW290562   8.296   0.564   5.707
62889SOL     OW90563  10.572   6.034  10.894
62889SOL    HW190564  10.488   6.023  10.939
62889SOL    HW290565  10.589   6.128  10.899
62890SOL     OW90566   7.676   0.018  10.220
62890SOL    HW190567   7.763  14.875  10.253
62890SOL    HW290568   7.690   0.038  10.128
62891SOL     OW90569  12.406  14.849  12.399
62891SOL    HW190570  12.418  14.863  12.492
62891SOL    HW290571  12.331   0.022  12.376
62892SOL     OW90572   2.388  14.019   6.262
62892SOL    HW190573   2.468  13.980   6.298
62892SOL    HW290574   2.389  14.109   6.294
62893SOL     OW90575   9.551   4.309  14.312
62893SOL    HW190576   9.471   4.285  14.266
62893SOL    HW290577   9.601   4.359  14.248
62894SOL     OW90578  10.800   2.468   1.757
62894SOL    HW190579  10.845   2.384   1.765
62894SOL    HW290580  10.756   2.481   1.841
62895SOL     OW90581   6.669   6.534   4.363
62895SOL    HW190582   6.657   6.440   4.347
62895SOL    HW290583   6.595   6.559   4.418
62896SOL     OW90584   6.912   8.858   7.359
62896SOL    HW190585   6.883   8.817   7.441
62896SOL    HW290586   6.999   8.892   7.379
62897SOL     OW90587   2.497  12.726  11.044
62897SOL    HW190588   2.454  12.811  11.040
62897SOL    HW290589   2.493  12.701  11.136
62898SOL     OW90590   6.509   1.478  13.796
62898SOL    HW190591   6.538   1.395  13.832
62898SOL    HW290592   6.493   1.534  13.872
62899SOL     OW90593   2.222   8.558   4.170
62899SOL    HW190594   2.256   8.634   4.217
62899SOL    HW290595   2.294   8.530   4.114
62900SOL     OW90596   0.258  13.134  10.547
62900SOL    HW190597   0.215  13.050  10.535
62900SOL    HW290598   0.269  13.142  10.642
62901SOL     OW90599  10.529   6.807   9.773
62901SOL    HW190600  10.503   6.886   9.820
62901SOL    HW290601  10.615   6.785   9.809
62902SOL     OW90602   8.536   0.382   6.480
62902SOL    HW190603   8.526   0.454   6.419
62902SOL    HW290604   8.456   0.330   6.469
62903SOL     OW90605  14.539   9.745   0.453
62903SOL    HW190606  14.588   9.824   0.431
62903SOL    HW290607  14.540   9.742   0.549
62904SOL     OW90608   0.217  10.980   7.608
62904SOL    HW190609   0.250  10.946   7.691
62904SOL    HW290610   0.295  11.000   7.557
62905SOL     OW90611   3.588   3.158   7.322
62905SOL    HW190612   3.665   3.214   7.323
62905SOL    HW290613   3.620   3.071   7.347
62906SOL     OW90614  10.601   9.656   5.238
62906SOL    HW190615  10.631   9.596   5.306
62906SOL    HW290616  10.506   9.643   5.234
62907SOL     OW90617   0.428   9.604   6.121
62907SOL    HW190618   0.489   9.678   6.118
62907SOL    HW290619   0.363   9.625   6.054
62908SOL     OW90620  12.533   2.852  10.310
62908SOL    HW190621  12.494   2.939  10.303
62908SOL    HW290622  12.596   2.860  10.382
62909SOL     OW90623  14.260   3.464  11.126
62909SOL    HW190624  14.282   3.524  11.054
62909SOL    HW290625  14.275   3.515  11.205
62910SOL     OW90626   2.929   1.499   8.696
62910SOL    HW190627   2.851   1.459   8.658
62910SOL    HW290628   2.913   1.594   8.692
62911SOL     OW90629  13.831   2.842   4.693
62911SOL    HW190630  13.873   2.757   4.703
62911SOL    HW290631  13.831   2.858   4.598
62912SOL     OW90632  14.379   4.508  10.090
62912SOL    HW190633  14.295   4.465  10.108
62912SOL    HW290634  14.444   4.452  10.133
62913SOL     OW90635   0.569   4.043   9.987
62913SOL    HW190636   0.507   4.070   9.919
62913SOL    HW290637   0.595   3.955   9.961
62914SOL     OW90638  12.591   7.529  13.045
62914SOL    HW190639  12.508   7.553  13.003
62914SOL    HW290640  12.641   7.611  13.048
62915SOL     OW90641   9.985   8.261   2.222
62915SOL    HW190642   9.976   8.166   2.231
62915SOL    HW290643  10.046   8.272   2.149
62916SOL     OW90644   6.530   4.792  12.402
62916SOL    HW190645   6.512   4.699  12.407
62916SOL    HW290646   6.605   4.806  12.460
62917SOL     OW90647  13.839  14.338   6.509
62917SOL    HW190648  13.827  14.376   6.596
62917SOL    HW290649  13.867  14.248   6.526
62918SOL     OW90650   9.673   5.785   1.266
62918SOL    HW190651   9.736   5.746   1.206
62918SOL    HW290652   9.606   5.718   1.278
62919SOL     OW90653  10.491   0.426   3.127
62919SOL    HW190654  10.527   0.468   3.205
62919SOL    HW290655  10.400   0.407   3.150
62920SOL     OW90656  14.824   2.053   4.031
62920SOL    HW190657  14.838   2.108   3.954
62920SOL    HW290658  14.729   2.043   4.036
62921SOL     OW90659   7.061  11.883   2.405
62921SOL    HW190660   7.014  11.889   2.489
62921SOL    HW290661   7.124  11.812   2.418
62922SOL     OW90662   9.005   0.423   2.648
62922SOL    HW190663   8.932   0.473   2.610
62922SOL    HW290664   9.037   0.369   2.576
62923SOL     OW90665   1.829  12.899   8.268
62923SOL    HW190666   1.921  12.874   8.264
62923SOL    HW290667   1.783  12.819   8.292
62924SOL     OW90668   2.190   0.614   3.007
62924SOL    HW190669   2.195   0.701   2.967
62924SOL    HW290670   2.097   0.592   3.004
62925SOL     OW90671   0.587   4.715   5.536
62925SOL    HW190672   0.553   4.626   5.537
62925SOL    HW290673   0.673   4.709   5.576
62926SOL     OW90674   4.071   6.504   6.141
62926SOL    HW190675   4.044   6.470   6.056
62926SOL    HW290676   4.034   6.443   6.205
62927SOL     OW90677  14.581   8.430   4.989
62927SOL    HW190678  14.573   8.339   5.016
62927SOL    HW290679  14.669   8.456   5.016
62928SOL     OW90680   8.858  13.761   7.218
62928SOL    HW190681   8.950  13.739   7.200
62928SOL    HW290682   8.824  13.791   7.134
62929SOL     OW90683   8.710   3.483  13.168
62929SOL    HW190684   8.714   3.550  13.099
62929SOL    HW290685   8.676   3.405  13.123
62930SOL     OW90686  12.013  11.703   8.628
62930SOL    HW190687  12.027  11.794   8.601
62930SOL    HW290688  11.917  11.694   8.633
62931SOL     OW90689   9.049   0.580  14.312
62931SOL    HW190690   9.123   0.566  14.370
62931SOL    HW290691   9.042   0.499  14.262
62932SOL     OW90692   0.043   3.357   1.771
62932SOL    HW190693  14.838   3.391   1.749
62932SOL    HW290694   0.028   3.267   1.798
62933SOL     OW90695   1.883   2.031   5.354
62933SOL    HW190696   1.864   2.115   5.397
62933SOL    HW290697   1.970   2.043   5.316
62934SOL     OW90698   5.799  12.068   6.839
62934SOL    HW190699   5.853  12.134   6.884
62934SOL    HW290700   5.851  11.988   6.844
62935SOL     OW90701  14.138   5.109   5.421
62935SOL    HW190702  14.174   5.194   5.447
62935SOL    HW290703  14.169   5.048   5.488
62936SOL     OW90704   5.261   9.592  13.447
62936SOL    HW190705   5.295   9.681  13.456
62936SOL    HW290706   5.293   9.562  13.362
62937SOL     OW90707   7.126  10.517   8.010
62937SOL    HW190708   7.182  10.588   7.979
62937SOL    HW290709   7.186  10.456   8.053
62938SOL     OW90710   4.972   2.654   7.411
62938SOL    HW190711   4.882   2.678   7.436
62938SOL    HW290712   4.977   2.676   7.318
62939SOL     OW90713  12.400   0.355   8.706
62939SOL    HW190714  12.435   0.306   8.781
62939SOL    HW290715  12.406   0.447   8.733
62940SOL     OW90716  14.755   8.772  13.721
62940SOL    HW190717  14.797   8.815  13.795
62940SOL    HW290718  14.801   8.806  13.644
62941SOL     OW90719   0.331  11.058  12.870
62941SOL    HW190720   0.285  11.096  12.795
62941SOL    HW290721   0.419  11.095  12.866
62942SOL     OW90722   4.760   8.340  11.248
62942SOL    HW190723   4.687   8.288  11.212
62942SOL    HW290724   4.827   8.336  11.180
62943SOL     OW90725   7.884   9.267   9.227
62943SOL    HW190726   7.876   9.174   9.250
62943SOL    HW290727   7.827   9.277   9.150
62944SOL     OW90728   1.183   5.154  14.047
62944SOL    HW190729   1.243   5.184  13.980
62944SOL    HW290730   1.106   5.123  13.999
62945SOL     OW90731  12.395  13.650   2.829
62945SOL    HW190732  12.406  13.560   2.797
62945SOL    HW290733  12.468  13.697   2.790
62946SOL     OW90734   9.935   1.702   1.767
62946SOL    HW190735   9.968   1.775   1.714
62946SOL    HW290736  10.007   1.638   1.766
62947SOL     OW90737  10.178   9.561   4.118
62947SOL    HW190738  10.195   9.593   4.029
62947SOL    HW290739  10.254   9.508   4.140
62948SOL     OW90740  10.238   7.908  13.522
62948SOL    HW190741  10.219   8.000  13.536
62948SOL    HW290742  10.323   7.908  13.477
62949SOL     OW90743   3.805   1.593   4.391
62949SOL    HW190744   3.862   1.516   4.387
62949SOL    HW290745   3.720   1.558   4.417
62950SOL     OW90746  12.493   4.038  10.797
62950SOL    HW190747  12.473   4.034  10.891
62950SOL    HW290748  12.421   3.992  10.755
62951SOL     OW90749   8.019   3.197   2.572
62951SOL    HW190750   8.003   3.261   2.503
62951SOL    HW290751   7.969   3.230   2.647
62952SOL     OW90752  12.277   9.882   2.847
62952SOL    HW190753  12.244   9.793   2.865
62952SOL    HW290754  12.373   9.873   2.852
62953SOL     OW90755   4.686   0.982   0.063
62953SOL    HW190756   4.781   0.977   0.059
62953SOL    HW290757   4.660   0.910   0.120
62954SOL     OW90758  13.000   8.782   5.807
62954SOL    HW190759  12.975   8.756   5.896
62954SOL    HW290760  12.993   8.877   5.806
62955SOL     OW90761   5.935   6.460   2.384
62955SOL    HW190762   5.962   6.368   2.380
62955SOL    HW290763   5.930   6.487   2.293
62956SOL     OW90764  13.479   5.124  13.199
62956SOL    HW190765  13.476   5.191  13.131
62956SOL    HW290766  13.402   5.142  13.253
62957SOL     OW90767  13.613   6.565   6.953
62957SOL    HW190768  13.568   6.638   6.995
62957SOL    HW290769  13.625   6.594   6.862
62958SOL     OW90770   3.291   5.666   7.041
62958SOL    HW190771   3.280   5.689   6.949
62958SOL    HW290772   3.385   5.664   7.055
62959SOL     OW90773   0.860   7.298   1.903
62959SOL    HW190774   0.891   7.211   1.928
62959SOL    HW290775   0.818   7.332   1.982
62960SOL     OW90776   9.285  12.915   4.135
62960SOL    HW190777   9.289  12.865   4.217
62960SOL    HW290778   9.312  13.003   4.160
62961SOL     OW90779  10.048   8.397  13.449
62961SOL    HW190780  10.007   8.434  13.371
62961SOL    HW290781   9.978   8.389  13.513
62962SOL     OW90782  14.291   2.478   9.025
62962SOL    HW190783  14.230   2.516   9.089
62962SOL    HW290784  14.296   2.544   8.956
62963SOL     OW90785   6.428   0.163   5.326
62963SOL    HW190786   6.378   0.083   5.341
62963SOL    HW290787   6.475   0.146   5.244
62964SOL     OW90788   4.202  14.676   4.364
62964SOL    HW190789   4.230  14.764   4.390
62964SOL    HW290790   4.166  14.687   4.277
62965SOL     OW90791  14.189  14.881  14.197
62965SOL    HW190792  14.229   0.024  14.280
62965SOL    HW290793  14.103  14.848  14.221
62966SOL     OW90794   1.612   4.448   3.822
62966SOL    HW190795   1.526   4.417   3.792
62966SOL    HW290796   1.598   4.469   3.915
62967SOL     OW90797  11.462   8.989  11.930
62967SOL    HW190798  11.455   9.085  11.937
62967SOL    HW290799  11.406   8.966  11.856
62968SOL     OW90800   4.660  10.156   7.731
62968SOL    HW190801   4.607  10.080   7.711
62968SOL    HW290802   4.702  10.135   7.815
62969SOL     OW90803   6.206   4.454  11.205
62969SOL    HW190804   6.189   4.363  11.185
62969SOL    HW290805   6.166   4.503  11.133
62970SOL     OW90806   1.324   5.397  11.556
62970SOL    HW190807   1.393   5.337  11.527
62970SOL    HW290808   1.363   5.484  11.546
62971SOL     OW90809  10.338   6.204  13.626
62971SOL    HW190810  10.264   6.144  13.615
62971SOL    HW290811  10.370   6.220  13.537
62972SOL     OW90812  11.685  10.684  10.129
62972SOL    HW190813  11.745  10.664  10.201
62972SOL    HW290814  11.631  10.755  10.164
62973SOL     OW90815   6.420   8.813  13.958
62973SOL    HW190816   6.417   8.800  13.863
62973SOL    HW290817   6.385   8.732  13.995
62974SOL     OW90818  12.975   0.828   8.339
62974SOL    HW190819  13.045   0.875   8.296
62974SOL    HW290820  13.009   0.809   8.427
62975SOL     OW90821   6.878  12.877   6.169
62975SOL    HW190822   6.903  12.804   6.225
62975SOL    HW290823   6.847  12.944   6.229
62976SOL     OW90824   4.875  11.063  14.879
62976SOL    HW190825   4.845  11.112   0.073
62976SOL    HW290826   4.812  10.992  14.870
62977SOL     OW90827   3.174   1.843   0.129
62977SOL    HW190828   3.232   1.917   0.148
62977SOL    HW290829   3.091   1.867   0.171
62978SOL     OW90830   6.608  10.807  10.538
62978SOL    HW190831   6.543  10.875  10.559
62978SOL    HW290832   6.570  10.726  10.573
62979SOL     OW90833  14.016   8.346   2.447
62979SOL    HW190834  14.006   8.324   2.540
62979SOL    HW290835  13.988   8.267   2.401
62980SOL     OW90836   6.548  10.729   0.869
62980SOL    HW190837   6.542  10.673   0.947
62980SOL    HW290838   6.570  10.815   0.902
62981SOL     OW90839   2.737   0.696   7.504
62981SOL    HW190840   2.689   0.751   7.442
62981SOL    HW290841   2.751   0.614   7.457
62982SOL     OW90842   9.379  10.799   6.953
62982SOL    HW190843   9.320  10.725   6.945
62982SOL    HW290844   9.428  10.801   6.871
62983SOL     OW90845   5.404   6.473   3.759
62983SOL    HW190846   5.396   6.479   3.854
62983SOL    HW290847   5.469   6.405   3.744
62984SOL     OW90848  11.070  12.146   7.350
62984SOL    HW190849  11.003  12.212   7.334
62984SOL    HW290850  11.107  12.127   7.264
62985SOL     OW90851   4.850   7.535   0.089
62985SOL    HW190852   4.842   7.629   0.106
62985SOL    HW290853   4.762   7.507   0.066
62986SOL     OW90854   7.367  13.302   8.077
62986SOL    HW190855   7.434  13.303   8.009
62986SOL    HW290856   7.286  13.283   8.030
62987SOL     OW90857   4.316  13.201   8.892
62987SOL    HW190858   4.226  13.221   8.919
62987SOL    HW290859   4.367  13.277   8.919
62988SOL     OW90860   2.511   6.314   1.939
62988SOL    HW190861   2.454   6.387   1.963
62988SOL    HW290862   2.599   6.343   1.964
62989SOL     OW90863   6.878  13.963   2.183
62989SOL    HW190864   6.850  13.913   2.260
62989SOL    HW290865   6.890  14.053   2.216
62990SOL     OW90866   8.835   0.096   1.475
62990SOL    HW190867   8.825   0.017   1.527
62990SOL    HW290868   8.745   0.124   1.456
62991SOL     OW90869   9.676   4.309   6.871
62991SOL    HW190870   9.590   4.337   6.838
62991SOL    HW290871   9.719   4.272   6.794
62992SOL     OW90872   2.869   0.683   1.484
62992SOL    HW190873   2.869   0.774   1.455
62992SOL    HW290874   2.919   0.637   1.417
62993SOL     OW90875   9.300   9.249   4.855
62993SOL    HW190876   9.254   9.317   4.904
62993SOL    HW290877   9.273   9.263   4.764
62994SOL     OW90878   2.540   4.846   9.629
62994SOL    HW190879   2.620   4.818   9.584
62994SOL    HW290880   2.565   4.927   9.673
62995SOL     OW90881   8.541   6.323  13.786
62995SOL    HW190882   8.578   6.317  13.697
62995SOL    HW290883   8.535   6.417  13.804
62996SOL     OW90884   2.831  12.726   6.874
62996SOL    HW190885   2.919  12.752   6.850
62996SOL    HW290886   2.796  12.680   6.798
62997SOL     OW90887   3.212   0.581   1.929
62997SOL    HW190888   3.185   0.636   2.002
62997SOL    HW290889   3.159   0.502   1.937
62998SOL     OW90890   9.893   9.654   6.048
62998SOL    HW190891   9.830   9.583   6.037
62998SOL    HW290892   9.976   9.609   6.063
62999SOL     OW90893  12.424   4.852  13.753
62999SOL    HW190894  12.436   4.886  13.841
62999SOL    HW290895  12.355   4.907  13.716
63000SOL     OW90896   9.376  11.460  10.821
63000SOL    HW190897   9.410  11.533  10.770
63000SOL    HW290898   9.309  11.421  10.765
63001SOL     OW90899  11.291   3.112   4.060
63001SOL    HW190900  11.205   3.110   4.017
63001SOL    HW290901  11.293   3.034   4.115
63002SOL     OW90902   8.267   9.615   4.976
63002SOL    HW190903   8.333   9.675   4.940
63002SOL    HW290904   8.267   9.632   5.070
63003SOL     OW90905   5.333   0.094  11.049
63003SOL    HW190906   5.421   0.127  11.068
63003SOL    HW290907   5.292   0.086  11.136
63004SOL     OW90908  14.617   9.199  14.150
63004SOL    HW190909  14.590   9.167  14.064
63004SOL    HW290910  14.563   9.277  14.164
63005SOL     OW90911   7.432   6.649   9.073
63005SOL    HW190912   7.337   6.651   9.089
63005SOL    HW290913   7.446   6.717   9.007
63006SOL     OW90914   4.374   0.287  11.997
63006SOL    HW190915   4.347   0.345  12.068
63006SOL    HW290916   4.330   0.322  11.919
63007SOL     OW90917   5.953   4.888  14.029
63007SOL    HW190918   6.017   4.860  13.963
63007SOL    HW290919   5.958   4.820  14.097
63008SOL     OW90920   1.086  10.085   5.537
63008SOL    HW190921   1.090  10.153   5.470
63008SOL    HW290922   1.122  10.007   5.494
63009SOL     OW90923   7.407   3.503   5.564
63009SOL    HW190924   7.373   3.533   5.479
63009SOL    HW290925   7.402   3.408   5.559
63010SOL     OW90926   5.427   7.159   4.787
63010SOL    HW190927   5.473   7.239   4.812
63010SOL    HW290928   5.337   7.174   4.815
63011SOL     OW90929   0.652   8.918  14.727
63011SOL    HW190930   0.626   8.906  14.636
63011SOL    HW290931   0.604   8.851  14.775
63012SOL     OW90932   5.728   5.816  12.271
63012SOL    HW190933   5.814   5.855  12.284
63012SOL    HW290934   5.674   5.888  12.238
63013SOL     OW90935  11.730   2.229  14.399
63013SOL    HW190936  11.687   2.283  14.467
63013SOL    HW290937  11.657   2.191  14.350
63014SOL     OW90938   0.900   6.480   9.209
63014SOL    HW190939   0.808   6.463   9.190
63014SOL    HW290940   0.927   6.406   9.264
63015SOL     OW90941   5.922   6.989   2.433
63015SOL    HW190942   5.917   6.943   2.350
63015SOL    HW290943   5.938   6.920   2.498
63016SOL     OW90944  11.355   2.917   4.225
63016SOL    HW190945  11.314   2.831   4.228
63016SOL    HW290946  11.396   2.927   4.311
63017SOL     OW90947   6.807   3.919   5.869
63017SOL    HW190948   6.837   3.871   5.947
63017SOL    HW290949   6.865   3.889   5.799
63018SOL     OW90950   3.397   9.003   5.639
63018SOL    HW190951   3.394   8.908   5.634
63018SOL    HW290952   3.379   9.032   5.549
63019SOL     OW90953   0.173   9.770   4.217
63019SOL    HW190954   0.225   9.844   4.185
63019SOL    HW290955   0.084   9.805   4.224
63020SOL     OW90956   3.157  10.731   3.469
63020SOL    HW190957   3.184  10.721   3.560
63020SOL    HW290958   3.062  10.741   3.473
63021SOL     OW90959   9.501  13.553  13.385
63021SOL    HW190960   9.452  13.597  13.454
63021SOL    HW290961   9.437  13.541  13.314
63022SOL     OW90962   4.660   9.054  13.526
63022SOL    HW190963   4.608   9.010  13.593
63022SOL    HW290964   4.693   8.982  13.471
63023SOL     OW90965   3.501  11.795   5.625
63023SOL    HW190966   3.450  11.875   5.638
63023SOL    HW290967   3.469  11.735   5.693
63024SOL     OW90968   1.903  13.331   4.653
63024SOL    HW190969   1.926  13.280   4.575
63024SOL    HW290970   1.979  13.322   4.711
63025SOL     OW90971   0.313   9.575  10.211
63025SOL    HW190972   0.230   9.544  10.247
63025SOL    HW290973   0.289   9.645  10.150
63026SOL     OW90974   8.331   6.021  12.675
63026SOL    HW190975   8.388   6.023  12.598
63026SOL    HW290976   8.321   6.114  12.698
63027SOL     OW90977  10.283   7.682  14.067
63027SOL    HW190978  10.243   7.760  14.108
63027SOL    HW290979  10.377   7.700  14.068
63028SOL     OW90980  11.517   1.520   7.210
63028SOL    HW190981  11.462   1.527   7.133
63028SOL    HW290982  11.461   1.548   7.283
63029SOL     OW90983  10.823   5.479  10.534
63029SOL    HW190984  10.915   5.457  10.548
63029SOL    HW290985  10.825   5.549  10.469
63030SOL     OW90986  12.983   7.529   3.530
63030SOL    HW190987  12.969   7.545   3.437
63030SOL    HW290988  13.038   7.450   3.533
63031SOL     OW90989   8.481   4.480   9.386
63031SOL    HW190990   8.563   4.493   9.434
63031SOL    HW290991   8.509   4.439   9.303
63032SOL     OW90992  11.649   2.975  14.470
63032SOL    HW190993  11.663   2.957  14.377
63032SOL    HW290994  11.556   2.958  14.484
63033SOL     OW90995   3.464   2.038  11.983
63033SOL    HW190996   3.473   2.121  12.030
63033SOL    HW290997   3.369   2.027  11.970
63034SOL     OW90998   2.741   9.260   1.760
63034SOL    HW190999   2.834   9.281   1.764
63034SOL    HW291000   2.718   9.270   1.667
63035SOL     OW91001   1.997   4.460   4.355
63035SOL    HW191002   1.981   4.369   4.332
63035SOL    HW291003   1.912   4.503   4.343
63036SOL     OW91004   1.557   2.265   2.265
63036SOL    HW191005   1.626   2.275   2.199
63036SOL    HW291006   1.547   2.353   2.302
63037SOL     OW91007   0.584   4.228  11.546
63037SOL    HW191008   0.548   4.203  11.630
63037SOL    HW291009   0.636   4.152  11.519
63038SOL     OW91010  14.574   4.812  11.874
63038SOL    HW191011  14.478   4.814  11.879
63038SOL    HW291012  14.600   4.754  11.945
63039SOL     OW91013  11.923   6.822   9.292
63039SOL    HW191014  11.950   6.742   9.246
63039SOL    HW291015  11.877   6.873   9.225
63040SOL     OW91016   6.155   9.764   8.724
63040SOL    HW191017   6.244   9.788   8.747
63040SOL    HW291018   6.134   9.691   8.782
63041SOL     OW91019  13.611   6.204   3.748
63041SOL    HW191020  13.542   6.261   3.714
63041SOL    HW291021  13.686   6.263   3.760
63042SOL     OW91022   0.632   6.484   0.831
63042SOL    HW191023   0.609   6.399   0.868
63042SOL    HW291024   0.713   6.508   0.875
63043SOL     OW91025  13.568  13.204  13.440
63043SOL    HW191026  13.592  13.122  13.397
63043SOL    HW291027  13.493  13.181  13.495
63044SOL     OW91028   4.333   6.735   3.126
63044SOL    HW191029   4.268   6.774   3.184
63044SOL    HW291030   4.302   6.753   3.038
63045SOL     OW91031  10.442   6.404   1.656
63045SOL    HW191032  10.389   6.365   1.586
63045SOL    HW291033  10.378   6.440   1.717
63046SOL     OW91034   7.320  14.460   2.388
63046SOL    HW191035   7.311  14.531   2.452
63046SOL    HW291036   7.399  14.413   2.415
63047SOL     OW91037   2.554   0.060   4.403
63047SOL    HW191038   2.619  14.879   4.375
63047SOL    HW291039   2.533   0.035   4.493
63048SOL     OW91040  13.467   1.651   4.144
63048SOL    HW191041  13.381   1.693   4.140
63048SOL    HW291042  13.448   1.557   4.138
63049SOL     OW91043   0.404   2.555  13.507
63049SOL    HW191044   0.430   2.599  13.426
63049SOL    HW291045   0.309   2.565  13.511
63050SOL     OW91046   2.249  13.905   1.310
63050SOL    HW191047   2.248  13.832   1.247
63050SOL    HW291048   2.223  13.981   1.259
63051SOL     OW91049   8.783   1.687  12.802
63051SOL    HW191050   8.697   1.717  12.771
63051SOL    HW291051   8.784   1.594  12.780
63052SOL     OW91052   1.583   1.653  13.404
63052SOL    HW191053   1.578   1.561  13.430
63052SOL    HW291054   1.624   1.696  13.479
63053SOL     OW91055   2.004   5.259  11.765
63053SOL    HW191056   2.038   5.174  11.735
63053SOL    HW291057   2.082   5.309  11.788
63054SOL     OW91058   1.390   3.711   8.971
63054SOL    HW191059   1.415   3.620   8.982
63054SOL    HW291060   1.416   3.733   8.881
63055SOL     OW91061   2.235   6.034   6.683
63055SOL    HW191062   2.295   6.078   6.743
63055SOL    HW291063   2.174   5.988   6.740
63056SOL     OW91064  12.538   5.396   4.752
63056SOL    HW191065  12.593   5.413   4.828
63056SOL    HW291066  12.600   5.377   4.681
63057SOL     OW91067  14.461   7.807   4.647
63057SOL    HW191068  14.428   7.877   4.590
63057SOL    HW291069  14.382   7.766   4.682
63058SOL     OW91070   8.921   7.997   6.195
63058SOL    HW191071   8.872   7.975   6.115
63058SOL    HW291072   8.857   7.985   6.266
63059SOL     OW91073   9.431  12.850   9.291
63059SOL    HW191074   9.455  12.868   9.200
63059SOL    HW291075   9.374  12.774   9.286
63060SOL     OW91076   2.365  14.851   2.903
63060SOL    HW191077   2.429   0.032   2.870
63060SOL    HW291078   2.320   0.015   2.974
63061SOL     OW91079  10.098   5.196  10.224
63061SOL    HW191080  10.093   5.127  10.158
63061SOL    HW291081  10.094   5.150  10.308
63062SOL     OW91082   3.864   5.083   6.344
63062SOL    HW191083   3.886   5.175   6.356
63062SOL    HW291084   3.829   5.078   6.255
63063SOL     OW91085   9.977   3.402   6.194
63063SOL    HW191086   9.902   3.418   6.251
63063SOL    HW291087  10.049   3.450   6.235
63064SOL     OW91088   6.281   8.465   3.748
63064SOL    HW191089   6.251   8.548   3.784
63064SOL    HW291090   6.366   8.450   3.791
63065SOL     OW91091   0.404  14.492   4.648
63065SOL    HW191092   0.360  14.548   4.712
63065SOL    HW291093   0.336  14.430   4.620
63066SOL     OW91094   6.457  12.805   5.120
63066SOL    HW191095   6.441  12.897   5.141
63066SOL    HW291096   6.414  12.757   5.191
63067SOL     OW91097   9.571   3.579   6.018
63067SOL    HW191098   9.620   3.514   6.069
63067SOL    HW291099   9.487   3.587   6.062
63068SOL     OW91100  12.343  12.997   5.219
63068SOL    HW191101  12.369  13.066   5.280
63068SOL    HW291102  12.419  12.986   5.161
63069SOL     OW91103   0.848  10.409   7.508
63069SOL    HW191104   0.863  10.484   7.450
63069SOL    HW291105   0.915  10.417   7.576
63070SOL     OW91106   4.809   9.654   4.302
63070SOL    HW191107   4.898   9.618   4.297
63070SOL    HW291108   4.819   9.745   4.273
63071SOL     OW91109   5.923   1.151   0.740
63071SOL    HW191110   5.992   1.186   0.683
63071SOL    HW291111   5.910   1.219   0.806
63072SOL     OW91112   4.444   0.316  13.475
63072SOL    HW191113   4.398   0.398  13.455
63072SOL    HW291114   4.462   0.321  13.568
63073SOL     OW91115   1.668  13.742   7.854
63073SOL    HW191116   1.605  13.731   7.783
63073SOL    HW291117   1.732  13.804   7.819
63074SOL     OW91118  13.555   3.314   2.641
63074SOL    HW191119  13.596   3.389   2.684
63074SOL    HW291120  13.629   3.259   2.613
63075SOL     OW91121   9.484  14.254   4.459
63075SOL    HW191122   9.427  14.318   4.417
63075SOL    HW291123   9.513  14.197   4.387
63076SOL     OW91124  13.600   4.723  12.563
63076SOL    HW191125  13.679   4.670  12.576
63076SOL    HW291126  13.552   4.713  12.645
63077SOL     OW91127  13.598   8.186   2.291
63077SOL    HW191128  13.583   8.108   2.238
63077SOL    HW291129  13.513   8.206   2.329
63078SOL     OW91130  10.228   8.988   8.839
63078SOL    HW191131  10.309   9.034   8.819
63078SOL    HW291132  10.225   8.916   8.775
63079SOL     OW91133   4.425  11.845   3.478
63079SOL    HW191134   4.455  11.862   3.568
63079SOL    HW291135   4.504  11.851   3.425
63080SOL     OW91136   3.347   6.401  12.376
63080SOL    HW191137   3.261   6.377  12.341
63080SOL    HW291138   3.408   6.341  12.333
63081SOL     OW91139  14.684   0.268  12.315
63081SOL    HW191140  14.709   0.320  12.239
63081SOL    HW291141  14.589   0.278  12.322
63082SOL     OW91142   7.920  11.396  11.973
63082SOL    HW191143   7.868  11.354  11.904
63082SOL    HW291144   7.974  11.459  11.926
63083SOL     OW91145  14.723   9.665  13.762
63083SOL    HW191146  14.674   9.742  13.793
63083SOL    HW291147  14.814   9.694  13.760
63084SOL     OW91148  11.076  14.637   3.277
63084SOL    HW191149  11.056  14.622   3.184
63084SOL    HW291150  11.161  14.681   3.276
63085SOL     OW91151   4.445   5.669   8.300
63085SOL    HW191152   4.484   5.678   8.387
63085SOL    HW291153   4.474   5.583   8.270
63086SOL     OW91154  11.798   0.043  13.814
63086SOL    HW191155  11.739   0.039  13.889
63086SOL    HW291156  11.860   0.113  13.836
63087SOL     OW91157   9.490   3.266   9.202
63087SOL    HW191158   9.422   3.305   9.256
63087SOL    HW291159   9.521   3.338   9.147
63088SOL     OW91160  14.567  10.271   3.984
63088SOL    HW191161  14.487  10.263   4.035
63088SOL    HW291162  14.551  10.344   3.925
63089SOL     OW91163  11.448   6.218   6.571
63089SOL    HW191164  11.420   6.206   6.481
63089SOL    HW291165  11.472   6.131   6.601
63090SOL     OW91166   7.761   5.516   6.906
63090SOL    HW191167   7.802   5.598   6.877
63090SOL    HW291168   7.718   5.481   6.828
63091SOL     OW91169   4.212  12.958   5.907
63091SOL    HW191170   4.173  12.980   5.822
63091SOL    HW291171   4.167  12.879   5.934
63092SOL     OW91172   5.952   4.878   0.583
63092SOL    HW191173   5.995   4.909   0.662
63092SOL    HW291174   5.922   4.789   0.604
63093SOL     OW91175  13.757  11.114   3.636
63093SOL    HW191176  13.667  11.142   3.620
63093SOL    HW291177  13.802  11.194   3.662
63094SOL     OW91178   5.817  14.251   8.002
63094SOL    HW191179   5.836  14.227   8.092
63094SOL    HW291180   5.875  14.195   7.949
63095SOL     OW91181  11.487   0.905   7.977
63095SOL    HW191182  11.451   0.854   7.904
63095SOL    HW291183  11.508   0.840   8.044
63096SOL     OW91184   3.956   1.234   7.377
63096SOL    HW191185   3.951   1.277   7.463
63096SOL    HW291186   3.886   1.169   7.379
63097SOL     OW91187  11.737   7.862   3.648
63097SOL    HW191188  11.827   7.829   3.648
63097SOL    HW291189  11.685   7.787   3.618
63098SOL     OW91190   4.961   4.430   5.074
63098SOL    HW191191   4.959   4.526   5.064
63098SOL    HW291192   4.908   4.414   5.152
63099SOL     OW91193  13.154   3.595   3.182
63099SOL    HW191194  13.145   3.690   3.190
63099SOL    HW291195  13.245   3.582   3.156
63100SOL     OW91196   8.641  10.975   5.899
63100SOL    HW191197   8.641  11.011   5.988
63100SOL    HW291198   8.688  10.892   5.906
63101SOL     OW91199  13.405   8.308  14.363
63101SOL    HW191200  13.483   8.293  14.417
63101SOL    HW291201  13.429   8.273  14.277
63102SOL     OW91202   3.294   7.750   7.413
63102SOL    HW191203   3.365   7.750   7.349
63102SOL    HW291204   3.250   7.667   7.399
63103SOL     OW91205   5.078   1.457  11.622
63103SOL    HW191206   5.018   1.387  11.594
63103SOL    HW291207   5.047   1.482  11.709
63104SOL     OW91208   6.225  12.295   6.966
63104SOL    HW191209   6.172  12.373   6.979
63104SOL    HW291210   6.230  12.254   7.053
63105SOL     OW91211  14.282   4.253   0.682
63105SOL    HW191212  14.188   4.244   0.669
63105SOL    HW291213  14.320   4.192   0.618
63106SOL     OW91214   8.988   8.279   0.165
63106SOL    HW191215   9.017   8.204   0.113
63106SOL    HW291216   8.928   8.327   0.107
63107SOL     OW91217   4.685  10.120   5.103
63107SOL    HW191218   4.617  10.188   5.099
63107SOL    HW291219   4.750  10.148   5.039
63108SOL     OW91220  12.598   3.835   8.385
63108SOL    HW191221  12.555   3.915   8.416
63108SOL    HW291222  12.603   3.846   8.290
63109SOL     OW91223   3.789  11.755   6.349
63109SOL    HW191224   3.875  11.724   6.374
63109SOL    HW291225   3.806  11.821   6.281
63110SOL     OW91226   9.292  13.676  13.587
63110SOL    HW191227   9.225  13.615  13.554
63110SOL    HW291228   9.242  13.751  13.619
63111SOL     OW91229  10.762   7.517   9.076
63111SOL    HW191230  10.854   7.528   9.101
63111SOL    HW291231  10.716   7.586   9.124
63112SOL     OW91232   6.889  14.546   7.636
63112SOL    HW191233   6.807  14.595   7.637
63112SOL    HW291234   6.863  14.455   7.623
63113SOL     OW91235   9.579   3.396  12.181
63113SOL    HW191236   9.568   3.444  12.099
63113SOL    HW291237   9.490   3.375  12.209
63114SOL     OW91238  14.535   8.694   7.654
63114SOL    HW191239  14.599   8.669   7.721
63114SOL    HW291240  14.570   8.658   7.572
63115SOL     OW91241   6.456   7.625   6.674
63115SOL    HW191242   6.464   7.591   6.585
63115SOL    HW291243   6.403   7.705   6.665
63116SOL     OW91244   7.296  10.257   2.953
63116SOL    HW191245   7.254  10.194   2.895
63116SOL    HW291246   7.275  10.342   2.914
63117SOL     OW91247   2.448   9.908   3.502
63117SOL    HW191248   2.494   9.971   3.446
63117SOL    HW291249   2.515   9.874   3.560
63118SOL     OW91250   1.644   1.530   7.156
63118SOL    HW191251   1.576   1.579   7.109
63118SOL    HW291252   1.682   1.472   7.090
63119SOL     OW91253   0.502  11.148   7.724
63119SOL    HW191254   0.455  11.125   7.804
63119SOL    HW291255   0.566  11.078   7.713
63120SOL     OW91256  12.319  13.788   2.511
63120SOL    HW191257  12.395  13.751   2.466
63120SOL    HW291258  12.288  13.717   2.568
63121SOL     OW91259   9.582   8.657  12.430
63121SOL    HW191260   9.569   8.631  12.522
63121SOL    HW291261   9.594   8.574  12.383
63122SOL     OW91262   6.946  11.674  11.085
63122SOL    HW191263   6.899  11.629  11.015
63122SOL    HW291264   6.898  11.755  11.098
63123SOL     OW91265   4.159   4.512   6.209
63123SOL    HW191266   4.132   4.557   6.129
63123SOL    HW291267   4.249   4.542   6.224
63124SOL     OW91268   6.638  10.064  14.705
63124SOL    HW191269   6.689  10.145  14.707
63124SOL    HW291270   6.594  10.066  14.620
63125SOL     OW91271  14.118   3.947   4.917
63125SOL    HW191272  14.038   3.955   4.970
63125SOL    HW291273  14.175   4.016   4.950
63126SOL     OW91274   1.599  14.559  12.018
63126SOL    HW191275   1.599  14.499  12.093
63126SOL    HW291276   1.674  14.616  12.032
63127SOL     OW91277   0.538   6.850   5.920
63127SOL    HW191278   0.483   6.911   5.870
63127SOL    HW291279   0.620   6.845   5.870
63128SOL     OW91280   7.664  11.048   4.115
63128SOL    HW191281   7.618  10.984   4.169
63128SOL    HW291282   7.710  10.995   4.050
63129SOL     OW91283   9.605   9.883  11.338
63129SOL    HW191284   9.586   9.790  11.325
63129SOL    HW291285   9.549   9.928  11.275
63130SOL     OW91286   6.693  11.516   1.841
63130SOL    HW191287   6.721  11.429   1.811
63130SOL    HW291288   6.617  11.499   1.896
63131SOL     OW91289   4.943  10.087   4.064
63131SOL    HW191290   4.962  10.157   4.002
63131SOL    HW291291   4.869  10.040   4.026
63132SOL     OW91292   3.786   4.545   4.581
63132SOL    HW191293   3.726   4.493   4.633
63132SOL    HW291294   3.765   4.636   4.604
63133SOL     OW91295   9.333   5.333   5.724
63133SOL    HW191296   9.281   5.263   5.686
63133SOL    HW291297   9.408   5.342   5.665
63134SOL     OW91298   0.970  14.285   7.499
63134SOL    HW191299   0.897  14.346   7.509
63134SOL    HW291300   1.021  14.296   7.579
63135SOL     OW91301  12.896   4.492   3.608
63135SOL    HW191302  12.898   4.586   3.593
63135SOL    HW291303  12.821   4.461   3.555
63136SOL     OW91304   7.534   0.918  13.896
63136SOL    HW191305   7.456   0.862  13.898
63136SOL    HW291306   7.590   0.878  13.829
63137SOL     OW91307  10.226   8.353  11.166
63137SOL    HW191308  10.241   8.304  11.085
63137SOL    HW291309  10.289   8.425  11.163
63138SOL     OW91310   4.577   4.492   7.810
63138SOL    HW191311   4.600   4.423   7.747
63138SOL    HW291312   4.597   4.574   7.763
63139SOL     OW91313   5.195  12.800   2.070
63139SOL    HW191314   5.145  12.736   2.018
63139SOL    HW291315   5.132  12.870   2.089
63140SOL     OW91316   6.523  13.752  13.480
63140SOL    HW191317   6.429  13.752  13.461
63140SOL    HW291318   6.528  13.751  13.576
63141SOL     OW91319   4.830  13.710   4.084
63141SOL    HW191320   4.867  13.646   4.024
63141SOL    HW291321   4.901  13.729   4.145
63142SOL     OW91322   1.660   5.967   4.905
63142SOL    HW191323   1.733   5.981   4.844
63142SOL    HW291324   1.584   5.952   4.849
63143SOL     OW91325  10.212   2.391  11.372
63143SOL    HW191326  10.244   2.340  11.447
63143SOL    HW291327  10.260   2.356  11.297
63144SOL     OW91328  11.780   6.634   4.322
63144SOL    HW191329  11.727   6.560   4.354
63144SOL    HW291330  11.735   6.711   4.355
63145SOL     OW91331   4.783   4.966  11.617
63145SOL    HW191332   4.718   4.985  11.550
63145SOL    HW291333   4.841   4.901  11.576
63146SOL     OW91334   7.420  13.248   6.379
63146SOL    HW191335   7.493  13.208   6.426
63146SOL    HW291336   7.342  13.206   6.415
63147SOL     OW91337  14.055  11.763   5.180
63147SOL    HW191338  14.030  11.672   5.163
63147SOL    HW291339  14.114  11.785   5.108
63148SOL     OW91340   8.227   9.196   7.168
63148SOL    HW191341   8.307   9.200   7.116
63148SOL    HW291342   8.170   9.136   7.120
63149SOL     OW91343  13.115   8.745  12.532
63149SOL    HW191344  13.197   8.793  12.543
63149SOL    HW291345  13.060   8.802  12.477
63150SOL     OW91346   5.059   9.665   6.913
63150SOL    HW191347   5.122   9.735   6.892
63150SOL    HW291348   5.060   9.609   6.836
63151SOL     OW91349   0.788   6.912   7.213
63151SOL    HW191350   0.799   6.973   7.285
63151SOL    HW291351   0.693   6.904   7.202
63152SOL     OW91352   2.429   7.702  12.888
63152SOL    HW191353   2.504   7.737  12.936
63152SOL    HW291354   2.379   7.780  12.863
63153SOL     OW91355   0.095   7.645   0.248
63153SOL    HW191356   0.151   7.624   0.173
63153SOL    HW291357   0.048   7.564   0.268
63154SOL     OW91358  10.088  13.530   7.925
63154SOL    HW191359  10.071  13.581   7.846
63154SOL    HW291360  10.044  13.446   7.910
63155SOL     OW91361  11.579   2.438   5.069
63155SOL    HW191362  11.659   2.485   5.049
63155SOL    HW291363  11.554   2.469   5.157
63156SOL     OW91364  10.996   1.601  11.132
63156SOL    HW191365  11.042   1.532  11.085
63156SOL    HW291366  11.037   1.682  11.101
63157SOL     OW91367  13.952  13.425   5.769
63157SOL    HW191368  13.979  13.439   5.859
63157SOL    HW291369  13.993  13.497   5.720
63158SOL     OW91370  10.813  13.740   3.442
63158SOL    HW191371  10.810  13.648   3.468
63158SOL    HW291372  10.874  13.780   3.503
63159SOL     OW91373   7.391  11.996  14.681
63159SOL    HW191374   7.345  12.072  14.646
63159SOL    HW291375   7.322  11.934  14.704
63160SOL     OW91376   1.677   6.517   8.400
63160SOL    HW191377   1.681   6.577   8.474
63160SOL    HW291378   1.700   6.571   8.324
63161SOL     OW91379   5.559  12.188   6.891
63161SOL    HW191380   5.651  12.165   6.881
63161SOL    HW291381   5.516  12.105   6.912
63162SOL     OW91382  12.957  10.157  10.349
63162SOL    HW191383  12.983  10.249  10.349
63162SOL    HW291384  12.894  10.150  10.420
63163SOL     OW91385   0.270  12.641   4.931
63163SOL    HW191386   0.182  12.666   4.901
63163SOL    HW291387   0.291  12.706   4.998
63164SOL     OW91388   8.355   0.395  11.510
63164SOL    HW191389   8.329   0.307  11.483
63164SOL    HW291390   8.366   0.443  11.428
63165SOL     OW91391   5.696   3.130  13.188
63165SOL    HW191392   5.689   3.212  13.139
63165SOL    HW291393   5.778   3.090  13.158
63166SOL     OW91394   3.769   3.162   2.315
63166SOL    HW191395   3.825   3.186   2.241
63166SOL    HW291396   3.680   3.181   2.284
63167SOL     OW91397   8.088   7.740   3.921
63167SOL    HW191398   8.177   7.722   3.950
63167SOL    HW291399   8.041   7.764   4.001
63168SOL     OW91400   8.475  13.988   7.423
63168SOL    HW191401   8.471  13.893   7.421
63168SOL    HW291402   8.568  14.009   7.413
63169SOL     OW91403   1.461  10.240   3.428
63169SOL    HW191404   1.413  10.184   3.489
63169SOL    HW291405   1.547  10.253   3.469
63170SOL     OW91406   6.907   7.463   2.978
63170SOL    HW191407   6.836   7.402   2.999
63170SOL    HW291408   6.876   7.548   3.010
63171SOL     OW91409   8.876   2.452   6.655
63171SOL    HW191410   8.907   2.530   6.702
63171SOL    HW291411   8.954   2.396   6.649
63172SOL     OW91412  10.975   2.706   1.201
63172SOL    HW191413  10.913   2.779   1.196
63172SOL    HW291414  11.005   2.707   1.292
63173SOL     OW91415   4.467   4.908   1.722
63173SOL    HW191416   4.514   4.858   1.654
63173SOL    HW291417   4.514   4.889   1.803
63174SOL     OW91418   1.252   2.453   7.636
63174SOL    HW191419   1.225   2.457   7.544
63174SOL    HW291420   1.333   2.401   7.635
63175SOL     OW91421   9.922   1.405  14.389
63175SOL    HW191422   9.876   1.448  14.317
63175SOL    HW291423   9.982   1.472  14.423
63176SOL     OW91424  12.732  13.068   2.755
63176SOL    HW191425  12.699  13.152   2.788
63176SOL    HW291426  12.818  13.060   2.795
63177SOL     OW91427  12.966  12.580   3.407
63177SOL    HW191428  12.977  12.668   3.442
63177SOL    HW291429  12.938  12.527   3.482
63178SOL     OW91430  10.707   5.658  11.889
63178SOL    HW191431  10.662   5.575  11.874
63178SOL    HW291432  10.790   5.649  11.841
63179SOL     OW91433   9.933   1.378   4.338
63179SOL    HW191434   9.905   1.429   4.262
63179SOL    HW291435   9.853   1.363   4.389
63180SOL     OW91436  14.607   7.813   9.203
63180SOL    HW191437  14.678   7.848   9.257
63180SOL    HW291438  14.648   7.791   9.120
63181SOL     OW91439  10.598   8.637  13.704
63181SOL    HW191440  10.647   8.695  13.762
63181SOL    HW291441  10.621   8.549  13.733
63182SOL     OW91442   5.623  13.247  12.565
63182SOL    HW191443   5.648  13.163  12.605
63182SOL    HW291444   5.574  13.293  12.633
63183SOL     OW91445   5.802  11.956  14.044
63183SOL    HW191446   5.766  11.868  14.055
63183SOL    HW291447   5.780  11.980  13.954
63184SOL     OW91448   4.399   9.673   8.746
63184SOL    HW191449   4.443   9.596   8.783
63184SOL    HW291450   4.318   9.638   8.708
63185SOL     OW91451   3.541  13.010   5.846
63185SOL    HW191452   3.545  13.005   5.751
63185SOL    HW291453   3.484  13.085   5.864
63186SOL     OW91454   2.140   7.331   7.047
63186SOL    HW191455   2.087   7.355   6.970
63186SOL    HW291456   2.160   7.239   7.034
63187SOL     OW91457  12.654   9.558   9.235
63187SOL    HW191458  12.645   9.464   9.221
63187SOL    HW291459  12.749   9.573   9.232
63188SOL     OW91460   4.950   2.611  13.514
63188SOL    HW191461   4.932   2.552  13.441
63188SOL    HW291462   4.890   2.685  13.500
63189SOL     OW91463   9.965  11.087  11.661
63189SOL    HW191464  10.052  11.053  11.681
63189SOL    HW291465   9.957  11.079  11.566
63190SOL     OW91466  13.335   4.414  11.217
63190SOL    HW191467  13.247   4.379  11.201
63190SOL    HW291468  13.341   4.418  11.312
63191SOL     OW91469  12.105   6.344   3.593
63191SOL    HW191470  12.124   6.437   3.606
63191SOL    HW291471  12.014   6.342   3.561
63192SOL     OW91472  14.744  13.040   4.957
63192SOL    HW191473  14.718  13.098   5.028
63192SOL    HW291474  14.662  13.002   4.925
63193SOL     OW91475   2.014   6.274   0.550
63193SOL    HW191476   2.067   6.194   0.547
63193SOL    HW291477   2.053   6.326   0.620
63194SOL     OW91478   4.647  11.153   1.952
63194SOL    HW191479   4.635  11.093   2.025
63194SOL    HW291480   4.734  11.131   1.916
63195SOL     OW91481   8.607   2.422   1.829
63195SOL    HW191482   8.687   2.465   1.798
63195SOL    HW291483   8.638   2.361   1.895
63196SOL     OW91484   3.859  10.143   9.886
63196SOL    HW191485   3.946  10.156   9.847
63196SOL    HW291486   3.799  10.191   9.829
63197SOL     OW91487   1.793  11.961   3.238
63197SOL    HW191488   1.846  12.022   3.187
63197SOL    HW291489   1.836  11.876   3.226
63198SOL     OW91490   9.242   0.768   0.085
63198SOL    HW191491   9.226   0.688   0.036
63198SOL    HW291492   9.155   0.802   0.105
63199SOL     OW91493   9.386   7.114   1.732
63199SOL    HW191494   9.418   7.095   1.821
63199SOL    HW291495   9.366   7.028   1.695
63200SOL     OW91496   7.562   8.567  10.133
63200SOL    HW191497   7.534   8.493  10.187
63200SOL    HW291498   7.650   8.588  10.164
63201SOL     OW91499   3.503   3.909   2.258
63201SOL    HW191500   3.489   3.953   2.341
63201SOL    HW291501   3.506   3.816   2.281
63202SOL     OW91502  11.438  13.695   5.172
63202SOL    HW191503  11.496  13.743   5.112
63202SOL    HW291504  11.494  13.674   5.247
63203SOL     OW91505   0.349   9.424   1.272
63203SOL    HW191506   0.331   9.482   1.345
63203SOL    HW291507   0.303   9.343   1.293
63204SOL     OW91508   7.942   5.695  13.066
63204SOL    HW191509   7.891   5.722  13.142
63204SOL    HW291510   7.910   5.751  12.995
63205SOL     OW91511   0.965   0.354   2.732
63205SOL    HW191512   0.921   0.428   2.772
63205SOL    HW291513   1.012   0.312   2.804
63206SOL     OW91514   9.336  14.422   0.559
63206SOL    HW191515   9.329  14.517   0.563
63206SOL    HW291516   9.334  14.402   0.465
63207SOL     OW91517   8.150  13.536   7.660
63207SOL    HW191518   8.157  13.451   7.703
63207SOL    HW291519   8.127  13.597   7.730
63208SOL     OW91520  11.225  13.009   9.856
63208SOL    HW191521  11.183  12.988   9.773
63208SOL    HW291522  11.301  12.951   9.860
63209SOL     OW91523   8.943   0.527  12.799
63209SOL    HW191524   8.957   0.457  12.864
63209SOL    HW291525   8.866   0.574  12.830
63210SOL     OW91526   9.515  13.693   4.413
63210SOL    HW191527   9.601  13.720   4.446
63210SOL    HW291528   9.517  13.712   4.320
63211SOL     OW91529  12.456   7.123   8.573
63211SOL    HW191530  12.431   7.160   8.658
63211SOL    HW291531  12.457   7.029   8.588
63212SOL     OW91532   3.400   8.189   4.810
63212SOL    HW191533   3.361   8.175   4.896
63212SOL    HW291534   3.495   8.184   4.825
63213SOL     OW91535  11.243   2.559  11.523
63213SOL    HW191536  11.325   2.512  11.507
63213SOL    HW291537  11.245   2.578  11.617
63214SOL     OW91538  13.944   0.025   0.737
63214SOL    HW191539  13.917  14.819   0.714
63214SOL    HW291540  13.937   0.074   0.656
63215SOL     OW91541   9.346   9.697  12.575
63215SOL    HW191542   9.334   9.604  12.553
63215SOL    HW291543   9.379   9.736  12.494
63216SOL     OW91544   0.238   4.639   3.458
63216SOL    HW191545   0.325   4.641   3.419
63216SOL    HW291546   0.220   4.731   3.480
63217SOL     OW91547   4.570   3.906  14.789
63217SOL    HW191548   4.592   3.996  14.815
63217SOL    HW291549   4.588   3.904  14.695
63218SOL     OW91550   1.013  11.014  10.849
63218SOL    HW191551   1.057  11.093  10.881
63218SOL    HW291552   0.922  11.026  10.875
63219SOL     OW91553   0.394   0.665   6.915
63219SOL    HW191554   0.323   0.664   6.851
63219SOL    HW291555   0.399   0.574   6.946
63220SOL     OW91556  11.655   5.072   9.500
63220SOL    HW191557  11.670   5.099   9.590
63220SOL    HW291558  11.590   5.003   9.506
63221SOL     OW91559   5.804   0.578  13.518
63221SOL    HW191560   5.898   0.594  13.516
63221SOL    HW291561   5.782   0.553  13.428
63222SOL     OW91562  14.158   4.156   1.529
63222SOL    HW191563  14.139   4.243   1.495
63222SOL    HW291564  14.079   4.131   1.577
63223SOL     OW91565   5.283  12.499   7.147
63223SOL    HW191566   5.362  12.447   7.140
63223SOL    HW291567   5.285  12.557   7.071
63224SOL     OW91568   5.028   7.235   6.550
63224SOL    HW191569   4.947   7.278   6.523
63224SOL    HW291570   5.083   7.234   6.472
63225SOL     OW91571   2.009   0.358   5.635
63225SOL    HW191572   1.943   0.298   5.602
63225SOL    HW291573   1.982   0.377   5.725
63226SOL     OW91574   7.598   5.796   7.175
63226SOL    HW191575   7.694   5.802   7.178
63226SOL    HW291576   7.568   5.870   7.228
63227SOL     OW91577   0.397   4.480  12.206
63227SOL    HW191578   0.389   4.498  12.113
63227SOL    HW291579   0.481   4.518  12.231
63228SOL     OW91580   7.922  13.023   0.725
63228SOL    HW191581   7.963  12.997   0.642
63228SOL    HW291582   7.990  13.011   0.791
63229SOL     OW91583  13.967   9.963   5.365
63229SOL    HW191584  14.012  10.047   5.375
63229SOL    HW291585  14.024   9.912   5.307
63230SOL     OW91586   4.573   8.526   9.366
63230SOL    HW191587   4.594   8.617   9.346
63230SOL    HW291588   4.611   8.512   9.453
63231SOL     OW91589   2.182   0.598   8.852
63231SOL    HW191590   2.200   0.677   8.801
63231SOL    HW291591   2.267   0.571   8.885
63232SOL     OW91592  10.701   2.375   7.578
63232SOL    HW191593  10.751   2.426   7.641
63232SOL    HW291594  10.712   2.284   7.606
63233SOL     OW91595  12.862   6.502  13.701
63233SOL    HW191596  12.930   6.441  13.729
63233SOL    HW291597  12.781   6.453  13.707
63234SOL     OW91598  12.495   8.680   6.070
63234SOL    HW191599  12.428   8.639   6.125
63234SOL    HW291600  12.539   8.606   6.027
63235SOL     OW91601   7.235   5.561   5.862
63235SOL    HW191602   7.149   5.588   5.829
63235SOL    HW291603   7.296   5.584   5.792
63236SOL     OW91604   6.943   5.952   4.278
63236SOL    HW191605   6.944   6.040   4.316
63236SOL    HW291606   6.867   5.952   4.219
63237SOL     OW91607   4.182  12.845   1.311
63237SOL    HW191608   4.188  12.786   1.236
63237SOL    HW291609   4.092  12.837   1.341
63238SOL     OW91610  11.467   4.813  13.531
63238SOL    HW191611  11.520   4.792  13.454
63238SOL    HW291612  11.381   4.775  13.513
63239SOL     OW91613   3.332   1.334  14.459
63239SOL    HW191614   3.383   1.412  14.481
63239SOL    HW291615   3.335   1.329  14.364
63240SOL     OW91616   6.061  11.567   5.945
63240SOL    HW191617   6.055  11.503   6.015
63240SOL    HW291618   5.970  11.589   5.925
63241SOL     OW91619  10.681  10.690   8.072
63241SOL    HW191620  10.699  10.599   8.095
63241SOL    HW291621  10.767  10.733   8.073
63242SOL     OW91622  14.630  11.134   2.688
63242SOL    HW191623  14.626  11.051   2.642
63242SOL    HW291624  14.681  11.191   2.631
63243SOL     OW91625  13.148   0.218   1.438
63243SOL    HW191626  13.184   0.223   1.349
63243SOL    HW291627  13.053   0.225   1.427
63244SOL     OW91628  13.338   3.239   8.899
63244SOL    HW191629  13.315   3.223   8.807
63244SOL    HW291630  13.254   3.234   8.945
63245SOL     OW91631   8.027   5.188  10.029
63245SOL    HW191632   8.103   5.245  10.027
63245SOL    HW291633   7.955   5.242   9.994
63246SOL     OW91634  14.260   9.915  10.615
63246SOL    HW191635  14.234   9.885  10.702
63246SOL    HW291636  14.291  10.004  10.629
63247SOL     OW91637  14.036  12.918  12.657
63247SOL    HW191638  14.047  12.988  12.722
63247SOL    HW291639  13.943  12.898  12.658
63248SOL     OW91640   3.736   5.514  14.191
63248SOL    HW191641   3.699   5.603  14.186
63248SOL    HW291642   3.670   5.459  14.149
63249SOL     OW91643   1.414   8.015   6.878
63249SOL    HW191644   1.407   8.110   6.882
63249SOL    HW291645   1.370   7.991   6.796
63250SOL     OW91646  11.005   8.605   8.210
63250SOL    HW191647  11.080   8.553   8.237
63250SOL    HW291648  10.941   8.541   8.179
63251SOL     OW91649  12.245  14.800  11.323
63251SOL    HW191650  12.203  14.795  11.237
63251SOL    HW291651  12.241   0.010  11.347
63252SOL     OW91652   9.723   2.165   3.904
63252SOL    HW191653   9.657   2.095   3.900
63252SOL    HW291654   9.673   2.244   3.927
63253SOL     OW91655   7.041   1.350   1.984
63253SOL    HW191656   7.101   1.275   1.976
63253SOL    HW291657   6.956   1.316   1.957
63254SOL     OW91658  13.958  13.190  10.250
63254SOL    HW191659  13.954  13.286  10.248
63254SOL    HW291660  13.868  13.162  10.264
63255SOL     OW91661   7.765   5.316   6.354
63255SOL    HW191662   7.837   5.319   6.417
63255SOL    HW291663   7.707   5.248   6.387
63256SOL     OW91664   9.720   5.271   6.124
63256SOL    HW191665   9.803   5.318   6.131
63256SOL    HW291666   9.734   5.189   6.171
63257SOL     OW91667  12.894   5.500   5.514
63257SOL    HW191668  12.810   5.458   5.534
63257SOL    HW291669  12.951   5.428   5.489
63258SOL     OW91670  10.072   0.262  11.028
63258SOL    HW191671  10.054   0.247  10.935
63258SOL    HW291672  10.157   0.220  11.043
63259SOL     OW91673   3.634   8.843  13.472
63259SOL    HW191674   3.715   8.847  13.421
63259SOL    HW291675   3.657   8.794  13.551
63260SOL     OW91676  12.852   9.450   4.223
63260SOL    HW191677  12.764   9.472   4.192
63260SOL    HW291678  12.910   9.511   4.176
63261SOL     OW91679   6.275   8.900   3.034
63261SOL    HW191680   6.283   8.810   3.066
63261SOL    HW291681   6.346   8.908   2.970
63262SOL     OW91682   2.782   2.410   0.927
63262SOL    HW191683   2.695   2.434   0.894
63262SOL    HW291684   2.812   2.487   0.976
63263SOL     OW91685   8.601   4.378   2.275
63263SOL    HW191686   8.572   4.393   2.365
63263SOL    HW291687   8.682   4.327   2.284
63264SOL     OW91688  12.894   6.365   3.159
63264SOL    HW191689  12.910   6.411   3.077
63264SOL    HW291690  12.798   6.357   3.164
63265SOL     OW91691   2.584   4.226   5.526
63265SOL    HW191692   2.662   4.200   5.576
63265SOL    HW291693   2.612   4.226   5.435
63266SOL     OW91694  11.774  14.446  14.414
63266SOL    HW191695  11.720  14.525  14.425
63266SOL    HW291696  11.728  14.379  14.465
63267SOL     OW91697  12.006  13.965  11.729
63267SOL    HW191698  11.944  13.928  11.666
63267SOL    HW291699  11.956  14.032  11.775
63268SOL     OW91700   3.810  11.578   0.442
63268SOL    HW191701   3.782  11.498   0.397
63268SOL    HW291702   3.828  11.640   0.372
63269SOL     OW91703   3.674  10.580  14.380
63269SOL    HW191704   3.697  10.583  14.288
63269SOL    HW291705   3.755  10.557  14.425
63270SOL     OW91706  14.287   8.402   2.886
63270SOL    HW191707  14.214   8.413   2.947
63270SOL    HW291708  14.350   8.470   2.910
63271SOL     OW91709   0.291   3.266  12.470
63271SOL    HW191710   0.299   3.310  12.385
63271SOL    HW291711   0.356   3.310  12.526
63272SOL     OW91712   8.292   5.699  12.081
63272SOL    HW191713   8.262   5.724  12.169
63272SOL    HW291714   8.233   5.629  12.054
63273SOL     OW91715   3.031   3.709   2.627
63273SOL    HW191716   2.963   3.727   2.562
63273SOL    HW291717   3.076   3.792   2.638
63274SOL     OW91718   0.343   1.859  12.075
63274SOL    HW191719   0.313   1.883  11.987
63274SOL    HW291720   0.271   1.805  12.110
63275SOL     OW91721  10.387   6.330   2.912
63275SOL    HW191722  10.467   6.331   2.965
63275SOL    HW291723  10.317   6.312   2.976
63276SOL     OW91724   6.735   1.781   2.586
63276SOL    HW191725   6.666   1.807   2.525
63276SOL    HW291726   6.713   1.691   2.610
63277SOL     OW91727   2.314   6.247   1.431
63277SOL    HW191728   2.346   6.296   1.355
63277SOL    HW291729   2.366   6.280   1.504
63278SOL     OW91730  12.017   0.078   9.018
63278SOL    HW191731  12.018   0.066   8.923
63278SOL    HW291732  11.940   0.133   9.035
63279SOL     OW91733  13.502  14.520   6.672
63279SOL    HW191734  13.568  14.451   6.686
63279SOL    HW291735  13.462  14.532   6.758
63280SOL     OW91736   8.091   1.620  11.828
63280SOL    HW191737   8.049   1.536  11.808
63280SOL    HW291738   8.018   1.678  11.851
63281SOL     OW91739   6.987   1.808   2.845
63281SOL    HW191740   7.024   1.858   2.773
63281SOL    HW291741   6.919   1.864   2.882
63282SOL     OW91742  10.107  11.895  14.029
63282SOL    HW191743  10.131  11.870  14.118
63282SOL    HW291744  10.044  11.828  14.002
63283SOL     OW91745   0.045   6.088   5.850
63283SOL    HW191746  14.868   6.016   5.830
63283SOL    HW291747  14.872   6.166   5.842
63284SOL     OW91748   0.403   4.656   3.709
63284SOL    HW191749   0.354   4.663   3.791
63284SOL    HW291750   0.339   4.630   3.644
63285SOL     OW91751   0.872   2.003  13.829
63285SOL    HW191752   0.957   2.023  13.789
63285SOL    HW291753   0.870   2.057  13.908
63286SOL     OW91754   0.624  12.806   4.886
63286SOL    HW191755   0.598  12.831   4.975
63286SOL    HW291756   0.710  12.845   4.874
63287SOL     OW91757  13.212   2.537   4.709
63287SOL    HW191758  13.287   2.596   4.706
63287SOL    HW291759  13.246   2.454   4.675
63288SOL     OW91760   5.058  12.669  14.187
63288SOL    HW191761   5.067  12.763  14.176
63288SOL    HW291762   5.109  12.649  14.266
63289SOL     OW91763  12.374   9.609   5.086
63289SOL    HW191764  12.445   9.605   5.150
63289SOL    HW291765  12.401   9.677   5.025
63290SOL     OW91766   3.970   8.077   8.688
63290SOL    HW191767   3.976   8.032   8.772
63290SOL    HW291768   3.887   8.125   8.692
63291SOL     OW91769   0.327  12.877   4.148
63291SOL    HW191770   0.307  12.811   4.082
63291SOL    HW291771   0.314  12.833   4.232
63292SOL     OW91772   7.507  12.903   4.077
63292SOL    HW191773   7.487  12.812   4.055
63292SOL    HW291774   7.438  12.927   4.139
63293SOL     OW91775   1.631   1.152   3.136
63293SOL    HW191776   1.673   1.202   3.066
63293SOL    HW291777   1.552   1.116   3.095
63294SOL     OW91778  14.661   5.459  12.153
63294SOL    HW191779  14.594   5.490  12.092
63294SOL    HW291780  14.652   5.364  12.152
63295SOL     OW91781  10.288   2.130   4.495
63295SOL    HW191782  10.227   2.096   4.560
63295SOL    HW291783  10.275   2.075   4.418
63296SOL     OW91784   0.125  12.671   6.488
63296SOL    HW191785   0.120  12.758   6.526
63296SOL    HW291786   0.039  12.658   6.447
63297SOL     OW91787  10.550   4.372   8.005
63297SOL    HW191788  10.612   4.376   8.078
63297SOL    HW291789  10.473   4.418   8.037
63298SOL     OW91790   0.889   3.437  12.649
63298SOL    HW191791   0.855   3.526  12.658
63298SOL    HW291792   0.813   3.385  12.622
63299SOL     OW91793  10.388   9.865  14.433
63299SOL    HW191794  10.310   9.882  14.380
63299SOL    HW291795  10.430   9.951  14.443
63300SOL     OW91796   6.540   0.573  12.770
63300SOL    HW191797   6.537   0.658  12.727
63300SOL    HW291798   6.613   0.578  12.831
63301SOL     OW91799   3.733  14.148  13.630
63301SOL    HW191800   3.738  14.072  13.572
63301SOL    HW291801   3.752  14.114  13.717
63302SOL     OW91802  11.554   8.302   5.037
63302SOL    HW191803  11.562   8.368   5.106
63302SOL    HW291804  11.603   8.227   5.070
63303SOL     OW91805   7.633  13.663  13.795
63303SOL    HW191806   7.698  13.593  13.794
63303SOL    HW291807   7.599  13.666  13.706
63304SOL     OW91808  10.365   9.956  12.418
63304SOL    HW191809  10.272   9.968  12.399
63304SOL    HW291810  10.405   9.942  12.333
63305SOL     OW91811  12.455   1.723   5.869
63305SOL    HW191812  12.526   1.754   5.925
63305SOL    HW291813  12.481   1.634   5.844
63306SOL     OW91814   5.215  11.171   5.683
63306SOL    HW191815   5.307  11.166   5.654
63306SOL    HW291816   5.167  11.197   5.605
63307SOL     OW91817   0.578  12.844  11.124
63307SOL    HW191818   0.669  12.815  11.119
63307SOL    HW291819   0.528  12.763  11.140
63308SOL     OW91820   1.021   5.681   7.574
63308SOL    HW191821   1.010   5.718   7.486
63308SOL    HW291822   1.039   5.588   7.560
63309SOL     OW91823   0.014   7.362  13.040
63309SOL    HW191824   0.046   7.318  12.962
63309SOL    HW291825   0.091   7.371  13.097
63310SOL     OW91826   0.564   8.446   1.660
63310SOL    HW191827   0.552   8.427   1.567
63310SOL    HW291828   0.658   8.436   1.674
63311SOL     OW91829   0.978  10.196   8.181
63311SOL    HW191830   1.028  10.179   8.260
63311SOL    HW291831   0.981  10.291   8.170
63312SOL     OW91832   0.668   2.561   0.947
63312SOL    HW191833   0.758   2.567   0.914
63312SOL    HW291834   0.615   2.551   0.868
63313SOL     OW91835  14.443   0.035   0.642
63313SOL    HW191836  14.461  14.824   0.650
63313SOL    HW291837  14.528   0.077   0.659
63314SOL     OW91838   8.631  10.530  10.455
63314SOL    HW191839   8.535  10.531  10.458
63314SOL    HW291840   8.659  10.565  10.539
63315SOL     OW91841   4.445   3.830   3.089
63315SOL    HW191842   4.411   3.805   3.003
63315SOL    HW291843   4.418   3.921   3.100
63316SOL     OW91844   3.304   2.141   2.485
63316SOL    HW191845   3.216   2.112   2.461
63316SOL    HW291846   3.301   2.236   2.475
63317SOL     OW91847   5.807  11.540   0.384
63317SOL    HW191848   5.888  11.552   0.335
63317SOL    HW291849   5.759  11.472   0.336
63318SOL     OW91850   2.148  10.650   6.977
63318SOL    HW191851   2.228  10.598   6.964
63318SOL    HW291852   2.106  10.609   7.053
63319SOL     OW91853  13.445   0.835   7.781
63319SOL    HW191854  13.359   0.864   7.812
63319SOL    HW291855  13.471   0.768   7.844
63320SOL     OW91856   8.659  14.033   3.660
63320SOL    HW191857   8.722  13.962   3.677
63320SOL    HW291858   8.669  14.092   3.734
63321SOL     OW91859   0.972   9.134   5.686
63321SOL    HW191860   0.877   9.142   5.687
63321SOL    HW291861   0.999   9.143   5.777
63322SOL     OW91862   5.474   6.820   7.068
63322SOL    HW191863   5.413   6.835   7.140
63322SOL    HW291864   5.558   6.853   7.100
63323SOL     OW91865   0.369   9.765   1.485
63323SOL    HW191866   0.360   9.755   1.391
63323SOL    HW291867   0.287   9.730   1.521
63324SOL     OW91868   4.335   2.144   3.016
63324SOL    HW191869   4.324   2.180   3.105
63324SOL    HW291870   4.369   2.218   2.965
63325SOL     OW91871   9.534   4.148  11.643
63325SOL    HW191872   9.582   4.075  11.603
63325SOL    HW291873   9.518   4.208  11.570
63326SOL     OW91874   2.578   5.846  13.652
63326SOL    HW191875   2.640   5.803  13.593
63326SOL    HW291876   2.553   5.777  13.714
63327SOL     OW91877  14.234   8.051   1.643
63327SOL    HW191878  14.312   8.105   1.630
63327SOL    HW291879  14.175   8.107   1.695
63328SOL     OW91880   1.920   9.882   3.276
63328SOL    HW191881   1.881   9.906   3.360
63328SOL    HW291882   2.012   9.867   3.295
63329SOL     OW91883  13.995   6.559  13.666
63329SOL    HW191884  14.090   6.561  13.668
63329SOL    HW291885  13.971   6.630  13.606
63330SOL     OW91886   6.843  13.498   9.982
63330SOL    HW191887   6.914  13.486   9.920
63330SOL    HW291888   6.783  13.560   9.940
63331SOL     OW91889   5.284   5.879  14.712
63331SOL    HW191890   5.299   5.821  14.787
63331SOL    HW291891   5.372   5.907  14.686
63332SOL     OW91892   1.331  12.228   3.145
63332SOL    HW191893   1.252  12.201   3.191
63332SOL    HW291894   1.345  12.161   3.078
63333SOL     OW91895   9.887   4.777   2.277
63333SOL    HW191896   9.924   4.810   2.195
63333SOL    HW291897   9.961   4.740   2.323
63334SOL     OW91898  12.418  13.365   7.501
63334SOL    HW191899  12.473  13.440   7.481
63334SOL    HW291900  12.375  13.344   7.419
63335SOL     OW91901  13.869   9.344   1.542
63335SOL    HW191902  13.820   9.271   1.581
63335SOL    HW291903  13.945   9.354   1.599
63336SOL     OW91904   9.481   3.168   0.143
63336SOL    HW191905   9.409   3.110   0.169
63336SOL    HW291906   9.537   3.112   0.089
63337SOL     OW91907  14.201  12.273   3.182
63337SOL    HW191908  14.230  12.252   3.271
63337SOL    HW291909  14.279  12.304   3.137
63338SOL     OW91910  10.830   9.470  12.558
63338SOL    HW191911  10.763   9.517  12.608
63338SOL    HW291912  10.870   9.411  12.622
63339SOL     OW91913   0.486   0.533  13.997
63339SOL    HW191914   0.558   0.474  14.020
63339SOL    HW291915   0.489   0.539  13.902
63340SOL     OW91916   4.783   1.338   9.049
63340SOL    HW191917   4.693   1.362   9.029
63340SOL    HW291918   4.833   1.364   8.972
63341SOL     OW91919   4.411   0.575  11.350
63341SOL    HW191920   4.464   0.578  11.270
63341SOL    HW291921   4.460   0.628  11.413
63342SOL     OW91922  10.531  13.157   4.086
63342SOL    HW191923  10.588  13.081   4.077
63342SOL    HW291924  10.447  13.121   4.116
63343SOL     OW91925   3.723   6.176   4.179
63343SOL    HW191926   3.707   6.233   4.104
63343SOL    HW291927   3.712   6.233   4.255
63344SOL     OW91928  14.461   1.839   0.523
63344SOL    HW191929  14.406   1.770   0.560
63344SOL    HW291930  14.549   1.820   0.555
63345SOL     OW91931  13.935   1.033   4.069
63345SOL    HW191932  13.883   1.102   4.028
63345SOL    HW291933  14.025   1.053   4.043
63346SOL     OW91934   4.677   9.739   0.442
63346SOL    HW191935   4.656   9.750   0.349
63346SOL    HW291936   4.689   9.828   0.475
63347SOL     OW91937  13.991   7.821   0.657
63347SOL    HW191938  14.057   7.820   0.587
63347SOL    HW291939  14.043   7.815   0.737
63348SOL     OW91940   3.901   8.627   5.479
63348SOL    HW191941   3.929   8.653   5.567
63348SOL    HW291942   3.968   8.662   5.421
63349SOL     OW91943   6.201  12.001   3.588
63349SOL    HW191944   6.268  11.961   3.532
63349SOL    HW291945   6.141  11.929   3.609
63350SOL     OW91946   1.782   7.782  11.568
63350SOL    HW191947   1.826   7.862  11.541
63350SOL    HW291948   1.736   7.752  11.490
63351SOL     OW91949   6.883   5.363   9.607
63351SOL    HW191950   6.883   5.267   9.618
63351SOL    HW291951   6.889   5.396   9.697
63352SOL     OW91952   1.185  10.453   7.483
63352SOL    HW191953   1.126  10.390   7.525
63352SOL    HW291954   1.214  10.509   7.555
63353SOL     OW91955   5.032   2.960  13.809
63353SOL    HW191956   5.064   2.947  13.898
63353SOL    HW291957   4.965   2.892  13.797
63354SOL     OW91958  11.113   6.743  14.735
63354SOL    HW191959  11.201   6.781  14.723
63354SOL    HW291960  11.060   6.816  14.767
63355SOL     OW91961   9.070   9.751   7.298
63355SOL    HW191962   9.155   9.719   7.328
63355SOL    HW291963   9.053   9.829   7.351
63356SOL     OW91964   2.651   4.019   0.521
63356SOL    HW191965   2.678   3.927   0.527
63356SOL    HW291966   2.558   4.018   0.542
63357SOL     OW91967  12.348   4.205   3.717
63357SOL    HW191968  12.401   4.257   3.656
63357SOL    HW291969  12.259   4.235   3.702
63358SOL     OW91970  14.639   4.189   1.731
63358SOL    HW191971  14.671   4.106   1.695
63358SOL    HW291972  14.566   4.164   1.788
63359SOL     OW91973   5.563   2.540   8.004
63359SOL    HW191974   5.553   2.449   7.975
63359SOL    HW291975   5.590   2.587   7.925
63360SOL     OW91976   9.003  14.675   2.596
63360SOL    HW191977   8.964  14.698   2.681
63360SOL    HW291978   9.091  14.644   2.617
63361SOL     OW91979  14.592   8.700   9.431
63361SOL    HW191980  14.515   8.649   9.408
63361SOL    HW291981  14.666   8.643   9.410
63362SOL     OW91982  11.218   0.997   3.293
63362SOL    HW191983  11.212   0.906   3.322
63362SOL    HW291984  11.304   1.026   3.322
63363SOL     OW91985  13.399   2.424   6.139
63363SOL    HW191986  13.333   2.383   6.083
63363SOL    HW291987  13.478   2.425   6.085
63364SOL     OW91988   0.844   4.449   1.288
63364SOL    HW191989   0.811   4.461   1.199
63364SOL    HW291990   0.939   4.448   1.279
63365SOL     OW91991   8.564  13.674  11.413
63365SOL    HW191992   8.540  13.610  11.480
63365SOL    HW291993   8.504  13.656  11.340
63366SOL     OW91994   8.695   0.081   6.855
63366SOL    HW191995   8.611   0.127   6.848
63366SOL    HW291996   8.736   0.092   6.769
63367SOL     OW91997   5.146  10.849   4.677
63367SOL    HW191998   5.202  10.780   4.642
63367SOL    HW291999   5.196  10.930   4.664
63368SOL     OW92000  13.095  12.124   1.778
63368SOL    HW192001  13.026  12.119   1.712
63368SOL    HW292002  13.097  12.037   1.818
63369SOL     OW92003   2.625   3.257  10.845
63369SOL    HW192004   2.673   3.288  10.922
63369SOL    HW292005   2.540   3.301  10.850
63370SOL     OW92006  10.866   0.503  10.248
63370SOL    HW192007  10.834   0.580  10.295
63370SOL    HW292008  10.961   0.504  10.260
63371SOL     OW92009   5.454   9.109   6.670
63371SOL    HW192010   5.459   9.178   6.736
63371SOL    HW292011   5.487   9.149   6.590
63372SOL     OW92012  10.120   4.143  10.147
63372SOL    HW192013  10.049   4.195  10.186
63372SOL    HW292014  10.175   4.207  10.103
63373SOL     OW92015   5.887  14.439   6.150
63373SOL    HW192016   5.886  14.387   6.231
63373SOL    HW292017   5.822  14.396   6.094
63374SOL     OW92018  11.476   2.725   3.049
63374SOL    HW192019  11.437   2.803   3.088
63374SOL    HW292020  11.550   2.705   3.106
63375SOL     OW92021   3.768   8.473  12.148
63375SOL    HW192022   3.850   8.521  12.157
63375SOL    HW292023   3.719   8.522  12.081
63376SOL     OW92024   1.875   4.578   8.546
63376SOL    HW192025   1.821   4.657   8.555
63376SOL    HW292026   1.822   4.519   8.492
63377SOL     OW92027   8.148  13.168   9.412
63377SOL    HW192028   8.236  13.205   9.420
63377SOL    HW292029   8.152  13.114   9.333
63378SOL     OW92030   7.906  13.688   1.661
63378SOL    HW192031   7.834  13.732   1.615
63378SOL    HW292032   7.967  13.663   1.591
63379SOL     OW92033   4.040   7.642   9.095
63379SOL    HW192034   4.091   7.714   9.056
63379SOL    HW292035   4.036   7.665   9.188
63380SOL     OW92036   6.399   4.657   8.711
63380SOL    HW192037   6.424   4.654   8.619
63380SOL    HW292038   6.418   4.747   8.738
63381SOL     OW92039   2.810   6.697   8.384
63381SOL    HW192040   2.895   6.703   8.428
63381SOL    HW292041   2.820   6.753   8.307
63382SOL     OW92042   2.305  10.042   4.426
63382SOL    HW192043   2.396  10.055   4.400
63382SOL    HW292044   2.255  10.103   4.371
63383SOL     OW92045   7.551   8.611  13.224
63383SOL    HW192046   7.523   8.550  13.156
63383SOL    HW292047   7.571   8.692  13.177
63384SOL     OW92048   5.435   5.206   8.098
63384SOL    HW192049   5.386   5.287   8.094
63384SOL    HW292050   5.517   5.229   8.143
63385SOL     OW92051  12.763   4.490  12.097
63385SOL    HW192052  12.836   4.504  12.035
63385SOL    HW292053  12.748   4.396  12.094
63386SOL     OW92054  11.288   5.606   5.330
63386SOL    HW192055  11.216   5.606   5.267
63386SOL    HW292056  11.363   5.575   5.279
63387SOL     OW92057   8.102   5.340   3.125
63387SOL    HW192058   8.067   5.255   3.152
63387SOL    HW292059   8.092   5.342   3.030
63388SOL     OW92060   6.468   3.302   7.924
63388SOL    HW192061   6.511   3.219   7.902
63388SOL    HW292062   6.387   3.301   7.873
63389SOL     OW92063   9.913   9.460   3.855
63389SOL    HW192064   9.911   9.369   3.825
63389SOL    HW292065   9.848   9.463   3.925
63390SOL     OW92066  11.703  11.418   1.309
63390SOL    HW192067  11.698  11.513   1.297
63390SOL    HW292068  11.639  11.382   1.247
63391SOL     OW92069  11.127  10.239   0.964
63391SOL    HW192070  11.123  10.299   1.038
63391SOL    HW292071  11.197  10.274   0.909
63392SOL     OW92072   4.782   9.867  10.040
63392SOL    HW192073   4.751   9.957  10.032
63392SOL    HW292074   4.874   9.871  10.016
63393SOL     OW92075   1.221   6.213   3.050
63393SOL    HW192076   1.237   6.171   2.966
63393SOL    HW292077   1.286   6.283   3.055
63394SOL     OW92078   6.476   5.012  12.697
63394SOL    HW192079   6.469   4.988  12.605
63394SOL    HW292080   6.388   5.039  12.722
63395SOL     OW92081  10.657   8.280  10.558
63395SOL    HW192082  10.737   8.228  10.560
63395SOL    HW292083  10.655   8.326  10.642
63396SOL     OW92084   4.793  12.389   0.320
63396SOL    HW192085   4.836  12.474   0.330
63396SOL    HW292086   4.859  12.325   0.344
63397SOL     OW92087   6.428   5.005   4.085
63397SOL    HW192088   6.425   5.101   4.078
63397SOL    HW292089   6.388   4.974   4.004
63398SOL     OW92090   1.477   2.585   1.849
63398SOL    HW192091   1.439   2.497   1.850
63398SOL    HW292092   1.448   2.624   1.931
63399SOL     OW92093   3.854   1.782  10.995
63399SOL    HW192094   3.865   1.827  11.078
63399SOL    HW292095   3.866   1.849  10.929
63400SOL     OW92096   4.045   6.544   0.821
63400SOL    HW192097   4.122   6.558   0.766
63400SOL    HW292098   4.007   6.631   0.832
63401SOL     OW92099   5.514   3.672  11.969
63401SOL    HW192100   5.588   3.709  12.018
63401SOL    HW292101   5.447   3.739  11.972
63402SOL     OW92102   6.617  12.860   3.348
63402SOL    HW192103   6.540  12.815   3.312
63402SOL    HW292104   6.680  12.790   3.364
63403SOL     OW92105   3.452  13.917  10.873
63403SOL    HW192106   3.433  13.861  10.948
63403SOL    HW292107   3.526  13.875  10.829
63404SOL     OW92108  14.200  14.182  11.974
63404SOL    HW192109  14.158  14.116  11.919
63404SOL    HW292110  14.138  14.254  11.977
63405SOL     OW92111   1.553   4.570   9.747
63405SOL    HW192112   1.635   4.530   9.776
63405SOL    HW292113   1.506   4.500   9.702
63406SOL     OW92114   5.868   6.205   1.395
63406SOL    HW192115   5.914   6.122   1.383
63406SOL    HW292116   5.776   6.180   1.408
63407SOL     OW92117   1.974   8.053   1.762
63407SOL    HW192118   2.027   8.119   1.716
63407SOL    HW292119   2.008   8.054   1.852
63408SOL     OW92120   3.610   1.901   9.763
63408SOL    HW192121   3.518   1.906   9.736
63408SOL    HW292122   3.658   1.878   9.684
63409SOL     OW92123   0.238  13.114   3.727
63409SOL    HW192124   0.242  13.209   3.735
63409SOL    HW292125   0.238  13.097   3.633
63410SOL     OW92126   1.366  12.397  10.193
63410SOL    HW192127   1.429  12.468  10.183
63410SOL    HW292128   1.358  12.387  10.288
63411SOL     OW92129   4.110   0.386   8.814
63411SOL    HW192130   4.017   0.379   8.792
63411SOL    HW292131   4.112   0.383   8.910
63412SOL     OW92132   2.230   3.346   9.755
63412SOL    HW192133   2.238   3.342   9.850
63412SOL    HW292134   2.206   3.436   9.736
63413SOL     OW92135   9.563  11.999  10.461
63413SOL    HW192136   9.512  12.016  10.382
63413SOL    HW292137   9.520  12.050  10.529
63414SOL     OW92138  14.770   5.014   2.357
63414SOL    HW192139  14.714   4.949   2.313
63414SOL    HW292140  14.821   5.054   2.286
63415SOL     OW92141  13.150  14.447  13.418
63415SOL    HW192142  13.135  14.403  13.334
63415SOL    HW292143  13.156  14.540  13.396
63416SOL     OW92144   4.134   3.910   1.148
63416SOL    HW192145   4.058   3.872   1.193
63416SOL    HW292146   4.104   3.923   1.058
63417SOL     OW92147  13.842   3.978  10.690
63417SOL    HW192148  13.929   3.940  10.688
63417SOL    HW292149  13.853   4.064  10.732
63418SOL     OW92150  11.399   6.347  14.676
63418SOL    HW192151  11.485   6.385  14.659
63418SOL    HW292152  11.416   6.253  14.686
63419SOL     OW92153   9.591  12.449  14.223
63419SOL    HW192154   9.550  12.473  14.306
63419SOL    HW292155   9.525  12.469  14.157
63420SOL     OW92156   7.241   3.823   5.949
63420SOL    HW192157   7.230   3.759   5.878
63420SOL    HW292158   7.293   3.776   6.015
63421SOL     OW92159   8.943   0.566  11.148
63421SOL    HW192160   8.940   0.474  11.122
63421SOL    HW292161   9.008   0.605  11.090
63422SOL     OW92162   7.716   0.232   9.718
63422SOL    HW192163   7.785   0.280   9.673
63422SOL    HW292164   7.692   0.162   9.658
63423SOL     OW92165   1.013  12.567   8.951
63423SOL    HW192166   0.970  12.492   8.993
63423SOL    HW292167   1.013  12.545   8.858
63424SOL     OW92168  11.612  10.679   2.370
63424SOL    HW192169  11.520  10.664   2.390
63424SOL    HW292170  11.627  10.631   2.289
63425SOL     OW92171   4.884  12.387  14.442
63425SOL    HW192172   4.945  12.346  14.381
63425SOL    HW292173   4.870  12.321  14.510
63426SOL     OW92174   7.004   7.133  12.502
63426SOL    HW192175   6.924   7.182  12.522
63426SOL    HW292176   6.980   7.078  12.427
63427SOL     OW92177   8.291   1.087   2.000
63427SOL    HW192178   8.262   1.096   2.091
63427SOL    HW292179   8.367   1.030   2.005
63428SOL     OW92180   7.437  13.469   0.129
63428SOL    HW192181   7.416  13.376   0.131
63428SOL    HW292182   7.455  13.492   0.220
63429SOL     OW92183   1.466  11.881   6.054
63429SOL    HW192184   1.437  11.955   6.000
63429SOL    HW292185   1.476  11.809   5.992
63430SOL     OW92186  13.605  11.272  12.410
63430SOL    HW192187  13.617  11.367  12.409
63430SOL    HW292188  13.527  11.258  12.355
63431SOL     OW92189   8.467   0.606   6.360
63431SOL    HW192190   8.460   0.604   6.264
63431SOL    HW292191   8.409   0.677   6.387
63432SOL     OW92192   6.456  11.005   7.920
63432SOL    HW192193   6.449  11.069   7.849
63432SOL    HW292194   6.366  10.995   7.952
63433SOL     OW92195   6.204   5.415  11.143
63433SOL    HW192196   6.124   5.419  11.195
63433SOL    HW292197   6.183   5.461  11.062
63434SOL     OW92198   2.084   5.117   7.912
63434SOL    HW192199   2.172   5.144   7.885
63434SOL    HW292200   2.047   5.075   7.834
63435SOL     OW92201   0.102  14.030   4.508
63435SOL    HW192202   0.058  13.997   4.430
63435SOL    HW292203   0.039  14.088   4.549
63436SOL     OW92204  14.256   8.247   1.225
63436SOL    HW192205  14.246   8.245   1.320
63436SOL    HW292206  14.288   8.336   1.207
63437SOL     OW92207  14.231   3.978   6.480
63437SOL    HW192208  14.236   3.983   6.576
63437SOL    HW292209  14.168   4.046   6.456
63438SOL     OW92210   8.862   8.741   4.684
63438SOL    HW192211   8.825   8.671   4.630
63438SOL    HW292212   8.887   8.698   4.766
63439SOL     OW92213   8.591  12.510   4.503
63439SOL    HW192214   8.631  12.593   4.529
63439SOL    HW292215   8.654  12.443   4.529
63440SOL     OW92216  14.119   7.301   9.135
63440SOL    HW192217  14.057   7.333   9.069
63440SOL    HW292218  14.068   7.239   9.187
63441SOL     OW92219   2.139   2.836   3.914
63441SOL    HW192220   2.049   2.832   3.945
63441SOL    HW292221   2.136   2.796   3.827
63442SOL     OW92222   7.504   4.745  12.208
63442SOL    HW192223   7.482   4.663  12.164
63442SOL    HW292224   7.536   4.719  12.294
63443SOL     OW92225  13.971  11.090  11.408
63443SOL    HW192226  13.890  11.069  11.455
63443SOL    HW292227  13.973  11.027  11.336
63444SOL     OW92228  12.504   8.286   4.613
63444SOL    HW192229  12.545   8.201   4.625
63444SOL    HW292230  12.437   8.291   4.680
63445SOL     OW92231   7.080   3.901   9.853
63445SOL    HW192232   7.054   3.854   9.774
63445SOL    HW292233   6.997   3.921   9.897
63446SOL     OW92234  12.661   4.315   9.228
63446SOL    HW192235  12.694   4.294   9.141
63446SOL    HW292236  12.638   4.408   9.224
63447SOL     OW92237   8.338   2.568   0.014
63447SOL    HW192238   8.315   2.499   0.076
63447SOL    HW292239   8.259   2.623   0.010
63448SOL     OW92240  10.916  10.158  13.408
63448SOL    HW192241  10.963  10.095  13.462
63448SOL    HW292242  10.982  10.224  13.385
63449SOL     OW92243   5.288  13.484   4.718
63449SOL    HW192244   5.355  13.474   4.786
63449SOL    HW292245   5.334  13.464   4.637
63450SOL     OW92246  13.700   4.210  11.420
63450SOL    HW192247  13.684   4.194  11.327
63450SOL    HW292248  13.712   4.305  11.427
63451SOL     OW92249  11.406   4.912   8.271
63451SOL    HW192250  11.334   4.971   8.247
63451SOL    HW292251  11.383   4.829   8.229
63452SOL     OW92252   8.491   9.033   9.917
63452SOL    HW192253   8.437   9.005   9.991
63452SOL    HW292254   8.538   8.954   9.890
63453SOL     OW92255  14.568  10.494   8.617
63453SOL    HW192256  14.598  10.542   8.540
63453SOL    HW292257  14.484  10.458   8.591
63454SOL     OW92258   6.602   7.106  11.557
63454SOL    HW192259   6.614   7.018  11.522
63454SOL    HW292260   6.524   7.139  11.514
63455SOL     OW92261   3.740  12.537   5.447
63455SOL    HW192262   3.761  12.612   5.502
63455SOL    HW292263   3.754  12.461   5.504
63456SOL     OW92264   8.059   8.297   4.850
63456SOL    HW192265   8.029   8.214   4.888
63456SOL    HW292266   8.151   8.304   4.877
63457SOL     OW92267  13.296  10.469   2.537
63457SOL    HW192268  13.244  10.420   2.474
63457SOL    HW292269  13.358  10.406   2.573
63458SOL     OW92270   8.876  10.317   8.999
63458SOL    HW192271   8.963  10.279   9.010
63458SOL    HW292272   8.832  10.257   8.938
63459SOL     OW92273  13.503   7.634   7.854
63459SOL    HW192274  13.559   7.711   7.847
63459SOL    HW292275  13.558   7.568   7.897
63460SOL     OW92276   7.181   8.377   4.417
63460SOL    HW192277   7.167   8.427   4.337
63460SOL    HW292278   7.142   8.291   4.399
63461SOL     OW92279  12.188   6.489   5.078
63461SOL    HW192280  12.283   6.506   5.074
63461SOL    HW292281  12.176   6.437   5.158
63462SOL     OW92282  14.302   1.905  13.753
63462SOL    HW192283  14.272   1.990  13.719
63462SOL    HW292284  14.228   1.873  13.805
63463SOL     OW92285  14.841   7.599   3.494
63463SOL    HW192286  14.775   7.644   3.547
63463SOL    HW292287   0.004   7.670   3.447
63464SOL     OW92288  10.999   9.879  12.531
63464SOL    HW192289  10.906   9.856  12.531
63464SOL    HW292290  11.028   9.862  12.441
63465SOL     OW92291   5.005   3.883   4.324
63465SOL    HW192292   5.077   3.828   4.354
63465SOL    HW292293   4.983   3.848   4.238
63466SOL     OW92294   9.170   5.862   0.639
63466SOL    HW192295   9.092   5.809   0.656
63466SOL    HW292296   9.232   5.837   0.707
63467SOL     OW92297   8.440  12.129   8.336
63467SOL    HW192298   8.488  12.064   8.386
63467SOL    HW292299   8.497  12.206   8.336
63468SOL     OW92300   4.599   1.680   2.435
63468SOL    HW192301   4.582   1.774   2.427
63468SOL    HW292302   4.685   1.675   2.478
63469SOL     OW92303   0.545   8.593   1.349
63469SOL    HW192304   0.544   8.688   1.349
63469SOL    HW292305   0.462   8.568   1.308
63470SOL     OW92306   6.470   4.383  11.491
63470SOL    HW192307   6.540   4.350  11.548
63470SOL    HW292308   6.465   4.320  11.420
63471SOL     OW92309   3.086   2.331   3.452
63471SOL    HW192310   3.151   2.322   3.381
63471SOL    HW292311   3.051   2.419   3.441
63472SOL     OW92312  10.156  12.798  12.479
63472SOL    HW192313  10.195  12.731  12.535
63472SOL    HW292314  10.174  12.881  12.524
63473SOL     OW92315   4.197   5.465  10.580
63473SOL    HW192316   4.278   5.428  10.544
63473SOL    HW292317   4.135   5.393  10.579
63474SOL     OW92318   7.689  12.231   5.635
63474SOL    HW192319   7.760  12.288   5.608
63474SOL    HW292320   7.653  12.272   5.713
63475SOL     OW92321   7.934   2.130   8.147
63475SOL    HW192322   7.844   2.137   8.178
63475SOL    HW292323   7.949   2.036   8.139
63476SOL     OW92324   7.934   8.279   5.239
63476SOL    HW192325   7.933   8.353   5.299
63476SOL    HW292326   7.965   8.205   5.293
63477SOL     OW92327   6.814   9.807   0.751
63477SOL    HW192328   6.772   9.792   0.666
63477SOL    HW292329   6.814   9.903   0.760
63478SOL     OW92330   1.784   7.283   6.383
63478SOL    HW192331   1.879   7.274   6.378
63478SOL    HW292332   1.752   7.239   6.304
63479SOL     OW92333   4.974   6.568  10.109
63479SOL    HW192334   5.050   6.623  10.129
63479SOL    HW292335   5.006   6.478  10.118
63480SOL     OW92336   9.825   4.400   4.396
63480SOL    HW192337   9.825   4.309   4.426
63480SOL    HW292338   9.732   4.421   4.384
63481SOL     OW92339  11.679   3.386   5.094
63481SOL    HW192340  11.590   3.379   5.061
63481SOL    HW292341  11.724   3.442   5.030
63482SOL     OW92342   3.538   9.925   6.025
63482SOL    HW192343   3.509   9.868   6.096
63482SOL    HW292344   3.606   9.876   5.980
63483SOL     OW92345   9.210  12.132   4.463
63483SOL    HW192346   9.268  12.164   4.394
63483SOL    HW292347   9.124  12.166   4.440
63484SOL     OW92348   3.515   7.645  12.665
63484SOL    HW192349   3.494   7.709  12.733
63484SOL    HW292350   3.442   7.583  12.667
63485SOL     OW92351   9.260  14.268  12.313
63485SOL    HW192352   9.246  14.185  12.268
63485SOL    HW292353   9.202  14.330  12.269
63486SOL     OW92354   3.633   6.338   0.815
63486SOL    HW192355   3.540   6.360   0.819
63486SOL    HW292356   3.635   6.243   0.800
63487SOL     OW92357  13.736   8.069  12.702
63487SOL    HW192358  13.826   8.050  12.728
63487SOL    HW292359  13.729   8.164  12.709
63488SOL     OW92360  13.032   4.145   3.139
63488SOL    HW192361  13.106   4.150   3.199
63488SOL    HW292362  12.967   4.093   3.185
63489SOL     OW92363   1.088   1.622  11.705
63489SOL    HW192364   1.033   1.666  11.640
63489SOL    HW292365   1.032   1.554  11.742
63490SOL     OW92366   7.980   2.011   5.257
63490SOL    HW192367   8.045   2.048   5.316
63490SOL    HW292368   8.022   1.933   5.220
63491SOL     OW92369  13.647  11.637   0.104
63491SOL    HW192370  13.640  11.669   0.194
63491SOL    HW292371  13.558  11.610   0.082
63492SOL     OW92372   6.317  14.618   2.547
63492SOL    HW192373   6.310  14.524   2.565
63492SOL    HW292374   6.234  14.654   2.578
63493SOL     OW92375   5.306  10.662  14.800
63493SOL    HW192376   5.291  10.568  14.804
63493SOL    HW292377   5.332  10.686   0.007
63494SOL     OW92378   7.462  10.002   6.991
63494SOL    HW192379   7.477   9.967   6.904
63494SOL    HW292380   7.549  10.005   7.031
63495SOL     OW92381  11.951   0.723  12.708
63495SOL    HW192382  11.937   0.761  12.622
63495SOL    HW292383  11.945   0.797  12.768
63496SOL     OW92384   6.652   0.442  14.414
63496SOL    HW192385   6.691   0.382  14.477
63496SOL    HW292386   6.688   0.414  14.329
63497SOL     OW92387   9.632   4.008   9.680
63497SOL    HW192388   9.686   4.028   9.603
63497SOL    HW292389   9.598   4.093   9.708
63498SOL     OW92390   8.242   4.191   0.368
63498SOL    HW192391   8.209   4.104   0.387
63498SOL    HW292392   8.170   4.235   0.323
63499SOL     OW92393   7.978  12.541  12.311
63499SOL    HW192394   8.048  12.503  12.363
63499SOL    HW292395   7.935  12.603  12.370
63500SOL     OW92396   3.195   4.280   1.655
63500SOL    HW192397   3.121   4.225   1.630
63500SOL    HW292398   3.270   4.245   1.607
63501SOL     OW92399   6.795  13.671  10.186
63501SOL    HW192400   6.710  13.687  10.144
63501SOL    HW292401   6.854  13.650  10.113
63502SOL     OW92402  11.528   0.945   6.097
63502SOL    HW192403  11.522   0.864   6.046
63502SOL    HW292404  11.610   0.985   6.070
63503SOL     OW92405   5.667   9.979   3.486
63503SOL    HW192406   5.634  10.052   3.537
63503SOL    HW292407   5.760   9.974   3.509
63504SOL     OW92408   5.614  13.660   3.222
63504SOL    HW192409   5.652  13.722   3.284
63504SOL    HW292410   5.538  13.623   3.267
63505SOL     OW92411  14.712  14.595  14.430
63505SOL    HW192412  14.674  14.510  14.450
63505SOL    HW292413  14.748  14.585  14.342
63506SOL     OW92414  14.865  14.870   2.591
63506SOL    HW192415  14.780  14.831   2.607
63506SOL    HW292416   0.046  14.805   2.621
63507SOL     OW92417  13.029   7.394   6.607
63507SOL    HW192418  12.977   7.374   6.685
63507SOL    HW292419  13.057   7.485   6.620
63508SOL     OW92420   9.484   6.803  12.456
63508SOL    HW192421   9.416   6.742  12.429
63508SOL    HW292422   9.557   6.786  12.396
63509SOL     OW92423   2.816   1.347   2.530
63509SOL    HW192424   2.866   1.295   2.593
63509SOL    HW292425   2.801   1.431   2.574
63510SOL     OW92426   8.189  10.899   5.606
63510SOL    HW192427   8.225  10.987   5.603
63510SOL    HW292428   8.241  10.854   5.673
63511SOL     OW92429   8.677   7.575  13.627
63511SOL    HW192430   8.750   7.622  13.667
63511SOL    HW292431   8.627   7.642  13.582
63512SOL     OW92432   7.478  14.020   1.095
63512SOL    HW192433   7.514  13.965   1.026
63512SOL    HW292434   7.383  14.014   1.083
63513SOL     OW92435   1.859   8.210  13.982
63513SOL    HW192436   1.794   8.177  13.920
63513SOL    HW292437   1.808   8.253  14.051
63514SOL     OW92438   8.704   3.676   5.352
63514SOL    HW192439   8.700   3.609   5.420
63514SOL    HW292440   8.614   3.708   5.344
63515SOL     OW92441  14.518  13.389   0.572
63515SOL    HW192442  14.524  13.384   0.476
63515SOL    HW292443  14.516  13.298   0.601
63516SOL     OW92444   6.215   9.714  11.870
63516SOL    HW192445   6.294   9.721  11.924
63516SOL    HW292446   6.245   9.734  11.781
63517SOL     OW92447  12.938  11.534   5.396
63517SOL    HW192448  12.956  11.595   5.324
63517SOL    HW292449  13.024  11.517   5.434
63518SOL     OW92450   0.706   0.401  14.840
63518SOL    HW192451   0.680   0.481  14.793
63518SOL    HW292452   0.625   0.368  14.877
63519SOL     OW92453  13.585  13.432   9.992
63519SOL    HW192454  13.616  13.517  10.021
63519SOL    HW292455  13.649  13.370  10.027
63520SOL     OW92456  11.068   6.073   3.290
63520SOL    HW192457  11.111   6.102   3.210
63520SOL    HW292458  11.137   6.030   3.341
63521SOL     OW92459   8.618   6.256  13.515
63521SOL    HW192460   8.629   6.234  13.422
63521SOL    HW292461   8.647   6.177  13.561
63522SOL     OW92462   7.684   2.667   9.736
63522SOL    HW192463   7.618   2.733   9.756
63522SOL    HW292464   7.642   2.608   9.674
63523SOL     OW92465  13.564   8.403   5.783
63523SOL    HW192466  13.510   8.343   5.732
63523SOL    HW292467  13.566   8.483   5.730
63524SOL     OW92468   8.847   2.476  10.481
63524SOL    HW192469   8.855   2.570  10.468
63524SOL    HW292470   8.937   2.445  10.490
63525SOL     OW92471   4.695   8.224   9.113
63525SOL    HW192472   4.770   8.279   9.088
63525SOL    HW292473   4.673   8.176   9.033
63526SOL     OW92474   1.613   4.708   6.555
63526SOL    HW192475   1.550   4.704   6.626
63526SOL    HW292476   1.696   4.679   6.594
63527SOL     OW92477   5.901   3.294   1.858
63527SOL    HW192478   5.997   3.298   1.859
63527SOL    HW292479   5.873   3.378   1.894
63528SOL     OW92480   5.573   6.121   6.835
63528SOL    HW192481   5.517   6.193   6.805
63528SOL    HW292482   5.661   6.145   6.805
63529SOL     OW92483  11.921   2.399   4.322
63529SOL    HW192484  11.829   2.376   4.335
63529SOL    HW292485  11.925   2.492   4.343
63530SOL     OW92486   7.403   4.431   7.441
63530SOL    HW192487   7.477   4.453   7.498
63530SOL    HW292488   7.371   4.347   7.475
63531SOL     OW92489   6.919   8.024  11.902
63531SOL    HW192490   6.908   8.109  11.945
63531SOL    HW292491   6.919   7.961  11.974
63532SOL     OW92492   2.781  10.816  10.559
63532SOL    HW192493   2.875  10.826  10.546
63532SOL    HW292494   2.772  10.747  10.625
63533SOL     OW92495   1.159   9.886   6.540
63533SOL    HW192496   1.217   9.960   6.556
63533SOL    HW292497   1.191   9.817   6.597
63534SOL     OW92498  10.135  12.173  14.555
63534SOL    HW192499  10.083  12.137  14.627
63534SOL    HW292500  10.144  12.266  14.577
63535SOL     OW92501  13.405   8.942   7.120
63535SOL    HW192502  13.464   8.902   7.184
63535SOL    HW292503  13.447   9.026   7.098
63536SOL     OW92504   6.502   9.359   7.796
63536SOL    HW192505   6.597   9.374   7.799
63536SOL    HW292506   6.477   9.378   7.706
63537SOL     OW92507   4.298   4.920   6.274
63537SOL    HW192508   4.369   4.984   6.282
63537SOL    HW292509   4.328   4.860   6.206
63538SOL     OW92510   4.545   9.952  11.322
63538SOL    HW192511   4.588   9.996  11.396
63538SOL    HW292512   4.572  10.003  11.245
63539SOL     OW92513   8.026   2.529   1.337
63539SOL    HW192514   8.095   2.501   1.276
63539SOL    HW292515   7.983   2.447   1.363
63540SOL     OW92516   5.881  12.597  11.547
63540SOL    HW192517   5.956  12.643  11.585
63540SOL    HW292518   5.823  12.579  11.621
63541SOL     OW92519  13.598   0.583  10.170
63541SOL    HW192520  13.608   0.676  10.187
63541SOL    HW292521  13.665   0.541  10.224
63542SOL     OW92522   3.501   3.971   4.478
63542SOL    HW192523   3.521   4.018   4.559
63542SOL    HW292524   3.497   4.039   4.411
63543SOL     OW92525   9.729   7.671   7.446
63543SOL    HW192526   9.734   7.766   7.458
63543SOL    HW292527   9.636   7.651   7.457
63544SOL     OW92528  12.649   5.540  12.673
63544SOL    HW192529  12.634   5.473  12.606
63544SOL    HW292530  12.676   5.618  12.624
63545SOL     OW92531   4.912   4.018  14.867
63545SOL    HW192532   4.927   3.961   0.060
63545SOL    HW292533   4.817   4.023  14.859
63546SOL     OW92534  10.567  13.455   7.804
63546SOL    HW192535  10.506  13.514   7.759
63546SOL    HW292536  10.618  13.512   7.861
63547SOL     OW92537   3.678  13.587   8.276
63547SOL    HW192538   3.607  13.602   8.339
63547SOL    HW292539   3.637  13.600   8.190
63548SOL     OW92540   6.354  10.169   2.676
63548SOL    HW192541   6.292  10.208   2.738
63548SOL    HW292542   6.359  10.077   2.702
63549SOL     OW92543   6.411   0.080   1.255
63549SOL    HW192544   6.452   0.073   1.341
63549SOL    HW292545   6.439   0.001   1.209
63550SOL     OW92546  13.554   9.082   0.834
63550SOL    HW192547  13.612   9.153   0.810
63550SOL    HW292548  13.595   9.003   0.798
63551SOL     OW92549  12.487   4.060   5.004
63551SOL    HW192550  12.577   4.028   5.010
63551SOL    HW292551  12.436   3.999   5.056
63552SOL     OW92552  11.179   1.005  12.592
63552SOL    HW192553  11.269   0.989  12.563
63552SOL    HW292554  11.127   1.002  12.511
63553SOL     OW92555   4.153   2.545   0.828
63553SOL    HW192556   4.134   2.630   0.867
63553SOL    HW292557   4.110   2.547   0.743
63554SOL     OW92558  10.651  11.463  10.987
63554SOL    HW192559  10.679  11.418  10.908
63554SOL    HW292560  10.618  11.547  10.957
63555SOL     OW92561  11.046  10.569  10.896
63555SOL    HW192562  11.132  10.546  10.930
63555SOL    HW292563  11.008  10.625  10.963
63556SOL     OW92564   8.778   0.377   9.825
63556SOL    HW192565   8.762   0.283   9.833
63556SOL    HW292566   8.724   0.416   9.894
63557SOL     OW92567   2.773   8.306   5.377
63557SOL    HW192568   2.784   8.224   5.329
63557SOL    HW292569   2.780   8.374   5.310
63558SOL     OW92570  10.811   8.940  13.102
63558SOL    HW192571  10.732   8.951  13.155
63558SOL    HW292572  10.778   8.913  13.016
63559SOL     OW92573   2.228   0.183  11.311
63559SOL    HW192574   2.159   0.227  11.360
63559SOL    HW292575   2.249   0.106  11.363
63560SOL     OW92576  11.741   8.775   8.248
63560SOL    HW192577  11.756   8.867   8.268
63560SOL    HW292578  11.776   8.763   8.160
63561SOL     OW92579   7.337   5.990   3.734
63561SOL    HW192580   7.336   5.921   3.800
63561SOL    HW292581   7.430   6.002   3.714
63562SOL     OW92582   5.582   5.377   4.122
63562SOL    HW192583   5.541   5.347   4.041
63562SOL    HW292584   5.618   5.463   4.100
63563SOL     OW92585  12.756   6.440   0.926
63563SOL    HW192586  12.805   6.523   0.921
63563SOL    HW292587  12.755   6.418   1.019
63564SOL     OW92588  10.670  14.358  11.107
63564SOL    HW192589  10.669  14.340  11.013
63564SOL    HW292590  10.604  14.299  11.143
63565SOL     OW92591   7.421  12.164   1.298
63565SOL    HW192592   7.437  12.224   1.371
63565SOL    HW292593   7.467  12.084   1.323
63566SOL     OW92594  10.390  13.801  14.620
63566SOL    HW192595  10.446  13.876  14.600
63566SOL    HW292596  10.331  13.795  14.545
63567SOL     OW92597   1.068   8.016   9.606
63567SOL    HW192598   1.054   8.029   9.700
63567SOL    HW292599   0.981   8.005   9.569
63568SOL     OW92600   3.411  13.456   6.483
63568SOL    HW192601   3.409  13.364   6.509
63568SOL    HW292602   3.432  13.503   6.563
63569SOL     OW92603  12.680   2.805  14.443
63569SOL    HW192604  12.731   2.770  14.515
63569SOL    HW292605  12.647   2.889  14.475
63570SOL     OW92606  13.204   0.408  14.276
63570SOL    HW192607  13.221   0.315  14.289
63570SOL    HW292608  13.258   0.432  14.201
63571SOL     OW92609   9.954   5.309   9.687
63571SOL    HW192610   9.989   5.231   9.729
63571SOL    HW292611   9.977   5.381   9.746
63572SOL     OW92612  10.153   7.181   8.938
63572SOL    HW192613  10.137   7.089   8.915
63572SOL    HW292614  10.246   7.185   8.959
63573SOL     OW92615  12.049   1.465   7.009
63573SOL    HW192616  12.043   1.559   7.029
63573SOL    HW292617  12.061   1.423   7.094
63574SOL     OW92618   2.490   4.268   4.624
63574SOL    HW192619   2.481   4.304   4.712
63574SOL    HW292620   2.405   4.284   4.583
63575SOL     OW92621  13.349  11.532   1.958
63575SOL    HW192622  13.323  11.553   2.048
63575SOL    HW292623  13.337  11.437   1.951
63576SOL     OW92624   2.447   5.898   2.319
63576SOL    HW192625   2.464   5.954   2.244
63576SOL    HW292626   2.474   5.810   2.291
63577SOL     OW92627   1.472   7.723   9.342
63577SOL    HW192628   1.411   7.796   9.354
63577SOL    HW292629   1.556   7.756   9.373
63578SOL     OW92630  14.472   3.606  11.821
63578SOL    HW192631  14.421   3.534  11.856
63578SOL    HW292632  14.406   3.672  11.798
63579SOL     OW92633   2.582  14.446  13.046
63579SOL    HW192634   2.674  14.431  13.069
63579SOL    HW292635   2.582  14.529  12.999
63580SOL     OW92636   1.109   8.609  11.553
63580SOL    HW192637   1.017   8.624  11.577
63580SOL    HW292638   1.158   8.641  11.628
63581SOL     OW92639  14.449   2.204   3.819
63581SOL    HW192640  14.519   2.258   3.782
63581SOL    HW292641  14.375   2.218   3.761
63582SOL     OW92642  11.152  11.528   1.099
63582SOL    HW192643  11.196  11.596   1.149
63582SOL    HW292644  11.205  11.517   1.020
63583SOL     OW92645   1.908   0.837   3.023
63583SOL    HW192646   1.886   0.896   2.951
63583SOL    HW292647   1.953   0.764   2.981
63584SOL     OW92648  13.245   0.558   9.288
63584SOL    HW192649  13.249   0.499   9.213
63584SOL    HW292650  13.259   0.645   9.251
63585SOL     OW92651  10.178   3.062   1.718
63585SOL    HW192652  10.199   3.026   1.631
63585SOL    HW292653  10.263   3.075   1.760
63586SOL     OW92654   0.291  11.636   7.456
63586SOL    HW192655   0.211  11.672   7.495
63586SOL    HW292656   0.317  11.701   7.391
63587SOL     OW92657   1.404   4.080   3.059
63587SOL    HW192658   1.333   4.144   3.062
63587SOL    HW292659   1.360   3.995   3.064
63588SOL     OW92660   8.799  14.312   0.875
63588SOL    HW192661   8.759  14.332   0.790
63588SOL    HW292662   8.763  14.227   0.900
63589SOL     OW92663  13.325   7.395   1.209
63589SOL    HW192664  13.350   7.428   1.122
63589SOL    HW292665  13.404   7.404   1.262
63590SOL     OW92666   6.200  10.055  10.425
63590SOL    HW192667   6.255  10.125  10.459
63590SOL    HW292668   6.111  10.086  10.440
63591SOL     OW92669  12.259  14.468  10.461
63591SOL    HW192670  12.241  14.561  10.449
63591SOL    HW292671  12.334  14.450  10.405
63592SOL     OW92672   8.703  11.970   0.011
63592SOL    HW192673   8.764  12.038   0.040
63592SOL    HW292674   8.760  11.901  14.857
63593SOL     OW92675  10.886   7.603   6.088
63593SOL    HW192676  10.796   7.628   6.107
63593SOL    HW292677  10.914   7.552   6.164
63594SOL     OW92678  12.164   2.355  13.123
63594SOL    HW192679  12.153   2.392  13.211
63594SOL    HW292680  12.252   2.381  13.097
63595SOL     OW92681   7.077   5.473  14.056
63595SOL    HW192682   7.153   5.456  14.110
63595SOL    HW292683   7.020   5.398  14.071
63596SOL     OW92684  10.825   8.580   1.715
63596SOL    HW192685  10.845   8.668   1.747
63596SOL    HW292686  10.735   8.564   1.744
63597SOL     OW92687   4.251  13.659   3.677
63597SOL    HW192688   4.261  13.621   3.764
63597SOL    HW292689   4.240  13.583   3.619
63598SOL     OW92690  12.715   5.068   4.904
63598SOL    HW192691  12.676   5.000   4.850
63598SOL    HW292692  12.710   5.147   4.851
63599SOL     OW92693  14.354   4.084   8.940
63599SOL    HW192694  14.381   4.010   8.887
63599SOL    HW292695  14.356   4.051   9.030
63600SOL     OW92696   4.867  10.600   0.864
63600SOL    HW192697   4.911  10.684   0.868
63600SOL    HW292698   4.938  10.536   0.855
63601SOL     OW92699  13.174   9.614   5.111
63601SOL    HW192700  13.116   9.691   5.113
63601SOL    HW292701  13.168   9.577   5.199
63602SOL     OW92702  14.580  10.131   8.801
63602SOL    HW192703  14.536  10.155   8.882
63602SOL    HW292704  14.525  10.168   8.732
63603SOL     OW92705  12.212   1.329   3.047
63603SOL    HW192706  12.222   1.237   3.019
63603SOL    HW292707  12.122   1.334   3.077
63604SOL     OW92708   7.467   9.695   3.257
63604SOL    HW192709   7.508   9.613   3.228
63604SOL    HW292710   7.528   9.763   3.228
63605SOL     OW92711  13.723   1.697   3.040
63605SOL    HW192712  13.702   1.762   2.973
63605SOL    HW292713  13.639   1.677   3.081
63606SOL     OW92714   2.152  11.905   9.273
63606SOL    HW192715   2.201  11.892   9.354
63606SOL    HW292716   2.204  11.969   9.224
63607SOL     OW92717   7.392   2.165   0.340
63607SOL    HW192718   7.448   2.242   0.351
63607SOL    HW292719   7.427   2.101   0.402
63608SOL     OW92720  10.735   4.294  14.744
63608SOL    HW192721  10.821   4.286  14.787
63608SOL    HW292722  10.677   4.326  14.813
63609SOL     OW92723   7.021  10.774   1.673
63609SOL    HW192724   7.095  10.739   1.622
63609SOL    HW292725   7.039  10.746   1.763
63610SOL     OW92726  10.331   9.797   6.040
63610SOL    HW192727  10.331   9.862   6.110
63610SOL    HW292728  10.422   9.789   6.013
63611SOL     OW92729   3.168   7.353  13.542
63611SOL    HW192730   3.244   7.299  13.563
63611SOL    HW292731   3.153   7.337  13.449
63612SOL     OW92732   0.328   2.676   9.815
63612SOL    HW192733   0.270   2.614   9.771
63612SOL    HW292734   0.385   2.709   9.746
63613SOL     OW92735   3.390   8.741   8.909
63613SOL    HW192736   3.342   8.668   8.949
63613SOL    HW292737   3.447   8.700   8.844
63614SOL     OW92738  13.295   3.280   1.123
63614SOL    HW192739  13.328   3.367   1.100
63614SOL    HW292740  13.217   3.269   1.069
63615SOL     OW92741   3.032  13.564   8.162
63615SOL    HW192742   2.983  13.500   8.110
63615SOL    HW292743   3.105  13.514   8.199
63616SOL     OW92744   2.411  13.443   2.980
63616SOL    HW192745   2.464  13.470   2.905
63616SOL    HW292746   2.358  13.371   2.947
63617SOL     OW92747   7.227   3.063   0.220
63617SOL    HW192748   7.292   3.101   0.280
63617SOL    HW292749   7.169   3.011   0.277
63618SOL     OW92750  10.081  14.727   1.239
63618SOL    HW192751  10.003  14.772   1.269
63618SOL    HW292752  10.084  14.647   1.291
63619SOL     OW92753  13.187   6.719   2.169
63619SOL    HW192754  13.184   6.632   2.209
63619SOL    HW292755  13.164   6.704   2.077
63620SOL     OW92756   9.460   0.912   5.348
63620SOL    HW192757   9.420   0.930   5.433
63620SOL    HW292758   9.491   0.821   5.355
63621SOL     OW92759   0.145   5.131   8.047
63621SOL    HW192760   0.050   5.128   8.060
63621SOL    HW292761   0.163   5.221   8.019
63622SOL     OW92762   1.186  10.148  12.064
63622SOL    HW192763   1.098  10.114  12.049
63622SOL    HW292764   1.227  10.147  11.978
63623SOL     OW92765   4.979   4.622  10.630
63623SOL    HW192766   4.915   4.692  10.619
63623SOL    HW292767   4.956   4.582  10.715
63624SOL     OW92768  13.209   0.732   7.970
63624SOL    HW192769  13.176   0.643   7.965
63624SOL    HW292770  13.156   0.780   7.906
63625SOL     OW92771  12.632   6.865   7.100
63625SOL    HW192772  12.655   6.944   7.148
63625SOL    HW292773  12.691   6.798   7.135
63626SOL     OW92774  14.252   9.552   6.723
63626SOL    HW192775  14.281   9.554   6.631
63626SOL    HW292776  14.328   9.580   6.773
63627SOL     OW92777   1.777  13.495   3.327
63627SOL    HW192778   1.753  13.576   3.281
63627SOL    HW292779   1.767  13.426   3.261
63628SOL     OW92780   0.489  11.467   6.035
63628SOL    HW192781   0.399  11.445   6.060
63628SOL    HW292782   0.501  11.424   5.950
63629SOL     OW92783   9.698   9.777   7.098
63629SOL    HW192784   9.762   9.713   7.065
63629SOL    HW292785   9.738   9.862   7.078
63630SOL     OW92786   6.356  11.043  14.697
63630SOL    HW192787   6.395  11.097  14.628
63630SOL    HW292788   6.264  11.036  14.673
63631SOL     OW92789   6.435  11.342  10.786
63631SOL    HW192790   6.413  11.435  10.781
63631SOL    HW292791   6.390  11.303  10.711
63632SOL     OW92792   6.768   0.331   6.430
63632SOL    HW192793   6.709   0.264   6.464
63632SOL    HW292794   6.825   0.353   6.504
63633SOL     OW92795   8.687   2.115  13.506
63633SOL    HW192796   8.722   2.039  13.461
63633SOL    HW292797   8.711   2.189  13.451
63634SOL     OW92798  11.856   0.664   6.365
63634SOL    HW192799  11.869   0.689   6.457
63634SOL    HW292800  11.880   0.572   6.362
63635SOL     OW92801   2.379  11.485   2.096
63635SOL    HW192802   2.387  11.470   2.002
63635SOL    HW292803   2.294  11.530   2.106
63636SOL     OW92804   3.064  13.688   2.820
63636SOL    HW192805   3.138  13.746   2.802
63636SOL    HW292806   3.037  13.656   2.734
63637SOL     OW92807   5.599   4.763   9.064
63637SOL    HW192808   5.517   4.805   9.090
63637SOL    HW292809   5.607   4.687   9.122
63638SOL     OW92810   3.688  10.171   8.084
63638SOL    HW192811   3.620  10.226   8.044
63638SOL    HW292812   3.769  10.197   8.040
63639SOL     OW92813  11.424  13.514   4.208
63639SOL    HW192814  11.483  13.561   4.149
63639SOL    HW292815  11.373  13.582   4.250
63640SOL     OW92816   5.993  13.125   9.500
63640SOL    HW192817   5.921  13.066   9.523
63640SOL    HW292818   6.028  13.153   9.585
63641SOL     OW92819   3.767   4.532  12.030
63641SOL    HW192820   3.738   4.620  12.052
63641SOL    HW292821   3.858   4.528  12.057
63642SOL     OW92822  10.802   3.150  11.076
63642SOL    HW192823  10.836   3.061  11.086
63642SOL    HW292824  10.707   3.140  11.075
63643SOL     OW92825   5.925   6.320  14.768
63643SOL    HW192826   6.002   6.305  14.823
63643SOL    HW292827   5.851   6.300  14.825
63644SOL     OW92828   4.114   8.341   1.813
63644SOL    HW192829   4.197   8.318   1.855
63644SOL    HW292830   4.073   8.257   1.793
63645SOL     OW92831   5.898   1.252  12.789
63645SOL    HW192832   5.822   1.201  12.817
63645SOL    HW292833   5.876   1.281  12.701
63646SOL     OW92834  12.361  10.201   1.089
63646SOL    HW192835  12.285  10.258   1.094
63646SOL    HW292836  12.412  10.222   1.167
63647SOL     OW92837   3.825  11.312   5.729
63647SOL    HW192838   3.815  11.309   5.825
63647SOL    HW292839   3.772  11.239   5.698
63648SOL     OW92840   6.214  14.707  14.561
63648SOL    HW192841   6.122  14.698  14.539
63648SOL    HW292842   6.219  14.787  14.613
63649SOL     OW92843   0.255   2.662  10.083
63649SOL    HW192844   0.163   2.653  10.057
63649SOL    HW292845   0.301   2.681  10.001
63650SOL     OW92846   7.515   9.816  13.956
63650SOL    HW192847   7.553   9.820  14.044
63650SOL    HW292848   7.491   9.724  13.945
63651SOL     OW92849   0.674  12.354   1.329
63651SOL    HW192850   0.599  12.408   1.354
63651SOL    HW292851   0.749  12.399   1.367
63652SOL     OW92852   2.931   1.801  11.182
63652SOL    HW192853   3.023   1.811  11.158
63652SOL    HW292854   2.933   1.778  11.275
63653SOL     OW92855  11.592   2.483   2.436
63653SOL    HW192856  11.576   2.447   2.524
63653SOL    HW292857  11.626   2.409   2.386
63654SOL     OW92858   3.308   3.877   4.118
63654SOL    HW192859   3.380   3.817   4.132
63654SOL    HW292860   3.331   3.925   4.039
63655SOL     OW92861   6.433  11.141   3.764
63655SOL    HW192862   6.387  11.118   3.845
63655SOL    HW292863   6.460  11.056   3.728
63656SOL     OW92864   2.157   5.797   1.944
63656SOL    HW192865   2.200   5.827   1.864
63656SOL    HW292866   2.067   5.781   1.919
63657SOL     OW92867  11.098  14.496   2.352
63657SOL    HW192868  11.062  14.582   2.332
63657SOL    HW292869  11.052  14.435   2.294
63658SOL     OW92870  13.632  14.013  14.168
63658SOL    HW192871  13.701  13.996  14.105
63658SOL    HW292872  13.575  13.937  14.164
63659SOL     OW92873   8.287  11.000  14.792
63659SOL    HW192874   8.295  11.000  14.697
63659SOL    HW292875   8.296  11.092  14.818
63660SOL     OW92876   4.958   2.941  11.672
63660SOL    HW192877   5.010   2.864  11.695
63660SOL    HW292878   4.892   2.908  11.610
63661SOL     OW92879  13.128   7.530   2.921
63661SOL    HW192880  13.180   7.609   2.908
63661SOL    HW292881  13.188   7.468   2.963
63662SOL     OW92882   2.123   7.403  11.781
63662SOL    HW192883   2.130   7.496  11.801
63662SOL    HW292884   2.138   7.359  11.864
63663SOL     OW92885  14.815   3.250  11.272
63663SOL    HW192886   0.018   3.217  11.299
63663SOL    HW292887  14.760   3.171  11.265
63664SOL     OW92888   8.392   3.719   6.268
63664SOL    HW192889   8.371   3.632   6.234
63664SOL    HW292890   8.323   3.738   6.332
63665SOL     OW92891   7.086   3.107  10.597
63665SOL    HW192892   7.127   3.022  10.582
63665SOL    HW292893   7.118   3.134  10.683
63666SOL     OW92894   2.703   6.151  10.998
63666SOL    HW192895   2.770   6.134  10.932
63666SOL    HW292896   2.652   6.223  10.962
63667SOL     OW92897   9.308   3.669   5.902
63667SOL    HW192898   9.369   3.600   5.928
63667SOL    HW292899   9.313   3.671   5.806
63668SOL     OW92900   4.094   0.090   9.956
63668SOL    HW192901   4.019   0.137   9.992
63668SOL    HW292902   4.117   0.026  10.024
63669SOL     OW92903   9.341   6.303   1.652
63669SOL    HW192904   9.276   6.233   1.645
63669SOL    HW292905   9.340   6.328   1.745
63670SOL     OW92906   1.039   7.509   3.102
63670SOL    HW192907   1.103   7.576   3.079
63670SOL    HW292908   0.977   7.553   3.160
63671SOL     OW92909  10.079   8.284  10.925
63671SOL    HW192910  10.005   8.233  10.956
63671SOL    HW292911  10.043   8.340  10.856
63672SOL     OW92912   4.885   8.615   4.026
63672SOL    HW192913   4.816   8.648   3.969
63672SOL    HW292914   4.958   8.674   4.012
63673SOL     OW92915   4.901  14.331  12.955
63673SOL    HW192916   4.857  14.409  12.921
63673SOL    HW292917   4.845  14.301  13.026
63674SOL     OW92918  13.360  10.558   0.823
63674SOL    HW192919  13.397  10.513   0.747
63674SOL    HW292920  13.316  10.635   0.787
63675SOL     OW92921   5.460   9.458  12.802
63675SOL    HW192922   5.523   9.456  12.731
63675SOL    HW292923   5.490   9.528  12.860
63676SOL     OW92924   6.567   6.298  13.600
63676SOL    HW192925   6.543   6.250  13.679
63676SOL    HW292926   6.576   6.231  13.533
63677SOL     OW92927   9.401  11.821   1.183
63677SOL    HW192928   9.467  11.890   1.184
63677SOL    HW292929   9.318  11.868   1.196
63678SOL     OW92930   9.153   8.817   7.521
63678SOL    HW192931   9.146   8.798   7.427
63678SOL    HW292932   9.063   8.832   7.550
63679SOL     OW92933   6.496   2.196   7.920
63679SOL    HW192934   6.531   2.132   7.858
63679SOL    HW292935   6.403   2.176   7.924
63680SOL     OW92936   1.290   2.777   8.956
63680SOL    HW192937   1.291   2.847   9.021
63680SOL    HW292938   1.234   2.709   8.995
63681SOL     OW92939  10.678  13.586  14.409
63681SOL    HW192940  10.677  13.654  14.342
63681SOL    HW292941  10.762  13.542  14.398
63682SOL     OW92942   8.736   7.794  11.160
63682SOL    HW192943   8.646   7.772  11.187
63682SOL    HW292944   8.745   7.755  11.073
63683SOL     OW92945   1.503   4.468   3.352
63683SOL    HW192946   1.486   4.374   3.346
63683SOL    HW292947   1.416   4.507   3.361
63684SOL     OW92948   9.341   5.699   1.261
63684SOL    HW192949   9.357   5.743   1.345
63684SOL    HW292950   9.279   5.755   1.216
63685SOL     OW92951   1.477   3.545   8.330
63685SOL    HW192952   1.408   3.589   8.381
63685SOL    HW292953   1.529   3.499   8.396
63686SOL     OW92954   5.973  13.171  10.630
63686SOL    HW192955   5.909  13.103  10.652
63686SOL    HW292956   6.030  13.176  10.706
63687SOL     OW92957  10.437   3.476  14.027
63687SOL    HW192958  10.399   3.389  14.015
63687SOL    HW292959  10.518   3.461  14.075
63688SOL     OW92960  11.718  10.790  10.617
63688SOL    HW192961  11.739  10.835  10.535
63688SOL    HW292962  11.753  10.701  10.605
63689SOL     OW92963   7.918  14.388  13.644
63689SOL    HW192964   7.910  14.294  13.660
63689SOL    HW292965   7.828  14.417  13.627
63690SOL     OW92966  13.599   2.569  12.789
63690SOL    HW192967  13.626   2.482  12.760
63690SOL    HW292968  13.681   2.613  12.810
63691SOL     OW92969  11.762   6.446  14.089
63691SOL    HW192970  11.837   6.452  14.030
63691SOL    HW292971  11.709   6.375  14.054
63692SOL     OW92972   4.929   1.183  12.527
63692SOL    HW192973   4.846   1.221  12.554
63692SOL    HW292974   4.994   1.227  12.582
63693SOL     OW92975  14.860   6.929   6.593
63693SOL    HW192976  14.878   6.859   6.530
63693SOL    HW292977  14.874   7.009   6.543
63694SOL     OW92978   3.643  12.490  14.714
63694SOL    HW192979   3.718  12.458  14.763
63694SOL    HW292980   3.637  12.583  14.735
63695SOL     OW92981  10.151   7.773   8.205
63695SOL    HW192982  10.176   7.690   8.165
63695SOL    HW292983  10.218   7.790   8.271
63696SOL     OW92984  14.723   5.144   2.084
63696SOL    HW192985  14.729   5.083   2.011
63696SOL    HW292986  14.789   5.211   2.066
63697SOL     OW92987  10.221   3.568   4.367
63697SOL    HW192988  10.255   3.652   4.337
63697SOL    HW292989  10.280   3.503   4.330
63698SOL     OW92990   9.402  13.310   5.697
63698SOL    HW192991   9.350  13.391   5.697
63698SOL    HW292992   9.489  13.338   5.666
63699SOL     OW92993   0.432   4.815  11.851
63699SOL    HW192994   0.370   4.866  11.798
63699SOL    HW292995   0.511   4.811  11.798
63700SOL     OW92996  13.607   5.519   0.563
63700SOL    HW192997  13.598   5.444   0.506
63700SOL    HW292998  13.701   5.522   0.583
63701SOL     OW92999  12.857  12.318   8.942
63701SOL    HW193000  12.823  12.340   9.028
63701SOL    HW293001  12.802  12.246   8.912
63702SOL     OW93002   2.314   8.194   6.411
63702SOL    HW193003   2.317   8.108   6.453
63702SOL    HW293004   2.362   8.252   6.471
63703SOL     OW93005  12.525   4.193   6.900
63703SOL    HW193006  12.581   4.266   6.874
63703SOL    HW293007  12.499   4.151   6.818
63704SOL     OW93008   3.206   5.657   7.773
63704SOL    HW193009   3.277   5.721   7.769
63704SOL    HW293010   3.251   5.572   7.781
63705SOL     OW93011   4.410   8.450   5.464
63705SOL    HW193012   4.342   8.398   5.507
63705SOL    HW293013   4.440   8.510   5.531
63706SOL     OW93014   7.376  10.473   2.205
63706SOL    HW193015   7.364  10.378   2.209
63706SOL    HW293016   7.297  10.509   2.247
63707SOL     OW93017   6.436   6.422  13.997
63707SOL    HW193018   6.505   6.431  14.062
63707SOL    HW293019   6.464   6.479  13.925
63708SOL     OW93020  10.558  12.457   5.602
63708SOL    HW193021  10.580  12.550   5.601
63708SOL    HW293022  10.467  12.454   5.630
63709SOL     OW93023   8.348  14.432   5.677
63709SOL    HW193024   8.296  14.394   5.607
63709SOL    HW293025   8.391  14.357   5.719
63710SOL     OW93026   8.251   0.101   5.545
63710SOL    HW193027   8.314   0.078   5.477
63710SOL    HW293028   8.302   0.151   5.609
63711SOL     OW93029   9.054   5.571   3.625
63711SOL    HW193030   9.022   5.647   3.674
63711SOL    HW293031   8.977   5.516   3.612
63712SOL     OW93032   9.892   7.197  12.147
63712SOL    HW193033   9.901   7.114  12.195
63712SOL    HW293034   9.950   7.257  12.193
63713SOL     OW93035  13.948   7.012  10.752
63713SOL    HW193036  13.995   6.934  10.781
63713SOL    HW293037  13.948   7.007  10.657
63714SOL     OW93038  13.932   4.707   7.645
63714SOL    HW193039  13.965   4.738   7.729
63714SOL    HW293040  13.952   4.614   7.644
63715SOL     OW93041   4.668   1.764  12.822
63715SOL    HW193042   4.714   1.803  12.896
63715SOL    HW293043   4.580   1.802  12.825
63716SOL     OW93044   7.891  12.646  10.282
63716SOL    HW193045   7.802  12.676  10.267
63716SOL    HW293046   7.935  12.659  10.198
63717SOL     OW93047  13.315   4.086   2.390
63717SOL    HW193048  13.312   4.169   2.342
63717SOL    HW293049  13.391   4.041   2.354
63718SOL     OW93050  11.554  14.511   0.285
63718SOL    HW193051  11.561  14.415   0.291
63718SOL    HW293052  11.464  14.530   0.311
63719SOL     OW93053  10.118   9.878   8.654
63719SOL    HW193054  10.144   9.966   8.681
63719SOL    HW293055  10.024   9.875   8.671
63720SOL     OW93056   1.154   7.296   8.813
63720SOL    HW193057   1.065   7.312   8.843
63720SOL    HW293058   1.188   7.229   8.872
63721SOL     OW93059   4.880   2.101   6.124
63721SOL    HW193060   4.875   2.056   6.039
63721SOL    HW293061   4.957   2.157   6.117
63722SOL     OW93062   0.366   2.749   5.901
63722SOL    HW193063   0.374   2.838   5.866
63722SOL    HW293064   0.448   2.734   5.948
63723SOL     OW93065   5.203   9.228   6.600
63723SOL    HW193066   5.188   9.223   6.506
63723SOL    HW293067   5.178   9.317   6.624
63724SOL     OW93068   2.723  11.273   9.008
63724SOL    HW193069   2.808  11.300   8.971
63724SOL    HW293070   2.707  11.187   8.969
63725SOL     OW93071  11.034   3.813   0.027
63725SOL    HW193072  10.984   3.867   0.088
63725SOL    HW293073  11.016   3.851  14.824
63726SOL     OW93074   6.924   8.689  14.649
63726SOL    HW193075   6.908   8.663  14.740
63726SOL    HW293076   6.881   8.774  14.641
63727SOL     OW93077   7.275   1.038   3.518
63727SOL    HW193078   7.293   1.129   3.495
63727SOL    HW293079   7.220   1.042   3.595
63728SOL     OW93080  12.467   1.178  12.869
63728SOL    HW193081  12.400   1.149  12.807
63728SOL    HW293082  12.418   1.197  12.950
63729SOL     OW93083   5.280   0.051   2.781
63729SOL    HW193084   5.260   0.129   2.729
63729SOL    HW293085   5.203  14.877   2.770
63730SOL     OW93086   0.219   2.663  11.246
63730SOL    HW193087   0.309   2.682  11.273
63730SOL    HW293088   0.227   2.628  11.158
63731SOL     OW93089   0.577   2.880   7.231
63731SOL    HW193090   0.592   2.815   7.163
63731SOL    HW293091   0.596   2.835   7.313
63732SOL     OW93092  10.204   5.944   6.160
63732SOL    HW193093  10.291   5.927   6.123
63732SOL    HW293094  10.150   5.872   6.126
63733SOL     OW93095  11.962   6.877   2.983
63733SOL    HW193096  12.030   6.927   2.939
63733SOL    HW293097  11.919   6.828   2.913
63734SOL     OW93098  10.105  11.599   1.053
63734SOL    HW193099  10.169  11.560   0.993
63734SOL    HW293100  10.032  11.538   1.054
63735SOL     OW93101   1.392   0.112   7.183
63735SOL    HW193102   1.416   0.036   7.236
63735SOL    HW293103   1.413   0.188   7.238
63736SOL     OW93104  14.496   2.740  13.742
63736SOL    HW193105  14.549   2.797  13.798
63736SOL    HW293106  14.437   2.800  13.696
63737SOL     OW93107  14.074   5.213   7.290
63737SOL    HW193108  14.135   5.200   7.217
63737SOL    HW293109  14.116   5.279   7.345
63738SOL     OW93110  10.441   8.885   7.738
63738SOL    HW193111  10.488   8.903   7.657
63738SOL    HW293112  10.393   8.803   7.721
63739SOL     OW93113   5.444   9.020   3.854
63739SOL    HW193114   5.490   8.937   3.861
63739SOL    HW293115   5.396   9.028   3.936
63740SOL     OW93116   2.627  14.514  11.728
63740SOL    HW193117   2.635  14.507  11.633
63740SOL    HW293118   2.671  14.435  11.761
63741SOL     OW93119   0.336   3.044   2.941
63741SOL    HW193120   0.260   3.089   2.906
63741SOL    HW293121   0.335   2.958   2.899
63742SOL     OW93122  14.515   8.769   6.324
63742SOL    HW193123  14.430   8.728   6.335
63742SOL    HW293124  14.497   8.849   6.273
63743SOL     OW93125   4.074   1.464   0.451
63743SOL    HW193126   4.028   1.408   0.389
63743SOL    HW293127   4.005   1.502   0.505
63744SOL     OW93128   4.538   7.377   5.741
63744SOL    HW193129   4.485   7.442   5.695
63744SOL    HW293130   4.477   7.336   5.803
63745SOL     OW93131   9.471  14.482   9.337
63745SOL    HW193132   9.472  14.388   9.319
63745SOL    HW293133   9.561  14.503   9.361
63746SOL     OW93134   3.737  12.820   3.136
63746SOL    HW193135   3.685  12.893   3.103
63746SOL    HW293136   3.820  12.859   3.161
63747SOL     OW93137   4.396  11.831   1.975
63747SOL    HW193138   4.359  11.743   1.973
63747SOL    HW293139   4.337  11.883   1.920
63748SOL     OW93140   0.268  12.079   7.505
63748SOL    HW193141   0.248  12.171   7.488
63748SOL    HW293142   0.188  12.043   7.542
63749SOL     OW93143  13.793   4.489   5.944
63749SOL    HW193144  13.782   4.395   5.929
63749SOL    HW293145  13.888   4.503   5.940
63750SOL     OW93146   9.909   7.862  12.986
63750SOL    HW193147   9.942   7.913  12.912
63750SOL    HW293148   9.901   7.773  12.951
63751SOL     OW93149  14.480  14.713   1.730
63751SOL    HW193150  14.443  14.800   1.717
63751SOL    HW293151  14.407  14.661   1.765
63752SOL     OW93152   8.067   5.028   2.125
63752SOL    HW193153   8.092   4.975   2.200
63752SOL    HW293154   8.122   5.106   2.131
63753SOL     OW93155  13.975   2.221  14.039
63753SOL    HW193156  14.039   2.285  14.068
63753SOL    HW293157  13.900   2.273  14.010
63754SOL     OW93158   5.203  11.940   1.343
63754SOL    HW193159   5.280  11.894   1.376
63754SOL    HW293160   5.145  11.948   1.419
63755SOL     OW93161   0.571   5.173  14.659
63755SOL    HW193162   0.511   5.128  14.719
63755SOL    HW293163   0.533   5.261  14.649
63756SOL     OW93164   5.247   7.429  11.455
63756SOL    HW193165   5.252   7.353  11.397
63756SOL    HW293166   5.179   7.484  11.416
63757SOL     OW93167   3.554   9.862   8.907
63757SOL    HW193168   3.576   9.829   8.995
63757SOL    HW293169   3.542   9.782   8.855
63758SOL     OW93170   9.927  13.901  12.652
63758SOL    HW193171  10.004  13.957  12.638
63758SOL    HW293172   9.868  13.954  12.705
63759SOL     OW93173   2.513   3.125  13.429
63759SOL    HW193174   2.587   3.085  13.382
63759SOL    HW293175   2.502   3.070  13.507
63760SOL     OW93176   3.055   0.695  13.913
63760SOL    HW193177   2.978   0.737  13.875
63760SOL    HW293178   3.032   0.680  14.005
63761SOL     OW93179  12.563   2.496  13.750
63761SOL    HW193180  12.644   2.533  13.785
63761SOL    HW293181  12.496   2.561  13.769
63762SOL     OW93182   0.058   9.379  13.985
63762SOL    HW193183   0.051   9.465  13.943
63762SOL    HW293184  14.852   9.360  14.015
63763SOL     OW93185   0.750   8.417   1.411
63763SOL    HW193186   0.839   8.449   1.410
63763SOL    HW293187   0.699   8.486   1.369
63764SOL     OW93188   8.826   8.832   0.653
63764SOL    HW193189   8.856   8.857   0.565
63764SOL    HW293190   8.736   8.804   0.640
63765SOL     OW93191   5.149   1.814   0.732
63765SOL    HW193192   5.124   1.731   0.692
63765SOL    HW293193   5.231   1.838   0.689
63766SOL     OW93194  14.626   9.883  12.069
63766SOL    HW193195  14.570   9.808  12.048
63766SOL    HW293196  14.649   9.871  12.161
63767SOL     OW93197   2.215  12.603   4.795
63767SOL    HW193198   2.305  12.586   4.822
63767SOL    HW293199   2.219  12.683   4.744
63768SOL     OW93200  13.478   7.507   6.665
63768SOL    HW193201  13.571   7.489   6.669
63768SOL    HW293202  13.469   7.577   6.599
63769SOL     OW93203   2.381  14.670   9.694
63769SOL    HW193204   2.300  14.671   9.744
63769SOL    HW293205   2.354  14.666   9.602
63770SOL     OW93206   2.848   6.373  13.556
63770SOL    HW193207   2.817   6.337  13.639
63770SOL    HW293208   2.937   6.404  13.575
63771SOL     OW93209   9.976   9.396  11.642
63771SOL    HW193210  10.038   9.362  11.578
63771SOL    HW293211  10.012   9.481  11.668
63772SOL     OW93212   2.593   8.753   5.413
63772SOL    HW193213   2.559   8.674   5.370
63772SOL    HW293214   2.678   8.727   5.447
63773SOL     OW93215  13.352  13.014   4.015
63773SOL    HW193216  13.287  13.039   4.081
63773SOL    HW293217  13.302  12.969   3.947
63774SOL     OW93218  11.786  12.492   3.786
63774SOL    HW193219  11.749  12.536   3.862
63774SOL    HW293220  11.723  12.510   3.715
63775SOL     OW93221   2.406   2.778   4.977
63775SOL    HW193222   2.344   2.730   4.923
63775SOL    HW293223   2.352   2.823   5.042
63776SOL     OW93224  11.591   1.756   2.421
63776SOL    HW193225  11.653   1.684   2.422
63776SOL    HW293226  11.556   1.759   2.511
63777SOL     OW93227  12.101   3.324   6.770
63777SOL    HW193228  12.006   3.328   6.779
63777SOL    HW293229  12.115   3.278   6.687
63778SOL     OW93230   4.769   7.210   0.139
63778SOL    HW193231   4.731   7.288   0.100
63778SOL    HW293232   4.792   7.236   0.228
63779SOL     OW93233  13.893  11.686   7.837
63779SOL    HW193234  13.956  11.665   7.768
63779SOL    HW293235  13.913  11.623   7.907
63780SOL     OW93236  13.510  12.171  10.866
63780SOL    HW193237  13.527  12.141  10.777
63780SOL    HW293238  13.449  12.244  10.855
63781SOL     OW93239   2.421  10.539   7.005
63781SOL    HW193240   2.477  10.537   7.083
63781SOL    HW293241   2.449  10.464   6.953
63782SOL     OW93242   8.507  13.078   3.874
63782SOL    HW193243   8.433  13.022   3.897
63782SOL    HW293244   8.566  13.073   3.948
63783SOL     OW93245   2.566   7.029   5.630
63783SOL    HW193246   2.645   6.978   5.650
63783SOL    HW293247   2.506   7.009   5.702
63784SOL     OW93248  12.838   0.721   6.417
63784SOL    HW193249  12.907   0.786   6.431
63784SOL    HW293250  12.827   0.680   6.503
63785SOL     OW93251   7.615  13.064  10.809
63785SOL    HW193252   7.700  13.075  10.768
63785SOL    HW293253   7.552  13.092  10.743
63786SOL     OW93254  13.399   3.421   2.346
63786SOL    HW193255  13.315   3.389   2.380
63786SOL    HW293256  13.391   3.516   2.347
63787SOL     OW93257  12.740   1.794  10.651
63787SOL    HW193258  12.679   1.744  10.706
63787SOL    HW293259  12.704   1.789  10.563
63788SOL     OW93260  12.812   8.574   1.075
63788SOL    HW193261  12.809   8.564   1.170
63788SOL    HW293262  12.785   8.664   1.059
63789SOL     OW93263  10.964   0.327   3.300
63789SOL    HW193264  10.912   0.260   3.255
63789SOL    HW293265  11.048   0.283   3.318
63790SOL     OW93266   5.662   0.295  10.298
63790SOL    HW193267   5.641   0.241  10.222
63790SOL    HW293268   5.735   0.250  10.340
63791SOL     OW93269   8.494   0.581   9.801
63791SOL    HW193270   8.522   0.516   9.866
63791SOL    HW293271   8.519   0.542   9.716
63792SOL     OW93272   8.450  11.530   1.782
63792SOL    HW193273   8.541  11.555   1.762
63792SOL    HW293274   8.455  11.438   1.805
63793SOL     OW93275   4.112   5.741  11.668
63793SOL    HW193276   4.017   5.730  11.661
63793SOL    HW293277   4.142   5.661  11.711
63794SOL     OW93278   6.441  11.770   1.947
63794SOL    HW193279   6.421  11.683   1.980
63794SOL    HW293280   6.440  11.826   2.024
63795SOL     OW93281   6.453   2.571   3.440
63795SOL    HW193282   6.441   2.664   3.423
63795SOL    HW293283   6.381   2.548   3.500
63796SOL     OW93284  13.252   0.978  12.773
63796SOL    HW193285  13.292   1.057  12.809
63796SOL    HW293286  13.283   0.908  12.831
63797SOL     OW93287  12.094   8.394   8.373
63797SOL    HW193288  12.006   8.382   8.409
63797SOL    HW293289  12.130   8.305   8.370
63798SOL     OW93290   4.443   7.009   6.431
63798SOL    HW193291   4.504   7.018   6.357
63798SOL    HW293292   4.407   7.097   6.443
63799SOL     OW93293   2.984  10.111   9.332
63799SOL    HW193294   3.033  10.061   9.266
63799SOL    HW293295   3.048  10.127   9.402
63800SOL     OW93296  10.092   8.394   1.355
63800SOL    HW193297  10.094   8.489   1.366
63800SOL    HW293298  10.100   8.381   1.261
63801SOL     OW93299   0.611  11.801   8.613
63801SOL    HW193300   0.534  11.778   8.561
63801SOL    HW293301   0.662  11.720   8.617
63802SOL     OW93302   4.771   5.397   3.513
63802SOL    HW193303   4.832   5.345   3.566
63802SOL    HW293304   4.758   5.477   3.564
63803SOL     OW93305   3.782  12.141  13.434
63803SOL    HW193306   3.816  12.228  13.413
63803SOL    HW293307   3.698  12.137  13.388
63804SOL     OW93308  11.573   9.380   5.923
63804SOL    HW193309  11.666   9.364   5.910
63804SOL    HW293310  11.533   9.354   5.840
63805SOL     OW93311   0.730   4.265   0.906
63805SOL    HW193312   0.647   4.217   0.909
63805SOL    HW293313   0.762   4.253   0.817
63806SOL     OW93314  10.515   1.430   4.237
63806SOL    HW193315  10.434   1.454   4.192
63806SOL    HW293316  10.533   1.506   4.294
63807SOL     OW93317  13.749  14.554  13.081
63807SOL    HW193318  13.811  14.607  13.132
63807SOL    HW293319  13.664  14.597  13.094
63808SOL     OW93320   8.543  13.447   2.457
63808SOL    HW193321   8.531  13.538   2.483
63808SOL    HW293322   8.470  13.430   2.397
63809SOL     OW93323   3.694   6.276   8.058
63809SOL    HW193324   3.765   6.218   8.032
63809SOL    HW293325   3.736   6.343   8.112
63810SOL     OW93326  13.791  10.223   0.493
63810SOL    HW193327  13.716  10.201   0.548
63810SOL    HW293328  13.811  10.142   0.446
63811SOL     OW93329  11.854   7.132   0.417
63811SOL    HW193330  11.834   7.081   0.495
63811SOL    HW293331  11.905   7.206   0.449
63812SOL     OW93332   2.517  10.531  10.243
63812SOL    HW193333   2.515  10.463  10.175
63812SOL    HW293334   2.467  10.493  10.315
63813SOL     OW93335   5.773   5.447  12.763
63813SOL    HW193336   5.753   5.374  12.821
63813SOL    HW293337   5.859   5.425  12.726
63814SOL     OW93338   4.913  13.208   5.068
63814SOL    HW193339   4.960  13.194   4.985
63814SOL    HW293340   4.873  13.124   5.088
63815SOL     OW93341   2.569   1.578  10.174
63815SOL    HW193342   2.482   1.566  10.137
63815SOL    HW293343   2.572   1.520  10.250
63816SOL     OW93344   6.352   2.051   1.785
63816SOL    HW193345   6.435   2.004   1.783
63816SOL    HW293346   6.376   2.143   1.781
63817SOL     OW93347  12.611  12.246   8.012
63817SOL    HW193348  12.523  12.275   8.038
63817SOL    HW293349  12.670  12.304   8.059
63818SOL     OW93350   5.264  10.960   4.373
63818SOL    HW193351   5.321  10.984   4.300
63818SOL    HW293352   5.289  11.019   4.444
63819SOL     OW93353   5.052  10.269   1.098
63819SOL    HW193354   4.960  10.252   1.076
63819SOL    HW293355   5.048  10.314   1.182
63820SOL     OW93356   4.748  12.952   5.101
63820SOL    HW193357   4.782  12.877   5.053
63820SOL    HW293358   4.743  12.923   5.192
63821SOL     OW93359   8.239   5.045   5.769
63821SOL    HW193360   8.217   5.126   5.722
63821SOL    HW293361   8.262   5.074   5.857
63822SOL     OW93362   8.640  14.111  13.448
63822SOL    HW193363   8.558  14.071  13.477
63822SOL    HW293364   8.617  14.202  13.430
63823SOL     OW93365   1.218   7.062  11.511
63823SOL    HW193366   1.205   6.968  11.527
63823SOL    HW293367   1.179   7.077  11.424
63824SOL     OW93368   1.365   7.929   6.607
63824SOL    HW193369   1.371   7.862   6.538
63824SOL    HW293370   1.276   7.964   6.599
63825SOL     OW93371   4.748   3.549   7.154
63825SOL    HW193372   4.657   3.574   7.139
63825SOL    HW293373   4.746   3.502   7.238
63826SOL     OW93374   0.988   9.466   2.725
63826SOL    HW193375   1.081   9.444   2.727
63826SOL    HW293376   0.966   9.467   2.632
63827SOL     OW93377  12.368   2.704   3.007
63827SOL    HW193378  12.332   2.778   3.056
63827SOL    HW293379  12.403   2.645   3.075
63828SOL     OW93380   4.104  11.383   1.139
63828SOL    HW193381   4.103  11.435   1.058
63828SOL    HW293382   4.089  11.447   1.209
63829SOL     OW93383  14.620   4.908  10.236
63829SOL    HW193384  14.599   4.937  10.147
63829SOL    HW293385  14.715   4.908  10.240
63830SOL     OW93386  10.240  12.232   5.874
63830SOL    HW193387  10.183  12.288   5.926
63830SOL    HW293388  10.283  12.175   5.939
63831SOL     OW93389  13.161   2.071  10.220
63831SOL    HW193390  13.101   2.133  10.179
63831SOL    HW293391  13.158   1.994  10.165
63832SOL     OW93392  11.166  14.306   9.038
63832SOL    HW193393  11.196  14.375   8.979
63832SOL    HW293394  11.088  14.270   8.995
63833SOL     OW93395   5.472   7.083   8.644
63833SOL    HW193396   5.435   7.058   8.559
63833SOL    HW293397   5.558   7.119   8.623
63834SOL     OW93398  13.306   9.591   0.898
63834SOL    HW193399  13.236   9.578   0.833
63834SOL    HW293400  13.385   9.561   0.854
63835SOL     OW93401  11.122   4.391   1.283
63835SOL    HW193402  11.033   4.364   1.305
63835SOL    HW293403  11.156   4.430   1.364
63836SOL     OW93404   5.347   8.530   1.391
63836SOL    HW193405   5.271   8.572   1.350
63836SOL    HW293406   5.420   8.550   1.332
63837SOL     OW93407   7.913   4.261  12.448
63837SOL    HW193408   7.854   4.187  12.436
63837SOL    HW293409   7.977   4.252  12.377
63838SOL     OW93410   8.939  11.840   2.417
63838SOL    HW193411   8.923  11.774   2.484
63838SOL    HW293412   8.994  11.905   2.459
63839SOL     OW93413  14.354  14.393   0.985
63839SOL    HW193414  14.381  14.460   1.048
63839SOL    HW293415  14.435  14.361   0.947
63840SOL     OW93416   1.046   2.514   0.313
63840SOL    HW193417   1.103   2.591   0.321
63840SOL    HW293418   1.095   2.453   0.259
63841SOL     OW93419   0.411   4.294   8.235
63841SOL    HW193420   0.349   4.344   8.182
63841SOL    HW293421   0.486   4.352   8.245
63842SOL     OW93422  13.901   0.194   5.099
63842SOL    HW193423  13.879   0.192   5.192
63842SOL    HW293424  13.898   0.102   5.071
63843SOL     OW93425   8.089   1.933   1.248
63843SOL    HW193426   7.994   1.946   1.251
63843SOL    HW293427   8.107   1.870   1.319
63844SOL     OW93428   0.106   7.394   3.054
63844SOL    HW193429   0.054   7.459   3.102
63844SOL    HW293430   0.124   7.435   2.969
63845SOL     OW93431   1.509  14.191   2.872
63845SOL    HW193432   1.501  14.150   2.785
63845SOL    HW293433   1.584  14.147   2.912
63846SOL     OW93434   5.817   9.331  10.509
63846SOL    HW193435   5.812   9.266  10.439
63846SOL    HW293436   5.742   9.388  10.495
63847SOL     OW93437   2.240  14.255   4.930
63847SOL    HW193438   2.151  14.227   4.909
63847SOL    HW293439   2.238  14.350   4.920
63848SOL     OW93440  10.691  10.525  13.941
63848SOL    HW193441  10.607  10.478  13.940
63848SOL    HW293442  10.752  10.467  13.896
63849SOL     OW93443   4.298  14.158   7.651
63849SOL    HW193444   4.245  14.093   7.697
63849SOL    HW293445   4.235  14.209   7.599
63850SOL     OW93446  12.995  12.167  10.856
63850SOL    HW193447  13.038  12.142  10.774
63850SOL    HW293448  13.067  12.178  10.918
63851SOL     OW93449  10.064   6.206   1.160
63851SOL    HW193450  10.044   6.116   1.135
63851SOL    HW293451   9.995   6.230   1.222
63852SOL     OW93452   0.307   8.378   6.743
63852SOL    HW193453   0.395   8.409   6.723
63852SOL    HW293454   0.309   8.284   6.724
63853SOL     OW93455   8.108   0.215  10.780
63853SOL    HW193456   8.129   0.136  10.830
63853SOL    HW293457   8.039   0.188  10.720
63854SOL     OW93458  11.701   6.417   8.217
63854SOL    HW193459  11.668   6.492   8.266
63854SOL    HW293460  11.626   6.388   8.165
63855SOL     OW93461  13.733   3.264   8.714
63855SOL    HW193462  13.685   3.346   8.705
63855SOL    HW293463  13.707   3.231   8.800
63856SOL     OW93464  12.573   2.876   0.151
63856SOL    HW193465  12.488   2.885   0.107
63856SOL    HW293466  12.582   2.956   0.203
63857SOL     OW93467   4.969   5.137   2.790
63857SOL    HW193468   4.876   5.159   2.791
63857SOL    HW293469   4.988   5.112   2.700
63858SOL     OW93470   4.822  11.716  13.826
63858SOL    HW193471   4.743  11.695  13.876
63858SOL    HW293472   4.821  11.654  13.753
63859SOL     OW93473  10.006   1.908   7.538
63859SOL    HW193474   9.937   1.843   7.523
63859SOL    HW293475   9.965   1.992   7.518
63860SOL     OW93476   5.330  13.028  13.698
63860SOL    HW193477   5.322  13.091  13.769
63860SOL    HW293478   5.245  13.030  13.654
63861SOL     OW93479  12.272   0.575   3.166
63861SOL    HW193480  12.282   0.652   3.222
63861SOL    HW293481  12.217   0.605   3.094
63862SOL     OW93482  13.234  12.509   3.600
63862SOL    HW193483  13.158  12.567   3.599
63862SOL    HW293484  13.230  12.462   3.517
63863SOL     OW93485   7.608   7.107  12.268
63863SOL    HW193486   7.702   7.120  12.261
63863SOL    HW293487   7.574   7.193  12.293
63864SOL     OW93488   2.784  10.002  11.773
63864SOL    HW193489   2.742  10.080  11.811
63864SOL    HW293490   2.778  10.015  11.679
63865SOL     OW93491   4.336   0.283   5.273
63865SOL    HW193492   4.312   0.354   5.213
63865SOL    HW293493   4.254   0.259   5.315
63866SOL     OW93494   7.757   3.728   9.208
63866SOL    HW193495   7.771   3.791   9.137
63866SOL    HW293496   7.662   3.723   9.218
63867SOL     OW93497   3.291  11.082   1.400
63867SOL    HW193498   3.238  11.112   1.474
63867SOL    HW293499   3.254  11.129   1.325
63868SOL     OW93500   4.832  12.222   9.444
63868SOL    HW193501   4.902  12.262   9.496
63868SOL    HW293502   4.802  12.148   9.497
63869SOL     OW93503   5.751  11.963   2.598
63869SOL    HW193504   5.772  11.874   2.626
63869SOL    HW293505   5.786  12.019   2.667
63870SOL     OW93506   3.379   9.025   2.680
63870SOL    HW193507   3.443   8.971   2.633
63870SOL    HW293508   3.412   9.115   2.671
63871SOL     OW93509   5.332  14.085   4.440
63871SOL    HW193510   5.398  14.046   4.498
63871SOL    HW293511   5.269  14.126   4.499
63872SOL     OW93512   2.431  10.240  12.092
63872SOL    HW193513   2.418  10.330  12.123
63872SOL    HW293514   2.477  10.196  12.163
63873SOL     OW93515  10.085  12.098   4.039
63873SOL    HW193516  10.132  12.026   3.996
63873SOL    HW293517  10.055  12.153   3.967
63874SOL     OW93518  12.720   4.324   0.187
63874SOL    HW193519  12.764   4.242   0.209
63874SOL    HW293520  12.728   4.332   0.092
63875SOL     OW93521   1.305   4.144  11.836
63875SOL    HW193522   1.291   4.236  11.814
63875SOL    HW293523   1.375   4.116  11.776
63876SOL     OW93524   4.651   4.159   8.212
63876SOL    HW193525   4.562   4.126   8.204
63876SOL    HW293526   4.672   4.193   8.125
63877SOL     OW93527  13.250   1.792   0.798
63877SOL    HW193528  13.280   1.702   0.781
63877SOL    HW293529  13.273   1.808   0.889
63878SOL     OW93530   7.019   3.305   9.355
63878SOL    HW193531   7.054   3.394   9.363
63878SOL    HW293532   7.057   3.272   9.273
63879SOL     OW93533   0.566  14.592   8.528
63879SOL    HW193534   0.632  14.658   8.508
63879SOL    HW293535   0.516  14.629   8.601
63880SOL     OW93536   6.541   3.504  10.400
63880SOL    HW193537   6.589   3.475  10.322
63880SOL    HW293538   6.609   3.516  10.467
63881SOL     OW93539  12.521  12.297   3.199
63881SOL    HW193540  12.480  12.319   3.282
63881SOL    HW293541  12.462  12.333   3.132
63882SOL     OW93542   0.856   5.602   5.343
63882SOL    HW193543   0.865   5.591   5.248
63882SOL    HW293544   0.762   5.615   5.357
63883SOL     OW93545   6.413  11.018   9.596
63883SOL    HW193546   6.492  11.032   9.647
63883SOL    HW293547   6.444  11.007   9.506
63884SOL     OW93548   1.526   8.448   9.240
63884SOL    HW193549   1.573   8.518   9.193
63884SOL    HW293550   1.523   8.376   9.177
63885SOL     OW93551  10.133   7.009  12.916
63885SOL    HW193552  10.169   7.094  12.890
63885SOL    HW293553  10.208   6.950  12.916
63886SOL     OW93554   9.924   7.610  10.242
63886SOL    HW193555   9.905   7.582  10.332
63886SOL    HW293556   9.871   7.553  10.187
63887SOL     OW93557  12.609   7.169   6.617
63887SOL    HW193558  12.669   7.200   6.550
63887SOL    HW293559  12.556   7.246   6.639
63888SOL     OW93560   2.216   7.489  14.024
63888SOL    HW193561   2.183   7.476  13.935
63888SOL    HW293562   2.190   7.579  14.045
63889SOL     OW93563   7.064   9.695  12.881
63889SOL    HW193564   7.014   9.767  12.920
63889SOL    HW293565   7.032   9.616  12.926
63890SOL     OW93566   4.752   4.184   3.962
63890SOL    HW193567   4.782   4.130   3.888
63890SOL    HW293568   4.787   4.140   4.039
63891SOL     OW93569   0.127  14.773   0.175
63891SOL    HW193570   0.145  14.745   0.086
63891SOL    HW293571   0.042  14.818   0.170
63892SOL     OW93572  14.254   3.589  10.320
63892SOL    HW193573  14.309   3.649  10.269
63892SOL    HW293574  14.210   3.645  10.384
63893SOL     OW93575   8.103   1.288  10.635
63893SOL    HW193576   8.096   1.232  10.558
63893SOL    HW293577   8.160   1.359  10.608
63894SOL     OW93578   3.531  12.792  11.598
63894SOL    HW193579   3.523  12.759  11.688
63894SOL    HW293580   3.441  12.797  11.566
63895SOL     OW93581  12.746   3.749   8.584
63895SOL    HW193582  12.708   3.775   8.500
63895SOL    HW293583  12.711   3.813   8.646
63896SOL     OW93584   3.252   8.261  14.585
63896SOL    HW193585   3.198   8.286  14.661
63896SOL    HW293586   3.237   8.331  14.521
63897SOL     OW93587   0.611   6.453   2.428
63897SOL    HW193588   0.553   6.461   2.352
63897SOL    HW293589   0.576   6.379   2.477
63898SOL     OW93590   8.927   3.671   9.778
63898SOL    HW193591   8.874   3.748   9.802
63898SOL    HW293592   8.895   3.647   9.691
63899SOL     OW93593   1.788   0.805   3.968
63899SOL    HW193594   1.793   0.846   3.882
63899SOL    HW293595   1.879   0.804   4.000
63900SOL     OW93596   2.494   8.031  13.500
63900SOL    HW193597   2.456   8.091  13.436
63900SOL    HW293598   2.586   8.057  13.505
63901SOL     OW93599   0.022   6.419   6.925
63901SOL    HW193600  14.833   6.457   6.874
63901SOL    HW293601   0.099   6.427   6.868
63902SOL     OW93602   6.243   4.474   1.917
63902SOL    HW193603   6.327   4.476   1.870
63902SOL    HW293604   6.217   4.382   1.916
63903SOL     OW93605   5.649  10.397   0.650
63903SOL    HW193606   5.663  10.488   0.675
63903SOL    HW293607   5.717  10.348   0.697
63904SOL     OW93608   4.847  12.446   6.329
63904SOL    HW193609   4.780  12.428   6.394
63904SOL    HW293610   4.878  12.534   6.349
63905SOL     OW93611   5.610  10.556   3.425
63905SOL    HW193612   5.549  10.482   3.425
63905SOL    HW293613   5.601  10.595   3.339
63906SOL     OW93614  13.061  14.787   5.075
63906SOL    HW193615  13.108  14.713   5.035
63906SOL    HW293616  13.116  14.813   5.148
63907SOL     OW93617   9.948  13.637   8.695
63907SOL    HW193618  10.013  13.693   8.736
63907SOL    HW293619   9.865  13.664   8.733
63908SOL     OW93620   0.935   1.701   1.979
63908SOL    HW193621   0.892   1.616   1.994
63908SOL    HW293622   0.885   1.740   1.906
63909SOL     OW93623   1.561   6.297   2.892
63909SOL    HW193624   1.517   6.260   2.815
63909SOL    HW293625   1.653   6.276   2.879
63910SOL     OW93626  10.416   7.666   0.651
63910SOL    HW193627  10.493   7.647   0.597
63910SOL    HW293628  10.342   7.645   0.594
63911SOL     OW93629   8.055   0.728  13.595
63911SOL    HW193630   8.077   0.784  13.669
63911SOL    HW293631   8.083   0.777  13.518
63912SOL     OW93632   1.539   7.201  13.811
63912SOL    HW193633   1.598   7.220  13.737
63912SOL    HW293634   1.461   7.254  13.794
63913SOL     OW93635  11.534  11.157   4.288
63913SOL    HW193636  11.486  11.177   4.369
63913SOL    HW293637  11.564  11.242   4.257
63914SOL     OW93638  11.832  10.352   6.478
63914SOL    HW193639  11.756  10.338   6.534
63914SOL    HW293640  11.797  10.395   6.400
63915SOL     OW93641  13.720   5.905   8.200
63915SOL    HW193642  13.769   5.839   8.150
63915SOL    HW293643  13.729   5.985   8.149
63916SOL     OW93644  13.397  10.040  12.953
63916SOL    HW193645  13.364  10.125  12.981
63916SOL    HW293646  13.379   9.982  13.027
63917SOL     OW93647   4.513   8.869   9.696
63917SOL    HW193648   4.483   8.796   9.641
63917SOL    HW293649   4.593   8.899   9.654
63918SOL     OW93650  10.080   1.668  10.619
63918SOL    HW193651  10.065   1.760  10.641
63918SOL    HW293652  10.057   1.662  10.526
63919SOL     OW93653   8.893   4.675   9.606
63919SOL    HW193654   8.823   4.719   9.653
63919SOL    HW293655   8.850   4.632   9.532
63920SOL     OW93656   6.783   7.152   3.321
63920SOL    HW193657   6.810   7.100   3.246
63920SOL    HW293658   6.861   7.202   3.346
63921SOL     OW93659  13.171   3.182   0.913
63921SOL    HW193660  13.257   3.182   0.872
63921SOL    HW293661  13.120   3.246   0.862
63922SOL     OW93662   9.132  13.982  12.252
63922SOL    HW193663   9.174  13.945  12.329
63922SOL    HW293664   9.040  13.992  12.277
63923SOL     OW93665  12.525   9.407   7.187
63923SOL    HW193666  12.567   9.321   7.187
63923SOL    HW293667  12.534   9.439   7.276
63924SOL     OW93668   5.327  12.281  11.024
63924SOL    HW193669   5.312  12.337  10.947
63924SOL    HW293670   5.285  12.198  11.002
63925SOL     OW93671   4.352  11.231   0.945
63925SOL    HW193672   4.270  11.270   0.916
63925SOL    HW293673   4.364  11.265   1.034
63926SOL     OW93674   4.024   4.481   1.050
63926SOL    HW193675   3.999   4.516   0.965
63926SOL    HW293676   4.046   4.389   1.033
63927SOL     OW93677  13.761   7.241  13.052
63927SOL    HW193678  13.724   7.228  13.139
63927SOL    HW293679  13.713   7.315  13.016
63928SOL     OW93680  10.132  11.344   8.388
63928SOL    HW193681  10.221  11.369   8.414
63928SOL    HW293682  10.136  11.336   8.293
63929SOL     OW93683   7.234   1.749  11.860
63929SOL    HW193684   7.165   1.740  11.926
63929SOL    HW293685   7.309   1.786  11.907
63930SOL     OW93686   6.833   8.965  14.303
63930SOL    HW193687   6.823   8.927  14.390
63930SOL    HW293688   6.789   8.903  14.245
63931SOL     OW93689   7.749   0.726   3.536
63931SOL    HW193690   7.699   0.658   3.582
63931SOL    HW293691   7.689   0.801   3.533
63932SOL     OW93692   8.051   8.650   2.142
63932SOL    HW193693   8.086   8.623   2.056
63932SOL    HW293694   7.957   8.638   2.134
63933SOL     OW93695   9.030  12.963   3.713
63933SOL    HW193696   9.124  12.969   3.697
63933SOL    HW293697   8.992  12.946   3.626
63934SOL     OW93698   9.299   4.080  13.126
63934SOL    HW193699   9.349   4.047  13.052
63934SOL    HW293700   9.330   4.170  13.137
63935SOL     OW93701  13.454   1.488  10.388
63935SOL    HW193702  13.496   1.550  10.448
63935SOL    HW293703  13.422   1.418  10.445
63936SOL     OW93704   9.705   9.139   8.011
63936SOL    HW193705   9.641   9.092   7.958
63936SOL    HW293706   9.745   9.202   7.951
63937SOL     OW93707  13.610   4.731   6.217
63937SOL    HW193708  13.643   4.742   6.129
63937SOL    HW293709  13.576   4.641   6.219
63938SOL     OW93710  10.447   5.884  13.416
63938SOL    HW193711  10.371   5.861  13.363
63938SOL    HW293712  10.521   5.877  13.357
63939SOL     OW93713   3.081  11.070   6.445
63939SOL    HW193714   2.991  11.103   6.454
63939SOL    HW293715   3.071  10.989   6.393
63940SOL     OW93716   2.402  11.168  13.410
63940SOL    HW193717   2.449  11.091  13.378
63940SOL    HW293718   2.380  11.218  13.331
63941SOL     OW93719   9.387  10.239  14.114
63941SOL    HW193720   9.466  10.270  14.157
63941SOL    HW293721   9.411  10.234  14.021
63942SOL     OW93722  10.776  12.780   3.466
63942SOL    HW193723  10.740  12.760   3.553
63942SOL    HW293724  10.726  12.856   3.436
63943SOL     OW93725   3.678   6.819  13.410
63943SOL    HW193726   3.698   6.845  13.500
63943SOL    HW293727   3.687   6.724  13.411
63944SOL     OW93728   1.998   5.514   5.074
63944SOL    HW193729   1.940   5.564   5.132
63944SOL    HW293730   2.054   5.464   5.134
63945SOL     OW93731   3.075  11.875  14.557
63945SOL    HW193732   3.098  11.886  14.649
63945SOL    HW293733   3.101  11.957  14.515
63946SOL     OW93734   2.619   6.933  14.439
63946SOL    HW193735   2.627   6.847  14.482
63946SOL    HW293736   2.541   6.925  14.384
63947SOL     OW93737   6.665   2.040  13.737
63947SOL    HW193738   6.621   1.969  13.784
63947SOL    HW293739   6.662   2.013  13.645
63948SOL     OW93740   3.514   8.140   8.586
63948SOL    HW193741   3.589   8.155   8.529
63948SOL    HW293742   3.445   8.106   8.529
63949SOL     OW93743   0.745   6.901  11.822
63949SOL    HW193744   0.763   6.807  11.818
63949SOL    HW293745   0.810   6.935  11.885
63950SOL     OW93746   7.934  10.097  10.922
63950SOL    HW193747   7.974  10.069  10.840
63950SOL    HW293748   8.008  10.104  10.983
63951SOL     OW93749   8.027   8.900   8.659
63951SOL    HW193750   7.974   8.853   8.594
63951SOL    HW293751   7.982   8.984   8.670
63952SOL     OW93752  10.719   6.261   3.137
63952SOL    HW193753  10.760   6.260   3.224
63952SOL    HW293754  10.673   6.345   3.133
63953SOL     OW93755   0.106  10.189   0.423
63953SOL    HW193756   0.038  10.255   0.412
63953SOL    HW293757   0.188  10.234   0.403
63954SOL     OW93758   5.115  11.221  13.697
63954SOL    HW193759   5.091  11.196  13.607
63954SOL    HW293760   5.033  11.216  13.745
63955SOL     OW93761   2.942  13.922  14.806
63955SOL    HW193762   2.869  13.912  14.745
63955SOL    HW293763   2.907  13.975  14.877
63956SOL     OW93764   3.266   2.898   4.762
63956SOL    HW193765   3.285   2.826   4.702
63956SOL    HW293766   3.201   2.951   4.716
63957SOL     OW93767   2.325   1.607  12.276
63957SOL    HW193768   2.308   1.588  12.368
63957SOL    HW293769   2.412   1.645  12.274
63958SOL     OW93770   3.373   8.331  11.513
63958SOL    HW193771   3.286   8.292  11.514
63958SOL    HW293772   3.432   8.257  11.529
63959SOL     OW93773  14.135   5.479  12.819
63959SOL    HW193774  14.047   5.485  12.781
63959SOL    HW293775  14.153   5.568  12.852
63960SOL     OW93776   7.866   2.200  14.602
63960SOL    HW193777   7.825   2.184  14.517
63960SOL    HW293778   7.954   2.162  14.594
63961SOL     OW93779   3.077   2.808   5.475
63961SOL    HW193780   3.063   2.714   5.487
63961SOL    HW293781   3.084   2.819   5.380
63962SOL     OW93782   5.610  11.741   1.227
63962SOL    HW193783   5.670  11.765   1.157
63962SOL    HW293784   5.538  11.696   1.183
63963SOL     OW93785  11.711  10.146  12.720
63963SOL    HW193786  11.758  10.063  12.715
63963SOL    HW293787  11.619  10.122  12.728
63964SOL     OW93788  14.512  10.938   3.503
63964SOL    HW193789  14.569  10.993   3.449
63964SOL    HW293790  14.424  10.958   3.472
63965SOL     OW93791   8.968   2.695  11.955
63965SOL    HW193792   9.045   2.751  11.965
63965SOL    HW293793   8.990   2.636  11.883
63966SOL     OW93794   9.401   2.373   2.487
63966SOL    HW193795   9.476   2.414   2.443
63966SOL    HW293796   9.415   2.279   2.476
63967SOL     OW93797   1.085   3.717   1.681
63967SOL    HW193798   1.063   3.632   1.720
63967SOL    HW293799   1.001   3.755   1.657
63968SOL     OW93800   4.630  13.872   2.867
63968SOL    HW193801   4.654  13.962   2.891
63968SOL    HW293802   4.649  13.821   2.945
63969SOL     OW93803  10.294   8.655   8.921
63969SOL    HW193804  10.283   8.709   8.842
63969SOL    HW293805  10.300   8.565   8.889
63970SOL     OW93806  11.257   1.627   1.359
63970SOL    HW193807  11.164   1.647   1.360
63970SOL    HW293808  11.276   1.594   1.447
63971SOL     OW93809  13.408  12.853   7.714
63971SOL    HW193810  13.445  12.795   7.648
63971SOL    HW293811  13.439  12.818   7.798
63972SOL     OW93812  13.122   9.149   9.732
63972SOL    HW193813  13.197   9.107   9.775
63972SOL    HW293814  13.157   9.230   9.695
63973SOL     OW93815   8.143   7.574  10.196
63973SOL    HW193816   8.195   7.563  10.116
63973SOL    HW293817   8.194   7.635  10.250
63974SOL     OW93818   7.792   2.120   6.469
63974SOL    HW193819   7.700   2.108   6.491
63974SOL    HW293820   7.826   2.177   6.539
63975SOL     OW93821  11.275   7.895  12.284
63975SOL    HW193822  11.317   7.822  12.238
63975SOL    HW293823  11.237   7.856  12.363
63976SOL     OW93824   8.509   7.579  14.552
63976SOL    HW193825   8.572   7.640  14.589
63976SOL    HW293826   8.553   7.541  14.477
63977SOL     OW93827  12.321   7.098   2.038
63977SOL    HW193828  12.364   7.042   2.103
63977SOL    HW293829  12.388   7.163   2.015
63978SOL     OW93830   4.755   7.600  12.926
63978SOL    HW193831   4.784   7.567  12.841
63978SOL    HW293832   4.802   7.683  12.937
63979SOL     OW93833   0.092  14.389   2.970
63979SOL    HW193834   0.066  14.305   3.009
63979SOL    HW293835   0.045  14.392   2.887
63980SOL     OW93836   6.179  12.127  14.813
63980SOL    HW193837   6.093  12.145  14.849
63980SOL    HW293838   6.163  12.067  14.740
63981SOL     OW93839  13.487  12.376   4.440
63981SOL    HW193840  13.549  12.412   4.377
63981SOL    HW293841  13.495  12.432   4.517
63982SOL     OW93842   9.695  13.469  10.420
63982SOL    HW193843   9.694  13.398  10.356
63982SOL    HW293844   9.713  13.425  10.503
63983SOL     OW93845   4.705   1.275  11.357
63983SOL    HW193846   4.686   1.314  11.272
63983SOL    HW293847   4.737   1.348  11.410
63984SOL     OW93848   9.105   7.713   4.174
63984SOL    HW193849   9.041   7.643   4.181
63984SOL    HW293850   9.072   7.769   4.103
63985SOL     OW93851   4.447   8.836   6.931
63985SOL    HW193852   4.416   8.821   6.842
63985SOL    HW293853   4.369   8.832   6.985
63986SOL     OW93854   0.129  14.319   6.727
63986SOL    HW193855   0.106  14.304   6.819
63986SOL    HW293856   0.123  14.233   6.686
63987SOL     OW93857  14.758   5.757   1.603
63987SOL    HW193858  14.815   5.806   1.544
63987SOL    HW293859  14.815   5.690   1.641
63988SOL     OW93860   8.091   0.880  13.354
63988SOL    HW193861   8.068   0.888  13.261
63988SOL    HW293862   8.036   0.945  13.398
63989SOL     OW93863  12.292   0.193   0.272
63989SOL    HW193864  12.273   0.160   0.184
63989SOL    HW293865  12.226   0.153   0.328
63990SOL     OW93866   7.517  10.683  14.361
63990SOL    HW193867   7.553  10.660  14.275
63990SOL    HW293868   7.541  10.775  14.373
63991SOL     OW93869   5.068   0.216   7.085
63991SOL    HW193870   5.007   0.143   7.079
63991SOL    HW293871   5.147   0.178   7.123
63992SOL     OW93872  13.444  14.438   7.046
63992SOL    HW193873  13.386  14.514   7.048
63992SOL    HW293874  13.394  14.372   6.997
63993SOL     OW93875  11.325   6.338  11.357
63993SOL    HW193876  11.290   6.262  11.403
63993SOL    HW293877  11.347   6.305  11.270
63994SOL     OW93878   4.604   8.060   7.742
63994SOL    HW193879   4.663   8.014   7.802
63994SOL    HW293880   4.638   8.042   7.655
63995SOL     OW93881  11.547   7.458   4.133
63995SOL    HW193882  11.615   7.452   4.200
63995SOL    HW293883  11.501   7.540   4.154
63996SOL     OW93884   0.534   8.594  10.048
63996SOL    HW193885   0.480   8.596   9.968
63996SOL    HW293886   0.473   8.618  10.118
63997SOL     OW93887   7.377   9.668   8.715
63997SOL    HW193888   7.470   9.667   8.738
63997SOL    HW293889   7.373   9.624   8.630
63998SOL     OW93890  12.710   4.204  13.209
63998SOL    HW193891  12.765   4.279  13.186
63998SOL    HW293892  12.766   4.128  13.194
63999SOL     OW93893  13.143  13.145   4.953
63999SOL    HW193894  13.129  13.162   5.046
63999SOL    HW293895  13.237  13.158   4.940
64000SOL     OW93896   3.626  14.734   9.013
64000SOL    HW193897   3.631  14.679   8.935
64000SOL    HW293898   3.540  14.776   9.008
64001SOL     OW93899  14.570  13.809  12.048
64001SOL    HW193900  14.571  13.903  12.061
64001SOL    HW293901  14.553  13.797  11.954
64002SOL     OW93902   9.402   7.692   4.804
64002SOL    HW193903   9.489   7.727   4.787
64002SOL    HW293904   9.373   7.736   4.883
64003SOL     OW93905   1.171   8.576   6.121
64003SOL    HW193906   1.260   8.591   6.150
64003SOL    HW293907   1.179   8.551   6.029
64004SOL     OW93908  10.100   3.335   6.852
64004SOL    HW193909  10.073   3.386   6.929
64004SOL    HW293910  10.192   3.356   6.839
64005SOL     OW93911   2.569   1.462   4.886
64005SOL    HW193912   2.541   1.384   4.933
64005SOL    HW293913   2.501   1.527   4.905
64006SOL     OW93914   4.966  11.635  12.224
64006SOL    HW193915   4.936  11.599  12.140
64006SOL    HW293916   5.025  11.568  12.259
64007SOL     OW93917   4.631  14.044   3.592
64007SOL    HW193918   4.673  14.129   3.577
64007SOL    HW293919   4.634  14.000   3.507
64008SOL     OW93920  13.994   8.890  13.068
64008SOL    HW193921  13.981   8.797  13.052
64008SOL    HW293922  14.024   8.896  13.159
64009SOL     OW93923   3.322  12.511   7.342
64009SOL    HW193924   3.349  12.452   7.412
64009SOL    HW293925   3.236  12.542   7.371
64010SOL     OW93926  13.841   4.706   1.177
64010SOL    HW193927  13.784   4.659   1.115
64010SOL    HW293928  13.925   4.713   1.132
64011SOL     OW93929  12.039   4.307   3.597
64011SOL    HW193930  11.943   4.306   3.601
64011SOL    HW293931  12.064   4.384   3.647
64012SOL     OW93932  14.437   0.474  12.877
64012SOL    HW193933  14.412   0.555  12.834
64012SOL    HW293934  14.513   0.498  12.931
64013SOL     OW93935   9.007  10.793  13.591
64013SOL    HW193936   9.021  10.710  13.635
64013SOL    HW293937   8.918  10.819  13.615
64014SOL     OW93938   6.834   9.021  11.469
64014SOL    HW193939   6.819   8.926  11.469
64014SOL    HW293940   6.833   9.045  11.376
64015SOL     OW93941   6.182   3.808   6.353
64015SOL    HW193942   6.241   3.883   6.342
64015SOL    HW293943   6.129   3.807   6.273
64016SOL     OW93944  10.784   4.961   7.253
64016SOL    HW193945  10.872   4.999   7.264
64016SOL    HW293946  10.739   5.023   7.196
64017SOL     OW93947   5.981  13.635  12.108
64017SOL    HW193948   5.989  13.667  12.018
64017SOL    HW293949   5.891  13.658  12.134
64018SOL     OW93950  11.841   7.561   4.730
64018SOL    HW193951  11.916   7.613   4.758
64018SOL    HW293952  11.773   7.626   4.711
64019SOL     OW93953   7.767  11.250   4.710
64019SOL    HW193954   7.813  11.331   4.686
64019SOL    HW293955   7.718  11.227   4.631
64020SOL     OW93956   0.735   6.200   0.333
64020SOL    HW193957   0.658   6.164   0.289
64020SOL    HW293958   0.754   6.280   0.285
64021SOL     OW93959  11.942   3.334   6.325
64021SOL    HW193960  11.912   3.391   6.254
64021SOL    HW293961  11.908   3.375   6.405
64022SOL     OW93962   2.798   0.334   2.580
64022SOL    HW193963   2.729   0.394   2.551
64022SOL    HW293964   2.802   0.267   2.511
64023SOL     OW93965   9.064  14.258  13.125
64023SOL    HW193966   9.096  14.176  13.085
64023SOL    HW293967   9.139  14.293  13.172
64024SOL     OW93968  11.711  10.996  10.030
64024SOL    HW193969  11.630  10.952  10.056
64024SOL    HW293970  11.750  10.937   9.966
64025SOL     OW93971   7.329   7.353   0.755
64025SOL    HW193972   7.274   7.312   0.822
64025SOL    HW293973   7.399   7.290   0.739
64026SOL     OW93974   1.149  14.438   4.816
64026SOL    HW193975   1.164  14.440   4.910
64026SOL    HW293976   1.054  14.428   4.808
64027SOL     OW93977  12.938   9.259  12.869
64027SOL    HW193978  13.029   9.281  12.890
64027SOL    HW293979  12.905   9.337  12.825
64028SOL     OW93980   4.603   6.209  13.642
64028SOL    HW193981   4.635   6.260  13.717
64028SOL    HW293982   4.513   6.240  13.629
64029SOL     OW93983  13.724  13.567   6.285
64029SOL    HW193984  13.757  13.515   6.358
64029SOL    HW293985  13.757  13.522   6.207
64030SOL     OW93986  11.678  10.650  13.219
64030SOL    HW193987  11.607  10.615  13.272
64030SOL    HW293988  11.688  10.741  13.249
64031SOL     OW93989  12.436   1.915   7.924
64031SOL    HW193990  12.457   1.936   8.015
64031SOL    HW293991  12.371   1.845   7.930
64032SOL     OW93992  10.192   3.018   3.220
64032SOL    HW193993  10.164   2.999   3.310
64032SOL    HW293994  10.149   2.951   3.167
64033SOL     OW93995   1.269   5.765  13.825
64033SOL    HW193996   1.305   5.709  13.894
64033SOL    HW293997   1.204   5.819  13.870
64034SOL     OW93998   5.384  14.064   8.532
64034SOL    HW193999   5.352  13.984   8.574
64034SOL    HW294000   5.479  14.060   8.542
64035SOL     OW94001   3.902   2.344   6.176
64035SOL    HW194002   3.940   2.266   6.218
64035SOL    HW294003   3.927   2.416   6.234
64036SOL     OW94004   4.634   3.072   6.232
64036SOL    HW194005   4.541   3.056   6.248
64036SOL    HW294006   4.670   2.985   6.211
64037SOL     OW94007   1.064  12.719   0.451
64037SOL    HW194008   1.109  12.801   0.434
64037SOL    HW294009   1.120  12.673   0.514
64038SOL     OW94010  11.705   3.594   2.310
64038SOL    HW194011  11.703   3.552   2.396
64038SOL    HW294012  11.772   3.662   2.317
64039SOL     OW94013   7.177   8.141  12.191
64039SOL    HW194014   7.200   8.195  12.266
64039SOL    HW294015   7.158   8.203  12.121
64040SOL     OW94016  14.010   7.653   9.323
64040SOL    HW194017  13.965   7.610   9.395
64040SOL    HW294018  13.956   7.729   9.303
64041SOL     OW94019  10.892  11.462   2.497
64041SOL    HW194020  10.874  11.433   2.407
64041SOL    HW294021  10.981  11.430   2.514
64042SOL     OW94022  11.542  13.790  13.476
64042SOL    HW194023  11.598  13.725  13.518
64042SOL    HW294024  11.490  13.740  13.413
64043SOL     OW94025   4.843   8.265  14.307
64043SOL    HW194026   4.859   8.173  14.285
64043SOL    HW294027   4.926   8.297  14.342
64044SOL     OW94028  14.087   3.947   9.506
64044SOL    HW194029  14.095   4.037   9.475
64044SOL    HW294030  14.106   3.952   9.600
64045SOL     OW94031   3.598   6.201   9.986
64045SOL    HW194032   3.610   6.200  10.081
64045SOL    HW294033   3.677   6.244   9.952
64046SOL     OW94034   7.986   4.534   7.169
64046SOL    HW194035   7.947   4.561   7.086
64046SOL    HW294036   7.911   4.514   7.225
64047SOL     OW94037  11.418  11.712   4.181
64047SOL    HW194038  11.432  11.792   4.131
64047SOL    HW294039  11.364  11.739   4.255
64048SOL     OW94040   9.896   5.932   6.260
64048SOL    HW194041   9.910   6.024   6.236
64048SOL    HW294042   9.939   5.882   6.190
64049SOL     OW94043   8.019   5.884   2.918
64049SOL    HW194044   8.076   5.838   2.857
64049SOL    HW294045   7.951   5.923   2.863
64050SOL     OW94046  14.699   9.550   4.293
64050SOL    HW194047  14.637   9.564   4.364
64050SOL    HW294048  14.784   9.546   4.336
64051SOL     OW94049   0.082   8.278   4.685
64051SOL    HW194050   0.138   8.264   4.608
64051SOL    HW294051   0.044   8.364   4.672
64052SOL     OW94052   4.948   9.376   0.061
64052SOL    HW194053   4.899   9.298   0.084
64052SOL    HW294054   4.900   9.414  14.870
64053SOL     OW94055   0.719   7.849   1.187
64053SOL    HW194056   0.634   7.805   1.194
64053SOL    HW294057   0.783   7.780   1.203
64054SOL     OW94058   1.989  11.392  11.564
64054SOL    HW194059   2.018  11.312  11.520
64054SOL    HW294060   1.947  11.443  11.495
64055SOL     OW94061  11.934   0.179   7.684
64055SOL    HW194062  11.889   0.238   7.744
64055SOL    HW294063  12.013   0.227   7.658
64056SOL     OW94064  10.640   2.218   1.195
64056SOL    HW194065  10.565   2.169   1.229
64056SOL    HW294066  10.603   2.300   1.163
64057SOL     OW94067  13.645   4.764  12.029
64057SOL    HW194068  13.685   4.848  12.008
64057SOL    HW294069  13.604   4.777  12.114
64058SOL     OW94070   6.235   0.276   7.447
64058SOL    HW194071   6.301   0.280   7.516
64058SOL    HW294072   6.157   0.317   7.484
64059SOL     OW94073   7.102  14.257   9.103
64059SOL    HW194074   7.194  14.233   9.104
64059SOL    HW294075   7.102  14.353   9.107
64060SOL     OW94076   6.839  10.406   1.320
64060SOL    HW194077   6.917  10.411   1.265
64060SOL    HW294078   6.797  10.491   1.309
64061SOL     OW94079   9.939   3.641   6.786
64061SOL    HW194080   9.936   3.721   6.840
64061SOL    HW294081  10.031   3.631   6.764
64062SOL     OW94082  11.296  11.718  12.767
64062SOL    HW194083  11.339  11.776  12.703
64062SOL    HW294084  11.221  11.683  12.719
64063SOL     OW94085   5.116   4.215   4.752
64063SOL    HW194086   5.108   4.207   4.847
64063SOL    HW294087   5.176   4.145   4.727
64064SOL     OW94088   9.262  12.893  12.244
64064SOL    HW194089   9.198  12.936  12.301
64064SOL    HW294090   9.288  12.961  12.182
64065SOL     OW94091   2.768   9.540   9.587
64065SOL    HW194092   2.778   9.625   9.630
64065SOL    HW294093   2.845   9.531   9.531
64066SOL     OW94094   1.370   4.982   9.104
64066SOL    HW194095   1.451   4.966   9.056
64066SOL    HW294096   1.344   5.070   9.078
64067SOL     OW94097   9.386   6.879  13.365
64067SOL    HW194098   9.327   6.950  13.337
64067SOL    HW294099   9.420   6.843  13.283
64068SOL     OW94100  10.627   9.670   2.167
64068SOL    HW194101  10.639   9.701   2.078
64068SOL    HW294102  10.583   9.742   2.212
64069SOL     OW94103   0.938   8.013  11.728
64069SOL    HW194104   0.895   8.010  11.814
64069SOL    HW294105   0.941   7.921  11.700
64070SOL     OW94106   4.336   0.190   3.868
64070SOL    HW194107   4.427   0.187   3.836
64070SOL    HW294108   4.337   0.136   3.947
64071SOL     OW94109  12.419   5.470   3.547
64071SOL    HW194110  12.477   5.457   3.472
64071SOL    HW294111  12.422   5.387   3.594
64072SOL     OW94112  11.635   8.761   3.242
64072SOL    HW194113  11.611   8.818   3.315
64072SOL    HW294114  11.554   8.749   3.192
64073SOL     OW94115   5.599   0.980   3.439
64073SOL    HW194116   5.658   0.904   3.444
64073SOL    HW294117   5.555   0.970   3.355
64074SOL     OW94118   1.518   3.515   6.650
64074SOL    HW194119   1.515   3.606   6.620
64074SOL    HW294120   1.567   3.519   6.732
64075SOL     OW94121  11.500   4.023  14.094
64075SOL    HW194122  11.451   3.991  14.170
64075SOL    HW294123  11.522   3.944  14.045
64076SOL     OW94124   6.104  11.904   4.375
64076SOL    HW194125   6.051  11.978   4.347
64076SOL    HW294126   6.043  11.849   4.425
64077SOL     OW94127   1.064   9.809  11.512
64077SOL    HW194128   1.045   9.765  11.429
64077SOL    HW294129   1.156   9.789  11.529
64078SOL     OW94130   2.833   5.172  10.872
64078SOL    HW194131   2.742   5.181  10.899
64078SOL    HW294132   2.836   5.215  10.786
64079SOL     OW94133   1.388   9.448   6.440
64079SOL    HW194134   1.407   9.506   6.366
64079SOL    HW294135   1.439   9.369   6.422
64080SOL     OW94136  13.886  10.692  10.993
64080SOL    HW194137  13.816  10.640  11.032
64080SOL    HW294138  13.842  10.769  10.957
64081SOL     OW94139  10.377   8.757   8.068
64081SOL    HW194140  10.390   8.667   8.096
64081SOL    HW294141  10.282   8.769   8.067
64082SOL     OW94142  10.511   5.256   9.099
64082SOL    HW194143  10.545   5.340   9.067
64082SOL    HW294144  10.423   5.277   9.132
64083SOL     OW94145  14.137   4.207   4.165
64083SOL    HW194146  14.078   4.149   4.213
64083SOL    HW294147  14.176   4.152   4.098
64084SOL     OW94148   0.681  11.838   0.231
64084SOL    HW194149   0.723  11.867   0.150
64084SOL    HW294150   0.752  11.835   0.295
64085SOL     OW94151  14.170  11.921  11.182
64085SOL    HW194152  14.168  11.882  11.269
64085SOL    HW294153  14.153  11.847  11.122
64086SOL     OW94154   8.109  13.156  12.191
64086SOL    HW194155   8.019  13.124  12.198
64086SOL    HW294156   8.101  13.247  12.164
64087SOL     OW94157   3.607  10.993   1.057
64087SOL    HW194158   3.569  10.911   1.091
64087SOL    HW294159   3.541  11.059   1.076
64088SOL     OW94160  11.133   0.700   7.163
64088SOL    HW194161  11.220   0.733   7.186
64088SOL    HW294162  11.096   0.768   7.107
64089SOL     OW94163  11.933   8.864   6.227
64089SOL    HW194164  11.918   8.925   6.155
64089SOL    HW294165  11.897   8.909   6.304
64090SOL     OW94166   9.748   1.453   4.793
64090SOL    HW194167   9.822   1.392   4.793
64090SOL    HW294168   9.779   1.528   4.740
64091SOL     OW94169   6.775  10.339  11.237
64091SOL    HW194170   6.695  10.287  11.224
64091SOL    HW294171   6.828  10.287  11.297
64092SOL     OW94172  12.132   0.822   3.456
64092SOL    HW194173  12.113   0.831   3.363
64092SOL    HW294174  12.069   0.880   3.499
64093SOL     OW94175  12.599   0.165   7.956
64093SOL    HW194176  12.638   0.109   8.023
64093SOL    HW294177  12.506   0.167   7.978
64094SOL     OW94178  14.339  13.331  11.974
64094SOL    HW194179  14.321  13.245  12.014
64094SOL    HW294180  14.356  13.388  12.049
64095SOL     OW94181   0.368   8.070   7.341
64095SOL    HW194182   0.277   8.058   7.369
64095SOL    HW294183   0.392   8.157   7.375
64096SOL     OW94184   7.216   1.675   6.773
64096SOL    HW194185   7.127   1.684   6.807
64096SOL    HW294186   7.265   1.632   6.844
64097SOL     OW94187   3.523   4.347   0.260
64097SOL    HW194188   3.471   4.379   0.333
64097SOL    HW294189   3.566   4.268   0.294
64098SOL     OW94190   1.150   1.762   8.722
64098SOL    HW194191   1.192   1.820   8.786
64098SOL    HW294192   1.081   1.718   8.771
64099SOL     OW94193   9.595  14.063   8.066
64099SOL    HW194194   9.633  14.151   8.075
64099SOL    HW294195   9.663  14.012   8.024
64100SOL     OW94196   0.918  11.188   3.497
64100SOL    HW194197   1.006  11.193   3.535
64100SOL    HW294198   0.866  11.144   3.564
64101SOL     OW94199  14.704  10.388   8.860
64101SOL    HW194200  14.667  10.431   8.783
64101SOL    HW294201  14.667  10.300   8.858
64102SOL     OW94202   9.411   7.034  10.129
64102SOL    HW194203   9.482   6.999  10.181
64102SOL    HW294204   9.339   6.971  10.140
64103SOL     OW94205   3.177   2.076  13.209
64103SOL    HW194206   3.117   2.016  13.166
64103SOL    HW294207   3.255   2.023  13.227
64104SOL     OW94208  13.582   9.082  10.841
64104SOL    HW194209  13.553   9.049  10.925
64104SOL    HW294210  13.672   9.111  10.856
64105SOL     OW94211   4.818  12.644  14.478
64105SOL    HW194212   4.794  12.670  14.389
64105SOL    HW294213   4.822  12.548  14.474
64106SOL     OW94214  10.738   3.442  11.807
64106SOL    HW194215  10.809   3.492  11.846
64106SOL    HW294216  10.682   3.419  11.881
64107SOL     OW94217   2.125   6.194  14.534
64107SOL    HW194218   2.102   6.286  14.518
64107SOL    HW294219   2.047   6.157  14.576
64108SOL     OW94220   6.652   0.195  13.410
64108SOL    HW194221   6.665   0.283  13.376
64108SOL    HW294222   6.738   0.153  13.403
64109SOL     OW94223   4.419   0.173   3.091
64109SOL    HW194224   4.449   0.256   3.127
64109SOL    HW294225   4.329   0.190   3.063
64110SOL     OW94226  13.753  11.279   3.100
64110SOL    HW194227  13.751  11.258   3.193
64110SOL    HW294228  13.686  11.222   3.061
64111SOL     OW94229  10.523   8.225   1.095
64111SOL    HW194230  10.534   8.226   1.000
64111SOL    HW294231  10.459   8.156   1.112
64112SOL     OW94232  10.559   3.092   2.799
64112SOL    HW194233  10.475   3.054   2.826
64112SOL    HW294234  10.567   3.070   2.707
64113SOL     OW94235   9.813   6.788   8.435
64113SOL    HW194236   9.851   6.864   8.478
64113SOL    HW294237   9.872   6.771   8.361
64114SOL     OW94238   1.416   5.020   3.953
64114SOL    HW194239   1.462   4.985   3.877
64114SOL    HW294240   1.349   4.954   3.973
64115SOL     OW94241  13.531   2.112   6.672
64115SOL    HW194242  13.485   2.029   6.656
64115SOL    HW294243  13.462   2.178   6.675
64116SOL     OW94244   7.357   3.047   9.208
64116SOL    HW194245   7.428   2.983   9.212
64116SOL    HW294246   7.349   3.080   9.297
64117SOL     OW94247   3.486   9.514  11.809
64117SOL    HW194248   3.550   9.579  11.838
64117SOL    HW294249   3.537   9.433  11.798
64118SOL     OW94250  10.932   7.019  12.958
64118SOL    HW194251  10.954   7.032  12.865
64118SOL    HW294252  10.913   6.925  12.965
64119SOL     OW94253   2.552   6.362   5.498
64119SOL    HW194254   2.530   6.276   5.533
64119SOL    HW294255   2.645   6.358   5.477
64120SOL     OW94256   9.545  11.585  14.364
64120SOL    HW194257   9.523  11.582  14.457
64120SOL    HW294258   9.582  11.499  14.346
64121SOL     OW94259   3.259   7.560   1.994
64121SOL    HW194260   3.281   7.490   2.056
64121SOL    HW294261   3.167   7.546   1.973
64122SOL     OW94262  13.638   3.996   9.215
64122SOL    HW194263  13.561   4.041   9.180
64122SOL    HW294264  13.658   3.929   9.151
64123SOL     OW94265   4.226   2.583   5.562
64123SOL    HW194266   4.142   2.588   5.516
64123SOL    HW294267   4.208   2.615   5.650
64124SOL     OW94268   4.617   6.375   9.531
64124SOL    HW194269   4.605   6.469   9.547
64124SOL    HW294270   4.532   6.336   9.552
64125SOL     OW94271   4.361  12.707   1.538
64125SOL    HW194272   4.299  12.773   1.506
64125SOL    HW294273   4.366  12.723   1.632
64126SOL     OW94274   9.899  12.201  14.111
64126SOL    HW194275   9.920  12.113  14.077
64126SOL    HW294276   9.985  12.240  14.129
64127SOL     OW94277  10.172   3.692   9.186
64127SOL    HW194278  10.124   3.623   9.232
64127SOL    HW294279  10.120   3.771   9.202
64128SOL     OW94280  14.566   9.250   3.803
64128SOL    HW194281  14.588   9.169   3.757
64128SOL    HW294282  14.600   9.320   3.747
64129SOL     OW94283  10.846  13.356   8.395
64129SOL    HW194284  10.905  13.431   8.391
64129SOL    HW294285  10.834  13.330   8.304
64130SOL     OW94286   8.463   9.641   0.314
64130SOL    HW194287   8.491   9.732   0.322
64130SOL    HW294288   8.367   9.645   0.320
64131SOL     OW94289   3.143   8.418   9.533
64131SOL    HW194290   3.059   8.430   9.489
64131SOL    HW294291   3.122   8.374   9.615
64132SOL     OW94292   3.203  13.790  11.497
64132SOL    HW194293   3.130  13.851  11.510
64132SOL    HW294294   3.231  13.805  11.406
64133SOL     OW94295  10.045  13.335  11.238
64133SOL    HW194296  10.087  13.372  11.160
64133SOL    HW294297  10.082  13.247  11.246
64134SOL     OW94298   7.621   0.392  11.241
64134SOL    HW194299   7.620   0.397  11.337
64134SOL    HW294300   7.531   0.367  11.218
64135SOL     OW94301  12.444  11.985   2.030
64135SOL    HW194302  12.474  12.068   1.992
64135SOL    HW294303  12.387  12.012   2.103
64136SOL     OW94304   4.021  10.954   3.828
64136SOL    HW194305   3.954  11.009   3.869
64136SOL    HW294306   3.974  10.876   3.799
64137SOL     OW94307   1.811   4.928   1.803
64137SOL    HW194308   1.794   4.833   1.804
64137SOL    HW294309   1.806   4.955   1.894
64138SOL     OW94310   2.556   5.927   5.396
64138SOL    HW194311   2.564   5.955   5.487
64138SOL    HW294312   2.641   5.948   5.357
64139SOL     OW94313   5.074   8.773   2.687
64139SOL    HW194314   5.125   8.811   2.615
64139SOL    HW294315   5.132   8.705   2.723
64140SOL     OW94316  13.202  11.519  13.434
64140SOL    HW194317  13.181  11.495  13.344
64140SOL    HW294318  13.242  11.441  13.471
64141SOL     OW94319   6.953   7.082   6.616
64141SOL    HW194320   6.881   7.096   6.554
64141SOL    HW294321   7.013   7.024   6.569
64142SOL     OW94322   5.147   6.277   8.129
64142SOL    HW194323   5.208   6.203   8.126
64142SOL    HW294324   5.189   6.341   8.186
64143SOL     OW94325   0.317   8.220  10.902
64143SOL    HW194326   0.382   8.269  10.852
64143SOL    HW294327   0.359   8.203  10.987
64144SOL     OW94328  12.002  11.167   6.147
64144SOL    HW194329  12.069  11.116   6.101
64144SOL    HW294330  12.019  11.151   6.240
64145SOL     OW94331  12.969   4.295   1.770
64145SOL    HW194332  13.018   4.311   1.689
64145SOL    HW294333  12.910   4.223   1.749
64146SOL     OW94334  12.795  12.401   0.786
64146SOL    HW194335  12.773  12.312   0.814
64146SOL    HW294336  12.859  12.389   0.715
64147SOL     OW94337   4.035   6.996   9.127
64147SOL    HW194338   4.017   7.090   9.129
64147SOL    HW294339   3.972   6.958   9.188
64148SOL     OW94340  10.121  13.918  11.246
64148SOL    HW194341  10.075  13.953  11.169
64148SOL    HW294342  10.213  13.916  11.219
64149SOL     OW94343   9.521   8.264   7.872
64149SOL    HW194344   9.445   8.215   7.902
64149SOL    HW294345   9.515   8.349   7.916
64150SOL     OW94346   8.271   2.785   4.849
64150SOL    HW194347   8.239   2.743   4.769
64150SOL    HW294348   8.360   2.814   4.827
64151SOL     OW94349   9.921   5.065  13.819
64151SOL    HW194350   9.962   5.007  13.756
64151SOL    HW294351   9.939   5.153  13.786
64152SOL     OW94352   2.647   1.632  11.911
64152SOL    HW194353   2.713   1.584  11.860
64152SOL    HW294354   2.697   1.675  11.980
64153SOL     OW94355  13.052   2.051   5.868
64153SOL    HW194356  13.110   2.095   5.807
64153SOL    HW294357  12.995   1.997   5.813
64154SOL     OW94358  10.940   1.885   9.886
64154SOL    HW194359  10.904   1.808   9.840
64154SOL    HW294360  10.975   1.850   9.968
64155SOL     OW94361  11.342   8.744  11.405
64155SOL    HW194362  11.426   8.704  11.427
64155SOL    HW294363  11.324   8.715  11.316
64156SOL     OW94364   1.860   1.578   1.867
64156SOL    HW194365   1.873   1.574   1.773
64156SOL    HW294366   1.791   1.513   1.885
64157SOL     OW94367  11.844   1.023   6.358
64157SOL    HW194368  11.772   0.960   6.365
64157SOL    HW294369  11.902   0.985   6.292
64158SOL     OW94370  13.315   9.414  13.545
64158SOL    HW194371  13.344   9.332  13.503
64158SOL    HW294372  13.272   9.385  13.625
64159SOL     OW94373  11.093   0.213   2.523
64159SOL    HW194374  11.139   0.272   2.583
64159SOL    HW294375  11.022   0.176   2.576
64160SOL     OW94376   9.790  12.928   9.037
64160SOL    HW194377   9.795  12.984   9.114
64160SOL    HW294378   9.808  12.840   9.070
64161SOL     OW94379   5.026   8.001  13.139
64161SOL    HW194380   4.946   7.950  13.129
64161SOL    HW294381   5.031   8.019  13.233
64162SOL     OW94382   8.506   0.440  10.663
64162SOL    HW194383   8.466   0.410  10.744
64162SOL    HW294384   8.465   0.387  10.595
64163SOL     OW94385   0.181   1.278  10.739
64163SOL    HW194386   0.228   1.196  10.721
64163SOL    HW294387   0.106   1.251  10.792
64164SOL     OW94388   7.919   8.147  13.802
64164SOL    HW194389   7.928   8.089  13.726
64164SOL    HW294390   7.825   8.158  13.812
64165SOL     OW94391  11.993  12.717  11.243
64165SOL    HW194392  11.964  12.662  11.170
64165SOL    HW294393  11.983  12.806  11.211
64166SOL     OW94394  11.082   4.764   7.314
64166SOL    HW194395  11.091   4.859   7.310
64166SOL    HW294396  11.016   4.749   7.382
64167SOL     OW94397  12.441   8.097   5.957
64167SOL    HW194398  12.440   8.192   5.941
64167SOL    HW294399  12.352   8.077   5.985
64168SOL     OW94400   2.826   8.669  10.186
64168SOL    HW194401   2.788   8.592  10.143
64168SOL    HW294402   2.765   8.741  10.164
64169SOL     OW94403  11.524  12.895   1.633
64169SOL    HW194404  11.498  12.986   1.622
64169SOL    HW294405  11.619  12.897   1.625
64170SOL     OW94406   9.050   1.746   8.970
64170SOL    HW194407   9.095   1.777   9.049
64170SOL    HW294408   9.118   1.745   8.903
64171SOL     OW94409  13.430   2.362   9.635
64171SOL    HW194410  13.410   2.326   9.549
64171SOL    HW294411  13.524   2.348   9.645
64172SOL     OW94412   2.547   3.531   0.985
64172SOL    HW194413   2.567   3.446   0.946
64172SOL    HW294414   2.513   3.511   1.071
64173SOL     OW94415   0.165   9.712   3.722
64173SOL    HW194416   0.165   9.626   3.681
64173SOL    HW294417   0.107   9.702   3.798
64174SOL     OW94418   0.890  11.352  11.161
64174SOL    HW194419   0.898  11.258  11.146
64174SOL    HW294420   0.942  11.391  11.091
64175SOL     OW94421   9.640  10.717  14.830
64175SOL    HW194422   9.632  10.795  14.775
64175SOL    HW294423   9.555  10.709  14.873
64176SOL     OW94424   3.841  14.641   6.606
64176SOL    HW194425   3.858  14.703   6.677
64176SOL    HW294426   3.898  14.670   6.535
64177SOL     OW94427  10.579   5.271   6.284
64177SOL    HW194428  10.498   5.269   6.336
64177SOL    HW294429  10.582   5.360   6.249
64178SOL     OW94430   1.642   4.118  14.413
64178SOL    HW194431   1.627   4.206  14.377
64178SOL    HW294432   1.734   4.100  14.397
64179SOL     OW94433   9.380   7.809   2.680
64179SOL    HW194434   9.292   7.847   2.688
64179SOL    HW294435   9.437   7.885   2.674
64180SOL     OW94436  10.409  12.322   3.165
64180SOL    HW194437  10.391  12.359   3.078
64180SOL    HW294438  10.503  12.336   3.178
64181SOL     OW94439  14.555  11.164  11.111
64181SOL    HW194440  14.514  11.083  11.082
64181SOL    HW294441  14.531  11.228  11.043
64182SOL     OW94442   5.306   5.890  13.702
64182SOL    HW194443   5.219   5.929  13.697
64182SOL    HW294444   5.299   5.808  13.654
64183SOL     OW94445   9.068  10.330   2.588
64183SOL    HW194446   8.986  10.290   2.619
64183SOL    HW294447   9.107  10.264   2.531
64184SOL     OW94448  13.385   5.522   8.395
64184SOL    HW194449  13.343   5.469   8.326
64184SOL    HW294450  13.475   5.489   8.399
64185SOL     OW94451  12.592   5.492   7.696
64185SOL    HW194452  12.643   5.538   7.629
64185SOL    HW294453  12.548   5.561   7.745
64186SOL     OW94454   1.075   5.991   7.196
64186SOL    HW194455   1.013   5.958   7.261
64186SOL    HW294456   1.087   6.083   7.220
64187SOL     OW94457  11.567   4.115   5.564
64187SOL    HW194458  11.515   4.176   5.511
64187SOL    HW294459  11.537   4.028   5.538
64188SOL     OW94460  12.314   0.922  13.085
64188SOL    HW194461  12.291   0.860  13.154
64188SOL    HW294462  12.401   0.954  13.109
64189SOL     OW94463  12.487  14.501  12.002
64189SOL    HW194464  12.461  14.584  12.041
64189SOL    HW294465  12.520  14.449  12.076
64190SOL     OW94466   4.517   5.962  13.768
64190SOL    HW194467   4.584   5.904  13.731
64190SOL    HW294468   4.522   6.041  13.714
64191SOL     OW94469   2.109  13.593   6.500
64191SOL    HW194470   2.127  13.524   6.564
64191SOL    HW294471   2.172  13.578   6.430
64192SOL     OW94472   1.512  14.570   3.128
64192SOL    HW194473   1.422  14.592   3.103
64192SOL    HW294474   1.551  14.536   3.047
64193SOL     OW94475   3.529  11.680   4.967
64193SOL    HW194476   3.612  11.705   4.927
64193SOL    HW294477   3.515  11.746   5.036
64194SOL     OW94478   0.911  11.812   0.405
64194SOL    HW194479   0.887  11.857   0.486
64194SOL    HW294480   0.997  11.848   0.382
64195SOL     OW94481   5.915  10.648  10.267
64195SOL    HW194482   5.837  10.609  10.308
64195SOL    HW294483   5.880  10.699  10.193
64196SOL     OW94484  10.969   5.428   8.874
64196SOL    HW194485  10.956   5.461   8.785
64196SOL    HW294486  10.906   5.357   8.884
64197SOL     OW94487  13.336   9.077   2.158
64197SOL    HW194488  13.289   9.001   2.191
64197SOL    HW294489  13.415   9.040   2.117
64198SOL     OW94490   4.806   3.672  13.420
64198SOL    HW194491   4.849   3.710  13.343
64198SOL    HW294492   4.877   3.629  13.468
64199SOL     OW94493  13.115  13.592   1.918
64199SOL    HW194494  13.179  13.548   1.974
64199SOL    HW294495  13.071  13.654   1.976
64200SOL     OW94496   3.103  14.306  11.229
64200SOL    HW194497   3.008  14.300  11.229
64200SOL    HW294498   3.128  14.303  11.137
64201SOL     OW94499   0.545   1.764   0.856
64201SOL    HW194500   0.564   1.720   0.939
64201SOL    HW294501   0.487   1.837   0.879
64202SOL     OW94502   5.513  13.773   2.384
64202SOL    HW194503   5.571  13.850   2.385
64202SOL    HW294504   5.484  13.767   2.293
64203SOL     OW94505  11.494   1.877   8.091
64203SOL    HW194506  11.513   1.872   7.998
64203SOL    HW294507  11.434   1.952   8.100
64204SOL     OW94508   4.952   5.953   6.603
64204SOL    HW194509   4.940   5.950   6.508
64204SOL    HW294510   4.961   5.862   6.629
64205SOL     OW94511  11.513   5.755   9.573
64205SOL    HW194512  11.538   5.793   9.488
64205SOL    HW294513  11.565   5.675   9.579
64206SOL     OW94514   9.016   2.293  10.094
64206SOL    HW194515   9.077   2.298  10.167
64206SOL    HW294516   9.071   2.283  10.017
64207SOL     OW94517   6.386   8.791   1.143
64207SOL    HW194518   6.466   8.740   1.135
64207SOL    HW294519   6.358   8.778   1.234
64208SOL     OW94520  10.482   8.983   0.476
64208SOL    HW194521  10.484   8.928   0.554
64208SOL    HW294522  10.563   8.961   0.430
64209SOL     OW94523  10.848  10.809   1.559
64209SOL    HW194524  10.760  10.778   1.576
64209SOL    HW294525  10.838  10.903   1.544
64210SOL     OW94526   4.031   4.436   3.045
64210SOL    HW194527   3.970   4.505   3.019
64210SOL    HW294528   4.032   4.440   3.141
64211SOL     OW94529  11.514  10.894   3.181
64211SOL    HW194530  11.432  10.845   3.178
64211SOL    HW294531  11.508  10.947   3.261
64212SOL     OW94532   0.832   6.945  11.547
64212SOL    HW194533   0.816   6.890  11.471
64212SOL    HW294534   0.786   6.901  11.619
64213SOL     OW94535   8.537   5.765   8.209
64213SOL    HW194536   8.464   5.826   8.192
64213SOL    HW294537   8.536   5.752   8.304
64214SOL     OW94538  11.265   9.972  12.356
64214SOL    HW194539  11.211   9.937  12.285
64214SOL    HW294540  11.344   9.918  12.356
64215SOL     OW94541  11.058   3.981   7.840
64215SOL    HW194542  11.082   4.072   7.856
64215SOL    HW294543  11.061   3.971   7.744
64216SOL     OW94544  10.506  13.308  14.327
64216SOL    HW194545  10.434  13.332  14.269
64216SOL    HW294546  10.536  13.223  14.295
64217SOL     OW94547   0.260   8.567  12.426
64217SOL    HW194548   0.321   8.614  12.369
64217SOL    HW294549   0.210   8.510  12.368
64218SOL     OW94550  10.700   0.583  14.335
64218SOL    HW194551  10.611   0.585  14.299
64218SOL    HW294552  10.752   0.633  14.272
64219SOL     OW94553   4.023  10.441  14.320
64219SOL    HW194554   4.028  10.536  14.310
64219SOL    HW294555   4.097  10.419  14.376
64220SOL     OW94556  14.723   2.779   9.202
64220SOL    HW194557  14.778   2.793   9.125
64220SOL    HW294558  14.689   2.690   9.190
64221SOL     OW94559   9.412   4.288   9.604
64221SOL    HW194560   9.470   4.316   9.675
64221SOL    HW294561   9.418   4.358   9.539
64222SOL     OW94562   0.568   3.365   7.927
64222SOL    HW194563   0.485   3.394   7.966
64222SOL    HW294564   0.550   3.357   7.834
64223SOL     OW94565  12.269   1.876   0.331
64223SOL    HW194566  12.229   1.951   0.286
64223SOL    HW294567  12.351   1.910   0.365
64224SOL     OW94568   0.963   7.589   7.000
64224SOL    HW194569   1.028   7.654   7.027
64224SOL    HW294570   0.990   7.564   6.912
64225SOL     OW94571  11.473   0.450   8.328
64225SOL    HW194572  11.450   0.389   8.399
64225SOL    HW294573  11.393   0.456   8.275
64226SOL     OW94574   7.515   2.683  14.830
64226SOL    HW194575   7.569   2.673   0.026
64226SOL    HW294576   7.506   2.594  14.796
64227SOL     OW94577   5.235   8.432  12.309
64227SOL    HW194578   5.304   8.412  12.373
64227SOL    HW294579   5.273   8.499  12.253
64228SOL     OW94580   9.634   3.992  13.972
64228SOL    HW194581   9.645   4.010  13.879
64228SOL    HW294582   9.542   4.010  13.989
64229SOL     OW94583   0.832   6.985   0.350
64229SOL    HW194584   0.836   6.998   0.445
64229SOL    HW294585   0.839   7.073   0.314
64230SOL     OW94586   8.611   8.547   9.392
64230SOL    HW194587   8.558   8.468   9.393
64230SOL    HW294588   8.583   8.596   9.469
64231SOL     OW94589   5.588  13.680   6.178
64231SOL    HW194590   5.543  13.681   6.263
64231SOL    HW294591   5.680  13.694   6.200
64232SOL     OW94592   4.080   5.727   8.658
64232SOL    HW194593   4.121   5.659   8.605
64232SOL    HW294594   4.132   5.730   8.738
64233SOL     OW94595   0.832   0.813  11.036
64233SOL    HW194596   0.837   0.890  11.092
64233SOL    HW294597   0.782   0.842  10.959
64234SOL     OW94598   9.988  14.196  11.188
64234SOL    HW194599   9.941  14.278  11.176
64234SOL    HW294600   9.937  14.148  11.253
64235SOL     OW94601  13.555   1.413   0.451
64235SOL    HW194602  13.523   1.398   0.362
64235SOL    HW294603  13.566   1.325   0.488
64236SOL     OW94604   6.198  11.237   6.968
64236SOL    HW194605   6.277  11.204   7.012
64236SOL    HW294606   6.126  11.188   7.009
64237SOL     OW94607  12.674   2.956   2.308
64237SOL    HW194608  12.678   2.880   2.365
64237SOL    HW294609  12.646   2.922   2.223
64238SOL     OW94610  10.877  11.601   1.984
64238SOL    HW194611  10.902  11.617   1.893
64238SOL    HW294612  10.944  11.646   2.036
64239SOL     OW94613   8.851   8.975   2.689
64239SOL    HW194614   8.919   8.907   2.684
64239SOL    HW294615   8.802   8.955   2.769
64240SOL     OW94616  12.678   5.239  11.008
64240SOL    HW194617  12.700   5.257  11.099
64240SOL    HW294618  12.762   5.231  10.963
64241SOL     OW94619   7.477  12.729   3.659
64241SOL    HW194620   7.416  12.666   3.619
64241SOL    HW294621   7.557  12.719   3.608
64242SOL     OW94622   7.615   4.889  11.104
64242SOL    HW194623   7.567   4.888  11.021
64242SOL    HW294624   7.707   4.880  11.078
64243SOL     OW94625   9.648  12.816   8.613
64243SOL    HW194626   9.561  12.819   8.653
64243SOL    HW294627   9.694  12.893   8.647
64244SOL     OW94628   3.779  12.687   7.557
64244SOL    HW194629   3.794  12.594   7.539
64244SOL    HW294630   3.865  12.719   7.586
64245SOL     OW94631   5.746   7.054  10.916
64245SOL    HW194632   5.741   6.960  10.937
64245SOL    HW294633   5.781   7.094  10.995
64246SOL     OW94634   6.779  11.873   7.216
64246SOL    HW194635   6.855  11.922   7.248
64246SOL    HW294636   6.746  11.926   7.144
64247SOL     OW94637  13.750   4.235   5.846
64247SOL    HW194638  13.656   4.229   5.831
64247SOL    HW294639  13.790   4.180   5.778
64248SOL     OW94640   6.782   4.964  10.718
64248SOL    HW194641   6.732   4.886  10.741
64248SOL    HW294642   6.746   5.033  10.774
64249SOL     OW94643   3.090   0.736   7.150
64249SOL    HW194644   3.157   0.796   7.180
64249SOL    HW294645   3.011   0.790   7.143
64250SOL     OW94646   1.172   6.573   8.299
64250SOL    HW194647   1.227   6.582   8.377
64250SOL    HW294648   1.097   6.630   8.316
64251SOL     OW94649  12.413   9.010  14.048
64251SOL    HW194650  12.339   8.984  13.994
64251SOL    HW294651  12.448   9.088  14.004
64252SOL     OW94652  14.459  11.535  11.716
64252SOL    HW194653  14.433  11.573  11.800
64252SOL    HW294654  14.538  11.583  11.691
64253SOL     OW94655  13.174   4.927  10.142
64253SOL    HW194656  13.220   4.966  10.067
64253SOL    HW294657  13.203   4.978  10.217
64254SOL     OW94658   0.900   3.671   6.265
64254SOL    HW194659   0.873   3.705   6.179
64254SOL    HW294660   0.898   3.576   6.255
64255SOL     OW94661  10.310  11.478   0.570
64255SOL    HW194662  10.256  11.498   0.493
64255SOL    HW294663  10.248  11.442   0.633
64256SOL     OW94664  14.748   9.774   7.115
64256SOL    HW194665  14.695   9.778   7.195
64256SOL    HW294666  14.691   9.731   7.052
64257SOL     OW94667  10.238   8.394   3.387
64257SOL    HW194668  10.165   8.446   3.418
64257SOL    HW294669  10.211   8.303   3.402
64258SOL     OW94670   2.093   1.840   5.087
64258SOL    HW194671   2.021   1.791   5.049
64258SOL    HW294672   2.087   1.927   5.048
64259SOL     OW94673  14.691   3.488  10.546
64259SOL    HW194674  14.658   3.570  10.582
64259SOL    HW294675  14.614   3.447  10.505
64260SOL     OW94676  11.155   8.063  10.693
64260SOL    HW194677  11.085   8.007  10.728
64260SOL    HW294678  11.140   8.148  10.735
64261SOL     OW94679   7.696  10.085   5.001
64261SOL    HW194680   7.782  10.049   5.023
64261SOL    HW294681   7.668  10.131   5.080
64262SOL     OW94682   5.590  13.024  12.801
64262SOL    HW194683   5.607  12.954  12.738
64262SOL    HW294684   5.675  13.065  12.816
64263SOL     OW94685   9.167   7.385   4.310
64263SOL    HW194686   9.168   7.290   4.319
64263SOL    HW294687   9.250   7.406   4.268
64264SOL     OW94688  12.349   1.231   3.669
64264SOL    HW194689  12.302   1.148   3.682
64264SOL    HW294690  12.359   1.267   3.757
64265SOL     OW94691   0.926  13.012  12.097
64265SOL    HW194692   0.934  13.106  12.080
64265SOL    HW294693   0.834  12.999  12.118
64266SOL     OW94694  11.802   2.396   7.739
64266SOL    HW194695  11.881   2.435   7.701
64266SOL    HW294696  11.821   2.302   7.740
64267SOL     OW94697   1.576   7.142   0.394
64267SOL    HW194698   1.616   7.064   0.433
64267SOL    HW294699   1.496   7.156   0.444
64268SOL     OW94700  12.480   0.841   1.941
64268SOL    HW194701  12.570   0.818   1.965
64268SOL    HW294702  12.453   0.905   2.007
64269SOL     OW94703   0.580   0.710   2.689
64269SOL    HW194704   0.489   0.732   2.710
64269SOL    HW294705   0.573   0.646   2.617
64270SOL     OW94706   4.749   0.303   5.429
64270SOL    HW194707   4.826   0.246   5.432
64270SOL    HW294708   4.784   0.390   5.409
64271SOL     OW94709  12.040   7.058   7.903
64271SOL    HW194710  12.086   7.140   7.918
64271SOL    HW294711  11.986   7.047   7.981
64272SOL     OW94712   8.888  10.838   7.420
64272SOL    HW194713   8.935  10.837   7.337
64272SOL    HW294714   8.859  10.748   7.433
64273SOL     OW94715  10.547   9.457   4.415
64273SOL    HW194716  10.603   9.521   4.460
64273SOL    HW294717  10.482   9.433   4.481
64274SOL     OW94718  10.823   9.542   7.637
64274SOL    HW194719  10.851   9.453   7.614
64274SOL    HW294720  10.903   9.585   7.668
64275SOL     OW94721   4.332   4.898  10.225
64275SOL    HW194722   4.356   4.983  10.262
64275SOL    HW294723   4.386   4.890  10.146
64276SOL     OW94724   2.401   4.704   2.568
64276SOL    HW194725   2.444   4.619   2.570
64276SOL    HW294726   2.449   4.757   2.631
64277SOL     OW94727   8.892   3.481   1.560
64277SOL    HW194728   8.874   3.443   1.474
64277SOL    HW294729   8.827   3.441   1.618
64278SOL     OW94730   7.823  10.293   1.250
64278SOL    HW194731   7.792  10.377   1.215
64278SOL    HW294732   7.745  10.238   1.253
64279SOL     OW94733  11.810  10.888  10.379
64279SOL    HW194734  11.865  10.814  10.352
64279SOL    HW294735  11.785  10.930  10.296
64280SOL     OW94736   3.084   9.228  11.482
64280SOL    HW194737   3.071   9.218  11.388
64280SOL    HW294738   3.010   9.183  11.521
64281SOL     OW94739   6.840   9.823   6.409
64281SOL    HW194740   6.773   9.850   6.472
64281SOL    HW294741   6.798   9.836   6.323
64282SOL     OW94742   2.074   1.630   7.107
64282SOL    HW194743   2.019   1.562   7.145
64282SOL    HW294744   2.012   1.689   7.063
64283SOL     OW94745   6.501  10.274  12.063
64283SOL    HW194746   6.560  10.303  11.994
64283SOL    HW294747   6.558  10.258  12.138
64284SOL     OW94748   7.582  12.632   1.999
64284SOL    HW194749   7.671  12.601   1.981
64284SOL    HW294750   7.526  12.560   1.970
64285SOL     OW94751   7.520  12.983  11.784
64285SOL    HW194752   7.504  12.889  11.783
64285SOL    HW294753   7.535  13.004  11.876
64286SOL     OW94754  12.124   6.037  13.879
64286SOL    HW194755  12.117   6.112  13.937
64286SOL    HW294756  12.053   6.048  13.816
64287SOL     OW94757   2.593  12.506   5.813
64287SOL    HW194758   2.503  12.485   5.837
64287SOL    HW294759   2.606  12.596   5.844
64288SOL     OW94760   9.149   9.260  10.722
64288SOL    HW194761   9.142   9.354  10.703
64288SOL    HW294762   9.061   9.235  10.751
64289SOL     OW94763  13.685   8.877   2.768
64289SOL    HW194764  13.749   8.861   2.838
64289SOL    HW294765  13.737   8.880   2.688
64290SOL     OW94766   8.547   8.925  10.361
64290SOL    HW194767   8.519   8.961  10.445
64290SOL    HW294768   8.519   8.833  10.364
64291SOL     OW94769   9.029   0.920   9.804
64291SOL    HW194770   8.968   0.885   9.739
64291SOL    HW294771   9.115   0.894   9.772
64292SOL     OW94772   0.036   7.027  11.415
64292SOL    HW194773   0.088   7.034  11.335
64292SOL    HW294774   0.027   6.932  11.430
64293SOL     OW94775  11.109   4.530   3.237
64293SOL    HW194776  11.164   4.540   3.159
64293SOL    HW294777  11.128   4.441   3.268
64294SOL     OW94778  12.047   5.888   4.788
64294SOL    HW194779  12.111   5.936   4.841
64294SOL    HW294780  11.992   5.956   4.748
64295SOL     OW94781  11.871   1.463  10.891
64295SOL    HW194782  11.934   1.488  10.958
64295SOL    HW294783  11.793   1.436  10.940
64296SOL     OW94784   2.224   9.073   2.413
64296SOL    HW194785   2.231   9.120   2.331
64296SOL    HW294786   2.315   9.058   2.441
64297SOL     OW94787   9.069   7.287   6.937
64297SOL    HW194788   9.096   7.337   6.861
64297SOL    HW294789   8.976   7.309   6.948
64298SOL     OW94790  12.582   5.119   2.731
64298SOL    HW194791  12.531   5.077   2.663
64298SOL    HW294792  12.629   5.190   2.686
64299SOL     OW94793   7.728   4.711   3.285
64299SOL    HW194794   7.655   4.766   3.312
64299SOL    HW294795   7.725   4.711   3.189
64300SOL     OW94796   0.611   3.298   9.610
64300SOL    HW194797   0.579   3.362   9.674
64300SOL    HW294798   0.594   3.213   9.650
64301SOL     OW94799  13.549   4.713   2.417
64301SOL    HW194800  13.641   4.696   2.438
64301SOL    HW294801  13.500   4.657   2.477
64302SOL     OW94802   4.846   3.455   4.060
64302SOL    HW194803   4.763   3.462   4.108
64302SOL    HW294804   4.829   3.387   3.994
64303SOL     OW94805   7.247   2.275   7.698
64303SOL    HW194806   7.305   2.201   7.678
64303SOL    HW294807   7.193   2.244   7.770
64304SOL     OW94808   9.143   6.468   5.049
64304SOL    HW194809   9.207   6.446   4.982
64304SOL    HW294810   9.174   6.551   5.085
64305SOL     OW94811   8.295  10.856  12.478
64305SOL    HW194812   8.383  10.856  12.515
64305SOL    HW294813   8.293  10.932  12.421
64306SOL     OW94814  10.547  14.871   2.544
64306SOL    HW194815  10.604  14.825   2.481
64306SOL    HW294816  10.465   0.001   2.497
64307SOL     OW94817   3.865   7.036   6.583
64307SOL    HW194818   3.873   7.071   6.672
64307SOL    HW294819   3.894   7.108   6.526
64308SOL     OW94820   1.479   8.860   4.756
64308SOL    HW194821   1.489   8.927   4.688
64308SOL    HW294822   1.387   8.833   4.750
64309SOL     OW94823   7.678  13.299   4.069
64309SOL    HW194824   7.766  13.296   4.107
64309SOL    HW294825   7.685  13.360   3.996
64310SOL     OW94826  13.470   7.051  12.440
64310SOL    HW194827  13.533   7.079  12.374
64310SOL    HW294828  13.411   7.126  12.451
64311SOL     OW94829  14.748  14.845   3.850
64311SOL    HW194830  14.718  14.839   3.760
64311SOL    HW294831  14.834  14.803   3.850
64312SOL     OW94832   7.054   4.219  10.976
64312SOL    HW194833   7.033   4.285  10.911
64312SOL    HW294834   7.149   4.227  10.990
64313SOL     OW94835   5.570  11.985   8.271
64313SOL    HW194836   5.480  11.993   8.303
64313SOL    HW294837   5.607  11.912   8.321
64314SOL     OW94838  10.927   8.693   7.791
64314SOL    HW194839  10.911   8.765   7.730
64314SOL    HW294840  10.864   8.707   7.861
64315SOL     OW94841  11.726   2.798   9.869
64315SOL    HW194842  11.644   2.826   9.908
64315SOL    HW294843  11.785   2.782   9.943
64316SOL     OW94844   5.844  12.109   2.793
64316SOL    HW194845   5.851  12.200   2.820
64316SOL    HW294846   5.892  12.060   2.861
64317SOL     OW94847   2.991  13.190   6.405
64317SOL    HW194848   3.014  13.270   6.452
64317SOL    HW294849   2.910  13.160   6.446
64318SOL     OW94850   5.893  11.894   7.592
64318SOL    HW194851   5.881  11.950   7.668
64318SOL    HW294852   5.851  11.811   7.616
64319SOL     OW94853  10.949   2.737  14.561
64319SOL    HW194854  10.878   2.785  14.604
64319SOL    HW294855  10.922   2.646  14.563
64320SOL     OW94856  12.903   2.262  13.883
64320SOL    HW194857  12.894   2.337  13.824
64320SOL    HW294858  12.967   2.289  13.948
64321SOL     OW94859   6.602  10.665   6.587
64321SOL    HW194860   6.686  10.712   6.593
64321SOL    HW294861   6.573  10.681   6.497
64322SOL     OW94862  12.355  14.813  11.871
64322SOL    HW194863  12.384   0.022  11.861
64322SOL    HW294864  12.410  14.779  11.942
64323SOL     OW94865   2.983   2.539  14.255
64323SOL    HW194866   3.047   2.573  14.317
64323SOL    HW294867   2.981   2.445  14.271
64324SOL     OW94868   7.555  12.904   5.978
64324SOL    HW194869   7.464  12.875   5.970
64324SOL    HW294870   7.549  13.000   5.978
64325SOL     OW94871   9.394  14.631   5.089
64325SOL    HW194872   9.315  14.641   5.142
64325SOL    HW294873   9.445  14.563   5.135
64326SOL     OW94874   3.503   0.819   9.675
64326SOL    HW194875   3.547   0.786   9.596
64326SOL    HW294876   3.411   0.826   9.649
64327SOL     OW94877   1.561   0.118   3.469
64327SOL    HW194878   1.478   0.091   3.509
64327SOL    HW294879   1.610   0.158   3.541
64328SOL     OW94880  12.209  10.469   3.305
64328SOL    HW194881  12.224  10.445   3.213
64328SOL    HW294882  12.141  10.407   3.334
64329SOL     OW94883   8.360   4.106  12.131
64329SOL    HW194884   8.392   4.179  12.078
64329SOL    HW294885   8.280   4.077  12.087
64330SOL     OW94886   0.240   2.638   0.431
64330SOL    HW194887   0.306   2.569   0.441
64330SOL    HW294888   0.181   2.625   0.505
64331SOL     OW94889  10.581   2.499   2.359
64331SOL    HW194890  10.610   2.521   2.448
64331SOL    HW294891  10.660   2.504   2.306
64332SOL     OW94892   3.583  12.799   3.790
64332SOL    HW194893   3.633  12.820   3.869
64332SOL    HW294894   3.603  12.871   3.730
64333SOL     OW94895  12.050   1.872   7.730
64333SOL    HW194896  12.138   1.839   7.714
64333SOL    HW294897  11.992   1.798   7.711
64334SOL     OW94898   4.111  11.904   3.968
64334SOL    HW194899   4.023  11.928   3.940
64334SOL    HW294900   4.105  11.898   4.063
64335SOL     OW94901  10.601   9.490  13.237
64335SOL    HW194902  10.576   9.425  13.171
64335SOL    HW294903  10.536   9.559  13.229
64336SOL     OW94904   1.215   4.458   7.720
64336SOL    HW194905   1.263   4.388   7.764
64336SOL    HW294906   1.266   4.537   7.738
64337SOL     OW94907   1.433   4.604   4.776
64337SOL    HW194908   1.501   4.574   4.835
64337SOL    HW294909   1.360   4.543   4.789
64338SOL     OW94910  12.954   1.064  10.857
64338SOL    HW194911  12.937   1.087  10.766
64338SOL    HW294912  12.898   1.123  10.908
64339SOL     OW94913   9.733  13.461   1.765
64339SOL    HW194914   9.794  13.390   1.745
64339SOL    HW294915   9.648  13.429   1.736
64340SOL     OW94916   8.567   6.167   7.119
64340SOL    HW194917   8.473   6.161   7.136
64340SOL    HW294918   8.590   6.257   7.143
64341SOL     OW94919   3.026  14.869   3.222
64341SOL    HW194920   3.113   0.020   3.245
64341SOL    HW294921   2.966   0.054   3.254
64342SOL     OW94922   3.247  13.099   8.677
64342SOL    HW194923   3.328  13.102   8.727
64342SOL    HW294924   3.198  13.177   8.704
64343SOL     OW94925   1.604   0.238   1.471
64343SOL    HW194926   1.563   0.312   1.426
64343SOL    HW294927   1.555   0.162   1.441
64344SOL     OW94928  10.444  13.055   0.979
64344SOL    HW194929  10.398  13.053   0.895
64344SOL    HW294930  10.426  12.970   1.019
64345SOL     OW94931   8.433  11.672   3.442
64345SOL    HW194932   8.407  11.587   3.477
64345SOL    HW294933   8.528  11.668   3.437
64346SOL     OW94934   8.229  11.855  10.180
64346SOL    HW194935   8.190  11.813  10.257
64346SOL    HW294936   8.294  11.793  10.148
64347SOL     OW94937  14.153   4.681   5.760
64347SOL    HW194938  14.235   4.703   5.804
64347SOL    HW294939  14.098   4.644   5.829
64348SOL     OW94940   7.422   8.755  12.514
64348SOL    HW194941   7.475   8.744  12.593
64348SOL    HW294942   7.442   8.843  12.484
64349SOL     OW94943  11.665  10.558   5.895
64349SOL    HW194944  11.672  10.654   5.888
64349SOL    HW294945  11.602  10.544   5.966
64350SOL     OW94946   1.747   5.448  11.976
64350SOL    HW194947   1.827   5.490  11.945
64350SOL    HW294948   1.678   5.484  11.921
64351SOL     OW94949   9.834   1.974   3.532
64351SOL    HW194950   9.841   1.900   3.473
64351SOL    HW294951   9.742   1.974   3.560
64352SOL     OW94952   4.089   8.558  11.384
64352SOL    HW194953   4.152   8.620  11.349
64352SOL    HW294954   4.063   8.505  11.309
64353SOL     OW94955   5.653   4.007   1.929
64353SOL    HW194956   5.686   4.035   1.844
64353SOL    HW294957   5.560   3.989   1.913
64354SOL     OW94958  11.686   5.279   5.697
64354SOL    HW194959  11.735   5.343   5.646
64354SOL    HW294960  11.720   5.287   5.786
64355SOL     OW94961   3.211  13.562  14.359
64355SOL    HW194962   3.245  13.504  14.291
64355SOL    HW294963   3.196  13.505  14.434
64356SOL     OW94964   7.046   5.037   8.157
64356SOL    HW194965   6.986   5.089   8.209
64356SOL    HW294966   7.108   5.100   8.121
64357SOL     OW94967   6.253   7.723  13.266
64357SOL    HW194968   6.233   7.743  13.174
64357SOL    HW294969   6.293   7.636  13.264
64358SOL     OW94970   3.673  12.423   9.349
64358SOL    HW194971   3.585  12.420   9.385
64358SOL    HW294972   3.709  12.336   9.365
64359SOL     OW94973   2.188   7.597   9.349
64359SOL    HW194974   2.106   7.577   9.304
64359SOL    HW294975   2.245   7.631   9.280
64360SOL     OW94976   6.099  11.574   9.871
64360SOL    HW194977   6.184  11.557   9.910
64360SOL    HW294978   6.054  11.490   9.874
64361SOL     OW94979   1.667   2.806   6.906
64361SOL    HW194980   1.624   2.891   6.912
64361SOL    HW294981   1.662   2.783   6.813
64362SOL     OW94982   0.933  10.570   1.281
64362SOL    HW194983   0.926  10.665   1.277
64362SOL    HW294984   0.972  10.545   1.196
64363SOL     OW94985   1.048   9.756   2.441
64363SOL    HW194986   1.116   9.689   2.442
64363SOL    HW294987   0.987   9.728   2.372
64364SOL     OW94988   6.690   3.527   1.958
64364SOL    HW194989   6.761   3.542   1.896
64364SOL    HW294990   6.657   3.440   1.936
64365SOL     OW94991  13.556  11.590   4.025
64365SOL    HW194992  13.565  11.545   4.109
64365SOL    HW294993  13.557  11.683   4.047
64366SOL     OW94994   1.804   9.167  11.091
64366SOL    HW194995   1.738   9.207  11.148
64366SOL    HW294996   1.836   9.239  11.038
64367SOL     OW94997   6.403   2.869   8.164
64367SOL    HW194998   6.366   2.890   8.250
64367SOL    HW294999   6.372   2.939   8.107
64368SOL     OW95000  10.146   3.744   9.784
64368SOL    HW195001  10.090   3.784   9.850
64368SOL    HW295002  10.218   3.705   9.834
64369SOL     OW95003   2.469   5.060   7.155
64369SOL    HW195004   2.490   5.124   7.087
64369SOL    HW295005   2.503   4.977   7.120
64370SOL     OW95006   8.357  10.518  10.487
64370SOL    HW195007   8.349  10.563  10.403
64370SOL    HW295008   8.267  10.493  10.510
64371SOL     OW95009  12.551   1.915   8.883
64371SOL    HW195010  12.491   1.858   8.836
64371SOL    HW295011  12.603   1.856   8.938
64372SOL     OW95012   9.440   8.603   1.103
64372SOL    HW195013   9.388   8.531   1.068
64372SOL    HW295014   9.377   8.674   1.116
64373SOL     OW95015   9.761   5.378  13.103
64373SOL    HW195016   9.803   5.441  13.162
64373SOL    HW295017   9.732   5.431  13.028
64374SOL     OW95018   2.726  10.249  13.188
64374SOL    HW195019   2.784  10.178  13.215
64374SOL    HW295020   2.745  10.320  13.249
64375SOL     OW95021   3.559   6.164  13.839
64375SOL    HW195022   3.514   6.085  13.870
64375SOL    HW295023   3.616   6.189  13.911
64376SOL     OW95024   8.721   4.057  14.540
64376SOL    HW195025   8.678   4.013  14.467
64376SOL    HW295026   8.752   4.140  14.503
64377SOL     OW95027  11.479   9.547   5.061
64377SOL    HW195028  11.407   9.607   5.083
64377SOL    HW295029  11.520   9.585   4.984
64378SOL     OW95030   8.120   9.962   5.962
64378SOL    HW195031   8.193   9.901   5.974
64378SOL    HW295032   8.125  10.020   6.038
64379SOL     OW95033   4.417   0.380  10.173
64379SOL    HW195034   4.453   0.300  10.211
64379SOL    HW295035   4.365   0.350  10.098
64380SOL     OW95036   8.053   4.956   8.050
64380SOL    HW195037   8.102   5.038   8.039
64380SOL    HW295038   8.089   4.898   7.983
64381SOL     OW95039   1.812   6.265  10.966
64381SOL    HW195040   1.736   6.216  10.997
64381SOL    HW295041   1.779   6.354  10.951
64382SOL     OW95042  12.552   2.173  10.283
64382SOL    HW195043  12.473   2.168  10.336
64382SOL    HW295044  12.526   2.141  10.196
64383SOL     OW95045  14.158  12.496   6.473
64383SOL    HW195046  14.092  12.440   6.514
64383SOL    HW295047  14.215  12.522   6.545
64384SOL     OW95048   7.877   6.438   8.577
64384SOL    HW195049   7.875   6.484   8.660
64384SOL    HW295050   7.859   6.505   8.511
64385SOL     OW95051   8.958   4.135  11.372
64385SOL    HW195052   8.981   4.042  11.376
64385SOL    HW295053   8.933   4.150  11.281
64386SOL     OW95054   9.329   0.968   1.674
64386SOL    HW195055   9.242   0.994   1.704
64386SOL    HW295056   9.383   0.969   1.754
64387SOL     OW95057   1.976   5.947   9.142
64387SOL    HW195058   1.966   5.852   9.153
64387SOL    HW295059   2.034   5.957   9.066
64388SOL     OW95060   0.557   7.404   3.801
64388SOL    HW195061   0.605   7.483   3.824
64388SOL    HW295062   0.588   7.381   3.714
64389SOL     OW95063   2.808   8.220  10.748
64389SOL    HW195064   2.875   8.160  10.780
64389SOL    HW295065   2.727   8.170  10.754
64390SOL     OW95066   6.867   4.178  13.274
64390SOL    HW195067   6.834   4.261  13.239
64390SOL    HW295068   6.921   4.143  13.203
64391SOL     OW95069  13.824   3.329   7.563
64391SOL    HW195070  13.790   3.337   7.474
64391SOL    HW295071  13.914   3.297   7.552
64392SOL     OW95072  12.543   1.075   2.485
64392SOL    HW195073  12.595   1.149   2.518
64392SOL    HW295074  12.605   1.024   2.434
64393SOL     OW95075   3.906   9.425  11.279
64393SOL    HW195076   3.897   9.331  11.290
64393SOL    HW295077   3.854   9.463  11.350
64394SOL     OW95078   4.684   2.493   6.481
64394SOL    HW195079   4.646   2.432   6.419
64394SOL    HW295080   4.609   2.537   6.520
64395SOL     OW95081   0.452   4.384   1.002
64395SOL    HW195082   0.441   4.415   0.912
64395SOL    HW295083   0.522   4.438   1.038
64396SOL     OW95084   8.131  11.114  10.857
64396SOL    HW195085   8.042  11.115  10.824
64396SOL    HW295086   8.138  11.029  10.902
64397SOL     OW95087   1.352  14.502   1.672
64397SOL    HW195088   1.343  14.570   1.739
64397SOL    HW295089   1.408  14.435   1.712
64398SOL     OW95090   8.307   4.785  12.893
64398SOL    HW195091   8.387   4.822  12.930
64398SOL    HW295092   8.276   4.724  12.959
64399SOL     OW95093   9.831  11.315  11.203
64399SOL    HW195094   9.926  11.309  11.193
64399SOL    HW295095   9.816  11.401  11.242
64400SOL     OW95096   7.512   6.155  12.292
64400SOL    HW195097   7.598   6.136  12.255
64400SOL    HW295098   7.508   6.101  12.371
64401SOL     OW95099  14.158  10.582   2.712
64401SOL    HW195100  14.124  10.512   2.657
64401SOL    HW295101  14.247  10.598   2.679
64402SOL     OW95102  11.041   8.585   6.383
64402SOL    HW195103  11.051   8.617   6.473
64402SOL    HW295104  11.042   8.490   6.391
64403SOL     OW95105   4.099  10.513  12.088
64403SOL    HW195106   4.076  10.529  12.180
64403SOL    HW295107   4.065  10.425  12.070
64404SOL     OW95108   5.427  10.027  13.497
64404SOL    HW195109   5.377   9.965  13.445
64404SOL    HW295110   5.513  10.031  13.454
64405SOL     OW95111   8.902  14.114  13.355
64405SOL    HW195112   8.890  14.207  13.336
64405SOL    HW295113   8.822  14.088  13.401
64406SOL     OW95114   8.863   7.066   5.838
64406SOL    HW195115   8.880   7.004   5.768
64406SOL    HW295116   8.794   7.025   5.890
64407SOL     OW95117  13.408   2.210   1.490
64407SOL    HW195118  13.328   2.259   1.510
64407SOL    HW295119  13.379   2.119   1.482
64408SOL     OW95120   6.799   2.818   5.581
64408SOL    HW195121   6.891   2.818   5.553
64408SOL    HW295122   6.802   2.789   5.672
64409SOL     OW95123  14.811  13.235   9.038
64409SOL    HW195124  14.825  13.318   8.993
64409SOL    HW295125  14.870  13.238   9.114
64410SOL     OW95126   8.503   6.371  10.751
64410SOL    HW195127   8.421   6.379  10.801
64410SOL    HW295128   8.557   6.445  10.781
64411SOL     OW95129   0.681  13.036  12.187
64411SOL    HW195130   0.686  13.011  12.279
64411SOL    HW295131   0.619  13.109  12.185
64412SOL     OW95132   2.311   4.749  12.743
64412SOL    HW195133   2.402   4.741  12.715
64412SOL    HW295134   2.266   4.675  12.702
64413SOL     OW95135   4.063   1.423   1.179
64413SOL    HW195136   4.048   1.389   1.091
64413SOL    HW295137   4.048   1.348   1.237
64414SOL     OW95138   5.384   2.417   7.413
64414SOL    HW195139   5.422   2.458   7.336
64414SOL    HW295140   5.292   2.403   7.389
64415SOL     OW95141   5.152  11.790   3.931
64415SOL    HW195142   5.210  11.774   3.856
64415SOL    HW295143   5.211  11.821   4.001
64416SOL     OW95144   2.329   7.187   2.128
64416SOL    HW195145   2.346   7.281   2.124
64416SOL    HW295146   2.308   7.162   2.038
64417SOL     OW95147  14.187  12.685   6.258
64417SOL    HW195148  14.153  12.604   6.296
64417SOL    HW295149  14.281  12.669   6.250
64418SOL     OW95150   4.326   2.356   0.926
64418SOL    HW195151   4.278   2.309   0.994
64418SOL    HW295152   4.264   2.420   0.892
64419SOL     OW95153   0.934   7.962   8.886
64419SOL    HW195154   0.848   7.970   8.926
64419SOL    HW295155   0.937   7.872   8.852
64420SOL     OW95156   9.428   8.831   3.578
64420SOL    HW195157   9.486   8.855   3.650
64420SOL    HW295158   9.439   8.900   3.514
64421SOL     OW95159  13.824   4.320   9.004
64421SOL    HW195160  13.760   4.391   9.000
64421SOL    HW295161  13.823   4.291   9.095
64422SOL     OW95162  12.534   7.297   1.469
64422SOL    HW195163  12.540   7.273   1.377
64422SOL    HW295164  12.447   7.268   1.496
64423SOL     OW95165  11.401   9.641   3.166
64423SOL    HW195166  11.333   9.698   3.202
64423SOL    HW295167  11.353   9.571   3.123
64424SOL     OW95168  13.660   5.113   3.943
64424SOL    HW195169  13.593   5.067   3.893
64424SOL    HW295170  13.677   5.193   3.892
64425SOL     OW95171   6.209   3.815   4.803
64425SOL    HW195172   6.208   3.855   4.889
64425SOL    HW295173   6.188   3.887   4.743
64426SOL     OW95174  14.484   9.822   8.542
64426SOL    HW195175  14.423   9.873   8.594
64426SOL    HW295176  14.548   9.790   8.605
64427SOL     OW95177   5.401  10.907  11.540
64427SOL    HW195178   5.401  10.907  11.444
64427SOL    HW295179   5.493  10.908  11.565
64428SOL     OW95180   6.656  12.468  10.617
64428SOL    HW195181   6.593  12.483  10.546
64428SOL    HW295182   6.734  12.435  10.573
64429SOL     OW95183  13.388   1.358   5.323
64429SOL    HW195184  13.321   1.394   5.380
64429SOL    HW295185  13.466   1.351   5.378
64430SOL     OW95186  11.384   0.755   7.791
64430SOL    HW195187  11.358   0.817   7.723
64430SOL    HW295188  11.434   0.688   7.745
64431SOL     OW95189  11.096   9.928  13.506
64431SOL    HW195190  11.153   9.973  13.568
64431SOL    HW295191  11.156   9.880  13.449
64432SOL     OW95192   5.514   9.163  11.814
64432SOL    HW195193   5.589   9.150  11.872
64432SOL    HW295194   5.490   9.074  11.785
64433SOL     OW95195  11.521   2.877  13.333
64433SOL    HW195196  11.600   2.831  13.360
64433SOL    HW295197  11.530   2.887  13.238
64434SOL     OW95198   2.487  11.163  12.565
64434SOL    HW195199   2.572  11.168  12.609
64434SOL    HW295200   2.444  11.087  12.604
64435SOL     OW95201   3.947   3.220   3.383
64435SOL    HW195202   3.882   3.235   3.314
64435SOL    HW295203   3.913   3.147   3.433
64436SOL     OW95204   8.635   7.796   6.792
64436SOL    HW195205   8.725   7.774   6.771
64436SOL    HW295206   8.642   7.856   6.867
64437SOL     OW95207  14.818   8.907   9.274
64437SOL    HW195208   0.023   8.887   9.241
64437SOL    HW295209  14.777   8.822   9.289
64438SOL     OW95210   9.900   0.875  14.165
64438SOL    HW195211   9.914   0.970  14.158
64438SOL    HW295212   9.957   0.837  14.098
64439SOL     OW95213   5.730  12.125   3.571
64439SOL    HW195214   5.817  12.161   3.553
64439SOL    HW295215   5.676  12.157   3.499
64440SOL     OW95216   3.866   0.485   7.904
64440SOL    HW195217   3.863   0.428   7.828
64440SOL    HW295218   3.951   0.467   7.945
64441SOL     OW95219   5.320   4.052   8.240
64441SOL    HW195220   5.314   4.100   8.322
64441SOL    HW295221   5.250   4.090   8.186
64442SOL     OW95222   0.807  10.023  13.551
64442SOL    HW195223   0.739  10.049  13.613
64442SOL    HW295224   0.764   9.964  13.490
64443SOL     OW95225  11.066  11.315   5.959
64443SOL    HW195226  11.090  11.245   6.019
64443SOL    HW295227  11.123  11.388   5.984
64444SOL     OW95228  12.679   4.494   1.623
64444SOL    HW195229  12.687   4.542   1.540
64444SOL    HW295230  12.688   4.402   1.598
64445SOL     OW95231   2.253  10.768   6.430
64445SOL    HW195232   2.200  10.794   6.506
64445SOL    HW295233   2.245  10.842   6.369
64446SOL     OW95234   4.918  13.758   2.115
64446SOL    HW195235   4.856  13.829   2.132
64446SOL    HW295236   4.881  13.713   2.039
64447SOL     OW95237   2.465  11.058  14.508
64447SOL    HW195238   2.559  11.053  14.490
64447SOL    HW295239   2.444  11.151  14.499
64448SOL     OW95240   0.122  12.918   3.900
64448SOL    HW195241   0.161  12.989   3.848
64448SOL    HW295242   0.182  12.845   3.889
64449SOL     OW95243   0.509   7.976   8.263
64449SOL    HW195244   0.568   7.906   8.290
64449SOL    HW295245   0.526   8.047   8.324
64450SOL     OW95246  10.418   3.209   5.070
64450SOL    HW195247  10.447   3.211   5.161
64450SOL    HW295248  10.361   3.286   5.062
64451SOL     OW95249   8.625   3.217  12.065
64451SOL    HW195250   8.693   3.278  12.095
64451SOL    HW295251   8.639   3.138  12.118
64452SOL     OW95252   9.946  13.974  11.554
64452SOL    HW195253   9.897  13.944  11.477
64452SOL    HW295254  10.036  13.948  11.537
64453SOL     OW95255   9.604  10.062   5.996
64453SOL    HW195256   9.608  10.054   6.091
64453SOL    HW295257   9.686  10.024   5.965
64454SOL     OW95258   2.771   7.712   2.817
64454SOL    HW195259   2.767   7.650   2.890
64454SOL    HW295260   2.722   7.788   2.847
64455SOL     OW95261  13.094   0.880   9.112
64455SOL    HW195262  13.188   0.892   9.122
64455SOL    HW295263  13.067   0.945   9.047
64456SOL     OW95264  11.391   0.112   7.519
64456SOL    HW195265  11.385   0.188   7.460
64456SOL    HW295266  11.354   0.143   7.601
64457SOL     OW95267   8.970  12.710   4.765
64457SOL    HW195268   9.004  12.787   4.720
64457SOL    HW295269   8.943  12.742   4.851
64458SOL     OW95270   8.422   4.548  12.690
64458SOL    HW195271   8.372   4.592  12.759
64458SOL    HW295272   8.410   4.455  12.708
64459SOL     OW95273  11.705  11.832   3.594
64459SOL    HW195274  11.790  11.856   3.630
64459SOL    HW295275  11.694  11.888   3.517
64460SOL     OW95276   4.949   5.565  14.334
64460SOL    HW195277   4.892   5.497  14.371
64460SOL    HW295278   5.032   5.553  14.379
64461SOL     OW95279  11.266   6.585   4.980
64461SOL    HW195280  11.186   6.615   5.022
64461SOL    HW295281  11.284   6.500   5.021
64462SOL     OW95282   1.411  11.617  11.387
64462SOL    HW195283   1.424  11.711  11.390
64462SOL    HW295284   1.325  11.603  11.427
64463SOL     OW95285  12.463   4.211   0.295
64463SOL    HW195286  12.479   4.301   0.265
64463SOL    HW295287  12.495   4.156   0.224
64464SOL     OW95288   6.120  10.079  11.455
64464SOL    HW195289   6.095   9.987  11.462
64464SOL    HW295290   6.161  10.099  11.539
64465SOL     OW95291   6.757  10.883   0.652
64465SOL    HW195292   6.852  10.891   0.660
64465SOL    HW295293   6.742  10.788   0.650
64466SOL     OW95294   1.968  11.768  13.966
64466SOL    HW195295   1.882  11.741  13.934
64466SOL    HW295296   2.030  11.720  13.912
64467SOL     OW95297   5.150  11.660   4.260
64467SOL    HW195298   5.084  11.696   4.200
64467SOL    HW295299   5.099  11.621   4.331
64468SOL     OW95300   1.884   8.769   1.990
64468SOL    HW195301   1.900   8.737   2.079
64468SOL    HW295302   1.893   8.692   1.935
64469SOL     OW95303  10.701   1.932   4.378
64469SOL    HW195304  10.637   1.907   4.311
64469SOL    HW295305  10.718   2.025   4.361
64470SOL     OW95306   0.978   2.545  12.376
64470SOL    HW195307   0.884   2.563  12.367
64470SOL    HW295308   1.008   2.607  12.442
64471SOL     OW95309   9.667  11.882   1.566
64471SOL    HW195310   9.717  11.935   1.628
64471SOL    HW295311   9.645  11.802   1.614
64472SOL     OW95312  11.928   0.049  10.677
64472SOL    HW195313  11.884  14.853  10.644
64472SOL    HW295314  12.014   0.048  10.635
64473SOL     OW95315  14.242   9.601   8.605
64473SOL    HW195316  14.188   9.580   8.681
64473SOL    HW295317  14.300   9.525   8.595
64474SOL     OW95318   2.417   7.163   7.128
64474SOL    HW195319   2.341   7.203   7.170
64474SOL    HW295320   2.383   7.084   7.087
64475SOL     OW95321   5.506   1.361   2.284
64475SOL    HW195322   5.443   1.348   2.214
64475SOL    HW295323   5.484   1.446   2.322
64476SOL     OW95324   4.248  13.311   5.875
64476SOL    HW195325   4.247  13.220   5.906
64476SOL    HW295326   4.336  13.343   5.896
64477SOL     OW95327   0.636  11.140   0.720
64477SOL    HW195328   0.712  11.166   0.668
64477SOL    HW295329   0.577  11.098   0.657
64478SOL     OW95330   0.144   6.423   0.034
64478SOL    HW195331   0.180   6.420  14.827
64478SOL    HW295332   0.139   6.517   0.054
64479SOL     OW95333  13.034  10.417  11.360
64479SOL    HW195334  12.957  10.446  11.409
64479SOL    HW295335  13.045  10.483  11.291
64480SOL     OW95336   3.456   4.115   1.662
64480SOL    HW195337   3.503   4.171   1.600
64480SOL    HW295338   3.515   4.108   1.737
64481SOL     OW95339   1.523   9.240   0.063
64481SOL    HW195340   1.597   9.214   0.007
64481SOL    HW295341   1.563   9.295   0.130
64482SOL     OW95342   2.842  11.850  10.735
64482SOL    HW195343   2.901  11.801  10.793
64482SOL    HW295344   2.757  11.845  10.778
64483SOL     OW95345   6.253   1.633   9.951
64483SOL    HW195346   6.221   1.615   9.863
64483SOL    HW295347   6.304   1.713   9.943
64484SOL     OW95348  10.195   2.030  14.778
64484SOL    HW195349  10.240   2.013  14.695
64484SOL    HW295350  10.107   1.995  14.764
64485SOL     OW95351   5.795   0.666   6.628
64485SOL    HW195352   5.805   0.727   6.701
64485SOL    HW295353   5.884   0.643   6.603
64486SOL     OW95354   4.787  10.047   5.620
64486SOL    HW195355   4.741  10.075   5.541
64486SOL    HW295356   4.876  10.026   5.590
64487SOL     OW95357   4.920   6.524   4.643
64487SOL    HW195358   4.971   6.592   4.599
64487SOL    HW295359   4.880   6.474   4.572
64488SOL     OW95360   9.626   8.241   8.597
64488SOL    HW195361   9.542   8.206   8.626
64488SOL    HW295362   9.636   8.324   8.645
64489SOL     OW95363   1.693   2.108   9.611
64489SOL    HW195364   1.773   2.158   9.627
64489SOL    HW295365   1.681   2.055   9.690
64490SOL     OW95366  10.137   5.125  12.410
64490SOL    HW195367  10.136   5.043  12.360
64490SOL    HW295368  10.183   5.186  12.353
64491SOL     OW95369  13.370   6.511  12.052
64491SOL    HW195370  13.406   6.545  12.134
64491SOL    HW295371  13.357   6.418  12.069
64492SOL     OW95372  10.230   8.588  14.602
64492SOL    HW195373  10.210   8.534  14.525
64492SOL    HW295374  10.317   8.624  14.584
64493SOL     OW95375   6.658  11.593  13.020
64493SOL    HW195376   6.600  11.531  13.063
64493SOL    HW295377   6.696  11.644  13.092
64494SOL     OW95378   2.765   8.598   0.008
64494SOL    HW195379   2.677   8.576   0.039
64494SOL    HW295380   2.823   8.545   0.062
64495SOL     OW95381   5.589   1.558   3.678
64495SOL    HW195382   5.526   1.515   3.620
64495SOL    HW295383   5.547   1.559   3.764
64496SOL     OW95384  13.509   4.723   4.215
64496SOL    HW195385  13.449   4.664   4.170
64496SOL    HW295386  13.595   4.702   4.179
64497SOL     OW95387   4.219   5.749  11.369
64497SOL    HW195388   4.247   5.658  11.368
64497SOL    HW295389   4.187   5.763  11.459
64498SOL     OW95390  12.157  12.448   1.395
64498SOL    HW195391  12.252  12.441   1.381
64498SOL    HW295392  12.140  12.542   1.398
64499SOL     OW95393   6.488  14.559  12.101
64499SOL    HW195394   6.405  14.560  12.148
64499SOL    HW295395   6.476  14.495  12.031
64500SOL     OW95396   8.514   4.729   1.110
64500SOL    HW195397   8.491   4.737   1.203
64500SOL    HW295398   8.579   4.659   1.107
64501SOL     OW95399  14.253   6.427   5.513
64501SOL    HW195400  14.270   6.389   5.599
64501SOL    HW295401  14.331   6.479   5.493
64502SOL     OW95402  11.494   5.543   9.907
64502SOL    HW195403  11.576   5.554   9.859
64502SOL    HW295404  11.429   5.523   9.839
64503SOL     OW95405   6.411  10.034  12.160
64503SOL    HW195406   6.319  10.059  12.168
64503SOL    HW295407   6.452  10.107  12.114
64504SOL     OW95408   1.281  13.364  12.815
64504SOL    HW195409   1.275  13.318  12.732
64504SOL    HW295410   1.190  13.387  12.836
64505SOL     OW95411  14.536  11.868   9.086
64505SOL    HW195412  14.524  11.941   9.026
64505SOL    HW295413  14.520  11.905   9.173
64506SOL     OW95414   6.879   2.521  10.437
64506SOL    HW195415   6.898   2.448  10.496
64506SOL    HW295416   6.803   2.492  10.387
64507SOL     OW95417   5.743   0.453   4.680
64507SOL    HW195418   5.779   0.491   4.760
64507SOL    HW295419   5.724   0.527   4.623
64508SOL     OW95420   5.733  13.410  13.696
64508SOL    HW195421   5.674  13.419  13.771
64508SOL    HW295422   5.675  13.393  13.622
64509SOL     OW95423   6.060   5.192  11.501
64509SOL    HW195424   5.986   5.132  11.489
64509SOL    HW295425   6.024   5.263  11.555
64510SOL     OW95426   9.016   0.625   3.514
64510SOL    HW195427   9.028   0.547   3.568
64510SOL    HW295428   8.985   0.592   3.430
64511SOL     OW95429  12.967   3.271   9.920
64511SOL    HW195430  12.891   3.300   9.971
64511SOL    HW295431  12.971   3.177   9.934
64512SOL     OW95432   9.965  12.764  13.756
64512SOL    HW195433   9.986  12.716  13.836
64512SOL    HW295434   9.939  12.696  13.694
64513SOL     OW95435  13.994  14.577   7.499
64513SOL    HW195436  14.060  14.624   7.449
64513SOL    HW295437  14.034  14.491   7.517
64514SOL     OW95438  14.468  10.560  12.736
64514SOL    HW195439  14.413  10.626  12.693
64514SOL    HW295440  14.406  10.498  12.775
64515SOL     OW95441   4.594   3.234   2.963
64515SOL    HW195442   4.678   3.238   2.918
64515SOL    HW295443   4.544   3.168   2.915
64516SOL     OW95444  12.428   8.315  10.402
64516SOL    HW195445  12.373   8.394  10.400
64516SOL    HW295446  12.417   8.276  10.315
64517SOL     OW95447   5.152  12.879   8.014
64517SOL    HW195448   5.176  12.886   7.922
64517SOL    HW295449   5.079  12.939   8.025
64518SOL     OW95450   6.033   8.838   7.813
64518SOL    HW195451   5.946   8.841   7.852
64518SOL    HW295452   6.030   8.901   7.741
64519SOL     OW95453   3.302   0.132  14.466
64519SOL    HW195454   3.361   0.158  14.396
64519SOL    HW295455   3.215   0.131  14.426
64520SOL     OW95456   8.119   1.493   5.696
64520SOL    HW195457   8.148   1.453   5.614
64520SOL    HW295458   8.072   1.422   5.741
64521SOL     OW95459  11.934  11.422  14.496
64521SOL    HW195460  11.862  11.484  14.506
64521SOL    HW295461  11.931  11.368  14.575
64522SOL     OW95462  12.722   4.680   7.490
64522SOL    HW195463  12.636   4.638   7.491
64522SOL    HW295464  12.719   4.738   7.413
64523SOL     OW95465   7.712   8.110   3.845
64523SOL    HW195466   7.711   8.101   3.750
64523SOL    HW295467   7.730   8.203   3.860
64524SOL     OW95468  12.902   4.904   2.160
64524SOL    HW195469  12.898   4.846   2.084
64524SOL    HW295470  12.915   4.991   2.122
64525SOL     OW95471   0.390   2.802  12.922
64525SOL    HW195472   0.312   2.813  12.868
64525SOL    HW295473   0.414   2.710  12.913
64526SOL     OW95474   6.553  14.774  13.934
64526SOL    HW195475   6.519  14.740  14.016
64526SOL    HW295476   6.515  14.718  13.866
64527SOL     OW95477   7.423   2.171   8.061
64527SOL    HW195478   7.379   2.255   8.055
64527SOL    HW295479   7.367   2.120   8.121
64528SOL     OW95480   8.751   0.261  14.410
64528SOL    HW195481   8.793   0.188  14.365
64528SOL    HW295482   8.726   0.321  14.340
64529SOL     OW95483  12.149   1.708  10.497
64529SOL    HW195484  12.243   1.715  10.513
64529SOL    HW295485  12.127   1.789  10.451
64530SOL     OW95486   3.400   3.520   0.414
64530SOL    HW195487   3.383   3.427   0.432
64530SOL    HW295488   3.483   3.520   0.367
64531SOL     OW95489   6.312   3.183  12.529
64531SOL    HW195490   6.390   3.181  12.473
64531SOL    HW295491   6.305   3.274  12.557
64532SOL     OW95492   8.758   6.587  13.443
64532SOL    HW195493   8.689   6.642  13.481
64532SOL    HW295494   8.795   6.539  13.517
64533SOL     OW95495   3.394   0.482  12.236
64533SOL    HW195496   3.320   0.471  12.296
64533SOL    HW295497   3.471   0.478  12.292
64534SOL     OW95498  10.664   1.682  13.746
64534SOL    HW195499  10.757   1.662  13.738
64534SOL    HW295500  10.621   1.597  13.749
64535SOL     OW95501   9.692  11.284  13.848
64535SOL    HW195502   9.777  11.271  13.806
64535SOL    HW295503   9.629  11.248  13.785
64536SOL     OW95504   1.198  13.532   9.440
64536SOL    HW195505   1.136  13.528   9.367
64536SOL    HW295506   1.270  13.476   9.412
64537SOL     OW95507   2.576   5.116  11.033
64537SOL    HW195508   2.623   5.037  11.059
64537SOL    HW295509   2.529   5.092  10.954
64538SOL     OW95510   2.675   4.387   9.022
64538SOL    HW195511   2.746   4.391   8.958
64538SOL    HW295512   2.614   4.455   8.995
64539SOL     OW95513   7.467  12.114   3.492
64539SOL    HW195514   7.496  12.038   3.542
64539SOL    HW295515   7.529  12.183   3.514
64540SOL     OW95516   8.183   7.175   7.509
64540SOL    HW195517   8.229   7.162   7.426
64540SOL    HW295518   8.243   7.140   7.575
64541SOL     OW95519   4.209   5.992   0.169
64541SOL    HW195520   4.128   5.982   0.120
64541SOL    HW295521   4.274   6.018   0.103
64542SOL     OW95522   3.118   0.979  12.966
64542SOL    HW195523   3.115   1.019  13.053
64542SOL    HW295524   3.034   0.935  12.957
64543SOL     OW95525   7.320  12.921   2.868
64543SOL    HW195526   7.415  12.921   2.873
64543SOL    HW295527   7.292  12.985   2.934
64544SOL     OW95528   4.463   1.583  10.719
64544SOL    HW195529   4.387   1.563  10.663
64544SOL    HW295530   4.481   1.675  10.703
64545SOL     OW95531  11.806   8.658  13.041
64545SOL    HW195532  11.755   8.730  13.004
64545SOL    HW295533  11.834   8.690  13.127
64546SOL     OW95534   6.080  14.369   2.233
64546SOL    HW195535   6.026  14.290   2.231
64546SOL    HW295536   6.088  14.395   2.141
64547SOL     OW95537   6.773  11.856  14.554
64547SOL    HW195538   6.847  11.796  14.567
64547SOL    HW295539   6.752  11.848  14.461
64548SOL     OW95540   9.613   0.073   7.850
64548SOL    HW195541   9.578   0.084   7.938
64548SOL    HW295542   9.538   0.090   7.793
64549SOL     OW95543  12.623   1.932  14.483
64549SOL    HW195544  12.596   1.865  14.546
64549SOL    HW295545  12.719   1.932  14.487
64550SOL     OW95546  13.852   6.652   8.083
64550SOL    HW195547  13.777   6.632   8.026
64550SOL    HW295548  13.925   6.664   8.022
64551SOL     OW95549  10.349   5.710   4.065
64551SOL    HW195550  10.420   5.724   4.129
64551SOL    HW295551  10.345   5.615   4.054
64552SOL     OW95552  11.483  14.802  11.757
64552SOL    HW195553  11.479   0.015  11.754
64552SOL    HW295554  11.568  14.780  11.720
64553SOL     OW95555  13.873   6.260   5.149
64553SOL    HW195556  13.811   6.300   5.088
64553SOL    HW295557  13.840   6.283   5.235
64554SOL     OW95558   8.482  11.554   5.106
64554SOL    HW195559   8.450  11.618   5.043
64554SOL    HW295560   8.407  11.535   5.162
64555SOL     OW95561  10.123  12.097  12.953
64555SOL    HW195562  10.100  12.182  12.915
64555SOL    HW295563  10.161  12.119  13.039
64556SOL     OW95564   9.311   3.140   4.277
64556SOL    HW195565   9.278   3.203   4.212
64556SOL    HW295566   9.328   3.061   4.227
64557SOL     OW95567  10.307  11.593  14.389
64557SOL    HW195568  10.368  11.628  14.324
64557SOL    HW295569  10.225  11.581  14.341
64558SOL     OW95570   4.941   4.036   8.216
64558SOL    HW195571   4.851   4.067   8.211
64558SOL    HW295572   4.975   4.046   8.127
64559SOL     OW95573   1.620   8.648   2.850
64559SOL    HW195574   1.709   8.684   2.845
64559SOL    HW295575   1.568   8.718   2.890
64560SOL     OW95576  14.257   5.573   5.445
64560SOL    HW195577  14.236   5.608   5.359
64560SOL    HW295578  14.229   5.641   5.506
64561SOL     OW95579   3.416  11.717   2.801
64561SOL    HW195580   3.471  11.711   2.724
64561SOL    HW295581   3.350  11.648   2.789
64562SOL     OW95582  10.995  12.619   5.348
64562SOL    HW195583  10.969  12.638   5.258
64562SOL    HW295584  11.065  12.682   5.366
64563SOL     OW95585   6.858   3.596   8.391
64563SOL    HW195586   6.896   3.657   8.327
64563SOL    HW295587   6.774   3.571   8.354
64564SOL     OW95588   8.278  11.783   8.349
64564SOL    HW195589   8.258  11.690   8.346
64564SOL    HW295590   8.233  11.820   8.273
64565SOL     OW95591  14.673   8.496  13.892
64565SOL    HW195592  14.602   8.432  13.892
64565SOL    HW295593  14.630   8.579  13.913
64566SOL     OW95594  12.190   7.287   1.758
64566SOL    HW195595  12.122   7.354   1.759
64566SOL    HW295596  12.205   7.267   1.851
64567SOL     OW95597   6.804  11.108  11.648
64567SOL    HW195598   6.755  11.029  11.672
64567SOL    HW295599   6.867  11.120  11.719
64568SOL     OW95600   9.383   3.830   3.463
64568SOL    HW195601   9.467   3.810   3.504
64568SOL    HW295602   9.317   3.803   3.527
64569SOL     OW95603  12.942   6.420  12.112
64569SOL    HW195604  12.902   6.461  12.035
64569SOL    HW295605  12.942   6.326  12.091
64570SOL     OW95606  11.999  13.218  10.196
64570SOL    HW195607  12.060  13.152  10.162
64570SOL    HW295608  12.052  13.298  10.203
64571SOL     OW95609   8.253   2.255   0.087
64571SOL    HW195610   8.270   2.161   0.082
64571SOL    HW295611   8.157   2.262   0.094
64572SOL     OW95612  10.354   4.823  12.525
64572SOL    HW195613  10.438   4.867  12.512
64572SOL    HW295614  10.320   4.861  12.606
64573SOL     OW95615   5.758   3.073  14.757
64573SOL    HW195616   5.691   3.046  14.696
64573SOL    HW295617   5.721   3.148  14.803
64574SOL     OW95618   0.552   9.049   2.687
64574SOL    HW195619   0.515   8.999   2.760
64574SOL    HW295620   0.500   9.022   2.611
64575SOL     OW95621   4.064   7.083  10.465
64575SOL    HW195622   4.138   7.053  10.412
64575SOL    HW295623   4.087   7.055  10.554
64576SOL     OW95624   8.432   3.936   3.268
64576SOL    HW195625   8.350   3.891   3.250
64576SOL    HW295626   8.484   3.873   3.318
64577SOL     OW95627   0.955  12.168   0.595
64577SOL    HW195628   0.982  12.150   0.685
64577SOL    HW295629   0.898  12.244   0.602
64578SOL     OW95630   5.651   8.819  14.509
64578SOL    HW195631   5.703   8.822  14.589
64578SOL    HW295632   5.696   8.877  14.449
64579SOL     OW95633  10.253   2.405   4.435
64579SOL    HW195634  10.272   2.312   4.448
64579SOL    HW295635  10.158   2.411   4.443
64580SOL     OW95636  14.649  12.759   1.490
64580SOL    HW195637  14.698  12.797   1.417
64580SOL    HW295638  14.682  12.669   1.498
64581SOL     OW95639   7.170  13.287   6.001
64581SOL    HW195640   7.201  13.198   6.015
64581SOL    HW295641   7.078  13.276   5.976
64582SOL     OW95642   5.167  12.853   1.015
64582SOL    HW195643   5.182  12.782   0.953
64582SOL    HW295644   5.105  12.911   0.971
64583SOL     OW95645   6.602   6.701   8.973
64583SOL    HW195646   6.523   6.658   9.007
64583SOL    HW295647   6.622   6.770   9.037
64584SOL     OW95648   8.376   9.930   2.305
64584SOL    HW195649   8.438   9.869   2.344
64584SOL    HW295650   8.426   9.976   2.237
64585SOL     OW95651  12.540  10.149  13.985
64585SOL    HW195652  12.603  10.165  13.914
64585SOL    HW295653  12.455  10.156  13.943
64586SOL     OW95654   0.766   4.096  11.190
64586SOL    HW195655   0.839   4.053  11.145
64586SOL    HW295656   0.721   4.025  11.236
64587SOL     OW95657  12.418   9.125   7.161
64587SOL    HW195658  12.511   9.148   7.167
64587SOL    HW295659  12.377   9.199   7.116
64588SOL     OW95660  14.640   9.085  14.801
64588SOL    HW195661  14.725   9.115  14.835
64588SOL    HW295662  14.642   9.107  14.708
64589SOL     OW95663   5.653   0.422  10.842
64589SOL    HW195664   5.620   0.456  10.759
64589SOL    HW295665   5.633   0.492  10.905
64590SOL     OW95666   9.589   1.640  13.748
64590SOL    HW195667   9.625   1.692  13.677
64590SOL    HW295668   9.495   1.654  13.744
64591SOL     OW95669   4.886   6.799   2.021
64591SOL    HW195670   4.968   6.846   2.032
64591SOL    HW295671   4.884   6.777   1.928
64592SOL     OW95672  14.813   2.382   3.313
64592SOL    HW195673  14.733   2.354   3.268
64592SOL    HW295674  14.786   2.459   3.363
64593SOL     OW95675   1.711   0.414  10.071
64593SOL    HW195676   1.701   0.500  10.031
64593SOL    HW295677   1.663   0.355  10.013
64594SOL     OW95678  13.188  10.454  13.859
64594SOL    HW195679  13.245  10.518  13.902
64594SOL    HW295680  13.228  10.442  13.772
64595SOL     OW95681   8.540   4.787   2.052
64595SOL    HW195682   8.571   4.697   2.044
64595SOL    HW295683   8.567   4.829   1.970
64596SOL     OW95684   3.857  12.913  10.437
64596SOL    HW195685   3.916  12.944  10.368
64596SOL    HW295686   3.824  12.992  10.479
64597SOL     OW95687   9.281   3.995  10.000
64597SOL    HW195688   9.223   4.013   9.926
64597SOL    HW295689   9.348   3.937   9.964
64598SOL     OW95690  10.357   0.258  14.221
64598SOL    HW195691  10.289   0.211  14.172
64598SOL    HW295692  10.438   0.214  14.197
64599SOL     OW95693   5.833  12.355   2.189
64599SOL    HW195694   5.753  12.403   2.169
64599SOL    HW295695   5.812  12.305   2.267
64600SOL     OW95696   5.202   5.343   4.822
64600SOL    HW195697   5.238   5.423   4.859
64600SOL    HW295698   5.209   5.355   4.727
64601SOL     OW95699   8.269   3.208   8.649
64601SOL    HW195700   8.310   3.291   8.674
64601SOL    HW295701   8.182   3.232   8.618
64602SOL     OW95702   4.326   5.112  11.480
64602SOL    HW195703   4.372   5.083  11.558
64602SOL    HW295704   4.286   5.195  11.505
64603SOL     OW95705  12.205   1.493   6.407
64603SOL    HW195706  12.162   1.522   6.327
64603SOL    HW295707  12.172   1.552   6.475
64604SOL     OW95708   1.812  14.404   7.652
64604SOL    HW195709   1.870  14.417   7.578
64604SOL    HW295710   1.831  14.316   7.683
64605SOL     OW95711  11.747   0.467   0.719
64605SOL    HW195712  11.664   0.480   0.673
64605SOL    HW295713  11.804   0.425   0.654
64606SOL     OW95714   7.967  10.106   6.178
64606SOL    HW195715   7.931  10.127   6.265
64606SOL    HW295716   8.043  10.163   6.170
64607SOL     OW95717   8.397   5.308   4.604
64607SOL    HW195718   8.324   5.315   4.666
64607SOL    HW295719   8.356   5.278   4.523
64608SOL     OW95720   7.601  11.232  11.484
64608SOL    HW195721   7.546  11.213  11.560
64608SOL    HW295722   7.565  11.176  11.415
64609SOL     OW95723  13.074   1.857  11.399
64609SOL    HW195724  12.985   1.890  11.404
64609SOL    HW295725  13.099   1.840  11.489
64610SOL     OW95726  10.420   3.813   2.479
64610SOL    HW195727  10.484   3.778   2.417
64610SOL    HW295728  10.367   3.873   2.427
64611SOL     OW95729   2.497  10.520  12.788
64611SOL    HW195730   2.559  10.547  12.856
64611SOL    HW295731   2.468  10.433  12.816
64612SOL     OW95732   0.574   9.906   7.656
64612SOL    HW195733   0.578   9.913   7.751
64612SOL    HW295734   0.481   9.912   7.636
64613SOL     OW95735   9.077   6.634   5.904
64613SOL    HW195736   9.120   6.553   5.932
64613SOL    HW295737   9.031   6.664   5.982
64614SOL     OW95738   2.134   2.904   6.514
64614SOL    HW195739   2.091   2.892   6.599
64614SOL    HW295740   2.185   2.825   6.501
64615SOL     OW95741  10.918   7.767   8.219
64615SOL    HW195742  11.013   7.755   8.226
64615SOL    HW295743  10.889   7.691   8.168
64616SOL     OW95744  10.350   0.459  10.483
64616SOL    HW195745  10.313   0.448  10.571
64616SOL    HW295746  10.284   0.510  10.435
64617SOL     OW95747  14.876  11.451   6.698
64617SOL    HW195748  14.784  11.476   6.704
64617SOL    HW295749  14.875  11.357   6.682
64618SOL     OW95750  13.746   1.015   8.833
64618SOL    HW195751  13.698   1.046   8.910
64618SOL    HW295752  13.677   0.981   8.775
64619SOL     OW95753   5.474  12.485  10.740
64619SOL    HW195754   5.405  12.419  10.750
64619SOL    HW295755   5.550  12.446  10.784
64620SOL     OW95756   8.524   3.591  13.738
64620SOL    HW195757   8.583   3.599  13.663
64620SOL    HW295758   8.438   3.613  13.702
64621SOL     OW95759  13.177  11.351  12.733
64621SOL    HW195760  13.085  11.377  12.740
64621SOL    HW295761  13.226  11.431  12.753
64622SOL     OW95762  11.204  10.107   8.278
64622SOL    HW195763  11.175  10.197   8.259
64622SOL    HW295764  11.214  10.105   8.373
64623SOL     OW95765  11.049   5.598  13.306
64623SOL    HW195766  10.976   5.643  13.348
64623SOL    HW295767  11.127   5.644  13.339
64624SOL     OW95768   6.742   3.685  10.512
64624SOL    HW195769   6.757   3.742  10.587
64624SOL    HW295770   6.681   3.733  10.456
64625SOL     OW95771  14.600  10.144   9.652
64625SOL    HW195772  14.587  10.058   9.693
64625SOL    HW295773  14.610  10.125   9.559
64626SOL     OW95774   4.956  10.361   3.947
64626SOL    HW195775   4.890  10.319   3.891
64626SOL    HW295776   5.036  10.362   3.893
64627SOL     OW95777  12.898  12.187   9.598
64627SOL    HW195778  12.967  12.213   9.537
64627SOL    HW295779  12.816  12.205   9.552
64628SOL     OW95780  11.862   9.994   2.868
64628SOL    HW195781  11.890   9.950   2.788
64628SOL    HW295782  11.767   9.996   2.862
64629SOL     OW95783  10.475  13.986   2.563
64629SOL    HW195784  10.479  14.031   2.479
64629SOL    HW295785  10.395  14.017   2.604
64630SOL     OW95786   1.359   1.474   8.425
64630SOL    HW195787   1.448   1.480   8.392
64630SOL    HW295788   1.348   1.382   8.450
64631SOL     OW95789   0.509   5.667   7.131
64631SOL    HW195790   0.416   5.655   7.114
64631SOL    HW295791   0.541   5.718   7.056
64632SOL     OW95792  12.837   1.563   9.441
64632SOL    HW195793  12.879   1.574   9.526
64632SOL    HW295794  12.765   1.626   9.442
64633SOL     OW95795  14.648   2.013  12.171
64633SOL    HW195796  14.603   2.063  12.103
64633SOL    HW295797  14.732   1.989  12.132
64634SOL     OW95798  10.025  14.668  13.481
64634SOL    HW195799   9.934  14.669  13.450
64634SOL    HW295800  10.072  14.619  13.414
64635SOL     OW95801   2.551   7.266  11.039
64635SOL    HW195802   2.537   7.198  11.105
64635SOL    HW295803   2.469   7.317  11.039
64636SOL     OW95804   6.923   6.818   6.712
64636SOL    HW195805   6.911   6.913   6.705
64636SOL    HW295806   6.997   6.799   6.655
64637SOL     OW95807   7.996   4.081   1.767
64637SOL    HW195808   8.068   4.143   1.777
64637SOL    HW295809   7.980   4.050   1.856
64638SOL     OW95810   3.408  13.067   0.216
64638SOL    HW195811   3.410  12.993   0.156
64638SOL    HW295812   3.465  13.133   0.175
64639SOL     OW95813  13.160  10.218   2.669
64639SOL    HW195814  13.246  10.188   2.639
64639SOL    HW295815  13.179  10.292   2.727
64640SOL     OW95816  13.589   7.682   0.510
64640SOL    HW195817  13.620   7.751   0.451
64640SOL    HW295818  13.509   7.649   0.469
64641SOL     OW95819  13.029   3.802  10.743
64641SOL    HW195820  12.999   3.712  10.753
64641SOL    HW295821  13.029   3.817  10.649
64642SOL     OW95822  13.560  10.720   0.962
64642SOL    HW195823  13.523  10.703   1.049
64642SOL    HW295824  13.534  10.644   0.910
64643SOL     OW95825  10.847   3.881  14.195
64643SOL    HW195826  10.855   3.788  14.173
64643SOL    HW295827  10.790   3.882  14.272
64644SOL     OW95828  12.908   1.660   3.000
64644SOL    HW195829  12.934   1.579   2.957
64644SOL    HW295830  12.813   1.662   2.993
64645SOL     OW95831  10.635  12.530  11.947
64645SOL    HW195832  10.730  12.535  11.947
64645SOL    HW295833  10.608  12.575  12.027
64646SOL     OW95834   4.961   0.780   8.332
64646SOL    HW195835   5.004   0.699   8.305
64646SOL    HW295836   4.982   0.842   8.263
64647SOL     OW95837   3.971   7.858   8.047
64647SOL    HW195838   3.995   7.855   8.140
64647SOL    HW295839   3.875   7.858   8.048
64648SOL     OW95840  12.135   9.924   2.581
64648SOL    HW195841  12.118   9.839   2.542
64648SOL    HW295842  12.217   9.912   2.630
64649SOL     OW95843   0.956   9.697   0.661
64649SOL    HW195844   0.889   9.745   0.709
64649SOL    HW295845   0.917   9.611   0.644
64650SOL     OW95846   9.589  10.252   2.449
64650SOL    HW195847   9.577  10.157   2.450
64650SOL    HW295848   9.669  10.266   2.499
64651SOL     OW95849   4.060   1.457   8.639
64651SOL    HW195850   4.081   1.511   8.716
64651SOL    HW295851   4.042   1.370   8.675
64652SOL     OW95852  10.977   4.160   0.097
64652SOL    HW195853  10.974   4.255   0.087
64652SOL    HW295854  11.050   4.132   0.041
64653SOL     OW95855   0.183  10.527   0.365
64653SOL    HW195856   0.097  10.564   0.385
64653SOL    HW295857   0.213  10.577   0.289
64654SOL     OW95858   0.474   4.656   9.552
64654SOL    HW195859   0.472   4.733   9.608
64654SOL    HW295860   0.520   4.589   9.603
64655SOL     OW95861  12.166  11.729   1.409
64655SOL    HW195862  12.232  11.778   1.459
64655SOL    HW295863  12.106  11.797   1.378
64656SOL     OW95864  11.725   6.229   1.087
64656SOL    HW195865  11.663   6.225   1.014
64656SOL    HW295866  11.770   6.145   1.086
64657SOL     OW95867  10.005  13.116  11.023
64657SOL    HW195868  10.014  13.030  11.064
64657SOL    HW295869   9.913  13.138  11.034
64658SOL     OW95870  10.465   6.044  13.163
64658SOL    HW195871  10.443   6.021  13.073
64658SOL    HW295872  10.510   5.967  13.198
64659SOL     OW95873   8.261   7.932  14.343
64659SOL    HW195874   8.178   7.896  14.311
64659SOL    HW295875   8.311   7.951  14.263
64660SOL     OW95876   6.745  10.177   6.746
64660SOL    HW195877   6.653  10.205   6.749
64660SOL    HW295878   6.776  10.186   6.836
64661SOL     OW95879   8.558  12.919   3.239
64661SOL    HW195880   8.532  12.950   3.152
64661SOL    HW295881   8.476  12.891   3.280
64662SOL     OW95882   3.700  11.369  13.890
64662SOL    HW195883   3.790  11.398  13.880
64662SOL    HW295884   3.678  11.328  13.806
64663SOL     OW95885  11.445   1.134  11.520
64663SOL    HW195886  11.508   1.124  11.591
64663SOL    HW295887  11.442   1.048  11.478
64664SOL     OW95888   7.186   2.185   3.657
64664SOL    HW195889   7.177   2.212   3.749
64664SOL    HW295890   7.097   2.190   3.622
64665SOL     OW95891   7.133   6.266  12.858
64665SOL    HW195892   7.181   6.306  12.930
64665SOL    HW295893   7.100   6.340  12.806
64666SOL     OW95894   1.448   2.008   9.125
64666SOL    HW195895   1.526   2.054   9.094
64666SOL    HW295896   1.468   1.983   9.215
64667SOL     OW95897   7.642   0.434   2.191
64667SOL    HW195898   7.566   0.377   2.205
64667SOL    HW295899   7.623   0.512   2.243
64668SOL     OW95900  12.028  10.812   3.660
64668SOL    HW195901  11.962  10.763   3.709
64668SOL    HW295902  12.070  10.747   3.605
64669SOL     OW95903   2.856   4.727  13.885
64669SOL    HW195904   2.942   4.696  13.913
64669SOL    HW295905   2.802   4.648  13.882
64670SOL     OW95906   8.939   2.329  11.505
64670SOL    HW195907   9.000   2.255  11.497
64670SOL    HW295908   8.896   2.315  11.589
64671SOL     OW95909   6.841   4.728   5.476
64671SOL    HW195910   6.899   4.713   5.402
64671SOL    HW295911   6.880   4.679   5.548
64672SOL     OW95912   1.752  13.610  11.050
64672SOL    HW195913   1.824  13.631  10.991
64672SOL    HW295914   1.673  13.630  10.999
64673SOL     OW95915   1.168  11.479  12.081
64673SOL    HW195916   1.156  11.405  12.141
64673SOL    HW295917   1.080  11.510  12.063
64674SOL     OW95918   2.586   9.125   3.134
64674SOL    HW195919   2.673   9.149   3.102
64674SOL    HW295920   2.573   9.179   3.212
64675SOL     OW95921   7.339  11.544   0.208
64675SOL    HW195922   7.348  11.628   0.253
64675SOL    HW295923   7.341  11.567   0.115
64676SOL     OW95924   3.298   4.706   5.599
64676SOL    HW195925   3.244   4.770   5.645
64676SOL    HW295926   3.269   4.621   5.632
64677SOL     OW95927   9.189  10.990  10.651
64677SOL    HW195928   9.171  10.928  10.580
64677SOL    HW295929   9.284  10.986  10.663
64678SOL     OW95930  11.946  12.535   7.013
64678SOL    HW195931  12.023  12.493   6.974
64678SOL    HW295932  11.952  12.512   7.106
64679SOL     OW95933   0.497   0.200   3.693
64679SOL    HW195934   0.507   0.121   3.746
64679SOL    HW295935   0.550   0.184   3.615
64680SOL     OW95936   4.231   8.306   6.373
64680SOL    HW195937   4.268   8.255   6.445
64680SOL    HW295938   4.188   8.380   6.416
64681SOL     OW95939   4.387   5.006  12.332
64681SOL    HW195940   4.303   4.966  12.354
64681SOL    HW295941   4.364   5.084  12.282
64682SOL     OW95942   6.049   9.407  10.700
64682SOL    HW195943   6.134   9.388  10.659
64682SOL    HW295944   5.985   9.366  10.643
64683SOL     OW95945  10.837   5.159   1.878
64683SOL    HW195946  10.887   5.192   1.803
64683SOL    HW295947  10.778   5.094   1.841
64684SOL     OW95948   1.635  14.172   5.258
64684SOL    HW195949   1.600  14.240   5.200
64684SOL    HW295950   1.695  14.219   5.317
64685SOL     OW95951  10.854   4.048   7.050
64685SOL    HW195952  10.827   4.136   7.025
64685SOL    HW295953  10.940   4.036   7.009
64686SOL     OW95954   5.940   0.541   8.305
64686SOL    HW195955   5.882   0.467   8.287
64686SOL    HW295956   6.022   0.500   8.333
64687SOL     OW95957  12.005  11.797  14.117
64687SOL    HW195958  12.097  11.821  14.109
64687SOL    HW295959  12.006  11.706  14.144
64688SOL     OW95960   6.223   5.775   8.141
64688SOL    HW195961   6.195   5.777   8.232
64688SOL    HW295962   6.201   5.862   8.107
64689SOL     OW95963   1.416  11.620  13.886
64689SOL    HW195964   1.349  11.601  13.820
64689SOL    HW295965   1.435  11.713  13.875
64690SOL     OW95966   2.181   9.603   7.823
64690SOL    HW195967   2.151   9.636   7.908
64690SOL    HW295968   2.235   9.527   7.845
64691SOL     OW95969   8.689   2.783  10.118
64691SOL    HW195970   8.733   2.749  10.040
64691SOL    HW295971   8.609   2.731  10.125
64692SOL     OW95972   0.253   9.097   0.738
64692SOL    HW195973   0.264   9.109   0.832
64692SOL    HW295974   0.341   9.110   0.701
64693SOL     OW95975  12.191   6.913  11.165
64693SOL    HW195976  12.212   6.950  11.250
64693SOL    HW295977  12.107   6.954  11.141
64694SOL     OW95978   3.772  11.366  12.926
64694SOL    HW195979   3.722  11.437  12.886
64694SOL    HW295980   3.831  11.409  12.988
64695SOL     OW95981   0.599   7.027  12.401
64695SOL    HW195982   0.659   6.965  12.443
64695SOL    HW295983   0.641   7.112  12.412
64696SOL     OW95984  10.932   9.829   9.030
64696SOL    HW195985  10.965   9.776   8.957
64696SOL    HW295986  10.871   9.771   9.076
64697SOL     OW95987   5.174   2.128   8.250
64697SOL    HW195988   5.215   2.214   8.253
64697SOL    HW295989   5.110   2.130   8.322
64698SOL     OW95990   3.653  12.941  14.164
64698SOL    HW195991   3.580  12.959  14.224
64698SOL    HW295992   3.611  12.922  14.080
64699SOL     OW95993   2.382  13.554   9.099
64699SOL    HW195994   2.476  13.562   9.110
64699SOL    HW295995   2.350  13.527   9.185
64700SOL     OW95996  12.832   6.727   3.925
64700SOL    HW195997  12.863   6.665   3.860
64700SOL    HW295998  12.739   6.706   3.936
64701SOL     OW95999   2.456  14.393   5.072
64701SOL    HW196000   2.407  14.315   5.046
64701SOL    HW296001   2.388  14.460   5.086
64702SOL     OW96002   2.120   5.852   7.912
64702SOL    HW196003   2.201   5.896   7.938
64702SOL    HW296004   2.145   5.760   7.901
64703SOL     OW96005   3.311   3.677  10.771
64703SOL    HW196006   3.357   3.739  10.714
64703SOL    HW296007   3.257   3.625  10.712
64704SOL     OW96008  12.431  13.806   1.500
64704SOL    HW196009  12.380  13.801   1.581
64704SOL    HW296010  12.522  13.802   1.529
64705SOL     OW96011  12.567   9.466   4.078
64705SOL    HW196012  12.580   9.554   4.041
64705SOL    HW296013  12.508   9.480   4.152
64706SOL     OW96014   6.961   3.357   8.579
64706SOL    HW196015   6.869   3.379   8.592
64706SOL    HW296016   6.991   3.420   8.513
64707SOL     OW96017   7.436   3.842  10.631
64707SOL    HW196018   7.377   3.839  10.706
64707SOL    HW296019   7.460   3.934  10.623
64708SOL     OW96020   8.998  13.859   7.553
64708SOL    HW196021   8.931  13.923   7.528
64708SOL    HW296022   9.078  13.889   7.511
64709SOL     OW96023  12.041  13.561  14.035
64709SOL    HW196024  12.120  13.602  14.072
64709SOL    HW296025  12.050  13.468  14.056
64710SOL     OW96026   6.128   2.145   2.967
64710SOL    HW196027   6.158   2.063   3.006
64710SOL    HW296028   6.033   2.135   2.958
64711SOL     OW96029  12.034   1.941   8.882
64711SOL    HW196030  11.968   2.008   8.864
64711SOL    HW296031  12.115   1.990   8.895
64712SOL     OW96032  13.944   3.865   8.775
64712SOL    HW196033  13.921   3.795   8.836
64712SOL    HW296034  13.994   3.927   8.827
64713SOL     OW96035   5.879  13.578   0.606
64713SOL    HW196036   5.881  13.570   0.701
64713SOL    HW296037   5.790  13.608   0.586
64714SOL     OW96038   0.539   1.620   4.071
64714SOL    HW196039   0.623   1.665   4.057
64714SOL    HW296040   0.473   1.687   4.051
64715SOL     OW96041   7.911  10.304  13.824
64715SOL    HW196042   7.841  10.239  13.816
64715SOL    HW296043   7.926  10.333  13.734
64716SOL     OW96044   3.917   0.278  13.570
64716SOL    HW196045   3.904   0.286  13.475
64716SOL    HW296046   3.894   0.187  13.589
64717SOL     OW96047  14.303  14.204   8.807
64717SOL    HW196048  14.398  14.196   8.801
64717SOL    HW296049  14.287  14.298   8.811
64718SOL     OW96050   6.818   3.810  14.508
64718SOL    HW196051   6.822   3.800  14.413
64718SOL    HW296052   6.733   3.772  14.532
64719SOL     OW96053   7.388   2.294   9.590
64719SOL    HW196054   7.322   2.225   9.591
64719SOL    HW296055   7.410   2.307   9.682
64720SOL     OW96056   0.647   8.969   0.888
64720SOL    HW196057   0.691   8.981   0.972
64720SOL    HW296058   0.556   8.996   0.905
64721SOL     OW96059  10.372  12.974  10.468
64721SOL    HW196060  10.418  12.920  10.404
64721SOL    HW296061  10.436  12.987  10.538
64722SOL     OW96062   5.983  13.364   8.148
64722SOL    HW196063   6.072  13.332   8.129
64722SOL    HW296064   5.954  13.311   8.222
64723SOL     OW96065   4.135  13.971  11.136
64723SOL    HW196066   4.100  13.898  11.187
64723SOL    HW296067   4.223  13.942  11.109
64724SOL     OW96068   8.389   0.660   4.393
64724SOL    HW196069   8.452   0.599   4.431
64724SOL    HW296070   8.437   0.703   4.322
64725SOL     OW96071   6.902   3.123   6.573
64725SOL    HW196072   6.911   3.030   6.595
64725SOL    HW296073   6.914   3.169   6.656
64726SOL     OW96074   5.073   8.833   0.373
64726SOL    HW196075   5.102   8.908   0.320
64726SOL    HW296076   4.994   8.864   0.417
64727SOL     OW96077   8.209   3.414  13.322
64727SOL    HW196078   8.117   3.390  13.318
64727SOL    HW296079   8.223   3.466  13.243
64728SOL     OW96080   0.846  10.071  10.141
64728SOL    HW196081   0.783  10.143  10.132
64728SOL    HW296082   0.913  10.090  10.076
64729SOL     OW96083   4.214  13.968   0.582
64729SOL    HW196084   4.195  13.875   0.568
64729SOL    HW296085   4.264  13.994   0.505
64730SOL     OW96086   0.481   3.516  12.238
64730SOL    HW196087   0.462   3.598  12.282
64730SOL    HW296088   0.557   3.534  12.184
64731SOL     OW96089   9.906   0.264  12.715
64731SOL    HW196090   9.977   0.220  12.667
64731SOL    HW296091   9.911   0.228  12.803
64732SOL     OW96092   5.521   5.018   5.915
64732SOL    HW196093   5.514   5.113   5.913
64732SOL    HW296094   5.552   4.994   5.827
64733SOL     OW96095   6.736  12.343   7.097
64733SOL    HW196096   6.671  12.400   7.139
64733SOL    HW296097   6.819  12.367   7.138
64734SOL     OW96098  13.090   2.409   4.205
64734SOL    HW196099  13.127   2.459   4.278
64734SOL    HW296100  13.056   2.476   4.145
64735SOL     OW96101  12.291  12.334  11.490
64735SOL    HW196102  12.252  12.385  11.419
64735SOL    HW296103  12.260  12.244  11.475
64736SOL     OW96104  12.379  10.753   5.642
64736SOL    HW196105  12.432  10.754   5.721
64736SOL    HW296106  12.442  10.732   5.572
64737SOL     OW96107   0.591   3.927   4.584
64737SOL    HW196108   0.541   4.002   4.550
64737SOL    HW296109   0.654   3.966   4.645
64738SOL     OW96110  12.814  12.908   0.053
64738SOL    HW196111  12.908  12.890   0.052
64738SOL    HW296112  12.773  12.823   0.072
64739SOL     OW96113   0.342   0.632   3.317
64739SOL    HW196114   0.325   0.597   3.405
64739SOL    HW296115   0.345   0.727   3.330
64740SOL     OW96116   2.614   3.329  14.654
64740SOL    HW196117   2.693   3.283  14.625
64740SOL    HW296118   2.647   3.403  14.706
64741SOL     OW96119   4.911   0.789   8.649
64741SOL    HW196120   4.944   0.835   8.571
64741SOL    HW296121   4.944   0.841   8.723
64742SOL     OW96122   1.865   4.919  14.542
64742SOL    HW196123   1.775   4.944  14.524
64742SOL    HW296124   1.918   4.982  14.492
64743SOL     OW96125  14.054  14.154  12.226
64743SOL    HW196126  14.086  14.181  12.311
64743SOL    HW296127  14.127  14.168  12.166
64744SOL     OW96128  12.865   5.254   5.727
64744SOL    HW196129  12.804   5.327   5.740
64744SOL    HW296130  12.915   5.251   5.808
64745SOL     OW96131  14.207  13.284   8.251
64745SOL    HW196132  14.245  13.318   8.170
64745SOL    HW296133  14.282  13.257   8.304
64746SOL     OW96134   5.855   6.022  12.049
64746SOL    HW196135   5.803   6.079  12.105
64746SOL    HW296136   5.943   6.024  12.087
64747SOL     OW96137   6.683   3.659   0.169
64747SOL    HW196138   6.601   3.695   0.202
64747SOL    HW296139   6.737   3.648   0.248
64748SOL     OW96140   3.356  11.701   9.913
64748SOL    HW196141   3.319  11.644   9.845
64748SOL    HW296142   3.297  11.690   9.988
64749SOL     OW96143   8.891  13.003  12.066
64749SOL    HW196144   8.863  13.083  12.111
64749SOL    HW296145   8.819  12.942  12.077
64750SOL     OW96146   6.499   4.321   3.913
64750SOL    HW196147   6.524   4.378   3.986
64750SOL    HW296148   6.435   4.261   3.951
64751SOL     OW96149  11.438   8.565   6.268
64751SOL    HW196150  11.501   8.514   6.215
64751SOL    HW296151  11.486   8.586   6.348
64752SOL     OW96152   6.279   6.027  10.806
64752SOL    HW196153   6.362   5.981  10.816
64752SOL    HW296154   6.304   6.117  10.785
64753SOL     OW96155   3.333  11.057   2.155
64753SOL    HW196156   3.379  11.080   2.075
64753SOL    HW296157   3.281  10.979   2.132
64754SOL     OW96158  11.316   7.105  11.229
64754SOL    HW196159  11.275   7.018  11.228
64754SOL    HW296160  11.244   7.165  11.206
64755SOL     OW96161  13.776  11.371   5.341
64755SOL    HW196162  13.765  11.448   5.397
64755SOL    HW296163  13.859  11.333   5.368
64756SOL     OW96164   0.284   0.314   1.212
64756SOL    HW196165   0.322   0.330   1.126
64756SOL    HW296166   0.354   0.274   1.263
64757SOL     OW96167   9.555   4.073   3.599
64757SOL    HW196168   9.604   4.057   3.518
64757SOL    HW296169   9.603   4.144   3.642
64758SOL     OW96170  12.214   2.674   2.109
64758SOL    HW196171  12.266   2.597   2.086
64758SOL    HW296172  12.274   2.729   2.160
64759SOL     OW96173   4.814   5.851  13.106
64759SOL    HW196174   4.802   5.794  13.181
64759SOL    HW296175   4.871   5.801  13.047
64760SOL     OW96176  13.933  10.729   2.224
64760SOL    HW196177  14.016  10.740   2.178
64760SOL    HW296178  13.926  10.807   2.279
64761SOL     OW96179  13.013   5.711   2.226
64761SOL    HW196180  13.087   5.652   2.210
64761SOL    HW296181  13.046   5.772   2.292
64762SOL     OW96182  10.743  11.517   5.402
64762SOL    HW196183  10.726  11.589   5.463
64762SOL    HW296184  10.682  11.531   5.330
64763SOL     OW96185   2.060   6.528   3.169
64763SOL    HW196186   1.997   6.486   3.110
64763SOL    HW296187   2.006   6.563   3.241
64764SOL     OW96188   2.807  10.710  10.833
64764SOL    HW196189   2.850  10.626  10.849
64764SOL    HW296190   2.861  10.774  10.880
64765SOL     OW96191  13.543   3.345  10.157
64765SOL    HW196192  13.537   3.412  10.088
64765SOL    HW296193  13.612   3.286  10.127
64766SOL     OW96194   6.305   0.407   2.581
64766SOL    HW196195   6.264   0.472   2.638
64766SOL    HW296196   6.326   0.456   2.501
64767SOL     OW96197  11.162   8.065   7.936
64767SOL    HW196198  11.111   7.999   7.889
64767SOL    HW296199  11.096   8.126   7.969
64768SOL     OW96200   2.175   3.791  13.502
64768SOL    HW196201   2.084   3.764  13.486
64768SOL    HW296202   2.172   3.837  13.586
64769SOL     OW96203  14.609  11.854  10.493
64769SOL    HW196204  14.702  11.872  10.501
64769SOL    HW296205  14.566  11.930  10.532
64770SOL     OW96206   1.320  11.305   9.609
64770SOL    HW196207   1.256  11.364   9.649
64770SOL    HW296208   1.294  11.218   9.640
64771SOL     OW96209  12.758   1.102   8.852
64771SOL    HW196210  12.838   1.073   8.896
64771SOL    HW296211  12.776   1.087   8.759
64772SOL     OW96212   8.484   5.995   0.909
64772SOL    HW196213   8.538   5.994   0.829
64772SOL    HW296214   8.405   6.043   0.883
64773SOL     OW96215   2.922   2.807   8.146
64773SOL    HW196216   2.926   2.867   8.071
64773SOL    HW296217   2.843   2.755   8.130
64774SOL     OW96218   2.811   8.957   2.421
64774SOL    HW196219   2.770   9.041   2.442
64774SOL    HW296220   2.839   8.966   2.330
64775SOL     OW96221   1.810  14.435   5.665
64775SOL    HW196222   1.787  14.344   5.685
64775SOL    HW296223   1.854  14.466   5.744
64776SOL     OW96224  10.559  13.171  11.307
64776SOL    HW196225  10.535  13.141  11.394
64776SOL    HW296226  10.641  13.218  11.319
64777SOL     OW96227  13.311  14.121   8.857
64777SOL    HW196228  13.272  14.200   8.896
64777SOL    HW296229  13.280  14.049   8.913
64778SOL     OW96230  12.155   8.129  14.805
64778SOL    HW196231  12.156   8.176  14.721
64778SOL    HW296232  12.110   8.189  14.865
64779SOL     OW96233  14.681   5.023   5.946
64779SOL    HW196234  14.759   5.022   6.001
64779SOL    HW296235  14.714   5.028   5.857
64780SOL     OW96236   4.704  13.272   3.354
64780SOL    HW196237   4.659  13.294   3.273
64780SOL    HW296238   4.678  13.182   3.373
64781SOL     OW96239  13.201   9.885   0.418
64781SOL    HW196240  13.240   9.825   0.482
64781SOL    HW296241  13.248   9.866   0.336
64782SOL     OW96242   1.958   3.627   3.587
64782SOL    HW196243   2.001   3.585   3.512
64782SOL    HW296244   2.030   3.651   3.646
64783SOL     OW96245   7.921  10.797   8.752
64783SOL    HW196246   7.911  10.861   8.682
64783SOL    HW296247   7.983  10.837   8.813
64784SOL     OW96248   2.406   4.494   7.695
64784SOL    HW196249   2.341   4.564   7.699
64784SOL    HW296250   2.419   4.479   7.601
64785SOL     OW96251   6.894  14.111   3.360
64785SOL    HW196252   6.804  14.141   3.370
64785SOL    HW296253   6.945  14.172   3.415
64786SOL     OW96254   2.231  12.531  13.776
64786SOL    HW196255   2.202  12.480  13.852
64786SOL    HW296256   2.217  12.474  13.701
64787SOL     OW96257  13.533   5.692   7.751
64787SOL    HW196258  13.489   5.751   7.690
64787SOL    HW296259  13.482   5.612   7.749
64788SOL     OW96260   7.132  13.504  10.971
64788SOL    HW196261   7.194  13.492  10.899
64788SOL    HW296262   7.122  13.417  11.009
64789SOL     OW96263   1.891  10.019  14.085
64789SOL    HW196264   1.949   9.945  14.100
64789SOL    HW296265   1.857  10.042  14.172
64790SOL     OW96266   4.328  12.836   6.704
64790SOL    HW196267   4.364  12.761   6.753
64790SOL    HW296268   4.237  12.812   6.686
64791SOL     OW96269   1.072  12.914   8.760
64791SOL    HW196270   0.992  12.863   8.742
64791SOL    HW296271   1.096  12.889   8.849
64792SOL     OW96272   6.193   5.235   6.612
64792SOL    HW196273   6.132   5.264   6.544
64792SOL    HW296274   6.266   5.297   6.605
64793SOL     OW96275   6.150   7.977   7.187
64793SOL    HW196276   6.119   8.064   7.212
64793SOL    HW296277   6.116   7.964   7.098
64794SOL     OW96278   7.138   0.032   8.212
64794SOL    HW196279   7.203  14.847   8.194
64794SOL    HW296280   7.176   0.083   8.283
64795SOL     OW96281  11.361   6.563   1.776
64795SOL    HW196282  11.386   6.653   1.755
64795SOL    HW296283  11.323   6.529   1.695
64796SOL     OW96284   4.106  10.553  10.101
64796SOL    HW196285   4.185  10.533  10.051
64796SOL    HW296286   4.043  10.487  10.073
64797SOL     OW96287   5.601   9.110  11.174
64797SOL    HW196288   5.656   9.174  11.128
64797SOL    HW296289   5.613   9.028  11.126
64798SOL     OW96290   0.725   6.501   1.801
64798SOL    HW196291   0.811   6.488   1.842
64798SOL    HW296292   0.707   6.594   1.813
64799SOL     OW96293   8.709   8.625   0.342
64799SOL    HW196294   8.775   8.558   0.363
64799SOL    HW296295   8.737   8.659   0.256
64800SOL     OW96296   8.652  10.797   3.672
64800SOL    HW196297   8.581  10.804   3.608
64800SOL    HW296298   8.728  10.770   3.620
64801SOL     OW96299   4.779   9.948   3.923
64801SOL    HW196300   4.708   9.900   3.965
64801SOL    HW296301   4.823   9.883   3.869
64802SOL     OW96302   7.144   5.844   1.930
64802SOL    HW196303   7.131   5.938   1.928
64802SOL    HW296304   7.140   5.820   2.022
64803SOL     OW96305   7.258   2.280  10.733
64803SOL    HW196306   7.291   2.261  10.645
64803SOL    HW296307   7.262   2.196  10.778
64804SOL     OW96308   8.375   8.874   7.187
64804SOL    HW196309   8.352   8.837   7.101
64804SOL    HW296310   8.291   8.896   7.227
64805SOL     OW96311  14.651   9.915  14.560
64805SOL    HW196312  14.602   9.833  14.565
64805SOL    HW296313  14.666   9.929  14.466
64806SOL     OW96314   6.117   2.717   7.087
64806SOL    HW196315   6.133   2.807   7.059
64806SOL    HW296316   6.102   2.669   7.005
64807SOL     OW96317   2.262  14.867   4.284
64807SOL    HW196318   2.265   0.079   4.301
64807SOL    HW296319   2.262  14.859   4.189
64808SOL     OW96320   3.990   1.142   0.632
64808SOL    HW196321   4.044   1.218   0.611
64808SOL    HW296322   4.030   1.070   0.583
64809SOL     OW96323  12.461  14.019   2.356
64809SOL    HW196324  12.399  14.001   2.285
64809SOL    HW296325  12.494  13.933   2.382
64810SOL     OW96326   7.452  13.698   7.949
64810SOL    HW196327   7.522  13.718   8.012
64810SOL    HW296328   7.462  13.764   7.880
64811SOL     OW96329   2.744   0.448  11.183
64811SOL    HW196330   2.792   0.421  11.105
64811SOL    HW296331   2.752   0.544  11.184
64812SOL     OW96332   8.327   1.558   4.655
64812SOL    HW196333   8.276   1.630   4.619
64812SOL    HW296334   8.262   1.503   4.699
64813SOL     OW96335   0.186   2.574   1.043
64813SOL    HW196336   0.231   2.656   1.023
64813SOL    HW296337   0.182   2.571   1.139
64814SOL     OW96338   6.866   3.878   1.952
64814SOL    HW196339   6.819   3.948   1.906
64814SOL    HW296340   6.922   3.839   1.885
64815SOL     OW96341   9.068   5.713   5.854
64815SOL    HW196342   8.972   5.708   5.852
64815SOL    HW296343   9.092   5.744   5.767
64816SOL     OW96344   2.484   0.700   1.429
64816SOL    HW196345   2.536   0.771   1.467
64816SOL    HW296346   2.394   0.723   1.452
64817SOL     OW96347   2.772  12.197   7.973
64817SOL    HW196348   2.837  12.265   7.954
64817SOL    HW296349   2.725  12.186   7.891
64818SOL     OW96350   3.724   1.645   4.707
64818SOL    HW196351   3.763   1.724   4.670
64818SOL    HW296352   3.676   1.606   4.634
64819SOL     OW96353   6.943   6.194   8.589
64819SOL    HW196354   6.988   6.222   8.669
64819SOL    HW296355   6.961   6.100   8.584
64820SOL     OW96356  12.150   1.418   6.116
64820SOL    HW196357  12.073   1.375   6.154
64820SOL    HW296358  12.224   1.371   6.153
64821SOL     OW96359   4.171   6.133   4.233
64821SOL    HW196360   4.100   6.104   4.174
64821SOL    HW296361   4.218   6.052   4.254
64822SOL     OW96362   9.283   5.056   1.247
64822SOL    HW196363   9.271   5.031   1.339
64822SOL    HW296364   9.206   5.021   1.203
64823SOL     OW96365   5.675  10.881   1.941
64823SOL    HW196366   5.608  10.827   1.984
64823SOL    HW296367   5.731  10.910   2.013
64824SOL     OW96368   4.276   6.054   2.919
64824SOL    HW196369   4.238   6.015   2.840
64824SOL    HW296370   4.369   6.031   2.915
64825SOL     OW96371  13.292  13.855   2.077
64825SOL    HW196372  13.374  13.838   2.030
64825SOL    HW296373  13.274  13.774   2.123
64826SOL     OW96374   2.048   0.654   7.974
64826SOL    HW196375   2.106   0.687   7.906
64826SOL    HW296376   1.960   0.660   7.936
64827SOL     OW96377   5.187  13.172  13.165
64827SOL    HW196378   5.191  13.100  13.102
64827SOL    HW296379   5.100  13.210  13.153
64828SOL     OW96380   8.100   3.036   7.994
64828SOL    HW196381   8.088   3.105   7.928
64828SOL    HW296382   8.157   2.972   7.952
64829SOL     OW96383  10.670   6.855  14.675
64829SOL    HW196384  10.729   6.873  14.601
64829SOL    HW296385  10.647   6.941  14.709
64830SOL     OW96386   4.091   0.689  14.108
64830SOL    HW196387   4.067   0.643  14.188
64830SOL    HW296388   4.183   0.667  14.095
64831SOL     OW96389   4.676  10.172  10.177
64831SOL    HW196390   4.695  10.140  10.089
64831SOL    HW296391   4.611  10.110  10.212
64832SOL     OW96392   8.131  10.073  14.753
64832SOL    HW196393   8.158  10.140  14.815
64832SOL    HW296394   8.073  10.015  14.804
64833SOL     OW96395  14.707   2.375   4.024
64833SOL    HW196396  14.709   2.335   4.111
64833SOL    HW296397  14.753   2.313   3.968
64834SOL     OW96398  11.576  13.440  11.610
64834SOL    HW196399  11.599  13.473  11.697
64834SOL    HW296400  11.625  13.358  11.601
64835SOL     OW96401   9.281   3.542   7.345
64835SOL    HW196402   9.365   3.503   7.322
64835SOL    HW296403   9.246   3.574   7.262
64836SOL     OW96404  14.681  12.645  12.983
64836SOL    HW196405  14.762  12.632  13.033
64836SOL    HW296406  14.705  12.625  12.892
64837SOL     OW96407   9.908  14.106  10.481
64837SOL    HW196408   9.975  14.107  10.412
64837SOL    HW296409   9.958  14.112  10.563
64838SOL     OW96410   6.332   5.547   5.274
64838SOL    HW196411   6.287   5.466   5.251
64838SOL    HW296412   6.262   5.612   5.278
64839SOL     OW96413  11.105   9.162   4.859
64839SOL    HW196414  11.140   9.219   4.927
64839SOL    HW296415  11.023   9.129   4.897
64840SOL     OW96416   5.529  13.312   4.211
64840SOL    HW196417   5.437  13.308   4.185
64840SOL    HW296418   5.541  13.235   4.268
64841SOL     OW96419  11.194   2.602  12.132
64841SOL    HW196420  11.118   2.595  12.074
64841SOL    HW296421  11.253   2.533  12.103
64842SOL     OW96422   2.479  14.342  11.166
64842SOL    HW196423   2.445  14.259  11.130
64842SOL    HW296424   2.566  14.350  11.128
64843SOL     OW96425   0.780   8.584   8.000
64843SOL    HW196426   0.769   8.559   7.908
64843SOL    HW296427   0.871   8.612   8.006
64844SOL     OW96428   0.281   7.180  12.059
64844SOL    HW196429   0.316   7.196  11.971
64844SOL    HW296430   0.212   7.245  12.070
64845SOL     OW96431   3.128   6.089  12.980
64845SOL    HW196432   3.063   6.145  13.023
64845SOL    HW296433   3.184   6.057  13.051
64846SOL     OW96434   2.577  13.773   4.906
64846SOL    HW196435   2.524  13.718   4.847
64846SOL    HW296436   2.535  13.762   4.991
64847SOL     OW96437   2.966   9.319   6.937
64847SOL    HW196438   3.060   9.305   6.947
64847SOL    HW296439   2.955   9.413   6.943
64848SOL     OW96440   7.678   7.204   8.121
64848SOL    HW196441   7.703   7.222   8.211
64848SOL    HW296442   7.595   7.250   8.109
64849SOL     OW96443   2.761   8.575   0.834
64849SOL    HW196444   2.771   8.487   0.798
64849SOL    HW296445   2.752   8.563   0.928
64850SOL     OW96446  12.364   2.675  14.856
64850SOL    HW196447  12.381   2.592  14.812
64850SOL    HW296448  12.414   2.740  14.806
64851SOL     OW96449   9.936   3.225  10.351
64851SOL    HW196450   9.880   3.296  10.384
64851SOL    HW296451   9.924   3.229  10.256
64852SOL     OW96452   4.005   8.920   3.212
64852SOL    HW196453   4.063   8.956   3.279
64852SOL    HW296454   3.937   8.875   3.261
64853SOL     OW96455   6.607  13.465  14.436
64853SOL    HW196456   6.669  13.535  14.456
64853SOL    HW296457   6.533  13.481  14.495
64854SOL     OW96458   1.380   0.989   3.100
64854SOL    HW196459   1.300   0.951   3.134
64854SOL    HW296460   1.446   0.921   3.109
64855SOL     OW96461   9.727   1.804   1.912
64855SOL    HW196462   9.801   1.762   1.870
64855SOL    HW296463   9.765   1.859   1.980
64856SOL     OW96464  13.075   9.699   5.553
64856SOL    HW196465  13.061   9.781   5.506
64856SOL    HW296466  13.138   9.651   5.499
64857SOL     OW96467  12.310  10.442   7.293
64857SOL    HW196468  12.369  10.490   7.352
64857SOL    HW296469  12.267  10.510   7.242
64858SOL     OW96470  13.921   6.844  11.515
64858SOL    HW196471  13.833   6.876  11.533
64858SOL    HW296472  13.964   6.918  11.471
64859SOL     OW96473   6.560  12.578   4.612
64859SOL    HW196474   6.554  12.496   4.564
64859SOL    HW296475   6.617  12.558   4.687
64860SOL     OW96476  11.668  10.636  13.941
64860SOL    HW196477  11.698  10.718  13.981
64860SOL    HW296478  11.640  10.582  14.015
64861SOL     OW96479  14.514  10.416  10.452
64861SOL    HW196480  14.531  10.487  10.514
64861SOL    HW296481  14.467  10.458  10.380
64862SOL     OW96482   8.778   6.391   1.927
64862SOL    HW196483   8.770   6.296   1.925
64862SOL    HW296484   8.760   6.414   2.019
64863SOL     OW96485  11.265   9.050  11.297
64863SOL    HW196486  11.270   9.075  11.389
64863SOL    HW296487  11.355   9.027  11.273
64864SOL     OW96488   3.287   6.985  13.702
64864SOL    HW196489   3.311   7.052  13.638
64864SOL    HW296490   3.299   7.027  13.787
64865SOL     OW96491   0.396  12.876   6.684
64865SOL    HW196492   0.467  12.906   6.740
64865SOL    HW296493   0.425  12.897   6.595
64866SOL     OW96494   0.967   5.076  13.914
64866SOL    HW196495   0.961   4.981  13.898
64866SOL    HW296496   0.876   5.105  13.917
64867SOL     OW96497  12.074   0.800   2.196
64867SOL    HW196498  12.119   0.809   2.112
64867SOL    HW296499  12.083   0.707   2.218
64868SOL     OW96500   9.896   5.843   7.498
64868SOL    HW196501   9.931   5.759   7.469
64868SOL    HW296502   9.951   5.908   7.456
64869SOL     OW96503  12.916   6.756   4.483
64869SOL    HW196504  12.864   6.699   4.426
64869SOL    HW296505  12.926   6.837   4.434
64870SOL     OW96506  14.712   0.013   6.450
64870SOL    HW196507  14.788   0.004   6.393
64870SOL    HW296508  14.744   0.062   6.526
64871SOL     OW96509   4.728   9.280   4.930
64871SOL    HW196510   4.733   9.184   4.927
64871SOL    HW296511   4.771   9.303   5.011
64872SOL     OW96512   2.803   3.278  12.541
64872SOL    HW196513   2.803   3.191  12.579
64872SOL    HW296514   2.714   3.290  12.509
64873SOL     OW96515   3.281  11.934   1.662
64873SOL    HW196516   3.343  11.891   1.721
64873SOL    HW296517   3.199  11.936   1.711
64874SOL     OW96518  11.840   1.456   7.597
64874SOL    HW196519  11.745   1.458   7.595
64874SOL    HW296520  11.863   1.363   7.597
64875SOL     OW96521  11.841   4.352  12.686
64875SOL    HW196522  11.892   4.310  12.617
64875SOL    HW296523  11.813   4.435  12.648
64876SOL     OW96524   1.308   0.672   0.290
64876SOL    HW196525   1.302   0.749   0.234
64876SOL    HW296526   1.231   0.619   0.268
64877SOL     OW96527  10.857   5.419   7.942
64877SOL    HW196528  10.936   5.443   7.895
64877SOL    HW296529  10.868   5.455   8.030
64878SOL     OW96530  14.223   7.356  10.563
64878SOL    HW196531  14.254   7.268  10.545
64878SOL    HW296532  14.129   7.347  10.577
64879SOL     OW96533  12.671   0.316   8.600
64879SOL    HW196534  12.590   0.354   8.635
64879SOL    HW296535  12.687   0.365   8.519
64880SOL     OW96536   0.731   5.235  13.919
64880SOL    HW196537   0.691   5.198  13.998
64880SOL    HW296538   0.657   5.265  13.867
64881SOL     OW96539  11.365   5.197   9.590
64881SOL    HW196540  11.276   5.184   9.556
64881SOL    HW296541  11.413   5.119   9.561
64882SOL     OW96542   7.643   0.495  10.678
64882SOL    HW196543   7.636   0.589  10.664
64882SOL    HW296544   7.738   0.479  10.686
64883SOL     OW96545   1.876   9.551   4.293
64883SOL    HW196546   1.903   9.625   4.239
64883SOL    HW296547   1.886   9.582   4.383
64884SOL     OW96548  13.322   4.891   6.310
64884SOL    HW196549  13.285   4.957   6.369
64884SOL    HW296550  13.247   4.838   6.283
64885SOL     OW96551   7.701   1.925   4.868
64885SOL    HW196552   7.702   1.829   4.869
64885SOL    HW296553   7.734   1.950   4.954
64886SOL     OW96554   0.413   7.092   8.656
64886SOL    HW196555   0.400   7.178   8.694
64886SOL    HW296556   0.331   7.045   8.674
64887SOL     OW96557   8.505   6.333   6.849
64887SOL    HW196558   8.541   6.303   6.765
64887SOL    HW296559   8.520   6.260   6.909
64888SOL     OW96560   4.147   6.090   8.142
64888SOL    HW196561   4.175   6.155   8.207
64888SOL    HW296562   4.205   6.015   8.156
64889SOL     OW96563   5.591   6.279  12.035
64889SOL    HW196564   5.606   6.340  11.963
64889SOL    HW296565   5.640   6.316  12.109
64890SOL     OW96566   6.131   5.298  14.265
64890SOL    HW196567   6.102   5.336  14.182
64890SOL    HW296568   6.093   5.210  14.266
64891SOL     OW96569   9.991  12.335  13.261
64891SOL    HW196570  10.006  12.240  13.266
64891SOL    HW296571  10.037  12.371  13.336
64892SOL     OW96572   7.345   5.380   0.543
64892SOL    HW196573   7.281   5.431   0.492
64892SOL    HW296574   7.292   5.322   0.597
64893SOL     OW96575   2.260  10.785  11.532
64893SOL    HW196576   2.168  10.773  11.554
64893SOL    HW296577   2.300  10.699  11.544
64894SOL     OW96578   4.881  11.137  13.855
64894SOL    HW196579   4.806  11.191  13.880
64894SOL    HW296580   4.880  11.064  13.916
64895SOL     OW96581   6.443  11.027   4.384
64895SOL    HW196582   6.461  11.097   4.321
64895SOL    HW296583   6.393  11.069   4.454
64896SOL     OW96584   4.220   0.443   5.077
64896SOL    HW196585   4.199   0.363   5.028
64896SOL    HW296586   4.135   0.481   5.098
64897SOL     OW96587   5.711   3.521  14.207
64897SOL    HW196588   5.699   3.550  14.116
64897SOL    HW296589   5.802   3.493  14.211
64898SOL     OW96590  12.588   7.715  10.736
64898SOL    HW196591  12.493   7.700  10.738
64898SOL    HW296592  12.598   7.808  10.757
64899SOL     OW96593  13.493   2.035  10.673
64899SOL    HW196594  13.561   2.041  10.606
64899SOL    HW296595  13.410   2.033  10.624
64900SOL     OW96596   9.232  14.171   0.642
64900SOL    HW196597   9.273  14.256   0.656
64900SOL    HW296598   9.164  14.187   0.576
64901SOL     OW96599   1.954  12.966   8.009
64901SOL    HW196600   1.921  12.889   8.054
64901SOL    HW296601   1.988  13.022   8.079
64902SOL     OW96602   0.497   9.618   9.473
64902SOL    HW196603   0.560   9.653   9.410
64902SOL    HW296604   0.434   9.569   9.419
64903SOL     OW96605   1.396   1.482   1.400
64903SOL    HW196606   1.348   1.468   1.481
64903SOL    HW296607   1.388   1.576   1.384
64904SOL     OW96608   1.287   1.842   6.361
64904SOL    HW196609   1.269   1.778   6.291
64904SOL    HW296610   1.212   1.834   6.420
64905SOL     OW96611   0.630   2.020  14.368
64905SOL    HW196612   0.579   2.095  14.399
64905SOL    HW296613   0.577   1.982  14.297
64906SOL     OW96614   7.976  11.918   9.580
64906SOL    HW196615   8.018  11.856   9.520
64906SOL    HW296616   7.951  11.864   9.655
64907SOL     OW96617   4.306   7.205  11.659
64907SOL    HW196618   4.256   7.261  11.600
64907SOL    HW296619   4.347   7.265  11.721
64908SOL     OW96620   5.829  13.634  11.085
64908SOL    HW196621   5.890  13.673  11.022
64908SOL    HW296622   5.837  13.539  11.071
64909SOL     OW96623   1.998   7.555  10.560
64909SOL    HW196624   2.013   7.612  10.485
64909SOL    HW296625   1.967   7.473  10.522
64910SOL     OW96626   7.697   9.495   5.114
64910SOL    HW196627   7.758   9.475   5.042
64910SOL    HW296628   7.670   9.585   5.098
64911SOL     OW96629   0.147  10.071   8.498
64911SOL    HW196630   0.205  10.045   8.427
64911SOL    HW296631   0.189  10.038   8.577
64912SOL     OW96632  11.727   1.194   0.835
64912SOL    HW196633  11.661   1.262   0.851
64912SOL    HW296634  11.679   1.112   0.838
64913SOL     OW96635  14.199  14.736   7.379
64913SOL    HW196636  14.202  14.776   7.465
64913SOL    HW296637  14.192  14.810   7.318
64914SOL     OW96638   0.572   3.067   9.763
64914SOL    HW196639   0.623   2.999   9.807
64914SOL    HW296640   0.534   3.119   9.833
64915SOL     OW96641   2.845  12.959  14.512
64915SOL    HW196642   2.804  13.040  14.481
64915SOL    HW296643   2.856  12.972  14.606
64916SOL     OW96644  14.328  10.612   2.199
64916SOL    HW196645  14.304  10.546   2.264
64916SOL    HW296646  14.282  10.692   2.227
64917SOL     OW96647  10.478   1.718   1.749
64917SOL    HW196648  10.544   1.657   1.716
64917SOL    HW296649  10.407   1.662   1.780
64918SOL     OW96650   7.193  10.218  10.752
64918SOL    HW196651   7.277  10.173  10.749
64918SOL    HW296652   7.128  10.150  10.733
64919SOL     OW96653   8.034   6.950   6.167
64919SOL    HW196654   7.958   6.941   6.110
64919SOL    HW296655   8.016   6.893   6.242
64920SOL     OW96656   1.685   0.902   1.024
64920SOL    HW196657   1.759   0.942   1.068
64920SOL    HW296658   1.705   0.910   0.930
64921SOL     OW96659   8.061   4.517   8.975
64921SOL    HW196660   8.039   4.604   9.008
64921SOL    HW296661   8.092   4.470   9.053
64922SOL     OW96662   8.683  11.099   3.768
64922SOL    HW196663   8.677  11.004   3.778
64922SOL    HW296664   8.632  11.118   3.689
64923SOL     OW96665   2.978  13.939   0.208
64923SOL    HW196666   3.014  13.988   0.281
64923SOL    HW296667   3.055  13.905   0.162
64924SOL     OW96668   6.244   1.048   6.183
64924SOL    HW196669   6.153   1.078   6.190
64924SOL    HW296670   6.266   1.059   6.090
64925SOL     OW96671  13.454   3.457   2.030
64925SOL    HW196672  13.381   3.469   2.092
64925SOL    HW296673  13.416   3.405   1.959
64926SOL     OW96674   1.340   1.214   5.595
64926SOL    HW196675   1.287   1.142   5.562
64926SOL    HW296676   1.426   1.201   5.556
64927SOL     OW96677   6.405   8.092   3.676
64927SOL    HW196678   6.316   8.055   3.675
64927SOL    HW296679   6.439   8.071   3.763
64928SOL     OW96680   7.254   5.055   6.024
64928SOL    HW196681   7.298   4.982   6.068
64928SOL    HW296682   7.172   5.066   6.073
64929SOL     OW96683   8.597  11.009  14.367
64929SOL    HW196684   8.654  11.044  14.299
64929SOL    HW296685   8.601  10.914  14.356
64930SOL     OW96686  12.634   1.244   6.909
64930SOL    HW196687  12.663   1.273   6.823
64930SOL    HW296688  12.714   1.235   6.960
64931SOL     OW96689  12.114   5.106   6.353
64931SOL    HW196690  12.139   5.172   6.417
64931SOL    HW296691  12.198   5.069   6.323
64932SOL     OW96692   9.898   6.112   5.624
64932SOL    HW196693   9.956   6.187   5.632
64932SOL    HW296694   9.813   6.150   5.601
64933SOL     OW96695  10.445   3.926   5.101
64933SOL    HW196696  10.414   3.924   5.191
64933SOL    HW296697  10.537   3.902   5.106
64934SOL     OW96698  10.387   0.393  13.029
64934SOL    HW196699  10.410   0.355  12.945
64934SOL    HW296700  10.291   0.401  13.028
64935SOL     OW96701   2.281   1.744   2.942
64935SOL    HW196702   2.275   1.823   2.888
64935SOL    HW296703   2.204   1.748   2.999
64936SOL     OW96704   1.630  13.025   8.100
64936SOL    HW196705   1.676  13.104   8.071
64936SOL    HW296706   1.698  12.965   8.127
64937SOL     OW96707   3.533   1.974  14.761
64937SOL    HW196708   3.626   1.957  14.745
64937SOL    HW296709   3.517   1.937  14.848
64938SOL     OW96710  12.840   2.807   8.188
64938SOL    HW196711  12.751   2.783   8.212
64938SOL    HW296712  12.830   2.876   8.123
64939SOL     OW96713   3.474  10.777   1.146
64939SOL    HW196714   3.432  10.709   1.093
64939SOL    HW296715   3.411  10.795   1.216
64940SOL     OW96716   1.458   0.565   6.199
64940SOL    HW196717   1.477   0.472   6.187
64940SOL    HW296718   1.477   0.581   6.292
64941SOL     OW96719   4.256   8.744  11.307
64941SOL    HW196720   4.257   8.774  11.216
64941SOL    HW296721   4.348   8.739  11.332
64942SOL     OW96722   4.994   6.152  10.508
64942SOL    HW196723   4.937   6.220  10.472
64942SOL    HW296724   5.083   6.186  10.497
64943SOL     OW96725   2.954   9.199  13.741
64943SOL    HW196726   3.006   9.275  13.716
64943SOL    HW296727   2.942   9.151  13.659
64944SOL     OW96728   7.737  14.649   7.148
64944SOL    HW196729   7.656  14.673   7.103
64944SOL    HW296730   7.717  14.656   7.241
64945SOL     OW96731  11.577   2.914   5.117
64945SOL    HW196732  11.524   2.889   5.192
64945SOL    HW296733  11.514   2.945   5.052
64946SOL     OW96734  11.679   0.345  14.149
64946SOL    HW196735  11.712   0.426  14.109
64946SOL    HW296736  11.657   0.289  14.074
64947SOL     OW96737  10.967   0.341   6.404
64947SOL    HW196738  10.876   0.363   6.385
64947SOL    HW296739  10.967   0.321   6.498
64948SOL     OW96740  14.769  13.683   0.297
64948SOL    HW196741  14.832  13.755   0.297
64948SOL    HW296742  14.691  13.719   0.338
64949SOL     OW96743  12.750   8.298   7.182
64949SOL    HW196744  12.744   8.372   7.122
64949SOL    HW296745  12.759   8.222   7.125
64950SOL     OW96746   6.223   5.303   9.738
64950SOL    HW196747   6.286   5.238   9.771
64950SOL    HW296748   6.181   5.337   9.817
64951SOL     OW96749   9.423   9.303   1.642
64951SOL    HW196750   9.389   9.217   1.665
64951SOL    HW296751   9.472   9.331   1.719
64952SOL     OW96752   6.794  12.780  12.718
64952SOL    HW196753   6.732  12.784  12.791
64952SOL    HW296754   6.740  12.771  12.640
64953SOL     OW96755  11.726   1.592   3.255
64953SOL    HW196756  11.708   1.498   3.249
64953SOL    HW296757  11.808   1.604   3.208
64954SOL     OW96758   4.213   6.186   7.317
64954SOL    HW196759   4.167   6.271   7.318
64954SOL    HW296760   4.152   6.126   7.359
64955SOL     OW96761  14.110  10.619  12.233
64955SOL    HW196762  14.061  10.689  12.190
64955SOL    HW296763  14.043  10.561  12.269
64956SOL     OW96764  13.861  13.018   0.549
64956SOL    HW196765  13.789  13.050   0.603
64956SOL    HW296766  13.897  12.944   0.597
64957SOL     OW96767   3.382  11.843   6.230
64957SOL    HW196768   3.456  11.903   6.224
64957SOL    HW296769   3.306  11.899   6.243
64958SOL     OW96770   2.370   3.156  14.123
64958SOL    HW196771   2.304   3.087  14.118
64958SOL    HW296772   2.388   3.179  14.032
64959SOL     OW96773  10.765   9.675   0.758
64959SOL    HW196774  10.748   9.743   0.692
64959SOL    HW296775  10.684   9.625   0.763
64960SOL     OW96776   7.664   8.924  10.360
64960SOL    HW196777   7.670   8.834  10.393
64960SOL    HW296778   7.751   8.942  10.324
64961SOL     OW96779   4.593   1.401   0.361
64961SOL    HW196780   4.676   1.434   0.328
64961SOL    HW296781   4.605   1.306   0.366
64962SOL     OW96782   4.372   6.849   5.225
64962SOL    HW196783   4.422   6.768   5.228
64962SOL    HW296784   4.382   6.880   5.135
64963SOL     OW96785   3.282  12.281   7.915
64963SOL    HW196786   3.272  12.376   7.916
64963SOL    HW296787   3.195  12.247   7.936
64964SOL     OW96788  14.479  14.397   3.510
64964SOL    HW196789  14.434  14.316   3.534
64964SOL    HW296790  14.458  14.458   3.581
64965SOL     OW96791   6.564  10.292   9.670
64965SOL    HW196792   6.469  10.301   9.661
64965SOL    HW296793   6.575  10.221   9.733
64966SOL     OW96794   4.583  11.883   9.097
64966SOL    HW196795   4.594  11.790   9.076
64966SOL    HW296796   4.672  11.915   9.113
64967SOL     OW96797  14.608   3.815   1.298
64967SOL    HW196798  14.528   3.864   1.274
64967SOL    HW296799  14.672   3.883   1.317
64968SOL     OW96800   3.820   5.848   8.599
64968SOL    HW196801   3.750   5.783   8.608
64968SOL    HW296802   3.901   5.798   8.608
64969SOL     OW96803   2.348   5.400   7.962
64969SOL    HW196804   2.426   5.437   8.003
64969SOL    HW296805   2.378   5.318   7.923
64970SOL     OW96806   4.040   7.693  13.309
64970SOL    HW196807   4.123   7.669  13.349
64970SOL    HW296808   4.064   7.758  13.242
64971SOL     OW96809   3.974   0.841   3.981
64971SOL    HW196810   3.888   0.842   3.938
64971SOL    HW296811   4.018   0.764   3.945
64972SOL     OW96812   7.940   0.184   3.146
64972SOL    HW196813   7.918   0.176   3.053
64972SOL    HW296814   7.859   0.212   3.188
64973SOL     OW96815   4.863   7.486  11.954
64973SOL    HW196816   4.935   7.446  12.002
64973SOL    HW296817   4.872   7.453  11.864
64974SOL     OW96818   3.901  12.749   1.017
64974SOL    HW196819   3.991  12.768   0.989
64974SOL    HW296820   3.856  12.834   1.011
64975SOL     OW96821   3.077  11.467  12.104
64975SOL    HW196822   3.149  11.520  12.139
64975SOL    HW296823   3.043  11.420  12.180
64976SOL     OW96824   5.328  10.689   5.725
64976SOL    HW196825   5.236  10.710   5.706
64976SOL    HW296826   5.368  10.679   5.639
64977SOL     OW96827  11.890   7.111  12.248
64977SOL    HW196828  11.881   7.019  12.223
64977SOL    HW296829  11.851   7.160  12.176
64978SOL     OW96830   0.320  14.031  14.023
64978SOL    HW196831   0.264  13.977  14.079
64978SOL    HW296832   0.264  14.104  13.997
64979SOL     OW96833   5.162   4.944   7.376
64979SOL    HW196834   5.138   5.023   7.328
64979SOL    HW296835   5.103   4.877   7.343
64980SOL     OW96836   9.768   5.958   1.979
64980SOL    HW196837   9.861   5.978   1.968
64980SOL    HW296838   9.729   5.981   1.895
64981SOL     OW96839  13.550   3.037   4.197
64981SOL    HW196840  13.505   2.994   4.124
64981SOL    HW296841  13.586   3.117   4.159
64982SOL     OW96842  10.857  12.229   0.787
64982SOL    HW196843  10.904  12.157   0.829
64982SOL    HW296844  10.876  12.217   0.694
64983SOL     OW96845  12.647   9.087  10.950
64983SOL    HW196846  12.683   8.999  10.940
64983SOL    HW296847  12.628   9.095  11.044
64984SOL     OW96848   4.008  13.427  10.510
64984SOL    HW196849   3.945  13.415  10.439
64984SOL    HW296850   3.977  13.368  10.579
64985SOL     OW96851   2.201   8.975   6.060
64985SOL    HW196852   2.219   9.055   6.012
64985SOL    HW296853   2.213   8.905   5.996
64986SOL     OW96854   7.730   9.216  10.993
64986SOL    HW196855   7.802   9.279  10.992
64986SOL    HW296856   7.660   9.260  10.943
64987SOL     OW96857   3.349  13.350   0.358
64987SOL    HW196858   3.429  13.298   0.355
64987SOL    HW296859   3.363  13.413   0.430
64988SOL     OW96860   4.713   2.593  10.518
64988SOL    HW196861   4.621   2.567  10.527
64988SOL    HW296862   4.708   2.687  10.499
64989SOL     OW96863   8.104  10.165  13.396
64989SOL    HW196864   8.197  10.151  13.381
64989SOL    HW296865   8.066  10.078  13.391
64990SOL     OW96866   6.751   5.087  13.318
64990SOL    HW196867   6.808   5.145  13.368
64990SOL    HW296868   6.808   5.051  13.250
64991SOL     OW96869   5.081  10.622  12.174
64991SOL    HW196870   5.085  10.717  12.182
64991SOL    HW296871   5.157  10.599  12.121
64992SOL     OW96872   6.698  14.062   9.608
64992SOL    HW196873   6.663  14.013   9.683
64992SOL    HW296874   6.737  14.140   9.647
64993SOL     OW96875   8.259   6.178   1.417
64993SOL    HW196876   8.286   6.146   1.330
64993SOL    HW296877   8.219   6.263   1.399
64994SOL     OW96878  11.767   6.128  12.872
64994SOL    HW196879  11.763   6.119  12.777
64994SOL    HW296880  11.801   6.217  12.886
64995SOL     OW96881  13.491   9.673   9.998
64995SOL    HW196882  13.502   9.742  10.063
64995SOL    HW296883  13.402   9.642  10.010
64996SOL     OW96884  11.150   1.225   1.066
64996SOL    HW196885  11.245   1.217   1.073
64996SOL    HW296886  11.134   1.319   1.054
64997SOL     OW96887  10.590   9.701  14.688
64997SOL    HW196888  10.546   9.639  14.746
64997SOL    HW296889  10.619   9.772  14.746
64998SOL     OW96890   6.402  12.361   7.543
64998SOL    HW196891   6.488  12.334   7.511
64998SOL    HW296892   6.379  12.436   7.488
64999SOL     OW96893   7.721  13.602  13.014
64999SOL    HW196894   7.795  13.550  13.043
64999SOL    HW296895   7.646  13.543  13.017
65000SOL     OW96896   0.923   1.976   2.572
65000SOL    HW196897   0.868   2.051   2.595
65000SOL    HW296898   1.012   2.011   2.571
65001SOL     OW96899   4.145  13.094  14.679
65001SOL    HW196900   4.145  13.009  14.636
65001SOL    HW296901   4.096  13.080  14.760
65002SOL     OW96902   6.667  12.116  10.977
65002SOL    HW196903   6.625  12.128  11.062
65002SOL    HW296904   6.615  12.168  10.916
65003SOL     OW96905  10.540   2.501  12.235
65003SOL    HW196906  10.541   2.421  12.183
65003SOL    HW296907  10.553   2.471  12.325
65004SOL     OW96908   5.862  10.985  14.603
65004SOL    HW196909   5.767  10.980  14.613
65004SOL    HW296910   5.887  10.900  14.566
65005SOL     OW96911   0.399   2.757   2.124
65005SOL    HW196912   0.423   2.786   2.212
65005SOL    HW296913   0.439   2.670   2.116
65006SOL     OW96914   8.463  14.598  10.545
65006SOL    HW196915   8.506  14.597  10.630
65006SOL    HW296916   8.526  14.639  10.486
65007SOL     OW96917  13.594  12.072   5.112
65007SOL    HW196918  13.647  12.079   5.192
65007SOL    HW296919  13.504  12.090   5.142
65008SOL     OW96920  11.898   4.567   9.197
65008SOL    HW196921  11.875   4.476   9.215
65008SOL    HW296922  11.985   4.561   9.157
65009SOL     OW96923  12.858   3.805   7.923
65009SOL    HW196924  12.949   3.825   7.900
65009SOL    HW296925  12.856   3.710   7.932
65010SOL     OW96926  11.455   3.608  14.851
65010SOL    HW196927  11.498   3.523  14.851
65010SOL    HW296928  11.393   3.604  14.778
65011SOL     OW96929  10.912  12.850  14.661
65011SOL    HW196930  10.903  12.755  14.649
65011SOL    HW296931  10.960  12.879  14.584
65012SOL     OW96932   7.758  11.844   3.257
65012SOL    HW196933   7.784  11.761   3.295
65012SOL    HW296934   7.735  11.823   3.166
65013SOL     OW96935   4.577   2.425   6.237
65013SOL    HW196936   4.563   2.448   6.145
65013SOL    HW296937   4.488   2.416   6.272
65014SOL     OW96938   7.271   6.594   4.088
65014SOL    HW196939   7.246   6.617   3.999
65014SOL    HW296940   7.187   6.575   4.132
65015SOL     OW96941  13.455   8.528   5.105
65015SOL    HW196942  13.387   8.521   5.172
65015SOL    HW296943  13.463   8.440   5.069
65016SOL     OW96944  13.113   1.918   1.198
65016SOL    HW196945  13.180   1.890   1.137
65016SOL    HW296946  13.158   1.928   1.282
65017SOL     OW96947  11.229   9.694   2.165
65017SOL    HW196948  11.282   9.700   2.085
65017SOL    HW296949  11.139   9.688   2.133
65018SOL     OW96950  11.552   2.026   5.446
65018SOL    HW196951  11.642   2.003   5.469
65018SOL    HW296952  11.545   2.005   5.353
65019SOL     OW96953   3.383  11.983  11.606
65019SOL    HW196954   3.345  12.068  11.585
65019SOL    HW296955   3.473  11.988  11.573
65020SOL     OW96956   3.291  11.583  12.756
65020SOL    HW196957   3.197  11.572  12.749
65020SOL    HW296958   3.307  11.673  12.729
65021SOL     OW96959   7.477   1.570   0.511
65021SOL    HW196960   7.387   1.538   0.502
65021SOL    HW296961   7.530   1.490   0.511
65022SOL     OW96962   5.846   7.280   1.989
65022SOL    HW196963   5.770   7.240   1.948
65022SOL    HW296964   5.894   7.206   2.028
65023SOL     OW96965  14.462   3.505  12.359
65023SOL    HW196966  14.506   3.422  12.379
65023SOL    HW296967  14.527   3.556  12.311
65024SOL     OW96968   1.296   5.820   1.774
65024SOL    HW196969   1.297   5.748   1.711
65024SOL    HW296970   1.372   5.873   1.750
65025SOL     OW96971  10.009  11.003   1.782
65025SOL    HW196972   9.939  10.943   1.810
65025SOL    HW296973  10.090  10.956   1.801
65026SOL     OW96974   5.319   9.514   2.725
65026SOL    HW196975   5.255   9.457   2.769
65026SOL    HW296976   5.369   9.455   2.670
65027SOL     OW96977   0.556   2.328   5.473
65027SOL    HW196978   0.602   2.306   5.392
65027SOL    HW296979   0.574   2.421   5.487
65028SOL     OW96980  11.192   4.031   4.691
65028SOL    HW196981  11.183   3.964   4.758
65028SOL    HW296982  11.129   4.007   4.623
65029SOL     OW96983   0.315  12.302  10.196
65029SOL    HW196984   0.377  12.364  10.158
65029SOL    HW296985   0.368  12.248  10.254
65030SOL     OW96986   8.636   7.130  11.701
65030SOL    HW196987   8.639   7.205  11.642
65030SOL    HW296988   8.728   7.105  11.713
65031SOL     OW96989  12.164  12.931   2.024
65031SOL    HW196990  12.212  12.992   1.969
65031SOL    HW296991  12.072  12.945   2.003
65032SOL     OW96992   6.103   8.152  14.758
65032SOL    HW196993   6.033   8.187  14.813
65032SOL    HW296994   6.059   8.094  14.696
65033SOL     OW96995  10.835  12.394   5.412
65033SOL    HW196996  10.775  12.421   5.482
65033SOL    HW296997  10.887  12.472   5.395
65034SOL     OW96998  12.120   0.263  10.327
65034SOL    HW196999  12.181   0.305  10.388
65034SOL    HW297000  12.144   0.171  10.329
65035SOL     OW97001  10.103   5.534   8.199
65035SOL    HW197002  10.184   5.484   8.204
65035SOL    HW297003  10.103   5.587   8.279
65036SOL     OW97004   5.269   2.859  10.596
65036SOL    HW197005   5.265   2.819  10.683
65036SOL    HW297006   5.356   2.898  10.593
65037SOL     OW97007   5.600   4.566   1.575
65037SOL    HW197008   5.540   4.588   1.504
65037SOL    HW297009   5.543   4.535   1.645
65038SOL     OW97010   9.342   4.621   8.117
65038SOL    HW197011   9.248   4.618   8.102
65038SOL    HW297012   9.357   4.702   8.166
65039SOL     OW97013   0.550   6.790  10.374
65039SOL    HW197014   0.607   6.738  10.318
65039SOL    HW297015   0.582   6.880  10.365
65040SOL     OW97016  13.064   6.945   6.153
65040SOL    HW197017  13.039   7.037   6.152
65040SOL    HW297018  12.990   6.900   6.112
65041SOL     OW97019   1.313   5.250   3.159
65041SOL    HW197020   1.277   5.263   3.071
65041SOL    HW297021   1.387   5.192   3.146
65042SOL     OW97022  14.104  14.692   3.869
65042SOL    HW197023  14.132  14.778   3.837
65042SOL    HW297024  14.014  14.706   3.898
65043SOL     OW97025  13.305  14.720   4.349
65043SOL    HW197026  13.352  14.673   4.418
65043SOL    HW297027  13.256  14.788   4.395
65044SOL     OW97028   0.460   8.301   3.891
65044SOL    HW197029   0.439   8.336   3.977
65044SOL    HW297030   0.500   8.374   3.844
65045SOL     OW97031   1.969   4.137   9.915
65045SOL    HW197032   1.988   4.190   9.992
65045SOL    HW297033   2.013   4.183   9.843
65046SOL     OW97034   3.951   6.504   6.540
65046SOL    HW197035   3.994   6.500   6.625
65046SOL    HW297036   3.957   6.596   6.514
65047SOL     OW97037   3.548  12.412   0.195
65047SOL    HW197038   3.555  12.322   0.165
65047SOL    HW297039   3.635  12.449   0.181
65048SOL     OW97040  11.390   0.318   6.718
65048SOL    HW197041  11.323   0.255   6.693
65048SOL    HW297042  11.410   0.296   6.810
65049SOL     OW97043  12.097   7.720   9.969
65049SOL    HW197044  12.098   7.798   9.914
65049SOL    HW297045  12.178   7.674   9.946
65050SOL     OW97046   9.810  11.331  12.480
65050SOL    HW197047   9.775  11.253  12.436
65050SOL    HW297048   9.753  11.342  12.557
65051SOL     OW97049  14.701  12.451   0.837
65051SOL    HW197050  14.724  12.531   0.791
65051SOL    HW297051  14.759  12.384   0.800
65052SOL     OW97052   4.542  10.873  12.166
65052SOL    HW197053   4.577  10.954  12.204
65052SOL    HW297054   4.616  10.813  12.163
65053SOL     OW97055   7.614   1.381  14.703
65053SOL    HW197056   7.547   1.410  14.764
65053SOL    HW297057   7.663   1.314  14.751
65054SOL     OW97058  13.933   3.284   0.803
65054SOL    HW197059  13.913   3.284   0.710
65054SOL    HW297060  13.976   3.368   0.819
65055SOL     OW97061   5.087   8.031   0.343
65055SOL    HW197062   5.178   8.042   0.371
65055SOL    HW297063   5.081   7.938   0.319
65056SOL     OW97064   7.553  13.170   2.702
65056SOL    HW197065   7.599  13.105   2.650
65056SOL    HW297066   7.498  13.217   2.640
65057SOL     OW97067   7.173  13.756  10.762
65057SOL    HW197068   7.249  13.700  10.751
65057SOL    HW297069   7.110  13.725  10.697
65058SOL     OW97070  13.799   4.238   3.074
65058SOL    HW197071  13.752   4.170   3.123
65058SOL    HW297072  13.733   4.276   3.016
65059SOL     OW97073  11.652  11.360  11.995
65059SOL    HW197074  11.695  11.393  12.074
65059SOL    HW297075  11.584  11.425  11.976
65060SOL     OW97076   5.996   2.696  14.816
65060SOL    HW197077   6.082   2.656  14.805
65060SOL    HW297078   6.013   2.789  14.825
65061SOL     OW97079  10.156  14.869  13.119
65061SOL    HW197080  10.190  14.785  13.148
65061SOL    HW297081  10.230   0.030  13.076
65062SOL     OW97082  10.374   3.190  13.133
65062SOL    HW197083  10.429   3.139  13.074
65062SOL    HW297084  10.436   3.240  13.186
65063SOL     OW97085   0.166   4.585   7.713
65063SOL    HW197086   0.214   4.663   7.740
65063SOL    HW297087   0.178   4.581   7.618
65064SOL     OW97088   5.403  11.697  11.442
65064SOL    HW197089   5.392  11.738  11.528
65064SOL    HW297090   5.491  11.660  11.443
65065SOL     OW97091   5.941   1.738  11.549
65065SOL    HW197092   5.929   1.775  11.462
65065SOL    HW297093   6.008   1.671  11.537
65066SOL     OW97094  10.895  12.324   7.259
65066SOL    HW197095  10.814  12.285   7.225
65066SOL    HW297096  10.881  12.418   7.253
65067SOL     OW97097   6.723   7.007   5.223
65067SOL    HW197098   6.656   7.033   5.285
65067SOL    HW297099   6.765   7.088   5.196
65068SOL     OW97100   6.130   5.042   8.443
65068SOL    HW197101   6.195   5.019   8.376
65068SOL    HW297102   6.050   5.058   8.395
65069SOL     OW97103  12.324   9.568   7.069
65069SOL    HW197104  12.386   9.526   7.129
65069SOL    HW297105  12.241   9.566   7.115
65070SOL     OW97106  12.460  13.827   6.453
65070SOL    HW197107  12.416  13.742   6.457
65070SOL    HW297108  12.533  13.819   6.515
65071SOL     OW97109  12.813   7.801   8.465
65071SOL    HW197110  12.819   7.709   8.439
65071SOL    HW297111  12.897   7.839   8.437
65072SOL     OW97112  10.033   2.923   7.824
65072SOL    HW197113   9.937   2.916   7.829
65072SOL    HW297114  10.059   2.966   7.905
65073SOL     OW97115   2.026   2.472  14.873
65073SOL    HW197116   2.084   2.436  14.806
65073SOL    HW297117   1.946   2.418  14.867
65074SOL     OW97118   3.171  11.707   6.104
65074SOL    HW197119   3.235  11.752   6.160
65074SOL    HW297120   3.190  11.614   6.117
65075SOL     OW97121   1.411   4.096   9.091
65075SOL    HW197122   1.379   4.154   9.022
65075SOL    HW297123   1.427   4.155   9.166
65076SOL     OW97124   5.068   0.765   2.141
65076SOL    HW197125   5.057   0.749   2.234
65076SOL    HW297126   5.095   0.857   2.135
65077SOL     OW97127   6.219   6.376   5.855
65077SOL    HW197128   6.214   6.354   5.762
65077SOL    HW297129   6.312   6.390   5.871
65078SOL     OW97130   0.747  14.435  11.085
65078SOL    HW197131   0.804  14.509  11.063
65078SOL    HW297132   0.730  14.445  11.178
65079SOL     OW97133  13.130  10.347   2.328
65079SOL    HW197134  13.196  10.336   2.260
65079SOL    HW297135  13.075  10.419   2.297
65080SOL     OW97136   3.098   2.399   4.627
65080SOL    HW197137   3.073   2.429   4.540
65080SOL    HW297138   3.047   2.454   4.687
65081SOL     OW97139   2.605   1.827   4.226
65081SOL    HW197140   2.632   1.918   4.237
65081SOL    HW297141   2.619   1.787   4.312
65082SOL     OW97142   1.606   6.674  11.576
65082SOL    HW197143   1.670   6.610  11.548
65082SOL    HW297144   1.647   6.719  11.650
65083SOL     OW97145   9.757   1.234  12.362
65083SOL    HW197146   9.762   1.303  12.296
65083SOL    HW297147   9.848   1.210  12.378
65084SOL     OW97148   3.521   6.792  12.964
65084SOL    HW197149   3.464   6.841  13.023
65084SOL    HW297150   3.606   6.790  13.008
65085SOL     OW97151   1.054   9.870  13.593
65085SOL    HW197152   0.992   9.942  13.605
65085SOL    HW297153   1.041   9.815  13.670
65086SOL     OW97154   4.565  14.077  10.993
65086SOL    HW197155   4.530  14.158  10.957
65086SOL    HW297156   4.636  14.053  10.934
65087SOL     OW97157  14.019   5.381   1.079
65087SOL    HW197158  13.999   5.365   1.171
65087SOL    HW297159  14.098   5.330   1.063
65088SOL     OW97160   9.775  10.422   7.190
65088SOL    HW197161   9.754  10.514   7.207
65088SOL    HW297162   9.713  10.395   7.122
65089SOL     OW97163  11.464   4.762  10.701
65089SOL    HW197164  11.404   4.779  10.627
65089SOL    HW297165  11.546   4.804  10.675
65090SOL     OW97166   0.852  13.102  12.504
65090SOL    HW197167   0.925  13.062  12.458
65090SOL    HW297168   0.842  13.050  12.584
65091SOL     OW97169   2.415   9.646   3.816
65091SOL    HW197170   2.381   9.676   3.900
65091SOL    HW297171   2.352   9.677   3.751
65092SOL     OW97172   7.826   6.680   5.701
65092SOL    HW197173   7.873   6.618   5.645
65092SOL    HW297174   7.837   6.646   5.789
65093SOL     OW97175   5.164   9.118   1.086
65093SOL    HW197176   5.124   9.158   1.164
65093SOL    HW297177   5.093   9.065   1.048
65094SOL     OW97178  10.153   4.356  14.298
65094SOL    HW197179  10.110   4.271  14.288
65094SOL    HW297180  10.174   4.361  14.391
65095SOL     OW97181   8.776   2.542  11.439
65095SOL    HW197182   8.814   2.604  11.501
65095SOL    HW297183   8.835   2.466  11.441
65096SOL     OW97184  14.585  10.603   4.062
65096SOL    HW197185  14.626  10.676   4.015
65096SOL    HW297186  14.594  10.528   4.003
65097SOL     OW97187   7.864   6.058   6.554
65097SOL    HW197188   7.842   6.106   6.474
65097SOL    HW297189   7.783   6.060   6.606
65098SOL     OW97190  10.118   9.489  13.031
65098SOL    HW197191  10.167   9.530  13.102
65098SOL    HW297192  10.142   9.540  12.953
65099SOL     OW97193   2.781   8.764   2.927
65099SOL    HW197194   2.876   8.765   2.934
65099SOL    HW297195   2.758   8.853   2.898
65100SOL     OW97196   6.637   2.444   4.195
65100SOL    HW197197   6.691   2.493   4.256
65100SOL    HW297198   6.550   2.445   4.234
65101SOL     OW97199  10.681   0.482  11.075
65101SOL    HW197200  10.761   0.431  11.079
65101SOL    HW297201  10.683   0.525  10.990
65102SOL     OW97202  10.407   3.506  13.224
65102SOL    HW197203  10.388   3.513  13.318
65102SOL    HW297204  10.460   3.427  13.216
65103SOL     OW97205   7.757  11.024   1.815
65103SOL    HW197206   7.782  11.079   1.740
65103SOL    HW297207   7.719  11.086   1.878
65104SOL     OW97208   9.292   1.621   1.776
65104SOL    HW197209   9.354   1.597   1.846
65104SOL    HW297210   9.288   1.543   1.720
65105SOL     OW97211   7.828   0.201   0.386
65105SOL    HW197212   7.761   0.190   0.318
65105SOL    HW297213   7.896   0.138   0.362
65106SOL     OW97214  13.543   9.309   5.419
65106SOL    HW197215  13.523   9.307   5.326
65106SOL    HW297216  13.596   9.388   5.430
65107SOL     OW97217   3.322   6.209   0.863
65107SOL    HW197218   3.352   6.238   0.949
65107SOL    HW297219   3.383   6.139   0.839
65108SOL     OW97220  14.457  13.152   6.975
65108SOL    HW197221  14.477  13.173   7.067
65108SOL    HW297222  14.467  13.057   6.970
65109SOL     OW97223   1.575  11.924  14.441
65109SOL    HW197224   1.514  11.936  14.368
65109SOL    HW297225   1.568  11.831  14.464
65110SOL     OW97226   8.732  11.928  12.029
65110SOL    HW197227   8.807  11.886  11.987
65110SOL    HW297228   8.656  11.895  11.981
65111SOL     OW97229   7.038  13.024  13.306
65111SOL    HW197230   7.110  13.084  13.284
65111SOL    HW297231   7.000  12.999  13.222
65112SOL     OW97232   8.631   7.133   2.208
65112SOL    HW197233   8.573   7.061   2.232
65112SOL    HW297234   8.572   7.204   2.184
65113SOL     OW97235   4.230  12.590  13.760
65113SOL    HW197236   4.284  12.657  13.717
65113SOL    HW297237   4.154  12.639  13.793
65114SOL     OW97238   0.908   2.911  13.299
65114SOL    HW197239   0.935   2.970  13.229
65114SOL    HW297240   0.813   2.909  13.293
65115SOL     OW97241   2.286   8.016   1.995
65115SOL    HW197242   2.232   7.944   1.963
65115SOL    HW297243   2.279   8.083   1.927
65116SOL     OW97244   1.026   8.441   5.642
65116SOL    HW197245   1.025   8.533   5.617
65116SOL    HW297246   1.110   8.409   5.609
65117SOL     OW97247  11.014   0.515   9.551
65117SOL    HW197248  10.954   0.565   9.606
65117SOL    HW297249  10.997   0.424   9.575
65118SOL     OW97250  14.745   6.548   6.753
65118SOL    HW197251  14.708   6.637   6.750
65118SOL    HW297252  14.670   6.491   6.742
65119SOL     OW97253  13.745  12.111   5.355
65119SOL    HW197254  13.817  12.048   5.367
65119SOL    HW297255  13.721  12.137   5.443
65120SOL     OW97256   3.279   6.617   9.101
65120SOL    HW197257   3.277   6.707   9.132
65120SOL    HW297258   3.322   6.622   9.016
65121SOL     OW97259   5.244  12.005  10.960
65121SOL    HW197260   5.224  11.958  10.879
65121SOL    HW297261   5.322  11.961  10.995
65122SOL     OW97262  13.260   7.174  10.359
65122SOL    HW197263  13.312   7.245  10.395
65122SOL    HW297264  13.282   7.098  10.412
65123SOL     OW97265  14.469   6.830  14.735
65123SOL    HW197266  14.475   6.744  14.694
65123SOL    HW297267  14.455   6.891  14.662
65124SOL     OW97268   1.290   3.955   8.451
65124SOL    HW197269   1.234   4.016   8.402
65124SOL    HW297270   1.304   3.998   8.535
65125SOL     OW97271   1.990   0.251   6.430
65125SOL    HW197272   1.980   0.164   6.392
65125SOL    HW297273   2.070   0.286   6.389
65126SOL     OW97274   2.672   9.785  11.924
65126SOL    HW197275   2.740   9.790  11.992
65126SOL    HW297276   2.697   9.850  11.860
65127SOL     OW97277   4.750   0.475   5.657
65127SOL    HW197278   4.773   0.387   5.687
65127SOL    HW297279   4.774   0.476   5.564
65128SOL     OW97280   2.592   2.433   7.028
65128SOL    HW197281   2.671   2.475   6.994
65128SOL    HW297282   2.529   2.504   7.036
65129SOL     OW97283   9.932   8.469   0.450
65129SOL    HW197284   9.845   8.507   0.456
65129SOL    HW297285   9.936   8.404   0.521
65130SOL     OW97286  11.077  12.916  13.039
65130SOL    HW197287  11.069  12.882  12.950
65130SOL    HW297288  11.170  12.935  13.049
65131SOL     OW97289  10.568   8.962   4.012
65131SOL    HW197290  10.532   9.025   4.074
65131SOL    HW297291  10.649   9.003   3.982
65132SOL     OW97292  11.328   9.903  11.097
65132SOL    HW197293  11.333   9.956  11.176
65132SOL    HW297294  11.243   9.924  11.059
65133SOL     OW97295   5.416  14.045  14.433
65133SOL    HW197296   5.451  13.962  14.468
65133SOL    HW297297   5.479  14.071  14.366
65134SOL     OW97298   9.593   8.100   7.186
65134SOL    HW197299   9.508   8.136   7.211
65134SOL    HW297300   9.641   8.175   7.151
65135SOL     OW97301  10.726  10.330  13.262
65135SOL    HW197302  10.644  10.288  13.287
65135SOL    HW297303  10.794  10.268  13.288
65136SOL     OW97304   8.318   0.833   5.627
65136SOL    HW197305   8.233   0.859   5.592
65136SOL    HW297306   8.309   0.843   5.722
65137SOL     OW97307   3.487   9.920   1.524
65137SOL    HW197308   3.515   9.999   1.479
65137SOL    HW297309   3.409   9.892   1.476
65138SOL     OW97310  13.198   3.068  14.563
65138SOL    HW197311  13.254   3.092  14.489
65138SOL    HW297312  13.252   3.008  14.615
65139SOL     OW97313  12.017   4.919   3.739
65139SOL    HW197314  11.959   4.993   3.756
65139SOL    HW297315  11.971   4.844   3.777
65140SOL     OW97316  11.217   3.031  11.354
65140SOL    HW197317  11.154   3.079  11.299
65140SOL    HW297318  11.297   3.083  11.349
65141SOL     OW97319   9.419   2.067  10.350
65141SOL    HW197320   9.356   2.082  10.421
65141SOL    HW297321   9.479   2.141  10.356
65142SOL     OW97322   1.466   2.190   4.016
65142SOL    HW197323   1.498   2.278   3.997
65142SOL    HW297324   1.533   2.151   4.071
65143SOL     OW97325   9.772   6.019   1.347
65143SOL    HW197326   9.859   5.980   1.357
65143SOL    HW297327   9.716   5.944   1.325
65144SOL     OW97328   8.011   3.207   3.048
65144SOL    HW197329   8.059   3.284   3.019
65144SOL    HW297330   7.951   3.187   2.976
65145SOL     OW97331  14.082  13.358  12.109
65145SOL    HW197332  14.095  13.298  12.183
65145SOL    HW297333  14.167  13.362  12.066
65146SOL     OW97334   3.151   9.180   5.591
65146SOL    HW197335   3.169   9.268   5.558
65146SOL    HW297336   3.228   9.158   5.644
65147SOL     OW97337   2.181  10.881   8.610
65147SOL    HW197338   2.203  10.830   8.533
65147SOL    HW297339   2.193  10.972   8.583
65148SOL     OW97340   3.710   5.037   3.446
65148SOL    HW197341   3.801   5.032   3.475
65148SOL    HW297342   3.660   4.997   3.517
65149SOL     OW97343  14.493  13.239   8.374
65149SOL    HW197344  14.487  13.144   8.366
65149SOL    HW297345  14.580  13.254   8.411
65150SOL     OW97346  11.521  11.920  12.559
65150SOL    HW197347  11.430  11.944  12.571
65150SOL    HW297348  11.567  12.003  12.548
65151SOL     OW97349   4.163   7.371  12.913
65151SOL    HW197350   4.255   7.347  12.928
65151SOL    HW297351   4.121   7.289  12.886
65152SOL     OW97352   3.737  13.673  12.292
65152SOL    HW197353   3.704  13.762  12.305
65152SOL    HW297354   3.809  13.683  12.229
65153SOL     OW97355   6.961   0.697   6.261
65153SOL    HW197356   6.999   0.782   6.280
65153SOL    HW297357   7.027   0.652   6.209
65154SOL     OW97358   3.745  13.014   0.519
65154SOL    HW197359   3.661  12.985   0.556
65154SOL    HW297360   3.811  12.969   0.571
65155SOL     OW97361  14.027  11.749  13.050
65155SOL    HW197362  14.015  11.810  13.123
65155SOL    HW297363  14.095  11.689  13.080
65156SOL     OW97364   7.113   4.591   9.713
65156SOL    HW197365   7.069   4.652   9.653
65156SOL    HW297366   7.206   4.599   9.691
65157SOL     OW97367   6.508  13.340  12.447
65157SOL    HW197368   6.493  13.336  12.542
65157SOL    HW297369   6.438  13.286  12.410
65158SOL     OW97370   0.460   3.479  13.538
65158SOL    HW197371   0.454   3.495  13.443
65158SOL    HW297372   0.369   3.481  13.567
65159SOL     OW97373  11.142  10.083   4.631
65159SOL    HW197374  11.161  10.176   4.641
65159SOL    HW297375  11.055  10.081   4.590
65160SOL     OW97376  12.870   0.204   3.890
65160SOL    HW197377  12.876   0.208   3.795
65160SOL    HW297378  12.952   0.165   3.918
65161SOL     OW97379   1.022  12.832   6.141
65161SOL    HW197380   1.042  12.773   6.069
65161SOL    HW297381   1.100  12.887   6.150
65162SOL     OW97382   8.250   6.962  10.305
65162SOL    HW197383   8.192   6.897  10.267
65162SOL    HW297384   8.270   7.022  10.233
65163SOL     OW97385  12.711  10.774  12.528
65163SOL    HW197386  12.760  10.758  12.447
65163SOL    HW297387  12.640  10.710  12.525
65164SOL     OW97388   2.486   6.094   3.271
65164SOL    HW197389   2.473   6.096   3.176
65164SOL    HW297390   2.577   6.068   3.282
65165SOL     OW97391   1.496   6.523  13.206
65165SOL    HW197392   1.536   6.439  13.185
65165SOL    HW297393   1.539   6.550  13.288
65166SOL     OW97394   2.927  12.402   4.488
65166SOL    HW197395   2.943  12.394   4.394
65166SOL    HW297396   2.925  12.496   4.505
65167SOL     OW97397  10.367   5.030   9.418
65167SOL    HW197398  10.388   4.960   9.479
65167SOL    HW297399  10.446   5.084   9.415
65168SOL     OW97400  13.680   6.485   5.562
65168SOL    HW197401  13.769   6.485   5.598
65168SOL    HW297402  13.623   6.476   5.639
65169SOL     OW97403  10.176   9.336   0.984
65169SOL    HW197404  10.185   9.430   0.973
65169SOL    HW297405  10.083   9.319   0.969
65170SOL     OW97406   9.969   3.565   3.773
65170SOL    HW197407  10.007   3.564   3.861
65170SOL    HW297408   9.884   3.521   3.782
65171SOL     OW97409  11.941   0.575  11.185
65171SOL    HW197410  11.867   0.542  11.236
65171SOL    HW297411  11.995   0.622  11.247
65172SOL     OW97412  13.895   6.752   0.668
65172SOL    HW197413  13.941   6.675   0.701
65172SOL    HW297414  13.864   6.725   0.581
65173SOL     OW97415  13.283  11.419   8.713
65173SOL    HW197416  13.363  11.389   8.671
65173SOL    HW297417  13.234  11.338   8.732
65174SOL     OW97418   1.934  14.119   5.466
65174SOL    HW197419   1.987  14.136   5.544
65174SOL    HW297420   1.898  14.204   5.443
65175SOL     OW97421   5.251   9.684   1.362
65175SOL    HW197422   5.158   9.673   1.384
65175SOL    HW297423   5.251   9.748   1.292
65176SOL     OW97424   2.622   6.613   6.848
65176SOL    HW197425   2.603   6.668   6.772
65176SOL    HW297426   2.628   6.525   6.813
65177SOL     OW97427  14.556  11.840   9.575
65177SOL    HW197428  14.590  11.921   9.613
65177SOL    HW297429  14.461  11.846   9.586
65178SOL     OW97430  12.468   6.139   7.849
65178SOL    HW197431  12.394   6.135   7.789
65178SOL    HW297432  12.504   6.050   7.850
65179SOL     OW97433   6.771  12.707  10.205
65179SOL    HW197434   6.687  12.662  10.213
65179SOL    HW297435   6.836  12.639  10.223
65180SOL     OW97436  12.235   4.778   3.829
65180SOL    HW197437  12.165   4.843   3.828
65180SOL    HW297438  12.300   4.811   3.767
65181SOL     OW97439  14.140   6.333   8.665
65181SOL    HW197440  14.071   6.389   8.701
65181SOL    HW297441  14.221   6.371   8.699
65182SOL     OW97442   8.009   0.012   8.023
65182SOL    HW197443   8.021   0.088   8.081
65182SOL    HW297444   7.971   0.048   7.943
65183SOL     OW97445  10.044  11.772  14.380
65183SOL    HW197446   9.978  11.738  14.440
65183SOL    HW297447  10.119  11.793  14.437
65184SOL     OW97448   9.782  11.605   2.463
65184SOL    HW197449   9.726  11.656   2.521
65184SOL    HW297450   9.737  11.605   2.379
65185SOL     OW97451  12.591  14.604  11.741
65185SOL    HW197452  12.589  14.515  11.706
65185SOL    HW297453  12.555  14.595  11.830
65186SOL     OW97454   7.798   9.062   5.016
65186SOL    HW197455   7.846   9.008   4.954
65186SOL    HW297456   7.798   9.012   5.097
65187SOL     OW97457   3.921   7.518   5.944
65187SOL    HW197458   3.967   7.577   5.884
65187SOL    HW297459   3.864   7.575   5.995
65188SOL     OW97460  10.104  12.746   0.886
65188SOL    HW197461  10.067  12.815   0.940
65188SOL    HW297462  10.190  12.729   0.924
65189SOL     OW97463   1.891   0.708   7.286
65189SOL    HW197464   1.971   0.724   7.335
65189SOL    HW297465   1.879   0.787   7.233
65190SOL     OW97466   9.245   0.247  10.173
65190SOL    HW197467   9.227   0.180  10.239
65190SOL    HW297468   9.203   0.215  10.093
65191SOL     OW97469  11.196   7.552   4.009
65191SOL    HW197470  11.182   7.611   3.935
65191SOL    HW297471  11.118   7.562   4.063
65192SOL     OW97472   5.444  11.123   8.062
65192SOL    HW197473   5.411  11.139   8.150
65192SOL    HW297474   5.378  11.162   8.004
65193SOL     OW97475   3.085  13.342   7.478
65193SOL    HW197476   3.151  13.319   7.543
65193SOL    HW297477   3.029  13.406   7.521
65194SOL     OW97478  11.075  12.881  11.522
65194SOL    HW197479  11.035  12.955  11.476
65194SOL    HW297480  11.166  12.881  11.491
65195SOL     OW97481  12.065   2.218   6.642
65195SOL    HW197482  12.073   2.203   6.548
65195SOL    HW297483  12.042   2.310   6.650
65196SOL     OW97484   0.128   8.690   3.821
65196SOL    HW197485   0.129   8.731   3.907
65196SOL    HW297486   0.218   8.660   3.807
65197SOL     OW97487   9.461   2.188   6.460
65197SOL    HW197488   9.427   2.230   6.539
65197SOL    HW297489   9.551   2.218   6.453
65198SOL     OW97490   6.748   3.117   7.334
65198SOL    HW197491   6.786   3.203   7.315
65198SOL    HW297492   6.658   3.124   7.303
65199SOL     OW97493   0.518   2.314   3.218
65199SOL    HW197494   0.495   2.259   3.293
65199SOL    HW297495   0.436   2.326   3.171
65200SOL     OW97496  14.546   1.728   8.156
65200SOL    HW197497  14.478   1.715   8.222
65200SOL    HW297498  14.499   1.744   8.075
65201SOL     OW97499   8.470   5.868   0.537
65201SOL    HW197500   8.533   5.929   0.574
65201SOL    HW297501   8.384   5.900   0.567
65202SOL     OW97502   9.413  12.545  11.706
65202SOL    HW197503   9.395  12.501  11.624
65202SOL    HW297504   9.425  12.637  11.682
65203SOL     OW97505  11.884  14.477   0.234
65203SOL    HW197506  11.852  14.567   0.236
65203SOL    HW297507  11.828  14.432   0.171
65204SOL     OW97508   0.752   1.684  13.898
65204SOL    HW197509   0.756   1.745  13.825
65204SOL    HW297510   0.663   1.692  13.931
65205SOL     OW97511   6.442   7.530   6.413
65205SOL    HW197512   6.407   7.553   6.327
65205SOL    HW297513   6.524   7.484   6.395
65206SOL     OW97514   6.389  10.876   7.045
65206SOL    HW197515   6.475  10.833   7.049
65206SOL    HW297516   6.409  10.969   7.053
65207SOL     OW97517   8.069   5.623  10.816
65207SOL    HW197518   8.032   5.552  10.870
65207SOL    HW297519   8.069   5.699  10.875
65208SOL     OW97520  12.462  12.458  14.159
65208SOL    HW197521  12.413  12.376  14.161
65208SOL    HW297522  12.399  12.525  14.186
65209SOL     OW97523  14.852  10.080   8.797
65209SOL    HW197524  14.758  10.096   8.797
65209SOL    HW297525   0.009  10.167   8.783
65210SOL     OW97526  13.002   5.003   7.393
65210SOL    HW197527  12.942   4.969   7.459
65210SOL    HW297528  13.068   5.051   7.443
65211SOL     OW97529   7.743   3.904   4.794
65211SOL    HW197530   7.733   3.899   4.699
65211SOL    HW297531   7.655   3.923   4.827
65212SOL     OW97532  12.217  11.035   5.410
65212SOL    HW197533  12.192  10.944   5.426
65212SOL    HW297534  12.241  11.037   5.317
65213SOL     OW97535   4.302   3.483   3.769
65213SOL    HW197536   4.270   3.531   3.692
65213SOL    HW297537   4.230   3.490   3.833
65214SOL     OW97538   8.798   3.774   0.057
65214SOL    HW197539   8.816   3.805   0.146
65214SOL    HW297540   8.879   3.790   0.009
65215SOL     OW97541   4.953   2.069  11.204
65215SOL    HW197542   5.004   2.003  11.157
65215SOL    HW297543   4.864   2.059  11.171
65216SOL     OW97544   2.241   3.253   4.484
65216SOL    HW197545   2.240   3.160   4.508
65216SOL    HW297546   2.287   3.255   4.400
65217SOL     OW97547   5.360   6.797   5.123
65217SOL    HW197548   5.295   6.844   5.176
65217SOL    HW297549   5.442   6.845   5.137
65218SOL     OW97550  14.724  11.700   3.907
65218SOL    HW197551  14.745  11.793   3.901
65218SOL    HW297552  14.702  11.687   3.999
65219SOL     OW97553  12.683   2.322   9.216
65219SOL    HW197554  12.650   2.243   9.174
65219SOL    HW297555  12.617   2.344   9.282
65220SOL     OW97556  14.323   4.050  13.580
65220SOL    HW197557  14.271   4.030  13.658
65220SOL    HW297558  14.325   4.146  13.577
65221SOL     OW97559  10.993   7.844  11.082
65221SOL    HW197560  10.999   7.806  10.994
65221SOL    HW297561  10.908   7.815  11.115
65222SOL     OW97562  10.932  10.937  14.811
65222SOL    HW197563  10.975  10.885  14.879
65222SOL    HW297564  10.844  10.898  14.804
65223SOL     OW97565  12.365  11.835   4.577
65223SOL    HW197566  12.336  11.926   4.566
65223SOL    HW297567  12.339  11.791   4.496
65224SOL     OW97568   2.104  12.265  10.599
65224SOL    HW197569   2.107  12.257  10.503
65224SOL    HW297570   2.100  12.360  10.614
65225SOL     OW97571   2.005  11.146   6.392
65225SOL    HW197572   2.069  11.102   6.448
65225SOL    HW297573   1.985  11.227   6.438
65226SOL     OW97574   6.776   2.417   5.777
65226SOL    HW197575   6.779   2.329   5.739
65226SOL    HW297576   6.692   2.452   5.746
65227SOL     OW97577  10.982   9.151  12.343
65227SOL    HW197578  10.956   9.157  12.435
65227SOL    HW297579  11.000   9.058  12.330
65228SOL     OW97580   6.686   0.123   2.258
65228SOL    HW197581   6.713   0.170   2.180
65228SOL    HW297582   6.615   0.176   2.294
65229SOL     OW97583   2.554   9.177  14.748
65229SOL    HW197584   2.489   9.244  14.768
65229SOL    HW297585   2.588   9.150  14.833
65230SOL     OW97586   0.720  14.732  13.194
65230SOL    HW197587   0.810  14.700  13.185
65230SOL    HW297588   0.729  14.824  13.219
65231SOL     OW97589   6.834   5.965   3.519
65231SOL    HW197590   6.879   5.981   3.437
65231SOL    HW297591   6.745   5.998   3.505
65232SOL     OW97592   0.612   1.457  12.053
65232SOL    HW197593   0.605   1.371  12.094
65232SOL    HW297594   0.585   1.444  11.963
65233SOL     OW97595   4.225   3.187  12.761
65233SOL    HW197596   4.278   3.113  12.732
65233SOL    HW297597   4.256   3.261  12.709
65234SOL     OW97598  11.250  10.576   1.809
65234SOL    HW197599  11.172  10.528   1.837
65234SOL    HW297600  11.229  10.608   1.722
65235SOL     OW97601  12.296   0.876  11.468
65235SOL    HW197602  12.217   0.916  11.430
65235SOL    HW297603  12.361   0.881  11.398
65236SOL     OW97604  13.360   9.890   5.577
65236SOL    HW197605  13.409   9.972   5.569
65236SOL    HW297606  13.289   9.910   5.639
65237SOL     OW97607   3.257  11.977   8.314
65237SOL    HW197608   3.191  12.045   8.331
65237SOL    HW297609   3.322  12.020   8.259
65238SOL     OW97610   3.837   4.538   7.200
65238SOL    HW197611   3.793   4.540   7.115
65238SOL    HW297612   3.913   4.482   7.186
65239SOL     OW97613   2.812   9.424  12.663
65239SOL    HW197614   2.903   9.426  12.693
65239SOL    HW297615   2.814   9.375  12.581
65240SOL     OW97616   2.777   4.147   1.686
65240SOL    HW197617   2.765   4.101   1.769
65240SOL    HW297618   2.710   4.216   1.687
65241SOL     OW97619  11.654  14.717  10.819
65241SOL    HW197620  11.655  14.760  10.904
65241SOL    HW297621  11.597  14.641  10.831
65242SOL     OW97622   9.977  10.117  11.571
65242SOL    HW197623   9.948  10.172  11.643
65242SOL    HW297624   9.897  10.075  11.539
65243SOL     OW97625   4.048   9.169   4.244
65243SOL    HW197626   4.014   9.154   4.155
65243SOL    HW297627   4.001   9.105   4.298
65244SOL     OW97628  13.420  12.888  14.616
65244SOL    HW197629  13.453  12.798  14.612
65244SOL    HW297630  13.493  12.941  14.583
65245SOL     OW97631   3.082   8.953  13.017
65245SOL    HW197632   3.138   8.980  13.090
65245SOL    HW297633   3.011   8.903  13.058
65246SOL     OW97634   7.291   1.873   7.189
65246SOL    HW197635   7.346   1.822   7.130
65246SOL    HW297636   7.222   1.908   7.133
65247SOL     OW97637  10.404   0.116  13.871
65247SOL    HW197638  10.499   0.126  13.862
65247SOL    HW297639  10.369   0.137  13.784
65248SOL     OW97640  14.487   2.728  12.316
65248SOL    HW197641  14.533   2.697  12.395
65248SOL    HW297642  14.397   2.697  12.327
65249SOL     OW97643   5.119   3.486   8.693
65249SOL    HW197644   5.085   3.552   8.633
65249SOL    HW297645   5.049   3.422   8.702
65250SOL     OW97646   2.034  13.170   1.401
65250SOL    HW197647   2.123  13.197   1.377
65250SOL    HW297648   2.045  13.082   1.437
65251SOL     OW97649  13.963  12.938  14.179
65251SOL    HW197650  13.965  12.842  14.178
65251SOL    HW297651  13.930  12.961  14.266
65252SOL     OW97652   1.771  10.987   7.613
65252SOL    HW197653   1.866  10.976   7.611
65252SOL    HW297654   1.738  10.921   7.551
65253SOL     OW97655   8.757   8.791   8.563
65253SOL    HW197656   8.683   8.773   8.621
65253SOL    HW297657   8.827   8.733   8.595
65254SOL     OW97658  10.397  13.187   0.552
65254SOL    HW197659  10.442  13.175   0.469
65254SOL    HW297660  10.355  13.103   0.570
65255SOL     OW97661   2.410   2.708  10.880
65255SOL    HW197662   2.413   2.669  10.792
65255SOL    HW297663   2.319   2.735  10.891
65256SOL     OW97664  14.700  14.545  11.313
65256SOL    HW197665  14.787  14.582  11.333
65256SOL    HW297666  14.668  14.513  11.398
65257SOL     OW97667  14.756  12.692   0.710
65257SOL    HW197668  14.827  12.722   0.652
65257SOL    HW297669  14.764  12.748   0.788
65258SOL     OW97670   5.214   7.157   3.491
65258SOL    HW197671   5.306   7.140   3.513
65258SOL    HW297672   5.213   7.247   3.459
65259SOL     OW97673   5.653   1.378  13.925
65259SOL    HW197674   5.574   1.431  13.934
65259SOL    HW297675   5.629   1.293  13.962
65260SOL     OW97676  10.671   6.632   9.024
65260SOL    HW197677  10.682   6.541   8.995
65260SOL    HW297678  10.619   6.625   9.104
65261SOL     OW97679   8.252   5.528   6.462
65261SOL    HW197680   8.168   5.490   6.437
65261SOL    HW297681   8.266   5.499   6.552
65262SOL     OW97682  14.268   6.387  11.737
65262SOL    HW197683  14.236   6.310  11.783
65262SOL    HW297684  14.239   6.461  11.790
65263SOL     OW97685   9.965  14.858   5.189
65263SOL    HW197686   9.873  14.831   5.180
65263SOL    HW297687   9.974   0.051   5.130
65264SOL     OW97688   9.021   8.024  12.827
65264SOL    HW197689   9.013   7.940  12.874
65264SOL    HW297690   9.085   8.074  12.877
65265SOL     OW97691   0.899  14.845   6.368
65265SOL    HW197692   0.873  14.865   6.278
65265SOL    HW297693   0.986  14.806   6.360
65266SOL     OW97694   8.561   5.923   4.638
65266SOL    HW197695   8.629   5.856   4.648
65266SOL    HW297696   8.594   5.980   4.568
65267SOL     OW97697   5.136  13.418  12.489
65267SOL    HW197698   5.073  13.490  12.481
65267SOL    HW297699   5.166  13.422  12.580
65268SOL     OW97700   7.564   6.524   0.408
65268SOL    HW197701   7.639   6.564   0.363
65268SOL    HW297702   7.582   6.430   0.403
65269SOL     OW97703   8.692   0.632  11.240
65269SOL    HW197704   8.678   0.577  11.318
65269SOL    HW297705   8.777   0.604  11.207
65270SOL     OW97706   2.089   6.779   9.866
65270SOL    HW197707   2.060   6.767   9.957
65270SOL    HW297708   2.022   6.835   9.827
65271SOL     OW97709   2.793   0.573   0.296
65271SOL    HW197710   2.727   0.527   0.245
65271SOL    HW297711   2.835   0.505   0.349
65272SOL     OW97712   1.213   2.222   9.665
65272SOL    HW197713   1.236   2.298   9.612
65272SOL    HW297714   1.288   2.163   9.657
65273SOL     OW97715   3.275   8.916   6.373
65273SOL    HW197716   3.305   8.890   6.286
65273SOL    HW297717   3.243   8.836   6.414
65274SOL     OW97718   3.876   8.365   0.031
65274SOL    HW197719   3.934   8.294   0.004
65274SOL    HW297720   3.865   8.353   0.125
65275SOL     OW97721   3.945   9.303   5.822
65275SOL    HW197722   3.870   9.246   5.803
65275SOL    HW297723   4.005   9.247   5.871
65276SOL     OW97724   6.751   4.339   7.000
65276SOL    HW197725   6.755   4.431   7.022
65276SOL    HW297726   6.694   4.300   7.066
65277SOL     OW97727   9.579   5.902   2.397
65277SOL    HW197728   9.589   5.862   2.311
65277SOL    HW297729   9.669   5.920   2.426
65278SOL     OW97730  11.648  14.217   9.874
65278SOL    HW197731  11.695  14.217   9.957
65278SOL    HW297732  11.656  14.306   9.841
65279SOL     OW97733  13.171   2.267   6.063
65279SOL    HW197734  13.099   2.328   6.073
65279SOL    HW297735  13.130   2.185   6.033
65280SOL     OW97736   4.637   5.951   7.441
65280SOL    HW197737   4.548   5.987   7.434
65280SOL    HW297738   4.689   6.023   7.477
65281SOL     OW97739   0.879  11.004   8.705
65281SOL    HW197740   0.788  11.028   8.724
65281SOL    HW297741   0.894  11.035   8.616
65282SOL     OW97742  11.941  13.874   3.638
65282SOL    HW197743  11.920  13.846   3.549
65282SOL    HW297744  11.917  13.800   3.693
65283SOL     OW97745  13.310  13.575   2.941
65283SOL    HW197746  13.248  13.600   3.009
65283SOL    HW297747  13.375  13.646   2.941
65284SOL     OW97748   8.671   3.352   9.036
65284SOL    HW197749   8.584   3.327   9.067
65284SOL    HW297750   8.685   3.440   9.071
65285SOL     OW97751   9.577   9.758   3.353
65285SOL    HW197752   9.633   9.793   3.423
65285SOL    HW297753   9.617   9.674   3.330
65286SOL     OW97754   1.892   9.264   8.296
65286SOL    HW197755   1.978   9.288   8.263
65286SOL    HW297756   1.852   9.346   8.323
65287SOL     OW97757   2.292   3.664   0.538
65287SOL    HW197758   2.241   3.651   0.458
65287SOL    HW297759   2.290   3.759   0.553
65288SOL     OW97760  10.458   4.118   9.565
65288SOL    HW197761  10.500   4.203   9.552
65288SOL    HW297762  10.374   4.139   9.607
65289SOL     OW97763   8.953   3.776   0.817
65289SOL    HW197764   8.886   3.812   0.758
65289SOL    HW297765   8.908   3.706   0.864
65290SOL     OW97766  14.668   1.625   9.233
65290SOL    HW197767  14.682   1.532   9.218
65290SOL    HW297768  14.581   1.630   9.274
65291SOL     OW97769   9.774   9.216   9.806
65291SOL    HW197770   9.746   9.255   9.723
65291SOL    HW297771   9.850   9.162   9.782
65292SOL     OW97772  13.810   7.595   1.950
65292SOL    HW197773  13.882   7.647   1.986
65292SOL    HW297774  13.741   7.658   1.931
65293SOL     OW97775   9.584  14.022   0.665
65293SOL    HW197776   9.595  14.040   0.759
65293SOL    HW297777   9.581  14.109   0.625
65294SOL     OW97778   0.197   4.829   5.891
65294SOL    HW197779   0.191   4.810   5.797
65294SOL    HW297780   0.290   4.844   5.906
65295SOL     OW97781  12.033  13.498   4.735
65295SOL    HW197782  12.066  13.504   4.645
65295SOL    HW297783  12.045  13.405   4.758
65296SOL     OW97784   0.841   4.977   1.897
65296SOL    HW197785   0.862   4.915   1.967
65296SOL    HW297786   0.746   4.976   1.892
65297SOL     OW97787   0.947   9.986  13.280
65297SOL    HW197788   0.961  10.056  13.344
65297SOL    HW297789   0.995  10.015  13.202
65298SOL     OW97790   2.093  12.478   8.849
65298SOL    HW197791   2.039  12.469   8.771
65298SOL    HW297792   2.073  12.565   8.883
65299SOL     OW97793   9.566   8.249  12.579
65299SOL    HW197794   9.609   8.256  12.665
65299SOL    HW297795   9.500   8.318  12.580
65300SOL     OW97796   0.974   7.167   9.309
65300SOL    HW197797   0.996   7.074   9.303
65300SOL    HW297798   0.891   7.169   9.357
65301SOL     OW97799  12.680   2.836  10.550
65301SOL    HW197800  12.676   2.885  10.632
65301SOL    HW297801  12.756   2.778  10.559
65302SOL     OW97802   4.685   5.844   3.658
65302SOL    HW197803   4.714   5.754   3.641
65302SOL    HW297804   4.690   5.887   3.573
65303SOL     OW97805   2.709   6.217   9.635
65303SOL    HW197806   2.706   6.188   9.544
65303SOL    HW297807   2.624   6.259   9.650
65304SOL     OW97808   3.113   4.692   1.209
65304SOL    HW197809   3.108   4.776   1.256
65304SOL    HW297810   3.027   4.653   1.222
65305SOL     OW97811  11.240  12.860   5.693
65305SOL    HW197812  11.206  12.816   5.615
65305SOL    HW297813  11.282  12.940   5.659
65306SOL     OW97814  10.861   2.459   5.484
65306SOL    HW197815  10.805   2.454   5.406
65306SOL    HW297816  10.949   2.442   5.452
65307SOL     OW97817   4.756   2.190  11.740
65307SOL    HW197818   4.694   2.140  11.687
65307SOL    HW297819   4.749   2.280  11.706
65308SOL     OW97820   4.763  14.200   8.668
65308SOL    HW197821   4.713  14.176   8.590
65308SOL    HW297822   4.735  14.289   8.689
65309SOL     OW97823   7.375   0.996   0.410
65309SOL    HW197824   7.370   0.936   0.484
65309SOL    HW297825   7.369   0.939   0.333
65310SOL     OW97826   0.471  14.586   8.276
65310SOL    HW197827   0.494  14.617   8.364
65310SOL    HW297828   0.555  14.586   8.229
65311SOL     OW97829   7.381   2.566  10.859
65311SOL    HW197830   7.315   2.505  10.891
65311SOL    HW297831   7.465   2.524  10.881
65312SOL     OW97832  11.019  11.393  11.128
65312SOL    HW197833  11.092  11.452  11.142
65312SOL    HW297834  10.943  11.438  11.164
65313SOL     OW97835   7.046  12.853   8.486
65313SOL    HW197836   7.091  12.854   8.571
65313SOL    HW297837   7.028  12.760   8.470
65314SOL     OW97838  13.201   0.353  13.352
65314SOL    HW197839  13.156   0.286  13.403
65314SOL    HW297840  13.284   0.366  13.397
65315SOL     OW97841   1.490   4.522  12.397
65315SOL    HW197842   1.518   4.483  12.480
65315SOL    HW297843   1.477   4.615  12.417
65316SOL     OW97844   1.002   8.170   7.124
65316SOL    HW197845   1.098   8.161   7.128
65316SOL    HW297846   0.977   8.119   7.047
65317SOL     OW97847   0.006   6.754  11.473
65317SOL    HW197848  14.838   6.735  11.552
65317SOL    HW297849  14.831   6.730  11.400
65318SOL     OW97850  12.388   9.132   6.185
65318SOL    HW197851  12.468   9.173   6.218
65318SOL    HW297852  12.371   9.175   6.101
65319SOL     OW97853  14.612  11.531   4.839
65319SOL    HW197854  14.558  11.484   4.902
65319SOL    HW297855  14.675  11.465   4.808
65320SOL     OW97856   6.268   4.675  12.542
65320SOL    HW197857   6.247   4.646  12.631
65320SOL    HW297858   6.214   4.620  12.486
65321SOL     OW97859   9.913  10.691  12.857
65321SOL    HW197860   9.954  10.643  12.928
65321SOL    HW297861   9.870  10.624  12.804
65322SOL     OW97862  14.397  14.405   5.048
65322SOL    HW197863  14.384  14.311   5.056
65322SOL    HW297864  14.459  14.427   5.119
65323SOL     OW97865   7.543  14.290   2.383
65323SOL    HW197866   7.465  14.249   2.346
65323SOL    HW297867   7.582  14.223   2.439
65324SOL     OW97868  11.004  12.180   3.324
65324SOL    HW197869  11.055  12.260   3.327
65324SOL    HW297870  11.060  12.117   3.277
65325SOL     OW97871   5.834  10.488   3.996
65325SOL    HW197872   5.788  10.548   3.937
65325SOL    HW297873   5.917  10.471   3.952
65326SOL     OW97874  10.576   4.523  12.003
65326SOL    HW197875  10.635   4.557  12.071
65326SOL    HW297876  10.489   4.533  12.040
65327SOL     OW97877   0.337   5.972   3.310
65327SOL    HW197878   0.348   6.063   3.280
65327SOL    HW297879   0.426   5.938   3.315
65328SOL     OW97880   7.470   0.053   2.899
65328SOL    HW197881   7.554   0.041   2.855
65328SOL    HW297882   7.412  14.871   2.858
65329SOL     OW97883  10.576   1.874   6.141
65329SOL    HW197884  10.525   1.954   6.149
65329SOL    HW297885  10.594   1.847   6.231
65330SOL     OW97886   0.563   6.452  10.373
65330SOL    HW197887   0.608   6.499  10.443
65330SOL    HW297888   0.603   6.486  10.293
65331SOL     OW97889   5.967  13.642   7.620
65331SOL    HW197890   5.964  13.577   7.691
65331SOL    HW297891   6.025  13.711   7.653
65332SOL     OW97892   7.597   8.206   1.742
65332SOL    HW197893   7.691   8.197   1.751
65332SOL    HW297894   7.560   8.143   1.804
65333SOL     OW97895   3.253   0.110   3.706
65333SOL    HW197896   3.198   0.098   3.784
65333SOL    HW297897   3.334   0.063   3.727
65334SOL     OW97898   1.262   2.493   5.830
65334SOL    HW197899   1.290   2.511   5.920
65334SOL    HW297900   1.329   2.434   5.795
65335SOL     OW97901   0.834  12.034   3.218
65335SOL    HW197902   0.794  12.002   3.299
65335SOL    HW297903   0.853  12.126   3.235
65336SOL     OW97904   4.008   3.923  11.676
65336SOL    HW197905   4.041   4.007  11.643
65336SOL    HW297906   3.930   3.946  11.727
65337SOL     OW97907  12.358  11.225  14.251
65337SOL    HW197908  12.448  11.211  14.222
65337SOL    HW297909  12.365  11.244  14.345
65338SOL     OW97910   1.314   6.712   2.129
65338SOL    HW197911   1.332   6.805   2.144
65338SOL    HW297912   1.315   6.673   2.216
65339SOL     OW97913   8.332   2.624   5.885
65339SOL    HW197914   8.404   2.565   5.907
65339SOL    HW297915   8.374   2.704   5.855
65340SOL     OW97916   3.607   8.254   2.085
65340SOL    HW197917   3.627   8.213   2.001
65340SOL    HW297918   3.514   8.240   2.097
65341SOL     OW97919   7.939   9.523   5.987
65341SOL    HW197920   7.898   9.585   6.047
65341SOL    HW297921   7.932   9.438   6.032
65342SOL     OW97922   1.738  10.524   6.522
65342SOL    HW197923   1.706  10.456   6.462
65342SOL    HW297924   1.674  10.594   6.516
65343SOL     OW97925   9.042  14.039   2.180
65343SOL    HW197926   8.975  13.986   2.135
65343SOL    HW297927   9.085  14.087   2.109
65344SOL     OW97928   3.756   6.506  12.129
65344SOL    HW197929   3.750   6.601  12.118
65344SOL    HW297930   3.827   6.479  12.071
65345SOL     OW97931   3.263   6.415   9.260
65345SOL    HW197932   3.281   6.498   9.216
65345SOL    HW297933   3.307   6.423   9.345
65346SOL     OW97934   7.623  10.384  10.143
65346SOL    HW197935   7.702  10.337  10.115
65346SOL    HW297936   7.593  10.337  10.220
65347SOL     OW97937  12.925   8.448   6.535
65347SOL    HW197938  12.996   8.486   6.482
65347SOL    HW297939  12.872   8.400   6.472
65348SOL     OW97940   1.585   0.453   3.538
65348SOL    HW197941   1.585   0.365   3.575
65348SOL    HW297942   1.503   0.492   3.568
65349SOL     OW97943   7.160  11.264  14.374
65349SOL    HW197944   7.135  11.291  14.462
65349SOL    HW297945   7.090  11.205  14.346
65350SOL     OW97946   9.233   0.843  14.254
65350SOL    HW197947   9.304   0.831  14.317
65350SOL    HW297948   9.193   0.756  14.246
65351SOL     OW97949   0.664   9.025   8.220
65351SOL    HW197950   0.722   9.086   8.174
65351SOL    HW297951   0.693   9.030   8.312
65352SOL     OW97952   6.018  14.211   0.932
65352SOL    HW197953   6.043  14.271   1.003
65352SOL    HW297954   6.098  14.200   0.881
65353SOL     OW97955   0.973   1.692   7.230
65353SOL    HW197956   1.022   1.699   7.148
65353SOL    HW297957   1.007   1.763   7.285
65354SOL     OW97958   4.503   9.227   1.280
65354SOL    HW197959   4.508   9.159   1.348
65354SOL    HW297960   4.419   9.270   1.295
65355SOL     OW97961  12.142   8.582   4.341
65355SOL    HW197962  12.077   8.650   4.331
65355SOL    HW297963  12.199   8.591   4.265
65356SOL     OW97964   9.787  11.599   3.072
65356SOL    HW197965   9.753  11.679   3.113
65356SOL    HW297966   9.824  11.628   2.989
65357SOL     OW97967   0.699   2.235   9.671
65357SOL    HW197968   0.635   2.299   9.638
65357SOL    HW297969   0.763   2.287   9.718
65358SOL     OW97970   0.725   0.386  13.968
65358SOL    HW197971   0.745   0.302  13.927
65358SOL    HW297972   0.804   0.407  14.018
65359SOL     OW97973   7.580  13.451  14.761
65359SOL    HW197974   7.531  13.463  14.842
65359SOL    HW297975   7.578  13.537  14.719
65360SOL     OW97976   2.443   7.193   9.836
65360SOL    HW197977   2.498   7.272   9.839
65360SOL    HW297978   2.504   7.121   9.855
65361SOL     OW97979   8.807   2.307   4.890
65361SOL    HW197980   8.898   2.335   4.886
65361SOL    HW297981   8.811   2.213   4.905
65362SOL     OW97982  13.791   3.224   4.452
65362SOL    HW197983  13.736   3.285   4.402
65362SOL    HW297984  13.731   3.153   4.476
65363SOL     OW97985   7.165   8.092   0.389
65363SOL    HW197986   7.083   8.140   0.404
65363SOL    HW297987   7.231   8.161   0.381
65364SOL     OW97988   3.805   8.132   5.072
65364SOL    HW197989   3.849   8.166   5.150
65364SOL    HW297990   3.737   8.074   5.107
65365SOL     OW97991   7.634   6.054   8.943
65365SOL    HW197992   7.559   6.091   8.990
65365SOL    HW297993   7.606   6.052   8.852
65366SOL     OW97994  11.658   1.847   2.813
65366SOL    HW197995  11.725   1.883   2.756
65366SOL    HW297996  11.696   1.851   2.901
65367SOL     OW97997   8.068   2.246   2.863
65367SOL    HW197998   8.020   2.215   2.941
65367SOL    HW297999   8.123   2.172   2.839
65368SOL     OW98000  12.627   2.337   6.892
65368SOL    HW198001  12.547   2.296   6.925
65368SOL    HW298002  12.599   2.424   6.861
65369SOL     OW98003  12.430   9.548  13.099
65369SOL    HW198004  12.359   9.583  13.153
65369SOL    HW298005  12.413   9.584  13.011
65370SOL     OW98006  12.923   2.574   6.567
65370SOL    HW198007  12.934   2.668   6.552
65370SOL    HW298008  12.905   2.567   6.661
65371SOL     OW98009  14.130  10.179   9.789
65371SOL    HW198010  14.077  10.193   9.868
65371SOL    HW298011  14.066  10.167   9.719
65372SOL     OW98012   0.276   0.386   7.204
65372SOL    HW198013   0.244   0.473   7.180
65372SOL    HW298014   0.363   0.380   7.163
65373SOL     OW98015  12.147   1.233  13.562
65373SOL    HW198016  12.215   1.276  13.510
65373SOL    HW298017  12.145   1.283  13.643
65374SOL     OW98018   2.161   9.949   6.238
65374SOL    HW198019   2.226   9.883   6.214
65374SOL    HW298020   2.213  10.022   6.270
65375SOL     OW98021   3.775  12.979   7.743
65375SOL    HW198022   3.754  12.965   7.835
65375SOL    HW298023   3.696  12.951   7.696
65376SOL     OW98024   1.050   0.801  14.476
65376SOL    HW198025   1.068   0.708  14.491
65376SOL    HW298026   0.957   0.804  14.456
65377SOL     OW98027  12.005   9.698  11.111
65377SOL    HW198028  11.947   9.624  11.128
65377SOL    HW298029  12.022   9.737  11.197
65378SOL     OW98030   3.443  12.264   5.641
65378SOL    HW198031   3.525  12.257   5.593
65378SOL    HW298032   3.378  12.222   5.585
65379SOL     OW98033   7.738   9.250   7.459
65379SOL    HW198034   7.655   9.298   7.464
65379SOL    HW298035   7.794   9.293   7.524
65380SOL     OW98036   6.087  11.412   5.365
65380SOL    HW198037   6.166  11.374   5.325
65380SOL    HW298038   6.103  11.408   5.459
65381SOL     OW98039   3.776  14.822   8.511
65381SOL    HW198040   3.711  14.796   8.576
65381SOL    HW298041   3.740   0.020   8.473
65382SOL     OW98042  13.924   4.301   7.066
65382SOL    HW198043  13.857   4.361   7.032
65382SOL    HW298044  13.967   4.266   6.988
65383SOL     OW98045   8.391   4.872   8.630
65383SOL    HW198046   8.336   4.842   8.702
65383SOL    HW298047   8.330   4.913   8.569
65384SOL     OW98048   9.492   1.653  11.900
65384SOL    HW198049   9.502   1.559  11.910
65384SOL    HW298050   9.457   1.664  11.811
65385SOL     OW98051   4.888  11.498   6.486
65385SOL    HW198052   4.937  11.422   6.519
65385SOL    HW298053   4.950  11.571   6.492
65386SOL     OW98054   0.572  10.038   1.849
65386SOL    HW198055   0.514  10.059   1.776
65386SOL    HW298056   0.518   9.986   1.909
65387SOL     OW98057   8.183   2.675   4.585
65387SOL    HW198058   8.101   2.712   4.552
65387SOL    HW298059   8.214   2.617   4.516
65388SOL     OW98060   9.218   9.255   7.341
65388SOL    HW198061   9.271   9.317   7.291
65388SOL    HW298062   9.221   9.287   7.431
65389SOL     OW98063   6.962   7.427   1.860
65389SOL    HW198064   6.946   7.432   1.955
65389SOL    HW298065   6.988   7.336   1.846
65390SOL     OW98066   0.393  12.075   2.387
65390SOL    HW198067   0.300  12.060   2.372
65390SOL    HW298068   0.437  12.009   2.334
65391SOL     OW98069   5.241   3.887  10.963
65391SOL    HW198070   5.158   3.839  10.967
65391SOL    HW298071   5.279   3.876  11.050
65392SOL     OW98072   9.495   0.760   7.889
65392SOL    HW198073   9.572   0.711   7.920
65392SOL    HW298074   9.511   0.850   7.918
65393SOL     OW98075   4.882   8.377   7.839
65393SOL    HW198076   4.927   8.315   7.897
65393SOL    HW298077   4.826   8.322   7.784
65394SOL     OW98078   3.763   6.958   2.385
65394SOL    HW198079   3.817   6.939   2.309
65394SOL    HW298080   3.781   7.050   2.406
65395SOL     OW98081  14.514  11.473  12.617
65395SOL    HW198082  14.537  11.444  12.705
65395SOL    HW298083  14.526  11.395  12.563
65396SOL     OW98084   6.149  14.829  12.625
65396SOL    HW198085   6.165   0.039  12.605
65396SOL    HW298086   6.135  14.826  12.719
65397SOL     OW98087   5.836  10.155  12.838
65397SOL    HW198088   5.769  10.194  12.894
65397SOL    HW298089   5.886  10.230  12.806
65398SOL     OW98090   2.412   4.335   3.738
65398SOL    HW198091   2.322   4.305   3.749
65398SOL    HW298092   2.433   4.380   3.820
65399SOL     OW98093   8.599  11.838   9.546
65399SOL    HW198094   8.522  11.875   9.589
65399SOL    HW298095   8.646  11.793   9.616
65400SOL     OW98096   0.358   3.456   4.817
65400SOL    HW198097   0.280   3.409   4.847
65400SOL    HW298098   0.430   3.394   4.826
65401SOL     OW98099   0.252   7.442  13.218
65401SOL    HW198100   0.253   7.374  13.285
65401SOL    HW298101   0.237   7.523  13.265
65402SOL     OW98102   3.461   3.978   7.739
65402SOL    HW198103   3.456   3.890   7.777
65402SOL    HW298104   3.554   4.000   7.742
65403SOL     OW98105   1.839   6.170   7.421
65403SOL    HW198106   1.796   6.086   7.430
65403SOL    HW298107   1.886   6.164   7.337
65404SOL     OW98108   9.244  13.096   6.296
65404SOL    HW198109   9.311  13.158   6.268
65404SOL    HW298110   9.161  13.137   6.273
65405SOL     OW98111   5.155  12.052   0.218
65405SOL    HW198112   5.216  12.125   0.207
65405SOL    HW298113   5.207  11.974   0.195
65406SOL     OW98114   9.559  14.054  13.476
65406SOL    HW198115   9.561  13.961  13.502
65406SOL    HW298116   9.468  14.079  13.487
65407SOL     OW98117   2.712   3.425   4.726
65407SOL    HW198118   2.731   3.492   4.791
65407SOL    HW298119   2.660   3.360   4.773
65408SOL     OW98120   1.363  14.298   9.964
65408SOL    HW198121   1.299  14.229   9.986
65408SOL    HW298122   1.362  14.302   9.869
65409SOL     OW98123   2.074   5.108   2.502
65409SOL    HW198124   2.043   5.192   2.469
65409SOL    HW298125   2.028   5.043   2.448
65410SOL     OW98126   1.260  11.447  12.553
65410SOL    HW198127   1.263  11.541  12.537
65410SOL    HW298128   1.287  11.437  12.644
65411SOL     OW98129   4.333   7.658   3.534
65411SOL    HW198130   4.387   7.709   3.473
65411SOL    HW298131   4.356   7.694   3.620
65412SOL     OW98132   2.135  12.719   4.087
65412SOL    HW198133   2.197  12.780   4.128
65412SOL    HW298134   2.109  12.762   4.006
65413SOL     OW98135   4.703   2.346   9.049
65413SOL    HW198136   4.789   2.305   9.034
65413SOL    HW298137   4.720   2.440   9.040
65414SOL     OW98138   1.942   0.883  10.150
65414SOL    HW198139   1.892   0.931  10.217
65414SOL    HW298140   2.033   0.892  10.176
65415SOL     OW98141   6.445   1.495   6.986
65415SOL    HW198142   6.475   1.585   7.001
65415SOL    HW298143   6.525   1.446   6.966
65416SOL     OW98144   4.944  11.633   4.758
65416SOL    HW198145   4.946  11.678   4.842
65416SOL    HW298146   4.905  11.548   4.777
65417SOL     OW98147  13.726   4.871   5.602
65417SOL    HW198148  13.716   4.840   5.512
65417SOL    HW298149  13.820   4.873   5.617
65418SOL     OW98150   4.061   8.564   6.239
65418SOL    HW198151   4.076   8.563   6.333
65418SOL    HW298152   4.148   8.558   6.201
65419SOL     OW98153   1.770   8.153   6.918
65419SOL    HW198154   1.820   8.178   6.996
65419SOL    HW298155   1.794   8.218   6.852
65420SOL     OW98156  14.178   3.763   6.782
65420SOL    HW198157  14.211   3.724   6.863
65420SOL    HW298158  14.133   3.692   6.737
65421SOL     OW98159  10.812   1.199   5.684
65421SOL    HW198160  10.906   1.198   5.671
65421SOL    HW298161  10.800   1.190   5.779
65422SOL     OW98162  10.517   8.731   2.340
65422SOL    HW198163  10.465   8.694   2.411
65422SOL    HW298164  10.566   8.657   2.305
65423SOL     OW98165  13.379   4.240   3.161
65423SOL    HW198166  13.433   4.177   3.112
65423SOL    HW298167  13.439   4.277   3.225
65424SOL     OW98168  12.223   7.360  13.150
65424SOL    HW198169  12.234   7.390  13.240
65424SOL    HW298170  12.144   7.306  13.152
65425SOL     OW98171   0.677   3.542   9.217
65425SOL    HW198172   0.587   3.536   9.248
65425SOL    HW298173   0.669   3.568   9.125
65426SOL     OW98174  10.709   7.027   0.762
65426SOL    HW198175  10.777   7.091   0.740
65426SOL    HW298176  10.630   7.079   0.775
65427SOL     OW98177  13.092   2.987   1.576
65427SOL    HW198178  13.106   3.070   1.530
65427SOL    HW298179  13.006   2.997   1.616
65428SOL     OW98180   1.004   9.979  14.265
65428SOL    HW198181   0.983  10.072  14.276
65428SOL    HW298182   1.026   9.949  14.354
65429SOL     OW98183   3.176   3.836   4.689
65429SOL    HW198184   3.103   3.843   4.750
65429SOL    HW298185   3.249   3.804   4.742
65430SOL     OW98186   7.245  13.852  11.235
65430SOL    HW198187   7.253  13.898  11.152
65430SOL    HW298188   7.184  13.780  11.217
65431SOL     OW98189   0.906   6.516  14.331
65431SOL    HW198190   1.000   6.510  14.348
65431SOL    HW298191   0.865   6.485  14.412
65432SOL     OW98192  12.269  14.796   9.388
65432SOL    HW198193  12.359  14.805   9.420
65432SOL    HW298194  12.223  14.872   9.424
65433SOL     OW98195   5.309   3.091   3.602
65433SOL    HW198196   5.338   3.009   3.562
65433SOL    HW298197   5.216   3.075   3.623
65434SOL     OW98198  11.721   0.874   7.196
65434SOL    HW198199  11.794   0.890   7.255
65434SOL    HW298200  11.762   0.852   7.112
65435SOL     OW98201  11.778   4.638  12.589
65435SOL    HW198202  11.822   4.712  12.548
65435SOL    HW298203  11.685   4.650  12.570
65436SOL     OW98204  13.009  14.166  13.421
65436SOL    HW198205  13.101  14.190  13.433
65436SOL    HW298206  12.986  14.123  13.504
65437SOL     OW98207  12.925  12.513  10.358
65437SOL    HW198208  12.903  12.436  10.306
65437SOL    HW298209  12.856  12.576  10.339
65438SOL     OW98210  10.440   1.182   8.338
65438SOL    HW198211  10.457   1.148   8.250
65438SOL    HW298212  10.368   1.244   8.326
65439SOL     OW98213   6.923   1.773   1.566
65439SOL    HW198214   6.913   1.741   1.656
65439SOL    HW298215   6.970   1.856   1.574
65440SOL     OW98216  10.490   1.886  13.693
65440SOL    HW198217  10.485   1.906  13.786
65440SOL    HW298218  10.549   1.810  13.687
65441SOL     OW98219   6.012   3.539  13.929
65441SOL    HW198220   6.084   3.600  13.914
65441SOL    HW298221   5.942   3.594  13.965
65442SOL     OW98222   1.592  13.787   0.992
65442SOL    HW198223   1.598  13.828   0.906
65442SOL    HW298224   1.509  13.820   1.028
65443SOL     OW98225   0.030   3.317   2.175
65443SOL    HW198226  14.828   3.274   2.191
65443SOL    HW298227   0.092   3.245   2.164
65444SOL     OW98228   5.618   4.711   7.330
65444SOL    HW198229   5.603   4.755   7.246
65444SOL    HW298230   5.711   4.689   7.329
65445SOL     OW98231   5.945   0.091  10.948
65445SOL    HW198232   5.930   0.183  10.925
65445SOL    HW298233   5.892   0.078  11.027
65446SOL     OW98234  14.505   7.186   0.352
65446SOL    HW198235  14.457   7.260   0.390
65446SOL    HW298236  14.569   7.227   0.294
65447SOL     OW98237   4.315  10.120   5.288
65447SOL    HW198238   4.360  10.087   5.210
65447SOL    HW298239   4.316  10.047   5.350
65448SOL     OW98240   1.530   1.340  11.631
65448SOL    HW198241   1.512   1.257  11.588
65448SOL    HW298242   1.446   1.386  11.630
65449SOL     OW98243   4.888  12.174   3.124
65449SOL    HW198244   4.806  12.202   3.165
65449SOL    HW298245   4.868  12.172   3.030
65450SOL     OW98246   1.501  11.933   3.857
65450SOL    HW198247   1.573  11.987   3.824
65450SOL    HW298248   1.516  11.847   3.818
65451SOL     OW98249  13.727   2.125  10.502
65451SOL    HW198250  13.793   2.180  10.544
65451SOL    HW298251  13.714   2.164  10.416
65452SOL     OW98252   7.904   0.580   6.356
65452SOL    HW198253   7.993   0.544   6.357
65452SOL    HW298254   7.889   0.603   6.264
65453SOL     OW98255  10.217  11.054  12.104
65453SOL    HW198256  10.239  11.138  12.143
65453SOL    HW298257  10.220  11.070  12.009
65454SOL     OW98258   2.199   9.873   0.477
65454SOL    HW198259   2.116   9.881   0.524
65454SOL    HW298260   2.262   9.847   0.544
65455SOL     OW98261  13.249   2.275  14.422
65455SOL    HW198262  13.185   2.259  14.491
65455SOL    HW298263  13.236   2.203  14.360
65456SOL     OW98264  10.550  13.188   5.443
65456SOL    HW198265  10.622  13.168   5.502
65456SOL    HW298266  10.473  13.195   5.499
65457SOL     OW98267  14.218  12.838   2.104
65457SOL    HW198268  14.148  12.900   2.086
65457SOL    HW298269  14.254  12.865   2.188
65458SOL     OW98270   9.538  14.822  11.212
65458SOL    HW198271   9.472  14.857  11.272
65458SOL    HW298272   9.487  14.787  11.138
65459SOL     OW98273   6.071  12.870  11.531
65459SOL    HW198274   6.139  12.937  11.534
65459SOL    HW298275   6.097  12.813  11.458
65460SOL     OW98276   4.571   0.785  14.202
65460SOL    HW198277   4.495   0.783  14.261
65460SOL    HW298278   4.634   0.841  14.248
65461SOL     OW98279   0.280   7.980  13.288
65461SOL    HW198280   0.227   8.039  13.340
65461SOL    HW298281   0.364   8.025  13.279
65462SOL     OW98282   1.546   1.406   0.168
65462SOL    HW198283   1.533   1.314   0.189
65462SOL    HW298284   1.600   1.440   0.239
65463SOL     OW98285   5.959  12.923   8.095
65463SOL    HW198286   5.948  12.948   8.187
65463SOL    HW298287   6.048  12.951   8.074
65464SOL     OW98288   8.270   6.567   5.608
65464SOL    HW198289   8.299   6.574   5.517
65464SOL    HW298290   8.225   6.649   5.626
65465SOL     OW98291   6.153   1.926   1.124
65465SOL    HW198292   6.060   1.933   1.103
65465SOL    HW298293   6.183   2.017   1.128
65466SOL     OW98294  11.088   1.372  10.988
65466SOL    HW198295  11.089   1.307  11.058
65466SOL    HW298296  11.037   1.332  10.918
65467SOL     OW98297   8.121   9.444   7.097
65467SOL    HW198298   8.151   9.357   7.123
65467SOL    HW298299   8.077   9.479   7.175
65468SOL     OW98300   0.829   6.726   6.965
65468SOL    HW198301   0.781   6.728   6.882
65468SOL    HW298302   0.808   6.809   7.007
65469SOL     OW98303   7.104  13.024  11.455
65469SOL    HW198304   7.125  12.941  11.498
65469SOL    HW298305   7.102  13.004  11.362
65470SOL     OW98306  10.518   6.360   4.765
65470SOL    HW198307  10.425   6.373   4.744
65470SOL    HW298308  10.533   6.417   4.840
65471SOL     OW98309   7.944   3.512   0.986
65471SOL    HW198310   7.861   3.518   0.940
65471SOL    HW298311   7.965   3.419   0.986
65472SOL     OW98312   3.733   1.536  13.197
65472SOL    HW198313   3.796   1.580  13.255
65472SOL    HW298314   3.689   1.607  13.151
65473SOL     OW98315   5.014   6.711   0.671
65473SOL    HW198316   5.022   6.788   0.615
65473SOL    HW298317   4.920   6.693   0.674
65474SOL     OW98318  13.569   7.350   7.344
65474SOL    HW198319  13.586   7.364   7.251
65474SOL    HW298320  13.593   7.432   7.385
65475SOL     OW98321   5.606   2.914   3.041
65475SOL    HW198322   5.587   2.998   3.082
65475SOL    HW298323   5.640   2.860   3.113
65476SOL     OW98324  13.388   8.442  12.016
65476SOL    HW198325  13.326   8.407  12.079
65476SOL    HW298326  13.472   8.444  12.063
65477SOL     OW98327   1.779   5.606  10.503
65477SOL    HW198328   1.684   5.621  10.498
65477SOL    HW298329   1.811   5.672  10.564
65478SOL     OW98330   9.782  10.366   2.612
65478SOL    HW198331   9.873  10.377   2.640
65478SOL    HW298332   9.741  10.314   2.681
65479SOL     OW98333   2.161   8.746   9.935
65479SOL    HW198334   2.249   8.771   9.964
65479SOL    HW298335   2.148   8.796   9.855
65480SOL     OW98336   4.706   1.576   9.206
65480SOL    HW198337   4.744   1.524   9.136
65480SOL    HW298338   4.642   1.518   9.247
65481SOL     OW98339  13.042  12.842   0.687
65481SOL    HW198340  13.011  12.924   0.649
65481SOL    HW298341  13.088  12.869   0.766
65482SOL     OW98342   4.923  12.371  13.054
65482SOL    HW198343   4.959  12.291  13.092
65482SOL    HW298344   4.963  12.376  12.967
65483SOL     OW98345   2.382   6.233  14.820
65483SOL    HW198346   2.301   6.247  14.868
65483SOL    HW298347   2.361   6.257  14.730
65484SOL     OW98348   8.882   0.471  10.589
65484SOL    HW198349   8.964   0.446  10.630
65484SOL    HW298350   8.904   0.490  10.498
65485SOL     OW98351  12.284   2.534   6.037
65485SOL    HW198352  12.364   2.558   5.991
65485SOL    HW298353  12.251   2.458   5.990
65486SOL     OW98354  11.707   1.464  13.351
65486SOL    HW198355  11.650   1.433  13.422
65486SOL    HW298356  11.780   1.403  13.350
65487SOL     OW98357  10.146   7.669   1.838
65487SOL    HW198358  10.066   7.722   1.845
65487SOL    HW298359  10.162   7.662   1.744
65488SOL     OW98360   7.585   8.955  10.747
65488SOL    HW198361   7.490   8.970  10.754
65488SOL    HW298362   7.614   9.017  10.680
65489SOL     OW98363   7.047  14.834   9.904
65489SOL    HW198364   7.076  14.780   9.978
65489SOL    HW298365   6.962  14.868   9.931
65490SOL     OW98366   4.620   7.117  12.873
65490SOL    HW198367   4.685   7.124  12.943
65490SOL    HW298368   4.551   7.177  12.899
65491SOL     OW98369   4.195  11.267   3.446
65491SOL    HW198370   4.151  11.333   3.392
65491SOL    HW298371   4.165  11.284   3.535
65492SOL     OW98372   1.875   0.972   2.772
65492SOL    HW198373   1.902   1.052   2.727
65492SOL    HW298374   1.782   0.983   2.788
65493SOL     OW98375  13.957   5.794   0.578
65493SOL    HW198376  13.935   5.878   0.538
65493SOL    HW298377  14.051   5.785   0.564
65494SOL     OW98378   8.515   2.259   7.669
65494SOL    HW198379   8.424   2.242   7.647
65494SOL    HW298380   8.516   2.268   7.764
65495SOL     OW98381   0.728   5.190   4.655
65495SOL    HW198382   0.721   5.194   4.560
65495SOL    HW298383   0.637   5.195   4.686
65496SOL     OW98384   4.749   6.370   3.170
65496SOL    HW198385   4.675   6.309   3.172
65496SOL    HW298386   4.825   6.315   3.155
65497SOL     OW98387   7.741   0.729   5.289
65497SOL    HW198388   7.831   0.753   5.266
65497SOL    HW298389   7.741   0.723   5.384
65498SOL     OW98390   6.891   0.925  13.185
65498SOL    HW198391   6.887   0.894  13.094
65498SOL    HW298392   6.901   0.846  13.237
65499SOL     OW98393  14.112   2.035  11.170
65499SOL    HW198394  14.093   2.125  11.142
65499SOL    HW298395  14.058   1.981  11.112
65500SOL     OW98396  11.075  10.995   7.541
65500SOL    HW198397  10.999  11.014   7.596
65500SOL    HW298398  11.123  11.077   7.538
65501SOL     OW98399   1.242  10.473   9.401
65501SOL    HW198400   1.280  10.388   9.381
65501SOL    HW298401   1.157  10.453   9.440
65502SOL     OW98402   6.510   0.713   2.794
65502SOL    HW198403   6.522   0.703   2.699
65502SOL    HW298404   6.416   0.723   2.805
65503SOL     OW98405   3.291   0.995   6.476
65503SOL    HW198406   3.254   1.083   6.465
65503SOL    HW298407   3.347   1.002   6.554
65504SOL     OW98408   9.095   5.448  10.689
65504SOL    HW198409   9.009   5.488  10.684
65504SOL    HW298410   9.157   5.521  10.687
65505SOL     OW98411  13.768   9.558   3.419
65505SOL    HW198412  13.747   9.648   3.445
65505SOL    HW298413  13.763   9.508   3.500
65506SOL     OW98414   3.578   6.800   4.382
65506SOL    HW198415   3.563   6.710   4.412
65506SOL    HW298416   3.645   6.834   4.442
65507SOL     OW98417   1.611   9.594  13.864
65507SOL    HW198418   1.683   9.547  13.908
65507SOL    HW298419   1.620   9.684  13.893
65508SOL     OW98420   6.667   6.764   4.685
65508SOL    HW198421   6.622   6.838   4.725
65508SOL    HW298422   6.748   6.801   4.649
65509SOL     OW98423  13.698  13.216   6.687
65509SOL    HW198424  13.607  13.235   6.713
65509SOL    HW298425  13.690  13.178   6.600
65510SOL     OW98426   4.038  11.398   9.685
65510SOL    HW198427   3.979  11.326   9.707
65510SOL    HW298428   4.077  11.424   9.768
65511SOL     OW98429   4.923  11.891   8.541
65511SOL    HW198430   4.915  11.922   8.631
65511SOL    HW298431   4.908  11.970   8.488
65512SOL     OW98432  13.240  10.693   1.631
65512SOL    HW198433  13.214  10.756   1.564
65512SOL    HW298434  13.177  10.705   1.702
65513SOL     OW98435   7.821  11.199  14.119
65513SOL    HW198436   7.734  11.208  14.082
65513SOL    HW298437   7.814  11.237  14.207
65514SOL     OW98438   1.638   2.693  11.156
65514SOL    HW198439   1.554   2.653  11.178
65514SOL    HW298440   1.657   2.660  11.068
65515SOL     OW98441  13.889   9.320  12.608
65515SOL    HW198442  13.853   9.379  12.674
65515SOL    HW298443  13.941   9.377  12.551
65516SOL     OW98444  11.755  14.526   1.504
65516SOL    HW198445  11.756  14.613   1.543
65516SOL    HW298446  11.759  14.541   1.410
65517SOL     OW98447  14.813   7.368   0.805
65517SOL    HW198448  14.750   7.426   0.762
65517SOL    HW298449   0.016   7.408   0.789
65518SOL     OW98450   2.267  14.509   2.363
65518SOL    HW198451   2.294  14.503   2.272
65518SOL    HW298452   2.319  14.441   2.407
65519SOL     OW98453   4.058   5.051  10.177
65519SOL    HW198454   4.152   5.053  10.157
65519SOL    HW298455   4.015   5.066  10.093
65520SOL     OW98456   6.962   0.060  14.583
65520SOL    HW198457   6.983  14.850  14.599
65520SOL    HW298458   7.029   0.108  14.631
65521SOL     OW98459  11.464   8.985   9.765
65521SOL    HW198460  11.379   8.995   9.721
65521SOL    HW298461  11.507   8.914   9.717
65522SOL     OW98462  14.811  13.685  13.694
65522SOL    HW198463  14.858  13.755  13.739
65522SOL    HW298464  14.743  13.729  13.645
65523SOL     OW98465   0.668   0.258   8.464
65523SOL    HW198466   0.693   0.250   8.372
65523SOL    HW298467   0.594   0.198   8.474
65524SOL     OW98468   9.939   7.308  12.671
65524SOL    HW198469   9.866   7.355  12.711
65524SOL    HW298470   9.961   7.359  12.593
65525SOL     OW98471   1.360   9.972   5.246
65525SOL    HW198472   1.303   9.896   5.238
65525SOL    HW298473   1.439   9.948   5.198
65526SOL     OW98474   0.681  13.228  10.540
65526SOL    HW198475   0.628  13.162  10.496
65526SOL    HW298476   0.716  13.282  10.469
65527SOL     OW98477   9.086  11.972   1.347
65527SOL    HW198478   9.071  11.883   1.380
65527SOL    HW298479   9.067  12.029   1.421
65528SOL     OW98480  10.904   5.419  12.020
65528SOL    HW198481  10.944   5.471  12.090
65528SOL    HW298482  10.831   5.374  12.063
65529SOL     OW98483   6.097  10.099   8.286
65529SOL    HW198484   6.062  10.014   8.263
65529SOL    HW298485   6.021  10.156   8.293
65530SOL     OW98486   4.902   7.916  13.601
65530SOL    HW198487   4.941   7.966  13.530
65530SOL    HW298488   4.934   7.958  13.681
65531SOL     OW98489  11.893   9.965  11.276
65531SOL    HW198490  11.843   9.982  11.356
65531SOL    HW298491  11.946   9.888  11.296
65532SOL     OW98492   1.753   9.140  14.802
65532SOL    HW198493   1.764   9.075  14.732
65532SOL    HW298494   1.821   9.204  14.786
65533SOL     OW98495   4.307   1.929   4.731
65533SOL    HW198496   4.283   1.996   4.667
65533SOL    HW298497   4.335   1.978   4.808
65534SOL     OW98498  12.949   6.807   8.358
65534SOL    HW198499  12.947   6.775   8.268
65534SOL    HW298500  12.857   6.802   8.386
65535SOL     OW98501  13.807   0.361   2.283
65535SOL    HW198502  13.796   0.454   2.303
65535SOL    HW298503  13.788   0.316   2.365
65536SOL     OW98504   0.748  13.849   3.269
65536SOL    HW198505   0.714  13.936   3.289
65536SOL    HW298506   0.674  13.801   3.234
65537SOL     OW98507   4.558  13.061   4.664
65537SOL    HW198508   4.511  13.080   4.583
65537SOL    HW298509   4.620  13.134   4.673
65538SOL     OW98510   8.211   6.876  12.032
65538SOL    HW198511   8.299   6.864  11.995
65538SOL    HW298512   8.181   6.960  11.996
65539SOL     OW98513  10.845   6.196  13.210
65539SOL    HW198514  10.902   6.121  13.224
65539SOL    HW298515  10.877   6.262  13.271
65540SOL     OW98516   2.721  13.424   0.112
65540SOL    HW198517   2.692  13.512   0.135
65540SOL    HW298518   2.673  13.403   0.031
65541SOL     OW98519  11.327  10.887  12.238
65541SOL    HW198520  11.331  10.822  12.168
65541SOL    HW298521  11.236  10.885  12.268
65542SOL     OW98522   5.223   9.205   5.005
65542SOL    HW198523   5.177   9.157   5.074
65542SOL    HW298524   5.159   9.213   4.935
65543SOL     OW98525   0.568  14.674   9.162
65543SOL    HW198526   0.620  14.700   9.239
65543SOL    HW298527   0.632  14.639   9.100
65544SOL     OW98528   1.832  12.051   2.007
65544SOL    HW198529   1.854  12.019   1.919
65544SOL    HW298530   1.887  11.999   2.066
65545SOL     OW98531   0.394   5.948   0.803
65545SOL    HW198532   0.439   6.007   0.743
65545SOL    HW298533   0.307   5.937   0.765
65546SOL     OW98534   6.487   4.546   8.968
65546SOL    HW198535   6.518   4.457   8.956
65546SOL    HW298536   6.466   4.577   8.880
65547SOL     OW98537   5.791   4.180   6.892
65547SOL    HW198538   5.862   4.243   6.879
65547SOL    HW298539   5.716   4.235   6.915
65548SOL     OW98540   6.922   5.691   3.816
65548SOL    HW198541   6.838   5.662   3.852
65548SOL    HW298542   6.901   5.728   3.731
65549SOL     OW98543   3.602  14.515  11.763
65549SOL    HW198544   3.587  14.561  11.845
65549SOL    HW298545   3.648  14.435  11.788
65550SOL     OW98546   5.486   9.843  14.464
65550SOL    HW198547   5.423   9.771  14.458
65550SOL    HW298548   5.567   9.802  14.494
65551SOL     OW98549   8.120   1.642  14.130
65551SOL    HW198550   8.052   1.668  14.193
65551SOL    HW298551   8.121   1.713  14.066
65552SOL     OW98552   1.086  13.462   1.780
65552SOL    HW198553   1.146  13.494   1.713
65552SOL    HW298554   1.137  13.396   1.828
65553SOL     OW98555   6.271   8.130   4.607
65553SOL    HW198556   6.364   8.122   4.628
65553SOL    HW298557   6.262   8.085   4.523
65554SOL     OW98558   0.387   5.379   6.259
65554SOL    HW198559   0.455   5.383   6.191
65554SOL    HW298560   0.409   5.301   6.310
65555SOL     OW98561   4.811   6.725  10.291
65555SOL    HW198562   4.783   6.670  10.218
65555SOL    HW298563   4.731   6.772  10.317
65556SOL     OW98564   5.021   8.831   3.180
65556SOL    HW198565   4.949   8.858   3.123
65556SOL    HW298566   5.085   8.902   3.175
65557SOL     OW98567  13.300   3.166  12.494
65557SOL    HW198568  13.372   3.190  12.436
65557SOL    HW298569  13.243   3.112  12.439
65558SOL     OW98570   1.767   3.265   5.904
65558SOL    HW198571   1.839   3.202   5.914
65558SOL    HW298572   1.723   3.263   5.989
65559SOL     OW98573  14.071  11.002   3.668
65559SOL    HW198574  14.066  10.908   3.688
65559SOL    HW298575  14.031  11.009   3.581
65560SOL     OW98576   0.111  11.263   8.580
65560SOL    HW198577   0.053  11.196   8.616
65560SOL    HW298578   0.073  11.283   8.494
65561SOL     OW98579  14.346  12.530   3.786
65561SOL    HW198580  14.318  12.512   3.876
65561SOL    HW298581  14.409  12.602   3.794
65562SOL     OW98582   5.730  11.285   0.275
65562SOL    HW198583   5.643  11.249   0.260
65562SOL    HW298584   5.786  11.208   0.286
65563SOL     OW98585   4.315   5.445   3.741
65563SOL    HW198586   4.341   5.370   3.688
65563SOL    HW298587   4.290   5.512   3.678
65564SOL     OW98588  14.858  10.859  10.576
65564SOL    HW198589   0.015  10.800  10.511
65564SOL    HW298590   0.032  10.849  10.654
65565SOL     OW98591  13.256   3.263   4.276
65565SOL    HW198592  13.342   3.228   4.253
65565SOL    HW298593  13.260   3.355   4.251
65566SOL     OW98594   1.731   5.760  10.759
65566SOL    HW198595   1.806   5.813  10.730
65566SOL    HW298596   1.771   5.688  10.808
65567SOL     OW98597  11.042   2.651   1.761
65567SOL    HW198598  10.947   2.650   1.755
65567SOL    HW298599  11.065   2.744   1.758
65568SOL     OW98600  13.959   3.289  13.328
65568SOL    HW198601  14.009   3.333  13.259
65568SOL    HW298602  14.002   3.205  13.338
65569SOL     OW98603  13.888  11.057   9.971
65569SOL    HW198604  13.941  11.017   9.902
65569SOL    HW298605  13.929  11.141   9.988
65570SOL     OW98606  13.334  11.537  13.998
65570SOL    HW198607  13.284  11.617  14.012
65570SOL    HW298608  13.323  11.516  13.905
65571SOL     OW98609   5.068   4.727  12.552
65571SOL    HW198610   5.037   4.644  12.515
65571SOL    HW298611   5.034   4.794  12.493
65572SOL     OW98612  10.079  10.925  13.772
65572SOL    HW198613  10.137  10.870  13.824
65572SOL    HW298614  10.025  10.864  13.723
65573SOL     OW98615  14.123   6.505  12.810
65573SOL    HW198616  14.172   6.533  12.733
65573SOL    HW298617  14.127   6.580  12.869
65574SOL     OW98618   2.329  14.337   4.186
65574SOL    HW198619   2.297  14.257   4.228
65574SOL    HW298620   2.363  14.390   4.259
65575SOL     OW98621  10.099   4.278  11.051
65575SOL    HW198622  10.156   4.243  10.982
65575SOL    HW298623  10.140   4.250  11.133
65576SOL     OW98624   1.111  12.101   4.960
65576SOL    HW198625   1.161  12.126   4.882
65576SOL    HW298626   1.051  12.174   4.975
65577SOL     OW98627  14.240  11.290   1.508
65577SOL    HW198628  14.320  11.341   1.496
65577SOL    HW298629  14.186  11.313   1.432
65578SOL     OW98630  14.442   5.861   2.778
65578SOL    HW198631  14.538   5.855   2.779
65578SOL    HW298632  14.413   5.775   2.746
65579SOL     OW98633   8.453   4.900  12.066
65579SOL    HW198634   8.547   4.901  12.084
65579SOL    HW298635   8.413   4.878  12.150
65580SOL     OW98636  10.490   4.016   9.077
65580SOL    HW198637  10.446   3.987   9.157
65580SOL    HW298638  10.531   3.937   9.042
65581SOL     OW98639   1.070  10.884  11.288
65581SOL    HW198640   1.112  10.812  11.240
65581SOL    HW298641   1.141  10.944  11.308
65582SOL     OW98642  11.672   4.739   6.106
65582SOL    HW198643  11.681   4.644   6.113
65582SOL    HW298644  11.584   4.757   6.141
65583SOL     OW98645  14.129   6.983   7.312
65583SOL    HW198646  14.129   6.978   7.216
65583SOL    HW298647  14.067   7.053   7.332
65584SOL     OW98648   6.908   6.674   3.396
65584SOL    HW198649   7.001   6.674   3.417
65584SOL    HW298650   6.874   6.752   3.439
65585SOL     OW98651  10.200   1.248   7.504
65585SOL    HW198652  10.147   1.267   7.427
65585SOL    HW298653  10.273   1.310   7.498
65586SOL     OW98654   4.113  11.924  13.779
65586SOL    HW198655   4.037  11.957  13.731
65586SOL    HW298656   4.184  11.984  13.755
65587SOL     OW98657  14.556   9.897   1.591
65587SOL    HW198658  14.586   9.880   1.502
65587SOL    HW298659  14.471   9.940   1.580
65588SOL     OW98660   4.538  14.249   6.666
65588SOL    HW198661   4.591  14.249   6.746
65588SOL    HW298662   4.460  14.299   6.690
65589SOL     OW98663   8.233  14.269   3.477
65589SOL    HW198664   8.272  14.214   3.545
65589SOL    HW298665   8.251  14.224   3.395
65590SOL     OW98666  12.236   8.795  10.875
65590SOL    HW198667  12.226   8.740  10.953
65590SOL    HW298668  12.177   8.869  10.890
65591SOL     OW98669  11.039   8.729   7.400
65591SOL    HW198670  11.120   8.763   7.437
65591SOL    HW298671  11.013   8.659   7.460
65592SOL     OW98672  10.126  12.483   6.850
65592SOL    HW198673  10.064  12.415   6.824
65592SOL    HW298674  10.211  12.451   6.819
65593SOL     OW98675   1.167   9.173   8.914
65593SOL    HW198676   1.094   9.117   8.939
65593SOL    HW298677   1.148   9.201   8.825
65594SOL     OW98678   5.225   8.871   2.483
65594SOL    HW198679   5.177   8.896   2.405
65594SOL    HW298680   5.317   8.881   2.460
65595SOL     OW98681  13.258   5.982   1.048
65595SOL    HW198682  13.301   5.923   0.987
65595SOL    HW298683  13.216   5.924   1.112
65596SOL     OW98684   4.924  11.296   9.164
65596SOL    HW198685   4.834  11.330   9.172
65596SOL    HW298686   4.970  11.363   9.113
65597SOL     OW98687   8.259   7.216   4.609
65597SOL    HW198688   8.334   7.273   4.627
65597SOL    HW298689   8.198   7.232   4.682
65598SOL     OW98690   7.737  10.072  11.373
65598SOL    HW198691   7.786  10.061  11.455
65598SOL    HW298692   7.795  10.036  11.306
65599SOL     OW98693  13.230   8.755  12.080
65599SOL    HW198694  13.325   8.764  12.089
65599SOL    HW298695  13.193   8.808  12.150
65600SOL     OW98696  10.541   2.405   6.573
65600SOL    HW198697  10.590   2.384   6.653
65600SOL    HW298698  10.450   2.385   6.595
65601SOL     OW98699   0.157   1.765   0.559
65601SOL    HW198700   0.173   1.855   0.588
65601SOL    HW298701   0.167   1.768   0.464
65602SOL     OW98702  10.836   6.487  13.145
65602SOL    HW198703  10.903   6.465  13.210
65602SOL    HW298704  10.755   6.497  13.195
65603SOL     OW98705   5.471   6.302   6.345
65603SOL    HW198706   5.445   6.377   6.291
65603SOL    HW298707   5.389   6.262   6.371
65604SOL     OW98708   1.203  11.432  13.187
65604SOL    HW198709   1.202  11.402  13.096
65604SOL    HW298710   1.120  11.478  13.198
65605SOL     OW98711   4.403  11.810   9.776
65605SOL    HW198712   4.381  11.879   9.714
65605SOL    HW298713   4.329  11.749   9.771
65606SOL     OW98714   2.050   2.944   9.292
65606SOL    HW198715   2.014   3.005   9.227
65606SOL    HW298716   2.002   2.863   9.277
65607SOL     OW98717  11.039   9.720   1.218
65607SOL    HW198718  11.062   9.739   1.309
65607SOL    HW298719  10.967   9.657   1.224
65608SOL     OW98720  10.271  14.803   5.390
65608SOL    HW198721  10.334  14.767   5.328
65608SOL    HW298722  10.293   0.014   5.394
65609SOL     OW98723  12.163   3.968  11.367
65609SOL    HW198724  12.181   3.886  11.413
65609SOL    HW298725  12.130   3.941  11.281
65610SOL     OW98726   6.480   6.443   1.237
65610SOL    HW198727   6.459   6.384   1.165
65610SOL    HW298728   6.395   6.477   1.265
65611SOL     OW98729  14.311   3.081  14.879
65611SOL    HW198730  14.223   3.070  14.843
65611SOL    HW298731  14.369   3.053  14.809
65612SOL     OW98732   6.545   5.872   7.239
65612SOL    HW198733   6.595   5.930   7.181
65612SOL    HW298734   6.494   5.817   7.179
65613SOL     OW98735   0.633   9.324   9.942
65613SOL    HW198736   0.560   9.276   9.903
65613SOL    HW298737   0.711   9.274   9.918
65614SOL     OW98738  14.864   2.812   1.377
65614SOL    HW198739  14.808   2.792   1.452
65614SOL    HW298740   0.015   2.726   1.350
65615SOL     OW98741  11.283   4.595   1.142
65615SOL    HW198742  11.233   4.533   1.195
65615SOL    HW298743  11.250   4.681   1.168
65616SOL     OW98744  13.525   0.445   4.723
65616SOL    HW198745  13.577   0.393   4.784
65616SOL    HW298746  13.457   0.384   4.692
65617SOL     OW98747   0.750  11.534   8.628
65617SOL    HW198748   0.732  11.515   8.535
65617SOL    HW298749   0.679  11.489   8.675
65618SOL     OW98750   1.332   4.075  10.258
65618SOL    HW198751   1.250   4.058  10.304
65618SOL    HW298752   1.316   4.043  10.169
65619SOL     OW98753   8.093   3.626  14.848
65619SOL    HW198754   8.131   3.542  14.874
65619SOL    HW298755   8.110   3.684   0.040
65620SOL     OW98756   4.902  14.148   1.883
65620SOL    HW198757   4.808  14.131   1.885
65620SOL    HW298758   4.919  14.201   1.960
65621SOL     OW98759  11.624  14.441  10.502
65621SOL    HW198760  11.708  14.480  10.525
65621SOL    HW298761  11.584  14.503  10.440
65622SOL     OW98762  13.978  14.314   8.820
65622SOL    HW198763  14.047  14.378   8.840
65622SOL    HW298764  13.919  14.319   8.895
65623SOL     OW98765   7.355  11.305   1.274
65623SOL    HW198766   7.386  11.292   1.363
65623SOL    HW298767   7.434  11.297   1.220
65624SOL     OW98768   1.900   0.485   3.257
65624SOL    HW198769   1.869   0.422   3.192
65624SOL    HW298770   1.877   0.446   3.341
65625SOL     OW98771  12.836   3.561  12.955
65625SOL    HW198772  12.830   3.621  13.030
65625SOL    HW298773  12.927   3.569  12.925
65626SOL     OW98774   3.869  10.228   0.665
65626SOL    HW198775   3.934  10.171   0.623
65626SOL    HW298776   3.789  10.214   0.614
65627SOL     OW98777   8.032   8.480  12.012
65627SOL    HW198778   8.008   8.485  12.105
65627SOL    HW298779   7.952   8.504  11.965
65628SOL     OW98780  14.762   9.352   5.640
65628SOL    HW198781  14.683   9.300   5.650
65628SOL    HW298782  14.735   9.429   5.591
65629SOL     OW98783   6.686   5.701   0.956
65629SOL    HW198784   6.719   5.790   0.944
65629SOL    HW298785   6.692   5.685   1.050
65630SOL     OW98786   8.964  12.233  11.758
65630SOL    HW198787   8.931  12.258  11.844
65630SOL    HW298788   8.967  12.137  11.761
65631SOL     OW98789  12.918  13.933  10.848
65631SOL    HW198790  12.912  13.876  10.925
65631SOL    HW298791  12.961  14.012  10.880
65632SOL     OW98792   7.741  12.279   2.415
65632SOL    HW198793   7.828  12.239   2.404
65632SOL    HW298794   7.696  12.263   2.332
65633SOL     OW98795   0.643  11.265   3.049
65633SOL    HW198796   0.690  11.345   3.070
65633SOL    HW298797   0.659  11.207   3.124
65634SOL     OW98798   0.181   0.327   9.657
65634SOL    HW198799   0.095   0.296   9.687
65634SOL    HW298800   0.215   0.376   9.732
65635SOL     OW98801  11.547  12.758   7.913
65635SOL    HW198802  11.480  12.714   7.862
65635SOL    HW298803  11.606  12.796   7.849
65636SOL     OW98804   0.092  14.551   9.052
65636SOL    HW198805   0.142  14.484   9.006
65636SOL    HW298806   0.156  14.593   9.110
65637SOL     OW98807  14.706  11.875   3.459
65637SOL    HW198808  14.744  11.956   3.426
65637SOL    HW298809  14.780  11.831   3.503
65638SOL     OW98810  14.752   5.512   2.297
65638SOL    HW198811  14.674   5.562   2.324
65638SOL    HW298812  14.771   5.546   2.209
65639SOL     OW98813  12.065   1.366   0.211
65639SOL    HW198814  12.130   1.418   0.258
65639SOL    HW298815  12.055   1.287   0.265
65640SOL     OW98816   0.598   7.478   6.439
65640SOL    HW198817   0.633   7.533   6.509
65640SOL    HW298818   0.672   7.421   6.415
65641SOL     OW98819   6.450  12.933  14.394
65641SOL    HW198820   6.511  12.949  14.466
65641SOL    HW298821   6.467  12.842  14.367
65642SOL     OW98822   3.838  10.722  11.171
65642SOL    HW198823   3.843  10.733  11.266
65642SOL    HW298824   3.809  10.632  11.158
65643SOL     OW98825   2.472   0.248   5.165
65643SOL    HW198826   2.381   0.218   5.171
65643SOL    HW298827   2.512   0.217   5.247
65644SOL     OW98828   4.091   8.053   1.730
65644SOL    HW198829   4.012   8.027   1.683
65644SOL    HW298830   4.077   8.021   1.819
65645SOL     OW98831   9.716  10.003   9.076
65645SOL    HW198832   9.706  10.048   9.159
65645SOL    HW298833   9.636   9.951   9.067
65646SOL     OW98834  11.483  10.817  12.500
65646SOL    HW198835  11.428  10.776  12.566
65646SOL    HW298836  11.431  10.890  12.467
65647SOL     OW98837  10.185   9.974  11.369
65647SOL    HW198838  10.192   9.923  11.288
65647SOL    HW298839  10.092   9.974  11.390
65648SOL     OW98840   7.028   1.630   4.366
65648SOL    HW198841   7.123   1.623   4.372
65648SOL    HW298842   7.001   1.671   4.448
65649SOL     OW98843   0.948  11.868  14.188
65649SOL    HW198844   0.984  11.898  14.104
65649SOL    HW298845   0.856  11.849  14.169
65650SOL     OW98846   4.861   7.846  10.501
65650SOL    HW198847   4.778   7.798  10.503
65650SOL    HW298848   4.926   7.781  10.477
65651SOL     OW98849   8.732  11.302   3.039
65651SOL    HW198850   8.805  11.257   2.995
65651SOL    HW298851   8.684  11.232   3.082
65652SOL     OW98852   6.496   7.203   3.609
65652SOL    HW198853   6.419   7.180   3.662
65652SOL    HW298854   6.459   7.235   3.526
65653SOL     OW98855   4.722   5.066  12.670
65653SOL    HW198856   4.772   5.138  12.632
65653SOL    HW298857   4.781   5.028  12.736
65654SOL     OW98858   7.671   3.575   5.515
65654SOL    HW198859   7.587   3.546   5.550
65654SOL    HW298860   7.730   3.501   5.528
65655SOL     OW98861   0.497   7.081  10.459
65655SOL    HW198862   0.581   7.095  10.415
65655SOL    HW298863   0.521   7.049  10.546
65656SOL     OW98864   1.684  10.734   0.808
65656SOL    HW198865   1.745  10.728   0.882
65656SOL    HW298866   1.718  10.806   0.755
65657SOL     OW98867   0.328   0.133   9.962
65657SOL    HW198868   0.272   0.182  10.022
65657SOL    HW298869   0.416   0.142   9.999
65658SOL     OW98870  10.371  13.442   9.852
65658SOL    HW198871  10.383  13.451   9.947
65658SOL    HW298872  10.321  13.519   9.827
65659SOL     OW98873   9.996   0.873   5.031
65659SOL    HW198874   9.999   0.901   4.940
65659SOL    HW298875   9.983   0.778   5.027
65660SOL     OW98876   0.129  10.704  12.293
65660SOL    HW198877   0.042  10.682  12.329
65660SOL    HW298878   0.189  10.645  12.339
65661SOL     OW98879  10.102  11.024   2.302
65661SOL    HW198880  10.133  10.966   2.233
65661SOL    HW298881  10.158  11.004   2.377
65662SOL     OW98882  12.903   0.209  10.608
65662SOL    HW198883  12.903   0.227  10.702
65662SOL    HW298884  12.994   0.185  10.588
65663SOL     OW98885  12.639   8.040   5.126
65663SOL    HW198886  12.718   7.987   5.119
65663SOL    HW298887  12.571   7.976   5.150
65664SOL     OW98888   3.244   0.139   7.994
65664SOL    HW198889   3.192   0.131   8.074
65664SOL    HW298890   3.329   0.172   8.025
65665SOL     OW98891   0.207  14.265  13.101
65665SOL    HW198892   0.264  14.338  13.076
65665SOL    HW298893   0.172  14.291  13.186
65666SOL     OW98894   2.061  12.955  13.479
65666SOL    HW198895   2.130  12.942  13.545
65666SOL    HW298896   2.050  13.050  13.476
65667SOL     OW98897   3.235   1.700  11.590
65667SOL    HW198898   3.314   1.705  11.644
65667SOL    HW298899   3.183   1.776  11.617
65668SOL     OW98900  12.730   7.124   9.828
65668SOL    HW198901  12.635   7.132   9.830
65668SOL    HW298902  12.758   7.141   9.918
65669SOL     OW98903  12.425   4.908  10.479
65669SOL    HW198904  12.334   4.902  10.508
65669SOL    HW298905  12.421   4.883  10.386
65670SOL     OW98906   5.026  11.672   7.670
65670SOL    HW198907   5.026  11.653   7.576
65670SOL    HW298908   5.114  11.704   7.688
65671SOL     OW98909   5.919   0.476   5.183
65671SOL    HW198910   5.908   0.384   5.207
65671SOL    HW298911   5.916   0.477   5.087
65672SOL     OW98912  11.106   9.377  14.786
65672SOL    HW198913  11.027   9.348  14.832
65672SOL    HW298914  11.156   9.425  14.851
65673SOL     OW98915  12.484  10.620  14.038
65673SOL    HW198916  12.406  10.568  14.019
65673SOL    HW298917  12.556  10.572  13.996
65674SOL     OW98918   2.593  11.214   3.999
65674SOL    HW198919   2.612  11.164   3.920
65674SOL    HW298920   2.609  11.153   4.070
65675SOL     OW98921   2.189   2.571   5.594
65675SOL    HW198922   2.141   2.625   5.531
65675SOL    HW298923   2.177   2.616   5.678
65676SOL     OW98924   0.179  11.747  14.353
65676SOL    HW198925   0.167  11.734  14.258
65676SOL    HW298926   0.093  11.727  14.391
65677SOL     OW98927  14.555   3.356   5.968
65677SOL    HW198928  14.470   3.390   5.942
65677SOL    HW298929  14.543   3.326   6.058
65678SOL     OW98930  10.536   3.107   8.234
65678SOL    HW198931  10.521   3.028   8.182
65678SOL    HW298932  10.546   3.177   8.169
65679SOL     OW98933  10.219   5.277   9.185
65679SOL    HW198934  10.178   5.352   9.141
65679SOL    HW298935  10.199   5.290   9.278
65680SOL     OW98936  12.136   5.816   2.580
65680SOL    HW198937  12.212   5.831   2.636
65680SOL    HW298938  12.171   5.772   2.503
65681SOL     OW98939   8.577   4.227   5.002
65681SOL    HW198940   8.658   4.235   4.951
65681SOL    HW298941   8.554   4.134   4.996
65682SOL     OW98942   1.785   5.759   6.268
65682SOL    HW198943   1.864   5.785   6.317
65682SOL    HW298944   1.819   5.716   6.189
65683SOL     OW98945   9.965  13.743   0.011
65683SOL    HW198946  10.039  13.708  14.843
65683SOL    HW298947  10.002  13.819   0.057
65684SOL     OW98948   8.243   2.710  11.796
65684SOL    HW198949   8.295   2.747  11.724
65684SOL    HW298950   8.292   2.632  11.823
65685SOL     OW98951   0.052   0.437   0.951
65685SOL    HW198952   0.044   0.434   0.856
65685SOL    HW298953   0.128   0.493   0.967
65686SOL     OW98954   3.178   1.058  12.345
65686SOL    HW198955   3.270   1.047  12.370
65686SOL    HW298956   3.155   0.975  12.303
65687SOL     OW98957   1.504  14.094   2.622
65687SOL    HW198958   1.539  14.176   2.586
65687SOL    HW298959   1.564  14.026   2.592
65688SOL     OW98960  11.042   7.943   0.941
65688SOL    HW198961  11.078   7.966   0.855
65688SOL    HW298962  11.061   7.849   0.951
65689SOL     OW98963   7.305   9.320   6.596
65689SOL    HW198964   7.231   9.378   6.616
65689SOL    HW298965   7.265   9.235   6.579
65690SOL     OW98966   7.847   7.014  13.504
65690SOL    HW198967   7.791   7.073  13.554
65690SOL    HW298968   7.892   7.070  13.441
65691SOL     OW98969   6.989   6.128  11.181
65691SOL    HW198970   6.959   6.160  11.266
65691SOL    HW298971   7.066   6.180  11.161
65692SOL     OW98972   1.958   0.490  14.506
65692SOL    HW198973   1.996   0.408  14.538
65692SOL    HW298974   2.023   0.557  14.530
65693SOL     OW98975  10.997   3.966   7.536
65693SOL    HW198976  10.911   3.998   7.564
65693SOL    HW298977  10.981   3.878   7.504
65694SOL     OW98978  10.484   5.250   9.949
65694SOL    HW198979  10.452   5.233  10.037
65694SOL    HW298980  10.578   5.232   9.954
65695SOL     OW98981   4.801  14.287  13.405
65695SOL    HW198982   4.879  14.271  13.457
65695SOL    HW298983   4.730  14.295  13.469
65696SOL     OW98984  12.881  10.649   7.744
65696SOL    HW198985  12.887  10.558   7.716
65696SOL    HW298986  12.931  10.652   7.826
65697SOL     OW98987   1.146   6.157   7.580
65697SOL    HW198988   1.165   6.211   7.657
65697SOL    HW298989   1.144   6.068   7.613
65698SOL     OW98990   8.370   0.780  14.551
65698SOL    HW198991   8.411   0.727  14.483
65698SOL    HW298992   8.327   0.851  14.503
65699SOL     OW98993  13.123   6.130  12.312
65699SOL    HW198994  13.066   6.055  12.296
65699SOL    HW298995  13.165   6.111  12.396
65700SOL     OW98996   6.507   4.542   1.123
65700SOL    HW198997   6.547   4.503   1.201
65700SOL    HW298998   6.580   4.587   1.080
65701SOL     OW98999   8.898  13.547   4.583
65701SOL    HW199000   8.879  13.634   4.549
65701SOL    HW299001   8.890  13.490   4.506
65702SOL     OW99002  14.706   7.785   6.344
65702SOL    HW199003  14.711   7.870   6.301
65702SOL    HW299004  14.623   7.787   6.392
65703SOL     OW99005   2.198   5.836   9.672
65703SOL    HW199006   2.171   5.820   9.581
65703SOL    HW299007   2.123   5.881   9.712
65704SOL     OW99008   4.134  11.695   5.036
65704SOL    HW199009   4.172  11.623   4.986
65704SOL    HW299010   4.079  11.741   4.972
65705SOL     OW99011   0.390   5.657   7.408
65705SOL    HW199012   0.441   5.661   7.327
65705SOL    HW299013   0.449   5.694   7.474
65706SOL     OW99014   7.652   1.084   6.669
65706SOL    HW199015   7.694   1.125   6.593
65706SOL    HW299016   7.721   1.076   6.734
65707SOL     OW99017   4.128   2.897   2.657
65707SOL    HW199018   4.223   2.905   2.644
65707SOL    HW299019   4.090   2.936   2.579
65708SOL     OW99020   2.032   3.328  13.775
65708SOL    HW199021   2.092   3.304  13.705
65708SOL    HW299022   1.954   3.276  13.760
65709SOL     OW99023   4.334  11.163   5.448
65709SOL    HW199024   4.366  11.099   5.512
65709SOL    HW299025   4.294  11.232   5.502
65710SOL     OW99026   2.147   3.086   1.872
65710SOL    HW199027   2.115   3.058   1.786
65710SOL    HW299028   2.070   3.121   1.916
65711SOL     OW99029   7.755   3.650  10.781
65711SOL    HW199030   7.808   3.699  10.719
65711SOL    HW299031   7.721   3.576  10.730
65712SOL     OW99032   6.773   2.304   5.173
65712SOL    HW199033   6.715   2.333   5.243
65712SOL    HW299034   6.737   2.344   5.094
65713SOL     OW99035   6.846  12.280  11.875
65713SOL    HW199036   6.806  12.362  11.905
65713SOL    HW299037   6.779  12.214  11.890
65714SOL     OW99038  13.227   1.706   5.083
65714SOL    HW199039  13.288   1.661   5.024
65714SOL    HW299040  13.281   1.767   5.133
65715SOL     OW99041   3.154  11.283   9.426
65715SOL    HW199042   3.216  11.236   9.482
65715SOL    HW299043   3.074  11.289   9.479
65716SOL     OW99044   0.502   8.161  11.084
65716SOL    HW199045   0.587   8.169  11.127
65716SOL    HW299046   0.504   8.075  11.043
65717SOL     OW99047  13.495   0.809  14.124
65717SOL    HW199048  13.527   0.759  14.199
65717SOL    HW299049  13.401   0.789  14.121
65718SOL     OW99050   4.270  13.467   6.101
65718SOL    HW199051   4.217  13.430   6.031
65718SOL    HW299052   4.286  13.394   6.161
65719SOL     OW99053   2.713   3.747   0.531
65719SOL    HW199054   2.661   3.726   0.608
65719SOL    HW299055   2.804   3.744   0.561
65720SOL     OW99056   0.122  10.991   7.253
65720SOL    HW199057   0.118  10.904   7.213
65720SOL    HW299058   0.206  10.993   7.298
65721SOL     OW99059   7.336  11.274  10.757
65721SOL    HW199060   7.322  11.361  10.718
65721SOL    HW299061   7.322  11.287  10.850
65722SOL     OW99062  12.490  10.482   1.131
65722SOL    HW199063  12.434  10.444   1.063
65722SOL    HW299064  12.489  10.576   1.113
65723SOL     OW99065  13.992   8.164  12.558
65723SOL    HW199066  13.965   8.099  12.623
65723SOL    HW299067  14.084   8.180  12.576
65724SOL     OW99068  11.474   8.051   9.024
65724SOL    HW199069  11.501   8.137   8.991
65724SOL    HW299070  11.392   8.033   8.977
65725SOL     OW99071  13.609   7.586   9.411
65725SOL    HW199072  13.651   7.653   9.464
65725SOL    HW299073  13.519   7.618   9.400
65726SOL     OW99074   6.850   1.481  10.481
65726SOL    HW199075   6.787   1.430  10.532
65726SOL    HW299076   6.923   1.421  10.467
65727SOL     OW99077   9.835   3.825  12.838
65727SOL    HW199078   9.909   3.880  12.811
65727SOL    HW299079   9.859   3.737  12.808
65728SOL     OW99080   0.132  12.431   3.639
65728SOL    HW199081   0.078  12.491   3.690
65728SOL    HW299082   0.217  12.432   3.682
65729SOL     OW99083   7.104   7.739  13.255
65729SOL    HW199084   7.074   7.671  13.196
65729SOL    HW299085   7.026   7.793  13.272
65730SOL     OW99086   7.134  11.701  12.207
65730SOL    HW199087   7.220  11.659  12.206
65730SOL    HW299088   7.109  11.704  12.299
65731SOL     OW99089  10.587   8.553   8.342
65731SOL    HW199090  10.567   8.476   8.289
65731SOL    HW299091  10.639   8.520   8.415
65732SOL     OW99092  10.229   4.770   5.207
65732SOL    HW199093  10.304   4.822   5.234
65732SOL    HW299094  10.190   4.819   5.134
65733SOL     OW99095   1.970   5.466   6.299
65733SOL    HW199096   1.990   5.388   6.247
65733SOL    HW299097   1.942   5.531   6.234
65734SOL     OW99098   2.197   4.016   8.265
65734SOL    HW199099   2.103   4.009   8.249
65734SOL    HW299100   2.211   4.108   8.288
65735SOL     OW99101   8.672   1.127   6.827
65735SOL    HW199102   8.630   1.131   6.913
65735SOL    HW299103   8.751   1.075   6.841
65736SOL     OW99104   0.521  12.828  12.857
65736SOL    HW199105   0.568  12.874  12.927
65736SOL    HW299106   0.460  12.893  12.822
65737SOL     OW99107   0.689  10.975   7.297
65737SOL    HW199108   0.743  11.025   7.358
65737SOL    HW299109   0.751  10.940   7.233
65738SOL     OW99110  10.702   7.687   0.093
65738SOL    HW199111  10.727   7.751   0.026
65738SOL    HW299112  10.627   7.641   0.056
65739SOL     OW99113   5.200  10.708   9.044
65739SOL    HW199114   5.280  10.692   8.994
65739SOL    HW299115   5.148  10.629   9.033
65740SOL     OW99116   5.769  11.069  10.164
65740SOL    HW199117   5.730  10.987  10.196
65740SOL    HW299118   5.707  11.100  10.097
65741SOL     OW99119   0.927   7.538   8.552
65741SOL    HW199120   0.970   7.509   8.633
65741SOL    HW299121   0.934   7.462   8.494
65742SOL     OW99122  14.865   5.791  10.296
65742SOL    HW199123  14.794   5.778  10.234
65742SOL    HW299124   0.023   5.704  10.305
65743SOL     OW99125   9.301  10.654  10.042
65743SOL    HW199126   9.335  10.580  10.092
65743SOL    HW299127   9.220  10.623  10.003
65744SOL     OW99128   5.012  10.217   5.743
65744SOL    HW199129   5.018  10.147   5.678
65744SOL    HW299130   4.949  10.185   5.807
65745SOL     OW99131   6.066   9.508   3.660
65745SOL    HW199132   6.032   9.592   3.691
65745SOL    HW299133   5.991   9.449   3.661
65746SOL     OW99134   9.607   2.578  10.006
65746SOL    HW199135   9.605   2.621  10.092
65746SOL    HW299136   9.590   2.486  10.024
65747SOL     OW99137   7.904  12.185  12.439
65747SOL    HW199138   7.830  12.124  12.446
65747SOL    HW299139   7.885  12.235  12.360
65748SOL     OW99140   1.227  12.734   4.034
65748SOL    HW199141   1.142  12.774   4.016
65748SOL    HW299142   1.235  12.737   4.129
65749SOL     OW99143  12.110  11.392  10.328
65749SOL    HW199144  12.063  11.322  10.375
65749SOL    HW299145  12.043  11.457  10.309
65750SOL     OW99146   6.854  11.822  13.887
65750SOL    HW199147   6.917  11.845  13.954
65750SOL    HW299148   6.900  11.761  13.830
65751SOL     OW99149   1.312   1.638   7.121
65751SOL    HW199150   1.397   1.653   7.079
65751SOL    HW299151   1.332   1.639   7.215
65752SOL     OW99152   6.722   4.012  12.009
65752SOL    HW199153   6.731   3.991  12.102
65752SOL    HW299154   6.628   4.024  11.996
65753SOL     OW99155   2.978   7.415  10.160
65753SOL    HW199156   2.966   7.320  10.160
65753SOL    HW299157   3.073   7.427  10.163
65754SOL     OW99158   6.256  13.673   6.250
65754SOL    HW199159   6.350  13.688   6.265
65754SOL    HW299160   6.227  13.750   6.202
65755SOL     OW99161  13.012  13.261   3.278
65755SOL    HW199162  13.041  13.352   3.283
65755SOL    HW299163  13.086  13.214   3.239
65756SOL     OW99164  10.713   5.339   7.497
65756SOL    HW199165  10.657   5.415   7.490
65756SOL    HW299166  10.661   5.274   7.545
65757SOL     OW99167   6.511   7.778   6.983
65757SOL    HW199168   6.487   7.691   6.949
65757SOL    HW299169   6.602   7.768   7.011
65758SOL     OW99170   3.083  12.638   3.558
65758SOL    HW199171   3.153  12.653   3.621
65758SOL    HW299172   3.126  12.592   3.486
65759SOL     OW99173   0.997   7.712  12.803
65759SOL    HW199174   0.945   7.685  12.728
65759SOL    HW299175   1.072   7.758  12.766
65760SOL     OW99176   4.437   7.914  14.728
65760SOL    HW199177   4.510   7.877  14.678
65760SOL    HW299178   4.418   7.847  14.794
65761SOL     OW99179  11.379   7.021   1.750
65761SOL    HW199180  11.471   7.047   1.761
65761SOL    HW299181  11.383   6.948   1.688
65762SOL     OW99182   4.346  11.914   0.684
65762SOL    HW199183   4.397  11.915   0.765
65762SOL    HW299184   4.311  11.825   0.679
65763SOL     OW99185   1.165   9.497   8.232
65763SOL    HW199186   1.251   9.533   8.254
65763SOL    HW299187   1.184   9.423   8.174
65764SOL     OW99188   1.041  10.519   8.840
65764SOL    HW199189   1.041  10.608   8.804
65764SOL    HW299190   1.089  10.468   8.775
65765SOL     OW99191   8.712  10.745   8.480
65765SOL    HW199192   8.807  10.754   8.485
65765SOL    HW299193   8.684  10.817   8.423
65766SOL     OW99194  10.983   9.748   3.044
65766SOL    HW199195  11.061   9.749   3.100
65766SOL    HW299196  10.950   9.837   3.047
65767SOL     OW99197   4.209   3.831   2.340
65767SOL    HW199198   4.173   3.915   2.370
65767SOL    HW299199   4.213   3.777   2.418
65768SOL     OW99200   7.394   1.106   6.126
65768SOL    HW199201   7.402   1.155   6.044
65768SOL    HW299202   7.307   1.067   6.123
65769SOL     OW99203   3.639  12.531  12.082
65769SOL    HW199204   3.603  12.506  12.168
65769SOL    HW299205   3.696  12.605  12.101
65770SOL     OW99206  12.677   9.005  11.877
65770SOL    HW199207  12.600   9.062  11.882
65770SOL    HW299208  12.645   8.919  11.902
65771SOL     OW99209  13.071  13.327   7.816
65771SOL    HW199210  13.052  13.407   7.864
65771SOL    HW299211  13.015  13.261   7.857
65772SOL     OW99212   1.004   1.406   4.942
65772SOL    HW199213   1.065   1.370   5.006
65772SOL    HW299214   0.932   1.343   4.938
65773SOL     OW99215   4.768   7.862   9.646
65773SOL    HW199216   4.785   7.956   9.639
65773SOL    HW299217   4.835   7.822   9.591
65774SOL     OW99218   3.846   1.155   9.757
65774SOL    HW199219   3.799   1.179   9.837
65774SOL    HW299220   3.825   1.224   9.695
65775SOL     OW99221   3.094   2.709  11.646
65775SOL    HW199222   3.154   2.654  11.596
65775SOL    HW299223   3.114   2.799  11.617
65776SOL     OW99224  12.425   7.519   4.557
65776SOL    HW199225  12.515   7.488   4.546
65776SOL    HW299226  12.425   7.606   4.516
65777SOL     OW99227   5.993  13.722   4.459
65777SOL    HW199228   5.954  13.787   4.518
65777SOL    HW299229   5.979  13.757   4.371
65778SOL     OW99230  10.572   5.856   5.329
65778SOL    HW199231  10.486   5.859   5.287
65778SOL    HW299232  10.555   5.832   5.420
65779SOL     OW99233   3.323   8.735   1.913
65779SOL    HW199234   3.290   8.647   1.900
65779SOL    HW299235   3.356   8.736   2.003
65780SOL     OW99236   3.404  10.540   0.621
65780SOL    HW199237   3.376  10.542   0.530
65780SOL    HW299238   3.331  10.580   0.669
65781SOL     OW99239   0.465   0.553   7.554
65781SOL    HW199240   0.445   0.616   7.484
65781SOL    HW299241   0.385   0.549   7.606
65782SOL     OW99242   6.882   4.491   4.661
65782SOL    HW199243   6.891   4.563   4.723
65782SOL    HW299244   6.940   4.513   4.589
65783SOL     OW99245   6.619  10.420   5.224
65783SOL    HW199246   6.600  10.482   5.155
65783SOL    HW299247   6.584  10.337   5.192
65784SOL     OW99248  13.347   3.196   3.286
65784SOL    HW199249  13.256   3.224   3.298
65784SOL    HW299250  13.353   3.173   3.193
65785SOL     OW99251   0.275  11.182   1.997
65785SOL    HW199252   0.344  11.166   2.061
65785SOL    HW299253   0.229  11.099   1.989
65786SOL     OW99254   5.986   1.382   8.010
65786SOL    HW199255   5.991   1.375   7.914
65786SOL    HW299256   6.076   1.370   8.040
65787SOL     OW99257  10.771   4.214   6.538
65787SOL    HW199258  10.781   4.249   6.627
65787SOL    HW299259  10.686   4.246   6.510
65788SOL     OW99260  12.628   1.914   1.643
65788SOL    HW199261  12.699   1.882   1.588
65788SOL    HW299262  12.648   2.007   1.656
65789SOL     OW99263   9.916  11.623   8.162
65789SOL    HW199264   9.906  11.652   8.071
65789SOL    HW299265  10.002  11.656   8.189
65790SOL     OW99266  10.136   6.316   5.545
65790SOL    HW199267  10.117   6.341   5.454
65790SOL    HW299268  10.206   6.251   5.538
65791SOL     OW99269   8.354   5.107   2.913
65791SOL    HW199270   8.318   5.026   2.876
65791SOL    HW299271   8.289   5.174   2.893
65792SOL     OW99272   4.573   3.283  11.425
65792SOL    HW199273   4.641   3.246  11.370
65792SOL    HW299274   4.614   3.293  11.511
65793SOL     OW99275   3.040   0.284  13.547
65793SOL    HW199276   3.127   0.306  13.581
65793SOL    HW299277   2.979   0.323  13.608
65794SOL     OW99278   1.648   0.881   5.689
65794SOL    HW199279   1.701   0.961   5.693
65794SOL    HW299280   1.704   0.818   5.644
65795SOL     OW99281   6.659   4.954  11.361
65795SOL    HW199282   6.713   4.875  11.368
65795SOL    HW299283   6.723   5.026  11.353
65796SOL     OW99284  11.955   4.119   8.874
65796SOL    HW199285  11.944   4.166   8.791
65796SOL    HW299286  11.962   4.027   8.848
65797SOL     OW99287  13.395  14.515   2.207
65797SOL    HW199288  13.458  14.585   2.221
65797SOL    HW299289  13.315  14.559   2.177
65798SOL     OW99290  12.319   6.607   0.845
65798SOL    HW199291  12.394   6.548   0.850
65798SOL    HW299292  12.342   6.679   0.904
65799SOL     OW99293   7.820   6.181   9.785
65799SOL    HW199294   7.860   6.229   9.857
65799SOL    HW299295   7.841   6.233   9.707
65800SOL     OW99296  10.933   7.128   5.857
65800SOL    HW199297  10.905   7.083   5.937
65800SOL    HW299298  10.882   7.087   5.787
65801SOL     OW99299   1.790   4.019   3.657
65801SOL    HW199300   1.782   4.114   3.658
65801SOL    HW299301   1.700   3.987   3.657
65802SOL     OW99302   1.672   1.661  12.845
65802SOL    HW199303   1.670   1.755  12.826
65802SOL    HW299304   1.744   1.628  12.790
65803SOL     OW99305   5.038   6.737  12.774
65803SOL    HW199306   5.002   6.714  12.688
65803SOL    HW299307   5.131   6.714  12.768
65804SOL     OW99308   2.183  11.934   0.928
65804SOL    HW199309   2.117  11.974   0.871
65804SOL    HW299310   2.142  11.852   0.958
65805SOL     OW99311  13.646   1.399   5.817
65805SOL    HW199312  13.711   1.335   5.848
65805SOL    HW299313  13.689   1.484   5.826
65806SOL     OW99314   7.430   7.470  13.581
65806SOL    HW199315   7.366   7.539  13.598
65806SOL    HW299316   7.380   7.401  13.536
65807SOL     OW99317   0.368   1.070  10.726
65807SOL    HW199318   0.423   1.104  10.656
65807SOL    HW299319   0.380   0.975  10.724
65808SOL     OW99320  13.934  12.539  13.716
65808SOL    HW199321  13.905  12.615  13.767
65808SOL    HW299322  14.026  12.557  13.697
65809SOL     OW99323   6.070   4.714   3.913
65809SOL    HW199324   6.019   4.669   3.981
65809SOL    HW299325   6.146   4.657   3.899
65810SOL     OW99326   3.302   1.607   9.522
65810SOL    HW199327   3.292   1.519   9.485
65810SOL    HW299328   3.248   1.606   9.601
65811SOL     OW99329  10.499   0.027  13.391
65811SOL    HW199330  10.453   0.111  13.389
65811SOL    HW299331  10.512   0.005  13.298
65812SOL     OW99332  13.622   7.087  12.724
65812SOL    HW199333  13.668   7.152  12.671
65812SOL    HW299334  13.529   7.109  12.714
65813SOL     OW99335  10.037   1.438   6.100
65813SOL    HW199336  10.026   1.516   6.154
65813SOL    HW299337  10.131   1.420   6.102
65814SOL     OW99338  10.609   6.179   7.391
65814SOL    HW199339  10.521   6.149   7.414
65814SOL    HW299340  10.601   6.274   7.385
65815SOL     OW99341   6.315   2.130  13.865
65815SOL    HW199342   6.336   2.151  13.956
65815SOL    HW299343   6.310   2.034  13.864
65816SOL     OW99344   1.459   1.284   7.146
65816SOL    HW199345   1.377   1.330   7.165
65816SOL    HW299346   1.459   1.273   7.051
65817SOL     OW99347   2.554   8.067  12.703
65817SOL    HW199348   2.648   8.060  12.720
65817SOL    HW299349   2.520   8.115  12.778
65818SOL     OW99350   8.265   1.413   9.486
65818SOL    HW199351   8.279   1.439   9.395
65818SOL    HW299352   8.301   1.486   9.537
65819SOL     OW99353   4.971  10.861  11.630
65819SOL    HW199354   4.958  10.780  11.581
65819SOL    HW299355   5.021  10.917  11.571
65820SOL     OW99356   0.817   6.640   0.665
65820SOL    HW199357   0.783   6.554   0.691
65820SOL    HW299358   0.844   6.681   0.747
65821SOL     OW99359   1.899   7.152   7.687
65821SOL    HW199360   1.965   7.113   7.630
65821SOL    HW299361   1.911   7.246   7.677
65822SOL     OW99362   0.040  13.312   2.463
65822SOL    HW199363   0.100  13.329   2.390
65822SOL    HW299364  14.838  13.347   2.433
65823SOL     OW99365  10.636  13.016   6.325
65823SOL    HW199366  10.546  13.034   6.300
65823SOL    HW299367  10.630  12.943   6.386
65824SOL     OW99368   3.212   2.243   8.093
65824SOL    HW199369   3.217   2.159   8.137
65824SOL    HW299370   3.203   2.307   8.164
65825SOL     OW99371   6.525  10.116  14.469
65825SOL    HW199372   6.518  10.047  14.403
65825SOL    HW299373   6.435  10.138  14.490
65826SOL     OW99374   4.570   2.473   7.642
65826SOL    HW199375   4.644   2.435   7.688
65826SOL    HW299376   4.527   2.399   7.599
65827SOL     OW99377   8.249   0.492   1.826
65827SOL    HW199378   8.229   0.461   1.914
65827SOL    HW299379   8.323   0.438   1.797
65828SOL     OW99380   5.417   4.904   1.270
65828SOL    HW199381   5.379   4.851   1.200
65828SOL    HW299382   5.342   4.930   1.323
65829SOL     OW99383  11.099  11.067  10.725
65829SOL    HW199384  11.048  11.131  10.774
65829SOL    HW299385  11.035  11.023  10.668
65830SOL     OW99386   7.141  11.044   9.734
65830SOL    HW199387   7.236  11.039   9.728
65830SOL    HW299388   7.124  11.124   9.784
65831SOL     OW99389   1.261   0.806  10.323
65831SOL    HW199390   1.274   0.899  10.340
65831SOL    HW299391   1.196   0.804  10.253
65832SOL     OW99392   6.294  13.567  12.454
65832SOL    HW199393   6.212  13.600  12.417
65832SOL    HW299394   6.300  13.477  12.422
65833SOL     OW99395   4.884   2.672   5.370
65833SOL    HW199396   4.900   2.755   5.414
65833SOL    HW299397   4.950   2.668   5.301
65834SOL     OW99398  14.384   1.904  10.038
65834SOL    HW199399  14.340   1.946  10.112
65834SOL    HW299400  14.474   1.936  10.043
65835SOL     OW99401  13.506  11.559   1.258
65835SOL    HW199402  13.534  11.645   1.224
65835SOL    HW299403  13.471  11.578   1.345
65836SOL     OW99404   6.232  10.458   8.750
65836SOL    HW199405   6.308  10.511   8.725
65836SOL    HW299406   6.197  10.426   8.666
65837SOL     OW99407  14.570   8.016   1.056
65837SOL    HW199408  14.475   8.014   1.039
65837SOL    HW299409  14.592   8.109   1.051
65838SOL     OW99410   5.509  14.369   3.789
65838SOL    HW199411   5.445  14.393   3.855
65838SOL    HW299412   5.585  14.423   3.808
65839SOL     OW99413   1.370   4.339   3.752
65839SOL    HW199414   1.370   4.265   3.812
65839SOL    HW299415   1.351   4.301   3.666
65840SOL     OW99416   1.885  14.017  13.465
65840SOL    HW199417   1.875  13.995  13.557
65840SOL    HW299418   1.893  14.113  13.464
65841SOL     OW99419   9.959   4.316  12.866
65841SOL    HW199420  10.045   4.358  12.875
65841SOL    HW299421   9.928   4.343  12.780
65842SOL     OW99422  11.525  10.255   1.287
65842SOL    HW199423  11.536  10.302   1.204
65842SOL    HW299424  11.606  10.206   1.298
65843SOL     OW99425   6.885   0.598  13.945
65843SOL    HW199426   6.951   0.614  14.013
65843SOL    HW299427   6.808   0.647  13.975
65844SOL     OW99428   5.617  12.148   8.688
65844SOL    HW199429   5.701  12.109   8.712
65844SOL    HW299430   5.634  12.193   8.605
65845SOL     OW99431  13.761  13.073  13.227
65845SOL    HW199432  13.700  13.007  13.260
65845SOL    HW299433  13.834  13.023  13.192
65846SOL     OW99434   5.939  12.704   2.123
65846SOL    HW199435   6.023  12.659   2.121
65846SOL    HW299436   5.950  12.776   2.185
65847SOL     OW99437   2.212  13.187   0.092
65847SOL    HW199438   2.298  13.163   0.127
65847SOL    HW299439   2.231  13.227   0.007
65848SOL     OW99440   6.242  14.128   3.354
65848SOL    HW199441   6.246  14.220   3.328
65848SOL    HW299442   6.300  14.082   3.294
65849SOL     OW99443   1.313  13.463   2.129
65849SOL    HW199444   1.315  13.408   2.051
65849SOL    HW299445   1.241  13.524   2.113
65850SOL     OW99446   3.262  13.424   9.497
65850SOL    HW199447   3.191  13.420   9.561
65850SOL    HW299448   3.342  13.422   9.549
65851SOL     OW99449   2.118   1.100   3.595
65851SOL    HW199450   2.115   1.023   3.538
65851SOL    HW299451   2.041   1.151   3.572
65852SOL     OW99452  12.284   0.342  14.756
65852SOL    HW199453  12.220   0.413  14.760
65852SOL    HW299454  12.353   0.374  14.697
65853SOL     OW99455  10.665   0.267  10.814
65853SOL    HW199456  10.716   0.248  10.892
65853SOL    HW299457  10.695   0.354  10.786
65854SOL     OW99458   7.666   4.661   8.485
65854SOL    HW199459   7.587   4.680   8.434
65854SOL    HW299460   7.729   4.629   8.421
65855SOL     OW99461  10.218   8.766   0.971
65855SOL    HW199462  10.303   8.784   1.012
65855SOL    HW299463  10.237   8.764   0.877
65856SOL     OW99464  12.924   7.957   9.956
65856SOL    HW199465  12.982   7.976  10.029
65856SOL    HW299466  12.930   8.034   9.900
65857SOL     OW99467  14.329  11.388  13.415
65857SOL    HW199468  14.418  11.418  13.435
65857SOL    HW299469  14.310  11.425  13.328
65858SOL     OW99470  11.795   5.323  11.075
65858SOL    HW199471  11.731   5.270  11.027
65858SOL    HW299472  11.743   5.396  11.110
65859SOL     OW99473   9.560   9.756   4.033
65859SOL    HW199474   9.587   9.707   3.956
65859SOL    HW299475   9.468   9.779   4.016
65860SOL     OW99476   7.120   0.845   9.021
65860SOL    HW199477   7.065   0.807   9.090
65860SOL    HW299478   7.078   0.818   8.940
65861SOL     OW99479   7.960   6.188  12.046
65861SOL    HW199480   7.992   6.101  12.070
65861SOL    HW299481   7.917   6.220  12.125
65862SOL     OW99482  12.054  13.066  10.797
65862SOL    HW199483  12.025  13.157  10.794
65862SOL    HW299484  12.149  13.072  10.809
65863SOL     OW99485   5.608  11.521  14.461
65863SOL    HW199486   5.647  11.456  14.403
65863SOL    HW299487   5.577  11.471  14.537
65864SOL     OW99488   8.719   6.431   7.155
65864SOL    HW199489   8.805   6.390   7.148
65864SOL    HW299490   8.734   6.514   7.200
65865SOL     OW99491  14.473   0.349   0.208
65865SOL    HW199492  14.393   0.401   0.217
65865SOL    HW299493  14.493   0.353   0.114
65866SOL     OW99494  10.970   1.256  14.023
65866SOL    HW199495  11.029   1.261  13.948
65866SOL    HW299496  10.883   1.273  13.987
65867SOL     OW99497   5.607   5.518   6.021
65867SOL    HW199498   5.618   5.523   5.926
65867SOL    HW299499   5.649   5.435   6.045
65868SOL     OW99500  11.784   4.157  14.713
65868SOL    HW199501  11.825   4.210  14.782
65868SOL    HW299502  11.790   4.211  14.635
65869SOL     OW99503   9.742   1.501  12.536
65869SOL    HW199504   9.755   1.507  12.442
65869SOL    HW299505   9.667   1.443  12.547
65870SOL     OW99506   5.851  10.297   6.906
65870SOL    HW199507   5.827  10.243   6.832
65870SOL    HW299508   5.878  10.235   6.974
65871SOL     OW99509   9.609   3.033   0.442
65871SOL    HW199510   9.597   3.109   0.385
65871SOL    HW299511   9.609   3.070   0.531
65872SOL     OW99512   9.522   0.289  13.387
65872SOL    HW199513   9.512   0.254  13.476
65872SOL    HW299514   9.467   0.368  13.386
65873SOL     OW99515   9.542   6.198  11.708
65873SOL    HW199516   9.507   6.230  11.625
65873SOL    HW299517   9.520   6.105  11.709
65874SOL     OW99518  14.073  11.457   9.090
65874SOL    HW199519  14.119  11.473   9.008
65874SOL    HW299520  14.102  11.369   9.117
65875SOL     OW99521   4.111   4.840  14.611
65875SOL    HW199522   4.176   4.837  14.540
65875SOL    HW299523   4.065   4.756  14.605
65876SOL     OW99524  14.246   4.126   4.670
65876SOL    HW199525  14.240   4.220   4.655
65876SOL    HW299526  14.303   4.117   4.746
65877SOL     OW99527  13.643  14.594  10.113
65877SOL    HW199528  13.658  14.510  10.156
65877SOL    HW299529  13.600  14.648  10.179
65878SOL     OW99530   0.850   5.088   8.691
65878SOL    HW199531   0.908   5.036   8.745
65878SOL    HW299532   0.763   5.074   8.729
65879SOL     OW99533   4.946   6.542   6.663
65879SOL    HW199534   4.973   6.561   6.753
65879SOL    HW299535   5.011   6.587   6.609
65880SOL     OW99536   8.605   7.667   8.939
65880SOL    HW199537   8.670   7.602   8.964
65880SOL    HW299538   8.640   7.750   8.972
65881SOL     OW99539   4.512  10.373  10.383
65881SOL    HW199540   4.512  10.332  10.296
65881SOL    HW299541   4.524  10.299  10.443
65882SOL     OW99542  13.818  14.853  10.742
65882SOL    HW199543  13.912  14.870  10.732
65882SOL    HW299544  13.779   0.058  10.743
65883SOL     OW99545   4.610  13.717  13.741
65883SOL    HW199546   4.540  13.653  13.754
65883SOL    HW299547   4.680  13.669  13.697
65884SOL     OW99548   0.786   2.342  14.595
65884SOL    HW199549   0.866   2.394  14.595
65884SOL    HW299550   0.740   2.368  14.515
65885SOL     OW99551   8.849   2.469  12.118
65885SOL    HW199552   8.805   2.516  12.189
65885SOL    HW299553   8.865   2.536  12.052
65886SOL     OW99554   2.240   0.938   2.115
65886SOL    HW199555   2.307   0.870   2.106
65886SOL    HW299556   2.173   0.899   2.171
65887SOL     OW99557  13.407  10.965  10.372
65887SOL    HW199558  13.319  10.934  10.349
65887SOL    HW299559  13.392  11.038  10.431
65888SOL     OW99560   6.180   0.289  12.945
65888SOL    HW199561   6.123   0.238  12.888
65888SOL    HW299562   6.189   0.374  12.900
65889SOL     OW99563  11.134  13.362  13.122
65889SOL    HW199564  11.188  13.304  13.177
65889SOL    HW299565  11.184  13.372  13.041
65890SOL     OW99566   9.745  11.053   9.888
65890SOL    HW199567   9.800  11.131   9.879
65890SOL    HW299568   9.676  11.065   9.823
65891SOL     OW99569   3.942   1.843   7.899
65891SOL    HW199570   3.865   1.803   7.857
65891SOL    HW299571   3.917   1.851   7.991
65892SOL     OW99572   1.944   2.529   5.354
65892SOL    HW199573   1.913   2.595   5.292
65892SOL    HW299574   1.965   2.578   5.434
65893SOL     OW99575   2.217  11.984  14.654
65893SOL    HW199576   2.187  11.924  14.586
65893SOL    HW299577   2.156  11.971  14.726
65894SOL     OW99578  12.562   0.081   0.377
65894SOL    HW199579  12.568   0.060   0.284
65894SOL    HW299580  12.480   0.129   0.386
65895SOL     OW99581  13.589   1.189   0.588
65895SOL    HW199582  13.558   1.116   0.534
65895SOL    HW299583  13.563   1.167   0.677
65896SOL     OW99584  14.172   7.350  14.009
65896SOL    HW199585  14.203   7.401  14.084
65896SOL    HW299586  14.078   7.344  14.021
65897SOL     OW99587   8.352  13.188   3.669
65897SOL    HW199588   8.299  13.125   3.621
65897SOL    HW299589   8.398  13.137   3.735
65898SOL     OW99590  12.113  11.668  10.996
65898SOL    HW199591  12.127  11.670  11.091
65898SOL    HW299592  12.026  11.629  10.985
65899SOL     OW99593   9.777   0.919   7.298
65899SOL    HW199594   9.815   0.844   7.342
65899SOL    HW299595   9.828   0.928   7.217
65900SOL     OW99596   9.143  11.853   4.504
65900SOL    HW199597   9.165  11.802   4.582
65900SOL    HW299598   9.155  11.944   4.529
65901SOL     OW99599   2.577   3.883   3.828
65901SOL    HW199600   2.619   3.934   3.759
65901SOL    HW299601   2.602   3.926   3.909
65902SOL     OW99602  12.917   6.232   8.102
65902SOL    HW199603  12.914   6.195   8.190
65902SOL    HW299604  12.898   6.157   8.045
65903SOL     OW99605   8.513   9.290   8.855
65903SOL    HW199606   8.500   9.199   8.883
65903SOL    HW299607   8.536   9.282   8.762
65904SOL     OW99608  14.354  11.311   4.278
65904SOL    HW199609  14.271  11.273   4.304
65904SOL    HW299610  14.346  11.326   4.184
65905SOL     OW99611  13.064  10.843   4.151
65905SOL    HW199612  13.011  10.890   4.215
65905SOL    HW299613  13.126  10.908   4.118
65906SOL     OW99614   4.651   0.676   5.214
65906SOL    HW199615   4.570   0.662   5.165
65906SOL    HW299616   4.694   0.749   5.169
65907SOL     OW99617  14.402  14.233  13.110
65907SOL    HW199618  14.496  14.245  13.114
65907SOL    HW299619  14.390  14.149  13.065
65908SOL     OW99620   1.764   9.411  10.445
65908SOL    HW199621   1.780   9.318  10.464
65908SOL    HW299622   1.796   9.422  10.355
65909SOL     OW99623   7.963   7.280   2.417
65909SOL    HW199624   7.927   7.343   2.479
65909SOL    HW299625   7.994   7.333   2.343
65910SOL     OW99626   5.989  10.409  13.819
65910SOL    HW199627   6.059  10.400  13.884
65910SOL    HW299628   5.909  10.387  13.867
65911SOL     OW99629   0.167   9.544   5.719
65911SOL    HW199630   0.124   9.579   5.797
65911SOL    HW299631   0.101   9.549   5.650
65912SOL     OW99632   8.792   1.301  12.195
65912SOL    HW199633   8.736   1.375  12.220
65912SOL    HW299634   8.796   1.305  12.100
65913SOL     OW99635  11.851   6.150   7.203
65913SOL    HW199636  11.765   6.121   7.172
65913SOL    HW299637  11.835   6.183   7.291
65914SOL     OW99638  11.157  12.978   5.973
65914SOL    HW199639  11.217  13.045   5.941
65914SOL    HW299640  11.205  12.895   5.962
65915SOL     OW99641   1.319   8.380   3.125
65915SOL    HW199642   1.270   8.448   3.079
65915SOL    HW299643   1.292   8.387   3.216
65916SOL     OW99644   8.712   6.508   8.450
65916SOL    HW199645   8.790   6.543   8.406
65916SOL    HW299646   8.663   6.585   8.478
65917SOL     OW99647   4.971   9.483   1.640
65917SOL    HW199648   4.982   9.534   1.559
65917SOL    HW299649   5.003   9.541   1.709
65918SOL     OW99650   0.246   9.471  11.144
65918SOL    HW199651   0.244   9.493  11.050
65918SOL    HW299652   0.338   9.457  11.163
65919SOL     OW99653   8.891   8.811   2.130
65919SOL    HW199654   8.977   8.769   2.137
65919SOL    HW299655   8.899   8.891   2.182
65920SOL     OW99656  14.306  10.889  12.317
65920SOL    HW199657  14.349  10.861  12.236
65920SOL    HW299658  14.229  10.938  12.287
65921SOL     OW99659   8.994   8.894  11.282
65921SOL    HW199660   8.903   8.866  11.271
65921SOL    HW299661   9.021   8.854  11.364
65922SOL     OW99662   9.132  11.284  12.625
65922SOL    HW199663   9.185  11.205  12.617
65922SOL    HW299664   9.120  11.295  12.719
65923SOL     OW99665   0.054   5.333  12.312
65923SOL    HW199666   0.140   5.295  12.294
65923SOL    HW299667   0.027   5.293  12.395
65924SOL     OW99668  11.110   7.595   0.632
65924SOL    HW199669  11.066   7.595   0.548
65924SOL    HW299670  11.180   7.660   0.623
65925SOL     OW99671   7.017  13.697   3.874
65925SOL    HW199672   6.931  13.733   3.853
65925SOL    HW299673   7.078  13.744   3.818
65926SOL     OW99674   2.679  11.209   3.342
65926SOL    HW199675   2.760  11.225   3.390
65926SOL    HW299676   2.610  11.215   3.409
65927SOL     OW99677   4.589  11.216  13.731
65927SOL    HW199678   4.537  11.239  13.654
65927SOL    HW299679   4.529  11.168  13.788
65928SOL     OW99680   1.723  10.561   1.759
65928SOL    HW199681   1.799  10.606   1.720
65928SOL    HW299682   1.701  10.493   1.696
65929SOL     OW99683  13.387   2.819   2.616
65929SOL    HW199684  13.395   2.794   2.524
65929SOL    HW299685  13.476   2.807   2.651
65930SOL     OW99686  10.443   0.966   2.153
65930SOL    HW199687  10.453   0.964   2.248
65930SOL    HW299688  10.373   1.029   2.137
65931SOL     OW99689   1.748   2.922   1.136
65931SOL    HW199690   1.675   2.861   1.124
65931SOL    HW299691   1.741   2.949   1.228
65932SOL     OW99692   1.749   6.824   3.403
65932SOL    HW199693   1.777   6.884   3.472
65932SOL    HW299694   1.653   6.823   3.408
65933SOL     OW99695  13.225  13.338   9.302
65933SOL    HW199696  13.266  13.424   9.290
65933SOL    HW299697  13.148  13.356   9.356
65934SOL     OW99698   5.606   1.960   0.357
65934SOL    HW199699   5.625   1.866   0.365
65934SOL    HW299700   5.656   1.988   0.280
65935SOL     OW99701   2.972  10.862  10.971
65935SOL    HW199702   3.063  10.832  10.963
65935SOL    HW299703   2.979  10.953  10.998
65936SOL     OW99704  11.055  14.162   6.929
65936SOL    HW199705  11.133  14.114   6.900
65936SOL    HW299706  10.997  14.094   6.963
65937SOL     OW99707  11.706  10.148   6.870
65937SOL    HW199708  11.637  10.212   6.850
65937SOL    HW299709  11.661  10.078   6.918
65938SOL     OW99710  10.425   1.853   5.184
65938SOL    HW199711  10.344   1.904   5.188
65938SOL    HW299712  10.461   1.872   5.098
65939SOL     OW99713   2.491   1.890   7.030
65939SOL    HW199714   2.411   1.879   6.978
65939SOL    HW299715   2.520   1.979   7.010
65940SOL     OW99716   2.379   9.238   5.379
65940SOL    HW199717   2.457   9.187   5.359
65940SOL    HW299718   2.334   9.188   5.447
65941SOL     OW99719   3.238   3.664   3.950
65941SOL    HW199720   3.164   3.722   3.935
65941SOL    HW299721   3.260   3.678   4.043
65942SOL     OW99722   4.646   2.844   5.153
65942SOL    HW199723   4.735   2.808   5.156
65942SOL    HW299724   4.643   2.904   5.228
65943SOL     OW99725  12.500  10.397  12.981
65943SOL    HW199726  12.412  10.435  12.975
65943SOL    HW299727  12.490  10.308  12.947
65944SOL     OW99728  10.470   6.496   4.346
65944SOL    HW199729  10.411   6.567   4.371
65944SOL    HW299730  10.543   6.539   4.301
65945SOL     OW99731  12.203   8.712   8.605
65945SOL    HW199732  12.193   8.658   8.526
65945SOL    HW299733  12.123   8.764   8.608
65946SOL     OW99734   7.641   4.769  12.785
65946SOL    HW199735   7.577   4.838  12.800
65946SOL    HW299736   7.721   4.801  12.827
65947SOL     OW99737  11.539   1.042   2.695
65947SOL    HW199738  11.562   1.126   2.655
65947SOL    HW299739  11.455   1.059   2.738
65948SOL     OW99740   5.170  13.870  12.318
65948SOL    HW199741   5.215  13.829  12.392
65948SOL    HW299742   5.081  13.887  12.351
65949SOL     OW99743   3.062   9.286  13.282
65949SOL    HW199744   3.144   9.304  13.328
65949SOL    HW299745   3.044   9.366  13.232
65950SOL     OW99746   5.202   8.956   6.291
65950SOL    HW199747   5.182   8.967   6.383
65950SOL    HW299748   5.118   8.966   6.246
65951SOL     OW99749   6.187   4.214   8.856
65951SOL    HW199750   6.253   4.237   8.791
65951SOL    HW299751   6.233   4.159   8.919
65952SOL     OW99752  10.927   1.874  11.682
65952SOL    HW199753  10.941   1.968  11.690
65952SOL    HW299754  10.899   1.862  11.591
65953SOL     OW99755  10.863  11.276  11.870
65953SOL    HW199756  10.918  11.198  11.865
65953SOL    HW299757  10.811  11.275  11.790
65954SOL     OW99758  12.831  10.607   0.627
65954SOL    HW199759  12.750  10.590   0.579
65954SOL    HW299760  12.825  10.551   0.704
65955SOL     OW99761  12.744   5.944   4.416
65955SOL    HW199762  12.654   5.976   4.425
65955SOL    HW299763  12.765   5.959   4.324
65956SOL     OW99764   9.821   8.050   5.348
65956SOL    HW199765   9.787   7.989   5.414
65956SOL    HW299766   9.907   8.074   5.381
65957SOL     OW99767   8.605  10.869  13.892
65957SOL    HW199768   8.697  10.844  13.906
65957SOL    HW299769   8.608  10.964  13.879
65958SOL     OW99770   8.549   0.474   2.131
65958SOL    HW199771   8.518   0.384   2.132
65958SOL    HW299772   8.606   0.480   2.054
65959SOL     OW99773   4.722  14.607   3.445
65959SOL    HW199774   4.758  14.689   3.413
65959SOL    HW299775   4.769  14.539   3.396
65960SOL     OW99776   2.722   5.068   1.896
65960SOL    HW199777   2.781   5.141   1.914
65960SOL    HW299778   2.654   5.074   1.963
65961SOL     OW99779   2.140   5.074  10.195
65961SOL    HW199780   2.233   5.081  10.218
65961SOL    HW299781   2.120   4.981  10.203
65962SOL     OW99782  12.973   9.738   6.494
65962SOL    HW199783  12.920   9.711   6.419
65962SOL    HW299784  12.915   9.727   6.570
65963SOL     OW99785   9.759   9.216   6.916
65963SOL    HW199786   9.688   9.264   6.873
65963SOL    HW299787   9.716   9.171   6.989
65964SOL     OW99788   6.817   9.045  10.291
65964SOL    HW199789   6.739   9.018  10.339
65964SOL    HW299790   6.784   9.077  10.207
65965SOL     OW99791  14.226  11.600  12.451
65965SOL    HW199792  14.254  11.553  12.373
65965SOL    HW299793  14.178  11.535  12.503
65966SOL     OW99794  14.791  13.636   5.239
65966SOL    HW199795  14.875  13.637   5.192
65966SOL    HW299796  14.787  13.549   5.277
65967SOL     OW99797   9.894  12.667   2.026
65967SOL    HW199798   9.891  12.647   1.932
65967SOL    HW299799   9.986  12.689   2.043
65968SOL     OW99800   2.117   3.700   3.137
65968SOL    HW199801   2.027   3.725   3.155
65968SOL    HW299802   2.169   3.752   3.199
65969SOL     OW99803  11.279  10.640   0.186
65969SOL    HW199804  11.319  10.560   0.153
65969SOL    HW299805  11.220  10.610   0.256
65970SOL     OW99806   1.979   8.025   0.264
65970SOL    HW199807   2.067   8.061   0.256
65970SOL    HW299808   1.991   7.931   0.276
65971SOL     OW99809   6.281  13.171  11.284
65971SOL    HW199810   6.326  13.249  11.249
65971SOL    HW299811   6.288  13.106  11.214
65972SOL     OW99812   6.107   2.975   6.940
65972SOL    HW199813   6.058   3.057   6.952
65972SOL    HW299814   6.158   2.989   6.861
65973SOL     OW99815  14.229   1.646  11.014
65973SOL    HW199816  14.170   1.699  11.069
65973SOL    HW299817  14.218   1.683  10.927
65974SOL     OW99818   5.278   0.890  13.017
65974SOL    HW199819   5.319   0.804  13.017
65974SOL    HW299820   5.247   0.902  13.106
65975SOL     OW99821   7.394  11.317   6.973
65975SOL    HW199822   7.366  11.290   7.060
65975SOL    HW299823   7.486  11.292   6.968
65976SOL     OW99824  12.919   0.834  13.905
65976SOL    HW199825  12.865   0.911  13.888
65976SOL    HW299826  12.974   0.825  13.828
65977SOL     OW99827  10.920   1.741   9.067
65977SOL    HW199828  10.914   1.836   9.083
65977SOL    HW299829  10.869   1.702   9.138
65978SOL     OW99830   0.266   5.187   5.759
65978SOL    HW199831   0.360   5.194   5.750
65978SOL    HW299832   0.241   5.116   5.700
65979SOL     OW99833   1.216   1.760  11.240
65979SOL    HW199834   1.190   1.848  11.211
65979SOL    HW299835   1.292   1.774  11.296
65980SOL     OW99836  13.640   0.208   0.155
65980SOL    HW199837  13.588   0.132   0.182
65980SOL    HW299838  13.578   0.280   0.153
65981SOL     OW99839  13.374  10.041  10.841
65981SOL    HW199840  13.393  10.035  10.935
65981SOL    HW299841  13.279  10.047  10.836
65982SOL     OW99842   7.366  11.893   5.396
65982SOL    HW199843   7.305  11.840   5.345
65982SOL    HW299844   7.452  11.859   5.376
65983SOL     OW99845   3.180   9.339  10.342
65983SOL    HW199846   3.140   9.273  10.285
65983SOL    HW299847   3.268   9.350  10.306
65984SOL     OW99848   7.968   5.931   8.879
65984SOL    HW199849   7.937   6.008   8.927
65984SOL    HW299850   8.054   5.956   8.846
65985SOL     OW99851  11.421   3.923   0.923
65985SOL    HW199852  11.419   3.977   1.002
65985SOL    HW299853  11.512   3.896   0.914
65986SOL     OW99854   5.685   7.035   2.629
65986SOL    HW199855   5.660   7.114   2.581
65986SOL    HW299856   5.711   6.973   2.561
65987SOL     OW99857  14.196   4.271  13.354
65987SOL    HW199858  14.273   4.244  13.304
65987SOL    HW299859  14.154   4.337  13.298
65988SOL     OW99860   4.974   8.854   9.969
65988SOL    HW199861   4.902   8.811   9.924
65988SOL    HW299862   4.967   8.824  10.060
65989SOL     OW99863  11.295   0.801  13.620
65989SOL    HW199864  11.341   0.846  13.550
65989SOL    HW299865  11.299   0.709  13.597
65990SOL     OW99866   2.632   6.045  12.143
65990SOL    HW199867   2.621   6.105  12.069
65990SOL    HW299868   2.679   6.097  12.209
65991SOL     OW99869   6.467  12.517   2.176
65991SOL    HW199870   6.557  12.550   2.179
65991SOL    HW299871   6.475  12.430   2.136
65992SOL     OW99872   3.367   5.015  13.140
65992SOL    HW199873   3.374   4.958  13.217
65992SOL    HW299874   3.425   5.088  13.159
65993SOL     OW99875   1.863  13.414  13.129
65993SOL    HW199876   1.809  13.401  13.051
65993SOL    HW299877   1.889  13.325  13.155
65994SOL     OW99878  10.305  10.664   0.291
65994SOL    HW199879  10.282  10.575   0.319
65994SOL    HW299880  10.231  10.718   0.319
65995SOL     OW99881  14.220   1.872   0.903
65995SOL    HW199882  14.259   1.790   0.875
65995SOL    HW299883  14.128   1.852   0.916
65996SOL     OW99884   1.579   2.835   4.386
65996SOL    HW199885   1.511   2.900   4.399
65996SOL    HW299886   1.554   2.761   4.441
65997SOL     OW99887   2.444   4.335   9.607
65997SOL    HW199888   2.527   4.337   9.559
65997SOL    HW299889   2.454   4.261   9.667
65998SOL     OW99890   7.412  10.640   8.608
65998SOL    HW199891   7.449  10.703   8.671
65998SOL    HW299892   7.459  10.657   8.527
65999SOL     OW99893   3.318  10.938   3.828
65999SOL    HW199894   3.400  10.900   3.796
65999SOL    HW299895   3.262  10.863   3.848
66000SOL     OW99896  13.442   2.016   3.852
66000SOL    HW199897  13.492   2.009   3.933
66000SOL    HW299898  13.385   2.091   3.865
66001SOL     OW99899   1.244   3.979   6.856
66001SOL    HW199900   1.231   3.892   6.816
66001SOL    HW299901   1.338   3.987   6.867
66002SOL     OW99902  14.732   4.596   7.281
66002SOL    HW199903  14.773   4.625   7.200
66002SOL    HW299904  14.797   4.538   7.321
66003SOL     OW99905   2.064   3.096   7.533
66003SOL    HW199906   2.000   3.038   7.575
66003SOL    HW299907   2.128   3.115   7.601
66004SOL     OW99908   5.440   4.466   0.316
66004SOL    HW199909   5.535   4.467   0.325
66004SOL    HW299910   5.422   4.536   0.254
66005SOL     OW99911   6.097   9.579   9.678
66005SOL    HW199912   6.092   9.485   9.697
66005SOL    HW299913   6.175   9.589   9.624
66006SOL     OW99914  10.770   9.895   4.203
66006SOL    HW199915  10.680   9.923   4.219
66006SOL    HW299916  10.808   9.966   4.151
66007SOL     OW99917   0.806   1.904   8.188
66007SOL    HW199918   0.818   1.994   8.156
66007SOL    HW299919   0.873   1.894   8.256
66008SOL     OW99920  12.263   6.742   4.384
66008SOL    HW199921  12.192   6.799   4.356
66008SOL    HW299922  12.333   6.756   4.320
66009SOL     OW99923   7.674  12.107  13.632
66009SOL    HW199924   7.621  12.109  13.553
66009SOL    HW299925   7.620  12.151  13.698
66010SOL     OW99926   2.115   8.477   8.153
66010SOL    HW199927   2.085   8.497   8.064
66010SOL    HW299928   2.207   8.454   8.141
66011SOL     OW99929   8.101   3.217   5.855
66011SOL    HW199930   8.060   3.131   5.862
66011SOL    HW299931   8.036   3.279   5.888
66012SOL     OW99932  11.232   8.530  13.239
66012SOL    HW199933  11.319   8.521  13.279
66012SOL    HW299934  11.200   8.615  13.271
66013SOL     OW99935   3.086   4.603   7.526
66013SOL    HW199936   3.110   4.656   7.601
66013SOL    HW299937   2.991   4.591   7.533
66014SOL     OW99938   4.663  10.410  11.706
66014SOL    HW199939   4.632  10.489  11.661
66014SOL    HW299940   4.587  10.380  11.756
66015SOL     OW99941   2.680   5.628   0.881
66015SOL    HW199942   2.727   5.556   0.839
66015SOL    HW299943   2.593   5.626   0.840
66016SOL     OW99944   4.115  10.984   9.569
66016SOL    HW199945   4.080  10.899   9.596
66016SOL    HW299946   4.142  11.026   9.651
66017SOL     OW99947   9.893   8.298   9.351
66017SOL    HW199948   9.886   8.389   9.322
66017SOL    HW299949   9.882   8.302   9.446
66018SOL     OW99950   4.105   5.966   7.419
66018SOL    HW199951   4.127   5.952   7.511
66018SOL    HW299952   4.176   5.922   7.371
66019SOL     OW99953  13.182   2.096  14.708
66019SOL    HW199954  13.275   2.114  14.698
66019SOL    HW299955  13.178   2.018  14.763
66020SOL     OW99956  13.281  10.136  13.475
66020SOL    HW199957  13.194  10.166  13.500
66020SOL    HW299958  13.285  10.045  13.506
66021SOL     OW99959  10.748  11.044  13.381
66021SOL    HW199960  10.662  11.029  13.421
66021SOL    HW299961  10.737  11.015  13.290
66022SOL     OW99962  12.484   4.337   1.130
66022SOL    HW199963  12.440   4.286   1.061
66022SOL    HW299964  12.577   4.327   1.111
66023SOL     OW99965   3.701  14.637  13.097
66023SOL    HW199966   3.606  14.628  13.089
66023SOL    HW299967   3.713  14.715  13.152
66024SOL     OW99968   9.571  10.625   9.420
66024SOL    HW199969   9.543  10.710   9.456
66024SOL    HW299970   9.616  10.583   9.493
66025SOL     OW99971   1.720  10.759   4.181
66025SOL    HW199972   1.661  10.695   4.222
66025SOL    HW299973   1.685  10.771   4.092
66026SOL     OW99974   1.444   1.995  10.372
66026SOL    HW199975   1.426   1.923  10.431
66026SOL    HW299976   1.531   2.027  10.399
66027SOL     OW99977  11.183  12.853   1.565
66027SOL    HW199978  11.151  12.797   1.635
66027SOL    HW299979  11.226  12.926   1.610
66028SOL     OW99980  11.287   5.992  13.272
66028SOL    HW199981  11.376   5.957  13.273
66028SOL    HW299982  11.276   6.029  13.185
66029SOL     OW99983  12.306   7.146   7.827
66029SOL    HW199984  12.339   7.082   7.890
66029SOL    HW299985  12.357   7.130   7.748
66030SOL     OW99986   7.149  12.950   8.021
66030SOL    HW199987   7.129  12.943   8.115
66030SOL    HW299988   7.107  13.031   7.993
66031SOL     OW99989   1.041   6.155   0.915
66031SOL    HW199990   0.995   6.154   0.999
66031SOL    HW299991   1.127   6.192   0.935
66032SOL     OW99992   4.212  13.234   8.124
66032SOL    HW199993   4.220  13.259   8.217
66032SOL    HW299994   4.265  13.155   8.116
66033SOL     OW99995   4.335   4.044   1.298
66033SOL    HW199996   4.281   3.979   1.253
66033SOL    HW299997   4.274   4.114   1.321
66034SOL     OW99998   3.605   3.574   6.131
66034SOL    HW199999   3.570   3.505   6.075
66034SOL    HW2    0   3.527   3.622   6.161
66035SOL     OW    1   9.926  10.901  10.053
66035SOL    HW1    2   9.996  10.840  10.029
66035SOL    HW2    3   9.848  10.866  10.010
66036SOL     OW    4   8.744  12.694   3.317
66036SOL    HW1    5   8.691  12.762   3.277
66036SOL    HW2    6   8.696  12.669   3.396
66037SOL     OW    7   3.593   7.559  14.340
66037SOL    HW1    8   3.597   7.483  14.398
66037SOL    HW2    9   3.540   7.622  14.388
66038SOL     OW   10  11.408   5.849   4.688
66038SOL    HW1   11  11.449   5.805   4.762
66038SOL    HW2   12  11.460   5.822   4.612
66039SOL     OW   13   4.859   5.639   4.554
66039SOL    HW1   14   4.826   5.720   4.594
66039SOL    HW2   15   4.796   5.572   4.580
66040SOL     OW   16   5.496   4.105   0.126
66040SOL    HW1   17   5.495   4.111   0.222
66040SOL    HW2   18   5.473   4.014   0.107
66041SOL     OW   19   5.182  12.024  11.663
66041SOL    HW1   20   5.120  12.076  11.714
66041SOL    HW2   21   5.220  12.086  11.601
66042SOL     OW   22  13.138   3.235   5.681
66042SOL    HW1   23  13.065   3.275   5.728
66042SOL    HW2   24  13.132   3.269   5.592
66043SOL     OW   25  12.474   8.275  13.926
66043SOL    HW1   26  12.549   8.255  13.870
66043SOL    HW2   27  12.458   8.368  13.913
66044SOL     OW   28   7.752   3.413  13.879
66044SOL    HW1   29   7.845   3.433  13.874
66044SOL    HW2   30   7.734   3.407  13.973
66045SOL     OW   31  10.680   3.071   6.110
66045SOL    HW1   32  10.690   3.026   6.026
66045SOL    HW2   33  10.647   3.003   6.170
66046SOL     OW   34  12.404  13.629  10.270
66046SOL    HW1   35  12.344  13.590  10.333
66046SOL    HW2   36  12.361  13.618  10.185
66047SOL     OW   37  14.260   8.354  10.278
66047SOL    HW1   38  14.287   8.422  10.217
66047SOL    HW2   39  14.337   8.297  10.286
66048SOL     OW   40   9.257   5.419   6.172
66048SOL    HW1   41   9.272   5.471   6.094
66048SOL    HW2   42   9.345   5.400   6.206
66049SOL     OW   43  13.185   4.537   0.902
66049SOL    HW1   44  13.241   4.499   0.834
66049SOL    HW2   45  13.231   4.519   0.984
66050SOL     OW   46   7.309   1.251   8.873
66050SOL    HW1   47   7.390   1.206   8.851
66050SOL    HW2   48   7.296   1.233   8.966
66051SOL     OW   49   7.446   1.010   6.859
66051SOL    HW1   50   7.519   0.997   6.797
66051SOL    HW2   51   7.480   1.071   6.924
66052SOL     OW   52   9.413   0.184   7.671
66052SOL    HW1   53   9.445   0.258   7.619
66052SOL    HW2   54   9.329   0.162   7.630
66053SOL     OW   55  11.852  13.648  13.044
66053SOL    HW1   56  11.827  13.593  13.118
66053SOL    HW2   57  11.857  13.737  13.081
66054SOL     OW   58   3.633   4.585  11.670
66054SOL    HW1   59   3.582   4.518  11.716
66054SOL    HW2   60   3.595   4.590  11.583
66055SOL     OW   61   8.202   4.745   9.908
66055SOL    HW1   62   8.182   4.802   9.981
66055SOL    HW2   63   8.119   4.701   9.888
66056SOL     OW   64   3.539   2.959  12.232
66056SOL    HW1   65   3.541   3.054  12.217
66056SOL    HW2   66   3.630   2.935  12.245
66057SOL     OW   67   7.719   0.351   3.773
66057SOL    HW1   68   7.775   0.349   3.851
66057SOL    HW2   69   7.779   0.333   3.701
66058SOL     OW   70  12.023  12.865   4.009
66058SOL    HW1   71  11.970  12.932   4.053
66058SOL    HW2   72  12.113  12.894   4.019
66059SOL     OW   73   6.613   1.402   1.317
66059SOL    HW1   74   6.689   1.437   1.363
66059SOL    HW2   75   6.566   1.353   1.385
66060SOL     OW   76   5.472   4.862   2.304
66060SOL    HW1   77   5.513   4.790   2.352
66060SOL    HW2   78   5.537   4.888   2.239
66061SOL     OW   79  11.716  10.395   3.163
66061SOL    HW1   80  11.804  10.390   3.126
66061SOL    HW2   81  11.699  10.489   3.171
66062SOL     OW   82  10.165   0.354  10.253
66062SOL    HW1   83  10.206   0.285  10.305
66062SOL    HW2   84  10.079   0.367  10.293
66063SOL     OW   85   5.152  12.022  13.623
66063SOL    HW1   86   5.191  12.007  13.710
66063SOL    HW2   87   5.170  12.114  13.605
66064SOL     OW   88   1.063   5.726  10.935
66064SOL    HW1   89   1.028   5.680  11.011
66064SOL    HW2   90   1.105   5.658  10.883
66065SOL     OW   91   1.589   8.122   5.543
66065SOL    HW1   92   1.640   8.087   5.616
66065SOL    HW2   93   1.507   8.073   5.545
66066SOL     OW   94   4.551  10.206  11.450
66066SOL    HW1   95   4.551  10.300  11.434
66066SOL    HW2   96   4.459  10.180  11.445
66067SOL     OW   97   2.321   8.717   0.693
66067SOL    HW1   98   2.388   8.679   0.636
66067SOL    HW2   99   2.367   8.783   0.744
66068SOL     OW  100   2.840   2.064   8.928
66068SOL    HW1  101   2.839   2.158   8.910
66068SOL    HW2  102   2.931   2.038   8.910
66069SOL     OW  103   8.941   9.893   4.826
66069SOL    HW1  104   8.851   9.859   4.821
66069SOL    HW2  105   8.981   9.867   4.743
66070SOL     OW  106   7.187   2.432   3.149
66070SOL    HW1  107   7.148   2.450   3.235
66070SOL    HW2  108   7.264   2.378   3.169
66071SOL     OW  109   7.086   5.602   9.632
66071SOL    HW1  110   7.052   5.514   9.645
66071SOL    HW2  111   7.017   5.659   9.666
66072SOL     OW  112   3.810  12.318   1.301
66072SOL    HW1  113   3.774  12.282   1.220
66072SOL    HW2  114   3.848  12.402   1.276
66073SOL     OW  115  13.133   6.650  11.970
66073SOL    HW1  116  13.084   6.590  11.913
66073SOL    HW2  117  13.223   6.615  11.969
66074SOL     OW  118   9.149   8.761  14.749
66074SOL    HW1  119   9.193   8.833  14.703
66074SOL    HW2  120   9.215   8.691  14.753
66075SOL     OW  121  11.135   8.170  12.880
66075SOL    HW1  122  11.183   8.107  12.934
66075SOL    HW2  123  11.133   8.250  12.931
66076SOL     OW  124  11.912  11.878  14.403
66076SOL    HW1  125  11.923  11.833  14.486
66076SOL    HW2  126  11.914  11.808  14.337
66077SOL     OW  127   0.137   6.371  12.160
66077SOL    HW1  128   0.128   6.381  12.065
66077SOL    HW2  129   0.052   6.337  12.188
66078SOL     OW  130   4.891  13.308   6.177
66078SOL    HW1  131   4.879  13.227   6.228
66078SOL    HW2  132   4.805  13.351   6.180
66079SOL     OW  133   4.358   5.725   7.510
66079SOL    HW1  134   4.400   5.664   7.449
66079SOL    HW2  135   4.426   5.744   7.575
66080SOL     OW  136  12.457  10.652   3.119
66080SOL    HW1  137  12.481  10.742   3.143
66080SOL    HW2  138  12.410  10.619   3.195
66081SOL     OW  139  11.869  14.323  13.380
66081SOL    HW1  140  11.774  14.331  13.389
66081SOL    HW2  141  11.885  14.228  13.377
66082SOL     OW  142   5.034   2.204   1.176
66082SOL    HW1  143   4.970   2.133   1.166
66082SOL    HW2  144   5.056   2.229   1.087
66083SOL     OW  145   6.987   4.822   3.742
66083SOL    HW1  146   6.978   4.896   3.801
66083SOL    HW2  147   7.068   4.840   3.694
66084SOL     OW  148  11.177   7.329   0.705
66084SOL    HW1  149  11.163   7.419   0.734
66084SOL    HW2  150  11.165   7.332   0.610
66085SOL     OW  151  13.759   9.803   7.641
66085SOL    HW1  152  13.745   9.720   7.687
66085SOL    HW2  153  13.740   9.870   7.707
66086SOL     OW  154   5.060  12.975   3.779
66086SOL    HW1  155   4.973  13.013   3.780
66086SOL    HW2  156   5.049  12.891   3.735
66087SOL     OW  157   7.108   4.276   3.796
66087SOL    HW1  158   7.199   4.275   3.827
66087SOL    HW2  159   7.102   4.357   3.745
66088SOL     OW  160   5.324  13.995  10.554
66088SOL    HW1  161   5.331  13.900  10.547
66088SOL    HW2  162   5.231  14.014  10.539
66089SOL     OW  163   4.648   0.349   9.920
66089SOL    HW1  164   4.713   0.289   9.957
66089SOL    HW2  165   4.602   0.384   9.996
66090SOL     OW  166   7.724   0.829  14.820
66090SOL    HW1  167   7.646   0.882  14.838
66090SOL    HW2  168   7.743   0.785   0.020
66091SOL     OW  169   5.507   0.874   9.471
66091SOL    HW1  170   5.414   0.870   9.452
66091SOL    HW2  171   5.547   0.811   9.411
66092SOL     OW  172  13.940   8.702  10.269
66092SOL    HW1  173  13.901   8.616  10.289
66092SOL    HW2  174  13.947   8.704  10.173
66093SOL     OW  175  13.140   2.676   1.750
66093SOL    HW1  176  13.174   2.733   1.681
66093SOL    HW2  177  13.067   2.725   1.788
66094SOL     OW  178   1.886  13.021   2.977
66094SOL    HW1  179   1.933  12.957   3.031
66094SOL    HW2  180   1.838  12.969   2.914
66095SOL     OW  181   6.981   5.107   9.702
66095SOL    HW1  182   6.935   5.041   9.754
66095SOL    HW2  183   7.011   5.060   9.624
66096SOL     OW  184  11.746   7.778   7.334
66096SOL    HW1  185  11.721   7.788   7.242
66096SOL    HW2  186  11.841   7.792   7.334
66097SOL     OW  187  13.419   4.884   3.894
66097SOL    HW1  188  13.377   4.803   3.921
66097SOL    HW2  189  13.367   4.953   3.935
66098SOL     OW  190   1.302   0.212  12.489
66098SOL    HW1  191   1.346   0.297  12.499
66098SOL    HW2  192   1.280   0.208  12.397
66099SOL     OW  193   6.181  12.991   5.403
66099SOL    HW1  194   6.247  13.036   5.349
66099SOL    HW2  195   6.231  12.929   5.455
66100SOL     OW  196  14.012   1.918  11.753
66100SOL    HW1  197  14.064   1.978  11.807
66100SOL    HW2  198  13.922   1.929  11.786
66101SOL     OW  199   7.003   9.361   4.456
66101SOL    HW1  200   6.948   9.393   4.528
66101SOL    HW2  201   7.092   9.385   4.482
66102SOL     OW  202  14.198   8.315  14.807
66102SOL    HW1  203  14.239   8.400  14.793
66102SOL    HW2  204  14.194   8.305   0.020
66103SOL     OW  205   6.510   1.309   8.628
66103SOL    HW1  206   6.457   1.357   8.692
66103SOL    HW2  207   6.447   1.261   8.575
66104SOL     OW  208  10.137   3.250   1.387
66104SOL    HW1  209  10.150   3.211   1.301
66104SOL    HW2  210  10.224   3.255   1.425
66105SOL     OW  211   4.774   6.961   2.598
66105SOL    HW1  212   4.754   6.905   2.523
66105SOL    HW2  213   4.856   6.926   2.633
66106SOL     OW  214   8.303   2.163   6.057
66106SOL    HW1  215   8.307   2.258   6.044
66106SOL    HW2  216   8.264   2.130   5.975
66107SOL     OW  217   9.364  12.090  12.482
66107SOL    HW1  218   9.339  12.007  12.441
66107SOL    HW2  219   9.443  12.117  12.436
66108SOL     OW  220   3.059  12.020   2.134
66108SOL    HW1  221   2.992  12.023   2.065
66108SOL    HW2  222   3.011  12.035   2.215
66109SOL     OW  223   5.516  14.882  12.225
66109SOL    HW1  224   5.564   0.062  12.279
66109SOL    HW2  225   5.440  14.858  12.277
66110SOL     OW  226   5.671  12.655   8.461
66110SOL    HW1  227   5.579  12.628   8.468
66110SOL    HW2  228   5.721  12.574   8.469
66111SOL     OW  229  13.373   6.357  12.912
66111SOL    HW1  230  13.309   6.399  12.970
66111SOL    HW2  231  13.458   6.376  12.952
66112SOL     OW  232   7.303   7.277   2.862
66112SOL    HW1  233   7.322   7.368   2.886
66112SOL    HW2  234   7.382   7.249   2.815
66113SOL     OW  235   6.610   0.669   2.147
66113SOL    HW1  236   6.531   0.702   2.106
66113SOL    HW2  237   6.582   0.590   2.194
66114SOL     OW  238   2.688  12.329  10.284
66114SOL    HW1  239   2.641  12.381  10.219
66114SOL    HW2  240   2.623  12.267  10.317
66115SOL     OW  241   9.974  13.344   4.025
66115SOL    HW1  242   9.966  13.271   3.964
66115SOL    HW2  243   9.884  13.361   4.053
66116SOL     OW  244  12.273  14.578   5.807
66116SOL    HW1  245  12.273  14.516   5.880
66116SOL    HW2  246  12.231  14.657   5.843
66117SOL     OW  247   1.669   2.199   3.322
66117SOL    HW1  248   1.610   2.159   3.386
66117SOL    HW2  249   1.748   2.220   3.372
66118SOL     OW  250   5.827  13.125  12.853
66118SOL    HW1  251   5.916  13.120  12.818
66118SOL    HW2  252   5.822  13.211  12.894
66119SOL     OW  253   1.717   6.845   4.594
66119SOL    HW1  254   1.644   6.871   4.538
66119SOL    HW2  255   1.745   6.761   4.558
66120SOL     OW  256   3.728   4.082   7.772
66120SOL    HW1  257   3.673   4.154   7.802
66120SOL    HW2  258   3.818   4.111   7.792
66121SOL     OW  259   5.284   9.117  14.060
66121SOL    HW1  260   5.227   9.149  14.129
66121SOL    HW2  261   5.278   9.022  14.065
66122SOL     OW  262   4.162   8.928   2.075
66122SOL    HW1  263   4.170   9.017   2.042
66122SOL    HW2  264   4.082   8.929   2.127
66123SOL     OW  265  14.334  12.363   9.821
66123SOL    HW1  266  14.266  12.308   9.780
66123SOL    HW2  267  14.395  12.300   9.860
66124SOL     OW  268   9.701  10.890  12.754
66124SOL    HW1  269   9.749  10.828  12.808
66124SOL    HW2  270   9.728  10.869  12.664
66125SOL     OW  271   0.020  12.150  11.548
66125SOL    HW1  272  14.852  12.101  11.482
66125SOL    HW2  273  14.838  12.210  11.586
66126SOL     OW  274   4.490   3.587   7.105
66126SOL    HW1  275   4.451   3.575   7.192
66126SOL    HW2  276   4.440   3.659   7.066
66127SOL     OW  277   9.611   3.645   5.267
66127SOL    HW1  278   9.642   3.668   5.179
66127SOL    HW2  279   9.519   3.669   5.268
66128SOL     OW  280   0.186   9.503   4.191
66128SOL    HW1  281   0.261   9.485   4.248
66128SOL    HW2  282   0.195   9.595   4.167
66129SOL     OW  283   2.068   9.809   1.339
66129SOL    HW1  284   2.126   9.885   1.333
66129SOL    HW2  285   2.106   9.747   1.276
66130SOL     OW  286  14.109   1.596   8.901
66130SOL    HW1  287  14.033   1.641   8.864
66130SOL    HW2  288  14.138   1.536   8.832
66131SOL     OW  289   6.013   9.046  14.532
66131SOL    HW1  290   6.076   8.986  14.573
66131SOL    HW2  291   6.068   9.113  14.492
66132SOL     OW  292   1.910  10.194  13.546
66132SOL    HW1  293   1.970  10.210  13.473
66132SOL    HW2  294   1.877  10.281  13.569
66133SOL     OW  295   5.492  10.781  12.208
66133SOL    HW1  296   5.414  10.829  12.235
66133SOL    HW2  297   5.564  10.827  12.253
66134SOL     OW  298  12.782   7.807   6.030
66134SOL    HW1  299  12.823   7.754   6.098
66134SOL    HW2  300  12.793   7.897   6.060
66135SOL     OW  301  11.089  13.100   7.419
66135SOL    HW1  302  11.181  13.125   7.416
66135SOL    HW2  303  11.077  13.062   7.506
66136SOL     OW  304   7.007  14.372  12.710
66136SOL    HW1  305   7.064  14.406  12.641
66136SOL    HW2  306   6.933  14.432  12.712
66137SOL     OW  307   9.022   6.910   2.543
66137SOL    HW1  308   8.996   6.918   2.634
66137SOL    HW2  309   8.985   6.988   2.500
66138SOL     OW  310   9.141   7.081  11.510
66138SOL    HW1  311   9.130   7.169  11.473
66138SOL    HW2  312   9.118   7.022  11.438
66139SOL     OW  313   7.912   8.293   2.844
66139SOL    HW1  314   8.003   8.306   2.819
66139SOL    HW2  315   7.866   8.369   2.807
66140SOL     OW  316  10.096   1.598   7.359
66140SOL    HW1  317  10.138   1.585   7.444
66140SOL    HW2  318  10.106   1.514   7.315
66141SOL     OW  319  11.016   8.042   7.540
66141SOL    HW1  320  10.979   8.008   7.621
66141SOL    HW2  321  10.941   8.055   7.482
66142SOL     OW  322  12.430   3.880   6.038
66142SOL    HW1  323  12.370   3.940   5.994
66142SOL    HW2  324  12.510   3.884   5.987
66143SOL     OW  325   4.012   2.473   8.379
66143SOL    HW1  326   4.046   2.537   8.317
66143SOL    HW2  327   3.924   2.504   8.400
66144SOL     OW  328  14.582  13.866   6.995
66144SOL    HW1  329  14.522  13.797   6.967
66144SOL    HW2  330  14.658  13.856   6.937
66145SOL     OW  331  11.757   1.163  14.061
66145SOL    HW1  332  11.851   1.147  14.065
66145SOL    HW2  333  11.726   1.148  14.150
66146SOL     OW  334   4.218   2.968  10.052
66146SOL    HW1  335   4.213   3.063  10.046
66146SOL    HW2  336   4.259   2.941   9.970
66147SOL     OW  337   0.893   4.624  12.043
66147SOL    HW1  338   0.875   4.708  12.084
66147SOL    HW2  339   0.959   4.583  12.097
66148SOL     OW  340  12.034  11.851  13.572
66148SOL    HW1  341  11.948  11.886  13.547
66148SOL    HW2  342  12.078  11.925  13.614
66149SOL     OW  343   1.296   3.572   8.098
66149SOL    HW1  344   1.308   3.546   8.190
66149SOL    HW2  345   1.384   3.578   8.063
66150SOL     OW  346   1.993   3.107   5.959
66150SOL    HW1  347   1.976   3.105   6.053
66150SOL    HW2  348   2.083   3.076   5.950
66151SOL     OW  349   8.371  13.508  12.969
66151SOL    HW1  350   8.310  13.558  12.915
66151SOL    HW2  351   8.449  13.564  12.977
66152SOL     OW  352   4.895   6.421  12.280
66152SOL    HW1  353   4.948   6.466  12.213
66152SOL    HW2  354   4.824   6.483  12.298
66153SOL     OW  355   9.034   1.299  12.598
66153SOL    HW1  356   9.120   1.260  12.586
66153SOL    HW2  357   9.013   1.285  12.691
66154SOL     OW  358  11.846  10.469   0.876
66154SOL    HW1  359  11.765  10.479   0.826
66154SOL    HW2  360  11.908  10.528   0.833
66155SOL     OW  361  11.639   7.090   5.785
66155SOL    HW1  362  11.564   7.149   5.792
66155SOL    HW2  363  11.641   7.065   5.693
66156SOL     OW  364   9.666  11.296   9.570
66156SOL    HW1  365   9.715  11.265   9.646
66156SOL    HW2  366   9.589  11.240   9.567
66157SOL     OW  367   5.389   4.957  14.438
66157SOL    HW1  368   5.364   5.045  14.410
66157SOL    HW2  369   5.307   4.908  14.442
66158SOL     OW  370  14.741   3.183   1.152
66158SOL    HW1  371  14.711   3.093   1.140
66158SOL    HW2  372  14.662   3.236   1.140
66159SOL     OW  373  13.131   5.509   5.222
66159SOL    HW1  374  13.112   5.461   5.303
66159SOL    HW2  375  13.225   5.500   5.210
66160SOL     OW  376  13.058  14.856   1.619
66160SOL    HW1  377  13.067   0.062   1.584
66160SOL    HW2  378  13.105  14.800   1.557
66161SOL     OW  379   6.945   2.278   7.102
66161SOL    HW1  380   7.041   2.286   7.108
66161SOL    HW2  381   6.917   2.262   7.192
66162SOL     OW  382  10.322  10.754   1.499
66162SOL    HW1  383  10.395  10.705   1.460
66162SOL    HW2  384  10.306  10.826   1.438
66163SOL     OW  385   4.482   8.413   2.978
66163SOL    HW1  386   4.482   8.434   2.885
66163SOL    HW2  387   4.529   8.330   2.984
66164SOL     OW  388   8.452   2.470   8.459
66164SOL    HW1  389   8.411   2.480   8.373
66164SOL    HW2  390   8.454   2.559   8.496
66165SOL     OW  391   9.761   3.852   6.327
66165SOL    HW1  392   9.770   3.793   6.402
66165SOL    HW2  393   9.851   3.870   6.299
66166SOL     OW  394   7.065   7.547  13.701
66166SOL    HW1  395   7.138   7.561  13.641
66166SOL    HW2  396   7.094   7.476  13.758
66167SOL     OW  397   8.951   6.646   8.368
66167SOL    HW1  398   9.018   6.584   8.398
66167SOL    HW2  399   8.958   6.720   8.428
66168SOL     OW  400  10.979   0.949   8.794
66168SOL    HW1  401  10.884   0.959   8.789
66168SOL    HW2  402  10.994   0.908   8.879
66169SOL     OW  403   4.955  14.479   5.445
66169SOL    HW1  404   4.915  14.564   5.426
66169SOL    HW2  405   4.904  14.445   5.518
66170SOL     OW  406   5.853   5.545   7.556
66170SOL    HW1  407   5.888   5.517   7.471
66170SOL    HW2  408   5.759   5.554   7.542
66171SOL     OW  409  12.559   9.410   0.218
66171SOL    HW1  410  12.502   9.349   0.263
66171SOL    HW2  411  12.599   9.462   0.288
66172SOL     OW  412   0.875  14.223   7.086
66172SOL    HW1  413   0.904  14.161   7.153
66172SOL    HW2  414   0.793  14.258   7.119
66173SOL     OW  415   4.939  13.898  11.299
66173SOL    HW1  416   5.007  13.854  11.249
66173SOL    HW2  417   4.859  13.886  11.246
66174SOL     OW  418  11.065  12.141   2.949
66174SOL    HW1  419  11.026  12.053   2.945
66174SOL    HW2  420  11.090  12.159   2.858
66175SOL     OW  421   3.597   8.873  14.399
66175SOL    HW1  422   3.661   8.940  14.423
66175SOL    HW2  423   3.649   8.804  14.357
66176SOL     OW  424  11.511  12.375   7.124
66176SOL    HW1  425  11.563  12.388   7.045
66176SOL    HW2  426  11.571  12.399   7.195
66177SOL     OW  427   9.408  10.532   5.558
66177SOL    HW1  428   9.316  10.510   5.539
66177SOL    HW2  429   9.446  10.450   5.588
66178SOL     OW  430   7.477   7.220   6.415
66178SOL    HW1  431   7.568   7.227   6.384
66178SOL    HW2  432   7.472   7.280   6.489
66179SOL     OW  433   8.641   0.242  11.313
66179SOL    HW1  434   8.665   0.158  11.352
66179SOL    HW2  435   8.548   0.234  11.294
66180SOL     OW  436  11.868  10.254   1.927
66180SOL    HW1  437  11.832  10.172   1.962
66180SOL    HW2  438  11.909  10.229   1.844
66181SOL     OW  439   5.144   9.050  11.304
66181SOL    HW1  440   5.174   9.094  11.224
66181SOL    HW2  441   5.193   8.967  11.305
66182SOL     OW  442  14.657   0.152  14.732
66182SOL    HW1  443  14.677   0.164  14.639
66182SOL    HW2  444  14.591   0.082  14.734
66183SOL     OW  445   7.363   4.672  13.121
66183SOL    HW1  446   7.432   4.735  13.101
66183SOL    HW2  447   7.401   4.587  13.102
66184SOL     OW  448  14.687  10.995  12.064
66184SOL    HW1  449  14.666  10.946  12.143
66184SOL    HW2  450  14.741  10.935  12.012
66185SOL     OW  451  10.211   8.219  13.206
66185SOL    HW1  452  10.139   8.189  13.151
66185SOL    HW2  453  10.173   8.225  13.294
66186SOL     OW  454   8.799   7.908   5.971
66186SOL    HW1  455   8.873   7.871   5.922
66186SOL    HW2  456   8.741   7.943   5.904
66187SOL     OW  457  10.120   0.279   8.563
66187SOL    HW1  458  10.151   0.226   8.490
66187SOL    HW2  459  10.185   0.348   8.573
66188SOL     OW  460   3.811   0.357   5.948
66188SOL    HW1  461   3.797   0.276   5.997
66188SOL    HW2  462   3.906   0.365   5.943
66189SOL     OW  463   1.966  13.491   3.521
66189SOL    HW1  464   1.890  13.511   3.467
66189SOL    HW2  465   1.962  13.396   3.534
66190SOL     OW  466  13.529  11.240   3.604
66190SOL    HW1  467  13.449  11.198   3.634
66190SOL    HW2  468  13.556  11.295   3.678
66191SOL     OW  469   3.439   7.030   6.207
66191SOL    HW1  470   3.474   7.017   6.118
66191SOL    HW2  471   3.399   6.946   6.229
66192SOL     OW  472  14.235   8.478   7.884
66192SOL    HW1  473  14.212   8.530   7.807
66192SOL    HW2  474  14.324   8.506   7.906
66193SOL     OW  475   1.984   1.718   7.751
66193SOL    HW1  476   2.073   1.693   7.775
66193SOL    HW2  477   1.946   1.638   7.714
66194SOL     OW  478   8.549  11.598   5.762
66194SOL    HW1  479   8.575  11.515   5.804
66194SOL    HW2  480   8.562  11.664   5.830
66195SOL     OW  481   0.495   5.671  14.730
66195SOL    HW1  482   0.489   5.766  14.721
66195SOL    HW2  483   0.542   5.657  14.813
66196SOL     OW  484  12.302  11.198  13.828
66196SOL    HW1  485  12.305  11.170  13.736
66196SOL    HW2  486  12.394  11.211  13.852
66197SOL     OW  487   3.708   3.116   9.294
66197SOL    HW1  488   3.670   3.199   9.323
66197SOL    HW2  489   3.739   3.133   9.205
66198SOL     OW  490  10.866  12.132  10.624
66198SOL    HW1  491  10.837  12.077  10.551
66198SOL    HW2  492  10.798  12.198  10.633
66199SOL     OW  493  12.558   5.142   5.809
66199SOL    HW1  494  12.576   5.073   5.745
66199SOL    HW2  495  12.640   5.152   5.857
66200SOL     OW  496   6.094   1.969   6.949
66200SOL    HW1  497   6.001   1.948   6.951
66200SOL    HW2  498   6.127   1.925   6.871
66201SOL     OW  499   0.721   3.591   1.603
66201SOL    HW1  500   0.642   3.557   1.644
66201SOL    HW2  501   0.735   3.535   1.527
66202SOL     OW  502   7.596  11.520   1.651
66202SOL    HW1  503   7.501  11.510   1.652
66202SOL    HW2  504   7.618  11.544   1.561
66203SOL     OW  505  11.618  13.376   4.671
66203SOL    HW1  506  11.523  13.362   4.662
66203SOL    HW2  507  11.652  13.290   4.697
66204SOL     OW  508  13.189   6.297   4.737
66204SOL    HW1  509  13.165   6.388   4.717
66204SOL    HW2  510  13.106   6.257   4.765
66205SOL     OW  511   4.708   9.813   5.110
66205SOL    HW1  512   4.623   9.771   5.125
66205SOL    HW2  513   4.688   9.906   5.105
66206SOL     OW  514  11.043   0.411  13.379
66206SOL    HW1  515  11.087   0.369  13.305
66206SOL    HW2  516  11.079   0.367  13.456
66207SOL     OW  517  10.450   7.621  13.058
66207SOL    HW1  518  10.463   7.586  13.146
66207SOL    HW2  519  10.529   7.673  13.041
66208SOL     OW  520  11.891   7.867  10.660
66208SOL    HW1  521  11.866   7.776  10.679
66208SOL    HW2  522  11.933   7.897  10.740
66209SOL     OW  523   0.108  10.900   1.952
66209SOL    HW1  524   0.057  10.839   2.005
66209SOL    HW2  525   0.185  10.849   1.924
66210SOL     OW  526  12.320   3.715  11.465
66210SOL    HW1  527  12.246   3.701  11.525
66210SOL    HW2  528  12.302   3.657  11.391
66211SOL     OW  529   5.642   2.636   0.504
66211SOL    HW1  530   5.629   2.687   0.584
66211SOL    HW2  531   5.583   2.561   0.513
66212SOL     OW  532   0.089   1.700   5.592
66212SOL    HW1  533   0.109   1.662   5.678
66212SOL    HW2  534   0.023   1.767   5.611
66213SOL     OW  535   0.654  10.453   4.762
66213SOL    HW1  536   0.689  10.455   4.673
66213SOL    HW2  537   0.623  10.363   4.774
66214SOL     OW  538   5.452   8.410  12.469
66214SOL    HW1  539   5.505   8.470  12.521
66214SOL    HW2  540   5.515   8.359  12.419
66215SOL     OW  541   0.414   0.152   4.279
66215SOL    HW1  542   0.361   0.175   4.355
66215SOL    HW2  543   0.400   0.058   4.268
66216SOL     OW  544   6.550   8.759  12.196
66216SOL    HW1  545   6.481   8.783  12.135
66216SOL    HW2  546   6.628   8.746  12.142
66217SOL     OW  547   1.472   0.784   4.927
66217SOL    HW1  548   1.443   0.826   4.846
66217SOL    HW2  549   1.563   0.812   4.937
66218SOL     OW  550   1.360  10.231  11.203
66218SOL    HW1  551   1.392  10.152  11.246
66218SOL    HW2  552   1.411  10.237  11.123
66219SOL     OW  553   4.486   7.297  13.459
66219SOL    HW1  554   4.450   7.209  13.447
66219SOL    HW2  555   4.433   7.335  13.529
66220SOL     OW  556  13.410  13.281   7.120
66220SOL    HW1  557  13.472  13.217   7.156
66220SOL    HW2  558  13.326  13.258   7.160
66221SOL     OW  559  13.978   4.720  10.122
66221SOL    HW1  560  14.013   4.637  10.155
66221SOL    HW2  561  13.993   4.716  10.027
66222SOL     OW  562  11.362  10.731  11.994
66222SOL    HW1  563  11.436  10.774  11.950
66222SOL    HW2  564  11.398  10.650  12.029
66223SOL     OW  565   1.128  14.376  13.097
66223SOL    HW1  566   1.056  14.343  13.152
66223SOL    HW2  567   1.196  14.309  13.104
66224SOL     OW  568   5.359   8.225  10.942
66224SOL    HW1  569   5.332   8.134  10.954
66224SOL    HW2  570   5.408   8.247  11.021
66225SOL     OW  571   3.577   0.557   0.898
66225SOL    HW1  572   3.641   0.628   0.895
66225SOL    HW2  573   3.618   0.490   0.954
66226SOL     OW  574   3.166   1.711   6.029
66226SOL    HW1  575   3.233   1.758   6.080
66226SOL    HW2  576   3.086   1.721   6.080
66227SOL     OW  577  12.138   1.073   0.061
66227SOL    HW1  578  12.184   1.003   0.108
66227SOL    HW2  579  12.207   1.136   0.038
66228SOL     OW  580   3.109  14.057   3.565
66228SOL    HW1  581   3.151  13.971   3.576
66228SOL    HW2  582   3.182  14.117   3.552
66229SOL     OW  583   9.493   8.444   1.581
66229SOL    HW1  584   9.496   8.359   1.536
66229SOL    HW2  585   9.408   8.481   1.557
66230SOL     OW  586  14.097   7.603  14.610
66230SOL    HW1  587  14.064   7.647  14.532
66230SOL    HW2  588  14.020   7.590  14.666
66231SOL     OW  589   7.710   5.927  10.017
66231SOL    HW1  590   7.643   5.980  10.062
66231SOL    HW2  591   7.791   5.945  10.065
66232SOL     OW  592   2.113   4.978  12.411
66232SOL    HW1  593   2.046   4.932  12.461
66232SOL    HW2  594   2.196   4.941  12.442
66233SOL     OW  595   4.883  12.291   0.678
66233SOL    HW1  596   4.904  12.384   0.686
66233SOL    HW2  597   4.861  12.279   0.586
66234SOL     OW  598  10.220   4.488   3.109
66234SOL    HW1  599  10.215   4.512   3.202
66234SOL    HW2  600  10.136   4.516   3.073
66235SOL     OW  601  12.338   2.701   3.347
66235SOL    HW1  602  12.428   2.719   3.322
66235SOL    HW2  603  12.288   2.775   3.312
66236SOL     OW  604   8.154   3.841   0.160
66236SOL    HW1  605   8.082   3.901   0.142
66236SOL    HW2  606   8.143   3.817   0.252
66237SOL     OW  607  12.903  11.475   3.717
66237SOL    HW1  608  12.987  11.476   3.762
66237SOL    HW2  609  12.890  11.566   3.688
66238SOL     OW  610   0.530   8.250  14.462
66238SOL    HW1  611   0.493   8.167  14.433
66238SOL    HW2  612   0.494   8.262  14.550
66239SOL     OW  613   5.097   8.992   8.409
66239SOL    HW1  614   5.092   9.008   8.314
66239SOL    HW2  615   5.176   8.939   8.420
66240SOL     OW  616  11.247   3.034  10.071
66240SOL    HW1  617  11.249   2.940  10.055
66240SOL    HW2  618  11.156   3.059  10.053
66241SOL     OW  619  13.804  14.665  11.631
66241SOL    HW1  620  13.830  14.663  11.723
66241SOL    HW2  621  13.796  14.573  11.606
66242SOL     OW  622   8.631   9.866  14.126
66242SOL    HW1  623   8.590   9.952  14.117
66242SOL    HW2  624   8.725   9.884  14.128
66243SOL     OW  625  13.670   1.794   7.183
66243SOL    HW1  626  13.640   1.839   7.103
66243SOL    HW2  627  13.713   1.863   7.233
66244SOL     OW  628  10.422  10.470   3.323
66244SOL    HW1  629  10.363  10.534   3.283
66244SOL    HW2  630  10.406  10.390   3.274
66245SOL     OW  631   0.090   6.039   8.625
66245SOL    HW1  632   0.000   6.006   8.625
66245SOL    HW2  633   0.139   5.974   8.575
66246SOL     OW  634  10.710   7.924   0.844
66246SOL    HW1  635  10.744   7.887   0.762
66246SOL    HW2  636  10.752   8.010   0.850
66247SOL     OW  637  11.989  13.806   6.716
66247SOL    HW1  638  11.972  13.900   6.718
66247SOL    HW2  639  12.065  13.797   6.659
66248SOL     OW  640   6.832   4.054  14.234
66248SOL    HW1  641   6.838   3.959  14.220
66248SOL    HW2  642   6.913   4.076  14.280
66249SOL     OW  643  11.150  13.117  14.814
66249SOL    HW1  644  11.239  13.124  14.779
66249SOL    HW2  645  11.158  13.056   0.005
66250SOL     OW  646   3.953   8.493   0.786
66250SOL    HW1  647   3.952   8.587   0.769
66250SOL    HW2  648   3.897   8.482   0.863
66251SOL     OW  649  14.600   9.028   3.619
66251SOL    HW1  650  14.568   9.075   3.542
66251SOL    HW2  651  14.690   9.061   3.631
66252SOL     OW  652   0.653  13.561  12.336
66252SOL    HW1  653   0.620  13.549  12.247
66252SOL    HW2  654   0.586  13.614  12.379
66253SOL     OW  655   0.126   4.948   3.246
66253SOL    HW1  656   0.180   5.007   3.299
66253SOL    HW2  657   0.044   4.996   3.234
66254SOL     OW  658   8.202   6.684   8.533
66254SOL    HW1  659   8.169   6.646   8.614
66254SOL    HW2  660   8.229   6.773   8.557
66255SOL     OW  661   0.877   4.922  14.276
66255SOL    HW1  662   0.965   4.888  14.263
66255SOL    HW2  663   0.821   4.844  14.278
66256SOL     OW  664   1.302  13.590  14.625
66256SOL    HW1  665   1.287  13.587  14.719
66256SOL    HW2  666   1.235  13.532  14.588
66257SOL     OW  667   8.410   5.049  11.674
66257SOL    HW1  668   8.384   4.960  11.698
66257SOL    HW2  669   8.416   5.095  11.758
66258SOL     OW  670  10.800   5.717   3.338
66258SOL    HW1  671  10.725   5.714   3.397
66258SOL    HW2  672  10.799   5.632   3.294
66259SOL     OW  673   6.735   9.441   8.848
66259SOL    HW1  674   6.663   9.401   8.799
66259SOL    HW2  675   6.800   9.371   8.856
66260SOL     OW  676   7.573   2.127   7.843
66260SOL    HW1  677   7.503   2.154   7.903
66260SOL    HW2  678   7.632   2.203   7.841
66261SOL     OW  679  12.392   2.134   7.780
66261SOL    HW1  680  12.410   2.053   7.828
66261SOL    HW2  681  12.369   2.198   7.847
66262SOL     OW  682   1.841   5.790   1.135
66262SOL    HW1  683   1.778   5.717   1.132
66262SOL    HW2  684   1.856   5.812   1.043
66263SOL     OW  685  12.111   6.748   8.632
66263SOL    HW1  686  12.173   6.677   8.624
66263SOL    HW2  687  12.125   6.784   8.719
66264SOL     OW  688   0.365   7.840   7.125
66264SOL    HW1  689   0.457   7.837   7.100
66264SOL    HW2  690   0.365   7.869   7.216
66265SOL     OW  691  12.654   6.364  14.878
66265SOL    HW1  692  12.677   6.376  14.786
66265SOL    HW2  693  12.669   6.450   0.035
66266SOL     OW  694  13.129  11.532   3.095
66266SOL    HW1  695  13.110  11.622   3.122
66266SOL    HW2  696  13.211  11.539   3.046
66267SOL     OW  697   9.526   6.851   4.742
66267SOL    HW1  698   9.461   6.780   4.740
66267SOL    HW2  699   9.602   6.814   4.698
66268SOL     OW  700  13.139  11.423  13.176
66268SOL    HW1  701  13.068  11.487  13.165
66268SOL    HW2  702  13.185  11.424  13.092
66269SOL     OW  703   4.903   9.762   6.216
66269SOL    HW1  704   4.814   9.731   6.230
66269SOL    HW2  705   4.949   9.688   6.177
66270SOL     OW  706   8.750  11.597   2.770
66270SOL    HW1  707   8.708  11.682   2.778
66270SOL    HW2  708   8.767  11.570   2.861
66271SOL     OW  709   7.786   8.918   2.872
66271SOL    HW1  710   7.849   8.848   2.853
66271SOL    HW2  711   7.781   8.921   2.967
66272SOL     OW  712  10.500   2.615   5.135
66272SOL    HW1  713  10.508   2.710   5.133
66272SOL    HW2  714  10.446   2.593   5.059
66273SOL     OW  715  13.152   3.036   9.679
66273SOL    HW1  716  13.127   3.129   9.679
66273SOL    HW2  717  13.076   2.991   9.717
66274SOL     OW  718  14.143   5.870  14.240
66274SOL    HW1  719  14.109   5.945  14.192
66274SOL    HW2  720  14.238   5.877  14.233
66275SOL     OW  721   5.630   9.353  12.110
66275SOL    HW1  722   5.653   9.401  12.030
66275SOL    HW2  723   5.710   9.306  12.133
66276SOL     OW  724   7.319   4.246   0.253
66276SOL    HW1  725   7.336   4.269   0.162
66276SOL    HW2  726   7.307   4.151   0.253
66277SOL     OW  727   7.273  10.902   8.119
66277SOL    HW1  728   7.303  10.904   8.210
66277SOL    HW2  729   7.189  10.949   8.121
66278SOL     OW  730   7.891   7.158   5.239
66278SOL    HW1  731   7.976   7.131   5.273
66278SOL    HW2  732   7.869   7.092   5.174
66279SOL     OW  733   5.336   4.994   3.024
66279SOL    HW1  734   5.373   4.906   3.029
66279SOL    HW2  735   5.388   5.038   2.956
66280SOL     OW  736   8.373  13.477   4.528
66280SOL    HW1  737   8.407  13.402   4.577
66280SOL    HW2  738   8.444  13.541   4.529
66281SOL     OW  739   9.377   5.962  14.366
66281SOL    HW1  740   9.394   5.870  14.347
66281SOL    HW2  741   9.357   6.001  14.281
66282SOL     OW  742   0.675  13.727   6.478
66282SOL    HW1  743   0.729  13.805   6.488
66282SOL    HW2  744   0.648  13.705   6.567
66283SOL     OW  745   2.056   9.266   3.497
66283SOL    HW1  746   2.014   9.180   3.509
66283SOL    HW2  747   1.985   9.322   3.465
66284SOL     OW  748   5.029  12.951  13.457
66284SOL    HW1  749   5.035  12.911  13.370
66284SOL    HW2  750   5.101  13.014  13.459
66285SOL     OW  751   3.675  13.777  10.738
66285SOL    HW1  752   3.703  13.714  10.804
66285SOL    HW2  753   3.728  13.756  10.661
66286SOL     OW  754   6.779   3.884  10.700
66286SOL    HW1  755   6.689   3.856  10.717
66286SOL    HW2  756   6.790   3.964  10.752
66287SOL     OW  757  13.991   3.813  13.026
66287SOL    HW1  758  13.960   3.875  12.959
66287SOL    HW2  759  13.963   3.851  13.109
66288SOL     OW  760  12.955   2.054   5.132
66288SOL    HW1  761  12.948   1.959   5.137
66288SOL    HW2  762  12.939   2.084   5.221
66289SOL     OW  763   2.530  12.487  13.243
66289SOL    HW1  764   2.614  12.524  13.270
66289SOL    HW2  765   2.554  12.407  13.195
66290SOL     OW  766   6.735  10.736  12.468
66290SOL    HW1  767   6.669  10.803  12.486
66290SOL    HW2  768   6.810  10.785  12.433
66291SOL     OW  769  11.949   9.162  13.889
66291SOL    HW1  770  11.941   9.211  13.971
66291SOL    HW2  771  11.908   9.078  13.907
66292SOL     OW  772   3.239   2.861   0.643
66292SOL    HW1  773   3.251   2.856   0.738
66292SOL    HW2  774   3.230   2.770   0.615
66293SOL     OW  775   9.538  10.401   2.212
66293SOL    HW1  776   9.556  10.367   2.299
66293SOL    HW2  777   9.581  10.340   2.152
66294SOL     OW  778   6.518  13.004   7.020
66294SOL    HW1  779   6.600  12.957   7.003
66294SOL    HW2  780   6.524  13.084   6.968
66295SOL     OW  781  12.752  14.622  12.663
66295SOL    HW1  782  12.804  14.582  12.593
66295SOL    HW2  783  12.753  14.557  12.733
66296SOL     OW  784  12.823  10.115   8.384
66296SOL    HW1  785  12.882  10.133   8.311
66296SOL    HW2  786  12.738  10.098   8.343
66297SOL     OW  787   9.639   0.122   2.593
66297SOL    HW1  788   9.580   0.054   2.624
66297SOL    HW2  789   9.634   0.191   2.660
66298SOL     OW  790   6.427   8.490  11.561
66298SOL    HW1  791   6.335   8.514  11.550
66298SOL    HW2  792   6.476   8.565  11.528
66299SOL     OW  793   7.891   8.038   4.792
66299SOL    HW1  794   7.930   8.016   4.877
66299SOL    HW2  795   7.892   7.956   4.743
66300SOL     OW  796   7.188   8.518   7.840
66300SOL    HW1  797   7.190   8.471   7.756
66300SOL    HW2  798   7.194   8.448   7.906
66301SOL     OW  799   6.708   8.633   1.532
66301SOL    HW1  800   6.794   8.606   1.563
66301SOL    HW2  801   6.688   8.573   1.460
66302SOL     OW  802   6.091  14.583  10.794
66302SOL    HW1  803   6.098  14.642  10.719
66302SOL    HW2  804   6.101  14.640  10.870
66303SOL     OW  805  11.950  11.186   5.423
66303SOL    HW1  806  11.882  11.178   5.490
66303SOL    HW2  807  12.003  11.106   5.433
66304SOL     OW  808  13.954   7.123   5.409
66304SOL    HW1  809  14.005   7.077   5.476
66304SOL    HW2  810  13.900   7.055   5.369
66305SOL     OW  811  12.735   2.108  10.998
66305SOL    HW1  812  12.760   2.196  11.028
66305SOL    HW2  813  12.641   2.115  10.979
66306SOL     OW  814   5.686   8.017   2.261
66306SOL    HW1  815   5.683   7.954   2.190
66306SOL    HW2  816   5.690   7.964   2.341
66307SOL     OW  817   3.952  13.936   8.277
66307SOL    HW1  818   3.965  14.015   8.329
66307SOL    HW2  819   3.862  13.909   8.296
66308SOL     OW  820   5.978   1.728   7.317
66308SOL    HW1  821   5.959   1.695   7.229
66308SOL    HW2  822   5.987   1.650   7.371
66309SOL     OW  823   5.679   1.295  13.477
66309SOL    HW1  824   5.721   1.377  13.451
66309SOL    HW2  825   5.728   1.264  13.553
66310SOL     OW  826  12.043   0.795   9.036
66310SOL    HW1  827  12.026   0.713   8.988
66310SOL    HW2  828  12.128   0.781   9.078
66311SOL     OW  829   8.030   3.020  10.686
66311SOL    HW1  830   7.969   3.064  10.627
66311SOL    HW2  831   8.082   2.964  10.629
66312SOL     OW  832   0.784  10.908   1.637
66312SOL    HW1  833   0.768  10.900   1.731
66312SOL    HW2  834   0.872  10.872   1.625
66313SOL     OW  835   9.892  12.031   1.267
66313SOL    HW1  836   9.797  12.036   1.255
66313SOL    HW2  837   9.927  12.097   1.208
66314SOL     OW  838   9.003   4.362   9.675
66314SOL    HW1  839   9.008   4.436   9.735
66314SOL    HW2  840   9.065   4.298   9.711
66315SOL     OW  841   3.592   8.469   6.878
66315SOL    HW1  842   3.500   8.490   6.897
66315SOL    HW2  843   3.592   8.446   6.785
66316SOL     OW  844   5.492   7.160   1.255
66316SOL    HW1  845   5.496   7.224   1.184
66316SOL    HW2  846   5.404   7.124   1.251
66317SOL     OW  847   6.631   1.092   9.408
66317SOL    HW1  848   6.537   1.089   9.388
66317SOL    HW2  849   6.666   1.011   9.372
66318SOL     OW  850  10.988   3.297  10.985
66318SOL    HW1  851  10.947   3.340  10.911
66318SOL    HW2  852  10.925   3.231  11.013
66319SOL     OW  853   9.441  11.831   2.277
66319SOL    HW1  854   9.465  11.799   2.364
66319SOL    HW2  855   9.346  11.825   2.274
66320SOL     OW  856   4.279   2.052  11.543
66320SOL    HW1  857   4.256   2.142  11.566
66320SOL    HW2  858   4.294   2.009  11.627
66321SOL     OW  859  10.986   1.630   6.846
66321SOL    HW1  860  10.905   1.583   6.869
66321SOL    HW2  861  10.978   1.714   6.891
66322SOL     OW  862  14.721   3.967  14.702
66322SOL    HW1  863  14.756   3.999  14.618
66322SOL    HW2  864  14.798   3.961  14.759
66323SOL     OW  865   4.129  11.173  11.679
66323SOL    HW1  866   4.097  11.091  11.640
66323SOL    HW2  867   4.224  11.171  11.664
66324SOL     OW  868  10.504   0.452  14.589
66324SOL    HW1  869  10.597   0.429  14.577
66324SOL    HW2  870  10.478   0.404  14.667
66325SOL     OW  871   9.798   6.514  12.047
66325SOL    HW1  872   9.818   6.447  12.113
66325SOL    HW2  873   9.725   6.477  11.997
66326SOL     OW  874   6.864   1.355  13.999
66326SOL    HW1  875   6.896   1.270  13.969
66326SOL    HW2  876   6.776   1.362  13.961
66327SOL     OW  877   1.431   6.184   2.655
66327SOL    HW1  878   1.410   6.222   2.570
66327SOL    HW2  879   1.414   6.090   2.644
66328SOL     OW  880   4.423  13.223  13.396
66328SOL    HW1  881   4.441  13.162  13.324
66328SOL    HW2  882   4.345  13.271  13.369
66329SOL     OW  883   6.247  10.256   1.888
66329SOL    HW1  884   6.297  10.322   1.840
66329SOL    HW2  885   6.176  10.232   1.829
66330SOL     OW  886  13.971   3.421  14.504
66330SOL    HW1  887  14.046   3.408  14.446
66330SOL    HW2  888  13.911   3.475  14.453
66331SOL     OW  889   7.818  11.048  13.534
66331SOL    HW1  890   7.902  11.093  13.527
66331SOL    HW2  891   7.758  11.101  13.481
66332SOL     OW  892   4.318  11.684   0.414
66332SOL    HW1  893   4.375  11.690   0.490
66332SOL    HW2  894   4.365  11.627   0.353
66333SOL     OW  895   9.114   4.448   2.657
66333SOL    HW1  896   9.035   4.442   2.604
66333SOL    HW2  897   9.085   4.482   2.741
66334SOL     OW  898   7.665  11.020  10.250
66334SOL    HW1  899   7.676  10.931  10.218
66334SOL    HW2  900   7.749  11.062  10.233
66335SOL     OW  901   2.402  12.510  12.470
66335SOL    HW1  902   2.414  12.551  12.384
66335SOL    HW2  903   2.314  12.538  12.498
66336SOL     OW  904  10.201   3.531   9.487
66336SOL    HW1  905  10.240   3.463   9.433
66336SOL    HW2  906  10.202   3.496   9.576
66337SOL     OW  907   5.726   4.897  11.603
66337SOL    HW1  908   5.684   4.930  11.683
66337SOL    HW2  909   5.816   4.879  11.629
66338SOL     OW  910  14.352   4.284   2.579
66338SOL    HW1  911  14.308   4.236   2.509
66338SOL    HW2  912  14.402   4.351   2.534
66339SOL     OW  913  10.591   1.895   1.371
66339SOL    HW1  914  10.580   1.800   1.373
66339SOL    HW2  915  10.513   1.928   1.326
66340SOL     OW  916   9.870  13.052   3.854
66340SOL    HW1  917   9.856  12.966   3.893
66340SOL    HW2  918   9.787  13.073   3.812
66341SOL     OW  919   2.675   5.618   4.180
66341SOL    HW1  920   2.698   5.666   4.101
66341SOL    HW2  921   2.604   5.669   4.219
66342SOL     OW  922   3.374  10.742  10.597
66342SOL    HW1  923   3.462  10.757  10.631
66342SOL    HW2  924   3.321  10.724  10.674
66343SOL     OW  925  10.911  10.559   7.114
66343SOL    HW1  926  10.920  10.621   7.186
66343SOL    HW2  927  10.858  10.488   7.150
66344SOL     OW  928   3.283  13.412   1.784
66344SOL    HW1  929   3.355  13.474   1.790
66344SOL    HW2  930   3.324  13.330   1.755
66345SOL     OW  931   9.145   9.903   6.826
66345SOL    HW1  932   9.174   9.993   6.818
66345SOL    HW2  933   9.049   9.908   6.832
66346SOL     OW  934   6.311   4.629   0.962
66346SOL    HW1  935   6.368   4.595   1.030
66346SOL    HW2  936   6.349   4.713   0.937
66347SOL     OW  937   3.682  11.494   3.793
66347SOL    HW1  938   3.643  11.539   3.868
66347SOL    HW2  939   3.776  11.499   3.808
66348SOL     OW  940  13.973  10.798   7.932
66348SOL    HW1  941  14.018  10.879   7.955
66348SOL    HW2  942  13.997  10.737   8.001
66349SOL     OW  943  10.310   7.981   5.008
66349SOL    HW1  944  10.243   8.002   5.074
66349SOL    HW2  945  10.369   8.056   5.008
66350SOL     OW  946   1.587   0.757  10.237
66350SOL    HW1  947   1.625   0.724  10.156
66350SOL    HW2  948   1.603   0.851  10.235
66351SOL     OW  949   9.138   9.810  10.020
66351SOL    HW1  950   9.077   9.862   9.968
66351SOL    HW2  951   9.184   9.756   9.956
66352SOL     OW  952   5.225   4.845   4.752
66352SOL    HW1  953   5.264   4.910   4.810
66352SOL    HW2  954   5.193   4.895   4.677
66353SOL     OW  955  11.640   5.794   7.235
66353SOL    HW1  956  11.712   5.805   7.173
66353SOL    HW2  957  11.678   5.813   7.320
66354SOL     OW  958   9.858   6.994   1.758
66354SOL    HW1  959   9.842   7.018   1.850
66354SOL    HW2  960   9.842   6.900   1.755
66355SOL     OW  961   3.947   2.352   9.880
66355SOL    HW1  962   3.992   2.370   9.798
66355SOL    HW2  963   3.982   2.267   9.909
66356SOL     OW  964  12.565   2.208  14.046
66356SOL    HW1  965  12.620   2.204  13.968
66356SOL    HW2  966  12.481   2.241  14.015
66357SOL     OW  967   8.243  12.064   6.504
66357SOL    HW1  968   8.222  12.037   6.594
66357SOL    HW2  969   8.169  12.032   6.452
66358SOL     OW  970   3.008  12.654   6.647
66358SOL    HW1  971   3.062  12.645   6.568
66358SOL    HW2  972   2.930  12.601   6.629
66359SOL     OW  973   1.501   2.140  11.285
66359SOL    HW1  974   1.421   2.093  11.261
66359SOL    HW2  975   1.496   2.223  11.238
66360SOL     OW  976  12.412   5.158  11.019
66360SOL    HW1  977  12.433   5.122  11.105
66360SOL    HW2  978  12.496   5.190  10.986
66361SOL     OW  979   5.336   3.803  13.601
66361SOL    HW1  980   5.422   3.828  13.567
66361SOL    HW2  981   5.322   3.713  13.570
66362SOL     OW  982  11.048   1.773  14.300
66362SOL    HW1  983  11.025   1.854  14.255
66362SOL    HW2  984  10.977   1.759  14.362
66363SOL     OW  985   9.527  14.023  10.327
66363SOL    HW1  986   9.541  13.982  10.242
66363SOL    HW2  987   9.582  14.102  10.324
66364SOL     OW  988   3.015   6.061   9.026
66364SOL    HW1  989   2.961   6.088   8.952
66364SOL    HW2  990   3.028   6.141   9.077
66365SOL     OW  991   9.771  10.404   9.883
66365SOL    HW1  992   9.834  10.337   9.911
66365SOL    HW2  993   9.687  10.375   9.920
66366SOL     OW  994  14.510   7.401  14.650
66366SOL    HW1  995  14.463   7.483  14.663
66366SOL    HW2  996  14.602   7.424  14.656
66367SOL     OW  997   1.516  10.669  12.229
66367SOL    HW1  998   1.428  10.662  12.266
66367SOL    HW2  999   1.513  10.748  12.175
66368SOL     OW 1000   1.725   4.511   7.471
66368SOL    HW1 1001   1.706   4.442   7.534
66368SOL    HW2 1002   1.788   4.568   7.517
66369SOL     OW 1003   2.224  14.460   0.790
66369SOL    HW1 1004   2.298  14.520   0.785
66369SOL    HW2 1005   2.224  14.429   0.880
66370SOL     OW 1006  11.615   6.421   4.378
66370SOL    HW1 1007  11.583   6.399   4.291
66370SOL    HW2 1008  11.574   6.355   4.435
66371SOL     OW 1009   5.619   6.303   3.843
66371SOL    HW1 1010   5.612   6.332   3.934
66371SOL    HW2 1011   5.635   6.209   3.849
66372SOL     OW 1012   6.467   9.304   4.489
66372SOL    HW1 1013   6.514   9.228   4.523
66372SOL    HW2 1014   6.394   9.317   4.549
66373SOL     OW 1015  14.789   0.822   9.814
66373SOL    HW1 1016  14.881   0.850   9.819
66373SOL    HW2 1017  14.794   0.727   9.805
66374SOL     OW 1018   3.833   7.102  14.688
66374SOL    HW1 1019   3.916   7.054  14.689
66374SOL    HW2 1020   3.778   7.056  14.752
66375SOL     OW 1021   9.848   8.552  10.831
66375SOL    HW1 1022   9.863   8.472  10.780
66375SOL    HW2 1023   9.759   8.544  10.864
66376SOL     OW 1024   4.494   5.052   3.853
66376SOL    HW1 1025   4.451   4.990   3.911
66376SOL    HW2 1026   4.586   5.027   3.854
66377SOL     OW 1027   6.868   5.919  14.262
66377SOL    HW1 1028   6.899   5.831  14.281
66377SOL    HW2 1029   6.905   5.974  14.331
66378SOL     OW 1030   4.735  11.444   4.754
66378SOL    HW1 1031   4.717  11.421   4.846
66378SOL    HW2 1032   4.707  11.367   4.705
66379SOL     OW 1033  13.276   8.523   3.549
66379SOL    HW1 1034  13.317   8.476   3.477
66379SOL    HW2 1035  13.211   8.579   3.507
66380SOL     OW 1036   5.098   3.678   6.679
66380SOL    HW1 1037   5.018   3.695   6.729
66380SOL    HW2 1038   5.110   3.584   6.684
66381SOL     OW 1039   3.465   3.495   8.078
66381SOL    HW1 1040   3.416   3.568   8.115
66381SOL    HW2 1041   3.548   3.495   8.127
66382SOL     OW 1042   7.749  13.865   2.217
66382SOL    HW1 1043   7.659  13.894   2.229
66382SOL    HW2 1044   7.789  13.933   2.162
66383SOL     OW 1045  14.613   1.097   7.935
66383SOL    HW1 1046  14.672   1.091   7.860
66383SOL    HW2 1047  14.528   1.071   7.900
66384SOL     OW 1048   0.478   6.486  14.029
66384SOL    HW1 1049   0.418   6.467  14.101
66384SOL    HW2 1050   0.555   6.524  14.071
66385SOL     OW 1051  13.299  14.382   4.893
66385SOL    HW1 1052  13.282  14.320   4.964
66385SOL    HW2 1053  13.275  14.333   4.814
66386SOL     OW 1054  11.610   2.249   9.162
66386SOL    HW1 1055  11.602   2.168   9.112
66386SOL    HW2 1056  11.570   2.315   9.105
66387SOL     OW 1057  12.345   5.561   8.665
66387SOL    HW1 1058  12.376   5.478   8.702
66387SOL    HW2 1059  12.255   5.569   8.696
66388SOL     OW 1060  11.912  11.491   8.843
66388SOL    HW1 1061  11.996  11.537   8.837
66388SOL    HW2 1062  11.847  11.562   8.846
66389SOL     OW 1063  12.127  14.512  11.900
66389SOL    HW1 1064  12.219  14.484  11.899
66389SOL    HW2 1065  12.129  14.600  11.937
66390SOL     OW 1066   7.313   7.997  12.553
66390SOL    HW1 1067   7.305   7.918  12.500
66390SOL    HW2 1068   7.404   8.026  12.539
66391SOL     OW 1069   2.132   6.890   6.151
66391SOL    HW1 1070   2.203   6.828   6.137
66391SOL    HW2 1071   2.159   6.939   6.229
66392SOL     OW 1072  13.552   2.460   1.003
66392SOL    HW1 1073  13.503   2.379   1.022
66392SOL    HW2 1074  13.598   2.479   1.085
66393SOL     OW 1075   9.739   9.580  11.976
66393SOL    HW1 1076   9.711   9.529  11.899
66393SOL    HW2 1077   9.811   9.634  11.945
66394SOL     OW 1078   8.218   8.727  13.476
66394SOL    HW1 1079   8.169   8.766  13.548
66394SOL    HW2 1080   8.256   8.801  13.430
66395SOL     OW 1081   8.413   4.744   9.409
66395SOL    HW1 1082   8.382   4.743   9.500
66395SOL    HW2 1083   8.449   4.657   9.394
66396SOL     OW 1084  12.159   3.267   7.478
66396SOL    HW1 1085  12.072   3.267   7.518
66396SOL    HW2 1086  12.214   3.218   7.540
66397SOL     OW 1087   1.039   8.301  11.885
66397SOL    HW1 1088   1.010   8.216  11.917
66397SOL    HW2 1089   1.130   8.308  11.915
66398SOL     OW 1090   6.738   7.001  12.083
66398SOL    HW1 1091   6.809   6.970  12.027
66398SOL    HW2 1092   6.696   7.071  12.032
66399SOL     OW 1093  13.067   9.698  12.961
66399SOL    HW1 1094  12.991   9.712  13.019
66399SOL    HW2 1095  13.133   9.658  13.018
66400SOL     OW 1096  13.868  14.666  10.470
66400SOL    HW1 1097  13.846  14.587  10.520
66400SOL    HW2 1098  13.835  14.738  10.524
66401SOL     OW 1099   1.096   0.811   7.616
66401SOL    HW1 1100   1.040   0.762   7.556
66401SOL    HW2 1101   1.040   0.882   7.647
66402SOL     OW 1102   8.123  14.829   5.885
66402SOL    HW1 1103   8.121  14.856   5.793
66402SOL    HW2 1104   8.212  14.796   5.898
66403SOL     OW 1105   4.707   2.693   7.524
66403SOL    HW1 1106   4.647   2.765   7.506
66403SOL    HW2 1107   4.654   2.628   7.570
66404SOL     OW 1108  14.320  10.214   0.824
66404SOL    HW1 1109  14.239  10.182   0.862
66404SOL    HW2 1110  14.358  10.137   0.781
66405SOL     OW 1111   9.417  12.286   4.996
66405SOL    HW1 1112   9.476  12.223   5.039
66405SOL    HW2 1113   9.407  12.357   5.060
66406SOL     OW 1114  10.658   3.948   9.659
66406SOL    HW1 1115  10.596   4.015   9.631
66406SOL    HW2 1116  10.668   3.892   9.583
66407SOL     OW 1117  11.736   9.301   0.494
66407SOL    HW1 1118  11.680   9.281   0.569
66407SOL    HW2 1119  11.691   9.262   0.419
66408SOL     OW 1120   2.999   9.917   3.543
66408SOL    HW1 1121   3.064   9.983   3.568
66408SOL    HW2 1122   3.028   9.838   3.588
66409SOL     OW 1123  14.267  14.713  14.703
66409SOL    HW1 1124  14.330  14.731  14.774
66409SOL    HW2 1125  14.220  14.635  14.733
66410SOL     OW 1126   7.990   4.252   0.232
66410SOL    HW1 1127   7.936   4.330   0.248
66410SOL    HW2 1128   7.939   4.180   0.269
66411SOL     OW 1129   8.771  11.002  14.607
66411SOL    HW1 1130   8.774  10.907  14.603
66411SOL    HW2 1131   8.737  11.029  14.522
66412SOL     OW 1132   1.667   2.699   5.676
66412SOL    HW1 1133   1.710   2.735   5.754
66412SOL    HW2 1134   1.693   2.607   5.675
66413SOL     OW 1135   9.605   7.922  14.667
66413SOL    HW1 1136   9.556   7.985  14.615
66413SOL    HW2 1137   9.697   7.949  14.658
66414SOL     OW 1138   5.157  12.974  12.139
66414SOL    HW1 1139   5.210  12.909  12.094
66414SOL    HW2 1140   5.208  13.055  12.133
66415SOL     OW 1141  13.160  10.725   9.035
66415SOL    HW1 1142  13.103  10.725   9.112
66415SOL    HW2 1143  13.225  10.657   9.054
66416SOL     OW 1144  10.802  11.415   2.170
66416SOL    HW1 1145  10.718  11.450   2.202
66416SOL    HW2 1146  10.830  11.478   2.104
66417SOL     OW 1147   6.256  10.139  14.527
66417SOL    HW1 1148   6.177  10.168  14.480
66417SOL    HW2 1149   6.238  10.160  14.619
66418SOL     OW 1150   5.923  12.749   0.413
66418SOL    HW1 1151   5.904  12.781   0.502
66418SOL    HW2 1152   6.018  12.756   0.405
66419SOL     OW 1153  13.352   4.792   1.744
66419SOL    HW1 1154  13.288   4.735   1.787
66419SOL    HW2 1155  13.300   4.863   1.707
66420SOL     OW 1156  12.587   1.409  10.005
66420SOL    HW1 1157  12.615   1.498  10.023
66420SOL    HW2 1158  12.656   1.373   9.949
66421SOL     OW 1159   6.106   1.445   9.218
66421SOL    HW1 1160   6.038   1.485   9.272
66421SOL    HW2 1161   6.162   1.398   9.280
66422SOL     OW 1162   8.041   0.111   6.478
66422SOL    HW1 1163   8.115   0.151   6.525
66422SOL    HW2 1164   7.984   0.078   6.548
66423SOL     OW 1165   7.344   5.496   9.867
66423SOL    HW1 1166   7.312   5.557   9.933
66423SOL    HW2 1167   7.292   5.417   9.880
66424SOL     OW 1168  12.997   6.159  12.081
66424SOL    HW1 1169  12.994   6.067  12.055
66424SOL    HW2 1170  13.029   6.157  12.171
66425SOL     OW 1171  10.909   9.172   8.403
66425SOL    HW1 1172  10.918   9.202   8.313
66425SOL    HW2 1173  10.936   9.080   8.400
66426SOL     OW 1174  11.940  12.863   0.328
66426SOL    HW1 1175  12.015  12.916   0.354
66426SOL    HW2 1176  11.938  12.870   0.232
66427SOL     OW 1177   8.594   6.527  12.994
66427SOL    HW1 1178   8.608   6.621  12.991
66427SOL    HW2 1179   8.553   6.511  13.078
66428SOL     OW 1180   2.759   8.894   7.980
66428SOL    HW1 1181   2.756   8.989   7.964
66428SOL    HW2 1182   2.764   8.886   8.075
66429SOL     OW 1183   7.238   6.577  14.790
66429SOL    HW1 1184   7.302   6.576  14.861
66429SOL    HW2 1185   7.168   6.521  14.820
66430SOL     OW 1186   1.402   5.085  10.450
66430SOL    HW1 1187   1.473   5.021  10.447
66430SOL    HW2 1188   1.412   5.136  10.371
66431SOL     OW 1189   0.025   3.415   0.124
66431SOL    HW1 1190  14.825   3.376   0.093
66431SOL    HW2 1191   0.040   3.376   0.210
66432SOL     OW 1192   8.496   4.965   4.934
66432SOL    HW1 1193   8.448   5.025   4.992
66432SOL    HW2 1194   8.524   5.021   4.862
66433SOL     OW 1195   5.302   4.819  12.982
66433SOL    HW1 1196   5.305   4.726  13.004
66433SOL    HW2 1197   5.281   4.821  12.889
66434SOL     OW 1198   6.335   8.173   5.995
66434SOL    HW1 1199   6.261   8.212   6.041
66434SOL    HW2 1200   6.322   8.199   5.903
66435SOL     OW 1201   1.690  12.676   2.275
66435SOL    HW1 1202   1.695  12.762   2.234
66435SOL    HW2 1203   1.722  12.615   2.209
66436SOL     OW 1204   6.836  14.056  11.902
66436SOL    HW1 1205   6.807  14.141  11.936
66436SOL    HW2 1206   6.930  14.055  11.918
66437SOL     OW 1207   2.862  10.685   4.255
66437SOL    HW1 1208   2.793  10.671   4.321
66437SOL    HW2 1209   2.853  10.610   4.196
66438SOL     OW 1210   0.249   0.549  14.120
66438SOL    HW1 1211   0.273   0.632  14.160
66438SOL    HW2 1212   0.326   0.521  14.071
66439SOL     OW 1213   1.131  14.603   1.185
66439SOL    HW1 1214   1.101  14.682   1.140
66439SOL    HW2 1215   1.129  14.626   1.278
66440SOL     OW 1216   0.384  13.201  12.982
66440SOL    HW1 1217   0.304  13.233  13.023
66440SOL    HW2 1218   0.415  13.132  13.039
66441SOL     OW 1219  13.433  10.194  14.005
66441SOL    HW1 1220  13.405  10.210  14.095
66441SOL    HW2 1221  13.529  10.185  14.011
66442SOL     OW 1222   6.771   2.572   0.912
66442SOL    HW1 1223   6.760   2.643   0.850
66442SOL    HW2 1224   6.756   2.492   0.861
66443SOL     OW 1225  13.113   3.002   2.905
66443SOL    HW1 1226  13.089   3.087   2.869
66443SOL    HW2 1227  13.066   2.998   2.989
66444SOL     OW 1228   2.909   0.480   6.851
66444SOL    HW1 1229   2.915   0.460   6.945
66444SOL    HW2 1230   2.819   0.458   6.828
66445SOL     OW 1231   4.266  11.315  10.456
66445SOL    HW1 1232   4.217  11.249  10.407
66445SOL    HW2 1233   4.266  11.283  10.546
66446SOL     OW 1234   0.593   1.839   2.520
66446SOL    HW1 1235   0.620   1.766   2.464
66446SOL    HW2 1236   0.634   1.821   2.604
66447SOL     OW 1237   0.273  13.301   6.000
66447SOL    HW1 1238   0.293  13.384   5.956
66447SOL    HW2 1239   0.336  13.239   5.964
66448SOL     OW 1240  12.824   5.694  11.508
66448SOL    HW1 1241  12.865   5.780  11.498
66448SOL    HW2 1242  12.897   5.635  11.529
66449SOL     OW 1243   0.114   2.180   0.093
66449SOL    HW1 1244   0.045   2.168   0.028
66449SOL    HW2 1245   0.069   2.211   0.171
66450SOL     OW 1246   8.802   6.910   7.374
66450SOL    HW1 1247   8.761   6.921   7.287
66450SOL    HW2 1248   8.883   6.959   7.368
66451SOL     OW 1249   6.939   9.599   5.497
66451SOL    HW1 1250   6.876   9.638   5.436
66451SOL    HW2 1251   7.024   9.630   5.464
66452SOL     OW 1252  12.367   0.516   5.523
66452SOL    HW1 1253  12.458   0.497   5.504
66452SOL    HW2 1254  12.370   0.578   5.596
66453SOL     OW 1255   0.765   0.772  14.419
66453SOL    HW1 1256   0.670   0.769  14.425
66453SOL    HW2 1257   0.787   0.718  14.343
66454SOL     OW 1258   0.483  14.200   0.742
66454SOL    HW1 1259   0.571  14.163   0.740
66454SOL    HW2 1260   0.466  14.218   0.834
66455SOL     OW 1261   1.842  12.846  13.984
66455SOL    HW1 1262   1.909  12.873  14.047
66455SOL    HW2 1263   1.876  12.763  13.948
66456SOL     OW 1264   8.364   2.931   5.527
66456SOL    HW1 1265   8.380   3.007   5.469
66456SOL    HW2 1266   8.296   2.881   5.482
66457SOL     OW 1267   4.990  10.359   7.820
66457SOL    HW1 1268   4.966  10.283   7.874
66457SOL    HW2 1269   4.945  10.345   7.737
66458SOL     OW 1270   2.636   2.103  13.750
66458SOL    HW1 1271   2.644   2.197  13.765
66458SOL    HW2 1272   2.643   2.093  13.655
66459SOL     OW 1273  13.293   4.260   8.934
66459SOL    HW1 1274  13.210   4.279   8.978
66459SOL    HW2 1275  13.324   4.345   8.903
66460SOL     OW 1276   4.461   4.113   2.356
66460SOL    HW1 1277   4.408   4.186   2.324
66460SOL    HW2 1278   4.447   4.043   2.292
66461SOL     OW 1279   4.203   3.825   6.794
66461SOL    HW1 1280   4.122   3.807   6.841
66461SOL    HW2 1281   4.185   3.905   6.744
66462SOL     OW 1282   8.372  14.485  10.081
66462SOL    HW1 1283   8.373  14.451  10.170
66462SOL    HW2 1284   8.446  14.547  10.078
66463SOL     OW 1285   5.283  13.131  10.088
66463SOL    HW1 1286   5.304  13.212  10.043
66463SOL    HW2 1287   5.335  13.134  10.169
66464SOL     OW 1288  13.768   3.016   8.012
66464SOL    HW1 1289  13.778   3.065   8.093
66464SOL    HW2 1290  13.673   3.013   7.998
66465SOL     OW 1291   8.627   6.698   6.121
66465SOL    HW1 1292   8.584   6.666   6.042
66465SOL    HW2 1293   8.613   6.628   6.185
66466SOL     OW 1294  14.640   5.223   6.248
66466SOL    HW1 1295  14.726   5.261   6.268
66466SOL    HW2 1296  14.607   5.275   6.175
66467SOL     OW 1297  10.973  13.103   9.229
66467SOL    HW1 1298  10.968  13.115   9.134
66467SOL    HW2 1299  10.890  13.061   9.252
66468SOL     OW 1300   2.553   9.524   5.753
66468SOL    HW1 1301   2.511   9.438   5.756
66468SOL    HW2 1302   2.596   9.526   5.667
66469SOL     OW 1303   7.185  12.382  10.147
66469SOL    HW1 1304   7.221  12.366  10.234
66469SOL    HW2 1305   7.258  12.362  10.088
66470SOL     OW 1306  11.464   0.142   0.144
66470SOL    HW1 1307  11.426   0.196   0.214
66470SOL    HW2 1308  11.478   0.202   0.071
66471SOL     OW 1309  12.131   0.589   9.660
66471SOL    HW1 1310  12.048   0.581   9.706
66471SOL    HW2 1311  12.108   0.621   9.573
66472SOL     OW 1312   6.316   2.056   3.484
66472SOL    HW1 1313   6.305   2.137   3.533
66472SOL    HW2 1314   6.385   2.075   3.421
66473SOL     OW 1315   5.326  14.071   2.926
66473SOL    HW1 1316   5.355  14.114   2.845
66473SOL    HW2 1317   5.359  13.982   2.919
66474SOL     OW 1318   5.252   3.991  12.680
66474SOL    HW1 1319   5.347   4.004  12.668
66474SOL    HW2 1320   5.228   4.055  12.747
66475SOL     OW 1321   2.923   8.593   9.838
66475SOL    HW1 1322   2.985   8.663   9.818
66475SOL    HW2 1323   2.838   8.627   9.811
66476SOL     OW 1324   2.934  11.779  12.289
66476SOL    HW1 1325   2.926  11.763  12.383
66476SOL    HW2 1326   3.025  11.806  12.276
66477SOL     OW 1327   4.738   3.190   8.484
66477SOL    HW1 1328   4.675   3.256   8.512
66477SOL    HW2 1329   4.809   3.239   8.443
66478SOL     OW 1330   9.418   4.161  10.462
66478SOL    HW1 1331   9.414   4.217  10.384
66478SOL    HW2 1332   9.503   4.181  10.501
66479SOL     OW 1333  10.332  10.418   4.276
66479SOL    HW1 1334  10.370  10.350   4.331
66479SOL    HW2 1335  10.243  10.429   4.309
66480SOL     OW 1336   7.649   8.259   7.317
66480SOL    HW1 1337   7.690   8.207   7.385
66480SOL    HW2 1338   7.556   8.260   7.341
66481SOL     OW 1339   0.886   5.269   3.525
66481SOL    HW1 1340   0.898   5.357   3.560
66481SOL    HW2 1341   0.803   5.274   3.477
66482SOL     OW 1342  10.318   5.541  14.303
66482SOL    HW1 1343  10.372   5.585  14.369
66482SOL    HW2 1344  10.257   5.609  14.274
66483SOL     OW 1345   6.450  14.181   0.920
66483SOL    HW1 1346   6.487  14.248   0.976
66483SOL    HW2 1347   6.517  14.112   0.917
66484SOL     OW 1348   2.555   4.696   4.253
66484SOL    HW1 1349   2.535   4.605   4.275
66484SOL    HW2 1350   2.475   4.744   4.274
66485SOL     OW 1351   9.991  12.550   2.304
66485SOL    HW1 1352  10.081  12.522   2.317
66485SOL    HW2 1353   9.980  12.554   2.209
66486SOL     OW 1354   1.615   3.813  11.971
66486SOL    HW1 1355   1.678   3.748  12.000
66486SOL    HW2 1356   1.613   3.805  11.876
66487SOL     OW 1357   9.291   0.619   6.507
66487SOL    HW1 1358   9.349   0.593   6.435
66487SOL    HW2 1359   9.227   0.677   6.467
66488SOL     OW 1360  14.043   3.343  11.351
66488SOL    HW1 1361  14.089   3.277  11.402
66488SOL    HW2 1362  13.967   3.367  11.405
66489SOL     OW 1363   5.166   3.237   5.572
66489SOL    HW1 1364   5.110   3.208   5.500
66489SOL    HW2 1365   5.109   3.296   5.623
66490SOL     OW 1366   1.675   4.430  12.122
66490SOL    HW1 1367   1.621   4.506  12.144
66490SOL    HW2 1368   1.754   4.468  12.083
66491SOL     OW 1369  12.495   8.193  10.890
66491SOL    HW1 1370  12.481   8.286  10.909
66491SOL    HW2 1371  12.500   8.188  10.795
66492SOL     OW 1372  11.412   8.164   4.301
66492SOL    HW1 1373  11.355   8.210   4.240
66492SOL    HW2 1374  11.497   8.207   4.292
66493SOL     OW 1375  14.408   2.759   5.073
66493SOL    HW1 1376  14.431   2.839   5.121
66493SOL    HW2 1377  14.331   2.725   5.120
66494SOL     OW 1378   2.283  11.248   2.095
66494SOL    HW1 1379   2.255  11.244   2.186
66494SOL    HW2 1380   2.335  11.328   2.089
66495SOL     OW 1381  12.242   8.072  10.725
66495SOL    HW1 1382  12.206   8.088  10.812
66495SOL    HW2 1383  12.277   8.157  10.697
66496SOL     OW 1384   4.076   5.544  13.586
66496SOL    HW1 1385   4.095   5.602  13.659
66496SOL    HW2 1386   3.982   5.530  13.590
66497SOL     OW 1387   7.074   8.195   6.100
66497SOL    HW1 1388   7.157   8.160   6.068
66497SOL    HW2 1389   7.046   8.258   6.033
66498SOL     OW 1390   2.684  12.709   8.649
66498SOL    HW1 1391   2.613  12.759   8.608
66498SOL    HW2 1392   2.751  12.702   8.581
66499SOL     OW 1393   7.936   6.369  14.796
66499SOL    HW1 1394   7.893   6.317  14.729
66499SOL    HW2 1395   7.959   6.451  14.753
66500SOL     OW 1396   5.982   9.563   6.956
66500SOL    HW1 1397   6.043   9.605   6.896
66500SOL    HW2 1398   5.950   9.487   6.909
66501SOL     OW 1399  12.751  14.275   3.520
66501SOL    HW1 1400  12.799  14.358   3.526
66501SOL    HW2 1401  12.746  14.257   3.427
66502SOL     OW 1402  14.594   4.113   4.495
66502SOL    HW1 1403  14.553   4.102   4.410
66502SOL    HW2 1404  14.645   4.034   4.508
66503SOL     OW 1405  12.074   2.103   3.673
66503SOL    HW1 1406  12.068   2.086   3.768
66503SOL    HW2 1407  12.012   2.174   3.658
66504SOL     OW 1408  14.457   4.473   8.599
66504SOL    HW1 1409  14.552   4.459   8.595
66504SOL    HW2 1410  14.427   4.418   8.672
66505SOL     OW 1411   3.242   6.607  12.222
66505SOL    HW1 1412   3.293   6.687  12.208
66505SOL    HW2 1413   3.271   6.574  12.307
66506SOL     OW 1414  14.027   2.261   2.097
66506SOL    HW1 1415  13.985   2.298   2.019
66506SOL    HW2 1416  14.049   2.171   2.073
66507SOL     OW 1417   0.767   7.925  13.132
66507SOL    HW1 1418   0.857   7.928  13.101
66507SOL    HW2 1419   0.714   7.917  13.053
66508SOL     OW 1420   9.695   8.002   6.503
66508SOL    HW1 1421   9.682   8.085   6.458
66508SOL    HW2 1422   9.785   8.005   6.535
66509SOL     OW 1423  11.512  14.516   3.651
66509SOL    HW1 1424  11.603  14.500   3.674
66509SOL    HW2 1425  11.481  14.433   3.614
66510SOL     OW 1426   2.403  10.161  11.679
66510SOL    HW1 1427   2.423  10.229  11.744
66510SOL    HW2 1428   2.426  10.201  11.595
66511SOL     OW 1429   9.912  12.323  13.844
66511SOL    HW1 1430   9.891  12.380  13.918
66511SOL    HW2 1431   9.862  12.243  13.860
66512SOL     OW 1432   0.977  14.436   8.313
66512SOL    HW1 1433   0.988  14.341   8.314
66512SOL    HW2 1434   0.883  14.450   8.307
66513SOL     OW 1435   9.205  11.111   3.511
66513SOL    HW1 1436   9.174  11.193   3.473
66513SOL    HW2 1437   9.152  11.099   3.590
66514SOL     OW 1438   4.710   5.177   5.328
66514SOL    HW1 1439   4.802   5.197   5.340
66514SOL    HW2 1440   4.705   5.141   5.239
66515SOL     OW 1441   5.740   1.941   2.801
66515SOL    HW1 1442   5.747   2.006   2.731
66515SOL    HW2 1443   5.647   1.940   2.823
66516SOL     OW 1444   7.249  13.176  12.911
66516SOL    HW1 1445   7.237  13.095  12.861
66516SOL    HW2 1446   7.321  13.221  12.868
66517SOL     OW 1447   5.727   4.302  14.157
66517SOL    HW1 1448   5.655   4.272  14.101
66517SOL    HW2 1449   5.790   4.342  14.096
66518SOL     OW 1450  11.500  11.105  12.286
66518SOL    HW1 1451  11.445  11.030  12.264
66518SOL    HW2 1452  11.589  11.070  12.285
66519SOL     OW 1453   5.920  10.321   5.427
66519SOL    HW1 1454   5.876  10.244   5.463
66519SOL    HW2 1455   5.966  10.359   5.502
66520SOL     OW 1456  12.538   3.683   4.676
66520SOL    HW1 1457  12.477   3.755   4.667
66520SOL    HW2 1458  12.586   3.702   4.757
66521SOL     OW 1459   2.290   7.703  11.452
66521SOL    HW1 1460   2.279   7.772  11.518
66521SOL    HW2 1461   2.276   7.747  11.369
66522SOL     OW 1462  11.444   6.133   2.274
66522SOL    HW1 1463  11.522   6.187   2.284
66522SOL    HW2 1464  11.371   6.194   2.280
66523SOL     OW 1465   0.056  13.095   4.776
66523SOL    HW1 1466   0.021  13.078   4.689
66523SOL    HW2 1467  14.865  13.077   4.835
66524SOL     OW 1468   0.589   7.042   5.407
66524SOL    HW1 1469   0.613   7.130   5.435
66524SOL    HW2 1470   0.583   7.048   5.312
66525SOL     OW 1471   5.644   3.013  11.515
66525SOL    HW1 1472   5.736   3.037  11.526
66525SOL    HW2 1473   5.596   3.084  11.557
66526SOL     OW 1474  12.907   0.457  11.470
66526SOL    HW1 1475  12.824   0.456  11.422
66526SOL    HW2 1476  12.966   0.509  11.415
66527SOL     OW 1477  13.219  12.235  10.503
66527SOL    HW1 1478  13.249  12.169  10.564
66527SOL    HW2 1479  13.168  12.186  10.438
66528SOL     OW 1480   0.090  10.771   5.741
66528SOL    HW1 1481   0.097  10.822   5.822
66528SOL    HW2 1482   0.059  10.833   5.676
66529SOL     OW 1483   4.912   2.234  13.906
66529SOL    HW1 1484   4.857   2.283  13.845
66529SOL    HW2 1485   4.870   2.246  13.991
66530SOL     OW 1486  12.342   6.141  12.739
66530SOL    HW1 1487  12.437   6.153  12.742
66530SOL    HW2 1488  12.313   6.193  12.665
66531SOL     OW 1489  13.437  12.355  14.667
66531SOL    HW1 1490  13.409  12.301  14.741
66531SOL    HW2 1491  13.382  12.326  14.594
66532SOL     OW 1492   9.087   5.287   2.664
66532SOL    HW1 1493   9.004   5.326   2.691
66532SOL    HW2 1494   9.154   5.339   2.709
66533SOL     OW 1495  13.514  13.266   2.984
66533SOL    HW1 1496  13.523  13.198   3.050
66533SOL    HW2 1497  13.567  13.339   3.016
66534SOL     OW 1498  14.384  12.770   4.442
66534SOL    HW1 1499  14.436  12.787   4.520
66534SOL    HW2 1500  14.441  12.795   4.369
66535SOL     OW 1501  12.838   6.686   8.742
66535SOL    HW1 1502  12.890   6.610   8.717
66535SOL    HW2 1503  12.810   6.668   8.832
66536SOL     OW 1504   1.280   2.193   9.292
66536SOL    HW1 1505   1.294   2.123   9.229
66536SOL    HW2 1506   1.337   2.170   9.366
66537SOL     OW 1507  11.797  14.683   7.515
66537SOL    HW1 1508  11.844  14.699   7.597
66537SOL    HW2 1509  11.759  14.768   7.492
66538SOL     OW 1510   8.432   5.114   6.637
66538SOL    HW1 1511   8.341   5.085   6.636
66538SOL    HW2 1512   8.448   5.147   6.548
66539SOL     OW 1513  12.624   2.888   7.770
66539SOL    HW1 1514  12.621   2.852   7.682
66539SOL    HW2 1515  12.613   2.983   7.758
66540SOL     OW 1516   4.032  14.470  11.498
66540SOL    HW1 1517   3.954  14.499  11.546
66540SOL    HW2 1518   4.087  14.428  11.565
66541SOL     OW 1519   2.795   3.338   0.191
66541SOL    HW1 1520   2.789   3.413   0.250
66541SOL    HW2 1521   2.827   3.266   0.245
66542SOL     OW 1522   2.879   8.396   5.609
66542SOL    HW1 1523   2.870   8.361   5.521
66542SOL    HW2 1524   2.792   8.428   5.632
66543SOL     OW 1525   5.370   2.838   7.242
66543SOL    HW1 1526   5.287   2.804   7.208
66543SOL    HW2 1527   5.430   2.833   7.168
66544SOL     OW 1528   6.370   7.042  11.956
66544SOL    HW1 1529   6.350   7.133  11.934
66544SOL    HW2 1530   6.399   7.004  11.873
66545SOL     OW 1531   9.685   7.196   2.499
66545SOL    HW1 1532   9.700   7.289   2.482
66545SOL    HW2 1533   9.630   7.194   2.577
66546SOL     OW 1534   7.180   9.949   8.481
66546SOL    HW1 1535   7.178   9.869   8.429
66546SOL    HW2 1536   7.088   9.970   8.496
66547SOL     OW 1537   6.231   3.444   3.963
66547SOL    HW1 1538   6.292   3.373   3.982
66547SOL    HW2 1539   6.276   3.498   3.898
66548SOL     OW 1540   3.897   6.358   3.330
66548SOL    HW1 1541   3.847   6.439   3.323
66548SOL    HW2 1542   3.981   6.386   3.367
66549SOL     OW 1543  11.863  14.361   5.580
66549SOL    HW1 1544  11.902  14.398   5.501
66549SOL    HW2 1545  11.792  14.422   5.602
66550SOL     OW 1546  12.309   6.567   3.977
66550SOL    HW1 1547  12.258   6.640   4.012
66550SOL    HW2 1548  12.321   6.587   3.884
66551SOL     OW 1549   2.873  11.730  13.645
66551SOL    HW1 1550   2.941  11.674  13.608
66551SOL    HW2 1551   2.839  11.779  13.570
66552SOL     OW 1552  13.855   5.049   8.520
66552SOL    HW1 1553  13.867   5.054   8.615
66552SOL    HW2 1554  13.786   4.984   8.508
66553SOL     OW 1555   8.021  10.336  11.401
66553SOL    HW1 1556   7.977  10.369  11.323
66553SOL    HW2 1557   8.075  10.264  11.369
66554SOL     OW 1558  12.957   8.709   8.686
66554SOL    HW1 1559  13.001   8.639   8.735
66554SOL    HW2 1560  13.025   8.774   8.670
66555SOL     OW 1561  13.820   2.873   8.456
66555SOL    HW1 1562  13.876   2.839   8.387
66555SOL    HW2 1563  13.867   2.857   8.537
66556SOL     OW 1564   2.914   1.590  10.715
66556SOL    HW1 1565   2.902   1.496  10.731
66556SOL    HW2 1566   2.986   1.594  10.652
66557SOL     OW 1567   4.403   3.099   7.224
66557SOL    HW1 1568   4.387   3.183   7.268
66557SOL    HW2 1569   4.336   3.040   7.260
66558SOL     OW 1570  13.409  11.275   0.203
66558SOL    HW1 1571  13.331  11.313   0.243
66558SOL    HW2 1572  13.382  11.186   0.178
66559SOL     OW 1573   5.541   3.875  10.856
66559SOL    HW1 1574   5.456   3.849  10.819
66559SOL    HW2 1575   5.601   3.807  10.826
66560SOL     OW 1576   3.313   4.719  12.713
66560SOL    HW1 1577   3.281   4.746  12.627
66560SOL    HW2 1578   3.326   4.801  12.761
66561SOL     OW 1579   0.229  10.688   8.243
66561SOL    HW1 1580   0.142  10.713   8.274
66561SOL    HW2 1581   0.213  10.637   8.164
66562SOL     OW 1582  12.971   0.388  14.122
66562SOL    HW1 1583  12.909   0.461  14.122
66562SOL    HW2 1584  13.048   0.422  14.166
66563SOL     OW 1585   7.536   8.333   7.060
66563SOL    HW1 1586   7.546   8.260   6.999
66563SOL    HW2 1587   7.582   8.305   7.140
66564SOL     OW 1588  10.678  10.604   9.499
66564SOL    HW1 1589  10.600  10.632   9.451
66564SOL    HW2 1590  10.668  10.644   9.585
66565SOL     OW 1591   9.585  14.709  12.716
66565SOL    HW1 1592   9.513  14.665  12.670
66565SOL    HW2 1593   9.586  14.797  12.679
66566SOL     OW 1594   3.232   9.175  10.626
66566SOL    HW1 1595   3.159   9.142  10.677
66566SOL    HW2 1596   3.195   9.195  10.541
66567SOL     OW 1597   9.517   7.959   8.146
66567SOL    HW1 1598   9.523   8.020   8.220
66567SOL    HW2 1599   9.592   7.981   8.091
66568SOL     OW 1600   3.082  14.231   9.323
66568SOL    HW1 1601   3.153  14.186   9.278
66568SOL    HW2 1602   3.123  14.305   9.367
66569SOL     OW 1603   7.078   1.300   5.527
66569SOL    HW1 1604   7.106   1.362   5.459
66569SOL    HW2 1605   6.987   1.322   5.544
66570SOL     OW 1606  10.434  14.153  10.997
66570SOL    HW1 1607  10.402  14.064  10.981
66570SOL    HW2 1608  10.411  14.170  11.088
66571SOL     OW 1609   8.780   5.222   2.673
66571SOL    HW1 1610   8.835   5.197   2.747
66571SOL    HW2 1611   8.831   5.196   2.596
66572SOL     OW 1612   5.513  14.589   0.003
66572SOL    HW1 1613   5.456  14.659  14.853
66572SOL    HW2 1614   5.529  14.611   0.094
66573SOL     OW 1615   6.986   1.280  10.801
66573SOL    HW1 1616   6.928   1.215  10.842
66573SOL    HW2 1617   6.951   1.364  10.830
66574SOL     OW 1618  10.026  12.319   0.988
66574SOL    HW1 1619  10.119  12.334   0.971
66574SOL    HW2 1620   9.981  12.369   0.921
66575SOL     OW 1621   5.919   1.278   4.203
66575SOL    HW1 1622   5.980   1.241   4.139
66575SOL    HW2 1623   5.951   1.246   4.287
66576SOL     OW 1624  14.433   1.334   7.097
66576SOL    HW1 1625  14.492   1.275   7.051
66576SOL    HW2 1626  14.478   1.418   7.099
66577SOL     OW 1627   4.051   8.542   3.542
66577SOL    HW1 1628   4.017   8.470   3.488
66577SOL    HW2 1629   4.059   8.505   3.630
66578SOL     OW 1630  14.448   6.840   8.799
66578SOL    HW1 1631  14.382   6.879   8.855
66578SOL    HW2 1632  14.404   6.828   8.714
66579SOL     OW 1633   4.522   2.494   9.333
66579SOL    HW1 1634   4.438   2.539   9.343
66579SOL    HW2 1635   4.507   2.407   9.369
66580SOL     OW 1636   8.688   5.211   1.197
66580SOL    HW1 1637   8.693   5.119   1.173
66580SOL    HW2 1638   8.760   5.252   1.149
66581SOL     OW 1639  11.961  13.949   9.651
66581SOL    HW1 1640  12.008  13.911   9.725
66581SOL    HW2 1641  11.890  13.886   9.633
66582SOL     OW 1642   0.171   7.838   6.887
66582SOL    HW1 1643   0.218   7.895   6.947
66582SOL    HW2 1644   0.124   7.776   6.944
66583SOL     OW 1645   2.662   4.065   4.524
66583SOL    HW1 1646   2.604   4.141   4.525
66583SOL    HW2 1647   2.694   4.058   4.614
66584SOL     OW 1648   6.360  13.171   2.619
66584SOL    HW1 1649   6.423  13.100   2.632
66584SOL    HW2 1650   6.414  13.250   2.619
66585SOL     OW 1651  14.265   4.224   3.076
66585SOL    HW1 1652  14.262   4.309   3.121
66585SOL    HW2 1653  14.358   4.207   3.063
66586SOL     OW 1654  14.441   9.710   6.239
66586SOL    HW1 1655  14.421   9.772   6.169
66586SOL    HW2 1656  14.510   9.754   6.290
66587SOL     OW 1657   2.726  14.459   9.007
66587SOL    HW1 1658   2.801  14.437   9.063
66587SOL    HW2 1659   2.764  14.472   8.920
66588SOL     OW 1660   2.197   7.588  11.956
66588SOL    HW1 1661   2.198   7.588  12.052
66588SOL    HW2 1662   2.231   7.674  11.932
66589SOL     OW 1663   1.694   7.418   5.930
66589SOL    HW1 1664   1.624   7.437   5.992
66589SOL    HW2 1665   1.707   7.500   5.883
66590SOL     OW 1666   3.504  10.003  10.539
66590SOL    HW1 1667   3.592  10.038  10.543
66590SOL    HW2 1668   3.447  10.080  10.536
66591SOL     OW 1669   3.517   4.729   6.456
66591SOL    HW1 1670   3.596   4.704   6.504
66591SOL    HW2 1671   3.474   4.646   6.435
66592SOL     OW 1672   6.363   7.885   9.953
66592SOL    HW1 1673   6.300   7.912   9.887
66592SOL    HW2 1674   6.338   7.795   9.975
66593SOL     OW 1675  12.409  13.928   4.325
66593SOL    HW1 1676  12.423  13.993   4.257
66593SOL    HW2 1677  12.367  13.976   4.397
66594SOL     OW 1678   5.443  10.974   6.473
66594SOL    HW1 1679   5.449  11.026   6.393
66594SOL    HW2 1680   5.350  10.969   6.492
66595SOL     OW 1681  12.002   5.473   0.855
66595SOL    HW1 1682  12.093   5.488   0.827
66595SOL    HW2 1683  11.957   5.554   0.833
66596SOL     OW 1684   6.156   3.799   8.460
66596SOL    HW1 1685   6.219   3.812   8.390
66596SOL    HW2 1686   6.198   3.738   8.520
66597SOL     OW 1687   8.396   0.367   1.207
66597SOL    HW1 1688   8.311   0.392   1.170
66597SOL    HW2 1689   8.444   0.450   1.212
66598SOL     OW 1690   3.064   0.977   4.726
66598SOL    HW1 1691   2.981   0.949   4.687
66598SOL    HW2 1692   3.128   0.970   4.654
66599SOL     OW 1693  13.708   9.427   6.511
66599SOL    HW1 1694  13.633   9.441   6.453
66599SOL    HW2 1695  13.745   9.344   6.483
66600SOL     OW 1696   6.080  11.530   8.265
66600SOL    HW1 1697   6.094  11.452   8.319
66600SOL    HW2 1698   6.027  11.588   8.320
66601SOL     OW 1699  14.875   5.136  10.500
66601SOL    HW1 1700   0.079   5.177  10.508
66601SOL    HW2 1701  14.830   5.189  10.434
66602SOL     OW 1702  12.046  10.927  14.155
66602SOL    HW1 1703  12.095  11.006  14.131
66602SOL    HW2 1704  11.990  10.955  14.227
66603SOL     OW 1705  13.958   5.657  10.677
66603SOL    HW1 1706  13.959   5.733  10.619
66603SOL    HW2 1707  13.895   5.597  10.636
66604SOL     OW 1708  14.058   8.398  10.771
66604SOL    HW1 1709  14.121   8.419  10.702
66604SOL    HW2 1710  14.077   8.307  10.794
66605SOL     OW 1711   7.561   9.248  14.274
66605SOL    HW1 1712   7.499   9.320  14.288
66605SOL    HW2 1713   7.643   9.279  14.313
66606SOL     OW 1714   2.836  11.434  11.940
66606SOL    HW1 1715   2.907  11.465  11.997
66606SOL    HW2 1716   2.757  11.445  11.992
66607SOL     OW 1717   9.119   2.162   6.220
66607SOL    HW1 1718   9.048   2.168   6.283
66607SOL    HW2 1719   9.158   2.250   6.218
66608SOL     OW 1720   1.865   6.587  13.441
66608SOL    HW1 1721   1.936   6.562  13.382
66608SOL    HW2 1722   1.909   6.618  13.520
66609SOL     OW 1723   4.011  12.727   6.226
66609SOL    HW1 1724   3.962  12.799   6.265
66609SOL    HW2 1725   3.950  12.653   6.226
66610SOL     OW 1726   1.874  14.623   0.495
66610SOL    HW1 1727   1.930  14.699   0.479
66610SOL    HW2 1728   1.924  14.570   0.558
66611SOL     OW 1729  13.520  10.085   4.586
66611SOL    HW1 1730  13.438  10.107   4.543
66611SOL    HW2 1731  13.496  10.062   4.675
66612SOL     OW 1732   9.737   3.451   8.657
66612SOL    HW1 1733   9.733   3.461   8.562
66612SOL    HW2 1734   9.649   3.420   8.681
66613SOL     OW 1735   2.707   4.306   9.822
66613SOL    HW1 1736   2.614   4.285   9.836
66613SOL    HW2 1737   2.721   4.291   9.729
66614SOL     OW 1738   4.774   1.470   3.770
66614SOL    HW1 1739   4.810   1.399   3.717
66614SOL    HW2 1740   4.694   1.434   3.809
66615SOL     OW 1741  10.172   4.201   5.501
66615SOL    HW1 1742  10.122   4.266   5.551
66615SOL    HW2 1743  10.220   4.152   5.568
66616SOL     OW 1744   8.874   9.734  13.503
66616SOL    HW1 1745   8.823   9.686  13.437
66616SOL    HW2 1746   8.819   9.810  13.523
66617SOL     OW 1747  13.141   1.579  11.701
66617SOL    HW1 1748  13.234   1.581  11.679
66617SOL    HW2 1749  13.104   1.513  11.643
66618SOL     OW 1750  14.262  10.379   3.676
66618SOL    HW1 1751  14.188  10.439   3.668
66618SOL    HW2 1752  14.228  10.295   3.646
66619SOL     OW 1753   3.962   7.157   3.417
66619SOL    HW1 1754   3.885   7.122   3.371
66619SOL    HW2 1755   3.997   7.224   3.358
66620SOL     OW 1756  11.326   1.219   4.302
66620SOL    HW1 1757  11.294   1.138   4.262
66620SOL    HW2 1758  11.413   1.231   4.265
66621SOL     OW 1759  14.703  13.558  13.916
66621SOL    HW1 1760  14.744  13.603  13.843
66621SOL    HW2 1761  14.611  13.551  13.892
66622SOL     OW 1762   5.907   5.263   3.026
66622SOL    HW1 1763   5.861   5.343   3.052
66622SOL    HW2 1764   5.963   5.242   3.100
66623SOL     OW 1765   1.927  12.504  12.973
66623SOL    HW1 1766   2.003  12.542  13.018
66623SOL    HW2 1767   1.856  12.567  12.988
66624SOL     OW 1768  10.287  13.437   2.939
66624SOL    HW1 1769  10.357  13.380   2.905
66624SOL    HW2 1770  10.325  13.524   2.939
66625SOL     OW 1771  12.480   8.470   8.177
66625SOL    HW1 1772  12.495   8.563   8.161
66625SOL    HW2 1773  12.433   8.467   8.260
66626SOL     OW 1774  13.113   3.670   4.978
66626SOL    HW1 1775  13.105   3.741   5.042
66626SOL    HW2 1776  13.169   3.706   4.909
66627SOL     OW 1777   2.469   4.804   0.842
66627SOL    HW1 1778   2.513   4.877   0.800
66627SOL    HW2 1779   2.535   4.764   0.898
66628SOL     OW 1780  13.419  11.050   0.452
66628SOL    HW1 1781  13.475  11.016   0.382
66628SOL    HW2 1782  13.480  11.088   0.515
66629SOL     OW 1783   0.816   3.278  14.744
66629SOL    HW1 1784   0.885   3.336  14.712
66629SOL    HW2 1785   0.857   3.227  14.813
66630SOL     OW 1786  10.666   7.109  12.347
66630SOL    HW1 1787  10.738   7.075  12.293
66630SOL    HW2 1788  10.705   7.119  12.434
66631SOL     OW 1789   6.311   4.299  10.216
66631SOL    HW1 1790   6.219   4.278  10.233
66631SOL    HW2 1791   6.323   4.386  10.253
66632SOL     OW 1792  13.262  10.571   8.432
66632SOL    HW1 1793  13.348  10.609   8.450
66632SOL    HW2 1794  13.204  10.614   8.495
66633SOL     OW 1795  11.574   8.093  13.407
66633SOL    HW1 1796  11.658   8.127  13.438
66633SOL    HW2 1797  11.578   7.999  13.424
66634SOL     OW 1798   2.412   9.836   6.226
66634SOL    HW1 1799   2.486   9.787   6.263
66634SOL    HW2 1800   2.439   9.927   6.230
66635SOL     OW 1801   0.588  13.779  14.014
66635SOL    HW1 1802   0.543  13.792  14.097
66635SOL    HW2 1803   0.555  13.848  13.957
66636SOL     OW 1804  12.950  13.486   4.145
66636SOL    HW1 1805  12.905  13.543   4.083
66636SOL    HW2 1806  13.042  13.490   4.117
66637SOL     OW 1807   2.664   0.987   2.587
66637SOL    HW1 1808   2.621   0.970   2.504
66637SOL    HW2 1809   2.754   0.958   2.574
66638SOL     OW 1810  10.947   3.293   3.731
66638SOL    HW1 1811  10.959   3.333   3.645
66638SOL    HW2 1812  10.891   3.355   3.779
66639SOL     OW 1813   4.934   5.545   1.369
66639SOL    HW1 1814   4.994   5.579   1.303
66639SOL    HW2 1815   4.883   5.478   1.323
66640SOL     OW 1816  10.725  12.682  13.655
66640SOL    HW1 1817  10.737  12.657  13.747
66640SOL    HW2 1818  10.788  12.628  13.607
66641SOL     OW 1819   4.072  11.307   8.413
66641SOL    HW1 1820   4.081  11.212   8.417
66641SOL    HW2 1821   3.979  11.324   8.425
66642SOL     OW 1822   4.556  11.017  10.692
66642SOL    HW1 1823   4.551  11.098  10.642
66642SOL    HW2 1824   4.535  11.042  10.782
66643SOL     OW 1825   9.952  11.191   7.643
66643SOL    HW1 1826  10.039  11.206   7.606
66643SOL    HW2 1827   9.922  11.278   7.671
66644SOL     OW 1828   8.638   0.964  14.657
66644SOL    HW1 1829   8.709   0.989  14.598
66644SOL    HW2 1830   8.660   0.875  14.685
66645SOL     OW 1831   1.462   9.741   9.517
66645SOL    HW1 1832   1.452   9.834   9.538
66645SOL    HW2 1833   1.460   9.697   9.601
66646SOL     OW 1834   5.498   4.613   2.460
66646SOL    HW1 1835   5.465   4.560   2.532
66646SOL    HW2 1836   5.426   4.616   2.397
66647SOL     OW 1837   5.631   5.933  10.641
66647SOL    HW1 1838   5.550   5.980  10.623
66647SOL    HW2 1839   5.654   5.891  10.558
66648SOL     OW 1840  13.248  13.751   0.319
66648SOL    HW1 1841  13.309  13.793   0.257
66648SOL    HW2 1842  13.180  13.713   0.264
66649SOL     OW 1843  11.703   1.766   1.728
66649SOL    HW1 1844  11.669   1.854   1.745
66649SOL    HW2 1845  11.674   1.714   1.803
66650SOL     OW 1846   7.064  14.847   3.861
66650SOL    HW1 1847   6.991  14.814   3.807
66650SOL    HW2 1848   7.078   0.054   3.830
66651SOL     OW 1849   6.239   6.988   3.266
66651SOL    HW1 1850   6.174   6.947   3.209
66651SOL    HW2 1851   6.231   6.940   3.348
66652SOL     OW 1852   1.858   7.005   0.170
66652SOL    HW1 1853   1.833   7.046   0.087
66652SOL    HW2 1854   1.779   6.959   0.199
66653SOL     OW 1855   2.530  12.192   5.522
66653SOL    HW1 1856   2.437  12.178   5.506
66653SOL    HW2 1857   2.547  12.151   5.607
66654SOL     OW 1858  13.982   2.327   0.189
66654SOL    HW1 1859  13.968   2.235   0.167
66654SOL    HW2 1860  13.984   2.372   0.104
66655SOL     OW 1861   9.486   8.649   4.481
66655SOL    HW1 1862   9.532   8.567   4.464
66655SOL    HW2 1863   9.487   8.658   4.576
66656SOL     OW 1864   0.178  10.119   1.998
66656SOL    HW1 1865   0.187  10.163   1.914
66656SOL    HW2 1866   0.189  10.026   1.978
66657SOL     OW 1867   7.090   1.383  11.891
66657SOL    HW1 1868   7.094   1.465  11.939
66657SOL    HW2 1869   7.001   1.379  11.858
66658SOL     OW 1870  13.532   1.550   9.650
66658SOL    HW1 1871  13.612   1.602   9.662
66658SOL    HW2 1872  13.483   1.563   9.731
66659SOL     OW 1873   6.866   3.960  12.507
66659SOL    HW1 1874   6.810   3.958  12.430
66659SOL    HW2 1875   6.947   3.916  12.478
66660SOL     OW 1876   4.613   7.124  10.510
66660SOL    HW1 1877   4.690   7.069  10.528
66660SOL    HW2 1878   4.642   7.213  10.530
66661SOL     OW 1879   3.378  11.738   4.188
66661SOL    HW1 1880   3.409  11.795   4.258
66661SOL    HW2 1881   3.357  11.797   4.116
66662SOL     OW 1882   3.385   3.412  11.642
66662SOL    HW1 1883   3.341   3.484  11.687
66662SOL    HW2 1884   3.315   3.348  11.628
66663SOL     OW 1885   8.983   4.785  13.348
66663SOL    HW1 1886   9.001   4.763  13.440
66663SOL    HW2 1887   8.994   4.702  13.302
66664SOL     OW 1888   7.785  14.782   1.276
66664SOL    HW1 1889   7.864  14.743   1.315
66664SOL    HW2 1890   7.814  14.816   1.191
66665SOL     OW 1891  12.228   2.155  10.185
66665SOL    HW1 1892  12.138   2.188  10.183
66665SOL    HW2 1893  12.219   2.064  10.212
66666SOL     OW 1894   0.869   4.653   3.126
66666SOL    HW1 1895   0.883   4.688   3.215
66666SOL    HW2 1896   0.958   4.640   3.092
66667SOL     OW 1897   0.908  13.406   9.984
66667SOL    HW1 1898   0.935  13.327  10.030
66667SOL    HW2 1899   0.814  13.394   9.968
66668SOL     OW 1900  12.048   2.076   5.887
66668SOL    HW1 1901  12.040   2.077   5.982
66668SOL    HW2 1902  12.097   1.996   5.867
66669SOL     OW 1903  14.211   6.097   9.653
66669SOL    HW1 1904  14.162   6.016   9.637
66669SOL    HW2 1905  14.148   6.167   9.638
66670SOL     OW 1906   6.087   5.067  12.262
66670SOL    HW1 1907   6.090   5.162  12.248
66670SOL    HW2 1908   6.158   5.051  12.324
66671SOL     OW 1909   6.519   5.093  14.411
66671SOL    HW1 1910   6.484   5.026  14.470
66671SOL    HW2 1911   6.473   5.078  14.328
66672SOL     OW 1912   3.130   4.590  12.869
66672SOL    HW1 1913   3.189   4.644  12.817
66672SOL    HW2 1914   3.062   4.651  12.899
66673SOL     OW 1915  14.488  10.881  11.774
66673SOL    HW1 1916  14.566  10.843  11.814
66673SOL    HW2 1917  14.415  10.841  11.821
66674SOL     OW 1918   8.934  12.079  10.682
66674SOL    HW1 1919   8.989  12.156  10.670
66674SOL    HW2 1920   8.994  12.005  10.675
66675SOL     OW 1921   2.480   7.610   2.932
66675SOL    HW1 1922   2.527   7.685   2.970
66675SOL    HW2 1923   2.420   7.582   3.001
66676SOL     OW 1924   7.553  10.461  12.120
66676SOL    HW1 1925   7.599  10.454  12.204
66676SOL    HW2 1926   7.623  10.462  12.054
66677SOL     OW 1927  13.581  10.106   6.347
66677SOL    HW1 1928  13.660  10.059   6.376
66677SOL    HW2 1929  13.610  10.197   6.339
66678SOL     OW 1930   1.808   8.113   2.446
66678SOL    HW1 1931   1.784   8.047   2.511
66678SOL    HW2 1932   1.729   8.128   2.395
66679SOL     OW 1933   6.547   8.038   5.184
66679SOL    HW1 1934   6.469   7.982   5.183
66679SOL    HW2 1935   6.596   8.008   5.261
66680SOL     OW 1936  10.653   5.773  10.581
66680SOL    HW1 1937  10.683   5.814  10.500
66680SOL    HW2 1938  10.730   5.725  10.613
66681SOL     OW 1939  11.908  11.161   0.536
66681SOL    HW1 1940  11.843  11.171   0.605
66681SOL    HW2 1941  11.934  11.251   0.515
66682SOL     OW 1942   6.039  12.853   9.170
66682SOL    HW1 1943   5.944  12.855   9.182
66682SOL    HW2 1944   6.068  12.942   9.189
66683SOL     OW 1945  14.572  11.958   1.045
66683SOL    HW1 1946  14.604  11.907   1.119
66683SOL    HW2 1947  14.620  11.923   0.970
66684SOL     OW 1948   7.870  13.316   8.594
66684SOL    HW1 1949   7.796  13.284   8.645
66684SOL    HW2 1950   7.936  13.247   8.600
66685SOL     OW 1951   1.268   6.288   0.976
66685SOL    HW1 1952   1.341   6.265   0.919
66685SOL    HW2 1953   1.300   6.274   1.065
66686SOL     OW 1954   8.639  12.672   6.886
66686SOL    HW1 1955   8.683  12.631   6.811
66686SOL    HW2 1956   8.701  12.739   6.915
66687SOL     OW 1957   7.831   2.000   6.087
66687SOL    HW1 1958   7.870   2.081   6.055
66687SOL    HW2 1959   7.845   1.937   6.017
66688SOL     OW 1960   7.762   7.717   1.379
66688SOL    HW1 1961   7.721   7.792   1.336
66688SOL    HW2 1962   7.736   7.642   1.326
66689SOL     OW 1963   1.387  11.820  14.256
66689SOL    HW1 1964   1.413  11.761  14.327
66689SOL    HW2 1965   1.337  11.765  14.196
66690SOL     OW 1966  13.382   0.992   7.277
66690SOL    HW1 1967  13.361   1.000   7.184
66690SOL    HW2 1968  13.348   1.073   7.316
66691SOL     OW 1969   5.486   4.706   8.727
66691SOL    HW1 1970   5.454   4.658   8.650
66691SOL    HW2 1971   5.407   4.734   8.773
66692SOL     OW 1972   3.489  10.166   3.696
66692SOL    HW1 1973   3.500  10.260   3.712
66692SOL    HW2 1974   3.576  10.129   3.709
66693SOL     OW 1975  14.036   9.166   4.334
66693SOL    HW1 1976  13.997   9.085   4.300
66693SOL    HW2 1977  14.086   9.201   4.261
66694SOL     OW 1978  14.762   0.691   0.281
66694SOL    HW1 1979  14.795   0.605   0.256
66694SOL    HW2 1980  14.670   0.690   0.256
66695SOL     OW 1981   7.063   9.707  11.599
66695SOL    HW1 1982   6.998   9.724  11.667
66695SOL    HW2 1983   7.015   9.661  11.530
66696SOL     OW 1984  13.138   0.117  13.488
66696SOL    HW1 1985  13.089   0.120  13.571
66696SOL    HW2 1986  13.229   0.130  13.513
66697SOL     OW 1987   6.030   9.088  11.154
66697SOL    HW1 1988   5.976   9.011  11.171
66697SOL    HW2 1989   6.111   9.072  11.203
66698SOL     OW 1990   4.033  13.380  14.127
66698SOL    HW1 1991   4.050  13.288  14.108
66698SOL    HW2 1992   3.982  13.411  14.052
66699SOL     OW 1993   2.097  13.860   0.916
66699SOL    HW1 1994   2.051  13.934   0.878
66699SOL    HW2 1995   2.028  13.800   0.944
66700SOL     OW 1996   9.838   3.022  14.287
66700SOL    HW1 1997   9.793   3.002  14.205
66700SOL    HW2 1998   9.835   3.118  14.294
66701SOL     OW 1999  14.443  12.624  10.489
66701SOL    HW1 2000  14.370  12.586  10.440
66701SOL    HW2 2001  14.498  12.549  10.512
66702SOL     OW 2002   3.267   7.180   8.819
66702SOL    HW1 2003   3.252   7.204   8.727
66702SOL    HW2 2004   3.233   7.091   8.826
66703SOL     OW 2005   6.295   0.725   4.201
66703SOL    HW1 2006   6.286   0.649   4.259
66703SOL    HW2 2007   6.386   0.723   4.173
66704SOL     OW 2008  11.895  12.357   9.615
66704SOL    HW1 2009  11.892  12.442   9.571
66704SOL    HW2 2010  11.960  12.368   9.684
66705SOL     OW 2011  10.368   3.203  11.378
66705SOL    HW1 2012  10.317   3.130  11.342
66705SOL    HW2 2013  10.317   3.233  11.453
66706SOL     OW 2014  13.654   8.297   6.618
66706SOL    HW1 2015  13.693   8.352   6.685
66706SOL    HW2 2016  13.587   8.247   6.663
66707SOL     OW 2017  13.134   3.445  13.730
66707SOL    HW1 2018  13.058   3.475  13.779
66707SOL    HW2 2019  13.100   3.381  13.668
66708SOL     OW 2020  13.501  10.547   2.302
66708SOL    HW1 2021  13.582  10.505   2.330
66708SOL    HW2 2022  13.441  10.534   2.375
66709SOL     OW 2023   2.613   8.729  13.195
66709SOL    HW1 2024   2.681   8.786  13.158
66709SOL    HW2 2025   2.634   8.725  13.288
66710SOL     OW 2026   6.521  10.631  14.288
66710SOL    HW1 2027   6.601  10.652  14.239
66710SOL    HW2 2028   6.503  10.710  14.339
66711SOL     OW 2029   8.647   2.563   9.861
66711SOL    HW1 2030   8.596   2.619   9.803
66711SOL    HW2 2031   8.738   2.589   9.846
66712SOL     OW 2032   6.738  10.571   8.832
66712SOL    HW1 2033   6.740  10.478   8.809
66712SOL    HW2 2034   6.744  10.617   8.748
66713SOL     OW 2035   8.202   1.416  14.881
66713SOL    HW1 2036   8.111   1.386   0.009
66713SOL    HW2 2037   8.253   1.335  14.877
66714SOL     OW 2038   1.223  12.412   0.773
66714SOL    HW1 2039   1.306  12.373   0.801
66714SOL    HW2 2040   1.215  12.388   0.681
66715SOL     OW 2041   7.593   9.932   3.085
66715SOL    HW1 2042   7.598   9.943   3.180
66715SOL    HW2 2043   7.562  10.017   3.052
66716SOL     OW 2044   3.363   2.906  12.805
66716SOL    HW1 2045   3.299   2.895  12.735
66716SOL    HW2 2046   3.333   2.848  12.875
66717SOL     OW 2047  11.712   4.362   1.652
66717SOL    HW1 2048  11.766   4.400   1.721
66717SOL    HW2 2049  11.770   4.357   1.576
66718SOL     OW 2050   1.857   1.214   4.243
66718SOL    HW1 2051   1.933   1.194   4.189
66718SOL    HW2 2052   1.860   1.150   4.314
66719SOL     OW 2053   8.848   1.824  12.092
66719SOL    HW1 2054   8.906   1.866  12.155
66719SOL    HW2 2055   8.830   1.737  12.130
66720SOL     OW 2056  12.986  13.899  10.573
66720SOL    HW1 2057  12.965  13.905  10.666
66720SOL    HW2 2058  12.911  13.853  10.534
66721SOL     OW 2059  10.844  13.317  12.328
66721SOL    HW1 2060  10.799  13.384  12.277
66721SOL    HW2 2061  10.819  13.234  12.288
66722SOL     OW 2062   2.069  13.852   5.920
66722SOL    HW1 2063   2.066  13.794   5.995
66722SOL    HW2 2064   2.049  13.939   5.955
66723SOL     OW 2065   5.066  11.055   1.275
66723SOL    HW1 2066   4.985  11.063   1.326
66723SOL    HW2 2067   5.058  10.970   1.230
66724SOL     OW 2068  12.869   9.711   4.471
66724SOL    HW1 2069  12.847   9.620   4.492
66724SOL    HW2 2070  12.867   9.714   4.375
66725SOL     OW 2071   0.771   5.371   1.393
66725SOL    HW1 2072   0.814   5.285   1.396
66725SOL    HW2 2073   0.773   5.395   1.301
66726SOL     OW 2074   1.822   7.248   2.622
66726SOL    HW1 2075   1.760   7.250   2.550
66726SOL    HW2 2076   1.908   7.252   2.580
66727SOL     OW 2077   0.044   4.431  13.692
66727SOL    HW1 2078  14.851   4.421  13.633
66727SOL    HW2 2079   0.028   4.514  13.737
66728SOL     OW 2080   1.241   2.960   2.347
66728SOL    HW1 2081   1.310   2.922   2.401
66728SOL    HW2 2082   1.209   2.886   2.295
66729SOL     OW 2083   5.220   6.296   2.659
66729SOL    HW1 2084   5.280   6.350   2.609
66729SOL    HW2 2085   5.235   6.207   2.627
66730SOL     OW 2086   7.369   5.706   1.338
66730SOL    HW1 2087   7.381   5.624   1.386
66730SOL    HW2 2088   7.372   5.680   1.246
66731SOL     OW 2089   8.626   5.134   1.745
66731SOL    HW1 2090   8.557   5.128   1.679
66731SOL    HW2 2091   8.644   5.043   1.769
66732SOL     OW 2092   4.802   7.642  12.327
66732SOL    HW1 2093   4.887   7.605  12.349
66732SOL    HW2 2094   4.743   7.567  12.322
66733SOL     OW 2095  14.799   2.271   1.211
66733SOL    HW1 2096  14.872   2.254   1.271
66733SOL    HW2 2097  14.785   2.187   1.166
66734SOL     OW 2098   5.288   3.681   3.436
66734SOL    HW1 2099   5.356   3.732   3.478
66734SOL    HW2 2100   5.223   3.746   3.408
66735SOL     OW 2101  13.463   7.194   6.633
66735SOL    HW1 2102  13.393   7.210   6.697
66735SOL    HW2 2103  13.537   7.244   6.666
66736SOL     OW 2104   2.896  11.346   1.069
66736SOL    HW1 2105   2.824  11.292   1.036
66736SOL    HW2 2106   2.887  11.429   1.022
66737SOL     OW 2107   4.050   3.353   0.973
66737SOL    HW1 2108   4.022   3.261   0.973
66737SOL    HW2 2109   4.015   3.389   1.054
66738SOL     OW 2110  12.901   4.026  11.131
66738SOL    HW1 2111  12.890   4.088  11.059
66738SOL    HW2 2112  12.962   3.961  11.097
66739SOL     OW 2113  14.655   3.270   3.686
66739SOL    HW1 2114  14.569   3.269   3.729
66739SOL    HW2 2115  14.718   3.273   3.757
66740SOL     OW 2116   0.769  13.930  10.446
66740SOL    HW1 2117   0.796  13.963  10.360
66740SOL    HW2 2118   0.708  13.859  10.426
66741SOL     OW 2119  10.449   6.237  14.170
66741SOL    HW1 2120  10.504   6.172  14.214
66741SOL    HW2 2121  10.470   6.227  14.077
66742SOL     OW 2122   0.872   9.561  12.700
66742SOL    HW1 2123   0.808   9.613  12.750
66742SOL    HW2 2124   0.909   9.623  12.638
66743SOL     OW 2125  14.209   9.652   0.601
66743SOL    HW1 2126  14.196   9.703   0.681
66743SOL    HW2 2127  14.269   9.582   0.627
66744SOL     OW 2128  11.086   5.620   7.707
66744SOL    HW1 2129  11.076   5.553   7.639
66744SOL    HW2 2130  11.180   5.627   7.720
66745SOL     OW 2131  10.005   0.671  14.031
66745SOL    HW1 2132  10.062   0.616  14.085
66745SOL    HW2 2133   9.917   0.656  14.065
66746SOL     OW 2134   7.562   6.274   1.362
66746SOL    HW1 2135   7.560   6.239   1.451
66746SOL    HW2 2136   7.654   6.297   1.348
66747SOL     OW 2137   6.368   9.689   9.804
66747SOL    HW1 2138   6.277   9.711   9.784
66747SOL    HW2 2139   6.362   9.610   9.858
66748SOL     OW 2140  11.892  13.714   2.687
66748SOL    HW1 2141  11.797  13.719   2.696
66748SOL    HW2 2142  11.908  13.731   2.594
66749SOL     OW 2143  13.107   0.032   5.616
66749SOL    HW1 2144  13.014   0.017   5.598
66749SOL    HW2 2145  13.114   0.023   5.711
66750SOL     OW 2146   2.690  14.583   5.586
66750SOL    HW1 2147   2.715  14.579   5.494
66750SOL    HW2 2148   2.619  14.519   5.594
66751SOL     OW 2149   8.388  13.894   6.216
66751SOL    HW1 2150   8.387  13.802   6.189
66751SOL    HW2 2151   8.375  13.943   6.135
66752SOL     OW 2152   3.802  14.029  10.695
66752SOL    HW1 2153   3.880  14.050  10.747
66752SOL    HW2 2154   3.770  13.947  10.732
66753SOL     OW 2155   2.665   1.579   3.632
66753SOL    HW1 2156   2.755   1.568   3.661
66753SOL    HW2 2157   2.638   1.493   3.601
66754SOL     OW 2158   4.903   7.682   8.446
66754SOL    HW1 2159   4.956   7.701   8.524
66754SOL    HW2 2160   4.955   7.618   8.397
66755SOL     OW 2161  12.349  10.414   4.259
66755SOL    HW1 2162  12.388  10.391   4.175
66755SOL    HW2 2163  12.331  10.330   4.301
66756SOL     OW 2164   8.944   3.319   5.492
66756SOL    HW1 2165   8.936   3.301   5.398
66756SOL    HW2 2166   9.039   3.319   5.508
66757SOL     OW 2167  10.604   7.778  14.403
66757SOL    HW1 2168  10.698   7.797  14.401
66757SOL    HW2 2169  10.563   7.862  14.422
66758SOL     OW 2170   1.182  13.860   1.741
66758SOL    HW1 2171   1.260  13.818   1.778
66758SOL    HW2 2172   1.189  13.951   1.767
66759SOL     OW 2173   0.634   2.237  13.714
66759SOL    HW1 2174   0.700   2.297  13.749
66759SOL    HW2 2175   0.622   2.265  13.623
66760SOL     OW 2176   4.834   6.199   9.099
66760SOL    HW1 2177   4.748   6.234   9.075
66760SOL    HW2 2178   4.884   6.200   9.017
66761SOL     OW 2179  11.613   3.866   2.081
66761SOL    HW1 2180  11.601   3.952   2.122
66761SOL    HW2 2181  11.558   3.807   2.134
66762SOL     OW 2182   0.404   3.973   8.484
66762SOL    HW1 2183   0.459   3.964   8.562
66762SOL    HW2 2184   0.367   4.061   8.491
66763SOL     OW 2185   5.107   5.617   6.428
66763SOL    HW1 2186   5.079   5.550   6.365
66763SOL    HW2 2187   5.183   5.659   6.388
66764SOL     OW 2188   8.516   8.996   4.471
66764SOL    HW1 2189   8.590   8.984   4.530
66764SOL    HW2 2190   8.508   9.091   4.460
66765SOL     OW 2191   0.941   3.338   3.930
66765SOL    HW1 2192   0.980   3.419   3.896
66765SOL    HW2 2193   0.928   3.284   3.852
66766SOL     OW 2194  11.886   4.546  14.416
66766SOL    HW1 2195  11.802   4.515  14.449
66766SOL    HW2 2196  11.877   4.641  14.411
66767SOL     OW 2197   2.570   6.670   5.462
66767SOL    HW1 2198   2.521   6.725   5.523
66767SOL    HW2 2199   2.526   6.586   5.465
66768SOL     OW 2200   9.208   3.783   0.890
66768SOL    HW1 2201   9.116   3.772   0.866
66768SOL    HW2 2202   9.233   3.700   0.930
66769SOL     OW 2203   3.161   7.159  12.294
66769SOL    HW1 2204   3.081   7.141  12.245
66769SOL    HW2 2205   3.225   7.184  12.228
66770SOL     OW 2206   4.329   8.384   5.739
66770SOL    HW1 2207   4.388   8.393   5.814
66770SOL    HW2 2208   4.360   8.306   5.693
66771SOL     OW 2209   5.648   9.107   8.206
66771SOL    HW1 2210   5.714   9.090   8.139
66771SOL    HW2 2211   5.663   9.197   8.234
66772SOL     OW 2212   5.327   2.579  13.961
66772SOL    HW1 2213   5.411   2.574  14.007
66772SOL    HW2 2214   5.343   2.537  13.877
66773SOL     OW 2215  11.780   9.606   6.188
66773SOL    HW1 2216  11.786   9.663   6.112
66773SOL    HW2 2217  11.768   9.666   6.262
66774SOL     OW 2218   7.767  13.402  11.432
66774SOL    HW1 2219   7.675  13.376  11.437
66774SOL    HW2 2220   7.794  13.377  11.344
66775SOL     OW 2221   2.024   8.554   7.605
66775SOL    HW1 2222   1.955   8.535   7.541
66775SOL    HW2 2223   2.075   8.624   7.564
66776SOL     OW 2224   4.277   1.906  10.840
66776SOL    HW1 2225   4.270   1.918  10.745
66776SOL    HW2 2226   4.301   1.992  10.874
66777SOL     OW 2227  12.702   9.406   2.314
66777SOL    HW1 2228  12.649   9.478   2.348
66777SOL    HW2 2229  12.676   9.330   2.366
66778SOL     OW 2230  13.787   3.667  11.948
66778SOL    HW1 2231  13.774   3.573  11.959
66778SOL    HW2 2232  13.825   3.676  11.860
66779SOL     OW 2233  11.953   3.596   1.143
66779SOL    HW1 2234  11.999   3.667   1.098
66779SOL    HW2 2235  12.002   3.584   1.224
66780SOL     OW 2236   3.104   0.124   2.358
66780SOL    HW1 2237   3.059   0.164   2.284
66780SOL    HW2 2238   3.035   0.101   2.419
66781SOL     OW 2239   8.353   7.587   3.556
66781SOL    HW1 2240   8.396   7.665   3.520
66781SOL    HW2 2241   8.414   7.516   3.540
66782SOL     OW 2242  13.351  10.342   4.646
66782SOL    HW1 2243  13.375  10.289   4.722
66782SOL    HW2 2244  13.255  10.336   4.643
66783SOL     OW 2245   4.338   8.878  14.864
66783SOL    HW1 2246   4.332   8.796  14.815
66783SOL    HW2 2247   4.428   8.879   0.016
66784SOL     OW 2248  10.515   2.637   5.821
66784SOL    HW1 2249  10.495   2.651   5.729
66784SOL    HW2 2250  10.438   2.670   5.868
66785SOL     OW 2251  10.719  11.216   1.105
66785SOL    HW1 2252  10.650  11.277   1.131
66785SOL    HW2 2253  10.793  11.272   1.082
66786SOL     OW 2254   6.570  14.127   1.904
66786SOL    HW1 2255   6.573  14.125   1.809
66786SOL    HW2 2256   6.505  14.195   1.924
66787SOL     OW 2257  10.277   8.345   4.807
66787SOL    HW1 2258  10.181   8.350   4.800
66787SOL    HW2 2259  10.309   8.411   4.745
66788SOL     OW 2260  10.379  11.204   8.962
66788SOL    HW1 2261  10.307  11.164   9.011
66788SOL    HW2 2262  10.410  11.275   9.019
66789SOL     OW 2263   0.547   8.788   4.473
66789SOL    HW1 2264   0.453   8.787   4.458
66789SOL    HW2 2265   0.584   8.821   4.391
66790SOL     OW 2266   0.589  12.966  11.381
66790SOL    HW1 2267   0.525  12.952  11.450
66790SOL    HW2 2268   0.558  12.912  11.308
66791SOL     OW 2269   7.546  11.043   5.750
66791SOL    HW1 2270   7.536  11.136   5.768
66791SOL    HW2 2271   7.639  11.026   5.759
66792SOL     OW 2272  10.177   6.957   3.812
66792SOL    HW1 2273  10.085   6.931   3.818
66792SOL    HW2 2274  10.226   6.882   3.846
66793SOL     OW 2275   8.901   6.270  12.312
66793SOL    HW1 2276   8.894   6.351  12.363
66793SOL    HW2 2277   8.829   6.274  12.250
66794SOL     OW 2278  11.512   3.497  10.979
66794SOL    HW1 2279  11.473   3.414  11.007
66794SOL    HW2 2280  11.522   3.489  10.884
66795SOL     OW 2281   1.927   9.155   7.747
66795SOL    HW1 2282   1.925   9.208   7.667
66795SOL    HW2 2283   1.927   9.064   7.715
66796SOL     OW 2284   2.809   9.253  12.431
66796SOL    HW1 2285   2.760   9.306  12.369
66796SOL    HW2 2286   2.765   9.168  12.429
66797SOL     OW 2287  12.250  13.123  14.411
66797SOL    HW1 2288  12.179  13.098  14.351
66797SOL    HW2 2289  12.260  13.217  14.397
66798SOL     OW 2290  14.326   3.820   4.822
66798SOL    HW1 2291  14.385   3.838   4.895
66798SOL    HW2 2292  14.251   3.877   4.836
66799SOL     OW 2293   2.274  11.212   1.684
66799SOL    HW1 2294   2.207  11.198   1.751
66799SOL    HW2 2295   2.228  11.253   1.611
66800SOL     OW 2296   6.776  14.545  13.468
66800SOL    HW1 2297   6.759  14.493  13.390
66800SOL    HW2 2298   6.710  14.615  13.464
66801SOL     OW 2299  12.452   9.203  10.821
66801SOL    HW1 2300  12.513   9.143  10.863
66801SOL    HW2 2301  12.507   9.271  10.782
66802SOL     OW 2302   6.389  14.063  10.172
66802SOL    HW1 2303   6.353  13.974  10.178
66802SOL    HW2 2304   6.347  14.100  10.095
66803SOL     OW 2305   4.534   6.722   4.463
66803SOL    HW1 2306   4.613   6.697   4.415
66803SOL    HW2 2307   4.564   6.736   4.553
66804SOL     OW 2308   5.891  11.332   4.557
66804SOL    HW1 2309   5.979  11.370   4.556
66804SOL    HW2 2310   5.902  11.245   4.518
66805SOL     OW 2311   6.858  10.530   5.290
66805SOL    HW1 2312   6.783  10.476   5.265
66805SOL    HW2 2313   6.886  10.571   5.208
66806SOL     OW 2314  11.512   8.779   2.392
66806SOL    HW1 2315  11.441   8.843   2.402
66806SOL    HW2 2316  11.507   8.724   2.470
66807SOL     OW 2317  12.471   3.136  10.056
66807SOL    HW1 2318  12.399   3.085  10.019
66807SOL    HW2 2319  12.503   3.188   9.983
66808SOL     OW 2320  14.539  10.990  12.446
66808SOL    HW1 2321  14.491  11.007  12.527
66808SOL    HW2 2322  14.470  10.974  12.381
66809SOL     OW 2323   7.609  13.999  10.595
66809SOL    HW1 2324   7.671  14.024  10.664
66809SOL    HW2 2325   7.633  13.909  10.573
66810SOL     OW 2326   7.960   7.468  11.029
66810SOL    HW1 2327   7.913   7.393  11.064
66810SOL    HW2 2328   7.898   7.541  11.039
66811SOL     OW 2329   1.196   8.740  13.449
66811SOL    HW1 2330   1.139   8.667  13.425
66811SOL    HW2 2331   1.280   8.698  13.471
66812SOL     OW 2332   2.225   4.737  13.476
66812SOL    HW1 2333   2.268   4.670  13.529
66812SOL    HW2 2334   2.282   4.750  13.401
66813SOL     OW 2335   2.365   1.890   9.947
66813SOL    HW1 2336   2.370   1.952  10.020
66813SOL    HW2 2337   2.391   1.941   9.870
66814SOL     OW 2338  11.266   1.497  14.621
66814SOL    HW1 2339  11.191   1.453  14.661
66814SOL    HW2 2340  11.284   1.571  14.679
66815SOL     OW 2341  11.747  10.791  14.494
66815SOL    HW1 2342  11.724  10.713  14.543
66815SOL    HW2 2343  11.809  10.760  14.428
66816SOL     OW 2344   0.385   7.498  10.570
66816SOL    HW1 2345   0.335   7.579  10.562
66816SOL    HW2 2346   0.421   7.483  10.483
66817SOL     OW 2347  14.621  10.382   9.946
66817SOL    HW1 2348  14.577  10.388   9.861
66817SOL    HW2 2349  14.553  10.401  10.010
66818SOL     OW 2350   2.556  13.423  11.154
66818SOL    HW1 2351   2.477  13.415  11.208
66818SOL    HW2 2352   2.601  13.339  11.164
66819SOL     OW 2353   8.153   1.162   3.349
66819SOL    HW1 2354   8.114   1.137   3.265
66819SOL    HW2 2355   8.247   1.151   3.337
66820SOL     OW 2356  12.469   8.030   5.480
66820SOL    HW1 2357  12.405   8.087   5.524
66820SOL    HW2 2358  12.520   7.992   5.552
66821SOL     OW 2359  11.966   8.447   9.737
66821SOL    HW1 2360  12.051   8.415   9.766
66821SOL    HW2 2361  11.972   8.542   9.746
66822SOL     OW 2362   5.107  13.590   5.703
66822SOL    HW1 2363   5.016  13.562   5.715
66822SOL    HW2 2364   5.153  13.555   5.779
66823SOL     OW 2365   8.436  12.018  10.286
66823SOL    HW1 2366   8.507  11.969  10.246
66823SOL    HW2 2367   8.356  11.974  10.256
66824SOL     OW 2368   0.438   6.745   3.258
66824SOL    HW1 2369   0.391   6.720   3.338
66824SOL    HW2 2370   0.371   6.783   3.201
66825SOL     OW 2371   9.396  13.516   9.288
66825SOL    HW1 2372   9.379  13.574   9.215
66825SOL    HW2 2373   9.410  13.430   9.249
66826SOL     OW 2374  10.229   3.609   2.522
66826SOL    HW1 2375  10.309   3.649   2.486
66826SOL    HW2 2376  10.169   3.606   2.448
66827SOL     OW 2377   3.207  14.571  10.921
66827SOL    HW1 2378   3.154  14.623  10.981
66827SOL    HW2 2379   3.189  14.480  10.945
66828SOL     OW 2380   5.042   1.902   6.335
66828SOL    HW1 2381   5.051   1.967   6.405
66828SOL    HW2 2382   5.026   1.954   6.256
66829SOL     OW 2383   3.116   9.933   0.258
66829SOL    HW1 2384   3.089   9.891   0.339
66829SOL    HW2 2385   3.206   9.963   0.275
66830SOL     OW 2386   0.593   3.527  14.736
66830SOL    HW1 2387   0.556   3.448  14.695
66830SOL    HW2 2388   0.639   3.571  14.665
66831SOL     OW 2389   8.938   3.339   3.511
66831SOL    HW1 2390   9.004   3.351   3.579
66831SOL    HW2 2391   8.975   3.382   3.434
66832SOL     OW 2392   7.104  10.915   8.629
66832SOL    HW1 2393   7.186  10.907   8.677
66832SOL    HW2 2394   7.084  10.826   8.600
66833SOL     OW 2395   8.500   5.108   2.521
66833SOL    HW1 2396   8.471   5.196   2.496
66833SOL    HW2 2397   8.595   5.111   2.513
66834SOL     OW 2398  13.939   2.472   8.498
66834SOL    HW1 2399  14.030   2.453   8.523
66834SOL    HW2 2400  13.914   2.398   8.443
66835SOL     OW 2401   6.311   1.183   8.481
66835SOL    HW1 2402   6.321   1.114   8.416
66835SOL    HW2 2403   6.233   1.231   8.453
66836SOL     OW 2404   4.570   2.087  10.054
66836SOL    HW1 2405   4.477   2.112  10.045
66836SOL    HW2 2406   4.573   1.998  10.020
66837SOL     OW 2407  14.322   6.812  13.256
66837SOL    HW1 2408  14.282   6.737  13.211
66837SOL    HW2 2409  14.302   6.887  13.200
66838SOL     OW 2410   2.696  10.126   9.676
66838SOL    HW1 2411   2.727  10.172   9.598
66838SOL    HW2 2412   2.659  10.194   9.731
66839SOL     OW 2413   4.037  11.781   3.548
66839SOL    HW1 2414   4.053  11.864   3.595
66839SOL    HW2 2415   3.998  11.724   3.614
66840SOL     OW 2416  11.245   1.863   3.783
66840SOL    HW1 2417  11.305   1.883   3.854
66840SOL    HW2 2418  11.181   1.934   3.783
66841SOL     OW 2419  14.546   0.921  12.038
66841SOL    HW1 2420  14.592   0.882  11.963
66841SOL    HW2 2421  14.474   0.861  12.057
66842SOL     OW 2422   5.758  14.082   6.465
66842SOL    HW1 2423   5.679  14.131   6.489
66842SOL    HW2 2424   5.733  14.035   6.385
66843SOL     OW 2425   5.283  12.541   6.238
66843SOL    HW1 2426   5.316  12.484   6.169
66843SOL    HW2 2427   5.208  12.494   6.274
66844SOL     OW 2428   1.200   4.903   8.741
66844SOL    HW1 2429   1.217   4.819   8.784
66844SOL    HW2 2430   1.243   4.895   8.656
66845SOL     OW 2431  12.005   2.314  10.130
66845SOL    HW1 2432  11.968   2.276  10.210
66845SOL    HW2 2433  11.977   2.255  10.060
66846SOL     OW 2434   6.056  10.383   3.569
66846SOL    HW1 2435   6.038  10.337   3.487
66846SOL    HW2 2436   5.974  10.381   3.618
66847SOL     OW 2437  10.336   5.719   8.293
66847SOL    HW1 2438  10.331   5.795   8.235
66847SOL    HW2 2439  10.429   5.694   8.292
66848SOL     OW 2440  11.404   6.860   1.262
66848SOL    HW1 2441  11.395   6.899   1.175
66848SOL    HW2 2442  11.404   6.766   1.246
66849SOL     OW 2443   1.635   3.719  13.320
66849SOL    HW1 2444   1.706   3.739  13.259
66849SOL    HW2 2445   1.561   3.771  13.288
66850SOL     OW 2446   3.577   5.154  10.526
66850SOL    HW1 2447   3.627   5.091  10.577
66850SOL    HW2 2448   3.631   5.173  10.450
66851SOL     OW 2449   5.441   6.156  10.402
66851SOL    HW1 2450   5.389   6.100  10.344
66851SOL    HW2 2451   5.528   6.159  10.360
66852SOL     OW 2452  11.197   1.642  13.752
66852SOL    HW1 2453  11.278   1.693  13.760
66852SOL    HW2 2454  11.211   1.588  13.673
66853SOL     OW 2455   0.862   2.794  11.574
66853SOL    HW1 2456   0.901   2.768  11.657
66853SOL    HW2 2457   0.768   2.797  11.592
66854SOL     OW 2458   4.097   2.699  14.051
66854SOL    HW1 2459   4.027   2.751  14.092
66854SOL    HW2 2460   4.152   2.671  14.124
66855SOL     OW 2461  11.420   7.492   1.924
66855SOL    HW1 2462  11.447   7.563   1.984
66855SOL    HW2 2463  11.367   7.435   1.979
66856SOL     OW 2464   3.601   9.145   2.922
66856SOL    HW1 2465   3.624   9.116   2.834
66856SOL    HW2 2466   3.659   9.095   2.980
66857SOL     OW 2467   8.538   6.086   5.828
66857SOL    HW1 2468   8.463   6.057   5.879
66857SOL    HW2 2469   8.581   6.151   5.884
66858SOL     OW 2470   2.483   2.866   4.298
66858SOL    HW1 2471   2.455   2.779   4.267
66858SOL    HW2 2472   2.542   2.898   4.230
66859SOL     OW 2473   3.263   7.833  14.323
66859SOL    HW1 2474   3.305   7.816  14.407
66859SOL    HW2 2475   3.259   7.747  14.281
66860SOL     OW 2476   4.925  12.874   1.601
66860SOL    HW1 2477   4.996  12.900   1.543
66860SOL    HW2 2478   4.934  12.931   1.677
66861SOL     OW 2479   5.311   8.587  14.224
66861SOL    HW1 2480   5.398   8.570  14.261
66861SOL    HW2 2481   5.277   8.659  14.277
66862SOL     OW 2482   2.838   6.139   3.824
66862SOL    HW1 2483   2.758   6.090   3.843
66862SOL    HW2 2484   2.901   6.106   3.888
66863SOL     OW 2485  14.272   5.967  11.273
66863SOL    HW1 2486  14.340   5.975  11.340
66863SOL    HW2 2487  14.194   5.942  11.322
66864SOL     OW 2488   1.405  13.737  10.189
66864SOL    HW1 2489   1.400  13.644  10.168
66864SOL    HW2 2490   1.486  13.746  10.239
66865SOL     OW 2491  11.624  13.979   9.785
66865SOL    HW1 2492  11.625  14.075   9.787
66865SOL    HW2 2493  11.657  13.953   9.871
66866SOL     OW 2494   8.636   7.506   4.418
66866SOL    HW1 2495   8.659   7.415   4.438
66866SOL    HW2 2496   8.667   7.556   4.493
66867SOL     OW 2497  11.204  12.253  11.861
66867SOL    HW1 2498  11.183  12.160  11.863
66867SOL    HW2 2499  11.196  12.278  11.769
66868SOL     OW 2500   5.146   5.561   4.369
66868SOL    HW1 2501   5.213   5.599   4.314
66868SOL    HW2 2502   5.063   5.586   4.328
66869SOL     OW 2503   9.387   9.980  12.204
66869SOL    HW1 2504   9.474  10.008  12.175
66869SOL    HW2 2505   9.401   9.892  12.239
66870SOL     OW 2506  13.222   3.952   7.208
66870SOL    HW1 2507  13.145   3.940   7.263
66870SOL    HW2 2508  13.291   3.980   7.269
66871SOL     OW 2509   2.252  14.169   4.380
66871SOL    HW1 2510   2.244  14.086   4.427
66871SOL    HW2 2511   2.204  14.232   4.433
66872SOL     OW 2512  12.060  10.221   8.643
66872SOL    HW1 2513  12.138  10.276   8.646
66872SOL    HW2 2514  12.073  10.156   8.712
66873SOL     OW 2515   8.300   4.030   5.895
66873SOL    HW1 2516   8.345   3.988   5.821
66873SOL    HW2 2517   8.217   4.060   5.858
66874SOL     OW 2518   8.084   5.146   2.590
66874SOL    HW1 2519   8.027   5.069   2.602
66874SOL    HW2 2520   8.140   5.124   2.516
66875SOL     OW 2521  10.406  11.468   1.567
66875SOL    HW1 2522  10.494  11.504   1.566
66875SOL    HW2 2523  10.407  11.403   1.637
66876SOL     OW 2524   1.698   6.844   0.328
66876SOL    HW1 2525   1.611   6.807   0.343
66876SOL    HW2 2526   1.716   6.895   0.407
66877SOL     OW 2527   0.718   7.048   2.800
66877SOL    HW1 2528   0.666   7.009   2.870
66877SOL    HW2 2529   0.795   7.083   2.844
66878SOL     OW 2530   8.757   6.690   3.277
66878SOL    HW1 2531   8.782   6.761   3.336
66878SOL    HW2 2532   8.837   6.639   3.265
66879SOL     OW 2533   7.438   6.485   5.153
66879SOL    HW1 2534   7.376   6.557   5.167
66879SOL    HW2 2535   7.507   6.501   5.217
66880SOL     OW 2536   0.489   1.934   7.008
66880SOL    HW1 2537   0.501   1.862   6.946
66880SOL    HW2 2538   0.404   1.971   6.984
66881SOL     OW 2539  10.874   2.916   9.353
66881SOL    HW1 2540  10.808   2.982   9.372
66881SOL    HW2 2541  10.956   2.966   9.344
66882SOL     OW 2542  10.538  11.909   1.327
66882SOL    HW1 2543  10.612  11.965   1.305
66882SOL    HW2 2544  10.547  11.893   1.421
66883SOL     OW 2545   7.650  13.746  10.540
66883SOL    HW1 2546   7.731  13.716  10.582
66883SOL    HW2 2547   7.609  13.667  10.507
66884SOL     OW 2548   9.546   5.929  13.477
66884SOL    HW1 2549   9.460   5.950  13.440
66884SOL    HW2 2550   9.530   5.914  13.570
66885SOL     OW 2551   9.576  12.355  10.026
66885SOL    HW1 2552   9.524  12.411  10.084
66885SOL    HW2 2553   9.512  12.315   9.967
66886SOL     OW 2554  13.392   5.946   0.183
66886SOL    HW1 2555  13.333   5.932   0.257
66886SOL    HW2 2556  13.476   5.912   0.212
66887SOL     OW 2557   2.337  12.880   6.607
66887SOL    HW1 2558   2.258  12.877   6.660
66887SOL    HW2 2559   2.306  12.898   6.518
66888SOL     OW 2560   3.039   8.913  14.421
66888SOL    HW1 2561   2.998   8.914  14.507
66888SOL    HW2 2562   3.021   8.999  14.383
66889SOL     OW 2563  13.308   1.639   2.045
66889SOL    HW1 2564  13.390   1.666   2.001
66889SOL    HW2 2565  13.336   1.613   2.133
66890SOL     OW 2566   6.483  14.206  13.954
66890SOL    HW1 2567   6.548  14.266  13.990
66890SOL    HW2 2568   6.475  14.232  13.862
66891SOL     OW 2569   7.895   2.570   6.016
66891SOL    HW1 2570   7.812   2.571   5.969
66891SOL    HW2 2571   7.916   2.662   6.030
66892SOL     OW 2572  12.392   7.993   6.447
66892SOL    HW1 2573  12.461   7.957   6.392
66892SOL    HW2 2574  12.357   8.067   6.396
66893SOL     OW 2575  10.107   6.320   7.946
66893SOL    HW1 2576  10.024   6.276   7.962
66893SOL    HW2 2577  10.127   6.365   8.028
66894SOL     OW 2578   2.045   6.296   8.773
66894SOL    HW1 2579   2.116   6.231   8.777
66894SOL    HW2 2580   1.993   6.269   8.698
66895SOL     OW 2581   6.133  13.316   2.494
66895SOL    HW1 2582   6.080  13.383   2.537
66895SOL    HW2 2583   6.077  13.283   2.424
66896SOL     OW 2584   3.825   9.070   3.592
66896SOL    HW1 2585   3.813   9.108   3.679
66896SOL    HW2 2586   3.850   8.979   3.609
66897SOL     OW 2587  12.780   3.377  13.420
66897SOL    HW1 2588  12.834   3.449  13.452
66897SOL    HW2 2589  12.695   3.417  13.401
66898SOL     OW 2590   2.620  11.302   0.433
66898SOL    HW1 2591   2.537  11.261   0.455
66898SOL    HW2 2592   2.627  11.294   0.337
66899SOL     OW 2593   9.571   7.648  14.460
66899SOL    HW1 2594   9.504   7.604  14.514
66899SOL    HW2 2595   9.647   7.653  14.517
66900SOL     OW 2596  12.526   3.095   1.463
66900SOL    HW1 2597  12.618   3.123   1.470
66900SOL    HW2 2598  12.478   3.156   1.519
66901SOL     OW 2599   2.417  11.788   2.454
66901SOL    HW1 2600   2.494  11.752   2.412
66901SOL    HW2 2601   2.424  11.761   2.546
66902SOL     OW 2602   4.832   4.798  11.889
66902SOL    HW1 2603   4.844   4.892  11.875
66902SOL    HW2 2604   4.918   4.760  11.873
66903SOL     OW 2605  13.687  11.928   8.895
66903SOL    HW1 2606  13.741  11.973   8.960
66903SOL    HW2 2607  13.720  11.959   8.811
66904SOL     OW 2608  11.064   3.163   5.394
66904SOL    HW1 2609  11.022   3.111   5.463
66904SOL    HW2 2610  11.157   3.161   5.415
66905SOL     OW 2611  10.538   7.381   7.618
66905SOL    HW1 2612  10.579   7.311   7.568
66905SOL    HW2 2613  10.525   7.344   7.705
66906SOL     OW 2614   3.706  12.335  14.448
66906SOL    HW1 2615   3.620  12.374  14.463
66906SOL    HW2 2616   3.719  12.344  14.353
66907SOL     OW 2617   9.662   6.532  14.087
66907SOL    HW1 2618   9.626   6.586  14.017
66907SOL    HW2 2619   9.748   6.570  14.105
66908SOL     OW 2620   8.269   1.138  11.673
66908SOL    HW1 2621   8.262   1.194  11.596
66908SOL    HW2 2622   8.180   1.104  11.686
66909SOL     OW 2623  13.245  10.198  14.584
66909SOL    HW1 2624  13.330  10.236  14.603
66909SOL    HW2 2625  13.241  10.119  14.637
66910SOL     OW 2626   1.051   3.334   2.187
66910SOL    HW1 2627   1.097   3.352   2.268
66910SOL    HW2 2628   1.045   3.419   2.143
66911SOL     OW 2629   7.489  10.347   1.358
66911SOL    HW1 2630   7.538  10.266   1.344
66911SOL    HW2 2631   7.398  10.319   1.367
66912SOL     OW 2632   0.849  12.081   4.026
66912SOL    HW1 2633   0.798  12.141   4.081
66912SOL    HW2 2634   0.823  11.994   4.055
66913SOL     OW 2635   0.703  14.134   8.686
66913SOL    HW1 2636   0.770  14.183   8.734
66913SOL    HW2 2637   0.667  14.197   8.624
66914SOL     OW 2638  13.965   7.621  13.751
66914SOL    HW1 2639  13.906   7.696  13.759
66914SOL    HW2 2640  13.920   7.550  13.797
66915SOL     OW 2641   9.864   8.540  12.441
66915SOL    HW1 2642   9.902   8.574  12.360
66915SOL    HW2 2643   9.867   8.615  12.501
66916SOL     OW 2644  12.388   7.599  12.860
66916SOL    HW1 2645  12.457   7.631  12.802
66916SOL    HW2 2646  12.335   7.540  12.807
66917SOL     OW 2647  12.489   0.911   8.737
66917SOL    HW1 2648  12.449   0.923   8.824
66917SOL    HW2 2649  12.489   0.998   8.698
66918SOL     OW 2650  14.721   3.419  10.234
66918SOL    HW1 2651  14.732   3.353  10.303
66918SOL    HW2 2652  14.641   3.465  10.257
66919SOL     OW 2653  13.506  13.953  10.639
66919SOL    HW1 2654  13.600  13.948  10.655
66919SOL    HW2 2655  13.475  14.020  10.700
66920SOL     OW 2656   0.770  14.556   8.962
66920SOL    HW1 2657   0.769  14.466   8.932
66920SOL    HW2 2658   0.857  14.568   9.001
66921SOL     OW 2659   2.697   3.054   5.398
66921SOL    HW1 2660   2.692   3.010   5.313
66921SOL    HW2 2661   2.692   3.147   5.378
66922SOL     OW 2662  13.084   5.166  13.836
66922SOL    HW1 2663  13.048   5.234  13.779
66922SOL    HW2 2664  13.061   5.084  13.792
66923SOL     OW 2665  11.860   9.644   3.398
66923SOL    HW1 2666  11.772   9.653   3.362
66923SOL    HW2 2667  11.918   9.685   3.333
66924SOL     OW 2668   0.185  13.549   7.502
66924SOL    HW1 2669   0.223  13.637   7.502
66924SOL    HW2 2670   0.227  13.505   7.428
66925SOL     OW 2671   4.348   6.169  10.809
66925SOL    HW1 2672   4.324   6.137  10.896
66925SOL    HW2 2673   4.423   6.116  10.784
66926SOL     OW 2674   7.751  11.270  10.057
66926SOL    HW1 2675   7.716  11.197  10.007
66926SOL    HW2 2676   7.846  11.263  10.048
66927SOL     OW 2677   9.836   4.957   4.954
66927SOL    HW1 2678   9.852   4.961   5.048
66927SOL    HW2 2679   9.892   4.885   4.923
66928SOL     OW 2680   6.071   0.014  10.681
66928SOL    HW1 2681   6.068   0.109  10.671
66928SOL    HW2 2682   6.032  14.879  10.767
66929SOL     OW 2683   5.592   7.248   6.608
66929SOL    HW1 2684   5.595   7.172   6.667
66929SOL    HW2 2685   5.626   7.214   6.525
66930SOL     OW 2686   1.765   1.957   8.010
66930SOL    HW1 2687   1.688   1.963   7.953
66930SOL    HW2 2688   1.731   1.924   8.093
66931SOL     OW 2689   5.498  11.079   3.748
66931SOL    HW1 2690   5.561  11.102   3.816
66931SOL    HW2 2691   5.448  11.159   3.734
66932SOL     OW 2692   7.165   9.539  10.774
66932SOL    HW1 2693   7.222   9.616  10.777
66932SOL    HW2 2694   7.106   9.555  10.700
66933SOL     OW 2695   3.221   8.166  11.298
66933SOL    HW1 2696   3.268   8.102  11.245
66933SOL    HW2 2697   3.223   8.247  11.247
66934SOL     OW 2698  13.663  12.165   4.377
66934SOL    HW1 2699  13.642  12.118   4.296
66934SOL    HW2 2700  13.600  12.237   4.379
66935SOL     OW 2701  12.468  11.759   7.853
66935SOL    HW1 2702  12.482  11.674   7.812
66935SOL    HW2 2703  12.380  11.754   7.890
66936SOL     OW 2704   9.775   1.753   6.717
66936SOL    HW1 2705   9.790   1.659   6.726
66936SOL    HW2 2706   9.858   1.794   6.742
66937SOL     OW 2707  11.897   3.492  11.425
66937SOL    HW1 2708  11.870   3.457  11.340
66937SOL    HW2 2709  11.977   3.444  11.447
66938SOL     OW 2710   1.530   4.230   4.089
66938SOL    HW1 2711   1.569   4.164   4.147
66938SOL    HW2 2712   1.546   4.313   4.134
66939SOL     OW 2713  12.957   4.739  13.208
66939SOL    HW1 2714  12.932   4.679  13.138
66939SOL    HW2 2715  12.878   4.791  13.224
66940SOL     OW 2716   1.488  12.631   0.866
66940SOL    HW1 2717   1.563  12.675   0.826
66940SOL    HW2 2718   1.426  12.617   0.793
66941SOL     OW 2719   1.575   3.360   9.797
66941SOL    HW1 2720   1.591   3.412   9.718
66941SOL    HW2 2721   1.629   3.401   9.864
66942SOL     OW 2722   1.284  12.662   9.890
66942SOL    HW1 2723   1.340  12.588   9.914
66942SOL    HW2 2724   1.229  12.676   9.968
66943SOL     OW 2725   6.919   8.762   8.217
66943SOL    HW1 2726   6.832   8.726   8.197
66943SOL    HW2 2727   6.938   8.819   8.142
66944SOL     OW 2728   8.948   1.125  10.821
66944SOL    HW1 2729   8.996   1.069  10.759
66944SOL    HW2 2730   8.856   1.103  10.806
66945SOL     OW 2731  10.476  10.294   8.808
66945SOL    HW1 2732  10.466  10.343   8.726
66945SOL    HW2 2733  10.435  10.350   8.874
66946SOL     OW 2734  11.379   6.625   2.334
66946SOL    HW1 2735  11.295   6.671   2.335
66946SOL    HW2 2736  11.437   6.685   2.287
66947SOL     OW 2737   0.004   0.234   7.949
66947SOL    HW1 2738   0.077   0.254   7.890
66947SOL    HW2 2739  14.876   0.312   8.002
66948SOL     OW 2740   4.280   3.274   9.139
66948SOL    HW1 2741   4.280   3.341   9.208
66948SOL    HW2 2742   4.251   3.194   9.183
66949SOL     OW 2743   2.421  13.619   4.175
66949SOL    HW1 2744   2.375  13.621   4.091
66949SOL    HW2 2745   2.466  13.704   4.178
66950SOL     OW 2746   4.901   1.682   2.386
66950SOL    HW1 2747   4.884   1.602   2.338
66950SOL    HW2 2748   4.985   1.667   2.430
66951SOL     OW 2749   1.780  12.440  12.718
66951SOL    HW1 2750   1.731  12.521  12.733
66951SOL    HW2 2751   1.871  12.463  12.735
66952SOL     OW 2752   0.290   7.099   3.921
66952SOL    HW1 2753   0.223   7.100   3.853
66952SOL    HW2 2754   0.266   7.026   3.978
66953SOL     OW 2755  10.991  11.240   4.875
66953SOL    HW1 2756  10.934  11.198   4.810
66953SOL    HW2 2757  11.045  11.300   4.823
66954SOL     OW 2758   5.332  11.088  13.850
66954SOL    HW1 2759   5.263  11.138  13.807
66954SOL    HW2 2760   5.307  11.087  13.942
66955SOL     OW 2761  11.052  12.466  11.385
66955SOL    HW1 2762  11.113  12.518  11.332
66955SOL    HW2 2763  10.995  12.531  11.425
66956SOL     OW 2764   6.961   3.856  13.198
66956SOL    HW1 2765   6.874   3.872  13.235
66956SOL    HW2 2766   6.953   3.880  13.106
66957SOL     OW 2767   6.879  14.445   8.532
66957SOL    HW1 2768   6.942  14.386   8.573
66957SOL    HW2 2769   6.930  14.492   8.465
66958SOL     OW 2770   2.949  13.313   7.190
66958SOL    HW1 2771   2.960  13.406   7.170
66958SOL    HW2 2772   2.861  13.307   7.226
66959SOL     OW 2773  11.648  14.664  13.790
66959SOL    HW1 2774  11.720  14.715  13.754
66959SOL    HW2 2775  11.578  14.671  13.725
66960SOL     OW 2776   4.347  13.182   3.206
66960SOL    HW1 2777   4.321  13.248   3.142
66960SOL    HW2 2778   4.367  13.104   3.154
66961SOL     OW 2779  10.865  11.961   1.960
66961SOL    HW1 2780  10.775  11.974   1.989
66961SOL    HW2 2781  10.865  11.988   1.869
66962SOL     OW 2782  13.734   8.181  12.244
66962SOL    HW1 2783  13.815   8.174  12.196
66962SOL    HW2 2784  13.719   8.094  12.280
66963SOL     OW 2785  10.812   8.140   4.488
66963SOL    HW1 2786  10.868   8.213   4.514
66963SOL    HW2 2787  10.825   8.074   4.556
66964SOL     OW 2788  14.873   1.317   1.328
66964SOL    HW1 2789   0.002   1.227   1.359
66964SOL    HW2 2790  14.780   1.323   1.303
66965SOL     OW 2791   6.940  14.468   4.836
66965SOL    HW1 2792   6.980  14.397   4.887
66965SOL    HW2 2793   6.849  14.472   4.868
66966SOL     OW 2794  14.167   8.364  14.154
66966SOL    HW1 2795  14.148   8.441  14.100
66966SOL    HW2 2796  14.200   8.401  14.236
66967SOL     OW 2797  10.570  12.836   2.997
66967SOL    HW1 2798  10.530  12.843   3.083
66967SOL    HW2 2799  10.656  12.876   3.007
66968SOL     OW 2800   4.883   4.433   0.980
66968SOL    HW1 2801   4.829   4.399   1.052
66968SOL    HW2 2802   4.821   4.447   0.908
66969SOL     OW 2803   6.414   1.071  13.480
66969SOL    HW1 2804   6.450   0.983  13.475
66969SOL    HW2 2805   6.387   1.091  13.390
66970SOL     OW 2806   2.060  10.429  10.351
66970SOL    HW1 2807   2.048  10.435  10.257
66970SOL    HW2 2808   2.097  10.514  10.376
66971SOL     OW 2809   7.874   2.731   7.285
66971SOL    HW1 2810   7.940   2.793   7.254
66971SOL    HW2 2811   7.895   2.719   7.378
66972SOL     OW 2812   9.457   1.615   6.523
66972SOL    HW1 2813   9.435   1.707   6.513
66972SOL    HW2 2814   9.526   1.599   6.459
66973SOL     OW 2815   3.320   4.844   7.045
66973SOL    HW1 2816   3.355   4.755   7.041
66973SOL    HW2 2817   3.261   4.844   7.120
66974SOL     OW 2818  12.083  14.820   6.381
66974SOL    HW1 2819  12.143  14.784   6.316
66974SOL    HW2 2820  12.002  14.772   6.368
66975SOL     OW 2821   3.437  13.688   4.526
66975SOL    HW1 2822   3.496  13.687   4.602
66975SOL    HW2 2823   3.429  13.780   4.504
66976SOL     OW 2824  12.433   8.219   2.191
66976SOL    HW1 2825  12.419   8.131   2.226
66976SOL    HW2 2826  12.528   8.230   2.190
66977SOL     OW 2827   3.894  12.917   0.726
66977SOL    HW1 2828   3.891  12.828   0.689
66977SOL    HW2 2829   3.961  12.913   0.794
66978SOL     OW 2830   5.152  10.282   8.375
66978SOL    HW1 2831   5.156  10.373   8.346
66978SOL    HW2 2832   5.061  10.270   8.404
66979SOL     OW 2833   8.767  12.677   2.788
66979SOL    HW1 2834   8.704  12.667   2.860
66979SOL    HW2 2835   8.852  12.658   2.828
66980SOL     OW 2836   0.775   4.821   6.079
66980SOL    HW1 2837   0.802   4.871   6.002
66980SOL    HW2 2838   0.734   4.742   6.043
66981SOL     OW 2839   9.610  12.545  11.916
66981SOL    HW1 2840   9.546  12.553  11.845
66981SOL    HW2 2841   9.690  12.513  11.873
66982SOL     OW 2842   9.559   9.490  14.648
66982SOL    HW1 2843   9.611   9.564  14.617
66982SOL    HW2 2844   9.522   9.452  14.568
66983SOL     OW 2845  11.764   1.677  14.415
66983SOL    HW1 2846  11.777   1.631  14.498
66983SOL    HW2 2847  11.669   1.685  14.406
66984SOL     OW 2848  10.907   4.654  11.717
66984SOL    HW1 2849  10.974   4.588  11.700
66984SOL    HW2 2850  10.826   4.613  11.687
66985SOL     OW 2851   2.803   1.500   2.064
66985SOL    HW1 2852   2.834   1.411   2.045
66985SOL    HW2 2853   2.820   1.510   2.158
66986SOL     OW 2854  11.209  10.421  12.870
66986SOL    HW1 2855  11.274  10.458  12.811
66986SOL    HW2 2856  11.245  10.437  12.958
66987SOL     OW 2857   5.755   7.280   4.001
66987SOL    HW1 2858   5.681   7.297   3.943
66987SOL    HW2 2859   5.798   7.203   3.965
66988SOL     OW 2860  11.317  13.262   8.674
66988SOL    HW1 2861  11.404  13.223   8.670
66988SOL    HW2 2862  11.321  13.337   8.615
66989SOL     OW 2863  14.514  13.243  13.497
66989SOL    HW1 2864  14.426  13.243  13.534
66989SOL    HW2 2865  14.522  13.159  13.453
66990SOL     OW 2866   5.999   8.201   7.329
66990SOL    HW1 2867   5.924   8.183   7.387
66990SOL    HW2 2868   5.959   8.236   7.249
66991SOL     OW 2869  11.638  12.060  10.481
66991SOL    HW1 2870  11.586  12.137  10.457
66991SOL    HW2 2871  11.589  12.018  10.552
66992SOL     OW 2872   5.286   9.653   1.007
66992SOL    HW1 2873   5.270   9.744   0.985
66992SOL    HW2 2874   5.379   9.649   1.029
66993SOL     OW 2875   8.718   8.041   9.390
66993SOL    HW1 2876   8.745   7.949   9.386
66993SOL    HW2 2877   8.654   8.045   9.460
66994SOL     OW 2878  12.658   8.292   7.635
66994SOL    HW1 2879  12.724   8.248   7.688
66994SOL    HW2 2880  12.575   8.259   7.669
66995SOL     OW 2881   3.420  11.407   0.297
66995SOL    HW1 2882   3.354  11.342   0.323
66995SOL    HW2 2883   3.501  11.377   0.337
66996SOL     OW 2884  12.442   4.502   7.252
66996SOL    HW1 2885  12.416   4.451   7.175
66996SOL    HW2 2886  12.457   4.590   7.219
66997SOL     OW 2887   6.024   5.279  10.292
66997SOL    HW1 2888   6.025   5.341  10.365
66997SOL    HW2 2889   6.071   5.203  10.325
66998SOL     OW 2890   9.959   6.737  12.089
66998SOL    HW1 2891   9.942   6.760  11.998
66998SOL    HW2 2892   9.906   6.658  12.104
66999SOL     OW 2893   7.715  14.552   8.575
66999SOL    HW1 2894   7.656  14.586   8.642
66999SOL    HW2 2895   7.789  14.518   8.624
67000SOL     OW 2896   9.443  11.687  10.006
67000SOL    HW1 2897   9.488  11.765   9.973
67000SOL    HW2 2898   9.392  11.718  10.081
67001SOL     OW 2899   5.301  11.553   4.878
67001SOL    HW1 2900   5.291  11.595   4.792
67001SOL    HW2 2901   5.309  11.460   4.858
67002SOL     OW 2902   0.094   7.430  11.669
67002SOL    HW1 2903   0.140   7.501  11.714
67002SOL    HW2 2904   0.111   7.353  11.723
67003SOL     OW 2905  10.837   5.760  12.407
67003SOL    HW1 2906  10.742   5.763  12.417
67003SOL    HW2 2907  10.871   5.809  12.481
67004SOL     OW 2908  12.731   5.014   5.179
67004SOL    HW1 2909  12.746   5.011   5.084
67004SOL    HW2 2910  12.744   4.924   5.208
67005SOL     OW 2911   0.500   3.639  13.805
67005SOL    HW1 2912   0.433   3.681  13.751
67005SOL    HW2 2913   0.452   3.604  13.880
67006SOL     OW 2914  13.624  14.755   7.195
67006SOL    HW1 2915  13.557  14.819   7.169
67006SOL    HW2 2916  13.644  14.708   7.115
67007SOL     OW 2917   2.889   5.744  11.042
67007SOL    HW1 2918   2.834   5.673  11.075
67007SOL    HW2 2919   2.957   5.755  11.109
67008SOL     OW 2920  13.773   8.689   8.522
67008SOL    HW1 2921  13.752   8.717   8.433
67008SOL    HW2 2922  13.756   8.595   8.523
67009SOL     OW 2923  13.083  14.676  13.915
67009SOL    HW1 2924  13.144  14.734  13.869
67009SOL    HW2 2925  12.997  14.710  13.894
67010SOL     OW 2926   2.605   2.413   8.828
67010SOL    HW1 2927   2.630   2.435   8.918
67010SOL    HW2 2928   2.687   2.406   8.780
67011SOL     OW 2929   1.205   6.222   2.137
67011SOL    HW1 2930   1.129   6.182   2.093
67011SOL    HW2 2931   1.278   6.207   2.077
67012SOL     OW 2932   8.947   0.513   0.249
67012SOL    HW1 2933   8.895   0.506   0.329
67012SOL    HW2 2934   9.038   0.516   0.279
67013SOL     OW 2935   0.209   7.707  13.361
67013SOL    HW1 2936   0.249   7.783  13.317
67013SOL    HW2 2937   0.121   7.737  13.385
67014SOL     OW 2938   9.891   5.765   8.339
67014SOL    HW1 2939   9.953   5.699   8.371
67014SOL    HW2 2940   9.939   5.811   8.269
67015SOL     OW 2941   4.080  11.171   6.049
67015SOL    HW1 2942   4.114  11.082   6.058
67015SOL    HW2 2943   4.033  11.170   5.965
67016SOL     OW 2944   3.213   7.952   2.154
67016SOL    HW1 2945   3.207   7.933   2.060
67016SOL    HW2 2946   3.166   7.881   2.197
67017SOL     OW 2947   7.342   2.130   6.143
67017SOL    HW1 2948   7.340   2.191   6.069
67017SOL    HW2 2949   7.435   2.110   6.153
67018SOL     OW 2950  14.418   3.049  11.094
67018SOL    HW1 2951  14.399   3.132  11.138
67018SOL    HW2 2952  14.372   3.057  11.010
67019SOL     OW 2953   4.011  11.363   0.513
67019SOL    HW1 2954   3.963  11.389   0.434
67019SOL    HW2 2955   3.943  11.354   0.580
67020SOL     OW 2956   5.851   6.341  13.630
67020SOL    HW1 2957   5.919   6.334  13.697
67020SOL    HW2 2958   5.836   6.250  13.602
67021SOL     OW 2959  12.954  11.023  13.774
67021SOL    HW1 2960  12.986  10.934  13.755
67021SOL    HW2 2961  12.962  11.069  13.691
67022SOL     OW 2962  12.118   8.520   0.748
67022SOL    HW1 2963  12.163   8.596   0.787
67022SOL    HW2 2964  12.150   8.445   0.798
67023SOL     OW 2965   8.986   5.390   8.321
67023SOL    HW1 2966   9.004   5.370   8.412
67023SOL    HW2 2967   9.060   5.444   8.293
67024SOL     OW 2968   0.036   7.883   3.471
67024SOL    HW1 2969   0.014   7.878   3.378
67024SOL    HW2 2970   0.116   7.830   3.480
67025SOL     OW 2971  14.768   3.377   9.015
67025SOL    HW1 2972  14.856   3.359   9.048
67025SOL    HW2 2973  14.760   3.473   9.019
67026SOL     OW 2974   5.221   3.601   3.106
67026SOL    HW1 2975   5.197   3.530   3.166
67026SOL    HW2 2976   5.149   3.663   3.113
67027SOL     OW 2977   6.327   5.123   2.488
67027SOL    HW1 2978   6.346   5.185   2.417
67027SOL    HW2 2979   6.413   5.099   2.522
67028SOL     OW 2980   7.944   9.966   4.102
67028SOL    HW1 2981   7.857   9.950   4.066
67028SOL    HW2 2982   7.934   9.953   4.196
67029SOL     OW 2983   3.277   9.417   3.900
67029SOL    HW1 2984   3.359   9.466   3.912
67029SOL    HW2 2985   3.262   9.417   3.806
67030SOL     OW 2986   9.921   8.175   3.623
67030SOL    HW1 2987   9.839   8.137   3.590
67030SOL    HW2 2988   9.898   8.207   3.710
67031SOL     OW 2989   6.759   2.670   7.105
67031SOL    HW1 2990   6.799   2.749   7.140
67031SOL    HW2 2991   6.814   2.599   7.137
67032SOL     OW 2992   4.485   4.983   3.017
67032SOL    HW1 2993   4.395   5.002   2.990
67032SOL    HW2 2994   4.533   5.065   3.002
67033SOL     OW 2995   6.099  12.335   5.594
67033SOL    HW1 2996   6.023  12.280   5.616
67033SOL    HW2 2997   6.147  12.284   5.529
67034SOL     OW 2998   2.623   8.284  13.052
67034SOL    HW1 2999   2.709   8.252  13.076
67034SOL    HW2 3000   2.640   8.364  13.003
67035SOL     OW 3001   1.209  12.140   0.166
67035SOL    HW1 3002   1.117  12.147   0.142
67035SOL    HW2 3003   1.252  12.209   0.115
67036SOL     OW 3004   9.526  12.532   5.872
67036SOL    HW1 3005   9.470  12.589   5.819
67036SOL    HW2 3006   9.477  12.451   5.880
67037SOL     OW 3007  11.466   7.927   5.122
67037SOL    HW1 3008  11.424   7.890   5.044
67037SOL    HW2 3009  11.408   7.903   5.194
67038SOL     OW 3010  12.252   2.904   5.182
67038SOL    HW1 3011  12.289   2.872   5.264
67038SOL    HW2 3012  12.252   2.999   5.190
67039SOL     OW 3013   5.553   0.330  13.325
67039SOL    HW1 3014   5.592   0.260  13.378
67039SOL    HW2 3015   5.469   0.294  13.296
67040SOL     OW 3016   7.383   2.825   0.887
67040SOL    HW1 3017   7.346   2.787   0.967
67040SOL    HW2 3018   7.478   2.824   0.901
67041SOL     OW 3019  14.790   2.569  13.242
67041SOL    HW1 3020  14.835   2.524  13.171
67041SOL    HW2 3021  14.766   2.500  13.303
67042SOL     OW 3022   8.650  14.064   6.893
67042SOL    HW1 3023   8.633  14.101   6.806
67042SOL    HW2 3024   8.585  14.105   6.949
67043SOL     OW 3025   1.740  14.552   4.728
67043SOL    HW1 3026   1.713  14.522   4.815
67043SOL    HW2 3027   1.662  14.540   4.674
67044SOL     OW 3028   1.008   9.176  11.751
67044SOL    HW1 3029   0.945   9.247  11.751
67044SOL    HW2 3030   0.956   9.097  11.768
67045SOL     OW 3031  12.377   2.875   4.937
67045SOL    HW1 3032  12.343   2.867   5.026
67045SOL    HW2 3033  12.443   2.945   4.943
67046SOL     OW 3034  11.098  10.369   8.189
67046SOL    HW1 3035  11.190  10.396   8.187
67046SOL    HW2 3036  11.061  10.416   8.264
67047SOL     OW 3037   7.605   7.964  14.689
67047SOL    HW1 3038   7.532   7.932  14.635
67047SOL    HW2 3039   7.623   7.891  14.749
67048SOL     OW 3040  12.895   1.724   7.230
67048SOL    HW1 3041  12.884   1.771   7.313
67048SOL    HW2 3042  12.964   1.660   7.248
67049SOL     OW 3043   2.928   8.818   3.828
67049SOL    HW1 3044   2.941   8.736   3.875
67049SOL    HW2 3045   3.010   8.865   3.839
67050SOL     OW 3046   9.839   8.053  14.611
67050SOL    HW1 3047   9.807   8.104  14.537
67050SOL    HW2 3048   9.926   8.087  14.628
67051SOL     OW 3049   8.605   7.121   8.613
67051SOL    HW1 3050   8.604   7.215   8.595
67051SOL    HW2 3051   8.629   7.114   8.705
67052SOL     OW 3052   4.353   8.069   2.383
67052SOL    HW1 3053   4.309   8.154   2.377
67052SOL    HW2 3054   4.430   8.079   2.327
67053SOL     OW 3055  12.848   6.203   1.534
67053SOL    HW1 3056  12.921   6.199   1.596
67053SOL    HW2 3057  12.811   6.114   1.535
67054SOL     OW 3058   6.869   3.765   3.620
67054SOL    HW1 3059   6.919   3.739   3.696
67054SOL    HW2 3060   6.883   3.859   3.612
67055SOL     OW 3061   0.832   1.896  12.343
67055SOL    HW1 3062   0.921   1.910  12.374
67055SOL    HW2 3063   0.777   1.913  12.420
67056SOL     OW 3064   6.488   5.956   8.397
67056SOL    HW1 3065   6.581   5.955   8.419
67056SOL    HW2 3066   6.457   6.042   8.425
67057SOL     OW 3067   9.120  13.051   5.125
67057SOL    HW1 3068   9.190  13.090   5.178
67057SOL    HW2 3069   9.141  13.077   5.035
67058SOL     OW 3070   6.808  11.487   0.154
67058SOL    HW1 3071   6.736  11.438   0.192
67058SOL    HW2 3072   6.867  11.506   0.227
67059SOL     OW 3073  13.810   9.078  11.697
67059SOL    HW1 3074  13.780   8.997  11.657
67059SOL    HW2 3075  13.865   9.119  11.629
67060SOL     OW 3076   1.081  13.842   8.395
67060SOL    HW1 3077   1.154  13.840   8.333
67060SOL    HW2 3078   1.003  13.858   8.341
67061SOL     OW 3079   5.747   0.665   5.645
67061SOL    HW1 3080   5.737   0.741   5.589
67061SOL    HW2 3081   5.755   0.701   5.734
67062SOL     OW 3082   7.537   1.578  12.545
67062SOL    HW1 3083   7.451   1.615  12.525
67062SOL    HW2 3084   7.571   1.631  12.617
67063SOL     OW 3085  12.513   3.537   0.195
67063SOL    HW1 3086  12.574   3.611   0.193
67063SOL    HW2 3087  12.541   3.486   0.272
67064SOL     OW 3088   6.807   2.915  10.216
67064SOL    HW1 3089   6.782   2.874  10.298
67064SOL    HW2 3090   6.880   2.973  10.238
67065SOL     OW 3091   6.772   0.806   8.596
67065SOL    HW1 3092   6.755   0.900   8.595
67065SOL    HW2 3093   6.841   0.793   8.531
67066SOL     OW 3094   1.820   8.133   6.286
67066SOL    HW1 3095   1.736   8.102   6.319
67066SOL    HW2 3096   1.883   8.069   6.318
67067SOL     OW 3097   8.860   3.385  10.280
67067SOL    HW1 3098   8.886   3.443  10.352
67067SOL    HW2 3099   8.891   3.429  10.201
67068SOL     OW 3100   8.473   2.179   4.150
67068SOL    HW1 3101   8.388   2.184   4.194
67068SOL    HW2 3102   8.537   2.200   4.218
67069SOL     OW 3103   6.133  14.606   0.463
67069SOL    HW1 3104   6.098  14.665   0.530
67069SOL    HW2 3105   6.157  14.527   0.510
67070SOL     OW 3106   5.990   5.944  12.322
67070SOL    HW1 3107   5.944   6.008  12.377
67070SOL    HW2 3108   6.060   5.911  12.378
67071SOL     OW 3109  13.211   8.793   0.565
67071SOL    HW1 3110  13.154   8.732   0.612
67071SOL    HW2 3111  13.294   8.789   0.613
67072SOL     OW 3112   2.048  11.514  10.376
67072SOL    HW1 3113   2.029  11.571  10.451
67072SOL    HW2 3114   1.972  11.524  10.319
67073SOL     OW 3115   1.123   1.073  14.551
67073SOL    HW1 3116   1.156   1.114  14.471
67073SOL    HW2 3117   1.092   0.987  14.523
67074SOL     OW 3118   1.242   7.568  13.627
67074SOL    HW1 3119   1.157   7.524  13.624
67074SOL    HW2 3120   1.302   7.501  13.659
67075SOL     OW 3121   9.876   2.592  12.267
67075SOL    HW1 3122   9.824   2.575  12.188
67075SOL    HW2 3123   9.938   2.519  12.270
67076SOL     OW 3124   3.674   2.675  13.979
67076SOL    HW1 3125   3.697   2.626  13.901
67076SOL    HW2 3126   3.681   2.612  14.051
67077SOL     OW 3127  10.539  10.033  10.149
67077SOL    HW1 3128  10.561   9.939  10.147
67077SOL    HW2 3129  10.553  10.059  10.240
67078SOL     OW 3130   0.444   8.305   8.214
67078SOL    HW1 3131   0.508   8.376   8.207
67078SOL    HW2 3132   0.458   8.269   8.302
67079SOL     OW 3133  11.062  14.388   5.221
67079SOL    HW1 3134  11.156  14.405   5.227
67079SOL    HW2 3135  11.028  14.406   5.309
67080SOL     OW 3136   3.970   8.430  10.185
67080SOL    HW1 3137   4.032   8.401  10.118
67080SOL    HW2 3138   4.016   8.501  10.230
67081SOL     OW 3139  11.440   9.344   0.412
67081SOL    HW1 3140  11.353   9.360   0.447
67081SOL    HW2 3141  11.444   9.249   0.401
67082SOL     OW 3142  11.715  11.001   5.408
67082SOL    HW1 3143  11.685  11.046   5.487
67082SOL    HW2 3144  11.741  10.914   5.439
67083SOL     OW 3145  10.381   4.729   9.963
67083SOL    HW1 3146  10.361   4.817   9.994
67083SOL    HW2 3147  10.470   4.713   9.995
67084SOL     OW 3148  12.414   5.916   8.039
67084SOL    HW1 3149  12.431   5.825   8.062
67084SOL    HW2 3150  12.342   5.942   8.096
67085SOL     OW 3151   3.238   9.295   7.998
67085SOL    HW1 3152   3.295   9.241   8.052
67085SOL    HW2 3153   3.251   9.384   8.029
67086SOL     OW 3154  11.453   8.515   4.848
67086SOL    HW1 3155  11.540   8.555   4.841
67086SOL    HW2 3156  11.469   8.434   4.896
67087SOL     OW 3157   1.686   0.149   8.721
67087SOL    HW1 3158   1.779   0.126   8.720
67087SOL    HW2 3159   1.649   0.096   8.792
67088SOL     OW 3160   1.387   7.037   3.553
67088SOL    HW1 3161   1.299   7.023   3.588
67088SOL    HW2 3162   1.431   7.091   3.619
67089SOL     OW 3163   8.771   8.028   9.819
67089SOL    HW1 3164   8.747   8.101   9.877
67089SOL    HW2 3165   8.704   8.028   9.751
67090SOL     OW 3166   4.647  12.082  12.028
67090SOL    HW1 3167   4.637  12.046  11.940
67090SOL    HW2 3168   4.709  12.155  12.017
67091SOL     OW 3169   0.284  11.099   9.335
67091SOL    HW1 3170   0.280  11.004   9.341
67091SOL    HW2 3171   0.193  11.126   9.320
67092SOL     OW 3172   2.697   0.020   8.618
67092SOL    HW1 3173   2.659  14.860   8.695
67092SOL    HW2 3174   2.630   0.012   8.550
67093SOL     OW 3175  13.390   4.748   4.888
67093SOL    HW1 3176  13.348   4.672   4.848
67093SOL    HW2 3177  13.337   4.823   4.860
67094SOL     OW 3178   4.741  13.707   7.044
67094SOL    HW1 3179   4.785  13.724   7.128
67094SOL    HW2 3180   4.790  13.760   6.981
67095SOL     OW 3181  14.128   4.645   8.779
67095SOL    HW1 3182  14.121   4.626   8.872
67095SOL    HW2 3183  14.202   4.592   8.748
67096SOL     OW 3184  11.518   2.483   5.339
67096SOL    HW1 3185  11.533   2.558   5.397
67096SOL    HW2 3186  11.589   2.422   5.359
67097SOL     OW 3187  14.386   8.189  11.772
67097SOL    HW1 3188  14.460   8.239  11.737
67097SOL    HW2 3189  14.400   8.190  11.867
67098SOL     OW 3190  14.780   2.701   9.731
67098SOL    HW1 3191  14.797   2.795   9.724
67098SOL    HW2 3192  14.788   2.669   9.641
67099SOL     OW 3193   1.104   4.203   3.162
67099SOL    HW1 3194   1.055   4.140   3.108
67099SOL    HW2 3195   1.128   4.273   3.101
67100SOL     OW 3196  12.386   3.135  14.486
67100SOL    HW1 3197  12.372   3.149  14.392
67100SOL    HW2 3198  12.476   3.105  14.493
67101SOL     OW 3199   5.269  13.161   9.458
67101SOL    HW1 3200   5.300  13.076   9.489
67101SOL    HW2 3201   5.346  13.218   9.462
67102SOL     OW 3202   9.548   6.958   9.519
67102SOL    HW1 3203   9.544   7.044   9.562
67102SOL    HW2 3204   9.641   6.938   9.514
67103SOL     OW 3205   8.844  12.021   7.032
67103SOL    HW1 3206   8.846  11.994   7.123
67103SOL    HW2 3207   8.762  12.071   7.023
67104SOL     OW 3208   7.759   5.289   6.033
67104SOL    HW1 3209   7.717   5.234   6.099
67104SOL    HW2 3210   7.694   5.357   6.013
67105SOL     OW 3211   9.279  10.616   0.308
67105SOL    HW1 3212   9.323  10.678   0.366
67105SOL    HW2 3213   9.186  10.626   0.328
67106SOL     OW 3214   0.706   4.506   1.027
67106SOL    HW1 3215   0.742   4.553   0.953
67106SOL    HW2 3216   0.723   4.414   1.008
67107SOL     OW 3217   8.094   1.786   1.780
67107SOL    HW1 3218   8.173   1.817   1.736
67107SOL    HW2 3219   8.099   1.823   1.868
67108SOL     OW 3220   1.814   6.238   2.832
67108SOL    HW1 3221   1.901   6.221   2.867
67108SOL    HW2 3222   1.825   6.233   2.737
67109SOL     OW 3223  10.125  10.046   3.142
67109SOL    HW1 3224  10.097  10.019   3.054
67109SOL    HW2 3225  10.137   9.964   3.189
67110SOL     OW 3226   3.676   1.955   1.021
67110SOL    HW1 3227   3.585   1.985   1.012
67110SOL    HW2 3228   3.671   1.860   1.007
67111SOL     OW 3229   4.193   8.890   9.625
67111SOL    HW1 3230   4.134   8.940   9.681
67111SOL    HW2 3231   4.280   8.923   9.646
67112SOL     OW 3232   1.102  11.156  12.128
67112SOL    HW1 3233   1.134  11.192  12.210
67112SOL    HW2 3234   1.007  11.148  12.140
67113SOL     OW 3235   7.706  12.657  14.209
67113SOL    HW1 3236   7.626  12.606  14.216
67113SOL    HW2 3237   7.738  12.664  14.299
67114SOL     OW 3238   6.900  11.430   1.335
67114SOL    HW1 3239   6.898  11.344   1.376
67114SOL    HW2 3240   6.817  11.437   1.288
67115SOL     OW 3241   0.460   6.113   8.073
67115SOL    HW1 3242   0.475   6.156   8.158
67115SOL    HW2 3243   0.480   6.180   8.008
67116SOL     OW 3244  14.606  11.259  12.451
67116SOL    HW1 3245  14.580  11.287  12.363
67116SOL    HW2 3246  14.580  11.167  12.455
67117SOL     OW 3247  14.147  13.581  14.241
67117SOL    HW1 3248  14.225  13.598  14.188
67117SOL    HW2 3249  14.075  13.616  14.188
67118SOL     OW 3250  13.646   3.632  14.878
67118SOL    HW1 3251  13.622   3.545  14.844
67118SOL    HW2 3252  13.563   3.679   0.002
67119SOL     OW 3253   5.304   0.395   9.473
67119SOL    HW1 3254   5.322   0.316   9.422
67119SOL    HW2 3255   5.231   0.371   9.529
67120SOL     OW 3256   1.641  11.060   9.426
67120SOL    HW1 3257   1.668  11.034   9.338
67120SOL    HW2 3258   1.584  10.990   9.455
67121SOL     OW 3259   5.754   7.473   2.154
67121SOL    HW1 3260   5.683   7.501   2.096
67121SOL    HW2 3261   5.815   7.428   2.096
67122SOL     OW 3262  11.189  14.271   3.370
67122SOL    HW1 3263  11.108  14.323   3.378
67122SOL    HW2 3264  11.220  14.289   3.281
67123SOL     OW 3265  10.676  11.237  14.275
67123SOL    HW1 3266  10.625  11.284  14.209
67123SOL    HW2 3267  10.683  11.148  14.242
67124SOL     OW 3268   4.270  11.353  11.008
67124SOL    HW1 3269   4.205  11.295  11.048
67124SOL    HW2 3270   4.219  11.408  10.948
67125SOL     OW 3271   6.291  13.662   3.172
67125SOL    HW1 3272   6.370  13.688   3.125
67125SOL    HW2 3273   6.321  13.640   3.260
67126SOL     OW 3274   0.683   9.533   5.677
67126SOL    HW1 3275   0.714   9.475   5.747
67126SOL    HW2 3276   0.676   9.477   5.600
67127SOL     OW 3277  10.627   7.427   9.991
67127SOL    HW1 3278  10.667   7.486  10.055
67127SOL    HW2 3279  10.555   7.385  10.038
67128SOL     OW 3280  12.229   9.900   6.250
67128SOL    HW1 3281  12.137   9.905   6.225
67128SOL    HW2 3282  12.272   9.972   6.203
67129SOL     OW 3283   2.321  14.034  13.563
67129SOL    HW1 3284   2.229  14.020  13.584
67129SOL    HW2 3285   2.368  13.981  13.627
67130SOL     OW 3286   2.238   3.290   7.028
67130SOL    HW1 3287   2.330   3.311   7.046
67130SOL    HW2 3288   2.224   3.205   7.069
67131SOL     OW 3289   9.790  12.089  10.026
67131SOL    HW1 3290   9.843  12.169  10.030
67131SOL    HW2 3291   9.729  12.098  10.100
67132SOL     OW 3292  12.972  13.879  14.195
67132SOL    HW1 3293  12.929  13.833  14.122
67132SOL    HW2 3294  13.003  13.810  14.252
67133SOL     OW 3295   1.780  14.359   5.384
67133SOL    HW1 3296   1.801  14.411   5.307
67133SOL    HW2 3297   1.789  14.421   5.457
67134SOL     OW 3298  12.314   2.448  11.606
67134SOL    HW1 3299  12.232   2.465  11.560
67134SOL    HW2 3300  12.378   2.505  11.563
67135SOL     OW 3301   7.925   2.338   1.515
67135SOL    HW1 3302   7.847   2.296   1.552
67135SOL    HW2 3303   7.996   2.275   1.531
67136SOL     OW 3304   8.032   3.557   6.555
67136SOL    HW1 3305   7.978   3.553   6.633
67136SOL    HW2 3306   7.975   3.596   6.488
67137SOL     OW 3307   3.820   2.539   0.921
67137SOL    HW1 3308   3.912   2.557   0.902
67137SOL    HW2 3309   3.795   2.470   0.860
67138SOL     OW 3310   3.076   8.046  12.523
67138SOL    HW1 3311   3.131   8.017  12.596
67138SOL    HW2 3312   3.050   8.135  12.545
67139SOL     OW 3313   4.882   5.565   9.337
67139SOL    HW1 3314   4.950   5.549   9.271
67139SOL    HW2 3315   4.825   5.488   9.332
67140SOL     OW 3316   8.549  12.697  12.263
67140SOL    HW1 3317   8.457  12.720  12.274
67140SOL    HW2 3318   8.582  12.762  12.201
67141SOL     OW 3319  13.021   5.685   9.873
67141SOL    HW1 3320  12.976   5.632   9.938
67141SOL    HW2 3321  13.031   5.628   9.797
67142SOL     OW 3322   0.932  10.860  14.661
67142SOL    HW1 3323   0.953  10.882  14.570
67142SOL    HW2 3324   0.841  10.832  14.659
67143SOL     OW 3325  14.461   2.875   9.946
67143SOL    HW1 3326  14.370   2.844   9.948
67143SOL    HW2 3327  14.513   2.795   9.939
67144SOL     OW 3328   1.575  11.704   1.454
67144SOL    HW1 3329   1.586  11.709   1.549
67144SOL    HW2 3330   1.652  11.748   1.419
67145SOL     OW 3331   8.749  12.050   3.042
67145SOL    HW1 3332   8.822  12.075   3.099
67145SOL    HW2 3333   8.726  12.131   2.996
67146SOL     OW 3334   8.728   8.781  13.606
67146SOL    HW1 3335   8.733   8.846  13.536
67146SOL    HW2 3336   8.790   8.812  13.672
67147SOL     OW 3337   4.299   8.149  14.705
67147SOL    HW1 3338   4.340   8.065  14.687
67147SOL    HW2 3339   4.372   8.211  14.705
67148SOL     OW 3340   1.242   6.624   6.266
67148SOL    HW1 3341   1.314   6.566   6.291
67148SOL    HW2 3342   1.258   6.643   6.174
67149SOL     OW 3343   2.887   0.844  12.976
67149SOL    HW1 3344   2.820   0.899  13.017
67149SOL    HW2 3345   2.896   0.769  13.035
67150SOL     OW 3346   5.942   5.149   8.263
67150SOL    HW1 3347   5.942   5.245   8.267
67150SOL    HW2 3348   5.972   5.129   8.174
67151SOL     OW 3349  11.331   4.644   8.138
67151SOL    HW1 3350  11.249   4.601   8.116
67151SOL    HW2 3351  11.396   4.605   8.079
67152SOL     OW 3352  13.984   4.709   0.305
67152SOL    HW1 3353  14.016   4.687   0.393
67152SOL    HW2 3354  14.060   4.703   0.249
67153SOL     OW 3355   9.069   7.081  14.622
67153SOL    HW1 3356   9.115   7.152  14.667
67153SOL    HW2 3357   9.102   7.084  14.533
67154SOL     OW 3358  13.974   7.281   2.394
67154SOL    HW1 3359  14.057   7.305   2.434
67154SOL    HW2 3360  13.912   7.347   2.425
67155SOL     OW 3361   5.463  10.952   9.249
67155SOL    HW1 3362   5.548  10.943   9.293
67155SOL    HW2 3363   5.483  10.939   9.156
67156SOL     OW 3364  11.846   5.486   6.930
67156SOL    HW1 3365  11.776   5.453   6.987
67156SOL    HW2 3366  11.799   5.528   6.857
67157SOL     OW 3367   4.521  12.597   1.199
67157SOL    HW1 3368   4.507  12.548   1.280
67157SOL    HW2 3369   4.612  12.580   1.175
67158SOL     OW 3370   0.836   0.988   5.220
67158SOL    HW1 3371   0.890   0.982   5.299
67158SOL    HW2 3372   0.786   0.907   5.218
67159SOL     OW 3373  10.400  11.729   7.407
67159SOL    HW1 3374  10.378  11.809   7.360
67159SOL    HW2 3375  10.346  11.661   7.367
67160SOL     OW 3376  14.609   2.658   6.325
67160SOL    HW1 3377  14.615   2.565   6.348
67160SOL    HW2 3378  14.699   2.690   6.329
67161SOL     OW 3379   3.250   2.738  13.484
67161SOL    HW1 3380   3.334   2.720  13.443
67161SOL    HW2 3381   3.267   2.808  13.546
67162SOL     OW 3382   2.918  11.608   8.063
67162SOL    HW1 3383   2.834  11.563   8.060
67162SOL    HW2 3384   2.900  11.690   8.108
67163SOL     OW 3385  11.384   5.228   6.465
67163SOL    HW1 3386  11.320   5.228   6.394
67163SOL    HW2 3387  11.369   5.310   6.511
67164SOL     OW 3388   0.663   7.541   9.897
67164SOL    HW1 3389   0.745   7.529   9.849
67164SOL    HW2 3390   0.651   7.458   9.944
67165SOL     OW 3391  11.344   9.884   3.453
67165SOL    HW1 3392  11.342   9.807   3.509
67165SOL    HW2 3393  11.434   9.916   3.459
67166SOL     OW 3394  13.687   1.510  12.569
67166SOL    HW1 3395  13.593   1.513  12.587
67166SOL    HW2 3396  13.694   1.475  12.480
67167SOL     OW 3397   3.594   6.699   8.759
67167SOL    HW1 3398   3.683   6.730   8.741
67167SOL    HW2 3399   3.537   6.763   8.717
67168SOL     OW 3400   3.733   7.703   6.024
67168SOL    HW1 3401   3.692   7.741   6.101
67168SOL    HW2 3402   3.667   7.644   5.988
67169SOL     OW 3403   6.472   6.803   6.315
67169SOL    HW1 3404   6.469   6.829   6.222
67169SOL    HW2 3405   6.500   6.883   6.360
67170SOL     OW 3406   6.398   6.670   0.484
67170SOL    HW1 3407   6.439   6.587   0.462
67170SOL    HW2 3408   6.468   6.735   0.473
67171SOL     OW 3409   5.285   4.758   7.060
67171SOL    HW1 3410   5.308   4.679   7.011
67171SOL    HW2 3411   5.229   4.726   7.131
67172SOL     OW 3412   7.662   6.459   6.283
67172SOL    HW1 3413   7.569   6.485   6.284
67172SOL    HW2 3414   7.703   6.521   6.223
67173SOL     OW 3415   3.661   4.414   8.523
67173SOL    HW1 3416   3.571   4.436   8.497
67173SOL    HW2 3417   3.715   4.484   8.486
67174SOL     OW 3418   4.127   5.314   0.710
67174SOL    HW1 3419   4.135   5.369   0.788
67174SOL    HW2 3420   4.180   5.236   0.730
67175SOL     OW 3421   8.311  13.663  10.439
67175SOL    HW1 3422   8.288  13.698  10.353
67175SOL    HW2 3423   8.227  13.640  10.478
67176SOL     OW 3424   8.548   0.126   1.171
67176SOL    HW1 3425   8.580   0.129   1.261
67176SOL    HW2 3426   8.499   0.207   1.160
67177SOL     OW 3427   3.081   7.506   4.285
67177SOL    HW1 3428   3.170   7.489   4.255
67177SOL    HW2 3429   3.056   7.428   4.334
67178SOL     OW 3430   2.266  10.273   2.482
67178SOL    HW1 3431   2.298  10.312   2.402
67178SOL    HW2 3432   2.305  10.186   2.484
67179SOL     OW 3433  11.436   2.969   3.471
67179SOL    HW1 3434  11.400   3.003   3.389
67179SOL    HW2 3435  11.484   3.043   3.508
67180SOL     OW 3436   4.931  12.052   8.771
67180SOL    HW1 3437   4.843  12.086   8.754
67180SOL    HW2 3438   4.956  12.092   8.854
67181SOL     OW 3439   0.439  10.729   2.370
67181SOL    HW1 3440   0.405  10.692   2.451
67181SOL    HW2 3441   0.366  10.779   2.334
67182SOL     OW 3442   2.617  11.501  14.086
67182SOL    HW1 3443   2.526  11.491  14.114
67182SOL    HW2 3444   2.637  11.593  14.102
67183SOL     OW 3445   5.106   5.925   0.841
67183SOL    HW1 3446   5.102   5.993   0.774
67183SOL    HW2 3447   5.040   5.950   0.905
67184SOL     OW 3448  13.934  12.299  12.386
67184SOL    HW1 3449  13.991  12.373  12.406
67184SOL    HW2 3450  13.845  12.334  12.395
67185SOL     OW 3451  13.823   7.501   1.687
67185SOL    HW1 3452  13.861   7.415   1.672
67185SOL    HW2 3453  13.823   7.511   1.782
67186SOL     OW 3454  10.418  11.379  11.165
67186SOL    HW1 3455  10.455  11.298  11.129
67186SOL    HW2 3456  10.491  11.422  11.209
67187SOL     OW 3457  11.461   2.072  12.947
67187SOL    HW1 3458  11.467   1.979  12.970
67187SOL    HW2 3459  11.551   2.103  12.945
67188SOL     OW 3460   3.636  11.671   0.190
67188SOL    HW1 3461   3.553  11.634   0.221
67188SOL    HW2 3462   3.678  11.600   0.142
67189SOL     OW 3463   4.478   9.890  14.400
67189SOL    HW1 3464   4.480   9.803  14.359
67189SOL    HW2 3465   4.513   9.875  14.488
67190SOL     OW 3466   2.404   1.327  14.803
67190SOL    HW1 3467   2.331   1.271  14.830
67190SOL    HW2 3468   2.376   1.366  14.720
67191SOL     OW 3469   6.838  14.194  13.873
67191SOL    HW1 3470   6.837  14.265  13.809
67191SOL    HW2 3471   6.754  14.149  13.860
67192SOL     OW 3472  13.478  13.396  13.657
67192SOL    HW1 3473  13.546  13.406  13.723
67192SOL    HW2 3474  13.525  13.383  13.575
67193SOL     OW 3475  10.511  12.217   1.953
67193SOL    HW1 3476  10.547  12.137   1.993
67193SOL    HW2 3477  10.588  12.268   1.929
67194SOL     OW 3478  11.566   0.124   9.868
67194SOL    HW1 3479  11.585   0.213   9.897
67194SOL    HW2 3480  11.624   0.110   9.794
67195SOL     OW 3481   0.948  12.583  11.741
67195SOL    HW1 3482   1.016  12.623  11.686
67195SOL    HW2 3483   0.945  12.639  11.818
67196SOL     OW 3484   2.976  11.288   2.705
67196SOL    HW1 3485   2.887  11.321   2.687
67196SOL    HW2 3486   2.973  11.196   2.678
67197SOL     OW 3487   0.230   2.747   6.381
67197SOL    HW1 3488   0.283   2.704   6.314
67197SOL    HW2 3489   0.293   2.779   6.445
67198SOL     OW 3490   6.469  13.314   3.836
67198SOL    HW1 3491   6.492  13.306   3.928
67198SOL    HW2 3492   6.417  13.395   3.831
67199SOL     OW 3493  14.348   6.957   6.111
67199SOL    HW1 3494  14.346   6.896   6.185
67199SOL    HW2 3495  14.360   7.043   6.153
67200SOL     OW 3496  13.504   3.763  10.980
67200SOL    HW1 3497  13.435   3.758  10.913
67200SOL    HW2 3498  13.585   3.743  10.934
67201SOL     OW 3499   6.025  13.895   8.853
67201SOL    HW1 3500   6.095  13.830   8.858
67201SOL    HW2 3501   6.042  13.954   8.927
67202SOL     OW 3502  13.139  13.250  14.590
67202SOL    HW1 3503  13.133  13.161  14.624
67202SOL    HW2 3504  13.114  13.242  14.498
67203SOL     OW 3505  10.839   4.202   4.604
67203SOL    HW1 3506  10.759   4.255   4.597
67203SOL    HW2 3507  10.859   4.201   4.698
67204SOL     OW 3508   8.655   6.578   4.639
67204SOL    HW1 3509   8.645   6.604   4.547
67204SOL    HW2 3510   8.621   6.489   4.643
67205SOL     OW 3511   2.122   7.200   1.456
67205SOL    HW1 3512   2.028   7.193   1.443
67205SOL    HW2 3513   2.148   7.114   1.490
67206SOL     OW 3514  12.908   2.612   7.985
67206SOL    HW1 3515  12.929   2.520   7.994
67206SOL    HW2 3516  12.917   2.648   8.074
67207SOL     OW 3517   6.498   8.392  11.868
67207SOL    HW1 3518   6.424   8.352  11.915
67207SOL    HW2 3519   6.463   8.475  11.835
67208SOL     OW 3520   7.308   3.853  11.834
67208SOL    HW1 3521   7.403   3.857  11.823
67208SOL    HW2 3522   7.275   3.827  11.748
67209SOL     OW 3523   9.690   6.716   9.439
67209SOL    HW1 3524   9.625   6.711   9.369
67209SOL    HW2 3525   9.651   6.667   9.511
67210SOL     OW 3526   1.120   2.649   3.184
67210SOL    HW1 3527   1.028   2.674   3.193
67210SOL    HW2 3528   1.136   2.592   3.258
67211SOL     OW 3529   1.251   2.464   7.119
67211SOL    HW1 3530   1.166   2.487   7.156
67211SOL    HW2 3531   1.238   2.376   7.082
67212SOL     OW 3532   3.162  12.715  10.297
67212SOL    HW1 3533   3.086  12.767  10.268
67212SOL    HW2 3534   3.171  12.647  10.230
67213SOL     OW 3535  14.168   3.264   8.269
67213SOL    HW1 3536  14.124   3.281   8.186
67213SOL    HW2 3537  14.120   3.316   8.334
67214SOL     OW 3538   5.203  13.524   1.677
67214SOL    HW1 3539   5.147  13.599   1.698
67214SOL    HW2 3540   5.273  13.527   1.742
67215SOL     OW 3541  11.977  11.587   7.274
67215SOL    HW1 3542  12.068  11.562   7.292
67215SOL    HW2 3543  11.983  11.651   7.203
67216SOL     OW 3544   1.527   7.205   1.464
67216SOL    HW1 3545   1.489   7.186   1.549
67216SOL    HW2 3546   1.619   7.180   1.473
67217SOL     OW 3547  10.952  11.104  13.737
67217SOL    HW1 3548  10.878  11.100  13.798
67217SOL    HW2 3549  10.989  11.191  13.750
67218SOL     OW 3550  10.659   1.697   7.015
67218SOL    HW1 3551  10.646   1.730   6.926
67218SOL    HW2 3552  10.687   1.607   7.003
67219SOL     OW 3553   0.302   5.518   0.693
67219SOL    HW1 3554   0.385   5.489   0.731
67219SOL    HW2 3555   0.276   5.446   0.634
67220SOL     OW 3556   3.776  12.533   0.128
67220SOL    HW1 3557   3.857  12.544   0.178
67220SOL    HW2 3558   3.796  12.466   0.063
67221SOL     OW 3559  13.186   2.926  14.201
67221SOL    HW1 3560  13.271   2.946  14.241
67221SOL    HW2 3561  13.187   2.973  14.117
67222SOL     OW 3562   8.577  13.402  12.154
67222SOL    HW1 3563   8.552  13.383  12.063
67222SOL    HW2 3564   8.495  13.429  12.195
67223SOL     OW 3565   0.584  14.442   3.100
67223SOL    HW1 3566   0.665  14.449   3.050
67223SOL    HW2 3567   0.529  14.381   3.049
67224SOL     OW 3568   2.993   0.086  13.866
67224SOL    HW1 3569   3.067   0.085  13.804
67224SOL    HW2 3570   2.917   0.065  13.812
67225SOL     OW 3571   5.054  11.753   5.072
67225SOL    HW1 3572   5.082  11.840   5.102
67225SOL    HW2 3573   5.133  11.700   5.075
67226SOL     OW 3574  14.526   7.054  12.481
67226SOL    HW1 3575  14.496   7.006  12.404
67226SOL    HW2 3576  14.621   7.057  12.473
67227SOL     OW 3577   7.413   9.837   2.108
67227SOL    HW1 3578   7.465   9.786   2.045
67227SOL    HW2 3579   7.472   9.907   2.136
67228SOL     OW 3580  14.027   8.145   0.527
67228SOL    HW1 3581  13.959   8.095   0.572
67228SOL    HW2 3582  14.098   8.152   0.591
67229SOL     OW 3583   8.123   1.103  10.172
67229SOL    HW1 3584   8.135   1.198  10.173
67229SOL    HW2 3585   8.107   1.082  10.080
67230SOL     OW 3586   9.201   7.222   3.540
67230SOL    HW1 3587   9.255   7.289   3.582
67230SOL    HW2 3588   9.233   7.219   3.450
67231SOL     OW 3589  10.126  13.620  12.154
67231SOL    HW1 3590  10.178  13.626  12.074
67231SOL    HW2 3591  10.036  13.605  12.123
67232SOL     OW 3592   1.519  12.265   1.012
67232SOL    HW1 3593   1.570  12.346   1.015
67232SOL    HW2 3594   1.442  12.284   1.066
67233SOL     OW 3595   8.271  14.031   1.429
67233SOL    HW1 3596   8.255  13.959   1.367
67233SOL    HW2 3597   8.184  14.064   1.450
67234SOL     OW 3598   1.019   4.687   6.647
67234SOL    HW1 3599   1.020   4.628   6.722
67234SOL    HW2 3600   0.953   4.753   6.668
67235SOL     OW 3601  13.505   4.747   0.403
67235SOL    HW1 3602  13.520   4.835   0.367
67235SOL    HW2 3603  13.551   4.747   0.487
67236SOL     OW 3604  14.318  14.119   6.525
67236SOL    HW1 3605  14.260  14.181   6.482
67236SOL    HW2 3606  14.315  14.144   6.618
67237SOL     OW 3607  12.499   9.559   7.423
67237SOL    HW1 3608  12.456   9.490   7.473
67237SOL    HW2 3609  12.433   9.628   7.416
67238SOL     OW 3610  13.913  14.708   5.946
67238SOL    HW1 3611  13.838  14.733   5.892
67238SOL    HW2 3612  13.915  14.775   6.015
67239SOL     OW 3613   2.753   6.480  12.040
67239SOL    HW1 3614   2.811   6.477  11.964
67239SOL    HW2 3615   2.803   6.526  12.107
67240SOL     OW 3616   2.061   3.409  13.022
67240SOL    HW1 3617   2.067   3.403  13.118
67240SOL    HW2 3618   2.083   3.500  13.003
67241SOL     OW 3619   7.772   5.657   3.981
67241SOL    HW1 3620   7.811   5.736   3.945
67241SOL    HW2 3621   7.689   5.647   3.934
67242SOL     OW 3622   6.649   1.284  13.433
67242SOL    HW1 3623   6.609   1.248  13.354
67242SOL    HW2 3624   6.677   1.207  13.483
67243SOL     OW 3625   7.746   5.480  12.923
67243SOL    HW1 3626   7.812   5.496  12.991
67243SOL    HW2 3627   7.687   5.555  12.928
67244SOL     OW 3628  12.711  10.683   8.069
67244SOL    HW1 3629  12.790  10.703   8.120
67244SOL    HW2 3630  12.651  10.645   8.133
67245SOL     OW 3631   7.745   6.729  12.867
67245SOL    HW1 3632   7.715   6.810  12.907
67245SOL    HW2 3633   7.666   6.690  12.828
67246SOL     OW 3634   3.244  11.677  12.212
67246SOL    HW1 3635   3.324  11.649  12.257
67246SOL    HW2 3636   3.211  11.750  12.266
67247SOL     OW 3637   9.842  12.458   9.415
67247SOL    HW1 3638   9.790  12.528   9.376
67247SOL    HW2 3639   9.827  12.382   9.358
67248SOL     OW 3640  13.399  14.672  11.683
67248SOL    HW1 3641  13.407  14.756  11.727
67248SOL    HW2 3642  13.315  14.637  11.713
67249SOL     OW 3643   2.563   6.335  11.216
67249SOL    HW1 3644   2.590   6.344  11.125
67249SOL    HW2 3645   2.543   6.242  11.226
67250SOL     OW 3646   5.936  12.959   3.132
67250SOL    HW1 3647   5.893  12.901   3.195
67250SOL    HW2 3648   6.024  12.971   3.167
67251SOL     OW 3649  10.404   8.415  12.508
67251SOL    HW1 3650  10.437   8.326  12.512
67251SOL    HW2 3651  10.371   8.433  12.596
67252SOL     OW 3652   4.363   0.440   5.735
67252SOL    HW1 3653   4.306   0.510   5.702
67252SOL    HW2 3654   4.415   0.414   5.659
67253SOL     OW 3655  11.232   6.215   9.124
67253SOL    HW1 3656  11.165   6.275   9.091
67253SOL    HW2 3657  11.183   6.151   9.176
67254SOL     OW 3658   2.369  12.494   8.707
67254SOL    HW1 3659   2.369  12.569   8.647
67254SOL    HW2 3660   2.289  12.504   8.759
67255SOL     OW 3661   5.973   4.589  11.583
67255SOL    HW1 3662   6.051   4.548  11.545
67255SOL    HW2 3663   5.910   4.518  11.592
67256SOL     OW 3664   0.540   2.261   0.779
67256SOL    HW1 3665   0.514   2.351   0.760
67256SOL    HW2 3666   0.634   2.259   0.762
67257SOL     OW 3667   7.335   2.928  13.730
67257SOL    HW1 3668   7.357   2.891  13.644
67257SOL    HW2 3669   7.391   3.005  13.738
67258SOL     OW 3670   3.453   4.417  13.828
67258SOL    HW1 3671   3.385   4.369  13.781
67258SOL    HW2 3672   3.452   4.505  13.790
67259SOL     OW 3673   2.179   0.723   1.020
67259SOL    HW1 3674   2.120   0.682   0.957
67259SOL    HW2 3675   2.124   0.737   1.098
67260SOL     OW 3676   5.451   1.981   7.813
67260SOL    HW1 3677   5.516   2.023   7.756
67260SOL    HW2 3678   5.410   1.914   7.758
67261SOL     OW 3679  11.840   1.777   7.460
67261SOL    HW1 3680  11.770   1.811   7.404
67261SOL    HW2 3681  11.919   1.823   7.430
67262SOL     OW 3682   7.651   6.644   9.247
67262SOL    HW1 3683   7.601   6.701   9.306
67262SOL    HW2 3684   7.593   6.632   9.171
67263SOL     OW 3685   1.019   3.194   1.575
67263SOL    HW1 3686   1.017   3.126   1.642
67263SOL    HW2 3687   1.078   3.160   1.508
67264SOL     OW 3688   9.944   1.168   7.405
67264SOL    HW1 3689   9.927   1.208   7.490
67264SOL    HW2 3690   9.891   1.089   7.404
67265SOL     OW 3691   1.588   2.977   1.640
67265SOL    HW1 3692   1.617   3.022   1.719
67265SOL    HW2 3693   1.495   2.999   1.632
67266SOL     OW 3694   4.063  13.206   1.345
67266SOL    HW1 3695   3.994  13.146   1.373
67266SOL    HW2 3696   4.029  13.247   1.266
67267SOL     OW 3697  12.690   4.021   5.963
67267SOL    HW1 3698  12.728   4.018   6.051
67267SOL    HW2 3699  12.670   4.114   5.949
67268SOL     OW 3700   3.729  12.927   8.010
67268SOL    HW1 3701   3.700  12.836   8.013
67268SOL    HW2 3702   3.820  12.925   8.038
67269SOL     OW 3703   8.467   7.005  13.931
67269SOL    HW1 3704   8.441   7.091  13.898
67269SOL    HW2 3705   8.477   6.952  13.852
67270SOL     OW 3706   2.392   3.107   5.705
67270SOL    HW1 3707   2.458   3.039   5.692
67270SOL    HW2 3708   2.408   3.170   5.634
67271SOL     OW 3709  10.209  11.357  10.508
67271SOL    HW1 3710  10.263  11.293  10.555
67271SOL    HW2 3711  10.141  11.304  10.466
67272SOL     OW 3712   1.026   0.994  13.557
67272SOL    HW1 3713   0.978   1.002  13.474
67272SOL    HW2 3714   1.116   0.977  13.531
67273SOL     OW 3715   9.092  10.838  14.169
67273SOL    HW1 3716   9.061  10.857  14.257
67273SOL    HW2 3717   9.178  10.798  14.181
67274SOL     OW 3718  13.917  13.759   8.961
67274SOL    HW1 3719  13.937  13.667   8.979
67274SOL    HW2 3720  13.831  13.757   8.919
67275SOL     OW 3721   9.321   7.838   0.626
67275SOL    HW1 3722   9.240   7.787   0.618
67275SOL    HW2 3723   9.389   7.780   0.592
67276SOL     OW 3724   0.330  14.769  10.992
67276SOL    HW1 3725   0.306  14.782  10.900
67276SOL    HW2 3726   0.278  14.693  11.020
67277SOL     OW 3727   6.657  13.492   6.361
67277SOL    HW1 3728   6.674  13.433   6.435
67277SOL    HW2 3729   6.740  13.494   6.313
67278SOL     OW 3730  12.197   1.717   1.321
67278SOL    HW1 3731  12.193   1.632   1.363
67278SOL    HW2 3732  12.283   1.720   1.281
67279SOL     OW 3733  10.565   4.469   4.444
67279SOL    HW1 3734  10.595   4.424   4.523
67279SOL    HW2 3735  10.643   4.512   4.410
67280SOL     OW 3736   9.560   4.806  12.795
67280SOL    HW1 3737   9.585   4.872  12.730
67280SOL    HW2 3738   9.577   4.848  12.879
67281SOL     OW 3739   7.607  11.780   1.235
67281SOL    HW1 3740   7.693  11.745   1.210
67281SOL    HW2 3741   7.623  11.873   1.254
67282SOL     OW 3742   7.562   5.119   1.111
67282SOL    HW1 3743   7.510   5.175   1.054
67282SOL    HW2 3744   7.602   5.055   1.052
67283SOL     OW 3745   3.806   9.231   0.238
67283SOL    HW1 3746   3.789   9.293   0.167
67283SOL    HW2 3747   3.732   9.242   0.298
67284SOL     OW 3748  12.929  11.987   2.963
67284SOL    HW1 3749  12.926  12.029   2.877
67284SOL    HW2 3750  12.995  11.918   2.954
67285SOL     OW 3751  12.914  10.052   4.456
67285SOL    HW1 3752  12.872  10.134   4.482
67285SOL    HW2 3753  12.841   9.992   4.438
67286SOL     OW 3754   5.039   5.578   4.951
67286SOL    HW1 3755   5.049   5.600   4.858
67286SOL    HW2 3756   4.950   5.606   4.973
67287SOL     OW 3757   7.871   5.591  13.611
67287SOL    HW1 3758   7.879   5.510  13.661
67287SOL    HW2 3759   7.945   5.645  13.639
67288SOL     OW 3760   1.723   5.150   3.740
67288SOL    HW1 3761   1.711   5.139   3.834
67288SOL    HW2 3762   1.742   5.244   3.729
67289SOL     OW 3763   3.180   0.782   1.515
67289SOL    HW1 3764   3.151   0.816   1.430
67289SOL    HW2 3765   3.263   0.825   1.532
67290SOL     OW 3766  11.523   9.165   5.400
67290SOL    HW1 3767  11.553   9.206   5.319
67290SOL    HW2 3768  11.587   9.095   5.416
67291SOL     OW 3769   4.353   2.907   5.273
67291SOL    HW1 3770   4.335   2.816   5.251
67291SOL    HW2 3771   4.433   2.904   5.325
67292SOL     OW 3772  13.501  10.089  11.621
67292SOL    HW1 3773  13.471  10.062  11.707
67292SOL    HW2 3774  13.597  10.090  11.627
67293SOL     OW 3775  13.364   1.658  13.477
67293SOL    HW1 3776  13.310   1.716  13.532
67293SOL    HW2 3777  13.300   1.605  13.429
67294SOL     OW 3778  13.371  13.710   4.621
67294SOL    HW1 3779  13.308  13.721   4.549
67294SOL    HW2 3780  13.341  13.772   4.688
67295SOL     OW 3781  11.455  10.449   8.865
67295SOL    HW1 3782  11.455  10.528   8.918
67295SOL    HW2 3783  11.363  10.436   8.841
67296SOL     OW 3784   3.024   4.519  11.434
67296SOL    HW1 3785   3.109   4.506  11.476
67296SOL    HW2 3786   2.968   4.554  11.503
67297SOL     OW 3787   5.179  13.508  11.360
67297SOL    HW1 3788   5.123  13.500  11.437
67297SOL    HW2 3789   5.200  13.601  11.356
67298SOL     OW 3790  12.810   1.869  12.216
67298SOL    HW1 3791  12.736   1.814  12.242
67298SOL    HW2 3792  12.823   1.848  12.123
67299SOL     OW 3793  13.831   9.183   7.535
67299SOL    HW1 3794  13.910   9.136   7.506
67299SOL    HW2 3795  13.857   9.275   7.534
67300SOL     OW 3796   3.791  10.902  13.056
67300SOL    HW1 3797   3.834  10.958  12.993
67300SOL    HW2 3798   3.704  10.941  13.069
67301SOL     OW 3799  14.320   9.621   6.464
67301SOL    HW1 3800  14.249   9.670   6.423
67301SOL    HW2 3801  14.390   9.620   6.399
67302SOL     OW 3802   1.240   1.802  13.744
67302SOL    HW1 3803   1.172   1.870  13.740
67302SOL    HW2 3804   1.322   1.850  13.755
67303SOL     OW 3805  11.918   1.966   5.083
67303SOL    HW1 3806  11.861   1.945   5.158
67303SOL    HW2 3807  11.957   1.883   5.058
67304SOL     OW 3808   1.652   8.863   7.026
67304SOL    HW1 3809   1.601   8.843   6.948
67304SOL    HW2 3810   1.728   8.911   6.994
67305SOL     OW 3811   4.190   7.575   7.689
67305SOL    HW1 3812   4.116   7.570   7.750
67305SOL    HW2 3813   4.260   7.616   7.741
67306SOL     OW 3814   5.157   5.467   7.253
67306SOL    HW1 3815   5.089   5.514   7.204
67306SOL    HW2 3816   5.236   5.477   7.200
67307SOL     OW 3817  10.069   5.790   3.476
67307SOL    HW1 3818  10.154   5.823   3.503
67307SOL    HW2 3819  10.047   5.723   3.540
67308SOL     OW 3820   8.688   3.566   6.745
67308SOL    HW1 3821   8.766   3.546   6.693
67308SOL    HW2 3822   8.721   3.609   6.824
67309SOL     OW 3823  13.639  14.764   9.445
67309SOL    HW1 3824  13.660  14.853   9.473
67309SOL    HW2 3825  13.549  14.750   9.474
67310SOL     OW 3826   7.700  12.000   6.698
67310SOL    HW1 3827   7.605  12.001   6.708
67310SOL    HW2 3828   7.714  11.996   6.604
67311SOL     OW 3829   7.061   2.027   6.770
67311SOL    HW1 3830   7.086   1.951   6.717
67311SOL    HW2 3831   6.988   2.066   6.721
67312SOL     OW 3832  14.013  12.188   5.731
67312SOL    HW1 3833  13.990  12.196   5.824
67312SOL    HW2 3834  13.932  12.209   5.684
67313SOL     OW 3835  12.324  13.458  12.418
67313SOL    HW1 3836  12.235  13.488  12.399
67313SOL    HW2 3837  12.377  13.489  12.345
67314SOL     OW 3838  11.000   9.080   2.184
67314SOL    HW1 3839  10.988   9.118   2.271
67314SOL    HW2 3840  11.094   9.062   2.179
67315SOL     OW 3841   0.445  12.980   8.364
67315SOL    HW1 3842   0.350  12.965   8.361
67315SOL    HW2 3843   0.470  12.989   8.272
67316SOL     OW 3844   5.808   8.981   3.769
67316SOL    HW1 3845   5.808   8.897   3.723
67316SOL    HW2 3846   5.863   8.965   3.846
67317SOL     OW 3847  10.479  11.215   0.926
67317SOL    HW1 3848  10.550  11.190   0.985
67317SOL    HW2 3849  10.494  11.164   0.847
67318SOL     OW 3850   1.720   8.335  14.168
67318SOL    HW1 3851   1.662   8.272  14.211
67318SOL    HW2 3852   1.667   8.370  14.096
67319SOL     OW 3853  12.652   2.634   4.280
67319SOL    HW1 3854  12.633   2.680   4.199
67319SOL    HW2 3855  12.566   2.607   4.312
67320SOL     OW 3856   2.234   4.066   7.567
67320SOL    HW1 3857   2.227   4.116   7.648
67320SOL    HW2 3858   2.151   4.080   7.523
67321SOL     OW 3859   2.269   2.770   2.897
67321SOL    HW1 3860   2.311   2.691   2.933
67321SOL    HW2 3861   2.184   2.774   2.940
67322SOL     OW 3862  12.770   9.074   4.496
67322SOL    HW1 3863  12.746   9.004   4.435
67322SOL    HW2 3864  12.813   9.140   4.442
67323SOL     OW 3865   4.436  10.307  13.034
67323SOL    HW1 3866   4.517  10.347  13.068
67323SOL    HW2 3867   4.369  10.374  13.046
67324SOL     OW 3868   2.665   4.954   6.481
67324SOL    HW1 3869   2.705   4.873   6.514
67324SOL    HW2 3870   2.581   4.925   6.444
67325SOL     OW 3871   5.877  14.520   6.642
67325SOL    HW1 3872   5.938  14.446   6.649
67325SOL    HW2 3873   5.933  14.594   6.620
67326SOL     OW 3874   3.813  14.538  14.552
67326SOL    HW1 3875   3.787  14.446  14.554
67326SOL    HW2 3876   3.733  14.586  14.574
67327SOL     OW 3877  11.396  12.402  11.958
67327SOL    HW1 3878  11.323  12.341  11.945
67327SOL    HW2 3879  11.393  12.424  12.051
67328SOL     OW 3880   1.456  10.531   6.711
67328SOL    HW1 3881   1.481  10.565   6.626
67328SOL    HW2 3882   1.527  10.471   6.735
67329SOL     OW 3883   9.534   9.264   4.992
67329SOL    HW1 3884   9.443   9.264   4.964
67329SOL    HW2 3885   9.538   9.328   5.063
67330SOL     OW 3886  11.703  11.458   9.592
67330SOL    HW1 3887  11.669  11.533   9.542
67330SOL    HW2 3888  11.642  11.387   9.573
67331SOL     OW 3889   7.721  12.448  11.559
67331SOL    HW1 3890   7.628  12.435  11.581
67331SOL    HW2 3891   7.743  12.373  11.504
67332SOL     OW 3892   2.229  12.260  11.270
67332SOL    HW1 3893   2.240  12.166  11.256
67332SOL    HW2 3894   2.288  12.301  11.207
67333SOL     OW 3895   4.442   4.720   5.768
67333SOL    HW1 3896   4.380   4.764   5.710
67333SOL    HW2 3897   4.483   4.792   5.817
67334SOL     OW 3898   6.970   9.847   9.468
67334SOL    HW1 3899   6.880   9.842   9.500
67334SOL    HW2 3900   6.964   9.900   9.389
67335SOL     OW 3901   1.212   4.453   5.660
67335SOL    HW1 3902   1.178   4.377   5.612
67335SOL    HW2 3903   1.182   4.439   5.750
67336SOL     OW 3904   3.802   7.758  11.679
67336SOL    HW1 3905   3.756   7.699  11.619
67336SOL    HW2 3906   3.812   7.707  11.759
67337SOL     OW 3907  11.936   9.301  11.720
67337SOL    HW1 3908  11.970   9.308  11.809
67337SOL    HW2 3909  12.013   9.279  11.667
67338SOL     OW 3910   1.725   8.050   2.047
67338SOL    HW1 3911   1.736   7.974   2.105
67338SOL    HW2 3912   1.811   8.092   2.046
67339SOL     OW 3913  10.272   4.431   7.519
67339SOL    HW1 3914  10.258   4.481   7.599
67339SOL    HW2 3915  10.249   4.491   7.448
67340SOL     OW 3916   0.466  12.212  13.010
67340SOL    HW1 3917   0.478  12.236  12.918
67340SOL    HW2 3918   0.395  12.148  13.010
67341SOL     OW 3919   5.748   3.317  12.383
67341SOL    HW1 3920   5.810   3.387  12.404
67341SOL    HW2 3921   5.718   3.336  12.294
67342SOL     OW 3922  10.199   9.443   0.459
67342SOL    HW1 3923  10.205   9.414   0.368
67342SOL    HW2 3924  10.263   9.389   0.505
67343SOL     OW 3925   3.695   2.830   2.969
67343SOL    HW1 3926   3.755   2.878   2.913
67343SOL    HW2 3927   3.721   2.854   3.058
67344SOL     OW 3928   8.318   8.281   4.961
67344SOL    HW1 3929   8.366   8.306   5.040
67344SOL    HW2 3930   8.369   8.210   4.924
67345SOL     OW 3931  13.079  13.630  13.165
67345SOL    HW1 3932  13.015  13.670  13.223
67345SOL    HW2 3933  13.028  13.568  13.112
67346SOL     OW 3934   3.117   9.913   5.479
67346SOL    HW1 3935   3.138  10.006   5.484
67346SOL    HW2 3936   3.038   9.902   5.531
67347SOL     OW 3937   1.917  11.184   3.587
67347SOL    HW1 3938   1.973  11.262   3.592
67347SOL    HW2 3939   1.859  11.201   3.513
67348SOL     OW 3940  10.832   6.791  10.990
67348SOL    HW1 3941  10.922   6.815  10.965
67348SOL    HW2 3942  10.833   6.796  11.086
67349SOL     OW 3943  14.700   0.498   0.693
67349SOL    HW1 3944  14.648   0.439   0.639
67349SOL    HW2 3945  14.658   0.583   0.685
67350SOL     OW 3946  13.156   8.390   2.752
67350SOL    HW1 3947  13.180   8.410   2.661
67350SOL    HW2 3948  13.148   8.475   2.794
67351SOL     OW 3949  12.611   6.990  10.517
67351SOL    HW1 3950  12.632   6.929  10.587
67351SOL    HW2 3951  12.650   6.952  10.439
67352SOL     OW 3952  14.679   7.420   5.913
67352SOL    HW1 3953  14.727   7.362   5.973
67352SOL    HW2 3954  14.650   7.362   5.842
67353SOL     OW 3955   7.187   7.140   2.494
67353SOL    HW1 3956   7.274   7.178   2.505
67353SOL    HW2 3957   7.128   7.216   2.493
67354SOL     OW 3958   0.741   0.956   8.624
67354SOL    HW1 3959   0.795   1.030   8.594
67354SOL    HW2 3960   0.699   0.924   8.544
67355SOL     OW 3961   1.529  13.416   0.819
67355SOL    HW1 3962   1.573  13.481   0.764
67355SOL    HW2 3963   1.470  13.467   0.875
67356SOL     OW 3964   8.252   4.751   2.020
67356SOL    HW1 3965   8.233   4.845   2.021
67356SOL    HW2 3966   8.348   4.746   2.019
67357SOL     OW 3967   2.005   6.424   1.160
67357SOL    HW1 3968   1.992   6.479   1.082
67357SOL    HW2 3969   1.984   6.335   1.131
67358SOL     OW 3970  12.659   3.952   5.275
67358SOL    HW1 3971  12.624   4.003   5.349
67358SOL    HW2 3972  12.750   3.979   5.268
67359SOL     OW 3973   9.745   4.716   1.143
67359SOL    HW1 3974   9.652   4.697   1.130
67359SOL    HW2 3975   9.762   4.691   1.234
67360SOL     OW 3976   8.209   0.332   0.442
67360SOL    HW1 3977   8.150   0.334   0.517
67360SOL    HW2 3978   8.262   0.412   0.451
67361SOL     OW 3979  12.907   9.052   8.086
67361SOL    HW1 3980  12.837   9.020   8.028
67361SOL    HW2 3981  12.976   8.986   8.077
67362SOL     OW 3982   2.670   2.871  14.009
67362SOL    HW1 3983   2.642   2.847  14.097
67362SOL    HW2 3984   2.749   2.923  14.022
67363SOL     OW 3985  11.028  12.984   7.691
67363SOL    HW1 3986  10.990  13.068   7.718
67363SOL    HW2 3987  11.073  12.951   7.769
67364SOL     OW 3988   2.535   9.937   8.362
67364SOL    HW1 3989   2.553   9.965   8.272
67364SOL    HW2 3990   2.588   9.859   8.374
67365SOL     OW 3991   3.680  10.725   7.805
67365SOL    HW1 3992   3.685  10.797   7.868
67365SOL    HW2 3993   3.771  10.710   7.779
67366SOL     OW 3994   1.107   5.365   7.884
67366SOL    HW1 3995   1.145   5.442   7.926
67366SOL    HW2 3996   1.022   5.354   7.927
67367SOL     OW 3997   5.333   7.199   2.410
67367SOL    HW1 3998   5.421   7.167   2.392
67367SOL    HW2 3999   5.345   7.268   2.476
67368SOL     OW 4000   1.480  14.637   4.250
67368SOL    HW1 4001   1.506  14.713   4.199
67368SOL    HW2 4002   1.551  14.574   4.237
67369SOL     OW 4003  14.607   1.761   3.659
67369SOL    HW1 4004  14.654   1.802   3.732
67369SOL    HW2 4005  14.517   1.752   3.691
67370SOL     OW 4006   4.609   8.728   6.175
67370SOL    HW1 4007   4.588   8.637   6.195
67370SOL    HW2 4008   4.702   8.736   6.196
67371SOL     OW 4009  14.059   2.268   3.427
67371SOL    HW1 4010  14.055   2.308   3.514
67371SOL    HW2 4011  13.969   2.274   3.395
67372SOL     OW 4012   7.141  10.173   2.612
67372SOL    HW1 4013   7.235  10.168   2.593
67372SOL    HW2 4014   7.098  10.155   2.529
67373SOL     OW 4015  10.124   4.415  11.966
67373SOL    HW1 4016  10.127   4.374  11.880
67373SOL    HW2 4017  10.046   4.376  12.008
67374SOL     OW 4018   7.966  14.509   1.109
67374SOL    HW1 4019   7.927  14.547   1.031
67374SOL    HW2 4020   8.043  14.563   1.126
67375SOL     OW 4021   7.502   9.793  12.308
67375SOL    HW1 4022   7.480   9.756  12.222
67375SOL    HW2 4023   7.433   9.761  12.366
67376SOL     OW 4024  12.281  12.006   8.068
67376SOL    HW1 4025  12.309  12.019   8.158
67376SOL    HW2 4026  12.228  11.927   8.070
67377SOL     OW 4027  12.347  14.870   1.830
67377SOL    HW1 4028  12.275  14.808   1.842
67377SOL    HW2 4029  12.347   0.039   1.910
67378SOL     OW 4030  12.092   0.804  11.244
67378SOL    HW1 4031  12.018   0.865  11.253
67378SOL    HW2 4032  12.088   0.775  11.153
67379SOL     OW 4033  13.419   6.954   1.214
67379SOL    HW1 4034  13.475   6.954   1.291
67379SOL    HW2 4035  13.435   6.868   1.173
67380SOL     OW 4036   0.559   1.218   3.555
67380SOL    HW1 4037   0.496   1.282   3.523
67380SOL    HW2 4038   0.553   1.145   3.493
67381SOL     OW 4039   4.863   0.101   5.199
67381SOL    HW1 4040   4.776   0.061   5.196
67381SOL    HW2 4041   4.855   0.178   5.143
67382SOL     OW 4042  12.397   8.314   9.449
67382SOL    HW1 4043  12.405   8.381   9.380
67382SOL    HW2 4044  12.375   8.234   9.401
67383SOL     OW 4045   3.935   7.923   5.644
67383SOL    HW1 4046   3.927   8.015   5.670
67383SOL    HW2 4047   3.901   7.921   5.555
67384SOL     OW 4048  10.124   8.822   7.491
67384SOL    HW1 4049  10.066   8.864   7.428
67384SOL    HW2 4050  10.071   8.751   7.528
67385SOL     OW 4051   0.764   3.860   0.535
67385SOL    HW1 4052   0.798   3.936   0.582
67385SOL    HW2 4053   0.768   3.789   0.598
67386SOL     OW 4054   3.333   2.342   0.323
67386SOL    HW1 4055   3.266   2.354   0.390
67386SOL    HW2 4056   3.402   2.404   0.346
67387SOL     OW 4057  13.297   3.756  10.786
67387SOL    HW1 4058  13.211   3.796  10.795
67387SOL    HW2 4059  13.286   3.690  10.718
67388SOL     OW 4060  13.263  14.500   9.751
67388SOL    HW1 4061  13.300  14.538   9.831
67388SOL    HW2 4062  13.168  14.511   9.761
67389SOL     OW 4063   1.376   7.996   7.512
67389SOL    HW1 4064   1.447   7.970   7.453
67389SOL    HW2 4065   1.305   7.935   7.492
67390SOL     OW 4066   9.403   6.811  14.350
67390SOL    HW1 4067   9.419   6.793  14.443
67390SOL    HW2 4068   9.348   6.738  14.320
67391SOL     OW 4069  10.466   1.450   5.387
67391SOL    HW1 4070  10.518   1.530   5.377
67391SOL    HW2 4071  10.465   1.410   5.300
67392SOL     OW 4072   1.352  10.071  14.357
67392SOL    HW1 4073   1.431  10.124  14.345
67392SOL    HW2 4074   1.352  10.049  14.450
67393SOL     OW 4075   9.485  12.526   7.428
67393SOL    HW1 4076   9.424  12.577   7.375
67393SOL    HW2 4077   9.446  12.525   7.515
67394SOL     OW 4078   1.276   5.661  12.469
67394SOL    HW1 4079   1.252   5.754  12.475
67394SOL    HW2 4080   1.289   5.634  12.560
67395SOL     OW 4081  13.618  10.001   8.914
67395SOL    HW1 4082  13.705  10.040   8.923
67395SOL    HW2 4083  13.602  10.000   8.820
67396SOL     OW 4084   0.359   4.589   4.934
67396SOL    HW1 4085   0.432   4.633   4.890
67396SOL    HW2 4086   0.281   4.630   4.896
67397SOL     OW 4087   8.054   8.176  14.261
67397SOL    HW1 4088   7.969   8.216  14.243
67397SOL    HW2 4089   8.040   8.083  14.249
67398SOL     OW 4090   4.445   7.206   0.158
67398SOL    HW1 4091   4.516   7.181   0.216
67398SOL    HW2 4092   4.458   7.154   0.079
67399SOL     OW 4093   9.100   2.396  10.769
67399SOL    HW1 4094   9.017   2.373  10.726
67399SOL    HW2 4095   9.109   2.331  10.839
67400SOL     OW 4096   5.257  12.067   4.895
67400SOL    HW1 4097   5.224  12.053   4.984
67400SOL    HW2 4098   5.193  12.023   4.839
67401SOL     OW 4099  13.346   4.315   0.506
67401SOL    HW1 4100  13.272   4.304   0.447
67401SOL    HW2 4101  13.423   4.306   0.451
67402SOL     OW 4102   1.994   1.928   5.894
67402SOL    HW1 4103   1.976   1.953   5.803
67402SOL    HW2 4104   1.941   1.850   5.908
67403SOL     OW 4105  11.234   2.862   1.965
67403SOL    HW1 4106  11.271   2.774   1.971
67403SOL    HW2 4107  11.177   2.869   2.041
67404SOL     OW 4108   9.480   1.445   4.165
67404SOL    HW1 4109   9.424   1.426   4.240
67404SOL    HW2 4110   9.548   1.503   4.200
67405SOL     OW 4111   6.177   4.192  12.551
67405SOL    HW1 4112   6.266   4.225  12.563
67405SOL    HW2 4113   6.166   4.127  12.620
67406SOL     OW 4114   7.933   8.388   3.267
67406SOL    HW1 4115   7.884   8.339   3.201
67406SOL    HW2 4116   7.866   8.420   3.327
67407SOL     OW 4117  10.818   5.644  11.355
67407SOL    HW1 4118  10.745   5.607  11.305
67407SOL    HW2 4119  10.820   5.736  11.330
67408SOL     OW 4120  13.698   4.230   0.990
67408SOL    HW1 4121  13.673   4.202   0.902
67408SOL    HW2 4122  13.787   4.264   0.979
67409SOL     OW 4123   5.658  12.536   4.319
67409SOL    HW1 4124   5.616  12.548   4.404
67409SOL    HW2 4125   5.598  12.577   4.256
67410SOL     OW 4126  14.366   2.046  13.198
67410SOL    HW1 4127  14.282   2.037  13.244
67410SOL    HW2 4128  14.423   1.980  13.238
67411SOL     OW 4129   4.327   1.142  12.441
67411SOL    HW1 4130   4.347   1.052  12.467
67411SOL    HW2 4131   4.412   1.187  12.446
67412SOL     OW 4132  10.031  12.304   6.197
67412SOL    HW1 4133   9.983  12.329   6.276
67412SOL    HW2 4134   9.973  12.244   6.151
67413SOL     OW 4135   4.121  14.146  14.066
67413SOL    HW1 4136   4.098  14.235  14.095
67413SOL    HW2 4137   4.080  14.089  14.131
67414SOL     OW 4138  10.926   8.137  11.950
67414SOL    HW1 4139  10.989   8.110  12.018
67414SOL    HW2 4140  10.961   8.219  11.917
67415SOL     OW 4141  10.937   3.994   8.585
67415SOL    HW1 4142  10.899   4.002   8.673
67415SOL    HW2 4143  11.028   4.020   8.597
67416SOL     OW 4144  10.183  12.703   2.091
67416SOL    HW1 4145  10.260  12.758   2.106
67416SOL    HW2 4146  10.201  12.623   2.140
67417SOL     OW 4147   3.947   6.352   5.356
67417SOL    HW1 4148   3.902   6.295   5.419
67417SOL    HW2 4149   4.027   6.379   5.402
67418SOL     OW 4150  11.420   9.899   9.155
67418SOL    HW1 4151  11.495   9.927   9.103
67418SOL    HW2 4152  11.376   9.981   9.178
67419SOL     OW 4153  12.472   5.793   4.338
67419SOL    HW1 4154  12.428   5.747   4.410
67419SOL    HW2 4155  12.493   5.723   4.275
67420SOL     OW 4156   8.851   1.129   9.885
67420SOL    HW1 4157   8.909   1.166   9.951
67420SOL    HW2 4158   8.894   1.048   9.858
67421SOL     OW 4159   1.401  10.745  11.141
67421SOL    HW1 4160   1.452  10.726  11.062
67421SOL    HW2 4161   1.463  10.789  11.199
67422SOL     OW 4162   7.095  11.807   8.909
67422SOL    HW1 4163   7.188  11.799   8.928
67422SOL    HW2 4164   7.056  11.728   8.947
67423SOL     OW 4165  14.066   9.370   4.787
67423SOL    HW1 4166  14.052   9.306   4.857
67423SOL    HW2 4167  14.150   9.411   4.808
67424SOL     OW 4168   6.874   4.579   6.171
67424SOL    HW1 4169   6.798   4.608   6.221
67424SOL    HW2 4170   6.935   4.652   6.174
67425SOL     OW 4171   6.575   2.103  12.737
67425SOL    HW1 4172   6.527   2.174  12.779
67425SOL    HW2 4173   6.535   2.094  12.651
67426SOL     OW 4174   5.015  14.225   7.289
67426SOL    HW1 4175   5.087  14.212   7.226
67426SOL    HW2 4176   5.046  14.183   7.369
67427SOL     OW 4177   4.098   6.077   2.647
67427SOL    HW1 4178   4.057   6.148   2.696
67427SOL    HW2 4179   4.190   6.102   2.641
67428SOL     OW 4180   9.548   7.534  10.417
67428SOL    HW1 4181   9.498   7.452  10.416
67428SOL    HW2 4182   9.623   7.516  10.474
67429SOL     OW 4183   7.265   0.563  11.061
67429SOL    HW1 4184   7.274   0.617  10.982
67429SOL    HW2 4185   7.247   0.626  11.131
67430SOL     OW 4186  14.507   7.582   9.290
67430SOL    HW1 4187  14.507   7.676   9.271
67430SOL    HW2 4188  14.422   7.551   9.259
67431SOL     OW 4189   5.730   6.732   6.777
67431SOL    HW1 4190   5.762   6.710   6.865
67431SOL    HW2 4191   5.703   6.824   6.784
67432SOL     OW 4192   5.769   3.370   0.832
67432SOL    HW1 4193   5.736   3.392   0.919
67432SOL    HW2 4194   5.826   3.294   0.847
67433SOL     OW 4195   1.523  10.464   7.085
67433SOL    HW1 4196   1.472  10.451   7.165
67433SOL    HW2 4197   1.461  10.504   7.024
67434SOL     OW 4198  12.522  14.759   7.310
67434SOL    HW1 4199  12.609  14.796   7.323
67434SOL    HW2 4200  12.466  14.807   7.372
67435SOL     OW 4201   9.260   0.090   8.386
67435SOL    HW1 4202   9.240   0.055   8.299
67435SOL    HW2 4203   9.174   0.104   8.426
67436SOL     OW 4204  11.037  11.500  10.583
67436SOL    HW1 4205  11.113  11.550  10.552
67436SOL    HW2 4206  11.072  11.444  10.652
67437SOL     OW 4207   3.437   6.175  14.712
67437SOL    HW1 4208   3.351   6.133  14.713
67437SOL    HW2 4209   3.422   6.259  14.668
67438SOL     OW 4210  11.181   2.841   8.492
67438SOL    HW1 4211  11.133   2.901   8.435
67438SOL    HW2 4212  11.254   2.810   8.438
67439SOL     OW 4213   1.053   1.129   5.133
67439SOL    HW1 4214   1.069   1.055   5.075
67439SOL    HW2 4215   0.978   1.102   5.186
67440SOL     OW 4216   0.871   8.483   4.598
67440SOL    HW1 4217   0.941   8.521   4.651
67440SOL    HW2 4218   0.845   8.405   4.646
67441SOL     OW 4219   4.154   4.924   5.169
67441SOL    HW1 4220   4.170   4.893   5.080
67441SOL    HW2 4221   4.126   4.845   5.216
67442SOL     OW 4222   3.044   4.167   9.636
67442SOL    HW1 4223   3.133   4.135   9.621
67442SOL    HW2 4224   3.034   4.166   9.731
67443SOL     OW 4225  12.464   4.155   4.057
67443SOL    HW1 4226  12.519   4.233   4.051
67443SOL    HW2 4227  12.522   4.083   4.032
67444SOL     OW 4228  14.760   5.635   2.977
67444SOL    HW1 4229  14.825   5.590   3.031
67444SOL    HW2 4230  14.751   5.721   3.017
67445SOL     OW 4231   6.785   7.644  11.994
67445SOL    HW1 4232   6.804   7.564  12.042
67445SOL    HW2 4233   6.819   7.629  11.906
67446SOL     OW 4234  12.355  13.157   3.601
67446SOL    HW1 4235  12.402  13.075   3.613
67446SOL    HW2 4236  12.339  13.163   3.507
67447SOL     OW 4237  12.655   3.275   7.114
67447SOL    HW1 4238  12.643   3.365   7.146
67447SOL    HW2 4239  12.702   3.286   7.031
67448SOL     OW 4240  12.886  11.409   8.192
67448SOL    HW1 4241  12.840  11.387   8.273
67448SOL    HW2 4242  12.825  11.465   8.145
67449SOL     OW 4243  10.108   5.339  12.810
67449SOL    HW1 4244  10.136   5.289  12.887
67449SOL    HW2 4245  10.022   5.373  12.835
67450SOL     OW 4246   9.112  10.040   4.580
67450SOL    HW1 4247   9.089  10.056   4.489
67450SOL    HW2 4248   9.200  10.002   4.577
67451SOL     OW 4249   7.057   5.523   4.684
67451SOL    HW1 4250   7.071   5.601   4.631
67451SOL    HW2 4251   6.965   5.527   4.710
67452SOL     OW 4252   2.994   8.661   4.531
67452SOL    HW1 4253   2.923   8.725   4.543
67452SOL    HW2 4254   2.952   8.576   4.541
67453SOL     OW 4255  11.439  13.041   5.532
67453SOL    HW1 4256  11.389  13.121   5.512
67453SOL    HW2 4257  11.520  13.072   5.572
67454SOL     OW 4258   0.450  11.921  13.760
67454SOL    HW1 4259   0.528  11.869  13.782
67454SOL    HW2 4260   0.422  11.886  13.675
67455SOL     OW 4261   5.001   8.279   2.028
67455SOL    HW1 4262   4.942   8.205   2.046
67455SOL    HW2 4263   5.056   8.248   1.956
67456SOL     OW 4264   2.876   8.616   1.873
67456SOL    HW1 4265   2.833   8.536   1.844
67456SOL    HW2 4266   2.925   8.591   1.951
67457SOL     OW 4267  14.171  12.392   8.097
67457SOL    HW1 4268  14.224  12.455   8.148
67457SOL    HW2 4269  14.216  12.387   8.012
67458SOL     OW 4270   8.981   4.970   2.961
67458SOL    HW1 4271   9.046   4.972   2.890
67458SOL    HW2 4272   9.033   4.960   3.041
67459SOL     OW 4273  13.541   4.265  11.180
67459SOL    HW1 4274  13.513   4.196  11.119
67459SOL    HW2 4275  13.461   4.313  11.199
67460SOL     OW 4276   9.763   1.135  14.785
67460SOL    HW1 4277   9.744   1.045  14.810
67460SOL    HW2 4278   9.685   1.184  14.813
67461SOL     OW 4279   6.895  12.002  12.339
67461SOL    HW1 4280   6.916  12.035  12.252
67461SOL    HW2 4281   6.970  12.025  12.394
67462SOL     OW 4282  12.988  11.622  13.076
67462SOL    HW1 4283  12.977  11.698  13.018
67462SOL    HW2 4284  12.902  11.580  13.076
67463SOL     OW 4285   3.911   8.742  11.517
67463SOL    HW1 4286   3.882   8.677  11.581
67463SOL    HW2 4287   3.966   8.693  11.456
67464SOL     OW 4288   5.654   3.726   1.081
67464SOL    HW1 4289   5.683   3.666   1.150
67464SOL    HW2 4290   5.697   3.693   1.001
67465SOL     OW 4291   4.916  13.820   1.472
67465SOL    HW1 4292   4.894  13.901   1.519
67465SOL    HW2 4293   4.946  13.850   1.387
67466SOL     OW 4294   6.377   0.071  12.346
67466SOL    HW1 4295   6.463   0.066  12.388
67466SOL    HW2 4296   6.388   0.026  12.262
67467SOL     OW 4297   7.897   8.353  13.589
67467SOL    HW1 4298   7.853   8.325  13.508
67467SOL    HW2 4299   7.881   8.282  13.651
67468SOL     OW 4300  10.552  11.426   4.451
67468SOL    HW1 4301  10.488  11.405   4.383
67468SOL    HW2 4302  10.631  11.378   4.424
67469SOL     OW 4303  11.555  11.609  11.703
67469SOL    HW1 4304  11.495  11.587  11.632
67469SOL    HW2 4305  11.561  11.705  11.701
67470SOL     OW 4306   0.010  12.501   7.189
67470SOL    HW1 4307  14.876  12.595   7.186
67470SOL    HW2 4308  14.836  12.469   7.259
67471SOL     OW 4309  12.348   3.141   5.799
67471SOL    HW1 4310  12.386   3.057   5.771
67471SOL    HW2 4311  12.422   3.190   5.833
67472SOL     OW 4312   2.308   8.484   6.333
67472SOL    HW1 4313   2.354   8.518   6.410
67472SOL    HW2 4314   2.298   8.390   6.350
67473SOL     OW 4315  12.734   4.367   1.959
67473SOL    HW1 4316  12.823   4.354   1.928
67473SOL    HW2 4317  12.679   4.321   1.896
67474SOL     OW 4318   3.594   7.715  13.237
67474SOL    HW1 4319   3.600   7.802  13.276
67474SOL    HW2 4320   3.634   7.725  13.150
67475SOL     OW 4321   1.306   4.694   0.357
67475SOL    HW1 4322   1.281   4.786   0.346
67475SOL    HW2 4323   1.400   4.696   0.369
67476SOL     OW 4324  10.543   4.116  10.925
67476SOL    HW1 4325  10.496   4.067  10.993
67476SOL    HW2 4326  10.635   4.090  10.936
67477SOL     OW 4327  13.121   6.833   2.809
67477SOL    HW1 4328  13.139   6.760   2.868
67477SOL    HW2 4329  13.033   6.863   2.833
67478SOL     OW 4330  14.815   4.690   2.362
67478SOL    HW1 4331  14.801   4.720   2.452
67478SOL    HW2 4332  14.863   4.608   2.372
67479SOL     OW 4333   0.995  12.503   0.839
67479SOL    HW1 4334   1.082  12.465   0.829
67479SOL    HW2 4335   1.001  12.555   0.919
67480SOL     OW 4336   8.194  12.064   2.782
67480SOL    HW1 4337   8.192  12.144   2.835
67480SOL    HW2 4338   8.149  11.999   2.836
67481SOL     OW 4339   4.815   3.931  14.126
67481SOL    HW1 4340   4.807   4.022  14.153
67481SOL    HW2 4341   4.725   3.901  14.116
67482SOL     OW 4342  11.313   3.470   0.542
67482SOL    HW1 4343  11.363   3.485   0.462
67482SOL    HW2 4344  11.222   3.484   0.517
67483SOL     OW 4345  12.375   3.492   6.649
67483SOL    HW1 4346  12.350   3.471   6.559
67483SOL    HW2 4347  12.292   3.500   6.696
67484SOL     OW 4348   5.912   7.528   1.254
67484SOL    HW1 4349   5.886   7.616   1.279
67484SOL    HW2 4350   5.902   7.525   1.159
67485SOL     OW 4351   7.889   9.001   9.311
67485SOL    HW1 4352   7.977   8.997   9.348
67485SOL    HW2 4353   7.886   8.927   9.250
67486SOL     OW 4354  13.389  12.168   9.674
67486SOL    HW1 4355  13.388  12.262   9.657
67486SOL    HW2 4356  13.306  12.136   9.639
67487SOL     OW 4357  12.596   4.388   4.132
67487SOL    HW1 4358  12.630   4.403   4.044
67487SOL    HW2 4359  12.543   4.466   4.151
67488SOL     OW 4360  12.354  11.950   2.580
67488SOL    HW1 4361  12.397  11.969   2.497
67488SOL    HW2 4362  12.414  11.984   2.647
67489SOL     OW 4363   3.272   9.621   5.810
67489SOL    HW1 4364   3.289   9.704   5.854
67489SOL    HW2 4365   3.354   9.601   5.764
67490SOL     OW 4366   5.846   3.052   9.975
67490SOL    HW1 4367   5.923   3.103   9.949
67490SOL    HW2 4368   5.817   3.010   9.894
67491SOL     OW 4369   2.386   6.163   5.842
67491SOL    HW1 4370   2.303   6.207   5.823
67491SOL    HW2 4371   2.365   6.098   5.909
67492SOL     OW 4372   9.769   0.592   9.719
67492SOL    HW1 4373   9.713   0.518   9.741
67492SOL    HW2 4374   9.782   0.585   9.625
67493SOL     OW 4375  10.443   8.320  14.398
67493SOL    HW1 4376  10.460   8.294  14.489
67493SOL    HW2 4377  10.502   8.394  14.383
67494SOL     OW 4378  12.224   2.114  14.404
67494SOL    HW1 4379  12.189   2.140  14.319
67494SOL    HW2 4380  12.318   2.129  14.398
67495SOL     OW 4381   4.753   5.628   4.882
67495SOL    HW1 4382   4.801   5.546   4.874
67495SOL    HW2 4383   4.705   5.636   4.800
67496SOL     OW 4384   7.359   9.422  14.344
67496SOL    HW1 4385   7.318   9.338  14.362
67496SOL    HW2 4386   7.287   9.480  14.319
67497SOL     OW 4387   8.022   8.802   6.145
67497SOL    HW1 4388   7.978   8.723   6.176
67497SOL    HW2 4389   8.102   8.769   6.103
67498SOL     OW 4390   3.511  12.909   0.695
67498SOL    HW1 4391   3.464  12.985   0.731
67498SOL    HW2 4392   3.480  12.903   0.604
67499SOL     OW 4393   9.602   0.412   9.844
67499SOL    HW1 4394   9.652   0.331   9.838
67499SOL    HW2 4395   9.525   0.396   9.789
67500SOL     OW 4396  14.297  11.159   6.044
67500SOL    HW1 4397  14.291  11.074   6.087
67500SOL    HW2 4398  14.208  11.175   6.011
67501SOL     OW 4399   7.798   5.437   3.690
67501SOL    HW1 4400   7.816   5.370   3.624
67501SOL    HW2 4401   7.797   5.520   3.641
67502SOL     OW 4402   4.522   9.919   7.777
67502SOL    HW1 4403   4.570   9.926   7.860
67502SOL    HW2 4404   4.454   9.854   7.794
67503SOL     OW 4405   7.470  11.632  11.628
67503SOL    HW1 4406   7.382  11.601  11.608
67503SOL    HW2 4407   7.527  11.585  11.568
67504SOL     OW 4408  11.971  10.711   5.247
67504SOL    HW1 4409  11.968  10.790   5.192
67504SOL    HW2 4410  12.062  10.682   5.241
67505SOL     OW 4411  13.035   9.306  11.874
67505SOL    HW1 4412  13.010   9.239  11.938
67505SOL    HW2 4413  13.103   9.358  11.919
67506SOL     OW 4414   3.752  14.289  14.611
67506SOL    HW1 4415   3.668  14.262  14.574
67506SOL    HW2 4416   3.786  14.211  14.655
67507SOL     OW 4417   6.308   3.931   6.646
67507SOL    HW1 4418   6.253   3.996   6.601
67507SOL    HW2 4419   6.394   3.972   6.653
67508SOL     OW 4420   0.607  10.950  13.620
67508SOL    HW1 4421   0.698  10.920  13.620
67508SOL    HW2 4422   0.561  10.887  13.564
67509SOL     OW 4423  14.147  13.814   9.099
67509SOL    HW1 4424  14.084  13.823   9.028
67509SOL    HW2 4425  14.228  13.851   9.064
67510SOL     OW 4426   6.344   9.822   2.388
67510SOL    HW1 4427   6.260   9.851   2.353
67510SOL    HW2 4428   6.333   9.829   2.483
67511SOL     OW 4429   7.482   5.572  10.682
67511SOL    HW1 4430   7.397   5.540  10.712
67511SOL    HW2 4431   7.490   5.660  10.719
67512SOL     OW 4432   7.817   0.970  13.534
67512SOL    HW1 4433   7.762   0.950  13.609
67512SOL    HW2 4434   7.769   0.936  13.458
67513SOL     OW 4435   4.282   8.920  14.319
67513SOL    HW1 4436   4.227   8.847  14.292
67513SOL    HW2 4437   4.331   8.944  14.241
67514SOL     OW 4438   7.630   4.867   8.949
67514SOL    HW1 4439   7.620   4.787   8.898
67514SOL    HW2 4440   7.606   4.842   9.039
67515SOL     OW 4441  11.550  12.380   3.661
67515SOL    HW1 4442  11.516  12.440   3.728
67515SOL    HW2 4443  11.526  12.420   3.578
67516SOL     OW 4444   2.233   8.626  11.726
67516SOL    HW1 4445   2.312   8.594  11.768
67516SOL    HW2 4446   2.181   8.548  11.709
67517SOL     OW 4447   7.034  10.191   0.736
67517SOL    HW1 4448   6.963  10.127   0.742
67517SOL    HW2 4449   7.004  10.254   0.670
67518SOL     OW 4450  11.588  10.814  10.850
67518SOL    HW1 4451  11.653  10.808  10.780
67518SOL    HW2 4452  11.545  10.729  10.850
67519SOL     OW 4453  11.159  14.651  10.778
67519SOL    HW1 4454  11.091  14.585  10.771
67519SOL    HW2 4455  11.111  14.733  10.791
67520SOL     OW 4456   5.855   6.515   2.098
67520SOL    HW1 4457   5.760   6.522   2.107
67520SOL    HW2 4458   5.871   6.511   2.004
67521SOL     OW 4459  10.496  13.040   2.664
67521SOL    HW1 4460  10.406  13.054   2.636
67521SOL    HW2 4461  10.526  12.964   2.614
67522SOL     OW 4462   7.261   8.930   0.982
67522SOL    HW1 4463   7.229   8.841   0.968
67522SOL    HW2 4464   7.294   8.930   1.072
67523SOL     OW 4465   6.234   2.799  14.361
67523SOL    HW1 4466   6.182   2.816  14.283
67523SOL    HW2 4467   6.185   2.732  14.409
67524SOL     OW 4468   8.717   2.382  12.571
67524SOL    HW1 4469   8.732   2.366  12.664
67524SOL    HW2 4470   8.782   2.328  12.527
67525SOL     OW 4471   2.469   6.428   7.728
67525SOL    HW1 4472   2.374   6.438   7.733
67525SOL    HW2 4473   2.489   6.426   7.634
67526SOL     OW 4474   7.527   5.362   7.368
67526SOL    HW1 4475   7.464   5.304   7.324
67526SOL    HW2 4476   7.577   5.401   7.296
67527SOL     OW 4477  10.811   0.287   1.921
67527SOL    HW1 4478  10.780   0.371   1.954
67527SOL    HW2 4479  10.790   0.224   1.990
67528SOL     OW 4480   5.794  14.749  13.179
67528SOL    HW1 4481   5.863  14.811  13.157
67528SOL    HW2 4482   5.790  14.751  13.275
67529SOL     OW 4483   6.321   6.726   7.277
67529SOL    HW1 4484   6.252   6.693   7.334
67529SOL    HW2 4485   6.311   6.821   7.281
67530SOL     OW 4486   5.314  12.453  10.325
67530SOL    HW1 4487   5.360  12.417  10.249
67530SOL    HW2 4488   5.380  12.505  10.371
67531SOL     OW 4489   7.887  12.650   4.975
67531SOL    HW1 4490   7.806  12.698   4.962
67531SOL    HW2 4491   7.861  12.571   5.023
67532SOL     OW 4492   1.315   2.030   7.198
67532SOL    HW1 4493   1.380   2.021   7.129
67532SOL    HW2 4494   1.357   1.995   7.277
67533SOL     OW 4495  11.200   6.445   5.850
67533SOL    HW1 4496  11.199   6.422   5.943
67533SOL    HW2 4497  11.108   6.446   5.824
67534SOL     OW 4498  13.485  14.553  12.703
67534SOL    HW1 4499  13.502  14.647  12.705
67534SOL    HW2 4500  13.572  14.513  12.692
67535SOL     OW 4501   0.391   2.618   6.203
67535SOL    HW1 4502   0.340   2.577   6.133
67535SOL    HW2 4503   0.478   2.631   6.165
67536SOL     OW 4504   2.940   7.574   3.526
67536SOL    HW1 4505   2.868   7.636   3.515
67536SOL    HW2 4506   2.911   7.515   3.595
67537SOL     OW 4507  11.194  14.212  11.977
67537SOL    HW1 4508  11.247  14.277  12.024
67537SOL    HW2 4509  11.242  14.196  11.896
67538SOL     OW 4510   4.344   3.109  10.327
67538SOL    HW1 4511   4.313   3.196  10.305
67538SOL    HW2 4512   4.386   3.077  10.247
67539SOL     OW 4513   8.306   1.748   6.767
67539SOL    HW1 4514   8.362   1.693   6.711
67539SOL    HW2 4515   8.355   1.757   6.848
67540SOL     OW 4516   7.031  14.758  10.746
67540SOL    HW1 4517   7.104  14.696  10.746
67540SOL    HW2 4518   7.053  14.820  10.676
67541SOL     OW 4519   2.413   6.902  12.716
67541SOL    HW1 4520   2.389   6.810  12.733
67541SOL    HW2 4521   2.505   6.907  12.742
67542SOL     OW 4522  12.151  13.896  13.653
67542SOL    HW1 4523  12.147  13.801  13.666
67542SOL    HW2 4524  12.065  13.928  13.680
67543SOL     OW 4525  13.804   3.144   2.549
67543SOL    HW1 4526  13.806   3.199   2.470
67543SOL    HW2 4527  13.774   3.059   2.518
67544SOL     OW 4528   9.908   3.388   3.280
67544SOL    HW1 4529   9.915   3.293   3.285
67544SOL    HW2 4530   9.961   3.413   3.204
67545SOL     OW 4531   3.779   9.942   1.041
67545SOL    HW1 4532   3.769  10.027   0.999
67545SOL    HW2 4533   3.873   9.926   1.043
67546SOL     OW 4534   2.475  14.847   4.692
67546SOL    HW1 4535   2.522   0.039   4.730
67546SOL    HW2 4536   2.391   0.002   4.665
67547SOL     OW 4537   5.040  14.220  14.192
67547SOL    HW1 4538   5.011  14.243  14.280
67547SOL    HW2 4539   4.962  14.230  14.137
67548SOL     OW 4540   8.598   7.699   3.208
67548SOL    HW1 4541   8.688   7.731   3.217
67548SOL    HW2 4542   8.551   7.771   3.167
67549SOL     OW 4543   1.559   5.541  13.585
67549SOL    HW1 4544   1.474   5.497  13.578
67549SOL    HW2 4545   1.621   5.478  13.549
67550SOL     OW 4546   0.124   2.868   5.905
67550SOL    HW1 4547   0.183   2.794   5.920
67550SOL    HW2 4548   0.152   2.935   5.968
67551SOL     OW 4549  13.188   9.465  14.768
67551SOL    HW1 4550  13.121   9.410  14.726
67551SOL    HW2 4551  13.252   9.403  14.803
67552SOL     OW 4552  10.164   1.251   4.870
67552SOL    HW1 4553  10.116   1.219   4.947
67552SOL    HW2 4554  10.246   1.201   4.871
67553SOL     OW 4555  12.081   8.126  11.239
67553SOL    HW1 4556  12.000   8.167  11.209
67553SOL    HW2 4557  12.112   8.076  11.164
67554SOL     OW 4558   1.442  12.853   3.502
67554SOL    HW1 4559   1.422  12.761   3.515
67554SOL    HW2 4560   1.368  12.900   3.541
67555SOL     OW 4561   3.090   3.265   8.975
67555SOL    HW1 4562   3.008   3.265   9.025
67555SOL    HW2 4563   3.074   3.203   8.904
67556SOL     OW 4564   0.374   5.614   4.446
67556SOL    HW1 4565   0.333   5.556   4.382
67556SOL    HW2 4566   0.311   5.685   4.457
67557SOL     OW 4567  14.321   8.087   8.497
67557SOL    HW1 4568  14.362   8.111   8.580
67557SOL    HW2 4569  14.239   8.045   8.522
67558SOL     OW 4570   8.941   1.551  12.989
67558SOL    HW1 4571   8.880   1.613  12.949
67558SOL    HW2 4572   9.026   1.595  12.985
67559SOL     OW 4573   9.933  10.054  12.573
67559SOL    HW1 4574   9.874   9.998  12.623
67559SOL    HW2 4575   9.880  10.130  12.550
67560SOL     OW 4576   3.234  10.359   1.150
67560SOL    HW1 4577   3.269  10.425   1.210
67560SOL    HW2 4578   3.147  10.392   1.127
67561SOL     OW 4579  10.362   1.689   0.920
67561SOL    HW1 4580  10.387   1.610   0.871
67561SOL    HW2 4581  10.272   1.706   0.892
67562SOL     OW 4582   5.987   9.702   0.305
67562SOL    HW1 4583   5.988   9.778   0.248
67562SOL    HW2 4584   5.914   9.718   0.366
67563SOL     OW 4585  12.789   6.308  10.352
67563SOL    HW1 4586  12.866   6.254  10.339
67563SOL    HW2 4587  12.792   6.335  10.443
67564SOL     OW 4588  12.498   7.883  13.370
67564SOL    HW1 4589  12.583   7.891  13.327
67564SOL    HW2 4590  12.468   7.973  13.381
67565SOL     OW 4591  10.623   0.314  11.970
67565SOL    HW1 4592  10.619   0.320  11.874
67565SOL    HW2 4593  10.627   0.220  11.988
67566SOL     OW 4594   3.864   2.477  10.117
67566SOL    HW1 4595   3.884   2.402  10.174
67566SOL    HW2 4596   3.884   2.446  10.029
67567SOL     OW 4597   7.063   1.201  12.123
67567SOL    HW1 4598   7.073   1.206  12.028
67567SOL    HW2 4599   7.119   1.127  12.148
67568SOL     OW 4600  14.276  11.917   5.054
67568SOL    HW1 4601  14.341  11.855   5.088
67568SOL    HW2 4602  14.276  11.902   4.960
67569SOL     OW 4603   3.620  10.577   3.066
67569SOL    HW1 4604   3.529  10.591   3.093
67569SOL    HW2 4605   3.619  10.492   3.022
67570SOL     OW 4606   3.518   0.486   2.397
67570SOL    HW1 4607   3.598   0.462   2.350
67570SOL    HW2 4608   3.541   0.475   2.489
67571SOL     OW 4609   0.825   4.327   4.896
67571SOL    HW1 4610   0.878   4.397   4.857
67571SOL    HW2 4611   0.889   4.259   4.920
67572SOL     OW 4612   5.914  11.489  10.498
67572SOL    HW1 4613   5.941  11.581  10.496
67572SOL    HW2 4614   5.824  11.491  10.531
67573SOL     OW 4615  13.358  12.857  12.628
67573SOL    HW1 4616  13.268  12.886  12.643
67573SOL    HW2 4617  13.409  12.901  12.695
67574SOL     OW 4618  12.733   9.718   6.677
67574SOL    HW1 4619  12.689   9.638   6.647
67574SOL    HW2 4620  12.751   9.703   6.770
67575SOL     OW 4621   9.799  13.083   1.461
67575SOL    HW1 4622   9.717  13.122   1.431
67575SOL    HW2 4623   9.802  12.997   1.418
67576SOL     OW 4624  14.845  13.095   6.663
67576SOL    HW1 4625  14.781  13.125   6.599
67576SOL    HW2 4626  14.800  13.101   6.747
67577SOL     OW 4627   6.938   7.123   0.377
67577SOL    HW1 4628   6.851   7.085   0.371
67577SOL    HW2 4629   6.998   7.049   0.362
67578SOL     OW 4630   7.269  12.271  10.950
67578SOL    HW1 4631   7.264  12.207  11.021
67578SOL    HW2 4632   7.186  12.317  10.953
67579SOL     OW 4633   8.597   1.944   7.365
67579SOL    HW1 4634   8.664   1.895   7.318
67579SOL    HW2 4635   8.642   1.975   7.444
67580SOL     OW 4636  13.665   9.543   8.845
67580SOL    HW1 4637  13.734   9.598   8.882
67580SOL    HW2 4638  13.603   9.605   8.805
67581SOL     OW 4639  11.574   3.588   8.953
67581SOL    HW1 4640  11.664   3.609   8.980
67581SOL    HW2 4641  11.547   3.664   8.900
67582SOL     OW 4642   4.121   7.717  14.839
67582SOL    HW1 4643   4.098   7.625  14.832
67582SOL    HW2 4644   4.206   7.717   0.000
67583SOL     OW 4645   2.589   2.714   4.788
67583SOL    HW1 4646   2.582   2.761   4.705
67583SOL    HW2 4647   2.541   2.768   4.850
67584SOL     OW 4648  11.364   8.480   9.050
67584SOL    HW1 4649  11.309   8.558   9.042
67584SOL    HW2 4650  11.302   8.408   9.061
67585SOL     OW 4651  14.549  11.096   9.810
67585SOL    HW1 4652  14.456  11.111   9.799
67585SOL    HW2 4653  14.556  11.046   9.891
67586SOL     OW 4654  12.768   8.007   7.123
67586SOL    HW1 4655  12.698   8.006   7.188
67586SOL    HW2 4656  12.844   7.970   7.169
67587SOL     OW 4657  14.163  13.916   3.310
67587SOL    HW1 4658  14.101  13.983   3.339
67587SOL    HW2 4659  14.220  13.900   3.385
67588SOL     OW 4660  13.748   2.167   6.502
67588SOL    HW1 4661  13.672   2.138   6.553
67588SOL    HW2 4662  13.713   2.234   6.443
67589SOL     OW 4663   3.808   8.361   1.778
67589SOL    HW1 4664   3.847   8.448   1.783
67589SOL    HW2 4665   3.717   8.377   1.750
67590SOL     OW 4666   0.446   8.381   9.396
67590SOL    HW1 4667   0.499   8.449   9.438
67590SOL    HW2 4668   0.487   8.368   9.311
67591SOL     OW 4669   4.900  12.268   4.024
67591SOL    HW1 4670   4.987  12.297   4.051
67591SOL    HW2 4671   4.913  12.178   3.994
67592SOL     OW 4672  13.502  13.907   7.409
67592SOL    HW1 4673  13.574  13.922   7.348
67592SOL    HW2 4674  13.424  13.906   7.353
67593SOL     OW 4675   9.418  10.159   7.895
67593SOL    HW1 4676   9.376  10.085   7.939
67593SOL    HW2 4677   9.512  10.144   7.907
67594SOL     OW 4678   6.807   6.583  12.987
67594SOL    HW1 4679   6.857   6.532  12.923
67594SOL    HW2 4680   6.760   6.518  13.039
67595SOL     OW 4681  14.306   9.321   5.101
67595SOL    HW1 4682  14.328   9.246   5.045
67595SOL    HW2 4683  14.294   9.394   5.040
67596SOL     OW 4684   5.468   1.870   2.826
67596SOL    HW1 4685   5.396   1.844   2.768
67596SOL    HW2 4686   5.445   1.832   2.911
67597SOL     OW 4687   5.638  10.906  12.997
67597SOL    HW1 4688   5.609  10.879  12.910
67597SOL    HW2 4689   5.689  10.986  12.981
67598SOL     OW 4690  14.679   9.118   3.207
67598SOL    HW1 4691  14.595   9.102   3.248
67598SOL    HW2 4692  14.719   9.031   3.198
67599SOL     OW 4693   0.432   5.917  10.903
67599SOL    HW1 4694   0.459   5.830  10.933
67599SOL    HW2 4695   0.337   5.918  10.914
67600SOL     OW 4696  14.421   1.010   7.209
67600SOL    HW1 4697  14.373   1.071   7.153
67600SOL    HW2 4698  14.453   1.063   7.281
67601SOL     OW 4699   7.885   0.224   4.830
67601SOL    HW1 4700   7.800   0.196   4.795
67601SOL    HW2 4701   7.869   0.238   4.923
67602SOL     OW 4702  14.661   6.558   7.724
67602SOL    HW1 4703  14.633   6.470   7.700
67602SOL    HW2 4704  14.686   6.552   7.816
67603SOL     OW 4705  11.249   7.336  14.145
67603SOL    HW1 4706  11.243   7.424  14.109
67603SOL    HW2 4707  11.252   7.348  14.239
67604SOL     OW 4708   4.686  10.025  11.670
67604SOL    HW1 4709   4.639  10.046  11.590
67604SOL    HW2 4710   4.728   9.941  11.652
67605SOL     OW 4711  10.158   6.751  14.054
67605SOL    HW1 4712  10.219   6.680  14.032
67605SOL    HW2 4713  10.171   6.766  14.148
67606SOL     OW 4714   6.969   3.716   9.680
67606SOL    HW1 4715   6.911   3.670   9.740
67606SOL    HW2 4716   7.044   3.658   9.669
67607SOL     OW 4717  14.263   5.769   3.723
67607SOL    HW1 4718  14.269   5.739   3.632
67607SOL    HW2 4719  14.256   5.689   3.775
67608SOL     OW 4720   2.398   8.268   4.866
67608SOL    HW1 4721   2.336   8.335   4.893
67608SOL    HW2 4722   2.351   8.215   4.802
67609SOL     OW 4723   9.420   4.110   3.880
67609SOL    HW1 4724   9.474   4.131   3.956
67609SOL    HW2 4725   9.481   4.078   3.814
67610SOL     OW 4726   4.187   8.527   2.560
67610SOL    HW1 4727   4.216   8.578   2.636
67610SOL    HW2 4728   4.174   8.591   2.491
67611SOL     OW 4729   5.534   3.284   3.633
67611SOL    HW1 4730   5.461   3.224   3.646
67611SOL    HW2 4731   5.573   3.257   3.550
67612SOL     OW 4732  11.674   2.079   6.073
67612SOL    HW1 4733  11.726   2.069   5.994
67612SOL    HW2 4734  11.720   2.146   6.124
67613SOL     OW 4735   4.774   5.908   0.687
67613SOL    HW1 4736   4.790   5.821   0.724
67613SOL    HW2 4737   4.813   5.905   0.600
67614SOL     OW 4738  10.768  10.253   3.312
67614SOL    HW1 4739  10.849  10.222   3.353
67614SOL    HW2 4740  10.790  10.341   3.281
67615SOL     OW 4741  11.420   7.977   9.314
67615SOL    HW1 4742  11.385   7.891   9.288
67615SOL    HW2 4743  11.343   8.033   9.322
67616SOL     OW 4744   3.190  13.378   8.699
67616SOL    HW1 4745   3.175  13.444   8.631
67616SOL    HW2 4746   3.102  13.352   8.727
67617SOL     OW 4747  13.965  13.534  10.967
67617SOL    HW1 4748  14.037  13.589  10.999
67617SOL    HW2 4749  13.902  13.534  11.039
67618SOL     OW 4750   3.000   7.733  11.395
67618SOL    HW1 4751   3.048   7.698  11.320
67618SOL    HW2 4752   3.015   7.670  11.465
67619SOL     OW 4753   5.651   0.350   3.711
67619SOL    HW1 4754   5.653   0.293   3.634
67619SOL    HW2 4755   5.571   0.326   3.757
67620SOL     OW 4756   6.565   1.109   8.043
67620SOL    HW1 4757   6.628   1.044   8.010
67620SOL    HW2 4758   6.480   1.065   8.036
67621SOL     OW 4759   2.740   1.017   6.538
67621SOL    HW1 4760   2.827   0.981   6.554
67621SOL    HW2 4761   2.687   0.988   6.612
67622SOL     OW 4762   7.590   5.765  14.728
67622SOL    HW1 4763   7.621   5.687  14.774
67622SOL    HW2 4764   7.662   5.790  14.671
67623SOL     OW 4765   2.674   0.318  11.428
67623SOL    HW1 4766   2.697   0.350  11.341
67623SOL    HW2 4767   2.693   0.224  11.425
67624SOL     OW 4768   9.216  14.013   9.898
67624SOL    HW1 4769   9.198  14.084   9.959
67624SOL    HW2 4770   9.266  13.949   9.949
67625SOL     OW 4771   1.838   9.716   8.284
67625SOL    HW1 4772   1.932   9.720   8.302
67625SOL    HW2 4773   1.829   9.751   8.195
67626SOL     OW 4774   5.549   1.717  13.965
67626SOL    HW1 4775   5.477   1.657  13.983
67626SOL    HW2 4776   5.507   1.793  13.924
67627SOL     OW 4777   3.541  10.676   0.197
67627SOL    HW1 4778   3.613  10.719   0.242
67627SOL    HW2 4779   3.521  10.733   0.123
67628SOL     OW 4780   6.590   7.188   9.730
67628SOL    HW1 4781   6.514   7.159   9.781
67628SOL    HW2 4782   6.574   7.281   9.715
67629SOL     OW 4783   2.385   8.293   5.398
67629SOL    HW1 4784   2.328   8.314   5.473
67629SOL    HW2 4785   2.446   8.366   5.394
67630SOL     OW 4786  10.292  13.328   7.854
67630SOL    HW1 4787  10.255  13.382   7.924
67630SOL    HW2 4788  10.387  13.331   7.868
67631SOL     OW 4789   9.402  12.820   8.728
67631SOL    HW1 4790   9.328  12.857   8.778
67631SOL    HW2 4791   9.459  12.783   8.795
67632SOL     OW 4792  11.291   3.799  11.011
67632SOL    HW1 4793  11.370   3.853  11.019
67632SOL    HW2 4794  11.317   3.726  10.954
67633SOL     OW 4795  11.361  13.779   8.733
67633SOL    HW1 4796  11.352  13.714   8.803
67633SOL    HW2 4797  11.282  13.768   8.680
67634SOL     OW 4798   9.396  12.632  10.759
67634SOL    HW1 4799   9.304  12.632  10.734
67634SOL    HW2 4800   9.425  12.722  10.744
67635SOL     OW 4801   9.088   1.305  11.905
67635SOL    HW1 4802   9.157   1.291  11.840
67635SOL    HW2 4803   9.040   1.223  11.907
67636SOL     OW 4804  11.626   1.454  11.642
67636SOL    HW1 4805  11.593   1.478  11.728
67636SOL    HW2 4806  11.597   1.524  11.584
67637SOL     OW 4807   2.882  13.373  13.455
67637SOL    HW1 4808   2.962  13.376  13.402
67637SOL    HW2 4809   2.836  13.455  13.434
67638SOL     OW 4810  11.128   1.072   1.519
67638SOL    HW1 4811  11.127   1.167   1.532
67638SOL    HW2 4812  11.125   1.036   1.607
67639SOL     OW 4813  10.950   1.747   2.099
67639SOL    HW1 4814  10.936   1.685   2.027
67639SOL    HW2 4815  10.998   1.696   2.164
67640SOL     OW 4816   6.704   8.211  12.380
67640SOL    HW1 4817   6.659   8.289  12.411
67640SOL    HW2 4818   6.694   8.214  12.284
67641SOL     OW 4819  14.840   7.066   5.752
67641SOL    HW1 4820   0.039   7.087   5.706
67641SOL    HW2 4821  14.784   7.026   5.685
67642SOL     OW 4822   7.960  14.110   1.601
67642SOL    HW1 4823   7.994  14.051   1.669
67642SOL    HW2 4824   7.922  14.183   1.649
67643SOL     OW 4825   5.856   1.971   7.609
67643SOL    HW1 4826   5.878   1.973   7.516
67643SOL    HW2 4827   5.853   1.877   7.631
67644SOL     OW 4828   0.303  14.205   5.656
67644SOL    HW1 4829   0.327  14.196   5.564
67644SOL    HW2 4830   0.215  14.169   5.662
67645SOL     OW 4831   4.200   8.020   9.426
67645SOL    HW1 4832   4.211   8.080   9.499
67645SOL    HW2 4833   4.281   8.029   9.375
67646SOL     OW 4834   7.122   0.636   4.027
67646SOL    HW1 4835   7.215   0.625   4.011
67646SOL    HW2 4836   7.102   0.577   4.100
67647SOL     OW 4837   1.587   8.909   9.166
67647SOL    HW1 4838   1.629   8.825   9.151
67647SOL    HW2 4839   1.653   8.962   9.211
67648SOL     OW 4840   1.194  14.740   6.483
67648SOL    HW1 4841   1.235  14.821   6.453
67648SOL    HW2 4842   1.177  14.755   6.576
67649SOL     OW 4843  12.647   1.833   3.851
67649SOL    HW1 4844  12.679   1.807   3.764
67649SOL    HW2 4845  12.582   1.902   3.833
67650SOL     OW 4846   1.205   7.114   1.112
67650SOL    HW1 4847   1.293   7.093   1.143
67650SOL    HW2 4848   1.151   7.042   1.146
67651SOL     OW 4849  13.424   4.402   4.282
67651SOL    HW1 4850  13.340   4.356   4.281
67651SOL    HW2 4851  13.424   4.454   4.201
67652SOL     OW 4852  14.184  11.367   5.787
67652SOL    HW1 4853  14.126  11.315   5.843
67652SOL    HW2 4854  14.271  11.357   5.828
67653SOL     OW 4855   6.998   2.949   8.327
67653SOL    HW1 4856   6.999   3.036   8.286
67653SOL    HW2 4857   6.963   2.964   8.415
67654SOL     OW 4858   2.519   2.478   7.945
67654SOL    HW1 4859   2.486   2.420   7.876
67654SOL    HW2 4860   2.492   2.435   8.026
67655SOL     OW 4861   9.493   4.559   3.730
67655SOL    HW1 4862   9.549   4.633   3.707
67655SOL    HW2 4863   9.541   4.514   3.800
67656SOL     OW 4864   5.330  10.707   9.607
67656SOL    HW1 4865   5.355  10.759   9.531
67656SOL    HW2 4866   5.268  10.643   9.574
67657SOL     OW 4867   3.399   8.647  12.704
67657SOL    HW1 4868   3.392   8.553  12.686
67657SOL    HW2 4869   3.479   8.656  12.756
67658SOL     OW 4870  11.224   2.750  14.640
67658SOL    HW1 4871  11.236   2.833  14.687
67658SOL    HW2 4872  11.133   2.753  14.609
67659SOL     OW 4873   6.269   2.971   7.903
67659SOL    HW1 4874   6.196   2.950   7.961
67659SOL    HW2 4875   6.252   3.061   7.874
67660SOL     OW 4876  12.280   8.251   6.342
67660SOL    HW1 4877  12.292   8.259   6.437
67660SOL    HW2 4878  12.214   8.317   6.321
67661SOL     OW 4879   1.386  10.844  12.631
67661SOL    HW1 4880   1.344  10.900  12.565
67661SOL    HW2 4881   1.331  10.854  12.709
67662SOL     OW 4882   7.873  10.284  14.857
67662SOL    HW1 4883   7.948  10.275   0.032
67662SOL    HW2 4884   7.803  10.319   0.031
67663SOL     OW 4885   1.222  12.876   5.259
67663SOL    HW1 4886   1.307  12.899   5.221
67663SOL    HW2 4887   1.200  12.950   5.316
67664SOL     OW 4888   6.678  10.151   4.237
67664SOL    HW1 4889   6.711  10.174   4.150
67664SOL    HW2 4890   6.592  10.112   4.220
67665SOL     OW 4891   9.090  11.029  13.383
67665SOL    HW1 4892   9.127  10.943  13.405
67665SOL    HW2 4893   9.138  11.090  13.438
67666SOL     OW 4894   4.134   4.726   5.353
67666SOL    HW1 4895   4.211   4.670   5.362
67666SOL    HW2 4896   4.078   4.703   5.427
67667SOL     OW 4897   0.344  11.085  11.731
67667SOL    HW1 4898   0.311  11.007  11.776
67667SOL    HW2 4899   0.435  11.093  11.760
67668SOL     OW 4900   0.223   2.116   4.474
67668SOL    HW1 4901   0.172   2.084   4.400
67668SOL    HW2 4902   0.193   2.063   4.548
67669SOL     OW 4903   7.115   9.521   1.759
67669SOL    HW1 4904   7.196   9.498   1.805
67669SOL    HW2 4905   7.134   9.605   1.718
67670SOL     OW 4906   3.414   4.597   2.413
67670SOL    HW1 4907   3.510   4.599   2.416
67670SOL    HW2 4908   3.392   4.504   2.409
67671SOL     OW 4909   3.967   2.162  10.204
67671SOL    HW1 4910   3.904   2.150  10.132
67671SOL    HW2 4911   3.989   2.073  10.231
67672SOL     OW 4912   9.761   7.610   8.716
67672SOL    HW1 4913   9.829   7.647   8.660
67672SOL    HW2 4914   9.807   7.545   8.770
67673SOL     OW 4915   5.606  13.591   9.449
67673SOL    HW1 4916   5.568  13.663   9.499
67673SOL    HW2 4917   5.570  13.601   9.361
67674SOL     OW 4918  13.671   0.472   1.976
67674SOL    HW1 4919  13.743   0.424   1.935
67674SOL    HW2 4920  13.665   0.554   1.928
67675SOL     OW 4921   9.301   3.485   4.323
67675SOL    HW1 4922   9.222   3.512   4.370
67675SOL    HW2 4923   9.317   3.556   4.261
67676SOL     OW 4924   9.864  10.967  10.733
67676SOL    HW1 4925   9.833  10.964  10.643
67676SOL    HW2 4926   9.849  11.057  10.761
67677SOL     OW 4927   9.473   0.743  12.675
67677SOL    HW1 4928   9.550   0.739  12.617
67677SOL    HW2 4929   9.510   0.765  12.761
67678SOL     OW 4930   2.450   8.842   2.631
67678SOL    HW1 4931   2.497   8.876   2.708
67678SOL    HW2 4932   2.462   8.909   2.565
67679SOL     OW 4933  13.993   2.994   6.947
67679SOL    HW1 4934  13.965   2.913   6.990
67679SOL    HW2 4935  13.925   3.011   6.882
67680SOL     OW 4936   7.542   1.621   7.982
67680SOL    HW1 4937   7.516   1.712   7.992
67680SOL    HW2 4938   7.617   1.611   8.040
67681SOL     OW 4939  14.855   5.699   9.633
67681SOL    HW1 4940   0.008   5.687   9.545
67681SOL    HW2 4941  14.874   5.791   9.654
67682SOL     OW 4942  13.425   8.213   9.452
67682SOL    HW1 4943  13.353   8.157   9.424
67682SOL    HW2 4944  13.383   8.294   9.482
67683SOL     OW 4945  12.145   0.201   9.221
67683SOL    HW1 4946  12.097   0.281   9.203
67683SOL    HW2 4947  12.128   0.145   9.146
67684SOL     OW 4948  10.466   5.500   9.356
67684SOL    HW1 4949  10.455   5.594   9.367
67684SOL    HW2 4950  10.411   5.461   9.424
67685SOL     OW 4951  14.183  13.916   7.374
67685SOL    HW1 4952  14.205  13.968   7.296
67685SOL    HW2 4953  14.210  13.827   7.353
67686SOL     OW 4954  13.919  14.357  12.649
67686SOL    HW1 4955  13.897  14.447  12.670
67686SOL    HW2 4956  13.945  14.318  12.732
67687SOL     OW 4957   2.958   0.541   1.096
67687SOL    HW1 4958   3.037   0.496   1.067
67687SOL    HW2 4959   2.967   0.546   1.192
67688SOL     OW 4960   9.969   4.619   1.677
67688SOL    HW1 4961  10.023   4.681   1.727
67688SOL    HW2 4962  10.032   4.569   1.625
67689SOL     OW 4963   4.804   7.793   0.175
67689SOL    HW1 4964   4.758   7.801   0.258
67689SOL    HW2 4965   4.773   7.866   0.122
67690SOL     OW 4966   2.741   3.933  11.865
67690SOL    HW1 4967   2.803   3.961  11.798
67690SOL    HW2 4968   2.688   3.866  11.822
67691SOL     OW 4969   9.350   8.454  12.552
67691SOL    HW1 4970   9.269   8.437  12.601
67691SOL    HW2 4971   9.377   8.542  12.578
67692SOL     OW 4972   4.669   7.168   4.314
67692SOL    HW1 4973   4.615   7.115   4.373
67692SOL    HW2 4974   4.653   7.130   4.228
67693SOL     OW 4975   2.440   4.591   7.112
67693SOL    HW1 4976   2.436   4.663   7.049
67693SOL    HW2 4977   2.527   4.553   7.099
67694SOL     OW 4978   5.341  11.334   1.609
67694SOL    HW1 4979   5.424  11.311   1.652
67694SOL    HW2 4980   5.324  11.260   1.550
67695SOL     OW 4981   0.211   7.819   8.607
67695SOL    HW1 4982   0.284   7.877   8.583
67695SOL    HW2 4983   0.134   7.861   8.568
67696SOL     OW 4984   2.270   7.428   6.129
67696SOL    HW1 4985   2.362   7.400   6.131
67696SOL    HW2 4986   2.220   7.346   6.125
67697SOL     OW 4987  10.240   8.986   4.844
67697SOL    HW1 4988  10.292   9.062   4.817
67697SOL    HW2 4989  10.269   8.915   4.787
67698SOL     OW 4990   5.782  13.415   2.339
67698SOL    HW1 4991   5.873  13.413   2.308
67698SOL    HW2 4992   5.768  13.329   2.378
67699SOL     OW 4993   2.404   1.519   2.359
67699SOL    HW1 4994   2.370   1.432   2.341
67699SOL    HW2 4995   2.477   1.530   2.298
67700SOL     OW 4996   0.539  12.727  11.755
67700SOL    HW1 4997   0.504  12.814  11.735
67700SOL    HW2 4998   0.520  12.714  11.848
67701SOL     OW 4999  11.564   4.122   2.664
67701SOL    HW1 5000  11.582   4.215   2.679
67701SOL    HW2 5001  11.468   4.116   2.663
67702SOL     OW 5002  10.551   4.707  14.651
67702SOL    HW1 5003  10.528   4.795  14.679
67702SOL    HW2 5004  10.635   4.689  14.693
67703SOL     OW 5005   3.600   1.639  11.910
67703SOL    HW1 5006   3.673   1.698  11.928
67703SOL    HW2 5007   3.532   1.665  11.973
67704SOL     OW 5008  14.032   3.346   6.809
67704SOL    HW1 5009  14.120   3.310   6.802
67704SOL    HW2 5010  14.039   3.434   6.772
67705SOL     OW 5011   3.100  10.878   1.765
67705SOL    HW1 5012   3.028  10.932   1.733
67705SOL    HW2 5013   3.095  10.798   1.713
67706SOL     OW 5014   6.626   4.340  12.651
67706SOL    HW1 5015   6.560   4.271  12.640
67706SOL    HW2 5016   6.706   4.303  12.614
67707SOL     OW 5017   9.120   6.255  11.508
67707SOL    HW1 5018   9.052   6.195  11.478
67707SOL    HW2 5019   9.089   6.287  11.593
67708SOL     OW 5020   4.161  10.813   6.705
67708SOL    HW1 5021   4.130  10.767   6.628
67708SOL    HW2 5022   4.239  10.860   6.676
67709SOL     OW 5023   9.702   0.779  11.533
67709SOL    HW1 5024   9.687   0.732  11.615
67709SOL    HW2 5025   9.711   0.711  11.467
67710SOL     OW 5026  13.591  14.825  11.485
67710SOL    HW1 5027  13.600  14.775  11.566
67710SOL    HW2 5028  13.532   0.015  11.508
67711SOL     OW 5029   1.788   5.014   5.228
67711SOL    HW1 5030   1.778   5.100   5.187
67711SOL    HW2 5031   1.814   5.034   5.318
67712SOL     OW 5032  11.961   9.124   3.418
67712SOL    HW1 5033  11.924   9.037   3.405
67712SOL    HW2 5034  11.968   9.134   3.514
67713SOL     OW 5035  14.700  14.022   2.684
67713SOL    HW1 5036  14.703  13.962   2.759
67713SOL    HW2 5037  14.607  14.043   2.674
67714SOL     OW 5038   8.834   0.087   8.771
67714SOL    HW1 5039   8.755   0.106   8.821
67714SOL    HW2 5040   8.847   0.165   8.717
67715SOL     OW 5041  12.033  12.931   9.410
67715SOL    HW1 5042  11.993  12.872   9.346
67715SOL    HW2 5043  12.061  12.873   9.481
67716SOL     OW 5044   4.338   2.880   9.747
67716SOL    HW1 5045   4.380   2.876   9.662
67716SOL    HW2 5046   4.245   2.891   9.728
67717SOL     OW 5047   1.948   6.230   5.351
67717SOL    HW1 5048   1.899   6.276   5.282
67717SOL    HW2 5049   2.009   6.174   5.303
67718SOL     OW 5050   7.117  14.261   8.735
67718SOL    HW1 5051   7.048  14.213   8.779
67718SOL    HW2 5052   7.130  14.339   8.789
67719SOL     OW 5053   6.213   7.111   1.036
67719SOL    HW1 5054   6.204   7.206   1.026
67719SOL    HW2 5055   6.131   7.083   1.076
67720SOL     OW 5056   8.568  14.502   3.743
67720SOL    HW1 5057   8.512  14.483   3.668
67720SOL    HW2 5058   8.543  14.436   3.808
67721SOL     OW 5059   5.691   1.521   4.844
67721SOL    HW1 5060   5.703   1.428   4.826
67721SOL    HW2 5061   5.741   1.565   4.775
67722SOL     OW 5062   5.225  13.284  12.269
67722SOL    HW1 5063   5.317  13.300  12.293
67722SOL    HW2 5064   5.175  13.341  12.328
67723SOL     OW 5065   0.497   6.896  11.532
67723SOL    HW1 5066   0.515   6.950  11.609
67723SOL    HW2 5067   0.439   6.827  11.564
67724SOL     OW 5068   7.346   7.499   6.193
67724SOL    HW1 5069   7.420   7.449   6.157
67724SOL    HW2 5070   7.290   7.432   6.233
67725SOL     OW 5071  10.467   4.944   5.161
67725SOL    HW1 5072  10.407   4.967   5.090
67725SOL    HW2 5073  10.536   5.010   5.156
67726SOL     OW 5074  12.122  10.557  14.714
67726SOL    HW1 5075  12.165  10.530  14.795
67726SOL    HW2 5076  12.184  10.534  14.645
67727SOL     OW 5077  10.353   4.414   6.039
67727SOL    HW1 5078  10.378   4.436   5.949
67727SOL    HW2 5079  10.400   4.332   6.058
67728SOL     OW 5080   1.741   9.680   5.835
67728SOL    HW1 5081   1.735   9.755   5.894
67728SOL    HW2 5082   1.671   9.621   5.863
67729SOL     OW 5083  10.852  12.288   3.849
67729SOL    HW1 5084  10.880  12.283   3.758
67729SOL    HW2 5085  10.761  12.316   3.845
67730SOL     OW 5086   6.627   4.741  11.163
67730SOL    HW1 5087   6.556   4.740  11.226
67730SOL    HW2 5088   6.615   4.822  11.114
67731SOL     OW 5089   0.618   1.369   0.928
67731SOL    HW1 5090   0.611   1.418   0.846
67731SOL    HW2 5091   0.583   1.428   0.995
67732SOL     OW 5092   3.838   4.410   7.745
67732SOL    HW1 5093   3.862   4.325   7.781
67732SOL    HW2 5094   3.896   4.420   7.669
67733SOL     OW 5095  12.490   9.059   5.171
67733SOL    HW1 5096  12.410   9.112   5.175
67733SOL    HW2 5097  12.464   8.974   5.207
67734SOL     OW 5098  12.926   7.181   4.563
67734SOL    HW1 5099  12.979   7.186   4.483
67734SOL    HW2 5100  12.985   7.143   4.628
67735SOL     OW 5101  14.281  12.628   2.882
67735SOL    HW1 5102  14.344  12.603   2.814
67735SOL    HW2 5103  14.314  12.712   2.915
67736SOL     OW 5104   7.097   9.980  11.568
67736SOL    HW1 5105   7.147  10.018  11.496
67736SOL    HW2 5106   7.119   9.887  11.566
67737SOL     OW 5107   2.541  13.959  10.301
67737SOL    HW1 5108   2.448  13.937  10.304
67737SOL    HW2 5109   2.585  13.883  10.340
67738SOL     OW 5110  10.156   8.725  12.912
67738SOL    HW1 5111  10.190   8.774  12.987
67738SOL    HW2 5112  10.080   8.776  12.883
67739SOL     OW 5113   7.891   8.583   7.613
67739SOL    HW1 5114   7.936   8.601   7.530
67739SOL    HW2 5115   7.953   8.529   7.663
67740SOL     OW 5116  10.931   6.822  12.567
67740SOL    HW1 5117  10.920   6.794  12.476
67740SOL    HW2 5118  10.901   6.748  12.619
67741SOL     OW 5119   9.890  10.982   4.440
67741SOL    HW1 5120   9.894  11.031   4.358
67741SOL    HW2 5121   9.923  11.042   4.506
67742SOL     OW 5122   2.830   2.560  12.174
67742SOL    HW1 5123   2.863   2.601  12.254
67742SOL    HW2 5124   2.742   2.598  12.163
67743SOL     OW 5125   9.269   9.699  11.170
67743SOL    HW1 5126   9.196   9.642  11.193
67743SOL    HW2 5127   9.338   9.675  11.232
67744SOL     OW 5128   2.928   6.900  13.792
67744SOL    HW1 5129   2.834   6.912  13.806
67744SOL    HW2 5130   2.968   6.975  13.836
67745SOL     OW 5131   9.435   3.257   7.871
67745SOL    HW1 5132   9.460   3.195   7.803
67745SOL    HW2 5133   9.495   3.238   7.944
67746SOL     OW 5134   0.483  11.741   8.910
67746SOL    HW1 5135   0.436  11.664   8.941
67746SOL    HW2 5136   0.529  11.711   8.832
67747SOL     OW 5137  11.332  12.671  10.823
67747SOL    HW1 5138  11.427  12.673  10.826
67747SOL    HW2 5139  11.308  12.592  10.872
67748SOL     OW 5140  10.501  13.147  13.503
67748SOL    HW1 5141  10.560  13.076  13.528
67748SOL    HW2 5142  10.454  13.114  13.427
67749SOL     OW 5143   4.111   7.868   4.995
67749SOL    HW1 5144   4.171   7.897   4.926
67749SOL    HW2 5145   4.169   7.827   5.060
67750SOL     OW 5146   9.254  14.829  11.121
67750SOL    HW1 5147   9.310  14.818  11.044
67750SOL    HW2 5148   9.167  14.801  11.093
67751SOL     OW 5149   3.332  14.257   2.027
67751SOL    HW1 5150   3.339  14.318   2.100
67751SOL    HW2 5151   3.396  14.189   2.046
67752SOL     OW 5152   3.528   2.715   6.027
67752SOL    HW1 5153   3.511   2.747   5.938
67752SOL    HW2 5154   3.443   2.720   6.071
67753SOL     OW 5155   3.182   6.919   3.270
67753SOL    HW1 5156   3.113   6.861   3.237
67753SOL    HW2 5157   3.145   6.956   3.351
67754SOL     OW 5158   5.276   2.403   0.735
67754SOL    HW1 5159   5.242   2.442   0.816
67754SOL    HW2 5160   5.215   2.431   0.667
67755SOL     OW 5161   7.746   5.930   6.130
67755SOL    HW1 5162   7.715   5.968   6.048
67755SOL    HW2 5163   7.771   5.840   6.108
67756SOL     OW 5164  12.750  13.606   7.075
67756SOL    HW1 5165  12.802  13.571   7.003
67756SOL    HW2 5166  12.686  13.664   7.033
67757SOL     OW 5167   4.807  13.312   3.652
67757SOL    HW1 5168   4.777  13.319   3.561
67757SOL    HW2 5169   4.887  13.260   3.646
67758SOL     OW 5170   5.593   7.809  12.658
67758SOL    HW1 5171   5.569   7.753  12.732
67758SOL    HW2 5172   5.615   7.894  12.698
67759SOL     OW 5173  12.948   9.008   9.547
67759SOL    HW1 5174  12.951   8.924   9.592
67759SOL    HW2 5175  12.971   9.073   9.613
67760SOL     OW 5176  12.476   1.148  14.602
67760SOL    HW1 5177  12.477   1.054  14.621
67760SOL    HW2 5178  12.568   1.174  14.602
67761SOL     OW 5179  11.540  10.029   5.082
67761SOL    HW1 5180  11.615  10.088   5.072
67761SOL    HW2 5181  11.554   9.986   5.167
67762SOL     OW 5182   9.174  12.632  12.114
67762SOL    HW1 5183   9.252  12.686  12.107
67762SOL    HW2 5184   9.203  12.544  12.087
67763SOL     OW 5185   9.211   4.564   9.396
67763SOL    HW1 5186   9.216   4.620   9.473
67763SOL    HW2 5187   9.234   4.622   9.323
67764SOL     OW 5188   9.442  11.218  13.131
67764SOL    HW1 5189   9.438  11.274  13.054
67764SOL    HW2 5190   9.496  11.144  13.104
67765SOL     OW 5191   4.205  13.930   3.580
67765SOL    HW1 5192   4.235  13.851   3.624
67765SOL    HW2 5193   4.199  13.996   3.649
67766SOL     OW 5194  10.383   2.490   9.019
67766SOL    HW1 5195  10.384   2.578   8.981
67766SOL    HW2 5196  10.338   2.500   9.103
67767SOL     OW 5197  14.224   7.832   9.344
67767SOL    HW1 5198  14.193   7.894   9.278
67767SOL    HW2 5199  14.159   7.762   9.344
67768SOL     OW 5200   4.173   6.674  14.643
67768SOL    HW1 5201   4.176   6.584  14.610
67768SOL    HW2 5202   4.261   6.690  14.676
67769SOL     OW 5203   2.837   4.702  14.875
67769SOL    HW1 5204   2.896   4.759  14.825
67769SOL    HW2 5205   2.889   4.676   0.069
67770SOL     OW 5206  13.147   6.459   0.994
67770SOL    HW1 5207  13.061   6.488   0.962
67770SOL    HW2 5208  13.149   6.365   0.973
67771SOL     OW 5209   2.220  11.821   2.141
67771SOL    HW1 5210   2.205  11.750   2.204
67771SOL    HW2 5211   2.256  11.892   2.194
67772SOL     OW 5212  12.234  13.694   1.327
67772SOL    HW1 5213  12.304  13.743   1.370
67772SOL    HW2 5214  12.169  13.761   1.305
67773SOL     OW 5215   0.928   6.000   6.667
67773SOL    HW1 5216   0.946   6.010   6.760
67773SOL    HW2 5217   0.910   6.089   6.636
67774SOL     OW 5218   1.434   7.121  14.546
67774SOL    HW1 5219   1.529   7.112  14.554
67774SOL    HW2 5220   1.417   7.211  14.573
67775SOL     OW 5221  14.131   5.492  13.636
67775SOL    HW1 5222  14.222   5.501  13.605
67775SOL    HW2 5223  14.079   5.539  13.571
67776SOL     OW 5224  14.334   5.718  12.841
67776SOL    HW1 5225  14.260   5.753  12.790
67776SOL    HW2 5226  14.402   5.785  12.832
67777SOL     OW 5227  14.392   6.531   8.321
67777SOL    HW1 5228  14.369   6.619   8.353
67777SOL    HW2 5229  14.395   6.540   8.226
67778SOL     OW 5230   8.105  11.699   5.579
67778SOL    HW1 5231   8.153  11.657   5.650
67778SOL    HW2 5232   8.171  11.712   5.510
67779SOL     OW 5233   1.537   9.003   1.656
67779SOL    HW1 5234   1.537   8.920   1.608
67779SOL    HW2 5235   1.486   8.985   1.735
67780SOL     OW 5236   5.468  11.770   5.828
67780SOL    HW1 5237   5.475  11.842   5.890
67780SOL    HW2 5238   5.463  11.812   5.742
67781SOL     OW 5239   1.549  13.934  12.702
67781SOL    HW1 5240   1.604  14.002  12.741
67781SOL    HW2 5241   1.548  13.954  12.609
67782SOL     OW 5242  14.807   4.560  13.269
67782SOL    HW1 5243  14.834   4.478  13.310
67782SOL    HW2 5244  14.795   4.538  13.177
67783SOL     OW 5245  10.191   0.325  13.966
67783SOL    HW1 5246  10.122   0.284  13.913
67783SOL    HW2 5247  10.272   0.282  13.938
67784SOL     OW 5248   6.758   0.410   8.946
67784SOL    HW1 5249   6.670   0.410   8.910
67784SOL    HW2 5250   6.815   0.420   8.870
67785SOL     OW 5251   2.196   4.879  14.117
67785SOL    HW1 5252   2.155   4.842  14.038
67785SOL    HW2 5253   2.288   4.856  14.109
67786SOL     OW 5254  14.558   2.950   7.962
67786SOL    HW1 5255  14.587   2.967   8.052
67786SOL    HW2 5256  14.485   3.011   7.949
67787SOL     OW 5257   1.423   1.667   3.209
67787SOL    HW1 5258   1.330   1.674   3.228
67787SOL    HW2 5259   1.466   1.681   3.293
67788SOL     OW 5260   8.395   2.642  12.531
67788SOL    HW1 5261   8.307   2.676  12.522
67788SOL    HW2 5262   8.389   2.551  12.502
67789SOL     OW 5263   4.206  13.307   2.383
67789SOL    HW1 5264   4.137  13.299   2.316
67789SOL    HW2 5265   4.181  13.245   2.451
67790SOL     OW 5266   7.140   1.554   1.293
67790SOL    HW1 5267   7.075   1.586   1.231
67790SOL    HW2 5268   7.155   1.463   1.267
67791SOL     OW 5269  13.612  12.576  14.235
67791SOL    HW1 5270  13.519  12.570  14.257
67791SOL    HW2 5271  13.640  12.485  14.225
67792SOL     OW 5272   2.046  11.231  12.386
67792SOL    HW1 5273   1.960  11.249  12.424
67792SOL    HW2 5274   2.095  11.313  12.397
67793SOL     OW 5275   8.847  10.748   2.312
67793SOL    HW1 5276   8.888  10.663   2.326
67793SOL    HW2 5277   8.826  10.779   2.400
67794SOL     OW 5278  13.684  14.259   0.662
67794SOL    HW1 5279  13.720  14.254   0.751
67794SOL    HW2 5280  13.604  14.206   0.666
67795SOL     OW 5281   5.577   5.295   0.302
67795SOL    HW1 5282   5.653   5.244   0.274
67795SOL    HW2 5283   5.606   5.386   0.296
67796SOL     OW 5284  11.200   7.564   3.140
67796SOL    HW1 5285  11.189   7.600   3.053
67796SOL    HW2 5286  11.134   7.608   3.194
67797SOL     OW 5287  11.477   1.738   9.044
67797SOL    HW1 5288  11.386   1.718   9.023
67797SOL    HW2 5289  11.528   1.677   8.991
67798SOL     OW 5290  13.399   8.132  11.216
67798SOL    HW1 5291  13.452   8.080  11.155
67798SOL    HW2 5292  13.320   8.080  11.228
67799SOL     OW 5293   4.811   0.152   1.823
67799SOL    HW1 5294   4.800   0.064   1.787
67799SOL    HW2 5295   4.856   0.138   1.907
67800SOL     OW 5296  13.209   9.481   3.589
67800SOL    HW1 5297  13.216   9.397   3.634
67800SOL    HW2 5298  13.299   9.511   3.580
67801SOL     OW 5299   3.584   1.650  13.458
67801SOL    HW1 5300   3.546   1.606  13.382
67801SOL    HW2 5301   3.583   1.583  13.527
67802SOL     OW 5302   3.991  10.815   6.049
67802SOL    HW1 5303   3.928  10.743   6.058
67802SOL    HW2 5304   3.967  10.857   5.966
67803SOL     OW 5305   8.149  10.089   6.878
67803SOL    HW1 5306   8.206  10.041   6.818
67803SOL    HW2 5307   8.120  10.023   6.941
67804SOL     OW 5308   7.752  11.596   3.374
67804SOL    HW1 5309   7.667  11.622   3.409
67804SOL    HW2 5310   7.813  11.616   3.445
67805SOL     OW 5311   1.512   2.655   1.590
67805SOL    HW1 5312   1.549   2.594   1.526
67805SOL    HW2 5313   1.518   2.609   1.674
67806SOL     OW 5314  11.104   3.018   5.990
67806SOL    HW1 5315  11.135   3.108   6.007
67806SOL    HW2 5316  11.153   2.965   6.053
67807SOL     OW 5317   6.395   2.988  12.936
67807SOL    HW1 5318   6.390   2.981  12.840
67807SOL    HW2 5319   6.329   2.926  12.967
67808SOL     OW 5320   6.268  14.851   8.992
67808SOL    HW1 5321   6.220  14.847   8.909
67808SOL    HW2 5322   6.226   0.039   9.040
67809SOL     OW 5323   0.244   8.808   1.737
67809SOL    HW1 5324   0.165   8.821   1.684
67809SOL    HW2 5325   0.279   8.896   1.751
67810SOL     OW 5326   5.612   5.298  13.703
67810SOL    HW1 5327   5.536   5.250  13.669
67810SOL    HW2 5328   5.582   5.389  13.710
67811SOL     OW 5329   3.865  12.225  10.548
67811SOL    HW1 5330   3.832  12.230  10.638
67811SOL    HW2 5331   3.943  12.280  10.548
67812SOL     OW 5332   8.733   2.653   8.333
67812SOL    HW1 5333   8.766   2.742   8.341
67812SOL    HW2 5334   8.720   2.624   8.423
67813SOL     OW 5335   2.416  13.170   6.813
67813SOL    HW1 5336   2.394  13.091   6.862
67813SOL    HW2 5337   2.497  13.148   6.767
67814SOL     OW 5338  14.328  10.631   8.120
67814SOL    HW1 5339  14.357  10.558   8.065
67814SOL    HW2 5340  14.341  10.709   8.065
67815SOL     OW 5341   9.266  10.245  11.242
67815SOL    HW1 5342   9.174  10.233  11.266
67815SOL    HW2 5343   9.315  10.202  11.313
67816SOL     OW 5344  12.827   1.260  13.479
67816SOL    HW1 5345  12.841   1.331  13.542
67816SOL    HW2 5346  12.816   1.182  13.533
67817SOL     OW 5347   1.927   4.614  12.141
67817SOL    HW1 5348   2.012   4.598  12.099
67817SOL    HW2 5349   1.890   4.687  12.093
67818SOL     OW 5350  10.294   9.599   2.471
67818SOL    HW1 5351  10.218   9.545   2.449
67818SOL    HW2 5352  10.271   9.686   2.439
67819SOL     OW 5353   4.932  11.621  11.486
67819SOL    HW1 5354   4.958  11.570  11.409
67819SOL    HW2 5355   4.968  11.708  11.470
67820SOL     OW 5356   0.011   3.420   1.192
67820SOL    HW1 5357   0.091   3.423   1.139
67820SOL    HW2 5358  14.873   3.326   1.200
67821SOL     OW 5359   0.806  10.442  11.020
67821SOL    HW1 5360   0.762  10.494  10.952
67821SOL    HW2 5361   0.848  10.507  11.077
67822SOL     OW 5362   7.816  13.045   4.020
67822SOL    HW1 5363   7.730  13.005   4.008
67822SOL    HW2 5364   7.850  13.004   4.100
67823SOL     OW 5365   6.033   4.335   7.923
67823SOL    HW1 5366   6.069   4.380   7.846
67823SOL    HW2 5367   5.962   4.281   7.888
67824SOL     OW 5368  13.956   8.171   4.993
67824SOL    HW1 5369  13.911   8.143   5.072
67824SOL    HW2 5370  13.925   8.112   4.924
67825SOL     OW 5371  13.274  14.676  13.102
67825SOL    HW1 5372  13.214  14.626  13.047
67825SOL    HW2 5373  13.225  14.693  13.182
67826SOL     OW 5374   6.347   6.372  12.248
67826SOL    HW1 5375   6.315   6.462  12.254
67826SOL    HW2 5376   6.272   6.322  12.216
67827SOL     OW 5377   1.472   0.678   9.119
67827SOL    HW1 5378   1.466   0.638   9.033
67827SOL    HW2 5379   1.545   0.740   9.111
67828SOL     OW 5380   7.324  14.264   7.720
67828SOL    HW1 5381   7.364  14.237   7.638
67828SOL    HW2 5382   7.231  14.270   7.701
67829SOL     OW 5383  14.305  10.819   5.686
67829SOL    HW1 5384  14.274  10.910   5.686
67829SOL    HW2 5385  14.226  10.767   5.668
67830SOL     OW 5386   1.841  13.949  13.740
67830SOL    HW1 5387   1.754  13.986  13.754
67830SOL    HW2 5388   1.829  13.855  13.748
67831SOL     OW 5389  13.417  10.248   1.597
67831SOL    HW1 5390  13.452  10.335   1.612
67831SOL    HW2 5391  13.351  10.236   1.666
67832SOL     OW 5392   5.407   8.378  12.056
67832SOL    HW1 5393   5.314   8.382  12.077
67832SOL    HW2 5394   5.412   8.413  11.966
67833SOL     OW 5395   4.574   9.399   7.296
67833SOL    HW1 5396   4.504   9.414   7.359
67833SOL    HW2 5397   4.651   9.382   7.350
67834SOL     OW 5398   7.920   3.748  14.102
67834SOL    HW1 5399   8.011   3.722  14.114
67834SOL    HW2 5400   7.911   3.762  14.008
67835SOL     OW 5401   4.984   7.568   2.530
67835SOL    HW1 5402   5.039   7.582   2.607
67835SOL    HW2 5403   5.033   7.504   2.477
67836SOL     OW 5404   1.128   0.537   0.126
67836SOL    HW1 5405   1.137   0.549   0.031
67836SOL    HW2 5406   1.034   0.538   0.142
67837SOL     OW 5407   5.758  10.151  14.072
67837SOL    HW1 5408   5.740  10.105  13.989
67837SOL    HW2 5409   5.737  10.086  14.139
67838SOL     OW 5410   1.056   7.305   4.565
67838SOL    HW1 5411   1.067   7.328   4.657
67838SOL    HW2 5412   1.073   7.210   4.562
67839SOL     OW 5413  10.184   3.039   8.949
67839SOL    HW1 5414  10.198   3.119   8.898
67839SOL    HW2 5415  10.125   2.987   8.895
67840SOL     OW 5416  14.462   0.860  10.813
67840SOL    HW1 5417  14.459   0.767  10.836
67840SOL    HW2 5418  14.469   0.861  10.717
67841SOL     OW 5419   2.499  14.706   5.957
67841SOL    HW1 5420   2.586  14.703   5.917
67841SOL    HW2 5421   2.461  14.788   5.927
67842SOL     OW 5422  12.971   3.582   5.600
67842SOL    HW1 5423  13.046   3.564   5.657
67842SOL    HW2 5424  13.010   3.593   5.513
67843SOL     OW 5425   0.963  13.207  13.093
67843SOL    HW1 5426   0.987  13.132  13.039
67843SOL    HW2 5427   0.981  13.283  13.038
67844SOL     OW 5428   8.307   9.224  12.707
67844SOL    HW1 5429   8.258   9.167  12.766
67844SOL    HW2 5430   8.398   9.197  12.718
67845SOL     OW 5431   7.218   1.316   8.087
67845SOL    HW1 5432   7.129   1.282   8.076
67845SOL    HW2 5433   7.271   1.263   8.029
67846SOL     OW 5434   3.599   9.508   9.846
67846SOL    HW1 5435   3.624   9.453   9.772
67846SOL    HW2 5436   3.617   9.597   9.817
67847SOL     OW 5437   2.529  12.565  11.721
67847SOL    HW1 5438   2.481  12.526  11.647
67847SOL    HW2 5439   2.469  12.632  11.755
67848SOL     OW 5440   4.241   3.146  12.174
67848SOL    HW1 5441   4.170   3.083  12.166
67848SOL    HW2 5442   4.216   3.202  12.247
67849SOL     OW 5443   4.680  10.737   6.061
67849SOL    HW1 5444   4.619  10.777   5.999
67849SOL    HW2 5445   4.697  10.806   6.126
67850SOL     OW 5446  13.849   3.275   5.361
67850SOL    HW1 5447  13.861   3.232   5.446
67850SOL    HW2 5448  13.902   3.223   5.301
67851SOL     OW 5449   1.135   9.744   7.967
67851SOL    HW1 5450   1.067   9.703   8.020
67851SOL    HW2 5451   1.216   9.697   7.991
67852SOL     OW 5452   5.955  13.112   5.870
67852SOL    HW1 5453   6.007  13.182   5.830
67852SOL    HW2 5454   6.006  13.087   5.947
67853SOL     OW 5455   3.462  11.777   7.280
67853SOL    HW1 5456   3.513  11.746   7.205
67853SOL    HW2 5457   3.471  11.708   7.346
67854SOL     OW 5458   3.141   9.479   8.557
67854SOL    HW1 5459   3.064   9.428   8.581
67854SOL    HW2 5460   3.208   9.413   8.537
67855SOL     OW 5461   3.016   4.138   7.957
67855SOL    HW1 5462   2.951   4.146   8.026
67855SOL    HW2 5463   2.999   4.213   7.899
67856SOL     OW 5464  11.665   1.810  12.885
67856SOL    HW1 5465  11.597   1.804  12.951
67856SOL    HW2 5466  11.746   1.823  12.935
67857SOL     OW 5467   5.634  10.598   1.800
67857SOL    HW1 5468   5.701  10.642   1.748
67857SOL    HW2 5469   5.599  10.666   1.857
67858SOL     OW 5470   0.361   0.279  13.681
67858SOL    HW1 5471   0.331   0.259  13.770
67858SOL    HW2 5472   0.386   0.372  13.685
67859SOL     OW 5473   2.307   2.354   0.996
67859SOL    HW1 5474   2.243   2.318   0.934
67859SOL    HW2 5475   2.370   2.283   1.009
67860SOL     OW 5476  13.188   0.301   9.637
67860SOL    HW1 5477  13.101   0.291   9.677
67860SOL    HW2 5478  13.208   0.214   9.601
67861SOL     OW 5479   3.190   7.885  12.287
67861SOL    HW1 5480   3.213   7.797  12.316
67861SOL    HW2 5481   3.128   7.917  12.352
67862SOL     OW 5482   9.295   8.400   0.965
67862SOL    HW1 5483   9.208   8.416   0.928
67862SOL    HW2 5484   9.286   8.316   1.011
67863SOL     OW 5485  13.372   9.779  12.831
67863SOL    HW1 5486  13.446   9.723  12.852
67863SOL    HW2 5487  13.383   9.856  12.887
67864SOL     OW 5488   9.212   8.729   4.528
67864SOL    HW1 5489   9.165   8.705   4.607
67864SOL    HW2 5490   9.299   8.754   4.559
67865SOL     OW 5491   1.578   8.111   7.173
67865SOL    HW1 5492   1.614   8.082   7.088
67865SOL    HW2 5493   1.587   8.034   7.229
67866SOL     OW 5494   5.206   9.784  10.484
67866SOL    HW1 5495   5.239   9.870  10.458
67866SOL    HW2 5496   5.212   9.784  10.579
67867SOL     OW 5497  13.595   3.544  12.303
67867SOL    HW1 5498  13.607   3.633  12.270
67867SOL    HW2 5499  13.604   3.551  12.398
67868SOL     OW 5500   1.702   8.302  14.842
67868SOL    HW1 5501   1.791   8.338  14.832
67868SOL    HW2 5502   1.715   8.219   0.004
67869SOL     OW 5503   9.928   8.911  10.082
67869SOL    HW1 5504   9.879   8.985  10.118
67869SOL    HW2 5505   9.900   8.836  10.135
67870SOL     OW 5506   9.335  14.792  12.493
67870SOL    HW1 5507   9.243  14.820  12.495
67870SOL    HW2 5508   9.347  14.755  12.406
67871SOL     OW 5509   1.326  13.665   0.507
67871SOL    HW1 5510   1.251  13.689   0.453
67871SOL    HW2 5511   1.398  13.652   0.445
67872SOL     OW 5512  12.962   7.243   0.001
67872SOL    HW1 5513  13.045   7.219  14.840
67872SOL    HW2 5514  12.900   7.175  14.855
67873SOL     OW 5515  13.013   3.745   2.587
67873SOL    HW1 5516  13.000   3.782   2.674
67873SOL    HW2 5517  13.104   3.764   2.566
67874SOL     OW 5518   6.501   3.222   3.884
67874SOL    HW1 5519   6.525   3.278   3.958
67874SOL    HW2 5520   6.583   3.207   3.837
67875SOL     OW 5521   4.662   1.959   8.422
67875SOL    HW1 5522   4.745   1.914   8.439
67875SOL    HW2 5523   4.612   1.897   8.370
67876SOL     OW 5524  13.658  12.456   4.167
67876SOL    HW1 5525  13.676  12.547   4.146
67876SOL    HW2 5526  13.576  12.436   4.121
67877SOL     OW 5527   6.709   2.663   9.505
67877SOL    HW1 5528   6.719   2.742   9.451
67877SOL    HW2 5529   6.624   2.674   9.548
67878SOL     OW 5530  12.557   2.664   1.565
67878SOL    HW1 5531  12.587   2.719   1.493
67878SOL    HW2 5532  12.501   2.721   1.617
67879SOL     OW 5533   1.910  12.776   4.531
67879SOL    HW1 5534   1.905  12.694   4.483
67879SOL    HW2 5535   1.887  12.843   4.467
67880SOL     OW 5536   7.891   8.210   1.744
67880SOL    HW1 5537   7.944   8.143   1.700
67880SOL    HW2 5538   7.955   8.275   1.773
67881SOL     OW 5539   0.503  11.077  10.240
67881SOL    HW1 5540   0.425  11.129  10.259
67881SOL    HW2 5541   0.515  11.087  10.145
67882SOL     OW 5542   6.984   5.663  14.675
67882SOL    HW1 5543   7.035   5.723  14.729
67882SOL    HW2 5544   6.963   5.590  14.734
67883SOL     OW 5545  12.018   7.533   1.724
67883SOL    HW1 5546  12.017   7.627   1.706
67883SOL    HW2 5547  11.940   7.499   1.681
67884SOL     OW 5548   4.539  13.391   7.351
67884SOL    HW1 5549   4.632  13.391   7.373
67884SOL    HW2 5550   4.504  13.468   7.397
67885SOL     OW 5551   9.884   9.548   3.240
67885SOL    HW1 5552   9.962   9.509   3.280
67885SOL    HW2 5553   9.897   9.642   3.247
67886SOL     OW 5554   4.691   9.227   3.230
67886SOL    HW1 5555   4.661   9.291   3.166
67886SOL    HW2 5556   4.613   9.175   3.250
67887SOL     OW 5557   4.211  11.045   7.920
67887SOL    HW1 5558   4.231  11.080   8.007
67887SOL    HW2 5559   4.199  11.122   7.865
67888SOL     OW 5560   9.875   2.544  11.590
67888SOL    HW1 5561   9.886   2.521  11.498
67888SOL    HW2 5562   9.952   2.596  11.611
67889SOL     OW 5563   1.662  10.871  11.605
67889SOL    HW1 5564   1.649  10.777  11.591
67889SOL    HW2 5565   1.693  10.878  11.695
67890SOL     OW 5566  14.655   7.916  10.904
67890SOL    HW1 5567  14.585   7.977  10.883
67890SOL    HW2 5568  14.624   7.870  10.983
67891SOL     OW 5569  11.650   5.329   9.023
67891SOL    HW1 5570  11.700   5.320   9.104
67891SOL    HW2 5571  11.558   5.321   9.050
67892SOL     OW 5572   1.660  11.720  12.778
67892SOL    HW1 5573   1.647  11.810  12.750
67892SOL    HW2 5574   1.597  11.707  12.849
67893SOL     OW 5575   8.164   3.603  10.960
67893SOL    HW1 5576   8.099   3.536  10.941
67893SOL    HW2 5577   8.225   3.562  11.021
67894SOL     OW 5578   2.122   1.285  11.343
67894SOL    HW1 5579   2.153   1.221  11.279
67894SOL    HW2 5580   2.150   1.369  11.307
67895SOL     OW 5581  10.803   7.736   1.628
67895SOL    HW1 5582  10.857   7.812   1.609
67895SOL    HW2 5583  10.861   7.678   1.678
67896SOL     OW 5584   8.336   1.955   0.952
67896SOL    HW1 5585   8.279   1.880   0.968
67896SOL    HW2 5586   8.345   1.997   1.037
67897SOL     OW 5587  10.365  13.699   9.150
67897SOL    HW1 5588  10.426  13.773   9.157
67897SOL    HW2 5589  10.419  13.626   9.121
67898SOL     OW 5590  12.962  12.900   6.442
67898SOL    HW1 5591  13.025  12.835   6.473
67898SOL    HW2 5592  12.882  12.881   6.490
67899SOL     OW 5593   2.926   8.767   8.601
67899SOL    HW1 5594   3.016   8.749   8.627
67899SOL    HW2 5595   2.876   8.690   8.632
67900SOL     OW 5596   2.466   8.535   5.320
67900SOL    HW1 5597   2.536   8.524   5.256
67900SOL    HW2 5598   2.388   8.551   5.268
67901SOL     OW 5599   6.960   4.528   5.642
67901SOL    HW1 5600   7.005   4.444   5.640
67901SOL    HW2 5601   7.014   4.583   5.700
67902SOL     OW 5602   0.635  13.134   8.428
67902SOL    HW1 5603   0.681  13.114   8.510
67902SOL    HW2 5604   0.555  13.082   8.432
67903SOL     OW 5605  11.899   6.203  14.665
67903SOL    HW1 5606  11.839   6.190  14.739
67903SOL    HW2 5607  11.938   6.289  14.681
67904SOL     OW 5608   9.427  10.694  10.892
67904SOL    HW1 5609   9.407  10.761  10.958
67904SOL    HW2 5610   9.435  10.613  10.943
67905SOL     OW 5611   7.364   9.106   3.972
67905SOL    HW1 5612   7.309   9.058   3.911
67905SOL    HW2 5613   7.354   9.059   4.055
67906SOL     OW 5614   2.885   4.297   3.416
67906SOL    HW1 5615   2.841   4.279   3.333
67906SOL    HW2 5616   2.816   4.285   3.482
67907SOL     OW 5617   4.909   3.251  14.509
67907SOL    HW1 5618   4.883   3.293  14.591
67907SOL    HW2 5619   4.861   3.299  14.442
67908SOL     OW 5620   9.784   7.341   6.671
67908SOL    HW1 5621   9.818   7.382   6.751
67908SOL    HW2 5622   9.788   7.410   6.605
67909SOL     OW 5623   0.311  10.287   8.208
67909SOL    HW1 5624   0.254  10.228   8.159
67909SOL    HW2 5625   0.383  10.307   8.149
67910SOL     OW 5626  11.663   5.804   4.179
67910SOL    HW1 5627  11.675   5.792   4.273
67910SOL    HW2 5628  11.719   5.879   4.158
67911SOL     OW 5629   4.349   8.595   0.299
67911SOL    HW1 5630   4.317   8.676   0.339
67911SOL    HW2 5631   4.307   8.526   0.349
67912SOL     OW 5632   1.689   3.610   9.022
67912SOL    HW1 5633   1.749   3.571   8.958
67912SOL    HW2 5634   1.639   3.536   9.057
67913SOL     OW 5635   3.667   2.262   5.219
67913SOL    HW1 5636   3.615   2.199   5.169
67913SOL    HW2 5637   3.728   2.300   5.155
67914SOL     OW 5638   8.165   4.555   4.180
67914SOL    HW1 5639   8.148   4.548   4.086
67914SOL    HW2 5640   8.132   4.642   4.203
67915SOL     OW 5641   9.384  13.235   7.766
67915SOL    HW1 5642   9.312  13.295   7.784
67915SOL    HW2 5643   9.432  13.276   7.694
67916SOL     OW 5644  11.096   7.763   5.615
67916SOL    HW1 5645  11.173   7.713   5.588
67916SOL    HW2 5646  11.076   7.732   5.703
67917SOL     OW 5647  12.117  13.031  13.677
67917SOL    HW1 5648  12.187  12.998  13.620
67917SOL    HW2 5649  12.037  12.998  13.638
67918SOL     OW 5650   6.748  13.028   9.317
67918SOL    HW1 5651   6.797  13.002   9.395
67918SOL    HW2 5652   6.732  13.122   9.330
67919SOL     OW 5653  10.363  10.327  12.089
67919SOL    HW1 5654  10.357  10.236  12.060
67919SOL    HW2 5655  10.272  10.358  12.092
67920SOL     OW 5656   0.859   2.962   2.384
67920SOL    HW1 5657   0.875   2.871   2.358
67920SOL    HW2 5658   0.786   2.957   2.445
67921SOL     OW 5659  14.623  14.009   0.903
67921SOL    HW1 5660  14.537  13.975   0.931
67921SOL    HW2 5661  14.644  13.960   0.824
67922SOL     OW 5662   2.595   7.054   3.897
67922SOL    HW1 5663   2.603   6.994   3.971
67922SOL    HW2 5664   2.582   6.998   3.821
67923SOL     OW 5665   2.087  10.709   5.083
67923SOL    HW1 5666   2.118  10.678   5.168
67923SOL    HW2 5667   1.993  10.725   5.096
67924SOL     OW 5668   5.510   7.587   8.727
67924SOL    HW1 5669   5.435   7.543   8.687
67924SOL    HW2 5670   5.585   7.531   8.705
67925SOL     OW 5671   4.425   5.480   7.725
67925SOL    HW1 5672   4.458   5.570   7.719
67925SOL    HW2 5673   4.431   5.447   7.635
67926SOL     OW 5674  10.224   7.022  10.131
67926SOL    HW1 5675  10.255   7.107  10.101
67926SOL    HW2 5676  10.226   6.966  10.054
67927SOL     OW 5677   3.277  10.841   3.220
67927SOL    HW1 5678   3.304  10.899   3.149
67927SOL    HW2 5679   3.195  10.878   3.252
67928SOL     OW 5680   0.436  14.144   0.485
67928SOL    HW1 5681   0.524  14.108   0.473
67928SOL    HW2 5682   0.427  14.153   0.580
67929SOL     OW 5683   9.315   1.157   1.070
67929SOL    HW1 5684   9.231   1.111   1.062
67929SOL    HW2 5685   9.291   1.249   1.083
67930SOL     OW 5686   1.645   5.827   2.536
67930SOL    HW1 5687   1.558   5.866   2.541
67930SOL    HW2 5688   1.654   5.777   2.617
67931SOL     OW 5689  14.140   8.190   2.755
67931SOL    HW1 5690  14.198   8.261   2.782
67931SOL    HW2 5691  14.052   8.228   2.761
67932SOL     OW 5692  10.602   9.673  14.013
67932SOL    HW1 5693  10.601   9.617  13.936
67932SOL    HW2 5694  10.579   9.614  14.086
67933SOL     OW 5695  10.595   8.919   8.793
67933SOL    HW1 5696  10.661   8.944   8.729
67933SOL    HW2 5697  10.529   8.988   8.787
67934SOL     OW 5698   2.535  10.004  10.236
67934SOL    HW1 5699   2.581   9.975  10.157
67934SOL    HW2 5700   2.452  10.040  10.204
67935SOL     OW 5701   8.856  11.875  10.074
67935SOL    HW1 5702   8.911  11.797  10.082
67935SOL    HW2 5703   8.899  11.929  10.007
67936SOL     OW 5704  13.590  14.152   2.700
67936SOL    HW1 5705  13.603  14.116   2.788
67936SOL    HW2 5706  13.657  14.220   2.691
67937SOL     OW 5707   5.238   5.624  13.393
67937SOL    HW1 5708   5.200   5.712  13.393
67937SOL    HW2 5709   5.187   5.576  13.329
67938SOL     OW 5710   6.589  11.015  12.232
67938SOL    HW1 5711   6.531  11.009  12.309
67938SOL    HW2 5712   6.672  10.980  12.262
67939SOL     OW 5713   0.558   7.709  10.231
67939SOL    HW1 5714   0.545   7.804  10.240
67939SOL    HW2 5715   0.561   7.695  10.137
67940SOL     OW 5716   5.877   2.639  11.630
67940SOL    HW1 5717   5.864   2.600  11.717
67940SOL    HW2 5718   5.788   2.646  11.594
67941SOL     OW 5719   6.203   7.444   3.441
67941SOL    HW1 5720   6.192   7.370   3.501
67941SOL    HW2 5721   6.114   7.472   3.421
67942SOL     OW 5722   7.597   4.968   0.179
67942SOL    HW1 5723   7.585   5.034   0.248
67942SOL    HW2 5724   7.652   5.011   0.114
67943SOL     OW 5725   5.426   7.557   2.766
67943SOL    HW1 5726   5.415   7.524   2.855
67943SOL    HW2 5727   5.457   7.647   2.778
67944SOL     OW 5728   7.136   8.487   1.408
67944SOL    HW1 5729   7.195   8.412   1.401
67944SOL    HW2 5730   7.053   8.450   1.437
67945SOL     OW 5731   3.795  11.162   6.316
67945SOL    HW1 5732   3.811  11.083   6.367
67945SOL    HW2 5733   3.699  11.170   6.314
67946SOL     OW 5734  11.383   2.176   3.536
67946SOL    HW1 5735  11.364   2.209   3.623
67946SOL    HW2 5736  11.369   2.251   3.478
67947SOL     OW 5737  12.897  10.582  12.020
67947SOL    HW1 5738  12.976  10.625  12.054
67947SOL    HW2 5739  12.916  10.488  12.026
67948SOL     OW 5740  13.604   8.107  11.965
67948SOL    HW1 5741  13.522   8.126  11.919
67948SOL    HW2 5742  13.650   8.191  11.967
67949SOL     OW 5743   6.088  13.103  12.676
67949SOL    HW1 5744   6.082  13.114  12.581
67949SOL    HW2 5745   6.111  13.190  12.708
67950SOL     OW 5746   8.100  12.388   9.843
67950SOL    HW1 5747   8.056  12.473   9.844
67950SOL    HW2 5748   8.032  12.326   9.816
67951SOL     OW 5749   5.565   0.745  10.734
67951SOL    HW1 5750   5.573   0.725  10.641
67951SOL    HW2 5751   5.655   0.764  10.762
67952SOL     OW 5752   9.570   8.838   0.032
67952SOL    HW1 5753   9.556   8.807  14.825
67952SOL    HW2 5754   9.549   8.763   0.088
67953SOL     OW 5755   4.201   7.347   0.976
67953SOL    HW1 5756   4.291   7.379   0.984
67953SOL    HW2 5757   4.204   7.261   1.018
67954SOL     OW 5758  13.203  13.328   0.940
67954SOL    HW1 5759  13.153  13.297   0.865
67954SOL    HW2 5760  13.179  13.268   1.011
67955SOL     OW 5761   6.244   5.271   8.560
67955SOL    HW1 5762   6.203   5.192   8.525
67955SOL    HW2 5763   6.171   5.324   8.593
67956SOL     OW 5764   8.558   1.266   9.580
67956SOL    HW1 5765   8.484   1.316   9.612
67956SOL    HW2 5766   8.521   1.181   9.555
67957SOL     OW 5767   4.602   1.225   3.682
67957SOL    HW1 5768   4.623   1.208   3.774
67957SOL    HW2 5769   4.688   1.233   3.640
67958SOL     OW 5770   0.013   3.936   5.573
67958SOL    HW1 5771  14.881   3.868   5.506
67958SOL    HW2 5772   0.101   3.918   5.606
67959SOL     OW 5773   1.160   0.243   2.944
67959SOL    HW1 5774   1.220   0.210   2.877
67959SOL    HW2 5775   1.211   0.307   2.992
67960SOL     OW 5776   4.851   1.643   8.525
67960SOL    HW1 5777   4.840   1.714   8.462
67960SOL    HW2 5778   4.927   1.594   8.493
67961SOL     OW 5779   9.260   1.323   7.405
67961SOL    HW1 5780   9.347   1.357   7.386
67961SOL    HW2 5781   9.200   1.388   7.369
67962SOL     OW 5782   7.183  10.656   6.379
67962SOL    HW1 5783   7.202  10.613   6.296
67962SOL    HW2 5784   7.150  10.742   6.354
67963SOL     OW 5785  14.110   2.926  12.404
67963SOL    HW1 5786  14.030   2.978  12.397
67963SOL    HW2 5787  14.181   2.989  12.398
67964SOL     OW 5788   1.684   4.958   0.249
67964SOL    HW1 5789   1.754   5.023   0.259
67964SOL    HW2 5790   1.654   4.968   0.159
67965SOL     OW 5791   4.647  14.640   9.252
67965SOL    HW1 5792   4.687  14.604   9.331
67965SOL    HW2 5793   4.692  14.723   9.237
67966SOL     OW 5794   7.403  10.202   0.361
67966SOL    HW1 5795   7.325  10.212   0.306
67966SOL    HW2 5796   7.370  10.158   0.440
67967SOL     OW 5797   4.956   6.739  13.376
67967SOL    HW1 5798   5.017   6.757  13.447
67967SOL    HW2 5799   5.002   6.676  13.320
67968SOL     OW 5800   2.999  11.104   6.770
67968SOL    HW1 5801   3.016  11.164   6.697
67968SOL    HW2 5802   2.915  11.063   6.748
67969SOL     OW 5803   9.988   7.809   9.056
67969SOL    HW1 5804   9.965   7.882   8.998
67969SOL    HW2 5805   9.968   7.841   9.144
67970SOL     OW 5806   2.225   0.247  13.931
67970SOL    HW1 5807   2.188   0.330  13.901
67970SOL    HW2 5808   2.177   0.227  14.012
67971SOL     OW 5809   0.491   6.248  13.889
67971SOL    HW1 5810   0.491   6.335  13.929
67971SOL    HW2 5811   0.515   6.189  13.961
67972SOL     OW 5812   5.613   3.354   7.234
67972SOL    HW1 5813   5.615   3.262   7.260
67972SOL    HW2 5814   5.582   3.353   7.144
67973SOL     OW 5815   6.768   0.396   4.947
67973SOL    HW1 5816   6.788   0.462   4.880
67973SOL    HW2 5817   6.847   0.343   4.952
67974SOL     OW 5818  10.738  11.340   8.754
67974SOL    HW1 5819  10.688  11.331   8.836
67974SOL    HW2 5820  10.739  11.434   8.738
67975SOL     OW 5821   1.262   4.518   3.937
67975SOL    HW1 5822   1.294   4.445   3.885
67975SOL    HW2 5823   1.292   4.500   4.026
67976SOL     OW 5824   2.260  11.308   4.610
67976SOL    HW1 5825   2.331  11.253   4.577
67976SOL    HW2 5826   2.181  11.273   4.567
67977SOL     OW 5827   0.716   6.740   0.077
67977SOL    HW1 5828   0.654   6.677   0.039
67977SOL    HW2 5829   0.670   6.775   0.154
67978SOL     OW 5830   3.454   5.066   1.298
67978SOL    HW1 5831   3.546   5.044   1.315
67978SOL    HW2 5832   3.404   5.005   1.353
67979SOL     OW 5833   2.403   6.992   9.434
67979SOL    HW1 5834   2.358   7.036   9.507
67979SOL    HW2 5835   2.418   6.903   9.466
67980SOL     OW 5836   6.166   6.981  13.947
67980SOL    HW1 5837   6.174   6.896  13.904
67980SOL    HW2 5838   6.247   6.991  13.997
67981SOL     OW 5839   5.684  12.559   3.126
67981SOL    HW1 5840   5.634  12.478   3.134
67981SOL    HW2 5841   5.630  12.615   3.070
67982SOL     OW 5842   9.001  12.094  13.653
67982SOL    HW1 5843   9.093  12.119  13.645
67982SOL    HW2 5844   8.976  12.065  13.565
67983SOL     OW 5845  13.191  11.478   9.140
67983SOL    HW1 5846  13.157  11.440   9.221
67983SOL    HW2 5847  13.153  11.424   9.070
67984SOL     OW 5848   8.060   6.351   2.649
67984SOL    HW1 5849   8.066   6.428   2.706
67984SOL    HW2 5850   7.973   6.315   2.665
67985SOL     OW 5851   1.098  10.423   4.102
67985SOL    HW1 5852   1.093  10.328   4.112
67985SOL    HW2 5853   1.178  10.448   4.148
67986SOL     OW 5854   2.012   6.581   2.779
67986SOL    HW1 5855   2.034   6.509   2.720
67986SOL    HW2 5856   1.937   6.624   2.738
67987SOL     OW 5857   0.481   3.566  12.660
67987SOL    HW1 5858   0.393   3.547  12.691
67987SOL    HW2 5859   0.537   3.551  12.735
67988SOL     OW 5860  12.155  11.405   4.454
67988SOL    HW1 5861  12.142  11.404   4.359
67988SOL    HW2 5862  12.103  11.479   4.485
67989SOL     OW 5863   2.506   8.296  12.235
67989SOL    HW1 5864   2.537   8.237  12.305
67989SOL    HW2 5865   2.452   8.240  12.180
67990SOL     OW 5866   2.690   1.185   8.455
67990SOL    HW1 5867   2.677   1.140   8.538
67990SOL    HW2 5868   2.702   1.277   8.478
67991SOL     OW 5869   1.712   5.366   0.246
67991SOL    HW1 5870   1.702   5.440   0.185
67991SOL    HW2 5871   1.643   5.379   0.311
67992SOL     OW 5872   2.934   7.975   1.538
67992SOL    HW1 5873   3.013   7.935   1.503
67992SOL    HW2 5874   2.966   8.051   1.588
67993SOL     OW 5875  13.920  14.049  13.790
67993SOL    HW1 5876  13.853  14.112  13.765
67993SOL    HW2 5877  14.003  14.094  13.775
67994SOL     OW 5878  11.346  11.328  10.133
67994SOL    HW1 5879  11.325  11.235  10.129
67994SOL    HW2 5880  11.336  11.359  10.043
67995SOL     OW 5881   5.615   1.801  10.354
67995SOL    HW1 5882   5.580   1.772  10.270
67995SOL    HW2 5883   5.559   1.875  10.379
67996SOL     OW 5884   4.479   5.861   3.185
67996SOL    HW1 5885   4.427   5.788   3.153
67996SOL    HW2 5886   4.567   5.845   3.152
67997SOL     OW 5887  14.380   2.460  12.796
67997SOL    HW1 5888  14.349   2.413  12.874
67997SOL    HW2 5889  14.468   2.424  12.782
67998SOL     OW 5890   9.523  12.559   2.935
67998SOL    HW1 5891   9.578  12.630   2.968
67998SOL    HW2 5892   9.568  12.479   2.962
67999SOL     OW 5893   6.460   2.555  11.781
67999SOL    HW1 5894   6.378   2.597  11.755
67999SOL    HW2 5895   6.447   2.531  11.873
68000SOL     OW 5896  14.752  14.527  14.172
68000SOL    HW1 5897  14.700  14.603  14.147
68000SOL    HW2 5898  14.689  14.455  14.177
68001SOL     OW 5899   3.709  11.389   6.972
68001SOL    HW1 5900   3.645  11.391   6.902
68001SOL    HW2 5901   3.791  11.416   6.930
68002SOL     OW 5902   9.098   8.208   1.233
68002SOL    HW1 5903   9.160   8.191   1.162
68002SOL    HW2 5904   9.059   8.293   1.211
68003SOL     OW 5905   9.346   2.263  14.125
68003SOL    HW1 5906   9.431   2.283  14.166
68003SOL    HW2 5907   9.340   2.168  14.128
68004SOL     OW 5908   7.802  12.059   2.113
68004SOL    HW1 5909   7.797  12.000   2.038
68004SOL    HW2 5910   7.717  12.104   2.114
68005SOL     OW 5911  10.616   8.668   2.879
68005SOL    HW1 5912  10.610   8.594   2.939
68005SOL    HW2 5913  10.698   8.654   2.831
68006SOL     OW 5914  12.092   9.381  10.025
68006SOL    HW1 5915  12.019   9.322  10.011
68006SOL    HW2 5916  12.082   9.411  10.115
68007SOL     OW 5917   1.711  14.781   9.611
68007SOL    HW1 5918   1.797  14.770   9.571
68007SOL    HW2 5919   1.665  14.842   9.554
68008SOL     OW 5920   8.479   0.195   8.719
68008SOL    HW1 5921   8.515   0.186   8.807
68008SOL    HW2 5922   8.491   0.109   8.679
68009SOL     OW 5923   1.895   5.066   9.582
68009SOL    HW1 5924   1.984   5.073   9.614
68009SOL    HW2 5925   1.856   4.994   9.632
68010SOL     OW 5926   2.531   0.418   9.511
68010SOL    HW1 5927   2.610   0.410   9.565
68010SOL    HW2 5928   2.564   0.450   9.427
68011SOL     OW 5929   3.885   8.870  13.352
68011SOL    HW1 5930   3.889   8.963  13.328
68011SOL    HW2 5931   3.966   8.833  13.317
68012SOL     OW 5932  13.088   9.973   2.156
68012SOL    HW1 5933  13.165  10.018   2.191
68012SOL    HW2 5934  13.122   9.889   2.124
68013SOL     OW 5935  10.602   3.812   4.613
68013SOL    HW1 5936  10.596   3.810   4.517
68013SOL    HW2 5937  10.692   3.838   4.631
68014SOL     OW 5938   9.669  12.653  12.521
68014SOL    HW1 5939   9.646  12.585  12.583
68014SOL    HW2 5940   9.764  12.661  12.529
68015SOL     OW 5941   5.116   2.276  10.723
68015SOL    HW1 5942   5.152   2.204  10.672
68015SOL    HW2 5943   5.062   2.325  10.662
68016SOL     OW 5944   4.896  11.976  10.638
68016SOL    HW1 5945   4.823  12.019  10.594
68016SOL    HW2 5946   4.890  12.005  10.729
68017SOL     OW 5947   7.336  13.380   5.739
68017SOL    HW1 5948   7.311  13.472   5.741
68017SOL    HW2 5949   7.279  13.338   5.803
68018SOL     OW 5950  14.432   7.085   8.237
68018SOL    HW1 5951  14.395   7.069   8.324
68018SOL    HW2 5952  14.465   7.175   8.241
68019SOL     OW 5953   1.625   6.042  12.029
68019SOL    HW1 5954   1.717   6.013  12.024
68019SOL    HW2 5955   1.581   5.991  11.961
68020SOL     OW 5956  11.266   2.531   1.671
68020SOL    HW1 5957  11.267   2.436   1.668
68020SOL    HW2 5958  11.195   2.553   1.731
68021SOL     OW 5959   0.137   9.489   1.492
68021SOL    HW1 5960   0.047   9.459   1.484
68021SOL    HW2 5961   0.136   9.549   1.565
68022SOL     OW 5962  12.224  12.087   4.572
68022SOL    HW1 5963  12.302  12.131   4.538
68022SOL    HW2 5964  12.172  12.156   4.611
68023SOL     OW 5965   6.397  12.781  10.099
68023SOL    HW1 5966   6.451  12.702  10.101
68023SOL    HW2 5967   6.357  12.780  10.011
68024SOL     OW 5968   1.047   3.596  12.408
68024SOL    HW1 5969   0.982   3.629  12.470
68024SOL    HW2 5970   1.085   3.674  12.368
68025SOL     OW 5971   8.873   3.706  13.265
68025SOL    HW1 5972   8.851   3.621  13.302
68025SOL    HW2 5973   8.887   3.762  13.341
68026SOL     OW 5974   2.266   3.388   7.795
68026SOL    HW1 5975   2.305   3.419   7.877
68026SOL    HW2 5976   2.262   3.465   7.739
68027SOL     OW 5977   7.440   3.985   4.820
68027SOL    HW1 5978   7.387   3.947   4.750
68027SOL    HW2 5979   7.430   4.080   4.809
68028SOL     OW 5980   8.654   4.000   1.151
68028SOL    HW1 5981   8.729   4.025   1.097
68028SOL    HW2 5982   8.579   4.039   1.107
68029SOL     OW 5983   0.610   7.291   0.357
68029SOL    HW1 5984   0.560   7.367   0.330
68029SOL    HW2 5985   0.692   7.298   0.309
68030SOL     OW 5986  13.054  11.508   1.056
68030SOL    HW1 5987  13.046  11.446   0.984
68030SOL    HW2 5988  12.966  11.544   1.067
68031SOL     OW 5989   9.442   8.198  10.652
68031SOL    HW1 5990   9.424   8.115  10.609
68031SOL    HW2 5991   9.356   8.230  10.679
68032SOL     OW 5992  14.695  12.672   1.203
68032SOL    HW1 5993  14.678  12.756   1.161
68032SOL    HW2 5994  14.649  12.608   1.149
68033SOL     OW 5995   5.730   0.206   4.554
68033SOL    HW1 5996   5.644   0.169   4.574
68033SOL    HW2 5997   5.732   0.289   4.602
68034SOL     OW 5998   0.694   4.639   5.899
68034SOL    HW1 5999   0.606   4.638   5.862
68034SOL    HW2 6000   0.715   4.546   5.914
68035SOL     OW 6001  11.165   2.933  13.685
68035SOL    HW1 6002  11.239   2.905  13.632
68035SOL    HW2 6003  11.186   3.022  13.712
68036SOL     OW 6004   9.619   2.689   3.563
68036SOL    HW1 6005   9.680   2.738   3.508
68036SOL    HW2 6006   9.535   2.695   3.517
68037SOL     OW 6007   5.937  11.218   4.215
68037SOL    HW1 6008   6.017  11.229   4.164
68037SOL    HW2 6009   5.933  11.297   4.269
68038SOL     OW 6010   8.253   5.228   4.345
68038SOL    HW1 6011   8.243   5.257   4.255
68038SOL    HW2 6012   8.310   5.152   4.340
68039SOL     OW 6013   4.438   6.159   1.334
68039SOL    HW1 6014   4.343   6.167   1.323
68039SOL    HW2 6015   4.474   6.231   1.282
68040SOL     OW 6016   7.448   4.312   9.159
68040SOL    HW1 6017   7.528   4.261   9.168
68040SOL    HW2 6018   7.477   4.403   9.162
68041SOL     OW 6019   6.659   7.891   1.303
68041SOL    HW1 6020   6.599   7.843   1.360
68041SOL    HW2 6021   6.645   7.853   1.216
68042SOL     OW 6022   8.912   1.471   4.350
68042SOL    HW1 6023   8.856   1.394   4.345
68042SOL    HW2 6024   8.956   1.463   4.434
68043SOL     OW 6025  12.903   9.006  13.241
68043SOL    HW1 6026  12.882   9.094  13.208
68043SOL    HW2 6027  12.885   9.010  13.335
68044SOL     OW 6028   3.146  10.810   0.221
68044SOL    HW1 6029   3.058  10.775   0.210
68044SOL    HW2 6030   3.197  10.769   0.152
68045SOL     OW 6031  13.423   6.659   0.733
68045SOL    HW1 6032  13.502   6.705   0.761
68045SOL    HW2 6033  13.408   6.593   0.801
68046SOL     OW 6034  13.596   3.046   1.491
68046SOL    HW1 6035  13.615   2.953   1.484
68046SOL    HW2 6036  13.512   3.057   1.448
68047SOL     OW 6037   6.510   3.880   2.466
68047SOL    HW1 6038   6.518   3.970   2.433
68047SOL    HW2 6039   6.417   3.868   2.481
68048SOL     OW 6040   0.538   2.241  11.951
68048SOL    HW1 6041   0.579   2.169  11.999
68048SOL    HW2 6042   0.598   2.258  11.878
68049SOL     OW 6043   3.523   8.468   7.294
68049SOL    HW1 6044   3.558   8.384   7.265
68049SOL    HW2 6045   3.512   8.459   7.389
68050SOL     OW 6046   0.518  13.344   4.023
68050SOL    HW1 6047   0.485  13.279   4.085
68050SOL    HW2 6048   0.612  13.350   4.042
68051SOL     OW 6049   6.107   6.142   3.488
68051SOL    HW1 6050   6.123   6.178   3.401
68051SOL    HW2 6051   6.035   6.081   3.475
68052SOL     OW 6052  10.622   6.278   4.496
68052SOL    HW1 6053  10.576   6.342   4.442
68052SOL    HW2 6054  10.631   6.319   4.582
68053SOL     OW 6055   8.348   4.156  12.519
68053SOL    HW1 6056   8.371   4.080  12.465
68053SOL    HW2 6057   8.413   4.223  12.495
68054SOL     OW 6058  12.612  14.117   5.481
68054SOL    HW1 6059  12.591  14.130   5.388
68054SOL    HW2 6060  12.572  14.033   5.503
68055SOL     OW 6061  10.708   1.732  12.444
68055SOL    HW1 6062  10.666   1.664  12.392
68055SOL    HW2 6063  10.650   1.743  12.520
68056SOL     OW 6064   2.960   7.093   6.813
68056SOL    HW1 6065   2.970   7.008   6.855
68056SOL    HW2 6066   3.048   7.113   6.779
68057SOL     OW 6067   7.946   0.472   4.539
68057SOL    HW1 6068   8.028   0.496   4.583
68057SOL    HW2 6069   7.975   0.425   4.460
68058SOL     OW 6070  12.614  11.274  13.856
68058SOL    HW1 6071  12.685  11.305  13.799
68058SOL    HW2 6072  12.608  11.339  13.925
68059SOL     OW 6073  11.962   6.438   8.732
68059SOL    HW1 6074  12.002   6.504   8.790
68059SOL    HW2 6075  11.957   6.359   8.786
68060SOL     OW 6076   6.452  12.578   3.860
68060SOL    HW1 6077   6.519  12.646   3.852
68060SOL    HW2 6078   6.501  12.496   3.848
68061SOL     OW 6079   7.648   2.409   2.556
68061SOL    HW1 6080   7.617   2.393   2.467
68061SOL    HW2 6081   7.743   2.399   2.551
68062SOL     OW 6082   7.213   2.073   2.770
68062SOL    HW1 6083   7.244   2.158   2.801
68062SOL    HW2 6084   7.199   2.084   2.676
68063SOL     OW 6085  11.938   0.725   7.464
68063SOL    HW1 6086  12.016   0.682   7.498
68063SOL    HW2 6087  11.972   0.803   7.418
68064SOL     OW 6088   1.776   1.814  10.637
68064SOL    HW1 6089   1.836   1.887  10.623
68064SOL    HW2 6090   1.753   1.819  10.729
68065SOL     OW 6091  11.614  14.083   1.987
68065SOL    HW1 6092  11.569  14.143   2.048
68065SOL    HW2 6093  11.660  14.141   1.927
68066SOL     OW 6094  11.065  14.420  12.584
68066SOL    HW1 6095  11.158  14.442  12.581
68066SOL    HW2 6096  11.057  14.341  12.530
68067SOL     OW 6097   0.182   6.297   8.034
68067SOL    HW1 6098   0.109   6.296   7.971
68067SOL    HW2 6099   0.163   6.225   8.093
68068SOL     OW 6100   9.668   8.699   9.996
68068SOL    HW1 6101   9.724   8.677  10.071
68068SOL    HW2 6102   9.690   8.633   9.930
68069SOL     OW 6103   0.733  11.154  11.520
68069SOL    HW1 6104   0.679  11.088  11.478
68069SOL    HW2 6105   0.742  11.223  11.455
68070SOL     OW 6106   6.941   7.985  12.193
68070SOL    HW1 6107   6.966   7.893  12.203
68070SOL    HW2 6108   7.018   8.035  12.218
68071SOL     OW 6109   0.720   2.567  12.330
68071SOL    HW1 6110   0.669   2.526  12.260
68071SOL    HW2 6111   0.657   2.579  12.402
68072SOL     OW 6112   3.472   6.272   6.204
68072SOL    HW1 6113   3.405   6.340   6.195
68072SOL    HW2 6114   3.475   6.230   6.119
68073SOL     OW 6115   3.263   1.224   4.272
68073SOL    HW1 6116   3.326   1.277   4.223
68073SOL    HW2 6117   3.296   1.224   4.362
68074SOL     OW 6118  13.954   0.845  13.198
68074SOL    HW1 6119  13.906   0.855  13.280
68074SOL    HW2 6120  14.007   0.766  13.211
68075SOL     OW 6121   6.203  12.197  10.129
68075SOL    HW1 6122   6.107  12.194  10.120
68075SOL    HW2 6123   6.232  12.113  10.095
68076SOL     OW 6124  13.129   7.841  12.885
68076SOL    HW1 6125  13.081   7.796  12.815
68076SOL    HW2 6126  13.175   7.770  12.931
68077SOL     OW 6127   3.873   4.204  11.029
68077SOL    HW1 6128   3.946   4.256  10.995
68077SOL    HW2 6129   3.839   4.256  11.102
68078SOL     OW 6130  11.119   6.000   2.795
68078SOL    HW1 6131  11.194   5.945   2.774
68078SOL    HW2 6132  11.061   5.943   2.846
68079SOL     OW 6133   4.070   6.938  11.415
68079SOL    HW1 6134   4.056   6.898  11.330
68079SOL    HW2 6135   3.990   6.989  11.432
68080SOL     OW 6136   0.939  11.429   4.729
68080SOL    HW1 6137   0.989  11.412   4.808
68080SOL    HW2 6138   0.915  11.343   4.696
68081SOL     OW 6139   3.679   2.664   7.892
68081SOL    HW1 6140   3.751   2.670   7.828
68081SOL    HW2 6141   3.603   2.642   7.839
68082SOL     OW 6142   6.442  10.063   1.835
68082SOL    HW1 6143   6.382  10.093   1.766
68082SOL    HW2 6144   6.407  10.101   1.915
68083SOL     OW 6145  11.307   0.634   9.542
68083SOL    HW1 6146  11.223   0.588   9.541
68083SOL    HW2 6147  11.294   0.708   9.601
68084SOL     OW 6148   7.789   7.782  12.872
68084SOL    HW1 6149   7.803   7.828  12.789
68084SOL    HW2 6150   7.806   7.849  12.939
68085SOL     OW 6151   4.509  14.088  12.420
68085SOL    HW1 6152   4.475  14.151  12.484
68085SOL    HW2 6153   4.474  14.004  12.447
68086SOL     OW 6154   5.376   7.559   3.390
68086SOL    HW1 6155   5.296   7.507   3.388
68086SOL    HW2 6156   5.441   7.504   3.347
68087SOL     OW 6157   6.271   2.203   1.112
68087SOL    HW1 6158   6.365   2.209   1.098
68087SOL    HW2 6159   6.235   2.285   1.078
68088SOL     OW 6160   8.801   6.912   0.111
68088SOL    HW1 6161   8.752   6.967   0.173
68088SOL    HW2 6162   8.836   6.973   0.046
68089SOL     OW 6163   3.583  11.095  11.820
68089SOL    HW1 6164   3.502  11.100  11.770
68089SOL    HW2 6165   3.555  11.087  11.911
68090SOL     OW 6166  10.374   8.001   9.173
68090SOL    HW1 6167  10.412   7.996   9.261
68090SOL    HW2 6168  10.316   7.925   9.168
68091SOL     OW 6169   1.178   9.682   8.656
68091SOL    HW1 6170   1.146   9.746   8.720
68091SOL    HW2 6171   1.260   9.649   8.694
68092SOL     OW 6172  14.156   7.852  11.477
68092SOL    HW1 6173  14.094   7.922  11.456
68092SOL    HW2 6174  14.198   7.881  11.558
68093SOL     OW 6175  11.547   9.703   2.718
68093SOL    HW1 6176  11.623   9.654   2.749
68093SOL    HW2 6177  11.471   9.655   2.752
68094SOL     OW 6178  11.035   0.283   8.259
68094SOL    HW1 6179  11.027   0.333   8.340
68094SOL    HW2 6180  10.974   0.210   8.269
68095SOL     OW 6181   5.547   9.687   7.790
68095SOL    HW1 6182   5.574   9.643   7.871
68095SOL    HW2 6183   5.495   9.761   7.820
68096SOL     OW 6184  14.200  12.348  11.521
68096SOL    HW1 6185  14.209  12.278  11.457
68096SOL    HW2 6186  14.155  12.418  11.473
68097SOL     OW 6187   3.755   5.211  12.905
68097SOL    HW1 6188   3.705   5.293  12.902
68097SOL    HW2 6189   3.715   5.156  12.837
68098SOL     OW 6190   3.221   7.828   3.440
68098SOL    HW1 6191   3.137   7.864   3.412
68098SOL    HW2 6192   3.209   7.807   3.533
68099SOL     OW 6193   1.332  11.942   9.548
68099SOL    HW1 6194   1.379  11.898   9.619
68099SOL    HW2 6195   1.244  11.957   9.583
68100SOL     OW 6196   3.646  11.543  13.611
68100SOL    HW1 6197   3.733  11.510  13.587
68100SOL    HW2 6198   3.664  11.622  13.662
68101SOL     OW 6199  10.706   2.822   4.768
68101SOL    HW1 6200  10.613   2.832   4.786
68101SOL    HW2 6201  10.745   2.905   4.796
68102SOL     OW 6202   8.154  13.926  13.033
68102SOL    HW1 6203   8.159  13.983  13.109
68102SOL    HW2 6204   8.080  13.959  12.983
68103SOL     OW 6205   7.233   7.816   4.799
68103SOL    HW1 6206   7.297   7.832   4.868
68103SOL    HW2 6207   7.286   7.792   4.723
68104SOL     OW 6208   3.942  11.089   5.529
68104SOL    HW1 6209   3.846  11.082   5.534
68104SOL    HW2 6210   3.958  11.139   5.450
68105SOL     OW 6211   2.614  14.377  14.221
68105SOL    HW1 6212   2.693  14.325  14.237
68105SOL    HW2 6213   2.550  14.344  14.284
68106SOL     OW 6214   1.620   6.590   8.679
68106SOL    HW1 6215   1.699   6.608   8.729
68106SOL    HW2 6216   1.587   6.676   8.654
68107SOL     OW 6217   9.815   8.713  12.008
68107SOL    HW1 6218   9.731   8.702  11.965
68107SOL    HW2 6219   9.868   8.762  11.945
68108SOL     OW 6220  11.721   2.053   2.323
68108SOL    HW1 6221  11.742   2.018   2.237
68108SOL    HW2 6222  11.666   1.987   2.364
68109SOL     OW 6223   6.575   3.642   3.174
68109SOL    HW1 6224   6.492   3.675   3.141
68109SOL    HW2 6225   6.637   3.656   3.103
68110SOL     OW 6226  10.650   2.480   1.356
68110SOL    HW1 6227  10.606   2.562   1.379
68110SOL    HW2 6228  10.660   2.435   1.439
68111SOL     OW 6229   7.465  10.136  13.910
68111SOL    HW1 6230   7.400  10.107  13.974
68111SOL    HW2 6231   7.511  10.056  13.884
68112SOL     OW 6232   2.122  12.332  12.442
68112SOL    HW1 6233   2.196  12.311  12.499
68112SOL    HW2 6234   2.150  12.307  12.355
68113SOL     OW 6235   1.279   9.554   4.252
68113SOL    HW1 6236   1.286   9.648   4.266
68113SOL    HW2 6237   1.205   9.527   4.306
68114SOL     OW 6238  13.751   3.649   7.164
68114SOL    HW1 6239  13.815   3.686   7.103
68114SOL    HW2 6240  13.667   3.654   7.118
68115SOL     OW 6241  13.803  13.750  11.915
68115SOL    HW1 6242  13.759  13.678  11.870
68115SOL    HW2 6243  13.870  13.708  11.968
68116SOL     OW 6244   3.977   7.928   2.925
68116SOL    HW1 6245   3.922   7.999   2.957
68116SOL    HW2 6246   4.029   7.966   2.855
68117SOL     OW 6247  12.682   1.933   2.187
68117SOL    HW1 6248  12.587   1.924   2.183
68117SOL    HW2 6249  12.715   1.865   2.128
68118SOL     OW 6250   3.299   1.792   3.390
68118SOL    HW1 6251   3.335   1.718   3.341
68118SOL    HW2 6252   3.243   1.837   3.327
68119SOL     OW 6253   8.209  13.054   4.489
68119SOL    HW1 6254   8.146  13.126   4.483
68119SOL    HW2 6255   8.195  13.016   4.575
68120SOL     OW 6256   0.138   8.266   0.579
68120SOL    HW1 6257   0.160   8.316   0.657
68120SOL    HW2 6258   0.186   8.310   0.508
68121SOL     OW 6259  10.962   9.916   9.406
68121SOL    HW1 6260  10.969   9.969   9.486
68121SOL    HW2 6261  10.871   9.885   9.406
68122SOL     OW 6262   0.420   9.943   5.153
68122SOL    HW1 6263   0.454   9.896   5.078
68122SOL    HW2 6264   0.410  10.033   5.123
68123SOL     OW 6265  14.767   8.143   0.569
68123SOL    HW1 6266  14.851   8.189   0.565
68123SOL    HW2 6267  14.757   8.118   0.661
68124SOL     OW 6268  10.383   6.228   3.882
68124SOL    HW1 6269  10.355   6.147   3.841
68124SOL    HW2 6270  10.371   6.215   3.975
68125SOL     OW 6271  10.259   4.426   4.669
68125SOL    HW1 6272  10.320   4.481   4.717
68125SOL    HW2 6273  10.212   4.377   4.737
68126SOL     OW 6274   9.286  12.595  14.692
68126SOL    HW1 6275   9.197  12.568  14.715
68126SOL    HW2 6276   9.276  12.683  14.657
68127SOL     OW 6277   8.108   5.872  14.285
68127SOL    HW1 6278   8.086   5.955  14.244
68127SOL    HW2 6279   8.106   5.889  14.379
68128SOL     OW 6280   2.660  12.920   3.715
68128SOL    HW1 6281   2.640  12.827   3.723
68128SOL    HW2 6282   2.577  12.960   3.688
68129SOL     OW 6283   0.898   4.421   8.687
68129SOL    HW1 6284   0.970   4.485   8.681
68129SOL    HW2 6285   0.941   4.336   8.680
68130SOL     OW 6286   6.584  13.396   6.718
68130SOL    HW1 6287   6.660  13.434   6.674
68130SOL    HW2 6288   6.514  13.458   6.701
68131SOL     OW 6289  11.260   2.977   6.312
68131SOL    HW1 6290  11.212   3.059   6.299
68131SOL    HW2 6291  11.351   3.005   6.327
68132SOL     OW 6292  11.479  12.849   7.053
68132SOL    HW1 6293  11.441  12.932   7.084
68132SOL    HW2 6294  11.502  12.802   7.133
68133SOL     OW 6295   8.432  10.578   1.716
68133SOL    HW1 6296   8.386  10.503   1.754
68133SOL    HW2 6297   8.382  10.600   1.637
68134SOL     OW 6298   6.751  12.010  12.026
68134SOL    HW1 6299   6.686  12.039  12.091
68134SOL    HW2 6300   6.832  12.052  12.053
68135SOL     OW 6301  13.880  14.014   5.611
68135SOL    HW1 6302  13.839  14.099   5.596
68135SOL    HW2 6303  13.829  13.954   5.556
68136SOL     OW 6304  13.652  11.437   8.919
68136SOL    HW1 6305  13.633  11.447   8.826
68136SOL    HW2 6306  13.654  11.527   8.953
68137SOL     OW 6307   6.296  14.705   5.851
68137SOL    HW1 6308   6.327  14.794   5.867
68137SOL    HW2 6309   6.362  14.649   5.891
68138SOL     OW 6310  12.819  14.245   1.703
68138SOL    HW1 6311  12.784  14.243   1.614
68138SOL    HW2 6312  12.903  14.200   1.697
68139SOL     OW 6313   7.754  12.088  14.240
68139SOL    HW1 6314   7.736  12.100  14.334
68139SOL    HW2 6315   7.757  11.993  14.228
68140SOL     OW 6316  11.672   5.250   9.289
68140SOL    HW1 6317  11.721   5.190   9.346
68140SOL    HW2 6318  11.583   5.215   9.290
68141SOL     OW 6319   8.558  11.342   5.840
68141SOL    HW1 6320   8.615  11.272   5.872
68141SOL    HW2 6321   8.475  11.327   5.885
68142SOL     OW 6322  14.855   6.923   4.330
68142SOL    HW1 6323  14.811   7.005   4.352
68142SOL    HW2 6324  14.815   6.896   4.247
68143SOL     OW 6325  10.161   2.042  10.400
68143SOL    HW1 6326  10.233   1.982  10.381
68143SOL    HW2 6327  10.124   2.009  10.482
68144SOL     OW 6328   6.057   2.695   9.070
68144SOL    HW1 6329   5.998   2.753   9.118
68144SOL    HW2 6330   6.079   2.743   8.991
68145SOL     OW 6331   6.200   7.383  11.026
68145SOL    HW1 6332   6.215   7.293  10.999
68145SOL    HW2 6333   6.271   7.432  10.984
68146SOL     OW 6334  11.674   3.684  11.948
68146SOL    HW1 6335  11.582   3.673  11.974
68146SOL    HW2 6336  11.724   3.647  12.020
68147SOL     OW 6337  12.856  14.461   2.091
68147SOL    HW1 6338  12.769  14.464   2.130
68147SOL    HW2 6339  12.886  14.372   2.107
68148SOL     OW 6340   4.118   9.109   9.082
68148SOL    HW1 6341   4.126   9.108   9.177
68148SOL    HW2 6342   4.151   9.024   9.054
68149SOL     OW 6343   3.807  11.197   0.602
68149SOL    HW1 6344   3.782  11.156   0.685
68149SOL    HW2 6345   3.795  11.128   0.536
68150SOL     OW 6346   6.391   2.595  10.720
68150SOL    HW1 6347   6.356   2.640  10.643
68150SOL    HW2 6348   6.314   2.576  10.773
68151SOL     OW 6349   6.276   3.521   9.614
68151SOL    HW1 6350   6.318   3.599   9.650
68151SOL    HW2 6351   6.329   3.448   9.647
68152SOL     OW 6352   5.406  13.840   4.716
68152SOL    HW1 6353   5.415  13.935   4.725
68152SOL    HW2 6354   5.352  13.829   4.637
68153SOL     OW 6355   7.923   4.663  13.306
68153SOL    HW1 6356   7.873   4.663  13.387
68153SOL    HW2 6357   7.858   4.654  13.237
68154SOL     OW 6358  14.091   8.457  11.127
68154SOL    HW1 6359  14.084   8.403  11.048
68154SOL    HW2 6360  14.075   8.546  11.096
68155SOL     OW 6361   9.677   2.985   4.138
68155SOL    HW1 6362   9.691   2.935   4.058
68155SOL    HW2 6363   9.584   2.972   4.159
68156SOL     OW 6364  11.809  12.226  13.790
68156SOL    HW1 6365  11.786  12.309  13.832
68156SOL    HW2 6366  11.849  12.174  13.860
68157SOL     OW 6367   3.350   1.223   3.357
68157SOL    HW1 6368   3.278   1.280   3.328
68157SOL    HW2 6369   3.391   1.194   3.276
68158SOL     OW 6370  12.962   9.889   6.937
68158SOL    HW1 6371  12.892   9.841   6.893
68158SOL    HW2 6372  12.917   9.956   6.988
68159SOL     OW 6373  13.678  12.999   3.333
68159SOL    HW1 6374  13.676  13.086   3.372
68159SOL    HW2 6375  13.703  12.941   3.405
68160SOL     OW 6376   7.277  10.933   9.272
68160SOL    HW1 6377   7.257  10.863   9.210
68160SOL    HW2 6378   7.312  10.888   9.349
68161SOL     OW 6379   3.752  11.046   7.854
68161SOL    HW1 6380   3.824  11.092   7.896
68161SOL    HW2 6381   3.717  11.109   7.791
68162SOL     OW 6382   6.654  11.664  10.727
68162SOL    HW1 6383   6.701  11.618  10.796
68162SOL    HW2 6384   6.562  11.662  10.756
68163SOL     OW 6385   3.522   1.747   5.141
68163SOL    HW1 6386   3.588   1.707   5.084
68163SOL    HW2 6387   3.490   1.674   5.195
68164SOL     OW 6388   5.692   3.095  12.534
68164SOL    HW1 6389   5.620   3.114  12.594
68164SOL    HW2 6390   5.688   3.165  12.468
68165SOL     OW 6391  11.600   9.957   4.813
68165SOL    HW1 6392  11.555   9.967   4.897
68165SOL    HW2 6393  11.529   9.951   4.749
68166SOL     OW 6394   3.200  12.383   9.726
68166SOL    HW1 6395   3.136  12.362   9.794
68166SOL    HW2 6396   3.283  12.352   9.761
68167SOL     OW 6397   8.653  10.137  11.605
68167SOL    HW1 6398   8.681  10.213  11.655
68167SOL    HW2 6399   8.668  10.063  11.664
68168SOL     OW 6400   2.765   1.075   9.693
68168SOL    HW1 6401   2.714   1.116   9.623
68168SOL    HW2 6402   2.730   0.986   9.699
68169SOL     OW 6403   6.657   0.136   4.698
68169SOL    HW1 6404   6.606   0.126   4.618
68169SOL    HW2 6405   6.720   0.205   4.678
68170SOL     OW 6406   0.468   2.508   2.873
68170SOL    HW1 6407   0.451   2.438   2.810
68170SOL    HW2 6408   0.533   2.470   2.933
68171SOL     OW 6409   3.420   9.892   5.088
68171SOL    HW1 6410   3.485   9.930   5.030
68171SOL    HW2 6411   3.369   9.967   5.119
68172SOL     OW 6412   2.726  14.489   4.923
68172SOL    HW1 6413   2.667  14.429   4.877
68172SOL    HW2 6414   2.700  14.482   5.015
68173SOL     OW 6415   0.546   9.815   4.093
68173SOL    HW1 6416   0.490   9.819   4.016
68173SOL    HW2 6417   0.632   9.841   4.062
68174SOL     OW 6418   4.063   3.487   7.845
68174SOL    HW1 6419   4.132   3.478   7.910
68174SOL    HW2 6420   4.075   3.411   7.787
68175SOL     OW 6421   2.435  13.427   8.389
68175SOL    HW1 6422   2.508  13.444   8.449
68175SOL    HW2 6423   2.357  13.439   8.444
68176SOL     OW 6424  10.649  14.035  13.667
68176SOL    HW1 6425  10.604  13.978  13.605
68176SOL    HW2 6426  10.620  14.005  13.753
68177SOL     OW 6427  13.035   0.906   6.417
68177SOL    HW1 6428  13.025   0.982   6.360
68177SOL    HW2 6429  13.127   0.908   6.444
68178SOL     OW 6430  10.480   5.470  10.492
68178SOL    HW1 6431  10.395   5.461  10.449
68178SOL    HW2 6432  10.502   5.563  10.483
68179SOL     OW 6433  11.869   8.024   7.805
68179SOL    HW1 6434  11.888   8.102   7.857
68179SOL    HW2 6435  11.773   8.017   7.808
68180SOL     OW 6436  10.670  12.420   3.252
68180SOL    HW1 6437  10.695  12.463   3.170
68180SOL    HW2 6438  10.743  12.437   3.312
68181SOL     OW 6439   8.371  10.405   4.607
68181SOL    HW1 6440   8.415  10.457   4.675
68181SOL    HW2 6441   8.338  10.328   4.654
68182SOL     OW 6442   7.760  12.079  11.693
68182SOL    HW1 6443   7.804  12.032  11.622
68182SOL    HW2 6444   7.797  12.041  11.773
68183SOL     OW 6445  11.845   7.325   4.223
68183SOL    HW1 6446  11.838   7.327   4.127
68183SOL    HW2 6447  11.811   7.239   4.247
68184SOL     OW 6448   2.328  10.387   4.857
68184SOL    HW1 6449   2.319  10.356   4.767
68184SOL    HW2 6450   2.408  10.440   4.856
68185SOL     OW 6451   4.850   3.627  14.029
68185SOL    HW1 6452   4.833   3.719  14.050
68185SOL    HW2 6453   4.772   3.598  13.982
68186SOL     OW 6454  12.885  11.242  13.026
68186SOL    HW1 6455  12.897  11.178  13.096
68186SOL    HW2 6456  12.844  11.192  12.955
68187SOL     OW 6457   4.137   6.817   9.971
68187SOL    HW1 6458   4.185   6.846   9.893
68187SOL    HW2 6459   4.045   6.825   9.946
68188SOL     OW 6460  14.191   2.133   3.248
68188SOL    HW1 6461  14.261   2.179   3.202
68188SOL    HW2 6462  14.150   2.200   3.302
68189SOL     OW 6463   6.732   6.421  14.131
68189SOL    HW1 6464   6.784   6.341  14.131
68189SOL    HW2 6465   6.731   6.450  14.040
68190SOL     OW 6466   5.609   8.610  13.642
68190SOL    HW1 6467   5.565   8.659  13.573
68190SOL    HW2 6468   5.571   8.522  13.638
68191SOL     OW 6469   4.292   5.649   3.561
68191SOL    HW1 6470   4.329   5.636   3.474
68191SOL    HW2 6471   4.342   5.722   3.598
68192SOL     OW 6472  13.230   6.824   0.617
68192SOL    HW1 6473  13.296   6.769   0.660
68192SOL    HW2 6474  13.168   6.762   0.579
68193SOL     OW 6475   2.797  10.895   1.226
68193SOL    HW1 6476   2.750  10.958   1.171
68193SOL    HW2 6477   2.883  10.934   1.238
68194SOL     OW 6478   3.348   5.826  11.403
68194SOL    HW1 6479   3.443   5.839  11.405
68194SOL    HW2 6480   3.333   5.754  11.465
68195SOL     OW 6481   9.535  13.513  13.818
68195SOL    HW1 6482   9.576  13.428  13.803
68195SOL    HW2 6483   9.455  13.511  13.765
68196SOL     OW 6484  11.239  11.783  12.073
68196SOL    HW1 6485  11.310  11.718  12.076
68196SOL    HW2 6486  11.281  11.866  12.097
68197SOL     OW 6487   8.800   0.955   4.641
68197SOL    HW1 6488   8.711   0.946   4.606
68197SOL    HW2 6489   8.788   0.954   4.736
68198SOL     OW 6490  11.623  10.432   3.932
68198SOL    HW1 6491  11.595  10.505   3.877
68198SOL    HW2 6492  11.694  10.390   3.883
68199SOL     OW 6493   2.643   4.665   8.178
68199SOL    HW1 6494   2.592   4.643   8.101
68199SOL    HW2 6495   2.614   4.753   8.202
68200SOL     OW 6496   8.788   5.957   2.851
68200SOL    HW1 6497   8.736   5.877   2.865
68200SOL    HW2 6498   8.791   5.966   2.756
68201SOL     OW 6499   3.161  11.245  13.534
68201SOL    HW1 6500   3.122  11.331  13.543
68201SOL    HW2 6501   3.172  11.214  13.624
68202SOL     OW 6502   6.003  14.269  10.948
68202SOL    HW1 6503   5.922  14.229  10.917
68202SOL    HW2 6504   6.058  14.274  10.869
68203SOL     OW 6505  13.072   8.526  10.167
68203SOL    HW1 6506  13.130   8.551  10.094
68203SOL    HW2 6507  13.120   8.553  10.245
68204SOL     OW 6508   6.741   1.956   6.588
68204SOL    HW1 6509   6.648   1.970   6.570
68204SOL    HW2 6510   6.752   1.985   6.678
68205SOL     OW 6511   6.034  11.066  12.709
68205SOL    HW1 6512   6.063  11.007  12.778
68205SOL    HW2 6513   6.039  11.014  12.629
68206SOL     OW 6514   1.359  10.089   8.909
68206SOL    HW1 6515   1.316  10.110   8.991
68206SOL    HW2 6516   1.388  10.174   8.875
68207SOL     OW 6517   1.689  12.318  12.378
68207SOL    HW1 6518   1.679  12.384  12.309
68207SOL    HW2 6519   1.783  12.297  12.376
68208SOL     OW 6520   2.746   4.945  10.532
68208SOL    HW1 6521   2.654   4.968  10.533
68208SOL    HW2 6522   2.749   4.858  10.492
68209SOL     OW 6523   7.283   8.980   2.659
68209SOL    HW1 6524   7.232   9.012   2.733
68209SOL    HW2 6525   7.373   8.976   2.692
68210SOL     OW 6526   3.730  13.725   5.107
68210SOL    HW1 6527   3.710  13.815   5.080
68210SOL    HW2 6528   3.667  13.706   5.177
68211SOL     OW 6529   0.589   7.366   3.276
68211SOL    HW1 6530   0.531   7.300   3.238
68211SOL    HW2 6531   0.668   7.364   3.221
68212SOL     OW 6532  13.376  13.432   0.167
68212SOL    HW1 6533  13.325  13.359   0.202
68212SOL    HW2 6534  13.465  13.398   0.159
68213SOL     OW 6535  12.706   9.022   3.776
68213SOL    HW1 6536  12.660   9.099   3.809
68213SOL    HW2 6537  12.746   8.982   3.853
68214SOL     OW 6538  14.626   2.025   7.429
68214SOL    HW1 6539  14.658   2.113   7.449
68214SOL    HW2 6540  14.535   2.025   7.460
68215SOL     OW 6541  12.379  13.460   5.402
68215SOL    HW1 6542  12.444  13.526   5.378
68215SOL    HW2 6543  12.339  13.493   5.482
68216SOL     OW 6544  11.344   4.454   2.175
68216SOL    HW1 6545  11.414   4.406   2.218
68216SOL    HW2 6546  11.264   4.425   2.218
68217SOL     OW 6547  11.660  13.701   1.797
68217SOL    HW1 6548  11.579  13.716   1.748
68217SOL    HW2 6549  11.729  13.742   1.744
68218SOL     OW 6550   5.111   3.821  12.307
68218SOL    HW1 6551   5.100   3.896  12.364
68218SOL    HW2 6552   5.021   3.796  12.283
68219SOL     OW 6553   5.108   9.514   8.564
68219SOL    HW1 6554   5.177   9.460   8.603
68219SOL    HW2 6555   5.029   9.460   8.569
68220SOL     OW 6556   3.927   0.167   7.243
68220SOL    HW1 6557   3.928   0.178   7.338
68220SOL    HW2 6558   4.018   0.150   7.220
68221SOL     OW 6559   4.842  12.720   6.416
68221SOL    HW1 6560   4.825  12.731   6.322
68221SOL    HW2 6561   4.757  12.736   6.457
68222SOL     OW 6562   3.628   4.120   1.877
68222SOL    HW1 6563   3.698   4.183   1.861
68222SOL    HW2 6564   3.666   4.057   1.939
68223SOL     OW 6565   2.467   2.229   3.596
68223SOL    HW1 6566   2.504   2.299   3.650
68223SOL    HW2 6567   2.517   2.151   3.621
68224SOL     OW 6568  14.216   9.309  12.759
68224SOL    HW1 6569  14.220   9.219  12.793
68224SOL    HW2 6570  14.282   9.312  12.691
68225SOL     OW 6571   7.738   3.783  10.120
68225SOL    HW1 6572   7.744   3.822  10.208
68225SOL    HW2 6573   7.802   3.831  10.068
68226SOL     OW 6574  10.086  13.901   7.428
68226SOL    HW1 6575  10.058  13.817   7.464
68226SOL    HW2 6576  10.068  13.964   7.497
68227SOL     OW 6577  11.817   1.277  12.552
68227SOL    HW1 6578  11.898   1.265  12.601
68227SOL    HW2 6579  11.839   1.338  12.482
68228SOL     OW 6580   5.130  14.728  13.778
68228SOL    HW1 6581   5.070  14.736  13.853
68228SOL    HW2 6582   5.074  14.740  13.701
68229SOL     OW 6583   5.705   1.849   1.707
68229SOL    HW1 6584   5.707   1.942   1.686
68229SOL    HW2 6585   5.622   1.818   1.670
68230SOL     OW 6586  11.250   9.446   5.657
68230SOL    HW1 6587  11.205   9.417   5.736
68230SOL    HW2 6588  11.270   9.366   5.609
68231SOL     OW 6589  11.405  12.932  14.168
68231SOL    HW1 6590  11.336  12.884  14.122
68231SOL    HW2 6591  11.486  12.892  14.137
68232SOL     OW 6592   3.882  12.361  12.676
68232SOL    HW1 6593   3.851  12.447  12.649
68232SOL    HW2 6594   3.837  12.343  12.758
68233SOL     OW 6595   3.298   3.336  11.073
68233SOL    HW1 6596   3.233   3.267  11.088
68233SOL    HW2 6597   3.337   3.350  11.159
68234SOL     OW 6598   5.229   2.846   5.902
68234SOL    HW1 6599   5.258   2.799   5.824
68234SOL    HW2 6600   5.308   2.886   5.938
68235SOL     OW 6601   4.095   8.990   6.257
68235SOL    HW1 6602   4.167   8.935   6.289
68235SOL    HW2 6603   4.029   8.985   6.326
68236SOL     OW 6604  13.873   9.458   9.700
68236SOL    HW1 6605  13.933   9.529   9.677
68236SOL    HW2 6606  13.898   9.433   9.789
68237SOL     OW 6607  14.454   0.340   8.805
68237SOL    HW1 6608  14.476   0.357   8.897
68237SOL    HW2 6609  14.367   0.377   8.794
68238SOL     OW 6610   8.062  11.404  12.914
68238SOL    HW1 6611   8.148  11.366  12.931
68238SOL    HW2 6612   8.080  11.482  12.861
68239SOL     OW 6613   8.969   9.854   9.807
68239SOL    HW1 6614   8.909   9.924   9.831
68239SOL    HW2 6615   8.952   9.839   9.713
68240SOL     OW 6616   3.386   1.023   2.036
68240SOL    HW1 6617   3.367   1.017   1.942
68240SOL    HW2 6618   3.324   1.087   2.069
68241SOL     OW 6619   5.534  11.169  10.331
68241SOL    HW1 6620   5.505  11.231  10.398
68241SOL    HW2 6621   5.616  11.206  10.298
68242SOL     OW 6622  11.104   9.478   1.827
68242SOL    HW1 6623  11.103   9.427   1.908
68242SOL    HW2 6624  11.197   9.489   1.806
68243SOL     OW 6625  11.625   4.489  12.856
68243SOL    HW1 6626  11.675   4.412  12.885
68243SOL    HW2 6627  11.672   4.521  12.780
68244SOL     OW 6628   4.924   4.752   2.096
68244SOL    HW1 6629   5.001   4.784   2.049
68244SOL    HW2 6630   4.957   4.679   2.149
68245SOL     OW 6631   8.577  10.344   8.127
68245SOL    HW1 6632   8.497  10.367   8.079
68245SOL    HW2 6633   8.571  10.395   8.208
68246SOL     OW 6634   5.540   2.929   8.669
68246SOL    HW1 6635   5.564   2.885   8.750
68246SOL    HW2 6636   5.623   2.942   8.623
68247SOL     OW 6637  14.780  12.155   8.800
68247SOL    HW1 6638  14.862  12.159   8.751
68247SOL    HW2 6639  14.757  12.062   8.800
68248SOL     OW 6640   6.663   3.879   2.769
68248SOL    HW1 6641   6.627   3.958   2.809
68248SOL    HW2 6642   6.599   3.855   2.702
68249SOL     OW 6643  14.870   6.867   7.515
68249SOL    HW1 6644  14.848   6.907   7.431
68249SOL    HW2 6645  14.793   6.814   7.537
68250SOL     OW 6646   3.439   6.339  14.165
68250SOL    HW1 6647   3.525   6.377  14.150
68250SOL    HW2 6648   3.384   6.413  14.193
68251SOL     OW 6649  11.108  10.999   4.383
68251SOL    HW1 6650  11.031  10.954   4.347
68251SOL    HW2 6651  11.183  10.956   4.341
68252SOL     OW 6652   3.062   9.381   4.403
68252SOL    HW1 6653   3.009   9.405   4.327
68252SOL    HW2 6654   3.054   9.286   4.409
68253SOL     OW 6655  13.483  10.747   2.114
68253SOL    HW1 6656  13.461  10.678   2.178
68253SOL    HW2 6657  13.559  10.791   2.152
68254SOL     OW 6658   6.445   8.420   4.191
68254SOL    HW1 6659   6.513   8.353   4.202
68254SOL    HW2 6660   6.382   8.380   4.130
68255SOL     OW 6661   8.658   2.732   7.499
68255SOL    HW1 6662   8.718   2.736   7.425
68255SOL    HW2 6663   8.606   2.653   7.483
68256SOL     OW 6664   2.954   4.363  12.499
68256SOL    HW1 6665   2.883   4.407  12.546
68256SOL    HW2 6666   2.954   4.274  12.534
68257SOL     OW 6667   8.351   6.221   0.778
68257SOL    HW1 6668   8.399   6.296   0.744
68257SOL    HW2 6669   8.266   6.256   0.805
68258SOL     OW 6670  13.321  13.479   7.375
68258SOL    HW1 6671  13.227  13.493   7.365
68258SOL    HW2 6672  13.334  13.387   7.352
68259SOL     OW 6673   2.065  11.184  10.314
68259SOL    HW1 6674   2.045  11.272  10.347
68259SOL    HW2 6675   2.136  11.153  10.370
68260SOL     OW 6676  13.654   6.358   4.944
68260SOL    HW1 6677  13.667   6.341   4.851
68260SOL    HW2 6678  13.586   6.297   4.971
68261SOL     OW 6679  12.789   2.077  13.546
68261SOL    HW1 6680  12.784   2.000  13.602
68261SOL    HW2 6681  12.726   2.138  13.583
68262SOL     OW 6682   0.968   8.098   8.652
68262SOL    HW1 6683   0.945   8.061   8.737
68262SOL    HW2 6684   1.003   8.184   8.672
68263SOL     OW 6685  13.909  13.072   5.958
68263SOL    HW1 6686  13.932  13.155   6.000
68263SOL    HW2 6687  13.815  13.078   5.943
68264SOL     OW 6688   1.875  13.138  13.705
68264SOL    HW1 6689   1.853  13.053  13.667
68264SOL    HW2 6690   1.914  13.187  13.633
68265SOL     OW 6691   7.668   4.907   5.671
68265SOL    HW1 6692   7.589   4.941   5.627
68265SOL    HW2 6693   7.695   4.833   5.617
68266SOL     OW 6694   3.339   2.106  14.612
68266SOL    HW1 6695   3.397   2.043  14.654
68266SOL    HW2 6696   3.267   2.053  14.578
68267SOL     OW 6697  14.838   6.408  13.330
68267SOL    HW1 6698  14.839   6.458  13.248
68267SOL    HW2 6699   0.031   6.349  13.323
68268SOL     OW 6700   2.735  11.545   3.512
68268SOL    HW1 6701   2.786  11.504   3.443
68268SOL    HW2 6702   2.789  11.535   3.591
68269SOL     OW 6703   4.965  11.849  10.171
68269SOL    HW1 6704   4.878  11.832  10.135
68269SOL    HW2 6705   4.987  11.769  10.219
68270SOL     OW 6706  10.471   3.501   7.551
68270SOL    HW1 6707  10.458   3.584   7.596
68270SOL    HW2 6708  10.434   3.515   7.464
68271SOL     OW 6709  11.245  10.996   1.226
68271SOL    HW1 6710  11.151  10.997   1.242
68271SOL    HW2 6711  11.282  10.957   1.305
68272SOL     OW 6712   9.184  10.174   5.141
68272SOL    HW1 6713   9.170  10.184   5.047
68272SOL    HW2 6714   9.276  10.193   5.154
68273SOL     OW 6715  10.990  13.262   7.802
68273SOL    HW1 6716  11.005  13.356   7.795
68273SOL    HW2 6717  11.066  13.229   7.850
68274SOL     OW 6718   2.997   0.452   0.076
68274SOL    HW1 6719   3.007   0.540   0.040
68274SOL    HW2 6720   3.054   0.450   0.153
68275SOL     OW 6721   5.525  11.806   5.258
68275SOL    HW1 6722   5.544  11.721   5.217
68275SOL    HW2 6723   5.591  11.865   5.222
68276SOL     OW 6724   4.362  10.325   8.304
68276SOL    HW1 6725   4.414  10.267   8.248
68276SOL    HW2 6726   4.371  10.287   8.391
68277SOL     OW 6727  10.744   1.666  14.200
68277SOL    HW1 6728  10.786   1.733  14.145
68277SOL    HW2 6729  10.816   1.629  14.251
68278SOL     OW 6730   5.773  14.146   5.079
68278SOL    HW1 6731   5.769  14.224   5.024
68278SOL    HW2 6732   5.784  14.073   5.017
68279SOL     OW 6733   6.879  12.139  14.867
68279SOL    HW1 6734   6.970  12.168  14.866
68279SOL    HW2 6735   6.833  12.205   0.037
68280SOL     OW 6736   8.008  11.060   2.006
68280SOL    HW1 6737   7.936  11.091   1.951
68280SOL    HW2 6738   8.079  11.042   1.944
68281SOL     OW 6739   8.762   5.904   2.383
68281SOL    HW1 6740   8.839   5.876   2.432
68281SOL    HW2 6741   8.688   5.876   2.437
68282SOL     OW 6742   8.861   3.600   3.162
68282SOL    HW1 6743   8.832   3.650   3.239
68282SOL    HW2 6744   8.904   3.666   3.107
68283SOL     OW 6745   7.235   2.208  10.379
68283SOL    HW1 6746   7.217   2.114  10.389
68283SOL    HW2 6747   7.154   2.251  10.404
68284SOL     OW 6748   7.441   0.115  14.309
68284SOL    HW1 6749   7.487   0.059  14.371
68284SOL    HW2 6750   7.410   0.189  14.362
68285SOL     OW 6751   0.867   8.002   6.480
68285SOL    HW1 6752   0.852   7.935   6.413
68285SOL    HW2 6753   0.795   8.064   6.470
68286SOL     OW 6754   6.210   3.702  13.598
68286SOL    HW1 6755   6.134   3.645  13.586
68286SOL    HW2 6756   6.176   3.790  13.580
68287SOL     OW 6757   1.259  14.027   9.671
68287SOL    HW1 6758   1.212  14.092   9.619
68287SOL    HW2 6759   1.211  13.946   9.657
68288SOL     OW 6760   4.407   0.377   2.769
68288SOL    HW1 6761   4.486   0.402   2.721
68288SOL    HW2 6762   4.398   0.444   2.837
68289SOL     OW 6763   4.433  11.529   8.726
68289SOL    HW1 6764   4.441  11.570   8.640
68289SOL    HW2 6765   4.362  11.465   8.716
68290SOL     OW 6766   8.399   7.722   6.025
68290SOL    HW1 6767   8.490   7.708   6.050
68290SOL    HW2 6768   8.384   7.816   6.038
68291SOL     OW 6769   0.557   5.601   3.871
68291SOL    HW1 6770   0.466   5.627   3.882
68291SOL    HW2 6771   0.593   5.603   3.959
68292SOL     OW 6772  13.568   1.835   8.591
68292SOL    HW1 6773  13.626   1.784   8.534
68292SOL    HW2 6774  13.528   1.769   8.649
68293SOL     OW 6775  13.539   7.876   0.733
68293SOL    HW1 6776  13.576   7.829   0.659
68293SOL    HW2 6777  13.577   7.964   0.727
68294SOL     OW 6778  11.007   2.412   6.280
68294SOL    HW1 6779  10.985   2.476   6.212
68294SOL    HW2 6780  10.941   2.427   6.348
68295SOL     OW 6781   8.494  11.002   8.701
68295SOL    HW1 6782   8.414  10.956   8.676
68295SOL    HW2 6783   8.473  11.042   8.785
68296SOL     OW 6784  13.522  12.802  13.676
68296SOL    HW1 6785  13.606  12.771  13.641
68296SOL    HW2 6786  13.544  12.883  13.722
68297SOL     OW 6787   0.671   3.793   7.659
68297SOL    HW1 6788   0.609   3.744   7.713
68297SOL    HW2 6789   0.725   3.841   7.722
68298SOL     OW 6790   6.641   3.440   0.002
68298SOL    HW1 6791   6.570   3.386   0.036
68298SOL    HW2 6792   6.686   3.473   0.079
68299SOL     OW 6793   3.108   3.845  10.897
68299SOL    HW1 6794   3.086   3.772  10.956
68299SOL    HW2 6795   3.168   3.806  10.833
68300SOL     OW 6796   4.487  10.580   0.668
68300SOL    HW1 6797   4.463  10.622   0.751
68300SOL    HW2 6798   4.453  10.491   0.676
68301SOL     OW 6799  14.268  14.090   1.090
68301SOL    HW1 6800  14.215  14.081   1.168
68301SOL    HW2 6801  14.321  14.168   1.105
68302SOL     OW 6802   5.249   9.018  10.149
68302SOL    HW1 6803   5.279   9.106  10.127
68302SOL    HW2 6804   5.167   9.007  10.100
68303SOL     OW 6805   7.393  12.499   8.545
68303SOL    HW1 6806   7.349  12.415   8.555
68303SOL    HW2 6807   7.353  12.538   8.467
68304SOL     OW 6808   8.484   1.205   4.354
68304SOL    HW1 6809   8.469   1.285   4.404
68304SOL    HW2 6810   8.565   1.222   4.305
68305SOL     OW 6811  10.337   7.312  12.471
68305SOL    HW1 6812  10.415   7.258  12.484
68305SOL    HW2 6813  10.271   7.252  12.439
68306SOL     OW 6814   6.705   4.278   9.780
68306SOL    HW1 6815   6.641   4.293   9.709
68306SOL    HW2 6816   6.787   4.260   9.734
68307SOL     OW 6817   1.857   4.496   7.237
68307SOL    HW1 6818   1.789   4.482   7.303
68307SOL    HW2 6819   1.891   4.583   7.255
68308SOL     OW 6820   7.390   9.432  12.263
68308SOL    HW1 6821   7.354   9.404  12.347
68308SOL    HW2 6822   7.480   9.400  12.264
68309SOL     OW 6823  10.480  12.322   9.321
68309SOL    HW1 6824  10.422  12.248   9.337
68309SOL    HW2 6825  10.565  12.282   9.303
68310SOL     OW 6826   0.258   3.362   5.808
68310SOL    HW1 6827   0.179   3.313   5.829
68310SOL    HW2 6828   0.311   3.358   5.888
68311SOL     OW 6829  13.296   1.521  11.013
68311SOL    HW1 6830  13.231   1.570  11.064
68311SOL    HW2 6831  13.279   1.548  10.922
68312SOL     OW 6832  12.280  10.539   0.082
68312SOL    HW1 6833  12.309  10.453   0.111
68312SOL    HW2 6834  12.279  10.592   0.163
68313SOL     OW 6835   1.518   3.478  11.179
68313SOL    HW1 6836   1.519   3.572  11.196
68313SOL    HW2 6837   1.515   3.438  11.266
68314SOL     OW 6838   2.250   1.316  13.073
68314SOL    HW1 6839   2.191   1.357  13.010
68314SOL    HW2 6840   2.296   1.249  13.022
68315SOL     OW 6841  13.958   4.901   3.559
68315SOL    HW1 6842  14.028   4.846   3.525
68315SOL    HW2 6843  13.973   4.902   3.654
68316SOL     OW 6844   2.080  11.101   6.011
68316SOL    HW1 6845   2.143  11.052   5.958
68316SOL    HW2 6846   2.048  11.170   5.954
68317SOL     OW 6847  14.094  13.578   1.513
68317SOL    HW1 6848  14.133  13.519   1.577
68317SOL    HW2 6849  14.142  13.660   1.523
68318SOL     OW 6850  11.114   2.337   7.037
68318SOL    HW1 6851  11.035   2.324   7.090
68318SOL    HW2 6852  11.110   2.429   7.011
68319SOL     OW 6853   9.022   5.430  11.918
68319SOL    HW1 6854   9.004   5.503  11.977
68319SOL    HW2 6855   9.034   5.471  11.832
68320SOL     OW 6856  14.781   4.644   7.713
68320SOL    HW1 6857  14.766   4.688   7.629
68320SOL    HW2 6858  14.874   4.622   7.713
68321SOL     OW 6859   4.769   5.281   4.033
68321SOL    HW1 6860   4.850   5.300   3.985
68321SOL    HW2 6861   4.700   5.287   3.968
68322SOL     OW 6862  12.724   6.696   7.931
68322SOL    HW1 6863  12.695   6.786   7.943
68322SOL    HW2 6864  12.725   6.683   7.837
68323SOL     OW 6865   4.437   2.656  11.814
68323SOL    HW1 6866   4.492   2.713  11.868
68323SOL    HW2 6867   4.363   2.711  11.789
68324SOL     OW 6868   1.369  13.869   6.747
68324SOL    HW1 6869   1.407  13.788   6.715
68324SOL    HW2 6870   1.384  13.868   6.841
68325SOL     OW 6871   9.283   6.051  11.587
68325SOL    HW1 6872   9.281   6.004  11.503
68325SOL    HW2 6873   9.237   6.133  11.569
68326SOL     OW 6874   4.709   3.924   0.217
68326SOL    HW1 6875   4.664   3.973   0.149
68326SOL    HW2 6876   4.688   3.833   0.199
68327SOL     OW 6877   2.042   6.923   9.598
68327SOL    HW1 6878   1.994   7.000   9.567
68327SOL    HW2 6879   2.134   6.952   9.600
68328SOL     OW 6880   8.089   8.811  10.003
68328SOL    HW1 6881   8.022   8.843  10.064
68328SOL    HW2 6882   8.171   8.843  10.040
68329SOL     OW 6883  14.723   8.002   9.982
68329SOL    HW1 6884  14.668   7.998   9.903
68329SOL    HW2 6885  14.688   8.077  10.031
68330SOL     OW 6886   3.207  11.418   6.033
68330SOL    HW1 6887   3.237  11.339   6.078
68330SOL    HW2 6888   3.234  11.406   5.942
68331SOL     OW 6889   1.038  13.540   9.222
68331SOL    HW1 6890   1.013  13.490   9.144
68331SOL    HW2 6891   1.076  13.620   9.187
68332SOL     OW 6892   1.503  14.880   1.356
68332SOL    HW1 6893   1.513  14.812   1.422
68332SOL    HW2 6894   1.576  14.866   1.295
68333SOL     OW 6895  10.815  12.159   4.342
68333SOL    HW1 6896  10.853  12.166   4.254
68333SOL    HW2 6897  10.890  12.164   4.401
68334SOL     OW 6898   9.855   9.933  12.210
68334SOL    HW1 6899   9.805   9.852  12.204
68334SOL    HW2 6900   9.845   9.974  12.124
68335SOL     OW 6901   7.761  11.603   1.882
68335SOL    HW1 6902   7.694  11.573   1.821
68335SOL    HW2 6903   7.755  11.543   1.956
68336SOL     OW 6904   2.302   3.468   4.840
68336SOL    HW1 6905   2.349   3.503   4.915
68336SOL    HW2 6906   2.272   3.546   4.793
68337SOL     OW 6907  11.794   4.638  10.387
68337SOL    HW1 6908  11.854   4.645  10.461
68337SOL    HW2 6909  11.810   4.717  10.336
68338SOL     OW 6910   8.383   9.364   9.698
68338SOL    HW1 6911   8.356   9.331   9.784
68338SOL    HW2 6912   8.304   9.402   9.661
68339SOL     OW 6913   3.112   6.270   5.267
68339SOL    HW1 6914   3.198   6.310   5.274
68339SOL    HW2 6915   3.099   6.227   5.352
68340SOL     OW 6916  14.728   0.280  10.043
68340SOL    HW1 6917  14.754   0.370  10.064
68340SOL    HW2 6918  14.639   0.273  10.075
68341SOL     OW 6919   4.457  14.618   1.113
68341SOL    HW1 6920   4.496  14.666   1.040
68341SOL    HW2 6921   4.384  14.570   1.073
68342SOL     OW 6922  11.250   5.621  11.848
68342SOL    HW1 6923  11.255   5.647  11.940
68342SOL    HW2 6924  11.305   5.543  11.843
68343SOL     OW 6925  14.446   9.094   5.012
68343SOL    HW1 6926  14.426   9.008   5.048
68343SOL    HW2 6927  14.492   9.077   4.930
68344SOL     OW 6928   0.766  10.718  14.202
68344SOL    HW1 6929   0.764  10.746  14.111
68344SOL    HW2 6930   0.686  10.755  14.240
68345SOL     OW 6931   2.214   2.551  13.275
68345SOL    HW1 6932   2.139   2.508  13.235
68345SOL    HW2 6933   2.176   2.612  13.338
68346SOL     OW 6934   8.153   5.641   1.422
68346SOL    HW1 6935   8.219   5.669   1.486
68346SOL    HW2 6936   8.075   5.623   1.474
68347SOL     OW 6937   3.610  12.982   6.115
68347SOL    HW1 6938   3.597  13.073   6.143
68347SOL    HW2 6939   3.595  12.984   6.020
68348SOL     OW 6940   7.673   7.331   7.489
68348SOL    HW1 6941   7.711   7.246   7.514
68348SOL    HW2 6942   7.586   7.331   7.530
68349SOL     OW 6943   4.941  11.623   4.021
68349SOL    HW1 6944   5.014  11.671   3.982
68349SOL    HW2 6945   4.863  11.667   3.988
68350SOL     OW 6946  11.622  13.391   5.151
68350SOL    HW1 6947  11.674  13.431   5.080
68350SOL    HW2 6948  11.588  13.310   5.113
68351SOL     OW 6949   2.449   5.498   1.431
68351SOL    HW1 6950   2.509   5.563   1.394
68351SOL    HW2 6951   2.375   5.549   1.464
68352SOL     OW 6952   4.263  12.722   7.072
68352SOL    HW1 6953   4.278  12.659   7.143
68352SOL    HW2 6954   4.318  12.691   7.000
68353SOL     OW 6955  10.454  12.154   6.062
68353SOL    HW1 6956  10.491  12.179   6.146
68353SOL    HW2 6957  10.527  12.113   6.015
68354SOL     OW 6958  14.678   6.591   9.411
68354SOL    HW1 6959  14.609   6.644   9.371
68354SOL    HW2 6960  14.751   6.651   9.424
68355SOL     OW 6961  10.807   9.183   7.680
68355SOL    HW1 6962  10.713   9.196   7.666
68355SOL    HW2 6963  10.817   9.184   7.775
68356SOL     OW 6964   0.947   7.914   2.600
68356SOL    HW1 6965   1.026   7.899   2.548
68356SOL    HW2 6966   0.883   7.948   2.538
68357SOL     OW 6967   5.133  10.209   1.931
68357SOL    HW1 6968   5.175  10.202   1.845
68357SOL    HW2 6969   5.060  10.148   1.927
68358SOL     OW 6970   1.686   5.392  12.576
68358SOL    HW1 6971   1.658   5.476  12.539
68358SOL    HW2 6972   1.778   5.385  12.549
68359SOL     OW 6973   2.727  10.224   3.117
68359SOL    HW1 6974   2.782  10.176   3.179
68359SOL    HW2 6975   2.786  10.287   3.075
68360SOL     OW 6976  10.296   0.680   0.505
68360SOL    HW1 6977  10.370   0.619   0.514
68360SOL    HW2 6978  10.329   0.749   0.448
68361SOL     OW 6979   3.440   7.468   3.758
68361SOL    HW1 6980   3.510   7.420   3.801
68361SOL    HW2 6981   3.464   7.466   3.665
68362SOL     OW 6982   0.946   8.502   8.324
68362SOL    HW1 6983   0.905   8.586   8.347
68362SOL    HW2 6984   1.039   8.522   8.318
68363SOL     OW 6985   0.403   4.055  12.453
68363SOL    HW1 6986   0.433   4.073  12.364
68363SOL    HW2 6987   0.467   4.099  12.510
68364SOL     OW 6988   3.618   8.283   0.739
68364SOL    HW1 6989   3.710   8.275   0.766
68364SOL    HW2 6990   3.622   8.305   0.646
68365SOL     OW 6991   5.839  14.220   4.654
68365SOL    HW1 6992   5.806  14.227   4.565
68365SOL    HW2 6993   5.865  14.310   4.677
68366SOL     OW 6994   0.433   4.111   9.076
68366SOL    HW1 6995   0.423   4.017   9.091
68366SOL    HW2 6996   0.435   4.148   9.164
68367SOL     OW 6997   0.427   0.989   3.033
68367SOL    HW1 6998   0.406   0.995   3.126
68367SOL    HW2 6999   0.523   0.988   3.030
68368SOL     OW 7000   3.961  10.237   4.714
68368SOL    HW1 7001   4.045  10.193   4.701
68368SOL    HW2 7002   3.938  10.270   4.627
68369SOL     OW 7003  10.916  11.513   6.105
68369SOL    HW1 7004  10.993  11.558   6.142
68369SOL    HW2 7005  10.944  11.485   6.018
68370SOL     OW 7006   5.953   4.639   6.178
68370SOL    HW1 7007   5.923   4.723   6.214
68370SOL    HW2 7008   5.922   4.641   6.087
68371SOL     OW 7009   2.102  14.414   9.387
68371SOL    HW1 7010   2.157  14.363   9.447
68371SOL    HW2 7011   2.054  14.348   9.337
68372SOL     OW 7012   6.245   3.842   5.678
68372SOL    HW1 7013   6.229   3.765   5.732
68372SOL    HW2 7014   6.339   3.857   5.685
68373SOL     OW 7015   0.239  10.559  11.516
68373SOL    HW1 7016   0.193  10.481  11.486
68373SOL    HW2 7017   0.307  10.573  11.450
68374SOL     OW 7018   9.547   0.130  14.849
68374SOL    HW1 7019   9.556   0.159  14.758
68374SOL    HW2 7020   9.630   0.087  14.869
68375SOL     OW 7021   2.411  12.788   2.192
68375SOL    HW1 7022   2.419  12.740   2.275
68375SOL    HW2 7023   2.394  12.878   2.218
68376SOL     OW 7024   6.653   1.891   1.724
68376SOL    HW1 7025   6.638   1.930   1.810
68376SOL    HW2 7026   6.748   1.887   1.715
68377SOL     OW 7027   4.363   4.152   5.966
68377SOL    HW1 7028   4.332   4.107   6.045
68377SOL    HW2 7029   4.324   4.239   5.972
68378SOL     OW 7030   9.274  11.760   1.903
68378SOL    HW1 7031   9.333  11.790   1.972
68378SOL    HW2 7032   9.203  11.716   1.949
68379SOL     OW 7033   7.591   1.226   2.747
68379SOL    HW1 7034   7.534   1.159   2.782
68379SOL    HW2 7035   7.560   1.308   2.787
68380SOL     OW 7036   0.332   3.210   7.203
68380SOL    HW1 7037   0.370   3.259   7.276
68380SOL    HW2 7038   0.357   3.260   7.125
68381SOL     OW 7039   7.568   0.664   2.335
68381SOL    HW1 7040   7.502   0.666   2.404
68381SOL    HW2 7041   7.651   0.670   2.381
68382SOL     OW 7042   7.476   6.345  13.340
68382SOL    HW1 7043   7.480   6.440  13.344
68382SOL    HW2 7044   7.505   6.324  13.251
68383SOL     OW 7045   3.626   9.026  14.818
68383SOL    HW1 7046   3.722   9.020  14.811
68383SOL    HW2 7047   3.594   8.956  14.761
68384SOL     OW 7048  11.343  12.119   5.575
68384SOL    HW1 7049  11.276  12.062   5.614
68384SOL    HW2 7050  11.416  12.117   5.636
68385SOL     OW 7051   7.750  12.655   1.402
68385SOL    HW1 7052   7.673  12.663   1.345
68385SOL    HW2 7053   7.801  12.735   1.385
68386SOL     OW 7054   0.478  11.829   6.215
68386SOL    HW1 7055   0.396  11.876   6.228
68386SOL    HW2 7056   0.485  11.770   6.290
68387SOL     OW 7057   0.769  12.747   9.834
68387SOL    HW1 7058   0.786  12.778   9.923
68387SOL    HW2 7059   0.855  12.720   9.801
68388SOL     OW 7060  14.154   5.197   2.513
68388SOL    HW1 7061  14.103   5.194   2.594
68388SOL    HW2 7062  14.100   5.247   2.453
68389SOL     OW 7063  14.353  14.850   4.134
68389SOL    HW1 7064  14.302  14.796   4.195
68389SOL    HW2 7065  14.399   0.030   4.190
68390SOL     OW 7066  14.152  12.264   0.233
68390SOL    HW1 7067  14.157  12.251   0.138
68390SOL    HW2 7068  14.124  12.354   0.244
68391SOL     OW 7069   7.706   1.650   2.667
68391SOL    HW1 7070   7.775   1.624   2.727
68391SOL    HW2 7071   7.741   1.727   2.622
68392SOL     OW 7072   7.939  10.117   3.585
68392SOL    HW1 7073   7.886  10.161   3.650
68392SOL    HW2 7074   7.962  10.033   3.625
68393SOL     OW 7075   8.516  11.528   6.931
68393SOL    HW1 7076   8.534  11.619   6.956
68393SOL    HW2 7077   8.421  11.520   6.934
68394SOL     OW 7078   8.343   5.944   8.275
68394SOL    HW1 7079   8.315   6.034   8.263
68394SOL    HW2 7080   8.386   5.942   8.360
68395SOL     OW 7081  12.627   3.508   8.841
68395SOL    HW1 7082  12.650   3.429   8.793
68395SOL    HW2 7083  12.705   3.564   8.833
68396SOL     OW 7084   7.324   0.213   4.701
68396SOL    HW1 7085   7.414   0.241   4.718
68396SOL    HW2 7086   7.311   0.139   4.761
68397SOL     OW 7087   1.358   5.078   1.554
68397SOL    HW1 7088   1.301   5.075   1.477
68397SOL    HW2 7089   1.322   5.012   1.613
68398SOL     OW 7090   4.837  11.344  12.407
68398SOL    HW1 7091   4.815  11.280  12.474
68398SOL    HW2 7092   4.768  11.336  12.342
68399SOL     OW 7093  10.847  12.436   2.722
68399SOL    HW1 7094  10.861  12.351   2.764
68399SOL    HW2 7095  10.753  12.452   2.731
68400SOL     OW 7096  11.776  10.780   5.585
68400SOL    HW1 7097  11.699  10.800   5.639
68400SOL    HW2 7098  11.805  10.695   5.616
68401SOL     OW 7099   9.730   3.863   0.764
68401SOL    HW1 7100   9.654   3.805   0.773
68401SOL    HW2 7101   9.797   3.809   0.722
68402SOL     OW 7102   0.224   7.058   6.133
68402SOL    HW1 7103   0.143   7.008   6.147
68402SOL    HW2 7104   0.236   7.106   6.215
68403SOL     OW 7105   5.413  10.506   1.065
68403SOL    HW1 7106   5.348  10.528   1.131
68403SOL    HW2 7107   5.497  10.523   1.108
68404SOL     OW 7108  12.961   7.166  12.560
68404SOL    HW1 7109  12.941   7.077  12.589
68404SOL    HW2 7110  12.929   7.170  12.470
68405SOL     OW 7111   4.170  11.231   6.995
68405SOL    HW1 7112   4.240  11.178   7.032
68405SOL    HW2 7113   4.111  11.167   6.954
68406SOL     OW 7114  12.216   5.453   6.290
68406SOL    HW1 7115  12.218   5.394   6.365
68406SOL    HW2 7116  12.201   5.540   6.328
68407SOL     OW 7117   4.658  14.380  13.809
68407SOL    HW1 7118   4.660  14.475  13.795
68407SOL    HW2 7119   4.742  14.349  13.774
68408SOL     OW 7120   7.910  12.021   7.093
68408SOL    HW1 7121   7.973  12.044   7.024
68408SOL    HW2 7122   7.865  11.943   7.059
68409SOL     OW 7123   9.653   0.665   9.215
68409SOL    HW1 7124   9.581   0.602   9.215
68409SOL    HW2 7125   9.618   0.742   9.260
68410SOL     OW 7126  11.768  11.585   9.185
68410SOL    HW1 7127  11.706  11.623   9.247
68410SOL    HW2 7128  11.728  11.503   9.159
68411SOL     OW 7129   4.563   6.356   7.155
68411SOL    HW1 7130   4.527   6.432   7.200
68411SOL    HW2 7131   4.645   6.387   7.117
68412SOL     OW 7132   4.599   0.061  12.327
68412SOL    HW1 7133   4.602   0.091  12.237
68412SOL    HW2 7134   4.550  14.861  12.323
68413SOL     OW 7135   6.741  10.545   6.888
68413SOL    HW1 7136   6.701  10.630   6.873
68413SOL    HW2 7137   6.670  10.490   6.921
68414SOL     OW 7138   1.866  11.696  13.205
68414SOL    HW1 7139   1.784  11.740  13.227
68414SOL    HW2 7140   1.875  11.707  13.110
68415SOL     OW 7141   3.195   0.488   6.057
68415SOL    HW1 7142   3.245   0.495   6.139
68415SOL    HW2 7143   3.256   0.447   5.996
68416SOL     OW 7144   0.666   6.382  13.197
68416SOL    HW1 7145   0.654   6.379  13.102
68416SOL    HW2 7146   0.578   6.396  13.232
68417SOL     OW 7147  10.830   2.902  12.803
68417SOL    HW1 7148  10.795   2.966  12.866
68417SOL    HW2 7149  10.767   2.831  12.802
68418SOL     OW 7150   8.858   8.446   7.905
68418SOL    HW1 7151   8.780   8.468   7.956
68418SOL    HW2 7152   8.832   8.370   7.853
68419SOL     OW 7153  13.443   5.622  14.836
68419SOL    HW1 7154  13.403   5.619  14.749
68419SOL    HW2 7155  13.389   5.685   0.002
68420SOL     OW 7156   8.529   2.168  11.833
68420SOL    HW1 7157   8.543   2.100  11.899
68420SOL    HW2 7158   8.551   2.250  11.878
68421SOL     OW 7159   3.087   9.692   9.036
68421SOL    HW1 7160   3.117   9.775   9.000
68421SOL    HW2 7161   3.046   9.647   8.961
68422SOL     OW 7162   0.207   8.458   0.824
68422SOL    HW1 7163   0.243   8.507   0.898
68422SOL    HW2 7164   0.213   8.366   0.851
68423SOL     OW 7165  11.273   6.606  14.154
68423SOL    HW1 7166  11.270   6.675  14.220
68423SOL    HW2 7167  11.363   6.607  14.121
68424SOL     OW 7168   4.595   0.251   9.652
68424SOL    HW1 7169   4.504   0.273   9.632
68424SOL    HW2 7170   4.614   0.297   9.733
68425SOL     OW 7171  10.068  10.927  10.892
68425SOL    HW1 7172  10.003  10.925  10.822
68425SOL    HW2 7173  10.093  10.835  10.904
68426SOL     OW 7174   9.381  13.061  14.361
68426SOL    HW1 7175   9.374  13.141  14.308
68426SOL    HW2 7176   9.304  13.064  14.418
68427SOL     OW 7177   8.069   2.416  10.369
68427SOL    HW1 7178   8.157   2.444  10.347
68427SOL    HW2 7179   8.029   2.492  10.411
68428SOL     OW 7180  13.183   8.870   2.277
68428SOL    HW1 7181  13.207   8.864   2.370
68428SOL    HW2 7182  13.217   8.788   2.239
68429SOL     OW 7183   4.207   7.316   7.608
68429SOL    HW1 7184   4.113   7.298   7.601
68429SOL    HW2 7185   4.212   7.405   7.641
68430SOL     OW 7186   9.468  10.304  12.052
68430SOL    HW1 7187   9.484  10.316  11.958
68430SOL    HW2 7188   9.382  10.342  12.067
68431SOL     OW 7189   0.798   8.253   0.576
68431SOL    HW1 7190   0.806   8.283   0.667
68431SOL    HW2 7191   0.849   8.173   0.574
68432SOL     OW 7192  12.955   1.801   7.826
68432SOL    HW1 7193  12.897   1.869   7.792
68432SOL    HW2 7194  12.967   1.824   7.918
68433SOL     OW 7195   7.740   4.632  11.038
68433SOL    HW1 7196   7.803   4.632  11.111
68433SOL    HW2 7197   7.786   4.676  10.967
68434SOL     OW 7198  13.943   0.287  11.261
68434SOL    HW1 7199  13.904   0.250  11.340
68434SOL    HW2 7200  13.904   0.237  11.189
68435SOL     OW 7201  12.949  10.837   5.730
68435SOL    HW1 7202  12.949  10.817   5.824
68435SOL    HW2 7203  13.012  10.775   5.692
68436SOL     OW 7204   1.662   7.260  11.879
68436SOL    HW1 7205   1.631   7.210  11.955
68436SOL    HW2 7206   1.753   7.279  11.899
68437SOL     OW 7207  14.123   2.817   3.398
68437SOL    HW1 7208  14.055   2.753   3.415
68437SOL    HW2 7209  14.097   2.859   3.316
68438SOL     OW 7210   6.705  12.407   3.621
68438SOL    HW1 7211   6.763  12.371   3.688
68438SOL    HW2 7212   6.671  12.488   3.659
68439SOL     OW 7213  11.477   4.264  10.951
68439SOL    HW1 7214  11.420   4.316  10.893
68439SOL    HW2 7215  11.562   4.267  10.908
68440SOL     OW 7216   1.541  10.444   9.294
68440SOL    HW1 7217   1.522  10.538   9.291
68440SOL    HW2 7218   1.613  10.433   9.233
68441SOL     OW 7219  12.620  10.931   1.554
68441SOL    HW1 7220  12.556  10.893   1.494
68441SOL    HW2 7221  12.568  10.983   1.615
68442SOL     OW 7222   2.673  12.981   4.279
68442SOL    HW1 7223   2.662  13.067   4.319
68442SOL    HW2 7224   2.767  12.965   4.282
68443SOL     OW 7225   7.501  13.550   8.535
68443SOL    HW1 7226   7.562  13.555   8.462
68443SOL    HW2 7227   7.500  13.638   8.572
68444SOL     OW 7228  12.032   7.652   4.994
68444SOL    HW1 7229  12.080   7.734   4.997
68444SOL    HW2 7230  12.099   7.585   4.981
68445SOL     OW 7231   5.180   4.543  14.551
68445SOL    HW1 7232   5.270   4.513  14.563
68445SOL    HW2 7233   5.140   4.535  14.638
68446SOL     OW 7234  11.036   7.321   0.983
68446SOL    HW1 7235  11.123   7.361   0.982
68446SOL    HW2 7236  11.050   7.232   1.016
68447SOL     OW 7237  12.830   6.571   2.701
68447SOL    HW1 7238  12.909   6.587   2.649
68447SOL    HW2 7239  12.784   6.501   2.655
68448SOL     OW 7240   8.207   8.755   3.399
68448SOL    HW1 7241   8.179   8.747   3.490
68448SOL    HW2 7242   8.134   8.718   3.348
68449SOL     OW 7243   3.105   7.117   2.381
68449SOL    HW1 7244   3.096   7.130   2.476
68449SOL    HW2 7245   3.052   7.186   2.342
68450SOL     OW 7246  14.745   6.574   4.255
68450SOL    HW1 7247  14.728   6.611   4.342
68450SOL    HW2 7248  14.659   6.574   4.212
68451SOL     OW 7249  13.049  11.651  13.842
68451SOL    HW1 7250  13.094  11.573  13.811
68451SOL    HW2 7251  13.083  11.665  13.931
68452SOL     OW 7252   7.027  13.080   7.646
68452SOL    HW1 7253   7.064  13.159   7.606
68452SOL    HW2 7254   6.949  13.111   7.693
68453SOL     OW 7255   2.635  13.613   1.089
68453SOL    HW1 7256   2.618  13.654   1.174
68453SOL    HW2 7257   2.551  13.620   1.042
68454SOL     OW 7258   5.649   4.005   3.912
68454SOL    HW1 7259   5.574   4.036   3.962
68454SOL    HW2 7260   5.673   3.922   3.955
68455SOL     OW 7261  11.604   9.996   7.986
68455SOL    HW1 7262  11.606   9.936   8.061
68455SOL    HW2 7263  11.537   9.959   7.928
68456SOL     OW 7264  14.798  10.940  12.659
68456SOL    HW1 7265  14.811  10.988  12.577
68456SOL    HW2 7266  14.861  10.869  12.655
68457SOL     OW 7267   4.174  12.294  10.617
68457SOL    HW1 7268   4.240  12.362  10.622
68457SOL    HW2 7269   4.145  12.295  10.526
68458SOL     OW 7270   5.868   6.428   5.073
68458SOL    HW1 7271   5.853   6.485   5.149
68458SOL    HW2 7272   5.788   6.438   5.020
68459SOL     OW 7273   4.654   2.077  14.462
68459SOL    HW1 7274   4.613   2.141  14.403
68459SOL    HW2 7275   4.691   2.130  14.533
68460SOL     OW 7276   1.589  14.051   3.417
68460SOL    HW1 7277   1.563  14.113   3.349
68460SOL    HW2 7278   1.619  14.106   3.489
68461SOL     OW 7279   1.432   6.303   6.611
68461SOL    HW1 7280   1.505   6.269   6.662
68461SOL    HW2 7281   1.376   6.227   6.594
68462SOL     OW 7282   0.372   6.702  12.796
68462SOL    HW1 7283   0.375   6.656  12.880
68462SOL    HW2 7284   0.435   6.656  12.741
68463SOL     OW 7285   0.645   1.650  12.457
68463SOL    HW1 7286   0.575   1.641  12.393
68463SOL    HW2 7287   0.718   1.687  12.407
68464SOL     OW 7288   4.298  10.957   6.039
68464SOL    HW1 7289   4.374  11.010   6.017
68464SOL    HW2 7290   4.326  10.904   6.113
68465SOL     OW 7291  13.566   3.448  12.739
68465SOL    HW1 7292  13.580   3.541  12.754
68465SOL    HW2 7293  13.647   3.418  12.699
68466SOL     OW 7294   2.274   6.778  10.594
68466SOL    HW1 7295   2.224   6.782  10.676
68466SOL    HW2 7296   2.277   6.685  10.572
68467SOL     OW 7297  13.235   0.952   0.670
68467SOL    HW1 7298  13.226   1.040   0.707
68467SOL    HW2 7299  13.277   0.901   0.739
68468SOL     OW 7300  13.040  14.216   8.986
68468SOL    HW1 7301  13.066  14.308   8.985
68468SOL    HW2 7302  12.986  14.207   9.065
68469SOL     OW 7303   6.203  12.481   8.426
68469SOL    HW1 7304   6.159  12.537   8.490
68469SOL    HW2 7305   6.296  12.490   8.446
68470SOL     OW 7306   7.715  13.730   0.568
68470SOL    HW1 7307   7.769  13.779   0.506
68470SOL    HW2 7308   7.626  13.761   0.552
68471SOL     OW 7309   1.939   9.546   3.039
68471SOL    HW1 7310   1.962   9.456   3.018
68471SOL    HW2 7311   2.016   9.598   3.016
68472SOL     OW 7312   0.265   3.524   1.725
68472SOL    HW1 7313   0.289   3.517   1.633
68472SOL    HW2 7314   0.186   3.471   1.733
68473SOL     OW 7315  10.100   5.036   8.266
68473SOL    HW1 7316  10.029   5.056   8.327
68473SOL    HW2 7317  10.055   5.013   8.185
68474SOL     OW 7318   5.544  11.273   1.781
68474SOL    HW1 7319   5.581  11.327   1.851
68474SOL    HW2 7320   5.529  11.188   1.821
68475SOL     OW 7321  14.268   6.581   6.820
68475SOL    HW1 7322  14.286   6.523   6.894
68475SOL    HW2 7323  14.175   6.602   6.829
68476SOL     OW 7324   7.419   8.876  10.236
68476SOL    HW1 7325   7.497   8.893  10.290
68476SOL    HW2 7326   7.430   8.933  10.160
68477SOL     OW 7327   8.450   3.045   4.370
68477SOL    HW1 7328   8.505   3.032   4.446
68477SOL    HW2 7329   8.396   2.966   4.365
68478SOL     OW 7330   7.153   5.273  14.657
68478SOL    HW1 7331   7.160   5.187  14.698
68478SOL    HW2 7332   7.173   5.256  14.564
68479SOL     OW 7333  13.431   3.364   8.588
68479SOL    HW1 7334  13.429   3.269   8.581
68479SOL    HW2 7335  13.433   3.395   8.497
68480SOL     OW 7336   2.678   9.978   0.493
68480SOL    HW1 7337   2.677   9.956   0.400
68480SOL    HW2 7338   2.592  10.018   0.508
68481SOL     OW 7339  10.156   6.203   9.973
68481SOL    HW1 7340  10.117   6.256  10.043
68481SOL    HW2 7341  10.250   6.203   9.993
68482SOL     OW 7342  11.856   0.630  13.118
68482SOL    HW1 7343  11.928   0.646  13.057
68482SOL    HW2 7344  11.783   0.605  13.062
68483SOL     OW 7345   0.767   4.257   6.204
68483SOL    HW1 7346   0.807   4.248   6.290
68483SOL    HW2 7347   0.674   4.274   6.221
68484SOL     OW 7348  13.681   3.394   8.238
68484SOL    HW1 7349  13.719   3.330   8.298
68484SOL    HW2 7350  13.607   3.431   8.287
68485SOL     OW 7351   8.394   4.592   7.790
68485SOL    HW1 7352   8.299   4.593   7.804
68485SOL    HW2 7353   8.414   4.679   7.756
68486SOL     OW 7354   3.387   0.636   2.649
68486SOL    HW1 7355   3.458   0.576   2.628
68486SOL    HW2 7356   3.396   0.652   2.743
68487SOL     OW 7357   5.902  10.541   2.220
68487SOL    HW1 7358   5.893  10.451   2.189
68487SOL    HW2 7359   5.929  10.532   2.312
68488SOL     OW 7360   0.389   1.000   3.964
68488SOL    HW1 7361   0.304   0.960   3.980
68488SOL    HW2 7362   0.447   0.958   4.027
68489SOL     OW 7363   9.414  13.784  12.967
68489SOL    HW1 7364   9.453  13.823  13.046
68489SOL    HW2 7365   9.488  13.771  12.908
68490SOL     OW 7366  12.897   2.643   2.346
68490SOL    HW1 7367  12.891   2.557   2.305
68490SOL    HW2 7368  12.891   2.705   2.273
68491SOL     OW 7369  12.869   1.431   5.443
68491SOL    HW1 7370  12.775   1.413   5.448
68491SOL    HW2 7371  12.909   1.344   5.434
68492SOL     OW 7372   4.047  11.054   0.270
68492SOL    HW1 7373   4.135  11.024   0.292
68492SOL    HW2 7374   4.048  11.066   0.175
68493SOL     OW 7375  14.795   3.749   8.613
68493SOL    HW1 7376  14.830   3.661   8.630
68493SOL    HW2 7377  14.783   3.751   8.518
68494SOL     OW 7378   4.796   2.421  12.581
68494SOL    HW1 7379   4.865   2.375  12.532
68494SOL    HW2 7380   4.757   2.480  12.517
68495SOL     OW 7381   2.758   0.218   6.101
68495SOL    HW1 7382   2.699   0.285   6.066
68495SOL    HW2 7383   2.704   0.139   6.105
68496SOL     OW 7384   1.234   3.208   0.168
68496SOL    HW1 7385   1.311   3.218   0.112
68496SOL    HW2 7386   1.253   3.132   0.222
68497SOL     OW 7387   4.130  12.830   0.868
68497SOL    HW1 7388   4.171  12.884   0.935
68497SOL    HW2 7389   4.204  12.796   0.817
68498SOL     OW 7390   3.601  12.087   6.172
68498SOL    HW1 7391   3.683  12.045   6.148
68498SOL    HW2 7392   3.610  12.177   6.139
68499SOL     OW 7393   1.470   8.102  12.824
68499SOL    HW1 7394   1.390   8.143  12.857
68499SOL    HW2 7395   1.454   8.008  12.833
68500SOL     OW 7396  13.553  11.949  12.087
68500SOL    HW1 7397  13.521  12.039  12.089
68500SOL    HW2 7398  13.576  11.929  12.178
68501SOL     OW 7399   3.138   0.875   4.341
68501SOL    HW1 7400   3.195   0.900   4.269
68501SOL    HW2 7401   3.195   0.876   4.418
68502SOL     OW 7402  10.288  11.770   5.880
68502SOL    HW1 7403  10.199  11.770   5.915
68502SOL    HW2 7404  10.315  11.678   5.881
68503SOL     OW 7405  11.066  12.238  12.660
68503SOL    HW1 7406  11.088  12.172  12.594
68503SOL    HW2 7407  11.091  12.198  12.743
68504SOL     OW 7408   4.718   3.753   0.682
68504SOL    HW1 7409   4.734   3.809   0.758
68504SOL    HW2 7410   4.751   3.803   0.608
68505SOL     OW 7411  12.825   2.620  14.144
68505SOL    HW1 7412  12.867   2.630  14.059
68505SOL    HW2 7413  12.896   2.594  14.203
68506SOL     OW 7414   6.586  12.174   1.653
68506SOL    HW1 7415   6.615  12.106   1.714
68506SOL    HW2 7416   6.662  12.191   1.598
68507SOL     OW 7417  11.884   3.379   1.001
68507SOL    HW1 7418  11.969   3.337   0.994
68507SOL    HW2 7419  11.899   3.454   1.060
68508SOL     OW 7420   7.167   1.052   8.711
68508SOL    HW1 7421   7.214   1.120   8.760
68508SOL    HW2 7422   7.223   0.974   8.720
68509SOL     OW 7423  13.113   6.910   9.998
68509SOL    HW1 7424  13.075   6.924   9.911
68509SOL    HW2 7425  13.178   6.979  10.006
68510SOL     OW 7426   9.069   8.032   0.093
68510SOL    HW1 7427   9.086   7.962   0.029
68510SOL    HW2 7428   9.101   7.998   0.176
68511SOL     OW 7429   5.365   2.467  11.960
68511SOL    HW1 7430   5.452   2.504  11.975
68511SOL    HW2 7431   5.381   2.389  11.908
68512SOL     OW 7432   4.682  12.768   9.358
68512SOL    HW1 7433   4.676  12.686   9.407
68512SOL    HW2 7434   4.640  12.833   9.415
68513SOL     OW 7435   7.871  13.442   6.695
68513SOL    HW1 7436   7.816  13.502   6.746
68513SOL    HW2 7437   7.960  13.477   6.706
68514SOL     OW 7438   8.656   9.993  12.492
68514SOL    HW1 7439   8.697   9.951  12.567
68514SOL    HW2 7440   8.684   9.941  12.417
68515SOL     OW 7441  13.071  10.844   0.204
68515SOL    HW1 7442  13.049  10.922   0.253
68515SOL    HW2 7443  13.112  10.786   0.268
68516SOL     OW 7444   7.984   2.448   9.863
68516SOL    HW1 7445   8.034   2.382   9.816
68516SOL    HW2 7446   7.923   2.483   9.798
68517SOL     OW 7447   0.299   7.323   1.389
68517SOL    HW1 7448   0.345   7.298   1.309
68517SOL    HW2 7449   0.247   7.246   1.412
68518SOL     OW 7450  13.292   5.887   2.667
68518SOL    HW1 7451  13.356   5.957   2.680
68518SOL    HW2 7452  13.339   5.820   2.617
68519SOL     OW 7453  13.139   4.419  11.637
68519SOL    HW1 7454  13.222   4.383  11.667
68519SOL    HW2 7455  13.123   4.376  11.553
68520SOL     OW 7456   0.878  11.876   3.811
68520SOL    HW1 7457   0.970  11.890   3.834
68520SOL    HW2 7458   0.866  11.924   3.729
68521SOL     OW 7459   8.830   1.069  14.081
68521SOL    HW1 7460   8.755   1.019  14.113
68521SOL    HW2 7461   8.844   1.037  13.991
68522SOL     OW 7462   2.742   1.450   1.412
68522SOL    HW1 7463   2.821   1.494   1.382
68522SOL    HW2 7464   2.672   1.488   1.359
68523SOL     OW 7465   2.712  11.914   4.113
68523SOL    HW1 7466   2.681  11.891   4.201
68523SOL    HW2 7467   2.738  12.006   4.121
68524SOL     OW 7468   9.033  13.585   1.253
68524SOL    HW1 7469   9.080  13.518   1.303
68524SOL    HW2 7470   9.101  13.645   1.223
68525SOL     OW 7471  14.319   8.784  11.222
68525SOL    HW1 7472  14.389   8.751  11.279
68525SOL    HW2 7473  14.344   8.753  11.135
68526SOL     OW 7474  13.677   3.950   4.718
68526SOL    HW1 7475  13.766   3.985   4.727
68526SOL    HW2 7476  13.685   3.857   4.742
68527SOL     OW 7477  11.798   2.629   1.641
68527SOL    HW1 7478  11.884   2.610   1.679
68527SOL    HW2 7479  11.740   2.562   1.678
68528SOL     OW 7480   3.612   8.585   5.570
68528SOL    HW1 7481   3.693   8.636   5.566
68528SOL    HW2 7482   3.579   8.586   5.479
68529SOL     OW 7483   3.251   6.566   5.204
68529SOL    HW1 7484   3.324   6.571   5.265
68529SOL    HW2 7485   3.292   6.558   5.118
68530SOL     OW 7486   4.333   4.700  14.114
68530SOL    HW1 7487   4.281   4.695  14.033
68530SOL    HW2 7488   4.400   4.632  14.104
68531SOL     OW 7489   3.098  10.926   2.033
68531SOL    HW1 7490   3.081  10.836   2.059
68531SOL    HW2 7491   3.112  10.921   1.938
68532SOL     OW 7492   6.680   0.025   3.429
68532SOL    HW1 7493   6.656  14.815   3.422
68532SOL    HW2 7494   6.689   0.055   3.339
68533SOL     OW 7495  14.674  10.837   6.427
68533SOL    HW1 7496  14.641  10.840   6.337
68533SOL    HW2 7497  14.763  10.872   6.422
68534SOL     OW 7498   6.189   9.102   2.317
68534SOL    HW1 7499   6.208   9.099   2.223
68534SOL    HW2 7500   6.236   9.026   2.353
68535SOL     OW 7501   5.999   5.764   5.532
68535SOL    HW1 7502   6.030   5.700   5.467
68535SOL    HW2 7503   5.987   5.845   5.482
68536SOL     OW 7504  10.424   1.532  13.793
68536SOL    HW1 7505  10.343   1.575  13.763
68536SOL    HW2 7506  10.414   1.441  13.765
68537SOL     OW 7507   1.839   3.780   3.192
68537SOL    HW1 7508   1.758   3.731   3.177
68537SOL    HW2 7509   1.830   3.814   3.281
68538SOL     OW 7510  12.668   3.360   5.492
68538SOL    HW1 7511  12.682   3.440   5.542
68538SOL    HW2 7512  12.722   3.370   5.414
68539SOL     OW 7513   1.912  11.972  12.364
68539SOL    HW1 7514   1.890  11.883  12.335
68539SOL    HW2 7515   2.008  11.974  12.364
68540SOL     OW 7516   2.991   2.459   6.709
68540SOL    HW1 7517   2.904   2.442   6.673
68540SOL    HW2 7518   3.030   2.523   6.649
68541SOL     OW 7519   0.452   9.447   2.577
68541SOL    HW1 7520   0.536   9.408   2.602
68541SOL    HW2 7521   0.404   9.458   2.659
68542SOL     OW 7522   5.746  11.663   7.659
68542SOL    HW1 7523   5.733  11.679   7.753
68542SOL    HW2 7524   5.658  11.669   7.622
68543SOL     OW 7525   1.547   6.401  11.094
68543SOL    HW1 7526   1.595   6.483  11.100
68543SOL    HW2 7527   1.475   6.410  11.156
68544SOL     OW 7528  11.484  12.947   1.901
68544SOL    HW1 7529  11.519  12.933   1.813
68544SOL    HW2 7530  11.540  12.892   1.957
68545SOL     OW 7531   5.157   8.011   2.126
68545SOL    HW1 7532   5.114   7.978   2.047
68545SOL    HW2 7533   5.154   7.937   2.187
68546SOL     OW 7534  11.916   8.257   3.129
68546SOL    HW1 7535  11.924   8.308   3.210
68546SOL    HW2 7536  11.885   8.172   3.157
68547SOL     OW 7537  13.126   8.567   5.662
68547SOL    HW1 7538  13.079   8.647   5.685
68547SOL    HW2 7539  13.189   8.595   5.595
68548SOL     OW 7540   3.971   4.401   5.682
68548SOL    HW1 7541   3.904   4.334   5.698
68548SOL    HW2 7542   3.978   4.448   5.765
68549SOL     OW 7543   2.995  11.457   4.307
68549SOL    HW1 7544   2.999  11.362   4.313
68549SOL    HW2 7545   2.911  11.475   4.266
68550SOL     OW 7546   3.742   2.319   2.409
68550SOL    HW1 7547   3.699   2.371   2.477
68550SOL    HW2 7548   3.814   2.373   2.379
68551SOL     OW 7549  10.924  11.505   3.923
68551SOL    HW1 7550  10.877  11.563   3.862
68551SOL    HW2 7551  10.861  11.437   3.944
68552SOL     OW 7552  14.781   9.401   4.766
68552SOL    HW1 7553  14.864   9.414   4.719
68552SOL    HW2 7554  14.723   9.361   4.701
68553SOL     OW 7555  11.102   9.538  11.504
68553SOL    HW1 7556  11.134   9.465  11.450
68553SOL    HW2 7557  11.077   9.605  11.441
68554SOL     OW 7558  11.894   5.543   0.431
68554SOL    HW1 7559  11.824   5.607   0.435
68554SOL    HW2 7560  11.854   5.461   0.461
68555SOL     OW 7561   2.567   7.043   2.466
68555SOL    HW1 7562   2.620   7.023   2.543
68555SOL    HW2 7563   2.531   6.959   2.439
68556SOL     OW 7564   8.537   9.112  14.646
68556SOL    HW1 7565   8.472   9.178  14.624
68556SOL    HW2 7566   8.613   9.162  14.677
68557SOL     OW 7567  10.517   8.012  12.710
68557SOL    HW1 7568  10.549   8.102  12.709
68557SOL    HW2 7569  10.439   8.015  12.766
68558SOL     OW 7570   9.832  11.046   1.092
68558SOL    HW1 7571   9.896  10.977   1.073
68558SOL    HW2 7572   9.756  11.023   1.039
68559SOL     OW 7573   6.976  10.791   8.909
68559SOL    HW1 7574   6.944  10.701   8.904
68559SOL    HW2 7575   6.902  10.844   8.879
68560SOL     OW 7576  11.991   5.415   4.970
68560SOL    HW1 7577  12.045   5.494   4.976
68560SOL    HW2 7578  12.004   5.371   5.054
68561SOL     OW 7579   1.489   5.677  12.265
68561SOL    HW1 7580   1.520   5.596  12.225
68561SOL    HW2 7581   1.400   5.658  12.293
68562SOL     OW 7582   7.537   5.609  10.245
68562SOL    HW1 7583   7.627   5.583  10.226
68562SOL    HW2 7584   7.545   5.699  10.279
68563SOL     OW 7585  11.286  13.518   7.715
68563SOL    HW1 7586  11.318  13.434   7.683
68563SOL    HW2 7587  11.306  13.517   7.809
68564SOL     OW 7588  12.419  11.333   6.663
68564SOL    HW1 7589  12.338  11.285   6.680
68564SOL    HW2 7590  12.488  11.279   6.701
68565SOL     OW 7591   0.673  14.715   9.768
68565SOL    HW1 7592   0.644  14.799   9.733
68565SOL    HW2 7593   0.687  14.731   9.861
68566SOL     OW 7594   0.790   0.724   7.546
68566SOL    HW1 7595   0.803   0.802   7.601
68566SOL    HW2 7596   0.699   0.700   7.559
68567SOL     OW 7597   0.667   1.558   4.412
68567SOL    HW1 7598   0.676   1.471   4.371
68567SOL    HW2 7599   0.573   1.570   4.420
68568SOL     OW 7600  10.086   0.544   9.343
68568SOL    HW1 7601  10.107   0.553   9.436
68568SOL    HW2 7602  10.155   0.592   9.297
68569SOL     OW 7603  10.246   2.995  10.833
68569SOL    HW1 7604  10.233   2.989  10.738
68569SOL    HW2 7605  10.322   3.053  10.843
68570SOL     OW 7606   5.609   9.593   4.181
68570SOL    HW1 7607   5.629   9.686   4.186
68570SOL    HW2 7608   5.604   9.565   4.272
68571SOL     OW 7609  13.546  13.732  12.100
68571SOL    HW1 7610  13.479  13.718  12.167
68571SOL    HW2 7611  13.563  13.644  12.065
68572SOL     OW 7612   4.359   5.813   1.956
68572SOL    HW1 7613   4.421   5.783   2.023
68572SOL    HW2 7614   4.274   5.788   1.989
68573SOL     OW 7615   9.599   1.971  12.149
68573SOL    HW1 7616   9.682   2.006  12.118
68573SOL    HW2 7617   9.533   2.031  12.114
68574SOL     OW 7618   4.909   5.861   5.604
68574SOL    HW1 7619   4.991   5.881   5.649
68574SOL    HW2 7620   4.896   5.935   5.544
68575SOL     OW 7621   6.259  13.347   9.462
68575SOL    HW1 7622   6.289  13.256   9.459
68575SOL    HW2 7623   6.242  13.370   9.371
68576SOL     OW 7624   6.962   3.943   0.834
68576SOL    HW1 7625   7.022   4.007   0.796
68576SOL    HW2 7626   6.990   3.935   0.925
68577SOL     OW 7627   2.852   1.716   0.141
68577SOL    HW1 7628   2.779   1.777   0.129
68577SOL    HW2 7629   2.837   1.678   0.227
68578SOL     OW 7630  13.662   0.022  12.414
68578SOL    HW1 7631  13.727   0.002  12.482
68578SOL    HW2 7632  13.655  14.823  12.364
68579SOL     OW 7633   1.247   7.981   8.682
68579SOL    HW1 7634   1.281   8.056   8.731
68579SOL    HW2 7635   1.159   8.008   8.656
68580SOL     OW 7636  14.362   8.174   3.699
68580SOL    HW1 7637  14.271   8.159   3.724
68580SOL    HW2 7638  14.361   8.258   3.654
68581SOL     OW 7639   3.771   1.960   4.977
68581SOL    HW1 7640   3.729   1.955   5.063
68581SOL    HW2 7641   3.846   1.902   4.983
68582SOL     OW 7642   2.599   9.484   0.318
68582SOL    HW1 7643   2.592   9.389   0.318
68582SOL    HW2 7644   2.692   9.502   0.302
68583SOL     OW 7645   7.611  11.785  11.257
68583SOL    HW1 7646   7.582  11.754  11.171
68583SOL    HW2 7647   7.670  11.717  11.288
68584SOL     OW 7648  10.423   9.432  11.129
68584SOL    HW1 7649  10.414   9.410  11.222
68584SOL    HW2 7650  10.334   9.456  11.102
68585SOL     OW 7651   1.919   6.964  14.184
68585SOL    HW1 7652   1.933   7.033  14.120
68585SOL    HW2 7653   1.971   6.990  14.260
68586SOL     OW 7654   0.599   2.827  10.341
68586SOL    HW1 7655   0.600   2.745  10.292
68586SOL    HW2 7656   0.637   2.804  10.426
68587SOL     OW 7657   6.244   8.459  13.013
68587SOL    HW1 7658   6.321   8.416  12.975
68587SOL    HW2 7659   6.273   8.548  13.033
68588SOL     OW 7660  13.908   3.912   6.274
68588SOL    HW1 7661  13.945   3.997   6.250
68588SOL    HW2 7662  13.864   3.927   6.358
68589SOL     OW 7663  11.894  10.049   2.492
68589SOL    HW1 7664  11.987  10.031   2.508
68589SOL    HW2 7665  11.849   9.970   2.523
68590SOL     OW 7666   8.558   3.298   5.419
68590SOL    HW1 7667   8.617   3.240   5.371
68590SOL    HW2 7668   8.470   3.266   5.399
68591SOL     OW 7669   2.689   6.299   2.890
68591SOL    HW1 7670   2.653   6.388   2.891
68591SOL    HW2 7671   2.784   6.311   2.900
68592SOL     OW 7672   5.541   8.356   1.542
68592SOL    HW1 7673   5.607   8.292   1.569
68592SOL    HW2 7674   5.591   8.434   1.518
68593SOL     OW 7675   3.343   0.049  12.030
68593SOL    HW1 7676   3.312   0.057  11.940
68593SOL    HW2 7677   3.263   0.045  12.083
68594SOL     OW 7678  10.509  14.716  12.618
68594SOL    HW1 7679  10.468  14.663  12.687
68594SOL    HW2 7680  10.603  14.705  12.633
68595SOL     OW 7681  14.350   6.015   3.782
68595SOL    HW1 7682  14.372   6.070   3.707
68595SOL    HW2 7683  14.336   5.928   3.745
68596SOL     OW 7684   3.158  12.163  12.282
68596SOL    HW1 7685   3.089  12.218  12.317
68596SOL    HW2 7686   3.186  12.209  12.202
68597SOL     OW 7687  12.517  14.051  10.899
68597SOL    HW1 7688  12.568  13.990  10.845
68597SOL    HW2 7689  12.426  14.039  10.869
68598SOL     OW 7690   0.545   9.387   4.817
68598SOL    HW1 7691   0.539   9.468   4.868
68598SOL    HW2 7692   0.555   9.417   4.726
68599SOL     OW 7693   9.557   6.531  12.362
68599SOL    HW1 7694   9.500   6.456  12.380
68599SOL    HW2 7695   9.642   6.505  12.399
68600SOL     OW 7696   3.947  12.156   2.242
68600SOL    HW1 7697   3.973  12.164   2.334
68600SOL    HW2 7698   4.002  12.086   2.207
68601SOL     OW 7699  13.088  13.949  13.248
68601SOL    HW1 7700  13.044  13.965  13.164
68601SOL    HW2 7701  13.045  14.009  13.309
68602SOL     OW 7702  12.806   3.426  10.081
68602SOL    HW1 7703  12.856   3.508  10.077
68602SOL    HW2 7704  12.763   3.428  10.167
68603SOL     OW 7705   5.633   9.035  10.349
68603SOL    HW1 7706   5.679   8.960  10.386
68603SOL    HW2 7707   5.628   9.016  10.255
68604SOL     OW 7708  10.293  13.206   9.496
68604SOL    HW1 7709  10.234  13.204   9.571
68604SOL    HW2 7710  10.289  13.296   9.465
68605SOL     OW 7711  10.619   4.496   3.296
68605SOL    HW1 7712  10.527   4.498   3.270
68605SOL    HW2 7713  10.664   4.546   3.228
68606SOL     OW 7714   9.891   8.018   4.142
68606SOL    HW1 7715   9.965   8.002   4.083
68606SOL    HW2 7716   9.820   7.965   4.105
68607SOL     OW 7717   4.422  13.598   7.497
68607SOL    HW1 7718   4.334  13.605   7.459
68607SOL    HW2 7719   4.409  13.609   7.591
68608SOL     OW 7720  12.532   2.195   3.502
68608SOL    HW1 7721  12.543   2.270   3.444
68608SOL    HW2 7722  12.463   2.222   3.563
68609SOL     OW 7723  11.319   8.607  12.210
68609SOL    HW1 7724  11.277   8.522  12.198
68609SOL    HW2 7725  11.398   8.602  12.157
68610SOL     OW 7726   6.205   9.251   3.623
68610SOL    HW1 7727   6.267   9.204   3.678
68610SOL    HW2 7728   6.202   9.339   3.660
68611SOL     OW 7729   2.059  14.435  13.849
68611SOL    HW1 7730   2.145  14.422  13.809
68611SOL    HW2 7731   2.032  14.523  13.822
68612SOL     OW 7732  10.634   0.844   8.207
68612SOL    HW1 7733  10.603   0.774   8.265
68612SOL    HW2 7734  10.626   0.807   8.119
68613SOL     OW 7735  10.184  10.560   5.801
68613SOL    HW1 7736  10.269  10.522   5.781
68613SOL    HW2 7737  10.145  10.579   5.716
68614SOL     OW 7738   7.961  12.903  13.309
68614SOL    HW1 7739   7.937  12.877  13.220
68614SOL    HW2 7740   8.007  12.986  13.298
68615SOL     OW 7741   1.638   5.724   1.540
68615SOL    HW1 7742   1.640   5.630   1.522
68615SOL    HW2 7743   1.663   5.765   1.457
68616SOL     OW 7744   0.648  14.807   8.906
68616SOL    HW1 7745   0.556  14.800   8.881
68616SOL    HW2 7746   0.684  14.720   8.890
68617SOL     OW 7747   8.758   2.867   7.018
68617SOL    HW1 7748   8.839   2.885   6.971
68617SOL    HW2 7749   8.701   2.941   6.996
68618SOL     OW 7750  12.131   4.566  10.135
68618SOL    HW1 7751  12.142   4.641  10.193
68618SOL    HW2 7752  12.158   4.598  10.049
68619SOL     OW 7753   2.087  14.319  13.240
68619SOL    HW1 7754   1.994  14.323  13.264
68619SOL    HW2 7755   2.129  14.277  13.315
68620SOL     OW 7756   4.437   9.785   9.012
68620SOL    HW1 7757   4.384   9.705   9.005
68620SOL    HW2 7758   4.466   9.786   9.103
68621SOL     OW 7759   6.442   0.203   4.891
68621SOL    HW1 7760   6.499   0.222   4.816
68621SOL    HW2 7761   6.355   0.191   4.852
68622SOL     OW 7762   3.646  12.833   9.835
68622SOL    HW1 7763   3.736  12.824   9.867
68622SOL    HW2 7764   3.616  12.744   9.822
68623SOL     OW 7765   7.110   3.518   4.929
68623SOL    HW1 7766   7.070   3.440   4.967
68623SOL    HW2 7767   7.059   3.591   4.963
68624SOL     OW 7768   0.339   6.690   5.182
68624SOL    HW1 7769   0.323   6.752   5.253
68624SOL    HW2 7770   0.433   6.700   5.163
68625SOL     OW 7771  13.879  13.490  12.295
68625SOL    HW1 7772  13.940  13.555  12.329
68625SOL    HW2 7773  13.927  13.407  12.303
68626SOL     OW 7774   6.859   1.344   6.466
68626SOL    HW1 7775   6.951   1.324   6.452
68626SOL    HW2 7776   6.812   1.275   6.418
68627SOL     OW 7777   3.964   2.210   8.260
68627SOL    HW1 7778   3.984   2.302   8.276
68627SOL    HW2 7779   4.024   2.162   8.317
68628SOL     OW 7780   9.217  13.855   2.377
68628SOL    HW1 7781   9.186  13.927   2.323
68628SOL    HW2 7782   9.297  13.888   2.418
68629SOL     OW 7783  13.857   7.282   8.324
68629SOL    HW1 7784  13.862   7.336   8.403
68629SOL    HW2 7785  13.886   7.339   8.253
68630SOL     OW 7786   6.692   3.056   3.763
68630SOL    HW1 7787   6.610   3.025   3.802
68630SOL    HW2 7788   6.665   3.096   3.680
68631SOL     OW 7789   9.860   3.213   0.736
68631SOL    HW1 7790   9.872   3.225   0.642
68631SOL    HW2 7791   9.837   3.300   0.769
68632SOL     OW 7792  13.586   5.820   1.259
68632SOL    HW1 7793  13.604   5.796   1.350
68632SOL    HW2 7794  13.493   5.846   1.259
68633SOL     OW 7795   8.079  13.151   5.916
68633SOL    HW1 7796   8.161  13.153   5.866
68633SOL    HW2 7797   8.084  13.069   5.966
68634SOL     OW 7798   1.521   3.722   9.706
68634SOL    HW1 7799   1.467   3.765   9.640
68634SOL    HW2 7800   1.570   3.656   9.657
68635SOL     OW 7801  14.351   7.454   6.428
68635SOL    HW1 7802  14.433   7.405   6.422
68635SOL    HW2 7803  14.374   7.543   6.402
68636SOL     OW 7804  10.246   2.529   0.155
68636SOL    HW1 7805  10.243   2.482   0.238
68636SOL    HW2 7806  10.211   2.466   0.091
68637SOL     OW 7807   1.612   1.151   5.236
68637SOL    HW1 7808   1.552   1.084   5.202
68637SOL    HW2 7809   1.698   1.108   5.236
68638SOL     OW 7810  13.940  14.618   8.516
68638SOL    HW1 7811  14.031  14.643   8.502
68638SOL    HW2 7812  13.902  14.615   8.428
68639SOL     OW 7813   1.661   2.854   3.422
68639SOL    HW1 7814   1.717   2.798   3.368
68639SOL    HW2 7815   1.638   2.927   3.365
68640SOL     OW 7816   6.865  11.228  12.727
68640SOL    HW1 7817   6.942  11.173  12.712
68640SOL    HW2 7818   6.836  11.204  12.816
68641SOL     OW 7819   8.204   7.230   3.586
68641SOL    HW1 7820   8.158   7.311   3.610
68641SOL    HW2 7821   8.277   7.225   3.648
68642SOL     OW 7822   9.645  10.045   5.549
68642SOL    HW1 7823   9.701  10.049   5.471
68642SOL    HW2 7824   9.620   9.953   5.555
68643SOL     OW 7825  12.181  12.503  13.089
68643SOL    HW1 7826  12.093  12.512  13.125
68643SOL    HW2 7827  12.174  12.538  13.000
68644SOL     OW 7828   0.861   9.270   7.360
68644SOL    HW1 7829   0.790   9.279   7.423
68644SOL    HW2 7830   0.919   9.204   7.398
68645SOL     OW 7831   4.550   3.277  14.743
68645SOL    HW1 7832   4.498   3.197  14.753
68645SOL    HW2 7833   4.490   3.348  14.764
68646SOL     OW 7834   2.043   7.967   8.846
68646SOL    HW1 7835   2.030   8.030   8.775
68646SOL    HW2 7836   1.998   8.007   8.921
68647SOL     OW 7837   5.943   9.463   8.332
68647SOL    HW1 7838   5.963   9.533   8.395
68647SOL    HW2 7839   6.008   9.474   8.263
68648SOL     OW 7840  11.154  14.132  13.591
68648SOL    HW1 7841  11.171  14.065  13.658
68648SOL    HW2 7842  11.060  14.128  13.577
68649SOL     OW 7843   1.074   8.475  13.376
68649SOL    HW1 7844   1.012   8.469  13.449
68649SOL    HW2 7845   1.021   8.501  13.301
68650SOL     OW 7846   1.732  12.455   2.925
68650SOL    HW1 7847   1.649  12.464   2.972
68650SOL    HW2 7848   1.743  12.360   2.915
68651SOL     OW 7849  12.713   0.452  13.827
68651SOL    HW1 7850  12.787   0.395  13.851
68651SOL    HW2 7851  12.639   0.416  13.875
68652SOL     OW 7852   5.750  11.922  12.025
68652SOL    HW1 7853   5.718  11.962  12.106
68652SOL    HW2 7854   5.715  11.832  12.028
68653SOL     OW 7855   9.606  10.776  10.675
68653SOL    HW1 7856   9.554  10.744  10.749
68653SOL    HW2 7857   9.685  10.813  10.716
68654SOL     OW 7858   5.351   9.208  11.529
68654SOL    HW1 7859   5.442   9.199  11.504
68654SOL    HW2 7860   5.326   9.121  11.561
68655SOL     OW 7861  11.172   5.974   4.721
68655SOL    HW1 7862  11.140   5.892   4.683
68655SOL    HW2 7863  11.263   5.956   4.743
68656SOL     OW 7864   1.113  14.697   2.061
68656SOL    HW1 7865   1.092  14.790   2.047
68656SOL    HW2 7866   1.159  14.695   2.145
68657SOL     OW 7867  12.046  12.586   8.966
68657SOL    HW1 7868  12.098  12.514   8.930
68657SOL    HW2 7869  12.039  12.649   8.894
68658SOL     OW 7870   9.827   3.431  14.434
68658SOL    HW1 7871   9.733   3.427  14.449
68658SOL    HW2 7872   9.839   3.395  14.346
68659SOL     OW 7873   7.063   3.539   1.313
68659SOL    HW1 7874   7.008   3.546   1.235
68659SOL    HW2 7875   7.093   3.448   1.313
68660SOL     OW 7876  13.399   2.334  13.401
68660SOL    HW1 7877  13.389   2.351  13.307
68660SOL    HW2 7878  13.449   2.252  13.405
68661SOL     OW 7879   5.195  12.990   0.671
68661SOL    HW1 7880   5.250  13.054   0.626
68661SOL    HW2 7881   5.151  13.040   0.740
68662SOL     OW 7882  11.398   1.458   6.553
68662SOL    HW1 7883  11.387   1.553   6.548
68662SOL    HW2 7884  11.447   1.443   6.634
68663SOL     OW 7885  14.189   2.020   2.120
68663SOL    HW1 7886  14.190   2.033   2.025
68663SOL    HW2 7887  14.255   2.080   2.154
68664SOL     OW 7888   5.517  12.044   0.644
68664SOL    HW1 7889   5.529  12.133   0.677
68664SOL    HW2 7890   5.544  11.987   0.716
68665SOL     OW 7891  11.770   8.245  14.166
68665SOL    HW1 7892  11.709   8.313  14.137
68665SOL    HW2 7893  11.720   8.163  14.158
68666SOL     OW 7894  10.634   2.864   8.095
68666SOL    HW1 7895  10.687   2.941   8.075
68666SOL    HW2 7896  10.630   2.815   8.013
68667SOL     OW 7897   3.805  12.198   9.426
68667SOL    HW1 7898   3.834  12.204   9.517
68667SOL    HW2 7899   3.869  12.140   9.384
68668SOL     OW 7900  14.267   0.844   3.763
68668SOL    HW1 7901  14.197   0.836   3.698
68668SOL    HW2 7902  14.347   0.855   3.710
68669SOL     OW 7903  11.056   5.601   2.657
68669SOL    HW1 7904  11.137   5.624   2.703
68669SOL    HW2 7905  11.086   5.551   2.581
68670SOL     OW 7906   9.303   7.188   0.867
68670SOL    HW1 7907   9.326   7.202   0.776
68670SOL    HW2 7908   9.207   7.189   0.868
68671SOL     OW 7909   3.574   1.776  13.186
68671SOL    HW1 7910   3.533   1.853  13.147
68671SOL    HW2 7911   3.501   1.723  13.217
68672SOL     OW 7912  13.371  12.066   2.261
68672SOL    HW1 7913  13.458  12.063   2.299
68672SOL    HW2 7914  13.343  11.975   2.257
68673SOL     OW 7915   5.935  14.182  14.174
68673SOL    HW1 7916   5.931  14.093  14.138
68673SOL    HW2 7917   5.918  14.239  14.099
68674SOL     OW 7918  14.722   8.856  11.697
68674SOL    HW1 7919  14.741   8.913  11.772
68674SOL    HW2 7920  14.808   8.836  11.660
68675SOL     OW 7921   0.566   3.231  11.171
68675SOL    HW1 7922   0.483   3.256  11.128
68675SOL    HW2 7923   0.539   3.181  11.247
68676SOL     OW 7924   0.934  10.722   5.802
68676SOL    HW1 7925   1.003  10.787   5.814
68676SOL    HW2 7926   0.951  10.685   5.715
68677SOL     OW 7927   3.004   2.307   3.141
68677SOL    HW1 7928   2.978   2.229   3.092
68677SOL    HW2 7929   2.922   2.349   3.167
68678SOL     OW 7930   4.336   2.662   7.538
68678SOL    HW1 7931   4.364   2.620   7.620
68678SOL    HW2 7932   4.242   2.644   7.534
68679SOL     OW 7933  11.788   6.400  10.901
68679SOL    HW1 7934  11.852   6.409  10.973
68679SOL    HW2 7935  11.752   6.488  10.890
68680SOL     OW 7936  14.720  14.147  10.367
68680SOL    HW1 7937  14.766  14.198  10.300
68680SOL    HW2 7938  14.674  14.079  10.319
68681SOL     OW 7939   1.945  12.604   1.860
68681SOL    HW1 7940   1.885  12.591   1.933
68681SOL    HW2 7941   2.012  12.665   1.894
68682SOL     OW 7942  14.263  14.558   1.762
68682SOL    HW1 7943  14.309  14.475   1.766
68682SOL    HW2 7944  14.175  14.539   1.797
68683SOL     OW 7945   1.943  14.242   2.637
68683SOL    HW1 7946   1.994  14.321   2.651
68683SOL    HW2 7947   1.854  14.273   2.625
68684SOL     OW 7948  13.316  11.618  11.517
68684SOL    HW1 7949  13.243  11.560  11.536
68684SOL    HW2 7950  13.388  11.584  11.569
68685SOL     OW 7951  13.111   3.067  13.951
68685SOL    HW1 7952  13.060   3.059  13.870
68685SOL    HW2 7953  13.202   3.073  13.922
68686SOL     OW 7954   0.994   7.841  14.172
68686SOL    HW1 7955   1.040   7.837  14.088
68686SOL    HW2 7956   0.977   7.934  14.185
68687SOL     OW 7957   2.454   5.298   3.464
68687SOL    HW1 7958   2.422   5.386   3.446
68687SOL    HW2 7959   2.531   5.310   3.518
68688SOL     OW 7960   2.131  13.961  13.123
68688SOL    HW1 7961   2.104  13.906  13.197
68688SOL    HW2 7962   2.226  13.957  13.124
68689SOL     OW 7963   2.702  13.484   3.699
68689SOL    HW1 7964   2.692  13.573   3.667
68689SOL    HW2 7965   2.753  13.492   3.779
68690SOL     OW 7966   8.970  13.844   1.561
68690SOL    HW1 7967   9.033  13.899   1.515
68690SOL    HW2 7968   8.885  13.877   1.534
68691SOL     OW 7969   0.822  10.142   0.076
68691SOL    HW1 7970   0.743  10.151   0.129
68691SOL    HW2 7971   0.894  10.141   0.140
68692SOL     OW 7972   4.099   4.090   5.436
68692SOL    HW1 7973   4.130   4.179   5.449
68692SOL    HW2 7974   4.058   4.091   5.349
68693SOL     OW 7975   8.452   7.850   5.601
68693SOL    HW1 7976   8.453   7.822   5.509
68693SOL    HW2 7977   8.408   7.935   5.599
68694SOL     OW 7978   5.840   7.793  11.962
68694SOL    HW1 7979   5.825   7.718  12.019
68694SOL    HW2 7980   5.800   7.867  12.008
68695SOL     OW 7981  12.536   4.283   4.395
68695SOL    HW1 7982  12.541   4.281   4.300
68695SOL    HW2 7983  12.444   4.265   4.415
68696SOL     OW 7984   0.711  12.547  11.602
68696SOL    HW1 7985   0.645  12.604  11.641
68696SOL    HW2 7986   0.793  12.574  11.643
68697SOL     OW 7987   6.176  11.994   1.106
68697SOL    HW1 7988   6.198  12.082   1.137
68697SOL    HW2 7989   6.261  11.951   1.096
68698SOL     OW 7990   3.756   9.871  13.997
68698SOL    HW1 7991   3.788   9.782  14.008
68698SOL    HW2 7992   3.834   9.922  13.974
68699SOL     OW 7993  13.302   6.437  14.635
68699SOL    HW1 7994  13.300   6.425  14.540
68699SOL    HW2 7995  13.211   6.431  14.662
68700SOL     OW 7996   0.915   3.370   9.106
68700SOL    HW1 7997   0.857   3.429   9.153
68700SOL    HW2 7998   0.857   3.302   9.070
68701SOL     OW 7999   5.051   9.965  12.191
68701SOL    HW1 8000   4.956   9.972  12.194
68701SOL    HW2 8001   5.073   9.972  12.098
68702SOL     OW 8002   8.269  14.585   0.137
68702SOL    HW1 8003   8.314  14.670   0.132
68702SOL    HW2 8004   8.326  14.531   0.193
68703SOL     OW 8005  12.183   0.053  13.761
68703SOL    HW1 8006  12.255   0.116  13.761
68703SOL    HW2 8007  12.152   0.053  13.852
68704SOL     OW 8008   5.668   9.769   2.338
68704SOL    HW1 8009   5.644   9.700   2.276
68704SOL    HW2 8010   5.585   9.799   2.374
68705SOL     OW 8011   1.453   5.953  11.471
68705SOL    HW1 8012   1.442   6.047  11.481
68705SOL    HW2 8013   1.531   5.943  11.417
68706SOL     OW 8014  12.106   0.422  12.243
68706SOL    HW1 8015  12.175   0.488  12.250
68706SOL    HW2 8016  12.058   0.429  12.326
68707SOL     OW 8017  14.295   7.369   3.862
68707SOL    HW1 8018  14.271   7.390   3.952
68707SOL    HW2 8019  14.212   7.372   3.814
68708SOL     OW 8020   1.579   8.246   9.035
68708SOL    HW1 8021   1.636   8.242   8.959
68708SOL    HW2 8022   1.506   8.188   9.013
68709SOL     OW 8023  13.257   4.573  12.563
68709SOL    HW1 8024  13.163   4.592  12.559
68709SOL    HW2 8025  13.287   4.580  12.473
68710SOL     OW 8026   5.355   0.156   5.100
68710SOL    HW1 8027   5.298   0.085   5.130
68710SOL    HW2 8028   5.383   0.199   5.181
68711SOL     OW 8029  11.624   4.101   2.220
68711SOL    HW1 8030  11.586   4.170   2.273
68711SOL    HW2 8031  11.695   4.066   2.273
68712SOL     OW 8032   5.449   9.130   9.448
68712SOL    HW1 8033   5.522   9.170   9.494
68712SOL    HW2 8034   5.478   9.125   9.357
68713SOL     OW 8035  12.073  12.587  14.118
68713SOL    HW1 8036  12.150  12.641  14.135
68713SOL    HW2 8037  12.074  12.520  14.186
68714SOL     OW 8038   7.562   1.251   7.081
68714SOL    HW1 8039   7.611   1.315   7.029
68714SOL    HW2 8040   7.613   1.243   7.162
68715SOL     OW 8041  13.460   2.038  13.854
68715SOL    HW1 8042  13.412   2.038  13.771
68715SOL    HW2 8043  13.394   2.061  13.919
68716SOL     OW 8044   0.910  11.183  14.036
68716SOL    HW1 8045   0.926  11.100  13.990
68716SOL    HW2 8046   0.991  11.233  14.026
68717SOL     OW 8047   5.024   1.572  13.253
68717SOL    HW1 8048   4.934   1.540  13.246
68717SOL    HW2 8049   5.026   1.652  13.200
68718SOL     OW 8050   1.378  12.150  10.785
68718SOL    HW1 8051   1.459  12.165  10.737
68718SOL    HW2 8052   1.371  12.224  10.845
68719SOL     OW 8053  12.061   4.506  13.694
68719SOL    HW1 8054  12.153   4.494  13.670
68719SOL    HW2 8055  12.014   4.443  13.640
68720SOL     OW 8056  12.577   6.599  12.671
68720SOL    HW1 8057  12.564   6.680  12.719
68720SOL    HW2 8058  12.634   6.547  12.727
68721SOL     OW 8059  13.745   5.341   4.637
68721SOL    HW1 8060  13.673   5.280   4.652
68721SOL    HW2 8061  13.741   5.360   4.543
68722SOL     OW 8062   3.254   8.624  12.336
68722SOL    HW1 8063   3.233   8.538  12.372
68722SOL    HW2 8064   3.334   8.611  12.286
68723SOL     OW 8065  12.089   4.365   5.913
68723SOL    HW1 8066  12.043   4.449   5.906
68723SOL    HW2 8067  12.023   4.300   5.893
68724SOL     OW 8068   2.474   5.098   1.560
68724SOL    HW1 8069   2.555   5.148   1.569
68724SOL    HW2 8070   2.410   5.161   1.527
68725SOL     OW 8071   4.194  11.841  10.557
68725SOL    HW1 8072   4.247  11.866  10.632
68725SOL    HW2 8073   4.256  11.799  10.497
68726SOL     OW 8074   7.874   2.455  13.698
68726SOL    HW1 8075   7.959   2.489  13.669
68726SOL    HW2 8076   7.831   2.530  13.739
68727SOL     OW 8077   9.323   6.800   9.566
68727SOL    HW1 8078   9.249   6.770   9.514
68727SOL    HW2 8079   9.399   6.787   9.509
68728SOL     OW 8080   1.338   4.556   6.122
68728SOL    HW1 8081   1.373   4.544   6.034
68728SOL    HW2 8082   1.255   4.602   6.108
68729SOL     OW 8083   6.813   0.884   7.727
68729SOL    HW1 8084   6.869   0.920   7.795
68729SOL    HW2 8085   6.788   0.797   7.760
68730SOL     OW 8086   2.841   4.473   4.510
68730SOL    HW1 8087   2.902   4.469   4.584
68730SOL    HW2 8088   2.843   4.564   4.482
68731SOL     OW 8089  11.401   3.475   1.904
68731SOL    HW1 8090  11.358   3.553   1.940
68731SOL    HW2 8091  11.429   3.501   1.816
68732SOL     OW 8092   0.498   9.561   5.402
68732SOL    HW1 8093   0.470   9.470   5.391
68732SOL    HW2 8094   0.473   9.583   5.492
68733SOL     OW 8095  10.841   0.127   2.596
68733SOL    HW1 8096  10.783   0.168   2.659
68733SOL    HW2 8097  10.786   0.110   2.519
68734SOL     OW 8098  10.750   2.758   8.633
68734SOL    HW1 8099  10.688   2.691   8.661
68734SOL    HW2 8100  10.699   2.816   8.577
68735SOL     OW 8101   5.774  14.545  14.773
68735SOL    HW1 8102   5.687  14.551  14.812
68735SOL    HW2 8103   5.834  14.550  14.847
68736SOL     OW 8104  12.368   3.660   3.395
68736SOL    HW1 8105  12.456   3.642   3.364
68736SOL    HW2 8106  12.328   3.574   3.407
68737SOL     OW 8107  14.727  11.893  11.894
68737SOL    HW1 8108  14.711  11.810  11.849
68737SOL    HW2 8109  14.815  11.884  11.930
68738SOL     OW 8110  13.022   2.071   2.165
68738SOL    HW1 8111  12.979   2.142   2.117
68738SOL    HW2 8112  13.008   1.994   2.111
68739SOL     OW 8113   3.254   7.528   1.718
68739SOL    HW1 8114   3.212   7.607   1.686
68739SOL    HW2 8115   3.275   7.547   1.810
68740SOL     OW 8116   0.124  14.198  14.008
68740SOL    HW1 8117   0.154  14.262  14.073
68740SOL    HW2 8118   0.045  14.160  14.047
68741SOL     OW 8119   6.834   9.689   2.893
68741SOL    HW1 8120   6.877   9.739   2.963
68741SOL    HW2 8121   6.853   9.738   2.813
68742SOL     OW 8122  11.900   0.413  10.438
68742SOL    HW1 8123  11.965   0.375  10.379
68742SOL    HW2 8124  11.925   0.383  10.525
68743SOL     OW 8125  11.837  13.259  13.100
68743SOL    HW1 8126  11.850  13.338  13.152
68743SOL    HW2 8127  11.926  13.234  13.073
68744SOL     OW 8128   5.612   3.968   2.249
68744SOL    HW1 8129   5.650   3.979   2.161
68744SOL    HW2 8130   5.520   3.947   2.232
68745SOL     OW 8131   1.902  10.038   7.107
68745SOL    HW1 8132   1.810  10.030   7.135
68745SOL    HW2 8133   1.919  10.133   7.109
68746SOL     OW 8134   5.955  11.689  14.600
68746SOL    HW1 8135   5.946  11.783  14.615
68746SOL    HW2 8136   5.953  11.651  14.688
68747SOL     OW 8137   9.388  14.359   7.841
68747SOL    HW1 8138   9.334  14.280   7.842
68747SOL    HW2 8139   9.470  14.331   7.801
68748SOL     OW 8140   1.672   9.999   3.484
68748SOL    HW1 8141   1.751   9.988   3.537
68748SOL    HW2 8142   1.699  10.061   3.415
68749SOL     OW 8143   1.239  11.598  14.858
68749SOL    HW1 8144   1.203  11.596   0.065
68749SOL    HW2 8145   1.202  11.677  14.819
68750SOL     OW 8146  13.977  12.059   9.930
68750SOL    HW1 8147  13.900  12.109   9.904
68750SOL    HW2 8148  13.994  12.084  10.021
68751SOL     OW 8149  12.314   6.325   4.101
68751SOL    HW1 8150  12.220   6.309   4.112
68751SOL    HW2 8151  12.319   6.415   4.067
68752SOL     OW 8152   4.203  14.572   6.683
68752SOL    HW1 8153   4.213  14.650   6.628
68752SOL    HW2 8154   4.142  14.517   6.634
68753SOL     OW 8155   1.165   1.305   5.384
68753SOL    HW1 8156   1.231   1.303   5.452
68753SOL    HW2 8157   1.141   1.213   5.371
68754SOL     OW 8158  14.706   9.207  10.765
68754SOL    HW1 8159  14.632   9.158  10.803
68754SOL    HW2 8160  14.751   9.143  10.711
68755SOL     OW 8161   8.561  11.850   1.423
68755SOL    HW1 8162   8.465  11.854   1.416
68755SOL    HW2 8163   8.582  11.905   1.499
68756SOL     OW 8164   0.416   7.341  10.803
68756SOL    HW1 8165   0.413   7.385  10.718
68756SOL    HW2 8166   0.329   7.300  10.812
68757SOL     OW 8167   4.661  11.493   6.649
68757SOL    HW1 8168   4.754  11.489   6.629
68757SOL    HW2 8169   4.624  11.414   6.612
68758SOL     OW 8170  11.403   0.546   5.827
68758SOL    HW1 8171  11.369   0.458   5.846
68758SOL    HW2 8172  11.325   0.597   5.805
68759SOL     OW 8173   1.977   0.260   8.572
68759SOL    HW1 8174   1.970   0.346   8.615
68759SOL    HW2 8175   1.998   0.200   8.643
68760SOL     OW 8176   7.096  10.972   2.511
68760SOL    HW1 8177   7.076  10.917   2.587
68760SOL    HW2 8178   7.120  10.909   2.442
68761SOL     OW 8179   0.784   4.131   8.426
68761SOL    HW1 8180   0.751   4.042   8.412
68761SOL    HW2 8181   0.778   4.173   8.341
68762SOL     OW 8182  10.184  11.106   9.918
68762SOL    HW1 8183  10.120  11.130   9.852
68762SOL    HW2 8184  10.183  11.178   9.981
68763SOL     OW 8185   7.001   3.936   1.314
68763SOL    HW1 8186   7.053   3.969   1.387
68763SOL    HW2 8187   6.956   3.860   1.349
68764SOL     OW 8188  12.741   3.002   4.364
68764SOL    HW1 8189  12.713   2.921   4.406
68764SOL    HW2 8190  12.827   2.982   4.329
68765SOL     OW 8191  14.648  13.009   9.961
68765SOL    HW1 8192  14.597  13.022  10.041
68765SOL    HW2 8193  14.644  12.914   9.945
68766SOL     OW 8194   2.896   2.831   0.077
68766SOL    HW1 8195   2.991   2.824   0.085
68766SOL    HW2 8196   2.864   2.824   0.167
68767SOL     OW 8197  13.830   0.572   7.379
68767SOL    HW1 8198  13.837   0.484   7.416
68767SOL    HW2 8199  13.745   0.572   7.334
68768SOL     OW 8200   0.607   0.595  12.018
68768SOL    HW1 8201   0.622   0.525  11.954
68768SOL    HW2 8202   0.650   0.565  12.098
68769SOL     OW 8203  10.638   1.258   1.952
68769SOL    HW1 8204  10.704   1.194   1.928
68769SOL    HW2 8205  10.676   1.305   2.027
68770SOL     OW 8206   5.045  11.695   2.859
68770SOL    HW1 8207   5.134  11.661   2.853
68770SOL    HW2 8208   5.014  11.698   2.769
68771SOL     OW 8209   3.822   3.836  12.692
68771SOL    HW1 8210   3.788   3.919  12.658
68771SOL    HW2 8211   3.814   3.775  12.620
68772SOL     OW 8212   6.060  13.579   1.408
68772SOL    HW1 8213   6.134  13.546   1.458
68772SOL    HW2 8214   6.048  13.515   1.337
68773SOL     OW 8215  10.440   8.272  13.734
68773SOL    HW1 8216  10.509   8.322  13.779
68773SOL    HW2 8217  10.380   8.338  13.700
68774SOL     OW 8218   3.298   6.912   9.466
68774SOL    HW1 8219   3.343   6.967   9.531
68774SOL    HW2 8220   3.219   6.962   9.444
68775SOL     OW 8221  11.124   0.627   8.170
68775SOL    HW1 8222  11.115   0.678   8.250
68775SOL    HW2 8223  11.112   0.690   8.100
68776SOL     OW 8224   3.626   3.874   6.375
68776SOL    HW1 8225   3.681   3.844   6.447
68776SOL    HW2 8226   3.661   3.961   6.353
68777SOL     OW 8227   4.636   2.900   9.549
68777SOL    HW1 8228   4.681   2.822   9.516
68777SOL    HW2 8229   4.553   2.902   9.501
68778SOL     OW 8230   7.892   7.061   0.055
68778SOL    HW1 8231   7.881   7.033   0.147
68778SOL    HW2 8232   7.815   7.115   0.038
68779SOL     OW 8233   4.345   6.285  13.630
68779SOL    HW1 8234   4.311   6.372  13.650
68779SOL    HW2 8235   4.277   6.225  13.661
68780SOL     OW 8236   6.842   1.096   8.328
68780SOL    HW1 8237   6.889   1.061   8.404
68780SOL    HW2 8238   6.799   1.175   8.360
68781SOL     OW 8239   9.785   7.313  13.706
68781SOL    HW1 8240   9.756   7.299  13.796
68781SOL    HW2 8241   9.737   7.391  13.677
68782SOL     OW 8242  10.845   0.938  14.345
68782SOL    HW1 8243  10.755   0.967  14.355
68782SOL    HW2 8244  10.872   0.911  14.432
68783SOL     OW 8245   7.750  12.337  10.888
68783SOL    HW1 8246   7.840  12.363  10.911
68783SOL    HW2 8247   7.697  12.413  10.911
68784SOL     OW 8248   3.447  13.951   9.835
68784SOL    HW1 8249   3.450  13.861   9.803
68784SOL    HW2 8250   3.474  14.004   9.760
68785SOL     OW 8251   0.231  14.306   8.042
68785SOL    HW1 8252   0.156  14.247   8.028
68785SOL    HW2 8253   0.287  14.292   7.966
68786SOL     OW 8254  13.634   1.234   4.443
68786SOL    HW1 8255  13.702   1.300   4.433
68786SOL    HW2 8256  13.563   1.280   4.489
68787SOL     OW 8257   6.951  13.216   0.001
68787SOL    HW1 8258   7.032  13.211   0.053
68787SOL    HW2 8259   6.970  13.282  14.816
68788SOL     OW 8260   7.966   4.855   3.340
68788SOL    HW1 8261   8.025   4.794   3.295
68788SOL    HW2 8262   7.884   4.807   3.348
68789SOL     OW 8263   4.769  10.509  10.411
68789SOL    HW1 8264   4.683  10.467  10.406
68789SOL    HW2 8265   4.821  10.466  10.344
68790SOL     OW 8266  11.464   6.953   4.674
68790SOL    HW1 8267  11.511   6.920   4.750
68790SOL    HW2 8268  11.381   6.984   4.710
68791SOL     OW 8269  10.162   5.767   9.140
68791SOL    HW1 8270  10.246   5.811   9.126
68791SOL    HW2 8271  10.115   5.824   9.201
68792SOL     OW 8272  12.649  13.872   2.125
68792SOL    HW1 8273  12.667  13.943   2.063
68792SOL    HW2 8274  12.710  13.887   2.197
68793SOL     OW 8275  13.413   2.323  13.123
68793SOL    HW1 8276  13.365   2.241  13.111
68793SOL    HW2 8277  13.385   2.378  13.051
68794SOL     OW 8278   0.437   0.663   0.962
68794SOL    HW1 8279   0.488   0.737   0.993
68794SOL    HW2 8280   0.447   0.666   0.867
68795SOL     OW 8281   3.207   6.956   8.373
68795SOL    HW1 8282   3.169   7.009   8.303
68795SOL    HW2 8283   3.302   6.968   8.362
68796SOL     OW 8284   9.492   0.910  10.184
68796SOL    HW1 8285   9.429   0.982  10.177
68796SOL    HW2 8286   9.532   0.904  10.098
68797SOL     OW 8287  12.767  10.397   3.835
68797SOL    HW1 8288  12.862  10.405   3.821
68797SOL    HW2 8289  12.737  10.487   3.848
68798SOL     OW 8290   3.158  11.898   5.026
68798SOL    HW1 8291   3.069  11.931   5.011
68798SOL    HW2 8292   3.168  11.899   5.121
68799SOL     OW 8293   6.360   4.402   8.053
68799SOL    HW1 8294   6.361   4.472   7.988
68799SOL    HW2 8295   6.358   4.321   8.000
68800SOL     OW 8296   6.603  10.353   1.842
68800SOL    HW1 8297   6.634  10.280   1.895
68800SOL    HW2 8298   6.648  10.343   1.758
68801SOL     OW 8299   0.114   1.121   3.519
68801SOL    HW1 8300   0.115   1.115   3.615
68801SOL    HW2 8301   0.039   1.068   3.493
68802SOL     OW 8302   5.039  13.995   9.034
68802SOL    HW1 8303   5.004  13.943   9.105
68802SOL    HW2 8304   5.090  13.934   8.981
68803SOL     OW 8305   5.962   8.229   2.862
68803SOL    HW1 8306   6.023   8.176   2.812
68803SOL    HW2 8307   6.006   8.314   2.872
68804SOL     OW 8308   3.608   3.636  14.031
68804SOL    HW1 8309   3.608   3.647  13.935
68804SOL    HW2 8310   3.589   3.543  14.044
68805SOL     OW 8311   8.140   2.933  10.452
68805SOL    HW1 8312   8.193   2.910  10.376
68805SOL    HW2 8313   8.195   2.995  10.501
68806SOL     OW 8314   7.880   2.881  10.394
68806SOL    HW1 8315   7.974   2.888  10.410
68806SOL    HW2 8316   7.842   2.957  10.438
68807SOL     OW 8317  11.489   1.365   9.989
68807SOL    HW1 8318  11.529   1.428  10.049
68807SOL    HW2 8319  11.418   1.325  10.040
68808SOL     OW 8320  14.335   0.584   3.869
68808SOL    HW1 8321  14.422   0.571   3.833
68808SOL    HW2 8322  14.300   0.660   3.821
68809SOL     OW 8323  11.768   9.856   9.595
68809SOL    HW1 8324  11.847   9.854   9.541
68809SOL    HW2 8325  11.706   9.798   9.551
68810SOL     OW 8326   1.643   6.812   5.767
68810SOL    HW1 8327   1.620   6.836   5.856
68810SOL    HW2 8328   1.685   6.726   5.775
68811SOL     OW 8329   8.901   0.370   5.684
68811SOL    HW1 8330   8.861   0.417   5.757
68811SOL    HW2 8331   8.956   0.303   5.725
68812SOL     OW 8332  11.573   3.261  13.654
68812SOL    HW1 8333  11.487   3.278  13.616
68812SOL    HW2 8334  11.583   3.166  13.649
68813SOL     OW 8335  11.843  10.264   7.923
68813SOL    HW1 8336  11.884  10.344   7.891
68813SOL    HW2 8337  11.802  10.289   8.006
68814SOL     OW 8338   1.574   2.403   9.142
68814SOL    HW1 8339   1.577   2.459   9.220
68814SOL    HW2 8340   1.493   2.354   9.151
68815SOL     OW 8341   9.647   5.736   5.044
68815SOL    HW1 8342   9.592   5.814   5.043
68815SOL    HW2 8343   9.620   5.689   5.123
68816SOL     OW 8344   4.644   2.858   0.062
68816SOL    HW1 8345   4.721   2.817   0.022
68816SOL    HW2 8346   4.613   2.920  14.879
68817SOL     OW 8347   3.756  14.623   5.954
68817SOL    HW1 8348   3.732  14.715   5.942
68817SOL    HW2 8349   3.774  14.615   6.048
68818SOL     OW 8350   1.935   4.728   5.736
68818SOL    HW1 8351   2.013   4.752   5.785
68818SOL    HW2 8352   1.968   4.685   5.657
68819SOL     OW 8353   6.618   6.351   2.107
68819SOL    HW1 8354   6.680   6.379   2.174
68819SOL    HW2 8355   6.572   6.432   2.083
68820SOL     OW 8356   1.598  12.058  10.349
68820SOL    HW1 8357   1.600  12.006  10.430
68820SOL    HW2 8358   1.517  12.033  10.306
68821SOL     OW 8359   9.103   9.309   0.642
68821SOL    HW1 8360   9.024   9.255   0.638
68821SOL    HW2 8361   9.167   9.260   0.591
68822SOL     OW 8362  14.551  14.049   4.714
68822SOL    HW1 8363  14.645  14.063   4.712
68822SOL    HW2 8364  14.521  14.068   4.625
68823SOL     OW 8365   4.781  13.918   6.583
68823SOL    HW1 8366   4.869  13.951   6.567
68823SOL    HW2 8367   4.727  13.958   6.515
68824SOL     OW 8368   5.322   2.901   4.859
68824SOL    HW1 8369   5.297   2.984   4.900
68824SOL    HW2 8370   5.296   2.912   4.767
68825SOL     OW 8371   8.696  11.057   5.650
68825SOL    HW1 8372   8.757  10.996   5.607
68825SOL    HW2 8373   8.687  11.022   5.739
68826SOL     OW 8374   1.446  12.122   0.293
68826SOL    HW1 8375   1.351  12.127   0.283
68826SOL    HW2 8376   1.463  12.031   0.316
68827SOL     OW 8377  13.304   1.636   1.182
68827SOL    HW1 8378  13.367   1.580   1.136
68827SOL    HW2 8379  13.323   1.623   1.275
68828SOL     OW 8380   8.551  14.446   7.551
68828SOL    HW1 8381   8.607  14.412   7.622
68828SOL    HW2 8382   8.465  14.407   7.567
68829SOL     OW 8383   1.776  12.649   5.630
68829SOL    HW1 8384   1.784  12.584   5.561
68829SOL    HW2 8385   1.738  12.726   5.587
68830SOL     OW 8386   3.350  11.077  11.325
68830SOL    HW1 8387   3.431  11.114  11.290
68830SOL    HW2 8388   3.285  11.147  11.315
68831SOL     OW 8389   0.161   7.022   9.859
68831SOL    HW1 8390   0.224   7.045   9.927
68831SOL    HW2 8391   0.101   7.096   9.856
68832SOL     OW 8392   7.700   8.797   8.545
68832SOL    HW1 8393   7.636   8.740   8.502
68832SOL    HW2 8394   7.698   8.770   8.637
68833SOL     OW 8395   6.114  11.085   3.911
68833SOL    HW1 8396   6.162  11.017   3.958
68833SOL    HW2 8397   6.127  11.164   3.963
68834SOL     OW 8398  13.762   7.960   6.441
68834SOL    HW1 8399  13.848   7.996   6.465
68834SOL    HW2 8400  13.736   8.011   6.364
68835SOL     OW 8401  10.362  13.666  10.588
68835SOL    HW1 8402  10.443  13.677  10.538
68835SOL    HW2 8403  10.309  13.607  10.534
68836SOL     OW 8404   6.100   1.964   1.769
68836SOL    HW1 8405   6.108   1.912   1.689
68836SOL    HW2 8406   6.185   2.006   1.779
68837SOL     OW 8407   2.912   6.406  14.420
68837SOL    HW1 8408   2.861   6.342  14.372
68837SOL    HW2 8409   2.861   6.423  14.499
68838SOL     OW 8410   9.506   1.575   9.845
68838SOL    HW1 8411   9.513   1.484   9.815
68838SOL    HW2 8412   9.515   1.568   9.941
68839SOL     OW 8413   7.412   0.041   7.251
68839SOL    HW1 8414   7.376   0.128   7.270
68839SOL    HW2 8415   7.438   0.007   7.337
68840SOL     OW 8416   1.702  11.755   6.055
68840SOL    HW1 8417   1.631  11.813   6.080
68840SOL    HW2 8418   1.675  11.717   5.972
68841SOL     OW 8419  12.140   3.936   9.758
68841SOL    HW1 8420  12.104   4.020   9.786
68841SOL    HW2 8421  12.229   3.956   9.730
68842SOL     OW 8422   5.544   9.454   8.962
68842SOL    HW1 8423   5.485   9.378   8.958
68842SOL    HW2 8424   5.491   9.526   8.926
68843SOL     OW 8425   7.605   6.845   0.956
68843SOL    HW1 8426   7.602   6.861   1.050
68843SOL    HW2 8427   7.522   6.802   0.936
68844SOL     OW 8428   0.671   0.555  12.639
68844SOL    HW1 8429   0.584   0.564  12.678
68844SOL    HW2 8430   0.693   0.644  12.610
68845SOL     OW 8431  13.262   2.606   0.317
68845SOL    HW1 8432  13.332   2.621   0.252
68845SOL    HW2 8433  13.308   2.585   0.398
68846SOL     OW 8434   1.004   7.362   0.009
68846SOL    HW1 8435   1.045   7.276   0.004
68846SOL    HW2 8436   1.075   7.422   0.031
68847SOL     OW 8437   3.995   6.042   1.405
68847SOL    HW1 8438   3.904   6.064   1.385
68847SOL    HW2 8439   4.018   6.100   1.478
68848SOL     OW 8440   9.042   1.466   3.946
68848SOL    HW1 8441   8.966   1.453   3.889
68848SOL    HW2 8442   9.008   1.516   4.020
68849SOL     OW 8443  12.021  10.623  14.132
68849SOL    HW1 8444  12.010  10.718  14.132
68849SOL    HW2 8445  11.995  10.595  14.044
68850SOL     OW 8446   0.775  13.908  13.609
68850SOL    HW1 8447   0.790  13.835  13.549
68850SOL    HW2 8448   0.818  13.983  13.567
68851SOL     OW 8449   8.292   0.193  11.160
68851SOL    HW1 8450   8.213   0.247  11.163
68851SOL    HW2 8451   8.345   0.233  11.091
68852SOL     OW 8452   2.133  12.099   9.761
68852SOL    HW1 8453   2.158  12.019   9.715
68852SOL    HW2 8454   2.038  12.106   9.747
68853SOL     OW 8455   7.042   1.112  11.600
68853SOL    HW1 8456   6.976   1.173  11.568
68853SOL    HW2 8457   7.050   1.046  11.532
68854SOL     OW 8458   5.643   7.757  12.258
68854SOL    HW1 8459   5.732   7.791  12.266
68854SOL    HW2 8460   5.589   7.834  12.241
68855SOL     OW 8461   3.886   1.749   0.806
68855SOL    HW1 8462   3.801   1.779   0.775
68855SOL    HW2 8463   3.905   1.802   0.883
68856SOL     OW 8464   5.428   3.077  13.177
68856SOL    HW1 8465   5.519   3.104  13.164
68856SOL    HW2 8466   5.426   3.043  13.267
68857SOL     OW 8467   7.358  10.913   8.390
68857SOL    HW1 8468   7.283  10.968   8.410
68857SOL    HW2 8469   7.427  10.974   8.366
68858SOL     OW 8470   5.002   5.230   9.956
68858SOL    HW1 8471   5.075   5.168   9.959
68858SOL    HW2 8472   5.033   5.301   9.901
68859SOL     OW 8473  11.229   4.604   6.041
68859SOL    HW1 8474  11.288   4.677   6.062
68859SOL    HW2 8475  11.172   4.639   5.973
68860SOL     OW 8476   7.139   3.841  13.668
68860SOL    HW1 8477   7.118   3.830  13.575
68860SOL    HW2 8478   7.196   3.917  13.671
68861SOL     OW 8479   8.049  13.927   1.828
68861SOL    HW1 8480   8.062  13.906   1.921
68861SOL    HW2 8481   8.063  13.844   1.783
68862SOL     OW 8482   2.051  13.097  10.943
68862SOL    HW1 8483   2.141  13.065  10.933
68862SOL    HW2 8484   2.041  13.163  10.875
68863SOL     OW 8485  10.576   0.820   3.554
68863SOL    HW1 8486  10.594   0.891   3.493
68863SOL    HW2 8487  10.481   0.824   3.568
68864SOL     OW 8488   4.690   1.000  14.660
68864SOL    HW1 8489   4.775   1.045  14.659
68864SOL    HW2 8490   4.668   0.993  14.753
68865SOL     OW 8491   6.869   9.092   3.308
68865SOL    HW1 8492   6.836   9.004   3.289
68865SOL    HW2 8493   6.959   9.092   3.276
68866SOL     OW 8494   5.519  14.850  10.676
68866SOL    HW1 8495   5.443  14.793  10.684
68866SOL    HW2 8496   5.502   0.020  10.597
68867SOL     OW 8497   4.521   6.690   4.012
68867SOL    HW1 8498   4.437   6.737   4.012
68867SOL    HW2 8499   4.587   6.759   4.021
68868SOL     OW 8500  10.194  12.276  11.429
68868SOL    HW1 8501  10.220  12.190  11.398
68868SOL    HW2 8502  10.134  12.309  11.362
68869SOL     OW 8503   7.358   9.291   8.543
68869SOL    HW1 8504   7.362   9.199   8.516
68869SOL    HW2 8505   7.444   9.308   8.582
68870SOL     OW 8506  14.405  13.654   6.927
68870SOL    HW1 8507  14.331  13.699   6.887
68870SOL    HW2 8508  14.399  13.564   6.896
68871SOL     OW 8509   6.047   3.098   1.567
68871SOL    HW1 8510   5.988   3.143   1.507
68871SOL    HW2 8511   5.991   3.035   1.613
68872SOL     OW 8512   8.696  12.583   9.750
68872SOL    HW1 8513   8.625  12.598   9.688
68872SOL    HW2 8514   8.670  12.505   9.798
68873SOL     OW 8515   7.520   5.048  13.729
68873SOL    HW1 8516   7.613   5.062  13.747
68873SOL    HW2 8517   7.496   4.973  13.784
68874SOL     OW 8518   2.938   4.041  10.978
68874SOL    HW1 8519   2.941   4.119  10.923
68874SOL    HW2 8520   3.013   3.989  10.949
68875SOL     OW 8521   4.008   3.416   6.197
68875SOL    HW1 8522   3.955   3.494   6.210
68875SOL    HW2 8523   4.097   3.443   6.220
68876SOL     OW 8524   3.573  11.158  13.033
68876SOL    HW1 8525   3.622  11.216  12.974
68876SOL    HW2 8526   3.583  11.199  13.119
68877SOL     OW 8527  12.132   1.779  12.488
68877SOL    HW1 8528  12.170   1.867  12.490
68877SOL    HW2 8529  12.074   1.779  12.412
68878SOL     OW 8530   4.661   3.120   7.353
68878SOL    HW1 8531   4.599   3.115   7.280
68878SOL    HW2 8532   4.616   3.077   7.426
68879SOL     OW 8533   4.100   4.468   2.467
68879SOL    HW1 8534   4.027   4.517   2.506
68879SOL    HW2 8535   4.171   4.475   2.531
68880SOL     OW 8536  11.681   1.300  14.342
68880SOL    HW1 8537  11.758   1.272  14.392
68880SOL    HW2 8538  11.621   1.335  14.407
68881SOL     OW 8539   6.932  14.244  14.148
68881SOL    HW1 8540   6.926  14.252  14.052
68881SOL    HW2 8541   6.844  14.263  14.179
68882SOL     OW 8542  12.308  11.825   9.898
68882SOL    HW1 8543  12.269  11.788   9.977
68882SOL    HW2 8544  12.286  11.764   9.829
68883SOL     OW 8545  11.233  11.016  13.946
68883SOL    HW1 8546  11.328  11.007  13.958
68883SOL    HW2 8547  11.217  10.986  13.856
68884SOL     OW 8548  13.018   1.451   2.844
68884SOL    HW1 8549  12.985   1.362   2.859
68884SOL    HW2 8550  13.015   1.462   2.749
68885SOL     OW 8551  14.419   9.584  11.194
68885SOL    HW1 8552  14.428   9.669  11.236
68885SOL    HW2 8553  14.325   9.572  11.183
68886SOL     OW 8554   4.337  11.476   8.274
68886SOL    HW1 8555   4.405  11.521   8.223
68886SOL    HW2 8556   4.385  11.409   8.322
68887SOL     OW 8557  14.520  10.476   6.224
68887SOL    HW1 8558  14.534  10.560   6.266
68887SOL    HW2 8559  14.580  10.476   6.149
68888SOL     OW 8560  10.560   5.846  11.673
68888SOL    HW1 8561  10.547   5.873  11.764
68888SOL    HW2 8562  10.484   5.880  11.626
68889SOL     OW 8563   7.167  12.931  10.905
68889SOL    HW1 8564   7.259  12.957  10.903
68889SOL    HW2 8565   7.141  12.930  10.813
68890SOL     OW 8566  13.147   6.386   6.905
68890SOL    HW1 8567  13.198   6.462   6.934
68890SOL    HW2 8568  13.068   6.389   6.958
68891SOL     OW 8569   4.635   7.049   8.700
68891SOL    HW1 8570   4.660   7.026   8.789
68891SOL    HW2 8571   4.656   7.142   8.693
68892SOL     OW 8572   1.437   6.562   8.108
68892SOL    HW1 8573   1.376   6.489   8.102
68892SOL    HW2 8574   1.382   6.640   8.112
68893SOL     OW 8575  12.720   5.729  13.029
68893SOL    HW1 8576  12.796   5.692  12.985
68893SOL    HW2 8577  12.755   5.763  13.111
68894SOL     OW 8578   0.975   7.545   5.576
68894SOL    HW1 8579   0.900   7.576   5.627
68894SOL    HW2 8580   0.993   7.458   5.612
68895SOL     OW 8581   6.960  12.874   8.841
68895SOL    HW1 8582   6.911  12.819   8.902
68895SOL    HW2 8583   6.895  12.903   8.777
68896SOL     OW 8584   9.837   5.510   3.021
68896SOL    HW1 8585   9.801   5.422   3.027
68896SOL    HW2 8586   9.844   5.527   2.927
68897SOL     OW 8587  14.749  12.262   0.579
68897SOL    HW1 8588  14.702  12.284   0.499
68897SOL    HW2 8589  14.838  12.241   0.550
68898SOL     OW 8590   1.019   7.489  14.648
68898SOL    HW1 8591   1.009   7.457  14.737
68898SOL    HW2 8592   0.941   7.457  14.602
68899SOL     OW 8593   5.509   4.906  10.266
68899SOL    HW1 8594   5.486   4.919  10.358
68899SOL    HW2 8595   5.595   4.864  10.268
68900SOL     OW 8596  11.069   2.323   7.901
68900SOL    HW1 8597  11.110   2.353   7.983
68900SOL    HW2 8598  10.985   2.369   7.898
68901SOL     OW 8599   9.254   8.465   5.124
68901SOL    HW1 8600   9.317   8.457   5.052
68901SOL    HW2 8601   9.303   8.510   5.193
68902SOL     OW 8602   7.194   9.120   4.987
68902SOL    HW1 8603   7.171   9.119   4.895
68902SOL    HW2 8604   7.275   9.068   4.992
68903SOL     OW 8605   1.050  10.666   4.565
68903SOL    HW1 8606   1.073  10.585   4.521
68903SOL    HW2 8607   1.039  10.642   4.657
68904SOL     OW 8608  10.552   1.128   9.600
68904SOL    HW1 8609  10.591   1.068   9.663
68904SOL    HW2 8610  10.482   1.172   9.648
68905SOL     OW 8611   4.897   9.181   2.479
68905SOL    HW1 8612   4.894   9.199   2.573
68905SOL    HW2 8613   4.886   9.267   2.438
68906SOL     OW 8614   1.153  11.157  10.544
68906SOL    HW1 8615   1.108  11.073  10.545
68906SOL    HW2 8616   1.083  11.222  10.536
68907SOL     OW 8617  12.388  14.093   5.028
68907SOL    HW1 8618  12.365  14.122   4.940
68907SOL    HW2 8619  12.308  14.056   5.063
68908SOL     OW 8620  12.131   3.518   8.864
68908SOL    HW1 8621  12.109   3.518   8.958
68908SOL    HW2 8622  12.220   3.553   8.860
68909SOL     OW 8623  13.647  12.194   8.431
68909SOL    HW1 8624  13.687  12.281   8.425
68909SOL    HW2 8625  13.631  12.181   8.524
68910SOL     OW 8626   8.183   3.514   1.313
68910SOL    HW1 8627   8.162   3.442   1.373
68910SOL    HW2 8628   8.163   3.593   1.362
68911SOL     OW 8629   4.068   6.190  12.611
68911SOL    HW1 8630   4.001   6.182  12.543
68911SOL    HW2 8631   4.147   6.217  12.564
68912SOL     OW 8632  13.464   0.487   9.452
68912SOL    HW1 8633  13.396   0.527   9.399
68912SOL    HW2 8634  13.452   0.393   9.439
68913SOL     OW 8635   8.142   7.235   7.074
68913SOL    HW1 8636   8.055   7.230   7.033
68913SOL    HW2 8637   8.189   7.159   7.040
68914SOL     OW 8638   7.061   3.208  13.796
68914SOL    HW1 8639   7.073   3.128  13.847
68914SOL    HW2 8640   7.135   3.264  13.821
68915SOL     OW 8641  12.143  14.209   4.230
68915SOL    HW1 8642  12.114  14.259   4.155
68915SOL    HW2 8643  12.074  14.144   4.244
68916SOL     OW 8644   1.788   5.033  12.431
68916SOL    HW1 8645   1.712   5.062  12.381
68916SOL    HW2 8646   1.859   5.090  12.402
68917SOL     OW 8647  12.221  14.020   7.253
68917SOL    HW1 8648  12.284  13.997   7.184
68917SOL    HW2 8649  12.275  14.031   7.331
68918SOL     OW 8650  10.092  14.791  14.272
68918SOL    HW1 8651  10.162  14.848  14.241
68918SOL    HW2 8652  10.013  14.844  14.263
68919SOL     OW 8653   3.556   9.725   9.181
68919SOL    HW1 8654   3.576   9.646   9.130
68919SOL    HW2 8655   3.464   9.715   9.205
68920SOL     OW 8656  14.404  10.426  13.060
68920SOL    HW1 8657  14.418  10.519  13.077
68920SOL    HW2 8658  14.408  10.385  13.147
68921SOL     OW 8659   8.411   9.375   6.018
68921SOL    HW1 8660   8.439   9.406   6.104
68921SOL    HW2 8661   8.365   9.293   6.036
68922SOL     OW 8662   2.109   8.744  10.463
68922SOL    HW1 8663   2.115   8.692  10.382
68922SOL    HW2 8664   2.109   8.680  10.533
68923SOL     OW 8665   4.957   4.164   5.791
68923SOL    HW1 8666   5.033   4.135   5.739
68923SOL    HW2 8667   4.989   4.239   5.840
68924SOL     OW 8668   6.664   0.104   3.175
68924SOL    HW1 8669   6.621   0.052   3.108
68924SOL    HW2 8670   6.619   0.189   3.172
68925SOL     OW 8671   5.509   1.961   9.845
68925SOL    HW1 8672   5.461   1.930   9.923
68925SOL    HW2 8673   5.503   2.056   9.850
68926SOL     OW 8674   8.753   6.100  13.830
68926SOL    HW1 8675   8.718   6.016  13.860
68926SOL    HW2 8676   8.681   6.162  13.841
68927SOL     OW 8677   3.822  10.922   2.767
68927SOL    HW1 8678   3.772  10.936   2.686
68927SOL    HW2 8679   3.892  10.988   2.763
68928SOL     OW 8680   0.903   1.143   4.609
68928SOL    HW1 8681   0.912   1.166   4.701
68928SOL    HW2 8682   0.938   1.218   4.562
68929SOL     OW 8683   4.936   8.428   4.704
68929SOL    HW1 8684   4.884   8.498   4.664
68929SOL    HW2 8685   4.921   8.438   4.798
68930SOL     OW 8686  12.360   5.684   5.837
68930SOL    HW1 8687  12.434   5.726   5.882
68930SOL    HW2 8688  12.376   5.590   5.848
68931SOL     OW 8689   9.053   1.847   5.689
68931SOL    HW1 8690   8.984   1.794   5.648
68931SOL    HW2 8691   9.016   1.935   5.693
68932SOL     OW 8692   9.126   5.912   9.803
68932SOL    HW1 8693   9.209   5.929   9.848
68932SOL    HW2 8694   9.076   5.860   9.866
68933SOL     OW 8695   8.208  11.363   2.314
68933SOL    HW1 8696   8.145  11.399   2.377
68933SOL    HW2 8697   8.166  11.375   2.229
68934SOL     OW 8698  13.845  14.199   9.949
68934SOL    HW1 8699  13.752  14.174   9.942
68934SOL    HW2 8700  13.846  14.266  10.017
68935SOL     OW 8701  14.378   5.069   3.082
68935SOL    HW1 8702  14.367   4.974   3.083
68935SOL    HW2 8703  14.289   5.102   3.094
68936SOL     OW 8704   1.183   1.577   2.676
68936SOL    HW1 8705   1.249   1.583   2.745
68936SOL    HW2 8706   1.180   1.665   2.638
68937SOL     OW 8707   4.207   9.385   4.242
68937SOL    HW1 8708   4.292   9.344   4.222
68937SOL    HW2 8709   4.142   9.319   4.219
68938SOL     OW 8710  11.465  10.993   6.611
68938SOL    HW1 8711  11.425  11.034   6.687
68938SOL    HW2 8712  11.445  10.900   6.620
68939SOL     OW 8713   8.065  12.577   7.753
68939SOL    HW1 8714   8.009  12.633   7.699
68939SOL    HW2 8715   8.137  12.552   7.695
68940SOL     OW 8716   0.584   7.779   8.485
68940SOL    HW1 8717   0.542   7.694   8.500
68940SOL    HW2 8718   0.606   7.811   8.573
68941SOL     OW 8719   0.883  13.493  12.485
68941SOL    HW1 8720   0.840  13.488  12.571
68941SOL    HW2 8721   0.812  13.504  12.423
68942SOL     OW 8722   5.677   2.528   2.757
68942SOL    HW1 8723   5.667   2.503   2.666
68942SOL    HW2 8724   5.631   2.612   2.764
68943SOL     OW 8725   6.335   6.269   5.027
68943SOL    HW1 8726   6.323   6.181   5.065
68943SOL    HW2 8727   6.413   6.261   4.973
68944SOL     OW 8728   3.678   0.151   6.130
68944SOL    HW1 8729   3.693   0.100   6.209
68944SOL    HW2 8730   3.687   0.088   6.059
68945SOL     OW 8731  14.814  12.729   6.713
68945SOL    HW1 8732  14.841  12.674   6.786
68945SOL    HW2 8733   0.013  12.769   6.682
68946SOL     OW 8734   0.679   9.560  11.353
68946SOL    HW1 8735   0.623   9.638  11.348
68946SOL    HW2 8736   0.626   9.490  11.315
68947SOL     OW 8737  11.743   0.192  10.213
68947SOL    HW1 8738  11.669   0.214  10.157
68947SOL    HW2 8739  11.814   0.249  10.183
68948SOL     OW 8740  12.109   5.890   3.262
68948SOL    HW1 8741  12.142   5.960   3.205
68948SOL    HW2 8742  12.186   5.838   3.284
68949SOL     OW 8743   0.063   4.045   4.139
68949SOL    HW1 8744   0.092   4.049   4.231
68949SOL    HW2 8745   0.137   4.006   4.093
68950SOL     OW 8746   9.946   7.240  10.385
68950SOL    HW1 8747   9.877   7.174  10.381
68950SOL    HW2 8748  10.009   7.204  10.448
68951SOL     OW 8749   0.765   7.679  13.525
68951SOL    HW1 8750   0.776   7.765  13.566
68951SOL    HW2 8751   0.739   7.698  13.435
68952SOL     OW 8752  13.532   8.266   4.110
68952SOL    HW1 8753  13.518   8.194   4.172
68952SOL    HW2 8754  13.444   8.302   4.095
68953SOL     OW 8755  13.336   0.586   6.004
68953SOL    HW1 8756  13.325   0.644   5.928
68953SOL    HW2 8757  13.275   0.621   6.069
68954SOL     OW 8758   0.256   6.732   8.409
68954SOL    HW1 8759   0.329   6.783   8.373
68954SOL    HW2 8760   0.252   6.654   8.355
68955SOL     OW 8761  13.639   7.284   4.018
68955SOL    HW1 8762  13.732   7.263   4.014
68955SOL    HW2 8763  13.598   7.229   3.951
68956SOL     OW 8764   4.158   0.814   4.949
68956SOL    HW1 8765   4.246   0.781   4.933
68956SOL    HW2 8766   4.160   0.846   5.039
68957SOL     OW 8767   7.204  14.847   7.489
68957SOL    HW1 8768   7.163   0.028   7.431
68957SOL    HW2 8769   7.137  14.827   7.555
68958SOL     OW 8770  10.508  13.752  13.826
68958SOL    HW1 8771  10.447  13.699  13.877
68958SOL    HW2 8772  10.477  13.745  13.736
68959SOL     OW 8773   8.082   2.186  11.260
68959SOL    HW1 8774   8.049   2.195  11.349
68959SOL    HW2 8775   8.142   2.112  11.265
68960SOL     OW 8776   7.971   7.697   3.146
68960SOL    HW1 8777   7.910   7.654   3.087
68960SOL    HW2 8778   7.989   7.782   3.105
68961SOL     OW 8779   9.194   3.149   2.664
68961SOL    HW1 8780   9.148   3.188   2.589
68961SOL    HW2 8781   9.283   3.183   2.658
68962SOL     OW 8782   1.711  14.846   1.187
68962SOL    HW1 8783   1.807  14.854   1.190
68962SOL    HW2 8784   1.684   0.028   1.122
68963SOL     OW 8785   0.240   7.887   9.746
68963SOL    HW1 8786   0.205   7.959   9.800
68963SOL    HW2 8787   0.319   7.860   9.792
68964SOL     OW 8788   4.154   7.974   0.971
68964SOL    HW1 8789   4.167   7.891   1.018
68964SOL    HW2 8790   4.164   7.951   0.879
68965SOL     OW 8791   9.130  12.045   9.658
68965SOL    HW1 8792   9.141  12.128   9.610
68965SOL    HW2 8793   9.067  11.995   9.606
68966SOL     OW 8794  10.243  13.078   2.584
68966SOL    HW1 8795  10.214  12.989   2.603
68966SOL    HW2 8796  10.196  13.133   2.647
68967SOL     OW 8797   6.814   1.657  10.255
68967SOL    HW1 8798   6.797   1.613  10.172
68967SOL    HW2 8799   6.827   1.586  10.318
68968SOL     OW 8800   1.659  11.839   4.735
68968SOL    HW1 8801   1.660  11.916   4.678
68968SOL    HW2 8802   1.746  11.801   4.725
68969SOL     OW 8803   2.390   3.438   0.386
68969SOL    HW1 8804   2.388   3.483   0.471
68969SOL    HW2 8805   2.476   3.459   0.350
68970SOL     OW 8806   1.194   8.847   4.733
68970SOL    HW1 8807   1.119   8.901   4.757
68970SOL    HW2 8808   1.198   8.853   4.637
68971SOL     OW 8809   0.215  11.381   0.586
68971SOL    HW1 8810   0.126  11.346   0.590
68971SOL    HW2 8811   0.271  11.304   0.573
68972SOL     OW 8812   5.295  13.212  14.621
68972SOL    HW1 8813   5.284  13.165  14.538
68972SOL    HW2 8814   5.254  13.155  14.686
68973SOL     OW 8815  13.382  10.681  14.529
68973SOL    HW1 8816  13.401  10.695  14.622
68973SOL    HW2 8817  13.444  10.613  14.502
68974SOL     OW 8818   8.462   0.225   2.131
68974SOL    HW1 8819   8.378   0.185   2.107
68974SOL    HW2 8820   8.528   0.168   2.091
68975SOL     OW 8821   3.987   5.068   6.941
68975SOL    HW1 8822   4.046   4.998   6.912
68975SOL    HW2 8823   3.913   5.022   6.979
68976SOL     OW 8824  13.743  10.458   6.882
68976SOL    HW1 8825  13.653  10.453   6.913
68976SOL    HW2 8826  13.795  10.431   6.957
68977SOL     OW 8827  13.379  13.547   7.016
68977SOL    HW1 8828  13.406  13.457   6.999
68977SOL    HW2 8829  13.314  13.565   6.949
68978SOL     OW 8830  11.947   1.866  14.356
68978SOL    HW1 8831  11.937   1.908  14.441
68978SOL    HW2 8832  11.904   1.781  14.366
68979SOL     OW 8833   3.193  14.433   9.740
68979SOL    HW1 8834   3.220  14.362   9.799
68979SOL    HW2 8835   3.164  14.503   9.798
68980SOL     OW 8836  10.088   1.376   8.717
68980SOL    HW1 8837  10.057   1.297   8.762
68980SOL    HW2 8838  10.024   1.444   8.742
68981SOL     OW 8839   8.438   8.447  14.532
68981SOL    HW1 8840   8.435   8.501  14.453
68981SOL    HW2 8841   8.359   8.394  14.528
68982SOL     OW 8842  10.043   2.462  13.698
68982SOL    HW1 8843  10.105   2.435  13.630
68982SOL    HW2 8844   9.979   2.391  13.701
68983SOL     OW 8845   9.629   6.171   2.106
68983SOL    HW1 8846   9.700   6.113   2.079
68983SOL    HW2 8847   9.561   6.158   2.041
68984SOL     OW 8848   5.818  10.866  11.666
68984SOL    HW1 8849   5.791  10.912  11.587
68984SOL    HW2 8850   5.797  10.926  11.738
68985SOL     OW 8851   1.349   8.975  14.528
68985SOL    HW1 8852   1.378   8.997  14.617
68985SOL    HW2 8853   1.427   8.988  14.474
68986SOL     OW 8854  12.477  12.185   2.290
68986SOL    HW1 8855  12.518  12.099   2.287
68986SOL    HW2 8856  12.393  12.173   2.247
68987SOL     OW 8857   4.985  14.619   6.335
68987SOL    HW1 8858   5.021  14.568   6.408
68987SOL    HW2 8859   4.940  14.555   6.281
68988SOL     OW 8860   1.862   6.461   4.788
68988SOL    HW1 8861   1.895   6.468   4.698
68988SOL    HW2 8862   1.845   6.368   4.800
68989SOL     OW 8863   2.368   3.813   8.365
68989SOL    HW1 8864   2.344   3.891   8.316
68989SOL    HW2 8865   2.373   3.744   8.299
68990SOL     OW 8866   9.887  10.298   1.536
68990SOL    HW1 8867   9.964  10.341   1.572
68990SOL    HW2 8868   9.817  10.363   1.542
68991SOL     OW 8869  10.238   6.153   9.675
68991SOL    HW1 8870  10.209   6.142   9.766
68991SOL    HW2 8871  10.332   6.138   9.678
68992SOL     OW 8872   6.387   7.565  13.859
68992SOL    HW1 8873   6.415   7.506  13.789
68992SOL    HW2 8874   6.292   7.562  13.856
68993SOL     OW 8875   7.303   5.943   4.894
68993SOL    HW1 8876   7.258   5.925   4.976
68993SOL    HW2 8877   7.240   5.921   4.826
68994SOL     OW 8878   7.512   2.777  11.175
68994SOL    HW1 8879   7.504   2.698  11.229
68994SOL    HW2 8880   7.539   2.845  11.237
68995SOL     OW 8881   0.751  11.648   3.366
68995SOL    HW1 8882   0.675  11.650   3.308
68995SOL    HW2 8883   0.738  11.569   3.418
68996SOL     OW 8884   5.913  14.865   0.369
68996SOL    HW1 8885   5.865  14.807   0.310
68996SOL    HW2 8886   5.862  14.867   0.449
68997SOL     OW 8887   1.094   2.495  12.974
68997SOL    HW1 8888   1.035   2.453  13.036
68997SOL    HW2 8889   1.046   2.495  12.891
68998SOL     OW 8890   2.172   2.308   1.764
68998SOL    HW1 8891   2.085   2.307   1.803
68998SOL    HW2 8892   2.160   2.270   1.677
68999SOL     OW 8893   4.843   1.176   1.304
68999SOL    HW1 8894   4.837   1.235   1.229
68999SOL    HW2 8895   4.755   1.138   1.311
69000SOL     OW 8896   8.747   5.812   1.601
69000SOL    HW1 8897   8.770   5.721   1.586
69000SOL    HW2 8898   8.824   5.862   1.571
69001SOL     OW 8899   0.814   7.610   7.275
69001SOL    HW1 8900   0.852   7.675   7.215
69001SOL    HW2 8901   0.732   7.650   7.303
69002SOL     OW 8902   4.113   9.747   1.813
69002SOL    HW1 8903   4.022   9.718   1.823
69002SOL    HW2 8904   4.105   9.833   1.772
69003SOL     OW 8905   8.919   6.967   5.578
69003SOL    HW1 8906   8.959   6.884   5.605
69003SOL    HW2 8907   8.993   7.027   5.569
69004SOL     OW 8908  13.621  12.823  10.945
69004SOL    HW1 8909  13.600  12.894  11.006
69004SOL    HW2 8910  13.576  12.746  10.980
69005SOL     OW 8911   8.455   6.235   9.370
69005SOL    HW1 8912   8.439   6.287   9.449
69005SOL    HW2 8913   8.545   6.205   9.379
69006SOL     OW 8914  12.062   8.245  14.126
69006SOL    HW1 8915  12.064   8.166  14.072
69006SOL    HW2 8916  11.968   8.259  14.144
69007SOL     OW 8917  11.141   5.062   0.477
69007SOL    HW1 8918  11.155   4.968   0.464
69007SOL    HW2 8919  11.099   5.092   0.396
69008SOL     OW 8920   1.491   1.692   9.588
69008SOL    HW1 8921   1.455   1.743   9.660
69008SOL    HW2 8922   1.477   1.601   9.614
69009SOL     OW 8923   6.155  14.824  12.941
69009SOL    HW1 8924   6.137  14.858  13.029
69009SOL    HW2 8925   6.069  14.803  12.906
69010SOL     OW 8926  14.163   4.740  13.010
69010SOL    HW1 8927  14.142   4.810  12.948
69010SOL    HW2 8928  14.079   4.720  13.053
69011SOL     OW 8929   4.678   0.002  12.685
69011SOL    HW1 8930   4.663   0.063  12.757
69011SOL    HW2 8931   4.591  14.867  12.649
69012SOL     OW 8932  12.274  13.542   2.270
69012SOL    HW1 8933  12.180  13.524   2.273
69012SOL    HW2 8934  12.287  13.613   2.333
69013SOL     OW 8935   7.859   9.052   8.911
69013SOL    HW1 8936   7.931   9.101   8.873
69013SOL    HW2 8937   7.796   9.119   8.939
69014SOL     OW 8938  13.545   2.899   1.177
69014SOL    HW1 8939  13.609   2.969   1.162
69014SOL    HW2 8940  13.461   2.939   1.156
69015SOL     OW 8941   9.978   2.636  11.136
69015SOL    HW1 8942  10.035   2.712  11.131
69015SOL    HW2 8943   9.962   2.611  11.044
69016SOL     OW 8944  10.598  12.337   3.565
69016SOL    HW1 8945  10.562  12.424   3.585
69016SOL    HW2 8946  10.595  12.290   3.648
69017SOL     OW 8947   5.371   2.522  12.435
69017SOL    HW1 8948   5.410   2.573  12.505
69017SOL    HW2 8949   5.416   2.437  12.439
69018SOL     OW 8950   2.592   3.130   8.505
69018SOL    HW1 8951   2.529   3.076   8.553
69018SOL    HW2 8952   2.641   3.067   8.452
69019SOL     OW 8953  12.016   1.456   1.302
69019SOL    HW1 8954  12.038   1.365   1.280
69019SOL    HW2 8955  11.985   1.493   1.220
69020SOL     OW 8956   9.881   9.183  10.475
69020SOL    HW1 8957   9.885   9.266  10.522
69020SOL    HW2 8958   9.819   9.130  10.523
69021SOL     OW 8959   6.144  12.066  14.181
69021SOL    HW1 8960   6.090  12.069  14.101
69021SOL    HW2 8961   6.223  12.115  14.159
69022SOL     OW 8962   1.185   9.493  13.288
69022SOL    HW1 8963   1.148   9.543  13.216
69022SOL    HW2 8964   1.109   9.464  13.339
69023SOL     OW 8965  11.753  10.745  12.792
69023SOL    HW1 8966  11.700  10.805  12.844
69023SOL    HW2 8967  11.843  10.765  12.817
69024SOL     OW 8968   1.786   4.284   4.789
69024SOL    HW1 8969   1.838   4.357   4.754
69024SOL    HW2 8970   1.775   4.224   4.715
69025SOL     OW 8971   9.517   9.616  11.300
69025SOL    HW1 8972   9.519   9.558  11.225
69025SOL    HW2 8973   9.590   9.587  11.356
69026SOL     OW 8974  11.340   9.128  12.417
69026SOL    HW1 8975  11.269   9.082  12.462
69026SOL    HW2 8976  11.305   9.145  12.329
69027SOL     OW 8977   2.202   0.973  10.168
69027SOL    HW1 8978   2.195   1.067  10.185
69027SOL    HW2 8979   2.278   0.945  10.218
69028SOL     OW 8980  10.943  14.740   0.795
69028SOL    HW1 8981  10.974  14.768   0.708
69028SOL    HW2 8982  11.023  14.717   0.842
69029SOL     OW 8983  10.330   1.232  10.497
69029SOL    HW1 8984  10.399   1.207  10.560
69029SOL    HW2 8985  10.348   1.324  10.478
69030SOL     OW 8986   1.122   0.708   6.583
69030SOL    HW1 8987   1.148   0.763   6.656
69030SOL    HW2 8988   1.158   0.622   6.604
69031SOL     OW 8989  13.442   3.962  14.702
69031SOL    HW1 8990  13.534   3.950  14.723
69031SOL    HW2 8991  13.435   4.054  14.677
69032SOL     OW 8992  13.962   1.458   9.990
69032SOL    HW1 8993  13.908   1.387   9.956
69032SOL    HW2 8994  14.045   1.450   9.943
69033SOL     OW 8995  11.368   5.630   4.203
69033SOL    HW1 8996  11.305   5.694   4.171
69033SOL    HW2 8997  11.433   5.682   4.251
69034SOL     OW 8998   9.264   6.599   5.343
69034SOL    HW1 8999   9.241   6.688   5.318
69034SOL    HW2 9000   9.184   6.548   5.332
69035SOL     OW 9001   0.992  10.553   5.208
69035SOL    HW1 9002   1.063  10.540   5.145
69035SOL    HW2 9003   0.912  10.543   5.157
69036SOL     OW 9004  13.983  14.780   0.183
69036SOL    HW1 9005  14.037  14.740   0.114
69036SOL    HW2 9006  13.960  14.867   0.149
69037SOL     OW 9007   8.544   4.306   0.928
69037SOL    HW1 9008   8.590   4.250   0.864
69037SOL    HW2 9009   8.454   4.275   0.926
69038SOL     OW 9010   1.212  14.304  13.566
69038SOL    HW1 9011   1.272  14.297  13.640
69038SOL    HW2 9012   1.230  14.226  13.514
69039SOL     OW 9013  11.050  10.592   4.172
69039SOL    HW1 9014  11.112  10.659   4.142
69039SOL    HW2 9015  10.972  10.606   4.119
69040SOL     OW 9016   6.220  13.451  14.359
69040SOL    HW1 9017   6.295  13.494  14.318
69040SOL    HW2 9018   6.172  13.523  14.401
69041SOL     OW 9019   3.483   2.361   5.394
69041SOL    HW1 9020   3.538   2.326   5.324
69041SOL    HW2 9021   3.436   2.433   5.353
69042SOL     OW 9022   2.131  11.591   4.144
69042SOL    HW1 9023   2.219  11.616   4.173
69042SOL    HW2 9024   2.124  11.627   4.055
69043SOL     OW 9025   5.584  12.170   8.955
69043SOL    HW1 9026   5.606  12.157   8.863
69043SOL    HW2 9027   5.584  12.265   8.967
69044SOL     OW 9028   2.351  14.058   4.034
69044SOL    HW1 9029   2.399  14.063   4.116
69044SOL    HW2 9030   2.260  14.073   4.058
69045SOL     OW 9031   1.533  10.599   5.933
69045SOL    HW1 9032   1.583  10.664   5.884
69045SOL    HW2 9033   1.583  10.518   5.924
69046SOL     OW 9034   2.117   7.915   7.469
69046SOL    HW1 9035   2.102   8.004   7.502
69046SOL    HW2 9036   2.059   7.907   7.394
69047SOL     OW 9037   7.550   2.642  12.064
69047SOL    HW1 9038   7.599   2.560  12.069
69047SOL    HW2 9039   7.555   2.667  11.972
69048SOL     OW 9040   7.207  10.800   7.855
69048SOL    HW1 9041   7.260  10.739   7.804
69048SOL    HW2 9042   7.259  10.818   7.933
69049SOL     OW 9043  11.517  13.485   8.512
69049SOL    HW1 9044  11.428  13.513   8.492
69049SOL    HW2 9045  11.566  13.567   8.519
69050SOL     OW 9046   1.007   1.265   6.431
69050SOL    HW1 9047   1.055   1.234   6.508
69050SOL    HW2 9048   0.917   1.234   6.446
69051SOL     OW 9049  13.368   3.116   1.378
69051SOL    HW1 9050  13.381   3.157   1.293
69051SOL    HW2 9051  13.294   3.057   1.365
69052SOL     OW 9052   6.584  12.749  10.464
69052SOL    HW1 9053   6.560  12.659  10.441
69052SOL    HW2 9054   6.680  12.750  10.459
69053SOL     OW 9055   8.653  14.463   9.220
69053SOL    HW1 9056   8.566  14.504   9.216
69053SOL    HW2 9057   8.704  14.508   9.153
69054SOL     OW 9058   5.571  14.475   6.631
69054SOL    HW1 9059   5.509  14.528   6.580
69054SOL    HW2 9060   5.656  14.513   6.612
69055SOL     OW 9061   8.990   1.674   5.909
69055SOL    HW1 9062   8.965   1.742   5.971
69055SOL    HW2 9063   9.050   1.717   5.848
69056SOL     OW 9064   3.968   5.497   7.507
69056SOL    HW1 9065   3.985   5.404   7.489
69056SOL    HW2 9066   3.904   5.495   7.579
69057SOL     OW 9067  12.986   0.479  10.470
69057SOL    HW1 9068  12.901   0.439  10.488
69057SOL    HW2 9069  12.972   0.532  10.392
69058SOL     OW 9070  12.465   9.284   3.156
69058SOL    HW1 9071  12.389   9.324   3.113
69058SOL    HW2 9072  12.454   9.307   3.249
69059SOL     OW 9073  10.418  12.233   6.918
69059SOL    HW1 9074  10.384  12.155   6.874
69059SOL    HW2 9075  10.506  12.244   6.882
69060SOL     OW 9076  11.377   8.523   3.704
69060SOL    HW1 9077  11.348   8.606   3.742
69060SOL    HW2 9078  11.323   8.457   3.747
69061SOL     OW 9079  13.317  12.320   6.369
69061SOL    HW1 9080  13.260  12.309   6.293
69061SOL    HW2 9081  13.260  12.303   6.444
69062SOL     OW 9082   2.977   3.935   7.147
69062SOL    HW1 9083   2.938   3.856   7.185
69062SOL    HW2 9084   2.959   4.004   7.210
69063SOL     OW 9085   4.754   6.711   7.558
69063SOL    HW1 9086   4.844   6.744   7.553
69063SOL    HW2 9087   4.700   6.790   7.558
69064SOL     OW 9088   3.086   1.944   9.480
69064SOL    HW1 9089   3.105   1.884   9.407
69064SOL    HW2 9090   2.992   1.958   9.475
69065SOL     OW 9091   3.708   4.199  13.799
69065SOL    HW1 9092   3.627   4.239  13.831
69065SOL    HW2 9093   3.690   4.105  13.800
69066SOL     OW 9094   7.185   0.089   6.899
69066SOL    HW1 9095   7.139   0.101   6.982
69066SOL    HW2 9096   7.257   0.029   6.920
69067SOL     OW 9097  12.511  13.774  12.403
69067SOL    HW1 9098  12.592  13.728  12.384
69067SOL    HW2 9099  12.536  13.866  12.408
69068SOL     OW 9100  11.704  13.915   4.255
69068SOL    HW1 9101  11.698  13.854   4.329
69068SOL    HW2 9102  11.650  13.990   4.282
69069SOL     OW 9103   0.747  11.457   9.955
69069SOL    HW1 9104   0.653  11.477   9.952
69069SOL    HW2 9105   0.754  11.369   9.916
69070SOL     OW 9106  10.576   6.144  11.510
69070SOL    HW1 9107  10.607   6.234  11.505
69070SOL    HW2 9108  10.486   6.151  11.541
69071SOL     OW 9109  11.329   3.681   5.383
69071SOL    HW1 9110  11.267   3.641   5.444
69071SOL    HW2 9111  11.366   3.755   5.432
69072SOL     OW 9112  12.079   5.066   2.878
69072SOL    HW1 9113  12.011   5.092   2.940
69072SOL    HW2 9114  12.040   5.081   2.792
69073SOL     OW 9115  12.428   2.451   7.530
69073SOL    HW1 9116  12.369   2.410   7.466
69073SOL    HW2 9117  12.455   2.533   7.488
69074SOL     OW 9118   3.146   3.780  10.044
69074SOL    HW1 9119   3.186   3.781   9.956
69074SOL    HW2 9120   3.221   3.775  10.104
69075SOL     OW 9121   3.535   4.534  10.914
69075SOL    HW1 9122   3.586   4.477  10.856
69075SOL    HW2 9123   3.455   4.551  10.865
69076SOL     OW 9124   6.310   9.658  14.756
69076SOL    HW1 9125   6.323   9.584  14.697
69076SOL    HW2 9126   6.286   9.731  14.699
69077SOL     OW 9127  12.582   5.427   1.574
69077SOL    HW1 9128  12.677   5.435   1.575
69077SOL    HW2 9129  12.566   5.333   1.583
69078SOL     OW 9130   5.853   3.088   3.599
69078SOL    HW1 9131   5.834   3.044   3.682
69078SOL    HW2 9132   5.799   3.043   3.535
69079SOL     OW 9133  14.259   5.749   9.816
69079SOL    HW1 9134  14.283   5.682   9.752
69079SOL    HW2 9135  14.182   5.792   9.778
69080SOL     OW 9136   2.070  10.057   0.876
69080SOL    HW1 9137   2.159  10.058   0.840
69080SOL    HW2 9138   2.052  10.149   0.896
69081SOL     OW 9139  11.572   1.983   1.894
69081SOL    HW1 9140  11.570   1.974   1.989
69081SOL    HW2 9141  11.634   2.055   1.878
69082SOL     OW 9142  14.082  10.084   0.941
69082SOL    HW1 9143  14.008  10.059   0.885
69082SOL    HW2 9144  14.045  10.093   1.028
69083SOL     OW 9145  11.721   4.447   5.510
69083SOL    HW1 9146  11.650   4.414   5.565
69083SOL    HW2 9147  11.690   4.435   5.421
69084SOL     OW 9148   3.078   0.245   5.406
69084SOL    HW1 9149   3.075   0.254   5.311
69084SOL    HW2 9150   3.126   0.164   5.421
69085SOL     OW 9151   4.358  14.403   8.391
69085SOL    HW1 9152   4.363  14.308   8.385
69085SOL    HW2 9153   4.333  14.431   8.302
69086SOL     OW 9154   4.877  12.523  10.391
69086SOL    HW1 9155   4.847  12.541  10.302
69086SOL    HW2 9156   4.936  12.448  10.382
69087SOL     OW 9157  11.715   7.212  11.115
69087SOL    HW1 9158  11.737   7.303  11.135
69087SOL    HW2 9159  11.653   7.217  11.042
69088SOL     OW 9160   1.055   1.240   2.029
69088SOL    HW1 9161   1.026   1.214   1.941
69088SOL    HW2 9162   0.994   1.196   2.088
69089SOL     OW 9163   0.727   5.893   6.076
69089SOL    HW1 9164   0.787   5.925   6.143
69089SOL    HW2 9165   0.662   5.843   6.124
69090SOL     OW 9166   5.507   3.254   6.514
69090SOL    HW1 9167   5.543   3.342   6.501
69090SOL    HW2 9168   5.541   3.228   6.600
69091SOL     OW 9169   9.709   1.040   9.195
69091SOL    HW1 9170   9.764   1.093   9.253
69091SOL    HW2 9171   9.660   0.982   9.254
69092SOL     OW 9172  13.610   1.114   6.495
69092SOL    HW1 9173  13.673   1.150   6.433
69092SOL    HW2 9174  13.528   1.159   6.476
69093SOL     OW 9175   9.934   4.369   0.808
69093SOL    HW1 9176   9.882   4.418   0.871
69093SOL    HW2 9177   9.893   4.282   0.806
69094SOL     OW 9178  10.225   0.989  13.674
69094SOL    HW1 9179  10.277   0.910  13.692
69094SOL    HW2 9180  10.201   0.982  13.582
69095SOL     OW 9181   0.899   8.197  10.188
69095SOL    HW1 9182   0.932   8.128  10.245
69095SOL    HW2 9183   0.976   8.230  10.143
69096SOL     OW 9184   2.162  11.625   6.322
69096SOL    HW1 9185   2.110  11.700   6.350
69096SOL    HW2 9186   2.098  11.561   6.291
69097SOL     OW 9187   9.488  14.768  10.958
69097SOL    HW1 9188   9.564  14.751  10.902
69097SOL    HW2 9189   9.426  14.814  10.901
69098SOL     OW 9190  13.902   7.370   3.324
69098SOL    HW1 9191  13.864   7.417   3.250
69098SOL    HW2 9192  13.984   7.334   3.290
69099SOL     OW 9193  11.622   4.745   2.328
69099SOL    HW1 9194  11.671   4.689   2.268
69099SOL    HW2 9195  11.679   4.754   2.404
69100SOL     OW 9196   2.511   7.639   5.730
69100SOL    HW1 9197   2.417   7.650   5.714
69100SOL    HW2 9198   2.548   7.726   5.718
69101SOL     OW 9199   8.187  10.593   5.554
69101SOL    HW1 9200   8.277  10.625   5.543
69101SOL    HW2 9201   8.135  10.672   5.569
69102SOL     OW 9202   2.540  12.752   1.781
69102SOL    HW1 9203   2.610  12.726   1.841
69102SOL    HW2 9204   2.576  12.735   1.694
69103SOL     OW 9205   5.208   0.691   7.939
69103SOL    HW1 9206   5.256   0.747   7.999
69103SOL    HW2 9207   5.268   0.678   7.865
69104SOL     OW 9208  11.708  11.873   9.693
69104SOL    HW1 9209  11.771  11.944   9.677
69104SOL    HW2 9210  11.622  11.916   9.692
69105SOL     OW 9211   2.934   0.166  13.303
69105SOL    HW1 9212   2.847   0.193  13.273
69105SOL    HW2 9213   2.946   0.211  13.387
69106SOL     OW 9214  10.872   8.981   3.411
69106SOL    HW1 9215  10.886   8.887   3.399
69106SOL    HW2 9216  10.873   9.016   3.322
69107SOL     OW 9217   7.279  11.163  13.188
69107SOL    HW1 9218   7.304  11.254  13.204
69107SOL    HW2 9219   7.362  11.115  13.190
69108SOL     OW 9220  12.142   0.992   8.116
69108SOL    HW1 9221  12.114   0.942   8.039
69108SOL    HW2 9222  12.062   1.032   8.150
69109SOL     OW 9223  13.594   4.490   8.952
69109SOL    HW1 9224  13.681   4.514   8.922
69109SOL    HW2 9225  13.535   4.519   8.882
69110SOL     OW 9226   1.091   1.437   6.886
69110SOL    HW1 9227   1.136   1.501   6.942
69110SOL    HW2 9228   1.146   1.432   6.807
69111SOL     OW 9229   1.807  12.714   0.006
69111SOL    HW1 9230   1.742  12.733   0.074
69111SOL    HW2 9231   1.830  12.799  14.852
69112SOL     OW 9232   0.284   7.435   4.165
69112SOL    HW1 9233   0.372   7.399   4.176
69112SOL    HW2 9234   0.290   7.490   4.087
69113SOL     OW 9235   9.075   7.461   9.491
69113SOL    HW1 9236   9.064   7.436   9.582
69113SOL    HW2 9237   9.112   7.549   9.494
69114SOL     OW 9238   6.074   1.966  13.469
69114SOL    HW1 9239   6.052   2.003  13.383
69114SOL    HW2 9240   6.095   2.042  13.523
69115SOL     OW 9241   4.267   3.524   0.899
69115SOL    HW1 9242   4.259   3.609   0.854
69115SOL    HW2 9243   4.196   3.524   0.962
69116SOL     OW 9244   0.522   0.712   8.873
69116SOL    HW1 9245   0.479   0.646   8.820
69116SOL    HW2 9246   0.523   0.675   8.962
69117SOL     OW 9247   2.961  12.905  10.512
69117SOL    HW1 9248   2.983  12.918  10.420
69117SOL    HW2 9249   2.867  12.887  10.513
69118SOL     OW 9250   3.291  13.861   0.404
69118SOL    HW1 9251   3.355  13.908   0.458
69118SOL    HW2 9252   3.214  13.854   0.460
69119SOL     OW 9253   0.868   2.250   7.048
69119SOL    HW1 9254   0.918   2.323   7.012
69119SOL    HW2 9255   0.874   2.261   7.143
69120SOL     OW 9256  14.018   9.844  10.447
69120SOL    HW1 9257  13.958   9.772  10.429
69120SOL    HW2 9258  14.030   9.842  10.542
69121SOL     OW 9259   0.168   1.942   6.395
69121SOL    HW1 9260   0.095   1.922   6.337
69121SOL    HW2 9261   0.193   1.857   6.431
69122SOL     OW 9262   9.779   8.609   6.299
69122SOL    HW1 9263   9.838   8.581   6.229
69122SOL    HW2 9264   9.837   8.644   6.367
69123SOL     OW 9265   5.636   2.359   8.349
69123SOL    HW1 9266   5.645   2.451   8.373
69123SOL    HW2 9267   5.703   2.344   8.283
69124SOL     OW 9268   1.730   2.378  11.205
69124SOL    HW1 9269   1.647   2.427  11.212
69124SOL    HW2 9270   1.785   2.416  11.274
69125SOL     OW 9271   7.915   3.712   2.588
69125SOL    HW1 9272   7.830   3.754   2.603
69125SOL    HW2 9273   7.972   3.784   2.561
69126SOL     OW 9274  12.668   2.108   4.697
69126SOL    HW1 9275  12.742   2.047   4.701
69126SOL    HW2 9276  12.648   2.129   4.788
69127SOL     OW 9277   2.678   8.147   6.697
69127SOL    HW1 9278   2.762   8.191   6.701
69127SOL    HW2 9279   2.700   8.054   6.687
69128SOL     OW 9280   4.341   1.538   9.905
69128SOL    HW1 9281   4.291   1.524   9.824
69128SOL    HW2 9282   4.432   1.522   9.880
69129SOL     OW 9283   0.035   0.777   4.373
69129SOL    HW1 9284  14.835   0.730   4.358
69129SOL    HW2 9285   0.049   0.825   4.291
69130SOL     OW 9286   3.056   6.746   8.458
69130SOL    HW1 9287   3.078   6.708   8.544
69130SOL    HW2 9288   3.127   6.808   8.441
69131SOL     OW 9289  10.485   8.882  13.178
69131SOL    HW1 9290  10.390   8.870  13.186
69131SOL    HW2 9291  10.522   8.829  13.248
69132SOL     OW 9292  12.496  10.941   0.608
69132SOL    HW1 9293  12.516  10.847   0.608
69132SOL    HW2 9294  12.464  10.959   0.696
69133SOL     OW 9295  14.092   5.850   6.010
69133SOL    HW1 9296  14.014   5.798   6.028
69133SOL    HW2 9297  14.072   5.894   5.927
69134SOL     OW 9298  11.702  11.233   6.780
69134SOL    HW1 9299  11.607  11.221   6.778
69134SOL    HW2 9300  11.738  11.145   6.767
69135SOL     OW 9301   1.557   3.887   3.295
69135SOL    HW1 9302   1.564   3.817   3.230
69135SOL    HW2 9303   1.493   3.855   3.359
69136SOL     OW 9304   4.791  11.831   0.636
69136SOL    HW1 9305   4.847  11.851   0.712
69136SOL    HW2 9306   4.738  11.910   0.625
69137SOL     OW 9307   5.821   2.456   0.942
69137SOL    HW1 9308   5.916   2.450   0.933
69137SOL    HW2 9309   5.787   2.397   0.876
69138SOL     OW 9310   5.284   1.464   0.826
69138SOL    HW1 9311   5.254   1.418   0.904
69138SOL    HW2 9312   5.346   1.529   0.858
69139SOL     OW 9313  12.616  10.805  13.166
69139SOL    HW1 9314  12.575  10.805  13.080
69139SOL    HW2 9315  12.573  10.876  13.213
69140SOL     OW 9316   0.637  12.381   6.542
69140SOL    HW1 9317   0.677  12.303   6.504
69140SOL    HW2 9318   0.665  12.381   6.633
69141SOL     OW 9319  13.190  14.709   3.887
69141SOL    HW1 9320  13.263  14.662   3.845
69141SOL    HW2 9321  13.116  14.694   3.828
69142SOL     OW 9322   4.901   1.467  10.848
69142SOL    HW1 9323   4.934   1.380  10.869
69142SOL    HW2 9324   4.850   1.454  10.768
69143SOL     OW 9325   7.642  11.675   3.789
69143SOL    HW1 9326   7.673  11.599   3.740
69143SOL    HW2 9327   7.615  11.639   3.874
69144SOL     OW 9328  10.714  11.900  10.383
69144SOL    HW1 9329  10.666  11.848  10.319
69144SOL    HW2 9330  10.799  11.856  10.391
69145SOL     OW 9331  12.880   2.837  14.703
69145SOL    HW1 9332  12.910   2.919  14.664
69145SOL    HW2 9333  12.929   2.769  14.657
69146SOL     OW 9334  12.084   3.732   7.547
69146SOL    HW1 9335  12.029   3.694   7.479
69146SOL    HW2 9336  12.083   3.668   7.617
69147SOL     OW 9337   7.031   8.693   2.945
69147SOL    HW1 9338   6.986   8.769   2.906
69147SOL    HW2 9339   7.122   8.722   2.956
69148SOL     OW 9340  11.524   8.327   2.959
69148SOL    HW1 9341  11.570   8.331   3.042
69148SOL    HW2 9342  11.592   8.311   2.894
69149SOL     OW 9343   0.538   5.778  10.065
69149SOL    HW1 9344   0.484   5.780  10.143
69149SOL    HW2 9345   0.588   5.697  10.072
69150SOL     OW 9346   4.582  12.983   5.608
69150SOL    HW1 9347   4.610  12.963   5.697
69150SOL    HW2 9348   4.533  12.906   5.580
69151SOL     OW 9349  11.244   2.118  14.429
69151SOL    HW1 9350  11.302   2.046  14.406
69151SOL    HW2 9351  11.265   2.136  14.521
69152SOL     OW 9352   7.336   6.707   4.751
69152SOL    HW1 9353   7.332   6.639   4.819
69152SOL    HW2 9354   7.397   6.672   4.686
69153SOL     OW 9355   3.935   3.255   7.593
69153SOL    HW1 9356   4.027   3.231   7.604
69153SOL    HW2 9357   3.887   3.174   7.610
69154SOL     OW 9358   6.736  11.665   4.522
69154SOL    HW1 9359   6.746  11.757   4.545
69154SOL    HW2 9360   6.760  11.660   4.429
69155SOL     OW 9361   2.832   0.343   5.773
69155SOL    HW1 9362   2.927   0.331   5.779
69155SOL    HW2 9363   2.803   0.279   5.708
69156SOL     OW 9364   1.065   5.400   7.617
69156SOL    HW1 9365   0.975   5.375   7.599
69156SOL    HW2 9366   1.068   5.413   7.712
69157SOL     OW 9367   1.114   6.768   0.093
69157SOL    HW1 9368   1.097   6.721   0.011
69157SOL    HW2 9369   1.207   6.788   0.091
69158SOL     OW 9370  10.498  10.249  14.047
69158SOL    HW1 9371  10.593  10.241  14.056
69158SOL    HW2 9372  10.469  10.163  14.019
69159SOL     OW 9373   3.284  11.153   4.962
69159SOL    HW1 9374   3.330  11.198   5.032
69159SOL    HW2 9375   3.343  11.084   4.934
69160SOL     OW 9376   5.317   3.835  12.138
69160SOL    HW1 9377   5.246   3.804  12.194
69160SOL    HW2 9378   5.322   3.929  12.156
69161SOL     OW 9379  13.340  12.864   2.455
69161SOL    HW1 9380  13.356  12.770   2.460
69161SOL    HW2 9381  13.401  12.902   2.518
69162SOL     OW 9382   4.235   0.822   8.552
69162SOL    HW1 9383   4.275   0.852   8.634
69162SOL    HW2 9384   4.213   0.730   8.568
69163SOL     OW 9385   2.018  12.366   2.121
69163SOL    HW1 9386   2.013  12.271   2.125
69163SOL    HW2 9387   2.093  12.388   2.178
69164SOL     OW 9388   0.761   0.485   9.999
69164SOL    HW1 9389   0.775   0.574   9.968
69164SOL    HW2 9390   0.826   0.473  10.068
69165SOL     OW 9391   9.593   4.957  14.618
69165SOL    HW1 9392   9.653   4.883  14.612
69165SOL    HW2 9393   9.507   4.921  14.597
69166SOL     OW 9394   9.412  14.765  13.562
69166SOL    HW1 9395   9.351  14.820  13.513
69166SOL    HW2 9396   9.407  14.799  13.652
69167SOL     OW 9397  10.410   2.120   5.026
69167SOL    HW1 9398  10.400   2.170   4.945
69167SOL    HW2 9399  10.439   2.033   4.997
69168SOL     OW 9400   3.132   0.672   4.919
69168SOL    HW1 9401   3.220   0.705   4.937
69168SOL    HW2 9402   3.075   0.748   4.932
69169SOL     OW 9403  14.535   6.264  11.799
69169SOL    HW1 9404  14.577   6.334  11.749
69169SOL    HW2 9405  14.465   6.308  11.848
69170SOL     OW 9406   4.364   8.792  12.665
69170SOL    HW1 9407   4.429   8.726  12.641
69170SOL    HW2 9408   4.341   8.835  12.583
69171SOL     OW 9409   6.800  10.973   8.763
69171SOL    HW1 9410   6.722  11.022   8.738
69171SOL    HW2 9411   6.860  10.984   8.689
69172SOL     OW 9412   8.748  11.686  11.315
69172SOL    HW1 9413   8.741  11.606  11.366
69172SOL    HW2 9414   8.694  11.750  11.362
69173SOL     OW 9415   7.558   1.469   7.660
69173SOL    HW1 9416   7.612   1.402   7.700
69173SOL    HW2 9417   7.518   1.426   7.584
69174SOL     OW 9418   9.142   5.777   6.105
69174SOL    HW1 9419   9.133   5.745   6.015
69174SOL    HW2 9420   9.053   5.798   6.132
69175SOL     OW 9421   0.093   8.756  10.005
69175SOL    HW1 9422   0.094   8.708  10.087
69175SOL    HW2 9423   0.144   8.702   9.944
69176SOL     OW 9424   8.137  11.653   1.335
69176SOL    HW1 9425   8.225  11.669   1.369
69176SOL    HW2 9426   8.152  11.601   1.255
69177SOL     OW 9427   9.694  11.254   9.159
69177SOL    HW1 9428   9.758  11.194   9.120
69177SOL    HW2 9429   9.610  11.227   9.122
69178SOL     OW 9430   4.588   9.870   3.222
69178SOL    HW1 9431   4.547   9.792   3.185
69178SOL    HW2 9432   4.682   9.855   3.210
69179SOL     OW 9433   8.908   3.029   3.072
69179SOL    HW1 9434   8.920   3.101   3.010
69179SOL    HW2 9435   8.975   3.044   3.139
69180SOL     OW 9436   1.362   5.357  13.229
69180SOL    HW1 9437   1.433   5.297  13.252
69180SOL    HW2 9438   1.370   5.428  13.293
69181SOL     OW 9439   3.232   5.310  13.732
69181SOL    HW1 9440   3.220   5.255  13.810
69181SOL    HW2 9441   3.144   5.320  13.696
69182SOL     OW 9442   0.666  14.089   7.683
69182SOL    HW1 9443   0.668  14.135   7.600
69182SOL    HW2 9444   0.712  14.147   7.744
69183SOL     OW 9445  13.501   8.982   7.717
69183SOL    HW1 9446  13.482   8.903   7.767
69183SOL    HW2 9447  13.455   8.970   7.634
69184SOL     OW 9448   4.626  12.876   5.854
69184SOL    HW1 9449   4.632  12.781   5.841
69184SOL    HW2 9450   4.715  12.903   5.876
69185SOL     OW 9451   3.176   2.319  13.044
69185SOL    HW1 9452   3.192   2.225  13.060
69185SOL    HW2 9453   3.222   2.363  13.116
69186SOL     OW 9454   7.418  10.525   7.968
69186SOL    HW1 9455   7.458  10.463   7.907
69186SOL    HW2 9456   7.398  10.472   8.046
69187SOL     OW 9457   1.208  13.905  12.496
69187SOL    HW1 9458   1.215  13.827  12.552
69187SOL    HW2 9459   1.139  13.958  12.538
69188SOL     OW 9460   2.020   4.559   0.025
69188SOL    HW1 9461   2.008   4.628  14.842
69188SOL    HW2 9462   2.098   4.586   0.075
69189SOL     OW 9463   6.467   6.741   7.755
69189SOL    HW1 9464   6.454   6.826   7.797
69189SOL    HW2 9465   6.499   6.762   7.668
69190SOL     OW 9466  13.364   7.362   6.885
69190SOL    HW1 9467  13.442   7.362   6.941
69190SOL    HW2 9468  13.381   7.431   6.821
69191SOL     OW 9469   3.389   6.288   4.375
69191SOL    HW1 9470   3.398   6.268   4.468
69191SOL    HW2 9471   3.477   6.310   4.346
69192SOL     OW 9472  11.126   3.693   8.746
69192SOL    HW1 9473  11.045   3.712   8.794
69192SOL    HW2 9474  11.105   3.711   8.655
69193SOL     OW 9475   4.942   8.205   8.536
69193SOL    HW1 9476   4.884   8.224   8.610
69193SOL    HW2 9477   4.925   8.113   8.516
69194SOL     OW 9478   6.528   3.638  11.478
69194SOL    HW1 9479   6.438   3.655  11.503
69194SOL    HW2 9480   6.575   3.720  11.496
69195SOL     OW 9481   5.495   6.543   5.191
69195SOL    HW1 9482   5.442   6.613   5.154
69195SOL    HW2 9483   5.467   6.538   5.282
69196SOL     OW 9484  13.577  11.637   6.486
69196SOL    HW1 9485  13.485  11.656   6.467
69196SOL    HW2 9486  13.577  11.545   6.514
69197SOL     OW 9487   2.095   7.804   1.230
69197SOL    HW1 9488   2.002   7.822   1.245
69197SOL    HW2 9489   2.097   7.718   1.188
69198SOL     OW 9490  11.945  12.797   9.200
69198SOL    HW1 9491  11.867  12.818   9.148
69198SOL    HW2 9492  12.011  12.771   9.135
69199SOL     OW 9493  12.384   5.493   2.964
69199SOL    HW1 9494  12.411   5.507   2.874
69199SOL    HW2 9495  12.354   5.402   2.966
69200SOL     OW 9496  13.637  13.784   7.926
69200SOL    HW1 9497  13.644  13.736   8.009
69200SOL    HW2 9498  13.585  13.727   7.870
69201SOL     OW 9499   3.358   6.302   1.849
69201SOL    HW1 9500   3.368   6.373   1.912
69201SOL    HW2 9501   3.338   6.225   1.902
69202SOL     OW 9502   1.992  14.052   7.933
69202SOL    HW1 9503   1.933  14.059   7.858
69202SOL    HW2 9504   2.057  13.987   7.907
69203SOL     OW 9505  11.784   4.910   5.571
69203SOL    HW1 9506  11.719   4.919   5.502
69203SOL    HW2 9507  11.851   4.853   5.534
69204SOL     OW 9508   7.311   9.387   1.944
69204SOL    HW1 9509   7.371   9.452   1.980
69204SOL    HW2 9510   7.308   9.318   2.010
69205SOL     OW 9511   3.907   0.447   1.878
69205SOL    HW1 9512   3.899   0.368   1.931
69205SOL    HW2 9513   3.823   0.454   1.833
69206SOL     OW 9514   9.648   9.378   7.375
69206SOL    HW1 9515   9.600   9.395   7.457
69206SOL    HW2 9516   9.714   9.448   7.372
69207SOL     OW 9517   6.831  12.867   5.366
69207SOL    HW1 9518   6.914  12.914   5.370
69207SOL    HW2 9519   6.853  12.785   5.322
69208SOL     OW 9520  14.077  13.218   6.413
69208SOL    HW1 9521  14.159  13.169   6.419
69208SOL    HW2 9522  14.029  13.193   6.492
69209SOL     OW 9523   1.366  13.342   9.318
69209SOL    HW1 9524   1.348  13.346   9.224
69209SOL    HW2 9525   1.391  13.251   9.333
69210SOL     OW 9526   2.611  11.010  10.999
69210SOL    HW1 9527   2.532  10.966  10.967
69210SOL    HW2 9528   2.676  10.992  10.931
69211SOL     OW 9529  13.834   3.631   7.714
69211SOL    HW1 9530  13.776   3.667   7.781
69211SOL    HW2 9531  13.811   3.678   7.634
69212SOL     OW 9532   0.008   8.904  14.644
69212SOL    HW1 9533  14.829   8.890  14.717
69212SOL    HW2 9534   0.069   8.831  14.649
69213SOL     OW 9535   9.557   1.717   4.229
69213SOL    HW1 9536   9.507   1.755   4.158
69213SOL    HW2 9537   9.516   1.751   4.309
69214SOL     OW 9538   7.782  13.360   7.281
69214SOL    HW1 9539   7.692  13.356   7.313
69214SOL    HW2 9540   7.819  13.438   7.321
69215SOL     OW 9541   4.487   1.762  10.182
69215SOL    HW1 9542   4.517   1.779  10.093
69215SOL    HW2 9543   4.424   1.832  10.200
69216SOL     OW 9544   7.694   9.065  13.701
69216SOL    HW1 9545   7.635   9.132  13.737
69216SOL    HW2 9546   7.765   9.114  13.660
69217SOL     OW 9547  12.625  11.856   4.671
69217SOL    HW1 9548  12.655  11.901   4.592
69217SOL    HW2 9549  12.532  11.843   4.658
69218SOL     OW 9550   3.553   3.211  11.157
69218SOL    HW1 9551   3.501   3.207  11.076
69218SOL    HW2 9552   3.640   3.181  11.130
69219SOL     OW 9553  10.242   8.023   8.126
69219SOL    HW1 9554  10.181   8.084   8.084
69219SOL    HW2 9555  10.200   7.938   8.118
69220SOL     OW 9556  14.305   3.912   1.024
69220SOL    HW1 9557  14.213   3.933   1.039
69220SOL    HW2 9558  14.346   3.921   1.111
69221SOL     OW 9559  13.490   9.472  10.423
69221SOL    HW1 9560  13.482   9.567  10.427
69221SOL    HW2 9561  13.400   9.440  10.426
69222SOL     OW 9562   0.442   2.512   0.670
69222SOL    HW1 9563   0.358   2.529   0.712
69222SOL    HW2 9564   0.442   2.566   0.591
69223SOL     OW 9565  12.329   6.060   0.636
69223SOL    HW1 9566  12.277   5.993   0.681
69223SOL    HW2 9567  12.413   6.059   0.682
69224SOL     OW 9568   6.844  11.680   8.517
69224SOL    HW1 9569   6.805  11.757   8.476
69224SOL    HW2 9570   6.927  11.666   8.471
69225SOL     OW 9571   1.513   3.534   4.042
69225SOL    HW1 9572   1.489   3.539   4.135
69225SOL    HW2 9573   1.430   3.544   3.995
69226SOL     OW 9574   1.977  13.046   6.980
69226SOL    HW1 9575   1.887  13.029   7.006
69226SOL    HW2 9576   1.980  13.139   6.959
69227SOL     OW 9577   8.597  11.098   2.407
69227SOL    HW1 9578   8.689  11.097   2.378
69227SOL    HW2 9579   8.589  11.178   2.458
69228SOL     OW 9580   3.699   0.701   6.440
69228SOL    HW1 9581   3.683   0.795   6.435
69228SOL    HW2 9582   3.645   0.664   6.370
69229SOL     OW 9583  13.220  13.141   0.078
69229SOL    HW1 9584  13.307  13.148   0.039
69229SOL    HW2 9585  13.233  13.080   0.152
69230SOL     OW 9586   5.189   1.623   6.577
69230SOL    HW1 9587   5.143   1.550   6.618
69230SOL    HW2 9588   5.275   1.624   6.619
69231SOL     OW 9589  13.271   9.477  12.736
69231SOL    HW1 9590  13.332   9.487  12.662
69231SOL    HW2 9591  13.201   9.539  12.717
69232SOL     OW 9592   6.336  14.576  10.047
69232SOL    HW1 9593   6.285  14.584  10.128
69232SOL    HW2 9594   6.368  14.664  10.030
69233SOL     OW 9595   6.635   2.660  11.619
69233SOL    HW1 9596   6.703   2.600  11.588
69233SOL    HW2 9597   6.581   2.606  11.677
69234SOL     OW 9598   6.703   5.336  14.376
69234SOL    HW1 9599   6.654   5.336  14.294
69234SOL    HW2 9600   6.671   5.261  14.425
69235SOL     OW 9601  12.299   8.547   6.200
69235SOL    HW1 9602  12.230   8.564   6.136
69235SOL    HW2 9603  12.273   8.598   6.277
69236SOL     OW 9604   8.590   7.781   1.685
69236SOL    HW1 9605   8.558   7.850   1.627
69236SOL    HW2 9606   8.542   7.703   1.659
69237SOL     OW 9607   0.543   5.172  12.814
69237SOL    HW1 9608   0.581   5.254  12.847
69237SOL    HW2 9609   0.593   5.153  12.734
69238SOL     OW 9610   1.094   3.623   6.730
69238SOL    HW1 9611   1.135   3.663   6.653
69238SOL    HW2 9612   1.012   3.671   6.742
69239SOL     OW 9613   8.143   1.704   2.059
69239SOL    HW1 9614   8.122   1.617   2.092
69239SOL    HW2 9615   8.213   1.690   1.996
69240SOL     OW 9616   3.547  10.572   5.059
69240SOL    HW1 9617   3.514  10.483   5.041
69240SOL    HW2 9618   3.511  10.594   5.145
69241SOL     OW 9619   2.607   7.153   1.368
69241SOL    HW1 9620   2.559   7.082   1.326
69241SOL    HW2 9621   2.650   7.198   1.295
69242SOL     OW 9622  10.595   6.968   8.283
69242SOL    HW1 9623  10.684   7.003   8.292
69242SOL    HW2 9624  10.605   6.893   8.225
69243SOL     OW 9625   8.105  10.571   7.166
69243SOL    HW1 9626   8.168  10.572   7.238
69243SOL    HW2 9627   8.111  10.482   7.130
69244SOL     OW 9628   8.300   1.020  14.370
69244SOL    HW1 9629   8.360   1.069  14.314
69244SOL    HW2 9630   8.263   0.953  14.312
69245SOL     OW 9631   5.280  13.156  12.607
69245SOL    HW1 9632   5.233  13.073  12.601
69245SOL    HW2 9633   5.271  13.196  12.521
69246SOL     OW 9634   1.565   0.967   6.432
69246SOL    HW1 9635   1.522   0.939   6.351
69246SOL    HW2 9636   1.579   0.886   6.481
69247SOL     OW 9637   0.812  11.194  13.644
69247SOL    HW1 9638   0.747  11.173  13.577
69247SOL    HW2 9639   0.761  11.203  13.724
69248SOL     OW 9640   9.897   7.014   4.905
69248SOL    HW1 9641   9.848   7.096   4.901
69248SOL    HW2 9642   9.846   6.959   4.965
69249SOL     OW 9643   0.980  13.811  14.448
69249SOL    HW1 9644   0.913  13.799  14.381
69249SOL    HW2 9645   1.063  13.798  14.402
69250SOL     OW 9646   8.698  10.347   0.333
69250SOL    HW1 9647   8.701  10.428   0.281
69250SOL    HW2 9648   8.661  10.282   0.273
69251SOL     OW 9649   9.084   7.185  10.992
69251SOL    HW1 9650   9.027   7.248  11.036
69251SOL    HW2 9651   9.025   7.130  10.940
69252SOL     OW 9652   5.008  14.500   3.442
69252SOL    HW1 9653   4.939  14.442   3.407
69252SOL    HW2 9654   4.979  14.520   3.531
69253SOL     OW 9655   5.971   3.319  14.412
69253SOL    HW1 9656   5.978   3.345  14.320
69253SOL    HW2 9657   6.061   3.322  14.445
69254SOL     OW 9658   5.809   6.400  10.972
69254SOL    HW1 9659   5.823   6.325  10.915
69254SOL    HW2 9660   5.891   6.450  10.965
69255SOL     OW 9661   4.612   7.887  11.998
69255SOL    HW1 9662   4.638   7.884  11.906
69255SOL    HW2 9663   4.654   7.967  12.032
69256SOL     OW 9664   6.359   6.709  11.824
69256SOL    HW1 9665   6.432   6.721  11.884
69256SOL    HW2 9666   6.353   6.791  11.775
69257SOL     OW 9667   9.552   6.423   6.782
69257SOL    HW1 9668   9.532   6.479   6.706
69257SOL    HW2 9669   9.636   6.383   6.759
69258SOL     OW 9670  11.624  10.703   1.482
69258SOL    HW1 9671  11.670  10.651   1.548
69258SOL    HW2 9672  11.623  10.792   1.518
69259SOL     OW 9673   5.412   1.726  14.316
69259SOL    HW1 9674   5.401   1.808  14.364
69259SOL    HW2 9675   5.323   1.698  14.294
69260SOL     OW 9676  11.530   9.205   2.837
69260SOL    HW1 9677  11.565   9.271   2.897
69260SOL    HW2 9678  11.602   9.144   2.824
69261SOL     OW 9679  11.878  12.633   9.582
69261SOL    HW1 9680  11.817  12.690   9.628
69261SOL    HW2 9681  11.950  12.620   9.644
69262SOL     OW 9682   3.842   1.777  11.979
69262SOL    HW1 9683   3.926   1.738  11.956
69262SOL    HW2 9684   3.844   1.864  11.938
69263SOL     OW 9685  10.319   7.033  14.263
69263SOL    HW1 9686  10.242   7.064  14.215
69263SOL    HW2 9687  10.286   7.013  14.351
69264SOL     OW 9688   2.132   9.895   9.448
69264SOL    HW1 9689   2.179   9.926   9.371
69264SOL    HW2 9690   2.154   9.959   9.517
69265SOL     OW 9691   8.761   4.678  12.932
69265SOL    HW1 9692   8.763   4.767  12.896
69265SOL    HW2 9693   8.683   4.639  12.893
69266SOL     OW 9694   7.179   6.854   8.477
69266SOL    HW1 9695   7.088   6.883   8.479
69266SOL    HW2 9696   7.230   6.935   8.470
69267SOL     OW 9697  12.031   2.602   8.941
69267SOL    HW1 9698  12.065   2.538   9.003
69267SOL    HW2 9699  11.936   2.596   8.950
69268SOL     OW 9700   0.706   6.003   8.823
69268SOL    HW1 9701   0.733   5.929   8.769
69268SOL    HW2 9702   0.771   6.005   8.894
69269SOL     OW 9703   2.302   3.331   6.034
69269SOL    HW1 9704   2.282   3.244   6.001
69269SOL    HW2 9705   2.328   3.316   6.125
69270SOL     OW 9706   3.204   3.235   1.487
69270SOL    HW1 9707   3.278   3.217   1.546
69270SOL    HW2 9708   3.164   3.314   1.521
69271SOL     OW 9709  10.051  11.203   1.219
69271SOL    HW1 9710  10.030  11.114   1.193
69271SOL    HW2 9711   9.980  11.256   1.180
69272SOL     OW 9712  10.344   6.231   1.150
69272SOL    HW1 9713  10.250   6.230   1.170
69272SOL    HW2 9714  10.348   6.245   1.055
69273SOL     OW 9715   1.194  10.491   0.352
69273SOL    HW1 9716   1.216  10.582   0.334
69273SOL    HW2 9717   1.277  10.443   0.340
69274SOL     OW 9718  11.477   5.199  12.764
69274SOL    HW1 9719  11.557   5.192  12.711
69274SOL    HW2 9720  11.495   5.146  12.841
69275SOL     OW 9721  10.270   5.902   4.343
69275SOL    HW1 9722  10.348   5.848   4.350
69275SOL    HW2 9723  10.200   5.840   4.323
69276SOL     OW 9724   0.769  10.582   1.974
69276SOL    HW1 9725   0.781  10.490   1.948
69276SOL    HW2 9726   0.717  10.577   2.053
69277SOL     OW 9727  13.248  14.033   1.465
69277SOL    HW1 9728  13.196  13.995   1.394
69277SOL    HW2 9729  13.254  13.962   1.530
69278SOL     OW 9730   5.554  10.374  13.188
69278SOL    HW1 9731   5.640  10.335  13.203
69278SOL    HW2 9732   5.569  10.469  13.191
69279SOL     OW 9733  12.195   2.619   5.747
69279SOL    HW1 9734  12.270   2.675   5.726
69279SOL    HW2 9735  12.195   2.553   5.678
69280SOL     OW 9736   3.965  12.280   8.271
69280SOL    HW1 9737   4.016  12.287   8.352
69280SOL    HW2 9738   3.877  12.309   8.296
69281SOL     OW 9739   5.812  12.734  10.527
69281SOL    HW1 9740   5.902  12.703  10.539
69281SOL    HW2 9741   5.809  12.761  10.435
69282SOL     OW 9742  14.083   7.034   2.142
69282SOL    HW1 9743  14.104   6.951   2.099
69282SOL    HW2 9744  14.000   7.017   2.187
69283SOL     OW 9745  10.036   5.585   0.829
69283SOL    HW1 9746  10.062   5.580   0.737
69283SOL    HW2 9747  10.061   5.499   0.865
69284SOL     OW 9748   4.699   3.563  12.363
69284SOL    HW1 9749   4.746   3.482  12.346
69284SOL    HW2 9750   4.746   3.629  12.312
69285SOL     OW 9751   9.509  14.235   1.994
69285SOL    HW1 9752   9.580  14.299   1.985
69285SOL    HW2 9753   9.435  14.286   2.027
69286SOL     OW 9754  13.061   5.470   4.594
69286SOL    HW1 9755  13.110   5.528   4.651
69286SOL    HW2 9756  12.989   5.524   4.560
69287SOL     OW 9757   2.494   8.451   2.561
69287SOL    HW1 9758   2.512   8.492   2.476
69287SOL    HW2 9759   2.412   8.491   2.590
69288SOL     OW 9760   6.117   6.743  10.806
69288SOL    HW1 9761   6.167   6.790  10.740
69288SOL    HW2 9762   6.074   6.811  10.857
69289SOL     OW 9763  13.878  12.312   5.053
69289SOL    HW1 9764  13.913  12.375   4.990
69289SOL    HW2 9765  13.926  12.231   5.037
69290SOL     OW 9766   4.998   2.353   0.291
69290SOL    HW1 9767   4.969   2.419   0.228
69290SOL    HW2 9768   4.986   2.269   0.246
69291SOL     OW 9769  13.942   5.052   6.748
69291SOL    HW1 9770  13.953   4.966   6.708
69291SOL    HW2 9771  14.031   5.087   6.756
69292SOL     OW 9772  12.306   6.191  12.199
69292SOL    HW1 9773  12.217   6.181  12.233
69292SOL    HW2 9774  12.340   6.269  12.242
69293SOL     OW 9775   4.291   1.253   8.593
69293SOL    HW1 9776   4.199   1.249   8.566
69293SOL    HW2 9777   4.337   1.196   8.531
69294SOL     OW 9778  14.086  14.204   3.516
69294SOL    HW1 9779  14.048  14.167   3.436
69294SOL    HW2 9780  14.016  14.257   3.553
69295SOL     OW 9781  12.684   3.764   6.223
69295SOL    HW1 9782  12.653   3.718   6.302
69295SOL    HW2 9783  12.684   3.697   6.155
69296SOL     OW 9784   8.697  10.134   0.135
69296SOL    HW1 9785   8.613  10.149   0.091
69296SOL    HW2 9786   8.710  10.040   0.130
69297SOL     OW 9787   8.680   8.611   0.935
69297SOL    HW1 9788   8.660   8.551   1.007
69297SOL    HW2 9789   8.708   8.554   0.864
69298SOL     OW 9790  11.925   3.224  10.063
69298SOL    HW1 9791  11.842   3.236  10.111
69298SOL    HW2 9792  11.899   3.179   9.983
69299SOL     OW 9793  12.679   1.276   7.596
69299SOL    HW1 9794  12.597   1.269   7.546
69299SOL    HW2 9795  12.744   1.234   7.541
69300SOL     OW 9796   0.602   9.866  13.440
69300SOL    HW1 9797   0.565   9.806  13.505
69300SOL    HW2 9798   0.672   9.815  13.398
69301SOL     OW 9799  10.994   0.382   2.297
69301SOL    HW1 9800  10.924   0.428   2.343
69301SOL    HW2 9801  11.027   0.318   2.361
69302SOL     OW 9802   2.641   2.691  10.469
69302SOL    HW1 9803   2.661   2.780  10.498
69302SOL    HW2 9804   2.726   2.651  10.452
69303SOL     OW 9805   7.742  11.746   0.531
69303SOL    HW1 9806   7.789  11.804   0.591
69303SOL    HW2 9807   7.716  11.671   0.585
69304SOL     OW 9808   7.671  11.209   6.969
69304SOL    HW1 9809   7.691  11.228   7.061
69304SOL    HW2 9810   7.716  11.278   6.920
69305SOL     OW 9811  13.854  13.995  13.449
69305SOL    HW1 9812  13.828  13.909  13.418
69305SOL    HW2 9813  13.772  14.044  13.457
69306SOL     OW 9814   0.929   8.238   6.273
69306SOL    HW1 9815   0.836   8.221   6.287
69306SOL    HW2 9816   0.963   8.264   6.358
69307SOL     OW 9817   9.616   3.180   4.526
69307SOL    HW1 9818   9.599   3.225   4.443
69307SOL    HW2 9819   9.711   3.169   4.529
69308SOL     OW 9820   3.052   9.598   8.319
69308SOL    HW1 9821   3.113   9.560   8.383
69308SOL    HW2 9822   2.968   9.597   8.364
69309SOL     OW 9823   4.748   9.963  13.584
69309SOL    HW1 9824   4.826   9.908  13.575
69309SOL    HW2 9825   4.781  10.052  13.572
69310SOL     OW 9826   3.817   9.518  12.747
69310SOL    HW1 9827   3.878   9.592  12.751
69310SOL    HW2 9828   3.847   9.460  12.817
69311SOL     OW 9829   8.991   1.435   2.249
69311SOL    HW1 9830   9.065   1.376   2.235
69311SOL    HW2 9831   8.941   1.430   2.168
69312SOL     OW 9832   5.783   3.187   2.345
69312SOL    HW1 9833   5.742   3.272   2.325
69312SOL    HW2 9834   5.713   3.123   2.330
69313SOL     OW 9835   6.303   4.841   2.829
69313SOL    HW1 9836   6.379   4.856   2.885
69313SOL    HW2 9837   6.332   4.774   2.767
69314SOL     OW 9838   2.642   5.782   8.143
69314SOL    HW1 9839   2.698   5.756   8.216
69314SOL    HW2 9840   2.662   5.875   8.129
69315SOL     OW 9841  12.652  12.888   9.373
69315SOL    HW1 9842  12.720  12.918   9.434
69315SOL    HW2 9843  12.672  12.796   9.358
69316SOL     OW 9844   8.078   9.179   8.856
69316SOL    HW1 9845   8.156   9.136   8.822
69316SOL    HW2 9846   8.098   9.198   8.948
69317SOL     OW 9847   8.886   3.284   5.857
69317SOL    HW1 9848   8.902   3.337   5.935
69317SOL    HW2 9849   8.905   3.343   5.784
69318SOL     OW 9850  13.815  10.676   3.774
69318SOL    HW1 9851  13.744  10.738   3.755
69318SOL    HW2 9852  13.875  10.725   3.830
69319SOL     OW 9853  10.999  11.166   9.093
69319SOL    HW1 9854  10.926  11.148   9.035
69319SOL    HW2 9855  11.051  11.232   9.047
69320SOL     OW 9856   4.443   8.036  12.739
69320SOL    HW1 9857   4.362   8.031  12.789
69320SOL    HW2 9858   4.416   8.072  12.654
69321SOL     OW 9859   8.705   2.704  12.631
69321SOL    HW1 9860   8.621   2.691  12.676
69321SOL    HW2 9861   8.731   2.616  12.604
69322SOL     OW 9862   3.804   5.593  13.656
69322SOL    HW1 9863   3.759   5.626  13.578
69322SOL    HW2 9864   3.774   5.649  13.727
69323SOL     OW 9865  10.723  10.791   7.013
69323SOL    HW1 9866  10.675  10.708   7.015
69323SOL    HW2 9867  10.742  10.810   7.105
69324SOL     OW 9868   5.353   6.121  12.097
69324SOL    HW1 9869   5.364   6.036  12.056
69324SOL    HW2 9870   5.429   6.172  12.069
69325SOL     OW 9871   0.260   1.140   4.183
69325SOL    HW1 9872   0.208   1.067   4.151
69325SOL    HW2 9873   0.270   1.197   4.108
69326SOL     OW 9874   6.079   2.230  10.323
69326SOL    HW1 9875   6.025   2.304  10.351
69326SOL    HW2 9876   6.145   2.222  10.392
69327SOL     OW 9877   6.652  13.551   4.402
69327SOL    HW1 9878   6.597  13.613   4.449
69327SOL    HW2 9879   6.594  13.476   4.384
69328SOL     OW 9880  13.839   5.867  13.213
69328SOL    HW1 9881  13.886   5.950  13.201
69328SOL    HW2 9882  13.750   5.886  13.184
69329SOL     OW 9883   5.129   9.881   2.237
69329SOL    HW1 9884   5.037   9.905   2.228
69329SOL    HW2 9885   5.130   9.786   2.228
69330SOL     OW 9886  10.503  10.754  11.069
69330SOL    HW1 9887  10.457  10.686  11.118
69330SOL    HW2 9888  10.595  10.727  11.070
69331SOL     OW 9889   9.064   7.296  11.344
69331SOL    HW1 9890   8.977   7.280  11.380
69331SOL    HW2 9891   9.049   7.345  11.263
69332SOL     OW 9892   0.041   8.027   9.590
69332SOL    HW1 9893  14.860   7.976   9.641
69332SOL    HW2 9894   0.127   7.992   9.615
69333SOL     OW 9895   7.091   6.971   3.585
69333SOL    HW1 9896   7.142   7.039   3.542
69333SOL    HW2 9897   7.003   7.007   3.593
69334SOL     OW 9898   8.945   2.052   6.404
69334SOL    HW1 9899   8.860   2.095   6.393
69334SOL    HW2 9900   8.925   1.959   6.402
69335SOL     OW 9901   3.775   7.393  12.832
69335SOL    HW1 9902   3.799   7.307  12.868
69335SOL    HW2 9903   3.734   7.373  12.748
69336SOL     OW 9904  14.162   8.918   5.034
69336SOL    HW1 9905  14.130   8.829   5.015
69336SOL    HW2 9906  14.082   8.968   5.053
69337SOL     OW 9907   8.484   8.705   2.937
69337SOL    HW1 9908   8.503   8.621   2.895
69337SOL    HW2 9909   8.402   8.734   2.896
69338SOL     OW 9910  12.327  12.338   5.333
69338SOL    HW1 9911  12.247  12.373   5.372
69338SOL    HW2 9912  12.302  12.316   5.243
69339SOL     OW 9913  11.921   4.291   0.042
69339SOL    HW1 9914  11.871   4.370   0.062
69339SOL    HW2 9915  11.926   4.244   0.125
69340SOL     OW 9916   8.321   8.197   0.840
69340SOL    HW1 9917   8.296   8.228   0.752
69340SOL    HW2 9918   8.410   8.164   0.830
69341SOL     OW 9919   0.201   8.948   2.158
69341SOL    HW1 9920   0.167   9.034   2.181
69341SOL    HW2 9921   0.193   8.896   2.238
69342SOL     OW 9922   5.873   2.464  14.186
69342SOL    HW1 9923   5.918   2.384  14.159
69342SOL    HW2 9924   5.794   2.466  14.132
69343SOL     OW 9925  13.625   1.919   2.897
69343SOL    HW1 9926  13.607   1.986   2.962
69343SOL    HW2 9927  13.539   1.887   2.870
69344SOL     OW 9928   4.071   1.832  12.861
69344SOL    HW1 9929   4.083   1.837  12.956
69344SOL    HW2 9930   4.147   1.876  12.824
69345SOL     OW 9931  14.229  13.800   3.990
69345SOL    HW1 9932  14.284  13.788   3.913
69345SOL    HW2 9933  14.251  13.887   4.023
69346SOL     OW 9934  10.473   7.583  13.375
69346SOL    HW1 9935  10.540   7.545  13.432
69346SOL    HW2 9936  10.479   7.677  13.391
69347SOL     OW 9937   1.494   8.252   0.498
69347SOL    HW1 9938   1.434   8.268   0.425
69347SOL    HW2 9939   1.581   8.257   0.458
69348SOL     OW 9940   7.340   1.639   4.720
69348SOL    HW1 9941   7.331   1.709   4.784
69348SOL    HW2 9942   7.303   1.562   4.763
69349SOL     OW 9943   6.682   2.351   2.196
69349SOL    HW1 9944   6.773   2.378   2.183
69349SOL    HW2 9945   6.689   2.260   2.225
69350SOL     OW 9946   3.359   4.426   3.160
69350SOL    HW1 9947   3.276   4.444   3.205
69350SOL    HW2 9948   3.350   4.336   3.128
69351SOL     OW 9949   1.129   0.203  11.183
69351SOL    HW1 9950   1.106   0.294  11.200
69351SOL    HW2 9951   1.222   0.206  11.159
69352SOL     OW 9952   0.216   9.032  12.070
69352SOL    HW1 9953   0.230   9.106  12.011
69352SOL    HW2 9954   0.121   9.021  12.073
69353SOL     OW 9955  12.829  13.736   7.332
69353SOL    HW1 9956  12.810  13.679   7.257
69353SOL    HW2 9957  12.785  13.818   7.312
69354SOL     OW 9958  12.410   3.759   6.701
69354SOL    HW1 9959  12.387   3.670   6.674
69354SOL    HW2 9960  12.327   3.798   6.730
69355SOL     OW 9961  12.913   0.688   9.886
69355SOL    HW1 9962  13.007   0.668   9.890
69355SOL    HW2 9963  12.886   0.656   9.800
69356SOL     OW 9964   7.404   6.182  11.004
69356SOL    HW1 9965   7.466   6.234  11.055
69356SOL    HW2 9966   7.373   6.115  11.065
69357SOL     OW 9967  12.519   6.513  13.669
69357SOL    HW1 9968  12.451   6.487  13.731
69357SOL    HW2 9969  12.521   6.608  13.673
69358SOL     OW 9970   6.527   8.239   6.373
69358SOL    HW1 9971   6.566   8.308   6.319
69358SOL    HW2 9972   6.546   8.266   6.463
69359SOL     OW 9973   7.272  12.919   0.178
69359SOL    HW1 9974   7.319  12.887   0.255
69359SOL    HW2 9975   7.337  12.970   0.130
69360SOL     OW 9976  11.313   0.956   7.602
69360SOL    HW1 9977  11.227   0.992   7.581
69360SOL    HW2 9978  11.363   0.963   7.520
69361SOL     OW 9979   6.094   5.549  10.669
69361SOL    HW1 9980   6.093   5.636  10.708
69361SOL    HW2 9981   6.185   5.520  10.676
69362SOL     OW 9982   9.367   1.853   6.470
69362SOL    HW1 9983   9.346   1.942   6.496
69362SOL    HW2 9984   9.310   1.835   6.396
69363SOL     OW 9985   8.319  12.969   4.234
69363SOL    HW1 9986   8.288  12.967   4.324
69363SOL    HW2 9987   8.414  12.974   4.241
69364SOL     OW 9988  12.896  12.172   6.152
69364SOL    HW1 9989  12.953  12.127   6.215
69364SOL    HW2 9990  12.833  12.105   6.125
69365SOL     OW 9991  13.088   3.208  14.773
69365SOL    HW1 9992  13.136   3.163  14.703
69365SOL    HW2 9993  13.146   3.280  14.799
69366SOL     OW 9994  11.123   4.216  12.735
69366SOL    HW1 9995  11.209   4.258  12.735
69366SOL    HW2 9996  11.123   4.162  12.814
69367SOL     OW 9997   1.606   5.230   9.012
69367SOL    HW1 9998   1.517   5.256   8.992
69367SOL    HW2 9999   1.615   5.246   9.106
69368SOL     OW10000  13.095   7.500  14.301
69368SOL    HW110001  13.032   7.572  14.295
69368SOL    HW210002  13.045   7.428  14.338
69369SOL     OW10003   8.534   3.622  12.796
69369SOL    HW110004   8.552   3.591  12.885
69369SOL    HW210005   8.619   3.650  12.762
69370SOL     OW10006   4.479   2.422   5.273
69370SOL    HW110007   4.514   2.469   5.198
69370SOL    HW210008   4.515   2.468   5.349
69371SOL     OW10009   4.483   3.522  14.053
69371SOL    HW110010   4.532   3.604  14.044
69371SOL    HW210011   4.438   3.512  13.968
69372SOL     OW10012   5.428   2.853  10.857
69372SOL    HW110013   5.493   2.791  10.890
69372SOL    HW210014   5.476   2.911  10.799
69373SOL     OW10015   0.153   4.112  10.398
69373SOL    HW110016   0.247   4.109  10.415
69373SOL    HW210017   0.139   4.199  10.358
69374SOL     OW10018   8.113   3.110   8.248
69374SOL    HW110019   8.115   3.091   8.154
69374SOL    HW210020   8.185   3.058   8.284
69375SOL     OW10021   5.905   4.131   4.627
69375SOL    HW110022   5.859   4.080   4.694
69375SOL    HW210023   5.872   4.097   4.544
69376SOL     OW10024   9.247  14.182  14.566
69376SOL    HW110025   9.303  14.140  14.501
69376SOL    HW210026   9.241  14.118  14.637
69377SOL     OW10027   1.353   0.670  13.800
69377SOL    HW110028   1.427   0.706  13.849
69377SOL    HW210029   1.289   0.647  13.867
69378SOL     OW10030  11.136  13.417  14.714
69378SOL    HW110031  11.090  13.339  14.745
69378SOL    HW210032  11.135  13.409  14.619
69379SOL     OW10033  10.656   5.307  10.734
69379SOL    HW110034  10.713   5.246  10.780
69379SOL    HW210035  10.680   5.297  10.641
69380SOL     OW10036  10.722   2.806   9.791
69380SOL    HW110037  10.729   2.727   9.738
69380SOL    HW210038  10.629   2.811   9.814
69381SOL     OW10039   1.995   8.453   2.814
69381SOL    HW110040   2.018   8.542   2.788
69381SOL    HW210041   1.970   8.410   2.732
69382SOL     OW10042  13.763   9.580   7.784
69382SOL    HW110043  13.733   9.521   7.853
69382SOL    HW210044  13.818   9.526   7.728
69383SOL     OW10045   3.895  10.141  13.932
69383SOL    HW110046   3.974  10.129  13.879
69383SOL    HW210047   3.928  10.148  14.022
69384SOL     OW10048  13.356   0.538   7.176
69384SOL    HW110049  13.441   0.580   7.190
69384SOL    HW210050  13.331   0.507   7.263
69385SOL     OW10051   2.470   3.411  12.763
69385SOL    HW110052   2.453   3.334  12.710
69385SOL    HW210053   2.565   3.408  12.779
69386SOL     OW10054   2.037   3.651   9.038
69386SOL    HW110055   2.070   3.726   8.988
69386SOL    HW210056   1.974   3.689   9.099
69387SOL     OW10057   5.059   3.792   3.727
69387SOL    HW110058   5.026   3.805   3.637
69387SOL    HW210059   4.989   3.827   3.783
69388SOL     OW10060  10.568   7.042   4.745
69388SOL    HW110061  10.536   7.089   4.822
69388SOL    HW210062  10.509   6.968   4.736
69389SOL     OW10063  14.288   8.675  13.081
69389SOL    HW110064  14.281   8.580  13.070
69389SOL    HW210065  14.264   8.690  13.172
69390SOL     OW10066   7.315  11.389   2.954
69390SOL    HW110067   7.226  11.405   2.924
69390SOL    HW210068   7.308  11.310   3.008
69391SOL     OW10069  11.303  12.460   1.007
69391SOL    HW110070  11.324  12.405   1.082
69391SOL    HW210071  11.373  12.525   1.005
69392SOL     OW10072   5.020   0.552  10.575
69392SOL    HW110073   5.071   0.510  10.644
69392SOL    HW210074   4.933   0.562  10.613
69393SOL     OW10075   4.528   5.744  10.074
69393SOL    HW110076   4.536   5.653  10.045
69393SOL    HW210077   4.445   5.775  10.038
69394SOL     OW10078  10.222  12.463  14.685
69394SOL    HW110079  10.283  12.389  14.684
69394SOL    HW210080  10.266  12.530  14.737
69395SOL     OW10081   6.836   7.623  11.719
69395SOL    HW110082   6.877   7.706  11.696
69395SOL    HW210083   6.804   7.589  11.636
69396SOL     OW10084   7.678   4.231  13.518
69396SOL    HW110085   7.711   4.155  13.566
69396SOL    HW210086   7.719   4.306  13.560
69397SOL     OW10087   0.627  12.576   2.733
69397SOL    HW110088   0.687  12.650   2.731
69397SOL    HW210089   0.684  12.500   2.745
69398SOL     OW10090   3.701   5.919   2.379
69398SOL    HW110091   3.645   5.993   2.353
69398SOL    HW210092   3.666   5.893   2.465
69399SOL     OW10093  11.133  10.424   5.803
69399SOL    HW110094  11.212  10.393   5.759
69399SOL    HW210095  11.125  10.368   5.881
69400SOL     OW10096   9.091  12.441  11.485
69400SOL    HW110097   9.181  12.460  11.461
69400SOL    HW210098   9.081  12.477  11.573
69401SOL     OW10099  14.545   8.578   5.415
69401SOL    HW110100  14.611   8.573   5.485
69401SOL    HW210101  14.594   8.611   5.339
69402SOL     OW10102   7.636  11.069  11.225
69402SOL    HW110103   7.611  11.086  11.134
69402SOL    HW210104   7.556  11.039  11.267
69403SOL     OW10105   4.781   1.380   7.075
69403SOL    HW110106   4.806   1.464   7.112
69403SOL    HW210107   4.861   1.346   7.036
69404SOL     OW10108   9.347   7.444   8.953
69404SOL    HW110109   9.343   7.492   8.871
69404SOL    HW210110   9.384   7.506   9.016
69405SOL     OW10111  13.237  13.903   2.547
69405SOL    HW110112  13.329  13.877   2.543
69405SOL    HW210113  13.212  13.891   2.638
69406SOL     OW10114   6.379   1.339   5.162
69406SOL    HW110115   6.330   1.257   5.157
69406SOL    HW210116   6.468   1.312   5.185
69407SOL     OW10117  14.530   3.693  10.648
69407SOL    HW110118  14.460   3.696  10.713
69407SOL    HW210119  14.505   3.758  10.582
69408SOL     OW10120   9.524   4.373   1.450
69408SOL    HW110121   9.507   4.390   1.357
69408SOL    HW210122   9.579   4.294   1.450
69409SOL     OW10123  13.310   0.991   6.721
69409SOL    HW110124  13.220   0.986   6.754
69409SOL    HW210125  13.316   0.922   6.655
69410SOL     OW10126  14.306   6.025   4.904
69410SOL    HW110127  14.302   6.014   4.999
69410SOL    HW210128  14.242   6.094   4.884
69411SOL     OW10129  14.246   9.289   0.842
69411SOL    HW110130  14.287   9.203   0.849
69411SOL    HW210131  14.224   9.313   0.932
69412SOL     OW10132   1.138  13.028   8.136
69412SOL    HW110133   1.154  13.122   8.124
69412SOL    HW210134   1.204  13.000   8.200
69413SOL     OW10135  10.162   2.682   7.900
69413SOL    HW110136  10.123   2.755   7.852
69413SOL    HW210137  10.256   2.700   7.899
69414SOL     OW10138  13.056  14.822  11.489
69414SOL    HW110139  12.972  14.783  11.513
69414SOL    HW210140  13.089  14.768  11.417
69415SOL     OW10141   2.862   1.480   3.316
69415SOL    HW110142   2.843   1.515   3.403
69415SOL    HW210143   2.784   1.501   3.264
69416SOL     OW10144   6.306  14.293  12.315
69416SOL    HW110145   6.398  14.320  12.313
69416SOL    HW210146   6.289  14.262  12.226
69417SOL     OW10147   4.175  10.637   5.558
69417SOL    HW110148   4.104  10.617   5.619
69417SOL    HW210149   4.159  10.580   5.483
69418SOL     OW10150   5.708   0.471   9.356
69418SOL    HW110151   5.722   0.433   9.269
69418SOL    HW210152   5.738   0.403   9.416
69419SOL     OW10153  10.151   0.696  10.570
69419SOL    HW110154  10.132   0.784  10.601
69419SOL    HW210155  10.193   0.709  10.485
69420SOL     OW10156   6.256  14.671   0.229
69420SOL    HW110157   6.209  14.654   0.311
69420SOL    HW210158   6.245  14.591   0.178
69421SOL     OW10159   1.806   0.682   3.587
69421SOL    HW110160   1.809   0.623   3.512
69421SOL    HW210161   1.736   0.647   3.642
69422SOL     OW10162   8.653  12.047   9.810
69422SOL    HW110163   8.734  12.055   9.861
69422SOL    HW210164   8.584  12.077   9.870
69423SOL     OW10165  14.491   2.555   6.684
69423SOL    HW110166  14.449   2.633   6.720
69423SOL    HW210167  14.512   2.501   6.761
69424SOL     OW10168  13.155   4.860  12.235
69424SOL    HW110169  13.168   4.771  12.266
69424SOL    HW210170  13.061   4.866  12.216
69425SOL     OW10171  10.114  11.374   1.574
69425SOL    HW110172  10.035  11.427   1.583
69425SOL    HW210173  10.095  11.293   1.621
69426SOL     OW10174   7.867   1.478   0.601
69426SOL    HW110175   7.799   1.546   0.601
69426SOL    HW210176   7.948   1.525   0.584
69427SOL     OW10177   9.667  12.252   3.492
69427SOL    HW110178   9.705  12.339   3.503
69427SOL    HW210179   9.586  12.256   3.543
69428SOL     OW10180   6.934   4.826   9.570
69428SOL    HW110181   6.997   4.856   9.504
69428SOL    HW210182   6.855   4.805   9.520
69429SOL     OW10183   9.582  14.708  12.991
69429SOL    HW110184   9.599  14.723  12.898
69429SOL    HW210185   9.642  14.767  13.037
69430SOL     OW10186  12.690   9.861  13.202
69430SOL    HW110187  12.686   9.855  13.106
69430SOL    HW210188  12.610   9.817  13.231
69431SOL     OW10189  13.992   1.120  11.250
69431SOL    HW110190  14.006   1.157  11.338
69431SOL    HW210191  13.989   1.196  11.192
69432SOL     OW10192   3.131   6.092   3.816
69432SOL    HW110193   3.083   6.173   3.799
69432SOL    HW210194   3.205   6.120   3.869
69433SOL     OW10195  11.194   9.548  10.456
69433SOL    HW110196  11.160   9.466  10.491
69433SOL    HW210197  11.252   9.581  10.525
69434SOL     OW10198   5.199   6.295  11.966
69434SOL    HW110199   5.143   6.241  11.910
69434SOL    HW210200   5.243   6.233  12.023
69435SOL     OW10201   3.882  13.822   7.165
69435SOL    HW110202   3.960  13.775   7.195
69435SOL    HW210203   3.809  13.763   7.186
69436SOL     OW10204  11.672   1.705   0.756
69436SOL    HW110205  11.600   1.710   0.820
69436SOL    HW210206  11.751   1.725   0.807
69437SOL     OW10207   9.390  14.110   1.527
69437SOL    HW110208   9.466  14.052   1.521
69437SOL    HW210209   9.401  14.173   1.456
69438SOL     OW10210  10.617  10.327   8.526
69438SOL    HW110211  10.632  10.392   8.595
69438SOL    HW210212  10.593  10.380   8.450
69439SOL     OW10213   4.596  10.227   0.616
69439SOL    HW110214   4.629  10.152   0.567
69439SOL    HW210215   4.666  10.248   0.678
69440SOL     OW10216   9.141   4.846   7.962
69440SOL    HW110217   9.113   4.931   7.997
69440SOL    HW210218   9.124   4.784   8.033
69441SOL     OW10219  11.466   2.655   3.488
69441SOL    HW110220  11.469   2.750   3.492
69441SOL    HW210221  11.546   2.630   3.443
69442SOL     OW10222  14.705  12.362  10.697
69442SOL    HW110223  14.721  12.454  10.721
69442SOL    HW210224  14.641  12.367  10.626
69443SOL     OW10225   0.137  11.034   2.916
69443SOL    HW110226   0.205  11.100   2.923
69443SOL    HW210227   0.092  11.036   3.001
69444SOL     OW10228   0.287   4.690  13.364
69444SOL    HW110229   0.340   4.766  13.338
69444SOL    HW210230   0.199   4.711  13.332
69445SOL     OW10231   5.959   8.222   0.778
69445SOL    HW110232   6.052   8.236   0.798
69445SOL    HW210233   5.916   8.226   0.864
69446SOL     OW10234   9.877   0.901   3.827
69446SOL    HW110235   9.914   0.892   3.915
69446SOL    HW210236   9.793   0.944   3.841
69447SOL     OW10237  11.645   3.313   5.862
69447SOL    HW110238  11.720   3.255   5.854
69447SOL    HW210239  11.683   3.400   5.878
69448SOL     OW10240  12.254   7.546   5.715
69448SOL    HW110241  12.278   7.638   5.726
69448SOL    HW210242  12.267   7.508   5.803
69449SOL     OW10243   7.898  13.717   1.946
69449SOL    HW110244   7.904  13.704   1.852
69449SOL    HW210245   7.848  13.642   1.978
69450SOL     OW10246   4.894  14.170   3.148
69450SOL    HW110247   4.847  14.156   3.065
69450SOL    HW210248   4.986  14.157   3.125
69451SOL     OW10249   7.264   0.804   3.718
69451SOL    HW110250   7.264   0.831   3.626
69451SOL    HW210251   7.352   0.826   3.749
69452SOL     OW10252   8.663   3.720  14.112
69452SOL    HW110253   8.652   3.748  14.203
69452SOL    HW210254   8.697   3.631  14.118
69453SOL     OW10255   7.458   4.786   7.207
69453SOL    HW110256   7.383   4.749   7.254
69453SOL    HW210257   7.499   4.709   7.166
69454SOL     OW10258   6.786   2.908   5.205
69454SOL    HW110259   6.881   2.911   5.203
69454SOL    HW210260   6.763   2.930   5.295
69455SOL     OW10261   4.705   0.061  10.107
69455SOL    HW110262   4.798   0.058  10.083
69455SOL    HW210263   4.705   0.088  10.198
69456SOL     OW10264   0.986  14.776   4.036
69456SOL    HW110265   1.066  14.723   4.040
69456SOL    HW210266   1.018  14.865   4.020
69457SOL     OW10267   7.056   9.763   4.955
69457SOL    HW110268   7.147   9.734   4.952
69457SOL    HW210269   7.009   9.704   4.896
69458SOL     OW10270  12.015  10.071   3.091
69458SOL    HW110271  11.980  10.036   3.009
69458SOL    HW210272  12.070  10.001   3.126
69459SOL     OW10273  13.258   8.967  13.116
69459SOL    HW110274  13.226   9.038  13.172
69459SOL    HW210275  13.178   8.931  13.076
69460SOL     OW10276  13.131   2.562   4.430
69460SOL    HW110277  13.036   2.555   4.419
69460SOL    HW210278  13.143   2.583   4.522
69461SOL     OW10279   6.986  13.846  14.821
69461SOL    HW110280   6.990  13.751  14.816
69461SOL    HW210281   6.900  13.868  14.785
69462SOL     OW10282   5.462   0.520  10.302
69462SOL    HW110283   5.522   0.446  10.297
69462SOL    HW210284   5.519   0.596  10.318
69463SOL     OW10285  10.304   1.402   2.762
69463SOL    HW110286  10.371   1.436   2.702
69463SOL    HW210287  10.285   1.314   2.729
69464SOL     OW10288   7.358   9.701  12.062
69464SOL    HW110289   7.392   9.622  12.020
69464SOL    HW210290   7.286   9.670  12.117
69465SOL     OW10291   6.517   3.644   5.654
69465SOL    HW110292   6.510   3.737   5.631
69465SOL    HW210293   6.444   3.602   5.609
69466SOL     OW10294   7.314   9.165  10.493
69466SOL    HW110295   7.349   9.253  10.504
69466SOL    HW210296   7.231   9.178  10.447
69467SOL     OW10297   4.021  13.026   0.013
69467SOL    HW110298   4.103  13.043   0.060
69467SOL    HW210299   3.962  13.095   0.041
69468SOL     OW10300   8.432   9.766   3.811
69468SOL    HW110301   8.430   9.836   3.746
69468SOL    HW210302   8.419   9.686   3.760
69469SOL     OW10303   9.807  11.890  14.273
69469SOL    HW110304   9.744  11.870  14.343
69469SOL    HW210305   9.891  11.860  14.307
69470SOL     OW10306  14.473   7.157   7.953
69470SOL    HW110307  14.446   7.081   7.901
69470SOL    HW210308  14.470   7.126   8.043
69471SOL     OW10309   8.293  10.446  13.617
69471SOL    HW110310   8.265  10.376  13.559
69471SOL    HW210311   8.310  10.520  13.560
69472SOL     OW10312   0.365   1.570   9.077
69472SOL    HW110313   0.432   1.606   9.019
69472SOL    HW210314   0.282   1.606   9.043
69473SOL     OW10315  14.595   9.773   7.668
69473SOL    HW110316  14.636   9.781   7.755
69473SOL    HW210317  14.533   9.701   7.677
69474SOL     OW10318  10.119   3.213  12.982
69474SOL    HW110319  10.037   3.227  13.030
69474SOL    HW210320  10.188   3.242  13.041
69475SOL     OW10321   1.890  10.377   4.752
69475SOL    HW110322   1.805  10.415   4.775
69475SOL    HW210323   1.897  10.389   4.657
69476SOL     OW10324   7.566  13.385   4.865
69476SOL    HW110325   7.615  13.467   4.871
69476SOL    HW210326   7.477  13.413   4.843
69477SOL     OW10327  13.372  11.928   5.336
69477SOL    HW110328  13.452  11.933   5.388
69477SOL    HW210329  13.356  12.018   5.307
69478SOL     OW10330   3.492   2.294  13.786
69478SOL    HW110331   3.440   2.253  13.855
69478SOL    HW210332   3.447   2.377  13.768
69479SOL     OW10333  12.507   4.889   3.671
69479SOL    HW110334  12.555   4.869   3.752
69479SOL    HW210335  12.554   4.962   3.632
69480SOL     OW10336   2.627   3.821  14.724
69480SOL    HW110337   2.607   3.810  14.631
69480SOL    HW210338   2.583   3.903  14.748
69481SOL     OW10339   7.423  10.381   8.551
69481SOL    HW110340   7.369  10.319   8.599
69481SOL    HW210341   7.412  10.464   8.598
69482SOL     OW10342   9.024  14.665  11.100
69482SOL    HW110343   8.978  14.725  11.159
69482SOL    HW210344   9.052  14.593  11.156
69483SOL     OW10345   6.781   6.413  13.190
69483SOL    HW110346   6.828   6.329  13.192
69483SOL    HW210347   6.844   6.476  13.223
69484SOL     OW10348   3.201  12.524   2.456
69484SOL    HW110349   3.236  12.435   2.452
69484SOL    HW210350   3.270  12.576   2.498
69485SOL     OW10351   4.134  14.090  11.458
69485SOL    HW110352   4.176  14.170  11.424
69485SOL    HW210353   4.177  14.019  11.411
69486SOL     OW10354  12.017   7.795   3.631
69486SOL    HW110355  12.008   7.840   3.547
69486SOL    HW210356  12.106   7.760   3.630
69487SOL     OW10357  14.585   6.793   6.981
69487SOL    HW110358  14.627   6.803   6.895
69487SOL    HW210359  14.585   6.699   6.997
69488SOL     OW10360   2.380   3.970   1.529
69488SOL    HW110361   2.375   3.950   1.622
69488SOL    HW210362   2.338   4.056   1.521
69489SOL     OW10363   7.509   9.371  11.747
69489SOL    HW110364   7.481   9.371  11.839
69489SOL    HW210365   7.468   9.449  11.709
69490SOL     OW10366   6.608  11.569  14.333
69490SOL    HW110367   6.547  11.580  14.406
69490SOL    HW210368   6.665  11.496  14.360
69491SOL     OW10369   3.956   7.195  10.112
69491SOL    HW110370   3.969   7.289  10.119
69491SOL    HW210371   4.044   7.160  10.100
69492SOL     OW10372  13.087  12.133   9.257
69492SOL    HW110373  13.021  12.063   9.259
69492SOL    HW210374  13.152  12.102   9.194
69493SOL     OW10375   8.293   1.828   0.572
69493SOL    HW110376   8.298   1.814   0.477
69493SOL    HW210377   8.361   1.891   0.591
69494SOL     OW10378  13.771   7.682   2.763
69494SOL    HW110379  13.833   7.610   2.771
69494SOL    HW210380  13.825   7.760   2.746
69495SOL     OW10381   2.172   8.769   1.165
69495SOL    HW110382   2.146   8.712   1.237
69495SOL    HW210383   2.179   8.856   1.204
69496SOL     OW10384  11.323  13.962   7.458
69496SOL    HW110385  11.379  13.956   7.381
69496SOL    HW210386  11.383  13.982   7.530
69497SOL     OW10387   4.221  12.534  12.135
69497SOL    HW110388   4.271  12.590  12.075
69497SOL    HW210389   4.235  12.572  12.221
69498SOL     OW10390  12.903   7.260   3.672
69498SOL    HW110391  12.974   7.261   3.608
69498SOL    HW210392  12.898   7.168   3.699
69499SOL     OW10393   1.769   0.241   6.954
69499SOL    HW110394   1.680   0.219   6.925
69499SOL    HW210395   1.805   0.158   6.987
69500SOL     OW10396   2.670   5.674  12.955
69500SOL    HW110397   2.722   5.626  12.890
69500SOL    HW210398   2.621   5.606  13.001
69501SOL     OW10399   5.224   8.758  11.354
69501SOL    HW110400   5.253   8.672  11.385
69501SOL    HW210401   5.265   8.768  11.268
69502SOL     OW10402  14.017  12.406   1.003
69502SOL    HW110403  13.957  12.454   1.060
69502SOL    HW210404  14.020  12.318   1.040
69503SOL     OW10405  13.261  10.066   4.496
69503SOL    HW110406  13.196  10.068   4.426
69503SOL    HW210407  13.267   9.973   4.521
69504SOL     OW10408   1.026   4.134   9.081
69504SOL    HW110409   0.998   4.122   8.991
69504SOL    HW210410   1.106   4.081   9.089
69505SOL     OW10411   4.354   9.802   5.359
69505SOL    HW110412   4.362   9.858   5.436
69505SOL    HW210413   4.331   9.716   5.394
69506SOL     OW10414   1.419   2.843   9.542
69506SOL    HW110415   1.372   2.911   9.591
69506SOL    HW210416   1.374   2.762   9.566
69507SOL     OW10417   3.937   8.346   8.388
69507SOL    HW110418   4.012   8.295   8.420
69507SOL    HW210419   3.861   8.291   8.406
69508SOL     OW10420   3.530   6.770   0.949
69508SOL    HW110421   3.445   6.738   0.980
69508SOL    HW210422   3.510   6.812   0.865
69509SOL     OW10423  12.920   0.879   9.315
69509SOL    HW110424  12.915   0.974   9.325
69509SOL    HW210425  12.984   0.866   9.245
69510SOL     OW10426   5.079   9.291  13.167
69510SOL    HW110427   5.117   9.327  13.087
69510SOL    HW210428   4.997   9.250  13.139
69511SOL     OW10429   1.181   3.472   0.894
69511SOL    HW110430   1.231   3.554   0.904
69511SOL    HW210431   1.096   3.491   0.933
69512SOL     OW10432   6.019   8.039   3.290
69512SOL    HW110433   6.014   7.989   3.372
69512SOL    HW210434   6.059   7.978   3.228
69513SOL     OW10435   0.614  13.881  14.710
69513SOL    HW110436   0.701  13.913  14.734
69513SOL    HW210437   0.573  13.857  14.793
69514SOL     OW10438   8.703   7.300  10.232
69514SOL    HW110439   8.735   7.209  10.232
69514SOL    HW210440   8.733   7.335  10.148
69515SOL     OW10441   2.417   6.232   7.161
69515SOL    HW110442   2.484   6.276   7.213
69515SOL    HW210443   2.346   6.214   7.224
69516SOL     OW10444  10.799   8.477  13.518
69516SOL    HW110445  10.807   8.382  13.524
69516SOL    HW210446  10.714   8.491  13.476
69517SOL     OW10447  14.619   4.554  11.170
69517SOL    HW110448  14.593   4.618  11.236
69517SOL    HW210449  14.589   4.469  11.205
69518SOL     OW10450  13.018  11.892  12.622
69518SOL    HW110451  13.030  11.960  12.555
69518SOL    HW210452  13.107  11.870  12.649
69519SOL     OW10453  10.221  10.138   8.140
69519SOL    HW110454  10.166  10.124   8.063
69519SOL    HW210455  10.179  10.088   8.209
69520SOL     OW10456   9.033   7.998   9.670
69520SOL    HW110457   8.965   7.991   9.738
69520SOL    HW210458   9.095   7.929   9.691
69521SOL     OW10459   0.219   4.994   7.291
69521SOL    HW110460   0.294   5.049   7.314
69521SOL    HW210461   0.142   5.047   7.311
69522SOL     OW10462  12.027  14.365   8.869
69522SOL    HW110463  12.085  14.333   8.939
69522SOL    HW210464  12.057  14.455   8.853
69523SOL     OW10465  10.811  10.984   1.214
69523SOL    HW110466  10.805  10.998   1.308
69523SOL    HW210467  10.789  11.069   1.176
69524SOL     OW10468   3.527  14.159  10.742
69524SOL    HW110469   3.606  14.147  10.688
69524SOL    HW210470   3.501  14.071  10.766
69525SOL     OW10471  12.136   2.083   2.374
69525SOL    HW110472  12.058   2.036   2.346
69525SOL    HW210473  12.130   2.168   2.330
69526SOL     OW10474   8.825  12.913   9.141
69526SOL    HW110475   8.747  12.946   9.095
69526SOL    HW210476   8.835  12.823   9.109
69527SOL     OW10477  10.850   8.236  13.487
69527SOL    HW110478  10.941   8.254  13.464
69527SOL    HW210479  10.816   8.185  13.413
69528SOL     OW10480   7.479  11.508   5.050
69528SOL    HW110481   7.524  11.518   4.967
69528SOL    HW210482   7.444  11.595   5.069
69529SOL     OW10483   0.483   7.662   1.372
69529SOL    HW110484   0.508   7.651   1.463
69529SOL    HW210485   0.397   7.620   1.365
69530SOL     OW10486  14.371   3.267  11.261
69530SOL    HW110487  14.407   3.332  11.320
69530SOL    HW210488  14.324   3.318  11.194
69531SOL     OW10489   5.166   2.139   7.851
69531SOL    HW110490   5.248   2.173   7.814
69531SOL    HW210491   5.194   2.071   7.912
69532SOL     OW10492   1.766   2.740  11.386
69532SOL    HW110493   1.730   2.728  11.298
69532SOL    HW210494   1.689   2.738  11.443
69533SOL     OW10495   9.628   4.351   8.979
69533SOL    HW110496   9.610   4.261   9.007
69533SOL    HW210497   9.711   4.344   8.931
69534SOL     OW10498   2.277   5.666  13.136
69534SOL    HW110499   2.289   5.753  13.174
69534SOL    HW210500   2.189   5.668  13.098
69535SOL     OW10501  14.195  11.478   2.173
69535SOL    HW110502  14.147  11.434   2.103
69535SOL    HW210503  14.126  11.513   2.230
69536SOL     OW10504   1.595   9.561   3.031
69536SOL    HW110505   1.644   9.497   3.082
69536SOL    HW210506   1.593   9.639   3.086
69537SOL     OW10507  13.353   6.516   5.046
69537SOL    HW110508  13.330   6.533   5.138
69537SOL    HW210509  13.348   6.420   5.039
69538SOL     OW10510   7.598  14.798   0.317
69538SOL    HW110511   7.571  14.716   0.357
69538SOL    HW210512   7.689  14.783   0.292
69539SOL     OW10513   3.445  12.063  12.965
69539SOL    HW110514   3.479  12.038  12.879
69539SOL    HW210515   3.362  12.016  12.973
69540SOL     OW10516   9.745   6.393   2.252
69540SOL    HW110517   9.674   6.417   2.312
69540SOL    HW210518   9.710   6.320   2.202
69541SOL     OW10519   6.441  11.449   8.123
69541SOL    HW110520   6.418  11.542   8.132
69541SOL    HW210521   6.382  11.416   8.055
69542SOL     OW10522  12.281   0.101   5.145
69542SOL    HW110523  12.373   0.092   5.168
69542SOL    HW210524  12.274   0.187   5.105
69543SOL     OW10525  12.390   5.593   2.709
69543SOL    HW110526  12.366   5.552   2.626
69543SOL    HW210527  12.486   5.594   2.708
69544SOL     OW10528  10.022   7.047  14.328
69544SOL    HW110529   9.959   7.109  14.366
69544SOL    HW210530  10.026   6.975  14.391
69545SOL     OW10531  11.364   9.199  10.350
69545SOL    HW110532  11.365   9.290  10.379
69545SOL    HW210533  11.404   9.200  10.263
69546SOL     OW10534  10.781   0.549   8.219
69546SOL    HW110535  10.861   0.599   8.236
69546SOL    HW210536  10.723   0.569   8.292
69547SOL     OW10537  11.976  13.973   0.143
69547SOL    HW110538  11.984  13.906   0.074
69547SOL    HW210539  11.883  13.969   0.169
69548SOL     OW10540  12.381  10.868  10.509
69548SOL    HW110541  12.440  10.801  10.474
69548SOL    HW210542  12.317  10.819  10.561
69549SOL     OW10543   2.993   2.667   7.036
69549SOL    HW110544   2.963   2.738   6.980
69549SOL    HW210545   3.087   2.682   7.046
69550SOL     OW10546  10.724   3.921   1.486
69550SOL    HW110547  10.680   3.999   1.520
69550SOL    HW210548  10.808   3.953   1.453
69551SOL     OW10549  11.775   0.697   5.717
69551SOL    HW110550  11.696   0.750   5.720
69551SOL    HW210551  11.762   0.631   5.786
69552SOL     OW10552   3.765  12.241  13.736
69552SOL    HW110553   3.786  12.333  13.751
69552SOL    HW210554   3.803  12.221  13.651
69553SOL     OW10555   4.111  11.402   9.415
69553SOL    HW110556   4.081  11.314   9.393
69553SOL    HW210557   4.101  11.408   9.510
69554SOL     OW10558  13.973   7.721   7.221
69554SOL    HW110559  13.939   7.648   7.273
69554SOL    HW210560  14.030   7.680   7.156
69555SOL     OW10561  12.045  10.778   7.648
69555SOL    HW110562  12.114  10.808   7.707
69555SOL    HW210563  12.089  10.716   7.589
69556SOL     OW10564  14.502  11.081   5.781
69556SOL    HW110565  14.531  11.016   5.845
69556SOL    HW210566  14.447  11.141   5.832
69557SOL     OW10567   9.032   3.712  13.536
69557SOL    HW110568   8.988   3.716  13.620
69557SOL    HW210569   9.106   3.653  13.550
69558SOL     OW10570   1.590   4.346   4.364
69558SOL    HW110571   1.641   4.280   4.412
69558SOL    HW210572   1.604   4.427   4.413
69559SOL     OW10573   6.027  10.006   3.927
69559SOL    HW110574   6.049   9.943   3.996
69559SOL    HW210575   6.109  10.019   3.880
69560SOL     OW10576   4.790   4.377   1.377
69560SOL    HW110577   4.787   4.326   1.296
69560SOL    HW210578   4.762   4.465   1.352
69561SOL     OW10579  11.286  13.202  13.268
69561SOL    HW110580  11.241  13.154  13.339
69561SOL    HW210581  11.379  13.187  13.285
69562SOL     OW10582  12.785  11.690   1.901
69562SOL    HW110583  12.870  11.727   1.876
69562SOL    HW210584  12.764  11.732   1.984
69563SOL     OW10585   0.666   8.184   6.707
69563SOL    HW110586   0.702   8.210   6.792
69563SOL    HW210587   0.727   8.222   6.643
69564SOL     OW10588  13.987   3.065   1.893
69564SOL    HW110589  13.901   3.033   1.866
69564SOL    HW210590  14.048   3.028   1.829
69565SOL     OW10591   7.903   4.140   0.723
69565SOL    HW110592   7.853   4.216   0.692
69565SOL    HW210593   7.927   4.162   0.813
69566SOL     OW10594  14.326   8.550   5.071
69566SOL    HW110595  14.415   8.543   5.036
69566SOL    HW210596  14.279   8.599   5.004
69567SOL     OW10597   8.076   2.207   1.200
69567SOL    HW110598   8.094   2.113   1.194
69567SOL    HW210599   8.136   2.238   1.268
69568SOL     OW10600   9.415   3.687   2.514
69568SOL    HW110601   9.390   3.599   2.487
69568SOL    HW210602   9.448   3.676   2.603
69569SOL     OW10603   6.378   9.649   0.491
69569SOL    HW110604   6.389   9.696   0.574
69569SOL    HW210605   6.394   9.557   0.513
69570SOL     OW10606  11.753   1.433   6.724
69570SOL    HW110607  11.790   1.507   6.773
69570SOL    HW210608  11.665   1.423   6.759
69571SOL     OW10609  12.725  12.848  14.545
69571SOL    HW110610  12.775  12.779  14.503
69571SOL    HW210611  12.634  12.819  14.539
69572SOL     OW10612   7.583   7.699  14.817
69572SOL    HW110613   7.526   7.624  14.838
69572SOL    HW210614   7.631   7.716   0.016
69573SOL     OW10615  12.470  14.011   0.973
69573SOL    HW110616  12.444  14.095   0.934
69573SOL    HW210617  12.387  13.970   0.999
69574SOL     OW10618   9.088  12.488  10.105
69574SOL    HW110619   9.078  12.545  10.029
69574SOL    HW210620   9.032  12.527  10.173
69575SOL     OW10621   5.005  13.011  12.807
69575SOL    HW110622   4.996  13.103  12.780
69575SOL    HW210623   5.081  12.979  12.759
69576SOL     OW10624   3.348   6.025   5.765
69576SOL    HW110625   3.303   5.943   5.784
69576SOL    HW210626   3.278   6.091   5.763
69577SOL     OW10627   7.440  12.690   3.920
69577SOL    HW110628   7.486  12.606   3.926
69577SOL    HW210629   7.456  12.720   3.830
69578SOL     OW10630   3.268  12.271  14.071
69578SOL    HW110631   3.222  12.261  14.154
69578SOL    HW210632   3.213  12.225  14.008
69579SOL     OW10633   6.043   0.566   5.430
69579SOL    HW110634   5.985   0.535   5.360
69579SOL    HW210635   6.116   0.505   5.430
69580SOL     OW10636   3.659  11.995  11.511
69580SOL    HW110637   3.642  11.903  11.492
69580SOL    HW210638   3.740  12.015  11.464
69581SOL     OW10639   0.169   8.676   6.173
69581SOL    HW110640   0.138   8.739   6.238
69581SOL    HW210641   0.264   8.687   6.172
69582SOL     OW10642   8.119   6.984   4.994
69582SOL    HW110643   8.148   6.987   5.085
69582SOL    HW210644   8.024   6.971   4.999
69583SOL     OW10645   5.787   5.821   0.855
69583SOL    HW110646   5.730   5.764   0.804
69583SOL    HW210647   5.746   5.908   0.848
69584SOL     OW10648   3.185   2.708  14.367
69584SOL    HW110649   3.280   2.721  14.362
69584SOL    HW210650   3.164   2.721  14.460
69585SOL     OW10651   2.731  13.697   5.439
69585SOL    HW110652   2.730  13.604   5.415
69585SOL    HW210653   2.762  13.698   5.530
69586SOL     OW10654   8.095   5.446  13.057
69586SOL    HW110655   8.107   5.537  13.032
69586SOL    HW210656   8.018   5.447  13.115
69587SOL     OW10657  11.398  12.474   1.931
69587SOL    HW110658  11.342  12.431   1.866
69587SOL    HW210659  11.484  12.476   1.890
69588SOL     OW10660   2.553  13.503  13.316
69588SOL    HW110661   2.550  13.585  13.365
69588SOL    HW210662   2.628  13.513  13.258
69589SOL     OW10663  13.930   3.893  10.426
69589SOL    HW110664  13.858   3.942  10.467
69589SOL    HW210665  13.952   3.944  10.348
69590SOL     OW10666   7.550   6.808   1.484
69590SOL    HW110667   7.454   6.810   1.479
69590SOL    HW210668   7.569   6.830   1.575
69591SOL     OW10669   4.250   1.347  13.140
69591SOL    HW110670   4.302   1.298  13.076
69591SOL    HW210671   4.187   1.396  13.087
69592SOL     OW10672   3.659   9.680   5.510
69592SOL    HW110673   3.574   9.719   5.527
69592SOL    HW210674   3.707   9.691   5.591
69593SOL     OW10675   7.249   8.011   6.731
69593SOL    HW110676   7.288   8.072   6.669
69593SOL    HW210677   7.308   8.013   6.807
69594SOL     OW10678   5.956  12.978   4.743
69594SOL    HW110679   6.006  12.912   4.695
69594SOL    HW210680   6.021  13.042   4.771
69595SOL     OW10681   3.222   9.364   9.337
69595SOL    HW110682   3.209   9.391   9.428
69595SOL    HW210683   3.182   9.278   9.331
69596SOL     OW10684   1.050   6.468   0.342
69596SOL    HW110685   1.031   6.562   0.331
69596SOL    HW210686   1.146   6.463   0.336
69597SOL     OW10687  11.682  11.546   3.539
69597SOL    HW110688  11.673  11.640   3.553
69597SOL    HW210689  11.740  11.537   3.463
69598SOL     OW10690   0.927   9.783   2.073
69598SOL    HW110691   0.901   9.864   2.116
69598SOL    HW210692   0.884   9.787   1.987
69599SOL     OW10693   7.690   1.679   0.689
69599SOL    HW110694   7.636   1.612   0.729
69599SOL    HW210695   7.638   1.711   0.615
69600SOL     OW10696   7.398   0.730   2.548
69600SOL    HW110697   7.333   0.682   2.599
69600SOL    HW210698   7.428   0.799   2.608
69601SOL     OW10699   2.838   2.074   3.900
69601SOL    HW110700   2.921   2.026   3.901
69601SOL    HW210701   2.847   2.138   3.971
69602SOL     OW10702   8.049   6.944   4.302
69602SOL    HW110703   8.090   6.960   4.387
69602SOL    HW210704   8.094   6.867   4.269
69603SOL     OW10705  11.452  12.270   8.387
69603SOL    HW110706  11.410  12.215   8.321
69603SOL    HW210707  11.489  12.209   8.450
69604SOL     OW10708   8.282   9.262   2.325
69604SOL    HW110709   8.187   9.257   2.337
69604SOL    HW210710   8.297   9.353   2.298
69605SOL     OW10711   5.365   5.238   9.105
69605SOL    HW110712   5.278   5.205   9.083
69605SOL    HW210713   5.389   5.295   9.032
69606SOL     OW10714  14.876   9.071   3.619
69606SOL    HW110715   0.005   9.101   3.529
69606SOL    HW210716   0.040   9.137   3.672
69607SOL     OW10717  13.594   4.741   5.068
69607SOL    HW110718  13.531   4.716   5.000
69607SOL    HW210719  13.541   4.786   5.134
69608SOL     OW10720   3.315   7.774   0.222
69608SOL    HW110721   3.400   7.818   0.215
69608SOL    HW210722   3.310   7.717   0.145
69609SOL     OW10723   8.156   1.274  12.405
69609SOL    HW110724   8.105   1.322  12.340
69609SOL    HW210725   8.209   1.213  12.354
69610SOL     OW10726   8.663  10.551  13.592
69610SOL    HW110727   8.613  10.534  13.512
69610SOL    HW210728   8.671  10.646  13.596
69611SOL     OW10729   9.801   6.732   2.570
69611SOL    HW110730   9.819   6.826   2.561
69611SOL    HW210731   9.725   6.717   2.513
69612SOL     OW10732  12.229   1.256  14.550
69612SOL    HW110733  12.312   1.212  14.568
69612SOL    HW210734  12.175   1.189  14.510
69613SOL     OW10735   5.722   7.868   2.556
69613SOL    HW110736   5.637   7.840   2.592
69613SOL    HW210737   5.765   7.914   2.628
69614SOL     OW10738   7.502  13.151   1.909
69614SOL    HW110739   7.422  13.129   1.956
69614SOL    HW210740   7.572  13.140   1.974
69615SOL     OW10741  12.692   8.875  11.362
69615SOL    HW110742  12.703   8.787  11.327
69615SOL    HW210743  12.668   8.929  11.287
69616SOL     OW10744  10.405   6.468  10.896
69616SOL    HW110745  10.386   6.492  10.986
69616SOL    HW210746  10.465   6.393  10.903
69617SOL     OW10747   3.097   5.457   3.606
69617SOL    HW110748   3.193   5.454   3.612
69617SOL    HW210749   3.079   5.466   3.512
69618SOL     OW10750  14.448   4.253   6.489
69618SOL    HW110751  14.391   4.223   6.561
69618SOL    HW210752  14.473   4.342   6.514
69619SOL     OW10753   2.553   7.277   9.041
69619SOL    HW110754   2.527   7.191   9.076
69619SOL    HW210755   2.521   7.276   8.951
69620SOL     OW10756   5.480   6.840  14.863
69620SOL    HW110757   5.552   6.835  14.801
69620SOL    HW210758   5.430   6.916  14.836
69621SOL     OW10759   1.892   8.107   9.683
69621SOL    HW110760   1.882   8.190   9.730
69621SOL    HW210761   1.984   8.106   9.656
69622SOL     OW10762   4.135   0.371  11.559
69622SOL    HW110763   4.044   0.371  11.589
69622SOL    HW210764   4.187   0.378  11.639
69623SOL     OW10765   1.139   6.693   7.966
69623SOL    HW110766   1.140   6.688   7.871
69623SOL    HW210767   1.221   6.737   7.989
69624SOL     OW10768   4.959  12.356   8.059
69624SOL    HW110769   4.965  12.340   8.153
69624SOL    HW210770   4.897  12.290   8.028
69625SOL     OW10771  11.106   5.611  13.955
69625SOL    HW110772  11.196   5.598  13.983
69625SOL    HW210773  11.078   5.525  13.922
69626SOL     OW10774   0.147   2.690  13.453
69626SOL    HW110775   0.100   2.661  13.375
69626SOL    HW210776   0.083   2.684  13.524
69627SOL     OW10777  13.712   3.883  10.138
69627SOL    HW110778  13.706   3.790  10.160
69627SOL    HW210779  13.713   3.885  10.042
69628SOL     OW10780   8.421   4.123   8.380
69628SOL    HW110781   8.472   4.202   8.398
69628SOL    HW210782   8.358   4.119   8.452
69629SOL     OW10783  12.975   4.472  11.156
69629SOL    HW110784  12.941   4.484  11.068
69629SOL    HW210785  12.964   4.557  11.198
69630SOL     OW10786  11.597   7.058   3.871
69630SOL    HW110787  11.526   6.996   3.858
69630SOL    HW210788  11.632   7.037   3.958
69631SOL     OW10789   2.463  14.062   1.003
69631SOL    HW110790   2.369  14.063   1.017
69631SOL    HW210791   2.495  14.141   1.047
69632SOL     OW10792   8.961   7.951   1.832
69632SOL    HW110793   8.909   7.975   1.908
69632SOL    HW210794   9.013   7.876   1.862
69633SOL     OW10795   3.850   0.092   1.273
69633SOL    HW110796   3.835   0.181   1.306
69633SOL    HW210797   3.765   0.065   1.238
69634SOL     OW10798  11.055   1.509   6.209
69634SOL    HW110799  10.988   1.479   6.147
69634SOL    HW210800  11.077   1.431   6.260
69635SOL     OW10801   2.162   4.200   1.797
69635SOL    HW110802   2.137   4.147   1.872
69635SOL    HW210803   2.080   4.220   1.753
69636SOL     OW10804   3.274  14.650   5.953
69636SOL    HW110805   3.344  14.585   5.955
69636SOL    HW210806   3.319  14.734   5.937
69637SOL     OW10807  11.364  12.971  13.795
69637SOL    HW110808  11.326  13.025  13.864
69637SOL    HW210809  11.457  12.967  13.816
69638SOL     OW10810   1.939  10.959   3.077
69638SOL    HW110811   2.006  10.894   3.056
69638SOL    HW210812   1.908  10.934   3.164
69639SOL     OW10813  14.604  14.632   0.682
69639SOL    HW110814  14.592  14.625   0.777
69639SOL    HW210815  14.684  14.683   0.672
69640SOL     OW10816   2.932   5.710   7.678
69640SOL    HW110817   3.021   5.691   7.709
69640SOL    HW210818   2.883   5.731   7.757
69641SOL     OW10819  10.968   2.028   1.831
69641SOL    HW110820  10.950   2.117   1.800
69641SOL    HW210821  11.003   2.040   1.919
69642SOL     OW10822   3.858  14.731   8.167
69642SOL    HW110823   3.904  14.743   8.084
69642SOL    HW210824   3.869  14.815   8.212
69643SOL     OW10825  13.733   4.122   8.860
69643SOL    HW110826  13.748   4.037   8.901
69643SOL    HW210827  13.782   4.184   8.915
69644SOL     OW10828   0.475  11.657   0.153
69644SOL    HW110829   0.513  11.745   0.153
69644SOL    HW210830   0.493  11.623   0.241
69645SOL     OW10831   8.207   1.986   2.873
69645SOL    HW110832   8.274   1.946   2.929
69645SOL    HW210833   8.125   1.973   2.921
69646SOL     OW10834   8.393   7.708  13.689
69646SOL    HW110835   8.336   7.703  13.612
69646SOL    HW210836   8.466   7.764  13.661
69647SOL     OW10837  10.414   5.293   2.557
69647SOL    HW110838  10.451   5.341   2.631
69647SOL    HW210839  10.359   5.226   2.597
69648SOL     OW10840  11.324   6.947  12.759
69648SOL    HW110841  11.282   6.862  12.748
69648SOL    HW210842  11.320   6.988  12.673
69649SOL     OW10843   7.419   1.288  11.400
69649SOL    HW110844   7.375   1.369  11.373
69649SOL    HW210845   7.374   1.262  11.480
69650SOL     OW10846   7.817   5.714  14.533
69650SOL    HW110847   7.775   5.765  14.464
69650SOL    HW210848   7.888   5.770  14.564
69651SOL     OW10849   1.195  13.614   7.854
69651SOL    HW110850   1.117  13.599   7.908
69651SOL    HW210851   1.258  13.655   7.914
69652SOL     OW10852   7.148   4.302   1.076
69652SOL    HW110853   7.125   4.211   1.062
69652SOL    HW210854   7.235   4.299   1.116
69653SOL     OW10855   5.206   5.514   6.048
69653SOL    HW110856   5.196   5.585   6.111
69653SOL    HW210857   5.211   5.557   5.963
69654SOL     OW10858   3.616   1.123  12.056
69654SOL    HW110859   3.676   1.194  12.033
69654SOL    HW210860   3.531   1.167  12.068
69655SOL     OW10861  13.684  11.664  14.592
69655SOL    HW110862  13.729  11.580  14.583
69655SOL    HW210863  13.754  11.726  14.611
69656SOL     OW10864   8.403   3.414   8.753
69656SOL    HW110865   8.367   3.395   8.840
69656SOL    HW210866   8.481   3.466   8.771
69657SOL     OW10867  13.692   7.905  11.296
69657SOL    HW110868  13.664   7.972  11.234
69657SOL    HW210869  13.612   7.861  11.322
69658SOL     OW10870   1.116   7.230   0.352
69658SOL    HW110871   1.052   7.250   0.283
69658SOL    HW210872   1.158   7.149   0.324
69659SOL     OW10873   2.536   5.230  10.020
69659SOL    HW110874   2.619   5.266  10.052
69659SOL    HW210875   2.502   5.297   9.960
69660SOL     OW10876  12.142   2.705   8.708
69660SOL    HW110877  12.120   2.640   8.774
69660SOL    HW210878  12.083   2.778   8.726
69661SOL     OW10879   5.644   5.742   7.492
69661SOL    HW110880   5.633   5.779   7.404
69661SOL    HW210881   5.739   5.731   7.502
69662SOL     OW10882   6.608  14.661   5.552
69662SOL    HW110883   6.654  14.715   5.489
69662SOL    HW210884   6.526  14.638   5.509
69663SOL     OW10885   8.769   6.864   9.235
69663SOL    HW110886   8.707   6.791   9.234
69663SOL    HW210887   8.714   6.942   9.249
69664SOL     OW10888  11.939  11.462   5.363
69664SOL    HW110889  11.936  11.374   5.401
69664SOL    HW210890  12.029  11.471   5.331
69665SOL     OW10891   2.096   6.151  13.255
69665SOL    HW110892   2.153   6.157  13.332
69665SOL    HW210893   2.033   6.222  13.266
69666SOL     OW10894   9.928  10.927   2.481
69666SOL    HW110895   9.969  10.965   2.404
69666SOL    HW210896   9.873  10.856   2.447
69667SOL     OW10897   2.819   7.133   8.673
69667SOL    HW110898   2.870   7.117   8.752
69667SOL    HW210899   2.837   7.224   8.650
69668SOL     OW10900   2.903  12.988   7.732
69668SOL    HW110901   2.832  12.994   7.796
69668SOL    HW210902   2.882  12.911   7.679
69669SOL     OW10903  12.252  14.668  13.287
69669SOL    HW110904  12.296  14.587  13.312
69669SOL    HW210905  12.324  14.732  13.280
69670SOL     OW10906   7.476  11.871  11.783
69670SOL    HW110907   7.464  11.783  11.746
69670SOL    HW210908   7.446  11.930  11.714
69671SOL     OW10909   3.716  11.857  10.260
69671SOL    HW110910   3.729  11.837  10.353
69671SOL    HW210911   3.622  11.840  10.246
69672SOL     OW10912   4.785  13.432   7.514
69672SOL    HW110913   4.795  13.521   7.549
69672SOL    HW210914   4.752  13.381   7.588
69673SOL     OW10915   8.475  10.388  14.096
69673SOL    HW110916   8.524  10.372  14.016
69673SOL    HW210917   8.384  10.396  14.067
69674SOL     OW10918  12.263   9.934   3.220
69674SOL    HW110919  12.318   9.994   3.170
69674SOL    HW210920  12.223   9.989   3.288
69675SOL     OW10921  12.804  13.786   4.229
69675SOL    HW110922  12.889  13.767   4.189
69675SOL    HW210923  12.750  13.816   4.157
69676SOL     OW10924  10.108   7.981   2.116
69676SOL    HW110925  10.048   7.908   2.103
69676SOL    HW210926  10.132   8.008   2.027
69677SOL     OW10927   8.957   8.671   1.659
69677SOL    HW110928   8.979   8.737   1.593
69677SOL    HW210929   8.861   8.672   1.661
69678SOL     OW10930  13.789  12.410   5.760
69678SOL    HW110931  13.804  12.385   5.851
69678SOL    HW210932  13.696  12.394   5.746
69679SOL     OW10933   4.802  12.716   5.619
69679SOL    HW110934   4.810  12.635   5.569
69679SOL    HW210935   4.716  12.751   5.594
69680SOL     OW10936   2.886  10.324  11.238
69680SOL    HW110937   2.938  10.401  11.217
69680SOL    HW210938   2.805  10.358  11.275
69681SOL     OW10939  14.750   2.676   0.509
69681SOL    HW110940  14.657   2.654   0.506
69681SOL    HW210941  14.778   2.651   0.597
69682SOL     OW10942   2.015  14.644   2.994
69682SOL    HW110943   2.057  14.569   3.037
69682SOL    HW210944   2.016  14.712   3.061
69683SOL     OW10945   9.078   3.282  12.951
69683SOL    HW110946   9.029   3.344  13.005
69683SOL    HW210947   9.115   3.336  12.881
69684SOL     OW10948  10.696  11.266   3.372
69684SOL    HW110949  10.758  11.321   3.324
69684SOL    HW210950  10.693  11.304   3.460
69685SOL     OW10951   6.872   4.818  13.970
69685SOL    HW110952   6.801   4.755  13.980
69685SOL    HW210953   6.929   4.779  13.904
69686SOL     OW10954   2.651   8.412   8.385
69686SOL    HW110955   2.737   8.455   8.386
69686SOL    HW210956   2.641   8.377   8.474
69687SOL     OW10957   7.383   4.615  14.542
69687SOL    HW110958   7.386   4.709  14.530
69687SOL    HW210959   7.298   4.598  14.583
69688SOL     OW10960  12.761   6.203  11.335
69688SOL    HW110961  12.712   6.252  11.269
69688SOL    HW210962  12.712   6.121  11.347
69689SOL     OW10963   7.310   5.417   2.646
69689SOL    HW110964   7.360   5.335   2.653
69689SOL    HW210965   7.265   5.410   2.561
69690SOL     OW10966   1.086   4.265  11.312
69690SOL    HW110967   1.070   4.262  11.217
69690SOL    HW210968   1.001   4.245  11.351
69691SOL     OW10969  10.946  14.033   9.176
69691SOL    HW110970  10.963  14.092   9.102
69691SOL    HW210971  10.859  14.058   9.206
69692SOL     OW10972  11.238   2.873   2.977
69692SOL    HW110973  11.208   2.784   2.958
69692SOL    HW210974  11.158   2.926   2.978
69693SOL     OW10975  10.041  13.899  12.189
69693SOL    HW110976  10.001  13.819  12.221
69693SOL    HW210977  10.133  13.876  12.174
69694SOL     OW10978   3.975  13.413  13.095
69694SOL    HW110979   3.917  13.408  13.019
69694SOL    HW210980   3.936  13.479  13.151
69695SOL     OW10981   2.728  14.190   3.714
69695SOL    HW110982   2.671  14.157   3.644
69695SOL    HW210983   2.667  14.218   3.783
69696SOL     OW10984   5.041  11.172   7.594
69696SOL    HW110985   5.056  11.263   7.620
69696SOL    HW210986   5.031  11.125   7.677
69697SOL     OW10987   7.713   9.160   4.256
69697SOL    HW110988   7.681   9.235   4.204
69697SOL    HW210989   7.635   9.127   4.300
69698SOL     OW10990   7.917  11.560  12.269
69698SOL    HW110991   7.909  11.490  12.334
69698SOL    HW210992   7.870  11.527  12.192
69699SOL     OW10993  12.133   7.952  14.364
69699SOL    HW110994  12.176   7.895  14.428
69699SOL    HW210995  12.058   7.988  14.411
69700SOL     OW10996   3.096   2.210  10.276
69700SOL    HW110997   3.031   2.183  10.340
69700SOL    HW210998   3.062   2.293  10.241
69701SOL     OW10999  13.500  10.174  12.343
69701SOL    HW111000  13.539  10.238  12.402
69701SOL    HW211001  13.446  10.119  12.400
69702SOL     OW11002   6.348   3.103   9.051
69702SOL    HW111003   6.298   3.118   9.132
69702SOL    HW211004   6.344   3.187   9.006
69703SOL     OW11005   8.100   3.712  11.212
69703SOL    HW111006   8.029   3.709  11.149
69703SOL    HW211007   8.174   3.747  11.163
69704SOL     OW11008   3.717   6.644   6.695
69704SOL    HW111009   3.785   6.697   6.736
69704SOL    HW211010   3.723   6.664   6.602
69705SOL     OW11011  10.066   9.991   2.878
69705SOL    HW111012  10.039   9.904   2.908
69705SOL    HW211013  10.149   9.975   2.833
69706SOL     OW11014  13.862  10.391  12.728
69706SOL    HW111015  13.894  10.466  12.677
69706SOL    HW211016  13.921  10.387  12.804
69707SOL     OW11017   7.247  13.751   6.047
69707SOL    HW111018   7.328  13.803   6.051
69707SOL    HW211019   7.267  13.672   6.098
69708SOL     OW11020   5.438   3.456  14.327
69708SOL    HW111021   5.377   3.517  14.286
69708SOL    HW211022   5.524   3.482  14.295
69709SOL     OW11023   6.854  13.395   5.110
69709SOL    HW111024   6.801  13.474   5.097
69709SOL    HW211025   6.931  13.425   5.158
69710SOL     OW11026   1.984  11.660   5.647
69710SOL    HW111027   2.046  11.719   5.690
69710SOL    HW211028   2.005  11.665   5.554
69711SOL     OW11029  13.581   7.780   7.229
69711SOL    HW111030  13.523   7.846   7.268
69711SOL    HW211031  13.636   7.830   7.168
69712SOL     OW11032   2.719   2.671   4.031
69712SOL    HW111033   2.808   2.705   4.041
69712SOL    HW211034   2.727   2.577   4.047
69713SOL     OW11035  10.893   9.006  11.439
69713SOL    HW111036  10.904   8.937  11.505
69713SOL    HW211037  10.798   9.011  11.426
69714SOL     OW11038  10.711  11.005   2.070
69714SOL    HW111039  10.754  10.929   2.031
69714SOL    HW211040  10.618  10.981   2.072
69715SOL     OW11041   0.761   3.628   2.431
69715SOL    HW111042   0.819   3.563   2.472
69715SOL    HW211043   0.682   3.627   2.485
69716SOL     OW11044   5.861   2.954   9.617
69716SOL    HW111045   5.893   3.040   9.590
69716SOL    HW211046   5.774   2.948   9.577
69717SOL     OW11047  11.047   9.392   5.263
69717SOL    HW111048  11.045   9.424   5.353
69717SOL    HW211049  10.958   9.403   5.232
69718SOL     OW11050  14.689   0.056  11.834
69718SOL    HW111051  14.632   0.100  11.897
69718SOL    HW211052  14.768   0.110  11.830
69719SOL     OW11053   7.143   3.603   4.610
69719SOL    HW111054   7.157   3.514   4.579
69719SOL    HW211055   7.155   3.598   4.705
69720SOL     OW11056  12.519   9.620  10.563
69720SOL    HW111057  12.497   9.579  10.479
69720SOL    HW211058  12.560   9.551  10.614
69721SOL     OW11059   4.464   1.087   1.675
69721SOL    HW111060   4.476   0.996   1.650
69721SOL    HW211061   4.389   1.086   1.735
69722SOL     OW11062   5.094  12.087  14.673
69722SOL    HW111063   5.116  11.994  14.679
69722SOL    HW211064   5.027  12.092  14.605
69723SOL     OW11065   2.273   2.487  12.828
69723SOL    HW111066   2.299   2.395  12.831
69723SOL    HW211067   2.355   2.535  12.840
69724SOL     OW11068   8.824  12.728   1.137
69724SOL    HW111069   8.873  12.790   1.083
69724SOL    HW211070   8.738  12.770   1.149
69725SOL     OW11071  12.635   0.105   1.909
69725SOL    HW111072  12.619   0.031   1.968
69725SOL    HW211073  12.563   0.166   1.927
69726SOL     OW11074  13.625  13.929   7.671
69726SOL    HW111075  13.612  13.866   7.741
69726SOL    HW211076  13.645  13.875   7.594
69727SOL     OW11077  14.290  14.802   6.607
69727SOL    HW111078  14.378  14.812   6.643
69727SOL    HW211079  14.302  14.748   6.529
69728SOL     OW11080   4.278  14.462   7.223
69728SOL    HW111081   4.242  14.469   7.311
69728SOL    HW211082   4.332  14.383   7.225
69729SOL     OW11083   9.780   9.652  12.530
69729SOL    HW111084   9.742   9.569  12.561
69729SOL    HW211085   9.726   9.676  12.454
69730SOL     OW11086  10.230   6.737  11.853
69730SOL    HW111087  10.166   6.784  11.799
69730SOL    HW211088  10.229   6.783  11.937
69731SOL     OW11089   4.796   4.608   4.220
69731SOL    HW111090   4.880   4.564   4.226
69731SOL    HW211091   4.815   4.693   4.181
69732SOL     OW11092  13.832  13.985  11.790
69732SOL    HW111093  13.805  13.916  11.851
69732SOL    HW211094  13.775  13.974  11.714
69733SOL     OW11095   3.977  11.906   1.328
69733SOL    HW111096   3.920  11.910   1.251
69733SOL    HW211097   3.986  11.997   1.355
69734SOL     OW11098  13.177  11.232   4.018
69734SOL    HW111099  13.151  11.287   4.092
69734SOL    HW211100  13.253  11.183   4.050
69735SOL     OW11101   2.853   6.611   5.021
69735SOL    HW111102   2.909   6.539   4.994
69735SOL    HW211103   2.898   6.689   4.990
69736SOL     OW11104  14.647   6.036   4.350
69736SOL    HW111105  14.594   6.095   4.296
69736SOL    HW211106  14.717   6.007   4.292
69737SOL     OW11107   9.913   6.603   0.786
69737SOL    HW111108   9.849   6.671   0.807
69737SOL    HW211109   9.875   6.523   0.821
69738SOL     OW11110   9.729   0.229  10.707
69738SOL    HW111111   9.753   0.216  10.615
69738SOL    HW211112   9.809   0.264  10.747
69739SOL     OW11113   7.912  13.741  12.721
69739SOL    HW111114   7.882  13.754  12.631
69739SOL    HW211115   7.874  13.658  12.748
69740SOL     OW11116   0.492  11.969   7.266
69740SOL    HW111117   0.490  12.056   7.306
69740SOL    HW211118   0.582  11.960   7.235
69741SOL     OW11119  10.930   7.630  10.720
69741SOL    HW111120  11.016   7.589  10.706
69741SOL    HW211121  10.901   7.597  10.805
69742SOL     OW11122   8.343   0.558  11.819
69742SOL    HW111123   8.285   0.619  11.864
69742SOL    HW211124   8.424   0.608  11.805
69743SOL     OW11125  10.873  10.379   4.936
69743SOL    HW111126  10.968  10.369   4.925
69743SOL    HW211127  10.836  10.299   4.899
69744SOL     OW11128  10.798   7.250   6.480
69744SOL    HW111129  10.839   7.207   6.404
69744SOL    HW211130  10.710   7.273   6.450
69745SOL     OW11131  12.931  11.249   7.892
69745SOL    HW111132  12.884  11.217   7.815
69745SOL    HW211133  12.991  11.178   7.915
69746SOL     OW11134   0.057  14.545   5.754
69746SOL    HW111135   0.012  14.629   5.761
69746SOL    HW211136  14.873  14.480   5.774
69747SOL     OW11137   6.994   7.030  14.718
69747SOL    HW111138   6.985   7.085  14.641
69747SOL    HW211139   6.979   6.941  14.686
69748SOL     OW11140  13.412   6.215   0.144
69748SOL    HW111141  13.381   6.126   0.161
69748SOL    HW211142  13.421   6.254   0.231
69749SOL     OW11143   9.101  13.068  12.369
69749SOL    HW111144   9.006  13.057  12.365
69749SOL    HW211145   9.118  13.154  12.330
69750SOL     OW11146   7.673   5.523  13.922
69750SOL    HW111147   7.652   5.465  13.995
69750SOL    HW211148   7.741   5.581  13.956
69751SOL     OW11149  14.405   1.122  10.213
69751SOL    HW111150  14.405   1.028  10.200
69751SOL    HW211151  14.471   1.155  10.152
69752SOL     OW11152   9.647   6.389   5.610
69752SOL    HW111153   9.579   6.457   5.608
69752SOL    HW211154   9.722   6.429   5.566
69753SOL     OW11155   3.362   3.025   0.462
69753SOL    HW111156   3.316   2.958   0.513
69753SOL    HW211157   3.430   3.057   0.520
69754SOL     OW11158   3.186   8.502   0.017
69754SOL    HW111159   3.258   8.469   0.071
69754SOL    HW211160   3.229   8.531  14.818
69755SOL     OW11161   4.376   4.736  11.344
69755SOL    HW111162   4.388   4.699  11.431
69755SOL    HW211163   4.304   4.798  11.353
69756SOL     OW11164  11.236   0.282  10.312
69756SOL    HW111165  11.290   0.331  10.251
69756SOL    HW211166  11.181   0.349  10.354
69757SOL     OW11167   1.037  14.690   6.832
69757SOL    HW111168   1.108  14.746   6.801
69757SOL    HW211169   1.039  14.698   6.927
69758SOL     OW11170   5.627   9.311   2.696
69758SOL    HW111171   5.720   9.291   2.691
69758SOL    HW211172   5.608   9.316   2.790
69759SOL     OW11173   8.811   7.545   9.438
69759SOL    HW111174   8.746   7.482   9.407
69759SOL    HW211175   8.883   7.491   9.469
69760SOL     OW11176   9.242   8.803   6.932
69760SOL    HW111177   9.235   8.862   7.007
69760SOL    HW211178   9.312   8.839   6.878
69761SOL     OW11179   6.642   8.861   9.529
69761SOL    HW111180   6.620   8.792   9.591
69761SOL    HW211181   6.702   8.918   9.577
69762SOL     OW11182   7.226   1.200  10.928
69762SOL    HW111183   7.300   1.257  10.904
69762SOL    HW211184   7.153   1.232  10.874
69763SOL     OW11185   9.511  12.189  10.747
69763SOL    HW111186   9.461  12.207  10.668
69763SOL    HW211187   9.447  12.193  10.818
69764SOL     OW11188   9.607   1.941   6.362
69764SOL    HW111189   9.532   1.978   6.410
69764SOL    HW211190   9.572   1.921   6.275
69765SOL     OW11191  12.940  11.751   8.341
69765SOL    HW111192  12.895  11.781   8.262
69765SOL    HW211193  13.032  11.745   8.315
69766SOL     OW11194   7.966   3.628   6.817
69766SOL    HW111195   7.905   3.702   6.828
69766SOL    HW211196   8.052   3.669   6.809
69767SOL     OW11197   8.340  13.764   4.164
69767SOL    HW111198   8.275  13.706   4.125
69767SOL    HW211199   8.303  13.788   4.249
69768SOL     OW11200  10.837   9.648   2.817
69768SOL    HW111201  10.853   9.693   2.900
69768SOL    HW211202  10.774   9.580   2.839
69769SOL     OW11203   9.843   0.077  13.587
69769SOL    HW111204   9.850   0.016  13.660
69769SOL    HW211205   9.760   0.054  13.544
69770SOL     OW11206  11.390  14.443   2.295
69770SOL    HW111207  11.398  14.349   2.282
69770SOL    HW211208  11.296  14.459   2.297
69771SOL     OW11209   6.857   5.543   4.289
69771SOL    HW111210   6.824   5.514   4.374
69771SOL    HW211211   6.929   5.483   4.270
69772SOL     OW11212   3.377   5.903   0.023
69772SOL    HW111213   3.314   5.883   0.092
69772SOL    HW211214   3.327   5.949  14.838
69773SOL     OW11215   5.084   6.326   8.496
69773SOL    HW111216   5.101   6.408   8.449
69773SOL    HW211217   4.993   6.305   8.474
69774SOL     OW11218  13.668  11.430   7.267
69774SOL    HW111219  13.648  11.350   7.315
69774SOL    HW211220  13.676  11.497   7.335
69775SOL     OW11221  12.599   5.721   6.297
69775SOL    HW111222  12.652   5.792   6.333
69775SOL    HW211223  12.621   5.645   6.352
69776SOL     OW11224   2.974   0.289  10.731
69776SOL    HW111225   2.901   0.299  10.671
69776SOL    HW211226   3.034   0.229  10.687
69777SOL     OW11227   0.798   3.689  12.672
69777SOL    HW111228   0.811   3.714  12.764
69777SOL    HW211229   0.763   3.769  12.631
69778SOL     OW11230   0.820  10.749   7.141
69778SOL    HW111231   0.727  10.767   7.125
69778SOL    HW211232   0.833  10.660   7.107
69779SOL     OW11233  14.436  10.778   6.968
69779SOL    HW111234  14.347  10.744   6.971
69779SOL    HW211235  14.441  10.836   7.044
69780SOL     OW11236   7.530  13.047  10.192
69780SOL    HW111237   7.438  13.026  10.213
69780SOL    HW211238   7.537  13.142  10.207
69781SOL     OW11239   4.526   3.574   2.997
69781SOL    HW111240   4.558   3.511   3.061
69781SOL    HW211241   4.464   3.628   3.046
69782SOL     OW11242   1.162  13.974   0.788
69782SOL    HW111243   1.229  14.027   0.830
69782SOL    HW211244   1.079  14.011   0.817
69783SOL     OW11245   4.155  14.209   2.031
69783SOL    HW111246   4.219  14.152   2.072
69783SOL    HW211247   4.141  14.279   2.095
69784SOL     OW11248  11.235   0.741  13.288
69784SOL    HW111249  11.278   0.746  13.203
69784SOL    HW211250  11.302   0.704  13.347
69785SOL     OW11251   3.701  11.226  10.425
69785SOL    HW111252   3.636  11.187  10.483
69785SOL    HW211253   3.785  11.209  10.468
69786SOL     OW11254   0.919  12.690   8.172
69786SOL    HW111255   0.957  12.747   8.104
69786SOL    HW211256   0.968  12.608   8.165
69787SOL     OW11257   6.754   8.069   6.291
69787SOL    HW111258   6.671   8.116   6.282
69787SOL    HW211259   6.729   7.977   6.300
69788SOL     OW11260  11.931   6.337  12.492
69788SOL    HW111261  12.017   6.373  12.512
69788SOL    HW211262  11.935   6.315  12.399
69789SOL     OW11263   5.993   0.682  10.085
69789SOL    HW111264   6.056   0.713  10.020
69789SOL    HW211265   6.044   0.625  10.143
69790SOL     OW11266  10.212  13.674   9.813
69790SOL    HW111267  10.120  13.691   9.797
69790SOL    HW211268  10.231  13.720   9.895
69791SOL     OW11269   4.917   0.588   8.989
69791SOL    HW111270   4.892   0.524   9.057
69791SOL    HW211271   4.834   0.629   8.964
69792SOL     OW11272   5.263  13.808   8.610
69792SOL    HW111273   5.298  13.721   8.624
69792SOL    HW211274   5.209  13.825   8.688
69793SOL     OW11275   3.405   8.715   7.247
69793SOL    HW111276   3.448   8.630   7.257
69793SOL    HW211277   3.319   8.694   7.210
69794SOL     OW11278   6.599   5.513   6.307
69794SOL    HW111279   6.618   5.476   6.221
69794SOL    HW211280   6.505   5.532   6.304
69795SOL     OW11281   6.022   7.139   1.744
69795SOL    HW111282   6.048   7.231   1.741
69795SOL    HW211283   6.010   7.120   1.837
69796SOL     OW11284   6.724  10.397   7.713
69796SOL    HW111285   6.780  10.433   7.781
69796SOL    HW211286   6.646  10.452   7.714
69797SOL     OW11287   6.361   8.968  11.473
69797SOL    HW111288   6.415   8.936  11.544
69797SOL    HW211289   6.422   8.987  11.402
69798SOL     OW11290  11.478   9.284  12.178
69798SOL    HW111291  11.400   9.231  12.195
69798SOL    HW211292  11.549   9.220  12.169
69799SOL     OW11293   3.756   7.583   6.733
69799SOL    HW111294   3.706   7.582   6.815
69799SOL    HW211295   3.827   7.644   6.750
69800SOL     OW11296   7.547  10.657   8.874
69800SOL    HW111297   7.485  10.589   8.899
69800SOL    HW211298   7.600  10.616   8.805
69801SOL     OW11299   0.247   0.546  10.097
69801SOL    HW111300   0.340   0.529  10.084
69801SOL    HW211301   0.206   0.460  10.092
69802SOL     OW11302   1.842   7.229   1.532
69802SOL    HW111303   1.804   7.150   1.569
69802SOL    HW211304   1.879   7.276   1.607
69803SOL     OW11305   3.292   4.742   9.580
69803SOL    HW111306   3.308   4.790   9.499
69803SOL    HW211307   3.353   4.781   9.643
69804SOL     OW11308  12.487   8.922   9.960
69804SOL    HW111309  12.560   8.868   9.990
69804SOL    HW211310  12.524   9.010   9.954
69805SOL     OW11311  12.529   8.498   9.879
69805SOL    HW111312  12.438   8.469   9.892
69805SOL    HW211313  12.545   8.486   9.785
69806SOL     OW11314   5.109   7.386  12.806
69806SOL    HW111315   5.069   7.318  12.752
69806SOL    HW211316   5.163   7.436  12.745
69807SOL     OW11317   1.665   7.770  14.513
69807SOL    HW111318   1.571   7.787  14.515
69807SOL    HW211319   1.679   7.717  14.435
69808SOL     OW11320   8.287   2.123   5.013
69808SOL    HW111321   8.256   2.058   4.949
69808SOL    HW211322   8.211   2.180   5.028
69809SOL     OW11323  11.066  13.420   0.262
69809SOL    HW111324  10.984  13.435   0.214
69809SOL    HW211325  11.132  13.410   0.194
69810SOL     OW11326   7.648   4.563  14.489
69810SOL    HW111327   7.688   4.632  14.543
69810SOL    HW211328   7.555   4.569  14.509
69811SOL     OW11329   2.297   7.192   5.207
69811SOL    HW111330   2.362   7.261   5.222
69811SOL    HW211331   2.334   7.140   5.135
69812SOL     OW11332   5.579   9.443  11.849
69812SOL    HW111333   5.577   9.349  11.827
69812SOL    HW211334   5.591   9.487  11.765
69813SOL     OW11335   3.301   7.341   0.763
69813SOL    HW111336   3.217   7.298   0.775
69813SOL    HW211337   3.341   7.341   0.850
69814SOL     OW11338   5.862   7.459   3.226
69814SOL    HW111339   5.870   7.492   3.316
69814SOL    HW211340   5.899   7.371   3.230
69815SOL     OW11341  12.821   6.374  10.648
69815SOL    HW111342  12.861   6.341  10.729
69815SOL    HW211343  12.848   6.465  10.644
69816SOL     OW11344   8.389   5.351   3.853
69816SOL    HW111345   8.438   5.316   3.779
69816SOL    HW211346   8.405   5.445   3.850
69817SOL     OW11347   7.196   3.854   9.351
69817SOL    HW111348   7.106   3.881   9.333
69817SOL    HW211349   7.246   3.935   9.354
69818SOL     OW11350  12.203   7.588   3.399
69818SOL    HW111351  12.118   7.565   3.436
69818SOL    HW211352  12.244   7.642   3.467
69819SOL     OW11353   4.538   2.985  14.704
69819SOL    HW111354   4.444   2.972  14.695
69819SOL    HW211355   4.574   2.968  14.617
69820SOL     OW11356   0.676   6.899   7.911
69820SOL    HW111357   0.673   6.972   7.849
69820SOL    HW211358   0.683   6.941   7.997
69821SOL     OW11359   6.513  11.764   5.772
69821SOL    HW111360   6.449  11.772   5.842
69821SOL    HW211361   6.490  11.835   5.711
69822SOL     OW11362   3.089  10.907   7.801
69822SOL    HW111363   3.138  10.828   7.781
69822SOL    HW211364   3.149  10.960   7.853
69823SOL     OW11365   3.523   3.560   5.002
69823SOL    HW111366   3.484   3.605   5.078
69823SOL    HW211367   3.566   3.483   5.039
69824SOL     OW11368   6.266  11.315   6.492
69824SOL    HW111369   6.356  11.339   6.515
69824SOL    HW211370   6.261  11.221   6.511
69825SOL     OW11371   1.401  12.183   8.710
69825SOL    HW111372   1.328  12.141   8.663
69825SOL    HW211373   1.435  12.246   8.647
69826SOL     OW11374  10.594  12.480   2.666
69826SOL    HW111375  10.543  12.427   2.727
69826SOL    HW211376  10.551  12.565   2.665
69827SOL     OW11377   3.924  14.330  10.989
69827SOL    HW111378   3.899  14.241  11.016
69827SOL    HW211379   3.870  14.387  11.043
69828SOL     OW11380   5.600   6.049   5.296
69828SOL    HW111381   5.571   6.129   5.252
69828SOL    HW211382   5.666   6.011   5.238
69829SOL     OW11383   2.131  12.753  12.708
69829SOL    HW111384   2.208  12.784  12.660
69829SOL    HW211385   2.075  12.713  12.642
69830SOL     OW11386  13.453   1.545   3.280
69830SOL    HW111387  13.454   1.517   3.189
69830SOL    HW211388  13.474   1.466   3.330
69831SOL     OW11389   7.530   3.507  13.733
69831SOL    HW111390   7.540   3.601  13.721
69831SOL    HW211391   7.597   3.484  13.798
69832SOL     OW11392   5.286  13.188   7.579
69832SOL    HW111393   5.375  13.155   7.585
69832SOL    HW211394   5.264  13.215   7.668
69833SOL     OW11395  12.874   2.362  11.561
69833SOL    HW111396  12.932   2.437  11.571
69833SOL    HW211397  12.786   2.400  11.557
69834SOL     OW11398   9.101   4.773  10.856
69834SOL    HW111399   9.029   4.743  10.912
69834SOL    HW211400   9.178   4.724  10.887
69835SOL     OW11401  11.953   0.791   4.264
69835SOL    HW111402  11.922   0.703   4.243
69835SOL    HW211403  11.939   0.841   4.183
69836SOL     OW11404  12.826   6.438   2.159
69836SOL    HW111405  12.894   6.386   2.200
69836SOL    HW211406  12.758   6.446   2.226
69837SOL     OW11407   4.120  11.862   8.047
69837SOL    HW111408   4.055  11.804   8.009
69837SOL    HW211409   4.203  11.816   8.035
69838SOL     OW11410  14.114   7.306   5.922
69838SOL    HW111411  14.115   7.368   5.849
69838SOL    HW211412  14.171   7.234   5.893
69839SOL     OW11413   9.270  14.602   4.364
69839SOL    HW111414   9.294  14.672   4.425
69839SOL    HW211415   9.301  14.632   4.279
69840SOL     OW11416  12.436   0.457  13.592
69840SOL    HW111417  12.492   0.476  13.516
69840SOL    HW211418  12.373   0.528  13.594
69841SOL     OW11419  13.835   5.379   8.108
69841SOL    HW111420  13.852   5.294   8.150
69841SOL    HW211421  13.892   5.440   8.154
69842SOL     OW11422   5.526  12.378   7.096
69842SOL    HW111423   5.548  12.325   7.020
69842SOL    HW211424   5.608  12.418   7.123
69843SOL     OW11425   8.032  10.659  10.893
69843SOL    HW111426   8.004  10.747  10.870
69843SOL    HW211427   7.969  10.601  10.851
69844SOL     OW11428   7.663   5.007   8.466
69844SOL    HW111429   7.704   5.029   8.382
69844SOL    HW211430   7.569   5.007   8.447
69845SOL     OW11431   1.977   3.054  11.680
69845SOL    HW111432   2.039   3.110  11.633
69845SOL    HW211433   2.028   2.976  11.702
69846SOL     OW11434  13.056  13.673   7.074
69846SOL    HW111435  13.072  13.736   7.144
69846SOL    HW211436  13.068  13.588   7.116
69847SOL     OW11437   8.910   9.466   6.849
69847SOL    HW111438   8.974   9.412   6.801
69847SOL    HW211439   8.871   9.406   6.913
69848SOL     OW11440   4.467   9.117   8.658
69848SOL    HW111441   4.388   9.165   8.680
69848SOL    HW211442   4.440   9.025   8.659
69849SOL     OW11443   0.325   3.174   6.814
69849SOL    HW111444   0.250   3.183   6.872
69849SOL    HW211445   0.387   3.239   6.844
69850SOL     OW11446   0.776  12.982   0.394
69850SOL    HW111447   0.852  13.033   0.422
69850SOL    HW211448   0.724  12.971   0.473
69851SOL     OW11449   2.257  13.009   8.807
69851SOL    HW111450   2.237  13.011   8.713
69851SOL    HW211451   2.307  12.929   8.819
69852SOL     OW11452   2.087  13.208   4.802
69852SOL    HW111453   2.176  13.230   4.774
69852SOL    HW211454   2.072  13.263   4.879
69853SOL     OW11455   5.604   0.905   7.137
69853SOL    HW111456   5.573   0.829   7.088
69853SOL    HW211457   5.547   0.910   7.214
69854SOL     OW11458  10.533   9.864  12.863
69854SOL    HW111459  10.534   9.960  12.860
69854SOL    HW211460  10.494   9.843  12.947
69855SOL     OW11461   2.899   2.560  11.164
69855SOL    HW111462   2.991   2.539  11.181
69855SOL    HW211463   2.858   2.559  11.250
69856SOL     OW11464   7.230   3.664   2.606
69856SOL    HW111465   7.190   3.656   2.520
69856SOL    HW211466   7.172   3.722   2.654
69857SOL     OW11467  14.446  14.593   3.690
69857SOL    HW111468  14.404  14.631   3.767
69857SOL    HW211469  14.498  14.665   3.654
69858SOL     OW11470  11.787   4.728   9.566
69858SOL    HW111471  11.764   4.781   9.643
69858SOL    HW211472  11.853   4.780   9.521
69859SOL     OW11473   1.514   6.271   4.833
69859SOL    HW111474   1.535   6.364   4.820
69859SOL    HW211475   1.543   6.252   4.922
69860SOL     OW11476  13.803   8.929  14.175
69860SOL    HW111477  13.836   8.954  14.089
69860SOL    HW211478  13.714   8.899  14.159
69861SOL     OW11479   7.120   2.973   6.426
69861SOL    HW111480   7.094   2.895   6.475
69861SOL    HW211481   7.172   3.025   6.488
69862SOL     OW11482   4.155  13.707   0.570
69862SOL    HW111483   4.227  13.669   0.621
69862SOL    HW211484   4.159  13.661   0.486
69863SOL     OW11485   7.823   6.656   6.520
69863SOL    HW111486   7.817   6.615   6.606
69863SOL    HW211487   7.846   6.585   6.460
69864SOL     OW11488   0.761   9.824   0.246
69864SOL    HW111489   0.724   9.825   0.334
69864SOL    HW211490   0.811   9.906   0.240
69865SOL     OW11491   8.762   6.282   6.302
69865SOL    HW111492   8.845   6.329   6.296
69865SOL    HW211493   8.772   6.226   6.380
69866SOL     OW11494   8.749  14.761   2.974
69866SOL    HW111495   8.737  14.716   3.058
69866SOL    HW211496   8.721  14.697   2.909
69867SOL     OW11497   9.847   5.301   3.734
69867SOL    HW111498   9.844   5.396   3.739
69867SOL    HW211499   9.857   5.272   3.825
69868SOL     OW11500   8.526   9.195   2.459
69868SOL    HW111501   8.445   9.233   2.423
69868SOL    HW211502   8.507   9.182   2.552
69869SOL     OW11503  12.117   1.911   1.891
69869SOL    HW111504  12.125   1.986   1.832
69869SOL    HW211505  12.069   1.845   1.840
69870SOL     OW11506  10.257   6.518   1.811
69870SOL    HW111507  10.212   6.594   1.773
69870SOL    HW211508  10.189   6.451   1.817
69871SOL     OW11509   9.993  12.247   7.131
69871SOL    HW111510  10.026  12.333   7.158
69871SOL    HW211511   9.975  12.202   7.213
69872SOL     OW11512   8.093   2.193   9.655
69872SOL    HW111513   8.020   2.232   9.607
69872SOL    HW211514   8.143   2.146   9.588
69873SOL     OW11515  14.102  13.379  10.635
69873SOL    HW111516  14.186  13.335  10.624
69873SOL    HW211517  14.101  13.449  10.570
69874SOL     OW11518   9.856  10.268   5.111
69874SOL    HW111519   9.878  10.356   5.082
69874SOL    HW211520   9.937  10.235   5.152
69875SOL     OW11521   7.025   6.046   8.062
69875SOL    HW111522   7.010   6.138   8.083
69875SOL    HW211523   7.020   6.001   8.146
69876SOL     OW11524   9.619  14.617  10.277
69876SOL    HW111525   9.528  14.596  10.300
69876SOL    HW211526   9.626  14.594  10.184
69877SOL     OW11527  12.982   0.241  11.720
69877SOL    HW111528  12.979   0.213  11.811
69877SOL    HW211529  12.988   0.337  11.724
69878SOL     OW11530  12.407   8.119  13.511
69878SOL    HW111531  12.453   8.186  13.461
69878SOL    HW211532  12.447   8.123  13.598
69879SOL     OW11533  11.993   1.944  14.632
69879SOL    HW111534  12.074   1.990  14.654
69879SOL    HW211535  11.947   1.935  14.715
69880SOL     OW11536   8.316   9.965   6.657
69880SOL    HW111537   8.270   9.882   6.648
69880SOL    HW211538   8.323   9.999   6.567
69881SOL     OW11539   6.288  12.452   1.386
69881SOL    HW111540   6.284  12.378   1.446
69881SOL    HW211541   6.359  12.507   1.419
69882SOL     OW11542   9.859  12.779  11.627
69882SOL    HW111543   9.816  12.718  11.686
69882SOL    HW211544   9.914  12.723  11.571
69883SOL     OW11545  10.568  14.763   9.441
69883SOL    HW111546  10.482  14.804   9.452
69883SOL    HW211547  10.560  14.678   9.485
69884SOL     OW11548   0.604  14.414   4.862
69884SOL    HW111549   0.523  14.416   4.915
69884SOL    HW211550   0.574  14.429   4.773
69885SOL     OW11551  13.624  11.773   5.578
69885SOL    HW111552  13.666  11.740   5.498
69885SOL    HW211553  13.692  11.766   5.645
69886SOL     OW11554  11.427   8.084  11.304
69886SOL    HW111555  11.406   8.000  11.263
69886SOL    HW211556  11.442   8.062  11.396
69887SOL     OW11557  12.213   5.150   0.343
69887SOL    HW111558  12.187   5.227   0.393
69887SOL    HW211559  12.254   5.092   0.408
69888SOL     OW11560   8.356   3.569   3.543
69888SOL    HW111561   8.380   3.607   3.627
69888SOL    HW211562   8.335   3.478   3.563
69889SOL     OW11563   8.960   7.092  12.983
69889SOL    HW111564   8.904   7.124  13.054
69889SOL    HW211565   8.957   7.161  12.917
69890SOL     OW11566   7.820  11.719  14.615
69890SOL    HW111567   7.768  11.651  14.572
69890SOL    HW211568   7.879  11.750  14.546
69891SOL     OW11569   8.238   8.550   2.323
69891SOL    HW111570   8.255   8.462   2.291
69891SOL    HW211571   8.169   8.584   2.266
69892SOL     OW11572  13.276  10.592   0.155
69892SOL    HW111573  13.226  10.598   0.236
69892SOL    HW211574  13.367  10.602   0.182
69893SOL     OW11575   3.416   7.195   1.924
69893SOL    HW111576   3.479   7.172   1.993
69893SOL    HW211577   3.470   7.213   1.847
69894SOL     OW11578   7.021   0.505  10.975
69894SOL    HW111579   7.068   0.484  10.894
69894SOL    HW211580   7.088   0.530  11.037
69895SOL     OW11581   9.181  13.218   0.070
69895SOL    HW111582   9.193  13.306   0.033
69895SOL    HW211583   9.183  13.160  14.877
69896SOL     OW11584   4.104   8.737   4.588
69896SOL    HW111585   4.081   8.808   4.649
69896SOL    HW211586   4.035   8.672   4.601
69897SOL     OW11587  14.654   7.902   6.678
69897SOL    HW111588  14.723   7.850   6.637
69897SOL    HW211589  14.698   7.980   6.711
69898SOL     OW11590   0.372  12.640  13.751
69898SOL    HW111591   0.369  12.735  13.753
69898SOL    HW211592   0.389  12.615  13.842
69899SOL     OW11593   9.710  13.015   1.114
69899SOL    HW111594   9.748  13.059   1.038
69899SOL    HW211595   9.786  12.987   1.165
69900SOL     OW11596  13.030   5.224   1.782
69900SOL    HW111597  12.980   5.287   1.730
69900SOL    HW211598  13.117   5.264   1.790
69901SOL     OW11599   5.985   5.619   0.311
69901SOL    HW111600   6.078   5.604   0.299
69901SOL    HW211601   5.973   5.623   0.406
69902SOL     OW11602   0.274  14.608  12.106
69902SOL    HW111603   0.253  14.665  12.032
69902SOL    HW211604   0.358  14.569  12.084
69903SOL     OW11605  12.085   4.082   9.385
69903SOL    HW111606  12.146   4.038   9.325
69903SOL    HW211607  11.999   4.046   9.362
69904SOL     OW11608   9.648  14.072   0.240
69904SOL    HW111609   9.694  13.988   0.246
69904SOL    HW211610   9.714  14.133   0.206
69905SOL     OW11611   5.330  13.448  12.074
69905SOL    HW111612   5.359  13.393  12.002
69905SOL    HW211613   5.275  13.390  12.127
69906SOL     OW11614  11.180  13.303   2.404
69906SOL    HW111615  11.245  13.266   2.345
69906SOL    HW211616  11.128  13.362   2.350
69907SOL     OW11617   3.428   0.072   1.874
69907SOL    HW111618   3.450   0.124   1.952
69907SOL    HW211619   3.509   0.069   1.824
69908SOL     OW11620  10.662   8.952   2.803
69908SOL    HW111621  10.643   8.860   2.818
69908SOL    HW211622  10.758   8.958   2.803
69909SOL     OW11623   5.638  10.406  10.851
69909SOL    HW111624   5.556  10.450  10.878
69909SOL    HW211625   5.703  10.476  10.849
69910SOL     OW11626   8.881   8.483   1.892
69910SOL    HW111627   8.833   8.545   1.947
69910SOL    HW211628   8.926   8.536   1.827
69911SOL     OW11629   0.122   0.652   4.634
69911SOL    HW111630   0.177   0.710   4.583
69911SOL    HW211631   0.075   0.599   4.569
69912SOL     OW11632   0.300   1.321   7.904
69912SOL    HW111633   0.227   1.321   7.966
69912SOL    HW211634   0.335   1.410   7.907
69913SOL     OW11635   8.337   1.974  12.154
69913SOL    HW111636   8.428   1.997  12.136
69913SOL    HW211637   8.342   1.892  12.203
69914SOL     OW11638   8.439   7.232   3.363
69914SOL    HW111639   8.424   7.280   3.444
69914SOL    HW211640   8.443   7.300   3.295
69915SOL     OW11641   7.147  12.671   7.320
69915SOL    HW111642   7.100  12.713   7.392
69915SOL    HW211643   7.188  12.744   7.273
69916SOL     OW11644  12.729  10.700  13.480
69916SOL    HW111645  12.654  10.729  13.532
69916SOL    HW211646  12.705  10.612  13.452
69917SOL     OW11647  10.791  12.353   1.919
69917SOL    HW111648  10.852  12.318   1.983
69917SOL    HW211649  10.837  12.346   1.835
69918SOL     OW11650   4.775  13.638  12.998
69918SOL    HW111651   4.774  13.669  13.089
69918SOL    HW211652   4.684  13.644  12.970
69919SOL     OW11653   5.953   8.196   0.351
69919SOL    HW111654   6.039   8.169   0.320
69919SOL    HW211655   5.928   8.129   0.414
69920SOL     OW11656   5.419   6.566  13.468
69920SOL    HW111657   5.423   6.626  13.394
69920SOL    HW211658   5.402   6.480  13.428
69921SOL     OW11659   4.775   5.321  11.492
69921SOL    HW111660   4.832   5.249  11.464
69921SOL    HW211661   4.794   5.331  11.585
69922SOL     OW11662   1.307   7.061   2.476
69922SOL    HW111663   1.238   7.110   2.431
69922SOL    HW211664   1.270   7.038   2.561
69923SOL     OW11665  10.779  13.344  11.336
69923SOL    HW111666  10.856  13.401  11.336
69923SOL    HW211667  10.724  13.378  11.407
69924SOL     OW11668   4.265   7.728   1.367
69924SOL    HW111669   4.322   7.708   1.293
69924SOL    HW211670   4.320   7.783   1.425
69925SOL     OW11671   9.324   3.693  12.275
69925SOL    HW111672   9.306   3.780  12.239
69925SOL    HW211673   9.417   3.678  12.254
69926SOL     OW11674   3.848   5.496   1.031
69926SOL    HW111675   3.811   5.409   1.018
69926SOL    HW211676   3.772   5.555   1.031
69927SOL     OW11677   5.732   3.319  10.938
69927SOL    HW111678   5.644   3.291  10.913
69927SOL    HW211679   5.790   3.282  10.871
69928SOL     OW11680   4.520  10.698   9.104
69928SOL    HW111681   4.575  10.635   9.151
69928SOL    HW211682   4.471  10.743   9.173
69929SOL     OW11683  12.290  12.911   8.765
69929SOL    HW111684  12.238  12.988   8.789
69929SOL    HW211685  12.370  12.920   8.816
69930SOL     OW11686  12.756   5.625   5.875
69930SOL    HW111687  12.725   5.582   5.795
69930SOL    HW211688  12.698   5.701   5.885
69931SOL     OW11689   5.625  12.449  13.549
69931SOL    HW111690   5.678  12.382  13.505
69931SOL    HW211691   5.679  12.528  13.548
69932SOL     OW11692   5.795   6.630  10.658
69932SOL    HW111693   5.720   6.590  10.615
69932SOL    HW211694   5.852   6.557  10.682
69933SOL     OW11695   3.071   5.148   0.345
69933SOL    HW111696   3.105   5.140   0.434
69933SOL    HW211697   3.119   5.223   0.308
69934SOL     OW11698  10.709  12.571   4.603
69934SOL    HW111699  10.775  12.628   4.641
69934SOL    HW211700  10.647  12.630   4.560
69935SOL     OW11701  12.347  11.488  14.249
69935SOL    HW111702  12.334  11.394  14.246
69935SOL    HW211703  12.436  11.501  14.216
69936SOL     OW11704   9.742   1.232   3.661
69936SOL    HW111705   9.730   1.303   3.598
69936SOL    HW211706   9.829   1.246   3.697
69937SOL     OW11707  12.728   2.549   3.587
69937SOL    HW111708  12.729   2.460   3.551
69937SOL    HW211709  12.743   2.537   3.681
69938SOL     OW11710   2.279  10.063   7.335
69938SOL    HW111711   2.209  10.116   7.375
69938SOL    HW211712   2.293   9.992   7.397
69939SOL     OW11713   4.126  14.439  14.085
69939SOL    HW111714   4.066  14.463  14.015
69939SOL    HW211715   4.213  14.442  14.045
69940SOL     OW11716   9.257  12.171   6.448
69940SOL    HW111717   9.313  12.095   6.463
69940SOL    HW211718   9.170  12.142   6.477
69941SOL     OW11719   1.254  12.101  12.048
69941SOL    HW111720   1.275  12.013  12.018
69941SOL    HW211721   1.172  12.123  12.003
69942SOL     OW11722   0.448  14.761   3.860
69942SOL    HW111723   0.425  14.708   3.936
69942SOL    HW211724   0.370  14.816   3.845
69943SOL     OW11725  10.048  11.124  11.094
69943SOL    HW111726  10.066  11.192  11.029
69943SOL    HW211727  10.016  11.050  11.042
69944SOL     OW11728   2.132   7.349  13.547
69944SOL    HW111729   2.163   7.362  13.458
69944SOL    HW211730   2.062   7.285  13.540
69945SOL     OW11731  13.259  14.536  12.523
69945SOL    HW111732  13.238  14.447  12.494
69945SOL    HW211733  13.331  14.525  12.585
69946SOL     OW11734   6.441   0.794   6.080
69946SOL    HW111735   6.461   0.864   6.019
69946SOL    HW211736   6.512   0.731   6.069
69947SOL     OW11737   0.058   6.094   8.209
69947SOL    HW111738  14.870   6.059   8.155
69947SOL    HW211739   0.027   6.083   8.299
69948SOL     OW11740   6.872   0.161  11.419
69948SOL    HW111741   6.952   0.189  11.375
69948SOL    HW211742   6.813   0.135  11.348
69949SOL     OW11743   5.769   6.638  11.726
69949SOL    HW111744   5.738   6.717  11.682
69949SOL    HW211745   5.852   6.617  11.682
69950SOL     OW11746  10.685   4.176   1.169
69950SOL    HW111747  10.607   4.213   1.210
69950SOL    HW211748  10.655   4.094   1.130
69951SOL     OW11749   4.507  13.299  11.531
69951SOL    HW111750   4.521  13.215  11.487
69951SOL    HW211751   4.585  13.350  11.511
69952SOL     OW11752   8.391   1.784  11.109
69952SOL    HW111753   8.329   1.847  11.145
69952SOL    HW211754   8.344   1.701  11.109
69953SOL     OW11755   9.256   2.679   0.353
69953SOL    HW111756   9.279   2.688   0.260
69953SOL    HW211757   9.299   2.752   0.396
69954SOL     OW11758  14.181   0.784   2.858
69954SOL    HW111759  14.187   0.728   2.780
69954SOL    HW211760  14.267   0.826   2.864
69955SOL     OW11761   1.519  11.848   0.318
69955SOL    HW111762   1.615  11.855   0.321
69955SOL    HW211763   1.496  11.872   0.228
69956SOL     OW11764   7.977   3.204   0.072
69956SOL    HW111765   7.936   3.117   0.073
69956SOL    HW211766   7.917   3.259   0.022
69957SOL     OW11767  14.485   5.158   9.190
69957SOL    HW111768  14.395   5.180   9.166
69957SOL    HW211769  14.506   5.217   9.262
69958SOL     OW11770  10.182  13.693   3.141
69958SOL    HW111771  10.088  13.692   3.153
69958SOL    HW211772  10.201  13.777   3.100
69959SOL     OW11773  13.599  13.012  12.375
69959SOL    HW111774  13.515  13.056  12.385
69959SOL    HW211775  13.659  13.062  12.431
69960SOL     OW11776   8.607   6.117  10.682
69960SOL    HW111777   8.667   6.138  10.610
69960SOL    HW211778   8.580   6.202  10.716
69961SOL     OW11779   9.879  14.242  13.931
69961SOL    HW111780   9.920  14.272  13.850
69961SOL    HW211781   9.915  14.154  13.944
69962SOL     OW11782   6.759  11.770  12.383
69962SOL    HW111783   6.677  11.797  12.342
69962SOL    HW211784   6.822  11.839  12.360
69963SOL     OW11785   0.671   1.376   0.427
69963SOL    HW111786   0.674   1.286   0.395
69963SOL    HW211787   0.762   1.404   0.430
69964SOL     OW11788   2.623   8.427  14.510
69964SOL    HW111789   2.599   8.518  14.530
69964SOL    HW211790   2.576   8.407  14.429
69965SOL     OW11791   6.258  12.250   1.184
69965SOL    HW111792   6.223  12.325   1.233
69965SOL    HW211793   6.307  12.200   1.249
69966SOL     OW11794   4.848  10.128   8.288
69966SOL    HW111795   4.783  10.122   8.358
69966SOL    HW211796   4.919  10.070   8.316
69967SOL     OW11797   6.159   5.301   6.874
69967SOL    HW111798   6.108   5.382   6.876
69967SOL    HW211799   6.176   5.287   6.781
69968SOL     OW11800   2.833  13.556  13.718
69968SOL    HW111801   2.845  13.584  13.627
69968SOL    HW211802   2.810  13.637  13.765
69969SOL     OW11803   9.424  13.261   9.253
69969SOL    HW111804   9.400  13.187   9.309
69969SOL    HW211805   9.485  13.223   9.189
69970SOL     OW11806  14.069   2.132  10.513
69970SOL    HW111807  14.165   2.129  10.517
69970SOL    HW211808  14.049   2.142  10.420
69971SOL     OW11809  12.056   5.425  11.166
69971SOL    HW111810  12.089   5.409  11.255
69971SOL    HW211811  11.968   5.389  11.167
69972SOL     OW11812  12.853   0.566   4.873
69972SOL    HW111813  12.816   0.481   4.850
69972SOL    HW211814  12.793   0.601   4.939
69973SOL     OW11815   5.844   0.565   6.053
69973SOL    HW111816   5.818   0.620   6.128
69973SOL    HW211817   5.809   0.611   5.977
69974SOL     OW11818   1.540  14.453   5.834
69974SOL    HW111819   1.558  14.363   5.807
69974SOL    HW211820   1.446  14.454   5.852
69975SOL     OW11821   1.808  13.838   2.833
69975SOL    HW111822   1.839  13.748   2.835
69975SOL    HW211823   1.873  13.885   2.781
69976SOL     OW11824   2.780  12.563  13.244
69976SOL    HW111825   2.820  12.607  13.169
69976SOL    HW211826   2.805  12.617  13.319
69977SOL     OW11827  10.770   7.321   5.370
69977SOL    HW111828  10.851   7.364   5.343
69977SOL    HW211829  10.754   7.355   5.458
69978SOL     OW11830   2.524  13.355   7.415
69978SOL    HW111831   2.481  13.305   7.345
69978SOL    HW211832   2.451  13.391   7.466
69979SOL     OW11833   6.565  12.069  12.213
69979SOL    HW111834   6.601  12.106  12.294
69979SOL    HW211835   6.563  11.974  12.229
69980SOL     OW11836   0.484  14.332   4.070
69980SOL    HW111837   0.554  14.388   4.102
69980SOL    HW211838   0.529  14.257   4.030
69981SOL     OW11839   1.772  12.027   5.689
69981SOL    HW111840   1.706  12.014   5.757
69981SOL    HW211841   1.832  12.093   5.725
69982SOL     OW11842  10.888   6.180   2.764
69982SOL    HW111843  10.961   6.119   2.755
69982SOL    HW211844  10.817   6.128   2.802
69983SOL     OW11845  10.681   3.010   5.835
69983SOL    HW111846  10.591   3.044   5.834
69983SOL    HW211847  10.697   2.981   5.745
69984SOL     OW11848   9.579  13.293   2.417
69984SOL    HW111849   9.665  13.286   2.375
69984SOL    HW211850   9.593  13.258   2.505
69985SOL     OW11851  11.153  13.519  11.528
69985SOL    HW111852  11.182  13.604  11.560
69985SOL    HW211853  11.074  13.499  11.579
69986SOL     OW11854  11.403   5.475   9.275
69986SOL    HW111855  11.472   5.472   9.341
69986SOL    HW211856  11.355   5.555   9.293
69987SOL     OW11857   8.331   7.044   7.329
69987SOL    HW111858   8.352   6.968   7.383
69987SOL    HW211859   8.277   7.009   7.258
69988SOL     OW11860   3.178  11.321   8.746
69988SOL    HW111861   3.176  11.371   8.665
69988SOL    HW211862   3.264  11.340   8.784
69989SOL     OW11863  10.923  11.496  10.109
69989SOL    HW111864  11.010  11.520  10.139
69989SOL    HW211865  10.871  11.576  10.117
69990SOL     OW11866   5.671   2.303  12.886
69990SOL    HW111867   5.682   2.361  12.962
69990SOL    HW211868   5.696   2.357  12.811
69991SOL     OW11869  10.533   2.013   4.138
69991SOL    HW111870  10.531   2.108   4.150
69991SOL    HW211871  10.540   2.000   4.044
69992SOL     OW11872   5.589   4.979  11.828
69992SOL    HW111873   5.495   4.995  11.840
69992SOL    HW211874   5.628   4.999  11.913
69993SOL     OW11875  14.412   3.335   0.109
69993SOL    HW111876  14.368   3.272   0.052
69993SOL    HW211877  14.504   3.327   0.087
69994SOL     OW11878  12.757   6.211   0.244
69994SOL    HW111879  12.802   6.153   0.183
69994SOL    HW211880  12.712   6.274   0.189
69995SOL     OW11881   7.669  14.129   8.309
69995SOL    HW111882   7.716  14.205   8.345
69995SOL    HW211883   7.579  14.140   8.341
69996SOL     OW11884  12.686   1.091  12.370
69996SOL    HW111885  12.768   1.139  12.387
69996SOL    HW211886  12.710   0.999  12.381
69997SOL     OW11887   1.550  14.721   1.579
69997SOL    HW111888   1.635  14.757   1.600
69997SOL    HW211889   1.506  14.711   1.664
69998SOL     OW11890   6.667  12.180   1.366
69998SOL    HW111891   6.753  12.144   1.387
69998SOL    HW211892   6.684  12.272   1.346
69999SOL     OW11893   5.140  14.449  11.448
69999SOL    HW111894   5.236  14.453  11.452
69999SOL    HW211895   5.115  14.530  11.403
70000SOL     OW11896  13.969  12.821   8.135
70000SOL    HW111897  14.000  12.773   8.059
70000SOL    HW211898  14.020  12.902   8.136
70001SOL     OW11899   5.623   2.657   0.801
70001SOL    HW111900   5.625   2.587   0.866
70001SOL    HW211901   5.530   2.673   0.786
70002SOL     OW11902   0.383  11.279   8.569
70002SOL    HW111903   0.289  11.297   8.580
70002SOL    HW211904   0.393  11.266   8.474
70003SOL     OW11905   1.940   4.526   4.050
70003SOL    HW111906   1.934   4.603   4.107
70003SOL    HW211907   1.907   4.556   3.966
70004SOL     OW11908  14.184   0.139   5.605
70004SOL    HW111909  14.178   0.147   5.700
70004SOL    HW211910  14.198   0.228   5.574
70005SOL     OW11911  11.866  14.125   2.720
70005SOL    HW111912  11.953  14.155   2.693
70005SOL    HW211913  11.877  14.099   2.811
70006SOL     OW11914   9.389  12.660   2.050
70006SOL    HW111915   9.295  12.654   2.070
70006SOL    HW211916   9.400  12.606   1.972
70007SOL     OW11917  14.371   9.056   0.838
70007SOL    HW111918  14.355   8.989   0.771
70007SOL    HW211919  14.408   9.007   0.912
70008SOL     OW11920  13.451   9.478  11.321
70008SOL    HW111921  13.515   9.492  11.391
70008SOL    HW211922  13.497   9.423  11.258
70009SOL     OW11923   0.718   8.767   0.218
70009SOL    HW111924   0.666   8.765   0.138
70009SOL    HW211925   0.795   8.820   0.195
70010SOL     OW11926   5.172  14.486  11.839
70010SOL    HW111927   5.170  14.409  11.781
70010SOL    HW211928   5.083  14.495  11.871
70011SOL     OW11929   5.974   3.129  12.313
70011SOL    HW111930   6.039   3.196  12.294
70011SOL    HW211931   5.900   3.177  12.350
70012SOL     OW11932   1.465   2.513  12.765
70012SOL    HW111933   1.553   2.480  12.744
70012SOL    HW211934   1.482   2.591  12.818
70013SOL     OW11935   2.439   8.877  11.180
70013SOL    HW111936   2.460   8.960  11.137
70013SOL    HW211937   2.377   8.902  11.249
70014SOL     OW11938  10.338   0.320   5.796
70014SOL    HW111939  10.296   0.334   5.711
70014SOL    HW211940  10.430   0.303   5.774
70015SOL     OW11941   3.293  13.683   5.141
70015SOL    HW111942   3.291  13.617   5.071
70015SOL    HW211943   3.359  13.651   5.202
70016SOL     OW11944   0.897   2.133   5.008
70016SOL    HW111945   0.852   2.087   5.079
70016SOL    HW211946   0.988   2.106   5.016
70017SOL     OW11947   5.520   9.059   9.146
70017SOL    HW111948   5.588   8.996   9.123
70017SOL    HW211949   5.442   9.006   9.164
70018SOL     OW11950  10.148   7.004   7.599
70018SOL    HW111951  10.069   7.052   7.575
70018SOL    HW211952  10.116   6.924   7.639
70019SOL     OW11953   4.595   6.533  10.735
70019SOL    HW111954   4.553   6.456  10.773
70019SOL    HW211955   4.610   6.508  10.644
70020SOL     OW11956   4.230   4.281   2.254
70020SOL    HW111957   4.209   4.304   2.163
70020SOL    HW211958   4.184   4.346   2.306
70021SOL     OW11959   5.880  12.435  12.698
70021SOL    HW111960   5.887  12.385  12.780
70021SOL    HW211961   5.970  12.453  12.673
70022SOL     OW11962  13.784   4.756   0.082
70022SOL    HW111963  13.840   4.718   0.015
70022SOL    HW211964  13.842   4.772   0.157
70023SOL     OW11965   8.034  13.400   9.448
70023SOL    HW111966   8.083  13.318   9.440
70023SOL    HW211967   8.092  13.459   9.496
70024SOL     OW11968  14.100  10.694   9.670
70024SOL    HW111969  14.017  10.645   9.672
70024SOL    HW211970  14.076  10.781   9.641
70025SOL     OW11971   5.701   9.240   5.885
70025SOL    HW111972   5.686   9.335   5.889
70025SOL    HW211973   5.705   9.213   5.976
70026SOL     OW11974   1.980   6.212  10.102
70026SOL    HW111975   2.014   6.246  10.185
70026SOL    HW211976   1.985   6.285  10.041
70027SOL     OW11977   9.577  11.450  14.025
70027SOL    HW111978   9.618  11.396  13.957
70027SOL    HW211979   9.516  11.507  13.977
70028SOL     OW11980   3.964  13.115   6.984
70028SOL    HW111981   4.027  13.055   6.945
70028SOL    HW211982   4.016  13.188   7.016
70029SOL     OW11983  12.200   7.228   3.102
70029SOL    HW111984  12.142   7.296   3.136
70029SOL    HW211985  12.229   7.180   3.179
70030SOL     OW11986   7.299  12.347   4.179
70030SOL    HW111987   7.393  12.347   4.197
70030SOL    HW211988   7.286  12.420   4.118
70031SOL     OW11989   5.583  10.644   2.601
70031SOL    HW111990   5.628  10.560   2.613
70031SOL    HW211991   5.492  10.625   2.622
70032SOL     OW11992   8.351   7.875   3.465
70032SOL    HW111993   8.424   7.932   3.442
70032SOL    HW211994   8.286   7.890   3.396
70033SOL     OW11995   8.029   5.636   5.980
70033SOL    HW111996   8.081   5.595   5.910
70033SOL    HW211997   8.093   5.651   6.050
70034SOL     OW11998   6.825   4.689   7.814
70034SOL    HW111999   6.910   4.691   7.769
70034SOL    HW212000   6.826   4.765   7.872
70035SOL     OW12001  11.698   8.806   8.857
70035SOL    HW112002  11.742   8.891   8.854
70035SOL    HW212003  11.769   8.743   8.864
70036SOL     OW12004   2.337   3.414  11.455
70036SOL    HW112005   2.383   3.470  11.393
70036SOL    HW212006   2.340   3.327  11.416
70037SOL     OW12007  10.541   2.298   3.935
70037SOL    HW112008  10.475   2.302   3.865
70037SOL    HW212009  10.624   2.310   3.889
70038SOL     OW12010   4.522  13.170   6.526
70038SOL    HW112011   4.516  13.262   6.502
70038SOL    HW212012   4.570  13.168   6.608
70039SOL     OW12013   7.074   7.530   0.633
70039SOL    HW112014   7.152   7.570   0.595
70039SOL    HW212015   7.024   7.499   0.558
70040SOL     OW12016   5.946   4.717  13.090
70040SOL    HW112017   5.949   4.698  13.184
70040SOL    HW212018   5.891   4.649  13.053
70041SOL     OW12019   3.547  10.635  13.532
70041SOL    HW112020   3.584  10.678  13.455
70041SOL    HW212021   3.510  10.553  13.500
70042SOL     OW12022  12.834  10.803   3.199
70042SOL    HW112023  12.787  10.886   3.208
70042SOL    HW212024  12.814  10.756   3.280
70043SOL     OW12025  13.720   1.736   9.769
70043SOL    HW112026  13.725   1.748   9.864
70043SOL    HW212027  13.808   1.711   9.742
70044SOL     OW12028   7.141   1.451   4.876
70044SOL    HW112029   7.170   1.393   4.946
70044SOL    HW212030   7.113   1.530   4.921
70045SOL     OW12031   3.919  12.006  12.040
70045SOL    HW112032   3.850  12.016  12.105
70045SOL    HW212033   3.899  12.072  11.973
70046SOL     OW12034  11.163  11.476   0.341
70046SOL    HW112035  11.145  11.420   0.416
70046SOL    HW212036  11.081  11.524   0.326
70047SOL     OW12037   9.809   2.779   4.724
70047SOL    HW112038   9.746   2.827   4.670
70047SOL    HW212039   9.868   2.738   4.661
70048SOL     OW12040   5.143   9.298   1.926
70048SOL    HW112041   5.099   9.363   1.981
70048SOL    HW212042   5.224   9.341   1.900
70049SOL     OW12043  10.752  11.187   4.106
70049SOL    HW112044  10.715  11.260   4.058
70049SOL    HW212045  10.751  11.215   4.198
70050SOL     OW12046   9.443   5.044   5.548
70050SOL    HW112047   9.438   5.041   5.643
70050SOL    HW212048   9.356   5.018   5.518
70051SOL     OW12049   6.514   1.617   0.351
70051SOL    HW112050   6.550   1.705   0.335
70051SOL    HW212051   6.504   1.579   0.263
70052SOL     OW12052  13.879  11.011   7.722
70052SOL    HW112053  13.957  10.987   7.672
70052SOL    HW212054  13.905  11.001   7.813
70053SOL     OW12055   3.661   5.638  14.510
70053SOL    HW112056   3.613   5.681  14.438
70053SOL    HW212057   3.605   5.650  14.587
70054SOL     OW12058   9.586   0.030   1.809
70054SOL    HW112059   9.516   0.093   1.795
70054SOL    HW212060   9.568  14.875   1.895
70055SOL     OW12061   1.874  11.402   3.909
70055SOL    HW112062   1.927  11.442   3.840
70055SOL    HW212063   1.836  11.324   3.869
70056SOL     OW12064   2.455  14.675  14.059
70056SOL    HW112065   2.428  14.639  14.144
70056SOL    HW212066   2.547  14.698  14.070
70057SOL     OW12067  10.218  10.991  11.747
70057SOL    HW112068  10.164  10.920  11.780
70057SOL    HW212069  10.307  10.967  11.772
70058SOL     OW12070   9.839   3.182   0.232
70058SOL    HW112071   9.763   3.241   0.238
70058SOL    HW212072   9.897   3.224   0.169
70059SOL     OW12073   2.370   7.669   6.274
70059SOL    HW112074   2.411   7.709   6.197
70059SOL    HW212075   2.281   7.649   6.245
70060SOL     OW12076   0.799   4.084   5.305
70060SOL    HW112077   0.842   4.164   5.336
70060SOL    HW212078   0.790   4.030   5.383
70061SOL     OW12079  10.971   8.126  10.194
70061SOL    HW112080  10.881   8.102  10.214
70061SOL    HW212081  11.019   8.113  10.276
70062SOL     OW12082  13.968   9.609   8.532
70062SOL    HW112083  13.915   9.532   8.553
70062SOL    HW212084  14.058   9.578   8.536
70063SOL     OW12085   5.201  11.468  14.088
70063SOL    HW112086   5.232  11.536  14.028
70063SOL    HW212087   5.275  11.451  14.146
70064SOL     OW12088   2.044   6.988   0.483
70064SOL    HW112089   1.991   6.973   0.562
70064SOL    HW212090   2.133   6.999   0.516
70065SOL     OW12091   6.677   6.749   5.998
70065SOL    HW112092   6.601   6.804   6.019
70065SOL    HW212093   6.642   6.681   5.941
70066SOL     OW12094  10.811   1.437  14.744
70066SOL    HW112095  10.726   1.442  14.788
70066SOL    HW212096  10.795   1.385  14.665
70067SOL     OW12097   1.074   6.945   4.296
70067SOL    HW112098   1.098   6.858   4.329
70067SOL    HW212099   0.978   6.943   4.292
70068SOL     OW12100   6.181   0.996  13.677
70068SOL    HW112101   6.196   0.910  13.639
70068SOL    HW212102   6.156   1.051  13.602
70069SOL     OW12103   2.620  10.908   3.423
70069SOL    HW112104   2.634  10.900   3.518
70069SOL    HW212105   2.553  10.976   3.414
70070SOL     OW12106  10.782  10.122  10.421
70070SOL    HW112107  10.811  10.176  10.494
70070SOL    HW212108  10.695  10.091  10.446
70071SOL     OW12109   7.555   8.975  14.231
70071SOL    HW112110   7.573   9.067  14.246
70071SOL    HW212111   7.484   8.954  14.292
70072SOL     OW12112  14.190   3.965  10.265
70072SOL    HW112113  14.213   4.002  10.350
70072SOL    HW212114  14.274   3.959  10.219
70073SOL     OW12115  11.174  14.249   0.183
70073SOL    HW112116  11.146  14.161   0.206
70073SOL    HW212117  11.207  14.287   0.264
70074SOL     OW12118   0.771   1.728   3.958
70074SOL    HW112119   0.798   1.814   3.925
70074SOL    HW212120   0.730   1.686   3.882
70075SOL     OW12121   0.985  11.636   8.033
70075SOL    HW112122   0.904  11.604   8.073
70075SOL    HW212123   1.035  11.556   8.011
70076SOL     OW12124   2.580   0.808   0.809
70076SOL    HW112125   2.511   0.826   0.873
70076SOL    HW212126   2.631   0.737   0.848
70077SOL     OW12127   0.517  12.932   7.659
70077SOL    HW112128   0.493  12.841   7.643
70077SOL    HW212129   0.613  12.930   7.669
70078SOL     OW12130   4.286  11.802   1.555
70078SOL    HW112131   4.309  11.894   1.563
70078SOL    HW212132   4.351  11.756   1.609
70079SOL     OW12133   7.860  10.653   7.256
70079SOL    HW112134   7.905  10.717   7.311
70079SOL    HW212135   7.930  10.614   7.203
70080SOL     OW12136   8.368  14.246  12.154
70080SOL    HW112137   8.292  14.230  12.099
70080SOL    HW212138   8.354  14.333  12.190
70081SOL     OW12139   1.172   4.045   1.160
70081SOL    HW112140   1.102   4.058   1.096
70081SOL    HW212141   1.223   3.972   1.126
70082SOL     OW12142   5.196   3.568  12.394
70082SOL    HW112143   5.178   3.660  12.378
70082SOL    HW212144   5.121   3.537  12.444
70083SOL     OW12145   2.719  11.023   8.901
70083SOL    HW112146   2.730  10.970   8.822
70083SOL    HW212147   2.666  10.968   8.959
70084SOL     OW12148   8.165   7.620   0.351
70084SOL    HW112149   8.087   7.641   0.299
70084SOL    HW212150   8.180   7.527   0.336
70085SOL     OW12151   9.155  10.431   1.134
70085SOL    HW112152   9.240  10.444   1.176
70085SOL    HW212153   9.107  10.374   1.194
70086SOL     OW12154   8.009   0.770   8.879
70086SOL    HW112155   7.976   0.860   8.890
70086SOL    HW212156   7.989   0.727   8.962
70087SOL     OW12157   6.055  11.783   3.618
70087SOL    HW112158   5.990  11.833   3.669
70087SOL    HW212159   6.040  11.692   3.645
70088SOL     OW12160   2.358   7.621   2.683
70088SOL    HW112161   2.399   7.696   2.640
70088SOL    HW212162   2.400   7.617   2.769
70089SOL     OW12163  11.407   4.145   1.083
70089SOL    HW112164  11.399   4.163   0.990
70089SOL    HW212165  11.316   4.139   1.114
70090SOL     OW12166   7.868   7.293   8.949
70090SOL    HW112167   7.952   7.267   8.913
70090SOL    HW212168   7.809   7.295   8.874
70091SOL     OW12169   6.630  13.312   8.372
70091SOL    HW112170   6.686  13.296   8.448
70091SOL    HW212171   6.573  13.235   8.367
70092SOL     OW12172   1.199  10.029   2.105
70092SOL    HW112173   1.151  10.098   2.060
70092SOL    HW212174   1.134   9.962   2.124
70093SOL     OW12175  13.537  11.013  11.977
70093SOL    HW112176  13.633  11.012  11.985
70093SOL    HW212177  13.518  11.093  11.928
70094SOL     OW12178   0.384   2.994   3.212
70094SOL    HW112179   0.391   3.001   3.116
70094SOL    HW212180   0.340   2.910   3.227
70095SOL     OW12181   0.356   1.299  13.292
70095SOL    HW112182   0.270   1.256  13.294
70095SOL    HW212183   0.340   1.382  13.246
70096SOL     OW12184   1.973  10.637  11.850
70096SOL    HW112185   1.913  10.646  11.924
70096SOL    HW212186   2.056  10.610  11.889
70097SOL     OW12187  12.344   7.679  14.149
70097SOL    HW112188  12.282   7.637  14.209
70097SOL    HW212189  12.430   7.650  14.179
70098SOL     OW12190   9.835   4.863   9.240
70098SOL    HW112191   9.794   4.904   9.163
70098SOL    HW212192   9.806   4.916   9.314
70099SOL     OW12193   8.540  11.925   8.528
70099SOL    HW112194   8.507  11.835   8.518
70099SOL    HW212195   8.627  11.914   8.566
70100SOL     OW12196   5.077  13.837   9.993
70100SOL    HW112197   5.066  13.787  10.073
70100SOL    HW212198   5.032  13.786   9.926
70101SOL     OW12199   3.122   9.454   3.105
70101SOL    HW112200   3.045   9.481   3.155
70101SOL    HW212201   3.196   9.487   3.156
70102SOL     OW12202   9.526   9.178   9.434
70102SOL    HW112203   9.492   9.111   9.492
70102SOL    HW212204   9.562   9.245   9.492
70103SOL     OW12205  14.554   2.128  13.465
70103SOL    HW112206  14.501   2.148  13.543
70103SOL    HW212207  14.536   2.200  13.405
70104SOL     OW12208  10.468  10.543   3.788
70104SOL    HW112209  10.468  10.628   3.745
70104SOL    HW212210  10.381  10.536   3.827
70105SOL     OW12211   5.213  11.021  13.083
70105SOL    HW112212   5.233  10.991  12.995
70105SOL    HW212213   5.237  11.113  13.083
70106SOL     OW12214   4.168   2.910   3.611
70106SOL    HW112215   4.121   2.952   3.683
70106SOL    HW212216   4.152   2.817   3.623
70107SOL     OW12217  13.727   7.055   8.261
70107SOL    HW112218  13.793   7.115   8.296
70107SOL    HW212219  13.762   6.968   8.278
70108SOL     OW12220  13.266   3.908  12.325
70108SOL    HW112221  13.253   3.986  12.379
70108SOL    HW212222  13.312   3.846  12.382
70109SOL     OW12223  13.010  10.760   8.408
70109SOL    HW112224  13.092  10.780   8.362
70109SOL    HW212225  13.037  10.734   8.496
70110SOL     OW12226  13.037   6.902  10.281
70110SOL    HW112227  13.065   6.897  10.190
70110SOL    HW212228  13.112   6.870  10.331
70111SOL     OW12229   0.086   2.544  10.325
70111SOL    HW112230   0.165   2.592  10.298
70111SOL    HW212231   0.118   2.476  10.383
70112SOL     OW12232  13.162  14.780   9.074
70112SOL    HW112233  13.193  14.801   8.986
70112SOL    HW212234  13.088  14.838   9.089
70113SOL     OW12235  12.692   1.175   4.461
70113SOL    HW112236  12.599   1.196   4.451
70113SOL    HW212237  12.733   1.258   4.484
70114SOL     OW12238   2.409   6.556  11.342
70114SOL    HW112239   2.334   6.499  11.353
70114SOL    HW212240   2.466   6.510  11.280
70115SOL     OW12241  13.601  13.085   3.695
70115SOL    HW112242  13.663  13.022   3.657
70115SOL    HW212243  13.637  13.103   3.782
70116SOL     OW12244  13.558  10.794  12.999
70116SOL    HW112245  13.535  10.854  13.071
70116SOL    HW212246  13.505  10.824  12.925
70117SOL     OW12247   1.674   6.146   1.229
70117SOL    HW112248   1.682   6.176   1.139
70117SOL    HW212249   1.710   6.217   1.282
70118SOL     OW12250   7.901   7.091   2.846
70118SOL    HW112251   7.894   7.101   2.941
70118SOL    HW212252   7.842   7.019   2.825
70119SOL     OW12253  11.358   5.591  11.373
70119SOL    HW112254  11.281   5.537  11.358
70119SOL    HW212255  11.426   5.528  11.397
70120SOL     OW12256   9.216   3.736  10.766
70120SOL    HW112257   9.263   3.805  10.719
70120SOL    HW212258   9.281   3.699  10.826
70121SOL     OW12259   4.136   4.268   6.328
70121SOL    HW112260   4.153   4.339   6.267
70121SOL    HW212261   4.143   4.188   6.275
70122SOL     OW12262   4.784  11.028   1.348
70122SOL    HW112263   4.822  10.982   1.423
70122SOL    HW212264   4.737  11.102   1.385
70123SOL     OW12265   6.313  14.653  11.794
70123SOL    HW112266   6.307  14.559  11.776
70123SOL    HW212267   6.264  14.664  11.876
70124SOL     OW12268   1.276  10.254   9.136
70124SOL    HW112269   1.210  10.322   9.119
70124SOL    HW212270   1.243  10.207   9.212
70125SOL     OW12271   5.686  13.601   1.921
70125SOL    HW112272   5.716  13.680   1.964
70125SOL    HW212273   5.684  13.535   1.990
70126SOL     OW12274   5.124  13.902   0.881
70126SOL    HW112275   5.182  13.958   0.932
70126SOL    HW212276   5.069  13.963   0.831
70127SOL     OW12277   6.730   2.983  13.627
70127SOL    HW112278   6.762   2.898  13.595
70127SOL    HW212279   6.767   3.047  13.567
70128SOL     OW12280  10.735   4.320   7.050
70128SOL    HW112281  10.800   4.363   7.105
70128SOL    HW212282  10.777   4.314   6.964
70129SOL     OW12283   7.977   8.242   2.094
70129SOL    HW112284   8.018   8.283   2.017
70129SOL    HW212285   7.980   8.310   2.161
70130SOL     OW12286   1.859   9.031  13.993
70130SOL    HW112287   1.831   9.078  14.071
70130SOL    HW212288   1.809   9.070  13.921
70131SOL     OW12289  11.364  10.573   1.144
70131SOL    HW112290  11.362  10.573   1.240
70131SOL    HW212291  11.284  10.619   1.118
70132SOL     OW12292   3.720  11.367   0.307
70132SOL    HW112293   3.753  11.280   0.329
70132SOL    HW212294   3.745  11.380   0.215
70133SOL     OW12295   7.305   7.425   0.460
70133SOL    HW112296   7.224   7.378   0.443
70133SOL    HW212297   7.320   7.414   0.554
70134SOL     OW12298   5.056  11.546   7.452
70134SOL    HW112299   5.037  11.510   7.365
70134SOL    HW212300   5.149  11.528   7.465
70135SOL     OW12301   4.867  14.241  11.829
70135SOL    HW112302   4.890  14.152  11.855
70135SOL    HW212303   4.939  14.268  11.772
70136SOL     OW12304   7.980   0.731   8.389
70136SOL    HW112305   7.908   0.795   8.399
70136SOL    HW212306   8.016   0.723   8.477
70137SOL     OW12307   6.020   7.915  11.616
70137SOL    HW112308   6.107   7.917  11.576
70137SOL    HW212309   6.007   8.002  11.651
70138SOL     OW12310   4.063   7.152   4.490
70138SOL    HW112311   4.130   7.123   4.552
70138SOL    HW212312   3.980   7.141   4.537
70139SOL     OW12313  12.839  10.124  10.893
70139SOL    HW112314  12.848  10.163  10.980
70139SOL    HW212315  12.745  10.111  10.882
70140SOL     OW12316   4.784  10.728   9.929
70140SOL    HW112317   4.845  10.698   9.862
70140SOL    HW212318   4.836  10.787   9.983
70141SOL     OW12319   9.089  10.355   8.649
70141SOL    HW112320   9.153  10.379   8.581
70141SOL    HW212321   9.005  10.385   8.614
70142SOL     OW12322  10.203  11.155   8.198
70142SOL    HW112323  10.140  11.208   8.149
70142SOL    HW212324  10.284  11.162   8.149
70143SOL     OW12325   7.052   8.880   4.676
70143SOL    HW112326   7.078   8.833   4.596
70143SOL    HW212327   6.957   8.866   4.682
70144SOL     OW12328   3.436  10.410   5.487
70144SOL    HW112329   3.473  10.338   5.436
70144SOL    HW212330   3.447  10.488   5.432
70145SOL     OW12331   0.613   8.430  13.629
70145SOL    HW112332   0.582   8.339  13.632
70145SOL    HW212333   0.563   8.475  13.697
70146SOL     OW12334   7.540   4.777  13.823
70146SOL    HW112335   7.486   4.705  13.790
70146SOL    HW212336   7.620   4.734  13.856
70147SOL     OW12337   4.755  14.491   0.771
70147SOL    HW112338   4.665  14.520   0.784
70147SOL    HW212339   4.802  14.526   0.846
70148SOL     OW12340  12.347   5.089  14.772
70148SOL    HW112341  12.260   5.085  14.814
70148SOL    HW212342  12.352   5.178  14.737
70149SOL     OW12343   7.815  12.403   0.867
70149SOL    HW112344   7.815  12.496   0.888
70149SOL    HW212345   7.803  12.400   0.772
70150SOL     OW12346   2.995   7.403  14.685
70150SOL    HW112347   2.921   7.399  14.625
70150SOL    HW212348   2.967   7.353  14.762
70151SOL     OW12349  14.851   0.972  11.062
70151SOL    HW112350   0.010   1.051  11.097
70151SOL    HW212351  14.783   1.004  11.003
70152SOL     OW12352  11.516  10.085   9.878
70152SOL    HW112353  11.543  10.124   9.961
70152SOL    HW212354  11.426  10.115   9.865
70153SOL     OW12355  10.312   7.393  14.185
70153SOL    HW112356  10.242   7.332  14.208
70153SOL    HW212357  10.268   7.465  14.142
70154SOL     OW12358   6.750  12.919   0.504
70154SOL    HW112359   6.749  12.900   0.598
70154SOL    HW212360   6.760  13.014   0.499
70155SOL     OW12361   0.593   0.279   5.513
70155SOL    HW112362   0.572   0.190   5.484
70155SOL    HW212363   0.631   0.321   5.436
70156SOL     OW12364   3.473   0.404  11.800
70156SOL    HW112365   3.533   0.368  11.866
70156SOL    HW212366   3.471   0.498  11.819
70157SOL     OW12367  13.458   5.001  13.636
70157SOL    HW112368  13.541   4.955  13.622
70157SOL    HW212369  13.391   4.938  13.609
70158SOL     OW12370   2.204  13.922   3.491
70158SOL    HW112371   2.138  13.984   3.523
70158SOL    HW212372   2.284  13.945   3.540
70159SOL     OW12373  14.744   1.857   8.967
70159SOL    HW112374  14.687   1.931   8.944
70159SOL    HW212375  14.733   1.847   9.061
70160SOL     OW12376   1.065   7.498   8.041
70160SOL    HW112377   0.999   7.510   8.109
70160SOL    HW212378   1.088   7.587   8.014
70161SOL     OW12379   7.040  10.726   1.979
70161SOL    HW112380   7.077  10.788   2.042
70161SOL    HW212381   6.946  10.743   1.980
70162SOL     OW12382   6.566  10.201   2.141
70162SOL    HW112383   6.545  10.280   2.191
70162SOL    HW212384   6.659  10.186   2.156
70163SOL     OW12385  13.697   9.847   1.595
70163SOL    HW112386  13.643   9.915   1.556
70163SOL    HW212387  13.672   9.767   1.549
70164SOL     OW12388  12.127   6.649   2.699
70164SOL    HW112389  12.049   6.689   2.737
70164SOL    HW212390  12.095   6.597   2.626
70165SOL     OW12391   1.187   9.006   7.187
70165SOL    HW112392   1.113   8.950   7.210
70165SOL    HW212393   1.180   9.080   7.247
70166SOL     OW12394   5.146   1.659   7.767
70166SOL    HW112395   5.102   1.601   7.705
70166SOL    HW212396   5.093   1.739   7.768
70167SOL     OW12397   3.799  13.860   4.030
70167SOL    HW112398   3.778  13.777   4.071
70167SOL    HW212399   3.765  13.926   4.090
70168SOL     OW12400  11.287   1.283   2.876
70168SOL    HW112401  11.261   1.288   2.784
70168SOL    HW212402  11.227   1.219   2.914
70169SOL     OW12403   4.370   4.499   3.899
70169SOL    HW112404   4.416   4.415   3.892
70169SOL    HW212405   4.387   4.542   3.815
70170SOL     OW12406   3.562   1.789   1.312
70170SOL    HW112407   3.486   1.745   1.274
70170SOL    HW212408   3.634   1.727   1.299
70171SOL     OW12409  11.780   1.369   1.497
70171SOL    HW112410  11.787   1.361   1.402
70171SOL    HW212411  11.824   1.290   1.530
70172SOL     OW12412  10.033   7.509   1.383
70172SOL    HW112413   9.987   7.440   1.431
70172SOL    HW212414  10.093   7.461   1.325
70173SOL     OW12415   5.135   0.692   0.324
70173SOL    HW112416   5.124   0.725   0.413
70173SOL    HW212417   5.129   0.597   0.333
70174SOL     OW12418   7.435   2.475   8.403
70174SOL    HW112419   7.355   2.527   8.406
70174SOL    HW212420   7.417   2.402   8.463
70175SOL     OW12421   1.349  13.053   7.026
70175SOL    HW112422   1.386  13.129   7.071
70175SOL    HW212423   1.257  13.075   7.013
70176SOL     OW12424   6.158  13.221   9.020
70176SOL    HW112425   6.210  13.157   8.972
70176SOL    HW212426   6.158  13.190   9.110
70177SOL     OW12427   5.067   8.216  10.018
70177SOL    HW112428   5.100   8.251   9.936
70177SOL    HW212429   5.100   8.276  10.085
70178SOL     OW12430  10.915   6.444   5.238
70178SOL    HW112431  10.929   6.525   5.189
70178SOL    HW212432  10.885   6.382   5.172
70179SOL     OW12433   5.189  13.575   5.443
70179SOL    HW112434   5.150  13.495   5.407
70179SOL    HW212435   5.164  13.575   5.535
70180SOL     OW12436   7.782   9.505  11.125
70180SOL    HW112437   7.709   9.514  11.063
70180SOL    HW212438   7.754   9.554  11.202
70181SOL     OW12439  12.336   3.367   7.083
70181SOL    HW112440  12.279   3.443   7.075
70181SOL    HW212441  12.396   3.373   7.009
70182SOL     OW12442   4.813  10.910   6.792
70182SOL    HW112443   4.722  10.930   6.814
70182SOL    HW212444   4.813  10.817   6.770
70183SOL     OW12445   2.841   0.986   5.416
70183SOL    HW112446   2.762   0.934   5.423
70183SOL    HW212447   2.868   1.000   5.507
70184SOL     OW12448   6.789   0.070  10.228
70184SOL    HW112449   6.869   0.024  10.253
70184SOL    HW212450   6.727   0.052  10.299
70185SOL     OW12451  13.654   6.443  11.594
70185SOL    HW112452  13.750   6.443  11.594
70185SOL    HW212453  13.631   6.373  11.656
70186SOL     OW12454   5.079  13.829   7.524
70186SOL    HW112455   5.008  13.857   7.582
70186SOL    HW212456   5.034  13.790   7.448
70187SOL     OW12457  14.413  11.447   2.329
70187SOL    HW112458  14.351  11.472   2.261
70187SOL    HW212459  14.361  11.395   2.391
70188SOL     OW12460  14.142   2.742   7.660
70188SOL    HW112461  14.129   2.791   7.741
70188SOL    HW212462  14.205   2.673   7.683
70189SOL     OW12463  10.344  12.276   8.950
70189SOL    HW112464  10.409  12.329   8.996
70189SOL    HW212465  10.267  12.279   9.006
70190SOL     OW12466  10.821  10.938  10.861
70190SOL    HW112467  10.735  10.978  10.849
70190SOL    HW212468  10.833  10.883  10.784
70191SOL     OW12469   2.311   1.292  11.765
70191SOL    HW112470   2.324   1.386  11.773
70191SOL    HW212471   2.218   1.278  11.785
70192SOL     OW12472  13.589   6.430   1.617
70192SOL    HW112473  13.585   6.362   1.550
70192SOL    HW212474  13.544   6.392   1.693
70193SOL     OW12475   5.108   3.502   7.305
70193SOL    HW112476   5.154   3.548   7.376
70193SOL    HW212477   5.141   3.542   7.225
70194SOL     OW12478  11.213   7.846   5.894
70194SOL    HW112479  11.159   7.767   5.891
70194SOL    HW212480  11.295   7.818   5.935
70195SOL     OW12481  14.192   5.113   1.045
70195SOL    HW112482  14.278   5.071   1.038
70195SOL    HW212483  14.177   5.121   1.139
70196SOL     OW12484   3.198   3.276   4.205
70196SOL    HW112485   3.123   3.273   4.145
70196SOL    HW212486   3.269   3.233   4.156
70197SOL     OW12487  12.431   3.564   5.797
70197SOL    HW112488  12.487   3.487   5.791
70197SOL    HW212489  12.465   3.623   5.730
70198SOL     OW12490  10.633   7.141  11.707
70198SOL    HW112491  10.653   7.232  11.686
70198SOL    HW212492  10.541   7.143  11.734
70199SOL     OW12493   7.166  12.072  10.771
70199SOL    HW112494   7.095  12.108  10.718
70199SOL    HW212495   7.228  12.145  10.780
70200SOL     OW12496   6.381  10.217   5.840
70200SOL    HW112497   6.332  10.281   5.789
70200SOL    HW212498   6.430  10.168   5.775
70201SOL     OW12499   2.475   9.197   9.568
70201SOL    HW112500   2.549   9.161   9.518
70201SOL    HW212501   2.516   9.243   9.641
70202SOL     OW12502   4.466  10.751  12.643
70202SOL    HW112503   4.490  10.839  12.670
70202SOL    HW212504   4.508  10.739  12.558
70203SOL     OW12505   3.414  12.684  11.847
70203SOL    HW112506   3.383  12.746  11.913
70203SOL    HW212507   3.342  12.624  11.833
70204SOL     OW12508  11.147   7.959   3.010
70204SOL    HW112509  11.087   7.959   2.936
70204SOL    HW212510  11.224   8.006   2.979
70205SOL     OW12511  12.734  11.436   3.963
70205SOL    HW112512  12.767  11.352   3.995
70205SOL    HW212513  12.806  11.472   3.912
70206SOL     OW12514   6.588   8.731  14.549
70206SOL    HW112515   6.543   8.648  14.565
70206SOL    HW212516   6.624   8.755  14.634
70207SOL     OW12517  13.772   5.160   5.125
70207SOL    HW112518  13.735   5.248   5.131
70207SOL    HW212519  13.788   5.134   5.216
70208SOL     OW12520  11.896   1.504  10.430
70208SOL    HW112521  11.885   1.419  10.388
70208SOL    HW212522  11.991   1.515  10.438
70209SOL     OW12523   8.001   2.094   6.723
70209SOL    HW112524   8.049   2.165   6.765
70209SOL    HW212525   8.037   2.088   6.635
70210SOL     OW12526   8.123  12.066   7.932
70210SOL    HW112527   8.071  12.112   7.866
70210SOL    HW212528   8.186  12.131   7.964
70211SOL     OW12529  13.134  12.501   0.348
70211SOL    HW112530  13.179  12.525   0.268
70211SOL    HW212531  13.168  12.562   0.414
70212SOL     OW12532   5.644   3.264   8.771
70212SOL    HW112533   5.591   3.186   8.782
70212SOL    HW212534   5.601   3.313   8.701
70213SOL     OW12535  14.537   1.370  10.767
70213SOL    HW112536  14.591   1.362  10.689
70213SOL    HW212537  14.450   1.395  10.734
70214SOL     OW12538   3.919  12.549   7.901
70214SOL    HW112539   3.981  12.597   7.846
70214SOL    HW212540   3.969  12.475   7.935
70215SOL     OW12541   2.062   3.824  11.788
70215SOL    HW112542   2.035   3.906  11.829
70215SOL    HW212543   2.037   3.834  11.696
70216SOL     OW12544   9.610   5.471  10.850
70216SOL    HW112545   9.520   5.501  10.847
70216SOL    HW212546   9.647   5.512  10.928
70217SOL     OW12547   4.663   5.536   5.915
70217SOL    HW112548   4.682   5.612   5.861
70217SOL    HW212549   4.599   5.566   5.979
70218SOL     OW12550   2.606   0.302   0.741
70218SOL    HW112551   2.619   0.377   0.800
70218SOL    HW212552   2.539   0.249   0.784
70219SOL     OW12553   3.072  10.070  13.813
70219SOL    HW112554   3.031   9.992  13.776
70219SOL    HW212555   3.000  10.130  13.829
70220SOL     OW12556   1.001   0.101   0.280
70220SOL    HW112557   0.987   0.147   0.363
70220SOL    HW212558   0.914   0.070   0.255
70221SOL     OW12559   2.447  14.800  14.643
70221SOL    HW112560   2.541  14.780  14.648
70221SOL    HW212561   2.404  14.717  14.667
70222SOL     OW12562   2.617   8.916  13.486
70222SOL    HW112563   2.632   8.957  13.571
70222SOL    HW212564   2.524   8.928  13.469
70223SOL     OW12565   2.869   9.007  12.563
70223SOL    HW112566   2.924   9.013  12.485
70223SOL    HW212567   2.929   9.027  12.635
70224SOL     OW12568   1.950  14.709  13.832
70224SOL    HW112569   1.985  14.797  13.816
70224SOL    HW212570   1.882  14.698  13.766
70225SOL     OW12571  14.800   8.124   0.252
70225SOL    HW112572  14.735   8.167   0.308
70225SOL    HW212573  14.879   8.177   0.262
70226SOL     OW12574   6.854  12.639   0.624
70226SOL    HW112575   6.759  12.636   0.611
70226SOL    HW212576   6.866  12.621   0.717
70227SOL     OW12577  13.349   6.803  12.800
70227SOL    HW112578  13.435   6.846  12.797
70227SOL    HW212579  13.302   6.839  12.725
70228SOL     OW12580   9.560   4.818  10.455
70228SOL    HW112581   9.568   4.763  10.533
70228SOL    HW212582   9.493   4.883  10.479
70229SOL     OW12583  13.570   2.769   9.852
70229SOL    HW112584  13.634   2.817   9.903
70229SOL    HW212585  13.492   2.824   9.853
70230SOL     OW12586  11.168   7.374  13.085
70230SOL    HW112587  11.242   7.428  13.056
70230SOL    HW212588  11.092   7.411  13.041
70231SOL     OW12589  10.912   6.336   7.461
70231SOL    HW112590  10.826   6.306   7.430
70231SOL    HW212591  10.929   6.284   7.540
70232SOL     OW12592   5.713   4.264   5.356
70232SOL    HW112593   5.669   4.248   5.272
70232SOL    HW212594   5.739   4.178   5.387
70233SOL     OW12595  12.296   1.228   1.648
70233SOL    HW112596  12.329   1.144   1.678
70233SOL    HW212597  12.375   1.274   1.616
70234SOL     OW12598   9.243   1.351   3.304
70234SOL    HW112599   9.189   1.280   3.339
70234SOL    HW212600   9.315   1.360   3.366
70235SOL     OW12601  11.659   7.841  10.256
70235SOL    HW112602  11.598   7.883  10.316
70235SOL    HW212603  11.681   7.910  10.193
70236SOL     OW12604  10.388   1.297  14.066
70236SOL    HW112605  10.453   1.366  14.050
70236SOL    HW212606  10.430   1.238  14.128
70237SOL     OW12607  14.661   4.297  10.474
70237SOL    HW112608  14.704   4.246  10.543
70237SOL    HW212609  14.730   4.353  10.439
70238SOL     OW12610   3.169  10.684   3.745
70238SOL    HW112611   3.195  10.615   3.806
70238SOL    HW212612   3.076  10.697   3.761
70239SOL     OW12613   4.268  12.437   7.177
70239SOL    HW112614   4.249  12.392   7.259
70239SOL    HW212615   4.322  12.376   7.127
70240SOL     OW12616   5.702  12.276  10.316
70240SOL    HW112617   5.711  12.277  10.411
70240SOL    HW212618   5.790  12.262  10.283
70241SOL     OW12619   6.911   5.080   5.243
70241SOL    HW112620   6.988   5.137   5.238
70241SOL    HW212621   6.900   5.063   5.337
70242SOL     OW12622  12.325   6.953   6.050
70242SOL    HW112623  12.316   6.957   5.955
70242SOL    HW212624  12.258   6.891   6.078
70243SOL     OW12625   9.557   2.786   0.321
70243SOL    HW112626   9.642   2.748   0.302
70243SOL    HW212627   9.577   2.864   0.374
70244SOL     OW12628   7.844   6.542   9.093
70244SOL    HW112629   7.775   6.569   9.153
70244SOL    HW212630   7.871   6.456   9.124
70245SOL     OW12631   9.773   7.762   0.761
70245SOL    HW112632   9.824   7.692   0.720
70245SOL    HW212633   9.698   7.775   0.703
70246SOL     OW12634   6.234   0.971   9.573
70246SOL    HW112635   6.168   0.978   9.642
70246SOL    HW212636   6.192   1.011   9.497
70247SOL     OW12637   5.466   9.293   3.340
70247SOL    HW112638   5.531   9.334   3.396
70247SOL    HW212639   5.517   9.249   3.272
70248SOL     OW12640   7.404  13.154  12.668
70248SOL    HW112641   7.343  13.086  12.696
70248SOL    HW212642   7.429  13.129  12.579
70249SOL     OW12643   2.043   1.382  11.878
70249SOL    HW112644   2.030   1.430  11.960
70249SOL    HW212645   2.045   1.290  11.904
70250SOL     OW12646   5.783  12.201  14.487
70250SOL    HW112647   5.768  12.282  14.536
70250SOL    HW212648   5.711  12.143  14.514
70251SOL     OW12649   3.849   9.720   5.744
70251SOL    HW112650   3.909   9.686   5.810
70251SOL    HW212651   3.772   9.748   5.794
70252SOL     OW12652   1.460   7.471   7.244
70252SOL    HW112653   1.382   7.456   7.298
70252SOL    HW212654   1.525   7.409   7.277
70253SOL     OW12655   8.359  13.826   8.882
70253SOL    HW112656   8.390  13.882   8.811
70253SOL    HW212657   8.276  13.865   8.908
70254SOL     OW12658   9.256  12.113   0.534
70254SOL    HW112659   9.320  12.072   0.592
70254SOL    HW212660   9.174  12.109   0.582
70255SOL     OW12661   8.502   3.184   1.432
70255SOL    HW112662   8.503   3.163   1.338
70255SOL    HW212663   8.446   3.116   1.471
70256SOL     OW12664   1.197   7.539   2.284
70256SOL    HW112665   1.231   7.504   2.366
70256SOL    HW212666   1.102   7.527   2.290
70257SOL     OW12667  11.027   8.587  12.891
70257SOL    HW112668  10.934   8.609  12.896
70257SOL    HW212669  11.071   8.671  12.882
70258SOL     OW12670  14.763   5.989   4.651
70258SOL    HW112671  14.740   6.074   4.613
70258SOL    HW212672  14.679   5.953   4.679
70259SOL     OW12673  10.732   1.844  13.954
70259SOL    HW112674  10.725   1.771  13.892
70259SOL    HW212675  10.643   1.859  13.983
70260SOL     OW12676  13.960   6.196   3.953
70260SOL    HW112677  13.991   6.108   3.976
70260SOL    HW212678  14.014   6.255   4.005
70261SOL     OW12679   5.512   2.187   9.140
70261SOL    HW112680   5.546   2.264   9.093
70261SOL    HW212681   5.576   2.118   9.122
70262SOL     OW12682   1.463   0.358  14.633
70262SOL    HW112683   1.391   0.398  14.584
70262SOL    HW212684   1.538   0.414  14.615
70263SOL     OW12685   9.486   4.468   5.139
70263SOL    HW112686   9.502   4.482   5.046
70263SOL    HW212687   9.445   4.382   5.144
70264SOL     OW12688  10.108   7.634  11.161
70264SOL    HW112689  10.179   7.601  11.217
70264SOL    HW212690  10.092   7.723  11.194
70265SOL     OW12691   4.586   6.972   7.882
70265SOL    HW112692   4.536   7.053   7.888
70265SOL    HW212693   4.637   6.969   7.962
70266SOL     OW12694  12.226  12.555  12.077
70266SOL    HW112695  12.220  12.579  12.169
70266SOL    HW212696  12.266  12.468  12.077
70267SOL     OW12697   5.844   4.928   7.965
70267SOL    HW112698   5.926   4.976   7.973
70267SOL    HW212699   5.814   4.916   8.055
70268SOL     OW12700   4.393  11.692  14.199
70268SOL    HW112701   4.388  11.775  14.247
70268SOL    HW212702   4.470  11.648  14.235
70269SOL     OW12703  10.389   2.996  14.467
70269SOL    HW112704  10.323   3.057  14.436
70269SOL    HW212705  10.441   2.974  14.390
70270SOL     OW12706   9.043   8.375   2.106
70270SOL    HW112707   9.004   8.387   2.020
70270SOL    HW212708   8.979   8.321   2.154
70271SOL     OW12709  12.655   5.516  10.483
70271SOL    HW112710  12.564   5.535  10.507
70271SOL    HW212711  12.673   5.430  10.522
70272SOL     OW12712  11.988  12.967   3.467
70272SOL    HW112713  12.076  12.995   3.491
70272SOL    HW212714  11.963  13.025   3.396
70273SOL     OW12715  14.604  12.364  10.413
70273SOL    HW112716  14.656  12.433  10.371
70273SOL    HW212717  14.616  12.287  10.357
70274SOL     OW12718   6.007   5.306   7.573
70274SOL    HW112719   5.981   5.398   7.584
70274SOL    HW212720   5.941   5.257   7.621
70275SOL     OW12721   2.021   4.661  13.990
70275SOL    HW112722   1.928   4.655  14.014
70275SOL    HW212723   2.022   4.646  13.895
70276SOL     OW12724  14.301   3.468   3.678
70276SOL    HW112725  14.334   3.387   3.716
70276SOL    HW212726  14.206   3.455   3.673
70277SOL     OW12727   1.342   5.589   6.820
70277SOL    HW112728   1.381   5.602   6.906
70277SOL    HW212729   1.413   5.606   6.758
70278SOL     OW12730  11.524   6.774   7.669
70278SOL    HW112731  11.495   6.704   7.727
70278SOL    HW212732  11.443   6.813   7.635
70279SOL     OW12733   5.099   1.610   0.562
70279SOL    HW112734   5.025   1.632   0.505
70279SOL    HW212735   5.091   1.516   0.578
70280SOL     OW12736   3.803  12.156   8.602
70280SOL    HW112737   3.796  12.070   8.560
70280SOL    HW212738   3.722  12.163   8.654
70281SOL     OW12739  14.319  12.804  12.020
70281SOL    HW112740  14.399  12.766  11.983
70281SOL    HW212741  14.253  12.793  11.953
70282SOL     OW12742  12.433   7.438   6.579
70282SOL    HW112743  12.474   7.510   6.530
70282SOL    HW212744  12.366   7.404   6.520
70283SOL     OW12745  11.503  14.638   9.472
70283SOL    HW112746  11.554  14.628   9.391
70283SOL    HW212747  11.561  14.605   9.541
70284SOL     OW12748   2.950   6.088  11.188
70284SOL    HW112749   2.989   6.003  11.207
70284SOL    HW212750   2.881   6.069  11.124
70285SOL     OW12751  12.839  10.661  10.725
70285SOL    HW112752  12.865  10.746  10.761
70285SOL    HW212753  12.855  10.599  10.797
70286SOL     OW12754   3.078   0.047   5.000
70286SOL    HW112755   3.068  14.873   5.077
70286SOL    HW212756   3.125  14.875   4.937
70287SOL     OW12757   0.024   6.760   9.459
70287SOL    HW112758   0.037   6.815   9.382
70287SOL    HW212759   0.112   6.725   9.478
70288SOL     OW12760   2.555   2.579   0.041
70288SOL    HW112761   2.615   2.507   0.024
70288SOL    HW212762   2.536   2.574   0.135
70289SOL     OW12763   2.499  11.674  10.750
70289SOL    HW112764   2.519  11.656  10.658
70289SOL    HW212765   2.533  11.598  10.797
70290SOL     OW12766  10.811  11.273   8.384
70290SOL    HW112767  10.899  11.279   8.349
70290SOL    HW212768  10.757  11.322   8.323
70291SOL     OW12769   6.231   6.053  12.841
70291SOL    HW112770   6.286   6.123  12.807
70291SOL    HW212771   6.154   6.051  12.784
70292SOL     OW12772   8.324   8.613   9.135
70292SOL    HW112773   8.282   8.577   9.057
70292SOL    HW212774   8.398   8.554   9.151
70293SOL     OW12775   6.819   5.582   3.336
70293SOL    HW112776   6.798   5.631   3.256
70293SOL    HW212777   6.898   5.533   3.313
70294SOL     OW12778  14.177   6.918   5.581
70294SOL    HW112779  14.103   6.875   5.538
70294SOL    HW212780  14.168   6.894   5.674
70295SOL     OW12781   9.556   2.581   2.359
70295SOL    HW112782   9.646   2.552   2.345
70295SOL    HW212783   9.511   2.558   2.277
70296SOL     OW12784  13.399   3.097   1.986
70296SOL    HW112785  13.401   3.185   1.948
70296SOL    HW212786  13.307   3.071   1.982
70297SOL     OW12787   6.303   8.249   9.672
70297SOL    HW112788   6.343   8.315   9.614
70297SOL    HW212789   6.342   8.166   9.644
70298SOL     OW12790  12.849  13.475   5.111
70298SOL    HW112791  12.824  13.384   5.126
70298SOL    HW212792  12.917  13.492   5.176
70299SOL     OW12793  10.724   2.251   5.762
70299SOL    HW112794  10.712   2.191   5.836
70299SOL    HW212795  10.816   2.239   5.737
70300SOL     OW12796   9.078   8.337  10.405
70300SOL    HW112797   8.986   8.358  10.395
70300SOL    HW212798   9.081   8.241  10.406
70301SOL     OW12799  11.299  12.256  12.994
70301SOL    HW112800  11.277  12.163  12.997
70301SOL    HW212801  11.224  12.298  12.953
70302SOL     OW12802  11.266   8.270   3.413
70302SOL    HW112803  11.190   8.322   3.387
70302SOL    HW212804  11.339   8.332   3.414
70303SOL     OW12805   0.199   7.343   9.717
70303SOL    HW112806   0.173   7.278   9.651
70303SOL    HW212807   0.294   7.339   9.718
70304SOL     OW12808   5.016  11.290   6.615
70304SOL    HW112809   5.109  11.284   6.591
70304SOL    HW212810   4.978  11.209   6.580
70305SOL     OW12811   1.599  14.846   8.894
70305SOL    HW112812   1.645  14.765   8.918
70305SOL    HW212813   1.558  14.875   8.975
70306SOL     OW12814  10.323  10.866  13.088
70306SOL    HW112815  10.402  10.921  13.092
70306SOL    HW212816  10.257  10.915  13.138
70307SOL     OW12817   8.058   7.869   3.548
70307SOL    HW112818   7.994   7.818   3.597
70307SOL    HW212819   8.122   7.804   3.519
70308SOL     OW12820   3.588   8.011   3.673
70308SOL    HW112821   3.518   7.979   3.731
70308SOL    HW212822   3.577   8.106   3.672
70309SOL     OW12823  13.617   2.396   0.093
70309SOL    HW112824  13.645   2.407   0.002
70309SOL    HW212825  13.530   2.356   0.086
70310SOL     OW12826  11.702   2.519   4.651
70310SOL    HW112827  11.621   2.478   4.622
70310SOL    HW212828  11.746   2.452   4.702
70311SOL     OW12829   2.666  13.244  10.270
70311SOL    HW112830   2.621  13.325  10.245
70311SOL    HW212831   2.648  13.184  10.197
70312SOL     OW12832   2.362   1.254   3.593
70312SOL    HW112833   2.307   1.194   3.644
70312SOL    HW212834   2.350   1.225   3.502
70313SOL     OW12835  12.770   1.106   4.029
70313SOL    HW112836  12.693   1.095   4.084
70313SOL    HW212837  12.844   1.093   4.088
70314SOL     OW12838  10.563   2.297   1.763
70314SOL    HW112839  10.606   2.383   1.755
70314SOL    HW212840  10.599   2.246   1.690
70315SOL     OW12841   5.189  13.808   9.319
70315SOL    HW112842   5.099  13.827   9.294
70315SOL    HW212843   5.185  13.719   9.356
70316SOL     OW12844   3.019   7.567   6.968
70316SOL    HW112845   3.112   7.591   6.969
70316SOL    HW212846   2.980   7.626   6.905
70317SOL     OW12847   3.065   4.567   0.424
70317SOL    HW112848   3.029   4.522   0.500
70317SOL    HW212849   3.107   4.499   0.372
70318SOL     OW12850   3.607   0.466  10.901
70318SOL    HW112851   3.688   0.496  10.859
70318SOL    HW212852   3.579   0.391  10.848
70319SOL     OW12853  12.350   5.863   3.956
70319SOL    HW112854  12.328   5.920   4.029
70319SOL    HW212855  12.327   5.913   3.878
70320SOL     OW12856   5.249   8.440  14.013
70320SOL    HW112857   5.262   8.489  14.094
70320SOL    HW212858   5.243   8.349  14.040
70321SOL     OW12859   6.407   3.434  12.140
70321SOL    HW112860   6.350   3.405  12.068
70321SOL    HW212861   6.479   3.480  12.096
70322SOL     OW12862   4.166   7.592   2.203
70322SOL    HW112863   4.202   7.675   2.234
70322SOL    HW212864   4.120   7.614   2.122
70323SOL     OW12865   3.049  10.292   5.304
70323SOL    HW112866   3.025  10.375   5.262
70323SOL    HW212867   2.967  10.243   5.309
70324SOL     OW12868  13.522  14.080   4.432
70324SOL    HW112869  13.572  14.007   4.470
70324SOL    HW212870  13.589  14.146   4.412
70325SOL     OW12871  12.693   3.767  13.359
70325SOL    HW112872  12.682   3.843  13.416
70325SOL    HW212873  12.740   3.704  13.413
70326SOL     OW12874  13.518   9.744   4.123
70326SOL    HW112875  13.594   9.720   4.175
70326SOL    HW212876  13.446   9.746   4.186
70327SOL     OW12877  11.005   5.767   7.925
70327SOL    HW112878  11.047   5.707   7.988
70327SOL    HW212879  11.020   5.726   7.840
70328SOL     OW12880   4.650  10.692   5.603
70328SOL    HW112881   4.658  10.609   5.555
70328SOL    HW212882   4.649  10.667   5.695
70329SOL     OW12883  13.264   6.696  12.359
70329SOL    HW112884  13.180   6.682  12.316
70329SOL    HW212885  13.314   6.616  12.343
70330SOL     OW12886   1.204   2.741   4.195
70330SOL    HW112887   1.259   2.806   4.150
70330SOL    HW212888   1.175   2.683   4.125
70331SOL     OW12889  14.310   3.305   5.121
70331SOL    HW112890  14.367   3.313   5.044
70331SOL    HW212891  14.347   3.233   5.172
70332SOL     OW12892   4.844  11.458  13.058
70332SOL    HW112893   4.838  11.539  13.109
70332SOL    HW212894   4.917  11.410  13.096
70333SOL     OW12895   4.810   8.503   2.586
70333SOL    HW112896   4.755   8.425   2.580
70333SOL    HW212897   4.867   8.499   2.510
70334SOL     OW12898  10.785   4.587   1.958
70334SOL    HW112899  10.696   4.554   1.944
70334SOL    HW212900  10.822   4.530   2.025
70335SOL     OW12901   5.170  12.511   7.692
70335SOL    HW112902   5.099  12.559   7.735
70335SOL    HW212903   5.208  12.574   7.631
70336SOL     OW12904   1.694  10.328   9.705
70336SOL    HW112905   1.662  10.306   9.793
70336SOL    HW212906   1.616  10.352   9.656
70337SOL     OW12907   8.016   6.444   4.483
70337SOL    HW112908   8.039   6.370   4.540
70337SOL    HW212909   7.968   6.403   4.411
70338SOL     OW12910   9.038   0.813  13.382
70338SOL    HW112911   9.052   0.900  13.420
70338SOL    HW212912   9.050   0.825  13.288
70339SOL     OW12913   2.954   5.081   0.879
70339SOL    HW112914   3.019   5.085   0.949
70339SOL    HW212915   2.891   5.149   0.901
70340SOL     OW12916  13.213   7.787   1.929
70340SOL    HW112917  13.255   7.735   1.997
70340SOL    HW212918  13.165   7.723   1.876
70341SOL     OW12919  11.815   9.531   1.972
70341SOL    HW112920  11.727   9.518   2.007
70341SOL    HW212921  11.866   9.562   2.047
70342SOL     OW12922   3.384  10.984   8.870
70342SOL    HW112923   3.423  10.932   8.940
70342SOL    HW212924   3.422  11.072   8.881
70343SOL     OW12925   0.971  11.088  11.121
70343SOL    HW112926   1.044  11.067  11.063
70343SOL    HW212927   0.968  11.016  11.184
70344SOL     OW12928   3.434   6.308   6.885
70344SOL    HW112929   3.446   6.402   6.896
70344SOL    HW212930   3.515   6.270   6.917
70345SOL     OW12931   4.117   7.605   8.167
70345SOL    HW112932   4.047   7.615   8.103
70345SOL    HW212933   4.175   7.680   8.151
70346SOL     OW12934  13.063   3.297   9.011
70346SOL    HW112935  13.049   3.288   8.917
70346SOL    HW212936  13.029   3.384   9.032
70347SOL     OW12937   9.806  11.528   9.944
70347SOL    HW112938   9.727  11.480   9.918
70347SOL    HW212939   9.806  11.527  10.039
70348SOL     OW12940   1.107   2.568   9.097
70348SOL    HW112941   1.187   2.515   9.102
70348SOL    HW212942   1.059   2.548   9.177
70349SOL     OW12943   9.686  13.421  11.853
70349SOL    HW112944   9.598  13.407  11.819
70349SOL    HW212945   9.728  13.335  11.847
70350SOL     OW12946   4.844  12.401  12.491
70350SOL    HW112947   4.934  12.370  12.481
70350SOL    HW212948   4.804  12.384  12.406
70351SOL     OW12949   4.723  12.436   4.199
70351SOL    HW112950   4.757  12.408   4.114
70351SOL    HW212951   4.769  12.381   4.263
70352SOL     OW12952   6.384   3.719   8.913
70352SOL    HW112953   6.415   3.772   8.987
70352SOL    HW212954   6.434   3.637   8.920
70353SOL     OW12955   5.751   1.200   3.954
70353SOL    HW112956   5.818   1.134   3.933
70353SOL    HW212957   5.762   1.217   4.047
70354SOL     OW12958  14.124  12.040   6.849
70354SOL    HW112959  14.154  11.966   6.902
70354SOL    HW212960  14.177  12.036   6.770
70355SOL     OW12961  13.375   9.471   7.961
70355SOL    HW112962  13.313   9.400   7.943
70355SOL    HW212963  13.429   9.477   7.882
70356SOL     OW12964   2.423   0.736  10.298
70356SOL    HW112965   2.490   0.783  10.348
70356SOL    HW212966   2.458   0.648  10.287
70357SOL     OW12967   3.205  13.520   7.298
70357SOL    HW112968   3.127  13.474   7.329
70357SOL    HW212969   3.204  13.604   7.345
70358SOL     OW12970   3.389   8.583   4.621
70358SOL    HW112971   3.356   8.500   4.588
70358SOL    HW212972   3.350   8.650   4.564
70359SOL     OW12973  11.816   7.228   5.400
70359SOL    HW112974  11.886   7.211   5.463
70359SOL    HW212975  11.809   7.147   5.350
70360SOL     OW12976   0.002   9.930   7.766
70360SOL    HW112977   0.095   9.949   7.752
70360SOL    HW212978   0.000   9.873   7.842
70361SOL     OW12979   3.786   7.537   4.344
70361SOL    HW112980   3.759   7.624   4.373
70361SOL    HW212981   3.851   7.554   4.276
70362SOL     OW12982   3.432   5.501   7.285
70362SOL    HW112983   3.383   5.570   7.331
70362SOL    HW212984   3.457   5.440   7.355
70363SOL     OW12985   2.596   7.373  11.654
70363SOL    HW112986   2.645   7.315  11.596
70363SOL    HW212987   2.597   7.458  11.609
70364SOL     OW12988   1.179   5.732   7.252
70364SOL    HW112989   1.139   5.817   7.237
70364SOL    HW212990   1.108   5.669   7.242
70365SOL     OW12991  12.207   2.501   3.504
70365SOL    HW112992  12.235   2.564   3.438
70365SOL    HW212993  12.156   2.552   3.566
70366SOL     OW12994  13.872   3.792   2.012
70366SOL    HW112995  13.909   3.875   2.043
70366SOL    HW212996  13.948   3.736   1.997
70367SOL     OW12997   7.149   6.305  11.637
70367SOL    HW112998   7.119   6.370  11.573
70367SOL    HW212999   7.136   6.347  11.722
70368SOL     OW13000  13.889   7.415   4.628
70368SOL    HW113001  13.982   7.430   4.645
70368SOL    HW213002  13.871   7.330   4.668
70369SOL     OW13003  10.615   7.182  13.694
70369SOL    HW113004  10.707   7.170  13.673
70369SOL    HW213005  10.610   7.168  13.789
70370SOL     OW13006   7.367  11.407   3.687
70370SOL    HW113007   7.363  11.327   3.740
70370SOL    HW213008   7.446  11.397   3.635
70371SOL     OW13009   7.264   8.244   1.414
70371SOL    HW113010   7.354   8.240   1.381
70371SOL    HW213011   7.272   8.279   1.502
70372SOL     OW13012   5.172   8.996  14.551
70372SOL    HW113013   5.165   9.044  14.634
70372SOL    HW213014   5.162   8.904  14.575
70373SOL     OW13015   2.051  12.965  14.533
70373SOL    HW113016   2.114  12.962  14.606
70373SOL    HW213017   2.044  12.874  14.505
70374SOL     OW13018   6.623  11.465  12.674
70374SOL    HW113019   6.617  11.393  12.736
70374SOL    HW213020   6.537  11.466  12.630
70375SOL     OW13021   6.360   5.161   9.373
70375SOL    HW113022   6.342   5.254   9.384
70375SOL    HW213023   6.346   5.145   9.279
70376SOL     OW13024  11.566   5.452   1.165
70376SOL    HW113025  11.593   5.423   1.252
70376SOL    HW213026  11.645   5.450   1.112
70377SOL     OW13027   6.940   6.072  14.571
70377SOL    HW113028   7.004   6.037  14.632
70377SOL    HW213029   6.928   6.163  14.598
70378SOL     OW13030   7.279  12.934  12.784
70378SOL    HW113031   7.332  12.859  12.758
70378SOL    HW213032   7.194  12.919  12.743
70379SOL     OW13033  11.130   4.298   7.711
70379SOL    HW113034  11.047   4.343   7.695
70379SOL    HW213035  11.147   4.250   7.630
70380SOL     OW13036  10.661   3.118   4.227
70380SOL    HW113037  10.721   3.096   4.298
70380SOL    HW213038  10.717   3.153   4.157
70381SOL     OW13039  13.892  13.245   0.069
70381SOL    HW113040  13.961  13.215   0.009
70381SOL    HW213041  13.923  13.330   0.100
70382SOL     OW13042  10.074   0.614   0.327
70382SOL    HW113043  10.002   0.671   0.353
70382SOL    HW213044  10.149   0.645   0.378
70383SOL     OW13045   3.351   5.923  12.833
70383SOL    HW113046   3.326   5.994  12.892
70383SOL    HW213047   3.318   5.844  12.875
70384SOL     OW13048   6.659  10.064   8.576
70384SOL    HW113049   6.587  10.104   8.528
70384SOL    HW213050   6.662   9.974   8.545
70385SOL     OW13051   8.756   8.347   3.132
70385SOL    HW113052   8.851   8.337   3.125
70385SOL    HW213053   8.723   8.329   3.044
70386SOL     OW13054   1.847   6.272   8.310
70386SOL    HW113055   1.779   6.338   8.297
70386SOL    HW213056   1.925   6.309   8.268
70387SOL     OW13057  13.882   8.759   9.643
70387SOL    HW113058  13.860   8.841   9.599
70387SOL    HW213059  13.831   8.761   9.724
70388SOL     OW13060   0.020   9.942   6.961
70388SOL    HW113061  14.847   9.884   7.012
70388SOL    HW213062  14.877  10.030   6.988
70389SOL     OW13063   7.656   5.575   1.686
70389SOL    HW113064   7.750   5.558   1.679
70389SOL    HW213065   7.650   5.668   1.709
70390SOL     OW13066   8.206  11.881   0.568
70390SOL    HW113067   8.271  11.814   0.591
70390SOL    HW213068   8.192  11.929   0.650
70391SOL     OW13069   3.328   3.481   5.870
70391SOL    HW113070   3.340   3.485   5.965
70391SOL    HW213071   3.249   3.429   5.858
70392SOL     OW13072   7.536   2.710  11.588
70392SOL    HW113073   7.520   2.658  11.509
70392SOL    HW213074   7.518   2.800  11.561
70393SOL     OW13075   3.733  13.187  13.095
70393SOL    HW113076   3.767  13.228  13.015
70393SOL    HW213077   3.655  13.238  13.117
70394SOL     OW13078   2.634   8.827   1.608
70394SOL    HW113079   2.718   8.872   1.597
70394SOL    HW213080   2.648   8.766   1.680
70395SOL     OW13081  11.030   4.773   3.372
70395SOL    HW113082  11.018   4.698   3.314
70395SOL    HW213083  11.065   4.735   3.453
70396SOL     OW13084   2.188   3.825   2.334
70396SOL    HW113085   2.097   3.850   2.317
70396SOL    HW213086   2.188   3.730   2.326
70397SOL     OW13087  11.237   3.232   9.441
70397SOL    HW113088  11.237   3.327   9.435
70397SOL    HW213089  11.327   3.206   9.423
70398SOL     OW13090  12.746   1.014   5.689
70398SOL    HW113091  12.768   1.067   5.765
70398SOL    HW213092  12.830   0.981   5.657
70399SOL     OW13093  13.025   4.050   7.590
70399SOL    HW113094  12.940   4.072   7.629
70399SOL    HW213095  13.084   4.040   7.665
70400SOL     OW13096   3.043   6.940  14.056
70400SOL    HW113097   3.025   7.030  14.027
70400SOL    HW213098   3.126   6.946  14.103
70401SOL     OW13099   5.273  13.787   6.237
70401SOL    HW113100   5.266  13.859   6.175
70401SOL    HW213101   5.345  13.811   6.294
70402SOL     OW13102  10.069   2.189   6.834
70402SOL    HW113103   9.980   2.217   6.858
70402SOL    HW213104  10.060   2.155   6.745
70403SOL     OW13105   8.133  11.912   3.156
70403SOL    HW113106   8.075  11.855   3.105
70403SOL    HW213107   8.212  11.860   3.169
70404SOL     OW13108  13.493   4.447   7.551
70404SOL    HW113109  13.528   4.453   7.462
70404SOL    HW213110  13.401   4.472   7.542
70405SOL     OW13111  13.490   1.922  14.193
70405SOL    HW113112  13.442   2.005  14.192
70405SOL    HW213113  13.582   1.948  14.198
70406SOL     OW13114   4.248   8.572   3.893
70406SOL    HW113115   4.163   8.528   3.899
70406SOL    HW213116   4.292   8.529   3.819
70407SOL     OW13117   7.994  14.361   3.389
70407SOL    HW113118   8.076  14.320   3.418
70407SOL    HW213119   7.929  14.292   3.397
70408SOL     OW13120  14.838  13.929   4.295
70408SOL    HW113121   0.026  13.961   4.239
70408SOL    HW213122  14.758  13.939   4.243
70409SOL     OW13123   5.372   4.492   5.533
70409SOL    HW113124   5.441   4.500   5.598
70409SOL    HW213125   5.292   4.522   5.577
70410SOL     OW13126  12.796   4.827   6.041
70410SOL    HW113127  12.771   4.735   6.043
70410SOL    HW213128  12.734   4.871   6.099
70411SOL     OW13129   5.422   6.763   9.928
70411SOL    HW113130   5.437   6.841   9.873
70411SOL    HW213131   5.331   6.740   9.913
70412SOL     OW13132   2.160  14.209  11.918
70412SOL    HW113133   2.192  14.232  11.831
70412SOL    HW213134   2.239  14.211  11.973
70413SOL     OW13135   2.941   4.503   4.845
70413SOL    HW113136   2.992   4.433   4.805
70413SOL    HW213137   3.005   4.555   4.893
70414SOL     OW13138   2.579   1.127  11.431
70414SOL    HW113139   2.508   1.068  11.457
70414SOL    HW213140   2.561   1.209  11.477
70415SOL     OW13141   9.547   2.977  11.395
70415SOL    HW113142   9.534   2.902  11.452
70415SOL    HW213143   9.615   2.950  11.333
70416SOL     OW13144   5.304   5.890   3.549
70416SOL    HW113145   5.293   5.932   3.635
70416SOL    HW213146   5.328   5.962   3.491
70417SOL     OW13147   8.756  11.962   8.746
70417SOL    HW113148   8.773  11.867   8.745
70417SOL    HW213149   8.833  11.998   8.791
70418SOL     OW13150   9.039  14.463   2.886
70418SOL    HW113151   9.020  14.553   2.911
70418SOL    HW213152   8.958  14.431   2.846
70419SOL     OW13153   5.399  12.369  12.279
70419SOL    HW113154   5.335  12.439  12.267
70419SOL    HW213155   5.461  12.380  12.207
70420SOL     OW13156   2.919   8.382   4.566
70420SOL    HW113157   2.984   8.323   4.606
70420SOL    HW213158   2.835   8.340   4.584
70421SOL     OW13159  11.554   1.347   1.317
70421SOL    HW113160  11.542   1.433   1.357
70421SOL    HW213161  11.562   1.286   1.391
70422SOL     OW13162   8.837   9.592   2.068
70422SOL    HW113163   8.919   9.558   2.103
70422SOL    HW213164   8.791   9.516   2.033
70423SOL     OW13165   5.302   0.005   3.425
70423SOL    HW113166   5.317   0.002   3.520
70423SOL    HW213167   5.298  14.795   3.399
70424SOL     OW13168   9.949   7.093   0.436
70424SOL    HW113169  10.039   7.060   0.435
70424SOL    HW213170   9.896   7.015   0.421
70425SOL     OW13171   5.165   6.273   4.221
70425SOL    HW113172   5.097   6.207   4.208
70425SOL    HW213173   5.142   6.344   4.162
70426SOL     OW13174   4.062   4.877   4.902
70426SOL    HW113175   3.985   4.906   4.853
70426SOL    HW213176   4.069   4.783   4.882
70427SOL     OW13177  13.049  11.836  13.627
70427SOL    HW113178  13.135  11.819  13.591
70427SOL    HW213179  13.041  11.776  13.701
70428SOL     OW13180   3.320   7.643   1.107
70428SOL    HW113181   3.262   7.680   1.174
70428SOL    HW213182   3.398   7.616   1.155
70429SOL     OW13183   8.891   1.952  11.839
70429SOL    HW113184   8.918   2.036  11.876
70429SOL    HW213185   8.856   1.903  11.913
70430SOL     OW13186   7.770   4.447   3.314
70430SOL    HW113187   7.732   4.534   3.327
70430SOL    HW213188   7.694   4.388   3.312
70431SOL     OW13189   5.793   6.227   4.676
70431SOL    HW113190   5.839   6.148   4.647
70431SOL    HW213191   5.747   6.200   4.755
70432SOL     OW13192   5.807   4.421   8.092
70432SOL    HW113193   5.885   4.390   8.044
70432SOL    HW213194   5.840   4.489   8.150
70433SOL     OW13195   0.047  10.707   9.162
70433SOL    HW113196   0.068  10.621   9.200
70433SOL    HW213197  14.880  10.752   9.231
70434SOL     OW13198   1.790  10.399   7.851
70434SOL    HW113199   1.784  10.484   7.808
70434SOL    HW213200   1.758  10.415   7.940
70435SOL     OW13201  14.575   1.813   2.452
70435SOL    HW113202  14.620   1.859   2.381
70435SOL    HW213203  14.588   1.869   2.528
70436SOL     OW13204   2.259   2.452  14.725
70436SOL    HW113205   2.297   2.537  14.746
70436SOL    HW213206   2.328   2.389  14.748
70437SOL     OW13207   0.791   1.263   3.402
70437SOL    HW113208   0.749   1.219   3.329
70437SOL    HW213209   0.729   1.255   3.475
70438SOL     OW13210  14.678  11.949   5.543
70438SOL    HW113211  14.711  11.873   5.496
70438SOL    HW213212  14.651  11.915   5.629
70439SOL     OW13213   2.145   2.560  12.020
70439SOL    HW113214   2.056   2.545  11.989
70439SOL    HW213215   2.196   2.577  11.941
70440SOL     OW13216   9.276   5.661   3.506
70440SOL    HW113217   9.206   5.607   3.541
70440SOL    HW213218   9.296   5.623   3.421
70441SOL     OW13219   2.782  12.289  11.423
70441SOL    HW113220   2.719  12.246  11.481
70441SOL    HW213221   2.837  12.218  11.389
70442SOL     OW13222   7.214  13.899   3.735
70442SOL    HW113223   7.273  13.924   3.806
70442SOL    HW213224   7.187  13.983   3.696
70443SOL     OW13225   9.907  13.053   5.855
70443SOL    HW113226   9.902  12.967   5.813
70443SOL    HW213227   9.832  13.055   5.915
70444SOL     OW13228   3.007  13.730   7.010
70444SOL    HW113229   3.084  13.677   6.990
70444SOL    HW213230   3.034  13.782   7.086
70445SOL     OW13231   9.314   2.709   8.799
70445SOL    HW113232   9.383   2.771   8.822
70445SOL    HW213233   9.241   2.732   8.857
70446SOL     OW13234   6.853  14.808   0.332
70446SOL    HW113235   6.934  14.824   0.381
70446SOL    HW213236   6.877  14.746   0.264
70447SOL     OW13237  12.683   7.562  14.794
70447SOL    HW113238  12.689   7.477  14.752
70447SOL    HW213239  12.756   7.612  14.758
70448SOL     OW13240   4.757   3.828   9.917
70448SOL    HW113241   4.732   3.783   9.837
70448SOL    HW213242   4.782   3.916   9.889
70449SOL     OW13243   0.300   8.004   4.461
70449SOL    HW113244   0.291   7.910   4.451
70449SOL    HW213245   0.211   8.038   4.449
70450SOL     OW13246  11.040  13.184   1.908
70450SOL    HW113247  10.974  13.187   1.978
70450SOL    HW213248  11.124  13.191   1.953
70451SOL     OW13249   1.272   5.450   5.368
70451SOL    HW113250   1.297   5.541   5.353
70451SOL    HW213251   1.274   5.440   5.463
70452SOL     OW13252  13.275   1.184  14.288
70452SOL    HW113253  13.340   1.212  14.223
70452SOL    HW213254  13.327   1.167  14.367
70453SOL     OW13255   5.083   2.695  14.095
70453SOL    HW113256   5.077   2.646  14.013
70453SOL    HW213257   5.173   2.682  14.124
70454SOL     OW13258   3.256   8.934   7.464
70454SOL    HW113259   3.293   8.848   7.448
70454SOL    HW213260   3.285   8.987   7.390
70455SOL     OW13261   6.031   7.246   3.262
70455SOL    HW113262   6.030   7.208   3.350
70455SOL    HW213263   6.107   7.206   3.219
70456SOL     OW13264   6.889   7.494  14.834
70456SOL    HW113265   6.887   7.587  14.858
70456SOL    HW213266   6.798   7.466  14.840
70457SOL     OW13267  11.235   7.477   1.135
70457SOL    HW113268  11.211   7.401   1.188
70457SOL    HW213269  11.297   7.526   1.188
70458SOL     OW13270   6.590  10.585  11.713
70458SOL    HW113271   6.528  10.600  11.642
70458SOL    HW213272   6.667  10.548  11.670
70459SOL     OW13273  11.379  11.255  10.688
70459SOL    HW113274  11.410  11.166  10.706
70459SOL    HW213275  11.442  11.290  10.626
70460SOL     OW13276  14.877   5.725   8.307
70460SOL    HW113277  14.837   5.812   8.316
70460SOL    HW213278   0.016   5.718   8.214
70461SOL     OW13279   9.685   1.886   3.175
70461SOL    HW113280   9.650   1.975   3.176
70461SOL    HW213281   9.609   1.830   3.157
70462SOL     OW13282   7.610   3.086  12.888
70462SOL    HW113283   7.527   3.054  12.852
70462SOL    HW213284   7.673   3.074  12.816
70463SOL     OW13285   0.864   5.394   2.069
70463SOL    HW113286   0.786   5.339   2.071
70463SOL    HW213287   0.831   5.480   2.043
70464SOL     OW13288   8.400   0.752   0.034
70464SOL    HW113289   8.351   0.701   0.098
70464SOL    HW213290   8.472   0.791   0.084
70465SOL     OW13291   8.083   2.972   4.523
70465SOL    HW113292   8.034   2.893   4.504
70465SOL    HW213293   8.116   3.002   4.438
70466SOL     OW13294   1.928   9.930   4.452
70466SOL    HW113295   1.965   9.993   4.513
70466SOL    HW213296   1.995   9.862   4.444
70467SOL     OW13297   2.318   1.354  12.585
70467SOL    HW113298   2.285   1.277  12.538
70467SOL    HW213299   2.258   1.424  12.560
70468SOL     OW13300   5.381   6.764   2.554
70468SOL    HW113301   5.424   6.757   2.639
70468SOL    HW213302   5.326   6.841   2.561
70469SOL     OW13303  13.275  10.301   9.708
70469SOL    HW113304  13.201  10.259   9.752
70469SOL    HW213305  13.295  10.243   9.634
70470SOL     OW13306   8.202   6.088   5.729
70470SOL    HW113307   8.206   6.093   5.633
70470SOL    HW213308   8.251   6.165   5.759
70471SOL     OW13309  14.370  12.781   0.227
70471SOL    HW113310  14.376  12.807   0.135
70471SOL    HW213311  14.414  12.852   0.274
70472SOL     OW13312   5.304   0.072   0.683
70472SOL    HW113313   5.360   0.101   0.611
70472SOL    HW213314   5.256  14.880   0.647
70473SOL     OW13315   0.600  10.507   6.461
70473SOL    HW113316   0.526  10.567   6.462
70473SOL    HW213317   0.677  10.564   6.463
70474SOL     OW13318   8.437   3.719   1.018
70474SOL    HW113319   8.433   3.802   0.971
70474SOL    HW213320   8.345   3.698   1.037
70475SOL     OW13321   7.012   9.279   5.402
70475SOL    HW113322   6.965   9.266   5.485
70475SOL    HW213323   7.029   9.373   5.400
70476SOL     OW13324   2.237   2.436   4.588
70476SOL    HW113325   2.175   2.383   4.638
70476SOL    HW213326   2.233   2.402   4.499
70477SOL     OW13327  10.673   2.715   2.898
70477SOL    HW113328  10.583   2.731   2.927
70477SOL    HW213329  10.675   2.621   2.877
70478SOL     OW13330  10.509   1.773  13.065
70478SOL    HW113331  10.434   1.716  13.046
70478SOL    HW213332  10.527   1.817  12.981
70479SOL     OW13333   1.970   9.300  13.752
70479SOL    HW113334   2.031   9.243  13.799
70479SOL    HW213335   1.924   9.348  13.822
70480SOL     OW13336  14.861  12.918   3.520
70480SOL    HW113337  14.840  12.914   3.614
70480SOL    HW213338   0.074  12.909   3.517
70481SOL     OW13339   0.774  13.198   3.925
70481SOL    HW113340   0.799  13.266   3.862
70481SOL    HW213341   0.852  13.144   3.934
70482SOL     OW13342   8.619  13.557   0.453
70482SOL    HW113343   8.641  13.622   0.518
70482SOL    HW213344   8.631  13.473   0.497
70483SOL     OW13345  10.216   4.209   2.995
70483SOL    HW113346  10.149   4.151   3.030
70483SOL    HW213347  10.209   4.288   3.048
70484SOL     OW13348  13.468  10.385   6.469
70484SOL    HW113349  13.457  10.479   6.481
70484SOL    HW213350  13.525  10.358   6.541
70485SOL     OW13351   1.064   9.405   9.813
70485SOL    HW113352   1.055   9.497   9.836
70485SOL    HW213353   0.981   9.365   9.841
70486SOL     OW13354   1.382   2.387   0.785
70486SOL    HW113355   1.339   2.345   0.711
70486SOL    HW213356   1.383   2.320   0.853
70487SOL     OW13357   1.813   3.211   6.900
70487SOL    HW113358   1.827   3.217   6.994
70487SOL    HW213359   1.722   3.238   6.888
70488SOL     OW13360   3.350   3.895  11.945
70488SOL    HW113361   3.387   3.809  11.923
70488SOL    HW213362   3.265   3.896  11.900
70489SOL     OW13363   3.927   4.875  11.607
70489SOL    HW113364   3.971   4.790  11.596
70489SOL    HW213365   3.837   4.860  11.579
70490SOL     OW13366   1.767  12.853  10.326
70490SOL    HW113367   1.792  12.766  10.293
70490SOL    HW213368   1.815  12.914  10.271
70491SOL     OW13369  10.249   1.666   1.180
70491SOL    HW113370  10.275   1.695   1.093
70491SOL    HW213371  10.321   1.609   1.209
70492SOL     OW13372   1.537   7.221   9.264
70492SOL    HW113373   1.511   7.167   9.338
70492SOL    HW213374   1.457   7.233   9.212
70493SOL     OW13375  14.259  13.292  11.693
70493SOL    HW113376  14.328  13.268  11.755
70493SOL    HW213377  14.266  13.229  11.622
70494SOL     OW13378   1.406  14.545  14.146
70494SOL    HW113379   1.375  14.598  14.072
70494SOL    HW213380   1.344  14.562  14.216
70495SOL     OW13381   4.201   9.779   6.341
70495SOL    HW113382   4.279   9.793   6.396
70495SOL    HW213383   4.136   9.840   6.377
70496SOL     OW13384   4.742  10.701   2.407
70496SOL    HW113385   4.799  10.673   2.335
70496SOL    HW213386   4.660  10.725   2.365
70497SOL     OW13387  10.183   9.257   1.830
70497SOL    HW113388  10.140   9.193   1.886
70497SOL    HW213389  10.242   9.206   1.775
70498SOL     OW13390  11.369   9.857   8.790
70498SOL    HW113391  11.366   9.878   8.697
70498SOL    HW213392  11.317   9.776   8.798
70499SOL     OW13393   6.341   9.110   6.513
70499SOL    HW113394   6.289   9.037   6.478
70499SOL    HW213395   6.292   9.188   6.487
70500SOL     OW13396   1.623   9.318  11.705
70500SOL    HW113397   1.705   9.305  11.752
70500SOL    HW213398   1.582   9.231  11.704
70501SOL     OW13399   4.280   6.873   1.688
70501SOL    HW113400   4.338   6.924   1.632
70501SOL    HW213401   4.337   6.812   1.734
70502SOL     OW13402  14.323  10.041   9.085
70502SOL    HW113403  14.361   9.964   9.126
70502SOL    HW213404  14.229  10.022   9.080
70503SOL     OW13405   4.052   3.490  12.818
70503SOL    HW113406   4.026   3.526  12.903
70503SOL    HW213407   4.009   3.404  12.814
70504SOL     OW13408  10.368   8.817  13.628
70504SOL    HW113409  10.290   8.773  13.662
70504SOL    HW213410  10.436   8.749  13.630
70505SOL     OW13411   7.444   1.778   6.994
70505SOL    HW113412   7.502   1.849   7.023
70505SOL    HW213413   7.452   1.777   6.899
70506SOL     OW13414   9.246  14.299  11.595
70506SOL    HW113415   9.185  14.364  11.630
70506SOL    HW213416   9.330  14.319  11.638
70507SOL     OW13417   6.847   7.241  11.525
70507SOL    HW113418   6.886   7.284  11.448
70507SOL    HW213419   6.771   7.194  11.491
70508SOL     OW13420   0.865  14.286   8.886
70508SOL    HW113421   0.949  14.313   8.850
70508SOL    HW213422   0.885  14.209   8.940
70509SOL     OW13423   2.773   1.257  13.889
70509SOL    HW113424   2.800   1.349  13.882
70509SOL    HW213425   2.855   1.208  13.888
70510SOL     OW13426   5.209  10.726  11.585
70510SOL    HW113427   5.151  10.758  11.654
70510SOL    HW213428   5.282  10.788  11.583
70511SOL     OW13429   3.387   7.059   9.674
70511SOL    HW113430   3.447   7.131   9.694
70511SOL    HW213431   3.337   7.046   9.755
70512SOL     OW13432  14.168  14.122   1.378
70512SOL    HW113433  14.105  14.077   1.434
70512SOL    HW213434  14.247  14.130   1.432
70513SOL     OW13435   8.334  13.401   5.631
70513SOL    HW113436   8.271  13.371   5.566
70513SOL    HW213437   8.335  13.496   5.621
70514SOL     OW13438  13.978   7.619  11.701
70514SOL    HW113439  13.980   7.712  11.677
70514SOL    HW213440  13.919   7.579  11.638
70515SOL     OW13441   4.399  12.671   0.044
70515SOL    HW113442   4.444  12.756   0.054
70515SOL    HW213443   4.469  12.609   0.026
70516SOL     OW13444   0.973   2.296   0.463
70516SOL    HW113445   0.986   2.375   0.412
70516SOL    HW213446   0.939   2.232   0.400
70517SOL     OW13447  10.854  13.618   1.331
70517SOL    HW113448  10.797  13.633   1.405
70517SOL    HW213449  10.830  13.684   1.267
70518SOL     OW13450  11.124   0.057  10.435
70518SOL    HW113451  11.172   0.136  10.413
70518SOL    HW213452  11.190  14.878  10.466
70519SOL     OW13453   0.575  13.889   9.604
70519SOL    HW113454   0.605  13.876   9.694
70519SOL    HW213455   0.592  13.805   9.561
70520SOL     OW13456   9.681  10.956   3.042
70520SOL    HW113457   9.634  10.915   3.115
70520SOL    HW213458   9.752  10.896   3.022
70521SOL     OW13459   0.782  14.791   0.470
70521SOL    HW113460   0.798  14.720   0.534
70521SOL    HW213461   0.813  14.870   0.515
70522SOL     OW13462   4.170   4.347   5.489
70522SOL    HW113463   4.262   4.357   5.513
70522SOL    HW213464   4.122   4.374   5.567
70523SOL     OW13465   0.301   2.717   1.471
70523SOL    HW113466   0.382   2.686   1.512
70523SOL    HW213467   0.330   2.778   1.404
70524SOL     OW13468   6.136  12.552   8.860
70524SOL    HW113469   6.164  12.639   8.891
70524SOL    HW213470   6.217  12.511   8.829
70525SOL     OW13471   6.132  14.263   4.975
70525SOL    HW113472   6.218  14.300   4.956
70525SOL    HW213473   6.107  14.217   4.895
70526SOL     OW13474  11.208  11.719   3.559
70526SOL    HW113475  11.216  11.626   3.534
70526SOL    HW213476  11.250  11.766   3.487
70527SOL     OW13477   1.111   5.150   2.422
70527SOL    HW113478   1.019   5.177   2.416
70527SOL    HW213479   1.161   5.226   2.394
70528SOL     OW13480   7.371   5.743   1.821
70528SOL    HW113481   7.284   5.772   1.848
70528SOL    HW213482   7.412   5.821   1.785
70529SOL     OW13483  13.163   9.170   4.680
70529SOL    HW113484  13.258   9.168   4.666
70529SOL    HW213485  13.127   9.130   4.601
70530SOL     OW13486   5.371   9.600   5.649
70530SOL    HW113487   5.411   9.564   5.570
70530SOL    HW213488   5.280   9.619   5.624
70531SOL     OW13489  12.351   5.378  11.605
70531SOL    HW113490  12.436   5.354  11.641
70531SOL    HW213491  12.290   5.314  11.642
70532SOL     OW13492   5.831   6.117   6.159
70532SOL    HW113493   5.749   6.141   6.116
70532SOL    HW213494   5.884   6.079   6.089
70533SOL     OW13495   0.172  10.481   4.761
70533SOL    HW113496   0.079  10.496   4.743
70533SOL    HW213497   0.177  10.475   4.856
70534SOL     OW13498   9.437   2.137   5.249
70534SOL    HW113499   9.473   2.180   5.172
70534SOL    HW213500   9.432   2.206   5.315
70535SOL     OW13501   6.299   4.524   3.870
70535SOL    HW113502   6.347   4.578   3.808
70535SOL    HW213503   6.367   4.479   3.921
70536SOL     OW13504   9.278   3.010   3.976
70536SOL    HW113505   9.256   3.102   3.961
70536SOL    HW213506   9.196   2.969   4.002
70537SOL     OW13507   2.576   6.546   2.857
70537SOL    HW113508   2.502   6.549   2.918
70537SOL    HW213509   2.556   6.612   2.792
70538SOL     OW13510  10.888  10.873  12.944
70538SOL    HW113511  10.868  10.941  12.880
70538SOL    HW213512  10.978  10.891  12.972
70539SOL     OW13513   7.001   2.219   2.566
70539SOL    HW113514   7.000   2.303   2.611
70539SOL    HW213515   7.008   2.242   2.473
70540SOL     OW13516   5.469  12.752   0.054
70540SOL    HW113517   5.546  12.696   0.049
70540SOL    HW213518   5.492  12.829   0.003
70541SOL     OW13519   1.307   1.178   6.941
70541SOL    HW113520   1.246   1.240   6.900
70541SOL    HW213521   1.251   1.106   6.969
70542SOL     OW13522   5.399  12.439  13.271
70542SOL    HW113523   5.464  12.370  13.261
70542SOL    HW213524   5.372  12.460  13.182
70543SOL     OW13525   7.573   0.511   3.216
70543SOL    HW113526   7.616   0.492   3.299
70543SOL    HW213527   7.616   0.452   3.153
70544SOL     OW13528   8.062  13.991   1.134
70544SOL    HW113529   8.031  14.079   1.113
70544SOL    HW213530   8.091  13.998   1.225
70545SOL     OW13531   6.119   5.944   2.280
70545SOL    HW113532   6.114   5.906   2.367
70545SOL    HW213533   6.185   5.892   2.235
70546SOL     OW13534   8.094   0.686   8.615
70546SOL    HW113535   8.172   0.632   8.625
70546SOL    HW213536   8.045   0.671   8.696
70547SOL     OW13537   5.517   9.498   5.873
70547SOL    HW113538   5.435   9.482   5.919
70547SOL    HW213539   5.490   9.532   5.787
70548SOL     OW13540  12.607   6.160  14.557
70548SOL    HW113541  12.513   6.176  14.564
70548SOL    HW213542  12.624   6.156  14.463
70549SOL     OW13543   4.991   2.950   9.964
70549SOL    HW113544   5.079   2.975   9.934
70549SOL    HW213545   5.008   2.890  10.037
70550SOL     OW13546   7.875  11.641   1.215
70550SOL    HW113547   7.967  11.664   1.209
70550SOL    HW213548   7.856  11.641   1.309
70551SOL     OW13549  10.342   2.283  10.844
70551SOL    HW113550  10.302   2.370  10.836
70551SOL    HW213551  10.274   2.229  10.882
70552SOL     OW13552   3.929  11.979   7.793
70552SOL    HW113553   3.937  11.937   7.879
70552SOL    HW213554   3.847  11.944   7.757
70553SOL     OW13555   7.766  13.451   7.653
70553SOL    HW113556   7.792  13.543   7.662
70553SOL    HW213557   7.830  13.414   7.591
70554SOL     OW13558  14.022   7.091  11.382
70554SOL    HW113559  14.050   7.072  11.293
70554SOL    HW213560  14.093   7.144  11.419
70555SOL     OW13561  13.724  12.889  12.929
70555SOL    HW113562  13.641  12.935  12.939
70555SOL    HW213563  13.734  12.878  12.834
70556SOL     OW13564   7.056   6.715   2.774
70556SOL    HW113565   7.141   6.759   2.768
70556SOL    HW213566   7.012   6.758   2.848
70557SOL     OW13567   0.466   8.172   0.630
70557SOL    HW113568   0.548   8.163   0.582
70557SOL    HW213569   0.414   8.234   0.579
70558SOL     OW13570   2.127   5.213  14.108
70558SOL    HW113571   2.045   5.164  14.105
70558SOL    HW213572   2.189   5.160  14.057
70559SOL     OW13573   5.286   0.701  14.155
70559SOL    HW113574   5.376   0.691  14.123
70559SOL    HW213575   5.277   0.795  14.171
70560SOL     OW13576   3.629   7.628   5.507
70560SOL    HW113577   3.715   7.625   5.550
70560SOL    HW213578   3.620   7.543   5.465
70561SOL     OW13579   2.504   2.870   9.352
70561SOL    HW113580   2.438   2.937   9.367
70561SOL    HW213581   2.586   2.918   9.338
70562SOL     OW13582   7.623   0.506   4.914
70562SOL    HW113583   7.664   0.591   4.928
70562SOL    HW213584   7.658   0.476   4.830
70563SOL     OW13585   3.138  12.017  12.015
70563SOL    HW113586   3.143  12.111  12.033
70563SOL    HW213587   3.213  11.979  12.060
70564SOL     OW13588   4.631  11.636  14.324
70564SOL    HW113589   4.609  11.628  14.417
70564SOL    HW213590   4.726  11.648  14.323
70565SOL     OW13591   8.286   9.519   9.966
70565SOL    HW113592   8.334   9.442   9.998
70565SOL    HW213593   8.197   9.488   9.950
70566SOL     OW13594  11.528   9.060   3.989
70566SOL    HW113595  11.442   9.096   3.966
70566SOL    HW213596  11.526   9.053   4.084
70567SOL     OW13597   5.072  11.211  11.707
70567SOL    HW113598   4.990  11.244  11.744
70567SOL    HW213599   5.053  11.200  11.614
70568SOL     OW13600   9.989   5.589   5.767
70568SOL    HW113601  10.003   5.495   5.778
70568SOL    HW213602  10.033   5.611   5.685
70569SOL     OW13603   2.603   6.248   9.921
70569SOL    HW113604   2.586   6.308   9.993
70569SOL    HW213605   2.560   6.289   9.845
70570SOL     OW13606   9.740   4.982   5.796
70570SOL    HW113607   9.654   4.996   5.757
70570SOL    HW213608   9.791   4.939   5.727
70571SOL     OW13609   5.414   5.891  13.133
70571SOL    HW113610   5.387   5.878  13.042
70571SOL    HW213611   5.364   5.967  13.162
70572SOL     OW13612   9.206   4.125   7.722
70572SOL    HW113613   9.272   4.194   7.718
70572SOL    HW213614   9.126   4.170   7.751
70573SOL     OW13615   9.344   0.996  14.831
70573SOL    HW113616   9.351   0.977  14.737
70573SOL    HW213617   9.313   0.914  14.870
70574SOL     OW13618  10.635  11.355   3.628
70574SOL    HW113619  10.614  11.448   3.623
70574SOL    HW213620  10.560  11.311   3.588
70575SOL     OW13621  11.928   8.728  11.455
70575SOL    HW113622  11.966   8.643  11.431
70575SOL    HW213623  11.930   8.728  11.551
70576SOL     OW13624   7.988   6.882  14.734
70576SOL    HW113625   7.934   6.953  14.768
70576SOL    HW213626   8.017   6.913  14.648
70577SOL     OW13627   5.955  12.565   7.354
70577SOL    HW113628   6.004  12.518   7.422
70577SOL    HW213629   6.008  12.643   7.336
70578SOL     OW13630   6.526  13.094  14.196
70578SOL    HW113631   6.502  13.056  14.280
70578SOL    HW213632   6.451  13.150  14.173
70579SOL     OW13633   1.460  12.929   5.624
70579SOL    HW113634   1.554  12.912   5.621
70579SOL    HW213635   1.420  12.856   5.576
70580SOL     OW13636  14.288   4.147  12.294
70580SOL    HW113637  14.322   4.186  12.214
70580SOL    HW213638  14.213   4.094  12.265
70581SOL     OW13639  14.838   9.065  13.797
70581SOL    HW113640  14.744   9.046  13.803
70581SOL    HW213641  14.843   9.161  13.801
70582SOL     OW13642  14.710   1.587   3.018
70582SOL    HW113643  14.789   1.540   2.991
70582SOL    HW213644  14.699   1.565   3.111
70583SOL     OW13645   3.335   6.675   1.418
70583SOL    HW113646   3.348   6.742   1.350
70583SOL    HW213647   3.244   6.687   1.446
70584SOL     OW13648  13.639   1.267   5.448
70584SOL    HW113649  13.647   1.219   5.366
70584SOL    HW213650  13.727   1.269   5.484
70585SOL     OW13651   9.595  14.078   3.020
70585SOL    HW113652   9.635  14.045   2.940
70585SOL    HW213653   9.593  14.002   3.079
70586SOL     OW13654   6.429   1.113   1.675
70586SOL    HW113655   6.450   1.118   1.768
70586SOL    HW213656   6.508   1.078   1.635
70587SOL     OW13657   5.797   3.228   5.277
70587SOL    HW113658   5.742   3.207   5.352
70587SOL    HW213659   5.743   3.208   5.201
70588SOL     OW13660   2.065   6.541  12.636
70588SOL    HW113661   2.003   6.547  12.564
70588SOL    HW213662   2.034   6.605  12.700
70589SOL     OW13663   0.738   9.327  12.976
70589SOL    HW113664   0.787   9.384  13.036
70589SOL    HW213665   0.799   9.312  12.903
70590SOL     OW13666   6.519   3.429   4.077
70590SOL    HW113667   6.459   3.421   4.152
70590SOL    HW213668   6.603   3.455   4.116
70591SOL     OW13669   7.738   6.662  10.065
70591SOL    HW113670   7.707   6.573  10.054
70591SOL    HW213671   7.818   6.654  10.118
70592SOL     OW13672   4.579   7.690   3.824
70592SOL    HW113673   4.531   7.769   3.852
70592SOL    HW213674   4.573   7.691   3.729
70593SOL     OW13675  10.175  14.297  12.145
70593SOL    HW113676  10.235  14.367  12.122
70593SOL    HW213677  10.204  14.222  12.093
70594SOL     OW13678  11.298  12.854  12.725
70594SOL    HW113679  11.349  12.932  12.751
70594SOL    HW213680  11.321  12.788  12.790
70595SOL     OW13681   5.392  14.702   2.097
70595SOL    HW113682   5.354  14.625   2.139
70595SOL    HW213683   5.486  14.694   2.113
70596SOL     OW13684   8.116   1.877  10.020
70596SOL    HW113685   8.029   1.905  10.048
70596SOL    HW213686   8.115   1.887   9.925
70597SOL     OW13687  10.289   3.530   0.011
70597SOL    HW113688  10.283   3.510   0.104
70597SOL    HW213689  10.312   3.447  14.853
70598SOL     OW13690  12.428   0.267   7.397
70598SOL    HW113691  12.426   0.319   7.317
70598SOL    HW213692  12.376   0.189   7.376
70599SOL     OW13693   5.109  11.179  12.601
70599SOL    HW113694   5.055  11.237  12.548
70599SOL    HW213695   5.070  11.185  12.689
70600SOL     OW13696  10.738   2.753  14.140
70600SOL    HW113697  10.757   2.679  14.198
70600SOL    HW213698  10.821   2.771  14.095
70601SOL     OW13699   6.146   1.935   7.231
70601SOL    HW113700   6.154   1.926   7.136
70601SOL    HW213701   6.088   1.864   7.257
70602SOL     OW13702   2.053   5.888   0.300
70602SOL    HW113703   1.975   5.878   0.246
70602SOL    HW213704   2.111   5.943   0.248
70603SOL     OW13705   6.909   6.640   9.532
70603SOL    HW113706   6.940   6.725   9.563
70603SOL    HW213707   6.865   6.660   9.449
70604SOL     OW13708   8.296   7.428   0.181
70604SOL    HW113709   8.254   7.366   0.122
70604SOL    HW213710   8.381   7.446   0.141
70605SOL     OW13711   1.543   6.182  14.315
70605SOL    HW113712   1.520   6.274  14.314
70605SOL    HW213713   1.470   6.140  14.361
70606SOL     OW13714  12.408   1.000   1.095
70606SOL    HW113715  12.356   1.019   1.016
70606SOL    HW213716  12.488   1.050   1.084
70607SOL     OW13717   4.474   9.513  10.382
70607SOL    HW113718   4.422   9.590  10.405
70607SOL    HW213719   4.457   9.451  10.454
70608SOL     OW13720   3.382   5.080   2.152
70608SOL    HW113721   3.363   5.084   2.246
70608SOL    HW213722   3.475   5.057   2.147
70609SOL     OW13723  10.741   2.245   3.412
70609SOL    HW113724  10.782   2.320   3.370
70609SOL    HW213725  10.665   2.282   3.458
70610SOL     OW13726   9.788  13.979  11.342
70610SOL    HW113727   9.756  14.070  11.338
70610SOL    HW213728   9.708  13.926  11.347
70611SOL     OW13729   3.234   0.444   8.897
70611SOL    HW113730   3.159   0.502   8.898
70611SOL    HW213731   3.288   0.471   8.971
70612SOL     OW13732  14.349   8.464   5.596
70612SOL    HW113733  14.410   8.484   5.526
70612SOL    HW213734  14.365   8.530   5.662
70613SOL     OW13735   0.642   2.939  11.977
70613SOL    HW113736   0.738   2.942  11.974
70613SOL    HW213737   0.622   2.851  12.009
70614SOL     OW13738   0.732   3.536   2.875
70614SOL    HW113739   0.707   3.459   2.928
70614SOL    HW213740   0.680   3.608   2.911
70615SOL     OW13741  11.867   0.368   5.690
70615SOL    HW113742  11.780   0.405   5.702
70615SOL    HW213743  11.914   0.433   5.638
70616SOL     OW13744   0.063   7.676   3.239
70616SOL    HW113745   0.087   7.585   3.223
70616SOL    HW213746  14.875   7.695   3.177
70617SOL     OW13747   0.015   0.403   2.153
70617SOL    HW113748   0.002   0.431   2.062
70617SOL    HW213749   0.084   0.461   2.186
70618SOL     OW13750  14.339  14.209   7.427
70618SOL    HW113751  14.393  14.147   7.476
70618SOL    HW213752  14.343  14.179   7.337
70619SOL     OW13753  10.165   7.652   0.838
70619SOL    HW113754  10.144   7.639   0.745
70619SOL    HW213755  10.234   7.719   0.838
70620SOL     OW13756   0.053  13.499  10.315
70620SOL    HW113757   0.003  13.430  10.358
70620SOL    HW213758   0.135  13.502  10.364
70621SOL     OW13759   2.485  14.501   1.249
70621SOL    HW113760   2.536  14.430   1.208
70621SOL    HW213761   2.517  14.581   1.207
70622SOL     OW13762   2.335  13.325  14.046
70622SOL    HW113763   2.346  13.287  13.959
70622SOL    HW213764   2.245  13.357  14.046
70623SOL     OW13765   9.249  13.421  10.426
70623SOL    HW113766   9.166  13.408  10.380
70623SOL    HW213767   9.254  13.516  10.440
70624SOL     OW13768   3.356   0.207   0.570
70624SOL    HW113769   3.309   0.236   0.492
70624SOL    HW213770   3.372   0.287   0.620
70625SOL     OW13771   8.745  11.661   6.401
70625SOL    HW113772   8.727  11.658   6.307
70625SOL    HW213773   8.830  11.617   6.410
70626SOL     OW13774   9.055  12.232   4.788
70626SOL    HW113775   8.993  12.245   4.859
70626SOL    HW213776   9.000  12.216   4.711
70627SOL     OW13777  10.661   5.603   5.889
70627SOL    HW113778  10.591   5.650   5.845
70627SOL    HW213779  10.740   5.623   5.839
70628SOL     OW13780   1.040   5.802   0.527
70628SOL    HW113781   0.988   5.819   0.448
70628SOL    HW213782   1.046   5.887   0.570
70629SOL     OW13783  13.016  10.041   0.099
70629SOL    HW113784  12.981  10.026   0.011
70629SOL    HW213785  12.949  10.094   0.143
70630SOL     OW13786  10.590   7.644   9.267
70630SOL    HW113787  10.629   7.716   9.316
70630SOL    HW213788  10.519   7.612   9.323
70631SOL     OW13789   5.505  13.064   6.734
70631SOL    HW113790   5.532  13.002   6.667
70631SOL    HW213791   5.409  13.063   6.731
70632SOL     OW13792   6.909   9.353   0.744
70632SOL    HW113793   6.986   9.396   0.782
70632SOL    HW213794   6.850   9.426   0.722
70633SOL     OW13795   9.595   3.298  11.822
70633SOL    HW113796   9.626   3.213  11.790
70633SOL    HW213797   9.672   3.355  11.817
70634SOL     OW13798  12.124   2.954   4.088
70634SOL    HW113799  12.148   2.970   4.180
70634SOL    HW213800  12.043   3.003   4.075
70635SOL     OW13801   5.716  10.277  10.187
70635SOL    HW113802   5.810  10.265  10.204
70635SOL    HW213803   5.686  10.337  10.255
70636SOL     OW13804   0.084   6.423  11.603
70636SOL    HW113805   0.083   6.328  11.590
70636SOL    HW213806   0.172   6.450  11.575
70637SOL     OW13807   2.379  14.306   9.823
70637SOL    HW113808   2.340  14.257   9.896
70637SOL    HW213809   2.421  14.382   9.864
70638SOL     OW13810   0.827   1.559   8.974
70638SOL    HW113811   0.782   1.475   8.974
70638SOL    HW213812   0.882   1.557   9.052
70639SOL     OW13813   5.774   4.499   3.947
70639SOL    HW113814   5.770   4.413   3.906
70639SOL    HW213815   5.689   4.539   3.928
70640SOL     OW13816   1.053  12.794  11.233
70640SOL    HW113817   1.105  12.729  11.186
70640SOL    HW213818   0.978  12.745  11.267
70641SOL     OW13819   0.348  14.019   2.203
70641SOL    HW113820   0.332  13.966   2.125
70641SOL    HW213821   0.414  14.083   2.176
70642SOL     OW13822   1.638  14.057  11.761
70642SOL    HW113823   1.582  14.100  11.696
70642SOL    HW213824   1.580  13.995  11.805
70643SOL     OW13825   0.009  12.228   2.462
70643SOL    HW113826   0.016  12.208   2.368
70643SOL    HW213827   0.090  12.275   2.482
70644SOL     OW13828  14.184   1.841   1.789
70644SOL    HW113829  14.245   1.767   1.781
70644SOL    HW213830  14.135   1.823   1.869
70645SOL     OW13831   8.343   1.463   0.791
70645SOL    HW113832   8.249   1.463   0.811
70645SOL    HW213833   8.356   1.542   0.739
70646SOL     OW13834   0.586   2.251  10.288
70646SOL    HW113835   0.585   2.306  10.366
70646SOL    HW213836   0.516   2.286  10.233
70647SOL     OW13837   3.061   9.365   1.297
70647SOL    HW113838   3.036   9.390   1.386
70647SOL    HW213839   3.078   9.447   1.252
70648SOL     OW13840   9.098   9.537   2.147
70648SOL    HW113841   9.138   9.527   2.061
70648SOL    HW213842   9.114   9.454   2.192
70649SOL     OW13843   2.478   3.459   3.341
70649SOL    HW113844   2.503   3.550   3.358
70649SOL    HW213845   2.560   3.415   3.320
70650SOL     OW13846   0.634   4.929  10.304
70650SOL    HW113847   0.688   4.900  10.378
70650SOL    HW213848   0.555   4.965  10.344
70651SOL     OW13849   1.030   8.649  10.190
70651SOL    HW113850   0.984   8.604  10.119
70651SOL    HW213851   1.025   8.742  10.167
70652SOL     OW13852   9.394  12.118   2.848
70652SOL    HW113853   9.335  12.045   2.827
70652SOL    HW213854   9.378  12.182   2.780
70653SOL     OW13855  12.233   8.672   1.578
70653SOL    HW113856  12.144   8.669   1.612
70653SOL    HW213857  12.238   8.600   1.516
70654SOL     OW13858   2.839   9.028   0.278
70654SOL    HW113859   2.889   8.964   0.328
70654SOL    HW213860   2.831   8.990   0.191
70655SOL     OW13861   9.434   1.102   3.577
70655SOL    HW113862   9.433   1.183   3.629
70655SOL    HW213863   9.421   1.032   3.641
70656SOL     OW13864   9.593   5.019   0.184
70656SOL    HW113865   9.655   5.071   0.235
70656SOL    HW213866   9.648   4.966   0.127
70657SOL     OW13867  13.890   9.825   7.368
70657SOL    HW113868  13.934   9.909   7.386
70657SOL    HW213869  13.850   9.800   7.451
70658SOL     OW13870  10.007   8.734   0.644
70658SOL    HW113871   9.937   8.789   0.609
70658SOL    HW213872  10.018   8.665   0.578
70659SOL     OW13873   9.557   3.567  10.255
70659SOL    HW113874   9.506   3.542  10.332
70659SOL    HW213875   9.492   3.603  10.194
70660SOL     OW13876   6.673   0.022  12.445
70660SOL    HW113877   6.684  14.818  12.485
70660SOL    HW213878   6.724   0.017  12.363
70661SOL     OW13879   9.359   8.764   9.316
70661SOL    HW113880   9.432   8.770   9.378
70661SOL    HW213881   9.348   8.670   9.301
70662SOL     OW13882   5.285   2.386  13.308
70662SOL    HW113883   5.195   2.368  13.283
70662SOL    HW213884   5.279   2.459  13.370
70663SOL     OW13885  13.667  11.394  10.673
70663SOL    HW113886  13.658  11.485  10.646
70663SOL    HW213887  13.623  11.344  10.604
70664SOL     OW13888  13.058   3.600   1.456
70664SOL    HW113889  13.069   3.691   1.429
70664SOL    HW213890  13.113   3.592   1.534
70665SOL     OW13891   5.843   0.987   9.883
70665SOL    HW113892   5.776   1.049   9.851
70665SOL    HW213893   5.811   0.901   9.855
70666SOL     OW13894  12.960   7.498  11.114
70666SOL    HW113895  13.009   7.416  11.120
70666SOL    HW213896  12.900   7.485  11.040
70667SOL     OW13897   4.428  10.685  10.045
70667SOL    HW113898   4.363  10.664  10.112
70667SOL    HW213899   4.463  10.600  10.018
70668SOL     OW13900   6.351  11.433  11.183
70668SOL    HW113901   6.303  11.429  11.101
70668SOL    HW213902   6.432  11.478  11.162
70669SOL     OW13903   9.546   0.052  12.590
70669SOL    HW113904   9.602   0.075  12.515
70669SOL    HW213905   9.470   0.009  12.550
70670SOL     OW13906  13.505   6.791  12.460
70670SOL    HW113907  13.426   6.746  12.430
70670SOL    HW213908  13.494   6.881  12.431
70671SOL     OW13909  11.369  10.396   5.701
70671SOL    HW113910  11.439  10.345   5.661
70671SOL    HW213911  11.382  10.485   5.669
70672SOL     OW13912   9.953   4.577  12.263
70672SOL    HW113913   9.897   4.629  12.319
70672SOL    HW213914  10.004   4.641  12.213
70673SOL     OW13915   7.944   2.700   8.758
70673SOL    HW113916   7.915   2.732   8.843
70673SOL    HW213917   7.985   2.776   8.716
70674SOL     OW13918   7.835   2.462   0.853
70674SOL    HW113919   7.872   2.531   0.908
70674SOL    HW213920   7.748   2.445   0.890
70675SOL     OW13921   7.450   5.026   2.903
70675SOL    HW113922   7.542   5.001   2.904
70675SOL    HW213923   7.443   5.093   2.971
70676SOL     OW13924  12.699  12.216  10.680
70676SOL    HW113925  12.784  12.190  10.643
70676SOL    HW213926  12.636  12.200  10.610
70677SOL     OW13927   5.655   8.355  10.634
70677SOL    HW113928   5.606   8.312  10.565
70677SOL    HW213929   5.707   8.422  10.589
70678SOL     OW13930   3.475  11.281  12.006
70678SOL    HW113931   3.479  11.365  11.960
70678SOL    HW213932   3.452  11.304  12.096
70679SOL     OW13933   0.648   3.751   5.294
70679SOL    HW113934   0.593   3.673   5.295
70679SOL    HW213935   0.722   3.728   5.238
70680SOL     OW13936  11.891   5.151   4.910
70680SOL    HW113937  11.920   5.242   4.917
70680SOL    HW213938  11.795   5.156   4.919
70681SOL     OW13939  11.878   2.356   9.809
70681SOL    HW113940  11.935   2.389   9.740
70681SOL    HW213941  11.810   2.307   9.762
70682SOL     OW13942   9.226   8.228   4.843
70682SOL    HW113943   9.265   8.313   4.861
70682SOL    HW213944   9.147   8.225   4.897
70683SOL     OW13945   0.706   0.197   4.242
70683SOL    HW113946   0.618   0.162   4.253
70683SOL    HW213947   0.704   0.282   4.288
70684SOL     OW13948   8.138  13.051   7.973
70684SOL    HW113949   8.216  12.997   7.957
70684SOL    HW213950   8.066  12.988   7.977
70685SOL     OW13951  11.771  11.337  14.865
70685SOL    HW113952  11.814  11.296  14.790
70685SOL    HW213953  11.842  11.354   0.045
70686SOL     OW13954   9.297   1.485  10.910
70686SOL    HW113955   9.227   1.468  10.847
70686SOL    HW213956   9.310   1.580  10.907
70687SOL     OW13957  10.672   4.882  10.484
70687SOL    HW113958  10.716   4.874  10.399
70687SOL    HW213959  10.647   4.974  10.489
70688SOL     OW13960   6.795  10.659   1.244
70688SOL    HW113961   6.837  10.696   1.166
70688SOL    HW213962   6.785  10.734   1.303
70689SOL     OW13963  11.754   3.540   2.595
70689SOL    HW113964  11.777   3.451   2.624
70689SOL    HW213965  11.835   3.590   2.607
70690SOL     OW13966   1.535  14.375  10.333
70690SOL    HW113967   1.517  14.325  10.412
70690SOL    HW213968   1.450  14.410  10.307
70691SOL     OW13969  14.611  10.961  10.050
70691SOL    HW113970  14.573  10.907  10.120
70691SOL    HW213971  14.700  10.979  10.081
70692SOL     OW13972  12.341   7.425   6.825
70692SOL    HW113973  12.273   7.358   6.825
70692SOL    HW213974  12.381   7.420   6.739
70693SOL     OW13975   3.204   9.332  12.171
70693SOL    HW113976   3.150   9.410  12.186
70693SOL    HW213977   3.161   9.264  12.223
70694SOL     OW13978  13.288   5.794  13.236
70694SOL    HW113979  13.332   5.840  13.164
70694SOL    HW213980  13.349   5.800  13.309
70695SOL     OW13981   7.368  11.187  11.971
70695SOL    HW113982   7.411  11.224  12.048
70695SOL    HW213983   7.293  11.140  12.006
70696SOL     OW13984   6.202   2.364   4.339
70696SOL    HW113985   6.250   2.282   4.332
70696SOL    HW213986   6.110   2.339   4.344
70697SOL     OW13987   8.518   3.749   4.704
70697SOL    HW113988   8.504   3.831   4.752
70697SOL    HW213989   8.559   3.776   4.622
70698SOL     OW13990  10.855   8.420   4.898
70698SOL    HW113991  10.785   8.403   4.836
70698SOL    HW213992  10.927   8.363   4.870
70699SOL     OW13993   8.191   5.132  14.674
70699SOL    HW113994   8.266   5.073  14.674
70699SOL    HW213995   8.182   5.159  14.766
70700SOL     OW13996   2.335  14.157   8.103
70700SOL    HW113997   2.378  14.140   8.019
70700SOL    HW213998   2.372  14.240   8.133
70701SOL     OW13999   0.398  13.467   9.191
70701SOL    HW114000   0.360  13.523   9.259
70701SOL    HW214001   0.409  13.525   9.116
70702SOL     OW14002  12.223   6.491   5.515
70702SOL    HW114003  12.151   6.529   5.566
70702SOL    HW214004  12.301   6.540   5.543
70703SOL     OW14005  11.355   0.818   5.341
70703SOL    HW114006  11.326   0.729   5.321
70703SOL    HW214007  11.435   0.830   5.290
70704SOL     OW14008   5.722  11.839   4.116
70704SOL    HW114009   5.756  11.925   4.139
70704SOL    HW214010   5.698  11.800   4.200
70705SOL     OW14011   7.434  11.439   3.241
70705SOL    HW114012   7.342  11.458   3.221
70705SOL    HW214013   7.484  11.483   3.172
70706SOL     OW14014  10.440   9.234   6.724
70706SOL    HW114015  10.376   9.167   6.747
70706SOL    HW214016  10.387   9.312   6.706
70707SOL     OW14017   8.514   6.826   9.901
70707SOL    HW114018   8.449   6.806   9.968
70707SOL    HW214019   8.575   6.887   9.943
70708SOL     OW14020   9.499   0.653   9.619
70708SOL    HW114021   9.550   0.733   9.631
70708SOL    HW214022   9.471   0.628   9.707
70709SOL     OW14023   9.518  14.586   6.395
70709SOL    HW114024   9.526  14.613   6.486
70709SOL    HW214025   9.602  14.610   6.355
70710SOL     OW14026   0.207   0.852   3.019
70710SOL    HW114027   0.292   0.894   3.028
70710SOL    HW214028   0.227   0.759   3.009
70711SOL     OW14029  13.249   7.707   2.667
70711SOL    HW114030  13.246   7.623   2.621
70711SOL    HW214031  13.340   7.717   2.693
70712SOL     OW14032  13.740   2.711  11.620
70712SOL    HW114033  13.662   2.673  11.580
70712SOL    HW214034  13.781   2.762  11.550
70713SOL     OW14035   0.530   4.391  13.293
70713SOL    HW114036   0.622   4.365  13.304
70713SOL    HW214037   0.534   4.486  13.282
70714SOL     OW14038  14.028   7.437   8.897
70714SOL    HW114039  13.946   7.422   8.851
70714SOL    HW214040  14.027   7.531   8.919
70715SOL     OW14041  10.400   8.417   8.619
70715SOL    HW114042  10.387   8.423   8.714
70715SOL    HW214043  10.488   8.451   8.605
70716SOL     OW14044  12.223   4.841   2.198
70716SOL    HW114045  12.177   4.859   2.280
70716SOL    HW214046  12.304   4.892   2.204
70717SOL     OW14047  10.722   4.963   9.721
70717SOL    HW114048  10.793   4.971   9.785
70717SOL    HW214049  10.723   5.046   9.674
70718SOL     OW14050   1.748   8.540   7.460
70718SOL    HW114051   1.732   8.613   7.520
70718SOL    HW214052   1.665   8.528   7.415
70719SOL     OW14053   9.152   6.984  14.370
70719SOL    HW114054   9.175   7.023  14.286
70719SOL    HW214055   9.226   6.927  14.391
70720SOL     OW14056   5.146   5.408  11.575
70720SOL    HW114057   5.203   5.335  11.552
70720SOL    HW214058   5.123   5.448  11.491
70721SOL     OW14059   4.778  12.164   2.859
70721SOL    HW114060   4.780  12.073   2.889
70721SOL    HW214061   4.843  12.167   2.788
70722SOL     OW14062   2.187  14.062  11.134
70722SOL    HW114063   2.278  14.052  11.105
70722SOL    HW214064   2.137  14.006  11.075
70723SOL     OW14065   3.971   3.098   3.858
70723SOL    HW114066   3.895   3.044   3.836
70723SOL    HW214067   3.943   3.187   3.836
70724SOL     OW14068  12.619  10.975   9.900
70724SOL    HW114069  12.597  11.042   9.965
70724SOL    HW214070  12.684  10.920   9.942
70725SOL     OW14071   9.993   4.581   8.575
70725SOL    HW114072   9.978   4.646   8.507
70725SOL    HW214073  10.053   4.624   8.637
70726SOL     OW14074  13.826   6.970  14.053
70726SOL    HW114075  13.828   6.878  14.079
70726SOL    HW214076  13.825   6.967  13.957
70727SOL     OW14077  12.164   9.634   7.687
70727SOL    HW114078  12.149   9.587   7.770
70727SOL    HW214079  12.103   9.708   7.690
70728SOL     OW14080   7.299   4.150   7.514
70728SOL    HW114081   7.349   4.110   7.443
70728SOL    HW214082   7.210   4.116   7.503
70729SOL     OW14083  12.271   6.284   8.915
70729SOL    HW114084  12.182   6.252   8.913
70729SOL    HW214085  12.311   6.241   8.991
70730SOL     OW14086   0.130   2.293   2.896
70730SOL    HW114087   0.075   2.215   2.887
70730SOL    HW214088   0.098   2.352   2.828
70731SOL     OW14089   0.559  10.349   6.234
70731SOL    HW114090   0.580  10.427   6.182
70731SOL    HW214091   0.566  10.377   6.325
70732SOL     OW14092   6.058  12.916  14.639
70732SOL    HW114093   6.071  12.942  14.548
70732SOL    HW214094   6.146  12.894  14.670
70733SOL     OW14095   2.091   1.240  14.801
70733SOL    HW114096   2.048   1.256  14.717
70733SOL    HW214097   2.149   1.166  14.784
70734SOL     OW14098   7.351   9.134   6.275
70734SOL    HW114099   7.359   9.142   6.370
70734SOL    HW214100   7.293   9.206   6.249
70735SOL     OW14101   4.051  14.382  12.563
70735SOL    HW114102   3.970  14.409  12.521
70735SOL    HW214103   4.050  14.426  12.649
70736SOL     OW14104   3.888   3.626  14.686
70736SOL    HW114105   3.880   3.662  14.775
70736SOL    HW214106   3.802   3.587  14.669
70737SOL     OW14107  13.923   6.725  13.476
70737SOL    HW114108  13.980   6.795  13.446
70737SOL    HW214109  13.894   6.681  13.396
70738SOL     OW14110   3.666   2.236   1.796
70738SOL    HW114111   3.750   2.194   1.813
70738SOL    HW214112   3.689   2.325   1.769
70739SOL     OW14113   0.677   0.399   4.417
70739SOL    HW114114   0.606   0.378   4.477
70739SOL    HW214115   0.756   0.366   4.461
70740SOL     OW14116   6.423   3.704   4.467
70740SOL    HW114117   6.337   3.662   4.462
70740SOL    HW214118   6.429   3.755   4.387
70741SOL     OW14119  10.066  13.402  10.979
70741SOL    HW114120  10.064  13.307  10.987
70741SOL    HW214121  10.059  13.419  10.885
70742SOL     OW14122   7.991   7.177  13.332
70742SOL    HW114123   7.989   7.262  13.376
70742SOL    HW214124   7.984   7.198  13.239
70743SOL     OW14125   2.964   4.141   0.270
70743SOL    HW114126   3.021   4.075   0.309
70743SOL    HW214127   2.875   4.112   0.292
70744SOL     OW14128   2.593   6.760   7.095
70744SOL    HW114129   2.668   6.819   7.091
70744SOL    HW214130   2.598   6.709   7.014
70745SOL     OW14131   0.031   3.080  14.457
70745SOL    HW114132   0.077   3.037  14.385
70745SOL    HW214133   0.053   3.028  14.534
70746SOL     OW14134   1.792   2.607   0.452
70746SOL    HW114135   1.862   2.573   0.396
70746SOL    HW214136   1.743   2.530   0.479
70747SOL     OW14137   1.568   5.868   8.663
70747SOL    HW114138   1.613   5.818   8.595
70747SOL    HW214139   1.581   5.960   8.639
70748SOL     OW14140   4.516   9.750  12.385
70748SOL    HW114141   4.535   9.765  12.477
70748SOL    HW214142   4.589   9.696  12.354
70749SOL     OW14143   3.119   3.720  12.183
70749SOL    HW114144   3.157   3.802  12.215
70749SOL    HW214145   3.037   3.746  12.142
70750SOL     OW14146   6.599  10.653  10.086
70750SOL    HW114147   6.592  10.721  10.153
70750SOL    HW214148   6.628  10.575  10.135
70751SOL     OW14149   7.965   5.739   2.333
70751SOL    HW114150   7.963   5.817   2.387
70751SOL    HW214151   7.966   5.771   2.243
70752SOL     OW14152  13.732   5.069   3.643
70752SOL    HW114153  13.676   5.139   3.677
70752SOL    HW214154  13.818   5.111   3.633
70753SOL     OW14155   8.630   5.783   1.960
70753SOL    HW114156   8.582   5.733   2.026
70753SOL    HW214157   8.565   5.845   1.925
70754SOL     OW14158   1.565  13.080   1.663
70754SOL    HW114159   1.637  13.090   1.601
70754SOL    HW214160   1.553  12.985   1.671
70755SOL     OW14161   7.032   0.600   1.993
70755SOL    HW114162   7.044   0.543   1.917
70755SOL    HW214163   7.120   0.629   2.016
70756SOL     OW14164   0.752   8.133  11.202
70756SOL    HW114165   0.815   8.159  11.135
70756SOL    HW214166   0.758   8.201  11.269
70757SOL     OW14167  10.078   2.016   4.681
70757SOL    HW114168  10.040   1.961   4.613
70757SOL    HW214169  10.003   2.059   4.722
70758SOL     OW14170   4.653   2.477  12.308
70758SOL    HW114171   4.665   2.572  12.308
70758SOL    HW214172   4.560   2.464  12.327
70759SOL     OW14173  11.378   3.735  14.075
70759SOL    HW114174  11.465   3.701  14.099
70759SOL    HW214175  11.359   3.802  14.141
70760SOL     OW14176   5.859  14.553   1.472
70760SOL    HW114177   5.892  14.492   1.407
70760SOL    HW214178   5.931  14.615   1.485
70761SOL     OW14179  12.576  11.580   1.488
70761SOL    HW114180  12.500  11.533   1.455
70761SOL    HW214181  12.597  11.536   1.571
70762SOL     OW14182  14.239   6.602  13.882
70762SOL    HW114183  14.255   6.683  13.931
70762SOL    HW214184  14.326   6.579  13.848
70763SOL     OW14185   7.018   0.863  13.704
70763SOL    HW114186   7.008   0.773  13.736
70763SOL    HW214187   7.023   0.916  13.784
70764SOL     OW14188   1.978   7.280  13.142
70764SOL    HW114189   2.023   7.196  13.137
70764SOL    HW214190   1.903   7.271  13.082
70765SOL     OW14191  13.934   7.208  13.616
70765SOL    HW114192  13.933   7.261  13.536
70765SOL    HW214193  14.017   7.161  13.613
70766SOL     OW14194  11.611  14.024  11.230
70766SOL    HW114195  11.565  13.947  11.196
70766SOL    HW214196  11.673  14.047  11.160
70767SOL     OW14197  13.738   2.923   2.277
70767SOL    HW114198  13.825   2.890   2.255
70767SOL    HW214199  13.696   2.938   2.192
70768SOL     OW14200  13.952   9.320  13.465
70768SOL    HW114201  14.031   9.371  13.482
70768SOL    HW214202  13.883   9.386  13.454
70769SOL     OW14203  12.005  12.339  10.802
70769SOL    HW114204  12.020  12.248  10.774
70769SOL    HW214205  11.970  12.382  10.725
70770SOL     OW14206   2.957  12.723   0.984
70770SOL    HW114207   3.031  12.711   0.925
70770SOL    HW214208   2.920  12.635   0.994
70771SOL     OW14209   9.391   0.423   2.967
70771SOL    HW114210   9.355   0.487   2.905
70771SOL    HW214211   9.449   0.475   3.023
70772SOL     OW14212   8.210  14.839  10.211
70772SOL    HW114213   8.299  14.803  10.212
70772SOL    HW214214   8.221   0.048  10.237
70773SOL     OW14215  14.502   7.722   9.787
70773SOL    HW114216  14.527   7.653   9.848
70773SOL    HW214217  14.465   7.675   9.712
70774SOL     OW14218  12.101  13.261  13.025
70774SOL    HW114219  12.131  13.352  13.022
70774SOL    HW214220  12.182  13.210  13.035
70775SOL     OW14221   7.233   4.217  10.247
70775SOL    HW114222   7.284   4.298  10.248
70775SOL    HW214223   7.278   4.161  10.184
70776SOL     OW14224   2.601  12.719   6.031
70776SOL    HW114225   2.529  12.682   6.083
70776SOL    HW214226   2.590  12.814   6.040
70777SOL     OW14227   4.524  12.888  10.563
70777SOL    HW114228   4.578  12.842  10.498
70777SOL    HW214229   4.443  12.836  10.566
70778SOL     OW14230   8.157   8.940   8.401
70778SOL    HW114231   8.138   8.928   8.494
70778SOL    HW214232   8.179   8.852   8.370
70779SOL     OW14233  12.167   8.107   4.942
70779SOL    HW114234  12.224   8.163   4.889
70779SOL    HW214235  12.079   8.121   4.905
70780SOL     OW14236   6.405   0.698   8.044
70780SOL    HW114237   6.350   0.625   8.073
70780SOL    HW214238   6.465   0.713   8.117
70781SOL     OW14239   4.343   0.312   9.588
70781SOL    HW114240   4.266   0.261   9.560
70781SOL    HW214241   4.306   0.389   9.630
70782SOL     OW14242   9.228   9.332   5.860
70782SOL    HW114243   9.204   9.355   5.950
70782SOL    HW214244   9.145   9.310   5.818
70783SOL     OW14245   4.941   4.981  14.451
70783SOL    HW114246   4.870   4.980  14.387
70783SOL    HW214247   4.984   5.065  14.437
70784SOL     OW14248  14.194   9.147   7.618
70784SOL    HW114249  14.267   9.091   7.591
70784SOL    HW214250  14.139   9.153   7.540
70785SOL     OW14251  10.304   1.705  10.000
70785SOL    HW114252  10.219   1.710  10.043
70785SOL    HW214253  10.347   1.788  10.021
70786SOL     OW14254   7.101   3.168   5.012
70786SOL    HW114255   7.102   3.110   5.088
70786SOL    HW214256   7.032   3.232   5.031
70787SOL     OW14257  11.934  14.638   9.485
70787SOL    HW114258  12.006  14.648   9.548
70787SOL    HW214259  11.941  14.716   9.429
70788SOL     OW14260   3.996   0.731   6.330
70788SOL    HW114261   3.923   0.790   6.346
70788SOL    HW214262   3.971   0.649   6.373
70789SOL     OW14263   8.563  14.863   5.097
70789SOL    HW114264   8.487  14.806   5.109
70789SOL    HW214265   8.539   0.036   5.023
70790SOL     OW14266   7.153   6.132   3.094
70790SOL    HW114267   7.190   6.097   3.013
70790SOL    HW214268   7.092   6.199   3.065
70791SOL     OW14269   5.226  12.924  11.670
70791SOL    HW114270   5.259  12.839  11.697
70791SOL    HW214271   5.132  12.919  11.684
70792SOL     OW14272  13.655   0.456   7.747
70792SOL    HW114273  13.746   0.440   7.772
70792SOL    HW214274  13.643   0.406   7.666
70793SOL     OW14275   3.446  14.267   9.287
70793SOL    HW114276   3.462  14.241   9.196
70793SOL    HW214277   3.436  14.363   9.283
70794SOL     OW14278   7.329  11.936   4.270
70794SOL    HW114279   7.339  11.841   4.259
70794SOL    HW214280   7.253  11.959   4.216
70795SOL     OW14281  10.247   9.090   3.814
70795SOL    HW114282  10.199   9.140   3.879
70795SOL    HW214283  10.275   9.011   3.860
70796SOL     OW14284  11.913   7.396   0.532
70796SOL    HW114285  11.941   7.429   0.617
70796SOL    HW214286  11.903   7.474   0.478
70797SOL     OW14287   5.405   3.527   8.851
70797SOL    HW114288   5.459   3.585   8.798
70797SOL    HW214289   5.359   3.472   8.787
70798SOL     OW14290   5.792  14.477   6.911
70798SOL    HW114291   5.824  14.408   6.970
70798SOL    HW214292   5.824  14.451   6.825
70799SOL     OW14293   3.984  12.673   8.479
70799SOL    HW114294   3.891  12.677   8.456
70799SOL    HW214295   3.989  12.601   8.542
70800SOL     OW14296   8.673  14.778  11.052
70800SOL    HW114297   8.731  14.739  11.117
70800SOL    HW214298   8.714  14.862  11.030
70801SOL     OW14299   6.656   2.003   1.012
70801SOL    HW114300   6.704   1.997   0.929
70801SOL    HW214301   6.624   1.914   1.028
70802SOL     OW14302   2.944  14.761   1.209
70802SOL    HW114303   2.874  14.825   1.225
70802SOL    HW214304   3.003  14.805   1.148
70803SOL     OW14305  13.443   7.965   1.896
70803SOL    HW114306  13.357   7.923   1.889
70803SOL    HW214307  13.431   8.035   1.960
70804SOL     OW14308   8.752  10.324   9.225
70804SOL    HW114309   8.662  10.319   9.193
70804SOL    HW214310   8.805  10.327   9.145
70805SOL     OW14311   0.007   8.695   4.963
70805SOL    HW114312   0.037   8.784   4.978
70805SOL    HW214313   0.087   8.645   4.948
70806SOL     OW14314   7.069  11.947  14.005
70806SOL    HW114315   7.124  11.987  13.938
70806SOL    HW214316   7.122  11.875  14.040
70807SOL     OW14317  14.068   4.988   8.132
70807SOL    HW114318  13.984   5.014   8.170
70807SOL    HW214319  14.102   5.068   8.091
70808SOL     OW14320   4.617   0.212   1.265
70808SOL    HW114321   4.605   0.291   1.212
70808SOL    HW214322   4.668   0.241   1.340
70809SOL     OW14323  13.066   4.456  12.820
70809SOL    HW114324  13.062   4.503  12.737
70809SOL    HW214325  13.028   4.370  12.800
70810SOL     OW14326   0.508  13.264  12.189
70810SOL    HW114327   0.534  13.290  12.277
70810SOL    HW214328   0.511  13.345  12.139
70811SOL     OW14329   8.722  10.617   9.320
70811SOL    HW114330   8.687  10.558   9.253
70811SOL    HW214331   8.808  10.581   9.342
70812SOL     OW14332   4.350  11.127   2.094
70812SOL    HW114333   4.363  11.123   2.000
70812SOL    HW214334   4.424  11.079   2.131
70813SOL     OW14335  11.138  11.010   6.594
70813SOL    HW114336  11.137  10.926   6.640
70813SOL    HW214337  11.228  11.021   6.565
70814SOL     OW14338   5.615   4.453   7.839
70814SOL    HW114339   5.590   4.402   7.916
70814SOL    HW214340   5.533   4.491   7.808
70815SOL     OW14341  14.620   4.137  12.384
70815SOL    HW114342  14.645   4.111  12.295
70815SOL    HW214343  14.702   4.158  12.428
70816SOL     OW14344   9.733   9.820   0.688
70816SOL    HW114345   9.792   9.745   0.679
70816SOL    HW214346   9.783   9.894   0.652
70817SOL     OW14347  11.622   0.564   2.408
70817SOL    HW114348  11.617   0.655   2.436
70817SOL    HW214349  11.567   0.516   2.470
70818SOL     OW14350   6.906  13.512   4.072
70818SOL    HW114351   6.851  13.580   4.110
70818SOL    HW214352   6.964  13.558   4.012
70819SOL     OW14353  11.928   4.085   3.810
70819SOL    HW114354  11.957   4.080   3.901
70819SOL    HW214355  11.991   4.032   3.761
70820SOL     OW14356   2.764   8.952   5.941
70820SOL    HW114357   2.788   9.032   5.989
70820SOL    HW214358   2.786   8.971   5.850
70821SOL     OW14359  11.265   8.257   5.445
70821SOL    HW114360  11.208   8.181   5.439
70821SOL    HW214361  11.205   8.331   5.453
70822SOL     OW14362   7.400   0.523   7.584
70822SOL    HW114363   7.382   0.597   7.526
70822SOL    HW214364   7.328   0.462   7.568
70823SOL     OW14365   2.207   2.309  13.418
70823SOL    HW114366   2.222   2.369  13.346
70823SOL    HW214367   2.182   2.365  13.491
70824SOL     OW14368   6.611  10.160  11.534
70824SOL    HW114369   6.656  10.244  11.535
70824SOL    HW214370   6.676  10.099  11.499
70825SOL     OW14371   8.800  14.501   5.320
70825SOL    HW114372   8.817  14.582   5.271
70825SOL    HW214373   8.790  14.434   5.252
70826SOL     OW14374   7.961  13.391   5.206
70826SOL    HW114375   7.937  13.321   5.145
70826SOL    HW214376   7.978  13.467   5.149
70827SOL     OW14377  14.692   9.027  13.035
70827SOL    HW114378  14.622   8.971  13.001
70827SOL    HW214379  14.689   9.104  12.979
70828SOL     OW14380   8.806   0.546   2.529
70828SOL    HW114381   8.770   0.590   2.452
70828SOL    HW214382   8.736   0.488   2.558
70829SOL     OW14383   4.019   2.391   2.024
70829SOL    HW114384   4.086   2.336   1.982
70829SOL    HW214385   3.997   2.344   2.104
70830SOL     OW14386   1.119   3.818   4.972
70830SOL    HW114387   1.078   3.834   4.887
70830SOL    HW214388   1.200   3.869   4.970
70831SOL     OW14389  14.639  13.958   7.301
70831SOL    HW114390  14.647  13.994   7.390
70831SOL    HW214391  14.592  14.025   7.252
70832SOL     OW14392   4.674  13.706   6.386
70832SOL    HW114393   4.592  13.676   6.344
70832SOL    HW214394   4.658  13.695   6.479
70833SOL     OW14395  13.681  10.891   1.707
70833SOL    HW114396  13.591  10.905   1.737
70833SOL    HW214397  13.730  10.867   1.785
70834SOL     OW14398   7.995   2.918   4.904
70834SOL    HW114399   7.993   2.891   4.996
70834SOL    HW214400   8.080   2.961   4.893
70835SOL     OW14401   0.012   7.349   6.591
70835SOL    HW114402  14.873   7.398   6.671
70835SOL    HW214403   0.020   7.417   6.523
70836SOL     OW14404   8.995   9.214   0.109
70836SOL    HW114405   9.001   9.120   0.128
70836SOL    HW214406   9.034   9.224   0.022
70837SOL     OW14407   7.033   9.408   0.996
70837SOL    HW114408   7.008   9.394   1.088
70837SOL    HW214409   7.115   9.457   1.001
70838SOL     OW14410   9.394   3.792   5.188
70838SOL    HW114411   9.352   3.715   5.225
70838SOL    HW214412   9.328   3.831   5.132
70839SOL     OW14413   5.011  12.359   5.245
70839SOL    HW114414   5.087  12.373   5.189
70839SOL    HW214415   5.041  12.296   5.311
70840SOL     OW14416   2.775  12.794  13.785
70840SOL    HW114417   2.824  12.868  13.749
70840SOL    HW214418   2.747  12.823  13.871
70841SOL     OW14419   4.010   2.268   5.925
70841SOL    HW114420   4.105   2.268   5.919
70841SOL    HW214421   3.992   2.287   6.017
70842SOL     OW14422  10.342  11.509   7.252
70842SOL    HW114423  10.262  11.463   7.278
70842SOL    HW214424  10.330  11.525   7.158
70843SOL     OW14425   6.928   0.793  12.941
70843SOL    HW114426   7.020   0.821  12.945
70843SOL    HW214427   6.933   0.697  12.947
70844SOL     OW14428  12.668   4.712   7.795
70844SOL    HW114429  12.580   4.694   7.828
70844SOL    HW214430  12.668   4.675   7.707
70845SOL     OW14431  12.376   1.642   9.576
70845SOL    HW114432  12.322   1.711   9.538
70845SOL    HW214433  12.313   1.578   9.608
70846SOL     OW14434  12.515   3.961   8.062
70846SOL    HW114435  12.559   3.972   7.978
70846SOL    HW214436  12.475   3.874   8.057
70847SOL     OW14437   9.813   8.820   8.702
70847SOL    HW114438   9.865   8.814   8.782
70847SOL    HW214439   9.728   8.854   8.730
70848SOL     OW14440   0.518  14.544   0.098
70848SOL    HW114441   0.556  14.489   0.030
70848SOL    HW214442   0.590  14.562   0.159
70849SOL     OW14443  10.771   1.469  11.011
70849SOL    HW114444  10.851   1.517  11.034
70849SOL    HW214445  10.779   1.452  10.917
70850SOL     OW14446   4.201   6.495  12.165
70850SOL    HW114447   4.275   6.521  12.218
70850SOL    HW214448   4.133   6.470  12.228
70851SOL     OW14449   8.451   4.610   6.810
70851SOL    HW114450   8.440   4.582   6.720
70851SOL    HW214451   8.443   4.706   6.807
70852SOL     OW14452   6.081  13.117  14.878
70852SOL    HW114453   6.042  13.071   0.069
70852SOL    HW214454   6.124  13.049  14.826
70853SOL     OW14455  14.609  12.120  14.064
70853SOL    HW114456  14.541  12.135  14.130
70853SOL    HW214457  14.676  12.070  14.110
70854SOL     OW14458   5.185  11.663   0.975
70854SOL    HW114459   5.211  11.614   0.897
70854SOL    HW214460   5.268  11.688   1.017
70855SOL     OW14461   7.032  13.333  14.659
70855SOL    HW114462   7.116  13.292  14.638
70855SOL    HW214463   6.987  13.340  14.574
70856SOL     OW14464   9.259   0.360   4.386
70856SOL    HW114465   9.163   0.369   4.384
70856SOL    HW214466   9.276   0.282   4.333
70857SOL     OW14467   3.111  12.316   2.185
70857SOL    HW114468   3.176  12.266   2.135
70857SOL    HW214469   3.157  12.396   2.211
70858SOL     OW14470  11.554   7.167   9.514
70858SOL    HW114471  11.628   7.106   9.515
70858SOL    HW214472  11.562   7.216   9.596
70859SOL     OW14473   8.810   5.873   0.896
70859SOL    HW114474   8.737   5.817   0.920
70859SOL    HW214475   8.886   5.833   0.939
70860SOL     OW14476   5.260   1.313   6.923
70860SOL    HW114477   5.319   1.270   6.862
70860SOL    HW214478   5.293   1.403   6.928
70861SOL     OW14479   0.613   5.966  14.436
70861SOL    HW114480   0.576   6.028  14.499
70861SOL    HW214481   0.699   6.001  14.416
70862SOL     OW14482   8.816   6.058   6.490
70862SOL    HW114483   8.873   5.995   6.446
70862SOL    HW214484   8.729   6.018   6.489
70863SOL     OW14485   7.738   1.149  11.116
70863SOL    HW114486   7.803   1.212  11.148
70863SOL    HW214487   7.774   1.064  11.139
70864SOL     OW14488   5.408   2.395  12.725
70864SOL    HW114489   5.356   2.449  12.785
70864SOL    HW214490   5.498   2.406  12.754
70865SOL     OW14491  11.201   1.328  13.859
70865SOL    HW114492  11.275   1.273  13.885
70865SOL    HW214493  11.220   1.353  13.769
70866SOL     OW14494  11.187   3.974   1.537
70866SOL    HW114495  11.239   3.894   1.539
70866SOL    HW214496  11.245   4.041   1.574
70867SOL     OW14497   3.860  10.825  10.049
70867SOL    HW114498   3.930  10.845  10.112
70867SOL    HW214499   3.779  10.836  10.099
70868SOL     OW14500   8.742   7.386   3.387
70868SOL    HW114501   8.822   7.369   3.437
70868SOL    HW214502   8.675   7.404   3.453
70869SOL     OW14503   0.501   1.871   4.521
70869SOL    HW114504   0.474   1.922   4.597
70869SOL    HW214505   0.594   1.889   4.511
70870SOL     OW14506   0.951  11.192  10.251
70870SOL    HW114507   0.896  11.215  10.326
70870SOL    HW214508   0.964  11.098  10.258
70871SOL     OW14509   6.598  13.160   5.740
70871SOL    HW114510   6.562  13.171   5.828
70871SOL    HW214511   6.651  13.238   5.726
70872SOL     OW14512   5.312  11.315   2.069
70872SOL    HW114513   5.269  11.385   2.118
70872SOL    HW214514   5.396  11.353   2.043
70873SOL     OW14515  14.528   8.508  10.459
70873SOL    HW114516  14.523   8.482  10.367
70873SOL    HW214517  14.612   8.554  10.467
70874SOL     OW14518  13.817  13.273  12.781
70874SOL    HW114519  13.754  13.205  12.806
70874SOL    HW214520  13.783  13.353  12.820
70875SOL     OW14521   7.825   0.790   2.662
70875SOL    HW114522   7.773   0.803   2.742
70875SOL    HW214523   7.843   0.879   2.631
70876SOL     OW14524  14.106   7.000   7.998
70876SOL    HW114525  14.095   7.065   8.067
70876SOL    HW214526  14.096   7.050   7.917
70877SOL     OW14527  10.098  12.146   9.783
70877SOL    HW114528  10.155  12.076   9.814
70877SOL    HW214529  10.113  12.150   9.689
70878SOL     OW14530   1.635   7.535  12.584
70878SOL    HW114531   1.663   7.621  12.615
70878SOL    HW214532   1.709   7.478  12.602
70879SOL     OW14533  14.668   0.183   0.738
70879SOL    HW114534  14.685   0.217   0.650
70879SOL    HW214535  14.748   0.135   0.761
70880SOL     OW14536  13.329   0.955   0.055
70880SOL    HW114537  13.300   0.913   0.136
70880SOL    HW214538  13.287   0.905  14.867
70881SOL     OW14539   3.395   8.740   2.987
70881SOL    HW114540   3.476   8.741   2.936
70881SOL    HW214541   3.353   8.823   2.966
70882SOL     OW14542   0.187   4.855  14.244
70882SOL    HW114543   0.127   4.873  14.317
70882SOL    HW214544   0.274   4.857  14.283
70883SOL     OW14545   9.391   4.384  13.164
70883SOL    HW114546   9.475   4.344  13.187
70883SOL    HW214547   9.367   4.437  13.240
70884SOL     OW14548   1.084   0.999  12.337
70884SOL    HW114549   1.117   1.044  12.259
70884SOL    HW214550   1.021   0.935  12.302
70885SOL     OW14551   3.299   3.078   6.889
70885SOL    HW114552   3.352   3.117   6.819
70885SOL    HW214553   3.295   3.146   6.957
70886SOL     OW14554   5.654   0.318  12.853
70886SOL    HW114555   5.659   0.298  12.760
70886SOL    HW214556   5.565   0.353  12.865
70887SOL     OW14557   5.029   4.196   8.892
70887SOL    HW114558   5.094   4.200   8.822
70887SOL    HW214559   4.949   4.230   8.852
70888SOL     OW14560  12.868  10.875  14.018
70888SOL    HW114561  12.906  10.876  13.930
70888SOL    HW214562  12.781  10.914  14.008
70889SOL     OW14563   8.469  14.080   2.303
70889SOL    HW114564   8.449  14.054   2.393
70889SOL    HW214565   8.552  14.035   2.283
70890SOL     OW14566   7.528   5.614   0.948
70890SOL    HW114567   7.560   5.548   0.885
70890SOL    HW214568   7.606   5.662   0.975
70891SOL     OW14569  12.756   8.994  10.430
70891SOL    HW114570  12.698   8.919  10.437
70891SOL    HW214571  12.698   9.070  10.438
70892SOL     OW14572   1.047  10.747   9.193
70892SOL    HW114573   0.992  10.669   9.183
70892SOL    HW214574   1.136  10.712   9.201
70893SOL     OW14575  13.701   7.501  12.465
70893SOL    HW114576  13.642   7.467  12.533
70893SOL    HW214577  13.738   7.581  12.504
70894SOL     OW14578   9.641  14.752   6.849
70894SOL    HW114579   9.675  14.799   6.925
70894SOL    HW214580   9.649  14.814   6.777
70895SOL     OW14581  10.258   1.388   5.546
70895SOL    HW114582  10.245   1.295   5.526
70895SOL    HW214583  10.325   1.417   5.484
70896SOL     OW14584   4.432  14.274   3.064
70896SOL    HW114585   4.339  14.254   3.067
70896SOL    HW214586   4.436  14.369   3.063
70897SOL     OW14587   4.076  12.365   8.018
70897SOL    HW114588   4.047  12.283   7.977
70897SOL    HW214589   4.035  12.363   8.105
70898SOL     OW14590  13.897   0.286  13.535
70898SOL    HW114591  13.974   0.251  13.580
70898SOL    HW214592  13.927   0.305  13.446
70899SOL     OW14593   5.225   3.029   6.182
70899SOL    HW114594   5.310   3.029   6.227
70899SOL    HW214595   5.162   3.046   6.252
70900SOL     OW14596  13.616   0.588   4.492
70900SOL    HW114597  13.591   0.563   4.581
70900SOL    HW214598  13.600   0.510   4.439
70901SOL     OW14599   9.601   3.928   3.167
70901SOL    HW114600   9.643   3.934   3.252
70901SOL    HW214601   9.642   3.852   3.125
70902SOL     OW14602   5.215   8.448   4.052
70902SOL    HW114603   5.177   8.425   4.136
70902SOL    HW214604   5.269   8.525   4.071
70903SOL     OW14605   1.410   2.332   8.384
70903SOL    HW114606   1.396   2.301   8.294
70903SOL    HW214607   1.478   2.399   8.376
70904SOL     OW14608  11.636   9.816   9.329
70904SOL    HW114609  11.572   9.794   9.397
70904SOL    HW214610  11.588   9.872   9.269
70905SOL     OW14611   9.844   7.115   6.481
70905SOL    HW114612   9.841   7.180   6.551
70905SOL    HW214613   9.778   7.050   6.506
70906SOL     OW14614   4.538  14.696   7.955
70906SOL    HW114615   4.529  14.754   8.031
70906SOL    HW214616   4.543  14.608   7.993
70907SOL     OW14617   1.221   6.625   9.537
70907SOL    HW114618   1.272   6.548   9.513
70907SOL    HW214619   1.280   6.699   9.523
70908SOL     OW14620  13.971   9.527  13.868
70908SOL    HW114621  14.048   9.552  13.817
70908SOL    HW214622  13.969   9.432  13.864
70909SOL     OW14623   5.125   8.509  11.964
70909SOL    HW114624   5.058   8.551  11.911
70909SOL    HW214625   5.199   8.570  11.962
70910SOL     OW14626  10.139   7.119  12.371
70910SOL    HW114627  10.076   7.067  12.320
70910SOL    HW214628  10.102   7.122  12.459
70911SOL     OW14629  12.923   2.639   3.415
70911SOL    HW114630  12.878   2.568   3.460
70911SOL    HW214631  12.896   2.631   3.324
70912SOL     OW14632   1.999  10.054   8.532
70912SOL    HW114633   2.026  10.124   8.592
70912SOL    HW214634   2.062  10.059   8.460
70913SOL     OW14635  11.683  11.164  14.536
70913SOL    HW114636  11.605  11.219  14.547
70913SOL    HW214637  11.672  11.094  14.600
70914SOL     OW14638   1.531  14.013   3.918
70914SOL    HW114639   1.533  13.951   3.845
70914SOL    HW214640   1.506  14.097   3.878
70915SOL     OW14641   9.981   4.032  13.703
70915SOL    HW114642   9.913   4.021  13.769
70915SOL    HW214643  10.057   3.984  13.738
70916SOL     OW14644   8.379  12.628   1.911
70916SOL    HW114645   8.441  12.603   1.842
70916SOL    HW214646   8.406  12.716   1.937
70917SOL     OW14647   5.567  13.568   6.420
70917SOL    HW114648   5.500  13.499   6.412
70917SOL    HW214649   5.649  13.520   6.431
70918SOL     OW14650   6.363  14.144   6.210
70918SOL    HW114651   6.438  14.203   6.203
70918SOL    HW214652   6.310  14.180   6.282
70919SOL     OW14653  10.924  11.882   8.024
70919SOL    HW114654  10.891  11.902   7.936
70919SOL    HW214655  10.847  11.857   8.074
70920SOL     OW14656  12.662   3.335  12.492
70920SOL    HW114657  12.689   3.297  12.409
70920SOL    HW214658  12.659   3.261  12.553
70921SOL     OW14659   2.533   8.632   3.307
70921SOL    HW114660   2.606   8.604   3.253
70921SOL    HW214661   2.536   8.727   3.306
70922SOL     OW14662  12.565   3.483  13.275
70922SOL    HW114663  12.489   3.484  13.333
70922SOL    HW214664  12.559   3.565  13.226
70923SOL     OW14665   7.911   0.440   9.241
70923SOL    HW114666   7.898   0.346   9.247
70923SOL    HW214667   8.001   0.450   9.211
70924SOL     OW14668   7.665   6.828   2.128
70924SOL    HW114669   7.700   6.741   2.112
70924SOL    HW214670   7.699   6.852   2.214
70925SOL     OW14671   4.896  13.172   8.374
70925SOL    HW114672   4.854  13.252   8.343
70925SOL    HW214673   4.976  13.165   8.322
70926SOL     OW14674   5.061   7.037   0.236
70926SOL    HW114675   5.152   7.010   0.247
70926SOL    HW214676   5.066   7.126   0.200
70927SOL     OW14677   2.481  11.072   4.829
70927SOL    HW114678   2.403  11.016   4.835
70927SOL    HW214679   2.470  11.134   4.901
70928SOL     OW14680  10.019  14.086   7.661
70928SOL    HW114681   9.942  14.043   7.625
70928SOL    HW214682   9.985  14.157   7.715
70929SOL     OW14683  13.948   5.308  11.918
70929SOL    HW114684  13.934   5.264  11.834
70929SOL    HW214685  14.041   5.298  11.935
70930SOL     OW14686  11.826   3.002   0.403
70930SOL    HW114687  11.864   3.031   0.320
70930SOL    HW214688  11.857   2.912   0.414
70931SOL     OW14689  11.189   3.494  10.277
70931SOL    HW114690  11.273   3.532  10.305
70931SOL    HW214691  11.214   3.428  10.213
70932SOL     OW14692  12.331  11.125  13.571
70932SOL    HW114693  12.411  11.096  13.528
70932SOL    HW214694  12.264  11.062  13.543
70933SOL     OW14695   5.773  12.866  10.271
70933SOL    HW114696   5.852  12.879  10.219
70933SOL    HW214697   5.702  12.894  10.213
70934SOL     OW14698  10.792   7.004   1.112
70934SOL    HW114699  10.829   6.932   1.062
70934SOL    HW214700  10.709   7.024   1.068
70935SOL     OW14701   0.769   5.889   4.321
70935SOL    HW114702   0.831   5.957   4.351
70935SOL    HW214703   0.686   5.914   4.362
70936SOL     OW14704   5.181  14.759   0.313
70936SOL    HW114705   5.193  14.680   0.366
70936SOL    HW214706   5.267  14.799   0.309
70937SOL     OW14707   5.572  11.313  11.403
70937SOL    HW114708   5.589  11.407  11.392
70937SOL    HW214709   5.504  11.309  11.471
70938SOL     OW14710   3.965   7.064   2.792
70938SOL    HW114711   3.964   7.020   2.877
70938SOL    HW214712   3.880   7.108   2.787
70939SOL     OW14713  10.481  10.016  11.342
70939SOL    HW114714  10.481  10.057  11.255
70939SOL    HW214715  10.388  10.012  11.366
70940SOL     OW14716   2.741  12.198  12.436
70940SOL    HW114717   2.755  12.196  12.341
70940SOL    HW214718   2.828  12.199  12.474
70941SOL     OW14719   3.082   2.560   5.642
70941SOL    HW114720   3.048   2.472   5.658
70941SOL    HW214721   3.175   2.546   5.620
70942SOL     OW14722   1.114   8.327   8.712
70942SOL    HW114723   1.168   8.321   8.633
70942SOL    HW214724   1.177   8.329   8.784
70943SOL     OW14725   5.906   5.441   2.519
70943SOL    HW114726   5.903   5.421   2.612
70943SOL    HW214727   5.854   5.521   2.510
70944SOL     OW14728   2.088  11.874  14.441
70944SOL    HW114729   1.996  11.897  14.441
70944SOL    HW214730   2.115  11.884  14.349
70945SOL     OW14731   4.499   7.512   1.562
70945SOL    HW114732   4.468   7.602   1.553
70945SOL    HW214733   4.448   7.462   1.498
70946SOL     OW14734   1.862  12.874   9.914
70946SOL    HW114735   1.935  12.899   9.857
70946SOL    HW214736   1.801  12.828   9.857
70947SOL     OW14737   9.732  12.238  14.332
70947SOL    HW114738   9.792  12.205  14.265
70947SOL    HW214739   9.669  12.291  14.283
70948SOL     OW14740   6.709  12.915   9.070
70948SOL    HW114741   6.780  12.860   9.037
70948SOL    HW214742   6.733  12.934   9.160
70949SOL     OW14743   2.843   0.175  13.000
70949SOL    HW114744   2.823   0.083  13.020
70949SOL    HW214745   2.797   0.225  13.067
70950SOL     OW14746  10.249   9.118   4.440
70950SOL    HW114747  10.189   9.044   4.449
70950SOL    HW214748  10.191   9.193   4.427
70951SOL     OW14749  13.817  11.492  14.813
70951SOL    HW114750  13.728  11.520  14.835
70951SOL    HW214751  13.869  11.516   0.008
70952SOL     OW14752   3.187  13.760   3.917
70952SOL    HW114753   3.108  13.814   3.925
70952SOL    HW214754   3.165  13.679   3.962
70953SOL     OW14755  14.805  11.138   5.425
70953SOL    HW114756   0.009  11.128   5.384
70953SOL    HW214757  14.761  11.205   5.373
70954SOL     OW14758  10.544   7.373   7.969
70954SOL    HW114759  10.574   7.379   8.060
70954SOL    HW214760  10.530   7.464   7.943
70955SOL     OW14761  14.752   1.471   5.937
70955SOL    HW114762  14.685   1.417   5.895
70955SOL    HW214763  14.833   1.448   5.891
70956SOL     OW14764   5.808   7.692  14.337
70956SOL    HW114765   5.760   7.772  14.317
70956SOL    HW214766   5.900   7.716  14.326
70957SOL     OW14767  12.918   0.347   6.846
70957SOL    HW114768  12.852   0.351   6.777
70957SOL    HW214769  12.878   0.295   6.916
70958SOL     OW14770  13.498   4.392  12.591
70958SOL    HW114771  13.417   4.436  12.566
70958SOL    HW214772  13.476   4.344  12.671
70959SOL     OW14773   7.283  13.741   0.811
70959SOL    HW114774   7.253  13.713   0.724
70959SOL    HW214775   7.368  13.782   0.795
70960SOL     OW14776   4.069   1.515  12.576
70960SOL    HW114777   4.007   1.587  12.591
70960SOL    HW214778   4.054   1.456  12.650
70961SOL     OW14779   1.798  10.885   6.703
70961SOL    HW114780   1.883  10.927   6.693
70961SOL    HW214781   1.818  10.792   6.714
70962SOL     OW14782   4.563  13.345   9.185
70962SOL    HW114783   4.581  13.432   9.149
70962SOL    HW214784   4.490  13.358   9.245
70963SOL     OW14785   1.951  11.573   9.517
70963SOL    HW114786   2.045  11.555   9.519
70963SOL    HW214787   1.918  11.517   9.447
70964SOL     OW14788   4.568   5.672   8.569
70964SOL    HW114789   4.636   5.607   8.552
70964SOL    HW214790   4.614   5.746   8.608
70965SOL     OW14791  10.894   4.575  10.083
70965SOL    HW114792  10.903   4.665  10.051
70965SOL    HW214793  10.802   4.553  10.069
70966SOL     OW14794  11.047   4.961   6.043
70966SOL    HW114795  11.036   5.027   5.974
70966SOL    HW214796  11.064   4.880   5.995
70967SOL     OW14797   7.732   7.569  11.798
70967SOL    HW114798   7.794   7.506  11.762
70967SOL    HW214799   7.647   7.523  11.794
70968SOL     OW14800   5.655  14.128   5.642
70968SOL    HW114801   5.586  14.182   5.604
70968SOL    HW214802   5.702  14.094   5.566
70969SOL     OW14803   5.066  13.912  10.265
70969SOL    HW114804   5.090  13.888  10.354
70969SOL    HW214805   5.148  13.944  10.226
70970SOL     OW14806   8.106   8.331   9.897
70970SOL    HW114807   8.100   8.269   9.824
70970SOL    HW214808   8.160   8.286   9.962
70971SOL     OW14809   8.437   4.172   6.510
70971SOL    HW114810   8.373   4.234   6.544
70971SOL    HW214811   8.431   4.181   6.415
70972SOL     OW14812   4.150  10.885  13.275
70972SOL    HW114813   4.189  10.909  13.191
70972SOL    HW214814   4.147  10.789  13.273
70973SOL     OW14815   7.418   5.418  12.880
70973SOL    HW114816   7.393   5.380  12.796
70973SOL    HW214817   7.490   5.362  12.911
70974SOL     OW14818  14.191  10.934   0.340
70974SOL    HW114819  14.173  10.997   0.411
70974SOL    HW214820  14.208  10.852   0.385
70975SOL     OW14821   5.868   8.873   5.023
70975SOL    HW114822   5.906   8.925   4.952
70975SOL    HW214823   5.932   8.803   5.038
70976SOL     OW14824  13.062   1.013   3.486
70976SOL    HW114825  13.100   0.938   3.441
70976SOL    HW214826  13.114   1.022   3.566
70977SOL     OW14827  12.296  12.386   3.046
70977SOL    HW114828  12.286  12.387   2.950
70977SOL    HW214829  12.229  12.325   3.076
70978SOL     OW14830  14.331   6.446   0.709
70978SOL    HW114831  14.408   6.443   0.653
70978SOL    HW214832  14.264   6.398   0.661
70979SOL     OW14833   7.442   4.186   1.237
70979SOL    HW114834   7.414   4.116   1.295
70979SOL    HW214835   7.533   4.203   1.261
70980SOL     OW14836  14.631   1.092  14.257
70980SOL    HW114837  14.541   1.061  14.242
70980SOL    HW214838  14.642   1.085  14.352
70981SOL     OW14839   1.167   3.223  11.458
70981SOL    HW114840   1.115   3.279  11.514
70981SOL    HW214841   1.193   3.150  11.514
70982SOL     OW14842   5.077  12.354  12.838
70982SOL    HW114843   5.153  12.330  12.891
70982SOL    HW214844   5.113  12.399  12.762
70983SOL     OW14845   3.072   0.645   8.926
70983SOL    HW114846   3.127   0.724   8.925
70983SOL    HW214847   3.049   0.631   8.834
70984SOL     OW14848   0.702   3.273   7.361
70984SOL    HW114849   0.796   3.275   7.345
70984SOL    HW214850   0.668   3.208   7.300
70985SOL     OW14851   4.129   3.790   9.933
70985SOL    HW114852   4.192   3.804  10.004
70985SOL    HW214853   4.045   3.817   9.970
70986SOL     OW14854   0.533  13.490   2.787
70986SOL    HW114855   0.456  13.534   2.750
70986SOL    HW214856   0.496  13.421   2.842
70987SOL     OW14857   2.760   4.498   9.325
70987SOL    HW114858   2.825   4.567   9.334
70987SOL    HW214859   2.782   4.454   9.243
70988SOL     OW14860   6.230   9.494   1.515
70988SOL    HW114861   6.182   9.460   1.440
70988SOL    HW214862   6.192   9.581   1.530
70989SOL     OW14863   7.969   7.015  13.839
70989SOL    HW114864   7.981   6.979  13.751
70989SOL    HW214865   8.011   6.953  13.897
70990SOL     OW14866   5.640  13.253  11.520
70990SOL    HW114867   5.686  13.180  11.563
70990SOL    HW214868   5.560  13.214  11.486
70991SOL     OW14869   8.709   5.301   7.194
70991SOL    HW114870   8.762   5.379   7.183
70991SOL    HW214871   8.759   5.231   7.151
70992SOL     OW14872  12.014   9.310  12.017
70992SOL    HW114873  12.069   9.256  12.073
70992SOL    HW214874  11.934   9.324  12.067
70993SOL     OW14875   3.971   9.774   3.740
70993SOL    HW114876   4.001   9.823   3.664
70993SOL    HW214877   3.999   9.827   3.815
70994SOL     OW14878  11.128  10.653  13.877
70994SOL    HW114879  11.107  10.561  13.897
70994SOL    HW214880  11.047  10.690  13.845
70995SOL     OW14881   2.301   8.799   4.846
70995SOL    HW114882   2.277   8.731   4.908
70995SOL    HW214883   2.230   8.799   4.782
70996SOL     OW14884   4.897   2.753   5.028
70996SOL    HW114885   4.890   2.722   4.938
70996SOL    HW214886   4.961   2.694   5.068
70997SOL     OW14887   2.059  12.952   9.769
70997SOL    HW114888   2.088  12.871   9.727
70997SOL    HW214889   2.139  12.989   9.807
70998SOL     OW14890  11.882  13.930  13.123
70998SOL    HW114891  11.950  13.955  13.060
70998SOL    HW214892  11.924  13.941  13.208
70999SOL     OW14893  10.845   6.458   1.729
70999SOL    HW114894  10.812   6.385   1.677
70999SOL    HW214895  10.789   6.532   1.705
71000SOL     OW14896   1.525   4.893   4.357
71000SOL    HW114897   1.549   4.936   4.440
71000SOL    HW214898   1.429   4.897   4.355
71001SOL     OW14899   1.333  10.317   2.727
71001SOL    HW114900   1.287  10.386   2.680
71001SOL    HW214901   1.321  10.339   2.819
71002SOL     OW14902   4.238  12.420  12.846
71002SOL    HW114903   4.289  12.376  12.914
71002SOL    HW214904   4.195  12.349  12.799
71003SOL     OW14905  14.402  14.645   9.950
71003SOL    HW114906  14.366  14.597   9.875
71003SOL    HW214907  14.326  14.662  10.006
71004SOL     OW14908  10.461   3.012  12.952
71004SOL    HW114909  10.527   2.944  12.962
71004SOL    HW214910  10.382   2.976  12.993
71005SOL     OW14911   0.146   1.029   7.990
71005SOL    HW114912   0.124   1.047   7.899
71005SOL    HW214913   0.162   1.115   8.028
71006SOL     OW14914   5.831   8.210   2.183
71006SOL    HW114915   5.753   8.165   2.216
71006SOL    HW214916   5.804   8.302   2.178
71007SOL     OW14917   5.418  13.355  12.726
71007SOL    HW114918   5.453  13.322  12.808
71007SOL    HW214919   5.379  13.278  12.683
71008SOL     OW14920   3.798  12.589   1.567
71008SOL    HW114921   3.719  12.588   1.621
71008SOL    HW214922   3.862  12.540   1.618
71009SOL     OW14923  10.386   7.492   9.619
71009SOL    HW114924  10.307   7.510   9.670
71009SOL    HW214925  10.361   7.420   9.561
71010SOL     OW14926   7.429  14.233   9.133
71010SOL    HW114927   7.440  14.225   9.038
71010SOL    HW214928   7.518  14.236   9.167
71011SOL     OW14929  12.083  10.018   8.808
71011SOL    HW114930  12.017   9.994   8.874
71011SOL    HW214931  12.166  10.004   8.853
71012SOL     OW14932  13.037  14.164  11.981
71012SOL    HW114933  12.953  14.189  11.941
71012SOL    HW214934  13.094  14.239  11.964
71013SOL     OW14935   4.645   2.464   5.628
71013SOL    HW114936   4.733   2.480   5.659
71013SOL    HW214937   4.629   2.532   5.563
71014SOL     OW14938   5.697   0.386   9.974
71014SOL    HW114939   5.712   0.448  10.046
71014SOL    HW214940   5.602   0.380   9.968
71015SOL     OW14941  14.480   7.612   8.300
71015SOL    HW114942  14.548   7.661   8.254
71015SOL    HW214943  14.432   7.678   8.350
71016SOL     OW14944   2.498   5.426   6.602
71016SOL    HW114945   2.435   5.498   6.609
71016SOL    HW214946   2.575   5.465   6.562
71017SOL     OW14947  14.066   2.771   1.099
71017SOL    HW114948  14.042   2.687   1.059
71017SOL    HW214949  14.002   2.833   1.063
71018SOL     OW14950   4.742   5.055   8.387
71018SOL    HW114951   4.794   4.976   8.373
71018SOL    HW214952   4.796   5.109   8.445
71019SOL     OW14953   1.402   9.612   6.227
71019SOL    HW114954   1.426   9.701   6.252
71019SOL    HW214955   1.327   9.623   6.169
71020SOL     OW14956  14.572   9.762   0.758
71020SOL    HW114957  14.499   9.739   0.816
71020SOL    HW214958  14.622   9.827   0.807
71021SOL     OW14959  12.660   5.099   3.575
71021SOL    HW114960  12.733   5.039   3.565
71021SOL    HW214961  12.650   5.139   3.488
71022SOL     OW14962   4.896  10.703   9.006
71022SOL    HW114963   4.868  10.794   8.997
71022SOL    HW214964   4.882  10.664   8.920
71023SOL     OW14965   6.949  14.034  13.554
71023SOL    HW114966   6.950  14.069  13.643
71023SOL    HW214967   6.963  13.940  13.566
71024SOL     OW14968  12.599   9.808  10.072
71024SOL    HW114969  12.636   9.847  10.151
71024SOL    HW214970  12.504   9.810  10.087
71025SOL     OW14971   7.568   7.135   4.720
71025SOL    HW114972   7.505   7.101   4.784
71025SOL    HW214973   7.530   7.114   4.635
71026SOL     OW14974  13.440  14.733  11.213
71026SOL    HW114975  13.524  14.736  11.258
71026SOL    HW214976  13.430  14.641  11.187
71027SOL     OW14977  14.589   4.407   7.586
71027SOL    HW114978  14.644   4.335   7.557
71027SOL    HW214979  14.645   4.459   7.644
71028SOL     OW14980  12.693  11.119   8.340
71028SOL    HW114981  12.785  11.102   8.319
71028SOL    HW214982  12.655  11.033   8.355
71029SOL     OW14983   0.852   9.180   9.227
71029SOL    HW114984   0.856   9.271   9.198
71029SOL    HW214985   0.905   9.178   9.307
71030SOL     OW14986   2.468  11.764   9.207
71030SOL    HW114987   2.479  11.781   9.301
71030SOL    HW214988   2.506  11.677   9.194
71031SOL     OW14989   2.735   5.870   4.341
71031SOL    HW114990   2.796   5.863   4.415
71031SOL    HW214991   2.651   5.894   4.381
71032SOL     OW14992   0.554   9.704   1.932
71032SOL    HW114993   0.483   9.767   1.941
71032SOL    HW214994   0.634   9.756   1.941
71033SOL     OW14995   6.933   2.464  13.554
71033SOL    HW114996   7.017   2.454  13.600
71033SOL    HW214997   6.958   2.478  13.462
71034SOL     OW14998  14.532   8.034   1.912
71034SOL    HW114999  14.606   7.975   1.900
71034SOL    HW215000  14.455   7.980   1.896
71035SOL     OW15001   9.857   1.485   9.768
71035SOL    HW115002   9.763   1.487   9.787
71035SOL    HW215003   9.867   1.413   9.706
71036SOL     OW15004   7.229   5.923  11.552
71036SOL    HW115005   7.309   5.928  11.500
71036SOL    HW215006   7.159   5.907  11.489
71037SOL     OW15007  12.794   7.187  10.368
71037SOL    HW115008  12.767   7.155  10.282
71037SOL    HW215009  12.793   7.109  10.424
71038SOL     OW15010   1.852   6.768  14.733
71038SOL    HW115011   1.944   6.742  14.720
71038SOL    HW215012   1.834   6.748  14.824
71039SOL     OW15013   3.594  11.131  14.650
71039SOL    HW115014   3.578  11.166  14.738
71039SOL    HW215015   3.508  11.134  14.608
71040SOL     OW15016   2.837   0.621   2.718
71040SOL    HW115017   2.896   0.656   2.651
71040SOL    HW215018   2.810   0.536   2.685
71041SOL     OW15019  11.189  14.730  10.292
71041SOL    HW115020  11.126  14.801  10.304
71041SOL    HW215021  11.257  14.768  10.236
71042SOL     OW15022  14.284  13.117  12.436
71042SOL    HW115023  14.287  13.165  12.519
71042SOL    HW215024  14.365  13.066  12.435
71043SOL     OW15025   3.187   0.830   8.706
71043SOL    HW115026   3.208   0.915   8.668
71043SOL    HW215027   3.129   0.789   8.643
71044SOL     OW15028   0.365  10.907   9.811
71044SOL    HW115029   0.387  10.971   9.879
71044SOL    HW215030   0.355  10.960   9.732
71045SOL     OW15031  10.774   9.883  14.112
71045SOL    HW115032  10.755   9.793  14.085
71045SOL    HW215033  10.711   9.936  14.063
71046SOL     OW15034  13.624  13.255   9.459
71046SOL    HW115035  13.634  13.350   9.469
71046SOL    HW215036  13.530  13.240   9.469
71047SOL     OW15037   5.760  14.354   0.924
71047SOL    HW115038   5.766  14.407   1.004
71047SOL    HW215039   5.850  14.332   0.903
71048SOL     OW15040   4.096   7.415   3.750
71048SOL    HW115041   4.027   7.481   3.743
71048SOL    HW215042   4.097   7.391   3.842
71049SOL     OW15043   8.635  11.344  11.186
71049SOL    HW115044   8.680  11.260  11.177
71049SOL    HW215045   8.671  11.383  11.265
71050SOL     OW15046  10.999   0.494   7.021
71050SOL    HW115047  10.958   0.452   7.096
71050SOL    HW215048  11.070   0.546   7.057
71051SOL     OW15049   2.373   1.073   3.896
71051SOL    HW115050   2.353   1.040   3.808
71051SOL    HW215051   2.317   1.021   3.954
71052SOL     OW15052   9.493  14.538   3.043
71052SOL    HW115053   9.555  14.472   3.012
71052SOL    HW215054   9.539  14.583   3.114
71053SOL     OW15055   2.367   8.794   8.157
71053SOL    HW115056   2.284   8.755   8.129
71053SOL    HW215057   2.425   8.719   8.171
71054SOL     OW15058   8.047   2.975  10.093
71054SOL    HW115059   7.995   2.972  10.012
71054SOL    HW215060   8.017   2.899  10.143
71055SOL     OW15061   6.236   5.374   3.504
71055SOL    HW115062   6.295   5.306   3.537
71055SOL    HW215063   6.291   5.429   3.449
71056SOL     OW15064   4.551  12.926   1.838
71056SOL    HW115065   4.557  13.020   1.853
71056SOL    HW215066   4.642  12.898   1.827
71057SOL     OW15067   3.017  12.390  11.569
71057SOL    HW115068   3.019  12.483  11.545
71057SOL    HW215069   2.943  12.354  11.520
71058SOL     OW15070   6.728   2.384   9.549
71058SOL    HW115071   6.692   2.468   9.519
71058SOL    HW215072   6.818   2.405   9.575
71059SOL     OW15073   1.974   5.130  14.405
71059SOL    HW115074   2.050   5.185  14.418
71059SOL    HW215075   1.901   5.180  14.441
71060SOL     OW15076  11.149   2.179   1.402
71060SOL    HW115077  11.177   2.088   1.394
71060SOL    HW215078  11.230   2.230   1.399
71061SOL     OW15079  11.959   6.118   8.526
71061SOL    HW115080  11.900   6.192   8.518
71061SOL    HW215081  11.925   6.068   8.601
71062SOL     OW15082  12.990   5.330  12.390
71062SOL    HW115083  12.922   5.334  12.323
71062SOL    HW215084  12.941   5.332  12.473
71063SOL     OW15085   9.025   4.628   1.078
71063SOL    HW115086   8.958   4.663   1.019
71063SOL    HW215087   9.102   4.615   1.022
71064SOL     OW15088   6.629   5.021   0.158
71064SOL    HW115089   6.552   4.966   0.144
71064SOL    HW215090   6.675   4.980   0.231
71065SOL     OW15091  10.350   9.821   0.917
71065SOL    HW115092  10.423   9.864   0.963
71065SOL    HW215093  10.286   9.890   0.905
71066SOL     OW15094   6.419   2.959   5.026
71066SOL    HW115095   6.371   3.036   5.054
71066SOL    HW215096   6.352   2.894   5.005
71067SOL     OW15097  11.996   7.385   1.447
71067SOL    HW115098  11.966   7.462   1.495
71067SOL    HW215099  12.091   7.395   1.443
71068SOL     OW15100   5.791  11.694   0.961
71068SOL    HW115101   5.849  11.768   0.981
71068SOL    HW215102   5.837  11.647   0.891
71069SOL     OW15103   0.316   9.179   3.465
71069SOL    HW115104   0.355   9.258   3.427
71069SOL    HW215105   0.294   9.205   3.555
71070SOL     OW15106  14.651  10.913   2.522
71070SOL    HW115107  14.714  10.907   2.450
71070SOL    HW215108  14.685  10.853   2.588
71071SOL     OW15109   2.097  14.069   5.692
71071SOL    HW115110   2.137  14.096   5.775
71071SOL    HW215111   2.171  14.037   5.639
71072SOL     OW15112   2.253  12.130  11.803
71072SOL    HW115113   2.264  12.044  11.764
71072SOL    HW215114   2.249  12.190  11.729
71073SOL     OW15115   2.052  11.079  12.148
71073SOL    HW115116   2.109  11.120  12.083
71073SOL    HW215117   2.048  11.144  12.219
71074SOL     OW15118   2.574   1.499  14.377
71074SOL    HW115119   2.585   1.413  14.337
71074SOL    HW215120   2.595   1.486  14.470
71075SOL     OW15121  14.360   2.063   9.662
71075SOL    HW115122  14.279   2.046   9.711
71075SOL    HW215123  14.370   1.988   9.604
71076SOL     OW15124  13.432   7.166  13.023
71076SOL    HW115125  13.359   7.227  13.037
71076SOL    HW215126  13.443   7.162  12.928
71077SOL     OW15127   6.784  11.476   9.882
71077SOL    HW115128   6.692  11.480   9.909
71077SOL    HW215129   6.833  11.491   9.963
71078SOL     OW15130   2.710   7.988   3.139
71078SOL    HW115131   2.805   7.995   3.148
71078SOL    HW215132   2.679   8.079   3.141
71079SOL     OW15133  14.694   7.956   7.566
71079SOL    HW115134  14.731   7.946   7.654
71079SOL    HW215135  14.683   7.867   7.535
71080SOL     OW15136   5.393  13.464   9.606
71080SOL    HW115137   5.445  13.423   9.537
71080SOL    HW215138   5.457  13.501   9.666
71081SOL     OW15139   1.692   4.635  10.067
71081SOL    HW115140   1.634   4.610  10.139
71081SOL    HW215141   1.748   4.703  10.104
71082SOL     OW15142  11.912   2.637  11.595
71082SOL    HW115143  11.837   2.697  11.594
71082SOL    HW215144  11.988   2.694  11.602
71083SOL     OW15145   7.196   5.951   2.794
71083SOL    HW115146   7.156   5.875   2.752
71083SOL    HW215147   7.135   6.023   2.779
71084SOL     OW15148   3.286   3.314   9.148
71084SOL    HW115149   3.213   3.318   9.085
71084SOL    HW215150   3.284   3.224   9.180
71085SOL     OW15151   0.132  10.819   5.317
71085SOL    HW115152   0.056  10.826   5.374
71085SOL    HW215153   0.186  10.895   5.339
71086SOL     OW15154   5.953  13.323  11.645
71086SOL    HW115155   6.030  13.355  11.598
71086SOL    HW215156   5.905  13.402  11.668
71087SOL     OW15157   9.940  10.975   9.707
71087SOL    HW115158   9.880  10.954   9.636
71087SOL    HW215159   9.885  10.979   9.785
71088SOL     OW15160  11.194   9.058   3.117
71088SOL    HW115161  11.198   9.091   3.027
71088SOL    HW215162  11.243   9.121   3.168
71089SOL     OW15163  11.738  13.825   7.169
71089SOL    HW115164  11.754  13.810   7.076
71089SOL    HW215165  11.661  13.882   7.171
71090SOL     OW15166  14.005   8.170   5.541
71090SOL    HW115167  14.072   8.103   5.526
71090SOL    HW215168  13.971   8.151   5.628
71091SOL     OW15169   0.392  14.127   8.853
71091SOL    HW115170   0.379  14.171   8.769
71091SOL    HW215171   0.363  14.037   8.837
71092SOL     OW15172   8.094   3.834   5.794
71092SOL    HW115173   8.107   3.916   5.746
71092SOL    HW215174   8.178   3.819   5.839
71093SOL     OW15175  12.341   9.166   3.921
71093SOL    HW115176  12.293   9.089   3.890
71093SOL    HW215177  12.319   9.172   4.014
71094SOL     OW15178   5.463   6.051  14.096
71094SOL    HW115179   5.488   6.008  14.014
71094SOL    HW215180   5.477   6.145  14.078
71095SOL     OW15181   9.050   5.163   5.420
71095SOL    HW115182   9.089   5.250   5.412
71095SOL    HW215183   9.027   5.138   5.331
71096SOL     OW15184  14.525   5.320   6.028
71096SOL    HW115185  14.438   5.357   6.012
71096SOL    HW215186  14.578   5.350   5.954
71097SOL     OW15187   1.918   5.559   8.112
71097SOL    HW115188   1.834   5.527   8.145
71097SOL    HW215189   1.904   5.653   8.099
71098SOL     OW15190   3.076  10.954  12.021
71098SOL    HW115191   2.991  10.948  12.066
71098SOL    HW215192   3.069  11.032  11.967
71099SOL     OW15193   9.198   3.460  12.142
71099SOL    HW115194   9.210   3.544  12.187
71099SOL    HW215195   9.108   3.465  12.108
71100SOL     OW15196   8.936   5.007   8.599
71100SOL    HW115197   8.907   4.936   8.542
71100SOL    HW215198   9.022   5.031   8.564
71101SOL     OW15199  12.729   8.239   1.345
71101SOL    HW115200  12.799   8.191   1.389
71101SOL    HW215201  12.655   8.234   1.405
71102SOL     OW15202   4.648   1.459   8.528
71102SOL    HW115203   4.719   1.522   8.521
71102SOL    HW215204   4.678   1.397   8.596
71103SOL     OW15205  12.671   5.785   1.932
71103SOL    HW115206  12.712   5.837   1.862
71103SOL    HW215207  12.580   5.776   1.904
71104SOL     OW15208   4.645  13.689   5.633
71104SOL    HW115209   4.605  13.609   5.666
71104SOL    HW215210   4.721  13.704   5.689
71105SOL     OW15211   0.788   7.917   4.882
71105SOL    HW115212   0.793   7.915   4.786
71105SOL    HW215213   0.698   7.945   4.900
71106SOL     OW15214   9.604   3.065  13.346
71106SOL    HW115215   9.513   3.055  13.373
71106SOL    HW215216   9.609   3.023  13.260
71107SOL     OW15217   3.075  10.305  10.798
71107SOL    HW115218   3.003  10.275  10.853
71107SOL    HW215219   3.152  10.302  10.855
71108SOL     OW15220  14.510  14.568  13.031
71108SOL    HW115221  14.564  14.646  13.039
71108SOL    HW215222  14.569  14.495  13.050
71109SOL     OW15223   9.779   2.721  13.357
71109SOL    HW115224   9.713   2.669  13.311
71109SOL    HW215225   9.807   2.786  13.292
71110SOL     OW15226   5.010  10.601   9.241
71110SOL    HW115227   5.097  10.641   9.234
71110SOL    HW215228   4.962  10.636   9.166
71111SOL     OW15229   8.105  12.486   0.513
71111SOL    HW115230   8.111  12.535   0.595
71111SOL    HW215231   8.056  12.544   0.455
71112SOL     OW15232   4.418   4.639  13.666
71112SOL    HW115233   4.472   4.630  13.587
71112SOL    HW215234   4.443   4.564  13.720
71113SOL     OW15235   4.291   6.360  11.109
71113SOL    HW115236   4.355   6.335  11.176
71113SOL    HW215237   4.246   6.278  11.087
71114SOL     OW15238   1.703   6.967   7.548
71114SOL    HW115239   1.641   6.933   7.612
71114SOL    HW215240   1.755   7.032   7.597
71115SOL     OW15241  13.034   5.657   1.603
71115SOL    HW115242  13.108   5.699   1.559
71115SOL    HW215243  12.982   5.730   1.638
71116SOL     OW15244   1.557   4.139   3.420
71116SOL    HW115245   1.645   4.173   3.438
71116SOL    HW215246   1.570   4.078   3.347
71117SOL     OW15247  13.208   4.767  12.828
71117SOL    HW115248  13.221   4.756  12.734
71117SOL    HW215249  13.139   4.832  12.836
71118SOL     OW15250  14.869   2.273   8.554
71118SOL    HW115251   0.071   2.228   8.549
71118SOL    HW215252   0.009   2.365   8.561
71119SOL     OW15253   7.746   2.596  11.743
71119SOL    HW115254   7.734   2.503  11.728
71119SOL    HW215255   7.679   2.638  11.687
71120SOL     OW15256  11.203   2.383  13.262
71120SOL    HW115257  11.155   2.466  13.252
71120SOL    HW215258  11.219   2.353  13.173
71121SOL     OW15259   7.396   4.314   2.770
71121SOL    HW115260   7.409   4.398   2.814
71121SOL    HW215261   7.408   4.334   2.677
71122SOL     OW15262  10.484   3.200  14.110
71122SOL    HW115263  10.537   3.200  14.030
71122SOL    HW215264  10.548   3.193  14.181
71123SOL     OW15265   8.502   5.604   2.126
71123SOL    HW115266   8.574   5.567   2.177
71123SOL    HW215267   8.476   5.534   2.067
71124SOL     OW15268   4.822   7.108  13.412
71124SOL    HW115269   4.840   7.172  13.481
71124SOL    HW215270   4.906   7.096  13.368
71125SOL     OW15271  10.361   6.770  14.566
71125SOL    HW115272  10.438   6.815  14.600
71125SOL    HW215273  10.392   6.681  14.546
71126SOL     OW15274  12.758  13.733   5.093
71126SOL    HW115275  12.789  13.643   5.081
71126SOL    HW215276  12.838  13.786   5.090
71127SOL     OW15277  10.797   2.971  13.869
71127SOL    HW115278  10.862   2.935  13.930
71127SOL    HW215279  10.846   2.986  13.788
71128SOL     OW15280   3.496   4.766   8.192
71128SOL    HW115281   3.564   4.780   8.126
71128SOL    HW215282   3.542   4.772   8.276
71129SOL     OW15283   3.580  14.466   2.860
71129SOL    HW115284   3.673  14.486   2.869
71129SOL    HW215285   3.573  14.373   2.884
71130SOL     OW15286  14.155   9.984   2.718
71130SOL    HW115287  14.109  10.059   2.756
71130SOL    HW215288  14.213  10.022   2.652
71131SOL     OW15289  10.057   0.705   5.396
71131SOL    HW115290  10.046   0.619   5.355
71131SOL    HW215291  10.119   0.750   5.340
71132SOL     OW15292   2.493  12.857   0.536
71132SOL    HW115293   2.404  12.853   0.570
71132SOL    HW215294   2.509  12.951   0.523
71133SOL     OW15295   4.211   1.233   3.247
71133SOL    HW115296   4.195   1.313   3.198
71133SOL    HW215297   4.188   1.255   3.337
71134SOL     OW15298  12.361   5.593   0.175
71134SOL    HW115299  12.327   5.592   0.085
71134SOL    HW215300  12.284   5.605   0.230
71135SOL     OW15301  13.115  12.684   6.519
71135SOL    HW115302  13.149  12.637   6.442
71135SOL    HW215303  13.062  12.619   6.565
71136SOL     OW15304   8.266  12.918   1.139
71136SOL    HW115305   8.208  12.867   1.196
71136SOL    HW215306   8.267  13.005   1.178
71137SOL     OW15307   4.734   0.921  14.380
71137SOL    HW115308   4.742   0.957  14.468
71137SOL    HW215309   4.734   0.998  14.322
71138SOL     OW15310  14.413   9.686   5.099
71138SOL    HW115311  14.355   9.623   5.056
71138SOL    HW215312  14.500   9.663   5.068
71139SOL     OW15313  14.047   0.415  10.343
71139SOL    HW115314  13.979   0.478  10.318
71139SOL    HW215315  14.022   0.334  10.299
71140SOL     OW15316   7.950   6.451   0.983
71140SOL    HW115317   7.926   6.544   0.980
71140SOL    HW215318   7.871   6.405   0.956
71141SOL     OW15319  14.498   6.126  12.592
71141SOL    HW115320  14.422   6.088  12.635
71141SOL    HW215321  14.492   6.097  12.501
71142SOL     OW15322  11.131   6.820   0.960
71142SOL    HW115323  11.124   6.763   1.037
71142SOL    HW215324  11.053   6.801   0.908
71143SOL     OW15325  13.789   9.964  14.460
71143SOL    HW115326  13.824   9.978  14.372
71143SOL    HW215327  13.810   9.873  14.481
71144SOL     OW15328  13.303   5.897   3.810
71144SOL    HW115329  13.288   5.818   3.758
71144SOL    HW215330  13.256   5.880   3.892
71145SOL     OW15331   7.954   1.724   3.730
71145SOL    HW115332   8.024   1.674   3.688
71145SOL    HW215333   7.915   1.663   3.793
71146SOL     OW15334  13.172   5.483  12.221
71146SOL    HW115335  13.191   5.571  12.253
71146SOL    HW215336  13.092   5.458  12.267
71147SOL     OW15337   5.081   7.292  13.222
71147SOL    HW115338   5.047   7.205  13.243
71147SOL    HW215339   5.006   7.338  13.183
71148SOL     OW15340   1.188  11.396   4.127
71148SOL    HW115341   1.276  11.357   4.119
71148SOL    HW215342   1.129  11.326   4.098
71149SOL     OW15343   3.500  11.260  14.872
71149SOL    HW115344   3.459  11.193   0.045
71149SOL    HW215345   3.430  11.323  14.855
71150SOL     OW15346  11.688   0.805   7.546
71150SOL    HW115347  11.631   0.728   7.551
71150SOL    HW215348  11.758   0.779   7.485
71151SOL     OW15349  14.456  13.907  10.668
71151SOL    HW115350  14.388  13.860  10.715
71151SOL    HW215351  14.538  13.877  10.708
71152SOL     OW15352   0.925   5.458   6.612
71152SOL    HW115353   0.839   5.467   6.572
71152SOL    HW215354   0.947   5.546   6.643
71153SOL     OW15355   7.932  12.150   7.323
71153SOL    HW115356   7.841  12.143   7.350
71153SOL    HW215357   7.933  12.116   7.233
71154SOL     OW15358   0.638  11.604   7.658
71154SOL    HW115359   0.646  11.669   7.589
71154SOL    HW215360   0.665  11.522   7.617
71155SOL     OW15361   8.829   2.345   7.790
71155SOL    HW115362   8.773   2.416   7.821
71155SOL    HW215363   8.879   2.318   7.868
71156SOL     OW15364   4.058   2.712  10.462
71156SOL    HW115365   4.074   2.773  10.390
71156SOL    HW215366   4.124   2.734  10.528
71157SOL     OW15367   0.366   7.627   5.195
71157SOL    HW115368   0.403   7.539   5.184
71157SOL    HW215369   0.419   7.682   5.137
71158SOL     OW15370   7.829   6.542   8.816
71158SOL    HW115371   7.739   6.509   8.810
71158SOL    HW215372   7.842   6.559   8.910
71159SOL     OW15373   5.690   3.001  10.926
71159SOL    HW115374   5.709   2.937  10.995
71159SOL    HW215375   5.689   3.085  10.971
71160SOL     OW15376   2.994  13.717   4.288
71160SOL    HW115377   2.983  13.703   4.382
71160SOL    HW215378   3.024  13.808   4.281
71161SOL     OW15379  14.214   3.497   5.360
71161SOL    HW115380  14.158   3.542   5.296
71161SOL    HW215381  14.217   3.406   5.330
71162SOL     OW15382  12.593   3.543   9.145
71162SOL    HW115383  12.602   3.591   9.062
71162SOL    HW215384  12.630   3.457   9.128
71163SOL     OW15385  14.630  14.526   1.406
71163SOL    HW115386  14.644  14.508   1.499
71163SOL    HW215387  14.664  14.449   1.361
71164SOL     OW15388   5.476  11.979   2.169
71164SOL    HW115389   5.483  12.057   2.223
71164SOL    HW215390   5.474  12.013   2.079
71165SOL     OW15391   8.123   2.423   8.383
71165SOL    HW115392   8.079   2.499   8.421
71165SOL    HW215393   8.138   2.364   8.457
71166SOL     OW15394   5.145  12.365   7.331
71166SOL    HW115395   5.076  12.427   7.356
71166SOL    HW215396   5.195  12.412   7.264
71167SOL     OW15397   5.990   0.638   8.626
71167SOL    HW115398   6.000   0.715   8.683
71167SOL    HW215399   6.000   0.563   8.685
71168SOL     OW15400  11.421  12.528  14.106
71168SOL    HW115401  11.506  12.556  14.073
71168SOL    HW215402  11.433  12.520  14.200
71169SOL     OW15403   7.079  10.885   4.528
71169SOL    HW115404   7.039  10.971   4.543
71169SOL    HW215405   7.114  10.860   4.614
71170SOL     OW15406   0.313   5.326  13.015
71170SOL    HW115407   0.402   5.305  12.986
71170SOL    HW215408   0.325   5.392  13.083
71171SOL     OW15409   3.456   5.939   2.039
71171SOL    HW115410   3.512   5.863   2.057
71171SOL    HW215411   3.516   6.013   2.042
71172SOL     OW15412  14.814   8.724   2.656
71172SOL    HW115413  14.822   8.631   2.678
71172SOL    HW215414   0.022   8.756   2.649
71173SOL     OW15415   6.731   5.547   3.934
71173SOL    HW115416   6.720   5.453   3.940
71173SOL    HW215417   6.642   5.582   3.942
71174SOL     OW15418   6.587  12.028  11.501
71174SOL    HW115419   6.595  12.117  11.536
71174SOL    HW215420   6.500  12.000  11.527
71175SOL     OW15421   1.475   7.339   4.239
71175SOL    HW115422   1.562   7.299   4.243
71175SOL    HW215423   1.485   7.409   4.175
71176SOL     OW15424  14.809   1.217   2.472
71176SOL    HW115425  14.770   1.155   2.410
71176SOL    HW215426  14.874   1.265   2.421
71177SOL     OW15427   9.588   7.035   0.642
71177SOL    HW115428   9.583   6.989   0.558
71177SOL    HW215429   9.681   7.036   0.664
71178SOL     OW15430   8.723  13.754  14.293
71178SOL    HW115431   8.739  13.836  14.341
71178SOL    HW215432   8.795  13.747  14.231
71179SOL     OW15433   5.619   9.644  12.971
71179SOL    HW115434   5.688   9.608  13.027
71179SOL    HW215435   5.579   9.713  13.024
71180SOL     OW15436  12.273   6.946   3.312
71180SOL    HW115437  12.310   6.880   3.254
71180SOL    HW215438  12.285   6.911   3.400
71181SOL     OW15439  10.897   1.317   1.733
71181SOL    HW115440  10.991   1.325   1.718
71181SOL    HW215441  10.861   1.290   1.648
71182SOL     OW15442  14.639   8.749   8.892
71182SOL    HW115443  14.732   8.766   8.906
71182SOL    HW215444  14.631   8.737   8.798
71183SOL     OW15445  12.717   3.709   5.414
71183SOL    HW115446  12.723   3.797   5.378
71183SOL    HW215447  12.780   3.709   5.487
71184SOL     OW15448   0.282   7.445  12.603
71184SOL    HW115449   0.309   7.444  12.511
71184SOL    HW215450   0.187   7.434  12.600
71185SOL     OW15451  12.054   2.506  14.478
71185SOL    HW115452  12.020   2.425  14.517
71185SOL    HW215453  12.006   2.576  14.523
71186SOL     OW15454   1.306   0.148   8.234
71186SOL    HW115455   1.310   0.236   8.197
71186SOL    HW215456   1.350   0.156   8.319
71187SOL     OW15457   5.038   4.552   2.255
71187SOL    HW115458   5.010   4.535   2.345
71187SOL    HW215459   5.041   4.465   2.214
71188SOL     OW15460   5.513   9.566   2.228
71188SOL    HW115461   5.509   9.553   2.133
71188SOL    HW215462   5.434   9.524   2.261
71189SOL     OW15463   6.776  10.708  12.757
71189SOL    HW115464   6.720  10.723  12.681
71189SOL    HW215465   6.716  10.680  12.826
71190SOL     OW15466  13.128  11.544   1.484
71190SOL    HW115467  13.094  11.625   1.446
71190SOL    HW215468  13.223  11.551   1.473
71191SOL     OW15469  12.331  13.936  13.912
71191SOL    HW115470  12.322  14.012  13.970
71191SOL    HW215471  12.270  13.954  13.840
71192SOL     OW15472   8.528   7.731   8.622
71192SOL    HW115473   8.557   7.722   8.712
71192SOL    HW215474   8.601   7.701   8.569
71193SOL     OW15475   3.169   7.806   2.992
71193SOL    HW115476   3.173   7.720   2.950
71193SOL    HW215477   3.121   7.861   2.930
71194SOL     OW15478  11.692   2.628   7.834
71194SOL    HW115479  11.723   2.543   7.801
71194SOL    HW215480  11.661   2.674   7.756
71195SOL     OW15481   9.616   0.208   4.807
71195SOL    HW115482   9.539   0.227   4.752
71195SOL    HW215483   9.668   0.288   4.801
71196SOL     OW15484  12.802  12.141   0.465
71196SOL    HW115485  12.881  12.132   0.518
71196SOL    HW215486  12.760  12.055   0.471
71197SOL     OW15487  12.992  10.155   3.343
71197SOL    HW115488  12.940  10.078   3.364
71197SOL    HW215489  13.042  10.130   3.266
71198SOL     OW15490  10.471   1.945   3.384
71198SOL    HW115491  10.376   1.947   3.374
71198SOL    HW215492  10.493   2.031   3.420
71199SOL     OW15493   1.340   9.767   1.293
71199SOL    HW115494   1.435   9.776   1.301
71199SOL    HW215495   1.315   9.708   1.363
71200SOL     OW15496   5.583   3.649  11.147
71200SOL    HW115497   5.638   3.685  11.216
71200SOL    HW215498   5.645   3.609  11.086
71201SOL     OW15499  13.218  11.175   0.618
71201SOL    HW115500  13.261  11.202   0.700
71201SOL    HW215501  13.280  11.114   0.578
71202SOL     OW15502   1.001  11.714   1.796
71202SOL    HW115503   0.974  11.654   1.727
71202SOL    HW215504   1.018  11.657   1.871
71203SOL     OW15505   8.250  10.909   4.823
71203SOL    HW115506   8.222  10.820   4.845
71203SOL    HW215507   8.213  10.925   4.736
71204SOL     OW15508  14.831   5.684  10.937
71204SOL    HW115509  14.848   5.705  11.029
71204SOL    HW215510  14.738   5.662  10.933
71205SOL     OW15511   8.335   4.057   5.470
71205SOL    HW115512   8.246   4.024   5.486
71205SOL    HW215513   8.334   4.082   5.378
71206SOL     OW15514   8.735   5.688  11.508
71206SOL    HW115515   8.659   5.655  11.556
71206SOL    HW215516   8.758   5.769  11.554
71207SOL     OW15517   3.188   2.543   1.861
71207SOL    HW115518   3.173   2.615   1.922
71207SOL    HW215519   3.283   2.527   1.865
71208SOL     OW15520   8.556  14.167   4.872
71208SOL    HW115521   8.647  14.190   4.889
71208SOL    HW215522   8.535  14.100   4.938
71209SOL     OW15523  14.470  11.100   1.340
71209SOL    HW115524  14.426  11.182   1.365
71209SOL    HW215525  14.530  11.126   1.270
71210SOL     OW15526   6.066   4.829   4.784
71210SOL    HW115527   6.004   4.757   4.773
71210SOL    HW215528   6.065   4.848   4.878
71211SOL     OW15529   9.126  13.197   2.050
71211SOL    HW115530   9.080  13.212   2.133
71211SOL    HW215531   9.197  13.137   2.072
71212SOL     OW15532  14.567  14.233   8.782
71212SOL    HW115533  14.639  14.176   8.754
71212SOL    HW215534  14.567  14.305   8.719
71213SOL     OW15535   1.421   3.512   0.038
71213SOL    HW115536   1.511   3.529   0.066
71213SOL    HW215537   1.367   3.554   0.104
71214SOL     OW15538  11.778   4.777   2.545
71214SOL    HW115539  11.819   4.708   2.597
71214SOL    HW215540  11.792   4.857   2.597
71215SOL     OW15541   5.558  12.426   5.190
71215SOL    HW115542   5.616  12.352   5.206
71215SOL    HW215543   5.496  12.425   5.263
71216SOL     OW15544   6.369  11.600  11.434
71216SOL    HW115545   6.379  11.535  11.504
71216SOL    HW215546   6.407  11.558  11.357
71217SOL     OW15547   2.036   5.320  10.906
71217SOL    HW115548   2.100   5.290  10.971
71217SOL    HW215549   2.014   5.241  10.856
71218SOL     OW15550  12.811   9.870   8.116
71218SOL    HW115551  12.736   9.923   8.143
71218SOL    HW215552  12.773   9.784   8.097
71219SOL     OW15553   9.685   6.733   3.005
71219SOL    HW115554   9.591   6.719   3.016
71219SOL    HW215555   9.714   6.767   3.090
71220SOL     OW15556   3.502   9.488   8.976
71220SOL    HW115557   3.567   9.510   8.909
71220SOL    HW215558   3.418   9.492   8.930
71221SOL     OW15559  10.818  12.170   2.301
71221SOL    HW115560  10.861  12.131   2.225
71221SOL    HW215561  10.836  12.109   2.372
71222SOL     OW15562   9.591   7.522  11.154
71222SOL    HW115563   9.612   7.611  11.182
71222SOL    HW215564   9.625   7.515  11.065
71223SOL     OW15565  11.742   7.313   1.397
71223SOL    HW115566  11.718   7.379   1.333
71223SOL    HW215567  11.829   7.340   1.428
71224SOL     OW15568   5.670  13.679   2.950
71224SOL    HW115569   5.641  13.644   3.034
71224SOL    HW215570   5.590  13.703   2.904
71225SOL     OW15571   6.178   1.779   8.577
71225SOL    HW115572   6.159   1.783   8.484
71225SOL    HW215573   6.137   1.697   8.607
71226SOL     OW15574  10.365  12.275   1.656
71226SOL    HW115575  10.452  12.282   1.617
71226SOL    HW215576  10.370  12.326   1.737
71227SOL     OW15577  10.525   8.254   0.814
71227SOL    HW115578  10.619   8.255   0.793
71227SOL    HW215579  10.487   8.195   0.749
71228SOL     OW15580  11.992   2.476  12.350
71228SOL    HW115581  12.004   2.450  12.259
71228SOL    HW215582  11.898   2.484  12.361
71229SOL     OW15583   7.466   1.499   9.357
71229SOL    HW115584   7.474   1.415   9.403
71229SOL    HW215585   7.469   1.564   9.427
71230SOL     OW15586   3.325   6.364  11.577
71230SOL    HW115587   3.352   6.324  11.660
71230SOL    HW215588   3.303   6.290  11.520
71231SOL     OW15589  12.617   4.965   9.988
71231SOL    HW115590  12.627   4.884   9.937
71231SOL    HW215591  12.528   4.961  10.022
71232SOL     OW15592   7.367   7.811  14.078
71232SOL    HW115593   7.398   7.751  14.010
71232SOL    HW215594   7.279   7.835  14.051
71233SOL     OW15595  10.452  14.634   5.765
71233SOL    HW115596  10.486  14.689   5.695
71233SOL    HW215597  10.514  14.561   5.770
71234SOL     OW15598   2.146   8.555   4.818
71234SOL    HW115599   2.122   8.474   4.863
71234SOL    HW215600   2.132   8.535   4.725
71235SOL     OW15601  10.080  11.040   0.160
71235SOL    HW115602  10.108  10.977   0.093
71235SOL    HW215603  10.162  11.080   0.190
71236SOL     OW15604   5.604   3.081  10.432
71236SOL    HW115605   5.692   3.056  10.461
71236SOL    HW215606   5.613   3.094  10.337
71237SOL     OW15607   6.430   6.880   6.037
71237SOL    HW115608   6.472   6.967   6.036
71237SOL    HW215609   6.341   6.896   6.067
71238SOL     OW15610  13.106   8.922  14.177
71238SOL    HW115611  13.111   8.947  14.084
71238SOL    HW215612  13.148   8.994  14.223
71239SOL     OW15613   9.514   2.236   3.431
71239SOL    HW115614   9.511   2.290   3.510
71239SOL    HW215615   9.429   2.193   3.428
71240SOL     OW15616  10.213  14.351  13.581
71240SOL    HW115617  10.283  14.386  13.526
71240SOL    HW215618  10.253  14.338  13.667
71241SOL     OW15619  13.305  10.318   8.052
71241SOL    HW115620  13.378  10.339   7.993
71241SOL    HW215621  13.348  10.283   8.131
71242SOL     OW15622  13.490   5.897   8.332
71242SOL    HW115623  13.564   5.914   8.274
71242SOL    HW215624  13.443   5.825   8.290
71243SOL     OW15625   7.332   6.133  14.143
71243SOL    HW115626   7.391   6.066  14.108
71243SOL    HW215627   7.245   6.107  14.109
71244SOL     OW15628   5.838  10.431   5.169
71244SOL    HW115629   5.870  10.357   5.118
71244SOL    HW215630   5.853  10.406   5.260
71245SOL     OW15631  12.597   0.972   3.625
71245SOL    HW115632  12.526   0.915   3.657
71245SOL    HW215633  12.563   1.009   3.544
71246SOL     OW15634   5.157   2.414   4.504
71246SOL    HW115635   5.086   2.350   4.495
71246SOL    HW215636   5.234   2.370   4.468
71247SOL     OW15637  10.934  10.649   9.843
71247SOL    HW115638  11.027  10.643   9.821
71247SOL    HW215639  10.896  10.701   9.772
71248SOL     OW15640  12.323   2.168   9.730
71248SOL    HW115641  12.280   2.100   9.783
71248SOL    HW215642  12.411   2.135   9.717
71249SOL     OW15643   3.794   6.095   5.472
71249SOL    HW115644   3.829   6.141   5.548
71249SOL    HW215645   3.699   6.093   5.488
71250SOL     OW15646   5.796  13.272   4.188
71250SOL    HW115647   5.794  13.178   4.167
71250SOL    HW215648   5.703  13.297   4.190
71251SOL     OW15649   1.286   3.069   8.219
71251SOL    HW115650   1.327   3.139   8.168
71251SOL    HW215651   1.358   3.029   8.267
71252SOL     OW15652  14.858   2.038   5.102
71252SOL    HW115653  14.806   2.097   5.157
71252SOL    HW215654   0.030   2.096   5.049
71253SOL     OW15655   9.555   6.292  14.250
71253SOL    HW115656   9.461   6.309  14.248
71253SOL    HW215657   9.594   6.367  14.205
71254SOL     OW15658  14.230   1.234   1.968
71254SOL    HW115659  14.158   1.185   1.929
71254SOL    HW215660  14.198   1.260   2.054
71255SOL     OW15661   0.950  12.228   1.168
71255SOL    HW115662   0.941  12.145   1.215
71255SOL    HW215663   0.900  12.291   1.221
71256SOL     OW15664   1.323  11.101   4.976
71256SOL    HW115665   1.305  11.068   4.888
71256SOL    HW215666   1.265  11.050   5.033
71257SOL     OW15667   6.246  14.245  13.278
71257SOL    HW115668   6.256  14.273  13.369
71257SOL    HW215669   6.335  14.224  13.249
71258SOL     OW15670  14.513   0.931   4.001
71258SOL    HW115671  14.500   0.978   3.919
71258SOL    HW215672  14.426   0.901   4.026
71259SOL     OW15673   4.480  10.359   1.556
71259SOL    HW115674   4.526  10.329   1.478
71259SOL    HW215675   4.396  10.391   1.524
71260SOL     OW15676   1.245  11.425   0.487
71260SOL    HW115677   1.249  11.361   0.558
71260SOL    HW215678   1.311  11.491   0.510
71261SOL     OW15679   1.123   8.327  12.460
71261SOL    HW115680   1.030   8.315  12.482
71261SOL    HW215681   1.161   8.366  12.539
71262SOL     OW15682   7.460  13.157   0.102
71262SOL    HW115683   7.489  13.098   0.032
71262SOL    HW215684   7.516  13.135   0.176
71263SOL     OW15685  13.518   2.800  10.389
71263SOL    HW115686  13.463   2.875  10.367
71263SOL    HW215687  13.528   2.804  10.484
71264SOL     OW15688  12.475  11.513  11.978
71264SOL    HW115689  12.398  11.459  11.959
71264SOL    HW215690  12.459  11.595  11.930
71265SOL     OW15691  10.027   8.856   3.090
71265SOL    HW115692  10.049   8.783   3.148
71265SOL    HW215693  10.090   8.925   3.114
71266SOL     OW15694   9.183  11.141   9.786
71266SOL    HW115695   9.247  11.165   9.854
71266SOL    HW215696   9.139  11.064   9.821
71267SOL     OW15697   2.166  10.998  14.116
71267SOL    HW115698   2.204  10.959  14.195
71267SOL    HW215699   2.213  11.080  14.105
71268SOL     OW15700  10.122  10.276   6.011
71268SOL    HW115701  10.067  10.313   5.942
71268SOL    HW215702  10.083  10.190   6.029
71269SOL     OW15703   5.444  11.827   9.769
71269SOL    HW115704   5.476  11.915   9.789
71269SOL    HW215705   5.378  11.809   9.835
71270SOL     OW15706  13.666   5.293  14.439
71270SOL    HW115707  13.650   5.264  14.349
71270SOL    HW215708  13.762   5.296  14.447
71271SOL     OW15709   9.318  12.489   8.655
71271SOL    HW115710   9.281  12.401   8.660
71271SOL    HW215711   9.398  12.479   8.603
71272SOL     OW15712  10.271   8.474  13.593
71272SOL    HW115713  10.194   8.446  13.544
71272SOL    HW215714  10.237   8.535  13.658
71273SOL     OW15715   5.381   9.067   0.915
71273SOL    HW115716   5.318   9.065   0.987
71273SOL    HW215717   5.330   9.040   0.838
71274SOL     OW15718   8.134   3.006   3.961
71274SOL    HW115719   8.162   2.933   3.906
71274SOL    HW215720   8.040   2.995   3.970
71275SOL     OW15721   5.561   7.660   0.071
71275SOL    HW115722   5.652   7.670   0.099
71275SOL    HW215723   5.543   7.736   0.016
71276SOL     OW15724   5.947   9.135   0.292
71276SOL    HW115725   5.962   9.174   0.378
71276SOL    HW215726   5.994   9.192   0.232
71277SOL     OW15727  12.989   9.766  12.478
71277SOL    HW115728  13.057   9.805  12.423
71277SOL    HW215729  13.025   9.770  12.566
71278SOL     OW15730   5.946  11.126   0.993
71278SOL    HW115731   6.007  11.056   0.968
71278SOL    HW215732   5.965  11.142   1.085
71279SOL     OW15733  14.225   2.643   4.736
71279SOL    HW115734  14.249   2.736   4.734
71279SOL    HW215735  14.129   2.643   4.738
71280SOL     OW15736   1.467   4.855  12.412
71280SOL    HW115737   1.538   4.891  12.358
71280SOL    HW215738   1.427   4.931  12.453
71281SOL     OW15739   4.312  13.015   0.975
71281SOL    HW115740   4.297  13.077   0.903
71281SOL    HW215741   4.321  13.070   1.052
71282SOL     OW15742   1.021   7.173   6.445
71282SOL    HW115743   1.093   7.205   6.391
71282SOL    HW215744   0.984   7.252   6.484
71283SOL     OW15745   4.581   6.559  13.963
71283SOL    HW115746   4.565   6.607  13.882
71283SOL    HW215747   4.578   6.625  14.031
71284SOL     OW15748   2.418   1.748  13.700
71284SOL    HW115749   2.434   1.807  13.626
71284SOL    HW215750   2.421   1.805  13.777
71285SOL     OW15751  12.279   0.614  11.268
71285SOL    HW115752  12.228   0.695  11.270
71285SOL    HW215753  12.300   0.601  11.176
71286SOL     OW15754  12.517   7.512  11.336
71286SOL    HW115755  12.600   7.551  11.308
71286SOL    HW215756  12.450   7.562  11.290
71287SOL     OW15757  10.202   3.081   6.856
71287SOL    HW115758  10.264   3.081   6.928
71287SOL    HW215759  10.156   3.165   6.863
71288SOL     OW15760   5.888   7.465  13.373
71288SOL    HW115761   5.876   7.477  13.279
71288SOL    HW215762   5.946   7.389  13.380
71289SOL     OW15763  10.296   4.432   1.834
71289SOL    HW115764  10.349   4.421   1.755
71289SOL    HW215765  10.352   4.483   1.893
71290SOL     OW15766   9.397   6.470   4.909
71290SOL    HW115767   9.468   6.453   4.847
71290SOL    HW215768   9.427   6.429   4.990
71291SOL     OW15769   2.615   6.787  13.952
71291SOL    HW115770   2.651   6.698  13.953
71291SOL    HW215771   2.567   6.793  13.870
71292SOL     OW15772  10.442  14.173   7.266
71292SOL    HW115773  10.478  14.261   7.274
71292SOL    HW215774  10.347  14.185   7.266
71293SOL     OW15775  14.250   8.204  12.254
71293SOL    HW115776  14.276   8.244  12.170
71293SOL    HW215777  14.277   8.268  12.320
71294SOL     OW15778  12.631   0.625  14.797
71294SOL    HW115779  12.703   0.617  14.859
71294SOL    HW215780  12.673   0.653  14.716
71295SOL     OW15781   2.382   7.878   4.789
71295SOL    HW115782   2.317   7.852   4.723
71295SOL    HW215783   2.466   7.873   4.742
71296SOL     OW15784  11.558   0.762  10.697
71296SOL    HW115785  11.638   0.722  10.730
71296SOL    HW215786  11.585   0.806  10.616
71297SOL     OW15787  14.536   5.732   9.039
71297SOL    HW115788  14.504   5.817   9.068
71297SOL    HW215789  14.467   5.671   9.064
71298SOL     OW15790   0.563  10.673   2.633
71298SOL    HW115791   0.556  10.768   2.619
71298SOL    HW215792   0.584  10.665   2.726
71299SOL     OW15793   8.279   6.102  12.290
71299SOL    HW115794   8.223   6.169  12.252
71299SOL    HW215795   8.226   6.063  12.359
71300SOL     OW15796   2.630   5.900   8.404
71300SOL    HW115797   2.550   5.953   8.412
71300SOL    HW215798   2.682   5.945   8.338
71301SOL     OW15799  12.795   2.909   6.654
71301SOL    HW115800  12.837   2.944   6.733
71301SOL    HW215801  12.866   2.902   6.590
71302SOL     OW15802   9.715  12.722   8.346
71302SOL    HW115803   9.710  12.789   8.277
71302SOL    HW215804   9.701  12.770   8.427
71303SOL     OW15805   6.406   1.749   5.855
71303SOL    HW115806   6.331   1.791   5.898
71303SOL    HW215807   6.477   1.812   5.863
71304SOL     OW15808   5.083   2.046  13.606
71304SOL    HW115809   5.137   2.062  13.683
71304SOL    HW215810   5.014   1.987  13.636
71305SOL     OW15811   0.142   9.389   5.425
71305SOL    HW115812   0.098   9.338   5.356
71305SOL    HW215813   0.071   9.440   5.465
71306SOL     OW15814   1.468   7.011  14.811
71306SOL    HW115815   1.463   7.067  14.733
71306SOL    HW215816   1.488   7.071   0.000
71307SOL     OW15817   0.021   8.584   9.711
71307SOL    HW115818   0.019   8.525   9.636
71307SOL    HW215819   0.069   8.536   9.778
71308SOL     OW15820  14.643   1.582   7.672
71308SOL    HW115821  14.703   1.656   7.685
71308SOL    HW215822  14.619   1.588   7.580
71309SOL     OW15823   0.586  12.362   1.688
71309SOL    HW115824   0.598  12.382   1.596
71309SOL    HW215825   0.501  12.401   1.710
71310SOL     OW15826   0.363  13.739   7.493
71310SOL    HW115827   0.393  13.827   7.473
71310SOL    HW215828   0.439  13.695   7.529
71311SOL     OW15829   9.108  10.001   5.343
71311SOL    HW115830   9.122  10.064   5.272
71311SOL    HW215831   9.168  10.029   5.412
71312SOL     OW15832   9.348  12.362  10.200
71312SOL    HW115833   9.348  12.289  10.138
71312SOL    HW215834   9.258  12.393  10.201
71313SOL     OW15835  11.351   9.745  14.788
71313SOL    HW115836  11.317   9.812  14.729
71313SOL    HW215837  11.274   9.717  14.838
71314SOL     OW15838  13.809   9.558  14.121
71314SOL    HW115839  13.862   9.547  14.042
71314SOL    HW215840  13.840   9.490  14.181
71315SOL     OW15841   4.572   0.395   3.206
71315SOL    HW115842   4.597   0.319   3.258
71315SOL    HW215843   4.580   0.469   3.266
71316SOL     OW15844  14.510   1.447   6.437
71316SOL    HW115845  14.549   1.502   6.370
71316SOL    HW215846  14.448   1.392   6.389
71317SOL     OW15847  13.498   9.840   9.431
71317SOL    HW115848  13.432   9.785   9.472
71317SOL    HW215849  13.493   9.818   9.338
71318SOL     OW15850  12.734   3.472   3.165
71318SOL    HW115851  12.818   3.440   3.133
71318SOL    HW215852  12.690   3.395   3.201
71319SOL     OW15853  12.690   5.421   4.495
71319SOL    HW115854  12.620   5.404   4.432
71319SOL    HW215855  12.749   5.482   4.450
71320SOL     OW15856   9.312   5.408   4.670
71320SOL    HW115857   9.370   5.473   4.629
71320SOL    HW215858   9.263   5.458   4.736
71321SOL     OW15859   7.205   1.229   2.809
71321SOL    HW115860   7.122   1.264   2.775
71321SOL    HW215861   7.253   1.201   2.732
71322SOL     OW15862   6.032  14.724   5.796
71322SOL    HW115863   6.124  14.722   5.823
71322SOL    HW215864   5.984  14.734   5.878
71323SOL     OW15865  11.972   5.052   7.004
71323SOL    HW115866  12.023   5.065   7.083
71323SOL    HW215867  12.032   5.074   6.933
71324SOL     OW15868  13.058   4.693  11.571
71324SOL    HW115869  13.137   4.743  11.591
71324SOL    HW215870  13.083   4.602  11.586
71325SOL     OW15871   1.233  14.342   2.724
71325SOL    HW115872   1.151  14.390   2.736
71325SOL    HW215873   1.288  14.371   2.797
71326SOL     OW15874  12.379   2.696  13.797
71326SOL    HW115875  12.384   2.788  13.823
71326SOL    HW215876  12.291   2.669  13.822
71327SOL     OW15877  12.891   9.318   7.630
71327SOL    HW115878  12.919   9.300   7.720
71327SOL    HW215879  12.842   9.400   7.637
71328SOL     OW15880   8.479  14.200  10.612
71328SOL    HW115881   8.495  14.113  10.577
71328SOL    HW215882   8.396  14.193  10.658
71329SOL     OW15883   0.629   2.534   8.921
71329SOL    HW115884   0.585   2.618   8.907
71329SOL    HW215885   0.607   2.482   8.844
71330SOL     OW15886  12.405   7.481   3.130
71330SOL    HW115887  12.336   7.419   3.107
71330SOL    HW215888  12.391   7.499   3.222
71331SOL     OW15889  11.066   5.806   5.007
71331SOL    HW115890  11.146   5.758   5.030
71331SOL    HW215891  11.080   5.894   5.041
71332SOL     OW15892   1.081   4.354   0.159
71332SOL    HW115893   0.986   4.352   0.149
71332SOL    HW215894   1.111   4.271   0.120
71333SOL     OW15895   4.019   8.745   6.683
71333SOL    HW115896   3.934   8.708   6.707
71333SOL    HW215897   4.020   8.831   6.725
71334SOL     OW15898  12.081   2.950   2.117
71334SOL    HW115899  12.119   2.863   2.102
71334SOL    HW215900  12.013   2.936   2.183
71335SOL     OW15901   0.538   7.648   7.875
71335SOL    HW115902   0.488   7.728   7.864
71335SOL    HW215903   0.492   7.600   7.945
71336SOL     OW15904  14.243   8.827   8.611
71336SOL    HW115905  14.332   8.827   8.645
71336SOL    HW215906  14.189   8.806   8.688
71337SOL     OW15907  10.415  11.924   8.741
71337SOL    HW115908  10.476  11.969   8.799
71337SOL    HW215909  10.329  11.959   8.764
71338SOL     OW15910   7.874  10.072  14.002
71338SOL    HW115911   7.848   9.983  14.026
71338SOL    HW215912   7.863  10.122  14.083
71339SOL     OW15913  12.781  12.195   4.781
71339SOL    HW115914  12.691  12.191   4.813
71339SOL    HW215915  12.773  12.214   4.688
71340SOL     OW15916   2.298   2.885  10.537
71340SOL    HW115917   2.322   2.974  10.562
71340SOL    HW215918   2.363   2.829  10.580
71341SOL     OW15919  14.269  10.386   4.306
71341SOL    HW115920  14.233  10.299   4.288
71341SOL    HW215921  14.255  10.435   4.225
71342SOL     OW15922   3.441   1.448   5.731
71342SOL    HW115923   3.421   1.515   5.665
71342SOL    HW215924   3.397   1.370   5.699
71343SOL     OW15925   6.081   4.428   3.702
71343SOL    HW115926   6.087   4.342   3.744
71343SOL    HW215927   6.125   4.487   3.762
71344SOL     OW15928   8.540  10.384   0.857
71344SOL    HW115929   8.467  10.410   0.914
71344SOL    HW215930   8.556  10.292   0.879
71345SOL     OW15931  11.365   1.569   2.573
71345SOL    HW115932  11.408   1.561   2.658
71345SOL    HW215933  11.273   1.589   2.595
71346SOL     OW15934   7.043   6.422   2.106
71346SOL    HW115935   7.044   6.506   2.150
71346SOL    HW215936   7.020   6.359   2.174
71347SOL     OW15937   9.556   3.037   7.080
71347SOL    HW115938   9.466   3.060   7.054
71347SOL    HW215939   9.608   3.051   7.000
71348SOL     OW15940   2.183   5.459  14.207
71348SOL    HW115941   2.108   5.513  14.183
71348SOL    HW215942   2.164   5.373  14.170
71349SOL     OW15943   0.925  13.636   6.660
71349SOL    HW115944   0.977  13.605   6.734
71349SOL    HW215945   0.945  13.575   6.589
71350SOL     OW15946   5.963   3.070   4.938
71350SOL    HW115947   5.955   3.037   4.849
71350SOL    HW215948   5.920   3.005   4.992
71351SOL     OW15949  11.108   4.851  14.059
71351SOL    HW115950  11.137   4.830  13.970
71351SOL    HW215951  11.165   4.799  14.116
71352SOL     OW15952   8.098  12.804   5.106
71352SOL    HW115953   8.034  12.748   5.063
71352SOL    HW215954   8.045  12.873   5.147
71353SOL     OW15955  11.464  10.170   3.808
71353SOL    HW115956  11.430  10.225   3.879
71353SOL    HW215957  11.395  10.108   3.789
71354SOL     OW15958   2.132   4.843   2.123
71354SOL    HW115959   2.159   4.794   2.045
71354SOL    HW215960   2.195   4.818   2.190
71355SOL     OW15961   4.973   8.673  10.925
71355SOL    HW115962   5.013   8.587  10.942
71355SOL    HW215963   4.984   8.720  11.008
71356SOL     OW15964   1.765   7.829   3.512
71356SOL    HW115965   1.813   7.834   3.430
71356SOL    HW215966   1.832   7.814   3.578
71357SOL     OW15967  14.881  14.841   1.773
71357SOL    HW115968   0.021  14.787   1.697
71357SOL    HW215969   0.009   0.049   1.743
71358SOL     OW15970   9.303   0.107   0.825
71358SOL    HW115971   9.213   0.085   0.850
71358SOL    HW215972   9.353   0.027   0.844
71359SOL     OW15973   0.654   8.097   4.699
71359SOL    HW115974   0.668   8.039   4.624
71359SOL    HW215975   0.625   8.179   4.660
71360SOL     OW15976   1.337   0.026   3.222
71360SOL    HW115977   1.328  14.814   3.210
71360SOL    HW215978   1.348   0.061   3.133
71361SOL     OW15979  12.054   2.398  12.109
71361SOL    HW115980  12.141   2.372  12.139
71361SOL    HW215981  12.065   2.417  12.016
71362SOL     OW15982   2.883   9.360  11.668
71362SOL    HW115983   2.966   9.359  11.716
71362SOL    HW215984   2.903   9.408  11.587
71363SOL     OW15985   9.693  10.372   5.368
71363SOL    HW115986   9.637  10.359   5.445
71363SOL    HW215987   9.654  10.317   5.300
71364SOL     OW15988   9.917   9.256   1.475
71364SOL    HW115989   9.833   9.250   1.429
71364SOL    HW215990   9.921   9.346   1.507
71365SOL     OW15991   1.764   2.037  10.292
71365SOL    HW115992   1.745   2.126  10.321
71365SOL    HW215993   1.800   1.993  10.369
71366SOL     OW15994   2.946   3.307   6.868
71366SOL    HW115995   2.898   3.225   6.859
71366SOL    HW215996   2.974   3.309   6.960
71367SOL     OW15997   0.817   2.001   8.734
71367SOL    HW115998   0.789   2.081   8.778
71367SOL    HW215999   0.783   1.931   8.789
71368SOL     OW16000  10.910   2.434  14.547
71368SOL    HW116001  10.919   2.425  14.642
71368SOL    HW216002  10.926   2.346  14.513
71369SOL     OW16003   4.546  11.243  10.543
71369SOL    HW116004   4.590  11.215  10.463
71369SOL    HW216005   4.464  11.281  10.513
71370SOL     OW16006  10.199  14.667   7.410
71370SOL    HW116007  10.216  14.619   7.330
71370SOL    HW216008  10.157  14.748   7.381
71371SOL     OW16009   3.567  13.069   1.097
71371SOL    HW116010   3.471  13.064   1.091
71371SOL    HW216011   3.586  13.049   1.189
71372SOL     OW16012   3.069   2.754   3.045
71372SOL    HW116013   3.052   2.828   2.987
71372SOL    HW216014   3.029   2.679   3.001
71373SOL     OW16015   2.836  13.116  12.431
71373SOL    HW116016   2.898  13.078  12.493
71373SOL    HW216017   2.791  13.040  12.392
71374SOL     OW16018   2.714   1.013   0.497
71374SOL    HW116019   2.672   1.063   0.426
71374SOL    HW216020   2.668   1.040   0.576
71375SOL     OW16021   6.767  12.445   9.121
71375SOL    HW116022   6.769  12.371   9.060
71375SOL    HW216023   6.824  12.418   9.193
71376SOL     OW16024  14.292  13.377   4.560
71376SOL    HW116025  14.247  13.371   4.644
71376SOL    HW216026  14.288  13.288   4.524
71377SOL     OW16027   8.436  14.151   8.094
71377SOL    HW116028   8.476  14.078   8.141
71377SOL    HW216029   8.500  14.174   8.027
71378SOL     OW16030   7.672   4.907  11.514
71378SOL    HW116031   7.604   4.941  11.572
71378SOL    HW216032   7.627   4.839  11.463
71379SOL     OW16033   4.764   5.665  12.260
71379SOL    HW116034   4.702   5.699  12.195
71379SOL    HW216035   4.749   5.718  12.338
71380SOL     OW16036   9.269   2.351  13.603
71380SOL    HW116037   9.229   2.276  13.646
71380SOL    HW216038   9.312   2.315  13.526
71381SOL     OW16039   5.068   1.704   5.057
71381SOL    HW116040   5.046   1.772   4.993
71381SOL    HW216041   4.996   1.706   5.120
71382SOL     OW16042   4.565   2.031   9.323
71382SOL    HW116043   4.655   2.031   9.355
71382SOL    HW216044   4.557   1.949   9.274
71383SOL     OW16045   9.059   6.527   4.771
71383SOL    HW116046   9.006   6.456   4.807
71383SOL    HW216047   9.019   6.606   4.807
71384SOL     OW16048   8.999   2.701  14.178
71384SOL    HW116049   9.059   2.627  14.170
71384SOL    HW216050   9.031   2.750  14.254
71385SOL     OW16051   7.349  14.105   9.767
71385SOL    HW116052   7.358  14.196   9.740
71385SOL    HW216053   7.319  14.059   9.689
71386SOL     OW16054   8.902   1.970   9.215
71386SOL    HW116055   8.974   2.025   9.185
71386SOL    HW216056   8.941   1.914   9.283
71387SOL     OW16057   3.872   0.144   6.923
71387SOL    HW116058   3.892   0.146   7.016
71387SOL    HW216059   3.815   0.067   6.913
71388SOL     OW16060   2.654   8.254   3.167
71388SOL    HW116061   2.593   8.299   3.226
71388SOL    HW216062   2.682   8.322   3.105
71389SOL     OW16063   4.486   7.636   8.923
71389SOL    HW116064   4.479   7.671   9.012
71389SOL    HW216065   4.522   7.548   8.935
71390SOL     OW16066   3.164  14.591  11.687
71390SOL    HW116067   3.177  14.644  11.608
71390SOL    HW216068   3.101  14.640  11.740
71391SOL     OW16069  10.147   8.485   7.322
71391SOL    HW116070  10.173   8.454   7.236
71391SOL    HW216071  10.182   8.420   7.383
71392SOL     OW16072   7.763   6.557  10.341
71392SOL    HW116073   7.675   6.566  10.303
71392SOL    HW216074   7.748   6.525  10.430
71393SOL     OW16075   4.320   1.630   7.933
71393SOL    HW116076   4.274   1.599   8.011
71393SOL    HW216077   4.259   1.613   7.861
71394SOL     OW16078   1.763  10.994   2.264
71394SOL    HW116079   1.846  10.946   2.259
71394SOL    HW216080   1.696  10.928   2.244
71395SOL     OW16081  10.241   6.411  12.526
71395SOL    HW116082  10.191   6.333  12.500
71395SOL    HW216083  10.262   6.396  12.618
71396SOL     OW16084  14.454   0.435   1.497
71396SOL    HW116085  14.374   0.383   1.506
71396SOL    HW216086  14.424   0.518   1.461
71397SOL     OW16087  13.946  14.200   2.411
71397SOL    HW116088  13.999  14.190   2.490
71397SOL    HW216089  13.966  14.287   2.378
71398SOL     OW16090  14.030  10.417   3.933
71398SOL    HW116091  14.032  10.413   3.838
71398SOL    HW216092  13.937  10.422   3.956
71399SOL     OW16093   3.992  14.814   0.120
71399SOL    HW116094   3.957  14.759   0.189
71399SOL    HW216095   3.972   0.021   0.147
71400SOL     OW16096   8.715  10.848   9.485
71400SOL    HW116097   8.646  10.828   9.548
71400SOL    HW216098   8.723  10.768   9.432
71401SOL     OW16099   8.712   8.082   7.698
71401SOL    HW116100   8.624   8.056   7.671
71401SOL    HW216101   8.703   8.106   7.790
71402SOL     OW16102   3.548  12.509   5.698
71402SOL    HW116103   3.492  12.447   5.652
71402SOL    HW216104   3.511  12.595   5.679
71403SOL     OW16105   9.878   2.295   1.832
71403SOL    HW116106   9.938   2.221   1.825
71403SOL    HW216107   9.890   2.328   1.921
71404SOL     OW16108  12.527   1.086  13.448
71404SOL    HW116109  12.542   1.080  13.354
71404SOL    HW216110  12.610   1.056  13.487
71405SOL     OW16111  12.351  14.603   1.430
71405SOL    HW116112  12.435  14.567   1.459
71405SOL    HW216113  12.372  14.694   1.405
71406SOL     OW16114   5.283   4.219   3.117
71406SOL    HW116115   5.254   4.261   3.199
71406SOL    HW216116   5.345   4.152   3.145
71407SOL     OW16117  11.541   2.742  12.610
71407SOL    HW116118  11.502   2.679  12.549
71407SOL    HW216119  11.467   2.792  12.644
71408SOL     OW16120   1.148   3.722   0.676
71408SOL    HW116121   1.238   3.694   0.661
71408SOL    HW216122   1.104   3.709   0.593
71409SOL     OW16123   7.012   7.427   3.333
71409SOL    HW116124   6.990   7.425   3.427
71409SOL    HW216125   6.944   7.482   3.294
71410SOL     OW16126   4.605   6.101   3.157
71410SOL    HW116127   4.604   6.082   3.063
71410SOL    HW216128   4.546   6.037   3.195
71411SOL     OW16129   1.220   8.738   3.852
71411SOL    HW116130   1.310   8.706   3.854
71411SOL    HW216131   1.166   8.660   3.859
71412SOL     OW16132  13.372  10.023   0.192
71412SOL    HW116133  13.429   9.973   0.134
71412SOL    HW216134  13.313  10.071   0.134
71413SOL     OW16135   1.879   7.403  10.053
71413SOL    HW116136   1.853   7.351   9.977
71413SOL    HW216137   1.861   7.346  10.128
71414SOL     OW16138  11.926  12.163   3.922
71414SOL    HW116139  11.832  12.149   3.929
71414SOL    HW216140  11.966  12.090   3.968
71415SOL     OW16141   1.513  13.254  10.795
71415SOL    HW116142   1.597  13.299  10.798
71415SOL    HW216143   1.450  13.315  10.834
71416SOL     OW16144   3.429   8.125   3.187
71416SOL    HW116145   3.416   8.072   3.108
71416SOL    HW216146   3.447   8.061   3.256
71417SOL     OW16147   7.819   3.281   9.942
71417SOL    HW116148   7.821   3.253  10.034
71417SOL    HW216149   7.784   3.205   9.895
71418SOL     OW16150   4.619   4.248  12.243
71418SOL    HW116151   4.686   4.216  12.303
71418SOL    HW216152   4.627   4.344  12.247
71419SOL     OW16153   9.421   7.245  12.286
71419SOL    HW116154   9.502   7.246  12.235
71419SOL    HW216155   9.428   7.168  12.342
71420SOL     OW16156  14.284  13.870   3.056
71420SOL    HW116157  14.319  13.783   3.038
71420SOL    HW216158  14.270  13.871   3.151
71421SOL     OW16159   8.027   5.984  12.745
71421SOL    HW116160   8.095   5.955  12.806
71421SOL    HW216161   7.946   5.946  12.779
71422SOL     OW16162   6.369   0.001  12.000
71422SOL    HW116163   6.278   0.011  12.029
71422SOL    HW216164   6.388   0.081  11.950
71423SOL     OW16165   6.951   6.789   3.019
71423SOL    HW116166   6.881   6.815   3.080
71423SOL    HW216167   7.031   6.816   3.063
71424SOL     OW16168  12.578  11.495   5.136
71424SOL    HW116169  12.518  11.568   5.154
71424SOL    HW216170  12.521  11.419   5.126
71425SOL     OW16171  13.514   8.930   8.347
71425SOL    HW116172  13.428   8.905   8.314
71425SOL    HW216173  13.510   9.025   8.356
71426SOL     OW16174   9.188   7.984   8.790
71426SOL    HW116175   9.282   7.999   8.800
71426SOL    HW216176   9.157   8.060   8.740
71427SOL     OW16177  12.907   9.541   5.664
71427SOL    HW116178  12.975   9.596   5.626
71427SOL    HW216179  12.945   9.510   5.746
71428SOL     OW16180   0.904   7.459  11.087
71428SOL    HW116181   0.819   7.417  11.088
71428SOL    HW216182   0.962   7.399  11.134
71429SOL     OW16183   9.615   0.648   5.241
71429SOL    HW116184   9.537   0.594   5.235
71429SOL    HW216185   9.657   0.621   5.323
71430SOL     OW16186   7.605  10.002   1.596
71430SOL    HW116187   7.645   9.918   1.616
71430SOL    HW216188   7.584  10.041   1.681
71431SOL     OW16189  14.670  14.513   4.489
71431SOL    HW116190  14.725  14.546   4.561
71431SOL    HW216191  14.681  14.418   4.492
71432SOL     OW16192   0.665  13.902   2.151
71432SOL    HW116193   0.680  13.940   2.064
71432SOL    HW216194   0.622  13.819   2.134
71433SOL     OW16195   4.030   4.858   7.577
71433SOL    HW116196   4.030   4.869   7.482
71433SOL    HW216197   3.954   4.909   7.607
71434SOL     OW16198   8.888   8.788   7.525
71434SOL    HW116199   8.872   8.782   7.620
71434SOL    HW216200   8.819   8.734   7.486
71435SOL     OW16201  11.214   5.431   4.289
71435SOL    HW116202  11.256   5.504   4.243
71435SOL    HW216203  11.282   5.397   4.347
71436SOL     OW16204  13.975   9.778   6.167
71436SOL    HW116205  13.944   9.850   6.112
71436SOL    HW216206  13.907   9.711   6.158
71437SOL     OW16207   1.076  14.695   6.023
71437SOL    HW116208   1.084  14.649   6.107
71437SOL    HW216209   1.081  14.788   6.046
71438SOL     OW16210  10.558   5.593   9.780
71438SOL    HW116211  10.577   5.673   9.831
71438SOL    HW216212  10.478   5.614   9.732
71439SOL     OW16213  12.135  14.053   3.604
71439SOL    HW116214  12.050  14.009   3.609
71439SOL    HW216215  12.169  14.030   3.517
71440SOL     OW16216   7.477   6.560  12.887
71440SOL    HW116217   7.438   6.509  12.816
71440SOL    HW216218   7.560   6.515  12.907
71441SOL     OW16219   0.188  10.428   5.025
71441SOL    HW116220   0.187  10.438   5.120
71441SOL    HW216221   0.131  10.352   5.009
71442SOL     OW16222   2.445   5.068   9.418
71442SOL    HW116223   2.473   5.110   9.500
71442SOL    HW216224   2.501   5.106   9.351
71443SOL     OW16225  12.556  10.129   4.427
71443SOL    HW116226  12.621  10.184   4.472
71443SOL    HW216227  12.497  10.099   4.496
71444SOL     OW16228   0.516   1.648   0.352
71444SOL    HW116229   0.559   1.564   0.367
71444SOL    HW216230   0.529   1.665   0.258
71445SOL     OW16231  13.289   6.648   2.649
71445SOL    HW116232  13.204   6.640   2.607
71445SOL    HW216233  13.304   6.742   2.656
71446SOL     OW16234   5.133   1.178   7.543
71446SOL    HW116235   5.115   1.167   7.636
71446SOL    HW216236   5.074   1.115   7.500
71447SOL     OW16237   1.805   4.652   4.456
71447SOL    HW116238   1.828   4.730   4.506
71447SOL    HW216239   1.716   4.630   4.484
71448SOL     OW16240   1.607  13.683   2.466
71448SOL    HW116241   1.604  13.618   2.396
71448SOL    HW216242   1.566  13.640   2.541
71449SOL     OW16243   0.090   0.901  13.652
71449SOL    HW116244   0.068   0.809  13.640
71449SOL    HW216245   0.007   0.947  13.640
71450SOL     OW16246  11.747   4.818  14.416
71450SOL    HW116247  11.796   4.877  14.359
71450SOL    HW216248  11.656   4.831  14.391
71451SOL     OW16249   3.974   9.783   5.462
71451SOL    HW116250   3.884   9.775   5.493
71451SOL    HW216251   3.980   9.719   5.391
71452SOL     OW16252   2.363  12.947   6.986
71452SOL    HW116253   2.281  12.948   6.938
71452SOL    HW216254   2.342  12.902   7.068
71453SOL     OW16255  12.344  10.556   6.901
71453SOL    HW116256  12.338  10.469   6.941
71453SOL    HW216257  12.346  10.616   6.975
71454SOL     OW16258   3.952   8.451   8.754
71454SOL    HW116259   4.044   8.475   8.769
71454SOL    HW216260   3.929   8.397   8.829
71455SOL     OW16261   4.765   4.653   2.620
71455SOL    HW116262   4.773   4.601   2.700
71455SOL    HW216263   4.840   4.712   2.622
71456SOL     OW16264  12.232   4.507   4.372
71456SOL    HW116265  12.219   4.448   4.298
71456SOL    HW216266  12.193   4.461   4.446
71457SOL     OW16267  10.475  12.453  11.070
71457SOL    HW116268  10.415  12.382  11.048
71457SOL    HW216269  10.549  12.411  11.112
71458SOL     OW16270  11.346  13.404   1.908
71458SOL    HW116271  11.351  13.319   1.952
71458SOL    HW216272  11.414  13.402   1.842
71459SOL     OW16273   6.137   5.574   2.614
71459SOL    HW116274   6.133   5.535   2.702
71459SOL    HW216275   6.060   5.540   2.569
71460SOL     OW16276   7.506  11.585   7.801
71460SOL    HW116277   7.506  11.641   7.879
71460SOL    HW216278   7.529  11.498   7.834
71461SOL     OW16279  13.344   3.671   0.801
71461SOL    HW116280  13.402   3.654   0.726
71461SOL    HW216281  13.332   3.766   0.800
71462SOL     OW16282   9.907   8.900   9.382
71462SOL    HW116283   9.883   8.966   9.317
71462SOL    HW216284   9.994   8.870   9.355
71463SOL     OW16285   7.953  14.186   8.031
71463SOL    HW116286   7.975  14.205   8.122
71463SOL    HW216287   7.929  14.094   8.030
71464SOL     OW16288   2.104   8.536   0.747
71464SOL    HW116289   2.142   8.623   0.733
71464SOL    HW216290   2.099   8.498   0.660
71465SOL     OW16291  12.269   9.635  10.959
71465SOL    HW116292  12.329   9.628  11.033
71465SOL    HW216293  12.182   9.640  10.999
71466SOL     OW16294   3.079   3.013   5.858
71466SOL    HW116295   3.119   3.007   5.771
71466SOL    HW216296   2.986   2.998   5.842
71467SOL     OW16297  12.242   4.889  12.842
71467SOL    HW116298  12.324   4.916  12.801
71467SOL    HW216299  12.182   4.876  12.769
71468SOL     OW16300  10.298   3.259   2.419
71468SOL    HW116301  10.263   3.175   2.388
71468SOL    HW216302  10.222   3.305   2.454
71469SOL     OW16303   2.437   4.496  12.383
71469SOL    HW116304   2.406   4.492  12.293
71469SOL    HW216305   2.374   4.443  12.432
71470SOL     OW16306   6.419   6.682   4.039
71470SOL    HW116307   6.463   6.616   3.986
71470SOL    HW216308   6.437   6.764   3.994
71471SOL     OW16309  10.158   2.414   0.810
71471SOL    HW116310  10.187   2.437   0.898
71471SOL    HW216311  10.239   2.402   0.760
71472SOL     OW16312   8.918   6.940   4.665
71472SOL    HW116313   8.925   7.023   4.711
71472SOL    HW216314   8.868   6.883   4.724
71473SOL     OW16315   8.635   8.379   7.399
71473SOL    HW116316   8.601   8.295   7.370
71473SOL    HW216317   8.559   8.425   7.435
71474SOL     OW16318   1.316   4.278   4.305
71474SOL    HW116319   1.403   4.303   4.337
71474SOL    HW216320   1.332   4.201   4.251
71475SOL     OW16321   4.939   9.754   0.852
71475SOL    HW116322   4.943   9.848   0.836
71475SOL    HW216323   4.847   9.732   0.843
71476SOL     OW16324   1.753   0.016   1.647
71476SOL    HW116325   1.722   0.100   1.614
71476SOL    HW216326   1.813   0.038   1.718
71477SOL     OW16327   1.930   8.195  12.524
71477SOL    HW116328   1.917   8.257  12.452
71477SOL    HW216329   1.945   8.250  12.601
71478SOL     OW16330   2.581   6.989   4.163
71478SOL    HW116331   2.583   6.905   4.209
71478SOL    HW216332   2.543   7.051   4.226
71479SOL     OW16333  14.011   9.283  11.626
71479SOL    HW116334  14.067   9.359  11.641
71479SOL    HW216335  13.949   9.284  11.699
71480SOL     OW16336   5.961  12.238   3.197
71480SOL    HW116337   5.955  12.197   3.283
71480SOL    HW216338   5.929  12.327   3.210
71481SOL     OW16339   5.246   8.486   6.269
71481SOL    HW116340   5.310   8.441   6.324
71481SOL    HW216341   5.198   8.415   6.226
71482SOL     OW16342   7.741  13.291   5.584
71482SOL    HW116343   7.761  13.370   5.634
71482SOL    HW216344   7.663  13.313   5.533
71483SOL     OW16345  11.640  13.154   7.863
71483SOL    HW116346  11.716  13.212   7.858
71483SOL    HW216347  11.621  13.146   7.957
71484SOL     OW16348   0.348   9.396   7.600
71484SOL    HW116349   0.397   9.319   7.629
71484SOL    HW216350   0.261   9.385   7.639
71485SOL     OW16351  14.511   8.112   3.940
71485SOL    HW116352  14.528   8.131   3.847
71485SOL    HW216353  14.556   8.030   3.956
71486SOL     OW16354   3.742  11.478   5.461
71486SOL    HW116355   3.655  11.438   5.453
71486SOL    HW216356   3.793  11.416   5.513
71487SOL     OW16357   3.415   9.364   2.918
71487SOL    HW116358   3.443   9.449   2.953
71487SOL    HW216359   3.494   9.310   2.920
71488SOL     OW16360   3.408   3.763   4.826
71488SOL    HW116361   3.446   3.709   4.894
71488SOL    HW216362   3.443   3.727   4.744
71489SOL     OW16363  11.110   0.601   4.674
71489SOL    HW116364  11.044   0.559   4.618
71489SOL    HW216365  11.193   0.564   4.645
71490SOL     OW16366   2.815   7.544   7.225
71490SOL    HW116367   2.727   7.569   7.195
71490SOL    HW216368   2.814   7.566   7.318
71491SOL     OW16369   5.004   2.858   8.664
71491SOL    HW116370   4.929   2.863   8.605
71491SOL    HW216371   5.064   2.798   8.620
71492SOL     OW16372   9.766   8.959   7.152
71492SOL    HW116373   9.732   8.927   7.068
71492SOL    HW216374   9.727   9.045   7.163
71493SOL     OW16375   6.624   7.141  12.281
71493SOL    HW116376   6.665   7.223  12.255
71493SOL    HW216377   6.661   7.075  12.222
71494SOL     OW16378   8.863   0.881   7.126
71494SOL    HW116379   8.824   0.796   7.147
71494SOL    HW216380   8.957   0.867   7.135
71495SOL     OW16381  11.261   1.079   7.283
71495SOL    HW116382  11.247   1.136   7.359
71495SOL    HW216383  11.336   1.025   7.306
71496SOL     OW16384   8.598   0.815   9.655
71496SOL    HW116385   8.690   0.795   9.640
71496SOL    HW216386   8.563   0.737   9.699
71497SOL     OW16387  13.620   5.902  10.116
71497SOL    HW116388  13.655   5.900  10.027
71497SOL    HW216389  13.648   5.819  10.155
71498SOL     OW16390   4.305  11.906  11.146
71498SOL    HW116391   4.232  11.844  11.144
71498SOL    HW216392   4.368  11.868  11.207
71499SOL     OW16393  11.939   8.140   4.793
71499SOL    HW116394  11.913   8.232   4.789
71499SOL    HW216395  11.863   8.095   4.830
71500SOL     OW16396   9.238   7.342   8.668
71500SOL    HW116397   9.167   7.354   8.730
71500SOL    HW216398   9.208   7.386   8.588
71501SOL     OW16399  12.958   1.350   3.151
71501SOL    HW116400  12.928   1.359   3.241
71501SOL    HW216401  13.045   1.390   3.151
71502SOL     OW16402   1.602  12.518  13.772
71502SOL    HW116403   1.654  12.565  13.708
71502SOL    HW216404   1.517  12.562  13.771
71503SOL     OW16405   9.366   0.252   7.917
71503SOL    HW116406   9.278   0.289   7.921
71503SOL    HW216407   9.380   0.231   7.825
71504SOL     OW16408   4.971  12.166   7.767
71504SOL    HW116409   5.055  12.195   7.729
71504SOL    HW216410   4.920  12.246   7.776
71505SOL     OW16411   5.635  14.870   8.419
71505SOL    HW116412   5.722  14.836   8.401
71505SOL    HW216413   5.578  14.826   8.356
71506SOL     OW16414   3.486  10.674   5.385
71506SOL    HW116415   3.399  10.709   5.366
71506SOL    HW216416   3.546  10.733   5.339
71507SOL     OW16417   3.737   6.452   1.754
71507SOL    HW116418   3.818   6.484   1.793
71507SOL    HW216419   3.743   6.478   1.662
71508SOL     OW16420   0.833   4.795   4.806
71508SOL    HW116421   0.865   4.883   4.824
71508SOL    HW216422   0.769   4.806   4.736
71509SOL     OW16423  10.812   6.212   3.892
71509SOL    HW116424  10.793   6.141   3.954
71509SOL    HW216425  10.862   6.275   3.944
71510SOL     OW16426   0.654   1.136   7.388
71510SOL    HW116427   0.620   1.217   7.351
71510SOL    HW216428   0.668   1.079   7.312
71511SOL     OW16429   4.403  11.918  12.291
71511SOL    HW116430   4.407  11.825  12.270
71511SOL    HW216431   4.413  11.962  12.206
71512SOL     OW16432   2.757   1.013   5.019
71512SOL    HW116433   2.723   0.929   5.050
71512SOL    HW216434   2.727   1.018   4.928
71513SOL     OW16435   4.024   8.139  13.563
71513SOL    HW116436   3.938   8.142  13.604
71513SOL    HW216437   4.032   8.049  13.530
71514SOL     OW16438  12.481  14.166   4.526
71514SOL    HW116439  12.530  14.156   4.445
71514SOL    HW216440  12.511  14.093   4.581
71515SOL     OW16441   2.739   5.412   0.463
71515SOL    HW116442   2.746   5.318   0.445
71515SOL    HW216443   2.817   5.450   0.424
71516SOL     OW16444  10.875  10.725  11.323
71516SOL    HW116445  10.791  10.684  11.302
71516SOL    HW216446  10.916  10.667  11.387
71517SOL     OW16447   4.477  12.424  14.228
71517SOL    HW116448   4.419  12.487  14.184
71517SOL    HW216449   4.490  12.462  14.316
71518SOL     OW16450   0.313   8.844   8.874
71518SOL    HW116451   0.408   8.845   8.874
71518SOL    HW216452   0.289   8.785   8.802
71519SOL     OW16453   7.280  14.699  14.475
71519SOL    HW116454   7.359  14.742  14.442
71519SOL    HW216455   7.285  14.609  14.442
71520SOL     OW16456   6.435   9.076   9.715
71520SOL    HW116457   6.484   9.018   9.773
71520SOL    HW216458   6.501   9.107   9.652
71521SOL     OW16459   0.154  14.442  12.661
71521SOL    HW116460   0.100  14.391  12.600
71521SOL    HW216461   0.169  14.525  12.617
71522SOL     OW16462   1.591  12.149   7.129
71522SOL    HW116463   1.562  12.074   7.180
71522SOL    HW216464   1.516  12.170   7.074
71523SOL     OW16465  13.646  13.250   1.066
71523SOL    HW116466  13.720  13.266   1.008
71523SOL    HW216467  13.681  13.193   1.135
71524SOL     OW16468  13.783  11.527   4.236
71524SOL    HW116469  13.861  11.576   4.211
71524SOL    HW216470  13.754  11.567   4.318
71525SOL     OW16471   6.024  11.969   4.788
71525SOL    HW116472   5.968  12.011   4.853
71525SOL    HW216473   5.983  11.988   4.704
71526SOL     OW16474   7.907  10.849   7.748
71526SOL    HW116475   7.820  10.872   7.780
71526SOL    HW216476   7.939  10.785   7.812
71527SOL     OW16477  13.000  11.289  14.625
71527SOL    HW116478  12.960  11.202  14.634
71527SOL    HW216479  12.971  11.320  14.540
71528SOL     OW16480  11.124  11.965   3.990
71528SOL    HW116481  11.104  11.879   4.028
71528SOL    HW216482  11.136  11.947   3.897
71529SOL     OW16483  13.929   5.514  13.925
71529SOL    HW116484  13.889   5.427  13.923
71529SOL    HW216485  13.933   5.541  13.833
71530SOL     OW16486   6.247  14.706   7.175
71530SOL    HW116487   6.258  14.647   7.249
71530SOL    HW216488   6.158  14.739   7.184
71531SOL     OW16489  10.791   0.030   9.285
71531SOL    HW116490  10.737   0.024   9.364
71531SOL    HW216491  10.866  14.855   9.303
71532SOL     OW16492   2.824   2.488   5.338
71532SOL    HW116493   2.807   2.581   5.323
71532SOL    HW216494   2.916   2.476   5.315
71533SOL     OW16495  14.489  11.316   9.224
71533SOL    HW116496  14.540  11.392   9.252
71533SOL    HW216497  14.467  11.270   9.305
71534SOL     OW16498  13.844   8.611   9.304
71534SOL    HW116499  13.794   8.584   9.227
71534SOL    HW216500  13.814   8.553   9.374
71535SOL     OW16501  14.411   2.643  12.997
71535SOL    HW116502  14.424   2.727  12.954
71535SOL    HW216503  14.473   2.584  12.955
71536SOL     OW16504  14.758  13.500   8.986
71536SOL    HW116505  14.737  13.551   9.064
71536SOL    HW216506  14.779  13.566   8.920
71537SOL     OW16507   4.450  12.901  14.615
71537SOL    HW116508   4.383  12.832  14.615
71537SOL    HW216509   4.495  12.889  14.699
71538SOL     OW16510  11.098  11.042  12.042
71538SOL    HW116511  11.039  11.016  11.971
71538SOL    HW216512  11.143  10.961  12.066
71539SOL     OW16513   0.369   5.702   5.997
71539SOL    HW116514   0.295   5.653   6.032
71539SOL    HW216515   0.442   5.680   6.056
71540SOL     OW16516   1.156  10.965   5.121
71540SOL    HW116517   1.206  10.889   5.149
71540SOL    HW216518   1.112  10.996   5.201
71541SOL     OW16519   8.702   3.976   5.828
71541SOL    HW116520   8.661   3.904   5.876
71541SOL    HW216521   8.722   3.940   5.742
71542SOL     OW16522  14.483  13.561   5.836
71542SOL    HW116523  14.567  13.585   5.876
71542SOL    HW216524  14.460  13.637   5.783
71543SOL     OW16525  14.580   1.502   5.586
71543SOL    HW116526  14.550   1.536   5.671
71543SOL    HW216527  14.584   1.407   5.599
71544SOL     OW16528   2.120   7.811   0.170
71544SOL    HW116529   2.209   7.837   0.147
71544SOL    HW216530   2.078   7.789   0.087
71545SOL     OW16531   5.070   0.438   7.999
71545SOL    HW116532   4.996   0.379   8.000
71545SOL    HW216533   5.076   0.469   7.909
71546SOL     OW16534   1.420  14.354   5.468
71546SOL    HW116535   1.441  14.447   5.458
71546SOL    HW216536   1.349  14.353   5.532
71547SOL     OW16537   7.020   5.177   6.163
71547SOL    HW116538   7.002   5.242   6.096
71547SOL    HW216539   7.064   5.226   6.233
71548SOL     OW16540  14.693  10.528   8.355
71548SOL    HW116541  14.720  10.437   8.350
71548SOL    HW216542  14.666  10.550   8.266
71549SOL     OW16543   4.029   8.977   6.826
71549SOL    HW116544   3.986   9.036   6.889
71549SOL    HW216545   4.055   9.035   6.754
71550SOL     OW16546   5.071   5.548   8.873
71550SOL    HW116547   4.984   5.510   8.857
71550SOL    HW216548   5.094   5.518   8.961
71551SOL     OW16549  12.181   2.895   2.858
71551SOL    HW116550  12.240   2.833   2.815
71551SOL    HW216551  12.237   2.946   2.917
71552SOL     OW16552  11.605   0.651   3.456
71552SOL    HW116553  11.544   0.624   3.388
71552SOL    HW216554  11.689   0.612   3.431
71553SOL     OW16555   3.262   5.671   8.662
71553SOL    HW116556   3.308   5.749   8.694
71553SOL    HW216557   3.234   5.626   8.742
71554SOL     OW16558   1.648   5.682   3.987
71554SOL    HW116559   1.614   5.653   3.902
71554SOL    HW216560   1.570   5.696   4.040
71555SOL     OW16561  10.307   5.949   7.596
71555SOL    HW116562  10.385   5.976   7.547
71555SOL    HW216563  10.262   5.888   7.537
71556SOL     OW16564   9.236   2.274   1.907
71556SOL    HW116565   9.314   2.247   1.956
71556SOL    HW216566   9.171   2.207   1.927
71557SOL     OW16567  11.178   1.262   4.971
71557SOL    HW116568  11.118   1.331   4.942
71557SOL    HW216569  11.164   1.256   5.065
71558SOL     OW16570  11.726   6.851   5.909
71558SOL    HW116571  11.675   6.828   5.832
71558SOL    HW216572  11.722   6.947   5.913
71559SOL     OW16573   6.471   0.784  13.387
71559SOL    HW116574   6.537   0.715  13.378
71559SOL    HW216575   6.423   0.783  13.305
71560SOL     OW16576   3.763   5.940   5.767
71560SOL    HW116577   3.824   5.992   5.715
71560SOL    HW216578   3.813   5.863   5.793
71561SOL     OW16579   8.140   8.081   0.197
71561SOL    HW116580   8.159   8.174   0.187
71561SOL    HW216581   8.192   8.039   0.128
71562SOL     OW16582   5.839   1.685   3.444
71562SOL    HW116583   5.866   1.600   3.410
71562SOL    HW216584   5.904   1.706   3.511
71563SOL     OW16585  10.793  12.835  12.552
71563SOL    HW116586  10.783  12.836  12.647
71563SOL    HW216587  10.885  12.813  12.538
71564SOL     OW16588   0.726  13.267  13.225
71564SOL    HW116589   0.750  13.328  13.295
71564SOL    HW216590   0.809  13.246  13.182
71565SOL     OW16591   1.936   7.007   4.243
71565SOL    HW116592   2.026   7.008   4.210
71565SOL    HW216593   1.946   6.986   4.336
71566SOL     OW16594   3.542  13.928   8.670
71566SOL    HW116595   3.524  13.981   8.748
71566SOL    HW216596   3.625  13.885   8.690
71567SOL     OW16597   5.322   1.130   1.956
71567SOL    HW116598   5.410   1.092   1.961
71567SOL    HW216599   5.313   1.159   1.865
71568SOL     OW16600   2.109  10.764  13.494
71568SOL    HW116601   2.164  10.803  13.426
71568SOL    HW216602   2.041  10.717  13.445
71569SOL     OW16603   8.286   6.993   7.746
71569SOL    HW116604   8.255   7.061   7.805
71569SOL    HW216605   8.212   6.932   7.740
71570SOL     OW16606  14.298   3.156  10.899
71570SOL    HW116607  14.243   3.233  10.883
71570SOL    HW216608  14.290   3.104  10.819
71571SOL     OW16609  13.733   8.796  14.783
71571SOL    HW116610  13.671   8.767  14.850
71571SOL    HW216611  13.736   8.723  14.720
71572SOL     OW16612   2.465   1.311   0.973
71572SOL    HW116613   2.423   1.320   1.059
71572SOL    HW216614   2.440   1.224   0.943
71573SOL     OW16615   4.037  11.937   9.854
71573SOL    HW116616   3.957  11.907   9.811
71573SOL    HW216617   4.074  11.859   9.895
71574SOL     OW16618  13.524   5.073   0.102
71574SOL    HW116619  13.607   5.076   0.054
71574SOL    HW216620  13.550   5.084   0.194
71575SOL     OW16621   2.808  11.313   0.195
71575SOL    HW116622   2.877  11.300   0.129
71575SOL    HW216623   2.823  11.403   0.226
71576SOL     OW16624   9.339   3.930  10.281
71576SOL    HW116625   9.326   3.985  10.204
71576SOL    HW216626   9.384   3.987  10.343
71577SOL     OW16627  13.429  10.863  12.192
71577SOL    HW116628  13.379  10.929  12.240
71577SOL    HW216629  13.450  10.904  12.108
71578SOL     OW16630   5.571  13.081  14.285
71578SOL    HW116631   5.558  13.175  14.275
71578SOL    HW216632   5.644  13.060  14.226
71579SOL     OW16633   6.500  11.146   4.898
71579SOL    HW116634   6.481  11.201   4.822
71579SOL    HW216635   6.578  11.186   4.937
71580SOL     OW16636   8.329  10.427   1.030
71580SOL    HW116637   8.374  10.376   1.096
71580SOL    HW216638   8.245  10.382   1.018
71581SOL     OW16639  11.858   7.063   1.548
71581SOL    HW116640  11.791   7.093   1.486
71581SOL    HW216641  11.929   7.126   1.539
71582SOL     OW16642  11.049   7.586   9.532
71582SOL    HW116643  10.977   7.539   9.490
71582SOL    HW216644  11.022   7.596   9.623
71583SOL     OW16645   1.393   1.617  10.834
71583SOL    HW116646   1.466   1.559  10.857
71583SOL    HW216647   1.319   1.558  10.819
71584SOL     OW16648   4.957  11.385   2.026
71584SOL    HW116649   4.991  11.473   2.039
71584SOL    HW216650   4.937  11.380   1.932
71585SOL     OW16651   5.937  10.057   5.544
71585SOL    HW116652   6.003  10.042   5.612
71585SOL    HW216653   5.866   9.997   5.566
71586SOL     OW16654  10.233  10.586   6.636
71586SOL    HW116655  10.322  10.569   6.666
71586SOL    HW216656  10.189  10.501   6.640
71587SOL     OW16657  10.594   2.783  10.785
71587SOL    HW116658  10.515   2.768  10.836
71587SOL    HW216659  10.612   2.877  10.795
71588SOL     OW16660   7.296   7.041   0.450
71588SOL    HW116661   7.355   7.102   0.494
71588SOL    HW216662   7.317   7.051   0.357
71589SOL     OW16663   5.353   3.044  11.069
71589SOL    HW116664   5.374   2.979  11.002
71589SOL    HW216665   5.372   3.001  11.152
71590SOL     OW16666   3.575   7.726   9.818
71590SOL    HW116667   3.494   7.741   9.867
71590SOL    HW216668   3.568   7.781   9.740
71591SOL     OW16669   8.749   9.173   9.343
71591SOL    HW116670   8.770   9.093   9.295
71591SOL    HW216671   8.696   9.144   9.417
71592SOL     OW16672  13.817   4.664   2.193
71592SOL    HW116673  13.829   4.652   2.287
71592SOL    HW216674  13.844   4.581   2.154
71593SOL     OW16675  11.328   7.039  10.487
71593SOL    HW116676  11.340   7.127  10.454
71593SOL    HW216677  11.324   6.984  10.409
71594SOL     OW16678   3.284  12.549  10.700
71594SOL    HW116679   3.292  12.483  10.769
71594SOL    HW216680   3.367  12.545  10.653
71595SOL     OW16681   9.099   0.319   3.070
71595SOL    HW116682   9.112   0.283   3.157
71595SOL    HW216683   9.185   0.353   3.045
71596SOL     OW16684   8.554  13.558  13.568
71596SOL    HW116685   8.618  13.486  13.572
71596SOL    HW216686   8.592  13.618  13.504
71597SOL     OW16687   0.456   0.991   0.647
71597SOL    HW116688   0.545   1.003   0.681
71597SOL    HW216689   0.422   1.080   0.636
71598SOL     OW16690   6.515  13.002   6.183
71598SOL    HW116691   6.488  12.910   6.182
71598SOL    HW216692   6.450  13.045   6.239
71599SOL     OW16693   0.515   5.732   9.519
71599SOL    HW116694   0.539   5.643   9.492
71599SOL    HW216695   0.599   5.777   9.529
71600SOL     OW16696   9.763  10.737  11.945
71600SOL    HW116697   9.692  10.680  11.917
71600SOL    HW216698   9.750  10.818  11.895
71601SOL     OW16699   3.091   4.440   9.885
71601SOL    HW116700   3.088   4.528   9.847
71601SOL    HW216701   3.158   4.445   9.953
71602SOL     OW16702   7.507   6.993   3.650
71602SOL    HW116703   7.451   6.977   3.726
71602SOL    HW216704   7.457   7.055   3.596
71603SOL     OW16705  11.030   4.188  13.047
71603SOL    HW116706  10.939   4.160  13.060
71603SOL    HW216707  11.079   4.107  13.034
71604SOL     OW16708   6.541   5.501  14.168
71604SOL    HW116709   6.586   5.585  14.171
71604SOL    HW216710   6.495   5.501  14.084
71605SOL     OW16711  10.884   9.087   4.988
71605SOL    HW116712  10.822   9.023   5.023
71605SOL    HW216713  10.864   9.168   5.037
71606SOL     OW16714  13.071   1.746  11.912
71606SOL    HW116715  13.129   1.731  11.986
71606SOL    HW216716  13.098   1.681  11.847
71607SOL     OW16717   0.925  12.245   5.421
71607SOL    HW116718   0.898  12.183   5.488
71607SOL    HW216719   1.009  12.212   5.390
71608SOL     OW16720  12.235  10.463  12.996
71608SOL    HW116721  12.170  10.494  13.059
71608SOL    HW216722  12.183  10.421  12.927
71609SOL     OW16723   1.500   0.440   8.364
71609SOL    HW116724   1.570   0.401   8.417
71609SOL    HW216725   1.422   0.433   8.419
71610SOL     OW16726   1.787   5.019  11.716
71610SOL    HW116727   1.710   4.971  11.746
71610SOL    HW216728   1.812   5.074  11.791
71611SOL     OW16729   5.269   7.961  10.954
71611SOL    HW116730   5.251   7.868  10.971
71611SOL    HW216731   5.185   7.996  10.923
71612SOL     OW16732  11.626   0.937   5.016
71612SOL    HW116733  11.646   0.982   4.933
71612SOL    HW216734  11.538   0.966   5.038
71613SOL     OW16735   6.314  10.935   6.315
71613SOL    HW116736   6.347  11.007   6.260
71613SOL    HW216737   6.231  10.911   6.275
71614SOL     OW16738   8.002  12.879  12.787
71614SOL    HW116739   8.021  12.789  12.760
71614SOL    HW216740   7.914  12.896  12.753
71615SOL     OW16741   9.100  13.789   5.966
71615SOL    HW116742   9.169  13.855   5.965
71615SOL    HW216743   9.020  13.837   5.945
71616SOL     OW16744   6.483   5.650   3.982
71616SOL    HW116745   6.450   5.585   4.043
71616SOL    HW216746   6.435   5.730   4.004
71617SOL     OW16747  11.036   6.005   3.821
71617SOL    HW116748  11.027   5.916   3.785
71617SOL    HW216749  10.955   6.049   3.795
71618SOL     OW16750   6.577   1.847  13.935
71618SOL    HW116751   6.579   1.756  13.905
71618SOL    HW216752   6.506   1.849  13.999
71619SOL     OW16753  12.860   1.899   6.572
71619SOL    HW116754  12.881   1.814   6.535
71619SOL    HW216755  12.767   1.894   6.595
71620SOL     OW16756   1.028   0.584   9.679
71620SOL    HW116757   1.045   0.675   9.652
71620SOL    HW216758   0.939   0.566   9.650
71621SOL     OW16759  12.964   6.473   2.930
71621SOL    HW116760  13.048   6.520   2.939
71621SOL    HW216761  12.911   6.530   2.875
71622SOL     OW16762  14.082   6.582  11.084
71622SOL    HW116763  14.162   6.613  11.126
71622SOL    HW216764  14.029   6.661  11.071
71623SOL     OW16765  12.864   5.434   1.628
71623SOL    HW116766  12.900   5.380   1.558
71623SOL    HW216767  12.917   5.514   1.627
71624SOL     OW16768  10.819  13.088  11.502
71624SOL    HW116769  10.823  13.034  11.423
71624SOL    HW216770  10.910  13.114  11.518
71625SOL     OW16771  10.181   0.854   8.816
71625SOL    HW116772  10.091   0.842   8.785
71625SOL    HW216773  10.173   0.859   8.912
71626SOL     OW16774  11.763   8.147  10.657
71626SOL    HW116775  11.817   8.085  10.608
71626SOL    HW216776  11.814   8.227  10.660
71627SOL     OW16777  10.462   3.799   8.736
71627SOL    HW116778  10.386   3.746   8.760
71627SOL    HW216779  10.429   3.863   8.673
71628SOL     OW16780  12.185   6.801  11.845
71628SOL    HW116781  12.250   6.834  11.782
71628SOL    HW216782  12.213   6.838  11.929
71629SOL     OW16783   6.410   6.820  14.336
71629SOL    HW116784   6.399   6.880  14.263
71629SOL    HW216785   6.459   6.746  14.299
71630SOL     OW16786  11.387   3.349   1.386
71630SOL    HW116787  11.471   3.329   1.346
71630SOL    HW216788  11.329   3.369   1.312
71631SOL     OW16789   6.321  13.019   8.994
71631SOL    HW116790   6.361  12.933   8.987
71631SOL    HW216791   6.382  13.071   9.047
71632SOL     OW16792  10.184   2.996  12.612
71632SOL    HW116793  10.158   3.089  12.608
71632SOL    HW216794  10.238   2.983  12.534
71633SOL     OW16795  13.597   6.713   7.628
71633SOL    HW116796  13.552   6.710   7.712
71633SOL    HW216797  13.585   6.802   7.597
71634SOL     OW16798  12.121   3.029   6.284
71634SOL    HW116799  12.205   3.006   6.243
71634SOL    HW216800  12.091   2.947   6.324
71635SOL     OW16801  10.463   6.880  11.767
71635SOL    HW116802  10.379   6.848  11.801
71635SOL    HW216803  10.450   6.975  11.758
71636SOL     OW16804   6.864   6.066   2.944
71636SOL    HW116805   6.877   6.157   2.917
71636SOL    HW216806   6.773   6.062   2.971
71637SOL     OW16807  14.393   7.874   8.352
71637SOL    HW116808  14.372   7.917   8.269
71637SOL    HW216809  14.381   7.942   8.419
71638SOL     OW16810   6.508   3.525   7.401
71638SOL    HW116811   6.552   3.455   7.448
71638SOL    HW216812   6.561   3.603   7.420
71639SOL     OW16813  12.024  10.534  11.058
71639SOL    HW116814  12.075  10.475  11.114
71639SOL    HW216815  12.045  10.507  10.969
71640SOL     OW16816  13.824   6.899   3.907
71640SOL    HW116817  13.806   6.872   3.997
71640SOL    HW216818  13.754   6.859   3.855
71641SOL     OW16819  10.330   0.590   8.936
71641SOL    HW116820  10.413   0.602   8.892
71641SOL    HW216821  10.326   0.496   8.957
71642SOL     OW16822  10.141   2.879   7.459
71642SOL    HW116823  10.154   2.926   7.541
71642SOL    HW216824  10.131   2.948   7.393
71643SOL     OW16825  11.059   9.010  13.211
71643SOL    HW116826  10.979   8.999  13.158
71643SOL    HW216827  11.078   8.922  13.243
71644SOL     OW16828   3.489   4.040   6.861
71644SOL    HW116829   3.530   4.090   6.790
71644SOL    HW216830   3.419   3.991   6.818
71645SOL     OW16831   2.321   2.266   0.509
71645SOL    HW116832   2.369   2.305   0.435
71645SOL    HW216833   2.388   2.256   0.577
71646SOL     OW16834  12.292  12.522  14.464
71646SOL    HW116835  12.309  12.432  14.437
71646SOL    HW216836  12.196  12.530  14.461
71647SOL     OW16837   3.420   2.770   4.131
71647SOL    HW116838   3.440   2.789   4.039
71647SOL    HW216839   3.503   2.782   4.177
71648SOL     OW16840   8.945   1.743  11.030
71648SOL    HW116841   8.898   1.793  11.097
71648SOL    HW216842   9.032   1.783  11.027
71649SOL     OW16843   9.956   3.174   2.188
71649SOL    HW116844   9.934   3.267   2.192
71649SOL    HW216845   9.971   3.157   2.095
71650SOL     OW16846  12.700   0.698   0.838
71650SOL    HW116847  12.695   0.604   0.858
71650SOL    HW216848  12.664   0.705   0.750
71651SOL     OW16849   8.686   0.408   4.920
71651SOL    HW116850   8.712   0.350   4.848
71651SOL    HW216851   8.593   0.423   4.905
71652SOL     OW16852   3.504   1.692   9.377
71652SOL    HW116853   3.426   1.668   9.426
71652SOL    HW216854   3.545   1.609   9.354
71653SOL     OW16855   4.391   9.916   1.073
71653SOL    HW116856   4.338   9.859   1.129
71653SOL    HW216857   4.383   9.879   0.986
71654SOL     OW16858   1.977   6.332   9.337
71654SOL    HW116859   2.008   6.394   9.272
71654SOL    HW216860   1.883   6.323   9.319
71655SOL     OW16861  14.217   5.147   4.907
71655SOL    HW116862  14.260   5.144   4.993
71655SOL    HW216863  14.125   5.131   4.927
71656SOL     OW16864  14.497   8.107   1.371
71656SOL    HW116865  14.453   8.032   1.410
71656SOL    HW216866  14.473   8.104   1.278
71657SOL     OW16867   1.655   7.430   8.939
71657SOL    HW116868   1.603   7.452   9.016
71657SOL    HW216869   1.664   7.513   8.892
71658SOL     OW16870   6.602   5.205  12.464
71658SOL    HW116871   6.692   5.173  12.471
71658SOL    HW216872   6.582   5.239  12.551
71659SOL     OW16873  10.229   7.987   8.686
71659SOL    HW116874  10.320   7.997   8.713
71659SOL    HW216875  10.219   7.893   8.671
71660SOL     OW16876   4.704   3.894   5.491
71660SOL    HW116877   4.641   3.964   5.508
71660SOL    HW216878   4.786   3.939   5.473
71661SOL     OW16879  12.734  11.371  11.573
71661SOL    HW116880  12.756  11.431  11.644
71661SOL    HW216881  12.639  11.359  11.580
71662SOL     OW16882   7.447  12.087   8.542
71662SOL    HW116883   7.378  12.152   8.529
71662SOL    HW216884   7.485  12.109   8.627
71663SOL     OW16885  11.725   5.838   4.460
71663SOL    HW116886  11.750   5.931   4.457
71663SOL    HW216887  11.750   5.809   4.547
71664SOL     OW16888  10.855   1.584   3.020
71664SOL    HW116889  10.839   1.491   3.037
71664SOL    HW216890  10.856   1.625   3.106
71665SOL     OW16891   6.254  13.834   6.645
71665SOL    HW116892   6.175  13.788   6.617
71665SOL    HW216893   6.223  13.896   6.711
71666SOL     OW16894   7.552   3.579  10.939
71666SOL    HW116895   7.626   3.617  10.893
71666SOL    HW216896   7.591   3.522  11.005
71667SOL     OW16897   0.888  10.607   0.560
71667SOL    HW116898   0.819  10.669   0.583
71667SOL    HW216899   0.861  10.570   0.476
71668SOL     OW16900  13.696   7.650   8.838
71668SOL    HW116901  13.661   7.736   8.815
71668SOL    HW216902  13.789   7.656   8.814
71669SOL     OW16903   9.578  14.290   0.591
71669SOL    HW116904   9.613  14.310   0.678
71669SOL    HW216905   9.494  14.337   0.588
71670SOL     OW16906  11.217   0.629   0.764
71670SOL    HW116907  11.184   0.593   0.682
71670SOL    HW216908  11.186   0.719   0.764
71671SOL     OW16909  12.423   4.330   7.719
71671SOL    HW116910  12.374   4.337   7.801
71671SOL    HW216911  12.512   4.356   7.742
71672SOL     OW16912  11.950   7.464  11.582
71672SOL    HW116913  11.932   7.386  11.529
71672SOL    HW216914  11.920   7.441  11.670
71673SOL     OW16915   3.559  10.880  14.160
71673SOL    HW116916   3.499  10.828  14.106
71673SOL    HW216917   3.632  10.900  14.101
71674SOL     OW16918   9.675  12.949  11.532
71674SOL    HW116919   9.735  13.024  11.536
71674SOL    HW216920   9.728  12.874  11.559
71675SOL     OW16921  14.210   7.484   0.702
71675SOL    HW116922  14.268   7.407   0.702
71675SOL    HW216923  14.260   7.552   0.657
71676SOL     OW16924   7.782   0.161  11.695
71676SOL    HW116925   7.802   0.163  11.788
71676SOL    HW216926   7.702   0.213  11.686
71677SOL     OW16927  13.198   0.247   8.948
71677SOL    HW116928  13.196   0.161   8.906
71677SOL    HW216929  13.106   0.273   8.954
71678SOL     OW16930  14.492   0.003   9.515
71678SOL    HW116931  14.529   0.057   9.584
71678SOL    HW216932  14.448  14.814   9.562
71679SOL     OW16933   9.464   3.037   5.360
71679SOL    HW116934   9.368   3.046   5.357
71679SOL    HW216935   9.481   2.997   5.446
71680SOL     OW16936  11.468   3.367   0.748
71680SOL    HW116937  11.559   3.393   0.734
71680SOL    HW216938  11.420   3.411   0.678
71681SOL     OW16939   2.504   3.609   0.011
71681SOL    HW116940   2.595   3.580   0.005
71681SOL    HW216941   2.503   3.695  14.851
71682SOL     OW16942  10.017   3.642   4.897
71682SOL    HW116943  10.000   3.736   4.902
71682SOL    HW216944  10.026   3.625   4.803
71683SOL     OW16945  13.125   6.118   5.995
71683SOL    HW116946  13.130   6.198   6.048
71683SOL    HW216947  13.151   6.146   5.908
71684SOL     OW16948   5.902   1.102  13.429
71684SOL    HW116949   5.883   1.145  13.346
71684SOL    HW216950   5.975   1.152  13.465
71685SOL     OW16951   4.433   1.437   0.072
71685SOL    HW116952   4.524   1.442   0.044
71685SOL    HW216953   4.425   1.351   0.113
71686SOL     OW16954   4.419  13.413   0.881
71686SOL    HW116955   4.384  13.341   0.829
71686SOL    HW216956   4.514  13.405   0.871
71687SOL     OW16957   4.628   3.012   4.937
71687SOL    HW116958   4.701   3.062   4.972
71687SOL    HW216959   4.627   2.931   4.987
71688SOL     OW16960   1.091  11.594  14.539
71688SOL    HW116961   1.120  11.519  14.591
71688SOL    HW216962   1.170  11.626  14.496
71689SOL     OW16963   2.531   1.512   6.848
71689SOL    HW116964   2.443   1.522   6.884
71689SOL    HW216965   2.571   1.443   6.900
71690SOL     OW16966  11.996  11.263  11.511
71690SOL    HW116967  11.908  11.295  11.530
71690SOL    HW216968  11.992  11.236  11.419
71691SOL     OW16969  10.701   6.672   0.334
71691SOL    HW116970  10.706   6.735   0.262
71691SOL    HW216971  10.740   6.718   0.409
71692SOL     OW16972   4.512  14.722  10.215
71692SOL    HW116973   4.490  14.815  10.221
71692SOL    HW216974   4.441  14.677  10.262
71693SOL     OW16975   3.684   3.427  11.431
71693SOL    HW116976   3.664   3.379  11.512
71693SOL    HW216977   3.603   3.422  11.380
71694SOL     OW16978   2.984   7.845   0.591
71694SOL    HW116979   3.006   7.776   0.528
71694SOL    HW216980   2.889   7.853   0.586
71695SOL     OW16981  12.459   5.695   7.842
71695SOL    HW116982  12.466   5.695   7.938
71695SOL    HW216983  12.443   5.787   7.820
71696SOL     OW16984   0.691  14.100   4.525
71696SOL    HW116985   0.702  14.192   4.550
71696SOL    HW216986   0.599  14.093   4.499
71697SOL     OW16987  14.511   4.962   6.153
71697SOL    HW116988  14.538   4.990   6.066
71697SOL    HW216989  14.558   5.021   6.213
71698SOL     OW16990   6.175   3.671   2.762
71698SOL    HW116991   6.205   3.599   2.817
71698SOL    HW216992   6.251   3.729   2.755
71699SOL     OW16993  12.330   5.515   1.501
71699SOL    HW116994  12.309   5.429   1.463
71699SOL    HW216995  12.425   5.513   1.512
71700SOL     OW16996  12.090   8.396  13.063
71700SOL    HW116997  12.062   8.388  13.154
71700SOL    HW216998  12.009   8.416  13.015
71701SOL     OW16999   9.479   5.416  10.505
71701SOL    HW117000   9.536   5.403  10.429
71701SOL    HW217001   9.485   5.510  10.523
71702SOL     OW17002   2.081   5.322   4.436
71702SOL    HW117003   2.085   5.417   4.427
71702SOL    HW217004   2.007   5.296   4.382
71703SOL     OW17005  10.743   6.177   1.618
71703SOL    HW117006  10.680   6.122   1.664
71703SOL    HW217007  10.815   6.117   1.596
71704SOL     OW17008   2.141  11.229   8.651
71704SOL    HW117009   2.098  11.310   8.677
71704SOL    HW217010   2.152  11.181   8.733
71705SOL     OW17011  12.854  14.215   4.493
71705SOL    HW117012  12.897  14.215   4.407
71705SOL    HW217013  12.773  14.265   4.480
71706SOL     OW17014   8.979   9.749   7.808
71706SOL    HW117015   9.073   9.760   7.795
71706SOL    HW217016   8.971   9.726   7.901
71707SOL     OW17017  10.522   9.530   7.749
71707SOL    HW117018  10.553   9.473   7.819
71707SOL    HW217019  10.534   9.478   7.669
71708SOL     OW17020  11.751  10.287  10.385
71708SOL    HW117021  11.708  10.350  10.442
71708SOL    HW217022  11.703  10.293  10.302
71709SOL     OW17023  12.782   8.472   7.444
71709SOL    HW117024  12.755   8.400   7.501
71709SOL    HW217025  12.789   8.433   7.357
71710SOL     OW17026   5.095   0.040   5.896
71710SOL    HW117027   5.112   0.003   5.809
71710SOL    HW217028   5.000   0.030   5.908
71711SOL     OW17029   7.544  11.102  13.202
71711SOL    HW117030   7.574  11.012  13.214
71711SOL    HW217031   7.595  11.153  13.265
71712SOL     OW17032   3.012   6.902   6.311
71712SOL    HW117033   3.057   6.951   6.243
71712SOL    HW217034   2.936   6.864   6.268
71713SOL     OW17035   8.425   9.268  10.001
71713SOL    HW117036   8.451   9.193   9.947
71713SOL    HW217037   8.504   9.293  10.048
71714SOL     OW17038   0.678   7.168  14.793
71714SOL    HW117039   0.697   7.081  14.829
71714SOL    HW217040   0.764   7.203  14.768
71715SOL     OW17041   5.017   0.464  14.442
71715SOL    HW117042   4.936   0.501  14.406
71715SOL    HW217043   5.063   0.427  14.367
71716SOL     OW17044   0.936  13.945  12.751
71716SOL    HW117045   0.951  13.852  12.735
71716SOL    HW217046   1.023  13.985  12.740
71717SOL     OW17047   3.533   6.773  12.158
71717SOL    HW117048   3.548   6.829  12.082
71717SOL    HW217049   3.515   6.833  12.230
71718SOL     OW17050   7.626   3.360   3.491
71718SOL    HW117051   7.718   3.357   3.466
71718SOL    HW217052   7.603   3.269   3.510
71719SOL     OW17053   2.097   2.809  13.307
71719SOL    HW117054   2.169   2.869  13.288
71719SOL    HW217055   2.058   2.791  13.221
71720SOL     OW17056  13.364   3.867   1.151
71720SOL    HW117057  13.290   3.806   1.145
71720SOL    HW217058  13.368   3.892   1.243
71721SOL     OW17059   9.595  14.321  14.271
71721SOL    HW117060   9.687  14.333  14.247
71721SOL    HW217061   9.578  14.228  14.259
71722SOL     OW17062   5.456  11.400   3.752
71722SOL    HW117063   5.546  11.370   3.759
71722SOL    HW217064   5.437  11.441   3.836
71723SOL     OW17065   4.873  11.128   4.720
71723SOL    HW117066   4.891  11.215   4.754
71723SOL    HW217067   4.845  11.078   4.797
71724SOL     OW17068  10.623   2.894  12.228
71724SOL    HW117069  10.598   2.869  12.317
71724SOL    HW217070  10.719   2.893  12.229
71725SOL     OW17071   6.345   2.155   0.177
71725SOL    HW117072   6.395   2.225   0.218
71725SOL    HW217073   6.280   2.131   0.243
71726SOL     OW17074   8.651  12.081  10.553
71726SOL    HW117075   8.741  12.091  10.584
71726SOL    HW217076   8.659  12.034  10.470
71727SOL     OW17077   1.675   3.528   9.596
71727SOL    HW117078   1.646   3.546   9.507
71727SOL    HW217079   1.766   3.559   9.598
71728SOL     OW17080  10.572   4.561  11.130
71728SOL    HW117081  10.516   4.597  11.061
71728SOL    HW217082  10.533   4.477  11.151
71729SOL     OW17083   3.745   1.951   6.800
71729SOL    HW117084   3.818   1.917   6.748
71729SOL    HW217085   3.720   2.032   6.755
71730SOL     OW17086   1.406  14.649   9.445
71730SOL    HW117087   1.339  14.581   9.440
71730SOL    HW217088   1.356  14.731   9.450
71731SOL     OW17089  12.687  10.495   1.416
71731SOL    HW117090  12.778  10.466   1.417
71731SOL    HW217091  12.688  10.574   1.361
71732SOL     OW17092   5.680   2.232   1.056
71732SOL    HW117093   5.732   2.311   1.069
71732SOL    HW217094   5.614   2.257   0.991
71733SOL     OW17095   4.421  14.429  10.391
71733SOL    HW117096   4.461  14.472  10.466
71733SOL    HW217097   4.362  14.495  10.354
71734SOL     OW17098   6.567   7.009  12.751
71734SOL    HW117099   6.605   7.069  12.816
71734SOL    HW217100   6.598   6.922  12.778
71735SOL     OW17101   6.482   8.951   2.854
71735SOL    HW117102   6.533   8.871   2.866
71735SOL    HW217103   6.537   9.020   2.892
71736SOL     OW17104   7.570   9.671   1.956
71736SOL    HW117105   7.604   9.629   1.877
71736SOL    HW217106   7.623   9.633   2.027
71737SOL     OW17107   4.446   5.048  12.720
71737SOL    HW117108   4.405   5.103  12.653
71737SOL    HW217109   4.535   5.033  12.687
71738SOL     OW17110  12.541   3.412   1.882
71738SOL    HW117111  12.498   3.394   1.966
71738SOL    HW217112  12.501   3.493   1.851
71739SOL     OW17113  12.601   9.190   6.728
71739SOL    HW117114  12.606   9.263   6.790
71739SOL    HW217115  12.509   9.164   6.728
71740SOL     OW17116   5.862   9.553  13.115
71740SOL    HW117117   5.922   9.599  13.057
71740SOL    HW217118   5.906   9.551  13.199
71741SOL     OW17119  11.876   6.557   9.443
71741SOL    HW117120  11.917   6.504   9.511
71741SOL    HW217121  11.887   6.647   9.473
71742SOL     OW17122   0.634   8.794   9.072
71742SOL    HW117123   0.561   8.813   9.132
71742SOL    HW217124   0.711   8.790   9.128
71743SOL     OW17125   0.512   6.861   2.940
71743SOL    HW117126   0.524   6.832   2.849
71743SOL    HW217127   0.494   6.780   2.988
71744SOL     OW17128   5.006  13.340   9.104
71744SOL    HW117129   4.932  13.383   9.147
71744SOL    HW217130   4.975  13.252   9.085
71745SOL     OW17131   7.360   8.536  11.979
71745SOL    HW117132   7.409   8.531  12.062
71745SOL    HW217133   7.426   8.522  11.912
71746SOL     OW17134   3.171   8.322   5.230
71746SOL    HW117135   3.241   8.326   5.295
71746SOL    HW217136   3.142   8.231   5.232
71747SOL     OW17137   2.228  13.343  11.677
71747SOL    HW117138   2.277  13.426  11.681
71747SOL    HW217139   2.182  13.338  11.760
71748SOL     OW17140   8.329   4.447   6.308
71748SOL    HW117141   8.259   4.474   6.367
71748SOL    HW217142   8.309   4.491   6.225
71749SOL     OW17143   8.280  11.055  11.481
71749SOL    HW117144   8.238  11.134  11.515
71749SOL    HW217145   8.372  11.079  11.472
71750SOL     OW17146  11.996   5.111  10.094
71750SOL    HW117147  11.924   5.141  10.150
71750SOL    HW217148  12.040   5.192  10.067
71751SOL     OW17149   0.333  12.183  13.477
71751SOL    HW117150   0.339  12.276  13.497
71751SOL    HW217151   0.342  12.139  13.562
71752SOL     OW17152  11.310  14.220   1.060
71752SOL    HW117153  11.395  14.252   1.031
71752SOL    HW217154  11.316  14.125   1.049
71753SOL     OW17155   0.874   0.040   5.090
71753SOL    HW117156   0.779   0.035   5.101
71753SOL    HW217157   0.901  14.834   5.067
71754SOL     OW17158  10.210  10.531   2.685
71754SOL    HW117159  10.286  10.500   2.735
71754SOL    HW217160  10.233  10.513   2.594
71755SOL     OW17161  10.716  11.160  11.235
71755SOL    HW117162  10.688  11.225  11.171
71755SOL    HW217163  10.655  11.087  11.224
71756SOL     OW17164   7.419   5.259  13.433
71756SOL    HW117165   7.363   5.220  13.499
71756SOL    HW217166   7.382   5.345  13.417
71757SOL     OW17167   8.591   4.483   4.992
71757SOL    HW117168   8.597   4.391   5.020
71757SOL    HW217169   8.531   4.523   5.055
71758SOL     OW17170   2.513   2.314  10.522
71758SOL    HW117171   2.537   2.238  10.469
71758SOL    HW217172   2.596   2.351  10.550
71759SOL     OW17173   4.785  12.404   5.075
71759SOL    HW117174   4.818  12.378   4.989
71759SOL    HW217175   4.862  12.398   5.132
71760SOL     OW17176   3.080  12.623   5.263
71760SOL    HW117177   3.142  12.693   5.242
71760SOL    HW217178   3.013  12.629   5.195
71761SOL     OW17179   0.994  11.816  12.728
71761SOL    HW117180   1.036  11.765  12.798
71761SOL    HW217181   1.048  11.895  12.721
71762SOL     OW17182   9.577   7.755  11.321
71762SOL    HW117183   9.628   7.708  11.387
71762SOL    HW217184   9.493   7.709  11.320
71763SOL     OW17185   8.820  11.919   7.276
71763SOL    HW117186   8.865  11.843   7.311
71763SOL    HW217187   8.841  11.990   7.337
71764SOL     OW17188   4.370  11.835   3.947
71764SOL    HW117189   4.406  11.834   4.035
71764SOL    HW217190   4.279  11.862   3.959
71765SOL     OW17191  13.815   2.060   8.667
71765SOL    HW117192  13.864   2.091   8.743
71765SOL    HW217193  13.753   1.996   8.702
71766SOL     OW17194  11.868   4.092   8.108
71766SOL    HW117195  11.899   4.006   8.137
71766SOL    HW217196  11.842   4.079   8.017
71767SOL     OW17197   3.560   5.129   3.736
71767SOL    HW117198   3.503   5.061   3.702
71767SOL    HW217199   3.543   5.131   3.830
71768SOL     OW17200   1.032   9.726  10.357
71768SOL    HW117201   1.018   9.706  10.265
71768SOL    HW217202   1.110   9.781  10.359
71769SOL     OW17203  12.368   4.203  11.483
71769SOL    HW117204  12.363   4.272  11.417
71769SOL    HW217205  12.298   4.142  11.458
71770SOL     OW17206   6.140   5.513  11.566
71770SOL    HW117207   6.159   5.604  11.542
71770SOL    HW217208   6.057   5.493  11.522
71771SOL     OW17209   7.380   1.617   1.433
71771SOL    HW117210   7.289   1.591   1.419
71771SOL    HW217211   7.428   1.534   1.442
71772SOL     OW17212   7.253  11.286   0.300
71772SOL    HW117213   7.217  11.284   0.389
71772SOL    HW217214   7.263  11.379   0.279
71773SOL     OW17215   0.190   0.818  10.148
71773SOL    HW117216   0.196   0.728  10.115
71773SOL    HW217217   0.221   0.872  10.075
71774SOL     OW17218   3.404   5.030  13.600
71774SOL    HW117219   3.337   4.983  13.550
71774SOL    HW217220   3.368   5.034  13.689
71775SOL     OW17221  12.757  11.362  13.298
71775SOL    HW117222  12.773  11.442  13.248
71775SOL    HW217223  12.756  11.292  13.232
71776SOL     OW17224   3.952   6.501  13.234
71776SOL    HW117225   3.961   6.593  13.255
71776SOL    HW217226   4.041   6.471  13.215
71777SOL     OW17227  11.748  12.560   4.987
71777SOL    HW117228  11.685  12.628   4.965
71777SOL    HW217229  11.710  12.515   5.062
71778SOL     OW17230  12.844   1.285   0.414
71778SOL    HW117231  12.884   1.345   0.351
71778SOL    HW217232  12.918   1.232   0.445
71779SOL     OW17233   5.410   8.072   2.322
71779SOL    HW117234   5.493   8.046   2.283
71779SOL    HW217235   5.378   8.143   2.267
71780SOL     OW17236   0.179   3.824   2.187
71780SOL    HW117237   0.106   3.762   2.187
71780SOL    HW217238   0.215   3.818   2.276
71781SOL     OW17239  12.777  13.462   7.634
71781SOL    HW117240  12.851  13.410   7.602
71781SOL    HW217241  12.726  13.401   7.687
71782SOL     OW17242  14.522   2.583   4.729
71782SOL    HW117243  14.427   2.592   4.723
71782SOL    HW217244  14.537   2.551   4.818
71783SOL     OW17245   3.420   4.852  14.506
71783SOL    HW117246   3.516   4.852  14.511
71783SOL    HW217247   3.392   4.857  14.598
71784SOL     OW17248   6.399  14.581   5.360
71784SOL    HW117249   6.455  14.536   5.296
71784SOL    HW217250   6.344  14.511   5.396
71785SOL     OW17251   5.293   6.397   4.465
71785SOL    HW117252   5.253   6.368   4.383
71785SOL    HW217253   5.362   6.332   4.482
71786SOL     OW17254  11.254   9.653   6.767
71786SOL    HW117255  11.307   9.590   6.816
71786SOL    HW217256  11.248   9.615   6.679
71787SOL     OW17257   1.601   9.576  13.185
71787SOL    HW117258   1.643   9.593  13.269
71787SOL    HW217259   1.668   9.530  13.134
71788SOL     OW17260   7.669   9.630   1.439
71788SOL    HW117261   7.664   9.673   1.354
71788SOL    HW217262   7.581   9.598   1.456
71789SOL     OW17263   6.350  10.431   1.505
71789SOL    HW117264   6.358  10.449   1.411
71789SOL    HW217265   6.270  10.379   1.512
71790SOL     OW17266  13.893   4.942   2.301
71790SOL    HW117267  13.851   4.857   2.285
71790SOL    HW217268  13.977   4.920   2.342
71791SOL     OW17269  11.921  10.532   4.329
71791SOL    HW117270  11.885  10.493   4.250
71791SOL    HW217271  11.872  10.492   4.400
71792SOL     OW17272   0.174  11.611  10.257
71792SOL    HW117273   0.141  11.649  10.175
71792SOL    HW217274   0.103  11.553  10.286
71793SOL     OW17275   4.622   8.892   2.878
71793SOL    HW117276   4.551   8.861   2.935
71793SOL    HW217277   4.687   8.822   2.880
71794SOL     OW17278  12.277   2.441  12.708
71794SOL    HW117279  12.194   2.485  12.725
71794SOL    HW217280  12.294   2.456  12.615
71795SOL     OW17281   9.127  11.340   9.483
71795SOL    HW117282   9.061  11.402   9.453
71795SOL    HW217283   9.081  11.283   9.545
71796SOL     OW17284   3.110   5.436   3.294
71796SOL    HW117285   3.019   5.443   3.265
71796SOL    HW217286   3.151   5.379   3.229
71797SOL     OW17287   4.040  14.308  11.901
71797SOL    HW117288   4.116  14.255  11.924
71797SOL    HW217289   4.011  14.273  11.817
71798SOL     OW17290   9.115   1.218   4.309
71798SOL    HW117291   9.109   1.199   4.403
71798SOL    HW217292   9.037   1.176   4.271
71799SOL     OW17293   8.636   0.726   7.703
71799SOL    HW117294   8.632   0.645   7.753
71799SOL    HW217295   8.702   0.710   7.635
71800SOL     OW17296   0.100  12.720  14.516
71800SOL    HW117297   0.102  12.815  14.504
71800SOL    HW217298   0.008  12.699  14.529
71801SOL     OW17299   2.867   9.191   0.474
71801SOL    HW117300   2.797   9.179   0.538
71801SOL    HW217301   2.849   9.127   0.406
71802SOL     OW17302   4.903  13.190   4.223
71802SOL    HW117303   4.863  13.254   4.163
71802SOL    HW217304   4.866  13.211   4.309
71803SOL     OW17305   8.263  11.782   1.690
71803SOL    HW117306   8.242  11.693   1.717
71803SOL    HW217307   8.326  11.813   1.755
71804SOL     OW17308   7.216   7.568   2.325
71804SOL    HW117309   7.158   7.628   2.373
71804SOL    HW217310   7.206   7.593   2.234
71805SOL     OW17311   9.079   0.968   1.004
71805SOL    HW117312   9.040   0.885   0.976
71805SOL    HW217313   9.118   1.005   0.925
71806SOL     OW17314  13.044  11.324  10.174
71806SOL    HW117315  13.139  11.321  10.169
71806SOL    HW217316  13.014  11.266  10.103
71807SOL     OW17317   7.221   1.942  12.415
71807SOL    HW117318   7.262   1.871  12.465
71807SOL    HW217319   7.135   1.907  12.390
71808SOL     OW17320   8.073   1.451   3.175
71808SOL    HW117321   7.992   1.417   3.213
71808SOL    HW217322   8.128   1.374   3.164
71809SOL     OW17323   4.208   0.556  11.063
71809SOL    HW117324   4.250   0.488  11.117
71809SOL    HW217325   4.115   0.548  11.083
71810SOL     OW17326  10.449   9.457  12.221
71810SOL    HW117327  10.388   9.403  12.271
71810SOL    HW217328  10.453   9.540  12.269
71811SOL     OW17329  10.095   3.775  13.387
71811SOL    HW117330  10.072   3.713  13.456
71811SOL    HW217331  10.168   3.825  13.422
71812SOL     OW17332   9.088  14.475   7.137
71812SOL    HW117333   9.065  14.531   7.211
71812SOL    HW217334   9.127  14.398   7.177
71813SOL     OW17335  11.777  10.520   1.315
71813SOL    HW117336  11.711  10.494   1.251
71813SOL    HW217337  11.737  10.592   1.364
71814SOL     OW17338   3.670   0.358   9.088
71814SOL    HW117339   3.686   0.295   9.018
71814SOL    HW217340   3.700   0.313   9.167
71815SOL     OW17341  14.652   1.199   6.942
71815SOL    HW117342  14.710   1.176   7.015
71815SOL    HW217343  14.682   1.285   6.913
71816SOL     OW17344  12.966   3.859   3.413
71816SOL    HW117345  12.982   3.768   3.439
71816SOL    HW217346  13.039   3.882   3.356
71817SOL     OW17347  14.433   0.627  13.532
71817SOL    HW117348  14.343   0.619  13.500
71817SOL    HW217349  14.483   0.566  13.478
71818SOL     OW17350   1.580   5.145   1.790
71818SOL    HW117351   1.660   5.100   1.817
71818SOL    HW217352   1.591   5.159   1.696
71819SOL     OW17353   6.194   3.084   3.109
71819SOL    HW117354   6.101   3.064   3.120
71819SOL    HW217355   6.240   3.007   3.143
71820SOL     OW17356  10.162   4.059  12.533
71820SOL    HW117357  10.068   4.042  12.547
71820SOL    HW217358  10.165   4.107  12.451
71821SOL     OW17359  14.162   9.497  11.685
71821SOL    HW117360  14.242   9.457  11.652
71821SOL    HW217361  14.150   9.576  11.633
71822SOL     OW17362   5.018   9.606  10.804
71822SOL    HW117363   5.001   9.649  10.888
71822SOL    HW217364   5.095   9.651  10.769
71823SOL     OW17365   1.998  11.272  13.974
71823SOL    HW117366   2.057  11.288  14.047
71823SOL    HW217367   1.950  11.193  13.998
71824SOL     OW17368  14.045   1.736  13.115
71824SOL    HW117369  13.990   1.658  13.111
71824SOL    HW217370  14.126   1.707  13.156
71825SOL     OW17371   7.844  11.863  10.544
71825SOL    HW117372   7.801  11.779  10.531
71825SOL    HW217373   7.900  11.874  10.467
71826SOL     OW17374   0.456  13.039  13.965
71826SOL    HW117375   0.477  13.126  13.930
71826SOL    HW217376   0.470  13.047  14.059
71827SOL     OW17377   0.529   7.130  12.931
71827SOL    HW117378   0.514   7.131  12.836
71827SOL    HW217379   0.477   7.203  12.964
71828SOL     OW17380   7.546  10.595   0.061
71828SOL    HW117381   7.479  10.659   0.086
71828SOL    HW217382   7.551  10.535   0.135
71829SOL     OW17383   7.425   2.465   6.497
71829SOL    HW117384   7.474   2.406   6.554
71829SOL    HW217385   7.470   2.459   6.413
71830SOL     OW17386   8.543   6.473   9.881
71830SOL    HW117387   8.622   6.516   9.849
71830SOL    HW217388   8.472   6.532   9.856
71831SOL     OW17389  14.837  13.130   4.256
71831SOL    HW117390  14.861  13.186   4.182
71831SOL    HW217391  14.870  13.043   4.232
71832SOL     OW17392   2.008   6.159   1.057
71832SOL    HW117393   2.068   6.117   0.995
71832SOL    HW217394   2.044   6.138   1.143
71833SOL     OW17395   7.535   7.930  12.370
71833SOL    HW117396   7.471   7.969  12.310
71833SOL    HW217397   7.618   7.973  12.347
71834SOL     OW17398   1.830  11.745   9.000
71834SOL    HW117399   1.895  11.685   9.037
71834SOL    HW217400   1.866  11.833   9.017
71835SOL     OW17401  12.328  13.380   0.853
71835SOL    HW117402  12.366  13.450   0.905
71835SOL    HW217403  12.245  13.416   0.821
71836SOL     OW17404   8.707  14.035  11.857
71836SOL    HW117405   8.714  13.957  11.912
71836SOL    HW217406   8.798  14.060  11.840
71837SOL     OW17407  11.043   6.672   8.124
71837SOL    HW117408  11.004   6.656   8.038
71837SOL    HW217409  10.996   6.613   8.183
71838SOL     OW17410  14.303   4.819  11.955
71838SOL    HW117411  14.292   4.751  12.021
71838SOL    HW217412  14.228   4.808  11.897
71839SOL     OW17413   4.017   5.994  11.331
71839SOL    HW117414   4.049   6.067  11.385
71839SOL    HW217415   4.091   5.932  11.330
71840SOL     OW17416   5.770   9.923   8.364
71840SOL    HW117417   5.685   9.908   8.322
71840SOL    HW217418   5.834   9.905   8.296
71841SOL     OW17419  12.235   9.920  14.160
71841SOL    HW117420  12.233   9.826  14.181
71841SOL    HW217421  12.326   9.937  14.136
71842SOL     OW17422   3.495   1.301  12.337
71842SOL    HW117423   3.466   1.218  12.374
71842SOL    HW217424   3.579   1.281  12.294
71843SOL     OW17425   7.873  13.723   7.334
71843SOL    HW117426   7.929  13.686   7.402
71843SOL    HW217427   7.838  13.803   7.373
71844SOL     OW17428  13.589   6.040  10.641
71844SOL    HW117429  13.598   6.072  10.551
71844SOL    HW217430  13.615   5.948  10.636
71845SOL     OW17431   8.337  14.738   0.598
71845SOL    HW117432   8.342  14.649   0.563
71845SOL    HW217433   8.355  14.795   0.523
71846SOL     OW17434   5.812  13.620   4.810
71846SOL    HW117435   5.814  13.525   4.820
71846SOL    HW217436   5.812  13.653   4.900
71847SOL     OW17437   2.412   7.702   5.362
71847SOL    HW117438   2.476   7.765   5.331
71847SOL    HW217439   2.461   7.620   5.372
71848SOL     OW17440  10.033   5.785   9.707
71848SOL    HW117441   9.941   5.764   9.695
71848SOL    HW217442  10.071   5.706   9.744
71849SOL     OW17443  13.649   5.728   6.260
71849SOL    HW117444  13.655   5.633   6.270
71849SOL    HW217445  13.561   5.743   6.226
71850SOL     OW17446   7.853  11.355   0.081
71850SOL    HW117447   7.891  11.289   0.139
71850SOL    HW217448   7.775  11.313   0.044
71851SOL     OW17449  13.429   5.535   3.179
71851SOL    HW117450  13.464   5.566   3.095
71851SOL    HW217451  13.384   5.453   3.157
71852SOL     OW17452   2.986   5.795   6.650
71852SOL    HW117453   3.058   5.858   6.652
71852SOL    HW217454   3.002   5.739   6.726
71853SOL     OW17455   7.719  12.630  14.810
71853SOL    HW117456   7.710  12.643   0.022
71853SOL    HW217457   7.746  12.539  14.801
71854SOL     OW17458  13.159  14.094   7.655
71854SOL    HW117459  13.119  14.168   7.610
71854SOL    HW217460  13.232  14.068   7.599
71855SOL     OW17461   3.850   9.292  10.679
71855SOL    HW117462   3.847   9.265  10.771
71855SOL    HW217463   3.763   9.269  10.644
71856SOL     OW17464   2.573  11.140  13.615
71856SOL    HW117465   2.559  11.070  13.679
71856SOL    HW217466   2.497  11.134  13.556
71857SOL     OW17467   2.385   8.352   0.126
71857SOL    HW117468   2.412   8.444   0.129
71857SOL    HW217469   2.294   8.354   0.095
71858SOL     OW17470   4.193   1.404  10.955
71858SOL    HW117471   4.226   1.493  10.964
71858SOL    HW217472   4.105   1.416  10.917
71859SOL     OW17473  11.207   5.411   0.863
71859SOL    HW117474  11.123   5.367   0.872
71859SOL    HW217475  11.195   5.470   0.788
71860SOL     OW17476  14.635  10.891   7.586
71860SOL    HW117477  14.696  10.899   7.513
71860SOL    HW217478  14.689  10.905   7.664
71861SOL     OW17479   5.098   4.085   6.463
71861SOL    HW117480   5.074   4.109   6.552
71861SOL    HW217481   5.031   4.126   6.408
71862SOL     OW17482  12.763  11.990   4.451
71862SOL    HW117483  12.756  12.086   4.451
71862SOL    HW217484  12.842  11.971   4.400
71863SOL     OW17485   1.607   9.047  14.443
71863SOL    HW117486   1.660   9.050  14.522
71863SOL    HW217487   1.603   9.138  14.413
71864SOL     OW17488   7.555   1.059   7.507
71864SOL    HW117489   7.642   1.095   7.523
71864SOL    HW217490   7.558   1.028   7.417
71865SOL     OW17491   3.750   8.700  14.239
71865SOL    HW117492   3.790   8.623  14.279
71865SOL    HW217493   3.816   8.733  14.178
71866SOL     OW17494   6.534  10.432   9.312
71866SOL    HW117495   6.579  10.415   9.395
71866SOL    HW217496   6.505  10.523   9.319
71867SOL     OW17497   5.922   1.789  12.212
71867SOL    HW117498   5.888   1.759  12.127
71867SOL    HW217499   6.000   1.736  12.226
71868SOL     OW17500  11.779  10.654  11.207
71868SOL    HW117501  11.764  10.560  11.213
71868SOL    HW217502  11.873  10.664  11.220
71869SOL     OW17503  11.532   2.841   6.218
71869SOL    HW117504  11.606   2.865   6.273
71869SOL    HW217505  11.484   2.776   6.269
71870SOL     OW17506   9.819   6.325  12.242
71870SOL    HW117507   9.815   6.352  12.334
71870SOL    HW217508   9.882   6.254  12.240
71871SOL     OW17509  14.486   0.327   0.902
71871SOL    HW117510  14.520   0.281   0.825
71871SOL    HW217511  14.459   0.257   0.961
71872SOL     OW17512   1.442   0.518   2.066
71872SOL    HW117513   1.507   0.466   2.020
71872SOL    HW217514   1.487   0.600   2.086
71873SOL     OW17515   0.816  10.219   1.573
71873SOL    HW117516   0.873  10.268   1.514
71873SOL    HW217517   0.735  10.206   1.523
71874SOL     OW17518  14.705   1.065   2.790
71874SOL    HW117519  14.663   1.040   2.708
71874SOL    HW217520  14.658   1.016   2.857
71875SOL     OW17521  13.837   5.246  10.910
71875SOL    HW117522  13.778   5.170  10.905
71875SOL    HW217523  13.799   5.310  10.850
71876SOL     OW17524   2.919   7.934   4.677
71876SOL    HW117525   2.858   7.985   4.730
71876SOL    HW217526   2.993   7.916   4.734
71877SOL     OW17527   9.515  11.229  13.418
71877SOL    HW117528   9.604  11.264  13.430
71877SOL    HW217529   9.503  11.229  13.323
71878SOL     OW17530   4.109   5.165   2.624
71878SOL    HW117531   4.035   5.174   2.683
71878SOL    HW217532   4.103   5.075   2.591
71879SOL     OW17533  10.581   0.502  13.212
71879SOL    HW117534  10.536   0.469  13.135
71879SOL    HW217535  10.671   0.469  13.204
71880SOL     OW17536  13.879   3.390   4.654
71880SOL    HW117537  13.937   3.420   4.584
71880SOL    HW217538  13.842   3.308   4.621
71881SOL     OW17539  10.751   3.128   9.960
71881SOL    HW117540  10.836   3.096   9.927
71881SOL    HW217541  10.746   3.219   9.930
71882SOL     OW17542  13.597   1.904  12.697
71882SOL    HW117543  13.508   1.870  12.698
71882SOL    HW217544  13.614   1.929  12.788
71883SOL     OW17545   9.751   4.644   9.963
71883SOL    HW117546   9.667   4.648   9.916
71883SOL    HW217547   9.733   4.683  10.048
71884SOL     OW17548  13.158   6.501  11.485
71884SOL    HW117549  13.073   6.464  11.462
71884SOL    HW217550  13.218   6.466  11.419
71885SOL     OW17551   1.408  10.393  11.645
71885SOL    HW117552   1.315  10.392  11.623
71885SOL    HW217553   1.447  10.326  11.590
71886SOL     OW17554   3.975  14.821   3.326
71886SOL    HW117555   3.978   0.012   3.265
71886SOL    HW217556   3.932  14.857   3.404
71887SOL     OW17557   1.943  10.084  12.824
71887SOL    HW117558   1.906  10.095  12.737
71887SOL    HW217559   1.943   9.989  12.839
71888SOL     OW17560   9.382  11.477   5.907
71888SOL    HW117561   9.303  11.477   5.961
71888SOL    HW217562   9.386  11.389   5.870
71889SOL     OW17563  13.330   8.859   4.634
71889SOL    HW117564  13.406   8.841   4.690
71889SOL    HW217565  13.325   8.955   4.630
71890SOL     OW17566   1.531   2.282   8.793
71890SOL    HW117567   1.438   2.304   8.794
71890SOL    HW217568   1.542   2.228   8.714
71891SOL     OW17569   1.423   4.953  10.985
71891SOL    HW117570   1.359   4.930  10.917
71891SOL    HW217571   1.412   4.885  11.052
71892SOL     OW17572   1.645  11.780   9.253
71892SOL    HW117573   1.652  11.842   9.180
71892SOL    HW217574   1.693  11.822   9.324
71893SOL     OW17575   9.507   5.605   2.175
71893SOL    HW117576   9.492   5.596   2.269
71893SOL    HW217577   9.578   5.668   2.168
71894SOL     OW17578   9.883   0.257  11.220
71894SOL    HW117579   9.865   0.163  11.220
71894SOL    HW217580   9.968   0.265  11.178
71895SOL     OW17581   3.138   0.184  11.835
71895SOL    HW117582   3.047   0.172  11.862
71895SOL    HW217583   3.178   0.235  11.905
71896SOL     OW17584   2.583   5.230   4.563
71896SOL    HW117585   2.551   5.195   4.646
71896SOL    HW217586   2.505   5.263   4.519
71897SOL     OW17587   6.426   9.215  11.775
71897SOL    HW117588   6.451   9.251  11.860
71897SOL    HW217589   6.466   9.274  11.711
71898SOL     OW17590  12.251  13.374  11.802
71898SOL    HW117591  12.177  13.371  11.742
71898SOL    HW217592  12.312  13.309  11.768
71899SOL     OW17593   4.546   6.467  13.332
71899SOL    HW117594   4.536   6.533  13.401
71899SOL    HW217595   4.581   6.391  13.377
71900SOL     OW17596   3.755   3.390   5.642
71900SOL    HW117597   3.684   3.453   5.634
71900SOL    HW217598   3.780   3.393   5.734
71901SOL     OW17599   3.039  12.378  12.064
71901SOL    HW117600   3.001  12.357  11.979
71901SOL    HW217601   3.079  12.464  12.052
71902SOL     OW17602  13.064   7.839   0.305
71902SOL    HW117603  13.097   7.901   0.370
71902SOL    HW217604  13.122   7.763   0.314
71903SOL     OW17605  10.891   1.025   0.576
71903SOL    HW117606  10.843   1.072   0.644
71903SOL    HW217607  10.860   1.064   0.494
71904SOL     OW17608   8.861   9.736  14.863
71904SOL    HW117609   8.815   9.653  14.856
71904SOL    HW217610   8.948   9.719  14.826
71905SOL     OW17611   3.482   6.765   7.026
71905SOL    HW117612   3.397   6.758   7.068
71905SOL    HW217613   3.505   6.675   7.002
71906SOL     OW17614   6.834   2.410   8.236
71906SOL    HW117615   6.907   2.349   8.235
71906SOL    HW217616   6.801   2.410   8.145
71907SOL     OW17617   4.608   2.574   1.061
71907SOL    HW117618   4.673   2.508   1.034
71907SOL    HW217619   4.608   2.638   0.990
71908SOL     OW17620  12.902   5.801   3.553
71908SOL    HW117621  12.941   5.784   3.639
71908SOL    HW217622  12.839   5.871   3.568
71909SOL     OW17623  14.439   1.112  10.494
71909SOL    HW117624  14.509   1.171  10.522
71909SOL    HW217625  14.436   1.122  10.399
71910SOL     OW17626   3.722   4.885   2.897
71910SOL    HW117627   3.632   4.887   2.930
71910SOL    HW217628   3.716   4.922   2.809
71911SOL     OW17629   4.087  11.692   0.543
71911SOL    HW117630   4.159  11.659   0.489
71911SOL    HW217631   4.051  11.765   0.493
71912SOL     OW17632   9.253   6.928   3.376
71912SOL    HW117633   9.337   6.926   3.423
71912SOL    HW217634   9.224   6.837   3.374
71913SOL     OW17635   6.992   6.885  12.042
71913SOL    HW117636   7.064   6.871  11.981
71913SOL    HW217637   6.970   6.798  12.074
71914SOL     OW17638   2.996   3.572   5.810
71914SOL    HW117639   3.038   3.562   5.895
71914SOL    HW217640   2.958   3.660   5.811
71915SOL     OW17641   1.164   3.910   1.855
71915SOL    HW117642   1.174   3.971   1.781
71915SOL    HW217643   1.157   3.824   1.814
71916SOL     OW17644  14.061   8.076  14.321
71916SOL    HW117645  14.069   8.144  14.389
71916SOL    HW217646  14.091   8.119  14.241
71917SOL     OW17647   6.155  13.722   5.599
71917SOL    HW117648   6.135  13.786   5.667
71917SOL    HW217649   6.175  13.775   5.522
71918SOL     OW17650   2.249   6.490   4.497
71918SOL    HW117651   2.192   6.480   4.422
71918SOL    HW217652   2.330   6.444   4.473
71919SOL     OW17653  13.998  11.598   1.643
71919SOL    HW117654  14.051  11.614   1.566
71919SOL    HW217655  13.908  11.596   1.610
71920SOL     OW17656   5.378   3.089   4.294
71920SOL    HW117657   5.367   3.183   4.304
71920SOL    HW217658   5.289   3.056   4.277
71921SOL     OW17659  10.489   7.773   7.153
71921SOL    HW117660  10.463   7.691   7.196
71921SOL    HW217661  10.564   7.749   7.098
71922SOL     OW17662   1.257   7.484  12.540
71922SOL    HW117663   1.335   7.493  12.484
71922SOL    HW217664   1.269   7.400  12.584
71923SOL     OW17665  11.152   4.064  13.848
71923SOL    HW117666  11.162   4.144  13.898
71923SOL    HW217667  11.059   4.057  13.830
71924SOL     OW17668   5.455   5.775   8.608
71924SOL    HW117669   5.380   5.770   8.667
71924SOL    HW217670   5.416   5.778   8.520
71925SOL     OW17671   9.755   6.108  14.565
71925SOL    HW117672   9.727   6.195  14.595
71925SOL    HW217673   9.683   6.050  14.591
71926SOL     OW17674   8.961  12.708   7.091
71926SOL    HW117675   8.919  12.769   7.152
71926SOL    HW217676   8.923  12.623   7.112
71927SOL     OW17677   7.816   5.527   5.053
71927SOL    HW117678   7.741   5.578   5.023
71927SOL    HW217679   7.889   5.589   5.053
71928SOL     OW17680  10.625   1.445   9.741
71928SOL    HW117681  10.558   1.434   9.674
71928SOL    HW217682  10.634   1.540   9.750
71929SOL     OW17683   6.537   0.629   8.284
71929SOL    HW117684   6.612   0.676   8.320
71929SOL    HW217685   6.553   0.538   8.308
71930SOL     OW17686   2.338  12.750   7.714
71930SOL    HW117687   2.412  12.802   7.745
71930SOL    HW217688   2.260  12.802   7.736
71931SOL     OW17689   5.089   9.265  14.222
71931SOL    HW117690   5.029   9.340  14.223
71931SOL    HW217691   5.056   9.207  14.291
71932SOL     OW17692   9.052   4.627   3.887
71932SOL    HW117693   9.051   4.660   3.798
71932SOL    HW217694   9.138   4.651   3.921
71933SOL     OW17695   6.068  12.017  12.302
71933SOL    HW117696   6.110  12.038  12.386
71933SOL    HW217697   6.119  11.944  12.267
71934SOL     OW17698   8.720   2.930   1.227
71934SOL    HW117699   8.694   2.867   1.160
71934SOL    HW217700   8.651   2.997   1.223
71935SOL     OW17701  11.780   1.305   9.069
71935SOL    HW117702  11.692   1.317   9.032
71935SOL    HW217703  11.837   1.297   8.992
71936SOL     OW17704   5.778   6.267  10.515
71936SOL    HW117705   5.815   6.251  10.428
71936SOL    HW217706   5.733   6.352  10.506
71937SOL     OW17707   9.627  11.355  14.263
71937SOL    HW117708   9.602  11.362  14.171
71937SOL    HW217709   9.639  11.261  14.278
71938SOL     OW17710   2.163   1.184   5.408
71938SOL    HW117711   2.201   1.224   5.330
71938SOL    HW217712   2.092   1.243   5.433
71939SOL     OW17713   8.238  10.286   7.506
71939SOL    HW117714   8.246  10.363   7.451
71939SOL    HW217715   8.229  10.320   7.595
71940SOL     OW17716  14.306   1.558   1.214
71940SOL    HW117717  14.259   1.476   1.201
71940SOL    HW217718  14.330   1.586   1.126
71941SOL     OW17719   7.288   3.054   4.245
71941SOL    HW117720   7.335   3.137   4.254
71941SOL    HW217721   7.216   3.073   4.184
71942SOL     OW17722   7.890   5.368  13.797
71942SOL    HW117723   7.823   5.423  13.838
71942SOL    HW217724   7.899   5.294  13.857
71943SOL     OW17725  12.525   6.859  12.792
71943SOL    HW117726  12.508   6.945  12.755
71943SOL    HW217727  12.606   6.870  12.842
71944SOL     OW17728   0.337   7.746  12.380
71944SOL    HW117729   0.253   7.712  12.412
71944SOL    HW217730   0.331   7.737  12.285
71945SOL     OW17731   5.840   4.007   5.137
71945SOL    HW117732   5.851   3.935   5.199
71945SOL    HW217733   5.758   4.048   5.162
71946SOL     OW17734   9.255  10.679   7.784
71946SOL    HW117735   9.276  10.768   7.755
71946SOL    HW217736   9.161  10.671   7.771
71947SOL     OW17737   9.089  14.278   8.049
71947SOL    HW117738   8.996  14.284   8.028
71947SOL    HW217739   9.100  14.190   8.085
71948SOL     OW17740  12.528   5.948  12.624
71948SOL    HW117741  12.570   5.989  12.700
71948SOL    HW217742  12.451   5.905  12.659
71949SOL     OW17743  10.724   3.944  10.557
71949SOL    HW117744  10.646   3.996  10.576
71949SOL    HW217745  10.728   3.940  10.461
71950SOL     OW17746   2.735   3.037  12.675
71950SOL    HW117747   2.796   3.030  12.749
71950SOL    HW217748   2.664   2.977  12.698
71951SOL     OW17749   0.393   5.550   2.557
71951SOL    HW117750   0.448   5.616   2.599
71951SOL    HW217751   0.439   5.467   2.573
71952SOL     OW17752   9.509   1.101  13.006
71952SOL    HW117753   9.471   1.055  12.932
71952SOL    HW217754   9.528   1.189  12.972
71953SOL     OW17755   9.458  10.797  11.560
71953SOL    HW117756   9.381  10.740  11.554
71953SOL    HW217757   9.496  10.776  11.645
71954SOL     OW17758   5.695  12.740   6.689
71954SOL    HW117759   5.698  12.821   6.638
71954SOL    HW217760   5.760  12.753   6.758
71955SOL     OW17761  10.314   2.585   2.294
71955SOL    HW117762  10.315   2.583   2.390
71955SOL    HW217763  10.399   2.548   2.269
71956SOL     OW17764   5.578   8.039  12.234
71956SOL    HW117765   5.582   8.087  12.152
71956SOL    HW217766   5.616   8.099  12.299
71957SOL     OW17767   3.972  14.667  13.956
71957SOL    HW117768   3.934  14.752  13.977
71957SOL    HW217769   3.897  14.607  13.957
71958SOL     OW17770   4.104  12.186   9.982
71958SOL    HW117771   4.166  12.210   9.912
71958SOL    HW217772   4.088  12.092   9.969
71959SOL     OW17773  12.343  13.769   9.392
71959SOL    HW117774  12.416  13.767   9.454
71959SOL    HW217775  12.272  13.811   9.439
71960SOL     OW17776  10.164   0.820   9.852
71960SOL    HW117777  10.223   0.769   9.908
71960SOL    HW217778  10.219   0.849   9.779
71961SOL     OW17779   0.675  11.123  11.137
71961SOL    HW117780   0.755  11.078  11.110
71961SOL    HW217781   0.657  11.089  11.225
71962SOL     OW17782  13.776  13.947   5.294
71962SOL    HW117783  13.824  14.009   5.239
71962SOL    HW217784  13.720  14.001   5.349
71963SOL     OW17785   8.208  11.576   2.744
71963SOL    HW117786   8.115  11.598   2.741
71963SOL    HW217787   8.245  11.633   2.811
71964SOL     OW17788   6.242  13.426   9.185
71964SOL    HW117789   6.198  13.500   9.145
71964SOL    HW217790   6.220  13.351   9.130
71965SOL     OW17791   1.448   0.708  11.655
71965SOL    HW117792   1.414   0.722  11.566
71965SOL    HW217793   1.410   0.625  11.683
71966SOL     OW17794   4.019   2.688   2.023
71966SOL    HW117795   4.027   2.593   2.014
71966SOL    HW217796   4.091   2.723   1.971
71967SOL     OW17797   7.360  11.052   5.943
71967SOL    HW117798   7.418  11.045   5.868
71967SOL    HW217799   7.379  10.974   5.995
71968SOL     OW17800  14.706   3.583   1.124
71968SOL    HW117801  14.688   3.647   1.193
71968SOL    HW217802  14.776   3.527   1.160
71969SOL     OW17803   3.263   6.031  13.732
71969SOL    HW117804   3.309   6.045  13.815
71969SOL    HW217805   3.316   6.077  13.667
71970SOL     OW17806   3.379  12.767   1.430
71970SOL    HW117807   3.316  12.749   1.500
71970SOL    HW217808   3.441  12.694   1.435
71971SOL     OW17809  13.657  11.959   7.004
71971SOL    HW117810  13.599  11.910   7.063
71971SOL    HW217811  13.648  12.050   7.032
71972SOL     OW17812   7.811  10.815   5.357
71972SOL    HW117813   7.745  10.807   5.426
71972SOL    HW217814   7.761  10.819   5.276
71973SOL     OW17815   7.907  10.998  12.947
71973SOL    HW117816   7.860  10.917  12.966
71973SOL    HW217817   7.909  11.045  13.031
71974SOL     OW17818   5.730  14.107  10.349
71974SOL    HW117819   5.746  14.181  10.290
71974SOL    HW217820   5.646  14.127  10.390
71975SOL     OW17821   8.139  11.063   1.012
71975SOL    HW117822   8.073  11.097   1.072
71975SOL    HW217823   8.219  11.111   1.034
71976SOL     OW17824   0.603  11.018  12.001
71976SOL    HW117825   0.677  10.957  12.003
71976SOL    HW217826   0.566  11.008  11.913
71977SOL     OW17827   5.775   1.365   9.138
71977SOL    HW117828   5.769   1.352   9.232
71977SOL    HW217829   5.685   1.357   9.107
71978SOL     OW17830   8.898   8.109  13.834
71978SOL    HW117831   8.992   8.109  13.851
71978SOL    HW217832   8.858   8.116  13.921
71979SOL     OW17833  12.852  14.811  13.275
71979SOL    HW117834  12.764  14.838  13.302
71979SOL    HW217835  12.846  14.716  13.269
71980SOL     OW17836   5.558   5.703   3.122
71980SOL    HW117837   5.582   5.699   3.215
71980SOL    HW217838   5.481   5.647   3.115
71981SOL     OW17839   3.538   9.454   7.690
71981SOL    HW117840   3.501   9.521   7.631
71981SOL    HW217841   3.530   9.492   7.777
71982SOL     OW17842   5.901   3.081   8.869
71982SOL    HW117843   5.906   2.990   8.840
71982SOL    HW217844   5.928   3.132   8.793
71983SOL     OW17845  14.682   2.460  11.675
71983SOL    HW117846  14.638   2.400  11.735
71983SOL    HW217847  14.616   2.527  11.655
71984SOL     OW17848  13.468  13.598   3.320
71984SOL    HW117849  13.530  13.534   3.286
71984SOL    HW217850  13.477  13.593   3.415
71985SOL     OW17851  12.097   3.670  11.599
71985SOL    HW117852  12.068   3.585  11.633
71985SOL    HW217853  12.022   3.701  11.547
71986SOL     OW17854   5.523  14.078   4.741
71986SOL    HW117855   5.616  14.072   4.760
71986SOL    HW217856   5.484  14.102   4.825
71987SOL     OW17857   6.479   6.455   7.781
71987SOL    HW117858   6.548   6.421   7.725
71987SOL    HW217859   6.496   6.550   7.784
71988SOL     OW17860   6.258   9.073   8.464
71988SOL    HW117861   6.175   9.045   8.502
71988SOL    HW217862   6.304   8.991   8.443
71989SOL     OW17863   4.993  11.360  10.631
71989SOL    HW117864   4.921  11.353  10.693
71989SOL    HW217865   5.051  11.426  10.669
71990SOL     OW17866  10.790   0.530   2.390
71990SOL    HW117867  10.770   0.622   2.407
71990SOL    HW217868  10.727   0.504   2.323
71991SOL     OW17869  10.760  12.832  12.823
71991SOL    HW117870  10.847  12.800  12.847
71991SOL    HW217871  10.740  12.899  12.889
71992SOL     OW17872   1.062   9.162   5.956
71992SOL    HW117873   1.011   9.242   5.948
71992SOL    HW217874   1.085   9.156   6.048
71993SOL     OW17875   6.311  13.017   4.754
71993SOL    HW117876   6.308  12.971   4.670
71993SOL    HW217877   6.402  13.046   4.761
71994SOL     OW17878  12.200   0.275   5.605
71994SOL    HW117879  12.287   0.313   5.595
71994SOL    HW217880  12.153   0.304   5.527
71995SOL     OW17881  11.356  11.953   7.730
71995SOL    HW117882  11.304  11.928   7.806
71995SOL    HW217883  11.297  11.944   7.656
71996SOL     OW17884   6.606  12.520  11.612
71996SOL    HW117885   6.571  12.436  11.639
71996SOL    HW217886   6.699  12.504  11.598
71997SOL     OW17887  13.063   0.475   3.484
71997SOL    HW117888  13.098   0.508   3.567
71997SOL    HW217889  12.989   0.532   3.465
71998SOL     OW17890   3.767   7.115   3.836
71998SOL    HW117891   3.785   7.165   3.756
71998SOL    HW217892   3.750   7.181   3.903
71999SOL     OW17893  11.166   4.025   6.454
71999SOL    HW117894  11.080   4.009   6.494
71999SOL    HW217895  11.172   3.962   6.383
72000SOL     OW17896   7.552   9.024   2.745
72000SOL    HW117897   7.618   8.990   2.806
72000SOL    HW217898   7.591   9.013   2.658
72001SOL     OW17899   6.217   0.085  13.286
72001SOL    HW117900   6.200   0.146  13.357
72001SOL    HW217901   6.270   0.134  13.223
72002SOL     OW17902   7.842   6.478  11.024
72002SOL    HW117903   7.910   6.477  11.091
72002SOL    HW217904   7.786   6.404  11.045
72003SOL     OW17905   1.307  12.473   5.946
72003SOL    HW117906   1.303  12.510   5.858
72003SOL    HW217907   1.216  12.465   5.973
72004SOL     OW17908   9.249  10.999   7.129
72004SOL    HW117909   9.301  10.933   7.083
72004SOL    HW217910   9.302  11.022   7.205
72005SOL     OW17911   2.140  13.943  13.742
72005SOL    HW117912   2.200  13.954  13.816
72005SOL    HW217913   2.053  13.950  13.780
72006SOL     OW17914  12.542   8.697   8.609
72006SOL    HW117915  12.520   8.774   8.662
72006SOL    HW217916  12.598   8.644   8.665
72007SOL     OW17917  14.501   9.441  12.100
72007SOL    HW117918  14.417   9.455  12.056
72007SOL    HW217919  14.537   9.363  12.059
72008SOL     OW17920   8.713   7.844   1.924
72008SOL    HW117921   8.698   7.843   1.830
72008SOL    HW217922   8.748   7.757   1.944
72009SOL     OW17923   8.800  11.694   8.719
72009SOL    HW117924   8.895  11.686   8.713
72009SOL    HW217925   8.767  11.607   8.698
72010SOL     OW17926  13.570   5.670   5.640
72010SOL    HW117927  13.512   5.597   5.618
72010SOL    HW217928  13.655   5.630   5.654
72011SOL     OW17929  11.684   0.400  10.998
72011SOL    HW117930  11.597   0.360  11.000
72011SOL    HW217931  11.670   0.485  10.957
72012SOL     OW17932   2.468  14.689  13.342
72012SOL    HW117933   2.506  14.638  13.270
72012SOL    HW217934   2.391  14.732  13.303
72013SOL     OW17935   6.650   9.393   4.192
72013SOL    HW117936   6.615   9.456   4.130
72013SOL    HW217937   6.586   9.390   4.263
72014SOL     OW17938   6.209   3.504   5.033
72014SOL    HW117939   6.178   3.420   4.999
72014SOL    HW217940   6.278   3.530   4.972
72015SOL     OW17941   4.145   1.271   1.536
72015SOL    HW117942   4.062   1.317   1.547
72015SOL    HW217943   4.211   1.331   1.569
72016SOL     OW17944  14.121  12.960  13.948
72016SOL    HW117945  14.207  12.988  13.979
72016SOL    HW217946  14.064  12.970  14.024
72017SOL     OW17947   6.153   4.979   3.010
72017SOL    HW117948   6.210   4.950   2.939
72017SOL    HW217949   6.113   4.898   3.044
72018SOL     OW17950   9.701  11.619  12.544
72018SOL    HW117951   9.771  11.614  12.610
72018SOL    HW217952   9.719  11.546  12.485
72019SOL     OW17953   6.777   9.410   3.185
72019SOL    HW117954   6.744   9.366   3.264
72019SOL    HW217955   6.728   9.492   3.182
72020SOL     OW17956   8.775  12.450   7.512
72020SOL    HW117957   8.786  12.386   7.442
72020SOL    HW217958   8.681  12.446   7.534
72021SOL     OW17959   9.822  12.799   9.878
72021SOL    HW117960   9.836  12.883   9.920
72021SOL    HW217961   9.733  12.773   9.902
72022SOL     OW17962   0.936   2.798   2.756
72022SOL    HW117963   0.996   2.817   2.684
72022SOL    HW217964   0.879   2.728   2.723
72023SOL     OW17965  10.170   2.804   3.001
72023SOL    HW117966  10.253   2.765   3.029
72023SOL    HW217967  10.106   2.733   3.009
72024SOL     OW17968  14.310  10.633   1.944
72024SOL    HW117969  14.313  10.624   2.039
72024SOL    HW217970  14.384  10.580   1.913
72025SOL     OW17971   9.737   7.623   9.919
72025SOL    HW117972   9.713   7.587  10.004
72025SOL    HW217973   9.794   7.698   9.939
72026SOL     OW17974   3.453   2.416   2.197
72026SOL    HW117975   3.536   2.450   2.162
72026SOL    HW217976   3.427   2.348   2.135
72027SOL     OW17977  10.557   2.814   0.341
72027SOL    HW117978  10.483   2.864   0.376
72027SOL    HW217979  10.524   2.774   0.261
72028SOL     OW17980   1.247  13.053  11.459
72028SOL    HW117981   1.258  13.118  11.529
72028SOL    HW217982   1.336  13.032  11.432
72029SOL     OW17983  12.714   4.256   1.485
72029SOL    HW117984  12.804   4.286   1.471
72029SOL    HW217985  12.690   4.215   1.402
72030SOL     OW17986   1.950  13.819   1.480
72030SOL    HW117987   1.875  13.841   1.425
72030SOL    HW217988   1.913  13.808   1.568
72031SOL     OW17989   5.157   0.513   6.160
72031SOL    HW117990   5.132   0.518   6.253
72031SOL    HW217991   5.245   0.477   6.161
72032SOL     OW17992  12.809   8.008   6.214
72032SOL    HW117993  12.806   8.080   6.150
72032SOL    HW217994  12.880   8.033   6.274
72033SOL     OW17995  13.349   5.959   9.840
72033SOL    HW117996  13.278   6.009   9.799
72033SOL    HW217997  13.314   5.934   9.926
72034SOL     OW17998   3.842   8.865   7.381
72034SOL    HW117999   3.754   8.826   7.380
72034SOL    HW218000   3.894   8.810   7.323
72035SOL     OW18001   1.651   9.423   0.231
72035SOL    HW118002   1.724   9.485   0.229
72035SOL    HW218003   1.591   9.459   0.296
72036SOL     OW18004   8.909   1.035   8.343
72036SOL    HW118005   8.904   1.089   8.421
72036SOL    HW218006   8.902   1.097   8.270
72037SOL     OW18007  10.566   1.886   4.938
72037SOL    HW118008  10.651   1.860   4.975
72037SOL    HW218009  10.568   1.852   4.849
72038SOL     OW18010   6.218   1.144  14.636
72038SOL    HW118011   6.258   1.183  14.713
72038SOL    HW218012   6.288   1.093  14.595
72039SOL     OW18013   6.694   8.015   2.102
72039SOL    HW118014   6.613   8.048   2.062
72039SOL    HW218015   6.759   8.082   2.081
72040SOL     OW18016  11.150   2.336   7.655
72040SOL    HW118017  11.171   2.422   7.618
72040SOL    HW218018  11.109   2.355   7.739
72041SOL     OW18019   5.287  13.804   5.244
72041SOL    HW118020   5.334  13.841   5.169
72041SOL    HW218021   5.355  13.757   5.293
72042SOL     OW18022   0.075  11.792  11.542
72042SOL    HW118023   0.083  11.748  11.627
72042SOL    HW218024   0.099  11.725  11.479
72043SOL     OW18025  12.490   6.959   3.938
72043SOL    HW118026  12.497   7.026   3.870
72043SOL    HW218027  12.548   6.989   4.008
72044SOL     OW18028   4.743   0.466   3.797
72044SOL    HW118029   4.655   0.497   3.776
72044SOL    HW218030   4.748   0.471   3.892
72045SOL     OW18031  10.595   0.242   0.511
72045SOL    HW118032  10.569   0.255   0.420
72045SOL    HW218033  10.578   0.149   0.528
72046SOL     OW18034   3.984   2.390   0.592
72046SOL    HW118035   3.959   2.339   0.515
72046SOL    HW218036   4.003   2.477   0.558
72047SOL     OW18037  13.062   6.302  13.749
72047SOL    HW118038  13.021   6.240  13.809
72047SOL    HW218039  13.091   6.374  13.805
72048SOL     OW18040  12.034   9.020  13.383
72048SOL    HW118041  12.111   8.995  13.333
72048SOL    HW218042  12.069   9.072  13.456
72049SOL     OW18043   8.597  13.681  12.695
72049SOL    HW118044   8.622  13.770  12.671
72049SOL    HW218045   8.612  13.676  12.789
72050SOL     OW18046   1.617  14.327  10.040
72050SOL    HW118047   1.603  14.350  10.132
72050SOL    HW218048   1.530  14.311  10.005
72051SOL     OW18049   2.883   8.272  11.379
72051SOL    HW118050   2.904   8.191  11.333
72051SOL    HW218051   2.817   8.246  11.444
72052SOL     OW18052   9.369   1.260   3.049
72052SOL    HW118053   9.415   1.181   3.021
72052SOL    HW218054   9.322   1.233   3.128
72053SOL     OW18055   9.789   0.457  12.587
72053SOL    HW118056   9.735   0.486  12.661
72053SOL    HW218057   9.802   0.363  12.603
72054SOL     OW18058   0.886   5.059   4.841
72054SOL    HW118059   0.979   5.077   4.849
72054SOL    HW218060   0.854   5.127   4.782
72055SOL     OW18061   3.002  11.278   8.957
72055SOL    HW118062   3.054  11.308   8.883
72055SOL    HW218063   3.054  11.210   8.998
72056SOL     OW18064   2.974   4.205  10.308
72056SOL    HW118065   2.992   4.112  10.297
72056SOL    HW218066   2.895   4.221  10.255
72057SOL     OW18067  14.100   7.568   3.933
72057SOL    HW118068  14.009   7.600   3.936
72057SOL    HW218069  14.138   7.610   3.856
72058SOL     OW18070   7.215  10.408  13.555
72058SOL    HW118071   7.287  10.351  13.583
72058SOL    HW218072   7.150  10.400  13.625
72059SOL     OW18073  13.183   3.611  11.773
72059SOL    HW118074  13.199   3.674  11.702
72059SOL    HW218075  13.233   3.534  11.749
72060SOL     OW18076   9.685  13.635   3.699
72060SOL    HW118077   9.685  13.539   3.702
72060SOL    HW218078   9.778  13.658   3.705
72061SOL     OW18079  14.325  12.400   5.341
72061SOL    HW118080  14.280  12.427   5.421
72061SOL    HW218081  14.341  12.306   5.353
72062SOL     OW18082   4.223  14.271   5.520
72062SOL    HW118083   4.187  14.351   5.559
72062SOL    HW218084   4.315  14.272   5.544
72063SOL     OW18085   0.799  13.500  14.404
72063SOL    HW118086   0.727  13.438  14.391
72063SOL    HW218087   0.798  13.555  14.326
72064SOL     OW18088  11.333   2.767  12.275
72064SOL    HW118089  11.265   2.799  12.334
72064SOL    HW218090  11.285   2.719  12.207
72065SOL     OW18091  11.136   2.513  14.034
72065SOL    HW118092  11.185   2.524  13.952
72065SOL    HW218093  11.109   2.421  14.035
72066SOL     OW18094   4.457  11.542  13.541
72066SOL    HW118095   4.471  11.451  13.567
72066SOL    HW218096   4.401  11.578  13.610
72067SOL     OW18097  14.244   0.889   0.493
72067SOL    HW118098  14.197   0.877   0.576
72067SOL    HW218099  14.324   0.937   0.517
72068SOL     OW18100   5.226   6.440  14.029
72068SOL    HW118101   5.263   6.382  13.962
72068SOL    HW218102   5.132   6.440  14.012
72069SOL     OW18103  12.456   8.622  14.150
72069SOL    HW118104  12.405   8.542  14.160
72069SOL    HW218105  12.402   8.690  14.190
72070SOL     OW18106   4.410   8.810   6.660
72070SOL    HW118107   4.478   8.743   6.664
72070SOL    HW218108   4.364   8.794   6.577
72071SOL     OW18109  12.475   7.108  12.740
72071SOL    HW118110  12.380   7.121  12.740
72071SOL    HW218111  12.509   7.178  12.795
72072SOL     OW18112   0.557   4.488  10.982
72072SOL    HW118113   0.567   4.393  10.983
72072SOL    HW218114   0.517   4.509  11.066
72073SOL     OW18115   9.099   2.026  13.411
72073SOL    HW118116   9.159   2.046  13.339
72073SOL    HW218117   9.157   2.001  13.484
72074SOL     OW18118   4.505  13.528  12.285
72074SOL    HW118119   4.509  13.432  12.293
72074SOL    HW218120   4.435  13.543  12.221
72075SOL     OW18121   1.408  11.263   7.892
72075SOL    HW118122   1.479  11.214   7.849
72075SOL    HW218123   1.342  11.272   7.824
72076SOL     OW18124   3.156  10.265   3.347
72076SOL    HW118125   3.141  10.359   3.341
72076SOL    HW218126   3.085  10.226   3.296
72077SOL     OW18127   9.446   9.477   8.864
72077SOL    HW118128   9.469   9.474   8.957
72077SOL    HW218129   9.471   9.565   8.836
72078SOL     OW18130   1.305  12.142  12.324
72078SOL    HW118131   1.396  12.115  12.337
72078SOL    HW218132   1.293  12.138  12.229
72079SOL     OW18133  13.531  10.861   9.911
72079SOL    HW118134  13.603  10.853   9.974
72079SOL    HW218135  13.563  10.817   9.832
72080SOL     OW18136   5.926   2.645   7.804
72080SOL    HW118137   5.931   2.739   7.824
72080SOL    HW218138   6.007   2.608   7.839
72081SOL     OW18139  13.418  13.081   4.798
72081SOL    HW118140  13.482  13.111   4.734
72081SOL    HW218141  13.380  13.003   4.758
72082SOL     OW18142   0.466   6.717   1.251
72082SOL    HW118143   0.520   6.757   1.318
72082SOL    HW218144   0.525   6.657   1.206
72083SOL     OW18145   4.180   1.513   6.315
72083SOL    HW118146   4.206   1.437   6.367
72083SOL    HW218147   4.086   1.523   6.332
72084SOL     OW18148  10.533  13.314   2.494
72084SOL    HW118149  10.540  13.406   2.519
72084SOL    HW218150  10.448  13.286   2.529
72085SOL     OW18151   6.714   0.163  10.538
72085SOL    HW118152   6.787   0.202  10.491
72085SOL    HW218153   6.653   0.136  10.470
72086SOL     OW18154   4.307   6.546   9.342
72086SOL    HW118155   4.304   6.458   9.380
72086SOL    HW218156   4.257   6.538   9.260
72087SOL     OW18157  12.006   4.381   0.331
72087SOL    HW118158  12.064   4.416   0.398
72087SOL    HW218159  11.999   4.451   0.266
72088SOL     OW18160  11.912   5.874  11.494
72088SOL    HW118161  11.985   5.822  11.459
72088SOL    HW218162  11.928   5.963  11.462
72089SOL     OW18163  10.974   0.869   1.429
72089SOL    HW118164  10.942   0.844   1.515
72089SOL    HW218165  11.042   0.934   1.447
72090SOL     OW18166   7.269   8.992   0.151
72090SOL    HW118167   7.326   9.045   0.095
72090SOL    HW218168   7.305   8.904   0.145
72091SOL     OW18169   7.152   7.415   7.661
72091SOL    HW118170   7.074   7.396   7.609
72091SOL    HW218171   7.120   7.421   7.751
72092SOL     OW18172  10.865   3.319  13.473
72092SOL    HW118173  10.777   3.348  13.499
72092SOL    HW218174  10.924   3.386  13.508
72093SOL     OW18175   7.743   6.226   5.993
72093SOL    HW118176   7.817   6.203   5.938
72093SOL    HW218177   7.783   6.260   6.074
72094SOL     OW18178   8.427  14.850  13.103
72094SOL    HW118179   8.363  14.867  13.171
72094SOL    HW218180   8.389  14.780  13.050
72095SOL     OW18181   7.520   4.562  11.643
72095SOL    HW118182   7.460   4.572  11.569
72095SOL    HW218183   7.522   4.648  11.684
72096SOL     OW18184  14.075  13.130  12.859
72096SOL    HW118185  14.133  13.186  12.911
72096SOL    HW218186  13.992  13.178  12.855
72097SOL     OW18187   6.721  12.678   7.091
72097SOL    HW118188   6.802  12.669   7.140
72097SOL    HW218189   6.748  12.713   7.006
72098SOL     OW18190   3.739   3.150   3.009
72098SOL    HW118191   3.731   3.109   3.095
72098SOL    HW218192   3.673   3.219   3.008
72099SOL     OW18193   3.386   9.553   3.531
72099SOL    HW118194   3.384   9.628   3.590
72099SOL    HW218195   3.320   9.493   3.566
72100SOL     OW18196  14.167   4.747   2.983
72100SOL    HW118197  14.089   4.778   3.029
72100SOL    HW218198  14.136   4.673   2.930
72101SOL     OW18199  13.709  10.426   2.424
72101SOL    HW118200  13.731  10.428   2.517
72101SOL    HW218201  13.793  10.424   2.379
72102SOL     OW18202  14.361  13.289  10.625
72102SOL    HW118203  14.337  13.233  10.699
72102SOL    HW218204  14.355  13.231  10.549
72103SOL     OW18205   9.690   1.904   1.487
72103SOL    HW118206   9.722   1.993   1.472
72103SOL    HW218207   9.610   1.916   1.537
72104SOL     OW18208   3.078   9.330   1.948
72104SOL    HW118209   3.039   9.328   1.861
72104SOL    HW218210   3.014   9.376   2.002
72105SOL     OW18211   6.739   7.158   9.297
72105SOL    HW118212   6.834   7.174   9.302
72105SOL    HW218213   6.700   7.243   9.316
72106SOL     OW18214   8.668   7.558  12.804
72106SOL    HW118215   8.742   7.567  12.744
72106SOL    HW218216   8.703   7.512  12.880
72107SOL     OW18217   3.102   4.972  13.005
72107SOL    HW118218   3.189   4.987  13.042
72107SOL    HW218219   3.062   5.059  13.001
72108SOL     OW18220   6.669   5.274   7.233
72108SOL    HW118221   6.710   5.337   7.292
72108SOL    HW218222   6.625   5.212   7.291
72109SOL     OW18223  11.506   9.559   6.123
72109SOL    HW118224  11.584   9.582   6.173
72109SOL    HW218225  11.538   9.502   6.053
72110SOL     OW18226   7.982   9.258  13.779
72110SOL    HW118227   8.027   9.340  13.800
72110SOL    HW218228   7.928   9.279  13.703
72111SOL     OW18229   9.437   1.308   2.528
72111SOL    HW118230   9.384   1.242   2.484
72111SOL    HW218231   9.460   1.370   2.458
72112SOL     OW18232   6.190   9.051   4.524
72112SOL    HW118233   6.198   9.049   4.429
72112SOL    HW218234   6.126   8.982   4.544
72113SOL     OW18235   9.668   2.722   0.005
72113SOL    HW118236   9.717   2.699   0.084
72113SOL    HW218237   9.581   2.683   0.019
72114SOL     OW18238   7.783   5.353   5.764
72114SOL    HW118239   7.687   5.351   5.761
72114SOL    HW218240   7.804   5.344   5.857
72115SOL     OW18241  10.840   0.561  14.881
72115SOL    HW118242  10.829   0.655   0.014
72115SOL    HW218243  10.771   0.521   0.051
72116SOL     OW18244   6.718   3.148   1.724
72116SOL    HW118245   6.771   3.091   1.668
72116SOL    HW218246   6.666   3.200   1.663
72117SOL     OW18247  10.989  13.908   4.580
72117SOL    HW118248  10.941  13.872   4.506
72117SOL    HW218249  10.988  14.003   4.565
72118SOL     OW18250  12.994   7.727   8.983
72118SOL    HW118251  13.042   7.716   9.065
72118SOL    HW218252  12.903   7.705   9.005
72119SOL     OW18253  12.146   5.044   7.846
72119SOL    HW118254  12.237   5.062   7.867
72119SOL    HW218255  12.150   4.988   7.769
72120SOL     OW18256  14.031  11.582  10.340
72120SOL    HW118257  14.106  11.629  10.305
72120SOL    HW218258  14.048  11.576  10.434
72121SOL     OW18259   5.419   1.113  14.864
72121SOL    HW118260   5.464   1.149  14.787
72121SOL    HW218261   5.464   1.031  14.882
72122SOL     OW18262   2.557   7.669  10.025
72122SOL    HW118263   2.478   7.720  10.003
72122SOL    HW218264   2.523   7.588  10.062
72123SOL     OW18265  14.166   8.846   7.534
72123SOL    HW118266  14.073   8.831   7.547
72123SOL    HW218267  14.174   8.870   7.442
72124SOL     OW18268   2.406   0.892   1.026
72124SOL    HW118269   2.403   0.933   1.112
72124SOL    HW218270   2.326   0.840   1.021
72125SOL     OW18271   4.671   2.050   4.723
72125SOL    HW118272   4.636   1.968   4.689
72125SOL    HW218273   4.608   2.116   4.694
72126SOL     OW18274   7.727   1.881   8.364
72126SOL    HW118275   7.694   1.924   8.285
72126SOL    HW218276   7.650   1.840   8.403
72127SOL     OW18277   9.479   8.675  10.756
72127SOL    HW118278   9.491   8.604  10.819
72127SOL    HW218279   9.454   8.750  10.810
72128SOL     OW18280   7.804  14.359  10.510
72128SOL    HW118281   7.756  14.319  10.437
72128SOL    HW218282   7.840  14.284  10.558
72129SOL     OW18283  12.211   8.323   1.699
72129SOL    HW118284  12.135   8.337   1.756
72129SOL    HW218285  12.286   8.348   1.752
72130SOL     OW18286   1.286   5.529   5.019
72130SOL    HW118287   1.291   5.542   4.924
72130SOL    HW218288   1.325   5.609   5.056
72131SOL     OW18289   1.259  14.452   5.854
72131SOL    HW118290   1.230  14.541   5.874
72131SOL    HW218291   1.226  14.435   5.765
72132SOL     OW18292   8.739   7.286  13.448
72132SOL    HW118293   8.717   7.379  13.456
72132SOL    HW218294   8.773   7.261  13.534
72133SOL     OW18295   1.868  11.190   4.731
72133SOL    HW118296   1.788  11.158   4.772
72133SOL    HW218297   1.868  11.284   4.747
72134SOL     OW18298  14.175  12.021  12.502
72134SOL    HW118299  14.161  11.997  12.594
72134SOL    HW218300  14.257  11.977  12.479
72135SOL     OW18301   7.851   4.654   4.719
72135SOL    HW118302   7.804   4.701   4.787
72135SOL    HW218303   7.940   4.644   4.754
72136SOL     OW18304   3.284  12.438   0.053
72136SOL    HW118305   3.317  12.425  14.847
72136SOL    HW218306   3.358  12.476   0.101
72137SOL     OW18307  12.465   3.513  10.648
72137SOL    HW118308  12.414   3.563  10.584
72137SOL    HW218309  12.402   3.453  10.688
72138SOL     OW18310   3.158  13.398   2.968
72138SOL    HW118311   3.171  13.320   2.914
72138SOL    HW218312   3.128  13.465   2.907
72139SOL     OW18313   9.231  14.031  13.109
72139SOL    HW118314   9.190  13.946  13.127
72139SOL    HW218315   9.318  14.009  13.075
72140SOL     OW18316  11.501   0.279   4.795
72140SOL    HW118317  11.523   0.372   4.796
72140SOL    HW218318  11.407   0.278   4.775
72141SOL     OW18319   4.903   2.453   0.673
72141SOL    HW118320   4.842   2.498   0.615
72141SOL    HW218321   4.986   2.453   0.624
72142SOL     OW18322   0.254   2.837  13.254
72142SOL    HW118323   0.310   2.763  13.231
72142SOL    HW218324   0.220   2.815  13.341
72143SOL     OW18325  12.314  10.303   4.991
72143SOL    HW118326  12.269  10.341   5.066
72143SOL    HW218327  12.293  10.209   4.996
72144SOL     OW18328  14.616   4.624   5.987
72144SOL    HW118329  14.624   4.686   6.060
72144SOL    HW218330  14.702   4.625   5.945
72145SOL     OW18331   5.506  12.470   9.982
72145SOL    HW118332   5.560  12.431   9.913
72145SOL    HW218333   5.480  12.396  10.037
72146SOL     OW18334  10.945  12.167   4.092
72146SOL    HW118335  10.926  12.194   4.003
72146SOL    HW218336  11.032  12.128   4.087
72147SOL     OW18337   8.412  10.882   9.791
72147SOL    HW118338   8.508  10.883   9.785
72147SOL    HW218339   8.388  10.795   9.759
72148SOL     OW18340  11.238  14.063   9.221
72148SOL    HW118341  11.143  14.058   9.209
72148SOL    HW218342  11.266  14.131   9.160
72149SOL     OW18343   6.664   0.635   3.221
72149SOL    HW118344   6.703   0.696   3.285
72149SOL    HW218345   6.639   0.559   3.273
72150SOL     OW18346  10.498  10.794  10.734
72150SOL    HW118347  10.531  10.877  10.768
72150SOL    HW218348  10.468  10.814  10.645
72151SOL     OW18349   6.793   9.281   3.484
72151SOL    HW118350   6.700   9.259   3.498
72151SOL    HW218351   6.829   9.203   3.442
72152SOL     OW18352   8.463  10.110   0.823
72152SOL    HW118353   8.391  10.158   0.781
72152SOL    HW218354   8.422  10.064   0.896
72153SOL     OW18355  10.085  10.466  11.495
72153SOL    HW118356  10.161  10.501  11.541
72153SOL    HW218357  10.010  10.498  11.544
72154SOL     OW18358   4.604   8.427  12.395
72154SOL    HW118359   4.633   8.495  12.334
72154SOL    HW218360   4.549   8.369  12.342
72155SOL     OW18361   1.918   1.789   4.872
72155SOL    HW118362   1.961   1.797   4.786
72155SOL    HW218363   1.869   1.707   4.867
72156SOL     OW18364   8.861   1.611  13.427
72156SOL    HW118365   8.864   1.566  13.343
72156SOL    HW218366   8.880   1.543  13.492
72157SOL     OW18367   6.944  14.538   6.207
72157SOL    HW118368   6.900  14.472   6.262
72157SOL    HW218369   7.035  14.535   6.235
72158SOL     OW18370   6.627   3.331   1.567
72158SOL    HW118371   6.609   3.308   1.475
72158SOL    HW218372   6.561   3.396   1.589
72159SOL     OW18373   3.133   3.145   0.097
72159SOL    HW118374   3.114   3.136   0.003
72159SOL    HW218375   3.054   3.185   0.134
72160SOL     OW18376  13.495   8.708   9.526
72160SOL    HW118377  13.424   8.728   9.586
72160SOL    HW218378  13.454   8.704   9.439
72161SOL     OW18379  11.178   6.668   9.484
72161SOL    HW118380  11.269   6.693   9.472
72161SOL    HW218381  11.137   6.745   9.524
72162SOL     OW18382  14.750  10.760  13.623
72162SOL    HW118383  14.779  10.831  13.680
72162SOL    HW218384  14.703  10.700  13.681
72163SOL     OW18385  13.700  13.454   5.688
72163SOL    HW118386  13.793  13.438   5.705
72163SOL    HW218387  13.657  13.435   5.771
72164SOL     OW18388   6.742  13.309  10.120
72164SOL    HW118389   6.767  13.386  10.069
72164SOL    HW218390   6.800  13.239  10.089
72165SOL     OW18391   8.202   5.721   9.099
72165SOL    HW118392   8.116   5.681   9.084
72165SOL    HW218393   8.223   5.765   9.017
72166SOL     OW18394  14.729   5.555   5.575
72166SOL    HW118395  14.655   5.572   5.516
72166SOL    HW218396  14.784   5.493   5.528
72167SOL     OW18397   0.572  14.498   3.690
72167SOL    HW118398   0.478  14.485   3.699
72167SOL    HW218399   0.603  14.512   3.779
72168SOL     OW18400  11.520   3.854   8.123
72168SOL    HW118401  11.478   3.833   8.039
72168SOL    HW218402  11.452   3.839   8.188
72169SOL     OW18403   4.397  12.502   9.469
72169SOL    HW118404   4.395  12.536   9.379
72169SOL    HW218405   4.484  12.523   9.501
72170SOL     OW18406   3.974  12.223   3.573
72170SOL    HW118407   3.971  12.267   3.488
72170SOL    HW218408   3.958  12.292   3.637
72171SOL     OW18409   3.137  12.944   6.351
72171SOL    HW118410   3.070  12.999   6.391
72171SOL    HW218411   3.102  12.923   6.264
72172SOL     OW18412   1.311   4.718   9.724
72172SOL    HW118413   1.369   4.646   9.748
72172SOL    HW218414   1.371   4.790   9.703
72173SOL     OW18415   1.061  12.379  14.847
72173SOL    HW118416   1.037  12.452  14.790
72173SOL    HW218417   1.095  12.312  14.787
72174SOL     OW18418   1.230  13.900   1.482
72174SOL    HW118419   1.149  13.938   1.446
72174SOL    HW218420   1.208  13.879   1.573
72175SOL     OW18421   3.810  13.411   1.039
72175SOL    HW118422   3.789  13.365   0.958
72175SOL    HW218423   3.893  13.373   1.069
72176SOL     OW18424   3.118   0.708   3.492
72176SOL    HW118425   3.177   0.750   3.555
72176SOL    HW218426   3.173   0.693   3.414
72177SOL     OW18427  13.206   5.416   6.176
72177SOL    HW118428  13.273   5.348   6.166
72177SOL    HW218429  13.255   5.497   6.185
72178SOL     OW18430   9.589  11.742   7.009
72178SOL    HW118431   9.494  11.753   7.003
72178SOL    HW218432   9.623  11.831   7.004
72179SOL     OW18433   1.592  14.575   0.547
72179SOL    HW118434   1.549  14.646   0.499
72179SOL    HW218435   1.684  14.601   0.552
72180SOL     OW18436   9.396   9.521  10.791
72180SOL    HW118437   9.307   9.541  10.762
72180SOL    HW218438   9.446   9.601  10.773
72181SOL     OW18439   2.560   5.880   7.685
72181SOL    HW118440   2.555   5.917   7.596
72181SOL    HW218441   2.476   5.836   7.697
72182SOL     OW18442   4.713   1.215   3.926
72182SOL    HW118443   4.769   1.244   3.998
72182SOL    HW218444   4.695   1.123   3.945
72183SOL     OW18445   2.476   5.181   0.309
72183SOL    HW118446   2.571   5.174   0.318
72183SOL    HW218447   2.453   5.110   0.249
72184SOL     OW18448   4.339   6.396  10.019
72184SOL    HW118449   4.354   6.469   9.960
72184SOL    HW218450   4.249   6.407  10.050
72185SOL     OW18451  12.886   6.100  10.590
72185SOL    HW118452  12.960   6.079  10.648
72185SOL    HW218453  12.874   6.195  10.602
72186SOL     OW18454   2.337  13.908   0.314
72186SOL    HW118455   2.375  13.992   0.343
72186SOL    HW218456   2.402  13.843   0.340
72187SOL     OW18457  10.043  11.597   1.316
72187SOL    HW118458  10.051  11.617   1.223
72187SOL    HW218459   9.954  11.624   1.339
72188SOL     OW18460   3.713   7.497   9.883
72188SOL    HW118461   3.675   7.577   9.846
72188SOL    HW218462   3.665   7.483   9.965
72189SOL     OW18463   8.602   5.804   1.295
72189SOL    HW118464   8.673   5.825   1.356
72189SOL    HW218465   8.525   5.849   1.330
72190SOL     OW18466  10.266   6.310   4.220
72190SOL    HW118467  10.325   6.377   4.254
72190SOL    HW218468  10.322   6.234   4.204
72191SOL     OW18469   7.932   0.526   7.217
72191SOL    HW118470   7.999   0.504   7.153
72191SOL    HW218471   7.970   0.501   7.302
72192SOL     OW18472   3.505   6.540   4.489
72192SOL    HW118473   3.600   6.543   4.500
72192SOL    HW218474   3.474   6.485   4.561
72193SOL     OW18475   6.068  10.742  11.189
72193SOL    HW118476   6.141  10.685  11.214
72193SOL    HW218477   6.110  10.815  11.143
72194SOL     OW18478  11.126   4.244  14.239
72194SOL    HW118479  11.143   4.244  14.145
72194SOL    HW218480  11.109   4.152  14.261
72195SOL     OW18481   9.684   1.634   5.319
72195SOL    HW118482   9.614   1.661   5.258
72195SOL    HW218483   9.638   1.611   5.399
72196SOL     OW18484   2.050  13.383  11.456
72196SOL    HW118485   1.969  13.347  11.492
72196SOL    HW218486   2.109  13.391  11.531
72197SOL     OW18487  13.569   5.483   6.025
72197SOL    HW118488  13.558   5.434   6.106
72197SOL    HW218489  13.487   5.531   6.015
72198SOL     OW18490   7.713  10.331   0.461
72198SOL    HW118491   7.662  10.274   0.519
72198SOL    HW218492   7.804  10.313   0.485
72199SOL     OW18493   1.051   2.734  12.546
72199SOL    HW118494   1.124   2.794  12.530
72199SOL    HW218495   1.056   2.715  12.640
72200SOL     OW18496  12.348   6.901   4.903
72200SOL    HW118497  12.426   6.956   4.906
72200SOL    HW218498  12.383   6.812   4.889
72201SOL     OW18499   9.897  12.326   6.803
72201SOL    HW118500   9.862  12.412   6.780
72201SOL    HW218501   9.830  12.288   6.860
72202SOL     OW18502   4.077  14.385   8.706
72202SOL    HW118503   4.171  14.370   8.713
72202SOL    HW218504   4.067  14.439   8.628
72203SOL     OW18505   4.483  11.462   2.032
72203SOL    HW118506   4.497  11.394   1.966
72203SOL    HW218507   4.419  11.424   2.092
72204SOL     OW18508   3.672   1.314   0.879
72204SOL    HW118509   3.678   1.226   0.841
72204SOL    HW218510   3.686   1.301   0.973
72205SOL     OW18511  10.228   5.295   5.075
72205SOL    HW118512  10.207   5.277   4.984
72205SOL    HW218513  10.290   5.368   5.072
72206SOL     OW18514   9.249   4.699  12.431
72206SOL    HW118515   9.211   4.760  12.493
72206SOL    HW218516   9.316   4.750  12.384
72207SOL     OW18517   7.362   6.664   3.679
72207SOL    HW118518   7.445   6.686   3.636
72207SOL    HW218519   7.356   6.726   3.752
72208SOL     OW18520   2.410   4.454   5.150
72208SOL    HW118521   2.321   4.420   5.153
72208SOL    HW218522   2.441   4.448   5.240
72209SOL     OW18523  11.940   1.527   7.351
72209SOL    HW118524  11.940   1.473   7.430
72209SOL    HW218525  11.888   1.604   7.373
72210SOL     OW18526  13.094   1.164   5.949
72210SOL    HW118527  13.120   1.240   6.001
72210SOL    HW218528  13.155   1.164   5.875
72211SOL     OW18529  10.476   5.095  13.165
72211SOL    HW118530  10.394   5.062  13.202
72211SOL    HW218531  10.545   5.051  13.214
72212SOL     OW18532  11.084   8.233   8.307
72212SOL    HW118533  10.999   8.265   8.340
72212SOL    HW218534  11.065   8.199   8.220
72213SOL     OW18535   7.646  14.406  14.780
72213SOL    HW118536   7.672  14.315  14.768
72213SOL    HW218537   7.685  14.432  14.863
72214SOL     OW18538  12.062  12.074   0.427
72214SOL    HW118539  11.990  12.135   0.441
72214SOL    HW218540  12.020  11.995   0.391
72215SOL     OW18541   9.541   0.664   8.244
72215SOL    HW118542   9.634   0.647   8.233
72215SOL    HW218543   9.499   0.614   8.175
72216SOL     OW18544   0.413   1.429   3.483
72216SOL    HW118545   0.336   1.432   3.428
72216SOL    HW218546   0.382   1.454   3.570
72217SOL     OW18547  10.559   6.610  10.714
72217SOL    HW118548  10.487   6.588  10.773
72217SOL    HW218549  10.523   6.599  10.626
72218SOL     OW18550   1.210   4.339   2.954
72218SOL    HW118551   1.147   4.304   2.891
72218SOL    HW218552   1.277   4.382   2.901
72219SOL     OW18553   0.397   9.279   5.438
72219SOL    HW118554   0.390   9.201   5.382
72219SOL    HW218555   0.315   9.325   5.427
72220SOL     OW18556   2.880  10.088   3.306
72220SOL    HW118557   2.855  10.078   3.397
72220SOL    HW218558   2.897   9.998   3.276
72221SOL     OW18559   8.018   6.159   0.900
72221SOL    HW118560   8.100   6.130   0.940
72221SOL    HW218561   7.963   6.184   0.974
72222SOL     OW18562   1.307  14.793  11.021
72222SOL    HW118563   1.240  14.859  11.039
72222SOL    HW218564   1.260  14.723  10.976
72223SOL     OW18565   0.393   9.408   3.330
72223SOL    HW118566   0.474   9.457   3.320
72223SOL    HW218567   0.350   9.413   3.245
72224SOL     OW18568   4.401  11.478   7.694
72224SOL    HW118569   4.380  11.467   7.787
72224SOL    HW218570   4.326  11.526   7.658
72225SOL     OW18571  14.439  12.087  13.327
72225SOL    HW118572  14.497  12.069  13.253
72225SOL    HW218573  14.476  12.166  13.367
72226SOL     OW18574   6.920  14.663   0.007
72226SOL    HW118575   6.906  14.632  14.799
72226SOL    HW218576   6.985  14.732  14.881
72227SOL     OW18577   8.602   4.525  13.412
72227SOL    HW118578   8.672   4.460  13.414
72227SOL    HW218579   8.626   4.584  13.340
72228SOL     OW18580   0.131  14.836  13.081
72228SOL    HW118581   0.145  14.772  13.012
72228SOL    HW218582   0.158   0.037  13.042
72229SOL     OW18583   9.204   7.203   6.400
72229SOL    HW118584   9.196   7.138   6.470
72229SOL    HW218585   9.286   7.181   6.356
72230SOL     OW18586   7.382   2.582   7.250
72230SOL    HW118587   7.437   2.649   7.211
72230SOL    HW218588   7.436   2.502   7.248
72231SOL     OW18589  10.549   4.676   9.448
72231SOL    HW118590  10.610   4.632   9.507
72231SOL    HW218591  10.526   4.757   9.493
72232SOL     OW18592  10.224  10.812  13.430
72232SOL    HW118593  10.129  10.812  13.430
72232SOL    HW218594  10.248  10.746  13.496
72233SOL     OW18595  11.590  13.914   9.339
72233SOL    HW118596  11.505  13.935   9.379
72233SOL    HW218597  11.628  13.999   9.318
72234SOL     OW18598  13.167   1.607  12.905
72234SOL    HW118599  13.073   1.592  12.896
72234SOL    HW218600  13.208   1.525  12.875
72235SOL     OW18601   6.422   4.597  11.341
72235SOL    HW118602   6.458   4.538  11.407
72235SOL    HW218603   6.415   4.543  11.262
72236SOL     OW18604   0.173   0.479   1.803
72236SOL    HW118605   0.195   0.525   1.722
72236SOL    HW218606   0.255   0.440   1.833
72237SOL     OW18607   7.238  14.869  10.601
72237SOL    HW118608   7.316  14.873  10.546
72237SOL    HW218609   7.272  14.851  10.689
72238SOL     OW18610   3.067  13.868   7.914
72238SOL    HW118611   3.082  13.917   7.833
72238SOL    HW218612   2.992  13.812   7.893
72239SOL     OW18613   9.633   5.027  11.375
72239SOL    HW118614   9.570   5.008  11.306
72239SOL    HW218615   9.695   4.954  11.371
72240SOL     OW18616   9.007   0.792   4.922
72240SOL    HW118617   9.058   0.737   4.862
72240SOL    HW218618   8.972   0.731   4.986
72241SOL     OW18619   8.189  14.405   4.195
72241SOL    HW118620   8.283  14.387   4.196
72241SOL    HW218621   8.166  14.416   4.288
72242SOL     OW18622   0.767   8.394   2.849
72242SOL    HW118623   0.693   8.349   2.890
72242SOL    HW218624   0.788   8.341   2.772
72243SOL     OW18625  10.663   2.314   8.292
72243SOL    HW118626  10.623   2.228   8.306
72243SOL    HW218627  10.646   2.362   8.373
72244SOL     OW18628   7.583   6.958   2.413
72244SOL    HW118629   7.514   6.891   2.415
72244SOL    HW218630   7.536   7.040   2.429
72245SOL     OW18631  13.044   5.177  13.126
72245SOL    HW118632  13.088   5.156  13.044
72245SOL    HW218633  13.116   5.196  13.187
72246SOL     OW18634  11.029   5.541   5.576
72246SOL    HW118635  10.981   5.615   5.539
72246SOL    HW218636  11.049   5.485   5.501
72247SOL     OW18637  14.053   2.146   3.694
72247SOL    HW118638  14.035   2.087   3.768
72247SOL    HW218639  13.983   2.211   3.698
72248SOL     OW18640   5.584   1.991   6.656
72248SOL    HW118641   5.603   1.959   6.568
72248SOL    HW218642   5.573   1.912   6.708
72249SOL     OW18643  11.755   7.188   4.468
72249SOL    HW118644  11.750   7.262   4.528
72249SOL    HW218645  11.847   7.183   4.444
72250SOL     OW18646  14.524   9.242  10.158
72250SOL    HW118647  14.567   9.200  10.084
72250SOL    HW218648  14.579   9.221  10.234
72251SOL     OW18649   1.372   9.559   1.499
72251SOL    HW118650   1.350   9.468   1.521
72251SOL    HW218651   1.355   9.607   1.580
72252SOL     OW18652   3.014   7.155   2.662
72252SOL    HW118653   2.984   7.239   2.626
72252SOL    HW218654   3.080   7.179   2.727
72253SOL     OW18655   4.156   8.902  13.948
72253SOL    HW118656   4.182   8.984  13.907
72253SOL    HW218657   4.223   8.839  13.920
72254SOL     OW18658   0.399   6.516   9.696
72254SOL    HW118659   0.332   6.449   9.711
72254SOL    HW218660   0.361   6.597   9.731
72255SOL     OW18661   8.813  10.305  12.163
72255SOL    HW118662   8.869  10.291  12.087
72255SOL    HW218663   8.791  10.216  12.193
72256SOL     OW18664   8.237   4.452   3.055
72256SOL    HW118665   8.266   4.476   2.967
72256SOL    HW218666   8.199   4.364   3.045
72257SOL     OW18667   9.940   1.831   1.081
72257SOL    HW118668   9.972   1.750   1.121
72257SOL    HW218669   9.867   1.804   1.025
72258SOL     OW18670   1.582  12.208  10.118
72258SOL    HW118671   1.538  12.291  10.139
72258SOL    HW218672   1.573  12.156  10.198
72259SOL     OW18673   0.113   1.821   2.552
72259SOL    HW118674   0.125   1.902   2.602
72259SOL    HW218675   0.085   1.851   2.466
72260SOL     OW18676   1.564  12.349   4.381
72260SOL    HW118677   1.575  12.332   4.474
72260SOL    HW218678   1.652  12.371   4.350
72261SOL     OW18679  12.942   7.273  14.335
72261SOL    HW118680  12.863   7.310  14.297
72261SOL    HW218681  12.919   7.254  14.426
72262SOL     OW18682   2.254  11.940   6.857
72262SOL    HW118683   2.250  11.872   6.790
72262SOL    HW218684   2.331  11.992   6.834
72263SOL     OW18685   2.164   8.646   9.594
72263SOL    HW118686   2.131   8.736   9.592
72263SOL    HW218687   2.109   8.601   9.658
72264SOL     OW18688   9.329   3.641  10.122
72264SOL    HW118689   9.363   3.728  10.099
72264SOL    HW218690   9.266   3.621  10.053
72265SOL     OW18691  13.218  10.144   3.667
72265SOL    HW118692  13.279  10.107   3.603
72265SOL    HW218693  13.202  10.233   3.636
72266SOL     OW18694   0.833   0.794   6.159
72266SOL    HW118695   0.927   0.810   6.152
72266SOL    HW218696   0.803   0.856   6.225
72267SOL     OW18697  12.530   5.786   1.032
72267SOL    HW118698  12.509   5.734   0.955
72267SOL    HW218699  12.589   5.732   1.083
72268SOL     OW18700   7.637  11.667  14.819
72268SOL    HW118701   7.683  11.680  14.736
72268SOL    HW218702   7.703  11.634  14.879
72269SOL     OW18703   1.842  14.816   0.085
72269SOL    HW118704   1.858  14.760   0.010
72269SOL    HW218705   1.916  14.799   0.144
72270SOL     OW18706   6.955   3.298  13.073
72270SOL    HW118707   6.913   3.216  13.100
72270SOL    HW218708   7.010   3.323  13.148
72271SOL     OW18709   2.783   8.806   5.164
72271SOL    HW118710   2.818   8.790   5.076
72271SOL    HW218711   2.694   8.771   5.161
72272SOL     OW18712  13.303  14.276   0.483
72272SOL    HW118713  13.232  14.335   0.458
72272SOL    HW218714  13.382  14.328   0.474
72273SOL     OW18715  13.338  10.369  13.257
72273SOL    HW118716  13.402  10.412  13.313
72273SOL    HW218717  13.324  10.284  13.298
72274SOL     OW18718  12.653   8.195  14.586
72274SOL    HW118719  12.676   8.258  14.654
72274SOL    HW218720  12.700   8.226  14.508
72275SOL     OW18721  13.616   5.972   4.498
72275SOL    HW118722  13.643   5.979   4.589
72275SOL    HW218723  13.525   6.001   4.497
72276SOL     OW18724   3.496   2.466  13.474
72276SOL    HW118725   3.527   2.544  13.428
72276SOL    HW218726   3.479   2.496  13.564
72277SOL     OW18727   5.332   3.779   6.795
72277SOL    HW118728   5.275   3.711   6.759
72277SOL    HW218729   5.283   3.860   6.784
72278SOL     OW18730   4.692   8.189   9.834
72278SOL    HW118731   4.766   8.159   9.781
72278SOL    HW218732   4.715   8.166   9.924
72279SOL     OW18733   2.505  10.105   3.743
72279SOL    HW118734   2.439  10.092   3.675
72279SOL    HW218735   2.491  10.195   3.773
72280SOL     OW18736   7.579   9.622   7.959
72280SOL    HW118737   7.534   9.588   8.036
72280SOL    HW218738   7.512   9.625   7.891
72281SOL     OW18739   7.969   2.310   2.201
72281SOL    HW118740   8.034   2.378   2.216
72281SOL    HW218741   8.014   2.228   2.222
72282SOL     OW18742   9.726   0.074   3.101
72282SOL    HW118743   9.646   0.126   3.087
72282SOL    HW218744   9.796   0.139   3.107
72283SOL     OW18745   7.195   0.539   6.304
72283SOL    HW118746   7.208   0.496   6.388
72283SOL    HW218747   7.255   0.614   6.306
72284SOL     OW18748   8.380   9.948   2.749
72284SOL    HW118749   8.379   9.859   2.715
72284SOL    HW218750   8.390   9.937   2.844
72285SOL     OW18751  11.276  14.531   0.370
72285SOL    HW118752  11.274  14.622   0.401
72285SOL    HW218753  11.227  14.483   0.437
72286SOL     OW18754  12.531   0.327  10.755
72286SOL    HW118755  12.589   0.392  10.714
72286SOL    HW218756  12.583   0.291  10.827
72287SOL     OW18757   8.691  12.433  14.652
72287SOL    HW118758   8.684  12.419  14.746
72287SOL    HW218759   8.601  12.439  14.621
72288SOL     OW18760   1.832   1.169  11.215
72288SOL    HW118761   1.812   1.093  11.160
72288SOL    HW218762   1.907   1.210  11.172
72289SOL     OW18763   9.064   2.494  14.424
72289SOL    HW118764   8.975   2.510  14.456
72289SOL    HW218765   9.121   2.532  14.490
72290SOL     OW18766   3.950   7.608  14.028
72290SOL    HW118767   3.862   7.596  13.990
72290SOL    HW218768   3.945   7.689  14.077
72291SOL     OW18769   3.079  12.950   5.393
72291SOL    HW118770   3.133  12.909   5.326
72291SOL    HW218771   3.122  12.929   5.476
72292SOL     OW18772   5.855  11.152   8.702
72292SOL    HW118773   5.778  11.201   8.674
72292SOL    HW218774   5.848  11.147   8.797
72293SOL     OW18775  12.121  10.708   7.943
72293SOL    HW118776  12.151  10.668   8.025
72293SOL    HW218777  12.084  10.792   7.970
72294SOL     OW18778  14.688   9.806  11.512
72294SOL    HW118779  14.631   9.845  11.446
72294SOL    HW218780  14.757   9.763  11.461
72295SOL     OW18781  11.010   4.028  14.320
72295SOL    HW118782  10.958   3.971  14.263
72295SOL    HW218783  11.027   3.975  14.398
72296SOL     OW18784  12.332   9.380   6.884
72296SOL    HW118785  12.423   9.351   6.888
72296SOL    HW218786  12.328   9.456   6.941
72297SOL     OW18787   7.251   0.348   1.299
72297SOL    HW118788   7.223   0.435   1.329
72297SOL    HW218789   7.221   0.343   1.208
72298SOL     OW18790  13.847   5.902   6.565
72298SOL    HW118791  13.862   5.995   6.581
72298SOL    HW218792  13.847   5.893   6.469
72299SOL     OW18793  13.516   8.469   2.725
72299SOL    HW118794  13.550   8.543   2.675
72299SOL    HW218795  13.447   8.507   2.780
72300SOL     OW18796  10.453  10.408  12.545
72300SOL    HW118797  10.474  10.427  12.454
72300SOL    HW218798  10.478  10.487  12.592
72301SOL     OW18799   4.006   6.001   3.148
72301SOL    HW118800   4.054   6.042   3.221
72301SOL    HW218801   3.913   6.012   3.172
72302SOL     OW18802  11.707   5.949   4.760
72302SOL    HW118803  11.651   5.974   4.834
72302SOL    HW218804  11.785   6.004   4.770
72303SOL     OW18805   2.934   1.493  12.350
72303SOL    HW118806   2.869   1.459  12.288
72303SOL    HW218807   2.999   1.424  12.359
72304SOL     OW18808  12.520  14.464  14.674
72304SOL    HW118809  12.470  14.427  14.747
72304SOL    HW218810  12.458  14.467  14.601
72305SOL     OW18811   6.751  10.953   5.986
72305SOL    HW118812   6.826  10.928   5.931
72305SOL    HW218813   6.789  11.007   6.055
72306SOL     OW18814  11.071   3.543  11.797
72306SOL    HW118815  11.091   3.450  11.799
72306SOL    HW218816  11.075   3.567  11.704
72307SOL     OW18817   6.664  11.459   4.702
72307SOL    HW118818   6.584  11.409   4.689
72307SOL    HW218819   6.663  11.525   4.633
72308SOL     OW18820   3.945   0.183  10.904
72308SOL    HW118821   3.968   0.262  10.954
72308SOL    HW218822   3.877   0.212  10.844
72309SOL     OW18823  12.302   7.862   4.974
72309SOL    HW118824  12.346   7.866   5.059
72309SOL    HW218825  12.271   7.951   4.958
72310SOL     OW18826   6.031   3.141   6.564
72310SOL    HW118827   5.955   3.188   6.598
72310SOL    HW218828   6.065   3.197   6.495
72311SOL     OW18829   4.923  13.947  13.031
72311SOL    HW118830   4.861  14.011  13.065
72311SOL    HW218831   4.937  13.887  13.105
72312SOL     OW18832   0.554  12.852   2.176
72312SOL    HW118833   0.504  12.916   2.226
72312SOL    HW218834   0.510  12.769   2.192
72313SOL     OW18835   6.947   9.021   4.102
72313SOL    HW118836   6.982   9.073   4.029
72313SOL    HW218837   6.861   9.058   4.118
72314SOL     OW18838   6.448   2.227   5.917
72314SOL    HW118839   6.390   2.255   5.987
72314SOL    HW218840   6.430   2.288   5.845
72315SOL     OW18841   2.687   6.234   2.430
72315SOL    HW118842   2.671   6.177   2.505
72315SOL    HW218843   2.723   6.175   2.363
72316SOL     OW18844   4.754   5.412  13.479
72316SOL    HW118845   4.666   5.447  13.466
72316SOL    HW218846   4.749   5.367  13.564
72317SOL     OW18847   3.114   3.869  11.845
72317SOL    HW118848   3.071   3.905  11.767
72317SOL    HW218849   3.050   3.808  11.881
72318SOL     OW18850   6.716   3.898   4.676
72318SOL    HW118851   6.647   3.960   4.653
72318SOL    HW218852   6.669   3.820   4.705
72319SOL     OW18853   6.664   6.558  14.721
72319SOL    HW118854   6.615   6.561  14.639
72319SOL    HW218855   6.602   6.523  14.785
72320SOL     OW18856   9.408   5.380   7.287
72320SOL    HW118857   9.368   5.443   7.347
72320SOL    HW218858   9.390   5.295   7.327
72321SOL     OW18859  11.305   3.200   2.001
72321SOL    HW118860  11.212   3.207   1.981
72321SOL    HW218861  11.340   3.287   1.984
72322SOL     OW18862   7.454  12.694  10.745
72322SOL    HW118863   7.442  12.751  10.821
72322SOL    HW218864   7.483  12.752  10.675
72323SOL     OW18865  11.034  11.494   5.086
72323SOL    HW118866  11.107  11.552   5.104
72323SOL    HW218867  11.010  11.512   4.995
72324SOL     OW18868  14.550  13.222   4.725
72324SOL    HW118869  14.588  13.280   4.792
72324SOL    HW218870  14.590  13.251   4.643
72325SOL     OW18871   3.113   5.208   2.230
72325SOL    HW118872   3.163   5.162   2.162
72325SOL    HW218873   3.174   5.273   2.265
72326SOL     OW18874  12.681  11.829   1.692
72326SOL    HW118875  12.715  11.793   1.774
72326SOL    HW218876  12.700  11.761   1.627
72327SOL     OW18877  13.453   3.618   3.789
72327SOL    HW118878  13.378   3.668   3.822
72327SOL    HW218879  13.519   3.626   3.858
72328SOL     OW18880   1.547   5.545   8.023
72328SOL    HW118881   1.569   5.639   8.021
72328SOL    HW218882   1.523   5.525   7.933
72329SOL     OW18883   3.463   6.138  14.393
72329SOL    HW118884   3.554   6.130  14.420
72329SOL    HW218885   3.462   6.209  14.329
72330SOL     OW18886   0.993  12.247   8.525
72330SOL    HW118887   0.970  12.293   8.606
72330SOL    HW218888   1.077  12.285   8.499
72331SOL     OW18889  11.676   4.174   9.983
72331SOL    HW118890  11.619   4.250   9.968
72331SOL    HW218891  11.633   4.127  10.054
72332SOL     OW18892  14.332   7.343   9.469
72332SOL    HW118893  14.351   7.395   9.547
72332SOL    HW218894  14.348   7.402   9.396
72333SOL     OW18895   9.576  11.858  11.574
72333SOL    HW118896   9.668  11.871  11.552
72333SOL    HW218897   9.561  11.917  11.648
72334SOL     OW18898  13.524  10.001   1.465
72334SOL    HW118899  13.453   9.984   1.404
72334SOL    HW218900  13.484  10.051   1.536
72335SOL     OW18901   7.844  13.149  12.148
72335SOL    HW118902   7.800  13.203  12.082
72335SOL    HW218903   7.810  13.182  12.232
72336SOL     OW18904  11.813  14.056  11.060
72336SOL    HW118905  11.842  14.147  11.065
72336SOL    HW218906  11.895  14.006  11.050
72337SOL     OW18907  13.798   4.899   7.495
72337SOL    HW118908  13.812   4.818   7.542
72337SOL    HW218909  13.710   4.927   7.520
72338SOL     OW18910   8.320  10.569  10.928
72338SOL    HW118911   8.226  10.583  10.921
72338SOL    HW218912   8.329  10.498  10.992
72339SOL     OW18913   6.744   3.042   0.852
72339SOL    HW118914   6.833   3.060   0.881
72339SOL    HW218915   6.715   2.969   0.907
72340SOL     OW18916   2.626   0.549  12.067
72340SOL    HW118917   2.587   0.566  11.981
72340SOL    HW218918   2.617   0.632  12.114
72341SOL     OW18919   2.042  12.656   2.715
72341SOL    HW118920   1.996  12.575   2.696
72341SOL    HW218921   2.074  12.646   2.805
72342SOL     OW18922   4.692  10.621   4.804
72342SOL    HW118923   4.776  10.633   4.760
72342SOL    HW218924   4.713  10.568   4.882
72343SOL     OW18925   9.812   9.859  13.005
72343SOL    HW118926   9.791   9.944  12.965
72343SOL    HW218927   9.879   9.879  13.070
72344SOL     OW18928   3.249   2.415   3.192
72344SOL    HW118929   3.172   2.364   3.169
72344SOL    HW218930   3.290   2.436   3.109
72345SOL     OW18931  13.435   4.740   7.614
72345SOL    HW118932  13.408   4.801   7.683
72345SOL    HW218933  13.476   4.795   7.548
72346SOL     OW18934  11.717   8.394   8.797
72346SOL    HW118935  11.645   8.445   8.761
72346SOL    HW218936  11.775   8.458   8.837
72347SOL     OW18937  13.146  13.991   5.827
72347SOL    HW118938  13.100  13.979   5.910
72347SOL    HW218939  13.085  14.038   5.771
72348SOL     OW18940   7.344   3.410   8.610
72348SOL    HW118941   7.392   3.437   8.688
72348SOL    HW218942   7.254   3.436   8.626
72349SOL     OW18943   5.909   8.941  10.165
72349SOL    HW118944   5.877   8.869  10.220
72349SOL    HW218945   5.993   8.910  10.132
72350SOL     OW18946   0.433   4.151  14.667
72350SOL    HW118947   0.342   4.166  14.691
72350SOL    HW218948   0.431   4.141  14.572
72351SOL     OW18949  12.537   6.460   0.364
72351SOL    HW118950  12.571   6.528   0.422
72351SOL    HW218951  12.548   6.496   0.276
72352SOL     OW18952   8.115  14.481   9.414
72352SOL    HW118953   8.177  14.540   9.458
72352SOL    HW218954   8.165  14.400   9.400
72353SOL     OW18955   6.418   1.222   1.430
72353SOL    HW118956   6.421   1.179   1.516
72353SOL    HW218957   6.372   1.304   1.447
72354SOL     OW18958   6.897   9.189   3.848
72354SOL    HW118959   6.842   9.261   3.880
72354SOL    HW218960   6.986   9.214   3.873
72355SOL     OW18961  11.490   4.288   4.068
72355SOL    HW118962  11.397   4.286   4.090
72355SOL    HW218963  11.508   4.380   4.048
72356SOL     OW18964   2.191   1.446  12.843
72356SOL    HW118965   2.259   1.513  12.846
72356SOL    HW218966   2.224   1.380  12.783
72357SOL     OW18967  10.506   4.437   7.178
72357SOL    HW118968  10.588   4.388   7.181
72357SOL    HW218969  10.440   4.373   7.152
72358SOL     OW18970   7.396   6.060  14.416
72358SOL    HW118971   7.381   5.970  14.446
72358SOL    HW218972   7.338   6.070  14.341
72359SOL     OW18973   5.146   9.101   3.144
72359SOL    HW118974   5.091   9.166   3.186
72359SOL    HW218975   5.111   9.092   3.055
72360SOL     OW18976   0.599  13.488   5.821
72360SOL    HW118977   0.607  13.426   5.748
72360SOL    HW218978   0.507  13.487   5.844
72361SOL     OW18979  14.264   2.928   2.675
72361SOL    HW118980  14.267   3.022   2.654
72361SOL    HW218981  14.192   2.920   2.737
72362SOL     OW18982   8.122  14.518   3.792
72362SOL    HW118983   8.079  14.600   3.768
72362SOL    HW218984   8.205  14.545   3.830
72363SOL     OW18985  11.543   5.565   6.491
72363SOL    HW118986  11.457   5.580   6.531
72363SOL    HW218987  11.524   5.518   6.410
72364SOL     OW18988  11.532   5.993   5.048
72364SOL    HW118989  11.471   6.033   4.985
72364SOL    HW218990  11.485   5.917   5.081
72365SOL     OW18991   6.213  12.043  10.673
72365SOL    HW118992   6.275  12.001  10.613
72365SOL    HW218993   6.171  12.111  10.620
72366SOL     OW18994   1.633   4.878  13.405
72366SOL    HW118995   1.725   4.900  13.424
72366SOL    HW218996   1.638   4.798  13.353
72367SOL     OW18997   1.549  10.233   9.936
72367SOL    HW118998   1.638  10.249   9.969
72367SOL    HW218999   1.505  10.186  10.007
72368SOL     OW19000   1.404   9.364   3.391
72368SOL    HW119001   1.408   9.421   3.315
72368SOL    HW219002   1.387   9.423   3.464
72369SOL     OW19003   0.708   7.936   5.825
72369SOL    HW119004   0.630   7.992   5.830
72369SOL    HW219005   0.730   7.918   5.917
72370SOL     OW19006   0.352  12.432   7.756
72370SOL    HW119007   0.429  12.438   7.812
72370SOL    HW219008   0.386  12.411   7.670
72371SOL     OW19009   5.455   8.140  14.349
72371SOL    HW119010   5.454   8.166  14.440
72371SOL    HW219011   5.364   8.116  14.330
72372SOL     OW19012   8.830   8.410   5.654
72372SOL    HW119013   8.900   8.362   5.700
72372SOL    HW219014   8.814   8.487   5.708
72373SOL     OW19015   8.151   0.435   7.068
72373SOL    HW119016   8.237   0.430   7.110
72373SOL    HW219017   8.169   0.459   6.977
72374SOL     OW19018   5.562  13.182   1.542
72374SOL    HW119019   5.544  13.222   1.457
72374SOL    HW219020   5.654  13.204   1.560
72375SOL     OW19021   6.219   3.668  10.648
72375SOL    HW119022   6.130   3.702  10.649
72375SOL    HW219023   6.251   3.680  10.738
72376SOL     OW19024  10.839   8.802   0.156
72376SOL    HW119025  10.787   8.727   0.128
72376SOL    HW219026  10.888   8.829   0.078
72377SOL     OW19027   1.740   7.767   2.130
72377SOL    HW119028   1.693   7.766   2.047
72377SOL    HW219029   1.825   7.728   2.110
72378SOL     OW19030  10.844   9.559   1.758
72378SOL    HW119031  10.929   9.535   1.795
72378SOL    HW219032  10.795   9.476   1.755
72379SOL     OW19033  14.513  13.612  10.199
72379SOL    HW119034  14.584  13.634  10.138
72379SOL    HW219035  14.485  13.696  10.235
72380SOL     OW19036   2.754  14.130  14.206
72380SOL    HW119037   2.804  14.085  14.274
72380SOL    HW219038   2.773  14.082  14.126
72381SOL     OW19039   5.266   4.860  12.029
72381SOL    HW119040   5.347   4.843  12.077
72381SOL    HW219041   5.210   4.905  12.092
72382SOL     OW19042  12.580   2.874   3.751
72382SOL    HW119043  12.617   2.933   3.817
72382SOL    HW219044  12.497   2.915   3.725
72383SOL     OW19045   9.140   8.700   4.258
72383SOL    HW119046   9.163   8.609   4.238
72383SOL    HW219047   9.148   8.706   4.353
72384SOL     OW19048   7.903  14.238   6.987
72384SOL    HW119049   7.808  14.244   6.996
72384SOL    HW219050   7.934  14.327   7.001
72385SOL     OW19051  11.355   5.658   7.709
72385SOL    HW119052  11.401   5.740   7.691
72385SOL    HW219053  11.422   5.601   7.747
72386SOL     OW19054  13.858   7.986  13.528
72386SOL    HW119055  13.884   8.036  13.451
72386SOL    HW219056  13.934   7.988  13.585
72387SOL     OW19057   2.116   6.294   4.971
72387SOL    HW119058   2.031   6.253   4.990
72387SOL    HW219059   2.121   6.367   5.033
72388SOL     OW19060   3.011   9.834   1.622
72388SOL    HW119061   2.955   9.770   1.579
72388SOL    HW219062   3.037   9.793   1.704
72389SOL     OW19063   7.156   8.027   3.492
72389SOL    HW119064   7.181   8.062   3.406
72389SOL    HW219065   7.074   7.981   3.476
72390SOL     OW19066   5.413   0.919  11.446
72390SOL    HW119067   5.336   0.928  11.390
72390SOL    HW219068   5.393   0.971  11.524
72391SOL     OW19069  10.779   1.613   8.548
72391SOL    HW119070  10.764   1.683   8.611
72391SOL    HW219071  10.822   1.544   8.599
72392SOL     OW19072   3.654   0.161  13.454
72392SOL    HW119073   3.578   0.121  13.496
72392SOL    HW219074   3.618   0.206  13.377
72393SOL     OW19075   3.255   0.573   5.760
72393SOL    HW119076   3.250   0.649   5.701
72393SOL    HW219077   3.197   0.508   5.720
72394SOL     OW19078   4.238  13.710   8.013
72394SOL    HW119079   4.273  13.621   8.013
72394SOL    HW219080   4.191  13.717   8.097
72395SOL     OW19081   4.414   4.704  14.566
72395SOL    HW119082   4.475   4.642  14.526
72395SOL    HW219083   4.379   4.755  14.493
72396SOL     OW19084   9.698   3.780   8.267
72396SOL    HW119085   9.682   3.717   8.337
72396SOL    HW219086   9.611   3.794   8.228
72397SOL     OW19087   2.087   0.867   8.185
72397SOL    HW119088   2.073   0.776   8.213
72397SOL    HW219089   1.998   0.901   8.172
72398SOL     OW19090   4.378  13.539   2.362
72398SOL    HW119091   4.431  13.496   2.295
72398SOL    HW219092   4.309  13.476   2.382
72399SOL     OW19093   5.532   5.937   4.263
72399SOL    HW119094   5.584   5.997   4.209
72399SOL    HW219095   5.449   5.982   4.275
72400SOL     OW19096   3.527   1.569   2.628
72400SOL    HW119097   3.563   1.529   2.549
72400SOL    HW219098   3.489   1.651   2.597
72401SOL     OW19099  10.895  10.078   6.478
72401SOL    HW119100  10.902  10.163   6.521
72401SOL    HW219101  10.892  10.098   6.385
72402SOL     OW19102   4.523   7.369  13.938
72402SOL    HW119103   4.558   7.378  13.849
72402SOL    HW219104   4.493   7.457  13.961
72403SOL     OW19105   1.186   2.073  11.949
72403SOL    HW119106   1.149   2.154  11.985
72403SOL    HW219107   1.278   2.095  11.930
72404SOL     OW19108   9.328   0.788   1.154
72404SOL    HW119109   9.341   0.822   1.242
72404SOL    HW219110   9.238   0.812   1.132
72405SOL     OW19111   5.359  14.652  11.522
72405SOL    HW119112   5.345  14.589  11.593
72405SOL    HW219113   5.373  14.598  11.445
72406SOL     OW19114   5.214  10.779   0.906
72406SOL    HW119115   5.250  10.693   0.884
72406SOL    HW219116   5.128  10.782   0.865
72407SOL     OW19117   8.804  11.166   6.695
72407SOL    HW119118   8.754  11.139   6.772
72407SOL    HW219119   8.781  11.258   6.683
72408SOL     OW19120   0.213  13.288   1.819
72408SOL    HW119121   0.228  13.237   1.740
72408SOL    HW219122   0.293  13.276   1.870
72409SOL     OW19123   6.574   3.133   9.693
72409SOL    HW119124   6.601   3.181   9.615
72409SOL    HW219125   6.640   3.064   9.702
72410SOL     OW19126  13.241   5.618  12.811
72410SOL    HW119127  13.208   5.625  12.900
72410SOL    HW219128  13.253   5.524  12.797
72411SOL     OW19129   4.817   9.338   1.453
72411SOL    HW119130   4.874   9.380   1.517
72411SOL    HW219131   4.876   9.290   1.396
72412SOL     OW19132   1.022   7.318   7.094
72412SOL    HW119133   1.105   7.302   7.140
72412SOL    HW219134   1.033   7.404   7.055
72413SOL     OW19135   8.631   7.149  11.017
72413SOL    HW119136   8.672   7.165  10.931
72413SOL    HW219137   8.584   7.229  11.036
72414SOL     OW19138  12.507  14.186   5.251
72414SOL    HW119139  12.527  14.272   5.212
72414SOL    HW219140  12.452  14.143   5.186
72415SOL     OW19141   8.337   1.961   2.634
72415SOL    HW119142   8.330   1.866   2.646
72415SOL    HW219143   8.294   1.998   2.712
72416SOL     OW19144  10.541   6.506   5.667
72416SOL    HW119145  10.615   6.475   5.719
72416SOL    HW219146  10.569   6.592   5.635
72417SOL     OW19147   4.227   2.488   2.633
72417SOL    HW119148   4.303   2.442   2.670
72417SOL    HW219149   4.265   2.554   2.576
72418SOL     OW19150   5.282   2.904  12.149
72418SOL    HW119151   5.330   2.961  12.210
72418SOL    HW219152   5.220   2.963  12.106
72419SOL     OW19153   9.576   5.771  11.162
72419SOL    HW119154   9.526   5.776  11.081
72419SOL    HW219155   9.519   5.725  11.223
72420SOL     OW19156   8.094   1.422   2.037
72420SOL    HW119157   8.036   1.453   1.967
72420SOL    HW219158   8.049   1.346   2.074
72421SOL     OW19159  14.266   7.941  14.537
72421SOL    HW119160  14.256   8.001  14.463
72421SOL    HW219161  14.193   7.880  14.529
72422SOL     OW19162   5.989  12.109   9.042
72422SOL    HW119163   6.044  12.175   9.084
72422SOL    HW219164   6.018  12.026   9.081
72423SOL     OW19165   9.598   4.792   2.924
72423SOL    HW119166   9.537   4.772   2.995
72423SOL    HW219167   9.568   4.876   2.889
72424SOL     OW19168  11.061  12.195   7.031
72424SOL    HW119169  11.034  12.242   7.110
72424SOL    HW219170  11.062  12.263   6.963
72425SOL     OW19171   7.131  10.811   2.875
72425SOL    HW119172   7.169  10.899   2.879
72425SOL    HW219173   7.176  10.769   2.802
72426SOL     OW19174  14.685   7.320   8.133
72426SOL    HW119175  14.734   7.390   8.090
72426SOL    HW219176  14.736   7.241   8.116
72427SOL     OW19177  13.017   0.262   5.281
72427SOL    HW119178  12.969   0.330   5.329
72427SOL    HW219179  13.089   0.309   5.238
72428SOL     OW19180   0.260   1.338  14.357
72428SOL    HW119181   0.234   1.401  14.424
72428SOL    HW219182   0.250   1.385  14.274
72429SOL     OW19183   2.463  12.440   4.570
72429SOL    HW119184   2.539  12.492   4.595
72429SOL    HW219185   2.471  12.430   4.475
72430SOL     OW19186   7.844  10.484  12.864
72430SOL    HW119187   7.889  10.454  12.784
72430SOL    HW219188   7.751  10.484  12.841
72431SOL     OW19189   9.091  13.849   6.392
72431SOL    HW119190   9.036  13.802   6.329
72431SOL    HW219191   9.094  13.939   6.359
72432SOL     OW19192   5.390   7.385  12.189
72432SOL    HW119193   5.471   7.423  12.221
72432SOL    HW219194   5.336   7.461  12.164
72433SOL     OW19195   9.713   3.418  10.074
72433SOL    HW119196   9.649   3.347  10.065
72433SOL    HW219197   9.680   3.471  10.146
72434SOL     OW19198   3.374  11.607   2.106
72434SOL    HW119199   3.286  11.571   2.110
72434SOL    HW219200   3.431  11.535   2.133
72435SOL     OW19201   9.172  10.654  14.547
72435SOL    HW119202   9.183  10.581  14.608
72435SOL    HW219203   9.227  10.724  14.583
72436SOL     OW19204   4.227   0.902   9.642
72436SOL    HW119205   4.167   0.862   9.705
72436SOL    HW219206   4.309   0.913   9.691
72437SOL     OW19207   1.356   8.003   7.805
72437SOL    HW119208   1.298   8.070   7.841
72437SOL    HW219209   1.311   7.971   7.727
72438SOL     OW19210   7.693   4.694   2.993
72438SOL    HW119211   7.716   4.783   2.967
72438SOL    HW219212   7.770   4.642   2.972
72439SOL     OW19213  10.193   9.601   4.758
72439SOL    HW119214  10.191   9.675   4.818
72439SOL    HW219215  10.107   9.603   4.715
72440SOL     OW19216  14.097   2.085   9.520
72440SOL    HW119217  14.014   2.098   9.474
72440SOL    HW219218  14.073   2.077   9.612
72441SOL     OW19219   8.192  13.107  10.853
72441SOL    HW119220   8.148  13.143  10.776
72441SOL    HW219221   8.128  13.115  10.924
72442SOL     OW19222   9.151   5.795  12.641
72442SOL    HW119223   9.221   5.817  12.702
72442SOL    HW219224   9.195   5.782  12.558
72443SOL     OW19225   5.430   6.079   9.515
72443SOL    HW119226   5.396   6.070   9.427
72443SOL    HW219227   5.525   6.086   9.504
72444SOL     OW19228  14.233   1.762  10.255
72444SOL    HW119229  14.209   1.768  10.347
72444SOL    HW219230  14.327   1.745  10.255
72445SOL     OW19231   2.880   4.455   8.855
72445SOL    HW119232   2.902   4.544   8.828
72445SOL    HW219233   2.961   4.405   8.841
72446SOL     OW19234  13.700   8.516   8.324
72446SOL    HW119235  13.787   8.482   8.347
72446SOL    HW219236  13.649   8.505   8.404
72447SOL     OW19237   7.415   0.096   6.013
72447SOL    HW119238   7.484   0.030   6.007
72447SOL    HW219239   7.349   0.067   5.950
72448SOL     OW19240   4.904  13.858   2.700
72448SOL    HW119241   4.952  13.932   2.736
72448SOL    HW219242   4.832  13.843   2.761
72449SOL     OW19243   8.425   4.423   9.896
72449SOL    HW119244   8.502   4.465   9.934
72449SOL    HW219245   8.446   4.416   9.803
72450SOL     OW19246  11.583   5.938   9.015
72450SOL    HW119247  11.593   5.850   8.977
72450SOL    HW219248  11.519   5.981   8.959
72451SOL     OW19249   6.747   7.793   2.431
72451SOL    HW119250   6.737   7.865   2.493
72451SOL    HW219251   6.766   7.835   2.347
72452SOL     OW19252   9.289  14.323   2.482
72452SOL    HW119253   9.243  14.366   2.554
72452SOL    HW219254   9.224  14.264   2.444
72453SOL     OW19255   4.339   1.459   7.593
72453SOL    HW119256   4.270   1.519   7.621
72453SOL    HW219257   4.301   1.372   7.604
72454SOL     OW19258   5.944   9.037  13.878
72454SOL    HW119259   5.892   9.072  13.806
72454SOL    HW219260   6.018   8.993  13.836
72455SOL     OW19261   8.305   5.414  13.228
72455SOL    HW119262   8.250   5.405  13.151
72455SOL    HW219263   8.261   5.362  13.295
72456SOL     OW19264   4.636   7.849  12.632
72456SOL    HW119265   4.576   7.905  12.683
72456SOL    HW219266   4.599   7.761  12.640
72457SOL     OW19267  14.270   5.526   1.313
72457SOL    HW119268  14.271   5.591   1.383
72457SOL    HW219269  14.337   5.555   1.251
72458SOL     OW19270   2.472   0.023   2.264
72458SOL    HW119271   2.415   0.016   2.341
72458SOL    HW219272   2.417   0.067   2.198
72459SOL     OW19273   2.737  12.284   9.090
72459SOL    HW119274   2.695  12.217   9.145
72459SOL    HW219275   2.780  12.234   9.021
72460SOL     OW19276   0.926  13.574  13.801
72460SOL    HW119277   0.865  13.576  13.728
72460SOL    HW219278   0.873  13.549  13.877
72461SOL     OW19279  11.135  10.468  13.629
72461SOL    HW119280  11.058  10.524  13.623
72461SOL    HW219281  11.209  10.528  13.634
72462SOL     OW19282   3.082  11.078  11.728
72462SOL    HW119283   3.035  11.157  11.700
72462SOL    HW219284   3.170  11.108  11.749
72463SOL     OW19285   3.886   5.060   9.584
72463SOL    HW119286   3.892   5.154   9.598
72463SOL    HW219287   3.895   5.022   9.671
72464SOL     OW19288   4.879   6.371  14.679
72464SOL    HW119289   4.955   6.314  14.685
72464SOL    HW219290   4.905   6.438  14.615
72465SOL     OW19291   6.598  14.425   5.207
72465SOL    HW119292   6.535  14.365   5.247
72465SOL    HW219293   6.668  14.433   5.271
72466SOL     OW19294   6.034   6.974  10.954
72466SOL    HW119295   5.997   7.041  11.013
72466SOL    HW219296   5.957   6.937  10.911
72467SOL     OW19297   6.656   5.586   5.297
72467SOL    HW119298   6.668   5.549   5.210
72467SOL    HW219299   6.563   5.570   5.317
72468SOL     OW19300   6.548   8.608   6.289
72468SOL    HW119301   6.566   8.534   6.232
72468SOL    HW219302   6.551   8.571   6.378
72469SOL     OW19303  13.370  14.628   1.646
72469SOL    HW119304  13.389  14.564   1.578
72469SOL    HW219305  13.275  14.639   1.643
72470SOL     OW19306   2.527   4.193   2.372
72470SOL    HW119307   2.464   4.151   2.430
72470SOL    HW219308   2.612   4.162   2.402
72471SOL     OW19309   4.789   4.304   8.793
72471SOL    HW119310   4.715   4.245   8.808
72471SOL    HW219311   4.754   4.392   8.809
72472SOL     OW19312  13.017   5.618   5.884
72472SOL    HW119313  13.034   5.688   5.947
72472SOL    HW219314  12.922   5.618   5.872
72473SOL     OW19315   7.444  13.383  12.114
72473SOL    HW119316   7.472  13.370  12.204
72473SOL    HW219317   7.348  13.382  12.118
72474SOL     OW19318   4.852   3.176   6.045
72474SOL    HW119319   4.809   3.160   6.129
72474SOL    HW219320   4.939   3.207   6.068
72475SOL     OW19321  12.624   0.407   2.871
72475SOL    HW119322  12.670   0.374   2.949
72475SOL    HW219323  12.608   0.329   2.818
72476SOL     OW19324  11.299  13.945  13.129
72476SOL    HW119325  11.285  13.958  13.222
72476SOL    HW219326  11.394  13.949  13.118
72477SOL     OW19327   3.138  14.026  12.812
72477SOL    HW119328   3.059  14.003  12.762
72477SOL    HW219329   3.208  13.976  12.770
72478SOL     OW19330   1.176   9.893   3.781
72478SOL    HW119331   1.261   9.929   3.808
72478SOL    HW219332   1.129   9.968   3.743
72479SOL     OW19333   0.888   8.261   2.604
72479SOL    HW119334   0.887   8.187   2.543
72479SOL    HW219335   0.914   8.336   2.550
72480SOL     OW19336  12.202   5.910  12.781
72480SOL    HW119337  12.242   5.825  12.762
72480SOL    HW219338  12.269   5.974  12.757
72481SOL     OW19339   2.729  11.300  13.959
72481SOL    HW119340   2.694  11.376  14.005
72481SOL    HW219341   2.652  11.247  13.938
72482SOL     OW19342  10.086  10.003   6.776
72482SOL    HW119343  10.132   9.995   6.692
72482SOL    HW219344  10.083  10.097   6.793
72483SOL     OW19345  11.296  11.093   3.623
72483SOL    HW119346  11.268  11.169   3.675
72483SOL    HW219347  11.228  11.083   3.556
72484SOL     OW19348  10.925   4.295  10.689
72484SOL    HW119349  10.830   4.306  10.681
72484SOL    HW219350  10.939   4.202  10.673
72485SOL     OW19351   1.050   8.528   4.974
72485SOL    HW119352   0.977   8.485   5.018
72485SOL    HW219353   1.063   8.610   5.022
72486SOL     OW19354   1.114   6.612  12.142
72486SOL    HW119355   1.108   6.684  12.080
72486SOL    HW219356   1.023   6.593  12.165
72487SOL     OW19357   5.031   7.301   3.085
72487SOL    HW119358   5.002   7.353   3.010
72487SOL    HW219359   4.953   7.292   3.139
72488SOL     OW19360   9.168  11.858   2.869
72488SOL    HW119361   9.172  11.802   2.791
72488SOL    HW219362   9.074  11.873   2.883
72489SOL     OW19363   3.298  12.184   9.332
72489SOL    HW119364   3.330  12.250   9.393
72489SOL    HW219365   3.346  12.201   9.250
72490SOL     OW19366   5.018  13.357   0.246
72490SOL    HW119367   5.102  13.393   0.276
72490SOL    HW219368   4.954  13.425   0.264
72491SOL     OW19369   1.485  12.819   1.682
72491SOL    HW119370   1.517  12.749   1.740
72491SOL    HW219371   1.533  12.806   1.601
72492SOL     OW19372   8.867   0.789  11.669
72492SOL    HW119373   8.804   0.843  11.718
72492SOL    HW219374   8.936   0.850  11.643
72493SOL     OW19375   0.687   6.186   9.563
72493SOL    HW119376   0.740   6.238   9.623
72493SOL    HW219377   0.608   6.237   9.550
72494SOL     OW19378  13.170   5.204  14.435
72494SOL    HW119379  13.199   5.113  14.440
72494SOL    HW219380  13.115   5.208  14.357
72495SOL     OW19381   3.105  12.925   2.479
72495SOL    HW119382   3.171  12.962   2.538
72495SOL    HW219383   3.087  12.838   2.516
72496SOL     OW19384   9.386  12.947  13.302
72496SOL    HW119385   9.399  12.957  13.396
72496SOL    HW219386   9.471  12.916  13.270
72497SOL     OW19387   9.558   8.401   7.016
72497SOL    HW119388   9.601   8.380   6.933
72497SOL    HW219389   9.472   8.436   6.990
72498SOL     OW19390   5.658  11.591   5.552
72498SOL    HW119391   5.730  11.654   5.548
72498SOL    HW219392   5.676  11.538   5.629
72499SOL     OW19393   5.811  13.306  14.505
72499SOL    HW119394   5.766  13.232  14.545
72499SOL    HW219395   5.901  13.277  14.495
72500SOL     OW19396   0.687   1.426   7.788
72500SOL    HW119397   0.775   1.397   7.765
72500SOL    HW219398   0.660   1.482   7.715
72501SOL     OW19399   5.956   1.894   8.977
72501SOL    HW119400   5.919   1.805   8.982
72501SOL    HW219401   6.040   1.888   9.022
72502SOL     OW19402  10.416   1.489   4.883
72502SOL    HW119403  10.340   1.453   4.837
72502SOL    HW219404  10.434   1.572   4.840
72503SOL     OW19405   7.672   3.243   7.892
72503SOL    HW119406   7.733   3.193   7.946
72503SOL    HW219407   7.589   3.239   7.939
72504SOL     OW19408  13.875  11.985   1.549
72504SOL    HW119409  13.968  11.983   1.529
72504SOL    HW219410  13.834  11.935   1.478
72505SOL     OW19411   8.617   2.299  12.052
72505SOL    HW119412   8.560   2.360  12.098
72505SOL    HW219413   8.695   2.349  12.031
72506SOL     OW19414  11.651   1.068  12.681
72506SOL    HW119415  11.692   1.143  12.638
72506SOL    HW219416  11.648   1.092  12.774
72507SOL     OW19417  12.305   5.140   5.936
72507SOL    HW119418  12.360   5.154   6.013
72507SOL    HW219419  12.363   5.154   5.862
72508SOL     OW19420   7.050  11.476  13.201
72508SOL    HW119421   7.035  11.551  13.144
72508SOL    HW219422   7.105  11.417  13.150
72509SOL     OW19423   8.102  14.234  13.923
72509SOL    HW119424   8.050  14.198  13.995
72509SOL    HW219425   8.067  14.191  13.844
72510SOL     OW19426  12.822  11.539   5.014
72510SOL    HW119427  12.747  11.513   5.068
72510SOL    HW219428  12.788  11.536   4.924
72511SOL     OW19429   0.514   9.303  14.443
72511SOL    HW119430   0.534   9.396  14.449
72511SOL    HW219431   0.597   9.259  14.461
72512SOL     OW19432  12.310   0.937   5.471
72512SOL    HW119433  12.349   0.862   5.425
72512SOL    HW219434  12.220   0.911   5.487
72513SOL     OW19435  11.055  12.514   0.367
72513SOL    HW119436  10.988  12.547   0.427
72513SOL    HW219437  11.114  12.464   0.423
72514SOL     OW19438   5.852   2.850   6.106
72514SOL    HW119439   5.933   2.805   6.129
72514SOL    HW219440   5.875   2.943   6.104
72515SOL     OW19441  14.078   5.546   8.134
72515SOL    HW119442  14.096   5.564   8.042
72515SOL    HW219443  14.159   5.504   8.166
72516SOL     OW19444   6.924   8.303   2.742
72516SOL    HW119445   6.973   8.244   2.799
72516SOL    HW219446   6.921   8.258   2.657
72517SOL     OW19447   6.572   1.164   0.437
72517SOL    HW119448   6.627   1.242   0.432
72517SOL    HW219449   6.501   1.188   0.496
72518SOL     OW19450   7.079   0.554   1.353
72518SOL    HW119451   7.015   0.545   1.282
72518SOL    HW219452   7.085   0.648   1.369
72519SOL     OW19453   5.798   5.115   0.181
72519SOL    HW119454   5.767   5.082   0.097
72519SOL    HW219455   5.839   5.039   0.223
72520SOL     OW19456   3.834   4.077   7.102
72520SOL    HW119457   3.756   4.026   7.082
72520SOL    HW219458   3.836   4.145   7.034
72521SOL     OW19459  14.522   2.064   8.919
72521SOL    HW119460  14.559   2.051   8.831
72521SOL    HW219461  14.469   2.143   8.911
72522SOL     OW19462  12.875  14.229   5.444
72522SOL    HW119463  12.780  14.217   5.440
72522SOL    HW219464  12.896  14.279   5.365
72523SOL     OW19465   6.689  12.964  11.357
72523SOL    HW119466   6.595  12.952  11.339
72523SOL    HW219467   6.712  13.043  11.309
72524SOL     OW19468   7.883  10.027   1.128
72524SOL    HW119469   7.862  10.114   1.162
72524SOL    HW219470   7.950  10.042   1.062
72525SOL     OW19471   9.383   4.916   5.819
72525SOL    HW119472   9.292   4.915   5.789
72525SOL    HW219473   9.421   4.835   5.784
72526SOL     OW19474   1.688   9.036  13.703
72526SOL    HW119475   1.764   8.991  13.741
72526SOL    HW219476   1.669   9.106  13.765
72527SOL     OW19477   8.637   5.529   6.566
72527SOL    HW119478   8.710   5.471   6.589
72527SOL    HW219479   8.559   5.473   6.573
72528SOL     OW19480   1.346  13.757  12.741
72528SOL    HW119481   1.389  13.839  12.715
72528SOL    HW219482   1.406  13.688  12.713
72529SOL     OW19483   5.941  12.041   3.030
72529SOL    HW119484   5.969  11.982   3.100
72529SOL    HW219485   5.940  12.128   3.071
72530SOL     OW19486   9.846   3.187  11.375
72530SOL    HW119487   9.781   3.255  11.394
72530SOL    HW219488   9.829   3.162  11.284
72531SOL     OW19489   9.512   2.285   1.247
72531SOL    HW119490   9.422   2.307   1.224
72531SOL    HW219491   9.530   2.205   1.197
72532SOL     OW19492   3.599   3.900   8.484
72532SOL    HW119493   3.537   3.859   8.423
72532SOL    HW219494   3.546   3.922   8.560
72533SOL     OW19495   0.517  11.457   4.425
72533SOL    HW119496   0.437  11.484   4.380
72533SOL    HW219497   0.588  11.489   4.369
72534SOL     OW19498   6.863   5.140   4.319
72534SOL    HW119499   6.877   5.155   4.413
72534SOL    HW219500   6.838   5.048   4.313
72535SOL     OW19501   0.291   0.639   7.142
72535SOL    HW119502   0.313   0.672   7.054
72535SOL    HW219503   0.197   0.654   7.150
72536SOL     OW19504   1.779   3.161   0.601
72536SOL    HW119505   1.784   3.140   0.694
72536SOL    HW219506   1.735   3.246   0.598
72537SOL     OW19507   6.219   8.870   0.887
72537SOL    HW119508   6.184   8.781   0.879
72537SOL    HW219509   6.257   8.873   0.975
72538SOL     OW19510  13.567   8.011  11.045
72538SOL    HW119511  13.620   8.069  10.989
72538SOL    HW219512  13.605   7.924  11.031
72539SOL     OW19513   2.662   0.924   1.186
72539SOL    HW119514   2.616   0.943   1.105
72539SOL    HW219515   2.653   1.004   1.238
72540SOL     OW19516  10.796  11.304   6.395
72540SOL    HW119517  10.724  11.257   6.438
72540SOL    HW219518  10.792  11.392   6.432
72541SOL     OW19519  13.093   4.994  11.847
72541SOL    HW119520  13.063   4.903  11.843
72541SOL    HW219521  13.058   5.026  11.931
72542SOL     OW19522   7.782   5.785   1.024
72542SOL    HW119523   7.859   5.730   1.039
72542SOL    HW219524   7.767   5.829   1.107
72543SOL     OW19525  12.071  10.676  11.509
72543SOL    HW119526  12.080  10.591  11.466
72543SOL    HW219527  12.142  10.678  11.574
72544SOL     OW19528   7.020   8.559  11.165
72544SOL    HW119529   6.929   8.545  11.138
72544SOL    HW219530   7.038   8.650  11.143
72545SOL     OW19531   6.362   7.906   5.941
72545SOL    HW119532   6.320   7.991   5.955
72545SOL    HW219533   6.305   7.862   5.878
72546SOL     OW19534   5.328   5.017   9.608
72546SOL    HW119535   5.328   5.045   9.517
72546SOL    HW219536   5.237   5.029   9.636
72547SOL     OW19537  10.155  11.351   9.764
72547SOL    HW119538  10.232  11.398   9.795
72547SOL    HW219539  10.141  11.383   9.675
72548SOL     OW19540   7.777   9.120   9.693
72548SOL    HW119541   7.857   9.089   9.736
72548SOL    HW219542   7.711   9.116   9.761
72549SOL     OW19543   3.914   3.357   1.721
72549SOL    HW119544   3.828   3.397   1.702
72549SOL    HW219545   3.975   3.431   1.718
72550SOL     OW19546  11.063   5.651  14.384
72550SOL    HW119547  11.014   5.623  14.461
72550SOL    HW219548  11.067   5.746  14.390
72551SOL     OW19549  14.512  11.660  13.528
72551SOL    HW119550  14.523  11.646  13.434
72551SOL    HW219551  14.487  11.752  13.536
72552SOL     OW19552  13.393  14.296   2.573
72552SOL    HW119553  13.474  14.270   2.616
72552SOL    HW219554  13.328  14.232   2.601
72553SOL     OW19555   3.284   5.240   3.151
72553SOL    HW119556   3.317   5.178   3.086
72553SOL    HW219557   3.343   5.315   3.144
72554SOL     OW19558  13.161  13.588   8.973
72554SOL    HW119559  13.084  13.540   9.004
72554SOL    HW219560  13.207  13.526   8.916
72555SOL     OW19561   1.098  13.350  10.347
72555SOL    HW119562   1.092  13.445  10.339
72555SOL    HW219563   1.075  13.332  10.438
72556SOL     OW19564   6.594   8.625   9.714
72556SOL    HW119565   6.659   8.648   9.780
72556SOL    HW219566   6.587   8.530   9.719
72557SOL     OW19567  11.403   5.532   4.807
72557SOL    HW119568  11.461   5.497   4.740
72557SOL    HW219569  11.434   5.494   4.889
72558SOL     OW19570   0.799   9.773  14.482
72558SOL    HW119571   0.781   9.855  14.437
72558SOL    HW219572   0.742   9.709  14.439
72559SOL     OW19573   8.096   6.803   8.934
72559SOL    HW119574   8.021   6.840   8.979
72559SOL    HW219575   8.169   6.813   8.995
72560SOL     OW19576  10.110   0.542  13.051
72560SOL    HW119577  10.061   0.619  13.022
72560SOL    HW219578  10.043   0.485  13.090
72561SOL     OW19579   2.585  10.699   3.624
72561SOL    HW119580   2.626  10.619   3.657
72561SOL    HW219581   2.496  10.697   3.659
72562SOL     OW19582   7.071  12.867   6.481
72562SOL    HW119583   7.030  12.796   6.432
72562SOL    HW219584   7.152  12.886   6.434
72563SOL     OW19585   0.746  13.099   0.890
72563SOL    HW119586   0.675  13.041   0.919
72563SOL    HW219587   0.805  13.104   0.965
72564SOL     OW19588   9.663   6.560   6.997
72564SOL    HW119589   9.629   6.494   6.936
72564SOL    HW219590   9.600   6.561   7.069
72565SOL     OW19591   4.237   4.769   2.696
72565SOL    HW119592   4.185   4.697   2.732
72565SOL    HW219593   4.323   4.759   2.737
72566SOL     OW19594  10.940  12.284  11.982
72566SOL    HW119595  10.897  12.357  11.937
72566SOL    HW219596  11.030  12.286  11.951
72567SOL     OW19597   6.164  14.302   6.015
72567SOL    HW119598   6.256  14.289   5.993
72567SOL    HW219599   6.165  14.374   6.078
72568SOL     OW19600   8.409   3.058  10.880
72568SOL    HW119601   8.370   3.094  10.960
72568SOL    HW219602   8.358   2.979  10.863
72569SOL     OW19603   6.288   2.466  13.868
72569SOL    HW119604   6.273   2.524  13.793
72569SOL    HW219605   6.260   2.380  13.838
72570SOL     OW19606   4.565  12.915  14.875
72570SOL    HW119607   4.620  12.934   0.069
72570SOL    HW219608   4.622  12.866  14.816
72571SOL     OW19609   9.701   0.737   4.140
72571SOL    HW119610   9.714   0.832   4.151
72571SOL    HW219611   9.676   0.707   4.228
72572SOL     OW19612   2.411   6.766   8.604
72572SOL    HW119613   2.437   6.680   8.637
72572SOL    HW219614   2.385   6.750   8.513
72573SOL     OW19615  10.051   8.041   8.907
72573SOL    HW119616  10.074   8.110   8.969
72573SOL    HW219617  10.130   8.031   8.854
72574SOL     OW19618   8.990  14.136  12.847
72574SOL    HW119619   8.923  14.161  12.910
72574SOL    HW219620   8.989  14.041  12.847
72575SOL     OW19621  12.976  12.497  11.281
72575SOL    HW119622  13.032  12.472  11.355
72575SOL    HW219623  12.965  12.416  11.231
72576SOL     OW19624  14.684   6.636   8.009
72576SOL    HW119625  14.638   6.556   8.032
72576SOL    HW219626  14.687   6.687   8.090
72577SOL     OW19627   5.429   4.960   6.968
72577SOL    HW119628   5.411   5.037   7.021
72577SOL    HW219629   5.363   4.896   6.995
72578SOL     OW19630   3.367  10.771  13.999
72578SOL    HW119631   3.312  10.848  13.997
72578SOL    HW219632   3.316  10.703  13.956
72579SOL     OW19633  10.014  14.063   1.047
72579SOL    HW119634  10.070  14.018   0.983
72579SOL    HW219635  10.068  14.135   1.080
72580SOL     OW19636   2.154   7.193   4.381
72580SOL    HW119637   2.154   7.224   4.471
72580SOL    HW219638   2.158   7.097   4.389
72581SOL     OW19639  12.826  14.678   1.625
72581SOL    HW119640  12.904  14.730   1.604
72581SOL    HW219641  12.851  14.630   1.705
72582SOL     OW19642   4.982   5.249   6.963
72582SOL    HW119643   4.998   5.181   6.898
72582SOL    HW219644   5.065   5.296   6.971
72583SOL     OW19645   7.451   1.009   5.575
72583SOL    HW119646   7.381   0.954   5.540
72583SOL    HW219647   7.410   1.060   5.644
72584SOL     OW19648   6.915   0.272   6.872
72584SOL    HW119649   6.830   0.241   6.841
72584SOL    HW219650   6.969   0.277   6.793
72585SOL     OW19651   3.943   6.719   6.242
72585SOL    HW119652   3.994   6.647   6.207
72585SOL    HW219653   3.995   6.797   6.222
72586SOL     OW19654   5.545   4.154   3.441
72586SOL    HW119655   5.592   4.083   3.485
72586SOL    HW219656   5.497   4.198   3.511
72587SOL     OW19657  14.567   9.054  13.870
72587SOL    HW119658  14.543   9.146  13.868
72587SOL    HW219659  14.516   9.014  13.799
72588SOL     OW19660   1.720   0.878   4.995
72588SOL    HW119661   1.652   0.945   4.985
72588SOL    HW219662   1.802   0.925   4.986
72589SOL     OW19663   1.941   7.796   1.602
72589SOL    HW119664   1.960   7.860   1.670
72589SOL    HW219665   2.026   7.760   1.578
72590SOL     OW19666   4.629   4.241   6.594
72590SOL    HW119667   4.655   4.236   6.502
72590SOL    HW219668   4.710   4.260   6.641
72591SOL     OW19669   9.299   3.324   6.421
72591SOL    HW119670   9.327   3.388   6.487
72591SOL    HW219671   9.219   3.285   6.458
72592SOL     OW19672   2.943   7.394   2.583
72592SOL    HW119673   2.874   7.455   2.610
72592SOL    HW219674   2.974   7.429   2.500
72593SOL     OW19675   9.865  13.205   0.997
72593SOL    HW119676   9.873  13.243   0.909
72593SOL    HW219677   9.829  13.275   1.050
72594SOL     OW19678   6.937   1.563   3.677
72594SOL    HW119679   6.928   1.658   3.687
72594SOL    HW219680   6.893   1.544   3.594
72595SOL     OW19681   0.940   0.570   3.045
72595SOL    HW119682   0.936   0.477   3.070
72595SOL    HW219683   0.949   0.568   2.950
72596SOL     OW19684   7.214   0.262  10.550
72596SOL    HW119685   7.204   0.168  10.565
72596SOL    HW219686   7.309   0.275  10.544
72597SOL     OW19687   7.258   4.642   7.323
72597SOL    HW119688   7.274   4.560   7.370
72597SOL    HW219689   7.226   4.615   7.237
72598SOL     OW19690  14.591  12.865   4.277
72598SOL    HW119691  14.669  12.909   4.242
72598SOL    HW219692  14.597  12.776   4.244
72599SOL     OW19693  12.104  10.597   9.607
72599SOL    HW119694  12.144  10.560   9.528
72599SOL    HW219695  12.164  10.666   9.634
72600SOL     OW19696   8.694   1.004   8.039
72600SOL    HW119697   8.761   0.936   8.045
72600SOL    HW219698   8.669   1.005   7.947
72601SOL     OW19699   1.930   0.785   1.443
72601SOL    HW119700   1.935   0.709   1.386
72601SOL    HW219701   1.839   0.788   1.472
72602SOL     OW19702   2.743  11.750  14.154
72602SOL    HW119703   2.783  11.813  14.094
72602SOL    HW219704   2.815  11.690  14.177
72603SOL     OW19705   8.999   3.970  10.911
72603SOL    HW119706   9.073   3.925  10.953
72603SOL    HW219707   8.956   3.902  10.859
72604SOL     OW19708   1.526  10.550   4.358
72604SOL    HW119709   1.437  10.513   4.365
72604SOL    HW219710   1.547  10.578   4.447
72605SOL     OW19711   1.943   9.308   8.747
72605SOL    HW119712   1.923   9.281   8.837
72605SOL    HW219713   1.883   9.256   8.694
72606SOL     OW19714  11.166   2.996   8.258
72606SOL    HW119715  11.107   2.940   8.208
72606SOL    HW219716  11.200   3.059   8.194
72607SOL     OW19717  13.199  10.672   7.292
72607SOL    HW119718  13.180  10.760   7.324
72607SOL    HW219719  13.129  10.618   7.329
72608SOL     OW19720   3.560   1.178   8.821
72608SOL    HW119721   3.544   1.167   8.727
72608SOL    HW219722   3.632   1.242   8.826
72609SOL     OW19723  13.662  10.527  14.484
72609SOL    HW119724  13.596  10.486  14.428
72609SOL    HW219725  13.705  10.453  14.527
72610SOL     OW19726   4.542   2.251  14.259
72610SOL    HW119727   4.448   2.269  14.249
72610SOL    HW219728   4.581   2.284  14.178
72611SOL     OW19729   7.714  12.384  10.125
72611SOL    HW119730   7.637  12.382  10.181
72611SOL    HW219731   7.787  12.366  10.184
72612SOL     OW19732   9.116   7.946  11.954
72612SOL    HW119733   9.114   7.955  11.859
72612SOL    HW219734   9.073   8.025  11.986
72613SOL     OW19735   6.993  12.351   8.649
72613SOL    HW119736   6.901  12.360   8.673
72613SOL    HW219737   7.041  12.387   8.724
72614SOL     OW19738  13.653   4.834   8.790
72614SOL    HW119739  13.706   4.812   8.713
72614SOL    HW219740  13.716   4.836   8.863
72615SOL     OW19741   8.588  13.789   2.660
72615SOL    HW119742   8.629  13.763   2.742
72615SOL    HW219743   8.661  13.799   2.599
72616SOL     OW19744   0.517   8.014   7.607
72616SOL    HW119745   0.470   8.046   7.530
72616SOL    HW219746   0.472   7.933   7.631
72617SOL     OW19747   3.312  10.363   5.957
72617SOL    HW119748   3.244  10.366   6.023
72617SOL    HW219749   3.285  10.428   5.892
72618SOL     OW19750   4.597   7.172   9.457
72618SOL    HW119751   4.593   7.231   9.532
72618SOL    HW219752   4.690   7.171   9.433
72619SOL     OW19753  13.561   3.615   6.958
72619SOL    HW119754  13.509   3.674   6.904
72619SOL    HW219755  13.605   3.557   6.896
72620SOL     OW19756   4.644   7.561   6.105
72620SOL    HW119757   4.554   7.568   6.136
72620SOL    HW219758   4.685   7.497   6.163
72621SOL     OW19759   3.626   4.157   6.254
72621SOL    HW119760   3.719   4.138   6.239
72621SOL    HW219761   3.622   4.253   6.258
72622SOL     OW19762  11.383   3.883   0.008
72622SOL    HW119763  11.403   3.789   0.007
72622SOL    HW219764  11.451   3.922  14.834
72623SOL     OW19765   5.626  11.337   3.287
72623SOL    HW119766   5.549  11.366   3.337
72623SOL    HW219767   5.685  11.302   3.354
72624SOL     OW19768  11.475   7.627   0.881
72624SOL    HW119769  11.446   7.545   0.921
72624SOL    HW219770  11.556   7.604   0.836
72625SOL     OW19771  10.362  13.144   3.525
72625SOL    HW119772  10.437  13.190   3.564
72625SOL    HW219773  10.286  13.194   3.553
72626SOL     OW19774  10.055   6.975   8.001
72626SOL    HW119775  10.074   6.949   7.910
72626SOL    HW219776  10.070   6.895   8.052
72627SOL     OW19777   8.835  14.086   7.112
72627SOL    HW119778   8.828  14.181   7.126
72627SOL    HW219779   8.783  14.070   7.033
72628SOL     OW19780   1.958   7.550   0.618
72628SOL    HW119781   1.913   7.466   0.609
72628SOL    HW219782   1.913   7.607   0.556
72629SOL     OW19783   1.250  10.722   2.905
72629SOL    HW119784   1.223  10.792   2.964
72629SOL    HW219785   1.346  10.727   2.906
72630SOL     OW19786   3.136  13.210   4.584
72630SOL    HW119787   3.222  13.247   4.561
72630SOL    HW219788   3.073  13.277   4.557
72631SOL     OW19789   5.147   2.252   3.076
72631SOL    HW119790   5.230   2.300   3.075
72631SOL    HW219791   5.162   2.176   3.019
72632SOL     OW19792   7.275   7.720  14.590
72632SOL    HW119793   7.180   7.705  14.588
72632SOL    HW219794   7.303   7.685  14.675
72633SOL     OW19795  12.564  13.058   6.399
72633SOL    HW119796  12.634  13.064   6.333
72633SOL    HW219797  12.484  13.053   6.348
72634SOL     OW19798  11.007  14.534   3.026
72634SOL    HW119799  10.988  14.598   2.958
72634SOL    HW219800  10.964  14.454   2.996
72635SOL     OW19801  10.985   6.974   3.189
72635SOL    HW119802  10.962   6.890   3.229
72635SOL    HW219803  10.992   6.956   3.096
72636SOL     OW19804  10.359   5.093  14.723
72636SOL    HW119805  10.388   5.184  14.709
72636SOL    HW219806  10.431   5.052  14.772
72637SOL     OW19807   2.110   2.024  13.123
72637SOL    HW119808   2.189   2.019  13.068
72637SOL    HW219809   2.052   1.957  13.086
72638SOL     OW19810   8.697  11.985   2.515
72638SOL    HW119811   8.779  11.958   2.472
72638SOL    HW219812   8.723  12.053   2.576
72639SOL     OW19813  10.302   8.609   6.393
72639SOL    HW119814  10.256   8.536   6.350
72639SOL    HW219815  10.371   8.633   6.331
72640SOL     OW19816  11.512   5.454  12.490
72640SOL    HW119817  11.527   5.521  12.423
72640SOL    HW219818  11.599   5.420  12.509
72641SOL     OW19819  12.361   1.827   1.612
72641SOL    HW119820  12.454   1.845   1.603
72641SOL    HW219821  12.318   1.899   1.566
72642SOL     OW19822   0.358   5.881   5.809
72642SOL    HW119823   0.368   5.820   5.883
72642SOL    HW219824   0.293   5.945   5.839
72643SOL     OW19825   8.639   5.730   8.955
72643SOL    HW119826   8.576   5.683   8.900
72643SOL    HW219827   8.596   5.739   9.040
72644SOL     OW19828   5.130   3.573  13.425
72644SOL    HW119829   5.084   3.627  13.361
72644SOL    HW219830   5.086   3.592  13.508
72645SOL     OW19831   8.919   3.574  14.499
72645SOL    HW119832   8.999   3.613  14.532
72645SOL    HW219833   8.948   3.494  14.454
72646SOL     OW19834   1.912   4.529  11.412
72646SOL    HW119835   1.860   4.471  11.356
72646SOL    HW219836   1.851   4.561  11.478
72647SOL     OW19837  10.775   7.836   9.378
72647SOL    HW119838  10.805   7.879   9.458
72647SOL    HW219839  10.853   7.829   9.324
72648SOL     OW19840   1.334   4.330   6.296
72648SOL    HW119841   1.324   4.366   6.384
72648SOL    HW219842   1.354   4.406   6.241
72649SOL     OW19843   6.270   0.066  14.749
72649SOL    HW119844   6.226   0.099  14.828
72649SOL    HW219845   6.302   0.145  14.705
72650SOL     OW19846  13.481   8.633   6.064
72650SOL    HW119847  13.501   8.541   6.043
72650SOL    HW219848  13.387   8.633   6.083
72651SOL     OW19849   9.133   0.419   7.794
72651SOL    HW119850   9.048   0.461   7.805
72651SOL    HW219851   9.188   0.487   7.755
72652SOL     OW19852   7.958   7.025   8.229
72652SOL    HW119853   7.966   7.011   8.323
72652SOL    HW219854   7.895   7.097   8.221
72653SOL     OW19855  12.537   8.686   1.298
72653SOL    HW119856  12.564   8.777   1.307
72653SOL    HW219857  12.491   8.683   1.214
72654SOL     OW19858   9.901   2.484   9.976
72654SOL    HW119859   9.864   2.403   9.938
72654SOL    HW219860   9.868   2.553   9.919
72655SOL     OW19861  12.504   9.587  11.403
72655SOL    HW119862  12.411   9.575  11.385
72655SOL    HW219863  12.527   9.515  11.462
72656SOL     OW19864   9.362   5.754   4.890
72656SOL    HW119865   9.330   5.783   4.804
72656SOL    HW219866   9.396   5.833   4.931
72657SOL     OW19867   3.800   5.241   7.914
72657SOL    HW119868   3.759   5.325   7.935
72657SOL    HW219869   3.887   5.248   7.953
72658SOL     OW19870   3.862  11.988  10.791
72658SOL    HW119871   3.865  11.901  10.751
72658SOL    HW219872   3.954  12.010  10.805
72659SOL     OW19873  10.468  11.064   0.489
72659SOL    HW119874  10.470  11.001   0.417
72659SOL    HW219875  10.481  11.149   0.446
72660SOL     OW19876   4.635   3.673   5.705
72660SOL    HW119877   4.723   3.658   5.739
72660SOL    HW219878   4.648   3.712   5.619
72661SOL     OW19879  11.072  10.478  12.190
72661SOL    HW119880  11.078  10.493  12.096
72661SOL    HW219881  11.074  10.382  12.199
72662SOL     OW19882   3.711  13.553   0.393
72662SOL    HW119883   3.636  13.495   0.378
72662SOL    HW219884   3.742  13.531   0.480
72663SOL     OW19885   2.779   7.061  12.610
72663SOL    HW119886   2.868   7.076  12.577
72663SOL    HW219887   2.722   7.072  12.534
72664SOL     OW19888   4.077   1.137  10.932
72664SOL    HW119889   4.006   1.145  10.995
72664SOL    HW219890   4.141   1.202  10.959
72665SOL     OW19891  12.297  10.900  12.571
72665SOL    HW119892  12.253  10.982  12.550
72665SOL    HW219893  12.273  10.841  12.500
72666SOL     OW19894  11.404  11.244   1.928
72666SOL    HW119895  11.467  11.230   1.856
72666SOL    HW219896  11.426  11.176   1.992
72667SOL     OW19897   3.899   5.858  14.474
72667SOL    HW119898   3.829   5.806  14.513
72667SOL    HW219899   3.856   5.907  14.404
72668SOL     OW19900   5.202  11.726   0.407
72668SOL    HW119901   5.291  11.734   0.373
72668SOL    HW219902   5.207  11.763   0.496
72669SOL     OW19903   4.410  10.506   7.648
72669SOL    HW119904   4.348  10.436   7.628
72669SOL    HW219905   4.460  10.517   7.567
72670SOL     OW19906  14.036   0.030   8.346
72670SOL    HW119907  14.058   0.082   8.423
72670SOL    HW219908  14.090  14.834   8.354
72671SOL     OW19909   0.042   3.996  14.238
72671SOL    HW119910   0.014   4.050  14.165
72671SOL    HW219911   0.130   3.967  14.214
72672SOL     OW19912  11.856   5.231  12.985
72672SOL    HW119913  11.919   5.229  13.057
72672SOL    HW219914  11.808   5.313  12.998
72673SOL     OW19915   0.905  10.251  14.286
72673SOL    HW119916   0.818  10.211  14.282
72673SOL    HW219917   0.906  10.314  14.214
72674SOL     OW19918   7.555  10.437  12.823
72674SOL    HW119919   7.510  10.378  12.884
72674SOL    HW219920   7.566  10.385  12.743
72675SOL     OW19921   2.915  14.841  14.815
72675SOL    HW119922   2.944  14.864   0.020
72675SOL    HW219923   2.914   0.042  14.767
72676SOL     OW19924  12.706   9.634   0.014
72676SOL    HW119925  12.718   9.540  14.879
72676SOL    HW219926  12.705   9.675  14.810
72677SOL     OW19927   2.900  13.582   8.856
72677SOL    HW119928   2.967  13.529   8.898
72677SOL    HW219929   2.890  13.658   8.914
72678SOL     OW19930  10.631   8.420   5.482
72678SOL    HW119931  10.687   8.359   5.434
72678SOL    HW219932  10.692   8.469   5.537
72679SOL     OW19933  14.317  10.529  10.302
72679SOL    HW119934  14.310  10.623  10.319
72679SOL    HW219935  14.344  10.523  10.211
72680SOL     OW19936  13.325   9.212   1.424
72680SOL    HW119937  13.329   9.296   1.379
72680SOL    HW219938  13.269   9.228   1.500
72681SOL     OW19939   8.342   9.662   5.971
72681SOL    HW119940   8.336   9.598   6.042
72681SOL    HW219941   8.259   9.653   5.925
72682SOL     OW19942   7.739   9.039   8.154
72682SOL    HW119943   7.815   8.981   8.142
72682SOL    HW219944   7.702   9.011   8.238
72683SOL     OW19945   3.509   5.052   7.099
72683SOL    HW119946   3.450   4.980   7.073
72683SOL    HW219947   3.481   5.126   7.046
72684SOL     OW19948  12.564   0.799  10.650
72684SOL    HW119949  12.618   0.842  10.715
72684SOL    HW219950  12.549   0.866  10.583
72685SOL     OW19951   3.827   7.370  14.690
72685SOL    HW119952   3.905   7.389  14.742
72685SOL    HW219953   3.820   7.275  14.692
72686SOL     OW19954  11.638  12.035   9.197
72686SOL    HW119955  11.683  12.065   9.118
72686SOL    HW219956  11.707  12.028   9.263
72687SOL     OW19957  10.327   4.609  13.892
72687SOL    HW119958  10.308   4.527  13.938
72687SOL    HW219959  10.344   4.673  13.961
72688SOL     OW19960   7.974   4.096   4.109
72688SOL    HW119961   7.994   4.168   4.050
72688SOL    HW219962   8.059   4.068   4.143
72689SOL     OW19963  10.168   4.900   3.325
72689SOL    HW119964  10.198   4.981   3.366
72689SOL    HW219965  10.184   4.913   3.232
72690SOL     OW19966   1.462   3.560  13.598
72690SOL    HW119967   1.444   3.527  13.687
72690SOL    HW219968   1.445   3.485  13.541
72691SOL     OW19969   4.844  13.522   0.364
72691SOL    HW119970   4.779  13.504   0.297
72691SOL    HW219971   4.821  13.609   0.397
72692SOL     OW19972   4.538   5.586  13.788
72692SOL    HW119973   4.461   5.549  13.746
72692SOL    HW219974   4.574   5.647  13.724
72693SOL     OW19975   2.109   0.184  12.261
72693SOL    HW119976   2.199   0.214  12.277
72693SOL    HW219977   2.058   0.224  12.330
72694SOL     OW19978   2.091  12.649   6.012
72694SOL    HW119979   2.015  12.690   6.053
72694SOL    HW219980   2.087  12.677   5.921
72695SOL     OW19981   5.189  13.649   9.668
72695SOL    HW119982   5.226  13.579   9.615
72695SOL    HW219983   5.145  13.605   9.740
72696SOL     OW19984   3.344   6.872  13.143
72696SOL    HW119985   3.304   6.911  13.221
72696SOL    HW219986   3.270   6.831  13.097
72697SOL     OW19987  13.221  12.637  11.837
72697SOL    HW119988  13.147  12.595  11.795
72697SOL    HW219989  13.283  12.654  11.766
72698SOL     OW19990   3.935  14.174   8.419
72698SOL    HW119991   3.964  14.159   8.509
72698SOL    HW219992   3.844  14.205   8.428
72699SOL     OW19993   4.638  10.422   6.707
72699SOL    HW119994   4.701  10.493   6.721
72699SOL    HW219995   4.608  10.398   6.795
72700SOL     OW19996   4.609   4.343   1.591
72700SOL    HW119997   4.636   4.359   1.500
72700SOL    HW219998   4.670   4.277   1.623
72701SOL     OW19999  13.307   4.984   2.003
72701SOL    HW120000  13.219   4.977   1.965
72701SOL    HW220001  13.332   4.894   2.024
72702SOL     OW20002   4.512  10.223   3.185
72702SOL    HW120003   4.539  10.312   3.163
72702SOL    HW220004   4.461  10.194   3.110
72703SOL     OW20005   4.571   7.282   1.676
72703SOL    HW120006   4.663   7.307   1.674
72703SOL    HW220007   4.523   7.364   1.664
72704SOL     OW20008  13.368  10.101   0.507
72704SOL    HW120009  13.329  10.188   0.496
72704SOL    HW220010  13.328  10.048   0.438
72705SOL     OW20011   2.267   7.437  10.449
72705SOL    HW120012   2.220   7.364  10.409
72705SOL    HW220013   2.355   7.432  10.411
72706SOL     OW20014   0.951   3.400  14.101
72706SOL    HW120015   1.023   3.454  14.070
72706SOL    HW220016   0.993   3.320  14.132
72707SOL     OW20017   6.754  10.949  11.376
72707SOL    HW120018   6.715  11.007  11.310
72707SOL    HW220019   6.694  10.955  11.451
72708SOL     OW20020   9.724  13.881   7.245
72708SOL    HW120021   9.654  13.900   7.182
72708SOL    HW220022   9.805  13.891   7.195
72709SOL     OW20023   7.077   7.375   2.433
72709SOL    HW120024   7.118   7.452   2.395
72709SOL    HW220025   7.040   7.405   2.516
72710SOL     OW20026   3.281   2.275   4.281
72710SOL    HW120027   3.350   2.213   4.258
72710SOL    HW220028   3.200   2.227   4.268
72711SOL     OW20029   2.760   7.015   1.965
72711SOL    HW120030   2.698   7.046   2.031
72711SOL    HW220031   2.717   6.939   1.926
72712SOL     OW20032   2.969   4.831  14.535
72712SOL    HW120033   2.962   4.870  14.622
72712SOL    HW220034   3.016   4.749  14.550
72713SOL     OW20035   9.683  11.138   1.597
72713SOL    HW120036   9.769  11.143   1.554
72713SOL    HW220037   9.620  11.160   1.528
72714SOL     OW20038  14.167  12.958   7.865
72714SOL    HW120039  14.224  12.921   7.797
72714SOL    HW220040  14.213  13.036   7.896
72715SOL     OW20041  14.396   1.036   9.018
72715SOL    HW120042  14.302   1.025   9.031
72715SOL    HW220043  14.435   0.971   9.076
72716SOL     OW20044  13.385  13.370   9.815
72716SOL    HW120045  13.458  13.403   9.867
72716SOL    HW220046  13.331  13.321   9.877
72717SOL     OW20047  13.102   8.843  11.843
72717SOL    HW120048  13.123   8.832  11.936
72717SOL    HW220049  13.178   8.808  11.797
72718SOL     OW20050   7.142   2.799  12.514
72718SOL    HW120051   7.215   2.775  12.571
72718SOL    HW220052   7.183   2.826  12.432
72719SOL     OW20053   2.011  12.580  11.839
72719SOL    HW120054   2.048  12.505  11.885
72719SOL    HW220055   1.982  12.544  11.755
72720SOL     OW20056   1.285   7.031   9.354
72720SOL    HW120057   1.201   7.042   9.399
72720SOL    HW220058   1.261   7.007   9.265
72721SOL     OW20059  10.791   2.872   3.210
72721SOL    HW120060  10.724   2.874   3.141
72721SOL    HW220061  10.741   2.854   3.290
72722SOL     OW20062   0.406   7.061   5.758
72722SOL    HW120063   0.489   7.106   5.775
72722SOL    HW220064   0.345   7.131   5.737
72723SOL     OW20065   9.645  13.708  12.076
72723SOL    HW120066   9.601  13.624  12.072
72723SOL    HW220067   9.580  13.771  12.044
72724SOL     OW20068   5.819   5.799   6.298
72724SOL    HW120069   5.787   5.758   6.378
72724SOL    HW220070   5.872   5.873   6.329
72725SOL     OW20071   6.787  14.491  14.622
72725SOL    HW120072   6.797  14.399  14.647
72725SOL    HW220073   6.848  14.503  14.550
72726SOL     OW20074   6.507   2.532   0.572
72726SOL    HW120075   6.435   2.577   0.615
72726SOL    HW220076   6.479   2.440   0.569
72727SOL     OW20077   5.966   8.565  12.553
72727SOL    HW120078   5.973   8.648  12.505
72727SOL    HW220079   5.932   8.503  12.488
72728SOL     OW20080   4.808   9.214   2.050
72728SOL    HW120081   4.842   9.135   2.008
72728SOL    HW220082   4.749   9.253   1.985
72729SOL     OW20083   2.095  14.741   6.440
72729SOL    HW120084   2.107  14.757   6.534
72729SOL    HW220085   2.127  14.651   6.427
72730SOL     OW20086   6.646   1.860   0.329
72730SOL    HW120087   6.634   1.854   0.234
72730SOL    HW220088   6.728   1.814   0.345
72731SOL     OW20089  11.750   5.656  14.384
72731SOL    HW120090  11.780   5.567  14.368
72731SOL    HW220091  11.798   5.684  14.462
72732SOL     OW20092   2.312  10.950   9.036
72732SOL    HW120093   2.396  10.988   9.064
72732SOL    HW220094   2.267  10.929   9.117
72733SOL     OW20095   7.106   2.320   4.895
72733SOL    HW120096   7.109   2.400   4.842
72733SOL    HW220097   7.129   2.349   4.984
72734SOL     OW20098   6.736   6.114   1.518
72734SOL    HW120099   6.657   6.152   1.480
72734SOL    HW220100   6.803   6.181   1.505
72735SOL     OW20101   6.594   1.837   3.169
72735SOL    HW120102   6.661   1.845   3.237
72735SOL    HW220103   6.529   1.904   3.190
72736SOL     OW20104   6.424   4.782   9.755
72736SOL    HW120105   6.495   4.748   9.701
72736SOL    HW220106   6.370   4.833   9.694
72737SOL     OW20107  11.771   5.632   8.686
72737SOL    HW120108  11.754   5.556   8.630
72737SOL    HW220109  11.854   5.667   8.653
72738SOL     OW20110  10.154   2.880  14.737
72738SOL    HW120111  10.128   2.957  14.686
72738SOL    HW220112  10.148   2.807  14.674
72739SOL     OW20113  12.633  13.606  10.467
72739SOL    HW120114  12.672  13.519  10.474
72739SOL    HW220115  12.544  13.590  10.434
72740SOL     OW20116  12.993   5.893   0.655
72740SOL    HW120117  12.908   5.899   0.698
72740SOL    HW220118  12.982   5.824   0.590
72741SOL     OW20119  13.765   1.786   5.598
72741SOL    HW120120  13.682   1.742   5.579
72741SOL    HW220121  13.798   1.813   5.512
72742SOL     OW20122  11.479  10.959   2.441
72742SOL    HW120123  11.548  10.984   2.380
72742SOL    HW220124  11.456  10.869   2.416
72743SOL     OW20125  11.981   1.150  10.940
72743SOL    HW120126  11.899   1.172  10.984
72743SOL    HW220127  12.026   1.234  10.931
72744SOL     OW20128   4.453   8.084   7.119
72744SOL    HW120129   4.442   8.156   7.057
72744SOL    HW220130   4.522   8.114   7.179
72745SOL     OW20131   0.703   2.794   3.642
72745SOL    HW120132   0.674   2.794   3.733
72745SOL    HW220133   0.623   2.800   3.591
72746SOL     OW20134  11.682  10.420   8.392
72746SOL    HW120135  11.665  10.333   8.357
72746SOL    HW220136  11.693  10.475   8.315
72747SOL     OW20137   1.722  14.005   6.568
72747SOL    HW120138   1.739  13.942   6.638
72747SOL    HW220139   1.805  14.053   6.558
72748SOL     OW20140   4.435   6.578   1.556
72748SOL    HW120141   4.435   6.485   1.580
72748SOL    HW220142   4.420   6.624   1.639
72749SOL     OW20143  10.687  12.222   6.327
72749SOL    HW120144  10.637  12.289   6.375
72749SOL    HW220145  10.760  12.270   6.288
72750SOL     OW20146  11.899  14.777   7.736
72750SOL    HW120147  11.909  14.871   7.725
72750SOL    HW220148  11.952  14.756   7.813
72751SOL     OW20149   1.856   8.251  11.442
72751SOL    HW120150   1.871   8.342  11.468
72751SOL    HW220151   1.768   8.252  11.404
72752SOL     OW20152   5.985  13.891   8.592
72752SOL    HW120153   6.007  13.878   8.684
72752SOL    HW220154   5.897  13.855   8.584
72753SOL     OW20155   4.417  12.157   6.790
72753SOL    HW120156   4.393  12.065   6.806
72753SOL    HW220157   4.510  12.153   6.766
72754SOL     OW20158   0.933   0.287   2.424
72754SOL    HW120159   1.006   0.262   2.480
72754SOL    HW220160   0.859   0.297   2.483
72755SOL     OW20161   9.144   5.846  13.555
72755SOL    HW120162   9.194   5.901  13.495
72755SOL    HW220163   9.053   5.875  13.546
72756SOL     OW20164   8.858   8.759  10.801
72756SOL    HW120165   8.884   8.675  10.762
72756SOL    HW220166   8.842   8.816  10.726
72757SOL     OW20167   8.930   1.062   3.730
72757SOL    HW120168   8.838   1.057   3.702
72757SOL    HW220169   8.980   1.046   3.650
72758SOL     OW20170  12.490  13.335   4.232
72758SOL    HW120171  12.573  13.293   4.208
72758SOL    HW220172  12.458  13.373   4.150
72759SOL     OW20173   0.965  12.612   6.572
72759SOL    HW120174   0.973  12.517   6.578
72759SOL    HW220175   1.033  12.638   6.511
72760SOL     OW20176   1.867   3.401   6.530
72760SOL    HW120177   1.869   3.307   6.549
72760SOL    HW220178   1.861   3.442   6.617
72761SOL     OW20179   1.236   5.834  12.772
72761SOL    HW120180   1.301   5.871  12.832
72761SOL    HW220181   1.155   5.830  12.823
72762SOL     OW20182  12.277   1.098  10.662
72762SOL    HW120183  12.289   1.079  10.569
72762SOL    HW220184  12.312   1.021  10.707
72763SOL     OW20185   0.209  13.209   2.249
72763SOL    HW120186   0.184  13.147   2.318
72763SOL    HW220187   0.167  13.175   2.170
72764SOL     OW20188   9.657   6.908  10.872
72764SOL    HW120189   9.695   6.959  10.801
72764SOL    HW220190   9.572   6.879  10.839
72765SOL     OW20191  11.640   9.707  13.561
72765SOL    HW120192  11.583   9.749  13.498
72765SOL    HW220193  11.581   9.658  13.618
72766SOL     OW20194  11.700   4.808   3.193
72766SOL    HW120195  11.682   4.901   3.208
72766SOL    HW220196  11.785   4.807   3.149
72767SOL     OW20197   4.010   0.018  14.641
72767SOL    HW120198   4.082   0.051  14.695
72767SOL    HW220199   3.932   0.031  14.695
72768SOL     OW20200   9.522   4.599  11.599
72768SOL    HW120201   9.532   4.534  11.668
72768SOL    HW220202   9.449   4.654  11.628
72769SOL     OW20203  11.371  11.999  12.105
72769SOL    HW120204  11.372  12.075  12.164
72769SOL    HW220205  11.444  12.015  12.045
72770SOL     OW20206  13.339  14.219  13.753
72770SOL    HW120207  13.431  14.229  13.777
72770SOL    HW220208  13.306  14.308  13.743
72771SOL     OW20209  13.644   0.231   8.607
72771SOL    HW120210  13.707   0.166   8.639
72771SOL    HW220211  13.694   0.313   8.605
72772SOL     OW20212   1.182   9.455  11.359
72772SOL    HW120213   1.167   9.506  11.280
72772SOL    HW220214   1.143   9.370  11.341
72773SOL     OW20215  11.636   6.524  12.787
72773SOL    HW120216  11.633   6.620  12.784
72773SOL    HW220217  11.606   6.497  12.700
72774SOL     OW20218  13.865   1.266  14.654
72774SOL    HW120219  13.871   1.172  14.672
72774SOL    HW220220  13.772   1.286  14.663
72775SOL     OW20221   6.088   2.400  11.082
72775SOL    HW120222   6.112   2.492  11.076
72775SOL    HW220223   6.143   2.366  11.153
72776SOL     OW20224   7.743   7.814   8.615
72776SOL    HW120225   7.681   7.826   8.543
72776SOL    HW220226   7.826   7.795   8.571
72777SOL     OW20227   6.724  14.003  12.569
72777SOL    HW120228   6.770  13.937  12.517
72777SOL    HW220229   6.642  13.961  12.595
72778SOL     OW20230  13.684  11.647   3.601
72778SOL    HW120231  13.747  11.609   3.540
72778SOL    HW220232  13.735  11.663   3.681
72779SOL     OW20233  11.688   2.183   4.859
72779SOL    HW120234  11.616   2.246   4.851
72779SOL    HW220235  11.699   2.172   4.953
72780SOL     OW20236  11.754  13.215   1.856
72780SOL    HW120237  11.769  13.302   1.892
72780SOL    HW220238  11.755  13.227   1.761
72781SOL     OW20239  14.676  12.788  10.169
72781SOL    HW120240  14.616  12.840  10.222
72781SOL    HW220241  14.632  12.703  10.159
72782SOL     OW20242  12.215   2.061  13.630
72782SOL    HW120243  12.285   2.031  13.571
72782SOL    HW220244  12.146   1.996  13.620
72783SOL     OW20245   4.171   4.605  13.912
72783SOL    HW120246   4.085   4.636  13.884
72783SOL    HW220247   4.155   4.563  13.996
72784SOL     OW20248   5.573  12.264  13.114
72784SOL    HW120249   5.662  12.291  13.092
72784SOL    HW220250   5.557  12.187  13.059
72785SOL     OW20251  12.120   2.879  11.161
72785SOL    HW120252  12.038   2.837  11.187
72785SOL    HW220253  12.094   2.949  11.102
72786SOL     OW20254  10.462   3.034  13.517
72786SOL    HW120255  10.419   3.025  13.602
72786SOL    HW220256  10.421   3.111  13.478
72787SOL     OW20257  11.882   7.214   5.815
72787SOL    HW120258  11.804   7.162   5.797
72787SOL    HW220259  11.867   7.296   5.769
72788SOL     OW20260  14.551   3.459  14.601
72788SOL    HW120261  14.568   3.382  14.655
72788SOL    HW220262  14.569   3.533  14.659
72789SOL     OW20263   6.876  13.709  12.670
72789SOL    HW120264   6.863  13.714  12.575
72789SOL    HW220265   6.810  13.646  12.699
72790SOL     OW20266   7.741   9.604   7.323
72790SOL    HW120267   7.709   9.596   7.413
72790SOL    HW220268   7.836   9.611   7.333
72791SOL     OW20269  13.463   6.381  10.387
72791SOL    HW120270  13.446   6.460  10.438
72791SOL    HW220271  13.380   6.334  10.386
72792SOL     OW20272   2.020   7.959   0.559
72792SOL    HW120273   2.111   7.927   0.556
72792SOL    HW220274   1.972   7.899   0.503
72793SOL     OW20275  11.776  14.514   8.862
72793SOL    HW120276  11.825  14.435   8.840
72793SOL    HW220277  11.820  14.547   8.941
72794SOL     OW20278  13.684   2.290   1.698
72794SOL    HW120279  13.734   2.221   1.742
72794SOL    HW220280  13.612   2.243   1.656
72795SOL     OW20281  11.083  10.833   0.131
72795SOL    HW120282  11.154  10.770   0.119
72795SOL    HW220283  11.019  10.788   0.186
72796SOL     OW20284   6.376  11.660  14.195
72796SOL    HW120285   6.420  11.638  14.277
72796SOL    HW220286   6.293  11.613  14.199
72797SOL     OW20287  11.845  13.427   7.215
72797SOL    HW120288  11.894  13.355   7.255
72797SOL    HW220289  11.845  13.406   7.121
72798SOL     OW20290   6.015   7.459   6.094
72798SOL    HW120291   6.037   7.423   6.180
72798SOL    HW220292   6.096   7.497   6.062
72799SOL     OW20293  14.116   1.597   3.091
72799SOL    HW120294  14.198   1.603   3.042
72799SOL    HW220295  14.112   1.680   3.139
72800SOL     OW20296   9.774   0.938   0.933
72800SOL    HW120297   9.682   0.962   0.929
72800SOL    HW220298   9.777   0.866   0.995
72801SOL     OW20299   7.212   4.189   9.896
72801SOL    HW120300   7.190   4.127   9.966
72801SOL    HW220301   7.130   4.236   9.879
72802SOL     OW20302  12.081   5.806  14.076
72802SOL    HW120303  11.993   5.810  14.114
72802SOL    HW220304  12.078   5.867  14.002
72803SOL     OW20305  12.555   5.329   1.144
72803SOL    HW120306  12.601   5.364   1.068
72803SOL    HW220307  12.482   5.388   1.158
72804SOL     OW20308   9.212  10.169  12.308
72804SOL    HW120309   9.161  10.120  12.373
72804SOL    HW220310   9.278  10.107  12.278
72805SOL     OW20311   5.744   9.471  14.578
72805SOL    HW120312   5.696   9.398  14.617
72805SOL    HW220313   5.771   9.439  14.492
72806SOL     OW20314   7.629   3.467  12.957
72806SOL    HW120315   7.666   3.498  13.040
72806SOL    HW220316   7.686   3.504  12.890
72807SOL     OW20317   5.419   7.710   4.575
72807SOL    HW120318   5.443   7.778   4.512
72807SOL    HW220319   5.478   7.637   4.556
72808SOL     OW20320   1.271   8.399   5.327
72808SOL    HW120321   1.188   8.362   5.299
72808SOL    HW220322   1.338   8.340   5.292
72809SOL     OW20323   2.298   8.870  12.506
72809SOL    HW120324   2.335   8.902  12.424
72809SOL    HW220325   2.354   8.797  12.531
72810SOL     OW20326   6.295   7.280  11.822
72810SOL    HW120327   6.296   7.349  11.888
72810SOL    HW220328   6.204   7.279  11.791
72811SOL     OW20329   1.452  12.366  14.196
72811SOL    HW120330   1.469  12.440  14.254
72811SOL    HW220331   1.357  12.366  14.182
72812SOL     OW20332  10.881   3.120   1.023
72812SOL    HW120333  10.863   3.202   0.978
72812SOL    HW220334  10.950   3.078   0.971
72813SOL     OW20335  10.789  14.409   5.113
72813SOL    HW120336  10.877  14.430   5.145
72813SOL    HW220337  10.731  14.434   5.185
72814SOL     OW20338   0.384   3.549   8.142
72814SOL    HW120339   0.365   3.478   8.202
72814SOL    HW220340   0.423   3.618   8.196
72815SOL     OW20341   8.922  13.314   9.342
72815SOL    HW120342   8.968  13.293   9.423
72815SOL    HW220343   8.924  13.232   9.292
72816SOL     OW20344  14.632   5.740   3.863
72816SOL    HW120345  14.727   5.750   3.862
72816SOL    HW220346  14.600   5.816   3.912
72817SOL     OW20347  13.246   2.116   5.700
72817SOL    HW120348  13.258   2.211   5.697
72817SOL    HW220349  13.323   2.080   5.656
72818SOL     OW20350   7.326  14.566   3.255
72818SOL    HW120351   7.345  14.659   3.270
72818SOL    HW220352   7.324  14.557   3.160
72819SOL     OW20353   9.691   8.257   2.316
72819SOL    HW120354   9.728   8.345   2.323
72819SOL    HW220355   9.725   8.223   2.233
72820SOL     OW20356   3.357   1.551   6.792
72820SOL    HW120357   3.302   1.628   6.805
72820SOL    HW220358   3.446   1.585   6.791
72821SOL     OW20359  11.245   9.298   9.920
72821SOL    HW120360  11.150   9.294   9.929
72821SOL    HW220361  11.260   9.293   9.826
72822SOL     OW20362   2.077   7.630  12.723
72822SOL    HW120363   2.061   7.724  12.732
72822SOL    HW220364   2.040   7.592  12.803
72823SOL     OW20365   7.932   0.260   6.294
72823SOL    HW120366   7.982   0.215   6.362
72823SOL    HW220367   7.869   0.314   6.342
72824SOL     OW20368   6.806   1.305   8.863
72824SOL    HW120369   6.772   1.388   8.897
72824SOL    HW220370   6.897   1.325   8.838
72825SOL     OW20371   5.130   4.634   4.050
72825SOL    HW120372   5.118   4.596   4.137
72825SOL    HW220373   5.215   4.678   4.055
72826SOL     OW20374  14.817   9.730   0.224
72826SOL    HW120375  14.813   9.740   0.129
72826SOL    HW220376  14.848   9.814   0.256
72827SOL     OW20377  12.902   7.992  12.945
72827SOL    HW120378  12.906   8.086  12.931
72827SOL    HW220379  12.983   7.958  12.908
72828SOL     OW20380   7.641  12.962  11.455
72828SOL    HW120381   7.577  12.947  11.525
72828SOL    HW220382   7.725  12.965  11.500
72829SOL     OW20383   2.297  12.449   9.199
72829SOL    HW120384   2.310  12.538   9.165
72829SOL    HW220385   2.221  12.456   9.257
72830SOL     OW20386   3.157  14.704   9.322
72830SOL    HW120387   3.149  14.782   9.266
72830SOL    HW220388   3.147  14.630   9.261
72831SOL     OW20389   9.011   8.354   3.751
72831SOL    HW120390   9.048   8.267   3.767
72831SOL    HW220391   8.994   8.389   3.839
72832SOL     OW20392   5.786   6.966  12.690
72832SOL    HW120393   5.726   7.019  12.742
72832SOL    HW220394   5.852   7.028  12.660
72833SOL     OW20395   3.125   3.614   7.088
72833SOL    HW120396   3.117   3.646   6.998
72833SOL    HW220397   3.098   3.522   7.083
72834SOL     OW20398   7.511   0.006  11.427
72834SOL    HW120399   7.474   0.062  11.494
72834SOL    HW220400   7.473  14.802  11.444
72835SOL     OW20401   7.260  14.409   5.545
72835SOL    HW120402   7.278  14.445   5.632
72835SOL    HW220403   7.331  14.346   5.530
72836SOL     OW20404  11.330   1.832  10.181
72836SOL    HW120405  11.286   1.763  10.132
72836SOL    HW220406  11.266   1.903  10.183
72837SOL     OW20407   2.016   1.781  10.952
72837SOL    HW120408   2.074   1.722  11.000
72837SOL    HW220409   2.071   1.854  10.926
72838SOL     OW20410  14.410  11.296   8.943
72838SOL    HW120411  14.356  11.369   8.914
72838SOL    HW220412  14.436  11.319   9.032
72839SOL     OW20413   4.340  13.240  12.698
72839SOL    HW120414   4.404  13.311  12.697
72839SOL    HW220415   4.325  13.222  12.791
72840SOL     OW20416   3.021   6.007   0.762
72840SOL    HW120417   3.072   5.982   0.684
72840SOL    HW220418   3.001   6.100   0.748
72841SOL     OW20419   0.038  11.498   3.793
72841SOL    HW120420   0.023  11.483   3.700
72841SOL    HW220421  14.836  11.529   3.826
72842SOL     OW20422   9.120  13.140  11.075
72842SOL    HW120423   9.177  13.183  11.139
72842SOL    HW220424   9.072  13.075  11.126
72843SOL     OW20425  14.076   2.957   6.608
72843SOL    HW120426  14.016   2.938   6.536
72843SOL    HW220427  14.022   3.004   6.672
72844SOL     OW20428  14.760   6.750  14.768
72844SOL    HW120429  14.693   6.704  14.819
72844SOL    HW220430  14.812   6.796  14.834
72845SOL     OW20431   0.915   9.892   1.102
72845SOL    HW120432   0.982   9.907   1.036
72845SOL    HW220433   0.833   9.913   1.058
72846SOL     OW20434  11.990  12.293  12.978
72846SOL    HW120435  12.034  12.352  13.040
72846SOL    HW220436  11.900  12.287  13.009
72847SOL     OW20437   6.135   8.455   0.015
72847SOL    HW120438   6.041   8.472   0.022
72847SOL    HW220439   6.162   8.434   0.104
72848SOL     OW20440   4.150   9.145   3.963
72848SOL    HW120441   4.143   9.135   3.868
72848SOL    HW220442   4.216   9.081   3.989
72849SOL     OW20443   2.283   3.063   5.965
72849SOL    HW120444   2.319   2.985   6.008
72849SOL    HW220445   2.351   3.088   5.901
72850SOL     OW20446   2.640  12.149  11.817
72850SOL    HW120447   2.578  12.114  11.754
72850SOL    HW220448   2.723  12.153  11.770
72851SOL     OW20449  12.445   5.719  11.330
72851SOL    HW120450  12.382   5.692  11.397
72851SOL    HW220451  12.394   5.723  11.250
72852SOL     OW20452   7.813  12.803   9.191
72852SOL    HW120453   7.772  12.877   9.237
72852SOL    HW220454   7.906  12.811   9.213
72853SOL     OW20455  10.404   9.827   3.739
72853SOL    HW120456  10.466   9.898   3.754
72853SOL    HW220457  10.354   9.853   3.662
72854SOL     OW20458  12.079   6.520   3.299
72854SOL    HW120459  12.028   6.544   3.222
72854SOL    HW220460  12.114   6.433   3.279
72855SOL     OW20461  11.997   6.303  13.142
72855SOL    HW120462  11.954   6.297  13.057
72855SOL    HW220463  12.080   6.347  13.123
72856SOL     OW20464   8.987   1.122  11.104
72856SOL    HW120465   9.012   1.113  11.012
72856SOL    HW220466   9.071   1.121  11.151
72857SOL     OW20467  13.864   9.164   2.824
72857SOL    HW120468  13.959   9.160   2.820
72857SOL    HW220469  13.838   9.083   2.867
72858SOL     OW20470   5.059   2.862  13.144
72858SOL    HW120471   5.082   2.828  13.231
72858SOL    HW220472   5.142   2.861  13.096
72859SOL     OW20473   7.482   3.986   6.173
72859SOL    HW120474   7.450   3.900   6.147
72859SOL    HW220475   7.407   4.029   6.215
72860SOL     OW20476   3.702  13.465   2.857
72860SOL    HW120477   3.711  13.479   2.951
72860SOL    HW220478   3.749  13.384   2.840
72861SOL     OW20479   3.480  12.287   4.243
72861SOL    HW120480   3.432  12.282   4.160
72861SOL    HW220481   3.421  12.248   4.307
72862SOL     OW20482  11.161  10.951   9.848
72862SOL    HW120483  11.236  11.010   9.844
72862SOL    HW220484  11.196  10.866   9.822
72863SOL     OW20485   7.608   0.552   6.144
72863SOL    HW120486   7.584   0.573   6.234
72863SOL    HW220487   7.680   0.612   6.123
72864SOL     OW20488   5.863  12.809   6.885
72864SOL    HW120489   5.846  12.794   6.978
72864SOL    HW220490   5.940  12.866   6.884
72865SOL     OW20491   0.108   6.542   5.903
72865SOL    HW120492   0.036   6.534   5.840
72865SOL    HW220493   0.182   6.573   5.851
72866SOL     OW20494   0.469   8.554  10.517
72866SOL    HW120495   0.563   8.563  10.497
72866SOL    HW220496   0.451   8.626  10.578
72867SOL     OW20497   2.717   3.452  11.445
72867SOL    HW120498   2.776   3.519  11.481
72867SOL    HW220499   2.731   3.376  11.502
72868SOL     OW20500   7.542   7.555   0.993
72868SOL    HW120501   7.557   7.505   0.913
72868SOL    HW220502   7.455   7.594   0.980
72869SOL     OW20503  13.234   8.042  13.356
72869SOL    HW120504  13.217   8.023  13.448
72869SOL    HW220505  13.211   7.961  13.310
72870SOL     OW20506   2.040   4.505   5.946
72870SOL    HW120507   2.011   4.478   5.859
72870SOL    HW220508   1.964   4.547   5.985
72871SOL     OW20509  13.073   1.326  11.967
72871SOL    HW120510  13.135   1.396  11.988
72871SOL    HW220511  12.989   1.371  11.954
72872SOL     OW20512   7.214   8.747  10.876
72872SOL    HW120513   7.185   8.822  10.929
72872SOL    HW220514   7.142   8.730  10.816
72873SOL     OW20515  14.447  13.605   8.360
72873SOL    HW120516  14.380  13.603   8.428
72873SOL    HW220517  14.529  13.621   8.408
72874SOL     OW20518  13.618   3.210   2.966
72874SOL    HW120519  13.523   3.202   2.969
72874SOL    HW220520  13.634   3.291   2.918
72875SOL     OW20521   1.273   0.018   8.507
72875SOL    HW120522   1.240   0.087   8.565
72875SOL    HW220523   1.365   0.010   8.531
72876SOL     OW20524   9.937  14.522   3.605
72876SOL    HW120525  10.009  14.494   3.548
72876SOL    HW220526   9.968  14.502   3.693
72877SOL     OW20527  13.949   8.455   4.394
72877SOL    HW120528  14.020   8.486   4.451
72877SOL    HW220529  13.994   8.409   4.323
72878SOL     OW20530   5.276  12.283   2.574
72878SOL    HW120531   5.350  12.241   2.531
72878SOL    HW220532   5.234  12.212   2.624
72879SOL     OW20533   1.526   1.514  12.249
72879SOL    HW120534   1.584   1.530  12.324
72879SOL    HW220535   1.516   1.419  12.247
72880SOL     OW20536  11.228  12.595  11.233
72880SOL    HW120537  11.304  12.565  11.182
72880SOL    HW220538  11.207  12.680  11.196
72881SOL     OW20539  13.696   0.706   5.948
72881SOL    HW120540  13.656   0.789   5.922
72881SOL    HW220541  13.762   0.690   5.880
72882SOL     OW20542   2.229   6.651   9.683
72882SOL    HW120543   2.159   6.698   9.727
72882SOL    HW220544   2.184   6.590   9.624
72883SOL     OW20545   7.714   1.149   0.356
72883SOL    HW120546   7.810   1.159   0.358
72883SOL    HW220547   7.692   1.116   0.443
72884SOL     OW20548  13.537  11.193  14.341
72884SOL    HW120549  13.531  11.109  14.295
72884SOL    HW220550  13.497  11.256  14.281
72885SOL     OW20551   6.384  12.281   5.716
72885SOL    HW120552   6.404  12.325   5.634
72885SOL    HW220553   6.327  12.342   5.763
72886SOL     OW20554   6.101   9.716   2.704
72886SOL    HW120555   6.084   9.676   2.789
72886SOL    HW220556   6.032   9.682   2.647
72887SOL     OW20557  13.325  12.424  11.049
72887SOL    HW120558  13.239  12.466  11.042
72887SOL    HW220559  13.307  12.330  11.039
72888SOL     OW20560   8.498   8.466   4.759
72888SOL    HW120561   8.505   8.556   4.727
72888SOL    HW220562   8.412   8.436   4.730
72889SOL     OW20563  11.808  12.279   5.923
72889SOL    HW120564  11.790  12.245   5.836
72889SOL    HW220565  11.855  12.361   5.908
72890SOL     OW20566   6.334   3.249   0.161
72890SOL    HW120567   6.335   3.300   0.242
72890SOL    HW220568   6.412   3.194   0.167
72891SOL     OW20569  12.383   7.426  14.007
72891SOL    HW120570  12.444   7.498  14.024
72891SOL    HW220571  12.338   7.411  14.090
72892SOL     OW20572   6.916   4.366   5.255
72892SOL    HW120573   6.843   4.415   5.294
72892SOL    HW220574   6.877   4.285   5.223
72893SOL     OW20575   3.227   8.877  11.167
72893SOL    HW120576   3.240   8.968  11.142
72893SOL    HW220577   3.299   8.859  11.229
72894SOL     OW20578   8.688  13.689   5.837
72894SOL    HW120579   8.734  13.636   5.772
72894SOL    HW220580   8.617  13.633   5.868
72895SOL     OW20581  13.131   6.437   4.363
72895SOL    HW120582  13.070   6.427   4.290
72895SOL    HW220583  13.145   6.531   4.370
72896SOL     OW20584  12.429  13.774   8.146
72896SOL    HW120585  12.342  13.743   8.117
72896SOL    HW220586  12.489  13.707   8.115
72897SOL     OW20587   1.974  12.683   3.608
72897SOL    HW120588   1.881  12.676   3.587
72897SOL    HW220589   1.980  12.660   3.700
72898SOL     OW20590   3.676   7.403   3.938
72898SOL    HW120591   3.668   7.405   4.033
72898SOL    HW220592   3.768   7.422   3.921
72899SOL     OW20593   0.166  12.448   5.426
72899SOL    HW120594   0.243  12.401   5.395
72899SOL    HW220595   0.201  12.513   5.487
72900SOL     OW20596  12.113  12.347   4.530
72900SOL    HW120597  12.135  12.370   4.440
72900SOL    HW220598  12.028  12.304   4.523
72901SOL     OW20599   9.180  10.251   3.653
72901SOL    HW120600   9.183  10.248   3.557
72901SOL    HW220601   9.087  10.241   3.674
72902SOL     OW20602   9.776   2.309  13.995
72902SOL    HW120603   9.788   2.403  13.981
72902SOL    HW220604   9.803   2.296  14.086
72903SOL     OW20605   6.440   7.491   6.951
72903SOL    HW120606   6.526   7.448   6.947
72903SOL    HW220607   6.425   7.522   6.862
72904SOL     OW20608   7.739   2.160  11.991
72904SOL    HW120609   7.690   2.149  12.072
72904SOL    HW220610   7.676   2.141  11.922
72905SOL     OW20611   5.730   1.496   6.811
72905SOL    HW120612   5.798   1.457   6.866
72905SOL    HW220613   5.753   1.467   6.722
72906SOL     OW20614  13.782  14.815   2.254
72906SOL    HW120615  13.737  14.815   2.169
72906SOL    HW220616  13.862  14.865   2.239
72907SOL     OW20617   4.218   0.091  13.370
72907SOL    HW120618   4.298   0.075  13.419
72907SOL    HW220619   4.230   0.179  13.333
72908SOL     OW20620   5.578   3.039   0.323
72908SOL    HW120621   5.627   2.986   0.385
72908SOL    HW220622   5.607   3.010   0.237
72909SOL     OW20623  12.263   9.602   8.757
72909SOL    HW120624  12.293   9.676   8.809
72909SOL    HW220625  12.168   9.615   8.749
72910SOL     OW20626   7.186  12.230   8.162
72910SOL    HW120627   7.200  12.311   8.112
72910SOL    HW220628   7.272  12.210   8.199
72911SOL     OW20629   1.361  12.837  13.500
72911SOL    HW120630   1.376  12.744  13.514
72911SOL    HW220631   1.361  12.875  13.588
72912SOL     OW20632  10.839   5.683   4.431
72912SOL    HW120633  10.912   5.622   4.442
72912SOL    HW220634  10.878   5.759   4.388
72913SOL     OW20635  12.019   7.171  14.242
72913SOL    HW120636  12.108   7.207  14.235
72913SOL    HW220637  11.963   7.248  14.256
72914SOL     OW20638   9.854   4.471   4.056
72914SOL    HW120639   9.939   4.474   4.012
72914SOL    HW220640   9.848   4.381   4.089
72915SOL     OW20641   8.943   7.754  10.636
72915SOL    HW120642   8.865   7.779  10.588
72915SOL    HW220643   8.915   7.681  10.692
72916SOL     OW20644  12.805   9.212  10.757
72916SOL    HW120645  12.742   9.203  10.828
72916SOL    HW220646  12.836   9.123  10.740
72917SOL     OW20647  14.239   1.160   9.608
72917SOL    HW120648  14.277   1.095   9.667
72917SOL    HW220649  14.185   1.110   9.548
72918SOL     OW20650   8.581   0.082   7.461
72918SOL    HW120651   8.508   0.117   7.511
72918SOL    HW220652   8.636   0.038   7.526
72919SOL     OW20653   1.176   8.643   4.337
72919SOL    HW120654   1.087   8.609   4.350
72919SOL    HW220655   1.203   8.604   4.254
72920SOL     OW20656   7.384   4.851   5.276
72920SOL    HW120657   7.365   4.908   5.201
72920SOL    HW220658   7.464   4.805   5.251
72921SOL     OW20659   7.959   9.561   2.916
72921SOL    HW120660   7.996   9.494   2.858
72921SOL    HW220661   7.940   9.635   2.857
72922SOL     OW20662  11.828   1.219   5.871
72922SOL    HW120663  11.911   1.266   5.877
72922SOL    HW220664  11.833   1.172   5.788
72923SOL     OW20665   9.937  14.651   1.024
72923SOL    HW120666   9.989  14.669   1.102
72923SOL    HW220667   9.847  14.672   1.050
72924SOL     OW20668   1.695   5.394   5.772
72924SOL    HW120669   1.620   5.420   5.826
72924SOL    HW220670   1.763   5.370   5.835
72925SOL     OW20671   2.511   8.043  11.742
72925SOL    HW120672   2.600   8.036  11.776
72925SOL    HW220673   2.486   8.133  11.759
72926SOL     OW20674   2.106   0.954   5.496
72926SOL    HW120675   2.156   0.889   5.446
72926SOL    HW220676   2.130   1.038   5.457
72927SOL     OW20677  12.257  10.130   3.419
72927SOL    HW120678  12.326  10.190   3.392
72927SOL    HW220679  12.302  10.046   3.430
72928SOL     OW20680  10.047   5.003  12.649
72928SOL    HW120681  10.134   4.979  12.682
72928SOL    HW220682  10.064   5.063  12.577
72929SOL     OW20683   4.110  11.261   4.066
72929SOL    HW120684   4.128  11.180   4.113
72929SOL    HW220685   4.196  11.300   4.052
72930SOL     OW20686   1.464   6.083   1.489
72930SOL    HW120687   1.478   6.046   1.402
72930SOL    HW220688   1.544   6.133   1.507
72931SOL     OW20689   0.655   8.085   8.003
72931SOL    HW120690   0.684   8.172   8.029
72931SOL    HW220691   0.589   8.061   8.068
72932SOL     OW20692   4.065   7.042   0.991
72932SOL    HW120693   4.029   6.963   1.033
72932SOL    HW220694   4.085   7.014   0.902
72933SOL     OW20695   9.650   0.806   1.768
72933SOL    HW120696   9.581   0.743   1.752
72933SOL    HW220697   9.637   0.834   1.859
72934SOL     OW20698  13.407   0.822   8.145
72934SOL    HW120699  13.475   0.860   8.089
72934SOL    HW220700  13.336   0.799   8.084
72935SOL     OW20701   2.860  14.378   2.553
72935SOL    HW120702   2.906  14.308   2.598
72935SOL    HW220703   2.820  14.430   2.623
72936SOL     OW20704   4.787  11.170   5.989
72936SOL    HW120705   4.841  11.195   5.914
72936SOL    HW220706   4.848  11.128   6.050
72937SOL     OW20707   9.027  11.006  13.968
72937SOL    HW120708   9.064  10.967  14.048
72937SOL    HW220709   9.093  10.988  13.901
72938SOL     OW20710   5.415   5.533  11.620
72938SOL    HW120711   5.399   5.595  11.691
72938SOL    HW220712   5.345   5.468  11.630
72939SOL     OW20713   0.905   4.346   5.709
72939SOL    HW120714   0.862   4.350   5.794
72939SOL    HW220715   0.991   4.385   5.724
72940SOL     OW20716   5.575   0.993   4.999
72940SOL    HW120717   5.525   1.070   4.971
72940SOL    HW220718   5.581   0.939   4.920
72941SOL     OW20719   9.374  14.345   2.206
72941SOL    HW120720   9.344  14.323   2.294
72941SOL    HW220721   9.469  14.351   2.214
72942SOL     OW20722   7.053   3.567  13.218
72942SOL    HW120723   7.068   3.560  13.313
72942SOL    HW220724   6.982   3.630  13.209
72943SOL     OW20725  12.109   4.947   2.459
72943SOL    HW120726  12.125   5.042   2.461
72943SOL    HW220727  12.192   4.908   2.487
72944SOL     OW20728  14.441  14.436   0.094
72944SOL    HW120729  14.506  14.405   0.158
72944SOL    HW220730  14.420  14.358   0.042
72945SOL     OW20731  12.908  14.343   1.018
72945SOL    HW120732  12.827  14.322   1.065
72945SOL    HW220733  12.949  14.411   1.070
72946SOL     OW20734  10.552   4.118   0.258
72946SOL    HW120735  10.505   4.201   0.251
72946SOL    HW220736  10.559   4.102   0.352
72947SOL     OW20737  11.256   8.124  13.705
72947SOL    HW120738  11.240   8.104  13.797
72947SOL    HW220739  11.189   8.190  13.683
72948SOL     OW20740   9.782   2.935   0.788
72948SOL    HW120741   9.806   2.889   0.708
72948SOL    HW220742   9.786   3.028   0.764
72949SOL     OW20743  13.631  13.123   5.832
72949SOL    HW120744  13.545  13.159   5.853
72949SOL    HW220745  13.667  13.183   5.766
72950SOL     OW20746  12.234  13.334  14.633
72950SOL    HW120747  12.209  13.344  14.725
72950SOL    HW220748  12.325  13.304  14.636
72951SOL     OW20749   6.016   0.549  13.033
72951SOL    HW120750   5.924   0.543  13.061
72951SOL    HW220751   6.022   0.491  12.957
72952SOL     OW20752   5.067  11.739   3.431
72952SOL    HW120753   4.975  11.730   3.405
72952SOL    HW220754   5.076  11.682   3.507
72953SOL     OW20755  11.392  10.258   4.452
72953SOL    HW120756  11.321  10.310   4.491
72953SOL    HW220757  11.436  10.218   4.527
72954SOL     OW20758  10.174   3.642   6.652
72954SOL    HW120759  10.170   3.586   6.574
72954SOL    HW220760  10.137   3.726   6.623
72955SOL     OW20761   3.100  12.767   1.234
72955SOL    HW120762   3.188  12.739   1.210
72955SOL    HW220763   3.052  12.771   1.151
72956SOL     OW20764   4.355  11.724   7.988
72956SOL    HW120765   4.317  11.640   7.962
72956SOL    HW220766   4.424  11.739   7.923
72957SOL     OW20767   7.630  10.223   9.600
72957SOL    HW120768   7.589  10.163   9.663
72957SOL    HW220769   7.607  10.186   9.514
72958SOL     OW20770   6.916  12.015   9.039
72958SOL    HW120771   7.002  11.972   9.038
72958SOL    HW220772   6.883  12.006   8.950
72959SOL     OW20773  11.617   9.207   3.403
72959SOL    HW120774  11.710   9.190   3.422
72959SOL    HW220775  11.612   9.303   3.398
72960SOL     OW20776  11.626   5.396   7.074
72960SOL    HW120777  11.579   5.384   6.992
72960SOL    HW220778  11.578   5.467   7.119
72961SOL     OW20779   9.616  12.596   9.392
72961SOL    HW120780   9.527  12.568   9.375
72961SOL    HW220781   9.617  12.620   9.485
72962SOL     OW20782   0.431   2.809   9.022
72962SOL    HW120783   0.402   2.897   9.048
72962SOL    HW220784   0.385   2.750   9.081
72963SOL     OW20785   6.109   5.645  12.550
72963SOL    HW120786   6.160   5.721  12.520
72963SOL    HW220787   6.122   5.644  12.645
72964SOL     OW20788   2.330   0.938   1.313
72964SOL    HW120789   2.278   0.915   1.389
72964SOL    HW220790   2.352   1.030   1.325
72965SOL     OW20791   5.333   4.520   9.970
72965SOL    HW120792   5.356   4.512   9.878
72965SOL    HW220793   5.307   4.612   9.981
72966SOL     OW20794   4.644   5.101   1.515
72966SOL    HW120795   4.650   5.060   1.429
72966SOL    HW220796   4.570   5.162   1.508
72967SOL     OW20797   0.407  14.528   9.466
72967SOL    HW120798   0.485  14.584   9.470
72967SOL    HW220799   0.428  14.455   9.524
72968SOL     OW20800   0.643   5.698   4.125
72968SOL    HW120801   0.559   5.709   4.169
72968SOL    HW220802   0.708   5.724   4.190
72969SOL     OW20803  14.616  11.355  10.178
72969SOL    HW120804  14.536  11.391  10.216
72969SOL    HW220805  14.585  11.298  10.107
72970SOL     OW20806   8.450   6.069  14.334
72970SOL    HW120807   8.501   6.121  14.396
72970SOL    HW220808   8.515   6.036  14.271
72971SOL     OW20809   4.115  12.360  13.623
72971SOL    HW120810   4.062  12.435  13.593
72971SOL    HW220811   4.175  12.398  13.687
72972SOL     OW20812   4.101  13.723  10.134
72972SOL    HW120813   4.024  13.676  10.103
72972SOL    HW220814   4.169  13.656  10.140
72973SOL     OW20815   1.165   2.772   3.774
72973SOL    HW120816   1.146   2.844   3.834
72973SOL    HW220817   1.254   2.789   3.743
72974SOL     OW20818   7.605   1.829   9.922
72974SOL    HW120819   7.545   1.851   9.851
72974SOL    HW220820   7.549   1.792   9.990
72975SOL     OW20821  10.133   5.644   8.459
72975SOL    HW120822  10.138   5.713   8.525
72975SOL    HW220823  10.211   5.656   8.406
72976SOL     OW20824   4.142   2.707  12.791
72976SOL    HW120825   4.223   2.751  12.768
72976SOL    HW220826   4.137   2.632  12.731
72977SOL     OW20827  12.899   2.759   8.479
72977SOL    HW120828  12.849   2.679   8.498
72977SOL    HW220829  12.893   2.769   8.384
72978SOL     OW20830  10.357   6.572   5.361
72978SOL    HW120831  10.417   6.592   5.290
72978SOL    HW220832  10.410   6.578   5.440
72979SOL     OW20833   9.824   9.396   2.529
72979SOL    HW120834   9.861   9.315   2.564
72979SOL    HW220835   9.735   9.372   2.503
72980SOL     OW20836   8.480  14.200   1.383
72980SOL    HW120837   8.428  14.120   1.387
72980SOL    HW220838   8.470  14.240   1.469
72981SOL     OW20839  11.217   9.345   5.032
72981SOL    HW120840  11.302   9.383   5.056
72981SOL    HW220841  11.156   9.378   5.098
72982SOL     OW20842  14.800  14.729   4.701
72982SOL    HW120843  14.840  14.775   4.627
72982SOL    HW220844  14.711  14.766   4.706
72983SOL     OW20845   7.436  13.636  10.737
72983SOL    HW120846   7.493  13.695  10.786
72983SOL    HW220847   7.476  13.632  10.649
72984SOL     OW20848   5.143   2.103  13.864
72984SOL    HW120849   5.060   2.147  13.881
72984SOL    HW220850   5.203   2.138  13.930
72985SOL     OW20851   5.899   9.628   7.447
72985SOL    HW120852   5.864   9.715   7.468
72985SOL    HW220853   5.976   9.619   7.503
72986SOL     OW20854  13.113   6.160   0.648
72986SOL    HW120855  13.082   6.206   0.570
72986SOL    HW220856  13.076   6.072   0.641
72987SOL     OW20857   3.222   6.942   5.317
72987SOL    HW120858   3.133   6.907   5.305
72987SOL    HW220859   3.222   7.023   5.266
72988SOL     OW20860   0.280   0.891   9.550
72988SOL    HW120861   0.353   0.893   9.489
72988SOL    HW220862   0.219   0.957   9.518
72989SOL     OW20863   2.316   9.622   6.088
72989SOL    HW120864   2.299   9.555   6.154
72989SOL    HW220865   2.330   9.702   6.139
72990SOL     OW20866  14.517  10.968  14.355
72990SOL    HW120867  14.604  11.002  14.377
72990SOL    HW220868  14.468  10.973  14.437
72991SOL     OW20869  13.981   4.757   1.719
72991SOL    HW120870  13.941   4.825   1.665
72991SOL    HW220871  13.931   4.759   1.801
72992SOL     OW20872   6.603  14.657   0.113
72992SOL    HW120873   6.587  14.733   0.058
72992SOL    HW220874   6.616  14.584   0.052
72993SOL     OW20875  14.006   9.004   9.449
72993SOL    HW120876  14.074   9.026   9.385
72993SOL    HW220877  13.947   8.946   9.401
72994SOL     OW20878  13.938   7.511   2.857
72994SOL    HW120879  13.995   7.540   2.928
72994SOL    HW220880  13.962   7.419   2.843
72995SOL     OW20881  11.356   7.092   6.626
72995SOL    HW120882  11.318   7.011   6.662
72995SOL    HW220883  11.300   7.113   6.551
72996SOL     OW20884   9.022  10.801   4.897
72996SOL    HW120885   8.946  10.743   4.892
72996SOL    HW220886   9.030  10.824   4.989
72997SOL     OW20887   4.514  10.731   0.044
72997SOL    HW120888   4.431  10.753   0.001
72997SOL    HW220889   4.490  10.678   0.119
72998SOL     OW20890  10.933   5.279   4.601
72998SOL    HW120891  10.876   5.318   4.667
72998SOL    HW220892  10.952   5.351   4.540
72999SOL     OW20893   4.831   4.585   6.027
72999SOL    HW120894   4.738   4.577   6.045
72999SOL    HW220895   4.837   4.652   5.960
73000SOL     OW20896  14.567   0.363   5.312
73000SOL    HW120897  14.580   0.307   5.389
73000SOL    HW220898  14.569   0.452   5.346
73001SOL     OW20899   3.871   2.158  14.309
73001SOL    HW120900   3.776   2.165  14.297
73001SOL    HW220901   3.892   2.229  14.370
73002SOL     OW20902  10.567   7.107   7.002
73002SOL    HW120903  10.508   7.109   6.927
73002SOL    HW220904  10.654   7.115   6.964
73003SOL     OW20905  14.769   1.299   0.805
73003SOL    HW120906  14.814   1.381   0.787
73003SOL    HW220907  14.713   1.285   0.729
73004SOL     OW20908  10.027   0.570   8.509
73004SOL    HW120909  10.043   0.538   8.598
73004SOL    HW220910   9.972   0.647   8.522
73005SOL     OW20911  12.298   4.159  10.370
73005SOL    HW120912  12.265   4.181  10.457
73005SOL    HW220913  12.275   4.235  10.316
73006SOL     OW20914  11.263   7.416   2.272
73006SOL    HW120915  11.302   7.500   2.245
73006SOL    HW220916  11.310   7.393   2.352
73007SOL     OW20917   8.059   0.565   5.994
73007SOL    HW120918   8.102   0.509   6.059
73007SOL    HW220919   8.052   0.511   5.916
73008SOL     OW20920  12.489   4.172   4.719
73008SOL    HW120921  12.472   4.266   4.724
73008SOL    HW220922  12.495   4.144   4.810
73009SOL     OW20923   6.847   9.199   9.903
73009SOL    HW120924   6.787   9.194   9.977
73009SOL    HW220925   6.872   9.109   9.885
73010SOL     OW20926  10.342   1.873   9.468
73010SOL    HW120927  10.326   1.958   9.508
73010SOL    HW220928  10.352   1.813   9.542
73011SOL     OW20929  10.862   6.686  12.348
73011SOL    HW120930  10.842   6.707  12.257
73011SOL    HW220931  10.779   6.653  12.384
73012SOL     OW20932   1.080   1.492  13.241
73012SOL    HW120933   1.057   1.472  13.332
73012SOL    HW220934   1.031   1.572  13.221
73013SOL     OW20935   7.840  10.187   7.345
73013SOL    HW120936   7.796  10.125   7.403
73013SOL    HW220937   7.777  10.258   7.332
73014SOL     OW20938   2.905   8.225   4.078
73014SOL    HW120939   2.982   8.211   4.022
73014SOL    HW220940   2.933   8.291   4.141
73015SOL     OW20941   4.003  10.642   2.148
73015SOL    HW120942   4.008  10.721   2.094
73015SOL    HW220943   4.094  10.615   2.161
73016SOL     OW20944   8.997  10.453  11.568
73016SOL    HW120945   8.971  10.539  11.533
73016SOL    HW220946   8.977  10.392  11.497
73017SOL     OW20947  10.159  10.866  14.571
73017SOL    HW120948  10.190  10.828  14.489
73017SOL    HW220949  10.079  10.913  14.548
73018SOL     OW20950   0.060   0.953   6.773
73018SOL    HW120951  14.849   0.969   6.790
73018SOL    HW220952   0.078   0.998   6.691
73019SOL     OW20953   6.285   6.655   9.017
73019SOL    HW120954   6.278   6.638   8.923
73019SOL    HW220955   6.240   6.581   9.058
73020SOL     OW20956   3.364   3.508   2.086
73020SOL    HW120957   3.366   3.582   2.026
73020SOL    HW220958   3.297   3.450   2.050
73021SOL     OW20959  13.944  13.802   6.534
73021SOL    HW120960  13.937  13.721   6.584
73021SOL    HW220961  13.871  13.799   6.472
73022SOL     OW20962   0.153   5.219   4.157
73022SOL    HW120963   0.067   5.254   4.183
73022SOL    HW220964   0.132   5.145   4.099
73023SOL     OW20965  10.818   2.775   7.084
73023SOL    HW120966  10.837   2.836   7.156
73023SOL    HW220967  10.724   2.784   7.069
73024SOL     OW20968   4.921   5.235  11.162
73024SOL    HW120969   4.998   5.184  11.190
73024SOL    HW220970   4.854   5.169  11.147
73025SOL     OW20971   0.473   9.880  13.011
73025SOL    HW120972   0.498   9.797  13.051
73025SOL    HW220973   0.547   9.938  13.028
73026SOL     OW20974  13.935   5.902   2.192
73026SOL    HW120975  13.999   5.968   2.221
73026SOL    HW220976  13.890   5.876   2.272
73027SOL     OW20977   4.682   7.647   7.331
73027SOL    HW120978   4.759   7.611   7.373
73027SOL    HW220979   4.703   7.740   7.317
73028SOL     OW20980  12.665   3.979   7.842
73028SOL    HW120981  12.723   4.053   7.824
73028SOL    HW220982  12.723   3.904   7.850
73029SOL     OW20983   4.298   7.022  14.195
73029SOL    HW120984   4.236   7.091  14.173
73029SOL    HW220985   4.384   7.059  14.171
73030SOL     OW20986   5.363   6.485   4.006
73030SOL    HW120987   5.268   6.477   4.013
73030SOL    HW220988   5.394   6.488   4.097
73031SOL     OW20989   7.332  12.450   7.137
73031SOL    HW120990   7.315  12.377   7.078
73031SOL    HW220991   7.259  12.447   7.200
73032SOL     OW20992   8.425   7.537   4.235
73032SOL    HW120993   8.361   7.466   4.227
73032SOL    HW220994   8.487   7.507   4.301
73033SOL     OW20995  12.286   1.842   9.410
73033SOL    HW120996  12.203   1.889   9.412
73033SOL    HW220997  12.353   1.910   9.414
73034SOL     OW20998   0.304   7.836   4.160
73034SOL    HW120999   0.385   7.888   4.161
73034SOL    HW221000   0.333   7.748   4.136
73035SOL     OW21001   9.018  11.993   8.491
73035SOL    HW121002   8.952  12.060   8.502
73035SOL    HW221003   8.977  11.927   8.435
73036SOL     OW21004   4.944  14.689   3.074
73036SOL    HW121005   5.008  14.645   3.019
73036SOL    HW221006   4.996  14.732   3.142
73037SOL     OW21007   3.872  10.269   6.187
73037SOL    HW121008   3.947  10.305   6.235
73037SOL    HW221009   3.910  10.234   6.106
73038SOL     OW21010   6.787  13.707  10.454
73038SOL    HW121011   6.723  13.657  10.504
73038SOL    HW221012   6.766  13.687  10.362
73039SOL     OW21013   6.454   2.642  10.093
73039SOL    HW121014   6.409   2.672  10.014
73039SOL    HW221015   6.444   2.714  10.155
73040SOL     OW21016  13.158   1.864  14.509
73040SOL    HW121017  13.206   1.899  14.584
73040SOL    HW221018  13.227   1.837  14.448
73041SOL     OW21019   9.666  12.935   7.877
73041SOL    HW121020   9.602  12.897   7.817
73041SOL    HW221021   9.622  12.933   7.962
73042SOL     OW21022  13.768   7.270   5.077
73042SOL    HW121023  13.801   7.356   5.105
73042SOL    HW221024  13.845   7.214   5.077
73043SOL     OW21025  11.075  10.727   6.852
73043SOL    HW121026  11.109  10.736   6.942
73043SOL    HW221027  11.094  10.636   6.829
73044SOL     OW21028  12.822  11.111   1.661
73044SOL    HW121029  12.755  11.043   1.661
73044SOL    HW221030  12.892  11.077   1.717
73045SOL     OW21031   5.532  13.291   3.025
73045SOL    HW121032   5.486  13.209   3.006
73045SOL    HW221033   5.604  13.266   3.082
73046SOL     OW21034  14.074   0.622   7.641
73046SOL    HW121035  14.016   0.696   7.656
73046SOL    HW221036  14.030   0.547   7.682
73047SOL     OW21037  13.904  13.818   5.891
73047SOL    HW121038  13.876  13.857   5.808
73047SOL    HW221039  13.953  13.887   5.934
73048SOL     OW21040   6.009   0.292  14.101
73048SOL    HW121041   6.082   0.337  14.145
73048SOL    HW221042   5.931   0.338  14.132
73049SOL     OW21043   9.732  11.029   5.568
73049SOL    HW121044   9.778  10.976   5.504
73049SOL    HW221045   9.765  11.118   5.554
73050SOL     OW21046  10.548   4.013   0.510
73050SOL    HW121047  10.547   4.018   0.605
73050SOL    HW221048  10.513   3.926   0.490
73051SOL     OW21049  10.718   6.599  10.152
73051SOL    HW121050  10.802   6.604  10.198
73051SOL    HW221051  10.654   6.633  10.214
73052SOL     OW21052   8.354  11.225   8.097
73052SOL    HW121053   8.282  11.266   8.049
73052SOL    HW221054   8.433  11.262   8.057
73053SOL     OW21055   7.363  12.945   2.593
73053SOL    HW121056   7.349  12.918   2.683
73053SOL    HW221057   7.455  12.921   2.575
73054SOL     OW21058   4.361   2.357   6.372
73054SOL    HW121059   4.408   2.274   6.362
73054SOL    HW221060   4.343   2.363   6.466
73055SOL     OW21061  12.754   7.984   3.166
73055SOL    HW121062  12.795   8.030   3.239
73055SOL    HW221063  12.754   7.892   3.192
73056SOL     OW21064   3.694   6.607   2.890
73056SOL    HW121065   3.646   6.601   2.973
73056SOL    HW221066   3.665   6.530   2.841
73057SOL     OW21067  12.601  13.941   1.724
73057SOL    HW121068  12.578  13.882   1.796
73057SOL    HW221069  12.683  13.905   1.690
73058SOL     OW21070  10.981   5.755   3.133
73058SOL    HW121071  10.909   5.754   3.195
73058SOL    HW221072  10.941   5.777   3.049
73059SOL     OW21073  11.346  14.577  12.812
73059SOL    HW121074  11.391  14.540  12.736
73059SOL    HW221075  11.257  14.593  12.783
73060SOL     OW21076   8.554   2.653   5.503
73060SOL    HW121077   8.581   2.743   5.483
73060SOL    HW221078   8.490   2.631   5.436
73061SOL     OW21079   8.381   6.404   9.546
73061SOL    HW121080   8.348   6.456   9.473
73061SOL    HW221081   8.371   6.460   9.623
73062SOL     OW21082   8.792   9.954   0.487
73062SOL    HW121083   8.830  10.034   0.450
73062SOL    HW221084   8.844   9.883   0.447
73063SOL     OW21085  14.523   5.734  11.513
73063SOL    HW121086  14.577   5.737  11.433
73063SOL    HW221087  14.476   5.817  11.513
73064SOL     OW21088   3.195  13.956  13.323
73064SOL    HW121089   3.226  13.921  13.239
73064SOL    HW221090   3.258  14.025  13.345
73065SOL     OW21091   2.253  13.077   5.097
73065SOL    HW121092   2.325  13.051   5.039
73065SOL    HW221093   2.211  13.151   5.052
73066SOL     OW21094  12.936   4.055  14.726
73066SOL    HW121095  12.845   4.037  14.751
73066SOL    HW221096  12.930   4.116  14.653
73067SOL     OW21097  13.982   9.569   5.484
73067SOL    HW121098  14.027   9.520   5.415
73067SOL    HW221099  13.908   9.611   5.439
73068SOL     OW21100   8.965  12.713  13.055
73068SOL    HW121101   8.913  12.740  13.130
73068SOL    HW221102   9.052  12.751  13.070
73069SOL     OW21103  12.473   4.947   7.469
73069SOL    HW121104  12.478   5.005   7.393
73069SOL    HW221105  12.541   4.979   7.528
73070SOL     OW21106   6.965   6.564   5.034
73070SOL    HW121107   6.899   6.629   5.055
73070SOL    HW221108   6.975   6.512   5.114
73071SOL     OW21109   7.041   5.435   2.808
73071SOL    HW121110   6.965   5.381   2.831
73071SOL    HW221111   7.103   5.374   2.769
73072SOL     OW21112   5.446  12.663  11.365
73072SOL    HW121113   5.363  12.622  11.387
73072SOL    HW221114   5.442  12.750  11.405
73073SOL     OW21115   5.224   5.903   5.091
73073SOL    HW121116   5.291   5.971   5.093
73073SOL    HW221117   5.188   5.906   5.002
73074SOL     OW21118   3.666   9.738   2.443
73074SOL    HW121119   3.631   9.680   2.510
73074SOL    HW221120   3.716   9.680   2.385
73075SOL     OW21121   6.649   1.584   9.829
73075SOL    HW121122   6.728   1.636   9.814
73075SOL    HW221123   6.651   1.565   9.923
73076SOL     OW21124   1.576   4.684  13.178
73076SOL    HW121125   1.669   4.703  13.188
73076SOL    HW221126   1.558   4.702  13.085
73077SOL     OW21127   2.224   6.934   7.961
73077SOL    HW121128   2.241   6.930   8.056
73077SOL    HW221129   2.131   6.915   7.953
73078SOL     OW21130  11.943   8.059   4.407
73078SOL    HW121131  11.886   7.984   4.425
73078SOL    HW221132  11.899   8.133   4.450
73079SOL     OW21133  13.293  11.105  14.476
73079SOL    HW121134  13.386  11.127  14.472
73079SOL    HW221135  13.256  11.165  14.540
73080SOL     OW21136   2.996  11.710  10.911
73080SOL    HW121137   3.083  11.670  10.904
73080SOL    HW221138   2.987  11.731  11.003
73081SOL     OW21139   2.249  10.099  14.460
73081SOL    HW121140   2.195  10.063  14.389
73081SOL    HW221141   2.338  10.071  14.438
73082SOL     OW21142   6.247   5.465   7.536
73082SOL    HW121143   6.297   5.515   7.472
73082SOL    HW221144   6.215   5.389   7.488
73083SOL     OW21145   0.545   4.388   3.756
73083SOL    HW121146   0.549   4.393   3.851
73083SOL    HW221147   0.512   4.474   3.728
73084SOL     OW21148  13.260   4.908   4.704
73084SOL    HW121149  13.269   4.951   4.619
73084SOL    HW221150  13.207   4.830   4.686
73085SOL     OW21151   6.472  12.592  12.783
73085SOL    HW121152   6.499  12.669  12.832
73085SOL    HW221153   6.513  12.601  12.698
73086SOL     OW21154   5.005   5.423   0.044
73086SOL    HW121155   4.927   5.477   0.029
73086SOL    HW221156   5.002   5.357  14.856
73087SOL     OW21157   4.411   1.547  11.541
73087SOL    HW121158   4.351   1.620  11.552
73087SOL    HW221159   4.365   1.487  11.482
73088SOL     OW21160  13.201   5.791  11.543
73088SOL    HW121161  13.150   5.747  11.475
73088SOL    HW221162  13.162   5.878  11.549
73089SOL     OW21163  12.129  14.021   5.160
73089SOL    HW121164  12.106  13.944   5.211
73089SOL    HW221165  12.119  14.094   5.221
73090SOL     OW21166  10.432   7.327   2.617
73090SOL    HW121167  10.339   7.303   2.624
73090SOL    HW221168  10.478   7.258   2.664
73091SOL     OW21169  13.795  14.854   4.221
73091SOL    HW121170  13.759  14.780   4.172
73091SOL    HW221171  13.796   0.044   4.158
73092SOL     OW21172   2.838  12.476   7.042
73092SOL    HW121173   2.932  12.475   7.024
73092SOL    HW221174   2.806  12.555   6.997
73093SOL     OW21175   7.782   8.402   3.524
73093SOL    HW121176   7.739   8.417   3.609
73093SOL    HW221177   7.725   8.447   3.461
73094SOL     OW21178   7.493   1.099  13.565
73094SOL    HW121179   7.483   1.174  13.507
73094SOL    HW221180   7.551   1.131  13.635
73095SOL     OW21181   4.208   0.642   9.459
73095SOL    HW121182   4.214   0.735   9.480
73095SOL    HW221183   4.115   0.620   9.471
73096SOL     OW21184   6.663   6.174   1.911
73096SOL    HW121185   6.648   6.083   1.936
73096SOL    HW221186   6.651   6.224   1.992
73097SOL     OW21187   6.575  12.539   7.848
73097SOL    HW121188   6.534  12.567   7.766
73097SOL    HW221189   6.599  12.448   7.833
73098SOL     OW21190  10.915  12.680   7.923
73098SOL    HW121191  10.920  12.610   7.988
73098SOL    HW221192  10.903  12.635   7.840
73099SOL     OW21193   1.529   5.314   9.420
73099SOL    HW121194   1.586   5.240   9.441
73099SOL    HW221195   1.571   5.355   9.344
73100SOL     OW21196  13.292   7.186  11.631
73100SOL    HW121197  13.292   7.264  11.686
73100SOL    HW221198  13.252   7.215  11.549
73101SOL     OW21199   0.809   7.560  10.595
73101SOL    HW121200   0.806   7.465  10.579
73101SOL    HW221201   0.893   7.575  10.638
73102SOL     OW21202   3.527  12.831   7.678
73102SOL    HW121203   3.595  12.769   7.651
73102SOL    HW221204   3.465  12.832   7.605
73103SOL     OW21205  14.290   4.341   7.541
73103SOL    HW121206  14.258   4.372   7.626
73103SOL    HW221207  14.385   4.353   7.546
73104SOL     OW21208  13.972   4.702   4.876
73104SOL    HW121209  13.990   4.779   4.931
73104SOL    HW221210  13.939   4.739   4.794
73105SOL     OW21211   5.435   3.387  10.062
73105SOL    HW121212   5.471   3.314  10.013
73105SOL    HW221213   5.505   3.413  10.122
73106SOL     OW21214   5.577   4.280   4.574
73106SOL    HW121215   5.543   4.192   4.554
73106SOL    HW221216   5.655   4.288   4.519
73107SOL     OW21217  14.496   7.632  13.751
73107SOL    HW121218  14.546   7.712  13.768
73107SOL    HW221219  14.549   7.562  13.791
73108SOL     OW21220   1.454   3.661   2.882
73108SOL    HW121221   1.496   3.722   2.821
73108SOL    HW221222   1.477   3.574   2.849
73109SOL     OW21223   8.583   4.250   7.501
73109SOL    HW121224   8.625   4.308   7.438
73109SOL    HW221225   8.588   4.297   7.584
73110SOL     OW21226  10.912  13.235   6.953
73110SOL    HW121227  10.891  13.326   6.932
73110SOL    HW221228  11.008  13.231   6.950
73111SOL     OW21229   3.878  12.105   4.866
73111SOL    HW121230   3.937  12.135   4.935
73111SOL    HW221231   3.851  12.186   4.822
73112SOL     OW21232   5.440  10.827   8.318
73112SOL    HW121233   5.404  10.914   8.303
73112SOL    HW221234   5.511  10.842   8.381
73113SOL     OW21235   8.317   6.537   1.875
73113SOL    HW121236   8.361   6.461   1.837
73113SOL    HW221237   8.362   6.612   1.838
73114SOL     OW21238   7.730  10.624   3.593
73114SOL    HW121239   7.811  10.589   3.630
73114SOL    HW221240   7.717  10.706   3.640
73115SOL     OW21241  14.528   6.770   1.227
73115SOL    HW121242  14.455   6.776   1.166
73115SOL    HW221243  14.488   6.782   1.314
73116SOL     OW21244   7.088   0.221   0.797
73116SOL    HW121245   7.095   0.140   0.746
73116SOL    HW221246   6.997   0.224   0.825
73117SOL     OW21247   4.767   0.663   8.048
73117SOL    HW121248   4.772   0.585   8.103
73117SOL    HW221249   4.717   0.635   7.971
73118SOL     OW21250  14.102   4.956  13.594
73118SOL    HW121251  14.118   4.880  13.537
73118SOL    HW221252  14.147   5.028  13.550
73119SOL     OW21253  10.368  14.364  13.814
73119SOL    HW121254  10.355  14.347  13.907
73119SOL    HW221255  10.399  14.454  13.809
73120SOL     OW21256   9.772   6.092   6.943
73120SOL    HW121257   9.732   6.151   7.007
73120SOL    HW221258   9.700   6.036   6.915
73121SOL     OW21259   8.207   8.597   2.584
73121SOL    HW121260   8.265   8.545   2.529
73121SOL    HW221261   8.192   8.678   2.534
73122SOL     OW21262  14.249   0.137  14.774
73122SOL    HW121263  14.272   0.070  14.839
73122SOL    HW221264  14.328   0.145  14.719
73123SOL     OW21265   6.466   3.201  14.066
73123SOL    HW121266   6.536   3.153  14.021
73123SOL    HW221267   6.418   3.245  13.996
73124SOL     OW21268  14.676   5.986   9.801
73124SOL    HW121269  14.599   6.031   9.834
73124SOL    HW221270  14.682   6.011   9.709
73125SOL     OW21271  13.148  12.473   5.032
73125SOL    HW121272  13.063  12.500   4.997
73125SOL    HW221273  13.167  12.537   5.101
73126SOL     OW21274  14.404  12.971   5.380
73126SOL    HW121275  14.321  13.012   5.404
73126SOL    HW221276  14.387  12.877   5.385
73127SOL     OW21277   9.694   9.194   0.471
73127SOL    HW121278   9.745   9.163   0.396
73127SOL    HW221279   9.666   9.113   0.515
73128SOL     OW21280   4.528  12.637   8.285
73128SOL    HW121281   4.515  12.619   8.192
73128SOL    HW221282   4.604  12.584   8.310
73129SOL     OW21283   3.148   6.836   2.311
73129SOL    HW121284   3.235   6.845   2.273
73129SOL    HW221285   3.128   6.923   2.346
73130SOL     OW21286   0.766   5.072  13.431
73130SOL    HW121287   0.812   4.990  13.415
73130SOL    HW221288   0.690   5.047  13.483
73131SOL     OW21289  13.953   6.541   7.381
73131SOL    HW121290  13.924   6.631   7.396
73131SOL    HW221291  13.897   6.509   7.310
73132SOL     OW21292  13.617   2.302  11.820
73132SOL    HW121293  13.693   2.297  11.878
73132SOL    HW221294  13.552   2.243  11.860
73133SOL     OW21295   2.070   0.519  11.203
73133SOL    HW121296   2.063   0.594  11.262
73133SOL    HW221297   2.158   0.485  11.217
73134SOL     OW21298   1.740   3.735  14.101
73134SOL    HW121299   1.657   3.754  14.143
73134SOL    HW221300   1.732   3.644  14.072
73135SOL     OW21301  14.163   4.732   0.534
73135SOL    HW121302  14.151   4.639   0.551
73135SOL    HW221303  14.257   4.741   0.515
73136SOL     OW21304  14.644   9.116  14.530
73136SOL    HW121305  14.736   9.141  14.516
73136SOL    HW221306  14.595   9.197  14.518
73137SOL     OW21307   5.146  14.467   0.130
73137SOL    HW121308   5.211  14.434   0.067
73137SOL    HW221309   5.188  14.457   0.215
73138SOL     OW21310  11.359   5.891   0.664
73138SOL    HW121311  11.353   5.936   0.747
73138SOL    HW221312  11.366   5.960   0.598
73139SOL     OW21313   0.779   8.815   2.412
73139SOL    HW121314   0.827   8.807   2.329
73139SOL    HW221315   0.835   8.773   2.477
73140SOL     OW21316   1.657  11.200  13.811
73140SOL    HW121317   1.706  11.128  13.850
73140SOL    HW221318   1.681  11.276  13.864
73141SOL     OW21319   4.226   4.323   3.490
73141SOL    HW121320   4.228   4.227   3.498
73141SOL    HW221321   4.155   4.350   3.549
73142SOL     OW21322  11.313   9.532  10.000
73142SOL    HW121323  11.241   9.566  10.053
73142SOL    HW221324  11.285   9.445   9.974
73143SOL     OW21325  11.185  10.630  14.578
73143SOL    HW121326  11.201  10.716  14.619
73143SOL    HW221327  11.158  10.651  14.489
73144SOL     OW21328   8.983   0.750  11.360
73144SOL    HW121329   9.064   0.719  11.400
73144SOL    HW221330   8.975   0.699  11.280
73145SOL     OW21331   6.114   0.459   4.280
73145SOL    HW121332   6.099   0.365   4.270
73145SOL    HW221333   6.046   0.499   4.226
73146SOL     OW21334   8.755  14.232  12.708
73146SOL    HW121335   8.839  14.214  12.751
73146SOL    HW221336   8.720  14.307  12.755
73147SOL     OW21337   4.141  14.425  14.848
73147SOL    HW121338   4.100  14.454   0.048
73147SOL    HW221339   4.140  14.503  14.793
73148SOL     OW21340  14.046   7.713   5.108
73148SOL    HW121341  14.112   7.763   5.059
73148SOL    HW221342  14.097   7.666   5.174
73149SOL     OW21343  13.335  10.687   9.867
73149SOL    HW121344  13.393  10.752   9.907
73149SOL    HW221345  13.394  10.618   9.835
73150SOL     OW21346   6.736   1.380   7.146
73150SOL    HW121347   6.719   1.359   7.054
73150SOL    HW221348   6.832   1.389   7.150
73151SOL     OW21349   0.137   7.853  12.134
73151SOL    HW121350   0.173   7.766  12.117
73151SOL    HW221351   0.043   7.838  12.149
73152SOL     OW21352  13.822   9.105  13.003
73152SOL    HW121353  13.865   9.029  13.043
73152SOL    HW221354  13.851   9.179  13.055
73153SOL     OW21355   3.706  10.048   3.779
73153SOL    HW121356   3.784  10.042   3.724
73153SOL    HW221357   3.739  10.064   3.867
73154SOL     OW21358   2.021   8.789   4.717
73154SOL    HW121359   1.930   8.789   4.749
73154SOL    HW221360   2.056   8.704   4.744
73155SOL     OW21361  13.188  13.619  13.674
73155SOL    HW121362  13.278  13.636  13.647
73155SOL    HW221363  13.192  13.535  13.721
73156SOL     OW21364   2.927  13.581   9.301
73156SOL    HW121365   3.000  13.519   9.303
73156SOL    HW221366   2.886  13.573   9.387
73157SOL     OW21367   5.522   8.726  13.426
73157SOL    HW121368   5.601   8.736  13.373
73157SOL    HW221369   5.462   8.676  13.371
73158SOL     OW21370   8.585  14.131  14.448
73158SOL    HW121371   8.669  14.178  14.453
73158SOL    HW221372   8.610  14.039  14.442
73159SOL     OW21373   9.813  14.415   6.533
73159SOL    HW121374   9.888  14.461   6.572
73159SOL    HW221375   9.769  14.373   6.607
73160SOL     OW21376   7.732   1.568  11.264
73160SOL    HW121377   7.806   1.558  11.204
73160SOL    HW221378   7.654   1.558  11.208
73161SOL     OW21379  10.766   7.507   4.347
73161SOL    HW121380  10.789   7.506   4.254
73161SOL    HW221381  10.747   7.598   4.367
73162SOL     OW21382   4.077  14.288   0.983
73162SOL    HW121383   4.011  14.258   1.045
73162SOL    HW221384   4.066  14.232   0.906
73163SOL     OW21385  12.030   3.236   5.560
73163SOL    HW121386  11.937   3.251   5.578
73163SOL    HW221387  12.076   3.272   5.637
73164SOL     OW21388  10.097   9.687  12.135
73164SOL    HW121389  10.175   9.742  12.134
73164SOL    HW221390  10.024   9.748  12.134
73165SOL     OW21391   7.378   3.056  12.556
73165SOL    HW121392   7.447   2.998  12.524
73165SOL    HW221393   7.366   3.032  12.648
73166SOL     OW21394   2.420   4.564   2.123
73166SOL    HW121395   2.504   4.522   2.139
73166SOL    HW221396   2.440   4.634   2.060
73167SOL     OW21397   6.956   5.446   9.856
73167SOL    HW121398   7.002   5.423   9.937
73167SOL    HW221399   6.902   5.521   9.879
73168SOL     OW21400  11.487   8.409   5.302
73168SOL    HW121401  11.455   8.489   5.261
73168SOL    HW221402  11.409   8.366   5.336
73169SOL     OW21403  12.326   5.153  10.697
73169SOL    HW121404  12.329   5.170  10.791
73169SOL    HW221405  12.368   5.067  10.687
73170SOL     OW21406   2.799   3.098   0.647
73170SOL    HW121407   2.705   3.083   0.657
73170SOL    HW221408   2.810   3.193   0.656
73171SOL     OW21409  12.615  11.346   2.165
73171SOL    HW121410  12.639  11.333   2.073
73171SOL    HW221411  12.584  11.260   2.195
73172SOL     OW21412   8.136   7.756  12.727
73172SOL    HW121413   8.232   7.761  12.726
73172SOL    HW221414   8.108   7.837  12.770
73173SOL     OW21415  13.036  12.929   4.736
73173SOL    HW121416  13.030  13.008   4.789
73173SOL    HW221417  13.101  12.875   4.781
73174SOL     OW21418  13.989   8.129  12.171
73174SOL    HW121419  14.060   8.126  12.235
73174SOL    HW221420  14.024   8.183  12.100
73175SOL     OW21421  10.821   7.072  12.645
73175SOL    HW121422  10.884   7.143  12.656
73175SOL    HW221423  10.873   6.997  12.617
73176SOL     OW21424   6.065  10.152   7.451
73176SOL    HW121425   5.992  10.091   7.446
73176SOL    HW221426   6.026  10.233   7.484
73177SOL     OW21427   3.002  14.622   7.647
73177SOL    HW121428   2.958  14.552   7.696
73177SOL    HW221429   3.000  14.697   7.706
73178SOL     OW21430   5.077   7.354   8.531
73178SOL    HW121431   5.086   7.268   8.490
73178SOL    HW221432   5.070   7.415   8.458
73179SOL     OW21433   7.307   9.670  14.566
73179SOL    HW121434   7.211   9.660  14.561
73179SOL    HW221435   7.323   9.699  14.655
73180SOL     OW21436   5.211   3.370  11.342
73180SOL    HW121437   5.194   3.358  11.435
73180SOL    HW221438   5.151   3.309  11.299
73181SOL     OW21439   3.812  11.666   7.395
73181SOL    HW121440   3.798  11.645   7.303
73181SOL    HW221441   3.771  11.751   7.407
73182SOL     OW21442   1.002   4.723  14.659
73182SOL    HW121443   1.058   4.646  14.653
73182SOL    HW221444   1.052   4.794  14.618
73183SOL     OW21445   4.093  11.903   0.839
73183SOL    HW121446   4.176  11.865   0.809
73183SOL    HW221447   4.112  11.996   0.850
73184SOL     OW21448   8.072   2.784   0.749
73184SOL    HW121449   8.071   2.826   0.663
73184SOL    HW221450   8.070   2.856   0.812
73185SOL     OW21451   0.099  13.912  14.839
73185SOL    HW121452   0.090  13.820  14.863
73185SOL    HW221453   0.193  13.926  14.830
73186SOL     OW21454   2.484  11.124  13.024
73186SOL    HW121455   2.578  11.114  13.014
73186SOL    HW221456   2.474  11.198  13.084
73187SOL     OW21457   6.529   3.955  13.912
73187SOL    HW121458   6.575   4.036  13.934
73187SOL    HW221459   6.553   3.895  13.983
73188SOL     OW21460   7.902   3.281   7.488
73188SOL    HW121461   7.869   3.294   7.399
73188SOL    HW221462   7.990   3.245   7.476
73189SOL     OW21463   7.647  14.648  13.769
73189SOL    HW121464   7.593  14.727  13.770
73189SOL    HW221465   7.657  14.627  13.676
73190SOL     OW21466   1.077   4.056  10.385
73190SOL    HW121467   1.076   3.982  10.445
73190SOL    HW221468   0.985   4.084  10.381
73191SOL     OW21469   8.114   2.833  12.225
73191SOL    HW121470   8.097   2.841  12.319
73191SOL    HW221471   8.117   2.739  12.209
73192SOL     OW21472   8.881   7.432  10.613
73192SOL    HW121473   8.816   7.461  10.549
73192SOL    HW221474   8.847   7.347  10.644
73193SOL     OW21475  13.673  11.764   0.758
73193SOL    HW121476  13.728  11.725   0.826
73193SOL    HW221477  13.732  11.772   0.683
73194SOL     OW21478   6.534   5.240  11.240
73194SOL    HW121479   6.487   5.315  11.275
73194SOL    HW221480   6.466   5.174  11.225
73195SOL     OW21481  10.537   8.279   3.624
73195SOL    HW121482  10.484   8.218   3.573
73195SOL    HW221483  10.613   8.227   3.652
73196SOL     OW21484   4.789   1.045  12.886
73196SOL    HW121485   4.748   1.120  12.842
73196SOL    HW221486   4.870   1.079  12.923
73197SOL     OW21487   3.187  10.196   4.538
73197SOL    HW121488   3.237  10.161   4.464
73197SOL    HW221489   3.110  10.139   4.544
73198SOL     OW21490   5.206   3.723   4.382
73198SOL    HW121491   5.256   3.717   4.463
73198SOL    HW221492   5.239   3.652   4.327
73199SOL     OW21493   7.902   0.501   2.961
73199SOL    HW121494   7.811   0.474   2.965
73199SOL    HW221495   7.900   0.596   2.966
73200SOL     OW21496   9.521   7.910   9.067
73200SOL    HW121497   9.570   7.890   8.987
73200SOL    HW221498   9.578   7.970   9.116
73201SOL     OW21499   2.311  14.651   1.405
73201SOL    HW121500   2.304  14.590   1.478
73201SOL    HW221501   2.345  14.597   1.333
73202SOL     OW21502   0.494   8.187   6.113
73202SOL    HW121503   0.428   8.251   6.140
73202SOL    HW221504   0.500   8.199   6.018
73203SOL     OW21505   6.989  11.181  10.072
73203SOL    HW121506   7.028  11.184  10.160
73203SOL    HW221507   6.912  11.125  10.081
73204SOL     OW21508  12.040   9.850  11.803
73204SOL    HW121509  12.121   9.901  11.807
73204SOL    HW221510  12.063   9.773  11.751
73205SOL     OW21511   8.614   2.515   3.790
73205SOL    HW121512   8.526   2.526   3.753
73205SOL    HW221513   8.609   2.435   3.841
73206SOL     OW21514   1.687   4.597   1.347
73206SOL    HW121515   1.742   4.531   1.304
73206SOL    HW221516   1.610   4.604   1.291
73207SOL     OW21517   1.766   0.829  11.526
73207SOL    HW121518   1.780   0.922  11.513
73207SOL    HW221519   1.681   0.823  11.571
73208SOL     OW21520   3.678   3.460  14.599
73208SOL    HW121521   3.635   3.543  14.577
73208SOL    HW221522   3.659   3.403  14.524
73209SOL     OW21523  11.835  13.547  11.462
73209SOL    HW121524  11.800  13.619  11.410
73209SOL    HW221525  11.769  13.478  11.456
73210SOL     OW21526  12.052   4.188   0.816
73210SOL    HW121527  12.009   4.143   0.889
73210SOL    HW221528  12.133   4.140   0.803
73211SOL     OW21529   4.218   6.186  11.791
73211SOL    HW121530   4.173   6.262  11.829
73211SOL    HW221531   4.302   6.220  11.762
73212SOL     OW21532  11.319   5.591   3.341
73212SOL    HW121533  11.375   5.513   3.343
73212SOL    HW221534  11.370   5.658   3.385
73213SOL     OW21535   3.907   2.655  13.732
73213SOL    HW121536   3.909   2.582  13.671
73213SOL    HW221537   3.973   2.633  13.798
73214SOL     OW21538   4.491   9.286   0.577
73214SOL    HW121539   4.417   9.345   0.590
73214SOL    HW221540   4.565   9.343   0.556
73215SOL     OW21541   2.273  13.531   4.539
73215SOL    HW121542   2.223  13.561   4.463
73215SOL    HW221543   2.327  13.460   4.506
73216SOL     OW21544  13.035   3.978  10.519
73216SOL    HW121545  12.946   4.011  10.517
73216SOL    HW221546  13.066   3.995  10.608
73217SOL     OW21547  12.480   4.405  10.017
73217SOL    HW121548  12.476   4.310  10.016
73217SOL    HW221549  12.553   4.427   9.959
73218SOL     OW21550  13.771  12.189  10.306
73218SOL    HW121551  13.707  12.119  10.314
73218SOL    HW221552  13.834  12.157  10.242
73219SOL     OW21553  12.019  13.386   1.559
73219SOL    HW121554  12.026  13.442   1.635
73219SOL    HW221555  12.045  13.441   1.485
73220SOL     OW21556   9.487   2.840   6.189
73220SOL    HW121557   9.484   2.915   6.129
73220SOL    HW221558   9.502   2.764   6.131
73221SOL     OW21559   7.486   3.254   1.857
73221SOL    HW121560   7.461   3.335   1.813
73221SOL    HW221561   7.415   3.193   1.838
73222SOL     OW21562  10.729   5.860   3.706
73222SOL    HW121563  10.703   5.879   3.796
73222SOL    HW221564  10.737   5.764   3.703
73223SOL     OW21565   5.914  14.463   9.870
73223SOL    HW121566   5.861  14.417   9.805
73223SOL    HW221567   6.004  14.437   9.849
73224SOL     OW21568   4.715  13.505  11.341
73224SOL    HW121569   4.673  13.588  11.363
73224SOL    HW221570   4.737  13.513  11.248
73225SOL     OW21571  10.729  13.042   2.844
73225SOL    HW121572  10.645  13.025   2.800
73225SOL    HW221573  10.757  13.127   2.809
73226SOL     OW21574  10.265  13.871   6.904
73226SOL    HW121575  10.347  13.830   6.875
73226SOL    HW221576  10.213  13.878   6.824
73227SOL     OW21577  10.524   0.362   0.743
73227SOL    HW121578  10.539   0.305   0.667
73227SOL    HW221579  10.473   0.435   0.708
73228SOL     OW21580   2.038   8.746   2.237
73228SOL    HW121581   2.105   8.701   2.288
73228SOL    HW221582   1.977   8.780   2.302
73229SOL     OW21583  12.662  12.292  14.614
73229SOL    HW121584  12.599  12.339  14.669
73229SOL    HW221585  12.672  12.347  14.537
73230SOL     OW21586   6.864   5.100  11.460
73230SOL    HW121587   6.837   5.106  11.552
73230SOL    HW221588   6.849   5.188  11.426
73231SOL     OW21589  13.930   8.212  14.797
73231SOL    HW121590  14.021   8.238  14.786
73231SOL    HW221591  13.881   8.295  14.798
73232SOL     OW21592   9.294   5.139  11.839
73232SOL    HW121593   9.373   5.094  11.809
73232SOL    HW221594   9.298   5.225  11.797
73233SOL     OW21595  12.686  11.807   6.659
73233SOL    HW121596  12.644  11.759   6.587
73233SOL    HW221597  12.637  11.782   6.737
73234SOL     OW21598   6.929   4.378   8.889
73234SOL    HW121599   6.978   4.296   8.901
73234SOL    HW221600   6.873   4.361   8.813
73235SOL     OW21601   3.307   1.351   9.395
73235SOL    HW121602   3.390   1.315   9.429
73235SOL    HW221603   3.243   1.282   9.413
73236SOL     OW21604   5.210  12.383   1.773
73236SOL    HW121605   5.187  12.362   1.683
73236SOL    HW221606   5.303  12.408   1.769
73237SOL     OW21607   6.433  11.931   3.822
73237SOL    HW121608   6.344  11.944   3.854
73237SOL    HW221609   6.453  12.009   3.771
73238SOL     OW21610   5.362   6.671  11.871
73238SOL    HW121611   5.357   6.589  11.822
73238SOL    HW221612   5.415   6.650  11.948
73239SOL     OW21613   8.862   7.003  10.872
73239SOL    HW121614   8.840   6.939  10.939
73239SOL    HW221615   8.917   6.956  10.809
73240SOL     OW21616   6.311   1.533  11.086
73240SOL    HW121617   6.304   1.587  11.007
73240SOL    HW221618   6.248   1.462  11.073
73241SOL     OW21619  14.351  12.908   0.004
73241SOL    HW121620  14.430  12.920  14.834
73241SOL    HW221621  14.280  12.906  14.821
73242SOL     OW21622   7.007  10.802   6.624
73242SOL    HW121623   6.915  10.821   6.643
73242SOL    HW221624   7.005  10.761   6.538
73243SOL     OW21625  12.662   6.588   5.872
73243SOL    HW121626  12.593   6.522   5.880
73243SOL    HW221627  12.623   6.658   5.821
73244SOL     OW21628   6.509   4.923   1.139
73244SOL    HW121629   6.480   4.870   1.213
73244SOL    HW221630   6.460   5.005   1.147
73245SOL     OW21631   2.155   1.673   1.014
73245SOL    HW121632   2.083   1.690   0.953
73245SOL    HW221633   2.210   1.608   0.969
73246SOL     OW21634   9.856   6.642  10.062
73246SOL    HW121635   9.863   6.682   9.976
73246SOL    HW221636   9.877   6.550  10.048
73247SOL     OW21637   8.433   3.595   7.597
73247SOL    HW121638   8.415   3.648   7.675
73247SOL    HW221639   8.359   3.612   7.539
73248SOL     OW21640  13.074   7.921  12.441
73248SOL    HW121641  13.150   7.864  12.453
73248SOL    HW221642  13.109   8.010  12.443
73249SOL     OW21643   2.714  14.704   4.374
73249SOL    HW121644   2.716  14.676   4.465
73249SOL    HW221645   2.756  14.632   4.326
73250SOL     OW21646   5.617   7.873  14.274
73250SOL    HW121647   5.568   7.902  14.197
73250SOL    HW221648   5.554   7.822  14.325
73251SOL     OW21649  13.988   3.513   1.260
73251SOL    HW121650  14.007   3.597   1.303
73251SOL    HW221651  13.893   3.505   1.264
73252SOL     OW21652   1.364   8.064   9.922
73252SOL    HW121653   1.271   8.048   9.906
73252SOL    HW221654   1.409   7.991   9.880
73253SOL     OW21655   7.831  13.489   0.623
73253SOL    HW121656   7.901  13.494   0.558
73253SOL    HW221657   7.790  13.576   0.620
73254SOL     OW21658   7.066   9.372   5.061
73254SOL    HW121659   7.139   9.432   5.043
73254SOL    HW221660   7.107   9.286   5.068
73255SOL     OW21661   5.185   9.377  12.945
73255SOL    HW121662   5.214   9.468  12.933
73255SOL    HW221663   5.203   9.335  12.861
73256SOL     OW21664  12.665   0.634  13.621
73256SOL    HW121665  12.659   0.574  13.696
73256SOL    HW221666  12.758   0.634  13.598
73257SOL     OW21667   7.710  11.344   9.337
73257SOL    HW121668   7.687  11.358   9.246
73257SOL    HW221669   7.669  11.416   9.384
73258SOL     OW21670   7.528  13.135   3.929
73258SOL    HW121671   7.593  13.176   3.987
73258SOL    HW221672   7.512  13.049   3.968
73259SOL     OW21673   3.427   5.964  13.974
73259SOL    HW121674   3.472   5.959  14.058
73259SOL    HW221675   3.358   6.030  13.988
73260SOL     OW21676   2.750   3.377   6.132
73260SOL    HW121677   2.688   3.440   6.095
73260SOL    HW221678   2.836   3.408   6.104
73261SOL     OW21679   4.324   6.340   3.404
73261SOL    HW121680   4.295   6.418   3.357
73261SOL    HW221681   4.298   6.267   3.347
73262SOL     OW21682   4.448   7.806   0.885
73262SOL    HW121683   4.428   7.827   0.976
73262SOL    HW221684   4.371   7.760   0.853
73263SOL     OW21685   9.601   5.825  14.050
73263SOL    HW121686   9.556   5.905  14.026
73263SOL    HW221687   9.672   5.817  13.985
73264SOL     OW21688  11.981  11.001   1.518
73264SOL    HW121689  12.024  11.086   1.523
73264SOL    HW221690  12.050  10.941   1.488
73265SOL     OW21691   4.730   5.845  11.602
73265SOL    HW121692   4.701   5.795  11.679
73265SOL    HW221693   4.813   5.805  11.578
73266SOL     OW21694  13.578  14.206   5.182
73266SOL    HW121695  13.503  14.265   5.183
73266SOL    HW221696  13.549  14.132   5.128
73267SOL     OW21697   6.283   4.729   0.499
73267SOL    HW121698   6.340   4.696   0.568
73267SOL    HW221699   6.209   4.667   0.498
73268SOL     OW21700   1.363   1.759  11.981
73268SOL    HW121701   1.377   1.670  11.947
73268SOL    HW221702   1.431   1.812  11.938
73269SOL     OW21703  10.445  11.893   6.339
73269SOL    HW121704  10.412  11.955   6.275
73269SOL    HW221705  10.500  11.833   6.288
73270SOL     OW21706  12.151   4.777  14.841
73270SOL    HW121707  12.147   4.858   0.009
73270SOL    HW221708  12.217   4.794  14.773
73271SOL     OW21709  11.195   4.459   9.930
73271SOL    HW121710  11.193   4.501  10.016
73271SOL    HW221711  11.216   4.368   9.948
73272SOL     OW21712  14.670  10.405   1.127
73272SOL    HW121713  14.692  10.368   1.041
73272SOL    HW221714  14.743  10.379   1.183
73273SOL     OW21715   7.139   0.904   5.117
73273SOL    HW121716   7.135   0.808   5.116
73273SOL    HW221717   7.075   0.930   5.184
73274SOL     OW21718   1.512   9.847   5.888
73274SOL    HW121719   1.469   9.873   5.806
73274SOL    HW221720   1.500   9.752   5.892
73275SOL     OW21721  10.899  13.502  10.441
73275SOL    HW121722  10.865  13.479  10.527
73275SOL    HW221723  10.976  13.447  10.429
73276SOL     OW21724   8.963   2.544   8.245
73276SOL    HW121725   8.873   2.577   8.252
73276SOL    HW221726   8.961   2.457   8.285
73277SOL     OW21727  14.272   5.086   5.163
73277SOL    HW121728  14.190   5.091   5.213
73277SOL    HW221729  14.338   5.059   5.227
73278SOL     OW21730  12.939   7.902   5.411
73278SOL    HW121731  12.929   7.892   5.506
73278SOL    HW221732  13.032   7.921   5.398
73279SOL     OW21733   7.146   7.590   1.518
73279SOL    HW121734   7.156   7.655   1.448
73279SOL    HW221735   7.235   7.559   1.534
73280SOL     OW21736   0.701   7.786  14.698
73280SOL    HW121737   0.680   7.694  14.708
73280SOL    HW221738   0.618   7.828  14.674
73281SOL     OW21739   4.174   7.167   1.848
73281SOL    HW121740   4.145   7.160   1.757
73281SOL    HW221741   4.269   7.152   1.843
73282SOL     OW21742   5.839   6.947  12.326
73282SOL    HW121743   5.921   6.935  12.373
73282SOL    HW221744   5.862   7.002  12.251
73283SOL     OW21745   7.884  12.551   2.238
73283SOL    HW121746   7.954  12.493   2.267
73283SOL    HW221747   7.894  12.630   2.291
73284SOL     OW21748   8.956   2.746  10.226
73284SOL    HW121749   8.884   2.790  10.182
73284SOL    HW221750   8.943   2.767  10.319
73285SOL     OW21751   5.448  11.622  12.297
73285SOL    HW121752   5.537  11.591  12.279
73285SOL    HW221753   5.392  11.568  12.241
73286SOL     OW21754   4.185   1.329  14.841
73286SOL    HW121755   4.179   1.290  14.753
73286SOL    HW221756   4.278   1.348  14.853
73287SOL     OW21757   7.838   4.629   8.103
73287SOL    HW121758   7.804   4.641   8.014
73287SOL    HW221759   7.766   4.586   8.150
73288SOL     OW21760   1.497   5.193   1.098
73288SOL    HW121761   1.414   5.215   1.141
73288SOL    HW221762   1.542   5.277   1.090
73289SOL     OW21763   0.999  10.679  10.926
73289SOL    HW121764   0.922  10.703  10.979
73289SOL    HW221765   1.065  10.744  10.951
73290SOL     OW21766   9.331   4.550   0.384
73290SOL    HW121767   9.302   4.546   0.293
73290SOL    HW221768   9.417   4.508   0.384
73291SOL     OW21769  14.521   2.362   0.798
73291SOL    HW121770  14.613   2.340   0.813
73291SOL    HW221771  14.473   2.305   0.858
73292SOL     OW21772   9.732  13.523   8.308
73292SOL    HW121773   9.745  13.513   8.402
73292SOL    HW221774   9.730  13.434   8.274
73293SOL     OW21775  11.319  14.162   4.967
73293SOL    HW121776  11.363  14.243   4.994
73293SOL    HW221777  11.353  14.096   5.028
73294SOL     OW21778   3.561  13.482   5.588
73294SOL    HW121779   3.614  13.540   5.644
73294SOL    HW221780   3.623  13.415   5.558
73295SOL     OW21781  10.167   2.540   8.156
73295SOL    HW121782  10.252   2.521   8.196
73295SOL    HW221783  10.188   2.582   8.072
73296SOL     OW21784   5.415   2.046  12.806
73296SOL    HW121785   5.486   2.102  12.774
73296SOL    HW221786   5.351   2.108  12.842
73297SOL     OW21787  14.087   5.780  13.923
73297SOL    HW121788  14.092   5.867  13.883
73297SOL    HW221789  14.028   5.791  13.997
73298SOL     OW21790  13.454  14.618   1.904
73298SOL    HW121791  13.419  14.541   1.950
73298SOL    HW221792  13.429  14.604   1.813
73299SOL     OW21793   5.245  12.591   0.049
73299SOL    HW121794   5.311  12.657   0.072
73299SOL    HW221795   5.221  12.611  14.841
73300SOL     OW21796   1.247   6.327   8.003
73300SOL    HW121797   1.197   6.292   8.077
73300SOL    HW221798   1.308   6.257   7.979
73301SOL     OW21799   3.004   7.808   2.728
73301SOL    HW121800   2.932   7.767   2.776
73301SOL    HW221801   2.963   7.875   2.674
73302SOL     OW21802  13.459  11.039   3.959
73302SOL    HW121803  13.447  11.115   3.903
73302SOL    HW221804  13.543  11.053   4.002
73303SOL     OW21805   4.983  14.819  10.949
73303SOL    HW121806   5.004  14.731  10.917
73303SOL    HW221807   5.052  14.874  10.912
73304SOL     OW21808  14.708  14.177   5.319
73304SOL    HW121809  14.744  14.095   5.353
73304SOL    HW221810  14.693  14.231   5.397
73305SOL     OW21811  13.904   5.113   2.099
73305SOL    HW121812  13.880   5.055   2.171
73305SOL    HW221813  13.827   5.114   2.042
73306SOL     OW21814  14.630   6.768   4.468
73306SOL    HW121815  14.680   6.743   4.546
73306SOL    HW221816  14.660   6.857   4.448
73307SOL     OW21817  12.603  10.000  11.779
73307SOL    HW121818  12.670  10.068  11.788
73307SOL    HW221819  12.642   9.937  11.718
73308SOL     OW21820  11.463   4.750   5.552
73308SOL    HW121821  11.523   4.763   5.625
73308SOL    HW221822  11.504   4.798   5.480
73309SOL     OW21823   1.812  13.982   8.600
73309SOL    HW121824   1.814  14.073   8.571
73309SOL    HW221825   1.872  13.979   8.674
73310SOL     OW21826  14.732   4.418   2.620
73310SOL    HW121827  14.777   4.434   2.537
73310SOL    HW221828  14.647   4.461   2.611
73311SOL     OW21829  10.954   9.489   0.747
73311SOL    HW121830  10.891   9.560   0.735
73311SOL    HW221831  10.903   9.417   0.782
73312SOL     OW21832  13.358  14.330  10.010
73312SOL    HW121833  13.332  14.359  10.098
73312SOL    HW221834  13.341  14.236  10.010
73313SOL     OW21835  12.354   7.574   8.952
73313SOL    HW121836  12.383   7.503   9.011
73313SOL    HW221837  12.391   7.551   8.867
73314SOL     OW21838   0.396  12.272   6.414
73314SOL    HW121839   0.461  12.326   6.459
73314SOL    HW221840   0.447  12.201   6.375
73315SOL     OW21841   2.291   5.047  13.430
73315SOL    HW121842   2.228   5.016  13.495
73315SOL    HW221843   2.264   5.136  13.410
73316SOL     OW21844   7.468  11.834   1.626
73316SOL    HW121845   7.476  11.833   1.722
73316SOL    HW221846   7.468  11.741   1.602
73317SOL     OW21847   1.238   2.220   6.405
73317SOL    HW121848   1.164   2.162   6.388
73317SOL    HW221849   1.233   2.286   6.336
73318SOL     OW21850   1.063  12.930  11.643
73318SOL    HW121851   1.118  12.969  11.576
73318SOL    HW221852   0.978  12.917  11.600
73319SOL     OW21853   1.928  12.375  10.338
73319SOL    HW121854   1.981  12.453  10.323
73319SOL    HW221855   1.957  12.313  10.271
73320SOL     OW21856   8.524   9.153  11.466
73320SOL    HW121857   8.459   9.085  11.448
73320SOL    HW221858   8.485   9.206  11.536
73321SOL     OW21859   5.262  13.175  10.485
73321SOL    HW121860   5.339  13.130  10.450
73321SOL    HW221861   5.203  13.104  10.509
73322SOL     OW21862  14.575  12.724   9.272
73322SOL    HW121863  14.585  12.631   9.294
73322SOL    HW221864  14.526  12.760   9.346
73323SOL     OW21865   2.615   0.885  10.397
73323SOL    HW121866   2.674   0.814  10.424
73323SOL    HW221867   2.656   0.964  10.430
73324SOL     OW21868   7.744   5.855   7.758
73324SOL    HW121869   7.804   5.923   7.726
73324SOL    HW221870   7.801   5.780   7.776
73325SOL     OW21871   6.160  13.579   5.386
73325SOL    HW121872   6.121  13.662   5.359
73325SOL    HW221873   6.168  13.586   5.481
73326SOL     OW21874  12.738  11.603  11.200
73326SOL    HW121875  12.817  11.579  11.248
73326SOL    HW221876  12.708  11.684  11.242
73327SOL     OW21877  14.223   5.889  11.638
73327SOL    HW121878  14.280   5.943  11.693
73327SOL    HW221879  14.177   5.952  11.583
73328SOL     OW21880   8.317   3.176   5.361
73328SOL    HW121881   8.241   3.230   5.384
73328SOL    HW221882   8.281   3.106   5.306
73329SOL     OW21883  10.925   8.346   6.995
73329SOL    HW121884  11.005   8.398   6.991
73329SOL    HW221885  10.944   8.277   7.059
73330SOL     OW21886  12.116   4.046   1.409
73330SOL    HW121887  12.197   4.091   1.436
73330SOL    HW221888  12.122   3.961   1.452
73331SOL     OW21889  11.820  14.671   6.494
73331SOL    HW121890  11.755  14.630   6.437
73331SOL    HW221891  11.899  14.620   6.481
73332SOL     OW21892   5.367   2.863   3.419
73332SOL    HW121893   5.304   2.791   3.431
73332SOL    HW221894   5.446   2.833   3.463
73333SOL     OW21895   1.491   6.499   4.337
73333SOL    HW121896   1.411   6.551   4.327
73333SOL    HW221897   1.460   6.408   4.338
73334SOL     OW21898   2.883  10.282   7.503
73334SOL    HW121899   2.947  10.259   7.435
73334SOL    HW221900   2.812  10.324   7.455
73335SOL     OW21901   2.512   3.214   4.685
73335SOL    HW121902   2.459   3.148   4.731
73335SOL    HW221903   2.448   3.278   4.653
73336SOL     OW21904  14.373   7.100  10.039
73336SOL    HW121905  14.350   7.059  10.122
73336SOL    HW221906  14.407   7.028   9.986
73337SOL     OW21907   2.969   7.665   7.454
73337SOL    HW121908   2.992   7.589   7.509
73337SOL    HW221909   2.921   7.723   7.513
73338SOL     OW21910  13.801   9.548  13.433
73338SOL    HW121911  13.764   9.552  13.522
73338SOL    HW221912  13.795   9.638  13.401
73339SOL     OW21913  12.089   2.458  11.455
73339SOL    HW121914  12.087   2.478  11.361
73339SOL    HW221915  12.022   2.515  11.493
73340SOL     OW21916  11.205   0.052   7.285
73340SOL    HW121917  11.248  14.864   7.236
73340SOL    HW221918  11.216   0.027   7.377
73341SOL     OW21919   3.370   5.830   9.576
73341SOL    HW121920   3.356   5.830   9.670
73341SOL    HW221921   3.296   5.779   9.541
73342SOL     OW21922   9.516  10.893   6.266
73342SOL    HW121923   9.508  10.902   6.171
73342SOL    HW221924   9.426  10.877   6.296
73343SOL     OW21925  10.522   4.715   9.175
73343SOL    HW121926  10.528   4.692   9.268
73343SOL    HW221927  10.530   4.810   9.173
73344SOL     OW21928   9.634   4.622  14.246
73344SOL    HW121929   9.722   4.657  14.257
73344SOL    HW221930   9.607   4.652  14.159
73345SOL     OW21931  10.178   9.398   9.271
73345SOL    HW121932  10.168   9.492   9.286
73345SOL    HW221933  10.205   9.391   9.179
73346SOL     OW21934  14.235  13.200  13.553
73346SOL    HW121935  14.160  13.149  13.584
73346SOL    HW221936  14.209  13.228  13.464
73347SOL     OW21937   1.830   1.220   4.533
73347SOL    HW121938   1.785   1.276   4.469
73347SOL    HW221939   1.896   1.277   4.572
73348SOL     OW21940   4.936  10.567   3.237
73348SOL    HW121941   4.920  10.527   3.322
73348SOL    HW221942   4.908  10.658   3.248
73349SOL     OW21943   2.547   5.146   7.427
73349SOL    HW121944   2.642   5.141   7.433
73349SOL    HW221945   2.529   5.151   7.333
73350SOL     OW21946   3.035   9.182   7.837
73350SOL    HW121947   3.080   9.188   7.753
73350SOL    HW221948   3.103   9.199   7.902
73351SOL     OW21949   8.650   1.358  12.938
73351SOL    HW121950   8.688   1.271  12.939
73351SOL    HW221951   8.709   1.410  12.884
73352SOL     OW21952   3.681  12.138   7.125
73352SOL    HW121953   3.667  12.047   7.099
73352SOL    HW221954   3.757  12.134   7.184
73353SOL     OW21955   8.175   6.830   5.665
73353SOL    HW121956   8.173   6.880   5.746
73353SOL    HW221957   8.088   6.845   5.626
73354SOL     OW21958  11.392  14.803   1.113
73354SOL    HW121959  11.360   0.011   1.118
73354SOL    HW221960  11.327  14.758   1.059
73355SOL     OW21961  10.444   9.153   9.270
73355SOL    HW121962  10.448   9.088   9.199
73355SOL    HW221963  10.469   9.104   9.348
73356SOL     OW21964   7.451   9.766  14.797
73356SOL    HW121965   7.529   9.820  14.783
73356SOL    HW221966   7.478   9.701  14.861
73357SOL     OW21967   3.451   0.415   5.238
73357SOL    HW121968   3.408   0.484   5.289
73357SOL    HW221969   3.394   0.400   5.163
73358SOL     OW21970   6.189   2.310   2.461
73358SOL    HW121971   6.259   2.360   2.503
73358SOL    HW221972   6.167   2.359   2.383
73359SOL     OW21973   9.610   8.657  11.440
73359SOL    HW121974   9.572   8.619  11.360
73359SOL    HW221975   9.537   8.661  11.502
73360SOL     OW21976   7.752  13.260  12.391
73360SOL    HW121977   7.801  13.283  12.469
73360SOL    HW221978   7.738  13.342  12.345
73361SOL     OW21979   8.154   2.265  14.346
73361SOL    HW121980   8.119   2.304  14.266
73361SOL    HW221981   8.203   2.336  14.388
73362SOL     OW21982   5.226   2.410  11.096
73362SOL    HW121983   5.316   2.436  11.117
73362SOL    HW221984   5.216   2.431  11.003
73363SOL     OW21985  12.447   8.784   8.888
73363SOL    HW121986  12.454   8.694   8.921
73363SOL    HW221987  12.393   8.829   8.953
73364SOL     OW21988   1.985  11.637  13.428
73364SOL    HW121989   1.957  11.673  13.344
73364SOL    HW221990   1.943  11.551  13.432
73365SOL     OW21991  12.540   7.234   7.416
73365SOL    HW121992  12.569   7.203   7.501
73365SOL    HW221993  12.618   7.229   7.360
73366SOL     OW21994   6.116  13.529   3.375
73366SOL    HW121995   6.045  13.503   3.434
73366SOL    HW221996   6.077  13.592   3.315
73367SOL     OW21997  10.126  12.403   0.565
73367SOL    HW121998  10.069  12.352   0.509
73367SOL    HW221999  10.210  12.406   0.518
73368SOL     OW22000  11.107   1.709  12.763
73368SOL    HW122001  11.053   1.647  12.713
73368SOL    HW222002  11.195   1.696  12.727
73369SOL     OW22003   6.553   7.348  11.317
73369SOL    HW122004   6.588   7.385  11.237
73369SOL    HW222005   6.506   7.269  11.289
73370SOL     OW22006   4.928   4.548  13.807
73370SOL    HW122007   4.973   4.478  13.854
73370SOL    HW222008   4.998   4.604  13.775
73371SOL     OW22009  14.166   9.059  10.255
73371SOL    HW122010  14.112   9.009  10.316
73371SOL    HW222011  14.136   9.149  10.265
73372SOL     OW22012  11.932  11.961   3.669
73372SOL    HW122013  12.014  11.946   3.621
73372SOL    HW222014  11.932  12.054   3.687
73373SOL     OW22015   8.094   0.400  11.964
73373SOL    HW122016   8.112   0.325  11.907
73373SOL    HW222017   8.155   0.468  11.935
73374SOL     OW22018   2.948   7.217   4.217
73374SOL    HW122019   2.971   7.155   4.148
73374SOL    HW222020   2.935   7.163   4.295
73375SOL     OW22021  13.337  10.113  10.351
73375SOL    HW122022  13.397  10.044  10.380
73375SOL    HW222023  13.335  10.175  10.425
73376SOL     OW22024   3.510   1.419   6.208
73376SOL    HW122025   3.441   1.402   6.143
73376SOL    HW222026   3.565   1.341   6.205
73377SOL     OW22027  13.553   6.644  11.441
73377SOL    HW122028  13.472   6.622  11.394
73377SOL    HW222029  13.573   6.566  11.493
73378SOL     OW22030   1.590   8.400   7.206
73378SOL    HW122031   1.602   8.308   7.226
73378SOL    HW222032   1.665   8.423   7.151
73379SOL     OW22033   5.657   2.939   9.030
73379SOL    HW122034   5.737   2.929   9.082
73379SOL    HW222035   5.634   3.031   9.037
73380SOL     OW22036  14.758  11.553   8.470
73380SOL    HW122037  14.853  11.556   8.472
73380SOL    HW222038  14.733  11.497   8.544
73381SOL     OW22039  12.980  12.802   6.823
73381SOL    HW122040  12.978  12.882   6.875
73381SOL    HW222041  12.899  12.806   6.771
73382SOL     OW22042   5.894  11.013   0.560
73382SOL    HW122043   5.838  11.067   0.616
73382SOL    HW222044   5.965  11.071   0.533
73383SOL     OW22045  12.747   9.078   3.295
73383SOL    HW122046  12.692   9.151   3.268
73383SOL    HW222047  12.704   9.044   3.374
73384SOL     OW22048  10.238   4.124   4.010
73384SOL    HW122049  10.164   4.064   3.996
73384SOL    HW222050  10.220   4.165   4.094
73385SOL     OW22051   1.575   2.737  13.722
73385SOL    HW122052   1.558   2.810  13.781
73385SOL    HW222053   1.547   2.770  13.636
73386SOL     OW22054   5.305  10.339  10.054
73386SOL    HW122055   5.250  10.362   9.978
73386SOL    HW222056   5.388  10.310  10.016
73387SOL     OW22057   6.445   2.281  14.454
73387SOL    HW122058   6.370   2.226  14.475
73387SOL    HW222059   6.407   2.362  14.418
73388SOL     OW22060   2.453   1.745   3.571
73388SOL    HW122061   2.469   1.819   3.630
73388SOL    HW222062   2.525   1.684   3.590
73389SOL     OW22063   0.190   2.064   2.651
73389SOL    HW122064   0.195   2.140   2.593
73389SOL    HW222065   0.122   2.087   2.714
73390SOL     OW22066   3.194   1.789   5.758
73390SOL    HW122067   3.220   1.765   5.847
73390SOL    HW222068   3.227   1.878   5.746
73391SOL     OW22069   0.195   8.587  13.299
73391SOL    HW122070   0.116   8.535  13.314
73391SOL    HW222071   0.213   8.577  13.205
73392SOL     OW22072  12.130  13.320  13.532
73392SOL    HW122073  12.125  13.243  13.589
73392SOL    HW222074  12.223  13.328  13.511
73393SOL     OW22075   7.771   7.403   6.676
73393SOL    HW122076   7.726   7.354   6.745
73393SOL    HW222077   7.717   7.482   6.664
73394SOL     OW22078   2.253  11.879   9.527
73394SOL    HW122079   2.330  11.924   9.561
73394SOL    HW222080   2.216  11.834   9.603
73395SOL     OW22081  13.042   2.471  10.519
73395SOL    HW122082  13.114   2.462  10.582
73395SOL    HW222083  13.083   2.510  10.442
73396SOL     OW22084   1.425   1.797   4.339
73396SOL    HW122085   1.413   1.864   4.406
73396SOL    HW222086   1.343   1.799   4.289
73397SOL     OW22087  10.780  13.075   7.126
73397SOL    HW122088  10.691  13.087   7.091
73397SOL    HW222089  10.835  13.124   7.065
73398SOL     OW22090  13.055   4.904   3.077
73398SOL    HW122091  13.045   4.996   3.102
73398SOL    HW222092  13.127   4.872   3.131
73399SOL     OW22093   1.178   9.851   2.855
73399SOL    HW122094   1.091   9.814   2.867
73399SOL    HW222095   1.229   9.781   2.815
73400SOL     OW22096  14.838   3.188   7.258
73400SOL    HW122097  14.749   3.155   7.249
73400SOL    HW222098   0.003   3.117   7.302
73401SOL     OW22099   1.784   0.120  11.013
73401SOL    HW122100   1.867   0.152  11.047
73401SOL    HW222101   1.722   0.132  11.085
73402SOL     OW22102   0.800  11.506   3.036
73402SOL    HW122103   0.864  11.554   2.984
73402SOL    HW222104   0.851  11.473   3.110
73403SOL     OW22105   9.172  13.708  13.052
73403SOL    HW122106   9.251  13.754  13.023
73403SOL    HW222107   9.172  13.626  13.002
73404SOL     OW22108  10.942   4.482   6.705
73404SOL    HW122109  10.992   4.559   6.734
73404SOL    HW222110  10.904   4.508   6.621
73405SOL     OW22111   9.524   2.235  11.638
73405SOL    HW122112   9.524   2.149  11.597
73405SOL    HW222113   9.556   2.294  11.569
73406SOL     OW22114   2.860   7.230   9.928
73406SOL    HW122115   2.952   7.237   9.904
73406SOL    HW222116   2.814   7.284   9.863
73407SOL     OW22117   9.416  14.697   3.550
73407SOL    HW122118   9.456  14.783   3.563
73407SOL    HW222119   9.362  14.707   3.471
73408SOL     OW22120   4.377  14.454   9.933
73408SOL    HW122121   4.458  14.479   9.978
73408SOL    HW222122   4.362  14.524   9.870
73409SOL     OW22123   2.030   1.001   1.545
73409SOL    HW122124   1.984   0.923   1.514
73409SOL    HW222125   1.962   1.068   1.550
73410SOL     OW22126   5.148  10.881   5.607
73410SOL    HW122127   5.183  10.968   5.624
73410SOL    HW222128   5.075  10.871   5.669
73411SOL     OW22129   4.620   8.734   7.194
73411SOL    HW122130   4.624   8.829   7.201
73411SOL    HW222131   4.638   8.716   7.101
73412SOL     OW22132  10.945  10.060   3.451
73412SOL    HW122133  10.991   9.998   3.507
73412SOL    HW222134  10.889  10.109   3.511
73413SOL     OW22135  12.126  12.053  14.285
73413SOL    HW122136  12.195  11.987  14.276
73413SOL    HW222137  12.054  12.006  14.330
73414SOL     OW22138   6.320   4.371   4.194
73414SOL    HW122139   6.351   4.462   4.196
73414SOL    HW222140   6.226   4.378   4.211
73415SOL     OW22141   8.539   9.900   0.400
73415SOL    HW122142   8.547   9.952   0.320
73415SOL    HW222143   8.623   9.913   0.445
73416SOL     OW22144   9.544  10.747   9.833
73416SOL    HW122145   9.591  10.809   9.889
73416SOL    HW222146   9.492  10.694   9.895
73417SOL     OW22147  12.021  11.680   5.093
73417SOL    HW122148  12.060  11.608   5.143
73417SOL    HW222149  12.084  11.697   5.023
73418SOL     OW22150   7.177  14.688  10.181
73418SOL    HW122151   7.262  14.666  10.218
73418SOL    HW222152   7.153  14.770  10.224
73419SOL     OW22153  12.048  14.678  10.748
73419SOL    HW122154  12.010  14.719  10.826
73419SOL    HW222155  12.113  14.741  10.717
73420SOL     OW22156  13.850   8.973   0.562
73420SOL    HW122157  13.928   8.943   0.513
73420SOL    HW222158  13.820   9.050   0.514
73421SOL     OW22159   5.231  14.518   9.134
73421SOL    HW122160   5.263  14.540   9.046
73421SOL    HW222161   5.160  14.580   9.150
73422SOL     OW22162   7.420   9.559  13.931
73422SOL    HW122163   7.498   9.510  13.960
73422SOL    HW222164   7.351   9.492  13.926
73423SOL     OW22165   9.234  14.238   7.236
73423SOL    HW122166   9.318  14.260   7.194
73423SOL    HW222167   9.195  14.174   7.177
73424SOL     OW22168   2.605  13.021  10.883
73424SOL    HW122169   2.663  13.083  10.839
73424SOL    HW222170   2.539  12.998  10.817
73425SOL     OW22171   0.397   1.133   4.895
73425SOL    HW122172   0.412   1.216   4.940
73425SOL    HW222173   0.353   1.157   4.814
73426SOL     OW22174   6.981   6.116  11.870
73426SOL    HW122175   7.056   6.167  11.899
73426SOL    HW222176   6.916   6.182  11.844
73427SOL     OW22177  13.410  12.844   4.634
73427SOL    HW122178  13.504  12.840   4.656
73427SOL    HW222179  13.408  12.879   4.545
73428SOL     OW22180   0.695  11.837  14.148
73428SOL    HW122181   0.670  11.901  14.215
73428SOL    HW222182   0.619  11.833  14.090
73429SOL     OW22183   9.254  13.114  12.041
73429SOL    HW122184   9.234  13.197  12.085
73429SOL    HW222185   9.232  13.129  11.949
73430SOL     OW22186  13.759   5.419  10.110
73430SOL    HW122187  13.794   5.351  10.052
73430SOL    HW222188  13.834   5.444  10.164
73431SOL     OW22189   4.132  13.243  10.231
73431SOL    HW122190   4.201  13.210  10.173
73431SOL    HW222191   4.159  13.333  10.251
73432SOL     OW22192   0.201   6.569   2.604
73432SOL    HW122193   0.278   6.626   2.596
73432SOL    HW222194   0.186   6.562   2.698
73433SOL     OW22195  12.792   0.300   2.487
73433SOL    HW122196  12.725   0.232   2.477
73433SOL    HW222197  12.743   0.381   2.500
73434SOL     OW22198  12.991   2.496   9.787
73434SOL    HW122199  12.954   2.500   9.875
73434SOL    HW222200  13.072   2.548   9.792
73435SOL     OW22201   4.418   3.711  11.571
73435SOL    HW122202   4.399   3.795  11.531
73435SOL    HW222203   4.427   3.650  11.498
73436SOL     OW22204   2.637  14.625  14.322
73436SOL    HW122205   2.646  14.600  14.414
73436SOL    HW222206   2.639  14.543  14.274
73437SOL     OW22207   2.517  12.587  11.294
73437SOL    HW122208   2.512  12.520  11.226
73437SOL    HW222209   2.611  12.597  11.312
73438SOL     OW22210  11.543  14.242  10.319
73438SOL    HW122211  11.448  14.232  10.314
73438SOL    HW222212  11.557  14.292  10.399
73439SOL     OW22213   7.637   9.423   3.439
73439SOL    HW122214   7.582   9.406   3.362
73439SOL    HW222215   7.666   9.336   3.467
73440SOL     OW22216   8.019   5.961  11.345
73440SOL    HW122217   7.927   5.958  11.317
73440SOL    HW222218   8.019   6.021  11.419
73441SOL     OW22219   6.622   5.449  10.727
73441SOL    HW122220   6.627   5.365  10.771
73441SOL    HW222221   6.705   5.493  10.748
73442SOL     OW22222   4.515   8.520   1.910
73442SOL    HW122223   4.470   8.581   1.851
73442SOL    HW222224   4.543   8.574   1.984
73443SOL     OW22225  13.305   9.023   5.611
73443SOL    HW122226  13.313   8.947   5.552
73443SOL    HW222227  13.254   8.990   5.685
73444SOL     OW22228  13.054   6.907   8.889
73444SOL    HW122229  13.103   6.847   8.834
73444SOL    HW222230  13.036   6.982   8.833
73445SOL     OW22231   4.648  14.799  11.821
73445SOL    HW122232   4.722  14.855  11.797
73445SOL    HW222233   4.591  14.855  11.874
73446SOL     OW22234  14.015   0.520   1.369
73446SOL    HW122235  13.929   0.560   1.355
73446SOL    HW222236  13.996   0.435   1.409
73447SOL     OW22237   4.604  14.114   3.985
73447SOL    HW122238   4.601  14.019   3.976
73447SOL    HW222239   4.512  14.141   3.994
73448SOL     OW22240  14.639   2.590   2.922
73448SOL    HW122241  14.562   2.630   2.963
73448SOL    HW222242  14.710   2.609   2.983
73449SOL     OW22243   1.830  13.259  14.527
73449SOL    HW122244   1.782  13.342  14.536
73449SOL    HW222245   1.922  13.286  14.516
73450SOL     OW22246   4.114   0.184   6.671
73450SOL    HW122247   4.190   0.237   6.694
73450SOL    HW222248   4.052   0.199   6.743
73451SOL     OW22249   2.033   4.298  14.824
73451SOL    HW122250   2.031   4.385  14.865
73451SOL    HW222251   2.126   4.282  14.808
73452SOL     OW22252   2.013   3.906   3.840
73452SOL    HW122253   2.034   3.990   3.880
73452SOL    HW222254   1.965   3.928   3.760
73453SOL     OW22255   1.627   8.396   3.946
73453SOL    HW122256   1.622   8.319   4.003
73453SOL    HW222257   1.596   8.468   4.000
73454SOL     OW22258   5.988   5.971  14.458
73454SOL    HW122259   5.976   6.059  14.494
73454SOL    HW222260   5.928   5.916  14.509
73455SOL     OW22261   4.405   7.646   7.836
73455SOL    HW122262   4.400   7.682   7.924
73455SOL    HW222263   4.498   7.655   7.812
73456SOL     OW22264   5.010   1.108   8.105
73456SOL    HW122265   4.962   1.180   8.146
73456SOL    HW222266   5.097   1.145   8.088
73457SOL     OW22267  13.052  13.436  10.288
73457SOL    HW122268  13.085  13.433  10.378
73457SOL    HW222269  13.049  13.530  10.267
73458SOL     OW22270  12.114   8.164   3.943
73458SOL    HW122271  12.152   8.244   3.908
73458SOL    HW222272  12.124   8.172   4.038
73459SOL     OW22273   5.781   8.567   7.895
73459SOL    HW122274   5.781   8.563   7.800
73459SOL    HW222275   5.863   8.527   7.922
73460SOL     OW22276  12.015   2.726  11.927
73460SOL    HW122277  12.045   2.746  12.015
73460SOL    HW222278  12.081   2.665  11.893
73461SOL     OW22279   5.229   4.185  10.257
73461SOL    HW122280   5.140   4.181  10.223
73461SOL    HW222281   5.250   4.278  10.260
73462SOL     OW22282  12.368   3.469   2.220
73462SOL    HW122283  12.284   3.512   2.231
73462SOL    HW222284  12.356   3.383   2.260
73463SOL     OW22285   0.494   9.651   3.633
73463SOL    HW122286   0.560   9.592   3.597
73463SOL    HW222287   0.475   9.617   3.720
73464SOL     OW22288   7.461  13.909   7.239
73464SOL    HW122289   7.486  13.820   7.262
73464SOL    HW222290   7.366  13.906   7.229
73465SOL     OW22291  11.068   9.325   4.644
73465SOL    HW122292  11.083   9.274   4.723
73465SOL    HW222293  11.059   9.261   4.574
73466SOL     OW22294   5.185  10.724  14.510
73466SOL    HW122295   5.177  10.816  14.488
73466SOL    HW222296   5.198  10.724  14.605
73467SOL     OW22297   7.204  12.261  12.264
73467SOL    HW122298   7.214  12.251  12.359
73467SOL    HW222299   7.293  12.272  12.231
73468SOL     OW22300   6.741  13.429   5.758
73468SOL    HW122301   6.808  13.468   5.702
73468SOL    HW222302   6.692  13.504   5.793
73469SOL     OW22303   9.009   8.083  10.479
73469SOL    HW122304   9.047   8.012  10.530
73469SOL    HW222305   8.928   8.105  10.525
73470SOL     OW22306   2.171   0.013  11.536
73470SOL    HW122307   2.087  14.868  11.572
73470SOL    HW222308   2.177   0.106  11.556
73471SOL     OW22309   1.298  12.323   4.432
73471SOL    HW122310   1.386  12.344   4.403
73471SOL    HW222311   1.297  12.227   4.437
73472SOL     OW22312   1.219   9.301   4.487
73472SOL    HW122313   1.284   9.252   4.435
73472SOL    HW222314   1.136   9.257   4.468
73473SOL     OW22315   8.745   2.654  12.300
73473SOL    HW122316   8.667   2.692  12.342
73473SOL    HW222317   8.815   2.716  12.321
73474SOL     OW22318   2.883  11.130  12.571
73474SOL    HW122319   2.810  11.148  12.631
73474SOL    HW222320   2.960  11.167  12.614
73475SOL     OW22321  13.551   7.975   5.652
73475SOL    HW122322  13.537   7.881   5.666
73475SOL    HW222323  13.623   7.979   5.589
73476SOL     OW22324   1.929   8.311   0.175
73476SOL    HW122325   1.893   8.225   0.196
73476SOL    HW222326   1.896   8.368   0.245
73477SOL     OW22327   0.271   7.772   1.019
73477SOL    HW122328   0.243   7.696   1.070
73477SOL    HW222329   0.304   7.834   1.084
73478SOL     OW22330   2.171   3.935  12.512
73478SOL    HW122331   2.229   3.953  12.438
73478SOL    HW222332   2.226   3.948  12.589
73479SOL     OW22333   3.983  12.002   5.598
73479SOL    HW122334   3.905  11.994   5.542
73479SOL    HW222335   3.979  11.925   5.655
73480SOL     OW22336  13.604  12.310   4.972
73480SOL    HW122337  13.576  12.235   5.024
73480SOL    HW222338  13.696  12.323   4.996
73481SOL     OW22339   6.410   5.282   5.350
73481SOL    HW122340   6.498   5.268   5.315
73481SOL    HW222341   6.355   5.298   5.274
73482SOL     OW22342   0.429  11.160  14.056
73482SOL    HW122343   0.403  11.073  14.026
73482SOL    HW222344   0.355  11.217  14.031
73483SOL     OW22345  10.145   6.219   8.984
73483SOL    HW122346  10.192   6.185   8.909
73483SOL    HW222347  10.068   6.163   8.992
73484SOL     OW22348  11.521   6.556   3.713
73484SOL    HW122349  11.449   6.506   3.752
73484SOL    HW222350  11.597   6.533   3.767
73485SOL     OW22351   9.713  10.182  12.103
73485SOL    HW122352   9.646  10.247  12.086
73485SOL    HW222353   9.786  10.231  12.141
73486SOL     OW22354   2.078   6.538   5.477
73486SOL    HW122355   2.163   6.524   5.520
73486SOL    HW222356   2.090   6.619   5.428
73487SOL     OW22357  13.158   2.076  14.260
73487SOL    HW122358  13.163   1.983  14.239
73487SOL    HW222359  13.068   2.089  14.290
73488SOL     OW22360  12.334   0.230   6.050
73488SOL    HW122361  12.344   0.320   6.081
73488SOL    HW222362  12.414   0.186   6.079
73489SOL     OW22363   6.557   1.578   9.216
73489SOL    HW122364   6.608   1.498   9.232
73489SOL    HW222365   6.537   1.611   9.303
73490SOL     OW22366  12.451  13.183  12.068
73490SOL    HW122367  12.485  13.100  12.103
73490SOL    HW222368  12.378  13.156  12.013
73491SOL     OW22369   5.759   3.452  14.578
73491SOL    HW122370   5.840   3.405  14.556
73491SOL    HW222371   5.701   3.435  14.503
73492SOL     OW22372  12.549   7.683   8.308
73492SOL    HW122373  12.552   7.616   8.240
73492SOL    HW222374  12.633   7.729   8.300
73493SOL     OW22375   1.177   2.269  11.112
73493SOL    HW122376   1.161   2.218  11.192
73493SOL    HW222377   1.092   2.270  11.067
73494SOL     OW22378  10.449  10.231   2.759
73494SOL    HW122379  10.529  10.261   2.802
73494SOL    HW222380  10.394  10.200   2.830
73495SOL     OW22381  12.790   7.166  14.565
73495SOL    HW122382  12.715   7.115  14.532
73495SOL    HW222383  12.849   7.100  14.601
73496SOL     OW22384   2.933   5.872   5.811
73496SOL    HW122385   3.025   5.849   5.796
73496SOL    HW222386   2.884   5.804   5.764
73497SOL     OW22387   9.021  11.112  10.846
73497SOL    HW122388   9.091  11.054  10.817
73497SOL    HW222389   8.944  11.084  10.797
73498SOL     OW22390   4.536  14.361   3.371
73498SOL    HW122391   4.464  14.302   3.351
73498SOL    HW222392   4.500  14.421   3.436
73499SOL     OW22393   7.037   6.414   5.261
73499SOL    HW122394   7.105   6.468   5.300
73499SOL    HW222395   6.978   6.393   5.333
73500SOL     OW22396   3.730   0.592   1.544
73500SOL    HW122397   3.811   0.550   1.573
73500SOL    HW222398   3.760   0.674   1.503
73501SOL     OW22399  14.519   0.236   9.657
73501SOL    HW122400  14.504   0.217   9.750
73501SOL    HW222401  14.465   0.313   9.639
73502SOL     OW22402  12.865  11.572   4.288
73502SOL    HW122403  12.839  11.659   4.259
73502SOL    HW222404  12.802  11.513   4.247
73503SOL     OW22405   8.445  14.436   0.304
73503SOL    HW122406   8.491  14.512   0.339
73503SOL    HW222407   8.513  14.370   0.293
73504SOL     OW22408   5.538  14.817  14.323
73504SOL    HW122409   5.565  14.726  14.315
73504SOL    HW222410   5.567  14.858  14.242
73505SOL     OW22411   0.923   1.282  11.131
73505SOL    HW122412   0.964   1.340  11.066
73505SOL    HW222413   0.965   1.306  11.213
73506SOL     OW22414  14.198  11.182   2.788
73506SOL    HW122415  14.236  11.268   2.806
73506SOL    HW222416  14.120  11.178   2.842
73507SOL     OW22417  11.324  11.838   3.119
73507SOL    HW122418  11.401  11.781   3.114
73507SOL    HW222419  11.267  11.809   3.048
73508SOL     OW22420   3.534   6.228   8.948
73508SOL    HW122421   3.521   6.216   9.042
73508SOL    HW222422   3.586   6.308   8.942
73509SOL     OW22423   9.229   1.054   2.826
73509SOL    HW122424   9.230   1.144   2.792
73509SOL    HW222425   9.149   1.050   2.879
73510SOL     OW22426  14.522  13.332   5.472
73510SOL    HW122427  14.441  13.353   5.519
73510SOL    HW222428  14.511  13.240   5.448
73511SOL     OW22429   2.643   2.122  11.745
73511SOL    HW122430   2.592   2.072  11.808
73511SOL    HW222431   2.706   2.171  11.798
73512SOL     OW22432   7.035  14.613   5.599
73512SOL    HW122433   7.124  14.617   5.635
73512SOL    HW222434   7.005  14.524   5.618
73513SOL     OW22435   4.015   8.877  13.590
73513SOL    HW122436   4.105   8.902  13.568
73513SOL    HW222437   3.966   8.889  13.509
73514SOL     OW22438  14.743   5.172   9.603
73514SOL    HW122439  14.810   5.230   9.642
73514SOL    HW222440  14.786   5.087   9.598
73515SOL     OW22441   3.019  11.522  10.292
73515SOL    HW122442   3.014  11.428  10.313
73515SOL    HW222443   2.985  11.565  10.371
73516SOL     OW22444  12.222  12.226   3.503
73516SOL    HW122445  12.144  12.279   3.519
73516SOL    HW222446  12.188  12.142   3.472
73517SOL     OW22447   2.689   4.584   9.794
73517SOL    HW122448   2.690   4.489   9.799
73517SOL    HW222449   2.601   4.609   9.820
73518SOL     OW22450   2.976   8.127  11.950
73518SOL    HW122451   2.976   8.066  12.023
73518SOL    HW222452   2.924   8.201  11.980
73519SOL     OW22453   8.587  12.045   1.594
73519SOL    HW122454   8.565  12.138   1.590
73519SOL    HW222455   8.577  12.023   1.687
73520SOL     OW22456  12.405  13.095   0.812
73520SOL    HW122457  12.483  13.106   0.757
73520SOL    HW222458  12.378  13.185   0.832
73521SOL     OW22459   2.276  11.139  13.783
73521SOL    HW122460   2.276  11.213  13.723
73521SOL    HW222461   2.228  11.070  13.738
73522SOL     OW22462   1.058   1.177   3.358
73522SOL    HW122463   0.967   1.204   3.346
73522SOL    HW222464   1.054   1.100   3.414
73523SOL     OW22465   2.898  12.549  14.782
73523SOL    HW122466   2.966  12.517  14.723
73523SOL    HW222467   2.911  12.643  14.785
73524SOL     OW22468   6.541  13.400   8.905
73524SOL    HW122469   6.495  13.480   8.882
73524SOL    HW222470   6.542  13.400   9.001
73525SOL     OW22471   8.088   6.813  13.649
73525SOL    HW122472   8.095   6.762  13.568
73525SOL    HW222473   8.141   6.891  13.632
73526SOL     OW22474   8.448   1.955  11.461
73526SOL    HW122475   8.366   1.935  11.414
73526SOL    HW222476   8.444   1.901  11.540
73527SOL     OW22477   5.162   2.631   9.005
73527SOL    HW122478   5.241   2.683   8.996
73527SOL    HW222479   5.090   2.693   8.992
73528SOL     OW22480  10.463  12.320  13.049
73528SOL    HW122481  10.497  12.336  12.961
73528SOL    HW222482  10.412  12.398  13.070
73529SOL     OW22483  12.317   6.842  14.250
73529SOL    HW122484  12.315   6.916  14.310
73529SOL    HW222485  12.320   6.882  14.163
73530SOL     OW22486   0.228   6.492   7.678
73530SOL    HW122487   0.264   6.426   7.737
73530SOL    HW222488   0.266   6.470   7.592
73531SOL     OW22489  13.961   3.458   0.571
73531SOL    HW122490  13.964   3.393   0.501
73531SOL    HW222491  14.026   3.523   0.545
73532SOL     OW22492   0.644   0.582  13.242
73532SOL    HW122493   0.639   0.560  13.149
73532SOL    HW222494   0.589   0.516  13.285
73533SOL     OW22495   0.678   6.364   6.083
73533SOL    HW122496   0.714   6.302   6.147
73533SOL    HW222497   0.658   6.442   6.133
73534SOL     OW22498   2.372   4.742   4.712
73534SOL    HW122499   2.400   4.714   4.799
73534SOL    HW222500   2.280   4.766   4.722
73535SOL     OW22501   2.445   6.694   7.337
73535SOL    HW122502   2.515   6.704   7.273
73535SOL    HW222503   2.365   6.686   7.285
73536SOL     OW22504   9.252  11.397   4.489
73536SOL    HW122505   9.334  11.376   4.533
73536SOL    HW222506   9.188  11.408   4.559
73537SOL     OW22507  11.629  11.884   7.303
73537SOL    HW122508  11.696  11.914   7.242
73537SOL    HW222509  11.546  11.902   7.259
73538SOL     OW22510   5.434   1.354   4.391
73538SOL    HW122511   5.491   1.314   4.325
73538SOL    HW222512   5.441   1.296   4.467
73539SOL     OW22513  10.936  14.457  13.629
73539SOL    HW122514  10.926  14.498  13.542
73539SOL    HW222515  11.002  14.389  13.615
73540SOL     OW22516  12.148   5.926  10.180
73540SOL    HW122517  12.141   5.938  10.085
73540SOL    HW222518  12.231   5.881  10.192
73541SOL     OW22519   8.758   3.881   7.589
73541SOL    HW122520   8.783   3.942   7.520
73541SOL    HW222521   8.687   3.925   7.635
73542SOL     OW22522   5.537   3.335  10.494
73542SOL    HW122523   5.580   3.400  10.438
73542SOL    HW222524   5.548   3.252  10.449
73543SOL     OW22525   9.272   3.474  14.277
73543SOL    HW122526   9.281   3.469  14.182
73543SOL    HW222527   9.246   3.564  14.294
73544SOL     OW22528  11.373  11.224  12.489
73544SOL    HW122529  11.293  11.174  12.503
73544SOL    HW222530  11.416  11.180  12.416
73545SOL     OW22531   7.814   3.637  13.640
73545SOL    HW122532   7.859   3.693  13.577
73545SOL    HW222533   7.884   3.599  13.693
73546SOL     OW22534   0.518   7.759   0.908
73546SOL    HW122535   0.424   7.745   0.899
73546SOL    HW222536   0.526   7.851   0.934
73547SOL     OW22537  13.827  10.107   5.600
73547SOL    HW122538  13.830  10.044   5.672
73547SOL    HW222539  13.872  10.063   5.528
73548SOL     OW22540  14.240   2.844  12.762
73548SOL    HW122541  14.333   2.857  12.780
73548SOL    HW222542  14.219   2.758  12.798
73549SOL     OW22543   8.026   8.318   4.115
73549SOL    HW122544   8.067   8.235   4.141
73549SOL    HW222545   8.096   8.383   4.124
73550SOL     OW22546  13.278   5.956   1.696
73550SOL    HW122547  13.228   5.896   1.752
73550SOL    HW222548  13.278   5.914   1.610
73551SOL     OW22549   7.426   0.203  12.405
73551SOL    HW122550   7.351   0.211  12.464
73551SOL    HW222551   7.410   0.122  12.356
73552SOL     OW22552   4.200  13.619   3.095
73552SOL    HW122553   4.209  13.640   3.188
73552SOL    HW222554   4.287  13.635   3.059
73553SOL     OW22555   7.502   4.063   5.099
73553SOL    HW122556   7.483   4.059   5.006
73553SOL    HW222557   7.581   4.010   5.109
73554SOL     OW22558  10.639   5.257   1.053
73554SOL    HW122559  10.645   5.348   1.024
73554SOL    HW222560  10.683   5.255   1.138
73555SOL     OW22561  12.175   2.585   1.096
73555SOL    HW122562  12.098   2.535   1.123
73555SOL    HW222563  12.141   2.649   1.033
73556SOL     OW22564  14.468   6.473   5.757
73556SOL    HW122565  14.539   6.436   5.704
73556SOL    HW222566  14.481   6.437   5.844
73557SOL     OW22567  12.681  10.060   3.177
73557SOL    HW122568  12.730  10.134   3.141
73557SOL    HW222569  12.589  10.086   3.170
73558SOL     OW22570  13.164   1.040   4.644
73558SOL    HW122571  13.121   1.100   4.705
73558SOL    HW222572  13.215   0.981   4.701
73559SOL     OW22573  11.757   1.217   2.626
73559SOL    HW122574  11.736   1.215   2.533
73559SOL    HW222575  11.820   1.145   2.638
73560SOL     OW22576   9.888   1.624  11.879
73560SOL    HW122577   9.983   1.631  11.871
73560SOL    HW222578   9.873   1.540  11.920
73561SOL     OW22579   1.068  10.183   4.195
73561SOL    HW122580   1.012  10.132   4.253
73561SOL    HW222581   1.147  10.130   4.183
73562SOL     OW22582   2.654  10.194   2.389
73562SOL    HW122583   2.679  10.120   2.333
73562SOL    HW222584   2.584  10.159   2.444
73563SOL     OW22585   9.540   1.871   8.572
73563SOL    HW122586   9.472   1.915   8.623
73563SOL    HW222587   9.536   1.912   8.486
73564SOL     OW22588   7.671   7.678   0.173
73564SOL    HW122589   7.709   7.593   0.192
73564SOL    HW222590   7.585   7.677   0.216
73565SOL     OW22591   9.303  14.851  11.381
73565SOL    HW122592   9.318   0.062  11.394
73565SOL    HW222593   9.264  14.845  11.294
73566SOL     OW22594   8.432  13.459   8.047
73566SOL    HW122595   8.499  13.453   8.115
73566SOL    HW222596   8.480  13.488   7.969
73567SOL     OW22597   5.188   1.924   8.466
73567SOL    HW122598   5.269   1.973   8.454
73567SOL    HW222599   5.143   1.969   8.538
73568SOL     OW22600   5.168  13.631   7.200
73568SOL    HW122601   5.175  13.668   7.112
73568SOL    HW222602   5.252  13.653   7.242
73569SOL     OW22603   6.016   3.365   3.758
73569SOL    HW122604   6.046   3.423   3.828
73569SOL    HW222605   6.097   3.335   3.717
73570SOL     OW22606   3.773   1.299   3.278
73570SOL    HW122607   3.755   1.243   3.353
73570SOL    HW222608   3.806   1.240   3.211
73571SOL     OW22609  13.567   3.913  12.541
73571SOL    HW122610  13.495   3.853  12.523
73571SOL    HW222611  13.527   3.986  12.588
73572SOL     OW22612  10.190  11.052  11.335
73572SOL    HW122613  10.121  11.055  11.268
73572SOL    HW222614  10.210  11.143  11.353
73573SOL     OW22615   4.087   2.645   3.655
73573SOL    HW122616   4.061   2.556   3.679
73573SOL    HW222617   4.182   2.646   3.667
73574SOL     OW22618  14.693   6.283  10.001
73574SOL    HW122619  14.727   6.261   9.914
73574SOL    HW222620  14.771   6.286  10.057
73575SOL     OW22621  12.906   7.965  10.792
73575SOL    HW122622  12.813   7.985  10.781
73575SOL    HW222623  12.907   7.872  10.815
73576SOL     OW22624   2.578   9.574   4.100
73576SOL    HW122625   2.606   9.578   4.192
73576SOL    HW222626   2.579   9.665   4.071
73577SOL     OW22627  14.697   6.203   0.930
73577SOL    HW122628  14.685   6.188   1.023
73577SOL    HW222629  14.650   6.131   0.888
73578SOL     OW22630  12.743   1.719   2.504
73578SOL    HW122631  12.797   1.641   2.508
73578SOL    HW222632  12.791   1.778   2.445
73579SOL     OW22633  11.492  12.895   0.817
73579SOL    HW122634  11.540  12.951   0.757
73579SOL    HW222635  11.481  12.813   0.769
73580SOL     OW22636   1.237   8.478   9.227
73580SOL    HW122637   1.183   8.556   9.224
73580SOL    HW222638   1.325   8.510   9.250
73581SOL     OW22639  11.601   3.813   3.850
73581SOL    HW122640  11.628   3.818   3.758
73581SOL    HW222641  11.536   3.743   3.852
73582SOL     OW22642   3.952  12.185   1.780
73582SOL    HW122643   3.887  12.255   1.771
73582SOL    HW222644   4.017  12.220   1.841
73583SOL     OW22645  12.330  12.449   6.271
73583SOL    HW122646  12.422  12.464   6.292
73583SOL    HW222647  12.317  12.355   6.283
73584SOL     OW22648  11.402   4.750   7.427
73584SOL    HW122649  11.452   4.760   7.345
73584SOL    HW222650  11.430   4.665   7.461
73585SOL     OW22651  14.807   2.849   7.873
73585SOL    HW122652  14.861   2.830   7.950
73585SOL    HW222653  14.718   2.857   7.906
73586SOL     OW22654   9.823   4.841   5.574
73586SOL    HW122655   9.783   4.837   5.488
73586SOL    HW222656   9.821   4.751   5.606
73587SOL     OW22657   5.837   1.954  10.411
73587SOL    HW122658   5.762   1.899  10.388
73587SOL    HW222659   5.798   2.037  10.441
73588SOL     OW22660  10.562   3.498   4.631
73588SOL    HW122661  10.570   3.593   4.632
73588SOL    HW222662  10.633   3.468   4.575
73589SOL     OW22663   9.425   7.522  12.181
73589SOL    HW122664   9.431   7.450  12.243
73589SOL    HW222665   9.484   7.497  12.110
73590SOL     OW22666  11.513   5.625   5.711
73590SOL    HW122667  11.472   5.678   5.642
73590SOL    HW222668  11.605   5.651   5.710
73591SOL     OW22669  13.108   4.984   7.937
73591SOL    HW122670  13.055   4.951   8.009
73591SOL    HW222671  13.136   5.071   7.966
73592SOL     OW22672   4.297   9.253   7.396
73592SOL    HW122673   4.203   9.268   7.395
73592SOL    HW222674   4.311   9.183   7.333
73593SOL     OW22675  13.900  10.845   8.497
73593SOL    HW122676  13.812  10.875   8.520
73593SOL    HW222677  13.955  10.875   8.570
73594SOL     OW22678   4.414  12.127   9.149
73594SOL    HW122679   4.345  12.107   9.212
73594SOL    HW222680   4.472  12.051   9.151
73595SOL     OW22681   9.286   2.513   0.045
73595SOL    HW122682   9.206   2.461   0.057
73595SOL    HW222683   9.345   2.482   0.114
73596SOL     OW22684   0.601   3.603  10.127
73596SOL    HW122685   0.540   3.676  10.135
73596SOL    HW222686   0.687   3.644  10.121
73597SOL     OW22687   3.407   3.381  11.314
73597SOL    HW122688   3.472   3.331  11.265
73597SOL    HW222689   3.366   3.317  11.372
73598SOL     OW22690   4.638   4.942   1.300
73598SOL    HW122691   4.561   4.898   1.264
73598SOL    HW222692   4.706   4.931   1.233
73599SOL     OW22693   0.898   1.650   6.810
73599SOL    HW122694   0.915   1.558   6.788
73599SOL    HW222695   0.957   1.670   6.882
73600SOL     OW22696  11.539  13.025  11.260
73600SOL    HW122697  11.521  13.118  11.249
73600SOL    HW222698  11.633  13.019  11.274
73601SOL     OW22699  14.223   2.451   6.325
73601SOL    HW122700  14.216   2.546   6.330
73601SOL    HW222701  14.301   2.430   6.376
73602SOL     OW22702  12.249   3.108   5.477
73602SOL    HW122703  12.176   3.156   5.517
73602SOL    HW222704  12.312   3.176   5.454
73603SOL     OW22705  10.854   7.249   1.199
73603SOL    HW122706  10.812   7.309   1.138
73603SOL    HW222707  10.822   7.162   1.175
73604SOL     OW22708   1.337   6.788   3.986
73604SOL    HW122709   1.242   6.800   3.978
73604SOL    HW222710   1.354   6.796   4.080
73605SOL     OW22711  10.018   7.754  13.519
73605SOL    HW122712   9.994   7.783  13.607
73605SOL    HW222713  10.081   7.819  13.488
73606SOL     OW22714   2.288   9.230   3.032
73606SOL    HW122715   2.376   9.199   3.011
73606SOL    HW222716   2.282   9.221   3.127
73607SOL     OW22717   5.063   5.269  10.462
73607SOL    HW122718   5.013   5.316  10.529
73607SOL    HW222719   5.139   5.324  10.445
73608SOL     OW22720  10.976   2.103  11.020
73608SOL    HW122721  10.896   2.064  11.056
73608SOL    HW222722  11.047   2.060  11.068
73609SOL     OW22723  11.197   3.433   1.192
73609SOL    HW122724  11.111   3.423   1.232
73609SOL    HW222725  11.190   3.513   1.140
73610SOL     OW22726  12.800  14.638  12.078
73610SOL    HW122727  12.736  14.672  12.141
73610SOL    HW222728  12.854  14.578  12.129
73611SOL     OW22729   9.331  14.751   6.573
73611SOL    HW122730   9.416  14.789   6.550
73611SOL    HW222731   9.353  14.670   6.619
73612SOL     OW22732   2.043   2.948   3.320
73612SOL    HW122733   2.098   2.954   3.398
73612SOL    HW222734   2.102   2.964   3.247
73613SOL     OW22735  12.375   1.587  11.730
73613SOL    HW122736  12.438   1.628  11.789
73613SOL    HW222737  12.414   1.595  11.644
73614SOL     OW22738   5.142   5.690   4.631
73614SOL    HW122739   5.059   5.659   4.596
73614SOL    HW222740   5.206   5.671   4.563
73615SOL     OW22741   2.658  12.300   1.194
73615SOL    HW122742   2.642  12.235   1.263
73615SOL    HW222743   2.695  12.375   1.240
73616SOL     OW22744   5.026   0.788   6.940
73616SOL    HW122745   5.073   0.729   6.881
73616SOL    HW222746   4.946   0.811   6.892
73617SOL     OW22747   6.193  12.405   5.245
73617SOL    HW122748   6.098  12.405   5.235
73617SOL    HW222749   6.218  12.313   5.247
73618SOL     OW22750  14.122   5.233  14.029
73618SOL    HW122751  14.039   5.228  13.982
73618SOL    HW222752  14.145   5.326  14.027
73619SOL     OW22753   4.230   0.624   5.562
73619SOL    HW122754   4.305   0.656   5.511
73619SOL    HW222755   4.171   0.700   5.566
73620SOL     OW22756  14.005   9.596   9.190
73620SOL    HW122757  14.042   9.683   9.202
73620SOL    HW222758  13.957   9.578   9.271
73621SOL     OW22759  13.096   4.428   5.761
73621SOL    HW122760  13.097   4.481   5.840
73621SOL    HW222761  13.080   4.491   5.690
73622SOL     OW22762   0.072   0.095   2.926
73622SOL    HW122763   0.007   0.152   2.885
73622SOL    HW222764   0.146   0.096   2.866
73623SOL     OW22765   0.340  14.000   0.227
73623SOL    HW122766   0.366  13.992   0.319
73623SOL    HW222767   0.354  14.093   0.206
73624SOL     OW22768   0.020  13.153   2.681
73624SOL    HW122769   0.012  13.066   2.642
73624SOL    HW222770   0.033  13.212   2.606
73625SOL     OW22771   6.151  11.137  14.517
73625SOL    HW122772   6.090  11.203  14.548
73625SOL    HW222773   6.096  11.071  14.476
73626SOL     OW22774  12.668   5.471   4.967
73626SOL    HW122775  12.594   5.510   5.014
73626SOL    HW222776  12.742   5.482   5.027
73627SOL     OW22777   5.588   9.444   6.907
73627SOL    HW122778   5.641   9.418   6.982
73627SOL    HW222779   5.536   9.518   6.938
73628SOL     OW22780  11.393   9.849   6.456
73628SOL    HW122781  11.350   9.764   6.469
73628SOL    HW222782  11.325   9.913   6.478
73629SOL     OW22783  10.664   3.194  14.305
73629SOL    HW122784  10.717   3.268  14.277
73629SOL    HW222785  10.726   3.133  14.345
73630SOL     OW22786   2.509   9.635  12.466
73630SOL    HW122787   2.436   9.682  12.506
73630SOL    HW222788   2.485   9.627  12.374
73631SOL     OW22789  11.726   9.116   0.126
73631SOL    HW122790  11.725   9.210   0.145
73631SOL    HW222791  11.650   9.082   0.172
73632SOL     OW22792   8.001   1.383   8.744
73632SOL    HW122793   8.059   1.411   8.815
73632SOL    HW222794   7.938   1.455   8.735
73633SOL     OW22795  10.619   9.427   7.063
73633SOL    HW122796  10.681   9.412   7.135
73633SOL    HW222797  10.535   9.396   7.097
73634SOL     OW22798   4.231   6.959  11.722
73634SOL    HW122799   4.270   6.902  11.656
73634SOL    HW222800   4.260   7.047  11.698
73635SOL     OW22801   3.514   4.727   7.309
73635SOL    HW122802   3.587   4.681   7.268
73635SOL    HW222803   3.452   4.658   7.331
73636SOL     OW22804  11.921   8.678   0.562
73636SOL    HW122805  11.867   8.753   0.585
73636SOL    HW222806  11.967   8.656   0.643
73637SOL     OW22807   0.460   6.909   1.985
73637SOL    HW122808   0.381   6.874   1.944
73637SOL    HW222809   0.474   6.993   1.942
73638SOL     OW22810   0.696   8.279   1.041
73638SOL    HW122811   0.704   8.243   1.129
73638SOL    HW222812   0.660   8.208   0.989
73639SOL     OW22813   9.153   4.320  11.876
73639SOL    HW122814   9.188   4.274  11.800
73639SOL    HW222815   9.093   4.258  11.917
73640SOL     OW22816   1.088   8.908  14.645
73640SOL    HW122817   1.174   8.928  14.608
73640SOL    HW222818   1.074   8.977  14.710
73641SOL     OW22819   2.498   4.249   1.141
73641SOL    HW122820   2.533   4.264   1.054
73641SOL    HW222821   2.575   4.249   1.198
73642SOL     OW22822  12.928   5.461   9.699
73642SOL    HW122823  12.918   5.375   9.739
73642SOL    HW222824  12.951   5.443   9.608
73643SOL     OW22825  13.239   9.153  10.072
73643SOL    HW122826  13.312   9.136  10.012
73643SOL    HW222827  13.277   9.208  10.141
73644SOL     OW22828   8.395   1.369   3.520
73644SOL    HW122829   8.326   1.432   3.501
73644SOL    HW222830   8.368   1.326   3.601
73645SOL     OW22831  11.656   9.674   4.081
73645SOL    HW122832  11.721   9.702   4.145
73645SOL    HW222833  11.580   9.731   4.096
73646SOL     OW22834   0.146   4.268   5.365
73646SOL    HW122835   0.188   4.211   5.430
73646SOL    HW222836   0.215   4.289   5.303
73647SOL     OW22837   6.247   0.807   2.747
73647SOL    HW122838   6.196   0.807   2.828
73647SOL    HW222839   6.183   0.791   2.678
73648SOL     OW22840   4.645   0.406   2.607
73648SOL    HW122841   4.702   0.347   2.558
73648SOL    HW222842   4.639   0.485   2.553
73649SOL     OW22843   3.171   8.670  11.014
73649SOL    HW122844   3.181   8.749  11.067
73649SOL    HW222845   3.087   8.682  10.969
73650SOL     OW22846  12.279   6.058   7.657
73650SOL    HW122847  12.201   6.069   7.603
73650SOL    HW222848  12.342   6.015   7.599
73651SOL     OW22849   6.435   0.049  13.497
73651SOL    HW122850   6.358   0.074  13.446
73651SOL    HW222851   6.508   0.090  13.451
73652SOL     OW22852   0.038   7.261   9.945
73652SOL    HW122853  14.872   7.302  10.017
73652SOL    HW222854   0.105   7.326   9.922
73653SOL     OW22855   7.204   0.534   8.918
73653SOL    HW122856   7.263   0.466   8.951
73653SOL    HW222857   7.224   0.610   8.973
73654SOL     OW22858   1.564  12.583  14.748
73654SOL    HW122859   1.644  12.565  14.796
73654SOL    HW222860   1.591  12.638  14.674
73655SOL     OW22861  14.398   7.648   3.595
73655SOL    HW122862  14.471   7.679   3.649
73655SOL    HW222863  14.322   7.695   3.629
73656SOL     OW22864   2.216   5.574   3.065
73656SOL    HW122865   2.181   5.603   3.149
73656SOL    HW222866   2.269   5.497   3.086
73657SOL     OW22867   2.467  14.171  13.083
73657SOL    HW122868   2.468  14.170  13.179
73657SOL    HW222869   2.538  14.231  13.060
73658SOL     OW22870   4.984   7.683  11.147
73658SOL    HW122871   5.068   7.709  11.110
73658SOL    HW222872   4.934   7.651  11.072
73659SOL     OW22873  14.337  10.987  11.111
73659SOL    HW122874  14.299  11.068  11.078
73659SOL    HW222875  14.340  10.999  11.206
73660SOL     OW22876  11.844   5.574   6.061
73660SOL    HW122877  11.817   5.497   6.112
73660SOL    HW222878  11.939   5.575   6.068
73661SOL     OW22879  13.034  13.423   7.215
73661SOL    HW122880  13.094  13.358   7.252
73661SOL    HW222881  12.954  13.375   7.196
73662SOL     OW22882  13.986   0.349  10.853
73662SOL    HW122883  13.912   0.388  10.900
73662SOL    HW222884  14.051   0.420  10.849
73663SOL     OW22885   6.222  10.141  11.707
73663SOL    HW122886   6.193  10.178  11.791
73663SOL    HW222887   6.315  10.124  11.720
73664SOL     OW22888   0.648   0.374   7.413
73664SOL    HW122889   0.631   0.451   7.468
73664SOL    HW222890   0.567   0.323   7.418
73665SOL     OW22891   9.928  12.087   5.577
73665SOL    HW122892   9.977  12.021   5.626
73665SOL    HW222893   9.837  12.057   5.582
73666SOL     OW22894  12.418   6.822  10.345
73666SOL    HW122895  12.445   6.912  10.365
73666SOL    HW222896  12.407   6.821  10.250
73667SOL     OW22897   9.530   3.913   2.050
73667SOL    HW122898   9.550   3.903   2.143
73667SOL    HW222899   9.505   3.825   2.021
73668SOL     OW22900   4.666  12.350   6.549
73668SOL    HW122901   4.671  12.315   6.638
73668SOL    HW222902   4.615  12.430   6.558
73669SOL     OW22903  14.821   7.927   1.668
73669SOL    HW122904  14.742   7.888   1.632
73669SOL    HW222905  14.876   7.852   1.691
73670SOL     OW22906  10.895   9.466   8.535
73670SOL    HW122907  10.903   9.376   8.569
73670SOL    HW222908  10.924   9.460   8.444
73671SOL     OW22909  11.793   0.346   6.660
73671SOL    HW122910  11.869   0.404   6.654
73671SOL    HW222911  11.811   0.277   6.596
73672SOL     OW22912   4.850   1.187   2.894
73672SOL    HW122913   4.879   1.255   2.833
73672SOL    HW222914   4.863   1.226   2.981
73673SOL     OW22915   4.360   3.604  14.334
73673SOL    HW122916   4.296   3.576  14.400
73673SOL    HW222917   4.321   3.579  14.251
73674SOL     OW22918   2.908  14.665   8.833
73674SOL    HW122919   2.855  14.697   8.906
73674SOL    HW222920   2.995  14.701   8.849
73675SOL     OW22921  11.058  14.416   1.836
73675SOL    HW122922  11.038  14.508   1.854
73675SOL    HW222923  11.116  14.419   1.761
73676SOL     OW22924   0.597   4.468   4.030
73676SOL    HW122925   0.615   4.561   4.019
73676SOL    HW222926   0.684   4.430   4.047
73677SOL     OW22927  14.608  11.528   0.011
73677SOL    HW122928  14.677  11.463   0.003
73677SOL    HW222929  14.540  11.485   0.063
73678SOL     OW22930   6.588  13.340   9.791
73678SOL    HW122931   6.646  13.269   9.816
73678SOL    HW222932   6.646  13.409   9.759
73679SOL     OW22933   7.610   5.450   0.548
73679SOL    HW122934   7.623   5.544   0.557
73679SOL    HW222935   7.515   5.439   0.539
73680SOL     OW22936   1.556  11.660   0.046
73680SOL    HW122937   1.531  11.642  14.837
73680SOL    HW222938   1.482  11.628   0.097
73681SOL     OW22939   3.577   8.080  12.329
73681SOL    HW122940   3.644   8.101  12.264
73681SOL    HW222941   3.569   8.160  12.382
73682SOL     OW22942   4.203   1.735   0.618
73682SOL    HW122943   4.119   1.769   0.589
73682SOL    HW222944   4.234   1.681   0.546
73683SOL     OW22945   1.689   2.161  10.655
73683SOL    HW122946   1.761   2.097  10.650
73683SOL    HW222947   1.679   2.193  10.566
73684SOL     OW22948   3.078   1.330   3.259
73684SOL    HW122949   3.041   1.356   3.175
73684SOL    HW222950   3.040   1.391   3.322
73685SOL     OW22951   2.138   5.348  11.239
73685SOL    HW122952   2.065   5.290  11.216
73685SOL    HW222953   2.098   5.414  11.297
73686SOL     OW22954   7.405   7.840  13.161
73686SOL    HW122955   7.455   7.921  13.169
73686SOL    HW222956   7.313   7.867  13.166
73687SOL     OW22957   2.343  10.054   5.244
73687SOL    HW122958   2.285  10.010   5.182
73687SOL    HW222959   2.309  10.031   5.330
73688SOL     OW22960   4.081   5.804   4.605
73688SOL    HW122961   3.997   5.806   4.559
73688SOL    HW222962   4.132   5.738   4.558
73689SOL     OW22963   9.053   1.143   5.903
73689SOL    HW122964   9.067   1.236   5.884
73689SOL    HW222965   9.002   1.143   5.984
73690SOL     OW22966   6.176  14.257  14.606
73690SOL    HW122967   6.148  14.226  14.693
73690SOL    HW222968   6.240  14.325  14.625
73691SOL     OW22969   8.016   2.965   1.067
73691SOL    HW122970   7.992   3.045   1.021
73691SOL    HW222971   7.955   2.961   1.141
73692SOL     OW22972  14.301   8.547  13.593
73692SOL    HW122973  14.380   8.592  13.563
73692SOL    HW222974  14.334   8.477  13.649
73693SOL     OW22975   5.160  10.186   6.259
73693SOL    HW122976   5.154  10.187   6.164
73693SOL    HW222977   5.110  10.109   6.286
73694SOL     OW22978   9.446   3.716  13.603
73694SOL    HW122979   9.463   3.636  13.555
73694SOL    HW222980   9.413   3.777  13.537
73695SOL     OW22981   0.051  13.949  11.397
73695SOL    HW122982  14.882  13.895  11.337
73695SOL    HW222983   0.049  14.037  11.358
73696SOL     OW22984   2.795   2.970   3.239
73696SOL    HW122985   2.705   2.937   3.230
73696SOL    HW222986   2.828   2.974   3.150
73697SOL     OW22987   7.803   3.376   9.504
73697SOL    HW122988   7.890   3.339   9.518
73697SOL    HW222989   7.812   3.431   9.426
73698SOL     OW22990   1.980  10.198   5.423
73698SOL    HW122991   2.048  10.210   5.357
73698SOL    HW222992   2.028  10.189   5.505
73699SOL     OW22993   0.854   6.957   0.033
73699SOL    HW122994   0.940   6.918   0.043
73699SOL    HW222995   0.793   6.883   0.033
73700SOL     OW22996   4.419  10.054  14.814
73700SOL    HW122997   4.326  10.038  14.794
73700SOL    HW222998   4.419  10.138  14.860
73701SOL     OW22999   6.467   2.550   7.707
73701SOL    HW123000   6.391   2.506   7.670
73701SOL    HW223001   6.542   2.499   7.676
73702SOL     OW23002   7.478  12.521   0.922
73702SOL    HW123003   7.507  12.437   0.888
73702SOL    HW223004   7.539  12.584   0.884
73703SOL     OW23005   2.540   9.768   7.552
73703SOL    HW123006   2.595   9.693   7.576
73703SOL    HW223007   2.452   9.741   7.577
73704SOL     OW23008   6.124   0.966   9.302
73704SOL    HW123009   6.056   0.900   9.308
73704SOL    HW223010   6.126   0.991   9.209
73705SOL     OW23011   0.325   8.028  11.403
73705SOL    HW123012   0.367   7.998  11.484
73705SOL    HW223013   0.323   7.950  11.347
73706SOL     OW23014  12.615  13.550   7.392
73706SOL    HW123015  12.661  13.506   7.464
73706SOL    HW223016  12.674  13.541   7.317
73707SOL     OW23017  11.014  14.710  12.779
73707SOL    HW123018  11.013  14.643  12.710
73707SOL    HW223019  10.936  14.692  12.832
73708SOL     OW23020   3.001  10.305   9.855
73708SOL    HW123021   2.957  10.301   9.940
73708SOL    HW223022   3.050  10.388   9.856
73709SOL     OW23023  11.255  13.086  12.920
73709SOL    HW123024  11.284  13.177  12.917
73709SOL    HW223025  11.159  13.091  12.916
73710SOL     OW23026   5.136   9.815  14.172
73710SOL    HW123027   5.191   9.792  14.097
73710SOL    HW223028   5.180   9.776  14.248
73711SOL     OW23029   0.419   3.252   2.060
73711SOL    HW123030   0.490   3.286   2.115
73711SOL    HW223031   0.360   3.327   2.049
73712SOL     OW23032  11.861   8.689  11.078
73712SOL    HW123033  11.909   8.714  11.157
73712SOL    HW223034  11.849   8.771  11.030
73713SOL     OW23035   5.462   5.646   4.561
73713SOL    HW123036   5.414   5.647   4.478
73713SOL    HW223037   5.553   5.635   4.535
73714SOL     OW23038   6.573   8.438   3.717
73714SOL    HW123039   6.660   8.472   3.695
73714SOL    HW223040   6.591   8.364   3.775
73715SOL     OW23041   7.601   2.671   6.371
73715SOL    HW123042   7.508   2.692   6.371
73715SOL    HW223043   7.645   2.756   6.361
73716SOL     OW23044  12.908   3.576   2.164
73716SOL    HW123045  12.906   3.652   2.222
73716SOL    HW223046  12.816   3.561   2.141
73717SOL     OW23047  10.076   2.638  12.585
73717SOL    HW123048  10.146   2.687  12.630
73717SOL    HW223049  10.057   2.565  12.644
73718SOL     OW23050   0.285   2.350   7.394
73718SOL    HW123051   0.356   2.303   7.437
73718SOL    HW223052   0.325   2.386   7.314
73719SOL     OW23053   2.324   7.455   2.137
73719SOL    HW123054   2.266   7.441   2.211
73719SOL    HW223055   2.375   7.532   2.160
73720SOL     OW23056  14.392  12.656   1.537
73720SOL    HW123057  14.388  12.643   1.632
73720SOL    HW223058  14.475  12.701   1.523
73721SOL     OW23059   1.565   9.848   2.755
73721SOL    HW123060   1.563   9.854   2.850
73721SOL    HW223061   1.606   9.930   2.727
73722SOL     OW23062   6.647   0.433   4.574
73722SOL    HW123063   6.678   0.382   4.499
73722SOL    HW223064   6.559   0.399   4.591
73723SOL     OW23065   6.933  13.085  10.038
73723SOL    HW123066   6.938  13.029   9.961
73723SOL    HW223067   6.865  13.045  10.092
73724SOL     OW23068   7.408   5.794  14.505
73724SOL    HW123069   7.443   5.758  14.586
73724SOL    HW223070   7.478   5.779  14.441
73725SOL     OW23071  11.320   4.054   5.002
73725SOL    HW123072  11.369   4.066   4.920
73725SOL    HW223073  11.308   3.960   5.010
73726SOL     OW23074   7.214   6.009   7.224
73726SOL    HW123075   7.139   5.951   7.211
73726SOL    HW223076   7.244   6.029   7.136
73727SOL     OW23077  13.392  11.354  11.997
73727SOL    HW123078  13.412  11.447  11.997
73727SOL    HW223079  13.451  11.316  11.932
73728SOL     OW23080  12.647  11.012  13.948
73728SOL    HW123081  12.552  11.017  13.953
73728SOL    HW223082  12.675  11.097  13.915
73729SOL     OW23083  11.724   3.990  12.092
73729SOL    HW123084  11.680   4.071  12.066
73729SOL    HW223085  11.735   3.941  12.010
73730SOL     OW23086  11.325   6.483  12.549
73730SOL    HW123087  11.337   6.413  12.485
73730SOL    HW223088  11.233   6.509  12.541
73731SOL     OW23089   7.420   7.830   1.631
73731SOL    HW123090   7.511   7.857   1.640
73731SOL    HW223091   7.396   7.854   1.542
73732SOL     OW23092   5.293  10.465  14.509
73732SOL    HW123093   5.264  10.556  14.519
73732SOL    HW223094   5.311  10.457  14.415
73733SOL     OW23095   4.738   5.699   6.975
73733SOL    HW123096   4.668   5.759   7.000
73733SOL    HW223097   4.716   5.672   6.886
73734SOL     OW23098   6.153   8.266  11.426
73734SOL    HW123099   6.213   8.239  11.357
73734SOL    HW223100   6.187   8.225  11.506
73735SOL     OW23101   7.965   4.529   8.546
73735SOL    HW123102   7.957   4.624   8.548
73735SOL    HW223103   8.057   4.511   8.566
73736SOL     OW23104  14.112   6.506   8.924
73736SOL    HW123105  14.207   6.495   8.914
73736SOL    HW223106  14.086   6.437   8.984
73737SOL     OW23107   4.301   0.776  13.423
73737SOL    HW123108   4.221   0.820  13.452
73737SOL    HW223109   4.320   0.816  13.338
73738SOL     OW23110   5.188   6.096   1.138
73738SOL    HW123111   5.173   6.015   1.186
73738SOL    HW223112   5.127   6.093   1.065
73739SOL     OW23113   0.862   9.150  10.805
73739SOL    HW123114   0.910   9.082  10.758
73739SOL    HW223115   0.782   9.163  10.755
73740SOL     OW23116  11.897   1.191   7.562
73740SOL    HW123117  11.898   1.113   7.618
73740SOL    HW223118  11.873   1.158   7.475
73741SOL     OW23119   2.664   0.949   3.176
73741SOL    HW123120   2.688   0.874   3.122
73741SOL    HW223121   2.569   0.959   3.164
73742SOL     OW23122   4.090   1.960   0.984
73742SOL    HW123123   4.072   2.052   1.004
73742SOL    HW223124   4.155   1.934   1.050
73743SOL     OW23125   6.869  11.837  11.845
73743SOL    HW123126   6.814  11.899  11.894
73743SOL    HW223127   6.957  11.850  11.881
73744SOL     OW23128  14.674   5.858   3.585
73744SOL    HW123129  14.658   5.809   3.666
73744SOL    HW223130  14.696   5.790   3.521
73745SOL     OW23131   1.022  10.362   2.219
73745SOL    HW123132   1.002  10.456   2.227
73745SOL    HW223133   1.051  10.351   2.129
73746SOL     OW23134   0.550   3.816   9.521
73746SOL    HW123135   0.566   3.889   9.461
73746SOL    HW223136   0.458   3.793   9.507
73747SOL     OW23137  13.476   5.418  11.335
73747SOL    HW123138  13.446   5.469  11.410
73747SOL    HW223139  13.395   5.390  11.292
73748SOL     OW23140   1.261  14.711   1.825
73748SOL    HW123141   1.321  14.786   1.833
73748SOL    HW223142   1.244  14.684   1.915
73749SOL     OW23143   3.318   6.792   6.225
73749SOL    HW123144   3.287   6.701   6.223
73749SOL    HW223145   3.240   6.843   6.250
73750SOL     OW23146   5.638  12.100  11.831
73750SOL    HW123147   5.647  12.046  11.910
73750SOL    HW223148   5.673  12.044  11.761
73751SOL     OW23149  11.544   9.228   0.680
73751SOL    HW123150  11.578   9.272   0.757
73751SOL    HW223151  11.467   9.279   0.654
73752SOL     OW23152   5.157  12.057   4.191
73752SOL    HW123153   5.235  12.005   4.171
73752SOL    HW223154   5.087  12.015   4.142
73753SOL     OW23155   6.659   6.481  11.697
73753SOL    HW123156   6.641   6.557  11.642
73753SOL    HW223157   6.635   6.509  11.786
73754SOL     OW23158  14.516  11.536  12.330
73754SOL    HW123159  14.524  11.543  12.425
73754SOL    HW223160  14.431  11.496  12.316
73755SOL     OW23161   1.607   2.902   8.213
73755SOL    HW123162   1.548   2.827   8.224
73755SOL    HW223163   1.615   2.912   8.118
73756SOL     OW23164   6.750   4.461   3.780
73756SOL    HW123165   6.713   4.503   3.702
73756SOL    HW223166   6.722   4.369   3.772
73757SOL     OW23167   4.715  14.852  14.209
73757SOL    HW123168   4.669   0.053  14.194
73757SOL    HW223169   4.660  14.786  14.166
73758SOL     OW23170  12.410   3.108   6.608
73758SOL    HW123171  12.422   3.162   6.686
73758SOL    HW223172  12.317   3.117   6.587
73759SOL     OW23173  10.862   7.835   5.529
73759SOL    HW123174  10.950   7.802   5.546
73759SOL    HW223175  10.824   7.849   5.616
73760SOL     OW23176  13.262   1.947   1.438
73760SOL    HW123177  13.176   1.947   1.481
73760SOL    HW223178  13.306   1.869   1.472
73761SOL     OW23179   9.050   6.205   4.986
73761SOL    HW123180   9.038   6.294   5.019
73761SOL    HW223181   8.962   6.175   4.964
73762SOL     OW23182  13.120   3.870   7.894
73762SOL    HW123183  13.201   3.907   7.930
73762SOL    HW223184  13.147   3.787   7.853
73763SOL     OW23185   2.638   0.275  14.088
73763SOL    HW123186   2.674   0.201  14.136
73763SOL    HW223187   2.576   0.236  14.026
73764SOL     OW23188   9.264  11.447  13.844
73764SOL    HW123189   9.317  11.527  13.845
73764SOL    HW223190   9.177  11.476  13.817
73765SOL     OW23191  13.199   6.814   5.413
73765SOL    HW123192  13.195   6.725   5.378
73765SOL    HW223193  13.146   6.810   5.492
73766SOL     OW23194  14.573   4.065   6.366
73766SOL    HW123195  14.529   3.980   6.368
73766SOL    HW223196  14.511   4.125   6.408
73767SOL     OW23197   3.479   6.866  10.774
73767SOL    HW123198   3.400   6.910  10.804
73767SOL    HW223199   3.452   6.774  10.762
73768SOL     OW23200  13.140   5.637   0.236
73768SOL    HW123201  13.087   5.679   0.168
73768SOL    HW223202  13.209   5.700   0.254
73769SOL     OW23203   9.621   8.037  10.394
73769SOL    HW123204   9.645   7.947  10.372
73769SOL    HW223205   9.649   8.047  10.485
73770SOL     OW23206   2.118   7.989   2.982
73770SOL    HW123207   2.038   7.936   2.972
73770SOL    HW223208   2.153   7.962   3.068
73771SOL     OW23209   1.286   4.349   9.839
73771SOL    HW123210   1.193   4.339   9.820
73771SOL    HW223211   1.289   4.416   9.908
73772SOL     OW23212  12.862  14.482   1.810
73772SOL    HW123213  12.829  14.396   1.784
73772SOL    HW223214  12.843  14.488   1.904
73773SOL     OW23215   7.717   6.913   2.760
73773SOL    HW123216   7.650   6.866   2.810
73773SOL    HW223217   7.775   6.845   2.728
73774SOL     OW23218   2.179  10.489   1.145
73774SOL    HW123219   2.236  10.543   1.090
73774SOL    HW223220   2.114  10.452   1.084
73775SOL     OW23221  10.376  13.868   5.249
73775SOL    HW123222  10.346  13.809   5.180
73775SOL    HW223223  10.459  13.831   5.278
73776SOL     OW23224   1.513   5.328   3.406
73776SOL    HW123225   1.561   5.392   3.354
73776SOL    HW223226   1.440   5.301   3.350
73777SOL     OW23227   9.920   7.100   1.017
73777SOL    HW123228   9.923   7.120   1.110
73777SOL    HW223229   9.989   7.155   0.978
73778SOL     OW23230   0.330   2.132   0.654
73778SOL    HW123231   0.411   2.173   0.685
73778SOL    HW223232   0.360   2.070   0.587
73779SOL     OW23233  12.304   8.172  12.807
73779SOL    HW123234  12.211   8.181  12.788
73779SOL    HW223235  12.324   8.080  12.791
73780SOL     OW23236  10.668   4.608   5.872
73780SOL    HW123237  10.665   4.516   5.848
73780SOL    HW223238  10.576   4.636   5.869
73781SOL     OW23239  13.882   7.022   9.418
73781SOL    HW123240  13.839   7.058   9.340
73781SOL    HW223241  13.950   6.965   9.384
73782SOL     OW23242   4.886  10.411  14.680
73782SOL    HW123243   4.814  10.410  14.742
73782SOL    HW223244   4.965  10.409  14.735
73783SOL     OW23245  11.866  13.217   5.647
73783SOL    HW123246  11.923  13.145   5.620
73783SOL    HW223247  11.862  13.274   5.570
73784SOL     OW23248   6.853  12.791   5.646
73784SOL    HW123249   6.833  12.868   5.699
73784SOL    HW223250   6.862  12.824   5.557
73785SOL     OW23251   1.123   0.718  13.246
73785SOL    HW123252   1.213   0.683  13.247
73785SOL    HW223253   1.070   0.648  13.283
73786SOL     OW23254   6.542   7.907  13.424
73786SOL    HW123255   6.539   7.825  13.474
73786SOL    HW223256   6.629   7.942  13.442
73787SOL     OW23257   5.255   2.942   1.219
73787SOL    HW123258   5.180   2.977   1.171
73787SOL    HW223259   5.232   2.952   1.311
73788SOL     OW23260   2.304   6.583  14.435
73788SOL    HW123261   2.257   6.542  14.362
73788SOL    HW223262   2.253   6.560  14.512
73789SOL     OW23263   0.844  10.168  11.023
73789SOL    HW123264   0.919  10.172  11.083
73789SOL    HW223265   0.811  10.258  11.021
73790SOL     OW23266  12.291   3.556   2.718
73790SOL    HW123267  12.326   3.509   2.794
73790SOL    HW223268  12.359   3.549   2.652
73791SOL     OW23269   8.008   7.220  10.873
73791SOL    HW123270   8.081   7.191  10.928
73791SOL    HW223271   7.999   7.313  10.892
73792SOL     OW23272   2.587   9.143   7.761
73792SOL    HW123273   2.664   9.164   7.814
73792SOL    HW223274   2.541   9.076   7.811
73793SOL     OW23275   2.094   9.292  13.520
73793SOL    HW123276   2.049   9.296  13.605
73793SOL    HW223277   2.120   9.200  13.512
73794SOL     OW23278   8.080   3.021   2.148
73794SOL    HW123279   8.118   3.081   2.212
73794SOL    HW223280   8.022   2.964   2.199
73795SOL     OW23281   9.465   6.046   9.594
73795SOL    HW123282   9.527   6.115   9.568
73795SOL    HW223283   9.379   6.086   9.582
73796SOL     OW23284  10.080  13.979   6.203
73796SOL    HW123285  10.060  14.048   6.266
73796SOL    HW223286  10.093  14.025   6.120
73797SOL     OW23287   9.937   0.549  11.126
73797SOL    HW123288   9.893   0.554  11.041
73797SOL    HW223289   9.983   0.465  11.124
73798SOL     OW23290   3.718   2.524   0.168
73798SOL    HW123291   3.666   2.604   0.169
73798SOL    HW223292   3.738   2.509   0.076
73799SOL     OW23293  11.208  12.029  10.999
73799SOL    HW123294  11.284  12.052  11.053
73799SOL    HW223295  11.137  12.014  11.063
73800SOL     OW23296  10.070  14.284   0.004
73800SOL    HW123297  10.159  14.316   0.019
73800SOL    HW223298  10.081  14.205  14.833
73801SOL     OW23299  14.426   5.129  13.509
73801SOL    HW123300  14.459   5.131  13.420
73801SOL    HW223301  14.333   5.151  13.501
73802SOL     OW23302  13.623   4.437   4.477
73802SOL    HW123303  13.693   4.441   4.413
73802SOL    HW223304  13.546   4.409   4.427
73803SOL     OW23305   6.434  11.407   0.503
73803SOL    HW123306   6.375  11.395   0.578
73803SOL    HW223307   6.437  11.502   0.490
73804SOL     OW23308   6.433  12.387  13.519
73804SOL    HW123309   6.463  12.475  13.540
73804SOL    HW223310   6.340  12.398  13.498
73805SOL     OW23311   9.494   3.384   4.663
73805SOL    HW123312   9.480   3.352   4.574
73805SOL    HW223313   9.542   3.315   4.707
73806SOL     OW23314  11.093  14.780  13.671
73806SOL    HW123315  11.075  14.764  13.578
73806SOL    HW223316  11.016  14.747  13.717
73807SOL     OW23317   4.010   8.413  10.542
73807SOL    HW123318   3.978   8.324  10.524
73807SOL    HW223319   4.035   8.448  10.457
73808SOL     OW23320   5.686  11.588   9.064
73808SOL    HW123321   5.646  11.656   9.011
73808SOL    HW223322   5.745  11.635   9.123
73809SOL     OW23323   4.786   4.990  14.198
73809SOL    HW123324   4.698   4.953  14.206
73809SOL    HW223325   4.844   4.914  14.198
73810SOL     OW23326  13.094  13.748   4.207
73810SOL    HW123327  13.134  13.662   4.219
73810SOL    HW223328  13.072  13.753   4.114
73811SOL     OW23329   4.467   9.101   5.614
73811SOL    HW123330   4.550   9.055   5.622
73811SOL    HW223331   4.413   9.066   5.684
73812SOL     OW23332  11.468   1.737   3.636
73812SOL    HW123333  11.428   1.657   3.670
73812SOL    HW223334  11.441   1.805   3.698
73813SOL     OW23335  14.473   3.898   0.153
73813SOL    HW123336  14.471   3.980   0.104
73813SOL    HW223337  14.557   3.858   0.130
73814SOL     OW23338  13.172   3.895   3.248
73814SOL    HW123339  13.214   3.941   3.175
73814SOL    HW223340  13.245   3.858   3.298
73815SOL     OW23341   8.694   0.753   5.200
73815SOL    HW123342   8.750   0.676   5.205
73815SOL    HW223343   8.623   0.736   5.263
73816SOL     OW23344   0.094   3.844  11.690
73816SOL    HW123345   0.094   3.750  11.674
73816SOL    HW223346   0.186   3.869  11.689
73817SOL     OW23347   0.773   3.832   8.164
73817SOL    HW123348   0.805   3.833   8.254
73817SOL    HW223349   0.721   3.912   8.156
73818SOL     OW23350   7.596  11.911   9.977
73818SOL    HW123351   7.618  11.979   9.913
73818SOL    HW223352   7.502  11.920   9.991
73819SOL     OW23353  13.588   1.349   2.283
73819SOL    HW123354  13.617   1.314   2.198
73819SOL    HW223355  13.668   1.375   2.327
73820SOL     OW23356  13.509  10.780  11.850
73820SOL    HW123357  13.604  10.775  11.858
73820SOL    HW223358  13.483  10.849  11.911
73821SOL     OW23359   5.163  12.253   7.593
73821SOL    HW123360   5.182  12.328   7.650
73821SOL    HW223361   5.162  12.290   7.504
73822SOL     OW23362  12.823   8.082   8.120
73822SOL    HW123363  12.829   8.098   8.214
73822SOL    HW223364  12.885   8.145   8.081
73823SOL     OW23365  11.975  11.872   5.322
73823SOL    HW123366  12.015  11.811   5.260
73823SOL    HW223367  11.928  11.935   5.267
73824SOL     OW23368   8.421  10.730  14.618
73824SOL    HW123369   8.410  10.825  14.622
73824SOL    HW223370   8.355  10.702  14.554
73825SOL     OW23371  13.018  14.331  13.187
73825SOL    HW123372  12.932  14.332  13.145
73825SOL    HW223373  13.007  14.274  13.263
73826SOL     OW23374   7.555   0.114  14.063
73826SOL    HW123375   7.496   0.102  14.137
73826SOL    HW223376   7.640   0.131  14.103
73827SOL     OW23377   7.422   1.440   7.404
73827SOL    HW123378   7.410   1.495   7.327
73827SOL    HW223379   7.432   1.351   7.370
73828SOL     OW23380   3.107   5.927   1.866
73828SOL    HW123381   3.110   5.951   1.958
73828SOL    HW223382   3.014   5.929   1.843
73829SOL     OW23383   9.652   7.530  10.159
73829SOL    HW123384   9.626   7.438  10.166
73829SOL    HW223385   9.627   7.569  10.242
73830SOL     OW23386   6.688  14.622   2.301
73830SOL    HW123387   6.742  14.677   2.358
73830SOL    HW223388   6.621  14.682   2.267
73831SOL     OW23389   5.905  14.747   6.038
73831SOL    HW123390   5.954  14.807   6.094
73831SOL    HW223391   5.845  14.703   6.098
73832SOL     OW23392  10.396  13.599   5.762
73832SOL    HW123393  10.332  13.657   5.719
73832SOL    HW223394  10.477  13.615   5.715
73833SOL     OW23395   7.200   9.600   9.384
73833SOL    HW123396   7.237   9.671   9.331
73833SOL    HW223397   7.257   9.525   9.367
73834SOL     OW23398   0.605   6.611   6.178
73834SOL    HW123399   0.690   6.653   6.165
73834SOL    HW223400   0.552   6.676   6.223
73835SOL     OW23401  14.810   8.481   0.933
73835SOL    HW123402   0.005   8.513   0.887
73835SOL    HW223403  14.737   8.529   0.892
73836SOL     OW23404  13.514   7.728   2.668
73836SOL    HW123405  13.557   7.775   2.597
73836SOL    HW223406  13.586   7.695   2.722
73837SOL     OW23407  12.708   4.845  13.286
73837SOL    HW123408  12.670   4.933  13.288
73837SOL    HW223409  12.683   4.806  13.369
73838SOL     OW23410  10.912   2.815   6.193
73838SOL    HW123411  10.845   2.875   6.161
73838SOL    HW223412  10.893   2.732   6.148
73839SOL     OW23413  14.363   8.359   0.794
73839SOL    HW123414  14.399   8.392   0.876
73839SOL    HW223415  14.268   8.361   0.807
73840SOL     OW23416   2.798   1.188  12.001
73840SOL    HW123417   2.710   1.195  11.965
73840SOL    HW223418   2.787   1.204  12.094
73841SOL     OW23419   6.322   8.559   5.988
73841SOL    HW123420   6.254   8.498   5.962
73841SOL    HW223421   6.310   8.569   6.083
73842SOL     OW23422   4.932  13.935   8.405
73842SOL    HW123423   4.914  13.862   8.346
73842SOL    HW223424   4.902  13.904   8.491
73843SOL     OW23425   6.797   6.131  12.654
73843SOL    HW123426   6.770   6.122  12.562
73843SOL    HW223427   6.715   6.147  12.701
73844SOL     OW23428   6.704   5.800  12.125
73844SOL    HW123429   6.706   5.767  12.035
73844SOL    HW223430   6.629   5.859  12.127
73845SOL     OW23431   0.380   1.081   9.128
73845SOL    HW123432   0.473   1.070   9.109
73845SOL    HW223433   0.348   1.137   9.058
73846SOL     OW23434   0.177  12.923  14.161
73846SOL    HW123435   0.100  12.869  14.144
73846SOL    HW223436   0.251  12.863  14.149
73847SOL     OW23437   6.982   4.810   0.186
73847SOL    HW123438   6.958   4.731   0.137
73847SOL    HW223439   6.965   4.882   0.125
73848SOL     OW23440   5.655   6.371   5.494
73848SOL    HW123441   5.606   6.320   5.558
73848SOL    HW223442   5.588   6.413   5.440
73849SOL     OW23443  12.675   8.070   6.571
73849SOL    HW123444  12.755   8.028   6.602
73849SOL    HW223445  12.658   8.140   6.634
73850SOL     OW23446   9.467  12.805   3.859
73850SOL    HW123447   9.422  12.725   3.888
73850SOL    HW223448   9.399  12.856   3.816
73851SOL     OW23449   0.587   0.197  10.057
73851SOL    HW123450   0.654   0.162   9.999
73851SOL    HW223451   0.618   0.174  10.145
73852SOL     OW23452  14.206   5.931   6.532
73852SOL    HW123453  14.301   5.935   6.523
73852SOL    HW223454  14.181   5.848   6.490
73853SOL     OW23455   7.350   6.984   9.340
73853SOL    HW123456   7.388   6.901   9.371
73853SOL    HW223457   7.256   6.967   9.336
73854SOL     OW23458   3.565   3.095   6.387
73854SOL    HW123459   3.592   3.030   6.321
73854SOL    HW223460   3.551   3.175   6.336
73855SOL     OW23461  11.849  12.157  12.493
73855SOL    HW123462  11.924  12.190  12.443
73855SOL    HW223463  11.841  12.066  12.468
73856SOL     OW23464  10.354   8.604  12.725
73856SOL    HW123465  10.284   8.660  12.759
73856SOL    HW223466  10.421   8.607  12.793
73857SOL     OW23467   9.089   4.052   4.970
73857SOL    HW123468   9.004   4.008   4.973
73857SOL    HW223469   9.073   4.139   5.005
73858SOL     OW23470   4.969   9.683   3.476
73858SOL    HW123471   4.940   9.672   3.385
73858SOL    HW223472   5.057   9.645   3.478
73859SOL     OW23473   2.385   9.748   5.253
73859SOL    HW123474   2.303   9.799   5.249
73859SOL    HW223475   2.422   9.756   5.165
73860SOL     OW23476   9.202  11.454  10.013
73860SOL    HW123477   9.243  11.453   9.927
73860SOL    HW223478   9.193  11.547  10.034
73861SOL     OW23479   0.183   7.095   5.596
73861SOL    HW123480   0.143   7.119   5.512
73861SOL    HW223481   0.197   7.000   5.590
73862SOL     OW23482   6.303   4.515   3.534
73862SOL    HW123483   6.216   4.480   3.553
73862SOL    HW223484   6.291   4.610   3.530
73863SOL     OW23485   9.540  14.182   6.086
73863SOL    HW123486   9.612  14.205   6.145
73863SOL    HW223487   9.582  14.174   6.000
73864SOL     OW23488  11.540  13.745  11.481
73864SOL    HW123489  11.547  13.791  11.565
73864SOL    HW223490  11.533  13.653  11.504
73865SOL     OW23491   0.150   2.839   9.583
73865SOL    HW123492   0.110   2.889   9.655
73865SOL    HW223493   0.232   2.805   9.621
73866SOL     OW23494  14.319   2.728   5.766
73866SOL    HW123495  14.350   2.638   5.755
73866SOL    HW223496  14.241   2.720   5.821
73867SOL     OW23497   6.342   2.626  12.276
73867SOL    HW123498   6.258   2.647  12.318
73867SOL    HW223499   6.398   2.598  12.349
73868SOL     OW23500  12.276  12.742  13.158
73868SOL    HW123501  12.258  12.649  13.146
73868SOL    HW223502  12.200  12.787  13.121
73869SOL     OW23503  13.485  10.906   9.298
73869SOL    HW123504  13.418  10.967   9.270
73869SOL    HW223505  13.568  10.950   9.278
73870SOL     OW23506  12.046   0.623   1.545
73870SOL    HW123507  12.104   0.687   1.503
73870SOL    HW223508  12.087   0.607   1.629
73871SOL     OW23509  14.608   3.125   5.146
73871SOL    HW123510  14.668   3.051   5.161
73871SOL    HW223511  14.552   3.126   5.224
73872SOL     OW23512   2.272  14.457   3.939
73872SOL    HW123513   2.320  14.539   3.938
73872SOL    HW223514   2.316  14.404   4.005
73873SOL     OW23515   5.695  14.256   4.423
73873SOL    HW123516   5.621  14.315   4.430
73873SOL    HW223517   5.668  14.190   4.359
73874SOL     OW23518  14.040   1.570  12.125
73874SOL    HW123519  14.061   1.520  12.046
73874SOL    HW223520  13.951   1.601  12.112
73875SOL     OW23521   5.496   0.596  14.452
73875SOL    HW123522   5.415   0.555  14.481
73875SOL    HW223523   5.535   0.630  14.533
73876SOL     OW23524  12.208  13.744   8.670
73876SOL    HW123525  12.275  13.694   8.623
73876SOL    HW223526  12.256  13.815   8.712
73877SOL     OW23527  11.582   4.523   9.078
73877SOL    HW123528  11.605   4.437   9.043
73877SOL    HW223529  11.652   4.581   9.046
73878SOL     OW23530   9.468   4.327   4.871
73878SOL    HW123531   9.424   4.274   4.937
73878SOL    HW223532   9.407   4.328   4.797
73879SOL     OW23533   0.886   1.280   1.305
73879SOL    HW123534   0.893   1.319   1.218
73879SOL    HW223535   0.793   1.260   1.315
73880SOL     OW23536   4.991   3.532   4.804
73880SOL    HW123537   4.909   3.518   4.850
73880SOL    HW223538   5.052   3.469   4.843
73881SOL     OW23539   4.291  10.070   7.578
73881SOL    HW123540   4.332  10.018   7.509
73881SOL    HW223541   4.274  10.008   7.648
73882SOL     OW23542  11.254  14.408   8.678
73882SOL    HW123543  11.293  14.449   8.756
73882SOL    HW223544  11.164  14.440   8.678
73883SOL     OW23545  12.662   7.586   1.629
73883SOL    HW123546  12.673   7.593   1.534
73883SOL    HW223547  12.643   7.676   1.658
73884SOL     OW23548   5.276   0.473   6.435
73884SOL    HW123549   5.303   0.485   6.526
73884SOL    HW223550   5.181   0.468   6.439
73885SOL     OW23551  10.788   0.950   6.308
73885SOL    HW123552  10.883   0.940   6.296
73885SOL    HW223553  10.764   0.881   6.369
73886SOL     OW23554   2.080   0.853   8.589
73886SOL    HW123555   2.146   0.894   8.645
73886SOL    HW223556   2.115   0.765   8.571
73887SOL     OW23557   7.000   1.529   9.081
73887SOL    HW123558   7.071   1.592   9.071
73887SOL    HW223559   7.021   1.458   9.020
73888SOL     OW23560   3.654   8.821   2.575
73888SOL    HW123561   3.696   8.906   2.565
73888SOL    HW223562   3.620   8.800   2.488
73889SOL     OW23563  11.509   4.852  11.739
73889SOL    HW123564  11.487   4.921  11.802
73889SOL    HW223565  11.513   4.897  11.654
73890SOL     OW23566  12.406   8.869  14.297
73890SOL    HW123567  12.421   8.907  14.211
73890SOL    HW223568  12.493   8.851  14.332
73891SOL     OW23569  12.470   0.740   6.062
73891SOL    HW123570  12.474   0.645   6.075
73891SOL    HW223571  12.507   0.754   5.974
73892SOL     OW23572   2.462  10.101   2.552
73892SOL    HW123573   2.495  10.152   2.627
73892SOL    HW223574   2.408  10.033   2.592
73893SOL     OW23575   7.651  10.944  13.948
73893SOL    HW123576   7.706  10.867  13.934
73893SOL    HW223577   7.656  10.961  14.042
73894SOL     OW23578   6.010  13.779   2.230
73894SOL    HW123579   6.048  13.702   2.187
73894SOL    HW223580   6.079  13.845   2.227
73895SOL     OW23581   5.350  10.263   6.754
73895SOL    HW123582   5.363  10.357   6.761
73895SOL    HW223583   5.359  10.230   6.843
73896SOL     OW23584   0.508  10.305  13.913
73896SOL    HW123585   0.417  10.294  13.939
73896SOL    HW223586   0.525  10.398  13.923
73897SOL     OW23587   5.119   6.013   2.411
73897SOL    HW123588   5.123   5.922   2.441
73897SOL    HW223589   5.193   6.056   2.453
73898SOL     OW23590  12.413  10.750   1.055
73898SOL    HW123591  12.462  10.771   0.976
73898SOL    HW223592  12.321  10.754   1.029
73899SOL     OW23593  11.998  12.172   4.285
73899SOL    HW123594  12.081  12.159   4.237
73899SOL    HW223595  11.946  12.228   4.227
73900SOL     OW23596  11.620   3.326   7.859
73900SOL    HW123597  11.565   3.260   7.901
73900SOL    HW223598  11.709   3.306   7.890
73901SOL     OW23599   2.987   0.678  10.282
73901SOL    HW123600   2.951   0.745  10.339
73901SOL    HW223601   3.077   0.705  10.267
73902SOL     OW23602   3.249   7.080   0.433
73902SOL    HW123603   3.326   7.123   0.395
73902SOL    HW223604   3.248   6.993   0.394
73903SOL     OW23605   1.812   5.824  13.847
73903SOL    HW123606   1.720   5.830  13.821
73903SOL    HW223607   1.841   5.915  13.855
73904SOL     OW23608   2.980   3.203   3.131
73904SOL    HW123609   2.944   3.129   3.081
73904SOL    HW223610   2.991   3.273   3.067
73905SOL     OW23611   5.392   0.907  10.090
73905SOL    HW123612   5.366   0.907  10.182
73905SOL    HW223613   5.469   0.850  10.087
73906SOL     OW23614   1.204  13.358   3.947
73906SOL    HW123615   1.274  13.421   3.961
73906SOL    HW223616   1.124  13.410   3.950
73907SOL     OW23617   8.633  11.401   2.550
73907SOL    HW123618   8.638  11.444   2.636
73907SOL    HW223619   8.562  11.445   2.505
73908SOL     OW23620  13.492  12.736   7.941
73908SOL    HW123621  13.496  12.647   7.973
73908SOL    HW223622  13.583  12.768   7.947
73909SOL     OW23623   3.647   7.602   1.745
73909SOL    HW123624   3.613   7.546   1.815
73909SOL    HW223625   3.610   7.688   1.763
73910SOL     OW23626   7.155   5.861  10.600
73910SOL    HW123627   7.092   5.864  10.672
73910SOL    HW223628   7.169   5.768  10.583
73911SOL     OW23629   0.843   1.853   7.904
73911SOL    HW123630   0.785   1.855   7.828
73911SOL    HW223631   0.785   1.870   7.979
73912SOL     OW23632   7.195   0.823  14.315
73912SOL    HW123633   7.270   0.777  14.353
73912SOL    HW223634   7.227   0.911  14.297
73913SOL     OW23635  12.732   3.553   5.688
73913SOL    HW123636  12.823   3.581   5.678
73913SOL    HW223637  12.694   3.614   5.750
73914SOL     OW23638  12.452  10.295   8.157
73914SOL    HW123639  12.546  10.281   8.154
73914SOL    HW223640  12.419  10.224   8.213
73915SOL     OW23641   5.365   8.945  10.785
73915SOL    HW123642   5.408   8.979  10.706
73915SOL    HW223643   5.328   9.022  10.827
73916SOL     OW23644   7.332   0.615   9.226
73916SOL    HW123645   7.345   0.599   9.320
73916SOL    HW223646   7.238   0.631   9.217
73917SOL     OW23647   3.791   0.009  10.284
73917SOL    HW123648   3.843  14.812  10.275
73917SOL    HW223649   3.819   0.065  10.212
73918SOL     OW23650  14.725   1.967   4.369
73918SOL    HW123651  14.758   2.047   4.327
73918SOL    HW223652  14.670   1.998   4.441
73919SOL     OW23653   7.531   3.104   7.709
73919SOL    HW123654   7.471   3.058   7.767
73919SOL    HW223655   7.597   3.141   7.767
73920SOL     OW23656   1.083  10.366   1.034
73920SOL    HW123657   1.092  10.457   1.006
73920SOL    HW223658   1.084  10.316   0.952
73921SOL     OW23659   1.679   6.077   4.004
73921SOL    HW123660   1.590   6.049   3.981
73921SOL    HW223661   1.727   5.996   4.018
73922SOL     OW23662  10.308  11.262   2.516
73922SOL    HW123663  10.244  11.333   2.526
73922SOL    HW223664  10.333  11.264   2.424
73923SOL     OW23665   3.426   0.204  14.203
73923SOL    HW123666   3.453   0.284  14.247
73923SOL    HW223667   3.505   0.175  14.156
73924SOL     OW23668  12.932   3.260   0.529
73924SOL    HW123669  12.965   3.182   0.575
73924SOL    HW223670  12.885   3.224   0.453
73925SOL     OW23671   4.201   5.406   5.658
73925SOL    HW123672   4.196   5.470   5.588
73925SOL    HW223673   4.295   5.392   5.672
73926SOL     OW23674   8.119   7.200  12.829
73926SOL    HW123675   8.044   7.144  12.809
73926SOL    HW223676   8.114   7.270  12.765
73927SOL     OW23677   0.235  11.342  13.197
73927SOL    HW123678   0.173  11.270  13.201
73927SOL    HW223679   0.228  11.386  13.282
73928SOL     OW23680   5.237   9.905  13.309
73928SOL    HW123681   5.151   9.863  13.310
73928SOL    HW223682   5.256   9.920  13.217
73929SOL     OW23683   4.664   1.930   7.411
73929SOL    HW123684   4.655   1.972   7.325
73929SOL    HW223685   4.708   1.996   7.465
73930SOL     OW23686  13.486   1.722  11.861
73930SOL    HW123687  13.546   1.672  11.806
73930SOL    HW223688  13.442   1.782  11.800
73931SOL     OW23689   2.769   9.421   7.585
73931SOL    HW123690   2.783   9.360   7.512
73931SOL    HW223691   2.804   9.504   7.554
73932SOL     OW23692   5.415   4.912   7.452
73932SOL    HW123693   5.412   4.829   7.404
73932SOL    HW223694   5.326   4.946   7.446
73933SOL     OW23695  12.950   5.392  13.695
73933SOL    HW123696  12.859   5.408  13.716
73933SOL    HW223697  12.995   5.474  13.717
73934SOL     OW23698  13.917   0.646   2.882
73934SOL    HW123699  13.867   0.611   2.956
73934SOL    HW223700  14.003   0.664   2.918
73935SOL     OW23701   5.598   1.777   5.823
73935SOL    HW123702   5.590   1.872   5.826
73935SOL    HW223703   5.516   1.747   5.783
73936SOL     OW23704  13.318   7.404   5.331
73936SOL    HW123705  13.395   7.353   5.305
73936SOL    HW223706  13.329   7.488   5.288
73937SOL     OW23707  12.554  11.744   5.882
73937SOL    HW123708  12.481  11.791   5.844
73937SOL    HW223709  12.631  11.796   5.859
73938SOL     OW23710   2.270   1.945   1.782
73938SOL    HW123711   2.336   1.963   1.715
73938SOL    HW223712   2.283   2.014   1.847
73939SOL     OW23713  12.513   1.490   7.236
73939SOL    HW123714  12.483   1.419   7.179
73939SOL    HW223715  12.539   1.560   7.175
73940SOL     OW23716   5.326  14.199   7.737
73940SOL    HW123717   5.310  14.180   7.829
73940SOL    HW223718   5.365  14.118   7.702
73941SOL     OW23719   1.411   6.769   0.075
73941SOL    HW123720   1.475   6.698   0.074
73941SOL    HW223721   1.448   6.836   0.017
73942SOL     OW23722   4.374  13.928   7.058
73942SOL    HW123723   4.374  13.853   7.118
73942SOL    HW223724   4.458  13.923   7.014
73943SOL     OW23725   8.362   8.876  13.320
73943SOL    HW123726   8.424   8.944  13.296
73943SOL    HW223727   8.328   8.844  13.236
73944SOL     OW23728   9.669  13.934   9.253
73944SOL    HW123729   9.762  13.916   9.268
73944SOL    HW223730   9.664  13.967   9.163
73945SOL     OW23731   4.521   4.026   5.801
73945SOL    HW123732   4.483   4.050   5.716
73945SOL    HW223733   4.471   4.077   5.864
73946SOL     OW23734   7.472   2.256   8.586
73946SOL    HW123735   7.558   2.215   8.585
73946SOL    HW223736   7.470   2.306   8.668
73947SOL     OW23737   9.886   5.077   2.974
73947SOL    HW123738   9.853   5.148   2.919
73947SOL    HW223739   9.935   5.121   3.043
73948SOL     OW23740   0.572   8.941  10.735
73948SOL    HW123741   0.607   8.946  10.824
73948SOL    HW223742   0.601   9.022  10.694
73949SOL     OW23743  11.528   7.598  14.240
73949SOL    HW123744  11.487   7.647  14.169
73949SOL    HW223745  11.454   7.564  14.292
73950SOL     OW23746  14.495   8.815  12.955
73950SOL    HW123747  14.404   8.792  12.971
73950SOL    HW223748  14.491   8.884  12.889
73951SOL     OW23749   3.929   6.643   7.883
73951SOL    HW123750   3.892   6.602   7.961
73951SOL    HW223751   4.021   6.659   7.904
73952SOL     OW23752  12.929  13.925  12.736
73952SOL    HW123753  12.981  13.887  12.666
73952SOL    HW223754  12.993  13.959  12.798
73953SOL     OW23755   3.124   7.758   5.601
73953SOL    HW123756   3.191   7.745   5.534
73953SOL    HW223757   3.125   7.676   5.651
73954SOL     OW23758   7.863   9.290  13.518
73954SOL    HW123759   7.838   9.252  13.433
73954SOL    HW223760   7.941   9.341  13.499
73955SOL     OW23761   0.376   1.815  10.235
73955SOL    HW123762   0.472   1.813  10.237
73955SOL    HW223763   0.354   1.905  10.256
73956SOL     OW23764  12.638  10.978   8.034
73956SOL    HW123765  12.697  10.907   8.060
73956SOL    HW223766  12.577  10.986   8.107
73957SOL     OW23767  12.788  11.141   5.043
73957SOL    HW123768  12.818  11.200   5.111
73957SOL    HW223769  12.867  11.116   4.995
73958SOL     OW23770  11.683   9.656   7.269
73958SOL    HW123771  11.621   9.613   7.327
73958SOL    HW223772  11.675   9.610   7.186
73959SOL     OW23773   0.180  12.260   2.013
73959SOL    HW123774   0.193  12.194   1.944
73959SOL    HW223775   0.144  12.211   2.087
73960SOL     OW23776  14.220   2.622  12.394
73960SOL    HW123777  14.191   2.708  12.426
73960SOL    HW223778  14.142   2.585  12.353
73961SOL     OW23779  12.709   6.101   9.563
73961SOL    HW123780  12.632   6.057   9.599
73961SOL    HW223781  12.687   6.194   9.565
73962SOL     OW23782  11.152   8.974   7.768
73962SOL    HW123783  11.065   8.964   7.729
73962SOL    HW223784  11.207   8.912   7.720
73963SOL     OW23785   9.910   2.275   3.746
73963SOL    HW123786   9.837   2.225   3.779
73963SOL    HW223787   9.871   2.338   3.685
73964SOL     OW23788  14.048   4.837   9.745
73964SOL    HW123789  14.043   4.908   9.810
73964SOL    HW223790  14.027   4.758   9.794
73965SOL     OW23791   0.309  12.465   4.311
73965SOL    HW123792   0.226  12.472   4.265
73965SOL    HW223793   0.373  12.445   4.242
73966SOL     OW23794  10.783   8.607   6.890
73966SOL    HW123795  10.702   8.580   6.847
73966SOL    HW223796  10.813   8.529   6.935
73967SOL     OW23797   6.815  13.999   7.241
73967SOL    HW123798   6.853  14.082   7.271
73967SOL    HW223799   6.749  13.978   7.307
73968SOL     OW23800   6.451   9.831   7.379
73968SOL    HW123801   6.385   9.792   7.321
73968SOL    HW223802   6.416   9.918   7.399
73969SOL     OW23803   3.311  11.647   1.066
73969SOL    HW123804   3.220  11.653   1.097
73969SOL    HW223805   3.364  11.661   1.144
73970SOL     OW23806   9.347  11.159  12.030
73970SOL    HW123807   9.311  11.248  12.023
73970SOL    HW223808   9.310  11.125  12.111
73971SOL     OW23809   1.134  11.995   0.455
73971SOL    HW123810   1.168  12.045   0.381
73971SOL    HW223811   1.082  12.058   0.505
73972SOL     OW23812   2.492   5.597   9.425
73972SOL    HW123813   2.585   5.617   9.432
73972SOL    HW223814   2.448   5.676   9.455
73973SOL     OW23815   9.498   5.679  10.639
73973SOL    HW123816   9.418   5.723  10.666
73973SOL    HW223817   9.568   5.736  10.669
73974SOL     OW23818   5.915   3.010  13.098
73974SOL    HW123819   5.989   2.950  13.088
73974SOL    HW223820   5.940   3.087  13.047
73975SOL     OW23821  13.736   4.699  11.752
73975SOL    HW123822  13.732   4.604  11.749
73975SOL    HW223823  13.700   4.722  11.838
73976SOL     OW23824   9.897  13.528  11.702
73976SOL    HW123825   9.937  13.453  11.659
73976SOL    HW223826   9.828  13.491  11.756
73977SOL     OW23827  13.725  14.638   1.436
73977SOL    HW123828  13.670  14.561   1.418
73977SOL    HW223829  13.815  14.605   1.430
73978SOL     OW23830   5.633  14.794   4.238
73978SOL    HW123831   5.703  14.846   4.278
73978SOL    HW223832   5.646  14.705   4.273
73979SOL     OW23833  12.444   3.955   5.615
73979SOL    HW123834  12.472   4.042   5.585
73979SOL    HW223835  12.505   3.934   5.686
73980SOL     OW23836   2.724  10.585   1.024
73980SOL    HW123837   2.662  10.513   1.025
73980SOL    HW223838   2.702  10.637   1.101
73981SOL     OW23839   5.110   5.791   0.586
73981SOL    HW123840   5.171   5.764   0.517
73981SOL    HW223841   5.166   5.830   0.653
73982SOL     OW23842  11.106   2.729   6.639
73982SOL    HW123843  11.020   2.703   6.672
73982SOL    HW223844  11.095   2.736   6.545
73983SOL     OW23845  11.722  14.091   8.542
73983SOL    HW123846  11.707  14.180   8.508
73983SOL    HW223847  11.786  14.104   8.612
73984SOL     OW23848   5.329   1.634  14.662
73984SOL    HW123849   5.324   1.573  14.589
73984SOL    HW223850   5.274   1.708  14.635
73985SOL     OW23851  11.119   2.882  12.396
73985SOL    HW123852  11.086   2.905  12.483
73985SOL    HW223853  11.149   2.965  12.359
73986SOL     OW23854   0.263  11.117   4.018
73986SOL    HW123855   0.318  11.089   3.946
73986SOL    HW223856   0.318  11.107   4.096
73987SOL     OW23857  13.483  12.559   4.632
73987SOL    HW123858  13.462  12.653   4.626
73987SOL    HW223859  13.573  12.556   4.664
73988SOL     OW23860  13.262   8.636   2.911
73988SOL    HW123861  13.216   8.720   2.906
73988SOL    HW223862  13.350   8.659   2.940
73989SOL     OW23863  13.392   9.113  12.217
73989SOL    HW123864  13.306   9.133  12.179
73989SOL    HW223865  13.400   9.018  12.210
73990SOL     OW23866   0.041   2.104  10.150
73990SOL    HW123867   0.060   2.117  10.057
73990SOL    HW223868   0.126   2.115  10.194
73991SOL     OW23869   5.082   9.678   5.910
73991SOL    HW123870   4.986   9.678   5.909
73991SOL    HW223871   5.107   9.699   5.820
73992SOL     OW23872  10.111   3.441   7.895
73992SOL    HW123873  10.175   3.470   7.961
73992SOL    HW223874  10.071   3.522   7.864
73993SOL     OW23875   7.898   4.062   1.514
73993SOL    HW123876   7.926   4.134   1.457
73993SOL    HW223877   7.932   4.085   1.600
73994SOL     OW23878   5.169   4.760   8.667
73994SOL    HW123879   5.193   4.708   8.590
73994SOL    HW223880   5.169   4.697   8.739
73995SOL     OW23881   1.648   8.982   1.364
73995SOL    HW123882   1.641   9.068   1.322
73995SOL    HW223883   1.689   9.000   1.448
73996SOL     OW23884   6.861   2.519   8.880
73996SOL    HW123885   6.875   2.463   8.804
73996SOL    HW223886   6.888   2.466   8.955
73997SOL     OW23887   5.982  11.657   9.619
73997SOL    HW123888   6.010  11.656   9.711
73997SOL    HW223889   5.892  11.689   9.622
73998SOL     OW23890  14.571   0.371   0.493
73998SOL    HW123891  14.561   0.314   0.417
73998SOL    HW223892  14.544   0.458   0.462
73999SOL     OW23893   4.594  14.670  13.765
73999SOL    HW123894   4.685  14.663  13.795
73999SOL    HW223895   4.587  14.759  13.732
74000SOL     OW23896   5.839   9.846   2.085
74000SOL    HW123897   5.749   9.865   2.061
74000SOL    HW223898   5.844   9.866   2.178
74001SOL     OW23899   9.214   0.687  10.590
74001SOL    HW123900   9.281   0.671  10.523
74001SOL    HW223901   9.264   0.696  10.671
74002SOL     OW23902   5.360   2.283   7.633
74002SOL    HW123903   5.357   2.339   7.556
74002SOL    HW223904   5.353   2.194   7.599
74003SOL     OW23905  10.228   5.623   1.519
74003SOL    HW123906  10.137   5.594   1.513
74003SOL    HW223907  10.276   5.544   1.546
74004SOL     OW23908  13.920   6.659  13.142
74004SOL    HW123909  13.876   6.744  13.130
74004SOL    HW223910  13.882   6.603  13.074
74005SOL     OW23911  11.238   5.358   6.807
74005SOL    HW123912  11.152   5.359   6.849
74005SOL    HW223913  11.257   5.265   6.794
74006SOL     OW23914  12.434  12.656   5.964
74006SOL    HW123915  12.462  12.568   5.988
74006SOL    HW223916  12.481  12.675   5.883
74007SOL     OW23917   7.201   8.424   1.882
74007SOL    HW123918   7.122   8.474   1.865
74007SOL    HW223919   7.170   8.346   1.930
74008SOL     OW23920  14.049   2.597   2.357
74008SOL    HW123921  13.999   2.515   2.354
74008SOL    HW223922  14.137   2.573   2.329
74009SOL     OW23923  14.770  14.448  13.007
74009SOL    HW123924  14.737  14.400  12.931
74009SOL    HW223925  14.865  14.445  12.997
74010SOL     OW23926   3.502   9.481  11.077
74010SOL    HW123927   3.542   9.434  11.004
74010SOL    HW223928   3.451   9.415  11.124
74011SOL     OW23929   8.769   9.629   5.973
74011SOL    HW123930   8.865   9.629   5.973
74011SOL    HW223931   8.745   9.650   6.063
74012SOL     OW23932   1.857   1.854   3.041
74012SOL    HW123933   1.881   1.944   3.021
74012SOL    HW223934   1.773   1.841   2.995
74013SOL     OW23935   6.068   0.089   0.874
74013SOL    HW123936   6.089   0.146   0.947
74013SOL    HW223937   6.046   0.149   0.803
74014SOL     OW23938   4.425  12.806   9.685
74014SOL    HW123939   4.382  12.825   9.601
74014SOL    HW223940   4.510  12.850   9.679
74015SOL     OW23941   7.370   4.199   1.586
74015SOL    HW123942   7.374   4.161   1.499
74015SOL    HW223943   7.392   4.292   1.573
74016SOL     OW23944   0.297   3.842  11.257
74016SOL    HW123945   0.314   3.880  11.343
74016SOL    HW223946   0.258   3.912  11.206
74017SOL     OW23947   3.593   5.249   1.061
74017SOL    HW123948   3.672   5.230   1.012
74017SOL    HW223949   3.622   5.301   1.136
74018SOL     OW23950   9.882  10.525  10.648
74018SOL    HW123951   9.942  10.480  10.588
74018SOL    HW223952   9.809  10.464  10.659
74019SOL     OW23953   1.903  10.589   5.652
74019SOL    HW123954   1.811  10.598   5.625
74019SOL    HW223955   1.912  10.497   5.674
74020SOL     OW23956  11.418  10.191  10.360
74020SOL    HW123957  11.327  10.176  10.338
74020SOL    HW223958  11.420  10.191  10.456
74021SOL     OW23959   9.525  10.034   2.963
74021SOL    HW123960   9.537  10.018   3.056
74021SOL    HW223961   9.474   9.960   2.931
74022SOL     OW23962   5.645  12.416   5.636
74022SOL    HW123963   5.692  12.466   5.569
74022SOL    HW223964   5.629  12.479   5.706
74023SOL     OW23965   9.474   1.888   7.033
74023SOL    HW123966   9.394   1.836   7.041
74023SOL    HW223967   9.540   1.839   7.082
74024SOL     OW23968   7.157   2.105   5.129
74024SOL    HW123969   7.071   2.123   5.091
74024SOL    HW223970   7.207   2.185   5.114
74025SOL     OW23971  10.982   0.555   1.426
74025SOL    HW123972  10.970   0.615   1.500
74025SOL    HW223973  10.901   0.506   1.420
74026SOL     OW23974   5.310  13.846   7.351
74026SOL    HW123975   5.312  13.939   7.374
74026SOL    HW223976   5.226  13.815   7.387
74027SOL     OW23977   2.238   2.930   5.422
74027SOL    HW123978   2.242   2.881   5.340
74027SOL    HW223979   2.286   2.875   5.484
74028SOL     OW23980  13.757   6.136  11.619
74028SOL    HW123981  13.845   6.119  11.653
74028SOL    HW223982  13.765   6.127  11.524
74029SOL     OW23983   4.970  10.489   8.716
74029SOL    HW123984   4.906  10.448   8.658
74029SOL    HW223985   5.018  10.550   8.660
74030SOL     OW23986  14.613   4.282   5.321
74030SOL    HW123987  14.676   4.264   5.390
74030SOL    HW223988  14.543   4.218   5.334
74031SOL     OW23989  13.956   5.552   6.597
74031SOL    HW123990  13.988   5.545   6.687
74031SOL    HW223991  13.912   5.469   6.580
74032SOL     OW23992  10.424  11.524   5.957
74032SOL    HW123993  10.391  11.439   5.928
74032SOL    HW223994  10.478  11.505   6.033
74033SOL     OW23995   8.727   7.406   3.119
74033SOL    HW123996   8.634   7.423   3.108
74033SOL    HW223997   8.739   7.400   3.214
74034SOL     OW23998   6.794   4.329   8.621
74034SOL    HW123999   6.821   4.372   8.540
74034SOL    HW224000   6.708   4.292   8.601
74035SOL     OW24001  12.716   5.862  14.183
74035SOL    HW124002  12.811   5.868  14.168
74035SOL    HW224003  12.679   5.845  14.097
74036SOL     OW24004   8.714  13.651   6.205
74036SOL    HW124005   8.622  13.631   6.189
74036SOL    HW224006   8.715  13.746   6.219
74037SOL     OW24007  14.289   2.243   9.212
74037SOL    HW124008  14.313   2.326   9.171
74037SOL    HW224009  14.195   2.250   9.227
74038SOL     OW24010   7.145   4.134   8.875
74038SOL    HW124011   7.126   4.054   8.924
74038SOL    HW224012   7.150   4.202   8.943
74039SOL     OW24013   6.272  11.943   1.518
74039SOL    HW124014   6.292  11.874   1.581
74039SOL    HW224015   6.218  11.899   1.452
74040SOL     OW24016  14.385   1.307   5.969
74040SOL    HW124017  14.374   1.239   5.903
74040SOL    HW224018  14.352   1.387   5.928
74041SOL     OW24019  11.895   3.480   1.842
74041SOL    HW124020  11.973   3.493   1.897
74041SOL    HW224021  11.827   3.455   1.904
74042SOL     OW24022   4.234   5.370   6.857
74042SOL    HW124023   4.312   5.329   6.895
74042SOL    HW224024   4.241   5.352   6.763
74043SOL     OW24025   7.054   6.089  10.924
74043SOL    HW124026   7.030   6.099  11.016
74043SOL    HW224027   7.028   6.172  10.884
74044SOL     OW24028   2.375   2.634   1.065
74044SOL    HW124029   2.399   2.552   1.023
74044SOL    HW224030   2.283   2.624   1.089
74045SOL     OW24031   6.334   7.134   8.975
74045SOL    HW124032   6.292   7.100   9.054
74045SOL    HW224033   6.368   7.056   8.930
74046SOL     OW24034   1.240  10.159   7.643
74046SOL    HW124035   1.208  10.181   7.555
74046SOL    HW224036   1.320  10.109   7.627
74047SOL     OW24037   4.222  10.468   9.841
74047SOL    HW124038   4.228  10.561   9.819
74047SOL    HW224039   4.300  10.450   9.894
74048SOL     OW24040   9.856   2.264  13.738
74048SOL    HW124041   9.774   2.249  13.690
74048SOL    HW224042   9.830   2.262  13.830
74049SOL     OW24043   2.051  13.646   3.783
74049SOL    HW124044   1.990  13.612   3.718
74049SOL    HW224045   2.066  13.737   3.757
74050SOL     OW24046  11.481  14.175  12.090
74050SOL    HW124047  11.494  14.122  12.011
74050SOL    HW224048  11.430  14.119  12.148
74051SOL     OW24049  11.006   0.377  12.498
74051SOL    HW124050  11.063   0.432  12.551
74051SOL    HW224051  11.061   0.350  12.424
74052SOL     OW24052   1.411   6.917   6.540
74052SOL    HW124053   1.497   6.955   6.559
74052SOL    HW224054   1.378   6.889   6.625
74053SOL     OW24055  14.490   0.169   9.047
74053SOL    HW124056  14.566   0.111   9.045
74053SOL    HW224057  14.463   0.169   9.139
74054SOL     OW24058   7.647   7.470   0.756
74054SOL    HW124059   7.732   7.513   0.742
74054SOL    HW224060   7.616   7.449   0.667
74055SOL     OW24061   5.007  11.521   0.372
74055SOL    HW124062   4.917  11.550   0.385
74055SOL    HW224063   5.061  11.592   0.407
74056SOL     OW24064  12.434   6.347  11.398
74056SOL    HW124065  12.373   6.407  11.441
74056SOL    HW224066  12.391   6.261  11.405
74057SOL     OW24067  14.697   3.667   3.941
74057SOL    HW124068  14.707   3.727   3.867
74057SOL    HW224069  14.782   3.669   3.985
74058SOL     OW24070   0.846   3.250  12.201
74058SOL    HW124071   0.751   3.244  12.197
74058SOL    HW224072   0.877   3.214  12.118
74059SOL     OW24073   0.785  13.713  11.507
74059SOL    HW124074   0.764  13.805  11.524
74059SOL    HW224075   0.881  13.710  11.508
74060SOL     OW24076   1.886   2.361   4.628
74060SOL    HW124077   1.859   2.369   4.537
74060SOL    HW224078   1.923   2.446   4.650
74061SOL     OW24079   3.429  13.702   4.066
74061SOL    HW124080   3.373  13.671   4.138
74061SOL    HW224081   3.368  13.739   4.002
74062SOL     OW24082   3.638   9.840   4.097
74062SOL    HW124083   3.666   9.781   4.027
74062SOL    HW224084   3.603   9.783   4.165
74063SOL     OW24085   8.768   5.232   5.103
74063SOL    HW124086   8.780   5.319   5.141
74063SOL    HW224087   8.723   5.182   5.171
74064SOL     OW24088  11.503   9.486   8.496
74064SOL    HW124089  11.438   9.535   8.446
74064SOL    HW224090  11.587   9.519   8.464
74065SOL     OW24091   4.405  14.275   4.616
74065SOL    HW124092   4.324  14.229   4.635
74065SOL    HW224093   4.419  14.262   4.522
74066SOL     OW24094   1.502   0.572   6.463
74066SOL    HW124095   1.540   0.510   6.524
74066SOL    HW224096   1.532   0.658   6.493
74067SOL     OW24097   1.847   3.483   6.805
74067SOL    HW124098   1.934   3.503   6.839
74067SOL    HW224099   1.817   3.408   6.856
74068SOL     OW24100   4.991   3.282  13.054
74068SOL    HW124101   4.972   3.193  13.025
74068SOL    HW224102   5.078   3.275  13.095
74069SOL     OW24103  10.047   0.083   6.784
74069SOL    HW124104  10.091   0.166   6.798
74069SOL    HW224105  10.087   0.024   6.848
74070SOL     OW24106   3.816   1.944   0.066
74070SOL    HW124107   3.777   1.857   0.058
74070SOL    HW224108   3.887   1.933   0.129
74071SOL     OW24109  12.574  13.402   3.965
74071SOL    HW124110  12.580  13.353   3.882
74071SOL    HW224111  12.551  13.491   3.938
74072SOL     OW24112   9.688   7.316   2.196
74072SOL    HW124113   9.670   7.370   2.273
74072SOL    HW224114   9.616   7.254   2.192
74073SOL     OW24115  10.368   0.988   8.536
74073SOL    HW124116  10.410   1.053   8.480
74073SOL    HW224117  10.371   1.026   8.624
74074SOL     OW24118  11.716   6.838   1.658
74074SOL    HW124119  11.669   6.890   1.723
74074SOL    HW224120  11.787   6.895   1.629
74075SOL     OW24121   8.581   6.275   2.421
74075SOL    HW124122   8.652   6.233   2.372
74075SOL    HW224123   8.501   6.244   2.377
74076SOL     OW24124   4.283   2.994   0.476
74076SOL    HW124125   4.294   2.902   0.455
74076SOL    HW224126   4.199   3.000   0.520
74077SOL     OW24127   7.855   6.409   3.226
74077SOL    HW124128   7.845   6.471   3.154
74077SOL    HW224129   7.801   6.446   3.297
74078SOL     OW24130  11.123  10.749   1.566
74078SOL    HW124131  11.028  10.748   1.554
74078SOL    HW224132  11.144  10.840   1.583
74079SOL     OW24133  13.831   5.022   0.848
74079SOL    HW124134  13.833   5.117   0.846
74079SOL    HW224135  13.857   4.999   0.937
74080SOL     OW24136   6.132   6.183   9.810
74080SOL    HW124137   6.189   6.120   9.855
74080SOL    HW224138   6.183   6.264   9.808
74081SOL     OW24139   0.689  12.261  10.661
74081SOL    HW124140   0.722  12.255  10.751
74081SOL    HW224141   0.733  12.338  10.624
74082SOL     OW24142  12.045   2.160   6.383
74082SOL    HW124143  12.111   2.222   6.352
74082SOL    HW224144  12.081   2.074   6.362
74083SOL     OW24145   7.035   5.402   8.637
74083SOL    HW124146   6.945   5.429   8.616
74083SOL    HW224147   7.089   5.448   8.572
74084SOL     OW24148   0.224   0.232   4.473
74084SOL    HW124149   0.146   0.285   4.458
74084SOL    HW224150   0.197   0.169   4.540
74085SOL     OW24151   2.058  13.306   7.489
74085SOL    HW124152   2.063  13.258   7.406
74085SOL    HW224153   1.972  13.281   7.525
74086SOL     OW24154   3.333   6.700   4.619
74086SOL    HW124155   3.403   6.645   4.583
74086SOL    HW224156   3.264   6.639   4.642
74087SOL     OW24157  11.099   6.129  10.719
74087SOL    HW124158  11.153   6.196  10.678
74087SOL    HW224159  11.016   6.133  10.672
74088SOL     OW24160   0.726  10.750  12.116
74088SOL    HW124161   0.800  10.721  12.062
74088SOL    HW224162   0.766  10.797  12.189
74089SOL     OW24163   1.316   7.287   6.676
74089SOL    HW124164   1.292   7.198   6.650
74089SOL    HW224165   1.410   7.293   6.659
74090SOL     OW24166   9.143   2.169   8.168
74090SOL    HW124167   9.192   2.251   8.174
74090SOL    HW224168   9.211   2.101   8.161
74091SOL     OW24169   0.334   8.754   4.722
74091SOL    HW124170   0.385   8.794   4.792
74091SOL    HW224171   0.358   8.661   4.725
74092SOL     OW24172   8.804  12.672  12.842
74092SOL    HW124173   8.849  12.599  12.800
74092SOL    HW224174   8.850  12.685  12.925
74093SOL     OW24175   9.634   1.817   7.873
74093SOL    HW124176   9.722   1.850   7.853
74093SOL    HW224177   9.578   1.895   7.868
74094SOL     OW24178   2.173   9.673  14.508
74094SOL    HW124179   2.261   9.678  14.547
74094SOL    HW224180   2.183   9.614  14.434
74095SOL     OW24181   1.447   3.083   0.546
74095SOL    HW124182   1.394   3.157   0.573
74095SOL    HW224183   1.453   3.027   0.623
74096SOL     OW24184   3.846  11.574  11.764
74096SOL    HW124185   3.798  11.630  11.825
74096SOL    HW224186   3.937  11.579  11.794
74097SOL     OW24187   9.659   8.039   7.933
74097SOL    HW124188   9.705   8.035   7.849
74097SOL    HW224189   9.607   8.119   7.929
74098SOL     OW24190   9.943   9.079   6.673
74098SOL    HW124191   9.950   8.984   6.678
74098SOL    HW224192   9.906   9.105   6.757
74099SOL     OW24193   3.114   5.858   3.700
74099SOL    HW124194   3.142   5.808   3.777
74099SOL    HW224195   3.110   5.949   3.730
74100SOL     OW24196   5.883   5.635  11.093
74100SOL    HW124197   5.968   5.656  11.131
74100SOL    HW224198   5.878   5.539  11.097
74101SOL     OW24199   3.468  11.833   2.200
74101SOL    HW124200   3.529  11.856   2.130
74101SOL    HW224201   3.438  11.745   2.178
74102SOL     OW24202  13.384   9.113  14.270
74102SOL    HW124203  13.350   9.199  14.293
74102SOL    HW224204  13.374   9.108  14.175
74103SOL     OW24205   8.794  14.714   5.133
74103SOL    HW124206   8.796  14.658   5.055
74103SOL    HW224207   8.743  14.790   5.105
74104SOL     OW24208  13.038   1.255   7.299
74104SOL    HW124209  13.043   1.164   7.329
74104SOL    HW224210  12.950   1.283   7.325
74105SOL     OW24211   0.087  14.795   8.172
74105SOL    HW124212   0.016  14.785   8.236
74105SOL    HW224213   0.133  14.711   8.174
74106SOL     OW24214  13.853  14.666   9.043
74106SOL    HW124215  13.906  14.683   8.966
74106SOL    HW224216  13.864  14.572   9.060
74107SOL     OW24217  12.847   2.625  10.606
74107SOL    HW124218  12.850   2.588  10.694
74107SOL    HW224219  12.900   2.565  10.553
74108SOL     OW24220   9.440   8.323   8.969
74108SOL    HW124221   9.368   8.382   8.992
74108SOL    HW224222   9.514   8.356   9.019
74109SOL     OW24223   3.020   9.771   4.556
74109SOL    HW124224   3.076   9.781   4.633
74109SOL    HW224225   3.081   9.763   4.483
74110SOL     OW24226  12.994  12.946   0.366
74110SOL    HW124227  12.961  12.860   0.337
74110SOL    HW224228  12.919  13.005   0.355
74111SOL     OW24229   7.989   1.731  11.090
74111SOL    HW124230   7.930   1.789  11.138
74111SOL    HW224231   7.935   1.693  11.021
74112SOL     OW24232   0.761   0.213   3.262
74112SOL    HW124233   0.741   0.120   3.251
74112SOL    HW224234   0.738   0.252   3.177
74113SOL     OW24235  10.842   5.644   0.136
74113SOL    HW124236  10.871   5.557   0.107
74113SOL    HW224237  10.749   5.634   0.154
74114SOL     OW24238   8.083   1.543   8.212
74114SOL    HW124239   8.064   1.451   8.231
74114SOL    HW224240   8.137   1.572   8.285
74115SOL     OW24241  12.324   2.745  14.556
74115SOL    HW124242  12.318   2.824  14.610
74115SOL    HW224243  12.346   2.675  14.617
74116SOL     OW24244   7.651   6.347  14.791
74116SOL    HW124245   7.716   6.362  14.723
74116SOL    HW224246   7.576   6.310  14.745
74117SOL     OW24247   0.918   4.042   0.000
74117SOL    HW124248   0.829   4.018  14.858
74117SOL    HW224249   0.908   4.111   0.066
74118SOL     OW24250   5.026  13.380   5.267
74118SOL    HW124251   4.981  13.304   5.231
74118SOL    HW224252   5.111  13.380   5.223
74119SOL     OW24253  11.194   5.829   6.523
74119SOL    HW124254  11.126   5.778   6.567
74119SOL    HW224255  11.209   5.904   6.580
74120SOL     OW24256   7.804   6.958  11.513
74120SOL    HW124257   7.743   6.917  11.452
74120SOL    HW224258   7.784   7.052  11.508
74121SOL     OW24259  10.389  14.534   9.974
74121SOL    HW124260  10.350  14.482  10.043
74121SOL    HW224261  10.482  14.538   9.997
74122SOL     OW24262  12.571   5.748   7.067
74122SOL    HW124263  12.548   5.678   7.006
74122SOL    HW224264  12.541   5.828   7.025
74123SOL     OW24265   4.425   3.829   2.140
74123SOL    HW124266   4.347   3.824   2.194
74123SOL    HW224267   4.455   3.738   2.133
74124SOL     OW24268   5.381  10.957  14.715
74124SOL    HW124269   5.431  10.903  14.777
74124SOL    HW224270   5.290  10.930  14.728
74125SOL     OW24271   1.357   2.639   6.931
74125SOL    HW124272   1.327   2.579   6.999
74125SOL    HW224273   1.318   2.723   6.955
74126SOL     OW24274  10.242   8.783   8.668
74126SOL    HW124275  10.295   8.774   8.589
74126SOL    HW224276  10.169   8.722   8.656
74127SOL     OW24277   0.396  13.563   9.672
74127SOL    HW124278   0.369  13.483   9.626
74127SOL    HW224279   0.464  13.601   9.617
74128SOL     OW24280  11.370  13.157   0.884
74128SOL    HW124281  11.300  13.121   0.939
74128SOL    HW224282  11.422  13.080   0.859
74129SOL     OW24283   6.088   1.743  13.007
74129SOL    HW124284   6.101   1.837  13.021
74129SOL    HW224285   6.033   1.716  13.081
74130SOL     OW24286   6.882  12.916   3.030
74130SOL    HW124287   6.951  12.913   2.964
74130SOL    HW224288   6.922  12.874   3.107
74131SOL     OW24289  14.532   9.228   9.087
74131SOL    HW124290  14.541   9.136   9.061
74131SOL    HW224291  14.463   9.263   9.031
74132SOL     OW24292   2.346  10.314   3.031
74132SOL    HW124293   2.290  10.391   3.025
74132SOL    HW224294   2.390  10.309   2.946
74133SOL     OW24295   3.906   6.627   5.646
74133SOL    HW124296   3.927   6.626   5.553
74133SOL    HW224297   3.953   6.702   5.681
74134SOL     OW24298   9.089  13.689   8.702
74134SOL    HW124299   9.055  13.604   8.730
74134SOL    HW224300   9.172  13.669   8.660
74135SOL     OW24301  13.982  14.526   7.105
74135SOL    HW124302  14.059  14.577   7.078
74135SOL    HW224303  13.927  14.589   7.153
74136SOL     OW24304   7.377   3.972   0.164
74136SOL    HW124305   7.355   3.991   0.073
74136SOL    HW224306   7.414   3.884   0.162
74137SOL     OW24307   7.470  10.308   8.868
74137SOL    HW124308   7.396  10.271   8.821
74137SOL    HW224309   7.545  10.291   8.811
74138SOL     OW24310   8.485   3.346   2.054
74138SOL    HW124311   8.442   3.291   2.120
74138SOL    HW224312   8.462   3.436   2.078
74139SOL     OW24313  12.048  11.982   8.556
74139SOL    HW124314  12.061  12.077   8.556
74139SOL    HW224315  12.072  11.955   8.467
74140SOL     OW24316  13.753  13.537   9.553
74140SOL    HW124317  13.783  13.622   9.584
74140SOL    HW224318  13.663  13.529   9.587
74141SOL     OW24319   1.679   1.249   2.104
74141SOL    HW124320   1.680   1.164   2.149
74141SOL    HW224321   1.746   1.241   2.037
74142SOL     OW24322   3.665   2.263  11.556
74142SOL    HW124323   3.593   2.326  11.564
74142SOL    HW224324   3.637   2.188  11.608
74143SOL     OW24325   1.639   1.081   9.397
74143SOL    HW124326   1.608   1.128   9.320
74143SOL    HW224327   1.594   1.123   9.470
74144SOL     OW24328  13.011   6.124   9.503
74144SOL    HW124329  13.009   6.188   9.431
74144SOL    HW224330  12.919   6.104   9.518
74145SOL     OW24331   6.024   1.639   2.440
74145SOL    HW124332   6.108   1.671   2.473
74145SOL    HW224333   5.962   1.709   2.458
74146SOL     OW24334  14.332  14.821   8.781
74146SOL    HW124335  14.319   0.024   8.823
74146SOL    HW224336  14.410  14.832   8.727
74147SOL     OW24337  12.417   6.514   8.012
74147SOL    HW124338  12.471   6.448   8.056
74147SOL    HW224339  12.468   6.537   7.934
74148SOL     OW24340  13.059   9.935   9.808
74148SOL    HW124341  13.086  10.026   9.820
74148SOL    HW224342  13.131   9.895   9.758
74149SOL     OW24343   2.798   8.160   5.732
74149SOL    HW124344   2.828   8.238   5.686
74149SOL    HW224345   2.845   8.088   5.690
74150SOL     OW24346   0.685   7.230   6.951
74150SOL    HW124347   0.600   7.188   6.964
74150SOL    HW224348   0.690   7.297   7.019
74151SOL     OW24349   6.536   0.062   3.833
74151SOL    HW124350   6.486   0.110   3.900
74151SOL    HW224351   6.601   0.126   3.802
74152SOL     OW24352  11.306   0.066   3.699
74152SOL    HW124353  11.376   0.016   3.658
74152SOL    HW224354  11.266   0.005   3.761
74153SOL     OW24355   7.863   1.151  13.943
74153SOL    HW124356   7.913   1.230  13.922
74153SOL    HW224357   7.928   1.089  13.976
74154SOL     OW24358  11.866  14.141   3.005
74154SOL    HW124359  11.820  14.069   3.048
74154SOL    HW224360  11.798  14.189   2.958
74155SOL     OW24361   8.780   4.738  14.418
74155SOL    HW124362   8.697   4.759  14.374
74155SOL    HW224363   8.757   4.737  14.511
74156SOL     OW24364  10.652   5.803   0.483
74156SOL    HW124365  10.705   5.839   0.555
74156SOL    HW224366  10.656   5.708   0.496
74157SOL     OW24367   4.989   9.844   5.198
74157SOL    HW124368   4.895   9.858   5.185
74157SOL    HW224369   5.027   9.931   5.198
74158SOL     OW24370   3.423  14.512  13.107
74158SOL    HW124371   3.355  14.577  13.089
74158SOL    HW224372   3.413  14.492  13.200
74159SOL     OW24373  12.605   2.402  10.938
74159SOL    HW124374  12.525   2.438  10.977
74159SOL    HW224375  12.669   2.401  11.010
74160SOL     OW24376  14.418   8.917   7.581
74160SOL    HW124377  14.327   8.902   7.555
74160SOL    HW224378  14.462   8.834   7.561
74161SOL     OW24379   2.204   1.570   3.981
74161SOL    HW124380   2.236   1.609   3.900
74161SOL    HW224381   2.241   1.482   3.982
74162SOL     OW24382  13.504  11.523  11.302
74162SOL    HW124383  13.425  11.568  11.331
74162SOL    HW224384  13.536  11.478  11.381
74163SOL     OW24385  12.867  14.315  14.236
74163SOL    HW124386  12.780  14.287  14.266
74163SOL    HW224387  12.849  14.376  14.165
74164SOL     OW24388   8.057   8.610   4.336
74164SOL    HW124389   8.064   8.684   4.396
74164SOL    HW224390   7.981   8.561   4.368
74165SOL     OW24391   5.542  12.053   3.988
74165SOL    HW124392   5.624  12.093   4.017
74165SOL    HW224393   5.519  12.100   3.908
74166SOL     OW24394   5.157   0.213   4.075
74166SOL    HW124395   5.248   0.243   4.081
74166SOL    HW224396   5.126   0.213   4.166
74167SOL     OW24397   1.196  14.265  10.584
74167SOL    HW124398   1.126  14.223  10.634
74167SOL    HW224399   1.152  14.332  10.531
74168SOL     OW24400  10.547  13.155   9.043
74168SOL    HW124401  10.568  13.247   9.062
74168SOL    HW224402  10.488  13.129   9.114
74169SOL     OW24403   5.498   4.074   7.144
74169SOL    HW124404   5.568   4.114   7.195
74169SOL    HW224405   5.442   4.032   7.210
74170SOL     OW24406  11.390   1.183  14.183
74170SOL    HW124407  11.467   1.238  14.195
74170SOL    HW224408  11.337   1.197  14.262
74171SOL     OW24409  10.685  12.250   7.939
74171SOL    HW124410  10.675  12.342   7.914
74171SOL    HW224411  10.613  12.205   7.894
74172SOL     OW24412   3.607   4.528  10.153
74172SOL    HW124413   3.568   4.480  10.226
74172SOL    HW224414   3.636   4.611  10.192
74173SOL     OW24415  13.952   4.288   1.942
74173SOL    HW124416  13.914   4.307   1.856
74173SOL    HW224417  14.008   4.363   1.961
74174SOL     OW24418  13.669  12.660  13.086
74174SOL    HW124419  13.683  12.727  13.019
74174SOL    HW224420  13.754  12.617  13.095
74175SOL     OW24421   6.920  12.514  11.686
74175SOL    HW124422   6.957  12.505  11.598
74175SOL    HW224423   6.899  12.606  11.695
74176SOL     OW24424   4.913  12.788   9.231
74176SOL    HW124425   4.933  12.695   9.217
74176SOL    HW224426   4.822  12.788   9.260
74177SOL     OW24427   8.761   7.101   4.090
74177SOL    HW124428   8.743   7.092   3.997
74177SOL    HW224429   8.813   7.182   4.097
74178SOL     OW24430  10.377  12.046   7.516
74178SOL    HW124431  10.464  12.008   7.501
74178SOL    HW224432  10.384  12.090   7.600
74179SOL     OW24433   5.049  13.493   9.851
74179SOL    HW124434   4.992  13.424   9.817
74179SOL    HW224435   4.989  13.563   9.877
74180SOL     OW24436  10.614   6.833   9.533
74180SOL    HW124437  10.585   6.841   9.624
74180SOL    HW224438  10.590   6.917   9.493
74181SOL     OW24439  13.943   3.307   3.513
74181SOL    HW124440  13.997   3.232   3.489
74181SOL    HW224441  13.970   3.329   3.602
74182SOL     OW24442  13.093   8.894   6.062
74182SOL    HW124443  13.180   8.917   6.096
74182SOL    HW224444  13.094   8.925   5.971
74183SOL     OW24445   0.396   4.071   6.022
74183SOL    HW124446   0.397   3.980   6.055
74183SOL    HW224447   0.486   4.087   5.994
74184SOL     OW24448   5.781   0.147   7.128
74184SOL    HW124449   5.775   0.192   7.213
74184SOL    HW224450   5.750   0.212   7.065
74185SOL     OW24451  12.753   2.509  13.305
74185SOL    HW124452  12.756   2.557  13.222
74185SOL    HW224453  12.674   2.455  13.300
74186SOL     OW24454  14.383  14.757   2.826
74186SOL    HW124455  14.377  14.827   2.761
74186SOL    HW224456  14.444  14.791   2.892
74187SOL     OW24457  13.279   3.731   8.517
74187SOL    HW124458  13.274   3.823   8.541
74187SOL    HW224459  13.315   3.731   8.428
74188SOL     OW24460   3.450   9.206   3.758
74188SOL    HW124461   3.442   9.192   3.852
74188SOL    HW224462   3.514   9.277   3.750
74189SOL     OW24463   0.682  10.466   4.265
74189SOL    HW124464   0.718  10.438   4.349
74189SOL    HW224465   0.590  10.486   4.283
74190SOL     OW24466   3.120   1.842   3.185
74190SOL    HW124467   3.047   1.904   3.192
74190SOL    HW224468   3.081   1.762   3.151
74191SOL     OW24469   0.972  10.219   8.471
74191SOL    HW124470   0.884  10.182   8.468
74191SOL    HW224471   1.011  10.181   8.550
74192SOL     OW24472   8.650   4.448   1.144
74192SOL    HW124473   8.734   4.406   1.160
74192SOL    HW224474   8.603   4.388   1.087
74193SOL     OW24475  11.928  13.125   3.230
74193SOL    HW124476  11.990  13.089   3.166
74193SOL    HW224477  11.944  13.220   3.227
74194SOL     OW24478   2.001   4.673   4.822
74194SOL    HW124479   2.017   4.596   4.767
74194SOL    HW224480   2.084   4.689   4.867
74195SOL     OW24481  10.715   4.440   8.248
74195SOL    HW124482  10.727   4.428   8.342
74195SOL    HW224483  10.802   4.460   8.215
74196SOL     OW24484   2.792   1.216   5.271
74196SOL    HW124485   2.763   1.193   5.183
74196SOL    HW224486   2.814   1.132   5.312
74197SOL     OW24487   0.896  10.668   3.111
74197SOL    HW124488   0.840  10.741   3.134
74197SOL    HW224489   0.965  10.669   3.178
74198SOL     OW24490   9.599  11.597   2.273
74198SOL    HW124491   9.557  11.516   2.244
74198SOL    HW224492   9.536  11.666   2.252
74199SOL     OW24493  11.987   9.284   8.414
74199SOL    HW124494  11.979   9.321   8.502
74199SOL    HW224495  12.064   9.326   8.377
74200SOL     OW24496   9.173  11.055  12.914
74200SOL    HW124497   9.119  10.981  12.888
74200SOL    HW224498   9.263  11.029  12.893
74201SOL     OW24499   9.430  14.711   9.486
74201SOL    HW124500   9.347  14.705   9.533
74201SOL    HW224501   9.439  14.626   9.442
74202SOL     OW24502   8.310  11.191  13.633
74202SOL    HW124503   8.309  11.258  13.702
74202SOL    HW224504   8.376  11.127  13.662
74203SOL     OW24505   2.832   1.294   4.904
74203SOL    HW124506   2.780   1.241   4.844
74203SOL    HW224507   2.920   1.258   4.896
74204SOL     OW24508   0.809   7.138  14.424
74204SOL    HW124509   0.837   7.085  14.349
74204SOL    HW224510   0.861   7.106  14.497
74205SOL     OW24511   7.893  10.922   8.502
74205SOL    HW124512   7.903  10.886   8.414
74205SOL    HW224513   7.879  11.016   8.489
74206SOL     OW24514   9.468  13.497  11.409
74206SOL    HW124515   9.515  13.422  11.444
74206SOL    HW224516   9.384  13.497  11.455
74207SOL     OW24517  11.948   6.782  11.696
74207SOL    HW124518  11.911   6.817  11.777
74207SOL    HW224519  12.041   6.768  11.716
74208SOL     OW24520   0.854   2.033   6.044
74208SOL    HW124521   0.839   1.998   5.956
74208SOL    HW224522   0.848   1.957   6.102
74209SOL     OW24523   4.737   0.590  10.107
74209SOL    HW124524   4.652   0.635  10.107
74209SOL    HW224525   4.793   0.645  10.163
74210SOL     OW24526   5.882  13.134   0.780
74210SOL    HW124527   5.817  13.181   0.728
74210SOL    HW224528   5.866  13.162   0.870
74211SOL     OW24529   9.884  13.731  13.702
74211SOL    HW124530   9.883  13.694  13.790
74211SOL    HW224531   9.967  13.702  13.665
74212SOL     OW24532   4.670   5.374   1.077
74212SOL    HW124533   4.745   5.320   1.101
74212SOL    HW224534   4.705   5.436   1.012
74213SOL     OW24535   1.758   9.670   0.973
74213SOL    HW124536   1.853   9.665   0.988
74213SOL    HW224537   1.749   9.658   0.878
74214SOL     OW24538   8.821   2.655   9.519
74214SOL    HW124539   8.867   2.733   9.487
74214SOL    HW224540   8.728   2.674   9.503
74215SOL     OW24541   2.774  14.571   3.999
74215SOL    HW124542   2.718  14.506   3.957
74215SOL    HW224543   2.840  14.592   3.934
74216SOL     OW24544   4.746   4.179  14.182
74216SOL    HW124545   4.796   4.204  14.260
74216SOL    HW224546   4.658   4.212  14.198
74217SOL     OW24547   9.137   7.388  10.697
74217SOL    HW124548   9.054   7.385  10.648
74217SOL    HW224549   9.158   7.296  10.712
74218SOL     OW24550   8.056   4.187   3.145
74218SOL    HW124551   8.097   4.155   3.226
74218SOL    HW224552   8.053   4.110   3.088
74219SOL     OW24553   0.815   3.817   3.096
74219SOL    HW124554   0.847   3.779   3.178
74219SOL    HW224555   0.744   3.760   3.069
74220SOL     OW24556  10.011   3.391   2.423
74220SOL    HW124557   9.916   3.395   2.411
74220SOL    HW224558  10.045   3.453   2.358
74221SOL     OW24559   5.582   6.881   0.250
74221SOL    HW124560   5.630   6.958   0.220
74221SOL    HW224561   5.608   6.812   0.190
74222SOL     OW24562  10.979   3.910   9.547
74222SOL    HW124563  10.969   3.820   9.516
74222SOL    HW224564  11.067   3.935   9.517
74223SOL     OW24565   0.885   7.345   1.635
74223SOL    HW124566   0.888   7.311   1.724
74223SOL    HW224567   0.873   7.439   1.646
74224SOL     OW24568   3.718   2.495  13.167
74224SOL    HW124569   3.762   2.474  13.250
74224SOL    HW224570   3.780   2.550  13.120
74225SOL     OW24571  10.005  11.252   6.464
74225SOL    HW124572  10.087  11.277   6.507
74225SOL    HW224573   9.980  11.170   6.507
74226SOL     OW24574   3.703   3.133   8.997
74226SOL    HW124575   3.791   3.103   9.022
74226SOL    HW224576   3.654   3.052   8.982
74227SOL     OW24577  10.218   9.968  10.316
74227SOL    HW124578  10.245   9.880  10.342
74227SOL    HW224579  10.162   9.954  10.240
74228SOL     OW24580   5.169   7.766   2.275
74228SOL    HW124581   5.123   7.740   2.195
74228SOL    HW224582   5.236   7.699   2.287
74229SOL     OW24583  10.151  11.366   0.765
74229SOL    HW124584  10.161  11.283   0.719
74229SOL    HW224585  10.082  11.350   0.829
74230SOL     OW24586  12.105  13.856   7.794
74230SOL    HW124587  12.122  13.826   7.883
74230SOL    HW224588  12.192  13.876   7.759
74231SOL     OW24589  13.277   3.685   2.313
74231SOL    HW124590  13.297   3.776   2.289
74231SOL    HW224591  13.291   3.682   2.408
74232SOL     OW24592   0.781  12.876   4.626
74232SOL    HW124593   0.805  12.793   4.665
74232SOL    HW224594   0.707  12.907   4.679
74233SOL     OW24595   6.412   3.075   3.444
74233SOL    HW124596   6.325   3.112   3.462
74233SOL    HW224597   6.402   2.982   3.461
74234SOL     OW24598   9.507   8.982   2.113
74234SOL    HW124599   9.478   8.911   2.056
74234SOL    HW224600   9.558   9.039   2.055
74235SOL     OW24601   1.476   4.466   5.889
74235SOL    HW124602   1.554   4.521   5.889
74235SOL    HW224603   1.493   4.401   5.821
74236SOL     OW24604   2.427   6.009  13.065
74236SOL    HW124605   2.439   5.980  12.975
74236SOL    HW224606   2.514   6.037  13.093
74237SOL     OW24607   7.900   3.995   6.608
74237SOL    HW124608   7.877   3.906   6.634
74237SOL    HW224609   7.956   4.027   6.679
74238SOL     OW24610   0.685   8.182   6.364
74238SOL    HW124611   0.630   8.255   6.395
74238SOL    HW224612   0.639   8.149   6.287
74239SOL     OW24613   4.026   5.589   4.870
74239SOL    HW124614   3.944   5.558   4.907
74239SOL    HW224615   4.023   5.684   4.882
74240SOL     OW24616   0.672  13.068  12.791
74240SOL    HW124617   0.706  13.009  12.724
74240SOL    HW224618   0.577  13.052  12.791
74241SOL     OW24619   4.525  10.749   9.724
74241SOL    HW124620   4.572  10.670   9.751
74241SOL    HW224621   4.575  10.781   9.649
74242SOL     OW24622   3.902   8.895  14.096
74242SOL    HW124623   3.972   8.860  14.041
74242SOL    HW224624   3.822   8.883  14.045
74243SOL     OW24625   2.432   5.348   2.285
74243SOL    HW124626   2.384   5.266   2.294
74243SOL    HW224627   2.381   5.412   2.334
74244SOL     OW24628   4.510   3.525   4.941
74244SOL    HW124629   4.486   3.575   4.863
74244SOL    HW224630   4.445   3.455   4.946
74245SOL     OW24631   3.097   6.382   7.161
74245SOL    HW124632   3.182   6.390   7.204
74245SOL    HW224633   3.118   6.379   7.068
74246SOL     OW24634   7.885  10.936   7.142
74246SOL    HW124635   7.794  10.941   7.111
74246SOL    HW224636   7.880  10.881   7.220
74247SOL     OW24637   5.758   8.021   2.814
74247SOL    HW124638   5.684   8.039   2.755
74247SOL    HW224639   5.774   8.104   2.859
74248SOL     OW24640   4.633   6.859   3.202
74248SOL    HW124641   4.663   6.824   3.118
74248SOL    HW224642   4.585   6.787   3.242
74249SOL     OW24643  10.546   0.323   5.626
74249SOL    HW124644  10.529   0.408   5.586
74249SOL    HW224645  10.616   0.340   5.689
74250SOL     OW24646   0.730   5.630   7.360
74250SOL    HW124647   0.820   5.598   7.355
74250SOL    HW224648   0.721   5.690   7.286
74251SOL     OW24649   4.338  14.530   2.983
74251SOL    HW124650   4.286  14.559   2.908
74251SOL    HW224651   4.281  14.545   3.059
74252SOL     OW24652   8.210   4.242  14.351
74252SOL    HW124653   8.252   4.157  14.336
74252SOL    HW224654   8.282   4.300  14.376
74253SOL     OW24655   2.789  14.772   6.954
74253SOL    HW124656   2.805  14.804   6.865
74253SOL    HW224657   2.744  14.845   6.997
74254SOL     OW24658   4.382   4.688   7.593
74254SOL    HW124659   4.404   4.780   7.611
74254SOL    HW224660   4.287   4.689   7.579
74255SOL     OW24661  11.411   9.757  12.686
74255SOL    HW124662  11.326   9.713  12.682
74255SOL    HW224663  11.452   9.737  12.601
74256SOL     OW24664   4.882   7.718  14.461
74256SOL    HW124665   4.859   7.639  14.510
74256SOL    HW224666   4.840   7.707  14.376
74257SOL     OW24667  14.431  11.904   2.155
74257SOL    HW124668  14.520  11.876   2.175
74257SOL    HW224669  14.384  11.895   2.238
74258SOL     OW24670   4.054  11.999   3.701
74258SOL    HW124671   4.100  12.045   3.771
74258SOL    HW224672   4.029  12.069   3.640
74259SOL     OW24673   0.938  11.944   1.674
74259SOL    HW124674   0.875  11.992   1.727
74259SOL    HW224675   0.959  11.866   1.725
74260SOL     OW24676   0.605  11.382   5.440
74260SOL    HW124677   0.590  11.411   5.350
74260SOL    HW224678   0.679  11.433   5.470
74261SOL     OW24679   3.610   0.648  14.293
74261SOL    HW124680   3.537   0.692  14.337
74261SOL    HW224681   3.569   0.572  14.251
74262SOL     OW24682   3.938   5.949   9.353
74262SOL    HW124683   3.905   5.996   9.430
74262SOL    HW224684   3.886   5.868   9.351
74263SOL     OW24685   9.358   4.660  13.616
74263SOL    HW124686   9.287   4.672  13.680
74263SOL    HW224687   9.313   4.646  13.533
74264SOL     OW24688   9.133   9.345   6.748
74264SOL    HW124689   9.163   9.259   6.718
74264SOL    HW224690   9.138   9.400   6.670
74265SOL     OW24691   1.555  10.224  11.019
74265SOL    HW124692   1.603  10.142  11.036
74265SOL    HW224693   1.618  10.293  11.042
74266SOL     OW24694   5.988   1.119  10.492
74266SOL    HW124695   5.967   1.193  10.548
74266SOL    HW224696   6.034   1.157  10.417
74267SOL     OW24697   6.636   6.607  11.261
74267SOL    HW124698   6.708   6.655  11.301
74267SOL    HW224699   6.678   6.544  11.202
74268SOL     OW24700  13.823   5.937   6.285
74268SOL    HW124701  13.761   5.864   6.289
74268SOL    HW224702  13.834   5.953   6.191
74269SOL     OW24703  13.233   3.741   1.621
74269SOL    HW124704  13.328   3.736   1.632
74269SOL    HW224705  13.199   3.754   1.710
74270SOL     OW24706   9.567  13.475  11.149
74270SOL    HW124707   9.514  13.502  11.225
74270SOL    HW224708   9.655  13.466  11.183
74271SOL     OW24709   4.874  10.893   2.566
74271SOL    HW124710   4.823  10.812   2.562
74271SOL    HW224711   4.965  10.864   2.560
74272SOL     OW24712  11.156   7.867   4.535
74272SOL    HW124713  11.205   7.807   4.591
74272SOL    HW224714  11.203   7.950   4.541
74273SOL     OW24715   9.938   3.847   4.228
74273SOL    HW124716   9.944   3.754   4.251
74273SOL    HW224717   9.976   3.893   4.302
74274SOL     OW24718   2.599   2.643  13.471
74274SOL    HW124719   2.637   2.558  13.493
74274SOL    HW224720   2.551   2.627  13.390
74275SOL     OW24721   5.014   5.691  12.685
74275SOL    HW124722   4.962   5.657  12.758
74275SOL    HW224723   5.101   5.654  12.697
74276SOL     OW24724   1.817  11.901   4.076
74276SOL    HW124725   1.903  11.931   4.105
74276SOL    HW224726   1.826  11.806   4.068
74277SOL     OW24727   3.646   0.924  10.985
74277SOL    HW124728   3.731   0.886  10.961
74277SOL    HW224729   3.586   0.891  10.917
74278SOL     OW24730   4.488  13.675  12.973
74278SOL    HW124731   4.477  13.741  12.905
74278SOL    HW224732   4.469  13.721  13.055
74279SOL     OW24733   4.229   5.100   4.190
74279SOL    HW124734   4.313   5.144   4.184
74279SOL    HW224735   4.217   5.057   4.106
74280SOL     OW24736   6.247   0.315   1.819
74280SOL    HW124737   6.338   0.335   1.798
74280SOL    HW224738   6.203   0.400   1.819
74281SOL     OW24739   1.505   2.796  13.488
74281SOL    HW124740   1.439   2.857  13.455
74281SOL    HW224741   1.563   2.780  13.413
74282SOL     OW24742  11.046  13.779   9.091
74282SOL    HW124743  11.029  13.863   9.134
74282SOL    HW224744  11.135  13.756   9.117
74283SOL     OW24745  13.987   9.673   0.313
74283SOL    HW124746  13.945   9.594   0.278
74283SOL    HW224747  14.056   9.640   0.370
74284SOL     OW24748   6.664   0.170   1.729
74284SOL    HW124749   6.732   0.237   1.728
74284SOL    HW224750   6.710   0.088   1.746
74285SOL     OW24751   4.235   2.179   4.605
74285SOL    HW124752   4.188   2.158   4.524
74285SOL    HW224753   4.175   2.235   4.654
74286SOL     OW24754   9.223   9.160   0.407
74286SOL    HW124755   9.258   9.198   0.326
74286SOL    HW224756   9.295   9.106   0.441
74287SOL     OW24757   3.657   3.292  10.183
74287SOL    HW124758   3.724   3.274  10.248
74287SOL    HW224759   3.586   3.334  10.232
74288SOL     OW24760   6.365   0.240  13.134
74288SOL    HW124761   6.289   0.258  13.078
74288SOL    HW224762   6.427   0.196  13.076
74289SOL     OW24763  13.922  13.063   9.053
74289SOL    HW124764  13.870  13.130   9.099
74289SOL    HW224765  13.984  13.032   9.119
74290SOL     OW24766  10.182  10.427  12.649
74290SOL    HW124767  10.125  10.495  12.614
74290SOL    HW224768  10.264  10.437  12.600
74291SOL     OW24769   9.049  11.648  14.245
74291SOL    HW124770   8.999  11.588  14.301
74291SOL    HW224771   8.984  11.682  14.183
74292SOL     OW24772  10.673   4.790  13.770
74292SOL    HW124773  10.656   4.827  13.856
74292SOL    HW224774  10.748   4.839  13.736
74293SOL     OW24775   8.856  10.479   5.126
74293SOL    HW124776   8.766  10.449   5.139
74293SOL    HW224777   8.849  10.575   5.126
74294SOL     OW24778   5.345  13.933  13.897
74294SOL    HW124779   5.348  14.028  13.910
74294SOL    HW224780   5.271  13.904  13.949
74295SOL     OW24781   4.036  11.271  12.723
74295SOL    HW124782   4.006  11.362  12.723
74295SOL    HW224783   4.103  11.268  12.655
74296SOL     OW24784  11.789   9.802   3.796
74296SOL    HW124785  11.878   9.770   3.803
74296SOL    HW224786  11.734   9.726   3.815
74297SOL     OW24787  13.256  13.054   4.412
74297SOL    HW124788  13.202  13.122   4.452
74297SOL    HW224789  13.197  12.980   4.400
74298SOL     OW24790  14.019   0.847  12.184
74298SOL    HW124791  14.007   0.933  12.224
74298SOL    HW224792  13.952   0.792  12.225
74299SOL     OW24793  13.861   0.040   1.903
74299SOL    HW124794  13.775   0.009   1.933
74299SOL    HW224795  13.917  14.845   1.904
74300SOL     OW24796   7.108   4.800   8.389
74300SOL    HW124797   7.103   4.875   8.448
74300SOL    HW224798   7.185   4.818   8.335
74301SOL     OW24799   3.964   5.848   2.763
74301SOL    HW124800   3.903   5.909   2.805
74301SOL    HW224801   4.023   5.904   2.713
74302SOL     OW24802   7.790  13.979   2.922
74302SOL    HW124803   7.771  14.072   2.909
74302SOL    HW224804   7.758  13.960   3.010
74303SOL     OW24805  10.237   6.687   7.342
74303SOL    HW124806  10.270   6.597   7.343
74303SOL    HW224807  10.188   6.695   7.424
74304SOL     OW24808  12.425   9.809   9.767
74304SOL    HW124809  12.419   9.737   9.830
74304SOL    HW224810  12.517   9.836   9.770
74305SOL     OW24811   0.913  14.124   8.247
74305SOL    HW124812   0.845  14.188   8.225
74305SOL    HW224813   0.864  14.044   8.267
74306SOL     OW24814  14.132   7.211   8.202
74306SOL    HW124815  14.207   7.268   8.222
74306SOL    HW224816  14.070   7.269   8.158
74307SOL     OW24817   3.922   5.012  11.200
74307SOL    HW124818   4.006   4.990  11.160
74307SOL    HW224819   3.940   5.090  11.253
74308SOL     OW24820   7.801   4.246   8.834
74308SOL    HW124821   7.835   4.166   8.794
74308SOL    HW224822   7.783   4.304   8.760
74309SOL     OW24823   1.645   5.601   9.974
74309SOL    HW124824   1.707   5.619  10.046
74309SOL    HW224825   1.650   5.679   9.918
74310SOL     OW24826   5.773   3.707  13.975
74310SOL    HW124827   5.682   3.713  13.948
74310SOL    HW224828   5.796   3.795  14.003
74311SOL     OW24829   3.806   5.439   4.942
74311SOL    HW124830   3.733   5.473   4.890
74311SOL    HW224831   3.793   5.344   4.943
74312SOL     OW24832   5.949   5.335   6.402
74312SOL    HW124833   5.861   5.352   6.437
74312SOL    HW224834   5.967   5.411   6.347
74313SOL     OW24835   1.502   9.523   1.844
74313SOL    HW124836   1.548   9.454   1.797
74313SOL    HW224837   1.472   9.583   1.775
74314SOL     OW24838  13.469   2.729   0.916
74314SOL    HW124839  13.497   2.639   0.932
74314SOL    HW224840  13.396   2.721   0.855
74315SOL     OW24841  13.492  10.746   4.815
74315SOL    HW124842  13.417  10.744   4.874
74315SOL    HW224843  13.517  10.838   4.811
74316SOL     OW24844  11.503   2.709   2.759
74316SOL    HW124845  11.488   2.718   2.853
74316SOL    HW224846  11.530   2.618   2.748
74317SOL     OW24847   8.282   9.871   1.797
74317SOL    HW124848   8.299   9.965   1.785
74317SOL    HW224849   8.281   9.860   1.892
74318SOL     OW24850  13.572   5.198  11.070
74318SOL    HW124851  13.479   5.217  11.061
74318SOL    HW224852  13.601   5.174  10.982
74319SOL     OW24853  14.184  10.381   1.926
74319SOL    HW124854  14.275  10.353   1.920
74319SOL    HW224855  14.189  10.477   1.928
74320SOL     OW24856   1.351   0.413   3.106
74320SOL    HW124857   1.412   0.385   3.174
74320SOL    HW224858   1.296   0.478   3.149
74321SOL     OW24859  11.756   8.275   3.621
74321SOL    HW124860  11.675   8.231   3.594
74321SOL    HW224861  11.791   8.221   3.692
74322SOL     OW24862   3.907   0.045   9.278
74322SOL    HW124863   3.882  14.854   9.222
74322SOL    HW224864   3.984   0.015   9.326
74323SOL     OW24865   7.785   0.417  13.110
74323SOL    HW124866   7.727   0.485  13.144
74323SOL    HW224867   7.843   0.396  13.183
74324SOL     OW24868   0.762  13.702   5.872
74324SOL    HW124869   0.718  13.722   5.955
74324SOL    HW224870   0.709  13.634   5.832
74325SOL     OW24871   8.150  12.481   2.577
74325SOL    HW124872   8.055  12.475   2.564
74325SOL    HW224873   8.172  12.402   2.626
74326SOL     OW24874   4.240   0.989   4.317
74326SOL    HW124875   4.319   0.979   4.264
74326SOL    HW224876   4.205   0.901   4.326
74327SOL     OW24877   0.185  13.998   5.906
74327SOL    HW124878   0.179  13.970   5.998
74327SOL    HW224879   0.133  14.078   5.901
74328SOL     OW24880   4.370  11.045   6.352
74328SOL    HW124881   4.428  11.120   6.344
74328SOL    HW224882   4.282  11.082   6.347
74329SOL     OW24883   6.808   9.411  10.958
74329SOL    HW124884   6.869   9.339  10.941
74329SOL    HW224885   6.853   9.467  11.021
74330SOL     OW24886   8.933   1.822   2.548
74330SOL    HW124887   8.841   1.832   2.524
74330SOL    HW224888   8.932   1.769   2.627
74331SOL     OW24889   7.792   6.744   5.333
74331SOL    HW124890   7.700   6.722   5.347
74331SOL    HW224891   7.836   6.659   5.329
74332SOL     OW24892  14.049   6.347   6.793
74332SOL    HW124893  14.132   6.305   6.770
74332SOL    HW224894  14.040   6.418   6.729
74333SOL     OW24895   6.734   0.198   1.307
74333SOL    HW124896   6.684   0.117   1.318
74333SOL    HW224897   6.822   0.176   1.339
74334SOL     OW24898   2.894  10.911   0.523
74334SOL    HW124899   2.916  10.921   0.616
74334SOL    HW224900   2.886  10.817   0.510
74335SOL     OW24901  11.431  14.498   0.034
74335SOL    HW124902  11.486  14.429   0.072
74335SOL    HW224903  11.485  14.576   0.036
74336SOL     OW24904   7.637   1.962   8.860
74336SOL    HW124905   7.709   1.947   8.922
74336SOL    HW224906   7.578   2.021   8.906
74337SOL     OW24907   6.202   7.844   2.580
74337SOL    HW124908   6.148   7.767   2.563
74337SOL    HW224909   6.236   7.831   2.669
74338SOL     OW24910  13.194   3.408  12.318
74338SOL    HW124911  13.188   3.327  12.266
74338SOL    HW224912  13.238   3.381  12.399
74339SOL     OW24913   6.324   2.593   9.071
74339SOL    HW124914   6.291   2.515   9.115
74339SOL    HW224915   6.247   2.637   9.036
74340SOL     OW24916   7.127  13.172  10.587
74340SOL    HW124917   7.063  13.130  10.529
74340SOL    HW224918   7.074  13.207  10.659
74341SOL     OW24919   1.964   5.616  14.144
74341SOL    HW124920   1.925   5.694  14.184
74341SOL    HW224921   1.892   5.553  14.140
74342SOL     OW24922  13.625   6.640   4.950
74342SOL    HW124923  13.640   6.547   4.969
74342SOL    HW224924  13.531   6.652   4.960
74343SOL     OW24925  11.262  13.880   6.191
74343SOL    HW124926  11.240  13.800   6.145
74343SOL    HW224927  11.179  13.910   6.228
74344SOL     OW24928  11.311  14.331  13.864
74344SOL    HW124929  11.303  14.404  13.926
74344SOL    HW224930  11.227  14.285  13.870
74345SOL     OW24931   3.041   1.379   5.099
74345SOL    HW124932   2.962   1.355   5.149
74345SOL    HW224933   3.049   1.310   5.033
74346SOL     OW24934  14.627   2.331   7.367
74346SOL    HW124935  14.626   2.386   7.289
74346SOL    HW224936  14.548   2.355   7.415
74347SOL     OW24937  13.785  13.128   1.261
74347SOL    HW124938  13.879  13.127   1.245
74347SOL    HW224939  13.776  13.147   1.354
74348SOL     OW24940   7.993  11.605   8.597
74348SOL    HW124941   8.000  11.537   8.530
74348SOL    HW224942   7.932  11.669   8.560
74349SOL     OW24943   2.928   5.794   5.014
74349SOL    HW124944   2.886   5.753   5.089
74349SOL    HW224945   2.866   5.784   4.943
74350SOL     OW24946   9.362   0.193   1.711
74350SOL    HW124947   9.310   0.263   1.751
74350SOL    HW224948   9.298   0.136   1.668
74351SOL     OW24949   3.909   4.504   0.224
74351SOL    HW124950   3.974   4.571   0.202
74351SOL    HW224951   3.921   4.488   0.318
74352SOL     OW24952   2.366   5.506  11.841
74352SOL    HW124953   2.328   5.425  11.876
74352SOL    HW224954   2.455   5.481  11.815
74353SOL     OW24955   2.203  11.998   4.779
74353SOL    HW124956   2.252  12.080   4.766
74353SOL    HW224957   2.156  11.985   4.697
74354SOL     OW24958   9.757   3.462   7.106
74354SOL    HW124959   9.705   3.516   7.165
74354SOL    HW224960   9.719   3.477   7.020
74355SOL     OW24961   4.023   5.182  12.838
74355SOL    HW124962   4.034   5.230  12.756
74355SOL    HW224963   3.932   5.200  12.864
74356SOL     OW24964  12.954   5.000  13.374
74356SOL    HW124965  12.970   5.069  13.310
74356SOL    HW224966  12.860   4.980  13.365
74357SOL     OW24967   5.760  10.928  13.286
74357SOL    HW124968   5.779  10.994  13.353
74357SOL    HW224969   5.701  10.866  13.330
74358SOL     OW24970  12.833  11.697  12.669
74358SOL    HW124971  12.764  11.742  12.719
74358SOL    HW224972  12.911  11.751  12.682
74359SOL     OW24973  11.788  14.206   7.776
74359SOL    HW124974  11.833  14.133   7.735
74359SOL    HW224975  11.790  14.275   7.710
74360SOL     OW24976  14.825  14.834   4.227
74360SOL    HW124977  14.834  14.756   4.172
74360SOL    HW224978   0.002   0.016   4.187
74361SOL     OW24979   4.847  11.510   3.015
74361SOL    HW124980   4.913  11.577   2.997
74361SOL    HW224981   4.816  11.483   2.929
74362SOL     OW24982   1.122  11.083   7.322
74362SOL    HW124983   1.076  11.133   7.254
74362SOL    HW224984   1.185  11.030   7.273
74363SOL     OW24985  11.498   1.057   1.420
74363SOL    HW124986  11.430   1.005   1.376
74363SOL    HW224987  11.574   0.999   1.425
74364SOL     OW24988   0.106   9.917  12.301
74364SOL    HW124989   0.174   9.891  12.363
74364SOL    HW224990   0.121  10.011  12.287
74365SOL     OW24991   3.497   5.387   9.511
74365SOL    HW124992   3.420   5.343   9.474
74365SOL    HW224993   3.489   5.478   9.480
74366SOL     OW24994   8.259   5.973   9.194
74366SOL    HW124995   8.256   5.962   9.290
74366SOL    HW224996   8.254   5.883   9.160
74367SOL     OW24997  14.848  14.166   9.917
74367SOL    HW124998  14.769  14.126   9.881
74367SOL    HW224999  14.827  14.182  10.009
74368SOL     OW25000  13.481  14.319   8.443
74368SOL    HW125001  13.550  14.304   8.507
74368SOL    HW225002  13.407  14.266   8.474
74369SOL     OW25003   2.603   5.749  11.161
74369SOL    HW125004   2.523   5.727  11.209
74369SOL    HW225005   2.672   5.698  11.205
74370SOL     OW25006  12.565   3.023  13.120
74370SOL    HW125007  12.653   3.026  13.082
74370SOL    HW225008  12.574   2.971  13.199
74371SOL     OW25009  13.008   3.779   2.915
74371SOL    HW125010  13.087   3.725   2.911
74371SOL    HW225011  12.948   3.730   2.971
74372SOL     OW25012   8.889  13.166   7.035
74372SOL    HW125013   8.969  13.209   7.065
74372SOL    HW225014   8.857  13.222   6.964
74373SOL     OW25015   3.000   5.739   0.077
74373SOL    HW125016   2.973   5.770  14.873
74373SOL    HW225017   3.055   5.663   0.059
74374SOL     OW25018   2.510  10.899  13.739
74374SOL    HW125019   2.481  10.842  13.667
74374SOL    HW225020   2.481  10.855  13.818
74375SOL     OW25021   0.520   3.089   5.234
74375SOL    HW125022   0.599   3.037   5.247
74375SOL    HW225023   0.540   3.145   5.160
74376SOL     OW25024   7.125  12.471   3.459
74376SOL    HW125025   7.086  12.395   3.416
74376SOL    HW225026   7.109  12.456   3.552
74377SOL     OW25027   9.995   6.044   4.255
74377SOL    HW125028  10.008   6.035   4.160
74377SOL    HW225029  10.015   5.957   4.289
74378SOL     OW25030   3.818  10.398   1.947
74378SOL    HW125031   3.760  10.471   1.971
74378SOL    HW225032   3.896  10.441   1.911
74379SOL     OW25033   9.197  13.864  12.512
74379SOL    HW125034   9.147  13.784  12.523
74379SOL    HW225035   9.213  13.895  12.602
74380SOL     OW25036   9.359  12.268   7.469
74380SOL    HW125037   9.434  12.312   7.430
74380SOL    HW225038   9.325  12.330   7.533
74381SOL     OW25039   5.256   4.240   6.034
74381SOL    HW125040   5.195   4.298   5.988
74381SOL    HW225041   5.286   4.292   6.109
74382SOL     OW25042   2.303   1.871   4.778
74382SOL    HW125043   2.322   1.811   4.851
74382SOL    HW225044   2.217   1.843   4.747
74383SOL     OW25045  11.921   2.639   4.471
74383SOL    HW125046  11.930   2.632   4.566
74383SOL    HW225047  12.006   2.672   4.441
74384SOL     OW25048   7.106  10.071   2.868
74384SOL    HW125049   7.057  10.142   2.910
74384SOL    HW225050   7.114  10.097   2.777
74385SOL     OW25051   4.970  11.439  12.027
74385SOL    HW125052   4.938  11.478  11.945
74385SOL    HW225053   5.059  11.412  12.007
74386SOL     OW25054   9.870   4.165   5.296
74386SOL    HW125055   9.809   4.140   5.226
74386SOL    HW225056   9.907   4.249   5.266
74387SOL     OW25057  10.706   2.138   7.704
74387SOL    HW125058  10.717   2.078   7.630
74387SOL    HW225059  10.763   2.103   7.772
74388SOL     OW25060  13.987   1.633   2.155
74388SOL    HW125061  14.047   1.598   2.221
74388SOL    HW225062  13.903   1.641   2.201
74389SOL     OW25063   3.750   4.132   3.613
74389SOL    HW125064   3.785   4.207   3.661
74389SOL    HW225065   3.750   4.160   3.522
74390SOL     OW25066   4.265   7.543   9.420
74390SOL    HW125067   4.251   7.573   9.509
74390SOL    HW225068   4.204   7.470   9.409
74391SOL     OW25069  11.347  14.104   5.411
74391SOL    HW125070  11.383  14.106   5.499
74391SOL    HW225071  11.405  14.161   5.360
74392SOL     OW25072   7.475  10.811   3.608
74392SOL    HW125073   7.461  10.716   3.608
74392SOL    HW225074   7.472  10.835   3.701
74393SOL     OW25075   1.269  13.776   8.136
74393SOL    HW125076   1.311  13.861   8.124
74393SOL    HW225077   1.339  13.713   8.119
74394SOL     OW25078   9.417   2.497  12.797
74394SOL    HW125079   9.464   2.550  12.733
74394SOL    HW225080   9.430   2.407  12.768
74395SOL     OW25081   5.833  13.153   1.614
74395SOL    HW125082   5.843  13.196   1.699
74395SOL    HW225083   5.888  13.206   1.555
74396SOL     OW25084   6.551   9.068  11.305
74396SOL    HW125085   6.549   9.152  11.259
74396SOL    HW225086   6.632   9.026  11.276
74397SOL     OW25087   9.339   6.676   6.208
74397SOL    HW125088   9.282   6.602   6.188
74397SOL    HW225089   9.285   6.754   6.191
74398SOL     OW25090   4.023  11.762   1.639
74398SOL    HW125091   4.116  11.764   1.616
74398SOL    HW225092   3.979  11.745   1.556
74399SOL     OW25093   9.878   5.271   9.266
74399SOL    HW125094   9.890   5.314   9.181
74399SOL    HW225095   9.792   5.229   9.259
74400SOL     OW25096  12.290   2.933   0.670
74400SOL    HW125097  12.378   2.969   0.663
74400SOL    HW225098  12.244   2.993   0.729
74401SOL     OW25099  12.051   4.668   2.735
74401SOL    HW125100  12.101   4.746   2.755
74401SOL    HW225101  12.083   4.640   2.649
74402SOL     OW25102   8.686   8.061  13.660
74402SOL    HW125103   8.605   8.052  13.711
74402SOL    HW225104   8.755   8.072  13.725
74403SOL     OW25105  12.757   9.168   8.278
74403SOL    HW125106  12.812   9.148   8.203
74403SOL    HW225107  12.715   9.085   8.300
74404SOL     OW25108  10.630   1.243   7.475
74404SOL    HW125109  10.610   1.172   7.413
74404SOL    HW225110  10.718   1.224   7.505
74405SOL     OW25111   4.430  12.830   8.045
74405SOL    HW125112   4.384  12.885   8.108
74405SOL    HW225113   4.523  12.846   8.062
74406SOL     OW25114   6.720  10.617  13.420
74406SOL    HW125115   6.797  10.672  13.410
74406SOL    HW225116   6.732  10.547  13.356
74407SOL     OW25117   0.642  14.782  11.602
74407SOL    HW125118   0.620  14.693  11.628
74407SOL    HW225119   0.682  14.772  11.516
74408SOL     OW25120   0.824  11.852   2.063
74408SOL    HW125121   0.817  11.945   2.043
74408SOL    HW225122   0.760  11.810   2.005
74409SOL     OW25123   9.543   0.289   6.485
74409SOL    HW125124   9.560   0.350   6.413
74409SOL    HW225125   9.550   0.343   6.564
74410SOL     OW25126  14.815   3.319   2.483
74410SOL    HW125127  14.757   3.247   2.461
74410SOL    HW225128  14.844   3.353   2.399
74411SOL     OW25129   8.133  13.042  10.360
74411SOL    HW125130   8.225  13.020  10.380
74411SOL    HW225131   8.083  12.991  10.423
74412SOL     OW25132   6.397  10.875  14.006
74412SOL    HW125133   6.432  10.964  14.015
74412SOL    HW225134   6.428  10.846  13.921
74413SOL     OW25135  10.993  14.197  12.420
74413SOL    HW125136  11.017  14.133  12.353
74413SOL    HW225137  10.940  14.148  12.483
74414SOL     OW25138   5.110  13.789   6.940
74414SOL    HW125139   5.048  13.861   6.939
74414SOL    HW225140   5.084  13.733   6.867
74415SOL     OW25141   2.447   3.433   1.215
74415SOL    HW125142   2.505   3.482   1.273
74415SOL    HW225143   2.398   3.375   1.273
74416SOL     OW25144   4.199   9.061  13.442
74416SOL    HW125145   4.288   9.082  13.471
74416SOL    HW225146   4.174   9.136  13.388
74417SOL     OW25147  13.774   4.567   4.984
74417SOL    HW125148  13.732   4.641   5.029
74417SOL    HW225149  13.838   4.608   4.925
74418SOL     OW25150   6.147  10.043   6.794
74418SOL    HW125151   6.175   9.998   6.874
74418SOL    HW225152   6.176   9.985   6.723
74419SOL     OW25153   9.540   5.834   7.150
74419SOL    HW125154   9.568   5.788   7.229
74419SOL    HW225155   9.449   5.807   7.137
74420SOL     OW25156   6.022  11.359   9.272
74420SOL    HW125157   5.940  11.373   9.320
74420SOL    HW225158   5.995  11.345   9.182
74421SOL     OW25159   9.541  13.762  13.939
74421SOL    HW125160   9.531  13.679  13.893
74421SOL    HW225161   9.577  13.821  13.875
74422SOL     OW25162   3.018  12.805   8.215
74422SOL    HW125163   2.952  12.801   8.147
74422SOL    HW225164   3.053  12.894   8.210
74423SOL     OW25165   6.550   9.145   0.910
74423SOL    HW125166   6.532   9.126   1.003
74423SOL    HW225167   6.615   9.081   0.884
74424SOL     OW25168   3.300  13.236   5.346
74424SOL    HW125169   3.213  13.276   5.342
74424SOL    HW225170   3.326  13.227   5.254
74425SOL     OW25171   3.887   5.779   4.142
74425SOL    HW125172   3.952   5.764   4.073
74425SOL    HW225173   3.819   5.832   4.100
74426SOL     OW25174   2.115   5.003   1.432
74426SOL    HW125175   2.138   4.980   1.522
74426SOL    HW225176   2.035   4.954   1.414
74427SOL     OW25177   2.440   2.828   1.470
74427SOL    HW125178   2.444   2.898   1.535
74427SOL    HW225179   2.368   2.852   1.412
74428SOL     OW25180  13.782   8.149   8.507
74428SOL    HW125181  13.730   8.104   8.439
74428SOL    HW225182  13.724   8.218   8.538
74429SOL     OW25183  13.282   6.741  14.743
74429SOL    HW125184  13.327   6.670  14.697
74429SOL    HW225185  13.263   6.806  14.675
74430SOL     OW25186   7.298  11.461   9.058
74430SOL    HW125187   7.209  11.489   9.035
74430SOL    HW225188   7.295  11.365   9.052
74431SOL     OW25189  11.735   9.205   3.866
74431SOL    HW125190  11.674   9.145   3.910
74431SOL    HW225191  11.688   9.288   3.862
74432SOL     OW25192  14.183   4.914   8.774
74432SOL    HW125193  14.136   4.945   8.696
74432SOL    HW225194  14.161   4.821   8.780
74433SOL     OW25195  13.685  10.412  13.926
74433SOL    HW125196  13.640  10.406  13.842
74433SOL    HW225197  13.622  10.455  13.984
74434SOL     OW25198   6.517  12.493  10.374
74434SOL    HW125199   6.527  12.481  10.280
74434SOL    HW225200   6.433  12.452  10.395
74435SOL     OW25201  12.166  11.716  10.421
74435SOL    HW125202  12.079  11.753  10.404
74435SOL    HW225203  12.149  11.638  10.473
74436SOL     OW25204  10.138  12.610   5.243
74436SOL    HW125205  10.069  12.677   5.246
74436SOL    HW225206  10.091  12.529   5.224
74437SOL     OW25207   9.547  11.543   8.774
74437SOL    HW125208   9.612  11.552   8.704
74437SOL    HW225209   9.467  11.580   8.737
74438SOL     OW25210   9.602  10.905   2.698
74438SOL    HW125211   9.622  10.812   2.706
74438SOL    HW225212   9.684  10.949   2.720
74439SOL     OW25213   8.216   8.007   2.863
74439SOL    HW125214   8.235   8.091   2.905
74439SOL    HW225215   8.165   8.030   2.785
74440SOL     OW25216   5.651  11.744  11.579
74440SOL    HW125217   5.570  11.787  11.607
74440SOL    HW225218   5.713  11.816  11.565
74441SOL     OW25219   1.234  11.905   9.972
74441SOL    HW125220   1.214  11.866  10.057
74441SOL    HW225221   1.293  11.842   9.930
74442SOL     OW25222   6.984  11.300   5.004
74442SOL    HW125223   7.023  11.339   5.083
74442SOL    HW225224   7.057  11.259   4.959
74443SOL     OW25225  11.527   2.628   8.154
74443SOL    HW125226  11.602   2.570   8.140
74443SOL    HW225227  11.466   2.605   8.084
74444SOL     OW25228  11.478   8.534   9.898
74444SOL    HW125229  11.491   8.611   9.953
74444SOL    HW225230  11.475   8.569   9.809
74445SOL     OW25231   5.380  14.134  10.789
74445SOL    HW125232   5.409  14.076  10.859
74445SOL    HW225233   5.348  14.075  10.721
74446SOL     OW25234   0.232  12.158   5.967
74446SOL    HW125235   0.285  12.228   5.929
74446SOL    HW225236   0.217  12.185   6.057
74447SOL     OW25237   4.211   8.886   4.383
74447SOL    HW125238   4.169   8.814   4.429
74447SOL    HW225239   4.255   8.845   4.308
74448SOL     OW25240   4.539  10.559   4.557
74448SOL    HW125241   4.597  10.556   4.481
74448SOL    HW225242   4.595  10.587   4.629
74449SOL     OW25243  10.898   9.601   8.143
74449SOL    HW125244  10.873   9.685   8.106
74449SOL    HW225245  10.815   9.553   8.151
74450SOL     OW25246   6.743   3.234  13.445
74450SOL    HW125247   6.677   3.302  13.458
74450SOL    HW225248   6.808   3.251  13.513
74451SOL     OW25249   4.777  10.534  12.585
74451SOL    HW125250   4.803  10.525  12.676
74451SOL    HW225251   4.852  10.503  12.535
74452SOL     OW25252   0.106  10.452   9.222
74452SOL    HW125253   0.145  10.390   9.161
74452SOL    HW225254   0.115  10.410   9.308
74453SOL     OW25255   3.758   8.750  10.377
74453SOL    HW125256   3.711   8.763  10.460
74453SOL    HW225257   3.836   8.805  10.384
74454SOL     OW25258   6.892  12.418   4.494
74454SOL    HW125259   6.900  12.414   4.590
74454SOL    HW225260   6.978  12.449   4.465
74455SOL     OW25261   9.490  11.828   9.518
74455SOL    HW125262   9.534  11.748   9.547
74455SOL    HW225263   9.401  11.799   9.497
74456SOL     OW25264   8.591   7.519   2.481
74456SOL    HW125265   8.678   7.500   2.514
74456SOL    HW225266   8.604   7.592   2.420
74457SOL     OW25267   3.944  11.012  12.284
74457SOL    HW125268   3.863  11.030  12.333
74457SOL    HW225269   3.915  11.006  12.193
74458SOL     OW25270   1.256  10.486  14.754
74458SOL    HW125271   1.187  10.421  14.739
74458SOL    HW225272   1.254  10.542  14.676
74459SOL     OW25273   0.413   0.642  10.379
74459SOL    HW125274   0.395   0.577  10.447
74459SOL    HW225275   0.336   0.641  10.323
74460SOL     OW25276   9.093  13.348   7.359
74460SOL    HW125277   9.032  13.412   7.321
74460SOL    HW225278   9.146  13.399   7.421
74461SOL     OW25279   2.800   7.600   1.471
74461SOL    HW125280   2.722   7.648   1.499
74461SOL    HW225281   2.827   7.551   1.549
74462SOL     OW25282   5.295  10.891   1.842
74462SOL    HW125283   5.297  10.810   1.893
74462SOL    HW225284   5.386  10.907   1.819
74463SOL     OW25285  14.156  12.280   4.092
74463SOL    HW125286  14.223  12.332   4.047
74463SOL    HW225287  14.075  12.328   4.076
74464SOL     OW25288   6.552   1.460  10.342
74464SOL    HW125289   6.610   1.485  10.414
74464SOL    HW225290   6.475   1.423  10.385
74465SOL     OW25291   7.196   8.339  11.990
74465SOL    HW125292   7.272   8.396  11.984
74465SOL    HW225293   7.187   8.301  11.903
74466SOL     OW25294   1.805  10.906   5.527
74466SOL    HW125295   1.895  10.912   5.496
74466SOL    HW225296   1.752  10.913   5.448
74467SOL     OW25297   6.333  12.770  12.289
74467SOL    HW125298   6.347  12.685  12.332
74467SOL    HW225299   6.239  12.777  12.279
74468SOL     OW25300   2.028   4.185   7.975
74468SOL    HW125301   2.064   4.097   7.960
74468SOL    HW225302   1.989   4.181   8.062
74469SOL     OW25303   1.308   9.592   0.531
74469SOL    HW125304   1.402   9.595   0.515
74469SOL    HW225305   1.294   9.652   0.604
74470SOL     OW25306   4.516   8.477   0.822
74470SOL    HW125307   4.420   8.480   0.821
74470SOL    HW225308   4.541   8.491   0.730
74471SOL     OW25309   8.824   2.604   1.801
74471SOL    HW125310   8.891   2.594   1.869
74471SOL    HW225311   8.857   2.675   1.746
74472SOL     OW25312   1.819   3.126   7.150
74472SOL    HW125313   1.894   3.170   7.191
74472SOL    HW225314   1.743   3.159   7.197
74473SOL     OW25315   6.477   2.371  14.714
74473SOL    HW125316   6.507   2.284  14.741
74473SOL    HW225317   6.463   2.363  14.619
74474SOL     OW25318   8.558   9.706  14.547
74474SOL    HW125319   8.565   9.650  14.624
74474SOL    HW225320   8.464   9.710  14.528
74475SOL     OW25321   9.494  14.691   7.541
74475SOL    HW125322   9.567  14.752   7.549
74475SOL    HW225323   9.430  14.737   7.487
74476SOL     OW25324  14.768   1.232   6.111
74476SOL    HW125325  14.843   1.202   6.162
74476SOL    HW225326  14.777   1.188   6.026
74477SOL     OW25327  11.880  12.596   0.368
74477SOL    HW125328  11.896  12.687   0.342
74477SOL    HW225329  11.818  12.603   0.441
74478SOL     OW25330  11.215   3.253   9.809
74478SOL    HW125331  11.282   3.300   9.759
74478SOL    HW225332  11.264   3.194   9.866
74479SOL     OW25333  13.485   7.248  14.852
74479SOL    HW125334  13.509   7.162   0.006
74479SOL    HW225335  13.548   7.262  14.781
74480SOL     OW25336   7.496   4.978  12.071
74480SOL    HW125337   7.523   4.903  12.125
74480SOL    HW225338   7.418   5.012  12.116
74481SOL     OW25339   3.722   9.179   2.166
74481SOL    HW125340   3.728   9.257   2.110
74481SOL    HW225341   3.724   9.105   2.105
74482SOL     OW25342   1.992  11.336   4.146
74482SOL    HW125343   1.948  11.370   4.068
74482SOL    HW225344   2.049  11.407   4.175
74483SOL     OW25345   0.818   5.904   0.369
74483SOL    HW125346   0.773   5.985   0.394
74483SOL    HW225347   0.756   5.835   0.392
74484SOL     OW25348   0.175   7.585   1.372
74484SOL    HW125349   0.191   7.491   1.361
74484SOL    HW225350   0.180   7.621   1.283
74485SOL     OW25351   1.678   9.544  11.122
74485SOL    HW125352   1.671   9.518  11.030
74485SOL    HW225353   1.594   9.518  11.161
74486SOL     OW25354   1.256  11.208   0.663
74486SOL    HW125355   1.299  11.241   0.742
74486SOL    HW225356   1.191  11.145   0.695
74487SOL     OW25357   6.371  14.865  11.632
74487SOL    HW125358   6.372  14.777  11.669
74487SOL    HW225359   6.453   0.022  11.661
74488SOL     OW25360   1.466  14.158   9.276
74488SOL    HW125361   1.409  14.100   9.226
74488SOL    HW225362   1.552  14.115   9.276
74489SOL     OW25363  13.928   0.816   7.415
74489SOL    HW125364  13.840   0.845   7.440
74489SOL    HW225365  13.920   0.721   7.407
74490SOL     OW25366   7.963   2.586   3.780
74490SOL    HW125367   8.016   2.602   3.702
74490SOL    HW225368   7.897   2.655   3.779
74491SOL     OW25369   1.299   9.084  10.367
74491SOL    HW125370   1.328   9.157  10.313
74491SOL    HW225371   1.258   9.125  10.443
74492SOL     OW25372   3.289   8.621   2.597
74492SOL    HW125373   3.265   8.680   2.525
74492SOL    HW225374   3.208   8.612   2.647
74493SOL     OW25375  10.455   1.814  11.727
74493SOL    HW125376  10.487   1.893  11.770
74493SOL    HW225377  10.380   1.843  11.675
74494SOL     OW25378  12.076   0.498   2.498
74494SOL    HW125379  12.042   0.409   2.493
74494SOL    HW225380  12.003   0.553   2.470
74495SOL     OW25381  12.318  13.369   8.273
74495SOL    HW125382  12.341  13.299   8.333
74495SOL    HW225383  12.400  13.389   8.227
74496SOL     OW25384   6.961  14.161   0.266
74496SOL    HW125385   6.932  14.252   0.263
74496SOL    HW225386   6.958  14.138   0.358
74497SOL     OW25387   8.414   0.173  12.072
74497SOL    HW125388   8.493   0.226  12.085
74497SOL    HW225389   8.428   0.131  11.986
74498SOL     OW25390  13.467  11.930  10.056
74498SOL    HW125391  13.477  12.003   9.995
74498SOL    HW225392  13.453  11.973  10.141
74499SOL     OW25393  12.929   3.584   6.041
74499SOL    HW125394  12.835   3.571   6.052
74499SOL    HW225395  12.962   3.501   6.007
74500SOL     OW25396   4.230  14.722   0.200
74500SOL    HW125397   4.155  14.777   0.179
74500SOL    HW225398   4.279  14.716   0.118
74501SOL     OW25399   3.401   0.902   9.014
74501SOL    HW125400   3.435   0.986   9.046
74501SOL    HW225401   3.340   0.873   9.081
74502SOL     OW25402   1.523  10.258  14.569
74502SOL    HW125403   1.609  10.217  14.563
74502SOL    HW225404   1.490  10.232  14.655
74503SOL     OW25405  11.567   6.930   3.524
74503SOL    HW125406  11.490   6.987   3.518
74503SOL    HW225407  11.562   6.894   3.613
74504SOL     OW25408   9.422   6.106   8.400
74504SOL    HW125409   9.430   6.136   8.309
74504SOL    HW225410   9.463   6.174   8.452
74505SOL     OW25411   2.448   6.658  10.906
74505SOL    HW125412   2.480   6.652  10.996
74505SOL    HW225413   2.521   6.696  10.857
74506SOL     OW25414   9.901  11.433   1.047
74506SOL    HW125415   9.832  11.490   1.081
74506SOL    HW225416   9.859  11.384   0.976
74507SOL     OW25417  13.032   7.521  10.097
74507SOL    HW125418  13.007   7.455  10.161
74507SOL    HW225419  13.056   7.598  10.149
74508SOL     OW25420   9.635  11.066   5.240
74508SOL    HW125421   9.710  11.108   5.198
74508SOL    HW225422   9.673  10.992   5.289
74509SOL     OW25423   0.633  11.950   9.309
74509SOL    HW125424   0.683  11.959   9.390
74509SOL    HW225425   0.622  11.856   9.297
74510SOL     OW25426  12.230  13.669   7.399
74510SOL    HW125427  12.190  13.602   7.454
74510SOL    HW225428  12.181  13.665   7.317
74511SOL     OW25429   9.377   2.739   9.949
74511SOL    HW125430   9.400   2.679  10.019
74511SOL    HW225431   9.459   2.755   9.902
74512SOL     OW25432  12.716   7.239   9.015
74512SOL    HW125433  12.629   7.199   9.018
74512SOL    HW225434  12.755   7.206   8.934
74513SOL     OW25435  12.547  11.113   2.984
74513SOL    HW125436  12.491  11.112   2.906
74513SOL    HW225437  12.623  11.061   2.959
74514SOL     OW25438   1.328   1.633   2.938
74514SOL    HW125439   1.385   1.660   3.010
74514SOL    HW225440   1.239   1.654   2.969
74515SOL     OW25441   3.195   8.138  12.839
74515SOL    HW125442   3.167   8.180  12.920
74515SOL    HW225443   3.245   8.062  12.868
74516SOL     OW25444   3.968   9.722  13.584
74516SOL    HW125445   3.925   9.804  13.609
74516SOL    HW225446   3.935   9.658  13.647
74517SOL     OW25447  12.421   8.830   9.171
74517SOL    HW125448  12.455   8.894   9.234
74517SOL    HW225449  12.472   8.751   9.186
74518SOL     OW25450   8.944  10.184   4.699
74518SOL    HW125451   8.865  10.196   4.646
74518SOL    HW225452   9.000  10.129   4.644
74519SOL     OW25453   9.529  12.575   8.236
74519SOL    HW125454   9.460  12.615   8.288
74519SOL    HW225455   9.610  12.610   8.273
74520SOL     OW25456   9.556   2.051   1.153
74520SOL    HW125457   9.608   2.033   1.075
74520SOL    HW225458   9.515   1.967   1.175
74521SOL     OW25459   6.512   9.844  13.733
74521SOL    HW125460   6.482   9.823  13.821
74521SOL    HW225461   6.608   9.840  13.739
74522SOL     OW25462   1.099   4.142  11.588
74522SOL    HW125463   1.082   4.236  11.586
74522SOL    HW225464   1.029   4.106  11.643
74523SOL     OW25465   6.520   7.330   1.399
74523SOL    HW125466   6.581   7.296   1.465
74523SOL    HW225467   6.434   7.303   1.429
74524SOL     OW25468  12.670  10.310   5.187
74524SOL    HW125469  12.622  10.293   5.105
74524SOL    HW225470  12.666  10.405   5.198
74525SOL     OW25471   5.512  10.773   7.705
74525SOL    HW125472   5.427  10.803   7.674
74525SOL    HW225473   5.491  10.703   7.767
74526SOL     OW25474  12.367   8.259  11.868
74526SOL    HW125475  12.305   8.292  11.933
74526SOL    HW225476  12.404   8.180  11.908
74527SOL     OW25477  10.167   3.967   7.696
74527SOL    HW125478  10.140   3.987   7.607
74527SOL    HW225479  10.260   3.990   7.699
74528SOL     OW25480   8.062   1.240  11.976
74528SOL    HW125481   8.012   1.253  11.895
74528SOL    HW225482   8.046   1.148  11.998
74529SOL     OW25483  10.794   9.245  12.162
74529SOL    HW125484  10.801   9.202  12.077
74529SOL    HW225485  10.853   9.196  12.219
74530SOL     OW25486   5.298  12.320   5.596
74530SOL    HW125487   5.333  12.375   5.526
74530SOL    HW225488   5.301  12.375   5.675
74531SOL     OW25489   5.706  14.664   3.070
74531SOL    HW125490   5.673  14.575   3.056
74531SOL    HW225491   5.632  14.710   3.109
74532SOL     OW25492   9.542   4.867  13.293
74532SOL    HW125493   9.596   4.885  13.370
74532SOL    HW225494   9.502   4.951  13.272
74533SOL     OW25495   8.710   2.559   8.594
74533SOL    HW125496   8.768   2.557   8.670
74533SOL    HW225497   8.692   2.467   8.575
74534SOL     OW25498  13.521  11.020   6.135
74534SOL    HW125499  13.529  11.020   6.230
74534SOL    HW225500  13.470  10.941   6.115
74535SOL     OW25501  13.323  14.870   1.191
74535SOL    HW125502  13.272  14.849   1.113
74535SOL    HW225503  13.396   0.042   1.159
74536SOL     OW25504  11.146   0.456   1.697
74536SOL    HW125505  11.169   0.390   1.763
74536SOL    HW225506  11.063   0.425   1.660
74537SOL     OW25507  14.549  12.887   2.617
74537SOL    HW125508  14.611  12.924   2.680
74537SOL    HW225509  14.464  12.921   2.644
74538SOL     OW25510   9.725   0.714  11.821
74538SOL    HW125511   9.819   0.700  11.822
74538SOL    HW225512   9.688   0.631  11.789
74539SOL     OW25513   0.844  14.557  11.827
74539SOL    HW125514   0.913  14.556  11.894
74539SOL    HW225515   0.836  14.467  11.799
74540SOL     OW25516  12.283   8.906   2.009
74540SOL    HW125517  12.229   8.954   1.947
74540SOL    HW225518  12.324   8.836   1.958
74541SOL     OW25519  10.954   1.541   2.561
74541SOL    HW125520  11.022   1.600   2.593
74541SOL    HW225521  10.874   1.570   2.606
74542SOL     OW25522  10.437  14.431   1.707
74542SOL    HW125523  10.402  14.476   1.630
74542SOL    HW225524  10.483  14.355   1.672
74543SOL     OW25525   4.425   4.536   6.302
74543SOL    HW125526   4.485   4.601   6.339
74543SOL    HW225527   4.406   4.477   6.375
74544SOL     OW25528   3.990  12.325   7.671
74544SOL    HW125529   4.080  12.305   7.698
74544SOL    HW225530   3.935  12.288   7.741
74545SOL     OW25531   8.604  14.556  13.061
74545SOL    HW125532   8.670  14.557  12.991
74545SOL    HW225533   8.546  14.629  13.039
74546SOL     OW25534   5.827  13.787   6.838
74546SOL    HW125535   5.897  13.768   6.775
74546SOL    HW225536   5.747  13.782   6.785
74547SOL     OW25537   1.558   5.539   3.247
74547SOL    HW125538   1.593   5.598   3.315
74547SOL    HW225539   1.624   5.540   3.178
74548SOL     OW25540   0.023  12.542   5.212
74548SOL    HW125541  14.867  12.608   5.270
74548SOL    HW225542   0.088  12.498   5.266
74549SOL     OW25543   7.402   9.142  12.054
74549SOL    HW125544   7.455   9.091  11.994
74549SOL    HW225545   7.461   9.163  12.127
74550SOL     OW25546   3.049   3.025   2.346
74550SOL    HW125547   3.116   2.957   2.343
74550SOL    HW225548   2.966   2.977   2.346
74551SOL     OW25549   7.805   3.839   6.857
74551SOL    HW125550   7.721   3.821   6.815
74551SOL    HW225551   7.787   3.834   6.950
74552SOL     OW25552  13.387   2.524   8.876
74552SOL    HW125553  13.343   2.489   8.798
74552SOL    HW225554  13.317   2.535   8.940
74553SOL     OW25555  10.003  12.244  12.040
74553SOL    HW125556  10.069  12.176  12.031
74553SOL    HW225557  10.041  12.320  11.995
74554SOL     OW25558   2.487   6.909   3.111
74554SOL    HW125559   2.444   6.833   3.073
74554SOL    HW225560   2.513   6.881   3.199
74555SOL     OW25561   4.536  11.765   1.291
74555SOL    HW125562   4.483  11.688   1.271
74555SOL    HW225563   4.605  11.733   1.349
74556SOL     OW25564  13.193   1.822   4.798
74556SOL    HW125565  13.200   1.848   4.889
74556SOL    HW225566  13.138   1.744   4.799
74557SOL     OW25567   4.459   8.860   3.718
74557SOL    HW125568   4.434   8.941   3.674
74557SOL    HW225569   4.476   8.885   3.809
74558SOL     OW25570   3.340  12.406  10.925
74558SOL    HW125571   3.284  12.345  10.973
74558SOL    HW225572   3.405  12.434  10.989
74559SOL     OW25573   1.914  13.822   8.343
74559SOL    HW125574   1.855  13.865   8.406
74559SOL    HW225575   1.917  13.882   8.268
74560SOL     OW25576   2.993   6.277   0.689
74560SOL    HW125577   3.073   6.328   0.677
74560SOL    HW225578   2.924   6.331   0.652
74561SOL     OW25579   5.257   1.905   6.780
74561SOL    HW125580   5.188   1.846   6.811
74561SOL    HW225581   5.337   1.852   6.784
74562SOL     OW25582   0.034  10.729   7.414
74562SOL    HW125583  14.849  10.690   7.359
74562SOL    HW225584   0.017  10.823   7.412
74563SOL     OW25585   8.667   8.635   2.239
74563SOL    HW125586   8.660   8.664   2.148
74563SOL    HW225587   8.671   8.716   2.290
74564SOL     OW25588   8.124   6.767   0.106
74564SOL    HW125589   8.062   6.733   0.170
74564SOL    HW225590   8.071   6.783   0.027
74565SOL     OW25591  12.960   3.079   7.124
74565SOL    HW125592  12.922   3.163   7.149
74565SOL    HW225593  13.029   3.063   7.188
74566SOL     OW25594  14.693   3.207   4.860
74566SOL    HW125595  14.785   3.186   4.845
74566SOL    HW225596  14.671   3.159   4.940
74567SOL     OW25597   4.892   9.244   7.581
74567SOL    HW125598   4.921   9.167   7.533
74567SOL    HW225599   4.960   9.259   7.646
74568SOL     OW25600  12.797  14.794   7.307
74568SOL    HW125601  12.823  14.703   7.325
74568SOL    HW225602  12.879  14.844   7.309
74569SOL     OW25603  10.801  11.650   7.327
74569SOL    HW125604  10.749  11.571   7.315
74569SOL    HW225605  10.842  11.639   7.413
74570SOL     OW25606  11.120   4.641   3.618
74570SOL    HW125607  11.073   4.559   3.629
74570SOL    HW225608  11.196   4.618   3.564
74571SOL     OW25609   0.108  10.241  13.493
74571SOL    HW125610   0.126  10.317  13.548
74571SOL    HW225611   0.172  10.175  13.521
74572SOL     OW25612   1.376  11.130   6.841
74572SOL    HW125613   1.280  11.132   6.840
74572SOL    HW225614   1.402  11.168   6.757
74573SOL     OW25615   8.259   2.097   7.735
74573SOL    HW125616   8.205   2.060   7.665
74573SOL    HW225617   8.303   2.022   7.773
74574SOL     OW25618  12.295   8.559   0.067
74574SOL    HW125619  12.348   8.483   0.093
74574SOL    HW225620  12.299   8.559  14.854
74575SOL     OW25621  14.492   3.785   0.414
74575SOL    HW125622  14.574   3.834   0.408
74575SOL    HW225623  14.456   3.787   0.325
74576SOL     OW25624  13.465   9.188  12.481
74576SOL    HW125625  13.554   9.158  12.503
74576SOL    HW225626  13.465   9.193  12.386
74577SOL     OW25627   8.963  11.927   0.364
74577SOL    HW125628   9.047  11.925   0.319
74577SOL    HW225629   8.906  11.872   0.310
74578SOL     OW25630  12.071  13.014   0.801
74578SOL    HW125631  12.086  13.108   0.791
74578SOL    HW225632  12.108  12.992   0.887
74579SOL     OW25633   7.208   9.025  13.991
74579SOL    HW125634   7.160   9.076  14.055
74579SOL    HW225635   7.227   8.942  14.035
74580SOL     OW25636   6.115  11.955   2.342
74580SOL    HW125637   6.021  11.946   2.329
74580SOL    HW225638   6.124  12.017   2.414
74581SOL     OW25639   1.872  12.279   6.814
74581SOL    HW125640   1.794  12.326   6.844
74581SOL    HW225641   1.882  12.305   6.723
74582SOL     OW25642   7.129   5.413  13.337
74582SOL    HW125643   7.162   5.496  13.303
74582SOL    HW225644   7.156   5.348  13.272
74583SOL     OW25645  13.234  12.145  11.005
74583SOL    HW125646  13.217  12.100  11.088
74583SOL    HW225647  13.299  12.090  10.962
74584SOL     OW25648  12.154  14.640   1.764
74584SOL    HW125649  12.190  14.560   1.725
74584SOL    HW225650  12.133  14.696   1.690
74585SOL     OW25651   6.372   8.607   2.054
74585SOL    HW125652   6.334   8.677   2.001
74585SOL    HW225653   6.323   8.529   2.030
74586SOL     OW25654   4.715  12.680   1.692
74586SOL    HW125655   4.635  12.665   1.642
74586SOL    HW225656   4.778  12.713   1.628
74587SOL     OW25657   9.550   6.123  14.014
74587SOL    HW125658   9.621   6.145  14.075
74587SOL    HW225659   9.546   6.197  13.954
74588SOL     OW25660   7.999  13.405   2.619
74588SOL    HW125661   7.939  13.420   2.546
74588SOL    HW225662   7.943  13.383   2.693
74589SOL     OW25663  14.878  12.003   1.452
74589SOL    HW125664   0.035  11.981   1.368
74589SOL    HW225665  14.844  12.092   1.441
74590SOL     OW25666   6.588   9.716  14.750
74590SOL    HW125667   6.492   9.720  14.752
74590SOL    HW225668   6.608   9.635  14.704
74591SOL     OW25669   3.449   5.302  14.466
74591SOL    HW125670   3.383   5.233  14.458
74591SOL    HW225671   3.488   5.287  14.552
74592SOL     OW25672  12.100   6.080  12.373
74592SOL    HW125673  12.056   6.030  12.441
74592SOL    HW225674  12.033   6.091  12.305
74593SOL     OW25675   9.439   5.370  13.919
74593SOL    HW125676   9.475   5.335  13.838
74593SOL    HW225677   9.454   5.301  13.984
74594SOL     OW25678   9.534   3.697   0.838
74594SOL    HW125679   9.452   3.746   0.830
74594SOL    HW225680   9.526   3.652   0.922
74595SOL     OW25681   5.903   4.869   3.461
74595SOL    HW125682   5.950   4.933   3.515
74595SOL    HW225683   5.811   4.885   3.481
74596SOL     OW25684   0.473  12.317  12.090
74596SOL    HW125685   0.461  12.379  12.017
74596SOL    HW225686   0.386  12.311  12.130
74597SOL     OW25687  11.321  10.671  13.701
74597SOL    HW125688  11.280  10.746  13.659
74597SOL    HW225689  11.267  10.653  13.778
74598SOL     OW25690   0.291  13.966  13.602
74598SOL    HW125691   0.290  13.934  13.512
74598SOL    HW225692   0.268  14.058  13.596
74599SOL     OW25693  13.875   8.398   8.662
74599SOL    HW125694  13.847   8.338   8.731
74599SOL    HW225695  13.847   8.485   8.693
74600SOL     OW25696   3.282  10.086   5.252
74600SOL    HW125697   3.329  10.110   5.332
74600SOL    HW225698   3.211  10.150   5.245
74601SOL     OW25699   1.938   5.601   7.679
74601SOL    HW125700   1.953   5.677   7.623
74601SOL    HW225701   1.986   5.621   7.760
74602SOL     OW25702   0.080   4.089  10.893
74602SOL    HW125703   0.168   4.117  10.869
74602SOL    HW225704   0.092   4.007  10.940
74603SOL     OW25705  14.835   5.097   6.817
74603SOL    HW125706  14.821   5.031   6.885
74603SOL    HW225707  14.812   5.180   6.860
74604SOL     OW25708   4.644  12.434   5.820
74604SOL    HW125709   4.613  12.365   5.879
74604SOL    HW225710   4.597  12.513   5.849
74605SOL     OW25711  13.994   9.658   1.477
74605SOL    HW125712  13.904   9.628   1.464
74605SOL    HW225713  14.012   9.638   1.568
74606SOL     OW25714   2.122   4.723   5.202
74606SOL    HW125715   2.161   4.652   5.151
74606SOL    HW225716   2.076   4.777   5.137
74607SOL     OW25717  14.293   7.107   8.982
74607SOL    HW125718  14.357   7.155   8.930
74607SOL    HW225719  14.242   7.175   9.027
74608SOL     OW25720  14.280   2.554   1.183
74608SOL    HW125721  14.370   2.529   1.161
74608SOL    HW225722  14.280   2.563   1.278
74609SOL     OW25723  12.901   9.736  10.134
74609SOL    HW125724  12.982   9.777  10.163
74609SOL    HW225725  12.874   9.680  10.207
74610SOL     OW25726   5.909   2.330   4.579
74610SOL    HW125727   5.964   2.385   4.523
74610SOL    HW225728   5.925   2.241   4.550
74611SOL     OW25729   4.497  13.542   2.760
74611SOL    HW125730   4.423  13.494   2.724
74611SOL    HW225731   4.510  13.616   2.700
74612SOL     OW25732  13.821   1.091  13.822
74612SOL    HW125733  13.795   1.055  13.738
74612SOL    HW225734  13.798   1.184  13.817
74613SOL     OW25735   6.499  14.743   9.035
74613SOL    HW125736   6.478  14.650   9.033
74613SOL    HW225737   6.414  14.787   9.031
74614SOL     OW25738   4.408   1.685   4.322
74614SOL    HW125739   4.353   1.763   4.327
74614SOL    HW225740   4.352   1.618   4.284
74615SOL     OW25741   3.102  11.189   4.750
74615SOL    HW125742   3.080  11.279   4.726
74615SOL    HW225743   3.178  11.198   4.808
74616SOL     OW25744   9.019  10.571   7.664
74616SOL    HW125745   9.059  10.527   7.589
74616SOL    HW225746   8.925  10.572   7.643
74617SOL     OW25747  12.261   0.288  10.773
74617SOL    HW125748  12.268   0.217  10.709
74617SOL    HW225749  12.351   0.310  10.796
74618SOL     OW25750  12.913  12.440  14.840
74618SOL    HW125751  12.829  12.463  14.880
74618SOL    HW225752  12.978  12.489   0.008
74619SOL     OW25753   2.188   7.135   8.633
74619SOL    HW125754   2.231   7.086   8.703
74619SOL    HW225755   2.109   7.085   8.614
74620SOL     OW25756   2.700  13.932   5.991
74620SOL    HW125757   2.785  13.899   6.020
74620SOL    HW225758   2.697  14.021   6.026
74621SOL     OW25759  10.809   6.028  14.004
74621SOL    HW125760  10.789   6.064  13.917
74621SOL    HW225761  10.849   5.943  13.985
74622SOL     OW25762   2.232   9.623   0.011
74622SOL    HW125763   2.167   9.682  14.853
74622SOL    HW225764   2.264   9.672   0.087
74623SOL     OW25765   1.267   9.854   9.784
74623SOL    HW125766   1.187   9.898   9.756
74623SOL    HW225767   1.337   9.895   9.732
74624SOL     OW25768   9.714   7.876   7.100
74624SOL    HW125769   9.801   7.878   7.140
74624SOL    HW225770   9.670   7.955   7.132
74625SOL     OW25771   3.797   9.907   6.985
74625SOL    HW125772   3.797   9.872   6.896
74625SOL    HW225773   3.728   9.973   6.986
74626SOL     OW25774   0.309  13.925   2.530
74626SOL    HW125775   0.231  13.939   2.477
74626SOL    HW225776   0.354  13.852   2.488
74627SOL     OW25777  13.133   8.890   7.118
74627SOL    HW125778  13.221   8.929   7.114
74627SOL    HW225779  13.149   8.799   7.145
74628SOL     OW25780   5.876  14.067   4.274
74628SOL    HW125781   5.842  14.085   4.361
74628SOL    HW225782   5.808  14.012   4.233
74629SOL     OW25783  10.289   9.415   6.943
74629SOL    HW125784  10.271   9.490   7.000
74629SOL    HW225785  10.334   9.352   6.999
74630SOL     OW25786   0.318   0.433   0.187
74630SOL    HW125787   0.242   0.482   0.218
74630SOL    HW225788   0.337   0.470   0.101
74631SOL     OW25789   1.924   6.906   5.047
74631SOL    HW125790   2.012   6.888   5.080
74631SOL    HW225791   1.868   6.901   5.124
74632SOL     OW25792   2.477   4.145   3.372
74632SOL    HW125793   2.415   4.114   3.306
74632SOL    HW225794   2.430   4.134   3.455
74633SOL     OW25795   6.760   8.307   5.677
74633SOL    HW125796   6.843   8.348   5.654
74633SOL    HW225797   6.770   8.282   5.769
74634SOL     OW25798   1.079   0.306   4.740
74634SOL    HW125799   1.106   0.243   4.807
74634SOL    HW225800   1.011   0.359   4.783
74635SOL     OW25801   5.286  13.753  10.756
74635SOL    HW125802   5.269  13.709  10.673
74635SOL    HW225803   5.381  13.760  10.760
74636SOL     OW25804   8.924   2.335   5.291
74636SOL    HW125805   8.951   2.391   5.364
74636SOL    HW225806   9.005   2.301   5.254
74637SOL     OW25807   9.315   5.492  10.891
74637SOL    HW125808   9.240   5.459  10.842
74637SOL    HW225809   9.332   5.425  10.957
74638SOL     OW25810  14.248  10.672   1.644
74638SOL    HW125811  14.305  10.686   1.720
74638SOL    HW225812  14.308  10.647   1.573
74639SOL     OW25813   2.090   4.453  10.528
74639SOL    HW125814   2.126   4.475  10.614
74639SOL    HW225815   2.163   4.411  10.482
74640SOL     OW25816   9.849  10.776  10.487
74640SOL    HW125817   9.865  10.718  10.561
74640SOL    HW225818   9.769  10.744  10.447
74641SOL     OW25819   5.266   5.693   0.916
74641SOL    HW125820   5.344   5.721   0.869
74641SOL    HW225821   5.195   5.742   0.875
74642SOL     OW25822   3.236   1.565   5.555
74642SOL    HW125823   3.212   1.646   5.599
74642SOL    HW225824   3.173   1.500   5.587
74643SOL     OW25825   2.840   5.747  12.176
74643SOL    HW125826   2.795   5.682  12.122
74643SOL    HW225827   2.840   5.826  12.122
74644SOL     OW25828   0.909   0.136   8.007
74644SOL    HW125829   0.974   0.069   7.989
74644SOL    HW225830   0.869   0.154   7.922
74645SOL     OW25831   9.046  13.194   2.994
74645SOL    HW125832   9.052  13.287   3.017
74645SOL    HW225833   8.954  13.181   2.970
74646SOL     OW25834   4.087   7.490   8.424
74646SOL    HW125835   4.097   7.517   8.333
74646SOL    HW225836   4.168   7.518   8.467
74647SOL     OW25837   5.038   2.212  14.659
74647SOL    HW125838   4.967   2.172  14.709
74647SOL    HW225839   5.018   2.305  14.659
74648SOL     OW25840   5.876   4.405   7.535
74648SOL    HW125841   5.810   4.416   7.603
74648SOL    HW225842   5.829   4.421   7.453
74649SOL     OW25843  10.631   2.026   2.467
74649SOL    HW125844  10.612   2.096   2.405
74649SOL    HW225845  10.563   2.034   2.534
74650SOL     OW25846   1.428   4.160  10.535
74650SOL    HW125847   1.344   4.172  10.489
74650SOL    HW225848   1.426   4.069  10.565
74651SOL     OW25849  12.479   7.509   3.854
74651SOL    HW125850  12.442   7.474   3.773
74651SOL    HW225851  12.553   7.563   3.826
74652SOL     OW25852  11.496  13.107   0.202
74652SOL    HW125853  11.443  13.092   0.124
74652SOL    HW225854  11.586  13.088   0.173
74653SOL     OW25855  10.433   4.738   7.501
74653SOL    HW125856  10.363   4.686   7.460
74653SOL    HW225857  10.488   4.765   7.427
74654SOL     OW25858  14.490   5.668   2.042
74654SOL    HW125859  14.481   5.672   1.947
74654SOL    HW225860  14.461   5.753   2.073
74655SOL     OW25861   4.798   6.396   4.378
74655SOL    HW125862   4.830   6.376   4.291
74655SOL    HW225863   4.783   6.491   4.378
74656SOL     OW25864   3.277  14.071  14.687
74656SOL    HW125865   3.223  14.116  14.622
74656SOL    HW225866   3.257  13.978  14.673
74657SOL     OW25867   3.908   4.460   6.293
74657SOL    HW125868   3.984   4.501   6.253
74657SOL    HW225869   3.937   4.371   6.314
74658SOL     OW25870   7.912   5.545  11.947
74658SOL    HW125871   7.829   5.519  11.907
74658SOL    HW225872   7.929   5.479  12.014
74659SOL     OW25873  12.011  12.396  12.014
74659SOL    HW125874  12.013  12.373  11.921
74659SOL    HW225875  12.088  12.453  12.026
74660SOL     OW25876  12.105   3.792   9.507
74660SOL    HW125877  12.104   3.881   9.542
74660SOL    HW225878  12.021   3.755   9.533
74661SOL     OW25879   0.294   7.074   9.268
74661SOL    HW125880   0.287   7.154   9.320
74661SOL    HW225881   0.372   7.089   9.213
74662SOL     OW25882   2.651   4.852  11.040
74662SOL    HW125883   2.677   4.806  11.120
74662SOL    HW225884   2.556   4.836  11.034
74663SOL     OW25885   8.380   3.262   0.394
74663SOL    HW125886   8.327   3.190   0.428
74663SOL    HW225887   8.332   3.341   0.418
74664SOL     OW25888   0.518   7.057   2.585
74664SOL    HW125889   0.553   7.073   2.497
74664SOL    HW225890   0.592   7.019   2.633
74665SOL     OW25891   2.652   8.879   3.272
74665SOL    HW125892   2.634   8.965   3.233
74665SOL    HW225893   2.735   8.891   3.318
74666SOL     OW25894   9.582   8.713   6.057
74666SOL    HW125895   9.535   8.761   5.990
74666SOL    HW225896   9.647   8.662   6.009
74667SOL     OW25897  11.401   7.835   9.584
74667SOL    HW125898  11.476   7.892   9.569
74667SOL    HW225899  11.419   7.792   9.668
74668SOL     OW25900   6.700   5.776  13.698
74668SOL    HW125901   6.734   5.790  13.786
74668SOL    HW225902   6.639   5.703  13.707
74669SOL     OW25903   8.111  12.573  14.743
74669SOL    HW125904   8.084  12.627  14.817
74669SOL    HW225905   8.086  12.484  14.769
74670SOL     OW25906   2.890   0.865  14.471
74670SOL    HW125907   2.938   0.942  14.440
74670SOL    HW225908   2.940   0.834  14.546
74671SOL     OW25909   7.546   9.817   0.368
74671SOL    HW125910   7.614   9.867   0.324
74671SOL    HW225911   7.469   9.825   0.312
74672SOL     OW25912   5.504   3.905   1.189
74672SOL    HW125913   5.538   3.992   1.167
74672SOL    HW225914   5.550   3.845   1.131
74673SOL     OW25915   8.226  14.251   0.313
74673SOL    HW125916   8.287  14.324   0.320
74673SOL    HW225917   8.271  14.187   0.258
74674SOL     OW25918  12.784  10.695   7.181
74674SOL    HW125919  12.843  10.651   7.242
74674SOL    HW225920  12.771  10.632   7.110
74675SOL     OW25921  14.432   3.950   9.153
74675SOL    HW125922  14.354   3.911   9.194
74675SOL    HW225923  14.502   3.887   9.170
74676SOL     OW25924  12.570   0.801   5.312
74676SOL    HW125925  12.657   0.834   5.332
74676SOL    HW225926  12.528   0.870   5.261
74677SOL     OW25927   9.658   6.877   5.559
74677SOL    HW125928   9.746   6.869   5.596
74677SOL    HW225929   9.601   6.887   5.635
74678SOL     OW25930  14.033  10.357   7.358
74678SOL    HW125931  14.096  10.346   7.430
74678SOL    HW225932  13.969  10.419   7.392
74679SOL     OW25933   0.827   5.262   7.604
74679SOL    HW125934   0.828   5.191   7.541
74679SOL    HW225935   0.831   5.219   7.690
74680SOL     OW25936  11.999   7.558   2.222
74680SOL    HW125937  12.052   7.598   2.291
74680SOL    HW225938  11.910   7.557   2.258
74681SOL     OW25939  14.565   0.419   8.121
74681SOL    HW125940  14.523   0.505   8.129
74681SOL    HW225941  14.492   0.359   8.102
74682SOL     OW25942   9.934   8.254   8.273
74682SOL    HW125943   9.903   8.164   8.263
74682SOL    HW225944  10.012   8.247   8.329
74683SOL     OW25945  10.628   7.423   8.211
74683SOL    HW125946  10.569   7.465   8.274
74683SOL    HW225947  10.696   7.383   8.264
74684SOL     OW25948   1.186  12.394  14.260
74684SOL    HW125949   1.220  12.461  14.319
74684SOL    HW225950   1.095  12.383  14.287
74685SOL     OW25951   3.142   5.284   1.925
74685SOL    HW125952   3.237   5.280   1.937
74685SOL    HW225953   3.122   5.378   1.921
74686SOL     OW25954  11.142  12.294  11.599
74686SOL    HW125955  11.165  12.379  11.561
74686SOL    HW225956  11.068  12.263  11.546
74687SOL     OW25957  11.019   7.327  14.580
74687SOL    HW125958  11.006   7.416  14.611
74687SOL    HW225959  10.943   7.308  14.526
74688SOL     OW25960   0.371  13.938   8.474
74688SOL    HW125961   0.391  13.853   8.434
74688SOL    HW225962   0.388  13.924   8.568
74689SOL     OW25963  10.676  14.705  10.696
74689SOL    HW125964  10.756  14.674  10.652
74689SOL    HW225965  10.652  14.785  10.650
74690SOL     OW25966  12.736  14.580   9.682
74690SOL    HW125967  12.770  14.497   9.649
74690SOL    HW225968  12.809  14.619   9.731
74691SOL     OW25969  12.004   1.360   6.579
74691SOL    HW125970  12.069   1.402   6.636
74691SOL    HW225971  11.920   1.385   6.617
74692SOL     OW25972   8.392   2.405  13.629
74692SOL    HW125973   8.333   2.383  13.557
74692SOL    HW225974   8.469   2.443  13.587
74693SOL     OW25975  10.023   3.733   7.146
74693SOL    HW125976   9.982   3.748   7.231
74693SOL    HW225977   9.977   3.793   7.087
74694SOL     OW25978  12.656   1.497   0.015
74694SOL    HW125979  12.631   1.435   0.083
74694SOL    HW225980  12.577   1.550   0.000
74695SOL     OW25981   5.555   4.530   7.073
74695SOL    HW125982   5.477   4.524   7.018
74695SOL    HW225983   5.582   4.622   7.066
74696SOL     OW25984   0.916  14.124  11.733
74696SOL    HW125985   0.994  14.165  11.694
74696SOL    HW225986   0.951  14.062  11.796
74697SOL     OW25987   0.943   3.205   1.169
74697SOL    HW125988   1.013   3.206   1.104
74697SOL    HW225989   0.863   3.213   1.118
74698SOL     OW25990  11.270  11.335   6.649
74698SOL    HW125991  11.342  11.331   6.586
74698SOL    HW225992  11.194  11.359   6.596
74699SOL     OW25993  10.836   6.911   1.360
74699SOL    HW125994  10.908   6.965   1.327
74699SOL    HW225995  10.774   6.906   1.287
74700SOL     OW25996   9.443   6.973   0.250
74700SOL    HW125997   9.423   6.988   0.158
74700SOL    HW225998   9.467   6.880   0.255
74701SOL     OW25999  12.330   6.944  12.040
74701SOL    HW126000  12.261   7.001  12.076
74701SOL    HW226001  12.399   6.946  12.106
74702SOL     OW26002  13.388   1.293   7.901
74702SOL    HW126003  13.420   1.369   7.852
74702SOL    HW226004  13.324   1.329   7.962
74703SOL     OW26005   9.078  11.140  11.606
74703SOL    HW126006   9.135  11.204  11.563
74703SOL    HW226007   9.132  11.061  11.612
74704SOL     OW26008   4.370   2.641   3.642
74704SOL    HW126009   4.441   2.648   3.705
74704SOL    HW226010   4.406   2.589   3.570
74705SOL     OW26011  11.409   3.798   1.419
74705SOL    HW126012  11.380   3.878   1.375
74705SOL    HW226013  11.451   3.746   1.350
74706SOL     OW26014  10.178  10.418   3.077
74706SOL    HW126015  10.120  10.370   3.018
74706SOL    HW226016  10.197  10.356   3.148
74707SOL     OW26017   4.257   0.895   2.672
74707SOL    HW126018   4.265   0.968   2.734
74707SOL    HW226019   4.286   0.819   2.722
74708SOL     OW26020   2.648   8.968  11.495
74708SOL    HW126021   2.695   8.991  11.416
74708SOL    HW226022   2.558   8.997  11.479
74709SOL     OW26023   4.131   7.049   0.731
74709SOL    HW126024   4.225   7.067   0.742
74709SOL    HW226025   4.106   7.100   0.653
74710SOL     OW26026  13.865  10.256   4.340
74710SOL    HW126027  13.795  10.277   4.278
74710SOL    HW226028  13.881  10.339   4.386
74711SOL     OW26029  11.318  13.834   7.163
74711SOL    HW126030  11.382  13.905   7.148
74711SOL    HW226031  11.233  13.878   7.163
74712SOL     OW26032   8.999  13.384   8.217
74712SOL    HW126033   9.005  13.296   8.256
74712SOL    HW226034   9.044  13.441   8.279
74713SOL     OW26035  13.499   1.398   0.819
74713SOL    HW126036  13.591   1.400   0.795
74713SOL    HW226037  13.481   1.305   0.835
74714SOL     OW26038   9.817   7.677   5.684
74714SOL    HW126039   9.877   7.625   5.631
74714SOL    HW226040   9.843   7.660   5.775
74715SOL     OW26041   6.697   9.767   0.500
74715SOL    HW126042   6.764   9.707   0.467
74715SOL    HW226043   6.688   9.833   0.432
74716SOL     OW26044  13.439   9.126  10.576
74716SOL    HW126045  13.516   9.156  10.527
74716SOL    HW226046  13.474   9.090  10.657
74717SOL     OW26047   9.369  11.792   0.552
74717SOL    HW126048   9.407  11.842   0.625
74717SOL    HW226049   9.275  11.798   0.566
74718SOL     OW26050   5.048   9.484  13.901
74718SOL    HW126051   5.133   9.477  13.856
74718SOL    HW226052   4.984   9.478  13.830
74719SOL     OW26053   5.165   4.233   8.079
74719SOL    HW126054   5.077   4.267   8.097
74719SOL    HW226055   5.224   4.297   8.118
74720SOL     OW26056  12.613   7.544   7.952
74720SOL    HW126057  12.520   7.523   7.955
74720SOL    HW226058  12.647   7.492   7.880
74721SOL     OW26059   1.387   0.957   0.506
74721SOL    HW126060   1.433   0.873   0.510
74721SOL    HW226061   1.351   0.968   0.594
74722SOL     OW26062   6.586  12.536  13.051
74722SOL    HW126063   6.673  12.553  13.015
74722SOL    HW226064   6.546  12.476  12.988
74723SOL     OW26065  13.297  11.397   1.185
74723SOL    HW126066  13.233  11.449   1.137
74723SOL    HW226067  13.379  11.447   1.178
74724SOL     OW26068  10.843   3.057   8.089
74724SOL    HW126069  10.837   3.138   8.140
74724SOL    HW226070  10.892   3.082   8.011
74725SOL     OW26071   1.173  11.081   6.476
74725SOL    HW126072   1.163  11.010   6.412
74725SOL    HW226073   1.084  11.110   6.495
74726SOL     OW26074   3.583   5.684   8.671
74726SOL    HW126075   3.559   5.632   8.748
74726SOL    HW226076   3.600   5.618   8.603
74727SOL     OW26077   2.722  14.608   7.998
74727SOL    HW126078   2.767  14.626   8.081
74727SOL    HW226079   2.640  14.566   8.025
74728SOL     OW26080  10.642  12.162  12.103
74728SOL    HW126081  10.606  12.081  12.138
74728SOL    HW226082  10.694  12.198  12.176
74729SOL     OW26083  13.640   5.224   9.017
74729SOL    HW126084  13.559   5.201   9.062
74729SOL    HW226085  13.680   5.291   9.072
74730SOL     OW26086  10.327   2.347   3.770
74730SOL    HW126087  10.308   2.437   3.743
74730SOL    HW226088  10.246   2.316   3.810
74731SOL     OW26089   7.124  12.827  13.554
74731SOL    HW126090   7.065  12.900  13.537
74731SOL    HW226091   7.212  12.864  13.546
74732SOL     OW26092  11.220   1.825   5.441
74732SOL    HW126093  11.206   1.850   5.350
74732SOL    HW226094  11.201   1.904   5.491
74733SOL     OW26095   5.923  12.371   8.167
74733SOL    HW126096   5.933  12.428   8.243
74733SOL    HW226097   5.898  12.286   8.204
74734SOL     OW26098  14.350   3.068   0.964
74734SOL    HW126099  14.259   3.097   0.972
74734SOL    HW226100  14.346   2.974   0.976
74735SOL     OW26101   2.181  11.487   0.892
74735SOL    HW126102   2.235  11.448   0.823
74735SOL    HW226103   2.185  11.424   0.964
74736SOL     OW26104  12.976   6.545   3.411
74736SOL    HW126105  13.024   6.469   3.446
74736SOL    HW226106  12.972   6.529   3.317
74737SOL     OW26107   7.987  12.747   1.897
74737SOL    HW126108   8.012  12.660   1.867
74737SOL    HW226109   8.054  12.770   1.961
74738SOL     OW26110   9.237   7.766   1.864
74738SOL    HW126111   9.237   7.804   1.776
74738SOL    HW226112   9.246   7.672   1.850
74739SOL     OW26113  12.622   5.968   3.055
74739SOL    HW126114  12.625   5.936   2.965
74739SOL    HW226115  12.590   6.058   3.048
74740SOL     OW26116   8.342   8.032  13.540
74740SOL    HW126117   8.355   7.989  13.455
74740SOL    HW226118   8.248   8.051  13.543
74741SOL     OW26119   0.160  12.333  14.465
74741SOL    HW126120   0.244  12.321  14.422
74741SOL    HW226121   0.181  12.380  14.546
74742SOL     OW26122  12.099  12.640  13.403
74742SOL    HW126123  12.149  12.647  13.485
74742SOL    HW226124  12.154  12.683  13.338
74743SOL     OW26125  12.876  13.720   9.811
74743SOL    HW126126  12.949  13.675   9.853
74743SOL    HW226127  12.873  13.684   9.723
74744SOL     OW26128   3.139   8.521   0.819
74744SOL    HW126129   3.091   8.446   0.855
74744SOL    HW226130   3.183   8.486   0.742
74745SOL     OW26131  11.556   9.044   4.264
74745SOL    HW126132  11.560   9.140   4.273
74745SOL    HW226133  11.481   9.018   4.316
74746SOL     OW26134  13.968   9.136   9.688
74746SOL    HW126135  13.980   9.081   9.610
74746SOL    HW226136  14.041   9.198   9.685
74747SOL     OW26137   1.922   5.364   3.218
74747SOL    HW126138   1.886   5.288   3.263
74747SOL    HW226139   1.923   5.433   3.284
74748SOL     OW26140  13.941   1.392   1.519
74748SOL    HW126141  13.863   1.448   1.524
74748SOL    HW226142  14.003   1.432   1.580
74749SOL     OW26143   1.471   3.576   4.307
74749SOL    HW126144   1.550   3.549   4.353
74749SOL    HW226145   1.408   3.506   4.323
74750SOL     OW26146   1.839  11.402   1.595
74750SOL    HW126147   1.744  11.401   1.598
74750SOL    HW226148   1.865  11.446   1.677
74751SOL     OW26149  12.013  14.038   0.996
74751SOL    HW126150  12.027  14.116   0.942
74751SOL    HW226151  12.013  14.071   1.086
74752SOL     OW26152   4.219   2.365   4.275
74752SOL    HW126153   4.298   2.397   4.233
74752SOL    HW226154   4.204   2.425   4.348
74753SOL     OW26155  11.477   0.569   3.245
74753SOL    HW126156  11.554   0.543   3.195
74753SOL    HW226157  11.439   0.642   3.196
74754SOL     OW26158   2.760   8.337   1.794
74754SOL    HW126159   2.693   8.334   1.862
74754SOL    HW226160   2.840   8.307   1.837
74755SOL     OW26161   7.971   3.872  13.854
74755SOL    HW126162   7.973   3.899  13.762
74755SOL    HW226163   7.993   3.951  13.903
74756SOL     OW26164   5.090   6.357   6.396
74756SOL    HW126165   5.024   6.327   6.459
74756SOL    HW226166   5.078   6.301   6.320
74757SOL     OW26167   8.243  10.097   6.422
74757SOL    HW126168   8.276  10.186   6.428
74757SOL    HW226169   8.215  10.088   6.331
74758SOL     OW26170   8.050  11.185   4.130
74758SOL    HW126171   8.011  11.260   4.176
74758SOL    HW226172   8.049  11.211   4.038
74759SOL     OW26173   1.597  13.851   7.321
74759SOL    HW126174   1.612  13.791   7.248
74759SOL    HW226175   1.541  13.802   7.381
74760SOL     OW26176   9.143   0.434  10.654
74760SOL    HW126177   9.216   0.373  10.643
74760SOL    HW226178   9.163   0.507  10.596
74761SOL     OW26179   9.069   9.387  10.455
74761SOL    HW126180   9.066   9.308  10.402
74761SOL    HW226181   9.034   9.361  10.540
74762SOL     OW26182  10.838  14.182   6.567
74762SOL    HW126183  10.817  14.156   6.478
74762SOL    HW226184  10.831  14.101   6.618
74763SOL     OW26185   0.272   6.906  11.755
74763SOL    HW126186   0.360   6.897  11.792
74763SOL    HW226187   0.262   6.831  11.698
74764SOL     OW26188   4.906  11.167   9.483
74764SOL    HW126189   4.959  11.199   9.556
74764SOL    HW226190   4.955  11.091   9.450
74765SOL     OW26191  13.022   4.496   4.064
74765SOL    HW126192  13.010   4.432   3.993
74765SOL    HW226193  12.993   4.579   4.026
74766SOL     OW26194   4.045   4.544   4.432
74766SOL    HW126195   3.959   4.531   4.472
74766SOL    HW226196   4.092   4.600   4.493
74767SOL     OW26197   1.440  11.553   6.830
74767SOL    HW126198   1.404  11.613   6.896
74767SOL    HW226199   1.375  11.483   6.823
74768SOL     OW26200  13.453  11.039   1.791
74768SOL    HW126201  13.433  11.041   1.698
74768SOL    HW226202  13.496  11.123   1.808
74769SOL     OW26203   9.614   0.906   8.312
74769SOL    HW126204   9.574   0.984   8.274
74769SOL    HW226205   9.562   0.834   8.278
74770SOL     OW26206   8.395   6.000  11.635
74770SOL    HW126207   8.400   5.910  11.603
74770SOL    HW226208   8.344   5.994  11.716
74771SOL     OW26209   1.265   0.512   7.221
74771SOL    HW126210   1.267   0.443   7.287
74771SOL    HW226211   1.301   0.589   7.265
74772SOL     OW26212  11.068   2.669  11.247
74772SOL    HW126213  11.089   2.581  11.279
74772SOL    HW226214  11.035   2.655  11.158
74773SOL     OW26215   4.290  10.219   1.944
74773SOL    HW126216   4.307  10.307   1.911
74773SOL    HW226217   4.376  10.179   1.953
74774SOL     OW26218   2.364  13.086  12.725
74774SOL    HW126219   2.406  13.148  12.665
74774SOL    HW226220   2.410  13.097  12.808
74775SOL     OW26221   4.574   1.774  11.542
74775SOL    HW126222   4.543   1.783  11.452
74775SOL    HW226223   4.554   1.684  11.565
74776SOL     OW26224  11.116   7.859   1.383
74776SOL    HW126225  11.073   7.806   1.450
74776SOL    HW226226  11.044   7.887   1.326
74777SOL     OW26227   8.533  11.811   0.700
74777SOL    HW126228   8.527  11.836   0.792
74777SOL    HW226229   8.471  11.738   0.691
74778SOL     OW26230   9.966   7.361   3.230
74778SOL    HW126231   9.899   7.334   3.168
74778SOL    HW226232   9.972   7.288   3.292
74779SOL     OW26233   9.054   5.915   2.964
74779SOL    HW126234   8.966   5.918   2.928
74779SOL    HW226235   9.042   5.888   3.055
74780SOL     OW26236   4.821  13.610   8.882
74780SOL    HW126237   4.755  13.624   8.814
74780SOL    HW226238   4.776  13.561   8.950
74781SOL     OW26239  12.377   0.413   2.537
74781SOL    HW126240  12.311   0.450   2.595
74781SOL    HW226241  12.456   0.465   2.552
74782SOL     OW26242   6.542   5.243   3.832
74782SOL    HW126243   6.474   5.234   3.898
74782SOL    HW226244   6.611   5.183   3.860
74783SOL     OW26245  10.137   5.653  12.649
74783SOL    HW126246  10.081   5.718  12.691
74783SOL    HW226247  10.104   5.569  12.682
74784SOL     OW26248   3.230   9.062  13.260
74784SOL    HW126249   3.158   9.126  13.267
74784SOL    HW226250   3.246   9.034  13.350
74785SOL     OW26251   5.753  10.331  11.999
74785SOL    HW126252   5.748  10.423  11.976
74785SOL    HW226253   5.793  10.289  11.923
74786SOL     OW26254   9.173  14.536   7.433
74786SOL    HW126255   9.120  14.468   7.475
74786SOL    HW226256   9.139  14.618   7.469
74787SOL     OW26257   7.540   4.966   5.917
74787SOL    HW126258   7.585   4.966   5.833
74787SOL    HW226259   7.521   4.874   5.934
74788SOL     OW26260   7.330   5.962   0.329
74788SOL    HW126261   7.293   6.022   0.264
74788SOL    HW226262   7.417   5.940   0.294
74789SOL     OW26263   2.144   4.735   3.485
74789SOL    HW126264   2.205   4.805   3.506
74789SOL    HW226265   2.195   4.675   3.430
74790SOL     OW26266   0.102  11.785   0.987
74790SOL    HW126267   0.165  11.732   0.939
74790SOL    HW226268   0.064  11.725   1.051
74791SOL     OW26269   6.383   8.833   8.401
74791SOL    HW126270   6.362   8.800   8.488
74791SOL    HW226271   6.470   8.871   8.410
74792SOL     OW26272   1.268   9.023   1.489
74792SOL    HW126273   1.352   9.057   1.459
74792SOL    HW226274   1.242   9.081   1.560
74793SOL     OW26275  10.575   2.872   8.382
74793SOL    HW126276  10.608   2.883   8.293
74793SOL    HW226277  10.556   2.961   8.411
74794SOL     OW26278   4.800  10.188  11.856
74794SOL    HW126279   4.798  10.116  11.793
74794SOL    HW226280   4.765  10.263  11.808
74795SOL     OW26281   3.203  11.315  11.345
74795SOL    HW126282   3.228  11.404  11.320
74795SOL    HW226283   3.201  11.317  11.440
74796SOL     OW26284  14.851   5.651   6.035
74796SOL    HW126285  14.843   5.711   5.961
74796SOL    HW226286   0.063   5.640   6.047
74797SOL     OW26287  13.545  14.323   4.616
74797SOL    HW126288  13.607  14.318   4.688
74797SOL    HW226289  13.460  14.305   4.656
74798SOL     OW26290  10.103   4.245  13.873
74798SOL    HW126291  10.169   4.285  13.816
74798SOL    HW226292  10.037   4.211  13.812
74799SOL     OW26293  12.172   3.237   2.310
74799SOL    HW126294  12.122   3.210   2.233
74799SOL    HW226295  12.120   3.307   2.349
74800SOL     OW26296   0.833   4.995   9.202
74800SOL    HW126297   0.916   4.956   9.178
74800SOL    HW226298   0.852   5.046   9.280
74801SOL     OW26299   4.142   8.029   5.977
74801SOL    HW126300   4.164   8.108   6.027
74801SOL    HW226301   4.048   8.018   5.990
74802SOL     OW26302  13.240   9.889   5.282
74802SOL    HW126303  13.275   9.883   5.370
74802SOL    HW226304  13.283   9.967   5.245
74803SOL     OW26305  12.419   4.124   6.661
74803SOL    HW126306  12.453   4.071   6.589
74803SOL    HW226307  12.360   4.186   6.620
74804SOL     OW26308  12.706   9.771  13.679
74804SOL    HW126309  12.645   9.841  13.655
74804SOL    HW226310  12.792   9.812  13.673
74805SOL     OW26311   4.583   0.993   2.615
74805SOL    HW126312   4.519   1.045   2.664
74805SOL    HW226313   4.614   1.052   2.546
74806SOL     OW26314  13.438   8.857  10.050
74806SOL    HW126315  13.513   8.869  10.109
74806SOL    HW226316  13.374   8.810  10.103
74807SOL     OW26317  12.282   5.401   4.866
74807SOL    HW126318  12.377   5.402   4.860
74807SOL    HW226319  12.255   5.484   4.828
74808SOL     OW26320  12.443   6.835   9.075
74808SOL    HW126321  12.367   6.840   9.132
74808SOL    HW226322  12.518   6.853   9.132
74809SOL     OW26323  10.545   8.822   0.718
74809SOL    HW126324  10.542   8.855   0.808
74809SOL    HW226325  10.458   8.784   0.704
74810SOL     OW26326  13.488  14.640   3.844
74810SOL    HW126327  13.523  14.701   3.779
74810SOL    HW226328  13.488  14.555   3.800
74811SOL     OW26329   9.192   5.416   3.802
74811SOL    HW126330   9.138   5.471   3.744
74811SOL    HW226331   9.277   5.460   3.805
74812SOL     OW26332   2.515  12.518   6.657
74812SOL    HW126333   2.442  12.465   6.686
74812SOL    HW226334   2.513  12.596   6.713
74813SOL     OW26335   0.684  11.660  13.117
74813SOL    HW126336   0.641  11.709  13.187
74813SOL    HW226337   0.695  11.572  13.153
74814SOL     OW26338  14.743  14.558  11.022
74814SOL    HW126339  14.708  14.471  11.003
74814SOL    HW226340  14.696  14.586  11.101
74815SOL     OW26341  12.740  14.500   4.027
74815SOL    HW126342  12.702  14.577   3.985
74815SOL    HW226343  12.781  14.451   3.955
74816SOL     OW26344  13.813   0.581   3.305
74816SOL    HW126345  13.732   0.560   3.259
74816SOL    HW226346  13.790   0.573   3.398
74817SOL     OW26347  13.461   4.998   4.250
74817SOL    HW126348  13.490   4.907   4.247
74817SOL    HW226349  13.541   5.049   4.265
74818SOL     OW26350  13.552  11.803  11.062
74818SOL    HW126351  13.521  11.810  11.153
74818SOL    HW226352  13.637  11.848  11.062
74819SOL     OW26353   6.904   5.608   2.105
74819SOL    HW126354   7.000   5.608   2.097
74819SOL    HW226355   6.879   5.700   2.091
74820SOL     OW26356   1.460   5.886   6.007
74820SOL    HW126357   1.403   5.962   6.005
74820SOL    HW226358   1.469   5.865   6.100
74821SOL     OW26359   9.297  12.159   8.397
74821SOL    HW126360   9.241  12.214   8.342
74821SOL    HW226361   9.240  12.131   8.469
74822SOL     OW26362   8.031   9.544   4.543
74822SOL    HW126363   7.955   9.601   4.556
74822SOL    HW226364   7.994   9.459   4.521
74823SOL     OW26365   7.572   2.419   7.168
74823SOL    HW126366   7.658   2.395   7.204
74823SOL    HW226367   7.559   2.358   7.096
74824SOL     OW26368   2.463  12.991  13.956
74824SOL    HW126369   2.424  12.909  13.925
74824SOL    HW226370   2.422  13.059  13.903
74825SOL     OW26371   7.892  12.934   5.229
74825SOL    HW126372   7.820  12.884   5.267
74825SOL    HW226373   7.907  13.006   5.290
74826SOL     OW26374   3.775   2.346   2.868
74826SOL    HW126375   3.785   2.441   2.876
74826SOL    HW226376   3.865   2.313   2.875
74827SOL     OW26377   2.743   2.928  13.008
74827SOL    HW126378   2.752   2.833  13.022
74827SOL    HW226379   2.819   2.951  12.954
74828SOL     OW26380   6.558   3.504   8.974
74828SOL    HW126381   6.521   3.454   9.047
74828SOL    HW226382   6.601   3.439   8.919
74829SOL     OW26383   5.647  10.064   6.165
74829SOL    HW126384   5.573  10.018   6.125
74829SOL    HW226385   5.607  10.119   6.232
74830SOL     OW26386   7.406   0.356  11.085
74830SOL    HW126387   7.450   0.343  11.001
74830SOL    HW226388   7.350   0.432  11.071
74831SOL     OW26389   5.772   2.601   1.576
74831SOL    HW126390   5.844   2.591   1.514
74831SOL    HW226391   5.764   2.515   1.618
74832SOL     OW26392  14.248   2.677   8.844
74832SOL    HW126393  14.284   2.764   8.828
74832SOL    HW226394  14.155   2.692   8.859
74833SOL     OW26395  11.242  11.434   6.895
74833SOL    HW126396  11.156  11.413   6.861
74833SOL    HW226397  11.303  11.405   6.828
74834SOL     OW26398   9.691  14.321   8.136
74834SOL    HW126399   9.773  14.368   8.156
74834SOL    HW226400   9.622  14.384   8.156
74835SOL     OW26401   3.471   2.111   2.712
74835SOL    HW126402   3.408   2.122   2.641
74835SOL    HW226403   3.432   2.045   2.770
74836SOL     OW26404  14.234   1.257   1.637
74836SOL    HW126405  14.204   1.224   1.722
74836SOL    HW226406  14.195   1.344   1.630
74837SOL     OW26407  11.829  12.259   1.750
74837SOL    HW126408  11.747  12.280   1.794
74837SOL    HW226409  11.837  12.325   1.681
74838SOL     OW26410  14.181   6.834   0.611
74838SOL    HW126411  14.118   6.778   0.656
74838SOL    HW226412  14.129   6.881   0.546
74839SOL     OW26413   3.620   6.134   5.892
74839SOL    HW126414   3.628   6.216   5.844
74839SOL    HW226415   3.659   6.068   5.835
74840SOL     OW26416  12.446  13.449  12.152
74840SOL    HW126417  12.466  13.360  12.122
74840SOL    HW226418  12.522  13.501  12.127
74841SOL     OW26419   5.087   3.069   6.679
74841SOL    HW126420   5.136   3.033   6.753
74841SOL    HW226421   4.997   3.039   6.693
74842SOL     OW26422   9.661  12.026   6.189
74842SOL    HW126423   9.601  11.958   6.157
74842SOL    HW226424   9.607  12.105   6.195
74843SOL     OW26425   6.126   6.246  13.073
74843SOL    HW126426   6.031   6.243  13.083
74843SOL    HW226427   6.152   6.156  13.056
74844SOL     OW26428  11.886   4.692   3.862
74844SOL    HW126429  11.812   4.725   3.810
74844SOL    HW226430  11.850   4.681   3.950
74845SOL     OW26431   8.148   1.967  10.938
74845SOL    HW126432   8.072   1.913  10.961
74845SOL    HW226433   8.189   1.920  10.866
74846SOL     OW26434  14.165  14.157  13.757
74846SOL    HW126435  14.234  14.169  13.692
74846SOL    HW226436  14.165  14.239  13.807
74847SOL     OW26437  10.311   4.892   0.195
74847SOL    HW126438  10.239   4.941   0.153
74847SOL    HW226439  10.283   4.881   0.285
74848SOL     OW26440   8.652   4.997  10.021
74848SOL    HW126441   8.565   5.012   9.986
74848SOL    HW226442   8.660   5.061  10.093
74849SOL     OW26443   6.799   6.786  10.673
74849SOL    HW126444   6.802   6.786  10.577
74849SOL    HW226445   6.883   6.824  10.700
74850SOL     OW26446   3.430   9.933   1.242
74850SOL    HW126447   3.356   9.985   1.273
74850SOL    HW226448   3.506   9.989   1.257
74851SOL     OW26449   1.344   9.604   7.711
74851SOL    HW126450   1.400   9.531   7.686
74851SOL    HW226451   1.311   9.639   7.629
74852SOL     OW26452  12.364   6.463   2.159
74852SOL    HW126453  12.438   6.413   2.127
74852SOL    HW226454  12.401   6.547   2.188
74853SOL     OW26455  12.355   0.241   2.926
74853SOL    HW126456  12.424   0.228   2.860
74853SOL    HW226457  12.293   0.301   2.885
74854SOL     OW26458  14.460   5.657   3.143
74854SOL    HW126459  14.504   5.572   3.143
74854SOL    HW226460  14.387   5.648   3.082
74855SOL     OW26461   9.076  12.124   0.789
74855SOL    HW126462   9.068  12.218   0.810
74855SOL    HW226463   9.120  12.087   0.866
74856SOL     OW26464   7.440   0.830   7.173
74856SOL    HW126465   7.511   0.881   7.211
74856SOL    HW226466   7.484   0.762   7.122
74857SOL     OW26467  12.246   4.580   3.521
74857SOL    HW126468  12.279   4.492   3.503
74857SOL    HW226469  12.204   4.573   3.607
74858SOL     OW26470   3.231   0.322  13.760
74858SOL    HW126471   3.206   0.300  13.850
74858SOL    HW226472   3.256   0.414  13.763
74859SOL     OW26473  10.512   3.377   3.149
74859SOL    HW126474  10.454   3.332   3.087
74859SOL    HW226475  10.459   3.392   3.227
74860SOL     OW26476  13.211   6.236   5.777
74860SOL    HW126477  13.168   6.158   5.741
74860SOL    HW226478  13.256   6.275   5.702
74861SOL     OW26479   4.243   4.615   1.492
74861SOL    HW126480   4.236   4.610   1.587
74861SOL    HW226481   4.270   4.705   1.474
74862SOL     OW26482  11.767  13.497  13.261
74862SOL    HW126483  11.786  13.569  13.320
74862SOL    HW226484  11.675  13.477  13.276
74863SOL     OW26485  14.456  12.192   6.796
74863SOL    HW126486  14.504  12.271   6.820
74863SOL    HW226487  14.523  12.123   6.794
74864SOL     OW26488   6.712  14.194   0.123
74864SOL    HW126489   6.759  14.129   0.175
74864SOL    HW226490   6.631  14.209   0.171
74865SOL     OW26491   0.366  10.631   6.551
74865SOL    HW126492   0.364  10.727   6.559
74865SOL    HW226493   0.290  10.601   6.600
74866SOL     OW26494  13.566   1.440  13.556
74866SOL    HW126495  13.527   1.388  13.486
74866SOL    HW226496  13.540   1.530  13.536
74867SOL     OW26497   4.894  10.035   7.493
74867SOL    HW126498   4.824  10.017   7.430
74867SOL    HW226499   4.968   9.982   7.462
74868SOL     OW26500   2.570   8.769   6.431
74868SOL    HW126501   2.547   8.726   6.348
74868SOL    HW226502   2.561   8.862   6.412
74869SOL     OW26503   1.696   2.752   5.974
74869SOL    HW126504   1.740   2.669   5.991
74869SOL    HW226505   1.638   2.763   6.049
74870SOL     OW26506   9.540   8.977   4.596
74870SOL    HW126507   9.584   9.050   4.640
74870SOL    HW226508   9.558   8.901   4.651
74871SOL     OW26509  10.929  10.246  10.217
74871SOL    HW126510  10.890  10.205  10.139
74871SOL    HW226511  10.876  10.212  10.290
74872SOL     OW26512   0.628   3.513  11.128
74872SOL    HW126513   0.641   3.418  11.129
74872SOL    HW226514   0.614   3.534  11.036
74873SOL     OW26515   3.675   9.951   9.541
74873SOL    HW126516   3.742  10.019   9.554
74873SOL    HW226517   3.697   9.912   9.456
74874SOL     OW26518   9.282   8.832   1.145
74874SOL    HW126519   9.207   8.779   1.169
74874SOL    HW226520   9.304   8.882   1.223
74875SOL     OW26521   0.648   3.153  10.880
74875SOL    HW126522   0.663   3.065  10.846
74875SOL    HW226523   0.692   3.154  10.965
74876SOL     OW26524   6.199   1.230   8.876
74876SOL    HW126525   6.281   1.229   8.926
74876SOL    HW226526   6.176   1.322   8.868
74877SOL     OW26527   0.599  10.793  10.664
74877SOL    HW126528   0.636  10.775  10.750
74877SOL    HW226529   0.546  10.716  10.643
74878SOL     OW26530   9.105   9.263   8.282
74878SOL    HW126531   9.026   9.314   8.300
74878SOL    HW226532   9.108   9.256   8.187
74879SOL     OW26533   2.476  13.663  10.981
74879SOL    HW126534   2.540  13.600  10.946
74879SOL    HW226535   2.430  13.614  11.049
74880SOL     OW26536   9.143   1.915   8.003
74880SOL    HW126537   9.109   1.951   7.921
74880SOL    HW226538   9.068   1.868   8.041
74881SOL     OW26539  11.865   4.388  14.193
74881SOL    HW126540  11.878   4.438  14.274
74881SOL    HW226541  11.850   4.454  14.126
74882SOL     OW26542   1.060   4.686   0.681
74882SOL    HW126543   1.155   4.679   0.690
74882SOL    HW226544   1.026   4.615   0.736
74883SOL     OW26545  12.224  12.405  10.985
74883SOL    HW126546  12.273  12.325  10.965
74883SOL    HW226547  12.146  12.399  10.929
74884SOL     OW26548   3.567   9.007   3.473
74884SOL    HW126549   3.641   8.986   3.529
74884SOL    HW226550   3.586   9.094   3.439
74885SOL     OW26551  14.730   5.196   1.153
74885SOL    HW126552  14.821   5.205   1.125
74885SOL    HW226553  14.686   5.274   1.119
74886SOL     OW26554   7.268   2.566   4.412
74886SOL    HW126555   7.273   2.638   4.475
74886SOL    HW226556   7.186   2.522   4.433
74887SOL     OW26557   7.836   1.150   6.845
74887SOL    HW126558   7.866   1.225   6.793
74887SOL    HW226559   7.912   1.126   6.898
74888SOL     OW26560   8.043   2.590   5.317
74888SOL    HW126561   7.969   2.593   5.256
74888SOL    HW226562   8.079   2.502   5.306
74889SOL     OW26563  14.035   5.962   7.045
74889SOL    HW126564  13.955   6.011   7.027
74889SOL    HW226565  14.044   5.903   6.970
74890SOL     OW26566   3.995   9.266  14.732
74890SOL    HW126567   4.053   9.283  14.806
74890SOL    HW226568   4.039   9.308  14.658
74891SOL     OW26569   7.063   0.899   1.929
74891SOL    HW126570   6.987   0.937   1.973
74891SOL    HW226571   7.047   0.805   1.931
74892SOL     OW26572  13.452   1.558  14.602
74892SOL    HW126573  13.363   1.533  14.576
74892SOL    HW226574  13.463   1.518  14.689
74893SOL     OW26575   4.408   6.786   9.489
74893SOL    HW126576   4.351   6.723   9.446
74893SOL    HW226577   4.465   6.819   9.420
74894SOL     OW26578   3.574  11.334   1.397
74894SOL    HW126579   3.558  11.427   1.379
74894SOL    HW226580   3.601  11.299   1.312
74895SOL     OW26581   6.212   9.418   6.747
74895SOL    HW126582   6.128   9.371   6.743
74895SOL    HW226583   6.188   9.510   6.753
74896SOL     OW26584   4.635  13.770   6.050
74896SOL    HW126585   4.684  13.751   5.969
74896SOL    HW226586   4.698  13.816   6.105
74897SOL     OW26587  10.174  13.552   5.285
74897SOL    HW126588  10.195  13.615   5.216
74897SOL    HW226589  10.137  13.477   5.239
74898SOL     OW26590   0.300  10.367   6.752
74898SOL    HW126591   0.309  10.346   6.659
74898SOL    HW226592   0.262  10.455   6.754
74899SOL     OW26593   7.188   5.561  11.800
74899SOL    HW126594   7.103   5.592  11.832
74899SOL    HW226595   7.181   5.465  11.800
74900SOL     OW26596   7.636   8.322   2.326
74900SOL    HW126597   7.605   8.275   2.403
74900SOL    HW226598   7.617   8.414   2.345
74901SOL     OW26599   3.001   9.008   8.699
74901SOL    HW126600   3.084   8.970   8.728
74901SOL    HW226601   2.947   8.932   8.676
74902SOL     OW26602   3.782  13.321  14.410
74902SOL    HW126603   3.823  13.245  14.369
74902SOL    HW226604   3.804  13.313  14.503
74903SOL     OW26605  11.000  14.704   0.491
74903SOL    HW126606  11.010  14.745   0.405
74903SOL    HW226607  11.089  14.701   0.526
74904SOL     OW26608   6.329  10.831   3.852
74904SOL    HW126609   6.326  10.877   3.936
74904SOL    HW226610   6.240  10.795   3.842
74905SOL     OW26611   1.763   4.460   3.439
74905SOL    HW126612   1.676   4.455   3.400
74905SOL    HW226613   1.809   4.527   3.388
74906SOL     OW26614   2.556   1.583   1.264
74906SOL    HW126615   2.544   1.668   1.306
74906SOL    HW226616   2.489   1.580   1.196
74907SOL     OW26617  10.102  14.426   9.173
74907SOL    HW126618  10.063  14.349   9.132
74907SOL    HW226619  10.135  14.478   9.099
74908SOL     OW26620  13.056   6.809   6.425
74908SOL    HW126621  12.974   6.776   6.387
74908SOL    HW226622  13.092   6.866   6.357
74909SOL     OW26623   9.085   5.494  14.705
74909SOL    HW126624   9.051   5.516  14.618
74909SOL    HW226625   9.006   5.482  14.758
74910SOL     OW26626   1.875   7.871   9.423
74910SOL    HW126627   1.792   7.884   9.471
74910SOL    HW226628   1.937   7.929   9.468
74911SOL     OW26629  14.114   1.296   7.099
74911SOL    HW126630  14.184   1.354   7.127
74911SOL    HW226631  14.042   1.314   7.159
74912SOL     OW26632   8.510   6.801   4.783
74912SOL    HW126633   8.593   6.783   4.739
74912SOL    HW226634   8.535   6.824   4.873
74913SOL     OW26635   3.725  14.327   9.510
74913SOL    HW126636   3.804  14.280   9.481
74913SOL    HW226637   3.654  14.265   9.498
74914SOL     OW26638  14.484   5.659   5.696
74914SOL    HW126639  14.491   5.647   5.791
74914SOL    HW226640  14.566   5.703   5.672
74915SOL     OW26641   2.882   0.860   4.556
74915SOL    HW126642   2.867   0.945   4.516
74915SOL    HW226643   2.912   0.804   4.484
74916SOL     OW26644  10.441   3.994   7.000
74916SOL    HW126645  10.415   3.902   7.008
74916SOL    HW226646  10.432   4.013   6.907
74917SOL     OW26647  11.740   1.599   9.164
74917SOL    HW126648  11.760   1.675   9.108
74917SOL    HW226649  11.729   1.526   9.103
74918SOL     OW26650   6.739   0.750   1.504
74918SOL    HW126651   6.710   0.663   1.480
74918SOL    HW226652   6.687   0.809   1.450
74919SOL     OW26653   6.468  12.306  14.586
74919SOL    HW126654   6.403  12.286  14.519
74919SOL    HW226655   6.506  12.221  14.608
74920SOL     OW26656  10.126   0.291   0.573
74920SOL    HW126657  10.112   0.278   0.480
74920SOL    HW226658  10.124   0.386   0.585
74921SOL     OW26659  14.578  14.797   3.575
74921SOL    HW126660  14.556   0.007   3.585
74921SOL    HW226661  14.601  14.787   3.483
74922SOL     OW26662   0.618   4.067  14.129
74922SOL    HW126663   0.582   4.028  14.049
74922SOL    HW226664   0.567   4.147  14.141
74923SOL     OW26665   8.810  13.847   9.125
74923SOL    HW126666   8.888  13.806   9.087
74923SOL    HW226667   8.844  13.912   9.185
74924SOL     OW26668  14.035   2.701  10.638
74924SOL    HW126669  14.041   2.672  10.729
74924SOL    HW226670  14.085   2.636  10.589
74925SOL     OW26671  12.155  10.896  11.349
74925SOL    HW126672  12.125  10.823  11.402
74925SOL    HW226673  12.155  10.863  11.259
74926SOL     OW26674   2.885   9.057   2.161
74926SOL    HW126675   2.968   9.062   2.113
74926SOL    HW226676   2.819   9.042   2.093
74927SOL     OW26677  12.579  14.778  13.834
74927SOL    HW126678  12.537  14.790  13.749
74927SOL    HW226679  12.611  14.688  13.833
74928SOL     OW26680   8.833   2.403  14.131
74928SOL    HW126681   8.779   2.474  14.164
74928SOL    HW226682   8.922   2.426  14.157
74929SOL     OW26683   8.347   3.184  12.054
74929SOL    HW126684   8.439   3.203  12.036
74929SOL    HW226685   8.298   3.236  11.991
74930SOL     OW26686  12.755   9.282  12.133
74930SOL    HW126687  12.760   9.361  12.080
74930SOL    HW226688  12.669   9.288  12.176
74931SOL     OW26689   9.476   7.291   4.512
74931SOL    HW126690   9.548   7.353   4.501
74931SOL    HW226691   9.404   7.342   4.549
74932SOL     OW26692   4.846   3.227  13.277
74932SOL    HW126693   4.912   3.252  13.340
74932SOL    HW226694   4.887   3.241  13.192
74933SOL     OW26695  12.885   0.092   8.090
74933SOL    HW126696  12.934   0.145   8.153
74933SOL    HW226697  12.803   0.070   8.135
74934SOL     OW26698  13.627  10.593  11.061
74934SOL    HW126699  13.566  10.583  10.988
74934SOL    HW226700  13.593  10.668  11.110
74935SOL     OW26701   4.783   3.840  13.073
74935SOL    HW126702   4.718   3.775  13.100
74935SOL    HW226703   4.737   3.924  13.083
74936SOL     OW26704   3.409  11.459   6.463
74936SOL    HW126705   3.437  11.490   6.377
74936SOL    HW226706   3.327  11.506   6.480
74937SOL     OW26707   7.848  12.348   9.508
74937SOL    HW126708   7.755  12.324   9.515
74937SOL    HW226709   7.892  12.288   9.569
74938SOL     OW26710   6.525   4.363  12.951
74938SOL    HW126711   6.523   4.453  12.982
74938SOL    HW226712   6.593   4.362  12.883
74939SOL     OW26713   2.260   0.916   9.224
74939SOL    HW126714   2.216   0.996   9.253
74939SOL    HW226715   2.298   0.938   9.139
74940SOL     OW26716   5.440  10.469   1.630
74940SOL    HW126717   5.411  10.560   1.642
74940SOL    HW226718   5.454  10.461   1.535
74941SOL     OW26719   1.299  13.709   9.100
74941SOL    HW126720   1.316  13.746   9.013
74941SOL    HW226721   1.316  13.615   9.090
74942SOL     OW26722  12.427  11.844  11.476
74942SOL    HW126723  12.504  11.816  11.524
74942SOL    HW226724  12.355  11.792  11.512
74943SOL     OW26725   4.310   7.039   5.519
74943SOL    HW126726   4.336   6.995   5.600
74943SOL    HW226727   4.348   6.985   5.449
74944SOL     OW26728   8.176   7.100   3.332
74944SOL    HW126729   8.251   7.156   3.349
74944SOL    HW226730   8.106   7.160   3.305
74945SOL     OW26731   2.957   6.396   4.138
74945SOL    HW126732   3.027   6.404   4.203
74945SOL    HW226733   2.950   6.302   4.122
74946SOL     OW26734  10.143   8.819   2.610
74946SOL    HW126735  10.213   8.762   2.577
74946SOL    HW226736  10.176   8.908   2.597
74947SOL     OW26737   5.416   1.945   4.693
74947SOL    HW126738   5.423   1.853   4.668
74947SOL    HW226739   5.504   1.969   4.721
74948SOL     OW26740   5.087  14.465  13.398
74948SOL    HW126741   5.082  14.391  13.338
74948SOL    HW226742   5.172  14.505  13.381
74949SOL     OW26743  14.717   5.989   6.105
74949SOL    HW126744  14.806   6.014   6.133
74949SOL    HW226745  14.720   5.994   6.009
74950SOL     OW26746   1.881   4.561  12.403
74950SOL    HW126747   1.805   4.600  12.446
74950SOL    HW226748   1.869   4.581  12.310
74951SOL     OW26749   8.039   7.378   5.345
74951SOL    HW126750   7.991   7.318   5.289
74951SOL    HW226751   8.043   7.335   5.430
74952SOL     OW26752   5.762  11.481  14.159
74952SOL    HW126753   5.817  11.403  14.151
74952SOL    HW226754   5.817  11.553  14.129
74953SOL     OW26755   8.577   0.954   4.489
74953SOL    HW126756   8.513   1.021   4.463
74953SOL    HW226757   8.564   0.883   4.427
74954SOL     OW26758   7.165   5.814   8.615
74954SOL    HW126759   7.078   5.825   8.653
74954SOL    HW226760   7.224   5.812   8.690
74955SOL     OW26761  10.738   8.380   2.823
74955SOL    HW126762  10.793   8.395   2.746
74955SOL    HW226763  10.649   8.380   2.788
74956SOL     OW26764  13.194   7.089   0.612
74956SOL    HW126765  13.179   7.089   0.518
74956SOL    HW226766  13.212   6.998   0.634
74957SOL     OW26767   7.192   8.475   3.362
74957SOL    HW126768   7.277   8.462   3.404
74957SOL    HW226769   7.128   8.442   3.425
74958SOL     OW26770   8.537   0.135   5.829
74958SOL    HW126771   8.464   0.184   5.790
74958SOL    HW226772   8.610   0.149   5.768
74959SOL     OW26773   4.323   5.247  13.426
74959SOL    HW126774   4.335   5.152  13.416
74959SOL    HW226775   4.363   5.284  13.348
74960SOL     OW26776   7.132   3.648   7.322
74960SOL    HW126777   7.189   3.593   7.376
74960SOL    HW226778   7.168   3.736   7.332
74961SOL     OW26779  12.225  11.279   8.287
74961SOL    HW126780  12.269  11.212   8.234
74961SOL    HW226781  12.150  11.234   8.325
74962SOL     OW26782   8.461  11.927   3.765
74962SOL    HW126783   8.555  11.908   3.770
74962SOL    HW226784   8.419  11.843   3.782
74963SOL     OW26785  14.640   7.119   4.841
74963SOL    HW126786  14.609   7.031   4.864
74963SOL    HW226787  14.700   7.105   4.767
74964SOL     OW26788   3.290   9.552  13.333
74964SOL    HW126789   3.263   9.589  13.249
74964SOL    HW226790   3.260   9.615  13.398
74965SOL     OW26791   2.800  11.829   5.887
74965SOL    HW126792   2.837  11.814   5.973
74965SOL    HW226793   2.721  11.776   5.884
74966SOL     OW26794  11.457  12.042  11.150
74966SOL    HW126795  11.537  11.990  11.142
74966SOL    HW226796  11.481  12.114  11.208
74967SOL     OW26797   5.029  10.938  12.492
74967SOL    HW126798   4.970  10.936  12.567
74967SOL    HW226799   5.064  11.027  12.490
74968SOL     OW26800  14.102   6.087   2.348
74968SOL    HW126801  14.133   6.040   2.426
74968SOL    HW226802  14.159   6.162   2.340
74969SOL     OW26803   8.429   4.906   5.632
74969SOL    HW126804   8.410   4.834   5.692
74969SOL    HW226805   8.377   4.979   5.665
74970SOL     OW26806   0.788   0.132   2.662
74970SOL    HW126807   0.869   0.183   2.664
74970SOL    HW226808   0.818   0.041   2.659
74971SOL     OW26809   9.575   5.286   6.504
74971SOL    HW126810   9.661   5.251   6.479
74971SOL    HW226811   9.591   5.380   6.518
74972SOL     OW26812  14.574   6.567  11.427
74972SOL    HW126813  14.516   6.642  11.440
74972SOL    HW226814  14.587   6.532  11.515
74973SOL     OW26815   3.296  10.316   6.767
74973SOL    HW126816   3.352  10.393   6.778
74973SOL    HW226817   3.349  10.255   6.716
74974SOL     OW26818  13.289   1.584   8.382
74974SOL    HW126819  13.194   1.592   8.375
74974SOL    HW226820  13.302   1.506   8.437
74975SOL     OW26821   2.572   6.792   3.756
74975SOL    HW126822   2.609   6.715   3.713
74975SOL    HW226823   2.491   6.811   3.708
74976SOL     OW26824   2.305   3.858  14.521
74976SOL    HW126825   2.292   3.950  14.541
74976SOL    HW226826   2.227   3.832  14.473
74977SOL     OW26827   0.317   1.819   4.108
74977SOL    HW126828   0.325   1.887   4.041
74977SOL    HW226829   0.242   1.846   4.160
74978SOL     OW26830   9.382   2.455   6.957
74978SOL    HW126831   9.396   2.365   6.986
74978SOL    HW226832   9.310   2.487   7.011
74979SOL     OW26833   1.239  13.301  13.879
74979SOL    HW126834   1.241  13.385  13.835
74979SOL    HW226835   1.331  13.275  13.884
74980SOL     OW26836   2.953  12.362   0.450
74980SOL    HW126837   2.903  12.286   0.481
74980SOL    HW226838   2.887  12.423   0.418
74981SOL     OW26839   2.492  14.519   9.933
74981SOL    HW126840   2.426  14.588   9.926
74981SOL    HW226841   2.573  14.565   9.954
74982SOL     OW26842   2.282  13.227   1.681
74982SOL    HW126843   2.310  13.155   1.624
74982SOL    HW226844   2.221  13.186   1.742
74983SOL     OW26845  14.176   2.177   6.015
74983SOL    HW126846  14.237   2.196   6.086
74983SOL    HW226847  14.153   2.085   6.027
74984SOL     OW26848  10.270   7.073   4.574
74984SOL    HW126849  10.337   7.098   4.638
74984SOL    HW226850  10.320   7.050   4.496
74985SOL     OW26851   1.956  11.572   6.622
74985SOL    HW126852   1.939  11.651   6.570
74985SOL    HW226853   1.983  11.605   6.708
74986SOL     OW26854   0.670   9.224   7.570
74986SOL    HW126855   0.735   9.256   7.632
74986SOL    HW226856   0.603   9.183   7.624
74987SOL     OW26857   0.531   3.973   2.362
74987SOL    HW126858   0.533   3.927   2.279
74987SOL    HW226859   0.456   3.937   2.409
74988SOL     OW26860   4.124   6.928   6.183
74988SOL    HW126861   4.116   6.975   6.266
74988SOL    HW226862   4.213   6.947   6.154
74989SOL     OW26863   8.788   9.757   8.764
74989SOL    HW126864   8.851   9.791   8.700
74989SOL    HW226865   8.789   9.663   8.751
74990SOL     OW26866  11.193   1.954   7.266
74990SOL    HW126867  11.141   1.889   7.314
74990SOL    HW226868  11.143   2.035   7.275
74991SOL     OW26869  12.024   2.934   7.146
74991SOL    HW126870  11.972   3.009   7.115
74991SOL    HW226871  12.113   2.954   7.118
74992SOL     OW26872   6.332   6.967   5.234
74992SOL    HW126873   6.332   6.973   5.138
74992SOL    HW226874   6.240   6.978   5.259
74993SOL     OW26875  14.807   6.907  10.185
74993SOL    HW126876  14.855   6.841  10.235
74993SOL    HW226877  14.786   6.864  10.102
74994SOL     OW26878  10.972   0.184   6.165
74994SOL    HW126879  11.063   0.160   6.151
74994SOL    HW226880  10.974   0.242   6.242
74995SOL     OW26881  10.275  14.310  14.097
74995SOL    HW126882  10.352  14.340  14.145
74995SOL    HW226883  10.262  14.220  14.125
74996SOL     OW26884   0.926  10.472  10.712
74996SOL    HW126885   0.955  10.381  10.699
74996SOL    HW226886   0.981  10.505  10.782
74997SOL     OW26887   7.932  10.159   3.047
74997SOL    HW126888   7.998  10.119   2.991
74997SOL    HW226889   7.877  10.086   3.075
74998SOL     OW26890   9.193   7.049   9.274
74998SOL    HW126891   9.143   7.025   9.352
74998SOL    HW226892   9.211   7.142   9.285
74999SOL     OW26893   1.274   7.235  11.697
74999SOL    HW126894   1.355   7.282  11.679
74999SOL    HW226895   1.260   7.179  11.620
75000SOL     OW26896   8.199  12.812   2.315
75000SOL    HW126897   8.172  12.775   2.231
75000SOL    HW226898   8.246  12.892   2.292
75001SOL     OW26899   2.801   1.566   4.964
75001SOL    HW126900   2.838   1.479   4.981
75001SOL    HW226901   2.723   1.548   4.911
75002SOL     OW26902   8.029   0.072   8.513
75002SOL    HW126903   7.934   0.069   8.525
75002SOL    HW226904   8.045   0.158   8.474
75003SOL     OW26905  10.517  14.701  14.556
75003SOL    HW126906  10.597  14.748  14.580
75003SOL    HW226907  10.512  14.629  14.619
75004SOL     OW26908   0.766  11.369  13.266
75004SOL    HW126909   0.693  11.357  13.205
75004SOL    HW226910   0.801  11.281  13.279
75005SOL     OW26911   6.018   3.904   2.437
75005SOL    HW126912   6.102   3.930   2.475
75005SOL    HW226913   6.019   3.809   2.437
75006SOL     OW26914   2.321   2.687   6.459
75006SOL    HW126915   2.373   2.687   6.540
75006SOL    HW226916   2.379   2.648   6.394
75007SOL     OW26917   5.339   4.523   6.918
75007SOL    HW126918   5.287   4.564   6.849
75007SOL    HW226919   5.310   4.432   6.919
75008SOL     OW26920   8.509   1.307   4.793
75008SOL    HW126921   8.444   1.376   4.799
75008SOL    HW226922   8.459   1.229   4.770
75009SOL     OW26923  12.661   2.061  12.509
75009SOL    HW126924  12.754   2.039  12.505
75009SOL    HW226925  12.642   2.066  12.603
75010SOL     OW26926   6.428   6.155  14.500
75010SOL    HW126927   6.362   6.116  14.557
75010SOL    HW226928   6.490   6.085  14.483
75011SOL     OW26929   3.024   0.112  11.519
75011SOL    HW126930   3.099   0.070  11.562
75011SOL    HW226931   2.948   0.082  11.569
75012SOL     OW26932   7.849  14.121   5.486
75012SOL    HW126933   7.827  14.211   5.461
75012SOL    HW226934   7.842  14.120   5.581
75013SOL     OW26935   7.680  12.082   7.374
75013SOL    HW126936   7.655  12.115   7.288
75013SOL    HW226937   7.634  12.139   7.436
75014SOL     OW26938   4.424   2.751   2.810
75014SOL    HW126939   4.414   2.722   2.720
75014SOL    HW226940   4.444   2.844   2.804
75015SOL     OW26941   1.569  12.318   2.325
75015SOL    HW126942   1.655  12.354   2.344
75015SOL    HW226943   1.586  12.229   2.293
75016SOL     OW26944   0.020  14.792  10.961
75016SOL    HW126945   0.068  14.748  10.891
75016SOL    HW226946  14.855  14.722  11.006
75017SOL     OW26947   8.626   2.832   0.274
75017SOL    HW126948   8.684   2.892   0.227
75017SOL    HW226949   8.671   2.816   0.357
75018SOL     OW26950   7.980   3.947  11.796
75018SOL    HW126951   8.006   3.997  11.719
75018SOL    HW226952   7.961   3.860  11.762
75019SOL     OW26953  14.176  11.697   5.447
75019SOL    HW126954  14.223  11.763   5.497
75019SOL    HW226955  14.143  11.745   5.370
75020SOL     OW26956  13.601  13.884  12.423
75020SOL    HW126957  13.639  13.797  12.412
75020SOL    HW226958  13.649  13.939  12.360
75021SOL     OW26959  10.309  13.488   8.090
75021SOL    HW126960  10.218  13.486   8.062
75021SOL    HW226961  10.314  13.560   8.153
75022SOL     OW26962   0.580  12.639  12.018
75022SOL    HW126963   0.603  12.681  12.101
75022SOL    HW226964   0.631  12.558  12.018
75023SOL     OW26965  14.396   4.748   4.257
75023SOL    HW126966  14.325   4.698   4.217
75023SOL    HW226967  14.463   4.683   4.278
75024SOL     OW26968   4.777   8.218   8.768
75024SOL    HW126969   4.727   8.297   8.783
75024SOL    HW226970   4.728   8.149   8.812
75025SOL     OW26971   8.218   5.278   1.519
75025SOL    HW126972   8.299   5.243   1.482
75025SOL    HW226973   8.156   5.278   1.446
75026SOL     OW26974  12.402  10.619   7.527
75026SOL    HW126975  12.388  10.591   7.617
75026SOL    HW226976  12.450  10.702   7.535
75027SOL     OW26977   1.288   2.013  13.109
75027SOL    HW126978   1.278   1.960  13.030
75027SOL    HW226979   1.330   1.955  13.173
75028SOL     OW26980  10.997  10.835   4.963
75028SOL    HW126981  11.091  10.833   4.944
75028SOL    HW226982  10.956  10.859   4.880
75029SOL     OW26983   0.493   5.998   2.012
75029SOL    HW126984   0.509   5.954   1.928
75029SOL    HW226985   0.422   5.948   2.052
75030SOL     OW26986   1.877   3.762  10.706
75030SOL    HW126987   1.829   3.839  10.675
75030SOL    HW226988   1.838   3.688  10.660
75031SOL     OW26989  10.285   9.979   3.469
75031SOL    HW126990  10.213  10.026   3.512
75031SOL    HW226991  10.358  10.041   3.469
75032SOL     OW26992   4.852   3.265   9.846
75032SOL    HW126993   4.780   3.246   9.786
75032SOL    HW226994   4.928   3.222   9.807
75033SOL     OW26995  12.254   5.033  11.834
75033SOL    HW126996  12.310   5.016  11.758
75033SOL    HW226997  12.231   5.126  11.826
75034SOL     OW26998  11.118   3.289  13.702
75034SOL    HW126999  11.171   3.280  13.623
75034SOL    HW227000  11.112   3.383  13.717
75035SOL     OW27001   9.372   1.694  14.763
75035SOL    HW127002   9.399   1.730  14.848
75035SOL    HW227003   9.440   1.725  14.703
75036SOL     OW27004   9.463   0.156   2.147
75036SOL    HW127005   9.463   0.064   2.120
75036SOL    HW227006   9.538   0.163   2.206
75037SOL     OW27007   0.062   1.541   0.229
75037SOL    HW127008  14.871   1.600   0.211
75037SOL    HW227009   0.024   1.471   0.283
75038SOL     OW27010   2.102  14.653   7.368
75038SOL    HW127011   2.152  14.718   7.417
75038SOL    HW227012   2.045  14.705   7.311
75039SOL     OW27013  12.526  10.572   8.812
75039SOL    HW127014  12.451  10.591   8.755
75039SOL    HW227015  12.601  10.566   8.752
75040SOL     OW27016  14.277  10.406   8.566
75040SOL    HW127017  14.318  10.488   8.537
75040SOL    HW227018  14.186  10.414   8.538
75041SOL     OW27019  10.794   5.334   6.556
75041SOL    HW127020  10.757   5.251   6.585
75041SOL    HW227021  10.769   5.397   6.624
75042SOL     OW27022   3.096   5.980   0.156
75042SOL    HW127023   3.021   6.027   0.119
75042SOL    HW227024   3.067   5.889   0.161
75043SOL     OW27025  11.145   5.747   6.907
75043SOL    HW127026  11.079   5.737   6.839
75043SOL    HW227027  11.117   5.688   6.977
75044SOL     OW27028   6.562  10.801   8.195
75044SOL    HW127029   6.496  10.806   8.126
75044SOL    HW227030   6.645  10.789   8.148
75045SOL     OW27031  10.783   2.747   4.131
75045SOL    HW127032  10.769   2.661   4.092
75045SOL    HW227033  10.698   2.791   4.124
75046SOL     OW27034   7.579   5.146   6.408
75046SOL    HW127035   7.574   5.136   6.313
75046SOL    HW227036   7.500   5.102   6.441
75047SOL     OW27037   2.716  14.693   0.120
75047SOL    HW127038   2.802  14.727   0.097
75047SOL    HW227039   2.672  14.767   0.162
75048SOL     OW27040   1.359   7.216   0.546
75048SOL    HW127041   1.300   7.270   0.494
75048SOL    HW227042   1.373   7.267   0.626
75049SOL     OW27043   1.206   0.089  12.229
75049SOL    HW127044   1.283   0.033  12.235
75049SOL    HW227045   1.159   0.056  12.152
75050SOL     OW27046   5.013  12.138   7.183
75050SOL    HW127047   5.051  12.217   7.222
75050SOL    HW227048   5.020  12.072   7.252
75051SOL     OW27049   4.525   6.090   0.991
75051SOL    HW127050   4.518   6.115   0.899
75051SOL    HW227051   4.436   6.063   1.015
75052SOL     OW27052   4.211   0.589   1.623
75052SOL    HW127053   4.300   0.555   1.626
75052SOL    HW227054   4.199   0.618   1.532
75053SOL     OW27055   9.003   2.163   2.755
75053SOL    HW127056   9.090   2.201   2.765
75053SOL    HW227057   9.005   2.119   2.670
75054SOL     OW27058   8.499   7.969   2.049
75054SOL    HW127059   8.507   7.944   2.141
75054SOL    HW227060   8.539   7.897   2.000
75055SOL     OW27061   4.314  11.831   8.990
75055SOL    HW127062   4.308  11.894   8.919
75055SOL    HW227063   4.407  11.827   9.012
75056SOL     OW27064   7.988   1.675   9.499
75056SOL    HW127065   7.984   1.742   9.567
75056SOL    HW227066   8.067   1.696   9.449
75057SOL     OW27067   6.065   9.849   2.301
75057SOL    HW127068   6.047   9.943   2.299
75057SOL    HW227069   6.064   9.822   2.209
75058SOL     OW27070   6.796   5.865   5.878
75058SOL    HW127071   6.802   5.924   5.803
75058SOL    HW227072   6.785   5.924   5.954
75059SOL     OW27073  13.302   8.944   0.917
75059SOL    HW127074  13.361   9.015   0.892
75059SOL    HW227075  13.329   8.870   0.863
75060SOL     OW27076   9.615   0.029  14.087
75060SOL    HW127077   9.554   0.093  14.126
75060SOL    HW227078   9.577  14.826  14.109
75061SOL     OW27079   8.009   0.596  11.015
75061SOL    HW127080   8.059   0.640  10.946
75061SOL    HW227081   7.918   0.620  10.998
75062SOL     OW27082   4.570  13.966   8.818
75062SOL    HW127083   4.525  14.015   8.750
75062SOL    HW227084   4.635  14.027   8.853
75063SOL     OW27085   4.949   3.834  12.560
75063SOL    HW127086   4.909   3.788  12.633
75063SOL    HW227087   5.032   3.867  12.595
75064SOL     OW27088   6.619   7.031   4.406
75064SOL    HW127089   6.678   7.088   4.455
75064SOL    HW227090   6.677   6.978   4.351
75065SOL     OW27091   6.611   2.785   5.045
75065SOL    HW127092   6.669   2.843   5.095
75065SOL    HW227093   6.537   2.841   5.022
75066SOL     OW27094   0.092   4.481   1.238
75066SOL    HW127095  14.880   4.498   1.239
75066SOL    HW227096   0.103   4.410   1.174
75067SOL     OW27097   0.469   7.481   8.126
75067SOL    HW127098   0.553   7.456   8.164
75067SOL    HW227099   0.422   7.526   8.196
75068SOL     OW27100  11.118   4.337   6.049
75068SOL    HW127101  11.101   4.343   5.955
75068SOL    HW227102  11.149   4.424   6.073
75069SOL     OW27103   8.920  14.028   9.811
75069SOL    HW127104   8.854  13.961   9.828
75069SOL    HW227105   9.003  13.985   9.828
75070SOL     OW27106  10.119   3.990  11.357
75070SOL    HW127107  10.144   3.914  11.305
75070SOL    HW227108  10.033   4.015  11.324
75071SOL     OW27109   7.566  11.944   0.456
75071SOL    HW127110   7.624  11.874   0.487
75071SOL    HW227111   7.599  12.023   0.499
75072SOL     OW27112  11.272   7.262  13.339
75072SOL    HW127113  11.257   7.272  13.245
75072SOL    HW227114  11.283   7.168  13.352
75073SOL     OW27115  11.053  13.294   4.898
75073SOL    HW127116  10.987  13.361   4.912
75073SOL    HW227117  11.134  13.343   4.884
75074SOL     OW27118   5.500  13.292   1.272
75074SOL    HW127119   5.439  13.285   1.198
75074SOL    HW227120   5.467  13.365   1.323
75075SOL     OW27121  12.200   0.010   7.005
75075SOL    HW127122  12.144  14.853   7.072
75075SOL    HW227123  12.202  14.828   6.934
75076SOL     OW27124   8.534   1.071   7.804
75076SOL    HW127125   8.477   1.012   7.755
75076SOL    HW227126   8.583   1.119   7.738
75077SOL     OW27127   8.847   2.730   4.967
75077SOL    HW127128   8.801   2.656   5.005
75077SOL    HW227129   8.788   2.765   4.901
75078SOL     OW27130   9.036  11.558  13.729
75078SOL    HW127131   8.965  11.613  13.763
75078SOL    HW227132   9.029  11.567  13.634
75079SOL     OW27133   4.502   8.352  13.953
75079SOL    HW127134   4.524   8.265  13.920
75079SOL    HW227135   4.570   8.371  14.017
75080SOL     OW27136  13.910  11.826   8.543
75080SOL    HW127137  13.963  11.869   8.610
75080SOL    HW227138  13.944  11.860   8.460
75081SOL     OW27139   3.776  14.479   1.026
75081SOL    HW127140   3.801  14.446   0.939
75081SOL    HW227141   3.859  14.489   1.073
75082SOL     OW27142  11.761  11.430   4.588
75082SOL    HW127143  11.796  11.423   4.677
75082SOL    HW227144  11.697  11.359   4.582
75083SOL     OW27145  10.040  11.093  12.382
75083SOL    HW127146  10.005  11.145  12.309
75083SOL    HW227147  10.035  11.003  12.352
75084SOL     OW27148   8.624   5.178   0.423
75084SOL    HW127149   8.546   5.223   0.454
75084SOL    HW227150   8.692   5.203   0.486
75085SOL     OW27151   5.808   3.277   3.939
75085SOL    HW127152   5.866   3.307   3.869
75085SOL    HW227153   5.785   3.187   3.914
75086SOL     OW27154   2.040  14.686   5.701
75086SOL    HW127155   2.111  14.633   5.736
75086SOL    HW227156   2.071  14.776   5.710
75087SOL     OW27157   9.071   3.722   8.699
75087SOL    HW127158   8.991   3.765   8.728
75087SOL    HW227159   9.044   3.633   8.677
75088SOL     OW27160   3.068  13.329  11.979
75088SOL    HW127161   2.994  13.355  11.924
75088SOL    HW227162   3.065  13.233  11.979
75089SOL     OW27163   5.004   2.943   2.957
75089SOL    HW127164   5.074   2.979   2.903
75089SOL    HW227165   4.953   3.019   2.986
75090SOL     OW27166   1.329   4.061   5.010
75090SOL    HW127167   1.362   3.971   5.004
75090SOL    HW227168   1.407   4.114   5.022
75091SOL     OW27169  10.873  14.268   4.085
75091SOL    HW127170  10.894  14.282   3.993
75091SOL    HW227171  10.825  14.186   4.087
75092SOL     OW27172   2.024  13.607   2.845
75092SOL    HW127173   1.967  13.534   2.823
75092SOL    HW227174   2.096  13.600   2.782
75093SOL     OW27175  10.978  13.037   5.683
75093SOL    HW127176  11.018  13.120   5.708
75093SOL    HW227177  11.031  12.970   5.727
75094SOL     OW27178   7.802   4.834  11.828
75094SOL    HW127179   7.748   4.856  11.904
75094SOL    HW227180   7.767   4.887  11.757
75095SOL     OW27181   4.297  13.667   5.898
75095SOL    HW127182   4.303  13.756   5.931
75095SOL    HW227183   4.307  13.612   5.975
75096SOL     OW27184  12.145  11.992   4.946
75096SOL    HW127185  12.097  12.053   4.890
75096SOL    HW227186  12.162  11.916   4.891
75097SOL     OW27187  14.119  13.542  10.034
75097SOL    HW127188  14.057  13.545   9.961
75097SOL    HW227189  14.126  13.633  10.063
75098SOL     OW27190   5.582  11.098   5.245
75098SOL    HW127191   5.572  11.010   5.280
75098SOL    HW227192   5.665  11.129   5.281
75099SOL     OW27193   2.188   4.837  14.381
75099SOL    HW127194   2.178   4.868  14.291
75099SOL    HW227195   2.135   4.757  14.385
75100SOL     OW27196   2.591   5.911  10.722
75100SOL    HW127197   2.522   5.936  10.783
75100SOL    HW227198   2.573   5.963  10.643
75101SOL     OW27199   4.022   8.168  12.178
75101SOL    HW127200   4.067   8.085  12.162
75101SOL    HW227201   3.942   8.163  12.126
75102SOL     OW27202   9.732   5.569   3.992
75102SOL    HW127203   9.680   5.588   4.070
75102SOL    HW227204   9.716   5.643   3.934
75103SOL     OW27205   1.930  11.115   5.191
75103SOL    HW127206   1.958  11.099   5.281
75103SOL    HW227207   1.864  11.185   5.199
75104SOL     OW27208   0.494   3.666   4.520
75104SOL    HW127209   0.548   3.604   4.568
75104SOL    HW227210   0.512   3.751   4.561
75105SOL     OW27211  12.466   3.348   6.846
75105SOL    HW127212  12.557   3.373   6.861
75105SOL    HW227213  12.445   3.381   6.759
75106SOL     OW27214   8.266   7.433   4.940
75106SOL    HW127215   8.181   7.476   4.930
75106SOL    HW227216   8.327   7.503   4.963
75107SOL     OW27217   1.430  13.491  11.639
75107SOL    HW127218   1.506  13.549  11.630
75107SOL    HW227219   1.355  13.548  11.626
75108SOL     OW27220   3.191   4.385   7.731
75108SOL    HW127221   3.105   4.358   7.701
75108SOL    HW227222   3.251   4.356   7.662
75109SOL     OW27223  13.200   5.173  11.327
75109SOL    HW127224  13.205   5.223  11.409
75109SOL    HW227225  13.205   5.239  11.258
75110SOL     OW27226  11.344   5.017  10.940
75110SOL    HW127227  11.293   4.949  10.896
75110SOL    HW227228  11.297   5.036  11.020
75111SOL     OW27229   9.700   0.286  13.972
75111SOL    HW127230   9.663   0.198  13.980
75111SOL    HW227231   9.766   0.278  13.903
75112SOL     OW27232   0.028   6.907  14.328
75112SOL    HW127233   0.078   6.977  14.371
75112SOL    HW227234   0.014   6.842  14.396
75113SOL     OW27235  10.727  14.258   9.902
75113SOL    HW127236  10.720  14.204   9.823
75113SOL    HW227237  10.773  14.204   9.965
75114SOL     OW27238  11.745  14.623   5.548
75114SOL    HW127239  11.664  14.650   5.589
75114SOL    HW227240  11.735  14.648   5.456
75115SOL     OW27241   9.422   0.162  12.822
75115SOL    HW127242   9.456   0.118  12.744
75115SOL    HW227243   9.331   0.181  12.800
75116SOL     OW27244  12.129   5.173  11.034
75116SOL    HW127245  12.224   5.182  11.040
75116SOL    HW227246  12.095   5.259  11.060
75117SOL     OW27247   0.601  11.755   1.905
75117SOL    HW127248   0.542  11.778   1.833
75117SOL    HW227249   0.620  11.662   1.891
75118SOL     OW27250   4.185   1.322  14.126
75118SOL    HW127251   4.151   1.370  14.202
75118SOL    HW227252   4.114   1.264  14.100
75119SOL     OW27253  11.162   6.471  14.729
75119SOL    HW127254  11.141   6.565  14.732
75119SOL    HW227255  11.258   6.468  14.735
75120SOL     OW27256   0.104   9.344  10.201
75120SOL    HW127257   0.054   9.389  10.134
75120SOL    HW227258   0.043   9.333  10.274
75121SOL     OW27259  14.287  10.752  12.613
75121SOL    HW127260  14.307  10.842  12.637
75121SOL    HW227261  14.288  10.753  12.517
75122SOL     OW27262  13.013   7.076   8.182
75122SOL    HW127263  13.059   7.048   8.261
75122SOL    HW227264  12.938   7.126   8.214
75123SOL     OW27265   0.733   9.983   9.757
75123SOL    HW127266   0.682  10.005   9.835
75123SOL    HW227267   0.673   9.929   9.705
75124SOL     OW27268   4.855   4.224   9.603
75124SOL    HW127269   4.772   4.210   9.557
75124SOL    HW227270   4.917   4.248   9.534
75125SOL     OW27271   4.929   9.471  12.756
75125SOL    HW127272   4.956   9.379  12.755
75125SOL    HW227273   4.840   9.470  12.720
75126SOL     OW27274  13.998   8.391   6.256
75126SOL    HW127275  13.912   8.372   6.293
75126SOL    HW227276  13.981   8.448   6.182
75127SOL     OW27277   9.114   3.559   3.849
75127SOL    HW127278   9.073   3.570   3.763
75127SOL    HW227279   9.041   3.564   3.911
75128SOL     OW27280   9.035   4.409  12.966
75128SOL    HW127281   9.103   4.437  12.905
75128SOL    HW227282   8.967   4.371  12.912
75129SOL     OW27283   8.038   9.419   9.496
75129SOL    HW127284   7.991   9.393   9.417
75129SOL    HW227285   8.126   9.441   9.466
75130SOL     OW27286   0.108   9.471   0.873
75130SOL    HW127287   0.155   9.524   0.808
75130SOL    HW227288   0.055   9.411   0.820
75131SOL     OW27289   4.040   9.123  14.413
75131SOL    HW127290   4.123   9.077  14.403
75131SOL    HW227291   4.064   9.216  14.420
75132SOL     OW27292  10.444   2.004   7.514
75132SOL    HW127293  10.408   1.923   7.479
75132SOL    HW227294  10.525   1.977   7.558
75133SOL     OW27295   1.226  11.817   2.262
75133SOL    HW127296   1.288  11.869   2.314
75133SOL    HW227297   1.143  11.864   2.270
75134SOL     OW27298   4.711   7.250   9.136
75134SOL    HW127299   4.633   7.282   9.181
75134SOL    HW227300   4.738   7.173   9.186
75135SOL     OW27301  14.265   2.554  14.861
75135SOL    HW127302  14.327   2.523   0.046
75135SOL    HW227303  14.219   2.475  14.833
75136SOL     OW27304  14.778   9.694   1.908
75136SOL    HW127305  14.835   9.728   1.977
75136SOL    HW227306  14.830   9.626   1.865
75137SOL     OW27307  13.645  10.053  13.656
75137SOL    HW127308  13.589   9.986  13.696
75137SOL    HW227309  13.621  10.052  13.563
75138SOL     OW27310   5.996   2.850  12.816
75138SOL    HW127311   6.025   2.843  12.907
75138SOL    HW227312   6.049   2.784  12.770
75139SOL     OW27313   8.479   7.331   5.585
75139SOL    HW127314   8.572   7.346   5.604
75139SOL    HW227315   8.474   7.327   5.490
75140SOL     OW27316   8.417  11.063   2.007
75140SOL    HW127317   8.381  11.089   2.091
75140SOL    HW227318   8.459  10.978   2.024
75141SOL     OW27319   4.585  13.263   8.641
75141SOL    HW127320   4.546  13.285   8.557
75141SOL    HW227321   4.515  13.275   8.705
75142SOL     OW27322   3.088   6.313  12.317
75142SOL    HW127323   3.062   6.270  12.236
75142SOL    HW227324   3.065   6.251  12.386
75143SOL     OW27325   4.613   2.243   2.956
75143SOL    HW127326   4.685   2.277   2.903
75143SOL    HW227327   4.582   2.319   3.006
75144SOL     OW27328   6.414  10.538   3.177
75144SOL    HW127329   6.322  10.536   3.203
75144SOL    HW227330   6.435  10.447   3.158
75145SOL     OW27331   4.436   2.079  10.629
75145SOL    HW127332   4.359   2.121  10.591
75145SOL    HW227333   4.493   2.060  10.555
75146SOL     OW27334   9.132   2.748  10.687
75146SOL    HW127335   9.188   2.740  10.764
75146SOL    HW227336   9.178   2.809  10.629
75147SOL     OW27337   4.699   0.571  13.467
75147SOL    HW127338   4.691   0.564  13.562
75147SOL    HW227339   4.784   0.531  13.448
75148SOL     OW27340   4.690   6.121  10.961
75148SOL    HW127341   4.771   6.156  10.926
75148SOL    HW227342   4.668   6.048  10.903
75149SOL     OW27343   4.716   6.595   1.237
75149SOL    HW127344   4.757   6.666   1.187
75149SOL    HW227345   4.630   6.630   1.261
75150SOL     OW27346   9.695  10.054  13.952
75150SOL    HW127347   9.760  10.120  13.977
75150SOL    HW227348   9.620  10.105  13.921
75151SOL     OW27349  13.802   1.164  12.242
75151SOL    HW127350  13.885   1.125  12.268
75151SOL    HW227351  13.758   1.096  12.191
75152SOL     OW27352   8.821   7.259  13.897
75152SOL    HW127353   8.782   7.223  13.977
75152SOL    HW227354   8.868   7.337  13.926
75153SOL     OW27355   1.738   6.955   3.628
75153SOL    HW127356   1.682   7.033   3.626
75153SOL    HW227357   1.792   6.965   3.706
75154SOL     OW27358   1.597   0.838   3.127
75154SOL    HW127359   1.673   0.864   3.179
75154SOL    HW227360   1.634   0.812   3.042
75155SOL     OW27361   6.876   0.433  10.177
75155SOL    HW127362   6.951   0.420  10.235
75155SOL    HW227363   6.875   0.356  10.120
75156SOL     OW27364   5.620  13.087  14.589
75156SOL    HW127365   5.543  13.062  14.639
75156SOL    HW227366   5.596  13.070  14.498
75157SOL     OW27367   7.636  12.380  14.500
75157SOL    HW127368   7.722  12.338  14.499
75157SOL    HW227369   7.621  12.404  14.591
75158SOL     OW27370  12.817  10.982   0.948
75158SOL    HW127371  12.905  10.978   0.986
75158SOL    HW227372  12.786  10.892   0.949
75159SOL     OW27373   2.797   5.631   6.520
75159SOL    HW127374   2.802   5.648   6.426
75159SOL    HW227375   2.845   5.704   6.560
75160SOL     OW27376  14.347   6.626  13.466
75160SOL    HW127377  14.267   6.645  13.416
75160SOL    HW227378  14.384   6.549  13.424
75161SOL     OW27379  13.975   5.498  10.280
75161SOL    HW127380  14.048   5.544  10.238
75161SOL    HW227381  14.017   5.438  10.342
75162SOL     OW27382   5.739   7.518  10.071
75162SOL    HW127383   5.834   7.520  10.065
75162SOL    HW227384   5.712   7.609  10.062
75163SOL     OW27385  11.872   0.398   0.453
75163SOL    HW127386  11.957   0.433   0.478
75163SOL    HW227387  11.871   0.401   0.357
75164SOL     OW27388   1.867   7.462   7.404
75164SOL    HW127389   1.959   7.487   7.390
75164SOL    HW227390   1.859   7.455   7.500
75165SOL     OW27391  10.311  14.661  12.421
75165SOL    HW127392  10.363  14.694  12.494
75165SOL    HW227393  10.298  14.568  12.442
75166SOL     OW27394   5.506   7.544  11.428
75166SOL    HW127395   5.481   7.608  11.494
75166SOL    HW227396   5.427   7.491  11.415
75167SOL     OW27397   3.254   1.598   8.430
75167SOL    HW127398   3.163   1.598   8.401
75167SOL    HW227399   3.271   1.689   8.454
75168SOL     OW27400   3.437  13.914   5.220
75168SOL    HW127401   3.482  13.845   5.269
75168SOL    HW227402   3.367  13.868   5.172
75169SOL     OW27403  11.053   1.383   3.253
75169SOL    HW127404  11.010   1.342   3.178
75169SOL    HW227405  11.130   1.426   3.216
75170SOL     OW27406   7.073  14.200  10.176
75170SOL    HW127407   7.126  14.278  10.167
75170SOL    HW227408   7.111  14.137  10.114
75171SOL     OW27409   5.929  10.250   8.995
75171SOL    HW127410   5.968  10.338   8.995
75171SOL    HW227411   5.918  10.229   8.902
75172SOL     OW27412   5.755   5.416   3.384
75172SOL    HW127413   5.825   5.434   3.321
75172SOL    HW227414   5.692   5.364   3.334
75173SOL     OW27415   2.899   3.650   1.029
75173SOL    HW127416   2.891   3.637   1.124
75173SOL    HW227417   2.809   3.669   1.001
75174SOL     OW27418   7.233  14.333   6.019
75174SOL    HW127419   7.162  14.360   5.960
75174SOL    HW227420   7.225  14.392   6.094
75175SOL     OW27421   4.121   6.396   3.665
75175SOL    HW127422   4.130   6.300   3.668
75175SOL    HW227423   4.096   6.414   3.574
75176SOL     OW27424   2.019  11.726   1.796
75176SOL    HW127425   2.088  11.780   1.832
75176SOL    HW227426   2.003  11.762   1.708
75177SOL     OW27427  12.053   5.681   5.830
75177SOL    HW127428  12.064   5.674   5.925
75177SOL    HW227429  12.077   5.771   5.809
75178SOL     OW27430   1.249   6.306  14.231
75178SOL    HW127431   1.268   6.229  14.177
75178SOL    HW227432   1.225   6.270  14.316
75179SOL     OW27433  12.162  10.603   4.907
75179SOL    HW127434  12.095  10.670   4.918
75179SOL    HW227435  12.223  10.640   4.843
75180SOL     OW27436   6.648   9.119   2.247
75180SOL    HW127437   6.581   9.187   2.256
75180SOL    HW227438   6.623   9.052   2.311
75181SOL     OW27439   2.640   7.706  10.590
75181SOL    HW127440   2.645   7.636  10.655
75181SOL    HW227441   2.584   7.670  10.520
75182SOL     OW27442   2.558   3.787   8.094
75182SOL    HW127443   2.633   3.733   8.072
75182SOL    HW227444   2.505   3.733   8.153
75183SOL     OW27445   6.024   3.313  14.111
75183SOL    HW127446   5.977   3.245  14.063
75183SOL    HW227447   6.012   3.392  14.059
75184SOL     OW27448  11.722  11.990   7.054
75184SOL    HW127449  11.800  11.975   7.001
75184SOL    HW227450  11.667  12.047   7.000
75185SOL     OW27451   9.163   9.195   3.291
75185SOL    HW127452   9.235   9.139   3.265
75185SOL    HW227453   9.202   9.282   3.300
75186SOL     OW27454   6.785  12.928   3.619
75186SOL    HW127455   6.767  12.834   3.631
75186SOL    HW227456   6.713  12.959   3.565
75187SOL     OW27457   9.028   1.755   0.890
75187SOL    HW127458   9.017   1.811   0.967
75187SOL    HW227459   9.123   1.753   0.876
75188SOL     OW27460   2.446   0.865  14.568
75188SOL    HW127461   2.500   0.928  14.520
75188SOL    HW227462   2.491   0.782  14.556
75189SOL     OW27463  12.339   5.708  12.684
75189SOL    HW127464  12.315   5.637  12.625
75189SOL    HW227465  12.347   5.666  12.770
75190SOL     OW27466   2.684   5.477   1.122
75190SOL    HW127467   2.649   5.522   1.045
75190SOL    HW227468   2.768   5.519   1.138
75191SOL     OW27469  12.513   2.788   9.902
75191SOL    HW127470  12.495   2.708   9.951
75191SOL    HW227471  12.548   2.757   9.818
75192SOL     OW27472   6.288  11.462   3.906
75192SOL    HW127473   6.348  11.529   3.939
75192SOL    HW227474   6.327  11.434   3.824
75193SOL     OW27475  12.444   5.021   2.994
75193SOL    HW127476  12.500   5.048   2.922
75193SOL    HW227477  12.496   5.035   3.072
75194SOL     OW27478   2.914   1.038   3.711
75194SOL    HW127479   2.882   0.969   3.654
75194SOL    HW227480   2.839   1.097   3.723
75195SOL     OW27481   2.663   2.038   1.191
75195SOL    HW127482   2.727   2.109   1.188
75195SOL    HW227483   2.662   2.010   1.282
75196SOL     OW27484  13.184  12.562  14.539
75196SOL    HW127485  13.231  12.554  14.455
75196SOL    HW227486  13.241  12.617  14.593
75197SOL     OW27487   6.429   0.630  11.983
75197SOL    HW127488   6.498   0.577  11.944
75197SOL    HW227489   6.358   0.628  11.919
75198SOL     OW27490  11.440  14.719   6.501
75198SOL    HW127491  11.361  14.668   6.520
75198SOL    HW227492  11.512  14.656   6.509
75199SOL     OW27493   2.589   2.428   4.121
75199SOL    HW127494   2.573   2.383   4.204
75199SOL    HW227495   2.575   2.361   4.054
75200SOL     OW27496  13.753   4.872  10.107
75200SOL    HW127497  13.703   4.853  10.027
75200SOL    HW227498  13.822   4.806  10.108
75201SOL     OW27499  13.443   1.382  13.803
75201SOL    HW127500  13.488   1.411  13.723
75201SOL    HW227501  13.491   1.304  13.831
75202SOL     OW27502   5.004   5.827   7.763
75202SOL    HW127503   4.914   5.803   7.781
75202SOL    HW227504   5.011   5.825   7.667
75203SOL     OW27505   4.967   1.190  13.013
75203SOL    HW127506   4.917   1.265  13.044
75203SOL    HW227507   4.993   1.144  13.093
75204SOL     OW27508   8.829   4.668   7.953
75204SOL    HW127509   8.752   4.697   7.903
75204SOL    HW227510   8.811   4.697   8.043
75205SOL     OW27511  13.322  11.686   8.627
75205SOL    HW127512  13.330  11.592   8.646
75205SOL    HW227513  13.270  11.690   8.547
75206SOL     OW27514  12.641   0.500   2.598
75206SOL    HW127515  12.640   0.458   2.684
75206SOL    HW227516  12.698   0.576   2.610
75207SOL     OW27517   9.248   7.102   0.401
75207SOL    HW127518   9.201   7.021   0.419
75207SOL    HW227519   9.307   7.080   0.329
75208SOL     OW27520   6.817   7.406  10.865
75208SOL    HW127521   6.893   7.458  10.890
75208SOL    HW227522   6.803   7.426  10.773
75209SOL     OW27523   8.902  12.226   5.062
75209SOL    HW127524   8.823  12.278   5.071
75209SOL    HW227525   8.927  12.203   5.151
75210SOL     OW27526   3.879   7.177  12.992
75210SOL    HW127527   3.943   7.160  12.922
75210SOL    HW227528   3.931   7.216  13.062
75211SOL     OW27529   0.630   8.963   4.255
75211SOL    HW127530   0.724   8.978   4.263
75211SOL    HW227531   0.616   8.947   4.162
75212SOL     OW27532   9.790  12.103   1.734
75212SOL    HW127533   9.742  12.185   1.723
75212SOL    HW227534   9.863  12.109   1.674
75213SOL     OW27535   0.443  13.139   5.232
75213SOL    HW127536   0.533  13.172   5.225
75213SOL    HW227537   0.439  13.099   5.319
75214SOL     OW27538   3.472   5.182   0.218
75214SOL    HW127539   3.518   5.264   0.199
75214SOL    HW227540   3.433   5.158   0.134
75215SOL     OW27541   3.159  13.215  13.926
75215SOL    HW127542   3.195  13.127  13.931
75215SOL    HW227543   3.082  13.207  13.870
75216SOL     OW27544   1.260   8.867   2.057
75216SOL    HW127545   1.222   8.954   2.062
75216SOL    HW227546   1.342   8.879   2.009
75217SOL     OW27547  14.164   9.028  14.089
75217SOL    HW127548  14.207   8.943  14.081
75217SOL    HW227549  14.214   9.086  14.032
75218SOL     OW27550   1.324   1.531  11.610
75218SOL    HW127551   1.245   1.567  11.650
75218SOL    HW227552   1.367   1.607  11.570
75219SOL     OW27553   9.887  11.598  10.613
75219SOL    HW127554   9.833  11.676  10.599
75219SOL    HW227555   9.899  11.561  10.525
75220SOL     OW27556   1.064   3.727   2.516
75220SOL    HW127557   1.089   3.652   2.462
75220SOL    HW227558   0.985   3.697   2.562
75221SOL     OW27559   7.676   4.178   6.152
75221SOL    HW127560   7.736   4.143   6.218
75221SOL    HW227561   7.600   4.119   6.156
75222SOL     OW27562  12.622   4.952   6.185
75222SOL    HW127563  12.651   5.038   6.152
75222SOL    HW227564  12.538   4.970   6.228
75223SOL     OW27565   6.356   5.533   4.217
75223SOL    HW127566   6.270   5.556   4.184
75223SOL    HW227567   6.342   5.451   4.266
75224SOL     OW27568   9.645   9.753  11.578
75224SOL    HW127569   9.607   9.803  11.506
75224SOL    HW227570   9.652   9.816  11.650
75225SOL     OW27571   8.506   9.885   0.067
75225SOL    HW127572   8.568   9.852   0.132
75225SOL    HW227573   8.445   9.813   0.053
75226SOL     OW27574   6.016  13.793  11.376
75226SOL    HW127575   5.931  13.817  11.338
75226SOL    HW227576   6.005  13.702  11.404
75227SOL     OW27577  11.216  14.514   9.532
75227SOL    HW127578  11.155  14.453   9.572
75227SOL    HW227579  11.301  14.494   9.572
75228SOL     OW27580   4.765   8.677   1.598
75228SOL    HW127581   4.827   8.680   1.672
75228SOL    HW227582   4.752   8.769   1.575
75229SOL     OW27583   7.144   0.124   2.694
75229SOL    HW127584   7.104   0.160   2.615
75229SOL    HW227585   7.238   0.138   2.682
75230SOL     OW27586   9.709  10.657  13.598
75230SOL    HW127587   9.753  10.628  13.678
75230SOL    HW227588   9.756  10.613  13.528
75231SOL     OW27589  13.024   5.268   5.983
75231SOL    HW127590  13.103   5.264   5.929
75231SOL    HW227591  13.050   5.321   6.058
75232SOL     OW27592  14.382   1.994   9.148
75232SOL    HW127593  14.437   2.008   9.070
75232SOL    HW227594  14.342   2.079   9.165
75233SOL     OW27595   5.189   5.985   9.223
75233SOL    HW127596   5.124   5.994   9.293
75233SOL    HW227597   5.169   6.056   9.163
75234SOL     OW27598  10.026   8.587   2.293
75234SOL    HW127599   9.958   8.600   2.227
75234SOL    HW227600  10.093   8.652   2.272
75235SOL     OW27601   8.109   5.189  11.620
75235SOL    HW127602   8.034   5.144  11.659
75235SOL    HW227603   8.107   5.276  11.660
75236SOL     OW27604   2.404  11.153  10.293
75236SOL    HW127605   2.345  11.123  10.362
75236SOL    HW227606   2.399  11.084  10.226
75237SOL     OW27607   1.236   1.558   5.234
75237SOL    HW127608   1.322   1.533   5.268
75237SOL    HW227609   1.180   1.483   5.253
75238SOL     OW27610   0.536   6.092  13.193
75238SOL    HW127611   0.560   6.181  13.169
75238SOL    HW227612   0.595   6.069  13.265
75239SOL     OW27613   2.921   6.126  13.448
75239SOL    HW127614   2.921   6.087  13.535
75239SOL    HW227615   2.898   6.218  13.463
75240SOL     OW27616  11.777  11.576   7.453
75240SOL    HW127617  11.731  11.658   7.469
75240SOL    HW227618  11.835  11.595   7.379
75241SOL     OW27619   4.539   2.212   9.562
75241SOL    HW127620   4.590   2.178   9.488
75241SOL    HW227621   4.453   2.231   9.524
75242SOL     OW27622  14.854   1.349   4.725
75242SOL    HW127623  14.830   1.391   4.808
75242SOL    HW227624  14.774   1.303   4.698
75243SOL     OW27625   5.142  12.874   0.153
75243SOL    HW127626   5.121  12.874   0.246
75243SOL    HW227627   5.096  12.798   0.118
75244SOL     OW27628   2.869  10.206   0.828
75244SOL    HW127629   2.813  10.146   0.877
75244SOL    HW227630   2.810  10.273   0.796
75245SOL     OW27631   2.745   9.974   9.947
75245SOL    HW127632   2.799   9.927  10.012
75245SOL    HW227633   2.809  10.008   9.884
75246SOL     OW27634   7.399   8.587  13.483
75246SOL    HW127635   7.473   8.644  13.461
75246SOL    HW227636   7.438   8.508  13.518
75247SOL     OW27637  10.534   4.368  12.595
75247SOL    HW127638  10.452   4.417  12.599
75247SOL    HW227639  10.602   4.436  12.595
75248SOL     OW27640   3.946   2.612  14.283
75248SOL    HW127641   3.974   2.543  14.342
75248SOL    HW227642   3.894   2.567  14.216
75249SOL     OW27643  12.449   9.503   6.375
75249SOL    HW127644  12.365   9.468   6.404
75249SOL    HW227645  12.442   9.511   6.280
75250SOL     OW27646  10.407   5.318   2.262
75250SOL    HW127647  10.342   5.262   2.220
75250SOL    HW227648  10.382   5.317   2.355
75251SOL     OW27649   0.871   5.740   2.621
75251SOL    HW127650   0.887   5.834   2.620
75251SOL    HW227651   0.936   5.705   2.681
75252SOL     OW27652   7.164   2.165   9.969
75252SOL    HW127653   7.118   2.244   9.996
75252SOL    HW227654   7.254   2.178   9.999
75253SOL     OW27655   3.704   0.420  14.510
75253SOL    HW127656   3.733   0.499  14.555
75253SOL    HW227657   3.622   0.445  14.468
75254SOL     OW27658   6.194   6.879   6.698
75254SOL    HW127659   6.164   6.872   6.789
75254SOL    HW227660   6.272   6.824   6.694
75255SOL     OW27661   4.399   9.061  10.201
75255SOL    HW127662   4.483   9.080  10.160
75255SOL    HW227663   4.334   9.097  10.141
75256SOL     OW27664   5.536   3.040   4.043
75256SOL    HW127665   5.451   3.064   4.007
75256SOL    HW227666   5.518   3.017   4.134
75257SOL     OW27667   8.418   2.875   2.839
75257SOL    HW127668   8.492   2.819   2.864
75257SOL    HW227669   8.341   2.829   2.872
75258SOL     OW27670   2.391   7.047  11.419
75258SOL    HW127671   2.432   6.963  11.442
75258SOL    HW227672   2.380   7.091  11.504
75259SOL     OW27673   9.577   1.256   0.270
75259SOL    HW127674   9.638   1.326   0.247
75259SOL    HW227675   9.536   1.232   0.187
75260SOL     OW27676  13.473   7.105   3.420
75260SOL    HW127677  13.424   7.070   3.494
75260SOL    HW227678  13.537   7.164   3.459
75261SOL     OW27679   9.430  10.637  13.505
75261SOL    HW127680   9.375  10.618  13.581
75261SOL    HW227681   9.505  10.685  13.540
75262SOL     OW27682   5.613   0.740  10.027
75262SOL    HW127683   5.645   0.666  10.077
75262SOL    HW227684   5.680   0.755   9.960
75263SOL     OW27685   3.312   9.790   3.626
75263SOL    HW127686   3.244   9.724   3.614
75263SOL    HW227687   3.283   9.840   3.702
75264SOL     OW27688   2.765  12.677  11.620
75264SOL    HW127689   2.779  12.697  11.527
75264SOL    HW227690   2.682  12.630  11.622
75265SOL     OW27691   6.362  10.798   1.895
75265SOL    HW127692   6.382  10.705   1.884
75265SOL    HW227693   6.267  10.801   1.907
75266SOL     OW27694   7.193  14.253  11.056
75266SOL    HW127695   7.274  14.201  11.056
75266SOL    HW227696   7.127  14.194  11.090
75267SOL     OW27697   1.826   4.107   5.454
75267SOL    HW127698   1.801   4.018   5.478
75267SOL    HW227699   1.921   4.105   5.451
75268SOL     OW27700   6.897   6.890   0.143
75268SOL    HW127701   6.843   6.847   0.210
75268SOL    HW227702   6.882   6.839   0.064
75269SOL     OW27703  14.511   1.162   7.435
75269SOL    HW127704  14.605   1.144   7.429
75269SOL    HW227705  14.476   1.091   7.488
75270SOL     OW27706   4.589   3.301   9.768
75270SOL    HW127707   4.578   3.380   9.715
75270SOL    HW227708   4.617   3.234   9.706
75271SOL     OW27709   6.969   0.858   3.819
75271SOL    HW127710   7.040   0.873   3.757
75271SOL    HW227711   7.004   0.794   3.881
75272SOL     OW27712  11.677  10.390  11.151
75272SOL    HW127713  11.717  10.409  11.067
75272SOL    HW227714  11.590  10.356  11.129
75273SOL     OW27715   1.768   3.316  14.625
75273SOL    HW127716   1.741   3.224  14.629
75273SOL    HW227717   1.860   3.312  14.598
75274SOL     OW27718   4.832   4.032   3.193
75274SOL    HW127719   4.782   4.026   3.274
75274SOL    HW227720   4.924   4.034   3.222
75275SOL     OW27721  13.281   9.945   7.643
75275SOL    HW127722  13.317   9.979   7.562
75275SOL    HW227723  13.221   9.875   7.615
75276SOL     OW27724  13.333   8.114   0.669
75276SOL    HW127725  13.330   8.192   0.724
75276SOL    HW227726  13.420   8.115   0.630
75277SOL     OW27727   5.025   6.821   6.191
75277SOL    HW127728   5.068   6.897   6.152
75277SOL    HW227729   5.036   6.833   6.286
75278SOL     OW27730   6.768   2.992  11.121
75278SOL    HW127731   6.738   3.001  11.030
75278SOL    HW227732   6.851   3.039  11.124
75279SOL     OW27733   9.601  12.254  11.672
75279SOL    HW127734   9.548  12.313  11.726
75279SOL    HW227735   9.617  12.178  11.727
75280SOL     OW27736  14.487   9.082   8.719
75280SOL    HW127737  14.499   8.999   8.673
75280SOL    HW227738  14.395   9.105   8.705
75281SOL     OW27739   6.467  12.737   6.170
75281SOL    HW127740   6.534  12.682   6.128
75281SOL    HW227741   6.462  12.703   6.259
75282SOL     OW27742  11.783   3.446   7.266
75282SOL    HW127743  11.842   3.453   7.192
75282SOL    HW227744  11.775   3.352   7.282
75283SOL     OW27745   4.028   5.259   5.401
75283SOL    HW127746   4.110   5.215   5.381
75283SOL    HW227747   4.016   5.321   5.329
75284SOL     OW27748   4.913  11.744  10.842
75284SOL    HW127749   4.986  11.725  10.901
75284SOL    HW227750   4.897  11.838  10.853
75285SOL     OW27751  11.717  12.292  13.057
75285SOL    HW127752  11.650  12.310  12.991
75285SOL    HW227753  11.669  12.251  13.129
75286SOL     OW27754  11.275   0.380   4.983
75286SOL    HW127755  11.257   0.474   4.978
75286SOL    HW227756  11.220   0.341   4.916
75287SOL     OW27757  10.415  11.944   2.210
75287SOL    HW127758  10.340  11.996   2.239
75287SOL    HW227759  10.450  11.906   2.290
75288SOL     OW27760  14.654  11.411  12.855
75288SOL    HW127761  14.706  11.400  12.935
75288SOL    HW227762  14.654  11.325  12.813
75289SOL     OW27763   4.030   8.577  13.967
75289SOL    HW127764   4.115   8.551  14.002
75289SOL    HW227765   3.966   8.530  14.021
75290SOL     OW27766   0.397  10.903   4.470
75290SOL    HW127767   0.362  10.870   4.553
75290SOL    HW227768   0.320  10.915   4.414
75291SOL     OW27769   3.101   5.726   9.553
75291SOL    HW127770   3.109   5.748   9.460
75291SOL    HW227771   3.100   5.630   9.555
75292SOL     OW27772   9.517  12.928  14.549
75292SOL    HW127773   9.507  12.985  14.472
75292SOL    HW227774   9.587  12.867  14.525
75293SOL     OW27775  13.279   3.047   7.627
75293SOL    HW127776  13.347   2.985   7.599
75293SOL    HW227777  13.235   3.003   7.700
75294SOL     OW27778   8.233  10.057  13.747
75294SOL    HW127779   8.196  10.132  13.794
75294SOL    HW227780   8.321  10.048  13.782
75295SOL     OW27781  14.834  13.583  11.037
75295SOL    HW127782  14.806  13.560  10.949
75295SOL    HW227783  14.873  13.503  11.072
75296SOL     OW27784  10.045   2.438  12.743
75296SOL    HW127785  10.074   2.351  12.718
75296SOL    HW227786  10.067   2.445  12.836
75297SOL     OW27787   1.743   9.812   5.343
75297SOL    HW127788   1.677   9.794   5.410
75297SOL    HW227789   1.800   9.735   5.344
75298SOL     OW27790   7.183   2.921   0.730
75298SOL    HW127791   7.238   2.917   0.808
75298SOL    HW227792   7.243   2.907   0.657
75299SOL     OW27793   0.484   5.968  11.587
75299SOL    HW127794   0.409   5.991  11.641
75299SOL    HW227795   0.448   5.917  11.515
75300SOL     OW27796   0.935   9.040   8.982
75300SOL    HW127797   0.904   9.072   9.067
75300SOL    HW227798   0.979   8.957   9.002
75301SOL     OW27799  14.713   7.286  11.066
75301SOL    HW127800  14.650   7.264  11.135
75301SOL    HW227801  14.714   7.210  11.009
75302SOL     OW27802   0.624  14.107  12.363
75302SOL    HW127803   0.531  14.089  12.376
75302SOL    HW227804   0.667  14.070  12.439
75303SOL     OW27805  10.408   5.531   7.395
75303SOL    HW127806  10.361   5.500   7.473
75303SOL    HW227807  10.394   5.462   7.330
75304SOL     OW27808  12.482  12.007   6.913
75304SOL    HW127809  12.493  11.917   6.881
75304SOL    HW227810  12.415  12.000   6.981
75305SOL     OW27811   4.741   0.555   6.662
75305SOL    HW127812   4.808   0.526   6.723
75305SOL    HW227813   4.681   0.608   6.714
75306SOL     OW27814  12.299   7.330  12.477
75306SOL    HW127815  12.248   7.341  12.397
75306SOL    HW227816  12.358   7.257  12.458
75307SOL     OW27817   1.095  13.907   5.749
75307SOL    HW127818   1.020  13.914   5.690
75307SOL    HW227819   1.126  13.997   5.758
75308SOL     OW27820   3.201   5.764   5.809
75308SOL    HW127821   3.238   5.723   5.887
75308SOL    HW227822   3.190   5.691   5.748
75309SOL     OW27823   4.909   5.882  10.259
75309SOL    HW127824   4.894   5.788  10.246
75309SOL    HW227825   4.837   5.924  10.211
75310SOL     OW27826   3.526  13.759   5.789
75310SOL    HW127827   3.539  13.811   5.709
75310SOL    HW227828   3.452  13.702   5.769
75311SOL     OW27829  10.838   4.315   7.962
75311SOL    HW127830  10.864   4.339   7.873
75311SOL    HW227831  10.742   4.318   7.961
75312SOL     OW27832   7.486  13.927   2.154
75312SOL    HW127833   7.490  13.929   2.058
75312SOL    HW227834   7.441  13.845   2.174
75313SOL     OW27835   7.739  14.626   3.745
75313SOL    HW127836   7.779  14.585   3.668
75313SOL    HW227837   7.786  14.709   3.755
75314SOL     OW27838  13.753  14.102  14.419
75314SOL    HW127839  13.847  14.097  14.438
75314SOL    HW227840  13.744  14.058  14.334
75315SOL     OW27841   0.858   4.381  13.743
75315SOL    HW127842   0.839   4.474  13.729
75315SOL    HW227843   0.775   4.345  13.775
75316SOL     OW27844   0.820  14.876   6.636
75316SOL    HW127845   0.834  14.782   6.643
75316SOL    HW227846   0.857   0.017   6.551
75317SOL     OW27847  10.897  13.517  11.630
75317SOL    HW127848  10.895  13.558  11.716
75317SOL    HW227849  10.805  13.500  11.610
75318SOL     OW27850  13.723   0.774   0.088
75318SOL    HW127851  13.656   0.783   0.021
75318SOL    HW227852  13.708   0.846   0.148
75319SOL     OW27853  14.053   9.675   9.642
75319SOL    HW127854  14.008   9.746   9.597
75319SOL    HW227855  14.095   9.717   9.717
75320SOL     OW27856   2.886  12.386   1.718
75320SOL    HW127857   2.894  12.398   1.813
75320SOL    HW227858   2.976  12.391   1.686
75321SOL     OW27859  12.659   7.752   4.566
75321SOL    HW127860  12.604   7.741   4.489
75321SOL    HW227861  12.688   7.664   4.588
75322SOL     OW27862  14.622   6.825   6.712
75322SOL    HW127863  14.560   6.853   6.645
75322SOL    HW227864  14.700   6.880   6.697
75323SOL     OW27865  12.178   4.766  10.303
75323SOL    HW127866  12.158   4.859  10.311
75323SOL    HW227867  12.274   4.762  10.304
75324SOL     OW27868  11.674   0.552   8.061
75324SOL    HW127869  11.638   0.622   8.115
75324SOL    HW227870  11.767   0.552   8.081
75325SOL     OW27871   0.428  12.109   3.570
75325SOL    HW127872   0.383  12.117   3.654
75325SOL    HW227873   0.474  12.193   3.559
75326SOL     OW27874   7.590  13.444   6.054
75326SOL    HW127875   7.616  13.355   6.078
75326SOL    HW227876   7.501  13.453   6.088
75327SOL     OW27877   1.275   6.072  14.106
75327SOL    HW127878   1.329   6.109  14.036
75327SOL    HW227879   1.203   6.028  14.060
75328SOL     OW27880   0.845   1.573   4.633
75328SOL    HW127881   0.927   1.551   4.588
75328SOL    HW227882   0.783   1.591   4.562
75329SOL     OW27883   1.071   2.556   2.897
75329SOL    HW127884   0.996   2.604   2.862
75329SOL    HW227885   1.101   2.610   2.970
75330SOL     OW27886   6.715   9.288   8.224
75330SOL    HW127887   6.766   9.215   8.189
75330SOL    HW227888   6.723   9.280   8.319
75331SOL     OW27889   4.224  14.409   1.862
75331SOL    HW127890   4.150  14.393   1.922
75331SOL    HW227891   4.206  14.352   1.787
75332SOL     OW27892  12.991  10.435   6.289
75332SOL    HW127893  13.006  10.366   6.225
75332SOL    HW227894  12.896  10.435   6.303
75333SOL     OW27895   9.013   7.491   8.797
75333SOL    HW127896   9.068   7.556   8.840
75333SOL    HW227897   8.953   7.462   8.866
75334SOL     OW27898   2.995  12.707   7.748
75334SOL    HW127899   3.004  12.626   7.698
75334SOL    HW227900   3.085  12.738   7.759
75335SOL     OW27901   1.472   4.423   0.088
75335SOL    HW127902   1.394   4.467   0.120
75335SOL    HW227903   1.487   4.459   0.000
75336SOL     OW27904  12.514   6.452  10.785
75336SOL    HW127905  12.474   6.536  10.762
75336SOL    HW227906  12.602   6.456  10.748
75337SOL     OW27907   0.582  12.427   5.659
75337SOL    HW127908   0.627  12.379   5.590
75337SOL    HW227909   0.638  12.503   5.676
75338SOL     OW27910  14.529   2.276   2.396
75338SOL    HW127911  14.495   2.364   2.408
75338SOL    HW227912  14.556   2.249   2.484
75339SOL     OW27913   9.486   7.669   3.761
75339SOL    HW127914   9.581   7.678   3.768
75339SOL    HW227915   9.457   7.660   3.852
75340SOL     OW27916   7.905   6.709  11.651
75340SOL    HW127917   7.898   6.801  11.626
75340SOL    HW227918   7.884   6.661  11.570
75341SOL     OW27919  14.839   3.644   3.282
75341SOL    HW127920  14.793   3.596   3.351
75341SOL    HW227921  14.779   3.642   3.207
75342SOL     OW27922  10.408   2.935  14.874
75342SOL    HW127923  10.334   2.924  14.815
75342SOL    HW227924  10.424   2.847   0.027
75343SOL     OW27925   0.240   9.733   6.330
75343SOL    HW127926   0.151   9.735   6.294
75343SOL    HW227927   0.295   9.704   6.258
75344SOL     OW27928   1.001  14.586   2.607
75344SOL    HW127929   0.955  14.640   2.544
75344SOL    HW227930   1.083  14.563   2.564
75345SOL     OW27931   5.933   9.177   4.787
75345SOL    HW127932   5.983   9.095   4.790
75345SOL    HW227933   5.871   9.165   4.715
75346SOL     OW27934   4.367   9.978   4.875
75346SOL    HW127935   4.379   9.920   4.950
75346SOL    HW227936   4.376   9.921   4.799
75347SOL     OW27937   0.210   4.561  10.674
75347SOL    HW127938   0.163   4.624  10.728
75347SOL    HW227939   0.167   4.565  10.589
75348SOL     OW27940   3.311   2.496   9.348
75348SOL    HW127941   3.332   2.571   9.404
75348SOL    HW227942   3.396   2.459   9.326
75349SOL     OW27943  11.808   1.989   3.299
75349SOL    HW127944  11.812   2.084   3.305
75349SOL    HW227945  11.776   1.960   3.384
75350SOL     OW27946   1.112  12.680  10.121
75350SOL    HW127947   1.062  12.602  10.095
75350SOL    HW227948   1.118  12.673  10.216
75351SOL     OW27949   3.743   6.008  14.299
75351SOL    HW127950   3.740   6.080  14.362
75351SOL    HW227951   3.803   6.038  14.231
75352SOL     OW27952  11.434  11.543   3.842
75352SOL    HW127953  11.481  11.528   3.760
75352SOL    HW227954  11.400  11.456   3.865
75353SOL     OW27955   0.974   9.864  13.008
75353SOL    HW127956   0.932   9.829  13.087
75353SOL    HW227957   1.065   9.834  13.014
75354SOL     OW27958   6.551   7.034   4.760
75354SOL    HW127959   6.548   7.053   4.853
75354SOL    HW227960   6.462   7.052   4.729
75355SOL     OW27961  12.760  13.285   2.343
75355SOL    HW127962  12.840  13.257   2.387
75355SOL    HW227963  12.714  13.204   2.322
75356SOL     OW27964   6.762  10.904   2.470
75356SOL    HW127965   6.679  10.932   2.432
75356SOL    HW227966   6.737  10.859   2.551
75357SOL     OW27967  11.920   1.413  12.357
75357SOL    HW127968  11.889   1.471  12.288
75357SOL    HW227969  11.955   1.337  12.311
75358SOL     OW27970   4.514   5.245   0.835
75358SOL    HW127971   4.468   5.311   0.887
75358SOL    HW227972   4.600   5.238   0.877
75359SOL     OW27973   9.266  13.260  11.300
75359SOL    HW127974   9.251  13.341  11.348
75359SOL    HW227975   9.220  13.193  11.351
75360SOL     OW27976   9.602   5.966  11.447
75360SOL    HW127977   9.553   5.938  11.370
75360SOL    HW227978   9.592   5.894  11.510
75361SOL     OW27979  11.600   1.683  10.907
75361SOL    HW127980  11.652   1.759  10.936
75361SOL    HW227981  11.571   1.643  10.989
75362SOL     OW27982   1.064   8.873   2.873
75362SOL    HW127983   1.143   8.866   2.821
75362SOL    HW227984   1.016   8.792   2.856
75363SOL     OW27985  10.658   9.790   9.718
75363SOL    HW127986  10.621   9.837   9.793
75363SOL    HW227987  10.742   9.758   9.749
75364SOL     OW27988  10.783  13.941  14.390
75364SOL    HW127989  10.878  13.937  14.402
75364SOL    HW227990  10.766  13.891  14.311
75365SOL     OW27991   5.149  10.106  12.560
75365SOL    HW127992   5.057  10.085  12.545
75365SOL    HW227993   5.148  10.172  12.629
75366SOL     OW27994   4.303  13.042   8.510
75366SOL    HW127995   4.216  13.011   8.535
75366SOL    HW227996   4.362  13.000   8.572
75367SOL     OW27997   7.682   8.471  11.997
75367SOL    HW127998   7.746   8.521  12.047
75367SOL    HW227999   7.716   8.473  11.907
75368SOL     OW28000  13.535   6.734   3.143
75368SOL    HW128001  13.586   6.768   3.217
75368SOL    HW228002  13.517   6.811   3.089
75369SOL     OW28003   8.581   3.708   7.222
75369SOL    HW128004   8.644   3.779   7.203
75369SOL    HW228005   8.632   3.645   7.274
75370SOL     OW28006  12.142   7.951   8.082
75370SOL    HW128007  12.114   7.936   8.173
75370SOL    HW228008  12.235   7.927   8.082
75371SOL     OW28009   9.219  14.490   6.873
75371SOL    HW128010   9.164  14.513   6.798
75371SOL    HW228011   9.160  14.494   6.948
75372SOL     OW28012   1.515   6.041   5.670
75372SOL    HW128013   1.536   6.093   5.747
75372SOL    HW228014   1.448   6.091   5.624
75373SOL     OW28015   8.565  10.090   2.170
75373SOL    HW128016   8.540  10.159   2.232
75373SOL    HW228017   8.652  10.063   2.198
75374SOL     OW28018   9.178   8.421   5.715
75374SOL    HW128019   9.238   8.428   5.789
75374SOL    HW228020   9.120   8.349   5.737
75375SOL     OW28021   8.937   2.557   7.231
75375SOL    HW128022   8.915   2.648   7.253
75375SOL    HW228023   8.867   2.505   7.271
75376SOL     OW28024  11.087   7.972   8.457
75376SOL    HW128025  11.102   7.954   8.364
75376SOL    HW228026  11.094   8.067   8.464
75377SOL     OW28027  10.710  14.228  14.672
75377SOL    HW128028  10.797  14.269  14.676
75377SOL    HW228029  10.711  14.164  14.744
75378SOL     OW28030   5.294  13.217   6.070
75378SOL    HW128031   5.331  13.139   6.110
75378SOL    HW228032   5.319  13.289   6.129
75379SOL     OW28033  14.365   4.540  12.851
75379SOL    HW128034  14.381   4.521  12.759
75379SOL    HW228035  14.272   4.560  12.856
75380SOL     OW28036  14.499  10.447   1.845
75380SOL    HW128037  14.581  10.490   1.819
75380SOL    HW228038  14.505  10.360   1.805
75381SOL     OW28039  10.859   4.288   1.342
75381SOL    HW128040  10.876   4.211   1.397
75381SOL    HW228041  10.795   4.258   1.278
75382SOL     OW28042   2.328  11.234   1.223
75382SOL    HW128043   2.309  11.327   1.233
75382SOL    HW228044   2.252  11.198   1.177
75383SOL     OW28045   1.101  10.840   4.087
75383SOL    HW128046   1.189  10.813   4.112
75383SOL    HW228047   1.057  10.860   4.170
75384SOL     OW28048  12.957   4.989  13.662
75384SOL    HW128049  12.955   4.971  13.568
75384SOL    HW228050  12.884   5.048  13.677
75385SOL     OW28051   8.166  13.558   4.100
75385SOL    HW128052   8.146  13.496   4.030
75385SOL    HW228053   8.158  13.506   4.180
75386SOL     OW28054   1.951   9.307  12.725
75386SOL    HW128055   1.951   9.281  12.817
75386SOL    HW228056   2.009   9.245  12.682
75387SOL     OW28057  11.925   6.247   5.542
75387SOL    HW128058  11.943   6.165   5.496
75387SOL    HW228059  11.854   6.225   5.603
75388SOL     OW28060   2.607   6.018   6.181
75388SOL    HW128061   2.691   5.978   6.159
75388SOL    HW228062   2.585   5.982   6.267
75389SOL     OW28063   8.650  10.603   0.740
75389SOL    HW128064   8.610  10.520   0.766
75389SOL    HW228065   8.577  10.662   0.726
75390SOL     OW28066   2.929   5.799   4.089
75390SOL    HW128067   2.882   5.781   4.170
75390SOL    HW228068   3.021   5.785   4.110
75391SOL     OW28069   1.379   0.186   4.155
75391SOL    HW128070   1.307   0.230   4.108
75391SOL    HW228071   1.433   0.258   4.187
75392SOL     OW28072   5.640   4.387  10.313
75392SOL    HW128073   5.642   4.293  10.295
75392SOL    HW228074   5.732   4.414  10.307
75393SOL     OW28075  12.686   0.919   3.317
75393SOL    HW128076  12.756   0.892   3.376
75393SOL    HW228077  12.640   0.837   3.296
75394SOL     OW28078   0.190   9.033  14.461
75394SOL    HW128079   0.188   8.989  14.546
75394SOL    HW228080   0.124   9.101  14.467
75395SOL     OW28081  11.094   7.540  13.379
75395SOL    HW128082  11.064   7.575  13.296
75395SOL    HW228083  11.182   7.506  13.361
75396SOL     OW28084  12.579  14.004  14.177
75396SOL    HW128085  12.592  13.992  14.083
75396SOL    HW228086  12.568  14.098  14.188
75397SOL     OW28087   3.511   6.366  12.912
75397SOL    HW128088   3.481   6.332  12.828
75397SOL    HW228089   3.574   6.300  12.943
75398SOL     OW28090   8.332   6.638   7.032
75398SOL    HW128091   8.341   6.663   7.124
75398SOL    HW228092   8.406   6.680   6.989
75399SOL     OW28093  10.957   3.913  10.294
75399SOL    HW128094  10.888   3.967  10.256
75399SOL    HW228095  10.923   3.824  10.292
75400SOL     OW28096   5.078   7.741  10.145
75400SOL    HW128097   5.032   7.787  10.075
75400SOL    HW228098   5.164   7.721  10.107
75401SOL     OW28099  13.297   4.401   8.314
75401SOL    HW128100  13.223   4.461   8.327
75401SOL    HW228101  13.264   4.335   8.253
75402SOL     OW28102   3.990  10.759  11.901
75402SOL    HW128103   3.970  10.839  11.949
75402SOL    HW228104   4.054  10.713  11.956
75403SOL     OW28105   5.113  14.280  11.662
75403SOL    HW128106   5.121  14.187  11.643
75403SOL    HW228107   5.138  14.323  11.580
75404SOL     OW28108  12.774   1.162   7.378
75404SOL    HW128109  12.721   1.090   7.345
75404SOL    HW228110  12.827   1.124   7.448
75405SOL     OW28111   7.164  11.839  11.690
75405SOL    HW128112   7.149  11.868  11.780
75405SOL    HW228113   7.247  11.880  11.665
75406SOL     OW28114  12.768   0.173   5.237
75406SOL    HW128115  12.715   0.252   5.226
75406SOL    HW228116  12.858   0.206   5.247
75407SOL     OW28117   0.093   3.680   2.514
75407SOL    HW128118   0.014   3.666   2.463
75407SOL    HW228119   0.106   3.598   2.562
75408SOL     OW28120   4.052  12.850   7.127
75408SOL    HW128121   4.028  12.822   7.215
75408SOL    HW228122   4.130  12.798   7.106
75409SOL     OW28123   7.510   5.582   4.704
75409SOL    HW128124   7.430   5.596   4.655
75409SOL    HW228125   7.568   5.535   4.644
75410SOL     OW28126   1.174   8.606   9.491
75410SOL    HW128127   1.148   8.521   9.526
75410SOL    HW228128   1.114   8.622   9.418
75411SOL     OW28129   0.804   3.300   6.251
75411SOL    HW128130   0.758   3.362   6.308
75411SOL    HW228131   0.792   3.336   6.163
75412SOL     OW28132   4.551   0.482  12.311
75412SOL    HW128133   4.467   0.494  12.268
75412SOL    HW228134   4.550   0.545  12.383
75413SOL     OW28135  11.223  12.118   1.028
75413SOL    HW128136  11.317  12.113   1.046
75413SOL    HW228137  11.202  12.211   1.037
75414SOL     OW28138   0.604   5.846   6.940
75414SOL    HW128139   0.674   5.907   6.963
75414SOL    HW228140   0.533   5.902   6.907
75415SOL     OW28141  13.156   4.050   9.248
75415SOL    HW128142  13.096   3.985   9.212
75415SOL    HW228143  13.226   3.998   9.287
75416SOL     OW28144   2.285   3.051   9.076
75416SOL    HW128145   2.329   3.031   9.159
75416SOL    HW228146   2.193   3.060   9.099
75417SOL     OW28147   4.356   8.719  10.516
75417SOL    HW128148   4.268   8.742  10.546
75417SOL    HW228149   4.351   8.724  10.420
75418SOL     OW28150  14.202  12.314   3.690
75418SOL    HW128151  14.261  12.382   3.722
75418SOL    HW228152  14.212  12.316   3.595
75419SOL     OW28153  11.878  14.182   1.230
75419SOL    HW128154  11.795  14.219   1.260
75419SOL    HW228155  11.926  14.257   1.195
75420SOL     OW28156   4.011  11.704  11.381
75420SOL    HW128157   3.953  11.709  11.305
75420SOL    HW228158   4.027  11.610  11.393
75421SOL     OW28159  10.621  12.560   8.328
75421SOL    HW128160  10.655  12.633   8.379
75421SOL    HW228161  10.676  12.557   8.250
75422SOL     OW28162   7.306   0.100   4.450
75422SOL    HW128163   7.378   0.147   4.408
75422SOL    HW228164   7.296   0.142   4.535
75423SOL     OW28165  14.505   5.211   2.738
75423SOL    HW128166  14.534   5.301   2.752
75423SOL    HW228167  14.495   5.203   2.643
75424SOL     OW28168  11.565  12.513   3.210
75424SOL    HW128169  11.526  12.470   3.286
75424SOL    HW228170  11.495  12.517   3.145
75425SOL     OW28171  12.962  13.946  10.136
75425SOL    HW128172  12.876  13.981  10.159
75425SOL    HW228173  12.958  13.853  10.160
75426SOL     OW28174   8.778   4.534   9.405
75426SOL    HW128175   8.863   4.492   9.392
75426SOL    HW228176   8.743   4.546   9.317
75427SOL     OW28177  14.655  10.213  13.942
75427SOL    HW128178  14.706  10.132  13.940
75427SOL    HW228179  14.715  10.278  13.978
75428SOL     OW28180   5.434  13.806  14.214
75428SOL    HW128181   5.485  13.829  14.291
75428SOL    HW228182   5.359  13.865  14.217
75429SOL     OW28183   6.115  14.451   9.161
75429SOL    HW128184   6.095  14.542   9.180
75429SOL    HW228185   6.057  14.401   9.219
75430SOL     OW28186   8.373  10.463   9.953
75430SOL    HW128187   8.315  10.424   9.888
75430SOL    HW228188   8.409  10.541   9.910
75431SOL     OW28189   5.386   5.484   3.240
75431SOL    HW128190   5.319   5.446   3.184
75431SOL    HW228191   5.345   5.489   3.327
75432SOL     OW28192   8.735   9.887  12.733
75432SOL    HW128193   8.808   9.860  12.789
75432SOL    HW228194   8.657   9.867  12.784
75433SOL     OW28195   1.759   7.849   4.489
75433SOL    HW128196   1.811   7.906   4.545
75433SOL    HW228197   1.682   7.828   4.542
75434SOL     OW28198   7.391  14.829   3.764
75434SOL    HW128199   7.380  14.868   3.850
75434SOL    HW228200   7.302  14.812   3.733
75435SOL     OW28201   3.351  12.417   3.756
75435SOL    HW128202   3.295  12.380   3.688
75435SOL    HW228203   3.400  12.486   3.712
75436SOL     OW28204   4.082   8.222  12.595
75436SOL    HW128205   4.050   8.302  12.553
75436SOL    HW228206   4.008   8.190  12.645
75437SOL     OW28207  12.618   0.770   0.569
75437SOL    HW128208  12.674   0.810   0.503
75437SOL    HW228209  12.548   0.833   0.583
75438SOL     OW28210  13.854   4.770   4.625
75438SOL    HW128211  13.896   4.848   4.588
75438SOL    HW228212  13.771   4.802   4.659
75439SOL     OW28213  13.008   9.852   3.197
75439SOL    HW128214  13.003   9.856   3.292
75439SOL    HW228215  12.944   9.786   3.172
75440SOL     OW28216  14.731  13.680   6.149
75440SOL    HW128217  14.646  13.701   6.187
75440SOL    HW228218  14.795  13.706   6.215
75441SOL     OW28219  13.215   2.840   9.053
75441SOL    HW128220  13.233   2.843   8.959
75441SOL    HW228221  13.204   2.932   9.078
75442SOL     OW28222   1.684   0.495  14.582
75442SOL    HW128223   1.740   0.442  14.526
75442SOL    HW228224   1.743   0.561  14.620
75443SOL     OW28225  13.707  10.590   8.226
75443SOL    HW128226  13.708  10.512   8.170
75443SOL    HW228227  13.793  10.589   8.269
75444SOL     OW28228  14.508   2.774   1.184
75444SOL    HW128229  14.536   2.684   1.198
75444SOL    HW228230  14.429   2.767   1.130
75445SOL     OW28231   8.657   2.869  13.688
75445SOL    HW128232   8.684   2.953  13.726
75445SOL    HW228233   8.587   2.892  13.627
75446SOL     OW28234   5.649   6.420   4.105
75446SOL    HW128235   5.702   6.495   4.077
75446SOL    HW228236   5.604   6.450   4.184
75447SOL     OW28237   9.693   6.083   2.854
75447SOL    HW128238   9.771   6.043   2.814
75447SOL    HW228239   9.692   6.050   2.943
75448SOL     OW28240   5.098   0.942   8.872
75448SOL    HW128241   5.100   1.034   8.897
75448SOL    HW228242   5.189   0.920   8.851
75449SOL     OW28243  11.284  11.543  14.302
75449SOL    HW128244  11.326  11.459  14.283
75449SOL    HW228245  11.290  11.591  14.220
75450SOL     OW28246   9.113   1.380  10.496
75450SOL    HW128247   9.102   1.288  10.469
75450SOL    HW228248   9.149   1.374  10.585
75451SOL     OW28249   6.310   0.356   2.107
75451SOL    HW128250   6.269   0.348   2.021
75451SOL    HW228251   6.252   0.415   2.156
75452SOL     OW28252  12.584  11.736  10.517
75452SOL    HW128253  12.536  11.653  10.511
75452SOL    HW228254  12.558  11.785  10.439
75453SOL     OW28255  11.559  13.620   0.298
75453SOL    HW128256  11.653  13.616   0.312
75453SOL    HW228257  11.550  13.655   0.209
75454SOL     OW28258   9.640   8.216  14.814
75454SOL    HW128259   9.614   8.300  14.852
75454SOL    HW228260   9.559   8.164  14.811
75455SOL     OW28261   4.547   2.897   4.551
75455SOL    HW128262   4.475   2.893   4.614
75455SOL    HW228263   4.623   2.922   4.603
75456SOL     OW28264  14.168  12.675   3.644
75456SOL    HW128265  14.234  12.644   3.706
75456SOL    HW228266  14.104  12.604   3.639
75457SOL     OW28267  11.898  14.273   4.530
75457SOL    HW128268  11.877  14.259   4.438
75457SOL    HW228269  11.813  14.280   4.574
75458SOL     OW28270   6.402   4.703  14.332
75458SOL    HW128271   6.489   4.735  14.354
75458SOL    HW228272   6.356   4.779  14.295
75459SOL     OW28273   3.349   8.042   5.326
75459SOL    HW128274   3.316   7.963   5.367
75459SOL    HW228275   3.395   8.089   5.396
75460SOL     OW28276   0.497   8.890   2.454
75460SOL    HW128277   0.590   8.900   2.435
75460SOL    HW228278   0.470   8.812   2.406
75461SOL     OW28279   9.144   7.599  10.532
75461SOL    HW128280   9.149   7.548  10.613
75461SOL    HW228281   9.055   7.635  10.533
75462SOL     OW28282   1.369   3.827  13.572
75462SOL    HW128283   1.395   3.864  13.488
75462SOL    HW228284   1.405   3.739  13.572
75463SOL     OW28285  11.760   2.449   8.124
75463SOL    HW128286  11.752   2.430   8.218
75463SOL    HW228287  11.726   2.371   8.081
75464SOL     OW28288  10.649   3.567   9.034
75464SOL    HW128289  10.635   3.485   8.987
75464SOL    HW228290  10.577   3.571   9.097
75465SOL     OW28291   1.968   2.287   7.845
75465SOL    HW128292   1.934   2.213   7.794
75465SOL    HW228293   1.905   2.299   7.915
75466SOL     OW28294   5.481   7.150  14.182
75466SOL    HW128295   5.532   7.070  14.165
75466SOL    HW228296   5.497   7.205  14.105
75467SOL     OW28297   2.942  13.925   6.826
75467SOL    HW128298   2.855  13.886   6.822
75467SOL    HW228299   2.990  13.871   6.889
75468SOL     OW28300  13.134   5.694  10.320
75468SOL    HW128301  13.134   5.785  10.349
75468SOL    HW228302  13.051   5.658  10.351
75469SOL     OW28303   3.141  12.205  14.629
75469SOL    HW128304   3.085  12.138  14.670
75469SOL    HW228305   3.217  12.210  14.686
75470SOL     OW28306  12.298   1.692   7.997
75470SOL    HW128307  12.217   1.652   8.030
75470SOL    HW228308  12.324   1.637   7.923
75471SOL     OW28309  12.880   3.544   8.831
75471SOL    HW128310  12.894   3.614   8.767
75471SOL    HW228311  12.949   3.480   8.811
75472SOL     OW28312  12.147   2.461  11.857
75472SOL    HW128313  12.228   2.492  11.817
75472SOL    HW228314  12.119   2.389  11.800
75473SOL     OW28315   5.145   8.727  12.485
75473SOL    HW128316   5.123   8.635  12.473
75473SOL    HW228317   5.118   8.769  12.404
75474SOL     OW28318  14.536   1.719   4.679
75474SOL    HW128319  14.517   1.644   4.735
75474SOL    HW228320  14.604   1.689   4.620
75475SOL     OW28321   2.058  12.846  10.710
75475SOL    HW128322   2.137  12.811  10.751
75475SOL    HW228323   2.090  12.892  10.632
75476SOL     OW28324  11.031   9.251  11.441
75476SOL    HW128325  11.104   9.243  11.503
75476SOL    HW228326  10.991   9.164  11.441
75477SOL     OW28327   6.935  10.173   2.113
75477SOL    HW128328   6.895  10.115   2.048
75477SOL    HW228329   6.966  10.248   2.062
75478SOL     OW28330  12.041   4.631   9.444
75478SOL    HW128331  12.071   4.545   9.475
75478SOL    HW228332  11.956   4.614   9.404
75479SOL     OW28333  14.324  13.837   4.370
75479SOL    HW128334  14.270  13.758   4.366
75479SOL    HW228335  14.309  13.872   4.458
75480SOL     OW28336   7.063  14.202  12.033
75480SOL    HW128337   6.997  14.267  12.057
75480SOL    HW228338   7.138  14.254  12.004
75481SOL     OW28339   0.747  12.706   1.837
75481SOL    HW128340   0.819  12.736   1.781
75481SOL    HW228341   0.750  12.764   1.913
75482SOL     OW28342   0.480  10.702  11.975
75482SOL    HW128343   0.548  10.722  12.039
75482SOL    HW228344   0.501  10.614  11.945
75483SOL     OW28345   7.993   3.369  10.513
75483SOL    HW128346   7.904   3.404  10.514
75483SOL    HW228347   8.050   3.446  10.520
75484SOL     OW28348   6.623   1.512  14.741
75484SOL    HW128349   6.617   1.442  14.676
75484SOL    HW228350   6.717   1.519  14.759
75485SOL     OW28351  12.184   6.365   6.402
75485SOL    HW128352  12.122   6.331   6.467
75485SOL    HW228353  12.243   6.421   6.453
75486SOL     OW28354   3.944   1.502   6.596
75486SOL    HW128355   3.880   1.440   6.631
75486SOL    HW228356   4.024   1.450   6.583
75487SOL     OW28357  14.157   7.142  13.402
75487SOL    HW128358  14.217   7.068  13.400
75487SOL    HW228359  14.212   7.218  13.382
75488SOL     OW28360   8.907  12.145  12.034
75488SOL    HW128361   8.849  12.069  12.033
75488SOL    HW228362   8.938  12.150  12.125
75489SOL     OW28363   7.868   2.603  10.430
75489SOL    HW128364   7.874   2.694  10.400
75489SOL    HW228365   7.817   2.559  10.362
75490SOL     OW28366   5.439  13.867   5.036
75490SOL    HW128367   5.440  13.806   4.962
75490SOL    HW228368   5.506  13.932   5.014
75491SOL     OW28369   5.851   8.948   1.419
75491SOL    HW128370   5.818   8.994   1.496
75491SOL    HW228371   5.940   8.982   1.408
75492SOL     OW28372   0.096   4.575   2.937
75492SOL    HW128373   0.127   4.662   2.963
75492SOL    HW228374   0.176   4.523   2.931
75493SOL     OW28375  11.276   0.717   4.399
75493SOL    HW128376  11.321   0.646   4.446
75493SOL    HW228377  11.329   0.732   4.321
75494SOL     OW28378   1.542   3.381  11.429
75494SOL    HW128379   1.612   3.344  11.481
75494SOL    HW228380   1.472   3.399  11.491
75495SOL     OW28381  12.158  10.777   5.775
75495SOL    HW128382  12.096  10.834   5.731
75495SOL    HW228383  12.235  10.777   5.719
75496SOL     OW28384  10.863   8.243  10.774
75496SOL    HW128385  10.797   8.180  10.802
75496SOL    HW228386  10.887   8.290  10.854
75497SOL     OW28387   9.186   7.843  14.820
75497SOL    HW128388   9.262   7.894  14.848
75497SOL    HW228389   9.174   7.778   0.007
75498SOL     OW28390   5.416  11.797   1.032
75498SOL    HW128391   5.389  11.886   1.054
75498SOL    HW228392   5.482  11.807   0.964
75499SOL     OW28393   9.551   5.037   1.403
75499SOL    HW128394   9.476   4.996   1.360
75499SOL    HW228395   9.591   4.966   1.454
75500SOL     OW28396   9.633   3.261   1.857
75500SOL    HW128397   9.576   3.326   1.815
75500SOL    HW228398   9.648   3.195   1.790
75501SOL     OW28399   0.258   9.298   8.566
75501SOL    HW128400   0.317   9.325   8.496
75501SOL    HW228401   0.171   9.316   8.532
75502SOL     OW28402  13.893   7.578   9.555
75502SOL    HW128403  13.813   7.573   9.608
75502SOL    HW228404  13.944   7.502   9.580
75503SOL     OW28405   7.437   0.909   2.150
75503SOL    HW128406   7.493   0.836   2.177
75503SOL    HW228407   7.348   0.881   2.173
75504SOL     OW28408  14.644  12.665   8.649
75504SOL    HW128409  14.706  12.641   8.580
75504SOL    HW228410  14.688  12.643   8.730
75505SOL     OW28411  12.503   0.187   4.904
75505SOL    HW128412  12.470   0.177   4.815
75505SOL    HW228413  12.523   0.098   4.932
75506SOL     OW28414   9.942  14.149   3.965
75506SOL    HW128415  10.024  14.135   3.917
75506SOL    HW228416   9.886  14.197   3.902
75507SOL     OW28417   3.120  13.796  10.337
75507SOL    HW128418   3.205  13.792  10.381
75507SOL    HW228419   3.061  13.836  10.401
75508SOL     OW28420  13.785  14.410  12.410
75508SOL    HW128421  13.787  14.431  12.503
75508SOL    HW228422  13.875  14.386  12.388
75509SOL     OW28423   7.674  13.554   8.843
75509SOL    HW128424   7.696  13.584   8.755
75509SOL    HW228425   7.584  13.583   8.857
75510SOL     OW28426   2.569   2.349   7.590
75510SOL    HW128427   2.553   2.352   7.496
75510SOL    HW228428   2.662   2.372   7.599
75511SOL     OW28429   2.644  13.262   9.171
75511SOL    HW128430   2.551  13.274   9.150
75511SOL    HW228431   2.681  13.223   9.092
75512SOL     OW28432   9.131  12.832  10.148
75512SOL    HW128433   9.042  12.861  10.127
75512SOL    HW228434   9.187  12.879  10.087
75513SOL     OW28435   1.257  14.435   0.537
75513SOL    HW128436   1.264  14.530   0.527
75513SOL    HW228437   1.347  14.406   0.557
75514SOL     OW28438  13.023   4.751  10.784
75514SOL    HW128439  13.009   4.657  10.774
75514SOL    HW228440  13.115   4.764  10.761
75515SOL     OW28441   9.362   0.137   0.170
75515SOL    HW128442   9.302   0.194   0.122
75515SOL    HW228443   9.433   0.121   0.108
75516SOL     OW28444   3.872   0.275   8.465
75516SOL    HW128445   3.921   0.328   8.527
75516SOL    HW228446   3.784   0.270   8.502
75517SOL     OW28447   9.383   7.786   9.400
75517SOL    HW128448   9.456   7.728   9.425
75517SOL    HW228449   9.392   7.797   9.306
75518SOL     OW28450   5.506   2.718  10.454
75518SOL    HW128451   5.598   2.734  10.433
75518SOL    HW228452   5.458   2.759  10.382
75519SOL     OW28453   7.613   4.525   9.223
75519SOL    HW128454   7.697   4.510   9.180
75519SOL    HW228455   7.619   4.476   9.305
75520SOL     OW28456   4.500   3.031   2.823
75520SOL    HW128457   4.473   3.060   2.735
75520SOL    HW228458   4.583   2.987   2.808
75521SOL     OW28459   7.442   1.711   5.381
75521SOL    HW128460   7.396   1.759   5.450
75521SOL    HW228461   7.420   1.758   5.301
75522SOL     OW28462   1.554   0.436   5.621
75522SOL    HW128463   1.577   0.464   5.709
75522SOL    HW228464   1.515   0.513   5.580
75523SOL     OW28465   9.194   9.817   2.975
75523SOL    HW128466   9.171   9.901   3.013
75523SOL    HW228467   9.112   9.768   2.971
75524SOL     OW28468   7.732   1.399   4.397
75524SOL    HW128469   7.710   1.486   4.429
75524SOL    HW228470   7.705   1.339   4.467
75525SOL     OW28471  12.392   0.621   0.093
75525SOL    HW128472  12.390   0.525   0.093
75525SOL    HW228473  12.475   0.643   0.050
75526SOL     OW28474   2.558   1.269  10.235
75526SOL    HW128475   2.573   1.174  10.229
75526SOL    HW228476   2.493   1.287  10.167
75527SOL     OW28477  13.005   7.318  12.234
75527SOL    HW128478  13.031   7.369  12.311
75527SOL    HW228479  13.043   7.231  12.249
75528SOL     OW28480   7.447   9.948   7.494
75528SOL    HW128481   7.390   9.979   7.424
75528SOL    HW228482   7.446   9.853   7.487
75529SOL     OW28483   3.035   3.947  10.250
75529SOL    HW128484   3.085   3.919  10.172
75529SOL    HW228485   2.989   3.868  10.278
75530SOL     OW28486  14.150   5.599   7.877
75530SOL    HW128487  14.182   5.547   7.803
75530SOL    HW228488  14.133   5.685   7.840
75531SOL     OW28489   2.671  10.652  12.990
75531SOL    HW128490   2.694  10.693  13.073
75531SOL    HW228491   2.754  10.624  12.952
75532SOL     OW28492   9.062   6.207   1.141
75532SOL    HW128493   8.969   6.204   1.120
75532SOL    HW228494   9.074   6.290   1.187
75533SOL     OW28495   5.680   2.320   5.561
75533SOL    HW128496   5.641   2.389   5.614
75533SOL    HW228497   5.746   2.281   5.618
75534SOL     OW28498  12.847   9.747   4.217
75534SOL    HW128499  12.788   9.726   4.145
75534SOL    HW228500  12.933   9.756   4.175
75535SOL     OW28501   5.539   4.953  13.635
75535SOL    HW128502   5.543   4.862  13.662
75535SOL    HW228503   5.629   4.977  13.614
75536SOL     OW28504   3.890   1.454   8.351
75536SOL    HW128505   3.837   1.523   8.390
75536SOL    HW228506   3.980   1.482   8.363
75537SOL     OW28507   2.397   5.131  13.099
75537SOL    HW128508   2.402   5.124  13.004
75537SOL    HW228509   2.488   5.141  13.128
75538SOL     OW28510  14.697   3.800  12.263
75538SOL    HW128511  14.760   3.741  12.224
75538SOL    HW228512  14.714   3.794  12.357
75539SOL     OW28513   9.310   5.838  13.771
75539SOL    HW128514   9.289   5.926  13.804
75539SOL    HW228515   9.239   5.818  13.710
75540SOL     OW28516   1.620   6.744   7.846
75540SOL    HW128517   1.532   6.782   7.844
75540SOL    HW228518   1.675   6.814   7.882
75541SOL     OW28519   1.216  13.089   4.057
75541SOL    HW128520   1.268  13.125   4.129
75541SOL    HW228521   1.235  13.147   3.983
75542SOL     OW28522  11.123   5.709   4.006
75542SOL    HW128523  11.188   5.699   3.936
75542SOL    HW228524  11.051   5.653   3.980
75543SOL     OW28525   8.238   5.402  10.999
75543SOL    HW128526   8.295   5.479  11.010
75543SOL    HW228527   8.226   5.394  10.905
75544SOL     OW28528   8.258   7.260  11.567
75544SOL    HW128529   8.304   7.187  11.525
75544SOL    HW228530   8.188   7.282  11.506
75545SOL     OW28531   6.739   3.291   6.903
75545SOL    HW128532   6.728   3.210   6.953
75545SOL    HW228533   6.722   3.264   6.812
75546SOL     OW28534  13.567   5.621   0.879
75546SOL    HW128535  13.512   5.549   0.908
75546SOL    HW228536  13.653   5.582   0.865
75547SOL     OW28537   0.070   4.677  12.116
75547SOL    HW128538   0.101   4.628  12.040
75547SOL    HW228539  14.858   4.664  12.116
75548SOL     OW28540   5.709  13.443   2.771
75548SOL    HW128541   5.648  13.472   2.839
75548SOL    HW228542   5.686  13.496   2.694
75549SOL     OW28543   9.819   1.204  11.417
75549SOL    HW128544   9.826   1.109  11.418
75549SOL    HW228545   9.909   1.235  11.422
75550SOL     OW28546   1.829  11.395   6.466
75550SOL    HW128547   1.753  11.445   6.437
75550SOL    HW228548   1.888  11.460   6.504
75551SOL     OW28549   9.261   6.630   9.787
75551SOL    HW128550   9.170   6.657   9.781
75551SOL    HW228551   9.302   6.666   9.709
75552SOL     OW28552  14.699  13.728   8.463
75552SOL    HW128553  14.684  13.800   8.524
75552SOL    HW228554  14.741  13.770   8.387
75553SOL     OW28555   8.738   1.457   5.255
75553SOL    HW128556   8.705   1.404   5.182
75553SOL    HW228557   8.664   1.512   5.279
75554SOL     OW28558   9.086   9.621   3.906
75554SOL    HW128559   9.034   9.630   3.986
75554SOL    HW228560   9.056   9.539   3.866
75555SOL     OW28561   4.464   4.007  12.837
75555SOL    HW128562   4.446   3.949  12.911
75555SOL    HW228563   4.417   3.968  12.763
75556SOL     OW28564   0.566   5.743   6.242
75556SOL    HW128565   0.598   5.653   6.255
75556SOL    HW228566   0.573   5.784   6.328
75557SOL     OW28567   9.129  11.717   3.145
75557SOL    HW128568   9.195  11.761   3.092
75557SOL    HW228569   9.124  11.628   3.109
75558SOL     OW28570  10.429  13.960   9.837
75558SOL    HW128571  10.397  13.897   9.901
75558SOL    HW228572  10.410  14.046   9.876
75559SOL     OW28573   6.377   6.049   2.358
75559SOL    HW128574   6.414   6.119   2.411
75559SOL    HW228575   6.283   6.053   2.374
75560SOL     OW28576  13.325   2.779   3.217
75560SOL    HW128577  13.308   2.854   3.160
75560SOL    HW228578  13.245   2.771   3.270
75561SOL     OW28579   0.250  12.460   3.102
75561SOL    HW128580   0.167  12.412   3.110
75561SOL    HW228581   0.313  12.408   3.153
75562SOL     OW28582  14.345   3.336   1.649
75562SOL    HW128583  14.312   3.290   1.572
75562SOL    HW228584  14.406   3.400   1.614
75563SOL     OW28585  10.974   2.638   2.689
75563SOL    HW128586  10.908   2.693   2.645
75563SOL    HW228587  10.957   2.550   2.656
75564SOL     OW28588   8.880   2.129  13.273
75564SOL    HW128589   8.864   2.036  13.287
75564SOL    HW228590   8.969   2.143  13.306
75565SOL     OW28591   3.669   7.738   9.528
75565SOL    HW128592   3.763   7.754   9.518
75565SOL    HW228593   3.627   7.812   9.485
75566SOL     OW28594  10.075   1.715   2.552
75566SOL    HW128595  10.115   1.653   2.490
75566SOL    HW228596  10.123   1.796   2.538
75567SOL     OW28597  11.982   2.188  12.513
75567SOL    HW128598  11.908   2.154  12.462
75567SOL    HW228599  12.023   2.252  12.455
75568SOL     OW28600   5.924   9.740   3.779
75568SOL    HW128601   5.956   9.806   3.841
75568SOL    HW228602   5.851   9.698   3.825
75569SOL     OW28603   6.612   5.008   2.508
75569SOL    HW128604   6.617   4.946   2.580
75569SOL    HW228605   6.693   5.059   2.513
75570SOL     OW28606  11.326  10.990   2.055
75570SOL    HW128607  11.420  10.976   2.043
75570SOL    HW228608  11.291  10.902   2.073
75571SOL     OW28609   0.634   3.504   3.609
75571SOL    HW128610   0.637   3.553   3.691
75571SOL    HW228611   0.673   3.563   3.544
75572SOL     OW28612   5.857   4.524   3.335
75572SOL    HW128613   5.777   4.473   3.323
75572SOL    HW228614   5.851   4.558   3.424
75573SOL     OW28615  14.500   8.029   0.549
75573SOL    HW128616  14.594   8.047   0.559
75573SOL    HW228617  14.483   7.960   0.613
75574SOL     OW28618   1.046   1.440   7.468
75574SOL    HW128619   0.970   1.498   7.475
75574SOL    HW228620   1.121   1.499   7.466
75575SOL     OW28621  12.883  12.230   6.510
75575SOL    HW128622  12.836  12.166   6.564
75575SOL    HW228623  12.939  12.177   6.454
75576SOL     OW28624   2.810   2.848  11.258
75576SOL    HW128625   2.866   2.773  11.271
75576SOL    HW228626   2.725   2.811  11.234
75577SOL     OW28627   9.155  13.523   4.609
75577SOL    HW128628   9.065  13.498   4.627
75577SOL    HW228629   9.179  13.581   4.680
75578SOL     OW28630   8.515   9.691   9.915
75578SOL    HW128631   8.517   9.761   9.849
75578SOL    HW228632   8.422   9.676   9.932
75579SOL     OW28633   2.579   3.556   6.035
75579SOL    HW128634   2.519   3.492   5.998
75579SOL    HW228635   2.559   3.638   5.989
75580SOL     OW28636  10.366   8.701   7.413
75580SOL    HW128637  10.349   8.636   7.481
75580SOL    HW228638  10.292   8.762   7.418
75581SOL     OW28639   5.831   2.131  12.018
75581SOL    HW128640   5.925   2.119  12.032
75581SOL    HW228641   5.799   2.164  12.102
75582SOL     OW28642  13.963   4.280   8.350
75582SOL    HW128643  14.011   4.207   8.310
75582SOL    HW228644  14.024   4.353   8.347
75583SOL     OW28645   0.260   6.651   2.278
75583SOL    HW128646   0.215   6.606   2.206
75583SOL    HW228647   0.205   6.633   2.354
75584SOL     OW28648  14.335   6.791   8.361
75584SOL    HW128649  14.331   6.866   8.421
75584SOL    HW228650  14.348   6.831   8.275
75585SOL     OW28651   8.348   1.924   3.385
75585SOL    HW128652   8.285   1.959   3.449
75585SOL    HW228653   8.313   1.839   3.361
75586SOL     OW28654   9.929   7.604  14.422
75586SOL    HW128655   9.927   7.696  14.395
75586SOL    HW228656   9.858   7.563  14.372
75587SOL     OW28657   6.404  10.868   3.595
75587SOL    HW128658   6.389  10.867   3.689
75587SOL    HW228659   6.324  10.906   3.558
75588SOL     OW28660  11.177   0.916   5.535
75588SOL    HW128661  11.215   0.903   5.622
75588SOL    HW228662  11.249   0.902   5.474
75589SOL     OW28663   9.717   0.192  14.613
75589SOL    HW128664   9.774   0.186  14.537
75589SOL    HW228665   9.774   0.222  14.684
75590SOL     OW28666   8.113  14.122   4.216
75590SOL    HW128667   8.106  14.212   4.185
75590SOL    HW228668   8.172  14.127   4.291
75591SOL     OW28669   0.596  10.112   5.459
75591SOL    HW128670   0.670  10.051   5.464
75591SOL    HW228671   0.600  10.161   5.540
75592SOL     OW28672   4.672   6.941   3.603
75592SOL    HW128673   4.758   6.978   3.586
75592SOL    HW228674   4.689   6.866   3.660
75593SOL     OW28675  13.941   9.961   3.068
75593SOL    HW128676  13.982   9.916   3.142
75593SOL    HW228677  13.985   9.926   2.991
75594SOL     OW28678   6.840  11.781   5.354
75594SOL    HW128679   6.755  11.778   5.309
75594SOL    HW228680   6.818  11.807   5.444
75595SOL     OW28681   2.968  13.445   2.660
75595SOL    HW128682   2.980  13.515   2.595
75595SOL    HW228683   3.052  13.399   2.662
75596SOL     OW28684   2.632   8.645  13.929
75596SOL    HW128685   2.725   8.651  13.950
75596SOL    HW228686   2.603   8.736  13.921
75597SOL     OW28687   6.183   9.917   1.392
75597SOL    HW128688   6.121   9.983   1.360
75597SOL    HW228689   6.132   9.836   1.397
75598SOL     OW28690   7.503  12.668   5.472
75598SOL    HW128691   7.567  12.647   5.540
75598SOL    HW228692   7.418  12.656   5.515
75599SOL     OW28693  13.428   1.490  14.878
75599SOL    HW128694  13.367   1.522   0.062
75599SOL    HW228695  13.511   1.532   0.019
75600SOL     OW28696   7.053   8.106   1.358
75600SOL    HW128697   7.132   8.157   1.379
75600SOL    HW228698   7.050   8.104   1.263
75601SOL     OW28699  14.876   6.538   5.655
75601SOL    HW128700  14.826   6.456   5.655
75601SOL    HW228701  14.839   6.589   5.583
75602SOL     OW28702   3.066   4.184   9.889
75602SOL    HW128703   3.092   4.276   9.899
75602SOL    HW228704   3.012   4.166   9.966
75603SOL     OW28705  10.732  13.570   1.583
75603SOL    HW128706  10.730  13.561   1.678
75603SOL    HW228707  10.641  13.583   1.558
75604SOL     OW28708  11.164   2.456   4.740
75604SOL    HW128709  11.231   2.490   4.680
75604SOL    HW228710  11.082   2.495   4.710
75605SOL     OW28711  14.511   0.371  10.870
75605SOL    HW128712  14.590   0.419  10.898
75605SOL    HW228713  14.470   0.428  10.805
75606SOL     OW28714   6.709   0.968  11.799
75606SOL    HW128715   6.692   1.030  11.870
75606SOL    HW228716   6.624   0.955  11.757
75607SOL     OW28717  13.564   2.358  12.478
75607SOL    HW128718  13.634   2.320  12.532
75607SOL    HW228719  13.607   2.386  12.398
75608SOL     OW28720   1.133   1.873   9.644
75608SOL    HW128721   1.060   1.917   9.688
75608SOL    HW228722   1.141   1.917   9.559
75609SOL     OW28723   9.216   5.578   3.251
75609SOL    HW128724   9.219   5.548   3.160
75609SOL    HW228725   9.127   5.556   3.280
75610SOL     OW28726   1.962   6.868   8.012
75610SOL    HW128727   1.889   6.913   7.970
75610SOL    HW228728   1.935   6.857   8.103
75611SOL     OW28729   8.561   3.147  13.092
75611SOL    HW128730   8.510   3.153  13.011
75611SOL    HW228731   8.637   3.094  13.069
75612SOL     OW28732   0.902  12.737   4.100
75612SOL    HW128733   0.898  12.643   4.114
75612SOL    HW228734   0.845  12.774   4.167
75613SOL     OW28735   3.907  14.189   3.602
75613SOL    HW128736   3.823  14.152   3.577
75613SOL    HW228737   3.890  14.283   3.612
75614SOL     OW28738   1.288   9.983   1.572
75614SOL    HW128739   1.332  10.003   1.654
75614SOL    HW228740   1.201   9.954   1.598
75615SOL     OW28741   1.191  11.374   6.423
75615SOL    HW128742   1.124  11.373   6.354
75615SOL    HW228743   1.217  11.282   6.433
75616SOL     OW28744  10.444   4.601   4.816
75616SOL    HW128745  10.513   4.612   4.751
75616SOL    HW228746  10.490   4.593   4.900
75617SOL     OW28747   7.093  14.390   2.679
75617SOL    HW128748   7.100  14.473   2.725
75617SOL    HW228749   7.184  14.361   2.668
75618SOL     OW28750  11.075   8.660   5.264
75618SOL    HW128751  11.133   8.736   5.260
75618SOL    HW228752  10.993   8.693   5.299
75619SOL     OW28753   5.360   4.019  13.214
75619SOL    HW128754   5.434   4.033  13.155
75619SOL    HW228755   5.384   4.064  13.295
75620SOL     OW28756  12.149   0.957   5.172
75620SOL    HW128757  12.125   0.948   5.080
75620SOL    HW228758  12.105   1.037   5.201
75621SOL     OW28759  10.894  12.988   9.539
75621SOL    HW128760  10.833  13.061   9.526
75621SOL    HW228761  10.979  13.023   9.514
75622SOL     OW28762   7.309  14.337   4.866
75622SOL    HW128763   7.385  14.288   4.895
75622SOL    HW228764   7.269  14.370   4.947
75623SOL     OW28765   5.703   5.531  12.245
75623SOL    HW128766   5.703   5.624  12.270
75623SOL    HW228767   5.672   5.531  12.155
75624SOL     OW28768  12.814   3.996   6.214
75624SOL    HW128769  12.887   3.942   6.244
75624SOL    HW228770  12.740   3.936   6.208
75625SOL     OW28771   0.185   4.195  14.659
75625SOL    HW128772   0.187   4.290  14.649
75625SOL    HW228773   0.127   4.165  14.588
75626SOL     OW28774  14.785   0.878   5.715
75626SOL    HW128775  14.840   0.927   5.653
75626SOL    HW228776  14.847   0.827   5.767
75627SOL     OW28777   3.059   9.374  13.008
75627SOL    HW128778   3.152   9.382  13.031
75627SOL    HW228779   3.058   9.374  12.912
75628SOL     OW28780   7.531   4.920   7.863
75628SOL    HW128781   7.490   5.006   7.870
75628SOL    HW228782   7.568   4.904   7.949
75629SOL     OW28783   1.099  11.322  11.387
75629SOL    HW128784   1.134  11.251  11.333
75629SOL    HW228785   1.011  11.337  11.351
75630SOL     OW28786   1.248   7.563   5.646
75630SOL    HW128787   1.178   7.500   5.632
75630SOL    HW228788   1.317   7.537   5.586
75631SOL     OW28789   0.554  10.695   7.310
75631SOL    HW128790   0.609  10.703   7.388
75631SOL    HW228791   0.500  10.617   7.328
75632SOL     OW28792   0.066   4.510   4.235
75632SOL    HW128793  14.874   4.474   4.284
75632SOL    HW228794   0.035   4.514   4.145
75633SOL     OW28795   5.359  11.578  10.563
75633SOL    HW128796   5.372  11.608  10.474
75633SOL    HW228797   5.290  11.634  10.598
75634SOL     OW28798   8.874  14.534   4.955
75634SOL    HW128799   8.853  14.540   4.862
75634SOL    HW228800   8.826  14.458   4.986
75635SOL     OW28801   4.276   2.311  14.297
75635SOL    HW128802   4.205   2.270  14.248
75635SOL    HW228803   4.289   2.253  14.372
75636SOL     OW28804   4.026   5.788   8.025
75636SOL    HW128805   4.020   5.786   8.121
75636SOL    HW228806   4.101   5.845   8.007
75637SOL     OW28807   1.955   9.996   9.837
75637SOL    HW128808   2.049  10.014   9.828
75637SOL    HW228809   1.939   9.998   9.931
75638SOL     OW28810  11.705  12.301   1.468
75638SOL    HW128811  11.660  12.219   1.490
75638SOL    HW228812  11.776  12.274   1.410
75639SOL     OW28813   3.450  10.539   6.743
75639SOL    HW128814   3.502  10.585   6.809
75639SOL    HW228815   3.399  10.607   6.700
75640SOL     OW28816   9.750   2.479  12.643
75640SOL    HW128817   9.820   2.414  12.654
75640SOL    HW228818   9.774   2.551  12.701
75641SOL     OW28819   1.334   1.149  13.499
75641SOL    HW128820   1.356   1.157  13.591
75641SOL    HW228821   1.406   1.099  13.461
75642SOL     OW28822   9.491   5.230   9.892
75642SOL    HW128823   9.478   5.177   9.971
75642SOL    HW228824   9.542   5.305   9.921
75643SOL     OW28825   1.109   4.077  13.603
75643SOL    HW128826   1.097   4.071  13.697
75643SOL    HW228827   1.200   4.048  13.589
75644SOL     OW28828  13.877   6.414  10.380
75644SOL    HW128829  13.953   6.376  10.335
75644SOL    HW228830  13.881   6.378  10.468
75645SOL     OW28831   0.097   4.062   1.890
75645SOL    HW128832   0.126   4.146   1.856
75645SOL    HW228833   0.075   4.011   1.811
75646SOL     OW28834   3.423   5.882   8.689
75646SOL    HW128835   3.490   5.819   8.663
75646SOL    HW228836   3.449   5.964   8.649
75647SOL     OW28837  12.902  10.625   3.484
75647SOL    HW128838  12.928  10.537   3.457
75647SOL    HW228839  12.983  10.677   3.477
75648SOL     OW28840   3.298  14.320  12.629
75648SOL    HW128841   3.394  14.329  12.634
75648SOL    HW228842   3.283  14.275  12.546
75649SOL     OW28843  10.623   6.914  10.859
75649SOL    HW128844  10.698   6.893  10.914
75649SOL    HW228845  10.558   6.847  10.880
75650SOL     OW28846  11.961   6.351   1.347
75650SOL    HW128847  11.983   6.376   1.257
75650SOL    HW228848  11.925   6.262   1.339
75651SOL     OW28849   4.892  14.188   6.386
75651SOL    HW128850   4.817  14.131   6.399
75651SOL    HW228851   4.939  14.185   6.470
75652SOL     OW28852   7.093  12.231   0.790
75652SOL    HW128853   7.014  12.260   0.745
75652SOL    HW228854   7.080  12.257   0.881
75653SOL     OW28855   9.644   8.675   7.169
75653SOL    HW128856   9.662   8.716   7.085
75653SOL    HW228857   9.731   8.649   7.202
75654SOL     OW28858   2.432   4.527   3.547
75654SOL    HW128859   2.376   4.459   3.584
75654SOL    HW228860   2.455   4.583   3.621
75655SOL     OW28861  14.093   3.110   3.247
75655SOL    HW128862  14.142   3.176   3.199
75655SOL    HW228863  14.008   3.107   3.202
75656SOL     OW28864   2.620   3.703  13.848
75656SOL    HW128865   2.625   3.625  13.903
75656SOL    HW228866   2.632   3.670  13.759
75657SOL     OW28867   1.205   5.628   7.966
75657SOL    HW128868   1.172   5.647   8.053
75657SOL    HW228869   1.279   5.688   7.955
75658SOL     OW28870  11.233   4.859  12.252
75658SOL    HW128871  11.266   4.823  12.170
75658SOL    HW228872  11.169   4.925  12.226
75659SOL     OW28873  10.683   7.470   2.822
75659SOL    HW128874  10.661   7.485   2.730
75659SOL    HW228875  10.762   7.522   2.837
75660SOL     OW28876   4.547  13.266  12.309
75660SOL    HW128877   4.604  13.266  12.232
75660SOL    HW228878   4.594  13.215  12.374
75661SOL     OW28879   2.534   1.530   6.388
75661SOL    HW128880   2.610   1.542   6.331
75661SOL    HW228881   2.505   1.619   6.408
75662SOL     OW28882   4.390  14.699  14.871
75662SOL    HW128883   4.422  14.693  14.781
75662SOL    HW228884   4.427  14.622   0.033
75663SOL     OW28885   1.544  11.407   3.402
75663SOL    HW128886   1.500  11.356   3.334
75663SOL    HW228887   1.522  11.498   3.382
75664SOL     OW28888  14.758   7.058   7.298
75664SOL    HW128889  14.687   6.995   7.294
75664SOL    HW228890  14.725   7.135   7.253
75665SOL     OW28891   5.334   6.044   7.995
75665SOL    HW128892   5.351   5.997   7.914
75665SOL    HW228893   5.318   5.975   8.060
75666SOL     OW28894  13.480  13.962   1.249
75666SOL    HW128895  13.510  13.913   1.325
75666SOL    HW228896  13.385  13.968   1.260
75667SOL     OW28897   2.039   2.864   1.131
75667SOL    HW128898   2.000   2.782   1.103
75667SOL    HW228899   1.965   2.921   1.151
75668SOL     OW28900  11.053   7.434   5.303
75668SOL    HW128901  11.130   7.484   5.328
75668SOL    HW228902  11.072   7.403   5.214
75669SOL     OW28903  10.955   1.266   2.624
75669SOL    HW128904  11.040   1.225   2.607
75669SOL    HW228905  10.973   1.360   2.619
75670SOL     OW28906   0.736  12.851   3.740
75670SOL    HW128907   0.674  12.918   3.708
75670SOL    HW228908   0.754  12.877   3.830
75671SOL     OW28909  10.414   0.113   3.207
75671SOL    HW128910  10.489   0.116   3.267
75671SOL    HW228911  10.430   0.037   3.152
75672SOL     OW28912  11.019   3.634  10.121
75672SOL    HW128913  11.040   3.608  10.031
75672SOL    HW228914  11.078   3.582  10.175
75673SOL     OW28915   4.975   4.742   7.315
75673SOL    HW128916   4.932   4.718   7.233
75673SOL    HW228917   5.055   4.688   7.316
75674SOL     OW28918  13.880  11.509   9.643
75674SOL    HW128919  13.896  11.440   9.707
75674SOL    HW228920  13.785  11.521   9.644
75675SOL     OW28921  14.062   9.020  10.955
75675SOL    HW128922  14.120   9.095  10.967
75675SOL    HW228923  14.114   8.957  10.905
75676SOL     OW28924   8.281  11.404   6.959
75676SOL    HW128925   8.257  11.332   7.018
75676SOL    HW228926   8.197  11.444   6.935
75677SOL     OW28927  14.512   8.966  12.120
75677SOL    HW128928  14.526   8.916  12.040
75677SOL    HW228929  14.479   9.050  12.090
75678SOL     OW28930   1.519  10.178   9.436
75678SOL    HW128931   1.515  10.108   9.370
75678SOL    HW228932   1.542  10.256   9.386
75679SOL     OW28933   0.547   7.013   4.186
75679SOL    HW128934   0.525   7.088   4.130
75679SOL    HW228935   0.463   6.985   4.223
75680SOL     OW28936   6.704   3.766   4.389
75680SOL    HW128937   6.696   3.838   4.452
75680SOL    HW228938   6.685   3.687   4.439
75681SOL     OW28939  12.971  11.753   1.443
75681SOL    HW128940  12.980  11.777   1.535
75681SOL    HW228941  12.971  11.837   1.397
75682SOL     OW28942   4.562   2.070   1.094
75682SOL    HW128943   4.605   2.019   1.024
75682SOL    HW228944   4.621   2.063   1.168
75683SOL     OW28945   1.848   2.650   4.469
75683SOL    HW128946   1.895   2.720   4.424
75683SOL    HW228947   1.857   2.574   4.412
75684SOL     OW28948   2.624   8.342   9.757
75684SOL    HW128949   2.567   8.419   9.751
75684SOL    HW228950   2.639   8.330   9.850
75685SOL     OW28951   5.446  13.053  10.299
75685SOL    HW128952   5.455  12.972  10.249
75685SOL    HW228953   5.516  13.049  10.364
75686SOL     OW28954   1.938   4.128  14.612
75686SOL    HW128955   1.964   4.053  14.666
75686SOL    HW228956   1.936   4.201  14.673
75687SOL     OW28957   9.440   9.286  11.792
75687SOL    HW128958   9.377   9.341  11.838
75687SOL    HW228959   9.510   9.345  11.767
75688SOL     OW28960   9.861  11.016   8.353
75688SOL    HW128961   9.826  11.019   8.442
75688SOL    HW228962   9.944  10.970   8.361
75689SOL     OW28963   3.092   2.528  14.868
75689SOL    HW128964   3.134   2.472   0.051
75689SOL    HW228965   3.011   2.557   0.028
75690SOL     OW28966   6.457  10.300   3.316
75690SOL    HW128967   6.550  10.321   3.308
75690SOL    HW228968   6.435  10.327   3.405
75691SOL     OW28969  10.291   9.238  12.361
75691SOL    HW128970  10.238   9.213  12.286
75691SOL    HW228971  10.376   9.195  12.347
75692SOL     OW28972   6.695   3.265   5.169
75692SOL    HW128973   6.700   3.258   5.264
75692SOL    HW228974   6.613   3.312   5.152
75693SOL     OW28975  13.072   2.636   3.857
75693SOL    HW128976  12.996   2.694   3.865
75693SOL    HW228977  13.050   2.576   3.786
75694SOL     OW28978   8.997   7.040  10.608
75694SOL    HW128979   9.090   7.059  10.593
75694SOL    HW228980   8.997   6.957  10.656
75695SOL     OW28981   6.530  12.621   7.568
75695SOL    HW128982   6.612  12.573   7.555
75695SOL    HW228983   6.537  12.696   7.509
75696SOL     OW28984  13.715   9.586  10.186
75696SOL    HW128985  13.699   9.529  10.111
75696SOL    HW228986  13.630   9.628  10.203
75697SOL     OW28987   9.379  10.930   1.517
75697SOL    HW128988   9.419  10.870   1.454
75697SOL    HW228989   9.313  10.877   1.562
75698SOL     OW28990  14.131   2.997   4.663
75698SOL    HW128991  14.198   2.960   4.721
75698SOL    HW228992  14.133   3.091   4.681
75699SOL     OW28993  11.653   2.751   0.724
75699SOL    HW128994  11.635   2.807   0.648
75699SOL    HW228995  11.710   2.683   0.690
75700SOL     OW28996  14.641   7.194  14.094
75700SOL    HW128997  14.552   7.176  14.065
75700SOL    HW228998  14.665   7.119  14.148
75701SOL     OW28999  10.298   2.813   6.166
75701SOL    HW129000  10.267   2.763   6.091
75701SOL    HW229001  10.271   2.761   6.242
75702SOL     OW29002   9.341   8.289   2.977
75702SOL    HW129003   9.399   8.273   2.902
75702SOL    HW229004   9.308   8.378   2.962
75703SOL     OW29005  14.176  13.496  13.042
75703SOL    HW129006  14.186  13.554  13.118
75703SOL    HW229007  14.096  13.528  13.000
75704SOL     OW29008   0.281  10.145  14.260
75704SOL    HW129009   0.330  10.193  14.326
75704SOL    HW229010   0.321  10.058  14.258
75705SOL     OW29011   7.408   2.499  13.365
75705SOL    HW129012   7.381   2.407  13.369
75705SOL    HW229013   7.475   2.501  13.296
75706SOL     OW29014   7.097   2.810  10.644
75706SOL    HW129015   7.123   2.760  10.567
75706SOL    HW229016   7.031   2.756  10.687
75707SOL     OW29017   9.458   7.809   5.263
75707SOL    HW129018   9.420   7.805   5.175
75707SOL    HW229019   9.537   7.862   5.253
75708SOL     OW29020  13.859   5.793  11.642
75708SOL    HW129021  13.876   5.727  11.709
75708SOL    HW229022  13.841   5.743  11.563
75709SOL     OW29023   5.136  12.259   2.873
75709SOL    HW129024   5.111  12.247   2.965
75709SOL    HW229025   5.222  12.217   2.866
75710SOL     OW29026   1.112   8.049   6.619
75710SOL    HW129027   1.026   8.044   6.579
75710SOL    HW229028   1.124   8.143   6.638
75711SOL     OW29029  14.693  11.364   8.653
75711SOL    HW129030  14.640  11.285   8.650
75711SOL    HW229031  14.694  11.389   8.745
75712SOL     OW29032   8.219   8.428   7.353
75712SOL    HW129033   8.183   8.361   7.294
75712SOL    HW229034   8.150   8.494   7.358
75713SOL     OW29035  13.711  11.458   9.317
75713SOL    HW129036  13.705  11.518   9.391
75713SOL    HW229037  13.752  11.380   9.353
75714SOL     OW29038   2.076   5.408   6.566
75714SOL    HW129039   2.017   5.422   6.492
75714SOL    HW229040   2.123   5.490   6.575
75715SOL     OW29041  11.880   6.432   2.546
75715SOL    HW129042  11.806   6.475   2.501
75715SOL    HW229043  11.958   6.466   2.501
75716SOL     OW29044   8.243   2.465  10.860
75716SOL    HW129045   8.194   2.383  10.849
75716SOL    HW229046   8.175   2.531  10.877
75717SOL     OW29047   4.813   0.221   5.823
75717SOL    HW129048   4.847   0.269   5.898
75717SOL    HW229049   4.728   0.188   5.852
75718SOL     OW29050   8.442   2.879   7.185
75718SOL    HW129051   8.492   2.797   7.182
75718SOL    HW229052   8.506   2.946   7.208
75719SOL     OW29053   2.777   8.496  10.701
75719SOL    HW129054   2.824   8.412  10.706
75719SOL    HW229055   2.712   8.482  10.631
75720SOL     OW29056  10.433  11.856   5.482
75720SOL    HW129057  10.477  11.912   5.417
75720SOL    HW229058  10.383  11.917   5.536
75721SOL     OW29059  11.241   3.701   2.683
75721SOL    HW129060  11.234   3.693   2.778
75721SOL    HW229061  11.298   3.628   2.658
75722SOL     OW29062   7.971  10.333   3.992
75722SOL    HW129063   7.906  10.282   3.944
75722SOL    HW229064   8.018  10.268   4.045
75723SOL     OW29065  10.421  12.417   7.602
75723SOL    HW129066  10.348  12.476   7.620
75723SOL    HW229067  10.423  12.410   7.506
75724SOL     OW29068  10.764   4.458   3.569
75724SOL    HW129069  10.786   4.546   3.598
75724SOL    HW229070  10.710   4.470   3.491
75725SOL     OW29071   2.548   2.310   9.591
75725SOL    HW129072   2.530   2.250   9.519
75725SOL    HW229073   2.598   2.257   9.654
75726SOL     OW29074  10.574   8.599   0.892
75726SOL    HW129075  10.658   8.554   0.903
75726SOL    HW229076  10.588   8.656   0.816
75727SOL     OW29077   7.314  13.446   4.762
75727SOL    HW129078   7.325  13.435   4.668
75727SOL    HW229079   7.222  13.473   4.772
75728SOL     OW29080   2.315  11.483   6.519
75728SOL    HW129081   2.267  11.512   6.441
75728SOL    HW229082   2.406  11.476   6.490
75729SOL     OW29083   5.865  14.342   6.406
75729SOL    HW129084   5.886  14.395   6.482
75729SOL    HW229085   5.842  14.256   6.442
75730SOL     OW29086  11.456   3.912   0.393
75730SOL    HW129087  11.456   3.972   0.467
75730SOL    HW229088  11.469   3.826   0.433
75731SOL     OW29089   9.429   7.436   4.216
75731SOL    HW129090   9.467   7.384   4.145
75731SOL    HW229091   9.505   7.468   4.265
75732SOL     OW29092  12.194   3.221   5.071
75732SOL    HW129093  12.151   3.197   4.989
75732SOL    HW229094  12.122   3.252   5.127
75733SOL     OW29095   5.997  14.020   3.144
75733SOL    HW129096   5.948  13.955   3.093
75733SOL    HW229097   5.977  14.103   3.102
75734SOL     OW29098  10.143  11.003   0.910
75734SOL    HW129099  10.223  11.031   0.954
75734SOL    HW229100  10.147  11.045   0.824
75735SOL     OW29101   5.857  10.810   0.963
75735SOL    HW129102   5.897  10.794   1.048
75735SOL    HW229103   5.796  10.882   0.979
75736SOL     OW29104  11.643   8.280   6.757
75736SOL    HW129105  11.602   8.314   6.678
75736SOL    HW229106  11.636   8.351   6.820
75737SOL     OW29107   2.663  12.207   6.988
75737SOL    HW129108   2.694  12.121   7.015
75737SOL    HW229109   2.741  12.262   6.983
75738SOL     OW29110   8.981   9.869  12.508
75738SOL    HW129111   8.942   9.830  12.430
75738SOL    HW229112   8.991   9.796  12.569
75739SOL     OW29113   3.391   5.059   2.430
75739SOL    HW129114   3.321   5.119   2.456
75739SOL    HW229115   3.395   4.996   2.502
75740SOL     OW29116   0.834  13.498   9.380
75740SOL    HW129117   0.821  13.404   9.363
75740SOL    HW229118   0.898  13.526   9.315
75741SOL     OW29119   5.008   6.880   8.442
75741SOL    HW129120   5.008   6.901   8.535
75741SOL    HW229121   5.002   6.785   8.438
75742SOL     OW29122  12.149  12.566  10.472
75742SOL    HW129123  12.126  12.482  10.433
75742SOL    HW229124  12.150  12.628  10.399
75743SOL     OW29125   6.310   9.157   7.735
75743SOL    HW129126   6.276   9.115   7.814
75743SOL    HW229127   6.384   9.211   7.766
75744SOL     OW29128   5.607   0.627   4.491
75744SOL    HW129129   5.551   0.702   4.472
75744SOL    HW229130   5.556   0.573   4.552
75745SOL     OW29131  12.282   0.090  14.862
75745SOL    HW129132  12.308   0.176  14.830
75745SOL    HW229133  12.200   0.070  14.815
75746SOL     OW29134   2.299  10.720   0.641
75746SOL    HW129135   2.303  10.684   0.552
75746SOL    HW229136   2.388  10.752   0.658
75747SOL     OW29137  13.537   0.322   3.982
75747SOL    HW129138  13.572   0.409   3.961
75747SOL    HW229139  13.460   0.339   4.036
75748SOL     OW29140   6.160   9.908   3.051
75748SOL    HW129141   6.227   9.931   3.116
75748SOL    HW229142   6.198   9.835   3.002
75749SOL     OW29143  12.640   9.517  10.109
75749SOL    HW129144  12.630   9.491  10.017
75749SOL    HW229145  12.668   9.608  10.106
75750SOL     OW29146   7.635  13.242  14.320
75750SOL    HW129147   7.643  13.225  14.226
75750SOL    HW229148   7.605  13.159  14.357
75751SOL     OW29149   9.529  12.569   4.866
75751SOL    HW129150   9.466  12.638   4.847
75751SOL    HW229151   9.523  12.510   4.791
75752SOL     OW29152   4.012  11.065  10.804
75752SOL    HW129153   4.015  11.047  10.898
75752SOL    HW229154   4.048  10.985  10.764
75753SOL     OW29155   7.606   9.003   1.293
75753SOL    HW129156   7.697   8.983   1.270
75753SOL    HW229157   7.588   9.086   1.250
75754SOL     OW29158  12.983  13.049   5.847
75754SOL    HW129159  12.930  12.973   5.823
75754SOL    HW229160  13.039  13.019   5.917
75755SOL     OW29161   2.513   3.774   3.380
75755SOL    HW129162   2.557   3.754   3.463
75755SOL    HW229163   2.569   3.735   3.313
75756SOL     OW29164   5.198   0.172   3.086
75756SOL    HW129165   5.289   0.171   3.056
75756SOL    HW229166   5.147   0.165   3.005
75757SOL     OW29167   1.536   7.202   3.703
75757SOL    HW129168   1.507   7.158   3.784
75757SOL    HW229169   1.520   7.295   3.719
75758SOL     OW29170   0.535   7.873   6.244
75758SOL    HW129171   0.517   7.962   6.215
75758SOL    HW229172   0.450   7.829   6.241
75759SOL     OW29173   7.754  10.103   8.183
75759SOL    HW129174   7.670  10.057   8.180
75759SOL    HW229175   7.768  10.133   8.093
75760SOL     OW29176   2.267  10.357  13.994
75760SOL    HW129177   2.332  10.380  13.928
75760SOL    HW229178   2.191  10.328  13.943
75761SOL     OW29179   9.026   5.136   7.300
75761SOL    HW129180   8.949   5.099   7.256
75761SOL    HW229181   9.030   5.226   7.269
75762SOL     OW29182   5.895   3.968  11.102
75762SOL    HW129183   5.823   3.997  11.045
75762SOL    HW229184   5.852   3.924  11.175
75763SOL     OW29185  10.237  14.596   4.659
75763SOL    HW129186  10.310  14.650   4.630
75763SOL    HW229187  10.270  14.506   4.654
75764SOL     OW29188  10.226   6.523   3.990
75764SOL    HW129189  10.248   6.499   4.080
75764SOL    HW229190  10.170   6.451   3.959
75765SOL     OW29191  13.917   2.649  11.822
75765SOL    HW129192  13.941   2.716  11.885
75765SOL    HW229193  13.856   2.693  11.763
75766SOL     OW29194   1.645   6.963   0.992
75766SOL    HW129195   1.569   6.956   0.934
75766SOL    HW229196   1.695   7.038   0.957
75767SOL     OW29197   1.273   6.578   0.717
75767SOL    HW129198   1.216   6.631   0.661
75767SOL    HW229199   1.288   6.497   0.667
75768SOL     OW29200   4.271  11.840   6.258
75768SOL    HW129201   4.341  11.775   6.246
75768SOL    HW229202   4.288  11.878   6.344
75769SOL     OW29203   7.541  12.558   4.485
75769SOL    HW129204   7.605  12.610   4.435
75769SOL    HW229205   7.523  12.483   4.429
75770SOL     OW29206   4.993  10.537  13.176
75770SOL    HW129207   5.022  10.534  13.085
75770SOL    HW229208   5.048  10.473  13.221
75771SOL     OW29209   0.113  13.909   0.961
75771SOL    HW129210   0.184  13.860   1.003
75771SOL    HW229211   0.069  13.844   0.906
75772SOL     OW29212   9.909  10.621   2.096
75772SOL    HW129213   9.892  10.709   2.064
75772SOL    HW229214   9.944  10.633   2.184
75773SOL     OW29215   6.892   4.902   9.046
75773SOL    HW129216   6.876   4.981   8.994
75773SOL    HW229217   6.859   4.830   8.991
75774SOL     OW29218   2.057   6.801   2.479
75774SOL    HW129219   2.145   6.839   2.479
75774SOL    HW229220   2.016   6.836   2.558
75775SOL     OW29221  10.351  12.176   2.746
75775SOL    HW129222  10.436  12.133   2.742
75775SOL    HW229223  10.343  12.221   2.661
75776SOL     OW29224   2.862   1.927  13.713
75776SOL    HW129225   2.833   2.017  13.695
75776SOL    HW229226   2.957   1.935  13.725
75777SOL     OW29227   3.450   9.096   6.911
75777SOL    HW129228   3.498   9.014   6.926
75777SOL    HW229229   3.506   9.144   6.850
75778SOL     OW29230   4.683   7.116   6.991
75778SOL    HW129231   4.757   7.056   6.987
75778SOL    HW229232   4.680   7.157   6.905
75779SOL     OW29233   6.346  11.957   7.101
75779SOL    HW129234   6.288  11.881   7.099
75779SOL    HW229235   6.411  11.936   7.168
75780SOL     OW29236   0.910  12.508   2.935
75780SOL    HW129237   0.961  12.431   2.958
75780SOL    HW229238   0.819  12.481   2.947
75781SOL     OW29239  11.647   5.434  10.140
75781SOL    HW129240  11.589   5.459  10.212
75781SOL    HW229241  11.640   5.506  10.077
75782SOL     OW29242   4.432  14.740  12.333
75782SOL    HW129243   4.493  14.669  12.314
75782SOL    HW229244   4.359  14.725  12.273
75783SOL     OW29245   9.833   2.618   9.280
75783SOL    HW129246   9.758   2.671   9.253
75783SOL    HW229247   9.808   2.583   9.366
75784SOL     OW29248   9.329  14.833  14.374
75784SOL    HW129249   9.268  14.879  14.432
75784SOL    HW229250   9.414  14.845  14.415
75785SOL     OW29251   6.207   5.038   1.106
75785SOL    HW129252   6.210   4.943   1.094
75785SOL    HW229253   6.136   5.051   1.170
75786SOL     OW29254   5.555   2.189   9.431
75786SOL    HW129255   5.493   2.229   9.492
75786SOL    HW229256   5.532   2.228   9.346
75787SOL     OW29257  11.667   2.943   9.040
75787SOL    HW129258  11.650   3.035   9.060
75787SOL    HW229259  11.756   2.927   9.069
75788SOL     OW29260   4.988   1.056   1.846
75788SOL    HW129261   4.958   0.968   1.867
75788SOL    HW229262   4.981   1.062   1.751
75789SOL     OW29263   5.876  14.000  10.976
75789SOL    HW129264   5.900  13.920  10.928
75789SOL    HW229265   5.840  14.058  10.909
75790SOL     OW29266   5.778  12.057   4.711
75790SOL    HW129267   5.698  12.081   4.758
75790SOL    HW229268   5.814  12.140   4.681
75791SOL     OW29269   0.348   6.839   5.395
75791SOL    HW129270   0.282   6.846   5.464
75791SOL    HW229271   0.403   6.916   5.405
75792SOL     OW29272   5.641   8.650  14.051
75792SOL    HW129273   5.725   8.628  14.009
75792SOL    HW229274   5.635   8.590  14.125
75793SOL     OW29275   3.834   2.902   2.078
75793SOL    HW129276   3.885   2.965   2.129
75793SOL    HW229277   3.890   2.824   2.074
75794SOL     OW29278  14.186  10.484   9.845
75794SOL    HW129279  14.164  10.550   9.779
75794SOL    HW229280  14.190  10.402   9.796
75795SOL     OW29281   7.521  10.362   4.136
75795SOL    HW129282   7.589  10.422   4.107
75795SOL    HW229283   7.465  10.414   4.193
75796SOL     OW29284   9.377   3.016   8.520
75796SOL    HW129285   9.402   3.094   8.470
75796SOL    HW229286   9.460   2.980   8.551
75797SOL     OW29287   2.013   5.673  14.764
75797SOL    HW129288   2.079   5.731  14.725
75797SOL    HW229289   2.042   5.585  14.740
75798SOL     OW29290   7.624   5.584   2.204
75798SOL    HW129291   7.598   5.494   2.224
75798SOL    HW229292   7.645   5.623   2.289
75799SOL     OW29293   9.597   8.588   5.432
75799SOL    HW129294   9.598   8.668   5.380
75799SOL    HW229295   9.646   8.525   5.379
75800SOL     OW29296   3.176   1.366   2.019
75800SOL    HW129297   3.110   1.421   1.978
75800SOL    HW229298   3.260   1.404   1.992
75801SOL     OW29299  11.123  10.466   6.511
75801SOL    HW129300  11.179  10.408   6.459
75801SOL    HW229301  11.175  10.485   6.590
75802SOL     OW29302   0.339   0.211  12.062
75802SOL    HW129303   0.435   0.213  12.067
75802SOL    HW229304   0.313   0.154  12.134
75803SOL     OW29305   1.182   1.029   5.442
75803SOL    HW129306   1.117   0.959   5.431
75803SOL    HW229307   1.267   0.985   5.433
75804SOL     OW29308   9.371  13.943   5.994
75804SOL    HW129309   9.444  14.004   6.003
75804SOL    HW229310   9.333  13.937   6.081
75805SOL     OW29311  12.087  10.040   6.906
75805SOL    HW129312  12.113   9.960   6.951
75805SOL    HW229313  12.070  10.103   6.976
75806SOL     OW29314   8.422   2.387   9.465
75806SOL    HW129315   8.331   2.418   9.470
75806SOL    HW229316   8.417   2.311   9.407
75807SOL     OW29317   0.333   1.269  11.678
75807SOL    HW129318   0.367   1.251  11.590
75807SOL    HW229319   0.264   1.204  11.690
75808SOL     OW29320   0.514   5.906   7.605
75808SOL    HW129321   0.528   5.990   7.562
75808SOL    HW229322   0.602   5.877   7.630
75809SOL     OW29323   6.830   0.814  11.611
75809SOL    HW129324   6.761   0.765  11.566
75809SOL    HW229325   6.784   0.864  11.678
75810SOL     OW29326   1.626   8.279   4.212
75810SOL    HW129327   1.539   8.250   4.183
75810SOL    HW229328   1.608   8.337   4.286
75811SOL     OW29329   8.054  12.490   3.889
75811SOL    HW129330   8.094  12.419   3.939
75811SOL    HW229331   8.099  12.489   3.805
75812SOL     OW29332  10.866   2.168   2.215
75812SOL    HW129333  10.805   2.206   2.152
75812SOL    HW229334  10.834   2.079   2.229
75813SOL     OW29335   6.719  12.380   8.708
75813SOL    HW129336   6.678  12.332   8.636
75813SOL    HW229337   6.677  12.466   8.707
75814SOL     OW29338  13.284  14.298   5.558
75814SOL    HW129339  13.342  14.222   5.567
75814SOL    HW229340  13.344  14.373   5.554
75815SOL     OW29341   2.519   9.511   4.952
75815SOL    HW129342   2.449   9.506   5.017
75815SOL    HW229343   2.545   9.603   4.952
75816SOL     OW29344   3.287  11.152  10.893
75816SOL    HW129345   3.290  11.074  10.949
75816SOL    HW229346   3.262  11.223  10.951
75817SOL     OW29347   7.799   1.997  10.559
75817SOL    HW129348   7.820   1.989  10.652
75817SOL    HW229349   7.863   1.940  10.516
75818SOL     OW29350  12.441   0.997   7.959
75818SOL    HW129351  12.355   0.975   7.995
75818SOL    HW229352  12.501   0.994   8.034
75819SOL     OW29353   0.688   7.255   7.915
75819SOL    HW129354   0.688   7.313   7.991
75819SOL    HW229355   0.676   7.313   7.840
75820SOL     OW29356   1.048  10.025   2.500
75820SOL    HW129357   1.048   9.932   2.476
75820SOL    HW229358   1.112  10.032   2.570
75821SOL     OW29359   0.172   1.281   1.107
75821SOL    HW129360   0.202   1.364   1.070
75821SOL    HW229361   0.142   1.304   1.195
75822SOL     OW29362   2.480   9.214   1.094
75822SOL    HW129363   2.565   9.222   1.052
75822SOL    HW229364   2.438   9.139   1.051
75823SOL     OW29365   6.409   8.796   6.623
75823SOL    HW129366   6.439   8.854   6.693
75823SOL    HW229367   6.340   8.845   6.579
75824SOL     OW29368   7.170   1.107  14.244
75824SOL    HW129369   7.243   1.129  14.301
75824SOL    HW229370   7.101   1.169  14.269
75825SOL     OW29371  13.687  13.458   4.139
75825SOL    HW129372  13.616  13.463   4.074
75825SOL    HW229373  13.687  13.367   4.168
75826SOL     OW29374   2.306  11.880   4.095
75826SOL    HW129375   2.367  11.952   4.107
75826SOL    HW229376   2.333  11.814   4.159
75827SOL     OW29377   3.227  14.140   7.923
75827SOL    HW129378   3.268  14.085   7.856
75827SOL    HW229379   3.264  14.227   7.908
75828SOL     OW29380   8.668  12.798  13.546
75828SOL    HW129381   8.632  12.759  13.467
75828SOL    HW229382   8.638  12.741  13.617
75829SOL     OW29383   6.908   0.363   3.581
75829SOL    HW129384   6.919   0.361   3.486
75829SOL    HW229385   6.963   0.436   3.611
75830SOL     OW29386   8.490   4.453  11.713
75830SOL    HW129387   8.539   4.394  11.770
75830SOL    HW229388   8.550   4.526  11.698
75831SOL     OW29389  12.367   5.412   9.856
75831SOL    HW129390  12.426   5.486   9.845
75831SOL    HW229391  12.346   5.384   9.767
75832SOL     OW29392  14.882  12.483   7.601
75832SOL    HW129393   0.072  12.444   7.649
75832SOL    HW229394  14.808  12.479   7.660
75833SOL     OW29395  10.691   4.640   2.897
75833SOL    HW129396  10.749   4.598   2.961
75833SOL    HW229397  10.608   4.651   2.944
75834SOL     OW29398   0.559  12.248   9.819
75834SOL    HW129399   0.633  12.233   9.760
75834SOL    HW229400   0.579  12.331   9.863
75835SOL     OW29401   9.033   3.008  13.333
75835SOL    HW129402   8.986   2.961  13.401
75835SOL    HW229403   9.029   2.950  13.257
75836SOL     OW29404   5.058   9.777   8.615
75836SOL    HW129405   4.979   9.763   8.667
75836SOL    HW229406   5.097   9.689   8.607
75837SOL     OW29407  10.647   4.104   5.892
75837SOL    HW129408  10.607   4.027   5.852
75837SOL    HW229409  10.623   4.177   5.835
75838SOL     OW29410   5.793  14.064   3.356
75838SOL    HW129411   5.856  14.080   3.286
75838SOL    HW229412   5.710  14.048   3.310
75839SOL     OW29413   0.290  12.546   5.815
75839SOL    HW129414   0.217  12.563   5.874
75839SOL    HW229415   0.340  12.477   5.858
75840SOL     OW29416  11.659   0.651   9.739
75840SOL    HW129417  11.710   0.731   9.746
75840SOL    HW229418  11.574   0.672   9.776
75841SOL     OW29419   9.361  14.514  11.101
75841SOL    HW129420   9.351  14.456  11.025
75841SOL    HW229421   9.388  14.598  11.064
75842SOL     OW29422   1.907   0.399   5.882
75842SOL    HW129423   1.846   0.470   5.905
75842SOL    HW229424   1.924   0.354   5.964
75843SOL     OW29425   2.060  11.485   8.630
75843SOL    HW129426   1.969  11.497   8.603
75843SOL    HW229427   2.072  11.547   8.701
75844SOL     OW29428  10.231   3.012   2.097
75844SOL    HW129429  10.296   3.079   2.117
75844SOL    HW229430  10.260   2.975   2.013
75845SOL     OW29431   8.466  13.634   4.929
75845SOL    HW129432   8.480  13.542   4.908
75845SOL    HW229433   8.408  13.633   5.005
75846SOL     OW29434   7.746   1.591   9.669
75846SOL    HW129435   7.836   1.581   9.638
75846SOL    HW229436   7.740   1.534   9.746
75847SOL     OW29437   3.444  12.477   2.569
75847SOL    HW129438   3.449  12.425   2.489
75847SOL    HW229439   3.463  12.415   2.640
75848SOL     OW29440   8.611   7.143   8.885
75848SOL    HW129441   8.673   7.078   8.918
75848SOL    HW229442   8.626   7.221   8.940
75849SOL     OW29443  13.868  11.778  14.845
75849SOL    HW129444  13.939  11.748   0.020
75849SOL    HW229445  13.797  11.716  14.860
75850SOL     OW29446   7.145  13.541   9.439
75850SOL    HW129447   7.153  13.583   9.525
75850SOL    HW229448   7.153  13.613   9.376
75851SOL     OW29449  10.397   9.530   2.821
75851SOL    HW129450  10.398   9.618   2.782
75851SOL    HW229451  10.430   9.473   2.751
75852SOL     OW29452   0.884  11.049   7.487
75852SOL    HW129453   0.954  10.985   7.475
75852SOL    HW229454   0.927  11.134   7.480
75853SOL     OW29455   5.180   2.231   5.040
75853SOL    HW129456   5.157   2.166   5.106
75853SOL    HW229457   5.208   2.179   4.964
75854SOL     OW29458   4.523  14.837   1.874
75854SOL    HW129459   4.607  14.854   1.832
75854SOL    HW229460   4.470  14.795   1.807
75855SOL     OW29461  12.936   7.546   1.849
75855SOL    HW129462  12.856   7.591   1.878
75855SOL    HW229463  12.969   7.502   1.927
75856SOL     OW29464   0.420   9.597  12.234
75856SOL    HW129465   0.339   9.612  12.283
75856SOL    HW229466   0.468   9.534  12.287
75857SOL     OW29467   4.410   9.939  10.634
75857SOL    HW129468   4.412   9.854  10.679
75857SOL    HW229469   4.380  10.001  10.701
75858SOL     OW29470  14.751   7.070   5.133
75858SOL    HW129471  14.692   7.090   5.061
75858SOL    HW229472  14.819   7.136   5.128
75859SOL     OW29473   5.699  11.421   5.773
75859SOL    HW129474   5.743  11.422   5.858
75859SOL    HW229475   5.613  11.461   5.790
75860SOL     OW29476   7.618  14.788   9.409
75860SOL    HW129477   7.523  14.773   9.402
75860SOL    HW229478   7.630  14.879   9.381
75861SOL     OW29479  13.341  10.363   8.893
75861SOL    HW129480  13.247  10.360   8.876
75861SOL    HW229481  13.353  10.438   8.951
75862SOL     OW29482   7.911   2.288  11.065
75862SOL    HW129483   7.888   2.238  10.987
75862SOL    HW229484   7.989   2.246  11.099
75863SOL     OW29485  12.414   9.176   8.239
75863SOL    HW129486  12.390   9.230   8.314
75863SOL    HW229487  12.460   9.101   8.277
75864SOL     OW29488  13.402   2.136   9.417
75864SOL    HW129489  13.464   2.186   9.364
75864SOL    HW229490  13.449   2.056   9.440
75865SOL     OW29491  10.122   9.262   4.048
75865SOL    HW129492  10.044   9.264   4.102
75865SOL    HW229493  10.148   9.354   4.039
75866SOL     OW29494   0.020   7.658   7.050
75866SOL    HW129495  14.818   7.700   7.069
75866SOL    HW229496   0.036   7.601   7.125
75867SOL     OW29497  10.937   4.600   2.331
75867SOL    HW129498  10.885   4.678   2.314
75867SOL    HW229499  10.873   4.533   2.355
75868SOL     OW29500   0.774   2.877   6.616
75868SOL    HW129501   0.783   2.850   6.524
75868SOL    HW229502   0.793   2.971   6.614
75869SOL     OW29503   0.030   8.435  12.122
75869SOL    HW129504   0.070   8.497  12.061
75869SOL    HW229505  14.818   8.452  12.117
75870SOL     OW29506   7.830  13.226   3.494
75870SOL    HW129507   7.854  13.283   3.567
75870SOL    HW229508   7.882  13.147   3.508
75871SOL     OW29509  11.944   9.363  14.054
75871SOL    HW129510  11.883   9.425  14.093
75871SOL    HW229511  12.028   9.380  14.098
75872SOL     OW29512   4.803  12.282   4.397
75872SOL    HW129513   4.878  12.272   4.455
75872SOL    HW229514   4.727  12.286   4.455
75873SOL     OW29515   7.285   1.245   7.161
75873SOL    HW129516   7.272   1.152   7.142
75873SOL    HW229517   7.370   1.266   7.122
75874SOL     OW29518  12.847   4.920   5.497
75874SOL    HW129519  12.846   4.836   5.452
75874SOL    HW229520  12.761   4.926   5.540
75875SOL     OW29521   5.994   8.719   2.880
75875SOL    HW129522   5.961   8.728   2.790
75875SOL    HW229523   6.086   8.697   2.869
75876SOL     OW29524   8.016  12.218   9.148
75876SOL    HW129525   7.928  12.253   9.132
75876SOL    HW229526   8.002  12.126   9.168
75877SOL     OW29527  14.590  12.347   8.621
75877SOL    HW129528  14.509  12.356   8.671
75877SOL    HW229529  14.659  12.348   8.688
75878SOL     OW29530   3.999   3.392   0.710
75878SOL    HW129531   4.014   3.380   0.803
75878SOL    HW229532   4.079   3.359   0.668
75879SOL     OW29533   2.757   5.195   8.195
75879SOL    HW129534   2.729   5.221   8.107
75879SOL    HW229535   2.742   5.100   8.198
75880SOL     OW29536  10.552   3.856   5.869
75880SOL    HW129537  10.624   3.796   5.889
75880SOL    HW229538  10.475   3.800   5.859
75881SOL     OW29539  10.119   7.510  13.936
75881SOL    HW129540  10.175   7.582  13.968
75881SOL    HW229541  10.036   7.553  13.913
75882SOL     OW29542  10.978   1.835   4.763
75882SOL    HW129543  10.942   1.811   4.677
75882SOL    HW229544  10.961   1.929   4.771
75883SOL     OW29545  11.330  11.199   2.845
75883SOL    HW129546  11.386  11.122   2.838
75883SOL    HW229547  11.241  11.164   2.840
75884SOL     OW29548   6.010   3.415   1.248
75884SOL    HW129549   5.938   3.478   1.238
75884SOL    HW229550   6.083   3.468   1.280
75885SOL     OW29551   3.515   0.267   6.948
75885SOL    HW129552   3.437   0.286   6.895
75885SOL    HW229553   3.573   0.341   6.933
75886SOL     OW29554   9.782   4.492   7.584
75886SOL    HW129555   9.695   4.472   7.617
75886SOL    HW229556   9.767   4.551   7.510
75887SOL     OW29557   0.162  13.003   2.414
75887SOL    HW129558   0.183  12.925   2.363
75887SOL    HW229559   0.111  12.969   2.488
75888SOL     OW29560   4.352   4.459   1.293
75888SOL    HW129561   4.353   4.497   1.381
75888SOL    HW229562   4.278   4.398   1.293
75889SOL     OW29563   9.620  11.582   7.223
75889SOL    HW129564   9.701  11.630   7.243
75889SOL    HW229565   9.585  11.625   7.145
75890SOL     OW29566   7.298   7.067  11.742
75890SOL    HW129567   7.376   7.098  11.697
75890SOL    HW229568   7.225   7.097  11.688
75891SOL     OW29569  13.015   0.827  11.836
75891SOL    HW129570  13.089   0.804  11.893
75891SOL    HW229571  12.997   0.918  11.855
75892SOL     OW29572  10.028   7.498   6.343
75892SOL    HW129573   9.990   7.511   6.430
75892SOL    HW229574   9.993   7.414   6.314
75893SOL     OW29575  13.625   0.183   1.686
75893SOL    HW129576  13.592   0.161   1.773
75893SOL    HW229577  13.626   0.100   1.639
75894SOL     OW29578   4.791   4.569   5.568
75894SOL    HW129579   4.702   4.532   5.570
75894SOL    HW229580   4.779   4.660   5.598
75895SOL     OW29581  11.820   4.196  12.225
75895SOL    HW129582  11.755   4.217  12.292
75895SOL    HW229583  11.792   4.112  12.189
75896SOL     OW29584   8.820   7.214   4.799
75896SOL    HW129585   8.738   7.178   4.832
75896SOL    HW229586   8.795   7.293   4.752
75897SOL     OW29587  13.848  10.688   9.285
75897SOL    HW129588  13.936  10.652   9.296
75897SOL    HW229589  13.847  10.764   9.343
75898SOL     OW29590   3.488  12.271   2.735
75898SOL    HW129591   3.530  12.262   2.820
75898SOL    HW229592   3.530  12.206   2.680
75899SOL     OW29593   7.327   0.422  14.742
75899SOL    HW129594   7.260   0.465  14.795
75899SOL    HW229595   7.406   0.473  14.756
75900SOL     OW29596   5.149  11.290   3.402
75900SOL    HW129597   5.098  11.323   3.328
75900SOL    HW229598   5.116  11.201   3.417
75901SOL     OW29599  13.002   3.815  14.078
75901SOL    HW129600  13.041   3.875  14.141
75901SOL    HW229601  12.908   3.819  14.095
75902SOL     OW29602  13.614  14.644   6.449
75902SOL    HW129603  13.568  14.621   6.529
75902SOL    HW229604  13.657  14.727   6.469
75903SOL     OW29605   6.965   8.302   6.388
75903SOL    HW129606   6.989   8.388   6.356
75903SOL    HW229607   6.910   8.319   6.465
75904SOL     OW29608  10.052  11.520   6.751
75904SOL    HW129609  10.040  11.567   6.669
75904SOL    HW229610   9.966  11.522   6.793
75905SOL     OW29611   8.934   6.970   2.794
75905SOL    HW129612   8.978   6.899   2.842
75905SOL    HW229613   8.853   6.984   2.843
75906SOL     OW29614   2.223   2.187   4.132
75906SOL    HW129615   2.280   2.175   4.056
75906SOL    HW229616   2.259   2.128   4.198
75907SOL     OW29617   7.611  13.001   8.110
75907SOL    HW129618   7.616  13.087   8.151
75907SOL    HW229619   7.534  12.960   8.148
75908SOL     OW29620   8.577   3.635   0.137
75908SOL    HW129621   8.506   3.665   0.080
75908SOL    HW229622   8.656   3.677   0.103
75909SOL     OW29623   4.426  12.432   6.683
75909SOL    HW129624   4.432  12.467   6.594
75909SOL    HW229625   4.359  12.365   6.677
75910SOL     OW29626  12.343   3.198   2.623
75910SOL    HW129627  12.247   3.191   2.624
75910SOL    HW229628  12.360   3.286   2.588
75911SOL     OW29629   1.938   9.838   0.610
75911SOL    HW129630   1.887   9.842   0.691
75911SOL    HW229631   1.916   9.753   0.572
75912SOL     OW29632   5.117   0.186   2.607
75912SOL    HW129633   5.053   0.134   2.560
75912SOL    HW229634   5.083   0.193   2.696
75913SOL     OW29635  13.066   5.942  13.195
75913SOL    HW129636  13.115   5.860  13.202
75913SOL    HW229637  13.117   5.995  13.135
75914SOL     OW29638   2.208  10.029   1.348
75914SOL    HW129639   2.162  10.101   1.304
75914SOL    HW229640   2.270  10.073   1.406
75915SOL     OW29641   3.235   0.836  14.070
75915SOL    HW129642   3.308   0.795  14.024
75915SOL    HW229643   3.173   0.859  14.001
75916SOL     OW29644   4.070   4.621  13.155
75916SOL    HW129645   4.162   4.646  13.148
75916SOL    HW229646   4.038   4.623  13.065
75917SOL     OW29647   7.751   4.678  14.020
75917SOL    HW129648   7.748   4.630  14.103
75917SOL    HW229649   7.806   4.754  14.039
75918SOL     OW29650   5.830  11.977  14.778
75918SOL    HW129651   5.842  11.945  14.867
75918SOL    HW229652   5.736  11.993  14.771
75919SOL     OW29653   8.839   2.073   0.845
75919SOL    HW129654   8.902   2.114   0.904
75919SOL    HW229655   8.754   2.087   0.887
75920SOL     OW29656  14.168  13.664  13.578
75920SOL    HW129657  14.256  13.634  13.556
75920SOL    HW229658  14.180  13.757  13.599
75921SOL     OW29659   2.982  10.050  13.186
75921SOL    HW129660   2.931   9.969  13.185
75921SOL    HW229661   3.064  10.028  13.142
75922SOL     OW29662   0.393   6.657   9.204
75922SOL    HW129663   0.384   6.688   9.114
75922SOL    HW229664   0.307   6.620   9.225
75923SOL     OW29665  10.362  10.868  12.274
75923SOL    HW129666  10.293  10.914  12.226
75923SOL    HW229667  10.442  10.918  12.256
75924SOL     OW29668   9.649  12.601  12.187
75924SOL    HW129669   9.717  12.667  12.179
75924SOL    HW229670   9.621  12.584  12.097
75925SOL     OW29671   7.406   0.880   1.156
75925SOL    HW129672   7.437   0.792   1.134
75925SOL    HW229673   7.455   0.938   1.097
75926SOL     OW29674  11.423  10.845  14.486
75926SOL    HW129675  11.480  10.802  14.550
75926SOL    HW229676  11.414  10.935  14.518
75927SOL     OW29677   2.699   5.471   8.688
75927SOL    HW129678   2.692   5.538   8.620
75927SOL    HW229679   2.632   5.406   8.665
75928SOL     OW29680   9.413  10.064   4.796
75928SOL    HW129681   9.479   9.999   4.774
75928SOL    HW229682   9.334  10.014   4.814
75929SOL     OW29683  10.331   6.243  10.726
75929SOL    HW129684  10.416   6.213  10.693
75929SOL    HW229685  10.349   6.328  10.766
75930SOL     OW29686   4.472   4.503  10.440
75930SOL    HW129687   4.496   4.489  10.348
75930SOL    HW229688   4.554   4.524  10.484
75931SOL     OW29689   0.798   3.887  12.178
75931SOL    HW129690   0.859   3.958  12.157
75931SOL    HW229691   0.771   3.904  12.268
75932SOL     OW29692  14.861   8.307  13.861
75932SOL    HW129693  14.814   8.389  13.877
75932SOL    HW229694   0.071   8.332  13.866
75933SOL     OW29695   7.806   0.721  10.218
75933SOL    HW129696   7.720   0.701  10.256
75933SOL    HW229697   7.791   0.722  10.124
75934SOL     OW29698   0.768  13.998   6.474
75934SOL    HW129699   0.838  14.024   6.534
75934SOL    HW229700   0.807  14.007   6.387
75935SOL     OW29701   7.043  13.337   2.818
75935SOL    HW129702   7.089  13.257   2.789
75935SOL    HW229703   7.114  13.399   2.837
75936SOL     OW29704   3.298  14.676   3.974
75936SOL    HW129705   3.290  14.582   3.985
75936SOL    HW229706   3.334  14.708   4.057
75937SOL     OW29707   8.715  14.683   4.538
75937SOL    HW129708   8.691  14.766   4.578
75937SOL    HW229709   8.681  14.689   4.448
75938SOL     OW29710   4.349   2.941   6.962
75938SOL    HW129711   4.257   2.966   6.974
75938SOL    HW229712   4.394   2.974   7.039
75939SOL     OW29713   4.595  10.905  10.161
75939SOL    HW129714   4.595  10.824  10.111
75939SOL    HW229715   4.595  10.877  10.252
75940SOL     OW29716   5.194   3.517  12.751
75940SOL    HW129717   5.217   3.594  12.700
75940SOL    HW229718   5.180   3.550  12.839
75941SOL     OW29719  12.745   6.283   5.729
75941SOL    HW129720  12.777   6.224   5.660
75941SOL    HW229721  12.651   6.286   5.715
75942SOL     OW29722   3.425   4.145  14.341
75942SOL    HW129723   3.502   4.198  14.322
75942SOL    HW229724   3.377   4.196  14.407
75943SOL     OW29725   0.370  11.373   7.809
75943SOL    HW129726   0.419  11.335   7.736
75943SOL    HW229727   0.354  11.463   7.782
75944SOL     OW29728   3.894  11.683   1.143
75944SOL    HW129729   3.870  11.770   1.110
75944SOL    HW229730   3.824  11.625   1.113
75945SOL     OW29731   6.130   8.401   2.364
75945SOL    HW129732   6.110   8.384   2.272
75945SOL    HW229733   6.168   8.319   2.395
75946SOL     OW29734   8.159   4.103   3.396
75946SOL    HW129735   8.193   4.026   3.442
75946SOL    HW229736   8.155   4.171   3.462
75947SOL     OW29737   7.804   6.607   3.045
75947SOL    HW129738   7.718   6.641   3.072
75947SOL    HW229739   7.794   6.587   2.952
75948SOL     OW29740  10.041  12.367  11.671
75948SOL    HW129741  10.016  12.340  11.582
75948SOL    HW229742  10.019  12.291  11.725
75949SOL     OW29743   6.939   0.273   4.654
75949SOL    HW129744   7.032   0.284   4.672
75949SOL    HW229745   6.913   0.356   4.613
75950SOL     OW29746   1.362   0.266   6.734
75950SOL    HW129747   1.409   0.212   6.798
75950SOL    HW229748   1.304   0.321   6.787
75951SOL     OW29749   5.914   3.339  10.219
75951SOL    HW129750   5.867   3.373  10.143
75951SOL    HW229751   5.984   3.284  10.182
75952SOL     OW29752   5.986  14.026   6.586
75952SOL    HW129753   5.902  14.045   6.544
75952SOL    HW229754   5.993  13.931   6.584
75953SOL     OW29755   7.157  12.815   2.454
75953SOL    HW129756   7.233  12.848   2.502
75953SOL    HW229757   7.161  12.859   2.370
75954SOL     OW29758   1.799   1.401   9.665
75954SOL    HW129759   1.766   1.383   9.577
75954SOL    HW229760   1.840   1.487   9.658
75955SOL     OW29761   7.455  13.399  12.442
75955SOL    HW129762   7.480  13.308  12.457
75955SOL    HW229763   7.362  13.396  12.418
75956SOL     OW29764  10.906   7.109  11.609
75956SOL    HW129765  10.932   7.168  11.538
75956SOL    HW229766  10.820   7.143  11.637
75957SOL     OW29767  11.030  11.283   6.545
75957SOL    HW129768  10.963  11.276   6.476
75957SOL    HW229769  11.052  11.192   6.565
75958SOL     OW29770   4.268   1.622   3.362
75958SOL    HW129771   4.204   1.644   3.430
75958SOL    HW229772   4.312   1.544   3.394
75959SOL     OW29773   1.670   7.277  12.230
75959SOL    HW129774   1.734   7.208  12.247
75959SOL    HW229775   1.717   7.342  12.179
75960SOL     OW29776   7.162  14.184  13.785
75960SOL    HW129777   7.198  14.132  13.713
75960SOL    HW229778   7.219  14.261  13.789
75961SOL     OW29779  10.678   3.589   0.420
75961SOL    HW129780  10.736   3.652   0.462
75961SOL    HW229781  10.666   3.623   0.331
75962SOL     OW29782  11.052  10.735  12.597
75962SOL    HW129783  11.105  10.657  12.581
75962SOL    HW229784  10.963  10.709  12.571
75963SOL     OW29785   5.874  12.367   8.633
75963SOL    HW129786   5.890  12.404   8.546
75963SOL    HW229787   5.958  12.329   8.658
75964SOL     OW29788   6.593   3.259   1.924
75964SOL    HW129789   6.537   3.188   1.955
75964SOL    HW229790   6.660   3.215   1.871
75965SOL     OW29791  14.641   8.604   8.116
75965SOL    HW129792  14.575   8.669   8.092
75965SOL    HW229793  14.601   8.520   8.094
75966SOL     OW29794   3.642  10.029   4.477
75966SOL    HW129795   3.657  10.060   4.566
75966SOL    HW229796   3.554   9.990   4.479
75967SOL     OW29797   3.117  13.950   8.737
75967SOL    HW129798   3.025  13.976   8.744
75967SOL    HW229799   3.132  13.943   8.642
75968SOL     OW29800   8.042   5.120   4.464
75968SOL    HW129801   8.117   5.168   4.430
75968SOL    HW229802   7.995   5.092   4.385
75969SOL     OW29803   3.522   3.310   3.002
75969SOL    HW129804   3.438   3.304   3.047
75969SOL    HW229805   3.500   3.310   2.909
75970SOL     OW29806   1.007   6.850  11.117
75970SOL    HW129807   1.080   6.830  11.059
75970SOL    HW229808   0.929   6.840  11.062
75971SOL     OW29809   3.569   1.041  10.683
75971SOL    HW129810   3.482   1.011  10.655
75971SOL    HW229811   3.628   0.970  10.658
75972SOL     OW29812   7.475   0.153   0.962
75972SOL    HW129813   7.455   0.123   0.873
75972SOL    HW229814   7.565   0.184   0.957
75973SOL     OW29815   9.892  11.905   7.448
75973SOL    HW129816   9.872  11.993   7.480
75973SOL    HW229817   9.970  11.879   7.496
75974SOL     OW29818   2.538  14.189   5.331
75974SOL    HW129819   2.482  14.224   5.262
75974SOL    HW229820   2.515  14.096   5.335
75975SOL     OW29821  13.561   3.942   4.957
75975SOL    HW129822  13.621   3.884   5.003
75975SOL    HW229823  13.600   3.953   4.870
75976SOL     OW29824   2.987   3.780  12.995
75976SOL    HW129825   2.963   3.692  13.022
75976SOL    HW229826   2.923   3.837  13.037
75977SOL     OW29827   0.794   9.438   5.931
75977SOL    HW129828   0.824   9.481   6.011
75977SOL    HW229829   0.718   9.386   5.959
75978SOL     OW29830   4.846  13.914   5.856
75978SOL    HW129831   4.881  13.831   5.890
75978SOL    HW229832   4.825  13.965   5.934
75979SOL     OW29833   5.754  10.390   4.871
75979SOL    HW129834   5.845  10.406   4.845
75979SOL    HW229835   5.758  10.311   4.924
75980SOL     OW29836   0.968  14.280   3.188
75980SOL    HW129837   0.901  14.306   3.251
75980SOL    HW229838   0.999  14.195   3.221
75981SOL     OW29839  11.337   8.982   0.541
75981SOL    HW129840  11.254   8.981   0.588
75981SOL    HW229841  11.364   8.890   0.536
75982SOL     OW29842  10.221   8.900   9.507
75982SOL    HW129843  10.206   8.862   9.420
75982SOL    HW229844  10.203   8.993   9.496
75983SOL     OW29845  11.155   3.486   4.686
75983SOL    HW129846  11.071   3.513   4.724
75983SOL    HW229847  11.171   3.400   4.725
75984SOL     OW29848  13.613   7.235  12.234
75984SOL    HW129849  13.565   7.176  12.176
75984SOL    HW229850  13.606   7.321  12.193
75985SOL     OW29851   9.965   3.928  11.911
75985SOL    HW129852   9.888   3.972  11.948
75985SOL    HW229853  10.028   3.925  11.983
75986SOL     OW29854  13.681   2.875  14.205
75986SOL    HW129855  13.700   2.804  14.144
75986SOL    HW229856  13.618   2.930  14.160
75987SOL     OW29857   8.261   5.945  11.879
75987SOL    HW129858   8.187   5.892  11.851
75987SOL    HW229859   8.286   5.909  11.964
75988SOL     OW29860  13.663  10.447  12.441
75988SOL    HW129861  13.580  10.494  12.438
75988SOL    HW229862  13.722  10.503  12.491
75989SOL     OW29863   0.386   6.835   8.978
75989SOL    HW129864   0.349   6.923   8.976
75989SOL    HW229865   0.345   6.790   8.904
75990SOL     OW29866  13.149  12.974   9.062
75990SOL    HW129867  13.108  12.890   9.041
75990SOL    HW229868  13.229  12.950   9.109
75991SOL     OW29869   8.881  10.596   3.159
75991SOL    HW129870   8.939  10.550   3.098
75991SOL    HW229871   8.855  10.529   3.222
75992SOL     OW29872  11.060   7.040   3.742
75992SOL    HW129873  11.036   7.133   3.742
75992SOL    HW229874  11.086   7.022   3.832
75993SOL     OW29875   9.545  12.455   3.807
75993SOL    HW129876   9.464  12.504   3.823
75993SOL    HW229877   9.588  12.451   3.893
75994SOL     OW29878  11.821   7.641   3.093
75994SOL    HW129879  11.859   7.566   3.138
75994SOL    HW229880  11.836   7.715   3.151
75995SOL     OW29881   0.913  13.499  13.062
75995SOL    HW129882   0.961  13.566  13.111
75995SOL    HW229883   0.821  13.525  13.070
75996SOL     OW29884  10.059   9.637   2.226
75996SOL    HW129885  10.150   9.644   2.196
75996SOL    HW229886  10.034   9.727   2.249
75997SOL     OW29887  12.099   5.674   0.557
75997SOL    HW129888  12.090   5.756   0.606
75997SOL    HW229889  12.009   5.646   0.542
75998SOL     OW29890  13.345   7.070   9.033
75998SOL    HW129891  13.267   7.058   9.087
75998SOL    HW229892  13.333   7.155   8.991
75999SOL     OW29893  12.083   3.341   0.607
75999SOL    HW129894  12.013   3.281   0.581
75999SOL    HW229895  12.133   3.356   0.527
76000SOL     OW29896  11.580  13.677  10.946
76000SOL    HW129897  11.673  13.683  10.972
76000SOL    HW229898  11.532  13.709  11.023
76001SOL     OW29899   3.166  11.442   8.214
76001SOL    HW129900   3.183  11.525   8.169
76001SOL    HW229901   3.071  11.432   8.211
76002SOL     OW29902   2.598   1.859   7.273
76002SOL    HW129903   2.564   1.864   7.183
76002SOL    HW229904   2.529   1.815   7.322
76003SOL     OW29905   4.626  12.813   3.500
76003SOL    HW129906   4.673  12.737   3.535
76003SOL    HW229907   4.635  12.880   3.568
76004SOL     OW29908  12.233   9.379   3.024
76004SOL    HW129909  12.201   9.334   2.945
76004SOL    HW229910  12.162   9.368   3.087
76005SOL     OW29911  12.072   9.481   7.483
76005SOL    HW129912  12.132   9.410   7.458
76005SOL    HW229913  12.118   9.527   7.554
76006SOL     OW29914  10.510   2.352  10.076
76006SOL    HW129915  10.544   2.362  10.165
76006SOL    HW229916  10.430   2.301  10.087
76007SOL     OW29917   3.121   4.686   9.785
76007SOL    HW129918   3.176   4.688   9.707
76007SOL    HW229919   3.140   4.769   9.830
76008SOL     OW29920   0.529   9.578   5.101
76008SOL    HW129921   0.510   9.581   5.194
76008SOL    HW229922   0.448   9.546   5.061
76009SOL     OW29923   9.493  12.976   7.540
76009SOL    HW129924   9.559  13.046   7.542
76009SOL    HW229925   9.488  12.951   7.447
76010SOL     OW29926  13.336   6.650  11.237
76010SOL    HW129927  13.317   6.744  11.235
76010SOL    HW229928  13.252   6.609  11.215
76011SOL     OW29929   0.960   1.200   6.875
76011SOL    HW129930   1.013   1.160   6.806
76011SOL    HW229931   1.010   1.278   6.901
76012SOL     OW29932   8.154   0.731  11.947
76012SOL    HW129933   8.218   0.802  11.943
76012SOL    HW229934   8.143   0.715  12.041
76013SOL     OW29935   1.466   2.798   4.736
76013SOL    HW129936   1.523   2.731   4.698
76013SOL    HW229937   1.426   2.756   4.812
76014SOL     OW29938  13.708   5.369   4.349
76014SOL    HW129939  13.702   5.281   4.313
76014SOL    HW229940  13.772   5.413   4.293
76015SOL     OW29941   0.739  14.868   7.267
76015SOL    HW129942   0.786   0.065   7.292
76015SOL    HW229943   0.801  14.797   7.284
76016SOL     OW29944   4.136   2.663  11.726
76016SOL    HW129945   4.072   2.711  11.674
76016SOL    HW229946   4.195   2.624  11.661
76017SOL     OW29947  12.020   2.007   3.910
76017SOL    HW129948  12.115   1.996   3.903
76017SOL    HW229949  12.001   1.991   4.003
76018SOL     OW29950   5.498   5.389   8.918
76018SOL    HW129951   5.459   5.471   8.951
76018SOL    HW229952   5.494   5.398   8.823
76019SOL     OW29953  11.348   7.755  12.702
76019SOL    HW129954  11.390   7.821  12.756
76019SOL    HW229955  11.404   7.678  12.709
76020SOL     OW29956  10.971   3.237  10.367
76020SOL    HW129957  11.057   3.279  10.363
76020SOL    HW229958  10.914   3.302  10.409
76021SOL     OW29959   0.368   0.730   2.349
76021SOL    HW129960   0.318   0.793   2.401
76021SOL    HW229961   0.399   0.665   2.413
76022SOL     OW29962   1.362   9.877   1.941
76022SOL    HW129963   1.436   9.937   1.953
76022SOL    HW229964   1.301   9.901   2.011
76023SOL     OW29965  12.035   9.336   2.243
76023SOL    HW129966  11.995   9.419   2.220
76023SOL    HW229967  12.054   9.294   2.158
76024SOL     OW29968   3.503   2.872  14.086
76024SOL    HW129969   3.415   2.880  14.049
76024SOL    HW229970   3.551   2.820  14.022
76025SOL     OW29971  11.351  12.546  13.489
76025SOL    HW129972  11.348  12.493  13.409
76025SOL    HW229973  11.353  12.636  13.459
76026SOL     OW29974   9.031  13.209   9.561
76026SOL    HW129975   9.110  13.188   9.611
76026SOL    HW229976   8.976  13.131   9.572
76027SOL     OW29977   3.997   5.328  10.312
76027SOL    HW129978   4.020   5.244  10.271
76027SOL    HW229979   4.004   5.392  10.242
76028SOL     OW29980  14.000   2.079   0.964
76028SOL    HW129981  14.092   2.059   0.978
76028SOL    HW229982  13.959   1.994   0.946
76029SOL     OW29983   8.822   1.947  14.658
76029SOL    HW129984   8.778   2.020  14.701
76029SOL    HW229985   8.915   1.958  14.680
76030SOL     OW29986  14.257   5.169  10.367
76030SOL    HW129987  14.351   5.161  10.347
76030SOL    HW229988  14.221   5.082  10.347
76031SOL     OW29989   1.224  10.650   1.092
76031SOL    HW129990   1.287  10.704   1.044
76031SOL    HW229991   1.215  10.694   1.177
76032SOL     OW29992   9.891   8.179  14.873
76032SOL    HW129993   9.799   8.184  14.849
76032SOL    HW229994   9.937   8.221  14.800
76033SOL     OW29995   1.243   0.806  13.524
76033SOL    HW129996   1.298   0.802  13.446
76033SOL    HW229997   1.303   0.791  13.597
76034SOL     OW29998   1.006   7.824   2.206
76034SOL    HW129999   1.028   7.812   2.298
76034SOL    HW230000   1.026   7.740   2.164
76035SOL     OW30001  11.197  10.015  14.304
76035SOL    HW130002  11.132   9.946  14.288
76035SOL    HW230003  11.252  10.015  14.226
76036SOL     OW30004   0.468   9.127  14.757
76036SOL    HW130005   0.537   9.061  14.759
76036SOL    HW230006   0.477   9.168  14.671
76037SOL     OW30007   2.298   3.379   5.292
76037SOL    HW130008   2.223   3.323   5.313
76037SOL    HW230009   2.291   3.453   5.352
76038SOL     OW30010   8.967   9.792   0.356
76038SOL    HW130011   8.971   9.697   0.342
76038SOL    HW230012   9.053   9.814   0.393
76039SOL     OW30013   5.815  12.638  11.865
76039SOL    HW130014   5.767  12.716  11.836
76039SOL    HW230015   5.886  12.673  11.919
76040SOL     OW30016   6.111   4.748   9.785
76040SOL    HW130017   6.184   4.756   9.724
76040SOL    HW230018   6.120   4.823   9.844
76041SOL     OW30019  11.915  12.681  11.489
76041SOL    HW130020  11.998  12.637  11.510
76041SOL    HW230021  11.924  12.707  11.397
76042SOL     OW30022   4.647  12.460  11.370
76042SOL    HW130023   4.739  12.434  11.381
76042SOL    HW230024   4.607  12.387  11.323
76043SOL     OW30025   0.210  14.071   3.528
76043SOL    HW130026   0.148  14.142   3.514
76043SOL    HW230027   0.291  14.100   3.485
76044SOL     OW30028  12.202   0.989   7.533
76044SOL    HW130029  12.265   0.959   7.468
76044SOL    HW230030  12.235   0.955   7.616
76045SOL     OW30031  10.247  13.335  11.678
76045SOL    HW130032  10.251  13.334  11.774
76045SOL    HW230033  10.269  13.425  11.654
76046SOL     OW30034   0.598  10.256   5.117
76046SOL    HW130035   0.682  10.240   5.074
76046SOL    HW230036   0.533  10.213   5.061
76047SOL     OW30037  11.838   9.128  10.897
76047SOL    HW130038  11.807   9.194  10.835
76047SOL    HW230039  11.760   9.098  10.943
76048SOL     OW30040  13.293  13.964   0.840
76048SOL    HW130041  13.213  13.930   0.800
76048SOL    HW230042  13.344  13.886   0.863
76049SOL     OW30043   4.658  11.160   5.496
76049SOL    HW130044   4.679  11.067   5.491
76049SOL    HW230045   4.612  11.179   5.414
76050SOL     OW30046  11.322   5.538   2.572
76050SOL    HW130047  11.413   5.569   2.573
76050SOL    HW230048  11.321   5.470   2.505
76051SOL     OW30049   3.468   0.852  11.200
76051SOL    HW130050   3.425   0.766  11.198
76051SOL    HW230051   3.518   0.856  11.119
76052SOL     OW30052  12.066   6.622   5.710
76052SOL    HW130053  12.121   6.642   5.785
76052SOL    HW230054  11.998   6.690   5.711
76053SOL     OW30055   1.489   6.507   6.367
76053SOL    HW130056   1.491   6.419   6.406
76053SOL    HW230057   1.564   6.552   6.406
76054SOL     OW30058   4.784   5.961  13.408
76054SOL    HW130059   4.810   5.874  13.376
76054SOL    HW230060   4.717   5.990  13.346
76055SOL     OW30061   3.886   4.877   0.200
76055SOL    HW130062   3.935   4.831   0.132
76055SOL    HW230063   3.952   4.928   0.247
76056SOL     OW30064  13.039  14.319   6.151
76056SOL    HW130065  13.110  14.361   6.201
76056SOL    HW230066  12.996  14.392   6.106
76057SOL     OW30067  10.791   7.421  12.087
76057SOL    HW130068  10.736   7.477  12.031
76057SOL    HW230069  10.729   7.381  12.148
76058SOL     OW30070   3.386  11.673   3.801
76058SOL    HW130071   3.480  11.691   3.806
76058SOL    HW230072   3.379  11.578   3.817
76059SOL     OW30073   8.878  11.290   8.036
76059SOL    HW130074   8.957  11.270   7.986
76059SOL    HW230075   8.884  11.384   8.054
76060SOL     OW30076   0.439  13.352   5.026
76060SOL    HW130077   0.456  13.388   5.113
76060SOL    HW230078   0.348  13.324   5.029
76061SOL     OW30079  10.491  12.552  11.689
76061SOL    HW130080  10.551  12.599  11.631
76061SOL    HW230081  10.544  12.533  11.766
76062SOL     OW30082   9.761   2.719   8.834
76062SOL    HW130083   9.818   2.649   8.867
76062SOL    HW230084   9.675   2.700   8.872
76063SOL     OW30085   1.123   4.137   8.329
76063SOL    HW130086   1.086   4.221   8.356
76063SOL    HW230087   1.088   4.122   8.241
76064SOL     OW30088   2.080  14.815   9.600
76064SOL    HW130089   2.053   0.011   9.553
76064SOL    HW230090   2.105  14.753   9.532
76065SOL     OW30091  11.905   1.343   9.882
76065SOL    HW130092  11.963   1.310   9.812
76065SOL    HW230093  11.912   1.438   9.876
76066SOL     OW30094  11.872   2.870   8.669
76066SOL    HW130095  11.806   2.919   8.719
76066SOL    HW230096  11.822   2.804   8.622
76067SOL     OW30097   7.704   7.555   8.232
76067SOL    HW130098   7.766   7.581   8.301
76067SOL    HW230099   7.628   7.521   8.280
76068SOL     OW30100   2.726  12.377   7.482
76068SOL    HW130101   2.813  12.350   7.452
76068SOL    HW230102   2.669  12.364   7.406
76069SOL     OW30103   4.127   9.176   1.841
76069SOL    HW130104   4.125   9.110   1.772
76069SOL    HW230105   4.057   9.237   1.819
76070SOL     OW30106   9.475  10.105  14.684
76070SOL    HW130107   9.386  10.119  14.651
76070SOL    HW230108   9.491  10.012  14.673
76071SOL     OW30109   0.384   9.995   8.381
76071SOL    HW130110   0.467  10.034   8.352
76071SOL    HW230111   0.390   9.903   8.354
76072SOL     OW30112  12.776   7.544  10.897
76072SOL    HW130113  12.704   7.607  10.886
76072SOL    HW230114  12.779   7.496  10.814
76073SOL     OW30115   0.446   2.177  14.505
76073SOL    HW130116   0.455   2.266  14.472
76073SOL    HW230117   0.401   2.187  14.589
76074SOL     OW30118  13.468   7.690  13.477
76074SOL    HW130119  13.561   7.712  13.467
76074SOL    HW230120  13.450   7.630  13.405
76075SOL     OW30121   1.992   9.214   6.726
76075SOL    HW130122   2.037   9.209   6.642
76075SOL    HW230123   1.910   9.167   6.712
76076SOL     OW30124   6.211   2.378   9.856
76076SOL    HW130125   6.229   2.346   9.768
76076SOL    HW230126   6.206   2.299   9.910
76077SOL     OW30127   1.627  14.750   6.599
76077SOL    HW130128   1.632  14.656   6.613
76077SOL    HW230129   1.627  14.760   6.503
76078SOL     OW30130   1.673   5.533   7.726
76078SOL    HW130131   1.690   5.440   7.711
76078SOL    HW230132   1.758   5.568   7.755
76079SOL     OW30133   8.496  14.150   6.659
76079SOL    HW130134   8.429  14.194   6.711
76079SOL    HW230135   8.449  14.116   6.583
76080SOL     OW30136   1.706   5.822   0.395
76080SOL    HW130137   1.685   5.900   0.344
76080SOL    HW230138   1.740   5.760   0.330
76081SOL     OW30139  11.491  14.267   9.350
76081SOL    HW130140  11.504  14.358   9.375
76081SOL    HW230141  11.580  14.235   9.332
76082SOL     OW30142  13.746  12.762   6.396
76082SOL    HW130143  13.817  12.792   6.454
76082SOL    HW230144  13.670  12.813   6.424
76083SOL     OW30145   2.854   1.204  14.292
76083SOL    HW130146   2.905   1.170  14.364
76083SOL    HW230147   2.911   1.268  14.249
76084SOL     OW30148   1.441   9.485  11.251
76084SOL    HW130149   1.380   9.481  11.324
76084SOL    HW230150   1.386   9.507  11.176
76085SOL     OW30151   2.885   9.037   5.709
76085SOL    HW130152   2.880   8.958   5.657
76085SOL    HW230153   2.917   9.104   5.649
76086SOL     OW30154   1.886   9.735  11.057
76086SOL    HW130155   1.814   9.673  11.065
76086SOL    HW230156   1.885   9.784  11.139
76087SOL     OW30157   6.367  11.926   2.589
76087SOL    HW130158   6.311  11.850   2.606
76087SOL    HW230159   6.455  11.889   2.581
76088SOL     OW30160  13.617   4.894   8.491
76088SOL    HW130161  13.584   4.867   8.405
76088SOL    HW230162  13.539   4.894   8.547
76089SOL     OW30163   2.340  12.166   5.866
76089SOL    HW130164   2.421  12.133   5.905
76089SOL    HW230165   2.287  12.194   5.940
76090SOL     OW30166  11.517   8.927  13.098
76090SOL    HW130167  11.480   8.907  13.185
76090SOL    HW230168  11.484   8.857  13.042
76091SOL     OW30169   5.801   5.283   2.068
76091SOL    HW130170   5.840   5.200   2.041
76091SOL    HW230171   5.873   5.332   2.107
76092SOL     OW30172   3.526  11.171   4.025
76092SOL    HW130173   3.586  11.097   4.031
76092SOL    HW230174   3.582  11.248   4.036
76093SOL     OW30175   0.784   2.779   5.900
76093SOL    HW130176   0.741   2.784   5.814
76093SOL    HW230177   0.873   2.748   5.881
76094SOL     OW30178  11.302   9.145   4.354
76094SOL    HW130179  11.342   9.207   4.415
76094SOL    HW230180  11.217   9.184   4.333
76095SOL     OW30181   6.870  13.802  12.131
76095SOL    HW130182   6.882  13.879  12.075
76095SOL    HW230183   6.791  13.761  12.096
76096SOL     OW30184   8.706  12.813  10.222
76096SOL    HW130185   8.651  12.735  10.216
76096SOL    HW230186   8.646  12.884  10.243
76097SOL     OW30187   5.586   1.674   7.728
76097SOL    HW130188   5.681   1.675   7.730
76097SOL    HW230189   5.561   1.605   7.790
76098SOL     OW30190   2.287   6.534   5.659
76098SOL    HW130191   2.316   6.482   5.733
76098SOL    HW230192   2.236   6.606   5.698
76099SOL     OW30193  11.311   4.087   5.827
76099SOL    HW130194  11.381   4.151   5.841
76099SOL    HW230195  11.321   4.025   5.900
76100SOL     OW30196  13.202  10.239   1.765
76100SOL    HW130197  13.275  10.277   1.814
76100SOL    HW230198  13.219  10.145   1.767
76101SOL     OW30199  14.221   0.168   8.899
76101SOL    HW130200  14.159   0.154   8.970
76101SOL    HW230201  14.299   0.203   8.942
76102SOL     OW30202  11.216  12.446   5.004
76102SOL    HW130203  11.285  12.380   5.001
76102SOL    HW230204  11.139  12.400   4.971
76103SOL     OW30205   5.070  11.151   7.100
76103SOL    HW130206   5.106  11.141   7.188
76103SOL    HW230207   5.031  11.066   7.080
76104SOL     OW30208   4.244   5.925   7.943
76104SOL    HW130209   4.291   5.992   7.894
76104SOL    HW230210   4.311   5.860   7.965
76105SOL     OW30211   3.425   4.036   6.081
76105SOL    HW130212   3.515   4.067   6.078
76105SOL    HW230213   3.372   4.115   6.095
76106SOL     OW30214   0.588   3.666   3.057
76106SOL    HW130215   0.517   3.729   3.066
76106SOL    HW230216   0.567   3.598   3.121
76107SOL     OW30217   1.067  13.060   7.705
76107SOL    HW130218   1.056  13.150   7.734
76107SOL    HW230219   1.128  13.022   7.770
76108SOL     OW30220   0.024   2.817   0.847
76108SOL    HW130221   0.009   2.807   0.941
76108SOL    HW230222  14.821   2.802   0.807
76109SOL     OW30223   7.216  12.073   5.563
76109SOL    HW130224   7.249  12.136   5.626
76109SOL    HW230225   7.275  12.081   5.488
76110SOL     OW30226   0.925   2.577   8.877
76110SOL    HW130227   0.835   2.597   8.902
76110SOL    HW230228   0.978   2.609   8.950
76111SOL     OW30229  10.739   9.888   0.581
76111SOL    HW130230  10.816   9.904   0.634
76111SOL    HW230231  10.694   9.973   0.577
76112SOL     OW30232  10.617   5.171  14.540
76112SOL    HW130233  10.585   5.087  14.508
76112SOL    HW230234  10.707   5.176  14.507
76113SOL     OW30235   6.839   5.584   6.151
76113SOL    HW130236   6.756   5.633   6.152
76113SOL    HW230237   6.904   5.648   6.180
76114SOL     OW30238  10.118  13.434  13.754
76114SOL    HW130239  10.208  13.430  13.786
76114SOL    HW230240  10.114  13.515  13.703
76115SOL     OW30241   0.963  11.147  12.422
76115SOL    HW130242   0.943  11.175  12.333
76115SOL    HW230243   0.942  11.222  12.477
76116SOL     OW30244  14.218   0.887  14.211
76116SOL    HW130245  14.285   0.818  14.209
76116SOL    HW230246  14.140   0.845  14.175
76117SOL     OW30247  14.795   5.613   0.430
76117SOL    HW130248  14.844   5.615   0.512
76117SOL    HW230249  14.813   5.697   0.389
76118SOL     OW30250  13.421   0.912   0.422
76118SOL    HW130251  13.397   0.917   0.514
76118SOL    HW230252  13.340   0.890   0.377
76119SOL     OW30253  10.410   5.488   0.751
76119SOL    HW130254  10.372   5.517   0.834
76119SOL    HW230255  10.336   5.448   0.704
76120SOL     OW30256  14.624   7.435  12.970
76120SOL    HW130257  14.587   7.408  12.886
76120SOL    HW230258  14.718   7.435  12.956
76121SOL     OW30259  13.758   9.501   5.172
76121SOL    HW130260  13.728   9.524   5.084
76121SOL    HW230261  13.739   9.578   5.225
76122SOL     OW30262   2.620   5.613   2.566
76122SOL    HW130263   2.532   5.585   2.541
76122SOL    HW230264   2.647   5.671   2.494
76123SOL     OW30265   2.569   9.299   7.087
76123SOL    HW130266   2.592   9.209   7.111
76123SOL    HW230267   2.569   9.299   6.992
76124SOL     OW30268   2.053  14.327   7.957
76124SOL    HW130269   2.053  14.338   7.862
76124SOL    HW230270   2.086  14.238   7.970
76125SOL     OW30271   1.093  13.341   6.096
76125SOL    HW130272   1.148  13.419   6.103
76125SOL    HW230273   1.003  13.373   6.103
76126SOL     OW30274   5.051   5.127  11.698
76126SOL    HW130275   5.113   5.194  11.669
76126SOL    HW230276   5.008   5.099  11.618
76127SOL     OW30277   9.553   3.179   0.655
76127SOL    HW130278   9.563   3.271   0.632
76127SOL    HW230279   9.541   3.179   0.750
76128SOL     OW30280  12.966   1.787   5.108
76128SOL    HW130281  13.055   1.758   5.087
76128SOL    HW230282  12.927   1.715   5.157
76129SOL     OW30283   5.917   2.514   3.568
76129SOL    HW130284   5.893   2.571   3.641
76129SOL    HW230285   5.833   2.481   3.536
76130SOL     OW30286   9.984   4.856   3.549
76130SOL    HW130287   9.938   4.776   3.525
76130SOL    HW230288  10.057   4.862   3.487
76131SOL     OW30289   5.146   2.116   5.815
76131SOL    HW130290   5.148   2.189   5.877
76131SOL    HW230291   5.211   2.054   5.849
76132SOL     OW30292  13.267   1.293   4.905
76132SOL    HW130293  13.321   1.220   4.874
76132SOL    HW230294  13.330   1.359   4.934
76133SOL     OW30295   4.490   7.017   4.461
76133SOL    HW130296   4.468   6.924   4.473
76133SOL    HW230297   4.413   7.064   4.496
76134SOL     OW30298  13.520   1.536   2.719
76134SOL    HW130299  13.513   1.599   2.647
76134SOL    HW230300  13.608   1.498   2.709
76135SOL     OW30301   4.406  12.653   4.012
76135SOL    HW130302   4.465  12.718   4.049
76135SOL    HW230303   4.325  12.702   3.995
76136SOL     OW30304   4.378  14.389  13.958
76136SOL    HW130305   4.368  14.309  14.011
76136SOL    HW230306   4.456  14.372  13.904
76137SOL     OW30307  11.052  13.522   6.740
76137SOL    HW130308  11.078  13.435   6.708
76137SOL    HW230309  10.973  13.505   6.791
76138SOL     OW30310  13.418   2.210   6.318
76138SOL    HW130311  13.344   2.168   6.361
76138SOL    HW230312  13.381   2.290   6.280
76139SOL     OW30313   0.919   1.182   0.208
76139SOL    HW130314   0.998   1.146   0.249
76139SOL    HW230315   0.946   1.269   0.178
76140SOL     OW30316   1.209   8.690   1.313
76140SOL    HW130317   1.158   8.727   1.241
76140SOL    HW230318   1.300   8.711   1.292
76141SOL     OW30319   0.089  10.194   6.556
76141SOL    HW130320   0.003  10.174   6.591
76141SOL    HW230321   0.128  10.109   6.536
76142SOL     OW30322   6.628   1.272  14.574
76142SOL    HW130323   6.690   1.213  14.616
76142SOL    HW230324   6.682   1.333  14.524
76143SOL     OW30325   8.245   2.272   6.441
76143SOL    HW130326   8.208   2.187   6.464
76143SOL    HW230327   8.220   2.285   6.350
76144SOL     OW30328   6.345  11.939   2.153
76144SOL    HW130329   6.257  11.941   2.189
76144SOL    HW230330   6.402  11.956   2.229
76145SOL     OW30331   4.542  14.838   9.655
76145SOL    HW130332   4.537  14.831   9.750
76145SOL    HW230333   4.585   0.039   9.639
76146SOL     OW30334   3.026   5.458   8.524
76146SOL    HW130335   2.989   5.481   8.610
76146SOL    HW230336   2.951   5.436   8.470
76147SOL     OW30337   8.246   5.012  10.063
76147SOL    HW130338   8.222   5.101  10.090
76147SOL    HW230339   8.265   4.966  10.145
76148SOL     OW30340   3.718   1.739   7.807
76148SOL    HW130341   3.668   1.810   7.848
76148SOL    HW230342   3.689   1.660   7.853
76149SOL     OW30343   4.905   7.044  14.202
76149SOL    HW130344   4.870   7.105  14.137
76149SOL    HW230345   4.991   7.020  14.168
76150SOL     OW30346  13.886   0.184   5.397
76150SOL    HW130347  13.955   0.180   5.463
76150SOL    HW230348  13.835   0.104   5.409
76151SOL     OW30349  10.249  11.145   1.971
76151SOL    HW130350  10.299  11.226   1.981
76151SOL    HW230351  10.247  11.129   1.877
76152SOL     OW30352   6.761  11.242   3.789
76152SOL    HW130353   6.667  11.228   3.786
76152SOL    HW230354   6.785  11.226   3.880
76153SOL     OW30355   4.943  10.290  11.578
76153SOL    HW130356   4.876  10.349  11.613
76153SOL    HW230357   5.025  10.339  11.587
76154SOL     OW30358   7.192   3.715  11.615
76154SOL    HW130359   7.100   3.725  11.589
76154SOL    HW230360   7.196   3.627  11.654
76155SOL     OW30361  13.964   5.484   5.437
76155SOL    HW130362  14.045   5.483   5.489
76155SOL    HW230363  13.992   5.516   5.351
76156SOL     OW30364   1.214  13.292  13.342
76156SOL    HW130365   1.130  13.336  13.352
76156SOL    HW230366   1.194  13.199  13.355
76157SOL     OW30367  12.627   2.586   9.714
76157SOL    HW130368  12.615   2.519   9.781
76157SOL    HW230369  12.719   2.580   9.690
76158SOL     OW30370   2.019   2.433  11.441
76158SOL    HW130371   2.019   2.345  11.403
76158SOL    HW230372   1.942   2.433  11.499
76159SOL     OW30373   2.429  12.447  14.107
76159SOL    HW130374   2.462  12.396  14.181
76159SOL    HW230375   2.500  12.508  14.086
76160SOL     OW30376   5.653  14.216  12.052
76160SOL    HW130377   5.736  14.171  12.061
76160SOL    HW230378   5.604  14.163  11.988
76161SOL     OW30379   8.010   9.971   8.549
76161SOL    HW130380   8.024   9.913   8.474
76161SOL    HW230381   8.050   9.925   8.623
76162SOL     OW30382   0.698   4.595   0.285
76162SOL    HW130383   0.765   4.627   0.346
76162SOL    HW230384   0.748   4.568   0.208
76163SOL     OW30385   0.818   3.040  11.453
76163SOL    HW130386   0.729   3.043  11.418
76163SOL    HW230387   0.827   2.951  11.489
76164SOL     OW30388   1.912  14.529   0.056
76164SOL    HW130389   1.833  14.548   0.005
76164SOL    HW230390   1.881  14.481   0.132
76165SOL     OW30391   4.218  10.843   7.644
76165SOL    HW130392   4.214  10.936   7.666
76165SOL    HW230393   4.272  10.805   7.714
76166SOL     OW30394   2.636   1.002   3.807
76166SOL    HW130395   2.548   1.022   3.840
76166SOL    HW230396   2.693   1.013   3.884
76167SOL     OW30397   3.193   8.753  12.581
76167SOL    HW130398   3.267   8.735  12.638
76167SOL    HW230399   3.215   8.713  12.497
76168SOL     OW30400  13.723   9.190   9.007
76168SOL    HW130401  13.746   9.257   9.072
76168SOL    HW230402  13.807   9.164   8.968
76169SOL     OW30403   4.580   0.157   8.449
76169SOL    HW130404   4.496   0.202   8.459
76169SOL    HW230405   4.581   0.094   8.521
76170SOL     OW30406  11.913  12.337   6.194
76170SOL    HW130407  11.867  12.323   6.111
76170SOL    HW230408  11.846  12.373   6.252
76171SOL     OW30409  10.437   2.612   7.998
76171SOL    HW130410  10.485   2.540   8.040
76171SOL    HW230411  10.434   2.681   8.065
76172SOL     OW30412  11.801   8.535   2.569
76172SOL    HW130413  11.852   8.615   2.553
76172SOL    HW230414  11.858   8.482   2.625
76173SOL     OW30415  13.194  14.114   0.158
76173SOL    HW130416  13.141  14.069   0.223
76173SOL    HW230417  13.263  14.051   0.135
76174SOL     OW30418  12.158   4.410   1.711
76174SOL    HW130419  12.177   4.449   1.626
76174SOL    HW230420  12.112   4.329   1.690
76175SOL     OW30421   4.669   0.686   6.914
76175SOL    HW130422   4.575   0.670   6.920
76175SOL    HW230423   4.700   0.681   7.005
76176SOL     OW30424   2.899  14.322  10.326
76176SOL    HW130425   2.869  14.235  10.298
76176SOL    HW230426   2.894  14.375  10.246
76177SOL     OW30427   9.399  12.198   6.803
76177SOL    HW130428   9.427  12.165   6.889
76177SOL    HW230429   9.310  12.230   6.818
76178SOL     OW30430   2.852  11.172   6.200
76178SOL    HW130431   2.835  11.203   6.289
76178SOL    HW230432   2.769  11.135   6.171
76179SOL     OW30433   8.475  12.320  11.768
76179SOL    HW130434   8.522  12.300  11.849
76179SOL    HW230435   8.406  12.382  11.795
76180SOL     OW30436   3.156   2.054   2.029
76180SOL    HW130437   3.111   2.123   1.980
76180SOL    HW230438   3.246   2.058   1.997
76181SOL     OW30439   6.622   3.535   8.275
76181SOL    HW130440   6.675   3.517   8.198
76181SOL    HW230441   6.535   3.557   8.241
76182SOL     OW30442   6.285   9.466  11.052
76182SOL    HW130443   6.366   9.438  11.009
76182SOL    HW230444   6.247   9.531  10.993
76183SOL     OW30445   6.597   8.070  11.774
76183SOL    HW130446   6.687   8.059  11.805
76183SOL    HW230447   6.557   7.983  11.785
76184SOL     OW30448   2.821   6.276   5.499
76184SOL    HW130449   2.907   6.261   5.461
76184SOL    HW230450   2.822   6.229   5.582
76185SOL     OW30451   2.962  12.874  11.246
76185SOL    HW130452   2.996  12.856  11.158
76185SOL    HW230453   2.951  12.969  11.249
76186SOL     OW30454   0.678   4.686   6.815
76186SOL    HW130455   0.722   4.738   6.747
76186SOL    HW230456   0.585   4.694   6.795
76187SOL     OW30457  14.331   1.934  12.236
76187SOL    HW130458  14.420   1.937  12.201
76187SOL    HW230459  14.343   1.935  12.331
76188SOL     OW30460   7.202   9.391   6.939
76188SOL    HW130461   7.189   9.317   6.880
76188SOL    HW230462   7.117   9.436   6.939
76189SOL     OW30463   7.899   1.901   8.983
76189SOL    HW130464   7.957   1.853   8.924
76189SOL    HW230465   7.942   1.896   9.068
76190SOL     OW30466   0.895   7.472   9.759
76190SOL    HW130467   0.925   7.385   9.785
76190SOL    HW230468   0.970   7.529   9.776
76191SOL     OW30469  11.520   7.392  10.204
76191SOL    HW130470  11.465   7.463  10.170
76191SOL    HW230471  11.598   7.393  10.148
76192SOL     OW30472  10.190   1.441   5.799
76192SOL    HW130473  10.108   1.395   5.814
76192SOL    HW230474  10.207   1.432   5.705
76193SOL     OW30475  13.629   8.534   9.090
76193SOL    HW130476  13.623   8.617   9.044
76193SOL    HW230477  13.543   8.522   9.130
76194SOL     OW30478  10.997   5.839   2.529
76194SOL    HW130479  11.082   5.868   2.496
76194SOL    HW230480  11.019   5.772   2.594
76195SOL     OW30481   8.328   0.277   9.724
76195SOL    HW130482   8.374   0.320   9.652
76195SOL    HW230483   8.364   0.315   9.803
76196SOL     OW30484   5.737   5.073   9.614
76196SOL    HW130485   5.666   5.048   9.673
76196SOL    HW230486   5.729   5.015   9.539
76197SOL     OW30487   2.720  11.184   9.282
76197SOL    HW130488   2.704  11.089   9.284
76197SOL    HW230489   2.720  11.207   9.189
76198SOL     OW30490  11.827  10.178  13.125
76198SOL    HW130491  11.770  10.108  13.094
76198SOL    HW230492  11.816  10.248  13.061
76199SOL     OW30493   7.337  13.975   5.063
76199SOL    HW130494   7.246  13.956   5.038
76199SOL    HW230495   7.390  13.939   4.992
76200SOL     OW30496   7.855   5.185   5.166
76200SOL    HW130497   7.808   5.178   5.249
76200SOL    HW230498   7.786   5.202   5.101
76201SOL     OW30499   5.662  13.569   5.895
76201SOL    HW130500   5.627  13.480   5.904
76201SOL    HW230501   5.653  13.607   5.982
76202SOL     OW30502  10.721   1.732   9.564
76202SOL    HW130503  10.814   1.715   9.578
76202SOL    HW230504  10.718   1.821   9.528
76203SOL     OW30505   0.304   8.462   4.707
76203SOL    HW130506   0.319   8.379   4.662
76203SOL    HW230507   0.249   8.512   4.647
76204SOL     OW30508   9.915  11.552   1.584
76204SOL    HW130509   9.823  11.548   1.611
76204SOL    HW230510   9.941  11.642   1.601
76205SOL     OW30511   4.446   7.742   6.465
76205SOL    HW130512   4.407   7.787   6.391
76205SOL    HW230513   4.437   7.802   6.538
76206SOL     OW30514   7.839   8.500  11.785
76206SOL    HW130515   7.777   8.497  11.712
76206SOL    HW230516   7.922   8.528  11.745
76207SOL     OW30517  14.117   7.900   6.158
76207SOL    HW130518  14.122   7.845   6.080
76207SOL    HW230519  14.060   7.973   6.132
76208SOL     OW30520   4.102   4.117  10.754
76208SOL    HW130521   4.032   4.110  10.689
76208SOL    HW230522   4.084   4.200  10.799
76209SOL     OW30523  13.334   6.673   9.361
76209SOL    HW130524  13.293   6.631   9.285
76209SOL    HW230525  13.333   6.766   9.340
76210SOL     OW30526  12.897   1.977   3.895
76210SOL    HW130527  12.823   1.917   3.900
76210SOL    HW230528  12.950   1.944   3.823
76211SOL     OW30529   9.973   6.590   4.900
76211SOL    HW130530  10.023   6.509   4.902
76211SOL    HW230531   9.923   6.589   4.982
76212SOL     OW30532   8.228   0.226   6.652
76212SOL    HW130533   8.319   0.203   6.666
76212SOL    HW230534   8.184   0.199   6.733
76213SOL     OW30535  10.222   5.234  12.131
76213SOL    HW130536  10.189   5.166  12.072
76213SOL    HW230537  10.187   5.316  12.096
76214SOL     OW30538   0.136   9.289   7.370
76214SOL    HW130539   0.143   9.365   7.312
76214SOL    HW230540   0.219   9.290   7.419
76215SOL     OW30541  13.407   3.796   6.096
76215SOL    HW130542  13.417   3.709   6.134
76215SOL    HW230543  13.494   3.837   6.106
76216SOL     OW30544  14.286  13.285  12.930
76216SOL    HW130545  14.235  13.365  12.946
76216SOL    HW230546  14.351  13.283  12.999
76217SOL     OW30547   0.389   2.807  13.662
76217SOL    HW130548   0.381   2.720  13.622
76217SOL    HW230549   0.483   2.818  13.677
76218SOL     OW30550   3.866   5.242  13.553
76218SOL    HW130551   3.936   5.251  13.489
76218SOL    HW230552   3.845   5.149  13.553
76219SOL     OW30553  13.053   8.354  14.615
76219SOL    HW130554  13.061   8.404  14.697
76219SOL    HW230555  13.112   8.399  14.554
76220SOL     OW30556   0.576   6.642   8.556
76220SOL    HW130557   0.516   6.631   8.482
76220SOL    HW230558   0.622   6.558   8.562
76221SOL     OW30559   8.657   1.287   4.115
76221SOL    HW130560   8.645   1.372   4.073
76221SOL    HW230561   8.632   1.223   4.048
76222SOL     OW30562   5.670   3.748  12.581
76222SOL    HW130563   5.588   3.766  12.534
76222SOL    HW230564   5.647   3.678  12.643
76223SOL     OW30565   8.535  10.323   4.375
76223SOL    HW130566   8.482  10.336   4.454
76223SOL    HW230567   8.474  10.334   4.302
76224SOL     OW30568   9.495  10.284   0.847
76224SOL    HW130569   9.588  10.298   0.862
76224SOL    HW230570   9.483  10.189   0.856
76225SOL     OW30571  14.364   5.068  12.713
76225SOL    HW130572  14.335   5.124  12.641
76225SOL    HW230573  14.373   5.127  12.788
76226SOL     OW30574   5.574   5.029   4.397
76226SOL    HW130575   5.669   5.019   4.401
76226SOL    HW230576   5.542   4.989   4.478
76227SOL     OW30577  11.887   5.687   1.142
76227SOL    HW130578  11.814   5.645   1.098
76227SOL    HW230579  11.847   5.736   1.214
76228SOL     OW30580   5.970   9.335  14.740
76228SOL    HW130581   5.936   9.411  14.692
76228SOL    HW230582   6.001   9.275  14.672
76229SOL     OW30583  11.732   9.072   2.559
76229SOL    HW130584  11.730   9.055   2.653
76229SOL    HW230585  11.643   9.054   2.529
76230SOL     OW30586   0.087  14.348  13.335
76230SOL    HW130587   0.131  14.336  13.419
76230SOL    HW230588  14.878  14.366  13.357
76231SOL     OW30589   3.824   3.534  10.461
76231SOL    HW130590   3.861   3.598  10.522
76231SOL    HW230591   3.894   3.471  10.446
76232SOL     OW30592   2.460  12.155   3.415
76232SOL    HW130593   2.490  12.104   3.339
76232SOL    HW230594   2.510  12.119   3.489
76233SOL     OW30595   3.911  13.500   4.630
76233SOL    HW130596   3.975  13.429   4.638
76233SOL    HW230597   3.902  13.534   4.719
76234SOL     OW30598   2.833   5.078   7.656
76234SOL    HW130599   2.896   5.016   7.694
76234SOL    HW230600   2.847   5.071   7.562
76235SOL     OW30601   1.516   3.020   5.402
76235SOL    HW130602   1.597   3.036   5.449
76235SOL    HW230603   1.543   2.984   5.318
76236SOL     OW30604  14.192   4.480  12.351
76236SOL    HW130605  14.247   4.406  12.377
76236SOL    HW230606  14.116   4.440  12.308
76237SOL     OW30607  12.320   4.747  12.334
76237SOL    HW130608  12.254   4.694  12.379
76237SOL    HW230609  12.336   4.701  12.251
76238SOL     OW30610  10.921   7.072   0.439
76238SOL    HW130611  10.991   7.036   0.492
76238SOL    HW230612  10.951   7.159   0.414
76239SOL     OW30613   8.785   4.029  11.642
76239SOL    HW130614   8.753   3.950  11.600
76239SOL    HW230615   8.748   4.101  11.591
76240SOL     OW30616  14.390   6.444   4.119
76240SOL    HW130617  14.454   6.428   4.050
76240SOL    HW230618  14.382   6.540   4.123
76241SOL     OW30619  14.142  14.588   3.579
76241SOL    HW130620  14.137  14.593   3.675
76241SOL    HW230621  14.136  14.678   3.550
76242SOL     OW30622  14.211  13.105   4.578
76242SOL    HW130623  14.190  13.012   4.578
76242SOL    HW230624  14.255  13.120   4.661
76243SOL     OW30625  10.723   3.985   7.929
76243SOL    HW130626  10.639   3.994   7.974
76243SOL    HW230627  10.788   4.002   7.997
76244SOL     OW30628  10.487  11.368  12.371
76244SOL    HW130629  10.527  11.455  12.374
76244SOL    HW230630  10.475  11.343  12.462
76245SOL     OW30631  13.857   4.028   0.703
76245SOL    HW130632  13.783   3.979   0.741
76245SOL    HW230633  13.843   4.025   0.609
76246SOL     OW30634   4.807   3.869   3.907
76246SOL    HW130635   4.799   3.778   3.879
76246SOL    HW230636   4.762   3.873   3.991
76247SOL     OW30637  11.076   1.516   6.613
76247SOL    HW130638  11.166   1.545   6.600
76247SOL    HW230639  11.054   1.542   6.702
76248SOL     OW30640  10.871   3.548   3.553
76248SOL    HW130641  10.936   3.598   3.604
76248SOL    HW230642  10.798   3.609   3.542
76249SOL     OW30643   0.568   2.634   9.372
76249SOL    HW130644   0.643   2.619   9.313
76249SOL    HW230645   0.492   2.608   9.321
76250SOL     OW30646   1.993   8.048  13.341
76250SOL    HW130647   2.009   8.131  13.298
76250SOL    HW230648   2.071   7.996  13.324
76251SOL     OW30649   8.264   2.719   8.305
76251SOL    HW130650   8.284   2.811   8.321
76251SOL    HW230651   8.252   2.681   8.393
76252SOL     OW30652  11.833  10.029   6.651
76252SOL    HW130653  11.788  10.066   6.726
76252SOL    HW230654  11.765  10.021   6.583
76253SOL     OW30655   6.767   7.199  12.644
76253SOL    HW130656   6.703   7.128  12.637
76253SOL    HW230657   6.720   7.277  12.618
76254SOL     OW30658   1.856   0.719   5.296
76254SOL    HW130659   1.896   0.637   5.323
76254SOL    HW230660   1.861   0.717   5.200
76255SOL     OW30661   0.307   7.322   5.860
76255SOL    HW130662   0.343   7.315   5.771
76255SOL    HW230663   0.351   7.399   5.897
76256SOL     OW30664   6.905   5.538   9.068
76256SOL    HW130665   6.833   5.494   9.023
76256SOL    HW230666   6.893   5.517   9.161
76257SOL     OW30667   0.323  13.919   3.711
76257SOL    HW130668   0.274  13.966   3.644
76257SOL    HW230669   0.299  13.963   3.793
76258SOL     OW30670   1.347  12.681   6.154
76258SOL    HW130671   1.309  12.601   6.118
76258SOL    HW230672   1.317  12.682   6.245
76259SOL     OW30673  12.447  10.483   5.497
76259SOL    HW130674  12.501  10.495   5.576
76259SOL    HW230675  12.449  10.567   5.453
76260SOL     OW30676  10.699   2.432   2.954
76260SOL    HW130677  10.649   2.355   2.929
76260SOL    HW230678  10.791   2.406   2.945
76261SOL     OW30679  14.335  11.708  11.958
76261SOL    HW130680  14.292  11.793  11.947
76261SOL    HW230681  14.264  11.648  11.982
76262SOL     OW30682   1.926   7.727   0.374
76262SOL    HW130683   1.878   7.677   0.308
76262SOL    HW230684   2.017   7.700   0.364
76263SOL     OW30685   7.818   0.427   4.163
76263SOL    HW130686   7.846   0.385   4.082
76263SOL    HW230687   7.874   0.388   4.231
76264SOL     OW30688   9.528   2.157  11.285
76264SOL    HW130689   9.515   2.091  11.353
76264SOL    HW230690   9.570   2.230  11.330
76265SOL     OW30691   4.956   7.385  14.764
76265SOL    HW130692   4.932   7.418  14.851
76265SOL    HW230693   5.050   7.364  14.772
76266SOL     OW30694   1.599   0.306   6.297
76266SOL    HW130695   1.625   0.215   6.284
76266SOL    HW230696   1.578   0.312   6.390
76267SOL     OW30697   3.712  13.480   6.844
76267SOL    HW130698   3.708  13.460   6.750
76267SOL    HW230699   3.796  13.523   6.856
76268SOL     OW30700  10.735  14.611  13.328
76268SOL    HW130701  10.686  14.689  13.304
76268SOL    HW230702  10.810  14.609  13.268
76269SOL     OW30703   1.728   4.335   1.253
76269SOL    HW130704   1.707   4.351   1.161
76269SOL    HW230705   1.820   4.309   1.252
76270SOL     OW30706  14.700   4.376   6.708
76270SOL    HW130707  14.775   4.437   6.709
76270SOL    HW230708  14.721   4.314   6.638
76271SOL     OW30709  12.103   1.914  11.042
76271SOL    HW130710  12.196   1.900  11.058
76271SOL    HW230711  12.060   1.874  11.118
76272SOL     OW30712  13.234  12.783   5.992
76272SOL    HW130713  13.279  12.814   5.914
76272SOL    HW230714  13.211  12.862   6.040
76273SOL     OW30715   9.604  14.118  12.496
76273SOL    HW130716   9.579  14.037  12.452
76273SOL    HW230717   9.645  14.090  12.578
76274SOL     OW30718   5.835   5.317  14.406
76274SOL    HW130719   5.755   5.328  14.457
76274SOL    HW230720   5.896   5.276  14.468
76275SOL     OW30721   9.186  13.974   2.849
76275SOL    HW130722   9.202  14.014   2.934
76275SOL    HW230723   9.105  14.013   2.818
76276SOL     OW30724  10.135   3.481  12.440
76276SOL    HW130725  10.079   3.487  12.518
76276SOL    HW230726  10.223   3.465  12.475
76277SOL     OW30727   7.830   0.692   6.076
76277SOL    HW130728   7.786   0.754   6.017
76277SOL    HW230729   7.900   0.653   6.023
76278SOL     OW30730   7.377  11.274   6.120
76278SOL    HW130731   7.358  11.197   6.066
76278SOL    HW230732   7.312  11.339   6.094
76279SOL     OW30733   6.417   4.295   5.461
76279SOL    HW130734   6.322   4.283   5.453
76279SOL    HW230735   6.430   4.322   5.552
76280SOL     OW30736  11.650   2.510   4.176
76280SOL    HW130737  11.556   2.529   4.184
76280SOL    HW230738  11.669   2.457   4.253
76281SOL     OW30739  10.364   0.754  13.769
76281SOL    HW130740  10.368   0.696  13.845
76281SOL    HW230741  10.454   0.760  13.739
76282SOL     OW30742   8.280   6.326  10.002
76282SOL    HW130743   8.336   6.397   9.974
76282SOL    HW230744   8.236   6.296   9.922
76283SOL     OW30745  11.506   7.095  10.892
76283SOL    HW130746  11.529   7.014  10.937
76283SOL    HW230747  11.529   7.079  10.800
76284SOL     OW30748   6.973   6.270   4.199
76284SOL    HW130749   6.980   6.354   4.153
76284SOL    HW230750   6.881   6.264   4.224
76285SOL     OW30751  12.860   0.937  12.849
76285SOL    HW130752  12.776   0.896  12.828
76285SOL    HW230753  12.839   0.999  12.919
76286SOL     OW30754   6.402  11.286   4.693
76286SOL    HW130755   6.375  11.277   4.602
76286SOL    HW230756   6.334  11.339   4.734
76287SOL     OW30757  12.701   3.059   1.197
76287SOL    HW130758  12.609   3.047   1.173
76287SOL    HW230759  12.742   3.090   1.116
76288SOL     OW30760   9.236   4.329   8.242
76288SOL    HW130761   9.166   4.386   8.211
76288SOL    HW230762   9.311   4.387   8.253
76289SOL     OW30763  12.465   8.099   1.732
76289SOL    HW130764  12.393   8.061   1.682
76289SOL    HW230765  12.430   8.181   1.767
76290SOL     OW30766  13.613   4.016   2.810
76290SOL    HW130767  13.624   4.028   2.904
76290SOL    HW230768  13.526   4.049   2.791
76291SOL     OW30769   5.852  14.666   2.013
76291SOL    HW130770   5.889  14.650   2.099
76291SOL    HW230771   5.911  14.620   1.953
76292SOL     OW30772   2.749  13.852   3.029
76292SOL    HW130773   2.717  13.791   3.095
76292SOL    HW230774   2.789  13.923   3.078
76293SOL     OW30775   0.011  13.652  14.125
76293SOL    HW130776   0.062  13.578  14.159
76293SOL    HW230777  14.827  13.612  14.068
76294SOL     OW30778   5.664  13.276  10.132
76294SOL    HW130779   5.688  13.284  10.224
76294SOL    HW230780   5.663  13.181  10.116
76295SOL     OW30781  12.431  11.882   2.310
76295SOL    HW130782  12.483  11.848   2.238
76295SOL    HW230783  12.340  11.867   2.283
76296SOL     OW30784   3.148   2.623  10.733
76296SOL    HW130785   3.096   2.632  10.812
76296SOL    HW230786   3.237   2.642  10.760
76297SOL     OW30787   8.802   1.060   8.635
76297SOL    HW130788   8.812   1.153   8.613
76297SOL    HW230789   8.891   1.031   8.656
76298SOL     OW30790   8.018   1.098  12.865
76298SOL    HW130791   8.031   1.192  12.878
76298SOL    HW230792   8.013   1.088  12.770
76299SOL     OW30793   3.137   7.363   3.128
76299SOL    HW130794   3.052   7.365   3.172
76299SOL    HW230795   3.162   7.455   3.121
76300SOL     OW30796   6.505  10.358   9.037
76300SOL    HW130797   6.550  10.276   9.017
76300SOL    HW230798   6.507  10.362   9.133
76301SOL     OW30799  11.989  13.840   8.811
76301SOL    HW130800  11.901  13.805   8.794
76301SOL    HW230801  12.032  13.837   8.726
76302SOL     OW30802  11.308   4.053   2.314
76302SOL    HW130803  11.351   3.985   2.366
76302SOL    HW230804  11.362   4.131   2.327
76303SOL     OW30805   9.107  11.253  14.772
76303SOL    HW130806   9.042  11.321  14.793
76303SOL    HW230807   9.178  11.301  14.729
76304SOL     OW30808   8.049   2.943  12.682
76304SOL    HW130809   8.035   2.919  12.774
76304SOL    HW230810   8.038   3.038  12.681
76305SOL     OW30811  13.870   5.239   0.005
76305SOL    HW130812  13.806   5.168  14.882
76305SOL    HW230813  13.824   5.315  14.852
76306SOL     OW30814   5.466  14.260   3.533
76306SOL    HW130815   5.473  14.286   3.625
76306SOL    HW230816   5.489  14.339   3.484
76307SOL     OW30817   9.549  14.443  13.054
76307SOL    HW130818   9.556  14.539  13.050
76307SOL    HW230819   9.519  14.418  12.967
76308SOL     OW30820  12.059   4.652   3.296
76308SOL    HW130821  12.107   4.643   3.379
76308SOL    HW230822  12.128   4.657   3.229
76309SOL     OW30823  12.953   3.610   3.518
76309SOL    HW130824  12.934   3.517   3.525
76309SOL    HW230825  12.973   3.637   3.608
76310SOL     OW30826  11.484  12.076   4.435
76310SOL    HW130827  11.457  12.009   4.372
76310SOL    HW230828  11.570  12.104   4.404
76311SOL     OW30829  11.866   7.129   7.226
76311SOL    HW130830  11.817   7.140   7.307
76311SOL    HW230831  11.874   7.034   7.215
76312SOL     OW30832   5.468  14.563   5.219
76312SOL    HW130833   5.399  14.545   5.155
76312SOL    HW230834   5.431  14.633   5.274
76313SOL     OW30835   3.317   8.722  14.746
76313SOL    HW130836   3.289   8.763  14.663
76313SOL    HW230837   3.411   8.741  14.751
76314SOL     OW30838  12.954   1.439  12.662
76314SOL    HW130839  12.989   1.509  12.607
76314SOL    HW230840  12.921   1.484  12.740
76315SOL     OW30841   5.807   6.672   2.527
76315SOL    HW130842   5.847   6.594   2.487
76315SOL    HW230843   5.879   6.713   2.575
76316SOL     OW30844   6.438   2.955   6.984
76316SOL    HW130845   6.383   2.971   6.907
76316SOL    HW230846   6.430   2.860   7.000
76317SOL     OW30847   7.605   6.451   3.368
76317SOL    HW130848   7.605   6.359   3.341
76317SOL    HW230849   7.513   6.475   3.373
76318SOL     OW30850   1.671   2.868   3.001
76318SOL    HW130851   1.654   2.931   2.931
76318SOL    HW230852   1.625   2.904   3.077
76319SOL     OW30853   3.130   3.177   2.840
76319SOL    HW130854   3.175   3.184   2.924
76319SOL    HW230855   3.082   3.260   2.833
76320SOL     OW30856   5.459   7.456   4.837
76320SOL    HW130857   5.506   7.502   4.768
76320SOL    HW230858   5.476   7.507   4.916
76321SOL     OW30859  11.885   5.423   5.552
76321SOL    HW130860  11.951   5.418   5.621
76321SOL    HW230861  11.896   5.342   5.501
76322SOL     OW30862   6.999  10.144   0.995
76322SOL    HW130863   6.968  10.234   1.005
76322SOL    HW230864   7.033  10.140   0.906
76323SOL     OW30865  10.999   7.811  12.893
76323SOL    HW130866  11.079   7.862  12.897
76323SOL    HW230867  10.935   7.869  12.852
76324SOL     OW30868  12.812   5.971   7.528
76324SOL    HW130869  12.740   5.990   7.588
76324SOL    HW230870  12.824   5.877   7.535
76325SOL     OW30871  12.178   0.612  12.984
76325SOL    HW130872  12.231   0.680  12.943
76325SOL    HW230873  12.210   0.530  12.946
76326SOL     OW30874   8.152   2.724   6.681
76326SOL    HW130875   8.244   2.734   6.659
76326SOL    HW230876   8.150   2.717   6.776
76327SOL     OW30877   7.783   3.079   4.523
76327SOL    HW130878   7.864   3.036   4.552
76327SOL    HW230879   7.723   3.007   4.504
76328SOL     OW30880   7.233   7.804   4.030
76328SOL    HW130881   7.196   7.742   3.968
76328SOL    HW230882   7.196   7.778   4.115
76329SOL     OW30883  11.985  14.405  12.096
76329SOL    HW130884  12.038  14.424  12.018
76329SOL    HW230885  11.907  14.363  12.061
76330SOL     OW30886  13.907   5.993   9.368
76330SOL    HW130887  13.845   6.051   9.412
76330SOL    HW230888  13.887   6.001   9.275
76331SOL     OW30889   2.382   8.896   9.840
76331SOL    HW130890   2.381   8.990   9.828
76331SOL    HW230891   2.387   8.884   9.935
76332SOL     OW30892   0.855   2.625   9.669
76332SOL    HW130893   0.906   2.611   9.589
76332SOL    HW230894   0.816   2.712   9.657
76333SOL     OW30895   1.710   8.958   0.712
76333SOL    HW130896   1.693   8.933   0.622
76333SOL    HW230897   1.725   9.053   0.709
76334SOL     OW30898  11.503  13.955   6.630
76334SOL    HW130899  11.560  13.994   6.696
76334SOL    HW230900  11.435  14.021   6.615
76335SOL     OW30901   5.703  13.411   9.124
76335SOL    HW130902   5.766  13.454   9.066
76335SOL    HW230903   5.751  13.339   9.162
76336SOL     OW30904  13.340   0.731   1.346
76336SOL    HW130905  13.311   0.746   1.437
76336SOL    HW230906  13.358   0.637   1.343
76337SOL     OW30907   6.226   5.277   2.685
76337SOL    HW130908   6.238   5.210   2.618
76337SOL    HW230909   6.312   5.321   2.691
76338SOL     OW30910   9.867  14.149   4.261
76338SOL    HW130911   9.923  14.153   4.338
76338SOL    HW230912   9.925  14.170   4.188
76339SOL     OW30913   5.457  12.101   7.806
76339SOL    HW130914   5.363  12.104   7.788
76339SOL    HW230915   5.499  12.128   7.724
76340SOL     OW30916   1.771   1.689   9.546
76340SOL    HW130917   1.749   1.696   9.453
76340SOL    HW230918   1.689   1.705   9.591
76341SOL     OW30919   3.993   4.850   8.747
76341SOL    HW130920   3.965   4.895   8.667
76341SOL    HW230921   3.946   4.894   8.817
76342SOL     OW30922   4.945  14.329   8.389
76342SOL    HW130923   5.007  14.266   8.427
76342SOL    HW230924   4.984  14.414   8.407
76343SOL     OW30925   5.741   8.961  14.085
76343SOL    HW130926   5.722   8.872  14.055
76343SOL    HW230927   5.805   8.994  14.022
76344SOL     OW30928  11.978   8.158   9.507
76344SOL    HW130929  11.976   8.093   9.437
76344SOL    HW230930  11.892   8.201   9.503
76345SOL     OW30931  12.741   5.420   1.882
76345SOL    HW130932  12.651   5.410   1.850
76345SOL    HW230933  12.794   5.423   1.803
76346SOL     OW30934  10.252  12.516   8.247
76346SOL    HW130935  10.305  12.552   8.318
76346SOL    HW230936  10.202  12.446   8.287
76347SOL     OW30937   1.308   1.988  11.114
76347SOL    HW130938   1.251   2.066  11.112
76347SOL    HW230939   1.309   1.958  11.023
76348SOL     OW30940  12.025   4.919   9.444
76348SOL    HW130941  12.030   4.919   9.349
76348SOL    HW230942  12.019   4.826   9.467
76349SOL     OW30943   7.507   4.555   3.428
76349SOL    HW130944   7.493   4.491   3.359
76349SOL    HW230945   7.427   4.608   3.428
76350SOL     OW30946   5.933   3.135   7.715
76350SOL    HW130947   5.911   3.115   7.806
76350SOL    HW230948   5.879   3.075   7.663
76351SOL     OW30949   3.973  12.846   4.619
76351SOL    HW130950   3.980  12.825   4.712
76351SOL    HW230951   4.063  12.866   4.592
76352SOL     OW30952  11.110   6.969   8.773
76352SOL    HW130953  11.188   6.937   8.727
76352SOL    HW230954  11.122   7.064   8.777
76353SOL     OW30955   3.338   8.477   2.848
76353SOL    HW130956   3.368   8.539   2.781
76353SOL    HW230957   3.326   8.530   2.926
76354SOL     OW30958   8.594   6.781  10.633
76354SOL    HW130959   8.622   6.732  10.710
76354SOL    HW230960   8.546   6.716  10.580
76355SOL     OW30961   8.890  13.041   3.344
76355SOL    HW130962   8.804  13.041   3.301
76355SOL    HW230963   8.914  13.133   3.349
76356SOL     OW30964   9.299   6.753   1.786
76356SOL    HW130965   9.259   6.754   1.699
76356SOL    HW230966   9.281   6.666   1.820
76357SOL     OW30967   6.830  14.586   4.048
76357SOL    HW130968   6.884  14.659   4.077
76357SOL    HW230969   6.757  14.627   4.002
76358SOL     OW30970  11.514  10.504   2.913
76358SOL    HW130971  11.473  10.566   2.853
76358SOL    HW230972  11.557  10.559   2.979
76359SOL     OW30973   9.439   3.856   9.805
76359SOL    HW130974   9.519   3.899   9.773
76359SOL    HW230975   9.383   3.849   9.727
76360SOL     OW30976   5.333   8.246  11.249
76360SOL    HW130977   5.336   8.167  11.303
76360SOL    HW230978   5.243   8.249  11.216
76361SOL     OW30979  12.826   5.414   1.246
76361SOL    HW130980  12.733   5.432   1.230
76361SOL    HW230981  12.866   5.500   1.255
76362SOL     OW30982   7.973  10.439   8.597
76362SOL    HW130983   8.022  10.503   8.546
76362SOL    HW230984   7.966  10.362   8.540
76363SOL     OW30985  14.214   0.055   5.086
76363SOL    HW130986  14.242   0.146   5.089
76363SOL    HW230987  14.232   0.021   5.174
76364SOL     OW30988   9.117  14.413   4.199
76364SOL    HW130989   9.174  14.453   4.133
76364SOL    HW230990   9.137  14.462   4.279
76365SOL     OW30991   6.568   6.657   3.750
76365SOL    HW130992   6.653   6.613   3.753
76365SOL    HW230993   6.504   6.588   3.766
76366SOL     OW30994  11.106   3.738   3.267
76366SOL    HW130995  11.060   3.796   3.328
76366SOL    HW230996  11.038   3.706   3.208
76367SOL     OW30997   0.265   7.575  11.032
76367SOL    HW130998   0.320   7.505  11.066
76367SOL    HW230999   0.176   7.540  11.034
76368SOL     OW31000   0.734  13.189   5.011
76368SOL    HW131001   0.707  13.103   4.980
76368SOL    HW231002   0.739  13.180   5.106
76369SOL     OW31003  11.096  11.885   9.874
76369SOL    HW131004  11.117  11.800   9.836
76369SOL    HW231005  11.087  11.868   9.967
76370SOL     OW31006  13.974  12.228   2.187
76370SOL    HW131007  14.041  12.159   2.185
76370SOL    HW231008  13.987  12.276   2.105
76371SOL     OW31009   6.018   3.684   3.340
76371SOL    HW131010   6.004   3.609   3.398
76371SOL    HW231011   6.025   3.645   3.252
76372SOL     OW31012   3.259  11.792   4.577
76372SOL    HW131013   3.263  11.800   4.672
76372SOL    HW231014   3.167  11.770   4.559
76373SOL     OW31015  12.076   0.784  10.583
76373SOL    HW131016  12.048   0.875  10.597
76373SOL    HW231017  11.998   0.741  10.548
76374SOL     OW31018   3.576  12.399   8.916
76374SOL    HW131019   3.565  12.465   8.847
76374SOL    HW231020   3.625  12.328   8.873
76375SOL     OW31021  12.708   4.030   0.495
76375SOL    HW131022  12.773   4.095   0.523
76375SOL    HW231023  12.712   4.031   0.400
76376SOL     OW31024   7.384   3.228  11.230
76376SOL    HW131025   7.330   3.149  11.225
76376SOL    HW231026   7.342   3.281  11.298
76377SOL     OW31027   4.365   5.051  14.065
76377SOL    HW131028   4.379   5.017  13.976
76377SOL    HW231029   4.338   5.142  14.052
76378SOL     OW31030   3.120  14.552  14.835
76378SOL    HW131031   3.192  14.504  14.795
76378SOL    HW231032   3.108  14.629  14.779
76379SOL     OW31033   0.920   4.056   7.369
76379SOL    HW131034   0.919   4.006   7.451
76379SOL    HW231035   0.880   4.140   7.392
76380SOL     OW31036   3.985  13.181  11.105
76380SOL    HW131037   4.080  13.188  11.106
76380SOL    HW231038   3.959  13.198  11.196
76381SOL     OW31039  13.325  10.782   3.934
76381SOL    HW131040  13.367  10.710   3.982
76381SOL    HW231041  13.373  10.860   3.961
76382SOL     OW31042  12.853  13.441  14.712
76382SOL    HW131043  12.845  13.354  14.675
76382SOL    HW231044  12.915  13.432  14.784
76383SOL     OW31045  13.576   3.129  12.741
76383SOL    HW131046  13.597   3.190  12.670
76383SOL    HW231047  13.623   3.049  12.718
76384SOL     OW31048  14.105   3.230   7.776
76384SOL    HW131049  14.132   3.171   7.706
76384SOL    HW231050  14.094   3.315   7.733
76385SOL     OW31051   1.940   7.940  11.835
76385SOL    HW131052   1.848   7.964  11.843
76385SOL    HW231053   1.975   8.004  11.772
76386SOL     OW31054  13.840   5.209   7.882
76386SOL    HW131055  13.759   5.234   7.926
76386SOL    HW231056  13.910   5.247   7.936
76387SOL     OW31057   0.023  12.516   0.036
76387SOL    HW131058  14.832  12.458   0.017
76387SOL    HW231059  14.882  12.558   0.119
76388SOL     OW31060   7.333  12.509   2.364
76388SOL    HW131061   7.310  12.423   2.328
76388SOL    HW231062   7.427  12.517   2.348
76389SOL     OW31063   5.730   3.402  10.020
76389SOL    HW131064   5.685   3.357   9.949
76389SOL    HW231065   5.742   3.491   9.989
76390SOL     OW31066   8.641   4.645  11.517
76390SOL    HW131067   8.649   4.732  11.478
76390SOL    HW231068   8.643   4.661  11.611
76391SOL     OW31069   6.742   7.269   4.177
76391SOL    HW131070   6.798   7.333   4.133
76391SOL    HW231071   6.799   7.195   4.195
76392SOL     OW31072   2.245  11.486  10.763
76392SOL    HW131073   2.167  11.543  10.759
76392SOL    HW231074   2.276  11.496  10.853
76393SOL     OW31075   9.951   9.216  12.111
76393SOL    HW131076   9.964   9.310  12.102
76393SOL    HW231077   9.913   9.205  12.198
76394SOL     OW31078   9.663  13.299  13.463
76394SOL    HW131079   9.738  13.308  13.404
76394SOL    HW231080   9.603  13.369  13.436
76395SOL     OW31081  14.787   9.909   8.182
76395SOL    HW131082  14.729   9.833   8.195
76395SOL    HW231083  14.819   9.929   8.269
76396SOL     OW31084   5.761  13.260   7.513
76396SOL    HW131085   5.720  13.214   7.440
76396SOL    HW231086   5.780  13.348   7.479
76397SOL     OW31087   2.057   4.275  11.881
76397SOL    HW131088   1.993   4.337  11.846
76397SOL    HW231089   2.020   4.189  11.860
76398SOL     OW31090   6.313  11.057  10.905
76398SOL    HW131091   6.296  11.138  10.857
76398SOL    HW231092   6.407  11.042  10.895
76399SOL     OW31093   1.313  13.259   0.586
76399SOL    HW131094   1.304  13.179   0.637
76399SOL    HW231095   1.406  13.267   0.569
76400SOL     OW31096  10.180   0.785   0.733
76400SOL    HW131097  10.106   0.841   0.712
76400SOL    HW231098  10.220   0.766   0.648
76401SOL     OW31099   9.918   8.755   5.652
76401SOL    HW131100   9.903   8.671   5.609
76401SOL    HW231101   9.913   8.734   5.746
76402SOL     OW31102   7.718   0.017   7.913
76402SOL    HW131103   7.792  14.851   7.949
76402SOL    HW231104   7.758   0.087   7.860
76403SOL     OW31105   0.123   8.247  14.327
76403SOL    HW131106   0.121   8.330  14.374
76403SOL    HW231107   0.032   8.218  14.325
76404SOL     OW31108   1.248  12.732   7.993
76404SOL    HW131109   1.317  12.758   8.054
76404SOL    HW231110   1.274  12.645   7.962
76405SOL     OW31111  13.787  11.309   5.859
76405SOL    HW131112  13.698  11.274   5.864
76405SOL    HW231113  13.800  11.328   5.766
76406SOL     OW31114   9.986   5.580   7.461
76406SOL    HW131115   9.912   5.557   7.405
76406SOL    HW231116  10.045   5.505   7.455
76407SOL     OW31117   0.994  14.380   1.007
76407SOL    HW131118   0.997  14.427   1.091
76407SOL    HW231119   1.086  14.376   0.979
76408SOL     OW31120   1.603  11.532   5.533
76408SOL    HW131121   1.638  11.618   5.554
76408SOL    HW231122   1.604  11.528   5.437
76409SOL     OW31123  11.134  13.151   2.644
76409SOL    HW131124  11.158  13.201   2.566
76409SOL    HW231125  11.056  13.102   2.618
76410SOL     OW31126   7.098  13.568   6.747
76410SOL    HW131127   7.043  13.575   6.826
76410SOL    HW231128   7.089  13.477   6.720
76411SOL     OW31129  12.440  10.851   8.631
76411SOL    HW131130  12.532  10.841   8.607
76411SOL    HW231131  12.412  10.929   8.584
76412SOL     OW31132   3.642   9.534   6.898
76412SOL    HW131133   3.650   9.622   6.861
76412SOL    HW231134   3.697   9.479   6.842
76413SOL     OW31135  12.437   6.694   9.563
76413SOL    HW131136  12.360   6.748   9.548
76413SOL    HW231137  12.424   6.659   9.652
76414SOL     OW31138   4.834   6.195   8.476
76414SOL    HW131139   4.835   6.147   8.393
76414SOL    HW231140   4.745   6.229   8.482
76415SOL     OW31141   4.645   6.276   6.713
76415SOL    HW131142   4.579   6.314   6.772
76415SOL    HW231143   4.600   6.268   6.629
76416SOL     OW31144   6.517  11.781  12.888
76416SOL    HW131145   6.593  11.818  12.842
76416SOL    HW231146   6.552  11.703  12.931
76417SOL     OW31147   1.399  11.405   5.273
76417SOL    HW131148   1.358  11.479   5.318
76417SOL    HW231149   1.400  11.335   5.338
76418SOL     OW31150   4.097  12.024   9.142
76418SOL    HW131151   4.016  11.974   9.149
76418SOL    HW231152   4.166  11.958   9.145
76419SOL     OW31153  13.158   6.338   3.847
76419SOL    HW131154  13.163   6.320   3.940
76419SOL    HW231155  13.154   6.433   3.841
76420SOL     OW31156   6.484  10.256   6.746
76420SOL    HW131157   6.465  10.347   6.769
76420SOL    HW231158   6.444  10.205   6.816
76421SOL     OW31159   4.734  14.181   8.359
76421SOL    HW131160   4.801  14.250   8.362
76421SOL    HW231161   4.783  14.099   8.369
76422SOL     OW31162  10.294  14.373   0.597
76422SOL    HW131163  10.318  14.465   0.606
76422SOL    HW231164  10.257  14.348   0.682
76423SOL     OW31165   4.529   1.749   1.047
76423SOL    HW131166   4.482   1.697   0.982
76423SOL    HW231167   4.579   1.812   0.995
76424SOL     OW31168   5.915   0.419   5.725
76424SOL    HW131169   6.007   0.446   5.728
76424SOL    HW231170   5.870   0.491   5.682
76425SOL     OW31171   1.381   0.023  14.246
76425SOL    HW131172   1.462  14.857  14.232
76425SOL    HW231173   1.394   0.068  14.330
76426SOL     OW31174   6.354   1.913  13.635
76426SOL    HW131175   6.332   1.872  13.719
76426SOL    HW231176   6.311   1.858  13.569
76427SOL     OW31177  12.779  12.307  10.930
76427SOL    HW131178  12.709  12.256  10.890
76427SOL    HW231179  12.859  12.271  10.892
76428SOL     OW31180   5.808   2.174   6.186
76428SOL    HW131181   5.849   2.216   6.111
76428SOL    HW231182   5.865   2.196   6.260
76429SOL     OW31183   1.709   6.606   8.165
76429SOL    HW131184   1.617   6.588   8.143
76429SOL    HW231185   1.758   6.573   8.089
76430SOL     OW31186  12.005  13.452   5.750
76430SOL    HW131187  11.974  13.366   5.721
76430SOL    HW231188  12.084  13.468   5.699
76431SOL     OW31189   2.497  11.073   5.511
76431SOL    HW131190   2.579  11.033   5.540
76431SOL    HW231191   2.450  11.004   5.465
76432SOL     OW31192   6.856   2.501  11.579
76432SOL    HW131193   6.848   2.417  11.534
76432SOL    HW231194   6.941   2.497  11.623
76433SOL     OW31195   0.408  14.133  13.236
76433SOL    HW131196   0.415  14.204  13.300
76433SOL    HW231197   0.321  14.145  13.196
76434SOL     OW31198  13.837   3.899   2.529
76434SOL    HW131199  13.917   3.947   2.552
76434SOL    HW231200  13.857   3.808   2.552
76435SOL     OW31201   3.301  11.577   0.806
76435SOL    HW131202   3.395  11.560   0.791
76435SOL    HW231203   3.297  11.618   0.892
76436SOL     OW31204   8.012   4.981  10.793
76436SOL    HW131205   8.096   4.982  10.748
76436SOL    HW231206   8.004   4.892  10.828
76437SOL     OW31207   4.726   0.757   8.874
76437SOL    HW131208   4.640   0.744   8.914
76437SOL    HW231209   4.717   0.722   8.786
76438SOL     OW31210   0.635   3.911   9.015
76438SOL    HW131211   0.631   3.958   9.099
76438SOL    HW231212   0.696   3.962   8.962
76439SOL     OW31213  10.083  12.664  12.240
76439SOL    HW131214  10.090  12.708  12.324
76439SOL    HW231215   9.996  12.686  12.208
76440SOL     OW31216  14.537  14.060   3.757
76440SOL    HW131217  14.581  14.079   3.674
76440SOL    HW231218  14.504  14.144   3.787
76441SOL     OW31219  14.802  14.490   0.076
76441SOL    HW131220  14.715  14.528   0.092
76441SOL    HW231221  14.786  14.417   0.017
76442SOL     OW31222   7.524   2.353   5.715
76442SOL    HW131223   7.493   2.444   5.716
76442SOL    HW231224   7.536   2.331   5.807
76443SOL     OW31225  11.796  12.936   3.661
76443SOL    HW131226  11.730  13.002   3.642
76443SOL    HW231227  11.848  12.931   3.580
76444SOL     OW31228  11.756   9.478   5.216
76444SOL    HW131229  11.696   9.540   5.175
76444SOL    HW231230  11.838   9.527   5.224
76445SOL     OW31231  13.455  13.309   2.130
76445SOL    HW131232  13.422  13.397   2.146
76445SOL    HW231233  13.409  13.280   2.051
76446SOL     OW31234  11.855   1.380   3.538
76446SOL    HW131235  11.772   1.421   3.513
76446SOL    HW231236  11.909   1.385   3.459
76447SOL     OW31237   7.727   7.115   2.191
76447SOL    HW131238   7.771   7.077   2.267
76447SOL    HW231239   7.637   7.084   2.197
76448SOL     OW31240   8.829  13.084   0.721
76448SOL    HW131241   8.872  13.015   0.670
76448SOL    HW231242   8.875  13.164   0.697
76449SOL     OW31243   3.076   6.552   5.418
76449SOL    HW131244   3.107   6.544   5.328
76449SOL    HW231245   2.981   6.537   5.412
76450SOL     OW31246  11.729   1.208   3.755
76450SOL    HW131247  11.770   1.250   3.830
76450SOL    HW231248  11.754   1.263   3.680
76451SOL     OW31249  10.911   8.381   7.381
76451SOL    HW131250  10.936   8.420   7.465
76451SOL    HW231251  10.848   8.443   7.344
76452SOL     OW31252   8.713   5.633  14.324
76452SOL    HW131253   8.768   5.707  14.350
76452SOL    HW231254   8.623   5.664  14.335
76453SOL     OW31255   4.760  10.831  10.973
76453SOL    HW131256   4.802  10.885  10.906
76453SOL    HW231257   4.690  10.785  10.926
76454SOL     OW31258   0.486   7.587   5.785
76454SOL    HW131259   0.502   7.674   5.750
76454SOL    HW231260   0.439   7.541   5.716
76455SOL     OW31261   6.704   8.647   8.993
76455SOL    HW131262   6.624   8.644   8.940
76455SOL    HW231263   6.710   8.561   9.034
76456SOL     OW31264   6.579  12.557   0.162
76456SOL    HW131265   6.605  12.648   0.179
76456SOL    HW231266   6.571  12.552   0.067
76457SOL     OW31267   1.859  13.968   0.482
76457SOL    HW131268   1.936  13.911   0.472
76457SOL    HW231269   1.812  13.958   0.400
76458SOL     OW31270   4.260  10.835   3.698
76458SOL    HW131271   4.201  10.784   3.643
76458SOL    HW231272   4.278  10.914   3.648
76459SOL     OW31273  10.767  10.521   2.513
76459SOL    HW131274  10.737  10.544   2.425
76459SOL    HW231275  10.717  10.578   2.571
76460SOL     OW31276   7.206   5.665  12.304
76460SOL    HW131277   7.240   5.709  12.226
76460SOL    HW231278   7.112   5.661  12.290
76461SOL     OW31279   0.835   8.517  12.143
76461SOL    HW131280   0.926   8.524  12.170
76461SOL    HW231281   0.811   8.605  12.115
76462SOL     OW31282  12.488  14.528   9.837
76462SOL    HW131283  12.502  14.433   9.835
76462SOL    HW231284  12.553  14.563   9.776
76463SOL     OW31285   4.473   7.649  11.401
76463SOL    HW131286   4.549   7.618  11.352
76463SOL    HW231287   4.486   7.614  11.489
76464SOL     OW31288   4.327   8.120   5.294
76464SOL    HW131289   4.345   8.151   5.382
76464SOL    HW231290   4.357   8.029   5.294
76465SOL     OW31291  11.431   2.328  11.487
76465SOL    HW131292  11.375   2.268  11.537
76465SOL    HW231293  11.387   2.337  11.403
76466SOL     OW31294  14.738   6.775  11.232
76466SOL    HW131295  14.701   6.863  11.241
76466SOL    HW231296  14.669   6.724  11.190
76467SOL     OW31297   0.843  13.647   4.128
76467SOL    HW131298   0.796  13.564   4.116
76467SOL    HW231299   0.905  13.629   4.199
76468SOL     OW31300  14.493  10.822   5.164
76468SOL    HW131301  14.448  10.849   5.083
76468SOL    HW231302  14.554  10.894   5.182
76469SOL     OW31303  12.497   0.980  10.112
76469SOL    HW131304  12.518   1.070  10.138
76469SOL    HW231305  12.549   0.965  10.033
76470SOL     OW31306   8.139   7.975   5.930
76470SOL    HW131307   8.122   7.888   5.966
76470SOL    HW231308   8.175   8.025   6.003
76471SOL     OW31309   2.733  14.630   9.936
76471SOL    HW131310   2.761  14.645  10.026
76471SOL    HW231311   2.779  14.697   9.885
76472SOL     OW31312   0.176   2.877   8.832
76472SOL    HW131313   0.269   2.880   8.851
76472SOL    HW231314   0.171   2.869   8.737
76473SOL     OW31315  10.877  12.931  11.280
76473SOL    HW131316  10.823  12.852  11.287
76473SOL    HW231317  10.867  12.960  11.190
76474SOL     OW31318   9.887   9.780  11.820
76474SOL    HW131319   9.873   9.803  11.728
76474SOL    HW231320   9.899   9.864  11.864
76475SOL     OW31321   3.205   2.775   2.450
76475SOL    HW131322   3.277   2.730   2.494
76475SOL    HW231323   3.157   2.818   2.521
76476SOL     OW31324   9.128   1.435   7.774
76476SOL    HW131325   9.053   1.487   7.800
76476SOL    HW231326   9.157   1.391   7.855
76477SOL     OW31327  11.530   0.374   9.223
76477SOL    HW131328  11.493   0.445   9.276
76477SOL    HW231329  11.544   0.303   9.285
76478SOL     OW31330  12.339   9.035   9.686
76478SOL    HW131331  12.399   9.061   9.756
76478SOL    HW231332  12.360   9.094   9.614
76479SOL     OW31333   7.379   8.815   2.337
76479SOL    HW131334   7.384   8.876   2.264
76479SOL    HW231335   7.286   8.808   2.357
76480SOL     OW31336  12.829  13.911   4.460
76480SOL    HW131337  12.807  13.858   4.384
76480SOL    HW231338  12.855  13.996   4.424
76481SOL     OW31339  12.024   0.603   9.383
76481SOL    HW131340  11.999   0.522   9.338
76481SOL    HW231341  11.978   0.672   9.334
76482SOL     OW31342   7.738  10.236   6.742
76482SOL    HW131343   7.811  10.187   6.703
76482SOL    HW231344   7.728  10.198   6.829
76483SOL     OW31345  11.381   0.441  13.882
76483SOL    HW131346  11.465   0.395  13.883
76483SOL    HW231347  11.405   0.534  13.884
76484SOL     OW31348  10.866  13.587   2.036
76484SOL    HW131349  10.875  13.682   2.025
76484SOL    HW231350  10.907  13.550   1.958
76485SOL     OW31351  12.156  10.353   2.627
76485SOL    HW131352  12.082  10.414   2.618
76485SOL    HW231353  12.150  10.297   2.550
76486SOL     OW31354   3.968   3.781   5.242
76486SOL    HW131355   4.025   3.855   5.221
76486SOL    HW231356   3.952   3.738   5.158
76487SOL     OW31357   3.073  12.395   9.465
76487SOL    HW131358   3.002  12.457   9.448
76487SOL    HW231359   3.108  12.421   9.551
76488SOL     OW31360  12.631   0.644   5.797
76488SOL    HW131361  12.538   0.640   5.777
76488SOL    HW231362  12.659   0.553   5.800
76489SOL     OW31363   7.421   2.881   2.983
76489SOL    HW131364   7.479   2.956   2.971
76489SOL    HW231365   7.431   2.857   3.075
76490SOL     OW31366  12.549   1.652   7.442
76490SOL    HW131367  12.579   1.738   7.413
76490SOL    HW231368  12.545   1.599   7.363
76491SOL     OW31369   4.865   6.380   4.853
76491SOL    HW131370   4.943   6.337   4.888
76491SOL    HW231371   4.900   6.448   4.795
76492SOL     OW31372   4.133  14.116   3.772
76492SOL    HW131373   4.059  14.096   3.715
76492SOL    HW231374   4.175  14.192   3.732
76493SOL     OW31375   8.119   3.250   1.109
76493SOL    HW131376   8.092   3.239   1.200
76493SOL    HW231377   8.211   3.221   1.108
76494SOL     OW31378   7.840   8.660  10.204
76494SOL    HW131379   7.779   8.661  10.277
76494SOL    HW231380   7.846   8.568  10.179
76495SOL     OW31381   1.534  12.615   7.582
76495SOL    HW131382   1.579  12.536   7.553
76495SOL    HW231383   1.516  12.664   7.502
76496SOL     OW31384   8.311   9.777   8.376
76496SOL    HW131385   8.321   9.806   8.467
76496SOL    HW231386   8.319   9.681   8.381
76497SOL     OW31387   2.489   5.372   6.108
76497SOL    HW131388   2.477   5.458   6.148
76497SOL    HW231389   2.449   5.310   6.169
76498SOL     OW31390   9.923   7.682  11.987
76498SOL    HW131391   9.857   7.694  12.056
76498SOL    HW231392   9.906   7.754  11.925
76499SOL     OW31393   3.280   1.060  11.786
76499SOL    HW131394   3.188   1.057  11.812
76499SOL    HW231395   3.316   0.978  11.820
76500SOL     OW31396   2.946   3.354  11.852
76500SOL    HW131397   2.995   3.367  11.933
76500SOL    HW231398   2.856   3.378  11.874
76501SOL     OW31399   7.541   0.662  10.102
76501SOL    HW131400   7.587   0.648  10.020
76501SOL    HW231401   7.460   0.611  10.094
76502SOL     OW31402   8.272   0.799   6.447
76502SOL    HW131403   8.186   0.777   6.484
76502SOL    HW231404   8.281   0.893   6.460
76503SOL     OW31405  11.552  13.985  14.383
76503SOL    HW131406  11.491  13.917  14.356
76503SOL    HW231407  11.555  14.045  14.308
76504SOL     OW31408   6.998   0.819   6.975
76504SOL    HW131409   6.942   0.884   6.932
76504SOL    HW231410   7.087   0.847   6.954
76505SOL     OW31411   1.631  14.172   4.639
76505SOL    HW131412   1.641  14.202   4.548
76505SOL    HW231413   1.539  14.190   4.660
76506SOL     OW31414   5.575   8.797   1.923
76506SOL    HW131415   5.644   8.736   1.949
76506SOL    HW231416   5.504   8.740   1.893
76507SOL     OW31417   3.826  13.590   5.479
76507SOL    HW131418   3.870  13.666   5.516
76507SOL    HW231419   3.824  13.526   5.550
76508SOL     OW31420   9.433  13.780   5.771
76508SOL    HW131421   9.409  13.825   5.852
76508SOL    HW231422   9.468  13.849   5.714
76509SOL     OW31423   8.639   4.231   6.721
76509SOL    HW131424   8.567   4.183   6.680
76509SOL    HW231425   8.635   4.318   6.681
76510SOL     OW31426  11.928   5.201   7.476
76510SOL    HW131427  11.913   5.109   7.501
76510SOL    HW231428  11.842   5.233   7.449
76511SOL     OW31429  13.543   3.137   8.418
76511SOL    HW131430  13.632   3.151   8.384
76511SOL    HW231431  13.552   3.067   8.482
76512SOL     OW31432   1.137   6.368   9.793
76512SOL    HW131433   1.122   6.282   9.831
76512SOL    HW231434   1.190   6.352   9.715
76513SOL     OW31435   9.537   3.181   4.876
76513SOL    HW131436   9.457   3.131   4.857
76513SOL    HW231437   9.543   3.180   4.972
76514SOL     OW31438   7.013   7.161   6.872
76514SOL    HW131439   6.988   7.253   6.874
76514SOL    HW231440   6.976   7.128   6.790
76515SOL     OW31441   8.074   9.106   1.445
76515SOL    HW131442   8.006   9.062   1.495
76515SOL    HW231443   8.156   9.067   1.476
76516SOL     OW31444   1.743   8.006  14.228
76516SOL    HW131445   1.769   8.007  14.135
76516SOL    HW231446   1.824   7.985  14.274
76517SOL     OW31447   2.236   2.502   6.114
76517SOL    HW131448   2.311   2.508   6.173
76517SOL    HW231449   2.237   2.411   6.084
76518SOL     OW31450   3.416   9.014   0.873
76518SOL    HW131451   3.412   9.109   0.857
76518SOL    HW231452   3.384   8.975   0.791
76519SOL     OW31453  11.692  14.514  13.015
76519SOL    HW131454  11.688  14.441  13.077
76519SOL    HW231455  11.668  14.590  13.067
76520SOL     OW31456   6.483   6.124  12.394
76520SOL    HW131457   6.461   6.031  12.391
76520SOL    HW231458   6.400   6.168  12.375
76521SOL     OW31459   2.641  13.483   8.865
76521SOL    HW131460   2.642  13.510   8.957
76521SOL    HW231461   2.731  13.493   8.836
76522SOL     OW31462  14.076   8.244  11.662
76522SOL    HW131463  14.104   8.253  11.753
76522SOL    HW231464  14.024   8.322  11.645
76523SOL     OW31465   9.423  10.103   0.072
76523SOL    HW131466   9.335  10.066   0.066
76523SOL    HW231467   9.448  10.118  14.863
76524SOL     OW31468   8.564   8.067   9.640
76524SOL    HW131469   8.477   8.095   9.612
76524SOL    HW231470   8.555   7.972   9.653
76525SOL     OW31471   5.158   8.128   9.313
76525SOL    HW131472   5.131   8.112   9.223
76525SOL    HW231473   5.230   8.067   9.328
76526SOL     OW31474   4.931   0.014   6.876
76526SOL    HW131475   4.976   0.043   6.797
76526SOL    HW231476   4.999  14.852   6.928
76527SOL     OW31477   5.221  11.773   9.368
76527SOL    HW131478   5.251  11.682   9.359
76527SOL    HW231479   5.280  11.823   9.312
76528SOL     OW31480   7.285  11.693  10.297
76528SOL    HW131481   7.355  11.743  10.255
76528SOL    HW231482   7.239  11.650  10.225
76529SOL     OW31483  10.027   6.019   9.556
76529SOL    HW131484  10.116   6.050   9.575
76529SOL    HW231485  10.029   5.926   9.582
76530SOL     OW31486   0.145   4.600   0.710
76530SOL    HW131487   0.214   4.550   0.666
76530SOL    HW231488   0.166   4.595   0.803
76531SOL     OW31489   0.963   7.938  10.348
76531SOL    HW131490   1.054   7.922  10.323
76531SOL    HW231491   0.913   7.874  10.298
76532SOL     OW31492   2.478  11.190   6.376
76532SOL    HW131493   2.516  11.170   6.462
76532SOL    HW231494   2.541  11.251   6.336
76533SOL     OW31495  11.213  12.362   3.749
76533SOL    HW131496  11.275  12.309   3.699
76533SOL    HW231497  11.196  12.438   3.693
76534SOL     OW31498  14.297   0.318   3.942
76534SOL    HW131499  14.372   0.264   3.917
76534SOL    HW231500  14.318   0.406   3.911
76535SOL     OW31501   9.234   0.176   5.804
76535SOL    HW131502   9.224   0.216   5.718
76535SOL    HW231503   9.326   0.190   5.827
76536SOL     OW31504  10.559   3.518   1.417
76536SOL    HW131505  10.641   3.568   1.426
76536SOL    HW231506  10.496   3.580   1.381
76537SOL     OW31507  11.263  12.035   5.172
76537SOL    HW131508  11.207  12.046   5.095
76537SOL    HW231509  11.246  12.112   5.226
76538SOL     OW31510  14.731  11.245   1.618
76538SOL    HW131511  14.723  11.204   1.704
76538SOL    HW231512  14.713  11.174   1.556
76539SOL     OW31513  10.734  12.310   1.025
76539SOL    HW131514  10.767  12.396   1.053
76539SOL    HW231515  10.775  12.296   0.939
76540SOL     OW31516   6.874   3.672   7.840
76540SOL    HW131517   6.854   3.685   7.747
76540SOL    HW231518   6.945   3.608   7.841
76541SOL     OW31519   2.471  14.035   9.133
76541SOL    HW131520   2.494  14.083   9.212
76541SOL    HW231521   2.545  14.049   9.074
76542SOL     OW31522   9.013   1.131   2.134
76542SOL    HW131523   9.001   1.185   2.055
76542SOL    HW231524   8.929   1.137   2.179
76543SOL     OW31525  12.053  11.469   1.828
76543SOL    HW131526  12.030  11.522   1.752
76543SOL    HW231527  12.117  11.522   1.876
76544SOL     OW31528  13.160   1.583   0.111
76544SOL    HW131529  13.143   1.607   0.202
76544SOL    HW231530  13.076   1.547   0.080
76545SOL     OW31531  14.556   0.635   7.889
76545SOL    HW131532  14.519   0.663   7.973
76545SOL    HW231533  14.487   0.654   7.826
76546SOL     OW31534  10.435  12.296   4.078
76546SOL    HW131535  10.378  12.345   4.019
76546SOL    HW231536  10.407  12.324   4.166
76547SOL     OW31537  14.453  11.958   0.384
76547SOL    HW131538  14.485  11.944   0.295
76547SOL    HW231539  14.409  12.043   0.382
76548SOL     OW31540  10.609   9.441  11.553
76548SOL    HW131541  10.645   9.417  11.467
76548SOL    HW231542  10.647   9.526  11.572
76549SOL     OW31543   0.730  10.193   2.991
76549SOL    HW131544   0.645  10.183   3.034
76549SOL    HW231545   0.722  10.141   2.911
76550SOL     OW31546  12.092   9.106   4.585
76550SOL    HW131547  12.014   9.147   4.547
76550SOL    HW231548  12.161   9.125   4.521
76551SOL     OW31549  10.336  13.051  12.670
76551SOL    HW131550  10.374  13.099  12.744
76551SOL    HW231551  10.263  13.003  12.708
76552SOL     OW31552   8.102   5.964   6.500
76552SOL    HW131553   8.011   5.978   6.529
76552SOL    HW231554   8.149   6.040   6.534
76553SOL     OW31555  14.836  10.304   9.635
76553SOL    HW131556  14.789  10.380   9.601
76553SOL    HW231557  14.769  10.249   9.676
76554SOL     OW31558   9.037   3.909   3.256
76554SOL    HW131559   9.133   3.901   3.257
76554SOL    HW231560   9.022   3.999   3.227
76555SOL     OW31561   3.862   2.027   6.466
76555SOL    HW131562   3.912   2.039   6.547
76555SOL    HW231563   3.911   1.963   6.416
76556SOL     OW31564   9.662   2.442   8.911
76556SOL    HW131565   9.758   2.438   8.915
76556SOL    HW231566   9.641   2.421   8.820
76557SOL     OW31567  12.149   5.757   9.701
76557SOL    HW131568  12.207   5.745   9.776
76557SOL    HW231569  12.201   5.729   9.626
76558SOL     OW31570   5.684   5.030  14.518
76558SOL    HW131571   5.613   4.971  14.494
76558SOL    HW231572   5.667   5.111  14.469
76559SOL     OW31573  12.481   5.997  14.276
76559SOL    HW131574  12.548   5.936  14.242
76559SOL    HW231575  12.449   6.043  14.198
76560SOL     OW31576   9.924   2.838   2.833
76560SOL    HW131577   9.940   2.892   2.756
76560SOL    HW231578   9.991   2.770   2.829
76561SOL     OW31579   9.761   1.717   6.446
76561SOL    HW131580   9.740   1.693   6.537
76561SOL    HW231581   9.708   1.794   6.428
76562SOL     OW31582   6.816   3.808   3.276
76562SOL    HW131583   6.762   3.786   3.200
76562SOL    HW231584   6.754   3.838   3.342
76563SOL     OW31585  13.672   0.782   7.101
76563SOL    HW131586  13.749   0.839   7.096
76563SOL    HW231587  13.614   0.814   7.032
76564SOL     OW31588   2.871  13.112   5.336
76564SOL    HW131589   2.928  13.042   5.367
76564SOL    HW231590   2.818  13.136   5.412
76565SOL     OW31591   5.245   2.577  13.493
76565SOL    HW131592   5.293   2.573  13.576
76565SOL    HW231593   5.153   2.579  13.518
76566SOL     OW31594   3.262   6.463   6.103
76566SOL    HW131595   3.332   6.511   6.058
76566SOL    HW231596   3.183   6.514   6.085
76567SOL     OW31597   5.242  11.584  13.407
76567SOL    HW131598   5.283  11.580  13.494
76567SOL    HW231599   5.234  11.677  13.389
76568SOL     OW31600  12.377  11.204   9.771
76568SOL    HW131601  12.453  11.209   9.713
76568SOL    HW231602  12.302  11.209   9.712
76569SOL     OW31603   5.966   6.910   7.846
76569SOL    HW131604   5.945   6.865   7.928
76569SOL    HW231605   6.033   6.855   7.805
76570SOL     OW31606  12.603   2.765   4.038
76570SOL    HW131607  12.508   2.769   4.037
76570SOL    HW231608  12.631   2.854   4.017
76571SOL     OW31609  11.209  10.639   9.337
76571SOL    HW131610  11.247  10.557   9.368
76571SOL    HW231611  11.124  10.645   9.381
76572SOL     OW31612  12.844   1.268  10.318
76572SOL    HW131613  12.844   1.345  10.261
76572SOL    HW231614  12.937   1.245  10.327
76573SOL     OW31615   7.744   9.967  13.404
76573SOL    HW131616   7.728   9.937  13.493
76573SOL    HW231617   7.839   9.976  13.398
76574SOL     OW31618  10.824   6.087   3.608
76574SOL    HW131619  10.746   6.136   3.638
76574SOL    HW231620  10.808   5.997   3.636
76575SOL     OW31621   5.334   7.399   9.544
76575SOL    HW131622   5.347   7.405   9.639
76575SOL    HW231623   5.423   7.396   9.508
76576SOL     OW31624   3.871   9.550   7.147
76576SOL    HW131625   3.803   9.533   7.083
76576SOL    HW231626   3.935   9.605   7.101
76577SOL     OW31627   0.174   9.944   8.883
76577SOL    HW131628   0.262   9.977   8.864
76577SOL    HW231629   0.115  10.003   8.837
76578SOL     OW31630   1.817   3.815   5.565
76578SOL    HW131631   1.757   3.805   5.491
76578SOL    HW231632   1.856   3.728   5.575
76579SOL     OW31633   4.268   6.313   9.487
76579SOL    HW131634   4.222   6.245   9.439
76579SOL    HW231635   4.269   6.281   9.578
76580SOL     OW31636   0.471   9.481   0.577
76580SOL    HW131637   0.483   9.525   0.492
76580SOL    HW231638   0.495   9.390   0.560
76581SOL     OW31639   1.689  11.497   2.076
76581SOL    HW131640   1.675  11.496   2.170
76581SOL    HW231641   1.760  11.434   2.062
76582SOL     OW31642  13.349   7.135  12.742
76582SOL    HW131643  13.288   7.146  12.815
76582SOL    HW231644  13.299   7.090  12.674
76583SOL     OW31645   4.594  13.018   9.463
76583SOL    HW131646   4.645  13.048   9.388
76583SOL    HW231647   4.528  13.086   9.476
76584SOL     OW31648  10.241   6.170   6.701
76584SOL    HW131649  10.307   6.203   6.762
76584SOL    HW231650  10.248   6.227   6.625
76585SOL     OW31651   9.693  11.592   1.131
76585SOL    HW131652   9.734  11.660   1.184
76585SOL    HW231653   9.610  11.631   1.102
76586SOL     OW31654   3.854   2.715  10.235
76586SOL    HW131655   3.926   2.734  10.295
76586SOL    HW231656   3.863   2.622  10.216
76587SOL     OW31657  10.629   8.502   2.267
76587SOL    HW131658  10.712   8.463   2.291
76587SOL    HW231659  10.605   8.460   2.185
76588SOL     OW31660  14.481   6.606   4.963
76588SOL    HW131661  14.424   6.552   4.908
76588SOL    HW231662  14.560   6.553   4.974
76589SOL     OW31663   8.843   8.744   3.802
76589SOL    HW131664   8.872   8.816   3.746
76589SOL    HW231665   8.748   8.754   3.807
76590SOL     OW31666   8.643   8.936   0.271
76590SOL    HW131667   8.627   8.850   0.311
76590SOL    HW231668   8.699   8.916   0.195
76591SOL     OW31669   6.650   9.487  12.784
76591SOL    HW131670   6.660   9.522  12.696
76591SOL    HW231671   6.663   9.562  12.842
76592SOL     OW31672   1.530  10.541   2.667
76592SOL    HW131673   1.476  10.470   2.701
76592SOL    HW231674   1.579  10.502   2.594
76593SOL     OW31675  13.686  12.316  14.215
76593SOL    HW131676  13.723  12.255  14.151
76593SOL    HW231677  13.676  12.264  14.295
76594SOL     OW31678  10.208   4.995   5.732
76594SOL    HW131679  10.170   4.997   5.820
76594SOL    HW231680  10.270   5.067   5.731
76595SOL     OW31681   0.927  14.870  10.015
76595SOL    HW131682   1.002  14.814   9.994
76595SOL    HW231683   0.964   0.076  10.019
76596SOL     OW31684   8.953  10.237  10.395
76596SOL    HW131685   8.941  10.158  10.341
76596SOL    HW231686   8.869  10.247  10.441
76597SOL     OW31687  11.725  14.828  12.898
76597SOL    HW131688  11.680  14.768  12.838
76597SOL    HW231689  11.811  14.842  12.858
76598SOL     OW31690   8.999   2.965   1.902
76598SOL    HW131691   9.049   2.937   1.825
76598SOL    HW231692   8.927   3.017   1.866
76599SOL     OW31693   7.989  11.305   7.267
76599SOL    HW131694   7.994  11.348   7.352
76599SOL    HW231695   7.895  11.303   7.247
76600SOL     OW31696  12.220   5.443  10.279
76600SOL    HW131697  12.291   5.459  10.341
76600SOL    HW231698  12.142   5.434  10.333
76601SOL     OW31699   8.224   0.297  14.783
76601SOL    HW131700   8.196   0.328  14.869
76601SOL    HW231701   8.249   0.376  14.736
76602SOL     OW31702   9.311   3.987  12.231
76602SOL    HW131703   9.294   4.072  12.272
76602SOL    HW231704   9.271   3.993  12.145
76603SOL     OW31705   9.134  11.568   8.219
76603SOL    HW131706   9.059  11.558   8.161
76603SOL    HW231707   9.204  11.600   8.162
76604SOL     OW31708   6.387   9.598   7.189
76604SOL    HW131709   6.481   9.601   7.210
76604SOL    HW231710   6.377   9.516   7.140
76605SOL     OW31711   7.275  10.435   6.522
76605SOL    HW131712   7.367  10.426   6.497
76605SOL    HW231713   7.251  10.523   6.495
76606SOL     OW31714   6.154   3.192   4.326
76606SOL    HW131715   6.177   3.146   4.245
76606SOL    HW231716   6.065   3.226   4.310
76607SOL     OW31717  10.596  10.395   5.261
76607SOL    HW131718  10.632  10.438   5.183
76607SOL    HW231719  10.543  10.323   5.226
76608SOL     OW31720   9.688   5.932   4.195
76608SOL    HW131721   9.779   5.957   4.210
76608SOL    HW231722   9.637   5.990   4.251
76609SOL     OW31723  10.964   4.407   9.806
76609SOL    HW131724  10.989   4.419   9.714
76609SOL    HW231725  11.048   4.411   9.853
76610SOL     OW31726   3.690   7.317   0.212
76610SOL    HW131727   3.777   7.326   0.251
76610SOL    HW231728   3.685   7.225   0.185
76611SOL     OW31729  12.666   0.038  11.795
76611SOL    HW131730  12.642  14.830  11.772
76611SOL    HW231731  12.583   0.087  11.788
76612SOL     OW31732   0.693   4.295   8.970
76612SOL    HW131733   0.707   4.390   8.976
76612SOL    HW231734   0.678   4.267   9.060
76613SOL     OW31735   2.647   7.550  13.695
76613SOL    HW131736   2.681   7.562  13.783
76613SOL    HW231737   2.636   7.639  13.661
76614SOL     OW31738   7.831  14.625   8.343
76614SOL    HW131739   7.770  14.644   8.272
76614SOL    HW231740   7.776  14.622   8.421
76615SOL     OW31741   7.932   0.771   3.046
76615SOL    HW131742   7.906   0.813   3.128
76615SOL    HW231743   8.027   0.768   3.050
76616SOL     OW31744   5.542   8.731   7.514
76616SOL    HW131745   5.618   8.672   7.518
76616SOL    HW231746   5.581   8.819   7.505
76617SOL     OW31747   6.216   4.439   1.396
76617SOL    HW131748   6.127   4.422   1.430
76617SOL    HW231749   6.226   4.534   1.404
76618SOL     OW31750   3.899   9.061   8.929
76618SOL    HW131751   3.825   9.092   8.981
76618SOL    HW231752   3.976   9.079   8.983
76619SOL     OW31753  12.593  10.490   1.685
76619SOL    HW131754  12.567  10.581   1.698
76619SOL    HW231755  12.644  10.491   1.604
76620SOL     OW31756   1.971   5.122  10.713
76620SOL    HW131757   1.908   5.193  10.697
76620SOL    HW231758   1.928   5.043  10.680
76621SOL     OW31759  14.123  13.979   5.164
76621SOL    HW131760  14.192  13.932   5.116
76621SOL    HW231761  14.074  14.025   5.096
76622SOL     OW31762   7.597   4.867   4.169
76622SOL    HW131763   7.646   4.860   4.251
76622SOL    HW231764   7.511   4.898   4.195
76623SOL     OW31765   5.016  10.455   1.558
76623SOL    HW131766   5.039  10.535   1.605
76623SOL    HW231767   4.927  10.436   1.585
76624SOL     OW31768   9.626   9.734   2.674
76624SOL    HW131769   9.704   9.680   2.687
76624SOL    HW231770   9.582   9.695   2.598
76625SOL     OW31771   5.689   3.239   0.081
76625SOL    HW131772   5.655   3.320   0.043
76625SOL    HW231773   5.641   3.230   0.164
76626SOL     OW31774   5.549   5.959  11.428
76626SOL    HW131775   5.640   5.933  11.440
76626SOL    HW231776   5.502   5.877  11.416
76627SOL     OW31777  10.867   7.529   8.642
76627SOL    HW131778  10.868   7.489   8.729
76627SOL    HW231779  10.805   7.602   8.650
76628SOL     OW31780   3.314  12.513   5.972
76628SOL    HW131781   3.222  12.519   5.946
76628SOL    HW231782   3.361  12.566   5.907
76629SOL     OW31783  10.854   4.841   7.479
76629SOL    HW131784  10.806   4.891   7.413
76629SOL    HW231785  10.787   4.795   7.528
76630SOL     OW31786  12.484  11.663   8.837
76630SOL    HW131787  12.573  11.671   8.804
76630SOL    HW231788  12.488  11.699   8.926
76631SOL     OW31789   6.843  10.147   8.169
76631SOL    HW131790   6.816  10.056   8.162
76631SOL    HW231791   6.767  10.198   8.140
76632SOL     OW31792   4.206   0.531  10.297
76632SOL    HW131793   4.257   0.580  10.362
76632SOL    HW231794   4.271   0.475  10.254
76633SOL     OW31795  13.470  12.904   0.544
76633SOL    HW131796  13.504  12.944   0.464
76633SOL    HW231797  13.540  12.916   0.608
76634SOL     OW31798   3.866  10.292   8.891
76634SOL    HW131799   3.809  10.216   8.878
76634SOL    HW231800   3.856  10.314   8.984
76635SOL     OW31801  10.536   8.635  10.234
76635SOL    HW131802  10.524   8.728  10.213
76635SOL    HW231803  10.468   8.590  10.184
76636SOL     OW31804  13.320  12.150  12.699
76636SOL    HW131805  13.392  12.090  12.682
76636SOL    HW231806  13.245  12.110  12.656
76637SOL     OW31807  13.392  11.261  11.278
76637SOL    HW131808  13.404  11.345  11.233
76637SOL    HW231809  13.413  11.195  11.212
76638SOL     OW31810   1.401   8.162   3.989
76638SOL    HW131811   1.353   8.231   4.035
76638SOL    HW231812   1.412   8.093   4.054
76639SOL     OW31813  12.001  14.459  14.596
76639SOL    HW131814  11.937  14.505  14.541
76639SOL    HW231815  11.948  14.408  14.657
76640SOL     OW31816  11.056  14.416   9.282
76640SOL    HW131817  11.092  14.376   9.203
76640SOL    HW231818  11.133  14.442   9.334
76641SOL     OW31819   4.529  14.613   6.681
76641SOL    HW131820   4.439  14.643   6.689
76641SOL    HW231821   4.525  14.547   6.610
76642SOL     OW31822   4.277  12.897   3.592
76642SOL    HW131823   4.236  12.967   3.541
76642SOL    HW231824   4.350  12.940   3.637
76643SOL     OW31825   0.508  10.929  10.940
76643SOL    HW131826   0.585  10.941  10.884
76643SOL    HW231827   0.502  11.010  10.990
76644SOL     OW31828   4.343   6.259  12.486
76644SOL    HW131829   4.342   6.351  12.513
76644SOL    HW231830   4.312   6.260  12.395
76645SOL     OW31831  11.995   1.683   1.811
76645SOL    HW131832  11.904   1.664   1.835
76645SOL    HW231833  11.998   1.670   1.716
76646SOL     OW31834   0.687   4.456   1.535
76646SOL    HW131835   0.710   4.376   1.583
76646SOL    HW231836   0.730   4.447   1.451
76647SOL     OW31837   1.130   2.453  14.578
76647SOL    HW131838   1.206   2.403  14.610
76647SOL    HW231839   1.114   2.518  14.647
76648SOL     OW31840   9.064  14.741   2.893
76648SOL    HW131841   9.053  14.834   2.876
76648SOL    HW231842   9.148  14.735   2.938
76649SOL     OW31843   5.293   2.871  12.989
76649SOL    HW131844   5.326   2.943  13.042
76649SOL    HW231845   5.371   2.832  12.949
76650SOL     OW31846  11.070  14.447   6.356
76650SOL    HW131847  11.040  14.389   6.286
76650SOL    HW231848  11.039  14.406   6.437
76651SOL     OW31849   5.797   5.825   2.257
76651SOL    HW131850   5.769   5.870   2.337
76651SOL    HW231851   5.837   5.895   2.204
76652SOL     OW31852  13.225   7.263   4.833
76652SOL    HW131853  13.210   7.284   4.925
76652SOL    HW231854  13.164   7.193   4.813
76653SOL     OW31855   4.904   0.804   9.327
76653SOL    HW131856   4.987   0.777   9.367
76653SOL    HW231857   4.928   0.836   9.240
76654SOL     OW31858   1.649  12.233  14.455
76654SOL    HW131859   1.600  12.175  14.397
76654SOL    HW231860   1.711  12.175  14.500
76655SOL     OW31861   0.553   0.244   9.358
76655SOL    HW131862   0.569   0.230   9.264
76655SOL    HW231863   0.528   0.157   9.391
76656SOL     OW31864   6.773  13.513  12.381
76656SOL    HW131865   6.742  13.472  12.301
76656SOL    HW231866   6.824  13.444  12.425
76657SOL     OW31867   3.328   1.750   7.498
76657SOL    HW131868   3.377   1.800   7.434
76657SOL    HW231869   3.245   1.797   7.508
76658SOL     OW31870  12.903  10.697  14.216
76658SOL    HW131871  12.895  10.754  14.140
76658SOL    HW231872  12.978  10.640  14.196
76659SOL     OW31873  11.681   4.109   6.663
76659SOL    HW131874  11.669   4.204   6.664
76659SOL    HW231875  11.593   4.073   6.676
76660SOL     OW31876  10.852   1.226   4.575
76660SOL    HW131877  10.917   1.292   4.551
76660SOL    HW231878  10.833   1.180   4.493
76661SOL     OW31879   6.680   6.145  10.921
76661SOL    HW131880   6.715   6.182  10.840
76661SOL    HW231881   6.640   6.062  10.894
76662SOL     OW31882   9.668   0.718  11.224
76662SOL    HW131883   9.598   0.654  11.213
76662SOL    HW231884   9.727   0.703  11.150
76663SOL     OW31885  11.182  12.895   1.294
76663SOL    HW131886  11.267  12.850   1.304
76663SOL    HW231887  11.150  12.906   1.384
76664SOL     OW31888   7.044   9.454   5.719
76664SOL    HW131889   6.969   9.397   5.736
76664SOL    HW231890   7.013   9.515   5.652
76665SOL     OW31891  12.759   5.234   4.691
76665SOL    HW131892  12.835   5.269   4.737
76665SOL    HW231893  12.756   5.284   4.609
76666SOL     OW31894  11.996   3.610   3.694
76666SOL    HW131895  12.017   3.598   3.787
76666SOL    HW231896  11.917   3.557   3.681
76667SOL     OW31897  10.662  12.262   8.888
76667SOL    HW131898  10.714  12.283   8.811
76667SOL    HW231899  10.633  12.347   8.921
76668SOL     OW31900   1.819   6.228   0.326
76668SOL    HW131901   1.858   6.252   0.410
76668SOL    HW231902   1.894   6.203   0.272
76669SOL     OW31903   1.057  13.089   2.766
76669SOL    HW131904   1.048  13.003   2.807
76669SOL    HW231905   1.137  13.082   2.714
76670SOL     OW31906   2.066  12.494   2.406
76670SOL    HW131907   2.127  12.476   2.335
76670SOL    HW231908   2.101  12.444   2.480
76671SOL     OW31909  13.013  14.380  12.704
76671SOL    HW131910  12.979  14.442  12.768
76671SOL    HW231911  13.108  14.383  12.715
76672SOL     OW31912  14.742   1.328  13.081
76672SOL    HW131913  14.653   1.296  13.095
76672SOL    HW231914  14.738   1.372  12.996
76673SOL     OW31915   0.530   0.378  13.442
76673SOL    HW131916   0.452   0.431  13.460
76673SOL    HW231917   0.497   0.300  13.399
76674SOL     OW31918   6.282   7.312  13.482
76674SOL    HW131919   6.242   7.313  13.569
76674SOL    HW231920   6.341   7.237  13.484
76675SOL     OW31921   5.617   7.610  14.604
76675SOL    HW131922   5.559   7.661  14.547
76675SOL    HW231923   5.679   7.569  14.545
76676SOL     OW31924   4.305   8.118  12.420
76676SOL    HW131925   4.258   8.045  12.379
76676SOL    HW231926   4.236   8.178  12.449
76677SOL     OW31927   3.438  11.932   4.375
76677SOL    HW131928   3.405  12.021   4.391
76677SOL    HW231929   3.381  11.876   4.428
76678SOL     OW31930   4.732   4.833  13.350
76678SOL    HW131931   4.707   4.910  13.300
76678SOL    HW231932   4.805   4.862  13.405
76679SOL     OW31933  12.268  12.642   5.074
76679SOL    HW131934  12.273  12.548   5.055
76679SOL    HW231935  12.179  12.666   5.050
76680SOL     OW31936   6.054   3.639  12.624
76680SOL    HW131937   6.112   3.563  12.620
76680SOL    HW231938   6.016   3.636  12.712
76681SOL     OW31939   3.034  10.529  10.644
76681SOL    HW131940   2.966  10.586  10.681
76681SOL    HW231941   3.051  10.464  10.712
76682SOL     OW31942   8.483   5.343   7.013
76682SOL    HW131943   8.474   5.438   7.019
76682SOL    HW231944   8.547   5.321   7.081
76683SOL     OW31945   6.146  12.284   1.790
76683SOL    HW131946   6.105  12.197   1.788
76683SOL    HW231947   6.224  12.275   1.736
76684SOL     OW31948   6.285  14.194  12.065
76684SOL    HW131949   6.211  14.242  12.028
76684SOL    HW231950   6.256  14.103  12.064
76685SOL     OW31951  12.502  13.893  14.577
76685SOL    HW131952  12.419  13.894  14.625
76685SOL    HW231953  12.560  13.949  14.630
76686SOL     OW31954   2.820   2.309   7.846
76686SOL    HW131955   2.808   2.401   7.821
76686SOL    HW231956   2.742   2.265   7.815
76687SOL     OW31957  10.777  11.703   9.998
76687SOL    HW131958  10.747  11.650   9.924
76687SOL    HW231959  10.786  11.791   9.962
76688SOL     OW31960   6.838  13.647   3.300
76688SOL    HW131961   6.803  13.670   3.214
76688SOL    HW231962   6.816  13.555   3.312
76689SOL     OW31963  11.702  10.810   2.600
76689SOL    HW131964  11.782  10.825   2.549
76689SOL    HW231965  11.637  10.784   2.536
76690SOL     OW31966  13.329   5.735  11.168
76690SOL    HW131967  13.355   5.813  11.219
76690SOL    HW231968  13.400   5.722  11.106
76691SOL     OW31969   3.275   3.791   4.437
76691SOL    HW131970   3.351   3.849   4.438
76691SOL    HW231971   3.241   3.795   4.527
76692SOL     OW31972   2.158   9.028   7.315
76692SOL    HW131973   2.136   8.935   7.309
76692SOL    HW231974   2.253   9.030   7.303
76693SOL     OW31975   5.691  13.073  13.692
76693SOL    HW131976   5.682  13.163  13.663
76693SOL    HW231977   5.606  13.033  13.675
76694SOL     OW31978  12.556   9.121  13.115
76694SOL    HW131979  12.599   9.054  13.168
76694SOL    HW231980  12.624   9.187  13.100
76695SOL     OW31981  10.526  10.315  11.869
76695SOL    HW131982  10.457  10.310  11.935
76695SOL    HW231983  10.549  10.224  11.851
76696SOL     OW31984  14.813  10.425  14.132
76696SOL    HW131985  14.841  10.457  14.218
76696SOL    HW231986  14.764  10.499  14.095
76697SOL     OW31987   1.548   2.164   7.920
76697SOL    HW131988   1.588   2.093   7.870
76697SOL    HW231989   1.592   2.243   7.890
76698SOL     OW31990   3.394  13.282   4.508
76698SOL    HW131991   3.407  13.321   4.422
76698SOL    HW231992   3.483  13.264   4.539
76699SOL     OW31993   0.059   7.539   8.709
76699SOL    HW131994   0.071   7.625   8.667
76699SOL    HW231995   0.111   7.479   8.655
76700SOL     OW31996  12.963   9.953   5.481
76700SOL    HW131997  12.881   9.913   5.508
76700SOL    HW231998  12.937  10.020   5.417
76701SOL     OW31999   6.698   3.296   8.857
76701SOL    HW132000   6.732   3.207   8.869
76701SOL    HW232001   6.690   3.306   8.762
76702SOL     OW32002  12.959  12.706   1.889
76702SOL    HW132003  12.867  12.731   1.882
76702SOL    HW232004  12.962  12.646   1.963
76703SOL     OW32005   1.276   1.420   3.799
76703SOL    HW132006   1.329   1.370   3.737
76703SOL    HW232007   1.331   1.494   3.823
76704SOL     OW32008  11.632   3.568  12.311
76704SOL    HW132009  11.686   3.506  12.362
76704SOL    HW232010  11.556   3.584  12.366
76705SOL     OW32011  14.503   5.009   1.094
76705SOL    HW132012  14.571   5.066   1.130
76705SOL    HW232013  14.543   4.969   1.018
76706SOL     OW32014  10.966   7.195   8.112
76706SOL    HW132015  10.920   7.120   8.073
76706SOL    HW232016  10.947   7.189   8.206
76707SOL     OW32017   5.837   0.945  12.209
76707SOL    HW132018   5.770   1.003  12.172
76707SOL    HW232019   5.791   0.895  12.277
76708SOL     OW32020   8.455  12.553   2.196
76708SOL    HW132021   8.396  12.552   2.272
76708SOL    HW232022   8.396  12.562   2.121
76709SOL     OW32023   4.269   4.152  11.243
76709SOL    HW132024   4.203   4.094  11.204
76709SOL    HW232025   4.246   4.239  11.212
76710SOL     OW32026   8.205   2.068   3.579
76710SOL    HW132027   8.201   2.088   3.673
76710SOL    HW232028   8.225   2.151   3.537
76711SOL     OW32029  11.683   5.285   8.251
76711SOL    HW132030  11.663   5.191   8.255
76711SOL    HW232031  11.717   5.298   8.162
76712SOL     OW32032   7.580  12.753   6.653
76712SOL    HW132033   7.580  12.835   6.603
76712SOL    HW232034   7.572  12.684   6.587
76713SOL     OW32035   9.215   1.768  12.295
76713SOL    HW132036   9.142   1.749  12.354
76713SOL    HW232037   9.178   1.830  12.231
76714SOL     OW32038   9.435  13.071  10.825
76714SOL    HW132039   9.390  13.037  10.902
76714SOL    HW232040   9.476  13.153  10.855
76715SOL     OW32041   0.412  13.686  10.529
76715SOL    HW132042   0.394  13.638  10.448
76715SOL    HW232043   0.506  13.677  10.542
76716SOL     OW32044   7.064   8.109   5.383
76716SOL    HW132045   6.993   8.141   5.327
76716SOL    HW232046   7.022   8.092   5.467
76717SOL     OW32047   6.636   5.188  12.113
76717SOL    HW132048   6.564   5.206  12.174
76717SOL    HW232049   6.666   5.100  12.137
76718SOL     OW32050   8.422   9.832  10.180
76718SOL    HW132051   8.496   9.888  10.158
76718SOL    HW232052   8.458   9.743  10.178
76719SOL     OW32053   1.758   3.482   3.903
76719SOL    HW132054   1.818   3.556   3.917
76719SOL    HW232055   1.681   3.504   3.955
76720SOL     OW32056  10.435   6.717   8.631
76720SOL    HW132057  10.350   6.718   8.675
76720SOL    HW232058  10.498   6.739   8.700
76721SOL     OW32059  10.056   8.863   7.975
76721SOL    HW132060  10.021   8.891   8.059
76721SOL    HW232061   9.982   8.869   7.914
76722SOL     OW32062   8.794   3.016   0.132
76722SOL    HW132063   8.734   3.086   0.106
76722SOL    HW232064   8.864   3.018   0.068
76723SOL     OW32065  11.283  10.276   7.914
76723SOL    HW132066  11.369  10.286   7.955
76723SOL    HW232067  11.237  10.216   7.972
76724SOL     OW32068   1.000   2.719   7.669
76724SOL    HW132069   1.028   2.627   7.672
76724SOL    HW232070   1.083   2.768   7.669
76725SOL     OW32071  11.906  12.909  13.542
76725SOL    HW132072  11.957  12.913  13.461
76725SOL    HW232073  11.899  12.816  13.561
76726SOL     OW32074  14.324   2.965   6.038
76726SOL    HW132075  14.382   2.891   6.056
76726SOL    HW232076  14.345   2.990   5.948
76727SOL     OW32077   1.413  14.103   7.891
76727SOL    HW132078   1.384  14.173   7.948
76727SOL    HW232079   1.474  14.052   7.944
76728SOL     OW32080   5.960   5.850  13.371
76728SOL    HW132081   5.868   5.836  13.397
76728SOL    HW232082   5.994   5.762  13.358
76729SOL     OW32083   0.570  10.405  14.622
76729SOL    HW132084   0.649  10.354  14.637
76729SOL    HW232085   0.523  10.402  14.705
76730SOL     OW32086  10.836  13.845   9.706
76730SOL    HW132087  10.902  13.895   9.754
76730SOL    HW232088  10.871  13.836   9.618
76731SOL     OW32089   7.913   4.527  13.846
76731SOL    HW132090   7.846   4.558  13.906
76731SOL    HW232091   7.981   4.490  13.903
76732SOL     OW32092   0.118   9.217   4.071
76732SOL    HW132093   0.193   9.257   4.114
76732SOL    HW232094   0.071   9.290   4.031
76733SOL     OW32095   0.131  11.172   5.651
76733SOL    HW132096   0.191  11.218   5.592
76733SOL    HW232097   0.048  11.219   5.642
76734SOL     OW32098   1.101   5.904  10.110
76734SOL    HW132099   1.118   5.984  10.059
76734SOL    HW232100   1.158   5.838  10.071
76735SOL     OW32101  11.075  14.722  13.405
76735SOL    HW132102  11.161  14.692  13.373
76735SOL    HW232103  11.017  14.647  13.390
76736SOL     OW32104   8.484   6.357   2.109
76736SOL    HW132105   8.442   6.290   2.163
76736SOL    HW232106   8.542   6.308   2.050
76737SOL     OW32107   0.335   2.137   5.033
76737SOL    HW132108   0.256   2.191   5.034
76737SOL    HW232109   0.360   2.131   5.125
76738SOL     OW32110   3.228   9.764   2.797
76738SOL    HW132111   3.196   9.674   2.799
76738SOL    HW232112   3.250   9.784   2.889
76739SOL     OW32113  13.965   4.710   5.565
76739SOL    HW132114  14.025   4.689   5.637
76739SOL    HW232115  13.940   4.625   5.529
76740SOL     OW32116  13.960   6.295  12.792
76740SOL    HW132117  14.009   6.375  12.775
76740SOL    HW232118  14.022   6.237  12.836
76741SOL     OW32119   2.435   9.481   7.448
76741SOL    HW132120   2.350   9.514   7.476
76741SOL    HW232121   2.472   9.439   7.526
76742SOL     OW32122  14.330   9.983   3.495
76742SOL    HW132123  14.258  10.038   3.526
76742SOL    HW232124  14.362   9.939   3.574
76743SOL     OW32125   7.292  14.725   6.768
76743SOL    HW132126   7.227  14.655   6.760
76743SOL    HW232127   7.309  14.752   6.677
76744SOL     OW32128  12.162   5.833   5.282
76744SOL    HW132129  12.107   5.802   5.210
76744SOL    HW232130  12.251   5.815   5.255
76745SOL     OW32131   5.535  13.227  13.204
76745SOL    HW132132   5.629  13.220  13.224
76745SOL    HW232133   5.506  13.136  13.199
76746SOL     OW32134  14.097   0.839  11.930
76746SOL    HW132135  14.036   0.848  12.003
76746SOL    HW232136  14.182   0.862  11.967
76747SOL     OW32137  12.826  11.758   6.275
76747SOL    HW132138  12.868  11.788   6.355
76747SOL    HW232139  12.836  11.663   6.275
76748SOL     OW32140   5.012   8.151   3.165
76748SOL    HW132141   5.076   8.167   3.235
76748SOL    HW232142   4.941   8.212   3.184
76749SOL     OW32143   5.222   9.367  11.303
76749SOL    HW132144   5.224   9.311  11.381
76749SOL    HW232145   5.263   9.313  11.234
76750SOL     OW32146   2.011   3.833   5.175
76750SOL    HW132147   1.991   3.765   5.238
76750SOL    HW232148   2.008   3.789   5.090
76751SOL     OW32149  10.310   2.854   8.110
76751SOL    HW132150  10.309   2.947   8.087
76751SOL    HW232151  10.226   2.821   8.078
76752SOL     OW32152   9.506   1.489   9.156
76752SOL    HW132153   9.451   1.497   9.078
76752SOL    HW232154   9.529   1.579   9.178
76753SOL     OW32155  14.487   5.501   7.890
76753SOL    HW132156  14.424   5.508   7.819
76753SOL    HW232157  14.556   5.445   7.855
76754SOL     OW32158  11.608   6.940   6.750
76754SOL    HW132159  11.592   7.018   6.697
76754SOL    HW232160  11.521   6.912   6.778
76755SOL     OW32161   6.485   9.476  11.331
76755SOL    HW132162   6.410   9.511  11.283
76755SOL    HW232163   6.536   9.429  11.265
76756SOL     OW32164   2.378   5.323   4.415
76756SOL    HW132165   2.299   5.366   4.448
76756SOL    HW232166   2.350   5.281   4.334
76757SOL     OW32167   8.975   5.533   9.117
76757SOL    HW132168   9.065   5.510   9.097
76757SOL    HW232169   8.929   5.449   9.120
76758SOL     OW32170   0.388   3.850   9.177
76758SOL    HW132171   0.450   3.846   9.251
76758SOL    HW232172   0.305   3.821   9.215
76759SOL     OW32173   5.738   2.093  13.024
76759SOL    HW132174   5.717   2.018  12.968
76759SOL    HW232175   5.708   2.169  12.973
76760SOL     OW32176   8.398   3.905  14.605
76760SOL    HW132177   8.332   3.836  14.610
76760SOL    HW232178   8.459   3.886  14.676
76761SOL     OW32179   0.619   4.119   6.700
76761SOL    HW132180   0.633   4.212   6.681
76761SOL    HW232181   0.549   4.092   6.640
76762SOL     OW32182   2.157   4.551  11.533
76762SOL    HW132183   2.159   4.555  11.629
76762SOL    HW232184   2.064   4.544  11.512
76763SOL     OW32185   0.857   5.603   1.749
76763SOL    HW132186   0.825   5.612   1.839
76763SOL    HW232187   0.859   5.508   1.734
76764SOL     OW32188   6.699   9.801  13.175
76764SOL    HW132189   6.764   9.849  13.227
76764SOL    HW232190   6.706   9.711  13.205
76765SOL     OW32191   7.009   2.567   5.723
76765SOL    HW132192   6.937   2.512   5.752
76765SOL    HW232193   7.035   2.617   5.800
76766SOL     OW32194   9.302   3.797   6.770
76766SOL    HW132195   9.347   3.766   6.692
76766SOL    HW232196   9.221   3.746   6.774
76767SOL     OW32197  11.901  11.555  10.212
76767SOL    HW132198  11.819  11.520  10.178
76767SOL    HW232199  11.964  11.543  10.141
76768SOL     OW32200   0.528   0.749   5.009
76768SOL    HW132201   0.470   0.822   5.031
76768SOL    HW232202   0.595   0.788   4.953
76769SOL     OW32203   2.957   1.925   9.913
76769SOL    HW132204   2.993   1.848   9.956
76769SOL    HW232205   3.015   1.997   9.939
76770SOL     OW32206  11.500   7.352   7.537
76770SOL    HW132207  11.555   7.300   7.479
76770SOL    HW232208  11.422   7.298   7.551
76771SOL     OW32209  11.211   7.819  13.856
76771SOL    HW132210  11.176   7.828  13.767
76771SOL    HW232211  11.225   7.725  13.867
76772SOL     OW32212   6.312   8.053   4.126
76772SOL    HW132213   6.402   8.024   4.144
76772SOL    HW232214   6.268   8.049   4.211
76773SOL     OW32215  10.547   3.115   3.355
76773SOL    HW132216  10.630   3.146   3.393
76773SOL    HW232217  10.481   3.171   3.396
76774SOL     OW32218  12.898   6.453   6.513
76774SOL    HW132219  12.867   6.402   6.439
76774SOL    HW232220  12.910   6.541   6.478
76775SOL     OW32221   4.452  14.474   1.995
76775SOL    HW132222   4.526  14.415   1.986
76775SOL    HW232223   4.387  14.441   1.933
76776SOL     OW32224   1.519   9.309   8.307
76776SOL    HW132225   1.578   9.384   8.308
76776SOL    HW232226   1.472   9.314   8.390
76777SOL     OW32227   0.062   0.128   0.825
76777SOL    HW132228   0.087   0.127   0.918
76777SOL    HW232229   0.131   0.180   0.783
76778SOL     OW32230  13.008  13.158  12.339
76778SOL    HW132231  12.975  13.230  12.285
76778SOL    HW232232  12.964  13.080  12.303
76779SOL     OW32233   4.554   7.195  14.388
76779SOL    HW132234   4.638   7.192  14.434
76779SOL    HW232235   4.562   7.128  14.320
76780SOL     OW32236  14.352  14.155   2.426
76780SOL    HW132237  14.399  14.076   2.449
76780SOL    HW232238  14.297  14.174   2.502
76781SOL     OW32239   3.967   3.766  11.284
76781SOL    HW132240   4.011   3.843  11.246
76781SOL    HW232241   3.920   3.800  11.359
76782SOL     OW32242  11.353   9.791   9.861
76782SOL    HW132243  11.391   9.863   9.911
76782SOL    HW232244  11.343   9.720   9.925
76783SOL     OW32245   1.748   5.233  13.856
76783SOL    HW132246   1.726   5.205  13.767
76783SOL    HW232247   1.764   5.327  13.849
76784SOL     OW32248   6.726   5.705  11.447
76784SOL    HW132249   6.766   5.618  11.441
76784SOL    HW232250   6.662   5.706  11.376
76785SOL     OW32251   2.221  12.558   8.322
76785SOL    HW132252   2.142  12.507   8.339
76785SOL    HW232253   2.288  12.517   8.377
76786SOL     OW32254  12.410   0.859   4.601
76786SOL    HW132255  12.350   0.785   4.611
76786SOL    HW232256  12.498   0.820   4.613
76787SOL     OW32257   0.021   4.367  12.049
76787SOL    HW132258   0.022   4.274  12.028
76787SOL    HW232259  14.817   4.398  12.020
76788SOL     OW32260  12.492  12.440   4.839
76788SOL    HW132261  12.548  12.371   4.804
76788SOL    HW232262  12.403  12.409   4.821
76789SOL     OW32263  13.050  11.255   7.251
76789SOL    HW132264  13.046  11.344   7.286
76789SOL    HW232265  13.125  11.216   7.296
76790SOL     OW32266  12.322  14.429   5.037
76790SOL    HW132267  12.298  14.375   4.962
76790SOL    HW232268  12.415  14.413   5.050
76791SOL     OW32269   5.964   3.324  10.689
76791SOL    HW132270   6.025   3.370  10.747
76791SOL    HW232271   5.995   3.234  10.688
76792SOL     OW32272  11.824  10.986  14.295
76792SOL    HW132273  11.778  10.941  14.366
76792SOL    HW232274  11.791  11.076  14.298
76793SOL     OW32275  12.962   4.364  11.901
76793SOL    HW132276  12.995   4.386  11.814
76793SOL    HW232277  12.882   4.313  11.884
76794SOL     OW32278  10.359   1.096   6.205
76794SOL    HW132279  10.339   1.108   6.298
76794SOL    HW232280  10.314   1.169   6.161
76795SOL     OW32281   8.199   7.348   0.569
76795SOL    HW132282   8.216   7.440   0.591
76795SOL    HW232283   8.180   7.307   0.653
76796SOL     OW32284   9.959   5.554   7.790
76796SOL    HW132285   9.865   5.570   7.783
76796SOL    HW232286   9.993   5.570   7.701
76797SOL     OW32287   3.003   2.692   4.076
76797SOL    HW132288   3.087   2.728   4.104
76797SOL    HW232289   3.014   2.597   4.084
76798SOL     OW32290   4.562   1.083  10.711
76798SOL    HW132291   4.584   1.001  10.756
76798SOL    HW232292   4.536   1.055  10.623
76799SOL     OW32293  12.325   3.599  13.006
76799SOL    HW132294  12.360   3.510  12.997
76799SOL    HW232295  12.397   3.648  13.047
76800SOL     OW32296  11.417   3.074   6.562
76800SOL    HW132297  11.476   3.079   6.638
76800SOL    HW232298  11.451   3.140   6.501
76801SOL     OW32299   8.891   7.410   3.930
76801SOL    HW132300   8.935   7.357   3.997
76801SOL    HW232301   8.961   7.442   3.874
76802SOL     OW32302  12.665   6.035   6.834
76802SOL    HW132303  12.654   6.127   6.809
76802SOL    HW232304  12.745   6.033   6.887
76803SOL     OW32305   5.150  12.089   5.654
76803SOL    HW132306   5.200  12.168   5.673
76803SOL    HW232307   5.112  12.064   5.738
76804SOL     OW32308   2.267   7.086   9.651
76804SOL    HW132309   2.318   7.146   9.705
76804SOL    HW232310   2.199   7.140   9.612
76805SOL     OW32311   7.990   1.457   1.097
76805SOL    HW132312   8.013   1.485   1.008
76805SOL    HW232313   7.902   1.491   1.110
76806SOL     OW32314   0.087   1.571  11.005
76806SOL    HW132315   0.073   1.520  11.085
76806SOL    HW232316   0.008   1.626  10.997
76807SOL     OW32317  11.645   3.704  14.139
76807SOL    HW132318  11.650   3.641  14.211
76807SOL    HW232319  11.731   3.700  14.097
76808SOL     OW32320  10.772   6.999   7.998
76808SOL    HW132321  10.765   6.921   7.943
76808SOL    HW232322  10.712   7.062   7.958
76809SOL     OW32323   0.330  11.963   5.368
76809SOL    HW132324   0.386  12.027   5.323
76809SOL    HW232325   0.389  11.918   5.429
76810SOL     OW32326  10.441  13.343   0.971
76810SOL    HW132327  10.461  13.251   0.986
76810SOL    HW232328  10.478  13.362   0.884
76811SOL     OW32329  11.408   4.140   6.671
76811SOL    HW132330  11.413   4.130   6.576
76811SOL    HW232331  11.392   4.233   6.685
76812SOL     OW32332  11.014  14.782  11.188
76812SOL    HW132333  10.951  14.757  11.256
76812SOL    HW232334  11.039  14.699  11.147
76813SOL     OW32335   3.850   8.256   9.512
76813SOL    HW132336   3.774   8.225   9.561
76813SOL    HW232337   3.846   8.351   9.519
76814SOL     OW32338   0.302  11.828  12.386
76814SOL    HW132339   0.275  11.856  12.473
76814SOL    HW232340   0.314  11.909  12.337
76815SOL     OW32341   3.785   4.250  13.530
76815SOL    HW132342   3.701   4.285  13.500
76815SOL    HW232343   3.778   4.252  13.626
76816SOL     OW32344   1.932  12.385   1.406
76816SOL    HW132345   1.842  12.413   1.391
76816SOL    HW232346   1.945  12.311   1.347
76817SOL     OW32347   0.591  11.734  12.328
76817SOL    HW132348   0.582  11.772  12.416
76817SOL    HW232349   0.507  11.691  12.312
76818SOL     OW32350   0.832  12.975  10.960
76818SOL    HW132351   0.847  13.034  11.033
76818SOL    HW232352   0.913  12.979  10.908
76819SOL     OW32353   4.876   3.616   7.602
76819SOL    HW132354   4.888   3.582   7.691
76819SOL    HW232355   4.849   3.539   7.551
76820SOL     OW32356   2.172  14.719   0.637
76820SOL    HW132357   2.174  14.630   0.670
76820SOL    HW232358   2.107  14.764   0.692
76821SOL     OW32359  10.453   8.658   6.171
76821SOL    HW132360  10.531   8.615   6.136
76821SOL    HW232361  10.473   8.752   6.165
76822SOL     OW32362   4.086  10.165  10.222
76822SOL    HW132363   4.033  10.109  10.279
76822SOL    HW232364   4.022  10.213  10.170
76823SOL     OW32365  12.782  14.775  11.315
76823SOL    HW132366  12.741  14.842  11.369
76823SOL    HW232367  12.796  14.701  11.375
76824SOL     OW32368  12.786  11.806   3.843
76824SOL    HW132369  12.707  11.827   3.793
76824SOL    HW232370  12.843  11.882   3.832
76825SOL     OW32371   4.928  10.399  12.017
76825SOL    HW132372   4.865  10.328  12.007
76825SOL    HW232373   4.981  10.373  12.092
76826SOL     OW32374   7.822  14.379  14.200
76826SOL    HW132375   7.814  14.385  14.105
76826SOL    HW232376   7.827  14.470  14.230
76827SOL     OW32377   3.729   5.650   6.913
76827SOL    HW132378   3.714   5.565   6.873
76827SOL    HW232379   3.669   5.653   6.988
76828SOL     OW32380   5.446   4.348   8.816
76828SOL    HW132381   5.516   4.378   8.758
76828SOL    HW232382   5.403   4.428   8.846
76829SOL     OW32383   0.472  12.959   3.900
76829SOL    HW132384   0.389  13.007   3.905
76829SOL    HW232385   0.515  12.977   3.983
76830SOL     OW32386  13.369  13.017  13.509
76830SOL    HW132387  13.411  12.935  13.537
76830SOL    HW232388  13.326  12.996  13.427
76831SOL     OW32389  13.602   8.050  13.832
76831SOL    HW132390  13.537   8.119  13.846
76831SOL    HW232391  13.559   7.988  13.773
76832SOL     OW32392   4.784  12.665   7.227
76832SOL    HW132393   4.785  12.745   7.279
76832SOL    HW232394   4.703  12.621   7.252
76833SOL     OW32395   7.670  14.599   6.687
76833SOL    HW132396   7.640  14.607   6.778
76833SOL    HW232397   7.676  14.505   6.672
76834SOL     OW32398  12.758   3.122   3.674
76834SOL    HW132399  12.779   3.124   3.768
76834SOL    HW232400  12.754   3.029   3.653
76835SOL     OW32401   6.652   1.378  10.656
76835SOL    HW132402   6.605   1.333  10.726
76835SOL    HW232403   6.597   1.453  10.634
76836SOL     OW32404  10.580   2.245   0.133
76836SOL    HW132405  10.501   2.191   0.122
76836SOL    HW232406  10.561   2.300   0.209
76837SOL     OW32407  14.853   0.336   8.568
76837SOL    HW132408   0.013   0.253   8.548
76837SOL    HW232409  14.804   0.359   8.489
76838SOL     OW32410   9.105   9.676  14.798
76838SOL    HW132411   9.129   9.686  14.706
76838SOL    HW232412   9.136   9.588  14.821
76839SOL     OW32413   8.645  11.397   6.716
76839SOL    HW132414   8.582  11.381   6.646
76839SOL    HW232415   8.592  11.428   6.789
76840SOL     OW32416  11.441   0.759   8.650
76840SOL    HW132417  11.442   0.851   8.622
76840SOL    HW232418  11.483   0.760   8.736
76841SOL     OW32419  13.892   3.997  11.041
76841SOL    HW132420  13.887   4.089  11.068
76841SOL    HW232421  13.813   3.983  10.990
76842SOL     OW32422  14.357  11.863   1.916
76842SOL    HW132423  14.382  11.864   2.008
76842SOL    HW232424  14.433  11.899   1.870
76843SOL     OW32425   4.055   9.666   5.902
76843SOL    HW132426   4.123   9.602   5.926
76843SOL    HW232427   4.087   9.749   5.937
76844SOL     OW32428  12.294   2.326   7.953
76844SOL    HW132429  12.283   2.420   7.967
76844SOL    HW232430  12.260   2.286   8.033
76845SOL     OW32431  13.712   5.795   2.837
76845SOL    HW132432  13.766   5.766   2.763
76845SOL    HW232433  13.774   5.838   2.896
76846SOL     OW32434   3.326   8.543  10.797
76846SOL    HW132435   3.331   8.594  10.878
76846SOL    HW232436   3.235   8.553  10.768
76847SOL     OW32437  14.051  10.539   6.112
76847SOL    HW132438  14.029  10.515   6.202
76847SOL    HW232439  14.142  10.514   6.101
76848SOL     OW32440  13.427   6.139  14.292
76848SOL    HW132441  13.516   6.174  14.285
76848SOL    HW232442  13.435   6.047  14.266
76849SOL     OW32443  14.784   4.358   4.926
76849SOL    HW132444  14.815   4.322   5.009
76849SOL    HW232445  14.730   4.289   4.888
76850SOL     OW32446   8.442  14.355  13.148
76850SOL    HW132447   8.501  14.427  13.126
76850SOL    HW232448   8.400  14.381  13.229
76851SOL     OW32449   3.492   0.822   4.697
76851SOL    HW132450   3.507   0.754   4.763
76851SOL    HW232451   3.551   0.799   4.625
76852SOL     OW32452   2.842  10.159   8.338
76852SOL    HW132453   2.866  10.090   8.276
76852SOL    HW232454   2.803  10.228   8.283
76853SOL     OW32455   9.337   5.374   2.723
76853SOL    HW132456   9.426   5.375   2.758
76853SOL    HW232457   9.319   5.465   2.700
76854SOL     OW32458   7.117   4.701  10.362
76854SOL    HW132459   7.091   4.689  10.271
76854SOL    HW232460   7.212   4.713  10.358
76855SOL     OW32461   0.114   9.130   4.815
76855SOL    HW132462   0.191   9.163   4.862
76855SOL    HW232463   0.075   9.207   4.774
76856SOL     OW32464  14.430   3.202   2.569
76856SOL    HW132465  14.459   3.257   2.497
76856SOL    HW232466  14.484   3.123   2.563
76857SOL     OW32467   9.742   6.472  11.140
76857SOL    HW132468   9.774   6.537  11.078
76857SOL    HW232469   9.809   6.469  11.209
76858SOL     OW32470   8.194   9.074  13.129
76858SOL    HW132471   8.256   9.002  13.137
76858SOL    HW232472   8.222   9.121  13.050
76859SOL     OW32473   2.494   3.653   8.964
76859SOL    HW132474   2.416   3.603   8.986
76859SOL    HW232475   2.461   3.741   8.944
76860SOL     OW32476  14.825  11.861   8.769
76860SOL    HW132477  14.782  11.776   8.760
76860SOL    HW232478   0.003  11.850   8.843
76861SOL     OW32479   3.432  13.373  10.949
76861SOL    HW132480   3.465  13.311  10.883
76861SOL    HW232481   3.433  13.323  11.031
76862SOL     OW32482  12.021   1.604   3.045
76862SOL    HW132483  12.062   1.559   2.971
76862SOL    HW232484  11.985   1.684   3.008
76863SOL     OW32485   8.688   5.720  13.453
76863SOL    HW132486   8.708   5.627  13.460
76863SOL    HW232487   8.661   5.733  13.362
76864SOL     OW32488  12.940   8.940   9.294
76864SOL    HW132489  12.899   8.863   9.333
76864SOL    HW232490  12.942   9.005   9.364
76865SOL     OW32491  10.250   0.314   6.734
76865SOL    HW132492  10.296   0.230   6.733
76865SOL    HW232493  10.320   0.379   6.727
76866SOL     OW32494  14.362   1.762   3.804
76866SOL    HW132495  14.440   1.734   3.851
76866SOL    HW232496  14.324   1.830   3.860
76867SOL     OW32497  10.312   7.908   7.828
76867SOL    HW132498  10.254   7.833   7.840
76867SOL    HW232499  10.372   7.904   7.902
76868SOL     OW32500   2.957  10.964   3.666
76868SOL    HW132501   2.962  10.993   3.756
76868SOL    HW232502   3.047  10.965   3.635
76869SOL     OW32503  10.637  12.924  13.530
76869SOL    HW132504  10.653  12.833  13.556
76869SOL    HW232505  10.671  12.930  13.440
76870SOL     OW32506   1.935   0.989   1.947
76870SOL    HW132507   1.912   1.081   1.936
76870SOL    HW232508   2.020   0.990   1.991
76871SOL     OW32509  13.251   4.701   3.306
76871SOL    HW132510  13.299   4.660   3.234
76871SOL    HW232511  13.318   4.720   3.372
76872SOL     OW32512  11.997   1.118   5.619
76872SOL    HW132513  12.053   1.076   5.553
76872SOL    HW232514  11.909   1.085   5.601
76873SOL     OW32515   1.039   1.560  14.560
76873SOL    HW132516   1.089   1.596  14.633
76873SOL    HW232517   1.022   1.469  14.584
76874SOL     OW32518   5.737   8.431   2.829
76874SOL    HW132519   5.796   8.482   2.884
76874SOL    HW232520   5.793   8.367   2.785
76875SOL     OW32521  12.398  14.779  11.018
76875SOL    HW132522  12.447  14.699  11.002
76875SOL    HW232523  12.313  14.749  11.050
76876SOL     OW32524   0.889  12.813  14.638
76876SOL    HW132525   0.797  12.838  14.651
76876SOL    HW232526   0.917  12.863  14.562
76877SOL     OW32527   9.731   4.557   1.815
76877SOL    HW132528   9.808   4.593   1.770
76877SOL    HW232529   9.660   4.567   1.751
76878SOL     OW32530   5.764  14.837   8.900
76878SOL    HW132531   5.688  14.854   8.844
76878SOL    HW232532   5.780  14.743   8.893
76879SOL     OW32533  11.663   8.755  11.355
76879SOL    HW132534  11.667   8.771  11.261
76879SOL    HW232535  11.754   8.743  11.381
76880SOL     OW32536  10.715  13.509   8.822
76880SOL    HW132537  10.708  13.456   8.743
76880SOL    HW232538  10.756  13.451   8.886
76881SOL     OW32539   3.705   4.796   3.588
76881SOL    HW132540   3.788   4.836   3.615
76881SOL    HW232541   3.704   4.712   3.634
76882SOL     OW32542   9.954   0.241  13.808
76882SOL    HW132543   9.898   0.224  13.732
76882SOL    HW232544   9.991   0.156  13.831
76883SOL     OW32545   5.070   2.418   7.463
76883SOL    HW132546   5.042   2.374   7.382
76883SOL    HW232547   5.047   2.510   7.449
76884SOL     OW32548   5.132   8.689   0.085
76884SOL    HW132549   5.042   8.685   0.118
76884SOL    HW232550   5.185   8.711   0.162
76885SOL     OW32551  10.694  13.890   5.110
76885SOL    HW132552  10.615  13.839   5.090
76885SOL    HW232553  10.744  13.889   5.029
76886SOL     OW32554   0.863   9.619  11.574
76886SOL    HW132555   0.871   9.715  11.574
76886SOL    HW232556   0.818   9.600  11.491
76887SOL     OW32557  10.653   5.455  12.750
76887SOL    HW132558  10.633   5.478  12.659
76887SOL    HW232559  10.568   5.459  12.795
76888SOL     OW32560   6.649  11.385   0.762
76888SOL    HW132561   6.733  11.404   0.805
76888SOL    HW232562   6.584  11.425   0.819
76889SOL     OW32563  10.580  14.312   1.312
76889SOL    HW132564  10.573  14.224   1.349
76889SOL    HW232565  10.671  14.336   1.325
76890SOL     OW32566   4.426   4.013  13.991
76890SOL    HW132567   4.385   4.062  13.919
76890SOL    HW232568   4.470   4.080  14.044
76891SOL     OW32569   7.917   5.314   6.971
76891SOL    HW132570   7.848   5.296   7.034
76891SOL    HW232571   7.884   5.386   6.918
76892SOL     OW32572   1.369  11.132  10.372
76892SOL    HW132573   1.284  11.129  10.416
76892SOL    HW232574   1.398  11.041  10.371
76893SOL     OW32575  14.063  12.023   3.104
76893SOL    HW132576  14.070  12.114   3.133
76893SOL    HW232577  14.143  11.982   3.135
76894SOL     OW32578   6.469   5.595  10.048
76894SOL    HW132579   6.532   5.536  10.007
76894SOL    HW232580   6.422   5.540  10.111
76895SOL     OW32581   8.846  13.484   6.407
76895SOL    HW132582   8.810  13.541   6.340
76895SOL    HW232583   8.939  13.505   6.410
76896SOL     OW32584  10.384   1.075   0.720
76896SOL    HW132585  10.331   1.006   0.681
76896SOL    HW232586  10.467   1.032   0.743
76897SOL     OW32587   6.718  11.463   2.344
76897SOL    HW132588   6.756  11.495   2.262
76897SOL    HW232589   6.730  11.368   2.341
76898SOL     OW32590   8.759  11.500  12.441
76898SOL    HW132591   8.813  11.425  12.417
76898SOL    HW232592   8.749  11.493  12.536
76899SOL     OW32593   7.119   0.813   1.620
76899SOL    HW132594   7.108   0.904   1.647
76899SOL    HW232595   7.210   0.793   1.640
76900SOL     OW32596  10.918   4.623  12.129
76900SOL    HW132597  10.851   4.574  12.177
76900SOL    HW232598  10.936   4.569  12.052
76901SOL     OW32599  11.270   9.250   3.294
76901SOL    HW132600  11.350   9.302   3.290
76901SOL    HW232601  11.204   9.304   3.250
76902SOL     OW32602  12.795   4.865   2.615
76902SOL    HW132603  12.831   4.949   2.645
76902SOL    HW232604  12.773   4.819   2.696
76903SOL     OW32605   8.104   8.182   9.603
76903SOL    HW132606   8.048   8.232   9.544
76903SOL    HW232607   8.171   8.144   9.547
76904SOL     OW32608   8.071   0.383  11.135
76904SOL    HW132609   8.072   0.422  11.223
76904SOL    HW232610   8.060   0.457  11.076
76905SOL     OW32611   4.848   0.088   1.127
76905SOL    HW132612   4.820   0.059   1.040
76905SOL    HW232613   4.767   0.117   1.170
76906SOL     OW32614   4.494   2.122   6.395
76906SOL    HW132615   4.579   2.138   6.354
76906SOL    HW232616   4.511   2.054   6.460
76907SOL     OW32617   1.978  13.673   0.174
76907SOL    HW132618   1.924  13.739   0.131
76907SOL    HW232619   1.984  13.703   0.265
76908SOL     OW32620  11.854   6.236   1.581
76908SOL    HW132621  11.872   6.157   1.529
76908SOL    HW232622  11.848   6.306   1.516
76909SOL     OW32623   1.519   2.477   4.347
76909SOL    HW132624   1.492   2.568   4.358
76909SOL    HW232625   1.463   2.443   4.278
76910SOL     OW32626  10.105   7.682   1.573
76910SOL    HW132627  10.093   7.613   1.508
76910SOL    HW232628  10.077   7.762   1.528
76911SOL     OW32629  10.664  10.517   2.205
76911SOL    HW132630  10.617  10.514   2.122
76911SOL    HW232631  10.596  10.517   2.272
76912SOL     OW32632   2.061   2.933   1.657
76912SOL    HW132633   1.980   2.883   1.667
76912SOL    HW232634   2.046   2.985   1.577
76913SOL     OW32635   7.553   5.956   5.514
76913SOL    HW132636   7.538   5.929   5.605
76913SOL    HW232637   7.634   5.912   5.489
76914SOL     OW32638  12.679   7.800  12.072
76914SOL    HW132639  12.624   7.797  12.151
76914SOL    HW232640  12.717   7.888  12.072
76915SOL     OW32641  10.792   3.984  10.981
76915SOL    HW132642  10.857   3.939  10.926
76915SOL    HW232643  10.843   4.048  11.031
76916SOL     OW32644   4.991   3.423   6.140
76916SOL    HW132645   4.956   3.442   6.227
76916SOL    HW232646   5.086   3.427   6.151
76917SOL     OW32647   0.312  13.470  11.281
76917SOL    HW132648   0.345  13.534  11.218
76917SOL    HW232649   0.239  13.427  11.237
76918SOL     OW32650  12.044   2.990   4.614
76918SOL    HW132651  11.985   3.062   4.596
76918SOL    HW232652  12.082   2.968   4.528
76919SOL     OW32653   8.255   2.569  13.244
76919SOL    HW132654   8.238   2.563  13.150
76919SOL    HW232655   8.293   2.656  13.257
76920SOL     OW32656  11.432   3.313   1.653
76920SOL    HW132657  11.346   3.354   1.665
76920SOL    HW232658  11.461   3.344   1.567
76921SOL     OW32659   6.849   1.197   3.812
76921SOL    HW132660   6.787   1.270   3.816
76921SOL    HW232661   6.870   1.179   3.903
76922SOL     OW32662   1.412   1.955   2.859
76922SOL    HW132663   1.506   1.974   2.860
76922SOL    HW232664   1.390   1.942   2.951
76923SOL     OW32665  10.626   5.424   3.964
76923SOL    HW132666  10.652   5.334   3.949
76923SOL    HW232667  10.533   5.420   3.987
76924SOL     OW32668   7.660   5.186  10.206
76924SOL    HW132669   7.725   5.252  10.230
76924SOL    HW232670   7.710   5.105  10.197
76925SOL     OW32671  13.423   5.615  12.400
76925SOL    HW132672  13.491   5.665  12.355
76925SOL    HW232673  13.342   5.661  12.379
76926SOL     OW32674   8.960   7.477  13.990
76926SOL    HW132675   8.921   7.516  13.912
76926SOL    HW232676   8.970   7.550  14.051
76927SOL     OW32677   5.253   1.367   1.076
76927SOL    HW132678   5.204   1.361   1.158
76927SOL    HW232679   5.335   1.321   1.095
76928SOL     OW32680   1.975  14.557   5.053
76928SOL    HW132681   2.021  14.538   5.135
76928SOL    HW232682   2.042  14.594   4.995
76929SOL     OW32683   4.747   1.042  13.612
76929SOL    HW132684   4.747   0.991  13.532
76929SOL    HW232685   4.836   1.034  13.646
76930SOL     OW32686   6.001   8.470   5.715
76930SOL    HW132687   5.915   8.509   5.732
76930SOL    HW232688   6.026   8.430   5.798
76931SOL     OW32689  12.538   9.502   3.772
76931SOL    HW132690  12.628   9.533   3.770
76931SOL    HW232691  12.486   9.581   3.785
76932SOL     OW32692   9.592   2.662  14.014
76932SOL    HW132693   9.665   2.681  13.955
76932SOL    HW232694   9.571   2.570  13.998
76933SOL     OW32695   1.857  11.410   0.686
76933SOL    HW132696   1.844  11.328   0.639
76933SOL    HW232697   1.809  11.399   0.768
76934SOL     OW32698   3.613   3.550   7.653
76934SOL    HW132699   3.637   3.492   7.725
76934SOL    HW232700   3.691   3.553   7.597
76935SOL     OW32701   7.872  13.677   7.060
76935SOL    HW132702   7.875  13.768   7.028
76935SOL    HW232703   7.880  13.685   7.155
76936SOL     OW32704   4.671   8.210   2.948
76936SOL    HW132705   4.723   8.255   3.015
76936SOL    HW232706   4.719   8.225   2.866
76937SOL     OW32707   7.943   9.003   7.561
76937SOL    HW132708   7.868   9.042   7.514
76937SOL    HW232709   8.016   9.062   7.542
76938SOL     OW32710   8.462  12.861   8.386
76938SOL    HW132711   8.493  12.890   8.472
76938SOL    HW232712   8.422  12.939   8.347
76939SOL     OW32713   9.897   0.148   5.435
76939SOL    HW132714   9.909   0.087   5.362
76939SOL    HW232715   9.961   0.121   5.500
76940SOL     OW32716   6.962  14.590   2.197
76940SOL    HW132717   6.869  14.606   2.217
76940SOL    HW232718   6.991  14.530   2.266
76941SOL     OW32719   7.934   3.845   6.007
76941SOL    HW132720   8.010   3.861   6.063
76941SOL    HW232721   7.970   3.839   5.918
76942SOL     OW32722   7.264   5.065  12.186
76942SOL    HW132723   7.215   5.053  12.268
76942SOL    HW232724   7.332   5.129  12.208
76943SOL     OW32725   9.724   6.051   3.916
76943SOL    HW132726   9.673   6.122   3.877
76943SOL    HW232727   9.661   6.005   3.972
76944SOL     OW32728   8.351  12.415   0.029
76944SOL    HW132729   8.281  12.357  14.882
76944SOL    HW232730   8.336  12.425   0.123
76945SOL     OW32731   5.095   5.505   1.669
76945SOL    HW132732   5.145   5.436   1.626
76945SOL    HW232733   5.022   5.459   1.711
76946SOL     OW32734   7.674   4.812   6.194
76946SOL    HW132735   7.714   4.747   6.137
76946SOL    HW232736   7.630   4.760   6.262
76947SOL     OW32737  10.611   0.600   2.647
76947SOL    HW132738  10.631   0.583   2.739
76947SOL    HW232739  10.603   0.513   2.609
76948SOL     OW32740  11.882   4.211   5.377
76948SOL    HW132741  11.803   4.165   5.350
76948SOL    HW232742  11.881   4.207   5.473
76949SOL     OW32743   4.950   8.972  12.533
76949SOL    HW132744   5.031   8.924  12.516
76949SOL    HW232745   4.910   8.983  12.446
76950SOL     OW32746   2.404   1.268   1.513
76950SOL    HW132747   2.399   1.344   1.571
76950SOL    HW232748   2.380   1.194   1.569
76951SOL     OW32749   5.216   6.316  13.454
76951SOL    HW132750   5.163   6.395  13.462
76951SOL    HW232751   5.153   6.244  13.457
76952SOL     OW32752   5.132   0.225   3.817
76952SOL    HW132753   5.135   0.242   3.911
76952SOL    HW232754   5.108   0.309   3.778
76953SOL     OW32755  13.282   2.171   1.820
76953SOL    HW132756  13.319   2.199   1.904
76953SOL    HW232757  13.293   2.247   1.762
76954SOL     OW32758   8.253   6.469  10.921
76954SOL    HW132759   8.172   6.516  10.901
76954SOL    HW232760   8.224   6.387  10.962
76955SOL     OW32761   1.338   0.503  12.898
76955SOL    HW132762   1.410   0.531  12.841
76955SOL    HW232763   1.269   0.476  12.838
76956SOL     OW32764   2.634   0.632   5.315
76956SOL    HW132765   2.599   0.711   5.356
76956SOL    HW232766   2.596   0.560   5.366
76957SOL     OW32767  12.434   1.290   0.664
76957SOL    HW132768  12.425   1.363   0.725
76957SOL    HW232769  12.441   1.331   0.578
76958SOL     OW32770  12.596   6.298   6.763
76958SOL    HW132771  12.591   6.335   6.851
76958SOL    HW232772  12.574   6.371   6.705
76959SOL     OW32773   0.823  14.776   3.321
76959SOL    HW132774   0.742  14.780   3.269
76959SOL    HW232775   0.802  14.716   3.393
76960SOL     OW32776  10.102   1.898  10.159
76960SOL    HW132777  10.095   1.939  10.073
76960SOL    HW232778  10.122   1.971  10.219
76961SOL     OW32779   1.771  11.425  13.238
76961SOL    HW132780   1.794  11.518  13.240
76961SOL    HW232781   1.825  11.385  13.306
76962SOL     OW32782   3.877  10.584   4.767
76962SOL    HW132783   3.944  10.624   4.823
76962SOL    HW232784   3.919  10.506   4.730
76963SOL     OW32785  10.120  12.689   0.530
76963SOL    HW132786  10.066  12.668   0.453
76963SOL    HW232787  10.143  12.603   0.567
76964SOL     OW32788   6.526  10.592   1.135
76964SOL    HW132789   6.472  10.639   1.199
76964SOL    HW232790   6.615  10.599   1.170
76965SOL     OW32791   2.080   5.501   3.631
76965SOL    HW132792   2.103   5.542   3.714
76965SOL    HW232793   2.163   5.470   3.595
76966SOL     OW32794   8.990   9.851  13.305
76966SOL    HW132795   8.902   9.885  13.287
76966SOL    HW232796   8.979   9.797  13.383
76967SOL     OW32797   3.058  10.193   8.676
76967SOL    HW132798   3.125  10.205   8.744
76967SOL    HW232799   3.018  10.109   8.697
76968SOL     OW32800   8.290   5.204   0.024
76968SOL    HW132801   8.286   5.158   0.108
76968SOL    HW232802   8.383   5.226   0.013
76969SOL     OW32803   9.661   4.989  10.054
76969SOL    HW132804   9.656   4.902  10.093
76969SOL    HW232805   9.622   4.978   9.967
76970SOL     OW32806  14.707   6.494   0.963
76970SOL    HW132807  14.727   6.480   1.055
76970SOL    HW232808  14.662   6.413   0.935
76971SOL     OW32809  10.464  10.583   7.322
76971SOL    HW132810  10.393  10.519   7.331
76971SOL    HW232811  10.543  10.534   7.345
76972SOL     OW32812   1.907   6.969   3.861
76972SOL    HW132813   1.929   6.897   3.921
76972SOL    HW232814   1.964   7.041   3.888
76973SOL     OW32815   3.467   4.191  12.430
76973SOL    HW132816   3.431   4.138  12.501
76973SOL    HW232817   3.393   4.205  12.371
76974SOL     OW32818  13.805  11.123   4.489
76974SOL    HW132819  13.815  11.151   4.398
76974SOL    HW232820  13.750  11.045   4.484
76975SOL     OW32821   6.579   1.527  13.528
76975SOL    HW132822   6.610   1.445  13.491
76975SOL    HW232823   6.538   1.502  13.611
76976SOL     OW32824   2.501   4.811  11.839
76976SOL    HW132825   2.593   4.793  11.859
76976SOL    HW232826   2.474   4.738  11.782
76977SOL     OW32827  13.801   9.913   0.538
76977SOL    HW132828  13.861   9.870   0.476
76977SOL    HW232829  13.808   9.861   0.618
76978SOL     OW32830  12.999   8.106   2.626
76978SOL    HW132831  13.049   8.186   2.646
76978SOL    HW232832  13.063   8.046   2.588
76979SOL     OW32833   1.186   6.682   4.407
76979SOL    HW132834   1.206   6.612   4.470
76979SOL    HW232835   1.092   6.674   4.392
76980SOL     OW32836   4.712   6.776   5.846
76980SOL    HW132837   4.782   6.831   5.810
76980SOL    HW232838   4.731   6.772   5.940
76981SOL     OW32839   9.219   2.181  13.879
76981SOL    HW132840   9.126   2.170  13.896
76981SOL    HW232841   9.256   2.204  13.964
76982SOL     OW32842   2.650   6.997   4.970
76982SOL    HW132843   2.638   7.080   5.015
76982SOL    HW232844   2.738   6.967   4.997
76983SOL     OW32845   9.327  14.635   9.830
76983SOL    HW132846   9.301  14.641   9.738
76983SOL    HW232847   9.400  14.695   9.839
76984SOL     OW32848  14.070  10.753   9.105
76984SOL    HW132849  14.090  10.790   9.019
76984SOL    HW232850  14.078  10.826   9.165
76985SOL     OW32851   8.846  13.568   4.852
76985SOL    HW132852   8.861  13.564   4.758
76985SOL    HW232853   8.818  13.658   4.869
76986SOL     OW32854   1.796  11.012   3.742
76986SOL    HW132855   1.845  11.035   3.663
76986SOL    HW232856   1.712  11.057   3.731
76987SOL     OW32857   1.673   0.111   2.080
76987SOL    HW132858   1.699   0.041   2.020
76987SOL    HW232859   1.744   0.116   2.144
76988SOL     OW32860   0.130  13.405   9.869
76988SOL    HW132861   0.065  13.454   9.920
76988SOL    HW232862   0.086  13.324   9.844
76989SOL     OW32863  13.181  12.120  11.680
76989SOL    HW132864  13.179  12.148  11.589
76989SOL    HW232865  13.270  12.089  11.695
76990SOL     OW32866  12.116   6.551   9.594
76990SOL    HW132867  12.067   6.529   9.673
76990SOL    HW232868  12.166   6.472   9.574
76991SOL     OW32869   5.941  13.931  14.637
76991SOL    HW132870   5.948  13.985  14.716
76991SOL    HW232871   5.885  13.858  14.663
76992SOL     OW32872   6.044   3.315   6.917
76992SOL    HW132873   5.973   3.364   6.876
76992SOL    HW232874   6.118   3.327   6.858
76993SOL     OW32875   3.148   1.240   6.462
76993SOL    HW132876   3.053   1.250   6.463
76993SOL    HW232877   3.181   1.324   6.493
76994SOL     OW32878  11.831   7.174   9.007
76994SOL    HW132879  11.878   7.221   9.076
76994SOL    HW232880  11.897   7.119   8.965
76995SOL     OW32881   0.783   7.203  13.772
76995SOL    HW132882   0.806   7.289  13.805
76995SOL    HW232883   0.711   7.220  13.711
76996SOL     OW32884  10.484   9.266   0.365
76996SOL    HW132885  10.450   9.273   0.276
76996SOL    HW232886  10.449   9.183   0.398
76997SOL     OW32887  10.577   6.619   9.297
76997SOL    HW132888  10.634   6.542   9.305
76997SOL    HW232889  10.619   6.685   9.353
76998SOL     OW32890  12.806   5.933   9.272
76998SOL    HW132891  12.859   5.856   9.251
76998SOL    HW232892  12.763   5.912   9.355
76999SOL     OW32893   2.521   5.173   3.221
76999SOL    HW132894   2.597   5.118   3.241
76999SOL    HW232895   2.501   5.217   3.303
77000SOL     OW32896   5.385  10.653   0.191
77000SOL    HW132897   5.379  10.743   0.221
77000SOL    HW232898   5.470  10.647   0.147
77001SOL     OW32899   9.792   2.102   1.333
77001SOL    HW132900   9.716   2.087   1.276
77001SOL    HW232901   9.866   2.103   1.273
77002SOL     OW32902   6.268   4.929   3.844
77002SOL    HW132903   6.316   4.867   3.788
77002SOL    HW232904   6.209   4.874   3.895
77003SOL     OW32905   9.268   0.080  13.423
77003SOL    HW132906   9.249   0.162  13.469
77003SOL    HW232907   9.265   0.102  13.330
77004SOL     OW32908   4.751   2.959   5.916
77004SOL    HW132909   4.832   2.931   5.960
77004SOL    HW232910   4.749   3.054   5.929
77005SOL     OW32911   5.221  11.268   2.549
77005SOL    HW132912   5.288  11.202   2.533
77005SOL    HW232913   5.269  11.349   2.565
77006SOL     OW32914   0.651  14.151   3.022
77006SOL    HW132915   0.695  14.073   2.987
77006SOL    HW232916   0.715  14.221   3.010
77007SOL     OW32917   5.140  13.065   3.302
77007SOL    HW132918   5.190  13.052   3.383
77007SOL    HW232919   5.056  13.025   3.319
77008SOL     OW32920   0.292  12.786   1.338
77008SOL    HW132921   0.338  12.737   1.270
77008SOL    HW232922   0.317  12.877   1.323
77009SOL     OW32923   6.531   4.831   6.160
77009SOL    HW132924   6.461   4.800   6.216
77009SOL    HW232925   6.611   4.798   6.201
77010SOL     OW32926  10.840  13.079   0.242
77010SOL    HW132927  10.807  12.989   0.239
77010SOL    HW232928  10.833  13.110   0.152
77011SOL     OW32929  11.476  12.194   1.064
77011SOL    HW132930  11.503  12.276   1.106
77011SOL    HW232931  11.529  12.190   0.984
77012SOL     OW32932   8.050  11.384  10.933
77012SOL    HW132933   7.957  11.370  10.950
77012SOL    HW232934   8.083  11.297  10.909
77013SOL     OW32935   1.699  13.202   0.816
77013SOL    HW132936   1.777  13.240   0.776
77013SOL    HW232937   1.630  13.266   0.800
77014SOL     OW32938   4.312   4.770   4.193
77014SOL    HW132939   4.312   4.812   4.107
77014SOL    HW232940   4.230   4.721   4.195
77015SOL     OW32941   3.018   7.104   3.424
77015SOL    HW132942   3.020   7.197   3.398
77015SOL    HW232943   2.933   7.093   3.467
77016SOL     OW32944  13.967   2.169   4.606
77016SOL    HW132945  14.018   2.166   4.687
77016SOL    HW232946  14.032   2.164   4.536
77017SOL     OW32947   5.156  11.022  14.485
77017SOL    HW132948   5.150  10.996  14.577
77017SOL    HW232949   5.192  11.111  14.487
77018SOL     OW32950  11.042   4.808   8.024
77018SOL    HW132951  11.075   4.887   8.068
77018SOL    HW232952  11.078   4.815   7.935
77019SOL     OW32953   3.521   1.458   0.007
77019SOL    HW132954   3.592   1.394   0.008
77019SOL    HW232955   3.451   1.415  14.840
77020SOL     OW32956  11.882  14.459  11.804
77020SOL    HW132957  11.972  14.484  11.823
77020SOL    HW232958  11.887  14.412  11.721
77021SOL     OW32959   1.346  10.453  13.555
77021SOL    HW132960   1.273  10.485  13.502
77021SOL    HW232961   1.305  10.423  13.636
77022SOL     OW32962   6.092   3.307   4.876
77022SOL    HW132963   6.137   3.256   4.809
77022SOL    HW232964   6.034   3.243   4.920
77023SOL     OW32965  13.938   8.777  13.881
77023SOL    HW132966  13.859   8.733  13.911
77023SOL    HW232967  13.918   8.870  13.889
77024SOL     OW32968  13.346   8.603  10.703
77024SOL    HW132969  13.368   8.583  10.794
77024SOL    HW232970  13.428   8.632  10.664
77025SOL     OW32971  13.340   7.626   4.037
77025SOL    HW132972  13.358   7.547   4.088
77025SOL    HW232973  13.337   7.595   3.946
77026SOL     OW32974   8.515   4.030   9.462
77026SOL    HW132975   8.471   3.996   9.384
77026SOL    HW232976   8.592   3.974   9.473
77027SOL     OW32977  12.837   0.458  10.119
77027SOL    HW132978  12.912   0.514  10.140
77027SOL    HW232979  12.768   0.486  10.179
77028SOL     OW32980   5.401   8.563  13.245
77028SOL    HW132981   5.387   8.586  13.153
77028SOL    HW232982   5.316   8.530  13.275
77029SOL     OW32983   1.452   1.756  12.481
77029SOL    HW132984   1.531   1.704  12.491
77029SOL    HW232985   1.381   1.692  12.481
77030SOL     OW32986   3.307   3.516  12.560
77030SOL    HW132987   3.305   3.463  12.481
77030SOL    HW232988   3.258   3.465  12.625
77031SOL     OW32989  11.651  13.683   3.965
77031SOL    HW132990  11.737  13.682   4.008
77031SOL    HW232991  11.625  13.775   3.967
77032SOL     OW32992  11.102  14.480  10.345
77032SOL    HW132993  11.055  14.483  10.261
77032SOL    HW232994  11.157  14.558  10.344
77033SOL     OW32995   5.435   1.548  12.730
77033SOL    HW132996   5.374   1.607  12.685
77033SOL    HW232997   5.432   1.575  12.821
77034SOL     OW32998  10.915  14.076   8.642
77034SOL    HW132999  10.905  14.009   8.709
77034SOL    HW233000  11.009  14.083   8.629
77035SOL     OW33001  13.061   7.428   8.846
77035SOL    HW133002  12.975   7.389   8.854
77035SOL    HW233003  13.048   7.506   8.793
77036SOL     OW33004  10.030  12.132   0.192
77036SOL    HW133005   9.952  12.149   0.140
77036SOL    HW233006  10.074  12.217   0.197
77037SOL     OW33007   5.963   5.326  12.484
77037SOL    HW133008   6.043   5.352  12.531
77037SOL    HW233009   5.948   5.398  12.422
77038SOL     OW33010   5.395  13.351   4.514
77038SOL    HW133011   5.489  13.360   4.499
77038SOL    HW233012   5.355  13.366   4.429
77039SOL     OW33013   1.508  11.489   4.044
77039SOL    HW133014   1.575  11.476   4.111
77039SOL    HW233015   1.477  11.579   4.059
77040SOL     OW33016   0.548   5.848   4.465
77040SOL    HW133017   0.479   5.880   4.523
77040SOL    HW233018   0.516   5.763   4.435
77041SOL     OW33019   8.292   5.781  11.353
77041SOL    HW133020   8.210   5.829  11.342
77041SOL    HW233021   8.358   5.836  11.313
77042SOL     OW33022   2.372   8.601  13.191
77042SOL    HW133023   2.452   8.633  13.150
77042SOL    HW233024   2.401   8.558  13.271
77043SOL     OW33025  10.452   9.236  13.785
77043SOL    HW133026  10.356   9.225  13.785
77043SOL    HW233027  10.484   9.168  13.844
77044SOL     OW33028   6.605   6.158   9.037
77044SOL    HW133029   6.549   6.188   8.965
77044SOL    HW233030   6.554   6.177   9.115
77045SOL     OW33031   7.754  10.222   2.434
77045SOL    HW133032   7.736  10.291   2.498
77045SOL    HW233033   7.724  10.259   2.350
77046SOL     OW33034   5.918   6.258   9.216
77046SOL    HW133035   5.912   6.268   9.121
77046SOL    HW233036   6.008   6.284   9.237
77047SOL     OW33037   1.678   4.106   3.065
77047SOL    HW133038   1.708   4.101   3.155
77047SOL    HW233039   1.584   4.088   3.069
77048SOL     OW33040   9.185  13.166   6.754
77048SOL    HW133041   9.238  13.140   6.830
77048SOL    HW233042   9.221  13.250   6.727
77049SOL     OW33043  13.779   0.736   7.784
77049SOL    HW133044  13.701   0.682   7.769
77049SOL    HW233045  13.826   0.690   7.855
77050SOL     OW33046   0.640  10.623   2.201
77050SOL    HW133047   0.616  10.711   2.232
77050SOL    HW233048   0.578  10.565   2.245
77051SOL     OW33049   5.527   2.274   6.232
77051SOL    HW133050   5.498   2.253   6.321
77051SOL    HW233051   5.606   2.222   6.220
77052SOL     OW33052   8.781  11.922  10.863
77052SOL    HW133053   8.834  11.857  10.817
77052SOL    HW233054   8.817  12.006  10.835
77053SOL     OW33055  10.359   9.788   1.334
77053SOL    HW133056  10.294   9.858   1.326
77053SOL    HW233057  10.308   9.710   1.353
77054SOL     OW33058  14.749   7.699   0.885
77054SOL    HW133059  14.839   7.729   0.876
77054SOL    HW233060  14.726   7.662   0.800
77055SOL     OW33061   9.839  13.003   6.638
77055SOL    HW133062   9.767  12.983   6.697
77055SOL    HW233063   9.918  12.998   6.692
77056SOL     OW33064  12.697  10.221   4.931
77056SOL    HW133065  12.767  10.237   4.868
77056SOL    HW233066  12.618  10.218   4.878
77057SOL     OW33067  11.964   9.676   1.495
77057SOL    HW133068  11.964   9.631   1.580
77057SOL    HW233069  11.871   9.683   1.471
77058SOL     OW33070   8.144   5.745  12.327
77058SOL    HW133071   8.069   5.687  12.341
77058SOL    HW233072   8.214   5.708  12.381
77059SOL     OW33073  13.861   7.490  14.000
77059SOL    HW133074  13.881   7.452  14.085
77059SOL    HW233075  13.774   7.456  13.978
77060SOL     OW33076   3.965   7.020   6.839
77060SOL    HW133077   3.960   6.931   6.873
77060SOL    HW233078   4.036   7.062   6.889
77061SOL     OW33079  13.461   8.468   4.517
77061SOL    HW133080  13.396   8.429   4.577
77061SOL    HW233081  13.409   8.523   4.459
77062SOL     OW33082   2.525   7.357  13.044
77062SOL    HW133083   2.574   7.343  12.963
77062SOL    HW233084   2.492   7.270  13.067
77063SOL     OW33085   7.106  13.586   2.051
77063SOL    HW133086   7.188  13.634   2.068
77063SOL    HW233087   7.097  13.589   1.956
77064SOL     OW33088  10.884   5.757   5.799
77064SOL    HW133089  10.977   5.777   5.792
77064SOL    HW233090  10.864   5.768   5.892
77065SOL     OW33091   7.039   5.330   4.217
77065SOL    HW133092   6.987   5.255   4.246
77065SOL    HW233093   7.126   5.314   4.252
77066SOL     OW33094   1.899   5.694   4.613
77066SOL    HW133095   1.924   5.627   4.676
77066SOL    HW233096   1.956   5.679   4.537
77067SOL     OW33097   8.703   9.168  11.757
77067SOL    HW133098   8.718   9.174  11.852
77067SOL    HW233099   8.710   9.074  11.738
77068SOL     OW33100  14.312  10.004   2.481
77068SOL    HW133101  14.305   9.911   2.502
77068SOL    HW233102  14.289  10.010   2.388
77069SOL     OW33103  14.542   0.388  14.822
77069SOL    HW133104  14.565   0.305  14.779
77069SOL    HW233105  14.599   0.453  14.781
77070SOL     OW33106   4.262  14.255  10.222
77070SOL    HW133107   4.322  14.294  10.286
77070SOL    HW233108   4.313  14.250  10.141
77071SOL     OW33109   7.979   6.078   5.517
77071SOL    HW133110   8.071   6.103   5.510
77071SOL    HW233111   7.961   6.028   5.438
77072SOL     OW33112  14.678   7.863   4.293
77072SOL    HW133113  14.764   7.844   4.254
77072SOL    HW233114  14.634   7.778   4.296
77073SOL     OW33115   0.122  11.235  10.629
77073SOL    HW133116   0.138  11.310  10.686
77073SOL    HW233117   0.116  11.160  10.688
77074SOL     OW33118  12.623  14.267   0.283
77074SOL    HW133119  12.692  14.223   0.331
77074SOL    HW233120  12.544  14.216   0.299
77075SOL     OW33121   8.570  10.546   8.320
77075SOL    HW133122   8.655  10.591   8.323
77075SOL    HW233123   8.514  10.603   8.268
77076SOL     OW33124   8.094   2.371   5.522
77076SOL    HW133125   8.040   2.382   5.601
77076SOL    HW233126   8.163   2.437   5.532
77077SOL     OW33127  10.940   9.928  10.366
77077SOL    HW133128  10.881  10.000  10.387
77077SOL    HW233129  10.961   9.888  10.451
77078SOL     OW33130   9.669   0.316   9.510
77078SOL    HW133131   9.726   0.391   9.496
77078SOL    HW233132   9.580   0.350   9.497
77079SOL     OW33133   2.621   9.832   0.828
77079SOL    HW133134   2.611   9.915   0.875
77079SOL    HW233135   2.714   9.812   0.834
77080SOL     OW33136   5.964  12.400  11.970
77080SOL    HW133137   5.899  12.459  11.932
77080SOL    HW233138   5.912  12.327  12.005
77081SOL     OW33139  11.705   1.099   5.623
77081SOL    HW133140  11.685   1.069   5.534
77081SOL    HW233141  11.620   1.121   5.661
77082SOL     OW33142   6.293   0.415  11.688
77082SOL    HW133143   6.277   0.443  11.598
77082SOL    HW233144   6.206   0.395  11.722
77083SOL     OW33145   9.579   2.278  10.403
77083SOL    HW133146   9.546   2.363  10.432
77083SOL    HW233147   9.674   2.285  10.414
77084SOL     OW33148   8.121  14.594  13.715
77084SOL    HW133149   8.073  14.583  13.632
77084SOL    HW233150   8.082  14.528  13.773
77085SOL     OW33151   9.614   8.892   3.005
77085SOL    HW133152   9.608   8.953   2.932
77085SOL    HW233153   9.678   8.826   2.976
77086SOL     OW33154   8.646   1.078   2.479
77086SOL    HW133155   8.675   1.092   2.389
77086SOL    HW233156   8.723   1.046   2.525
77087SOL     OW33157  14.751  14.271  14.779
77087SOL    HW133158  14.760  14.183  14.743
77087SOL    HW233159  14.747  14.328  14.702
77088SOL     OW33160  10.485   4.043  12.242
77088SOL    HW133161  10.479   3.947  12.247
77088SOL    HW233162  10.446   4.073  12.324
77089SOL     OW33163   4.204  14.743   6.965
77089SOL    HW133164   4.277  14.700   7.010
77089SOL    HW233165   4.246  14.799   6.899
77090SOL     OW33166   5.509   2.886   6.663
77090SOL    HW133167   5.472   2.963   6.620
77090SOL    HW233168   5.603   2.903   6.669
77091SOL     OW33169  13.583   0.827  13.369
77091SOL    HW133170  13.597   0.733  13.383
77091SOL    HW233171  13.598   0.839  13.275
77092SOL     OW33172   1.120  12.831   8.993
77092SOL    HW133173   1.074  12.749   8.974
77092SOL    HW233174   1.115  12.839   9.089
77093SOL     OW33175   0.725   6.430   2.141
77093SOL    HW133176   0.631   6.440   2.149
77093SOL    HW233177   0.737   6.359   2.078
77094SOL     OW33178   3.280  14.389  10.117
77094SOL    HW133179   3.217  14.461  10.120
77094SOL    HW233180   3.352  14.422  10.063
77095SOL     OW33181   0.601   6.424  11.850
77095SOL    HW133182   0.575   6.428  11.942
77095SOL    HW233183   0.663   6.496  11.839
77096SOL     OW33184   3.602   5.855  12.701
77096SOL    HW133185   3.538   5.905  12.751
77096SOL    HW233186   3.654   5.808  12.768
77097SOL     OW33187   7.542  10.675  10.453
77097SOL    HW133188   7.480  10.746  10.474
77097SOL    HW233189   7.494  10.620  10.391
77098SOL     OW33190   4.181   1.469   3.110
77098SOL    HW133191   4.269   1.499   3.085
77098SOL    HW233192   4.135   1.548   3.136
77099SOL     OW33193   8.632   4.679   7.255
77099SOL    HW133194   8.646   4.721   7.170
77099SOL    HW233195   8.544   4.640   7.248
77100SOL     OW33196   0.731   3.677  13.668
77100SOL    HW133197   0.736   3.602  13.610
77100SOL    HW233198   0.651   3.663  13.718
77101SOL     OW33199  11.862   4.140   7.401
77101SOL    HW133200  11.814   4.090   7.466
77101SOL    HW233201  11.858   4.230   7.431
77102SOL     OW33202  13.221   7.668  12.558
77102SOL    HW133203  13.228   7.619  12.640
77102SOL    HW233204  13.277   7.744  12.570
77103SOL     OW33205   7.835   3.577   5.175
77103SOL    HW133206   7.813   3.489   5.204
77103SOL    HW233207   7.784   3.590   5.095
77104SOL     OW33208   0.892  12.776  10.662
77104SOL    HW133209   0.960  12.829  10.703
77104SOL    HW233210   0.866  12.825  10.584
77105SOL     OW33211   4.203   2.416  12.134
77105SOL    HW133212   4.116   2.391  12.166
77105SOL    HW233213   4.188   2.500  12.090
77106SOL     OW33214  14.683  14.097  12.497
77106SOL    HW133215  14.696  14.073  12.406
77106SOL    HW233216  14.676  14.193  12.496
77107SOL     OW33217   3.352  13.163   5.949
77107SOL    HW133218   3.319  13.225   5.885
77107SOL    HW233219   3.298  13.177   6.027
77108SOL     OW33220  13.153   3.309  10.149
77108SOL    HW133221  13.188   3.229  10.111
77108SOL    HW233222  13.070   3.323  10.104
77109SOL     OW33223   3.079   1.595  13.248
77109SOL    HW133224   2.987   1.615  13.261
77109SOL    HW233225   3.079   1.523  13.185
77110SOL     OW33226  14.435   5.011   8.864
77110SOL    HW133227  14.450   4.972   8.950
77110SOL    HW233228  14.347   4.982   8.839
77111SOL     OW33229   4.211   7.863   9.031
77111SOL    HW133230   4.267   7.796   9.070
77111SOL    HW233231   4.267   7.941   9.026
77112SOL     OW33232  14.597   8.583  13.031
77112SOL    HW133233  14.577   8.670  12.998
77112SOL    HW233234  14.625   8.533  12.954
77113SOL     OW33235  12.172   9.789   3.480
77113SOL    HW133236  12.137   9.703   3.504
77113SOL    HW233237  12.226   9.773   3.403
77114SOL     OW33238   0.433   9.016   8.600
77114SOL    HW133239   0.339   9.018   8.614
77114SOL    HW233240   0.460   8.930   8.632
77115SOL     OW33241   8.386   1.358  10.831
77115SOL    HW133242   8.478   1.378  10.813
77115SOL    HW233243   8.341   1.441  10.818
77116SOL     OW33244   4.156   0.453  10.611
77116SOL    HW133245   4.109   0.375  10.640
77116SOL    HW233246   4.188   0.493  10.692
77117SOL     OW33247   8.158   0.424   3.003
77117SOL    HW133248   8.178   0.349   2.947
77117SOL    HW233249   8.063   0.433   2.998
77118SOL     OW33250   9.602   8.906  12.093
77118SOL    HW133251   9.653   8.974  12.048
77118SOL    HW233252   9.648   8.824  12.072
77119SOL     OW33253   2.284   4.109   1.304
77119SOL    HW133254   2.353   4.127   1.240
77119SOL    HW233255   2.321   4.136   1.388
77120SOL     OW33256   3.998  12.109   2.507
77120SOL    HW133257   4.092  12.124   2.500
77120SOL    HW233258   3.975  12.144   2.593
77121SOL     OW33259   8.593   9.257   3.451
77121SOL    HW133260   8.515   9.234   3.502
77121SOL    HW233261   8.566   9.249   3.360
77122SOL     OW33262   3.552   5.186   5.092
77122SOL    HW133263   3.565   5.100   5.133
77122SOL    HW233264   3.622   5.191   5.027
77123SOL     OW33265   6.183   4.086   1.254
77123SOL    HW133266   6.224   4.154   1.202
77123SOL    HW233267   6.255   4.034   1.288
77124SOL     OW33268  10.874   2.609   6.767
77124SOL    HW133269  10.806   2.602   6.834
77124SOL    HW233270  10.868   2.527   6.718
77125SOL     OW33271  14.564   1.051   1.599
77125SOL    HW133272  14.522   1.069   1.683
77125SOL    HW233273  14.508   1.093   1.534
77126SOL     OW33274   4.538   6.056   8.363
77126SOL    HW133275   4.615   6.067   8.307
77126SOL    HW233276   4.516   6.145   8.391
77127SOL     OW33277   6.422   0.396  13.647
77127SOL    HW133278   6.362   0.379  13.574
77127SOL    HW233279   6.366   0.433  13.716
77128SOL     OW33280   1.212   9.855  10.031
77128SOL    HW133281   1.199   9.766  10.065
77128SOL    HW233282   1.243   9.842   9.941
77129SOL     OW33283   4.660   1.820   3.637
77129SOL    HW133284   4.657   1.884   3.566
77129SOL    HW233285   4.646   1.736   3.594
77130SOL     OW33286   9.418  11.553   3.835
77130SOL    HW133287   9.448  11.639   3.865
77130SOL    HW233288   9.440  11.494   3.907
77131SOL     OW33289  14.841   9.631   8.448
77131SOL    HW133290   0.040   9.618   8.495
77131SOL    HW233291  14.825   9.725   8.453
77132SOL     OW33292  12.125   6.956   8.462
77132SOL    HW133293  12.140   6.888   8.527
77132SOL    HW233294  12.157   7.036   8.502
77133SOL     OW33295   8.034   2.297   7.682
77133SOL    HW133296   8.011   2.339   7.765
77133SOL    HW233297   8.093   2.226   7.707
77134SOL     OW33298   0.071   7.129   2.077
77134SOL    HW133299  14.879   7.165   2.126
77134SOL    HW233300   0.147   7.176   2.112
77135SOL     OW33301   4.471   5.353  13.216
77135SOL    HW133302   4.524   5.329  13.139
77135SOL    HW233303   4.393   5.393  13.180
77136SOL     OW33304   2.431   9.372   7.736
77136SOL    HW133305   2.483   9.296   7.763
77136SOL    HW233306   2.410   9.416   7.819
77137SOL     OW33307  13.795   6.155   9.645
77137SOL    HW133308  13.747   6.206   9.579
77137SOL    HW233309  13.730   6.093   9.679
77138SOL     OW33310  10.877   0.027  11.581
77138SOL    HW133311  10.805   0.020  11.519
77138SOL    HW233312  10.953  14.875  11.534
77139SOL     OW33313   7.325  13.625   1.186
77139SOL    HW133314   7.315  13.713   1.222
77139SOL    HW233315   7.402  13.589   1.230
77140SOL     OW33316   7.514   8.007  14.170
77140SOL    HW133317   7.454   8.067  14.215
77140SOL    HW233318   7.457   7.938  14.137
77141SOL     OW33319  10.837   8.829   1.063
77141SOL    HW133320  10.797   8.896   1.119
77141SOL    HW233321  10.831   8.866   0.975
77142SOL     OW33322   4.403   2.669   8.270
77142SOL    HW133323   4.354   2.668   8.352
77142SOL    HW233324   4.477   2.609   8.285
77143SOL     OW33325   0.237   9.247   0.074
77143SOL    HW133326   0.224   9.224   0.166
77143SOL    HW233327   0.268   9.338   0.076
77144SOL     OW33328   9.760  13.229  10.249
77144SOL    HW133329   9.809  13.183  10.181
77144SOL    HW233330   9.675  13.248  10.209
77145SOL     OW33331  14.755   0.531   7.542
77145SOL    HW133332  14.761   0.449   7.591
77145SOL    HW233333  14.808   0.593   7.592
77146SOL     OW33334   8.395   4.791   3.198
77146SOL    HW133335   8.348   4.815   3.278
77146SOL    HW233336   8.407   4.696   3.206
77147SOL     OW33337   3.445   6.535   0.511
77147SOL    HW133338   3.464   6.535   0.605
77147SOL    HW233339   3.360   6.580   0.504
77148SOL     OW33340   9.587   2.340  10.775
77148SOL    HW133341   9.510   2.387  10.806
77148SOL    HW233342   9.635   2.403  10.722
77149SOL     OW33343  12.319   2.018   0.746
77149SOL    HW133344  12.346   1.977   0.664
77149SOL    HW233345  12.256   2.085   0.719
77150SOL     OW33346  11.778  12.692   0.616
77150SOL    HW133347  11.741  12.769   0.572
77150SOL    HW233348  11.802  12.724   0.703
77151SOL     OW33349  13.268   1.106   5.750
77151SOL    HW133350  13.353   1.144   5.729
77151SOL    HW233351  13.256   1.036   5.686
77152SOL     OW33352   8.861   9.877   6.832
77152SOL    HW133353   8.841   9.855   6.923
77152SOL    HW233354   8.791   9.938   6.806
77153SOL     OW33355  11.295   6.284  11.056
77153SOL    HW133356  11.291   6.350  10.987
77153SOL    HW233357  11.387   6.278  11.079
77154SOL     OW33358   9.865   0.017  12.212
77154SOL    HW133359   9.935   0.082  12.217
77154SOL    HW233360   9.907  14.816  12.229
77155SOL     OW33361   7.711   6.544   0.136
77155SOL    HW133362   7.700   6.458   0.096
77155SOL    HW233363   7.742   6.600   0.065
77156SOL     OW33364   1.884   7.834  13.677
77156SOL    HW133365   1.966   7.859  13.718
77156SOL    HW233366   1.907   7.759  13.621
77157SOL     OW33367  13.677   5.537   4.804
77157SOL    HW133368  13.722   5.481   4.740
77157SOL    HW233369  13.588   5.502   4.807
77158SOL     OW33370   1.574   5.734   2.793
77158SOL    HW133371   1.646   5.774   2.842
77158SOL    HW233372   1.495   5.764   2.837
77159SOL     OW33373   4.677  13.885  12.605
77159SOL    HW133374   4.623  13.922  12.675
77159SOL    HW233375   4.620  13.824  12.560
77160SOL     OW33376   8.536   0.925   1.900
77160SOL    HW133377   8.488   0.977   1.835
77160SOL    HW233378   8.534   0.836   1.865
77161SOL     OW33379  13.087   5.275   8.273
77161SOL    HW133380  13.143   5.318   8.209
77161SOL    HW233381  13.148   5.248   8.342
77162SOL     OW33382   0.234   6.544   8.195
77162SOL    HW133383   0.189   6.577   8.117
77162SOL    HW233384   0.218   6.450   8.194
77163SOL     OW33385  10.554   3.062   7.786
77163SOL    HW133386  10.539   3.107   7.703
77163SOL    HW233387  10.474   3.011   7.800
77164SOL     OW33388   0.039  10.651  10.378
77164SOL    HW133389  14.848  10.634  10.319
77164SOL    HW233390   0.116  10.617  10.332
77165SOL     OW33391   1.304  10.022   0.989
77165SOL    HW133392   1.279  10.071   1.067
77165SOL    HW233393   1.222  10.006   0.943
77166SOL     OW33394   1.333   7.714   9.973
77166SOL    HW133395   1.383   7.634   9.987
77166SOL    HW233396   1.342   7.732   9.880
77167SOL     OW33397   7.288  11.075  14.088
77167SOL    HW133398   7.227  11.081  14.161
77167SOL    HW233399   7.256  11.138  14.024
77168SOL     OW33400  12.598   9.564  10.960
77168SOL    HW133401  12.610   9.524  11.047
77168SOL    HW233402  12.590   9.658  10.978
77169SOL     OW33403   8.575  13.045  14.008
77169SOL    HW133404   8.509  12.977  14.017
77169SOL    HW233405   8.571  13.071  13.916
77170SOL     OW33406   4.321   9.385  13.191
77170SOL    HW133407   4.386   9.435  13.239
77170SOL    HW233408   4.369   9.311  13.153
77171SOL     OW33409   1.235   9.242   7.831
77171SOL    HW133410   1.246   9.326   7.876
77171SOL    HW233411   1.319   9.229   7.787
77172SOL     OW33412  11.467   2.488  13.371
77172SOL    HW133413  11.394   2.453  13.321
77172SOL    HW233414  11.542   2.481  13.311
77173SOL     OW33415   8.758  14.592   6.052
77173SOL    HW133416   8.681  14.606   5.998
77173SOL    HW233417   8.798  14.678   6.061
77174SOL     OW33418   6.595  12.543   8.197
77174SOL    HW133419   6.680  12.504   8.178
77174SOL    HW233420   6.607  12.637   8.178
77175SOL     OW33421   8.909   8.981  10.962
77175SOL    HW133422   8.961   8.924  11.019
77175SOL    HW233423   8.885   8.924  10.889
77176SOL     OW33424  13.847   2.098   6.252
77176SOL    HW133425  13.892   2.182   6.239
77176SOL    HW233426  13.821   2.100   6.344
77177SOL     OW33427   9.475  13.179   2.044
77177SOL    HW133428   9.477  13.135   2.129
77177SOL    HW233429   9.449  13.269   2.064
77178SOL     OW33430   3.666   7.271  12.591
77178SOL    HW133431   3.619   7.259  12.509
77178SOL    HW233432   3.622   7.214  12.653
77179SOL     OW33433  13.321   7.303   8.904
77179SOL    HW133434  13.367   7.375   8.947
77179SOL    HW233435  13.234   7.338   8.885
77180SOL     OW33436   6.440   0.331   7.670
77180SOL    HW133437   6.405   0.368   7.751
77180SOL    HW233438   6.476   0.405   7.622
77181SOL     OW33439   2.918   6.534   7.368
77181SOL    HW133440   2.920   6.622   7.330
77181SOL    HW233441   2.987   6.487   7.320
77182SOL     OW33442   1.157  11.767   6.688
77182SOL    HW133443   1.137  11.705   6.758
77182SOL    HW233444   1.211  11.834   6.729
77183SOL     OW33445   0.742   4.761  10.105
77183SOL    HW133446   0.808   4.820  10.069
77183SOL    HW233447   0.686   4.817  10.158
77184SOL     OW33448  14.256   3.777   8.306
77184SOL    HW133449  14.277   3.740   8.391
77184SOL    HW233450  14.315   3.852   8.297
77185SOL     OW33451   1.611   4.961  14.450
77185SOL    HW133452   1.520   4.951  14.477
77185SOL    HW233453   1.611   4.940  14.357
77186SOL     OW33454   7.430   8.194  12.894
77186SOL    HW133455   7.464   8.150  12.972
77186SOL    HW233456   7.509   8.222  12.846
77187SOL     OW33457   9.792  10.843   5.348
77187SOL    HW133458   9.783  10.751   5.323
77187SOL    HW233459   9.873  10.872   5.305
77188SOL     OW33460  14.784  11.236   2.923
77188SOL    HW133461  14.814  11.173   2.989
77188SOL    HW233462  14.749  11.182   2.852
77189SOL     OW33463   4.459  14.092   0.841
77189SOL    HW133464   4.502  14.103   0.926
77189SOL    HW233465   4.399  14.018   0.854
77190SOL     OW33466   9.479   3.198   9.542
77190SOL    HW133467   9.503   3.162   9.627
77190SOL    HW233468   9.512   3.287   9.544
77191SOL     OW33469  13.481   0.092   3.136
77191SOL    HW133470  13.462   0.140   3.056
77191SOL    HW233471  13.548   0.028   3.110
77192SOL     OW33472   2.726  11.696   4.491
77192SOL    HW133473   2.706  11.767   4.430
77192SOL    HW233474   2.669  11.624   4.463
77193SOL     OW33475   9.566  10.439   4.324
77193SOL    HW133476   9.490  10.382   4.310
77193SOL    HW233477   9.633  10.381   4.361
77194SOL     OW33478  11.072  12.328   9.501
77194SOL    HW133479  11.082  12.388   9.427
77194SOL    HW233480  10.979  12.331   9.522
77195SOL     OW33481   9.964  10.234   4.516
77195SOL    HW133482   9.872  10.233   4.541
77195SOL    HW233483  10.002  10.308   4.563
77196SOL     OW33484  14.679   5.168  14.377
77196SOL    HW133485  14.716   5.192  14.292
77196SOL    HW233486  14.716   5.232  14.439
77197SOL     OW33487  13.501   5.351   2.398
77197SOL    HW133488  13.575   5.320   2.450
77197SOL    HW233489  13.505   5.300   2.317
77198SOL     OW33490   6.251  13.566   0.076
77198SOL    HW133491   6.306  13.594   0.149
77198SOL    HW233492   6.266  13.472   0.070
77199SOL     OW33493  14.083  10.976  14.373
77199SOL    HW133494  14.035  10.894  14.386
77199SOL    HW233495  14.024  11.044  14.407
77200SOL     OW33496  11.335   8.890  11.678
77200SOL    HW133497  11.399   8.910  11.610
77200SOL    HW233498  11.287   8.814  11.645
77201SOL     OW33499   6.080  12.020  13.847
77201SOL    HW133500   6.175  12.033  13.840
77201SOL    HW233501   6.070  11.925  13.857
77202SOL     OW33502  14.812  14.853   7.965
77202SOL    HW133503  14.825   0.066   7.968
77202SOL    HW233504  14.853  14.820   8.044
77203SOL     OW33505  14.692   4.204  14.213
77203SOL    HW133506  14.751   4.257  14.161
77203SOL    HW233507  14.637   4.160  14.148
77204SOL     OW33508   8.421  14.738   5.404
77204SOL    HW133509   8.467  14.675   5.348
77204SOL    HW233510   8.413  14.694   5.488
77205SOL     OW33511  12.365   7.353   8.231
77205SOL    HW133512  12.371   7.325   8.139
77205SOL    HW233513  12.349   7.447   8.226
77206SOL     OW33514  11.979  12.238   1.360
77206SOL    HW133515  12.053  12.299   1.366
77206SOL    HW233516  11.999  12.184   1.284
77207SOL     OW33517   5.580   0.883   2.674
77207SOL    HW133518   5.539   0.851   2.594
77207SOL    HW233519   5.572   0.978   2.670
77208SOL     OW33520   6.487   4.047   5.356
77208SOL    HW133521   6.455   4.129   5.390
77208SOL    HW233522   6.505   4.064   5.263
77209SOL     OW33523   5.488  10.157   6.558
77209SOL    HW133524   5.576  10.162   6.597
77209SOL    HW233525   5.430  10.194   6.625
77210SOL     OW33526  12.170   6.746  14.762
77210SOL    HW133527  12.090   6.762  14.812
77210SOL    HW233528  12.193   6.655  14.781
77211SOL     OW33529   6.894   9.181   6.678
77211SOL    HW133530   6.801   9.169   6.662
77211SOL    HW233531   6.900   9.206   6.771
77212SOL     OW33532  13.851   0.608  10.376
77212SOL    HW133533  13.846   0.687  10.323
77212SOL    HW233534  13.824   0.635  10.464
77213SOL     OW33535   6.191   0.837   1.621
77213SOL    HW133536   6.115   0.783   1.639
77213SOL    HW233537   6.156   0.924   1.605
77214SOL     OW33538   0.636   8.162  12.782
77214SOL    HW133539   0.550   8.164  12.823
77214SOL    HW233540   0.687   8.099  12.834
77215SOL     OW33541   3.390  10.238  11.148
77215SOL    HW133542   3.415  10.322  11.188
77215SOL    HW233543   3.441  10.173  11.196
77216SOL     OW33544   0.536  12.061   3.182
77216SOL    HW133545   0.478  12.011   3.125
77216SOL    HW233546   0.591  11.996   3.224
77217SOL     OW33547   5.166   8.434  13.358
77217SOL    HW133548   5.123   8.519  13.353
77217SOL    HW233549   5.168   8.414  13.452
77218SOL     OW33550  14.261   1.891   4.038
77218SOL    HW133551  14.299   1.920   4.120
77218SOL    HW233552  14.217   1.809   4.060
77219SOL     OW33553   3.971   5.241  10.918
77219SOL    HW133554   3.955   5.167  10.859
77219SOL    HW233555   3.977   5.317  10.859
77220SOL     OW33556   1.643   9.502  10.050
77220SOL    HW133557   1.555   9.489  10.014
77220SOL    HW233558   1.687   9.558   9.986
77221SOL     OW33559   4.244  10.827  14.843
77221SOL    HW133560   4.205  10.753   0.007
77221SOL    HW233561   4.221  10.813  14.751
77222SOL     OW33562  10.989  11.683   1.293
77222SOL    HW133563  11.024  11.771   1.306
77222SOL    HW233564  10.963  11.681   1.201
77223SOL     OW33565  13.317   1.619  13.816
77223SOL    HW133566  13.387   1.681  13.792
77223SOL    HW233567  13.360   1.534  13.819
77224SOL     OW33568  12.800   2.231   7.863
77224SOL    HW133569  12.768   2.220   7.773
77224SOL    HW233570  12.894   2.243   7.854
77225SOL     OW33571  14.871  13.421   5.801
77225SOL    HW133572  14.782  13.386   5.803
77225SOL    HW233573   0.036  13.370   5.867
77226SOL     OW33574  10.419   8.441  14.778
77226SOL    HW133575  10.402   8.445  14.872
77226SOL    HW233576  10.345   8.486  14.738
77227SOL     OW33577   9.521   0.374  10.735
77227SOL    HW133578   9.471   0.346  10.659
77227SOL    HW233579   9.602   0.323  10.731
77228SOL     OW33580   1.349   8.054   6.280
77228SOL    HW133581   1.409   8.047   6.206
77228SOL    HW233582   1.262   8.060   6.240
77229SOL     OW33583  11.295   4.137  10.680
77229SOL    HW133584  11.226   4.077  10.652
77229SOL    HW233585  11.247   4.213  10.715
77230SOL     OW33586  14.311   2.792   0.970
77230SOL    HW133587  14.239   2.776   1.030
77230SOL    HW233588  14.318   2.712   0.918
77231SOL     OW33589  13.082   3.118   8.326
77231SOL    HW133590  13.080   3.136   8.232
77231SOL    HW233591  13.098   3.024   8.332
77232SOL     OW33592   5.312   0.894   7.653
77232SOL    HW133593   5.296   0.938   7.736
77232SOL    HW233594   5.267   0.947   7.588
77233SOL     OW33595   5.172  13.084   5.608
77233SOL    HW133596   5.225  13.053   5.534
77233SOL    HW233597   5.236  13.121   5.669
77234SOL     OW33598  13.703  11.672  11.755
77234SOL    HW133599  13.695  11.703  11.664
77234SOL    HW233600  13.734  11.749  11.803
77235SOL     OW33601   2.512   5.532   3.904
77235SOL    HW133602   2.593   5.582   3.903
77235SOL    HW233603   2.478   5.544   3.993
77236SOL     OW33604   6.480   9.425   2.964
77236SOL    HW133605   6.442   9.445   3.050
77236SOL    HW233606   6.412   9.375   2.919
77237SOL     OW33607   3.039   7.449  12.616
77237SOL    HW133608   3.027   7.357  12.594
77237SOL    HW233609   2.951   7.486  12.613
77238SOL     OW33610  14.022   2.859   5.549
77238SOL    HW133611  14.115   2.849   5.529
77238SOL    HW233612  13.978   2.846   5.465
77239SOL     OW33613   9.831   3.440  11.796
77239SOL    HW133614   9.896   3.377  11.825
77239SOL    HW233615   9.878   3.523  11.792
77240SOL     OW33616   8.706   3.243   6.939
77240SOL    HW133617   8.715   3.169   6.999
77240SOL    HW233618   8.773   3.306   6.967
77241SOL     OW33619  12.977   9.361   0.820
77241SOL    HW133620  12.948   9.319   0.901
77241SOL    HW233621  12.897   9.372   0.768
77242SOL     OW33622   3.006   7.674  13.908
77242SOL    HW133623   3.100   7.680  13.922
77242SOL    HW233624   2.980   7.762  13.879
77243SOL     OW33625   3.760   2.115   8.449
77243SOL    HW133626   3.763   2.186   8.514
77243SOL    HW233627   3.796   2.154   8.370
77244SOL     OW33628   5.850  11.739   2.705
77244SOL    HW133629   5.901  11.676   2.653
77244SOL    HW233630   5.892  11.738   2.791
77245SOL     OW33631  12.485   5.318   7.885
77245SOL    HW133632  12.480   5.387   7.951
77245SOL    HW233633  12.507   5.365   7.804
77246SOL     OW33634   9.987   7.284   9.110
77246SOL    HW133635  10.040   7.248   9.038
77246SOL    HW233636  10.016   7.375   9.118
77247SOL     OW33637  10.964   3.671   4.495
77247SOL    HW133638  11.057   3.692   4.498
77247SOL    HW233639  10.923   3.729   4.559
77248SOL     OW33640   9.941   8.966   9.798
77248SOL    HW133641   9.921   8.900   9.865
77248SOL    HW233642   9.915   8.924   9.716
77249SOL     OW33643  11.249  13.045   1.732
77249SOL    HW133644  11.251  13.076   1.823
77249SOL    HW233645  11.309  13.103   1.685
77250SOL     OW33646   5.808  14.371  10.566
77250SOL    HW133647   5.801  14.332  10.479
77250SOL    HW233648   5.749  14.447  10.563
77251SOL     OW33649  14.622   2.527  10.951
77251SOL    HW133650  14.641   2.610  10.995
77251SOL    HW233651  14.650   2.542  10.861
77252SOL     OW33652  13.456  12.818   1.037
77252SOL    HW133653  13.490  12.759   0.970
77252SOL    HW233654  13.481  12.906   1.007
77253SOL     OW33655  12.572   5.342   9.602
77253SOL    HW133656  12.640   5.381   9.547
77253SOL    HW233657  12.509   5.412   9.616
77254SOL     OW33658   3.566   4.615   8.720
77254SOL    HW133659   3.471   4.613   8.711
77254SOL    HW233660   3.595   4.531   8.685
77255SOL     OW33661  13.270  12.917   6.312
77255SOL    HW133662  13.254  12.877   6.398
77255SOL    HW233663  13.343  12.977   6.327
77256SOL     OW33664   5.293   9.792   3.497
77256SOL    HW133665   5.343   9.713   3.515
77256SOL    HW233666   5.276   9.829   3.584
77257SOL     OW33667   6.109   8.417   4.438
77257SOL    HW133668   6.048   8.491   4.438
77257SOL    HW233669   6.073   8.356   4.503
77258SOL     OW33670   0.047  12.563   6.903
77258SOL    HW133671   0.041  12.557   6.999
77258SOL    HW233672   0.120  12.622   6.887
77259SOL     OW33673   9.115   6.040   5.189
77259SOL    HW133674   9.210   6.044   5.201
77259SOL    HW233675   9.098   6.099   5.116
77260SOL     OW33676  14.806   7.395   4.697
77260SOL    HW133677  14.787   7.317   4.644
77260SOL    HW233678   0.003   7.371   4.745
77261SOL     OW33679   8.699   6.280   5.947
77261SOL    HW133680   8.743   6.340   5.887
77261SOL    HW233681   8.721   6.312   6.034
77262SOL     OW33682   7.279   4.646   4.429
77262SOL    HW133683   7.349   4.582   4.419
77262SOL    HW233684   7.272   4.660   4.524
77263SOL     OW33685   1.548   8.509   7.751
77263SOL    HW133686   1.479   8.538   7.811
77263SOL    HW233687   1.576   8.425   7.786
77264SOL     OW33688   7.130  11.595   0.776
77264SOL    HW133689   7.170  11.592   0.863
77264SOL    HW233690   7.186  11.654   0.726
77265SOL     OW33691   3.147   4.478   6.458
77265SOL    HW133692   3.073   4.420   6.441
77265SOL    HW233693   3.163   4.469   6.552
77266SOL     OW33694   4.884  13.890   1.037
77266SOL    HW133695   4.963  13.839   1.053
77266SOL    HW233696   4.881  13.901   0.942
77267SOL     OW33697   4.330  12.292   9.808
77267SOL    HW133698   4.416  12.255   9.789
77267SOL    HW233699   4.278  12.272   9.730
77268SOL     OW33700   3.159  10.595  12.373
77268SOL    HW133701   3.253  10.611  12.361
77268SOL    HW233702   3.135  10.539  12.299
77269SOL     OW33703  10.711   3.111   2.303
77269SOL    HW133704  10.642   3.049   2.327
77269SOL    HW233705  10.765   3.063   2.240
77270SOL     OW33706  10.151  12.887  10.213
77270SOL    HW133707  10.100  12.821  10.166
77270SOL    HW233708  10.241  12.854  10.211
77271SOL     OW33709   5.373   4.243   2.052
77271SOL    HW133710   5.355   4.197   2.135
77271SOL    HW233711   5.313   4.317   2.053
77272SOL     OW33712  14.285   3.781   6.287
77272SOL    HW133713  14.356   3.743   6.339
77272SOL    HW233714  14.241   3.842   6.347
77273SOL     OW33715   7.067  12.510   2.097
77273SOL    HW133716   7.128  12.440   2.121
77273SOL    HW233717   6.984  12.484   2.139
77274SOL     OW33718  12.339   3.166   4.063
77274SOL    HW133719  12.266   3.108   4.040
77274SOL    HW233720  12.393   3.115   4.122
77275SOL     OW33721   4.909   9.674   6.649
77275SOL    HW133722   4.821   9.651   6.678
77275SOL    HW233723   4.897   9.755   6.598
77276SOL     OW33724  10.054   1.898   2.064
77276SOL    HW133725  10.075   1.950   1.987
77276SOL    HW233726  10.025   1.961   2.130
77277SOL     OW33727  11.905   4.355  13.529
77277SOL    HW133728  11.840   4.292  13.498
77277SOL    HW233729  11.916   4.416  13.456
77278SOL     OW33730  14.004   2.329   4.062
77278SOL    HW133731  14.088   2.308   4.103
77278SOL    HW233732  14.010   2.423   4.042
77279SOL     OW33733   6.441   3.645   0.288
77279SOL    HW133734   6.405   3.569   0.333
77279SOL    HW233735   6.414   3.720   0.340
77280SOL     OW33736  11.159   9.630  12.641
77280SOL    HW133737  11.104   9.708  12.632
77280SOL    HW233738  11.187   9.611  12.551
77281SOL     OW33739   1.615  11.785   5.607
77281SOL    HW133740   1.545  11.834   5.564
77281SOL    HW233741   1.684  11.849   5.622
77282SOL     OW33742   4.856   0.344   2.422
77282SOL    HW133743   4.950   0.339   2.402
77282SOL    HW233744   4.813   0.301   2.349
77283SOL     OW33745  13.289  11.225   2.098
77283SOL    HW133746  13.211  11.224   2.153
77283SOL    HW233747  13.293  11.137   2.061
77284SOL     OW33748   0.172   4.844   8.439
77284SOL    HW133749   0.180   4.893   8.357
77284SOL    HW233750   0.211   4.902   8.505
77285SOL     OW33751   6.164   0.717   6.076
77285SOL    HW133752   6.255   0.745   6.071
77285SOL    HW233753   6.168   0.622   6.087
77286SOL     OW33754  11.712   4.701  14.681
77286SOL    HW133755  11.730   4.742  14.597
77286SOL    HW233756  11.617   4.703  14.689
77287SOL     OW33757  11.192  13.657  10.891
77287SOL    HW133758  11.159  13.716  10.958
77287SOL    HW233759  11.157  13.691  10.809
77288SOL     OW33760   2.818  11.773  14.574
77288SOL    HW133761   2.743  11.832  14.586
77288SOL    HW233762   2.894  11.826  14.597
77289SOL     OW33763   7.178   6.738   3.460
77289SOL    HW133764   7.158   6.831   3.463
77289SOL    HW233765   7.246   6.726   3.527
77290SOL     OW33766  14.773  13.662   0.912
77290SOL    HW133767  14.785  13.568   0.924
77290SOL    HW233768  14.691  13.682   0.957
77291SOL     OW33769   6.185   7.750   0.391
77291SOL    HW133770   6.225   7.666   0.370
77291SOL    HW233771   6.240   7.786   0.460
77292SOL     OW33772  11.391   8.976  10.551
77292SOL    HW133773  11.464   8.926  10.514
77292SOL    HW233774  11.410   9.067  10.529
77293SOL     OW33775   2.294   9.809   9.984
77293SOL    HW133776   2.351   9.768   9.919
77293SOL    HW233777   2.235   9.864   9.932
77294SOL     OW33778   9.149  10.849  12.437
77294SOL    HW133779   9.209  10.834  12.510
77294SOL    HW233780   9.063  10.822  12.471
77295SOL     OW33781   6.781  14.114   4.301
77295SOL    HW133782   6.720  14.064   4.247
77295SOL    HW233783   6.730  14.143   4.376
77296SOL     OW33784   3.117   9.918   9.566
77296SOL    HW133785   3.154   9.835   9.594
77296SOL    HW233786   3.096   9.904   9.473
77297SOL     OW33787   9.421  11.460   2.080
77297SOL    HW133788   9.343  11.495   2.036
77297SOL    HW233789   9.386  11.393   2.139
77298SOL     OW33790   4.869   4.802   9.364
77298SOL    HW133791   4.891   4.732   9.425
77298SOL    HW233792   4.789   4.841   9.399
77299SOL     OW33793  14.187   0.589   3.145
77299SOL    HW133794  14.117   0.649   3.173
77299SOL    HW233795  14.249   0.645   3.098
77300SOL     OW33796   8.016   2.589   4.940
77300SOL    HW133797   8.054   2.513   4.983
77300SOL    HW233798   8.089   2.650   4.928
77301SOL     OW33799   2.107   4.723   8.493
77301SOL    HW133800   2.098   4.796   8.555
77301SOL    HW233801   2.028   4.671   8.505
77302SOL     OW33802  12.226   1.487   9.037
77302SOL    HW133803  12.206   1.523   9.123
77302SOL    HW233804  12.177   1.541   8.976
77303SOL     OW33805   1.783  12.257   6.354
77303SOL    HW133806   1.792  12.207   6.435
77303SOL    HW233807   1.688  12.258   6.337
77304SOL     OW33808   7.382  12.776  11.293
77304SOL    HW133809   7.296  12.779  11.249
77304SOL    HW233810   7.416  12.690  11.272
77305SOL     OW33811   0.566  10.009   9.957
77305SOL    HW133812   0.584   9.992  10.049
77305SOL    HW233813   0.498  10.077   9.958
77306SOL     OW33814   5.839  13.793   4.051
77306SOL    HW133815   5.909  13.820   3.992
77306SOL    HW233816   5.877  13.722   4.103
77307SOL     OW33817   2.776   7.007   5.297
77307SOL    HW133818   2.690   6.971   5.321
77307SOL    HW233819   2.756   7.094   5.262
77308SOL     OW33820  11.168  13.064   5.371
77308SOL    HW133821  11.082  13.102   5.353
77308SOL    HW233822  11.217  13.135   5.412
77309SOL     OW33823   3.946   0.470   6.461
77309SOL    HW133824   3.953   0.435   6.550
77309SOL    HW233825   3.853   0.462   6.440
77310SOL     OW33826   3.003  11.840   8.777
77310SOL    HW133827   2.930  11.903   8.775
77310SOL    HW233828   3.001  11.804   8.866
77311SOL     OW33829   7.411   7.518   4.423
77311SOL    HW133830   7.458   7.513   4.340
77311SOL    HW233831   7.413   7.611   4.447
77312SOL     OW33832   9.835   7.321   0.561
77312SOL    HW133833   9.854   7.234   0.526
77312SOL    HW233834   9.746   7.314   0.596
77313SOL     OW33835   1.253   2.705   1.286
77313SOL    HW133836   1.271   2.611   1.297
77313SOL    HW233837   1.325   2.748   1.333
77314SOL     OW33838  10.638   4.252  12.843
77314SOL    HW133839  10.619   4.318  12.909
77314SOL    HW233840  10.566   4.259  12.780
77315SOL     OW33841  10.872  12.020   8.320
77315SOL    HW133842  10.803  11.955   8.303
77315SOL    HW233843  10.838  12.101   8.281
77316SOL     OW33844   5.981   7.302  10.662
77316SOL    HW133845   6.068   7.340  10.652
77316SOL    HW233846   5.986   7.217  10.616
77317SOL     OW33847  13.597  12.352   6.646
77317SOL    HW133848  13.583  12.440   6.681
77317SOL    HW233849  13.596  12.364   6.551
77318SOL     OW33850  10.667  14.492   9.547
77318SOL    HW133851  10.752  14.447   9.550
77318SOL    HW233852  10.668  14.550   9.622
77319SOL     OW33853  13.993   8.794   2.070
77319SOL    HW133854  13.933   8.825   2.002
77319SOL    HW233855  14.065   8.753   2.022
77320SOL     OW33856  12.062   4.118   5.764
77320SOL    HW133857  11.972   4.094   5.741
77320SOL    HW233858  12.100   4.152   5.683
77321SOL     OW33859  12.533  12.102   5.180
77321SOL    HW133860  12.448  12.080   5.217
77321SOL    HW233861  12.597  12.070   5.244
77322SOL     OW33862   1.556   8.983  11.973
77322SOL    HW133863   1.494   9.052  11.996
77322SOL    HW233864   1.566   8.991  11.878
77323SOL     OW33865  13.899  10.417  11.587
77323SOL    HW133866  13.967  10.360  11.622
77323SOL    HW233867  13.829  10.358  11.561
77324SOL     OW33868   7.309   0.905   4.141
77324SOL    HW133869   7.404   0.913   4.145
77324SOL    HW233870   7.293   0.810   4.145
77325SOL     OW33871   2.651   0.073   0.211
77325SOL    HW133872   2.605   0.076   0.127
77325SOL    HW233873   2.584   0.045   0.274
77326SOL     OW33874  12.741   2.857  12.862
77326SOL    HW133875  12.680   2.821  12.796
77326SOL    HW233876  12.743   2.791  12.931
77327SOL     OW33877   9.036   0.039   0.871
77327SOL    HW133878   8.982   0.004   0.941
77327SOL    HW233879   9.033  14.854   0.803
77328SOL     OW33880   8.410   6.539  11.792
77328SOL    HW133881   8.331   6.484  11.796
77328SOL    HW233882   8.427   6.550  11.698
77329SOL     OW33883   5.544   2.493   3.177
77329SOL    HW133884   5.469   2.500   3.237
77329SOL    HW233885   5.506   2.471   3.093
77330SOL     OW33886  14.194  13.938  13.196
77330SOL    HW133887  14.106  13.901  13.184
77330SOL    HW233888  14.188  13.989  13.277
77331SOL     OW33889  13.926   6.533   9.725
77331SOL    HW133890  13.852   6.504   9.779
77331SOL    HW233891  13.938   6.625   9.749
77332SOL     OW33892   1.355   7.093  13.508
77332SOL    HW133893   1.340   7.004  13.478
77332SOL    HW233894   1.411   7.084  13.585
77333SOL     OW33895   3.742   2.140   9.382
77333SOL    HW133896   3.713   2.050   9.399
77333SOL    HW233897   3.821   2.150   9.435
77334SOL     OW33898   6.112   5.642  14.295
77334SOL    HW133899   6.043   5.629  14.359
77334SOL    HW233900   6.171   5.567  14.308
77335SOL     OW33901   6.504   3.799  12.737
77335SOL    HW133902   6.538   3.748  12.809
77335SOL    HW233903   6.517   3.744  12.660
77336SOL     OW33904  11.493  11.293   7.192
77336SOL    HW133905  11.402  11.292   7.165
77336SOL    HW233906  11.498  11.363   7.257
77337SOL     OW33907  12.692   5.631  11.240
77337SOL    HW133908  12.610   5.667  11.274
77337SOL    HW233909  12.755   5.644  11.311
77338SOL     OW33910   3.661  10.504   7.979
77338SOL    HW133911   3.733  10.539   8.032
77338SOL    HW233912   3.630  10.580   7.929
77339SOL     OW33913   6.085   4.064   4.054
77339SOL    HW133914   6.118   3.977   4.076
77339SOL    HW233915   6.069   4.060   3.960
77340SOL     OW33916   2.335   2.407   7.697
77340SOL    HW133917   2.419   2.393   7.653
77340SOL    HW233918   2.271   2.368   7.637
77341SOL     OW33919   3.672   2.886   9.768
77341SOL    HW133920   3.747   2.946   9.772
77341SOL    HW233921   3.608   2.932   9.715
77342SOL     OW33922   2.047   7.887  11.238
77342SOL    HW133923   2.006   7.807  11.204
77342SOL    HW233924   2.123   7.900  11.181
77343SOL     OW33925   2.001  11.683  10.587
77343SOL    HW133926   1.995  11.764  10.536
77343SOL    HW233927   1.924  11.685  10.645
77344SOL     OW33928   2.721   0.500   4.064
77344SOL    HW133929   2.804   0.452   4.055
77344SOL    HW233930   2.683   0.500   3.977
77345SOL     OW33931  13.773  11.604   5.892
77345SOL    HW133932  13.822  11.526   5.917
77345SOL    HW233933  13.694  11.571   5.851
77346SOL     OW33934   5.314  12.621   3.309
77346SOL    HW133935   5.385  12.583   3.361
77346SOL    HW233936   5.354  12.698   3.269
77347SOL     OW33937   6.576   1.501   4.710
77347SOL    HW133938   6.532   1.417   4.722
77347SOL    HW233939   6.646   1.502   4.775
77348SOL     OW33940  13.133   0.461   8.540
77348SOL    HW133941  13.093   0.489   8.458
77348SOL    HW233942  13.061   0.423   8.591
77349SOL     OW33943  14.233   7.919   3.023
77349SOL    HW133944  14.266   7.992   3.076
77349SOL    HW233945  14.228   7.954   2.934
77350SOL     OW33946  14.593   2.530   9.422
77350SOL    HW133947  14.540   2.549   9.499
77350SOL    HW233948  14.664   2.594   9.426
77351SOL     OW33949   2.005   5.424   8.346
77351SOL    HW133950   1.993   5.480   8.270
77351SOL    HW233951   1.962   5.471   8.417
77352SOL     OW33952   4.431   9.035   0.221
77352SOL    HW133953   4.337   9.017   0.229
77352SOL    HW233954   4.438   9.130   0.228
77353SOL     OW33955   1.366   2.665  11.540
77353SOL    HW133956   1.425   2.733  11.508
77353SOL    HW233957   1.279   2.690  11.508
77354SOL     OW33958   8.250  13.472   6.257
77354SOL    HW133959   8.227  13.493   6.348
77354SOL    HW233960   8.282  13.382   6.262
77355SOL     OW33961  13.018  14.181   8.709
77355SOL    HW133962  13.025  14.198   8.803
77355SOL    HW233963  13.101  14.211   8.672
77356SOL     OW33964  12.607  11.985   7.876
77356SOL    HW133965  12.584  12.027   7.959
77356SOL    HW233966  12.553  11.907   7.873
77357SOL     OW33967   9.177  10.590   2.759
77357SOL    HW133968   9.172  10.643   2.839
77357SOL    HW233969   9.134  10.507   2.783
77358SOL     OW33970   4.920   2.298  12.780
77358SOL    HW133971   4.938   2.224  12.722
77358SOL    HW233972   4.878   2.363  12.724
77359SOL     OW33973   6.715   3.253  11.776
77359SOL    HW133974   6.726   3.346  11.761
77359SOL    HW233975   6.641   3.227  11.721
77360SOL     OW33976  11.141  10.099   7.610
77360SOL    HW133977  11.189  10.173   7.648
77360SOL    HW233978  11.208  10.042   7.574
77361SOL     OW33979   4.293   7.353  10.613
77361SOL    HW133980   4.263   7.330  10.525
77361SOL    HW233981   4.316   7.269  10.653
77362SOL     OW33982  11.084  10.201  10.838
77362SOL    HW133983  11.121  10.260  10.772
77362SOL    HW233984  11.121  10.115  10.817
77363SOL     OW33985  14.486   8.876   1.541
77363SOL    HW133986  14.465   8.928   1.619
77363SOL    HW233987  14.410   8.819   1.529
77364SOL     OW33988   4.074   0.020   2.228
77364SOL    HW133989   4.072   0.014   2.324
77364SOL    HW233990   4.165   0.039   2.207
77365SOL     OW33991   3.653  10.785   3.893
77365SOL    HW133992   3.591  10.747   3.831
77365SOL    HW233993   3.681  10.867   3.853
77366SOL     OW33994   1.535  11.724   1.766
77366SOL    HW133995   1.583  11.803   1.792
77366SOL    HW233996   1.449  11.733   1.808
77367SOL     OW33997  11.619   2.562  10.179
77367SOL    HW133998  11.682   2.619  10.135
77367SOL    HW233999  11.660   2.476  10.178
77368SOL     OW34000   7.436   4.837  11.689
77368SOL    HW134001   7.459   4.916  11.737
77368SOL    HW234002   7.348   4.854  11.654
77369SOL     OW34003   2.442  14.088  11.339
77369SOL    HW134004   2.449  14.001  11.300
77369SOL    HW234005   2.475  14.077  11.429
77370SOL     OW34006   4.857  11.471  11.189
77370SOL    HW134007   4.809  11.539  11.143
77370SOL    HW234008   4.949  11.490  11.171
77371SOL     OW34009   2.869   1.587  11.415
77371SOL    HW134010   2.835   1.498  11.425
77371SOL    HW234011   2.949   1.589  11.467
77372SOL     OW34012   6.790   3.696   0.431
77372SOL    HW134013   6.766   3.636   0.501
77372SOL    HW234014   6.810   3.778   0.475
77373SOL     OW34015   4.341   1.205   1.249
77373SOL    HW134016   4.309   1.160   1.327
77373SOL    HW234017   4.329   1.140   1.179
77374SOL     OW34018   6.620   2.146   8.172
77374SOL    HW134019   6.558   2.169   8.103
77374SOL    HW234020   6.704   2.180   8.141
77375SOL     OW34021   5.282   1.496   7.949
77375SOL    HW134022   5.236   1.542   7.879
77375SOL    HW234023   5.364   1.545   7.959
77376SOL     OW34024  11.006   2.473   5.812
77376SOL    HW134025  10.960   2.468   5.729
77376SOL    HW234026  11.026   2.566   5.823
77377SOL     OW34027   8.855  12.711   5.981
77377SOL    HW134028   8.835  12.696   5.889
77377SOL    HW234029   8.944  12.746   5.980
77378SOL     OW34030  11.704  14.344  12.049
77378SOL    HW134031  11.629  14.286  12.061
77378SOL    HW234032  11.673  14.411  11.988
77379SOL     OW34033   1.219  11.599   8.549
77379SOL    HW134034   1.313  11.618   8.544
77379SOL    HW234035   1.211  11.532   8.616
77380SOL     OW34036  10.853   5.399  14.244
77380SOL    HW134037  10.759   5.386  14.239
77380SOL    HW234038  10.885   5.383  14.155
77381SOL     OW34039   1.809   7.301   7.986
77381SOL    HW134040   1.857   7.261   7.913
77381SOL    HW234041   1.810   7.235   8.054
77382SOL     OW34042  13.203   8.557   9.892
77382SOL    HW134043  13.290   8.554   9.932
77382SOL    HW234044  13.172   8.466   9.894
77383SOL     OW34045   0.434   5.438   0.184
77383SOL    HW134046   0.474   5.520   0.156
77383SOL    HW234047   0.340   5.450   0.167
77384SOL     OW34048   1.498   7.312   3.072
77384SOL    HW134049   1.479   7.223   3.100
77384SOL    HW234050   1.418   7.361   3.090
77385SOL     OW34051   7.224   7.400   4.559
77385SOL    HW134052   7.308   7.440   4.536
77385SOL    HW234053   7.166   7.474   4.576
77386SOL     OW34054   6.976   4.258   6.877
77386SOL    HW134055   6.911   4.319   6.912
77386SOL    HW234056   6.931   4.174   6.876
77387SOL     OW34057  10.944  11.698  10.355
77387SOL    HW134058  10.985  11.635  10.415
77387SOL    HW234059  10.989  11.781  10.374
77388SOL     OW34060  11.437  12.815   7.578
77388SOL    HW134061  11.517  12.842   7.623
77388SOL    HW234062  11.421  12.883   7.512
77389SOL     OW34063  12.851   3.254   2.799
77389SOL    HW134064  12.814   3.178   2.754
77389SOL    HW234065  12.855   3.322   2.732
77390SOL     OW34066  13.940   3.273  12.220
77390SOL    HW134067  13.916   3.217  12.293
77390SOL    HW234068  13.961   3.213  12.148
77391SOL     OW34069   1.497   6.264   7.692
77391SOL    HW134070   1.514   6.262   7.598
77391SOL    HW234071   1.507   6.356   7.716
77392SOL     OW34072   7.765   0.102  14.852
77392SOL    HW134073   7.797   0.127  14.765
77392SOL    HW234074   7.829   0.038   0.001
77393SOL     OW34075   9.097   2.549   2.211
77393SOL    HW134076   9.160   2.605   2.166
77393SOL    HW234077   9.012   2.589   2.191
77394SOL     OW34078  14.451   6.343   3.110
77394SOL    HW134079  14.466   6.396   3.031
77394SOL    HW234080  14.520   6.277   3.108
77395SOL     OW34081  13.883   2.797  10.398
77395SOL    HW134082  13.867   2.891  10.407
77395SOL    HW234083  13.931   2.773  10.478
77396SOL     OW34084  11.288   1.229  10.156
77396SOL    HW134085  11.203   1.220  10.200
77396SOL    HW234086  11.352   1.213  10.225
77397SOL     OW34087   1.216   6.118  12.080
77397SOL    HW134088   1.191   6.040  12.030
77397SOL    HW234089   1.299   6.093  12.122
77398SOL     OW34090   7.723   4.149  12.770
77398SOL    HW134091   7.666   4.143  12.846
77398SOL    HW234092   7.735   4.243  12.756
77399SOL     OW34093   6.692  14.428   4.926
77399SOL    HW134094   6.655  14.454   5.010
77399SOL    HW234095   6.665  14.337   4.914
77400SOL     OW34096  13.052   6.210   7.575
77400SOL    HW134097  12.968   6.191   7.616
77400SOL    HW234098  13.032   6.277   7.509
77401SOL     OW34099   8.404   0.196  13.902
77401SOL    HW134100   8.456   0.118  13.885
77401SOL    HW234101   8.458   0.269  13.870
77402SOL     OW34102   8.250   5.195   8.238
77402SOL    HW134103   8.327   5.250   8.246
77402SOL    HW234104   8.177   5.252   8.261
77403SOL     OW34105   2.830   3.848   3.415
77403SOL    HW134106   2.865   3.798   3.489
77403SOL    HW234107   2.827   3.785   3.343
77404SOL     OW34108  12.936   7.644   6.903
77404SOL    HW134109  12.994   7.569   6.915
77404SOL    HW234110  12.995   7.718   6.888
77405SOL     OW34111   7.650   3.577   2.753
77405SOL    HW134112   7.586   3.639   2.718
77405SOL    HW234113   7.734   3.609   2.722
77406SOL     OW34114   4.311   6.643  11.377
77406SOL    HW134115   4.392   6.601  11.346
77406SOL    HW234116   4.330   6.737  11.372
77407SOL     OW34117   8.345   2.438   0.254
77407SOL    HW134118   8.306   2.373   0.195
77407SOL    HW234119   8.281   2.447   0.324
77408SOL     OW34120   3.063   9.711  12.573
77408SOL    HW134121   3.141   9.690  12.522
77408SOL    HW234122   2.990   9.686  12.517
77409SOL     OW34123  12.796  14.500  11.073
77409SOL    HW134124  12.712  14.539  11.099
77409SOL    HW234125  12.818  14.542  10.990
77410SOL     OW34126  10.083   3.463   2.018
77410SOL    HW134127  10.105   3.428   1.932
77410SOL    HW234128   9.988   3.472   2.017
77411SOL     OW34129   3.114   4.587  14.124
77411SOL    HW134130   3.142   4.512  14.176
77411SOL    HW234131   3.056   4.636  14.182
77412SOL     OW34132  13.805   2.940  11.460
77412SOL    HW134133  13.709   2.947  11.460
77412SOL    HW234134  13.832   2.985  11.540
77413SOL     OW34135   4.488  14.069   9.654
77413SOL    HW134136   4.462  14.004   9.589
77413SOL    HW234137   4.532  14.138   9.603
77414SOL     OW34138   8.503   5.799   8.501
77414SOL    HW134139   8.411   5.812   8.526
77414SOL    HW234140   8.536   5.736   8.566
77415SOL     OW34141  13.964  12.257   8.509
77415SOL    HW134142  13.951  12.239   8.602
77415SOL    HW234143  13.993  12.173   8.472
77416SOL     OW34144   8.165  10.127  12.358
77416SOL    HW134145   8.226  10.078  12.412
77416SOL    HW234146   8.182  10.095  12.269
77417SOL     OW34147  11.351   9.978   4.335
77417SOL    HW134148  11.356   9.995   4.241
77417SOL    HW234149  11.357  10.065   4.375
77418SOL     OW34150   3.102   9.749   7.475
77418SOL    HW134151   3.128   9.673   7.423
77418SOL    HW234152   3.118   9.824   7.418
77419SOL     OW34153  13.744   0.591   1.349
77419SOL    HW134154  13.679   0.615   1.416
77419SOL    HW234155  13.715   0.637   1.271
77420SOL     OW34156   5.123  12.530  10.667
77420SOL    HW134157   5.059  12.532  10.597
77420SOL    HW234158   5.141  12.622  10.686
77421SOL     OW34159  13.634   7.282  13.925
77421SOL    HW134160  13.668   7.340  13.857
77421SOL    HW234161  13.658   7.194  13.896
77422SOL     OW34162  10.022  12.305  11.197
77422SOL    HW134163  10.037  12.240  11.129
77422SOL    HW234164   9.941  12.350  11.171
77423SOL     OW34165  13.118   2.666  14.619
77423SOL    HW134166  13.145   2.758  14.624
77423SOL    HW234167  13.186   2.624  14.567
77424SOL     OW34168   0.260  12.126   0.605
77424SOL    HW134169   0.193  12.110   0.672
77424SOL    HW234170   0.248  12.218   0.581
77425SOL     OW34171  11.205  12.067   6.112
77425SOL    HW134172  11.168  12.104   6.191
77425SOL    HW234173  11.288  12.028   6.139
77426SOL     OW34174  11.473  10.048  13.515
77426SOL    HW134175  11.426  10.013  13.439
77426SOL    HW234176  11.481   9.973  13.574
77427SOL     OW34177  10.270   2.166   8.700
77427SOL    HW134178  10.328   2.212   8.639
77427SOL    HW234179  10.195   2.141   8.646
77428SOL     OW34180  12.947  11.220   2.477
77428SOL    HW134181  12.988  11.138   2.506
77428SOL    HW234182  12.986  11.287   2.532
77429SOL     OW34183   5.195  10.460   2.092
77429SOL    HW134184   5.184  10.371   2.059
77429SOL    HW234185   5.139  10.464   2.169
77430SOL     OW34186  11.893   0.276   7.948
77430SOL    HW134187  11.923   0.196   7.990
77430SOL    HW234188  11.833   0.315   8.011
77431SOL     OW34189   6.136   1.387   1.656
77431SOL    HW134190   6.129   1.466   1.711
77431SOL    HW234191   6.212   1.403   1.601
77432SOL     OW34192  11.946  14.320   9.718
77432SOL    HW134193  12.015  14.380   9.744
77432SOL    HW234194  11.899  14.300   9.799
77433SOL     OW34195  12.152  14.475   9.829
77433SOL    HW134196  12.134  14.531   9.904
77433SOL    HW234197  12.176  14.535   9.759
77434SOL     OW34198  12.967  14.759   9.386
77434SOL    HW134199  13.028  14.831   9.369
77434SOL    HW234200  13.003  14.685   9.339
77435SOL     OW34201   0.610   9.742  11.792
77435SOL    HW134202   0.650   9.692  11.720
77435SOL    HW234203   0.519   9.752  11.766
77436SOL     OW34204   6.839   2.382  14.285
77436SOL    HW134205   6.786   2.461  14.284
77436SOL    HW234206   6.926   2.412  14.312
77437SOL     OW34207   6.728  10.026   1.018
77437SOL    HW134208   6.718  10.053   1.110
77437SOL    HW234209   6.701   9.935   1.016
77438SOL     OW34210   5.490   3.943   9.421
77438SOL    HW134211   5.459   4.001   9.351
77438SOL    HW234212   5.538   4.000   9.481
77439SOL     OW34213   4.496  11.013   8.489
77439SOL    HW134214   4.431  10.972   8.432
77439SOL    HW234215   4.490  10.964   8.571
77440SOL     OW34216   0.543   3.102   8.338
77440SOL    HW134217   0.548   3.075   8.430
77440SOL    HW234218   0.514   3.023   8.292
77441SOL     OW34219   7.820  14.492  12.166
77441SOL    HW134220   7.740  14.470  12.215
77441SOL    HW234221   7.796  14.568  12.114
77442SOL     OW34222  10.850   2.001   6.588
77442SOL    HW134223  10.888   1.986   6.501
77442SOL    HW234224  10.811   2.088   6.583
77443SOL     OW34225   6.057  11.225  11.290
77443SOL    HW134226   6.037  11.137  11.322
77443SOL    HW234227   6.139  11.248  11.333
77444SOL     OW34228   3.004   3.657   0.347
77444SOL    HW134229   3.005   3.575   0.396
77444SOL    HW234230   2.999   3.629   0.255
77445SOL     OW34231   6.412   0.388   0.677
77445SOL    HW134232   6.488   0.332   0.693
77445SOL    HW234233   6.344   0.327   0.648
77446SOL     OW34234   7.767  13.554  10.276
77446SOL    HW134235   7.860  13.559  10.295
77446SOL    HW234236   7.747  13.637  10.233
77447SOL     OW34237  10.353  13.410  13.227
77447SOL    HW134238  10.279  13.464  13.251
77447SOL    HW234239  10.367  13.352  13.302
77448SOL     OW34240   3.885   7.989  10.307
77448SOL    HW134241   3.867   7.929  10.380
77448SOL    HW234242   3.918   8.068  10.349
77449SOL     OW34243   7.686  13.972   1.291
77449SOL    HW134244   7.620  13.985   1.223
77449SOL    HW234245   7.675  14.047   1.349
77450SOL     OW34246  13.770   4.074  12.618
77450SOL    HW134247  13.772   4.158  12.571
77450SOL    HW234248  13.715   4.018  12.564
77451SOL     OW34249  13.749   1.303   9.469
77451SOL    HW134250  13.826   1.341   9.427
77451SOL    HW234251  13.775   1.213   9.489
77452SOL     OW34252   8.523   6.020   5.379
77452SOL    HW134253   8.568   6.048   5.459
77452SOL    HW234254   8.532   6.095   5.319
77453SOL     OW34255   2.929  12.044  11.391
77453SOL    HW134256   2.999  12.026  11.329
77453SOL    HW234257   2.942  11.981  11.462
77454SOL     OW34258   9.272   4.123  10.848
77454SOL    HW134259   9.230   4.190  10.902
77454SOL    HW234260   9.213   4.048  10.854
77455SOL     OW34261   6.854   5.340   6.405
77455SOL    HW134262   6.823   5.430   6.401
77455SOL    HW234263   6.784   5.289   6.365
77456SOL     OW34264  13.988  14.165  14.132
77456SOL    HW134265  13.918  14.181  14.068
77456SOL    HW234266  13.999  14.070  14.132
77457SOL     OW34267  13.242   2.410   3.372
77457SOL    HW134268  13.215   2.376   3.458
77457SOL    HW234269  13.161   2.417   3.322
77458SOL     OW34270   4.847   4.622   8.766
77458SOL    HW134271   4.938   4.601   8.788
77458SOL    HW234272   4.813   4.666   8.843
77459SOL     OW34273   5.925   7.296   4.209
77459SOL    HW134274   5.867   7.302   4.133
77459SOL    HW234275   5.920   7.204   4.235
77460SOL     OW34276  10.626  14.459   5.313
77460SOL    HW134277  10.615  14.421   5.400
77460SOL    HW234278  10.607  14.552   5.324
77461SOL     OW34279   8.105  13.018   6.679
77461SOL    HW134280   8.090  12.940   6.732
77461SOL    HW234281   8.123  12.985   6.591
77462SOL     OW34282   3.011   7.459   9.409
77462SOL    HW134283   2.924   7.497   9.418
77462SOL    HW234284   3.000   7.387   9.347
77463SOL     OW34285   8.801  13.236  12.174
77463SOL    HW134286   8.719  13.261  12.132
77463SOL    HW234287   8.813  13.300  12.245
77464SOL     OW34288   7.657   8.317  13.068
77464SOL    HW134289   7.610   8.345  12.989
77464SOL    HW234290   7.749   8.338  13.049
77465SOL     OW34291   1.863   0.159  13.025
77465SOL    HW134292   1.794   0.220  12.997
77465SOL    HW234293   1.817   0.077  13.042
77466SOL     OW34294  10.815  13.709   8.681
77466SOL    HW134295  10.789  13.628   8.724
77466SOL    HW234296  10.832  13.770   8.753
77467SOL     OW34297   4.572   9.437  14.252
77467SOL    HW134298   4.537   9.525  14.267
77467SOL    HW234299   4.550   9.389  14.332
77468SOL     OW34300  10.886   3.615  10.375
77468SOL    HW134301  10.949   3.615  10.303
77468SOL    HW234302  10.937   3.636  10.452
77469SOL     OW34303   2.571  14.327  10.350
77469SOL    HW134304   2.666  14.315  10.355
77469SOL    HW234305   2.544  14.269  10.278
77470SOL     OW34306  13.214  14.593   8.392
77470SOL    HW134307  13.264  14.661   8.438
77470SOL    HW234308  13.279  14.548   8.338
77471SOL     OW34309   6.684   8.420   6.937
77471SOL    HW134310   6.741   8.377   7.000
77471SOL    HW234311   6.597   8.416   6.976
77472SOL     OW34312   0.159   1.116   7.718
77472SOL    HW134313   0.197   1.093   7.633
77472SOL    HW234314   0.209   1.192   7.747
77473SOL     OW34315   0.187   3.651  13.274
77473SOL    HW134316   0.237   3.702  13.337
77473SOL    HW234317   0.101   3.639  13.315
77474SOL     OW34318   3.725   2.166  13.837
77474SOL    HW134319   3.687   2.099  13.894
77474SOL    HW234320   3.662   2.237  13.837
77475SOL     OW34321  11.543   5.921  13.358
77475SOL    HW134322  11.594   5.868  13.296
77475SOL    HW234323  11.603   5.990  13.385
77476SOL     OW34324   0.018  12.145  12.761
77476SOL    HW134325   0.008  12.083  12.689
77476SOL    HW234326   0.030  12.090  12.838
77477SOL     OW34327  14.415   2.924  11.530
77477SOL    HW134328  14.374   2.884  11.606
77477SOL    HW234329  14.502   2.885  11.526
77478SOL     OW34330   8.587   2.021   3.310
77478SOL    HW134331   8.496   2.003   3.331
77478SOL    HW234332   8.620   2.071   3.385
77479SOL     OW34333   3.921   2.069  14.722
77479SOL    HW134334   3.882   2.025  14.797
77479SOL    HW234335   3.979   2.004  14.682
77480SOL     OW34336   0.046   1.765   9.186
77480SOL    HW134337   0.091   1.726   9.112
77480SOL    HW234338  14.876   1.694   9.223
77481SOL     OW34339   2.464  12.733  14.509
77481SOL    HW134340   2.418  12.701  14.586
77481SOL    HW234341   2.402  12.721  14.437
77482SOL     OW34342   7.271   8.278   8.466
77482SOL    HW134343   7.261   8.343   8.396
77482SOL    HW234344   7.199   8.296   8.526
77483SOL     OW34345   9.830  12.517   1.415
77483SOL    HW134346   9.908  12.542   1.463
77483SOL    HW234347   9.757  12.553   1.466
77484SOL     OW34348   8.124  14.528   3.220
77484SOL    HW134349   8.092  14.447   3.260
77484SOL    HW234350   8.126  14.591   3.292
77485SOL     OW34351   9.646  10.772  14.227
77485SOL    HW134352   9.553  10.791  14.242
77485SOL    HW234353   9.667  10.702  14.288
77486SOL     OW34354   2.829   3.520   7.811
77486SOL    HW134355   2.923   3.509   7.798
77486SOL    HW234356   2.822   3.572   7.891
77487SOL     OW34357   9.027   4.996  13.158
77487SOL    HW134358   9.091   4.955  13.100
77487SOL    HW234359   9.003   4.926  13.219
77488SOL     OW34360   9.460  13.394   3.564
77488SOL    HW134361   9.497  13.334   3.500
77488SOL    HW234362   9.514  13.383   3.642
77489SOL     OW34363   2.266  11.075   3.735
77489SOL    HW134364   2.201  11.108   3.673
77489SOL    HW234365   2.217  11.064   3.817
77490SOL     OW34366   6.581   2.299  12.148
77490SOL    HW134367   6.636   2.376  12.164
77490SOL    HW234368   6.644   2.227  12.136
77491SOL     OW34369   2.559  13.584   7.113
77491SOL    HW134370   2.507  13.655   7.149
77491SOL    HW234371   2.495  13.519   7.084
77492SOL     OW34372  14.696  10.586   6.074
77492SOL    HW134373  14.694  10.643   5.997
77492SOL    HW234374  14.785  10.551   6.076
77493SOL     OW34375   0.415   1.983  13.629
77493SOL    HW134376   0.429   2.076  13.610
77493SOL    HW234377   0.389   1.945  13.545
77494SOL     OW34378   8.471  12.138  14.706
77494SOL    HW134379   8.441  12.114  14.794
77494SOL    HW234380   8.556  12.180  14.721
77495SOL     OW34381  14.807   2.185   9.171
77495SOL    HW134382  14.769   2.216   9.089
77495SOL    HW234383  14.735   2.189   9.234
77496SOL     OW34384   2.330   5.725  10.442
77496SOL    HW134385   2.272   5.754  10.372
77496SOL    HW234386   2.410   5.775  10.429
77497SOL     OW34387  14.607   9.457   3.080
77497SOL    HW134388  14.592   9.487   3.169
77497SOL    HW234389  14.524   9.419   3.053
77498SOL     OW34390   7.087  13.292   6.728
77498SOL    HW134391   6.998  13.257   6.728
77498SOL    HW234392   7.125  13.260   6.809
77499SOL     OW34393   4.474   7.856   5.285
77499SOL    HW134394   4.467   7.838   5.379
77499SOL    HW234395   4.564   7.886   5.273
77500SOL     OW34396  12.455   4.626  12.788
77500SOL    HW134397  12.466   4.553  12.726
77500SOL    HW234398  12.375   4.603  12.836
77501SOL     OW34399  14.272  14.114   7.186
77501SOL    HW134400  14.334  14.108   7.114
77501SOL    HW234401  14.233  14.201   7.178
77502SOL     OW34402   7.567   4.447   7.939
77502SOL    HW134403   7.628   4.437   8.012
77502SOL    HW234404   7.482   4.462   7.980
77503SOL     OW34405   6.128  10.704   0.008
77503SOL    HW134406   6.117  10.634   0.072
77503SOL    HW234407   6.223  10.711  14.879
77504SOL     OW34408   8.583  14.368  14.823
77504SOL    HW134409   8.527  14.372  14.746
77504SOL    HW234410   8.553  14.440  14.879
77505SOL     OW34411  14.627  14.224   8.398
77505SOL    HW134412  14.555  14.163   8.415
77505SOL    HW234413  14.595  14.309   8.429
77506SOL     OW34414   5.670   0.975   8.139
77506SOL    HW134415   5.604   0.986   8.208
77506SOL    HW234416   5.689   0.881   8.139
77507SOL     OW34417  13.249   0.120   4.185
77507SOL    HW134418  13.326   0.087   4.140
77507SOL    HW234419  13.256   0.085   4.274
77508SOL     OW34420   8.704   0.377  10.907
77508SOL    HW134421   8.797   0.399  10.903
77508SOL    HW234422   8.659   0.457  10.881
77509SOL     OW34423   0.661   1.673   9.241
77509SOL    HW134424   0.651   1.639   9.330
77509SOL    HW234425   0.651   1.597   9.184
77510SOL     OW34426   6.123   0.723  12.132
77510SOL    HW134427   6.050   0.744  12.073
77510SOL    HW234428   6.200   0.722  12.076
77511SOL     OW34429   7.657   0.768   9.495
77511SOL    HW134430   7.744   0.732   9.478
77511SOL    HW234431   7.669   0.822   9.573
77512SOL     OW34432   1.400  14.356  14.796
77512SOL    HW134433   1.410  14.443  14.836
77512SOL    HW234434   1.328  14.315  14.843
77513SOL     OW34435   4.382  12.261   1.707
77513SOL    HW134436   4.473  12.289   1.701
77513SOL    HW234437   4.376  12.187   1.647
77514SOL     OW34438   9.746   1.886  13.876
77514SOL    HW134439   9.794   1.865  13.796
77514SOL    HW234440   9.813   1.892  13.944
77515SOL     OW34441   4.682  13.712   2.324
77515SOL    HW134442   4.675  13.760   2.241
77515SOL    HW234443   4.628  13.634   2.311
77516SOL     OW34444   1.479  10.822  14.098
77516SOL    HW134445   1.400  10.875  14.099
77516SOL    HW234446   1.548  10.881  14.127
77517SOL     OW34447   2.101   0.195  14.531
77517SOL    HW134448   2.055   0.171  14.611
77517SOL    HW234449   2.193   0.177  14.550
77518SOL     OW34450   6.923   2.531  12.287
77518SOL    HW134451   6.894   2.561  12.373
77518SOL    HW234452   7.013   2.501  12.301
77519SOL     OW34453  14.454   2.273   6.802
77519SOL    HW134454  14.543   2.285   6.835
77519SOL    HW234455  14.465   2.234   6.715
77520SOL     OW34456  10.894   3.019   6.489
77520SOL    HW134457  10.810   3.011   6.534
77520SOL    HW234458  10.896   2.946   6.428
77521SOL     OW34459   1.680   8.368  13.445
77521SOL    HW134460   1.753   8.374  13.506
77521SOL    HW234461   1.602   8.385  13.498
77522SOL     OW34462   0.883   8.736   5.639
77522SOL    HW134463   0.812   8.712   5.698
77522SOL    HW234464   0.958   8.751   5.696
77523SOL     OW34465   9.151  12.236  14.835
77523SOL    HW134466   9.243  12.210  14.829
77523SOL    HW234467   9.153  12.331  14.834
77524SOL     OW34468   5.608   8.152   9.027
77524SOL    HW134469   5.628   8.186   9.114
77524SOL    HW234470   5.604   8.057   9.039
77525SOL     OW34471   9.371   6.274  13.530
77525SOL    HW134472   9.334   6.293  13.444
77525SOL    HW234473   9.465   6.276  13.517
77526SOL     OW34474   4.901  11.307   3.731
77526SOL    HW134475   4.883  11.335   3.821
77526SOL    HW234476   4.900  11.211   3.735
77527SOL     OW34477   0.346   0.013  13.667
77527SOL    HW134478   0.395  14.843  13.603
77527SOL    HW234479   0.344   0.101  13.630
77528SOL     OW34480   5.737   1.057   6.979
77528SOL    HW134481   5.692   0.994   7.036
77528SOL    HW234482   5.691   1.139   6.992
77529SOL     OW34483   2.201  14.568   1.853
77529SOL    HW134484   2.111  14.560   1.884
77529SOL    HW234485   2.251  14.509   1.910
77530SOL     OW34486   1.851   1.606   2.526
77530SOL    HW134487   1.772   1.628   2.476
77530SOL    HW234488   1.829   1.524   2.570
77531SOL     OW34489   1.686   4.776   3.505
77531SOL    HW134490   1.736   4.724   3.443
77531SOL    HW234491   1.630   4.831   3.450
77532SOL     OW34492  13.121  13.676   3.149
77532SOL    HW134493  13.126  13.623   3.228
77532SOL    HW234494  13.136  13.766   3.179
77533SOL     OW34495   7.916  12.585   9.405
77533SOL    HW134496   7.836  12.605   9.357
77533SOL    HW234497   7.897  12.502   9.449
77534SOL     OW34498   9.106   9.699  12.685
77534SOL    HW134499   9.191   9.693  12.642
77534SOL    HW234500   9.090   9.611  12.719
77535SOL     OW34501   7.353   1.079   9.366
77535SOL    HW134502   7.355   1.174   9.361
77535SOL    HW234503   7.445   1.053   9.357
77536SOL     OW34504   3.852   0.748   0.460
77536SOL    HW134505   3.914   0.695   0.410
77536SOL    HW234506   3.884   0.746   0.550
77537SOL     OW34507   4.127   4.891  12.051
77537SOL    HW134508   4.129   4.966  12.111
77537SOL    HW234509   4.053   4.908  11.993
77538SOL     OW34510  13.358  12.164   5.213
77538SOL    HW134511  13.316  12.181   5.128
77538SOL    HW234512  13.335  12.240   5.266
77539SOL     OW34513   8.847   5.926   5.130
77539SOL    HW134514   8.883   5.843   5.162
77539SOL    HW234515   8.908   5.992   5.161
77540SOL     OW34516   9.074  13.626   6.211
77540SOL    HW134517   9.138  13.556   6.197
77540SOL    HW234518   9.069  13.670   6.126
77541SOL     OW34519   5.175   2.632   4.697
77541SOL    HW134520   5.242   2.684   4.653
77541SOL    HW234521   5.136   2.578   4.628
77542SOL     OW34522   4.278   0.502   0.112
77542SOL    HW134523   4.295   0.490   0.205
77542SOL    HW234524   4.364   0.518   0.073
77543SOL     OW34525   2.419   5.291   0.540
77543SOL    HW134526   2.504   5.301   0.582
77543SOL    HW234527   2.439   5.254   0.454
77544SOL     OW34528  11.833   8.136   2.576
77544SOL    HW134529  11.864   8.167   2.491
77544SOL    HW234530  11.817   8.043   2.564
77545SOL     OW34531   7.999  12.611   4.156
77545SOL    HW134532   8.036  12.592   4.070
77545SOL    HW234533   7.915  12.652   4.138
77546SOL     OW34534  12.511   0.514  11.080
77546SOL    HW134535  12.546   0.434  11.040
77546SOL    HW234536  12.444   0.544  11.019
77547SOL     OW34537   0.990   8.570   8.813
77547SOL    HW134538   0.937   8.625   8.755
77547SOL    HW234539   1.004   8.490   8.763
77548SOL     OW34540   4.425  14.584   7.043
77548SOL    HW134541   4.500  14.622   7.088
77548SOL    HW234542   4.381  14.531   7.109
77549SOL     OW34543   4.532   8.637   8.288
77549SOL    HW134544   4.502   8.728   8.296
77549SOL    HW234545   4.453   8.585   8.302
77550SOL     OW34546   7.256  14.442  11.995
77550SOL    HW134547   7.221  14.507  12.056
77550SOL    HW234548   7.314  14.387  12.049
77551SOL     OW34549  10.375  11.713   9.480
77551SOL    HW134550  10.411  11.642   9.426
77551SOL    HW234551  10.441  11.783   9.475
77552SOL     OW34552  12.965  14.445  13.878
77552SOL    HW134553  13.018  14.421  13.802
77552SOL    HW234554  13.024  14.497  13.933
77553SOL     OW34555   1.868   1.142  12.879
77553SOL    HW134556   1.863   1.233  12.849
77553SOL    HW234557   1.813   1.140  12.957
77554SOL     OW34558   1.538   4.995  11.938
77554SOL    HW134559   1.553   5.082  11.901
77554SOL    HW234560   1.446   4.976  11.917
77555SOL     OW34561   9.654  14.416   5.710
77555SOL    HW134562   9.728  14.477   5.718
77555SOL    HW234563   9.579  14.466   5.742
77556SOL     OW34564  11.781   7.879   1.249
77556SOL    HW134565  11.691   7.872   1.217
77556SOL    HW234566  11.822   7.942   1.190
77557SOL     OW34567  10.433   5.521  13.818
77557SOL    HW134568  10.513   5.489  13.860
77557SOL    HW234569  10.387   5.569  13.887
77558SOL     OW34570   1.418   7.375  10.382
77558SOL    HW134571   1.416   7.469  10.363
77558SOL    HW234572   1.329   7.345  10.361
77559SOL     OW34573  13.493   2.757  14.458
77559SOL    HW134574  13.557   2.707  14.408
77559SOL    HW234575  13.509   2.848  14.433
77560SOL     OW34576   3.709   3.485  13.102
77560SOL    HW134577   3.635   3.477  13.043
77560SOL    HW234578   3.734   3.394  13.121
77561SOL     OW34579   7.623   5.508   3.366
77561SOL    HW134580   7.617   5.545   3.278
77561SOL    HW234581   7.707   5.462   3.367
77562SOL     OW34582   3.808  11.872   3.727
77562SOL    HW134583   3.750  11.846   3.654
77562SOL    HW234584   3.863  11.940   3.691
77563SOL     OW34585   4.845  14.399   4.010
77563SOL    HW134586   4.929  14.425   4.049
77563SOL    HW234587   4.853  14.305   3.996
77564SOL     OW34588  13.850  10.478   2.643
77564SOL    HW134589  13.836  10.469   2.738
77564SOL    HW234590  13.838  10.571   2.626
77565SOL     OW34591  13.891   9.317  13.161
77565SOL    HW134592  13.926   9.317  13.250
77565SOL    HW234593  13.954   9.368  13.111
77566SOL     OW34594  11.128   6.059   2.130
77566SOL    HW134595  11.221   6.042   2.111
77566SOL    HW234596  11.098   6.109   2.054
77567SOL     OW34597   5.550   8.772   0.477
77567SOL    HW134598   5.468   8.808   0.513
77567SOL    HW234599   5.599   8.745   0.554
77568SOL     OW34600  14.353   9.018  14.704
77568SOL    HW134601  14.326   9.098  14.749
77568SOL    HW234602  14.441   9.001  14.737
77569SOL     OW34603  14.259  14.067   0.790
77569SOL    HW134604  14.177  14.021   0.806
77569SOL    HW234605  14.262  14.135   0.857
77570SOL     OW34606  10.782   4.713  12.729
77570SOL    HW134607  10.775   4.806  12.753
77570SOL    HW234608  10.843   4.676  12.792
77571SOL     OW34609   5.690  11.364  13.791
77571SOL    HW134610   5.727  11.413  13.718
77571SOL    HW234611   5.598  11.390  13.795
77572SOL     OW34612   4.765   1.590   5.073
77572SOL    HW134613   4.723   1.651   5.012
77572SOL    HW234614   4.737   1.621   5.159
77573SOL     OW34615  12.354  12.311  13.851
77573SOL    HW134616  12.447  12.308  13.874
77573SOL    HW234617  12.353  12.325  13.756
77574SOL     OW34618   4.289   4.993   0.098
77574SOL    HW134619   4.246   5.078   0.099
77574SOL    HW234620   4.367   5.005   0.151
77575SOL     OW34621  11.877  14.266   1.904
77575SOL    HW134622  11.947  14.308   1.954
77575SOL    HW234623  11.905  14.175   1.896
77576SOL     OW34624   2.245   8.566   5.121
77576SOL    HW134625   2.227   8.527   5.035
77576SOL    HW234626   2.159   8.584   5.158
77577SOL     OW34627   5.912   3.134  10.453
77577SOL    HW134628   5.879   3.111  10.540
77577SOL    HW234629   5.899   3.229  10.447
77578SOL     OW34630  12.036   5.709   7.549
77578SOL    HW134631  12.116   5.704   7.600
77578SOL    HW234632  12.065   5.706   7.458
77579SOL     OW34633   3.544  11.084   6.666
77579SOL    HW134634   3.522  11.061   6.756
77579SOL    HW234635   3.490  11.026   6.612
77580SOL     OW34636  13.717  10.654   1.597
77580SOL    HW134637  13.698  10.747   1.610
77580SOL    HW234638  13.633  10.610   1.610
77581SOL     OW34639   0.032   9.013   9.954
77581SOL    HW134640   0.029   8.917   9.946
77581SOL    HW234641  14.843   9.043   9.897
77582SOL     OW34642  13.506   6.455   8.001
77582SOL    HW134643  13.568   6.433   7.931
77582SOL    HW234644  13.499   6.375   8.053
77583SOL     OW34645   8.958   3.559   7.751
77583SOL    HW134646   8.903   3.634   7.774
77583SOL    HW234647   9.025   3.595   7.694
77584SOL     OW34648  10.801  12.139   3.124
77584SOL    HW134649  10.862  12.205   3.090
77584SOL    HW234650  10.729  12.190   3.161
77585SOL     OW34651   0.331   2.494   2.481
77585SOL    HW134652   0.293   2.556   2.543
77585SOL    HW234653   0.416   2.533   2.457
77586SOL     OW34654  10.244   3.146   5.360
77586SOL    HW134655  10.155   3.181   5.363
77586SOL    HW234656  10.241   3.069   5.416
77587SOL     OW34657   6.981  14.339   9.830
77587SOL    HW134658   6.909  14.278   9.813
77587SOL    HW234659   6.949  14.395   9.900
77588SOL     OW34660   8.959   1.482  11.004
77588SOL    HW134661   8.923   1.433  11.078
77588SOL    HW234662   8.949   1.574  11.029
77589SOL     OW34663   1.760   5.552  12.895
77589SOL    HW134664   1.779   5.614  12.824
77589SOL    HW234665   1.842   5.506  12.909
77590SOL     OW34666   4.358   0.423   6.345
77590SOL    HW134667   4.280   0.381   6.309
77590SOL    HW234668   4.402   0.461   6.269
77591SOL     OW34669  14.314   9.042   8.476
77591SOL    HW134670  14.288   8.964   8.525
77591SOL    HW234671  14.231   9.079   8.445
77592SOL     OW34672   1.617   3.230   7.818
77592SOL    HW134673   1.685   3.251   7.754
77592SOL    HW234674   1.567   3.311   7.827
77593SOL     OW34675   7.662  13.988  12.150
77593SOL    HW134676   7.638  14.003  12.242
77593SOL    HW234677   7.578  13.976  12.105
77594SOL     OW34678   1.555  11.768   3.109
77594SOL    HW134679   1.488  11.836   3.107
77594SOL    HW234680   1.597  11.773   3.023
77595SOL     OW34681   2.011   4.892   0.865
77595SOL    HW134682   1.917   4.876   0.857
77595SOL    HW234683   2.020   4.938   0.949
77596SOL     OW34684   8.667   0.383  10.403
77596SOL    HW134685   8.623   0.468  10.412
77596SOL    HW234686   8.726   0.379  10.478
77597SOL     OW34687  12.514   0.599   5.144
77597SOL    HW134688  12.509   0.646   5.228
77597SOL    HW234689  12.529   0.668   5.079
77598SOL     OW34690   3.205   9.728   4.348
77598SOL    HW134691   3.167   9.739   4.261
77598SOL    HW234692   3.249   9.644   4.345
77599SOL     OW34693   6.386   3.933   3.497
77599SOL    HW134694   6.480   3.919   3.485
77599SOL    HW234695   6.344   3.864   3.445
77600SOL     OW34696   5.165  14.007   3.358
77600SOL    HW134697   5.113  14.068   3.410
77600SOL    HW234698   5.230  13.972   3.419
77601SOL     OW34699   8.609   3.156   8.657
77601SOL    HW134700   8.688   3.161   8.603
77601SOL    HW234701   8.601   3.063   8.678
77602SOL     OW34702   3.439   9.448   8.207
77602SOL    HW134703   3.489   9.487   8.279
77602SOL    HW234704   3.471   9.358   8.201
77603SOL     OW34705  11.432   1.819  13.790
77603SOL    HW134706  11.449   1.912  13.808
77603SOL    HW234707  11.513   1.775  13.816
77604SOL     OW34708   1.027   3.984  14.255
77604SOL    HW134709   1.027   3.979  14.351
77604SOL    HW234710   1.052   3.896  14.226
77605SOL     OW34711  14.569   0.911   3.656
77605SOL    HW134712  14.641   0.922   3.594
77605SOL    HW234713  14.533   0.999   3.667
77606SOL     OW34714   7.238   5.212   8.107
77606SOL    HW134715   7.330   5.184   8.103
77606SOL    HW234716   7.222   5.227   8.200
77607SOL     OW34717   8.549  10.483  10.767
77607SOL    HW134718   8.612  10.550  10.740
77607SOL    HW234719   8.474  10.533  10.801
77608SOL     OW34720   9.063  12.523  14.845
77608SOL    HW134721   8.999  12.503  14.777
77608SOL    HW234722   9.012  12.529   0.043
77609SOL     OW34723   0.870   2.326   9.062
77609SOL    HW134724   0.901   2.245   9.102
77609SOL    HW234725   0.936   2.347   8.996
77610SOL     OW34726  12.765   7.122  13.078
77610SOL    HW134727  12.687   7.168  13.045
77610SOL    HW234728  12.774   7.153  13.168
77611SOL     OW34729   0.290   6.713   4.903
77611SOL    HW134730   0.303   6.690   4.995
77611SOL    HW234731   0.365   6.673   4.858
77612SOL     OW34732   2.599  11.572  13.358
77612SOL    HW134733   2.532  11.638  13.374
77612SOL    HW234734   2.599  11.518  13.437
77613SOL     OW34735  14.229   2.898  10.704
77613SOL    HW134736  14.158   2.851  10.660
77613SOL    HW234737  14.235   2.858  10.791
77614SOL     OW34738  14.377   6.205  13.832
77614SOL    HW134739  14.454   6.261  13.824
77614SOL    HW234740  14.378   6.152  13.752
77615SOL     OW34741   9.680   4.833   6.640
77615SOL    HW134742   9.600   4.885   6.649
77615SOL    HW234743   9.734   4.859   6.715
77616SOL     OW34744  10.847   5.986  11.036
77616SOL    HW134745  10.772   6.023  10.991
77616SOL    HW234746  10.923   6.027  10.995
77617SOL     OW34747   7.705   2.167  14.835
77617SOL    HW134748   7.668   2.084  14.866
77617SOL    HW234749   7.742   2.146  14.749
77618SOL     OW34750   7.624   4.403   6.369
77618SOL    HW134751   7.656   4.351   6.296
77618SOL    HW234752   7.566   4.344   6.417
77619SOL     OW34753   2.644   2.752   5.114
77619SOL    HW134754   2.567   2.774   5.060
77619SOL    HW234755   2.608   2.702   5.187
77620SOL     OW34756  14.592   5.970   0.878
77620SOL    HW134757  14.583   5.926   0.794
77620SOL    HW234758  14.505   5.965   0.918
77621SOL     OW34759   3.614   4.783  13.468
77621SOL    HW134760   3.604   4.700  13.516
77621SOL    HW234761   3.653   4.757  13.384
77622SOL     OW34762   3.859   6.227   7.113
77622SOL    HW134763   3.940   6.270   7.139
77622SOL    HW234764   3.813   6.211   7.196
77623SOL     OW34765   6.444   3.387   4.818
77623SOL    HW134766   6.478   3.471   4.847
77623SOL    HW234767   6.507   3.322   4.850
77624SOL     OW34768   0.735  11.422   3.561
77624SOL    HW134769   0.822  11.461   3.564
77624SOL    HW234770   0.750  11.331   3.537
77625SOL     OW34771   5.833  11.832  10.736
77625SOL    HW134772   5.879  11.885  10.801
77625SOL    HW234773   5.894  11.826  10.662
77626SOL     OW34774   5.118   6.181   5.730
77626SOL    HW134775   5.151   6.267   5.704
77626SOL    HW234776   5.034   6.199   5.772
77627SOL     OW34777   2.365  12.997   5.529
77627SOL    HW134778   2.404  12.950   5.602
77627SOL    HW234779   2.415  12.969   5.452
77628SOL     OW34780   0.560  11.741   3.160
77628SOL    HW134781   0.572  11.651   3.130
77628SOL    HW234782   0.579  11.795   3.083
77629SOL     OW34783  10.229  14.047  14.164
77629SOL    HW134784  10.138  14.036  14.192
77629SOL    HW234785  10.257  13.959  14.139
77630SOL     OW34786  11.888  10.894   5.932
77630SOL    HW134787  11.852  10.873   6.018
77630SOL    HW234788  11.980  10.867   5.937
77631SOL     OW34789   7.900  10.420   1.779
77631SOL    HW134790   7.816  10.445   1.819
77631SOL    HW234791   7.963  10.482   1.816
77632SOL     OW34792   7.484  11.212   8.707
77632SOL    HW134793   7.482  11.124   8.670
77632SOL    HW234794   7.441  11.203   8.792
77633SOL     OW34795   5.793  14.580   2.482
77633SOL    HW134796   5.746  14.664   2.482
77633SOL    HW234797   5.757  14.533   2.558
77634SOL     OW34798  14.217  12.716  10.003
77634SOL    HW134799  14.309  12.692   9.996
77634SOL    HW234800  14.188  12.730   9.913
77635SOL     OW34801  12.464  14.054   3.059
77635SOL    HW134802  12.452  14.097   3.143
77635SOL    HW234803  12.380  14.062   3.015
77636SOL     OW34804   0.847  10.837   2.581
77636SOL    HW134805   0.865  10.845   2.675
77636SOL    HW234806   0.856  10.744   2.562
77637SOL     OW34807  13.337   3.146   3.019
77637SOL    HW134808  13.263   3.190   2.976
77637SOL    HW234809  13.331   3.055   2.987
77638SOL     OW34810   6.699   3.477   9.618
77638SOL    HW134811   6.721   3.414   9.687
77638SOL    HW234812   6.617   3.517   9.648
77639SOL     OW34813   6.773  14.771   4.742
77639SOL    HW134814   6.772  14.765   4.838
77639SOL    HW234815   6.724  14.851   4.723
77640SOL     OW34816   7.313   1.906   2.978
77640SOL    HW134817   7.288   1.964   2.906
77640SOL    HW234818   7.299   1.958   3.057
77641SOL     OW34819   3.221  12.822  14.348
77641SOL    HW134820   3.180  12.885  14.288
77641SOL    HW234821   3.156  12.752  14.358
77642SOL     OW34822  10.875   3.366  11.560
77642SOL    HW134823  10.827   3.412  11.628
77642SOL    HW234824  10.946   3.426  11.536
77643SOL     OW34825   3.120   6.220   5.790
77643SOL    HW134826   3.133   6.313   5.770
77643SOL    HW234827   3.040   6.218   5.843
77644SOL     OW34828  12.877   4.270   4.460
77644SOL    HW134829  12.799   4.216   4.445
77644SOL    HW234830  12.891   4.266   4.555
77645SOL     OW34831   6.003   0.810  11.128
77645SOL    HW134832   5.980   0.903  11.125
77645SOL    HW234833   5.928   0.766  11.087
77646SOL     OW34834   1.727   7.548   8.080
77646SOL    HW134835   1.750   7.466   8.036
77646SOL    HW234836   1.757   7.616   8.020
77647SOL     OW34837   6.888   6.580   3.709
77647SOL    HW134838   6.885   6.495   3.752
77647SOL    HW234839   6.914   6.560   3.619
77648SOL     OW34840  11.464  10.274  14.011
77648SOL    HW134841  11.480  10.199  13.953
77648SOL    HW234842  11.396  10.324  13.965
77649SOL     OW34843   0.507   9.387  11.196
77649SOL    HW134844   0.540   9.315  11.143
77649SOL    HW234845   0.477   9.347  11.277
77650SOL     OW34846   7.388   0.316   9.043
77650SOL    HW134847   7.359   0.231   9.010
77650SOL    HW234848   7.366   0.313   9.137
77651SOL     OW34849  12.101   5.370  14.327
77651SOL    HW134850  12.190   5.344  14.302
77651SOL    HW234851  12.058   5.390  14.244
77652SOL     OW34852   9.419   0.843   2.892
77652SOL    HW134853   9.356   0.908   2.863
77652SOL    HW234854   9.391   0.820   2.980
77653SOL     OW34855  10.767   9.279   6.110
77653SOL    HW134856  10.845   9.312   6.065
77653SOL    HW234857  10.694   9.320   6.063
77654SOL     OW34858   7.503   8.132   9.546
77654SOL    HW134859   7.559   8.164   9.617
77654SOL    HW234860   7.415   8.158   9.572
77655SOL     OW34861   8.291  10.762   3.058
77655SOL    HW134862   8.207  10.798   3.089
77655SOL    HW234863   8.266  10.697   2.992
77656SOL     OW34864   1.237   8.029   0.254
77656SOL    HW134865   1.255   8.034   0.348
77656SOL    HW234866   1.305   8.082   0.213
77657SOL     OW34867  11.164   8.702  11.593
77657SOL    HW134868  11.116   8.622  11.571
77657SOL    HW234869  11.222   8.717  11.519
77658SOL     OW34870   1.548  14.250  13.217
77658SOL    HW134871   1.493  14.300  13.277
77658SOL    HW234872   1.508  14.263  13.131
77659SOL     OW34873   0.876  14.425   0.153
77659SOL    HW134874   0.831  14.410   0.070
77659SOL    HW234875   0.888  14.337   0.189
77660SOL     OW34876   1.130   2.710   0.823
77660SOL    HW134877   1.057   2.772   0.821
77660SOL    HW234878   1.160   2.706   0.732
77661SOL     OW34879   2.744   6.355   2.073
77661SOL    HW134880   2.789   6.343   1.990
77661SOL    HW234881   2.809   6.329   2.139
77662SOL     OW34882   7.111  10.993   3.209
77662SOL    HW134883   7.176  10.934   3.246
77662SOL    HW234884   7.072  11.037   3.285
77663SOL     OW34885  13.207   2.774   4.069
77663SOL    HW134886  13.175   2.717   3.999
77663SOL    HW234887  13.141   2.768   4.138
77664SOL     OW34888  10.975   8.854   5.900
77664SOL    HW134889  10.957   8.823   5.989
77664SOL    HW234890  10.918   8.801   5.844
77665SOL     OW34891  12.420   2.261  11.268
77665SOL    HW134892  12.496   2.208  11.293
77665SOL    HW234893  12.354   2.197  11.241
77666SOL     OW34894  10.668   5.399   0.730
77666SOL    HW134895  10.637   5.316   0.695
77666SOL    HW234896  10.591   5.456   0.730
77667SOL     OW34897   8.056  12.558  12.955
77667SOL    HW134898   7.985  12.515  13.003
77667SOL    HW234899   8.117  12.586  13.023
77668SOL     OW34900   5.904   7.931  13.930
77668SOL    HW134901   5.841   7.962  13.865
77668SOL    HW234902   5.975   7.893  13.878
77669SOL     OW34903   6.451  14.376   4.379
77669SOL    HW134904   6.506  14.408   4.308
77669SOL    HW234905   6.501  14.304   4.418
77670SOL     OW34906   1.846   3.932  10.247
77670SOL    HW134907   1.802   3.966  10.169
77670SOL    HW234908   1.780   3.877  10.290
77671SOL     OW34909  10.289   7.529   2.826
77671SOL    HW134910  10.299   7.458   2.762
77671SOL    HW234911  10.249   7.486   2.902
77672SOL     OW34912   6.821   9.358   7.351
77672SOL    HW134913   6.914   9.361   7.373
77672SOL    HW234914   6.803   9.265   7.337
77673SOL     OW34915   0.121   6.644   1.775
77673SOL    HW134916   0.196   6.601   1.733
77673SOL    HW234917   0.064   6.668   1.702
77674SOL     OW34918   0.071   6.095   3.830
77674SOL    HW134919   0.131   6.167   3.809
77674SOL    HW234920  14.866   6.131   3.814
77675SOL     OW34921  12.219   2.415   4.523
77675SOL    HW134922  12.224   2.445   4.614
77675SOL    HW234923  12.125   2.404   4.507
77676SOL     OW34924   0.526   9.982  10.737
77676SOL    HW134925   0.444   9.943  10.768
77676SOL    HW234926   0.584   9.979  10.813
77677SOL     OW34927   8.277   1.199   3.765
77677SOL    HW134928   8.298   1.181   3.857
77677SOL    HW234929   8.183   1.213   3.764
77678SOL     OW34930  13.382   4.133   2.709
77678SOL    HW134931  13.329   4.189   2.766
77678SOL    HW234932  13.364   4.166   2.621
77679SOL     OW34933   2.078   0.218   7.201
77679SOL    HW134934   2.053   0.292   7.256
77679SOL    HW234935   2.081   0.253   7.112
77680SOL     OW34936  14.269   9.699   8.918
77680SOL    HW134937  14.216   9.726   8.993
77680SOL    HW234938  14.230   9.617   8.888
77681SOL     OW34939   7.748   2.522   0.060
77681SOL    HW134940   7.827   2.468   0.061
77681SOL    HW234941   7.683   2.467   0.017
77682SOL     OW34942  10.878   0.046  13.394
77682SOL    HW134943  10.931   0.100  13.336
77682SOL    HW234944  10.935  14.855  13.417
77683SOL     OW34945  10.939  11.102   2.427
77683SOL    HW134946  11.031  11.085   2.447
77683SOL    HW234947  10.935  11.103   2.331
77684SOL     OW34948  11.959   3.229   8.456
77684SOL    HW134949  11.940   3.285   8.531
77684SOL    HW234950  12.009   3.155   8.492
77685SOL     OW34951  13.756  14.525   2.394
77685SOL    HW134952  13.763  14.517   2.299
77685SOL    HW234953  13.804  14.605   2.414
77686SOL     OW34954   8.938   8.549   6.343
77686SOL    HW134955   8.974   8.521   6.259
77686SOL    HW234956   8.887   8.474   6.375
77687SOL     OW34957   2.315   3.252   3.462
77687SOL    HW134958   2.247   3.291   3.518
77687SOL    HW234959   2.345   3.325   3.407
77688SOL     OW34960  14.807  13.878   6.815
77688SOL    HW134961  14.811  13.969   6.787
77688SOL    HW234962  14.858  13.831   6.749
77689SOL     OW34963   5.155  14.768   5.023
77689SOL    HW134964   5.121  14.802   5.106
77689SOL    HW234965   5.101  14.809   4.956
77690SOL     OW34966   1.077  13.820  13.419
77690SOL    HW134967   1.042  13.899  13.377
77690SOL    HW234968   1.000  13.773  13.450
77691SOL     OW34969  12.342   4.842  12.014
77691SOL    HW134970  12.429   4.872  12.041
77691SOL    HW234971  12.308   4.914  11.961
77692SOL     OW34972   9.468   4.435   6.529
77692SOL    HW134973   9.513   4.513   6.495
77692SOL    HW234974   9.401   4.416   6.463
77693SOL     OW34975   7.822   2.874   4.692
77693SOL    HW134976   7.886   2.899   4.759
77693SOL    HW234977   7.737   2.892   4.733
77694SOL     OW34978   5.782  10.012   0.328
77694SOL    HW134979   5.819  10.086   0.376
77694SOL    HW234980   5.840  10.000   0.253
77695SOL     OW34981   8.813   7.998  14.369
77695SOL    HW134982   8.760   8.075  14.352
77695SOL    HW234983   8.903   8.027  14.359
77696SOL     OW34984   7.452   7.923   9.864
77696SOL    HW134985   7.427   7.831   9.863
77696SOL    HW234986   7.391   7.964   9.926
77697SOL     OW34987  12.881  13.623  11.509
77697SOL    HW134988  12.941  13.561  11.468
77697SOL    HW234989  12.857  13.683  11.438
77698SOL     OW34990  11.214   7.742   8.211
77698SOL    HW134991  11.284   7.724   8.274
77698SOL    HW234992  11.232   7.831   8.180
77699SOL     OW34993   3.229   2.884  11.451
77699SOL    HW134994   3.217   2.914  11.361
77699SOL    HW234995   3.318   2.850  11.453
77700SOL     OW34996   8.794   7.853  14.004
77700SOL    HW134997   8.783   7.943  14.034
77700SOL    HW234998   8.848   7.811  14.071
77701SOL     OW34999   0.848  13.687  13.453
77701SOL    HW135000   0.829  13.595  13.473
77701SOL    HW235001   0.816  13.699  13.363
77702SOL     OW35002   2.496   2.867  12.718
77702SOL    HW135003   2.503   2.927  12.792
77702SOL    HW235004   2.403   2.844  12.713
77703SOL     OW35005  13.619  13.672   8.252
77703SOL    HW135006  13.686  13.619   8.210
77703SOL    HW235007  13.586  13.618   8.324
77704SOL     OW35008   6.909   4.117  11.592
77704SOL    HW135009   6.859   4.152  11.519
77704SOL    HW235010   6.999   4.143  11.574
77705SOL     OW35011  11.438  10.194   6.815
77705SOL    HW135012  11.417  10.102   6.829
77705SOL    HW235013  11.373  10.224   6.752
77706SOL     OW35014   9.842  11.173   0.042
77706SOL    HW135015   9.921  11.150   0.091
77706SOL    HW235016   9.842  11.111  14.850
77707SOL     OW35017   4.350   1.453   1.184
77707SOL    HW135018   4.259   1.461   1.158
77707SOL    HW235019   4.365   1.358   1.191
77708SOL     OW35020   8.450  12.019  12.297
77708SOL    HW135021   8.543  11.997  12.299
77708SOL    HW235022   8.424  12.003  12.206
77709SOL     OW35023  14.241  13.065  14.192
77709SOL    HW135024  14.151  13.036  14.205
77709SOL    HW235025  14.234  13.161  14.186
77710SOL     OW35026   4.934  13.899  11.992
77710SOL    HW135027   4.843  13.869  11.997
77710SOL    HW235028   4.985  13.831  12.036
77711SOL     OW35029   6.027   0.331   7.625
77711SOL    HW135030   5.936   0.315   7.649
77711SOL    HW235031   6.048   0.415   7.666
77712SOL     OW35032   4.218  12.688   2.992
77712SOL    HW135033   4.197  12.684   3.086
77712SOL    HW235034   4.145  12.643   2.950
77713SOL     OW35035  14.531   3.419   8.282
77713SOL    HW135036  14.483   3.484   8.231
77713SOL    HW235037  14.476   3.404   8.359
77714SOL     OW35038   4.915   6.566  12.945
77714SOL    HW135039   4.948   6.649  12.911
77714SOL    HW235040   4.875   6.523  12.870
77715SOL     OW35041   4.051   5.757  10.717
77715SOL    HW135042   4.021   5.709  10.794
77715SOL    HW235043   3.973   5.801  10.684
77716SOL     OW35044  11.290  13.365  12.887
77716SOL    HW135045  11.365  13.424  12.881
77716SOL    HW235046  11.224  13.403  12.829
77717SOL     OW35047   3.731  13.480   6.568
77717SOL    HW135048   3.696  13.530   6.495
77717SOL    HW235049   3.750  13.394   6.531
77718SOL     OW35050   7.663   7.220  13.306
77718SOL    HW135051   7.669   7.219  13.402
77718SOL    HW235052   7.699   7.305  13.281
77719SOL     OW35053   8.919  10.664  11.131
77719SOL    HW135054   8.990  10.606  11.103
77719SOL    HW235055   8.855  10.605  11.171
77720SOL     OW35056  11.835   2.150   8.920
77720SOL    HW135057  11.755   2.190   8.885
77720SOL    HW235058  11.830   2.166   9.014
77721SOL     OW35059   9.046   8.980   8.814
77721SOL    HW135060   8.960   9.020   8.818
77721SOL    HW235061   9.096   9.034   8.753
77722SOL     OW35062   3.645   1.364   5.951
77722SOL    HW135063   3.597   1.406   5.879
77722SOL    HW235064   3.728   1.412   5.955
77723SOL     OW35065   1.115   6.401   9.010
77723SOL    HW135066   1.118   6.313   9.049
77723SOL    HW235067   1.022   6.420   9.001
77724SOL     OW35068   5.019   0.221   3.425
77724SOL    HW135069   5.111   0.243   3.411
77724SOL    HW235070   5.020   0.158   3.498
77725SOL     OW35071   6.037   0.204   0.004
77725SOL    HW135072   5.988   0.245  14.815
77725SOL    HW235073   6.029   0.267   0.077
77726SOL     OW35074   2.506  14.171   6.872
77726SOL    HW135075   2.465  14.084   6.876
77726SOL    HW235076   2.547  14.181   6.958
77727SOL     OW35077   0.932   5.655   8.624
77727SOL    HW135078   1.024   5.657   8.650
77727SOL    HW235079   0.883   5.656   8.706
77728SOL     OW35080  10.110   8.769   8.416
77728SOL    HW135081  10.195   8.813   8.421
77728SOL    HW235082  10.047   8.838   8.436
77729SOL     OW35083   6.659   7.287   0.943
77729SOL    HW135084   6.713   7.350   0.990
77729SOL    HW235085   6.689   7.201   0.976
77730SOL     OW35086   9.884   9.115  12.413
77730SOL    HW135087   9.916   9.104  12.503
77730SOL    HW235088   9.801   9.068  12.412
77731SOL     OW35089   3.801   1.763   1.638
77731SOL    HW135090   3.894   1.773   1.656
77731SOL    HW235091   3.784   1.824   1.566
77732SOL     OW35092   9.453   5.428  14.624
77732SOL    HW135093   9.365   5.405  14.594
77732SOL    HW235094   9.486   5.348  14.666
77733SOL     OW35095  10.865  11.386  14.732
77733SOL    HW135096  10.853  11.298  14.697
77733SOL    HW235097  10.930  11.375  14.801
77734SOL     OW35098   5.535   7.198  12.439
77734SOL    HW135099   5.523   7.116  12.390
77734SOL    HW235100   5.446   7.229  12.456
77735SOL     OW35101  14.118   3.006   9.159
77735SOL    HW135102  14.053   3.065   9.197
77735SOL    HW235103  14.203   3.044   9.184
77736SOL     OW35104   7.225   4.839  12.440
77736SOL    HW135105   7.254   4.780  12.370
77736SOL    HW235106   7.262   4.801  12.520
77737SOL     OW35107   1.797  10.566  10.034
77737SOL    HW135108   1.860  10.615   9.981
77737SOL    HW235109   1.763  10.630  10.096
77738SOL     OW35110  12.725   8.245  13.790
77738SOL    HW135111  12.803   8.229  13.738
77738SOL    HW235112  12.747   8.321  13.844
77739SOL     OW35113   1.400   3.395   0.335
77739SOL    HW135114   1.395   3.300   0.324
77739SOL    HW235115   1.323   3.429   0.290
77740SOL     OW35116   4.137   1.918   3.291
77740SOL    HW135117   4.191   1.925   3.213
77740SOL    HW235118   4.174   1.844   3.339
77741SOL     OW35119  11.895   5.910  10.329
77741SOL    HW135120  11.986   5.884  10.315
77741SOL    HW235121  11.844   5.843  10.284
77742SOL     OW35122   4.042  14.744   5.538
77742SOL    HW135123   4.035  14.797   5.459
77742SOL    HW235124   4.134  14.718   5.540
77743SOL     OW35125   9.704   7.186  13.113
77743SOL    HW135126   9.797   7.196  13.133
77743SOL    HW235127   9.660   7.237  13.181
77744SOL     OW35128   6.612  14.379   7.430
77744SOL    HW135129   6.679  14.373   7.362
77744SOL    HW235130   6.557  14.452   7.402
77745SOL     OW35131   4.549   3.177   9.387
77745SOL    HW135132   4.558   3.110   9.319
77745SOL    HW235133   4.534   3.128   9.468
77746SOL     OW35134  12.489   6.783   0.993
77746SOL    HW135135  12.580   6.779   0.963
77746SOL    HW235136  12.495   6.806   1.086
77747SOL     OW35137   6.792   1.961   9.732
77747SOL    HW135138   6.772   1.993   9.644
77747SOL    HW235139   6.874   1.914   9.723
77748SOL     OW35140   8.826   2.009   5.568
77748SOL    HW135141   8.777   2.077   5.613
77748SOL    HW235142   8.764   1.937   5.557
77749SOL     OW35143  12.681  12.209   9.467
77749SOL    HW135144  12.633  12.136   9.428
77749SOL    HW235145  12.613  12.266   9.503
77750SOL     OW35146  10.545   1.371   3.186
77750SOL    HW135147  10.551   1.276   3.180
77750SOL    HW235148  10.514   1.388   3.275
77751SOL     OW35149  11.641   6.394   1.409
77751SOL    HW135150  11.612   6.385   1.500
77751SOL    HW235151  11.698   6.471   1.409
77752SOL     OW35152   9.559  10.507   0.278
77752SOL    HW135153   9.505  10.442   0.233
77752SOL    HW235154   9.504  10.586   0.280
77753SOL     OW35155  13.618   6.349   4.190
77753SOL    HW135156  13.532   6.326   4.225
77753SOL    HW235157  13.673   6.273   4.209
77754SOL     OW35158   8.151   1.514   9.989
77754SOL    HW135159   8.161   1.462  10.069
77754SOL    HW235160   8.102   1.592  10.017
77755SOL     OW35161   2.438  13.389  13.062
77755SOL    HW135162   2.343  13.396  13.051
77755SOL    HW235163   2.455  13.430  13.146
77756SOL     OW35164  12.799   5.583   3.848
77756SOL    HW135165  12.739   5.609   3.918
77756SOL    HW235166  12.886   5.606   3.881
77757SOL     OW35167   6.201  12.840  13.579
77757SOL    HW135168   6.110  12.842  13.609
77757SOL    HW235169   6.233  12.755  13.607
77758SOL     OW35170   9.826  14.727  14.491
77758SOL    HW135171   9.771  14.675  14.432
77758SOL    HW235172   9.851  14.803  14.439
77759SOL     OW35173   2.002   5.610   6.050
77759SOL    HW135174   2.076   5.584   5.995
77759SOL    HW235175   1.942   5.654   5.990
77760SOL     OW35176   5.030   9.382  13.427
77760SOL    HW135177   5.054   9.372  13.335
77760SOL    HW235178   5.081   9.457  13.457
77761SOL     OW35179   1.767  12.821  11.140
77761SOL    HW135180   1.844  12.847  11.190
77761SOL    HW235181   1.745  12.898  11.088
77762SOL     OW35182   9.165  13.280   2.602
77762SOL    HW135183   9.152  13.374   2.610
77762SOL    HW235184   9.218  13.257   2.678
77763SOL     OW35185   3.197  12.097  13.844
77763SOL    HW135186   3.132  12.154  13.804
77763SOL    HW235187   3.214  12.030  13.779
77764SOL     OW35188   7.069   8.435   8.302
77764SOL    HW135189   7.146   8.415   8.249
77764SOL    HW235190   7.041   8.350   8.337
77765SOL     OW35191   7.806   8.024   2.211
77765SOL    HW135192   7.753   8.004   2.134
77765SOL    HW235193   7.869   8.090   2.181
77766SOL     OW35194  11.753   7.709   5.592
77766SOL    HW135195  11.738   7.728   5.499
77766SOL    HW235196  11.794   7.788   5.626
77767SOL     OW35197   6.638  14.807   9.571
77767SOL    HW135198   6.573  14.831   9.504
77767SOL    HW235199   6.710  14.868   9.557
77768SOL     OW35200   0.275   2.036   9.631
77768SOL    HW135201   0.358   2.006   9.595
77768SOL    HW235202   0.286   2.027   9.726
77769SOL     OW35203   9.806  13.527   5.590
77769SOL    HW135204   9.880  13.516   5.531
77769SOL    HW235205   9.745  13.584   5.542
77770SOL     OW35206   7.768   1.941   9.537
77770SOL    HW135207   7.842   1.989   9.500
77770SOL    HW235208   7.704   1.937   9.466
77771SOL     OW35209  13.751  10.090   6.860
77771SOL    HW135210  13.778  10.014   6.808
77771SOL    HW235211  13.669  10.120   6.820
77772SOL     OW35212   2.167   9.430  12.195
77772SOL    HW135213   2.119   9.481  12.130
77772SOL    HW235214   2.251   9.476  12.203
77773SOL     OW35215   2.697  10.675   7.842
77773SOL    HW135216   2.615  10.631   7.866
77773SOL    HW235217   2.701  10.752   7.899
77774SOL     OW35218   5.524   4.286   7.436
77774SOL    HW135219   5.589   4.245   7.380
77774SOL    HW235220   5.506   4.220   7.504
77775SOL     OW35221   0.797   3.104  11.103
77775SOL    HW135222   0.879   3.131  11.145
77775SOL    HW235223   0.732   3.167  11.135
77776SOL     OW35224   4.600   3.339   4.186
77776SOL    HW135225   4.671   3.288   4.226
77776SOL    HW235226   4.540   3.357   4.259
77777SOL     OW35227  12.202   1.101   2.910
77777SOL    HW135228  12.189   1.011   2.880
77777SOL    HW235229  12.166   1.155   2.840
77778SOL     OW35230   5.819   3.498   4.515
77778SOL    HW135231   5.814   3.406   4.487
77778SOL    HW235232   5.861   3.494   4.600
77779SOL     OW35233   7.922   4.916  10.084
77779SOL    HW135234   7.946   4.835  10.129
77779SOL    HW235235   7.979   4.982  10.122
77780SOL     OW35236  13.686  10.986   2.738
77780SOL    HW135237  13.686  10.936   2.656
77780SOL    HW235238  13.755  10.945   2.790
77781SOL     OW35239   2.722   4.892   9.433
77781SOL    HW135240   2.693   4.978   9.466
77781SOL    HW235241   2.793   4.866   9.492
77782SOL     OW35242   4.769  13.103  10.070
77782SOL    HW135243   4.809  13.105  10.157
77782SOL    HW235244   4.835  13.065  10.013
77783SOL     OW35245   0.172   7.443   2.009
77783SOL    HW135246   0.114   7.388   1.957
77783SOL    HW235247   0.115   7.485   2.074
77784SOL     OW35248  11.907  12.546  11.020
77784SOL    HW135249  11.921  12.476  10.957
77784SOL    HW235250  11.933  12.626  10.973
77785SOL     OW35251   8.473   5.385   4.246
77785SOL    HW135252   8.539   5.421   4.304
77785SOL    HW235253   8.483   5.433   4.164
77786SOL     OW35254   2.128  10.992   9.862
77786SOL    HW135255   2.151  11.057   9.929
77786SOL    HW235256   2.034  10.980   9.871
77787SOL     OW35257   0.441   7.071   0.843
77787SOL    HW135258   0.367   7.010   0.850
77787SOL    HW235259   0.438   7.103   0.753
77788SOL     OW35260   5.742   0.802  12.409
77788SOL    HW135261   5.797   0.741  12.458
77788SOL    HW235262   5.689   0.845  12.476
77789SOL     OW35263  13.275   2.333  13.769
77789SOL    HW135264  13.241   2.257  13.721
77789SOL    HW235265  13.311   2.390  13.702
77790SOL     OW35266   0.117  11.320   4.380
77790SOL    HW135267   0.063  11.254   4.423
77790SOL    HW235268   0.142  11.380   4.451
77791SOL     OW35269  13.941  13.467  10.244
77791SOL    HW135270  13.973  13.483  10.155
77791SOL    HW235271  13.919  13.554  10.278
77792SOL     OW35272  13.453  14.380   7.527
77792SOL    HW135273  13.367  14.410   7.497
77792SOL    HW235274  13.441  14.286   7.542
77793SOL     OW35275   6.234  14.858   9.354
77793SOL    HW135276   6.214   0.037   9.282
77793SOL    HW235277   6.241   0.032   9.431
77794SOL     OW35278   9.253   4.483  13.410
77794SOL    HW135279   9.172   4.433  13.399
77794SOL    HW235280   9.244   4.557  13.350
77795SOL     OW35281  12.257   0.293   3.191
77795SOL    HW135282  12.302   0.377   3.191
77795SOL    HW235283  12.264   0.262   3.100
77796SOL     OW35284   3.857  13.406   7.350
77796SOL    HW135285   3.950  13.387   7.335
77796SOL    HW235286   3.817  13.319   7.360
77797SOL     OW35287   2.516   0.304   2.432
77797SOL    HW135288   2.515   0.247   2.355
77797SOL    HW235289   2.474   0.385   2.402
77798SOL     OW35290   0.061  12.731   6.068
77798SOL    HW135291   0.048  12.644   6.106
77798SOL    HW235292   0.002  12.732   5.992
77799SOL     OW35293  12.767   5.837   4.681
77799SOL    HW135294  12.672   5.833   4.693
77799SOL    HW235295  12.778   5.869   4.592
77800SOL     OW35296  11.907   2.423   0.245
77800SOL    HW135297  11.887   2.357   0.179
77800SOL    HW235298  11.908   2.375   0.328
77801SOL     OW35299  12.088   4.614   2.107
77801SOL    HW135300  12.129   4.618   2.021
77801SOL    HW235301  12.130   4.684   2.157
77802SOL     OW35302   7.688  12.863   2.166
77802SOL    HW135303   7.610  12.918   2.158
77802SOL    HW235304   7.704  12.830   2.078
77803SOL     OW35305  11.668  14.465   7.902
77803SOL    HW135306  11.668  14.529   7.831
77803SOL    HW235307  11.732  14.400   7.875
77804SOL     OW35308   9.647   9.212   3.395
77804SOL    HW135309   9.659   9.143   3.329
77804SOL    HW235310   9.566   9.189   3.440
77805SOL     OW35311  12.431  10.934   9.141
77805SOL    HW135312  12.502  10.870   9.149
77805SOL    HW235313  12.417  10.941   9.047
77806SOL     OW35314   6.152   1.214  12.843
77806SOL    HW135315   6.191   1.251  12.764
77806SOL    HW235316   6.060   1.237  12.837
77807SOL     OW35317   7.638   6.016   5.872
77807SOL    HW135318   7.654   6.107   5.896
77807SOL    HW235319   7.713   5.992   5.817
77808SOL     OW35320  10.914   6.235   6.838
77808SOL    HW135321  10.870   6.297   6.895
77808SOL    HW235322  10.975   6.188   6.895
77809SOL     OW35323   4.683   9.833   8.319
77809SOL    HW135324   4.621   9.899   8.350
77809SOL    HW235325   4.646   9.750   8.346
77810SOL     OW35326  10.380  12.563   9.349
77810SOL    HW135327  10.299  12.522   9.382
77810SOL    HW235328  10.442  12.491   9.340
77811SOL     OW35329   1.590  12.425   4.882
77811SOL    HW135330   1.500  12.395   4.890
77811SOL    HW235331   1.591  12.512   4.922
77812SOL     OW35332   4.743   8.165   0.180
77812SOL    HW135333   4.715   8.251   0.210
77812SOL    HW235334   4.663   8.121   0.153
77813SOL     OW35335  10.501  12.555   2.336
77813SOL    HW135336  10.542  12.611   2.271
77813SOL    HW235337  10.571  12.497   2.365
77814SOL     OW35338  12.430  12.678   9.511
77814SOL    HW135339  12.480  12.760   9.516
77814SOL    HW235340  12.449  12.644   9.424
77815SOL     OW35341  13.080  13.418   6.228
77815SOL    HW135342  13.110  13.509   6.226
77815SOL    HW235343  13.158  13.367   6.250
77816SOL     OW35344   3.982   9.433   8.993
77816SOL    HW135345   3.946   9.367   8.934
77816SOL    HW235346   3.962   9.401   9.081
77817SOL     OW35347   7.083   5.562   0.416
77817SOL    HW135348   7.053   5.644   0.377
77817SOL    HW235349   7.003   5.512   0.433
77818SOL     OW35350  12.960  10.686   9.238
77818SOL    HW135351  12.933  10.602   9.277
77818SOL    HW235352  12.880  10.719   9.196
77819SOL     OW35353  11.696   9.825  12.147
77819SOL    HW135354  11.751   9.778  12.210
77819SOL    HW235355  11.664   9.901  12.195
77820SOL     OW35356  12.147   7.410   0.273
77820SOL    HW135357  12.057   7.410   0.240
77820SOL    HW235358  12.159   7.322   0.309
77821SOL     OW35359  10.636   5.135  12.458
77821SOL    HW135360  10.689   5.164  12.532
77821SOL    HW235361  10.611   5.045  12.480
77822SOL     OW35362  13.302   4.772   6.743
77822SOL    HW135363  13.360   4.727   6.681
77822SOL    HW235364  13.357   4.841   6.781
77823SOL     OW35365   4.058   0.973   6.434
77823SOL    HW135366   4.103   0.890   6.423
77823SOL    HW235367   4.019   0.968   6.521
77824SOL     OW35368  12.500   1.025   9.335
77824SOL    HW135369  12.563   0.955   9.320
77824SOL    HW235370  12.513   1.086   9.263
77825SOL     OW35371   0.217   6.577   1.449
77825SOL    HW135372   0.147   6.641   1.448
77825SOL    HW235373   0.293   6.625   1.483
77826SOL     OW35374  14.626   1.928  11.727
77826SOL    HW135375  14.566   1.857  11.705
77826SOL    HW235376  14.701   1.914  11.671
77827SOL     OW35377   9.437   2.278   9.807
77827SOL    HW135378   9.454   2.206   9.746
77827SOL    HW235379   9.447   2.357   9.755
77828SOL     OW35380   4.271   3.596   5.612
77828SOL    HW135381   4.186   3.632   5.638
77828SOL    HW235382   4.325   3.673   5.593
77829SOL     OW35383  13.424  10.062  10.025
77829SOL    HW135384  13.328  10.061  10.023
77829SOL    HW235385  13.446  10.021  10.109
77830SOL     OW35386   1.037  14.124  14.157
77830SOL    HW135387   1.127  14.121  14.191
77830SOL    HW235388   0.982  14.129  14.235
77831SOL     OW35389  14.709   2.362   9.886
77831SOL    HW135390  14.786   2.306   9.875
77831SOL    HW235391  14.637   2.310   9.850
77832SOL     OW35392   9.631   0.822   9.937
77832SOL    HW135393   9.620   0.729   9.956
77832SOL    HW235394   9.726   0.834   9.931
77833SOL     OW35395   7.789  13.476  13.371
77833SOL    HW135396   7.844  13.464  13.293
77833SOL    HW235397   7.754  13.389  13.389
77834SOL     OW35398  12.440   5.745   3.648
77834SOL    HW135399  12.433   5.650   3.634
77834SOL    HW235400  12.503   5.774   3.581
77835SOL     OW35401   4.443  12.103   7.903
77835SOL    HW135402   4.351  12.074   7.898
77835SOL    HW235403   4.493  12.024   7.882
77836SOL     OW35404   4.827   5.445  10.592
77836SOL    HW135405   4.801   5.372  10.534
77836SOL    HW235406   4.744   5.484  10.619
77837SOL     OW35407   5.281  12.642   3.877
77837SOL    HW135408   5.199  12.660   3.923
77837SOL    HW235409   5.270  12.553   3.843
77838SOL     OW35410   3.692   0.743   4.935
77838SOL    HW135411   3.768   0.695   4.903
77838SOL    HW235412   3.689   0.722   5.029
77839SOL     OW35413  10.695   6.866   7.234
77839SOL    HW135414  10.603   6.888   7.219
77839SOL    HW235415  10.734   6.866   7.147
77840SOL     OW35416   2.919   0.444   5.432
77840SOL    HW135417   2.978   0.369   5.426
77840SOL    HW235418   2.914   0.478   5.342
77841SOL     OW35419   9.578  14.633   4.579
77841SOL    HW135420   9.555  14.690   4.506
77841SOL    HW235421   9.605  14.551   4.539
77842SOL     OW35422  10.247  13.961  11.484
77842SOL    HW135423  10.191  13.933  11.413
77842SOL    HW235424  10.335  13.959  11.448
77843SOL     OW35425  11.136   2.147   3.738
77843SOL    HW135426  11.096   2.179   3.819
77843SOL    HW235427  11.086   2.189   3.668
77844SOL     OW35428  10.579   1.464   0.028
77844SOL    HW135429  10.559   1.538   0.085
77844SOL    HW235430  10.511   1.464  14.844
77845SOL     OW35431   7.558   4.085   0.314
77845SOL    HW135432   7.602   4.163   0.279
77845SOL    HW235433   7.497   4.060   0.245
77846SOL     OW35434   5.211  11.552  14.518
77846SOL    HW135435   5.236  11.637  14.484
77846SOL    HW235436   5.194  11.567  14.611
77847SOL     OW35437  11.034   0.644   2.637
77847SOL    HW135438  10.961   0.649   2.575
77847SOL    HW235439  11.023   0.559   2.680
77848SOL     OW35440   6.252   4.498   9.644
77848SOL    HW135441   6.192   4.467   9.712
77848SOL    HW235442   6.217   4.461   9.563
77849SOL     OW35443   9.325   4.644   2.423
77849SOL    HW135444   9.236   4.645   2.457
77849SOL    HW235445   9.370   4.577   2.474
77850SOL     OW35446  12.382   6.078  13.034
77850SOL    HW135447  12.381   5.987  13.066
77850SOL    HW235448  12.332   6.076  12.953
77851SOL     OW35449  13.745  11.900  11.900
77851SOL    HW135450  13.803  11.977  11.900
77851SOL    HW235451  13.685  11.916  11.973
77852SOL     OW35452   6.842   1.673   0.334
77852SOL    HW135453   6.902   1.648   0.404
77852SOL    HW235454   6.835   1.594   0.280
77853SOL     OW35455   4.892   2.692  11.270
77853SOL    HW135456   4.884   2.641  11.190
77853SOL    HW235457   4.802   2.708  11.297
77854SOL     OW35458   3.226  11.996   7.309
77854SOL    HW135459   3.307  12.044   7.324
77854SOL    HW235460   3.251  11.920   7.257
77855SOL     OW35461   3.736   1.545   5.648
77855SOL    HW135462   3.657   1.595   5.628
77855SOL    HW235463   3.761   1.574   5.735
77856SOL     OW35464   7.276   2.942   7.015
77856SOL    HW135465   7.305   2.854   6.989
77856SOL    HW235466   7.257   2.934   7.108
77857SOL     OW35467   8.117  10.057  14.474
77857SOL    HW135468   8.087  10.046  14.564
77857SOL    HW235469   8.182  10.128  14.479
77858SOL     OW35470   5.992   4.829  11.712
77858SOL    HW135471   6.086   4.840  11.694
77858SOL    HW235472   5.969   4.747  11.669
77859SOL     OW35473   2.381  12.767  11.842
77859SOL    HW135474   2.313  12.755  11.775
77859SOL    HW235475   2.367  12.856  11.875
77860SOL     OW35476   0.045   4.122   3.320
77860SOL    HW135477   0.017   4.193   3.262
77860SOL    HW235478   0.133   4.148   3.349
77861SOL     OW35479   2.684  13.148   5.517
77861SOL    HW135480   2.641  13.163   5.434
77861SOL    HW235481   2.659  13.224   5.571
77862SOL     OW35482   6.793  10.930   7.366
77862SOL    HW135483   6.750  10.905   7.448
77862SOL    HW235484   6.886  10.913   7.382
77863SOL     OW35485   7.671   2.836   5.864
77863SOL    HW135486   7.708   2.867   5.946
77863SOL    HW235487   7.590   2.886   5.853
77864SOL     OW35488   2.990   2.866   3.590
77864SOL    HW135489   2.929   2.939   3.590
77864SOL    HW235490   3.004   2.846   3.497
77865SOL     OW35491   6.395  10.350  10.073
77865SOL    HW135492   6.375  10.428  10.021
77865SOL    HW235493   6.470  10.310  10.028
77866SOL     OW35494   6.615  11.466   6.316
77866SOL    HW135495   6.693  11.519   6.298
77866SOL    HW235496   6.582  11.441   6.230
77867SOL     OW35497   5.878   5.070   7.708
77867SOL    HW135498   5.863   5.077   7.802
77867SOL    HW235499   5.861   4.977   7.689
77868SOL     OW35500   3.633   2.171  14.165
77868SOL    HW135501   3.569   2.135  14.227
77868SOL    HW235502   3.603   2.140  14.080
77869SOL     OW35503   6.612   7.046  10.878
77869SOL    HW135504   6.585   7.011  10.962
77869SOL    HW235505   6.705   7.067  10.889
77870SOL     OW35506   3.154  14.120   0.407
77870SOL    HW135507   3.211  14.151   0.337
77870SOL    HW235508   3.181  14.030   0.422
77871SOL     OW35509  14.616   6.884   1.905
77871SOL    HW135510  14.566   6.896   1.985
77871SOL    HW235511  14.664   6.802   1.918
77872SOL     OW35512   3.419   6.372   2.456
77872SOL    HW135513   3.471   6.425   2.516
77872SOL    HW235514   3.332   6.412   2.457
77873SOL     OW35515   9.986   9.846   2.609
77873SOL    HW135516  10.009   9.757   2.638
77873SOL    HW235517   9.912   9.871   2.664
77874SOL     OW35518   0.247  10.799   6.991
77874SOL    HW135519   0.220  10.876   6.940
77874SOL    HW235520   0.167  10.749   7.004
77875SOL     OW35521  13.432   0.323   0.532
77875SOL    HW135522  13.495   0.367   0.476
77875SOL    HW235523  13.480   0.248   0.568
77876SOL     OW35524   1.522   2.880   9.997
77876SOL    HW135525   1.526   2.871  10.093
77876SOL    HW235526   1.480   2.964   9.983
77877SOL     OW35527  13.421  13.137   1.495
77877SOL    HW135528  13.361  13.117   1.424
77877SOL    HW235529  13.391  13.083   1.568
77878SOL     OW35530   2.443   7.137   4.391
77878SOL    HW135531   2.433   7.063   4.450
77878SOL    HW235532   2.357   7.180   4.391
77879SOL     OW35533  12.992  11.367   0.797
77879SOL    HW135534  12.980  11.424   0.722
77879SOL    HW235535  12.941  11.288   0.776
77880SOL     OW35536   2.358   7.025   5.007
77880SOL    HW135537   2.302   6.952   5.034
77880SOL    HW235538   2.447   6.995   5.026
77881SOL     OW35539   4.427   6.134   7.487
77881SOL    HW135540   4.454   6.225   7.502
77881SOL    HW235541   4.380   6.137   7.403
77882SOL     OW35542  10.608   0.455   0.130
77882SOL    HW135543  10.597   0.377   0.184
77882SOL    HW235544  10.583   0.427   0.042
77883SOL     OW35545   8.412   0.065  11.684
77883SOL    HW135546   8.402   0.056  11.589
77883SOL    HW235547   8.484   0.006  11.706
77884SOL     OW35548  12.406   7.466   8.668
77884SOL    HW135549  12.330   7.500   8.621
77884SOL    HW235550  12.372   7.393   8.720
77885SOL     OW35551   4.486   8.256  12.985
77885SOL    HW135552   4.448   8.191  12.926
77885SOL    HW235553   4.423   8.328  12.986
77886SOL     OW35554   6.000  10.151  13.157
77886SOL    HW135555   6.006  10.097  13.079
77886SOL    HW235556   6.091  10.156  13.189
77887SOL     OW35557  11.671   3.200   9.000
77887SOL    HW135558  11.593   3.248   8.972
77887SOL    HW235559  11.706   3.163   8.919
77888SOL     OW35560  14.415   9.489   2.356
77888SOL    HW135561  14.385   9.418   2.299
77888SOL    HW235562  14.426   9.448   2.442
77889SOL     OW35563  10.928   1.849   4.067
77889SOL    HW135564  10.915   1.831   3.973
77889SOL    HW235565  10.850   1.813   4.109
77890SOL     OW35566   2.813   5.422  12.306
77890SOL    HW135567   2.755   5.490  12.338
77890SOL    HW235568   2.899   5.463  12.301
77891SOL     OW35569  11.442  13.412   1.005
77891SOL    HW135570  11.404  13.326   0.986
77891SOL    HW235571  11.454  13.413   1.099
77892SOL     OW35572   4.140  13.900   1.148
77892SOL    HW135573   4.169  13.925   1.060
77892SOL    HW235574   4.045  13.909   1.146
77893SOL     OW35575  14.001   2.241   5.447
77893SOL    HW135576  13.941   2.255   5.520
77893SOL    HW235577  14.063   2.175   5.478
77894SOL     OW35578  12.473   8.797   4.174
77894SOL    HW135579  12.435   8.777   4.259
77894SOL    HW235580  12.405   8.847   4.129
77895SOL     OW35581  11.479  10.547   6.101
77895SOL    HW135582  11.403  10.584   6.057
77895SOL    HW235583  11.458  10.454   6.111
77896SOL     OW35584   6.946   4.182   6.389
77896SOL    HW135585   6.908   4.095   6.386
77896SOL    HW235586   6.931   4.219   6.302
77897SOL     OW35587   4.888   9.026  12.268
77897SOL    HW135588   4.958   9.089  12.282
77897SOL    HW235589   4.919   8.970  12.197
77898SOL     OW35590   8.218   7.505   9.948
77898SOL    HW135591   8.189   7.573   9.887
77898SOL    HW235592   8.166   7.428   9.925
77899SOL     OW35593   8.745  10.715   6.528
77899SOL    HW135594   8.725  10.623   6.514
77899SOL    HW235595   8.839  10.722   6.515
77900SOL     OW35596   3.925   6.467   3.824
77900SOL    HW135597   3.992   6.461   3.755
77900SOL    HW235598   3.870   6.390   3.811
77901SOL     OW35599  12.156   3.849   1.144
77901SOL    HW135600  12.149   3.944   1.134
77901SOL    HW235601  12.130   3.833   1.234
77902SOL     OW35602  12.296   8.821   4.856
77902SOL    HW135603  12.323   8.771   4.780
77902SOL    HW235604  12.203   8.800   4.868
77903SOL     OW35605  10.697   6.558  11.648
77903SOL    HW135606  10.723   6.620  11.716
77903SOL    HW235607  10.771   6.555  11.588
77904SOL     OW35608  13.727  10.615  12.134
77904SOL    HW135609  13.647  10.615  12.081
77904SOL    HW235610  13.723  10.697  12.183
77905SOL     OW35611   7.005   5.708   5.791
77905SOL    HW135612   6.961   5.718   5.706
77905SOL    HW235613   6.949   5.754   5.853
77906SOL     OW35614  14.350   1.933  12.517
77906SOL    HW135615  14.393   2.017  12.536
77906SOL    HW235616  14.337   1.893  12.603
77907SOL     OW35617   5.147   7.420   3.309
77907SOL    HW135618   5.090   7.493   3.284
77907SOL    HW235619   5.110   7.344   3.264
77908SOL     OW35620   9.875   9.657   9.178
77908SOL    HW135621   9.963   9.627   9.201
77908SOL    HW235622   9.840   9.694   9.259
77909SOL     OW35623   3.591  10.644   9.475
77909SOL    HW135624   3.680  10.651   9.440
77909SOL    HW235625   3.587  10.710   9.544
77910SOL     OW35626  14.549   3.902   9.896
77910SOL    HW135627  14.558   3.818   9.851
77910SOL    HW235628  14.589   3.888   9.981
77911SOL     OW35629   6.282   4.537   7.494
77911SOL    HW135630   6.352   4.472   7.483
77911SOL    HW235631   6.277   4.581   7.410
77912SOL     OW35632  11.108   7.348   5.028
77912SOL    HW135633  11.189   7.314   4.990
77912SOL    HW235634  11.045   7.276   5.020
77913SOL     OW35635   2.849   6.753  11.184
77913SOL    HW135636   2.786   6.747  11.256
77913SOL    HW235637   2.910   6.681  11.200
77914SOL     OW35638   3.232   2.088   7.303
77914SOL    HW135639   3.196   2.172   7.275
77914SOL    HW235640   3.228   2.091   7.399
77915SOL     OW35641  13.541   1.481   3.823
77915SOL    HW135642  13.637   1.473   3.829
77915SOL    HW235643  13.527   1.569   3.787
77916SOL     OW35644   9.818   7.477  10.495
77916SOL    HW135645   9.863   7.395  10.476
77916SOL    HW235646   9.840   7.495  10.587
77917SOL     OW35647   9.089   5.547  11.680
77917SOL    HW135648   9.129   5.634  11.674
77917SOL    HW235649   9.005   5.556  11.634
77918SOL     OW35650   8.213  11.590  10.997
77918SOL    HW135651   8.146  11.529  10.965
77918SOL    HW235652   8.237  11.555  11.083
77919SOL     OW35653   3.466   4.238   9.754
77919SOL    HW135654   3.439   4.188   9.831
77919SOL    HW235655   3.406   4.209   9.685
77920SOL     OW35656   5.735  10.737   2.882
77920SOL    HW135657   5.745  10.705   2.792
77920SOL    HW235658   5.761  10.829   2.877
77921SOL     OW35659  11.268   7.392   8.368
77921SOL    HW135660  11.274   7.487   8.362
77921SOL    HW235661  11.208   7.376   8.442
77922SOL     OW35662   5.010  10.519   4.251
77922SOL    HW135663   5.033  10.611   4.264
77922SOL    HW235664   5.040  10.499   4.162
77923SOL     OW35665   7.687   5.913  11.646
77923SOL    HW135666   7.721   5.978  11.708
77923SOL    HW235667   7.736   5.833  11.666
77924SOL     OW35668  13.719   8.127   1.582
77924SOL    HW135669  13.670   8.134   1.500
77924SOL    HW235670  13.736   8.033   1.591
77925SOL     OW35671   4.325   3.538   9.887
77925SOL    HW135672   4.353   3.540   9.978
77925SOL    HW235673   4.263   3.610   9.879
77926SOL     OW35674  10.191   7.249  12.781
77926SOL    HW135675  10.202   7.295  12.865
77926SOL    HW235676  10.116   7.291  12.740
77927SOL     OW35677   3.627  10.034   4.965
77927SOL    HW135678   3.681  10.111   4.982
77927SOL    HW235679   3.686   9.960   4.974
77928SOL     OW35680   4.937   6.163   0.398
77928SOL    HW135681   4.921   6.068   0.394
77928SOL    HW235682   4.956   6.187   0.307
77929SOL     OW35683  11.235  13.477   8.497
77929SOL    HW135684  11.162  13.524   8.458
77929SOL    HW235685  11.225  13.387   8.466
77930SOL     OW35686  13.652   9.395   9.264
77930SOL    HW135687  13.669   9.302   9.283
77930SOL    HW235688  13.724   9.442   9.305
77931SOL     OW35689  11.553   3.680   5.896
77931SOL    HW135690  11.582   3.682   5.987
77931SOL    HW235691  11.604   3.748   5.852
77932SOL     OW35692  10.044  10.302   8.915
77932SOL    HW135693   9.981  10.240   8.951
77932SOL    HW235694  10.118  10.299   8.975
77933SOL     OW35695   8.002   1.006   6.055
77933SOL    HW135696   8.086   0.983   6.096
77933SOL    HW235697   7.983   0.933   5.997
77934SOL     OW35698  13.465   2.354  11.053
77934SOL    HW135699  13.522   2.350  11.129
77934SOL    HW235700  13.377   2.336  11.088
77935SOL     OW35701   9.713  14.559   0.200
77935SOL    HW135702   9.753  14.480   0.162
77935SOL    HW235703   9.622  14.556   0.171
77936SOL     OW35704  14.584   0.337   7.856
77936SOL    HW135705  14.614   0.319   7.945
77936SOL    HW235706  14.580   0.432   7.850
77937SOL     OW35707   8.820  14.861   3.801
77937SOL    HW135708   8.860  14.778   3.773
77937SOL    HW235709   8.736  14.862   3.756
77938SOL     OW35710   2.225   8.879  13.825
77938SOL    HW135711   2.243   8.848  13.736
77938SOL    HW235712   2.220   8.799  13.877
77939SOL     OW35713   8.869   4.324  10.011
77939SOL    HW135714   8.920   4.256  10.055
77939SOL    HW235715   8.928   4.399  10.008
77940SOL     OW35716   2.560   5.878   5.052
77940SOL    HW135717   2.599   5.938   4.988
77940SOL    HW235718   2.468   5.905   5.057
77941SOL     OW35719   4.119   1.569  10.288
77941SOL    HW135720   4.025   1.569  10.275
77941SOL    HW235721   4.155   1.583  10.200
77942SOL     OW35722   7.930   3.714  11.663
77942SOL    HW135723   7.836   3.702  11.673
77942SOL    HW235724   7.957   3.641  11.606
77943SOL     OW35725   0.214   5.521   9.926
77943SOL    HW135726   0.269   5.465   9.980
77943SOL    HW235727   0.273   5.588   9.892
77944SOL     OW35728   4.135  12.892  10.946
77944SOL    HW135729   4.120  12.977  10.904
77944SOL    HW235730   4.228  12.874  10.931
77945SOL     OW35731  12.884  12.494   1.144
77945SOL    HW135732  12.802  12.461   1.108
77945SOL    HW235733  12.878  12.589   1.134
77946SOL     OW35734   2.029  14.804   8.043
77946SOL    HW135735   2.048  14.856   7.964
77946SOL    HW235736   2.041  14.865   8.115
77947SOL     OW35737   9.792  11.188  12.758
77947SOL    HW135738   9.789  11.122  12.688
77947SOL    HW235739   9.885  11.208  12.768
77948SOL     OW35740   6.373   8.458   9.980
77948SOL    HW135741   6.361   8.490  10.070
77948SOL    HW235742   6.428   8.381   9.990
77949SOL     OW35743   9.749   0.159   6.799
77949SOL    HW135744   9.760   0.252   6.779
77949SOL    HW235745   9.836   0.121   6.783
77950SOL     OW35746   0.806  14.563   2.816
77950SOL    HW135747   0.893  14.562   2.775
77950SOL    HW235748   0.807  14.488   2.876
77951SOL     OW35749   5.735   6.330   7.051
77951SOL    HW135750   5.798   6.353   6.983
77951SOL    HW235751   5.664   6.393   7.039
77952SOL     OW35752   5.579  11.367  13.203
77952SOL    HW135753   5.560  11.277  13.176
77952SOL    HW235754   5.494  11.411  13.202
77953SOL     OW35755   3.742   9.388   0.038
77953SOL    HW135756   3.741   9.482   0.055
77953SOL    HW235757   3.761   9.381  14.827
77954SOL     OW35758   6.866   5.834   1.748
77954SOL    HW135759   6.961   5.841   1.743
77954SOL    HW235760   6.844   5.852   1.839
77955SOL     OW35761   6.069   2.763   2.010
77955SOL    HW135762   5.983   2.730   2.035
77955SOL    HW235763   6.051   2.840   1.955
77956SOL     OW35764  14.412   7.336   1.488
77956SOL    HW135765  14.388   7.334   1.580
77956SOL    HW235766  14.356   7.405   1.450
77957SOL     OW35767   5.376   4.771   8.084
77957SOL    HW135768   5.290   4.790   8.048
77957SOL    HW235769   5.437   4.791   8.013
77958SOL     OW35770   7.674  13.447   6.491
77958SOL    HW135771   7.758  13.422   6.529
77958SOL    HW235772   7.671  13.400   6.408
77959SOL     OW35773  13.160   7.094   3.890
77959SOL    HW135774  13.160   7.177   3.937
77959SOL    HW235775  13.082   7.048   3.922
77960SOL     OW35776  12.415   2.095   1.853
77960SOL    HW135777  12.509   2.114   1.851
77960SOL    HW235778  12.389   2.093   1.761
77961SOL     OW35779  11.193  13.614   7.430
77961SOL    HW135780  11.237  13.682   7.378
77961SOL    HW235781  11.251  13.600   7.505
77962SOL     OW35782  11.638  10.624   7.017
77962SOL    HW135783  11.708  10.653   7.075
77962SOL    HW235784  11.632  10.530   7.031
77963SOL     OW35785   2.171  14.082   7.597
77963SOL    HW135786   2.117  14.072   7.519
77963SOL    HW235787   2.150  14.170   7.630
77964SOL     OW35788   2.083   5.039   9.919
77964SOL    HW135789   2.109   5.051  10.010
77964SOL    HW235790   2.163   5.057   9.869
77965SOL     OW35791   1.063  12.930  13.643
77965SOL    HW135792   1.025  12.992  13.705
77965SOL    HW235793   1.157  12.940  13.653
77966SOL     OW35794   4.758   6.081   5.568
77966SOL    HW135795   4.722   6.138   5.636
77966SOL    HW235796   4.689   6.078   5.501
77967SOL     OW35797  10.287   4.802  12.991
77967SOL    HW135798  10.227   4.733  12.960
77967SOL    HW235799  10.374   4.764  12.980
77968SOL     OW35800   6.274  10.421   2.400
77968SOL    HW135801   6.247  10.355   2.337
77968SOL    HW235802   6.364  10.399   2.421
77969SOL     OW35803   0.654   2.094   4.815
77969SOL    HW135804   0.630   2.179   4.852
77969SOL    HW235805   0.734   2.069   4.862
77970SOL     OW35806   1.066  10.510   2.970
77970SOL    HW135807   1.143  10.562   2.945
77970SOL    HW235808   1.001  10.575   2.997
77971SOL     OW35809   6.463  10.352  14.296
77971SOL    HW135810   6.535  10.311  14.345
77971SOL    HW235811   6.495  10.440  14.277
77972SOL     OW35812   7.386  12.056  10.551
77972SOL    HW135813   7.463  12.022  10.596
77972SOL    HW235814   7.336  11.978  10.526
77973SOL     OW35815   0.680   1.939   2.091
77973SOL    HW135816   0.638   1.858   2.119
77973SOL    HW235817   0.759   1.945   2.145
77974SOL     OW35818   3.986   0.532   5.164
77974SOL    HW135819   3.990   0.518   5.258
77974SOL    HW235820   4.027   0.617   5.150
77975SOL     OW35821   6.562   6.242  11.267
77975SOL    HW135822   6.605   6.170  11.221
77975SOL    HW235823   6.605   6.246  11.352
77976SOL     OW35824   3.877   7.524  13.596
77976SOL    HW135825   3.879   7.563  13.508
77976SOL    HW235826   3.956   7.558  13.638
77977SOL     OW35827   4.373   3.320   1.126
77977SOL    HW135828   4.350   3.374   1.051
77977SOL    HW235829   4.329   3.361   1.200
77978SOL     OW35830   9.082   4.884   4.493
77978SOL    HW135831   9.169   4.907   4.525
77978SOL    HW235832   9.032   4.863   4.572
77979SOL     OW35833   7.588   1.854   3.281
77979SOL    HW135834   7.549   1.878   3.365
77979SOL    HW235835   7.595   1.936   3.234
77980SOL     OW35836  12.605  13.617   5.304
77980SOL    HW135837  12.671  13.550   5.319
77980SOL    HW235838  12.634  13.663   5.225
77981SOL     OW35839   7.454   1.269   1.273
77981SOL    HW135840   7.510   1.299   1.201
77981SOL    HW235841   7.510   1.271   1.350
77982SOL     OW35842  13.986   0.520   3.794
77982SOL    HW135843  13.988   0.616   3.795
77982SOL    HW235844  14.065   0.495   3.747
77983SOL     OW35845   3.787   9.950  13.671
77983SOL    HW135846   3.800  10.000  13.591
77983SOL    HW235847   3.758  10.015  13.735
77984SOL     OW35848   9.472  10.209   7.282
77984SOL    HW135849   9.380  10.193   7.262
77984SOL    HW235850   9.488  10.297   7.247
77985SOL     OW35851   2.401   0.183   0.882
77985SOL    HW135852   2.307   0.200   0.877
77985SOL    HW235853   2.427   0.219   0.967
77986SOL     OW35854  10.918  11.621  14.571
77986SOL    HW135855  10.941  11.589  14.483
77986SOL    HW235856  10.929  11.545  14.628
77987SOL     OW35857   5.704   4.913  12.679
77987SOL    HW135858   5.772   4.977  12.659
77987SOL    HW235859   5.624   4.964  12.688
77988SOL     OW35860   0.321   4.539  14.499
77988SOL    HW135861   0.307   4.463  14.442
77988SOL    HW235862   0.239   4.547  14.548
77989SOL     OW35863   2.550  12.656   2.400
77989SOL    HW135864   2.576  12.567   2.375
77989SOL    HW235865   2.509  12.645   2.486
77990SOL     OW35866   0.237   9.001   6.069
77990SOL    HW135867   0.224   9.013   6.163
77990SOL    HW235868   0.152   8.972   6.036
77991SOL     OW35869  10.712   5.433   5.185
77991SOL    HW135870  10.682   5.456   5.273
77991SOL    HW235871  10.701   5.513   5.134
77992SOL     OW35872   1.643  13.265  11.825
77992SOL    HW135873   1.578  13.238  11.890
77992SOL    HW235874   1.602  13.338  11.779
77993SOL     OW35875   3.073   7.801   8.368
77993SOL    HW135876   3.002   7.866   8.372
77993SOL    HW235877   3.129   7.823   8.442
77994SOL     OW35878   3.277   5.386   7.920
77994SOL    HW135879   3.293   5.391   8.014
77994SOL    HW235880   3.298   5.296   7.896
77995SOL     OW35881   8.810  12.724   2.056
77995SOL    HW135882   8.776  12.750   2.142
77995SOL    HW235883   8.747  12.760   1.993
77996SOL     OW35884   9.030   6.447   5.292
77996SOL    HW135885   9.075   6.446   5.208
77996SOL    HW235886   8.994   6.359   5.302
77997SOL     OW35887   1.963  11.466   4.959
77997SOL    HW135888   1.920  11.475   4.874
77997SOL    HW235889   2.036  11.527   4.955
77998SOL     OW35890   9.152   5.078   8.133
77998SOL    HW135891   9.195   5.149   8.180
77998SOL    HW235892   9.107   5.028   8.201
77999SOL     OW35893   6.820  10.497  14.842
77999SOL    HW135894   6.820  10.509   0.055
77999SOL    HW235895   6.819  10.586  14.807
78000SOL     OW35896   7.767  10.520   8.237
78000SOL    HW135897   7.740  10.578   8.309
78000SOL    HW235898   7.692  10.463   8.224
78001SOL     OW35899   4.808   7.323   0.397
78001SOL    HW135900   4.754   7.400   0.415
78001SOL    HW235901   4.880   7.329   0.460
78002SOL     OW35902   1.397   2.227   1.143
78002SOL    HW135903   1.481   2.272   1.133
78002SOL    HW235904   1.406   2.178   1.225
78003SOL     OW35905   6.150  11.471   5.624
78003SOL    HW135906   6.157  11.540   5.691
78003SOL    HW235907   6.188  11.394   5.666
78004SOL     OW35908   3.523  10.219  13.319
78004SOL    HW135909   3.607  10.258  13.345
78004SOL    HW235910   3.465  10.238  13.393
78005SOL     OW35911   0.370  13.052   1.301
78005SOL    HW135912   0.407  13.051   1.389
78005SOL    HW235913   0.358  13.145   1.281
78006SOL     OW35914   1.849   5.065   2.025
78006SOL    HW135915   1.821   5.150   1.992
78006SOL    HW235916   1.938   5.081   2.059
78007SOL     OW35917   9.316   0.248  11.342
78007SOL    HW135918   9.260   0.323  11.362
78007SOL    HW235919   9.397   0.265  11.391
78008SOL     OW35920   7.727  14.479   0.172
78008SOL    HW135921   7.811  14.434   0.177
78008SOL    HW235922   7.698  14.487   0.263
78009SOL     OW35923   6.030   0.112   1.455
78009SOL    HW135924   5.962   0.180   1.452
78009SOL    HW235925   6.112   0.160   1.444
78010SOL     OW35926   9.114   8.374  13.347
78010SOL    HW135927   9.171   8.317  13.296
78010SOL    HW235928   9.027   8.333  13.340
78011SOL     OW35929   5.199  10.375   7.120
78011SOL    HW135930   5.209  10.465   7.151
78011SOL    HW235931   5.160  10.329   7.195
78012SOL     OW35932   2.941   4.852  11.848
78012SOL    HW135933   2.888   4.881  11.774
78012SOL    HW235934   3.031   4.871  11.821
78013SOL     OW35935  11.286   7.291   4.045
78013SOL    HW135936  11.362   7.288   3.987
78013SOL    HW235937  11.238   7.369   4.016
78014SOL     OW35938   7.881   8.773   0.684
78014SOL    HW135939   7.945   8.843   0.689
78014SOL    HW235940   7.811   8.808   0.629
78015SOL     OW35941   1.656   1.231   6.731
78015SOL    HW135942   1.633   1.308   6.782
78015SOL    HW235943   1.640   1.157   6.789
78016SOL     OW35944   4.667   0.439  12.830
78016SOL    HW135945   4.729   0.450  12.759
78016SOL    HW235946   4.581   0.440  12.787
78017SOL     OW35947   4.432  11.792  10.069
78017SOL    HW135948   4.429  11.815   9.976
78017SOL    HW235949   4.340  11.775  10.092
78018SOL     OW35950   8.039   4.377  11.308
78018SOL    HW135951   7.975   4.436  11.270
78018SOL    HW235952   8.071   4.326  11.234
78019SOL     OW35953   3.608   0.387   7.700
78019SOL    HW135954   3.683   0.327   7.706
78019SOL    HW235955   3.565   0.364   7.618
78020SOL     OW35956  14.036   3.703   7.989
78020SOL    HW135957  13.957   3.650   7.981
78020SOL    HW235958  14.026   3.748   8.073
78021SOL     OW35959   3.065   6.205   1.751
78021SOL    HW135960   3.076   6.117   1.787
78021SOL    HW235961   3.152   6.244   1.756
78022SOL     OW35962   8.793   0.712  10.676
78022SOL    HW135963   8.795   0.680  10.767
78022SOL    HW235964   8.792   0.632  10.623
78023SOL     OW35965   1.833  14.035   6.063
78023SOL    HW135966   1.810  14.125   6.038
78023SOL    HW235967   1.752  13.985   6.050
78024SOL     OW35968  14.497  14.448   7.031
78024SOL    HW135969  14.557  14.513   7.066
78024SOL    HW235970  14.410  14.487   7.042
78025SOL     OW35971  10.929   8.978   2.783
78025SOL    HW135972  10.935   9.036   2.859
78025SOL    HW235973  11.018   8.973   2.749
78026SOL     OW35974  14.308   4.253  12.024
78026SOL    HW135975  14.274   4.283  11.941
78026SOL    HW235976  14.336   4.163  12.008
78027SOL     OW35977  14.358   2.201  10.127
78027SOL    HW135978  14.439   2.224  10.171
78027SOL    HW235979  14.374   2.220  10.035
78028SOL     OW35980  14.039  14.266   3.074
78028SOL    HW135981  14.014  14.319   3.150
78028SOL    HW235982  14.050  14.178   3.109
78029SOL     OW35983  12.623   0.008   9.872
78029SOL    HW135984  12.704  14.865   9.828
78029SOL    HW235985  12.647   0.085   9.924
78030SOL     OW35986  14.741  11.593  11.926
78030SOL    HW135987  14.757  11.538  11.849
78030SOL    HW235988  14.822  11.643  11.937
78031SOL     OW35989  12.666  10.295  14.438
78031SOL    HW135990  12.638  10.320  14.527
78031SOL    HW235991  12.726  10.365  14.412
78032SOL     OW35992   9.885  11.911   6.885
78032SOL    HW135993   9.920  11.827   6.915
78032SOL    HW235994   9.955  11.974   6.902
78033SOL     OW35995   8.336   5.744   3.875
78033SOL    HW135996   8.259   5.746   3.817
78033SOL    HW235997   8.395   5.680   3.835
78034SOL     OW35998   8.349   1.451   1.908
78034SOL    HW135999   8.267   1.434   1.955
78034SOL    HW236000   8.360   1.546   1.914
78035SOL     OW36001  13.527   2.566  10.891
78035SOL    HW136002  13.463   2.622  10.848
78035SOL    HW236003  13.478   2.521  10.959
78036SOL     OW36004   0.788  12.419  10.481
78036SOL    HW136005   0.746  12.357  10.422
78036SOL    HW236006   0.754  12.505  10.455
78037SOL     OW36007   9.484   4.942   6.895
78037SOL    HW136008   9.535   4.864   6.919
78037SOL    HW236009   9.549   5.005   6.865
78038SOL     OW36010   3.705   4.043   5.322
78038SOL    HW136011   3.669   4.012   5.239
78038SOL    HW236012   3.800   4.048   5.306
78039SOL     OW36013   6.835  14.274  11.572
78039SOL    HW136014   6.917  14.267  11.525
78039SOL    HW236015   6.795  14.355  11.539
78040SOL     OW36016  13.530   9.870  10.207
78040SOL    HW136017  13.504   9.835  10.293
78040SOL    HW236018  13.591   9.941  10.227
78041SOL     OW36019   8.497   3.909   9.980
78041SOL    HW136020   8.457   3.876   9.900
78041SOL    HW236021   8.429   3.901  10.047
78042SOL     OW36022   7.955   4.577   7.489
78042SOL    HW136023   7.886   4.581   7.422
78042SOL    HW236024   8.016   4.510   7.456
78043SOL     OW36025   5.953  14.843   7.644
78043SOL    HW136026   5.956   0.056   7.639
78043SOL    HW236027   5.866  14.823   7.676
78044SOL     OW36028   6.929   2.946  13.422
78044SOL    HW136029   6.972   2.950  13.337
78044SOL    HW236030   6.999   2.923  13.483
78045SOL     OW36031   0.400  14.330   6.650
78045SOL    HW136032   0.409  14.295   6.562
78045SOL    HW236033   0.306  14.328   6.668
78046SOL     OW36034   6.017   5.103   1.316
78046SOL    HW136035   6.007   5.198   1.312
78046SOL    HW236036   5.952   5.074   1.379
78047SOL     OW36037   3.323   8.444   4.167
78047SOL    HW136038   3.371   8.367   4.198
78047SOL    HW236039   3.392   8.505   4.139
78048SOL     OW36040  12.900   7.252   1.214
78048SOL    HW136041  12.974   7.205   1.251
78048SOL    HW236042  12.841   7.184   1.181
78049SOL     OW36043   1.699   9.129   6.173
78049SOL    HW136044   1.623   9.108   6.118
78049SOL    HW236045   1.741   9.203   6.129
78050SOL     OW36046  10.075   1.754   4.016
78050SOL    HW136047   9.998   1.809   4.023
78050SOL    HW236048  10.128   1.794   3.947
78051SOL     OW36049   6.928   3.860   8.775
78051SOL    HW136050   6.835   3.860   8.754
78051SOL    HW236051   6.971   3.870   8.690
78052SOL     OW36052  13.768  10.055   9.392
78052SOL    HW136053  13.755  10.149   9.375
78052SOL    HW236054  13.679  10.021   9.404
78053SOL     OW36055  11.352   7.749   7.536
78053SOL    HW136056  11.414   7.722   7.603
78053SOL    HW236057  11.394   7.822   7.491
78054SOL     OW36058   9.121   6.464   1.272
78054SOL    HW136059   9.098   6.503   1.357
78054SOL    HW236060   9.054   6.497   1.212
78055SOL     OW36061  14.055   0.792   7.169
78055SOL    HW136062  14.037   0.860   7.105
78055SOL    HW236063  14.003   0.815   7.246
78056SOL     OW36064  11.810  13.867   1.060
78056SOL    HW136065  11.730  13.915   1.082
78056SOL    HW236066  11.876  13.935   1.050
78057SOL     OW36067   8.164  13.783  11.044
78057SOL    HW136068   8.120  13.768  11.127
78057SOL    HW236069   8.111  13.736  10.980
78058SOL     OW36070   3.494  13.943   4.194
78058SOL    HW136071   3.512  14.000   4.119
78058SOL    HW236072   3.491  13.855   4.157
78059SOL     OW36073  12.629   9.983   5.088
78059SOL    HW136074  12.589  10.010   5.170
78059SOL    HW236075  12.644  10.064   5.040
78060SOL     OW36076  14.706   1.702   6.827
78060SOL    HW136077  14.625   1.755   6.824
78060SOL    HW236078  14.683   1.621   6.781
78061SOL     OW36079   0.891  14.654   7.349
78061SOL    HW136080   0.977  14.623   7.318
78061SOL    HW236081   0.872  14.597   7.423
78062SOL     OW36082   5.923   2.996   3.100
78062SOL    HW136083   5.861   2.924   3.087
78062SOL    HW236084   5.873   3.074   3.075
78063SOL     OW36085   9.992  12.738  14.275
78063SOL    HW136086   9.916  12.790  14.298
78063SOL    HW236087  10.040  12.727  14.357
78064SOL     OW36088   3.863  11.484   4.632
78064SOL    HW136089   3.908  11.466   4.714
78064SOL    HW236090   3.885  11.409   4.576
78065SOL     OW36091   8.493   5.329   8.339
78065SOL    HW136092   8.482   5.380   8.419
78065SOL    HW236093   8.531   5.390   8.275
78066SOL     OW36094   4.047   8.597  13.055
78066SOL    HW136095   4.032   8.627  12.965
78066SOL    HW236096   4.142   8.603  13.067
78067SOL     OW36097  10.246   6.427   7.727
78067SOL    HW136098  10.191   6.432   7.649
78067SOL    HW236099  10.187   6.393   7.795
78068SOL     OW36100   0.457   9.672   2.441
78068SOL    HW136101   0.461   9.588   2.488
78068SOL    HW236102   0.502   9.734   2.498
78069SOL     OW36103  12.387   6.200   2.504
78069SOL    HW136104  12.294   6.204   2.527
78069SOL    HW236105  12.420   6.288   2.523
78070SOL     OW36106   2.972   9.181  14.380
78070SOL    HW136107   3.037   9.242  14.415
78070SOL    HW236108   2.939   9.224  14.301
78071SOL     OW36109   1.681  10.831   7.399
78071SOL    HW136110   1.610  10.779   7.436
78071SOL    HW236111   1.698  10.790   7.314
78072SOL     OW36112  14.016  12.420   4.684
78072SOL    HW136113  14.080  12.466   4.631
78072SOL    HW236114  14.053  12.333   4.698
78073SOL     OW36115   5.905  10.272  11.213
78073SOL    HW136116   5.890  10.233  11.299
78073SOL    HW236117   5.881  10.364  11.224
78074SOL     OW36118   0.601   8.133   0.018
78074SOL    HW136119   0.574   8.143  14.809
78074SOL    HW236120   0.518   8.126   0.066
78075SOL     OW36121  12.061  10.171   7.159
78075SOL    HW136122  12.113  10.181   7.238
78075SOL    HW236123  11.980  10.219   7.177
78076SOL     OW36124   9.038   3.191   7.601
78076SOL    HW136125   9.124   3.231   7.589
78076SOL    HW236126   9.056   3.102   7.629
78077SOL     OW36127  12.936   5.202  10.445
78077SOL    HW136128  12.952   5.108  10.432
78077SOL    HW236129  12.844   5.214  10.420
78078SOL     OW36130  12.758   1.765   3.532
78078SOL    HW136131  12.747   1.774   3.437
78078SOL    HW236132  12.792   1.677   3.544
78079SOL     OW36133   0.373   2.151  13.176
78079SOL    HW136134   0.433   2.210  13.131
78079SOL    HW236135   0.317   2.208  13.228
78080SOL     OW36136   6.696   1.003   6.054
78080SOL    HW136137   6.612   1.027   6.015
78080SOL    HW236138   6.748   0.972   5.980
78081SOL     OW36139  12.461   5.165   4.101
78081SOL    HW136140  12.497   5.174   4.013
78081SOL    HW236141  12.446   5.071   4.111
78082SOL     OW36142   6.694   7.259   4.661
78082SOL    HW136143   6.749   7.276   4.737
78082SOL    HW236144   6.649   7.176   4.682
78083SOL     OW36145  13.279   8.539  10.359
78083SOL    HW136146  13.290   8.550  10.454
78083SOL    HW236147  13.367   8.553  10.324
78084SOL     OW36148   0.974  14.171   2.754
78084SOL    HW136149   0.977  14.087   2.709
78084SOL    HW236150   0.929  14.229   2.693
78085SOL     OW36151   1.609   4.033  14.661
78085SOL    HW136152   1.610   4.061  14.570
78085SOL    HW236153   1.661   4.099  14.707
78086SOL     OW36154   6.410  14.202  12.663
78086SOL    HW136155   6.326  14.196  12.617
78086SOL    HW236156   6.456  14.273  12.618
78087SOL     OW36157   5.149   6.909   3.371
78087SOL    HW136158   5.145   6.907   3.276
78087SOL    HW236159   5.152   7.003   3.393
78088SOL     OW36160  10.583   5.220  11.267
78088SOL    HW136161  10.602   5.308  11.236
78088SOL    HW236162  10.492   5.204  11.241
78089SOL     OW36163   1.311  11.557   4.856
78089SOL    HW136164   1.245  11.490   4.838
78089SOL    HW236165   1.307  11.616   4.781
78090SOL     OW36166   8.235   8.205  11.133
78090SOL    HW136167   8.190   8.243  11.058
78090SOL    HW236168   8.175   8.216  11.206
78091SOL     OW36169   1.345  12.748  14.693
78091SOL    HW136170   1.398  12.814  14.739
78091SOL    HW236171   1.398  12.668  14.698
78092SOL     OW36172  13.241  10.500  14.760
78092SOL    HW136173  13.228  10.538  14.847
78092SOL    HW236174  13.332  10.470  14.761
78093SOL     OW36175   2.771   9.016   8.949
78093SOL    HW136176   2.705   8.965   8.996
78093SOL    HW236177   2.762   8.989   8.857
78094SOL     OW36178   2.879   6.681   2.622
78094SOL    HW136179   2.966   6.657   2.654
78094SOL    HW236180   2.894   6.715   2.534
78095SOL     OW36181   4.221   5.849  12.636
78095SOL    HW136182   4.264   5.900  12.568
78095SOL    HW236183   4.180   5.776  12.588
78096SOL     OW36184   5.051   0.974  14.496
78096SOL    HW136185   5.127   0.976  14.438
78096SOL    HW236186   5.044   0.882  14.523
78097SOL     OW36187   7.452  14.194   6.030
78097SOL    HW136188   7.445  14.146   5.948
78097SOL    HW236189   7.381  14.259   6.026
78098SOL     OW36190   6.812   1.310   5.779
78098SOL    HW136191   6.772   1.310   5.692
78098SOL    HW236192   6.881   1.243   5.774
78099SOL     OW36193  14.429   6.398   2.522
78099SOL    HW136194  14.424   6.389   2.617
78099SOL    HW236195  14.520   6.423   2.505
78100SOL     OW36196   4.954   4.763   2.935
78100SOL    HW136197   5.027   4.800   2.985
78100SOL    HW236198   4.876   4.792   2.980
78101SOL     OW36199   6.259   4.351  12.874
78101SOL    HW136200   6.351   4.325  12.884
78101SOL    HW236201   6.209   4.272  12.893
78102SOL     OW36202   2.948  10.346   1.777
78102SOL    HW136203   3.024  10.296   1.807
78102SOL    HW236204   2.953  10.429   1.825
78103SOL     OW36205   5.758   6.082  12.866
78103SOL    HW136206   5.681   6.071  12.809
78103SOL    HW236207   5.747   6.016  12.934
78104SOL     OW36208   9.074   8.209   8.590
78104SOL    HW136209   9.000   8.222   8.530
78104SOL    HW236210   9.094   8.296   8.623
78105SOL     OW36211  12.819  12.712  10.941
78105SOL    HW136212  12.756  12.727  10.870
78105SOL    HW236213  12.839  12.800  10.973
78106SOL     OW36214   1.467   7.380  13.097
78106SOL    HW136215   1.445   7.473  13.100
78106SOL    HW236216   1.453   7.349  13.187
78107SOL     OW36217   1.431   7.740  13.504
78107SOL    HW136218   1.388   7.767  13.423
78107SOL    HW236219   1.385   7.660  13.530
78108SOL     OW36220   8.828   6.282  14.733
78108SOL    HW136221   8.897   6.348  14.730
78108SOL    HW236222   8.767   6.315  14.799
78109SOL     OW36223   3.583   3.490   3.711
78109SOL    HW136224   3.514   3.510   3.774
78109SOL    HW236225   3.586   3.394   3.708
78110SOL     OW36226   0.736  10.423   5.388
78110SOL    HW136227   0.672  10.491   5.367
78110SOL    HW236228   0.709  10.347   5.337
78111SOL     OW36229   8.926  11.149   4.321
78111SOL    HW136230   8.997  11.146   4.384
78111SOL    HW236231   8.847  11.131   4.373
78112SOL     OW36232  10.380   9.891  13.106
78112SOL    HW136233  10.303   9.945  13.086
78112SOL    HW236234  10.345   9.809  13.138
78113SOL     OW36235   8.284   3.697   3.179
78113SOL    HW136236   8.237   3.641   3.241
78113SOL    HW236237   8.377   3.678   3.197
78114SOL     OW36238   4.226   6.095  11.067
78114SOL    HW136239   4.290   6.037  11.107
78114SOL    HW236240   4.141   6.062  11.095
78115SOL     OW36241   1.677  10.902   6.341
78115SOL    HW136242   1.598  10.941   6.378
78115SOL    HW236243   1.658  10.896   6.247
78116SOL     OW36244  12.563   4.784  10.683
78116SOL    HW136245  12.640   4.743  10.643
78116SOL    HW236246  12.520   4.830  10.611
78117SOL     OW36247   6.296  10.813   9.989
78117SOL    HW136248   6.256  10.839   9.907
78117SOL    HW236249   6.389  10.835   9.979
78118SOL     OW36250  14.140   5.558   1.738
78118SOL    HW136251  14.069   5.593   1.792
78118SOL    HW236252  14.151   5.468   1.770
78119SOL     OW36253  12.493  12.557   9.291
78119SOL    HW136254  12.584  12.587   9.298
78119SOL    HW236255  12.464  12.586   9.205
78120SOL     OW36256   6.449  10.141   6.992
78120SOL    HW136257   6.481  10.053   7.011
78120SOL    HW236258   6.414  10.171   7.076
78121SOL     OW36259  13.677  13.078   6.417
78121SOL    HW136260  13.599  13.092   6.363
78121SOL    HW236261  13.650  13.012   6.481
78122SOL     OW36262   8.841   2.663   3.965
78122SOL    HW136263   8.813   2.755   3.957
78122SOL    HW236264   8.782   2.615   3.906
78123SOL     OW36265  10.463  11.860   3.914
78123SOL    HW136266  10.553  11.890   3.921
78123SOL    HW236267  10.419  11.929   3.864
78124SOL     OW36268   0.571   0.876   1.144
78124SOL    HW136269   0.541   0.966   1.142
78124SOL    HW236270   0.646   0.877   1.203
78125SOL     OW36271   0.599   7.656   3.562
78125SOL    HW136272   0.685   7.620   3.539
78125SOL    HW236273   0.537   7.590   3.533
78126SOL     OW36274   8.560   9.727  10.625
78126SOL    HW136275   8.512   9.790  10.571
78126SOL    HW236276   8.492   9.670  10.661
78127SOL     OW36277   0.593  12.516  12.722
78127SOL    HW136278   0.601  12.531  12.628
78127SOL    HW236279   0.566  12.424  12.729
78128SOL     OW36280  10.793  14.628   6.659
78128SOL    HW136281  10.808  14.565   6.729
78128SOL    HW236282  10.773  14.575   6.582
78129SOL     OW36283   8.221   7.300   1.804
78129SOL    HW136284   8.139   7.294   1.852
78129SOL    HW236285   8.217   7.384   1.759
78130SOL     OW36286   4.580   1.235   7.989
78130SOL    HW136287   4.561   1.236   8.083
78130SOL    HW236288   4.653   1.174   7.980
78131SOL     OW36289   5.639  13.298   5.989
78131SOL    HW136290   5.667  13.212   5.960
78131SOL    HW236291   5.544  13.290   6.000
78132SOL     OW36292   4.102   7.352  14.415
78132SOL    HW136293   4.122   7.283  14.478
78132SOL    HW236294   4.012   7.335  14.389
78133SOL     OW36295   3.306   9.269  13.425
78133SOL    HW136296   3.307   9.364  13.425
78133SOL    HW236297   3.396   9.243  13.446
78134SOL     OW36298   1.288  12.289   7.621
78134SOL    HW136299   1.229  12.261   7.551
78134SOL    HW236300   1.229  12.318   7.691
78135SOL     OW36301   4.637  10.393   3.923
78135SOL    HW136302   4.645  10.347   4.006
78135SOL    HW236303   4.644  10.324   3.857
78136SOL     OW36304  12.915   8.504  12.341
78136SOL    HW136305  12.989   8.521  12.282
78136SOL    HW236306  12.887   8.414  12.319
78137SOL     OW36307   2.784   2.244   6.228
78137SOL    HW136308   2.704   2.241   6.281
78137SOL    HW236309   2.854   2.223   6.290
78138SOL     OW36310   1.357   6.411  10.243
78138SOL    HW136311   1.339   6.494  10.287
78138SOL    HW236312   1.299   6.348  10.286
78139SOL     OW36313   5.087  14.390  10.191
78139SOL    HW136314   5.123  14.373  10.104
78139SOL    HW236315   5.000  14.349  10.189
78140SOL     OW36316   1.099   5.358   9.483
78140SOL    HW136317   1.027   5.407   9.524
78140SOL    HW236318   1.164   5.349   9.552
78141SOL     OW36319   5.485   8.051   4.061
78141SOL    HW136320   5.407   8.016   4.019
78141SOL    HW236321   5.460   8.139   4.088
78142SOL     OW36322   1.493   8.324  13.669
78142SOL    HW136323   1.455   8.236  13.669
78142SOL    HW236324   1.462   8.363  13.751
78143SOL     OW36325  12.148   2.949  14.132
78143SOL    HW136326  12.234   2.923  14.101
78143SOL    HW236327  12.136   2.902  14.214
78144SOL     OW36328  12.877   6.875   2.537
78144SOL    HW136329  12.928   6.794   2.535
78144SOL    HW236330  12.934   6.940   2.497
78145SOL     OW36331  14.855   1.526   9.455
78145SOL    HW136332  14.804   1.448   9.478
78145SOL    HW236333  14.847   1.532   9.360
78146SOL     OW36334   1.385   6.221   4.346
78146SOL    HW136335   1.411   6.172   4.424
78146SOL    HW236336   1.317   6.168   4.306
78147SOL     OW36337   8.165  12.953   5.398
78147SOL    HW136338   8.080  12.995   5.416
78147SOL    HW236339   8.155  12.863   5.431
78148SOL     OW36340   1.446   2.409  12.135
78148SOL    HW136341   1.367   2.357  12.153
78148SOL    HW236342   1.496   2.406  12.216
78149SOL     OW36343   9.736  11.663   6.582
78149SOL    HW136344   9.805  11.627   6.528
78149SOL    HW236345   9.692  11.727   6.526
78150SOL     OW36346  12.102   9.521   4.840
78150SOL    HW136347  12.038   9.452   4.821
78150SOL    HW236348  12.182   9.474   4.861
78151SOL     OW36349   0.765   1.812   8.940
78151SOL    HW136350   0.726   1.834   9.025
78151SOL    HW236351   0.781   1.718   8.945
78152SOL     OW36352  14.595   8.764  10.796
78152SOL    HW136353  14.575   8.803  10.710
78152SOL    HW236354  14.639   8.835  10.844
78153SOL     OW36355  10.417   5.262   1.236
78153SOL    HW136356  10.417   5.347   1.191
78153SOL    HW236357  10.402   5.198   1.167
78154SOL     OW36358   4.414  14.221   7.177
78154SOL    HW136359   4.473  14.229   7.251
78154SOL    HW236360   4.401  14.126   7.167
78155SOL     OW36361   9.426  10.135   6.787
78155SOL    HW136362   9.471  10.067   6.736
78155SOL    HW236363   9.490  10.205   6.796
78156SOL     OW36364   3.564  14.165   2.965
78156SOL    HW136365   3.619  14.186   2.889
78156SOL    HW236366   3.623  14.123   3.027
78157SOL     OW36367   0.386   9.088   1.755
78157SOL    HW136368   0.424   9.174   1.773
78157SOL    HW236369   0.434   9.056   1.680
78158SOL     OW36370   1.201   0.214   7.810
78158SOL    HW136371   1.255   0.137   7.828
78158SOL    HW236372   1.139   0.185   7.742
78159SOL     OW36373  14.187  11.002   9.174
78159SOL    HW136374  14.101  11.042   9.159
78159SOL    HW236375  14.239  11.072   9.213
78160SOL     OW36376   4.094  11.563  11.870
78160SOL    HW136377   4.080  11.491  11.932
78160SOL    HW236378   4.137  11.631  11.922
78161SOL     OW36379   5.374  13.687  13.758
78161SOL    HW136380   5.302  13.645  13.805
78161SOL    HW236381   5.383  13.773  13.800
78162SOL     OW36382   8.558  11.809   6.560
78162SOL    HW136383   8.607  11.748   6.504
78162SOL    HW236384   8.556  11.891   6.510
78163SOL     OW36385  13.255  14.564  10.957
78163SOL    HW136386  13.308  14.525  11.026
78163SOL    HW236387  13.230  14.650  10.991
78164SOL     OW36388   2.830   8.521   7.931
78164SOL    HW136389   2.859   8.609   7.905
78164SOL    HW236390   2.897   8.491   7.992
78165SOL     OW36391   8.419   2.547   8.155
78165SOL    HW136392   8.390   2.506   8.074
78165SOL    HW236393   8.341   2.593   8.187
78166SOL     OW36394   9.851   6.179   9.769
78166SOL    HW136395   9.852   6.168   9.674
78166SOL    HW236396   9.762   6.209   9.789
78167SOL     OW36397   3.121   0.582   9.609
78167SOL    HW136398   3.195   0.585   9.669
78167SOL    HW236399   3.096   0.490   9.607
78168SOL     OW36400   4.729  12.501  10.152
78168SOL    HW136401   4.756  12.554  10.076
78168SOL    HW236402   4.683  12.427  10.114
78169SOL     OW36403  13.530   5.075   4.971
78169SOL    HW136404  13.616   5.081   5.013
78169SOL    HW236405  13.468   5.096   5.041
78170SOL     OW36406  12.399   2.062   6.601
78170SOL    HW136407  12.390   2.156   6.581
78170SOL    HW236408  12.357   2.018   6.528
78171SOL     OW36409  10.287  12.580   4.559
78171SOL    HW136410  10.379  12.600   4.571
78171SOL    HW236411  10.271  12.505   4.617
78172SOL     OW36412  10.974   5.643  11.807
78172SOL    HW136413  10.969   5.579  11.877
78172SOL    HW236414  11.066   5.644  11.782
78173SOL     OW36415  12.694   2.800   5.334
78173SOL    HW136416  12.674   2.879   5.385
78173SOL    HW236417  12.635   2.733   5.369
78174SOL     OW36418   7.178   5.631  10.963
78174SOL    HW136419   7.178   5.604  10.872
78174SOL    HW236420   7.267   5.618  10.993
78175SOL     OW36421   4.532  10.220   0.965
78175SOL    HW136422   4.450  10.263   0.940
78175SOL    HW236423   4.540  10.146   0.905
78176SOL     OW36424   0.530   9.569   0.337
78176SOL    HW136425   0.601   9.549   0.276
78176SOL    HW236426   0.557   9.650   0.380
78177SOL     OW36427  13.457  13.769   5.698
78177SOL    HW136428  13.518  13.729   5.762
78177SOL    HW236429  13.478  13.725   5.616
78178SOL     OW36430  10.873   3.758   2.175
78178SOL    HW136431  10.812   3.781   2.245
78178SOL    HW236432  10.919   3.681   2.209
78179SOL     OW36433   0.301  13.672   1.765
78179SOL    HW136434   0.316  13.597   1.708
78179SOL    HW236435   0.307  13.636   1.853
78180SOL     OW36436  11.463   9.511   9.116
78180SOL    HW136437  11.489   9.420   9.106
78180SOL    HW236438  11.537   9.562   9.083
78181SOL     OW36439   5.774   9.336   7.461
78181SOL    HW136440   5.681   9.344   7.437
78181SOL    HW236441   5.803   9.427   7.473
78182SOL     OW36442   4.333   1.103   1.950
78182SOL    HW136443   4.243   1.134   1.953
78182SOL    HW236444   4.332   1.022   2.001
78183SOL     OW36445   1.911   8.842   2.901
78183SOL    HW136446   1.960   8.793   2.967
78183SOL    HW236447   1.916   8.933   2.931
78184SOL     OW36448   3.001   3.114  11.717
78184SOL    HW136449   2.924   3.149  11.673
78184SOL    HW236450   3.034   3.188  11.769
78185SOL     OW36451   2.995  10.026   9.817
78185SOL    HW136452   3.019  10.004   9.727
78185SOL    HW236453   3.000  10.122   9.821
78186SOL     OW36454   0.840   0.997   3.685
78186SOL    HW136455   0.762   1.051   3.669
78186SOL    HW236456   0.881   1.036   3.762
78187SOL     OW36457   8.825   6.961   6.220
78187SOL    HW136458   8.854   7.045   6.255
78187SOL    HW236459   8.758   6.984   6.156
78188SOL     OW36460  12.339   2.742  12.076
78188SOL    HW136461  12.251   2.753  12.112
78188SOL    HW236462  12.398   2.772  12.145
78189SOL     OW36463   5.510  14.653   7.452
78189SOL    HW136464   5.460  14.734   7.444
78189SOL    HW236465   5.451  14.593   7.498
78190SOL     OW36466   8.599   8.260   0.451
78190SOL    HW136467   8.591   8.197   0.379
78190SOL    HW236468   8.634   8.209   0.524
78191SOL     OW36469   8.795   4.876  11.314
78191SOL    HW136470   8.844   4.955  11.333
78191SOL    HW236471   8.711   4.889  11.358
78192SOL     OW36472   2.683  13.855   3.332
78192SOL    HW136473   2.725  13.921   3.277
78192SOL    HW236474   2.709  13.772   3.293
78193SOL     OW36475   8.911   9.161   2.504
78193SOL    HW136476   8.890   9.097   2.572
78193SOL    HW236477   8.948   9.235   2.552
78194SOL     OW36478   0.289   8.084   1.817
78194SOL    HW136479   0.199   8.113   1.802
78194SOL    HW236480   0.296   8.002   1.769
78195SOL     OW36481   1.032  10.648   6.648
78195SOL    HW136482   1.062  10.559   6.628
78195SOL    HW236483   1.112  10.698   6.664
78196SOL     OW36484   0.649   7.470  10.823
78196SOL    HW136485   0.677   7.419  10.747
78196SOL    HW236486   0.582   7.416  10.865
78197SOL     OW36487   0.554  14.757   6.885
78197SOL    HW136488   0.512  14.748   6.800
78197SOL    HW236489   0.624  14.693   6.885
78198SOL     OW36490   0.858   6.080   1.582
78198SOL    HW136491   0.822   6.143   1.645
78198SOL    HW236492   0.900   6.013   1.637
78199SOL     OW36493  14.542   8.512   8.986
78199SOL    HW136494  14.507   8.472   8.906
78199SOL    HW236495  14.567   8.601   8.959
78200SOL     OW36496   4.517  13.395   0.457
78200SOL    HW136497   4.579  13.418   0.387
78200SOL    HW236498   4.565  13.331   0.511
78201SOL     OW36499   3.048   9.277   9.873
78201SOL    HW136500   3.098   9.343   9.825
78201SOL    HW236501   2.977   9.326   9.914
78202SOL     OW36502   3.215   8.475   3.742
78202SOL    HW136503   3.157   8.401   3.726
78202SOL    HW236504   3.271   8.480   3.664
78203SOL     OW36505   9.407   6.527   7.130
78203SOL    HW136506   9.392   6.612   7.170
78203SOL    HW236507   9.366   6.533   7.044
78204SOL     OW36508   8.535  14.197   5.380
78204SOL    HW136509   8.559  14.289   5.366
78204SOL    HW236510   8.602  14.147   5.331
78205SOL     OW36511   6.489   3.346   6.251
78205SOL    HW136512   6.577   3.339   6.215
78205SOL    HW236513   6.465   3.438   6.238
78206SOL     OW36514  12.590   1.769   0.668
78206SOL    HW136515  12.643   1.693   0.644
78206SOL    HW236516  12.612   1.785   0.760
78207SOL     OW36517   3.824   8.423  13.533
78207SOL    HW136518   3.885   8.484  13.575
78207SOL    HW236519   3.825   8.448  13.441
78208SOL     OW36520   8.312  11.311   5.956
78208SOL    HW136521   8.262  11.260   6.020
78208SOL    HW236522   8.265  11.394   5.949
78209SOL     OW36523  14.380  11.621   6.204
78209SOL    HW136524  14.400  11.528   6.213
78209SOL    HW236525  14.286  11.623   6.182
78210SOL     OW36526   2.750   2.950   9.325
78210SOL    HW136527   2.810   3.018   9.294
78210SOL    HW236528   2.780   2.931   9.414
78211SOL     OW36529   6.892   2.548  14.664
78211SOL    HW136530   6.867   2.602  14.739
78211SOL    HW236531   6.813   2.497  14.644
78212SOL     OW36532   0.930  10.738   9.612
78212SOL    HW136533   0.963  10.754   9.524
78212SOL    HW236534   1.007  10.736   9.667
78213SOL     OW36535  11.969   4.117   0.272
78213SOL    HW136536  11.998   4.204   0.300
78213SOL    HW236537  12.049   4.072   0.246
78214SOL     OW36538   7.972  11.735   3.022
78214SOL    HW136539   7.966  11.725   2.927
78214SOL    HW236540   7.890  11.699   3.056
78215SOL     OW36541   3.882   1.905   9.157
78215SOL    HW136542   3.879   1.842   9.229
78215SOL    HW236543   3.795   1.901   9.118
78216SOL     OW36544  12.234   0.620  13.584
78216SOL    HW136545  12.239   0.702  13.535
78216SOL    HW236546  12.185   0.641  13.663
78217SOL     OW36547   5.266   5.109   6.534
78217SOL    HW136548   5.279   5.166   6.457
78217SOL    HW236549   5.336   5.045   6.528
78218SOL     OW36550  11.627  11.886   0.023
78218SOL    HW136551  11.560  11.934  14.856
78218SOL    HW236552  11.702  11.945   0.024
78219SOL     OW36553   6.686   8.300  13.216
78219SOL    HW136554   6.728   8.314  13.131
78219SOL    HW236555   6.757   8.272  13.273
78220SOL     OW36556   4.325   6.601  11.926
78220SOL    HW136557   4.307   6.530  11.988
78220SOL    HW236558   4.268   6.582  11.851
78221SOL     OW36559  13.793   4.090   1.471
78221SOL    HW136560  13.796   3.997   1.492
78221SOL    HW236561  13.832   4.096   1.383
78222SOL     OW36562   0.064  13.312   4.463
78222SOL    HW136563   0.150  13.326   4.422
78222SOL    HW236564   0.034  13.228   4.427
78223SOL     OW36565   6.865  13.545  14.517
78223SOL    HW136566   6.907  13.615  14.567
78223SOL    HW236567   6.933  13.513  14.458
78224SOL     OW36568   4.822   6.550   6.409
78224SOL    HW136569   4.753   6.616   6.408
78224SOL    HW236570   4.859   6.556   6.497
78225SOL     OW36571   0.180   0.604   4.902
78225SOL    HW136572   0.153   0.616   4.810
78225SOL    HW236573   0.130   0.527   4.931
78226SOL     OW36574  14.279   9.926   1.560
78226SOL    HW136575  14.201   9.971   1.592
78226SOL    HW236576  14.259   9.904   1.469
78227SOL     OW36577   8.430   5.569   0.671
78227SOL    HW136578   8.393   5.590   0.757
78227SOL    HW236579   8.439   5.654   0.628
78228SOL     OW36580   4.718   1.560   4.714
78228SOL    HW136581   4.672   1.626   4.766
78228SOL    HW236582   4.765   1.611   4.648
78229SOL     OW36583  12.015   6.185   8.841
78229SOL    HW136584  12.017   6.138   8.757
78229SOL    HW236585  11.955   6.135   8.896
78230SOL     OW36586  11.571   3.079  12.203
78230SOL    HW136587  11.489   3.083  12.252
78230SOL    HW236588  11.638   3.061  12.269
78231SOL     OW36589  14.531   7.694   1.807
78231SOL    HW136590  14.445   7.664   1.778
78231SOL    HW236591  14.555   7.762   1.745
78232SOL     OW36592  13.964   7.724  10.808
78232SOL    HW136593  13.960   7.813  10.842
78232SOL    HW236594  13.878   7.687  10.828
78233SOL     OW36595   3.511  11.932   7.015
78233SOL    HW136596   3.431  11.882   7.028
78233SOL    HW236597   3.487  12.004   6.957
78234SOL     OW36598   2.320  11.379   8.053
78234SOL    HW136599   2.411  11.357   8.031
78234SOL    HW236600   2.272  11.297   8.040
78235SOL     OW36601  10.301  10.854   3.846
78235SOL    HW136602  10.247  10.932   3.828
78235SOL    HW236603  10.242  10.793   3.889
78236SOL     OW36604  13.241  14.685   5.592
78236SOL    HW136605  13.213  14.775   5.606
78236SOL    HW236606  13.210  14.638   5.669
78237SOL     OW36607  11.899  13.751   2.423
78237SOL    HW136608  11.904  13.778   2.331
78237SOL    HW236609  11.907  13.655   2.420
78238SOL     OW36610  14.179   4.657   9.056
78238SOL    HW136611  14.192   4.741   9.100
78238SOL    HW236612  14.268   4.628   9.034
78239SOL     OW36613   3.746  10.342  13.626
78239SOL    HW136614   3.779  10.395  13.697
78239SOL    HW236615   3.670  10.297  13.663
78240SOL     OW36616  10.051  10.325   2.628
78240SOL    HW136617  10.100  10.407   2.637
78240SOL    HW236618  10.107  10.270   2.574
78241SOL     OW36619  13.482  13.128   6.228
78241SOL    HW136620  13.435  13.204   6.262
78241SOL    HW236621  13.482  13.140   6.133
78242SOL     OW36622  13.761  13.194   4.706
78242SOL    HW136623  13.752  13.174   4.800
78242SOL    HW236624  13.781  13.109   4.666
78243SOL     OW36625  10.958   4.828   4.677
78243SOL    HW136626  10.873   4.860   4.706
78243SOL    HW236627  11.017   4.903   4.687
78244SOL     OW36628  11.294   1.736  11.255
78244SOL    HW136629  11.234   1.778  11.193
78244SOL    HW236630  11.244   1.729  11.336
78245SOL     OW36631   3.564  11.158   1.940
78245SOL    HW136632   3.605  11.244   1.936
78245SOL    HW236633   3.635  11.098   1.963
78246SOL     OW36634   4.363  14.575  11.867
78246SOL    HW136635   4.432  14.547  11.928
78246SOL    HW236636   4.392  14.661  11.835
78247SOL     OW36637   0.412   4.255   6.272
78247SOL    HW136638   0.398   4.202   6.193
78247SOL    HW236639   0.413   4.345   6.239
78248SOL     OW36640  11.519   8.760   0.067
78248SOL    HW136641  11.454   8.829   0.060
78248SOL    HW236642  11.472   8.680   0.043
78249SOL     OW36643   6.654   4.923   4.573
78249SOL    HW136644   6.734   4.872   4.561
78249SOL    HW236645   6.674   4.984   4.644
78250SOL     OW36646  11.020   9.871   3.687
78250SOL    HW136647  11.087   9.914   3.740
78250SOL    HW236648  10.954   9.842   3.750
78251SOL     OW36649  13.522   6.776   6.461
78251SOL    HW136650  13.565   6.693   6.441
78251SOL    HW236651  13.438   6.751   6.500
78252SOL     OW36652  10.717   8.545   0.098
78252SOL    HW136653  10.791   8.499   0.137
78252SOL    HW236654  10.648   8.538   0.164
78253SOL     OW36655   5.407   6.244  10.847
78253SOL    HW136656   5.390   6.167  10.793
78253SOL    HW236657   5.467   6.214  10.915
78254SOL     OW36658   7.734   4.916   2.313
78254SOL    HW136659   7.700   4.859   2.244
78254SOL    HW236660   7.777   4.856   2.374
78255SOL     OW36661   4.501   4.048   1.495
78255SOL    HW136662   4.586   4.025   1.459
78255SOL    HW236663   4.442   4.049   1.420
78256SOL     OW36664   8.615  14.755  11.735
78256SOL    HW136665   8.601  14.744  11.829
78256SOL    HW236666   8.701  14.715  11.718
78257SOL     OW36667   1.911   8.844   8.174
78257SOL    HW136668   1.928   8.831   8.081
78257SOL    HW236669   1.868   8.764   8.202
78258SOL     OW36670   2.788   6.178  12.310
78258SOL    HW136671   2.869   6.137  12.340
78258SOL    HW236672   2.787   6.263  12.353
78259SOL     OW36673   0.950  10.110  12.313
78259SOL    HW136674   0.929  10.093  12.404
78259SOL    HW236675   1.040  10.144  12.314
78260SOL     OW36676   8.885   5.169  10.462
78260SOL    HW136677   8.938   5.176  10.542
78260SOL    HW236678   8.919   5.238  10.405
78261SOL     OW36679  14.367  13.241  13.974
78261SOL    HW136680  14.322  13.294  13.908
78261SOL    HW236681  14.459  13.242  13.947
78262SOL     OW36682  13.009   8.045  14.097
78262SOL    HW136683  13.101   8.063  14.117
78262SOL    HW236684  12.978   7.994  14.172
78263SOL     OW36685  13.121  13.189   1.158
78263SOL    HW136686  13.140  13.156   1.246
78263SOL    HW236687  13.056  13.258   1.172
78264SOL     OW36688  14.838   5.613   9.887
78264SOL    HW136689   0.039   5.577   9.917
78264SOL    HW236690  14.852   5.629   9.794
78265SOL     OW36691   0.402  10.781  14.596
78265SOL    HW136692   0.416  10.875  14.612
78265SOL    HW236693   0.481  10.753  14.549
78266SOL     OW36694   3.219   5.462   6.111
78266SOL    HW136695   3.251   5.552   6.125
78266SOL    HW236696   3.281   5.407   6.159
78267SOL     OW36697  14.070  10.025   6.955
78267SOL    HW136698  14.122  10.071   7.021
78267SOL    HW236699  14.007   9.974   7.007
78268SOL     OW36700   1.339   0.773  13.024
78268SOL    HW136701   1.307   0.809  13.106
78268SOL    HW236702   1.325   0.678  13.032
78269SOL     OW36703  13.300  13.437   4.673
78269SOL    HW136704  13.328  13.525   4.647
78269SOL    HW236705  13.378  13.399   4.714
78270SOL     OW36706   5.407   1.223  13.771
78270SOL    HW136707   5.498   1.213  13.745
78270SOL    HW236708   5.403   1.308  13.814
78271SOL     OW36709   6.245  13.410  10.068
78271SOL    HW136710   6.290  13.448  10.144
78271SOL    HW236711   6.314  13.369  10.017
78272SOL     OW36712   8.532   7.002   9.280
78272SOL    HW136713   8.484   7.078   9.311
78272SOL    HW236714   8.478   6.965   9.211
78273SOL     OW36715   9.514   5.594   0.015
78273SOL    HW136716   9.596   5.550  14.874
78273SOL    HW236717   9.450   5.524   0.024
78274SOL     OW36718  14.795  11.731   1.468
78274SOL    HW136719  14.703  11.742   1.442
78274SOL    HW236720  14.818  11.815   1.509
78275SOL     OW36721   9.741  10.491  11.497
78275SOL    HW136722   9.652  10.472  11.469
78275SOL    HW236723   9.797  10.450  11.430
78276SOL     OW36724   9.978  10.676   2.726
78276SOL    HW136725  10.047  10.611   2.738
78276SOL    HW236726   9.977  10.693   2.631
78277SOL     OW36727   2.370   6.279  13.001
78277SOL    HW136728   2.370   6.192  13.042
78277SOL    HW236729   2.278   6.305  13.000
78278SOL     OW36730  13.528   5.841   4.294
78278SOL    HW136731  13.448   5.882   4.327
78278SOL    HW236732  13.598   5.879   4.347
78279SOL     OW36733   5.404  11.896  12.830
78279SOL    HW136734   5.309  11.892  12.823
78279SOL    HW236735   5.430  11.957  12.760
78280SOL     OW36736  13.874  13.153   9.543
78280SOL    HW136737  13.780  13.173   9.543
78280SOL    HW236738  13.894  13.131   9.452
78281SOL     OW36739   4.156   3.595  14.555
78281SOL    HW136740   4.131   3.505  14.532
78281SOL    HW236741   4.084   3.627  14.609
78282SOL     OW36742   1.873  13.865   7.680
78282SOL    HW136743   1.942  13.863   7.747
78282SOL    HW236744   1.898  13.797   7.618
78283SOL     OW36745  10.670  13.712   0.242
78283SOL    HW136746  10.668  13.804   0.217
78283SOL    HW236747  10.584  13.696   0.281
78284SOL     OW36748  11.390   4.326   9.750
78284SOL    HW136749  11.304   4.368   9.748
78284SOL    HW236750  11.449   4.389   9.709
78285SOL     OW36751   0.441   4.446   2.135
78285SOL    HW136752   0.512   4.488   2.183
78285SOL    HW236753   0.435   4.358   2.173
78286SOL     OW36754   1.335   2.591   6.339
78286SOL    HW136755   1.384   2.513   6.367
78286SOL    HW236756   1.340   2.651   6.413
78287SOL     OW36757   7.187   7.204   7.379
78287SOL    HW136758   7.209   7.250   7.298
78287SOL    HW236759   7.099   7.233   7.400
78288SOL     OW36760   6.216   0.522   9.897
78288SOL    HW136761   6.259   0.549   9.979
78288SOL    HW236762   6.178   0.437   9.917
78289SOL     OW36763   7.403   6.854  14.530
78289SOL    HW136764   7.346   6.892  14.597
78289SOL    HW236765   7.404   6.760  14.551
78290SOL     OW36766  12.863   8.941  10.664
78290SOL    HW136767  12.841   8.848  10.671
78290SOL    HW236768  12.842   8.964  10.574
78291SOL     OW36769   0.822  13.082   1.387
78291SOL    HW136770   0.817  13.128   1.471
78291SOL    HW236771   0.841  12.991   1.412
78292SOL     OW36772   0.228   4.230   5.870
78292SOL    HW136773   0.139   4.202   5.891
78292SOL    HW236774   0.283   4.183   5.933
78293SOL     OW36775   2.611  14.277  10.052
78293SOL    HW136776   2.570  14.336   9.990
78293SOL    HW236777   2.705  14.297  10.047
78294SOL     OW36778   6.006   6.060  14.201
78294SOL    HW136779   5.995   6.005  14.279
78294SOL    HW236780   6.101   6.060  14.185
78295SOL     OW36781  10.148   0.794   7.603
78295SOL    HW136782  10.132   0.824   7.692
78295SOL    HW236783  10.153   0.875   7.551
78296SOL     OW36784  14.778   7.290   2.664
78296SOL    HW136785  14.857   7.341   2.648
78296SOL    HW236786  14.809   7.202   2.683
78297SOL     OW36787  14.298   6.721  10.686
78297SOL    HW136788  14.306   6.629  10.658
78297SOL    HW236789  14.227   6.720  10.750
78298SOL     OW36790  10.691   2.104  14.764
78298SOL    HW136791  10.665   2.180  14.816
78298SOL    HW236792  10.769   2.070  14.808
78299SOL     OW36793   3.106   3.537   8.806
78299SOL    HW136794   3.061   3.616   8.837
78299SOL    HW236795   3.152   3.504   8.883
78300SOL     OW36796  13.464   2.820   7.191
78300SOL    HW136797  13.424   2.733   7.187
78300SOL    HW236798  13.537   2.811   7.252
78301SOL     OW36799   3.446  10.348   8.022
78301SOL    HW136800   3.425  10.332   8.114
78301SOL    HW236801   3.489  10.433   8.021
78302SOL     OW36802  14.595   5.599   7.318
78302SOL    HW136803  14.646   5.543   7.260
78302SOL    HW236804  14.608   5.562   7.405
78303SOL     OW36805  11.054   4.812  11.134
78303SOL    HW136806  11.133   4.801  11.187
78303SOL    HW236807  11.050   4.906  11.116
78304SOL     OW36808   9.211  13.108   8.317
78304SOL    HW136809   9.237  13.085   8.406
78304SOL    HW236810   9.117  13.123   8.322
78305SOL     OW36811   5.092   6.516  12.087
78305SOL    HW136812   5.133   6.446  12.036
78305SOL    HW236813   5.025   6.552  12.030
78306SOL     OW36814  13.152  14.783  12.530
78306SOL    HW136815  13.057  14.782  12.519
78306SOL    HW236816  13.175  14.692  12.549
78307SOL     OW36817   2.507   7.736   8.463
78307SOL    HW136818   2.578   7.679   8.432
78307SOL    HW236819   2.522   7.744   8.557
78308SOL     OW36820   5.705   1.256   8.074
78308SOL    HW136821   5.796   1.285   8.078
78308SOL    HW236822   5.711   1.164   8.049
78309SOL     OW36823   7.513  11.982   0.103
78309SOL    HW136824   7.608  11.981   0.107
78309SOL    HW236825   7.492  12.003   0.012
78310SOL     OW36826  14.424   5.472  13.514
78310SOL    HW136827  14.395   5.423  13.437
78310SOL    HW236828  14.508   5.510  13.489
78311SOL     OW36829  12.031   7.528   9.248
78311SOL    HW136830  12.046   7.448   9.197
78311SOL    HW236831  11.948   7.562   9.217
78312SOL     OW36832   1.997   7.683   4.380
78312SOL    HW136833   1.961   7.600   4.411
78312SOL    HW236834   1.925   7.745   4.387
78313SOL     OW36835   6.991  12.033  11.547
78313SOL    HW136836   7.044  12.112  11.555
78313SOL    HW236837   7.041  11.965  11.593
78314SOL     OW36838   1.445   6.827  11.440
78314SOL    HW136839   1.429   6.793  11.352
78314SOL    HW236840   1.508   6.766  11.478
78315SOL     OW36841   2.518  10.528   6.216
78315SOL    HW136842   2.541  10.574   6.297
78315SOL    HW236843   2.434  10.486   6.235
78316SOL     OW36844  12.756   8.274  14.350
78316SOL    HW136845  12.802   8.260  14.267
78316SOL    HW236846  12.782   8.362  14.377
78317SOL     OW36847   7.157   9.238   0.324
78317SOL    HW136848   7.067   9.234   0.292
78317SOL    HW236849   7.193   9.151   0.309
78318SOL     OW36850  13.571   4.006   4.455
78318SOL    HW136851  13.582   3.958   4.536
78318SOL    HW236852  13.654   4.053   4.443
78319SOL     OW36853   9.794   6.306   2.582
78319SOL    HW136854   9.849   6.290   2.506
78319SOL    HW236855   9.851   6.352   2.644
78320SOL     OW36856  10.057  10.076   6.320
78320SOL    HW136857  10.029  10.030   6.241
78320SOL    HW236858  10.148  10.048   6.334
78321SOL     OW36859   4.877  12.689  13.029
78321SOL    HW136860   4.962  12.680  12.987
78321SOL    HW236861   4.823  12.620  12.990
78322SOL     OW36862   1.361   7.502   1.457
78322SOL    HW136863   1.402   7.416   1.453
78322SOL    HW236864   1.428   7.559   1.494
78323SOL     OW36865   4.038   0.061   4.952
78323SOL    HW136866   3.996   0.026   4.873
78323SOL    HW236867   3.966   0.074   5.013
78324SOL     OW36868   0.989   3.552   5.399
78324SOL    HW136869   0.995   3.631   5.344
78324SOL    HW236870   1.006   3.583   5.488
78325SOL     OW36871  12.258   4.845   5.945
78325SOL    HW136872  12.258   4.937   5.919
78325SOL    HW236873  12.170   4.814   5.926
78326SOL     OW36874   9.572   0.908   9.374
78326SOL    HW136875   9.548   0.951   9.456
78326SOL    HW236876   9.490   0.872   9.340
78327SOL     OW36877   2.104   0.523   1.638
78327SOL    HW136878   2.110   0.473   1.556
78327SOL    HW236879   2.012   0.514   1.664
78328SOL     OW36880   0.419   5.771  11.421
78328SOL    HW136881   0.450   5.689  11.460
78328SOL    HW236882   0.324   5.764  11.424
78329SOL     OW36883   1.017   5.288   0.568
78329SOL    HW136884   1.063   5.238   0.635
78329SOL    HW236885   1.085   5.336   0.521
78330SOL     OW36886   4.361   7.735   0.076
78330SOL    HW136887   4.389   7.728   0.168
78330SOL    HW236888   4.428   7.686   0.027
78331SOL     OW36889   5.685   1.295  11.247
78331SOL    HW136890   5.645   1.285  11.160
78331SOL    HW236891   5.646   1.375  11.282
78332SOL     OW36892   0.468   3.812   3.841
78332SOL    HW136893   0.377   3.801   3.814
78332SOL    HW236894   0.499   3.888   3.791
78333SOL     OW36895  13.952   9.110   5.790
78333SOL    HW136896  14.039   9.150   5.794
78333SOL    HW236897  13.964   9.024   5.830
78334SOL     OW36898   0.780  10.768  11.777
78334SOL    HW136899   0.843  10.735  11.841
78334SOL    HW236900   0.722  10.694  11.760
78335SOL     OW36901   8.839   9.475   5.275
78335SOL    HW136902   8.750   9.504   5.298
78335SOL    HW236903   8.895   9.517   5.341
78336SOL     OW36904  13.254   2.402  10.705
78336SOL    HW136905  13.309   2.352  10.645
78336SOL    HW236906  13.253   2.350  10.786
78337SOL     OW36907   9.197  11.508   7.113
78337SOL    HW136908   9.150  11.591   7.106
78337SOL    HW236909   9.200  11.490   7.207
78338SOL     OW36910   7.124  10.554   2.299
78338SOL    HW136911   7.056  10.488   2.310
78338SOL    HW236912   7.077  10.637   2.295
78339SOL     OW36913   3.626  10.891   8.474
78339SOL    HW136914   3.565  10.873   8.402
78339SOL    HW236915   3.589  10.843   8.548
78340SOL     OW36916   1.441   5.339   9.868
78340SOL    HW136917   1.456   5.431   9.891
78340SOL    HW236918   1.359   5.317   9.911
78341SOL     OW36919   2.024  14.439   1.488
78341SOL    HW136920   2.117  14.450   1.511
78341SOL    HW236921   2.019  14.463   1.396
78342SOL     OW36922   4.252   2.364   1.600
78342SOL    HW136923   4.272   2.457   1.607
78342SOL    HW236924   4.181   2.349   1.662
78343SOL     OW36925   9.531   9.928  13.277
78343SOL    HW136926   9.580   9.865  13.225
78343SOL    HW236927   9.543   9.898  13.368
78344SOL     OW36928   6.065  10.399   3.090
78344SOL    HW136929   6.147  10.366   3.053
78344SOL    HW236930   6.091  10.445   3.170
78345SOL     OW36931  11.792  12.482   0.975
78345SOL    HW136932  11.880  12.519   0.976
78345SOL    HW236933  11.791  12.423   1.051
78346SOL     OW36934   6.706   4.938   5.079
78346SOL    HW136935   6.779   4.999   5.091
78346SOL    HW236936   6.661   4.938   5.163
78347SOL     OW36937  13.830  10.534  13.148
78347SOL    HW136938  13.924  10.547  13.134
78347SOL    HW236939  13.812  10.580  13.230
78348SOL     OW36940   1.988   3.630   7.760
78348SOL    HW136941   2.020   3.699   7.702
78348SOL    HW236942   2.060   3.617   7.822
78349SOL     OW36943   4.910  12.633   8.326
78349SOL    HW136944   4.901  12.632   8.231
78349SOL    HW236945   4.963  12.711   8.345
78350SOL     OW36946  14.212   4.024   6.773
78350SOL    HW136947  14.305   4.028   6.797
78350SOL    HW236948  14.188   3.932   6.785
78351SOL     OW36949  10.386  12.847  12.270
78351SOL    HW136950  10.469  12.884  12.303
78351SOL    HW236951  10.326  12.856  12.344
78352SOL     OW36952   1.598   3.088   2.826
78352SOL    HW136953   1.688   3.120   2.828
78352SOL    HW236954   1.547   3.159   2.865
78353SOL     OW36955   4.912  14.823   0.814
78353SOL    HW136956   4.985  14.766   0.837
78353SOL    HW236957   4.948   0.004   0.752
78354SOL     OW36958   2.308   4.424   6.134
78354SOL    HW136959   2.228   4.447   6.087
78354SOL    HW236960   2.281   4.355   6.194
78355SOL     OW36961   1.078   3.161   3.695
78355SOL    HW136962   0.985   3.165   3.674
78355SOL    HW236963   1.086   3.089   3.758
78356SOL     OW36964   3.216   2.635   1.203
78356SOL    HW136965   3.270   2.611   1.127
78356SOL    HW236966   3.134   2.589   1.189
78357SOL     OW36967   3.260   5.807   2.152
78357SOL    HW136968   3.334   5.860   2.120
78357SOL    HW236969   3.263   5.727   2.099
78358SOL     OW36970  13.583   1.142  11.031
78358SOL    HW136971  13.532   1.205  11.083
78358SOL    HW236972  13.547   1.149  10.943
78359SOL     OW36973  12.871   1.996  14.847
78359SOL    HW136974  12.915   1.941  14.782
78359SOL    HW236975  12.935   2.064  14.869
78360SOL     OW36976  10.181   5.783   7.411
78360SOL    HW136977  10.243   5.750   7.345
78360SOL    HW236978  10.109   5.721   7.409
78361SOL     OW36979   2.237   8.469   7.275
78361SOL    HW136980   2.144   8.456   7.293
78361SOL    HW236981   2.260   8.397   7.215
78362SOL     OW36982   0.344  14.202   6.126
78362SOL    HW136983   0.377  14.244   6.047
78362SOL    HW236984   0.273  14.259   6.155
78363SOL     OW36985  10.199  12.896   8.182
78363SOL    HW136986  10.284  12.918   8.221
78363SOL    HW236987  10.187  12.803   8.202
78364SOL     OW36988   2.336   7.877  11.241
78364SOL    HW136989   2.357   7.838  11.156
78364SOL    HW236990   2.402   7.946  11.252
78365SOL     OW36991   3.681   0.231   5.278
78365SOL    HW136992   3.621   0.182   5.223
78365SOL    HW236993   3.648   0.321   5.276
78366SOL     OW36994  13.630   3.886   4.112
78366SOL    HW136995  13.693   3.849   4.175
78366SOL    HW236996  13.645   3.980   4.115
78367SOL     OW36997   4.250   9.932  12.481
78367SOL    HW136998   4.193   9.858  12.461
78367SOL    HW236999   4.275   9.918  12.573
78368SOL     OW37000   1.865  13.650   5.258
78368SOL    HW137001   1.825  13.570   5.225
78368SOL    HW237002   1.839  13.717   5.194
78369SOL     OW37003  14.634  13.248   7.908
78369SOL    HW137004  14.656  13.265   8.000
78369SOL    HW237005  14.706  13.288   7.859
78370SOL     OW37006  12.968   4.052   5.320
78370SOL    HW137007  13.008   4.134   5.290
78370SOL    HW237008  12.949   4.067   5.413
78371SOL     OW37009  10.888   2.236   8.148
78371SOL    HW137010  10.907   2.146   8.176
78371SOL    HW237011  10.806   2.258   8.191
78372SOL     OW37012  13.918   3.213  10.777
78372SOL    HW137013  13.862   3.174  10.844
78372SOL    HW237014  13.957   3.290  10.819
78373SOL     OW37015   2.642   7.044   6.412
78373SOL    HW137016   2.598   6.982   6.471
78373SOL    HW237017   2.702   6.989   6.361
78374SOL     OW37018   6.577   5.230   1.201
78374SOL    HW137019   6.587   5.317   1.241
78374SOL    HW237020   6.592   5.169   1.273
78375SOL     OW37021   7.584  11.287   8.010
78375SOL    HW137022   7.547  11.204   8.042
78375SOL    HW237023   7.556  11.292   7.919
78376SOL     OW37024   1.265   0.905  14.725
78376SOL    HW137025   1.299   0.840  14.664
78376SOL    HW237026   1.214   0.965  14.670
78377SOL     OW37027   0.062   2.679  12.163
78377SOL    HW137028   0.087   2.752  12.220
78377SOL    HW237029   0.043   2.719  12.079
78378SOL     OW37030   3.028  14.793   9.552
78378SOL    HW137031   3.058  14.750   9.472
78378SOL    HW237032   3.034   0.004   9.533
78379SOL     OW37033   2.144  10.879   8.311
78379SOL    HW137034   2.162  10.787   8.294
78379SOL    HW237035   2.164  10.924   8.229
78380SOL     OW37036   2.486  13.590   1.902
78380SOL    HW137037   2.469  13.497   1.920
78380SOL    HW237038   2.565  13.610   1.951
78381SOL     OW37039  14.225   7.385   5.494
78381SOL    HW137040  14.208   7.479   5.482
78381SOL    HW237041  14.160   7.357   5.557
78382SOL     OW37042   3.115   7.586  13.128
78382SOL    HW137043   3.174   7.661  13.140
78382SOL    HW237044   3.147   7.544  13.048
78383SOL     OW37045  11.951  12.149   4.796
78383SOL    HW137046  11.939  12.241   4.819
78383SOL    HW237047  11.940  12.146   4.701
78384SOL     OW37048  11.970   8.618  10.328
78384SOL    HW137049  11.914   8.561  10.276
78384SOL    HW237050  11.912   8.659  10.391
78385SOL     OW37051   9.468   2.494   2.124
78385SOL    HW137052   9.475   2.493   2.028
78385SOL    HW237053   9.448   2.403   2.147
78386SOL     OW37054   2.913  11.627   0.936
78386SOL    HW137055   2.839  11.672   0.895
78386SOL    HW237056   2.951  11.691   0.996
78387SOL     OW37057   7.245  13.262   7.797
78387SOL    HW137058   7.178  13.265   7.729
78387SOL    HW237059   7.280  13.351   7.801
78388SOL     OW37060   4.983   5.335   8.000
78388SOL    HW137061   4.993   5.240   8.011
78388SOL    HW237062   4.938   5.344   7.916
78389SOL     OW37063   0.856   6.627   4.745
78389SOL    HW137064   0.946   6.596   4.758
78389SOL    HW237065   0.802   6.548   4.754
78390SOL     OW37066   1.637  10.297  12.758
78390SOL    HW137067   1.680  10.317  12.841
78390SOL    HW237068   1.667  10.366  12.698
78391SOL     OW37069   5.634   6.400  12.289
78391SOL    HW137070   5.586   6.460  12.232
78391SOL    HW237071   5.568   6.365  12.348
78392SOL     OW37072   2.230   3.520  13.782
78392SOL    HW137073   2.215   3.611  13.758
78392SOL    HW237074   2.143   3.481  13.785
78393SOL     OW37075  11.005   4.438  11.949
78393SOL    HW137076  10.939   4.374  11.922
78393SOL    HW237077  11.048   4.464  11.868
78394SOL     OW37078   8.184  12.771  13.319
78394SOL    HW137079   8.197  12.756  13.226
78394SOL    HW237080   8.109  12.832  13.323
78395SOL     OW37081   5.222   5.667   3.802
78395SOL    HW137082   5.159   5.696   3.736
78395SOL    HW237083   5.167   5.634   3.874
78396SOL     OW37084  11.262  10.735  13.383
78396SOL    HW137085  11.239  10.704  13.296
78396SOL    HW237086  11.332  10.677  13.412
78397SOL     OW37087   6.874   8.555   5.005
78397SOL    HW137088   6.864   8.473   5.053
78397SOL    HW237089   6.849   8.623   5.067
78398SOL     OW37090   9.403  10.422  13.216
78398SOL    HW137091   9.369  10.495  13.269
78398SOL    HW237092   9.396  10.346  13.274
78399SOL     OW37093  14.614   2.232  10.243
78399SOL    HW137094  14.631   2.319  10.206
78399SOL    HW237095  14.698   2.186  10.236
78400SOL     OW37096   0.817   7.571  12.611
78400SOL    HW137097   0.738   7.620  12.588
78400SOL    HW237098   0.784   7.489  12.649
78401SOL     OW37099  14.266   9.757  13.786
78401SOL    HW137100  14.199   9.817  13.817
78401SOL    HW237101  14.331   9.812  13.743
78402SOL     OW37102   4.174   6.628  13.424
78402SOL    HW137103   4.248   6.683  13.398
78402SOL    HW237104   4.098   6.685  13.415
78403SOL     OW37105   2.689   6.565   9.319
78403SOL    HW137106   2.656   6.499   9.258
78403SOL    HW237107   2.771   6.528   9.352
78404SOL     OW37108  11.913   7.834   2.586
78404SOL    HW137109  11.826   7.806   2.614
78404SOL    HW237110  11.950   7.878   2.662
78405SOL     OW37111  10.100   8.057  14.414
78405SOL    HW137112  10.194   8.057  14.397
78405SOL    HW237113  10.065   8.123  14.355
78406SOL     OW37114   8.907   1.898  12.972
78406SOL    HW137115   8.868   1.835  12.911
78406SOL    HW237116   8.878   1.870  13.058
78407SOL     OW37117   8.761  14.265   2.171
78407SOL    HW137118   8.676  14.222   2.163
78407SOL    HW237119   8.795  14.266   2.081
78408SOL     OW37120   0.508   3.461   0.643
78408SOL    HW137121   0.492   3.367   0.654
78408SOL    HW237122   0.509   3.474   0.548
78409SOL     OW37123   7.958  14.860   4.058
78409SOL    HW137124   8.025  14.858   4.126
78409SOL    HW237125   7.987  14.797   3.993
78410SOL     OW37126   8.308   1.781  14.567
78410SOL    HW137127   8.387   1.788  14.513
78410SOL    HW237128   8.287   1.688  14.567
78411SOL     OW37129  11.153   1.544  10.209
78411SOL    HW137130  11.112   1.459  10.189
78411SOL    HW237131  11.217   1.524  10.278
78412SOL     OW37132   7.727   1.688  12.749
78412SOL    HW137133   7.786   1.762  12.737
78412SOL    HW237134   7.694   1.698  12.839
78413SOL     OW37135   8.382  13.223  13.036
78413SOL    HW137136   8.417  13.312  13.031
78413SOL    HW237137   8.451  13.168  13.000
78414SOL     OW37138   9.986   5.992   0.178
78414SOL    HW137139  10.033   6.075   0.189
78414SOL    HW237140  10.053   5.930   0.151
78415SOL     OW37141  10.165  11.263   3.382
78415SOL    HW137142  10.191  11.231   3.296
78415SOL    HW237143  10.241  11.312   3.413
78416SOL     OW37144  10.210   2.809  12.352
78416SOL    HW137145  10.176   2.771  12.434
78416SOL    HW237146  10.216   2.734  12.292
78417SOL     OW37147  13.288   7.488   2.494
78417SOL    HW137148  13.336   7.491   2.411
78417SOL    HW237149  13.233   7.410   2.488
78418SOL     OW37150   3.567  13.692  14.631
78418SOL    HW137151   3.507  13.671  14.702
78418SOL    HW237152   3.510  13.714  14.557
78419SOL     OW37153   1.122   4.450   1.243
78419SOL    HW137154   1.145   4.510   1.313
78419SOL    HW237155   1.194   4.386   1.241
78420SOL     OW37156  13.475   4.286   5.751
78420SOL    HW137157  13.427   4.251   5.826
78420SOL    HW237158  13.478   4.381   5.766
78421SOL     OW37159  12.657   8.415  12.553
78421SOL    HW137160  12.571   8.454  12.570
78421SOL    HW237161  12.690   8.462  12.477
78422SOL     OW37162   1.106   4.298  13.172
78422SOL    HW137163   1.068   4.236  13.109
78422SOL    HW237164   1.131   4.374  13.119
78423SOL     OW37165  13.234   3.048   2.600
78423SOL    HW137166  13.233   3.050   2.695
78423SOL    HW237167  13.290   2.975   2.577
78424SOL     OW37168  12.124  14.138   8.370
78424SOL    HW137169  12.100  14.139   8.277
78424SOL    HW237170  12.094  14.053   8.402
78425SOL     OW37171   1.736   3.473   3.617
78425SOL    HW137172   1.724   3.468   3.712
78425SOL    HW237173   1.816   3.526   3.606
78426SOL     OW37174  11.804  10.445   4.983
78426SOL    HW137175  11.831  10.524   4.936
78426SOL    HW237176  11.714  10.430   4.954
78427SOL     OW37177   0.865   5.313  10.969
78427SOL    HW137178   0.795   5.248  10.970
78427SOL    HW237179   0.863   5.353  11.056
78428SOL     OW37180   8.967   6.844  10.326
78428SOL    HW137181   9.038   6.905  10.345
78428SOL    HW237182   8.996   6.797  10.248
78429SOL     OW37183  11.143   0.439   4.017
78429SOL    HW137184  11.226   0.390   4.015
78429SOL    HW237185  11.137   0.479   3.930
78430SOL     OW37186   3.708   6.419   9.329
78430SOL    HW137187   3.681   6.350   9.268
78430SOL    HW237188   3.649   6.410   9.403
78431SOL     OW37189  10.181  11.094   9.105
78431SOL    HW137190  10.146  11.033   9.170
78431SOL    HW237191  10.107  11.149   9.080
78432SOL     OW37192  12.292   9.597   2.296
78432SOL    HW137193  12.276   9.521   2.240
78432SOL    HW237194  12.382   9.623   2.277
78433SOL     OW37195  13.089  13.638  10.721
78433SOL    HW137196  13.022  13.702  10.698
78433SOL    HW237197  13.165  13.662  10.668
78434SOL     OW37198  11.118   4.180   0.359
78434SOL    HW137199  11.145   4.248   0.298
78434SOL    HW237200  11.133   4.098   0.311
78435SOL     OW37201  13.842   0.138  13.132
78435SOL    HW137202  13.780   0.089  13.077
78435SOL    HW237203  13.828   0.103  13.220
78436SOL     OW37204   3.848   9.218  10.963
78436SOL    HW137205   3.857   9.227  11.058
78436SOL    HW237206   3.826   9.126  10.949
78437SOL     OW37207   1.068   6.032   5.819
78437SOL    HW137208   1.067   6.031   5.915
78437SOL    HW237209   1.124   6.106   5.796
78438SOL     OW37210  13.573   3.568   0.604
78438SOL    HW137211  13.570   3.526   0.518
78438SOL    HW237212  13.654   3.536   0.643
78439SOL     OW37213   5.678  10.949   9.417
78439SOL    HW137214   5.724  10.928   9.498
78439SOL    HW237215   5.748  10.975   9.356
78440SOL     OW37216  11.397   4.115  12.172
78440SOL    HW137217  11.311   4.144  12.138
78440SOL    HW237218  11.399   4.021  12.154
78441SOL     OW37219  13.035   1.085   8.932
78441SOL    HW137220  13.065   1.161   8.982
78441SOL    HW237221  13.097   1.079   8.859
78442SOL     OW37222   1.509   8.915   7.384
78442SOL    HW137223   1.578   8.894   7.322
78442SOL    HW237224   1.447   8.842   7.377
78443SOL     OW37225   6.668   4.105   3.135
78443SOL    HW137226   6.726   4.180   3.147
78443SOL    HW237227   6.659   4.067   3.222
78444SOL     OW37228  12.739   9.359   7.880
78444SOL    HW137229  12.713   9.337   7.790
78444SOL    HW237230  12.667   9.326   7.934
78445SOL     OW37231   1.625   5.442   0.783
78445SOL    HW137232   1.667   5.360   0.757
78445SOL    HW237233   1.668   5.509   0.730
78446SOL     OW37234   1.981   1.800   9.645
78446SOL    HW137235   1.903   1.772   9.596
78446SOL    HW237236   2.021   1.718   9.676
78447SOL     OW37237   5.064   5.772  11.125
78447SOL    HW137238   5.101   5.750  11.040
78447SOL    HW237239   5.044   5.688  11.165
78448SOL     OW37240   9.558   3.914   7.719
78448SOL    HW137241   9.595   3.993   7.680
78448SOL    HW237242   9.514   3.944   7.799
78449SOL     OW37243  10.313   1.133   3.982
78449SOL    HW137244  10.228   1.145   4.023
78449SOL    HW237245  10.357   1.068   4.037
78450SOL     OW37246  11.233   3.222  13.982
78450SOL    HW137247  11.316   3.181  13.956
78450SOL    HW237248  11.199   3.259  13.900
78451SOL     OW37249  10.730  14.692   4.121
78451SOL    HW137250  10.701  14.783   4.118
78451SOL    HW237251  10.742  14.668   4.029
78452SOL     OW37252   9.206   5.500  14.225
78452SOL    HW137253   9.177   5.586  14.196
78452SOL    HW237254   9.301   5.507  14.230
78453SOL     OW37255  14.634   1.641  12.997
78453SOL    HW137256  14.588   1.630  13.081
78453SOL    HW237257  14.589   1.713  12.954
78454SOL     OW37258   4.237  10.566   0.064
78454SOL    HW137259   4.292  10.492   0.035
78454SOL    HW237260   4.248  10.567   0.159
78455SOL     OW37261  14.506   4.632   5.537
78455SOL    HW137262  14.577   4.616   5.475
78455SOL    HW237263  14.464   4.547   5.549
78456SOL     OW37264   1.514   2.736   5.197
78456SOL    HW137265   1.549   2.773   5.116
78456SOL    HW237266   1.427   2.703   5.173
78457SOL     OW37267  10.754   7.388   8.436
78457SOL    HW137268  10.665   7.424   8.438
78457SOL    HW237269  10.802   7.438   8.501
78458SOL     OW37270  11.094   9.342   2.638
78458SOL    HW137271  11.186   9.317   2.648
78458SOL    HW237272  11.097   9.438   2.630
78459SOL     OW37273   6.926  11.133   0.996
78459SOL    HW137274   7.010  11.092   1.019
78459SOL    HW237275   6.929  11.142   0.901
78460SOL     OW37276   5.365   1.004  13.496
78460SOL    HW137277   5.292   1.051  13.535
78460SOL    HW237278   5.417   1.071  13.453
78461SOL     OW37279   2.484   6.163   7.834
78461SOL    HW137280   2.473   6.244   7.784
78461SOL    HW237281   2.577   6.161   7.856
78462SOL     OW37282  12.164   7.823   4.380
78462SOL    HW137283  12.173   7.867   4.465
78462SOL    HW237284  12.070   7.810   4.370
78463SOL     OW37285  14.612   0.998   0.282
78463SOL    HW137286  14.702   0.994   0.315
78463SOL    HW237287  14.600   0.916   0.234
78464SOL     OW37288   3.504  12.724   2.514
78464SOL    HW137289   3.594  12.716   2.484
78464SOL    HW237290   3.477  12.634   2.536
78465SOL     OW37291   9.680  13.688   9.997
78465SOL    HW137292   9.600  13.649   9.962
78465SOL    HW237293   9.741  13.614  10.007
78466SOL     OW37294  11.846   4.204   3.295
78466SOL    HW137295  11.863   4.185   3.203
78466SOL    HW237296  11.848   4.300   3.300
78467SOL     OW37297   5.754  10.102   4.705
78467SOL    HW137298   5.744  10.079   4.798
78467SOL    HW237299   5.682  10.162   4.687
78468SOL     OW37300   8.227   0.165   7.813
78468SOL    HW137301   8.245   0.071   7.805
78468SOL    HW237302   8.132   0.173   7.801
78469SOL     OW37303   9.580  14.234  14.587
78469SOL    HW137304   9.664  14.245  14.542
78469SOL    HW237305   9.528  14.309  14.560
78470SOL     OW37306   7.081   8.241  11.760
78470SOL    HW137307   7.040   8.161  11.793
78470SOL    HW237308   7.019   8.311  11.783
78471SOL     OW37309  11.056   5.076   8.963
78471SOL    HW137310  11.074   5.008   9.028
78471SOL    HW237311  11.106   5.152   8.993
78472SOL     OW37312   2.931   4.058  13.097
78472SOL    HW137313   2.940   3.999  13.171
78472SOL    HW237314   2.842   4.093  13.105
78473SOL     OW37315   2.648  11.512  12.134
78473SOL    HW137316   2.594  11.461  12.195
78473SOL    HW237317   2.656  11.598  12.176
78474SOL     OW37318  10.033   4.962   9.689
78474SOL    HW137319   9.954   4.915   9.716
78474SOL    HW237320  10.014   4.994   9.601
78475SOL     OW37321  14.377   6.998  10.732
78475SOL    HW137322  14.403   7.044  10.653
78475SOL    HW237323  14.361   6.908  10.704
78476SOL     OW37324   8.764  10.102   4.920
78476SOL    HW137325   8.851  10.098   4.879
78476SOL    HW237326   8.768  10.038   4.990
78477SOL     OW37327   8.041   4.379   6.342
78477SOL    HW137328   8.082   4.317   6.281
78477SOL    HW237329   7.957   4.338   6.364
78478SOL     OW37330   9.237  12.815  13.120
78478SOL    HW137331   9.270  12.876  13.054
78478SOL    HW237332   9.274  12.847  13.203
78479SOL     OW37333   5.606   8.899   2.185
78479SOL    HW137334   5.604   8.865   2.095
78479SOL    HW237335   5.697   8.926   2.198
78480SOL     OW37336  12.646   0.708  13.349
78480SOL    HW137337  12.667   0.691  13.441
78480SOL    HW237338  12.571   0.651  13.330
78481SOL     OW37339   9.665   9.516   6.699
78481SOL    HW137340   9.635   9.578   6.632
78481SOL    HW237341   9.612   9.537   6.776
78482SOL     OW37342  13.726  10.030  14.083
78482SOL    HW137343  13.639  10.000  14.057
78482SOL    HW237344  13.779   9.950  14.085
78483SOL     OW37345   7.862  12.690   0.990
78483SOL    HW137346   7.930  12.653   1.046
78483SOL    HW237347   7.881  12.784   0.989
78484SOL     OW37348   7.264   9.680  10.107
78484SOL    HW137349   7.319   9.753  10.135
78484SOL    HW237350   7.193   9.721  10.058
78485SOL     OW37351   1.282  12.580  11.555
78485SOL    HW137352   1.232  12.522  11.497
78485SOL    HW237353   1.306  12.654  11.499
78486SOL     OW37354   3.593   3.414   9.027
78486SOL    HW137355   3.621   3.322   9.026
78486SOL    HW237356   3.501   3.410   9.055
78487SOL     OW37357   4.728  14.554  12.305
78487SOL    HW137358   4.669  14.509  12.244
78487SOL    HW237359   4.736  14.642  12.269
78488SOL     OW37360   2.748  14.008   1.238
78488SOL    HW137361   2.696  13.928   1.235
78488SOL    HW237362   2.777  14.022   1.148
78489SOL     OW37363   9.258   4.172   0.530
78489SOL    HW137364   9.207   4.209   0.457
78489SOL    HW237365   9.194   4.124   0.582
78490SOL     OW37366   9.904   3.955   2.164
78490SOL    HW137367   9.959   4.030   2.185
78490SOL    HW237368   9.931   3.929   2.076
78491SOL     OW37369   4.066  10.070  12.354
78491SOL    HW137370   4.139  10.021  12.394
78491SOL    HW237371   4.058  10.148  12.409
78492SOL     OW37372   4.611   0.608   1.716
78492SOL    HW137373   4.671   0.534   1.729
78492SOL    HW237374   4.626   0.665   1.792
78493SOL     OW37375   2.925   8.493   7.429
78493SOL    HW137376   2.919   8.587   7.442
78493SOL    HW237377   2.939   8.457   7.517
78494SOL     OW37378  11.476  10.017  11.920
78494SOL    HW137379  11.533   9.945  11.893
78494SOL    HW237380  11.395   9.975  11.948
78495SOL     OW37381  14.812  13.730   7.380
78495SOL    HW137382  14.740  13.782   7.345
78495SOL    HW237383  14.869  13.793   7.422
78496SOL     OW37384   4.761  11.482   0.697
78496SOL    HW137385   4.818  11.407   0.716
78496SOL    HW237386   4.706  11.490   0.775
78497SOL     OW37387  14.067  10.420   5.268
78497SOL    HW137388  14.099  10.451   5.184
78497SOL    HW237389  14.078  10.494   5.328
78498SOL     OW37390  13.749  12.340   2.656
78498SOL    HW137391  13.742  12.266   2.596
78498SOL    HW237392  13.706  12.310   2.736
78499SOL     OW37393   3.135   8.547   5.846
78499SOL    HW137394   3.101   8.631   5.814
78499SOL    HW237395   3.079   8.526   5.920
78500SOL     OW37396   5.365  14.339  12.057
78500SOL    HW137397   5.456  14.345  12.087
78500SOL    HW237398   5.365  14.261  12.000
78501SOL     OW37399   9.548   3.348  14.481
78501SOL    HW137400   9.545   3.432  14.435
78501SOL    HW237401   9.456   3.326  14.498
78502SOL     OW37402  10.154   9.542  11.064
78502SOL    HW137403  10.124   9.479  10.998
78502SOL    HW237404  10.075   9.564  11.114
78503SOL     OW37405   1.711   4.267  14.771
78503SOL    HW137406   1.667   4.351  14.760
78503SOL    HW237407   1.753   4.274  14.857
78504SOL     OW37408   6.918   8.852  14.011
78504SOL    HW137409   6.936   8.774  13.958
78504SOL    HW237410   6.826   8.844  14.036
78505SOL     OW37411   9.416   4.727   3.114
78505SOL    HW137412   9.394   4.770   3.197
78505SOL    HW237413   9.345   4.665   3.100
78506SOL     OW37414  11.944   3.341   8.741
78506SOL    HW137415  11.974   3.250   8.750
78506SOL    HW237416  12.002   3.392   8.797
78507SOL     OW37417   7.414   6.157   9.122
78507SOL    HW137418   7.351   6.212   9.074
78507SOL    HW237419   7.434   6.207   9.201
78508SOL     OW37420   7.551   4.542   4.456
78508SOL    HW137421   7.529   4.521   4.365
78508SOL    HW237422   7.640   4.577   4.452
78509SOL     OW37423   8.375   1.727   8.659
78509SOL    HW137424   8.460   1.716   8.701
78509SOL    HW237425   8.356   1.820   8.668
78510SOL     OW37426   7.509   8.620   6.064
78510SOL    HW137427   7.421   8.598   6.096
78510SOL    HW237428   7.523   8.709   6.093
78511SOL     OW37429  11.141   0.119   0.841
78511SOL    HW137430  11.104   0.032   0.854
78511SOL    HW237431  11.076   0.178   0.878
78512SOL     OW37432   8.150   9.812  10.186
78512SOL    HW137433   8.236   9.854  10.177
78512SOL    HW237434   8.141   9.758  10.107
78513SOL     OW37435  10.994  10.437  14.676
78513SOL    HW137436  11.041  10.396  14.603
78513SOL    HW237437  11.028  10.527  14.678
78514SOL     OW37438   3.839   8.660   8.207
78514SOL    HW137439   3.917   8.689   8.158
78514SOL    HW237440   3.866   8.661   8.298
78515SOL     OW37441  10.351  10.942   8.600
78515SOL    HW137442  10.280  10.955   8.537
78515SOL    HW237443  10.371  11.030   8.632
78516SOL     OW37444   5.188   9.636  14.410
78516SOL    HW137445   5.278   9.631  14.376
78516SOL    HW237446   5.196   9.685  14.492
78517SOL     OW37447  13.839   3.359  12.679
78517SOL    HW137448  13.888   3.364  12.761
78517SOL    HW237449  13.876   3.284  12.633
78518SOL     OW37450  10.664  11.060  10.053
78518SOL    HW137451  10.750  11.022  10.075
78518SOL    HW237452  10.607  10.984  10.042
78519SOL     OW37453   1.423   5.005   7.549
78519SOL    HW137454   1.384   4.959   7.623
78519SOL    HW237455   1.408   5.098   7.568
78520SOL     OW37456   5.289   9.698  13.991
78520SOL    HW137457   5.246   9.656  13.916
78520SOL    HW237458   5.370   9.649  14.003
78521SOL     OW37459  14.309   3.771   4.266
78521SOL    HW137460  14.271   3.838   4.324
78521SOL    HW237461  14.296   3.806   4.178
78522SOL     OW37462   0.714  12.080  10.035
78522SOL    HW137463   0.783  12.016  10.024
78522SOL    HW237464   0.641  12.031  10.074
78523SOL     OW37465   8.514  14.632  13.392
78523SOL    HW137466   8.573  14.696  13.352
78523SOL    HW237467   8.432  14.679  13.403
78524SOL     OW37468  11.274   5.257   8.903
78524SOL    HW137469  11.307   5.341   8.934
78524SOL    HW237470  11.223   5.278   8.825
78525SOL     OW37471   1.908  11.993   8.129
78525SOL    HW137472   1.956  11.912   8.110
78525SOL    HW237473   1.967  12.063   8.101
78526SOL     OW37474  12.401   9.740   4.125
78526SOL    HW137475  12.325   9.694   4.162
78526SOL    HW237476  12.440   9.786   4.199
78527SOL     OW37477   3.549   1.833  12.378
78527SOL    HW137478   3.529   1.907  12.435
78527SOL    HW237479   3.607   1.778  12.430
78528SOL     OW37480   4.962   8.863   4.197
78528SOL    HW137481   4.942   8.847   4.289
78528SOL    HW237482   4.992   8.954   4.194
78529SOL     OW37483  12.199  10.617   4.336
78529SOL    HW137484  12.233  10.535   4.299
78529SOL    HW237485  12.106  10.617   4.312
78530SOL     OW37486   3.963   4.186   7.859
78530SOL    HW137487   4.027   4.121   7.831
78530SOL    HW237488   3.992   4.212   7.946
78531SOL     OW37489   7.370  11.103   3.621
78531SOL    HW137490   7.457  11.143   3.627
78531SOL    HW237491   7.386  11.009   3.626
78532SOL     OW37492   4.565   5.091  13.792
78532SOL    HW137493   4.507   5.017  13.810
78532SOL    HW237494   4.566   5.099  13.697
78533SOL     OW37495  11.601   3.076   6.777
78533SOL    HW137496  11.605   3.001   6.836
78533SOL    HW237497  11.578   3.150   6.833
78534SOL     OW37498   1.012  10.829  12.576
78534SOL    HW137499   0.923  10.808  12.605
78534SOL    HW237500   1.023  10.780  12.495
78535SOL     OW37501  11.256   3.589   6.391
78535SOL    HW137502  11.242   3.669   6.340
78535SOL    HW237503  11.172   3.543   6.386
78536SOL     OW37504   1.711   5.889   1.327
78536SOL    HW137505   1.682   5.977   1.303
78536SOL    HW237506   1.768   5.862   1.256
78537SOL     OW37507  12.968  13.873   3.743
78537SOL    HW137508  12.948  13.820   3.666
78537SOL    HW237509  12.958  13.963   3.714
78538SOL     OW37510   6.910   9.747   7.646
78538SOL    HW137511   6.962   9.674   7.611
78538SOL    HW237512   6.958   9.776   7.723
78539SOL     OW37513  10.493  10.631   0.112
78539SOL    HW137514  10.468  10.553   0.062
78539SOL    HW237515  10.414  10.654   0.161
78540SOL     OW37516   3.979   4.842   2.664
78540SOL    HW137517   4.067   4.827   2.631
78540SOL    HW237518   3.991   4.893   2.745
78541SOL     OW37519  10.944   1.125  12.127
78541SOL    HW137520  10.983   1.209  12.099
78541SOL    HW237521  10.964   1.065  12.055
78542SOL     OW37522   5.568   6.504  10.556
78542SOL    HW137523   5.519   6.570  10.508
78542SOL    HW237524   5.502   6.457  10.607
78543SOL     OW37525   4.497   5.900   4.832
78543SOL    HW137526   4.474   5.869   4.744
78543SOL    HW237527   4.449   5.842   4.891
78544SOL     OW37528  11.352  13.735   1.397
78544SOL    HW137529  11.389  13.783   1.322
78544SOL    HW237530  11.266  13.705   1.366
78545SOL     OW37531   2.814   0.373   0.923
78545SOL    HW137532   2.775   0.304   0.977
78545SOL    HW237533   2.888   0.404   0.976
78546SOL     OW37534   6.743  12.327   0.105
78546SOL    HW137535   6.765  12.344   0.197
78546SOL    HW237536   6.751  12.412   0.062
78547SOL     OW37537   0.236  14.797  13.911
78547SOL    HW137538   0.274  14.809  13.824
78547SOL    HW237539   0.262  14.709  13.936
78548SOL     OW37540   1.584   3.728   1.780
78548SOL    HW137541   1.539   3.796   1.829
78548SOL    HW237542   1.672   3.727   1.817
78549SOL     OW37543   3.320   3.031   6.148
78549SOL    HW137544   3.238   3.080   6.137
78549SOL    HW237545   3.321   3.008   6.241
78550SOL     OW37546   4.251   0.270   1.536
78550SOL    HW137547   4.232   0.272   1.630
78550SOL    HW237548   4.299   0.351   1.519
78551SOL     OW37549  11.443  13.397  14.836
78551SOL    HW137550  11.538  13.389  14.829
78551SOL    HW237551  11.419  13.461  14.769
78552SOL     OW37552   7.192   2.579   0.498
78552SOL    HW137553   7.135   2.584   0.574
78552SOL    HW237554   7.134   2.593   0.423
78553SOL     OW37555   8.495   2.871   3.707
78553SOL    HW137556   8.422   2.919   3.667
78553SOL    HW237557   8.481   2.881   3.801
78554SOL     OW37558  14.707  11.710   1.121
78554SOL    HW137559  14.624  11.678   1.157
78554SOL    HW237560  14.771  11.645   1.151
78555SOL     OW37561  13.468   8.772   5.777
78555SOL    HW137562  13.390   8.759   5.831
78555SOL    HW237563  13.441   8.747   5.689
78556SOL     OW37564   7.795   4.899   4.967
78556SOL    HW137565   7.764   4.987   4.986
78556SOL    HW237566   7.888   4.910   4.947
78557SOL     OW37567  11.918   8.596   1.212
78557SOL    HW137568  11.893   8.615   1.302
78557SOL    HW237569  11.879   8.510   1.193
78558SOL     OW37570   7.810   8.274  13.348
78558SOL    HW137571   7.827   8.179  13.349
78558SOL    HW237572   7.880   8.311  13.295
78559SOL     OW37573   4.071   4.879  13.680
78559SOL    HW137574   4.053   4.882  13.586
78559SOL    HW237575   3.997   4.925  13.720
78560SOL     OW37576   7.066   0.860   5.616
78560SOL    HW137577   7.141   0.843   5.560
78560SOL    HW237578   6.996   0.807   5.579
78561SOL     OW37579   8.195  12.784  11.836
78561SOL    HW137580   8.138  12.712  11.862
78561SOL    HW237581   8.139  12.862  11.838
78562SOL     OW37582  14.256   2.780   6.682
78562SOL    HW137583  14.182   2.836   6.658
78562SOL    HW237584  14.302   2.828   6.751
78563SOL     OW37585   1.776   7.180   4.422
78563SOL    HW137586   1.846   7.127   4.385
78563SOL    HW237587   1.810   7.269   4.423
78564SOL     OW37588   1.039   4.157   9.368
78564SOL    HW137589   1.023   4.120   9.281
78564SOL    HW237590   1.122   4.117   9.396
78565SOL     OW37591   1.471   0.446  12.476
78565SOL    HW137592   1.498   0.497  12.553
78565SOL    HW237593   1.547   0.391  12.456
78566SOL     OW37594   9.261  10.520   1.578
78566SOL    HW137595   9.309  10.544   1.499
78566SOL    HW237596   9.180  10.570   1.573
78567SOL     OW37597  10.546   1.653   4.394
78567SOL    HW137598  10.470   1.694   4.435
78567SOL    HW237599  10.592   1.610   4.466
78568SOL     OW37600   6.072  12.711   9.579
78568SOL    HW137601   6.145  12.771   9.594
78568SOL    HW237602   6.080  12.685   9.487
78569SOL     OW37603  14.798   3.255  10.456
78569SOL    HW137604  14.793   3.183  10.518
78569SOL    HW237605  14.776   3.333  10.508
78570SOL     OW37606  13.027   2.194  13.492
78570SOL    HW137607  12.952   2.135  13.502
78570SOL    HW237608  12.993   2.280  13.516
78571SOL     OW37609  13.527   2.189   2.902
78571SOL    HW137610  13.484   2.274   2.916
78571SOL    HW237611  13.463   2.138   2.851
78572SOL     OW37612  13.350   3.069   4.648
78572SOL    HW137613  13.287   3.009   4.689
78572SOL    HW237614  13.309   3.155   4.655
78573SOL     OW37615   6.321   0.883  10.315
78573SOL    HW137616   6.369   0.965  10.329
78573SOL    HW237617   6.273   0.896  10.234
78574SOL     OW37618   3.267   4.248   6.175
78574SOL    HW137619   3.293   4.322   6.119
78574SOL    HW237620   3.172   4.243   6.165
78575SOL     OW37621   5.298   8.590  12.954
78575SOL    HW137622   5.240   8.515  12.967
78575SOL    HW237623   5.384   8.550  12.939
78576SOL     OW37624   8.268   4.047   4.163
78576SOL    HW137625   8.292   4.136   4.189
78576SOL    HW237626   8.311   4.035   4.078
78577SOL     OW37627   5.837  13.909   2.940
78577SOL    HW137628   5.769  13.842   2.942
78577SOL    HW237629   5.790  13.991   2.958
78578SOL     OW37630  10.100   4.871  11.775
78578SOL    HW137631  10.155   4.881  11.697
78578SOL    HW237632  10.079   4.778  11.778
78579SOL     OW37633  11.855   6.978   8.148
78579SOL    HW137634  11.929   6.989   8.208
78579SOL    HW237635  11.800   7.055   8.163
78580SOL     OW37636   8.189   7.568   5.241
78580SOL    HW137637   8.275   7.566   5.199
78580SOL    HW237638   8.172   7.478   5.268
78581SOL     OW37639  13.518   0.593  12.129
78581SOL    HW137640  13.499   0.508  12.087
78581SOL    HW237641  13.569   0.641  12.063
78582SOL     OW37642  11.390   2.952   5.335
78582SOL    HW137643  11.404   2.876   5.392
78582SOL    HW237644  11.342   3.014   5.389
78583SOL     OW37645  11.252  14.558   8.946
78583SOL    HW137646  11.300  14.561   9.029
78583SOL    HW237647  11.238  14.650   8.923
78584SOL     OW37648  10.743   0.582  10.829
78584SOL    HW137649  10.837   0.564  10.832
78584SOL    HW237650  10.720   0.570  10.737
78585SOL     OW37651   6.009   9.613   2.028
78585SOL    HW137652   6.080   9.675   2.042
78585SOL    HW237653   5.929   9.663   2.044
78586SOL     OW37654   0.157   8.101   7.526
78586SOL    HW137655   0.124   8.046   7.596
78586SOL    HW237656   0.218   8.161   7.569
78587SOL     OW37657  14.468   7.688  14.215
78587SOL    HW137658  14.421   7.605  14.225
78587SOL    HW237659  14.418   7.736  14.150
78588SOL     OW37660  11.582   2.421  10.911
78588SOL    HW137661  11.669   2.383  10.925
78588SOL    HW237662  11.577   2.494  10.972
78589SOL     OW37663   0.083  14.100  12.269
78589SOL    HW137664   0.073  14.188  12.305
78589SOL    HW237665   0.172  14.098  12.234
78590SOL     OW37666  13.933   9.365   9.049
78590SOL    HW137667  13.953   9.449   9.091
78590SOL    HW237668  13.980   9.300   9.101
78591SOL     OW37669  12.367  12.686   2.811
78591SOL    HW137670  12.338  12.777   2.802
78591SOL    HW237671  12.286  12.636   2.822
78592SOL     OW37672   3.892  12.856   6.822
78592SOL    HW137673   3.910  12.837   6.914
78592SOL    HW237674   3.811  12.906   6.823
78593SOL     OW37675  11.134   0.263   1.869
78593SOL    HW137676  11.042   0.276   1.891
78593SOL    HW237677  11.159   0.183   1.914
78594SOL     OW37678   3.700   9.584   3.076
78594SOL    HW137679   3.659   9.606   3.160
78594SOL    HW237680   3.763   9.515   3.098
78595SOL     OW37681   1.430  11.272  12.774
78595SOL    HW137682   1.435  11.183  12.809
78595SOL    HW237683   1.458  11.328  12.847
78596SOL     OW37684   2.925  14.490   7.873
78596SOL    HW137685   2.942  14.399   7.897
78596SOL    HW237686   2.839  14.509   7.910
78597SOL     OW37687   1.962  10.264   2.465
78597SOL    HW137688   2.057  10.271   2.474
78597SOL    HW237689   1.945  10.280   2.373
78598SOL     OW37690   7.231  12.549   4.025
78598SOL    HW137691   7.173  12.591   4.089
78598SOL    HW237692   7.274  12.622   3.981
78599SOL     OW37693   2.341   1.835   0.736
78599SOL    HW137694   2.339   1.816   0.830
78599SOL    HW237695   2.249   1.846   0.712
78600SOL     OW37696   3.752   5.566   5.354
78600SOL    HW137697   3.830   5.519   5.326
78600SOL    HW237698   3.780   5.657   5.364
78601SOL     OW37699   8.141  11.745  12.392
78601SOL    HW137700   8.194  11.700  12.457
78601SOL    HW237701   8.086  11.676  12.355
78602SOL     OW37702   7.361  14.869  10.852
78602SOL    HW137703   7.405  14.786  10.834
78602SOL    HW237704   7.431   0.053  10.849
78603SOL     OW37705   0.224  11.156   0.812
78603SOL    HW137706   0.151  11.138   0.754
78603SOL    HW237707   0.302  11.133   0.761
78604SOL     OW37708   1.156   8.888   9.500
78604SOL    HW137709   1.160   8.793   9.507
78604SOL    HW237710   1.235   8.912   9.453
78605SOL     OW37711   9.044  12.894   1.920
78605SOL    HW137712   9.092  12.949   1.982
78605SOL    HW237713   8.956  12.889   1.957
78606SOL     OW37714   8.018  10.500  14.775
78606SOL    HW137715   8.040  10.456  14.693
78606SOL    HW237716   7.963  10.438  14.822
78607SOL     OW37717  13.194   9.960   3.910
78607SOL    HW137718  13.281   9.951   3.948
78607SOL    HW237719  13.199   9.912   3.827
78608SOL     OW37720   1.835  11.236   2.141
78608SOL    HW137721   1.898  11.252   2.212
78608SOL    HW237722   1.780  11.165   2.174
78609SOL     OW37723   4.747   6.856  13.628
78609SOL    HW137724   4.665   6.832  13.585
78609SOL    HW237725   4.816   6.822  13.570
78610SOL     OW37726   3.187   8.346   9.173
78610SOL    HW137727   3.142   8.313   9.095
78610SOL    HW237728   3.119   8.354   9.239
78611SOL     OW37729  13.502  10.121   6.757
78611SOL    HW137730  13.480  10.051   6.695
78611SOL    HW237731  13.527  10.195   6.702
78612SOL     OW37732   4.934   9.778  13.471
78612SOL    HW137733   4.947   9.778  13.376
78612SOL    HW237734   5.011   9.822  13.506
78613SOL     OW37735  12.161   3.552   6.205
78613SOL    HW137736  12.198   3.588   6.124
78613SOL    HW237737  12.071   3.584   6.207
78614SOL     OW37738  14.157   5.261   0.817
78614SOL    HW137739  14.184   5.206   0.890
78614SOL    HW237740  14.064   5.241   0.805
78615SOL     OW37741  13.393   0.277  10.414
78615SOL    HW137742  13.321   0.284  10.477
78615SOL    HW237743  13.387   0.355  10.360
78616SOL     OW37744   9.423   1.812   3.993
78616SOL    HW137745   9.436   1.882   3.928
78616SOL    HW237746   9.372   1.746   3.947
78617SOL     OW37747  13.505   6.900   3.973
78617SOL    HW137748  13.491   6.946   4.056
78617SOL    HW237749  13.513   6.808   3.998
78618SOL     OW37750   1.554  14.236   7.665
78618SOL    HW137751   1.506  14.190   7.734
78618SOL    HW237752   1.574  14.321   7.703
78619SOL     OW37753  14.249   8.919   7.289
78619SOL    HW137754  14.248   9.014   7.281
78619SOL    HW237755  14.275   8.888   7.202
78620SOL     OW37756   3.680   7.993   8.994
78620SOL    HW137757   3.691   8.061   8.928
78620SOL    HW237758   3.770   7.969   9.019
78621SOL     OW37759  10.565   8.192  11.783
78621SOL    HW137760  10.650   8.158  11.753
78621SOL    HW237761  10.556   8.277  11.738
78622SOL     OW37762   4.442  12.447   6.403
78622SOL    HW137763   4.453  12.494   6.320
78622SOL    HW237764   4.502  12.372   6.396
78623SOL     OW37765  11.199  11.951   7.485
78623SOL    HW137766  11.166  12.030   7.443
78623SOL    HW237767  11.200  11.885   7.415
78624SOL     OW37768  10.187   0.448   2.961
78624SOL    HW137769  10.193   0.441   3.056
78624SOL    HW237770  10.269   0.491   2.936
78625SOL     OW37771   1.363  14.849   8.013
78625SOL    HW137772   1.364  14.876   8.105
78625SOL    HW237773   1.406  14.763   8.012
78626SOL     OW37774   3.504  14.295   0.827
78626SOL    HW137775   3.417  14.263   0.805
78626SOL    HW237776   3.564  14.238   0.779
78627SOL     OW37777   9.326  14.280   6.219
78627SOL    HW137778   9.290  14.335   6.150
78627SOL    HW237779   9.406  14.243   6.181
78628SOL     OW37780   2.085  11.228   7.987
78628SOL    HW137781   1.998  11.189   7.989
78628SOL    HW237782   2.102  11.242   7.894
78629SOL     OW37783   4.129   3.038   5.773
78629SOL    HW137784   4.099   3.060   5.862
78629SOL    HW237785   4.115   3.117   5.722
78630SOL     OW37786   3.722  11.356  12.526
78630SOL    HW137787   3.726  11.394  12.613
78630SOL    HW237788   3.764  11.421  12.469
78631SOL     OW37789   9.169  11.206   0.488
78631SOL    HW137790   9.194  11.296   0.509
78631SOL    HW237791   9.079  11.212   0.456
78632SOL     OW37792  12.924   1.132   1.319
78632SOL    HW137793  12.892   1.053   1.276
78632SOL    HW237794  12.942   1.193   1.248
78633SOL     OW37795   0.741  12.189   2.414
78633SOL    HW137796   0.824  12.231   2.395
78633SOL    HW237797   0.675  12.250   2.381
78634SOL     OW37798  13.627   2.414   0.726
78634SOL    HW137799  13.577   2.421   0.807
78634SOL    HW237800  13.698   2.478   0.735
78635SOL     OW37801  10.551   6.309   0.714
78635SOL    HW137802  10.622   6.264   0.760
78635SOL    HW237803  10.573   6.298   0.621
78636SOL     OW37804   9.660  10.095  10.167
78636SOL    HW137805   9.723  10.137  10.107
78636SOL    HW237806   9.668  10.001  10.148
78637SOL     OW37807   7.401  11.619   6.738
78637SOL    HW137808   7.396  11.579   6.651
78637SOL    HW237809   7.310  11.625   6.767
78638SOL     OW37810  14.070   8.747  11.087
78638SOL    HW137811  14.097   8.803  11.014
78638SOL    HW237812  14.131   8.769  11.157
78639SOL     OW37813   5.004   9.805   9.311
78639SOL    HW137814   4.934   9.786   9.248
78639SOL    HW237815   5.020   9.721   9.354
78640SOL     OW37816   1.089   4.044  11.953
78640SOL    HW137817   1.110   4.064  12.044
78640SOL    HW237818   1.150   4.096  11.901
78641SOL     OW37819   4.533   4.085   5.254
78641SOL    HW137820   4.512   4.084   5.348
78641SOL    HW237821   4.602   4.151   5.246
78642SOL     OW37822  14.864  12.759  12.184
78642SOL    HW137823  14.864  12.776  12.089
78642SOL    HW237824   0.007  12.842  12.224
78643SOL     OW37825   6.652   2.525  10.289
78643SOL    HW137826   6.603   2.581  10.350
78643SOL    HW237827   6.612   2.541  10.204
78644SOL     OW37828   5.052   1.596   3.635
78644SOL    HW137829   5.075   1.520   3.583
78644SOL    HW237830   5.026   1.560   3.720
78645SOL     OW37831   7.116   5.271   6.447
78645SOL    HW137832   7.023   5.291   6.446
78645SOL    HW237833   7.139   5.268   6.540
78646SOL     OW37834  10.528   1.330  11.527
78646SOL    HW137835  10.623   1.324  11.543
78646SOL    HW237836  10.518   1.409  11.475
78647SOL     OW37837   2.817  13.775   6.335
78647SOL    HW137838   2.858  13.841   6.390
78647SOL    HW237839   2.887  13.745   6.277
78648SOL     OW37840   4.049   6.828  11.160
78648SOL    HW137841   3.999   6.910  11.165
78648SOL    HW237842   4.119   6.847  11.096
78649SOL     OW37843   0.729   7.585   0.843
78649SOL    HW137844   0.703   7.501   0.881
78649SOL    HW237845   0.656   7.644   0.864
78650SOL     OW37846   8.121  10.362   8.200
78650SOL    HW137847   8.202  10.329   8.239
78650SOL    HW237848   8.053  10.343   8.265
78651SOL     OW37849   1.481   3.317   3.814
78651SOL    HW137850   1.494   3.347   3.904
78651SOL    HW237851   1.480   3.221   3.821
78652SOL     OW37852   4.312   9.676  11.008
78652SOL    HW137853   4.240   9.649  11.065
78652SOL    HW237854   4.284   9.651  10.920
78653SOL     OW37855   3.985   8.268   2.362
78653SOL    HW137856   4.071   8.280   2.321
78653SOL    HW237857   4.005   8.242   2.452
78654SOL     OW37858   4.979   5.634   5.479
78654SOL    HW137859   5.021   5.673   5.402
78654SOL    HW237860   4.937   5.707   5.523
78655SOL     OW37861   7.416  10.449  14.735
78655SOL    HW137862   7.414  10.499  14.654
78655SOL    HW237863   7.477  10.497  14.791
78656SOL     OW37864   6.702  11.305   5.007
78656SOL    HW137865   6.690  11.317   5.101
78656SOL    HW237866   6.795  11.282   4.997
78657SOL     OW37867   2.946   3.406   7.515
78657SOL    HW137868   2.976   3.439   7.430
78657SOL    HW237869   2.887   3.474   7.547
78658SOL     OW37870   2.007   5.564   0.607
78658SOL    HW137871   2.058   5.645   0.614
78658SOL    HW237872   2.055   5.501   0.659
78659SOL     OW37873   0.096   0.853  12.531
78659SOL    HW137874   0.092   0.910  12.454
78659SOL    HW237875   0.161   0.895  12.587
78660SOL     OW37876   6.157  14.300   3.787
78660SOL    HW137877   6.073  14.297   3.832
78660SOL    HW237878   6.158  14.222   3.731
78661SOL     OW37879   4.048  12.863  12.890
78661SOL    HW137880   4.005  12.894  12.970
78661SOL    HW237881   4.014  12.919  12.821
78662SOL     OW37882  14.243   1.083  12.110
78662SOL    HW137883  14.160   1.075  12.063
78662SOL    HW237884  14.284   1.162  12.074
78663SOL     OW37885   5.571   8.513   9.056
78663SOL    HW137886   5.666   8.523   9.049
78663SOL    HW237887   5.556   8.419   9.045
78664SOL     OW37888   2.031  13.462   7.216
78664SOL    HW137889   2.117  13.478   7.254
78664SOL    HW237890   2.011  13.541   7.167
78665SOL     OW37891  14.794   2.356  14.545
78665SOL    HW137892  14.839   2.358  14.461
78665SOL    HW237893  14.812   2.441  14.584
78666SOL     OW37894  14.618   5.729  11.251
78666SOL    HW137895  14.547   5.666  11.244
78666SOL    HW237896  14.592   5.801  11.194
78667SOL     OW37897   8.792   3.309  10.893
78667SOL    HW137898   8.849   3.254  10.947
78667SOL    HW237899   8.853   3.358  10.837
78668SOL     OW37900   9.045  10.438   6.055
78668SOL    HW137901   8.991  10.364   6.028
78668SOL    HW237902   9.048  10.432   6.150
78669SOL     OW37903  12.702  12.724  14.032
78669SOL    HW137904  12.653  12.654  13.989
78669SOL    HW237905  12.776  12.680  14.073
78670SOL     OW37906   9.381   7.604   5.817
78670SOL    HW137907   9.392   7.624   5.723
78670SOL    HW237908   9.407   7.685   5.861
78671SOL     OW37909   2.798   6.010   5.247
78671SOL    HW137910   2.831   6.059   5.323
78671SOL    HW237911   2.819   6.066   5.172
78672SOL     OW37912  13.244   8.145   2.864
78672SOL    HW137913  13.216   8.235   2.849
78672SOL    HW237914  13.164   8.098   2.888
78673SOL     OW37915   8.831  11.987   4.884
78673SOL    HW137916   8.835  12.007   4.791
78673SOL    HW237917   8.829  12.073   4.927
78674SOL     OW37918   3.775  14.103  11.136
78674SOL    HW137919   3.748  14.138  11.221
78674SOL    HW237920   3.696  14.110  11.082
78675SOL     OW37921  11.396   5.672  13.979
78675SOL    HW137922  11.427   5.681  14.069
78675SOL    HW237923  11.451   5.604  13.941
78676SOL     OW37924  10.508   8.713   5.693
78676SOL    HW137925  10.494   8.635   5.639
78676SOL    HW237926  10.430   8.767   5.679
78677SOL     OW37927  12.828   8.865   7.306
78677SOL    HW137928  12.923   8.849   7.307
78677SOL    HW237929  12.797   8.819   7.228
78678SOL     OW37930   1.580   0.329  13.063
78678SOL    HW137931   1.615   0.395  13.003
78678SOL    HW237932   1.497   0.365  13.092
78679SOL     OW37933  10.629  13.398   4.122
78679SOL    HW137934  10.559  13.460   4.140
78679SOL    HW237935  10.584  13.315   4.103
78680SOL     OW37936   5.680   7.002   1.345
78680SOL    HW137937   5.653   6.974   1.432
78680SOL    HW237938   5.607   7.054   1.313
78681SOL     OW37939  12.236   3.587   4.668
78681SOL    HW137940  12.312   3.597   4.610
78681SOL    HW237941  12.193   3.673   4.666
78682SOL     OW37942  14.338  11.021   0.104
78682SOL    HW137943  14.306  10.945   0.151
78682SOL    HW237944  14.351  10.991   0.014
78683SOL     OW37945   9.563  14.500  11.299
78683SOL    HW137946   9.503  14.484  11.226
78683SOL    HW237947   9.600  14.586  11.282
78684SOL     OW37948   0.980   0.299  11.938
78684SOL    HW137949   1.004   0.371  11.879
78684SOL    HW237950   1.017   0.221  11.897
78685SOL     OW37951   2.241  13.080   3.570
78685SOL    HW137952   2.180  13.043   3.507
78685SOL    HW237953   2.295  13.141   3.518
78686SOL     OW37954  12.915   4.185  10.896
78686SOL    HW137955  12.839   4.242  10.892
78686SOL    HW237956  12.886   4.102  10.858
78687SOL     OW37957   4.241  11.731  13.412
78687SOL    HW137958   4.316  11.672  13.423
78687SOL    HW237959   4.269  11.814  13.451
78688SOL     OW37960   5.432  12.998   6.155
78688SOL    HW137961   5.389  12.934   6.212
78688SOL    HW237962   5.525  12.989   6.175
78689SOL     OW37963   1.510  12.058   0.850
78689SOL    HW137964   1.507  12.134   0.908
78689SOL    HW237965   1.445  12.076   0.783
78690SOL     OW37966  10.212   6.224   9.282
78690SOL    HW137967  10.217   6.275   9.201
78690SOL    HW237968  10.120   6.229   9.307
78691SOL     OW37969  14.471   6.389   9.846
78691SOL    HW137970  14.457   6.461   9.786
78691SOL    HW237971  14.556   6.407   9.886
78692SOL     OW37972   6.265  14.847   3.911
78692SOL    HW137973   6.279  14.753   3.900
78692SOL    HW237974   6.292  14.866   4.000
78693SOL     OW37975   3.242   4.190   3.859
78693SOL    HW137976   3.152   4.161   3.876
78693SOL    HW237977   3.242   4.215   3.767
78694SOL     OW37978   4.876  11.808  11.707
78694SOL    HW137979   4.908  11.767  11.627
78694SOL    HW237980   4.857  11.736  11.767
78695SOL     OW37981  11.269   4.564  12.663
78695SOL    HW137982  11.297   4.564  12.754
78695SOL    HW237983  11.198   4.499  12.659
78696SOL     OW37984   7.373   5.628   3.332
78696SOL    HW137985   7.310   5.674   3.277
78696SOL    HW237986   7.451   5.619   3.277
78697SOL     OW37987   2.129   7.546  10.155
78697SOL    HW137988   2.177   7.466  10.176
78697SOL    HW237989   2.054   7.517  10.104
78698SOL     OW37990   8.762   7.921   3.390
78698SOL    HW137991   8.733   7.947   3.477
78698SOL    HW237992   8.699   7.961   3.330
78699SOL     OW37993   3.882   8.217   7.186
78699SOL    HW137994   3.918   8.263   7.111
78699SOL    HW237995   3.937   8.139   7.196
78700SOL     OW37996   5.194   8.683   9.699
78700SOL    HW137997   5.272   8.636   9.727
78700SOL    HW237998   5.216   8.776   9.711
78701SOL     OW37999   5.485   2.283  14.614
78701SOL    HW138000   5.414   2.297  14.551
78701SOL    HW238001   5.533   2.209  14.578
78702SOL     OW38002   9.504  11.210   0.983
78702SOL    HW138003   9.411  11.231   0.992
78702SOL    HW238004   9.544  11.244   1.063
78703SOL     OW38005   1.254   7.965   4.973
78703SOL    HW138006   1.164   7.970   4.940
78703SOL    HW238007   1.272   7.871   4.979
78704SOL     OW38008  11.219   5.692   8.954
78704SOL    HW138009  11.227   5.736   8.870
78704SOL    HW238010  11.132   5.652   8.953
78705SOL     OW38011  10.926   2.386  13.714
78705SOL    HW138012  11.018   2.371  13.693
78705SOL    HW238013  10.899   2.454  13.653
78706SOL     OW38014  12.920  13.458   9.101
78706SOL    HW138015  12.922  13.363   9.113
78706SOL    HW238016  12.827  13.478   9.086
78707SOL     OW38017   9.566   2.414  12.434
78707SOL    HW138018   9.638   2.432  12.495
78707SOL    HW238019   9.572   2.320  12.417
78708SOL     OW38020  13.971   7.601   4.833
78708SOL    HW138021  13.877   7.582   4.837
78708SOL    HW238022  13.999   7.599   4.925
78709SOL     OW38023   4.679   6.156   5.312
78709SOL    HW138024   4.721   6.228   5.264
78709SOL    HW238025   4.586   6.166   5.292
78710SOL     OW38026  12.501   2.672   8.680
78710SOL    HW138027  12.556   2.621   8.739
78710SOL    HW238028  12.541   2.661   8.594
78711SOL     OW38029   9.913  12.705  12.586
78711SOL    HW138030   9.933  12.750  12.668
78711SOL    HW238031   9.984  12.731  12.527
78712SOL     OW38032   5.483  10.775   1.503
78712SOL    HW138033   5.421  10.821   1.558
78712SOL    HW238034   5.537  10.844   1.464
78713SOL     OW38035   0.146   4.769   6.819
78713SOL    HW138036   0.119   4.847   6.772
78713SOL    HW238037   0.218   4.798   6.876
78714SOL     OW38038   0.511   7.724   9.140
78714SOL    HW138039   0.522   7.810   9.179
78714SOL    HW238040   0.463   7.741   9.059
78715SOL     OW38041  13.371  12.732   9.847
78715SOL    HW138042  13.407  12.691   9.927
78715SOL    HW238043  13.304  12.792   9.879
78716SOL     OW38044  13.840  13.103   9.994
78716SOL    HW138045  13.908  13.035   9.986
78716SOL    HW238046  13.865  13.151  10.073
78717SOL     OW38047   6.423   3.311   9.384
78717SOL    HW138048   6.405   3.396   9.423
78717SOL    HW238049   6.517   3.297   9.399
78718SOL     OW38050   4.927   2.102   0.700
78718SOL    HW138051   5.003   2.106   0.642
78718SOL    HW238052   4.961   2.126   0.786
78719SOL     OW38053   0.177   3.530   7.023
78719SOL    HW138054   0.238   3.522   7.096
78719SOL    HW238055   0.156   3.439   6.999
78720SOL     OW38056   0.770  12.790  14.094
78720SOL    HW138057   0.728  12.831  14.019
78720SOL    HW238058   0.760  12.854  14.165
78721SOL     OW38059   8.143   3.564  14.145
78721SOL    HW138060   8.200   3.569  14.068
78721SOL    HW238061   8.204   3.558  14.219
78722SOL     OW38062   1.189   9.290   0.305
78722SOL    HW138063   1.114   9.342   0.277
78722SOL    HW238064   1.175   9.277   0.399
78723SOL     OW38065  10.059  12.153   9.520
78723SOL    HW138066  10.030  12.190   9.436
78723SOL    HW238067   9.988  12.174   9.581
78724SOL     OW38068  14.125   2.593  11.269
78724SOL    HW138069  14.130   2.663  11.333
78724SOL    HW238070  14.182   2.622  11.197
78725SOL     OW38071  13.634  11.262  13.789
78725SOL    HW138072  13.648  11.352  13.819
78725SOL    HW238073  13.700  11.210  13.835
78726SOL     OW38074   4.370   1.012   4.049
78726SOL    HW138075   4.465   1.017   4.042
78726SOL    HW238076   4.339   1.006   3.959
78727SOL     OW38077   7.383   7.410   9.983
78727SOL    HW138078   7.462   7.395  10.035
78727SOL    HW238079   7.316   7.434  10.046
78728SOL     OW38080   7.007   8.316   8.616
78728SOL    HW138081   6.952   8.263   8.675
78728SOL    HW238082   7.009   8.265   8.535
78729SOL     OW38083  13.531   8.343   1.811
78729SOL    HW138084  13.505   8.317   1.723
78729SOL    HW238085  13.625   8.361   1.804
78730SOL     OW38086   0.662  14.337   5.668
78730SOL    HW138087   0.728  14.315   5.734
78730SOL    HW238088   0.666  14.432   5.661
78731SOL     OW38089  10.934   1.948  14.088
78731SOL    HW138090  11.007   1.903  14.046
78731SOL    HW238091  10.860   1.932  14.031
78732SOL     OW38092   3.901  13.968   4.482
78732SOL    HW138093   3.927  13.888   4.437
78732SOL    HW238094   3.884  13.941   4.572
78733SOL     OW38095  14.521   7.009   1.684
78733SOL    HW138096  14.577   6.962   1.746
78733SOL    HW238097  14.469   7.067   1.738
78734SOL     OW38098   9.088   6.810   1.191
78734SOL    HW138099   9.010   6.857   1.218
78734SOL    HW238100   9.160   6.853   1.239
78735SOL     OW38101   6.070  10.782   6.208
78735SOL    HW138102   6.051  10.694   6.173
78735SOL    HW238103   6.025  10.784   6.292
78736SOL     OW38104  10.020  12.944   8.510
78736SOL    HW138105   9.989  12.870   8.562
78736SOL    HW238106  10.078  12.992   8.568
78737SOL     OW38107  12.716  10.341   9.712
78737SOL    HW138108  12.656  10.408   9.745
78737SOL    HW238109  12.683  10.259   9.749
78738SOL     OW38110   9.027   6.463  10.735
78738SOL    HW138111   8.979   6.485  10.656
78738SOL    HW238112   9.119   6.470  10.710
78739SOL     OW38113   6.741   6.927   2.515
78739SOL    HW138114   6.772   6.870   2.444
78739SOL    HW238115   6.700   7.001   2.470
78740SOL     OW38116   9.671  10.469   7.517
78740SOL    HW138117   9.614  10.494   7.590
78740SOL    HW238118   9.759  10.491   7.548
78741SOL     OW38119   7.128   3.039   8.888
78741SOL    HW138120   7.197   2.973   8.889
78741SOL    HW238121   7.130   3.075   8.800
78742SOL     OW38122  14.799   2.482   1.064
78742SOL    HW138123  14.872   2.538   1.094
78742SOL    HW238124  14.804   2.405   1.121
78743SOL     OW38125   6.968   2.121   4.392
78743SOL    HW138126   6.895   2.099   4.450
78743SOL    HW238127   7.031   2.050   4.404
78744SOL     OW38128  11.755   8.551  11.800
78744SOL    HW138129  11.802   8.613  11.854
78744SOL    HW238130  11.822   8.493  11.765
78745SOL     OW38131  13.808   4.256  11.101
78745SOL    HW138132  13.714   4.245  11.118
78745SOL    HW238133  13.836   4.321  11.166
78746SOL     OW38134   9.328  13.837  10.223
78746SOL    HW138135   9.377  13.777  10.280
78746SOL    HW238136   9.302  13.909  10.280
78747SOL     OW38137   3.814  12.501  13.747
78747SOL    HW138138   3.825  12.586  13.705
78747SOL    HW238139   3.815  12.521  13.841
78748SOL     OW38140   5.781  14.031   4.831
78748SOL    HW138141   5.857  13.973   4.823
78748SOL    HW238142   5.795  14.098   4.764
78749SOL     OW38143   2.595   2.841   2.346
78749SOL    HW138144   2.555   2.815   2.264
78749SOL    HW238145   2.689   2.832   2.331
78750SOL     OW38146   6.707   4.702   6.342
78750SOL    HW138147   6.723   4.772   6.406
78750SOL    HW238148   6.673   4.629   6.394
78751SOL     OW38149  12.201   7.680  10.486
78751SOL    HW138150  12.234   7.724  10.564
78751SOL    HW238151  12.113   7.716  10.474
78752SOL     OW38152   9.658   2.171   3.201
78752SOL    HW138153   9.620   2.229   3.267
78752SOL    HW238154   9.729   2.126   3.246
78753SOL     OW38155  12.825   1.667  12.506
78753SOL    HW138156  12.746   1.717  12.526
78753SOL    HW238157  12.897   1.723  12.536
78754SOL     OW38158  12.159  14.622   9.176
78754SOL    HW138159  12.175  14.706   9.217
78754SOL    HW238160  12.202  14.558   9.233
78755SOL     OW38161  10.668   8.988  14.820
78755SOL    HW138162  10.586   9.036  14.808
78755SOL    HW238163  10.646   8.919   0.001
78756SOL     OW38164   9.086   1.028   6.473
78756SOL    HW138165   9.178   1.004   6.485
78756SOL    HW238166   9.038   0.946   6.489
78757SOL     OW38167  12.620   2.119  13.263
78757SOL    HW138168  12.544   2.169  13.293
78757SOL    HW238169  12.662   2.089  13.343
78758SOL     OW38170   8.981   7.733  12.046
78758SOL    HW138171   8.896   7.731  12.002
78758SOL    HW238172   9.028   7.805  12.003
78759SOL     OW38173  10.317   4.949  12.766
78759SOL    HW138174  10.290   4.891  12.838
78759SOL    HW238175  10.409   4.967  12.784
78760SOL     OW38176   9.125   8.843  12.785
78760SOL    HW138177   9.046   8.850  12.731
78760SOL    HW238178   9.092   8.834  12.874
78761SOL     OW38179   0.146   5.968  13.704
78761SOL    HW138180   0.198   6.041  13.671
78761SOL    HW238181   0.104   5.931  13.626
78762SOL     OW38182   0.224  13.123   0.233
78762SOL    HW138183   0.274  13.052   0.193
78762SOL    HW238184   0.150  13.137   0.173
78763SOL     OW38185   3.256   1.027   9.322
78763SOL    HW138186   3.195   1.072   9.381
78763SOL    HW238187   3.201   0.968   9.271
78764SOL     OW38188   6.055   2.894  11.706
78764SOL    HW138189   6.076   2.809  11.665
78764SOL    HW238190   6.007   2.941  11.638
78765SOL     OW38191   1.562  12.813   6.085
78765SOL    HW138192   1.572  12.763   6.004
78765SOL    HW238193   1.491  12.770   6.132
78766SOL     OW38194  11.214   2.739   9.414
78766SOL    HW138195  11.259   2.823   9.408
78766SOL    HW238196  11.278   2.675   9.383
78767SOL     OW38197   6.298   8.803  13.502
78767SOL    HW138198   6.340   8.862  13.440
78767SOL    HW238199   6.305   8.716  13.461
78768SOL     OW38200  13.756  12.631  13.553
78768SOL    HW138201  13.753  12.576  13.474
78768SOL    HW238202  13.817  12.585  13.611
78769SOL     OW38203   4.352   6.893   8.246
78769SOL    HW138204   4.419   6.928   8.305
78769SOL    HW238205   4.393   6.816   8.206
78770SOL     OW38206   9.882   6.013   3.246
78770SOL    HW138207   9.828   5.946   3.205
78770SOL    HW238208   9.957   6.023   3.187
78771SOL     OW38209   7.143   5.743  13.899
78771SOL    HW138210   7.163   5.752  13.806
78771SOL    HW238211   7.199   5.671  13.929
78772SOL     OW38212  11.463   3.888   7.382
78772SOL    HW138213  11.510   3.960   7.341
78772SOL    HW238214  11.521   3.812   7.371
78773SOL     OW38215   7.464  11.266   0.785
78773SOL    HW138216   7.408  11.202   0.741
78773SOL    HW238217   7.494  11.323   0.714
78774SOL     OW38218  10.053   2.053  11.899
78774SOL    HW138219   9.990   2.028  11.966
78774SOL    HW238220  10.008   2.037  11.816
78775SOL     OW38221   7.743  10.340   0.839
78775SOL    HW138222   7.769  10.249   0.856
78775SOL    HW238223   7.817  10.378   0.792
78776SOL     OW38224   7.985   6.167  10.052
78776SOL    HW138225   7.922   6.105  10.089
78776SOL    HW238226   7.973   6.247  10.102
78777SOL     OW38227   0.824  11.105  13.260
78777SOL    HW138228   0.910  11.072  13.237
78777SOL    HW238229   0.774  11.027  13.285
78778SOL     OW38230  13.997   3.428   3.738
78778SOL    HW138231  13.958   3.505   3.696
78778SOL    HW238232  13.993   3.448   3.832
78779SOL     OW38233   7.680  10.570  14.158
78779SOL    HW138234   7.755  10.525  14.195
78779SOL    HW238235   7.632  10.503  14.110
78780SOL     OW38236  13.932   9.810  12.082
78780SOL    HW138237  13.954   9.762  12.002
78780SOL    HW238238  13.842   9.786  12.100
78781SOL     OW38239   7.980  14.813   4.780
78781SOL    HW138240   7.923  14.773   4.845
78781SOL    HW238241   7.938   0.015   4.760
78782SOL     OW38242   8.724  14.089   0.972
78782SOL    HW138243   8.654  14.077   0.908
78782SOL    HW238244   8.752  14.000   0.993
78783SOL     OW38245   1.857   3.684  12.142
78783SOL    HW138246   1.838   3.599  12.181
78783SOL    HW238247   1.905   3.732  12.209
78784SOL     OW38248  10.584   6.770   6.050
78784SOL    HW138249  10.494   6.748   6.076
78784SOL    HW238250  10.577   6.855   6.007
78785SOL     OW38251  13.405  11.203   0.857
78785SOL    HW138252  13.420  11.114   0.827
78785SOL    HW238253  13.484  11.225   0.907
78786SOL     OW38254   6.020  13.008   6.139
78786SOL    HW138255   6.017  12.930   6.195
78786SOL    HW238256   6.040  13.080   6.198
78787SOL     OW38257   6.545   0.564   7.544
78787SOL    HW138258   6.498   0.604   7.471
78787SOL    HW238259   6.638   0.578   7.523
78788SOL     OW38260  14.155   9.487  13.535
78788SOL    HW138261  14.244   9.472  13.566
78788SOL    HW238262  14.145   9.582  13.535
78789SOL     OW38263  13.091   2.794   4.665
78789SOL    HW138264  13.113   2.734   4.736
78789SOL    HW238265  12.996   2.786   4.655
78790SOL     OW38266   1.892   7.791   3.259
78790SOL    HW138267   1.849   7.710   3.286
78790SOL    HW238268   1.985   7.775   3.272
78791SOL     OW38269   8.277  12.659   1.659
78791SOL    HW138270   8.359  12.699   1.630
78791SOL    HW238271   8.289  12.646   1.753
78792SOL     OW38272   2.132  11.160   8.934
78792SOL    HW138273   2.091  11.238   8.971
78792SOL    HW238274   2.199  11.135   8.998
78793SOL     OW38275  14.417   7.440   6.051
78793SOL    HW138276  14.430   7.361   6.103
78793SOL    HW238277  14.486   7.437   5.985
78794SOL     OW38278   7.234  13.754   9.279
78794SOL    HW138279   7.314  13.805   9.285
78794SOL    HW238280   7.195  13.780   9.196
78795SOL     OW38281   5.985   9.466   1.774
78795SOL    HW138282   5.992   9.504   1.862
78795SOL    HW238283   6.040   9.523   1.720
78796SOL     OW38284   2.814   9.816   9.656
78796SOL    HW138285   2.849   9.878   9.719
78796SOL    HW238286   2.802   9.868   9.576
78797SOL     OW38287   0.914  11.503   1.096
78797SOL    HW138288   0.856  11.428   1.087
78797SOL    HW238289   0.856  11.579   1.099
78798SOL     OW38290   5.873   3.687   9.425
78798SOL    HW138291   5.859   3.593   9.437
78798SOL    HW238292   5.938   3.710   9.492
78799SOL     OW38293  12.499   5.288   4.334
78799SOL    HW138294  12.499   5.231   4.258
78799SOL    HW238295  12.440   5.246   4.396
78800SOL     OW38296  12.249   8.291   7.413
78800SOL    HW138297  12.332   8.297   7.366
78800SOL    HW238298  12.196   8.229   7.361
78801SOL     OW38299   2.500   7.872   7.987
78801SOL    HW138300   2.505   7.781   7.958
78801SOL    HW238301   2.409   7.884   8.016
78802SOL     OW38302   7.484   3.420   8.828
78802SOL    HW138303   7.522   3.333   8.837
78802SOL    HW238304   7.445   3.438   8.914
78803SOL     OW38305   1.730   6.263   3.623
78803SOL    HW138306   1.776   6.289   3.702
78803SOL    HW238307   1.688   6.343   3.592
78804SOL     OW38308  12.493   9.017  13.425
78804SOL    HW138309  12.459   9.104  13.403
78804SOL    HW238310  12.434   8.957  13.380
78805SOL     OW38311   7.170   6.755  12.732
78805SOL    HW138312   7.257   6.771  12.694
78805SOL    HW238313   7.120   6.834  12.711
78806SOL     OW38314   2.649   7.792   4.680
78806SOL    HW138315   2.655   7.743   4.598
78806SOL    HW238316   2.738   7.821   4.697
78807SOL     OW38317  10.761   2.256   5.000
78807SOL    HW138318  10.773   2.193   5.072
78807SOL    HW238319  10.672   2.287   5.010
78808SOL     OW38320   2.023  10.341  13.828
78808SOL    HW138321   2.065  10.425  13.810
78808SOL    HW238322   1.933  10.353  13.799
78809SOL     OW38323   3.811   2.300   3.543
78809SOL    HW138324   3.736   2.244   3.522
78809SOL    HW238325   3.885   2.257   3.500
78810SOL     OW38326   6.049   6.524  10.913
78810SOL    HW138327   6.060   6.611  10.873
78810SOL    HW238328   6.133   6.508  10.956
78811SOL     OW38329  14.809  11.504  10.341
78811SOL    HW138330  14.806  11.465  10.428
78811SOL    HW238331  14.776  11.436  10.283
78812SOL     OW38332   9.837  10.958   1.418
78812SOL    HW138333   9.877  10.876   1.447
78812SOL    HW238334   9.800  10.938   1.332
78813SOL     OW38335   6.885   8.192  13.375
78813SOL    HW138336   6.859   8.213  13.465
78813SOL    HW238337   6.980   8.179  13.380
78814SOL     OW38338   2.612   6.350   8.988
78814SOL    HW138339   2.576   6.366   9.074
78814SOL    HW238340   2.612   6.436   8.945
78815SOL     OW38341  12.170  11.742   4.788
78815SOL    HW138342  12.120  11.695   4.721
78815SOL    HW238343  12.259  11.745   4.755
78816SOL     OW38344   7.787   9.552   0.152
78816SOL    HW138345   7.881   9.572   0.152
78816SOL    HW238346   7.748   9.624   0.103
78817SOL     OW38347   9.787   1.837   2.229
78817SOL    HW138348   9.712   1.799   2.275
78817SOL    HW238349   9.857   1.772   2.239
78818SOL     OW38350  11.472  12.146  13.738
78818SOL    HW138351  11.413  12.191  13.799
78818SOL    HW238352  11.549  12.202  13.733
78819SOL     OW38353  13.835   0.645  12.433
78819SOL    HW138354  13.743   0.671  12.438
78819SOL    HW238355  13.854   0.609  12.520
78820SOL     OW38356  14.745   8.845   4.205
78820SOL    HW138357  14.655   8.835   4.236
78820SOL    HW238358  14.740   8.913   4.137
78821SOL     OW38359   7.296  14.651   2.598
78821SOL    HW138360   7.370  14.644   2.658
78821SOL    HW238361   7.262  14.739   2.612
78822SOL     OW38362  10.183   8.637  12.508
78822SOL    HW138363  10.259   8.612  12.560
78822SOL    HW238364  10.169   8.564  12.448
78823SOL     OW38365   4.101   4.955   2.386
78823SOL    HW138366   4.189   4.929   2.411
78823SOL    HW238367   4.114   5.007   2.306
78824SOL     OW38368   3.877   9.365  10.164
78824SOL    HW138369   3.955   9.419  10.174
78824SOL    HW238370   3.875   9.311  10.243
78825SOL     OW38371   5.366  11.052   7.653
78825SOL    HW138372   5.277  11.017   7.661
78825SOL    HW238373   5.368  11.126   7.713
78826SOL     OW38374  10.246   7.178   9.503
78826SOL    HW138375  10.224   7.086   9.520
78826SOL    HW238376  10.177   7.208   9.443
78827SOL     OW38377   6.101  14.397  10.261
78827SOL    HW138378   6.175  14.342  10.288
78827SOL    HW238379   6.129  14.486  10.282
78828SOL     OW38380   4.584   3.311  12.144
78828SOL    HW138381   4.604   3.337  12.234
78828SOL    HW238382   4.607   3.388  12.092
78829SOL     OW38383   0.989   7.456   2.847
78829SOL    HW138384   1.006   7.503   2.928
78829SOL    HW238385   1.049   7.382   2.848
78830SOL     OW38386   9.208  11.215   0.185
78830SOL    HW138387   9.202  11.159   0.108
78830SOL    HW238388   9.301  11.215   0.206
78831SOL     OW38389  12.686   8.888   6.386
78831SOL    HW138390  12.687   8.832   6.464
78831SOL    HW238391  12.778   8.893   6.360
78832SOL     OW38392   3.483   6.635  12.471
78832SOL    HW138393   3.465   6.541  12.481
78832SOL    HW238394   3.397   6.676  12.479
78833SOL     OW38395   0.096   8.784  11.582
78833SOL    HW138396   0.138   8.846  11.523
78833SOL    HW238397   0.105   8.699  11.538
78834SOL     OW38398   7.602   4.691   5.221
78834SOL    HW138399   7.665   4.749   5.177
78834SOL    HW238400   7.629   4.603   5.196
78835SOL     OW38401   7.901   0.507   3.259
78835SOL    HW138402   7.919   0.502   3.165
78835SOL    HW238403   7.924   0.597   3.283
78836SOL     OW38404   3.534   2.906   9.340
78836SOL    HW138405   3.519   2.858   9.258
78836SOL    HW238406   3.599   2.972   9.317
78837SOL     OW38407   5.919  12.875   1.061
78837SOL    HW138408   5.899  12.870   1.154
78837SOL    HW238409   5.846  12.925   1.023
78838SOL     OW38410  13.788  14.018   2.289
78838SOL    HW138411  13.846  14.069   2.346
78838SOL    HW238412  13.727  14.083   2.254
78839SOL     OW38413  13.382   7.338   6.184
78839SOL    HW138414  13.433   7.350   6.264
78839SOL    HW238415  13.409   7.252   6.151
78840SOL     OW38416   4.804   8.434   3.591
78840SOL    HW138417   4.746   8.412   3.664
78840SOL    HW238418   4.746   8.447   3.516
78841SOL     OW38419  11.310  11.431   9.854
78841SOL    HW138420  11.274  11.484   9.783
78841SOL    HW238421  11.348  11.355   9.810
78842SOL     OW38422   8.308   8.398  13.893
78842SOL    HW138423   8.357   8.463  13.943
78842SOL    HW238424   8.366   8.376  13.819
78843SOL     OW38425   1.419  10.701  10.074
78843SOL    HW138426   1.462  10.665   9.997
78843SOL    HW238427   1.336  10.737  10.041
78844SOL     OW38428   5.159   8.857   3.960
78844SOL    HW138429   5.110   8.933   3.992
78844SOL    HW238430   5.233   8.848   4.021
78845SOL     OW38431   4.478   2.089   5.924
78845SOL    HW138432   4.551   2.142   5.893
78845SOL    HW238433   4.481   2.009   5.871
78846SOL     OW38434  13.127   4.752   7.408
78846SOL    HW138435  13.043   4.797   7.420
78846SOL    HW238436  13.191   4.811   7.449
78847SOL     OW38437   0.564   6.403   8.760
78847SOL    HW138438   0.632   6.362   8.708
78847SOL    HW238439   0.503   6.333   8.781
78848SOL     OW38440   8.768   7.292   0.392
78848SOL    HW138441   8.805   7.244   0.318
78848SOL    HW238442   8.835   7.288   0.460
78849SOL     OW38443   9.601   6.347   2.827
78849SOL    HW138444   9.645   6.262   2.822
78849SOL    HW238445   9.645   6.401   2.762
78850SOL     OW38446   1.864   5.896   0.619
78850SOL    HW138447   1.831   5.861   0.537
78850SOL    HW238448   1.928   5.962   0.593
78851SOL     OW38449   2.305   2.549   7.371
78851SOL    HW138450   2.262   2.466   7.392
78851SOL    HW238451   2.264   2.613   7.429
78852SOL     OW38452   1.991  11.240   5.453
78852SOL    HW138453   1.929  11.294   5.501
78852SOL    HW238454   2.054  11.211   5.519
78853SOL     OW38455  10.753   8.854  11.091
78853SOL    HW138456  10.790   8.788  11.149
78853SOL    HW238457  10.689   8.806  11.037
78854SOL     OW38458  14.554   9.222   3.417
78854SOL    HW138459  14.508   9.306   3.425
78854SOL    HW238460  14.636   9.244   3.373
78855SOL     OW38461  10.523   0.585   0.584
78855SOL    HW138462  10.553   0.673   0.609
78855SOL    HW238463  10.590   0.553   0.524
78856SOL     OW38464   2.328   2.232  13.121
78856SOL    HW138465   2.325   2.263  13.031
78856SOL    HW238466   2.237   2.212  13.143
78857SOL     OW38467   8.197  12.300   1.858
78857SOL    HW138468   8.287  12.275   1.882
78857SOL    HW238469   8.169  12.231   1.798
78858SOL     OW38470  12.634   4.744  13.559
78858SOL    HW138471  12.592   4.808  13.618
78858SOL    HW238472  12.682   4.686  13.617
78859SOL     OW38473  13.106   5.439  14.240
78859SOL    HW138474  13.089   5.427  14.334
78859SOL    HW238475  13.032   5.397  14.197
78860SOL     OW38476  10.073   2.646   8.581
78860SOL    HW138477  10.096   2.680   8.667
78860SOL    HW238478  10.100   2.714   8.520
78861SOL     OW38479   0.090  10.112   4.696
78861SOL    HW138480   0.061  10.130   4.607
78861SOL    HW238481   0.057  10.186   4.747
78862SOL     OW38482   1.863   9.069  11.469
78862SOL    HW138483   1.883   8.993  11.414
78862SOL    HW238484   1.832   9.136  11.409
78863SOL     OW38485  12.667   1.631   0.342
78863SOL    HW138486  12.723   1.695   0.386
78863SOL    HW238487  12.620   1.681   0.276
78864SOL     OW38488   6.736   5.640  13.100
78864SOL    HW138489   6.651   5.659  13.139
78864SOL    HW238490   6.765   5.723  13.063
78865SOL     OW38491   9.611  12.822   0.089
78865SOL    HW138492   9.671  12.806   0.162
78865SOL    HW238493   9.668  12.839   0.014
78866SOL     OW38494  13.926   9.100   0.075
78866SOL    HW138495  13.947   9.072  14.868
78866SOL    HW238496  13.896   9.020   0.118
78867SOL     OW38497  10.286   2.164  12.691
78867SOL    HW138498  10.194   2.140  12.692
78867SOL    HW238499  10.293   2.239  12.751
78868SOL     OW38500   0.025   8.178   1.779
78868SOL    HW138501   0.027   8.194   1.684
78868SOL    HW238502  14.873   8.089   1.787
78869SOL     OW38503  14.232   5.778   2.356
78869SOL    HW138504  14.185   5.696   2.339
78869SOL    HW238505  14.183   5.819   2.427
78870SOL     OW38506   7.591   0.501   7.363
78870SOL    HW138507   7.533   0.496   7.440
78870SOL    HW238508   7.644   0.422   7.369
78871SOL     OW38509  10.440   0.294  13.337
78871SOL    HW138510  10.439   0.357  13.265
78871SOL    HW238511  10.442   0.347  13.416
78872SOL     OW38512   9.207   9.188   1.328
78872SOL    HW138513   9.199   9.224   1.416
78872SOL    HW238514   9.138   9.232   1.278
78873SOL     OW38515   7.362   1.400   4.390
78873SOL    HW138516   7.370   1.312   4.428
78873SOL    HW238517   7.304   1.388   4.315
78874SOL     OW38518  10.074   7.053   2.014
78874SOL    HW138519  10.018   7.099   2.077
78874SOL    HW238520  10.162   7.066   2.047
78875SOL     OW38521  11.495  14.346   5.431
78875SOL    HW138522  11.421  14.375   5.377
78875SOL    HW238523  11.517  14.423   5.484
78876SOL     OW38524   4.747   8.867   1.998
78876SOL    HW138525   4.804   8.797   1.965
78876SOL    HW238526   4.780   8.947   1.958
78877SOL     OW38527   0.335   2.955  11.799
78877SOL    HW138528   0.261   3.008  11.828
78877SOL    HW238529   0.335   2.879  11.856
78878SOL     OW38530   5.790   9.321   6.536
78878SOL    HW138531   5.820   9.353   6.452
78878SOL    HW238532   5.714   9.266   6.515
78879SOL     OW38533   6.287   6.104  11.287
78879SOL    HW138534   6.366   6.155  11.307
78879SOL    HW238535   6.309   6.015  11.315
78880SOL     OW38536   6.347   3.480   1.597
78880SOL    HW138537   6.380   3.553   1.650
78880SOL    HW238538   6.353   3.512   1.507
78881SOL     OW38539  13.331   6.303   7.764
78881SOL    HW138540  13.299   6.248   7.692
78881SOL    HW238541  13.393   6.362   7.723
78882SOL     OW38542   1.821   3.165   8.091
78882SOL    HW138543   1.916   3.151   8.096
78882SOL    HW238544   1.791   3.102   8.026
78883SOL     OW38545   0.827   7.298  14.093
78883SOL    HW138546   0.856   7.226  14.150
78883SOL    HW238547   0.856   7.271  14.005
78884SOL     OW38548   3.673   3.885  10.312
78884SOL    HW138549   3.685   3.913  10.403
78884SOL    HW238550   3.747   3.922  10.265
78885SOL     OW38551  11.569   7.123   2.163
78885SOL    HW138552  11.535   7.212   2.152
78885SOL    HW238553  11.509   7.081   2.224
78886SOL     OW38554   5.150  11.186  14.057
78886SOL    HW138555   5.190  11.268  14.085
78886SOL    HW238556   5.060  11.210  14.035
78887SOL     OW38557  14.734   5.402   0.678
78887SOL    HW138558  14.756   5.481   0.629
78887SOL    HW238559  14.817   5.373   0.715
78888SOL     OW38560   7.540   7.798   8.429
78888SOL    HW138561   7.472   7.777   8.365
78888SOL    HW238562   7.507   7.761   8.511
78889SOL     OW38563   3.698  13.065  10.615
78889SOL    HW138564   3.658  13.076  10.702
78889SOL    HW238565   3.663  12.982  10.583
78890SOL     OW38566   2.323  11.793   0.623
78890SOL    HW138567   2.383  11.746   0.681
78890SOL    HW238568   2.262  11.838   0.682
78891SOL     OW38569  10.342   6.676   9.613
78891SOL    HW138570  10.268   6.661   9.672
78891SOL    HW238571  10.396   6.742   9.659
78892SOL     OW38572   4.075   2.914  10.281
78892SOL    HW138573   3.988   2.955  10.281
78892SOL    HW238574   4.116   2.944  10.200
78893SOL     OW38575  11.114   8.123  13.230
78893SOL    HW138576  11.115   8.198  13.290
78893SOL    HW238577  11.057   8.059  13.273
78894SOL     OW38578   0.225  11.915   0.450
78894SOL    HW138579   0.312  11.874   0.442
78894SOL    HW238580   0.239  11.989   0.509
78895SOL     OW38581  13.058  11.704   9.067
78895SOL    HW138582  13.100  11.619   9.082
78895SOL    HW238583  13.061  11.716   8.972
78896SOL     OW38584  12.700   3.554  14.074
78896SOL    HW138585  12.702   3.649  14.063
78896SOL    HW238586  12.653   3.540  14.155
78897SOL     OW38587  14.411   2.054   0.835
78897SOL    HW138588  14.364   1.979   0.869
78897SOL    HW238589  14.443   2.101   0.912
78898SOL     OW38590  10.372   8.411   6.815
78898SOL    HW138591  10.404   8.361   6.741
78898SOL    HW238592  10.433   8.484   6.823
78899SOL     OW38593   3.918   1.135  11.142
78899SOL    HW138594   3.932   1.054  11.190
78899SOL    HW238595   3.916   1.203  11.210
78900SOL     OW38596   2.991  10.816   5.178
78900SOL    HW138597   3.058  10.884   5.188
78900SOL    HW238598   2.913  10.854   5.218
78901SOL     OW38599   8.051   3.658   2.811
78901SOL    HW138600   8.008   3.732   2.856
78901SOL    HW238601   8.022   3.665   2.721
78902SOL     OW38602   4.422  11.888  12.646
78902SOL    HW138603   4.496  11.829  12.630
78902SOL    HW238604   4.387  11.906  12.559
78903SOL     OW38605   8.472   0.771   8.266
78903SOL    HW138606   8.563   0.770   8.295
78903SOL    HW238607   8.471   0.719   8.186
78904SOL     OW38608   0.393   5.038   0.351
78904SOL    HW138609   0.437   5.092   0.285
78904SOL    HW238610   0.464   4.992   0.395
78905SOL     OW38611   3.763  14.145  10.453
78905SOL    HW138612   3.778  14.089  10.529
78905SOL    HW238613   3.850  14.156  10.414
78906SOL     OW38614   9.712  13.380   3.021
78906SOL    HW138615   9.630  13.417   3.052
78906SOL    HW238616   9.695  13.355   2.930
78907SOL     OW38617   4.493   0.350   5.508
78907SOL    HW138618   4.435   0.337   5.433
78907SOL    HW238619   4.581   0.336   5.473
78908SOL     OW38620  14.316  13.074  10.786
78908SOL    HW138621  14.292  12.994  10.739
78908SOL    HW238622  14.349  13.043  10.870
78909SOL     OW38623  14.540   8.074  10.675
78909SOL    HW138624  14.473   8.106  10.736
78909SOL    HW238625  14.599   8.149  10.663
78910SOL     OW38626  13.140  10.512  10.027
78910SOL    HW138627  13.118  10.503   9.934
78910SOL    HW238628  13.235  10.528  10.028
78911SOL     OW38629   2.724   5.042  13.728
78911SOL    HW138630   2.807   5.000  13.750
78911SOL    HW238631   2.714   5.028  13.634
78912SOL     OW38632  10.898   2.450   1.193
78912SOL    HW138633  10.804   2.453   1.212
78912SOL    HW238634  10.930   2.537   1.215
78913SOL     OW38635   4.372   0.335  14.550
78913SOL    HW138636   4.423   0.285  14.485
78913SOL    HW238637   4.334   0.407  14.500
78914SOL     OW38638   3.081   5.792  11.932
78914SOL    HW138639   2.992   5.829  11.929
78914SOL    HW238640   3.068   5.698  11.926
78915SOL     OW38641  12.515  11.297   3.397
78915SOL    HW138642  12.580  11.296   3.468
78915SOL    HW238643  12.433  11.273   3.439
78916SOL     OW38644  11.701   6.365   3.095
78916SOL    HW138645  11.752   6.395   3.020
78916SOL    HW238646  11.669   6.446   3.136
78917SOL     OW38647   5.896   9.145   7.034
78917SOL    HW138648   5.823   9.095   6.999
78917SOL    HW238649   5.862   9.183   7.115
78918SOL     OW38650   9.800  12.285   2.147
78918SOL    HW138651   9.763  12.204   2.182
78918SOL    HW238652   9.724  12.340   2.129
78919SOL     OW38653  12.059   1.549   2.766
78919SOL    HW138654  12.081   1.539   2.673
78919SOL    HW238655  12.057   1.644   2.779
78920SOL     OW38656  12.172  12.195  14.658
78920SOL    HW138657  12.149  12.103  14.670
78920SOL    HW238658  12.223  12.196  14.577
78921SOL     OW38659   5.875  12.195  13.826
78921SOL    HW138660   5.895  12.219  13.736
78921SOL    HW238661   5.943  12.132  13.850
78922SOL     OW38662  11.839   3.633   8.971
78922SOL    HW138663  11.887   3.678   8.901
78922SOL    HW238664  11.904   3.574   9.009
78923SOL     OW38665  14.239   8.759  13.351
78923SOL    HW138666  14.304   8.775  13.420
78923SOL    HW238667  14.170   8.823  13.369
78924SOL     OW38668   5.743   1.398   7.664
78924SOL    HW138669   5.697   1.410   7.747
78924SOL    HW238670   5.677   1.362   7.605
78925SOL     OW38671   4.056  10.612   2.972
78925SOL    HW138672   4.076  10.523   2.999
78925SOL    HW238673   4.112  10.668   3.026
78926SOL     OW38674   8.578   3.489   6.505
78926SOL    HW138675   8.491   3.474   6.541
78926SOL    HW238676   8.625   3.535   6.574
78927SOL     OW38677  13.829  14.473   1.161
78927SOL    HW138678  13.813  14.412   1.233
78927SOL    HW238679  13.907  14.438   1.117
78928SOL     OW38680   7.678   4.492   0.796
78928SOL    HW138681   7.731   4.462   0.723
78928SOL    HW238682   7.733   4.557   0.841
78929SOL     OW38683  12.004   3.243  13.416
78929SOL    HW138684  12.086   3.286  13.393
78929SOL    HW238685  11.944   3.264  13.344
78930SOL     OW38686   2.501   8.656  14.429
78930SOL    HW138687   2.408   8.670  14.445
78930SOL    HW238688   2.506   8.574  14.381
78931SOL     OW38689   4.476   6.931   2.343
78931SOL    HW138690   4.432   6.876   2.277
78931SOL    HW238691   4.569   6.924   2.321
78932SOL     OW38692  14.322  11.682   2.618
78932SOL    HW138693  14.372  11.741   2.675
78932SOL    HW238694  14.272  11.740   2.561
78933SOL     OW38695  13.657   1.858  10.406
78933SOL    HW138696  13.635   1.886  10.318
78933SOL    HW238697  13.681   1.939  10.452
78934SOL     OW38698  10.663   9.321  11.316
78934SOL    HW138699  10.649   9.227  11.313
78934SOL    HW238700  10.722   9.339  11.242
78935SOL     OW38701   3.778   4.047   9.275
78935SOL    HW138702   3.815   3.969   9.315
78935SOL    HW238703   3.842   4.073   9.208
78936SOL     OW38704   2.380   2.995   0.308
78936SOL    HW138705   2.297   3.028   0.274
78936SOL    HW238706   2.445   3.058   0.277
78937SOL     OW38707  11.542  12.036   5.796
78937SOL    HW138708  11.457  12.009   5.832
78937SOL    HW238709  11.605  12.014   5.865
78938SOL     OW38710   7.780   2.514   3.549
78938SOL    HW138711   7.798   2.547   3.461
78938SOL    HW238712   7.862   2.471   3.575
78939SOL     OW38713   2.924   3.963  11.655
78939SOL    HW138714   2.942   4.052  11.626
78939SOL    HW238715   2.902   3.915  11.575
78940SOL     OW38716   8.650   5.621  12.565
78940SOL    HW138717   8.672   5.603  12.656
78940SOL    HW238718   8.672   5.540  12.519
78941SOL     OW38719   0.434   8.880  11.999
78941SOL    HW138720   0.370   8.942  12.034
78941SOL    HW238721   0.415   8.876  11.906
78942SOL     OW38722  12.981  12.689  11.552
78942SOL    HW138723  12.991  12.783  11.539
78942SOL    HW238724  12.929  12.660  11.476
78943SOL     OW38725  13.548   8.666   1.366
78943SOL    HW138726  13.502   8.749   1.358
78943SOL    HW238727  13.525   8.618   1.286
78944SOL     OW38728  12.486   2.088  10.010
78944SOL    HW138729  12.527   2.032   9.943
78944SOL    HW238730  12.397   2.054  10.019
78945SOL     OW38731   2.233   9.440   7.096
78945SOL    HW138732   2.266   9.365   7.144
78945SOL    HW238733   2.299   9.508   7.109
78946SOL     OW38734   2.889   5.836  10.742
78946SOL    HW138735   2.889   5.783  10.822
78946SOL    HW238736   2.801   5.874  10.739
78947SOL     OW38737   2.933   0.392  11.708
78947SOL    HW138738   2.972   0.386  11.621
78947SOL    HW238739   2.873   0.317  11.713
78948SOL     OW38740   8.956   4.219   1.807
78948SOL    HW138741   8.939   4.183   1.720
78948SOL    HW238742   9.016   4.158   1.848
78949SOL     OW38743   8.253  13.940  11.562
78949SOL    HW138744   8.182  13.981  11.511
78949SOL    HW238745   8.283  13.868  11.507
78950SOL     OW38746   8.721   1.622   3.349
78950SOL    HW138747   8.626   1.624   3.338
78950SOL    HW238748   8.741   1.701   3.400
78951SOL     OW38749   0.679   6.654   3.152
78951SOL    HW138750   0.738   6.722   3.185
78951SOL    HW238751   0.594   6.675   3.192
78952SOL     OW38752  13.740   9.677   0.730
78952SOL    HW138753  13.661   9.624   0.741
78952SOL    HW238754  13.809   9.614   0.710
78953SOL     OW38755   7.160   8.882   0.397
78953SOL    HW138756   7.182   8.937   0.322
78953SOL    HW238757   7.215   8.916   0.468
78954SOL     OW38758  10.720   6.555   6.558
78954SOL    HW138759  10.674   6.481   6.599
78954SOL    HW238760  10.781   6.514   6.497
78955SOL     OW38761  13.189   7.473   4.555
78955SOL    HW138762  13.221   7.562   4.536
78955SOL    HW238763  13.251   7.439   4.619
78956SOL     OW38764  10.686   4.355   9.838
78956SOL    HW138765  10.675   4.262   9.860
78956SOL    HW238766  10.781   4.366   9.829
78957SOL     OW38767  14.860   2.011   1.653
78957SOL    HW138768   0.015   2.019   1.741
78957SOL    HW238769  14.768   1.990   1.668
78958SOL     OW38770   4.153  10.743   0.750
78958SOL    HW138771   4.072  10.755   0.701
78958SOL    HW238772   4.221  10.784   0.696
78959SOL     OW38773   5.385  11.215   4.284
78959SOL    HW138774   5.478  11.194   4.294
78959SOL    HW238775   5.374  11.233   4.190
78960SOL     OW38776   3.722   5.032  13.279
78960SOL    HW138777   3.732   5.015  13.373
78960SOL    HW238778   3.787   4.976  13.237
78961SOL     OW38779   2.061   6.277  11.035
78961SOL    HW138780   1.967   6.271  11.018
78961SOL    HW238781   2.098   6.197  10.997
78962SOL     OW38782   9.016  11.899   9.254
78962SOL    HW138783   9.041  11.853   9.173
78962SOL    HW238784   8.928  11.932   9.236
78963SOL     OW38785  11.245  10.269   3.609
78963SOL    HW138786  11.232  10.205   3.539
78963SOL    HW238787  11.340  10.278   3.616
78964SOL     OW38788   9.046   4.303   4.223
78964SOL    HW138789   8.984   4.362   4.180
78964SOL    HW238790   9.025   4.311   4.316
78965SOL     OW38791   4.260  14.523   8.157
78965SOL    HW138792   4.235  14.607   8.194
78965SOL    HW238793   4.242  14.531   8.064
78966SOL     OW38794   8.397   9.623   5.663
78966SOL    HW138795   8.452   9.667   5.728
78966SOL    HW238796   8.308   9.635   5.696
78967SOL     OW38797  11.970   8.236  12.253
78967SOL    HW138798  11.992   8.281  12.334
78967SOL    HW238799  11.883   8.268  12.230
78968SOL     OW38800   7.489   9.484  11.998
78968SOL    HW138801   7.442   9.438  12.067
78968SOL    HW238802   7.561   9.528  12.043
78969SOL     OW38803   9.259   0.215  11.938
78969SOL    HW138804   9.215   0.146  11.989
78969SOL    HW238805   9.299   0.271  12.004
78970SOL     OW38806  13.595   0.142   9.538
78970SOL    HW138807  13.545   0.168   9.615
78970SOL    HW238808  13.546   0.176   9.464
78971SOL     OW38809   0.255   6.481  10.451
78971SOL    HW138810   0.344   6.516  10.457
78971SOL    HW238811   0.267   6.391  10.420
78972SOL     OW38812   8.178  13.738   3.398
78972SOL    HW138813   8.124  13.816   3.379
78972SOL    HW238814   8.129  13.665   3.360
78973SOL     OW38815   8.804  10.233   6.954
78973SOL    HW138816   8.712  10.232   6.926
78973SOL    HW238817   8.801  10.216   7.048
78974SOL     OW38818   0.821   8.813   8.679
78974SOL    HW138819   0.804   8.814   8.585
78974SOL    HW238820   0.889   8.879   8.693
78975SOL     OW38821  13.784   7.927   0.280
78975SOL    HW138822  13.854   7.991   0.268
78975SOL    HW238823  13.789   7.870   0.204
78976SOL     OW38824   8.807   0.882   4.200
78976SOL    HW138825   8.716   0.860   4.219
78976SOL    HW238826   8.824   0.844   4.114
78977SOL     OW38827  12.784  10.531   8.747
78977SOL    HW138828  12.808  10.443   8.716
78977SOL    HW238829  12.798  10.528   8.841
78978SOL     OW38830   8.235  12.622   4.600
78978SOL    HW138831   8.145  12.592   4.614
78978SOL    HW238832   8.243  12.699   4.655
78979SOL     OW38833  13.142  10.864  14.641
78979SOL    HW138834  13.231  10.848  14.674
78979SOL    HW238835  13.151  10.858  14.546
78980SOL     OW38836  13.216  12.184   4.592
78980SOL    HW138837  13.266  12.247   4.644
78980SOL    HW238838  13.155  12.145   4.654
78981SOL     OW38839   2.056  12.259   4.899
78981SOL    HW138840   2.004  12.260   4.980
78981SOL    HW238841   2.125  12.195   4.916
78982SOL     OW38842   2.153  11.703   3.066
78982SOL    HW138843   2.248  11.695   3.063
78982SOL    HW238844   2.135  11.791   3.031
78983SOL     OW38845   2.573   6.270   3.890
78983SOL    HW138846   2.650   6.213   3.887
78983SOL    HW238847   2.609   6.358   3.904
78984SOL     OW38848   5.096   9.402   0.972
78984SOL    HW138849   5.131   9.491   0.969
78984SOL    HW238850   5.145   9.360   1.043
78985SOL     OW38851   5.047   7.082  12.787
78985SOL    HW138852   5.014   6.992  12.789
78985SOL    HW238853   5.083   7.096  12.875
78986SOL     OW38854   1.566   5.914   1.679
78986SOL    HW138855   1.538   5.985   1.622
78986SOL    HW238856   1.593   5.845   1.619
78987SOL     OW38857   6.804   6.349   1.351
78987SOL    HW138858   6.812   6.367   1.258
78987SOL    HW238859   6.816   6.434   1.393
78988SOL     OW38860   0.224  13.925   3.285
78988SOL    HW138861   0.147  13.869   3.276
78988SOL    HW238862   0.212  13.967   3.370
78989SOL     OW38863   2.627  11.978   8.149
78989SOL    HW138864   2.602  12.042   8.215
78989SOL    HW238865   2.685  12.025   8.090
78990SOL     OW38866  14.847   1.543   4.002
78990SOL    HW138867   0.005   1.465   3.964
78990SOL    HW238868  14.819   1.515   4.089
78991SOL     OW38869   6.814   2.510   1.182
78991SOL    HW138870   6.767   2.428   1.197
78991SOL    HW238871   6.786   2.538   1.095
78992SOL     OW38872   1.398  14.674   4.820
78992SOL    HW138873   1.469  14.695   4.761
78992SOL    HW238874   1.323  14.658   4.763
78993SOL     OW38875  11.019  14.032   3.781
78993SOL    HW138876  11.032  14.000   3.870
78993SOL    HW238877  11.061  14.118   3.780
78994SOL     OW38878  11.616  11.982  12.899
78994SOL    HW138879  11.552  12.012  12.834
78994SOL    HW238880  11.700  12.013  12.866
78995SOL     OW38881   3.995   6.639  14.209
78995SOL    HW138882   3.920   6.699  14.206
78995SOL    HW238883   4.065   6.687  14.164
78996SOL     OW38884   9.832   1.006  12.732
78996SOL    HW138885   9.757   0.969  12.687
78996SOL    HW238886   9.907   0.954  12.702
78997SOL     OW38887  12.890   2.210   8.978
78997SOL    HW138888  12.796   2.220   8.995
78997SOL    HW238889  12.932   2.274   9.037
78998SOL     OW38890  10.234  13.405   3.879
78998SOL    HW138891  10.213  13.353   3.801
78998SOL    HW238892  10.175  13.371   3.946
78999SOL     OW38893   1.879   6.967   9.040
78999SOL    HW138894   1.852   7.021   9.115
78999SOL    HW238895   1.804   6.911   9.023
79000SOL     OW38896   6.305   0.420  13.944
79000SOL    HW138897   6.362   0.483  13.988
79000SOL    HW238898   6.354   0.338  13.946
79001SOL     OW38899   5.752  14.854   2.471
79001SOL    HW138900   5.823  14.879   2.411
79001SOL    HW238901   5.758   0.035   2.543
79002SOL     OW38902   0.937   7.435   4.335
79002SOL    HW138903   0.968   7.390   4.413
79002SOL    HW238904   0.900   7.517   4.367
79003SOL     OW38905  11.234  10.129   1.431
79003SOL    HW138906  11.243  10.058   1.368
79003SOL    HW238907  11.262  10.091   1.514
79004SOL     OW38908   9.311  11.768  11.710
79004SOL    HW138909   9.342  11.825  11.638
79004SOL    HW238910   9.351  11.807  11.788
79005SOL     OW38911   5.001   5.585  11.755
79005SOL    HW138912   5.059   5.514  11.730
79005SOL    HW238913   5.011   5.650  11.686
79006SOL     OW38914  12.234   6.820   9.841
79006SOL    HW138915  12.165   6.767   9.882
79006SOL    HW238916  12.240   6.898   9.897
79007SOL     OW38917   5.954   8.495  14.243
79007SOL    HW138918   5.945   8.552  14.167
79007SOL    HW238919   5.999   8.549  14.309
79008SOL     OW38920  12.196   9.875   7.946
79008SOL    HW138921  12.152   9.874   8.031
79008SOL    HW238922  12.125   9.875   7.882
79009SOL     OW38923   9.049   3.926   0.403
79009SOL    HW138924   9.008   3.870   0.337
79009SOL    HW238925   9.081   4.002   0.355
79010SOL     OW38926   9.196  14.466   6.019
79010SOL    HW138927   9.108  14.445   6.050
79010SOL    HW238928   9.235  14.518   6.089
79011SOL     OW38929   5.379   4.340  10.622
79011SOL    HW138930   5.424   4.256  10.627
79011SOL    HW238931   5.295   4.325  10.665
79012SOL     OW38932   3.823  13.043   1.018
79012SOL    HW138933   3.729  13.045   1.034
79012SOL    HW238934   3.863  13.060   1.103
79013SOL     OW38935   6.643   7.934  14.675
79013SOL    HW138936   6.641   7.907  14.767
79013SOL    HW238937   6.588   7.870  14.630
79014SOL     OW38938   3.057   1.873  11.692
79014SOL    HW138939   3.069   1.948  11.635
79014SOL    HW238940   2.963   1.873  11.713
79015SOL     OW38941   7.338  11.902  11.347
79015SOL    HW138942   7.417  11.852  11.326
79015SOL    HW238943   7.266  11.851  11.310
79016SOL     OW38944   6.063   6.342  10.687
79016SOL    HW138945   6.090   6.406  10.752
79016SOL    HW238946   5.986   6.300  10.725
79017SOL     OW38947   2.814   8.398  11.033
79017SOL    HW138948   2.889   8.374  10.980
79017SOL    HW238949   2.753   8.439  10.972
79018SOL     OW38950   9.345   9.455   3.995
79018SOL    HW138951   9.275   9.516   3.974
79018SOL    HW238952   9.379   9.426   3.911
79019SOL     OW38953  14.782   5.333  10.100
79019SOL    HW138954  14.707   5.349  10.043
79019SOL    HW238955  14.825   5.257  10.062
79020SOL     OW38956  13.076  10.147   5.849
79020SOL    HW138957  13.035  10.183   5.771
79020SOL    HW238958  13.107  10.061   5.823
79021SOL     OW38959   4.067   1.968   7.172
79021SOL    HW138960   4.049   1.876   7.153
79021SOL    HW238961   4.162   1.974   7.179
79022SOL     OW38962   8.096   4.131  13.937
79022SOL    HW138963   8.109   4.224  13.957
79022SOL    HW238964   8.086   4.128  13.841
79023SOL     OW38965   5.848  13.015   4.121
79023SOL    HW138966   5.929  12.974   4.093
79023SOL    HW238967   5.815  12.959   4.191
79024SOL     OW38968   6.062   9.674   1.629
79024SOL    HW138969   6.041   9.743   1.692
79024SOL    HW238970   6.015   9.699   1.549
79025SOL     OW38971   7.039   9.373   0.050
79025SOL    HW138972   7.113   9.423   0.085
79025SOL    HW238973   6.980   9.362   0.124
79026SOL     OW38974  12.712   5.861   5.549
79026SOL    HW138975  12.649   5.790   5.539
79026SOL    HW238976  12.700   5.890   5.640
79027SOL     OW38977   1.063  12.335   7.760
79027SOL    HW138978   1.001  12.302   7.695
79027SOL    HW238979   1.015  12.330   7.843
79028SOL     OW38980   1.903   2.651   4.773
79028SOL    HW138981   1.818   2.634   4.732
79028SOL    HW238982   1.899   2.606   4.857
79029SOL     OW38983   7.719   0.776  13.710
79029SOL    HW138984   7.784   0.731  13.764
79029SOL    HW238985   7.681   0.707  13.656
79030SOL     OW38986   6.827   0.782   0.554
79030SOL    HW138987   6.868   0.835   0.622
79030SOL    HW238988   6.896   0.722   0.525
79031SOL     OW38989   6.094   2.382   3.283
79031SOL    HW138990   6.059   2.470   3.298
79031SOL    HW238991   6.023   2.335   3.240
79032SOL     OW38992  13.006   1.658   5.525
79032SOL    HW138993  12.953   1.582   5.499
79032SOL    HW238994  12.942   1.728   5.538
79033SOL     OW38995   6.777   4.991   7.406
79033SOL    HW138996   6.817   5.057   7.462
79033SOL    HW238997   6.849   4.930   7.387
79034SOL     OW38998  13.957   7.395  14.211
79034SOL    HW138999  14.003   7.375  14.292
79034SOL    HW239000  13.922   7.311  14.182
79035SOL     OW39001  12.639  10.026   4.052
79035SOL    HW139002  12.656   9.992   4.140
79035SOL    HW239003  12.724  10.025   4.009
79036SOL     OW39004   3.645  13.068  11.252
79036SOL    HW139005   3.565  13.018  11.235
79036SOL    HW239006   3.666  13.050  11.344
79037SOL     OW39007   8.149   7.657  14.307
79037SOL    HW139008   8.119   7.677  14.396
79037SOL    HW239009   8.222   7.596  14.319
79038SOL     OW39010   0.197   9.213   3.761
79038SOL    HW139011   0.272   9.207   3.820
79038SOL    HW239012   0.144   9.284   3.798
79039SOL     OW39013   3.364   3.028   5.280
79039SOL    HW139014   3.415   3.068   5.209
79039SOL    HW239015   3.423   3.031   5.355
79040SOL     OW39016   4.884  13.500  12.074
79040SOL    HW139017   4.956  13.563  12.074
79040SOL    HW239018   4.863  13.486  12.166
79041SOL     OW39019  14.589   4.096   6.025
79041SOL    HW139020  14.529   4.170   6.016
79041SOL    HW239021  14.592   4.078   6.119
79042SOL     OW39022   3.345  13.887   8.400
79042SOL    HW139023   3.409  13.958   8.408
79042SOL    HW239024   3.267  13.919   8.444
79043SOL     OW39025   3.430  13.513   0.135
79043SOL    HW139026   3.442  13.517   0.230
79043SOL    HW239027   3.373  13.438   0.122
79044SOL     OW39028  12.061   0.015  10.005
79044SOL    HW139029  12.146   0.058  10.012
79044SOL    HW239030  11.998   0.087  10.008
79045SOL     OW39031  13.392  13.437   1.537
79045SOL    HW139032  13.383  13.401   1.625
79045SOL    HW239033  13.377  13.362   1.479
79046SOL     OW39034  12.222   1.708  13.573
79046SOL    HW139035  12.239   1.701  13.667
79046SOL    HW239036  12.153   1.774  13.565
79047SOL     OW39037  12.931   6.406   8.664
79047SOL    HW139038  12.842   6.371   8.670
79047SOL    HW239039  12.980   6.341   8.614
79048SOL     OW39040   6.490   1.811   6.819
79048SOL    HW139041   6.395   1.801   6.807
79048SOL    HW239042   6.507   1.782   6.908
79049SOL     OW39043   6.432  13.911  10.520
79049SOL    HW139044   6.371  13.881  10.452
79049SOL    HW239045   6.426  14.006  10.517
79050SOL     OW39046   7.176   3.625  10.496
79050SOL    HW139047   7.144   3.713  10.516
79050SOL    HW239048   7.097   3.576  10.471
79051SOL     OW39049   3.455   2.757  14.345
79051SOL    HW139050   3.490   2.673  14.373
79051SOL    HW239051   3.519   2.790  14.281
79052SOL     OW39052   5.257   4.528   1.959
79052SOL    HW139053   5.236   4.453   1.903
79052SOL    HW239054   5.323   4.577   1.911
79053SOL     OW39055  13.843   6.424  11.045
79053SOL    HW139056  13.864   6.331  11.033
79053SOL    HW239057  13.927   6.465  11.067
79054SOL     OW39058   3.622   7.720   7.798
79054SOL    HW139059   3.577   7.644   7.834
79054SOL    HW239060   3.663   7.762   7.874
79055SOL     OW39061  11.381   8.519  14.815
79055SOL    HW139062  11.333   8.592  14.774
79055SOL    HW239063  11.370   8.446  14.754
79056SOL     OW39064   7.635   9.022   3.305
79056SOL    HW139065   7.606   8.933   3.284
79056SOL    HW239066   7.688   9.048   3.230
79057SOL     OW39067  10.449  10.810   7.167
79057SOL    HW139068  10.543  10.823   7.178
79057SOL    HW239069  10.432  10.723   7.201
79058SOL     OW39070  12.676  12.316   2.114
79058SOL    HW139071  12.665  12.267   2.032
79058SOL    HW239072  12.587  12.322   2.150
79059SOL     OW39073   2.801   5.464  12.845
79059SOL    HW139074   2.895   5.449  12.847
79059SOL    HW239075   2.776   5.452  12.754
79060SOL     OW39076  14.546   7.132   8.655
79060SOL    HW139077  14.610   7.070   8.691
79060SOL    HW239078  14.581   7.218   8.678
79061SOL     OW39079   7.654   6.750  14.839
79061SOL    HW139080   7.637   6.779   0.046
79061SOL    HW239081   7.690   6.828  14.795
79062SOL     OW39082   8.587  14.154  10.022
79062SOL    HW139083   8.615  14.099  10.096
79062SOL    HW239084   8.668  14.190   9.987
79063SOL     OW39085  12.552  13.520   3.281
79063SOL    HW139086  12.606  13.505   3.203
79063SOL    HW239087  12.582  13.455   3.344
79064SOL     OW39088  14.870  12.862   4.129
79064SOL    HW139089   0.020  12.899   4.047
79064SOL    HW239090   0.066  12.823   4.170
79065SOL     OW39091   4.133   4.952  12.781
79065SOL    HW139092   4.226   4.974  12.793
79065SOL    HW239093   4.087   5.034  12.796
79066SOL     OW39094   5.698  12.562   9.492
79066SOL    HW139095   5.654  12.477   9.483
79066SOL    HW239096   5.768  12.545   9.555
79067SOL     OW39097   0.692   5.147   6.548
79067SOL    HW139098   0.675   5.199   6.627
79067SOL    HW239099   0.788   5.139   6.544
79068SOL     OW39100   3.141   5.383   7.090
79068SOL    HW139101   3.186   5.467   7.099
79068SOL    HW239102   3.201   5.329   7.039
79069SOL     OW39103  14.674   5.844   3.144
79069SOL    HW139104  14.592   5.798   3.162
79069SOL    HW239105  14.724   5.837   3.226
79070SOL     OW39106  13.751   7.075  10.423
79070SOL    HW139107  13.692   7.100  10.493
79070SOL    HW239108  13.696   7.026  10.361
79071SOL     OW39109  10.593   0.084  14.168
79071SOL    HW139110  10.605  14.871  14.178
79071SOL    HW239111  10.668   0.112  14.115
79072SOL     OW39112   6.239   8.288   6.386
79072SOL    HW139113   6.321   8.241   6.368
79072SOL    HW239114   6.195   8.291   6.301
79073SOL     OW39115   8.645  14.650  10.801
79073SOL    HW139116   8.674  14.562  10.824
79073SOL    HW239117   8.661  14.702  10.880
79074SOL     OW39118  13.004   0.864   4.866
79074SOL    HW139119  13.073   0.843   4.803
79074SOL    HW239120  12.930   0.890   4.812
79075SOL     OW39121   6.471  10.140  11.760
79075SOL    HW139122   6.519  10.106  11.684
79075SOL    HW239123   6.534  10.197  11.804
79076SOL     OW39124   8.689   6.964  13.492
79076SOL    HW139125   8.773   6.991  13.531
79076SOL    HW239126   8.714   6.911  13.416
79077SOL     OW39127  13.508   3.944   7.025
79077SOL    HW139128  13.555   4.027   7.027
79077SOL    HW239129  13.455   3.945   7.105
79078SOL     OW39130  14.486   1.633   1.920
79078SOL    HW139131  14.510   1.550   1.879
79078SOL    HW239132  14.395   1.620   1.946
79079SOL     OW39133   4.758   2.341   0.122
79079SOL    HW139134   4.774   2.316   0.213
79079SOL    HW239135   4.794   2.430   0.115
79080SOL     OW39136  10.686  10.039   9.463
79080SOL    HW139137  10.689   9.947   9.435
79080SOL    HW239138  10.776  10.060   9.486
79081SOL     OW39139   0.460   9.645   4.271
79081SOL    HW139140   0.503   9.704   4.208
79081SOL    HW239141   0.445   9.700   4.349
79082SOL     OW39142  14.043   9.837   3.499
79082SOL    HW139143  13.995   9.919   3.491
79082SOL    HW239144  14.098   9.834   3.420
79083SOL     OW39145  10.982   1.306  14.307
79083SOL    HW139146  10.977   1.295  14.212
79083SOL    HW239147  11.049   1.373  14.320
79084SOL     OW39148   4.498   8.639  11.630
79084SOL    HW139149   4.521   8.624  11.722
79084SOL    HW239150   4.514   8.555  11.588
79085SOL     OW39151   5.894   3.199   9.487
79085SOL    HW139152   5.961   3.267   9.476
79085SOL    HW239153   5.868   3.176   9.398
79086SOL     OW39154  10.041  13.328   1.322
79086SOL    HW139155  10.074  13.409   1.283
79086SOL    HW239156  10.032  13.349   1.415
79087SOL     OW39157  11.154  10.824  12.834
79087SOL    HW139158  11.245  10.813  12.803
79087SOL    HW239159  11.101  10.779  12.768
79088SOL     OW39160  11.116   2.505  12.417
79088SOL    HW139161  11.192   2.449  12.434
79088SOL    HW239162  11.136   2.547  12.333
79089SOL     OW39163   6.161   0.782   8.449
79089SOL    HW139164   6.080   0.735   8.467
79089SOL    HW239165   6.223   0.749   8.514
79090SOL     OW39166   9.363   2.541   0.563
79090SOL    HW139167   9.326   2.569   0.479
79090SOL    HW239168   9.378   2.623   0.610
79091SOL     OW39169  14.206  13.109  11.077
79091SOL    HW139170  14.197  13.150  11.163
79091SOL    HW239171  14.151  13.162  11.019
79092SOL     OW39172  10.021  13.123  10.695
79092SOL    HW139173  10.034  13.054  10.630
79092SOL    HW239174   9.955  13.087  10.754
79093SOL     OW39175   2.810   2.815   2.635
79093SOL    HW139176   2.728   2.772   2.611
79093SOL    HW239177   2.831   2.781   2.722
79094SOL     OW39178   8.582  12.822   7.282
79094SOL    HW139179   8.552  12.740   7.320
79094SOL    HW239180   8.677  12.822   7.296
79095SOL     OW39181  14.156   7.981   9.568
79095SOL    HW139182  14.183   7.957   9.479
79095SOL    HW239183  14.217   8.050   9.594
79096SOL     OW39184   9.115  13.689   7.877
79096SOL    HW139185   9.211  13.686   7.878
79096SOL    HW239186   9.091  13.624   7.810
79097SOL     OW39187   0.150  13.638   2.034
79097SOL    HW139188   0.199  13.627   2.115
79097SOL    HW239189   0.097  13.558   2.027
79098SOL     OW39190   4.031   1.305   2.931
79098SOL    HW139191   4.082   1.373   2.974
79098SOL    HW239192   3.983   1.263   3.003
79099SOL     OW39193   6.663  11.661   7.647
79099SOL    HW139194   6.644  11.700   7.562
79099SOL    HW239195   6.728  11.719   7.686
79100SOL     OW39196  14.688   3.396  14.391
79100SOL    HW139197  14.767   3.435  14.428
79100SOL    HW239198  14.618   3.422  14.451
79101SOL     OW39199  14.316   3.081   9.822
79101SOL    HW139200  14.260   3.011   9.789
79101SOL    HW239201  14.388   3.036   9.866
79102SOL     OW39202   8.127  11.921   8.194
79102SOL    HW139203   8.127  12.007   8.238
79102SOL    HW239204   8.102  11.941   8.104
79103SOL     OW39205   7.137   6.238   8.286
79103SOL    HW139206   7.188   6.161   8.311
79103SOL    HW239207   7.117   6.282   8.368
79104SOL     OW39208   3.220   5.353   0.240
79104SOL    HW139209   3.204   5.389   0.152
79104SOL    HW239210   3.309   5.383   0.261
79105SOL     OW39211   4.098   3.653   2.711
79105SOL    HW139212   4.087   3.628   2.619
79105SOL    HW239213   4.140   3.739   2.707
79106SOL     OW39214  14.095  13.788   5.389
79106SOL    HW139215  14.026  13.833   5.438
79106SOL    HW239216  14.113  13.846   5.315
79107SOL     OW39217   4.993  13.694   7.819
79107SOL    HW139218   5.058  13.719   7.885
79107SOL    HW239219   4.948  13.775   7.798
79108SOL     OW39220   8.176  11.561   3.101
79108SOL    HW139221   8.103  11.618   3.079
79108SOL    HW239222   8.240  11.618   3.144
79109SOL     OW39223   5.250   4.987   2.211
79109SOL    HW139224   5.292   5.067   2.242
79109SOL    HW239225   5.302   4.916   2.248
79110SOL     OW39226  10.119  11.410  11.202
79110SOL    HW139227  10.107  11.484  11.262
79110SOL    HW239228  10.214  11.399  11.197
79111SOL     OW39229   4.188   1.260  10.224
79111SOL    HW139230   4.249   1.283  10.154
79111SOL    HW239231   4.186   1.338  10.280
79112SOL     OW39232  11.823   3.168   1.926
79112SOL    HW139233  11.735   3.201   1.911
79112SOL    HW239234  11.811   3.076   1.949
79113SOL     OW39235  13.621  12.302   3.475
79113SOL    HW139236  13.629  12.249   3.396
79113SOL    HW239237  13.572  12.248   3.537
79114SOL     OW39238   5.444  14.824   4.951
79114SOL    HW139239   5.354  14.834   4.982
79114SOL    HW239240   5.497  14.822   5.030
79115SOL     OW39241   8.306  12.980   5.111
79115SOL    HW139242   8.361  12.929   5.170
79115SOL    HW239243   8.225  12.930   5.104
79116SOL     OW39244   1.280   3.178   7.727
79116SOL    HW139245   1.202   3.233   7.713
79116SOL    HW239246   1.345   3.238   7.763
79117SOL     OW39247   6.537  14.634  14.566
79117SOL    HW139248   6.520  14.649  14.473
79117SOL    HW239249   6.626  14.600  14.568
79118SOL     OW39250  12.095   1.801   1.078
79118SOL    HW139251  12.098   1.775   1.170
79118SOL    HW239252  12.072   1.894   1.081
79119SOL     OW39253   4.581   5.145   4.493
79119SOL    HW139254   4.504   5.139   4.549
79119SOL    HW239255   4.568   5.076   4.428
79120SOL     OW39256   7.119   3.576   2.355
79120SOL    HW139257   7.069   3.517   2.412
79120SOL    HW239258   7.060   3.595   2.282
79121SOL     OW39259   3.530   7.535   7.945
79121SOL    HW139260   3.468   7.549   8.017
79121SOL    HW239261   3.532   7.440   7.934
79122SOL     OW39262   2.854   0.892  12.693
79122SOL    HW139263   2.769   0.849  12.702
79122SOL    HW239264   2.906   0.859  12.766
79123SOL     OW39265  14.681  14.295   3.820
79123SOL    HW139266  14.587  14.312   3.818
79123SOL    HW239267  14.701  14.286   3.913
79124SOL     OW39268   9.258  10.304   4.277
79124SOL    HW139269   9.267  10.353   4.358
79124SOL    HW239270   9.182  10.247   4.292
79125SOL     OW39271  10.999  12.616   8.991
79125SOL    HW139272  11.084  12.645   8.957
79125SOL    HW239273  10.986  12.530   8.952
79126SOL     OW39274  12.604  10.426   9.379
79126SOL    HW139275  12.522  10.471   9.360
79126SOL    HW239276  12.588  10.381   9.463
79127SOL     OW39277   2.065   4.106   3.192
79127SOL    HW139278   2.158   4.086   3.204
79127SOL    HW239279   2.044   4.074   3.105
79128SOL     OW39280   1.307  12.718  10.908
79128SOL    HW139281   1.379  12.705  10.970
79128SOL    HW239282   1.236  12.663  10.943
79129SOL     OW39283   0.706   9.876   6.766
79129SOL    HW139284   0.699   9.944   6.833
79129SOL    HW239285   0.751   9.918   6.693
79130SOL     OW39286   9.309   7.033  12.420
79130SOL    HW139287   9.364   6.963  12.384
79130SOL    HW239288   9.337   7.040  12.511
79131SOL     OW39289   9.077   6.914  11.286
79131SOL    HW139290   9.154   6.948  11.240
79131SOL    HW239291   9.011   6.902  11.217
79132SOL     OW39292   5.535   3.581   0.272
79132SOL    HW139293   5.535   3.494   0.312
79132SOL    HW239294   5.444   3.610   0.277
79133SOL     OW39295   1.942  10.690   4.705
79133SOL    HW139296   2.007  10.630   4.741
79133SOL    HW239297   1.882  10.707   4.777
79134SOL     OW39298   1.333  13.984   7.654
79134SOL    HW139299   1.244  13.949   7.656
79134SOL    HW239300   1.343  14.029   7.738
79135SOL     OW39301   7.737  10.934   0.803
79135SOL    HW139302   7.813  10.992   0.805
79135SOL    HW239303   7.676  10.975   0.741
79136SOL     OW39304   8.555  13.079  11.842
79136SOL    HW139305   8.632  13.027  11.820
79136SOL    HW239306   8.490  13.014  11.871
79137SOL     OW39307  13.049  12.208  14.522
79137SOL    HW139308  13.028  12.299  14.544
79137SOL    HW239309  12.994  12.156  14.581
79138SOL     OW39310   4.777   6.995   7.323
79138SOL    HW139311   4.752   6.911   7.363
79138SOL    HW239312   4.859   6.976   7.278
79139SOL     OW39313   6.931   0.299  11.151
79139SOL    HW139314   6.975   0.349  11.081
79139SOL    HW239315   6.873   0.239  11.104
79140SOL     OW39316   3.295   8.538   4.903
79140SOL    HW139317   3.320   8.450   4.932
79140SOL    HW239318   3.284   8.529   4.808
79141SOL     OW39319   3.604  14.107   4.586
79141SOL    HW139320   3.665  14.043   4.624
79141SOL    HW239321   3.638  14.191   4.615
79142SOL     OW39322   3.521   9.233   6.342
79142SOL    HW139323   3.604   9.272   6.371
79142SOL    HW239324   3.547   9.157   6.291
79143SOL     OW39325   9.900   3.886  14.708
79143SOL    HW139326   9.843   3.837  14.649
79143SOL    HW239327   9.952   3.819  14.753
79144SOL     OW39328   5.588   6.720  10.165
79144SOL    HW139329   5.529   6.741  10.092
79144SOL    HW239330   5.635   6.801  10.182
79145SOL     OW39331  13.674   1.341   4.827
79145SOL    HW139332  13.628   1.418   4.795
79145SOL    HW239333  13.655   1.338   4.921
79146SOL     OW39334   1.740  13.643   7.202
79146SOL    HW139335   1.786  13.673   7.123
79146SOL    HW239336   1.731  13.549   7.191
79147SOL     OW39337   9.714   1.465  10.492
79147SOL    HW139338   9.793   1.428  10.451
79147SOL    HW239339   9.679   1.524  10.426
79148SOL     OW39340   8.363  10.518   6.476
79148SOL    HW139341   8.344  10.506   6.569
79148SOL    HW239342   8.301  10.584   6.446
79149SOL     OW39343  11.288   1.744  13.398
79149SOL    HW139344  11.377   1.773  13.418
79149SOL    HW239345  11.294   1.648  13.396
79150SOL     OW39346  12.270  11.452  11.172
79150SOL    HW139347  12.332  11.524  11.169
79150SOL    HW239348  12.228  11.451  11.086
79151SOL     OW39349  11.836  12.565   9.313
79151SOL    HW139350  11.810  12.599   9.399
79151SOL    HW239351  11.854  12.642   9.260
79152SOL     OW39352  14.391  10.852   7.947
79152SOL    HW139353  14.325  10.919   7.966
79152SOL    HW239354  14.364  10.815   7.863
79153SOL     OW39355   6.795  14.846   7.366
79153SOL    HW139356   6.752   0.033   7.416
79153SOL    HW239357   6.884  14.877   7.353
79154SOL     OW39358   7.961   0.125   9.009
79154SOL    HW139359   7.874   0.163   8.996
79154SOL    HW239360   7.989   0.157   9.095
79155SOL     OW39361   3.476  12.968  10.124
79155SOL    HW139362   3.487  12.873  10.132
79155SOL    HW239363   3.453  12.982  10.032
79156SOL     OW39364   8.574   1.982  10.716
79156SOL    HW139365   8.628   1.910  10.683
79156SOL    HW239366   8.513   2.000  10.644
79157SOL     OW39367   6.636  10.600   0.636
79157SOL    HW139368   6.575  10.649   0.580
79157SOL    HW239369   6.606  10.619   0.725
79158SOL     OW39370   7.237  11.533  10.084
79158SOL    HW139371   7.191  11.575  10.012
79158SOL    HW239372   7.330  11.540  10.062
79159SOL     OW39373   6.185   4.400   4.572
79159SOL    HW139374   6.207   4.365   4.659
79159SOL    HW239375   6.255   4.463   4.554
79160SOL     OW39376   2.590  14.072   3.501
79160SOL    HW139377   2.642  14.022   3.438
79160SOL    HW239378   2.531  14.007   3.540
79161SOL     OW39379   5.661   3.633   0.792
79161SOL    HW139380   5.570   3.606   0.773
79161SOL    HW239381   5.711   3.596   0.719
79162SOL     OW39382   4.135   8.819  12.411
79162SOL    HW139383   4.213   8.807  12.358
79162SOL    HW239384   4.073   8.754  12.379
79163SOL     OW39385   4.536  13.239  14.552
79163SOL    HW139386   4.450  13.240  14.509
79163SOL    HW239387   4.588  13.180  14.497
79164SOL     OW39388  11.592   4.768  14.076
79164SOL    HW139389  11.665   4.820  14.108
79164SOL    HW239390  11.621   4.677  14.085
79165SOL     OW39391  10.419  14.518  13.029
79165SOL    HW139392  10.394  14.428  13.010
79165SOL    HW239393  10.366  14.571  12.970
79166SOL     OW39394   7.076   9.484   6.593
79166SOL    HW139395   6.986   9.515   6.590
79166SOL    HW239396   7.122   9.539   6.529
79167SOL     OW39397   9.735   5.758   9.785
79167SOL    HW139398   9.686   5.696   9.839
79167SOL    HW239399   9.698   5.748   9.697
79168SOL     OW39400   4.667   7.475   0.610
79168SOL    HW139401   4.658   7.549   0.669
79168SOL    HW239402   4.586   7.474   0.558
79169SOL     OW39403   5.088   8.854   1.718
79169SOL    HW139404   5.149   8.896   1.779
79169SOL    HW239405   5.131   8.859   1.633
79170SOL     OW39406   1.418  14.761   4.496
79170SOL    HW139407   1.341  14.817   4.488
79170SOL    HW239408   1.435  14.730   4.407
79171SOL     OW39409   9.840   9.091   9.180
79171SOL    HW139410   9.883   9.173   9.204
79171SOL    HW239411   9.852   9.084   9.085
79172SOL     OW39412  10.461   3.603   7.308
79172SOL    HW139413  10.443   3.697   7.302
79172SOL    HW239414  10.447   3.571   7.219
79173SOL     OW39415  10.808   7.879   3.515
79173SOL    HW139416  10.803   7.860   3.421
79173SOL    HW239417  10.762   7.806   3.556
79174SOL     OW39418   0.497  10.705  14.275
79174SOL    HW139419   0.530  10.644  14.341
79174SOL    HW239420   0.421  10.661  14.236
79175SOL     OW39421  11.669  11.680   1.593
79175SOL    HW139422  11.725  11.626   1.649
79175SOL    HW239423  11.600  11.711   1.652
79176SOL     OW39424   0.066   6.808   2.920
79176SOL    HW139425   0.089   6.882   2.865
79176SOL    HW239426   0.113   6.734   2.882
79177SOL     OW39427   7.102   9.739   6.442
79177SOL    HW139428   7.015   9.744   6.404
79177SOL    HW239429   7.093   9.781   6.528
79178SOL     OW39430   8.873  13.416  12.796
79178SOL    HW139431   8.812  13.420  12.870
79178SOL    HW239432   8.835  13.351  12.737
79179SOL     OW39433   0.572  12.273   7.107
79179SOL    HW139434   0.500  12.267   7.045
79179SOL    HW239435   0.636  12.209   7.075
79180SOL     OW39436  12.022  12.751   8.749
79180SOL    HW139437  12.116  12.768   8.751
79180SOL    HW239438  11.984  12.831   8.712
79181SOL     OW39439  10.218   4.620   8.829
79181SOL    HW139440  10.256   4.700   8.793
79181SOL    HW239441  10.176   4.647   8.910
79182SOL     OW39442   8.898   0.984   2.536
79182SOL    HW139443   8.888   0.900   2.581
79182SOL    HW239444   8.910   0.960   2.444
79183SOL     OW39445   2.041  13.128  13.954
79183SOL    HW139446   1.998  13.096  13.875
79183SOL    HW239447   2.121  13.077  13.960
79184SOL     OW39448   1.303   8.352   9.927
79184SOL    HW139449   1.344   8.419   9.873
79184SOL    HW239450   1.333   8.269   9.890
79185SOL     OW39451   7.796   5.887   2.759
79185SOL    HW139452   7.721   5.909   2.703
79185SOL    HW239453   7.788   5.793   2.775
79186SOL     OW39454  11.137   3.449   7.368
79186SOL    HW139455  11.208   3.513   7.374
79186SOL    HW239456  11.076   3.487   7.305
79187SOL     OW39457   3.406  10.018  11.996
79187SOL    HW139458   3.463  10.038  11.922
79187SOL    HW239459   3.332  10.079  11.987
79188SOL     OW39460   4.559   8.294  10.263
79188SOL    HW139461   4.621   8.367  10.273
79188SOL    HW239462   4.610   8.217  10.287
79189SOL     OW39463  11.631  14.093   5.366
79189SOL    HW139464  11.725  14.087   5.346
79189SOL    HW239465  11.618  14.185   5.390
79190SOL     OW39466  10.048   5.934  14.570
79190SOL    HW139467  10.051   5.996  14.498
79190SOL    HW239468   9.987   5.973  14.633
79191SOL     OW39469   5.585  10.279   1.207
79191SOL    HW139470   5.511  10.225   1.182
79191SOL    HW239471   5.624  10.306   1.123
79192SOL     OW39472  12.026   6.582   9.174
79192SOL    HW139473  12.066   6.533   9.247
79192SOL    HW239474  11.942   6.538   9.159
79193SOL     OW39475  11.256   0.329   3.049
79193SOL    HW139476  11.191   0.363   3.110
79193SOL    HW239477  11.308   0.267   3.101
79194SOL     OW39478  11.808   1.664   8.633
79194SOL    HW139479  11.802   1.572   8.658
79194SOL    HW239480  11.773   1.712   8.707
79195SOL     OW39481   3.719  11.915   4.634
79195SOL    HW139482   3.688  11.825   4.635
79195SOL    HW239483   3.649  11.965   4.677
79196SOL     OW39484  12.762   6.360   6.036
79196SOL    HW139485  12.774   6.333   5.945
79196SOL    HW239486  12.708   6.439   6.031
79197SOL     OW39487   8.127   6.945   3.652
79197SOL    HW139488   8.182   7.023   3.650
79197SOL    HW239489   8.069   6.953   3.576
79198SOL     OW39490   4.630   6.380   5.866
79198SOL    HW139491   4.551   6.327   5.878
79198SOL    HW239492   4.640   6.426   5.949
79199SOL     OW39493   3.233  14.475   4.998
79199SOL    HW139494   3.289  14.500   4.926
79199SOL    HW239495   3.286  14.489   5.076
79200SOL     OW39496   6.773   7.074   6.372
79200SOL    HW139497   6.759   7.031   6.288
79200SOL    HW239498   6.686   7.095   6.404
79201SOL     OW39499  14.103   7.087   9.663
79201SOL    HW139500  14.038   7.071   9.732
79201SOL    HW239501  14.169   7.142   9.705
79202SOL     OW39502   9.012   9.887   9.076
79202SOL    HW139503   9.086   9.889   9.137
79202SOL    HW239504   9.052   9.871   8.990
79203SOL     OW39505   3.323   6.056   6.886
79203SOL    HW139506   3.353   6.012   6.966
79203SOL    HW239507   3.383   6.130   6.876
79204SOL     OW39508  13.114   0.102   3.930
79204SOL    HW139509  13.171   0.108   4.007
79204SOL    HW239510  13.127   0.013   3.897
79205SOL     OW39511   7.073  10.256   6.394
79205SOL    HW139512   7.130  10.180   6.378
79205SOL    HW239513   7.133  10.324   6.424
79206SOL     OW39514   1.784   8.058   3.975
79206SOL    HW139515   1.783   7.967   4.002
79206SOL    HW239516   1.693   8.079   3.955
79207SOL     OW39517  13.183   5.707  12.385
79207SOL    HW139518  13.135   5.705  12.468
79207SOL    HW239519  13.133   5.768  12.330
79208SOL     OW39520  11.996  11.553  13.553
79208SOL    HW139521  12.063  11.604  13.600
79208SOL    HW239522  12.046  11.492  13.499
79209SOL     OW39523   6.522   4.355   5.722
79209SOL    HW139524   6.595   4.315   5.674
79209SOL    HW239525   6.544   4.342   5.814
79210SOL     OW39526   5.743  14.370   9.028
79210SOL    HW139527   5.654  14.339   9.044
79210SOL    HW239528   5.794  14.335   9.101
79211SOL     OW39529  13.103   8.714   9.463
79211SOL    HW139530  13.031   8.713   9.400
79211SOL    HW239531  13.060   8.726   9.548
79212SOL     OW39532  10.524  13.698   5.991
79212SOL    HW139533  10.492  13.622   5.942
79212SOL    HW239534  10.450  13.759   5.992
79213SOL     OW39535   0.912   2.498   6.342
79213SOL    HW139536   0.864   2.453   6.412
79213SOL    HW239537   0.944   2.428   6.286
79214SOL     OW39538   9.647   6.410   1.501
79214SOL    HW139539   9.561   6.453   1.499
79214SOL    HW239540   9.709   6.483   1.510
79215SOL     OW39541  13.519   2.755  13.406
79215SOL    HW139542  13.476   2.792  13.328
79215SOL    HW239543  13.561   2.830  13.447
79216SOL     OW39544   0.125  11.423   2.072
79216SOL    HW139545   0.173  11.346   2.041
79216SOL    HW239546   0.075  11.452   1.996
79217SOL     OW39547  11.855   7.977   5.539
79217SOL    HW139548  11.941   8.000   5.572
79217SOL    HW239549  11.869   7.951   5.448
79218SOL     OW39550   7.347   4.464  10.232
79218SOL    HW139551   7.370   4.544  10.280
79218SOL    HW239552   7.294   4.495  10.158
79219SOL     OW39553   2.974   2.220   9.327
79219SOL    HW139554   3.029   2.212   9.405
79219SOL    HW239555   2.900   2.160   9.344
79220SOL     OW39556   2.311  10.357   6.670
79220SOL    HW139557   2.396  10.336   6.708
79220SOL    HW239558   2.300  10.296   6.597
79221SOL     OW39559  13.824  11.826   5.753
79221SOL    HW139560  13.811  11.743   5.800
79221SOL    HW239561  13.767  11.888   5.799
79222SOL     OW39562   0.593  13.328  14.359
79222SOL    HW139563   0.534  13.271  14.408
79222SOL    HW239564   0.536  13.370  14.294
79223SOL     OW39565   2.111   1.873  14.758
79223SOL    HW139566   2.063   1.955  14.759
79223SOL    HW239567   2.148   1.867  14.670
79224SOL     OW39568   3.734  12.378   5.878
79224SOL    HW139569   3.685  12.380   5.795
79224SOL    HW239570   3.666  12.373   5.945
79225SOL     OW39571   4.229  13.274   8.396
79225SOL    HW139572   4.231  13.332   8.473
79225SOL    HW239573   4.254  13.188   8.430
79226SOL     OW39574   4.939   0.327   3.128
79226SOL    HW139575   4.900   0.252   3.082
79226SOL    HW239576   4.955   0.294   3.216
79227SOL     OW39577   3.834  12.309  14.854
79227SOL    HW139578   3.923  12.284  14.880
79227SOL    HW239579   3.777  12.263   0.033
79228SOL     OW39580   6.467  14.222  13.094
79228SOL    HW139581   6.424  14.159  13.035
79228SOL    HW239582   6.483  14.298  13.039
79229SOL     OW39583   1.261   9.125  12.533
79229SOL    HW139584   1.197   9.121  12.604
79229SOL    HW239585   1.346   9.116  12.575
79230SOL     OW39586   4.266  12.216   6.267
79230SOL    HW139587   4.228  12.279   6.329
79230SOL    HW239588   4.351  12.193   6.305
79231SOL     OW39589   2.486   8.729  10.590
79231SOL    HW139590   2.460   8.637  10.596
79231SOL    HW239591   2.566   8.735  10.642
79232SOL     OW39592   0.565  13.474   4.352
79232SOL    HW139593   0.477  13.470   4.388
79232SOL    HW239594   0.615  13.524   4.417
79233SOL     OW39595   1.198   3.897  12.665
79233SOL    HW139596   1.183   3.851  12.747
79233SOL    HW239597   1.281   3.863  12.633
79234SOL     OW39598   6.913  10.498  12.983
79234SOL    HW139599   6.840  10.467  13.038
79234SOL    HW239600   6.959  10.561  13.037
79235SOL     OW39601   1.490   8.809   0.058
79235SOL    HW139602   1.578   8.773   0.060
79235SOL    HW239603   1.488   8.863  14.861
79236SOL     OW39604   4.144   8.436  13.742
79236SOL    HW139605   4.106   8.476  13.821
79236SOL    HW239606   4.237   8.458  13.746
79237SOL     OW39607  12.925   1.485   0.213
79237SOL    HW139608  12.964   1.559   0.260
79237SOL    HW239609  12.831   1.493   0.231
79238SOL     OW39610  10.256   2.601   3.690
79238SOL    HW139611  10.162   2.601   3.670
79238SOL    HW239612  10.263   2.654   3.769
79239SOL     OW39613  13.214  12.421   5.575
79239SOL    HW139614  13.152  12.430   5.647
79239SOL    HW239615  13.223  12.326   5.562
79240SOL     OW39616   8.978  14.135   5.235
79240SOL    HW139617   9.033  14.062   5.264
79240SOL    HW239618   8.894  14.121   5.278
79241SOL     OW39619  10.678   5.139   3.968
79241SOL    HW139620  10.733   5.125   4.045
79241SOL    HW239621  10.627   5.058   3.961
79242SOL     OW39622  10.651   8.758   7.919
79242SOL    HW139623  10.625   8.749   8.011
79242SOL    HW239624  10.584   8.814   7.881
79243SOL     OW39625  13.262   0.488  12.700
79243SOL    HW139626  13.344   0.439  12.703
79243SOL    HW239627  13.200   0.435  12.750
79244SOL     OW39628  12.463   2.432   3.359
79244SOL    HW139629  12.367   2.430   3.354
79244SOL    HW239630  12.484   2.524   3.371
79245SOL     OW39631  11.077   2.890  11.811
79245SOL    HW139632  11.093   2.939  11.731
79245SOL    HW239633  11.144   2.821  11.811
79246SOL     OW39634   4.381   9.488   9.097
79246SOL    HW139635   4.371   9.414   9.156
79246SOL    HW239636   4.406   9.449   9.013
79247SOL     OW39637  11.277   2.525   9.987
79247SOL    HW139638  11.353   2.541   9.931
79247SOL    HW239639  11.247   2.437   9.962
79248SOL     OW39640  14.321  10.977   7.122
79248SOL    HW139641  14.233  10.946   7.144
79248SOL    HW239642  14.307  11.064   7.085
79249SOL     OW39643   1.771  12.464  10.076
79249SOL    HW139644   1.802  12.373  10.074
79249SOL    HW239645   1.756  12.486   9.984
79250SOL     OW39646  10.402   4.364   5.745
79250SOL    HW139647  10.467   4.359   5.675
79250SOL    HW239648  10.377   4.273   5.761
79251SOL     OW39649   4.973  14.021  13.967
79251SOL    HW139650   5.029  14.073  13.910
79251SOL    HW239651   4.908  14.083  14.000
79252SOL     OW39652  10.964   2.464   8.323
79252SOL    HW139653  10.892   2.526   8.312
79252SOL    HW239654  10.934   2.385   8.279
79253SOL     OW39655   3.609   0.092   0.620
79253SOL    HW139656   3.524   0.123   0.589
79253SOL    HW239657   3.601  14.879   0.622
79254SOL     OW39658  12.051  11.834   6.364
79254SOL    HW139659  12.027  11.899   6.429
79254SOL    HW239660  12.088  11.761   6.414
79255SOL     OW39661  12.865   9.180   7.408
79255SOL    HW139662  12.795   9.115   7.414
79255SOL    HW239663  12.879   9.209   7.498
79256SOL     OW39664   3.884   1.397   3.709
79256SOL    HW139665   3.798   1.356   3.700
79256SOL    HW239666   3.928   1.346   3.777
79257SOL     OW39667   9.087  12.132  10.291
79257SOL    HW139668   9.106  12.048  10.334
79257SOL    HW239669   9.097  12.197  10.361
79258SOL     OW39670   1.775  13.417  12.008
79258SOL    HW139671   1.738  13.380  12.087
79258SOL    HW239672   1.741  13.362  11.937
79259SOL     OW39673   8.361   1.109  12.269
79259SOL    HW139674   8.400   1.179  12.218
79259SOL    HW239675   8.435   1.065  12.311
79260SOL     OW39676  13.761   0.198   9.805
79260SOL    HW139677  13.856   0.187   9.794
79260SOL    HW239678  13.730   0.225   9.719
79261SOL     OW39679  10.803   0.713   8.620
79261SOL    HW139680  10.871   0.735   8.683
79261SOL    HW239681  10.793   0.618   8.627
79262SOL     OW39682  13.260   3.119   3.612
79262SOL    HW139683  13.321   3.192   3.623
79262SOL    HW239684  13.229   3.128   3.522
79263SOL     OW39685   1.272  14.211  12.226
79263SOL    HW139686   1.349  14.221  12.169
79263SOL    HW239687   1.261  14.297  12.267
79264SOL     OW39688  12.530  12.497  10.387
79264SOL    HW139689  12.599  12.512  10.323
79264SOL    HW239690  12.467  12.567  10.372
79265SOL     OW39691   2.701   2.935  10.952
79265SOL    HW139692   2.760   2.990  10.901
79265SOL    HW239693   2.683   2.860  10.895
79266SOL     OW39694  10.701   6.654   7.544
79266SOL    HW139695  10.777   6.712   7.546
79266SOL    HW239696  10.656   6.671   7.627
79267SOL     OW39697   5.166   1.165   0.097
79267SOL    HW139698   5.242   1.176   0.040
79267SOL    HW239699   5.137   1.254   0.116
79268SOL     OW39700   3.774   0.109   6.620
79268SOL    HW139701   3.727   0.192   6.620
79268SOL    HW239702   3.865   0.132   6.633
79269SOL     OW39703   3.031   9.139  12.333
79269SOL    HW139704   2.970   9.083  12.286
79269SOL    HW239705   2.975   9.202  12.379
79270SOL     OW39706   2.246   7.566   0.608
79270SOL    HW139707   2.151   7.571   0.605
79270SOL    HW239708   2.266   7.473   0.597
79271SOL     OW39709  10.908   9.309  11.194
79271SOL    HW139710  10.946   9.281  11.277
79271SOL    HW239711  10.950   9.253  11.128
79272SOL     OW39712  13.684   9.057  14.588
79272SOL    HW139713  13.764   9.031  14.544
79272SOL    HW239714  13.617   8.998  14.552
79273SOL     OW39715  13.190   5.415  10.259
79273SOL    HW139716  13.193   5.497  10.209
79273SOL    HW239717  13.155   5.440  10.344
79274SOL     OW39718   2.423   9.200   0.679
79274SOL    HW139719   2.396   9.173   0.767
79274SOL    HW239720   2.342   9.205   0.629
79275SOL     OW39721   5.023   9.773   2.612
79275SOL    HW139722   4.951   9.789   2.673
79275SOL    HW239723   5.069   9.857   2.607
79276SOL     OW39724  14.275   2.682  14.215
79276SOL    HW139725  14.360   2.719  14.192
79276SOL    HW239726  14.295   2.615  14.280
79277SOL     OW39727   8.895   4.413   1.981
79277SOL    HW139728   8.976   4.445   2.021
79277SOL    HW239729   8.924   4.343   1.921
79278SOL     OW39730  14.764   2.994   5.355
79278SOL    HW139731  14.794   3.085   5.360
79278SOL    HW239732  14.825   2.946   5.411
79279SOL     OW39733   8.867   4.019  12.782
79279SOL    HW139734   8.922   3.965  12.724
79279SOL    HW239735   8.921   4.032  12.860
79280SOL     OW39736   6.952   1.701   6.872
79280SOL    HW139737   6.888   1.640   6.834
79280SOL    HW239738   6.915   1.725   6.957
79281SOL     OW39739  10.300   6.856  10.346
79281SOL    HW139740  10.269   6.931  10.296
79281SOL    HW239741  10.258   6.866  10.432
79282SOL     OW39742  10.061  13.778   1.477
79282SOL    HW139743  10.148  13.802   1.446
79282SOL    HW239744  10.002  13.842   1.436
79283SOL     OW39745  14.641   5.991   5.837
79283SOL    HW139746  14.552   5.987   5.803
79283SOL    HW239747  14.686   5.916   5.797
79284SOL     OW39748   5.652   4.446   8.662
79284SOL    HW139749   5.715   4.378   8.635
79284SOL    HW239750   5.702   4.527   8.658
79285SOL     OW39751   1.338   3.972  14.716
79285SOL    HW139752   1.342   3.879  14.737
79285SOL    HW239753   1.429   3.997  14.698
79286SOL     OW39754   0.301  14.253   1.897
79286SOL    HW139755   0.286  14.346   1.878
79286SOL    HW239756   0.379  14.252   1.952
79287SOL     OW39757  13.156  13.284   9.025
79287SOL    HW139758  13.197  13.198   9.036
79287SOL    HW239759  13.164  13.325   9.111
79288SOL     OW39760  12.436   9.500   6.095
79288SOL    HW139761  12.451   9.408   6.073
79288SOL    HW239762  12.415   9.541   6.011
79289SOL     OW39763   6.115  13.206   7.056
79289SOL    HW139764   6.122  13.170   7.144
79289SOL    HW239765   6.081  13.295   7.068
79290SOL     OW39766  14.859   8.908  12.533
79290SOL    HW139767  14.820   8.821  12.544
79290SOL    HW239768   0.067   8.898  12.563
79291SOL     OW39769   8.866   9.639   6.677
79291SOL    HW139770   8.868   9.572   6.746
79291SOL    HW239771   8.864   9.722   6.724
79292SOL     OW39772   6.137   7.717   1.696
79292SOL    HW139773   6.163   7.726   1.604
79292SOL    HW239774   6.136   7.807   1.729
79293SOL     OW39775   7.751   3.544   2.304
79293SOL    HW139776   7.760   3.462   2.257
79293SOL    HW239777   7.806   3.606   2.257
79294SOL     OW39778  12.346   7.724  11.598
79294SOL    HW139779  12.299   7.670  11.534
79294SOL    HW239780  12.421   7.759  11.549
79295SOL     OW39781   4.800   4.781   7.525
79295SOL    HW139782   4.714   4.759   7.491
79295SOL    HW239783   4.858   4.780   7.449
79296SOL     OW39784  12.344   7.529   2.065
79296SOL    HW139785  12.359   7.573   1.981
79296SOL    HW239786  12.285   7.457   2.044
79297SOL     OW39787   0.049   4.296  13.353
79297SOL    HW139788   0.093   4.224  13.308
79297SOL    HW239789   0.118   4.360  13.370
79298SOL     OW39790   5.360  10.899   4.086
79298SOL    HW139791   5.362  10.967   4.018
79298SOL    HW239792   5.291  10.839   4.058
79299SOL     OW39793  13.987  11.427   1.992
79299SOL    HW139794  14.033  11.414   1.909
79299SOL    HW239795  13.920  11.358   1.994
79300SOL     OW39796   6.960  11.520  10.170
79300SOL    HW139797   6.994  11.431  10.157
79300SOL    HW239798   7.010  11.574  10.109
79301SOL     OW39799   2.433   9.490  10.086
79301SOL    HW139800   2.358   9.441  10.051
79301SOL    HW239801   2.465   9.436  10.158
79302SOL     OW39802  10.745  12.066  12.629
79302SOL    HW139803  10.788  12.146  12.657
79302SOL    HW239804  10.685  12.043  12.700
79303SOL     OW39805   6.232  11.152   9.957
79303SOL    HW139806   6.163  11.109  10.006
79303SOL    HW239807   6.200  11.155   9.867
79304SOL     OW39808  12.682   9.606   9.538
79304SOL    HW139809  12.684   9.635   9.629
79304SOL    HW239810  12.610   9.656   9.498
79305SOL     OW39811  14.081   3.228   7.110
79305SOL    HW139812  14.087   3.243   7.016
79305SOL    HW239813  14.068   3.134   7.118
79306SOL     OW39814   3.877  14.023   1.365
79306SOL    HW139815   3.806  14.000   1.426
79306SOL    HW239816   3.952  14.040   1.421
79307SOL     OW39817   8.808  12.811   3.544
79307SOL    HW139818   8.766  12.896   3.539
79307SOL    HW239819   8.855  12.802   3.461
79308SOL     OW39820   1.184   1.454   2.237
79308SOL    HW139821   1.234   1.481   2.160
79308SOL    HW239822   1.095   1.486   2.221
79309SOL     OW39823   3.559   0.215   3.299
79309SOL    HW139824   3.640   0.244   3.342
79309SOL    HW239825   3.514   0.162   3.365
79310SOL     OW39826  14.410   5.897   2.171
79310SOL    HW139827  14.341   5.867   2.230
79310SOL    HW239828  14.371   5.970   2.123
79311SOL     OW39829  10.981   9.321   8.152
79311SOL    HW139830  11.075   9.323   8.132
79311SOL    HW239831  10.952   9.411   8.137
79312SOL     OW39832  14.384   7.971   0.305
79312SOL    HW139833  14.442   7.902   0.272
79312SOL    HW239834  14.423   7.996   0.389
79313SOL     OW39835   6.802  13.785  12.389
79313SOL    HW139836   6.829  13.821  12.304
79313SOL    HW239837   6.771  13.697  12.368
79314SOL     OW39838   6.190  13.430   1.841
79314SOL    HW139839   6.284  13.451   1.837
79314SOL    HW239840   6.178  13.366   1.770
79315SOL     OW39841   4.138  12.928   2.103
79315SOL    HW139842   4.185  12.850   2.133
79315SOL    HW239843   4.190  13.002   2.134
79316SOL     OW39844   0.584  13.383   6.406
79316SOL    HW139845   0.524  13.314   6.376
79316SOL    HW239846   0.539  13.424   6.479
79317SOL     OW39847   6.774  11.244   6.243
79317SOL    HW139848   6.699  11.267   6.298
79317SOL    HW239849   6.737  11.233   6.155
79318SOL     OW39850  10.386  10.657   8.653
79318SOL    HW139851  10.344  10.645   8.568
79318SOL    HW239852  10.458  10.718   8.637
79319SOL     OW39853   3.491   0.144   0.215
79319SOL    HW139854   3.461   0.155   0.306
79319SOL    HW239855   3.544   0.064   0.217
79320SOL     OW39856  10.144   7.239   6.740
79320SOL    HW139857  10.129   7.333   6.735
79320SOL    HW239858  10.058   7.203   6.764
79321SOL     OW39859  10.067   4.170   9.572
79321SOL    HW139860  10.155   4.196   9.597
79321SOL    HW239861  10.028   4.137   9.653
79322SOL     OW39862   8.085   0.797   7.077
79322SOL    HW139863   8.172   0.836   7.083
79322SOL    HW239864   8.068   0.762   7.165
79323SOL     OW39865  10.287   9.873   0.479
79323SOL    HW139866  10.317   9.907   0.395
79323SOL    HW239867  10.340   9.921   0.544
79324SOL     OW39868   8.985   1.274   1.029
79324SOL    HW139869   9.011   1.364   1.008
79324SOL    HW239870   8.903   1.285   1.078
79325SOL     OW39871  10.372   0.642   2.931
79325SOL    HW139872  10.393   0.645   3.025
79325SOL    HW239873  10.345   0.732   2.911
79326SOL     OW39874  12.816   3.190  11.762
79326SOL    HW139875  12.892   3.194  11.704
79326SOL    HW239876  12.742   3.173  11.703
79327SOL     OW39877  14.017   8.544   9.114
79327SOL    HW139878  13.977   8.583   9.191
79327SOL    HW239879  14.110   8.564   9.122
79328SOL     OW39880  13.259  11.329   2.807
79328SOL    HW139881  13.190  11.325   2.741
79328SOL    HW239882  13.250  11.248   2.857
79329SOL     OW39883   2.926   1.528   7.086
79329SOL    HW139884   2.852   1.588   7.097
79329SOL    HW239885   2.908   1.484   7.003
79330SOL     OW39886   3.745  14.438  10.131
79330SOL    HW139887   3.832  14.472  10.110
79330SOL    HW239888   3.729  14.370  10.065
79331SOL     OW39889  14.190   6.352   3.159
79331SOL    HW139890  14.284   6.339   3.146
79331SOL    HW239891  14.182   6.445   3.182
79332SOL     OW39892   3.454  10.789   8.671
79332SOL    HW139893   3.422  10.861   8.726
79332SOL    HW239894   3.393  10.717   8.687
79333SOL     OW39895   6.838   3.903   7.266
79333SOL    HW139896   6.859   3.966   7.198
79333SOL    HW239897   6.785   3.836   7.223
79334SOL     OW39898  11.284  11.716   6.892
79334SOL    HW139899  11.204  11.727   6.841
79334SOL    HW239900  11.282  11.626   6.922
79335SOL     OW39901   8.556   9.467   8.065
79335SOL    HW139902   8.522   9.432   8.147
79335SOL    HW239903   8.481   9.469   8.006
79336SOL     OW39904  13.280   0.003   8.814
79336SOL    HW139905  13.347  14.824   8.844
79336SOL    HW239906  13.213  14.830   8.773
79337SOL     OW39907   4.918  11.849   4.337
79337SOL    HW139908   4.988  11.875   4.397
79337SOL    HW239909   4.871  11.779   4.383
79338SOL     OW39910  14.077   8.659   7.259
79338SOL    HW139911  14.170   8.648   7.239
79338SOL    HW239912  14.076   8.723   7.330
79339SOL     OW39913  14.439   8.661  11.002
79339SOL    HW139914  14.520   8.666  10.952
79339SOL    HW239915  14.446   8.580  11.052
79340SOL     OW39916   4.186   4.623   9.583
79340SOL    HW139917   4.193   4.714   9.552
79340SOL    HW239918   4.115   4.586   9.532
79341SOL     OW39919   4.928   0.730  12.243
79341SOL    HW139920   4.989   0.723  12.170
79341SOL    HW239921   4.935   0.821  12.273
79342SOL     OW39922  10.915   1.184   1.233
79342SOL    HW139923  10.919   1.106   1.177
79342SOL    HW239924  10.993   1.234   1.207
79343SOL     OW39925  13.290   1.891   1.764
79343SOL    HW139926  13.356   1.866   1.828
79343SOL    HW239927  13.275   1.984   1.780
79344SOL     OW39928   5.389   2.278   9.645
79344SOL    HW139929   5.402   2.369   9.621
79344SOL    HW239930   5.301   2.276   9.684
79345SOL     OW39931  14.467  12.627   7.894
79345SOL    HW139932  14.445  12.694   7.829
79345SOL    HW239933  14.525  12.672   7.956
79346SOL     OW39934   0.706   4.584   8.934
79346SOL    HW139935   0.650   4.659   8.952
79346SOL    HW239936   0.691   4.565   8.842
79347SOL     OW39937  10.896   6.758  12.989
79347SOL    HW139938  10.909   6.771  13.083
79347SOL    HW239939  10.831   6.688  12.983
79348SOL     OW39940   3.085   3.775  11.477
79348SOL    HW139941   3.166   3.820  11.453
79348SOL    HW239942   3.038   3.763  11.394
79349SOL     OW39943  13.823   8.387   3.383
79349SOL    HW139944  13.735   8.393   3.419
79349SOL    HW239945  13.841   8.474   3.347
79350SOL     OW39946   7.563   0.629  12.881
79350SOL    HW139947   7.569   0.597  12.971
79350SOL    HW239948   7.560   0.724  12.889
79351SOL     OW39949  12.431  11.284   5.053
79351SOL    HW139950  12.413  11.287   4.959
79351SOL    HW239951  12.420  11.192   5.077
79352SOL     OW39952   3.560   0.537  12.038
79352SOL    HW139953   3.550   0.627  12.069
79352SOL    HW239954   3.512   0.484  12.101
79353SOL     OW39955   0.474   2.358   3.518
79353SOL    HW139956   0.557   2.404   3.507
79353SOL    HW239957   0.413   2.424   3.551
79354SOL     OW39958   0.421   9.777   9.106
79354SOL    HW139959   0.509   9.788   9.141
79354SOL    HW239960   0.416   9.683   9.086
79355SOL     OW39961   2.182  10.972  11.333
79355SOL    HW139962   2.139  10.897  11.291
79355SOL    HW239963   2.213  10.937  11.417
79356SOL     OW39964   2.070   4.126  14.036
79356SOL    HW139965   1.976   4.139  14.029
79356SOL    HW239966   2.103   4.134  13.947
79357SOL     OW39967  12.761   2.743   7.469
79357SOL    HW139968  12.734   2.680   7.535
79357SOL    HW239969  12.852   2.719   7.449
79358SOL     OW39970   0.759   7.498   0.230
79358SOL    HW139971   0.817   7.506   0.307
79358SOL    HW239972   0.772   7.579   0.182
79359SOL     OW39973  11.362   6.332   5.146
79359SOL    HW139974  11.437   6.350   5.203
79359SOL    HW239975  11.285   6.354   5.199
79360SOL     OW39976  12.835   8.070   0.342
79360SOL    HW139977  12.799   8.097   0.258
79360SOL    HW239978  12.768   8.013   0.380
79361SOL     OW39979   4.602   8.244   4.863
79361SOL    HW139980   4.547   8.232   4.940
79361SOL    HW239981   4.652   8.163   4.856
79362SOL     OW39982  14.606   8.443  14.339
79362SOL    HW139983  14.611   8.427  14.433
79362SOL    HW239984  14.647   8.366  14.299
79363SOL     OW39985   5.063   5.118   2.488
79363SOL    HW139986   5.026   5.044   2.440
79363SOL    HW239987   5.025   5.195   2.444
79364SOL     OW39988   2.615   2.694   8.677
79364SOL    HW139989   2.557   2.701   8.753
79364SOL    HW239990   2.677   2.625   8.700
79365SOL     OW39991   7.067  14.410  13.538
79365SOL    HW139992   7.049  14.357  13.616
79365SOL    HW239993   7.000  14.383  13.475
79366SOL     OW39994   4.011   4.042   4.787
79366SOL    HW139995   4.017   4.058   4.693
79366SOL    HW239996   3.982   4.125   4.824
79367SOL     OW39997   3.287  10.672   7.411
79367SOL    HW139998   3.379  10.695   7.419
79367SOL    HW239999   3.262  10.643   7.499
79368SOL     OW40000  11.141   5.777   7.335
79368SOL    HW140001  11.083   5.754   7.263
79368SOL    HW240002  11.168   5.692   7.371
79369SOL     OW40003   4.185   6.220   1.278
79369SOL    HW140004   4.126   6.150   1.308
79369SOL    HW240005   4.137   6.301   1.295
79370SOL     OW40006   6.752   3.816  13.792
79370SOL    HW140007   6.657   3.811  13.787
79370SOL    HW240008   6.774   3.906  13.767
79371SOL     OW40009   2.302  13.018   1.123
79371SOL    HW140010   2.392  12.996   1.100
79371SOL    HW240011   2.308  13.057   1.210
79372SOL     OW40012   7.373  12.297   9.960
79372SOL    HW140013   7.404  12.265   9.875
79372SOL    HW240014   7.366  12.219  10.014
79373SOL     OW40015   9.156   1.850   0.395
79373SOL    HW140016   9.177   1.942   0.410
79373SOL    HW240017   9.120   1.819   0.478
79374SOL     OW40018   0.098   9.799   7.241
79374SOL    HW140019   0.027   9.785   7.179
79374SOL    HW240020   0.055   9.809   7.326
79375SOL     OW40021   9.114  12.904   6.436
79375SOL    HW140022   9.176  12.955   6.385
79375SOL    HW240023   9.127  12.814   6.406
79376SOL     OW40024  10.073   4.751  14.086
79376SOL    HW140025  10.077   4.658  14.061
79376SOL    HW240026  10.025   4.751  14.169
79377SOL     OW40027   2.877   2.812  13.749
79377SOL    HW140028   2.868   2.736  13.805
79377SOL    HW240029   2.855   2.781  13.662
79378SOL     OW40030   2.639  12.506  10.918
79378SOL    HW140031   2.664  12.473  11.004
79378SOL    HW240032   2.578  12.578  10.936
79379SOL     OW40033  11.589  14.145   7.358
79379SOL    HW140034  11.683  14.160   7.362
79379SOL    HW240035  11.572  14.078   7.425
79380SOL     OW40036   9.156   9.791  13.087
79380SOL    HW140037   9.098   9.781  13.162
79380SOL    HW240038   9.220   9.856  13.114
79381SOL     OW40039   4.282  11.387   9.163
79381SOL    HW140040   4.243  11.353   9.083
79381SOL    HW240041   4.209  11.393   9.225
79382SOL     OW40042   9.119   7.458   6.456
79382SOL    HW140043   9.157   7.374   6.429
79382SOL    HW240044   9.108   7.507   6.374
79383SOL     OW40045  13.787  10.037  11.959
79383SOL    HW140046  13.825   9.952  11.979
79383SOL    HW240047  13.699  10.033  11.996
79384SOL     OW40048  11.216   0.899   1.220
79384SOL    HW140049  11.166   0.897   1.139
79384SOL    HW240050  11.178   0.972   1.270
79385SOL     OW40051   7.610   0.581   0.308
79385SOL    HW140052   7.637   0.638   0.381
79385SOL    HW240053   7.686   0.581   0.250
79386SOL     OW40054   8.117  13.778   0.754
79386SOL    HW140055   8.033  13.825   0.751
79386SOL    HW240056   8.171  13.829   0.815
79387SOL     OW40057   4.901   2.277  13.054
79387SOL    HW140058   4.890   2.368  13.084
79387SOL    HW240059   4.882   2.282  12.960
79388SOL     OW40060  11.873   8.298   2.344
79388SOL    HW140061  11.926   8.377   2.338
79388SOL    HW240062  11.783   8.329   2.354
79389SOL     OW40063   5.799  10.675   4.268
79389SOL    HW140064   5.886  10.692   4.302
79389SOL    HW240065   5.811  10.671   4.173
79390SOL     OW40066   1.699   9.844  12.031
79390SOL    HW140067   1.609   9.829  12.001
79390SOL    HW240068   1.729   9.919  11.980
79391SOL     OW40069  13.429   6.703   7.865
79391SOL    HW140070  13.473   6.645   7.927
79391SOL    HW240071  13.345   6.723   7.907
79392SOL     OW40072   7.779   9.725   8.610
79392SOL    HW140073   7.748   9.810   8.577
79392SOL    HW240074   7.794   9.739   8.703
79393SOL     OW40075   0.315   0.460   4.239
79393SOL    HW140076   0.234   0.423   4.274
79393SOL    HW240077   0.383   0.426   4.297
79394SOL     OW40078   7.348   2.139  12.826
79394SOL    HW140079   7.391   2.154  12.911
79394SOL    HW240080   7.277   2.078  12.846
79395SOL     OW40081   3.287   3.804   5.565
79395SOL    HW140082   3.305   3.810   5.659
79395SOL    HW240083   3.296   3.711   5.544
79396SOL     OW40084   3.281  14.437   6.213
79396SOL    HW140085   3.376  14.425   6.220
79396SOL    HW240086   3.268  14.531   6.220
79397SOL     OW40087   6.481   8.207  10.186
79397SOL    HW140088   6.470   8.155  10.266
79397SOL    HW240089   6.511   8.293  10.217
79398SOL     OW40090  11.569   1.489   0.382
79398SOL    HW140091  11.613   1.572   0.400
79398SOL    HW240092  11.545   1.455   0.468
79399SOL     OW40093   6.676   9.108   6.139
79399SOL    HW140094   6.654   9.030   6.190
79399SOL    HW240095   6.614   9.175   6.169
79400SOL     OW40096  11.161   5.736   5.734
79400SOL    HW140097  11.169   5.694   5.819
79400SOL    HW240098  11.122   5.669   5.678
79401SOL     OW40099   2.325   9.005   8.337
79401SOL    HW140100   2.350   8.935   8.277
79401SOL    HW240101   2.233   9.023   8.316
79402SOL     OW40102   9.506  10.941  12.282
79402SOL    HW140103   9.596  10.955  12.254
79402SOL    HW240104   9.468  11.029  12.287
79403SOL     OW40105   0.625   0.854   9.980
79403SOL    HW140106   0.598   0.857  10.072
79403SOL    HW240107   0.574   0.923   9.938
79404SOL     OW40108   0.492   7.527   9.424
79404SOL    HW140109   0.493   7.549   9.517
79404SOL    HW240110   0.451   7.602   9.382
79405SOL     OW40111   9.012   9.248   4.957
79405SOL    HW140112   8.945   9.301   4.915
79405SOL    HW240113   9.004   9.269   5.050
79406SOL     OW40114  14.518  14.372  14.208
79406SOL    HW140115  14.486  14.393  14.296
79406SOL    HW240116  14.443  14.335  14.163
79407SOL     OW40117   0.968   4.407  14.204
79407SOL    HW140118   1.028   4.332  14.198
79407SOL    HW240119   0.899   4.377  14.262
79408SOL     OW40120   0.075   5.808  14.169
79408SOL    HW140121   0.104   5.797  14.259
79408SOL    HW240122   0.084   5.902  14.152
79409SOL     OW40123   8.984  11.807  10.680
79409SOL    HW140124   9.004  11.720  10.644
79409SOL    HW240125   9.062  11.830  10.731
79410SOL     OW40126   1.779   1.102  11.465
79410SOL    HW140127   1.816   1.122  11.379
79410SOL    HW240128   1.794   1.182  11.516
79411SOL     OW40129   3.160   4.146   2.339
79411SOL    HW140130   3.168   4.177   2.249
79411SOL    HW240131   3.088   4.198   2.376
79412SOL     OW40132   4.135   3.539   7.340
79412SOL    HW140133   4.074   3.603   7.376
79412SOL    HW240134   4.133   3.554   7.246
79413SOL     OW40135   3.476   5.066   6.402
79413SOL    HW140136   3.448   5.001   6.467
79413SOL    HW240137   3.571   5.060   6.401
79414SOL     OW40138  11.861   8.186   7.115
79414SOL    HW140139  11.935   8.165   7.172
79414SOL    HW240140  11.901   8.225   7.037
79415SOL     OW40141   9.625   2.793   7.162
79415SOL    HW140142   9.595   2.883   7.153
79415SOL    HW240143   9.658   2.768   7.076
79416SOL     OW40144   5.059   0.703  10.863
79416SOL    HW140145   5.150   0.681  10.883
79416SOL    HW240146   5.012   0.620  10.866
79417SOL     OW40147   7.556   9.322   7.768
79417SOL    HW140148   7.650   9.341   7.762
79417SOL    HW240149   7.552   9.231   7.798
79418SOL     OW40150  11.502   4.990   6.424
79418SOL    HW140151  11.465   5.066   6.468
79418SOL    HW240152  11.545   4.939   6.493
79419SOL     OW40153  12.123   4.008  11.793
79419SOL    HW140154  12.068   3.948  11.843
79419SOL    HW240155  12.187   3.953  11.748
79420SOL     OW40156   3.222   0.244   3.018
79420SOL    HW140157   3.161   0.318   3.022
79420SOL    HW240158   3.165   0.167   3.021
79421SOL     OW40159   1.433   0.878  14.244
79421SOL    HW140160   1.359   0.818  14.247
79421SOL    HW240161   1.398   0.959  14.207
79422SOL     OW40162   4.081   1.378   4.062
79422SOL    HW140163   3.989   1.402   4.075
79422SOL    HW240164   4.080   1.313   3.992
79423SOL     OW40165  12.343   0.994   2.152
79423SOL    HW140166  12.355   1.088   2.137
79423SOL    HW240167  12.289   0.989   2.231
79424SOL     OW40168   4.265   9.638  10.738
79424SOL    HW140169   4.187   9.666  10.690
79424SOL    HW240170   4.330   9.619  10.671
79425SOL     OW40171   4.103  10.407  13.680
79425SOL    HW140172   4.135  10.324  13.714
79425SOL    HW240173   4.030  10.383  13.623
79426SOL     OW40174   6.706   6.062   7.014
79426SOL    HW140175   6.651   6.109   6.950
79426SOL    HW240176   6.705   6.117   7.092
79427SOL     OW40177   5.778   6.650   8.240
79427SOL    HW140178   5.692   6.621   8.272
79427SOL    HW240179   5.818   6.692   8.315
79428SOL     OW40180   1.948  14.679  12.898
79428SOL    HW140181   1.861  14.694  12.937
79428SOL    HW240182   1.982  14.767  12.881
79429SOL     OW40183  13.082  12.964  12.617
79429SOL    HW140184  12.987  12.965  12.628
79429SOL    HW240185  13.099  13.029  12.550
79430SOL     OW40186   3.091  10.718   2.958
79430SOL    HW140187   3.137  10.639   2.927
79430SOL    HW240188   3.150  10.790   2.935
79431SOL     OW40189  13.292  12.011   3.598
79431SOL    HW140190  13.320  12.053   3.680
79431SOL    HW240191  13.319  11.920   3.608
79432SOL     OW40192  11.630  10.675   9.403
79432SOL    HW140193  11.634  10.765   9.371
79432SOL    HW240194  11.722  10.649   9.412
79433SOL     OW40195  11.383  10.984  13.342
79433SOL    HW140196  11.380  10.896  13.378
79433SOL    HW240197  11.296  10.998  13.305
79434SOL     OW40198  12.226  13.015  12.252
79434SOL    HW140199  12.237  13.023  12.157
79434SOL    HW240200  12.157  12.949  12.263
79435SOL     OW40201   4.472  14.462   6.441
79435SOL    HW140202   4.482  14.372   6.472
79435SOL    HW240203   4.384  14.465   6.405
79436SOL     OW40204   8.173   9.276   6.856
79436SOL    HW140205   8.171   9.365   6.892
79436SOL    HW240206   8.135   9.286   6.768
79437SOL     OW40207   4.234   7.746  11.798
79437SOL    HW140208   4.186   7.825  11.822
79437SOL    HW240209   4.207   7.681  11.862
79438SOL     OW40210  12.344   0.708   0.428
79438SOL    HW140211  12.307   0.735   0.512
79438SOL    HW240212  12.439   0.707   0.443
79439SOL     OW40213   5.145   9.084  11.775
79439SOL    HW140214   5.069   9.140  11.764
79439SOL    HW240215   5.163   9.051  11.687
79440SOL     OW40216  10.079  14.478  14.005
79440SOL    HW140217  10.144  14.409  14.017
79440SOL    HW240218  10.066  14.514  14.093
79441SOL     OW40219   7.466   6.858   5.877
79441SOL    HW140220   7.455   6.764   5.863
79441SOL    HW240221   7.520   6.888   5.804
79442SOL     OW40222  12.767  10.342  10.492
79442SOL    HW140223  12.699  10.376  10.551
79442SOL    HW240224  12.823  10.288  10.547
79443SOL     OW40225   0.496   2.304   0.331
79443SOL    HW140226   0.458   2.255   0.258
79443SOL    HW240227   0.571   2.251   0.359
79444SOL     OW40228   2.573  10.048   0.993
79444SOL    HW140229   2.662  10.042   1.028
79444SOL    HW240230   2.529  10.109   1.051
79445SOL     OW40231  11.774   2.854  11.998
79445SOL    HW140232  11.856   2.831  11.956
79445SOL    HW240233  11.733   2.769  12.017
79446SOL     OW40234   9.906  11.100  14.468
79446SOL    HW140235   9.991  11.144  14.464
79446SOL    HW240236   9.913  11.030  14.403
79447SOL     OW40237   6.768  13.130   0.999
79447SOL    HW140238   6.704  13.193   0.968
79447SOL    HW240239   6.820  13.178   1.064
79448SOL     OW40240   4.060   2.954  12.257
79448SOL    HW140241   4.031   2.863  12.258
79448SOL    HW240242   4.123   2.959  12.329
79449SOL     OW40243   7.570  12.022   3.246
79449SOL    HW140244   7.649  11.971   3.262
79449SOL    HW240245   7.534  12.040   3.333
79450SOL     OW40246  12.715   2.080  10.661
79450SOL    HW140247  12.746   1.991  10.678
79450SOL    HW240248  12.775   2.113  10.593
79451SOL     OW40249  13.773   0.017   7.731
79451SOL    HW140250  13.759  14.809   7.760
79451SOL    HW240251  13.743   0.071   7.805
79452SOL     OW40252   7.889   3.431  11.917
79452SOL    HW140253   7.843   3.506  11.955
79452SOL    HW240254   7.944   3.397  11.988
79453SOL     OW40255   7.515   5.112  13.196
79453SOL    HW140256   7.489   5.161  13.275
79453SOL    HW240257   7.601   5.149  13.173
79454SOL     OW40258   2.865   1.494  12.074
79454SOL    HW140259   2.952   1.476  12.037
79454SOL    HW240260   2.805   1.439  12.023
79455SOL     OW40261   2.624   1.541   9.241
79455SOL    HW140262   2.702   1.494   9.273
79455SOL    HW240263   2.647   1.633   9.251
79456SOL     OW40264   7.049   3.894   9.003
79456SOL    HW140265   7.013   3.880   8.915
79456SOL    HW240266   6.974   3.887   9.061
79457SOL     OW40267   9.482   9.304   5.537
79457SOL    HW140268   9.448   9.393   5.525
79457SOL    HW240269   9.405   9.248   5.536
79458SOL     OW40270   0.125   5.939   4.844
79458SOL    HW140271   0.058   5.968   4.783
79458SOL    HW240272   0.189   6.010   4.845
79459SOL     OW40273  14.790   4.870   0.186
79459SOL    HW140274  14.870   4.855   0.236
79459SOL    HW240275  14.734   4.919   0.246
79460SOL     OW40276   9.288  13.658   1.820
79460SOL    HW140277   9.362  13.662   1.881
79460SOL    HW240278   9.257  13.568   1.825
79461SOL     OW40279   2.700   9.843  12.224
79461SOL    HW140280   2.625   9.820  12.170
79461SOL    HW240281   2.678   9.928  12.262
79462SOL     OW40282   3.154  14.868  10.070
79462SOL    HW140283   3.123   0.073  10.095
79462SOL    HW240284   3.228  14.851  10.128
79463SOL     OW40285   5.600   0.088  10.091
79463SOL    HW140286   5.610   0.045  10.007
79463SOL    HW240287   5.506   0.103  10.100
79464SOL     OW40288   4.010   5.853  13.511
79464SOL    HW140289   3.948   5.781  13.526
79464SOL    HW240290   4.061   5.858  13.592
79465SOL     OW40291   6.164   0.487   6.288
79465SOL    HW140292   6.229   0.555   6.303
79465SOL    HW240293   6.216   0.410   6.264
79466SOL     OW40294   8.931   9.245   8.769
79466SOL    HW140295   9.010   9.298   8.758
79466SOL    HW240296   8.914   9.209   8.683
79467SOL     OW40297  11.525  14.322   4.025
79467SOL    HW140298  11.561  14.353   4.108
79467SOL    HW240299  11.478  14.241   4.047
79468SOL     OW40300   3.942   0.089  12.050
79468SOL    HW140301   3.901   0.163  12.094
79468SOL    HW240302   3.903   0.088  11.963
79469SOL     OW40303   2.032   1.821  10.400
79469SOL    HW140304   1.996   1.768  10.329
79469SOL    HW240305   2.122   1.839  10.373
79470SOL     OW40306  13.556   2.444   4.707
79470SOL    HW140307  13.521   2.531   4.728
79470SOL    HW240308  13.480   2.392   4.685
79471SOL     OW40309   7.172   5.574   0.688
79471SOL    HW140310   7.260   5.551   0.657
79471SOL    HW240311   7.122   5.590   0.608
79472SOL     OW40312   6.311   7.897  11.923
79472SOL    HW140313   6.373   7.857  11.863
79472SOL    HW240314   6.365   7.935  11.992
79473SOL     OW40315   2.993   4.446   5.830
79473SOL    HW140316   3.009   4.417   5.740
79473SOL    HW240317   2.904   4.482   5.828
79474SOL     OW40318  11.251   5.721   9.246
79474SOL    HW140319  11.252   5.707   9.151
79474SOL    HW240320  11.185   5.789   9.259
79475SOL     OW40321  11.232   9.242  14.378
79475SOL    HW140322  11.314   9.291  14.390
79475SOL    HW240323  11.164   9.301  14.412
79476SOL     OW40324   1.752  14.344  11.184
79476SOL    HW140325   1.736  14.435  11.160
79476SOL    HW240326   1.674  14.297  11.155
79477SOL     OW40327   9.118  10.136  12.958
79477SOL    HW140328   9.133  10.148  12.865
79477SOL    HW240329   9.170  10.058  12.980
79478SOL     OW40330   0.761   7.718   1.691
79478SOL    HW140331   0.794   7.708   1.602
79478SOL    HW240332   0.709   7.798   1.689
79479SOL     OW40333  14.336   2.548   4.007
79479SOL    HW140334  14.340   2.501   4.090
79479SOL    HW240335  14.242   2.556   3.989
79480SOL     OW40336  14.870  11.112   4.486
79480SOL    HW140337  14.781  11.108   4.520
79480SOL    HW240338   0.041  11.132   4.563
79481SOL     OW40339   2.924   3.588  11.599
79481SOL    HW140340   2.984   3.648  11.555
79481SOL    HW240341   2.921   3.619  11.689
79482SOL     OW40342  13.229  11.642   8.318
79482SOL    HW140343  13.252  11.593   8.239
79482SOL    HW240344  13.259  11.731   8.300
79483SOL     OW40345   4.471  14.615   2.639
79483SOL    HW140346   4.492  14.672   2.713
79483SOL    HW240347   4.376  14.624   2.629
79484SOL     OW40348  12.600   6.450   6.474
79484SOL    HW140349  12.564   6.504   6.403
79484SOL    HW240350  12.653   6.384   6.430
79485SOL     OW40351  12.560  10.005   8.015
79485SOL    HW140352  12.592  10.073   7.955
79485SOL    HW240353  12.545   9.929   7.958
79486SOL     OW40354  12.651   7.217   4.554
79486SOL    HW140355  12.631   7.253   4.468
79486SOL    HW240356  12.740   7.184   4.547
79487SOL     OW40357  14.348   5.086  11.996
79487SOL    HW140358  14.280   5.124  12.051
79487SOL    HW240359  14.316   4.998  11.975
79488SOL     OW40360  12.566  14.016   8.158
79488SOL    HW140361  12.523  13.930   8.156
79488SOL    HW240362  12.658  13.997   8.141
79489SOL     OW40363   6.674   5.754   9.360
79489SOL    HW140364   6.689   5.841   9.397
79489SOL    HW240365   6.663   5.697   9.435
79490SOL     OW40366   9.938   7.911   6.916
79490SOL    HW140367   9.865   7.971   6.898
79490SOL    HW240368   9.953   7.921   7.010
79491SOL     OW40369   5.663  11.411  10.592
79491SOL    HW140370   5.696  11.329  10.630
79491SOL    HW240371   5.568  11.398  10.586
79492SOL     OW40372   0.617   5.480   8.371
79492SOL    HW140373   0.523   5.483   8.354
79492SOL    HW240374   0.651   5.562   8.336
79493SOL     OW40375   5.807   8.401   8.421
79493SOL    HW140376   5.866   8.475   8.435
79493SOL    HW240377   5.827   8.341   8.492
79494SOL     OW40378   7.863   7.783   6.737
79494SOL    HW140379   7.937   7.841   6.719
79494SOL    HW240380   7.892   7.728   6.810
79495SOL     OW40381   7.394   7.698   5.154
79495SOL    HW140382   7.309   7.726   5.191
79495SOL    HW240383   7.453   7.696   5.229
79496SOL     OW40384   7.758   8.228   4.140
79496SOL    HW140385   7.847   8.262   4.135
79496SOL    HW240386   7.767   8.143   4.183
79497SOL     OW40387  13.439  14.718   8.948
79497SOL    HW140388  13.406  14.637   8.988
79497SOL    HW240389  13.515  14.741   9.002
79498SOL     OW40390   3.313   3.501   7.249
79498SOL    HW140391   3.356   3.427   7.205
79498SOL    HW240392   3.245   3.530   7.187
79499SOL     OW40393  14.358  13.240   8.787
79499SOL    HW140394  14.288  13.198   8.838
79499SOL    HW240395  14.389  13.311   8.844
79500SOL     OW40396   0.157   1.719  13.439
79500SOL    HW140397   0.106   1.790  13.399
79500SOL    HW240398   0.238   1.717  13.388
79501SOL     OW40399   9.936   7.976   6.593
79501SOL    HW140400  10.008   8.032   6.622
79501SOL    HW240401   9.979   7.899   6.557
79502SOL     OW40402   8.559   4.355   7.762
79502SOL    HW140403   8.514   4.439   7.773
79502SOL    HW240404   8.625   4.355   7.831
79503SOL     OW40405   8.675   0.753  10.080
79503SOL    HW140406   8.650   0.768  10.171
79503SOL    HW240407   8.658   0.837  10.036
79504SOL     OW40408   0.345  14.812   1.749
79504SOL    HW140409   0.416  14.750   1.736
79504SOL    HW240410   0.265  14.760   1.744
79505SOL     OW40411  11.117   8.966   6.383
79505SOL    HW140412  11.083   8.935   6.467
79505SOL    HW240413  11.054   8.935   6.319
79506SOL     OW40414   5.740   4.615   5.099
79506SOL    HW140415   5.721   4.708   5.111
79506SOL    HW240416   5.676   4.570   5.155
79507SOL     OW40417  13.880   5.047   6.292
79507SOL    HW140418  13.803   5.030   6.346
79507SOL    HW240419  13.846   5.063   6.205
79508SOL     OW40420   3.985  12.143   4.523
79508SOL    HW140421   4.003  12.093   4.444
79508SOL    HW240422   3.953  12.079   4.587
79509SOL     OW40423   6.066  13.109  10.378
79509SOL    HW140424   6.044  13.179  10.317
79509SOL    HW240425   6.018  13.130  10.458
79510SOL     OW40426  12.677  13.836   8.850
79510SOL    HW140427  12.696  13.886   8.771
79510SOL    HW240428  12.714  13.750   8.833
79511SOL     OW40429  11.730   8.451   7.190
79511SOL    HW140430  11.823   8.434   7.173
79511SOL    HW240431  11.730   8.522   7.255
79512SOL     OW40432   6.984  11.995   0.315
79512SOL    HW140433   6.982  12.038   0.401
79512SOL    HW240434   6.895  11.963   0.302
79513SOL     OW40435   8.338   2.452   7.923
79513SOL    HW140436   8.333   2.495   7.838
79513SOL    HW240437   8.253   2.468   7.964
79514SOL     OW40438   7.998  12.327   7.532
79514SOL    HW140439   7.990  12.266   7.459
79514SOL    HW240440   7.941  12.400   7.509
79515SOL     OW40441   7.024   2.778   6.585
79515SOL    HW140442   7.022   2.695   6.538
79515SOL    HW240443   6.978   2.760   6.667
79516SOL     OW40444   3.813   2.822  14.400
79516SOL    HW140445   3.857   2.899  14.363
79516SOL    HW240446   3.849   2.748  14.351
79517SOL     OW40447   1.230   3.277   6.438
79517SOL    HW140448   1.213   3.359   6.393
79517SOL    HW240449   1.246   3.302   6.529
79518SOL     OW40450  12.462   3.232   1.679
79518SOL    HW140451  12.486   3.309   1.731
79518SOL    HW240452  12.450   3.162   1.744
79519SOL     OW40453   3.209   8.477  13.348
79519SOL    HW140454   3.251   8.529  13.416
79519SOL    HW240455   3.271   8.478  13.275
79520SOL     OW40456  13.685   5.978   3.552
79520SOL    HW140457  13.705   5.912   3.618
79520SOL    HW240458  13.654   6.054   3.601
79521SOL     OW40459  11.200   4.277   2.567
79521SOL    HW140460  11.257   4.253   2.640
79521SOL    HW240461  11.120   4.226   2.582
79522SOL     OW40462   3.525   1.029   7.710
79522SOL    HW140463   3.532   0.976   7.630
79522SOL    HW240464   3.559   0.972   7.779
79523SOL     OW40465   4.250   5.100   0.856
79523SOL    HW140466   4.293   5.017   0.837
79523SOL    HW240467   4.321   5.160   0.878
79524SOL     OW40468   4.377  10.807   9.369
79524SOL    HW140469   4.372  10.899   9.342
79524SOL    HW240470   4.455  10.803   9.424
79525SOL     OW40471   8.816  13.294  11.485
79525SOL    HW140472   8.802  13.355  11.557
79525SOL    HW240473   8.783  13.210  11.517
79526SOL     OW40474   0.206   5.599   6.216
79526SOL    HW140475   0.212   5.690   6.244
79526SOL    HW240476   0.255   5.550   6.281
79527SOL     OW40477   2.943   9.158  10.529
79527SOL    HW140478   2.870   9.138  10.588
79527SOL    HW240479   2.901   9.185  10.447
79528SOL     OW40480   0.586   5.943  12.660
79528SOL    HW140481   0.595   5.890  12.581
79528SOL    HW240482   0.672   5.940  12.701
79529SOL     OW40483   6.123  10.167   5.946
79529SOL    HW140484   6.153  10.076   5.949
79529SOL    HW240485   6.202  10.219   5.956
79530SOL     OW40486   9.944   0.718  12.943
79530SOL    HW140487   9.912   0.806  12.965
79530SOL    HW240488   9.865   0.665  12.936
79531SOL     OW40489   4.189   9.359   1.135
79531SOL    HW140490   4.152   9.282   1.178
79531SOL    HW240491   4.187   9.428   1.202
79532SOL     OW40492  12.804  12.771   4.775
79532SOL    HW140493  12.886  12.820   4.765
79532SOL    HW240494  12.737  12.839   4.786
79533SOL     OW40495  11.622  14.274  13.135
79533SOL    HW140496  11.558  14.236  13.195
79533SOL    HW240497  11.689  14.206  13.126
79534SOL     OW40498  12.137  10.360  12.746
79534SOL    HW140499  12.185  10.433  12.707
79534SOL    HW240500  12.095  10.316  12.673
79535SOL     OW40501   9.256  11.455   0.539
79535SOL    HW140502   9.206  11.536   0.554
79535SOL    HW240503   9.304  11.442   0.621
79536SOL     OW40504   5.995   5.769  11.381
79536SOL    HW140505   5.900   5.763  11.371
79536SOL    HW240506   6.009   5.781  11.475
79537SOL     OW40507  12.590  12.457  14.402
79537SOL    HW140508  12.663  12.519  14.407
79537SOL    HW240509  12.521  12.506  14.358
79538SOL     OW40510   7.206   6.219   7.728
79538SOL    HW140511   7.194   6.284   7.798
79538SOL    HW240512   7.205   6.270   7.647
79539SOL     OW40513   1.629   8.572   1.064
79539SOL    HW140514   1.720   8.547   1.047
79539SOL    HW240515   1.577   8.507   1.016
79540SOL     OW40516  10.890   0.530   5.462
79540SOL    HW140517  10.964   0.575   5.422
79540SOL    HW240518  10.913   0.523   5.554
79541SOL     OW40519   2.610   9.918   7.852
79541SOL    HW140520   2.523   9.880   7.842
79541SOL    HW240521   2.670   9.847   7.830
79542SOL     OW40522  11.202   9.956   6.006
79542SOL    HW140523  11.165   9.987   5.924
79542SOL    HW240524  11.175  10.022   6.071
79543SOL     OW40525   2.574  11.661   1.826
79543SOL    HW140526   2.547  11.725   1.892
79543SOL    HW240527   2.525  11.582   1.848
79544SOL     OW40528   7.857   9.058   2.641
79544SOL    HW140529   7.828   9.011   2.720
79544SOL    HW240530   7.869   8.990   2.575
79545SOL     OW40531   8.385   5.463  10.013
79545SOL    HW140532   8.361   5.457   9.921
79545SOL    HW240533   8.459   5.525  10.014
79546SOL     OW40534  10.619   8.529   3.662
79546SOL    HW140535  10.679   8.523   3.736
79546SOL    HW240536  10.562   8.453   3.671
79547SOL     OW40537  10.798  12.709   9.496
79547SOL    HW140538  10.733  12.727   9.565
79547SOL    HW240539  10.825  12.796   9.467
79548SOL     OW40540  11.364   7.357  13.603
79548SOL    HW140541  11.331   7.348  13.514
79548SOL    HW240542  11.343   7.274  13.645
79549SOL     OW40543  13.491  11.231   7.578
79549SOL    HW140544  13.519  11.207   7.490
79549SOL    HW240545  13.571  11.227   7.630
79550SOL     OW40546  14.466   1.371  14.303
79550SOL    HW140547  14.535   1.316  14.266
79550SOL    HW240548  14.501   1.460  14.299
79551SOL     OW40549   4.352  14.365   8.749
79551SOL    HW140550   4.439  14.398   8.770
79551SOL    HW240551   4.368  14.294   8.686
79552SOL     OW40552  11.532   5.749  10.750
79552SOL    HW140553  11.446   5.725  10.716
79552SOL    HW240554  11.539   5.702  10.833
79553SOL     OW40555   1.739   7.946   9.825
79553SOL    HW140556   1.740   8.018   9.889
79553SOL    HW240557   1.788   7.980   9.751
79554SOL     OW40558  14.481   6.593   5.481
79554SOL    HW140559  14.445   6.644   5.409
79554SOL    HW240560  14.575   6.613   5.478
79555SOL     OW40561   8.639   5.909   0.128
79555SOL    HW140562   8.707   5.961   0.086
79555SOL    HW240563   8.558   5.956   0.108
79556SOL     OW40564  14.595  11.511   6.989
79556SOL    HW140565  14.616  11.507   6.896
79556SOL    HW240566  14.678  11.535   7.031
79557SOL     OW40567   7.503   0.763  14.414
79557SOL    HW140568   7.559   0.834  14.445
79557SOL    HW240569   7.494   0.780  14.320
79558SOL     OW40570  11.101   6.776  10.974
79558SOL    HW140571  11.156   6.788  10.896
79558SOL    HW240572  11.139   6.835  11.039
79559SOL     OW40573  12.392   3.625   8.888
79559SOL    HW140574  12.413   3.712   8.852
79559SOL    HW240575  12.470   3.573   8.872
79560SOL     OW40576  14.587  10.132   1.036
79560SOL    HW140577  14.492  10.131   1.052
79560SOL    HW240578  14.608  10.041   1.014
79561SOL     OW40579   1.487   0.964   7.633
79561SOL    HW140580   1.497   0.870   7.618
79561SOL    HW240581   1.393   0.980   7.623
79562SOL     OW40582  12.565   0.185   4.241
79562SOL    HW140583  12.600   0.218   4.324
79562SOL    HW240584  12.470   0.188   4.253
79563SOL     OW40585   6.774   9.055  13.211
79563SOL    HW140586   6.857   9.050  13.163
79563SOL    HW240587   6.800   9.065  13.302
79564SOL     OW40588   7.109   5.295   5.256
79564SOL    HW140589   7.131   5.373   5.204
79564SOL    HW240590   7.180   5.288   5.320
79565SOL     OW40591   2.996   9.287   1.704
79565SOL    HW140592   3.032   9.212   1.656
79565SOL    HW240593   3.028   9.364   1.657
79566SOL     OW40594   3.401  11.715  14.847
79566SOL    HW140595   3.360  11.680   0.044
79566SOL    HW240596   3.391  11.645  14.782
79567SOL     OW40597  10.677   5.251   0.232
79567SOL    HW140598  10.592   5.282   0.199
79567SOL    HW240599  10.655   5.178   0.289
79568SOL     OW40600  12.668   2.856  11.631
79568SOL    HW140601  12.708   2.871  11.546
79568SOL    HW240602  12.621   2.937  11.651
79569SOL     OW40603  13.851  13.409   8.567
79569SOL    HW140604  13.827  13.471   8.499
79569SOL    HW240605  13.938  13.437   8.596
79570SOL     OW40606  10.286   3.292   8.778
79570SOL    HW140607  10.354   3.320   8.716
79570SOL    HW240608  10.296   3.353   8.852
79571SOL     OW40609   5.395  12.864   7.289
79571SOL    HW140610   5.470  12.862   7.349
79571SOL    HW240611   5.409  12.944   7.238
79572SOL     OW40612   1.855  12.478  13.594
79572SOL    HW140613   1.884  12.387  13.604
79572SOL    HW240614   1.855  12.493  13.500
79573SOL     OW40615   3.304  13.302   7.010
79573SOL    HW140616   3.254  13.293   7.091
79573SOL    HW240617   3.374  13.237   7.018
79574SOL     OW40618   5.852   5.670  13.911
79574SOL    HW140619   5.930   5.619  13.936
79574SOL    HW240620   5.836   5.728  13.985
79575SOL     OW40621   8.714  14.619   1.450
79575SOL    HW140622   8.622  14.591   1.455
79575SOL    HW240623   8.752  14.594   1.534
79576SOL     OW40624   6.939  13.609   1.086
79576SOL    HW140625   6.973  13.538   1.032
79576SOL    HW240626   7.013  13.670   1.094
79577SOL     OW40627  12.692   4.491   4.536
79577SOL    HW140628  12.765   4.492   4.475
79577SOL    HW240629  12.643   4.412   4.515
79578SOL     OW40630  11.988   9.833   7.224
79578SOL    HW140631  12.014   9.859   7.313
79578SOL    HW240632  12.055   9.871   7.168
79579SOL     OW40633  10.855   5.127  14.449
79579SOL    HW140634  10.857   5.108  14.355
79579SOL    HW240635  10.910   5.205  14.458
79580SOL     OW40636   2.998   5.553   1.917
79580SOL    HW140637   2.958   5.621   1.971
79580SOL    HW240638   2.961   5.566   1.830
79581SOL     OW40639   2.505   7.673  13.954
79581SOL    HW140640   2.582   7.617  13.949
79581SOL    HW240641   2.434   7.621  13.916
79582SOL     OW40642   4.167  14.111   4.670
79582SOL    HW140643   4.103  14.171   4.631
79582SOL    HW240644   4.132  14.091   4.756
79583SOL     OW40645   2.790   0.987  11.345
79583SOL    HW140646   2.817   1.003  11.255
79583SOL    HW240647   2.702   1.025  11.351
79584SOL     OW40648   5.445   7.304   2.149
79584SOL    HW140649   5.368   7.307   2.093
79584SOL    HW240650   5.487   7.389   2.137
79585SOL     OW40651   4.106   1.281  14.551
79585SOL    HW140652   4.151   1.321  14.477
79585SOL    HW240653   4.103   1.187  14.530
79586SOL     OW40654   7.767   2.681   9.006
79586SOL    HW140655   7.766   2.774   8.985
79586SOL    HW240656   7.701   2.642   8.950
79587SOL     OW40657  11.611   9.476  12.953
79587SOL    HW140658  11.671   9.433  13.014
79587SOL    HW240659  11.540   9.413  12.942
79588SOL     OW40660  10.231   5.253   5.367
79588SOL    HW140661  10.301   5.314   5.392
79588SOL    HW240662  10.253   5.226   5.278
79589SOL     OW40663   6.814   9.072   8.062
79589SOL    HW140664   6.755   9.001   8.039
79589SOL    HW240665   6.901   9.032   8.064
79590SOL     OW40666   9.323  11.809   6.966
79590SOL    HW140667   9.272  11.775   6.892
79590SOL    HW240668   9.272  11.788   7.043
79591SOL     OW40669  10.683  13.417   2.170
79591SOL    HW140670  10.668  13.447   2.259
79591SOL    HW240671  10.749  13.476   2.134
79592SOL     OW40672  13.459   7.660  10.705
79592SOL    HW140673  13.431   7.737  10.754
79592SOL    HW240674  13.494   7.694  10.623
79593SOL     OW40675  11.675   3.897  10.080
79593SOL    HW140676  11.611   3.908  10.009
79593SOL    HW240677  11.645   3.956  10.149
79594SOL     OW40678   2.124  12.477   5.579
79594SOL    HW140679   2.128  12.404   5.641
79594SOL    HW240680   2.041  12.465   5.533
79595SOL     OW40681  11.388   0.086   4.430
79595SOL    HW140682  11.457   0.087   4.364
79595SOL    HW240683  11.318   0.033   4.390
79596SOL     OW40684  13.696   5.116   4.226
79596SOL    HW140685  13.689   5.111   4.131
79596SOL    HW240686  13.790   5.112   4.243
79597SOL     OW40687   6.391   4.189   7.691
79597SOL    HW140688   6.318   4.251   7.691
79597SOL    HW240689   6.360   4.116   7.637
79598SOL     OW40690   8.206   0.241   8.790
79598SOL    HW140691   8.289   0.255   8.745
79598SOL    HW240692   8.199   0.147   8.801
79599SOL     OW40693   3.968  13.378  12.189
79599SOL    HW140694   4.032  13.446  12.209
79599SOL    HW240695   3.894  13.425  12.150
79600SOL     OW40696   1.397   3.033   4.368
79600SOL    HW140697   1.399   3.080   4.284
79600SOL    HW240698   1.304   3.030   4.391
79601SOL     OW40699  14.702   6.593   1.926
79601SOL    HW140700  14.680   6.516   1.872
79601SOL    HW240701  14.797   6.587   1.937
79602SOL     OW40702   0.400   6.439   1.725
79602SOL    HW140703   0.345   6.385   1.669
79602SOL    HW240704   0.469   6.379   1.755
79603SOL     OW40705   4.491  13.503   5.746
79603SOL    HW140706   4.436  13.545   5.813
79603SOL    HW240707   4.520  13.421   5.786
79604SOL     OW40708   9.690   6.706   3.842
79604SOL    HW140709   9.611   6.729   3.795
79604SOL    HW240710   9.663   6.702   3.934
79605SOL     OW40711   1.038  13.692   0.267
79605SOL    HW140712   0.947  13.667   0.259
79605SOL    HW240713   1.044  13.738   0.350
79606SOL     OW40714   6.655   1.829   0.036
79606SOL    HW140715   6.707   1.900  14.881
79606SOL    HW240716   6.685   1.750  14.872
79607SOL     OW40717   8.280  11.581   5.749
79607SOL    HW140718   8.374  11.573   5.764
79607SOL    HW240719   8.242  11.577   5.837
79608SOL     OW40720   1.874   1.704   6.885
79608SOL    HW140721   1.932   1.759   6.832
79608SOL    HW240722   1.801   1.761   6.908
79609SOL     OW40723   1.061   0.576  12.396
79609SOL    HW140724   1.044   0.524  12.474
79609SOL    HW240725   1.045   0.516  12.323
79610SOL     OW40726   3.485   6.794   5.572
79610SOL    HW140727   3.415   6.852   5.543
79610SOL    HW240728   3.462   6.709   5.535
79611SOL     OW40729   3.417   8.777   3.534
79611SOL    HW140730   3.375   8.765   3.449
79611SOL    HW240731   3.470   8.856   3.523
79612SOL     OW40732   8.426  14.236  11.304
79612SOL    HW140733   8.484  14.311  11.290
79612SOL    HW240734   8.345  14.259  11.259
79613SOL     OW40735   4.969  11.060   7.845
79613SOL    HW140736   5.054  11.024   7.871
79613SOL    HW240737   4.929  11.088   7.927
79614SOL     OW40738   2.717   8.881   4.138
79614SOL    HW140739   2.733   8.933   4.059
79614SOL    HW240740   2.777   8.918   4.203
79615SOL     OW40741   4.106   4.444   8.461
79615SOL    HW140742   4.118   4.476   8.550
79615SOL    HW240743   4.192   4.452   8.420
79616SOL     OW40744   5.223  10.092   3.534
79616SOL    HW140745   5.138  10.079   3.493
79616SOL    HW240746   5.282  10.032   3.488
79617SOL     OW40747   9.004   8.169   5.472
79617SOL    HW140748   9.094   8.136   5.474
79617SOL    HW240749   8.972   8.158   5.562
79618SOL     OW40750  11.572   8.131   8.638
79618SOL    HW140751  11.643   8.195   8.646
79618SOL    HW240752  11.527   8.135   8.722
79619SOL     OW40753   4.645   6.558   6.797
79619SOL    HW140754   4.573   6.543   6.735
79619SOL    HW240755   4.711   6.493   6.774
79620SOL     OW40756  13.927   5.770  10.950
79620SOL    HW140757  13.991   5.795  11.017
79620SOL    HW240758  13.975   5.712  10.892
79621SOL     OW40759  11.750   4.592   4.988
79621SOL    HW140760  11.757   4.651   5.064
79621SOL    HW240761  11.741   4.651   4.913
79622SOL     OW40762   0.295   7.446  10.004
79622SOL    HW140763   0.324   7.449   9.913
79622SOL    HW240764   0.219   7.504  10.007
79623SOL     OW40765  12.771   9.074   5.905
79623SOL    HW140766  12.704   9.081   5.838
79623SOL    HW240767  12.733   9.017   5.972
79624SOL     OW40768  14.559   4.890   8.065
79624SOL    HW140769  14.515   4.812   8.100
79624SOL    HW240770  14.581   4.867   7.975
79625SOL     OW40771   8.172   1.379   4.779
79625SOL    HW140772   8.140   1.346   4.863
79625SOL    HW240773   8.171   1.303   4.722
79626SOL     OW40774   3.546   5.281  14.733
79626SOL    HW140775   3.580   5.192  14.731
79626SOL    HW240776   3.619   5.335  14.766
79627SOL     OW40777   2.003   2.470  12.788
79627SOL    HW140778   2.095   2.484  12.809
79627SOL    HW240779   1.961   2.459  12.874
79628SOL     OW40780   0.263   8.898  12.553
79628SOL    HW140781   0.305   8.823  12.511
79628SOL    HW240782   0.304   8.974  12.511
79629SOL     OW40783   0.041   8.764   8.912
79629SOL    HW140784   0.076   8.774   9.001
79629SOL    HW240785   0.106   8.805   8.855
79630SOL     OW40786  12.690  13.824   3.975
79630SOL    HW140787  12.672  13.888   3.905
79630SOL    HW240788  12.634  13.750   3.955
79631SOL     OW40789   9.046  11.351  11.271
79631SOL    HW140790   8.993  11.273  11.255
79631SOL    HW240791   9.082  11.374  11.186
79632SOL     OW40792   9.305  11.831  11.067
79632SOL    HW140793   9.317  11.795  11.155
79632SOL    HW240794   9.246  11.770  11.023
79633SOL     OW40795   1.410   5.026   9.514
79633SOL    HW140796   1.464   5.053   9.439
79633SOL    HW240797   1.469   4.973   9.568
79634SOL     OW40798  12.825   1.498   7.493
79634SOL    HW140799  12.754   1.439   7.519
79634SOL    HW240800  12.788   1.549   7.421
79635SOL     OW40801   5.683   7.435   2.423
79635SOL    HW140802   5.695   7.471   2.335
79635SOL    HW240803   5.764   7.385   2.440
79636SOL     OW40804  14.304  10.318  14.713
79636SOL    HW140805  14.293  10.247  14.650
79636SOL    HW240806  14.233  10.379  14.694
79637SOL     OW40807  14.273  14.048   4.148
79637SOL    HW140808  14.332  13.977   4.173
79637SOL    HW240809  14.311  14.127   4.187
79638SOL     OW40810  10.234   2.398  14.670
79638SOL    HW140811  10.225   2.325  14.609
79638SOL    HW240812  10.328   2.413  14.676
79639SOL     OW40813   6.705  11.913   4.323
79639SOL    HW140814   6.614  11.886   4.333
79639SOL    HW240815   6.737  11.922   4.413
79640SOL     OW40816   1.265  10.076   2.675
79640SOL    HW140817   1.276  10.171   2.682
79640SOL    HW240818   1.233  10.050   2.762
79641SOL     OW40819   0.587  11.735  14.490
79641SOL    HW140820   0.605  11.761  14.580
79641SOL    HW240821   0.674  11.724  14.451
79642SOL     OW40822  13.241   5.045   9.918
79642SOL    HW140823  13.310   5.010   9.861
79642SOL    HW240824  13.273   5.132   9.943
79643SOL     OW40825   4.328  11.552  14.687
79643SOL    HW140826   4.386  11.514  14.621
79643SOL    HW240827   4.240  11.528  14.659
79644SOL     OW40828   8.311  11.259  14.384
79644SOL    HW140829   8.326  11.228  14.295
79644SOL    HW240830   8.398  11.285  14.415
79645SOL     OW40831  12.876   7.611   4.386
79645SOL    HW140832  12.912   7.565   4.310
79645SOL    HW240833  12.874   7.546   4.456
79646SOL     OW40834   7.968   9.665   7.888
79646SOL    HW140835   8.018   9.644   7.967
79646SOL    HW240836   7.896   9.602   7.887
79647SOL     OW40837  10.245   8.045  12.440
79647SOL    HW140838  10.191   8.104  12.387
79647SOL    HW240839  10.208   8.051  12.528
79648SOL     OW40840   6.800   2.791  10.482
79648SOL    HW140841   6.829   2.707  10.446
79648SOL    HW240842   6.835   2.792  10.571
79649SOL     OW40843   9.541   4.137   5.856
79649SOL    HW140844   9.523   4.083   5.779
79649SOL    HW240845   9.467   4.121   5.915
79650SOL     OW40846  10.986   7.908   7.809
79650SOL    HW140847  10.914   7.934   7.867
79650SOL    HW240848  10.948   7.843   7.750
79651SOL     OW40849  13.047   4.355   0.414
79651SOL    HW140850  13.090   4.328   0.333
79651SOL    HW240851  13.033   4.449   0.403
79652SOL     OW40852   8.843   1.122  12.903
79652SOL    HW140853   8.861   1.055  12.837
79652SOL    HW240854   8.914   1.185  12.893
79653SOL     OW40855   9.469   5.509  13.106
79653SOL    HW140856   9.512   5.458  13.175
79653SOL    HW240857   9.524   5.495  13.028
79654SOL     OW40858   9.126  10.487  11.044
79654SOL    HW140859   9.162  10.531  11.122
79654SOL    HW240860   9.173  10.404  11.041
79655SOL     OW40861  13.918   2.606   0.461
79655SOL    HW140862  13.988   2.632   0.400
79655SOL    HW240863  13.843   2.591   0.404
79656SOL     OW40864   2.883   5.344   7.157
79656SOL    HW140865   2.894   5.324   7.250
79656SOL    HW240866   2.971   5.360   7.125
79657SOL     OW40867  11.685   5.739   3.689
79657SOL    HW140868  11.778   5.741   3.713
79657SOL    HW240869  11.645   5.681   3.753
79658SOL     OW40870   5.399   2.715   8.481
79658SOL    HW140871   5.393   2.687   8.389
79658SOL    HW240872   5.493   2.709   8.502
79659SOL     OW40873  10.903  14.796   9.720
79659SOL    HW140874  10.971  14.791   9.787
79659SOL    HW240875  10.948  14.831   9.643
79660SOL     OW40876   7.485   9.102   4.397
79660SOL    HW140877   7.421   9.167   4.368
79660SOL    HW240878   7.432   9.028   4.427
79661SOL     OW40879   7.121   3.428   9.018
79661SOL    HW140880   7.130   3.334   9.032
79661SOL    HW240881   7.057   3.456   9.083
79662SOL     OW40882   1.031  12.616   2.696
79662SOL    HW140883   1.112  12.632   2.745
79662SOL    HW240884   0.980  12.557   2.751
79663SOL     OW40885   9.965   9.245   7.312
79663SOL    HW140886   9.997   9.177   7.252
79663SOL    HW240887   9.944   9.197   7.392
79664SOL     OW40888   0.544  14.633   1.729
79664SOL    HW140889   0.589  14.620   1.812
79664SOL    HW240890   0.607  14.681   1.675
79665SOL     OW40891  14.492   1.438   2.172
79665SOL    HW140892  14.430   1.487   2.226
79665SOL    HW240893  14.573   1.489   2.177
79666SOL     OW40894   3.576   4.183   2.461
79666SOL    HW140895   3.630   4.146   2.531
79666SOL    HW240896   3.633   4.185   2.385
79667SOL     OW40897  12.363   7.810   7.047
79667SOL    HW140898  12.422   7.877   7.009
79667SOL    HW240899  12.292   7.802   6.983
79668SOL     OW40900   4.269  13.412   2.678
79668SOL    HW140901   4.234  13.407   2.589
79668SOL    HW240902   4.208  13.469   2.724
79669SOL     OW40903  13.663   3.878   6.103
79669SOL    HW140904  13.706   3.874   6.188
79669SOL    HW240905  13.731   3.855   6.040
79670SOL     OW40906  12.969   3.333   5.937
79670SOL    HW140907  12.895   3.348   5.878
79670SOL    HW240908  12.949   3.250   5.979
79671SOL     OW40909   7.768  14.633  10.554
79671SOL    HW140910   7.839  14.669  10.501
79671SOL    HW240911   7.774  14.538  10.540
79672SOL     OW40912  13.597   8.531  14.743
79672SOL    HW140913  13.533   8.513  14.812
79672SOL    HW240914  13.548   8.583  14.679
79673SOL     OW40915   4.776  13.979  14.860
79673SOL    HW140916   4.709  14.045  14.841
79673SOL    HW240917   4.778  13.923  14.782
79674SOL     OW40918   4.769   2.414  13.710
79674SOL    HW140919   4.821   2.416  13.629
79674SOL    HW240920   4.702   2.481  13.698
79675SOL     OW40921  12.620  14.750  10.593
79675SOL    HW140922  12.561  14.754  10.518
79675SOL    HW240923  12.582  14.683  10.650
79676SOL     OW40924  12.776  14.373  14.732
79676SOL    HW140925  12.802  14.291  14.689
79676SOL    HW240926  12.691  14.394  14.693
79677SOL     OW40927   5.743   1.123   1.868
79677SOL    HW140928   5.763   1.217   1.866
79677SOL    HW240929   5.823   1.081   1.836
79678SOL     OW40930   4.710   3.327  11.664
79678SOL    HW140931   4.728   3.419  11.682
79678SOL    HW240932   4.778   3.280  11.712
79679SOL     OW40933   2.055  13.398   1.052
79679SOL    HW140934   1.968  13.408   1.092
79679SOL    HW240935   2.116  13.423   1.121
79680SOL     OW40936   3.440  13.394   8.841
79680SOL    HW140937   3.361  13.417   8.791
79680SOL    HW240938   3.406  13.355   8.922
79681SOL     OW40939   5.517  14.558  12.410
79681SOL    HW140940   5.461  14.544  12.486
79681SOL    HW240941   5.588  14.614  12.442
79682SOL     OW40942  10.460   3.083   1.331
79682SOL    HW140943  10.542   3.040   1.353
79682SOL    HW240944  10.455   3.158   1.390
79683SOL     OW40945  11.084  13.630   4.538
79683SOL    HW140946  11.019  13.563   4.557
79683SOL    HW240947  11.051  13.709   4.582
79684SOL     OW40948   6.344   5.740   7.802
79684SOL    HW140949   6.416   5.724   7.863
79684SOL    HW240950   6.343   5.836   7.791
79685SOL     OW40951   5.801   1.882   6.934
79685SOL    HW140952   5.801   1.867   6.839
79685SOL    HW240953   5.726   1.832   6.966
79686SOL     OW40954   5.383   0.960   0.709
79686SOL    HW140955   5.359   1.053   0.715
79686SOL    HW240956   5.338   0.919   0.784
79687SOL     OW40957   8.839   9.771   4.437
79687SOL    HW140958   8.800   9.687   4.414
79687SOL    HW240959   8.875   9.758   4.524
79688SOL     OW40960  12.920   2.902   2.533
79688SOL    HW140961  12.973   2.870   2.460
79688SOL    HW240962  12.957   2.987   2.555
79689SOL     OW40963  13.468   0.780  10.521
79689SOL    HW140964  13.499   0.689  10.520
79689SOL    HW240965  13.539   0.829  10.562
79690SOL     OW40966  11.471  12.125   2.834
79690SOL    HW140967  11.548  12.072   2.852
79690SOL    HW240968  11.480  12.201   2.891
79691SOL     OW40969   0.694   3.571   7.246
79691SOL    HW140970   0.733   3.491   7.282
79691SOL    HW240971   0.768   3.631   7.237
79692SOL     OW40972  12.347  11.568   8.015
79692SOL    HW140973  12.381  11.526   7.936
79692SOL    HW240974  12.275  11.512   8.043
79693SOL     OW40975   6.258   0.514   2.844
79693SOL    HW140976   6.242   0.431   2.890
79693SOL    HW240977   6.311   0.565   2.906
79694SOL     OW40978  10.437  11.407   0.094
79694SOL    HW140979  10.436  11.452   0.009
79694SOL    HW240980  10.521  11.362   0.095
79695SOL     OW40981  13.616  12.007  14.677
79695SOL    HW140982  13.542  12.048  14.723
79695SOL    HW240983  13.690  12.019  14.736
79696SOL     OW40984  13.125  14.558   6.258
79696SOL    HW140985  13.111  14.597   6.172
79696SOL    HW240986  13.063  14.605   6.315
79697SOL     OW40987   8.649   6.905   5.033
79697SOL    HW140988   8.628   6.898   5.126
79697SOL    HW240989   8.741   6.881   5.028
79698SOL     OW40990   3.124   9.268   0.421
79698SOL    HW140991   3.031   9.256   0.439
79698SOL    HW240992   3.137   9.228   0.335
79699SOL     OW40993   5.231   2.561   8.043
79699SOL    HW140994   5.157   2.622   8.036
79699SOL    HW240995   5.245   2.530   7.953
79700SOL     OW40996  14.367  10.926  12.060
79700SOL    HW140997  14.454  10.942  12.024
79700SOL    HW240998  14.321  11.009  12.050
79701SOL     OW40999  14.183  11.541  12.901
79701SOL    HW141000  14.146  11.622  12.866
79701SOL    HW241001  14.278  11.550  12.887
79702SOL     OW41002   1.645   5.339  10.247
79702SOL    HW141003   1.722   5.284  10.241
79702SOL    HW241004   1.672   5.413  10.303
79703SOL     OW41005   9.651   5.189   7.476
79703SOL    HW141006   9.630   5.206   7.568
79703SOL    HW241007   9.565   5.178   7.435
79704SOL     OW41008  13.456   9.078   3.554
79704SOL    HW141009  13.545   9.086   3.520
79704SOL    HW241010  13.416   9.007   3.504
79705SOL     OW41011  13.094   1.081  11.469
79705SOL    HW141012  13.022   1.075  11.533
79705SOL    HW241013  13.173   1.069  11.521
79706SOL     OW41014   4.566   0.293   9.338
79706SOL    HW141015   4.501   0.267   9.273
79706SOL    HW241016   4.521   0.288   9.422
79707SOL     OW41017   3.343   4.020   7.495
79707SOL    HW141018   3.417   3.959   7.493
79707SOL    HW241019   3.331   4.040   7.588
79708SOL     OW41020   3.466   9.221  10.015
79708SOL    HW141021   3.555   9.196   9.990
79708SOL    HW241022   3.476   9.284  10.086
79709SOL     OW41023   2.454   4.715   6.016
79709SOL    HW141024   2.399   4.666   5.955
79709SOL    HW241025   2.537   4.668   6.016
79710SOL     OW41026   4.737  13.122   9.695
79710SOL    HW141027   4.727  13.104   9.602
79710SOL    HW241028   4.648  13.114   9.730
79711SOL     OW41029   3.412   8.710   5.706
79711SOL    HW141030   3.485   8.675   5.655
79711SOL    HW241031   3.439   8.699   5.797
79712SOL     OW41032  13.963   9.720  14.701
79712SOL    HW141033  14.036   9.746  14.756
79712SOL    HW241034  13.891   9.707  14.762
79713SOL     OW41035   3.718   8.749  12.562
79713SOL    HW141036   3.704   8.728  12.654
79713SOL    HW241037   3.675   8.834  12.551
79714SOL     OW41038   4.593  13.291  11.051
79714SOL    HW141039   4.561  13.208  11.016
79714SOL    HW241040   4.686  13.276  11.068
79715SOL     OW41041   8.316  11.004   3.652
79715SOL    HW141042   8.327  11.067   3.723
79715SOL    HW241043   8.228  10.969   3.664
79716SOL     OW41044  12.490   2.466   7.168
79716SOL    HW141045  12.420   2.445   7.229
79716SOL    HW241046  12.446   2.503   7.091
79717SOL     OW41047  13.210   5.100   4.875
79717SOL    HW141048  13.210   5.076   4.968
79717SOL    HW241049  13.232   5.018   4.829
79718SOL     OW41050  12.193   2.186   1.991
79718SOL    HW141051  12.145   2.158   1.912
79718SOL    HW241052  12.267   2.126   1.995
79719SOL     OW41053   9.753  10.257  12.532
79719SOL    HW141054   9.723  10.303  12.454
79719SOL    HW241055   9.683  10.268  12.595
79720SOL     OW41056   3.525   3.620   7.391
79720SOL    HW141057   3.517   3.598   7.484
79720SOL    HW241058   3.443   3.590   7.352
79721SOL     OW41059  13.094   9.979   6.550
79721SOL    HW141060  13.156  10.022   6.491
79721SOL    HW241061  13.036   9.930   6.492
79722SOL     OW41062  12.244   7.374   6.195
79722SOL    HW141063  12.159   7.347   6.160
79722SOL    HW241064  12.267   7.305   6.257
79723SOL     OW41065  10.258  14.627   2.916
79723SOL    HW141066  10.345  14.649   2.951
79723SOL    HW241067  10.275  14.587   2.831
79724SOL     OW41068   4.699   1.504  14.014
79724SOL    HW141069   4.620   1.449  14.009
79724SOL    HW241070   4.665   1.592  14.033
79725SOL     OW41071   0.001   6.281  11.025
79725SOL    HW141072  14.839   6.249  11.104
79725SOL    HW241073  14.838   6.240  10.953
79726SOL     OW41074   8.622   0.049   2.033
79726SOL    HW141075   8.717   0.062   2.032
79726SOL    HW241076   8.608  14.853   1.980
79727SOL     OW41077  10.575   9.566  13.531
79727SOL    HW141078  10.495   9.594  13.486
79727SOL    HW241079  10.612   9.647  13.566
79728SOL     OW41080   0.841   8.452  12.887
79728SOL    HW141081   0.831   8.420  12.797
79728SOL    HW241082   0.799   8.538  12.887
79729SOL     OW41083   9.571   2.082  10.638
79729SOL    HW141084   9.597   2.145  10.570
79729SOL    HW241085   9.552   2.136  10.714
79730SOL     OW41086   3.234  10.231   2.348
79730SOL    HW141087   3.186  10.164   2.396
79730SOL    HW241088   3.285  10.182   2.283
79731SOL     OW41089  13.175  14.424   7.289
79731SOL    HW141090  13.131  14.361   7.233
79731SOL    HW241091  13.188  14.378   7.372
79732SOL     OW41092   9.315  14.111   8.100
79732SOL    HW141093   9.303  14.103   8.005
79732SOL    HW241094   9.409  14.098   8.113
79733SOL     OW41095   7.116   0.134  12.356
79733SOL    HW141096   7.072   0.060  12.398
79733SOL    HW241097   7.045   0.188  12.322
79734SOL     OW41098   3.361  13.881  12.247
79734SOL    HW141099   3.456  13.885  12.256
79734SOL    HW241100   3.346  13.826  12.170
79735SOL     OW41101   6.252   1.329   9.983
79735SOL    HW141102   6.257   1.409   9.931
79735SOL    HW241103   6.183   1.347  10.047
79736SOL     OW41104  10.961   4.028   4.140
79736SOL    HW141105  10.940   4.111   4.096
79736SOL    HW241106  10.876   3.985   4.151
79737SOL     OW41107   2.610   4.107   2.964
79737SOL    HW141108   2.686   4.098   2.906
79737SOL    HW241109   2.647   4.098   3.052
79738SOL     OW41110   6.056  14.313   6.666
79738SOL    HW141111   6.020  14.225   6.675
79738SOL    HW241112   6.151  14.301   6.665
79739SOL     OW41113   9.754   7.446   2.432
79739SOL    HW141114   9.675   7.499   2.443
79739SOL    HW241115   9.816   7.504   2.387
79740SOL     OW41116   8.233   5.283   6.934
79740SOL    HW141117   8.329   5.285   6.944
79740SOL    HW241118   8.211   5.189   6.935
79741SOL     OW41119   4.992   1.544   4.324
79741SOL    HW141120   5.008   1.453   4.302
79741SOL    HW241121   4.913   1.567   4.274
79742SOL     OW41122   1.772   2.411   4.350
79742SOL    HW141123   1.685   2.449   4.361
79742SOL    HW241124   1.790   2.419   4.256
79743SOL     OW41125   2.108   1.510  12.482
79743SOL    HW141126   2.067   1.553  12.406
79743SOL    HW241127   2.037   1.461  12.523
79744SOL     OW41128   2.518   7.294   5.825
79744SOL    HW141129   2.471   7.367   5.783
79744SOL    HW241130   2.455   7.222   5.825
79745SOL     OW41131   8.164   9.226  14.171
79745SOL    HW141132   8.081   9.232  14.124
79745SOL    HW241133   8.228   9.203  14.104
79746SOL     OW41134   4.866   1.157   4.871
79746SOL    HW141135   4.890   1.217   4.942
79746SOL    HW241136   4.874   1.209   4.792
79747SOL     OW41137   4.818  10.291  13.123
79747SOL    HW141138   4.838  10.374  13.166
79747SOL    HW241139   4.858  10.225  13.178
79748SOL     OW41140   1.100   0.010  14.620
79748SOL    HW141141   1.053  14.814  14.648
79748SOL    HW241142   1.186   0.002  14.661
79749SOL     OW41143  13.575   8.334   6.056
79749SOL    HW141144  13.556   8.366   5.967
79749SOL    HW241145  13.614   8.248   6.043
79750SOL     OW41146   9.978  13.203   4.335
79750SOL    HW141147   9.918  13.270   4.369
79750SOL    HW241148   9.949  13.187   4.246
79751SOL     OW41149   8.980   0.322   4.381
79751SOL    HW141150   8.927   0.259   4.331
79751SOL    HW241151   8.918   0.361   4.442
79752SOL     OW41152   3.374  14.172  11.727
79752SOL    HW141153   3.413  14.246  11.679
79752SOL    HW241154   3.416  14.095  11.689
79753SOL     OW41155  11.974   8.968  14.529
79753SOL    HW141156  11.920   8.934  14.600
79753SOL    HW241157  12.042   9.019  14.574
79754SOL     OW41158   2.163   2.045   2.405
79754SOL    HW141159   2.197   2.133   2.417
79754SOL    HW241160   2.096   2.035   2.473
79755SOL     OW41161   7.034   9.661  12.170
79755SOL    HW141162   6.960   9.700  12.217
79755SOL    HW241163   7.034   9.569  12.198
79756SOL     OW41164   1.991   0.639   0.794
79756SOL    HW141165   1.964   0.730   0.784
79756SOL    HW241166   1.924   0.589   0.748
79757SOL     OW41167   8.630  13.145  12.460
79757SOL    HW141168   8.546  13.125  12.419
79757SOL    HW241169   8.612  13.149  12.553
79758SOL     OW41170   7.685   5.322   2.259
79758SOL    HW141171   7.774   5.294   2.282
79758SOL    HW241172   7.664   5.270   2.181
79759SOL     OW41173   8.866   9.093  14.664
79759SOL    HW141174   8.837   9.013  14.709
79759SOL    HW241175   8.883   9.065  14.574
79760SOL     OW41176   3.151  11.384   5.680
79760SOL    HW141177   3.056  11.387   5.692
79760SOL    HW241178   3.182  11.470   5.709
79761SOL     OW41179   8.310   3.916   1.494
79761SOL    HW141180   8.289   3.852   1.561
79761SOL    HW241181   8.370   3.977   1.536
79762SOL     OW41182   0.464   9.069  11.671
79762SOL    HW141183   0.449   8.977  11.694
79762SOL    HW241184   0.472   9.114  11.755
79763SOL     OW41185  13.661  10.121   2.466
79763SOL    HW141186  13.706  10.206   2.467
79763SOL    HW241187  13.679  10.085   2.380
79764SOL     OW41188   5.486   0.419  12.209
79764SOL    HW141189   5.492   0.496  12.265
79764SOL    HW241190   5.515   0.449  12.123
79765SOL     OW41191   7.678  14.189  13.462
79765SOL    HW141192   7.613  14.146  13.517
79765SOL    HW241193   7.749  14.125  13.454
79766SOL     OW41194  14.354   6.992   4.819
79766SOL    HW141195  14.373   7.082   4.793
79766SOL    HW241196  14.437   6.946   4.810
79767SOL     OW41197   4.024   7.014  13.244
79767SOL    HW141198   4.091   7.048  13.185
79767SOL    HW241199   3.949   7.072  13.231
79768SOL     OW41200  12.586  11.216   9.599
79768SOL    HW141201  12.676  11.197   9.570
79768SOL    HW241202  12.581  11.312   9.601
79769SOL     OW41203  12.122   4.444   9.793
79769SOL    HW141204  12.027   4.453   9.788
79769SOL    HW241205  12.150   4.517   9.848
79770SOL     OW41206   9.377   9.510   0.253
79770SOL    HW141207   9.313   9.547   0.191
79770SOL    HW241208   9.395   9.422   0.219
79771SOL     OW41209  10.401  14.691  13.567
79771SOL    HW141210  10.419  14.605  13.531
79771SOL    HW241211  10.410  14.751  13.493
79772SOL     OW41212   5.105   0.757   4.384
79772SOL    HW141213   5.089   0.852   4.389
79772SOL    HW241214   5.048   0.727   4.314
79773SOL     OW41215   3.834   2.048  11.874
79773SOL    HW141216   3.902   2.111  11.899
79773SOL    HW241217   3.855   2.024  11.784
79774SOL     OW41218  14.686   9.380   1.941
79774SOL    HW141219  14.621   9.368   2.010
79774SOL    HW241220  14.744   9.448   1.974
79775SOL     OW41221   1.885   9.980  13.400
79775SOL    HW141222   1.978   9.965  13.382
79775SOL    HW241223   1.883  10.060  13.453
79776SOL     OW41224   7.257   8.347   7.633
79776SOL    HW141225   7.174   8.303   7.619
79776SOL    HW241226   7.317   8.279   7.663
79777SOL     OW41227  14.199  14.748   8.508
79777SOL    HW141228  14.275  14.716   8.459
79777SOL    HW241229  14.235  14.783   8.589
79778SOL     OW41230   4.254   4.776   8.258
79778SOL    HW141231   4.334   4.825   8.280
79778SOL    HW241232   4.276   4.685   8.279
79779SOL     OW41233  14.250   8.749   8.981
79779SOL    HW141234  14.276   8.824   9.034
79779SOL    HW241235  14.168   8.776   8.939
79780SOL     OW41236  13.053   4.360  14.560
79780SOL    HW141237  13.070   4.397  14.474
79780SOL    HW241238  13.111   4.409  14.619
79781SOL     OW41239   8.190  12.860   7.746
79781SOL    HW141240   8.108  12.828   7.711
79781SOL    HW241241   8.214  12.934   7.690
79782SOL     OW41242  10.107  11.393   9.416
79782SOL    HW141243  10.109  11.489   9.426
79782SOL    HW241244  10.017  11.373   9.390
79783SOL     OW41245   4.608   6.945  14.636
79783SOL    HW141246   4.671   6.927  14.705
79783SOL    HW241247   4.659   6.993  14.570
79784SOL     OW41248   2.913   6.818   0.085
79784SOL    HW141249   2.833   6.868   0.071
79784SOL    HW241250   2.883   6.728   0.097
79785SOL     OW41251   9.730  10.880   1.711
79785SOL    HW141252   9.662  10.828   1.668
79785SOL    HW241253   9.745  10.954   1.652
79786SOL     OW41254  13.146   2.969  12.352
79786SOL    HW141255  13.209   2.984  12.281
79786SOL    HW241256  13.123   2.876  12.344
79787SOL     OW41257   1.739   4.105   6.820
79787SOL    HW141258   1.825   4.148   6.813
79787SOL    HW241259   1.711   4.121   6.910
79788SOL     OW41260   5.612   0.840  12.001
79788SOL    HW141261   5.537   0.838  12.060
79788SOL    HW241262   5.584   0.794  11.923
79789SOL     OW41263  12.534   6.985   3.526
79789SOL    HW141264  12.535   6.978   3.431
79789SOL    HW241265  12.602   6.925   3.556
79790SOL     OW41266   7.203   7.330  13.449
79790SOL    HW141267   7.228   7.284  13.369
79790SOL    HW241268   7.158   7.408  13.418
79791SOL     OW41269  14.186   0.590  11.814
79791SOL    HW141270  14.136   0.581  11.733
79791SOL    HW241271  14.170   0.681  11.842
79792SOL     OW41272   9.763   2.583  14.236
79792SOL    HW141273   9.714   2.618  14.161
79792SOL    HW241274   9.829   2.650  14.254
79793SOL     OW41275   5.801   3.497   5.370
79793SOL    HW141276   5.729   3.524   5.427
79793SOL    HW241277   5.767   3.423   5.320
79794SOL     OW41278  13.116   7.000   8.424
79794SOL    HW141279  13.120   7.023   8.517
79794SOL    HW241280  13.046   6.936   8.418
79795SOL     OW41281   3.248   1.667   2.089
79795SOL    HW141282   3.309   1.602   2.052
79795SOL    HW241283   3.245   1.646   2.182
79796SOL     OW41284  13.939   5.307   0.256
79796SOL    HW141285  13.916   5.400   0.249
79796SOL    HW241286  13.916   5.271   0.170
79797SOL     OW41287   7.592  12.739  13.522
79797SOL    HW141288   7.665  12.801  13.534
79797SOL    HW241289   7.585  12.695  13.607
79798SOL     OW41290  10.844   0.076   8.299
79798SOL    HW141291  10.872   0.013   8.232
79798SOL    HW241292  10.751   0.056   8.313
79799SOL     OW41293  14.775   4.969  12.402
79799SOL    HW141294  14.865   4.943  12.419
79799SOL    HW241295  14.725   4.932  12.475
79800SOL     OW41296   8.864   8.182   7.241
79800SOL    HW141297   8.877   8.118   7.310
79800SOL    HW241298   8.901   8.263   7.276
79801SOL     OW41299   4.611  13.810  13.460
79801SOL    HW141300   4.570  13.753  13.525
79801SOL    HW241301   4.666  13.869  13.511
79802SOL     OW41302  11.210   4.974   2.805
79802SOL    HW141303  11.306   4.976   2.806
79802SOL    HW241304  11.187   4.941   2.718
79803SOL     OW41305   3.756   4.562   4.958
79803SOL    HW141306   3.785   4.636   5.012
79803SOL    HW241307   3.681   4.595   4.909
79804SOL     OW41308  12.703  14.356  11.527
79804SOL    HW141309  12.648  14.311  11.591
79804SOL    HW241310  12.734  14.287  11.469
79805SOL     OW41311  12.659  10.098   1.684
79805SOL    HW141312  12.571  10.081   1.653
79805SOL    HW241313  12.647  10.156   1.759
79806SOL     OW41314   3.670   7.922  10.145
79806SOL    HW141315   3.741   7.976  10.180
79806SOL    HW241316   3.668   7.944  10.051
79807SOL     OW41317   7.874   2.374   7.459
79807SOL    HW141318   7.924   2.319   7.519
79807SOL    HW241319   7.896   2.464   7.485
79808SOL     OW41320   5.405   4.693   5.809
79808SOL    HW141321   5.478   4.631   5.813
79808SOL    HW241322   5.441   4.768   5.761
79809SOL     OW41323  12.026   9.521   0.053
79809SOL    HW141324  12.109   9.473   0.047
79809SOL    HW241325  12.038   9.581   0.126
79810SOL     OW41326  11.388   8.970  13.823
79810SOL    HW141327  11.396   8.936  13.734
79810SOL    HW241328  11.436   9.052  13.823
79811SOL     OW41329   9.555  10.355   8.734
79811SOL    HW141330   9.602  10.392   8.809
79811SOL    HW241331   9.463  10.374   8.750
79812SOL     OW41332   1.627   5.121   0.517
79812SOL    HW141333   1.649   5.167   0.599
79812SOL    HW241334   1.709   5.120   0.468
79813SOL     OW41335  12.976  10.002   2.979
79813SOL    HW141336  13.026   9.945   2.922
79813SOL    HW241337  12.966   9.952   3.061
79814SOL     OW41338   2.370   2.920  10.065
79814SOL    HW141339   2.337   2.875   9.987
79814SOL    HW241340   2.437   2.860  10.101
79815SOL     OW41341   3.450   3.878  11.194
79815SOL    HW141342   3.434   3.909  11.105
79815SOL    HW241343   3.434   3.783  11.190
79816SOL     OW41344   2.767  13.421   6.061
79816SOL    HW141345   2.829  13.359   6.099
79816SOL    HW241346   2.753  13.389   5.972
79817SOL     OW41347   9.388  12.677   2.759
79817SOL    HW141348   9.351  12.757   2.797
79817SOL    HW241349   9.425  12.631   2.834
79818SOL     OW41350  13.657   5.320   5.824
79818SOL    HW141351  13.581   5.267   5.801
79818SOL    HW241352  13.623   5.384   5.887
79819SOL     OW41353   3.840   9.599   2.293
79819SOL    HW141354   3.829   9.660   2.220
79819SOL    HW241355   3.903   9.535   2.261
79820SOL     OW41356   8.493  13.688   9.096
79820SOL    HW141357   8.425  13.740   9.053
79820SOL    HW241358   8.575  13.728   9.068
79821SOL     OW41359  10.486   5.737   2.347
79821SOL    HW141360  10.509   5.827   2.367
79821SOL    HW241361  10.538   5.685   2.408
79822SOL     OW41362   5.349   6.148   0.621
79822SOL    HW141363   5.362   6.054   0.634
79822SOL    HW241364   5.254   6.158   0.616
79823SOL     OW41365   4.073   9.388   3.920
79823SOL    HW141366   4.142   9.454   3.910
79823SOL    HW241367   4.116   9.315   3.965
79824SOL     OW41368  10.335   9.118  12.958
79824SOL    HW141369  10.322   9.107  12.863
79824SOL    HW241370  10.262   9.072  12.998
79825SOL     OW41371   1.838   0.088  13.350
79825SOL    HW141372   1.755   0.090  13.302
79825SOL    HW241373   1.853   0.179  13.376
79826SOL     OW41374  14.703  13.188   6.874
79826SOL    HW141375  14.681  13.231   6.957
79826SOL    HW241376  14.620  13.152   6.843
79827SOL     OW41377   8.904   3.260  11.724
79827SOL    HW141378   8.917   3.165  11.729
79827SOL    HW241379   8.810   3.271  11.715
79828SOL     OW41380   3.810   5.719   9.439
79828SOL    HW141381   3.895   5.676   9.428
79828SOL    HW241382   3.792   5.714   9.532
79829SOL     OW41383   0.185   9.676   3.269
79829SOL    HW141384   0.115   9.702   3.328
79829SOL    HW241385   0.199   9.752   3.213
79830SOL     OW41386  10.616  12.324   0.275
79830SOL    HW141387  10.609  12.296   0.366
79830SOL    HW241388  10.654  12.249   0.230
79831SOL     OW41389   9.666   7.307  14.218
79831SOL    HW141390   9.666   7.399  14.245
79831SOL    HW241391   9.711   7.307  14.134
79832SOL     OW41392   1.122   3.566   2.079
79832SOL    HW141393   1.159   3.558   1.991
79832SOL    HW241394   1.058   3.637   2.073
79833SOL     OW41395  12.834   8.516  13.592
79833SOL    HW141396  12.907   8.454  13.584
79833SOL    HW241397  12.795   8.495  13.677
79834SOL     OW41398  13.329   5.318  11.039
79834SOL    HW141399  13.264   5.388  11.045
79834SOL    HW241400  13.382   5.340  10.963
79835SOL     OW41401  10.650   3.752   8.210
79835SOL    HW141402  10.659   3.815   8.282
79835SOL    HW241403  10.569   3.776   8.166
79836SOL     OW41404   7.816  13.745   0.071
79836SOL    HW141405   7.893  13.802   0.066
79836SOL    HW241406   7.825  13.687  14.878
79837SOL     OW41407   0.892   0.143  11.350
79837SOL    HW141408   0.834   0.187  11.412
79837SOL    HW241409   0.932   0.213  11.299
79838SOL     OW41410   0.323   7.023  13.638
79838SOL    HW141411   0.275   6.994  13.560
79838SOL    HW241412   0.266   6.999  13.711
79839SOL     OW41413  14.672   1.730   5.962
79839SOL    HW141414  14.590   1.716   5.915
79839SOL    HW241415  14.719   1.647   5.954
79840SOL     OW41416   4.159   3.143   9.418
79840SOL    HW141417   4.070   3.124   9.447
79840SOL    HW241418   4.182   3.223   9.464
79841SOL     OW41419  12.345   0.872  13.456
79841SOL    HW141420  12.390   0.794  13.424
79841SOL    HW241421  12.408   0.943  13.447
79842SOL     OW41422   0.824   9.235   8.803
79842SOL    HW141423   0.867   9.173   8.863
79842SOL    HW241424   0.762   9.282   8.858
79843SOL     OW41425   8.815   8.497   7.538
79843SOL    HW141426   8.771   8.422   7.499
79843SOL    HW241427   8.744   8.552   7.572
79844SOL     OW41428   1.643   2.018  13.185
79844SOL    HW141429   1.650   1.924  13.173
79844SOL    HW241430   1.549   2.036  13.181
79845SOL     OW41431  10.070   0.169  12.330
79845SOL    HW141432  10.041   0.142  12.418
79845SOL    HW241433  10.083   0.264  12.338
79846SOL     OW41434   5.698  12.068  11.139
79846SOL    HW141435   5.664  12.142  11.189
79846SOL    HW241436   5.728  12.106  11.056
79847SOL     OW41437  10.271  14.285  14.414
79847SOL    HW141438  10.233  14.332  14.340
79847SOL    HW241439  10.230  14.325  14.491
79848SOL     OW41440   3.224   3.626  13.886
79848SOL    HW141441   3.180   3.696  13.935
79848SOL    HW241442   3.312   3.659  13.869
79849SOL     OW41443  13.194   9.628  13.414
79849SOL    HW141444  13.100   9.611  13.413
79849SOL    HW241445  13.228   9.571  13.483
79850SOL     OW41446   7.942  14.408  11.022
79850SOL    HW141447   8.012  14.434  10.962
79850SOL    HW241448   7.978  14.332  11.068
79851SOL     OW41449   8.986  11.930   2.006
79851SOL    HW141450   8.956  11.918   1.916
79851SOL    HW241451   8.911  11.906   2.060
79852SOL     OW41452  11.131   0.642   5.918
79852SOL    HW141453  11.168   0.575   5.976
79852SOL    HW241454  11.059   0.680   5.968
79853SOL     OW41455  13.287  13.777   9.935
79853SOL    HW141456  13.276  13.851   9.995
79853SOL    HW241457  13.357  13.804   9.875
79854SOL     OW41458  14.585   0.581   5.437
79854SOL    HW141459  14.640   0.645   5.391
79854SOL    HW241460  14.615   0.585   5.528
79855SOL     OW41461  13.778   1.654  12.105
79855SOL    HW141462  13.764   1.566  12.070
79855SOL    HW241463  13.750   1.713  12.035
79856SOL     OW41464   7.089   4.491   4.082
79856SOL    HW141465   7.006   4.446   4.094
79856SOL    HW241466   7.087   4.520   3.990
79857SOL     OW41467   9.898   8.722  12.659
79857SOL    HW141468   9.909   8.767  12.743
79857SOL    HW241469   9.939   8.781  12.595
79858SOL     OW41470  13.505   6.943   8.435
79858SOL    HW141471  13.562   6.949   8.359
79858SOL    HW241472  13.557   6.980   8.507
79859SOL     OW41473  14.747   8.081   3.591
79859SOL    HW141474  14.785   8.152   3.644
79859SOL    HW241475  14.823   8.029   3.564
79860SOL     OW41476   6.576   0.400   4.132
79860SOL    HW141477   6.518   0.411   4.207
79860SOL    HW241478   6.532   0.335   4.077
79861SOL     OW41479  11.336   9.552  11.201
79861SOL    HW141480  11.241   9.544  11.187
79861SOL    HW241481  11.367   9.462  11.206
79862SOL     OW41482   8.870   6.876  11.961
79862SOL    HW141483   8.921   6.921  12.028
79862SOL    HW241484   8.889   6.923  11.880
79863SOL     OW41485  13.855   6.437   4.073
79863SOL    HW141486  13.821   6.480   3.994
79863SOL    HW241487  13.776   6.407   4.119
79864SOL     OW41488   6.683   1.097   6.733
79864SOL    HW141489   6.663   1.018   6.783
79864SOL    HW241490   6.647   1.080   6.646
79865SOL     OW41491   8.578  12.887   4.320
79865SOL    HW141492   8.664  12.846   4.310
79865SOL    HW241493   8.574  12.911   4.413
79866SOL     OW41494   0.736   7.546   6.088
79866SOL    HW141495   0.777   7.508   6.166
79866SOL    HW241496   0.642   7.538   6.104
79867SOL     OW41497   3.626   7.700   9.118
79867SOL    HW141498   3.679   7.776   9.144
79867SOL    HW241499   3.542   7.713   9.162
79868SOL     OW41500   2.092  10.821  10.805
79868SOL    HW141501   2.005  10.818  10.766
79868SOL    HW241502   2.151  10.797  10.733
79869SOL     OW41503  13.886   5.425   1.912
79869SOL    HW141504  13.975   5.426   1.947
79869SOL    HW241505  13.878   5.339   1.870
79870SOL     OW41506   3.171   0.904  13.655
79870SOL    HW141507   3.130   0.876  13.574
79870SOL    HW241508   3.131   0.849  13.723
79871SOL     OW41509  10.542   3.166  11.973
79871SOL    HW141510  10.522   3.075  11.994
79871SOL    HW241511  10.622   3.185  12.022
79872SOL     OW41512   4.237   2.122  11.248
79872SOL    HW141513   4.268   2.089  11.333
79872SOL    HW241514   4.144   2.139  11.261
79873SOL     OW41515   9.610   0.596   4.600
79873SOL    HW141516   9.626   0.690   4.602
79873SOL    HW241517   9.515   0.587   4.595
79874SOL     OW41518   5.373   0.945  13.817
79874SOL    HW141519   5.427   0.875  13.854
79874SOL    HW241520   5.424   1.025  13.831
79875SOL     OW41521   9.476  13.040   2.919
79875SOL    HW141522   9.417  12.965   2.921
79875SOL    HW241523   9.509  13.047   3.008
79876SOL     OW41524  12.359   6.265   6.009
79876SOL    HW141525  12.325   6.181   5.979
79876SOL    HW241526  12.410   6.244   6.087
79877SOL     OW41527   5.220   3.145   9.998
79877SOL    HW141528   5.199   3.136  10.091
79877SOL    HW241529   5.184   3.231   9.973
79878SOL     OW41530   5.337   3.248   9.295
79878SOL    HW141531   5.352   3.343   9.294
79878SOL    HW241532   5.259   3.236   9.240
79879SOL     OW41533   9.056  11.700   8.822
79879SOL    HW141534   8.992  11.646   8.868
79879SOL    HW241535   9.129  11.708   8.883
79880SOL     OW41536   3.811   7.368   3.106
79880SOL    HW141537   3.734   7.424   3.115
79880SOL    HW241538   3.885   7.424   3.131
79881SOL     OW41539  13.689   4.983  12.855
79881SOL    HW141540  13.684   5.031  12.772
79881SOL    HW241541  13.653   4.896  12.835
79882SOL     OW41542  13.918  12.260   4.322
79882SOL    HW141543  13.826  12.244   4.342
79882SOL    HW241544  13.922  12.353   4.302
79883SOL     OW41545   4.794   0.568  14.600
79883SOL    HW141546   4.710   0.614  14.598
79883SOL    HW241547   4.782   0.494  14.540
79884SOL     OW41548   9.810   7.895  11.742
79884SOL    HW141549   9.851   7.890  11.655
79884SOL    HW241550   9.802   7.989  11.760
79885SOL     OW41551  13.123  11.680  11.853
79885SOL    HW141552  13.207  11.725  11.862
79885SOL    HW241553  13.063  11.733  11.905
79886SOL     OW41554  12.165   5.466   8.407
79886SOL    HW141555  12.200   5.555   8.408
79886SOL    HW241556  12.146   5.447   8.499
79887SOL     OW41557  10.338   6.078  13.910
79887SOL    HW141558  10.382   6.002  13.949
79887SOL    HW241559  10.408   6.125  13.865
79888SOL     OW41560  13.350   3.540  14.710
79888SOL    HW141561  13.311   3.483  14.776
79888SOL    HW241562  13.430   3.494  14.684
79889SOL     OW41563   9.821  11.769   1.317
79889SOL    HW141564   9.843  11.862   1.309
79889SOL    HW241565   9.759  11.765   1.389
79890SOL     OW41566   4.234   0.083  14.814
79890SOL    HW141567   4.280   0.144  14.872
79890SOL    HW241568   4.253  14.879  14.851
79891SOL     OW41569  10.456  10.606   4.497
79891SOL    HW141570  10.475  10.688   4.450
79891SOL    HW241571  10.362  10.610   4.515
79892SOL     OW41572   3.103   2.920  13.310
79892SOL    HW141573   3.148   2.847  13.352
79892SOL    HW241574   3.019   2.883  13.283
79893SOL     OW41575  13.916  10.219  11.273
79893SOL    HW141576  13.848  10.253  11.331
79893SOL    HW241577  13.979  10.178  11.331
79894SOL     OW41578  11.792   2.759  13.085
79894SOL    HW141579  11.875   2.720  13.056
79894SOL    HW241580  11.729   2.735  13.017
79895SOL     OW41581  14.497   9.581   4.479
79895SOL    HW141582  14.409   9.589   4.442
79895SOL    HW241583  14.495   9.633   4.559
79896SOL     OW41584   8.846   8.506   2.604
79896SOL    HW141585   8.937   8.535   2.592
79896SOL    HW241586   8.843   8.475   2.695
79897SOL     OW41587   4.836  14.866   4.381
79897SOL    HW141588   4.833  14.782   4.334
79897SOL    HW241589   4.788   0.044   4.325
79898SOL     OW41590  11.263   6.728   3.880
79898SOL    HW141591  11.202   6.791   3.918
79898SOL    HW241592  11.209   6.671   3.826
79899SOL     OW41593   3.128   2.373   9.527
79899SOL    HW141594   3.162   2.430   9.458
79899SOL    HW241595   3.059   2.425   9.568
79900SOL     OW41596   1.464  11.671   3.330
79900SOL    HW141597   1.478  11.710   3.245
79900SOL    HW241598   1.491  11.738   3.393
79901SOL     OW41599  13.125   4.923   6.922
79901SOL    HW141600  13.169   4.867   6.859
79901SOL    HW241601  13.118   5.008   6.878
79902SOL     OW41602   5.044   2.285  11.960
79902SOL    HW141603   5.089   2.304  11.878
79902SOL    HW241604   4.971   2.347  11.963
79903SOL     OW41605   8.229   6.201   7.715
79903SOL    HW141606   8.244   6.214   7.809
79903SOL    HW241607   8.136   6.220   7.703
79904SOL     OW41608   3.467  11.869  13.643
79904SOL    HW141609   3.545  11.832  13.685
79904SOL    HW241610   3.495  11.888  13.554
79905SOL     OW41611   8.690  10.143  13.919
79905SOL    HW141612   8.751  10.175  13.985
79905SOL    HW241613   8.638  10.220  13.895
79906SOL     OW41614   3.436  10.301   0.254
79906SOL    HW141615   3.401  10.385   0.282
79906SOL    HW241616   3.374  10.270   0.187
79907SOL     OW41617  10.583   8.134   2.513
79907SOL    HW141618  10.570   8.148   2.419
79907SOL    HW241619  10.538   8.208   2.554
79908SOL     OW41620   0.122  13.641   8.251
79908SOL    HW141621   0.049  13.616   8.196
79908SOL    HW241622   0.190  13.671   8.190
79909SOL     OW41623   8.127   2.290  12.810
79909SOL    HW141624   8.115   2.225  12.741
79909SOL    HW241625   8.060   2.356  12.794
79910SOL     OW41626   5.887   2.091  14.059
79910SOL    HW141627   5.863   2.113  13.969
79910SOL    HW241628   5.956   2.153  14.083
79911SOL     OW41629   8.205  11.816  12.829
79911SOL    HW141630   8.251  11.745  12.874
79911SOL    HW241631   8.124  11.776  12.798
79912SOL     OW41632   5.966  10.095   4.515
79912SOL    HW141633   5.988  10.185   4.494
79912SOL    HW241634   5.922  10.100   4.600
79913SOL     OW41635   3.577   3.657   9.939
79913SOL    HW141636   3.582   3.752   9.942
79913SOL    HW241637   3.667   3.628   9.923
79914SOL     OW41638   0.033   8.366   1.182
79914SOL    HW141639  14.864   8.403   1.110
79914SOL    HW241640  14.859   8.298   1.219
79915SOL     OW41641   6.172  13.817   3.529
79915SOL    HW141642   6.156  13.910   3.541
79915SOL    HW241643   6.100  13.787   3.473
79916SOL     OW41644   6.912   2.451   7.828
79916SOL    HW141645   6.948   2.534   7.858
79916SOL    HW241646   6.836   2.436   7.884
79917SOL     OW41647   2.084   9.406  11.104
79917SOL    HW141648   2.044   9.375  11.022
79917SOL    HW241649   2.140   9.479  11.077
79918SOL     OW41650   5.584  13.103   4.367
79918SOL    HW141651   5.564  13.120   4.459
79918SOL    HW241652   5.600  13.009   4.363
79919SOL     OW41653   7.261   3.576  13.720
79919SOL    HW141654   7.226   3.663  13.737
79919SOL    HW241655   7.356   3.587  13.722
79920SOL     OW41656  11.421   2.419   6.781
79920SOL    HW141657  11.345   2.468   6.812
79920SOL    HW241658  11.480   2.485   6.745
79921SOL     OW41659   9.539   3.063   1.664
79921SOL    HW141660   9.532   3.075   1.570
79921SOL    HW241661   9.459   3.101   1.700
79922SOL     OW41662  12.339  14.795  10.746
79922SOL    HW141663  12.356  14.817  10.838
79922SOL    HW241664  12.331  14.700  10.746
79923SOL     OW41665   5.289   6.707   3.007
79923SOL    HW141666   5.195   6.725   3.000
79923SOL    HW241667   5.331   6.792   2.994
79924SOL     OW41668  13.087   8.292  10.386
79924SOL    HW141669  13.071   8.315  10.478
79924SOL    HW241670  13.148   8.358  10.355
79925SOL     OW41671   2.950   8.508  14.694
79925SOL    HW141672   2.865   8.550  14.708
79925SOL    HW241673   2.996   8.519  14.777
79926SOL     OW41674  11.190   2.012   5.781
79926SOL    HW141675  11.272   2.058   5.763
79926SOL    HW241676  11.134   2.032   5.706
79927SOL     OW41677   8.676   3.692   4.021
79927SOL    HW141678   8.610   3.676   4.089
79927SOL    HW241679   8.679   3.787   4.012
79928SOL     OW41680   5.948   7.378   2.448
79928SOL    HW141681   5.977   7.329   2.526
79928SOL    HW241682   6.026   7.384   2.393
79929SOL     OW41683   1.740   4.991   3.228
79929SOL    HW141684   1.651   5.004   3.197
79929SOL    HW241685   1.767   4.907   3.189
79930SOL     OW41686   8.872   5.873  13.608
79930SOL    HW141687   8.829   5.813  13.547
79930SOL    HW241688   8.819   5.867  13.688
79931SOL     OW41689   6.737   8.924   7.688
79931SOL    HW141690   6.646   8.939   7.661
79931SOL    HW241691   6.730   8.889   7.777
79932SOL     OW41692   1.037  11.475   1.616
79932SOL    HW141693   1.059  11.532   1.542
79932SOL    HW241694   1.121  11.437   1.642
79933SOL     OW41695   0.426   0.412   5.196
79933SOL    HW141696   0.517   0.419   5.225
79933SOL    HW241697   0.399   0.503   5.178
79934SOL     OW41698   2.581  12.983  13.383
79934SOL    HW141699   2.613  13.059  13.335
79934SOL    HW241700   2.515  12.944  13.326
79935SOL     OW41701  12.715   5.599  13.624
79935SOL    HW141702  12.659   5.615  13.548
79935SOL    HW241703  12.804   5.609  13.590
79936SOL     OW41704  14.484   9.191   6.558
79936SOL    HW141705  14.529   9.169   6.476
79936SOL    HW241706  14.397   9.151   6.549
79937SOL     OW41707  10.189  13.406   3.527
79937SOL    HW141708  10.253  13.472   3.554
79937SOL    HW241709  10.196  13.404   3.432
79938SOL     OW41710   8.186   7.840   9.539
79938SOL    HW141711   8.120   7.895   9.497
79938SOL    HW241712   8.244   7.815   9.467
79939SOL     OW41713   1.586   1.022   6.900
79939SOL    HW141714   1.511   0.984   6.855
79939SOL    HW241715   1.564   1.017   6.993
79940SOL     OW41716   1.226  12.202  14.687
79940SOL    HW141717   1.187  12.157  14.612
79940SOL    HW241718   1.286  12.266  14.649
79941SOL     OW41719   8.082  12.600   8.905
79941SOL    HW141720   8.127  12.579   8.823
79941SOL    HW241721   8.024  12.673   8.883
79942SOL     OW41722   9.050   3.259  11.343
79942SOL    HW141723   8.969   3.282  11.299
79942SOL    HW241724   9.033   3.174  11.382
79943SOL     OW41725   5.447   8.601   4.648
79943SOL    HW141726   5.362   8.557   4.647
79943SOL    HW241727   5.463   8.622   4.740
79944SOL     OW41728   4.147   0.171  14.404
79944SOL    HW141729   4.132   0.099  14.465
79944SOL    HW241730   4.091   0.241  14.435
79945SOL     OW41731   9.959  14.342   5.266
79945SOL    HW141732   9.920  14.344   5.179
79945SOL    HW241733  10.012  14.422   5.270
79946SOL     OW41734   6.318   4.575   5.360
79946SOL    HW141735   6.339   4.590   5.268
79946SOL    HW241736   6.390   4.522   5.393
79947SOL     OW41737  13.906   0.239   3.793
79947SOL    HW141738  13.925   0.329   3.820
79947SOL    HW241739  13.841   0.248   3.723
79948SOL     OW41740   3.775   1.375   9.621
79948SOL    HW141741   3.684   1.401   9.606
79948SOL    HW241742   3.817   1.455   9.653
79949SOL     OW41743  10.386   6.249   8.523
79949SOL    HW141744  10.347   6.332   8.497
79949SOL    HW241745  10.391   6.197   8.442
79950SOL     OW41746   3.342   1.107  12.908
79950SOL    HW141747   3.314   1.190  12.869
79950SOL    HW241748   3.261   1.059  12.923
79951SOL     OW41749   7.901   0.615   0.748
79951SOL    HW141750   7.848   0.556   0.802
79951SOL    HW241751   7.909   0.695   0.800
79952SOL     OW41752   5.827   7.126  11.795
79952SOL    HW141753   5.741   7.085  11.793
79952SOL    HW241754   5.815   7.208  11.842
79953SOL     OW41755   0.756  10.173  12.105
79953SOL    HW141756   0.793  10.131  12.027
79953SOL    HW241757   0.818  10.152  12.174
79954SOL     OW41758   7.965   2.330   2.615
79954SOL    HW141759   8.056   2.328   2.588
79954SOL    HW241760   7.966   2.294   2.704
79955SOL     OW41761  13.495  13.912   2.560
79955SOL    HW141762  13.579  13.870   2.541
79955SOL    HW241763  13.517  13.985   2.617
79956SOL     OW41764   0.259   3.418   6.227
79956SOL    HW141765   0.170   3.384   6.217
79956SOL    HW241766   0.252   3.484   6.296
79957SOL     OW41767   3.367   7.221   8.284
79957SOL    HW141768   3.432   7.195   8.349
79957SOL    HW241769   3.292   7.251   8.335
79958SOL     OW41770  13.138   4.355   1.976
79958SOL    HW141771  13.071   4.347   1.909
79958SOL    HW241772  13.094   4.332   2.058
79959SOL     OW41773   6.297   2.546   4.148
79959SOL    HW141774   6.259   2.481   4.206
79959SOL    HW241775   6.334   2.496   4.076
79960SOL     OW41776  13.013   0.972  10.132
79960SOL    HW141777  12.995   0.966  10.226
79960SOL    HW241778  13.105   0.944  10.124
79961SOL     OW41779   8.315  11.084   0.586
79961SOL    HW141780   8.387  11.082   0.649
79961SOL    HW241781   8.327  11.005   0.533
79962SOL     OW41782  10.821   0.038  10.960
79962SOL    HW141783  10.733   0.011  10.988
79962SOL    HW241784  10.879  14.882  11.025
79963SOL     OW41785   0.112  14.331   6.031
79963SOL    HW141786   0.022  14.321   6.063
79963SOL    HW241787   0.107  14.310   5.937
79964SOL     OW41788   2.672  14.509  14.557
79964SOL    HW141789   2.711  14.595  14.576
79964SOL    HW241790   2.592  14.506  14.609
79965SOL     OW41791   5.578   3.952  11.103
79965SOL    HW141792   5.513   3.897  11.146
79965SOL    HW241793   5.572   3.929  11.010
79966SOL     OW41794   9.264   0.240   2.712
79966SOL    HW141795   9.229   0.228   2.623
79966SOL    HW241796   9.298   0.330   2.712
79967SOL     OW41797  14.707  10.718   5.795
79967SOL    HW141798  14.669  10.759   5.717
79967SOL    HW241799  14.800  10.711   5.775
79968SOL     OW41800   0.332  10.727  11.205
79968SOL    HW141801   0.393  10.673  11.255
79968SOL    HW241802   0.266  10.665  11.174
79969SOL     OW41803   9.726  11.400   7.397
79969SOL    HW141804   9.649  11.349   7.421
79969SOL    HW241805   9.693  11.470   7.340
79970SOL     OW41806   0.967   0.647  10.552
79970SOL    HW141807   0.903   0.614  10.615
79970SOL    HW241808   1.048   0.657  10.603
79971SOL     OW41809  10.327  12.560   7.987
79971SOL    HW141810  10.282  12.555   8.072
79971SOL    HW241811  10.417  12.582   8.010
79972SOL     OW41812   0.294  12.055   7.954
79972SOL    HW141813   0.220  12.106   7.985
79972SOL    HW241814   0.255  11.989   7.895
79973SOL     OW41815  12.551   1.458   5.846
79973SOL    HW141816  12.529   1.369   5.817
79973SOL    HW241817  12.644   1.468   5.826
79974SOL     OW41818  12.706   5.855  11.085
79974SOL    HW141819  12.693   5.900  11.169
79974SOL    HW241820  12.693   5.763  11.105
79975SOL     OW41821   7.440   3.689  14.171
79975SOL    HW141822   7.524   3.649  14.149
79975SOL    HW241823   7.449   3.713  14.264
79976SOL     OW41824   5.091   8.926   2.260
79976SOL    HW141825   5.019   8.863   2.260
79976SOL    HW241826   5.125   8.923   2.171
79977SOL     OW41827   9.059   4.179   5.266
79977SOL    HW141828   9.010   4.119   5.323
79977SOL    HW241829   9.150   4.169   5.293
79978SOL     OW41830   2.485   9.163  11.370
79978SOL    HW141831   2.572   9.197  11.353
79978SOL    HW241832   2.431   9.196  11.298
79979SOL     OW41833   1.984   8.360  11.961
79979SOL    HW141834   1.996   8.454  11.976
79979SOL    HW241835   1.986   8.350  11.866
79980SOL     OW41836   1.780   5.291   6.526
79980SOL    HW141837   1.784   5.386   6.519
79980SOL    HW241838   1.834   5.260   6.453
79981SOL     OW41839  14.573   1.237   9.033
79981SOL    HW141840  14.519   1.314   9.015
79981SOL    HW241841  14.518   1.162   9.009
79982SOL     OW41842  14.098   9.430  12.990
79982SOL    HW141843  14.103   9.393  12.902
79982SOL    HW241844  14.165   9.383  13.040
79983SOL     OW41845  14.157   7.387   7.551
79983SOL    HW141846  14.191   7.361   7.637
79983SOL    HW241847  14.146   7.482   7.557
79984SOL     OW41848   8.160  10.185  10.371
79984SOL    HW141849   8.225  10.162  10.438
79984SOL    HW241850   8.192  10.268  10.334
79985SOL     OW41851   9.132   9.184   4.041
79985SOL    HW141852   9.062   9.149   3.986
79985SOL    HW241853   9.204   9.122   4.030
79986SOL     OW41854  14.498  10.269   5.081
79986SOL    HW141855  14.518  10.358   5.108
79986SOL    HW241856  14.419  10.278   5.027
79987SOL     OW41857  14.116   6.263  10.342
79987SOL    HW141858  14.192   6.204  10.336
79987SOL    HW241859  14.067   6.247  10.261
79988SOL     OW41860   1.979   2.617   1.091
79988SOL    HW141861   1.923   2.580   1.023
79988SOL    HW241862   2.006   2.542   1.143
79989SOL     OW41863   3.687  10.544   4.538
79989SOL    HW141864   3.626  10.539   4.612
79989SOL    HW241865   3.761  10.594   4.572
79990SOL     OW41866   7.510   2.945   0.026
79990SOL    HW141867   7.522   2.936   0.121
79990SOL    HW241868   7.508   2.855  14.876
79991SOL     OW41869  12.499  12.116   6.061
79991SOL    HW141870  12.539  12.072   6.136
79991SOL    HW241871  12.421  12.063   6.042
79992SOL     OW41872   3.246   5.621  11.587
79992SOL    HW141873   3.171   5.613  11.528
79992SOL    HW241874   3.266   5.531  11.612
79993SOL     OW41875   1.941   7.638  11.139
79993SOL    HW141876   1.855   7.604  11.114
79993SOL    HW241877   2.002   7.594  11.080
79994SOL     OW41878   0.072  11.270   8.225
79994SOL    HW141879   0.000  11.206   8.222
79994SOL    HW241880   0.092  11.288   8.134
79995SOL     OW41881  12.884  14.572  11.541
79995SOL    HW141882  12.936  14.520  11.480
79995SOL    HW241883  12.807  14.518  11.560
79996SOL     OW41884   1.708   1.411   3.256
79996SOL    HW141885   1.741   1.330   3.219
79996SOL    HW241886   1.633   1.434   3.202
79997SOL     OW41887   2.928  10.042   4.582
79997SOL    HW141888   2.955   9.958   4.545
79997SOL    HW241889   2.873  10.082   4.515
79998SOL     OW41890   3.671  11.061   8.908
79998SOL    HW141891   3.678  11.053   8.813
79998SOL    HW241892   3.602  11.126   8.922
79999SOL     OW41893   9.433   4.588  10.277
79999SOL    HW141894   9.514   4.621  10.237
79999SOL    HW241895   9.376   4.665  10.282
80000SOL     OW41896  11.437   3.333  13.022
80000SOL    HW141897  11.470   3.254  12.980
80000SOL    HW241898  11.493   3.345  13.099
80001SOL     OW41899   4.006  10.830  10.482
80001SOL    HW141900   3.918  10.851  10.513
80001SOL    HW241901   4.055  10.807  10.562
80002SOL     OW41902   4.067   6.945  14.721
80002SOL    HW141903   4.129   6.939  14.793
80002SOL    HW241904   4.070   6.859  14.679
80003SOL     OW41905  10.448  11.155  13.765
80003SOL    HW141906  10.387  11.135  13.836
80003SOL    HW241907  10.482  11.070  13.738
80004SOL     OW41908  10.909   7.746   8.898
80004SOL    HW141909  10.837   7.727   8.839
80004SOL    HW241910  10.977   7.784   8.842
80005SOL     OW41911  14.737   2.239   5.246
80005SOL    HW141912  14.688   2.184   5.307
80005SOL    HW241913  14.670   2.287   5.198
80006SOL     OW41914   8.105   5.480   9.304
80006SOL    HW141915   8.054   5.554   9.337
80006SOL    HW241916   8.196   5.511   9.305
80007SOL     OW41917   7.646   1.007  10.119
80007SOL    HW141918   7.693   0.936  10.075
80007SOL    HW241919   7.575   0.962  10.166
80008SOL     OW41920  14.464  11.797  13.109
80008SOL    HW141921  14.509  11.882  13.108
80008SOL    HW241922  14.436  11.785  13.199
80009SOL     OW41923  12.111   5.363   7.008
80009SOL    HW141924  12.164   5.414   7.070
80009SOL    HW241925  12.037   5.332   7.060
80010SOL     OW41926   1.834   9.607   3.306
80010SOL    HW141927   1.864   9.562   3.227
80010SOL    HW241928   1.840   9.700   3.284
80011SOL     OW41929   6.646   8.842  12.435
80011SOL    HW141930   6.708   8.906  12.401
80011SOL    HW241931   6.605   8.804  12.358
80012SOL     OW41932  13.255  14.350  11.982
80012SOL    HW141933  13.272  14.444  11.992
80012SOL    HW241934  13.319  14.307  12.038
80013SOL     OW41935  10.274   5.246  13.409
80013SOL    HW141936  10.281   5.312  13.477
80013SOL    HW241937  10.309   5.289  13.330
80014SOL     OW41938   7.561  13.730  14.630
80014SOL    HW141939   7.562  13.824  14.611
80014SOL    HW241940   7.472  13.702  14.609
80015SOL     OW41941   2.389  10.887   5.332
80015SOL    HW141942   2.339  10.946   5.276
80015SOL    HW241943   2.352  10.800   5.315
80016SOL     OW41944  11.423   0.276  14.557
80016SOL    HW141945  11.448   0.313  14.472
80016SOL    HW241946  11.327   0.274  14.555
80017SOL     OW41947   2.899   4.560   5.260
80017SOL    HW141948   2.992   4.563   5.239
80017SOL    HW241949   2.896   4.573   5.355
80018SOL     OW41950   6.053  10.850  14.008
80018SOL    HW141951   6.091  10.798  13.937
80018SOL    HW241952   6.062  10.795  14.085
80019SOL     OW41953  10.463  11.034  11.169
80019SOL    HW141954  10.466  10.966  11.102
80019SOL    HW241955  10.388  11.010  11.224
80020SOL     OW41956   6.423  12.086   0.066
80020SOL    HW141957   6.339  12.104   0.025
80020SOL    HW241958   6.482  12.151   0.028
80021SOL     OW41959  14.403   3.619   2.821
80021SOL    HW141960  14.407   3.538   2.872
80021SOL    HW241961  14.488   3.622   2.775
80022SOL     OW41962   4.161   5.569   5.877
80022SOL    HW141963   4.238   5.551   5.930
80022SOL    HW241964   4.177   5.523   5.794
80023SOL     OW41965  10.440  12.576   0.811
80023SOL    HW141966  10.444  12.575   0.716
80023SOL    HW241967  10.518  12.625   0.838
80024SOL     OW41968   6.653   0.449   3.529
80024SOL    HW141969   6.600   0.372   3.549
80024SOL    HW241970   6.744   0.419   3.538
80025SOL     OW41971   9.505   9.304   6.784
80025SOL    HW141972   9.548   9.364   6.722
80025SOL    HW241973   9.497   9.222   6.735
80026SOL     OW41974   4.566   5.066   2.496
80026SOL    HW141975   4.519   5.146   2.471
80026SOL    HW241976   4.517   4.996   2.454
80027SOL     OW41977   2.893   1.800  14.301
80027SOL    HW141978   2.942   1.719  14.318
80027SOL    HW241979   2.819   1.796  14.362
80028SOL     OW41980   9.901   8.412  11.911
80028SOL    HW141981   9.868   8.446  11.994
80028SOL    HW241982   9.848   8.455  11.844
80029SOL     OW41983  11.134   1.104   3.051
80029SOL    HW141984  11.159   1.094   3.143
80029SOL    HW241985  11.145   1.017   3.013
80030SOL     OW41986   1.800   8.691  14.128
80030SOL    HW141987   1.840   8.777  14.113
80030SOL    HW241988   1.729   8.708  14.189
80031SOL     OW41989   3.406  10.353  11.472
80031SOL    HW141990   3.459  10.273  11.471
80031SOL    HW241991   3.411  10.384  11.563
80032SOL     OW41992   1.713   9.838   6.617
80032SOL    HW141993   1.729   9.778   6.689
80032SOL    HW241994   1.723   9.925   6.656
80033SOL     OW41995   2.386  12.560   7.932
80033SOL    HW141996   2.372  12.624   7.862
80033SOL    HW241997   2.406  12.478   7.886
80034SOL     OW41998   4.892   6.204  10.815
80034SOL    HW141999   4.892   6.189  10.721
80034SOL    HW242000   4.950   6.279  10.828
80035SOL     OW42001  11.887   8.814   0.126
80035SOL    HW142002  11.857   8.853   0.044
80035SOL    HW242003  11.936   8.736   0.099
80036SOL     OW42004  14.603   6.515   7.073
80036SOL    HW142005  14.513   6.488   7.095
80036SOL    HW242006  14.637   6.443   7.019
80037SOL     OW42007   6.868  12.369   1.577
80037SOL    HW142008   6.864  12.324   1.661
80037SOL    HW242009   6.906  12.454   1.597
80038SOL     OW42010   4.143   2.060   8.411
80038SOL    HW142011   4.233   2.092   8.403
80038SOL    HW242012   4.153   1.971   8.444
80039SOL     OW42013   1.051   3.537   5.000
80039SOL    HW142014   0.965   3.571   4.978
80039SOL    HW242015   1.091   3.605   5.055
80040SOL     OW42016   0.265  13.796   1.419
80040SOL    HW142017   0.229  13.709   1.438
80040SOL    HW242018   0.265  13.840   1.504
80041SOL     OW42019   9.473  13.568   8.347
80041SOL    HW142020   9.491  13.503   8.415
80041SOL    HW242021   9.549  13.563   8.288
80042SOL     OW42022   1.619   8.687   4.045
80042SOL    HW142023   1.669   8.752   4.095
80042SOL    HW242024   1.598   8.730   3.963
80043SOL     OW42025   2.785  10.184   5.327
80043SOL    HW142026   2.788  10.105   5.382
80043SOL    HW242027   2.697  10.182   5.289
80044SOL     OW42028  12.036   7.508   7.439
80044SOL    HW142029  12.097   7.579   7.459
80044SOL    HW242030  12.059   7.438   7.500
80045SOL     OW42031   4.313  14.689  11.382
80045SOL    HW142032   4.330  14.762  11.442
80045SOL    HW242033   4.218  14.679  11.383
80046SOL     OW42034  13.781   2.428   4.843
80046SOL    HW142035  13.770   2.347   4.893
80046SOL    HW242036  13.693   2.449   4.812
80047SOL     OW42037  12.578  11.206   6.180
80047SOL    HW142038  12.503  11.226   6.123
80047SOL    HW242039  12.562  11.257   6.259
80048SOL     OW42040   4.533  14.581   5.968
80048SOL    HW142041   4.459  14.521   5.959
80048SOL    HW242042   4.554  14.580   6.061
80049SOL     OW42043   3.304  11.037   5.390
80049SOL    HW142044   3.290  11.102   5.459
80049SOL    HW242045   3.318  10.955   5.438
80050SOL     OW42046   1.161  13.075  12.480
80050SOL    HW142047   1.129  13.029  12.558
80050SOL    HW242048   1.247  13.107  12.506
80051SOL     OW42049   0.458  10.695   8.775
80051SOL    HW142050   0.377  10.662   8.814
80051SOL    HW242051   0.432  10.778   8.735
80052SOL     OW42052   6.029  14.748   1.570
80052SOL    HW142053   6.122  14.749   1.550
80052SOL    HW242054   6.005  14.840   1.575
80053SOL     OW42055   6.839  13.022  10.957
80053SOL    HW142056   6.898  13.090  10.924
80053SOL    HW242057   6.839  13.035  11.052
80054SOL     OW42058   9.459   9.009  11.764
80054SOL    HW142059   9.468   9.104  11.777
80054SOL    HW242060   9.377   9.000  11.715
80055SOL     OW42061  13.113   7.861  10.196
80055SOL    HW142062  13.177   7.791  10.184
80055SOL    HW242063  13.147   7.913  10.269
80056SOL     OW42064   1.294   8.877   6.662
80056SOL    HW142065   1.345   8.954   6.638
80056SOL    HW242066   1.276   8.888   6.755
80057SOL     OW42067  14.074   7.709   2.413
80057SOL    HW142068  13.999   7.650   2.417
80057SOL    HW242069  14.116   7.701   2.499
80058SOL     OW42070  10.155   8.418   6.966
80058SOL    HW142071  10.227   8.449   6.912
80058SOL    HW242072  10.128   8.335   6.925
80059SOL     OW42073  14.631  12.330   2.391
80059SOL    HW142074  14.659  12.412   2.351
80059SOL    HW242075  14.707  12.299   2.439
80060SOL     OW42076  10.403  10.037   9.365
80060SOL    HW142077  10.441  10.023   9.278
80060SOL    HW242078  10.478  10.059   9.420
80061SOL     OW42079   0.199   1.927   1.170
80061SOL    HW142080   0.247   1.846   1.184
80061SOL    HW242081   0.261   1.997   1.192
80062SOL     OW42082   0.396   8.413   7.940
80062SOL    HW142083   0.421   8.391   8.030
80062SOL    HW242084   0.444   8.493   7.921
80063SOL     OW42085  13.663  12.543   0.092
80063SOL    HW142086  13.671  12.448   0.088
80063SOL    HW242087  13.710  12.575   0.015
80064SOL     OW42088   9.925  11.505   6.405
80064SOL    HW142089   9.988  11.499   6.333
80064SOL    HW242090   9.916  11.415   6.437
80065SOL     OW42091   3.411   3.593   9.427
80065SOL    HW142092   3.406   3.589   9.522
80065SOL    HW242093   3.447   3.679   9.408
80066SOL     OW42094   9.400   0.706  11.667
80066SOL    HW142095   9.377   0.614  11.656
80066SOL    HW242096   9.403   0.719  11.762
80067SOL     OW42097   9.314   8.218   6.396
80067SOL    HW142098   9.226   8.249   6.419
80067SOL    HW242099   9.372   8.259   6.461
80068SOL     OW42100  12.248   7.434   1.204
80068SOL    HW142101  12.231   7.341   1.219
80068SOL    HW242102  12.342   7.439   1.186
80069SOL     OW42103  13.983  10.652   0.661
80069SOL    HW142104  13.991  10.598   0.739
80069SOL    HW242105  13.989  10.590   0.588
80070SOL     OW42106   8.205   6.011   1.059
80070SOL    HW142107   8.170   5.948   1.121
80070SOL    HW242108   8.280   6.051   1.103
80071SOL     OW42109   0.595   9.107   5.131
80071SOL    HW142110   0.622   9.198   5.147
80071SOL    HW242111   0.555   9.109   5.044
80072SOL     OW42112   4.050  10.683   3.544
80072SOL    HW142113   4.004  10.630   3.479
80072SOL    HW242114   4.002  10.668   3.625
80073SOL     OW42115  12.215   0.004  10.318
80073SOL    HW142116  12.306  14.874  10.346
80073SOL    HW242117  12.211  14.849  10.230
80074SOL     OW42118  14.485  14.572   1.172
80074SOL    HW142119  14.523  14.552   1.258
80074SOL    HW242120  14.532  14.651   1.144
80075SOL     OW42121   8.374   5.958   2.951
80075SOL    HW142122   8.387   5.910   2.869
80075SOL    HW242123   8.382   6.050   2.926
80076SOL     OW42124   4.709  14.503   3.686
80076SOL    HW142125   4.710  14.539   3.597
80076SOL    HW242126   4.668  14.417   3.676
80077SOL     OW42127   4.048   3.124  14.431
80077SOL    HW142128   4.018   3.089  14.515
80077SOL    HW242129   4.003   3.208  14.422
80078SOL     OW42130  12.725   1.001   7.904
80078SOL    HW142131  12.746   1.094   7.895
80078SOL    HW242132  12.630   0.997   7.893
80079SOL     OW42133   7.303  10.110   4.936
80079SOL    HW142134   7.374  10.118   4.872
80079SOL    HW242135   7.318  10.026   4.979
80080SOL     OW42136   7.359   7.523   6.972
80080SOL    HW142137   7.291   7.591   6.980
80080SOL    HW242138   7.340   7.462   7.044
80081SOL     OW42139  13.656   1.646   5.038
80081SOL    HW142140  13.642   1.717   5.101
80081SOL    HW242141  13.742   1.610   5.061
80082SOL     OW42142   0.562   3.533   5.097
80082SOL    HW142143   0.486   3.553   5.152
80082SOL    HW242144   0.572   3.610   5.041
80083SOL     OW42145   4.234   1.032   1.452
80083SOL    HW142146   4.258   0.982   1.530
80083SOL    HW242147   4.196   1.113   1.486
80084SOL     OW42148  13.636  13.371   0.176
80084SOL    HW142149  13.659  13.286   0.141
80084SOL    HW242150  13.694  13.433   0.130
80085SOL     OW42151   8.856   5.071  13.513
80085SOL    HW142152   8.793   5.010  13.476
80085SOL    HW242153   8.939   5.025  13.512
80086SOL     OW42154   0.369   6.458   4.579
80086SOL    HW142155   0.321   6.435   4.500
80086SOL    HW242156   0.427   6.383   4.595
80087SOL     OW42157  14.740   8.987   7.023
80087SOL    HW142158  14.744   9.075   7.059
80087SOL    HW242159  14.826   8.949   7.043
80088SOL     OW42160   3.902  11.189   8.043
80088SOL    HW142161   3.960  11.135   8.096
80088SOL    HW242162   3.874  11.259   8.101
80089SOL     OW42163   5.100   3.074  12.052
80089SOL    HW142164   5.120   3.126  11.974
80089SOL    HW242165   5.034   3.127  12.098
80090SOL     OW42166  11.518   8.130  14.346
80090SOL    HW142167  11.552   8.067  14.282
80090SOL    HW242168  11.594   8.157  14.396
80091SOL     OW42169   6.575   4.882   8.008
80091SOL    HW142170   6.519   4.960   8.005
80091SOL    HW242171   6.539   4.825   7.941
80092SOL     OW42172   4.091  12.037  10.372
80092SOL    HW142173   4.102  11.965  10.434
80092SOL    HW242174   4.179  12.052  10.337
80093SOL     OW42175   2.894   3.894  13.295
80093SOL    HW142176   2.933   3.946  13.365
80093SOL    HW242177   2.882   3.807  13.333
80094SOL     OW42178  13.236   5.276  13.308
80094SOL    HW142179  13.311   5.323  13.272
80094SOL    HW242180  13.205   5.333  13.379
80095SOL     OW42181   4.388  13.742   6.752
80095SOL    HW142182   4.431  13.656   6.757
80095SOL    HW242183   4.453  13.803   6.786
80096SOL     OW42184   3.557   7.413  11.968
80096SOL    HW142185   3.644   7.395  12.004
80096SOL    HW242186   3.564   7.501  11.931
80097SOL     OW42187   4.111  11.571  12.747
80097SOL    HW142188   4.204  11.590  12.745
80097SOL    HW242189   4.076  11.627  12.816
80098SOL     OW42190   1.950  12.212   1.207
80098SOL    HW142191   2.027  12.214   1.150
80098SOL    HW242192   1.880  12.180   1.150
80099SOL     OW42193  12.500   8.741   1.613
80099SOL    HW142194  12.405   8.735   1.623
80099SOL    HW242195  12.518   8.835   1.607
80100SOL     OW42196   1.704  14.722  13.699
80100SOL    HW142197   1.656  14.641  13.683
80100SOL    HW242198   1.638  14.791  13.689
80101SOL     OW42199   8.534   2.952   9.082
80101SOL    HW142200   8.613   3.006   9.083
80101SOL    HW242201   8.490   2.975   8.999
80102SOL     OW42202   3.836   4.412   4.090
80102SOL    HW142203   3.879   4.423   4.005
80102SOL    HW242204   3.861   4.490   4.140
80103SOL     OW42205   8.202  13.776  14.454
80103SOL    HW142206   8.159  13.861  14.449
80103SOL    HW242207   8.290  13.792  14.419
80104SOL     OW42208   6.167   2.834   6.068
80104SOL    HW142209   6.234   2.897   6.040
80104SOL    HW242210   6.191   2.812   6.158
80105SOL     OW42211   6.344   2.467   5.157
80105SOL    HW142212   6.290   2.497   5.083
80105SOL    HW242213   6.311   2.517   5.232
80106SOL     OW42214  12.406   1.270   9.069
80106SOL    HW142215  12.485   1.285   9.017
80106SOL    HW242216  12.364   1.356   9.073
80107SOL     OW42217   4.096  12.384  14.084
80107SOL    HW142218   4.137  12.470  14.084
80107SOL    HW242219   4.069  12.371  14.175
80108SOL     OW42220   6.606  12.823   4.170
80108SOL    HW142221   6.604  12.729   4.154
80108SOL    HW242222   6.581  12.832   4.262
80109SOL     OW42223   0.083   2.045   1.902
80109SOL    HW142224   0.008   2.089   1.941
80109SOL    HW242225   0.157   2.073   1.956
80110SOL     OW42226   0.439   8.759   4.154
80110SOL    HW142227   0.423   8.825   4.087
80110SOL    HW242228   0.439   8.808   4.237
80111SOL     OW42229  11.167   6.233  12.446
80111SOL    HW142230  11.156   6.154  12.393
80111SOL    HW242231  11.088   6.238  12.499
80112SOL     OW42232  11.311   3.572   8.170
80112SOL    HW142233  11.326   3.605   8.082
80112SOL    HW242234  11.223   3.533   8.166
80113SOL     OW42235   5.584   5.327  10.795
80113SOL    HW142236   5.628   5.380  10.729
80113SOL    HW242237   5.655   5.296  10.852
80114SOL     OW42238  14.615   9.333   4.536
80114SOL    HW142239  14.576   9.403   4.484
80114SOL    HW242240  14.612   9.256   4.480
80115SOL     OW42241   8.238   6.091   5.457
80115SOL    HW142242   8.240   6.107   5.362
80115SOL    HW242243   8.329   6.081   5.481
80116SOL     OW42244  10.552   6.186   7.064
80116SOL    HW142245  10.635   6.232   7.063
80116SOL    HW242246  10.557   6.126   6.989
80117SOL     OW42247  12.722   1.622   7.033
80117SOL    HW142248  12.778   1.546   7.014
80117SOL    HW242249  12.775   1.676   7.092
80118SOL     OW42250   4.761   6.074   6.107
80118SOL    HW142251   4.693   6.125   6.151
80118SOL    HW242252   4.716   5.995   6.077
80119SOL     OW42253   0.595   8.858   8.810
80119SOL    HW142254   0.679   8.841   8.769
80119SOL    HW242255   0.608   8.834   8.902
80120SOL     OW42256   2.437   2.448   5.466
80120SOL    HW142257   2.365   2.498   5.505
80120SOL    HW242258   2.479   2.510   5.406
80121SOL     OW42259   1.093  13.197   5.075
80121SOL    HW142260   1.170  13.157   5.034
80121SOL    HW242261   1.087  13.284   5.035
80122SOL     OW42262   6.730  13.100   9.846
80122SOL    HW142263   6.669  13.069   9.913
80122SOL    HW242264   6.796  13.031   9.841
80123SOL     OW42265   9.610  12.272   1.080
80123SOL    HW142266   9.602  12.303   0.990
80123SOL    HW242267   9.695  12.305   1.109
80124SOL     OW42268   1.383  14.724   7.302
80124SOL    HW142269   1.295  14.690   7.287
80124SOL    HW242270   1.441  14.653   7.277
80125SOL     OW42271   1.277  12.630   0.209
80125SOL    HW142272   1.210  12.655   0.146
80125SOL    HW242273   1.291  12.708   0.262
80126SOL     OW42274   1.496   6.454   5.195
80126SOL    HW142275   1.422   6.397   5.173
80126SOL    HW242276   1.491   6.525   5.132
80127SOL     OW42277   1.714   6.173   7.956
80127SOL    HW142278   1.702   6.107   7.887
80127SOL    HW242279   1.796   6.216   7.933
80128SOL     OW42280   8.744   6.798   9.708
80128SOL    HW142281   8.661   6.799   9.755
80128SOL    HW242282   8.721   6.775   9.618
80129SOL     OW42283   7.007   3.561   0.313
80129SOL    HW142284   7.065   3.630   0.345
80129SOL    HW242285   6.919   3.591   0.335
80130SOL     OW42286   4.877  12.628   7.773
80130SOL    HW142287   4.854  12.663   7.687
80130SOL    HW242288   4.837  12.541   7.775
80131SOL     OW42289  12.462   4.725   3.451
80131SOL    HW142290  12.455   4.800   3.510
80131SOL    HW242291  12.409   4.657   3.492
80132SOL     OW42292   2.655   7.577   4.059
80132SOL    HW142293   2.708   7.656   4.066
80132SOL    HW242294   2.679   7.525   4.136
80133SOL     OW42295   1.132   2.585   1.640
80133SOL    HW142296   1.038   2.601   1.624
80133SOL    HW242297   1.142   2.599   1.734
80134SOL     OW42298   6.508   2.174   1.394
80134SOL    HW142299   6.482   2.097   1.444
80134SOL    HW242300   6.466   2.247   1.440
80135SOL     OW42301  12.714  11.802   5.160
80135SOL    HW142302  12.769  11.879   5.177
80135SOL    HW242303  12.738  11.740   5.228
80136SOL     OW42304   4.236   1.021   0.195
80136SOL    HW142305   4.291   1.054   0.124
80136SOL    HW242306   4.275   0.937   0.218
80137SOL     OW42307   1.861   7.962   6.744
80137SOL    HW142308   1.777   7.916   6.738
80137SOL    HW242309   1.852   8.018   6.821
80138SOL     OW42310   8.942   9.068   1.040
80138SOL    HW142311   8.914   8.989   0.995
80138SOL    HW242312   8.874   9.133   1.020
80139SOL     OW42313   9.333   6.351   1.383
80139SOL    HW142314   9.246   6.387   1.366
80139SOL    HW242315   9.343   6.358   1.478
80140SOL     OW42316   1.486   5.474  12.910
80140SOL    HW142317   1.580   5.481  12.897
80140SOL    HW242318   1.472   5.382  12.933
80141SOL     OW42319   6.555  11.093  11.973
80141SOL    HW142320   6.572  11.029  11.904
80141SOL    HW242321   6.545  11.041  12.053
80142SOL     OW42322   6.634   4.777  14.429
80142SOL    HW142323   6.614   4.746  14.517
80142SOL    HW242324   6.712   4.832  14.439
80143SOL     OW42325   4.435   1.681   7.237
80143SOL    HW142326   4.439   1.591   7.268
80143SOL    HW242327   4.489   1.682   7.158
80144SOL     OW42328   2.566   5.077  13.967
80144SOL    HW142329   2.478   5.089  13.930
80144SOL    HW242330   2.619   5.047  13.893
80145SOL     OW42331   2.227  11.286   6.668
80145SOL    HW142332   2.233  11.365   6.615
80145SOL    HW242333   2.314  11.245   6.661
80146SOL     OW42334   4.412   9.124  13.120
80146SOL    HW142335   4.459   9.059  13.171
80146SOL    HW242336   4.390   9.079  13.039
80147SOL     OW42337   0.534   0.288   1.375
80147SOL    HW142338   0.542   0.298   1.470
80147SOL    HW242339   0.504   0.198   1.363
80148SOL     OW42340  10.284   2.254  12.345
80148SOL    HW142341  10.305   2.162  12.326
80148SOL    HW242342  10.362   2.288  12.388
80149SOL     OW42343   4.249   8.597   2.856
80149SOL    HW142344   4.325   8.549   2.823
80149SOL    HW242345   4.204   8.535   2.913
80150SOL     OW42346  10.118  14.191   6.398
80150SOL    HW142347  10.152  14.280   6.398
80150SOL    HW242348  10.111  14.168   6.491
80151SOL     OW42349   3.124   6.086  11.746
80151SOL    HW142350   3.126   6.112  11.654
80151SOL    HW242351   3.169   6.002  11.749
80152SOL     OW42352   4.825   9.063   1.810
80152SOL    HW142353   4.799   9.039   1.722
80152SOL    HW242354   4.891   9.131   1.798
80153SOL     OW42355  14.359   3.707   5.207
80153SOL    HW142356  14.357   3.651   5.285
80153SOL    HW242357  14.302   3.780   5.227
80154SOL     OW42358   3.389   2.471   5.847
80154SOL    HW142359   3.330   2.521   5.903
80154SOL    HW242360   3.458   2.441   5.906
80155SOL     OW42361   9.637   9.043   5.076
80155SOL    HW142362   9.614   9.127   5.036
80155SOL    HW242363   9.594   9.044   5.161
80156SOL     OW42364   7.024   6.526   1.082
80156SOL    HW142365   6.932   6.497   1.086
80156SOL    HW242366   7.075   6.446   1.099
80157SOL     OW42367  12.972   1.208   8.507
80157SOL    HW142368  12.900   1.145   8.513
80157SOL    HW242369  12.982   1.224   8.413
80158SOL     OW42370   5.400   2.755  11.726
80158SOL    HW142371   5.343   2.801  11.664
80158SOL    HW242372   5.341   2.730  11.797
80159SOL     OW42373  13.454  14.117   0.647
80159SOL    HW142374  13.389  14.153   0.587
80159SOL    HW242375  13.403  14.061   0.707
80160SOL     OW42376   3.224  13.044   5.094
80160SOL    HW142377   3.181  13.073   5.013
80160SOL    HW242378   3.297  13.105   5.105
80161SOL     OW42379  10.482  14.457   6.508
80161SOL    HW142380  10.573  14.464   6.481
80161SOL    HW242381  10.452  14.373   6.473
80162SOL     OW42382   5.167   6.697   9.816
80162SOL    HW142383   5.127   6.776   9.853
80162SOL    HW242384   5.094   6.636   9.805
80163SOL     OW42385   3.182   8.651   8.575
80163SOL    HW142386   3.243   8.619   8.508
80163SOL    HW242387   3.227   8.725   8.615
80164SOL     OW42388  13.241   3.623   2.842
80164SOL    HW142389  13.313   3.672   2.803
80164SOL    HW242390  13.262   3.531   2.825
80165SOL     OW42391   5.886   9.977   9.803
80165SOL    HW142392   5.835  10.026   9.867
80165SOL    HW242393   5.900  10.039   9.731
80166SOL     OW42394   3.263  12.177   5.468
80166SOL    HW142395   3.223  12.204   5.386
80166SOL    HW242396   3.216  12.225   5.535
80167SOL     OW42397   8.377  12.484  11.031
80167SOL    HW142398   8.383  12.398  10.988
80167SOL    HW242399   8.284  12.505  11.030
80168SOL     OW42400   0.439   5.183   6.434
80168SOL    HW142401   0.520   5.157   6.478
80168SOL    HW242402   0.372   5.127   6.473
80169SOL     OW42403   7.032   9.794   0.915
80169SOL    HW142404   6.961   9.741   0.878
80169SOL    HW242405   6.996   9.827   0.998
80170SOL     OW42406   5.421   5.874  10.829
80170SOL    HW142407   5.338   5.922  10.827
80170SOL    HW242408   5.431   5.840  10.740
80171SOL     OW42409   0.647  10.922   9.665
80171SOL    HW142410   0.665  10.857   9.734
80171SOL    HW242411   0.733  10.961   9.646
80172SOL     OW42412  12.051   3.212   2.075
80172SOL    HW142413  11.961   3.214   2.044
80172SOL    HW242414  12.068   3.120   2.095
80173SOL     OW42415  13.608   4.991  11.253
80173SOL    HW142416  13.630   5.040  11.173
80173SOL    HW242417  13.579   5.059  11.315
80174SOL     OW42418   8.288   4.896  10.726
80174SOL    HW142419   8.277   4.820  10.783
80174SOL    HW242420   8.327   4.963  10.783
80175SOL     OW42421   0.006   3.133  10.753
80175SOL    HW142422   0.064   3.199  10.714
80175SOL    HW242423   0.059   3.053  10.754
80176SOL     OW42424   8.933  14.737  12.820
80176SOL    HW142425   8.959  14.698  12.736
80176SOL    HW242426   9.012  14.734  12.873
80177SOL     OW42427  11.334   1.338   9.465
80177SOL    HW142428  11.245   1.362   9.438
80177SOL    HW242429  11.391   1.398   9.415
80178SOL     OW42430   7.916  11.570   4.024
80178SOL    HW142431   7.892  11.660   4.003
80178SOL    HW242432   7.890  11.520   3.946
80179SOL     OW42433   8.315  12.382  12.755
80179SOL    HW142434   8.306  12.333  12.836
80179SOL    HW242435   8.245  12.349  12.698
80180SOL     OW42436  12.849   8.676   9.365
80180SOL    HW142437  12.782   8.665   9.433
80180SOL    HW242438  12.848   8.593   9.318
80181SOL     OW42439   8.917   2.006   0.604
80181SOL    HW142440   8.880   2.043   0.684
80181SOL    HW242441   8.954   1.922   0.631
80182SOL     OW42442   5.775   1.374   6.572
80182SOL    HW142443   5.796   1.339   6.485
80182SOL    HW242444   5.806   1.308   6.633
80183SOL     OW42445  12.986  12.646  13.898
80183SOL    HW142446  12.951  12.734  13.889
80183SOL    HW242447  13.080  12.656  13.885
80184SOL     OW42448  11.923   6.783   7.583
80184SOL    HW142449  11.975   6.727   7.642
80184SOL    HW242450  11.879   6.844   7.642
80185SOL     OW42451   9.007  10.457   1.735
80185SOL    HW142452   8.970  10.545   1.739
80185SOL    HW242453   8.967  10.417   1.658
80186SOL     OW42454   7.308   1.328   1.528
80186SOL    HW142455   7.345   1.249   1.569
80186SOL    HW242456   7.268   1.297   1.447
80187SOL     OW42457   7.665  13.596   3.045
80187SOL    HW142458   7.756  13.591   3.015
80187SOL    HW242459   7.613  13.570   2.970
80188SOL     OW42460   6.139  12.542   4.445
80188SOL    HW142461   6.220  12.555   4.396
80188SOL    HW242462   6.069  12.568   4.384
80189SOL     OW42463   3.375  11.471  13.421
80189SOL    HW142464   3.395  11.389  13.377
80189SOL    HW242465   3.459  11.517  13.427
80190SOL     OW42466   2.743  13.239   2.384
80190SOL    HW142467   2.801  13.181   2.334
80190SOL    HW242468   2.728  13.314   2.326
80191SOL     OW42469  12.489   9.997   3.460
80191SOL    HW142470  12.522  10.086   3.445
80191SOL    HW242471  12.507   9.980   3.552
80192SOL     OW42472  14.739   5.673   7.934
80192SOL    HW142473  14.651   5.641   7.914
80192SOL    HW242474  14.747   5.753   7.882
80193SOL     OW42475   5.937  11.592   0.008
80193SOL    HW142476   5.980  11.507   0.022
80193SOL    HW242477   5.844  11.571   0.008
80194SOL     OW42478   2.301  11.661   5.760
80194SOL    HW142479   2.288  11.579   5.806
80194SOL    HW242480   2.309  11.727   5.829
80195SOL     OW42481   0.914   9.614   8.075
80195SOL    HW142482   0.828   9.586   8.045
80195SOL    HW242483   0.937   9.553   8.145
80196SOL     OW42484   1.831  12.456   7.716
80196SOL    HW142485   1.836  12.468   7.621
80196SOL    HW242486   1.737  12.453   7.735
80197SOL     OW42487  12.310  14.562   4.658
80197SOL    HW142488  12.222  14.541   4.628
80197SOL    HW242489  12.349  14.478   4.681
80198SOL     OW42490   5.603   0.604   2.470
80198SOL    HW142491   5.521   0.601   2.420
80198SOL    HW242492   5.644   0.686   2.443
80199SOL     OW42493   7.538  12.498  10.918
80199SOL    HW142494   7.482  12.461  10.986
80199SOL    HW242495   7.483  12.564  10.876
80200SOL     OW42496  12.917   4.462   6.823
80200SOL    HW142497  12.928   4.468   6.918
80200SOL    HW242498  12.992   4.509   6.787
80201SOL     OW42499   5.081   7.358   2.344
80201SOL    HW142500   5.084   7.292   2.413
80201SOL    HW242501   5.084   7.307   2.263
80202SOL     OW42502   0.641  10.638  10.891
80202SOL    HW142503   0.576  10.569  10.876
80202SOL    HW242504   0.601  10.693  10.959
80203SOL     OW42505  12.759   1.884   5.392
80203SOL    HW142506  12.736   1.976   5.399
80203SOL    HW242507  12.699   1.839   5.452
80204SOL     OW42508   7.814   2.355   5.461
80204SOL    HW142509   7.803   2.291   5.532
80204SOL    HW242510   7.902   2.390   5.475
80205SOL     OW42511  11.463   6.750  12.009
80205SOL    HW142512  11.530   6.710  12.065
80205SOL    HW242513  11.415   6.676  11.972
80206SOL     OW42514   2.689   0.252  13.193
80206SOL    HW142515   2.657   0.309  13.263
80206SOL    HW242516   2.610   0.210  13.159
80207SOL     OW42517   2.225  14.039   0.691
80207SOL    HW142518   2.209  14.009   0.780
80207SOL    HW242519   2.192  13.968   0.636
80208SOL     OW42520  14.553   1.342   0.940
80208SOL    HW142521  14.573   1.432   0.915
80208SOL    HW242522  14.620   1.290   0.896
80209SOL     OW42523   5.807   5.372  11.077
80209SOL    HW142524   5.799   5.300  11.015
80209SOL    HW242525   5.719   5.410  11.083
80210SOL     OW42526   5.491   2.487  10.179
80210SOL    HW142527   5.397   2.470  10.175
80210SOL    HW242528   5.530   2.402  10.199
80211SOL     OW42529   7.311   2.246  13.400
80211SOL    HW142530   7.241   2.248  13.466
80211SOL    HW242531   7.338   2.154  13.396
80212SOL     OW42532   3.174  14.366   4.273
80212SOL    HW142533   3.080  14.377   4.263
80212SOL    HW242534   3.193  14.281   4.234
80213SOL     OW42535   7.027  10.843   5.362
80213SOL    HW142536   7.011  10.855   5.268
80213SOL    HW242537   7.118  10.813   5.367
80214SOL     OW42538  13.856   1.523   6.052
80214SOL    HW142539  13.801   1.574   5.992
80214SOL    HW242540  13.808   1.524   6.135
80215SOL     OW42541  10.492   8.964   5.463
80215SOL    HW142542  10.510   9.016   5.384
80215SOL    HW242543  10.500   8.873   5.435
80216SOL     OW42544  12.870  13.061  12.031
80216SOL    HW142545  12.941  13.007  11.996
80216SOL    HW242546  12.868  13.138  11.974
80217SOL     OW42547   9.244   2.392   1.080
80217SOL    HW142548   9.265   2.340   1.003
80217SOL    HW242549   9.205   2.330   1.141
80218SOL     OW42550   3.829   1.605   5.894
80218SOL    HW142551   3.903   1.559   5.934
80218SOL    HW242552   3.818   1.684   5.947
80219SOL     OW42553  12.298   9.117  14.359
80219SOL    HW142554  12.330   9.027  14.355
80219SOL    HW242555  12.367   9.169  14.317
80220SOL     OW42556   0.540   9.511   4.567
80220SOL    HW142557   0.595   9.496   4.490
80220SOL    HW242558   0.510   9.601   4.559
80221SOL     OW42559   7.936   4.804  13.772
80221SOL    HW142560   8.027   4.832  13.765
80221SOL    HW242561   7.940   4.720  13.817
80222SOL     OW42562   4.371  13.846   6.104
80222SOL    HW142563   4.380  13.923   6.160
80222SOL    HW242564   4.460  13.816   6.089
80223SOL     OW42565  10.018  12.853   3.070
80223SOL    HW142566  10.084  12.785   3.058
80223SOL    HW242567   9.960  12.818   3.137
80224SOL     OW42568  14.737   8.689  12.643
80224SOL    HW142569  14.811   8.631  12.627
80224SOL    HW242570  14.677   8.636  12.698
80225SOL     OW42571  12.241   5.852  13.285
80225SOL    HW142572  12.240   5.778  13.346
80225SOL    HW242573  12.204   5.925  13.335
80226SOL     OW42574  12.584  12.552   0.374
80226SOL    HW142575  12.630  12.501   0.440
80226SOL    HW242576  12.590  12.643   0.405
80227SOL     OW42577   6.735   2.938   2.717
80227SOL    HW142578   6.697   3.026   2.718
80227SOL    HW242579   6.672   2.884   2.764
80228SOL     OW42580   6.080   9.848   6.135
80228SOL    HW142581   6.056   9.816   6.222
80228SOL    HW242582   5.996   9.862   6.091
80229SOL     OW42583   6.115   8.230   7.866
80229SOL    HW142584   6.045   8.171   7.894
80229SOL    HW242585   6.192   8.174   7.857
80230SOL     OW42586  12.792   8.557  10.416
80230SOL    HW142587  12.764   8.466  10.408
80230SOL    HW242588  12.750   8.602  10.343
80231SOL     OW42589   4.923   6.883  12.071
80231SOL    HW142590   4.886   6.915  11.989
80231SOL    HW242591   5.015   6.866  12.052
80232SOL     OW42592   4.301   6.873   7.826
80232SOL    HW142593   4.312   6.827   7.909
80232SOL    HW242594   4.387   6.914   7.810
80233SOL     OW42595   2.735   3.032  13.265
80233SOL    HW142596   2.769   2.967  13.326
80233SOL    HW242597   2.729   2.986  13.182
80234SOL     OW42598   3.737  12.620   2.429
80234SOL    HW142599   3.827  12.640   2.403
80234SOL    HW242600   3.736  12.525   2.443
80235SOL     OW42601   2.312   7.429  11.046
80235SOL    HW142602   2.310   7.402  11.137
80235SOL    HW242603   2.347   7.518  11.048
80236SOL     OW42604   8.597   1.899   1.536
80236SOL    HW142605   8.670   1.960   1.533
80236SOL    HW242606   8.522   1.951   1.505
80237SOL     OW42607   7.000   2.430   2.296
80237SOL    HW142608   6.976   2.496   2.361
80237SOL    HW242609   6.968   2.465   2.213
80238SOL     OW42610  12.831  10.202  11.473
80238SOL    HW142611  12.909  10.256  11.471
80238SOL    HW242612  12.764  10.255  11.428
80239SOL     OW42613  11.349  14.654  13.290
80239SOL    HW142614  11.442  14.676  13.284
80239SOL    HW242615  11.338  14.582  13.228
80240SOL     OW42616   5.976  12.528   7.636
80240SOL    HW142617   6.054  12.499   7.684
80240SOL    HW242618   5.975  12.623   7.646
80241SOL     OW42619   9.825   4.387  10.000
80241SOL    HW142620   9.799   4.477   9.982
80241SOL    HW242621   9.916   4.381   9.971
80242SOL     OW42622  14.075   4.347   0.106
80242SOL    HW142623  14.068   4.351   0.202
80242SOL    HW242624  14.132   4.272   0.090
80243SOL     OW42625   9.215   5.154   4.038
80243SOL    HW142626   9.124   5.163   4.064
80243SOL    HW242627   9.235   5.061   4.050
80244SOL     OW42628   1.021   3.240  11.211
80244SOL    HW142629   1.068   3.242  11.295
80244SOL    HW242630   1.085   3.271  11.147
80245SOL     OW42631  11.111   7.189   1.600
80245SOL    HW142632  11.191   7.241   1.601
80245SOL    HW242633  11.125   7.125   1.529
80246SOL     OW42634   8.799   2.680   4.572
80246SOL    HW142635   8.831   2.590   4.575
80246SOL    HW242636   8.820   2.710   4.484
80247SOL     OW42637  12.787   8.841   3.111
80247SOL    HW142638  12.819   8.873   3.195
80247SOL    HW242639  12.793   8.917   3.053
80248SOL     OW42640   8.192  13.222   4.174
80248SOL    HW142641   8.212  13.129   4.178
80248SOL    HW242642   8.191  13.250   4.266
80249SOL     OW42643  11.092  11.345   0.602
80249SOL    HW142644  11.186  11.328   0.609
80249SOL    HW242645  11.053  11.290   0.670
80250SOL     OW42646  14.024   2.907   8.928
80250SOL    HW142647  14.042   2.932   9.018
80250SOL    HW242648  13.929   2.909   8.921
80251SOL     OW42649   8.513   1.233   1.017
80251SOL    HW142650   8.569   1.175   1.069
80251SOL    HW242651   8.564   1.314   1.010
80252SOL     OW42652   7.918  14.338   3.725
80252SOL    HW142653   7.984  14.405   3.706
80252SOL    HW242654   7.906  14.341   3.820
80253SOL     OW42655  13.108   8.539   2.469
80253SOL    HW142656  13.033   8.566   2.522
80253SOL    HW242657  13.087   8.448   2.444
80254SOL     OW42658   1.602   2.568  11.969
80254SOL    HW142659   1.560   2.501  12.022
80254SOL    HW242660   1.537   2.591  11.903
80255SOL     OW42661   8.735   2.987  13.408
80255SOL    HW142662   8.774   2.913  13.454
80255SOL    HW242663   8.729   2.959  13.317
80256SOL     OW42664  10.916   9.500  13.421
80256SOL    HW142665  10.891   9.588  13.450
80256SOL    HW242666  10.993   9.514  13.365
80257SOL     OW42667  10.208  14.441   3.468
80257SOL    HW142668  10.194  14.362   3.417
80257SOL    HW242669  10.223  14.509   3.403
80258SOL     OW42670  14.478   0.088  13.081
80258SOL    HW142671  14.453   0.075  13.172
80258SOL    HW242672  14.570   0.060  13.077
80259SOL     OW42673  14.357   3.571   0.207
80259SOL    HW142674  14.370   3.481   0.176
80259SOL    HW242675  14.393   3.571   0.296
80260SOL     OW42676   1.518   1.411  13.498
80260SOL    HW142677   1.428   1.407  13.531
80260SOL    HW242678   1.573   1.399  13.575
80261SOL     OW42679   3.425  11.570  10.403
80261SOL    HW142680   3.517  11.590  10.389
80261SOL    HW242681   3.379  11.652  10.386
80262SOL     OW42682  12.915   0.254   7.830
80262SOL    HW142683  12.899   0.199   7.907
80262SOL    HW242684  12.833   0.303   7.820
80263SOL     OW42685   8.366   1.242  13.880
80263SOL    HW142686   8.402   1.327  13.857
80263SOL    HW242687   8.362   1.242  13.975
80264SOL     OW42688   0.403   7.318  11.119
80264SOL    HW142689   0.309   7.307  11.135
80264SOL    HW242690   0.411   7.321  11.024
80265SOL     OW42691  13.201   7.525   0.690
80265SOL    HW142692  13.117   7.496   0.654
80265SOL    HW242693  13.254   7.446   0.695
80266SOL     OW42694  12.495   6.434   7.734
80266SOL    HW142695  12.415   6.482   7.715
80266SOL    HW242696  12.467   6.343   7.746
80267SOL     OW42697   3.195   6.056   4.206
80267SOL    HW142698   3.124   6.105   4.164
80267SOL    HW242699   3.272   6.074   4.153
80268SOL     OW42700   6.016  12.752  13.790
80268SOL    HW142701   5.940  12.700  13.816
80268SOL    HW242702   6.091  12.696  13.811
80269SOL     OW42703   9.039   5.113   6.921
80269SOL    HW142704   9.093   5.189   6.943
80269SOL    HW242705   9.102   5.044   6.898
80270SOL     OW42706  10.182   6.695   5.906
80270SOL    HW142707  10.190   6.600   5.909
80270SOL    HW242708  10.090   6.712   5.925
80271SOL     OW42709  14.392  12.680  11.236
80271SOL    HW142710  14.358  12.666  11.324
80271SOL    HW242711  14.425  12.770  11.238
80272SOL     OW42712   1.372   9.936  10.774
80272SOL    HW142713   1.316  10.006  10.807
80272SOL    HW242714   1.318   9.891  10.709
80273SOL     OW42715  10.951   9.145   1.225
80273SOL    HW142716  10.981   9.236   1.227
80273SOL    HW242717  11.031   9.093   1.217
80274SOL     OW42718   5.180   5.297  10.875
80274SOL    HW142719   5.205   5.299  10.783
80274SOL    HW242720   5.101   5.244  10.877
80275SOL     OW42721   5.484  14.757   3.222
80275SOL    HW142722   5.416  14.722   3.164
80275SOL    HW242723   5.474  14.706   3.303
80276SOL     OW42724   4.357  11.731  10.377
80276SOL    HW142725   4.384  11.665  10.442
80276SOL    HW242726   4.440  11.768  10.346
80277SOL     OW42727   7.710   4.487   2.490
80277SOL    HW142728   7.790   4.452   2.530
80277SOL    HW242729   7.697   4.431   2.413
80278SOL     OW42730   8.863   0.174  11.654
80278SOL    HW142731   8.923   0.238  11.692
80278SOL    HW242732   8.781   0.222  11.641
80279SOL     OW42733  10.146  11.615  10.518
80279SOL    HW142734  10.171  11.538  10.466
80279SOL    HW242735  10.077  11.583  10.576
80280SOL     OW42736  10.710   2.327   6.783
80280SOL    HW142737  10.801   2.322   6.752
80280SOL    HW242738  10.709   2.274   6.862
80281SOL     OW42739  14.434  12.535   3.317
80281SOL    HW142740  14.376  12.511   3.244
80281SOL    HW242741  14.452  12.628   3.303
80282SOL     OW42742  10.735  11.669   9.621
80282SOL    HW142743  10.718  11.587   9.667
80282SOL    HW242744  10.808  11.650   9.563
80283SOL     OW42745  11.912  10.199   0.923
80283SOL    HW142746  11.898  10.293   0.918
80283SOL    HW242747  11.825  10.161   0.913
80284SOL     OW42748  12.238  10.177   4.629
80284SOL    HW142749  12.180  10.158   4.556
80284SOL    HW242750  12.214  10.265   4.658
80285SOL     OW42751  11.729   0.151   6.065
80285SOL    HW142752  11.714   0.149   6.160
80285SOL    HW242753  11.733   0.059   6.039
80286SOL     OW42754   5.781   4.329  13.866
80286SOL    HW142755   5.844   4.260  13.845
80286SOL    HW242756   5.699   4.299  13.827
80287SOL     OW42757   3.047   8.772   2.921
80287SOL    HW142758   3.074   8.756   2.831
80287SOL    HW242759   3.094   8.852   2.945
80288SOL     OW42760  11.439   8.845   8.012
80288SOL    HW142761  11.345   8.826   8.017
80288SOL    HW242762  11.481   8.768   8.049
80289SOL     OW42763  13.320   4.491  14.605
80289SOL    HW142764  13.310   4.537  14.522
80289SOL    HW242765  13.380   4.545  14.656
80290SOL     OW42766  10.364   5.504  10.103
80290SOL    HW142767  10.363   5.475  10.194
80290SOL    HW242768  10.455   5.529  10.087
80291SOL     OW42769  11.039   4.705   6.356
80291SOL    HW142770  11.090   4.691   6.276
80291SOL    HW242771  11.102   4.742   6.418
80292SOL     OW42772  10.274   4.807   8.556
80292SOL    HW142773  10.324   4.885   8.532
80292SOL    HW242774  10.293   4.744   8.486
80293SOL     OW42775  12.699   9.199   7.143
80293SOL    HW142776  12.723   9.135   7.076
80293SOL    HW242777  12.749   9.173   7.220
80294SOL     OW42778   3.600  14.374   1.526
80294SOL    HW142779   3.693  14.378   1.504
80294SOL    HW242780   3.598  14.395   1.620
80295SOL     OW42781   2.621   5.830  11.794
80295SOL    HW142782   2.641   5.847  11.702
80295SOL    HW242783   2.525   5.831  11.798
80296SOL     OW42784   1.393   8.588   6.667
80296SOL    HW142785   1.353   8.652   6.608
80296SOL    HW242786   1.342   8.594   6.747
80297SOL     OW42787  13.897   1.103   3.344
80297SOL    HW142788  13.902   1.073   3.253
80297SOL    HW242789  13.849   1.186   3.339
80298SOL     OW42790  14.576  13.139   0.631
80298SOL    HW142791  14.660  13.094   0.631
80298SOL    HW242792  14.516  13.078   0.675
80299SOL     OW42793   4.956  14.120   3.501
80299SOL    HW142794   5.025  14.174   3.538
80299SOL    HW242795   4.920  14.172   3.430
80300SOL     OW42796  12.271  11.121   1.133
80300SOL    HW142797  12.202  11.164   1.184
80300SOL    HW242798  12.228  11.046   1.093
80301SOL     OW42799  10.877  14.258   0.352
80301SOL    HW142800  10.900  14.178   0.305
80301SOL    HW242801  10.857  14.322   0.283
80302SOL     OW42802   7.798   4.687   9.717
80302SOL    HW142803   7.734   4.680   9.787
80302SOL    HW242804   7.880   4.655   9.755
80303SOL     OW42805  10.429   3.942   6.680
80303SOL    HW142806  10.338   3.957   6.706
80303SOL    HW242807  10.436   3.981   6.593
80304SOL     OW42808   6.107   4.974   2.659
80304SOL    HW142809   6.166   5.000   2.588
80304SOL    HW242810   6.164   4.932   2.723
80305SOL     OW42811   3.197   4.311  10.391
80305SOL    HW142812   3.145   4.391  10.397
80305SOL    HW242813   3.135   4.245  10.358
80306SOL     OW42814  13.753   8.356  14.208
80306SOL    HW142815  13.672   8.306  14.194
80306SOL    HW242816  13.775   8.340  14.300
80307SOL     OW42817   8.928  11.416   3.593
80307SOL    HW142818   8.976  11.497   3.612
80307SOL    HW242819   8.854  11.445   3.540
80308SOL     OW42820  14.512   5.913   4.720
80308SOL    HW142821  14.432   5.940   4.766
80308SOL    HW242822  14.486   5.904   4.628
80309SOL     OW42823   8.197   3.186  10.151
80309SOL    HW142824   8.147   3.104  10.151
80309SOL    HW242825   8.173   3.229  10.068
80310SOL     OW42826   6.786   2.670   6.786
80310SOL    HW142827   6.845   2.690   6.858
80310SOL    HW242828   6.803   2.578   6.766
80311SOL     OW42829  11.929   1.222  14.469
80311SOL    HW142830  11.947   1.137  14.429
80311SOL    HW242831  11.941   1.207  14.563
80312SOL     OW42832  14.196  12.710   4.127
80312SOL    HW142833  14.167  12.778   4.188
80312SOL    HW242834  14.193  12.752   4.041
80313SOL     OW42835   3.870   8.128  12.783
80313SOL    HW142836   3.855   8.080  12.864
80313SOL    HW242837   3.813   8.086  12.719
80314SOL     OW42838   8.881  13.960  14.428
80314SOL    HW142839   8.903  13.935  14.517
80314SOL    HW242840   8.964  13.961  14.381
80315SOL     OW42841   4.844   7.306  10.539
80315SOL    HW142842   4.916   7.248  10.513
80315SOL    HW242843   4.815   7.346  10.457
80316SOL     OW42844  13.919   1.151   9.222
80316SOL    HW142845  13.940   1.244   9.207
80316SOL    HW242846  13.831   1.141   9.186
80317SOL     OW42847  12.296   4.321   1.931
80317SOL    HW142848  12.258   4.376   1.863
80317SOL    HW242849  12.274   4.366   2.013
80318SOL     OW42850   7.571   7.176   2.767
80318SOL    HW142851   7.606   7.221   2.844
80318SOL    HW242852   7.619   7.094   2.763
80319SOL     OW42853  13.154   2.052  12.719
80319SOL    HW142854  13.203   1.976  12.750
80319SOL    HW242855  13.219   2.122  12.712
80320SOL     OW42856  10.660  14.614   9.228
80320SOL    HW142857  10.734  14.653   9.182
80320SOL    HW242858  10.627  14.684   9.284
80321SOL     OW42859   1.740   3.876   8.644
80321SOL    HW142860   1.784   3.885   8.728
80321SOL    HW242861   1.812   3.866   8.581
80322SOL     OW42862   7.907  10.955   1.312
80322SOL    HW142863   7.956  10.892   1.259
80322SOL    HW242864   7.880  10.904   1.389
80323SOL     OW42865   1.841  13.698  12.354
80323SOL    HW142866   1.792  13.722  12.275
80323SOL    HW242867   1.932  13.690  12.323
80324SOL     OW42868   5.147  13.048   2.550
80324SOL    HW142869   5.129  12.989   2.623
80324SOL    HW242870   5.212  13.110   2.584
80325SOL     OW42871   1.825  13.942   1.199
80325SOL    HW142872   1.768  13.888   1.144
80325SOL    HW242873   1.913  13.922   1.169
80326SOL     OW42874  11.765   5.783   0.380
80326SOL    HW142875  11.775   5.878   0.390
80326SOL    HW242876  11.746   5.771   0.287
80327SOL     OW42877   1.966  11.506   3.681
80327SOL    HW142878   1.917  11.587   3.666
80327SOL    HW242879   2.052  11.523   3.643
80328SOL     OW42880   4.147  14.577   0.441
80328SOL    HW142881   4.161  14.653   0.385
80328SOL    HW242882   4.052  14.569   0.448
80329SOL     OW42883   1.117   2.021   0.148
80329SOL    HW142884   1.150   1.932   0.155
80329SOL    HW242885   1.062   2.022   0.070
80330SOL     OW42886   4.247   8.544   6.044
80330SOL    HW142887   4.271   8.635   6.030
80330SOL    HW242888   4.330   8.497   6.049
80331SOL     OW42889  12.119   3.355  11.499
80331SOL    HW142890  12.168   3.310  11.430
80331SOL    HW242891  12.136   3.304  11.578
80332SOL     OW42892   2.869   5.625   8.856
80332SOL    HW142893   2.826   5.681   8.791
80332SOL    HW242894   2.845   5.536   8.831
80333SOL     OW42895   2.134   3.656   4.151
80333SOL    HW142896   2.212   3.619   4.110
80333SOL    HW242897   2.097   3.584   4.201
80334SOL     OW42898   5.461   7.442  14.778
80334SOL    HW142899   5.494   7.509  14.838
80334SOL    HW242900   5.525   7.439  14.707
80335SOL     OW42901  11.758   5.393  14.339
80335SOL    HW142902  11.846   5.363  14.363
80335SOL    HW242903  11.701   5.321  14.363
80336SOL     OW42904   4.647   4.030   9.533
80336SOL    HW142905   4.693   3.990   9.460
80336SOL    HW242906   4.570   4.072   9.494
80337SOL     OW42907  12.693   7.818   9.125
80337SOL    HW142908  12.675   7.732   9.088
80337SOL    HW242909  12.626   7.830   9.193
80338SOL     OW42910   4.334  10.275  12.739
80338SOL    HW142911   4.314  10.365  12.765
80338SOL    HW242912   4.423  10.279  12.703
80339SOL     OW42913   2.594  14.811   5.306
80339SOL    HW142914   2.569  14.875   5.372
80339SOL    HW242915   2.512  14.790   5.260
80340SOL     OW42916   8.661  10.255  10.022
80340SOL    HW142917   8.659  10.246  10.118
80340SOL    HW242918   8.661  10.350  10.007
80341SOL     OW42919  14.650  14.559   8.170
80341SOL    HW142920  14.712  14.569   8.242
80341SOL    HW242921  14.567  14.592   8.205
80342SOL     OW42922   9.953   0.554  11.595
80342SOL    HW142923   9.940   0.602  11.677
80342SOL    HW242924   9.955   0.622  11.528
80343SOL     OW42925   1.907   8.326   2.584
80343SOL    HW142926   1.855   8.396   2.542
80343SOL    HW242927   1.882   8.247   2.537
80344SOL     OW42928  10.742  10.930   8.437
80344SOL    HW142929  10.665  10.954   8.386
80344SOL    HW242930  10.744  10.991   8.510
80345SOL     OW42931   6.815   1.950   5.524
80345SOL    HW142932   6.895   1.969   5.476
80345SOL    HW242933   6.746   1.956   5.458
80346SOL     OW42934  10.466   7.521   8.728
80346SOL    HW142935  10.378   7.509   8.763
80346SOL    HW242936  10.505   7.433   8.731
80347SOL     OW42937  11.418   8.850   1.267
80347SOL    HW142938  11.452   8.927   1.222
80347SOL    HW242939  11.347   8.883   1.321
80348SOL     OW42940   5.225   6.505  13.742
80348SOL    HW142941   5.305   6.453  13.745
80348SOL    HW242942   5.255   6.594  13.720
80349SOL     OW42943   9.621   8.250   4.737
80349SOL    HW142944   9.702   8.213   4.702
80349SOL    HW242945   9.586   8.304   4.666
80350SOL     OW42946  12.328   0.248  12.421
80350SOL    HW142947  12.329   0.277  12.512
80350SOL    HW242948  12.240   0.266  12.390
80351SOL     OW42949  12.403   0.894  12.366
80351SOL    HW142950  12.320   0.939  12.381
80351SOL    HW242951  12.443   0.941  12.292
80352SOL     OW42952   6.568   6.885   3.909
80352SOL    HW142953   6.638   6.904   3.971
80352SOL    HW242954   6.607   6.822   3.848
80353SOL     OW42955   1.175   8.785   8.884
80353SOL    HW142956   1.207   8.763   8.972
80353SOL    HW242957   1.114   8.715   8.863
80354SOL     OW42958   0.796  14.229  10.920
80354SOL    HW142959   0.807  14.310  10.970
80354SOL    HW242960   0.720  14.246  10.864
80355SOL     OW42961   3.121   2.780   1.996
80355SOL    HW142962   3.163   2.735   2.069
80355SOL    HW242963   3.182   2.850   1.973
80356SOL     OW42964   2.229   8.194  12.350
80356SOL    HW142965   2.136   8.212  12.337
80356SOL    HW242966   2.232   8.142  12.431
80357SOL     OW42967   0.225   4.899   3.571
80357SOL    HW142968   0.149   4.897   3.629
80357SOL    HW242969   0.216   4.982   3.522
80358SOL     OW42970  10.809   4.969   2.702
80358SOL    HW142971  10.796   5.023   2.623
80358SOL    HW242972  10.791   4.880   2.673
80359SOL     OW42973   7.082   8.985   5.680
80359SOL    HW142974   7.074   9.080   5.684
80359SOL    HW242975   7.112   8.967   5.591
80360SOL     OW42976  12.860   7.371   5.330
80360SOL    HW142977  12.881   7.455   5.289
80360SOL    HW242978  12.775   7.348   5.294
80361SOL     OW42979   5.122   2.347  11.697
80361SOL    HW142980   5.106   2.408  11.626
80361SOL    HW242981   5.147   2.265  11.653
80362SOL     OW42982  13.841  11.286   6.728
80362SOL    HW142983  13.810  11.331   6.649
80362SOL    HW242984  13.765  11.288   6.787
80363SOL     OW42985   7.807  13.151   2.061
80363SOL    HW142986   7.802  13.063   2.025
80363SOL    HW242987   7.900  13.163   2.081
80364SOL     OW42988  12.324  11.079   7.157
80364SOL    HW142989  12.259  11.033   7.103
80364SOL    HW242990  12.320  11.034   7.242
80365SOL     OW42991   6.388  14.653  12.994
80365SOL    HW142992   6.320  14.708  12.956
80365SOL    HW242993   6.345  14.606  13.065
80366SOL     OW42994   5.576   9.982   8.862
80366SOL    HW142995   5.494   9.990   8.814
80366SOL    HW242996   5.634   9.934   8.802
80367SOL     OW42997   3.933  13.554  11.241
80367SOL    HW142998   3.947  13.648  11.252
80367SOL    HW242999   3.871  13.531  11.311
80368SOL     OW43000  10.559   4.305   3.682
80368SOL    HW143001  10.572   4.266   3.769
80368SOL    HW243002  10.637   4.358   3.668
80369SOL     OW43003   1.414   0.544   0.778
80369SOL    HW143004   1.427   0.533   0.872
80369SOL    HW243005   1.340   0.488   0.756
80370SOL     OW43006   8.027   0.036   2.223
80370SOL    HW143007   7.995  14.836   2.261
80370SOL    HW243008   7.947   0.088   2.209
80371SOL     OW43009   3.339   9.610   1.566
80371SOL    HW143010   3.417   9.556   1.550
80371SOL    HW243011   3.345   9.680   1.500
80372SOL     OW43012   6.445   3.489   2.249
80372SOL    HW143013   6.360   3.485   2.292
80372SOL    HW243014   6.451   3.408   2.198
80373SOL     OW43015  12.765   9.197   1.681
80373SOL    HW143016  12.771   9.167   1.771
80373SOL    HW243017  12.755   9.292   1.688
80374SOL     OW43018   3.420   3.857  10.190
80374SOL    HW143019   3.502   3.875  10.235
80374SOL    HW243020   3.411   3.762  10.192
80375SOL     OW43021   5.207   9.025   8.798
80375SOL    HW143022   5.162   8.965   8.858
80375SOL    HW243023   5.294   8.987   8.788
80376SOL     OW43024  10.667  11.626  11.713
80376SOL    HW143025  10.734  11.607  11.647
80376SOL    HW243026  10.589  11.581  11.682
80377SOL     OW43027   1.786  13.619   8.909
80377SOL    HW143028   1.718  13.582   8.852
80377SOL    HW243029   1.866  13.616   8.856
80378SOL     OW43030   2.936   2.413   3.943
80378SOL    HW143031   2.891   2.374   3.868
80378SOL    HW243032   3.021   2.441   3.909
80379SOL     OW43033   4.329   6.817   5.663
80379SOL    HW143034   4.246   6.835   5.708
80379SOL    HW243035   4.385   6.777   5.729
80380SOL     OW43036   3.461  12.111   6.422
80380SOL    HW143037   3.502  12.103   6.336
80380SOL    HW243038   3.383  12.165   6.407
80381SOL     OW43039   7.393  12.511  11.880
80381SOL    HW143040   7.305  12.540  11.905
80381SOL    HW243041   7.444  12.518  11.961
80382SOL     OW43042  12.304   9.396   5.755
80382SOL    HW143043  12.345   9.357   5.678
80382SOL    HW243044  12.305   9.490   5.738
80383SOL     OW43045   7.696  13.820   6.378
80383SOL    HW143046   7.676  13.807   6.286
80383SOL    HW243047   7.638  13.891   6.406
80384SOL     OW43048  14.475   7.678  12.655
80384SOL    HW143049  14.550   7.619  12.658
80384SOL    HW243050  14.413   7.636  12.596
80385SOL     OW43051  10.057   8.174   5.417
80385SOL    HW143052  10.071   8.145   5.507
80385SOL    HW243053  10.129   8.235   5.399
80386SOL     OW43054   1.581   0.352   0.074
80386SOL    HW143055   1.643   0.304   0.130
80386SOL    HW243056   1.626   0.358  14.872
80387SOL     OW43057   3.102  14.608  13.538
80387SOL    HW143058   3.059  14.619  13.454
80387SOL    HW243059   3.122  14.697  13.567
80388SOL     OW43060  11.491  14.355   5.014
80388SOL    HW143061  11.534  14.419   4.958
80388SOL    HW243062  11.558  14.330   5.077
80389SOL     OW43063  13.016   7.345  10.308
80389SOL    HW143064  13.082   7.292  10.353
80389SOL    HW243065  12.934   7.297  10.322
80390SOL     OW43066  13.135  12.021  10.194
80390SOL    HW143067  13.108  12.010  10.103
80390SOL    HW243068  13.200  12.091  10.192
80391SOL     OW43069  12.889   3.095   0.988
80391SOL    HW143070  12.915   3.008   1.017
80391SOL    HW243071  12.970   3.146   0.988
80392SOL     OW43072   3.680  14.468   2.562
80392SOL    HW143073   3.675  14.410   2.638
80392SOL    HW243074   3.596  14.514   2.560
80393SOL     OW43075  13.830  13.225   2.102
80393SOL    HW143076  13.796  13.182   2.181
80393SOL    HW243077  13.780  13.306   2.095
80394SOL     OW43078   3.923   0.968   5.118
80394SOL    HW143079   4.016   0.962   5.142
80394SOL    HW243080   3.922   0.953   5.023
80395SOL     OW43081  12.652   0.012   6.533
80395SOL    HW143082  12.649   0.104   6.507
80395SOL    HW243083  12.731   0.004   6.587
80396SOL     OW43084   4.138  14.707  10.559
80396SOL    HW143085   4.163  14.637  10.619
80396SOL    HW243086   4.056  14.741  10.595
80397SOL     OW43087  10.960  11.408   9.814
80397SOL    HW143088  10.916  11.452   9.886
80397SOL    HW243089  10.952  11.315   9.834
80398SOL     OW43090   3.451  13.811   6.406
80398SOL    HW143091   3.417  13.796   6.494
80398SOL    HW243092   3.497  13.730   6.384
80399SOL     OW43093   0.353   1.888   6.098
80399SOL    HW143094   0.383   1.909   6.186
80399SOL    HW243095   0.415   1.932   6.040
80400SOL     OW43096   0.525  13.689   3.755
80400SOL    HW143097   0.498  13.780   3.741
80400SOL    HW243098   0.535  13.682   3.849
80401SOL     OW43099  14.169   3.021   1.679
80401SOL    HW143100  14.147   3.102   1.633
80401SOL    HW243101  14.261   3.005   1.657
80402SOL     OW43102   5.870   3.839  12.392
80402SOL    HW143103   5.961   3.834  12.423
80402SOL    HW243104   5.817   3.829  12.471
80403SOL     OW43105  12.568   6.333   2.317
80403SOL    HW143106  12.516   6.390   2.374
80403SOL    HW243107  12.506   6.269   2.284
80404SOL     OW43108   7.377   0.768  12.635
80404SOL    HW143109   7.446   0.784  12.701
80404SOL    HW243110   7.419   0.713  12.570
80405SOL     OW43111   1.783   4.278   3.668
80405SOL    HW143112   1.779   4.314   3.579
80405SOL    HW243113   1.733   4.340   3.721
80406SOL     OW43114  10.367   3.285   1.553
80406SOL    HW143115  10.399   3.245   1.633
80406SOL    HW243116  10.437   3.344   1.525
80407SOL     OW43117  12.122   9.435   2.593
80407SOL    HW143118  12.042   9.429   2.541
80407SOL    HW243119  12.147   9.527   2.587
80408SOL     OW43120   4.178   7.570  12.603
80408SOL    HW143121   4.122   7.566  12.680
80408SOL    HW243122   4.117   7.571  12.529
80409SOL     OW43123   5.586  12.651  11.644
80409SOL    HW143124   5.624  12.734  11.616
80409SOL    HW243125   5.571  12.602  11.563
80410SOL     OW43126   9.045   6.158  11.927
80410SOL    HW143127   9.139   6.177  11.916
80410SOL    HW243128   9.002   6.223  11.871
80411SOL     OW43129  11.648  14.595   4.488
80411SOL    HW143130  11.602  14.614   4.570
80411SOL    HW243131  11.736  14.628   4.501
80412SOL     OW43132   9.446   4.163   3.073
80412SOL    HW143133   9.505   4.211   3.131
80412SOL    HW243134   9.378   4.129   3.131
80413SOL     OW43135  12.393   4.974   6.336
80413SOL    HW143136  12.444   4.953   6.414
80413SOL    HW243137  12.344   4.894   6.316
80414SOL     OW43138  11.926   0.520  12.060
80414SOL    HW143139  11.991   0.548  11.995
80414SOL    HW243140  11.977   0.491  12.135
80415SOL     OW43141  14.345   7.068   9.511
80415SOL    HW143142  14.354   7.158   9.481
80415SOL    HW243143  14.283   7.073   9.583
80416SOL     OW43144   3.285   8.215   2.778
80416SOL    HW143145   3.196   8.192   2.804
80416SOL    HW243146   3.296   8.306   2.809
80417SOL     OW43147   6.037   9.011  12.205
80417SOL    HW143148   6.119   9.054  12.231
80417SOL    HW243149   6.020   8.948  12.275
80418SOL     OW43150   7.831   2.245  10.382
80418SOL    HW143151   7.919   2.282  10.371
80418SOL    HW243152   7.845   2.164  10.431
80419SOL     OW43153   9.674   6.706  10.558
80419SOL    HW143154   9.769   6.716  10.546
80419SOL    HW243155   9.660   6.612  10.550
80420SOL     OW43156   6.761   1.977   4.532
80420SOL    HW143157   6.747   1.916   4.460
80420SOL    HW243158   6.673   2.000   4.561
80421SOL     OW43159   9.908   0.736  13.322
80421SOL    HW143160   9.908   0.680  13.400
80421SOL    HW243161   9.815   0.756  13.306
80422SOL     OW43162  12.315   5.404   9.254
80422SOL    HW143163  12.387   5.343   9.268
80422SOL    HW243164  12.336   5.448   9.172
80423SOL     OW43165   6.551   8.453  13.400
80423SOL    HW143166   6.600   8.535  13.402
80423SOL    HW243167   6.581   8.410  13.319
80424SOL     OW43168   4.712  13.766   0.496
80424SOL    HW143169   4.680  13.836   0.552
80424SOL    HW243170   4.650  13.763   0.423
80425SOL     OW43171   3.613   2.756   8.607
80425SOL    HW143172   3.625   2.752   8.512
80425SOL    HW243173   3.518   2.755   8.619
80426SOL     OW43174   9.025  13.861  13.865
80426SOL    HW143175   9.119  13.879  13.857
80426SOL    HW243176   9.006  13.801  13.793
80427SOL     OW43177  14.230  12.564   6.733
80427SOL    HW143178  14.184  12.504   6.792
80427SOL    HW243179  14.207  12.651   6.765
80428SOL     OW43180   1.961   3.548   0.214
80428SOL    HW143181   1.877   3.517   0.247
80428SOL    HW243182   1.999   3.597   0.286
80429SOL     OW43183   5.480  10.695   2.960
80429SOL    HW143184   5.462  10.689   3.054
80429SOL    HW243185   5.574  10.710   2.954
80430SOL     OW43186   9.597   3.730   7.524
80430SOL    HW143187   9.581   3.788   7.599
80430SOL    HW243188   9.635   3.651   7.563
80431SOL     OW43189  11.646   6.147  11.759
80431SOL    HW143190  11.553   6.166  11.744
80431SOL    HW243191  11.692   6.219  11.717
80432SOL     OW43192   7.467   5.844  13.484
80432SOL    HW143193   7.409   5.864  13.411
80432SOL    HW243194   7.462   5.749  13.494
80433SOL     OW43195   3.163  13.098  13.482
80433SOL    HW143196   3.181  13.118  13.390
80433SOL    HW243197   3.249  13.078  13.519
80434SOL     OW43198  10.751  10.653   8.434
80434SOL    HW143199  10.681  10.638   8.371
80434SOL    HW243200  10.758  10.748   8.440
80435SOL     OW43201  12.907   9.591  11.425
80435SOL    HW143202  12.913   9.657  11.494
80435SOL    HW243203  12.990   9.543  11.431
80436SOL     OW43204   5.445  12.802  13.802
80436SOL    HW143205   5.370  12.752  13.831
80436SOL    HW243206   5.410  12.864  13.737
80437SOL     OW43207   0.699  10.589   3.314
80437SOL    HW143208   0.765  10.600   3.245
80437SOL    HW243209   0.649  10.671   3.311
80438SOL     OW43210   2.347   9.975   4.725
80438SOL    HW143211   2.417  10.040   4.724
80438SOL    HW243212   2.347   9.937   4.637
80439SOL     OW43213   6.875   8.473  12.170
80439SOL    HW143214   6.885   8.467  12.265
80439SOL    HW243215   6.934   8.543  12.143
80440SOL     OW43216   9.801  12.308   8.215
80440SOL    HW143217   9.850  12.335   8.293
80440SOL    HW243218   9.711  12.294   8.247
80441SOL     OW43219   7.102   7.215   9.062
80441SOL    HW143220   7.073   7.204   9.153
80441SOL    HW243221   7.028   7.185   9.010
80442SOL     OW43222   6.669   5.066   4.819
80442SOL    HW143223   6.683   5.001   4.888
80442SOL    HW243224   6.594   5.117   4.849
80443SOL     OW43225  14.304   3.956  14.011
80443SOL    HW143226  14.249   3.940  14.088
80443SOL    HW243227  14.260   3.909  13.940
80444SOL     OW43228   1.739   8.162   9.238
80444SOL    HW143229   1.679   8.169   9.163
80444SOL    HW243230   1.681   8.144   9.313
80445SOL     OW43231   6.314   5.109   2.145
80445SOL    HW143232   6.277   5.103   2.057
80445SOL    HW243233   6.288   5.027   2.187
80446SOL     OW43234  14.067  14.429   9.858
80446SOL    HW143235  14.158  14.446   9.883
80446SOL    HW243236  14.049  14.341   9.892
80447SOL     OW43237   0.510   1.720   5.562
80447SOL    HW143238   0.461   1.792   5.602
80447SOL    HW243239   0.569   1.763   5.500
80448SOL     OW43240  13.993  11.027   5.476
80448SOL    HW143241  13.914  10.975   5.488
80448SOL    HW243242  14.049  11.005   5.551
80449SOL     OW43243   5.010   1.899   4.860
80449SOL    HW143244   5.040   1.843   4.788
80449SOL    HW243245   4.967   1.973   4.817
80450SOL     OW43246   9.064  13.623  11.212
80450SOL    HW143247   9.008  13.546  11.221
80450SOL    HW243248   9.113  13.607  11.132
80451SOL     OW43249   1.718  13.770  12.059
80451SOL    HW143250   1.673  13.705  12.113
80451SOL    HW243251   1.648  13.826  12.026
80452SOL     OW43252   7.459  11.797  10.841
80452SOL    HW143253   7.477  11.862  10.909
80452SOL    HW243254   7.424  11.722  10.890
80453SOL     OW43255   3.926   6.423  13.566
80453SOL    HW143256   3.946   6.331  13.587
80453SOL    HW243257   3.981   6.442  13.489
80454SOL     OW43258   8.369   7.246  13.900
80454SOL    HW143259   8.417   7.316  13.857
80454SOL    HW243260   8.414   7.232  13.983
80455SOL     OW43261   7.969  13.397   7.482
80455SOL    HW143262   8.035  13.445   7.532
80455SOL    HW243263   8.009  13.312   7.465
80456SOL     OW43264  11.296   9.978  10.104
80456SOL    HW143265  11.279  10.040  10.174
80456SOL    HW243266  11.248  10.013  10.029
80457SOL     OW43267   3.945  10.051   7.742
80457SOL    HW143268   3.855  10.018   7.749
80457SOL    HW243269   3.972  10.030   7.653
80458SOL     OW43270   2.110   7.092   7.511
80458SOL    HW143271   2.191   7.042   7.509
80458SOL    HW243272   2.123   7.162   7.447
80459SOL     OW43273   6.038   8.933   4.766
80459SOL    HW143274   5.968   8.880   4.728
80459SOL    HW243275   6.116   8.878   4.757
80460SOL     OW43276  11.018  11.644  13.671
80460SOL    HW143277  11.037  11.695  13.750
80460SOL    HW243278  11.031  11.553  13.697
80461SOL     OW43279   4.933  10.911   5.821
80461SOL    HW143280   4.865  10.978   5.830
80461SOL    HW243281   4.887  10.828   5.836
80462SOL     OW43282   7.207  11.940   1.506
80462SOL    HW143283   7.135  11.974   1.560
80462SOL    HW243284   7.280  11.931   1.568
80463SOL     OW43285  10.434   1.549   8.201
80463SOL    HW143286  10.360   1.606   8.222
80463SOL    HW243287  10.467   1.520   8.286
80464SOL     OW43288  11.601   5.395   0.024
80464SOL    HW143289  11.620   5.337  14.832
80464SOL    HW243290  11.589   5.481  14.867
80465SOL     OW43291   2.161   6.296   5.851
80465SOL    HW143292   2.088   6.278   5.910
80465SOL    HW243293   2.120   6.304   5.764
80466SOL     OW43294  12.140  14.404  10.997
80466SOL    HW143295  12.087  14.355  11.060
80466SOL    HW243296  12.095  14.392  10.914
80467SOL     OW43297   3.154   3.894  13.955
80467SOL    HW143298   3.118   3.974  13.917
80467SOL    HW243299   3.237   3.921  13.994
80468SOL     OW43300  11.532   5.203   7.283
80468SOL    HW143301  11.577   5.262   7.223
80468SOL    HW243302  11.559   5.115   7.255
80469SOL     OW43303   4.352   8.441  10.633
80469SOL    HW143304   4.277   8.499  10.649
80469SOL    HW243305   4.428   8.498  10.638
80470SOL     OW43306   6.233   6.710   2.906
80470SOL    HW143307   6.302   6.769   2.876
80470SOL    HW243308   6.193   6.755   2.980
80471SOL     OW43309  13.511   2.573   1.965
80471SOL    HW143310  13.480   2.664   1.962
80471SOL    HW243311  13.436   2.521   1.935
80472SOL     OW43312  12.501  12.195   0.835
80472SOL    HW143313  12.587  12.181   0.875
80472SOL    HW243314  12.445  12.126   0.873
80473SOL     OW43315  13.187  11.764  14.055
80473SOL    HW143316  13.179  11.774  14.150
80473SOL    HW243317  13.184  11.853  14.021
80474SOL     OW43318   6.266  11.360   0.943
80474SOL    HW143319   6.263  11.296   1.015
80474SOL    HW243320   6.188  11.413   0.955
80475SOL     OW43321  13.088  13.125   8.168
80475SOL    HW143322  13.147  13.059   8.202
80475SOL    HW243323  13.142  13.204   8.160
80476SOL     OW43324   0.494  13.365   4.753
80476SOL    HW143325   0.438  13.287   4.760
80476SOL    HW243326   0.518  13.384   4.844
80477SOL     OW43327  14.651  10.211  10.573
80477SOL    HW143328  14.615  10.277  10.514
80477SOL    HW243329  14.724  10.255  10.617
80478SOL     OW43330   4.848  13.688   9.852
80478SOL    HW143331   4.800  13.647   9.780
80478SOL    HW243332   4.791  13.681   9.927
80479SOL     OW43333   3.986  13.616   0.905
80479SOL    HW143334   4.076  13.642   0.922
80479SOL    HW243335   3.947  13.605   0.992
80480SOL     OW43336   4.448   1.895  13.939
80480SOL    HW143337   4.421   1.946  14.016
80480SOL    HW243338   4.542   1.885  13.949
80481SOL     OW43339  13.408   5.759   4.051
80481SOL    HW143340  13.335   5.821   4.049
80481SOL    HW243341  13.463   5.789   4.123
80482SOL     OW43342   5.539   9.835   1.567
80482SOL    HW143343   5.464   9.895   1.561
80482SOL    HW243344   5.525   9.773   1.495
80483SOL     OW43345  11.471   0.304  12.257
80483SOL    HW143346  11.543   0.356  12.222
80483SOL    HW243347  11.510   0.217  12.271
80484SOL     OW43348   0.408   0.400   0.975
80484SOL    HW143349   0.428   0.493   0.977
80484SOL    HW243350   0.359   0.387   0.894
80485SOL     OW43351  10.750   1.212   6.900
80485SOL    HW143352  10.769   1.226   6.992
80485SOL    HW243353  10.829   1.173   6.864
80486SOL     OW43354  13.731  13.186   8.449
80486SOL    HW143355  13.774  13.263   8.487
80486SOL    HW243356  13.801  13.122   8.438
80487SOL     OW43357  14.762   4.232   6.919
80487SOL    HW143358  14.724   4.251   7.005
80487SOL    HW243359  14.737   4.307   6.865
80488SOL     OW43360   3.976  14.408   9.879
80488SOL    HW143361   3.897  14.404   9.825
80488SOL    HW243362   4.039  14.351   9.835
80489SOL     OW43363   2.075   9.023   0.201
80489SOL    HW143364   2.113   8.940   0.171
80489SOL    HW243365   1.980   9.010   0.192
80490SOL     OW43366  13.507   6.022  12.063
80490SOL    HW143367  13.513   6.015  11.968
80490SOL    HW243368  13.508   5.931  12.094
80491SOL     OW43369   7.437   0.349  14.477
80491SOL    HW143370   7.368   0.383  14.534
80491SOL    HW243371   7.513   0.340  14.535
80492SOL     OW43372   9.207  11.787   9.034
80492SOL    HW143373   9.266  11.724   9.075
80492SOL    HW243374   9.257  11.868   9.029
80493SOL     OW43375   5.533   0.225   0.585
80493SOL    HW143376   5.574   0.273   0.657
80493SOL    HW243377   5.596   0.231   0.513
80494SOL     OW43378  14.582   9.054   2.842
80494SOL    HW143379  14.546   9.001   2.913
80494SOL    HW243380  14.580   9.143   2.876
80495SOL     OW43381   0.375   5.855   0.226
80495SOL    HW143382   0.292   5.829   0.186
80495SOL    HW243383   0.368   5.826   0.317
80496SOL     OW43384   8.958  11.687  11.671
80496SOL    HW143385   8.997  11.601  11.654
80496SOL    HW243386   8.888  11.695  11.606
80497SOL     OW43387   2.467  12.603  12.214
80497SOL    HW143388   2.476  12.509  12.205
80497SOL    HW243389   2.379  12.623  12.181
80498SOL     OW43390   7.485   8.786   3.269
80498SOL    HW143391   7.400   8.827   3.288
80498SOL    HW243392   7.463   8.701   3.232
80499SOL     OW43393   6.794   0.684   2.471
80499SOL    HW143394   6.842   0.749   2.523
80499SOL    HW243395   6.829   0.694   2.383
80500SOL     OW43396   8.316   0.689   3.334
80500SOL    HW143397   8.367   0.737   3.399
80500SOL    HW243398   8.379   0.666   3.266
80501SOL     OW43399   7.926   9.495  12.864
80501SOL    HW143400   7.962   9.559  12.925
80501SOL    HW243401   7.907   9.545  12.785
80502SOL     OW43402  14.785   8.052   0.827
80502SOL    HW143403  14.734   8.057   0.908
80502SOL    HW243404  14.835   7.971   0.835
80503SOL     OW43405   1.219  10.523  10.448
80503SOL    HW143406   1.308  10.491  10.432
80503SOL    HW243407   1.164  10.445  10.445
80504SOL     OW43408   3.375   5.456  11.931
80504SOL    HW143409   3.432   5.416  11.867
80504SOL    HW243410   3.431   5.518  11.978
80505SOL     OW43411  13.787   7.925   7.101
80505SOL    HW143412  13.825   8.013   7.111
80505SOL    HW243413  13.859   7.866   7.120
80506SOL     OW43414   2.150  14.667   9.831
80506SOL    HW143415   2.083  14.726   9.797
80506SOL    HW243416   2.128  14.582   9.795
80507SOL     OW43417   0.163   3.700  10.793
80507SOL    HW143418   0.162   3.619  10.843
80507SOL    HW243419   0.133   3.674  10.705
80508SOL     OW43420  13.794  13.782   5.507
80508SOL    HW143421  13.710  13.736   5.502
80508SOL    HW243422  13.803  13.823   5.421
80509SOL     OW43423  14.447   8.569   3.184
80509SOL    HW143424  14.393   8.582   3.262
80509SOL    HW243425  14.532   8.543   3.219
80510SOL     OW43426   8.795   4.726   0.938
80510SOL    HW143427   8.818   4.722   0.845
80510SOL    HW243428   8.706   4.690   0.942
80511SOL     OW43429   1.158  14.368   5.614
80511SOL    HW143430   1.089  14.423   5.576
80511SOL    HW243431   1.162  14.292   5.557
80512SOL     OW43432   7.373  12.939   5.633
80512SOL    HW143433   7.312  12.987   5.690
80512SOL    HW243434   7.359  12.847   5.655
80513SOL     OW43435   2.405   8.747  10.348
80513SOL    HW143436   2.435   8.767  10.437
80513SOL    HW243437   2.310   8.741  10.356
80514SOL     OW43438  14.286   9.412   1.750
80514SOL    HW143439  14.348   9.484   1.737
80514SOL    HW243440  14.201   9.450   1.729
80515SOL     OW43441   4.579   3.730   3.313
80515SOL    HW143442   4.531   3.675   3.376
80515SOL    HW243443   4.512   3.760   3.252
80516SOL     OW43444   4.695   8.939   5.623
80516SOL    HW143445   4.749   8.927   5.545
80516SOL    HW243446   4.741   8.891   5.691
80517SOL     OW43447   9.257   4.361   5.512
80517SOL    HW143448   9.245   4.331   5.602
80517SOL    HW243449   9.298   4.447   5.520
80518SOL     OW43450  14.591   3.986  13.287
80518SOL    HW143451  14.643   4.052  13.333
80518SOL    HW243452  14.506   3.988  13.331
80519SOL     OW43453   0.324  14.804  10.475
80519SOL    HW143454   0.280  14.727  10.510
80519SOL    HW243455   0.258  14.845  10.418
80520SOL     OW43456   8.483   7.819   7.674
80520SOL    HW143457   8.478   7.724   7.664
80520SOL    HW243458   8.422   7.853   7.609
80521SOL     OW43459  13.571  10.265   7.919
80521SOL    HW143460  13.575  10.349   7.873
80521SOL    HW243461  13.609  10.282   8.005
80522SOL     OW43462  12.922   5.387  12.710
80522SOL    HW143463  12.826   5.386  12.719
80522SOL    HW243464  12.947   5.295  12.707
80523SOL     OW43465   0.791  14.318  12.253
80523SOL    HW143466   0.739  14.244  12.284
80523SOL    HW243467   0.869  14.278  12.215
80524SOL     OW43468   3.519   7.789  12.224
80524SOL    HW143469   3.500   7.858  12.288
80524SOL    HW243470   3.481   7.822  12.142
80525SOL     OW43471   8.799   8.429   0.030
80525SOL    HW143472   8.741   8.357   0.056
80525SOL    HW243473   8.742   8.488  14.863
80526SOL     OW43474  12.173   4.107  14.719
80526SOL    HW143475  12.093   4.055  14.715
80526SOL    HW243476  12.143   4.197  14.727
80527SOL     OW43477   7.930   9.482   6.880
80527SOL    HW143478   7.981   9.493   6.961
80527SOL    HW243479   7.862   9.550   6.886
80528SOL     OW43480  12.668  10.823  11.444
80528SOL    HW143481  12.704  10.901  11.487
80528SOL    HW243482  12.589  10.854  11.400
80529SOL     OW43483   2.248   1.601  14.479
80529SOL    HW143484   2.304   1.626  14.553
80529SOL    HW243485   2.248   1.505  14.480
80530SOL     OW43486   9.698   5.590   8.346
80530SOL    HW143487   9.762   5.661   8.351
80530SOL    HW243488   9.654   5.591   8.431
80531SOL     OW43489  11.911   7.472  12.676
80531SOL    HW143490  11.900   7.463  12.581
80531SOL    HW243491  12.005   7.484  12.688
80532SOL     OW43492   6.078   0.932  12.323
80532SOL    HW143493   6.098   0.839  12.317
80532SOL    HW243494   5.987   0.938  12.295
80533SOL     OW43495  11.680   5.012  11.183
80533SOL    HW143496  11.660   5.095  11.226
80533SOL    HW243497  11.773   4.997  11.201
80534SOL     OW43498   8.765   0.283   0.930
80534SOL    HW143499   8.852   0.279   0.890
80534SOL    HW243500   8.744   0.377   0.932
80535SOL     OW43501  12.329   3.477  13.428
80535SOL    HW143502  12.322   3.474  13.524
80535SOL    HW243503  12.334   3.571  13.408
80536SOL     OW43504   3.165  12.255   4.169
80536SOL    HW143505   3.129  12.344   4.175
80536SOL    HW243506   3.237  12.262   4.107
80537SOL     OW43507  10.458  14.120   5.335
80537SOL    HW143508  10.482  14.173   5.259
80537SOL    HW243509  10.442  14.033   5.299
80538SOL     OW43510  10.274   6.148   7.336
80538SOL    HW143511  10.235   6.081   7.279
80538SOL    HW243512  10.208   6.164   7.403
80539SOL     OW43513   6.467   9.898   6.445
80539SOL    HW143514   6.476   9.811   6.407
80539SOL    HW243515   6.451   9.955   6.369
80540SOL     OW43516   2.967   4.743   8.361
80540SOL    HW143517   2.929   4.658   8.341
80540SOL    HW243518   3.060   4.726   8.374
80541SOL     OW43519   1.951   5.916   9.765
80541SOL    HW143520   1.901   5.998   9.767
80541SOL    HW243521   1.889   5.849   9.792
80542SOL     OW43522  10.151  14.016   5.118
80542SOL    HW143523  10.132  14.027   5.211
80542SOL    HW243524  10.097  14.081   5.074
80543SOL     OW43525   6.824   3.424  14.450
80543SOL    HW143526   6.817   3.355  14.384
80543SOL    HW243527   6.775   3.498  14.413
80544SOL     OW43528  12.738   7.871   1.086
80544SOL    HW143529  12.694   7.949   1.119
80544SOL    HW243530  12.791   7.841   1.160
80545SOL     OW43531   9.530   2.654   8.982
80545SOL    HW143532   9.441   2.639   9.012
80545SOL    HW243533   9.571   2.567   8.981
80546SOL     OW43534   0.856  11.879   5.876
80546SOL    HW143535   0.825  11.863   5.965
80546SOL    HW243536   0.880  11.972   5.876
80547SOL     OW43537   4.640   7.167  13.157
80547SOL    HW143538   4.690   7.226  13.215
80547SOL    HW243539   4.635   7.085  13.206
80548SOL     OW43540   5.093  13.645   0.925
80548SOL    HW143541   5.036  13.618   0.853
80548SOL    HW243542   5.100  13.740   0.916
80549SOL     OW43543   7.919   7.823   2.459
80549SOL    HW143544   7.829   7.852   2.446
80549SOL    HW243545   7.950   7.801   2.371
80550SOL     OW43546  12.748   5.143   6.024
80550SOL    HW143547  12.843   5.142   6.017
80550SOL    HW243548  12.726   5.235   6.041
80551SOL     OW43549   4.455   0.080  13.974
80551SOL    HW143550   4.366   0.048  13.957
80551SOL    HW243551   4.442   0.165  14.016
80552SOL     OW43552   2.420  12.127   0.292
80552SOL    HW143553   2.404  12.218   0.319
80552SOL    HW243554   2.512  12.126   0.266
80553SOL     OW43555  10.100  11.308   0.050
80553SOL    HW143556  10.155  11.368  14.881
80553SOL    HW243557  10.131  11.220   0.025
80554SOL     OW43558   8.348  13.710   1.965
80554SOL    HW143559   8.342  13.766   2.043
80554SOL    HW243560   8.441  13.693   1.955
80555SOL     OW43561  12.664  11.229  10.090
80555SOL    HW143562  12.581  11.182  10.103
80555SOL    HW243563  12.638  11.313  10.053
80556SOL     OW43564  11.112  12.455  12.281
80556SOL    HW143565  11.196  12.410  12.286
80556SOL    HW243566  11.118  12.511  12.204
80557SOL     OW43567   8.743  14.725   6.981
80557SOL    HW143568   8.718  14.806   6.937
80557SOL    HW243569   8.700  14.729   7.066
80558SOL     OW43570  11.573   2.745   7.580
80558SOL    HW143571  11.647   2.803   7.559
80558SOL    HW243572  11.562   2.693   7.500
80559SOL     OW43573  12.205  10.809   2.740
80559SOL    HW143574  12.170  10.726   2.773
80559SOL    HW243575  12.299  10.794   2.732
80560SOL     OW43576  12.028  12.026  10.285
80560SOL    HW143577  11.997  12.068  10.205
80560SOL    HW243578  11.972  11.950  10.295
80561SOL     OW43579   8.812  12.377   0.796
80561SOL    HW143580   8.760  12.304   0.829
80561SOL    HW243581   8.756  12.453   0.807
80562SOL     OW43582   0.509  11.878   7.563
80562SOL    HW143583   0.419  11.906   7.542
80562SOL    HW243584   0.541  11.839   7.482
80563SOL     OW43585   4.687   5.311  14.647
80563SOL    HW143586   4.728   5.322  14.562
80563SOL    HW243587   4.593   5.307  14.628
80564SOL     OW43588   6.630   2.587   2.370
80564SOL    HW143589   6.623   2.501   2.329
80564SOL    HW243590   6.602   2.573   2.460
80565SOL     OW43591   1.453   0.890   5.453
80565SOL    HW143592   1.520   0.909   5.518
80565SOL    HW243593   1.500   0.852   5.379
80566SOL     OW43594   1.521  12.131   4.909
80566SOL    HW143595   1.470  12.059   4.871
80566SOL    HW243596   1.596  12.087   4.950
80567SOL     OW43597   7.775   4.871   4.380
80567SOL    HW143598   7.847   4.818   4.416
80567SOL    HW243599   7.819   4.947   4.341
80568SOL     OW43600   8.706  13.638   2.857
80568SOL    HW143601   8.772  13.659   2.922
80568SOL    HW243602   8.746  13.569   2.803
80569SOL     OW43603   7.682   7.511   5.621
80569SOL    HW143604   7.613   7.467   5.573
80569SOL    HW243605   7.744   7.539   5.554
80570SOL     OW43606   8.692   4.528   2.724
80570SOL    HW143607   8.766   4.546   2.666
80570SOL    HW243608   8.652   4.614   2.738
80571SOL     OW43609   5.313  13.582   6.659
80571SOL    HW143610   5.336  13.517   6.593
80571SOL    HW243611   5.236  13.547   6.703
80572SOL     OW43612   1.614   4.560   4.971
80572SOL    HW143613   1.577   4.515   5.048
80572SOL    HW243614   1.687   4.611   5.006
80573SOL     OW43615   8.684  12.087   0.567
80573SOL    HW143616   8.643  12.006   0.538
80573SOL    HW243617   8.743  12.060   0.637
80574SOL     OW43618  10.660   8.525   6.405
80574SOL    HW143619  10.704   8.444   6.432
80574SOL    HW243620  10.669   8.526   6.309
80575SOL     OW43621  11.457   4.822   1.478
80575SOL    HW143622  11.378   4.863   1.511
80575SOL    HW243623  11.450   4.730   1.505
80576SOL     OW43624   7.944  10.504  14.296
80576SOL    HW143625   7.965  10.589  14.335
80576SOL    HW243626   7.967  10.513  14.203
80577SOL     OW43627   6.521   9.703   6.708
80577SOL    HW143628   6.436   9.710   6.666
80577SOL    HW243629   6.560   9.790   6.698
80578SOL     OW43630   4.644  13.460   2.236
80578SOL    HW143631   4.737  13.469   2.215
80578SOL    HW243632   4.643  13.431   2.328
80579SOL     OW43633   9.302   2.059   3.434
80579SOL    HW143634   9.232   2.001   3.464
80579SOL    HW243635   9.286   2.069   3.340
80580SOL     OW43636   2.156   4.356   5.128
80580SOL    HW143637   2.153   4.260   5.126
80580SOL    HW243638   2.067   4.383   5.151
80581SOL     OW43639   8.873   8.421   0.399
80581SOL    HW143640   8.937   8.377   0.343
80581SOL    HW243641   8.804   8.357   0.412
80582SOL     OW43642  12.383   2.567  11.008
80582SOL    HW143643  12.359   2.558  11.100
80582SOL    HW243644  12.356   2.655  10.984
80583SOL     OW43645  14.785  12.108   6.497
80583SOL    HW143646  14.717  12.175   6.495
80583SOL    HW243647  14.867  12.157   6.500
80584SOL     OW43648  13.369   7.071   6.060
80584SOL    HW143649  13.281   7.043   6.034
80584SOL    HW243650  13.401   7.002   6.118
80585SOL     OW43651   6.373  11.809   3.252
80585SOL    HW143652   6.321  11.731   3.231
80585SOL    HW243653   6.436  11.778   3.318
80586SOL     OW43654   5.600  12.911  13.994
80586SOL    HW143655   5.564  12.900  13.906
80586SOL    HW243656   5.615  12.821  14.024
80587SOL     OW43657  10.503  12.887   5.074
80587SOL    HW143658  10.481  12.936   5.152
80587SOL    HW243659  10.477  12.797   5.093
80588SOL     OW43660   9.742  14.276   9.172
80588SOL    HW143661   9.798  14.248   9.245
80588SOL    HW243662   9.712  14.364   9.197
80589SOL     OW43663   4.046   3.021   4.488
80589SOL    HW143664   4.095   3.079   4.545
80589SOL    HW243665   3.954   3.034   4.513
80590SOL     OW43666   6.016   9.970  13.640
80590SOL    HW143667   6.080  10.033  13.608
80590SOL    HW243668   5.937  10.023  13.657
80591SOL     OW43669   7.145   3.895   2.418
80591SOL    HW143670   7.081   3.964   2.439
80591SOL    HW243671   7.220   3.914   2.474
80592SOL     OW43672   4.005   3.780   8.145
80592SOL    HW143673   4.003   3.764   8.051
80592SOL    HW243674   3.915   3.804   8.167
80593SOL     OW43675   3.767   9.005   1.419
80593SOL    HW143676   3.684   9.008   1.465
80593SOL    HW243677   3.754   9.062   1.343
80594SOL     OW43678  12.090   7.102   2.875
80594SOL    HW143679  12.115   7.142   2.958
80594SOL    HW243680  12.022   7.159   2.839
80595SOL     OW43681  11.750   8.922  12.717
80595SOL    HW143682  11.839   8.936  12.685
80595SOL    HW243683  11.706   8.874  12.647
80596SOL     OW43684   6.247  11.617  12.809
80596SOL    HW143685   6.313  11.548  12.819
80596SOL    HW243686   6.290  11.682  12.754
80597SOL     OW43687   0.785   0.661  11.380
80597SOL    HW143688   0.756   0.626  11.465
80597SOL    HW243689   0.706   0.701  11.343
80598SOL     OW43690   7.620   2.905   9.218
80598SOL    HW143691   7.697   2.959   9.238
80598SOL    HW243692   7.611   2.911   9.123
80599SOL     OW43693   6.741  11.207   3.225
80599SOL    HW143694   6.794  11.199   3.146
80599SOL    HW243695   6.757  11.297   3.255
80600SOL     OW43696  13.750   1.196   7.216
80600SOL    HW143697  13.815   1.128   7.228
80600SOL    HW243698  13.705   1.202   7.300
80601SOL     OW43699  12.268   8.502  13.767
80601SOL    HW143700  12.219   8.485  13.847
80601SOL    HW243701  12.205   8.544  13.708
80602SOL     OW43702   5.637   2.295   7.449
80602SOL    HW143703   5.556   2.346   7.450
80602SOL    HW243704   5.658   2.283   7.357
80603SOL     OW43705  12.480   1.059  12.150
80603SOL    HW143706  12.563   1.106  12.156
80603SOL    HW243707  12.430   1.108  12.085
80604SOL     OW43708   2.601   2.919   7.952
80604SOL    HW143709   2.598   2.859   8.026
80604SOL    HW243710   2.610   2.862   7.875
80605SOL     OW43711  11.848  11.073   2.548
80605SOL    HW143712  11.892  10.998   2.586
80605SOL    HW243713  11.776  11.092   2.608
80606SOL     OW43714   3.305   1.392   6.012
80606SOL    HW143715   3.324   1.335   5.937
80606SOL    HW243716   3.272   1.473   5.972
80607SOL     OW43717  13.832   2.855  13.818
80607SOL    HW143718  13.859   2.849  13.909
80607SOL    HW243719  13.860   2.943  13.790
80608SOL     OW43720   0.696   2.143   1.896
80608SOL    HW143721   0.662   2.107   1.978
80608SOL    HW243722   0.718   2.066   1.844
80609SOL     OW43723   7.868   0.919  11.174
80609SOL    HW143724   7.841   0.827  11.172
80609SOL    HW243725   7.921   0.926  11.253
80610SOL     OW43726   9.313   0.250  10.618
80610SOL    HW143727   9.350   0.193  10.685
80610SOL    HW243728   9.270   0.191  10.556
80611SOL     OW43729   1.633   4.625   0.808
80611SOL    HW143730   1.551   4.625   0.760
80611SOL    HW243731   1.674   4.708   0.786
80612SOL     OW43732  12.714   7.774   4.253
80612SOL    HW143733  12.769   7.726   4.315
80612SOL    HW243734  12.746   7.864   4.257
80613SOL     OW43735   7.270  12.614   6.464
80613SOL    HW143736   7.359  12.579   6.461
80613SOL    HW243737   7.259  12.662   6.382
80614SOL     OW43738  10.033  10.790  11.819
80614SOL    HW143739   9.974  10.740  11.763
80614SOL    HW243740  10.002  10.774  11.908
80615SOL     OW43741   8.490   4.953   3.632
80615SOL    HW143742   8.525   4.971   3.719
80615SOL    HW243743   8.548   4.999   3.572
80616SOL     OW43744  14.812  14.429   1.931
80616SOL    HW143745  14.759  14.450   2.008
80616SOL    HW243746   0.015  14.470   1.949
80617SOL     OW43747  13.916  10.117  13.869
80617SOL    HW143748  13.907  10.199  13.821
80617SOL    HW243749  13.860  10.129  13.946
80618SOL     OW43750   7.197   5.368   3.969
80618SOL    HW143751   7.140   5.387   3.895
80618SOL    HW243752   7.139   5.368   4.045
80619SOL     OW43753   2.842   1.523  11.778
80619SOL    HW143754   2.819   1.439  11.736
80619SOL    HW243755   2.925   1.547  11.737
80620SOL     OW43756   7.156   2.904   0.028
80620SOL    HW143757   7.155   2.956  14.830
80620SOL    HW243758   7.194   2.961   0.094
80621SOL     OW43759   9.430  12.260   3.642
80621SOL    HW143760   9.340  12.291   3.632
80621SOL    HW243761   9.472  12.325   3.698
80622SOL     OW43762  12.565  13.521  11.182
80622SOL    HW143763  12.528  13.583  11.120
80622SOL    HW243764  12.489  13.474  11.217
80623SOL     OW43765  13.952  12.437  14.864
80623SOL    HW143766  13.866  12.414  14.828
80623SOL    HW243767  13.987  12.501  14.802
80624SOL     OW43768   6.203   7.011   2.762
80624SOL    HW143769   6.255   7.053   2.694
80624SOL    HW243770   6.262   7.003   2.837
80625SOL     OW43771   5.348   6.091   2.504
80625SOL    HW143772   5.387   6.072   2.419
80625SOL    HW243773   5.420   6.128   2.555
80626SOL     OW43774   6.503  14.750   1.090
80626SOL    HW143775   6.489  14.731   0.997
80626SOL    HW243776   6.591  14.719   1.108
80627SOL     OW43777   1.442   2.480   8.057
80627SOL    HW143778   1.473   2.480   7.967
80627SOL    HW243779   1.489   2.407   8.098
80628SOL     OW43780   1.778  12.418   4.209
80628SOL    HW143781   1.853  12.468   4.241
80628SOL    HW243782   1.778  12.433   4.114
80629SOL     OW43783   0.663   0.578  11.044
80629SOL    HW143784   0.726   0.646  11.064
80629SOL    HW243785   0.716   0.504  11.013
80630SOL     OW43786   8.318   6.755  14.137
80630SOL    HW143787   8.226   6.762  14.111
80630SOL    HW243788   8.329   6.664  14.163
80631SOL     OW43789   4.785  12.465   1.371
80631SOL    HW143790   4.820  12.550   1.345
80631SOL    HW243791   4.703  12.486   1.417
80632SOL     OW43792  12.217   5.288  13.084
80632SOL    HW143793  12.194   5.298  13.177
80632SOL    HW243794  12.159   5.348  13.038
80633SOL     OW43795  13.943   3.452   8.784
80633SOL    HW143796  14.009   3.489   8.726
80633SOL    HW243797  13.902   3.382   8.733
80634SOL     OW43798   3.404   7.756  11.344
80634SOL    HW143799   3.477   7.694  11.346
80634SOL    HW243800   3.326   7.701  11.355
80635SOL     OW43801   4.397   8.269   9.841
80635SOL    HW143802   4.421   8.360   9.823
80635SOL    HW243803   4.473   8.218   9.812
80636SOL     OW43804  11.279   7.577  10.079
80636SOL    HW143805  11.362   7.625  10.081
80636SOL    HW243806  11.247   7.582  10.169
80637SOL     OW43807   5.259  11.501  12.134
80637SOL    HW143808   5.202  11.473  12.206
80637SOL    HW243809   5.244  11.435  12.066
80638SOL     OW43810   2.940  13.077  14.737
80638SOL    HW143811   2.963  13.169  14.720
80638SOL    HW243812   2.859  13.082  14.788
80639SOL     OW43813   3.699   9.800   8.305
80639SOL    HW143814   3.696   9.839   8.393
80639SOL    HW243815   3.701   9.705   8.321
80640SOL     OW43816   0.146   7.489   1.632
80640SOL    HW143817   0.150   7.547   1.708
80640SOL    HW243818   0.122   7.546   1.559
80641SOL     OW43819   0.220   0.285   3.123
80641SOL    HW143820   0.299   0.289   3.069
80641SOL    HW243821   0.171   0.210   3.089
80642SOL     OW43822   0.220   5.950   8.005
80642SOL    HW143823   0.180   5.998   8.077
80642SOL    HW243824   0.314   5.957   8.020
80643SOL     OW43825  10.695  10.432  10.541
80643SOL    HW143826  10.709  10.496  10.611
80643SOL    HW243827  10.780  10.390  10.530
80644SOL     OW43828   4.610   1.959   5.315
80644SOL    HW143829   4.645   2.023   5.378
80644SOL    HW243830   4.688   1.914   5.282
80645SOL     OW43831   5.192  13.744  12.564
80645SOL    HW143832   5.109  13.710  12.598
80645SOL    HW243833   5.259  13.707  12.622
80646SOL     OW43834   8.676   5.529   2.520
80646SOL    HW143835   8.771   5.534   2.530
80646SOL    HW243836   8.661   5.513   2.427
80647SOL     OW43837   6.116  11.377   6.705
80647SOL    HW143838   6.156  11.338   6.782
80647SOL    HW243839   6.177  11.355   6.633
80648SOL     OW43840   4.886   9.321   0.474
80648SOL    HW143841   4.915   9.379   0.545
80648SOL    HW243842   4.795   9.346   0.458
80649SOL     OW43843   1.238   2.916  12.533
80649SOL    HW143844   1.318   2.915  12.479
80649SOL    HW243845   1.214   3.009  12.536
80650SOL     OW43846  13.777   1.010   7.753
80650SOL    HW143847  13.843   1.071   7.721
80650SOL    HW243848  13.812   0.923   7.732
80651SOL     OW43849   8.990   9.045   7.527
80651SOL    HW143850   9.082   9.049   7.501
80651SOL    HW243851   8.954   8.972   7.477
80652SOL     OW43852   8.647  14.528  14.213
80652SOL    HW143853   8.632  14.565  14.126
80652SOL    HW243854   8.571  14.472  14.229
80653SOL     OW43855   4.954   5.402  10.182
80653SOL    HW143856   4.977   5.340  10.113
80653SOL    HW243857   5.013   5.381  10.254
80654SOL     OW43858  11.429  13.568   8.878
80654SOL    HW143859  11.360  13.503   8.863
80654SOL    HW243860  11.498  13.519   8.922
80655SOL     OW43861  12.808   5.139   8.299
80655SOL    HW143862  12.863   5.208   8.262
80655SOL    HW243863  12.869   5.069   8.321
80656SOL     OW43864  11.982   6.677   2.031
80656SOL    HW143865  11.904   6.624   2.016
80656SOL    HW243866  11.966   6.717   2.117
80657SOL     OW43867   0.262   3.500   4.121
80657SOL    HW143868   0.328   3.546   4.172
80657SOL    HW243869   0.311   3.446   4.061
80658SOL     OW43870  11.429   1.830  10.426
80658SOL    HW143871  11.352   1.874  10.461
80658SOL    HW243872  11.419   1.834  10.331
80659SOL     OW43873  14.302   9.450   5.468
80659SOL    HW143874  14.276   9.480   5.381
80659SOL    HW243875  14.290   9.527   5.524
80660SOL     OW43876   3.353  13.193  12.959
80660SOL    HW143877   3.418  13.248  13.003
80660SOL    HW243878   3.292  13.167  13.029
80661SOL     OW43879   8.617   2.368   1.505
80661SOL    HW143880   8.548   2.319   1.551
80661SOL    HW243881   8.682   2.387   1.572
80662SOL     OW43882  10.492   4.391   9.215
80662SOL    HW143883  10.474   4.301   9.241
80662SOL    HW243884  10.415   4.417   9.164
80663SOL     OW43885  12.511   4.783   5.849
80663SOL    HW143886  12.433   4.803   5.900
80663SOL    HW243887  12.580   4.772   5.913
80664SOL     OW43888   1.492   0.208   0.622
80664SOL    HW143889   1.512   0.236   0.711
80664SOL    HW243890   1.416   0.260   0.596
80665SOL     OW43891   2.660   6.811  10.828
80665SOL    HW143892   2.699   6.788  10.744
80665SOL    HW243893   2.732   6.852  10.877
80666SOL     OW43894   1.536   9.513   2.348
80666SOL    HW143895   1.617   9.467   2.368
80666SOL    HW243896   1.558   9.606   2.355
80667SOL     OW43897   2.980   0.464   0.485
80667SOL    HW143898   2.961   0.497   0.573
80667SOL    HW243899   3.045   0.525   0.450
80668SOL     OW43900  14.739  10.820   3.941
80668SOL    HW143901  14.742  10.914   3.957
80668SOL    HW243902  14.749  10.812   3.846
80669SOL     OW43903   4.759   8.996   5.223
80669SOL    HW143904   4.816   8.923   5.248
80669SOL    HW243905   4.773   9.061   5.292
80670SOL     OW43906  13.941  14.394   4.406
80670SOL    HW143907  13.941  14.393   4.311
80670SOL    HW243908  13.959  14.485   4.429
80671SOL     OW43909   9.271  13.489   7.518
80671SOL    HW143910   9.353  13.450   7.490
80671SOL    HW243911   9.272  13.578   7.483
80672SOL     OW43912   8.310   1.095  10.895
80672SOL    HW143913   8.314   1.116  10.989
80672SOL    HW243914   8.336   1.175  10.851
80673SOL     OW43915  13.025   1.981   8.032
80673SOL    HW143916  13.087   2.053   8.042
80673SOL    HW243917  13.037   1.928   8.110
80674SOL     OW43918  13.397   2.879   2.944
80674SOL    HW143919  13.481   2.903   2.905
80674SOL    HW243920  13.370   2.800   2.896
80675SOL     OW43921   3.346  13.678  11.705
80675SOL    HW143922   3.286  13.742  11.668
80675SOL    HW243923   3.293  13.600  11.718
80676SOL     OW43924   7.231  13.382   2.186
80676SOL    HW143925   7.186  13.452   2.139
80676SOL    HW243926   7.261  13.322   2.118
80677SOL     OW43927  13.844   2.229  11.268
80677SOL    HW143928  13.874   2.318  11.286
80677SOL    HW243929  13.876   2.177  11.342
80678SOL     OW43930   8.617   2.868  10.819
80678SOL    HW143931   8.579   2.786  10.849
80678SOL    HW243932   8.559   2.936  10.854
80679SOL     OW43933   4.632  13.823   3.934
80679SOL    HW143934   4.704  13.793   3.989
80679SOL    HW243935   4.553  13.803   3.984
80680SOL     OW43936   3.164   8.711   5.054
80680SOL    HW143937   3.200   8.644   4.997
80680SOL    HW243938   3.074   8.724   5.023
80681SOL     OW43939   9.314   3.782   7.092
80681SOL    HW143940   9.327   3.808   7.183
80681SOL    HW243941   9.387   3.823   7.045
80682SOL     OW43942   0.175   8.552   7.715
80682SOL    HW143943   0.261   8.573   7.752
80682SOL    HW243944   0.132   8.637   7.707
80683SOL     OW43945  13.866   4.606  13.319
80683SOL    HW143946  13.790   4.661  13.338
80683SOL    HW243947  13.884   4.562  13.402
80684SOL     OW43948  12.461  11.753   5.458
80684SOL    HW143949  12.368  11.769   5.471
80684SOL    HW243950  12.476  11.665   5.492
80685SOL     OW43951   1.508   4.301  12.912
80685SOL    HW143952   1.589   4.283  12.959
80685SOL    HW243953   1.459   4.219  12.917
80686SOL     OW43954  12.839   9.668   5.926
80686SOL    HW143955  12.750   9.666   5.961
80686SOL    HW243956  12.845   9.591   5.871
80687SOL     OW43957  13.318  14.325   0.052
80687SOL    HW143958  13.403  14.280   0.050
80687SOL    HW243959  13.258  14.260   0.088
80688SOL     OW43960   3.126   9.899   6.474
80688SOL    HW143961   3.180   9.826   6.505
80688SOL    HW243962   3.182   9.946   6.412
80689SOL     OW43963  10.605   1.843  14.771
80689SOL    HW143964  10.606   1.934  14.741
80689SOL    HW243965  10.695   1.812  14.759
80690SOL     OW43966  11.679   8.435  13.218
80690SOL    HW143967  11.705   8.496  13.148
80690SOL    HW243968  11.652   8.355  13.171
80691SOL     OW43969   7.766   8.916   4.670
80691SOL    HW143970   7.756   8.849   4.603
80691SOL    HW243971   7.677   8.948   4.686
80692SOL     OW43972   4.794  10.202  14.515
80692SOL    HW143973   4.703  10.194  14.543
80692SOL    HW243974   4.817  10.293  14.535
80693SOL     OW43975  12.165   5.297   4.604
80693SOL    HW143976  12.141   5.368   4.544
80693SOL    HW243977  12.130   5.325   4.689
80694SOL     OW43978  10.550   7.964   8.641
80694SOL    HW143979  10.505   7.949   8.724
80694SOL    HW243980  10.640   7.985   8.665
80695SOL     OW43981   9.722   5.139   0.414
80695SOL    HW143982   9.774   5.098   0.482
80695SOL    HW243983   9.681   5.215   0.457
80696SOL     OW43984  11.059   5.918  11.460
80696SOL    HW143985  11.028   5.918  11.551
80696SOL    HW243986  10.979   5.919  11.407
80697SOL     OW43987   4.678   9.011   7.227
80697SOL    HW143988   4.630   9.067   7.167
80697SOL    HW243989   4.751   8.977   7.175
80698SOL     OW43990   5.382  12.407   3.477
80698SOL    HW143991   5.315  12.361   3.528
80698SOL    HW243992   5.443  12.441   3.543
80699SOL     OW43993   1.297   6.931   6.816
80699SOL    HW143994   1.230   6.965   6.757
80699SOL    HW243995   1.250   6.869   6.872
80700SOL     OW43996   9.491  13.866   3.831
80700SOL    HW143997   9.570  13.859   3.885
80700SOL    HW243998   9.522  13.858   3.741
80701SOL     OW43999   2.790   0.956  11.635
80701SOL    HW144000   2.851   0.883  11.645
80701SOL    HW244001   2.786   0.971  11.540
80702SOL     OW44002   6.227  10.241   2.198
80702SOL    HW144003   6.178  10.236   2.116
80702SOL    HW244004   6.300  10.181   2.186
80703SOL     OW44005   9.077  11.207   6.658
80703SOL    HW144006   8.985  11.202   6.685
80703SOL    HW244007   9.123  11.240   6.734
80704SOL     OW44008  10.596   8.069  11.052
80704SOL    HW144009  10.627   8.147  11.098
80704SOL    HW244010  10.508   8.054  11.085
80705SOL     OW44011  10.481   5.873   2.769
80705SOL    HW144012  10.514   5.936   2.832
80705SOL    HW244013  10.533   5.889   2.690
80706SOL     OW44014  11.547   6.374  12.347
80706SOL    HW144015  11.508   6.367  12.259
80706SOL    HW244016  11.521   6.293  12.390
80707SOL     OW44017  14.299   0.743   7.780
80707SOL    HW144018  14.224   0.725   7.836
80707SOL    HW244019  14.278   0.699   7.697
80708SOL     OW44020   6.394   9.147   4.967
80708SOL    HW144021   6.319   9.195   4.931
80708SOL    HW244022   6.454   9.216   4.995
80709SOL     OW44023  10.270   7.335  10.832
80709SOL    HW144024  10.343   7.397  10.835
80709SOL    HW244025  10.264   7.300  10.921
80710SOL     OW44026  12.272   8.749  10.596
80710SOL    HW144027  12.260   8.765  10.690
80710SOL    HW244028  12.323   8.824  10.566
80711SOL     OW44029  11.456   9.453   7.171
80711SOL    HW144030  11.537   9.414   7.205
80711SOL    HW244031  11.389   9.428   7.233
80712SOL     OW44032  13.665  11.219   4.031
80712SOL    HW144033  13.651  11.289   3.967
80712SOL    HW244034  13.618  11.249   4.110
80713SOL     OW44035  14.240   1.669   0.556
80713SOL    HW144036  14.179   1.712   0.615
80713SOL    HW244037  14.237   1.576   0.581
80714SOL     OW44038  14.728  10.710   7.900
80714SOL    HW144039  14.643  10.729   7.860
80714SOL    HW244040  14.772  10.653   7.837
80715SOL     OW44041   9.063  12.968   2.682
80715SOL    HW144042   8.988  12.966   2.742
80715SOL    HW244043   9.080  13.061   2.668
80716SOL     OW44044  10.483   0.988  12.109
80716SOL    HW144045  10.399   0.991  12.155
80716SOL    HW244046  10.531   0.916  12.151
80717SOL     OW44047   0.926   8.517   1.130
80717SOL    HW144048   0.891   8.596   1.090
80717SOL    HW244049   0.853   8.455   1.128
80718SOL     OW44050  12.025   9.852   0.012
80718SOL    HW144051  11.950   9.852  14.836
80718SOL    HW244052  12.000   9.794   0.084
80719SOL     OW44053  12.476  13.838   5.475
80719SOL    HW144054  12.388  13.868   5.499
80719SOL    HW244055  12.475  13.836   5.379
80720SOL     OW44056   6.515   4.518  10.796
80720SOL    HW144057   6.471   4.479  10.720
80720SOL    HW244058   6.574   4.583  10.758
80721SOL     OW44059   8.659   2.404   8.130
80721SOL    HW144060   8.582   2.456   8.152
80721SOL    HW244061   8.721   2.468   8.094
80722SOL     OW44062   9.319   3.482   2.893
80722SOL    HW144063   9.297   3.403   2.942
80722SOL    HW244064   9.236   3.509   2.853
80723SOL     OW44065   1.386  11.927   6.322
80723SOL    HW144066   1.423  11.929   6.234
80723SOL    HW244067   1.358  11.837   6.335
80724SOL     OW44068  12.388   7.847   8.048
80724SOL    HW144069  12.383   7.805   7.962
80724SOL    HW244070  12.469   7.899   8.045
80725SOL     OW44071  11.429  12.850   2.326
80725SOL    HW144072  11.467  12.769   2.361
80725SOL    HW244073  11.473  12.863   2.242
80726SOL     OW44074   1.150  14.302  10.880
80726SOL    HW144075   1.088  14.237  10.846
80726SOL    HW244076   1.143  14.293  10.975
80727SOL     OW44077   4.249   6.454   5.382
80727SOL    HW144078   4.332   6.429   5.422
80727SOL    HW244079   4.243   6.549   5.397
80728SOL     OW44080  13.039  11.758   1.745
80728SOL    HW144081  13.056  11.665   1.729
80728SOL    HW244082  13.121  11.791   1.783
80729SOL     OW44083  12.145  11.747   2.990
80729SOL    HW144084  12.113  11.656   2.989
80729SOL    HW244085  12.167  11.764   2.898
80730SOL     OW44086  11.217   2.286   4.199
80730SOL    HW144087  11.258   2.289   4.113
80730SOL    HW244088  11.128   2.257   4.182
80731SOL     OW44089   4.556   1.432   8.948
80731SOL    HW144090   4.491   1.485   8.995
80731SOL    HW244091   4.504   1.374   8.892
80732SOL     OW44092  11.827   9.448   3.570
80732SOL    HW144093  11.908   9.398   3.557
80732SOL    HW244094  11.834   9.523   3.511
80733SOL     OW44095   3.934  12.394   7.259
80733SOL    HW144096   3.968  12.412   7.171
80733SOL    HW244097   3.950  12.301   7.273
80734SOL     OW44098   5.546   7.586  12.862
80734SOL    HW144099   5.526   7.587  12.956
80734SOL    HW244100   5.570   7.495  12.843
80735SOL     OW44101   0.784   4.777   5.697
80735SOL    HW144102   0.746   4.862   5.721
80735SOL    HW244103   0.780   4.726   5.778
80736SOL     OW44104   2.311   9.058  13.492
80736SOL    HW144105   2.348   9.046  13.404
80736SOL    HW244106   2.245   8.989  13.499
80737SOL     OW44107  10.081  10.312   7.850
80737SOL    HW144108  10.034  10.238   7.812
80737SOL    HW244109  10.049  10.388   7.803
80738SOL     OW44110   7.322   6.419  10.158
80738SOL    HW144111   7.273   6.494  10.127
80738SOL    HW244112   7.369   6.387  10.080
80739SOL     OW44113  14.256   9.853   5.889
80739SOL    HW144114  14.206   9.877   5.811
80739SOL    HW244115  14.333   9.910   5.887
80740SOL     OW44116   4.941   6.896   9.837
80740SOL    HW144117   5.000   6.927   9.906
80740SOL    HW244118   4.856   6.888   9.880
80741SOL     OW44119  12.959  11.118   5.781
80741SOL    HW144120  12.885  11.120   5.842
80741SOL    HW244121  12.975  11.024   5.766
80742SOL     OW44122   4.080  13.346   7.100
80742SOL    HW144123   4.068  13.425   7.048
80742SOL    HW244124   4.169  13.353   7.136
80743SOL     OW44125   9.477   1.894   7.585
80743SOL    HW144126   9.450   1.914   7.674
80743SOL    HW244127   9.572   1.902   7.586
80744SOL     OW44128   6.306   9.828   4.799
80744SOL    HW144129   6.350   9.907   4.828
80744SOL    HW244130   6.372   9.780   4.749
80745SOL     OW44131   2.687  14.114   7.089
80745SOL    HW144132   2.734  14.169   7.026
80745SOL    HW244133   2.756  14.079   7.146
80746SOL     OW44134   5.782   8.265   5.047
80746SOL    HW144135   5.822   8.329   4.988
80746SOL    HW244136   5.753   8.195   4.988
80747SOL     OW44137  11.969  11.268   9.887
80747SOL    HW144138  11.992  11.280   9.795
80747SOL    HW244139  12.032  11.322   9.935
80748SOL     OW44140   6.557  12.786   2.443
80748SOL    HW144141   6.576  12.695   2.420
80748SOL    HW244142   6.639  12.832   2.429
80749SOL     OW44143   3.761  10.036   8.819
80749SOL    HW144144   3.676  10.003   8.848
80749SOL    HW244145   3.825   9.977   8.860
80750SOL     OW44146  11.460   5.363  11.558
80750SOL    HW144147  11.460   5.443  11.610
80750SOL    HW244148  11.386   5.313  11.593
80751SOL     OW44149  11.426  10.981   4.119
80751SOL    HW144150  11.496  10.955   4.059
80751SOL    HW244151  11.469  11.036   4.184
80752SOL     OW44152   6.237   8.020  11.006
80752SOL    HW144153   6.312   7.991  10.954
80752SOL    HW244154   6.207   8.099  10.961
80753SOL     OW44155   3.608   3.038   0.900
80753SOL    HW144156   3.584   3.065   0.988
80753SOL    HW244157   3.590   2.944   0.898
80754SOL     OW44158   5.589  14.280  11.396
80754SOL    HW144159   5.588  14.221  11.321
80754SOL    HW244160   5.680  14.281  11.425
80755SOL     OW44161  14.403  14.792   5.881
80755SOL    HW144162  14.399  14.836   5.795
80755SOL    HW244163  14.497  14.786   5.900
80756SOL     OW44164   8.816  13.856   4.820
80756SOL    HW144165   8.795  13.861   4.727
80756SOL    HW244166   8.908  13.882   4.826
80757SOL     OW44167   9.069   3.486   0.549
80757SOL    HW144168   9.113   3.564   0.515
80757SOL    HW244169   9.138   3.435   0.590
80758SOL     OW44170   4.400   3.122   6.767
80758SOL    HW144171   4.400   3.051   6.831
80758SOL    HW244172   4.493   3.139   6.750
80759SOL     OW44173   5.941   9.152   7.358
80759SOL    HW144174   6.019   9.195   7.393
80759SOL    HW244175   5.870   9.214   7.375
80760SOL     OW44176  10.823   5.384   4.849
80760SOL    HW144177  10.751   5.325   4.874
80760SOL    HW244178  10.801   5.467   4.892
80761SOL     OW44179   6.813  14.512  10.319
80761SOL    HW144180   6.736  14.471  10.358
80761SOL    HW244181   6.886  14.479  10.371
80762SOL     OW44182   4.303   6.158  13.215
80762SOL    HW144183   4.313   6.205  13.132
80762SOL    HW244184   4.262   6.221  13.274
80763SOL     OW44185   5.460   8.325   8.560
80763SOL    HW144186   5.498   8.385   8.495
80763SOL    HW244187   5.367   8.324   8.539
80764SOL     OW44188  12.395   1.897  13.475
80764SOL    HW144189  12.337   1.825  13.501
80764SOL    HW244190  12.470   1.890  13.535
80765SOL     OW44191   9.470  13.215   1.160
80765SOL    HW144192   9.535  13.167   1.108
80765SOL    HW244193   9.509  13.220   1.248
80766SOL     OW44194   0.208   3.531   1.021
80766SOL    HW144195   0.183   3.623   1.033
80766SOL    HW244196   0.284   3.535   0.962
80767SOL     OW44197  10.388   8.171   7.715
80767SOL    HW144198  10.341   8.098   7.756
80767SOL    HW244199  10.461   8.130   7.669
80768SOL     OW44200   1.103   6.707   1.738
80768SOL    HW144201   1.113   6.682   1.646
80768SOL    HW244202   1.165   6.651   1.785
80769SOL     OW44203  14.419   2.241   8.604
80769SOL    HW144204  14.325   2.225   8.609
80769SOL    HW244205  14.428   2.336   8.603
80770SOL     OW44206  12.733   5.175   9.874
80770SOL    HW144207  12.807   5.125   9.840
80770SOL    HW244208  12.669   5.109   9.899
80771SOL     OW44209  10.543   7.252  14.384
80771SOL    HW144210  10.480   7.225  14.317
80771SOL    HW244211  10.523   7.344  14.399
80772SOL     OW44212   2.726  14.802   2.328
80772SOL    HW144213   2.647  14.845   2.295
80772SOL    HW244214   2.696  14.718   2.361
80773SOL     OW44215   5.101   3.275   0.181
80773SOL    HW144216   5.072   3.187   0.157
80773SOL    HW244217   5.105   3.322   0.098
80774SOL     OW44218   2.379   6.652   3.065
80774SOL    HW144219   2.398   6.587   3.133
80774SOL    HW244220   2.289   6.679   3.082
80775SOL     OW44221   1.129   2.115   4.444
80775SOL    HW144222   1.097   2.032   4.479
80775SOL    HW244223   1.141   2.099   4.351
80776SOL     OW44224   7.712   3.028   1.104
80776SOL    HW144225   7.684   2.962   1.041
80776SOL    HW244226   7.697   2.988   1.190
80777SOL     OW44227   6.741   4.405   6.492
80777SOL    HW144228   6.803   4.420   6.563
80777SOL    HW244229   6.781   4.335   6.440
80778SOL     OW44230   8.467   9.609   8.718
80778SOL    HW144231   8.456   9.696   8.680
80778SOL    HW244232   8.526   9.622   8.792
80779SOL     OW44233   6.328  10.808   4.670
80779SOL    HW144234   6.378  10.736   4.632
80779SOL    HW244235   6.393  10.876   4.688
80780SOL     OW44236   0.108   3.147   1.012
80780SOL    HW144237   0.016   3.172   1.006
80780SOL    HW244238   0.112   3.088   1.088
80781SOL     OW44239   5.139   5.492   1.061
80781SOL    HW144240   5.199   5.420   1.075
80781SOL    HW244241   5.193   5.561   1.021
80782SOL     OW44242   3.616  11.287  13.310
80782SOL    HW144243   3.712  11.288  13.302
80782SOL    HW244244   3.587  11.365  13.262
80783SOL     OW44245  14.696  11.796   4.909
80783SOL    HW144246  14.683  11.707   4.874
80783SOL    HW244247  14.726  11.846   4.833
80784SOL     OW44248   8.495   4.760   8.370
80784SOL    HW144249   8.428   4.710   8.323
80784SOL    HW244250   8.446   4.823   8.422
80785SOL     OW44251  13.503   3.315  13.002
80785SOL    HW144252  13.502   3.326  12.907
80785SOL    HW244253  13.574   3.371  13.032
80786SOL     OW44254  13.025   3.849   6.346
80786SOL    HW144255  12.979   3.850   6.430
80786SOL    HW244256  13.096   3.786   6.359
80787SOL     OW44257  12.500   2.261   1.094
80787SOL    HW144258  12.571   2.319   1.120
80787SOL    HW244259  12.441   2.316   1.043
80788SOL     OW44260  11.378  11.615  13.323
80788SOL    HW144261  11.297  11.566  13.333
80788SOL    HW244262  11.361  11.673  13.248
80789SOL     OW44263  11.038   7.603  14.510
80789SOL    HW144264  10.948   7.574  14.493
80789SOL    HW244265  11.034   7.647  14.595
80790SOL     OW44266   2.549   4.984  12.820
80790SOL    HW144267   2.496   5.062  12.806
80790SOL    HW244268   2.622   5.015  12.874
80791SOL     OW44269   4.790   6.494   7.023
80791SOL    HW144270   4.736   6.547   6.964
80791SOL    HW244271   4.822   6.556   7.088
80792SOL     OW44272   9.888  12.297   2.397
80792SOL    HW144273   9.844  12.266   2.318
80792SOL    HW244274   9.919  12.385   2.375
80793SOL     OW44275  10.403   2.067   0.314
80793SOL    HW144276  10.362   2.109   0.238
80793SOL    HW244277  10.340   2.000   0.341
80794SOL     OW44278  13.397   3.927   6.413
80794SOL    HW144279  13.321   3.888   6.456
80794SOL    HW244280  13.388   3.902   6.321
80795SOL     OW44281   3.922   1.094   6.002
80795SOL    HW144282   3.856   1.046   6.052
80795SOL    HW244283   3.937   1.040   5.924
80796SOL     OW44284  11.505   2.618   0.122
80796SOL    HW144285  11.457   2.612   0.039
80796SOL    HW244286  11.448   2.668   0.180
80797SOL     OW44287  10.672   1.852   6.751
80797SOL    HW144288  10.743   1.886   6.697
80797SOL    HW244289  10.600   1.914   6.738
80798SOL     OW44290  12.649  14.794   2.806
80798SOL    HW144291  12.580  14.774   2.742
80798SOL    HW244292  12.625  14.744   2.884
80799SOL     OW44293  10.840   6.286   1.938
80799SOL    HW144294  10.931   6.273   1.965
80799SOL    HW244295  10.844   6.355   1.872
80800SOL     OW44296   2.184   1.835   0.315
80800SOL    HW144297   2.136   1.910   0.349
80800SOL    HW244298   2.275   1.863   0.311
80801SOL     OW44299   0.488   3.522  10.613
80801SOL    HW144300   0.414   3.543  10.557
80801SOL    HW244301   0.560   3.576  10.580
80802SOL     OW44302   4.705   9.645  13.592
80802SOL    HW144303   4.776   9.704  13.564
80802SOL    HW244304   4.722   9.564  13.544
80803SOL     OW44305  13.220   0.441   1.565
80803SOL    HW144306  13.174   0.362   1.538
80803SOL    HW244307  13.313   0.421   1.553
80804SOL     OW44308   6.085   4.224   9.192
80804SOL    HW144309   6.139   4.302   9.180
80804SOL    HW244310   6.062   4.197   9.103
80805SOL     OW44311  13.100   6.983   4.280
80805SOL    HW144312  13.050   6.994   4.199
80805SOL    HW244313  13.111   7.072   4.313
80806SOL     OW44314   9.209  10.313   3.349
80806SOL    HW144315   9.179  10.366   3.275
80806SOL    HW244316   9.228  10.227   3.311
80807SOL     OW44317   3.477  12.555   5.086
80807SOL    HW144318   3.418  12.500   5.035
80807SOL    HW244319   3.463  12.529   5.176
80808SOL     OW44320   7.133   5.017  11.477
80808SOL    HW144321   7.046   5.057  11.480
80808SOL    HW244322   7.123   4.934  11.524
80809SOL     OW44323   5.533  14.243  13.444
80809SOL    HW144324   5.614  14.201  13.416
80809SOL    HW244325   5.559  14.300  13.517
80810SOL     OW44326  11.350  13.803   4.755
80810SOL    HW144327  11.391  13.882   4.719
80810SOL    HW244328  11.369  13.735   4.690
80811SOL     OW44329   0.083   5.293   7.003
80811SOL    HW144330   0.175   5.267   7.005
80811SOL    HW244331   0.061   5.312   7.095
80812SOL     OW44332  10.949  10.887   5.844
80812SOL    HW144333  10.981  10.862   5.931
80812SOL    HW244334  10.972  10.813   5.788
80813SOL     OW44335   3.251   0.174  12.752
80813SOL    HW144336   3.174   0.178  12.809
80813SOL    HW244337   3.253   0.259  12.709
80814SOL     OW44338   8.716   8.380  14.231
80814SOL    HW144339   8.624   8.361  14.251
80814SOL    HW244340   8.721   8.475  14.228
80815SOL     OW44341   2.181  10.880  13.018
80815SOL    HW144342   2.246  10.809  13.019
80815SOL    HW244343   2.157  10.890  12.926
80816SOL     OW44344  12.312   6.315  10.250
80816SOL    HW144345  12.266   6.255  10.309
80816SOL    HW244346  12.398   6.275  10.237
80817SOL     OW44347   5.750  11.068   0.795
80817SOL    HW144348   5.680  11.107   0.846
80817SOL    HW244349   5.827  11.071   0.852
80818SOL     OW44350  13.552   8.959  13.741
80818SOL    HW144351  13.605   8.935  13.666
80818SOL    HW244352  13.462   8.957  13.709
80819SOL     OW44353   8.305   8.851   4.569
80819SOL    HW144354   8.285   8.812   4.484
80819SOL    HW244355   8.347   8.935   4.547
80820SOL     OW44356   6.707  11.168   9.027
80820SOL    HW144357   6.773  11.191   8.961
80820SOL    HW244358   6.758  11.147   9.105
80821SOL     OW44359   8.737  10.705   5.538
80821SOL    HW144360   8.768  10.625   5.580
80821SOL    HW244361   8.803  10.771   5.560
80822SOL     OW44362   0.385   5.244  12.550
80822SOL    HW144363   0.319   5.190  12.593
80822SOL    HW244364   0.346   5.331  12.547
80823SOL     OW44365   7.716  12.936   9.821
80823SOL    HW144366   7.625  12.962   9.809
80823SOL    HW244367   7.765  12.990   9.760
80824SOL     OW44368   4.979  13.759   3.156
80824SOL    HW144369   5.071  13.783   3.143
80824SOL    HW244370   4.958  13.788   3.244
80825SOL     OW44371  13.588  12.898   6.585
80825SOL    HW144372  13.642  12.842   6.641
80825SOL    HW244373  13.501  12.896   6.625
80826SOL     OW44374  10.199   5.817  12.978
80826SOL    HW144375  10.292   5.814  12.959
80826SOL    HW244376  10.156   5.799  12.894
80827SOL     OW44377   3.215   3.786  14.465
80827SOL    HW144378   3.171   3.854  14.516
80827SOL    HW244379   3.301   3.822  14.446
80828SOL     OW44380   1.520   2.802  14.563
80828SOL    HW144381   1.486   2.731  14.508
80828SOL    HW244382   1.614   2.787  14.567
80829SOL     OW44383   3.435   9.072  13.090
80829SOL    HW144384   3.365   9.079  13.155
80829SOL    HW244385   3.482   9.155  13.097
80830SOL     OW44386   5.533   7.749   1.609
80830SOL    HW144387   5.550   7.664   1.569
80830SOL    HW244388   5.445   7.773   1.579
80831SOL     OW44389   1.083   8.029   7.862
80831SOL    HW144390   1.130   7.963   7.914
80831SOL    HW244391   1.073   7.988   7.776
80832SOL     OW44392   5.987   3.531  13.548
80832SOL    HW144393   5.982   3.474  13.625
80832SOL    HW244394   6.026   3.475  13.480
80833SOL     OW44395   6.603   3.882  10.372
80833SOL    HW144396   6.536   3.916  10.431
80833SOL    HW244397   6.555   3.858  10.292
80834SOL     OW44398  12.479  13.211  14.154
80834SOL    HW144399  12.384  13.221  14.151
80834SOL    HW244400  12.505  13.254  14.235
80835SOL     OW44401  13.736   4.181   5.204
80835SOL    HW144402  13.798   4.253   5.216
80835SOL    HW244403  13.700   4.194   5.116
80836SOL     OW44404   9.278  11.903   7.785
80836SOL    HW144405   9.283  11.808   7.775
80836SOL    HW244406   9.194  11.918   7.829
80837SOL     OW44407   6.022   4.909  10.909
80837SOL    HW144408   6.107   4.865  10.907
80837SOL    HW244409   5.993   4.902  11.000
80838SOL     OW44410  11.199  11.678   1.757
80838SOL    HW144411  11.108  11.702   1.742
80838SOL    HW244412  11.224  11.726   1.836
80839SOL     OW44413   3.873   0.589  10.961
80839SOL    HW144414   3.818   0.634  11.026
80839SOL    HW244415   3.917   0.520  11.011
80840SOL     OW44416   2.372   7.954   0.053
80840SOL    HW144417   2.315   8.019   0.012
80840SOL    HW244418   2.412   7.907  14.861
80841SOL     OW44419  12.420   0.208  11.800
80841SOL    HW144420  12.426   0.255  11.883
80841SOL    HW244421  12.402   0.276  11.735
80842SOL     OW44422  10.680  11.593   1.560
80842SOL    HW144423  10.714  11.555   1.478
80842SOL    HW244424  10.639  11.675   1.533
80843SOL     OW44425  12.421   2.043  12.058
80843SOL    HW144426  12.364   1.971  12.031
80843SOL    HW244427  12.419   2.104  11.985
80844SOL     OW44428  12.613  11.785   2.541
80844SOL    HW144429  12.654  11.865   2.509
80844SOL    HW244430  12.547  11.764   2.475
80845SOL     OW44431   7.297   0.540   5.202
80845SOL    HW144432   7.393   0.536   5.205
80845SOL    HW244433   7.270   0.526   5.293
80846SOL     OW44434   9.961   1.511   7.690
80846SOL    HW144435   9.974   1.416   7.692
80846SOL    HW244436  10.028   1.546   7.749
80847SOL     OW44437   0.235  13.161   9.973
80847SOL    HW144438   0.295  13.145  10.046
80847SOL    HW244439   0.148  13.150  10.011
80848SOL     OW44440   5.457   4.178  12.768
80848SOL    HW144441   5.499   4.140  12.846
80848SOL    HW244442   5.522   4.167  12.699
80849SOL     OW44443  10.698   5.504   6.749
80849SOL    HW144444  10.645   5.485   6.827
80849SOL    HW244445  10.733   5.591   6.765
80850SOL     OW44446  12.032   4.660   2.450
80850SOL    HW144447  11.962   4.611   2.407
80850SOL    HW244448  12.015   4.752   2.428
80851SOL     OW44449   6.664   4.502   9.942
80851SOL    HW144450   6.750   4.542   9.932
80851SOL    HW244451   6.668   4.422   9.891
80852SOL     OW44452   0.037   6.516  13.099
80852SOL    HW144453   0.070   6.427  13.087
80852SOL    HW244454   0.028   6.549  13.009
80853SOL     OW44455   7.797   2.983  14.865
80853SOL    HW144456   7.838   2.900  14.839
80853SOL    HW244457   7.704   2.963  14.868
80854SOL     OW44458   2.809   8.262   2.607
80854SOL    HW144459   2.753   8.334   2.636
80854SOL    HW244460   2.866   8.301   2.541
80855SOL     OW44461   2.838   4.153   5.668
80855SOL    HW144462   2.900   4.086   5.639
80855SOL    HW244463   2.868   4.234   5.625
80856SOL     OW44464  12.691   4.328   5.062
80856SOL    HW144465  12.678   4.394   4.994
80856SOL    HW244466  12.617   4.341   5.122
80857SOL     OW44467   0.188   9.045  10.368
80857SOL    HW144468   0.236   9.094  10.300
80857SOL    HW244469   0.255   8.994  10.413
80858SOL     OW44470   5.957   7.846   3.818
80858SOL    HW144471   5.870   7.831   3.781
80858SOL    HW244472   5.940   7.879   3.907
80859SOL     OW44473  10.895  10.655   5.487
80859SOL    HW144474  10.845  10.736   5.482
80859SOL    HW244475  10.908  10.628   5.396
80860SOL     OW44476   3.206   3.784  13.172
80860SOL    HW144477   3.130   3.797  13.116
80860SOL    HW244478   3.189   3.838  13.249
80861SOL     OW44479  11.288  11.798   4.414
80861SOL    HW144480  11.268  11.880   4.459
80861SOL    HW244481  11.299  11.734   4.485
80862SOL     OW44482   9.711  10.194   4.581
80862SOL    HW144483   9.635  10.226   4.630
80862SOL    HW244484   9.677  10.121   4.529
80863SOL     OW44485   5.894  12.437  10.694
80863SOL    HW144486   5.916  12.487  10.773
80863SOL    HW244487   5.840  12.497  10.642
80864SOL     OW44488   0.989   3.472  14.478
80864SOL    HW144489   1.076   3.436  14.494
80864SOL    HW244490   0.999   3.566  14.490
80865SOL     OW44491   3.812  11.371   8.575
80865SOL    HW144492   3.814  11.442   8.639
80865SOL    HW244493   3.815  11.291   8.627
80866SOL     OW44494  13.833   3.754   9.891
80866SOL    HW144495  13.883   3.700   9.829
80866SOL    HW244496  13.802   3.692   9.957
80867SOL     OW44497   3.460   7.356   7.709
80867SOL    HW144498   3.501   7.432   7.667
80867SOL    HW244499   3.496   7.281   7.662
80868SOL     OW44500   2.803   7.527   9.985
80868SOL    HW144501   2.866   7.500  10.052
80868SOL    HW244502   2.736   7.575  10.033
80869SOL     OW44503   1.765   8.472  14.411
80869SOL    HW144504   1.738   8.401  14.469
80869SOL    HW244505   1.747   8.440  14.323
80870SOL     OW44506   4.312  10.153   1.167
80870SOL    HW144507   4.383  10.113   1.118
80870SOL    HW244508   4.338  10.245   1.177
80871SOL     OW44509   9.119  12.664   8.745
80871SOL    HW144510   9.145  12.693   8.833
80871SOL    HW244511   9.197  12.619   8.712
80872SOL     OW44512   1.250   1.369  10.682
80872SOL    HW144513   1.204   1.354  10.764
80872SOL    HW244514   1.191   1.426  10.632
80873SOL     OW44515   7.078   3.304   1.859
80873SOL    HW144516   7.086   3.278   1.950
80873SOL    HW244517   6.984   3.317   1.845
80874SOL     OW44518   7.569   7.328   9.337
80874SOL    HW144519   7.536   7.263   9.275
80874SOL    HW244520   7.576   7.280   9.420
80875SOL     OW44521   5.303   3.432   7.828
80875SOL    HW144522   5.352   3.417   7.747
80875SOL    HW244523   5.368   3.466   7.890
80876SOL     OW44524  11.097   9.912  13.196
80876SOL    HW144525  11.011   9.912  13.154
80876SOL    HW244526  11.146   9.842  13.152
80877SOL     OW44527  10.117   1.977  14.480
80877SOL    HW144528  10.131   2.067  14.449
80877SOL    HW244529  10.205   1.943  14.495
80878SOL     OW44530   0.592   9.610   6.435
80878SOL    HW144531   0.579   9.650   6.521
80878SOL    HW244532   0.671   9.652   6.401
80879SOL     OW44533   6.949  13.547  14.089
80879SOL    HW144534   7.015  13.506  14.032
80879SOL    HW244535   6.867  13.505  14.062
80880SOL     OW44536   5.756  10.931   0.356
80880SOL    HW144537   5.831  10.931   0.416
80880SOL    HW244538   5.741  10.838   0.337
80881SOL     OW44539   9.592   2.972   7.749
80881SOL    HW144540   9.679   2.954   7.784
80881SOL    HW244541   9.598   2.946   7.657
80882SOL     OW44542   4.034  12.991  10.270
80882SOL    HW144543   4.069  13.080  10.266
80882SOL    HW244544   4.105  12.940  10.308
80883SOL     OW44545   3.593   2.469  11.192
80883SOL    HW144546   3.680   2.509  11.204
80883SOL    HW244547   3.531   2.538  11.215
80884SOL     OW44548  12.639   1.708   6.131
80884SOL    HW144549  12.730   1.739   6.127
80884SOL    HW244550  12.644   1.618   6.100
80885SOL     OW44551  13.690   6.173   8.898
80885SOL    HW144552  13.695   6.266   8.922
80885SOL    HW244553  13.649   6.130   8.972
80886SOL     OW44554   8.885   6.900   0.664
80886SOL    HW144555   8.933   6.912   0.746
80886SOL    HW244556   8.883   6.805   0.651
80887SOL     OW44557   9.190  10.581   5.888
80887SOL    HW144558   9.141  10.531   5.953
80887SOL    HW244559   9.125  10.608   5.824
80888SOL     OW44560   9.107   9.097   9.461
80888SOL    HW144561   9.191   9.099   9.506
80888SOL    HW244562   9.045   9.134   9.524
80889SOL     OW44563   4.314   0.213   5.872
80889SOL    HW144564   4.307   0.297   5.828
80889SOL    HW244565   4.272   0.151   5.812
80890SOL     OW44566   5.055   4.312   5.404
80890SOL    HW144567   5.145   4.282   5.419
80890SOL    HW244568   5.048   4.392   5.457
80891SOL     OW44569  13.521  11.810   3.448
80891SOL    HW144570  13.556  11.891   3.486
80891SOL    HW244571  13.563  11.741   3.499
80892SOL     OW44572   0.265  14.208   9.839
80892SOL    HW144573   0.286  14.206   9.933
80892SOL    HW244574   0.191  14.148   9.830
80893SOL     OW44575   7.462   8.913   9.702
80893SOL    HW144576   7.421   8.855   9.638
80893SOL    HW244577   7.556   8.905   9.685
80894SOL     OW44578  14.152   0.352   0.052
80894SOL    HW144579  14.186   0.276   0.005
80894SOL    HW244580  14.060   0.332   0.066
80895SOL     OW44581  13.770  12.871   1.901
80895SOL    HW144582  13.773  12.793   1.846
80895SOL    HW244583  13.677  12.882   1.921
80896SOL     OW44584   4.927  11.815  12.721
80896SOL    HW144585   4.842  11.796  12.760
80896SOL    HW244586   4.908  11.835  12.629
80897SOL     OW44587  13.436  11.857   7.749
80897SOL    HW144588  13.407  11.922   7.685
80897SOL    HW244589  13.531  11.857   7.742
80898SOL     OW44590   2.295   2.958   2.267
80898SOL    HW144591   2.274   2.865   2.276
80898SOL    HW244592   2.222   2.994   2.216
80899SOL     OW44593  10.775   9.269   9.071
80899SOL    HW144594  10.788   9.297   8.980
80899SOL    HW244595  10.759   9.175   9.065
80900SOL     OW44596   9.388   8.080   4.020
80900SOL    HW144597   9.423   8.138   4.087
80900SOL    HW244598   9.331   8.020   4.067
80901SOL     OW44599  11.410   0.323  10.932
80901SOL    HW144600  11.396   0.358  10.844
80901SOL    HW244601  11.419   0.229  10.919
80902SOL     OW44602  12.712   5.735   1.256
80902SOL    HW144603  12.737   5.821   1.223
80902SOL    HW244604  12.673   5.753   1.342
80903SOL     OW44605   5.048   0.324  11.554
80903SOL    HW144606   5.011   0.246  11.511
80903SOL    HW244607   5.141   0.322  11.533
80904SOL     OW44608   5.462   3.056  13.822
80904SOL    HW144609   5.424   2.990  13.880
80904SOL    HW244610   5.536   3.012  13.781
80905SOL     OW44611   9.730   3.529   7.658
80905SOL    HW144612   9.761   3.443   7.628
80905SOL    HW244613   9.809   3.579   7.673
80906SOL     OW44614  14.833   8.741   2.254
80906SOL    HW144615  14.870   8.735   2.166
80906SOL    HW244616   0.027   8.733   2.312
80907SOL     OW44617   7.672   7.387   3.547
80907SOL    HW144618   7.759   7.422   3.530
80907SOL    HW244619   7.667   7.382   3.643
80908SOL     OW44620   3.729   5.011   1.299
80908SOL    HW144621   3.705   4.977   1.213
80908SOL    HW244622   3.815   4.973   1.317
80909SOL     OW44623   9.168   4.170   7.367
80909SOL    HW144624   9.120   4.242   7.408
80909SOL    HW244625   9.161   4.186   7.273
80910SOL     OW44626   7.241  12.602   2.956
80910SOL    HW144627   7.196  12.543   2.896
80910SOL    HW244628   7.315  12.635   2.905
80911SOL     OW44629  12.810   0.173   0.469
80911SOL    HW144630  12.860   0.183   0.388
80911SOL    HW244631  12.721   0.154   0.439
80912SOL     OW44632   2.433   8.639  12.491
80912SOL    HW144633   2.515   8.649  12.442
80912SOL    HW244634   2.385   8.572  12.443
80913SOL     OW44635  10.922  14.768   8.111
80913SOL    HW144636  11.000  14.715   8.102
80913SOL    HW244637  10.849  14.706   8.105
80914SOL     OW44638   7.219  11.171   8.372
80914SOL    HW144639   7.210  11.262   8.399
80914SOL    HW244640   7.307  11.167   8.333
80915SOL     OW44641   3.420  11.938   9.069
80915SOL    HW144642   3.483  11.928   8.997
80915SOL    HW244643   3.473  11.965   9.144
80916SOL     OW44644   3.718   9.462   8.021
80916SOL    HW144645   3.747   9.458   8.112
80916SOL    HW244646   3.759   9.541   7.986
80917SOL     OW44647  13.278  12.733   1.238
80917SOL    HW144648  13.194  12.723   1.195
80917SOL    HW244649  13.339  12.754   1.166
80918SOL     OW44650   9.907   5.943   1.640
80918SOL    HW144651   9.816   5.972   1.635
80918SOL    HW244652   9.933   5.931   1.549
80919SOL     OW44653  13.118   1.224   1.801
80919SOL    HW144654  13.122   1.216   1.706
80919SOL    HW244655  13.046   1.285   1.818
80920SOL     OW44656   7.873  12.376   5.478
80920SOL    HW144657   7.933  12.423   5.420
80920SOL    HW244658   7.829  12.312   5.421
80921SOL     OW44659   0.196   9.913   2.788
80921SOL    HW144660   0.222   9.903   2.697
80921SOL    HW244661   0.104   9.885   2.790
80922SOL     OW44662   1.948   4.352   7.793
80922SOL    HW144663   1.910   4.426   7.842
80922SOL    HW244664   1.969   4.288   7.861
80923SOL     OW44665   5.677   0.312   8.377
80923SOL    HW144666   5.603   0.252   8.371
80923SOL    HW244667   5.641   0.398   8.356
80924SOL     OW44668   4.672   9.843   8.023
80924SOL    HW144669   4.693   9.838   8.116
80924SOL    HW244670   4.701   9.759   7.988
80925SOL     OW44671   9.004   1.162   1.765
80925SOL    HW144672   9.074   1.193   1.822
80925SOL    HW244673   8.956   1.241   1.741
80926SOL     OW44674   4.562  10.508   7.010
80926SOL    HW144675   4.588  10.432   7.062
80926SOL    HW244676   4.476  10.485   6.975
80927SOL     OW44677   1.652   3.696   5.343
80927SOL    HW144678   1.675   3.603   5.342
80927SOL    HW244679   1.565   3.699   5.383
80928SOL     OW44680   2.138   4.411   2.095
80928SOL    HW144681   2.173   4.479   2.038
80928SOL    HW244682   2.048   4.398   2.063
80929SOL     OW44683   8.367   3.664   5.033
80929SOL    HW144684   8.354   3.665   4.938
80929SOL    HW244685   8.460   3.648   5.044
80930SOL     OW44686  10.564   4.696   8.354
80930SOL    HW144687  10.473   4.681   8.326
80930SOL    HW244688  10.611   4.618   8.323
80931SOL     OW44689   0.277  13.348   5.334
80931SOL    HW144690   0.225  13.307   5.403
80931SOL    HW244691   0.299  13.276   5.274
80932SOL     OW44692  14.072   8.259   9.395
80932SOL    HW144693  14.041   8.331   9.450
80932SOL    HW244694  14.140   8.217   9.447
80933SOL     OW44695   5.051   0.416   0.404
80933SOL    HW144696   5.123   0.356   0.384
80933SOL    HW244697   4.972   0.362   0.395
80934SOL     OW44698   8.785   9.818   7.433
80934SOL    HW144699   8.809   9.910   7.443
80934SOL    HW244700   8.689   9.819   7.427
80935SOL     OW44701   3.551   5.998   3.287
80935SOL    HW144702   3.624   6.024   3.232
80935SOL    HW244703   3.474   6.034   3.243
80936SOL     OW44704   0.823  11.247  12.125
80936SOL    HW144705   0.855  11.336  12.113
80936SOL    HW244706   0.782  11.224  12.041
80937SOL     OW44707   2.487   8.909   4.690
80937SOL    HW144708   2.431   8.882   4.763
80937SOL    HW244709   2.493   8.831   4.634
80938SOL     OW44710   3.666  12.758   9.487
80938SOL    HW144711   3.715  12.682   9.518
80938SOL    HW244712   3.574  12.735   9.498
80939SOL     OW44713   5.500  10.809   5.224
80939SOL    HW144714   5.528  10.744   5.160
80939SOL    HW244715   5.404  10.812   5.215
80940SOL     OW44716   9.924  11.243   8.553
80940SOL    HW144717   9.991  11.266   8.489
80940SOL    HW244718   9.970  11.188   8.616
80941SOL     OW44719   4.631   2.375   2.107
80941SOL    HW144720   4.611   2.408   2.020
80941SOL    HW244721   4.725   2.356   2.105
80942SOL     OW44722  11.346   7.162   1.451
80942SOL    HW144723  11.398   7.222   1.505
80942SOL    HW244724  11.294   7.219   1.395
80943SOL     OW44725   9.474   3.901  11.838
80943SOL    HW144726   9.540   3.837  11.811
80943SOL    HW244727   9.508   3.985  11.808
80944SOL     OW44728   4.379   1.039  12.754
80944SOL    HW144729   4.297   1.089  12.753
80944SOL    HW244730   4.412   1.045  12.664
80945SOL     OW44731   8.231  13.806   4.414
80945SOL    HW144732   8.240  13.732   4.474
80945SOL    HW244733   8.142  13.837   4.427
80946SOL     OW44734   3.278   0.910   2.604
80946SOL    HW144735   3.289   0.891   2.511
80946SOL    HW244736   3.358   0.877   2.645
80947SOL     OW44737  10.620  12.889  14.713
80947SOL    HW144738  10.713  12.876  14.699
80947SOL    HW244739  10.591  12.943  14.639
80948SOL     OW44740   9.353   0.299   9.748
80948SOL    HW144741   9.358   0.253   9.664
80948SOL    HW244742   9.261   0.294   9.773
80949SOL     OW44743  13.655  13.373  11.278
80949SOL    HW144744  13.586  13.412  11.224
80949SOL    HW244745  13.712  13.327  11.216
80950SOL     OW44746   8.954   1.307   6.202
80950SOL    HW144747   8.911   1.392   6.206
80950SOL    HW244748   9.018   1.309   6.274
80951SOL     OW44749   1.715  13.983   9.077
80951SOL    HW144750   1.664  13.908   9.107
80951SOL    HW244751   1.799  13.947   9.050
80952SOL     OW44752   0.423  10.877   8.518
80952SOL    HW144753   0.508  10.906   8.486
80952SOL    HW244754   0.427  10.781   8.513
80953SOL     OW44755  12.609   3.020   4.998
80953SOL    HW144756  12.548   3.069   5.054
80953SOL    HW244757  12.650   3.087   4.943
80954SOL     OW44758   1.534   6.601  10.145
80954SOL    HW144759   1.498   6.513  10.146
80954SOL    HW244760   1.627   6.589  10.126
80955SOL     OW44761  14.559  14.675  12.142
80955SOL    HW144762  14.501  14.748  12.162
80955SOL    HW244763  14.521  14.600  12.187
80956SOL     OW44764   7.181   2.275   3.930
80956SOL    HW144765   7.143   2.225   4.003
80956SOL    HW244766   7.123   2.350   3.920
80957SOL     OW44767   4.638  13.286  13.796
80957SOL    HW144768   4.579  13.283  13.871
80957SOL    HW244769   4.593  13.235  13.728
80958SOL     OW44770   5.383   7.682  12.351
80958SOL    HW144771   5.384   7.747  12.422
80958SOL    HW244772   5.467   7.637  12.359
80959SOL     OW44773   1.642  14.592   1.235
80959SOL    HW144774   1.605  14.540   1.164
80959SOL    HW244775   1.650  14.680   1.200
80960SOL     OW44776   5.999   3.169   8.610
80960SOL    HW144777   6.093   3.185   8.611
80960SOL    HW244778   5.967   3.221   8.536
80961SOL     OW44779   3.144  10.309   6.176
80961SOL    HW144780   3.059  10.350   6.161
80961SOL    HW244781   3.126  10.235   6.233
80962SOL     OW44782   1.179   1.780  13.452
80962SOL    HW144783   1.178   1.718  13.525
80962SOL    HW244784   1.093   1.822  13.456
80963SOL     OW44785   2.512  11.223   4.605
80963SOL    HW144786   2.515  11.166   4.682
80963SOL    HW244787   2.599  11.261   4.600
80964SOL     OW44788   5.099  14.094  12.511
80964SOL    HW144789   5.181  14.141  12.520
80964SOL    HW244790   5.105  14.022  12.575
80965SOL     OW44791   2.430   5.005   4.088
80965SOL    HW144792   2.376   4.986   4.011
80965SOL    HW244793   2.405   4.938   4.151
80966SOL     OW44794   2.368   2.105  10.116
80966SOL    HW144795   2.283   2.105  10.071
80966SOL    HW244796   2.414   2.181  10.082
80967SOL     OW44797   0.979  11.472   2.716
80967SOL    HW144798   1.019  11.498   2.799
80967SOL    HW244799   1.007  11.539   2.653
80968SOL     OW44800   0.236   2.777   4.411
80968SOL    HW144801   0.202   2.789   4.323
80968SOL    HW244802   0.178   2.829   4.467
80969SOL     OW44803   9.990   7.842   6.092
80969SOL    HW144804   9.979   7.912   6.156
80969SOL    HW244805   9.961   7.763   6.139
80970SOL     OW44806   4.893  14.276   9.791
80970SOL    HW144807   4.826  14.218   9.827
80970SOL    HW244808   4.952  14.217   9.743
80971SOL     OW44809  11.963   0.883  10.300
80971SOL    HW144810  11.968   0.814  10.366
80971SOL    HW244811  11.897   0.944  10.333
80972SOL     OW44812  14.874  13.538   3.233
80972SOL    HW144813   0.071  13.496   3.199
80972SOL    HW244814   0.016  13.569   3.320
80973SOL     OW44815   3.387   7.353   9.014
80973SOL    HW144816   3.364   7.283   8.953
80973SOL    HW244817   3.309   7.408   9.018
80974SOL     OW44818   0.121   6.614   8.883
80974SOL    HW144819   0.203   6.568   8.865
80974SOL    HW244820   0.061   6.584   8.815
80975SOL     OW44821   7.686  12.817  10.168
80975SOL    HW144822   7.618  12.884  10.177
80975SOL    HW244823   7.660  12.766  10.092
80976SOL     OW44824   6.250   6.807   0.674
80976SOL    HW144825   6.292   6.723   0.656
80976SOL    HW244826   6.316   6.857   0.722
80977SOL     OW44827   9.032   3.771   5.647
80977SOL    HW144828   9.086   3.849   5.657
80977SOL    HW244829   8.949   3.803   5.612
80978SOL     OW44830  12.515  11.177  11.799
80978SOL    HW144831  12.475  11.092  11.784
80978SOL    HW244832  12.491  11.228  11.721
80979SOL     OW44833   6.628   5.705   0.678
80979SOL    HW144834   6.671   5.638   0.625
80979SOL    HW244835   6.638   5.674   0.768
80980SOL     OW44836  11.739  14.141   9.254
80980SOL    HW144837  11.827  14.168   9.281
80980SOL    HW244838  11.742  14.141   9.159
80981SOL     OW44839   8.640   5.386  11.407
80981SOL    HW144840   8.622   5.471  11.368
80981SOL    HW244841   8.553   5.348  11.422
80982SOL     OW44842  10.646  14.489  10.049
80982SOL    HW144843  10.695  14.567  10.022
80982SOL    HW244844  10.670  14.423   9.984
80983SOL     OW44845   7.554   6.904   1.790
80983SOL    HW144846   7.639   6.875   1.824
80983SOL    HW244847   7.551   6.998   1.811
80984SOL     OW44848   0.684   8.709  13.300
80984SOL    HW144849   0.699   8.771  13.229
80984SOL    HW244850   0.679   8.764  13.379
80985SOL     OW44851  13.000  12.100  14.262
80985SOL    HW144852  13.014  12.158  14.187
80985SOL    HW244853  13.023  12.153  14.338
80986SOL     OW44854  13.636  10.223  10.454
80986SOL    HW144855  13.549  10.259  10.470
80986SOL    HW244856  13.665  10.266  10.373
80987SOL     OW44857   4.626   4.704   2.326
80987SOL    HW144858   4.628   4.609   2.327
80987SOL    HW244859   4.695   4.730   2.388
80988SOL     OW44860  14.322   9.722   3.064
80988SOL    HW144861  14.394   9.747   3.005
80988SOL    HW244862  14.354   9.744   3.151
80989SOL     OW44863   1.848   3.976   6.481
80989SOL    HW144864   1.865   3.974   6.387
80989SOL    HW244865   1.762   3.935   6.491
80990SOL     OW44866  13.423  10.451  14.366
80990SOL    HW144867  13.399  10.361  14.344
80990SOL    HW244868  13.349  10.485  14.416
80991SOL     OW44869  14.236   5.933   5.161
80991SOL    HW144870  14.145   5.963   5.152
80991SOL    HW244871  14.274   5.993   5.226
80992SOL     OW44872  10.195   6.248  13.063
80992SOL    HW144873  10.113   6.208  13.036
80992SOL    HW244874  10.185   6.263  13.157
80993SOL     OW44875  11.732   0.742   5.167
80993SOL    HW144876  11.644   0.707   5.181
80993SOL    HW244877  11.720   0.817   5.109
80994SOL     OW44878  12.751   0.929   1.593
80994SOL    HW144879  12.714   0.992   1.655
80994SOL    HW244880  12.704   0.947   1.511
80995SOL     OW44881  14.538   3.582   8.696
80995SOL    HW144882  14.619   3.532   8.700
80995SOL    HW244883  14.533   3.614   8.606
80996SOL     OW44884   5.560   2.934   5.687
80996SOL    HW144885   5.473   2.972   5.699
80996SOL    HW244886   5.547   2.863   5.624
80997SOL     OW44887   9.186  13.359   3.523
80997SOL    HW144888   9.150  13.401   3.601
80997SOL    HW244889   9.280  13.376   3.528
80998SOL     OW44890  11.292   8.267   6.041
80998SOL    HW144891  11.331   8.280   6.127
80998SOL    HW244892  11.278   8.356   6.007
80999SOL     OW44893   6.936  12.362  14.502
80999SOL    HW144894   6.922  12.329  14.591
80999SOL    HW244895   7.018  12.410  14.507
81000SOL     OW44896  14.452   4.323   6.807
81000SOL    HW144897  14.532   4.342   6.758
81000SOL    HW244898  14.449   4.227   6.812
81001SOL     OW44899   4.441  12.645   6.854
81001SOL    HW144900   4.438  12.552   6.832
81001SOL    HW244901   4.532  12.670   6.841
81002SOL     OW44902  11.779   9.919  14.760
81002SOL    HW144903  11.707   9.957  14.810
81002SOL    HW244904  11.793   9.981  14.688
81003SOL     OW44905   5.249   2.102  11.497
81003SOL    HW144906   5.254   2.133  11.406
81003SOL    HW244907   5.310   2.158  11.545
81004SOL     OW44908   5.885  13.622  13.648
81004SOL    HW144909   5.960  13.583  13.605
81004SOL    HW244910   5.836  13.548  13.684
81005SOL     OW44911  13.927  12.688  11.113
81005SOL    HW144912  14.014  12.727  11.119
81005SOL    HW244913  13.891  12.722  11.032
81006SOL     OW44914   0.588   8.628   4.976
81006SOL    HW144915   0.600   8.720   5.002
81006SOL    HW244916   0.625   8.623   4.888
81007SOL     OW44917   0.918   5.151  14.464
81007SOL    HW144918   0.895   5.089  14.395
81007SOL    HW244919   0.885   5.235  14.433
81008SOL     OW44920  11.729   9.090   6.375
81008SOL    HW144921  11.635   9.102   6.385
81008SOL    HW244922  11.744   9.087   6.281
81009SOL     OW44923   8.722  13.609  12.257
81009SOL    HW144924   8.755  13.607  12.347
81009SOL    HW244925   8.677  13.526  12.246
81010SOL     OW44926   1.475   2.522  13.527
81010SOL    HW144927   1.509   2.601  13.568
81010SOL    HW244928   1.379   2.530  13.535
81011SOL     OW44929  10.902   9.622  10.871
81011SOL    HW144930  10.887   9.686  10.940
81011SOL    HW244931  10.938   9.673  10.798
81012SOL     OW44932  12.443   1.676   2.636
81012SOL    HW144933  12.440   1.741   2.707
81012SOL    HW244934  12.480   1.724   2.562
81013SOL     OW44935  12.727   0.805   2.060
81013SOL    HW144936  12.768   0.876   2.109
81013SOL    HW244937  12.795   0.739   2.052
81014SOL     OW44938   3.226  12.685   2.833
81014SOL    HW144939   3.225  12.589   2.830
81014SOL    HW244940   3.260  12.706   2.920
81015SOL     OW44941  12.441   7.875  14.775
81015SOL    HW144942  12.516   7.816  14.787
81015SOL    HW244943  12.479   7.954  14.736
81016SOL     OW44944   7.500   8.104  10.154
81016SOL    HW144945   7.442   8.119  10.079
81016SOL    HW244946   7.452   8.041  10.208
81017SOL     OW44947   9.640   1.672   8.722
81017SOL    HW144948   9.605   1.744   8.670
81017SOL    HW244949   9.650   1.708   8.810
81018SOL     OW44950   2.449   9.504   9.005
81018SOL    HW144951   2.501   9.442   8.955
81018SOL    HW244952   2.512   9.550   9.060
81019SOL     OW44953   1.119  10.750   3.833
81019SOL    HW144954   1.102  10.793   3.917
81019SOL    HW244955   1.036  10.710   3.809
81020SOL     OW44956   1.943   3.181  11.926
81020SOL    HW144957   2.009   3.250  11.921
81020SOL    HW244958   1.949   3.135  11.842
81021SOL     OW44959   3.651   2.285   5.618
81021SOL    HW144960   3.579   2.246   5.668
81021SOL    HW244961   3.607   2.348   5.560
81022SOL     OW44962   3.646  10.069   1.333
81022SOL    HW144963   3.622  10.154   1.296
81022SOL    HW244964   3.736  10.055   1.305
81023SOL     OW44965  11.146   3.013   3.575
81023SOL    HW144966  11.125   3.028   3.483
81023SOL    HW244967  11.221   3.070   3.592
81024SOL     OW44968   5.063   9.625   7.763
81024SOL    HW144969   4.979   9.652   7.725
81024SOL    HW244970   5.073   9.679   7.841
81025SOL     OW44971   9.602   6.980  12.204
81025SOL    HW144972   9.669   6.982  12.273
81025SOL    HW244973   9.598   6.889  12.176
81026SOL     OW44974  11.074  11.743   2.911
81026SOL    HW144975  11.012  11.675   2.883
81026SOL    HW244976  11.022  11.823   2.911
81027SOL     OW44977   0.690  12.645  14.852
81027SOL    HW144978   0.769  12.635   0.022
81027SOL    HW244979   0.647  12.559  14.859
81028SOL     OW44980   4.184  10.799  14.578
81028SOL    HW144981   4.108  10.758  14.537
81028SOL    HW244982   4.176  10.892  14.556
81029SOL     OW44983  14.708  11.525   3.212
81029SOL    HW144984  14.783  11.546   3.268
81029SOL    HW244985  14.737  11.549   3.124
81030SOL     OW44986  14.494   7.707   7.905
81030SOL    HW144987  14.404   7.720   7.934
81030SOL    HW244988  14.488   7.635   7.842
81031SOL     OW44989  14.822  13.175   9.849
81031SOL    HW144990  14.746  13.146   9.899
81031SOL    HW244991  14.864  13.094   9.820
81032SOL     OW44992  10.018   0.960   9.595
81032SOL    HW144993  10.100   0.998   9.626
81032SOL    HW244994  10.045   0.889   9.537
81033SOL     OW44995  14.092   5.625   8.996
81033SOL    HW144996  14.026   5.588   9.056
81033SOL    HW244997  14.055   5.611   8.909
81034SOL     OW44998  13.382  10.874  12.818
81034SOL    HW144999  13.299  10.833  12.793
81034SOL    HW245000  13.401  10.935  12.747
81035SOL     OW45001   3.865  12.158  10.292
81035SOL    HW145002   3.948  12.115  10.314
81035SOL    HW245003   3.837  12.199  10.373
81036SOL     OW45004   8.145   9.624  12.613
81036SOL    HW145005   8.110   9.670  12.689
81036SOL    HW245006   8.238   9.647  12.611
81037SOL     OW45007  14.843  10.389  14.758
81037SOL    HW145008  14.754  10.366  14.732
81037SOL    HW245009  14.839  10.483  14.777
81038SOL     OW45010   9.721   3.748  10.851
81038SOL    HW145011   9.710   3.771  10.759
81038SOL    HW245012   9.728   3.652  10.851
81039SOL     OW45013  13.679   7.023   8.645
81039SOL    HW145014  13.665   7.117   8.658
81039SOL    HW245015  13.773   7.014   8.636
81040SOL     OW45016   2.715  10.018   2.133
81040SOL    HW145017   2.645   9.963   2.168
81040SOL    HW245018   2.746   9.971   2.055
81041SOL     OW45019  12.200  10.930  11.901
81041SOL    HW145020  12.121  10.976  11.871
81041SOL    HW245021  12.262  10.940  11.829
81042SOL     OW45022  10.280   3.287   6.473
81042SOL    HW145023  10.297   3.194   6.488
81042SOL    HW245024  10.361   3.330   6.500
81043SOL     OW45025  13.808   4.481   6.414
81043SOL    HW145026  13.872   4.477   6.343
81043SOL    HW245027  13.772   4.393   6.419
81044SOL     OW45028   0.151   8.160  13.456
81044SOL    HW145029   0.202   8.236  13.483
81044SOL    HW245030   0.067   8.197  13.427
81045SOL     OW45031  10.167   7.257   2.637
81045SOL    HW145032  10.105   7.326   2.611
81045SOL    HW245033  10.148   7.184   2.578
81046SOL     OW45034   2.553  14.467  12.054
81046SOL    HW145035   2.466  14.486  12.018
81046SOL    HW245036   2.567  14.374  12.035
81047SOL     OW45037   7.339  10.862   6.162
81047SOL    HW145038   7.427  10.830   6.144
81047SOL    HW245039   7.336  10.871   6.258
81048SOL     OW45040   3.559   9.491  13.339
81048SOL    HW145041   3.469   9.523  13.330
81048SOL    HW245042   3.602   9.555  13.395
81049SOL     OW45043  11.997   0.601   6.131
81049SOL    HW145044  11.942   0.617   6.209
81049SOL    HW245045  11.970   0.515   6.100
81050SOL     OW45046  13.513   5.490   7.197
81050SOL    HW145047  13.566   5.412   7.206
81050SOL    HW245048  13.465   5.478   7.115
81051SOL     OW45049   6.507   1.419   7.590
81051SOL    HW145050   6.568   1.418   7.517
81051SOL    HW245051   6.446   1.490   7.570
81052SOL     OW45052  14.350   9.689   7.350
81052SOL    HW145053  14.306   9.767   7.316
81052SOL    HW245054  14.307   9.672   7.434
81053SOL     OW45055   1.691  11.388   3.649
81053SOL    HW145056   1.786  11.387   3.635
81053SOL    HW245057   1.654  11.392   3.561
81054SOL     OW45058   9.818   3.106   5.208
81054SOL    HW145059   9.843   3.037   5.269
81054SOL    HW245060   9.830   3.067   5.121
81055SOL     OW45061   0.495   6.754   2.687
81055SOL    HW145062   0.562   6.686   2.683
81055SOL    HW245063   0.489   6.788   2.598
81056SOL     OW45064   2.659  11.670   0.611
81056SOL    HW145065   2.699  11.720   0.683
81056SOL    HW245066   2.732  11.644   0.555
81057SOL     OW45067  12.414   7.035   7.016
81057SOL    HW145068  12.366   6.997   6.942
81057SOL    HW245069  12.491   6.979   7.026
81058SOL     OW45070  13.671   3.711  12.858
81058SOL    HW145071  13.750   3.659  12.872
81058SOL    HW245072  13.691   3.767  12.784
81059SOL     OW45073  10.783   0.125  12.306
81059SOL    HW145074  10.693   0.113  12.274
81059SOL    HW245075  10.773   0.133  12.401
81060SOL     OW45076  14.776  13.591   4.126
81060SOL    HW145077  14.824  13.510   4.141
81060SOL    HW245078  14.700  13.586   4.184
81061SOL     OW45079  13.207   0.659   2.184
81061SOL    HW145080  13.213   0.672   2.278
81061SOL    HW245081  13.282   0.706   2.148
81062SOL     OW45082   3.365   7.691  10.618
81062SOL    HW145083   3.271   7.681  10.600
81062SOL    HW245084   3.399   7.735  10.540
81063SOL     OW45085   4.656  14.280   4.233
81063SOL    HW145086   4.657  14.281   4.137
81063SOL    HW245087   4.608  14.360   4.256
81064SOL     OW45088   9.701  12.358   1.764
81064SOL    HW145089   9.736  12.444   1.786
81064SOL    HW245090   9.622  12.350   1.818
81065SOL     OW45091   0.108  10.039   9.873
81065SOL    HW145092   0.091  10.014   9.963
81065SOL    HW245093   0.127  10.133   9.877
81066SOL     OW45094  11.520   7.740   6.378
81066SOL    HW145095  11.616   7.734   6.380
81066SOL    HW245096  11.493   7.708   6.465
81067SOL     OW45097   7.984   8.009   7.258
81067SOL    HW145098   7.986   7.953   7.335
81067SOL    HW245099   8.009   7.952   7.185
81068SOL     OW45100   4.735   6.794  13.009
81068SOL    HW145101   4.731   6.717  13.065
81068SOL    HW245102   4.734   6.868  13.070
81069SOL     OW45103   6.349   0.064   0.887
81069SOL    HW145104   6.258   0.094   0.888
81069SOL    HW245105   6.377   0.068   0.978
81070SOL     OW45106   8.370   5.382   2.029
81070SOL    HW145107   8.327   5.377   1.944
81070SOL    HW245108   8.301   5.363   2.092
81071SOL     OW45109  11.202  10.692   2.912
81071SOL    HW145110  11.203  10.703   3.007
81071SOL    HW245111  11.212  10.597   2.899
81072SOL     OW45112   8.229   9.389  13.892
81072SOL    HW145113   8.277   9.307  13.902
81072SOL    HW245114   8.257   9.442  13.966
81073SOL     OW45115   3.167  12.939  14.090
81073SOL    HW145116   3.089  12.974  14.134
81073SOL    HW245117   3.133  12.873  14.030
81074SOL     OW45118  14.149  13.438   7.910
81074SOL    HW145119  14.085  13.507   7.894
81074SOL    HW245120  14.109  13.360   7.869
81075SOL     OW45121   9.728   9.737   0.948
81075SOL    HW145122   9.734   9.643   0.968
81075SOL    HW245123   9.700   9.740   0.857
81076SOL     OW45124  14.565   2.773   4.094
81076SOL    HW145125  14.485   2.733   4.060
81076SOL    HW245126  14.557   2.865   4.070
81077SOL     OW45127  11.500   3.651   1.646
81077SOL    HW145128  11.465   3.687   1.564
81077SOL    HW245129  11.500   3.725   1.706
81078SOL     OW45130   3.099   3.924   6.277
81078SOL    HW145131   3.027   3.974   6.240
81078SOL    HW245132   3.119   3.967   6.360
81079SOL     OW45133   0.464   9.817   3.205
81079SOL    HW145134   0.419   9.746   3.251
81079SOL    HW245135   0.447   9.801   3.112
81080SOL     OW45136  11.292   7.354   6.313
81080SOL    HW145137  11.247   7.272   6.331
81080SOL    HW245138  11.300   7.397   6.398
81081SOL     OW45139   6.759  12.443   7.554
81081SOL    HW145140   6.820  12.390   7.604
81081SOL    HW245141   6.759  12.403   7.467
81082SOL     OW45142  14.099   8.346  11.939
81082SOL    HW145143  14.193   8.336  11.954
81082SOL    HW245144  14.064   8.372  12.024
81083SOL     OW45145  10.841   9.285   2.060
81083SOL    HW145146  10.901   9.211   2.067
81083SOL    HW245147  10.767   9.251   2.010
81084SOL     OW45148   3.974   8.627  12.261
81084SOL    HW145149   3.963   8.704  12.205
81084SOL    HW245150   4.030   8.568  12.209
81085SOL     OW45151  10.798   8.846  12.690
81085SOL    HW145152  10.764   8.800  12.767
81085SOL    HW245153  10.720   8.862  12.636
81086SOL     OW45154   1.036  11.649  11.271
81086SOL    HW145155   1.062  11.571  11.221
81086SOL    HW245156   0.944  11.632  11.295
81087SOL     OW45157  10.340  12.532   1.878
81087SOL    HW145158  10.434  12.515   1.887
81087SOL    HW245159  10.316  12.576   1.960
81088SOL     OW45160   7.106   6.388   7.915
81088SOL    HW145161   7.078   6.468   7.871
81088SOL    HW245162   7.060   6.390   7.999
81089SOL     OW45163  11.830  13.761   4.764
81089SOL    HW145164  11.839  13.685   4.706
81089SOL    HW245165  11.884  13.829   4.721
81090SOL     OW45166  11.393  13.744  13.847
81090SOL    HW145167  11.406  13.670  13.787
81090SOL    HW245168  11.417  13.821  13.795
81091SOL     OW45169   1.864  12.462   2.683
81091SOL    HW145170   1.793  12.471   2.747
81091SOL    HW245171   1.820  12.434   2.603
81092SOL     OW45172   4.140  11.876  11.532
81092SOL    HW145173   4.109  11.816  11.464
81092SOL    HW245174   4.166  11.819  11.605
81093SOL     OW45175   8.645   7.734   6.151
81093SOL    HW145176   8.674   7.787   6.077
81093SOL    HW245177   8.686   7.774   6.227
81094SOL     OW45178   7.631  14.519   0.888
81094SOL    HW145179   7.584  14.527   0.970
81094SOL    HW245180   7.564  14.532   0.820
81095SOL     OW45181  12.480  13.708   8.957
81095SOL    HW145182  12.435  13.749   9.031
81095SOL    HW245183  12.546  13.772   8.930
81096SOL     OW45184   0.156   2.971   0.628
81096SOL    HW145185   0.068   2.991   0.595
81096SOL    HW245186   0.143   2.898   0.688
81097SOL     OW45187   0.213   3.566   4.474
81097SOL    HW145188   0.307   3.571   4.495
81097SOL    HW245189   0.170   3.599   4.553
81098SOL     OW45190  13.255   0.783   9.793
81098SOL    HW145191  13.332   0.768   9.738
81098SOL    HW245192  13.212   0.859   9.753
81099SOL     OW45193  11.101   5.117  14.003
81099SOL    HW145194  11.158   5.156  14.070
81099SOL    HW245195  11.104   5.023  14.021
81100SOL     OW45196   4.893   3.565   9.374
81100SOL    HW145197   4.881   3.475   9.404
81100SOL    HW245198   4.857   3.565   9.285
81101SOL     OW45199   5.338   3.172  13.472
81101SOL    HW145200   5.317   3.123  13.552
81101SOL    HW245201   5.433   3.166  13.464
81102SOL     OW45202  10.035   6.659   0.445
81102SOL    HW145203   9.985   6.617   0.515
81102SOL    HW245204   9.969   6.684   0.380
81103SOL     OW45205   9.346   8.852   8.205
81103SOL    HW145206   9.317   8.897   8.126
81103SOL    HW245207   9.302   8.898   8.277
81104SOL     OW45208   7.405  11.867   9.662
81104SOL    HW145209   7.433  11.777   9.678
81104SOL    HW245210   7.371  11.867   9.573
81105SOL     OW45211  12.231  14.259  10.112
81105SOL    HW145212  12.309  14.233  10.160
81105SOL    HW245213  12.255  14.340  10.068
81106SOL     OW45214   1.586   4.344  14.261
81106SOL    HW145215   1.566   4.407  14.191
81106SOL    HW245216   1.680   4.353  14.275
81107SOL     OW45217  13.517   9.574  13.430
81107SOL    HW145218  13.575   9.508  13.392
81107SOL    HW245219  13.452   9.524  13.479
81108SOL     OW45220   3.753   6.984  11.755
81108SOL    HW145221   3.825   7.035  11.791
81108SOL    HW245222   3.689   7.049  11.727
81109SOL     OW45223  10.268  13.338  11.960
81109SOL    HW145224  10.239  13.396  12.031
81109SOL    HW245225  10.296  13.258  12.004
81110SOL     OW45226   9.558  11.927   3.531
81110SOL    HW145227   9.465  11.924   3.511
81110SOL    HW245228   9.580  11.836   3.554
81111SOL     OW45229   1.535   6.880   5.457
81111SOL    HW145230   1.530   6.883   5.552
81111SOL    HW245231   1.500   6.794   5.433
81112SOL     OW45232   6.291   2.405   7.511
81112SOL    HW145233   6.262   2.327   7.464
81112SOL    HW245234   6.293   2.474   7.444
81113SOL     OW45235  10.453   6.017   1.977
81113SOL    HW145236  10.524   6.002   2.039
81113SOL    HW245237  10.466   6.107   1.946
81114SOL     OW45238   8.489   5.891   1.588
81114SOL    HW145239   8.505   5.983   1.566
81114SOL    HW245240   8.575   5.857   1.613
81115SOL     OW45241  12.163   2.194  14.144
81115SOL    HW145242  12.169   2.116  14.090
81115SOL    HW245243  12.227   2.255  14.106
81116SOL     OW45244   3.550  13.318  12.597
81116SOL    HW145245   3.605  13.374  12.543
81116SOL    HW245246   3.464  13.322  12.557
81117SOL     OW45247   8.777   6.024   4.865
81117SOL    HW145248   8.805   5.971   4.790
81117SOL    HW245249   8.810   5.977   4.941
81118SOL     OW45250   2.026   7.297   3.136
81118SOL    HW145251   1.952   7.264   3.187
81118SOL    HW245252   1.989   7.315   3.049
81119SOL     OW45253   0.395   8.729  14.490
81119SOL    HW145254   0.470   8.669  14.481
81119SOL    HW245255   0.345   8.694  14.564
81120SOL     OW45256  12.036  13.390   6.520
81120SOL    HW145257  12.118  13.341   6.532
81120SOL    HW245258  12.014  13.377   6.427
81121SOL     OW45259   8.731  13.222   2.953
81121SOL    HW145260   8.643  13.226   2.915
81121SOL    HW245261   8.719  13.240   3.046
81122SOL     OW45262  14.031  12.334   6.664
81122SOL    HW145263  14.098  12.267   6.652
81122SOL    HW245264  13.951  12.294   6.630
81123SOL     OW45265   8.350   1.542   1.074
81123SOL    HW145266   8.382   1.542   0.984
81123SOL    HW245267   8.300   1.623   1.082
81124SOL     OW45268   6.735  10.158   5.486
81124SOL    HW145269   6.805  10.163   5.422
81124SOL    HW245270   6.710  10.249   5.502
81125SOL     OW45271   0.338  12.779  10.380
81125SOL    HW145272   0.420  12.802  10.336
81125SOL    HW245273   0.346  12.818  10.467
81126SOL     OW45274  10.104   1.540   5.216
81126SOL    HW145275  10.144   1.579   5.138
81126SOL    HW245276  10.178   1.522   5.274
81127SOL     OW45277   5.716  11.904  10.096
81127SOL    HW145278   5.793  11.858  10.063
81127SOL    HW245279   5.724  11.993  10.060
81128SOL     OW45280   9.080   8.393   8.218
81128SOL    HW145281   9.175   8.399   8.229
81128SOL    HW245282   9.051   8.484   8.212
81129SOL     OW45283  14.598   8.359   4.721
81129SOL    HW145284  14.622   8.277   4.765
81129SOL    HW245285  14.550   8.409   4.788
81130SOL     OW45286  12.630   0.154   5.667
81130SOL    HW145287  12.616   0.178   5.575
81130SOL    HW245288  12.543   0.129   5.698
81131SOL     OW45289  12.091   7.750  10.910
81131SOL    HW145290  12.110   7.803  10.988
81131SOL    HW245291  12.008   7.707  10.930
81132SOL     OW45292  14.306   8.572  10.043
81132SOL    HW145293  14.378   8.568   9.980
81132SOL    HW245294  14.344   8.614  10.120
81133SOL     OW45295  12.244   7.742  13.305
81133SOL    HW145296  12.315   7.806  13.301
81133SOL    HW245297  12.251   7.693  13.223
81134SOL     OW45298   8.681  11.123   0.917
81134SOL    HW145299   8.746  11.187   0.948
81134SOL    HW245300   8.708  11.040   0.955
81135SOL     OW45301  13.702  13.141  10.282
81135SOL    HW145302  13.736  13.091  10.357
81135SOL    HW245303  13.614  13.168  10.309
81136SOL     OW45304   3.574  14.283   3.231
81136SOL    HW145305   3.511  14.221   3.193
81136SOL    HW245306   3.541  14.369   3.206
81137SOL     OW45307   2.810   3.030   7.493
81137SOL    HW145308   2.828   3.087   7.567
81137SOL    HW245309   2.719   3.049   7.469
81138SOL     OW45310  12.805   2.162   9.825
81138SOL    HW145311  12.782   2.251   9.850
81138SOL    HW245312  12.876   2.173   9.762
81139SOL     OW45313   6.064   8.604   1.509
81139SOL    HW145314   5.996   8.546   1.544
81139SOL    HW245315   6.065   8.679   1.568
81140SOL     OW45316   3.446  11.173   6.104
81140SOL    HW145317   3.504  11.124   6.045
81140SOL    HW245318   3.501  11.243   6.139
81141SOL     OW45319  12.945  12.984   7.724
81141SOL    HW145320  12.906  12.943   7.802
81141SOL    HW245321  13.021  13.031   7.758
81142SOL     OW45322  12.511  11.268  14.502
81142SOL    HW145323  12.573  11.213  14.454
81142SOL    HW245324  12.506  11.228  14.589
81143SOL     OW45325   4.030   9.004   5.785
81143SOL    HW145326   4.045   9.075   5.722
81143SOL    HW245327   4.067   9.037   5.867
81144SOL     OW45328  14.240   7.553   9.220
81144SOL    HW145329  14.221   7.466   9.184
81144SOL    HW245330  14.156   7.583   9.255
81145SOL     OW45331  14.577   3.114   3.484
81145SOL    HW145332  14.580   3.183   3.550
81145SOL    HW245333  14.648   3.135   3.424
81146SOL     OW45334  14.187   0.675   6.416
81146SOL    HW145335  14.150   0.596   6.454
81146SOL    HW245336  14.219   0.647   6.330
81147SOL     OW45337   9.169   7.575  10.012
81147SOL    HW145338   9.115   7.650   9.989
81147SOL    HW245339   9.192   7.590  10.104
81148SOL     OW45340   3.335   5.467   1.645
81148SOL    HW145341   3.408   5.448   1.587
81148SOL    HW245342   3.368   5.535   1.704
81149SOL     OW45343   5.218   5.067   9.972
81149SOL    HW145344   5.310   5.055   9.948
81149SOL    HW245345   5.213   5.038  10.063
81150SOL     OW45346   8.784  13.290  10.237
81150SOL    HW145347   8.739  13.268  10.156
81150SOL    HW245348   8.718  13.336  10.289
81151SOL     OW45349   1.369   3.112   3.586
81151SOL    HW145350   1.309   3.183   3.564
81151SOL    HW245351   1.456   3.146   3.563
81152SOL     OW45352  12.027  10.364  10.338
81152SOL    HW145353  12.047  10.394  10.249
81152SOL    HW245354  11.944  10.317  10.329
81153SOL     OW45355   6.954   3.635  13.792
81153SOL    HW145356   7.021   3.689  13.748
81153SOL    HW245357   6.874   3.687  13.785
81154SOL     OW45358  12.119  12.114  13.589
81154SOL    HW145359  12.206  12.112  13.549
81154SOL    HW245360  12.063  12.157  13.523
81155SOL     OW45361  13.245   1.775   8.990
81155SOL    HW145362  13.243   1.734   9.076
81155SOL    HW245363  13.160   1.754   8.951
81156SOL     OW45364   3.109  12.645  12.037
81156SOL    HW145365   3.023  12.675  12.009
81156SOL    HW245366   3.154  12.724  12.066
81157SOL     OW45367  11.295   2.088   8.115
81157SOL    HW145368  11.337   2.075   8.201
81157SOL    HW245369  11.315   2.179   8.093
81158SOL     OW45370   4.100  12.953  11.486
81158SOL    HW145371   4.063  12.929  11.572
81158SOL    HW245372   4.125  12.869  11.447
81159SOL     OW45373   3.423   4.437   0.507
81159SOL    HW145374   3.343   4.384   0.514
81159SOL    HW245375   3.397   4.524   0.538
81160SOL     OW45376  12.002   8.336   1.462
81160SOL    HW145377  11.919   8.292   1.447
81160SOL    HW245378  12.018   8.326   1.556
81161SOL     OW45379  13.778   1.400  11.981
81161SOL    HW145380  13.830   1.394  11.900
81161SOL    HW245381  13.727   1.319  11.983
81162SOL     OW45382  10.881   1.747   4.506
81162SOL    HW145383  10.912   1.687   4.438
81162SOL    HW245384  10.822   1.807   4.460
81163SOL     OW45385   5.552  14.011  13.180
81163SOL    HW145386   5.490  14.084  13.183
81163SOL    HW245387   5.620  14.035  13.242
81164SOL     OW45388   6.715  12.266   5.549
81164SOL    HW145389   6.693  12.205   5.620
81164SOL    HW245390   6.656  12.340   5.562
81165SOL     OW45391   6.398   8.878   0.243
81165SOL    HW145392   6.327   8.894   0.305
81165SOL    HW245393   6.462   8.948   0.260
81166SOL     OW45394   7.452   6.570   1.558
81166SOL    HW145395   7.404   6.516   1.496
81166SOL    HW245396   7.515   6.618   1.504
81167SOL     OW45397  11.382  11.280   8.592
81167SOL    HW145398  11.314  11.348   8.593
81167SOL    HW245399  11.340  11.204   8.631
81168SOL     OW45400  12.220   7.632   8.169
81168SOL    HW145401  12.195   7.616   8.079
81168SOL    HW245402  12.277   7.709   8.165
81169SOL     OW45403   7.731   5.185   4.877
81169SOL    HW145404   7.782   5.138   4.811
81169SOL    HW245405   7.691   5.257   4.829
81170SOL     OW45406   2.802  12.437   0.131
81170SOL    HW145407   2.854  12.483   0.065
81170SOL    HW245408   2.774  12.357   0.087
81171SOL     OW45409   0.839   0.882  12.971
81171SOL    HW145410   0.919   0.830  12.970
81171SOL    HW245411   0.836   0.920  13.059
81172SOL     OW45412  10.603  10.089   2.279
81172SOL    HW145413  10.563  10.113   2.196
81172SOL    HW245414  10.680  10.145   2.286
81173SOL     OW45415   1.746   6.097   9.100
81173SOL    HW145416   1.823   6.044   9.123
81173SOL    HW245417   1.782   6.166   9.044
81174SOL     OW45418   5.795  14.678  11.384
81174SOL    HW145419   5.853  14.676  11.308
81174SOL    HW245420   5.707  14.675  11.347
81175SOL     OW45421   3.255   0.548   8.475
81175SOL    HW145422   3.295   0.515   8.394
81175SOL    HW245423   3.192   0.614   8.445
81176SOL     OW45424  13.697   3.766   3.236
81176SOL    HW145425  13.774   3.823   3.229
81176SOL    HW245426  13.665   3.782   3.325
81177SOL     OW45427  12.913   4.246   9.842
81177SOL    HW145428  12.921   4.315   9.776
81177SOL    HW245429  12.845   4.187   9.808
81178SOL     OW45430   5.161   4.860   2.001
81178SOL    HW145431   5.179   4.914   2.078
81178SOL    HW245432   5.246   4.849   1.959
81179SOL     OW45433   4.917  10.456   3.491
81179SOL    HW145434   4.840  10.404   3.513
81179SOL    HW245435   4.983  10.430   3.555
81180SOL     OW45436  10.476  11.721   6.844
81180SOL    HW145437  10.430  11.787   6.793
81180SOL    HW245438  10.501  11.654   6.780
81181SOL     OW45439   5.587  10.909   9.012
81181SOL    HW145440   5.670  10.862   9.015
81181SOL    HW245441   5.531  10.856   8.955
81182SOL     OW45442   8.021  11.778  12.115
81182SOL    HW145443   8.111  11.761  12.142
81182SOL    HW245444   7.967  11.730  12.177
81183SOL     OW45445   8.956   5.720  13.240
81183SOL    HW145446   9.024   5.662  13.204
81183SOL    HW245447   8.946   5.691  13.331
81184SOL     OW45448  11.298   0.646  11.249
81184SOL    HW145449  11.261   0.621  11.165
81184SOL    HW245450  11.225   0.686  11.296
81185SOL     OW45451  10.017   3.786  10.279
81185SOL    HW145452  10.078   3.712  10.273
81185SOL    HW245453   9.939   3.749  10.321
81186SOL     OW45454  14.393  12.221  14.237
81186SOL    HW145455  14.441  12.223  14.320
81186SOL    HW245456  14.301  12.232  14.263
81187SOL     OW45457   2.885   2.735   1.869
81187SOL    HW145458   2.906   2.661   1.811
81187SOL    HW245459   2.969   2.761   1.906
81188SOL     OW45460  13.397   1.947  11.101
81188SOL    HW145461  13.373   2.016  11.163
81188SOL    HW245462  13.328   1.881  11.112
81189SOL     OW45463  13.770  13.584   0.077
81189SOL    HW145464  13.827  13.562   0.003
81189SOL    HW245465  13.799  13.672   0.103
81190SOL     OW45466   2.520   8.397   1.031
81190SOL    HW145467   2.461   8.472   1.023
81190SOL    HW245468   2.604   8.435   1.055
81191SOL     OW45469  11.068   6.152  10.985
81191SOL    HW145470  11.071   6.151  10.889
81191SOL    HW245471  11.154   6.185  11.011
81192SOL     OW45472   3.934   2.915  12.893
81192SOL    HW145473   3.959   2.853  12.824
81192SOL    HW245474   3.962   2.872  12.974
81193SOL     OW45475  12.771  13.975   7.232
81193SOL    HW145476  12.778  13.961   7.138
81193SOL    HW245477  12.775  14.070   7.243
81194SOL     OW45478  10.387   5.436  12.824
81194SOL    HW145479  10.416   5.355  12.782
81194SOL    HW245480  10.291   5.432  12.821
81195SOL     OW45481  12.904   1.911  10.886
81195SOL    HW145482  12.848   1.886  10.813
81195SOL    HW245483  12.849   1.968  10.940
81196SOL     OW45484   1.745   2.449  12.939
81196SOL    HW145485   1.769   2.372  12.989
81196SOL    HW245486   1.733   2.417  12.849
81197SOL     OW45487   7.470  13.869   1.865
81197SOL    HW145488   7.378  13.892   1.855
81197SOL    HW245489   7.477  13.781   1.828
81198SOL     OW45490   9.750  14.826   0.381
81198SOL    HW145491   9.676  14.785   0.426
81198SOL    HW245492   9.710  14.878   0.312
81199SOL     OW45493   1.797   5.695  14.528
81199SOL    HW145494   1.887   5.727  14.536
81199SOL    HW245495   1.806   5.603  14.504
81200SOL     OW45496   1.932   1.215  13.584
81200SOL    HW145497   1.853   1.260  13.615
81200SOL    HW245498   1.990   1.285  13.556
81201SOL     OW45499   5.792  13.109   7.021
81201SOL    HW145500   5.756  13.189   6.984
81201SOL    HW245501   5.873  13.094   6.972
81202SOL     OW45502   5.602   4.083   6.304
81202SOL    HW145503   5.611   4.174   6.277
81202SOL    HW245504   5.510   4.074   6.330
81203SOL     OW45505   6.063   4.820   7.131
81203SOL    HW145506   5.999   4.883   7.100
81203SOL    HW245507   6.139   4.872   7.155
81204SOL     OW45508   0.071  13.861  10.754
81204SOL    HW145509   0.130  13.933  10.730
81204SOL    HW245510   0.086  13.849  10.848
81205SOL     OW45511   4.011  10.295   8.420
81205SOL    HW145512   3.960  10.214   8.432
81205SOL    HW245513   4.023  10.329   8.509
81206SOL     OW45514   6.757   5.254  12.908
81206SOL    HW145515   6.792   5.299  12.986
81206SOL    HW245516   6.834   5.218  12.865
81207SOL     OW45517   3.767   5.297   3.112
81207SOL    HW145518   3.787   5.315   3.021
81207SOL    HW245519   3.809   5.368   3.161
81208SOL     OW45520   7.365  13.544  11.480
81208SOL    HW145521   7.390  13.482  11.548
81208SOL    HW245522   7.276  13.571  11.502
81209SOL     OW45523   4.233   3.778  12.271
81209SOL    HW145524   4.170   3.833  12.318
81209SOL    HW245525   4.315   3.828  12.275
81210SOL     OW45526   6.228   6.323   8.132
81210SOL    HW145527   6.193   6.410   8.151
81210SOL    HW245528   6.287   6.304   8.205
81211SOL     OW45529   7.320   6.042   4.390
81211SOL    HW145530   7.348   6.023   4.300
81211SOL    HW245531   7.279   6.129   4.384
81212SOL     OW45532   6.918  11.142   3.041
81212SOL    HW145533   6.992  11.163   2.984
81212SOL    HW245534   6.921  11.047   3.050
81213SOL     OW45535   6.764  13.184   0.531
81213SOL    HW145536   6.798  13.257   0.583
81213SOL    HW245537   6.683  13.159   0.575
81214SOL     OW45538   5.194   1.311  14.033
81214SOL    HW145539   5.114   1.363  14.030
81214SOL    HW245540   5.204   1.287  14.126
81215SOL     OW45541   8.935   3.621  12.126
81215SOL    HW145542   8.926   3.715  12.144
81215SOL    HW245543   8.961   3.617  12.034
81216SOL     OW45544  13.029   4.247   9.011
81216SOL    HW145545  13.045   4.260   9.104
81216SOL    HW245546  13.020   4.152   9.001
81217SOL     OW45547   1.984   6.141   3.522
81217SOL    HW145548   2.060   6.192   3.553
81217SOL    HW245549   1.908   6.192   3.551
81218SOL     OW45550   0.311  11.588   3.589
81218SOL    HW145551   0.267  11.562   3.670
81218SOL    HW245552   0.404  11.588   3.610
81219SOL     OW45553   2.478   8.153  11.222
81219SOL    HW145554   2.522   8.139  11.306
81219SOL    HW245555   2.548   8.172  11.160
81220SOL     OW45556   6.542   3.087   0.532
81220SOL    HW145557   6.493   3.019   0.487
81220SOL    HW245558   6.478   3.131   0.588
81221SOL     OW45559  10.014   3.040  14.561
81221SOL    HW145560  10.050   3.067  14.477
81221SOL    HW245561   9.973   2.956  14.544
81222SOL     OW45562  11.461  11.201   0.166
81222SOL    HW145563  11.432  11.292   0.164
81222SOL    HW245564  11.449  11.169   0.077
81223SOL     OW45565   6.135   6.781   7.692
81223SOL    HW145566   6.102   6.757   7.606
81223SOL    HW245567   6.199   6.713   7.713
81224SOL     OW45568   4.049   9.711   6.988
81224SOL    HW145569   4.108   9.750   7.053
81224SOL    HW245570   4.004   9.786   6.949
81225SOL     OW45571  12.534   2.812   6.731
81225SOL    HW145572  12.447   2.849   6.745
81225SOL    HW245573  12.590   2.888   6.717
81226SOL     OW45574   9.855   3.694  13.533
81226SOL    HW145575   9.799   3.765  13.503
81226SOL    HW245576   9.846   3.626  13.467
81227SOL     OW45577  14.452  12.130   6.403
81227SOL    HW145578  14.405  12.137   6.319
81227SOL    HW245579  14.525  12.071   6.384
81228SOL     OW45580  10.862   6.491   3.505
81228SOL    HW145581  10.830   6.412   3.461
81228SOL    HW245582  10.925   6.458   3.569
81229SOL     OW45583   8.585  11.422  13.406
81229SOL    HW145584   8.606  11.448  13.495
81229SOL    HW245585   8.664  11.377  13.374
81230SOL     OW45586   6.664   1.469   9.491
81230SOL    HW145587   6.714   1.546   9.466
81230SOL    HW245588   6.584   1.503   9.530
81231SOL     OW45589  12.434  14.413   5.664
81231SOL    HW145590  12.364  14.465   5.704
81231SOL    HW245591  12.448  14.453   5.578
81232SOL     OW45592   5.762  10.965   3.198
81232SOL    HW145593   5.677  11.010   3.198
81232SOL    HW245594   5.811  11.008   3.268
81233SOL     OW45595   5.332   4.717   1.071
81233SOL    HW145596   5.247   4.678   1.053
81233SOL    HW245597   5.393   4.668   1.015
81234SOL     OW45598   7.800   4.628   4.082
81234SOL    HW145599   7.821   4.717   4.052
81234SOL    HW245600   7.802   4.575   4.003
81235SOL     OW45601   5.479   6.238  13.501
81235SOL    HW145602   5.392   6.267  13.472
81235SOL    HW245603   5.490   6.279  13.587
81236SOL     OW45604   6.557   3.270   2.584
81236SOL    HW145605   6.463   3.278   2.597
81236SOL    HW245606   6.594   3.352   2.618
81237SOL     OW45607   4.065  11.591   4.401
81237SOL    HW145608   4.048  11.582   4.307
81237SOL    HW245609   3.984  11.630   4.435
81238SOL     OW45610   4.487   4.538   0.678
81238SOL    HW145611   4.420   4.474   0.655
81238SOL    HW245612   4.451   4.622   0.649
81239SOL     OW45613   6.060   2.839  14.098
81239SOL    HW145614   6.107   2.920  14.076
81239SOL    HW245615   6.102   2.771  14.047
81240SOL     OW45616  14.510   2.396   2.778
81240SOL    HW145617  14.426   2.419   2.739
81240SOL    HW245618  14.542   2.478   2.817
81241SOL     OW45619   2.690   8.645   9.153
81241SOL    HW145620   2.646   8.578   9.205
81241SOL    HW245621   2.775   8.606   9.130
81242SOL     OW45622   1.018   3.378  11.642
81242SOL    HW145623   0.927   3.354  11.656
81242SOL    HW245624   1.032   3.453  11.700
81243SOL     OW45625   8.564  13.086   7.974
81243SOL    HW145626   8.608  13.166   7.947
81243SOL    HW245627   8.573  13.027   7.899
81244SOL     OW45628   4.379  13.539   0.641
81244SOL    HW145629   4.407  13.503   0.725
81244SOL    HW245630   4.431  13.492   0.576
81245SOL     OW45631   1.863   5.165   0.350
81245SOL    HW145632   1.866   5.224   0.276
81245SOL    HW245633   1.955   5.149   0.371
81246SOL     OW45634   4.424  11.524  10.519
81246SOL    HW145635   4.357  11.462  10.490
81246SOL    HW245636   4.427  11.512  10.614
81247SOL     OW45637   4.309   2.484   6.887
81247SOL    HW145638   4.329   2.443   6.971
81247SOL    HW245639   4.215   2.476   6.877
81248SOL     OW45640   1.876   1.504  14.612
81248SOL    HW145641   1.944   1.534  14.673
81248SOL    HW245642   1.868   1.575  14.549
81249SOL     OW45643  14.747  10.490   4.779
81249SOL    HW145644  14.699  10.548   4.720
81249SOL    HW245645  14.729  10.526   4.866
81250SOL     OW45646   2.708   5.807   1.136
81250SOL    HW145647   2.747   5.720   1.145
81250SOL    HW245648   2.715   5.826   1.042
81251SOL     OW45649   2.632  13.108   8.967
81251SOL    HW145650   2.642  13.098   8.872
81251SOL    HW245651   2.666  13.026   9.003
81252SOL     OW45652   8.630   3.988   3.994
81252SOL    HW145653   8.674   4.041   4.060
81252SOL    HW245654   8.685   3.994   3.917
81253SOL     OW45655   2.003   0.363  13.106
81253SOL    HW145656   1.963   0.283  13.072
81253SOL    HW245657   1.977   0.366  13.198
81254SOL     OW45658   6.816   6.778  14.783
81254SOL    HW145659   6.772   6.693  14.790
81254SOL    HW245660   6.831   6.790  14.689
81255SOL     OW45661   4.386   3.774   1.536
81255SOL    HW145662   4.373   3.776   1.441
81255SOL    HW245663   4.438   3.852   1.555
81256SOL     OW45664   3.352  13.301  13.326
81256SOL    HW145665   3.381  13.221  13.370
81256SOL    HW245666   3.406  13.370  13.363
81257SOL     OW45667   0.338  14.394   0.493
81257SOL    HW145668   0.307  14.413   0.405
81257SOL    HW245669   0.382  14.309   0.486
81258SOL     OW45670   6.363  13.323   5.688
81258SOL    HW145671   6.376  13.367   5.604
81258SOL    HW245672   6.419  13.245   5.684
81259SOL     OW45673   2.674   3.296   2.664
81259SOL    HW145674   2.747   3.356   2.674
81259SOL    HW245675   2.713   3.215   2.632
81260SOL     OW45676  10.939   4.558   8.143
81260SOL    HW145677  10.970   4.640   8.104
81260SOL    HW245678  11.011   4.496   8.129
81261SOL     OW45679   1.386   0.162   9.624
81261SOL    HW145680   1.460   0.128   9.573
81261SOL    HW245681   1.396   0.122   9.710
81262SOL     OW45682  11.974   2.408   0.763
81262SOL    HW145683  11.977   2.503   0.755
81262SOL    HW245684  11.895   2.391   0.815
81263SOL     OW45685   8.952   8.137   3.352
81263SOL    HW145686   8.893   8.205   3.384
81263SOL    HW245687   8.901   8.056   3.359
81264SOL     OW45688  13.066  14.102   0.470
81264SOL    HW145689  13.133  14.039   0.495
81264SOL    HW245690  13.104  14.187   0.492
81265SOL     OW45691   0.922   5.400   3.148
81265SOL    HW145692   0.957   5.409   3.237
81265SOL    HW245693   0.983   5.342   3.104
81266SOL     OW45694   1.887  10.515   9.579
81266SOL    HW145695   1.814  10.456   9.593
81266SOL    HW245696   1.854  10.601   9.605
81267SOL     OW45697   0.438   3.852   6.891
81267SOL    HW145698   0.403   3.845   6.980
81267SOL    HW245699   0.506   3.920   6.898
81268SOL     OW45700   6.103  10.786   1.945
81268SOL    HW145701   6.089  10.693   1.959
81268SOL    HW245702   6.125  10.820   2.033
81269SOL     OW45703  11.787  12.781   2.320
81269SOL    HW145704  11.864  12.813   2.368
81269SOL    HW245705  11.788  12.686   2.332
81270SOL     OW45706   0.064  12.136   2.229
81270SOL    HW145707  14.866  12.116   2.181
81270SOL    HW245708   0.117  12.057   2.220
81271SOL     OW45709   2.801   8.009  13.202
81271SOL    HW145710   2.889   8.038  13.177
81271SOL    HW245711   2.746   8.085  13.189
81272SOL     OW45712   5.956   7.085  10.496
81272SOL    HW145713   6.037   7.034  10.487
81272SOL    HW245714   5.886   7.020  10.491
81273SOL     OW45715   3.189   6.033  14.729
81273SOL    HW145716   3.111   6.053  14.780
81273SOL    HW245717   3.158   5.975  14.659
81274SOL     OW45718  14.528   3.094  11.909
81274SOL    HW145719  14.599   3.145  11.870
81274SOL    HW245720  14.503   3.143  11.987
81275SOL     OW45721  13.369  10.621   3.404
81275SOL    HW145722  13.299  10.563   3.375
81275SOL    HW245723  13.445  10.563   3.414
81276SOL     OW45724   0.911   2.980  10.652
81276SOL    HW145725   0.951   3.064  10.630
81276SOL    HW245726   0.882   2.945  10.568
81277SOL     OW45727   5.042   5.836   7.508
81277SOL    HW145728   5.131   5.850   7.475
81277SOL    HW245729   4.985   5.856   7.433
81278SOL     OW45730   9.901  10.726   7.743
81278SOL    HW145731   9.867  10.806   7.702
81278SOL    HW245732   9.872  10.731   7.834
81279SOL     OW45733  14.136   7.731   8.730
81279SOL    HW145734  14.158   7.821   8.703
81279SOL    HW245735  14.090   7.742   8.813
81280SOL     OW45736   1.056   0.335   9.489
81280SOL    HW145737   1.147   0.356   9.469
81280SOL    HW245738   1.048   0.348   9.583
81281SOL     OW45739   0.319   9.555  14.395
81281SOL    HW145740   0.250   9.497  14.364
81281SOL    HW245741   0.348   9.515  14.478
81282SOL     OW45742  14.639  14.312  11.822
81282SOL    HW145743  14.619  14.279  11.909
81282SOL    HW245744  14.616  14.405  11.825
81283SOL     OW45745   5.451  12.418   1.509
81283SOL    HW145746   5.405  12.425   1.425
81283SOL    HW245747   5.520  12.354   1.492
81284SOL     OW45748   2.371   0.765   8.089
81284SOL    HW145749   2.285   0.804   8.101
81284SOL    HW245750   2.407   0.809   8.011
81285SOL     OW45751   2.520   6.581  11.948
81285SOL    HW145752   2.475   6.590  12.032
81285SOL    HW245753   2.606   6.545  11.970
81286SOL     OW45754  11.203   1.698   4.098
81286SOL    HW145755  11.124   1.734   4.059
81286SOL    HW245756  11.259   1.774   4.113
81287SOL     OW45757  14.279   7.621   3.032
81287SOL    HW145758  14.287   7.640   3.126
81287SOL    HW245759  14.260   7.706   2.992
81288SOL     OW45760   5.983   6.126  12.712
81288SOL    HW145761   5.909   6.117  12.772
81288SOL    HW245762   5.944   6.131  12.625
81289SOL     OW45763   8.231   7.342  13.526
81289SOL    HW145764   8.267   7.328  13.439
81289SOL    HW245765   8.141   7.373  13.511
81290SOL     OW45766  12.603  13.791   5.907
81290SOL    HW145767  12.587  13.747   5.824
81290SOL    HW245768  12.600  13.721   5.972
81291SOL     OW45769   4.151   6.590   9.600
81291SOL    HW145770   4.195   6.587   9.515
81291SOL    HW245771   4.066   6.549   9.584
81292SOL     OW45772   2.407   8.384   7.747
81292SOL    HW145773   2.319   8.366   7.781
81292SOL    HW245774   2.454   8.422   7.820
81293SOL     OW45775  13.443  10.337  11.529
81293SOL    HW145776  13.450  10.247  11.561
81293SOL    HW245777  13.455  10.391  11.607
81294SOL     OW45778   5.542   6.112   1.383
81294SOL    HW145779   5.481   6.158   1.325
81294SOL    HW245780   5.492   6.095   1.462
81295SOL     OW45781  14.355  14.171  13.564
81295SOL    HW145782  14.409  14.098  13.533
81295SOL    HW245783  14.409  14.214  13.631
81296SOL     OW45784  11.243   9.599   6.487
81296SOL    HW145785  11.148   9.602   6.485
81296SOL    HW245786  11.267   9.546   6.410
81297SOL     OW45787  14.283   4.153   0.105
81297SOL    HW145788  14.371   4.134   0.072
81297SOL    HW245789  14.228   4.084   0.065
81298SOL     OW45790   8.466  12.589   8.506
81298SOL    HW145791   8.485  12.504   8.466
81298SOL    HW245792   8.425  12.640   8.436
81299SOL     OW45793   6.085  13.723   5.065
81299SOL    HW145794   6.107  13.630   5.057
81299SOL    HW245795   6.157  13.768   5.021
81300SOL     OW45796  13.227  13.149  10.360
81300SOL    HW145797  13.169  13.073  10.362
81300SOL    HW245798  13.207  13.197  10.440
81301SOL     OW45799   9.017   4.873   2.516
81301SOL    HW145800   9.006   4.836   2.604
81301SOL    HW245801   9.048   4.799   2.463
81302SOL     OW45802   2.103   4.792  10.955
81302SOL    HW145803   2.052   4.766  10.879
81302SOL    HW245804   2.043   4.844  11.008
81303SOL     OW45805   6.884   0.237   8.349
81303SOL    HW145806   6.921   0.163   8.300
81303SOL    HW245807   6.858   0.199   8.433
81304SOL     OW45808   7.770  12.378   8.730
81304SOL    HW145809   7.816  12.386   8.814
81304SOL    HW245810   7.775  12.465   8.691
81305SOL     OW45811   8.387   6.810  11.854
81305SOL    HW145812   8.380   6.717  11.833
81305SOL    HW245813   8.427   6.849  11.776
81306SOL     OW45814  14.264   1.697   5.357
81306SOL    HW145815  14.208   1.622   5.374
81306SOL    HW245816  14.313   1.674   5.278
81307SOL     OW45817   7.385  13.325  14.218
81307SOL    HW145818   7.340  13.254  14.173
81307SOL    HW245819   7.474  13.293  14.231
81308SOL     OW45820  13.191   2.135   4.131
81308SOL    HW145821  13.130   2.201   4.164
81308SOL    HW245822  13.198   2.153   4.038
81309SOL     OW45823  10.513   8.800   9.349
81309SOL    HW145824  10.475   8.725   9.304
81309SOL    HW245825  10.541   8.859   9.278
81310SOL     OW45826   9.004   3.396  10.722
81310SOL    HW145827   9.053   3.410  10.641
81310SOL    HW245828   9.028   3.307  10.749
81311SOL     OW45829   6.348  13.570  14.604
81311SOL    HW145830   6.281  13.628  14.566
81311SOL    HW245831   6.299  13.514  14.664
81312SOL     OW45832  10.146   1.437  14.040
81312SOL    HW145833  10.140   1.480  14.125
81312SOL    HW245834  10.239   1.413  14.032
81313SOL     OW45835  10.918  10.245   7.660
81313SOL    HW145836  10.940  10.264   7.751
81313SOL    HW245837  10.998  10.207   7.623
81314SOL     OW45838   0.152   5.814  11.434
81314SOL    HW145839   0.115   5.894  11.396
81314SOL    HW245840   0.089   5.787  11.500
81315SOL     OW45841   0.084   7.471   6.329
81315SOL    HW145842   0.173   7.444   6.353
81315SOL    HW245843   0.089   7.490   6.235
81316SOL     OW45844   3.067   4.259   6.855
81316SOL    HW145845   3.011   4.274   6.931
81316SOL    HW245846   3.082   4.165   6.854
81317SOL     OW45847   5.172   8.453  10.946
81317SOL    HW145848   5.226   8.408  11.011
81317SOL    HW245849   5.222   8.532  10.924
81318SOL     OW45850   8.730  11.755   9.757
81318SOL    HW145851   8.798  11.742   9.822
81318SOL    HW245852   8.699  11.844   9.771
81319SOL     OW45853  14.223  12.673  11.443
81319SOL    HW145854  14.196  12.757  11.482
81319SOL    HW245855  14.142  12.639  11.404
81320SOL     OW45856   2.452   5.588   3.431
81320SOL    HW145857   2.411   5.672   3.412
81320SOL    HW245858   2.530   5.610   3.482
81321SOL     OW45859   2.404  12.761   5.716
81321SOL    HW145860   2.375  12.757   5.807
81321SOL    HW245861   2.375  12.679   5.677
81322SOL     OW45862   3.212   3.802  12.541
81322SOL    HW145863   3.243   3.716  12.570
81322SOL    HW245864   3.135   3.820  12.595
81323SOL     OW45865  13.367   4.782  13.466
81323SOL    HW145866  13.333   4.869  13.445
81323SOL    HW245867  13.290   4.725  13.463
81324SOL     OW45868  10.477  11.681   0.664
81324SOL    HW145869  10.410  11.725   0.718
81324SOL    HW245870  10.439  11.596   0.643
81325SOL     OW45871   2.294   1.968  12.911
81325SOL    HW145872   2.380   1.929  12.900
81325SOL    HW245873   2.232   1.899  12.887
81326SOL     OW45874   8.751   1.981   2.082
81326SOL    HW145875   8.797   1.922   2.022
81326SOL    HW245876   8.821   2.021   2.134
81327SOL     OW45877   5.346   1.013   6.949
81327SOL    HW145878   5.427   1.035   6.904
81327SOL    HW245879   5.279   1.012   6.881
81328SOL     OW45880   9.352   2.210   7.686
81328SOL    HW145881   9.272   2.254   7.713
81328SOL    HW245882   9.351   2.213   7.590
81329SOL     OW45883  13.749   3.695   4.740
81329SOL    HW145884  13.793   3.675   4.823
81329SOL    HW245885  13.718   3.611   4.708
81330SOL     OW45886   3.673  14.144  13.032
81330SOL    HW145887   3.750  14.110  13.077
81330SOL    HW245888   3.701  14.230  12.999
81331SOL     OW45889   4.924   0.752  11.143
81331SOL    HW145890   5.017   0.748  11.122
81331SOL    HW245891   4.903   0.666  11.179
81332SOL     OW45892   2.519  13.903  11.949
81332SOL    HW145893   2.529  13.954  12.029
81332SOL    HW245894   2.608  13.898  11.912
81333SOL     OW45895  11.797  14.425   9.383
81333SOL    HW145896  11.879  14.469   9.405
81333SOL    HW245897  11.809  14.335   9.414
81334SOL     OW45898   9.428   0.491  13.846
81334SOL    HW145899   9.497   0.525  13.789
81334SOL    HW245900   9.419   0.399  13.821
81335SOL     OW45901   7.732   9.702   9.848
81335SOL    HW145902   7.827   9.697   9.839
81335SOL    HW245903   7.711   9.642   9.920
81336SOL     OW45904  11.339  13.408   5.209
81336SOL    HW145905  11.310  13.476   5.269
81336SOL    HW245906  11.429  13.432   5.187
81337SOL     OW45907  14.063  11.438  11.193
81337SOL    HW145908  13.968  11.425  11.193
81337SOL    HW245909  14.090  11.415  11.104
81338SOL     OW45910   1.390  12.577   1.313
81338SOL    HW145911   1.452  12.640   1.276
81338SOL    HW245912   1.306  12.600   1.273
81339SOL     OW45913   7.081   1.414  12.748
81339SOL    HW145914   6.987   1.418  12.766
81339SOL    HW245915   7.089   1.350  12.677
81340SOL     OW45916   2.252  13.498   1.222
81340SOL    HW145917   2.260  13.585   1.183
81340SOL    HW245918   2.299  13.504   1.305
81341SOL     OW45919   8.603   8.082   5.473
81341SOL    HW145920   8.644   8.166   5.494
81341SOL    HW245921   8.509   8.100   5.478
81342SOL     OW45922   3.973   7.838  13.547
81342SOL    HW145923   3.997   7.803  13.461
81342SOL    HW245924   4.025   7.786  13.609
81343SOL     OW45925   7.109   6.713   8.259
81343SOL    HW145926   7.019   6.696   8.287
81343SOL    HW245927   7.146   6.767   8.328
81344SOL     OW45928   9.642   6.636  11.753
81344SOL    HW145929   9.695   6.710  11.782
81344SOL    HW245930   9.556   6.650  11.794
81345SOL     OW45931   9.843   4.735  13.935
81345SOL    HW145932   9.914   4.731  13.999
81345SOL    HW245933   9.865   4.810  13.880
81346SOL     OW45934   3.853   7.024  13.961
81346SOL    HW145935   3.877   7.109  13.997
81346SOL    HW245936   3.885   7.027  13.870
81347SOL     OW45937   8.296   6.353   5.792
81347SOL    HW145938   8.328   6.392   5.874
81347SOL    HW245939   8.309   6.421   5.727
81348SOL     OW45940   6.552   9.284   5.853
81348SOL    HW145941   6.627   9.234   5.884
81348SOL    HW245942   6.513   9.229   5.785
81349SOL     OW45943  11.918  11.406   8.037
81349SOL    HW145944  11.917  11.487   7.985
81349SOL    HW245945  11.936  11.435   8.126
81350SOL     OW45946   4.999  11.261   5.112
81350SOL    HW145947   4.955  11.189   5.157
81350SOL    HW245948   5.076  11.221   5.072
81351SOL     OW45949   6.431   9.118   5.661
81351SOL    HW145950   6.411   9.025   5.647
81351SOL    HW245951   6.359   9.165   5.621
81352SOL     OW45952  12.911   1.011  14.190
81352SOL    HW145953  12.842   1.034  14.253
81352SOL    HW245954  12.907   1.080  14.124
81353SOL     OW45955   8.981   3.800   2.969
81353SOL    HW145956   9.021   3.852   3.039
81353SOL    HW245957   9.031   3.823   2.890
81354SOL     OW45958   9.210   7.620   8.203
81354SOL    HW145959   9.153   7.588   8.133
81354SOL    HW245960   9.239   7.707   8.173
81355SOL     OW45961   1.215  12.879   0.990
81355SOL    HW145962   1.283  12.847   1.049
81355SOL    HW245963   1.202  12.971   1.016
81356SOL     OW45964  14.363   3.107   8.219
81356SOL    HW145965  14.293   3.171   8.228
81356SOL    HW245966  14.364   3.085   8.126
81357SOL     OW45967  11.829  14.259   7.313
81357SOL    HW145968  11.917  14.255   7.276
81357SOL    HW245969  11.802  14.350   7.301
81358SOL     OW45970   9.503   2.526   2.959
81358SOL    HW145971   9.588   2.489   2.982
81358SOL    HW245972   9.519   2.621   2.953
81359SOL     OW45973   4.470  12.591   6.179
81359SOL    HW145974   4.421  12.663   6.218
81359SOL    HW245975   4.408  12.548   6.121
81360SOL     OW45976   3.615   4.685  12.253
81360SOL    HW145977   3.556   4.617  12.284
81360SOL    HW245978   3.700   4.661  12.290
81361SOL     OW45979   0.349   6.627   3.498
81361SOL    HW145980   0.266   6.668   3.525
81361SOL    HW245981   0.323   6.541   3.465
81362SOL     OW45982   8.471   2.600  14.435
81362SOL    HW145983   8.556   2.613  14.392
81362SOL    HW245984   8.449   2.686  14.471
81363SOL     OW45985  10.895   4.092   8.116
81363SOL    HW145986  10.893   4.156   8.045
81363SOL    HW245987  10.848   4.134   8.188
81364SOL     OW45988   6.462   9.629   6.363
81364SOL    HW145989   6.520   9.564   6.402
81364SOL    HW245990   6.470   9.616   6.269
81365SOL     OW45991   8.758   5.409   3.100
81365SOL    HW145992   8.683   5.358   3.070
81365SOL    HW245993   8.831   5.347   3.099
81366SOL     OW45994   9.025  10.953   4.104
81366SOL    HW145995   9.054  11.004   4.180
81366SOL    HW245996   8.941  10.914   4.131
81367SOL     OW45997   1.984   8.313   8.962
81367SOL    HW145998   1.976   8.233   9.014
81367SOL    HW245999   2.037   8.372   9.016
81368SOL     OW46000  13.540   4.815   1.399
81368SOL    HW146001  13.493   4.732   1.388
81368SOL    HW246002  13.486   4.865   1.460
81369SOL     OW46003   2.191   8.417   0.994
81369SOL    HW146004   2.260   8.470   1.032
81369SOL    HW246005   2.171   8.460   0.911
81370SOL     OW46006   6.402  11.123   0.450
81370SOL    HW146007   6.413  11.218   0.437
81370SOL    HW246008   6.363  11.092   0.368
81371SOL     OW46009  10.214   1.033   6.906
81371SOL    HW146010  10.132   0.984   6.920
81371SOL    HW246011  10.229   1.027   6.812
81372SOL     OW46012  14.340   0.365   2.013
81372SOL    HW146013  14.277   0.377   2.084
81372SOL    HW246014  14.304   0.415   1.940
81373SOL     OW46015  11.041   8.012   0.160
81373SOL    HW146016  11.063   8.104   0.176
81373SOL    HW246017  11.057   7.999   0.067
81374SOL     OW46018   6.182  14.795   0.672
81374SOL    HW146019   6.132  14.841   0.739
81374SOL    HW246020   6.237  14.863   0.632
81375SOL     OW46021   9.427   4.846   7.287
81375SOL    HW146022   9.448   4.925   7.238
81375SOL    HW246023   9.336   4.859   7.315
81376SOL     OW46024   4.469   4.714   2.917
81376SOL    HW146025   4.537   4.716   2.849
81376SOL    HW246026   4.465   4.804   2.949
81377SOL     OW46027   8.188   8.532   0.677
81377SOL    HW146028   8.251   8.568   0.739
81377SOL    HW246029   8.110   8.515   0.729
81378SOL     OW46030  11.800   4.346  10.332
81378SOL    HW146031  11.833   4.378  10.248
81378SOL    HW246032  11.811   4.420  10.392
81379SOL     OW46033  13.747   1.879   8.179
81379SOL    HW146034  13.798   1.829   8.243
81379SOL    HW246035  13.810   1.942   8.142
81380SOL     OW46036   9.600  14.744   3.220
81380SOL    HW146037   9.656  14.811   3.182
81380SOL    HW246038   9.553  14.789   3.290
81381SOL     OW46039  10.083  11.769   5.579
81381SOL    HW146040  10.148  11.826   5.618
81381SOL    HW246041  10.132  11.717   5.514
81382SOL     OW46042   5.864  12.519  11.262
81382SOL    HW146043   5.854  12.518  11.357
81382SOL    HW246044   5.915  12.440  11.242
81383SOL     OW46045   2.386   6.113   2.113
81383SOL    HW146046   2.435   6.184   2.071
81383SOL    HW246047   2.439   6.035   2.094
81384SOL     OW46048   1.593  14.178   0.028
81384SOL    HW146049   1.514  14.221  14.879
81384SOL    HW246050   1.585  14.087  14.882
81385SOL     OW46051   4.549  12.857   9.098
81385SOL    HW146052   4.471  12.903   9.130
81385SOL    HW246053   4.596  12.833   9.177
81386SOL     OW46054   3.479   9.569   2.646
81386SOL    HW146055   3.453   9.593   2.735
81386SOL    HW246056   3.396   9.566   2.597
81387SOL     OW46057   2.196  14.341  14.308
81387SOL    HW146058   2.176  14.247  14.315
81387SOL    HW246059   2.111  14.384  14.319
81388SOL     OW46060   7.031   6.254   9.671
81388SOL    HW146061   7.067   6.174   9.710
81388SOL    HW246062   7.064   6.325   9.726
81389SOL     OW46063   3.590  13.423  14.199
81389SOL    HW146064   3.634  13.484  14.139
81389SOL    HW246065   3.650  13.416  14.273
81390SOL     OW46066  14.280  12.291   9.204
81390SOL    HW146067  14.321  12.220   9.254
81390SOL    HW246068  14.322  12.370   9.236
81391SOL     OW46069  10.651  14.067   9.675
81391SOL    HW146070  10.573  14.041   9.724
81391SOL    HW246071  10.708  13.990   9.677
81392SOL     OW46072   0.974   5.952   6.948
81392SOL    HW146073   0.904   6.007   6.984
81392SOL    HW246074   1.041   5.951   7.016
81393SOL     OW46075   4.369   1.944   7.214
81393SOL    HW146076   4.370   1.850   7.195
81393SOL    HW246077   4.334   1.951   7.303
81394SOL     OW46078   2.807   6.706   4.234
81394SOL    HW146079   2.788   6.705   4.140
81394SOL    HW246080   2.874   6.774   4.244
81395SOL     OW46081  10.584   6.457   5.022
81395SOL    HW146082  10.545   6.533   5.065
81395SOL    HW246083  10.669   6.489   4.991
81396SOL     OW46084   0.698   5.419   7.082
81396SOL    HW146085   0.758   5.491   7.101
81396SOL    HW246086   0.624   5.461   7.038
81397SOL     OW46087   4.340   1.074   3.715
81397SOL    HW146088   4.433   1.085   3.696
81397SOL    HW246089   4.332   0.982   3.741
81398SOL     OW46090  12.555  11.027   5.011
81398SOL    HW146091  12.638  11.071   5.030
81398SOL    HW246092  12.573  10.976   4.931
81399SOL     OW46093   5.590  10.705   3.665
81399SOL    HW146094   5.540  10.783   3.642
81399SOL    HW246095   5.586  10.650   3.587
81400SOL     OW46096   1.694   3.962  10.616
81400SOL    HW146097   1.686   4.058  10.616
81400SOL    HW246098   1.613   3.932  10.574
81401SOL     OW46099   2.360  11.339   4.039
81401SOL    HW146100   2.443  11.304   4.007
81401SOL    HW246101   2.353  11.426   3.999
81402SOL     OW46102  11.645   5.149   7.508
81402SOL    HW146103  11.621   5.056   7.511
81402SOL    HW246104  11.595   5.184   7.434
81403SOL     OW46105   8.031  14.489  13.434
81403SOL    HW146106   7.977  14.497  13.355
81403SOL    HW246107   7.977  14.440  13.496
81404SOL     OW46108   3.209   3.509   0.678
81404SOL    HW146109   3.200   3.427   0.728
81404SOL    HW246110   3.140   3.505   0.613
81405SOL     OW46111  11.293  13.691   9.147
81405SOL    HW146112  11.270  13.600   9.131
81405SOL    HW246113  11.388  13.691   9.154
81406SOL     OW46114   1.005   2.776   1.402
81406SOL    HW146115   1.063   2.713   1.359
81406SOL    HW246116   1.065   2.837   1.446
81407SOL     OW46117   6.802  12.294  11.578
81407SOL    HW146118   6.813  12.204  11.608
81407SOL    HW246119   6.821  12.348  11.654
81408SOL     OW46120  13.213   1.697   7.526
81408SOL    HW146121  13.169   1.613   7.518
81408SOL    HW246122  13.194   1.727   7.615
81409SOL     OW46123   0.212   6.843   1.349
81409SOL    HW146124   0.301   6.845   1.312
81409SOL    HW246125   0.159   6.803   1.280
81410SOL     OW46126   1.463   1.527  11.301
81410SOL    HW146127   1.430   1.589  11.367
81410SOL    HW246128   1.384   1.496  11.257
81411SOL     OW46129   3.654   1.871   0.695
81411SOL    HW146130   3.645   1.963   0.671
81411SOL    HW246131   3.566   1.844   0.722
81412SOL     OW46132   0.457   0.957   2.248
81412SOL    HW146133   0.373   0.989   2.216
81412SOL    HW246134   0.449   0.861   2.244
81413SOL     OW46135   7.723   7.676  13.347
81413SOL    HW146136   7.804   7.661  13.298
81413SOL    HW246137   7.654   7.647  13.288
81414SOL     OW46138   6.890  13.745  11.395
81414SOL    HW146139   6.889  13.840  11.382
81414SOL    HW246140   6.921  13.710  11.311
81415SOL     OW46141  11.574   4.483   9.627
81415SOL    HW146142  11.613   4.549   9.684
81415SOL    HW246143  11.551   4.531   9.547
81416SOL     OW46144   1.369  13.360  14.425
81416SOL    HW146145   1.278  13.376  14.451
81416SOL    HW246146   1.418  13.367  14.507
81417SOL     OW46147  13.036  12.416   7.761
81417SOL    HW146148  13.102  12.485   7.751
81417SOL    HW246149  13.071  12.342   7.710
81418SOL     OW46150   1.429   7.577  10.682
81418SOL    HW146151   1.497   7.599  10.619
81418SOL    HW246152   1.447   7.635  10.757
81419SOL     OW46153   5.000  10.042   3.430
81419SOL    HW146154   4.924  10.085   3.391
81419SOL    HW246155   4.990   9.950   3.406
81420SOL     OW46156  11.419   2.792   7.320
81420SOL    HW146157  11.473   2.812   7.244
81420SOL    HW246158  11.436   2.700   7.338
81421SOL     OW46159  11.071   3.054   0.813
81421SOL    HW146160  11.105   3.144   0.812
81421SOL    HW246161  11.122   3.008   0.746
81422SOL     OW46162   6.012   9.947  12.927
81422SOL    HW146163   6.096   9.986  12.903
81422SOL    HW246164   5.947  10.006  12.889
81423SOL     OW46165  13.078   0.459   0.701
81423SOL    HW146166  13.046   0.435   0.788
81423SOL    HW246167  13.063   0.381   0.647
81424SOL     OW46168   8.679   8.507  13.967
81424SOL    HW146169   8.586   8.485  13.958
81424SOL    HW246170   8.685   8.552  14.051
81425SOL     OW46171   0.244   1.513   8.736
81425SOL    HW146172   0.327   1.465   8.728
81425SOL    HW246173   0.177   1.447   8.722
81426SOL     OW46174   2.307   6.347  10.008
81426SOL    HW146175   2.396   6.381  10.014
81426SOL    HW246176   2.251   6.421  10.030
81427SOL     OW46177  12.448   9.205  11.949
81427SOL    HW146178  12.439   9.239  11.860
81427SOL    HW246179  12.483   9.278  12.000
81428SOL     OW46180   5.858   0.327   9.758
81428SOL    HW146181   5.904   0.411   9.754
81428SOL    HW246182   5.779   0.344   9.809
81429SOL     OW46183  14.097   2.593  13.189
81429SOL    HW146184  14.061   2.682  13.186
81429SOL    HW246185  14.046   2.549  13.257
81430SOL     OW46186   6.611   5.771   6.158
81430SOL    HW146187   6.539   5.746   6.215
81430SOL    HW246188   6.574   5.769   6.070
81431SOL     OW46189   0.414   5.680   9.844
81431SOL    HW146190   0.437   5.719   9.929
81431SOL    HW246191   0.487   5.703   9.786
81432SOL     OW46192   7.540   6.108   4.578
81432SOL    HW146193   7.592   6.090   4.501
81432SOL    HW246194   7.456   6.065   4.562
81433SOL     OW46195  13.577   4.990  12.584
81433SOL    HW146196  13.579   5.012  12.491
81433SOL    HW246197  13.594   4.896  12.586
81434SOL     OW46198   7.176   4.662   6.543
81434SOL    HW146199   7.253   4.675   6.598
81434SOL    HW246200   7.112   4.621   6.600
81435SOL     OW46201  13.349  10.978   0.210
81435SOL    HW146202  13.293  10.909   0.175
81435SOL    HW246203  13.301  11.013   0.285
81436SOL     OW46204  14.493  11.439   3.545
81436SOL    HW146205  14.502  11.347   3.571
81436SOL    HW246206  14.431  11.475   3.608
81437SOL     OW46207  10.317   6.786   6.129
81437SOL    HW146208  10.271   6.839   6.194
81437SOL    HW246209  10.249   6.766   6.063
81438SOL     OW46210   3.017   2.328   5.917
81438SOL    HW146211   2.990   2.246   5.878
81438SOL    HW246212   3.104   2.309   5.954
81439SOL     OW46213   9.568  12.746   8.923
81439SOL    HW146214   9.613  12.662   8.916
81439SOL    HW246215   9.638  12.810   8.936
81440SOL     OW46216   3.733   3.802   6.631
81440SOL    HW146217   3.808   3.754   6.597
81440SOL    HW246218   3.771   3.864   6.694
81441SOL     OW46219  13.183   5.029   1.582
81441SOL    HW146220  13.267   5.070   1.566
81441SOL    HW246221  13.159   5.058   1.670
81442SOL     OW46222   7.830  12.064   8.375
81442SOL    HW146223   7.770  12.108   8.315
81442SOL    HW246224   7.915  12.106   8.360
81443SOL     OW46225   0.804  13.859   3.949
81443SOL    HW146226   0.900  13.855   3.953
81443SOL    HW246227   0.775  13.793   4.011
81444SOL     OW46228   4.322   5.343  14.238
81444SOL    HW146229   4.227   5.337  14.249
81444SOL    HW246230   4.335   5.339  14.143
81445SOL     OW46231  13.704   7.420  12.860
81445SOL    HW146232  13.725   7.511  12.839
81445SOL    HW246233  13.632   7.397  12.801
81446SOL     OW46234  11.965   8.488   5.600
81446SOL    HW146235  11.874   8.511   5.617
81446SOL    HW246236  11.981   8.412   5.655
81447SOL     OW46237   0.499   6.045  14.098
81447SOL    HW146238   0.410   6.040  14.134
81447SOL    HW246239   0.533   5.956  14.106
81448SOL     OW46240   2.800   3.037   3.569
81448SOL    HW146241   2.709   3.014   3.588
81448SOL    HW246242   2.795   3.100   3.497
81449SOL     OW46243   5.592   6.083  11.831
81449SOL    HW146244   5.607   6.155  11.893
81449SOL    HW246245   5.635   6.008  11.871
81450SOL     OW46246   5.487   1.760   2.514
81450SOL    HW146247   5.546   1.706   2.566
81450SOL    HW246248   5.438   1.699   2.460
81451SOL     OW46249  14.067   8.764  14.578
81451SOL    HW146250  14.061   8.670  14.595
81451SOL    HW246251  14.158   8.779  14.553
81452SOL     OW46252   8.572   3.617   8.835
81452SOL    HW146253   8.666   3.637   8.829
81452SOL    HW246254   8.529   3.696   8.802
81453SOL     OW46255   2.110   6.967   3.473
81453SOL    HW146256   2.052   6.963   3.397
81453SOL    HW246257   2.182   7.025   3.446
81454SOL     OW46258   2.452   0.962  11.824
81454SOL    HW146259   2.481   0.974  11.733
81454SOL    HW246260   2.476   1.043  11.868
81455SOL     OW46261   1.564  14.121   5.539
81455SOL    HW146262   1.579  14.084   5.452
81455SOL    HW246263   1.505  14.195   5.524
81456SOL     OW46264   6.731   9.677   7.877
81456SOL    HW146265   6.787   9.714   7.809
81456SOL    HW246266   6.725   9.584   7.856
81457SOL     OW46267   3.395   7.411  14.123
81457SOL    HW146268   3.358   7.352  14.189
81457SOL    HW246269   3.486   7.423  14.150
81458SOL     OW46270  11.074   2.014   8.613
81458SOL    HW146271  11.117   1.935   8.648
81458SOL    HW246272  10.981   1.992   8.615
81459SOL     OW46273  12.463   9.560   0.693
81459SOL    HW146274  12.434   9.473   0.663
81459SOL    HW246275  12.458   9.615   0.616
81460SOL     OW46276   0.298  14.461   7.328
81460SOL    HW146277   0.239  14.516   7.277
81460SOL    HW246278   0.249  14.381   7.344
81461SOL     OW46279  14.615   7.985   7.882
81461SOL    HW146280  14.598   7.890   7.884
81461SOL    HW246281  14.710   7.992   7.874
81462SOL     OW46282  13.041  14.812   6.357
81462SOL    HW146283  13.080  14.862   6.285
81462SOL    HW246284  13.103  14.823   6.430
81463SOL     OW46285   7.998   8.793   1.569
81463SOL    HW146286   8.008   8.756   1.481
81463SOL    HW246287   8.082   8.776   1.612
81464SOL     OW46288  13.776  11.459  13.169
81464SOL    HW146289  13.726  11.533  13.134
81464SOL    HW246290  13.807  11.412  13.092
81465SOL     OW46291   0.545   8.190   3.024
81465SOL    HW146292   0.567   8.130   2.953
81465SOL    HW246293   0.603   8.165   3.096
81466SOL     OW46294  13.620   5.404   7.942
81466SOL    HW146295  13.675   5.423   7.866
81466SOL    HW246296  13.681   5.385   8.013
81467SOL     OW46297   9.813   1.733   4.348
81467SOL    HW146298   9.724   1.732   4.314
81467SOL    HW246299   9.863   1.678   4.287
81468SOL     OW46300   8.632   4.907   2.273
81468SOL    HW146301   8.580   4.866   2.204
81468SOL    HW246302   8.625   5.001   2.257
81469SOL     OW46303   4.094   4.383  12.778
81469SOL    HW146304   4.032   4.403  12.708
81469SOL    HW246305   4.118   4.292  12.763
81470SOL     OW46306   5.652  11.107   2.415
81470SOL    HW146307   5.592  11.035   2.396
81470SOL    HW246308   5.719  11.068   2.472
81471SOL     OW46309   0.329  10.765   0.970
81471SOL    HW146310   0.352  10.826   1.040
81471SOL    HW246311   0.267  10.704   1.011
81472SOL     OW46312   9.006   4.721  14.262
81472SOL    HW146313   8.970   4.713  14.174
81472SOL    HW246314   8.930   4.709  14.319
81473SOL     OW46315   5.809   2.925  14.115
81473SOL    HW146316   5.779   2.952  14.201
81473SOL    HW246317   5.880   2.862  14.132
81474SOL     OW46318  14.030   5.639  14.326
81474SOL    HW146319  14.019   5.649  14.421
81474SOL    HW246320  14.085   5.713  14.301
81475SOL     OW46321  10.788   0.255   7.370
81475SOL    HW146322  10.866   0.289   7.327
81475SOL    HW246323  10.739   0.211   7.300
81476SOL     OW46324  12.604  12.448   6.329
81476SOL    HW146325  12.692  12.445   6.292
81476SOL    HW246326  12.607  12.383   6.400
81477SOL     OW46327   1.061  10.157   3.757
81477SOL    HW146328   1.082  10.248   3.775
81477SOL    HW246329   1.004  10.131   3.829
81478SOL     OW46330   6.669   0.781  14.059
81478SOL    HW146331   6.631   0.832  13.988
81478SOL    HW246332   6.734   0.840  14.098
81479SOL     OW46333   7.350   5.264  11.934
81479SOL    HW146334   7.306   5.193  11.887
81479SOL    HW246335   7.279   5.315  11.972
81480SOL     OW46336  14.558   7.513   4.602
81480SOL    HW146337  14.640   7.502   4.649
81480SOL    HW246338  14.548   7.608   4.595
81481SOL     OW46339   2.702   9.874  13.617
81481SOL    HW146340   2.628   9.908  13.667
81481SOL    HW246341   2.688   9.907  13.528
81482SOL     OW46342   4.530   7.520  12.318
81482SOL    HW146343   4.508   7.612  12.304
81482SOL    HW246344   4.509   7.476  12.236
81483SOL     OW46345  12.641   7.393   8.569
81483SOL    HW146346  12.614   7.328   8.504
81483SOL    HW246347  12.559   7.428   8.604
81484SOL     OW46348   5.021   1.059   6.722
81484SOL    HW146349   4.957   0.996   6.755
81484SOL    HW246350   4.982   1.096   6.643
81485SOL     OW46351   5.641   7.096  14.456
81485SOL    HW146352   5.562   7.091  14.402
81485SOL    HW246353   5.713   7.080  14.395
81486SOL     OW46354   1.215  10.599   6.389
81486SOL    HW146355   1.307  10.574   6.388
81486SOL    HW246356   1.171  10.530   6.439
81487SOL     OW46357   8.574  13.637   0.169
81487SOL    HW146358   8.546  13.597   0.252
81487SOL    HW246359   8.493  13.669   0.129
81488SOL     OW46360   0.186  10.327   0.846
81488SOL    HW146361   0.178  10.386   0.921
81488SOL    HW246362   0.187  10.384   0.770
81489SOL     OW46363  13.365  11.303  12.300
81489SOL    HW146364  13.390  11.334  12.213
81489SOL    HW246365  13.301  11.368  12.331
81490SOL     OW46366   5.788  12.936   9.240
81490SOL    HW146367   5.698  12.906   9.247
81490SOL    HW246368   5.782  13.032   9.237
81491SOL     OW46369   1.369   9.849   5.647
81491SOL    HW146370   1.282   9.853   5.607
81491SOL    HW246371   1.420   9.916   5.601
81492SOL     OW46372   3.449   7.923   9.676
81492SOL    HW146373   3.538   7.956   9.664
81492SOL    HW246374   3.413   7.977   9.747
81493SOL     OW46375   5.457   0.242   2.845
81493SOL    HW146376   5.520   0.253   2.774
81493SOL    HW246377   5.415   0.158   2.827
81494SOL     OW46378   9.640   5.001  13.815
81494SOL    HW146379   9.734   5.016  13.829
81494SOL    HW246380   9.603   5.088  13.803
81495SOL     OW46381   5.361  13.537  12.999
81495SOL    HW146382   5.424  13.465  13.008
81495SOL    HW246383   5.403  13.611  13.042
81496SOL     OW46384   2.533   9.455  14.186
81496SOL    HW146385   2.616   9.410  14.166
81496SOL    HW246386   2.513   9.505  14.107
81497SOL     OW46387   2.965   7.198   5.305
81497SOL    HW146388   2.945   7.106   5.287
81497SOL    HW246389   3.046   7.215   5.256
81498SOL     OW46390   9.187  11.160   4.945
81498SOL    HW146391   9.185  11.121   4.858
81498SOL    HW246392   9.235  11.242   4.934
81499SOL     OW46393   8.989  10.018   6.342
81499SOL    HW146394   8.935   9.976   6.276
81499SOL    HW246395   8.948  10.103   6.357
81500SOL     OW46396  13.912   2.204   7.415
81500SOL    HW146397  13.897   2.138   7.348
81500SOL    HW246398  13.824   2.234   7.440
81501SOL     OW46399   4.968   6.485  13.723
81501SOL    HW146400   4.952   6.482  13.628
81501SOL    HW246401   5.063   6.486  13.731
81502SOL     OW46402   1.664   3.612   0.136
81502SOL    HW146403   1.696   3.578   0.052
81502SOL    HW246404   1.657   3.706   0.123
81503SOL     OW46405   0.862   4.767   9.789
81503SOL    HW146406   0.948   4.739   9.821
81503SOL    HW246407   0.851   4.854   9.826
81504SOL     OW46408   4.555   5.482  10.663
81504SOL    HW146409   4.494   5.504  10.593
81504SOL    HW246410   4.528   5.394  10.690
81505SOL     OW46411   7.183   8.698   1.223
81505SOL    HW146412   7.138   8.663   1.146
81505SOL    HW246413   7.180   8.627   1.287
81506SOL     OW46414   9.453   9.069   5.283
81506SOL    HW146415   9.380   9.056   5.222
81506SOL    HW246416   9.414   9.117   5.356
81507SOL     OW46417   0.246   3.849   5.699
81507SOL    HW146418   0.220   3.850   5.791
81507SOL    HW246419   0.305   3.774   5.691
81508SOL     OW46420  10.291   8.066   2.904
81508SOL    HW146421  10.254   7.980   2.922
81508SOL    HW246422  10.260   8.122   2.976
81509SOL     OW46423  14.283   0.713  13.205
81509SOL    HW146424  14.308   0.621  13.209
81509SOL    HW246425  14.364   0.761  13.221
81510SOL     OW46426   4.146  11.064  11.064
81510SOL    HW146427   4.220  11.049  11.005
81510SOL    HW246428   4.176  11.032  11.149
81511SOL     OW46429   8.575  10.835   2.158
81511SOL    HW146430   8.643  10.823   2.224
81511SOL    HW246431   8.497  10.860   2.207
81512SOL     OW46432   3.030   7.389  10.570
81512SOL    HW146433   3.123   7.367  10.564
81512SOL    HW246434   3.008   7.422  10.483
81513SOL     OW46435   3.525   4.763   1.543
81513SOL    HW146436   3.462   4.692   1.552
81513SOL    HW246437   3.472   4.842   1.537
81514SOL     OW46438   1.742   1.221   3.890
81514SOL    HW146439   1.787   1.174   3.819
81514SOL    HW246440   1.787   1.193   3.970
81515SOL     OW46441   7.124   4.174   4.561
81515SOL    HW146442   7.086   4.203   4.478
81515SOL    HW246443   7.119   4.078   4.558
81516SOL     OW46444   1.310   6.592  13.898
81516SOL    HW146445   1.234   6.543  13.928
81516SOL    HW246446   1.301   6.594  13.803
81517SOL     OW46447  11.629   9.610   8.063
81517SOL    HW146448  11.542   9.588   8.098
81517SOL    HW246449  11.611   9.658   7.982
81518SOL     OW46450   8.294   1.151   5.031
81518SOL    HW146451   8.280   1.095   4.954
81518SOL    HW246452   8.218   1.209   5.032
81519SOL     OW46453   1.366  12.810  10.660
81519SOL    HW146454   1.461  12.810  10.651
81519SOL    HW246455   1.351  12.797  10.753
81520SOL     OW46456   8.537  14.430   4.414
81520SOL    HW146457   8.578  14.511   4.383
81520SOL    HW246458   8.548  14.369   4.342
81521SOL     OW46459  11.462  12.685   6.617
81521SOL    HW146460  11.395  12.679   6.685
81521SOL    HW246461  11.418  12.729   6.544
81522SOL     OW46462   1.346   0.327   5.768
81522SOL    HW146463   1.317   0.415   5.793
81522SOL    HW246464   1.423   0.343   5.713
81523SOL     OW46465  10.837   3.263   6.685
81523SOL    HW146466  10.909   3.200   6.677
81523SOL    HW246467  10.875   3.345   6.652
81524SOL     OW46468   9.018   1.363   6.973
81524SOL    HW146469   8.950   1.362   7.042
81524SOL    HW246470   9.036   1.456   6.960
81525SOL     OW46471  11.649   6.583  14.383
81525SOL    HW146472  11.672   6.564  14.291
81525SOL    HW246473  11.663   6.677  14.392
81526SOL     OW46474   8.410   8.890   5.991
81526SOL    HW146475   8.445   8.920   5.908
81526SOL    HW246476   8.486   8.864   6.042
81527SOL     OW46477   9.180  13.781   4.097
81527SOL    HW146478   9.151  13.869   4.073
81527SOL    HW246479   9.149  13.769   4.187
81528SOL     OW46480   0.756  12.127   7.850
81528SOL    HW146481   0.807  12.079   7.785
81528SOL    HW246482   0.665  12.112   7.825
81529SOL     OW46483   0.807   2.283   2.559
81529SOL    HW146484   0.728   2.232   2.540
81529SOL    HW246485   0.822   2.269   2.653
81530SOL     OW46486   9.375   6.929   4.287
81530SOL    HW146487   9.446   6.991   4.268
81530SOL    HW246488   9.346   6.953   4.375
81531SOL     OW46489  14.740   3.690   9.044
81531SOL    HW146490  14.715   3.747   8.971
81531SOL    HW246491  14.835   3.684   9.037
81532SOL     OW46492   9.079  10.483  10.326
81532SOL    HW146493   9.171  10.460  10.326
81532SOL    HW246494   9.034  10.404  10.355
81533SOL     OW46495   0.033   0.416   1.276
81533SOL    HW146496   0.064   0.505   1.257
81533SOL    HW246497   0.106   0.359   1.250
81534SOL     OW46498   6.657   6.029  14.694
81534SOL    HW146499   6.686   6.005  14.606
81534SOL    HW246500   6.739   6.036  14.744
81535SOL     OW46501   6.270  13.210   0.861
81535SOL    HW146502   6.276  13.214   0.766
81535SOL    HW246503   6.242  13.120   0.880
81536SOL     OW46504   1.023   2.589  13.815
81536SOL    HW146505   1.102   2.587  13.869
81536SOL    HW246506   0.967   2.655  13.857
81537SOL     OW46507  14.273  11.128   9.838
81537SOL    HW146508  14.202  11.179   9.880
81537SOL    HW246509  14.276  11.046   9.888
81538SOL     OW46510   6.886   2.161  11.572
81538SOL    HW146511   6.843   2.178  11.655
81538SOL    HW246512   6.833   2.093  11.530
81539SOL     OW46513   8.438   3.719  11.628
81539SOL    HW146514   8.397   3.801  11.655
81539SOL    HW246515   8.436   3.664  11.706
81540SOL     OW46516   1.808   5.861   7.055
81540SOL    HW146517   1.838   5.775   7.085
81540SOL    HW246518   1.713   5.851   7.046
81541SOL     OW46519  12.352   8.375  10.706
81541SOL    HW146520  12.264   8.411  10.713
81541SOL    HW246521  12.387   8.413  10.625
81542SOL     OW46522   1.194   8.538  13.829
81542SOL    HW146523   1.266   8.504  13.883
81542SOL    HW246524   1.183   8.629  13.858
81543SOL     OW46525   2.940   3.808   8.220
81543SOL    HW146526   2.997   3.732   8.213
81543SOL    HW246527   2.896   3.814   8.135
81544SOL     OW46528  14.767  11.796  13.268
81544SOL    HW146529  14.799  11.886  13.270
81544SOL    HW246530  14.766  11.768  13.360
81545SOL     OW46531  10.863  14.448  11.350
81545SOL    HW146532  10.783  14.500  11.351
81545SOL    HW246533  10.861  14.398  11.432
81546SOL     OW46534   7.641  14.112   7.318
81546SOL    HW146535   7.733  14.086   7.307
81546SOL    HW246536   7.591  14.035   7.293
81547SOL     OW46537  13.126   5.163   6.825
81547SOL    HW146538  13.171   5.246   6.811
81547SOL    HW246539  13.071   5.152   6.747
81548SOL     OW46540   7.731   5.411  12.385
81548SOL    HW146541   7.710   5.345  12.320
81548SOL    HW246542   7.660   5.405  12.449
81549SOL     OW46543   6.302  12.298   9.495
81549SOL    HW146544   6.369  12.242   9.456
81549SOL    HW246545   6.352  12.359   9.551
81550SOL     OW46546   9.201   1.692   7.611
81550SOL    HW146547   9.226   1.620   7.670
81550SOL    HW246548   9.268   1.692   7.543
81551SOL     OW46549   6.818   5.609   2.949
81551SOL    HW146550   6.725   5.588   2.936
81551SOL    HW246551   6.863   5.528   2.926
81552SOL     OW46552   0.484  12.039   0.027
81552SOL    HW146553   0.504  11.945   0.031
81552SOL    HW246554   0.511  12.066  14.822
81553SOL     OW46555  14.441   0.233   4.192
81553SOL    HW146556  14.364   0.288   4.202
81553SOL    HW246557  14.508   0.292   4.156
81554SOL     OW46558   2.877   5.201  13.983
81554SOL    HW146559   2.850   5.285  14.018
81554SOL    HW246560   2.810   5.139  14.012
81555SOL     OW46561   7.119   7.160  11.573
81555SOL    HW146562   7.024   7.172  11.580
81555SOL    HW246563   7.151   7.243  11.539
81556SOL     OW46564  10.009   1.194   5.955
81556SOL    HW146565   9.975   1.119   6.004
81556SOL    HW246566   9.979   1.270   6.005
81557SOL     OW46567   3.265  10.585  13.837
81557SOL    HW146568   3.216  10.605  13.757
81557SOL    HW246569   3.325  10.515  13.811
81558SOL     OW46570   4.007  13.521   2.286
81558SOL    HW146571   3.934  13.581   2.300
81558SOL    HW246572   4.085  13.576   2.293
81559SOL     OW46573   5.424   2.638   5.890
81559SOL    HW146574   5.445   2.724   5.927
81559SOL    HW246575   5.469   2.577   5.949
81560SOL     OW46576   4.582  10.691  14.174
81560SOL    HW146577   4.559  10.747  14.248
81560SOL    HW246578   4.628  10.617  14.212
81561SOL     OW46579   2.321   7.912   8.890
81561SOL    HW146580   2.227   7.917   8.874
81561SOL    HW246581   2.329   7.903   8.985
81562SOL     OW46582  10.471   2.742   1.276
81562SOL    HW146583  10.452   2.791   1.196
81562SOL    HW246584  10.384   2.717   1.310
81563SOL     OW46585  11.655   5.131   3.768
81563SOL    HW146586  11.665   5.223   3.792
81563SOL    HW246587  11.714   5.119   3.693
81564SOL     OW46588   9.239   0.465   1.018
81564SOL    HW146589   9.312   0.433   0.967
81564SOL    HW246590   9.180   0.390   1.026
81565SOL     OW46591  14.849   0.230   1.708
81565SOL    HW146592  14.819   0.296   1.772
81565SOL    HW246593  14.776   0.222   1.646
81566SOL     OW46594   0.434   6.464   3.868
81566SOL    HW146595   0.518   6.510   3.859
81566SOL    HW246596   0.429   6.442   3.961
81567SOL     OW46597   2.213   5.188  12.519
81567SOL    HW146598   2.294   5.159  12.561
81567SOL    HW246599   2.181   5.110  12.473
81568SOL     OW46600   1.490   5.094   4.606
81568SOL    HW146601   1.444   5.160   4.658
81568SOL    HW246602   1.466   5.011   4.647
81569SOL     OW46603   7.265  11.020  10.743
81569SOL    HW146604   7.303  11.108  10.746
81569SOL    HW246605   7.173  11.032  10.767
81570SOL     OW46606  13.869   0.256  10.567
81570SOL    HW146607  13.925   0.308  10.509
81570SOL    HW246608  13.918   0.251  10.649
81571SOL     OW46609  14.860   4.431  12.319
81571SOL    HW146610  14.860   4.420  12.224
81571SOL    HW246611   0.008   4.348  12.354
81572SOL     OW46612  14.545  11.823   3.217
81572SOL    HW146613  14.521  11.733   3.236
81572SOL    HW246614  14.586  11.855   3.297
81573SOL     OW46615  11.118  12.857   7.929
81573SOL    HW146616  11.202  12.821   7.959
81573SOL    HW246617  11.055  12.786   7.940
81574SOL     OW46618   4.202   8.145  13.756
81574SOL    HW146619   4.189   8.209  13.826
81574SOL    HW246620   4.133   8.165  13.692
81575SOL     OW46621   7.342  12.320   0.686
81575SOL    HW146622   7.254  12.308   0.724
81575SOL    HW246623   7.339  12.405   0.644
81576SOL     OW46624  11.374  13.124   2.311
81576SOL    HW146625  11.448  13.184   2.316
81576SOL    HW246626  11.410  13.039   2.335
81577SOL     OW46627   5.462   3.967   0.395
81577SOL    HW146628   5.529   4.020   0.439
81577SOL    HW246629   5.380   4.010   0.417
81578SOL     OW46630  11.003   8.789  14.529
81578SOL    HW146631  10.955   8.720  14.484
81578SOL    HW246632  11.035   8.845  14.458
81579SOL     OW46633  11.644   0.018   1.189
81579SOL    HW146634  11.565  14.857   1.158
81579SOL    HW246635  11.683  14.838   1.250
81580SOL     OW46636   3.950   2.861   5.643
81580SOL    HW146637   4.015   2.910   5.693
81580SOL    HW246638   3.972   2.880   5.552
81581SOL     OW46639   7.884   5.821  13.306
81581SOL    HW146640   7.831   5.744  13.324
81581SOL    HW246641   7.972   5.798  13.337
81582SOL     OW46642   8.520   6.017   7.722
81582SOL    HW146643   8.545   5.929   7.694
81582SOL    HW246644   8.474   6.054   7.647
81583SOL     OW46645   2.959   9.281   6.521
81583SOL    HW146646   2.955   9.187   6.503
81583SOL    HW246647   3.040   9.292   6.571
81584SOL     OW46648  11.727   5.852   1.632
81584SOL    HW146649  11.637   5.885   1.629
81584SOL    HW246650  11.781   5.931   1.637
81585SOL     OW46651   2.808   6.578   5.370
81585SOL    HW146652   2.741   6.627   5.419
81585SOL    HW246653   2.763   6.547   5.292
81586SOL     OW46654   3.307   0.705  11.636
81586SOL    HW146655   3.241   0.749  11.582
81586SOL    HW246656   3.256   0.650  11.695
81587SOL     OW46657   0.310   2.545   8.597
81587SOL    HW146658   0.305   2.489   8.675
81587SOL    HW246659   0.403   2.547   8.574
81588SOL     OW46660   5.732   6.299  12.672
81588SOL    HW146661   5.667   6.323  12.738
81588SOL    HW246662   5.809   6.273  12.723
81589SOL     OW46663   8.195   2.954  13.150
81589SOL    HW146664   8.258   3.025  13.142
81589SOL    HW246665   8.247   2.876  13.170
81590SOL     OW46666   2.969   5.784   3.286
81590SOL    HW146667   3.004   5.826   3.207
81590SOL    HW246668   3.040   5.788   3.349
81591SOL     OW46669   3.368   7.227  13.091
81591SOL    HW146670   3.455   7.187  13.086
81591SOL    HW246671   3.384   7.318  13.113
81592SOL     OW46672   2.678  11.494   8.096
81592SOL    HW146673   2.672  11.400   8.082
81592SOL    HW246674   2.667  11.505   8.190
81593SOL     OW46675  11.311   1.170  10.693
81593SOL    HW146676  11.404   1.192  10.695
81593SOL    HW246677  11.267   1.255  10.686
81594SOL     OW46678   1.656  13.657   3.977
81594SOL    HW146679   1.676  13.575   3.932
81594SOL    HW246680   1.684  13.643   4.068
81595SOL     OW46681   6.440   8.000   2.751
81595SOL    HW146682   6.396   7.922   2.786
81595SOL    HW246683   6.464   8.051   2.829
81596SOL     OW46684   5.870  13.745   6.204
81596SOL    HW146685   5.900  13.832   6.229
81596SOL    HW246686   5.895  13.736   6.112
81597SOL     OW46687   8.146  10.179   3.313
81597SOL    HW146688   8.198  10.110   3.356
81597SOL    HW246689   8.149  10.157   3.220
81598SOL     OW46690   5.521   1.327   8.269
81598SOL    HW146691   5.506   1.421   8.279
81598SOL    HW246692   5.581   1.320   8.195
81599SOL     OW46693   1.428   2.037   0.029
81599SOL    HW146694   1.344   2.035  14.866
81599SOL    HW246695   1.447   2.130   0.041
81600SOL     OW46696   8.377  13.369  11.451
81600SOL    HW146697   8.427  13.427  11.509
81600SOL    HW246698   8.338  13.304  11.510
81601SOL     OW46699   5.774  11.009  10.857
81601SOL    HW146700   5.833  10.936  10.875
81601SOL    HW246701   5.822  11.087  10.887
81602SOL     OW46702   5.943   9.731  10.277
81602SOL    HW146703   5.906   9.802  10.331
81602SOL    HW246704   6.015   9.772  10.230
81603SOL     OW46705   3.894   9.672   8.634
81603SOL    HW146706   3.896   9.708   8.723
81603SOL    HW246707   3.947   9.733   8.582
81604SOL     OW46708   8.091   4.796  11.714
81604SOL    HW146709   8.061   4.712  11.680
81604SOL    HW246710   8.011   4.845  11.734
81605SOL     OW46711   3.705  13.032   2.861
81605SOL    HW146712   3.651  13.019   2.783
81605SOL    HW246713   3.773  13.093   2.834
81606SOL     OW46714   4.137   0.196   0.686
81606SOL    HW146715   4.203   0.200   0.617
81606SOL    HW246716   4.088   0.278   0.677
81607SOL     OW46717   3.282   3.525   4.426
81607SOL    HW146718   3.233   3.498   4.348
81607SOL    HW246719   3.263   3.618   4.434
81608SOL     OW46720   4.179   6.406   4.788
81608SOL    HW146721   4.205   6.315   4.804
81608SOL    HW246722   4.089   6.411   4.819
81609SOL     OW46723  10.649   9.945   4.710
81609SOL    HW146724  10.569   9.926   4.758
81609SOL    HW246725  10.719   9.905   4.761
81610SOL     OW46726   9.231  13.368   8.552
81610SOL    HW146727   9.318  13.326   8.553
81610SOL    HW246728   9.196  13.352   8.639
81611SOL     OW46729   1.247  10.982   3.022
81611SOL    HW146730   1.267  11.047   2.954
81611SOL    HW246731   1.157  11.001   3.047
81612SOL     OW46732  13.474   2.493   6.481
81612SOL    HW146733  13.506   2.496   6.571
81612SOL    HW246734  13.393   2.443   6.485
81613SOL     OW46735  13.664   6.545   0.545
81613SOL    HW146736  13.661   6.478   0.612
81613SOL    HW246737  13.572   6.567   0.528
81614SOL     OW46738  13.751   9.650  11.399
81614SOL    HW146739  13.743   9.657  11.304
81614SOL    HW246740  13.759   9.741  11.429
81615SOL     OW46741   0.770  10.158   7.999
81615SOL    HW146742   0.830  10.181   8.070
81615SOL    HW246743   0.783  10.064   7.987
81616SOL     OW46744  14.859   8.351  12.390
81616SOL    HW146745  14.881   8.416  12.457
81616SOL    HW246746   0.009   8.389  12.308
81617SOL     OW46747  13.945   3.019  13.593
81617SOL    HW146748  14.014   3.079  13.565
81617SOL    HW246749  13.870   3.040  13.539
81618SOL     OW46750  10.921   2.168   9.401
81618SOL    HW146751  11.001   2.141   9.356
81618SOL    HW246752  10.934   2.261   9.420
81619SOL     OW46753   1.200  11.235  10.147
81619SOL    HW146754   1.109  11.215  10.169
81619SOL    HW246755   1.250  11.192  10.216
81620SOL     OW46756   5.372   1.202  10.537
81620SOL    HW146757   5.319   1.270  10.579
81620SOL    HW246758   5.344   1.121  10.580
81621SOL     OW46759   6.141  12.947  13.281
81621SOL    HW146760   6.224  12.938  13.328
81621SOL    HW246761   6.167  12.959  13.189
81622SOL     OW46762  12.132   7.740   5.309
81622SOL    HW146763  12.217   7.732   5.267
81622SOL    HW246764  12.126   7.665   5.367
81623SOL     OW46765   6.299   4.765  11.913
81623SOL    HW146766   6.326   4.678  11.881
81623SOL    HW246767   6.328   4.767  12.004
81624SOL     OW46768  12.234  14.295   3.738
81624SOL    HW146769  12.232  14.354   3.663
81624SOL    HW246770  12.176  14.223   3.713
81625SOL     OW46771   0.069  13.965   0.284
81625SOL    HW146772   0.024  14.009   0.212
81625SOL    HW246773   0.162  13.976   0.264
81626SOL     OW46774  11.387  12.376   0.109
81626SOL    HW146775  11.422  12.459   0.076
81626SOL    HW246776  11.384  12.318   0.033
81627SOL     OW46777   5.613   4.345   2.160
81627SOL    HW146778   5.625   4.439   2.143
81627SOL    HW246779   5.549   4.317   2.095
81628SOL     OW46780  12.188   2.746   3.718
81628SOL    HW146781  12.175   2.742   3.813
81628SOL    HW246782  12.275   2.709   3.703
81629SOL     OW46783  14.635   5.554  14.687
81629SOL    HW146784  14.611   5.630  14.741
81629SOL    HW246785  14.672   5.591  14.607
81630SOL     OW46786  12.846   1.270   2.141
81630SOL    HW146787  12.936   1.302   2.135
81630SOL    HW246788  12.854   1.178   2.166
81631SOL     OW46789   8.568   6.817  13.137
81631SOL    HW146790   8.562   6.901  13.093
81631SOL    HW246791   8.621   6.834  13.215
81632SOL     OW46792  14.816   3.435  11.051
81632SOL    HW146793  14.852   3.366  11.107
81632SOL    HW246794  14.724   3.411  11.041
81633SOL     OW46795  10.602  12.852  14.205
81633SOL    HW146796  10.515  12.823  14.177
81633SOL    HW246797  10.653  12.771  14.213
81634SOL     OW46798   1.313   4.883  11.573
81634SOL    HW146799   1.289   4.955  11.631
81634SOL    HW246800   1.235   4.869  11.519
81635SOL     OW46801   9.527  14.739   5.650
81635SOL    HW146802   9.620  14.758   5.638
81635SOL    HW246803   9.482  14.803   5.595
81636SOL     OW46804   9.184   8.548   8.827
81636SOL    HW146805   9.131   8.528   8.905
81636SOL    HW246806   9.195   8.643   8.830
81637SOL     OW46807   1.537   8.363   4.956
81637SOL    HW146808   1.443   8.379   4.957
81637SOL    HW246809   1.545   8.269   4.947
81638SOL     OW46810   7.797   9.252  14.457
81638SOL    HW146811   7.783   9.313  14.529
81638SOL    HW246812   7.846   9.179  14.495
81639SOL     OW46813  14.436  11.513   0.479
81639SOL    HW146814  14.412  11.428   0.516
81639SOL    HW246815  14.355  11.563   0.478
81640SOL     OW46816   5.615  12.629  14.125
81640SOL    HW146817   5.535  12.627  14.073
81640SOL    HW246818   5.659  12.546  14.104
81641SOL     OW46819   6.070   6.285  11.260
81641SOL    HW146820   6.125   6.208  11.270
81641SOL    HW246821   6.099   6.326  11.179
81642SOL     OW46822  12.879  10.230  11.150
81642SOL    HW146823  12.818  10.281  11.205
81642SOL    HW246824  12.941  10.295  11.117
81643SOL     OW46825   5.127   0.462   7.717
81643SOL    HW146826   5.043   0.423   7.693
81643SOL    HW246827   5.169   0.483   7.633
81644SOL     OW46828   4.281   8.159   8.120
81644SOL    HW146829   4.282   8.121   8.032
81644SOL    HW246830   4.216   8.229   8.115
81645SOL     OW46831   7.559   0.350  11.709
81645SOL    HW146832   7.474   0.339  11.750
81645SOL    HW246833   7.620   0.364  11.782
81646SOL     OW46834   2.739  12.157   5.973
81646SOL    HW146835   2.785  12.090   6.024
81646SOL    HW246836   2.734  12.233   6.030
81647SOL     OW46837   7.345  13.423   5.105
81647SOL    HW146838   7.308  13.349   5.057
81647SOL    HW246839   7.409  13.383   5.165
81648SOL     OW46840   8.234   3.930   6.167
81648SOL    HW146841   8.295   3.870   6.210
81648SOL    HW246842   8.276   3.951   6.084
81649SOL     OW46843  12.010  12.685   1.992
81649SOL    HW146844  12.018  12.628   1.915
81649SOL    HW246845  12.076  12.753   1.978
81650SOL     OW46846   1.818   2.504  14.389
81650SOL    HW146847   1.782   2.578  14.341
81650SOL    HW246848   1.904   2.489  14.351
81651SOL     OW46849  14.442  11.585  12.916
81651SOL    HW146850  14.525  11.537  12.923
81651SOL    HW246851  14.456  11.648  12.845
81652SOL     OW46852   8.702  12.675  11.852
81652SOL    HW146853   8.711  12.764  11.818
81652SOL    HW246854   8.739  12.679  11.940
81653SOL     OW46855   8.121  12.220  13.139
81653SOL    HW146856   8.103  12.300  13.189
81653SOL    HW246857   8.091  12.241  13.050
81654SOL     OW46858  13.074   9.955   4.794
81654SOL    HW146859  12.981   9.956   4.814
81654SOL    HW246860  13.092   9.865   4.766
81655SOL     OW46861   7.700   2.854  10.154
81655SOL    HW146862   7.753   2.872  10.232
81655SOL    HW246863   7.755   2.799  10.099
81656SOL     OW46864   8.089  14.607   7.980
81656SOL    HW146865   8.161  14.604   7.918
81656SOL    HW246866   8.064  14.699   7.984
81657SOL     OW46867   3.658   5.297   5.356
81657SOL    HW146868   3.714   5.375   5.359
81657SOL    HW246869   3.618   5.300   5.269
81658SOL     OW46870   3.390  11.774  13.108
81658SOL    HW146871   3.301  11.789  13.078
81658SOL    HW246872   3.444  11.835  13.058
81659SOL     OW46873  13.616   9.386  13.263
81659SOL    HW146874  13.646   9.312  13.317
81659SOL    HW246875  13.693   9.410  13.211
81660SOL     OW46876   1.188   2.432   4.460
81660SOL    HW146877   1.148   2.347   4.479
81660SOL    HW246878   1.223   2.423   4.371
81661SOL     OW46879  12.829  12.509  11.790
81661SOL    HW146880  12.852  12.600  11.805
81661SOL    HW246881  12.911  12.468  11.761
81662SOL     OW46882  12.704  11.609  13.086
81662SOL    HW146883  12.659  11.675  13.139
81662SOL    HW246884  12.633  11.566  13.038
81663SOL     OW46885   8.362   5.587   3.061
81663SOL    HW146886   8.336   5.669   3.104
81663SOL    HW246887   8.309   5.520   3.103
81664SOL     OW46888   6.684   9.935  10.767
81664SOL    HW146889   6.646  10.001  10.709
81664SOL    HW246890   6.670   9.852  10.722
81665SOL     OW46891   9.589   8.929   8.786
81665SOL    HW146892   9.574   9.011   8.833
81665SOL    HW246893   9.534   8.935   8.708
81666SOL     OW46894   5.947   0.504   3.246
81666SOL    HW146895   5.946   0.439   3.176
81666SOL    HW246896   5.860   0.543   3.244
81667SOL     OW46897   1.164   6.043   4.223
81667SOL    HW146898   1.236   5.987   4.251
81667SOL    HW246899   1.130   6.081   4.304
81668SOL     OW46900   3.958  11.179  10.538
81668SOL    HW146901   4.004  11.106  10.497
81668SOL    HW246902   3.965  11.163  10.632
81669SOL     OW46903   3.815   9.048   2.565
81669SOL    HW146904   3.904   9.058   2.598
81669SOL    HW246905   3.815   9.094   2.481
81670SOL     OW46906   2.475   0.444  12.938
81670SOL    HW146907   2.392   0.434  12.985
81670SOL    HW246908   2.528   0.498  12.997
81671SOL     OW46909   6.904  11.552  14.066
81671SOL    HW146910   6.905  11.457  14.055
81671SOL    HW246911   6.875  11.585  13.981
81672SOL     OW46912  14.591  13.093  12.082
81672SOL    HW146913  14.546  13.068  12.163
81672SOL    HW246914  14.607  13.187  12.092
81673SOL     OW46915  10.018   3.402   4.467
81673SOL    HW146916  10.089   3.466   4.466
81673SOL    HW246917   9.979   3.411   4.554
81674SOL     OW46918   4.477   4.865  11.123
81674SOL    HW146919   4.444   4.953  11.139
81674SOL    HW246920   4.438   4.812  11.193
81675SOL     OW46921   5.596   4.862  13.993
81675SOL    HW146922   5.653   4.809  13.937
81675SOL    HW246923   5.597   4.818  14.077
81676SOL     OW46924   1.200  11.814   9.226
81676SOL    HW146925   1.144  11.747   9.265
81676SOL    HW246926   1.144  11.891   9.218
81677SOL     OW46927   8.882   1.621   4.094
81677SOL    HW146928   8.883   1.573   4.177
81677SOL    HW246929   8.793   1.613   4.062
81678SOL     OW46930   6.107   1.178  10.232
81678SOL    HW146931   6.045   1.108  10.214
81678SOL    HW246932   6.193   1.141  10.211
81679SOL     OW46933   6.843  14.445   0.157
81679SOL    HW146934   6.771  14.384   0.140
81679SOL    HW246935   6.835  14.510   0.088
81680SOL     OW46936   6.426   6.518   7.173
81680SOL    HW146937   6.387   6.594   7.215
81680SOL    HW246938   6.519   6.523   7.194
81681SOL     OW46939   0.581   8.876   8.011
81681SOL    HW146940   0.625   8.907   8.090
81681SOL    HW246941   0.640   8.897   7.939
81682SOL     OW46942   1.832   1.488  13.939
81682SOL    HW146943   1.828   1.578  13.906
81682SOL    HW246944   1.776   1.489  14.017
81683SOL     OW46945   1.174  10.840  11.013
81683SOL    HW146946   1.194  10.902  10.942
81683SOL    HW246947   1.260  10.807  11.040
81684SOL     OW46948   5.435  12.375   6.733
81684SOL    HW146949   5.479  12.310   6.786
81684SOL    HW246950   5.382  12.325   6.671
81685SOL     OW46951   2.327   1.934   0.010
81685SOL    HW146952   2.319   2.008   0.070
81685SOL    HW246953   2.240   1.924  14.854
81686SOL     OW46954   3.174   3.208   5.316
81686SOL    HW146955   3.252   3.154   5.323
81686SOL    HW246956   3.175   3.240   5.226
81687SOL     OW46957  10.233   5.753   2.183
81687SOL    HW146958  10.292   5.744   2.258
81687SOL    HW246959  10.256   5.681   2.125
81688SOL     OW46960   6.507   6.232   1.058
81688SOL    HW146961   6.420   6.205   1.088
81688SOL    HW246962   6.550   6.150   1.032
81689SOL     OW46963  11.155   2.707   1.437
81689SOL    HW146964  11.135   2.642   1.504
81689SOL    HW246965  11.197   2.779   1.484
81690SOL     OW46966   2.522   8.302   4.295
81690SOL    HW146967   2.500   8.355   4.219
81690SOL    HW246968   2.567   8.226   4.259
81691SOL     OW46969   2.902   8.481   9.078
81691SOL    HW146970   2.962   8.534   9.025
81691SOL    HW246971   2.842   8.443   9.014
81692SOL     OW46972   0.167   5.607   2.762
81692SOL    HW146973   0.196   5.693   2.790
81692SOL    HW246974   0.236   5.577   2.702
81693SOL     OW46975   4.369   1.207   7.166
81693SOL    HW146976   4.384   1.284   7.221
81693SOL    HW246977   4.274   1.201   7.158
81694SOL     OW46978  12.407   4.624   8.896
81694SOL    HW146979  12.405   4.704   8.843
81694SOL    HW246980  12.322   4.621   8.938
81695SOL     OW46981  10.867   6.466   0.276
81695SOL    HW146982  10.809   6.539   0.253
81695SOL    HW246983  10.944   6.478   0.221
81696SOL     OW46984   2.074   7.091   9.951
81696SOL    HW146985   2.123   7.023   9.905
81696SOL    HW246986   2.034   7.143   9.881
81697SOL     OW46987  12.321   3.933   2.771
81697SOL    HW146988  12.229   3.911   2.787
81697SOL    HW246989  12.318   4.002   2.705
81698SOL     OW46990  10.875   4.283   4.039
81698SOL    HW146991  10.945   4.300   3.975
81698SOL    HW246992  10.807   4.346   4.017
81699SOL     OW46993   6.364   5.236   1.016
81699SOL    HW146994   6.417   5.227   1.095
81699SOL    HW246995   6.293   5.174   1.027
81700SOL     OW46996  12.126  11.868  12.408
81700SOL    HW146997  12.128  11.790  12.353
81700SOL    HW246998  12.039  11.867  12.448
81701SOL     OW46999   7.777   1.495  14.507
81701SOL    HW147000   7.783   1.418  14.451
81701SOL    HW247001   7.730   1.465  14.585
81702SOL     OW47002   6.656   8.335   9.669
81702SOL    HW147003   6.621   8.335   9.579
81702SOL    HW247004   6.739   8.289   9.663
81703SOL     OW47005   6.126  12.770   4.693
81703SOL    HW147006   6.196  12.740   4.635
81703SOL    HW247007   6.166  12.773   4.780
81704SOL     OW47008   7.639  10.452   4.755
81704SOL    HW147009   7.717  10.470   4.808
81704SOL    HW247010   7.667  10.467   4.665
81705SOL     OW47011  10.188  14.513   2.392
81705SOL    HW147012  10.144  14.526   2.308
81705SOL    HW247013  10.155  14.584   2.448
81706SOL     OW47014   6.409   4.016  10.962
81706SOL    HW147015   6.466   4.092  10.955
81706SOL    HW247016   6.453   3.948  10.910
81707SOL     OW47017   0.752   8.328   4.296
81707SOL    HW147018   0.813   8.283   4.237
81707SOL    HW247019   0.764   8.285   4.380
81708SOL     OW47020  10.333   8.512   3.855
81708SOL    HW147021  10.242   8.523   3.829
81708SOL    HW247022  10.369   8.601   3.854
81709SOL     OW47023  14.013   3.146   5.199
81709SOL    HW147024  14.021   3.203   5.123
81709SOL    HW247025  13.987   3.061   5.163
81710SOL     OW47026  10.471  12.891   8.172
81710SOL    HW147027  10.534  12.820   8.182
81710SOL    HW247028  10.481  12.919   8.081
81711SOL     OW47029  11.063   8.599   6.682
81711SOL    HW147030  11.088   8.689   6.664
81711SOL    HW247031  10.968   8.602   6.689
81712SOL     OW47032   4.157   3.518   1.976
81712SOL    HW147033   4.241   3.554   1.946
81712SOL    HW247034   4.092   3.556   1.917
81713SOL     OW47035  12.331  13.335   0.542
81713SOL    HW147036  12.400  13.390   0.578
81713SOL    HW247037  12.264  13.332   0.611
81714SOL     OW47038  11.480   0.385   8.808
81714SOL    HW147039  11.544   0.344   8.749
81714SOL    HW247040  11.523   0.464   8.840
81715SOL     OW47041   4.269   9.461   5.352
81715SOL    HW147042   4.247   9.487   5.442
81715SOL    HW247043   4.299   9.371   5.360
81716SOL     OW47044   2.409   2.115   4.836
81716SOL    HW147045   2.393   2.033   4.790
81716SOL    HW247046   2.499   2.138   4.812
81717SOL     OW47047   4.021   1.394   2.342
81717SOL    HW147048   4.065   1.403   2.258
81717SOL    HW247049   3.963   1.318   2.331
81718SOL     OW47050   1.530   5.854   7.076
81718SOL    HW147051   1.501   5.763   7.076
81718SOL    HW247052   1.490   5.892   7.154
81719SOL     OW47053   4.349   1.176  11.546
81719SOL    HW147054   4.344   1.088  11.584
81719SOL    HW247055   4.339   1.161  11.451
81720SOL     OW47056   2.333   0.559  10.066
81720SOL    HW147057   2.341   0.654  10.061
81720SOL    HW247058   2.406   0.532  10.121
81721SOL     OW47059  14.041   5.015   7.766
81721SOL    HW147060  13.999   5.040   7.684
81721SOL    HW247061  14.016   5.084   7.828
81722SOL     OW47062   4.538   0.924  12.223
81722SOL    HW147063   4.486   0.954  12.298
81722SOL    HW247064   4.629   0.928  12.253
81723SOL     OW47065  14.260  11.279  10.680
81723SOL    HW147066  14.291  11.369  10.677
81723SOL    HW247067  14.179  11.279  10.629
81724SOL     OW47068   0.610   3.261   1.159
81724SOL    HW147069   0.651   3.178   1.136
81724SOL    HW247070   0.520   3.253   1.126
81725SOL     OW47071   1.771  11.203  12.476
81725SOL    HW147072   1.767  11.111  12.450
81725SOL    HW247073   1.699  11.244  12.429
81726SOL     OW47074  13.280  14.174  13.485
81726SOL    HW147075  13.325  14.257  13.471
81726SOL    HW247076  13.278  14.164  13.580
81727SOL     OW47077  14.454  11.311   4.542
81727SOL    HW147078  14.418  11.286   4.456
81727SOL    HW247079  14.384  11.362   4.583
81728SOL     OW47080   0.041  13.923  13.754
81728SOL    HW147081   0.005  14.012  13.756
81728SOL    HW247082   0.107  13.926  13.684
81729SOL     OW47083  13.330  11.033  12.362
81729SOL    HW147084  13.393  11.011  12.430
81729SOL    HW247085  13.342  11.127  12.347
81730SOL     OW47086   6.333  10.615  14.112
81730SOL    HW147087   6.345  10.692  14.058
81730SOL    HW247088   6.406  10.616  14.173
81731SOL     OW47089  14.423  12.855  10.322
81731SOL    HW147090  14.458  12.785  10.377
81731SOL    HW247091  14.334  12.826  10.301
81732SOL     OW47092   0.535   7.906  14.351
81732SOL    HW147093   0.515   7.975  14.287
81732SOL    HW247094   0.627   7.884  14.334
81733SOL     OW47095  13.724   5.829   5.462
81733SOL    HW147096  13.731   5.769   5.535
81733SOL    HW247097  13.631   5.827   5.437
81734SOL     OW47098   1.559   9.910   8.970
81734SOL    HW147099   1.605   9.975   9.023
81734SOL    HW247100   1.483   9.957   8.935
81735SOL     OW47101  11.993   9.724   0.271
81735SOL    HW147102  12.038   9.689   0.348
81735SOL    HW247103  11.911   9.759   0.306
81736SOL     OW47104   1.201   2.670   6.134
81736SOL    HW147105   1.288   2.672   6.094
81736SOL    HW247106   1.215   2.625   6.218
81737SOL     OW47107   4.968  11.994   0.026
81737SOL    HW147108   4.996  12.064  14.849
81737SOL    HW247109   5.044  11.980   0.084
81738SOL     OW47110   2.244   0.637  13.778
81738SOL    HW147111   2.262   0.712  13.835
81738SOL    HW247112   2.196   0.576  13.834
81739SOL     OW47113  12.406   3.395   7.337
81739SOL    HW147114  12.416   3.399   7.242
81739SOL    HW247115  12.316   3.367   7.351
81740SOL     OW47116  13.825  14.774   8.238
81740SOL    HW147117  13.742  14.807   8.272
81740SOL    HW247118  13.889  14.840   8.264
81741SOL     OW47119   3.093  14.226   1.321
81741SOL    HW147120   3.057  14.137   1.313
81741SOL    HW247121   3.051  14.262   1.399
81742SOL     OW47122  10.509  13.772  12.326
81742SOL    HW147123  10.595  13.814  12.331
81742SOL    HW247124  10.513  13.703  12.393
81743SOL     OW47125   5.566   4.879  13.016
81743SOL    HW147126   5.601   4.797  13.048
81743SOL    HW247127   5.471   4.867  13.017
81744SOL     OW47128   5.351   2.077  14.136
81744SOL    HW147129   5.317   2.006  14.081
81744SOL    HW247130   5.445   2.080  14.115
81745SOL     OW47131   5.050   7.461   0.491
81745SOL    HW147132   4.992   7.530   0.523
81745SOL    HW247133   5.066   7.483   0.400
81746SOL     OW47134  12.726   7.487   4.650
81746SOL    HW147135  12.816   7.472   4.680
81746SOL    HW247136  12.702   7.405   4.606
81747SOL     OW47137  12.471   0.348   8.253
81747SOL    HW147138  12.565   0.362   8.266
81747SOL    HW247139  12.451   0.266   8.298
81748SOL     OW47140   7.671   0.293  13.723
81748SOL    HW147141   7.589   0.244  13.729
81748SOL    HW247142   7.654   0.361  13.658
81749SOL     OW47143  14.171   9.658  14.262
81749SOL    HW147144  14.185   9.598  14.335
81749SOL    HW247145  14.112   9.610  14.203
81750SOL     OW47146   5.529   4.513  11.880
81750SOL    HW147147   5.568   4.530  11.966
81750SOL    HW247148   5.441   4.551  11.885
81751SOL     OW47149   2.379  12.736  13.232
81751SOL    HW147150   2.418  12.660  13.189
81751SOL    HW247151   2.420  12.811  13.190
81752SOL     OW47152   1.813   4.101   1.046
81752SOL    HW147153   1.864   4.135   1.120
81752SOL    HW247154   1.750   4.041   1.085
81753SOL     OW47155   3.394  14.292   6.683
81753SOL    HW147156   3.471  14.271   6.631
81753SOL    HW247157   3.328  14.319   6.620
81754SOL     OW47158  11.218   9.377   3.934
81754SOL    HW147159  11.131   9.346   3.908
81754SOL    HW247160  11.203   9.424   4.016
81755SOL     OW47161  11.421  10.137   5.350
81755SOL    HW147162  11.481  10.199   5.391
81755SOL    HW247163  11.459  10.121   5.263
81756SOL     OW47164   8.217   8.109  12.638
81756SOL    HW147165   8.309   8.130  12.649
81756SOL    HW247166   8.214   8.054  12.559
81757SOL     OW47167   3.176  14.748   1.547
81757SOL    HW147168   3.256  14.696   1.542
81757SOL    HW247169   3.177  14.784   1.636
81758SOL     OW47170   0.472   5.378  13.976
81758SOL    HW147171   0.405   5.446  13.965
81758SOL    HW247172   0.461   5.349  14.066
81759SOL     OW47173   9.130   1.753  10.541
81759SOL    HW147174   9.069   1.723  10.608
81759SOL    HW247175   9.083   1.741  10.458
81760SOL     OW47176   0.104   7.907   3.823
81760SOL    HW147177   0.188   7.873   3.792
81760SOL    HW247178   0.115   8.002   3.825
81761SOL     OW47179   3.461   4.303   1.212
81761SOL    HW147180   3.457   4.234   1.146
81761SOL    HW247181   3.467   4.384   1.162
81762SOL     OW47182   9.226  14.137  14.855
81762SOL    HW147183   9.319  14.153  14.868
81762SOL    HW247184   9.183  14.216   0.007
81763SOL     OW47185   7.342   1.418  10.599
81763SOL    HW147186   7.367   1.404  10.508
81763SOL    HW247187   7.409   1.373  10.650
81764SOL     OW47188  13.255   5.614   9.557
81764SOL    HW147189  13.263   5.548   9.488
81764SOL    HW247190  13.293   5.572   9.634
81765SOL     OW47191   1.612   4.345  10.639
81765SOL    HW147192   1.695   4.298  10.649
81765SOL    HW247193   1.551   4.279  10.605
81766SOL     OW47194  11.902  12.756   6.102
81766SOL    HW147195  11.921  12.849   6.091
81766SOL    HW247196  11.970  12.712   6.051
81767SOL     OW47197   4.990   5.478   2.746
81767SOL    HW147198   4.916   5.453   2.801
81767SOL    HW247199   4.968   5.446   2.659
81768SOL     OW47200   4.009   1.195   8.710
81768SOL    HW147201   3.973   1.152   8.632
81768SOL    HW247202   4.030   1.122   8.769
81769SOL     OW47203   5.161   7.730   9.775
81769SOL    HW147204   5.220   7.713   9.702
81769SOL    HW247205   5.074   7.713   9.739
81770SOL     OW47206  11.629  13.159   5.749
81770SOL    HW147207  11.706  13.151   5.692
81770SOL    HW247208  11.665  13.180   5.835
81771SOL     OW47209   1.567   6.273  13.074
81771SOL    HW147210   1.591   6.200  13.131
81771SOL    HW247211   1.638   6.279  13.011
81772SOL     OW47212   7.836   6.168   1.129
81772SOL    HW147213   7.821   6.079   1.160
81772SOL    HW247214   7.749   6.203   1.111
81773SOL     OW47215   1.799  11.617  14.479
81773SOL    HW147216   1.790  11.525  14.454
81773SOL    HW247217   1.827  11.661  14.399
81774SOL     OW47218   6.045   4.873  12.083
81774SOL    HW147219   6.072   4.912  12.166
81774SOL    HW247220   6.122   4.884  12.026
81775SOL     OW47221   9.160   1.951  11.378
81775SOL    HW147222   9.133   1.859  11.380
81775SOL    HW247223   9.108   1.993  11.447
81776SOL     OW47224   5.845   1.053  14.878
81776SOL    HW147225   5.774   1.001   0.032
81776SOL    HW247226   5.875   1.004  14.802
81777SOL     OW47227   3.425   6.188  11.751
81777SOL    HW147228   3.395   6.110  11.705
81777SOL    HW247229   3.415   6.167  11.844
81778SOL     OW47230   9.243   6.959   3.671
81778SOL    HW147231   9.157   6.951   3.631
81778SOL    HW247232   9.282   7.037   3.631
81779SOL     OW47233  12.853   8.245  12.241
81779SOL    HW147234  12.831   8.165  12.290
81779SOL    HW247235  12.784   8.252  12.175
81780SOL     OW47236   7.587   3.852  11.838
81780SOL    HW147237   7.640   3.799  11.779
81780SOL    HW247238   7.616   3.828  11.926
81781SOL     OW47239   7.758   1.996  12.406
81781SOL    HW147240   7.803   1.980  12.488
81781SOL    HW247241   7.827   1.992  12.339
81782SOL     OW47242   3.424   9.585   4.977
81782SOL    HW147243   3.449   9.645   5.047
81782SOL    HW247244   3.366   9.522   5.019
81783SOL     OW47245   5.704  10.910   6.559
81783SOL    HW147246   5.735  11.000   6.570
81783SOL    HW247247   5.610  10.918   6.548
81784SOL     OW47248   6.517   4.295   7.441
81784SOL    HW147249   6.576   4.368   7.460
81784SOL    HW247250   6.508   4.249   7.525
81785SOL     OW47251   2.935  11.576   7.106
81785SOL    HW147252   2.840  11.591   7.112
81785SOL    HW247253   2.965  11.576   7.197
81786SOL     OW47254   9.385  12.772   1.604
81786SOL    HW147255   9.316  12.808   1.660
81786SOL    HW247256   9.346  12.771   1.516
81787SOL     OW47257   7.193  10.017  14.460
81787SOL    HW147258   7.222   9.982  14.544
81787SOL    HW247259   7.275  10.037  14.414
81788SOL     OW47260   8.351   2.018   7.435
81788SOL    HW147261   8.318   2.095   7.388
81788SOL    HW247262   8.436   2.000   7.394
81789SOL     OW47263  11.092   8.524   9.310
81789SOL    HW147264  11.077   8.500   9.219
81789SOL    HW247265  11.175   8.482   9.333
81790SOL     OW47266  13.303   8.903  13.576
81790SOL    HW147267  13.288   8.809  13.587
81790SOL    HW247268  13.217   8.938  13.550
81791SOL     OW47269  13.511  12.756   8.550
81791SOL    HW147270  13.508  12.666   8.519
81791SOL    HW247271  13.436  12.763   8.610
81792SOL     OW47272  10.903  13.936  10.321
81792SOL    HW147273  10.989  13.968  10.293
81792SOL    HW247274  10.898  13.847  10.286
81793SOL     OW47275  12.545   9.702   0.972
81793SOL    HW147276  12.511   9.680   0.885
81793SOL    HW247277  12.497   9.781   0.997
81794SOL     OW47278  13.179   4.878  13.177
81794SOL    HW147279  13.194   4.929  13.257
81794SOL    HW247280  13.092   4.840  13.189
81795SOL     OW47281   2.759   1.116  10.479
81795SOL    HW147282   2.687   1.176  10.495
81795SOL    HW247283   2.829   1.171  10.444
81796SOL     OW47284   7.737   9.930   4.561
81796SOL    HW147285   7.669   9.996   4.544
81796SOL    HW247286   7.722   9.903   4.652
81797SOL     OW47287  14.268  13.308   5.880
81797SOL    HW147288  14.214  13.300   5.958
81797SOL    HW247289  14.337  13.369   5.904
81798SOL     OW47290  12.433   2.939  12.698
81798SOL    HW147291  12.493   2.864  12.693
81798SOL    HW247292  12.375   2.927  12.622
81799SOL     OW47293  10.553  11.799   2.389
81799SOL    HW147294  10.627  11.778   2.332
81799SOL    HW247295  10.575  11.760   2.473
81800SOL     OW47296   5.812  11.108  12.899
81800SOL    HW147297   5.880  11.115  12.832
81800SOL    HW247298   5.831  11.180  12.960
81801SOL     OW47299  12.631   0.077   3.986
81801SOL    HW147300  12.585   0.138   4.044
81801SOL    HW247301  12.713   0.123   3.963
81802SOL     OW47302   8.768  14.265   1.360
81802SOL    HW147303   8.677  14.236   1.356
81802SOL    HW247304   8.775  14.332   1.293
81803SOL     OW47305  10.960   7.591   4.139
81803SOL    HW147306  10.985   7.652   4.208
81803SOL    HW247307  10.924   7.647   4.070
81804SOL     OW47308   3.262  13.384  14.581
81804SOL    HW147309   3.177  13.369  14.622
81804SOL    HW247310   3.294  13.465  14.621
81805SOL     OW47311   1.010   8.958  10.157
81805SOL    HW147312   0.916   8.957  10.141
81805SOL    HW247313   1.032   9.050  10.174
81806SOL     OW47314   7.998   7.489   9.583
81806SOL    HW147315   8.015   7.556   9.649
81806SOL    HW247316   7.922   7.441   9.616
81807SOL     OW47317  14.755  13.110   9.478
81807SOL    HW147318  14.844  13.129   9.449
81807SOL    HW247319  14.758  13.019   9.507
81808SOL     OW47320  11.570  12.272  10.867
81808SOL    HW147321  11.608  12.302  10.785
81808SOL    HW247322  11.629  12.203  10.897
81809SOL     OW47323   1.130   4.530   8.579
81809SOL    HW147324   1.175   4.566   8.656
81809SOL    HW247325   1.104   4.607   8.529
81810SOL     OW47326   1.931   8.268  14.619
81810SOL    HW147327   1.960   8.185  14.655
81810SOL    HW247328   1.839   8.253  14.594
81811SOL     OW47329   2.637   8.149   6.133
81811SOL    HW147330   2.691   8.177   6.207
81811SOL    HW247331   2.698   8.102   6.076
81812SOL     OW47332   5.888   4.638   6.876
81812SOL    HW147333   5.979   4.653   6.900
81812SOL    HW247334   5.838   4.685   6.943
81813SOL     OW47335   1.087   6.612  13.724
81813SOL    HW147336   1.110   6.653  13.641
81813SOL    HW247337   1.046   6.529  13.699
81814SOL     OW47338   4.283   3.420   9.641
81814SOL    HW147339   4.297   3.424   9.736
81814SOL    HW247340   4.206   3.474   9.626
81815SOL     OW47341   3.160   5.083   1.043
81815SOL    HW147342   3.208   5.000   1.034
81815SOL    HW247343   3.228   5.150   1.036
81816SOL     OW47344  10.532   2.658  10.158
81816SOL    HW147345  10.595   2.644  10.228
81816SOL    HW247346  10.545   2.750  10.132
81817SOL     OW47347   9.064  13.867  14.589
81817SOL    HW147348   8.985  13.834  14.634
81817SOL    HW247349   9.136  13.841  14.646
81818SOL     OW47350  11.036   9.385  14.531
81818SOL    HW147351  11.063   9.400  14.621
81818SOL    HW247352  10.944   9.359  14.537
81819SOL     OW47353   1.557  10.116   7.677
81819SOL    HW147354   1.596  10.146   7.759
81819SOL    HW247355   1.555  10.021   7.685
81820SOL     OW47356   9.534   4.629   7.446
81820SOL    HW147357   9.527   4.669   7.533
81820SOL    HW247358   9.501   4.696   7.386
81821SOL     OW47359   3.338  11.484  14.697
81821SOL    HW147360   3.253  11.526  14.682
81821SOL    HW247361   3.370  11.463  14.609
81822SOL     OW47362  13.143   6.932  14.092
81822SOL    HW147363  13.163   6.999  14.157
81822SOL    HW247364  13.047   6.925  14.094
81823SOL     OW47365  12.646  13.153  12.419
81823SOL    HW147366  12.551  13.156  12.410
81823SOL    HW247367  12.676  13.100  12.345
81824SOL     OW47368  13.963   5.890   4.680
81824SOL    HW147369  13.975   5.974   4.635
81824SOL    HW247370  13.877   5.897   4.720
81825SOL     OW47371   3.331   9.491   9.877
81825SOL    HW147372   3.424   9.503   9.859
81825SOL    HW247373   3.324   9.492   9.972
81826SOL     OW47374  13.389   6.349   4.343
81826SOL    HW147375  13.428   6.404   4.411
81826SOL    HW247376  13.300   6.383   4.332
81827SOL     OW47377  14.799  14.315   5.794
81827SOL    HW147378  14.844  14.281   5.716
81827SOL    HW247379  14.717  14.266   5.797
81828SOL     OW47380   7.458   3.405  11.592
81828SOL    HW147381   7.491   3.457  11.518
81828SOL    HW247382   7.399   3.342  11.552
81829SOL     OW47383   2.659   9.102   1.342
81829SOL    HW147384   2.712   9.068   1.414
81829SOL    HW247385   2.703   9.183   1.315
81830SOL     OW47386   0.293   7.618  12.135
81830SOL    HW147387   0.230   7.547  12.126
81830SOL    HW247388   0.370   7.588  12.087
81831SOL     OW47389   0.354  12.657   3.330
81831SOL    HW147390   0.272  12.612   3.308
81831SOL    HW247391   0.386  12.692   3.246
81832SOL     OW47392   3.921  12.116   7.324
81832SOL    HW147393   3.949  12.026   7.307
81832SOL    HW247394   3.923  12.125   7.419
81833SOL     OW47395   9.355  14.395   3.306
81833SOL    HW147396   9.280  14.348   3.340
81833SOL    HW247397   9.389  14.340   3.235
81834SOL     OW47398   4.547   6.184  14.259
81834SOL    HW147399   4.570   6.095  14.285
81834SOL    HW247400   4.486   6.173  14.185
81835SOL     OW47401   8.773  12.643   0.821
81835SOL    HW147402   8.757  12.671   0.911
81835SOL    HW247403   8.856  12.683   0.797
81836SOL     OW47404  14.108   6.046  13.848
81836SOL    HW147405  14.183   6.095  13.880
81836SOL    HW247406  14.033   6.083  13.895
81837SOL     OW47407   3.182  13.441  10.350
81837SOL    HW147408   3.161  13.477  10.264
81837SOL    HW247409   3.115  13.374  10.364
81838SOL     OW47410   9.014   0.778   2.941
81838SOL    HW147411   8.992   0.867   2.914
81838SOL    HW247412   8.987   0.723   2.867
81839SOL     OW47413  12.535  10.164   6.902
81839SOL    HW147414  12.533  10.068   6.905
81839SOL    HW247415  12.540  10.185   6.809
81840SOL     OW47416  14.006   0.289   2.879
81840SOL    HW147417  14.028   0.304   2.787
81840SOL    HW247418  14.090   0.273   2.922
81841SOL     OW47419   7.054   9.129   5.954
81841SOL    HW147420   7.011   9.123   6.039
81841SOL    HW247421   7.147   9.136   5.975
81842SOL     OW47422   9.394   1.385   7.704
81842SOL    HW147423   9.300   1.380   7.685
81842SOL    HW247424   9.407   1.473   7.738
81843SOL     OW47425   8.927   1.373   1.998
81843SOL    HW147426   9.006   1.393   1.949
81843SOL    HW247427   8.857   1.373   1.933
81844SOL     OW47428   6.601  11.115   0.785
81844SOL    HW147429   6.615  11.207   0.764
81844SOL    HW247430   6.659  11.067   0.725
81845SOL     OW47431   2.593   5.638  10.225
81845SOL    HW147432   2.584   5.705  10.293
81845SOL    HW247433   2.503   5.622  10.195
81846SOL     OW47434   9.061   7.777  12.327
81846SOL    HW147435   9.040   7.758  12.235
81846SOL    HW247436   8.976   7.788  12.369
81847SOL     OW47437   7.209   4.878   1.381
81847SOL    HW147438   7.140   4.885   1.447
81847SOL    HW247439   7.182   4.806   1.325
81848SOL     OW47440  12.866   5.057   1.536
81848SOL    HW147441  12.856   5.001   1.459
81848SOL    HW247442  12.948   5.028   1.577
81849SOL     OW47443   6.697  11.051  14.248
81849SOL    HW147444   6.690  11.131  14.300
81849SOL    HW247445   6.673  11.078  14.160
81850SOL     OW47446   3.001   4.917   6.228
81850SOL    HW147447   2.942   4.930   6.303
81850SOL    HW247448   3.062   4.850   6.257
81851SOL     OW47449  10.265   1.026   9.672
81851SOL    HW147450  10.336   0.965   9.690
81851SOL    HW247451  10.298   1.111   9.700
81852SOL     OW47452  14.582   6.938   9.430
81852SOL    HW147453  14.563   6.941   9.336
81852SOL    HW247454  14.505   6.978   9.471
81853SOL     OW47455   0.469   3.890  11.474
81853SOL    HW147456   0.469   3.812  11.529
81853SOL    HW247457   0.560   3.920  11.475
81854SOL     OW47458   9.816   0.557   5.035
81854SOL    HW147459   9.860   0.511   5.106
81854SOL    HW247460   9.736   0.591   5.075
81855SOL     OW47461  14.241   3.054   0.292
81855SOL    HW147462  14.306   2.986   0.311
81855SOL    HW247463  14.240   3.061   0.197
81856SOL     OW47464   4.563  10.157  10.537
81856SOL    HW147465   4.610  10.157  10.621
81856SOL    HW247466   4.513  10.075  10.537
81857SOL     OW47467   0.404  13.178   7.217
81857SOL    HW147468   0.479  13.197   7.161
81857SOL    HW247469   0.440  13.125   7.288
81858SOL     OW47470   1.448   2.328   5.232
81858SOL    HW147471   1.534   2.314   5.193
81858SOL    HW247472   1.433   2.423   5.224
81859SOL     OW47473   8.347   2.393  12.432
81859SOL    HW147474   8.358   2.319  12.492
81859SOL    HW247475   8.295   2.357  12.360
81860SOL     OW47476   4.268  13.256  14.479
81860SOL    HW147477   4.183  13.272  14.438
81860SOL    HW247478   4.246  13.215  14.563
81861SOL     OW47479   2.093   9.850  14.176
81861SOL    HW147480   2.143   9.816  14.251
81861SOL    HW247481   2.135   9.810  14.100
81862SOL     OW47482  11.117   6.745   2.355
81862SOL    HW147483  11.119   6.801   2.277
81862SOL    HW247484  11.042   6.687   2.341
81863SOL     OW47485   9.378   4.566   6.907
81863SOL    HW147486   9.464   4.600   6.929
81863SOL    HW247487   9.396   4.495   6.845
81864SOL     OW47488   2.445   0.546   6.517
81864SOL    HW147489   2.475   0.473   6.463
81864SOL    HW247490   2.414   0.611   6.455
81865SOL     OW47491   9.287  13.864  13.960
81865SOL    HW147492   9.379  13.849  13.939
81865SOL    HW247493   9.289  13.912  14.043
81866SOL     OW47494  12.664   5.632   0.502
81866SOL    HW147495  12.578   5.621   0.541
81866SOL    HW247496  12.722   5.577   0.555
81867SOL     OW47497   7.540   2.096  11.781
81867SOL    HW147498   7.482   2.141  11.720
81867SOL    HW247499   7.496   2.014  11.801
81868SOL     OW47500   6.504  14.042   1.170
81868SOL    HW147501   6.412  14.069   1.165
81868SOL    HW247502   6.518  13.991   1.091
81869SOL     OW47503   6.548  14.593  10.492
81869SOL    HW147504   6.484  14.531  10.526
81869SOL    HW247505   6.603  14.616  10.567
81870SOL     OW47506   2.595   8.950  12.564
81870SOL    HW147507   2.660   9.014  12.595
81870SOL    HW247508   2.565   8.906  12.644
81871SOL     OW47509   6.759  12.588   5.328
81871SOL    HW147510   6.740  12.560   5.239
81871SOL    HW247511   6.699  12.537   5.383
81872SOL     OW47512   8.340  11.632  10.740
81872SOL    HW147513   8.408  11.591  10.793
81872SOL    HW247514   8.332  11.720  10.776
81873SOL     OW47515  11.208   3.276   6.081
81873SOL    HW147516  11.164   3.357   6.056
81873SOL    HW247517  11.160   3.246   6.158
81874SOL     OW47518   5.518   8.973   1.730
81874SOL    HW147519   5.531   9.052   1.783
81874SOL    HW247520   5.518   8.901   1.793
81875SOL     OW47521   1.447   9.582  12.171
81875SOL    HW147522   1.417   9.615  12.086
81875SOL    HW247523   1.505   9.509  12.149
81876SOL     OW47524   4.727  13.614   7.948
81876SOL    HW147525   4.754  13.615   8.040
81876SOL    HW247526   4.798  13.658   7.901
81877SOL     OW47527   6.681   2.145   3.914
81877SOL    HW147528   6.657   2.057   3.886
81877SOL    HW247529   6.631   2.159   3.994
81878SOL     OW47530  10.716   9.880  12.540
81878SOL    HW147531  10.667   9.941  12.486
81878SOL    HW247532  10.660   9.802  12.544
81879SOL     OW47533  13.748  11.762  12.923
81879SOL    HW147534  13.732  11.856  12.929
81879SOL    HW247535  13.821  11.747  12.982
81880SOL     OW47536   5.360   0.693  10.907
81880SOL    HW147537   5.430   0.722  10.847
81880SOL    HW247538   5.364   0.598  10.904
81881SOL     OW47539   6.474   8.473   2.554
81881SOL    HW147540   6.528   8.547   2.527
81881SOL    HW247541   6.523   8.396   2.526
81882SOL     OW47542   7.368  14.654  11.515
81882SOL    HW147543   7.337  14.584  11.458
81882SOL    HW247544   7.389  14.611  11.597
81883SOL     OW47545  10.835   1.721  10.508
81883SOL    HW147546  10.767   1.767  10.557
81883SOL    HW247547  10.816   1.739  10.416
81884SOL     OW47548   1.992   4.365  12.653
81884SOL    HW147549   1.905   4.400  12.633
81884SOL    HW247550   1.982   4.324  12.739
81885SOL     OW47551  11.355   2.389  14.348
81885SOL    HW147552  11.365   2.407  14.441
81885SOL    HW247553  11.294   2.315  14.344
81886SOL     OW47554   9.826   9.734   6.528
81886SOL    HW147555   9.858   9.720   6.439
81886SOL    HW247556   9.731   9.734   6.520
81887SOL     OW47557  10.702   4.083   0.749
81887SOL    HW147558  10.778   4.050   0.797
81887SOL    HW247559  10.739   4.120   0.668
81888SOL     OW47560   1.453   3.469  13.900
81888SOL    HW147561   1.540   3.503  13.921
81888SOL    HW247562   1.395   3.513  13.961
81889SOL     OW47563   9.491   1.611   7.786
81889SOL    HW147564   9.524   1.685   7.837
81889SOL    HW247565   9.562   1.592   7.724
81890SOL     OW47566   2.851   9.538   2.438
81890SOL    HW147567   2.790   9.593   2.388
81890SOL    HW247568   2.930   9.592   2.446
81891SOL     OW47569   2.017   3.081  14.577
81891SOL    HW147570   2.013   3.017  14.505
81891SOL    HW247571   2.046   3.162  14.534
81892SOL     OW47572  11.340   8.272   0.160
81892SOL    HW147573  11.385   8.228   0.087
81892SOL    HW247574  11.410   8.301   0.218
81893SOL     OW47575   8.959   6.851   8.547
81893SOL    HW147576   9.004   6.842   8.631
81893SOL    HW247577   8.994   6.931   8.509
81894SOL     OW47578   8.753   4.033   8.939
81894SOL    HW147579   8.803   4.106   8.974
81894SOL    HW247580   8.665   4.069   8.925
81895SOL     OW47581   3.881  11.584   0.747
81895SOL    HW147582   3.795  11.557   0.717
81895SOL    HW247583   3.924  11.621   0.670
81896SOL     OW47584   1.939  13.385   8.458
81896SOL    HW147585   2.012  13.406   8.400
81896SOL    HW247586   1.910  13.298   8.431
81897SOL     OW47587   4.049   0.294  10.277
81897SOL    HW147588   4.101   0.231  10.327
81897SOL    HW247589   4.095   0.377  10.289
81898SOL     OW47590   8.195  13.668  11.976
81898SOL    HW147591   8.115  13.621  11.999
81898SOL    HW247592   8.168  13.732  11.911
81899SOL     OW47593  13.011   4.998   9.088
81899SOL    HW147594  12.979   5.081   9.123
81899SOL    HW247595  12.940   4.936   9.105
81900SOL     OW47596   6.193  10.365   4.618
81900SOL    HW147597   6.252  10.302   4.577
81900SOL    HW247598   6.140  10.400   4.546
81901SOL     OW47599   2.483   2.916   3.567
81901SOL    HW147600   2.462   2.829   3.600
81901SOL    HW247601   2.460   2.912   3.474
81902SOL     OW47602   9.922   0.115   2.535
81902SOL    HW147603   9.865   0.106   2.611
81902SOL    HW247604   9.898   0.199   2.497
81903SOL     OW47605   6.258   3.165  11.658
81903SOL    HW147606   6.189   3.202  11.602
81903SOL    HW247607   6.229   3.076  11.677
81904SOL     OW47608   3.780  11.274  14.286
81904SOL    HW147609   3.873  11.254  14.286
81904SOL    HW247610   3.774  11.361  14.247
81905SOL     OW47611   5.925  12.335  12.414
81905SOL    HW147612   5.992  12.363  12.352
81905SOL    HW247613   5.971  12.279  12.476
81906SOL     OW47614   5.127   6.967   1.986
81906SOL    HW147615   5.122   6.965   1.890
81906SOL    HW247616   5.218   6.943   2.005
81907SOL     OW47617   7.174   2.850  10.163
81907SOL    HW147618   7.177   2.757  10.143
81907SOL    HW247619   7.265   2.879  10.159
81908SOL     OW47620   5.231  13.307   2.019
81908SOL    HW147621   5.237  13.301   1.924
81908SOL    HW247622   5.322  13.300   2.049
81909SOL     OW47623   9.382   2.689   3.434
81909SOL    HW147624   9.324   2.751   3.390
81909SOL    HW247625   9.332   2.608   3.440
81910SOL     OW47626   5.321  12.094   1.094
81910SOL    HW147627   5.245  12.087   1.151
81910SOL    HW247628   5.396  12.079   1.153
81911SOL     OW47629   9.288  10.197   6.215
81911SOL    HW147630   9.321  10.283   6.190
81911SOL    HW247631   9.195  10.199   6.190
81912SOL     OW47632   0.993   2.052  14.554
81912SOL    HW147633   0.941   2.128  14.527
81912SOL    HW247634   1.030   2.019  14.473
81913SOL     OW47635   0.569   5.161   5.209
81913SOL    HW147636   0.517   5.099   5.158
81913SOL    HW247637   0.651   5.169   5.161
81914SOL     OW47638   5.167   7.587   1.200
81914SOL    HW147639   5.111   7.539   1.262
81914SOL    HW247640   5.106   7.619   1.133
81915SOL     OW47641   0.026   0.991  11.880
81915SOL    HW147642  14.875   1.063  11.934
81915SOL    HW247643  14.868   0.913  11.917
81916SOL     OW47644  13.263   3.514  10.005
81916SOL    HW147645  13.352   3.483   9.990
81916SOL    HW247646  13.229   3.455  10.073
81917SOL     OW47647   8.118  14.679   3.442
81917SOL    HW147648   8.064  14.696   3.519
81917SOL    HW247649   8.161  14.763   3.424
81918SOL     OW47650   0.310   1.945   8.355
81918SOL    HW147651   0.358   1.881   8.408
81918SOL    HW247652   0.248   1.893   8.304
81919SOL     OW47653  10.518  10.510   8.344
81919SOL    HW147654  10.461  10.444   8.304
81919SOL    HW247655  10.460  10.583   8.364
81920SOL     OW47656   8.383  14.305   6.019
81920SOL    HW147657   8.342  14.220   6.005
81920SOL    HW247658   8.475  14.284   6.036
81921SOL     OW47659   0.007   5.867   2.871
81921SOL    HW147660   0.101   5.856   2.888
81921SOL    HW247661  14.860   5.781   2.842
81922SOL     OW47662   4.384  13.494   4.395
81922SOL    HW147663   4.437  13.543   4.332
81922SOL    HW247664   4.345  13.561   4.451
81923SOL     OW47665   1.311   6.107   6.039
81923SOL    HW147666   1.232   6.058   6.062
81923SOL    HW247667   1.287   6.155   5.960
81924SOL     OW47668  11.435   6.007  11.186
81924SOL    HW147669  11.486   6.072  11.137
81924SOL    HW247670  11.470   6.011  11.275
81925SOL     OW47671  12.671  11.825   2.126
81925SOL    HW147672  12.728  11.876   2.184
81925SOL    HW247673  12.617  11.891   2.082
81926SOL     OW47674  11.142   8.670   9.839
81926SOL    HW147675  11.056   8.703   9.813
81926SOL    HW247676  11.135   8.659   9.934
81927SOL     OW47677   5.650   3.754  12.983
81927SOL    HW147678   5.712   3.723  13.048
81927SOL    HW247679   5.620   3.675  12.938
81928SOL     OW47680  13.782  12.455   8.518
81928SOL    HW147681  13.852  12.393   8.498
81928SOL    HW247682  13.801  12.531   8.463
81929SOL     OW47683   4.082   1.586  14.121
81929SOL    HW147684   4.164   1.595  14.073
81929SOL    HW247685   4.078   1.663  14.177
81930SOL     OW47686   0.358  10.448   7.457
81930SOL    HW147687   0.445  10.425   7.490
81930SOL    HW247688   0.330  10.373   7.405
81931SOL     OW47689   5.217   2.464  10.243
81931SOL    HW147690   5.156   2.393  10.266
81931SOL    HW247691   5.188   2.538  10.297
81932SOL     OW47692  12.455   2.564   9.449
81932SOL    HW147693  12.481   2.641   9.399
81932SOL    HW247694  12.503   2.572   9.531
81933SOL     OW47695   9.401  11.656   6.386
81933SOL    HW147696   9.417  11.573   6.341
81933SOL    HW247697   9.412  11.635   6.478
81934SOL     OW47698  12.010   4.180   1.622
81934SOL    HW147699  12.039   4.124   1.550
81934SOL    HW247700  11.958   4.248   1.580
81935SOL     OW47701   6.310   7.106   4.669
81935SOL    HW147702   6.336   7.146   4.586
81935SOL    HW247703   6.221   7.138   4.684
81936SOL     OW47704  13.351  13.952  11.163
81936SOL    HW147705  13.342  13.893  11.088
81936SOL    HW247706  13.293  13.915  11.230
81937SOL     OW47707   2.145   9.967   4.891
81937SOL    HW147708   2.106  10.053   4.875
81937SOL    HW247709   2.224   9.966   4.837
81938SOL     OW47710   2.611   9.549   9.871
81938SOL    HW147711   2.631   9.638   9.843
81938SOL    HW247712   2.549   9.560   9.943
81939SOL     OW47713  12.622   0.540   8.840
81939SOL    HW147714  12.552   0.577   8.894
81939SOL    HW247715  12.697   0.534   8.900
81940SOL     OW47716   1.826   9.592   8.632
81940SOL    HW147717   1.827   9.687   8.636
81940SOL    HW247718   1.897   9.564   8.689
81941SOL     OW47719   2.668   7.377   2.268
81941SOL    HW147720   2.643   7.391   2.359
81941SOL    HW247721   2.635   7.290   2.246
81942SOL     OW47722   2.184   9.308   4.182
81942SOL    HW147723   2.225   9.355   4.255
81942SOL    HW247724   2.149   9.229   4.222
81943SOL     OW47725   8.898   4.313  11.612
81943SOL    HW147726   8.914   4.222  11.586
81943SOL    HW247727   8.983   4.355  11.605
81944SOL     OW47728   2.149   8.582  11.034
81944SOL    HW147729   2.145   8.530  11.114
81944SOL    HW247730   2.149   8.673  11.064
81945SOL     OW47731   1.708   8.030  11.075
81945SOL    HW147732   1.710   7.991  11.162
81945SOL    HW247733   1.716   7.956  11.015
81946SOL     OW47734   1.051   5.147  12.909
81946SOL    HW147735   1.127   5.204  12.915
81946SOL    HW247736   1.017   5.161  12.820
81947SOL     OW47737   5.010   2.313   0.912
81947SOL    HW147738   5.078   2.370   0.947
81947SOL    HW247739   4.972   2.362   0.839
81948SOL     OW47740   3.024   0.661   4.088
81948SOL    HW147741   2.944   0.663   4.034
81948SOL    HW247742   3.089   0.709   4.036
81949SOL     OW47743   6.566  11.136   1.405
81949SOL    HW147744   6.651  11.097   1.382
81949SOL    HW247745   6.562  11.129   1.500
81950SOL     OW47746  14.059   4.457  10.706
81950SOL    HW147747  14.133   4.507  10.672
81950SOL    HW247748  14.073   4.452  10.800
81951SOL     OW47749   3.776   7.262   3.594
81951SOL    HW147750   3.817   7.228   3.515
81951SOL    HW247751   3.784   7.357   3.586
81952SOL     OW47752   3.043   0.735   7.533
81952SOL    HW147753   3.036   0.649   7.491
81952SOL    HW247754   3.122   0.729   7.586
81953SOL     OW47755   7.698   1.738  12.290
81953SOL    HW147756   7.709   1.810  12.353
81953SOL    HW247757   7.608   1.710  12.302
81954SOL     OW47758   3.486  14.822   3.029
81954SOL    HW147759   3.537  14.758   3.079
81954SOL    HW247760   3.456  14.773   2.952
81955SOL     OW47761  13.182   4.204  12.652
81955SOL    HW147762  13.168   4.290  12.614
81955SOL    HW247763  13.254   4.167  12.600
81956SOL     OW47764   5.571   8.713   4.452
81956SOL    HW147765   5.564   8.652   4.379
81956SOL    HW247766   5.531   8.667   4.526
81957SOL     OW47767  14.322  12.843   3.044
81957SOL    HW147768  14.370  12.898   2.982
81957SOL    HW247769  14.237  12.887   3.053
81958SOL     OW47770   5.050  11.263   9.691
81958SOL    HW147771   5.133  11.226   9.720
81958SOL    HW247772   4.994  11.259   9.769
81959SOL     OW47773  13.649   0.206  13.661
81959SOL    HW147774  13.715   0.272  13.644
81959SOL    HW247775  13.647   0.198  13.756
81960SOL     OW47776   8.639   1.601   3.972
81960SOL    HW147777   8.553   1.642   3.979
81960SOL    HW247778   8.669   1.624   3.885
81961SOL     OW47779   7.777  12.684  11.674
81961SOL    HW147780   7.781  12.609  11.614
81961SOL    HW247781   7.787  12.646  11.761
81962SOL     OW47782   2.446   2.097   0.718
81962SOL    HW147783   2.442   2.125   0.810
81962SOL    HW247784   2.442   2.002   0.722
81963SOL     OW47785  10.025   1.658  10.344
81963SOL    HW147786   9.974   1.587  10.304
81963SOL    HW247787   9.999   1.736  10.295
81964SOL     OW47788   6.050  13.700  10.091
81964SOL    HW147789   5.977  13.639  10.099
81964SOL    HW247790   6.034  13.745  10.008
81965SOL     OW47791   5.793  13.059  14.101
81965SOL    HW147792   5.726  13.006  14.060
81965SOL    HW247793   5.850  13.087  14.029
81966SOL     OW47794  10.458   5.266  10.235
81966SOL    HW147795  10.387   5.207  10.262
81966SOL    HW247796  10.532   5.241  10.290
81967SOL     OW47797   8.545   4.628  12.276
81967SOL    HW147798   8.629   4.662  12.306
81967SOL    HW247799   8.565   4.582  12.195
81968SOL     OW47800   4.983   1.984  11.491
81968SOL    HW147801   4.939   2.036  11.423
81968SOL    HW247802   5.061   2.035  11.514
81969SOL     OW47803   9.676  13.305   8.185
81969SOL    HW147804   9.719  13.238   8.132
81969SOL    HW247805   9.587  13.272   8.198
81970SOL     OW47806   4.062  13.836  10.498
81970SOL    HW147807   3.977  13.793  10.512
81970SOL    HW247808   4.046  13.898  10.427
81971SOL     OW47809   3.166   8.245  13.762
81971SOL    HW147810   3.114   8.257  13.682
81971SOL    HW247811   3.193   8.153  13.758
81972SOL     OW47812  12.113   9.478  12.998
81972SOL    HW147813  12.033   9.431  13.023
81972SOL    HW247814  12.156   9.419  12.935
81973SOL     OW47815   2.874   2.154  11.151
81973SOL    HW147816   2.858   2.074  11.100
81973SOL    HW247817   2.919   2.213  11.091
81974SOL     OW47818  13.297   8.389   8.773
81974SOL    HW147819  13.358   8.352   8.837
81974SOL    HW247820  13.345   8.462   8.733
81975SOL     OW47821  12.665  10.703   9.196
81975SOL    HW147822  12.641  10.669   9.283
81975SOL    HW247823  12.661  10.627   9.138
81976SOL     OW47824   6.736   8.526  13.702
81976SOL    HW147825   6.695   8.594  13.756
81976SOL    HW247826   6.744   8.567  13.616
81977SOL     OW47827   0.535   3.540   8.458
81977SOL    HW147828   0.470   3.609   8.472
81977SOL    HW247829   0.485   3.465   8.426
81978SOL     OW47830  12.760   8.209  11.083
81978SOL    HW147831  12.829   8.192  11.147
81978SOL    HW247832  12.689   8.149  11.107
81979SOL     OW47833  12.639   2.182  11.396
81979SOL    HW147834  12.568   2.167  11.458
81979SOL    HW247835  12.701   2.238  11.444
81980SOL     OW47836   7.036   8.736  10.677
81980SOL    HW147837   6.946   8.760  10.653
81980SOL    HW247838   7.088   8.761  10.601
81981SOL     OW47839   6.537   3.813   8.376
81981SOL    HW147840   6.568   3.898   8.406
81981SOL    HW247841   6.536   3.820   8.280
81982SOL     OW47842   7.484  13.883   6.060
81982SOL    HW147843   7.525  13.929   5.987
81982SOL    HW247844   7.550  13.819   6.087
81983SOL     OW47845   6.792   4.886   0.361
81983SOL    HW147846   6.773   4.810   0.416
81983SOL    HW247847   6.871   4.862   0.313
81984SOL     OW47848   6.767   2.093   6.832
81984SOL    HW147849   6.781   2.186   6.850
81984SOL    HW247850   6.805   2.048   6.907
81985SOL     OW47851  11.534   1.530  12.363
81985SOL    HW147852  11.445   1.554  12.335
81985SOL    HW247853  11.522   1.449  12.413
81986SOL     OW47854   7.539   1.532   4.009
81986SOL    HW147855   7.494   1.463   3.962
81986SOL    HW247856   7.573   1.489   4.088
81987SOL     OW47857   0.178   2.578   0.735
81987SOL    HW147858   0.144   2.499   0.778
81987SOL    HW247859   0.148   2.650   0.790
81988SOL     OW47860  13.712   8.486  13.077
81988SOL    HW147861  13.651   8.530  13.018
81988SOL    HW247862  13.694   8.525  13.163
81989SOL     OW47863   2.398  10.713   7.777
81989SOL    HW147864   2.324  10.769   7.752
81989SOL    HW247865   2.446  10.764   7.842
81990SOL     OW47866  12.393   4.246  14.034
81990SOL    HW147867  12.354   4.334  14.032
81990SOL    HW247868  12.455   4.249  14.106
81991SOL     OW47869   9.308  11.438   9.755
81991SOL    HW147870   9.399  11.440   9.725
81991SOL    HW247871   9.270  11.363   9.710
81992SOL     OW47872   5.989   1.712  13.518
81992SOL    HW147873   6.012   1.805  13.522
81992SOL    HW247874   6.064   1.671  13.474
81993SOL     OW47875  12.410   9.063  11.549
81993SOL    HW147876  12.337   9.016  11.508
81993SOL    HW247877  12.449   9.113  11.477
81994SOL     OW47878   9.205   5.798  11.726
81994SOL    HW147879   9.248   5.878  11.697
81994SOL    HW247880   9.126   5.828  11.772
81995SOL     OW47881  11.078  14.367   1.018
81995SOL    HW147882  11.155  14.312   1.018
81995SOL    HW247883  11.042  14.359   1.107
81996SOL     OW47884   4.651   8.439  14.159
81996SOL    HW147885   4.611   8.389  14.230
81996SOL    HW247886   4.743   8.415  14.161
81997SOL     OW47887   3.155   4.038   8.224
81997SOL    HW147888   3.163   4.070   8.134
81997SOL    HW247889   3.062   4.045   8.243
81998SOL     OW47890  12.862   8.528  14.425
81998SOL    HW147891  12.805   8.604  14.434
81998SOL    HW247892  12.904   8.520  14.511
81999SOL     OW47893  11.857   2.113   0.724
81999SOL    HW147894  11.768   2.086   0.744
81999SOL    HW247895  11.884   2.056   0.652
82000SOL     OW47896   6.980  13.919   4.362
82000SOL    HW147897   7.051  13.979   4.386
82000SOL    HW247898   6.901  13.972   4.366
82001SOL     OW47899  14.520   9.879   4.423
82001SOL    HW147900  14.528   9.872   4.519
82001SOL    HW247901  14.588   9.941   4.398
82002SOL     OW47902   0.871  10.186   2.673
82002SOL    HW147903   0.881  10.103   2.719
82002SOL    HW247904   0.852  10.161   2.582
82003SOL     OW47905   4.807   9.523   8.977
82003SOL    HW147906   4.780   9.456   9.040
82003SOL    HW247907   4.890   9.490   8.941
82004SOL     OW47908   2.976   0.360   9.875
82004SOL    HW147909   3.017   0.370   9.789
82004SOL    HW247910   2.984   0.445   9.917
82005SOL     OW47911   2.308   3.450  13.192
82005SOL    HW147912   2.352   3.516  13.139
82005SOL    HW247913   2.323   3.478  13.283
82006SOL     OW47914   7.044  13.705  11.131
82006SOL    HW147915   7.069  13.630  11.078
82006SOL    HW247916   6.968  13.742  11.087
82007SOL     OW47917   6.124   5.990   0.240
82007SOL    HW147918   6.211   5.951   0.225
82007SOL    HW247919   6.106   5.973   0.332
82008SOL     OW47920   5.981  10.355  12.704
82008SOL    HW147921   6.056  10.343  12.647
82008SOL    HW247922   6.007  10.425  12.764
82009SOL     OW47923   4.028   8.376  11.180
82009SOL    HW147924   3.941   8.355  11.146
82009SOL    HW247925   4.088   8.328  11.123
82010SOL     OW47926  10.118  10.100  10.521
82010SOL    HW147927  10.181  10.062  10.459
82010SOL    HW247928  10.044  10.127  10.466
82011SOL     OW47929   8.646   1.806  10.507
82011SOL    HW147930   8.725   1.757  10.530
82011SOL    HW247931   8.635   1.790  10.413
82012SOL     OW47932  12.229  12.151   7.505
82012SOL    HW147933  12.237  12.229   7.561
82012SOL    HW247934  12.311  12.104   7.518
82013SOL     OW47935   3.630   8.745   6.307
82013SOL    HW147936   3.652   8.653   6.325
82013SOL    HW247937   3.592   8.744   6.219
82014SOL     OW47938  10.653  12.914  11.654
82014SOL    HW147939  10.612  12.946  11.734
82014SOL    HW247940  10.711  12.985  11.626
82015SOL     OW47941   6.963   7.256   3.843
82015SOL    HW147942   7.004   7.290   3.922
82015SOL    HW247943   6.920   7.175   3.871
82016SOL     OW47944  10.792   5.013   1.457
82016SOL    HW147945  10.724   4.951   1.484
82016SOL    HW247946  10.835   4.970   1.383
82017SOL     OW47947   3.713  11.703  11.564
82017SOL    HW147948   3.753  11.623  11.596
82017SOL    HW247949   3.757  11.773  11.612
82018SOL     OW47950   9.603  12.201   4.048
82018SOL    HW147951   9.677  12.149   4.079
82018SOL    HW247952   9.630  12.291   4.063
82019SOL     OW47953  12.128  11.953   5.865
82019SOL    HW147954  12.093  11.985   5.948
82019SOL    HW247955  12.068  11.988   5.799
82020SOL     OW47956  10.993   6.967   6.551
82020SOL    HW147957  11.058   6.907   6.588
82020SOL    HW247958  10.947   7.003   6.628
82021SOL     OW47959   9.393   9.274   4.155
82021SOL    HW147960   9.366   9.353   4.108
82021SOL    HW247961   9.312   9.229   4.175
82022SOL     OW47962  13.900   4.021   6.887
82022SOL    HW147963  13.954   3.960   6.937
82022SOL    HW247964  13.829   4.044   6.946
82023SOL     OW47965  11.868  11.827   6.153
82023SOL    HW147966  11.919  11.828   6.234
82023SOL    HW247967  11.899  11.750   6.105
82024SOL     OW47968   8.084  13.603   5.462
82024SOL    HW147969   8.087  13.508   5.463
82024SOL    HW247970   8.020  13.625   5.395
82025SOL     OW47971   2.028  14.750   0.297
82025SOL    HW147972   2.087  14.825   0.295
82025SOL    HW247973   2.084  14.676   0.318
82026SOL     OW47974   1.237   2.637  10.241
82026SOL    HW147975   1.229   2.731  10.224
82026SOL    HW247976   1.165   2.618  10.301
82027SOL     OW47977   7.522   9.876   1.032
82027SOL    HW147978   7.456   9.930   1.076
82027SOL    HW247979   7.471   9.821   0.971
82028SOL     OW47980  11.765   1.162  10.022
82028SOL    HW147981  11.806   1.238   9.981
82028SOL    HW247982  11.833   1.095  10.022
82029SOL     OW47983  10.310   7.794   1.331
82029SOL    HW147984  10.324   7.707   1.294
82029SOL    HW247985  10.350   7.789   1.418
82030SOL     OW47986   4.150   3.228   4.657
82030SOL    HW147987   4.102   3.300   4.697
82030SOL    HW247988   4.241   3.258   4.654
82031SOL     OW47989   4.960  10.921  10.494
82031SOL    HW147990   4.961  10.967  10.411
82031SOL    HW247991   5.045  10.878  10.499
82032SOL     OW47992   6.367   8.487   0.754
82032SOL    HW147993   6.317   8.494   0.672
82032SOL    HW247994   6.303   8.458   0.819
82033SOL     OW47995   6.650   7.144   1.898
82033SOL    HW147996   6.728   7.093   1.877
82033SOL    HW247997   6.581   7.105   1.844
82034SOL     OW47998   0.701   0.554   1.276
82034SOL    HW147999   0.617   0.508   1.277
82034SOL    HW248000   0.724   0.565   1.368
82035SOL     OW48001  13.142   1.235   5.240
82035SOL    HW148002  13.092   1.244   5.158
82035SOL    HW248003  13.225   1.279   5.222
82036SOL     OW48004   3.392   1.564   7.701
82036SOL    HW148005   3.388   1.640   7.643
82036SOL    HW248006   3.365   1.596   7.787
82037SOL     OW48007  10.113  13.335   0.631
82037SOL    HW148008  10.182  13.336   0.565
82037SOL    HW248009  10.080  13.424   0.632
82038SOL     OW48010  13.961   4.776   6.646
82038SOL    HW148011  13.880   4.737   6.613
82038SOL    HW248012  13.994   4.711   6.708
82039SOL     OW48013   0.763   5.518   9.414
82039SOL    HW148014   0.764   5.424   9.396
82039SOL    HW248015   0.801   5.526   9.502
82040SOL     OW48016   6.932   3.647   0.813
82040SOL    HW148017   6.864   3.632   0.747
82040SOL    HW248018   6.959   3.737   0.799
82041SOL     OW48019   4.047   4.016  11.156
82041SOL    HW148020   4.083   3.952  11.094
82041SOL    HW248021   3.990   4.072  11.103
82042SOL     OW48022   1.561  10.767  11.863
82042SOL    HW148023   1.572  10.786  11.956
82042SOL    HW248024   1.491  10.825  11.834
82043SOL     OW48025   7.887   5.011   4.671
82043SOL    HW148026   7.946   5.065   4.618
82043SOL    HW248027   7.845   4.953   4.608
82044SOL     OW48028   1.033   0.327   9.778
82044SOL    HW148029   1.090   0.304   9.851
82044SOL    HW248030   1.026   0.423   9.781
82045SOL     OW48031   2.038   6.698   1.301
82045SOL    HW148032   2.006   6.645   1.227
82045SOL    HW248033   2.107   6.752   1.263
82046SOL     OW48034  14.881   8.368   5.744
82046SOL    HW148035  14.848   8.443   5.694
82046SOL    HW248036   0.094   8.378   5.743
82047SOL     OW48037   7.777   0.055   8.621
82047SOL    HW148038   7.722   0.018   8.691
82047SOL    HW248039   7.726   0.129   8.588
82048SOL     OW48040   8.803  10.341   5.604
82048SOL    HW148041   8.715  10.343   5.566
82048SOL    HW248042   8.847  10.271   5.556
82049SOL     OW48043   2.380   0.170   9.450
82049SOL    HW148044   2.427   0.254   9.445
82049SOL    HW248045   2.288   0.194   9.462
82050SOL     OW48046   1.098  11.568   0.223
82050SOL    HW148047   1.012  11.556   0.264
82050SOL    HW248048   1.155  11.507   0.271
82051SOL     OW48049   1.586   6.387   0.271
82051SOL    HW148050   1.670   6.342   0.279
82051SOL    HW248051   1.521   6.319   0.288
82052SOL     OW48052   2.986  14.374   9.104
82052SOL    HW148053   3.002  14.306   9.170
82052SOL    HW248054   3.039  14.448   9.132
82053SOL     OW48055  11.711   5.463   3.363
82053SOL    HW148056  11.758   5.379   3.363
82053SOL    HW248057  11.775   5.527   3.394
82054SOL     OW48058  12.735   3.778  11.975
82054SOL    HW148059  12.822   3.740  11.967
82054SOL    HW248060  12.708   3.760  12.065
82055SOL     OW48061   3.353  14.262   1.549
82055SOL    HW148062   3.442  14.291   1.571
82055SOL    HW248063   3.298  14.299   1.618
82056SOL     OW48064  14.376   3.402   2.367
82056SOL    HW148065  14.385   3.496   2.381
82056SOL    HW248066  14.336   3.394   2.280
82057SOL     OW48067  14.817   4.806  14.416
82057SOL    HW148068  14.882   4.837  14.479
82057SOL    HW248069  14.739   4.785  14.468
82058SOL     OW48070   9.769  11.727   9.721
82058SOL    HW148071   9.753  11.726   9.816
82058SOL    HW248072   9.792  11.817   9.701
82059SOL     OW48073  13.541   6.570   9.552
82059SOL    HW148074  13.472   6.597   9.492
82059SOL    HW248075  13.499   6.508   9.612
82060SOL     OW48076   2.562  11.106   8.318
82060SOL    HW148077   2.497  11.113   8.388
82060SOL    HW248078   2.603  11.020   8.332
82061SOL     OW48079   0.469   8.319   4.279
82061SOL    HW148080   0.564   8.328   4.274
82061SOL    HW248081   0.436   8.389   4.223
82062SOL     OW48082   7.734   1.096   3.303
82062SOL    HW148083   7.719   1.190   3.315
82062SOL    HW248084   7.792   1.091   3.228
82063SOL     OW48085  14.556  10.654  11.304
82063SOL    HW148086  14.590  10.727  11.356
82063SOL    HW248087  14.475  10.629  11.347
82064SOL     OW48088   5.979  12.789   5.695
82064SOL    HW148089   6.032  12.732   5.639
82064SOL    HW248090   6.027  12.793   5.778
82065SOL     OW48091   1.395   1.309  10.998
82065SOL    HW148092   1.425   1.292  11.088
82065SOL    HW248093   1.469   1.354  10.957
82066SOL     OW48094  11.212  14.492  14.741
82066SOL    HW148095  11.236  14.425  14.678
82066SOL    HW248096  11.283  14.492  14.805
82067SOL     OW48097  14.065   3.439  13.135
82067SOL    HW148098  14.083   3.528  13.166
82067SOL    HW248099  14.095   3.440  13.044
82068SOL     OW48100  14.005   5.769   2.759
82068SOL    HW148101  13.992   5.675   2.773
82068SOL    HW248102  14.048   5.799   2.838
82069SOL     OW48103   9.286   3.581   5.296
82069SOL    HW148104   9.286   3.568   5.391
82069SOL    HW248105   9.224   3.516   5.263
82070SOL     OW48106  14.399  12.500   9.382
82070SOL    HW148107  14.346  12.562   9.331
82070SOL    HW248108  14.387  12.528   9.473
82071SOL     OW48109  12.630  10.212   0.635
82071SOL    HW148110  12.691  10.244   0.702
82071SOL    HW248111  12.549  10.197   0.683
82072SOL     OW48112   3.478   8.739   4.959
82072SOL    HW148113   3.455   8.794   5.034
82072SOL    HW248114   3.420   8.663   4.967
82073SOL     OW48115   6.388   3.281   6.624
82073SOL    HW148116   6.483   3.277   6.615
82073SOL    HW248117   6.370   3.374   6.640
82074SOL     OW48118   0.529   5.673   8.568
82074SOL    HW148119   0.618   5.652   8.540
82074SOL    HW248120   0.500   5.743   8.509
82075SOL     OW48121   5.851   3.262   6.337
82075SOL    HW148122   5.819   3.181   6.378
82075SOL    HW248123   5.805   3.332   6.382
82076SOL     OW48124   5.244   1.511   5.505
82076SOL    HW148125   5.170   1.456   5.529
82076SOL    HW248126   5.230   1.531   5.412
82077SOL     OW48127   9.815   3.477   8.355
82077SOL    HW148128   9.824   3.474   8.260
82077SOL    HW248129   9.865   3.554   8.382
82078SOL     OW48130  10.696   9.039   1.166
82078SOL    HW148131  10.779   9.087   1.167
82078SOL    HW248132  10.667   9.040   1.257
82079SOL     OW48133  12.896   4.469  10.711
82079SOL    HW148134  12.858   4.461  10.799
82079SOL    HW248135  12.829   4.514  10.660
82080SOL     OW48136   8.943   2.012   3.518
82080SOL    HW148137   9.003   2.040   3.587
82080SOL    HW248138   8.942   2.085   3.456
82081SOL     OW48139   9.546   4.709   9.519
82081SOL    HW148140   9.600   4.788   9.511
82081SOL    HW248141   9.597   4.641   9.475
82082SOL     OW48142  11.234  10.031   3.109
82082SOL    HW148143  11.265  10.112   3.071
82082SOL    HW248144  11.293   9.964   3.076
82083SOL     OW48145   2.267   3.504   9.002
82083SOL    HW148146   2.251   3.437   8.935
82083SOL    HW248147   2.181   3.544   9.017
82084SOL     OW48148   7.439  11.824   8.470
82084SOL    HW148149   7.520  11.814   8.421
82084SOL    HW248150   7.437  11.916   8.495
82085SOL     OW48151   4.465   0.183  10.700
82085SOL    HW148152   4.469   0.108  10.641
82085SOL    HW248153   4.509   0.155  10.779
82086SOL     OW48154  13.401  11.158  13.906
82086SOL    HW148155  13.313  11.176  13.873
82086SOL    HW248156  13.460  11.190  13.837
82087SOL     OW48157   9.790   6.181   4.860
82087SOL    HW148158   9.848   6.109   4.835
82087SOL    HW248159   9.779   6.232   4.780
82088SOL     OW48160   8.283   3.043   6.420
82088SOL    HW148161   8.206   3.057   6.475
82088SOL    HW248162   8.250   2.994   6.344
82089SOL     OW48163  13.135  10.220   1.460
82089SOL    HW148164  13.147  10.166   1.382
82089SOL    HW248165  13.209  10.197   1.517
82090SOL     OW48166   5.117   2.845   0.086
82090SOL    HW148167   5.189   2.866   0.026
82090SOL    HW248168   5.063   2.923   0.088
82091SOL     OW48169   4.821   6.990   9.272
82091SOL    HW148170   4.862   6.926   9.214
82091SOL    HW248171   4.745   6.946   9.308
82092SOL     OW48172   5.536   9.343   6.236
82092SOL    HW148173   5.468   9.323   6.171
82092SOL    HW248174   5.498   9.411   6.291
82093SOL     OW48175   9.778   5.124   6.473
82093SOL    HW148176   9.852   5.084   6.518
82093SOL    HW248177   9.780   5.086   6.385
82094SOL     OW48178  13.393   3.887   4.234
82094SOL    HW148179  13.413   3.913   4.324
82094SOL    HW248180  13.476   3.893   4.187
82095SOL     OW48181  10.195   5.300   6.809
82095SOL    HW148182  10.111   5.253   6.806
82095SOL    HW248183  10.175   5.380   6.857
82096SOL     OW48184   3.317   5.463   2.269
82096SOL    HW148185   3.294   5.502   2.185
82096SOL    HW248186   3.378   5.526   2.309
82097SOL     OW48187   9.532   8.311   2.793
82097SOL    HW148188   9.617   8.312   2.836
82097SOL    HW248189   9.547   8.360   2.711
82098SOL     OW48190   5.490   5.113   7.816
82098SOL    HW148191   5.465   5.139   7.904
82098SOL    HW248192   5.421   5.053   7.788
82099SOL     OW48193   3.517  12.515   0.446
82099SOL    HW148194   3.522  12.499   0.352
82099SOL    HW248195   3.425  12.499   0.468
82100SOL     OW48196   6.169   6.109   9.470
82100SOL    HW148197   6.144   6.201   9.458
82100SOL    HW248198   6.095   6.071   9.518
82101SOL     OW48199   8.731  11.435  13.867
82101SOL    HW148200   8.757  11.397  13.783
82101SOL    HW248201   8.802  11.414  13.927
82102SOL     OW48202   3.829   9.294   0.556
82102SOL    HW148203   3.740   9.317   0.528
82102SOL    HW248204   3.850   9.214   0.507
82103SOL     OW48205  14.265   5.519  11.957
82103SOL    HW148206  14.229   5.547  11.873
82103SOL    HW248207  14.260   5.597  12.012
82104SOL     OW48208   8.523  12.401   8.961
82104SOL    HW148209   8.437  12.371   8.991
82104SOL    HW248210   8.554  12.331   8.903
82105SOL     OW48211   9.061   7.403   2.092
82105SOL    HW148212   9.013   7.483   2.110
82105SOL    HW248213   9.019   7.336   2.146
82106SOL     OW48214   3.912   6.112   8.000
82106SOL    HW148215   3.987   6.082   8.051
82106SOL    HW248216   3.950   6.158   7.926
82107SOL     OW48217  11.439  10.822   7.903
82107SOL    HW148218  11.439  10.746   7.845
82107SOL    HW248219  11.516  10.872   7.877
82108SOL     OW48220   0.575   1.960  11.524
82108SOL    HW148221   0.595   1.866  11.518
82108SOL    HW248222   0.480   1.963  11.537
82109SOL     OW48223  13.568   4.124   6.043
82109SOL    HW148224  13.598   4.043   6.087
82109SOL    HW248225  13.608   4.194   6.094
82110SOL     OW48226   0.605   0.592   6.487
82110SOL    HW148227   0.601   0.663   6.423
82110SOL    HW248228   0.698   0.569   6.491
82111SOL     OW48229   7.115   9.283  12.843
82111SOL    HW148230   7.107   9.188  12.843
82111SOL    HW248231   7.204   9.300  12.814
82112SOL     OW48232  11.466   6.268  13.493
82112SOL    HW148233  11.499   6.227  13.573
82112SOL    HW248234  11.524   6.236  13.424
82113SOL     OW48235   0.668  14.772  10.037
82113SOL    HW148236   0.642  14.768  10.129
82113SOL    HW248237   0.756  14.810  10.038
82114SOL     OW48238   6.998  13.736  10.007
82114SOL    HW148239   6.950  13.793  10.067
82114SOL    HW248240   7.022  13.792   9.934
82115SOL     OW48241  14.165  14.703   0.503
82115SOL    HW148242  14.225  14.632   0.481
82115SOL    HW248243  14.101  14.663   0.562
82116SOL     OW48244   9.887  11.929   6.298
82116SOL    HW148245   9.843  11.902   6.379
82116SOL    HW248246   9.842  12.010   6.273
82117SOL     OW48247   5.012   1.530   9.729
82117SOL    HW148248   4.947   1.572   9.786
82117SOL    HW248249   5.045   1.600   9.674
82118SOL     OW48250   0.375   6.122  12.399
82118SOL    HW148251   0.287   6.084  12.394
82118SOL    HW248252   0.433   6.048  12.415
82119SOL     OW48253  14.077   7.396   6.390
82119SOL    HW148254  14.090   7.323   6.330
82119SOL    HW248255  14.163   7.410   6.430
82120SOL     OW48256   2.877   9.535   4.609
82120SOL    HW148257   2.955   9.488   4.580
82120SOL    HW248258   2.898   9.627   4.597
82121SOL     OW48259  10.535   4.374   9.499
82121SOL    HW148260  10.547   4.402   9.408
82121SOL    HW248261  10.465   4.431   9.531
82122SOL     OW48262  14.290  11.903  10.506
82122SOL    HW148263  14.353  11.942  10.566
82122SOL    HW248264  14.343  11.855  10.443
82123SOL     OW48265   5.109   5.850   6.924
82123SOL    HW148266   5.166   5.879   6.852
82123SOL    HW248267   5.067   5.771   6.889
82124SOL     OW48268   0.912   3.250  13.595
82124SOL    HW148269   0.977   3.291  13.653
82124SOL    HW248270   0.827   3.279  13.631
82125SOL     OW48271  13.394   3.034   9.578
82125SOL    HW148272  13.312   2.999   9.614
82125SOL    HW248273  13.375   3.126   9.562
82126SOL     OW48274  14.446  13.429   8.166
82126SOL    HW148275  14.424  13.501   8.225
82126SOL    HW248276  14.485  13.362   8.224
82127SOL     OW48277   0.241   6.580   6.630
82127SOL    HW148278   0.243   6.496   6.583
82127SOL    HW248279   0.299   6.637   6.579
82128SOL     OW48280   9.045  14.191   2.404
82128SOL    HW148281   9.055  14.134   2.328
82128SOL    HW248282   8.952  14.213   2.405
82129SOL     OW48283   2.281   3.912   6.705
82129SOL    HW148284   2.233   3.928   6.786
82129SOL    HW248285   2.213   3.891   6.641
82130SOL     OW48286   4.014   3.314   2.590
82130SOL    HW148287   3.940   3.276   2.543
82130SOL    HW248288   4.017   3.265   2.673
82131SOL     OW48289   8.357  14.438   3.141
82131SOL    HW148290   8.274  14.484   3.153
82131SOL    HW248291   8.393  14.430   3.229
82132SOL     OW48292  10.645   5.152   5.199
82132SOL    HW148293  10.600   5.207   5.264
82132SOL    HW248294  10.707   5.101   5.251
82133SOL     OW48295   8.808   6.069   7.478
82133SOL    HW148296   8.849   6.040   7.560
82133SOL    HW248297   8.761   6.149   7.502
82134SOL     OW48298  12.532  14.324   7.147
82134SOL    HW148299  12.574  14.397   7.102
82134SOL    HW248300  12.574  14.320   7.233
82135SOL     OW48301   4.493  10.303   5.124
82135SOL    HW148302   4.446  10.343   5.197
82135SOL    HW248303   4.424  10.274   5.064
82136SOL     OW48304   6.657   9.641   5.726
82136SOL    HW148305   6.723   9.691   5.678
82136SOL    HW248306   6.589   9.706   5.747
82137SOL     OW48307   1.182   1.551  13.635
82137SOL    HW148308   1.221   1.621  13.687
82137SOL    HW248309   1.134   1.498  13.698
82138SOL     OW48310  10.493   0.815   4.422
82138SOL    HW148311  10.566   0.762   4.389
82138SOL    HW248312  10.511   0.826   4.515
82139SOL     OW48313  12.833  14.372   9.554
82139SOL    HW148314  12.894  14.400   9.485
82139SOL    HW248315  12.767  14.319   9.508
82140SOL     OW48316   8.207  11.529   7.780
82140SOL    HW148317   8.186  11.614   7.817
82140SOL    HW248318   8.300  11.535   7.755
82141SOL     OW48319   7.436  14.801   3.247
82141SOL    HW148320   7.531  14.793   3.252
82141SOL    HW248321   7.421  14.879   3.195
82142SOL     OW48322  13.062  12.045   9.744
82142SOL    HW148323  13.010  12.108   9.694
82142SOL    HW248324  13.119  12.004   9.679
82143SOL     OW48325  11.055  14.257  13.876
82143SOL    HW148326  10.989  14.321  13.902
82143SOL    HW248327  11.004  14.184  13.839
82144SOL     OW48328  12.679  12.048   2.547
82144SOL    HW148329  12.762  12.075   2.587
82144SOL    HW248330  12.612  12.076   2.609
82145SOL     OW48331   3.710  11.800   6.897
82145SOL    HW148332   3.726  11.822   6.805
82145SOL    HW248333   3.628  11.843   6.918
82146SOL     OW48334   5.481   3.770  12.369
82146SOL    HW148335   5.533   3.690  12.359
82146SOL    HW248336   5.445   3.785  12.281
82147SOL     OW48337   6.625  11.414   7.749
82147SOL    HW148338   6.628  11.429   7.844
82147SOL    HW248339   6.634  11.502   7.712
82148SOL     OW48340  11.173   5.272   2.749
82148SOL    HW148341  11.228   5.351   2.745
82148SOL    HW248342  11.182   5.242   2.840
82149SOL     OW48343   7.492   9.064   4.696
82149SOL    HW148344   7.547   9.116   4.637
82149SOL    HW248345   7.516   9.093   4.784
82150SOL     OW48346  10.784  12.869   8.211
82150SOL    HW148347  10.796  12.952   8.258
82150SOL    HW248348  10.786  12.893   8.118
82151SOL     OW48349   8.448  10.027   6.049
82151SOL    HW148350   8.378  10.092   6.051
82151SOL    HW248351   8.525  10.075   6.020
82152SOL     OW48352  12.585   8.489   9.592
82152SOL    HW148353  12.562   8.561   9.533
82152SOL    HW248354  12.543   8.412   9.555
82153SOL     OW48355  14.347   4.473  13.134
82153SOL    HW148356  14.382   4.494  13.047
82153SOL    HW248357  14.262   4.517  13.138
82154SOL     OW48358  11.136   4.992   9.225
82154SOL    HW148359  11.051   4.986   9.268
82154SOL    HW248360  11.175   5.072   9.259
82155SOL     OW48361   2.681  11.489  12.731
82155SOL    HW148362   2.714  11.506  12.642
82155SOL    HW248363   2.758  11.497  12.787
82156SOL     OW48364  13.857   7.513   5.141
82156SOL    HW148365  13.919   7.585   5.130
82156SOL    HW248366  13.857   7.496   5.235
82157SOL     OW48367   6.561   0.469  11.344
82157SOL    HW148368   6.641   0.473  11.292
82157SOL    HW248369   6.570   0.391  11.397
82158SOL     OW48370   3.289   3.211   8.266
82158SOL    HW148371   3.269   3.246   8.179
82158SOL    HW248372   3.384   3.196   8.265
82159SOL     OW48373   5.675   2.673   9.181
82159SOL    HW148374   5.706   2.602   9.237
82159SOL    HW248375   5.634   2.629   9.107
82160SOL     OW48376   1.389   2.260   6.658
82160SOL    HW148377   1.474   2.262   6.614
82160SOL    HW248378   1.327   2.234   6.590
82161SOL     OW48379  12.561   7.204   8.350
82161SOL    HW148380  12.504   7.268   8.308
82161SOL    HW248381  12.518   7.183   8.432
82162SOL     OW48382   3.346   9.020  12.649
82162SOL    HW148383   3.404   9.005  12.724
82162SOL    HW248384   3.329   8.933  12.614
82163SOL     OW48385   8.410   2.808   0.881
82163SOL    HW148386   8.393   2.781   0.791
82163SOL    HW248387   8.469   2.884   0.873
82164SOL     OW48388   6.328   5.626   3.254
82164SOL    HW148389   6.410   5.593   3.289
82164SOL    HW248390   6.299   5.559   3.193
82165SOL     OW48391   5.135   9.731   4.147
82165SOL    HW148392   5.205   9.782   4.106
82165SOL    HW248393   5.091   9.792   4.205
82166SOL     OW48394   2.756   1.220   1.582
82166SOL    HW148395   2.690   1.262   1.638
82166SOL    HW248396   2.774   1.284   1.513
82167SOL     OW48397   8.222   7.534   1.631
82167SOL    HW148398   8.207   7.471   1.561
82167SOL    HW248399   8.142   7.586   1.636
82168SOL     OW48400   0.105   5.352  10.718
82168SOL    HW148401   0.013   5.363  10.738
82168SOL    HW248402   0.138   5.293  10.785
82169SOL     OW48403   5.648   7.872   9.077
82169SOL    HW148404   5.715   7.871   9.145
82169SOL    HW248405   5.612   7.783   9.077
82170SOL     OW48406   1.527  11.378   8.345
82170SOL    HW148407   1.591  11.373   8.273
82170SOL    HW248408   1.547  11.461   8.388
82171SOL     OW48409   0.237  14.554  10.292
82171SOL    HW148410   0.275  14.569  10.205
82171SOL    HW248411   0.174  14.625  10.304
82172SOL     OW48412   0.922   0.624  13.858
82172SOL    HW148413   0.935   0.549  13.800
82172SOL    HW248414   0.886   0.692  13.801
82173SOL     OW48415   9.882  11.660   9.210
82173SOL    HW148416   9.827  11.608   9.151
82173SOL    HW248417   9.906  11.599   9.280
82174SOL     OW48418  10.775   8.106  13.246
82174SOL    HW148419  10.815   8.169  13.186
82174SOL    HW248420  10.691   8.085  13.206
82175SOL     OW48421   6.290  10.033   5.121
82175SOL    HW148422   6.231  10.068   5.187
82175SOL    HW248423   6.251   9.950   5.094
82176SOL     OW48424   1.262   4.451   2.073
82176SOL    HW148425   1.260   4.520   2.007
82176SOL    HW248426   1.270   4.370   2.023
82177SOL     OW48427   7.824  12.493  13.727
82177SOL    HW148428   7.748  12.541  13.760
82177SOL    HW248429   7.838  12.528  13.639
82178SOL     OW48430  10.986   6.920  10.678
82178SOL    HW148431  10.917   6.858  10.702
82178SOL    HW248432  10.992   6.915  10.583
82179SOL     OW48433   2.554   2.913  11.968
82179SOL    HW148434   2.562   2.951  11.881
82179SOL    HW248435   2.615   2.964  12.022
82180SOL     OW48436  11.641   8.467  14.162
82180SOL    HW148437  11.664   8.560  14.159
82180SOL    HW248438  11.545   8.465  14.162
82181SOL     OW48439   2.261   3.850   5.247
82181SOL    HW148440   2.169   3.863   5.225
82181SOL    HW248441   2.302   3.935   5.230
82182SOL     OW48442   5.091   2.682   8.300
82182SOL    HW148443   5.134   2.765   8.320
82182SOL    HW248444   5.091   2.634   8.383
82183SOL     OW48445  11.861  11.602   6.952
82183SOL    HW148446  11.886  11.560   6.870
82183SOL    HW248447  11.780  11.558   6.978
82184SOL     OW48448   6.187  12.413  12.645
82184SOL    HW148449   6.207  12.400  12.553
82184SOL    HW248450   6.256  12.366  12.692
82185SOL     OW48451   6.853   5.491   0.845
82185SOL    HW148452   6.943   5.524   0.843
82185SOL    HW248453   6.801   5.567   0.872
82186SOL     OW48454  11.080   6.047   7.931
82186SOL    HW148455  11.158   6.089   7.895
82186SOL    HW248456  11.081   5.958   7.896
82187SOL     OW48457   8.631   4.944  11.537
82187SOL    HW148458   8.555   4.996  11.562
82187SOL    HW248459   8.698   4.967  11.602
82188SOL     OW48460   3.275  10.684  11.262
82188SOL    HW148461   3.224  10.753  11.305
82188SOL    HW248462   3.356  10.678  11.313
82189SOL     OW48463  10.072  12.789   8.954
82189SOL    HW148464  10.092  12.821   9.042
82189SOL    HW248465  10.087  12.694   8.960
82190SOL     OW48466   2.557   2.216  10.877
82190SOL    HW148467   2.469   2.251  10.861
82190SOL    HW248468   2.567   2.220  10.972
82191SOL     OW48469   8.603   3.442   1.071
82191SOL    HW148470   8.571   3.530   1.056
82191SOL    HW248471   8.594   3.428   1.165
82192SOL     OW48472  11.563  14.174   2.931
82192SOL    HW148473  11.519  14.259   2.943
82192SOL    HW248474  11.533  14.145   2.844
82193SOL     OW48475   1.293   2.935   4.032
82193SOL    HW148476   1.265   2.959   3.944
82193SOL    HW248477   1.280   3.014   4.084
82194SOL     OW48478   9.306   8.347   0.098
82194SOL    HW148479   9.278   8.329   0.008
82194SOL    HW248480   9.237   8.310   0.153
82195SOL     OW48481   5.409  11.201  14.409
82195SOL    HW148482   5.355  11.267  14.367
82195SOL    HW248483   5.443  11.243  14.488
82196SOL     OW48484  11.983   4.782   5.857
82196SOL    HW148485  11.913   4.847   5.851
82196SOL    HW248486  11.938   4.698   5.850
82197SOL     OW48487   7.285   0.796   7.696
82197SOL    HW148488   7.304   0.796   7.602
82197SOL    HW248489   7.285   0.889   7.720
82198SOL     OW48490   2.676   3.241  13.077
82198SOL    HW148491   2.718   3.175  13.131
82198SOL    HW248492   2.705   3.324  13.115
82199SOL     OW48493   0.571   2.875   1.317
82199SOL    HW148494   0.648   2.932   1.311
82199SOL    HW248495   0.593   2.799   1.264
82200SOL     OW48496  11.505  13.797   2.960
82200SOL    HW148497  11.425  13.818   3.009
82200SOL    HW248498  11.519  13.872   2.904
82201SOL     OW48499  14.696   5.104  11.182
82201SOL    HW148500  14.704   5.010  11.168
82201SOL    HW248501  14.765   5.125  11.245
82202SOL     OW48502   4.770   3.498   0.717
82202SOL    HW148503   4.728   3.450   0.645
82202SOL    HW248504   4.764   3.590   0.691
82203SOL     OW48505   5.053   3.432   2.885
82203SOL    HW148506   5.068   3.340   2.906
82203SOL    HW248507   5.097   3.480   2.955
82204SOL     OW48508   6.875  11.040   6.988
82204SOL    HW148509   6.888  11.088   7.070
82204SOL    HW248510   6.940  10.970   6.991
82205SOL     OW48511   6.487   0.191   8.608
82205SOL    HW148512   6.427   0.148   8.547
82205SOL    HW248513   6.502   0.125   8.676
82206SOL     OW48514   1.535   4.836   5.176
82206SOL    HW148515   1.602   4.904   5.179
82206SOL    HW248516   1.454   4.881   5.202
82207SOL     OW48517   7.009  11.964   4.374
82207SOL    HW148518   7.062  12.033   4.413
82207SOL    HW248519   6.931  12.009   4.341
82208SOL     OW48520   7.271  12.972   0.738
82208SOL    HW148521   7.316  12.906   0.790
82208SOL    HW248522   7.207  12.922   0.686
82209SOL     OW48523  11.812  14.304   6.869
82209SOL    HW148524  11.856  14.386   6.850
82209SOL    HW248525  11.725  14.330   6.901
82210SOL     OW48526   0.032   1.675  14.735
82210SOL    HW148527  14.844   1.707  14.677
82210SOL    HW248528   0.090   1.625  14.677
82211SOL     OW48529  14.695   8.628  13.271
82211SOL    HW148530  14.685   8.723  13.276
82211SOL    HW248531  14.654   8.605  13.187
82212SOL     OW48532   4.214   4.629   1.752
82212SOL    HW148533   4.156   4.664   1.820
82212SOL    HW248534   4.302   4.648   1.784
82213SOL     OW48535   7.590   7.806   9.457
82213SOL    HW148536   7.604   7.779   9.547
82213SOL    HW248537   7.549   7.730   9.415
82214SOL     OW48538  12.740   5.161  13.629
82214SOL    HW148539  12.684   5.188  13.556
82214SOL    HW248540  12.696   5.194  13.707
82215SOL     OW48541  13.655  12.451   7.642
82215SOL    HW148542  13.599  12.525   7.616
82215SOL    HW248543  13.712  12.437   7.567
82216SOL     OW48544  13.568  11.734   2.126
82216SOL    HW148545  13.661  11.758   2.133
82216SOL    HW248546  13.525  11.784   2.195
82217SOL     OW48547   3.810   7.907  13.191
82217SOL    HW148548   3.903   7.912  13.171
82217SOL    HW248549   3.806   7.907  13.287
82218SOL     OW48550  12.955   5.487  10.467
82218SOL    HW148551  12.863   5.507  10.447
82218SOL    HW248552  12.953   5.399  10.504
82219SOL     OW48553   4.178   2.550   4.478
82219SOL    HW148554   4.152   2.633   4.437
82219SOL    HW248555   4.096   2.505   4.494
82220SOL     OW48556   4.384   1.991  10.330
82220SOL    HW148557   4.472   1.997  10.367
82220SOL    HW248558   4.369   2.076  10.289
82221SOL     OW48559  14.326   2.521  13.570
82221SOL    HW148560  14.331   2.614  13.592
82221SOL    HW248561  14.322   2.518  13.475
82222SOL     OW48562  11.095   9.287   4.292
82222SOL    HW148563  11.045   9.333   4.224
82222SOL    HW248564  11.030   9.264   4.358
82223SOL     OW48565   5.239  10.224   2.632
82223SOL    HW148566   5.153  10.263   2.615
82223SOL    HW248567   5.237  10.139   2.588
82224SOL     OW48568   9.152   1.866   7.327
82224SOL    HW148569   9.218   1.801   7.350
82224SOL    HW248570   9.123   1.901   7.411
82225SOL     OW48571  13.560  14.334  13.427
82225SOL    HW148572  13.570  14.300  13.338
82225SOL    HW248573  13.593  14.264  13.483
82226SOL     OW48574   1.790   7.744  14.779
82226SOL    HW148575   1.752   7.683  14.843
82226SOL    HW248576   1.746   7.722  14.697
82227SOL     OW48577   2.133  11.675   2.650
82227SOL    HW148578   2.144  11.588   2.688
82227SOL    HW248579   2.050  11.707   2.684
82228SOL     OW48580  10.625   5.740   9.389
82228SOL    HW148581  10.659   5.664   9.341
82228SOL    HW248582  10.643   5.815   9.332
82229SOL     OW48583   9.647  10.391  10.754
82229SOL    HW148584   9.661  10.306  10.797
82229SOL    HW248585   9.586  10.437  10.812
82230SOL     OW48586   3.518   4.509   1.046
82230SOL    HW148587   3.586   4.473   0.988
82230SOL    HW248588   3.567   4.562   1.109
82231SOL     OW48589  11.411  11.134   5.665
82231SOL    HW148590  11.317  11.122   5.647
82231SOL    HW248591  11.438  11.203   5.605
82232SOL     OW48592   8.761   7.395   2.165
82232SOL    HW148593   8.724   7.310   2.141
82232SOL    HW248594   8.760   7.394   2.261
82233SOL     OW48595  12.203  14.035   1.788
82233SOL    HW148596  12.245  13.955   1.758
82233SOL    HW248597  12.275  14.093   1.810
82234SOL     OW48598  11.924   9.980   0.665
82234SOL    HW148599  11.969  10.006   0.584
82234SOL    HW248600  11.979  10.016   0.735
82235SOL     OW48601   8.002   7.777   4.207
82235SOL    HW148602   8.054   7.781   4.287
82235SOL    HW248603   7.979   7.685   4.198
82236SOL     OW48604  13.388   6.387   2.782
82236SOL    HW148605  13.451   6.396   2.854
82236SOL    HW248606  13.366   6.476   2.758
82237SOL     OW48607   2.262  14.498  11.233
82237SOL    HW148608   2.190  14.445  11.200
82237SOL    HW248609   2.341  14.449  11.208
82238SOL     OW48610   6.884  12.493  10.789
82238SOL    HW148611   6.796  12.513  10.757
82238SOL    HW248612   6.942  12.510  10.715
82239SOL     OW48613   7.103   2.198   9.206
82239SOL    HW148614   7.109   2.117   9.154
82239SOL    HW248615   7.191   2.212   9.240
82240SOL     OW48616   1.815   5.454   8.596
82240SOL    HW148617   1.742   5.446   8.656
82240SOL    HW248618   1.885   5.494   8.648
82241SOL     OW48619  14.287   0.524   4.910
82241SOL    HW148620  14.210   0.467   4.915
82241SOL    HW248621  14.358   0.465   4.884
82242SOL     OW48622   3.084   7.464  11.010
82242SOL    HW148623   3.028   7.481  10.934
82242SOL    HW248624   3.130   7.384  10.988
82243SOL     OW48625  14.310   3.384   6.330
82243SOL    HW148626  14.299   3.289   6.330
82243SOL    HW248627  14.221   3.418   6.322
82244SOL     OW48628   6.511  10.834   1.681
82244SOL    HW148629   6.446  10.845   1.611
82244SOL    HW248630   6.465  10.784   1.748
82245SOL     OW48631   5.647  14.814  10.899
82245SOL    HW148632   5.620   0.021  10.920
82245SOL    HW248633   5.613  14.799  10.811
82246SOL     OW48634  10.035   6.370   2.765
82246SOL    HW148635   9.974   6.442   2.781
82246SOL    HW248636  10.121   6.407   2.785
82247SOL     OW48637   3.751   5.990   5.090
82247SOL    HW148638   3.797   5.964   5.010
82247SOL    HW248639   3.669   5.941   5.087
82248SOL     OW48640   9.701  13.218   0.505
82248SOL    HW148641   9.746  13.264   0.434
82248SOL    HW248642   9.728  13.127   0.495
82249SOL     OW48643  14.568   8.788   4.969
82249SOL    HW148644  14.601   8.878   4.969
82249SOL    HW248645  14.638   8.736   5.007
82250SOL     OW48646  11.060  11.395  13.736
82250SOL    HW148647  11.153  11.394  13.716
82250SOL    HW248648  11.054  11.366  13.827
82251SOL     OW48649   9.623  11.604  13.534
82251SOL    HW148650   9.546  11.555  13.564
82251SOL    HW248651   9.592  11.695  13.530
82252SOL     OW48652   7.936   4.398   7.729
82252SOL    HW148653   7.853   4.428   7.766
82252SOL    HW248654   7.954   4.461   7.658
82253SOL     OW48655   2.116   9.660   8.096
82253SOL    HW148656   2.104   9.626   8.185
82253SOL    HW248657   2.040   9.630   8.048
82254SOL     OW48658  14.519   9.939   1.289
82254SOL    HW148659  14.484   9.850   1.287
82254SOL    HW248660  14.466   9.988   1.225
82255SOL     OW48661  11.049  13.842   7.969
82255SOL    HW148662  11.003  13.836   7.885
82255SOL    HW248663  11.011  13.919   8.011
82256SOL     OW48664  14.553   3.739  11.473
82256SOL    HW148665  14.576   3.791  11.550
82256SOL    HW248666  14.632   3.742  11.419
82257SOL     OW48667  11.169  10.645   0.468
82257SOL    HW148668  11.083  10.655   0.427
82257SOL    HW248669  11.203  10.734   0.474
82258SOL     OW48670  10.367   3.303  11.822
82258SOL    HW148671  10.342   3.347  11.903
82258SOL    HW248672  10.425   3.232  11.850
82259SOL     OW48673   1.556  14.656   8.069
82259SOL    HW148674   1.652  14.654   8.058
82259SOL    HW248675   1.537  14.581   8.125
82260SOL     OW48676   1.301   7.659   6.797
82260SOL    HW148677   1.371   7.636   6.737
82260SOL    HW248678   1.342   7.658   6.884
82261SOL     OW48679   3.910   0.963  10.052
82261SOL    HW148680   3.962   0.925  10.122
82261SOL    HW248681   3.851   0.893  10.025
82262SOL     OW48682   1.742   4.759  12.558
82262SOL    HW148683   1.705   4.824  12.497
82262SOL    HW248684   1.809   4.808  12.607
82263SOL     OW48685   5.813   6.124   2.829
82263SOL    HW148686   5.788   6.035   2.807
82263SOL    HW248687   5.771   6.178   2.762
82264SOL     OW48688   7.199  14.521   1.046
82264SOL    HW148689   7.184  14.446   0.989
82264SOL    HW248690   7.207  14.596   0.986
82265SOL     OW48691   0.006   9.737   6.172
82265SOL    HW148692  14.840   9.694   6.243
82265SOL    HW248693  14.870   9.831   6.184
82266SOL     OW48694   5.049   6.132   0.656
82266SOL    HW148695   5.020   6.205   0.710
82266SOL    HW248696   4.989   6.131   0.581
82267SOL     OW48697  14.221  13.782  12.130
82267SOL    HW148698  14.311  13.805  12.110
82267SOL    HW248699  14.189  13.853  12.185
82268SOL     OW48700   5.101  10.763   1.421
82268SOL    HW148701   5.134  10.737   1.507
82268SOL    HW248702   5.040  10.835   1.440
82269SOL     OW48703  10.488   4.798   2.011
82269SOL    HW148704  10.394   4.780   2.003
82269SOL    HW248705  10.506   4.787   2.104
82270SOL     OW48706   1.989   4.839   4.539
82270SOL    HW148707   2.014   4.926   4.568
82270SOL    HW248708   1.966   4.792   4.619
82271SOL     OW48709   1.693   2.858  11.940
82271SOL    HW148710   1.771   2.890  11.985
82271SOL    HW248711   1.680   2.770  11.973
82272SOL     OW48712   5.371   6.251   7.799
82272SOL    HW148713   5.362   6.177   7.859
82272SOL    HW248714   5.281   6.275   7.777
82273SOL     OW48715   9.989   5.471  11.195
82273SOL    HW148716   9.933   5.404  11.235
82273SOL    HW248717  10.052   5.421  11.143
82274SOL     OW48718  12.590  14.812  10.140
82274SOL    HW148719  12.580  14.822  10.045
82274SOL    HW248720  12.575   0.018  10.174
82275SOL     OW48721   4.676   5.245  13.016
82275SOL    HW148722   4.592   5.222  12.976
82275SOL    HW248723   4.731   5.271  12.942
82276SOL     OW48724   4.394   2.077   4.950
82276SOL    HW148725   4.487   2.099   4.954
82276SOL    HW248726   4.352   2.140   5.008
82277SOL     OW48727   9.611   6.271   3.837
82277SOL    HW148728   9.518   6.292   3.843
82277SOL    HW248729   9.638   6.306   3.751
82278SOL     OW48730   4.342  12.174  11.085
82278SOL    HW148731   4.333  12.083  11.112
82278SOL    HW248732   4.252  12.204  11.071
82279SOL     OW48733  11.059   0.287   0.405
82279SOL    HW148734  11.123   0.220   0.383
82279SOL    HW248735  11.011   0.251   0.480
82280SOL     OW48736   8.400   1.760  12.295
82280SOL    HW148737   8.495   1.753  12.292
82280SOL    HW248738   8.369   1.677  12.258
82281SOL     OW48739  13.593   5.903  11.808
82281SOL    HW148740  13.664   5.907  11.743
82281SOL    HW248741  13.569   5.811  11.811
82282SOL     OW48742  11.714   9.914   7.213
82282SOL    HW148743  11.807   9.936   7.209
82282SOL    HW248744  11.711   9.828   7.254
82283SOL     OW48745   3.251   8.820  10.480
82283SOL    HW148746   3.195   8.883  10.434
82283SOL    HW248747   3.193   8.778  10.543
82284SOL     OW48748  12.649  12.571   0.978
82284SOL    HW148749  12.684  12.526   0.901
82284SOL    HW248750  12.573  12.519   1.003
82285SOL     OW48751   3.985   6.661  12.321
82285SOL    HW148752   3.898   6.682  12.354
82285SOL    HW248753   3.983   6.567  12.307
82286SOL     OW48754  13.162  11.553   6.343
82286SOL    HW148755  13.072  11.546   6.310
82286SOL    HW248756  13.217  11.541   6.266
82287SOL     OW48757  11.829   3.081   0.660
82287SOL    HW148758  11.736   3.103   0.665
82287SOL    HW248759  11.844   3.062   0.567
82288SOL     OW48760   9.337  13.881   4.519
82288SOL    HW148761   9.346  13.787   4.501
82288SOL    HW248762   9.367  13.924   4.439
82289SOL     OW48763   1.238   8.722  11.253
82289SOL    HW148764   1.325   8.735  11.214
82289SOL    HW248765   1.192   8.665  11.192
82290SOL     OW48766   1.020  10.889  10.609
82290SOL    HW148767   1.026  10.916  10.700
82290SOL    HW248768   1.089  10.823  10.600
82291SOL     OW48769   0.553   8.978  14.470
82291SOL    HW148770   0.492   9.046  14.440
82291SOL    HW248771   0.504   8.896  14.463
82292SOL     OW48772   2.703   5.157   9.534
82292SOL    HW148773   2.697   5.124   9.624
82292SOL    HW248774   2.692   5.252   9.543
82293SOL     OW48775   2.682  12.991  10.107
82293SOL    HW148776   2.733  12.951  10.037
82293SOL    HW248777   2.694  12.933  10.182
82294SOL     OW48778   6.256   5.108   5.508
82294SOL    HW148779   6.216   5.050   5.443
82294SOL    HW248780   6.327   5.152   5.461
82295SOL     OW48781   7.232  12.276   2.201
82295SOL    HW148782   7.285  12.198   2.184
82295SOL    HW248783   7.180  12.253   2.278
82296SOL     OW48784   3.499   4.696   7.843
82296SOL    HW148785   3.435   4.667   7.778
82296SOL    HW248786   3.571   4.731   7.791
82297SOL     OW48787  14.308  13.816   8.260
82297SOL    HW148788  14.350  13.733   8.239
82297SOL    HW248789  14.378  13.881   8.257
82298SOL     OW48790   8.183   5.957   6.888
82298SOL    HW148791   8.194   5.978   6.981
82298SOL    HW248792   8.247   5.888   6.872
82299SOL     OW48793  14.849   0.048  11.213
82299SOL    HW148794  14.871   0.140  11.232
82299SOL    HW248795  14.867   0.038  11.120
82300SOL     OW48796   8.188  13.697   1.727
82300SOL    HW148797   8.221  13.638   1.659
82300SOL    HW248798   8.258  13.700   1.793
82301SOL     OW48799  13.601   7.752  13.984
82301SOL    HW148800  13.561   7.833  14.015
82301SOL    HW248801  13.576   7.686  14.048
82302SOL     OW48802   8.668   4.528   6.954
82302SOL    HW148803   8.660   4.440   6.990
82302SOL    HW248804   8.584   4.545   6.911
82303SOL     OW48805   8.574  10.916   0.130
82303SOL    HW148806   8.615  10.944   0.211
82303SOL    HW248807   8.610  10.974   0.063
82304SOL     OW48808   6.309   1.387   4.484
82304SOL    HW148809   6.350   1.319   4.538
82304SOL    HW248810   6.347   1.375   4.397
82305SOL     OW48811   4.953   6.368  12.547
82305SOL    HW148812   4.955   6.460  12.573
82305SOL    HW248813   4.916   6.369  12.459
82306SOL     OW48814   4.664  10.852  11.417
82306SOL    HW148815   4.570  10.847  11.437
82306SOL    HW248816   4.702  10.778  11.465
82307SOL     OW48817   9.297   3.427   0.884
82307SOL    HW148818   9.222   3.486   0.875
82307SOL    HW248819   9.291   3.395   0.974
82308SOL     OW48820  10.464  11.030  14.823
82308SOL    HW148821  10.509  11.080  14.755
82308SOL    HW248822  10.372  11.031  14.797
82309SOL     OW48823   3.204  13.903   2.022
82309SOL    HW148824   3.230  13.847   2.095
82309SOL    HW248825   3.147  13.969   2.062
82310SOL     OW48826   1.784   6.326  12.919
82310SOL    HW148827   1.756   6.399  12.864
82310SOL    HW248828   1.876   6.342  12.936
82311SOL     OW48829   2.841   0.064   4.580
82311SOL    HW148830   2.776   0.129   4.605
82311SOL    HW248831   2.865   0.020   4.661
82312SOL     OW48832   8.928   0.982  14.758
82312SOL    HW148833   9.003   1.022  14.714
82312SOL    HW248834   8.943   0.888  14.748
82313SOL     OW48835  14.681   4.537   8.932
82313SOL    HW148836  14.711   4.625   8.953
82313SOL    HW248837  14.710   4.522   8.842
82314SOL     OW48838   6.695   7.516  11.515
82314SOL    HW148839   6.655   7.461  11.582
82314SOL    HW248840   6.678   7.470  11.432
82315SOL     OW48841  14.763   1.796   9.539
82315SOL    HW148842  14.819   1.722   9.515
82315SOL    HW248843  14.679   1.777   9.499
82316SOL     OW48844   9.513  11.607  10.405
82316SOL    HW148845   9.530  11.516  10.428
82316SOL    HW248846   9.521  11.655  10.487
82317SOL     OW48847   1.229  13.644   2.444
82317SOL    HW148848   1.199  13.573   2.502
82317SOL    HW248849   1.223  13.607   2.356
82318SOL     OW48850   0.879   3.497   0.993
82318SOL    HW148851   0.806   3.531   1.045
82318SOL    HW248852   0.839   3.432   0.935
82319SOL     OW48853  11.390  12.592   8.665
82319SOL    HW148854  11.320  12.554   8.718
82319SOL    HW248855  11.350  12.667   8.622
82320SOL     OW48856  10.234   1.965   7.727
82320SOL    HW148857  10.155   1.942   7.677
82320SOL    HW248858  10.301   1.977   7.660
82321SOL     OW48859   1.930  13.891   3.166
82321SOL    HW148860   1.855  13.872   3.223
82321SOL    HW248861   1.999  13.832   3.197
82322SOL     OW48862   0.554   7.920  10.939
82322SOL    HW148863   0.623   7.902  11.003
82322SOL    HW248864   0.515   7.835  10.920
82323SOL     OW48865   9.632   9.673   0.222
82323SOL    HW148866   9.563   9.622   0.266
82323SOL    HW248867   9.597   9.762   0.218
82324SOL     OW48868   0.917   3.384   3.246
82324SOL    HW148869   0.926   3.408   3.153
82324SOL    HW248870   0.951   3.294   3.250
82325SOL     OW48871   5.273   3.883   7.051
82325SOL    HW148872   5.343   3.906   6.990
82325SOL    HW248873   5.304   3.912   7.136
82326SOL     OW48874   7.360   3.088   2.180
82326SOL    HW148875   7.290   3.040   2.137
82326SOL    HW248876   7.423   3.021   2.206
82327SOL     OW48877  12.656  13.295  10.729
82327SOL    HW148878  12.698  13.214  10.757
82327SOL    HW248879  12.674  13.300  10.635
82328SOL     OW48880  12.204  13.579  10.489
82328SOL    HW148881  12.245  13.647  10.543
82328SOL    HW248882  12.115  13.572  10.524
82329SOL     OW48883   6.032  11.927  11.750
82329SOL    HW148884   6.009  11.927  11.843
82329SOL    HW248885   6.044  11.834  11.728
82330SOL     OW48886   2.688   8.789   9.830
82330SOL    HW148887   2.642   8.859   9.875
82330SOL    HW248888   2.735   8.832   9.759
82331SOL     OW48889  11.583  10.140   3.213
82331SOL    HW148890  11.514  10.193   3.253
82331SOL    HW248891  11.647  10.204   3.182
82332SOL     OW48892   1.985   9.953   7.864
82332SOL    HW148893   1.949   9.923   7.948
82332SOL    HW248894   1.929  10.026   7.838
82333SOL     OW48895   5.734   2.366   3.451
82333SOL    HW148896   5.644   2.372   3.482
82333SOL    HW248897   5.726   2.357   3.356
82334SOL     OW48898  12.586  14.162  13.582
82334SOL    HW148899  12.580  14.162  13.487
82334SOL    HW248900  12.520  14.099  13.611
82335SOL     OW48901  14.286   5.465   5.045
82335SOL    HW148902  14.290   5.459   4.950
82335SOL    HW248903  14.271   5.375   5.075
82336SOL     OW48904   0.592  12.673   5.446
82336SOL    HW148905   0.680  12.639   5.463
82336SOL    HW248906   0.566  12.631   5.364
82337SOL     OW48907   5.226   0.930   8.470
82337SOL    HW148908   5.213   0.885   8.386
82337SOL    HW248909   5.238   0.859   8.533
82338SOL     OW48910  11.432  11.882  11.650
82338SOL    HW148911  11.489  11.903  11.724
82338SOL    HW248912  11.347  11.865  11.689
82339SOL     OW48913   5.814   9.145  10.806
82339SOL    HW148914   5.761   9.181  10.735
82339SOL    HW248915   5.761   9.073  10.841
82340SOL     OW48916   8.211   2.353  13.409
82340SOL    HW148917   8.235   2.411  13.337
82340SOL    HW248918   8.117   2.340  13.398
82341SOL     OW48919  11.398   4.302  12.831
82341SOL    HW148920  11.347   4.354  12.893
82341SOL    HW248921  11.489   4.324  12.850
82342SOL     OW48922  14.004  11.116  13.084
82342SOL    HW148923  13.920  11.109  13.128
82342SOL    HW248924  14.007  11.041  13.025
82343SOL     OW48925   4.445   6.711  14.710
82343SOL    HW148926   4.497   6.781  14.748
82343SOL    HW248927   4.460   6.719  14.615
82344SOL     OW48928  10.542  12.141   3.888
82344SOL    HW148929  10.504  12.188   3.963
82344SOL    HW248930  10.467  12.124   3.831
82345SOL     OW48931  13.329   0.367   4.147
82345SOL    HW148932  13.302   0.276   4.141
82345SOL    HW248933  13.312   0.392   4.237
82346SOL     OW48934   8.348   8.566   6.306
82346SOL    HW148935   8.335   8.473   6.291
82346SOL    HW248936   8.316   8.608   6.226
82347SOL     OW48937  13.937  12.673   5.105
82347SOL    HW148938  13.878  12.601   5.127
82347SOL    HW248939  13.892  12.751   5.136
82348SOL     OW48940   7.649  12.013   9.666
82348SOL    HW148941   7.564  11.970   9.658
82348SOL    HW248942   7.683  12.015   9.577
82349SOL     OW48943  13.806  11.451  11.845
82349SOL    HW148944  13.823  11.468  11.937
82349SOL    HW248945  13.804  11.538  11.804
82350SOL     OW48946   1.431   9.202   0.696
82350SOL    HW148947   1.354   9.203   0.752
82350SOL    HW248948   1.406   9.146   0.623
82351SOL     OW48949  13.930   0.555  12.920
82351SOL    HW148950  14.011   0.580  12.965
82351SOL    HW248951  13.877   0.513  12.988
82352SOL     OW48952  10.961   8.979   9.267
82352SOL    HW148953  11.000   8.990   9.181
82352SOL    HW248954  10.949   9.068   9.300
82353SOL     OW48955   0.305  13.356   4.319
82353SOL    HW148956   0.290  13.271   4.362
82353SOL    HW248957   0.336  13.333   4.231
82354SOL     OW48958   7.180   1.704  13.934
82354SOL    HW148959   7.116   1.650  13.888
82354SOL    HW248960   7.163   1.687  14.027
82355SOL     OW48961   7.920  10.477   4.340
82355SOL    HW148962   7.850  10.420   4.373
82355SOL    HW248963   8.001  10.436   4.371
82356SOL     OW48964   3.889  10.277   2.582
82356SOL    HW148965   3.871  10.201   2.527
82356SOL    HW248966   3.919  10.344   2.521
82357SOL     OW48967   2.219   1.688   8.110
82357SOL    HW148968   2.173   1.762   8.073
82357SOL    HW248969   2.300   1.681   8.059
82358SOL     OW48970  13.759   0.839  13.995
82358SOL    HW148971  13.669   0.857  14.021
82358SOL    HW248972  13.802   0.924  13.998
82359SOL     OW48973   5.146  12.874  10.238
82359SOL    HW148974   5.170  12.923  10.160
82359SOL    HW248975   5.215  12.809  10.248
82360SOL     OW48976   3.800  10.876  14.048
82360SOL    HW148977   3.786  10.878  13.954
82360SOL    HW248978   3.860  10.949  14.065
82361SOL     OW48979   2.214   0.148  10.002
82361SOL    HW148980   2.244   0.135   9.912
82361SOL    HW248981   2.126   0.186   9.992
82362SOL     OW48982   6.860   9.841   2.166
82362SOL    HW148983   6.820   9.918   2.207
82362SOL    HW248984   6.884   9.785   2.240
82363SOL     OW48985   1.915   6.777   6.023
82363SOL    HW148986   1.985   6.816   6.075
82363SOL    HW248987   1.914   6.685   6.051
82364SOL     OW48988   6.187   0.730  11.858
82364SOL    HW148989   6.193   0.823  11.837
82364SOL    HW248990   6.131   0.693  11.790
82365SOL     OW48991   9.538   4.389  12.460
82365SOL    HW148992   9.544   4.453  12.531
82365SOL    HW248993   9.569   4.437  12.382
82366SOL     OW48994   0.070   3.108   4.803
82366SOL    HW148995   0.139   3.173   4.790
82366SOL    HW248996   0.082   3.079   4.893
82367SOL     OW48997   3.843   7.014   7.630
82367SOL    HW148998   3.752   6.992   7.644
82367SOL    HW248999   3.892   6.935   7.653
82368SOL     OW49000  10.380   7.260   4.915
82368SOL    HW149001  10.308   7.196   4.907
82368SOL    HW249002  10.342   7.332   4.966
82369SOL     OW49003  12.713  10.085   0.947
82369SOL    HW149004  12.705  10.161   1.006
82369SOL    HW249005  12.644  10.025   0.976
82370SOL     OW49006   7.139   0.876  13.467
82370SOL    HW149007   7.077   0.897  13.536
82370SOL    HW249008   7.122   0.942  13.399
82371SOL     OW49009   9.754   1.098   0.424
82371SOL    HW149010   9.802   1.060   0.351
82371SOL    HW249011   9.690   1.156   0.382
82372SOL     OW49012  14.853  13.171   7.363
82372SOL    HW149013  14.826  13.086   7.397
82372SOL    HW249014   0.016  13.212   7.436
82373SOL     OW49015  13.241  10.615   5.830
82373SOL    HW149016  13.295  10.657   5.897
82373SOL    HW249017  13.151  10.636   5.855
82374SOL     OW49018   8.133   4.949   7.180
82374SOL    HW149019   8.222   4.966   7.210
82374SOL    HW249020   8.137   4.863   7.139
82375SOL     OW49021   3.607  13.601   6.365
82375SOL    HW149022   3.535  13.547   6.395
82375SOL    HW249023   3.630  13.566   6.279
82376SOL     OW49024  11.467   5.721  14.230
82376SOL    HW149025  11.543   5.772  14.258
82376SOL    HW249026  11.394   5.783  14.233
82377SOL     OW49027   5.434   4.363   1.746
82377SOL    HW149028   5.363   4.322   1.796
82377SOL    HW249029   5.461   4.295   1.684
82378SOL     OW49030  11.118   3.635  13.285
82378SOL    HW149031  11.212   3.639  13.267
82378SOL    HW249032  11.095   3.722  13.316
82379SOL     OW49033   2.255   9.745   3.609
82379SOL    HW149034   2.192   9.710   3.546
82379SOL    HW249035   2.320   9.791   3.555
82380SOL     OW49036   7.003  12.585   8.453
82380SOL    HW149037   6.964  12.501   8.477
82380SOL    HW249038   6.990  12.590   8.358
82381SOL     OW49039   8.888  14.864  11.286
82381SOL    HW149040   8.822  14.873  11.354
82381SOL    HW249041   8.970   0.009  11.328
82382SOL     OW49042  12.747   3.674   1.146
82382SOL    HW149043  12.698   3.632   1.075
82382SOL    HW249044  12.753   3.766   1.119
82383SOL     OW49045   8.731   1.422   6.812
82383SOL    HW149046   8.678   1.343   6.802
82383SOL    HW249047   8.807   1.393   6.862
82384SOL     OW49048   4.183   4.806   5.672
82384SOL    HW149049   4.205   4.866   5.600
82384SOL    HW249050   4.093   4.779   5.653
82385SOL     OW49051   0.484   4.254   2.951
82385SOL    HW149052   0.555   4.305   2.991
82385SOL    HW249053   0.445   4.313   2.887
82386SOL     OW49054   3.444   5.731  14.692
82386SOL    HW149055   3.444   5.789  14.768
82386SOL    HW249056   3.412   5.647  14.726
82387SOL     OW49057   6.941  11.144   1.380
82387SOL    HW149058   7.020  11.112   1.338
82387SOL    HW249059   6.939  11.102   1.466
82388SOL     OW49060  14.355  12.362   2.260
82388SOL    HW149061  14.444  12.373   2.293
82388SOL    HW249062  14.352  12.415   2.180
82389SOL     OW49063   6.902   2.408   9.135
82389SOL    HW149064   6.923   2.488   9.183
82389SOL    HW249065   6.969   2.346   9.162
82390SOL     OW49066  12.504  11.722   6.460
82390SOL    HW149067  12.472  11.647   6.511
82390SOL    HW249068  12.515  11.687   6.372
82391SOL     OW49069   5.675   7.446   9.784
82391SOL    HW149070   5.726   7.478   9.859
82391SOL    HW249071   5.739   7.399   9.730
82392SOL     OW49072   4.363   0.742   4.803
82392SOL    HW149073   4.335   0.687   4.730
82392SOL    HW249074   4.415   0.811   4.762
82393SOL     OW49075  10.150   1.783   6.077
82393SOL    HW149076  10.149   1.859   6.020
82393SOL    HW249077  10.223   1.730   6.046
82394SOL     OW49078   4.772   9.658   9.217
82394SOL    HW149079   4.782   9.639   9.123
82394SOL    HW249080   4.788   9.575   9.260
82395SOL     OW49081  11.274   2.757   2.643
82395SOL    HW149082  11.215   2.684   2.625
82395SOL    HW249083  11.345   2.718   2.693
82396SOL     OW49084   7.348   4.246  11.084
82396SOL    HW149085   7.430   4.296  11.086
82396SOL    HW249086   7.310   4.258  11.171
82397SOL     OW49087   4.013   3.824  13.375
82397SOL    HW149088   3.954   3.792  13.306
82397SOL    HW249089   3.956   3.877  13.432
82398SOL     OW49090   7.502   9.558   0.081
82398SOL    HW149091   7.579   9.509   0.110
82398SOL    HW249092   7.467   9.505   0.009
82399SOL     OW49093   0.966  10.078  11.900
82399SOL    HW149094   0.974   9.982  11.901
82399SOL    HW249095   0.926  10.098  11.816
82400SOL     OW49096   8.162   5.915   6.004
82400SOL    HW149097   8.109   5.868   6.068
82400SOL    HW249098   8.099   5.964   5.951
82401SOL     OW49099   3.900   1.265   2.691
82401SOL    HW149100   3.817   1.277   2.737
82401SOL    HW249101   3.967   1.277   2.758
82402SOL     OW49102   0.780  14.262   2.465
82402SOL    HW149103   0.720  14.207   2.415
82402SOL    HW249104   0.866  14.221   2.453
82403SOL     OW49105   0.612  14.596   2.194
82403SOL    HW149106   0.536  14.628   2.145
82403SOL    HW249107   0.686  14.608   2.134
82404SOL     OW49108   4.033  11.001   6.874
82404SOL    HW149109   4.085  10.936   6.826
82404SOL    HW249110   3.955  11.014   6.820
82405SOL     OW49111   1.872   1.435   6.137
82405SOL    HW149112   1.952   1.461   6.183
82405SOL    HW249113   1.864   1.341   6.154
82406SOL     OW49114   4.394   8.479   3.683
82406SOL    HW149115   4.486   8.460   3.703
82406SOL    HW249116   4.355   8.392   3.670
82407SOL     OW49117   2.273   9.065  14.564
82407SOL    HW149118   2.355   9.046  14.519
82407SOL    HW249119   2.289   9.149  14.608
82408SOL     OW49120  14.786  13.400  14.820
82408SOL    HW149121  14.705  13.422  14.865
82408SOL    HW249122  14.820  13.324  14.867
82409SOL     OW49123  12.092   7.085   9.955
82409SOL    HW149124  12.089   7.004  10.007
82409SOL    HW249125  12.112   7.154  10.018
82410SOL     OW49126   8.767  10.630  10.657
82410SOL    HW149127   8.783  10.724  10.651
82410SOL    HW249128   8.846  10.594  10.698
82411SOL     OW49129  13.146  10.221   7.539
82411SOL    HW149130  13.236  10.211   7.571
82411SOL    HW249131  13.108  10.290   7.593
82412SOL     OW49132  14.176   5.395   1.967
82412SOL    HW149133  14.234   5.420   2.038
82412SOL    HW249134  14.212   5.313   1.934
82413SOL     OW49135  10.245   4.446   9.112
82413SOL    HW149136  10.239   4.541   9.101
82413SOL    HW249137  10.186   4.411   9.045
82414SOL     OW49138  13.231  10.911   4.395
82414SOL    HW149139  13.221  10.882   4.485
82414SOL    HW249140  13.183  10.993   4.390
82415SOL     OW49141   6.113   8.433   6.738
82415SOL    HW149142   6.074   8.518   6.718
82415SOL    HW249143   6.201   8.438   6.701
82416SOL     OW49144   0.175  11.211  14.232
82416SOL    HW149145   0.255  11.250  14.266
82416SOL    HW249146   0.184  11.118  14.252
82417SOL     OW49147   5.256   1.335   2.150
82417SOL    HW149148   5.236   1.293   2.234
82417SOL    HW249149   5.256   1.264   2.086
82418SOL     OW49150   8.648  12.297  14.354
82418SOL    HW149151   8.609  12.238  14.289
82418SOL    HW249152   8.580  12.306  14.421
82419SOL     OW49153   0.183   0.936   0.862
82419SOL    HW149154   0.149   0.926   0.951
82419SOL    HW249155   0.250   1.004   0.870
82420SOL     OW49156   7.542   0.182   4.337
82420SOL    HW149157   7.540   0.178   4.242
82420SOL    HW249158   7.633   0.205   4.358
82421SOL     OW49159  14.865  12.289   0.302
82421SOL    HW149160  14.772  12.270   0.293
82421SOL    HW249161  14.871  12.385   0.293
82422SOL     OW49162  10.134  10.720  14.254
82422SOL    HW149163  10.063  10.783  14.271
82422SOL    HW249164  10.203  10.772  14.213
82423SOL     OW49165   4.357   9.437  12.021
82423SOL    HW149166   4.387   9.513  12.071
82423SOL    HW249167   4.375   9.362  12.078
82424SOL     OW49168   0.900  11.326   7.903
82424SOL    HW149169   0.895  11.409   7.950
82424SOL    HW249170   0.905  11.259   7.971
82425SOL     OW49171  13.274   6.881   8.238
82425SOL    HW149172  13.353   6.858   8.287
82425SOL    HW249173  13.218   6.924   8.302
82426SOL     OW49174   6.478   7.132   9.463
82426SOL    HW149175   6.530   7.133   9.543
82426SOL    HW249176   6.445   7.042   9.457
82427SOL     OW49177   2.574  13.042   8.419
82427SOL    HW149178   2.534  12.957   8.435
82427SOL    HW249179   2.663  13.021   8.391
82428SOL     OW49180  13.358   1.856   2.888
82428SOL    HW149181  13.321   1.768   2.888
82428SOL    HW249182  13.330   1.894   2.805
82429SOL     OW49183  10.778   0.811   9.971
82429SOL    HW149184  10.778   0.872   9.897
82429SOL    HW249185  10.870   0.806   9.998
82430SOL     OW49186  11.506  10.413  11.415
82430SOL    HW149187  11.435  10.388  11.355
82430SOL    HW249188  11.583  10.421  11.359
82431SOL     OW49189   9.601   5.219   9.202
82431SOL    HW149190   9.554   5.302   9.210
82431SOL    HW249191   9.532   5.153   9.194
82432SOL     OW49192   6.744   5.996  13.563
82432SOL    HW149193   6.738   5.907  13.600
82432SOL    HW249194   6.657   6.014  13.529
82433SOL     OW49195   9.911   9.055   5.911
82433SOL    HW149196   9.895   9.105   5.991
82433SOL    HW249197   9.832   9.069   5.858
82434SOL     OW49198  12.761   1.989   8.034
82434SOL    HW149199  12.684   1.977   7.978
82434SOL    HW249200  12.814   2.053   7.988
82435SOL     OW49201   5.483  12.282  10.152
82435SOL    HW149202   5.444  12.195  10.141
82435SOL    HW249203   5.561  12.267  10.205
82436SOL     OW49204   7.025   9.624  14.530
82436SOL    HW149205   6.978   9.546  14.501
82436SOL    HW249206   6.956   9.689  14.545
82437SOL     OW49207  11.090   3.074   7.225
82437SOL    HW149208  11.055   3.148   7.275
82437SOL    HW249209  11.168   3.109   7.181
82438SOL     OW49210  12.917  11.015  14.659
82438SOL    HW149211  12.871  10.970  14.588
82438SOL    HW249212  13.000  10.968  14.667
82439SOL     OW49213  12.903   9.916  11.878
82439SOL    HW149214  12.919  10.008  11.855
82439SOL    HW249215  12.835   9.920  11.946
82440SOL     OW49216   9.279  11.723   4.714
82440SOL    HW149217   9.372  11.700   4.725
82440SOL    HW249218   9.244  11.724   4.803
82441SOL     OW49219  14.233   7.091  13.707
82441SOL    HW149220  14.272   7.178  13.723
82441SOL    HW249221  14.292   7.050  13.644
82442SOL     OW49222   6.817   0.446   0.592
82442SOL    HW149223   6.750   0.469   0.527
82442SOL    HW249224   6.881   0.395   0.542
82443SOL     OW49225  14.791   8.452   2.705
82443SOL    HW149226  14.758   8.503   2.779
82443SOL    HW249227  14.800   8.363   2.739
82444SOL     OW49228   2.046  14.770  14.392
82444SOL    HW149229   2.036  14.763  14.297
82444SOL    HW249230   1.985  14.840  14.417
82445SOL     OW49231   9.142   5.004   2.740
82445SOL    HW149232   9.140   5.098   2.721
82445SOL    HW249233   9.127   4.962   2.656
82446SOL     OW49234   5.372  14.581   9.741
82446SOL    HW149235   5.373  14.650   9.808
82446SOL    HW249236   5.336  14.504   9.787
82447SOL     OW49237   9.296   7.889   9.750
82447SOL    HW149238   9.362   7.843   9.801
82447SOL    HW249239   9.288   7.975   9.792
82448SOL     OW49240   2.867   4.094   6.245
82448SOL    HW149241   2.778   4.085   6.212
82448SOL    HW249242   2.909   4.156   6.186
82449SOL     OW49243   1.081  12.315   2.989
82449SOL    HW149244   1.169  12.337   2.957
82449SOL    HW249245   1.090  12.313   3.084
82450SOL     OW49246   6.408   3.109  12.067
82450SOL    HW149247   6.378   3.153  12.147
82450SOL    HW249248   6.339   3.126  12.003
82451SOL     OW49249   7.579   0.365   2.726
82451SOL    HW149250   7.515   0.295   2.737
82451SOL    HW249251   7.573   0.390   2.634
82452SOL     OW49252   2.172  14.218   3.530
82452SOL    HW149253   2.124  14.298   3.508
82452SOL    HW249254   2.251  14.223   3.477
82453SOL     OW49255   8.132   7.179   9.505
82453SOL    HW149256   8.165   7.141   9.587
82453SOL    HW249257   8.101   7.266   9.530
82454SOL     OW49258   5.715   6.185  13.320
82454SOL    HW149259   5.626   6.221  13.328
82454SOL    HW249260   5.738   6.157  13.408
82455SOL     OW49261   5.314  14.497   6.108
82455SOL    HW149262   5.245  14.439   6.077
82455SOL    HW249263   5.299  14.579   6.062
82456SOL     OW49264  11.269   8.005   0.722
82456SOL    HW149265  11.287   8.043   0.636
82456SOL    HW249266  11.288   7.912   0.711
82457SOL     OW49267  13.686   0.633   9.920
82457SOL    HW149268  13.614   0.639   9.983
82457SOL    HW249269  13.757   0.590   9.967
82458SOL     OW49270  14.515   9.993  13.101
82458SOL    HW149271  14.520  10.032  13.014
82458SOL    HW249272  14.603   9.999  13.136
82459SOL     OW49273   4.981  14.351   2.056
82459SOL    HW149274   4.940  14.331   2.140
82459SOL    HW249275   4.934  14.429   2.025
82460SOL     OW49276   5.897   1.572   8.447
82460SOL    HW149277   5.898   1.541   8.356
82460SOL    HW249278   5.919   1.495   8.499
82461SOL     OW49279  12.696   8.251   2.851
82461SOL    HW149280  12.742   8.170   2.872
82461SOL    HW249281  12.708   8.306   2.928
82462SOL     OW49282   6.497  14.184   5.600
82462SOL    HW149283   6.522  14.098   5.566
82462SOL    HW249284   6.485  14.170   5.694
82463SOL     OW49285  12.930  12.020   0.685
82463SOL    HW149286  12.937  11.939   0.735
82463SOL    HW249287  13.021  12.046   0.669
82464SOL     OW49288   5.237  10.738   3.586
82464SOL    HW149289   5.180  10.815   3.585
82464SOL    HW249290   5.254  10.720   3.494
82465SOL     OW49291  13.127   5.889   4.027
82465SOL    HW149292  13.056   5.860   3.969
82465SOL    HW249293  13.096   5.973   4.061
82466SOL     OW49294   9.755  10.179   6.736
82466SOL    HW149295   9.771  10.161   6.643
82466SOL    HW249296   9.825  10.238   6.762
82467SOL     OW49297  14.063   2.557   5.630
82467SOL    HW149298  14.049   2.611   5.708
82467SOL    HW249299  14.158   2.553   5.620
82468SOL     OW49300   3.242   5.714  12.608
82468SOL    HW149301   3.175   5.746  12.669
82468SOL    HW249302   3.270   5.792  12.561
82469SOL     OW49303   1.929  12.222  13.568
82469SOL    HW149304   2.020  12.196  13.552
82469SOL    HW249305   1.878  12.173  13.504
82470SOL     OW49306  11.613  10.163  10.902
82470SOL    HW149307  11.662  10.087  10.934
82470SOL    HW249308  11.664  10.194  10.827
82471SOL     OW49309   1.582  14.453  14.596
82471SOL    HW149310   1.505  14.443  14.652
82471SOL    HW249311   1.590  14.369  14.551
82472SOL     OW49312   1.388   4.882  13.262
82472SOL    HW149313   1.404   4.820  13.191
82472SOL    HW249314   1.427   4.840  13.339
82473SOL     OW49315  12.395  11.961   8.605
82473SOL    HW149316  12.480  11.925   8.632
82473SOL    HW249317  12.340  11.953   8.683
82474SOL     OW49318  14.497   9.854   2.898
82474SOL    HW149319  14.472   9.944   2.876
82474SOL    HW249320  14.550   9.825   2.824
82475SOL     OW49321  13.294  13.367   5.621
82475SOL    HW149322  13.236  13.365   5.697
82475SOL    HW249323  13.269  13.447   5.574
82476SOL     OW49324   8.153   9.859   8.758
82476SOL    HW149325   8.223   9.804   8.724
82476SOL    HW249326   8.199   9.934   8.798
82477SOL     OW49327   2.964  11.969   6.491
82477SOL    HW149328   3.006  11.986   6.575
82477SOL    HW249329   2.926  11.881   6.501
82478SOL     OW49330   9.058   0.873  12.146
82478SOL    HW149331   9.120   0.945  12.153
82478SOL    HW249332   9.089   0.807  12.209
82479SOL     OW49333  11.527   5.543  14.569
82479SOL    HW149334  11.491   5.459  14.542
82479SOL    HW249335  11.597   5.561  14.507
82480SOL     OW49336   4.426   6.609   7.185
82480SOL    HW149337   4.344   6.638   7.146
82480SOL    HW249338   4.474   6.689   7.204
82481SOL     OW49339   9.018   1.672   0.619
82481SOL    HW149340   8.924   1.679   0.604
82481SOL    HW249341   9.029   1.691   0.712
82482SOL     OW49342  11.044   1.504   7.915
82482SOL    HW149343  10.954   1.536   7.921
82482SOL    HW249344  11.038   1.411   7.933
82483SOL     OW49345  13.621   9.224  13.670
82483SOL    HW149346  13.648   9.229  13.578
82483SOL    HW249347  13.609   9.130  13.686
82484SOL     OW49348   7.564  11.435   6.264
82484SOL    HW149349   7.629  11.485   6.213
82484SOL    HW249350   7.512  11.389   6.199
82485SOL     OW49351   3.641  11.110   9.572
82485SOL    HW149352   3.647  11.178   9.639
82485SOL    HW249353   3.549  11.108   9.547
82486SOL     OW49354   3.932   5.117   1.991
82486SOL    HW149355   3.931   5.193   1.932
82486SOL    HW249356   4.024   5.098   2.006
82487SOL     OW49357   8.114  12.244  12.614
82487SOL    HW149358   8.144  12.153  12.607
82487SOL    HW249359   8.028  12.245  12.571
82488SOL     OW49360   6.307   9.546  14.021
82488SOL    HW149361   6.340   9.469  13.974
82488SOL    HW249362   6.213   9.532  14.026
82489SOL     OW49363   3.991   3.328   1.387
82489SOL    HW149364   3.952   3.369   1.465
82489SOL    HW249365   3.957   3.238   1.389
82490SOL     OW49366   4.725   9.124   1.154
82490SOL    HW149367   4.649   9.172   1.184
82490SOL    HW249368   4.800   9.170   1.193
82491SOL     OW49369   8.799   0.065   0.573
82491SOL    HW149370   8.720   0.042   0.622
82491SOL    HW249371   8.780   0.038   0.483
82492SOL     OW49372   5.251   2.362   7.150
82492SOL    HW149373   5.258   2.414   7.070
82492SOL    HW249374   5.290   2.278   7.128
82493SOL     OW49375  13.678  12.552   6.243
82493SOL    HW149376  13.710  12.620   6.302
82493SOL    HW249377  13.589  12.578   6.221
82494SOL     OW49378   1.397   2.011   4.503
82494SOL    HW149379   1.321   2.066   4.485
82494SOL    HW249380   1.472   2.070   4.496
82495SOL     OW49381   2.409   3.692   9.786
82495SOL    HW149382   2.354   3.643   9.724
82495SOL    HW249383   2.362   3.688   9.869
82496SOL     OW49384   6.332   1.308  10.387
82496SOL    HW149385   6.299   1.355  10.463
82496SOL    HW249386   6.263   1.316  10.321
82497SOL     OW49387   6.069  10.058  12.596
82497SOL    HW149388   6.049   9.974  12.554
82497SOL    HW249389   6.000  10.117  12.566
82498SOL     OW49390   2.288   1.068  14.657
82498SOL    HW149391   2.363   1.009  14.667
82498SOL    HW249392   2.227   1.020  14.600
82499SOL     OW49393  13.966   1.830   4.986
82499SOL    HW149394  13.879   1.851   4.954
82499SOL    HW249395  13.957   1.744   5.027
82500SOL     OW49396  11.391   2.485   0.996
82500SOL    HW149397  11.383   2.501   1.090
82500SOL    HW249398  11.302   2.469   0.967
82501SOL     OW49399   9.554   1.325  10.881
82501SOL    HW149400   9.572   1.336  10.788
82501SOL    HW249401   9.474   1.377  10.896
82502SOL     OW49402   6.657   3.925  13.071
82502SOL    HW149403   6.625   3.875  12.996
82502SOL    HW249404   6.723   3.983  13.034
82503SOL     OW49405   9.504   5.587  14.159
82503SOL    HW149406   9.538   5.674  14.136
82503SOL    HW249407   9.564   5.526  14.116
82504SOL     OW49408   7.250   7.743  14.879
82504SOL    HW149409   7.308   7.757   0.072
82504SOL    HW249410   7.196   7.823  14.876
82505SOL     OW49411   1.920   6.974   3.186
82505SOL    HW149412   1.895   7.065   3.200
82505SOL    HW249413   1.842   6.924   3.210
82506SOL     OW49414   8.941   1.810   8.163
82506SOL    HW149415   8.880   1.884   8.162
82506SOL    HW249416   8.908   1.752   8.232
82507SOL     OW49417   0.483   3.329  13.145
82507SOL    HW149418   0.523   3.292  13.067
82507SOL    HW249419   0.400   3.366  13.113
82508SOL     OW49420   1.916   2.022   0.875
82508SOL    HW149421   1.978   2.001   0.806
82508SOL    HW249422   1.893   1.937   0.914
82509SOL     OW49423   5.221   7.450   4.364
82509SOL    HW149424   5.136   7.443   4.321
82509SOL    HW249425   5.247   7.541   4.352
82510SOL     OW49426  11.766   2.495   2.960
82510SOL    HW149427  11.697   2.506   3.025
82510SOL    HW249428  11.741   2.417   2.911
82511SOL     OW49429   3.975   5.610   0.311
82511SOL    HW149430   4.008   5.653   0.390
82511SOL    HW249431   3.916   5.542   0.343
82512SOL     OW49432  14.455   4.005   2.261
82512SOL    HW149433  14.404   4.056   2.198
82512SOL    HW249434  14.390   3.969   2.321
82513SOL     OW49435   4.400  13.966   8.155
82513SOL    HW149436   4.335  13.896   8.146
82513SOL    HW249437   4.364  14.039   8.105
82514SOL     OW49438   2.481  13.824   8.845
82514SOL    HW149439   2.502  13.766   8.919
82514SOL    HW249440   2.408  13.877   8.876
82515SOL     OW49441  12.581   4.270   8.753
82515SOL    HW149442  12.578   4.288   8.659
82515SOL    HW249443  12.497   4.302   8.785
82516SOL     OW49444  14.769   8.250   7.945
82516SOL    HW149445  14.850   8.295   7.919
82516SOL    HW249446  14.703   8.284   7.885
82517SOL     OW49447  12.507   0.969  10.441
82517SOL    HW149448  12.570   0.911  10.397
82517SOL    HW249449  12.476   1.028  10.372
82518SOL     OW49450  11.870   6.385  10.502
82518SOL    HW149451  11.896   6.293  10.512
82518SOL    HW249452  11.841   6.392  10.412
82519SOL     OW49453  11.824   9.878  12.708
82519SOL    HW149454  11.852   9.815  12.642
82519SOL    HW249455  11.780   9.826  12.775
82520SOL     OW49456   6.745   5.686   0.074
82520SOL    HW149457   6.714   5.600   0.103
82520SOL    HW249458   6.727   5.688  14.862
82521SOL     OW49459  11.691  12.024  10.859
82521SOL    HW149460  11.609  12.026  10.810
82521SOL    HW249461  11.752  11.977  10.802
82522SOL     OW49462   2.815   1.932   7.951
82522SOL    HW149463   2.728   1.894   7.963
82522SOL    HW249464   2.810   1.977   7.867
82523SOL     OW49465  12.864   9.988   2.388
82523SOL    HW149466  12.842  10.012   2.298
82523SOL    HW249467  12.907  10.066   2.424
82524SOL     OW49468   9.384   6.602   5.890
82524SOL    HW149469   9.319   6.648   5.837
82524SOL    HW249470   9.464   6.606   5.838
82525SOL     OW49471   3.787   7.212   1.232
82525SOL    HW149472   3.696   7.241   1.243
82525SOL    HW249473   3.780   7.119   1.213
82526SOL     OW49474   6.710   4.237  14.771
82526SOL    HW149475   6.794   4.220  14.811
82526SOL    HW249476   6.713   4.329  14.746
82527SOL     OW49477   8.220  12.117  10.685
82527SOL    HW149478   8.286  12.051  10.703
82527SOL    HW249479   8.136  12.072  10.698
82528SOL     OW49480   7.271  14.306  14.616
82528SOL    HW149481   7.230  14.352  14.542
82528SOL    HW249482   7.346  14.261  14.577
82529SOL     OW49483   4.378   6.265   0.299
82529SOL    HW149484   4.378   6.219   0.215
82529SOL    HW249485   4.311   6.333   0.289
82530SOL     OW49486   0.767   4.623   7.621
82530SOL    HW149487   0.736   4.534   7.602
82530SOL    HW249488   0.852   4.629   7.578
82531SOL     OW49489   3.666   2.806  14.653
82531SOL    HW149490   3.576   2.837  14.650
82531SOL    HW249491   3.692   2.796  14.561
82532SOL     OW49492  13.113  13.564   9.878
82532SOL    HW149493  13.129  13.506   9.804
82532SOL    HW249494  13.183  13.629   9.874
82533SOL     OW49495   2.048  13.219  10.047
82533SOL    HW149496   1.991  13.294  10.032
82533SOL    HW249497   1.995  13.157  10.097
82534SOL     OW49498  13.473  11.128   8.960
82534SOL    HW149499  13.503  11.201   9.013
82534SOL    HW249500  13.552  11.095   8.916
82535SOL     OW49501   1.515   6.493  12.128
82535SOL    HW149502   1.489   6.491  12.035
82535SOL    HW249503   1.580   6.423  12.136
82536SOL     OW49504   3.254  13.824  13.061
82536SOL    HW149505   3.305  13.895  13.022
82536SOL    HW249506   3.231  13.768  12.987
82537SOL     OW49507   2.315   7.137  12.770
82537SOL    HW149508   2.220   7.142  12.766
82537SOL    HW249509   2.336   7.046  12.753
82538SOL     OW49510   5.295   0.744   0.860
82538SOL    HW149511   5.378   0.765   0.905
82538SOL    HW249512   5.289   0.649   0.864
82539SOL     OW49513  12.088   4.965   1.991
82539SOL    HW149514  12.120   4.932   2.075
82539SOL    HW249515  12.149   4.930   1.926
82540SOL     OW49516   9.094   8.502   3.343
82540SOL    HW149517   9.028   8.443   3.381
82540SOL    HW249518   9.121   8.557   3.416
82541SOL     OW49519   6.858   3.277   9.764
82541SOL    HW149520   6.849   3.218   9.840
82541SOL    HW249521   6.929   3.239   9.713
82542SOL     OW49522   0.110   9.233   9.411
82542SOL    HW149523   0.195   9.249   9.451
82542SOL    HW249524   0.079   9.152   9.451
82543SOL     OW49525   9.306  12.352   2.342
82543SOL    HW149526   9.393  12.391   2.330
82543SOL    HW249527   9.254  12.388   2.270
82544SOL     OW49528   7.568   4.570   7.115
82544SOL    HW149529   7.617   4.533   7.189
82544SOL    HW249530   7.523   4.496   7.076
82545SOL     OW49531   7.950   6.675   0.285
82545SOL    HW149532   7.874   6.616   0.283
82545SOL    HW249533   8.000   6.647   0.362
82546SOL     OW49534  12.669  11.178   7.031
82546SOL    HW149535  12.696  11.135   7.112
82546SOL    HW249536  12.630  11.260   7.060
82547SOL     OW49537  14.090  13.794   8.441
82547SOL    HW149538  14.102  13.869   8.499
82547SOL    HW249539  14.167  13.797   8.383
82548SOL     OW49540  12.248  12.654   4.119
82548SOL    HW149541  12.263  12.605   4.038
82548SOL    HW249542  12.255  12.746   4.093
82549SOL     OW49543   0.917   3.158   6.505
82549SOL    HW149544   0.982   3.197   6.448
82549SOL    HW249545   0.876   3.090   6.453
82550SOL     OW49546   1.061   5.780   5.458
82550SOL    HW149547   1.017   5.864   5.445
82550SOL    HW249548   0.999   5.715   5.425
82551SOL     OW49549   6.008   3.612   8.793
82551SOL    HW149550   6.030   3.621   8.885
82551SOL    HW249551   5.920   3.573   8.793
82552SOL     OW49552   5.382  10.943  14.300
82552SOL    HW149553   5.396  10.874  14.364
82552SOL    HW249554   5.405  11.024  14.346
82553SOL     OW49555  10.012  13.646   8.404
82553SOL    HW149556   9.948  13.582   8.372
82553SOL    HW249557   9.988  13.662   8.495
82554SOL     OW49558   2.110  11.574  11.339
82554SOL    HW149559   2.034  11.529  11.304
82554SOL    HW249560   2.102  11.664  11.306
82555SOL     OW49561   2.619   9.136   5.404
82555SOL    HW149562   2.598   9.122   5.312
82555SOL    HW249563   2.697   9.082   5.420
82556SOL     OW49564   4.659   7.643   0.846
82556SOL    HW149565   4.595   7.714   0.857
82556SOL    HW249566   4.675   7.612   0.934
82557SOL     OW49567   0.729   2.199   1.551
82557SOL    HW149568   0.649   2.175   1.598
82557SOL    HW249569   0.704   2.274   1.498
82558SOL     OW49570   9.910   0.628   9.105
82558SOL    HW149571   9.902   0.534   9.087
82558SOL    HW249572   9.833   0.649   9.158
82559SOL     OW49573  14.662   1.564  10.567
82559SOL    HW149574  14.714   1.560  10.648
82559SOL    HW249575  14.649   1.658  10.552
82560SOL     OW49576   2.403   4.587   0.628
82560SOL    HW149577   2.324   4.536   0.611
82560SOL    HW249578   2.395   4.613   0.720
82561SOL     OW49579   4.282   2.097   6.773
82561SOL    HW149580   4.330   2.017   6.750
82561SOL    HW249581   4.280   2.098   6.868
82562SOL     OW49582   8.392  13.471   0.916
82562SOL    HW149583   8.334  13.465   0.840
82562SOL    HW249584   8.422  13.562   0.917
82563SOL     OW49585   2.664  11.998  11.473
82563SOL    HW149586   2.634  11.944  11.546
82563SOL    HW249587   2.757  11.977  11.463
82564SOL     OW49588   0.934   1.186   9.170
82564SOL    HW149589   1.008   1.233   9.207
82564SOL    HW249590   0.933   1.102   9.215
82565SOL     OW49591  11.504   6.216   8.073
82565SOL    HW149592  11.596   6.191   8.061
82565SOL    HW249593  11.454   6.139   8.048
82566SOL     OW49594   8.995  12.183   6.147
82566SOL    HW149595   8.974  12.090   6.157
82566SOL    HW249596   9.088  12.183   6.123
82567SOL     OW49597  10.683  13.585  13.368
82567SOL    HW149598  10.641  13.609  13.285
82567SOL    HW249599  10.680  13.490  13.370
82568SOL     OW49600   8.695   2.855  11.440
82568SOL    HW149601   8.789   2.856  11.461
82568SOL    HW249602   8.684   2.776  11.387
82569SOL     OW49603  13.054   8.613   3.387
82569SOL    HW149604  13.069   8.687   3.329
82569SOL    HW249605  12.962   8.620   3.413
82570SOL     OW49606   1.123  11.029   7.719
82570SOL    HW149607   1.165  11.115   7.714
82570SOL    HW249608   1.192  10.968   7.691
82571SOL     OW49609   1.573   7.798   7.730
82571SOL    HW149610   1.498   7.843   7.690
82571SOL    HW249611   1.647   7.819   7.674
82572SOL     OW49612  14.254   9.827  13.406
82572SOL    HW149613  14.182   9.804  13.465
82572SOL    HW249614  14.248   9.922  13.397
82573SOL     OW49615   6.774  12.055   5.812
82573SOL    HW149616   6.814  12.013   5.888
82573SOL    HW249617   6.728  12.131   5.848
82574SOL     OW49618  11.815  10.767  11.537
82574SOL    HW149619  11.758  10.691  11.528
82574SOL    HW249620  11.900  10.730  11.560
82575SOL     OW49621   4.969   0.314   8.477
82575SOL    HW149622   4.947   0.383   8.540
82575SOL    HW249623   4.980   0.360   8.394
82576SOL     OW49624   2.975   4.061  13.503
82576SOL    HW149625   2.989   4.153  13.525
82576SOL    HW249626   2.885   4.043  13.532
82577SOL     OW49627   9.079   0.431   9.398
82577SOL    HW149628   9.073   0.507   9.455
82577SOL    HW249629   8.990   0.417   9.366
82578SOL     OW49630   7.462   5.626  14.122
82578SOL    HW149631   7.395   5.582  14.174
82578SOL    HW249632   7.523   5.556  14.097
82579SOL     OW49633  11.357  14.124   9.546
82579SOL    HW149634  11.337  14.046   9.495
82579SOL    HW249635  11.399  14.183   9.484
82580SOL     OW49636   6.316   2.854   8.928
82580SOL    HW149637   6.376   2.805   8.985
82580SOL    HW249638   6.307   2.940   8.970
82581SOL     OW49639   6.726   0.924   5.800
82581SOL    HW149640   6.692   0.846   5.756
82581SOL    HW249641   6.678   0.997   5.761
82582SOL     OW49642   2.952  14.645   3.057
82582SOL    HW149643   2.887  14.681   2.997
82582SOL    HW249644   2.965  14.715   3.122
82583SOL     OW49645  12.261   0.212   1.242
82583SOL    HW149646  12.201   0.237   1.172
82583SOL    HW249647  12.246   0.276   1.311
82584SOL     OW49648   0.636   1.556   2.615
82584SOL    HW149649   0.653   1.558   2.521
82584SOL    HW249650   0.548   1.593   2.624
82585SOL     OW49651  13.379   5.793   7.131
82585SOL    HW149652  13.432   5.870   7.152
82585SOL    HW249653  13.331   5.774   7.212
82586SOL     OW49654   8.896   0.547   5.057
82586SOL    HW149655   8.861   0.478   5.001
82586SOL    HW249656   8.989   0.525   5.066
82587SOL     OW49657  11.803   5.018   0.442
82587SOL    HW149658  11.725   4.989   0.395
82587SOL    HW249659  11.839   4.938   0.481
82588SOL     OW49660  11.964  13.930   4.971
82588SOL    HW149661  11.977  13.835   4.975
82588SOL    HW249662  12.011  13.964   5.047
82589SOL     OW49663   7.687   4.411   8.192
82589SOL    HW149664   7.765   4.369   8.228
82589SOL    HW249665   7.620   4.343   8.196
82590SOL     OW49666  10.162   3.323  12.145
82590SOL    HW149667  10.237   3.341  12.202
82590SOL    HW249668  10.097   3.282  12.203
82591SOL     OW49669   8.867  14.687   1.981
82591SOL    HW149670   8.894  14.669   2.071
82591SOL    HW249671   8.934  14.645   1.927
82592SOL     OW49672   8.142   0.001   1.177
82592SOL    HW149673   8.220   0.014   1.122
82592SOL    HW249674   8.176  14.845   1.258
82593SOL     OW49675   2.259   2.125  11.496
82593SOL    HW149676   2.270   2.218  11.512
82593SOL    HW249677   2.305   2.109  11.414
82594SOL     OW49678  12.415  13.871  13.316
82594SOL    HW149679  12.435  13.790  13.364
82594SOL    HW249680  12.336  13.850  13.267
82595SOL     OW49681   3.335   8.501   8.230
82595SOL    HW149682   3.416   8.450   8.220
82595SOL    HW249683   3.319   8.537   8.144
82596SOL     OW49684   9.134   1.685  11.504
82596SOL    HW149685   9.107   1.709  11.592
82596SOL    HW249686   9.083   1.607  11.484
82597SOL     OW49687  12.380   6.468  13.142
82597SOL    HW149688  12.471   6.465  13.172
82597SOL    HW249689  12.371   6.553  13.098
82598SOL     OW49690  11.820   9.794   5.124
82598SOL    HW149691  11.747   9.834   5.172
82598SOL    HW249692  11.886   9.863   5.120
82599SOL     OW49693   5.596  10.303   4.661
82599SOL    HW149694   5.643  10.356   4.596
82599SOL    HW249695   5.622  10.339   4.745
82600SOL     OW49696   4.349   1.129  12.086
82600SOL    HW149697   4.413   1.145  12.018
82600SOL    HW249698   4.400   1.121  12.167
82601SOL     OW49699   1.029   5.514  12.035
82601SOL    HW149700   1.050   5.445  12.099
82601SOL    HW249701   0.988   5.583  12.088
82602SOL     OW49702  11.181   0.117   6.704
82602SOL    HW149703  11.165   0.106   6.798
82602SOL    HW249704  11.116   0.061   6.662
82603SOL     OW49705   7.944   1.811   4.330
82603SOL    HW149706   7.914   1.777   4.414
82603SOL    HW249707   7.865   1.811   4.274
82604SOL     OW49708  14.385  11.622   7.596
82604SOL    HW149709  14.401  11.629   7.501
82604SOL    HW249710  14.366  11.712   7.623
82605SOL     OW49711  12.431   6.958   2.523
82605SOL    HW149712  12.384   6.875   2.519
82605SOL    HW249713  12.364   7.022   2.548
82606SOL     OW49714  13.610   2.674   9.599
82606SOL    HW149715  13.686   2.724   9.568
82606SOL    HW249716  13.592   2.709   9.686
82607SOL     OW49717   5.917   2.228   1.903
82607SOL    HW149718   5.821   2.225   1.906
82607SOL    HW249719   5.944   2.185   1.985
82608SOL     OW49720  14.398  11.443   9.533
82608SOL    HW149721  14.476  11.482   9.494
82608SOL    HW249722  14.402  11.467   9.625
82609SOL     OW49723   0.107  11.610   9.811
82609SOL    HW149724   0.039  11.620   9.744
82609SOL    HW249725   0.065  11.641   9.891
82610SOL     OW49726   8.572   2.216   2.472
82610SOL    HW149727   8.628   2.284   2.510
82610SOL    HW249728   8.598   2.136   2.519
82611SOL     OW49729  10.375   0.110   9.806
82611SOL    HW149730  10.454   0.105   9.860
82611SOL    HW249731  10.318   0.041   9.841
82612SOL     OW49732  14.453   3.885   1.616
82612SOL    HW149733  14.470   3.803   1.571
82612SOL    HW249734  14.540   3.924   1.628
82613SOL     OW49735   4.682   4.645  13.829
82613SOL    HW149736   4.650   4.645  13.738
82613SOL    HW249737   4.760   4.589  13.827
82614SOL     OW49738   6.777   9.929   4.835
82614SOL    HW149739   6.738   9.905   4.919
82614SOL    HW249740   6.792  10.023   4.841
82615SOL     OW49741  12.908  10.570  12.847
82615SOL    HW149742  12.948  10.515  12.780
82615SOL    HW249743  12.980  10.624  12.879
82616SOL     OW49744   1.648  11.818  11.592
82616SOL    HW149745   1.647  11.743  11.651
82616SOL    HW249746   1.638  11.894  11.650
82617SOL     OW49747  14.454  14.541   9.297
82617SOL    HW149748  14.533  14.595   9.302
82617SOL    HW249749  14.476  14.471   9.236
82618SOL     OW49750   6.208   0.410   4.729
82618SOL    HW149751   6.161   0.401   4.812
82618SOL    HW249752   6.285   0.463   4.750
82619SOL     OW49753  12.091   7.837   3.909
82619SOL    HW149754  12.116   7.930   3.910
82619SOL    HW249755  12.040   7.828   3.828
82620SOL     OW49756   3.591   4.013   5.714
82620SOL    HW149757   3.558   4.074   5.649
82620SOL    HW249758   3.642   3.949   5.664
82621SOL     OW49759   5.783   7.328   7.851
82621SOL    HW149760   5.858   7.323   7.792
82621SOL    HW249761   5.822   7.343   7.937
82622SOL     OW49762  10.640  11.159   4.544
82622SOL    HW149763  10.585  11.124   4.474
82622SOL    HW249764  10.577  11.200   4.604
82623SOL     OW49765   3.058  10.833  10.656
82623SOL    HW149766   3.116  10.804  10.726
82623SOL    HW249767   3.080  10.925  10.643
82624SOL     OW49768  13.656   2.359   6.317
82624SOL    HW149769  13.591   2.296   6.287
82624SOL    HW249770  13.605   2.432   6.352
82625SOL     OW49771   7.187  10.065  13.543
82625SOL    HW149772   7.246  10.046  13.469
82625SOL    HW249773   7.237  10.126  13.597
82626SOL     OW49774   6.148   7.689   0.884
82626SOL    HW149775   6.069   7.736   0.912
82626SOL    HW249776   6.218   7.724   0.939
82627SOL     OW49777   3.289  13.639  10.945
82627SOL    HW149778   3.275  13.618  10.852
82627SOL    HW249779   3.325  13.559  10.982
82628SOL     OW49780  14.124  13.223   5.015
82628SOL    HW149781  14.112  13.145   4.960
82628SOL    HW249782  14.149  13.188   5.101
82629SOL     OW49783   3.835  14.530  10.519
82629SOL    HW149784   3.744  14.504  10.528
82629SOL    HW249785   3.883  14.469  10.574
82630SOL     OW49786   7.882  14.185   9.470
82630SOL    HW149787   7.924  14.270   9.461
82630SOL    HW249788   7.952  14.126   9.499
82631SOL     OW49789   9.038   1.936   7.716
82631SOL    HW149790   9.039   1.974   7.628
82631SOL    HW249791   9.073   1.847   7.703
82632SOL     OW49792   9.444  14.539   0.124
82632SOL    HW149793   9.416  14.526   0.033
82632SOL    HW249794   9.392  14.612   0.156
82633SOL     OW49795  10.915  14.050   7.170
82633SOL    HW149796  10.838  14.088   7.212
82633SOL    HW249797  10.984  14.058   7.236
82634SOL     OW49798   7.119   6.477  11.844
82634SOL    HW149799   7.102   6.542  11.776
82634SOL    HW249800   7.044   6.484  11.903
82635SOL     OW49801   6.994  14.348  10.460
82635SOL    HW149802   6.999  14.270  10.405
82635SOL    HW249803   6.996  14.315  10.550
82636SOL     OW49804   1.730   5.259  14.163
82636SOL    HW149805   1.740   5.243  14.069
82636SOL    HW249806   1.774   5.186  14.205
82637SOL     OW49807  12.419   9.327  13.394
82637SOL    HW149808  12.500   9.368  13.426
82637SOL    HW249809  12.350   9.389  13.419
82638SOL     OW49810  12.030   4.185   9.870
82638SOL    HW149811  12.094   4.253   9.849
82638SOL    HW249812  12.049   4.161   9.961
82639SOL     OW49813   4.165   0.083  10.760
82639SOL    HW149814   4.121   0.001  10.741
82639SOL    HW249815   4.114   0.122  10.831
82640SOL     OW49816   4.091  13.375   0.733
82640SOL    HW149817   4.086  13.373   0.638
82640SOL    HW249818   4.067  13.464   0.757
82641SOL     OW49819   1.533  13.210  14.098
82641SOL    HW149820   1.627  13.193  14.109
82641SOL    HW249821   1.525  13.242  14.008
82642SOL     OW49822   2.050  13.860  14.137
82642SOL    HW149823   2.083  13.873  14.048
82642SOL    HW249824   1.960  13.829  14.125
82643SOL     OW49825   4.801   8.414   3.161
82643SOL    HW149826   4.763   8.490   3.118
82643SOL    HW249827   4.894   8.436   3.170
82644SOL     OW49828   7.158   4.595  12.276
82644SOL    HW149829   7.159   4.513  12.325
82644SOL    HW249830   7.175   4.569  12.186
82645SOL     OW49831   6.330  11.598   5.080
82645SOL    HW149832   6.415  11.606   5.037
82645SOL    HW249833   6.274  11.661   5.034
82646SOL     OW49834   0.930   6.600   3.527
82646SOL    HW149835   0.976   6.525   3.492
82646SOL    HW249836   0.838   6.573   3.530
82647SOL     OW49837   2.035   8.135  11.643
82647SOL    HW149838   2.126   8.158  11.626
82647SOL    HW249839   1.989   8.161  11.563
82648SOL     OW49840   9.068  10.630   6.301
82648SOL    HW149841   9.038  10.580   6.377
82648SOL    HW249842   9.159  10.653   6.321
82649SOL     OW49843  10.878  10.623   1.318
82649SOL    HW149844  10.835  10.665   1.243
82649SOL    HW249845  10.914  10.695   1.369
82650SOL     OW49846   4.003   6.057   4.030
82650SOL    HW149847   3.997   5.963   4.018
82650SOL    HW249848   4.018   6.092   3.941
82651SOL     OW49849   6.875  13.172  11.983
82651SOL    HW149850   6.787  13.169  11.947
82651SOL    HW249851   6.929  13.208  11.912
82652SOL     OW49852  14.304   7.397   8.313
82652SOL    HW149853  14.244   7.415   8.386
82652SOL    HW249854  14.355   7.478   8.304
82653SOL     OW49855   0.332   2.098  11.085
82653SOL    HW149856   0.353   2.185  11.118
82653SOL    HW249857   0.396   2.040  11.126
82654SOL     OW49858  12.866   6.256   4.201
82654SOL    HW149859  12.880   6.341   4.159
82654SOL    HW249860  12.832   6.279   4.288
82655SOL     OW49861  14.579   2.472   8.264
82655SOL    HW149862  14.487   2.487   8.286
82655SOL    HW249863  14.591   2.378   8.274
82656SOL     OW49864  14.198   6.847   1.964
82656SOL    HW149865  14.271   6.787   1.947
82656SOL    HW249866  14.129   6.818   1.905
82657SOL     OW49867  13.726   9.819   3.458
82657SOL    HW149868  13.698   9.876   3.530
82657SOL    HW249869  13.761   9.879   3.392
82658SOL     OW49870   7.445   2.982   1.272
82658SOL    HW149871   7.359   3.019   1.293
82658SOL    HW249872   7.427   2.917   1.204
82659SOL     OW49873   1.655  14.861   7.753
82659SOL    HW149874   1.642  14.767   7.758
82659SOL    HW249875   1.750  14.873   7.754
82660SOL     OW49876   5.225   7.690  10.977
82660SOL    HW149877   5.276   7.674  10.897
82660SOL    HW249878   5.241   7.613  11.031
82661SOL     OW49879   8.877  12.993  12.661
82661SOL    HW149880   8.832  12.952  12.587
82661SOL    HW249881   8.889  12.923  12.724
82662SOL     OW49882   5.230   4.713  14.155
82662SOL    HW149883   5.207   4.748  14.241
82662SOL    HW249884   5.188   4.772  14.092
82663SOL     OW49885   6.451   7.099   1.691
82663SOL    HW149886   6.445   7.035   1.620
82663SOL    HW249887   6.396   7.172   1.662
82664SOL     OW49888   2.560   8.639   0.335
82664SOL    HW149889   2.588   8.708   0.395
82664SOL    HW249890   2.633   8.577   0.333
82665SOL     OW49891  11.800  12.213   0.559
82665SOL    HW149892  11.741  12.254   0.496
82665SOL    HW249893  11.831  12.284   0.614
82666SOL     OW49894   1.127   7.970   2.848
82666SOL    HW149895   1.056   7.952   2.786
82666SOL    HW249896   1.165   7.884   2.865
82667SOL     OW49897   8.038   0.363  14.144
82667SOL    HW149898   8.064   0.275  14.168
82667SOL    HW249899   8.009   0.404  14.226
82668SOL     OW49900  12.357   6.858   1.687
82668SOL    HW149901  12.406   6.779   1.710
82668SOL    HW249902  12.314   6.885   1.768
82669SOL     OW49903   2.084  12.876   4.795
82669SOL    HW149904   2.023  12.900   4.726
82669SOL    HW249905   2.160  12.933   4.781
82670SOL     OW49906   5.787  14.568   3.784
82670SOL    HW149907   5.841  14.613   3.849
82670SOL    HW249908   5.826  14.592   3.700
82671SOL     OW49909  12.656   5.406  12.003
82671SOL    HW149910  12.572   5.448  12.021
82671SOL    HW249911  12.648   5.320  12.044
82672SOL     OW49912   7.637   7.905   7.980
82672SOL    HW149913   7.576   7.901   8.054
82672SOL    HW249914   7.674   7.817   7.975
82673SOL     OW49915   1.031   3.494   8.355
82673SOL    HW149916   1.021   3.425   8.289
82673SOL    HW249917   1.037   3.446   8.438
82674SOL     OW49918  13.300   1.131   6.395
82674SOL    HW149919  13.329   1.039   6.401
82674SOL    HW249920  13.205   1.125   6.384
82675SOL     OW49921   7.036   1.494  13.577
82675SOL    HW149922   7.124   1.470  13.605
82675SOL    HW249923   6.989   1.509  13.659
82676SOL     OW49924   3.058   1.193  11.898
82676SOL    HW149925   3.119   1.253  11.941
82676SOL    HW249926   2.977   1.201  11.948
82677SOL     OW49927  10.323   7.819  11.007
82677SOL    HW149928  10.241   7.773  11.022
82677SOL    HW249929  10.391   7.758  11.035
82678SOL     OW49930   2.199   3.981   2.004
82678SOL    HW149931   2.216   4.055   2.061
82678SOL    HW249932   2.259   3.913   2.034
82679SOL     OW49933   3.981   7.550   7.033
82679SOL    HW149934   3.892   7.563   7.001
82679SOL    HW249935   4.002   7.631   7.079
82680SOL     OW49936   5.680   3.369   1.129
82680SOL    HW149937   5.587   3.381   1.111
82680SOL    HW249938   5.695   3.275   1.117
82681SOL     OW49939   2.270  13.678  12.942
82681SOL    HW149940   2.249  13.769  12.964
82681SOL    HW249941   2.361  13.681  12.912
82682SOL     OW49942  13.255   4.171   4.180
82682SOL    HW149943  13.208   4.189   4.261
82682SOL    HW249944  13.284   4.080   4.188
82683SOL     OW49945   3.773   9.985   2.931
82683SOL    HW149946   3.800   9.894   2.924
82683SOL    HW249947   3.744   9.995   3.022
82684SOL     OW49948   5.087   8.342  14.795
82684SOL    HW149949   5.066   8.312   0.002
82684SOL    HW249950   5.177   8.314  14.781
82685SOL     OW49951   1.973   2.080   1.859
82685SOL    HW149952   2.058   2.066   1.817
82685SOL    HW249953   1.992   2.081   1.952
82686SOL     OW49954   8.110   4.347   8.748
82686SOL    HW149955   8.071   4.416   8.801
82686SOL    HW249956   8.036   4.290   8.725
82687SOL     OW49957   2.127  14.714   3.585
82687SOL    HW149958   2.106  14.758   3.667
82687SOL    HW249959   2.059  14.743   3.524
82688SOL     OW49960  12.795   0.682   7.043
82688SOL    HW149961  12.795   0.774   7.018
82688SOL    HW249962  12.886   0.664   7.067
82689SOL     OW49963   7.963   9.207   4.156
82689SOL    HW149964   8.001   9.122   4.176
82689SOL    HW249965   7.872   9.200   4.186
82690SOL     OW49966   5.685   7.144   6.371
82690SOL    HW149967   5.688   7.126   6.277
82690SOL    HW249968   5.776   7.162   6.395
82691SOL     OW49969  11.557   8.322  13.784
82691SOL    HW149970  11.536   8.310  13.691
82691SOL    HW249971  11.629   8.261  13.800
82692SOL     OW49972  13.636   5.725  12.282
82692SOL    HW149973  13.644   5.672  12.203
82692SOL    HW249974  13.726   5.739  12.312
82693SOL     OW49975   1.965   8.891   6.623
82693SOL    HW149976   2.045   8.897   6.675
82693SOL    HW249977   1.992   8.848   6.542
82694SOL     OW49978   8.466   7.449   8.793
82694SOL    HW149979   8.518   7.383   8.838
82694SOL    HW249980   8.460   7.522   8.855
82695SOL     OW49981  13.303   7.915   7.018
82695SOL    HW149982  13.284   7.832   7.063
82695SOL    HW249983  13.393   7.905   6.987
82696SOL     OW49984  10.419  10.150  12.610
82696SOL    HW149985  10.372  10.097  12.546
82696SOL    HW249986  10.441  10.230  12.564
82697SOL     OW49987   7.080   0.598   3.106
82697SOL    HW149988   7.084   0.669   3.041
82697SOL    HW249989   7.125   0.633   3.183
82698SOL     OW49990   6.763   2.310  11.785
82698SOL    HW149991   6.785   2.394  11.743
82698SOL    HW249992   6.790   2.322  11.876
82699SOL     OW49993  14.876   0.072   0.021
82699SOL    HW149994  14.792   0.029   0.006
82699SOL    HW249995   0.037   0.072  14.818
82700SOL     OW49996   2.656   2.101   4.252
82700SOL    HW149997   2.722   2.150   4.203
82700SOL    HW249998   2.639   2.155   4.329
82701SOL     OW49999   9.399  13.651   3.939
82701SOL    HW150000   9.349  13.678   4.016
82701SOL    HW250001   9.427  13.733   3.898
82702SOL     OW50002   3.330  12.146   0.278
82702SOL    HW150003   3.310  12.070   0.333
82702SOL    HW250004   3.268  12.213   0.306
82703SOL     OW50005   7.341  13.019  13.789
82703SOL    HW150006   7.252  13.025  13.756
82703SOL    HW250007   7.335  12.964  13.867
82704SOL     OW50008  10.992  14.525  11.100
82704SOL    HW150009  10.939  14.481  11.165
82704SOL    HW250010  10.948  14.508  11.017
82705SOL     OW50011   0.564  13.658   9.453
82705SOL    HW150012   0.635  13.596   9.437
82705SOL    HW250013   0.549  13.699   9.368
82706SOL     OW50014   2.270   2.448   8.879
82706SOL    HW150015   2.224   2.518   8.833
82706SOL    HW250016   2.308   2.394   8.810
82707SOL     OW50017  12.225   9.646  10.697
82707SOL    HW150018  12.148   9.700  10.677
82707SOL    HW250019  12.251   9.674  10.785
82708SOL     OW50020   5.390   0.419   9.948
82708SOL    HW150021   5.342   0.483  10.001
82708SOL    HW250022   5.393   0.457   9.861
82709SOL     OW50023   4.118   1.291  13.631
82709SOL    HW150024   4.129   1.366  13.690
82709SOL    HW250025   4.141   1.326  13.545
82710SOL     OW50026   9.929   2.478  11.345
82710SOL    HW150027   9.931   2.531  11.265
82710SOL    HW250028  10.017   2.440  11.351
82711SOL     OW50029   7.561   6.839   0.222
82711SOL    HW150030   7.478   6.882   0.202
82711SOL    HW250031   7.577   6.858   0.314
82712SOL     OW50032   7.650   1.400   6.826
82712SOL    HW150033   7.726   1.342   6.833
82712SOL    HW250034   7.577   1.341   6.806
82713SOL     OW50035  13.075  11.734   8.813
82713SOL    HW150036  13.138  11.676   8.771
82713SOL    HW250037  13.040  11.788   8.742
82714SOL     OW50038   6.262   9.291   5.525
82714SOL    HW150039   6.346   9.319   5.489
82714SOL    HW250040   6.211   9.371   5.532
82715SOL     OW50041   1.372  11.755  10.951
82715SOL    HW150042   1.420  11.824  10.996
82715SOL    HW250043   1.399  11.674  10.995
82716SOL     OW50044   5.949   3.787   1.296
82716SOL    HW150045   5.940   3.868   1.247
82716SOL    HW250046   5.859   3.760   1.315
82717SOL     OW50047   2.263   6.856   1.290
82717SOL    HW150048   2.322   6.900   1.229
82717SOL    HW250049   2.267   6.910   1.370
82718SOL     OW50050   1.439  12.657   2.363
82718SOL    HW150051   1.530  12.675   2.339
82718SOL    HW250052   1.407  12.600   2.293
82719SOL     OW50053   1.692   2.111  11.808
82719SOL    HW150054   1.723   2.126  11.897
82719SOL    HW250055   1.745   2.169  11.753
82720SOL     OW50056   7.214   0.760   2.331
82720SOL    HW150057   7.283   0.775   2.395
82720SOL    HW250058   7.164   0.842   2.328
82721SOL     OW50059  12.827  12.265  13.037
82721SOL    HW150060  12.853  12.213  12.961
82721SOL    HW250061  12.762  12.326  13.002
82722SOL     OW50062  13.270   3.672   9.381
82722SOL    HW150063  13.286   3.619   9.303
82722SOL    HW250064  13.295   3.761   9.356
82723SOL     OW50065  11.092   3.302   1.890
82723SOL    HW150066  11.071   3.385   1.934
82723SOL    HW250067  11.134   3.329   1.808
82724SOL     OW50068  10.743   3.661  11.441
82724SOL    HW150069  10.733   3.701  11.527
82724SOL    HW250070  10.666   3.606  11.431
82725SOL     OW50071  12.872   9.744   7.727
82725SOL    HW150072  12.871   9.833   7.691
82725SOL    HW250073  12.886   9.756   7.821
82726SOL     OW50074  12.881   2.501   1.730
82726SOL    HW150075  12.976   2.493   1.719
82726SOL    HW250076  12.870   2.538   1.817
82727SOL     OW50077   4.682   5.757   5.743
82727SOL    HW150078   4.744   5.825   5.717
82727SOL    HW250079   4.635   5.736   5.662
82728SOL     OW50080   8.530   0.219   2.834
82728SOL    HW150081   8.603   0.221   2.896
82728SOL    HW250082   8.555   0.151   2.771
82729SOL     OW50083   2.576  11.393   9.956
82729SOL    HW150084   2.658  11.435   9.981
82729SOL    HW250085   2.508  11.449   9.995
82730SOL     OW50086   4.881   6.258  11.889
82730SOL    HW150087   4.881   6.227  11.798
82730SOL    HW250088   4.902   6.352  11.882
82731SOL     OW50089   9.286   4.443   3.583
82731SOL    HW150090   9.272   4.356   3.620
82731SOL    HW250091   9.368   4.473   3.624
82732SOL     OW50092  10.893   0.532   4.934
82732SOL    HW150093  10.946   0.570   5.004
82732SOL    HW250094  10.941   0.553   4.853
82733SOL     OW50095   0.069   7.585   9.957
82733SOL    HW150096  14.871   7.624   9.993
82733SOL    HW250097   0.047   7.564   9.866
82734SOL     OW50098   3.623   9.736  12.931
82734SOL    HW150099   3.672   9.792  12.871
82734SOL    HW250100   3.635   9.647  12.897
82735SOL     OW50101   1.299   8.552   3.376
82735SOL    HW150102   1.394   8.547   3.360
82735SOL    HW250103   1.289   8.533   3.469
82736SOL     OW50104   0.871  14.863   9.082
82736SOL    HW150105   0.828   0.040   9.020
82736SOL    HW250106   0.800  14.815   9.124
82737SOL     OW50107   1.638   0.976   4.143
82737SOL    HW150108   1.702   0.987   4.213
82737SOL    HW250109   1.677   0.910   4.085
82738SOL     OW50110  12.207   1.226   9.796
82738SOL    HW150111  12.209   1.317   9.766
82738SOL    HW250112  12.145   1.182   9.738
82739SOL     OW50113   3.364  11.986   3.203
82739SOL    HW150114   3.274  12.004   3.177
82739SOL    HW250115   3.376  11.893   3.187
82740SOL     OW50116   2.190   0.930  13.151
82740SOL    HW150117   2.277   0.946  13.114
82740SOL    HW250118   2.149   0.867  13.091
82741SOL     OW50119   5.840  12.847   3.342
82741SOL    HW150120   5.802  12.898   3.413
82741SOL    HW250121   5.905  12.792   3.385
82742SOL     OW50122   4.196  10.233  14.638
82742SOL    HW150123   4.149  10.307  14.676
82742SOL    HW250124   4.252  10.272  14.570
82743SOL     OW50125  11.614   6.061   2.590
82743SOL    HW150126  11.694   6.071   2.642
82743SOL    HW250127  11.634   6.104   2.507
82744SOL     OW50128  10.647   6.787   6.383
82744SOL    HW150129  10.577   6.736   6.341
82744SOL    HW250130  10.694   6.722   6.435
82745SOL     OW50131   7.274  12.485  14.848
82745SOL    HW150132   7.283  12.474  14.754
82745SOL    HW250133   7.182  12.466  14.867
82746SOL     OW50134  14.845   8.539   4.738
82746SOL    HW150135  14.834   8.603   4.808
82746SOL    HW250136  14.760   8.496   4.731
82747SOL     OW50137   1.634  12.343  13.996
82747SOL    HW150138   1.580  12.369  14.070
82747SOL    HW250139   1.610  12.404  13.926
82748SOL     OW50140   7.537  13.632  12.564
82748SOL    HW150141   7.566  13.595  12.648
82748SOL    HW250142   7.537  13.557  12.504
82749SOL     OW50143  10.886   9.245   9.339
82749SOL    HW150144  10.864   9.268   9.249
82749SOL    HW250145  10.836   9.307   9.392
82750SOL     OW50146   6.631   9.920   3.349
82750SOL    HW150147   6.725   9.923   3.368
82750SOL    HW250148   6.617   9.989   3.284
82751SOL     OW50149   5.427   9.947   3.331
82751SOL    HW150150   5.379   9.877   3.373
82751SOL    HW250151   5.499   9.967   3.391
82752SOL     OW50152   8.266   5.587   4.075
82752SOL    HW150153   8.287   5.641   3.999
82752SOL    HW250154   8.227   5.648   4.138
82753SOL     OW50155   4.285   1.892   1.170
82753SOL    HW150156   4.361   1.845   1.136
82753SOL    HW250157   4.227   1.824   1.203
82754SOL     OW50158  10.832   9.721   1.533
82754SOL    HW150159  10.865   9.675   1.610
82754SOL    HW250160  10.880   9.804   1.533
82755SOL     OW50161  12.940   6.559   6.128
82755SOL    HW150162  12.948   6.609   6.046
82755SOL    HW250163  12.909   6.473   6.101
82756SOL     OW50164  13.534   6.721   4.320
82756SOL    HW150165  13.479   6.799   4.315
82756SOL    HW250166  13.547   6.695   4.229
82757SOL     OW50167  14.451  12.629  10.968
82757SOL    HW150168  14.524  12.691  10.964
82757SOL    HW250169  14.410  12.646  11.053
82758SOL     OW50170   1.459   8.021  10.929
82758SOL    HW150171   1.417   7.974  11.001
82758SOL    HW250172   1.549   8.035  10.959
82759SOL     OW50173  13.961  13.661  14.755
82759SOL    HW150174  13.945  13.625  14.668
82759SOL    HW250175  14.030  13.726  14.743
82760SOL     OW50176  10.006   4.885   2.795
82760SOL    HW150177   9.962   4.949   2.851
82760SOL    HW250178   9.953   4.805   2.802
82761SOL     OW50179  13.350   0.870   6.419
82761SOL    HW150180  13.416   0.837   6.480
82761SOL    HW250181  13.397   0.879   6.336
82762SOL     OW50182   4.019   1.864   4.651
82762SOL    HW150183   3.982   1.802   4.589
82762SOL    HW250184   4.071   1.811   4.711
82763SOL     OW50185  14.653   3.414   6.720
82763SOL    HW150186  14.607   3.340   6.682
82763SOL    HW250187  14.587   3.483   6.727
82764SOL     OW50188   2.758   4.687   2.158
82764SOL    HW150189   2.773   4.718   2.069
82764SOL    HW250190   2.794   4.598   2.160
82765SOL     OW50191   4.052   8.370  11.859
82765SOL    HW150192   4.079   8.394  11.771
82765SOL    HW250193   3.964   8.334  11.848
82766SOL     OW50194   2.191   1.767   6.022
82766SOL    HW150195   2.243   1.767   5.941
82766SOL    HW250196   2.111   1.813   5.999
82767SOL     OW50197   3.782  10.475  11.865
82767SOL    HW150198   3.716  10.544  11.876
82767SOL    HW250199   3.861  10.521  11.839
82768SOL     OW50200   2.908  10.609   8.060
82768SOL    HW150201   2.860  10.637   7.982
82768SOL    HW250202   2.966  10.683   8.080
82769SOL     OW50203  12.499   8.341   6.133
82769SOL    HW150204  12.528   8.298   6.213
82769SOL    HW250205  12.410   8.370   6.152
82770SOL     OW50206   7.794   9.788  12.316
82770SOL    HW150207   7.863   9.830  12.366
82770SOL    HW250208   7.712   9.825  12.350
82771SOL     OW50209  14.256  10.333   5.588
82771SOL    HW150210  14.189  10.265   5.601
82771SOL    HW250211  14.339  10.287   5.599
82772SOL     OW50212  11.179   0.658  11.915
82772SOL    HW150213  11.102   0.616  11.953
82772SOL    HW250214  11.254   0.612  11.954
82773SOL     OW50215  10.910   5.633   7.027
82773SOL    HW150216  10.901   5.678   6.944
82773SOL    HW250217  10.875   5.694   7.092
82774SOL     OW50218   3.035   8.724   3.427
82774SOL    HW150219   3.074   8.766   3.350
82774SOL    HW250220   3.055   8.783   3.499
82775SOL     OW50221  12.681   9.664   9.801
82775SOL    HW150222  12.667   9.709   9.884
82775SOL    HW250223  12.761   9.612   9.815
82776SOL     OW50224   3.218   8.360   9.822
82776SOL    HW150225   3.217   8.455   9.818
82776SOL    HW250226   3.137   8.337   9.867
82777SOL     OW50227   1.751   1.181   7.409
82777SOL    HW150228   1.721   1.183   7.500
82777SOL    HW250229   1.830   1.127   7.411
82778SOL     OW50230  14.819   9.152   2.091
82778SOL    HW150231  14.780   9.225   2.043
82778SOL    HW250232  14.786   9.074   2.047
82779SOL     OW50233  10.996   3.425  14.592
82779SOL    HW150234  11.025   3.338  14.620
82779SOL    HW250235  10.918   3.443  14.645
82780SOL     OW50236  10.039   4.131   8.349
82780SOL    HW150237   9.957   4.083   8.363
82780SOL    HW250238  10.086   4.078   8.285
82781SOL     OW50239   0.035   8.182   7.174
82781SOL    HW150240   0.030   8.277   7.182
82781SOL    HW250241   0.108   8.166   7.114
82782SOL     OW50242  11.578   5.422   1.447
82782SOL    HW150243  11.569   5.330   1.472
82782SOL    HW250244  11.641   5.458   1.509
82783SOL     OW50245  12.323   2.970   2.474
82783SOL    HW150246  12.334   3.061   2.500
82783SOL    HW250247  12.229   2.962   2.453
82784SOL     OW50248  12.166  10.022  10.467
82784SOL    HW150249  12.207  10.047  10.384
82784SOL    HW250250  12.194   9.931  10.481
82785SOL     OW50251   3.071   6.606   2.056
82785SOL    HW150252   3.043   6.658   1.980
82785SOL    HW250253   3.146   6.653   2.092
82786SOL     OW50254  12.068   3.389   2.689
82786SOL    HW150255  12.137   3.455   2.695
82786SOL    HW250256  12.029   3.403   2.603
82787SOL     OW50257   8.591   5.827   6.013
82787SOL    HW150258   8.533   5.762   6.053
82787SOL    HW250259   8.671   5.822   6.066
82788SOL     OW50260   5.293   6.155   1.895
82788SOL    HW150261   5.228   6.204   1.845
82788SOL    HW250262   5.362   6.218   1.914
82789SOL     OW50263  12.162   0.640   5.921
82789SOL    HW150264  12.120   0.610   6.002
82789SOL    HW250265  12.135   0.576   5.855
82790SOL     OW50266  12.833   6.063   7.905
82790SOL    HW150267  12.806   6.145   7.864
82790SOL    HW250268  12.897   6.026   7.844
82791SOL     OW50269  13.713  13.558   2.851
82791SOL    HW150270  13.751  13.588   2.768
82791SOL    HW250271  13.781  13.506   2.892
82792SOL     OW50272  13.260   6.226  10.099
82792SOL    HW150273  13.320   6.279  10.046
82792SOL    HW250274  13.310   6.146  10.118
82793SOL     OW50275  13.101  11.903   7.017
82793SOL    HW150276  13.155  11.917   7.094
82793SOL    HW250277  13.099  11.988   6.973
82794SOL     OW50278   4.487   8.282   4.596
82794SOL    HW150279   4.481   8.189   4.573
82794SOL    HW250280   4.524   8.283   4.684
82795SOL     OW50281   7.552   1.131   8.725
82795SOL    HW150282   7.641   1.167   8.714
82795SOL    HW250283   7.556   1.082   8.807
82796SOL     OW50284  12.237   9.367  10.693
82796SOL    HW150285  12.303   9.323  10.747
82796SOL    HW250286  12.254   9.460  10.707
82797SOL     OW50287  12.047  13.225   4.763
82797SOL    HW150288  11.965  13.189   4.730
82797SOL    HW250289  12.109  13.215   4.691
82798SOL     OW50290   6.786  12.420   2.199
82798SOL    HW150291   6.779  12.514   2.216
82798SOL    HW250292   6.802  12.381   2.285
82799SOL     OW50293   1.360   3.702  14.753
82799SOL    HW150294   1.441   3.684  14.706
82799SOL    HW250295   1.347   3.625  14.809
82800SOL     OW50296   2.756   2.114   6.721
82800SOL    HW150297   2.785   2.116   6.811
82800SOL    HW250298   2.810   2.048   6.678
82801SOL     OW50299   6.856   8.939  14.589
82801SOL    HW150300   6.924   9.005  14.597
82801SOL    HW250301   6.783   8.973  14.640
82802SOL     OW50302  13.683  11.132   7.420
82802SOL    HW150303  13.774  11.156   7.440
82802SOL    HW250304  13.690  11.050   7.371
82803SOL     OW50305  13.064   5.751   3.321
82803SOL    HW150306  13.119   5.674   3.328
82803SOL    HW250307  13.024   5.761   3.407
82804SOL     OW50308   7.605   6.397   7.606
82804SOL    HW150309   7.658   6.413   7.684
82804SOL    HW250310   7.563   6.481   7.588
82805SOL     OW50311   5.395   1.680  11.807
82805SOL    HW150312   5.477   1.714  11.770
82805SOL    HW250313   5.346   1.758  11.832
82806SOL     OW50314   6.872   5.694  13.902
82806SOL    HW150315   6.884   5.630  13.832
82806SOL    HW250316   6.955   5.742  13.905
82807SOL     OW50317   2.208   6.800  10.857
82807SOL    HW150318   2.245   6.884  10.883
82807SOL    HW250319   2.278   6.737  10.872
82808SOL     OW50320   0.652   1.812  10.211
82808SOL    HW150321   0.727   1.859  10.173
82808SOL    HW250322   0.683   1.722  10.221
82809SOL     OW50323  14.491   7.491  10.345
82809SOL    HW150324  14.463   7.406  10.310
82809SOL    HW250325  14.584   7.481  10.362
82810SOL     OW50326   6.897   6.854   4.575
82810SOL    HW150327   6.974   6.843   4.632
82810SOL    HW250328   6.892   6.948   4.559
82811SOL     OW50329   2.420   0.846  10.697
82811SOL    HW150330   2.436   0.759  10.661
82811SOL    HW250331   2.479   0.852  10.772
82812SOL     OW50332   4.090   2.637  11.983
82812SOL    HW150333   4.038   2.716  11.996
82812SOL    HW250334   4.103   2.632  11.888
82813SOL     OW50335   2.301   1.842   7.417
82813SOL    HW150336   2.355   1.790   7.477
82813SOL    HW250337   2.216   1.798   7.417
82814SOL     OW50338   6.111   0.703   3.825
82814SOL    HW150339   6.110   0.762   3.900
82814SOL    HW250340   6.192   0.652   3.836
82815SOL     OW50341   4.709   2.435   3.758
82815SOL    HW150342   4.707   2.531   3.752
82815SOL    HW250343   4.713   2.417   3.852
82816SOL     OW50344   4.128   4.489  11.461
82816SOL    HW150345   4.065   4.419  11.480
82816SOL    HW250346   4.074   4.561  11.427
82817SOL     OW50347  14.832  11.122  10.413
82817SOL    HW150348  14.862  11.191  10.473
82817SOL    HW250349  14.849  11.040  10.461
82818SOL     OW50350  14.688  13.650   9.508
82818SOL    HW150351  14.720  13.563   9.530
82818SOL    HW250352  14.723  13.707   9.577
82819SOL     OW50353   4.194   7.103   7.018
82819SOL    HW150354   4.155   7.183   6.984
82819SOL    HW250355   4.186   7.111   7.113
82820SOL     OW50356   2.151   5.859  11.376
82820SOL    HW150357   2.067   5.852  11.421
82820SOL    HW250358   2.168   5.953  11.372
82821SOL     OW50359   4.119  11.763  12.066
82821SOL    HW150360   4.026  11.766  12.089
82821SOL    HW250361   4.147  11.854  12.068
82822SOL     OW50362   8.355   3.563   2.722
82822SOL    HW150363   8.286   3.600   2.777
82822SOL    HW250364   8.381   3.482   2.765
82823SOL     OW50365   6.653   3.629   3.693
82823SOL    HW150366   6.660   3.537   3.669
82823SOL    HW250367   6.734   3.668   3.661
82824SOL     OW50368   6.508   1.077   1.955
82824SOL    HW150369   6.460   1.049   2.033
82824SOL    HW250370   6.528   1.169   1.971
82825SOL     OW50371   3.491   9.394   9.250
82825SOL    HW150372   3.463   9.417   9.161
82825SOL    HW250373   3.411   9.367   9.294
82826SOL     OW50374   8.555   1.365  14.555
82826SOL    HW150375   8.515   1.284  14.588
82826SOL    HW250376   8.645   1.362  14.588
82827SOL     OW50377  11.447   7.665   8.435
82827SOL    HW150378  11.532   7.658   8.392
82827SOL    HW250379  11.456   7.740   8.494
82828SOL     OW50380  10.543   7.239  12.027
82828SOL    HW150381  10.477   7.195  11.973
82828SOL    HW250382  10.496   7.309  12.072
82829SOL     OW50383   3.982   9.587  10.869
82829SOL    HW150384   3.901   9.631  10.896
82829SOL    HW250385   4.042   9.658  10.848
82830SOL     OW50386   4.127  14.137   6.653
82830SOL    HW150387   4.107  14.227   6.626
82830SOL    HW250388   4.147  14.143   6.746
82831SOL     OW50389   7.025  10.373   2.800
82831SOL    HW150390   7.095  10.436   2.814
82831SOL    HW250391   7.038  10.344   2.709
82832SOL     OW50392  10.478   9.402   2.601
82832SOL    HW150393  10.540   9.332   2.580
82832SOL    HW250394  10.474   9.454   2.521
82833SOL     OW50395   6.096  13.723  12.357
82833SOL    HW150396   6.067  13.723  12.265
82833SOL    HW250397   6.032  13.669  12.402
82834SOL     OW50398   7.935   6.536  13.477
82834SOL    HW150399   7.949   6.623  13.439
82834SOL    HW250400   7.950   6.476  13.404
82835SOL     OW50401   5.264  10.002  10.850
82835SOL    HW150402   5.185  10.007  10.904
82835SOL    HW250403   5.334  10.036  10.906
82836SOL     OW50404   9.201   3.317   4.088
82836SOL    HW150405   9.117   3.321   4.133
82836SOL    HW250406   9.179   3.329   3.996
82837SOL     OW50407   9.176  12.369   8.070
82837SOL    HW150408   9.187  12.279   8.102
82837SOL    HW250409   9.170  12.422   8.149
82838SOL     OW50410   1.708   3.026   1.913
82838SOL    HW150411   1.664   2.993   1.991
82838SOL    HW250412   1.759   2.951   1.882
82839SOL     OW50413   4.988   0.265  14.118
82839SOL    HW150414   4.999   0.279  14.024
82839SOL    HW250415   5.057   0.318  14.158
82840SOL     OW50416   6.952   1.540  13.833
82840SOL    HW150417   6.876   1.597  13.826
82840SOL    HW250418   6.924   1.470  13.893
82841SOL     OW50419  12.431  10.809   4.313
82841SOL    HW150420  12.369  10.741   4.338
82841SOL    HW250421  12.378  10.875   4.268
82842SOL     OW50422   5.006   8.734  14.710
82842SOL    HW150423   5.051   8.730  14.795
82842SOL    HW250424   4.949   8.657  14.711
82843SOL     OW50425  11.686  14.519   9.641
82843SOL    HW150426  11.691  14.504   9.735
82843SOL    HW250427  11.764  14.572   9.621
82844SOL     OW50428   6.134   2.807   3.916
82844SOL    HW150429   6.178   2.763   3.843
82844SOL    HW250430   6.094   2.885   3.877
82845SOL     OW50431  11.063   6.865  13.578
82845SOL    HW150432  10.971   6.845  13.565
82845SOL    HW250433  11.094   6.895  13.492
82846SOL     OW50434   2.660   8.472   6.753
82846SOL    HW150435   2.704   8.486   6.837
82846SOL    HW250436   2.601   8.398   6.769
82847SOL     OW50437  11.004   3.016  12.087
82847SOL    HW150438  11.014   3.109  12.071
82847SOL    HW250439  11.091   2.979  12.076
82848SOL     OW50440   8.826  11.331  13.632
82848SOL    HW150441   8.825  11.248  13.585
82848SOL    HW250442   8.878  11.389  13.576
82849SOL     OW50443   5.445   1.059  12.872
82849SOL    HW150444   5.419   1.032  12.960
82849SOL    HW250445   5.397   1.000  12.814
82850SOL     OW50446   4.710   5.039   1.773
82850SOL    HW150447   4.671   5.055   1.687
82850SOL    HW250448   4.762   4.959   1.761
82851SOL     OW50449  10.865  10.474   6.821
82851SOL    HW150450  10.793  10.424   6.860
82851SOL    HW250451  10.889  10.537   6.889
82852SOL     OW50452   9.457   4.953  11.163
82852SOL    HW150453   9.392   5.018  11.188
82852SOL    HW250454   9.419   4.869  11.190
82853SOL     OW50455   1.310   2.717   6.565
82853SOL    HW150456   1.311   2.812   6.565
82853SOL    HW250457   1.234   2.694   6.619
82854SOL     OW50458   4.574  13.776   9.550
82854SOL    HW150459   4.602  13.698   9.501
82854SOL    HW250460   4.609  13.850   9.500
82855SOL     OW50461  11.839  11.339   2.278
82855SOL    HW150462  11.754  11.295   2.285
82855SOL    HW250463  11.903  11.268   2.280
82856SOL     OW50464   4.956  14.536   0.572
82856SOL    HW150465   4.883  14.542   0.633
82856SOL    HW250466   4.939  14.605   0.508
82857SOL     OW50467  10.102   9.328  11.397
82857SOL    HW150468  10.194   9.350  11.379
82857SOL    HW250469  10.093   9.237  11.369
82858SOL     OW50470  13.241   7.537  12.191
82858SOL    HW150471  13.196   7.505  12.269
82858SOL    HW250472  13.315   7.588  12.225
82859SOL     OW50473   7.103   1.576   3.017
82859SOL    HW150474   7.077   1.570   3.109
82859SOL    HW250475   7.048   1.646   2.981
82860SOL     OW50476  13.192   8.905  14.580
82860SOL    HW150477  13.128   8.849  14.624
82860SOL    HW250478  13.187   8.988  14.627
82861SOL     OW50479   5.772   9.385  14.011
82861SOL    HW150480   5.714   9.458  13.989
82861SOL    HW250481   5.715   9.320  14.052
82862SOL     OW50482   5.437  14.001   8.966
82862SOL    HW150483   5.401  13.916   8.992
82862SOL    HW250484   5.508  13.979   8.906
82863SOL     OW50485  11.329  14.437   3.835
82863SOL    HW150486  11.383  14.492   3.779
82863SOL    HW250487  11.391  14.396   3.895
82864SOL     OW50488   0.203   5.921   1.747
82864SOL    HW150489   0.296   5.898   1.748
82864SOL    HW250490   0.157   5.837   1.744
82865SOL     OW50491   4.045  11.793  11.073
82865SOL    HW150492   4.025  11.718  11.128
82865SOL    HW250493   3.960  11.833  11.055
82866SOL     OW50494  14.374   5.346   8.675
82866SOL    HW150495  14.437   5.417   8.684
82866SOL    HW250496  14.427   5.270   8.649
82867SOL     OW50497   4.288   5.364  10.119
82867SOL    HW150498   4.281   5.449  10.078
82867SOL    HW250499   4.213   5.314  10.085
82868SOL     OW50500  12.697   0.234   2.190
82868SOL    HW150501  12.633   0.304   2.204
82868SOL    HW250502  12.659   0.158   2.233
82869SOL     OW50503  10.531   5.655  11.303
82869SOL    HW150504  10.485   5.628  11.383
82869SOL    HW250505  10.532   5.751  11.308
82870SOL     OW50506  11.213   6.216   7.222
82870SOL    HW150507  11.240   6.162   7.297
82870SOL    HW250508  11.188   6.153   7.155
82871SOL     OW50509   2.856  13.135  11.450
82871SOL    HW150510   2.774  13.104  11.413
82871SOL    HW250511   2.833  13.216  11.495
82872SOL     OW50512  10.599   5.415  11.950
82872SOL    HW150513  10.537   5.428  12.022
82872SOL    HW250514  10.568   5.338  11.904
82873SOL     OW50515   8.675  13.101  13.046
82873SOL    HW150516   8.752  13.105  13.103
82873SOL    HW250517   8.667  13.009  13.022
82874SOL     OW50518   7.764   8.115   3.576
82874SOL    HW150519   7.765   8.208   3.555
82874SOL    HW250520   7.835   8.078   3.525
82875SOL     OW50521  13.166   7.916   2.483
82875SOL    HW150522  13.257   7.946   2.492
82875SOL    HW250523  13.168   7.825   2.513
82876SOL     OW50524   9.424   4.453   1.956
82876SOL    HW150525   9.503   4.478   1.908
82876SOL    HW250526   9.435   4.492   2.043
82877SOL     OW50527   0.609   1.010  12.897
82877SOL    HW150528   0.627   1.103  12.889
82877SOL    HW250529   0.691   0.972  12.927
82878SOL     OW50530  11.420   9.371  14.524
82878SOL    HW150531  11.515   9.387  14.522
82878SOL    HW250532  11.407   9.314  14.600
82879SOL     OW50533   7.262  12.682   6.997
82879SOL    HW150534   7.170  12.681   6.970
82879SOL    HW250535   7.276  12.597   7.039
82880SOL     OW50536   3.256  13.439   0.870
82880SOL    HW150537   3.189  13.465   0.933
82880SOL    HW250538   3.339  13.450   0.917
82881SOL     OW50539   8.257   3.039   6.891
82881SOL    HW150540   8.226   3.074   6.807
82881SOL    HW250541   8.299   3.114   6.934
82882SOL     OW50542   8.428   3.496  12.361
82882SOL    HW150543   8.466   3.413  12.390
82882SOL    HW250544   8.428   3.551  12.439
82883SOL     OW50545   5.431  12.435   4.020
82883SOL    HW150546   5.460  12.467   3.935
82883SOL    HW250547   5.443  12.509   4.079
82884SOL     OW50548   0.298   6.080  12.041
82884SOL    HW150549   0.244   6.110  12.114
82884SOL    HW250550   0.378   6.132  12.049
82885SOL     OW50551   0.905   2.256  10.430
82885SOL    HW150552   0.824   2.206  10.432
82885SOL    HW250553   0.912   2.288  10.340
82886SOL     OW50554   7.066   8.188   6.839
82886SOL    HW150555   7.116   8.115   6.801
82886SOL    HW250556   7.107   8.204   6.923
82887SOL     OW50557   3.803   9.492   1.326
82887SOL    HW150558   3.808   9.558   1.257
82887SOL    HW250559   3.747   9.423   1.290
82888SOL     OW50560  11.838  11.783  10.332
82888SOL    HW150561  11.839  11.695  10.296
82888SOL    HW250562  11.750  11.794  10.367
82889SOL     OW50563   3.879  11.397   6.257
82889SOL    HW150564   3.875  11.434   6.345
82889SOL    HW250565   3.856  11.305   6.269
82890SOL     OW50566   5.911   0.606  12.570
82890SOL    HW150567   5.917   0.529  12.626
82890SOL    HW250568   5.971   0.588  12.498
82891SOL     OW50569  14.107  11.981   9.268
82891SOL    HW150570  14.158  12.034   9.329
82891SOL    HW250571  14.036  11.945   9.321
82892SOL     OW50572   7.438  10.162   3.461
82892SOL    HW150573   7.465  10.237   3.408
82892SOL    HW250574   7.504  10.095   3.445
82893SOL     OW50575  10.826   4.153   8.401
82893SOL    HW150576  10.867   4.081   8.450
82893SOL    HW250577  10.800   4.216   8.468
82894SOL     OW50578   1.819   0.919   3.731
82894SOL    HW150579   1.840   0.997   3.680
82894SOL    HW250580   1.805   0.850   3.666
82895SOL     OW50581   0.289   9.204   5.082
82895SOL    HW150582   0.234   9.272   5.120
82895SOL    HW250583   0.299   9.139   5.152
82896SOL     OW50584   5.011   2.397   5.195
82896SOL    HW150585   5.075   2.379   5.127
82896SOL    HW250586   4.939   2.336   5.177
82897SOL     OW50587   1.004   9.999   0.281
82897SOL    HW150588   1.092  10.036   0.272
82897SOL    HW250589   1.018   9.913   0.319
82898SOL     OW50590  13.769  14.289  13.051
82898SOL    HW150591  13.784  14.378  13.084
82898SOL    HW250592  13.701  14.253  13.109
82899SOL     OW50593   8.829   0.704  14.391
82899SOL    HW150594   8.817   0.784  14.338
82899SOL    HW250595   8.916   0.673  14.367
82900SOL     OW50596  10.390   1.389   6.613
82900SOL    HW150597  10.453   1.460   6.602
82900SOL    HW250598  10.366   1.393   6.706
82901SOL     OW50599   4.498   9.157  13.934
82901SOL    HW150600   4.554   9.236  13.935
82901SOL    HW250601   4.424   9.182  13.880
82902SOL     OW50602   7.605   5.353  12.056
82902SOL    HW150603   7.526   5.312  12.020
82902SOL    HW250604   7.579   5.444  12.074
82903SOL     OW50605   3.968   4.250  12.993
82903SOL    HW150606   3.932   4.165  12.969
82903SOL    HW250607   3.975   4.297  12.909
82904SOL     OW50608   5.914   4.677   8.162
82904SOL    HW150609   5.987   4.739   8.157
82904SOL    HW250610   5.835   4.731   8.154
82905SOL     OW50611  10.683   9.727  10.477
82905SOL    HW150612  10.661   9.757  10.389
82905SOL    HW250613  10.688   9.632  10.470
82906SOL     OW50614   9.458   3.125  11.179
82906SOL    HW150615   9.375   3.168  11.196
82906SOL    HW250616   9.481   3.084  11.263
82907SOL     OW50617   7.664   2.818   1.399
82907SOL    HW150618   7.588   2.875   1.413
82907SOL    HW250619   7.668   2.763   1.477
82908SOL     OW50620  12.661   1.187  11.134
82908SOL    HW150621  12.567   1.207  11.129
82908SOL    HW250622  12.691   1.233  11.212
82909SOL     OW50623   2.544   1.344  12.385
82909SOL    HW150624   2.562   1.436  12.370
82909SOL    HW250625   2.481   1.343  12.457
82910SOL     OW50626   9.143  12.445   0.519
82910SOL    HW150627   9.066  12.395   0.547
82910SOL    HW250628   9.186  12.389   0.454
82911SOL     OW50629   0.176   1.744  12.533
82911SOL    HW150630   0.086   1.770  12.555
82911SOL    HW250631   0.184   1.760  12.439
82912SOL     OW50632   1.333  13.837  13.499
82912SOL    HW150633   1.369  13.844  13.588
82912SOL    HW250634   1.238  13.837  13.512
82913SOL     OW50635   2.406   6.316  10.392
82913SOL    HW150636   2.384   6.389  10.450
82913SOL    HW250637   2.331   6.308  10.334
82914SOL     OW50638   4.660  13.879   8.233
82914SOL    HW150639   4.594  13.908   8.171
82914SOL    HW250640   4.619  13.890   8.319
82915SOL     OW50641   2.401   9.458   5.213
82915SOL    HW150642   2.423   9.385   5.271
82915SOL    HW250643   2.372   9.527   5.272
82916SOL     OW50644  10.077   6.097   3.735
82916SOL    HW150645   9.991   6.063   3.713
82916SOL    HW250646  10.138   6.040   3.688
82917SOL     OW50647   3.656  11.333  11.696
82917SOL    HW150648   3.619  11.395  11.758
82917SOL    HW250649   3.636  11.247  11.733
82918SOL     OW50650   4.003  11.879  14.800
82918SOL    HW150651   3.924  11.879  14.746
82918SOL    HW250652   4.075  11.886  14.737
82919SOL     OW50653   7.538   5.660   9.416
82919SOL    HW150654   7.463   5.614   9.454
82919SOL    HW250655   7.585   5.696   9.491
82920SOL     OW50656   4.185   3.256   6.607
82920SOL    HW150657   4.274   3.242   6.639
82920SOL    HW250658   4.147   3.169   6.605
82921SOL     OW50659   9.116   8.721  13.666
82921SOL    HW150660   9.118   8.668  13.745
82921SOL    HW250661   9.096   8.810  13.697
82922SOL     OW50662   4.422   2.185   1.462
82922SOL    HW150663   4.363   2.249   1.502
82922SOL    HW250664   4.486   2.238   1.414
82923SOL     OW50665  10.913   7.168  13.937
82923SOL    HW150666  10.940   7.158  13.845
82923SOL    HW250667  10.863   7.250  13.939
82924SOL     OW50668   4.899   2.745  14.317
82924SOL    HW150669   4.967   2.755  14.250
82924SOL    HW250670   4.845   2.672  14.285
82925SOL     OW50671   4.053  11.935   2.095
82925SOL    HW150672   4.085  12.004   2.038
82925SOL    HW250673   4.027  11.864   2.036
82926SOL     OW50674   8.574   9.287   3.817
82926SOL    HW150675   8.553   9.226   3.887
82926SOL    HW250676   8.524   9.257   3.741
82927SOL     OW50677  14.092   0.829   9.298
82927SOL    HW150678  14.104   0.848   9.205
82927SOL    HW250679  14.143   0.749   9.313
82928SOL     OW50680   2.515   9.004   2.891
82928SOL    HW150681   2.492   9.084   2.843
82928SOL    HW250682   2.543   9.035   2.977
82929SOL     OW50683   6.554  12.730   2.990
82929SOL    HW150684   6.517  12.665   2.930
82929SOL    HW250685   6.488  12.738   3.060
82930SOL     OW50686  11.963  12.906  11.956
82930SOL    HW150687  12.056  12.924  11.941
82930SOL    HW250688  11.918  12.943  11.880
82931SOL     OW50689   2.083  10.251  13.026
82931SOL    HW150690   2.053  10.178  12.973
82931SOL    HW250691   2.008  10.311  13.031
82932SOL     OW50692   7.045   2.433   6.103
82932SOL    HW150693   7.072   2.383   6.181
82932SOL    HW250694   6.979   2.493   6.136
82933SOL     OW50695   5.596   1.211   3.606
82933SOL    HW150696   5.589   1.157   3.526
82933SOL    HW250697   5.685   1.246   3.603
82934SOL     OW50698  12.901  13.065   6.880
82934SOL    HW150699  12.911  13.133   6.947
82934SOL    HW250700  12.896  13.114   6.798
82935SOL     OW50701   5.890   6.935   3.672
82935SOL    HW150702   5.841   6.905   3.595
82935SOL    HW250703   5.955   6.867   3.687
82936SOL     OW50704   5.738   8.357  11.538
82936SOL    HW150705   5.807   8.376  11.474
82936SOL    HW250706   5.686   8.288  11.497
82937SOL     OW50707  13.142   8.360   4.621
82937SOL    HW150708  13.187   8.360   4.706
82937SOL    HW250709  13.123   8.453   4.604
82938SOL     OW50710  11.602   9.098  12.550
82938SOL    HW150711  11.660   9.107  12.474
82938SOL    HW250712  11.515   9.083  12.512
82939SOL     OW50713   4.288   0.116   2.791
82939SOL    HW150714   4.341   0.191   2.814
82939SOL    HW250715   4.350   0.044   2.782
82940SOL     OW50716   4.338  10.969  13.461
82940SOL    HW150717   4.282  10.899  13.427
82940SOL    HW250718   4.358  10.941  13.550
82941SOL     OW50719   2.549  12.862   1.288
82941SOL    HW150720   2.551  12.892   1.198
82941SOL    HW250721   2.615  12.915   1.333
82942SOL     OW50722   5.226   6.812  13.014
82942SOL    HW150723   5.208   6.750  13.085
82942SOL    HW250724   5.247   6.758  12.939
82943SOL     OW50725   2.626   0.634   0.010
82943SOL    HW150726   2.647   0.541   0.013
82943SOL    HW250727   2.646   0.660  14.802
82944SOL     OW50728   6.987  14.102  12.733
82944SOL    HW150729   6.916  14.053  12.690
82944SOL    HW250730   6.968  14.194  12.714
82945SOL     OW50731   8.531  11.960   4.549
82945SOL    HW150732   8.494  12.017   4.481
82945SOL    HW250733   8.620  11.942   4.519
82946SOL     OW50734   1.049   9.727  10.971
82946SOL    HW150735   1.009   9.649  10.934
82946SOL    HW250736   1.040   9.794  10.903
82947SOL     OW50737  10.724   0.730  13.240
82947SOL    HW150738  10.791   0.717  13.307
82947SOL    HW250739  10.671   0.650  13.243
82948SOL     OW50740   7.550  12.870   0.012
82948SOL    HW150741   7.533  12.823   0.093
82948SOL    HW250742   7.627  12.827  14.857
82949SOL     OW50743   4.254   5.680   6.857
82949SOL    HW150744   4.172   5.703   6.900
82949SOL    HW250745   4.252   5.584   6.851
82950SOL     OW50746   3.917  11.223  11.156
82950SOL    HW150747   3.973  11.189  11.086
82950SOL    HW250748   3.946  11.178  11.235
82951SOL     OW50749  10.092   2.135   2.896
82951SOL    HW150750  10.034   2.067   2.930
82951SOL    HW250751  10.128   2.176   2.975
82952SOL     OW50752   8.076   8.022   0.488
82952SOL    HW150753   8.121   8.102   0.515
82952SOL    HW250754   8.104   8.008   0.397
82953SOL     OW50755   3.393   3.378   8.586
82953SOL    HW150756   3.435   3.406   8.667
82953SOL    HW250757   3.405   3.283   8.585
82954SOL     OW50758  14.778   9.279   1.338
82954SOL    HW150759  14.798   9.293   1.245
82954SOL    HW250760  14.745   9.363   1.368
82955SOL     OW50761   4.980   0.174  13.338
82955SOL    HW150762   4.912   0.177  13.405
82955SOL    HW250763   4.940   0.129  13.264
82956SOL     OW50764   1.220   1.755   1.956
82956SOL    HW150765   1.141   1.706   1.977
82956SOL    HW250766   1.230   1.745   1.861
82957SOL     OW50767   4.278  11.695   6.938
82957SOL    HW150768   4.307  11.604   6.946
82957SOL    HW250769   4.196  11.698   6.987
82958SOL     OW50770   7.530   0.772   3.103
82958SOL    HW150771   7.539   0.692   3.155
82958SOL    HW250772   7.475   0.829   3.157
82959SOL     OW50773   3.677  12.242   1.730
82959SOL    HW150774   3.658  12.206   1.644
82959SOL    HW250775   3.694  12.335   1.714
82960SOL     OW50776   3.974  13.678   6.388
82960SOL    HW150777   4.050  13.715   6.344
82960SOL    HW250778   3.948  13.604   6.333
82961SOL     OW50779  11.579   2.191   3.059
82961SOL    HW150780  11.650   2.128   3.071
82961SOL    HW250781  11.593   2.256   3.127
82962SOL     OW50782   7.000  14.331   7.044
82962SOL    HW150783   7.090  14.356   7.064
82962SOL    HW250784   6.989  14.355   6.952
82963SOL     OW50785   0.768  12.892   2.022
82963SOL    HW150786   0.681  12.878   2.059
82963SOL    HW250787   0.823  12.913   2.097
82964SOL     OW50788   8.971   5.406  12.777
82964SOL    HW150789   9.035   5.336  12.761
82964SOL    HW250790   8.979   5.463  12.701
82965SOL     OW50791   4.393  10.097   2.747
82965SOL    HW150792   4.396  10.167   2.813
82965SOL    HW250793   4.307  10.057   2.759
82966SOL     OW50794   6.150  10.386  11.126
82966SOL    HW150795   6.057  10.361  11.127
82966SOL    HW250796   6.161  10.439  11.205
82967SOL     OW50797   8.364  13.519  12.311
82967SOL    HW150798   8.387  13.523  12.404
82967SOL    HW250799   8.374  13.609  12.281
82968SOL     OW50800   5.535   4.813  14.253
82968SOL    HW150801   5.614   4.867  14.245
82968SOL    HW250802   5.480   4.861  14.315
82969SOL     OW50803   8.474  14.664   7.718
82969SOL    HW150804   8.539  14.734   7.713
82969SOL    HW250805   8.489  14.612   7.639
82970SOL     OW50806  14.315   4.623  12.144
82970SOL    HW150807  14.259   4.580  12.209
82970SOL    HW250808  14.387   4.660  12.195
82971SOL     OW50809   1.252   7.204   6.036
82971SOL    HW150810   1.172   7.220   5.987
82971SOL    HW250811   1.223   7.172   6.121
82972SOL     OW50812   5.269   0.372   5.527
82972SOL    HW150813   5.181   0.342   5.549
82972SOL    HW250814   5.277   0.456   5.573
82973SOL     OW50815   3.774   2.152   8.063
82973SOL    HW150816   3.706   2.211   8.094
82973SOL    HW250817   3.849   2.170   8.120
82974SOL     OW50818  10.048   5.733   4.279
82974SOL    HW150819  10.117   5.679   4.317
82974SOL    HW250820   9.973   5.674   4.271
82975SOL     OW50821  14.256   7.503  14.243
82975SOL    HW150822  14.241   7.444  14.317
82975SOL    HW250823  14.187   7.569  14.250
82976SOL     OW50824   8.252  11.648   4.952
82976SOL    HW150825   8.262  11.707   5.027
82976SOL    HW250826   8.213  11.569   4.989
82977SOL     OW50827  14.041  14.084   4.918
82977SOL    HW150828  14.129  14.107   4.888
82977SOL    HW250829  13.996  14.168   4.926
82978SOL     OW50830  10.303   3.161   8.038
82978SOL    HW150831  10.270   3.197   7.956
82978SOL    HW250832  10.396   3.184   8.038
82979SOL     OW50833  12.881  14.281  12.254
82979SOL    HW150834  12.939  14.337  12.202
82979SOL    HW250835  12.937  14.209  12.283
82980SOL     OW50836   1.415   8.205   0.759
82980SOL    HW150837   1.419   8.214   0.664
82980SOL    HW250838   1.486   8.144   0.780
82981SOL     OW50839   6.638   6.385   7.331
82981SOL    HW150840   6.598   6.447   7.393
82981SOL    HW250841   6.712   6.433   7.294
82982SOL     OW50842   3.752  10.555   2.443
82982SOL    HW150843   3.772  10.475   2.395
82982SOL    HW250844   3.835  10.603   2.446
82983SOL     OW50845  11.601   2.432   9.587
82983SOL    HW150846  11.672   2.454   9.527
82983SOL    HW250847  11.530   2.403   9.530
82984SOL     OW50848   4.315  12.719   7.813
82984SOL    HW150849   4.374  12.760   7.750
82984SOL    HW250850   4.347  12.746   7.898
82985SOL     OW50851   5.732   2.823  12.794
82985SOL    HW150852   5.714   2.778  12.711
82985SOL    HW250853   5.827   2.816  12.805
82986SOL     OW50854   2.264  13.902   3.024
82986SOL    HW150855   2.245  13.809   3.030
82986SOL    HW250856   2.177  13.944   3.022
82987SOL     OW50857   6.888  14.759  13.237
82987SOL    HW150858   6.816  14.739  13.176
82987SOL    HW250859   6.907  14.675  13.278
82988SOL     OW50860  14.871   1.262   8.934
82988SOL    HW150861  14.858   1.296   8.845
82988SOL    HW250862  14.786   1.271   8.976
82989SOL     OW50863   4.947   4.457  10.863
82989SOL    HW150864   5.002   4.406  10.803
82989SOL    HW250865   5.004   4.476  10.938
82990SOL     OW50866   5.372   2.829  14.869
82990SOL    HW150867   5.411   2.806  14.785
82990SOL    HW250868   5.418   2.775   0.051
82991SOL     OW50869   6.651   9.860   8.380
82991SOL    HW150870   6.708   9.837   8.307
82991SOL    HW250871   6.578   9.906   8.340
82992SOL     OW50872  10.694   8.796  11.976
82992SOL    HW150873  10.609   8.785  11.933
82992SOL    HW250874  10.713   8.711  12.014
82993SOL     OW50875   5.515   0.108   2.377
82993SOL    HW150876   5.540   0.196   2.351
82993SOL    HW250877   5.580   0.082   2.442
82994SOL     OW50878   7.045   7.657   0.283
82994SOL    HW150879   7.059   7.568   0.251
82994SOL    HW250880   7.117   7.672   0.345
82995SOL     OW50881  12.685  12.968  12.205
82995SOL    HW150882  12.748  13.004  12.143
82995SOL    HW250883  12.698  12.873  12.200
82996SOL     OW50884  12.345   1.767   0.886
82996SOL    HW150885  12.273   1.792   0.943
82996SOL    HW250886  12.382   1.849   0.856
82997SOL     OW50887  11.480  14.214   6.949
82997SOL    HW150888  11.499  14.287   6.891
82997SOL    HW250889  11.447  14.254   7.029
82998SOL     OW50890   6.065  10.161   0.729
82998SOL    HW150891   6.079  10.076   0.687
82998SOL    HW250892   6.137  10.170   0.791
82999SOL     OW50893   8.584   9.991  13.061
82999SOL    HW150894   8.507  10.044  13.042
82999SOL    HW250895   8.577   9.916  13.001
83000SOL     OW50896   8.163   5.867   0.070
83000SOL    HW150897   8.198   5.787   0.031
83000SOL    HW250898   8.069   5.850   0.078
83001SOL     OW50899   4.437   2.293   8.676
83001SOL    HW150900   4.406   2.208   8.707
83001SOL    HW250901   4.367   2.325   8.619
83002SOL     OW50902   3.298   3.718   8.108
83002SOL    HW150903   3.224   3.657   8.116
83002SOL    HW250904   3.262   3.793   8.061
83003SOL     OW50905  10.211   3.586   0.445
83003SOL    HW150906  10.200   3.549   0.532
83003SOL    HW250907  10.123   3.605   0.415
83004SOL     OW50908   4.081   6.189  13.615
83004SOL    HW150909   3.999   6.142  13.598
83004SOL    HW250910   4.115   6.207  13.527
83005SOL     OW50911   3.434  14.465   0.105
83005SOL    HW150912   3.418  14.423   0.021
83005SOL    HW250913   3.404  14.555   0.093
83006SOL     OW50914   3.654  14.302   7.060
83006SOL    HW150915   3.700  14.303   7.144
83006SOL    HW250916   3.697  14.234   7.009
83007SOL     OW50917  10.899   1.257   7.740
83007SOL    HW150918  10.922   1.336   7.691
83007SOL    HW250919  10.806   1.246   7.725
83008SOL     OW50920   4.481   1.350  14.089
83008SOL    HW150921   4.393   1.383  14.108
83008SOL    HW250922   4.467   1.259  14.061
83009SOL     OW50923   0.714   6.063   4.666
83009SOL    HW150924   0.762   6.094   4.589
83009SOL    HW250925   0.735   5.970   4.672
83010SOL     OW50926   7.048   5.110   8.679
83010SOL    HW150927   7.112   5.084   8.746
83010SOL    HW250928   7.061   5.204   8.669
83011SOL     OW50929   4.473   5.877   5.891
83011SOL    HW150930   4.483   5.840   5.979
83011SOL    HW250931   4.549   5.844   5.842
83012SOL     OW50932  11.621   7.186   6.619
83012SOL    HW150933  11.550   7.146   6.569
83012SOL    HW250934  11.642   7.265   6.570
83013SOL     OW50935   6.380   3.685  11.774
83013SOL    HW150936   6.439   3.647  11.839
83013SOL    HW250937   6.341   3.760  11.819
83014SOL     OW50938   6.390   4.059  13.140
83014SOL    HW150939   6.483   4.040  13.149
83014SOL    HW250940   6.385   4.154  13.143
83015SOL     OW50941  10.173   0.932   1.236
83015SOL    HW150942  10.267   0.922   1.218
83015SOL    HW250943  10.131   0.868   1.178
83016SOL     OW50944   8.006   3.402  10.852
83016SOL    HW150945   7.971   3.417  10.764
83016SOL    HW250946   8.040   3.313  10.850
83017SOL     OW50947  13.940  12.081  12.834
83017SOL    HW150948  14.032  12.066  12.813
83017SOL    HW250949  13.893  12.058  12.754
83018SOL     OW50950   4.818   2.519  10.067
83018SOL    HW150951   4.733   2.514  10.024
83018SOL    HW250952   4.853   2.430  10.061
83019SOL     OW50953  12.788  13.755   2.532
83019SOL    HW150954  12.830  13.669   2.532
83019SOL    HW250955  12.761  13.769   2.622
83020SOL     OW50956   6.334  13.609  10.365
83020SOL    HW150957   6.427  13.592  10.378
83020SOL    HW250958   6.290  13.547  10.421
83021SOL     OW50959   1.673   8.237  12.933
83021SOL    HW150960   1.648   8.264  13.021
83021SOL    HW250961   1.600   8.183  12.902
83022SOL     OW50962   3.955  11.499   0.181
83022SOL    HW150963   3.908  11.581   0.197
83022SOL    HW250964   3.971  11.498   0.087
83023SOL     OW50965  10.674   3.644  13.345
83023SOL    HW150966  10.586   3.606  13.340
83023SOL    HW250967  10.731   3.570  13.367
83024SOL     OW50968   7.216  13.109  14.133
83024SOL    HW150969   7.220  13.044  14.062
83024SOL    HW250970   7.247  13.062  14.210
83025SOL     OW50971  11.051  14.746   5.951
83025SOL    HW150972  11.064  14.653   5.934
83025SOL    HW250973  11.054  14.754   6.046
83026SOL     OW50974   4.518   7.772   9.566
83026SOL    HW150975   4.601   7.810   9.593
83026SOL    HW250976   4.541   7.691   9.520
83027SOL     OW50977  11.430  12.462  14.364
83027SOL    HW150978  11.503  12.407  14.394
83027SOL    HW250979  11.354  12.429  14.411
83028SOL     OW50980   2.831   8.233   6.388
83028SOL    HW150981   2.920   8.266   6.370
83028SOL    HW250982   2.783   8.310   6.418
83029SOL     OW50983  13.270   9.523   8.728
83029SOL    HW150984  13.220   9.584   8.781
83029SOL    HW250985  13.266   9.440   8.776
83030SOL     OW50986   7.453   7.353   3.170
83030SOL    HW150987   7.436   7.400   3.088
83030SOL    HW250988   7.398   7.274   3.164
83031SOL     OW50989   0.530   0.143  14.617
83031SOL    HW150990   0.528   0.104  14.704
83031SOL    HW250991   0.623   0.159  14.601
83032SOL     OW50992  14.246   4.081  10.511
83032SOL    HW150993  14.188   4.060  10.585
83032SOL    HW250994  14.238   4.176  10.501
83033SOL     OW50995   8.551  10.374  14.611
83033SOL    HW150996   8.622  10.316  14.636
83033SOL    HW250997   8.567  10.393  14.518
83034SOL     OW50998  13.770  14.639   1.809
83034SOL    HW150999  13.683  14.640   1.850
83034SOL    HW251000  13.763  14.699   1.735
83035SOL     OW51001   1.546   1.210  12.233
83035SOL    HW151002   1.490   1.165  12.170
83035SOL    HW251003   1.561   1.146  12.302
83036SOL     OW51004   5.770  12.143   6.426
83036SOL    HW151005   5.859  12.129   6.458
83036SOL    HW251006   5.759  12.238   6.428
83037SOL     OW51007   3.039   2.287  10.963
83037SOL    HW151008   3.122   2.243  10.979
83037SOL    HW251009   3.025   2.278  10.869
83038SOL     OW51010   0.399   3.700  14.382
83038SOL    HW151011   0.305   3.715  14.379
83038SOL    HW251012   0.425   3.691  14.290
83039SOL     OW51013  13.631   7.772  10.525
83039SOL    HW151014  13.726   7.757  10.519
83039SOL    HW251015  13.620   7.863  10.499
83040SOL     OW51016   8.710   2.488  10.835
83040SOL    HW151017   8.624   2.530  10.837
83040SOL    HW251018   8.694   2.400  10.870
83041SOL     OW51019  14.045   3.192   4.196
83041SOL    HW151020  13.998   3.115   4.163
83041SOL    HW251021  13.984   3.265   4.185
83042SOL     OW51022   0.065  14.294  11.802
83042SOL    HW151023   0.061  14.390  11.800
83042SOL    HW251024  14.858  14.267  11.821
83043SOL     OW51025  12.881   6.876   7.251
83043SOL    HW151026  12.921   6.825   7.181
83043SOL    HW251027  12.956   6.909   7.302
83044SOL     OW51028   0.724   1.306   8.946
83044SOL    HW151029   0.704   1.235   8.885
83044SOL    HW251030   0.677   1.282   9.026
83045SOL     OW51031  13.717   5.980   7.627
83045SOL    HW151032  13.626   5.963   7.602
83045SOL    HW251033  13.767   5.964   7.547
83046SOL     OW51034   9.192  12.293  12.256
83046SOL    HW151035   9.175  12.200  12.246
83046SOL    HW251036   9.287  12.299  12.267
83047SOL     OW51037   5.987  12.183   2.537
83047SOL    HW151038   5.949  12.179   2.625
83047SOL    HW251039   6.067  12.235   2.547
83048SOL     OW51040   4.993   6.639  11.427
83048SOL    HW151041   5.009   6.730  11.453
83048SOL    HW251042   5.079   6.597  11.433
83049SOL     OW51043   0.071   4.218  11.459
83049SOL    HW151044   0.134   4.265  11.514
83049SOL    HW251045   0.000   4.195  11.519
83050SOL     OW51046  13.819   1.069   3.681
83050SOL    HW151047  13.898   1.085   3.733
83050SOL    HW251048  13.761   1.142   3.703
83051SOL     OW51049   4.003   0.446   0.168
83051SOL    HW151050   4.087   0.467   0.126
83051SOL    HW251051   4.006   0.492   0.251
83052SOL     OW51052   9.943  14.769   2.387
83052SOL    HW151053   9.968  14.847   2.436
83052SOL    HW251054   9.928  14.702   2.454
83053SOL     OW51055   0.903   3.313   9.955
83053SOL    HW151056   0.936   3.396   9.921
83053SOL    HW251057   0.982   3.261   9.973
83054SOL     OW51058   0.275  14.327   7.025
83054SOL    HW151059   0.285  14.410   6.979
83054SOL    HW251060   0.180  14.316   7.035
83055SOL     OW51061  13.200   9.453  12.039
83055SOL    HW151062  13.265   9.450  12.110
83055SOL    HW251063  13.129   9.507  12.073
83056SOL     OW51064   8.579   8.432   1.914
83056SOL    HW151065   8.639   8.435   1.840
83056SOL    HW251066   8.598   8.511   1.965
83057SOL     OW51067  12.197   4.379   6.598
83057SOL    HW151068  12.173   4.344   6.684
83057SOL    HW251069  12.116   4.375   6.548
83058SOL     OW51070   0.940   2.230  10.976
83058SOL    HW151071   0.871   2.164  10.984
83058SOL    HW251072   0.941   2.251  10.883
83059SOL     OW51073   5.578  13.638   4.449
83059SOL    HW151074   5.584  13.545   4.468
83059SOL    HW251075   5.484  13.654   4.435
83060SOL     OW51076   9.032   6.412  10.346
83060SOL    HW151077   8.993   6.479  10.402
83060SOL    HW251078   9.024   6.330  10.396
83061SOL     OW51079   1.260   1.838  12.853
83061SOL    HW151080   1.301   1.759  12.818
83061SOL    HW251081   1.299   1.910  12.803
83062SOL     OW51082   1.964  14.487   0.735
83062SOL    HW151083   1.899  14.485   0.805
83062SOL    HW251084   2.042  14.447   0.773
83063SOL     OW51085   0.258  11.521  13.388
83063SOL    HW151086   0.275  11.557  13.475
83063SOL    HW251087   0.289  11.588  13.327
83064SOL     OW51088   0.598   2.919   3.033
83064SOL    HW151089   0.646   2.990   3.075
83064SOL    HW251090   0.590   2.852   3.101
83065SOL     OW51091   7.996   4.059  10.915
83065SOL    HW151092   8.088   4.040  10.929
83065SOL    HW251093   7.959   4.066  11.003
83066SOL     OW51094   6.526   9.531   4.396
83066SOL    HW151095   6.621   9.544   4.401
83066SOL    HW251096   6.513   9.440   4.425
83067SOL     OW51097   6.926   0.331   7.369
83067SOL    HW151098   6.917   0.376   7.285
83067SOL    HW251099   6.866   0.378   7.427
83068SOL     OW51100  14.199  11.282  13.619
83068SOL    HW151101  14.123  11.223  13.611
83068SOL    HW251102  14.221  11.304  13.529
83069SOL     OW51103   9.981   0.339   9.782
83069SOL    HW151104   9.961   0.395   9.857
83069SOL    HW251105   9.991   0.400   9.709
83070SOL     OW51106  14.286  14.503   8.817
83070SOL    HW151107  14.341  14.543   8.750
83070SOL    HW251108  14.329  14.524   8.900
83071SOL     OW51109  12.133   4.136   5.211
83071SOL    HW151110  12.179   4.144   5.294
83071SOL    HW251111  12.040   4.148   5.235
83072SOL     OW51112   4.623  12.788  11.038
83072SOL    HW151113   4.678  12.766  10.963
83072SOL    HW251114   4.607  12.882  11.029
83073SOL     OW51115  11.097   3.072  11.610
83073SOL    HW151116  11.024   3.109  11.559
83073SOL    HW251117  11.163   3.049  11.544
83074SOL     OW51118  14.176   7.547  13.594
83074SOL    HW151119  14.167   7.527  13.501
83074SOL    HW251120  14.086   7.550  13.627
83075SOL     OW51121   5.918   5.006  11.887
83075SOL    HW151122   5.953   4.928  11.843
83075SOL    HW251123   5.933   4.989  11.980
83076SOL     OW51124   9.096   7.662   0.142
83076SOL    HW151125   9.029   7.597   0.121
83076SOL    HW251126   9.156   7.616   0.202
83077SOL     OW51127  12.604  12.714   5.750
83077SOL    HW151128  12.635  12.654   5.683
83077SOL    HW251129  12.556  12.781   5.701
83078SOL     OW51130   3.752   7.773   4.510
83078SOL    HW151131   3.713   7.812   4.589
83078SOL    HW251132   3.839   7.811   4.505
83079SOL     OW51133   3.118  10.615   8.503
83079SOL    HW151134   3.095  10.706   8.522
83079SOL    HW251135   3.068  10.593   8.424
83080SOL     OW51136  13.824   5.530   2.173
83080SOL    HW151137  13.795   5.529   2.082
83080SOL    HW251138  13.756   5.578   2.220
83081SOL     OW51139   1.838   9.223  14.185
83081SOL    HW151140   1.916   9.273  14.160
83081SOL    HW251141   1.847   9.213  14.280
83082SOL     OW51142   1.423   8.467   9.717
83082SOL    HW151143   1.400   8.419   9.638
83082SOL    HW251144   1.519   8.468   9.717
83083SOL     OW51145  11.925  14.194  10.680
83083SOL    HW151146  12.008  14.241  10.684
83083SOL    HW251147  11.858  14.262  10.688
83084SOL     OW51148  10.822  13.607  11.924
83084SOL    HW151149  10.816  13.579  12.016
83084SOL    HW251150  10.913  13.635  11.914
83085SOL     OW51151   5.109   7.646   9.082
83085SOL    HW151152   5.115   7.667   8.989
83085SOL    HW251153   5.040   7.579   9.086
83086SOL     OW51154   7.448  10.854  12.160
83086SOL    HW151155   7.538  10.884  12.172
83086SOL    HW251156   7.455  10.780  12.099
83087SOL     OW51157   9.750  11.623   8.605
83087SOL    HW151158   9.831  11.582   8.577
83087SOL    HW251159   9.778  11.702   8.652
83088SOL     OW51160   7.085   1.450   7.502
83088SOL    HW151161   7.023   1.377   7.508
83088SOL    HW251162   7.108   1.469   7.593
83089SOL     OW51163  12.035   4.707   1.651
83089SOL    HW151164  11.967   4.667   1.706
83089SOL    HW251165  12.078   4.770   1.708
83090SOL     OW51166  12.617   7.440  12.204
83090SOL    HW151167  12.686   7.411  12.145
83090SOL    HW251168  12.544   7.464  12.146
83091SOL     OW51169   6.580  14.126   1.589
83091SOL    HW151170   6.558  14.042   1.548
83091SOL    HW251171   6.606  14.182   1.517
83092SOL     OW51172  11.211   5.607   3.104
83092SOL    HW151173  11.130   5.658   3.113
83092SOL    HW251174  11.232   5.579   3.193
83093SOL     OW51175   5.965   1.277   5.825
83093SOL    HW151176   6.022   1.204   5.848
83093SOL    HW251177   6.018   1.332   5.767
83094SOL     OW51178  11.618   3.175   8.174
83094SOL    HW151179  11.540   3.222   8.204
83094SOL    HW251180  11.656   3.138   8.254
83095SOL     OW51181   2.056  12.265   9.386
83095SOL    HW151182   2.070  12.240   9.478
83095SOL    HW251183   1.961  12.267   9.377
83096SOL     OW51184   7.418   5.311   8.596
83096SOL    HW151185   7.408   5.404   8.616
83096SOL    HW251186   7.496   5.284   8.643
83097SOL     OW51187  14.067  12.846   8.870
83097SOL    HW151188  14.044  12.754   8.873
83097SOL    HW251189  13.984  12.893   8.880
83098SOL     OW51190  11.461   0.443   1.045
83098SOL    HW151191  11.404   0.388   0.991
83098SOL    HW251192  11.533   0.386   1.071
83099SOL     OW51193   6.227  11.770  10.293
83099SOL    HW151194   6.144  11.771  10.341
83099SOL    HW251195   6.222  11.693  10.237
83100SOL     OW51196   4.191   3.376   0.153
83100SOL    HW151197   4.124   3.321   0.113
83100SOL    HW251198   4.244   3.314   0.205
83101SOL     OW51199   4.458   9.488   2.537
83101SOL    HW151200   4.433   9.396   2.530
83101SOL    HW251201   4.407   9.522   2.610
83102SOL     OW51202   1.270   6.199   5.094
83102SOL    HW151203   1.349   6.159   5.130
83102SOL    HW251204   1.199   6.164   5.149
83103SOL     OW51205   0.421   1.503   3.763
83103SOL    HW151206   0.420   1.418   3.807
83103SOL    HW251207   0.353   1.553   3.808
83104SOL     OW51208   7.543  12.721   9.470
83104SOL    HW151209   7.592  12.791   9.425
83104SOL    HW251210   7.519  12.660   9.400
83105SOL     OW51211   2.920  14.290   2.235
83105SOL    HW151212   2.849  14.313   2.296
83105SOL    HW251213   2.911  14.352   2.163
83106SOL     OW51214  10.389  12.661   4.150
83106SOL    HW151215  10.327  12.603   4.195
83106SOL    HW251216  10.378  12.745   4.193
83107SOL     OW51217  10.047  11.344   8.107
83107SOL    HW151218  10.038  11.390   8.024
83107SOL    HW251219   9.958  11.321   8.132
83108SOL     OW51220   8.367   1.292  12.577
83108SOL    HW151221   8.283   1.253  12.553
83108SOL    HW251222   8.361   1.309  12.671
83109SOL     OW51223   3.589  13.264   0.417
83109SOL    HW151224   3.617  13.283   0.507
83109SOL    HW251225   3.640  13.187   0.392
83110SOL     OW51226  13.917  14.512  14.577
83110SOL    HW151227  13.950  14.465  14.500
83110SOL    HW251228  13.995  14.526  14.631
83111SOL     OW51229   0.886   5.524   9.668
83111SOL    HW151230   0.827   5.591   9.703
83111SOL    HW251231   0.967   5.534   9.719
83112SOL     OW51232   7.254   4.092   6.395
83112SOL    HW151233   7.241   4.167   6.453
83112SOL    HW251234   7.173   4.085   6.345
83113SOL     OW51235   9.046   1.616   4.909
83113SOL    HW151236   9.065   1.585   4.997
83113SOL    HW251237   9.017   1.538   4.862
83114SOL     OW51238   1.297   3.115   3.183
83114SOL    HW151239   1.254   3.150   3.105
83114SOL    HW251240   1.265   3.170   3.255
83115SOL     OW51241   1.877   3.365   2.160
83115SOL    HW151242   1.867   3.323   2.245
83115SOL    HW251243   1.860   3.458   2.176
83116SOL     OW51244   2.263   3.559  10.718
83116SOL    HW151245   2.318   3.498  10.767
83116SOL    HW251246   2.174   3.538  10.745
83117SOL     OW51247   3.196  13.870  10.720
83117SOL    HW151248   3.265  13.851  10.784
83117SOL    HW251249   3.208  13.805  10.651
83118SOL     OW51250   1.478   4.240   8.148
83118SOL    HW151251   1.565   4.208   8.172
83118SOL    HW251252   1.459   4.308   8.212
83119SOL     OW51253  11.069   3.591   3.954
83119SOL    HW151254  11.019   3.643   4.016
83119SOL    HW251255  11.068   3.502   3.991
83120SOL     OW51256   2.828   7.252   9.166
83120SOL    HW151257   2.852   7.160   9.156
83120SOL    HW251258   2.740   7.258   9.128
83121SOL     OW51259  12.812   0.461  12.928
83121SOL    HW151260  12.723   0.464  12.893
83121SOL    HW251261  12.850   0.546  12.907
83122SOL     OW51262   2.897   2.096  10.444
83122SOL    HW151263   2.863   2.089  10.533
83122SOL    HW251264   2.829   2.056  10.389
83123SOL     OW51265  13.494   2.856  11.102
83123SOL    HW151266  13.409   2.817  11.085
83123SOL    HW251267  13.503   2.925  11.036
83124SOL     OW51268   6.592   3.979   9.535
83124SOL    HW151269   6.619   4.071   9.537
83124SOL    HW251270   6.573   3.958   9.627
83125SOL     OW51271   0.481  14.207  10.234
83125SOL    HW151272   0.560  14.164  10.200
83125SOL    HW251273   0.414  14.188  10.168
83126SOL     OW51274  13.951   4.772  12.349
83126SOL    HW151275  13.889   4.826  12.300
83126SOL    HW251276  13.970   4.699  12.290
83127SOL     OW51277   0.545   0.157   7.189
83127SOL    HW151278   0.505   0.211   7.257
83127SOL    HW251279   0.591   0.088   7.238
83128SOL     OW51280   8.059   2.084   0.288
83128SOL    HW151281   8.041   2.075   0.382
83128SOL    HW251282   8.098   2.001   0.263
83129SOL     OW51283  14.007   5.773   8.397
83129SOL    HW151284  14.000   5.805   8.308
83129SOL    HW251285  13.952   5.832   8.449
83130SOL     OW51286   4.136  11.256   6.327
83130SOL    HW151287   4.105  11.233   6.239
83130SOL    HW251288   4.071  11.217   6.386
83131SOL     OW51289   5.209   8.831   4.566
83131SOL    HW151290   5.219   8.798   4.655
83131SOL    HW251291   5.266   8.908   4.563
83132SOL     OW51292   2.413   4.964   4.546
83132SOL    HW151293   2.416   4.879   4.591
83132SOL    HW251294   2.426   5.028   4.616
83133SOL     OW51295   4.656  10.656   3.733
83133SOL    HW151296   4.734  10.648   3.789
83133SOL    HW251297   4.681  10.722   3.667
83134SOL     OW51298   3.659  12.971   1.910
83134SOL    HW151299   3.734  12.991   1.966
83134SOL    HW251300   3.583  12.977   1.969
83135SOL     OW51301   0.801  12.528  14.129
83135SOL    HW151302   0.771  12.504  14.042
83135SOL    HW251303   0.791  12.624  14.132
83136SOL     OW51304   8.313   5.628  13.835
83136SOL    HW151305   8.252   5.599  13.903
83136SOL    HW251306   8.362   5.699  13.876
83137SOL     OW51307   8.998   2.149  14.817
83137SOL    HW151308   8.906   2.122  14.821
83137SOL    HW251309   9.009   2.207   0.010
83138SOL     OW51310   4.354   1.333   3.856
83138SOL    HW151311   4.427   1.319   3.796
83138SOL    HW251312   4.286   1.273   3.827
83139SOL     OW51313  10.747  13.968   2.633
83139SOL    HW151314  10.765  13.919   2.553
83139SOL    HW251315  10.653  13.958   2.647
83140SOL     OW51316   3.142   1.473   7.406
83140SOL    HW151317   3.195   1.552   7.422
83140SOL    HW251318   3.053   1.506   7.392
83141SOL     OW51319   2.897  12.660  11.871
83141SOL    HW151320   2.876  12.676  11.779
83141SOL    HW251321   2.829  12.599  11.901
83142SOL     OW51322   2.933   9.776  13.885
83142SOL    HW151323   2.963   9.781  13.794
83142SOL    HW251324   3.014   9.769  13.936
83143SOL     OW51325   9.666   6.488   0.096
83143SOL    HW151326   9.733   6.521   0.037
83143SOL    HW251327   9.597   6.456   0.039
83144SOL     OW51328   6.733  10.887   6.359
83144SOL    HW151329   6.828  10.892   6.348
83144SOL    HW251330   6.702  10.841   6.281
83145SOL     OW51331   4.702  12.537   1.910
83145SOL    HW151332   4.682  12.604   1.845
83145SOL    HW251333   4.743  12.585   1.982
83146SOL     OW51334  11.360   1.646  14.837
83146SOL    HW151335  11.380   1.559  14.873
83146SOL    HW251336  11.402   1.707   0.016
83147SOL     OW51337   8.499   2.298   6.548
83147SOL    HW151338   8.419   2.293   6.495
83147SOL    HW251339   8.480   2.244   6.625
83148SOL     OW51340   5.122   3.196   5.177
83148SOL    HW151341   5.215   3.191   5.199
83148SOL    HW251342   5.100   3.111   5.140
83149SOL     OW51343   6.418  11.555  14.528
83149SOL    HW151344   6.445  11.615  14.597
83149SOL    HW251345   6.324  11.570  14.518
83150SOL     OW51346   4.400   5.195   2.165
83150SOL    HW151347   4.455   5.243   2.228
83150SOL    HW251348   4.423   5.231   2.080
83151SOL     OW51349  13.882  12.709   3.198
83151SOL    HW151350  13.868  12.631   3.253
83151SOL    HW251351  13.957  12.685   3.142
83152SOL     OW51352   6.278   4.968   1.434
83152SOL    HW151353   6.262   4.884   1.476
83152SOL    HW251354   6.193   4.995   1.400
83153SOL     OW51355  13.687   5.861  11.061
83153SOL    HW151356  13.780   5.849  11.042
83153SOL    HW251357  13.642   5.828  10.984
83154SOL     OW51358  10.707  14.400   4.544
83154SOL    HW151359  10.692  14.481   4.496
83154SOL    HW251360  10.791  14.414   4.589
83155SOL     OW51361   7.838   0.206   6.692
83155SOL    HW151362   7.824   0.124   6.645
83155SOL    HW251363   7.751   0.243   6.701
83156SOL     OW51364   2.093  11.147   0.341
83156SOL    HW151365   2.010  11.180   0.307
83156SOL    HW251366   2.085  11.051   0.335
83157SOL     OW51367   2.441   0.627   7.616
83157SOL    HW151368   2.422   0.566   7.544
83157SOL    HW251369   2.521   0.672   7.588
83158SOL     OW51370   3.395  10.891  14.365
83158SOL    HW151371   3.437  10.889  14.279
83158SOL    HW251372   3.435  10.966  14.409
83159SOL     OW51373   4.093   4.620   0.558
83159SOL    HW151374   4.118   4.696   0.610
83159SOL    HW251375   4.056   4.559   0.621
83160SOL     OW51376   8.764  13.230   7.671
83160SOL    HW151377   8.702  13.279   7.725
83160SOL    HW251378   8.845  13.230   7.722
83161SOL     OW51379   8.455   8.222   7.243
83161SOL    HW151380   8.440   8.173   7.324
83161SOL    HW251381   8.399   8.299   7.251
83162SOL     OW51382   4.549   4.642   4.396
83162SOL    HW151383   4.486   4.585   4.353
83162SOL    HW251384   4.623   4.647   4.335
83163SOL     OW51385  13.881  12.920   4.327
83163SOL    HW151386  13.969  12.881   4.328
83163SOL    HW251387  13.830  12.863   4.270
83164SOL     OW51388   4.691   1.973   4.986
83164SOL    HW151389   4.778   1.989   5.024
83164SOL    HW251390   4.693   2.022   4.903
83165SOL     OW51391   6.083   7.003  11.758
83165SOL    HW151392   6.075   6.915  11.797
83165SOL    HW251393   5.998   7.043  11.773
83166SOL     OW51394   1.755   6.800   8.508
83166SOL    HW151395   1.748   6.855   8.586
83166SOL    HW251396   1.849   6.785   8.498
83167SOL     OW51397   7.546   2.701   1.902
83167SOL    HW151398   7.452   2.721   1.904
83167SOL    HW251399   7.587   2.775   1.947
83168SOL     OW51400   6.819   4.829  12.495
83168SOL    HW151401   6.877   4.756  12.516
83168SOL    HW251402   6.829   4.889  12.569
83169SOL     OW51403  10.181  13.359   9.208
83169SOL    HW151404  10.228  13.276   9.215
83169SOL    HW251405  10.249  13.426   9.215
83170SOL     OW51406   5.794  13.002   0.421
83170SOL    HW151407   5.714  13.050   0.396
83170SOL    HW251408   5.762  12.927   0.470
83171SOL     OW51409   2.351   7.034   8.300
83171SOL    HW151410   2.364   7.096   8.229
83171SOL    HW251411   2.403   7.069   8.373
83172SOL     OW51412  10.309   5.345   8.224
83172SOL    HW151413  10.350   5.389   8.150
83172SOL    HW251414  10.274   5.263   8.187
83173SOL     OW51415   3.657   7.917   4.248
83173SOL    HW151416   3.640   7.846   4.310
83173SOL    HW251417   3.669   7.873   4.164
83174SOL     OW51418   3.777   4.618   5.343
83174SOL    HW151419   3.780   4.652   5.253
83174SOL    HW251420   3.860   4.572   5.353
83175SOL     OW51421   0.386  10.261   1.045
83175SOL    HW151422   0.457  10.291   0.989
83175SOL    HW251423   0.310  10.258   0.988
83176SOL     OW51424  10.023   3.927   6.308
83176SOL    HW151425  10.069   3.881   6.238
83176SOL    HW251426  10.023   4.019   6.280
83177SOL     OW51427   9.762   9.142   8.304
83177SOL    HW151428   9.753   9.192   8.223
83177SOL    HW251429   9.685   9.085   8.305
83178SOL     OW51430  14.833   5.149   1.630
83178SOL    HW151431  14.797   5.090   1.697
83178SOL    HW251432   0.034   5.108   1.604
83179SOL     OW51433   4.129   5.380   3.921
83179SOL    HW151434   4.193   5.387   3.850
83179SOL    HW251435   4.048   5.417   3.885
83180SOL     OW51436  11.294   8.607  11.176
83180SOL    HW151437  11.331   8.527  11.138
83180SOL    HW251438  11.284   8.667  11.103
83181SOL     OW51439   1.290  11.970   7.496
83181SOL    HW151440   1.197  11.951   7.511
83181SOL    HW251441   1.309  12.043   7.554
83182SOL     OW51442   9.788   2.164   0.962
83182SOL    HW151443   9.846   2.206   0.899
83182SOL    HW251444   9.841   2.151   1.040
83183SOL     OW51445   1.434  14.118  11.568
83183SOL    HW151446   1.500  14.105  11.500
83183SOL    HW251447   1.355  14.144  11.520
83184SOL     OW51448  13.694  14.009   0.326
83184SOL    HW151449  13.630  14.079   0.319
83184SOL    HW251450  13.686  13.978   0.417
83185SOL     OW51451   3.357   4.854  13.387
83185SOL    HW151452   3.325   4.774  13.428
83185SOL    HW251453   3.443   4.868  13.426
83186SOL     OW51454  11.661   9.145  13.795
83186SOL    HW151455  11.593   9.192  13.747
83186SOL    HW251456  11.716   9.106  13.728
83187SOL     OW51457   8.104   3.746   3.715
83187SOL    HW151458   8.062   3.664   3.691
83187SOL    HW251459   8.042   3.814   3.689
83188SOL     OW51460   1.225   2.190   3.588
83188SOL    HW151461   1.281   2.174   3.664
83188SOL    HW251462   1.172   2.265   3.612
83189SOL     OW51463  12.152   7.427   7.201
83189SOL    HW151464  12.126   7.467   7.285
83189SOL    HW251465  12.239   7.464   7.184
83190SOL     OW51466   6.995   1.916  11.109
83190SOL    HW151467   6.992   1.881  11.020
83190SOL    HW251468   6.940   1.858  11.161
83191SOL     OW51469   7.865   5.024   3.677
83191SOL    HW151470   7.925   5.092   3.647
83191SOL    HW251471   7.781   5.068   3.686
83192SOL     OW51472  12.126   0.963   6.632
83192SOL    HW151473  12.166   0.929   6.552
83192SOL    HW251474  12.087   1.046   6.606
83193SOL     OW51475  14.179   0.450   1.735
83193SOL    HW151476  14.256   0.455   1.677
83193SOL    HW251477  14.142   0.364   1.718
83194SOL     OW51478   7.971   7.275  14.669
83194SOL    HW151479   7.927   7.307  14.590
83194SOL    HW251480   7.946   7.338  14.737
83195SOL     OW51481   0.158   4.252   7.309
83195SOL    HW151482   0.109   4.171   7.293
83195SOL    HW251483   0.249   4.229   7.286
83196SOL     OW51484   3.573   9.184   8.600
83196SOL    HW151485   3.524   9.110   8.636
83196SOL    HW251486   3.651   9.190   8.656
83197SOL     OW51487  12.599   4.580   8.669
83197SOL    HW151488  12.552   4.578   8.753
83197SOL    HW251489  12.537   4.622   8.609
83198SOL     OW51490  11.063  10.681   5.696
83198SOL    HW151491  11.030  10.662   5.609
83198SOL    HW251492  11.060  10.597   5.742
83199SOL     OW51493   1.759   6.829   1.445
83199SOL    HW151494   1.732   6.810   1.355
83199SOL    HW251495   1.845   6.787   1.453
83200SOL     OW51496   5.421   3.344   1.811
83200SOL    HW151497   5.497   3.311   1.763
83200SOL    HW251498   5.434   3.314   1.901
83201SOL     OW51499   2.659   2.280   5.176
83201SOL    HW151500   2.580   2.257   5.225
83201SOL    HW251501   2.705   2.342   5.233
83202SOL     OW51502   0.809   6.890  13.970
83202SOL    HW151503   0.723   6.931  13.957
83202SOL    HW251504   0.869   6.943  13.918
83203SOL     OW51505   9.180   2.867  14.437
83203SOL    HW151506   9.191   2.962  14.434
83203SOL    HW251507   9.183   2.845  14.530
83204SOL     OW51508   2.022  13.942  10.050
83204SOL    HW151509   1.965  13.979   9.983
83204SOL    HW251510   2.030  14.011  10.116
83205SOL     OW51511   3.218   9.657   1.873
83205SOL    HW151512   3.123   9.667   1.872
83205SOL    HW251513   3.250   9.728   1.818
83206SOL     OW51514   6.813   0.612   4.718
83206SOL    HW151515   6.835   0.675   4.649
83206SOL    HW251516   6.759   0.546   4.675
83207SOL     OW51517  12.381   7.163   5.624
83207SOL    HW151518  12.419   7.098   5.566
83207SOL    HW251519  12.445   7.174   5.694
83208SOL     OW51520  11.847   5.261   4.567
83208SOL    HW151521  11.885   5.212   4.495
83208SOL    HW251522  11.834   5.197   4.637
83209SOL     OW51523  14.832   5.711  11.576
83209SOL    HW151524  14.847   5.667  11.660
83209SOL    HW251525  14.761   5.662  11.536
83210SOL     OW51526   1.974   2.980  11.130
83210SOL    HW151527   1.959   2.958  11.039
83210SOL    HW251528   1.999   3.073  11.129
83211SOL     OW51529   0.130   7.178  10.240
83211SOL    HW151530   0.049   7.146  10.200
83211SOL    HW251531   0.101   7.222  10.320
83212SOL     OW51532   0.486   7.139   3.679
83212SOL    HW151533   0.559   7.078   3.687
83212SOL    HW251534   0.408   7.084   3.684
83213SOL     OW51535   1.767  10.082   0.325
83213SOL    HW151536   1.815  10.022   0.268
83213SOL    HW251537   1.695  10.114   0.272
83214SOL     OW51538  12.224   8.903  12.647
83214SOL    HW151539  12.210   8.912  12.741
83214SOL    HW251540  12.309   8.944  12.631
83215SOL     OW51541  12.686   3.134   6.540
83215SOL    HW151542  12.592   3.126   6.553
83215SOL    HW251543  12.725   3.070   6.599
83216SOL     OW51544   0.024   4.517   3.616
83216SOL    HW151545  14.816   4.546   3.604
83216SOL    HW251546   0.076   4.575   3.560
83217SOL     OW51547  11.493  11.604  14.853
83217SOL    HW151548  11.575  11.654  14.850
83217SOL    HW251549  11.482  11.573  14.763
83218SOL     OW51550  10.364   6.063  12.606
83218SOL    HW151551  10.298   6.128  12.631
83218SOL    HW251552  10.415   6.048  12.686
83219SOL     OW51553   0.622   0.068   3.489
83219SOL    HW151554   0.628   0.067   3.394
83219SOL    HW251555   0.712   0.084   3.518
83220SOL     OW51556  12.626   2.430  14.243
83220SOL    HW151557  12.685   2.501  14.219
83220SOL    HW251558  12.623   2.374  14.166
83221SOL     OW51559   5.677   7.087   0.147
83221SOL    HW151560   5.683   7.174   0.186
83221SOL    HW251561   5.675   7.103   0.052
83222SOL     OW51562  12.920   5.542   6.240
83222SOL    HW151563  13.007   5.503   6.235
83222SOL    HW251564  12.884   5.510   6.323
83223SOL     OW51565   6.904  11.549   7.009
83223SOL    HW151566   6.882  11.585   7.095
83223SOL    HW251567   6.860  11.464   7.006
83224SOL     OW51568   8.355   1.536   4.274
83224SOL    HW151569   8.389   1.494   4.353
83224SOL    HW251570   8.423   1.600   4.250
83225SOL     OW51571   0.085   1.738  14.366
83225SOL    HW151572   0.062   1.656  14.408
83225SOL    HW251573   0.118   1.713  14.279
83226SOL     OW51574   4.430   9.370   2.209
83226SOL    HW151575   4.475   9.288   2.227
83226SOL    HW251576   4.494   9.423   2.161
83227SOL     OW51577  13.246   4.011  11.220
83227SOL    HW151578  13.183   3.952  11.178
83227SOL    HW251579  13.310   4.031  11.152
83228SOL     OW51580  11.464   3.031   2.120
83228SOL    HW151581  11.398   3.084   2.076
83228SOL    HW251582  11.518   3.094   2.168
83229SOL     OW51583   6.162  12.456  14.282
83229SOL    HW151584   6.162  12.379  14.338
83229SOL    HW251585   6.097  12.514  14.321
83230SOL     OW51586   0.174  14.215   1.641
83230SOL    HW151587   0.256  14.233   1.594
83230SOL    HW251588   0.198  14.215   1.733
83231SOL     OW51589   3.600   8.552  12.406
83231SOL    HW151590   3.623   8.566  12.314
83231SOL    HW251591   3.644   8.624  12.452
83232SOL     OW51592   0.286   6.423   0.900
83232SOL    HW151593   0.365   6.408   0.951
83232SOL    HW251594   0.260   6.513   0.920
83233SOL     OW51595   0.546   6.550  14.655
83233SOL    HW151596   0.497   6.629  14.677
83233SOL    HW251597   0.555   6.503  14.738
83234SOL     OW51598   2.741   1.915  12.396
83234SOL    HW151599   2.767   1.954  12.312
83234SOL    HW251600   2.789   1.832  12.400
83235SOL     OW51601   1.218   7.842   7.150
83235SOL    HW151602   1.280   7.790   7.099
83235SOL    HW251603   1.250   7.932   7.142
83236SOL     OW51604   6.324   8.659   2.820
83236SOL    HW151605   6.407   8.644   2.774
83236SOL    HW251606   6.337   8.621   2.906
83237SOL     OW51607  10.616   4.608  11.432
83237SOL    HW151608  10.595   4.662  11.356
83237SOL    HW251609  10.616   4.670  11.505
83238SOL     OW51610  12.225   5.306  13.918
83238SOL    HW151611  12.147   5.264  13.882
83238SOL    HW251612  12.198   5.396  13.935
83239SOL     OW51613   7.178  11.767   4.514
83239SOL    HW151614   7.145  11.831   4.452
83239SOL    HW251615   7.128  11.688   4.496
83240SOL     OW51616   5.900   4.027  11.969
83240SOL    HW151617   5.899   4.108  12.020
83240SOL    HW251618   5.989   4.020  11.936
83241SOL     OW51619   2.914   8.719   6.301
83241SOL    HW151620   2.862   8.792   6.269
83241SOL    HW251621   2.866   8.685   6.376
83242SOL     OW51622   2.333   8.488  12.272
83242SOL    HW151623   2.259   8.433  12.298
83242SOL    HW251624   2.407   8.427  12.265
83243SOL     OW51625  12.969   1.444   6.219
83243SOL    HW151626  12.878   1.419   6.208
83243SOL    HW251627  12.967   1.539   6.231
83244SOL     OW51628  11.276   9.305  11.080
83244SOL    HW151629  11.207   9.259  11.128
83244SOL    HW251630  11.241   9.315  10.991
83245SOL     OW51631  14.023   5.579   6.866
83245SOL    HW151632  14.022   5.671   6.840
83245SOL    HW251633  14.076   5.576   6.946
83246SOL     OW51634  10.495   6.968   4.090
83246SOL    HW151635  10.427   6.916   4.133
83246SOL    HW251636  10.540   6.906   4.033
83247SOL     OW51637   8.892  10.103   4.047
83247SOL    HW151638   8.971  10.154   4.031
83247SOL    HW251639   8.829  10.166   4.081
83248SOL     OW51640   6.129   9.894  12.356
83248SOL    HW151641   6.136   9.986  12.328
83248SOL    HW251642   6.035   9.877  12.360
83249SOL     OW51643   1.424  12.835  10.262
83249SOL    HW151644   1.461  12.894  10.196
83249SOL    HW251645   1.501  12.797  10.306
83250SOL     OW51646   8.764   2.095   1.579
83250SOL    HW151647   8.757   2.073   1.672
83250SOL    HW251648   8.835   2.159   1.575
83251SOL     OW51649   4.754   0.293   1.474
83251SOL    HW151650   4.792   0.380   1.489
83251SOL    HW251651   4.812   0.233   1.522
83252SOL     OW51652  14.657   8.420  10.222
83252SOL    HW151653  14.710   8.487  10.266
83252SOL    HW251654  14.694   8.414  10.134
83253SOL     OW51655  12.100   9.403  13.747
83253SOL    HW151656  12.087   9.321  13.794
83253SOL    HW251657  12.012   9.430  13.720
83254SOL     OW51658   6.685   3.100   5.670
83254SOL    HW151659   6.764   3.151   5.682
83254SOL    HW251660   6.716   3.010   5.659
83255SOL     OW51661   0.246   5.529  13.925
83255SOL    HW151662   0.206   5.595  13.868
83255SOL    HW251663   0.256   5.572  14.009
83256SOL     OW51664   6.344   1.070   2.806
83256SOL    HW151665   6.290   0.992   2.824
83256SOL    HW251666   6.433   1.036   2.801
83257SOL     OW51667   1.017   1.454   0.105
83257SOL    HW151668   1.108   1.459   0.077
83257SOL    HW251669   0.967   1.452   0.023
83258SOL     OW51670  14.095  10.582  13.102
83258SOL    HW151671  14.158  10.620  13.040
83258SOL    HW251672  14.142  10.582  13.185
83259SOL     OW51673  13.930   2.112  12.856
83259SOL    HW151674  13.862   2.052  12.888
83259SOL    HW251675  14.011   2.079  12.893
83260SOL     OW51676  13.966   6.545   5.152
83260SOL    HW151677  13.959   6.450   5.157
83260SOL    HW251678  14.052   6.565   5.189
83261SOL     OW51679   2.638  13.840   2.037
83261SOL    HW151680   2.708  13.890   1.994
83261SOL    HW251681   2.557  13.877   2.001
83262SOL     OW51682  12.072   2.465   3.164
83262SOL    HW151683  12.111   2.492   3.080
83262SOL    HW251684  12.107   2.377   3.179
83263SOL     OW51685   9.720   1.603  13.146
83263SOL    HW151686   9.794   1.571  13.197
83263SOL    HW251687   9.656   1.532  13.149
83264SOL     OW51688  11.695   2.167  12.855
83264SOL    HW151689  11.777   2.214  12.870
83264SOL    HW251690  11.700   2.137  12.764
83265SOL     OW51691   0.303   0.582   3.015
83265SOL    HW151692   0.293   0.516   2.946
83265SOL    HW251693   0.324   0.531   3.093
83266SOL     OW51694   2.338  10.080   0.865
83266SOL    HW151695   2.336  10.176   0.873
83266SOL    HW251696   2.428  10.056   0.884
83267SOL     OW51697  14.125   1.971  14.525
83267SOL    HW151698  14.083   1.932  14.449
83267SOL    HW251699  14.169   1.897  14.568
83268SOL     OW51700  11.772   3.195   9.254
83268SOL    HW151701  11.706   3.212   9.322
83268SOL    HW251702  11.725   3.208   9.172
83269SOL     OW51703   1.850   5.957  11.112
83269SOL    HW151704   1.884   5.918  11.031
83269SOL    HW251705   1.918   6.017  11.140
83270SOL     OW51706   1.882  12.779   7.767
83270SOL    HW151707   1.824  12.739   7.831
83270SOL    HW251708   1.970  12.761   7.800
83271SOL     OW51709  12.655  13.851  10.762
83271SOL    HW151710  12.744  13.877  10.785
83271SOL    HW251711  12.655  13.846  10.666
83272SOL     OW51712  14.479  14.524   5.705
83272SOL    HW151713  14.464  14.581   5.780
83272SOL    HW251714  14.402  14.535   5.650
83273SOL     OW51715   9.543  12.340   0.079
83273SOL    HW151716   9.487  12.356   0.155
83273SOL    HW251717   9.558  12.428   0.043
83274SOL     OW51718   9.474   3.389   8.660
83274SOL    HW151719   9.402   3.326   8.662
83274SOL    HW251720   9.479   3.417   8.568
83275SOL     OW51721   9.751   1.124   5.077
83275SOL    HW151722   9.724   1.181   5.150
83275SOL    HW251723   9.675   1.067   5.062
83276SOL     OW51724  13.398  11.337   9.383
83276SOL    HW151725  13.448  11.352   9.303
83276SOL    HW251726  13.313  11.304   9.352
83277SOL     OW51727  11.352  14.255   1.317
83277SOL    HW151728  11.298  14.196   1.370
83277SOL    HW251729  11.315  14.250   1.229
83278SOL     OW51730   2.600   8.025   4.259
83278SOL    HW151731   2.596   8.026   4.163
83278SOL    HW251732   2.693   8.010   4.279
83279SOL     OW51733  10.898   3.031   4.881
83279SOL    HW151734  10.893   3.029   4.976
83279SOL    HW251735  10.981   2.989   4.860
83280SOL     OW51736   3.548  10.043   8.270
83280SOL    HW151737   3.611  10.092   8.216
83280SOL    HW251738   3.573   9.951   8.257
83281SOL     OW51739   0.531  10.418   2.571
83281SOL    HW151740   0.496  10.507   2.575
83281SOL    HW251741   0.626  10.430   2.582
83282SOL     OW51742   2.828   7.428   5.297
83282SOL    HW151743   2.877   7.346   5.299
83282SOL    HW251744   2.895   7.495   5.277
83283SOL     OW51745   0.887   3.725  11.960
83283SOL    HW151746   0.879   3.786  12.033
83283SOL    HW251747   0.952   3.661  11.990
83284SOL     OW51748   4.624   3.983   8.597
83284SOL    HW151749   4.547   3.940   8.559
83284SOL    HW251750   4.633   4.064   8.546
83285SOL     OW51751  13.048   4.849   4.078
83285SOL    HW151752  13.128   4.901   4.086
83285SOL    HW251753  13.013   4.845   4.167
83286SOL     OW51754   4.090  10.253   9.750
83286SOL    HW151755   4.147  10.323   9.782
83286SOL    HW251756   4.145  10.201   9.692
83287SOL     OW51757  14.485   1.454   2.900
83287SOL    HW151758  14.437   1.536   2.891
83287SOL    HW251759  14.568   1.478   2.940
83288SOL     OW51760  14.159  12.700  10.279
83288SOL    HW151761  14.186  12.688  10.188
83288SOL    HW251762  14.073  12.742  10.273
83289SOL     OW51763  11.153   6.937  13.332
83289SOL    HW151764  11.246   6.952  13.312
83289SOL    HW251765  11.107   7.006  13.284
83290SOL     OW51766   9.449   2.590   7.526
83290SOL    HW151767   9.513   2.645   7.572
83290SOL    HW251768   9.494   2.564   7.446
83291SOL     OW51769   0.973   0.285   5.741
83291SOL    HW151770   0.880   0.288   5.764
83291SOL    HW251771   0.981   0.206   5.686
83292SOL     OW51772   8.005   1.789   3.222
83292SOL    HW151773   8.019   1.805   3.315
83292SOL    HW251774   8.053   1.708   3.205
83293SOL     OW51775   7.809   9.271   8.511
83293SOL    HW151776   7.834   9.309   8.427
83293SOL    HW251777   7.739   9.210   8.490
83294SOL     OW51778   1.542  13.381   5.234
83294SOL    HW151779   1.521  13.474   5.237
83294SOL    HW251780   1.634  13.378   5.206
83295SOL     OW51781   3.799  10.567  10.682
83295SOL    HW151782   3.742  10.492  10.704
83295SOL    HW251783   3.768  10.637  10.740
83296SOL     OW51784   8.984  10.817   8.417
83296SOL    HW151785   8.977  10.887   8.352
83296SOL    HW251786   9.074  10.786   8.409
83297SOL     OW51787   8.713  10.984  12.360
83297SOL    HW151788   8.711  10.934  12.278
83297SOL    HW251789   8.670  10.928  12.424
83298SOL     OW51790   6.106   9.318   7.044
83298SOL    HW151791   6.024   9.277   7.014
83298SOL    HW251792   6.079   9.373   7.117
83299SOL     OW51793   5.232   6.072  12.347
83299SOL    HW151794   5.276   6.082  12.263
83299SOL    HW251795   5.142   6.049  12.325
83300SOL     OW51796   5.264  11.671  11.912
83300SOL    HW151797   5.278  11.581  11.882
83300SOL    HW251798   5.257  11.664  12.007
83301SOL     OW51799   3.742  11.614   5.764
83301SOL    HW151800   3.728  11.520   5.771
83301SOL    HW251801   3.721  11.634   5.672
83302SOL     OW51802   8.445   2.797   8.008
83302SOL    HW151803   8.449   2.713   8.054
83302SOL    HW251804   8.491   2.858   8.064
83303SOL     OW51805   8.157   2.371   0.936
83303SOL    HW151806   8.152   2.447   0.994
83303SOL    HW251807   8.208   2.307   0.984
83304SOL     OW51808   0.755  10.517   5.058
83304SOL    HW151809   0.711  10.447   5.107
83304SOL    HW251810   0.718  10.511   4.970
83305SOL     OW51811   6.076   3.398   8.229
83305SOL    HW151812   6.051   3.407   8.321
83305SOL    HW251813   6.100   3.306   8.219
83306SOL     OW51814  10.794   9.272   0.814
83306SOL    HW151815  10.726   9.216   0.778
83306SOL    HW251816  10.747   9.335   0.868
83307SOL     OW51817   1.042   4.417  11.610
83307SOL    HW151818   0.963   4.445  11.656
83307SOL    HW251819   1.051   4.480  11.537
83308SOL     OW51820  10.499  10.033   1.649
83308SOL    HW151821  10.503  10.095   1.577
83308SOL    HW251822  10.508   9.947   1.608
83309SOL     OW51823   4.642  13.483  11.955
83309SOL    HW151824   4.714  13.478  12.017
83309SOL    HW251825   4.651  13.405  11.900
83310SOL     OW51826   6.703   5.225   6.011
83310SOL    HW151827   6.773   5.278   5.973
83310SOL    HW251828   6.665   5.179   5.937
83311SOL     OW51829   9.389   3.050   3.483
83311SOL    HW151830   9.303   3.031   3.444
83311SOL    HW251831   9.380   3.025   3.575
83312SOL     OW51832   1.080   3.131   0.466
83312SOL    HW151833   0.990   3.097   0.466
83312SOL    HW251834   1.096   3.158   0.556
83313SOL     OW51835   4.219  10.782   3.974
83313SOL    HW151836   4.264  10.793   3.891
83313SOL    HW251837   4.126  10.786   3.953
83314SOL     OW51838  12.315   3.341  14.659
83314SOL    HW151839  12.356   3.284  14.595
83314SOL    HW251840  12.352   3.428  14.642
83315SOL     OW51841   7.842  12.243   6.727
83315SOL    HW151842   7.780  12.270   6.796
83315SOL    HW251843   7.820  12.152   6.709
83316SOL     OW51844  12.485   5.175   2.146
83316SOL    HW151845  12.473   5.082   2.167
83316SOL    HW251846  12.485   5.219   2.231
83317SOL     OW51847   6.665   1.099   8.784
83317SOL    HW151848   6.728   1.165   8.813
83317SOL    HW251849   6.635   1.130   8.699
83318SOL     OW51850   9.326  10.699  12.886
83318SOL    HW151851   9.237  10.689  12.852
83318SOL    HW251852   9.364  10.769  12.833
83319SOL     OW51853   8.687   9.074   2.109
83319SOL    HW151854   8.700   9.143   2.174
83319SOL    HW251855   8.594   9.051   2.118
83320SOL     OW51856   7.334   4.459  14.318
83320SOL    HW151857   7.242   4.432  14.314
83320SOL    HW251858   7.337   4.522  14.390
83321SOL     OW51859   7.310   8.336   1.657
83321SOL    HW151860   7.401   8.330   1.687
83321SOL    HW251861   7.267   8.390   1.724
83322SOL     OW51862   3.549   1.692   5.556
83322SOL    HW151863   3.555   1.686   5.460
83322SOL    HW251864   3.532   1.784   5.573
83323SOL     OW51865   8.496  12.155  12.947
83323SOL    HW151866   8.440  12.101  12.891
83323SOL    HW251867   8.568  12.182  12.890
83324SOL     OW51868   8.282  12.305   8.616
83324SOL    HW151869   8.327  12.236   8.665
83324SOL    HW251870   8.189  12.282   8.622
83325SOL     OW51871   9.681  13.052  12.817
83325SOL    HW151872   9.748  13.095  12.765
83325SOL    HW251873   9.724  13.030  12.899
83326SOL     OW51874   2.652  13.314  11.466
83326SOL    HW151875   2.571  13.282  11.506
83326SOL    HW251876   2.639  13.300  11.372
83327SOL     OW51877   8.148   2.925   8.640
83327SOL    HW151878   8.205   2.985   8.689
83327SOL    HW251879   8.200   2.901   8.563
83328SOL     OW51880   0.518   8.742  14.124
83328SOL    HW151881   0.554   8.666  14.170
83328SOL    HW251882   0.573   8.815  14.152
83329SOL     OW51883   2.782   8.703   2.566
83329SOL    HW151884   2.765   8.790   2.604
83329SOL    HW251885   2.771   8.643   2.640
83330SOL     OW51886   0.477   7.888   1.883
83330SOL    HW151887   0.558   7.924   1.848
83330SOL    HW251888   0.417   7.962   1.888
83331SOL     OW51889  10.528  10.960   0.717
83331SOL    HW151890  10.516  10.997   0.630
83331SOL    HW251891  10.564  10.873   0.702
83332SOL     OW51892   2.735   2.392  13.459
83332SOL    HW151893   2.746   2.297  13.465
83332SOL    HW251894   2.817   2.424  13.421
83333SOL     OW51895   0.385  10.240   2.401
83333SOL    HW151896   0.407  10.310   2.462
83333SOL    HW251897   0.330  10.282   2.334
83334SOL     OW51898  13.661   0.055  14.217
83334SOL    HW151899  13.723   0.055  14.290
83334SOL    HW251900  13.594  14.874  14.242
83335SOL     OW51901   6.117  14.806   2.216
83335SOL    HW151902   6.079  14.719   2.213
83335SOL    HW251903   6.122  14.834   2.124
83336SOL     OW51904  11.448   6.185  10.795
83336SOL    HW151905  11.424   6.234  10.716
83336SOL    HW251906  11.482   6.102  10.763
83337SOL     OW51907   2.546  10.955   9.460
83337SOL    HW151908   2.537  11.020   9.529
83337SOL    HW251909   2.483  10.886   9.482
83338SOL     OW51910  11.198   8.445   4.334
83338SOL    HW151911  11.218   8.389   4.259
83338SOL    HW251912  11.244   8.527   4.317
83339SOL     OW51913  10.851  10.407  11.027
83339SOL    HW151914  10.822  10.326  10.985
83339SOL    HW251915  10.928  10.434  10.977
83340SOL     OW51916   5.804   1.335   3.372
83340SOL    HW151917   5.882   1.365   3.417
83340SOL    HW251918   5.789   1.400   3.304
83341SOL     OW51919   2.679   4.487   7.144
83341SOL    HW151920   2.768   4.517   7.126
83341SOL    HW251921   2.683   4.392   7.135
83342SOL     OW51922  12.323   1.778   8.772
83342SOL    HW151923  12.318   1.834   8.695
83342SOL    HW251924  12.327   1.689   8.737
83343SOL     OW51925   3.130   3.496  14.496
83343SOL    HW151926   3.197   3.429  14.510
83343SOL    HW251927   3.178   3.578  14.494
83344SOL     OW51928   1.945   0.623   4.272
83344SOL    HW151929   1.982   0.690   4.330
83344SOL    HW251930   1.986   0.541   4.300
83345SOL     OW51931   8.114   7.510   0.837
83345SOL    HW151932   8.102   7.578   0.903
83345SOL    HW251933   8.194   7.465   0.862
83346SOL     OW51934  12.733   8.662  14.169
83346SOL    HW151935  12.730   8.690  14.260
83346SOL    HW251936  12.641   8.656  14.143
83347SOL     OW51937  11.181   6.715   3.515
83347SOL    HW151938  11.228   6.634   3.497
83347SOL    HW251939  11.148   6.705   3.604
83348SOL     OW51940   2.514   3.944   8.564
83348SOL    HW151941   2.454   3.935   8.637
83348SOL    HW251942   2.479   3.887   8.496
83349SOL     OW51943   2.446  14.152  13.358
83349SOL    HW151944   2.486  14.214  13.419
83349SOL    HW251945   2.392  14.095  13.412
83350SOL     OW51946   0.723   3.388   1.374
83350SOL    HW151947   0.792   3.324   1.391
83350SOL    HW251948   0.683   3.359   1.292
83351SOL     OW51949  12.748   7.539  10.607
83351SOL    HW151950  12.686   7.509  10.540
83351SOL    HW251951  12.708   7.619  10.642
83352SOL     OW51952   0.484   5.238  11.404
83352SOL    HW151953   0.407   5.283  11.371
83352SOL    HW251954   0.488   5.261  11.497
83353SOL     OW51955   3.122   9.617   6.950
83353SOL    HW151956   3.053   9.604   6.885
83353SOL    HW251957   3.202   9.586   6.907
83354SOL     OW51958   7.732   3.022  12.667
83354SOL    HW151959   7.792   2.962  12.712
83354SOL    HW251960   7.731   2.991  12.576
83355SOL     OW51961   4.100   7.987  11.822
83355SOL    HW151962   4.158   8.058  11.795
83355SOL    HW251963   4.088   7.999  11.916
83356SOL     OW51964   0.958  13.271   7.853
83356SOL    HW151965   0.903  13.313   7.786
83356SOL    HW251966   0.904  13.271   7.932
83357SOL     OW51967  12.999  13.195  13.290
83357SOL    HW151968  12.946  13.273  13.277
83357SOL    HW251969  12.936  13.123  13.298
83358SOL     OW51970  10.766  12.716   2.436
83358SOL    HW151971  10.820  12.745   2.509
83358SOL    HW251972  10.795  12.626   2.419
83359SOL     OW51973  10.546  13.231   3.719
83359SOL    HW151974  10.542  13.293   3.791
83359SOL    HW251975  10.635  13.241   3.684
83360SOL     OW51976  13.943  10.834  13.870
83360SOL    HW151977  13.951  10.742  13.895
83360SOL    HW251978  14.008  10.879  13.924
83361SOL     OW51979  11.220   3.753   4.203
83361SOL    HW151980  11.187   3.779   4.289
83361SOL    HW251981  11.248   3.662   4.214
83362SOL     OW51982  10.940  10.523   9.537
83362SOL    HW151983  10.847  10.543   9.529
83362SOL    HW251984  10.979  10.604   9.568
83363SOL     OW51985  13.641   5.539   1.942
83363SOL    HW151986  13.730   5.528   1.908
83363SOL    HW251987  13.597   5.457   1.923
83364SOL     OW51988   0.422  14.394   1.663
83364SOL    HW151989   0.449  14.485   1.676
83364SOL    HW251990   0.495  14.342   1.696
83365SOL     OW51991   0.747   1.549  10.204
83365SOL    HW151992   0.740   1.573  10.112
83365SOL    HW251993   0.673   1.490  10.219
83366SOL     OW51994   1.048   1.386   0.670
83366SOL    HW151995   1.002   1.436   0.602
83366SOL    HW251996   1.140   1.392   0.646
83367SOL     OW51997   0.955   4.517   6.862
83367SOL    HW151998   0.873   4.470   6.880
83367SOL    HW251999   1.021   4.448   6.854
83368SOL     OW52000   4.939   7.025   8.937
83368SOL    HW152001   4.845   7.028   8.920
83368SOL    HW252002   4.947   6.983   9.023
83369SOL     OW52003  11.377   9.213   8.784
83369SOL    HW152004  11.424   9.133   8.764
83369SOL    HW252005  11.347   9.245   8.699
83370SOL     OW52006   4.447   4.721   8.600
83370SOL    HW152007   4.447   4.697   8.693
83370SOL    HW252008   4.413   4.810   8.598
83371SOL     OW52009   3.795  13.542   2.627
83371SOL    HW152010   3.754  13.503   2.704
83371SOL    HW252011   3.784  13.477   2.558
83372SOL     OW52012   8.790   9.572   0.906
83372SOL    HW152013   8.750   9.608   0.985
83372SOL    HW252014   8.803   9.647   0.849
83373SOL     OW52015  10.177   4.481   2.173
83373SOL    HW152016  10.208   4.398   2.138
83373SOL    HW252017  10.082   4.475   2.169
83374SOL     OW52018   2.405   1.003   3.078
83374SOL    HW152019   2.427   1.096   3.081
83374SOL    HW252020   2.397   0.984   2.984
83375SOL     OW52021  12.074   1.923   1.431
83375SOL    HW152022  11.982   1.899   1.442
83375SOL    HW252023  12.110   1.854   1.375
83376SOL     OW52024   7.130   0.273   3.244
83376SOL    HW152025   7.054   0.330   3.255
83376SOL    HW252026   7.181   0.313   3.174
83377SOL     OW52027  12.897   6.862   4.756
83377SOL    HW152028  12.891   6.787   4.815
83377SOL    HW252029  12.899   6.824   4.669
83378SOL     OW52030   3.282   4.049   9.558
83378SOL    HW152031   3.226   3.978   9.525
83378SOL    HW252032   3.355   4.052   9.496
83379SOL     OW52033  10.142   6.491  12.137
83379SOL    HW152034  10.195   6.557  12.182
83379SOL    HW252035  10.060   6.536  12.117
83380SOL     OW52036  12.220  11.697  11.551
83380SOL    HW152037  12.179  11.705  11.637
83380SOL    HW252038  12.232  11.603  11.538
83381SOL     OW52039   9.367   3.299  12.790
83381SOL    HW152040   9.301   3.261  12.733
83381SOL    HW252041   9.399   3.225  12.843
83382SOL     OW52042  12.415   2.435  14.718
83382SOL    HW152043  12.423   2.440  14.623
83382SOL    HW252044  12.450   2.349  14.740
83383SOL     OW52045   5.497   1.806  12.557
83383SOL    HW152046   5.433   1.808  12.627
83383SOL    HW252047   5.497   1.895  12.521
83384SOL     OW52048   9.961   7.860  13.767
83384SOL    HW152049   9.959   7.771  13.804
83384SOL    HW252050   9.937   7.917  13.840
83385SOL     OW52051  11.412   6.179   1.770
83385SOL    HW152052  11.409   6.214   1.681
83385SOL    HW252053  11.413   6.084   1.758
83386SOL     OW52054  10.100   9.061  11.438
83386SOL    HW152055  10.030   9.018  11.389
83386SOL    HW252056  10.098   9.018  11.524
83387SOL     OW52057   3.449  12.678  10.201
83387SOL    HW152058   3.509  12.607  10.223
83387SOL    HW252059   3.408  12.703  10.284
83388SOL     OW52060   4.999  14.743  13.002
83388SOL    HW152061   5.030  14.760  13.092
83388SOL    HW252062   4.906  14.761  13.005
83389SOL     OW52063   0.467   5.152   4.741
83389SOL    HW152064   0.465   5.167   4.836
83389SOL    HW252065   0.406   5.216   4.706
83390SOL     OW52066   4.578   1.069   8.824
83390SOL    HW152067   4.575   0.981   8.788
83390SOL    HW252068   4.600   1.056   8.916
83391SOL     OW52069   0.654   6.536  14.253
83391SOL    HW152070   0.652   6.632  14.245
83391SOL    HW252071   0.747   6.514  14.254
83392SOL     OW52072  12.882   4.559   4.822
83392SOL    HW152073  12.900   4.583   4.913
83392SOL    HW252074  12.786   4.559   4.816
83393SOL     OW52075   9.797  10.158   6.427
83393SOL    HW152076   9.819  10.250   6.439
83393SOL    HW252077   9.881  10.115   6.409
83394SOL     OW52078  11.022   3.196  14.204
83394SOL    HW152079  11.027   3.107  14.237
83394SOL    HW252080  11.075   3.196  14.125
83395SOL     OW52081   1.207   4.394  10.533
83395SOL    HW152082   1.222   4.418  10.442
83395SOL    HW252083   1.223   4.475  10.582
83396SOL     OW52084   0.958   3.189   4.128
83396SOL    HW152085   0.886   3.222   4.182
83396SOL    HW252086   0.965   3.252   4.056
83397SOL     OW52087   1.370  10.436   3.308
83397SOL    HW152088   1.412  10.364   3.356
83397SOL    HW252089   1.282  10.405   3.291
83398SOL     OW52090  11.035   5.070  10.636
83398SOL    HW152091  11.080   5.110  10.711
83398SOL    HW252092  10.948   5.049  10.669
83399SOL     OW52093   6.695  14.326   0.849
83399SOL    HW152094   6.633  14.253   0.847
83399SOL    HW252095   6.658  14.390   0.789
83400SOL     OW52096  13.476   0.500   2.708
83400SOL    HW152097  13.465   0.444   2.631
83400SOL    HW252098  13.569   0.494   2.728
83401SOL     OW52099   1.019  13.126   0.416
83401SOL    HW152100   1.073  13.116   0.495
83401SOL    HW252101   1.081  13.114   0.344
83402SOL     OW52102  13.842   6.909   2.204
83402SOL    HW152103  13.760   6.883   2.247
83402SOL    HW252104  13.839   6.865   2.119
83403SOL     OW52105   9.969   4.761   4.826
83403SOL    HW152106  10.056   4.764   4.865
83403SOL    HW252107   9.984   4.729   4.737
83404SOL     OW52108  12.910   5.249   8.649
83404SOL    HW152109  12.923   5.214   8.561
83404SOL    HW252110  12.995   5.239   8.692
83405SOL     OW52111  10.943   3.951   5.640
83405SOL    HW152112  11.026   3.915   5.607
83405SOL    HW252113  10.969   4.003   5.716
83406SOL     OW52114   7.245   8.465  10.373
83406SOL    HW152115   7.160   8.446  10.412
83406SOL    HW252116   7.224   8.513  10.292
83407SOL     OW52117   4.623   4.492  13.014
83407SOL    HW152118   4.551   4.447  12.971
83407SOL    HW252119   4.632   4.447  13.098
83408SOL     OW52120   8.849   7.830   5.253
83408SOL    HW152121   8.939   7.804   5.235
83408SOL    HW252122   8.798   7.790   5.182
83409SOL     OW52123   9.582   9.421  10.594
83409SOL    HW152124   9.590   9.328  10.614
83409SOL    HW252125   9.535   9.458  10.668
83410SOL     OW52126  11.524  11.740   0.258
83410SOL    HW152127  11.557  11.758   0.170
83410SOL    HW252128  11.495  11.649   0.254
83411SOL     OW52129   9.624   6.365  13.393
83411SOL    HW152130   9.626   6.315  13.311
83411SOL    HW252131   9.607   6.455  13.366
83412SOL     OW52132   5.419   1.268   4.055
83412SOL    HW152133   5.467   1.334   4.005
83412SOL    HW252134   5.327   1.282   4.030
83413SOL     OW52135   5.641   4.725   9.705
83413SOL    HW152136   5.716   4.741   9.648
83413SOL    HW252137   5.565   4.749   9.651
83414SOL     OW52138  12.778   2.053   4.349
83414SOL    HW152139  12.785   2.148   4.353
83414SOL    HW252140  12.688   2.033   4.376
83415SOL     OW52141  11.174   2.744   3.402
83415SOL    HW152142  11.151   2.725   3.493
83415SOL    HW252143  11.269   2.742   3.400
83416SOL     OW52144   2.996   4.241  11.590
83416SOL    HW152145   3.025   4.300  11.521
83416SOL    HW252146   3.028   4.280  11.671
83417SOL     OW52147   8.640  14.770   7.253
83417SOL    HW152148   8.598  14.839   7.304
83417SOL    HW252149   8.572  14.703   7.244
83418SOL     OW52150   0.054   5.929   1.515
83418SOL    HW152151   0.086   5.953   1.602
83418SOL    HW252152   0.043   6.013   1.469
83419SOL     OW52153   6.607   0.034  11.726
83419SOL    HW152154   6.572   0.092  11.793
83419SOL    HW252155   6.700   0.057  11.720
83420SOL     OW52156   1.807   8.971   0.152
83420SOL    HW152157   1.767   9.038   0.097
83420SOL    HW252158   1.787   8.888   0.109
83421SOL     OW52159   6.696  11.096  10.653
83421SOL    HW152160   6.705  11.092  10.558
83421SOL    HW252161   6.786  11.102  10.685
83422SOL     OW52162  14.872  10.457   3.866
83422SOL    HW152163   0.054  10.515   3.824
83422SOL    HW252164  14.811  10.435   3.796
83423SOL     OW52165   5.310  14.424   2.123
83423SOL    HW152166   5.218  14.413   2.148
83423SOL    HW252167   5.329  14.350   2.066
83424SOL     OW52168   9.646   1.665  13.997
83424SOL    HW152169   9.620   1.636  13.909
83424SOL    HW252170   9.689   1.750  13.982
83425SOL     OW52171   9.934  11.817   1.739
83425SOL    HW152172   9.909  11.764   1.815
83425SOL    HW252173   9.906  11.906   1.760
83426SOL     OW52174   0.358  13.828   2.008
83426SOL    HW152175   0.432  13.771   2.028
83426SOL    HW252176   0.285  13.768   1.989
83427SOL     OW52177  12.287   1.282   8.133
83427SOL    HW152178  12.201   1.240   8.121
83427SOL    HW252179  12.266   1.370   8.164
83428SOL     OW52180   6.969   5.870   7.437
83428SOL    HW152181   6.910   5.827   7.374
83428SOL    HW252182   6.938   5.960   7.441
83429SOL     OW52183   5.146   6.484   0.560
83429SOL    HW152184   5.120   6.566   0.604
83429SOL    HW252185   5.068   6.429   0.565
83430SOL     OW52186   0.337   4.791   5.588
83430SOL    HW152187   0.311   4.736   5.514
83430SOL    HW252188   0.424   4.822   5.566
83431SOL     OW52189   6.435   8.433   7.039
83431SOL    HW152190   6.437   8.338   7.035
83431SOL    HW252191   6.354   8.453   7.086
83432SOL     OW52192  13.191   0.754   4.677
83432SOL    HW152193  13.257   0.768   4.609
83432SOL    HW252194  13.131   0.690   4.638
83433SOL     OW52195   5.429  14.415   8.454
83433SOL    HW152196   5.429  14.490   8.514
83433SOL    HW252197   5.365  14.439   8.387
83434SOL     OW52198   1.957   9.739   6.828
83434SOL    HW152199   1.978   9.647   6.814
83434SOL    HW252200   1.990   9.758   6.916
83435SOL     OW52201   7.477   0.722   7.907
83435SOL    HW152202   7.415   0.740   7.837
83435SOL    HW252203   7.540   0.662   7.869
83436SOL     OW52204  14.177  10.042   0.116
83436SOL    HW152205  14.255  10.014   0.165
83436SOL    HW252206  14.175  10.137   0.126
83437SOL     OW52207   0.934   4.585   2.481
83437SOL    HW152208   0.955   4.580   2.388
83437SOL    HW252209   0.881   4.507   2.498
83438SOL     OW52210   4.367  14.728   3.655
83438SOL    HW152211   4.361  14.692   3.567
83438SOL    HW252212   4.342  14.656   3.713
83439SOL     OW52213   7.419   9.783   8.293
83439SOL    HW152214   7.386   9.724   8.360
83439SOL    HW252215   7.509   9.756   8.278
83440SOL     OW52216   0.659   6.054  12.181
83440SOL    HW152217   0.677   6.059  12.274
83440SOL    HW252218   0.699   6.133  12.144
83441SOL     OW52219   3.029   9.965   8.823
83441SOL    HW152220   2.972   9.949   8.899
83441SOL    HW252221   3.111   9.921   8.844
83442SOL     OW52222  10.403  12.996   7.288
83442SOL    HW152223  10.409  12.909   7.247
83442SOL    HW252224  10.312  13.022   7.274
83443SOL     OW52225   5.000  10.909   9.410
83443SOL    HW152226   5.069  10.876   9.353
83443SOL    HW252227   5.025  10.880   9.497
83444SOL     OW52228   0.630  10.493   8.936
83444SOL    HW152229   0.553  10.546   8.915
83444SOL    HW252230   0.703  10.556   8.936
83445SOL     OW52231   9.423   0.336  14.558
83445SOL    HW152232   9.444   0.402  14.624
83445SOL    HW252233   9.474   0.362  14.481
83446SOL     OW52234   7.099  13.618  11.541
83446SOL    HW152235   7.090  13.713  11.538
83446SOL    HW252236   7.100  13.597  11.634
83447SOL     OW52237   0.951  14.350   6.867
83447SOL    HW152238   0.933  14.304   6.949
83447SOL    HW252239   0.993  14.284   6.812
83448SOL     OW52240  11.703   6.030   0.859
83448SOL    HW152241  11.717   6.007   0.767
83448SOL    HW252242  11.615   5.997   0.879
83449SOL     OW52243  10.410  10.927   9.266
83449SOL    HW152244  10.475  10.927   9.195
83449SOL    HW252245  10.424  10.843   9.310
83450SOL     OW52246  10.457   1.439  12.054
83450SOL    HW152247  10.450   1.410  11.963
83450SOL    HW252248  10.527   1.385  12.091
83451SOL     OW52249   3.607   4.431   5.450
83451SOL    HW152250   3.635   4.473   5.532
83451SOL    HW252251   3.632   4.493   5.382
83452SOL     OW52252  12.642  13.446   1.474
83452SOL    HW152253  12.636  13.370   1.417
83452SOL    HW252254  12.671  13.517   1.417
83453SOL     OW52255  11.752   2.210   1.721
83453SOL    HW152256  11.691   2.169   1.659
83453SOL    HW252257  11.837   2.202   1.679
83454SOL     OW52258   8.241   6.045   8.921
83454SOL    HW152259   8.293   6.122   8.895
83454SOL    HW252260   8.240   6.048   9.017
83455SOL     OW52261   2.061   3.408   4.289
83455SOL    HW152262   2.080   3.389   4.381
83455SOL    HW252263   2.068   3.324   4.245
83456SOL     OW52264   7.515   3.865   8.884
83456SOL    HW152265   7.482   3.901   8.966
83456SOL    HW252266   7.442   3.813   8.849
83457SOL     OW52267  12.109   1.009  13.403
83457SOL    HW152268  12.190   0.957  13.407
83457SOL    HW252269  12.133   1.095  13.437
83458SOL     OW52270   1.432   1.766   4.906
83458SOL    HW152271   1.391   1.796   4.986
83458SOL    HW252272   1.526   1.765   4.925
83459SOL     OW52273   3.418   8.481   9.584
83459SOL    HW152274   3.400   8.529   9.665
83459SOL    HW252275   3.336   8.435   9.564
83460SOL     OW52276   5.162   4.307   1.784
83460SOL    HW152277   5.080   4.354   1.766
83460SOL    HW252278   5.137   4.238   1.845
83461SOL     OW52279   4.570  13.464  13.394
83461SOL    HW152280   4.609  13.482  13.480
83461SOL    HW252281   4.558  13.370  13.392
83462SOL     OW52282   7.350  13.107   5.013
83462SOL    HW152283   7.439  13.125   5.046
83462SOL    HW252284   7.358  13.111   4.918
83463SOL     OW52285   8.236   5.800  11.066
83463SOL    HW152286   8.203   5.744  11.137
83463SOL    HW252287   8.307   5.749  11.028
83464SOL     OW52288   6.717  10.430  10.189
83464SOL    HW152289   6.807  10.404  10.208
83464SOL    HW252290   6.686  10.363  10.128
83465SOL     OW52291   6.696   7.676   2.079
83465SOL    HW152292   6.612   7.676   2.033
83465SOL    HW252293   6.698   7.760   2.125
83466SOL     OW52294   9.824   0.422   3.650
83466SOL    HW152295   9.753   0.371   3.611
83466SOL    HW252296   9.782   0.476   3.717
83467SOL     OW52297   5.026  10.414  13.585
83467SOL    HW152298   4.979  10.488  13.546
83467SOL    HW252299   5.015  10.426  13.680
83468SOL     OW52300   0.631   2.812   5.395
83468SOL    HW152301   0.713   2.832   5.350
83468SOL    HW252302   0.590   2.743   5.342
83469SOL     OW52303   4.083  11.661  13.885
83469SOL    HW152304   4.095  11.661  13.980
83469SOL    HW252305   4.105  11.750  13.858
83470SOL     OW52306  12.759   3.153  10.917
83470SOL    HW152307  12.726   3.184  10.833
83470SOL    HW252308  12.828   3.091  10.893
83471SOL     OW52309  11.519   1.110   0.288
83471SOL    HW152310  11.458   1.136   0.356
83471SOL    HW252311  11.601   1.091   0.334
83472SOL     OW52312   1.982  14.394   4.747
83472SOL    HW152313   1.903  14.437   4.715
83472SOL    HW252314   1.951  14.312   4.786
83473SOL     OW52315   7.728   5.322   3.082
83473SOL    HW152316   7.697   5.412   3.076
83473SOL    HW252317   7.783   5.310   3.005
83474SOL     OW52318   2.830   6.630   1.895
83474SOL    HW152319   2.837   6.541   1.861
83474SOL    HW252320   2.881   6.683   1.834
83475SOL     OW52321   3.755  14.632   5.526
83475SOL    HW152322   3.815  14.613   5.599
83475SOL    HW252323   3.771  14.725   5.507
83476SOL     OW52324   1.634   7.766  12.708
83476SOL    HW152325   1.564   7.812  12.754
83476SOL    HW252326   1.686   7.835  12.667
83477SOL     OW52327   2.138   5.072   4.574
83477SOL    HW152328   2.232   5.055   4.580
83477SOL    HW252329   2.131   5.148   4.516
83478SOL     OW52330  14.107   9.253  14.689
83478SOL    HW152331  14.182   9.219  14.737
83478SOL    HW252332  14.055   9.175  14.667
83479SOL     OW52333   1.242   2.872   5.796
83479SOL    HW152334   1.175   2.804   5.788
83479SOL    HW252335   1.297   2.861   5.719
83480SOL     OW52336  11.618   0.822  10.416
83480SOL    HW152337  11.579   0.739  10.391
83480SOL    HW252338  11.610   0.876  10.337
83481SOL     OW52339  13.689   6.535  12.712
83481SOL    HW152340  13.655   6.624  12.723
83481SOL    HW252341  13.781   6.547  12.687
83482SOL     OW52342   3.888   1.552   6.316
83482SOL    HW152343   3.862   1.509   6.397
83482SOL    HW252344   3.807   1.560   6.266
83483SOL     OW52345  10.039   8.421   0.190
83483SOL    HW152346   9.984   8.451   0.118
83483SOL    HW252347   9.987   8.436   0.269
83484SOL     OW52348  11.853  10.606   1.692
83484SOL    HW152349  11.859  10.519   1.652
83484SOL    HW252350  11.813  10.590   1.777
83485SOL     OW52351   1.718   0.577  11.974
83485SOL    HW152352   1.711   0.488  11.940
83485SOL    HW252353   1.799   0.611  11.937
83486SOL     OW52354   5.230   0.719   8.666
83486SOL    HW152355   5.322   0.701   8.682
83486SOL    HW252356   5.185   0.686   8.743
83487SOL     OW52357   2.299   4.841   3.204
83487SOL    HW152358   2.370   4.879   3.256
83487SOL    HW252359   2.258   4.778   3.262
83488SOL     OW52360   2.225   2.358   7.943
83488SOL    HW152361   2.132   2.338   7.933
83488SOL    HW252362   2.261   2.354   7.854
83489SOL     OW52363  13.245   4.147   7.024
83489SOL    HW152364  13.154   4.175   7.028
83489SOL    HW252365  13.248   4.064   7.071
83490SOL     OW52366  12.776   8.424   9.244
83490SOL    HW152367  12.706   8.375   9.200
83490SOL    HW252368  12.749   8.426   9.336
83491SOL     OW52369   4.534   9.859   4.051
83491SOL    HW152370   4.512   9.952   4.062
83491SOL    HW252371   4.537   9.824   4.140
83492SOL     OW52372   8.878   5.122  14.077
83492SOL    HW152373   8.947   5.148  14.137
83492SOL    HW252374   8.923   5.096  13.997
83493SOL     OW52375   1.166  11.503   7.145
83493SOL    HW152376   1.173  11.411   7.121
83493SOL    HW252377   1.217  11.511   7.226
83494SOL     OW52378  13.316   7.025   3.221
83494SOL    HW152379  13.336   6.936   3.249
83494SOL    HW252380  13.369   7.080   3.280
83495SOL     OW52381   9.572   3.246  13.070
83495SOL    HW152382   9.521   3.172  13.037
83495SOL    HW252383   9.512   3.292  13.128
83496SOL     OW52384  12.300   8.506  14.686
83496SOL    HW152385  12.267   8.564  14.618
83496SOL    HW252386  12.366   8.452  14.643
83497SOL     OW52387   0.725  11.140   3.681
83497SOL    HW152388   0.636  11.174   3.679
83497SOL    HW252389   0.737  11.107   3.770
83498SOL     OW52390  14.483   3.384   9.150
83498SOL    HW152391  14.418   3.444   9.113
83498SOL    HW252392  14.561   3.397   9.096
83499SOL     OW52393   7.257   7.799   1.064
83499SOL    HW152394   7.246   7.731   0.998
83499SOL    HW252395   7.175   7.848   1.062
83500SOL     OW52396   5.533  11.481   1.983
83500SOL    HW152397   5.540  11.553   2.046
83500SOL    HW252398   5.524  11.525   1.898
83501SOL     OW52399   5.818   8.552  13.035
83501SOL    HW152400   5.816   8.644  13.062
83501SOL    HW252401   5.911   8.535  13.017
83502SOL     OW52402   1.197  11.666  14.127
83502SOL    HW152403   1.163  11.739  14.076
83502SOL    HW252404   1.245  11.612  14.064
83503SOL     OW52405   6.239   6.589   7.875
83503SOL    HW152406   6.170   6.655   7.884
83503SOL    HW252407   6.302   6.610   7.945
83504SOL     OW52408  12.109  13.930   1.282
83504SOL    HW152409  12.145  14.017   1.298
83504SOL    HW252410  12.030  13.926   1.335
83505SOL     OW52411   7.213   8.897   6.250
83505SOL    HW152412   7.126   8.920   6.218
83505SOL    HW252413   7.256   8.981   6.265
83506SOL     OW52414   8.193  12.027  11.340
83506SOL    HW152415   8.266  12.055  11.285
83506SOL    HW252416   8.145  11.964  11.286
83507SOL     OW52417   7.603   7.433  12.694
83507SOL    HW152418   7.564   7.403  12.777
83507SOL    HW252419   7.615   7.352  12.644
83508SOL     OW52420  12.732   3.085   2.629
83508SOL    HW152421  12.650   3.059   2.671
83508SOL    HW252422  12.778   3.002   2.614
83509SOL     OW52423   8.776   1.229  10.276
83509SOL    HW152424   8.798   1.136  10.267
83509SOL    HW252425   8.791   1.248  10.368
83510SOL     OW52426  12.911  12.810  13.594
83510SOL    HW152427  12.905  12.825  13.688
83510SOL    HW252428  12.821  12.821  13.562
83511SOL     OW52429   9.900  13.854  11.889
83511SOL    HW152430   9.853  13.869  11.806
83511SOL    HW252431   9.836  13.811  11.945
83512SOL     OW52432  10.772   8.781   7.085
83512SOL    HW152433  10.785   8.732   7.004
83512SOL    HW252434  10.678   8.801   7.086
83513SOL     OW52435   8.189  10.552   8.922
83513SOL    HW152436   8.145  10.620   8.872
83513SOL    HW252437   8.280  10.580   8.926
83514SOL     OW52438   1.457   2.307   2.943
83514SOL    HW152439   1.537   2.330   2.990
83514SOL    HW252440   1.387   2.317   3.007
83515SOL     OW52441   5.224   6.286  10.525
83515SOL    HW152442   5.300   6.248  10.482
83515SOL    HW252443   5.259   6.359  10.577
83516SOL     OW52444   6.171   5.614  12.809
83516SOL    HW152445   6.209   5.535  12.846
83516SOL    HW252446   6.099   5.636  12.868
83517SOL     OW52447  14.192   2.330   5.167
83517SOL    HW152448  14.180   2.349   5.074
83517SOL    HW252449  14.178   2.414   5.211
83518SOL     OW52450   5.287  11.000  11.819
83518SOL    HW152451   5.238  10.993  11.737
83518SOL    HW252452   5.223  11.030  11.883
83519SOL     OW52453   6.599   9.464  14.659
83519SOL    HW152454   6.534   9.426  14.600
83519SOL    HW252455   6.632   9.389  14.710
83520SOL     OW52456   8.648  11.609   8.053
83520SOL    HW152457   8.633  11.567   8.137
83520SOL    HW252458   8.738  11.643   8.059
83521SOL     OW52459   2.973  11.723   4.865
83521SOL    HW152460   3.040  11.782   4.898
83521SOL    HW252461   2.937  11.681   4.943
83522SOL     OW52462   8.682   4.936   6.242
83522SOL    HW152463   8.685   4.846   6.208
83522SOL    HW252464   8.753   4.939   6.306
83523SOL     OW52465  12.269   6.581   8.444
83523SOL    HW152466  12.275   6.617   8.356
83523SOL    HW252467  12.179   6.549   8.451
83524SOL     OW52468   3.529  13.984  14.245
83524SOL    HW152469   3.614  14.017  14.215
83524SOL    HW252470   3.470  13.995  14.170
83525SOL     OW52471   3.944   9.106   7.243
83525SOL    HW152472   3.886   9.047   7.292
83525SOL    HW252473   3.942   9.188   7.291
83526SOL     OW52474   7.978  11.474   7.032
83526SOL    HW152475   7.981  11.568   7.050
83526SOL    HW252476   7.950  11.435   7.115
83527SOL     OW52477  10.361   9.071   5.715
83527SOL    HW152478  10.401   9.031   5.638
83527SOL    HW252479  10.312   9.000   5.756
83528SOL     OW52480  11.917   4.439  10.116
83528SOL    HW152481  11.911   4.421  10.022
83528SOL    HW252482  12.006   4.473  10.127
83529SOL     OW52483   9.571  12.949   3.515
83529SOL    HW152484   9.568  12.861   3.479
83529SOL    HW252485   9.498  12.995   3.471
83530SOL     OW52486   0.832   6.372   6.994
83530SOL    HW152487   0.928   6.362   6.995
83530SOL    HW252488   0.813   6.426   7.070
83531SOL     OW52489   7.999   0.370   5.199
83531SOL    HW152490   8.063   0.309   5.235
83531SOL    HW252491   7.958   0.410   5.276
83532SOL     OW52492   8.957   1.936   1.132
83532SOL    HW152493   8.961   2.022   1.090
83532SOL    HW252494   8.877   1.939   1.186
83533SOL     OW52495   6.278  14.758   4.715
83533SOL    HW152496   6.251  14.684   4.661
83533SOL    HW252497   6.329  14.720   4.785
83534SOL     OW52498   6.694  12.447  12.015
83534SOL    HW152499   6.649  12.430  12.097
83534SOL    HW252500   6.705  12.542  12.012
83535SOL     OW52501   9.694  13.978   2.760
83535SOL    HW152502   9.734  13.908   2.709
83535SOL    HW252503   9.601  13.956   2.763
83536SOL     OW52504   7.411   1.840   6.611
83536SOL    HW152505   7.473   1.783   6.656
83536SOL    HW252506   7.325   1.812   6.641
83537SOL     OW52507   8.708   7.031   9.986
83537SOL    HW152508   8.780   7.041   9.923
83537SOL    HW252509   8.731   7.088  10.058
83538SOL     OW52510   1.283  13.161  10.686
83538SOL    HW152511   1.325  13.136  10.604
83538SOL    HW252512   1.354  13.164  10.750
83539SOL     OW52513  12.487   9.461  10.335
83539SOL    HW152514  12.510   9.458  10.242
83539SOL    HW252515  12.511   9.374  10.369
83540SOL     OW52516   0.684   4.882   7.695
83540SOL    HW152517   0.668   4.857   7.787
83540SOL    HW252518   0.722   4.804   7.656
83541SOL     OW52519  12.508  11.819   0.142
83541SOL    HW152520  12.591  11.843   0.184
83541SOL    HW252521  12.444  11.878   0.180
83542SOL     OW52522   1.242  13.925   2.426
83542SOL    HW152523   1.213  13.946   2.515
83542SOL    HW252524   1.259  13.831   2.429
83543SOL     OW52525   2.862   9.651   0.863
83543SOL    HW152526   2.845   9.656   0.769
83543SOL    HW252527   2.913   9.571   0.874
83544SOL     OW52528  12.072  11.885   2.550
83544SOL    HW152529  12.090  11.959   2.608
83544SOL    HW252530  11.981  11.863   2.567
83545SOL     OW52531   8.468   5.351   1.286
83545SOL    HW152532   8.524   5.405   1.342
83545SOL    HW252533   8.525   5.279   1.258
83546SOL     OW52534   9.252   6.246   8.012
83546SOL    HW152535   9.287   6.318   7.960
83546SOL    HW252536   9.300   6.249   8.094
83547SOL     OW52537   1.355   0.215   1.238
83547SOL    HW152538   1.395   0.135   1.272
83547SOL    HW252539   1.276   0.186   1.194
83548SOL     OW52540   8.467   9.794   4.920
83548SOL    HW152541   8.509   9.833   4.844
83548SOL    HW252542   8.540   9.766   4.976
83549SOL     OW52543   6.835   4.084  10.889
83549SOL    HW152544   6.909   4.133  10.924
83549SOL    HW252545   6.766   4.149  10.878
83550SOL     OW52546   4.046  13.775   1.531
83550SOL    HW152547   4.091  13.700   1.569
83550SOL    HW252548   3.958  13.742   1.510
83551SOL     OW52549   3.120   3.582   9.332
83551SOL    HW152550   3.050   3.588   9.267
83551SOL    HW252551   3.199   3.566   9.281
83552SOL     OW52552   1.743   9.374  13.574
83552SOL    HW152553   1.791   9.318  13.634
83552SOL    HW252554   1.737   9.323  13.493
83553SOL     OW52555  10.590  13.948  14.038
83553SOL    HW152556  10.529  13.891  13.991
83553SOL    HW252557  10.580  14.033  13.995
83554SOL     OW52558  11.480   6.981   8.401
83554SOL    HW152559  11.403   6.986   8.345
83554SOL    HW252560  11.505   7.073   8.416
83555SOL     OW52561   9.128   7.643   5.471
83555SOL    HW152562   9.120   7.693   5.390
83555SOL    HW252563   9.037   7.626   5.498
83556SOL     OW52564   9.763  11.259   6.844
83556SOL    HW152565   9.746  11.352   6.828
83556SOL    HW252566   9.757  11.249   6.939
83557SOL     OW52567  14.644  14.157   8.115
83557SOL    HW152568  14.626  14.168   8.208
83557SOL    HW252569  14.668  14.245   8.085
83558SOL     OW52570   3.057  14.441   3.324
83558SOL    HW152571   3.112  14.443   3.246
83558SOL    HW252572   3.104  14.385   3.385
83559SOL     OW52573   0.679   3.025   7.645
83559SOL    HW152574   0.588   3.004   7.624
83559SOL    HW252575   0.730   2.963   7.593
83560SOL     OW52576   7.445  11.880   4.627
83560SOL    HW152577   7.507  11.818   4.588
83560SOL    HW252578   7.362  11.864   4.581
83561SOL     OW52579  13.961   0.455   9.616
83561SOL    HW152580  13.986   0.386   9.678
83561SOL    HW252581  13.874   0.430   9.586
83562SOL     OW52582   9.470  10.467   0.642
83562SOL    HW152583   9.446  10.411   0.568
83562SOL    HW252584   9.456  10.411   0.719
83563SOL     OW52585   5.243  13.033   1.193
83563SOL    HW152586   5.233  12.956   1.137
83563SOL    HW252587   5.317  13.012   1.250
83564SOL     OW52588  13.632   1.976  12.438
83564SOL    HW152589  13.698   1.915  12.403
83564SOL    HW252590  13.620   1.949  12.529
83565SOL     OW52591   2.691   6.867  10.323
83565SOL    HW152592   2.687   6.790  10.266
83565SOL    HW252593   2.636   6.932  10.280
83566SOL     OW52594  11.720  13.145   6.014
83566SOL    HW152595  11.782  13.199   6.063
83566SOL    HW252596  11.685  13.084   6.079
83567SOL     OW52597   0.647   4.565   9.936
83567SOL    HW152598   0.680   4.636   9.991
83567SOL    HW252599   0.566   4.537   9.978
83568SOL     OW52600   3.572  13.836   3.143
83568SOL    HW152601   3.551  13.794   3.060
83568SOL    HW252602   3.621  13.770   3.192
83569SOL     OW52603   3.844   5.929   7.359
83569SOL    HW152604   3.931   5.946   7.394
83569SOL    HW252605   3.850   5.842   7.320
83570SOL     OW52606   2.756  13.230   3.897
83570SOL    HW152607   2.694  13.182   3.842
83570SOL    HW252608   2.742  13.322   3.873
83571SOL     OW52609   4.028   8.228  13.040
83571SOL    HW152610   4.046   8.322  13.034
83571SOL    HW252611   4.082   8.199  13.114
83572SOL     OW52612   3.405   3.008   3.741
83572SOL    HW152613   3.449   2.924   3.759
83572SOL    HW252614   3.314   2.984   3.725
83573SOL     OW52615   6.126   7.666   6.387
83573SOL    HW152616   6.089   7.745   6.348
83573SOL    HW252617   6.197   7.641   6.328
83574SOL     OW52618   9.757  10.606   3.784
83574SOL    HW152619   9.829  10.544   3.796
83574SOL    HW252620   9.766  10.636   3.693
83575SOL     OW52621  12.392   5.684   4.580
83575SOL    HW152622  12.333   5.663   4.652
83575SOL    HW252623  12.479   5.687   4.620
83576SOL     OW52624   5.336   9.629  11.154
83576SOL    HW152625   5.321   9.538  11.178
83576SOL    HW252626   5.249   9.669  11.156
83577SOL     OW52627  11.390   7.824   4.790
83577SOL    HW152628  11.384   7.916   4.815
83577SOL    HW252629  11.301   7.790   4.797
83578SOL     OW52630   0.436  13.919   5.815
83578SOL    HW152631   0.487  13.892   5.891
83578SOL    HW252632   0.355  13.955   5.852
83579SOL     OW52633  10.975   6.413   0.533
83579SOL    HW152634  10.931   6.401   0.449
83579SOL    HW252635  10.934   6.491   0.571
83580SOL     OW52636  11.108   6.599  11.718
83580SOL    HW152637  11.177   6.645  11.671
83580SOL    HW252638  11.098   6.516  11.672
83581SOL     OW52639   3.086   9.607   7.240
83581SOL    HW152640   3.002   9.649   7.221
83581SOL    HW252641   3.132   9.606   7.156
83582SOL     OW52642   1.977  11.798   1.529
83582SOL    HW152643   2.022  11.870   1.484
83582SOL    HW252644   1.884  11.821   1.523
83583SOL     OW52645   3.659   7.140   2.589
83583SOL    HW152646   3.681   7.049   2.569
83583SOL    HW252647   3.675   7.148   2.684
83584SOL     OW52648   3.515   5.775   5.651
83584SOL    HW152649   3.597   5.812   5.683
83584SOL    HW252650   3.456   5.850   5.642
83585SOL     OW52651   9.717   0.373  12.340
83585SOL    HW152652   9.739   0.443  12.278
83585SOL    HW252653   9.751   0.404  12.424
83586SOL     OW52654   1.509   6.079  14.600
83586SOL    HW152655   1.456   6.016  14.648
83586SOL    HW252656   1.558   6.026  14.538
83587SOL     OW52657   7.462   6.366   4.065
83587SOL    HW152658   7.409   6.308   4.010
83587SOL    HW252659   7.425   6.453   4.049
83588SOL     OW52660   9.296  14.716   3.045
83588SOL    HW152661   9.367  14.652   3.049
83588SOL    HW252662   9.335  14.793   3.004
83589SOL     OW52663   6.287   2.268   8.660
83589SOL    HW152664   6.323   2.180   8.645
83589SOL    HW252665   6.245   2.291   8.578
83590SOL     OW52666   7.032   5.320   8.921
83590SOL    HW152667   7.022   5.349   8.830
83590SOL    HW252668   7.014   5.399   8.973
83591SOL     OW52669  13.471   2.528   9.393
83591SOL    HW152670  13.502   2.554   9.479
83591SOL    HW252671  13.406   2.594   9.369
83592SOL     OW52672   7.831   6.260   2.711
83592SOL    HW152673   7.785   6.220   2.637
83592SOL    HW252674   7.816   6.200   2.784
83593SOL     OW52675   9.553   5.226  14.108
83593SOL    HW152676   9.532   5.234  14.201
83593SOL    HW252677   9.645   5.252  14.102
83594SOL     OW52678   1.980  11.862   2.443
83594SOL    HW152679   2.056  11.893   2.492
83594SOL    HW252680   1.971  11.770   2.469
83595SOL     OW52681   2.076   5.459   9.179
83595SOL    HW152682   2.166   5.477   9.207
83595SOL    HW252683   2.041   5.402   9.247
83596SOL     OW52684  11.509  10.619   4.426
83596SOL    HW152685  11.568  10.660   4.362
83596SOL    HW252686  11.471  10.545   4.379
83597SOL     OW52687   3.407   6.555  10.763
83597SOL    HW152688   3.485   6.514  10.726
83597SOL    HW252689   3.336   6.526  10.706
83598SOL     OW52690   0.988   5.137   8.449
83598SOL    HW152691   0.932   5.095   8.515
83598SOL    HW252692   0.975   5.230   8.461
83599SOL     OW52693   5.414  12.973   0.233
83599SOL    HW152694   5.324  12.952   0.210
83599SOL    HW252695   5.464  12.951   0.154
83600SOL     OW52696   3.167   8.336   7.795
83600SOL    HW152697   3.072   8.339   7.788
83600SOL    HW252698   3.199   8.353   7.706
83601SOL     OW52699   8.643   4.976   9.564
83601SOL    HW152700   8.684   4.945   9.483
83601SOL    HW252701   8.568   5.028   9.535
83602SOL     OW52702   1.113   1.297   3.096
83602SOL    HW152703   1.075   1.383   3.113
83602SOL    HW252704   1.089   1.245   3.173
83603SOL     OW52705   3.862   8.794   3.589
83603SOL    HW152706   3.809   8.799   3.510
83603SOL    HW252707   3.910   8.711   3.581
83604SOL     OW52708  11.481  11.975  10.698
83604SOL    HW152709  11.387  11.996  10.699
83604SOL    HW252710  11.484  11.883  10.724
83605SOL     OW52711   8.330   9.299  10.665
83605SOL    HW152712   8.284   9.223  10.630
83605SOL    HW252713   8.423   9.276  10.661
83606SOL     OW52714   1.535  12.523  11.307
83606SOL    HW152715   1.473  12.575  11.358
83606SOL    HW252716   1.507  12.433  11.320
83607SOL     OW52717   8.965   5.617  12.298
83607SOL    HW152718   8.914   5.630  12.217
83607SOL    HW252719   9.055   5.636  12.272
83608SOL     OW52720   7.815   6.408  14.212
83608SOL    HW152721   7.786   6.441  14.297
83608SOL    HW252722   7.865   6.329  14.233
83609SOL     OW52723   2.411   4.891  10.268
83609SOL    HW152724   2.419   4.940  10.350
83609SOL    HW252725   2.418   4.799  10.294
83610SOL     OW52726   3.368   6.123  12.039
83610SOL    HW152727   3.420   6.160  12.111
83610SOL    HW252728   3.291   6.181  12.034
83611SOL     OW52729   9.645   0.851   5.653
83611SOL    HW152730   9.557   0.815   5.657
83611SOL    HW252731   9.691   0.796   5.590
83612SOL     OW52732  12.234   6.522  10.843
83612SOL    HW152733  12.190   6.588  10.896
83612SOL    HW252734  12.167   6.491  10.782
83613SOL     OW52735  14.725  10.793  12.411
83613SOL    HW152736  14.646  10.836  12.445
83613SOL    HW252737  14.794  10.859  12.420
83614SOL     OW52738   4.614  12.047   7.163
83614SOL    HW152739   4.538  11.997   7.133
83614SOL    HW252740   4.678  11.980   7.187
83615SOL     OW52741   7.601   5.676   4.954
83615SOL    HW152742   7.585   5.768   4.933
83615SOL    HW252743   7.576   5.628   4.875
83616SOL     OW52744   3.062  11.498   6.322
83616SOL    HW152745   3.110  11.418   6.343
83616SOL    HW252746   3.124  11.569   6.338
83617SOL     OW52747   7.003   8.065   5.670
83617SOL    HW152748   6.923   8.081   5.721
83617SOL    HW252749   7.012   7.970   5.670
83618SOL     OW52750  12.857   4.193   7.789
83618SOL    HW152751  12.909   4.240   7.853
83618SOL    HW252752  12.844   4.255   7.718
83619SOL     OW52753   2.634  13.985  10.023
83619SOL    HW152754   2.652  14.079  10.019
83619SOL    HW252755   2.616  13.968  10.115
83620SOL     OW52756   0.328  10.266   5.413
83620SOL    HW152757   0.311  10.297   5.501
83620SOL    HW252758   0.389  10.193   5.424
83621SOL     OW52759  11.764   7.735  14.832
83621SOL    HW152760  11.712   7.815  14.840
83621SOL    HW252761  11.846   7.763  14.790
83622SOL     OW52762  12.855  14.840  14.191
83622SOL    HW152763  12.933  14.801  14.229
83622SOL    HW252764  12.849   0.045  14.231
83623SOL     OW52765   1.835   5.968   4.656
83623SOL    HW152766   1.843   5.872   4.658
83623SOL    HW252767   1.921   5.999   4.630
83624SOL     OW52768  10.238   7.138  14.839
83624SOL    HW152769  10.160   7.083  14.843
83624SOL    HW252770  10.298   7.099   0.021
83625SOL     OW52771  13.018   3.301   8.740
83625SOL    HW152772  13.064   3.333   8.662
83625SOL    HW252773  13.020   3.205   8.730
83626SOL     OW52774   9.045   0.306   6.846
83626SOL    HW152775   9.104   0.233   6.865
83626SOL    HW252776   9.090   0.357   6.778
83627SOL     OW52777  10.570  14.567   7.532
83627SOL    HW152778  10.590  14.646   7.482
83627SOL    HW252779  10.482  14.582   7.568
83628SOL     OW52780   0.233  11.169   6.481
83628SOL    HW152781   0.312  11.206   6.521
83628SOL    HW252782   0.249  11.173   6.387
83629SOL     OW52783  11.952   5.027   1.165
83629SOL    HW152784  11.920   4.939   1.188
83629SOL    HW252785  11.947   5.030   1.069
83630SOL     OW52786   4.006   1.181   3.861
83630SOL    HW152787   4.048   1.106   3.817
83630SOL    HW252788   3.992   1.151   3.950
83631SOL     OW52789   7.711   3.779   3.792
83631SOL    HW152790   7.689   3.715   3.725
83631SOL    HW252791   7.792   3.820   3.761
83632SOL     OW52792   9.778  11.897  11.379
83632SOL    HW152793   9.728  11.978  11.367
83632SOL    HW252794   9.738  11.835  11.317
83633SOL     OW52795   9.858   2.461   1.594
83633SOL    HW152796   9.849   2.423   1.507
83633SOL    HW252797   9.896   2.391   1.647
83634SOL     OW52798   7.982  11.981  10.755
83634SOL    HW152799   7.939  11.935  10.683
83634SOL    HW252800   7.920  11.977  10.827
83635SOL     OW52801   5.947  10.386  14.529
83635SOL    HW152802   5.915  10.417  14.445
83635SOL    HW252803   6.043  10.386  14.520
83636SOL     OW52804   0.689   9.296   2.669
83636SOL    HW152805   0.636   9.217   2.681
83636SOL    HW252806   0.776   9.263   2.648
83637SOL     OW52807   6.289   3.534  11.222
83637SOL    HW152808   6.203   3.495  11.204
83637SOL    HW252809   6.271   3.602  11.286
83638SOL     OW52810  10.431   9.258   3.650
83638SOL    HW152811  10.376   9.205   3.707
83638SOL    HW252812  10.505   9.201   3.627
83639SOL     OW52813   9.112   3.651   6.448
83639SOL    HW152814   9.154   3.679   6.529
83639SOL    HW252815   9.109   3.730   6.394
83640SOL     OW52816  14.079  12.962   9.969
83640SOL    HW152817  14.146  12.949   9.902
83640SOL    HW252818  14.128  12.970  10.051
83641SOL     OW52819   7.645  10.139   4.050
83641SOL    HW152820   7.603  10.213   4.095
83641SOL    HW252821   7.610  10.061   4.094
83642SOL     OW52822   2.751  10.506   2.068
83642SOL    HW152823   2.668  10.552   2.059
83642SOL    HW252824   2.732  10.435   2.129
83643SOL     OW52825   1.537   7.264   5.767
83643SOL    HW152826   1.522   7.331   5.701
83643SOL    HW252827   1.590   7.308   5.834
83644SOL     OW52828  14.825   3.533   7.524
83644SOL    HW152829  14.773   3.508   7.448
83644SOL    HW252830   0.033   3.513   7.500
83645SOL     OW52831   1.114   3.263  14.755
83645SOL    HW152832   1.088   3.350  14.787
83645SOL    HW252833   1.200   3.248  14.795
83646SOL     OW52834  12.141   9.407   6.073
83646SOL    HW152835  12.195   9.398   6.151
83646SOL    HW252836  12.129   9.501   6.062
83647SOL     OW52837   0.870   3.378   4.538
83647SOL    HW152838   0.933   3.428   4.485
83647SOL    HW252839   0.850   3.301   4.484
83648SOL     OW52840  10.769   3.141  14.857
83648SOL    HW152841  10.754   3.120   0.067
83648SOL    HW252842  10.682   3.146  14.819
83649SOL     OW52843  12.614   2.102   1.355
83649SOL    HW152844  12.533   2.089   1.404
83649SOL    HW252845  12.636   2.015   1.322
83650SOL     OW52846  12.343   3.692  10.137
83650SOL    HW152847  12.323   3.674  10.045
83650SOL    HW252848  12.321   3.784  10.149
83651SOL     OW52849   0.498   0.760  14.304
83651SOL    HW152850   0.457   0.821  14.366
83651SOL    HW252851   0.495   0.807  14.220
83652SOL     OW52852   2.240  10.882   2.159
83652SOL    HW152853   2.287  10.940   2.219
83652SOL    HW252854   2.264  10.913   2.072
83653SOL     OW52855  12.243  12.801   1.383
83653SOL    HW152856  12.160  12.759   1.360
83653SOL    HW252857  12.258  12.864   1.313
83654SOL     OW52858   3.977  11.653   1.874
83654SOL    HW152859   3.934  11.573   1.845
83654SOL    HW252860   3.987  11.705   1.795
83655SOL     OW52861   4.300   6.193   4.010
83655SOL    HW152862   4.233   6.192   4.078
83655SOL    HW252863   4.356   6.267   4.034
83656SOL     OW52864   4.074   4.798  12.336
83656SOL    HW152865   3.995   4.845  12.362
83656SOL    HW252866   4.060   4.779  12.243
83657SOL     OW52867  11.440   8.500   3.424
83657SOL    HW152868  11.428   8.504   3.519
83657SOL    HW252869  11.418   8.588   3.394
83658SOL     OW52870   2.367   7.980  13.768
83658SOL    HW152871   2.399   8.004  13.681
83658SOL    HW252872   2.417   8.035  13.828
83659SOL     OW52873   4.040  10.239   0.073
83659SOL    HW152874   4.088  10.230   0.155
83659SOL    HW252875   4.009  10.150   0.054
83660SOL     OW52876  13.994  10.437  10.785
83660SOL    HW152877  14.070  10.480  10.823
83660SOL    HW252878  14.026  10.399  10.703
83661SOL     OW52879   4.532   4.118   5.536
83661SOL    HW152880   4.610   4.155   5.576
83661SOL    HW252881   4.464   4.184   5.550
83662SOL     OW52882  14.401   6.401   1.692
83662SOL    HW152883  14.321   6.390   1.743
83662SOL    HW252884  14.375   6.377   1.603
83663SOL     OW52885   4.578  14.008  10.049
83663SOL    HW152886   4.648  13.979  10.107
83663SOL    HW252887   4.506  13.947  10.067
83664SOL     OW52888  11.561  13.135   5.108
83664SOL    HW152889  11.468  13.124   5.089
83664SOL    HW252890  11.595  13.047   5.119
83665SOL     OW52891   2.343   5.084   2.321
83665SOL    HW152892   2.418   5.060   2.376
83665SOL    HW252893   2.269   5.038   2.360
83666SOL     OW52894   6.106  13.587  11.806
83666SOL    HW152895   6.112  13.683  11.808
83666SOL    HW252896   6.023  13.569  11.764
83667SOL     OW52897   9.560   3.210   5.139
83667SOL    HW152898   9.514   3.198   5.222
83667SOL    HW252899   9.653   3.201   5.162
83668SOL     OW52900  12.248   3.131   3.425
83668SOL    HW152901  12.236   3.037   3.436
83668SOL    HW252902  12.203   3.171   3.500
83669SOL     OW52903   9.649   8.190   6.298
83669SOL    HW152904   9.664   8.202   6.205
83669SOL    HW252905   9.634   8.279   6.332
83670SOL     OW52906  14.877   7.137   6.438
83670SOL    HW152907   0.062   7.166   6.376
83670SOL    HW252908  14.871   7.208   6.501
83671SOL     OW52909   1.068   8.174   5.141
83671SOL    HW152910   1.031   8.091   5.112
83671SOL    HW252911   1.138   8.149   5.201
83672SOL     OW52912  12.452   4.509   0.820
83672SOL    HW152913  12.496   4.434   0.780
83672SOL    HW252914  12.493   4.519   0.905
83673SOL     OW52915   9.677  14.169   9.949
83673SOL    HW152916   9.631  14.214   9.877
83673SOL    HW252917   9.769  14.169   9.921
83674SOL     OW52918  10.695   1.713   0.830
83674SOL    HW152919  10.779   1.759   0.826
83674SOL    HW252920  10.630   1.779   0.804
83675SOL     OW52921   9.145   9.797  10.537
83675SOL    HW152922   9.223   9.823  10.587
83675SOL    HW252923   9.174   9.723  10.484
83676SOL     OW52924  11.025   6.422  10.539
83676SOL    HW152925  11.073   6.369  10.475
83676SOL    HW252926  11.090   6.445  10.605
83677SOL     OW52927   1.526  11.090  13.591
83677SOL    HW152928   1.549  11.169  13.542
83677SOL    HW252929   1.562  11.106  13.679
83678SOL     OW52930  12.213   1.019   1.285
83678SOL    HW152931  12.274   1.030   1.212
83678SOL    HW252932  12.254   1.067   1.357
83679SOL     OW52933  13.201   5.514   3.323
83679SOL    HW152934  13.229   5.464   3.400
83679SOL    HW252935  13.283   5.550   3.287
83680SOL     OW52936  10.254   7.560  12.550
83680SOL    HW152937  10.259   7.476  12.503
83680SOL    HW252938  10.319   7.552  12.620
83681SOL     OW52939   9.666   9.384  12.515
83681SOL    HW152940   9.666   9.375  12.420
83681SOL    HW252941   9.590   9.333  12.544
83682SOL     OW52942   6.678   9.821   7.233
83682SOL    HW152943   6.683   9.726   7.222
83682SOL    HW252944   6.604   9.834   7.293
83683SOL     OW52945   8.390   4.719   5.093
83683SOL    HW152946   8.467   4.757   5.135
83683SOL    HW252947   8.375   4.774   5.016
83684SOL     OW52948  11.596   3.532   3.135
83684SOL    HW152949  11.548   3.577   3.065
83684SOL    HW252950  11.533   3.471   3.173
83685SOL     OW52951   0.613   3.106   0.272
83685SOL    HW152952   0.542   3.053   0.310
83685SOL    HW252953   0.673   3.042   0.235
83686SOL     OW52954   4.998   5.679   6.687
83686SOL    HW152955   5.092   5.697   6.686
83686SOL    HW252956   4.980   5.637   6.603
83687SOL     OW52957  12.861  10.531   9.013
83687SOL    HW152958  12.953  10.506   8.999
83687SOL    HW252959  12.826  10.461   9.068
83688SOL     OW52960   0.080   2.754   2.818
83688SOL    HW152961   0.049   2.708   2.897
83688SOL    HW252962   0.027   2.834   2.815
83689SOL     OW52963   5.473  14.286   9.067
83689SOL    HW152964   5.465  14.192   9.078
83689SOL    HW252965   5.386  14.314   9.036
83690SOL     OW52966  14.450   7.204   4.535
83690SOL    HW152967  14.449   7.241   4.623
83690SOL    HW252968  14.361   7.218   4.502
83691SOL     OW52969   7.202  12.832   8.721
83691SOL    HW152970   7.201  12.738   8.738
83691SOL    HW252971   7.139  12.869   8.783
83692SOL     OW52972   8.303  10.750   9.367
83692SOL    HW152973   8.208  10.758   9.364
83692SOL    HW252974   8.323  10.678   9.307
83693SOL     OW52975   1.793   0.793   4.565
83693SOL    HW152976   1.727   0.741   4.518
83693SOL    HW252977   1.842   0.730   4.617
83694SOL     OW52978   4.798   2.823  13.776
83694SOL    HW152979   4.716   2.860  13.809
83694SOL    HW252980   4.795   2.731  13.801
83695SOL     OW52981   0.177  12.755  13.018
83695SOL    HW152982   0.242  12.699  13.059
83695SOL    HW252983   0.204  12.759  12.926
83696SOL     OW52984   9.886  10.347  12.782
83696SOL    HW152985   9.966  10.386  12.748
83696SOL    HW252986   9.849  10.299  12.707
83697SOL     OW52987  13.339  11.817  13.787
83697SOL    HW152988  13.269  11.868  13.828
83697SOL    HW252989  13.313  11.811  13.695
83698SOL     OW52990   7.941  14.085  14.112
83698SOL    HW152991   7.852  14.089  14.148
83698SOL    HW252992   7.940  14.008  14.055
83699SOL     OW52993   9.735   9.179  11.444
83699SOL    HW152994   9.703   9.091  11.464
83699SOL    HW252995   9.744   9.181  11.349
83700SOL     OW52996  12.689  13.343  10.441
83700SOL    HW152997  12.608  13.293  10.433
83700SOL    HW252998  12.754  13.291  10.393
83701SOL     OW52999   4.128   2.616   8.200
83701SOL    HW153000   4.130   2.543   8.138
83701SOL    HW253001   4.215   2.655   8.193
83702SOL     OW53002   8.528  11.247   5.561
83702SOL    HW153003   8.592  11.177   5.570
83702SOL    HW253004   8.561  11.317   5.618
83703SOL     OW53005   5.542   4.984   9.775
83703SOL    HW153006   5.473   5.002   9.711
83703SOL    HW253007   5.539   4.889   9.786
83704SOL     OW53008  10.948   8.100   1.831
83704SOL    HW153009  11.040   8.127   1.838
83704SOL    HW253010  10.945   8.046   1.752
83705SOL     OW53011   7.288   0.392   3.487
83705SOL    HW153012   7.322   0.413   3.400
83705SOL    HW253013   7.319   0.302   3.503
83706SOL     OW53014   6.031   1.980   0.016
83706SOL    HW153015   6.057   1.925   0.089
83706SOL    HW253016   6.113   2.008  14.858
83707SOL     OW53017  11.428   5.202   3.008
83707SOL    HW153018  11.436   5.209   2.912
83707SOL    HW253019  11.454   5.289   3.040
83708SOL     OW53020   3.873   7.093   0.476
83708SOL    HW153021   3.894   7.000   0.485
83708SOL    HW253022   3.794   7.105   0.528
83709SOL     OW53023   1.990   5.813  10.594
83709SOL    HW153024   2.055   5.749  10.566
83709SOL    HW253025   1.990   5.879  10.524
83710SOL     OW53026  13.798   7.611   0.716
83710SOL    HW153027  13.721   7.655   0.680
83710SOL    HW253028  13.861   7.682   0.730
83711SOL     OW53029   3.518  14.488  12.641
83711SOL    HW153030   3.586  14.429  12.608
83711SOL    HW253031   3.513  14.469  12.735
83712SOL     OW53032  10.404   8.365   7.926
83712SOL    HW153033  10.355   8.311   7.989
83712SOL    HW253034  10.420   8.307   7.852
83713SOL     OW53035  10.662   4.513  11.730
83713SOL    HW153036  10.589   4.564  11.694
83713SOL    HW253037  10.653   4.521  11.825
83714SOL     OW53038  14.367   0.710   9.688
83714SOL    HW153039  14.300   0.651   9.652
83714SOL    HW253040  14.449   0.678   9.651
83715SOL     OW53041  11.892   8.541   8.586
83715SOL    HW153042  11.857   8.628   8.605
83715SOL    HW253043  11.853   8.517   8.502
83716SOL     OW53044   0.311   4.761   1.514
83716SOL    HW153045   0.299   4.741   1.421
83716SOL    HW253046   0.405   4.753   1.529
83717SOL     OW53047   4.000   5.616  14.206
83717SOL    HW153048   4.044   5.531  14.200
83717SOL    HW253049   3.910   5.594  14.230
83718SOL     OW53050   0.645   6.617   0.419
83718SOL    HW153051   0.576   6.569   0.466
83718SOL    HW253052   0.716   6.626   0.482
83719SOL     OW53053   2.779   6.173  14.352
83719SOL    HW153054   2.839   6.119  14.300
83719SOL    HW253055   2.731   6.110  14.405
83720SOL     OW53056  14.438   1.026   4.604
83720SOL    HW153057  14.364   0.983   4.648
83720SOL    HW253058  14.398   1.101   4.559
83721SOL     OW53059   2.767   7.762   6.287
83721SOL    HW153060   2.819   7.817   6.344
83721SOL    HW253061   2.822   7.746   6.210
83722SOL     OW53062   5.872  14.052  12.114
83722SOL    HW153063   5.942  14.027  12.054
83722SOL    HW253064   5.871  13.982  12.180
83723SOL     OW53065   0.165   5.130   1.840
83723SOL    HW153066   0.222   5.088   1.904
83723SOL    HW253067   0.157   5.065   1.770
83724SOL     OW53068   9.998   9.774   9.940
83724SOL    HW153069   9.990   9.700  10.001
83724SOL    HW253070  10.076   9.754   9.889
83725SOL     OW53071  11.775  11.937  13.524
83725SOL    HW153072  11.781  12.033  13.523
83725SOL    HW253073  11.683  11.918  13.510
83726SOL     OW53074   4.015  14.315   0.566
83726SOL    HW153075   3.986  14.224   0.570
83726SOL    HW253076   4.108  14.313   0.586
83727SOL     OW53077  12.741   3.253  12.227
83727SOL    HW153078  12.714   3.261  12.135
83727SOL    HW253079  12.793   3.173  12.230
83728SOL     OW53080   4.368  12.107  13.774
83728SOL    HW153081   4.450  12.102  13.823
83728SOL    HW253082   4.335  12.195  13.792
83729SOL     OW53083   1.275   6.093   0.554
83729SOL    HW153084   1.192   6.095   0.601
83729SOL    HW253085   1.337   6.054   0.617
83730SOL     OW53086   3.800   5.855   5.345
83730SOL    HW153087   3.805   5.910   5.423
83730SOL    HW253088   3.794   5.917   5.273
83731SOL     OW53089   9.365   5.125   9.093
83731SOL    HW153090   9.289   5.174   9.059
83731SOL    HW253091   9.426   5.123   9.019
83732SOL     OW53092   0.854  11.388   8.389
83732SOL    HW153093   0.843  11.325   8.317
83732SOL    HW253094   0.932  11.438   8.365
83733SOL     OW53095  11.802   2.718   0.453
83733SOL    HW153096  11.786   2.652   0.386
83733SOL    HW253097  11.730   2.780   0.443
83734SOL     OW53098   4.752   0.610  14.081
83734SOL    HW153099   4.681   0.669  14.106
83734SOL    HW253100   4.832   0.654  14.110
83735SOL     OW53101  14.454   7.223   7.508
83735SOL    HW153102  14.446   7.128   7.518
83735SOL    HW253103  14.378   7.249   7.458
83736SOL     OW53104   4.585   9.502   5.151
83736SOL    HW153105   4.559   9.410   5.160
83736SOL    HW253106   4.548   9.530   5.068
83737SOL     OW53107   7.867   5.746   7.155
83737SOL    HW153108   7.926   5.794   7.213
83737SOL    HW253109   7.886   5.780   7.068
83738SOL     OW53110   2.391   9.328   1.689
83738SOL    HW153111   2.295   9.322   1.694
83738SOL    HW253112   2.408   9.351   1.598
83739SOL     OW53113  14.028   5.588   0.230
83739SOL    HW153114  13.957   5.632   0.183
83739SOL    HW253115  14.106   5.638   0.208
83740SOL     OW53116  14.214  14.574   0.184
83740SOL    HW153117  14.210  14.586   0.279
83740SOL    HW253118  14.283  14.510   0.171
83741SOL     OW53119  14.051   4.347   8.835
83741SOL    HW153120  13.995   4.371   8.762
83741SOL    HW253121  13.991   4.333   8.908
83742SOL     OW53122  12.429   1.844   2.858
83742SOL    HW153123  12.408   1.937   2.860
83742SOL    HW253124  12.411   1.814   2.947
83743SOL     OW53125  14.754   6.070  13.356
83743SOL    HW153126  14.822   6.123  13.314
83743SOL    HW253127  14.750   6.102  13.446
83744SOL     OW53128   4.317   6.659   8.825
83744SOL    HW153129   4.319   6.724   8.754
83744SOL    HW253130   4.298   6.710   8.903
83745SOL     OW53131  14.101  13.325   6.782
83745SOL    HW153132  14.189  13.361   6.788
83745SOL    HW253133  14.102  13.249   6.840
83746SOL     OW53134   8.935   7.939   4.920
83746SOL    HW153135   8.877   8.014   4.907
83746SOL    HW253136   8.983   7.932   4.838
83747SOL     OW53137  13.049   6.428  12.518
83747SOL    HW153138  13.114   6.433  12.589
83747SOL    HW253139  13.102   6.422  12.438
83748SOL     OW53140   2.688  12.215   8.740
83748SOL    HW153141   2.690  12.289   8.680
83748SOL    HW253142   2.658  12.141   8.687
83749SOL     OW53143  13.974  13.104  13.652
83749SOL    HW153144  13.915  13.157  13.704
83749SOL    HW253145  13.937  13.105  13.564
83750SOL     OW53146   1.596   4.905   8.577
83750SOL    HW153147   1.678   4.901   8.528
83750SOL    HW253148   1.608   4.978   8.638
83751SOL     OW53149   5.020  12.120   6.485
83751SOL    HW153150   5.054  12.032   6.503
83751SOL    HW253151   4.928  12.105   6.461
83752SOL     OW53152   6.417   4.742  12.148
83752SOL    HW153153   6.427   4.755  12.242
83752SOL    HW253154   6.446   4.652  12.133
83753SOL     OW53155   8.605   2.817  11.993
83753SOL    HW153156   8.585   2.904  12.027
83753SOL    HW253157   8.651   2.773  12.065
83754SOL     OW53158   2.396  14.170   8.771
83754SOL    HW153159   2.345  14.224   8.711
83754SOL    HW253160   2.332  14.111   8.811
83755SOL     OW53161   3.565   3.637  10.561
83755SOL    HW153162   3.633   3.589  10.514
83755SOL    HW253163   3.611   3.709  10.604
83756SOL     OW53164   6.856  12.018   4.123
83756SOL    HW153165   6.802  11.962   4.178
83756SOL    HW253166   6.795  12.081   4.084
83757SOL     OW53167  10.530   4.698  12.890
83757SOL    HW153168  10.515   4.791  12.900
83757SOL    HW253169  10.605   4.692  12.830
83758SOL     OW53170   5.859   6.158  12.483
83758SOL    HW153171   5.794   6.191  12.545
83758SOL    HW253172   5.856   6.220  12.410
83759SOL     OW53173   9.382   2.188   7.071
83759SOL    HW153174   9.310   2.126   7.054
83759SOL    HW253175   9.460   2.133   7.076
83760SOL     OW53176   2.130  13.886   7.772
83760SOL    HW153177   2.165  13.957   7.719
83760SOL    HW253178   2.207  13.843   7.809
83761SOL     OW53179  12.608  10.628  12.071
83761SOL    HW153180  12.704  10.636  12.073
83761SOL    HW253181  12.576  10.704  12.119
83762SOL     OW53182   3.905   4.253  14.667
83762SOL    HW153183   3.821   4.217  14.637
83762SOL    HW253184   3.915   4.222  14.757
83763SOL     OW53185  10.226   7.966   3.702
83763SOL    HW153186  10.285   7.943   3.631
83763SOL    HW253187  10.219   8.061   3.699
83764SOL     OW53188   3.585   0.698  12.793
83764SOL    HW153189   3.556   0.706  12.702
83764SOL    HW253190   3.679   0.681  12.787
83765SOL     OW53191   1.506  13.627  10.920
83765SOL    HW153192   1.473  13.537  10.922
83765SOL    HW253193   1.429  13.680  10.895
83766SOL     OW53194   5.343   9.190  11.134
83766SOL    HW153195   5.419   9.135  11.153
83766SOL    HW253196   5.373   9.248  11.064
83767SOL     OW53197   8.416   3.847  13.980
83767SOL    HW153198   8.497   3.829  14.028
83767SOL    HW253199   8.428   3.936  13.946
83768SOL     OW53200   6.785   9.150   5.906
83768SOL    HW153201   6.879   9.168   5.905
83768SOL    HW253202   6.766   9.127   5.997
83769SOL     OW53203   9.414  11.479   2.641
83769SOL    HW153204   9.496  11.482   2.691
83769SOL    HW253205   9.422  11.550   2.578
83770SOL     OW53206   1.360   7.631  13.138
83770SOL    HW153207   1.451   7.656  13.153
83770SOL    HW253208   1.310   7.687  13.198
83771SOL     OW53209   6.047  11.124   3.219
83771SOL    HW153210   5.996  11.143   3.297
83771SOL    HW253211   6.069  11.031   3.226
83772SOL     OW53212  13.233   4.428  14.071
83772SOL    HW153213  13.211   4.514  14.035
83772SOL    HW253214  13.261   4.446  14.160
83773SOL     OW53215   5.459   9.934   6.721
83773SOL    HW153216   5.539   9.888   6.698
83773SOL    HW253217   5.453  10.005   6.657
83774SOL     OW53218   4.880  11.039   1.883
83774SOL    HW153219   4.961  11.051   1.835
83774SOL    HW253220   4.891  10.955   1.929
83775SOL     OW53221   3.243   6.377   0.195
83775SOL    HW153222   3.201   6.318   0.257
83775SOL    HW253223   3.311   6.324   0.153
83776SOL     OW53224  11.839   6.940  14.697
83776SOL    HW153225  11.775   6.870  14.707
83776SOL    HW253226  11.845   6.953  14.602
83777SOL     OW53227   5.246   0.500   0.618
83777SOL    HW153228   5.171   0.472   0.565
83777SOL    HW253229   5.234   0.456   0.702
83778SOL     OW53230   3.236  11.161   0.625
83778SOL    HW153231   3.144  11.184   0.638
83778SOL    HW253232   3.242  11.069   0.649
83779SOL     OW53233   6.185  10.564   4.109
83779SOL    HW153234   6.176  10.529   4.021
83779SOL    HW253235   6.117  10.519   4.160
83780SOL     OW53236  14.881   2.424  11.053
83780SOL    HW153237  14.807   2.483  11.050
83780SOL    HW253238  14.853   2.348  11.002
83781SOL     OW53239   6.256   8.894  10.949
83781SOL    HW153240   6.227   8.806  10.925
83781SOL    HW253241   6.196   8.952  10.902
83782SOL     OW53242   2.839   6.524   9.947
83782SOL    HW153243   2.769   6.553   9.889
83782SOL    HW253244   2.873   6.444   9.906
83783SOL     OW53245   2.276   5.722   8.340
83783SOL    HW153246   2.313   5.638   8.314
83783SOL    HW253247   2.216   5.701   8.411
83784SOL     OW53248  13.561   6.402  14.140
83784SOL    HW153249  13.546   6.457  14.064
83784SOL    HW253250  13.534   6.456  14.215
83785SOL     OW53251   2.386   0.726   9.612
83785SOL    HW153252   2.417   0.636   9.621
83785SOL    HW253253   2.332   0.725   9.534
83786SOL     OW53254   7.226   2.613   2.925
83786SOL    HW153255   7.209   2.548   2.993
83786SOL    HW253256   7.283   2.677   2.967
83787SOL     OW53257  14.256   2.807   5.422
83787SOL    HW153258  14.300   2.824   5.504
83787SOL    HW253259  14.289   2.874   5.362
83788SOL     OW53260  14.307   3.100   6.332
83788SOL    HW153261  14.294   3.055   6.248
83788SOL    HW253262  14.379   3.054   6.373
83789SOL     OW53263   3.727   2.869   1.409
83789SOL    HW153264   3.682   2.788   1.383
83789SOL    HW253265   3.657   2.926   1.440
83790SOL     OW53266  10.932   4.146   0.571
83790SOL    HW153267  10.990   4.169   0.643
83790SOL    HW253268  10.991   4.134   0.496
83791SOL     OW53269  14.101   3.929  14.350
83791SOL    HW153270  14.011   3.963  14.349
83791SOL    HW253271  14.156   4.005  14.331
83792SOL     OW53272   1.315   6.583  12.320
83792SOL    HW153273   1.243   6.579  12.257
83792SOL    HW253274   1.393   6.599  12.267
83793SOL     OW53275  10.179  12.021   5.319
83793SOL    HW153276  10.252  12.075   5.349
83793SOL    HW253277  10.107  12.042   5.378
83794SOL     OW53278  13.904  12.096  11.270
83794SOL    HW153279  13.956  12.046  11.333
83794SOL    HW253280  13.962  12.166  11.242
83795SOL     OW53281   7.486  12.775  12.685
83795SOL    HW153282   7.539  12.701  12.717
83795SOL    HW253283   7.530  12.852  12.721
83796SOL     OW53284   8.930   0.689  10.135
83796SOL    HW153285   8.978   0.768  10.112
83796SOL    HW253286   8.843   0.702  10.098
83797SOL     OW53287   6.790  13.123   7.216
83797SOL    HW153288   6.725  13.181   7.256
83797SOL    HW253289   6.786  13.043   7.268
83798SOL     OW53290  14.180  13.000   8.181
83798SOL    HW153291  14.157  13.091   8.198
83798SOL    HW253292  14.167  12.956   8.266
83799SOL     OW53293  13.377   7.471  11.193
83799SOL    HW153294  13.337   7.510  11.115
83799SOL    HW253295  13.463   7.440  11.164
83800SOL     OW53296   0.377   9.072   8.221
83800SOL    HW153297   0.294   9.109   8.193
83800SOL    HW253298   0.393   9.000   8.160
83801SOL     OW53299   8.487  13.438   9.008
83801SOL    HW153300   8.479  13.526   9.045
83801SOL    HW253301   8.535  13.450   8.927
83802SOL     OW53302   2.909  11.690  10.538
83802SOL    HW153303   2.846  11.618  10.542
83802SOL    HW253304   2.884  11.748  10.610
83803SOL     OW53305   3.774   3.030   8.370
83803SOL    HW153306   3.820   2.956   8.331
83803SOL    HW253307   3.832   3.105   8.354
83804SOL     OW53308   5.552   5.320   6.777
83804SOL    HW153309   5.501   5.365   6.710
83804SOL    HW253310   5.554   5.228   6.749
83805SOL     OW53311   0.467  12.116  10.382
83805SOL    HW153312   0.547  12.083  10.341
83805SOL    HW253313   0.439  12.046  10.441
83806SOL     OW53314  12.339  14.452   8.419
83806SOL    HW153315  12.366  14.404   8.497
83806SOL    HW253316  12.420  14.494   8.388
83807SOL     OW53317   8.537   6.488   9.048
83807SOL    HW153318   8.627   6.455   9.052
83807SOL    HW253319   8.542   6.565   8.992
83808SOL     OW53320   5.352   2.660   1.680
83808SOL    HW153321   5.392   2.582   1.719
83808SOL    HW253322   5.300   2.698   1.751
83809SOL     OW53323   1.128   1.068  12.807
83809SOL    HW153324   1.054   1.036  12.756
83809SOL    HW253325   1.205   1.045  12.756
83810SOL     OW53326   1.705   8.319  11.995
83810SOL    HW153327   1.690   8.332  12.089
83810SOL    HW253328   1.800   8.317  11.986
83811SOL     OW53329   1.481   7.881  11.900
83811SOL    HW153330   1.512   7.928  11.823
83811SOL    HW253331   1.528   7.798  11.898
83812SOL     OW53332  12.820   5.795   0.945
83812SOL    HW153333  12.763   5.722   0.968
83812SOL    HW253334  12.801   5.863   1.009
83813SOL     OW53335   6.793   8.632  14.383
83813SOL    HW153336   6.874   8.640  14.433
83813SOL    HW253337   6.728   8.679  14.435
83814SOL     OW53338   9.531   2.070   7.840
83814SOL    HW153339   9.587   2.141   7.809
83814SOL    HW253340   9.442   2.099   7.819
83815SOL     OW53341   0.528   9.430   4.132
83815SOL    HW153342   0.613   9.410   4.172
83815SOL    HW253343   0.490   9.496   4.190
83816SOL     OW53344   7.501   5.476   7.919
83816SOL    HW153345   7.542   5.389   7.927
83816SOL    HW253346   7.506   5.497   7.826
83817SOL     OW53347  10.464   6.557   0.289
83817SOL    HW153348  10.558   6.562   0.305
83817SOL    HW253349  10.426   6.627   0.343
83818SOL     OW53350   0.832  11.119  12.782
83818SOL    HW153351   0.873  11.190  12.733
83818SOL    HW253352   0.861  11.039  12.737
83819SOL     OW53353   8.960   3.132   7.062
83819SOL    HW153354   9.032   3.194   7.060
83819SOL    HW253355   8.959   3.099   7.152
83820SOL     OW53356   0.347   8.032  13.884
83820SOL    HW153357   0.290   8.099  13.921
83820SOL    HW253358   0.289   7.982  13.825
83821SOL     OW53359  11.816   3.476   8.377
83821SOL    HW153360  11.800   3.535   8.451
83821SOL    HW253361  11.821   3.389   8.416
83822SOL     OW53362   2.467   2.628   8.948
83822SOL    HW153363   2.414   2.550   8.931
83822SOL    HW253364   2.550   2.595   8.981
83823SOL     OW53365   8.517  13.730   7.381
83823SOL    HW153366   8.535  13.727   7.287
83823SOL    HW253367   8.507  13.638   7.407
83824SOL     OW53368   0.810  11.336   3.869
83824SOL    HW153369   0.853  11.422   3.868
83824SOL    HW253370   0.785  11.322   3.777
83825SOL     OW53371  14.211   5.514  13.924
83825SOL    HW153372  14.149   5.567  13.974
83825SOL    HW253373  14.162   5.486  13.847
83826SOL     OW53374   8.328   3.330   8.161
83826SOL    HW153375   8.377   3.321   8.242
83826SOL    HW253376   8.269   3.255   8.160
83827SOL     OW53377  12.231   8.474   1.978
83827SOL    HW153378  12.264   8.561   1.956
83827SOL    HW253379  12.138   8.476   1.954
83828SOL     OW53380  10.961  12.423   7.782
83828SOL    HW153381  11.013  12.350   7.816
83828SOL    HW253382  10.925  12.391   7.699
83829SOL     OW53383   9.477   2.846   0.676
83829SOL    HW153384   9.503   2.937   0.684
83829SOL    HW253385   9.447   2.821   0.763
83830SOL     OW53386   2.214   3.565   1.779
83830SOL    HW153387   2.175   3.603   1.858
83830SOL    HW253388   2.298   3.609   1.770
83831SOL     OW53389   2.640  10.822  12.262
83831SOL    HW153390   2.647  10.742  12.212
83831SOL    HW253391   2.552  10.856  12.243
83832SOL     OW53392   2.805   1.132  12.553
83832SOL    HW153393   2.821   1.044  12.588
83832SOL    HW253394   2.714   1.131  12.524
83833SOL     OW53395   1.144  12.701  14.871
83833SOL    HW153396   1.089  12.653  14.809
83833SOL    HW253397   1.217  12.733  14.819
83834SOL     OW53398   0.085   0.091   9.825
83834SOL    HW153399   0.036   0.147   9.885
83834SOL    HW253400   0.173   0.085   9.863
83835SOL     OW53401  14.519   0.488  10.336
83835SOL    HW153402  14.432   0.482  10.375
83835SOL    HW253403  14.515   0.429  10.260
83836SOL     OW53404   3.475  13.992  13.487
83836SOL    HW153405   3.482  14.070  13.432
83836SOL    HW253406   3.560  13.949  13.478
83837SOL     OW53407   6.251   1.376  14.878
83837SOL    HW153408   6.264   1.407  14.788
83837SOL    HW253409   6.305   1.297   0.001
83838SOL     OW53410   3.439  10.638  12.432
83838SOL    HW153411   3.448  10.600  12.519
83838SOL    HW253412   3.499  10.588  12.377
83839SOL     OW53413  14.723   9.901   0.976
83839SOL    HW153414  14.691   9.825   1.024
83839SOL    HW253415  14.819   9.892   0.977
83840SOL     OW53416   2.112   0.471   9.935
83840SOL    HW153417   2.064   0.410   9.990
83840SOL    HW253418   2.192   0.491   9.983
83841SOL     OW53419   2.059  12.310   6.052
83841SOL    HW153420   2.024  12.396   6.075
83841SOL    HW253421   2.147  12.310   6.089
83842SOL     OW53422  13.690   4.932  14.494
83842SOL    HW153423  13.639   4.957  14.571
83842SOL    HW253424  13.779   4.922  14.526
83843SOL     OW53425   5.462   7.328   7.834
83843SOL    HW153426   5.483   7.371   7.918
83843SOL    HW253427   5.404   7.390   7.790
83844SOL     OW53428  10.743   3.469   3.056
83844SOL    HW153429  10.662   3.437   3.095
83844SOL    HW253430  10.802   3.394   3.056
83845SOL     OW53431   6.944   5.836   6.842
83845SOL    HW153432   6.858   5.869   6.819
83845SOL    HW253433   6.967   5.882   6.922
83846SOL     OW53434  10.485   3.695   1.123
83846SOL    HW153435  10.518   3.605   1.113
83846SOL    HW253436  10.395   3.690   1.092
83847SOL     OW53437   8.974   4.600   1.350
83847SOL    HW153438   8.907   4.660   1.383
83847SOL    HW253439   8.965   4.605   1.255
83848SOL     OW53440   0.686   7.215   6.271
83848SOL    HW153441   0.694   7.119   6.266
83848SOL    HW253442   0.618   7.237   6.208
83849SOL     OW53443   9.478  13.728   9.663
83849SOL    HW153444   9.401  13.785   9.656
83849SOL    HW253445   9.479  13.701   9.755
83850SOL     OW53446   5.373   8.710   3.163
83850SOL    HW153447   5.453   8.680   3.208
83850SOL    HW253448   5.399   8.722   3.072
83851SOL     OW53449   5.512   7.319   3.830
83851SOL    HW153450   5.431   7.370   3.825
83851SOL    HW253451   5.571   7.361   3.768
83852SOL     OW53452   3.256  13.641   7.035
83852SOL    HW153453   3.246  13.612   7.125
83852SOL    HW253454   3.346  13.617   7.012
83853SOL     OW53455  14.605   8.587  12.399
83853SOL    HW153456  14.629   8.653  12.334
83853SOL    HW253457  14.638   8.621  12.482
83854SOL     OW53458   6.934   0.901   2.578
83854SOL    HW153459   6.984   0.973   2.616
83854SOL    HW253460   6.912   0.846   2.653
83855SOL     OW53461  10.269   2.226   8.123
83855SOL    HW153462  10.327   2.300   8.142
83855SOL    HW253463  10.248   2.234   8.030
83856SOL     OW53464   0.897   0.394  14.339
83856SOL    HW153465   0.935   0.307  14.325
83856SOL    HW253466   0.970   0.447  14.370
83857SOL     OW53467  12.699   7.735   5.796
83857SOL    HW153468  12.682   7.641   5.796
83857SOL    HW253469  12.722   7.755   5.887
83858SOL     OW53470   4.465   1.340  10.836
83858SOL    HW153471   4.488   1.422  10.793
83858SOL    HW253472   4.463   1.361  10.930
83859SOL     OW53473   5.380   8.120   8.873
83859SOL    HW153474   5.413   8.146   8.788
83859SOL    HW253475   5.454   8.132   8.933
83860SOL     OW53476   5.655   2.485   1.932
83860SOL    HW153477   5.674   2.458   1.842
83860SOL    HW253478   5.647   2.403   1.980
83861SOL     OW53479   3.796   2.890  13.807
83861SOL    HW153480   3.752   2.851  13.882
83861SOL    HW253481   3.859   2.823  13.778
83862SOL     OW53482  12.867   2.312   7.585
83862SOL    HW153483  12.777   2.314   7.617
83862SOL    HW253484  12.859   2.313   7.490
83863SOL     OW53485   0.296  11.706   8.590
83863SOL    HW153486   0.348  11.631   8.619
83863SOL    HW253487   0.207  11.684   8.616
83864SOL     OW53488  14.065  10.160  10.509
83864SOL    HW153489  14.068  10.104  10.431
83864SOL    HW253490  14.008  10.113  10.570
83865SOL     OW53491  11.001   2.118  11.774
83865SOL    HW153492  11.012   2.204  11.733
83865SOL    HW253493  10.999   2.137  11.868
83866SOL     OW53494   8.130   9.664   5.832
83866SOL    HW153495   8.060   9.608   5.866
83866SOL    HW253496   8.086   9.722   5.770
83867SOL     OW53497  13.446   2.582   1.465
83867SOL    HW153498  13.434   2.617   1.553
83867SOL    HW253499  13.379   2.624   1.412
83868SOL     OW53500   2.398  12.220  10.309
83868SOL    HW153501   2.402  12.244  10.401
83868SOL    HW253502   2.315  12.256  10.278
83869SOL     OW53503  13.835   9.836  12.534
83869SOL    HW153504  13.910   9.868  12.483
83869SOL    HW253505  13.783   9.914  12.551
83870SOL     OW53506   2.594   3.892  10.869
83870SOL    HW153507   2.568   3.976  10.907
83870SOL    HW253508   2.673   3.913  10.819
83871SOL     OW53509  11.691  10.547   6.283
83871SOL    HW153510  11.616  10.541   6.223
83871SOL    HW253511  11.765  10.513   6.233
83872SOL     OW53512   8.156   7.729   8.189
83872SOL    HW153513   8.149   7.649   8.242
83872SOL    HW253514   8.084   7.784   8.220
83873SOL     OW53515   3.089  12.446  10.410
83873SOL    HW153516   3.102  12.539  10.388
83873SOL    HW253517   3.119  12.439  10.500
83874SOL     OW53518   1.313   4.273   8.891
83874SOL    HW153519   1.408   4.288   8.894
83874SOL    HW253520   1.276   4.341   8.946
83875SOL     OW53521   0.184  10.837   4.679
83875SOL    HW153522   0.166  10.784   4.601
83875SOL    HW253523   0.103  10.834   4.730
83876SOL     OW53524   5.689   2.861   1.305
83876SOL    HW153525   5.749   2.786   1.302
83876SOL    HW253526   5.647   2.855   1.390
83877SOL     OW53527  11.821   1.281   0.572
83877SOL    HW153528  11.915   1.288   0.591
83877SOL    HW253529  11.781   1.262   0.657
83878SOL     OW53530   2.804   3.774  10.282
83878SOL    HW153531   2.738   3.734  10.225
83878SOL    HW253532   2.753   3.826  10.345
83879SOL     OW53533   4.729  14.784  13.030
83879SOL    HW153534   4.683  14.851  12.980
83879SOL    HW253535   4.660  14.733  13.071
83880SOL     OW53536   4.436  12.947   0.617
83880SOL    HW153537   4.430  13.019   0.555
83880SOL    HW253538   4.407  12.870   0.567
83881SOL     OW53539   0.217   0.819  11.025
83881SOL    HW153540   0.180   0.738  11.060
83881SOL    HW253541   0.148   0.885  11.037
83882SOL     OW53542  14.782  14.405   4.873
83882SOL    HW153543  14.808  14.400   4.965
83882SOL    HW253544  14.860  14.434   4.827
83883SOL     OW53545   5.460   4.969   6.194
83883SOL    HW153546   5.422   4.883   6.173
83883SOL    HW253547   5.495   5.000   6.111
83884SOL     OW53548   2.581   0.321   9.923
83884SOL    HW153549   2.521   0.285   9.988
83884SOL    HW253550   2.524   0.354   9.853
83885SOL     OW53551  13.002   2.146   3.072
83885SOL    HW153552  12.943   2.076   3.048
83885SOL    HW253553  13.087   2.103   3.086
83886SOL     OW53554   6.031   0.556   6.538
83886SOL    HW153555   6.069   0.542   6.451
83886SOL    HW253556   6.043   0.473   6.583
83887SOL     OW53557   5.043  12.875  13.196
83887SOL    HW153558   5.006  12.791  13.170
83887SOL    HW253559   4.984  12.940  13.158
83888SOL     OW53560   1.232   3.261  11.841
83888SOL    HW153561   1.250   3.243  11.934
83888SOL    HW253562   1.140   3.238  11.829
83889SOL     OW53563   8.094   1.490   3.956
83889SOL    HW153564   8.109   1.558   4.022
83889SOL    HW253565   8.174   1.490   3.904
83890SOL     OW53566  11.818   9.800  13.962
83890SOL    HW153567  11.911   9.817  13.975
83890SOL    HW253568  11.799   9.724  14.017
83891SOL     OW53569   5.112  12.547   5.546
83891SOL    HW153570   5.165  12.506   5.479
83891SOL    HW253571   5.168  12.616   5.583
83892SOL     OW53572   4.751  14.186  14.598
83892SOL    HW153573   4.807  14.226  14.665
83892SOL    HW253574   4.811  14.141  14.540
83893SOL     OW53575   5.708   8.126   3.438
83893SOL    HW153576   5.768   8.176   3.383
83893SOL    HW253577   5.701   8.041   3.394
83894SOL     OW53578   8.006   3.532   9.870
83894SOL    HW153579   7.936   3.586   9.833
83894SOL    HW253580   7.986   3.443   9.840
83895SOL     OW53581   9.585   4.397   0.420
83895SOL    HW153582   9.538   4.347   0.353
83895SOL    HW253583   9.668   4.350   0.430
83896SOL     OW53584  13.101   8.487  12.590
83896SOL    HW153585  13.102   8.580  12.566
83896SOL    HW253586  13.009   8.461  12.582
83897SOL     OW53587  12.586   2.695  12.699
83897SOL    HW153588  12.581   2.653  12.613
83897SOL    HW253589  12.576   2.623  12.761
83898SOL     OW53590  11.353   2.442   8.791
83898SOL    HW153591  11.361   2.533   8.761
83898SOL    HW253592  11.267   2.414   8.760
83899SOL     OW53593  12.526   2.039   9.425
83899SOL    HW153594  12.583   2.035   9.501
83899SOL    HW253595  12.496   2.130   9.422
83900SOL     OW53596   2.180   5.112   1.984
83900SOL    HW153597   2.220   5.064   2.057
83900SOL    HW253598   2.228   5.194   1.981
83901SOL     OW53599   1.273   1.452   6.670
83901SOL    HW153600   1.266   1.547   6.683
83901SOL    HW253601   1.344   1.442   6.607
83902SOL     OW53602   4.256   7.062   8.850
83902SOL    HW153603   4.164   7.037   8.842
83902SOL    HW253604   4.261   7.150   8.811
83903SOL     OW53605   0.969   5.313   3.872
83903SOL    HW153606   1.060   5.283   3.865
83903SOL    HW253607   0.938   5.316   3.781
83904SOL     OW53608   2.072  11.977   4.224
83904SOL    HW153609   2.056  12.066   4.191
83904SOL    HW253610   2.159  11.955   4.189
83905SOL     OW53611  11.563   4.625   9.865
83905SOL    HW153612  11.530   4.710   9.835
83905SOL    HW253613  11.626   4.647   9.934
83906SOL     OW53614   2.100  14.632   5.438
83906SOL    HW153615   2.093  14.727   5.425
83906SOL    HW253616   2.046  14.615   5.514
83907SOL     OW53617  14.117   4.217   1.137
83907SOL    HW153618  14.135   4.272   1.213
83907SOL    HW253619  14.199   4.217   1.087
83908SOL     OW53620   9.448  10.436  10.575
83908SOL    HW153621   9.401  10.367  10.621
83908SOL    HW253622   9.540  10.422  10.598
83909SOL     OW53623   5.575   2.481   4.242
83909SOL    HW153624   5.650   2.518   4.289
83909SOL    HW253625   5.563   2.539   4.167
83910SOL     OW53626  13.232   6.757   8.765
83910SOL    HW153627  13.242   6.747   8.670
83910SOL    HW253628  13.271   6.677   8.802
83911SOL     OW53629   8.761   4.666  13.689
83911SOL    HW153630   8.699   4.654  13.616
83911SOL    HW253631   8.705   4.685  13.764
83912SOL     OW53632   4.537  12.268  10.086
83912SOL    HW153633   4.454  12.313  10.072
83912SOL    HW253634   4.548  12.212  10.009
83913SOL     OW53635  11.848   1.351   5.531
83913SOL    HW153636  11.806   1.268   5.553
83913SOL    HW253637  11.800   1.384   5.456
83914SOL     OW53638   0.534   7.549  13.333
83914SOL    HW153639   0.592   7.495  13.279
83914SOL    HW253640   0.484   7.601  13.271
83915SOL     OW53641   4.182  12.180   3.875
83915SOL    HW153642   4.217  12.118   3.939
83915SOL    HW253643   4.094  12.199   3.905
83916SOL     OW53644   5.028  12.576   0.246
83916SOL    HW153645   5.100  12.571   0.182
83916SOL    HW253646   5.066  12.541   0.327
83917SOL     OW53647  12.938   6.156   4.745
83917SOL    HW153648  12.915   6.078   4.695
83917SOL    HW253649  12.899   6.228   4.695
83918SOL     OW53650  13.169   7.413   5.831
83918SOL    HW153651  13.075   7.427   5.843
83918SOL    HW253652  13.209   7.498   5.848
83919SOL     OW53653  12.984   2.891   6.304
83919SOL    HW153654  12.966   2.936   6.221
83919SOL    HW253655  12.897   2.871   6.339
83920SOL     OW53656   4.032   0.859   2.540
83920SOL    HW153657   4.003   0.935   2.491
83920SOL    HW253658   4.118   0.884   2.575
83921SOL     OW53659   5.526  10.319  11.369
83921SOL    HW153660   5.544  10.367  11.288
83921SOL    HW253661   5.592  10.351  11.431
83922SOL     OW53662  11.536   6.494   6.766
83922SOL    HW153663  11.493   6.410   6.750
83922SOL    HW253664  11.472   6.544   6.818
83923SOL     OW53665   3.384  14.735   9.764
83923SOL    HW153666   3.375  14.658   9.820
83923SOL    HW253667   3.380  14.809   9.825
83924SOL     OW53668   5.661   6.676   1.706
83924SOL    HW153669   5.717   6.604   1.734
83924SOL    HW253670   5.609   6.639   1.635
83925SOL     OW53671  11.881   8.361  11.642
83925SOL    HW153672  11.847   8.332  11.558
83925SOL    HW253673  11.838   8.304  11.706
83926SOL     OW53674  10.299   8.710   5.204
83926SOL    HW153675  10.307   8.702   5.299
83926SOL    HW253676  10.208   8.736   5.190
83927SOL     OW53677   3.168   1.428   4.757
83927SOL    HW153678   3.203   1.462   4.840
83927SOL    HW253679   3.185   1.498   4.694
83928SOL     OW53680   1.582  10.206   5.917
83928SOL    HW153681   1.532  10.260   5.979
83928SOL    HW253682   1.623  10.139   5.972
83929SOL     OW53683  13.975   6.152  10.694
83929SOL    HW153684  14.035   6.213  10.737
83929SOL    HW253685  13.891   6.199  10.693
83930SOL     OW53686   4.229   5.923   1.051
83930SOL    HW153687   4.194   5.868   1.121
83930SOL    HW253688   4.151   5.949   1.001
83931SOL     OW53689  10.426  12.313   4.371
83931SOL    HW153690  10.495  12.334   4.434
83931SOL    HW253691  10.368  12.389   4.373
83932SOL     OW53692   8.886   6.488   7.905
83932SOL    HW153693   8.862   6.539   7.982
83932SOL    HW253694   8.803   6.468   7.862
83933SOL     OW53695  14.850  11.862   7.565
83933SOL    HW153696  14.857  11.956   7.548
83933SOL    HW253697  14.840  11.855   7.660
83934SOL     OW53698  10.346   1.766   7.417
83934SOL    HW153699  10.259   1.731   7.398
83934SOL    HW253700  10.400   1.738   7.343
83935SOL     OW53701   5.030   7.927   2.985
83935SOL    HW153702   5.016   7.998   3.048
83935SOL    HW253703   5.060   7.972   2.905
83936SOL     OW53704   0.828   2.140  14.210
83936SOL    HW153705   0.761   2.099  14.264
83936SOL    HW253706   0.836   2.229  14.246
83937SOL     OW53707  12.299   9.917  11.815
83937SOL    HW153708  12.385   9.876  11.807
83937SOL    HW253709  12.302   9.962  11.900
83938SOL     OW53710   8.388   6.945   2.984
83938SOL    HW153711   8.433   6.999   3.049
83938SOL    HW253712   8.379   6.859   3.025
83939SOL     OW53713   5.264   7.846  13.086
83939SOL    HW153714   5.254   7.772  13.026
83939SOL    HW253715   5.180   7.891  13.083
83940SOL     OW53716  12.301   8.639   3.604
83940SOL    HW153717  12.384   8.686   3.604
83940SOL    HW253718  12.307   8.580   3.529
83941SOL     OW53719   3.815  14.062  12.437
83941SOL    HW153720   3.852  14.108  12.362
83941SOL    HW253721   3.889  14.020  12.479
83942SOL     OW53722  11.558  12.578   8.112
83942SOL    HW153723  11.529  12.631   8.038
83942SOL    HW253724  11.653  12.582   8.109
83943SOL     OW53725   0.049  11.636   1.262
83943SOL    HW153726   0.137  11.671   1.272
83943SOL    HW253727   0.006  11.657   1.345
83944SOL     OW53728  12.362  14.473   1.169
83944SOL    HW153729  12.318  14.512   1.245
83944SOL    HW253730  12.440  14.431   1.206
83945SOL     OW53731  12.367   1.350   6.593
83945SOL    HW153732  12.308   1.385   6.526
83945SOL    HW253733  12.316   1.352   6.674
83946SOL     OW53734  13.487  14.877   8.369
83946SOL    HW153735  13.476  14.834   8.453
83946SOL    HW253736  13.539   0.073   8.388
83947SOL     OW53737   4.170  11.180  12.950
83947SOL    HW153738   4.125  11.201  12.868
83947SOL    HW253739   4.157  11.086  12.961
83948SOL     OW53740   3.377   8.862  12.050
83948SOL    HW153741   3.347   8.903  12.131
83948SOL    HW253742   3.442   8.923  12.015
83949SOL     OW53743   3.714   5.255  10.321
83949SOL    HW153744   3.800   5.297  10.313
83949SOL    HW253745   3.652   5.328  10.327
83950SOL     OW53746   4.124   2.396   7.694
83950SOL    HW153747   4.073   2.325   7.655
83950SOL    HW253748   4.086   2.408   7.781
83951SOL     OW53749   4.950  12.850   3.401
83951SOL    HW153750   4.988  12.762   3.400
83951SOL    HW253751   4.995  12.895   3.473
83952SOL     OW53752   6.681  11.691   2.911
83952SOL    HW153753   6.597  11.649   2.892
83952SOL    HW253754   6.707  11.731   2.828
83953SOL     OW53755  12.729   4.426  10.937
83953SOL    HW153756  12.665   4.394  10.873
83953SOL    HW253757  12.678   4.443  11.016
83954SOL     OW53758   3.066   4.771   9.244
83954SOL    HW153759   3.072   4.855   9.288
83954SOL    HW253760   3.045   4.709   9.313
83955SOL     OW53761   0.167   2.599  14.186
83955SOL    HW153762   0.153   2.578  14.093
83955SOL    HW253763   0.128   2.526  14.233
83956SOL     OW53764  13.854   3.581   2.581
83956SOL    HW153765  13.796   3.546   2.514
83956SOL    HW253766  13.931   3.525   2.578
83957SOL     OW53767   1.342   9.052   2.353
83957SOL    HW153768   1.424   9.006   2.335
83957SOL    HW253769   1.340   9.123   2.288
83958SOL     OW53770   2.768   9.324   0.968
83958SOL    HW153771   2.706   9.387   0.933
83958SOL    HW253772   2.850   9.341   0.921
83959SOL     OW53773  12.395   1.433   1.239
83959SOL    HW153774  12.345   1.440   1.320
83959SOL    HW253775  12.397   1.521   1.203
83960SOL     OW53776  13.457  11.959   6.793
83960SOL    HW153777  13.535  11.931   6.841
83960SOL    HW253778  13.487  11.974   6.704
83961SOL     OW53779   5.672  10.796  10.066
83961SOL    HW153780   5.754  10.808  10.019
83961SOL    HW253781   5.609  10.773   9.998
83962SOL     OW53782  13.412   1.668   8.796
83962SOL    HW153783  13.493   1.640   8.837
83962SOL    HW253784  13.359   1.703   8.868
83963SOL     OW53785   9.089   3.820  14.808
83963SOL    HW153786   9.042   3.887  14.759
83963SOL    HW253787   9.129   3.867  14.881
83964SOL     OW53788   1.895   2.816  13.515
83964SOL    HW153789   1.838   2.892  13.500
83964SOL    HW253790   1.958   2.819  13.443
83965SOL     OW53791   7.341   8.776   6.660
83965SOL    HW153792   7.375   8.807   6.745
83965SOL    HW253793   7.256   8.739   6.681
83966SOL     OW53794  14.139   6.379   5.276
83966SOL    HW153795  14.059   6.328   5.290
83966SOL    HW253796  14.175   6.392   5.363
83967SOL     OW53797   4.046  12.103   8.801
83967SOL    HW153798   4.040  12.136   8.711
83967SOL    HW253799   4.127  12.052   8.803
83968SOL     OW53800   7.513   5.362   5.306
83968SOL    HW153801   7.487   5.450   5.278
83968SOL    HW253802   7.514   5.310   5.225
83969SOL     OW53803  13.140   2.258   3.607
83969SOL    HW153804  13.191   2.179   3.587
83969SOL    HW253805  13.051   2.237   3.580
83970SOL     OW53806   1.882   4.669   3.317
83970SOL    HW153807   1.877   4.706   3.229
83970SOL    HW253808   1.967   4.699   3.350
83971SOL     OW53809   8.863   2.338   1.273
83971SOL    HW153810   8.880   2.418   1.322
83971SOL    HW253811   8.881   2.361   1.182
83972SOL     OW53812  11.878  11.149   7.962
83972SOL    HW153813  11.879  11.240   7.993
83972SOL    HW253814  11.789  11.137   7.929
83973SOL     OW53815  11.484  13.342   9.185
83973SOL    HW153816  11.392  13.365   9.169
83973SOL    HW253817  11.529  13.365   9.104
83974SOL     OW53818  14.872   3.075  13.821
83974SOL    HW153819   0.073   3.027  13.818
83974SOL    HW253820  14.849   3.088  13.729
83975SOL     OW53821   5.515  12.062   1.300
83975SOL    HW153822   5.552  12.127   1.359
83975SOL    HW253823   5.534  11.978   1.341
83976SOL     OW53824   7.359  10.337   9.594
83976SOL    HW153825   7.453  10.325   9.610
83976SOL    HW253826   7.327  10.382   9.672
83977SOL     OW53827   2.356  10.534  11.603
83977SOL    HW153828   2.378  10.499  11.689
83977SOL    HW253829   2.280  10.482  11.575
83978SOL     OW53830   7.028   3.170  11.454
83978SOL    HW153831   6.981   3.180  11.372
83978SOL    HW253832   6.999   3.243  11.508
83979SOL     OW53833   0.664  10.113   2.454
83979SOL    HW153834   0.646  10.027   2.492
83979SOL    HW253835   0.579  10.146   2.426
83980SOL     OW53836   9.309   2.119   3.154
83980SOL    HW153837   9.363   2.164   3.089
83980SOL    HW253838   9.295   2.032   3.116
83981SOL     OW53839  13.090  10.535   0.632
83981SOL    HW153840  13.140  10.616   0.642
83981SOL    HW253841  13.000  10.563   0.619
83982SOL     OW53842   0.921  10.609   2.239
83982SOL    HW153843   0.955  10.675   2.178
83982SOL    HW253844   0.831  10.594   2.209
83983SOL     OW53845  12.115  12.812  14.343
83983SOL    HW153846  12.207  12.794  14.323
83983SOL    HW253847  12.075  12.726  14.351
83984SOL     OW53848  10.360  10.997  10.243
83984SOL    HW153849  10.391  10.960  10.161
83984SOL    HW253850  10.436  10.995  10.301
83985SOL     OW53851   2.208   1.177  12.403
83985SOL    HW153852   2.171   1.089  12.406
83985SOL    HW253853   2.139   1.231  12.365
83986SOL     OW53854  11.395   0.522   2.904
83986SOL    HW153855  11.411   0.603   2.953
83986SOL    HW253856  11.350   0.465   2.967
83987SOL     OW53857  10.463   3.643  13.811
83987SOL    HW153858  10.463   3.564  13.865
83987SOL    HW253859  10.387   3.632  13.753
83988SOL     OW53860  10.574   7.343  12.831
83988SOL    HW153861  10.583   7.254  12.796
83988SOL    HW253862  10.521   7.389  12.765
83989SOL     OW53863  13.498   7.154   9.925
83989SOL    HW153864  13.416   7.117   9.957
83989SOL    HW253865  13.528   7.211   9.995
83990SOL     OW53866   8.849   1.652   6.681
83990SOL    HW153867   8.806   1.581   6.728
83990SOL    HW253868   8.937   1.620   6.663
83991SOL     OW53869   8.443   4.696   5.817
83991SOL    HW153870   8.503   4.629   5.850
83991SOL    HW253871   8.438   4.761   5.886
83992SOL     OW53872   6.796   1.442   2.134
83992SOL    HW153873   6.797   1.527   2.090
83992SOL    HW253874   6.886   1.429   2.163
83993SOL     OW53875  13.550   0.619   3.148
83993SOL    HW153876  13.578   0.609   3.057
83993SOL    HW253877  13.473   0.563   3.155
83994SOL     OW53878   5.866   1.538   8.190
83994SOL    HW153879   5.889   1.627   8.164
83994SOL    HW253880   5.894   1.483   8.117
83995SOL     OW53881  14.132   5.927  11.933
83995SOL    HW153882  14.168   5.855  11.881
83995SOL    HW253883  14.105   5.885  12.015
83996SOL     OW53884   2.505   5.174  11.307
83996SOL    HW153885   2.574   5.145  11.368
83996SOL    HW253886   2.540   5.153  11.220
83997SOL     OW53887  14.515   2.506   3.804
83997SOL    HW153888  14.603   2.476   3.825
83997SOL    HW253889  14.466   2.499   3.887
83998SOL     OW53890   8.461   1.840   7.997
83998SOL    HW153891   8.503   1.759   7.969
83998SOL    HW253892   8.500   1.859   8.082
83999SOL     OW53893   4.673   6.342   5.598
83999SOL    HW153894   4.741   6.400   5.564
83999SOL    HW253895   4.660   6.372   5.689
84000SOL     OW53896   9.163   0.396   6.617
84000SOL    HW153897   9.179   0.489   6.599
84000SOL    HW253898   9.228   0.350   6.563
84001SOL     OW53899   0.022  12.393  13.124
84001SOL    HW153900   0.015  12.482  13.159
84001SOL    HW253901  14.881  12.402  13.032
84002SOL     OW53902   1.354   1.639   0.553
84002SOL    HW153903   1.349   1.554   0.509
84002SOL    HW253904   1.378   1.700   0.483
84003SOL     OW53905   1.528   4.752   6.280
84003SOL    HW153906   1.448   4.709   6.250
84003SOL    HW253907   1.525   4.743   6.376
84004SOL     OW53908  12.545   6.593   9.129
84004SOL    HW153909  12.497   6.521   9.169
84004SOL    HW253910  12.481   6.664   9.123
84005SOL     OW53911   7.521  14.812   5.170
84005SOL    HW153912   7.457  14.881   5.187
84005SOL    HW253913   7.604  14.848   5.203
84006SOL     OW53914   1.379   2.339  14.595
84006SOL    HW153915   1.387   2.254  14.552
84006SOL    HW253916   1.453   2.389  14.562
84007SOL     OW53917   1.219   7.974  11.928
84007SOL    HW153918   1.175   7.898  11.891
84007SOL    HW253919   1.311   7.964  11.903
84008SOL     OW53920   3.030  13.076   8.160
84008SOL    HW153921   3.084  13.147   8.193
84008SOL    HW253922   3.036  13.084   8.065
84009SOL     OW53923   8.533   1.323  10.280
84009SOL    HW153924   8.464   1.259  10.294
84009SOL    HW253925   8.614   1.271  10.278
84010SOL     OW53926   5.013   4.791  11.038
84010SOL    HW153927   5.025   4.710  11.087
84010SOL    HW253928   5.102   4.823  11.021
84011SOL     OW53929   3.509   8.712  11.077
84011SOL    HW153930   3.414   8.719  11.072
84011SOL    HW253931   3.525   8.621  11.102
84012SOL     OW53932  12.799  13.928   0.259
84012SOL    HW153933  12.725  13.871   0.280
84012SOL    HW253934  12.783  14.007   0.311
84013SOL     OW53935   4.776  12.954   8.961
84013SOL    HW153936   4.697  12.902   8.977
84013SOL    HW253937   4.825  12.903   8.896
84014SOL     OW53938  10.240   5.242  13.888
84014SOL    HW153939  10.198   5.159  13.911
84014SOL    HW253940  10.219   5.301  13.960
84015SOL     OW53941  11.577  11.475   8.664
84015SOL    HW153942  11.547  11.535   8.732
84015SOL    HW253943  11.504  11.413   8.652
84016SOL     OW53944  12.710  14.168   7.790
84016SOL    HW153945  12.677  14.079   7.802
84016SOL    HW253946  12.634  14.219   7.765
84017SOL     OW53947   8.922  13.136   5.275
84017SOL    HW153948   8.992  13.131   5.210
84017SOL    HW253949   8.967  13.145   5.359
84018SOL     OW53950   1.312   2.389   1.935
84018SOL    HW153951   1.314   2.312   1.878
84018SOL    HW253952   1.293   2.354   2.022
84019SOL     OW53953   8.161  12.270   1.414
84019SOL    HW153954   8.090  12.236   1.469
84019SOL    HW253955   8.137  12.245   1.325
84020SOL     OW53956   0.250  13.862  12.804
84020SOL    HW153957   0.212  13.890  12.721
84020SOL    HW253958   0.307  13.935  12.830
84021SOL     OW53959  12.018   6.738   4.642
84021SOL    HW153960  12.030   6.693   4.558
84021SOL    HW253961  12.074   6.815   4.636
84022SOL     OW53962  14.259   9.399   8.232
84022SOL    HW153963  14.192   9.425   8.296
84022SOL    HW253964  14.272   9.476   8.178
84023SOL     OW53965   7.475   5.409   4.020
84023SOL    HW153966   7.503   5.483   3.967
84023SOL    HW253967   7.383   5.395   3.995
84024SOL     OW53968   4.216   6.721   3.618
84024SOL    HW153969   4.186   6.810   3.599
84024SOL    HW253970   4.192   6.707   3.710
84025SOL     OW53971   9.121   4.492  12.274
84025SOL    HW153972   9.180   4.540  12.332
84025SOL    HW253973   9.101   4.553  12.203
84026SOL     OW53974  13.038  11.982   0.236
84026SOL    HW153975  13.081  12.009   0.155
84026SOL    HW253976  13.005  12.064   0.274
84027SOL     OW53977  10.368   3.312   6.205
84027SOL    HW153978  10.382   3.289   6.297
84027SOL    HW253979  10.326   3.235   6.167
84028SOL     OW53980   4.059   7.156  12.769
84028SOL    HW153981   4.082   7.176  12.678
84028SOL    HW253982   4.015   7.071  12.765
84029SOL     OW53983   0.172   1.246  14.710
84029SOL    HW153984   0.202   1.155  14.709
84029SOL    HW253985   0.088   1.244  14.664
84030SOL     OW53986   2.488  10.633   4.905
84030SOL    HW153987   2.483  10.728   4.907
84030SOL    HW253988   2.520  10.609   4.992
84031SOL     OW53989  11.779   4.866  10.938
84031SOL    HW153990  11.727   4.940  10.967
84031SOL    HW253991  11.714   4.799  10.915
84032SOL     OW53992   8.606   6.044  11.798
84032SOL    HW153993   8.531   6.041  11.738
84032SOL    HW253994   8.572   6.087  11.876
84033SOL     OW53995  14.510   5.275  11.856
84033SOL    HW153996  14.487   5.194  11.901
84033SOL    HW253997  14.426   5.319  11.842
84034SOL     OW53998   3.737   6.286   7.726
84034SOL    HW153999   3.743   6.380   7.738
84034SOL    HW254000   3.800   6.250   7.790
84035SOL     OW54001   4.253   2.501   9.164
84035SOL    HW154002   4.236   2.489   9.070
84035SOL    HW254003   4.203   2.580   9.187
84036SOL     OW54004   2.169  14.847   1.770
84036SOL    HW154005   2.263  14.859   1.757
84036SOL    HW254006   2.157  14.752   1.778
84037SOL     OW54007   6.473   6.592  10.888
84037SOL    HW154008   6.425   6.643  10.953
84037SOL    HW254009   6.471   6.646  10.809
84038SOL     OW54010   7.960  10.481   8.024
84038SOL    HW154011   7.900  10.505   8.094
84038SOL    HW254012   8.025  10.424   8.066
84039SOL     OW54013   4.231  10.961   8.784
84039SOL    HW154014   4.229  10.878   8.831
84039SOL    HW254015   4.139  10.987   8.778
84040SOL     OW54016   1.067   8.828   1.073
84040SOL    HW154017   0.996   8.884   1.104
84040SOL    HW254018   1.116   8.882   1.011
84041SOL     OW54019  12.671  13.039   2.234
84041SOL    HW154020  12.602  13.005   2.178
84041SOL    HW254021  12.705  12.961   2.279
84042SOL     OW54022   3.940   7.282   7.647
84042SOL    HW154023   3.897   7.206   7.609
84042SOL    HW254024   3.917   7.279   7.740
84043SOL     OW54025   7.175   7.364   5.433
84043SOL    HW154026   7.194   7.415   5.512
84043SOL    HW254027   7.100   7.309   5.458
84044SOL     OW54028  12.545   7.105  11.822
84044SOL    HW154029  12.578   7.103  11.912
84044SOL    HW254030  12.571   7.190  11.788
84045SOL     OW54031   1.229   3.499  10.500
84045SOL    HW154032   1.314   3.484  10.542
84045SOL    HW254033   1.167   3.498  10.572
84046SOL     OW54034  11.233   4.263   6.879
84046SOL    HW154035  11.213   4.276   6.972
84046SOL    HW254036  11.181   4.187   6.854
84047SOL     OW54037  13.792  11.450  11.172
84047SOL    HW154038  13.728  11.425  11.239
84047SOL    HW254039  13.814  11.541  11.193
84048SOL     OW54040   9.336   2.178   0.960
84048SOL    HW154041   9.420   2.224   0.955
84048SOL    HW254042   9.347   2.116   1.032
84049SOL     OW54043   4.218  14.178   9.447
84049SOL    HW154044   4.206  14.235   9.371
84049SOL    HW254045   4.311  14.158   9.448
84050SOL     OW54046  10.710   0.939   4.113
84050SOL    HW154047  10.683   0.869   4.172
84050SOL    HW254048  10.722   1.015   4.170
84051SOL     OW54049   8.955   6.183   2.026
84051SOL    HW154050   8.919   6.104   2.067
84051SOL    HW254051   8.932   6.254   2.086
84052SOL     OW54052   8.665   7.932  10.722
84052SOL    HW154053   8.667   7.874  10.646
84052SOL    HW254054   8.696   8.017  10.689
84053SOL     OW54055  10.527  13.956   0.554
84053SOL    HW154056  10.447  13.983   0.508
84053SOL    HW254057  10.576  14.037   0.567
84054SOL     OW54058   7.350   5.458   4.254
84054SOL    HW154059   7.413   5.453   4.183
84054SOL    HW254060   7.339   5.367   4.281
84055SOL     OW54061   7.927   6.720   6.888
84055SOL    HW154062   7.908   6.643   6.834
84055SOL    HW254063   8.018   6.741   6.870
84056SOL     OW54064  11.737   0.723  14.665
84056SOL    HW154065  11.722   0.629  14.677
84056SOL    HW254066  11.762   0.755  14.752
84057SOL     OW54067  13.380   7.325   0.698
84057SOL    HW154068  13.343   7.287   0.777
84057SOL    HW254069  13.354   7.265   0.628
84058SOL     OW54070   3.464  10.059   9.980
84058SOL    HW154071   3.478  10.009  10.061
84058SOL    HW254072   3.378  10.032   9.950
84059SOL     OW54073  13.423  14.699   0.459
84059SOL    HW154074  13.486  14.749   0.510
84059SOL    HW254075  13.455  14.609   0.461
84060SOL     OW54076   0.689   4.399  14.065
84060SOL    HW154077   0.739   4.474  14.097
84060SOL    HW254078   0.642   4.433  13.989
84061SOL     OW54079   9.555   3.234   3.637
84061SOL    HW154080   9.510   3.157   3.671
84061SOL    HW254081   9.513   3.250   3.552
84062SOL     OW54082   8.266   8.502   1.965
84062SOL    HW154083   8.290   8.411   1.947
84062SOL    HW254084   8.318   8.525   2.042
84063SOL     OW54085   6.153   3.351   1.996
84063SOL    HW154086   6.220   3.358   1.928
84063SOL    HW254087   6.162   3.263   2.031
84064SOL     OW54088   5.843   3.632  14.761
84064SOL    HW154089   5.875   3.544  14.783
84064SOL    HW254090   5.778   3.618  14.693
84065SOL     OW54091   0.908   5.640  13.237
84065SOL    HW154092   0.938   5.575  13.174
84065SOL    HW254093   0.827   5.604  13.273
84066SOL     OW54094  13.045   0.601   3.735
84066SOL    HW154095  13.096   0.682   3.732
84066SOL    HW254096  12.954   0.629   3.725
84067SOL     OW54097   3.742  10.467  10.335
84067SOL    HW154098   3.749  10.393  10.275
84067SOL    HW254099   3.820  10.460  10.391
84068SOL     OW54100   3.658   1.754   6.515
84068SOL    HW154101   3.751   1.766   6.534
84068SOL    HW254102   3.651   1.665   6.481
84069SOL     OW54103   7.739   9.248   2.510
84069SOL    HW154104   7.646   9.257   2.530
84069SOL    HW254105   7.777   9.208   2.588
84070SOL     OW54106   3.966  11.363  10.030
84070SOL    HW154107   4.020  11.360  10.109
84070SOL    HW254108   3.950  11.271  10.009
84071SOL     OW54109   3.641   2.287  10.534
84071SOL    HW154110   3.597   2.290  10.449
84071SOL    HW254111   3.732   2.264  10.513
84072SOL     OW54112   6.799   0.521   9.773
84072SOL    HW154113   6.734   0.506   9.842
84072SOL    HW254114   6.749   0.522   9.692
84073SOL     OW54115   9.031  10.334   9.718
84073SOL    HW154116   9.098  10.266   9.708
84073SOL    HW254117   8.949  10.286   9.731
84074SOL     OW54118   7.237   5.798   3.100
84074SOL    HW154119   7.236   5.714   3.053
84074SOL    HW254120   7.145   5.823   3.107
84075SOL     OW54121  11.041   8.594  14.852
84075SOL    HW154122  10.960   8.636  14.824
84075SOL    HW254123  11.111   8.652  14.821
84076SOL     OW54124   9.036   7.556   7.974
84076SOL    HW154125   9.038   7.600   7.889
84076SOL    HW254126   8.948   7.571   8.007
84077SOL     OW54127   2.650   3.615  12.063
84077SOL    HW154128   2.561   3.649  12.063
84077SOL    HW254129   2.693   3.660  12.136
84078SOL     OW54130  13.605   1.285   8.648
84078SOL    HW154131  13.561   1.293   8.563
84078SOL    HW254132  13.661   1.207   8.639
84079SOL     OW54133   4.495   1.401   9.316
84079SOL    HW154134   4.457   1.314   9.309
84079SOL    HW254135   4.483   1.426   9.407
84080SOL     OW54136  10.083   7.062   0.721
84080SOL    HW154137  10.083   6.998   0.649
84080SOL    HW254138   9.993   7.061   0.753
84081SOL     OW54139   1.139   9.405  12.025
84081SOL    HW154140   1.227   9.430  11.999
84081SOL    HW254141   1.087   9.412  11.945
84082SOL     OW54142  14.716   1.326   3.433
84082SOL    HW154143  14.643   1.275   3.398
84082SOL    HW254144  14.793   1.296   3.384
84083SOL     OW54145   5.472  10.971  13.467
84083SOL    HW154146   5.463  10.879  13.443
84083SOL    HW254147   5.517  10.969  13.552
84084SOL     OW54148   3.511  10.370  14.527
84084SOL    HW154149   3.437  10.426  14.550
84084SOL    HW254150   3.571  10.427  14.478
84085SOL     OW54151   7.570   2.180   7.554
84085SOL    HW154152   7.492   2.135   7.587
84085SOL    HW254153   7.601   2.231   7.629
84086SOL     OW54154   9.492   4.449  10.496
84086SOL    HW154155   9.419   4.470  10.555
84086SOL    HW254156   9.474   4.501  10.418
84087SOL     OW54157   7.238   9.354  13.857
84087SOL    HW154158   7.147   9.326  13.870
84087SOL    HW254159   7.283   9.276  13.825
84088SOL     OW54160   0.048  12.958   7.793
84088SOL    HW154161   0.085  13.039   7.828
84088SOL    HW254162   0.088  12.889   7.846
84089SOL     OW54163   1.311   3.614   7.143
84089SOL    HW154164   1.353   3.664   7.213
84089SOL    HW254165   1.220   3.605   7.171
84090SOL     OW54166  12.028   9.763  13.696
84090SOL    HW154167  11.989   9.680  13.669
84090SOL    HW254168  12.064   9.745  13.783
84091SOL     OW54169  11.323   4.465  10.582
84091SOL    HW154170  11.416   4.484  10.592
84091SOL    HW254171  11.285   4.483  10.668
84092SOL     OW54172   7.454   8.122   6.253
84092SOL    HW154173   7.451   8.104   6.347
84092SOL    HW254174   7.480   8.214   6.246
84093SOL     OW54175   2.003   0.502   5.379
84093SOL    HW154176   2.085   0.545   5.356
84093SOL    HW254177   2.021   0.458   5.462
84094SOL     OW54178  13.153   9.479   6.114
84094SOL    HW154179  13.161   9.524   6.198
84094SOL    HW254180  13.100   9.402   6.133
84095SOL     OW54181   2.031  12.190  13.118
84095SOL    HW154182   2.070  12.171  13.033
84095SOL    HW254183   2.093  12.248  13.161
84096SOL     OW54184   6.415   2.300   8.913
84096SOL    HW154185   6.370   2.243   8.850
84096SOL    HW254186   6.480   2.347   8.861
84097SOL     OW54187   4.333  12.717  10.549
84097SOL    HW154188   4.253  12.732  10.599
84097SOL    HW254189   4.330  12.623  10.528
84098SOL     OW54190   3.431   3.874   9.089
84098SOL    HW154191   3.370   3.947   9.074
84098SOL    HW254192   3.471   3.860   9.003
84099SOL     OW54193   5.780  11.110   4.937
84099SOL    HW154194   5.868  11.146   4.927
84099SOL    HW254195   5.789  11.047   5.009
84100SOL     OW54196   4.937   9.195  12.756
84100SOL    HW154197   4.940   9.119  12.698
84100SOL    HW254198   5.007   9.179  12.820
84101SOL     OW54199   7.135   9.927  13.756
84101SOL    HW154200   7.141   9.966  13.669
84101SOL    HW254201   7.179   9.842  13.747
84102SOL     OW54202   0.949   9.343  13.456
84102SOL    HW154203   0.969   9.345  13.549
84102SOL    HW254204   0.868   9.291  13.450
84103SOL     OW54205  13.110  14.812   2.608
84103SOL    HW154206  13.044  14.771   2.664
84103SOL    HW254207  13.163  14.740   2.576
84104SOL     OW54208   6.805   3.826   7.599
84104SOL    HW154209   6.726   3.866   7.561
84104SOL    HW254210   6.810   3.861   7.688
84105SOL     OW54211   7.625  12.990   9.309
84105SOL    HW154212   7.609  13.046   9.386
84105SOL    HW254213   7.574  13.031   9.239
84106SOL     OW54214   3.970   0.824   1.050
84106SOL    HW154215   4.024   0.829   1.129
84106SOL    HW254216   3.974   0.912   1.012
84107SOL     OW54217   6.642   6.962  12.474
84107SOL    HW154218   6.588   6.967  12.553
84107SOL    HW254219   6.626   7.045  12.428
84108SOL     OW54220   7.950   1.109   5.212
84108SOL    HW154221   7.945   1.014   5.221
84108SOL    HW254222   7.884   1.142   5.272
84109SOL     OW54223  13.188   4.228   9.458
84109SOL    HW154224  13.241   4.182   9.522
84109SOL    HW254225  13.169   4.163   9.390
84110SOL     OW54226   6.501  12.191   3.718
84110SOL    HW154227   6.428  12.231   3.671
84110SOL    HW254228   6.579  12.236   3.685
84111SOL     OW54229   9.137   3.616   1.560
84111SOL    HW154230   9.058   3.567   1.581
84111SOL    HW254231   9.106   3.699   1.523
84112SOL     OW54232  13.201   7.631   9.200
84112SOL    HW154233  13.271   7.651   9.138
84112SOL    HW254234  13.230   7.551   9.245
84113SOL     OW54235   1.833   9.527   1.229
84113SOL    HW154236   1.788   9.562   1.152
84113SOL    HW254237   1.917   9.496   1.195
84114SOL     OW54238   9.941   6.797   4.186
84114SOL    HW154239   9.952   6.751   4.269
84114SOL    HW254240   9.881   6.742   4.135
84115SOL     OW54241   5.597   5.076   7.333
84115SOL    HW154242   5.576   5.002   7.390
84115SOL    HW254243   5.522   5.134   7.340
84116SOL     OW54244   2.348   2.071   3.911
84116SOL    HW154245   2.434   2.108   3.891
84116SOL    HW254246   2.367   1.982   3.940
84117SOL     OW54247   6.176   7.733  10.551
84117SOL    HW154248   6.127   7.807  10.586
84117SOL    HW254249   6.111   7.681  10.504
84118SOL     OW54250   9.555  10.056   8.736
84118SOL    HW154251   9.625  10.005   8.696
84118SOL    HW254252   9.574  10.147   8.711
84119SOL     OW54253   9.246   9.504   4.956
84119SOL    HW154254   9.272   9.580   4.905
84119SOL    HW254255   9.154   9.519   4.978
84120SOL     OW54256   9.505  12.642  13.553
84120SOL    HW154257   9.561  12.651  13.630
84120SOL    HW254258   9.560  12.597  13.489
84121SOL     OW54259  10.328  13.164   5.592
84121SOL    HW154260  10.234  13.179   5.585
84121SOL    HW254261  10.353  13.208   5.673
84122SOL     OW54262   0.852   9.525   4.622
84122SOL    HW154263   0.877   9.541   4.713
84122SOL    HW254264   0.920   9.466   4.589
84123SOL     OW54265   2.989  11.946  10.151
84123SOL    HW154266   3.028  12.011  10.210
84123SOL    HW254267   3.051  11.874  10.149
84124SOL     OW54268  11.007   6.157   1.177
84124SOL    HW154269  11.029   6.215   1.103
84124SOL    HW254270  10.918   6.182   1.201
84125SOL     OW54271   6.505  12.036   1.047
84125SOL    HW154272   6.465  11.953   1.022
84125SOL    HW254273   6.490  12.042   1.142
84126SOL     OW54274   7.156   9.503  13.244
84126SOL    HW154275   7.109   9.459  13.173
84126SOL    HW254276   7.090   9.556  13.289
84127SOL     OW54277  14.082   1.399   2.547
84127SOL    HW154278  14.082   1.471   2.611
84127SOL    HW254279  14.083   1.320   2.600
84128SOL     OW54280   7.657  12.041  12.549
84128SOL    HW154281   7.691  11.999  12.471
84128SOL    HW254282   7.563  12.025  12.547
84129SOL     OW54283   0.435   4.925  12.483
84129SOL    HW154284   0.510   4.912  12.542
84129SOL    HW254285   0.435   5.018  12.463
84130SOL     OW54286  13.717  10.434  10.664
84130SOL    HW154287  13.812  10.434  10.679
84130SOL    HW254288  13.706  10.399  10.576
84131SOL     OW54289   8.371   8.598  14.748
84131SOL    HW154290   8.398   8.548  14.672
84131SOL    HW254291   8.292   8.644  14.719
84132SOL     OW54292  11.509  13.582   0.599
84132SOL    HW154293  11.443  13.513   0.610
84132SOL    HW254294  11.529  13.581   0.505
84133SOL     OW54295   3.946  13.163  12.010
84133SOL    HW154296   3.983  13.091  12.062
84133SOL    HW254297   3.962  13.241  12.063
84134SOL     OW54298   7.512  12.398   0.036
84134SOL    HW154299   7.442  12.459   0.013
84134SOL    HW254300   7.475  12.345   0.106
84135SOL     OW54301   7.967  11.786   4.614
84135SOL    HW154302   8.007  11.801   4.700
84135SOL    HW254303   7.937  11.872   4.586
84136SOL     OW54304   4.769   7.534   1.584
84136SOL    HW154305   4.806   7.613   1.545
84136SOL    HW254306   4.678   7.533   1.554
84137SOL     OW54307   4.196  13.324   4.311
84137SOL    HW154308   4.276  13.376   4.323
84137SOL    HW254309   4.226  13.244   4.268
84138SOL     OW54310   0.240   7.023   3.596
84138SOL    HW154311   0.170   7.053   3.653
84138SOL    HW254312   0.207   7.036   3.507
84139SOL     OW54313   2.798   4.003   8.703
84139SOL    HW154314   2.796   3.907   8.704
84139SOL    HW254315   2.709   4.029   8.678
84140SOL     OW54316   4.125   8.614  10.686
84140SOL    HW154317   4.053   8.673  10.708
84140SOL    HW254318   4.088   8.554  10.621
84141SOL     OW54319  10.071   1.891  13.606
84141SOL    HW154320  10.130   1.967  13.604
84141SOL    HW254321  10.111   1.832  13.670
84142SOL     OW54322   7.911  13.405   8.991
84142SOL    HW154323   7.890  13.339   9.057
84142SOL    HW254324   7.831  13.415   8.940
84143SOL     OW54325   5.129   4.749   9.714
84143SOL    HW154326   5.105   4.833   9.673
84143SOL    HW254327   5.097   4.683   9.653
84144SOL     OW54328   6.356   0.784   4.600
84144SOL    HW154329   6.437   0.829   4.625
84144SOL    HW254330   6.356   0.787   4.504
84145SOL     OW54331  13.915   5.309   2.308
84145SOL    HW154332  13.916   5.236   2.246
84145SOL    HW254333  13.862   5.376   2.265
84146SOL     OW54334   7.280  13.265   9.149
84146SOL    HW154335   7.219  13.218   9.205
84146SOL    HW254336   7.228  13.292   9.073
84147SOL     OW54337   6.787   4.626   9.376
84147SOL    HW154338   6.733   4.553   9.345
84147SOL    HW254339   6.860   4.629   9.314
84148SOL     OW54340   7.070  11.798   4.777
84148SOL    HW154341   7.026  11.718   4.807
84148SOL    HW254342   7.090  11.782   4.685
84149SOL     OW54343   2.442  13.181   2.794
84149SOL    HW154344   2.531  13.182   2.829
84149SOL    HW254345   2.411  13.092   2.810
84150SOL     OW54346   8.326   4.867   3.459
84150SOL    HW154347   8.288   4.785   3.492
84150SOL    HW254348   8.392   4.891   3.524
84151SOL     OW54349  11.891   5.458   8.969
84151SOL    HW154350  11.813   5.404   8.986
84151SOL    HW254351  11.882   5.532   9.029
84152SOL     OW54352   5.567   7.500  10.745
84152SOL    HW154353   5.570   7.432  10.678
84152SOL    HW254354   5.641   7.481  10.803
84153SOL     OW54355   7.300   9.321   3.687
84153SOL    HW154356   7.235   9.287   3.625
84153SOL    HW254357   7.257   9.314   3.772
84154SOL     OW54358   7.407  11.246   9.976
84154SOL    HW154359   7.442  11.255  10.064
84154SOL    HW254360   7.456  11.309   9.923
84155SOL     OW54361   6.672   0.840   8.010
84155SOL    HW154362   6.606   0.778   7.981
84155SOL    HW254363   6.750   0.787   8.028
84156SOL     OW54364   2.604   8.730   7.074
84156SOL    HW154365   2.687   8.706   7.116
84156SOL    HW254366   2.545   8.748   7.147
84157SOL     OW54367  10.454   2.908  12.030
84157SOL    HW154368  10.509   2.896  12.108
84157SOL    HW254369  10.508   2.875  11.958
84158SOL     OW54370   5.520  13.929  11.726
84158SOL    HW154371   5.572  14.002  11.693
84158SOL    HW254372   5.572  13.892  11.797
84159SOL     OW54373   5.212   6.301   9.750
84159SOL    HW154374   5.118   6.311   9.739
84159SOL    HW254375   5.246   6.301   9.661
84160SOL     OW54376   2.529  13.159   5.278
84160SOL    HW154377   2.552  13.078   5.233
84160SOL    HW254378   2.449  13.189   5.234
84161SOL     OW54379   4.079   1.896   1.720
84161SOL    HW154380   4.161   1.940   1.743
84161SOL    HW254381   4.108   1.814   1.678
84162SOL     OW54382   2.669  11.224  10.193
84162SOL    HW154383   2.575  11.213  10.205
84162SOL    HW254384   2.688  11.177  10.111
84163SOL     OW54385   1.971  12.223   5.183
84163SOL    HW154386   1.955  12.233   5.276
84163SOL    HW254387   1.988  12.129   5.171
84164SOL     OW54388  11.447   3.353   5.321
84164SOL    HW154389  11.520   3.336   5.262
84164SOL    HW254390  11.379   3.390   5.264
84165SOL     OW54391   3.424   6.874   5.820
84165SOL    HW154392   3.457   6.838   5.737
84165SOL    HW254393   3.335   6.902   5.800
84166SOL     OW54394  10.933   5.799  13.464
84166SOL    HW154395  10.965   5.792  13.554
84166SOL    HW254396  10.839   5.816  13.474
84167SOL     OW54397   1.551   5.882  13.782
84167SOL    HW154398   1.533   5.967  13.822
84167SOL    HW254399   1.469   5.833  13.792
84168SOL     OW54400   8.702   9.953  13.541
84168SOL    HW154401   8.769  10.021  13.555
84168SOL    HW254402   8.689   9.953  13.446
84169SOL     OW54403   4.325   8.421   1.469
84169SOL    HW154404   4.299   8.340   1.514
84169SOL    HW254405   4.349   8.481   1.539
84170SOL     OW54406   0.802   9.412  12.010
84170SOL    HW154407   0.823   9.325  12.045
84170SOL    HW254408   0.706   9.412  12.002
84171SOL     OW54409  10.740  14.675   3.857
84171SOL    HW154410  10.724  14.767   3.836
84171SOL    HW254411  10.829  14.658   3.828
84172SOL     OW54412   9.642   3.895   9.003
84172SOL    HW154413   9.735   3.918   9.007
84172SOL    HW254414   9.602   3.940   9.077
84173SOL     OW54415   5.250  14.342  14.782
84173SOL    HW154416   5.337  14.307  14.799
84173SOL    HW254417   5.217  14.290  14.708
84174SOL     OW54418   0.613   0.344   3.475
84174SOL    HW154419   0.533   0.311   3.434
84174SOL    HW254420   0.683   0.289   3.437
84175SOL     OW54421   2.578   4.201  10.233
84175SOL    HW154422   2.583   4.144  10.156
84175SOL    HW254423   2.512   4.160  10.289
84176SOL     OW54424   7.640   2.377  12.312
84176SOL    HW154425   7.622   2.285  12.297
84176SOL    HW254426   7.690   2.405  12.235
84177SOL     OW54427  12.207  11.353  13.446
84177SOL    HW154428  12.224  11.343  13.540
84177SOL    HW254429  12.291  11.336  13.404
84178SOL     OW54430   3.625   9.171   8.340
84178SOL    HW154431   3.623   9.206   8.429
84178SOL    HW254432   3.695   9.106   8.340
84179SOL     OW54433  12.628   3.037   3.959
84179SOL    HW154434  12.679   3.117   3.950
84179SOL    HW254435  12.592   3.042   4.048
84180SOL     OW54436   8.312   5.783   3.522
84180SOL    HW154437   8.274   5.726   3.589
84180SOL    HW254438   8.255   5.773   3.446
84181SOL     OW54439  14.706  11.613   1.915
84181SOL    HW154440  14.688  11.702   1.943
84181SOL    HW254441  14.624  11.566   1.930
84182SOL     OW54442   4.578   5.602  10.357
84182SOL    HW154443   4.550   5.634  10.271
84182SOL    HW254444   4.664   5.641  10.370
84183SOL     OW54445  13.616  12.764   3.140
84183SOL    HW154446  13.607  12.824   3.214
84183SOL    HW254447  13.706  12.732   3.145
84184SOL     OW54448   9.340   1.946   8.734
84184SOL    HW154449   9.394   2.012   8.777
84184SOL    HW254450   9.259   1.992   8.712
84185SOL     OW54451  13.101   4.565   6.664
84185SOL    HW154452  13.162   4.618   6.715
84185SOL    HW254453  13.152   4.539   6.587
84186SOL     OW54454   5.562  12.393  12.814
84186SOL    HW154455   5.583  12.350  12.731
84186SOL    HW254456   5.643  12.388  12.865
84187SOL     OW54457   0.376   9.809  10.420
84187SOL    HW154458   0.281   9.803  10.416
84187SOL    HW254459   0.406   9.722  10.394
84188SOL     OW54460   0.535   1.866  10.831
84188SOL    HW154461   0.554   1.836  10.742
84188SOL    HW254462   0.465   1.807  10.861
84189SOL     OW54463  14.707   3.362  11.907
84189SOL    HW154464  14.746   3.450  11.906
84189SOL    HW254465  14.744   3.319  11.829
84190SOL     OW54466   2.705   7.952   9.544
84190SOL    HW154467   2.661   8.017   9.599
84190SOL    HW254468   2.742   7.889   9.606
84191SOL     OW54469   9.524   4.786   8.980
84191SOL    HW154470   9.489   4.702   8.951
84191SOL    HW254471   9.508   4.788   9.074
84192SOL     OW54472  10.473   6.820   0.705
84192SOL    HW154473  10.403   6.858   0.757
84192SOL    HW254474  10.477   6.728   0.733
84193SOL     OW54475  13.236   5.263   7.247
84193SOL    HW154476  13.193   5.193   7.199
84193SOL    HW254477  13.282   5.313   7.179
84194SOL     OW54478  12.220   1.417   7.262
84194SOL    HW154479  12.293   1.395   7.204
84194SOL    HW254480  12.260   1.424   7.349
84195SOL     OW54481   2.658   1.663   8.159
84195SOL    HW154482   2.708   1.595   8.113
84195SOL    HW254483   2.683   1.653   8.251
84196SOL     OW54484   3.138   6.391  10.296
84196SOL    HW154485   3.212   6.440  10.262
84196SOL    HW254486   3.144   6.306  10.253
84197SOL     OW54487   9.210   7.591   1.356
84197SOL    HW154488   9.171   7.638   1.430
84197SOL    HW254489   9.304   7.613   1.360
84198SOL     OW54490   4.490   7.152   3.443
84198SOL    HW154491   4.564   7.093   3.428
84198SOL    HW254492   4.416   7.094   3.458
84199SOL     OW54493   9.058   6.212   3.597
84199SOL    HW154494   9.138   6.162   3.616
84199SOL    HW254495   9.052   6.212   3.502
84200SOL     OW54496   4.812   3.397   7.403
84200SOL    HW154497   4.765   3.315   7.394
84200SOL    HW254498   4.899   3.379   7.368
84201SOL     OW54499   3.206  14.198   0.741
84201SOL    HW154500   3.114  14.200   0.716
84201SOL    HW254501   3.214  14.121   0.797
84202SOL     OW54502   3.131   8.459   0.347
84202SOL    HW154503   3.080   8.412   0.281
84202SOL    HW254504   3.071   8.471   0.420
84203SOL     OW54505  10.566   6.021   0.342
84203SOL    HW154506  10.586   5.953   0.406
84203SOL    HW254507  10.559   6.101   0.394
84204SOL     OW54508  10.906   8.727  13.259
84204SOL    HW154509  10.861   8.796  13.210
84204SOL    HW254510  10.836   8.677  13.300
84205SOL     OW54511   1.918  11.911   9.412
84205SOL    HW154512   1.933  11.868   9.496
84205SOL    HW254513   1.999  11.895   9.363
84206SOL     OW54514  13.783  10.113  11.666
84206SOL    HW154515  13.775  10.105  11.761
84206SOL    HW254516  13.873  10.087  11.646
84207SOL     OW54517  11.080   8.882  11.266
84207SOL    HW154518  11.014   8.948  11.284
84207SOL    HW254519  11.163   8.929  11.267
84208SOL     OW54520  10.785   5.094   4.473
84208SOL    HW154521  10.844   5.147   4.527
84208SOL    HW254522  10.751   5.156   4.408
84209SOL     OW54523  11.040  10.023   9.968
84209SOL    HW154524  11.034   9.946  10.025
84209SOL    HW254525  10.962  10.075   9.989
84210SOL     OW54526   7.202   9.102   8.767
84210SOL    HW154527   7.295   9.098   8.746
84210SOL    HW254528   7.167   9.019   8.736
84211SOL     OW54529  11.963   7.203   2.402
84211SOL    HW154530  11.955   7.192   2.307
84211SOL    HW254531  11.973   7.298   2.414
84212SOL     OW54532  10.053   5.085   1.603
84212SOL    HW154533  10.008   5.116   1.524
84212SOL    HW254534  10.144   5.112   1.591
84213SOL     OW54535  11.284   4.022   7.557
84213SOL    HW154536  11.347   3.966   7.511
84213SOL    HW254537  11.201   3.976   7.549
84214SOL     OW54538  10.975  13.857   4.019
84214SOL    HW154539  10.935  13.772   4.034
84214SOL    HW254540  11.063  13.849   4.056
84215SOL     OW54541  13.384   4.236  14.699
84215SOL    HW154542  13.345   4.316  14.664
84215SOL    HW254543  13.469   4.263  14.732
84216SOL     OW54544   6.663  12.391  12.281
84216SOL    HW154545   6.720  12.462  12.311
84216SOL    HW254546   6.698  12.313  12.323
84217SOL     OW54547   1.787   9.638  11.537
84217SOL    HW154548   1.804   9.581  11.462
84217SOL    HW254549   1.872   9.676  11.559
84218SOL     OW54550   8.534  12.166   3.941
84218SOL    HW154551   8.496  12.111   3.873
84218SOL    HW254552   8.594  12.224   3.894
84219SOL     OW54553   3.072  10.850   5.623
84219SOL    HW154554   3.069  10.836   5.718
84219SOL    HW254555   3.041  10.940   5.611
84220SOL     OW54556   7.383  11.441  13.140
84220SOL    HW154557   7.397  11.399  13.055
84220SOL    HW254558   7.471  11.445  13.179
84221SOL     OW54559   6.059   8.633   0.906
84221SOL    HW154560   6.032   8.565   0.968
84221SOL    HW254561   5.978   8.657   0.861
84222SOL     OW54562   4.468   0.834   8.097
84222SOL    HW154563   4.537   0.897   8.119
84222SOL    HW254564   4.439   0.800   8.182
84223SOL     OW54565   0.822   8.915   7.567
84223SOL    HW154566   0.911   8.884   7.584
84223SOL    HW254567   0.827   8.951   7.478
84224SOL     OW54568  14.669  11.080   3.338
84224SOL    HW154569  14.739  11.049   3.279
84224SOL    HW254570  14.614  11.135   3.282
84225SOL     OW54571   9.889  13.200  11.808
84225SOL    HW154572   9.901  13.168  11.719
84225SOL    HW254573   9.947  13.146  11.862
84226SOL     OW54574   0.008  14.114   5.630
84226SOL    HW154575  14.841  14.032   5.624
84226SOL    HW254576   0.033  14.134   5.540
84227SOL     OW54577  10.453   7.949   6.726
84227SOL    HW154578  10.414   7.921   6.808
84227SOL    HW254579  10.507   8.024   6.749
84228SOL     OW54580   3.544   0.460   6.024
84228SOL    HW154581   3.634   0.428   6.011
84228SOL    HW254582   3.493   0.419   5.955
84229SOL     OW54583   4.428  11.257  13.523
84229SOL    HW154584   4.371  11.318  13.476
84229SOL    HW254585   4.399  11.171  13.494
84230SOL     OW54586   6.806  12.381   9.973
84230SOL    HW154587   6.820  12.401   9.881
84230SOL    HW254588   6.857  12.447  10.020
84231SOL     OW54589   6.325  11.012   0.692
84231SOL    HW154590   6.356  11.057   0.613
84231SOL    HW254591   6.379  11.048   0.762
84232SOL     OW54592   6.460   1.181   7.742
84232SOL    HW154593   6.481   1.250   7.679
84232SOL    HW254594   6.512   1.106   7.714
84233SOL     OW54595   3.480  10.336   8.972
84233SOL    HW154596   3.446  10.406   9.028
84233SOL    HW254597   3.574  10.339   8.986
84234SOL     OW54598   4.127   9.575  14.776
84234SOL    HW154599   4.099   9.553  14.687
84234SOL    HW254600   4.165   9.494  14.810
84235SOL     OW54601  10.474  14.296   4.429
84235SOL    HW154602  10.553  14.341   4.458
84235SOL    HW254603  10.472  14.310   4.334
84236SOL     OW54604  13.022  12.522   2.103
84236SOL    HW154605  13.081  12.572   2.159
84236SOL    HW254606  13.080  12.474   2.044
84237SOL     OW54607   7.479  14.794   4.909
84237SOL    HW154608   7.491  14.778   5.003
84237SOL    HW254609   7.385  14.811   4.899
84238SOL     OW54610   1.472   3.381  12.202
84238SOL    HW154611   1.504   3.455  12.255
84238SOL    HW254612   1.487   3.409  12.112
84239SOL     OW54613   3.694   8.802   9.982
84239SOL    HW154614   3.683   8.755   9.899
84239SOL    HW254615   3.605   8.823  10.010
84240SOL     OW54616  13.458   2.424   2.686
84240SOL    HW154617  13.533   2.416   2.746
84240SOL    HW254618  13.396   2.480   2.733
84241SOL     OW54619   7.732   9.506  13.314
84241SOL    HW154620   7.700   9.461  13.237
84241SOL    HW254621   7.656   9.514  13.371
84242SOL     OW54622   0.943  14.077   7.316
84242SOL    HW154623   0.852  14.055   7.334
84242SOL    HW254624   0.968  14.137   7.387
84243SOL     OW54625  12.167  11.347   3.186
84243SOL    HW154626  12.141  11.345   3.278
84243SOL    HW254627  12.215  11.429   3.176
84244SOL     OW54628   1.749   5.537   1.042
84244SOL    HW154629   1.701   5.512   0.963
84244SOL    HW254630   1.831   5.487   1.037
84245SOL     OW54631   6.410   6.261  10.866
84245SOL    HW154632   6.453   6.328  10.814
84245SOL    HW254633   6.481   6.204  10.897
84246SOL     OW54634   7.512   2.622  13.702
84246SOL    HW154635   7.602   2.655  13.695
84246SOL    HW254636   7.463   2.672  13.637
84247SOL     OW54637   6.959  12.208  13.556
84247SOL    HW154638   6.900  12.166  13.493
84247SOL    HW254639   7.030  12.145  13.568
84248SOL     OW54640   5.673  13.834  11.914
84248SOL    HW154641   5.679  13.784  11.994
84248SOL    HW254642   5.748  13.893  11.916
84249SOL     OW54643   3.192   8.655   6.322
84249SOL    HW154644   3.241   8.680   6.243
84249SOL    HW254645   3.105   8.691   6.308
84250SOL     OW54646   9.426   4.667  12.125
84250SOL    HW154647   9.425   4.699  12.035
84250SOL    HW254648   9.400   4.742  12.178
84251SOL     OW54649   2.697   7.036  12.302
84251SOL    HW154650   2.648   6.962  12.337
84251SOL    HW254651   2.706   7.017  12.208
84252SOL     OW54652   6.549   4.421   5.050
84252SOL    HW154653   6.479   4.485   5.062
84252SOL    HW254654   6.628   4.465   5.082
84253SOL     OW54655   2.495   5.554  14.145
84253SOL    HW154656   2.541   5.470  14.150
84253SOL    HW254657   2.405   5.531  14.122
84254SOL     OW54658   2.723   0.284   5.024
84254SOL    HW154659   2.642   0.293   5.073
84254SOL    HW254660   2.769   0.212   5.067
84255SOL     OW54661   7.575  12.395   7.242
84255SOL    HW154662   7.556  12.363   7.330
84255SOL    HW254663   7.490  12.423   7.208
84256SOL     OW54664  11.732   1.374   7.284
84256SOL    HW154665  11.812   1.425   7.297
84256SOL    HW254666  11.665   1.439   7.262
84257SOL     OW54667   5.856   3.532  10.590
84257SOL    HW154668   5.883   3.446  10.621
84257SOL    HW254669   5.910   3.548  10.513
84258SOL     OW54670   3.042  12.651  11.462
84258SOL    HW154671   3.106  12.689  11.402
84258SOL    HW254672   2.958  12.687  11.434
84259SOL     OW54673  12.705   8.311   5.490
84259SOL    HW154674  12.723   8.276   5.403
84259SOL    HW254675  12.703   8.406   5.478
84260SOL     OW54676   4.122  13.549  12.327
84260SOL    HW154677   4.155  13.471  12.372
84260SOL    HW254678   4.131  13.620  12.390
84261SOL     OW54679   2.249  13.622   0.077
84261SOL    HW154680   2.213  13.587  14.878
84261SOL    HW254681   2.172  13.649   0.128
84262SOL     OW54682  13.789   4.843   5.336
84262SOL    HW154683  13.874   4.830   5.294
84262SOL    HW254684  13.786   4.937   5.355
84263SOL     OW54685   2.631   2.475   2.672
84263SOL    HW154686   2.590   2.525   2.601
84263SOL    HW254687   2.640   2.538   2.744
84264SOL     OW54688   4.483   7.252   4.867
84264SOL    HW154689   4.453   7.309   4.796
84264SOL    HW254690   4.478   7.307   4.945
84265SOL     OW54691  13.864   5.538   8.464
84265SOL    HW154692  13.936   5.475   8.454
84265SOL    HW254693  13.899   5.620   8.430
84266SOL     OW54694   9.135   4.678   8.882
84266SOL    HW154695   9.127   4.773   8.891
84266SOL    HW254696   9.215   4.664   8.832
84267SOL     OW54697   1.790   4.775  14.123
84267SOL    HW154698   1.712   4.826  14.145
84267SOL    HW254699   1.775   4.689  14.161
84268SOL     OW54700  10.320   3.193   0.730
84268SOL    HW154701  10.404   3.237   0.741
84268SOL    HW254702  10.337   3.102   0.754
84269SOL     OW54703  10.940  13.550  13.163
84269SOL    HW154704  11.016  13.492  13.172
84269SOL    HW254705  10.882  13.527  13.235
84270SOL     OW54706   2.087  11.182   4.408
84270SOL    HW154707   2.031  11.120   4.455
84270SOL    HW254708   2.151  11.127   4.362
84271SOL     OW54709   7.110  11.860   8.599
84271SOL    HW154710   7.148  11.876   8.685
84271SOL    HW254711   7.185  11.862   8.539
84272SOL     OW54712  13.192  11.652   0.903
84272SOL    HW154713  13.236  11.588   0.847
84272SOL    HW254714  13.145  11.599   0.967
84273SOL     OW54715  10.673   8.309  11.133
84273SOL    HW154716  10.739   8.378  11.132
84273SOL    HW254717  10.590   8.355  11.146
84274SOL     OW54718   6.487   5.237   3.175
84274SOL    HW154719   6.496   5.315   3.231
84274SOL    HW254720   6.562   5.182   3.198
84275SOL     OW54721   6.740   8.689   0.546
84275SOL    HW154722   6.665   8.709   0.602
84275SOL    HW254723   6.790   8.771   0.543
84276SOL     OW54724  12.876   3.200   9.321
84276SOL    HW154725  12.903   3.202   9.413
84276SOL    HW254726  12.937   3.259   9.277
84277SOL     OW54727   5.272  14.206   1.847
84277SOL    HW154728   5.223  14.271   1.797
84277SOL    HW254729   5.295  14.139   1.782
84278SOL     OW54730  12.297  13.257   2.318
84278SOL    HW154731  12.350  13.335   2.300
84278SOL    HW254732  12.359  13.192   2.350
84279SOL     OW54733   1.403   0.071  13.420
84279SOL    HW154734   1.430   0.062  13.511
84279SOL    HW254735   1.427   0.160  13.396
84280SOL     OW54736   7.173   6.576   1.431
84280SOL    HW154737   7.221   6.527   1.363
84280SOL    HW254738   7.229   6.651   1.450
84281SOL     OW54739   7.670  11.750   8.351
84281SOL    HW154740   7.647  11.674   8.297
84281SOL    HW254741   7.765  11.745   8.360
84282SOL     OW54742   3.539   9.176  14.185
84282SOL    HW154743   3.499   9.138  14.263
84282SOL    HW254744   3.633   9.164  14.197
84283SOL     OW54745  10.165   9.150   1.157
84283SOL    HW154746  10.243   9.104   1.128
84283SOL    HW254747  10.167   9.233   1.109
84284SOL     OW54748   3.244  11.885   0.396
84284SOL    HW154749   3.255  11.856   0.486
84284SOL    HW254750   3.278  11.812   0.343
84285SOL     OW54751   2.314  11.694  11.502
84285SOL    HW154752   2.241  11.641  11.472
84285SOL    HW254753   2.385  11.632  11.518
84286SOL     OW54754   7.971  10.736   6.560
84286SOL    HW154755   7.914  10.789   6.615
84286SOL    HW254756   7.926  10.733   6.475
84287SOL     OW54757   6.928  13.620  11.802
84287SOL    HW154758   6.906  13.632  11.894
84287SOL    HW254759   6.953  13.707  11.772
84288SOL     OW54760   0.543   1.203   7.823
84288SOL    HW154761   0.463   1.253   7.840
84288SOL    HW254762   0.604   1.267   7.787
84289SOL     OW54763   6.681   1.627   4.013
84289SOL    HW154764   6.771   1.627   4.046
84289SOL    HW254765   6.664   1.718   3.990
84290SOL     OW54766   6.215   8.916  13.170
84290SOL    HW154767   6.146   8.939  13.233
84290SOL    HW254768   6.288   8.973  13.193
84291SOL     OW54769  11.498  10.385   3.326
84291SOL    HW154770  11.586  10.397   3.291
84291SOL    HW254771  11.511  10.345   3.412
84292SOL     OW54772   9.604   7.759  14.036
84292SOL    HW154773   9.646   7.782  13.953
84292SOL    HW254774   9.594   7.843  14.082
84293SOL     OW54775   9.021   4.017  13.036
84293SOL    HW154776   9.098   4.072  13.054
84293SOL    HW254777   9.034   3.940  13.092
84294SOL     OW54778   6.439   5.880  14.722
84294SOL    HW154779   6.497   5.955  14.713
84294SOL    HW254780   6.478   5.813  14.666
84295SOL     OW54781  11.768  10.300   2.506
84295SOL    HW154782  11.753  10.305   2.600
84295SOL    HW254783  11.795  10.209   2.491
84296SOL     OW54784   4.899   0.507   4.503
84296SOL    HW154785   4.808   0.534   4.507
84296SOL    HW254786   4.904   0.430   4.559
84297SOL     OW54787   6.982   0.826   1.392
84297SOL    HW154788   6.900   0.784   1.418
84297SOL    HW254789   7.036   0.824   1.471
84298SOL     OW54790   4.009  10.404   5.071
84298SOL    HW154791   4.068  10.358   5.011
84298SOL    HW254792   4.008  10.494   5.039
84299SOL     OW54793   1.470   4.455   6.865
84299SOL    HW154794   1.406   4.496   6.923
84299SOL    HW254795   1.444   4.484   6.777
84300SOL     OW54796   5.680   8.565  11.729
84300SOL    HW154797   5.707   8.502  11.661
84300SOL    HW254798   5.761   8.612  11.750
84301SOL     OW54799   6.482   6.892   7.534
84301SOL    HW154800   6.467   6.946   7.457
84301SOL    HW254801   6.445   6.942   7.607
84302SOL     OW54802  11.325  13.531  13.682
84302SOL    HW154803  11.328  13.564  13.592
84302SOL    HW254804  11.306  13.438  13.672
84303SOL     OW54805   9.880  10.251  13.967
84303SOL    HW154806   9.903  10.340  13.994
84303SOL    HW254807   9.957  10.221  13.919
84304SOL     OW54808   0.374   0.755   1.569
84304SOL    HW154809   0.294   0.806   1.557
84304SOL    HW254810   0.352   0.668   1.535
84305SOL     OW54811  13.379   4.595   1.399
84305SOL    HW154812  13.390   4.500   1.386
84305SOL    HW254813  13.298   4.602   1.449
84306SOL     OW54814  11.432  11.375  12.853
84306SOL    HW154815  11.472  11.460  12.871
84306SOL    HW254816  11.375  11.359  12.928
84307SOL     OW54817   6.186   4.451  11.471
84307SOL    HW154818   6.205   4.461  11.378
84307SOL    HW254819   6.272   4.441  11.512
84308SOL     OW54820  11.061  14.048  14.417
84308SOL    HW154821  11.135  14.020  14.470
84308SOL    HW254822  11.100  14.100  14.346
84309SOL     OW54823  11.603   3.593   7.816
84309SOL    HW154824  11.633   3.630   7.899
84309SOL    HW254825  11.591   3.500   7.834
84310SOL     OW54826  10.858   4.553   3.108
84310SOL    HW154827  10.937   4.569   3.159
84310SOL    HW254828  10.865   4.462   3.079
84311SOL     OW54829   3.947   2.356   5.382
84311SOL    HW154830   3.950   2.294   5.309
84311SOL    HW254831   3.985   2.307   5.456
84312SOL     OW54832  11.672   3.958   7.199
84312SOL    HW154833  11.726   4.030   7.229
84312SOL    HW254834  11.730   3.881   7.203
84313SOL     OW54835   9.057   5.594   7.381
84313SOL    HW154836   9.060   5.681   7.422
84313SOL    HW254837   8.985   5.550   7.425
84314SOL     OW54838   7.226  10.318   3.232
84314SOL    HW154839   7.283  10.298   3.159
84314SOL    HW254840   7.267  10.393   3.275
84315SOL     OW54841  14.290   0.611   4.135
84315SOL    HW154842  14.303   0.587   4.043
84315SOL    HW254843  14.301   0.706   4.137
84316SOL     OW54844   4.168  14.214   1.692
84316SOL    HW154845   4.216  14.205   1.610
84316SOL    HW254846   4.105  14.142   1.691
84317SOL     OW54847   5.871  12.519   4.836
84317SOL    HW154848   5.951  12.535   4.886
84317SOL    HW254849   5.870  12.589   4.770
84318SOL     OW54850   3.049   6.847   4.212
84318SOL    HW154851   3.089   6.918   4.163
84318SOL    HW254852   3.120   6.813   4.267
84319SOL     OW54853   8.351   8.801   5.559
84319SOL    HW154854   8.265   8.769   5.588
84319SOL    HW254855   8.334   8.890   5.529
84320SOL     OW54856   4.659   3.882   8.103
84320SOL    HW154857   4.621   3.878   8.015
84320SOL    HW254858   4.717   3.958   8.101
84321SOL     OW54859   9.420  11.092   2.947
84321SOL    HW154860   9.408  11.148   3.025
84321SOL    HW254861   9.468  11.016   2.979
84322SOL     OW54862   6.147   2.185  13.658
84322SOL    HW154863   6.212   2.165  13.726
84322SOL    HW254864   6.112   2.270  13.684
84323SOL     OW54865  13.283   5.658   8.594
84323SOL    HW154866  13.348   5.615   8.539
84323SOL    HW254867  13.330   5.733   8.632
84324SOL     OW54868   9.771   5.595   8.742
84324SOL    HW154869   9.800   5.684   8.762
84324SOL    HW254870   9.852   5.549   8.717
84325SOL     OW54871   9.317   4.850  10.254
84325SOL    HW154872   9.291   4.880  10.167
84325SOL    HW254873   9.247   4.880  10.312
84326SOL     OW54874   4.005   9.882   9.438
84326SOL    HW154875   4.089   9.880   9.392
84326SOL    HW254876   3.981   9.974   9.442
84327SOL     OW54877  13.523   7.489   2.263
84327SOL    HW154878  13.573   7.447   2.334
84327SOL    HW254879  13.553   7.444   2.184
84328SOL     OW54880   7.355   8.891  12.164
84328SOL    HW154881   7.411   8.864  12.091
84328SOL    HW254882   7.324   8.978  12.139
84329SOL     OW54883   3.102  13.684  12.026
84329SOL    HW154884   3.050  13.642  11.958
84329SOL    HW254885   3.186  13.704  11.984
84330SOL     OW54886   8.268  11.897   0.145
84330SOL    HW154887   8.318  11.977   0.164
84330SOL    HW254888   8.253  11.900   0.050
84331SOL     OW54889  14.835   5.969   9.301
84331SOL    HW154890  14.819   5.939   9.390
84331SOL    HW254891  14.785   6.051   9.294
84332SOL     OW54892   4.906  13.501   2.213
84332SOL    HW154893   4.992  13.482   2.251
84332SOL    HW254894   4.911  13.593   2.188
84333SOL     OW54895   1.180  12.067   7.011
84333SOL    HW154896   1.128  11.996   7.048
84333SOL    HW254897   1.210  12.118   7.086
84334SOL     OW54898   8.593   9.274  10.602
84334SOL    HW154899   8.657   9.262  10.531
84334SOL    HW254900   8.597   9.191  10.651
84335SOL     OW54901   8.621  12.788   5.538
84335SOL    HW154902   8.609  12.804   5.631
84335SOL    HW254903   8.655  12.699   5.533
84336SOL     OW54904   8.633   5.081   8.402
84336SOL    HW154905   8.599   5.164   8.368
84336SOL    HW254906   8.647   5.027   8.324
84337SOL     OW54907   2.543   3.559   6.292
84337SOL    HW154908   2.502   3.472   6.293
84337SOL    HW254909   2.549   3.582   6.200
84338SOL     OW54910  14.021   0.218   9.726
84338SOL    HW154911  14.068   0.208   9.809
84338SOL    HW254912  14.037   0.135   9.680
84339SOL     OW54913  11.374   9.582   8.266
84339SOL    HW154914  11.315   9.512   8.236
84339SOL    HW254915  11.321   9.662   8.260
84340SOL     OW54916  10.673   0.040   3.793
84340SOL    HW154917  10.750   0.069   3.744
84340SOL    HW254918  10.598   0.072   3.742
84341SOL     OW54919   2.599   0.698   8.279
84341SOL    HW154920   2.604   0.769   8.344
84341SOL    HW254921   2.531   0.728   8.217
84342SOL     OW54922  12.015   3.829   8.075
84342SOL    HW154923  11.994   3.749   8.122
84342SOL    HW254924  12.077   3.802   8.008
84343SOL     OW54925   4.035   8.496   3.065
84343SOL    HW154926   3.979   8.557   3.016
84343SOL    HW254927   4.012   8.410   3.031
84344SOL     OW54928   6.303   9.719  12.490
84344SOL    HW154929   6.231   9.754  12.438
84344SOL    HW254930   6.317   9.630  12.457
84345SOL     OW54931  14.867   4.304   7.817
84345SOL    HW154932  14.825   4.221   7.839
84345SOL    HW254933   0.054   4.281   7.756
84346SOL     OW54934   2.288   2.863   1.964
84346SOL    HW154935   2.280   2.786   1.907
84346SOL    HW254936   2.250   2.935   1.912
84347SOL     OW54937  11.353  12.519   2.182
84347SOL    HW154938  11.436  12.541   2.223
84347SOL    HW254939  11.377  12.489   2.095
84348SOL     OW54940  11.429   5.538   3.660
84348SOL    HW154941  11.447   5.608   3.597
84348SOL    HW254942  11.382   5.472   3.609
84349SOL     OW54943   4.543  11.928   2.565
84349SOL    HW154944   4.569  11.935   2.657
84349SOL    HW254945   4.485  11.852   2.562
84350SOL     OW54946   2.267   1.636  10.158
84350SOL    HW154947   2.172   1.641  10.164
84350SOL    HW254948   2.299   1.705  10.216
84351SOL     OW54949   4.277   2.276   5.903
84351SOL    HW154950   4.334   2.199   5.903
84351SOL    HW254951   4.312   2.333   5.834
84352SOL     OW54952  10.153  13.018   6.823
84352SOL    HW154953  10.122  13.088   6.880
84352SOL    HW254954  10.132  12.938   6.871
84353SOL     OW54955   3.767   2.973   4.508
84353SOL    HW154956   3.686   2.936   4.542
84353SOL    HW254957   3.739   3.040   4.445
84354SOL     OW54958   8.884  11.538   2.160
84354SOL    HW154959   8.821  11.486   2.109
84354SOL    HW254960   8.838  11.558   2.242
84355SOL     OW54961  13.658   8.921   3.905
84355SOL    HW154962  13.673   8.946   3.996
84355SOL    HW254963  13.567   8.945   3.888
84356SOL     OW54964   1.561   7.853   1.259
84356SOL    HW154965   1.522   7.927   1.212
84356SOL    HW254966   1.590   7.793   1.190
84357SOL     OW54967   4.126   3.980   8.869
84357SOL    HW154968   4.085   4.057   8.830
84357SOL    HW254969   4.104   3.909   8.809
84358SOL     OW54970  10.970   0.240   9.294
84358SOL    HW154971  10.900   0.183   9.325
84358SOL    HW254972  11.004   0.282   9.373
84359SOL     OW54973   5.188  13.490   8.300
84359SOL    HW154974   5.202  13.546   8.223
84359SOL    HW254975   5.094  13.496   8.316
84360SOL     OW54976   4.215   7.783   7.499
84360SOL    HW154977   4.174   7.867   7.517
84360SOL    HW254978   4.182   7.725   7.567
84361SOL     OW54979  14.788   1.479   7.893
84361SOL    HW154980  14.759   1.519   7.811
84361SOL    HW254981  14.860   1.422   7.868
84362SOL     OW54982   2.065  12.340   2.954
84362SOL    HW154983   2.054  12.432   2.933
84362SOL    HW254984   2.122  12.306   2.886
84363SOL     OW54985  10.437   1.672   7.179
84363SOL    HW154986  10.472   1.590   7.214
84363SOL    HW254987  10.511   1.711   7.132
84364SOL     OW54988  13.693  14.038   8.421
84364SOL    HW154989  13.631  14.038   8.348
84364SOL    HW254990  13.639  14.049   8.499
84365SOL     OW54991   0.848  12.987   4.315
84365SOL    HW154992   0.815  12.904   4.349
84365SOL    HW254993   0.893  13.027   4.390
84366SOL     OW54994  12.640  10.376   4.142
84366SOL    HW154995  12.645  10.300   4.083
84366SOL    HW254996  12.707  10.359   4.208
84367SOL     OW54997   1.194  12.504  13.692
84367SOL    HW154998   1.157  12.474  13.609
84367SOL    HW254999   1.129  12.566  13.726
84368SOL     OW55000   2.270   2.700   3.222
84368SOL    HW155001   2.230   2.633   3.166
84368SOL    HW255002   2.201   2.726   3.282
84369SOL     OW55003   8.287  14.626  12.703
84369SOL    HW155004   8.216  14.686  12.678
84369SOL    HW255005   8.287  14.559  12.634
84370SOL     OW55006  10.939  11.876  14.786
84370SOL    HW155007  10.918  11.913  14.700
84370SOL    HW255008  10.864  11.822  14.809
84371SOL     OW55009   3.684   6.469   8.909
84371SOL    HW155010   3.629   6.526   8.856
84371SOL    HW255011   3.734   6.529   8.964
84372SOL     OW55012   3.747   4.529  13.710
84372SOL    HW155013   3.767   4.566  13.624
84372SOL    HW255014   3.651   4.527  13.714
84373SOL     OW55015  12.333   0.604   4.865
84373SOL    HW155016  12.407   0.663   4.867
84373SOL    HW255017  12.283   0.625   4.944
84374SOL     OW55018   8.228   8.991   6.465
84374SOL    HW155019   8.169   8.974   6.539
84374SOL    HW255020   8.169   9.014   6.393
84375SOL     OW55021  13.918  11.139   9.177
84375SOL    HW155022  13.904  11.205   9.244
84375SOL    HW255023  13.905  11.185   9.094
84376SOL     OW55024   4.095   0.382  14.053
84376SOL    HW155025   4.057   0.297  14.031
84376SOL    HW255026   4.032   0.446  14.022
84377SOL     OW55027   3.768   4.560  13.397
84377SOL    HW155028   3.704   4.575  13.328
84377SOL    HW255029   3.829   4.497  13.359
84378SOL     OW55030   3.834   2.783   9.060
84378SOL    HW155031   3.876   2.864   9.029
84378SOL    HW255032   3.742   2.794   9.038
84379SOL     OW55033   0.043   4.773   5.240
84379SOL    HW155034   0.061   4.712   5.168
84379SOL    HW255035  14.849   4.823   5.211
84380SOL     OW55036   0.235  13.907   4.698
84380SOL    HW155037   0.323  13.889   4.666
84380SOL    HW255038   0.190  13.949   4.624
84381SOL     OW55039   8.503   4.395   8.828
84381SOL    HW155040   8.535   4.318   8.781
84381SOL    HW255041   8.579   4.452   8.836
84382SOL     OW55042  12.730  14.129   3.038
84382SOL    HW155043  12.636  14.114   3.047
84382SOL    HW255044  12.753  14.093   2.953
84383SOL     OW55045   7.395  10.966   1.897
84383SOL    HW155046   7.333  11.040   1.895
84383SOL    HW255047   7.409  10.945   1.805
84384SOL     OW55048   7.596   5.889   0.212
84384SOL    HW155049   7.687   5.900   0.240
84384SOL    HW255050   7.586   5.949   0.139
84385SOL     OW55051  13.899   8.566   0.707
84385SOL    HW155052  13.831   8.498   0.713
84385SOL    HW255053  13.965   8.539   0.771
84386SOL     OW55054   9.398   3.178  12.010
84386SOL    HW155055   9.453   3.231  11.953
84386SOL    HW255056   9.421   3.088  11.989
84387SOL     OW55057   8.762   3.548  10.021
84387SOL    HW155058   8.736   3.636  10.050
84387SOL    HW255059   8.785   3.559   9.929
84388SOL     OW55060  10.149  13.654  14.421
84388SOL    HW155061  10.202  13.581  14.452
84388SOL    HW255062  10.059  13.629  14.442
84389SOL     OW55063  14.882  14.213  12.742
84389SOL    HW155064   0.082  14.260  12.756
84389SOL    HW255065   0.006  14.136  12.799
84390SOL     OW55066   9.004   0.992  14.302
84390SOL    HW155067   8.954   1.016  14.224
84390SOL    HW255068   9.075   0.937  14.267
84391SOL     OW55069   6.305   9.585  10.648
84391SOL    HW155070   6.312   9.623  10.736
84391SOL    HW255071   6.221   9.617  10.615
84392SOL     OW55072  10.935  13.618   5.456
84392SOL    HW155073  10.870  13.684   5.434
84392SOL    HW255074  10.899  13.536   5.422
84393SOL     OW55075   2.553   0.951   7.747
84393SOL    HW155076   2.566   0.987   7.834
84393SOL    HW255077   2.603   0.869   7.747
84394SOL     OW55078   1.759   2.281   4.940
84394SOL    HW155079   1.751   2.188   4.960
84394SOL    HW255080   1.794   2.284   4.851
84395SOL     OW55081   1.593   6.286  10.316
84395SOL    HW155082   1.577   6.257  10.406
84395SOL    HW255083   1.509   6.321  10.287
84396SOL     OW55084   7.937   6.917   5.498
84396SOL    HW155085   7.898   6.847   5.446
84396SOL    HW255086   7.949   6.989   5.436
84397SOL     OW55087   9.306   0.995   2.451
84397SOL    HW155088   9.253   0.951   2.518
84397SOL    HW255089   9.395   0.995   2.488
84398SOL     OW55090  12.896   3.603  10.908
84398SOL    HW155091  12.882   3.609  11.003
84398SOL    HW255092  12.809   3.618  10.871
84399SOL     OW55093   2.396  13.646   5.848
84399SOL    HW155094   2.376  13.732   5.883
84399SOL    HW255095   2.372  13.585   5.918
84400SOL     OW55096   8.769   0.856   6.077
84400SOL    HW155097   8.841   0.798   6.052
84400SOL    HW255098   8.800   0.902   6.154
84401SOL     OW55099  14.073  12.167   1.088
84401SOL    HW155100  14.160  12.128   1.079
84401SOL    HW255101  14.013  12.093   1.086
84402SOL     OW55102  12.042   8.016  13.821
84402SOL    HW155103  12.036   7.960  13.744
84402SOL    HW255104  12.136   8.028  13.835
84403SOL     OW55105   1.370   5.911   4.333
84403SOL    HW155106   1.427   5.901   4.410
84403SOL    HW255107   1.405   5.850   4.269
84404SOL     OW55108   3.429   7.806   1.987
84404SOL    HW155109   3.360   7.740   1.983
84404SOL    HW255110   3.427   7.837   2.077
84405SOL     OW55111   6.602  10.891   7.562
84405SOL    HW155112   6.616  10.828   7.632
84405SOL    HW255113   6.508  10.911   7.567
84406SOL     OW55114   5.338   4.055   6.789
84406SOL    HW155115   5.344   4.150   6.791
84406SOL    HW255116   5.429   4.024   6.797
84407SOL     OW55117   0.728  13.315   4.583
84407SOL    HW155118   0.659  13.319   4.517
84407SOL    HW255119   0.690  13.357   4.660
84408SOL     OW55120   5.919   4.295   6.619
84408SOL    HW155121   6.014   4.294   6.612
84408SOL    HW255122   5.889   4.233   6.552
84409SOL     OW55123   0.095   5.401   0.884
84409SOL    HW155124   0.049   5.434   0.961
84409SOL    HW255125   0.173   5.457   0.878
84410SOL     OW55126   7.772   3.495   3.092
84410SOL    HW155127   7.813   3.571   3.051
84410SOL    HW255128   7.727   3.451   3.020
84411SOL     OW55129   8.274   4.344   0.733
84411SOL    HW155130   8.215   4.402   0.781
84411SOL    HW255131   8.315   4.400   0.667
84412SOL     OW55132  12.529   7.675   0.115
84412SOL    HW155133  12.442   7.639   0.101
84412SOL    HW255134  12.586   7.624   0.058
84413SOL     OW55135   5.686   1.499  11.824
84413SOL    HW155136   5.621   1.568  11.807
84413SOL    HW255137   5.714   1.471  11.737
84414SOL     OW55138  10.624   4.343   4.672
84414SOL    HW155139  10.543   4.322   4.720
84414SOL    HW255140  10.668   4.407   4.728
84415SOL     OW55141  10.788  14.483  14.281
84415SOL    HW155142  10.763  14.432  14.204
84415SOL    HW255143  10.712  14.539  14.298
84416SOL     OW55144   9.003   7.263   0.834
84416SOL    HW155145   8.985   7.223   0.919
84416SOL    HW255146   9.045   7.346   0.855
84417SOL     OW55147   1.541   0.294   9.891
84417SOL    HW155148   1.510   0.206   9.871
84417SOL    HW255149   1.462   0.348   9.891
84418SOL     OW55150  10.776   4.093  13.110
84418SOL    HW155151  10.685   4.066  13.099
84418SOL    HW255152  10.824   4.010  13.118
84419SOL     OW55153   2.049  13.364  11.187
84419SOL    HW155154   2.026  13.389  11.276
84419SOL    HW255155   1.966  13.338  11.147
84420SOL     OW55156  11.173   9.391  11.899
84420SOL    HW155157  11.162   9.296  11.897
84420SOL    HW255158  11.088   9.425  11.928
84421SOL     OW55159  13.767   2.455   8.713
84421SOL    HW155160  13.712   2.378   8.697
84421SOL    HW255161  13.826   2.458   8.637
84422SOL     OW55162   5.679  13.828   1.037
84422SOL    HW155163   5.756  13.778   1.066
84422SOL    HW255164   5.690  13.913   1.079
84423SOL     OW55165   5.588  11.921   0.875
84423SOL    HW155166   5.661  11.894   0.820
84423SOL    HW255167   5.630  11.962   0.951
84424SOL     OW55168   2.009  10.108  12.508
84424SOL    HW155169   2.041  10.153  12.430
84424SOL    HW255170   1.979  10.023  12.475
84425SOL     OW55171   1.542   4.111   6.033
84425SOL    HW155172   1.588   4.176   6.086
84425SOL    HW255173   1.450   4.125   6.054
84426SOL     OW55174  13.259  12.441  12.454
84426SOL    HW155175  13.297  12.509  12.398
84426SOL    HW255176  13.301  12.454  12.538
84427SOL     OW55177   4.540   8.011   4.520
84427SOL    HW155178   4.554   8.007   4.426
84427SOL    HW255179   4.619   7.973   4.558
84428SOL     OW55180   2.634   3.603   5.705
84428SOL    HW155181   2.561   3.562   5.659
84428SOL    HW255182   2.648   3.547   5.782
84429SOL     OW55183   5.842  11.485  10.107
84429SOL    HW155184   5.754  11.480  10.144
84429SOL    HW255185   5.900  11.469  10.181
84430SOL     OW55186   9.890  12.689  11.142
84430SOL    HW155187   9.801  12.725  11.139
84430SOL    HW255188   9.878  12.595  11.155
84431SOL     OW55189   6.243  13.915   6.122
84431SOL    HW155190   6.294  13.993   6.144
84431SOL    HW255191   6.168  13.949   6.072
84432SOL     OW55192  14.366   1.616   0.289
84432SOL    HW155193  14.330   1.621   0.201
84432SOL    HW255194  14.299   1.655   0.345
84433SOL     OW55195  11.558   2.934   0.956
84433SOL    HW155196  11.644   2.974   0.966
84433SOL    HW255197  11.561   2.890   0.871
84434SOL     OW55198   2.311   4.580   5.844
84434SOL    HW155199   2.326   4.507   5.784
84434SOL    HW255200   2.227   4.561   5.885
84435SOL     OW55201   1.425   3.303   5.191
84435SOL    HW155202   1.434   3.224   5.245
84435SOL    HW255203   1.455   3.374   5.248
84436SOL     OW55204  13.439   1.322  11.145
84436SOL    HW155205  13.384   1.399  11.126
84436SOL    HW255206  13.380   1.262  11.192
84437SOL     OW55207   3.896  13.532   0.187
84437SOL    HW155208   3.828  13.515   0.252
84437SOL    HW255209   3.856  13.592   0.125
84438SOL     OW55210   0.618   7.779   5.134
84438SOL    HW155211   0.592   7.859   5.089
84438SOL    HW255212   0.685   7.741   5.078
84439SOL     OW55213   9.257   5.272   1.083
84439SOL    HW155214   9.305   5.219   1.147
84439SOL    HW255215   9.213   5.208   1.027
84440SOL     OW55216  14.826  13.286  12.977
84440SOL    HW155217  14.876  13.217  12.934
84440SOL    HW255218  14.738  13.249  12.987
84441SOL     OW55219   1.376  10.022   0.724
84441SOL    HW155220   1.330   9.945   0.690
84441SOL    HW255221   1.350  10.026   0.816
84442SOL     OW55222  10.330  12.056   7.178
84442SOL    HW155223  10.282  12.105   7.245
84442SOL    HW255224  10.311  12.101   7.096
84443SOL     OW55225  10.968   5.318   2.036
84443SOL    HW155226  11.050   5.331   1.988
84443SOL    HW255227  10.915   5.263   1.979
84444SOL     OW55228   9.368   7.769  10.971
84444SOL    HW155229   9.326   7.687  10.995
84444SOL    HW255230   9.350   7.827  11.045
84445SOL     OW55231   8.355   3.190  11.520
84445SOL    HW155232   8.266   3.174  11.553
84445SOL    HW255233   8.363   3.132  11.444
84446SOL     OW55234   3.305   1.932   2.870
84446SOL    HW155235   3.240   1.951   2.937
84446SOL    HW255236   3.254   1.913   2.791
84447SOL     OW55237   7.274   5.937  11.804
84447SOL    HW155238   7.247   5.937  11.712
84447SOL    HW255239   7.343   6.003  11.810
84448SOL     OW55240  13.209   1.491   9.835
84448SOL    HW155241  13.302   1.482   9.855
84448SOL    HW255242  13.170   1.523   9.916
84449SOL     OW55243   5.385   4.739   4.034
84449SOL    HW155244   5.404   4.725   3.941
84449SOL    HW255245   5.463   4.781   4.069
84450SOL     OW55246   4.770  14.621   4.149
84450SOL    HW155247   4.794  14.546   4.094
84450SOL    HW255248   4.690  14.594   4.193
84451SOL     OW55249  11.708  12.214   3.536
84451SOL    HW155250  11.768  12.193   3.607
84451SOL    HW255251  11.647  12.278   3.574
84452SOL     OW55252   7.341   5.530   1.109
84452SOL    HW155253   7.402   5.530   1.036
84452SOL    HW255254   7.349   5.442   1.147
84453SOL     OW55255  12.020   2.067   8.550
84453SOL    HW155256  12.077   1.999   8.515
84453SOL    HW255257  12.045   2.075   8.642
84454SOL     OW55258   3.973   4.537   2.708
84454SOL    HW155259   3.904   4.470   2.709
84454SOL    HW255260   3.947   4.599   2.776
84455SOL     OW55261   5.748   6.239   8.419
84455SOL    HW155262   5.732   6.172   8.487
84455SOL    HW255263   5.690   6.213   8.347
84456SOL     OW55264  10.758  14.699   9.942
84456SOL    HW155265  10.814  14.718   9.866
84456SOL    HW255266  10.770  14.773  10.001
84457SOL     OW55267   1.203   6.193   3.639
84457SOL    HW155268   1.199   6.172   3.732
84457SOL    HW255269   1.112   6.215   3.616
84458SOL     OW55270   6.851  14.847   1.625
84458SOL    HW155271   6.849  14.753   1.644
84458SOL    HW255272   6.919  14.857   1.558
84459SOL     OW55273   1.738  12.604  11.488
84459SOL    HW155274   1.658  12.555  11.469
84459SOL    HW255275   1.798  12.539  11.525
84460SOL     OW55276   0.005   9.293   8.421
84460SOL    HW155277  14.878   9.218   8.362
84460SOL    HW255278  14.865   9.369   8.367
84461SOL     OW55279   0.777  12.709   9.092
84461SOL    HW155280   0.732  12.792   9.110
84461SOL    HW255281   0.808  12.717   9.002
84462SOL     OW55282   1.966   3.865   8.512
84462SOL    HW155283   2.056   3.894   8.529
84462SOL    HW255284   1.973   3.812   8.433
84463SOL     OW55285   2.130   3.152  14.819
84463SOL    HW155286   2.098   3.115  14.736
84463SOL    HW255287   2.223   3.168  14.803
84464SOL     OW55288   1.767   5.101   8.804
84464SOL    HW155289   1.777   5.012   8.837
84464SOL    HW255290   1.711   5.145   8.869
84465SOL     OW55291  13.670   3.457   9.145
84465SOL    HW155292  13.663   3.380   9.089
84465SOL    HW255293  13.682   3.421   9.233
84466SOL     OW55294   3.471   1.952   5.557
84466SOL    HW155295   3.435   2.012   5.623
84466SOL    HW255296   3.538   2.004   5.512
84467SOL     OW55297   0.107   2.268   4.253
84467SOL    HW155298   0.170   2.197   4.250
84467SOL    HW255299   0.160   2.347   4.258
84468SOL     OW55300   0.127   2.266   1.686
84468SOL    HW155301   0.046   2.317   1.679
84468SOL    HW255302   0.100   2.181   1.721
84469SOL     OW55303  13.664   3.137   1.078
84469SOL    HW155304  13.621   3.140   0.993
84469SOL    HW255305  13.677   3.228   1.102
84470SOL     OW55306   3.179  11.079   3.526
84470SOL    HW155307   3.264  11.054   3.489
84470SOL    HW255308   3.201  11.122   3.609
84471SOL     OW55309   3.571   8.344   3.305
84471SOL    HW155310   3.553   8.406   3.234
84471SOL    HW255311   3.516   8.268   3.284
84472SOL     OW55312   5.784   5.392   5.630
84472SOL    HW155313   5.798   5.487   5.626
84472SOL    HW255314   5.849   5.361   5.693
84473SOL     OW55315   9.760   8.542   4.721
84473SOL    HW155316   9.805   8.473   4.770
84473SOL    HW255317   9.804   8.543   4.636
84474SOL     OW55318   5.216   4.045   5.227
84474SOL    HW155319   5.244   4.098   5.301
84474SOL    HW255320   5.177   4.108   5.166
84475SOL     OW55321  12.804   3.986   0.819
84475SOL    HW155322  12.816   4.081   0.809
84475SOL    HW255323  12.772   3.957   0.734
84476SOL     OW55324   3.499  11.396   8.685
84476SOL    HW155325   3.584  11.436   8.707
84476SOL    HW255326   3.466  11.449   8.613
84477SOL     OW55327   3.389   3.902  10.565
84477SOL    HW155328   3.317   3.960  10.541
84477SOL    HW255329   3.390   3.836  10.496
84478SOL     OW55330  13.302   7.655  10.145
84478SOL    HW155331  13.369   7.696  10.091
84478SOL    HW255332  13.350   7.624  10.223
84479SOL     OW55333   9.723   6.373   0.330
84479SOL    HW155334   9.689   6.404   0.246
84479SOL    HW255335   9.705   6.279   0.329
84480SOL     OW55336   9.307   8.167  12.081
84480SOL    HW155337   9.365   8.171  12.005
84480SOL    HW255338   9.333   8.241  12.135
84481SOL     OW55339   8.458   6.929   3.929
84481SOL    HW155340   8.545   6.889   3.920
84481SOL    HW255341   8.428   6.900   4.015
84482SOL     OW55342  10.181   8.324   0.859
84482SOL    HW155343  10.103   8.380   0.860
84482SOL    HW255344  10.147   8.235   0.847
84483SOL     OW55345  10.015   0.159   3.893
84483SOL    HW155346  10.098   0.113   3.878
84483SOL    HW255347  10.036   0.226   3.958
84484SOL     OW55348   5.956  14.770   3.902
84484SOL    HW155349   6.038  14.789   3.857
84484SOL    HW255350   5.978  14.696   3.959
84485SOL     OW55351  14.107  14.223  12.485
84485SOL    HW155352  14.151  14.177  12.556
84485SOL    HW255353  14.038  14.274  12.528
84486SOL     OW55354   8.201   1.442  13.464
84486SOL    HW155355   8.146   1.380  13.510
84486SOL    HW255356   8.157   1.526  13.475
84487SOL     OW55357  12.546  13.354   3.611
84487SOL    HW155358  12.468  13.303   3.588
84487SOL    HW255359  12.516  13.445   3.612
84488SOL     OW55360  11.467   7.018   1.058
84488SOL    HW155361  11.477   7.091   0.997
84488SOL    HW255362  11.547   7.020   1.111
84489SOL     OW55363   6.403   9.049  12.853
84489SOL    HW155364   6.372   8.967  12.814
84489SOL    HW255365   6.485   9.025  12.897
84490SOL     OW55366   1.445  10.369   5.367
84490SOL    HW155367   1.385  10.315   5.316
84490SOL    HW255368   1.428  10.459   5.337
84491SOL     OW55369  13.925   8.303   3.828
84491SOL    HW155370  13.836   8.273   3.811
84491SOL    HW255371  13.928   8.316   3.923
84492SOL     OW55372  14.660   6.518   2.450
84492SOL    HW155373  14.654   6.515   2.355
84492SOL    HW255374  14.750   6.491   2.470
84493SOL     OW55375   7.145   0.210   3.807
84493SOL    HW155376   7.238   0.232   3.803
84493SOL    HW255377   7.108   0.252   3.729
84494SOL     OW55378   8.213   7.900   3.224
84494SOL    HW155379   8.210   7.806   3.207
84494SOL    HW255380   8.156   7.939   3.157
84495SOL     OW55381   6.917   1.843  10.027
84495SOL    HW155382   6.884   1.832  10.116
84495SOL    HW255383   6.924   1.754   9.993
84496SOL     OW55384  10.610   4.196   5.009
84496SOL    HW155385  10.545   4.265   4.997
84496SOL    HW255386  10.560   4.120   5.040
84497SOL     OW55387  14.319   0.335   5.121
84497SOL    HW155388  14.374   0.399   5.166
84497SOL    HW255389  14.230   0.371   5.128
84498SOL     OW55390   3.046   0.691   1.728
84498SOL    HW155391   3.099   0.724   1.655
84498SOL    HW255392   3.103   0.628   1.772
84499SOL     OW55393  12.721   9.221  11.223
84499SOL    HW155394  12.790   9.205  11.287
84499SOL    HW255395  12.730   9.313  11.200
84500SOL     OW55396   8.136  12.715  14.509
84500SOL    HW155397   8.124  12.805  14.540
84500SOL    HW255398   8.141  12.662  14.588
84501SOL     OW55399  12.377  11.984  12.423
84501SOL    HW155400  12.438  11.917  12.455
84501SOL    HW255401  12.292  11.940  12.421
84502SOL     OW55402  14.611   1.528   7.088
84502SOL    HW155403  14.659   1.605   7.058
84502SOL    HW255404  14.662   1.495   7.162
84503SOL     OW55405   2.543   8.831  14.774
84503SOL    HW155406   2.475   8.781  14.728
84503SOL    HW255407   2.496   8.905  14.812
84504SOL     OW55408   3.855  10.259   3.574
84504SOL    HW155409   3.839  10.167   3.554
84504SOL    HW255410   3.798  10.307   3.514
84505SOL     OW55411  10.508   1.043  10.948
84505SOL    HW155412  10.433   1.102  10.936
84505SOL    HW255413  10.481   0.984  11.019
84506SOL     OW55414   8.607   9.486   4.646
84506SOL    HW155415   8.583   9.499   4.555
84506SOL    HW255416   8.524   9.469   4.691
84507SOL     OW55417   8.958  12.697   9.915
84507SOL    HW155418   8.933  12.779   9.957
84507SOL    HW255419   8.876  12.661   9.881
84508SOL     OW55420   2.391   2.335   2.644
84508SOL    HW155421   2.455   2.380   2.699
84508SOL    HW255422   2.429   2.337   2.556
84509SOL     OW55423   8.644  13.577   2.185
84509SOL    HW155424   8.576  13.555   2.248
84509SOL    HW255425   8.706  13.504   2.190
84510SOL     OW55426  12.094   1.628   5.236
84510SOL    HW155427  12.174   1.677   5.217
84510SOL    HW255428  12.089   1.627   5.331
84511SOL     OW55429   9.507   1.833   5.176
84511SOL    HW155430   9.589   1.856   5.132
84511SOL    HW255431   9.461   1.916   5.186
84512SOL     OW55432   6.838   2.699   6.308
84512SOL    HW155433   6.751   2.666   6.326
84512SOL    HW255434   6.896   2.647   6.364
84513SOL     OW55435   0.876   2.116   0.255
84513SOL    HW155436   0.817   2.118   0.179
84513SOL    HW255437   0.964   2.117   0.218
84514SOL     OW55438  10.850  11.450   3.249
84514SOL    HW155439  10.943  11.450   3.268
84514SOL    HW255440  10.839  11.514   3.179
84515SOL     OW55441   8.811   0.513  13.178
84515SOL    HW155442   8.730   0.554  13.148
84515SOL    HW255443   8.794   0.489  13.269
84516SOL     OW55444   0.310   4.323   4.872
84516SOL    HW155445   0.310   4.419   4.872
84516SOL    HW255446   0.402   4.299   4.859
84517SOL     OW55447   8.649   5.352  14.504
84517SOL    HW155448   8.566   5.392  14.478
84517SOL    HW255449   8.623   5.276  14.556
84518SOL     OW55450   9.604   8.383   3.521
84518SOL    HW155451   9.520   8.408   3.483
84518SOL    HW255452   9.626   8.299   3.481
84519SOL     OW55453   4.957  10.156   7.976
84519SOL    HW155454   5.002  10.117   8.051
84519SOL    HW255455   4.870  10.177   8.009
84520SOL     OW55456   2.029   0.082   2.565
84520SOL    HW155457   2.052   0.022   2.635
84520SOL    HW255458   1.996   0.026   2.494
84521SOL     OW55459   9.594  13.997   8.323
84521SOL    HW155460   9.638  14.082   8.326
84521SOL    HW255461   9.583  13.978   8.230
84522SOL     OW55462   0.794   9.949   2.818
84522SOL    HW155463   0.856   9.877   2.817
84522SOL    HW255464   0.751   9.943   2.903
84523SOL     OW55465   3.683   5.659   8.263
84523SOL    HW155466   3.771   5.651   8.299
84523SOL    HW255467   3.629   5.686   8.337
84524SOL     OW55468   1.077  12.769   7.193
84524SOL    HW155469   1.165  12.766   7.155
84524SOL    HW255470   1.084  12.721   7.275
84525SOL     OW55471  13.324   6.913   1.656
84525SOL    HW155472  13.414   6.882   1.660
84525SOL    HW255473  13.329   6.995   1.605
84526SOL     OW55474   5.314   2.403   9.040
84526SOL    HW155475   5.255   2.477   9.023
84526SOL    HW255476   5.402   2.438   9.022
84527SOL     OW55477  13.699   0.883  12.491
84527SOL    HW155478  13.785   0.842  12.499
84527SOL    HW255479  13.716   0.977  12.496
84528SOL     OW55480   0.964   2.107   9.578
84528SOL    HW155481   0.943   2.146   9.494
84528SOL    HW255482   1.042   2.154   9.608
84529SOL     OW55483  11.687   1.785  14.876
84529SOL    HW155484  11.649   1.702   0.022
84529SOL    HW255485  11.757   1.802   0.056
84530SOL     OW55486  10.926  14.629  13.137
84530SOL    HW155487  11.009  14.677  13.132
84530SOL    HW255488  10.876  14.659  13.061
84531SOL     OW55489   0.158   2.717  11.578
84531SOL    HW155490   0.077   2.678  11.612
84531SOL    HW255491   0.203   2.644  11.535
84532SOL     OW55492   1.041   2.978  10.978
84532SOL    HW155493   1.092   2.986  11.058
84532SOL    HW255494   0.955   3.014  11.001
84533SOL     OW55495  10.727   4.381   0.554
84533SOL    HW155496  10.646   4.351   0.512
84533SOL    HW255497  10.777   4.301   0.570
84534SOL     OW55498  13.973  10.303  10.033
84534SOL    HW155499  13.939  10.311  10.122
84534SOL    HW255500  13.913  10.356   9.980
84535SOL     OW55501   5.900  13.069  12.236
84535SOL    HW155502   5.964  13.006  12.268
84535SOL    HW255503   5.853  13.022  12.167
84536SOL     OW55504  11.540  12.497   6.440
84536SOL    HW155505  11.603  12.548   6.389
84536SOL    HW255506  11.528  12.548   6.520
84537SOL     OW55507   1.783   6.577  13.990
84537SOL    HW155508   1.810   6.521  14.063
84537SOL    HW255509   1.692   6.554  13.974
84538SOL     OW55510   1.950   3.654   8.270
84538SOL    HW155511   1.969   3.560   8.277
84538SOL    HW255512   1.855   3.660   8.280
84539SOL     OW55513   2.311   9.899   1.106
84539SOL    HW155514   2.288   9.939   1.022
84539SOL    HW255515   2.277   9.960   1.172
84540SOL     OW55516   7.038   8.591   4.252
84540SOL    HW155517   7.070   8.637   4.330
84540SOL    HW255518   7.088   8.630   4.180
84541SOL     OW55519  12.299   2.506  13.374
84541SOL    HW155520  12.210   2.473  13.389
84541SOL    HW255521  12.305   2.584  13.429
84542SOL     OW55522   4.214  13.425   9.185
84542SOL    HW155523   4.121  13.439   9.202
84542SOL    HW255524   4.217  13.386   9.097
84543SOL     OW55525   3.277   1.334   0.291
84543SOL    HW155526   3.269   1.424   0.263
84543SOL    HW255527   3.307   1.340   0.382
84544SOL     OW55528   3.019   4.312   1.195
84544SOL    HW155529   2.977   4.274   1.117
84544SOL    HW255530   3.108   4.334   1.165
84545SOL     OW55531  11.211   6.563   1.538
84545SOL    HW155532  11.210   6.483   1.485
84545SOL    HW255533  11.130   6.608   1.514
84546SOL     OW55534   8.129   2.159   0.597
84546SOL    HW155535   8.215   2.140   0.635
84546SOL    HW255536   8.070   2.166   0.671
84547SOL     OW55537   8.248   7.291  14.610
84547SOL    HW155538   8.309   7.291  14.683
84547SOL    HW255539   8.162   7.277  14.649
84548SOL     OW55540  14.568  13.995  11.695
84548SOL    HW155541  14.601  14.055  11.628
84548SOL    HW255542  14.473  14.002  11.689
84549SOL     OW55543   5.817  10.743  13.970
84549SOL    HW155544   5.771  10.813  14.017
84549SOL    HW255545   5.910  10.762  13.983
84550SOL     OW55546   2.164   8.164   1.385
84550SOL    HW155547   2.249   8.189   1.348
84550SOL    HW255548   2.100   8.199   1.323
84551SOL     OW55549  11.815   3.293  10.902
84551SOL    HW155550  11.812   3.389  10.901
84551SOL    HW255551  11.728   3.266  10.874
84552SOL     OW55552   6.730  11.510  14.627
84552SOL    HW155553   6.674  11.580  14.660
84552SOL    HW255554   6.819  11.535  14.654
84553SOL     OW55555  10.149   3.893   0.118
84553SOL    HW155556  10.127   3.838   0.043
84553SOL    HW255557  10.236   3.927   0.097
84554SOL     OW55558  11.341  11.350  13.687
84554SOL    HW155559  11.366  11.265  13.651
84554SOL    HW255560  11.368  11.413  13.620
84555SOL     OW55561  10.861   8.430   0.769
84555SOL    HW155562  10.883   8.346   0.728
84555SOL    HW255563  10.826   8.484   0.698
84556SOL     OW55564   9.267  10.116   8.376
84556SOL    HW155565   9.282  10.109   8.470
84556SOL    HW255566   9.337  10.173   8.344
84557SOL     OW55567   9.804  11.954   3.926
84557SOL    HW155568   9.845  11.959   4.012
84557SOL    HW255569   9.774  12.043   3.908
84558SOL     OW55570  10.105  10.413  10.533
84558SOL    HW155571  10.165  10.452  10.596
84558SOL    HW255572  10.133  10.322  10.526
84559SOL     OW55573  13.721   0.565   9.453
84559SOL    HW155574  13.734   0.590   9.544
84559SOL    HW255575  13.630   0.534   9.450
84560SOL     OW55576   5.034   9.709   4.581
84560SOL    HW155577   4.992   9.731   4.498
84560SOL    HW255578   5.008   9.780   4.640
84561SOL     OW55579  12.038   9.804   4.850
84561SOL    HW155580  12.061   9.711   4.854
84561SOL    HW255581  12.122   9.849   4.843
84562SOL     OW55582  14.377   0.861   1.030
84562SOL    HW155583  14.466   0.896   1.030
84562SOL    HW255584  14.384   0.779   0.979
84563SOL     OW55585   1.066   4.141  10.654
84563SOL    HW155586   1.072   4.194  10.574
84563SOL    HW255587   1.157   4.121  10.677
84564SOL     OW55588  12.825   2.927  14.190
84564SOL    HW155589  12.800   2.877  14.268
84564SOL    HW255590  12.890   2.873  14.146
84565SOL     OW55591  11.819   0.748  10.817
84565SOL    HW155592  11.770   0.725  10.896
84565SOL    HW255593  11.876   0.821  10.845
84566SOL     OW55594   8.981   4.555  10.214
84566SOL    HW155595   9.015   4.586  10.297
84566SOL    HW255596   8.892   4.524  10.234
84567SOL     OW55597   5.403   9.224   8.947
84567SOL    HW155598   5.347   9.170   8.890
84567SOL    HW255599   5.435   9.164   9.014
84568SOL     OW55600  11.847   0.780   2.349
84568SOL    HW155601  11.938   0.783   2.322
84568SOL    HW255602  11.805   0.719   2.289
84569SOL     OW55603   4.578  10.993  11.123
84569SOL    HW155604   4.637  10.963  11.053
84569SOL    HW255605   4.625  10.973  11.204
84570SOL     OW55606   9.883   7.227   7.924
84570SOL    HW155607   9.940   7.162   7.965
84570SOL    HW255608   9.803   7.179   7.903
84571SOL     OW55609   9.828   3.986   8.397
84571SOL    HW155610   9.787   4.070   8.418
84571SOL    HW255611   9.755   3.928   8.377
84572SOL     OW55612  13.149   5.856  13.834
84572SOL    HW155613  13.185   5.933  13.791
84572SOL    HW255614  13.215   5.787  13.820
84573SOL     OW55615   1.623   7.343   2.449
84573SOL    HW155616   1.533   7.360   2.477
84573SOL    HW255617   1.632   7.390   2.367
84574SOL     OW55618  12.075   6.672  14.226
84574SOL    HW155619  12.146   6.736  14.236
84574SOL    HW255620  12.040   6.661  14.314
84575SOL     OW55621   3.737   1.193  14.117
84575SOL    HW155622   3.703   1.139  14.188
84575SOL    HW255623   3.667   1.255  14.097
84576SOL     OW55624  12.818   5.447   0.604
84576SOL    HW155625  12.843   5.407   0.520
84576SOL    HW255626  12.860   5.392   0.670
84577SOL     OW55627   9.361   7.418   3.707
84577SOL    HW155628   9.372   7.382   3.795
84577SOL    HW255629   9.442   7.466   3.691
84578SOL     OW55630   5.623   0.360   2.654
84578SOL    HW155631   5.673   0.371   2.573
84578SOL    HW255632   5.548   0.418   2.645
84579SOL     OW55633   6.937   5.262   3.636
84579SOL    HW155634   6.984   5.332   3.681
84579SOL    HW255635   6.962   5.270   3.544
84580SOL     OW55636   2.113   4.812  12.899
84580SOL    HW155637   2.139   4.865  12.974
84580SOL    HW255638   2.193   4.803  12.847
84581SOL     OW55639  13.444   9.168   2.861
84581SOL    HW155640  13.361   9.182   2.815
84581SOL    HW255641  13.445   9.237   2.928
84582SOL     OW55642  10.637   1.913  10.721
84582SOL    HW155643  10.608   1.902  10.811
84582SOL    HW255644  10.564   1.881  10.668
84583SOL     OW55645   1.002   6.496   8.090
84583SOL    HW155646   1.051   6.552   8.030
84583SOL    HW255647   1.062   6.482   8.164
84584SOL     OW55648   3.565   2.392   4.155
84584SOL    HW155649   3.629   2.322   4.150
84584SOL    HW255650   3.498   2.369   4.091
84585SOL     OW55651   9.641  12.130  11.364
84585SOL    HW155652   9.569  12.144  11.425
84585SOL    HW255653   9.720  12.151  11.414
84586SOL     OW55654   5.667   2.811  12.129
84586SOL    HW155655   5.661   2.894  12.176
84586SOL    HW255656   5.656   2.835  12.037
84587SOL     OW55657   5.360  14.086   6.384
84587SOL    HW155658   5.376  14.078   6.290
84587SOL    HW255659   5.413  14.016   6.423
84588SOL     OW55660  13.537   9.022   1.752
84588SOL    HW155661  13.480   8.998   1.825
84588SOL    HW255662  13.480   9.016   1.675
84589SOL     OW55663   0.192   6.143   9.394
84589SOL    HW155664   0.104   6.106   9.388
84589SOL    HW255665   0.207   6.155   9.488
84590SOL     OW55666   5.998   4.394   8.348
84590SOL    HW155667   6.054   4.471   8.339
84590SOL    HW255668   6.033   4.331   8.285
84591SOL     OW55669   0.201   9.169   6.926
84591SOL    HW155670   0.111   9.192   6.903
84591SOL    HW255671   0.236   9.128   6.847
84592SOL     OW55672   3.025   5.777  12.795
84592SOL    HW155673   2.955   5.841  12.791
84592SOL    HW255674   3.083   5.809  12.864
84593SOL     OW55675   9.270   9.762   0.122
84593SOL    HW155676   9.340   9.728   0.067
84593SOL    HW255677   9.190   9.726   0.084
84594SOL     OW55678   2.355  10.635  14.357
84594SOL    HW155679   2.450  10.645  14.348
84594SOL    HW255680   2.343  10.545  14.388
84595SOL     OW55681   8.288   4.266  11.829
84595SOL    HW155682   8.217   4.318  11.867
84595SOL    HW255683   8.332   4.327  11.769
84596SOL     OW55684   8.367  11.568   4.284
84596SOL    HW155685   8.421  11.490   4.272
84596SOL    HW255686   8.398  11.606   4.366
84597SOL     OW55687  11.468   9.516   4.352
84597SOL    HW155688  11.424   9.517   4.438
84597SOL    HW255689  11.425   9.585   4.303
84598SOL     OW55690   3.214   4.418   6.718
84598SOL    HW155691   3.172   4.501   6.739
84598SOL    HW255692   3.164   4.353   6.767
84599SOL     OW55693  14.429   9.084   1.761
84599SOL    HW155694  14.379   9.145   1.707
84599SOL    HW255695  14.367   9.012   1.779
84600SOL     OW55696   6.130   2.712   0.369
84600SOL    HW155697   6.183   2.654   0.424
84600SOL    HW255698   6.122   2.666   0.285
84601SOL     OW55699   1.307   3.907   0.165
84601SOL    HW155700   1.369   3.976   0.140
84601SOL    HW255701   1.235   3.953   0.207
84602SOL     OW55702  11.868   0.090   1.057
84602SOL    HW155703  11.789   0.072   1.108
84602SOL    HW255704  11.876   0.014   0.999
84603SOL     OW55705  14.279   6.810  12.464
84603SOL    HW155706  14.353   6.807  12.403
84603SOL    HW255707  14.223   6.737  12.438
84604SOL     OW55708   5.966   5.163  13.976
84604SOL    HW155709   5.879   5.166  13.937
84604SOL    HW255710   5.982   5.070  13.991
84605SOL     OW55711  14.421   4.866   4.768
84605SOL    HW155712  14.512   4.836   4.769
84605SOL    HW255713  14.384   4.833   4.850
84606SOL     OW55714  14.542   2.725  14.162
84606SOL    HW155715  14.547   2.765  14.248
84606SOL    HW255716  14.620   2.757  14.116
84607SOL     OW55717   8.720   2.535  11.768
84607SOL    HW155718   8.746   2.622  11.738
84607SOL    HW255719   8.645   2.552  11.826
84608SOL     OW55720  13.512  10.976  13.231
84608SOL    HW155721  13.419  10.998  13.228
84608SOL    HW255722  13.527  10.951  13.322
84609SOL     OW55723   1.816  10.608  14.266
84609SOL    HW155724   1.821  10.562  14.182
84609SOL    HW255725   1.734  10.577  14.305
84610SOL     OW55726  14.475   5.811   7.170
84610SOL    HW155727  14.399   5.828   7.224
84610SOL    HW255728  14.519   5.737   7.211
84611SOL     OW55729   1.882   4.002  12.498
84611SOL    HW155730   1.874   4.088  12.456
84611SOL    HW255731   1.976   3.987  12.504
84612SOL     OW55732  14.640   7.298  10.638
84612SOL    HW155733  14.583   7.251  10.577
84612SOL    HW255734  14.596   7.382  10.651
84613SOL     OW55735   4.298   8.887   8.078
84613SOL    HW155736   4.363   8.834   8.031
84613SOL    HW255737   4.214   8.852   8.049
84614SOL     OW55738   6.904  10.939   9.652
84614SOL    HW155739   6.997  10.963   9.656
84614SOL    HW255740   6.904  10.849   9.619
84615SOL     OW55741  10.613   4.236  13.912
84615SOL    HW155742  10.677   4.201  13.974
84615SOL    HW255743  10.563   4.300  13.962
84616SOL     OW55744   5.733  11.786   9.595
84616SOL    HW155745   5.693  11.813   9.513
84616SOL    HW255746   5.693  11.702   9.616
84617SOL     OW55747  10.231   2.152   1.036
84617SOL    HW155748  10.236   2.247   1.049
84617SOL    HW255749  10.280   2.136   0.956
84618SOL     OW55750   8.629   9.024   3.021
84618SOL    HW155751   8.692   8.973   2.969
84618SOL    HW255752   8.549   9.023   2.969
84619SOL     OW55753  10.260   1.140  14.748
84619SOL    HW155754  10.179   1.097  14.774
84619SOL    HW255755  10.263   1.132  14.653
84620SOL     OW55756   8.912   7.262   1.403
84620SOL    HW155757   8.826   7.260   1.444
84620SOL    HW255758   8.973   7.272   1.475
84621SOL     OW55759   8.006   3.078   6.172
84621SOL    HW155760   7.937   3.067   6.107
84621SOL    HW255761   8.087   3.059   6.124
84622SOL     OW55762   7.232   4.978   1.813
84622SOL    HW155763   7.180   4.985   1.733
84622SOL    HW255764   7.189   4.909   1.863
84623SOL     OW55765   6.281   8.048  13.370
84623SOL    HW155766   6.318   8.082  13.288
84623SOL    HW255767   6.337   7.974  13.392
84624SOL     OW55768  13.012   2.726  13.463
84624SOL    HW155769  13.079   2.742  13.529
84624SOL    HW255770  13.041   2.646  13.419
84625SOL     OW55771  12.027  13.767   4.426
84625SOL    HW155772  12.088  13.698   4.398
84625SOL    HW255773  12.049  13.783   4.517
84626SOL     OW55774   1.946  14.050   5.172
84626SOL    HW155775   1.935  14.089   5.258
84626SOL    HW255776   1.882  13.978   5.169
84627SOL     OW55777   8.348   0.688  12.935
84627SOL    HW155778   8.275   0.648  12.982
84627SOL    HW255779   8.306   0.738  12.864
84628SOL     OW55780  11.051  10.822  12.238
84628SOL    HW155781  11.009  10.898  12.277
84628SOL    HW255782  11.019  10.747  12.289
84629SOL     OW55783  11.934   9.596   8.659
84629SOL    HW155784  11.890   9.621   8.740
84629SOL    HW255785  11.966   9.679   8.623
84630SOL     OW55786  10.042   7.039  12.642
84630SOL    HW155787   9.981   7.109  12.665
84630SOL    HW255788  10.069   7.002  12.727
84631SOL     OW55789  13.257   6.656   9.987
84631SOL    HW155790  13.175   6.704   9.978
84631SOL    HW255791  13.299   6.663   9.901
84632SOL     OW55792  12.155  12.965  13.939
84632SOL    HW155793  12.238  12.918  13.930
84632SOL    HW255794  12.142  13.007  13.855
84633SOL     OW55795  14.713   0.311   8.809
84633SOL    HW155796  14.752   0.321   8.722
84633SOL    HW255797  14.621   0.336   8.797
84634SOL     OW55798   2.461   7.167   3.129
84634SOL    HW155799   2.503   7.189   3.212
84634SOL    HW255800   2.463   7.071   3.126
84635SOL     OW55801  11.611  13.648   5.768
84635SOL    HW155802  11.567  13.639   5.852
84635SOL    HW255803  11.569  13.584   5.711
84636SOL     OW55804  12.784   2.357   3.950
84636SOL    HW155805  12.720   2.286   3.941
84636SOL    HW255806  12.863   2.314   3.984
84637SOL     OW55807   4.327  14.058   2.208
84637SOL    HW155808   4.380  13.978   2.200
84637SOL    HW255809   4.360  14.101   2.286
84638SOL     OW55810   6.995   7.124   4.264
84638SOL    HW155811   7.087   7.142   4.247
84638SOL    HW255812   6.988   7.117   4.359
84639SOL     OW55813  10.805   4.169   5.583
84639SOL    HW155814  10.837   4.080   5.598
84639SOL    HW255815  10.847   4.197   5.502
84640SOL     OW55816  13.585  11.792   1.152
84640SOL    HW155817  13.589  11.863   1.216
84640SOL    HW255818  13.508  11.811   1.099
84641SOL     OW55819  11.267   6.319  14.409
84641SOL    HW155820  11.269   6.354  14.499
84641SOL    HW255821  11.228   6.389  14.357
84642SOL     OW55822   3.651   8.955  10.632
84642SOL    HW155823   3.608   8.903  10.564
84642SOL    HW255824   3.721   8.898  10.664
84643SOL     OW55825  12.557   2.042   9.722
84643SOL    HW155826  12.643   2.082   9.728
84643SOL    HW255827  12.573   1.948   9.727
84644SOL     OW55828   0.996  14.131   5.066
84644SOL    HW155829   0.939  14.202   5.094
84644SOL    HW255830   1.038  14.100   5.146
84645SOL     OW55831   2.120  10.148   5.672
84645SOL    HW155832   2.156  10.189   5.751
84645SOL    HW255833   2.140  10.055   5.682
84646SOL     OW55834   0.806   9.791  10.151
84646SOL    HW155835   0.728   9.804  10.204
84646SOL    HW255836   0.849   9.877  10.150
84647SOL     OW55837   3.017   4.852   2.103
84647SOL    HW155838   3.010   4.758   2.085
84647SOL    HW255839   3.042   4.891   2.019
84648SOL     OW55840   2.107   8.015   9.487
84648SOL    HW155841   2.082   8.091   9.435
84648SOL    HW255842   2.174   8.047   9.547
84649SOL     OW55843  14.237  10.830   3.912
84649SOL    HW155844  14.292  10.906   3.934
84649SOL    HW255845  14.176  10.822   3.985
84650SOL     OW55846  12.156   5.340   1.690
84650SOL    HW155847  12.090   5.282   1.728
84650SOL    HW255848  12.108   5.391   1.625
84651SOL     OW55849  12.377   0.459   0.698
84651SOL    HW155850  12.458   0.481   0.743
84651SOL    HW255851  12.316   0.529   0.722
84652SOL     OW55852   4.523   0.513   2.346
84652SOL    HW155853   4.460   0.581   2.370
84652SOL    HW255854   4.511   0.502   2.251
84653SOL     OW55855  11.217  13.823  11.233
84653SOL    HW155856  11.239  13.730  11.241
84653SOL    HW255857  11.144  13.825  11.172
84654SOL     OW55858   7.468   4.693   1.438
84654SOL    HW155859   7.448   4.781   1.471
84654SOL    HW255860   7.422   4.689   1.353
84655SOL     OW55861   1.499   1.407   5.305
84655SOL    HW155862   1.562   1.458   5.255
84655SOL    HW255863   1.529   1.317   5.296
84656SOL     OW55864   3.226   8.361  12.397
84656SOL    HW155865   3.226   8.350  12.492
84656SOL    HW255866   3.252   8.276  12.363
84657SOL     OW55867   3.388   1.300   4.599
84657SOL    HW155868   3.317   1.363   4.610
84657SOL    HW255869   3.457   1.350   4.554
84658SOL     OW55870   9.999  10.667  13.683
84658SOL    HW155871   9.983  10.635  13.772
84658SOL    HW255872  10.041  10.594  13.638
84659SOL     OW55873  14.088   8.792   0.989
84659SOL    HW155874  14.031   8.838   0.928
84659SOL    HW255875  14.145   8.739   0.934
84660SOL     OW55876   4.632  13.475   7.040
84660SOL    HW155877   4.710  13.420   7.030
84660SOL    HW255878   4.665  13.564   7.036
84661SOL     OW55879  14.242   5.330   7.079
84661SOL    HW155880  14.294   5.311   7.157
84661SOL    HW255881  14.201   5.414   7.097
84662SOL     OW55882  11.693   2.671   3.191
84662SOL    HW155883  11.782   2.700   3.171
84662SOL    HW255884  11.704   2.614   3.267
84663SOL     OW55885  14.781   1.135   7.372
84663SOL    HW155886  14.800   1.112   7.281
84663SOL    HW255887  14.796   1.054   7.421
84664SOL     OW55888   0.477   8.028   4.186
84664SOL    HW155889   0.571   8.032   4.207
84664SOL    HW255890   0.446   8.118   4.198
84665SOL     OW55891   9.208   1.684  11.947
84665SOL    HW155892   9.198   1.766  11.996
84665SOL    HW255893   9.301   1.681  11.923
84666SOL     OW55894   2.938   4.720  14.291
84666SOL    HW155895   2.964   4.763  14.373
84666SOL    HW255896   2.909   4.792  14.235
84667SOL     OW55897   6.755   0.714   6.535
84667SOL    HW155898   6.766   0.789   6.477
84667SOL    HW255899   6.783   0.638   6.483
84668SOL     OW55900   8.298   3.477  11.497
84668SOL    HW155901   8.337   3.390  11.499
84668SOL    HW255902   8.367   3.535  11.467
84669SOL     OW55903   2.486   4.685   0.092
84669SOL    HW155904   2.439   4.639   0.021
84669SOL    HW255905   2.567   4.635   0.104
84670SOL     OW55906  10.295  13.577   0.394
84670SOL    HW155907  10.352  13.582   0.470
84670SOL    HW255908  10.334  13.638   0.331
84671SOL     OW55909  10.673   6.167   8.016
84671SOL    HW155910  10.589   6.213   8.019
84671SOL    HW255911  10.683   6.140   7.925
84672SOL     OW55912   9.904  14.653   2.002
84672SOL    HW155913   9.867  14.697   1.925
84672SOL    HW255914   9.877  14.708   2.076
84673SOL     OW55915  12.887   0.132  10.254
84673SOL    HW155916  12.910   0.059  10.310
84673SOL    HW255917  12.970   0.159  10.214
84674SOL     OW55918   7.353   3.873   4.599
84674SOL    HW155919   7.385   3.926   4.526
84674SOL    HW255920   7.348   3.784   4.563
84675SOL     OW55921   3.971   0.036  12.676
84675SOL    HW155922   4.066   0.030  12.688
84675SOL    HW255923   3.945  14.830  12.649
84676SOL     OW55924  11.166   1.945   6.636
84676SOL    HW155925  11.088   2.000   6.648
84676SOL    HW255926  11.234   2.007   6.608
84677SOL     OW55927  10.289   0.021  14.089
84677SOL    HW155928  10.304  14.809  14.081
84677SOL    HW255929  10.343   0.060  14.020
84678SOL     OW55930  13.038   3.870   9.570
84678SOL    HW155931  13.127   3.895   9.596
84678SOL    HW255932  13.048   3.780   9.537
84679SOL     OW55933  12.701   0.326  11.640
84679SOL    HW155934  12.762   0.397  11.656
84679SOL    HW255935  12.755   0.247  11.642
84680SOL     OW55936   8.894  10.361   0.981
84680SOL    HW155937   8.987  10.371   1.001
84680SOL    HW255938   8.892  10.304   0.905
84681SOL     OW55939  11.269   0.134   0.572
84681SOL    HW155940  11.206   0.160   0.640
84681SOL    HW255941  11.269   0.038   0.577
84682SOL     OW55942  12.488  13.824   7.341
84682SOL    HW155943  12.512  13.737   7.373
84682SOL    HW255944  12.409  13.847   7.390
84683SOL     OW55945   9.428   9.520  10.157
84683SOL    HW155946   9.374   9.554  10.229
84683SOL    HW255947   9.380   9.444  10.124
84684SOL     OW55948   9.579   5.158   0.789
84684SOL    HW155949   9.595   5.065   0.773
84684SOL    HW255950   9.666   5.198   0.789
84685SOL     OW55951  12.092   2.745  12.195
84685SOL    HW155952  12.063   2.687  12.265
84685SOL    HW255953  12.031   2.819  12.199
84686SOL     OW55954  13.790  13.619   9.298
84686SOL    HW155955  13.765  13.590   9.386
84686SOL    HW255956  13.709  13.656   9.262
84687SOL     OW55957   6.565   5.018   7.170
84687SOL    HW155958   6.658   5.017   7.193
84687SOL    HW255959   6.527   4.946   7.221
84688SOL     OW55960  11.044   3.065   2.961
84688SOL    HW155961  10.953   3.053   2.936
84688SOL    HW255962  11.053   3.159   2.977
84689SOL     OW55963   7.854   7.340   9.216
84689SOL    HW155964   7.770   7.370   9.251
84689SOL    HW255965   7.844   7.346   9.121
84690SOL     OW55966   9.027  11.910  13.872
84690SOL    HW155967   8.950  11.855  13.859
84690SOL    HW255968   9.026  11.971  13.799
84691SOL     OW55969  12.536   2.038   0.913
84691SOL    HW155970  12.558   2.115   0.964
84691SOL    HW255971  12.457   2.063   0.864
84692SOL     OW55972   4.556   3.562  12.869
84692SOL    HW155973   4.551   3.630  12.802
84692SOL    HW255974   4.548   3.610  12.952
84693SOL     OW55975  13.394  11.828  11.321
84693SOL    HW155976  13.342  11.766  11.371
84693SOL    HW255977  13.333  11.898  11.297
84694SOL     OW55978  12.220  13.390  14.350
84694SOL    HW155979  12.196  13.386  14.443
84694SOL    HW255980  12.253  13.479  14.338
84695SOL     OW55981   0.554  14.636   2.763
84695SOL    HW155982   0.645  14.615   2.782
84695SOL    HW255983   0.532  14.581   2.688
84696SOL     OW55984  13.457  12.601   2.504
84696SOL    HW155985  13.414  12.565   2.427
84696SOL    HW255986  13.548  12.571   2.497
84697SOL     OW55987  12.410   6.876   7.739
84697SOL    HW155988  12.443   6.841   7.655
84697SOL    HW255989  12.488   6.881   7.794
84698SOL     OW55990   6.164   3.559  11.645
84698SOL    HW155991   6.249   3.568  11.689
84698SOL    HW255992   6.158   3.635  11.587
84699SOL     OW55993   7.449  11.108   0.164
84699SOL    HW155994   7.503  11.139   0.237
84699SOL    HW255995   7.375  11.168   0.161
84700SOL     OW55996  13.930   5.276  12.561
84700SOL    HW155997  13.919   5.184  12.586
84700SOL    HW255998  13.865   5.290  12.493
84701SOL     OW55999   0.601  10.382  13.433
84701SOL    HW156000   0.548  10.419  13.362
84701SOL    HW256001   0.690  10.410  13.414
84702SOL     OW56002   9.110  14.561  10.473
84702SOL    HW156003   9.173  14.566  10.401
84702SOL    HW256004   9.081  14.470  10.473
84703SOL     OW56005  13.624   9.249   1.145
84703SOL    HW156006  13.687   9.183   1.117
84703SOL    HW256007  13.600   9.223   1.235
84704SOL     OW56008   6.714  13.660   8.609
84704SOL    HW156009   6.748  13.656   8.519
84704SOL    HW256010   6.751  13.740   8.645
84705SOL     OW56011   7.924  13.712  10.916
84705SOL    HW156012   7.830  13.694  10.907
84705SOL    HW256013   7.941  13.704  11.010
84706SOL     OW56014  11.508   7.357   3.908
84706SOL    HW156015  11.520   7.384   3.999
84706SOL    HW256016  11.563   7.279   3.898
84707SOL     OW56017   0.166   4.990   4.928
84707SOL    HW156018   0.115   4.910   4.913
84707SOL    HW256019   0.234   4.989   4.860
84708SOL     OW56020   2.269   0.905   4.126
84708SOL    HW156021   2.304   0.878   4.041
84708SOL    HW256022   2.345   0.914   4.183
84709SOL     OW56023   7.949  13.975  12.882
84709SOL    HW156024   7.912  13.910  12.822
84709SOL    HW256025   8.005  14.029  12.827
84710SOL     OW56026   8.662   9.169   8.622
84710SOL    HW156027   8.679   9.126   8.705
84710SOL    HW256028   8.735   9.143   8.566
84711SOL     OW56029   8.907   5.289  11.580
84711SOL    HW156030   8.825   5.320  11.543
84711SOL    HW256031   8.890   5.279  11.673
84712SOL     OW56032  11.698  12.853  13.080
84712SOL    HW156033  11.700  12.766  13.120
84712SOL    HW256034  11.638  12.843  13.006
84713SOL     OW56035  13.148   3.019   1.862
84713SOL    HW156036  13.135   3.040   1.770
84713SOL    HW256037  13.099   3.086   1.909
84714SOL     OW56038   5.881  14.597  10.098
84714SOL    HW156039   5.874  14.529  10.030
84714SOL    HW256040   5.932  14.667  10.057
84715SOL     OW56041   7.895   0.151   0.682
84715SOL    HW156042   7.893   0.242   0.651
84715SOL    HW256043   7.987   0.136   0.704
84716SOL     OW56044  11.174  11.761  11.602
84716SOL    HW156045  11.163  11.823  11.529
84716SOL    HW256046  11.097  11.775  11.657
84717SOL     OW56047   4.247  11.764   3.154
84717SOL    HW156048   4.300  11.818   3.095
84717SOL    HW256049   4.164  11.811   3.160
84718SOL     OW56050   4.723   5.897   7.717
84718SOL    HW156051   4.698   5.925   7.629
84718SOL    HW256052   4.754   5.977   7.760
84719SOL     OW56053   1.252   1.787   2.288
84719SOL    HW156054   1.321   1.854   2.288
84719SOL    HW256055   1.299   1.704   2.290
84720SOL     OW56056   0.355  12.226   5.078
84720SOL    HW156057   0.344  12.135   5.051
84720SOL    HW256058   0.348  12.224   5.173
84721SOL     OW56059   2.450  11.359   8.922
84721SOL    HW156060   2.539  11.322   8.925
84721SOL    HW256061   2.399  11.303   8.980
84722SOL     OW56062   6.202  12.529  14.592
84722SOL    HW156063   6.210  12.486  14.677
84722SOL    HW256064   6.279  12.585  14.586
84723SOL     OW56065   8.075   9.808   6.880
84723SOL    HW156066   8.095   9.762   6.798
84723SOL    HW256067   7.985   9.783   6.900
84724SOL     OW56068   7.107   5.584  10.572
84724SOL    HW156069   7.183   5.527  10.562
84724SOL    HW256070   7.034   5.533  10.536
84725SOL     OW56071  13.495   2.964   7.972
84725SOL    HW156072  13.515   2.875   7.942
84725SOL    HW256073  13.476   3.012   7.892
84726SOL     OW56074   0.456   0.178  11.334
84726SOL    HW156075   0.441   0.089  11.303
84726SOL    HW256076   0.477   0.228  11.255
84727SOL     OW56077  14.550  11.117   0.551
84727SOL    HW156078  14.598  11.061   0.491
84727SOL    HW256079  14.548  11.069   0.633
84728SOL     OW56080   6.606  12.513   5.581
84728SOL    HW156081   6.512  12.522   5.561
84728SOL    HW256082   6.618  12.561   5.662
84729SOL     OW56083   3.780   6.274  10.700
84729SOL    HW156084   3.720   6.204  10.724
84729SOL    HW256085   3.864   6.229  10.686
84730SOL     OW56086  11.342   8.499   2.329
84730SOL    HW156087  11.264   8.525   2.378
84730SOL    HW256088  11.331   8.539   2.243
84731SOL     OW56089  11.804   8.986   0.593
84731SOL    HW156090  11.726   9.030   0.561
84731SOL    HW256091  11.822   9.027   0.678
84732SOL     OW56092  14.374  12.621   2.078
84732SOL    HW156093  14.454  12.653   2.121
84732SOL    HW256094  14.314  12.696   2.081
84733SOL     OW56095   4.533  12.158  14.495
84733SOL    HW156096   4.507  12.147  14.403
84733SOL    HW256097   4.519  12.072  14.534
84734SOL     OW56098   6.015  11.737  13.836
84734SOL    HW156099   6.085  11.677  13.811
84734SOL    HW256100   5.951  11.730  13.765
84735SOL     OW56101  13.660   2.504  13.643
84735SOL    HW156102  13.606   2.579  13.617
84735SOL    HW256103  13.604   2.452  13.700
84736SOL     OW56104  10.433   0.343   7.877
84736SOL    HW156105  10.505   0.392   7.918
84736SOL    HW256106  10.466   0.319   7.791
84737SOL     OW56107   0.851   9.003  12.642
84737SOL    HW156108   0.843   9.016  12.548
84737SOL    HW256109   0.898   9.080  12.673
84738SOL     OW56110   9.671   1.521   1.926
84738SOL    HW156111   9.714   1.455   1.980
84738SOL    HW256112   9.740   1.554   1.869
84739SOL     OW56113   5.922  10.065   6.407
84739SOL    HW156114   5.964  10.119   6.473
84739SOL    HW256115   5.992  10.010   6.372
84740SOL     OW56116  10.385   3.272   2.084
84740SOL    HW156117  10.448   3.344   2.092
84740SOL    HW256118  10.301   3.315   2.070
84741SOL     OW56119   0.058   6.232  13.062
84741SOL    HW156120   0.006   6.152  13.055
84741SOL    HW256121   0.144   6.202  13.090
84742SOL     OW56122   7.293   3.200   1.436
84742SOL    HW156123   7.217   3.231   1.484
84742SOL    HW256124   7.358   3.270   1.446
84743SOL     OW56125  11.982   5.670  12.716
84743SOL    HW156126  11.938   5.714  12.788
84743SOL    HW256127  11.912   5.623  12.670
84744SOL     OW56128   5.553  12.779   3.327
84744SOL    HW156129   5.649  12.772   3.322
84744SOL    HW256130   5.532  12.857   3.276
84745SOL     OW56131  10.629   6.337  13.886
84745SOL    HW156132  10.690   6.408  13.906
84745SOL    HW256133  10.677   6.281  13.824
84746SOL     OW56134  12.173   8.652   8.911
84746SOL    HW156135  12.231   8.647   8.835
84746SOL    HW256136  12.167   8.745   8.930
84747SOL     OW56137   5.789  13.127   9.817
84747SOL    HW156138   5.870  13.141   9.866
84747SOL    HW256139   5.809  13.155   9.728
84748SOL     OW56140   9.497  12.082   1.505
84748SOL    HW156141   9.555  12.156   1.521
84748SOL    HW256142   9.552  12.005   1.522
84749SOL     OW56143   3.536   3.883  13.673
84749SOL    HW156144   3.562   3.791  13.679
84749SOL    HW256145   3.467   3.885  13.607
84750SOL     OW56146  10.653  11.245   5.886
84750SOL    HW156147  10.689  11.157   5.871
84750SOL    HW256148  10.698  11.277   5.964
84751SOL     OW56149  12.183  13.840   6.541
84751SOL    HW156150  12.255  13.799   6.588
84751SOL    HW256151  12.145  13.769   6.489
84752SOL     OW56152   1.340   2.094  14.488
84752SOL    HW156153   1.271   2.149  14.454
84752SOL    HW256154   1.298   2.009  14.502
84753SOL     OW56155   8.097  10.466  10.600
84753SOL    HW156156   8.013  10.456  10.555
84753SOL    HW256157   8.075  10.461  10.693
84754SOL     OW56158   0.134   5.662   1.699
84754SOL    HW156159   0.150   5.574   1.733
84754SOL    HW256160   0.150   5.655   1.605
84755SOL     OW56161  13.796   6.807   1.928
84755SOL    HW156162  13.861   6.798   1.857
84755SOL    HW256163  13.724   6.750   1.902
84756SOL     OW56164   4.213   3.425   5.217
84756SOL    HW156165   4.273   3.499   5.225
84756SOL    HW256166   4.193   3.400   5.307
84757SOL     OW56167   6.560   8.922   0.464
84757SOL    HW156168   6.636   8.872   0.434
84757SOL    HW256169   6.485   8.865   0.448
84758SOL     OW56170   4.941   8.849  11.580
84758SOL    HW156171   4.894   8.857  11.497
84758SOL    HW256172   5.015   8.909  11.572
84759SOL     OW56173   8.227   3.709   1.697
84759SOL    HW156174   8.209   3.642   1.764
84759SOL    HW256175   8.171   3.683   1.623
84760SOL     OW56176  12.612   6.611   4.603
84760SOL    HW156177  12.618   6.580   4.513
84760SOL    HW256178  12.519   6.626   4.617
84761SOL     OW56179  12.298   4.706   3.164
84761SOL    HW156180  12.371   4.735   3.219
84761SOL    HW256181  12.326   4.621   3.131
84762SOL     OW56182   0.117  14.637  10.740
84762SOL    HW156183   0.185  14.575  10.717
84762SOL    HW256184   0.036  14.585  10.742
84763SOL     OW56185   0.700  14.644   8.136
84763SOL    HW156186   0.652  14.716   8.097
84763SOL    HW256187   0.774  14.686   8.181
84764SOL     OW56188   6.386   9.660   4.195
84764SOL    HW156189   6.331   9.730   4.229
84764SOL    HW256190   6.439   9.632   4.270
84765SOL     OW56191  13.441  11.309   3.138
84765SOL    HW156192  13.472  11.260   3.213
84765SOL    HW256193  13.502  11.286   3.067
84766SOL     OW56194   9.820  11.434   4.942
84766SOL    HW156195   9.798  11.524   4.920
84766SOL    HW256196   9.915  11.429   4.931
84767SOL     OW56197   1.636   6.948  13.004
84767SOL    HW156198   1.575   6.918  12.937
84767SOL    HW256199   1.583   6.953  13.084
84768SOL     OW56200  14.043  10.594   8.110
84768SOL    HW156201  14.028  10.604   8.204
84768SOL    HW256202  14.139  10.599   8.100
84769SOL     OW56203   5.010   0.581   1.032
84769SOL    HW156204   5.073   0.518   1.067
84769SOL    HW256205   5.030   0.663   1.077
84770SOL     OW56206   3.504   0.269  14.866
84770SOL    HW156207   3.515   0.233   0.071
84770SOL    HW256208   3.453   0.349  14.879
84771SOL     OW56209  13.727  12.797  11.672
84771SOL    HW156210  13.731  12.889  11.646
84771SOL    HW256211  13.819  12.769  11.675
84772SOL     OW56212   2.927  11.307   8.277
84772SOL    HW156213   2.853  11.268   8.323
84772SOL    HW256214   2.996  11.311   8.343
84773SOL     OW56215   7.626   3.126   1.432
84773SOL    HW156216   7.547   3.097   1.386
84773SOL    HW256217   7.677   3.046   1.444
84774SOL     OW56218   6.882   7.288   8.209
84774SOL    HW156219   6.830   7.347   8.263
84774SOL    HW256220   6.953   7.342   8.174
84775SOL     OW56221   7.197   4.472  14.865
84775SOL    HW156222   7.258   4.400  14.847
84775SOL    HW256223   7.249   4.535   0.034
84776SOL     OW56224  11.958   8.851  12.145
84776SOL    HW156225  11.894   8.880  12.210
84776SOL    HW256226  11.915   8.781  12.097
84777SOL     OW56227   8.860  11.016   5.250
84777SOL    HW156228   8.934  11.077   5.247
84777SOL    HW256229   8.800  11.047   5.183
84778SOL     OW56230   5.104   9.752   3.079
84778SOL    HW156231   5.055   9.676   3.109
84778SOL    HW256232   5.189   9.716   3.051
84779SOL     OW56233  10.979   2.830  14.034
84779SOL    HW156234  11.043   2.759  14.029
84779SOL    HW256235  11.005   2.882  14.110
84780SOL     OW56236   4.578  11.510   8.110
84780SOL    HW156237   4.600  11.600   8.135
84780SOL    HW256238   4.636  11.491   8.036
84781SOL     OW56239   3.659  13.514   8.947
84781SOL    HW156240   3.578  13.479   8.910
84781SOL    HW256241   3.652  13.497   9.041
84782SOL     OW56242   1.593  12.256  12.647
84782SOL    HW156243   1.643  12.323  12.694
84782SOL    HW256244   1.622  12.265  12.556
84783SOL     OW56245   1.130  11.184  12.707
84783SOL    HW156246   1.189  11.160  12.636
84783SOL    HW256247   1.088  11.264  12.678
84784SOL     OW56248  11.474   1.629  14.325
84784SOL    HW156249  11.430   1.658  14.245
84784SOL    HW256250  11.405   1.586  14.376
84785SOL     OW56251   1.943   6.025  13.054
84785SOL    HW156252   2.001   6.049  13.126
84785SOL    HW256253   1.856   6.054  13.082
84786SOL     OW56254   0.757  11.616  11.835
84786SOL    HW156255   0.709  11.682  11.884
84786SOL    HW256256   0.689  11.565  11.789
84787SOL     OW56257  11.370   0.729   4.151
84787SOL    HW156258  11.429   0.662   4.117
84787SOL    HW256259  11.316   0.753   4.075
84788SOL     OW56260   0.767  11.134   2.868
84788SOL    HW156261   0.787  11.046   2.898
84788SOL    HW256262   0.709  11.171   2.935
84789SOL     OW56263  12.512   2.029   4.436
84789SOL    HW156264  12.418   2.044   4.422
84789SOL    HW256265  12.518   1.996   4.526
84790SOL     OW56266   9.438  13.619   8.705
84790SOL    HW156267   9.423  13.691   8.644
84790SOL    HW256268   9.484  13.553   8.653
84791SOL     OW56269   0.864   5.248   2.333
84791SOL    HW156270   0.783   5.209   2.365
84791SOL    HW256271   0.851   5.257   2.239
84792SOL     OW56272   8.548   1.747   0.756
84792SOL    HW156273   8.512   1.834   0.745
84792SOL    HW256274   8.561   1.737   0.850
84793SOL     OW56275   1.929   2.057   6.284
84793SOL    HW156276   1.993   2.104   6.336
84793SOL    HW256277   1.960   2.066   6.194
84794SOL     OW56278   7.317  12.229  13.289
84794SOL    HW156279   7.283  12.280  13.362
84794SOL    HW256280   7.387  12.283  13.253
84795SOL     OW56281   4.099   2.477  13.036
84795SOL    HW156282   4.194   2.483  13.025
84795SOL    HW256283   4.065   2.464  12.947
84796SOL     OW56284   3.541  14.078   8.406
84796SOL    HW156285   3.585  14.009   8.356
84796SOL    HW256286   3.555  14.054   8.497
84797SOL     OW56287   0.254   5.734  13.372
84797SOL    HW156288   0.171   5.764  13.410
84797SOL    HW256289   0.304   5.701  13.447
84798SOL     OW56290   7.513   0.288   1.264
84798SOL    HW156291   7.421   0.277   1.288
84798SOL    HW256292   7.560   0.225   1.318
84799SOL     OW56293  14.615   1.017  11.240
84799SOL    HW156294  14.617   1.112  11.249
84799SOL    HW256295  14.612   1.001  11.146
84800SOL     OW56296   8.462  13.288   6.540
84800SOL    HW156297   8.555  13.296   6.519
84800SOL    HW256298   8.447  13.352   6.610
84801SOL     OW56299   0.325   1.346   1.533
84801SOL    HW156300   0.232   1.338   1.555
84801SOL    HW256301   0.335   1.292   1.454
84802SOL     OW56302   9.969   3.941   2.709
84802SOL    HW156303  10.040   3.882   2.731
84802SOL    HW256304   9.972   3.949   2.614
84803SOL     OW56305   6.502   8.896  14.336
84803SOL    HW156306   6.548   8.863  14.258
84803SOL    HW256307   6.513   8.827  14.401
84804SOL     OW56308   0.316   3.190  10.932
84804SOL    HW156309   0.381   3.153  10.872
84804SOL    HW256310   0.267   3.114  10.964
84805SOL     OW56311   1.457   1.295   6.171
84805SOL    HW156312   1.389   1.234   6.145
84805SOL    HW256313   1.520   1.294   6.099
84806SOL     OW56314  10.800  14.373   8.670
84806SOL    HW156315  10.743  14.310   8.715
84806SOL    HW256316  10.820  14.438   8.737
84807SOL     OW56317   5.457  11.575   0.670
84807SOL    HW156318   5.440  11.669   0.678
84807SOL    HW256319   5.472  11.561   0.577
84808SOL     OW56320   0.264   1.545   4.249
84808SOL    HW156321   0.342   1.533   4.195
84808SOL    HW256322   0.297   1.573   4.334
84809SOL     OW56323   7.284   3.565  12.590
84809SOL    HW156324   7.216   3.548  12.526
84809SOL    HW256325   7.253   3.523  12.670
84810SOL     OW56326   1.546   1.938   1.018
84810SOL    HW156327   1.451   1.925   1.023
84810SOL    HW256328   1.581   1.849   1.013
84811SOL     OW56329   2.170   7.158  10.383
84811SOL    HW156330   2.110   7.168  10.309
84811SOL    HW256331   2.116   7.121  10.453
84812SOL     OW56332   9.057  11.609  12.069
84812SOL    HW156333   9.016  11.681  12.021
84812SOL    HW256334   9.112  11.651  12.135
84813SOL     OW56335   0.151   4.833   0.283
84813SOL    HW156336   0.188   4.778   0.352
84813SOL    HW256337   0.227   4.859   0.231
84814SOL     OW56338  13.935   0.397   7.095
84814SOL    HW156339  13.865   0.452   7.131
84814SOL    HW256340  14.003   0.459   7.068
84815SOL     OW56341   0.903  14.125   0.581
84815SOL    HW156342   0.816  14.138   0.543
84815SOL    HW256343   0.921  14.204   0.632
84816SOL     OW56344   0.574   1.975   5.907
84816SOL    HW156345   0.623   2.027   5.843
84816SOL    HW256346   0.601   1.885   5.890
84817SOL     OW56347   6.697   7.307  13.343
84817SOL    HW156348   6.702   7.387  13.290
84817SOL    HW256349   6.701   7.236  13.280
84818SOL     OW56350  10.015   9.239  12.969
84818SOL    HW156351  10.041   9.158  13.012
84818SOL    HW256352  10.076   9.305  13.001
84819SOL     OW56353  10.842   1.529   2.325
84819SOL    HW156354  10.873   1.525   2.416
84819SOL    HW256355  10.774   1.597   2.326
84820SOL     OW56356  13.594   4.342   2.878
84820SOL    HW156357  13.586   4.325   2.784
84820SOL    HW256358  13.612   4.436   2.883
84821SOL     OW56359   5.842   1.015  13.697
84821SOL    HW156360   5.824   0.989  13.607
84821SOL    HW256361   5.848   1.111  13.694
84822SOL     OW56362  11.495   3.813   8.810
84822SOL    HW156363  11.564   3.869   8.845
84822SOL    HW256364  11.414   3.863   8.825
84823SOL     OW56365  10.520  14.538   4.777
84823SOL    HW156366  10.615  14.531   4.768
84823SOL    HW256367  10.486  14.461   4.733
84824SOL     OW56368   9.945   5.211   6.857
84824SOL    HW156369   9.921   5.136   6.912
84824SOL    HW256370   9.895   5.284   6.893
84825SOL     OW56371   0.171   1.580  12.922
84825SOL    HW156372   0.173   1.539  12.836
84825SOL    HW256373   0.080   1.604  12.936
84826SOL     OW56374   1.842   0.541   6.763
84826SOL    HW156375   1.805   0.454   6.748
84826SOL    HW256376   1.892   0.561   6.684
84827SOL     OW56377   4.757  10.198  10.767
84827SOL    HW156378   4.788  10.276  10.721
84827SOL    HW256379   4.811  10.127  10.732
84828SOL     OW56380   0.730   6.280   0.604
84828SOL    HW156381   0.819   6.299   0.632
84828SOL    HW256382   0.740   6.240   0.517
84829SOL     OW56383   9.488   3.385   6.965
84829SOL    HW156384   9.394   3.376   6.979
84829SOL    HW256385   9.497   3.453   6.899
84830SOL     OW56386  14.153   1.027   0.887
84830SOL    HW156387  14.199   1.016   0.970
84830SOL    HW256388  14.175   0.949   0.836
84831SOL     OW56389   2.385   6.984  10.275
84831SOL    HW156390   2.305   7.017  10.316
84831SOL    HW256391   2.377   7.009  10.183
84832SOL     OW56392   6.562   3.736  13.280
84832SOL    HW156393   6.572   3.766  13.190
84832SOL    HW256394   6.622   3.791  13.330
84833SOL     OW56395   3.901   9.549  12.121
84833SOL    HW156396   3.899   9.557  12.026
84833SOL    HW256397   3.823   9.596  12.150
84834SOL     OW56398   2.201   7.161   3.289
84834SOL    HW156399   2.266   7.157   3.219
84834SOL    HW256400   2.121   7.190   3.246
84835SOL     OW56401   0.541  10.005   3.752
84835SOL    HW156402   0.557  10.099   3.755
84835SOL    HW256403   0.513   9.988   3.662
84836SOL     OW56404   9.794   3.164   2.590
84836SOL    HW156405   9.772   3.255   2.609
84836SOL    HW256406   9.767   3.150   2.500
84837SOL     OW56407   9.071   2.089   7.498
84837SOL    HW156408   9.023   2.147   7.556
84837SOL    HW256409   9.120   2.148   7.441
84838SOL     OW56410   8.247   3.112   2.444
84838SOL    HW156411   8.297   3.072   2.515
84838SOL    HW256412   8.165   3.140   2.485
84839SOL     OW56413   7.895   8.384  10.178
84839SOL    HW156414   7.975   8.353  10.221
84839SOL    HW256415   7.826   8.332  10.219
84840SOL     OW56416   4.811   6.192  14.183
84840SOL    HW156417   4.716   6.191  14.194
84840SOL    HW256418   4.844   6.140  14.257
84841SOL     OW56419   1.186   0.366  10.833
84841SOL    HW156420   1.226   0.410  10.758
84841SOL    HW256421   1.223   0.411  10.909
84842SOL     OW56422   9.879  11.411  13.035
84842SOL    HW156423   9.850  11.348  13.100
84842SOL    HW256424   9.871  11.365  12.951
84843SOL     OW56425  12.529   7.935  10.336
84843SOL    HW156426  12.550   7.949  10.244
84843SOL    HW256427  12.438   7.960  10.345
84844SOL     OW56428   0.333  13.125   4.767
84844SOL    HW156429   0.250  13.090   4.734
84844SOL    HW256430   0.346  13.081   4.851
84845SOL     OW56431  12.101  12.141   9.193
84845SOL    HW156432  12.092  12.131   9.288
84845SOL    HW256433  12.046  12.216   9.171
84846SOL     OW56434  12.770   3.552   2.431
84846SOL    HW156435  12.794   3.642   2.410
84846SOL    HW256436  12.723   3.521   2.353
84847SOL     OW56437  11.048  12.876   8.562
84847SOL    HW156438  11.135  12.910   8.581
84847SOL    HW256439  11.065  12.794   8.515
84848SOL     OW56440   8.476   3.391   1.601
84848SOL    HW156441   8.390   3.388   1.642
84848SOL    HW256442   8.478   3.316   1.542
84849SOL     OW56443   6.348   0.745  14.308
84849SOL    HW156444   6.402   0.815  14.269
84849SOL    HW256445   6.284   0.725  14.240
84850SOL     OW56446  14.822   8.941   1.166
84850SOL    HW156447  14.752   8.875   1.165
84850SOL    HW256448  14.832   8.966   1.074
84851SOL     OW56449   6.356   2.416   0.782
84851SOL    HW156450   6.412   2.340   0.797
84851SOL    HW256451   6.382   2.479   0.849
84852SOL     OW56452   7.317   1.000  12.502
84852SOL    HW156453   7.405   1.018  12.467
84852SOL    HW256454   7.331   0.933  12.569
84853SOL     OW56455   4.184   6.924  13.539
84853SOL    HW156456   4.148   6.966  13.461
84853SOL    HW256457   4.125   6.950  13.610
84854SOL     OW56458  13.870   1.701  10.034
84854SOL    HW156459  13.875   1.693  10.129
84854SOL    HW256460  13.893   1.614  10.001
84855SOL     OW56461  13.596   3.541   1.142
84855SOL    HW156462  13.626   3.623   1.102
84855SOL    HW256463  13.638   3.472   1.091
84856SOL     OW56464   9.233  10.265   5.893
84856SOL    HW156465   9.210  10.336   5.953
84856SOL    HW256466   9.327  10.274   5.879
84857SOL     OW56467   3.104   2.239   7.826
84857SOL    HW156468   3.018   2.281   7.828
84857SOL    HW256469   3.141   2.256   7.913
84858SOL     OW56470   0.060   4.895  10.865
84858SOL    HW156471   0.110   4.815  10.884
84858SOL    HW256472  14.851   4.871  10.882
84859SOL     OW56473  14.357   1.220   8.115
84859SOL    HW156474  14.299   1.295   8.110
84859SOL    HW256475  14.404   1.220   8.031
84860SOL     OW56476   8.357   1.253  14.199
84860SOL    HW156477   8.431   1.197  14.223
84860SOL    HW256478   8.370   1.333  14.249
84861SOL     OW56479   3.513   9.444  14.189
84861SOL    HW156480   3.424   9.480  14.197
84861SOL    HW256481   3.500   9.350  14.182
84862SOL     OW56482   7.913  11.984   4.014
84862SOL    HW156483   7.852  12.043   4.058
84862SOL    HW256484   7.936  11.920   4.081
84863SOL     OW56485   4.417   0.841   0.338
84863SOL    HW156486   4.467   0.824   0.258
84863SOL    HW256487   4.464   0.794   0.407
84864SOL     OW56488  12.949  12.384   8.253
84864SOL    HW156489  13.001  12.463   8.263
84864SOL    HW256490  12.937  12.374   8.159
84865SOL     OW56491  11.158   2.035   9.332
84865SOL    HW156492  11.183   2.088   9.256
84865SOL    HW256493  11.228   1.970   9.340
84866SOL     OW56494   0.619  13.396  13.908
84866SOL    HW156495   0.681  13.456  13.949
84866SOL    HW256496   0.533  13.435  13.924
84867SOL     OW56497   1.541  11.427   6.218
84867SOL    HW156498   1.528  11.452   6.126
84867SOL    HW256499   1.564  11.334   6.213
84868SOL     OW56500   9.698  13.096   4.166
84868SOL    HW156501   9.623  13.153   4.151
84868SOL    HW256502   9.705  13.092   4.262
84869SOL     OW56503   8.699   1.136   2.212
84869SOL    HW156504   8.730   1.071   2.150
84869SOL    HW256505   8.633   1.186   2.164
84870SOL     OW56506   1.466  11.275  12.108
84870SOL    HW156507   1.556  11.244  12.097
84870SOL    HW256508   1.414  11.212  12.059
84871SOL     OW56509  11.356  11.769   9.961
84871SOL    HW156510  11.315  11.682   9.957
84871SOL    HW256511  11.382  11.779  10.052
84872SOL     OW56512  13.722   8.067   6.187
84872SOL    HW156513  13.814   8.094   6.179
84872SOL    HW256514  13.697   8.041   6.098
84873SOL     OW56515   2.367   9.607   2.566
84873SOL    HW156516   2.304   9.567   2.506
84873SOL    HW256517   2.436   9.542   2.575
84874SOL     OW56518   9.249   8.974   1.642
84874SOL    HW156519   9.190   9.020   1.702
84874SOL    HW256520   9.336   8.984   1.681
84875SOL     OW56521   4.788  14.210   0.541
84875SOL    HW156522   4.727  14.158   0.592
84875SOL    HW256523   4.744  14.294   0.529
84876SOL     OW56524   6.562   0.268   9.970
84876SOL    HW156525   6.526   0.220   9.896
84876SOL    HW256526   6.517   0.352   9.968
84877SOL     OW56527   4.644  11.345  13.295
84877SOL    HW156528   4.640  11.439  13.316
84877SOL    HW256529   4.688  11.305  13.370
84878SOL     OW56530  10.768   9.677   4.602
84878SOL    HW156531  10.714   9.616   4.653
84878SOL    HW256532  10.849   9.685   4.653
84879SOL     OW56533   0.213   8.906  11.363
84879SOL    HW156534   0.305   8.913  11.388
84879SOL    HW256535   0.189   8.995  11.338
84880SOL     OW56536   4.389  10.931   6.600
84880SOL    HW156537   4.380  10.985   6.521
84880SOL    HW256538   4.469  10.881   6.586
84881SOL     OW56539   6.309  11.963   4.657
84881SOL    HW156540   6.356  12.031   4.609
84881SOL    HW256541   6.237  12.010   4.701
84882SOL     OW56542  12.035  11.701  13.285
84882SOL    HW156543  11.946  11.693  13.251
84882SOL    HW256544  12.026  11.683  13.379
84883SOL     OW56545  10.727   4.892  13.390
84883SOL    HW156546  10.638   4.874  13.421
84883SOL    HW256547  10.731   4.850  13.304
84884SOL     OW56548  14.821   0.483  11.870
84884SOL    HW156549  14.882   0.417  11.904
84884SOL    HW256550  14.751   0.487  11.934
84885SOL     OW56551   8.068  12.130   6.891
84885SOL    HW156552   8.017  12.132   6.809
84885SOL    HW256553   8.094  12.220   6.905
84886SOL     OW56554  13.289  10.389   6.255
84886SOL    HW156555  13.361  10.399   6.317
84886SOL    HW256556  13.210  10.403   6.306
84887SOL     OW56557   9.301   8.217  13.644
84887SOL    HW156558   9.382   8.269  13.645
84887SOL    HW256559   9.321   8.143  13.587
84888SOL     OW56560  10.568   8.457   0.306
84888SOL    HW156561  10.510   8.442   0.381
84888SOL    HW256562  10.597   8.369   0.280
84889SOL     OW56563  13.879  11.363   3.846
84889SOL    HW156564  13.918  11.303   3.909
84889SOL    HW256565  13.936  11.358   3.769
84890SOL     OW56566   9.694   2.568  10.688
84890SOL    HW156567   9.660   2.651  10.721
84890SOL    HW256568   9.701   2.582  10.593
84891SOL     OW56569   2.744   6.345   0.931
84891SOL    HW156570   2.814   6.318   0.989
84891SOL    HW256571   2.664   6.314   0.973
84892SOL     OW56572   8.347  14.019  11.842
84892SOL    HW156573   8.304  13.991  11.762
84892SOL    HW256574   8.319  14.110  11.854
84893SOL     OW56575  11.811  11.367  12.876
84893SOL    HW156576  11.842  11.323  12.956
84893SOL    HW256577  11.739  11.311  12.846
84894SOL     OW56578  13.181   9.059  10.602
84894SOL    HW156579  13.159   9.046  10.694
84894SOL    HW256580  13.276   9.071  10.600
84895SOL     OW56581  12.262   4.866   2.830
84895SOL    HW156582  12.335   4.883   2.891
84895SOL    HW256583  12.189   4.916   2.867
84896SOL     OW56584  14.446  11.009  14.077
84896SOL    HW156585  14.456  10.994  14.171
84896SOL    HW256586  14.516  11.071  14.055
84897SOL     OW56587   7.794   5.688   3.598
84897SOL    HW156588   7.864   5.753   3.608
84897SOL    HW256589   7.715   5.740   3.587
84898SOL     OW56590  14.442   8.054   9.094
84898SOL    HW156591  14.498   7.979   9.079
84898SOL    HW256592  14.426   8.055   9.188
84899SOL     OW56593   1.885   3.255   0.008
84899SOL    HW156594   1.916   3.284   0.094
84899SOL    HW256595   1.965   3.225  14.846
84900SOL     OW56596   4.857   8.246  13.953
84900SOL    HW156597   4.874   8.333  13.988
84900SOL    HW256598   4.904   8.187  14.012
84901SOL     OW56599   5.676  13.981   2.495
84901SOL    HW156600   5.729  13.948   2.567
84901SOL    HW256601   5.695  14.074   2.493
84902SOL     OW56602  14.835   9.795  12.524
84902SOL    HW156603  14.788   9.714  12.506
84902SOL    HW256604  14.863   9.827  12.438
84903SOL     OW56605  14.834  11.382  11.469
84903SOL    HW156606  14.766  11.314  11.471
84903SOL    HW256607  14.790  11.458  11.431
84904SOL     OW56608  11.365   5.259   1.636
84904SOL    HW156609  11.404   5.255   1.723
84904SOL    HW256610  11.437   5.241   1.576
84905SOL     OW56611   5.563  10.588   9.108
84905SOL    HW156612   5.639  10.599   9.050
84905SOL    HW256613   5.503  10.658   9.083
84906SOL     OW56614  12.558   9.299   8.515
84906SOL    HW156615  12.565   9.281   8.608
84906SOL    HW256616  12.550   9.212   8.475
84907SOL     OW56617   0.336   0.124   6.388
84907SOL    HW156618   0.389   0.047   6.371
84907SOL    HW256619   0.399   0.196   6.393
84908SOL     OW56620   2.370   0.160   2.645
84908SOL    HW156621   2.432   0.218   2.600
84908SOL    HW256622   2.287   0.208   2.642
84909SOL     OW56623   8.969   0.608   4.151
84909SOL    HW156624   9.043   0.602   4.212
84909SOL    HW256625   9.008   0.641   4.070
84910SOL     OW56626   4.807  14.329   3.370
84910SOL    HW156627   4.816  14.272   3.293
84910SOL    HW256628   4.713  14.350   3.372
84911SOL     OW56629   3.649   6.452  14.485
84911SOL    HW156630   3.690   6.426  14.568
84911SOL    HW256631   3.555   6.438  14.500
84912SOL     OW56632   4.615   7.764   2.591
84912SOL    HW156633   4.520   7.771   2.588
84912SOL    HW256634   4.645   7.853   2.606
84913SOL     OW56635   6.705   4.428   2.653
84913SOL    HW156636   6.656   4.462   2.728
84913SOL    HW256637   6.795   4.419   2.685
84914SOL     OW56638  12.503   9.671   0.438
84914SOL    HW156639  12.435   9.700   0.377
84914SOL    HW256640  12.549   9.752   0.463
84915SOL     OW56641   1.777   1.095   1.451
84915SOL    HW156642   1.712   1.029   1.429
84915SOL    HW256643   1.726   1.175   1.467
84916SOL     OW56644   5.180   1.421  10.707
84916SOL    HW156645   5.155   1.508  10.741
84916SOL    HW256646   5.142   1.360  10.770
84917SOL     OW56647  10.623   5.896   6.950
84917SOL    HW156648  10.566   5.882   7.026
84917SOL    HW256649  10.563   5.904   6.876
84918SOL     OW56650  11.508   9.463   3.390
84918SOL    HW156651  11.491   9.541   3.339
84918SOL    HW256652  11.494   9.490   3.481
84919SOL     OW56653   5.807  12.247  12.164
84919SOL    HW156654   5.860  12.240  12.243
84919SOL    HW256655   5.764  12.162  12.157
84920SOL     OW56656   3.092   6.543   5.688
84920SOL    HW156657   3.074   6.558   5.595
84920SOL    HW256658   3.187   6.543   5.695
84921SOL     OW56659   6.863   1.490   4.710
84921SOL    HW156660   6.904   1.569   4.675
84921SOL    HW256661   6.900   1.419   4.657
84922SOL     OW56662   2.320   3.912  13.303
84922SOL    HW156663   2.353   3.987  13.351
84922SOL    HW256664   2.258   3.870  13.363
84923SOL     OW56665  11.649   4.403   6.845
84923SOL    HW156666  11.704   4.482   6.849
84923SOL    HW256667  11.619   4.400   6.754
84924SOL     OW56668   7.718  13.600   4.889
84924SOL    HW156669   7.782  13.622   4.956
84924SOL    HW256670   7.751  13.641   4.810
84925SOL     OW56671   8.176   6.857   0.635
84925SOL    HW156672   8.223   6.900   0.706
84925SOL    HW256673   8.220   6.886   0.555
84926SOL     OW56674  11.316   2.551   1.245
84926SOL    HW156675  11.390   2.599   1.282
84926SOL    HW256676  11.239   2.598   1.275
84927SOL     OW56677  12.647   3.428   0.772
84927SOL    HW156678  12.686   3.342   0.756
84927SOL    HW256679  12.654   3.440   0.867
84928SOL     OW56680   4.677   2.568  12.868
84928SOL    HW156681   4.693   2.508  12.796
84928SOL    HW256682   4.688   2.655  12.829
84929SOL     OW56683   5.247   8.521   3.793
84929SOL    HW156684   5.212   8.494   3.878
84929SOL    HW256685   5.340   8.535   3.808
84930SOL     OW56686  14.491  11.315   7.624
84930SOL    HW156687  14.451  11.349   7.545
84930SOL    HW256688  14.585  11.315   7.606
84931SOL     OW56689   3.264   1.441  10.861
84931SOL    HW156690   3.322   1.368  10.839
84931SOL    HW256691   3.240   1.426  10.953
84932SOL     OW56692   2.158  11.634   4.905
84932SOL    HW156693   2.142  11.634   4.811
84932SOL    HW256694   2.220  11.706   4.918
84933SOL     OW56695  12.130   3.756   1.451
84933SOL    HW156696  12.215   3.750   1.496
84933SOL    HW256697  12.097   3.666   1.451
84934SOL     OW56698   5.449   1.659   0.943
84934SOL    HW156699   5.463   1.747   0.909
84934SOL    HW256700   5.527   1.611   0.916
84935SOL     OW56701   9.580   6.739  11.530
84935SOL    HW156702   9.616   6.683  11.599
84935SOL    HW256703   9.501   6.777  11.568
84936SOL     OW56704  10.655   4.150   8.697
84936SOL    HW156705  10.613   4.151   8.612
84936SOL    HW256706  10.716   4.224   8.695
84937SOL     OW56707  12.135   1.245  11.741
84937SOL    HW156708  12.058   1.206  11.700
84937SOL    HW256709  12.100   1.310  11.802
84938SOL     OW56710   8.965   5.594  12.591
84938SOL    HW156711   9.013   5.672  12.619
84938SOL    HW256712   8.956   5.604  12.496
84939SOL     OW56713   0.109   4.488  14.679
84939SOL    HW156714   0.138   4.494  14.770
84939SOL    HW256715   0.018   4.518  14.680
84940SOL     OW56716   6.802  12.268  11.301
84940SOL    HW156717   6.789  12.248  11.394
84940SOL    HW256718   6.830  12.360  11.300
84941SOL     OW56719   6.450   5.420   2.777
84941SOL    HW156720   6.502   5.473   2.716
84941SOL    HW256721   6.388   5.483   2.815
84942SOL     OW56722  11.529   4.490   9.358
84942SOL    HW156723  11.568   4.481   9.271
84942SOL    HW256724  11.498   4.403   9.380
84943SOL     OW56725  11.958   9.992   9.068
84943SOL    HW156726  11.871   9.964   9.098
84943SOL    HW256727  11.992  10.045   9.140
84944SOL     OW56728   1.565   3.341   6.895
84944SOL    HW156729   1.506   3.277   6.933
84944SOL    HW256730   1.567   3.412   6.959
84945SOL     OW56731   7.673   7.879   1.640
84945SOL    HW156732   7.705   7.968   1.629
84945SOL    HW256733   7.721   7.828   1.575
84946SOL     OW56734   0.812   8.073  11.960
84946SOL    HW156735   0.777   8.157  11.988
84946SOL    HW256736   0.751   8.008  11.996
84947SOL     OW56737  12.428   4.455   6.482
84947SOL    HW156738  12.465   4.536   6.517
84947SOL    HW256739  12.344   4.446   6.527
84948SOL     OW56740  14.304   6.876   4.473
84948SOL    HW156741  14.378   6.882   4.534
84948SOL    HW256742  14.334   6.923   4.395
84949SOL     OW56743   9.314  13.710   5.455
84949SOL    HW156744   9.333  13.709   5.548
84949SOL    HW256745   9.255  13.637   5.441
84950SOL     OW56746   8.555   4.609   0.820
84950SOL    HW156747   8.534   4.520   0.847
84950SOL    HW256748   8.552   4.606   0.724
84951SOL     OW56749   7.598   9.892   7.906
84951SOL    HW156750   7.507   9.923   7.912
84951SOL    HW256751   7.593   9.800   7.931
84952SOL     OW56752  13.536   9.173   7.078
84952SOL    HW156753  13.496   9.200   7.161
84952SOL    HW256754  13.538   9.253   7.026
84953SOL     OW56755   3.762   9.048   0.754
84953SOL    HW156756   3.704   9.123   0.746
84953SOL    HW256757   3.703   8.972   0.753
84954SOL     OW56758  10.099  10.504  14.418
84954SOL    HW156759  10.057  10.432  14.373
84954SOL    HW256760  10.100  10.575  14.354
84955SOL     OW56761   7.608   6.107   5.105
84955SOL    HW156762   7.586   6.090   5.013
84955SOL    HW256763   7.701   6.130   5.104
84956SOL     OW56764   3.686   5.186   0.480
84956SOL    HW156765   3.624   5.113   0.475
84956SOL    HW256766   3.761   5.149   0.528
84957SOL     OW56767   3.653   0.154  14.573
84957SOL    HW156768   3.658   0.244  14.542
84957SOL    HW256769   3.705   0.153  14.653
84958SOL     OW56770   3.068  12.874   7.376
84958SOL    HW156771   3.012  12.951   7.377
84958SOL    HW256772   3.090  12.861   7.284
84959SOL     OW56773   6.055   4.159   3.787
84959SOL    HW156774   6.010   4.137   3.705
84959SOL    HW256775   6.142   4.119   3.778
84960SOL     OW56776   3.313   8.545   6.967
84960SOL    HW156777   3.281   8.569   7.054
84960SOL    HW256778   3.258   8.595   6.907
84961SOL     OW56779   0.740  12.348   6.822
84961SOL    HW156780   0.733  12.261   6.862
84961SOL    HW256781   0.658  12.391   6.844
84962SOL     OW56782   6.835  11.678   7.890
84962SOL    HW156783   6.788  11.650   7.969
84962SOL    HW256784   6.920  11.708   7.923
84963SOL     OW56785   8.638   5.433   4.528
84963SOL    HW156786   8.554   5.389   4.544
84963SOL    HW256787   8.698   5.394   4.592
84964SOL     OW56788   3.268   2.409   2.434
84964SOL    HW156789   3.302   2.459   2.360
84964SOL    HW256790   3.246   2.476   2.499
84965SOL     OW56791  14.254   8.234   0.184
84965SOL    HW156792  14.332   8.192   0.148
84965SOL    HW256793  14.204   8.163   0.223
84966SOL     OW56794   0.161   9.449  11.948
84966SOL    HW156795   0.152   9.479  12.038
84966SOL    HW256796   0.208   9.519  11.903
84967SOL     OW56797   5.246   3.551   6.316
84967SOL    HW156798   5.238   3.457   6.332
84967SOL    HW256799   5.247   3.590   6.403
84968SOL     OW56800   0.616   0.654  14.822
84968SOL    HW156801   0.565   0.681   0.016
84968SOL    HW256802   0.632   0.736  14.775
84969SOL     OW56803  11.757   6.195   0.042
84969SOL    HW156804  11.672   6.158   0.020
84969SOL    HW256805  11.750   6.217   0.135
84970SOL     OW56806   7.624  13.945   9.079
84970SOL    HW156807   7.686  13.881   9.045
84970SOL    HW256808   7.648  13.954   9.172
84971SOL     OW56809   0.481   5.096   0.757
84971SOL    HW156810   0.501   5.144   0.676
84971SOL    HW256811   0.409   5.146   0.797
84972SOL     OW56812   0.656   3.747   0.912
84972SOL    HW156813   0.665   3.690   0.988
84972SOL    HW256814   0.604   3.821   0.943
84973SOL     OW56815   0.989  12.207  13.654
84973SOL    HW156816   1.057  12.152  13.691
84973SOL    HW256817   1.004  12.294  13.691
84974SOL     OW56818   5.395   4.444   8.348
84974SOL    HW156819   5.439   4.369   8.388
84974SOL    HW256820   5.440   4.520   8.385
84975SOL     OW56821   9.767   4.125   0.859
84975SOL    HW156822   9.756   4.133   0.954
84975SOL    HW256823   9.747   4.033   0.841
84976SOL     OW56824   5.484   3.823   3.582
84976SOL    HW156825   5.541   3.899   3.590
84976SOL    HW256826   5.544   3.748   3.577
84977SOL     OW56827   2.331   6.782  14.784
84977SOL    HW156828   2.416   6.744  14.802
84977SOL    HW256829   2.319   6.849  14.851
84978SOL     OW56830   2.216  11.759   6.030
84978SOL    HW156831   2.155  11.827   6.059
84978SOL    HW256832   2.192  11.682   6.082
84979SOL     OW56833   1.766   5.192   0.753
84979SOL    HW156834   1.853   5.226   0.773
84979SOL    HW256835   1.752   5.121   0.815
84980SOL     OW56836   1.685   5.794  13.567
84980SOL    HW156837   1.645   5.707  13.569
84980SOL    HW256838   1.620   5.852  13.607
84981SOL     OW56839   2.071   4.399   9.780
84981SOL    HW156840   2.123   4.433   9.853
84981SOL    HW256841   2.123   4.418   9.702
84982SOL     OW56842   6.016  12.410   4.020
84982SOL    HW156843   5.960  12.485   4.041
84982SOL    HW256844   6.085  12.447   3.964
84983SOL     OW56845  11.131   7.249   1.276
84983SOL    HW156846  11.038   7.262   1.257
84983SOL    HW256847  11.153   7.168   1.231
84984SOL     OW56848   9.570   2.005   9.052
84984SOL    HW156849   9.631   2.061   9.099
84984SOL    HW256850   9.503   2.064   9.019
84985SOL     OW56851   7.380   2.668   9.979
84985SOL    HW156852   7.424   2.701  10.058
84985SOL    HW256853   7.290   2.652  10.007
84986SOL     OW56854   9.343   5.860   6.718
84986SOL    HW156855   9.356   5.783   6.774
84986SOL    HW256856   9.271   5.907   6.758
84987SOL     OW56857  10.577   9.340  10.918
84987SOL    HW156858  10.512   9.370  10.982
84987SOL    HW256859  10.526   9.286  10.856
84988SOL     OW56860   3.417   0.384   3.119
84988SOL    HW156861   3.467   0.315   3.164
84988SOL    HW256862   3.347   0.337   3.074
84989SOL     OW56863  12.564   0.748   4.890
84989SOL    HW156864  12.646   0.774   4.931
84989SOL    HW256865  12.586   0.734   4.798
84990SOL     OW56866  11.315   9.614   3.618
84990SOL    HW156867  11.389   9.562   3.650
84990SOL    HW256868  11.247   9.602   3.684
84991SOL     OW56869   7.086  13.906   9.799
84991SOL    HW156870   7.123  13.928   9.714
84991SOL    HW256871   7.140  13.955   9.862
84992SOL     OW56872   0.726   8.931  10.117
84992SOL    HW156873   0.630   8.940  10.120
84992SOL    HW256874   0.744   8.902  10.027
84993SOL     OW56875   5.932   8.133   2.507
84993SOL    HW156876   6.022   8.122   2.535
84993SOL    HW256877   5.937   8.135   2.411
84994SOL     OW56878  14.673   7.092   3.508
84994SOL    HW156879  14.700   7.171   3.556
84994SOL    HW256880  14.669   7.121   3.417
84995SOL     OW56881  13.856   2.522   8.091
84995SOL    HW156882  13.765   2.549   8.089
84995SOL    HW256883  13.864   2.456   8.022
84996SOL     OW56884  10.869   5.492  13.144
84996SOL    HW156885  10.956   5.527  13.164
84996SOL    HW256886  10.860   5.415  13.200
84997SOL     OW56887   4.870   4.061   4.617
84997SOL    HW156888   4.912   4.128   4.671
84997SOL    HW256889   4.900   3.978   4.656
84998SOL     OW56890  13.413   1.729  10.788
84998SOL    HW156891  13.320   1.751  10.794
84998SOL    HW256892  13.457   1.796  10.841
84999SOL     OW56893   6.348   7.965   6.850
84999SOL    HW156894   6.364   8.040   6.907
84999SOL    HW256895   6.391   7.892   6.895
85000SOL     OW56896  14.154  10.384   4.660
85000SOL    HW156897  14.088  10.453   4.670
85000SOL    HW256898  14.140  10.351   4.571
85001SOL     OW56899   3.962   5.522  12.834
85001SOL    HW156900   3.929   5.525  12.924
85001SOL    HW256901   3.957   5.613  12.804
85002SOL     OW56902  14.625  11.105   0.125
85002SOL    HW156903  14.531  11.088   0.128
85002SOL    HW256904  14.662  11.050   0.195
85003SOL     OW56905  13.096  10.277   7.850
85003SOL    HW156906  13.142  10.334   7.911
85003SOL    HW256907  13.145  10.195   7.852
85004SOL     OW56908  12.948  12.189   8.458
85004SOL    HW156909  13.036  12.165   8.486
85004SOL    HW256910  12.961  12.237   8.376
85005SOL     OW56911  12.451  12.808   6.864
85005SOL    HW156912  12.472  12.865   6.938
85005SOL    HW256913  12.465  12.720   6.897
85006SOL     OW56914   2.247   5.275  11.926
85006SOL    HW156915   2.229   5.239  12.013
85006SOL    HW256916   2.328   5.233  11.898
85007SOL     OW56917   0.527  13.353   3.739
85007SOL    HW156918   0.553  13.266   3.709
85007SOL    HW256919   0.541  13.351   3.834
85008SOL     OW56920   2.679   0.374   3.421
85008SOL    HW156921   2.640   0.445   3.471
85008SOL    HW256922   2.670   0.296   3.476
85009SOL     OW56923   6.303  13.211   8.564
85009SOL    HW156924   6.352  13.168   8.494
85009SOL    HW256925   6.251  13.141   8.604
85010SOL     OW56926   1.198  12.453  13.160
85010SOL    HW156927   1.200  12.548  13.177
85010SOL    HW256928   1.240  12.444  13.074
85011SOL     OW56929  10.566   1.501   9.457
85011SOL    HW156930  10.564   1.502   9.361
85011SOL    HW256931  10.633   1.565   9.481
85012SOL     OW56932  13.648   8.178   5.303
85012SOL    HW156933  13.594   8.192   5.226
85012SOL    HW256934  13.713   8.248   5.300
85013SOL     OW56935   9.834   5.292   5.579
85013SOL    HW156936   9.887   5.321   5.653
85013SOL    HW256937   9.847   5.197   5.576
85014SOL     OW56938   0.279   0.334   0.690
85014SOL    HW156939   0.308   0.288   0.611
85014SOL    HW256940   0.201   0.382   0.663
85015SOL     OW56941  11.244   9.104   8.388
85015SOL    HW156942  11.177   9.037   8.374
85015SOL    HW256943  11.297   9.101   8.308
85016SOL     OW56944  13.371   1.362  10.635
85016SOL    HW156945  13.310   1.331  10.703
85016SOL    HW256946  13.444   1.399  10.684
85017SOL     OW56947   4.817   5.750   1.669
85017SOL    HW156948   4.898   5.796   1.692
85017SOL    HW256949   4.785   5.714   1.752
85018SOL     OW56950   4.994  10.031   3.109
85018SOL    HW156951   5.052  10.096   3.148
85018SOL    HW256952   5.052   9.963   3.076
85019SOL     OW56953   7.908   3.307  11.119
85019SOL    HW156954   7.921   3.382  11.062
85019SOL    HW256955   7.851   3.248  11.068
85020SOL     OW56956   5.740   3.936  12.793
85020SOL    HW156957   5.714   3.883  12.718
85020SOL    HW256958   5.700   3.893  12.868
85021SOL     OW56959   7.980  13.753   4.182
85021SOL    HW156960   8.030  13.675   4.158
85021SOL    HW256961   7.894  13.720   4.207
85022SOL     OW56962   8.877  11.156  11.177
85022SOL    HW156963   8.845  11.065  11.179
85022SOL    HW256964   8.868  11.182  11.086
85023SOL     OW56965  12.365  10.126  13.336
85023SOL    HW156966  12.304  10.192  13.304
85023SOL    HW256967  12.311  10.050  13.355
85024SOL     OW56968  13.091  14.530   1.604
85024SOL    HW156969  13.087  14.446   1.557
85024SOL    HW256970  13.000  14.551   1.622
85025SOL     OW56971  10.635   5.746   1.259
85025SOL    HW156972  10.595   5.775   1.177
85025SOL    HW256973  10.566   5.695   1.302
85026SOL     OW56974   9.693   7.886   1.884
85026SOL    HW156975   9.664   7.950   1.948
85026SOL    HW256976   9.621   7.879   1.822
85027SOL     OW56977   0.845  12.514   7.363
85027SOL    HW156978   0.858  12.510   7.268
85027SOL    HW256979   0.827  12.606   7.380
85028SOL     OW56980   1.643   0.658   1.146
85028SOL    HW156981   1.637   0.733   1.087
85028SOL    HW256982   1.731   0.623   1.131
85029SOL     OW56983  11.150  11.128   5.323
85029SOL    HW156984  11.101  11.161   5.248
85029SOL    HW256985  11.108  11.168   5.399
85030SOL     OW56986   0.075   3.115  14.871
85030SOL    HW156987   0.149   3.177  14.870
85030SOL    HW256988   0.075   3.076  14.784
85031SOL     OW56989  10.156   6.392   6.186
85031SOL    HW156990  10.143   6.460   6.253
85031SOL    HW256991  10.069   6.355   6.172
85032SOL     OW56992   9.588   4.442   3.937
85032SOL    HW156993   9.571   4.375   4.003
85032SOL    HW256994   9.677   4.472   3.957
85033SOL     OW56995   2.903   2.477   6.119
85033SOL    HW156996   2.952   2.423   6.056
85033SOL    HW256997   2.889   2.418   6.193
85034SOL     OW56998  14.347   4.405  11.078
85034SOL    HW156999  14.355   4.325  11.027
85034SOL    HW257000  14.397   4.388  11.158
85035SOL     OW57001   8.438  13.354   1.322
85035SOL    HW157002   8.509  13.398   1.277
85035SOL    HW257003   8.361  13.371   1.268
85036SOL     OW57004   3.211   9.214  14.631
85036SOL    HW157005   3.301   9.198  14.659
85036SOL    HW257006   3.161   9.144  14.673
85037SOL     OW57007  11.050   4.317   8.382
85037SOL    HW157008  10.969   4.266   8.386
85037SOL    HW257009  11.066   4.343   8.473
85038SOL     OW57010  12.076  14.871  14.703
85038SOL    HW157011  12.048   0.059  14.644
85038SOL    HW257012  12.023   0.000  14.781
85039SOL     OW57013  13.033   1.339   9.166
85039SOL    HW157014  13.111   1.371   9.121
85039SOL    HW257015  13.056   1.341   9.259
85040SOL     OW57016   0.873  14.861   1.776
85040SOL    HW157017   0.898   0.072   1.777
85040SOL    HW257018   0.803  14.855   1.711
85041SOL     OW57019   1.834   5.969   1.699
85041SOL    HW157020   1.846   6.054   1.741
85041SOL    HW257021   1.743   5.945   1.718
85042SOL     OW57022  14.094   6.227   0.125
85042SOL    HW157023  14.107   6.318   0.098
85042SOL    HW257024  14.043   6.234   0.206
85043SOL     OW57025   3.803   1.356  12.353
85043SOL    HW157026   3.761   1.441  12.365
85043SOL    HW257027   3.815   1.349  12.258
85044SOL     OW57028   5.890   4.652  12.120
85044SOL    HW157029   5.944   4.731  12.119
85044SOL    HW257030   5.926   4.597  12.050
85045SOL     OW57031   8.611   7.136   1.434
85045SOL    HW157032   8.523   7.104   1.453
85045SOL    HW257033   8.647   7.159   1.520
85046SOL     OW57034  12.094   4.529   3.743
85046SOL    HW157035  12.041   4.604   3.770
85046SOL    HW257036  12.147   4.508   3.820
85047SOL     OW57037  11.701  12.910   8.314
85047SOL    HW157038  11.789  12.872   8.317
85047SOL    HW257039  11.669  12.903   8.404
85048SOL     OW57040  10.583  13.044   4.495
85048SOL    HW157041  10.650  13.073   4.557
85048SOL    HW257042  10.617  13.071   4.409
85049SOL     OW57043   2.515   2.720   2.037
85049SOL    HW157044   2.438   2.777   2.028
85049SOL    HW257045   2.543   2.703   1.947
85050SOL     OW57046   4.228   6.855   7.304
85050SOL    HW157047   4.213   6.820   7.217
85050SOL    HW257048   4.142   6.891   7.330
85051SOL     OW57049   7.771   6.574   2.012
85051SOL    HW157050   7.742   6.512   1.946
85051SOL    HW257051   7.857   6.541   2.040
85052SOL     OW57052  12.039  12.092   0.866
85052SOL    HW157053  11.962  12.054   0.825
85052SOL    HW257054  12.046  12.179   0.829
85053SOL     OW57055   7.994   0.767   5.211
85053SOL    HW157056   8.057   0.716   5.261
85053SOL    HW257057   8.023   0.759   5.121
85054SOL     OW57058   3.385   8.116   5.073
85054SOL    HW157059   3.335   8.083   5.148
85054SOL    HW257060   3.442   8.183   5.109
85055SOL     OW57061  11.405   7.363   0.940
85055SOL    HW157062  11.354   7.382   1.018
85055SOL    HW257063  11.350   7.303   0.889
85056SOL     OW57064  13.992  14.182   9.464
85056SOL    HW157065  14.077  14.160   9.427
85056SOL    HW257066  13.928  14.140   9.406
85057SOL     OW57067  10.440  13.671   0.609
85057SOL    HW157068  10.505  13.642   0.674
85057SOL    HW257069  10.473  13.755   0.579
85058SOL     OW57070  11.098  14.135   5.749
85058SOL    HW157071  11.193  14.134   5.754
85058SOL    HW257072  11.075  14.053   5.706
85059SOL     OW57073   1.568  11.458   1.653
85059SOL    HW157074   1.491  11.415   1.616
85059SOL    HW257075   1.534  11.537   1.694
85060SOL     OW57076   6.325  14.060  12.895
85060SOL    HW157077   6.348  14.117  12.822
85060SOL    HW257078   6.324  13.972  12.857
85061SOL     OW57079   7.917   9.961   5.319
85061SOL    HW157080   7.993   9.963   5.378
85061SOL    HW257081   7.845   9.930   5.374
85062SOL     OW57082  13.414   9.175  11.676
85062SOL    HW157083  13.397   9.082  11.661
85062SOL    HW257084  13.434   9.181  11.769
85063SOL     OW57085  14.448   5.363   0.521
85063SOL    HW157086  14.397   5.409   0.588
85063SOL    HW257087  14.382   5.329   0.460
85064SOL     OW57088  13.852   1.832   9.306
85064SOL    HW157089  13.856   1.918   9.347
85064SOL    HW257090  13.924   1.783   9.346
85065SOL     OW57091  10.379  13.878  11.083
85065SOL    HW157092  10.446  13.811  11.100
85065SOL    HW257093  10.328  13.843  11.010
85066SOL     OW57094   4.386   2.938   9.436
85066SOL    HW157095   4.309   2.886   9.458
85066SOL    HW257096   4.350   3.019   9.400
85067SOL     OW57097   3.228  10.692   6.610
85067SOL    HW157098   3.179  10.719   6.688
85067SOL    HW257099   3.186  10.611   6.582
85068SOL     OW57100   2.544   5.470   7.667
85068SOL    HW157101   2.635   5.460   7.640
85068SOL    HW257102   2.493   5.439   7.592
85069SOL     OW57103   9.449   3.776   8.429
85069SOL    HW157104   9.451   3.818   8.343
85069SOL    HW257105   9.419   3.845   8.488
85070SOL     OW57106   4.267  13.331   2.970
85070SOL    HW157107   4.216  13.403   3.006
85070SOL    HW257108   4.284  13.357   2.879
85071SOL     OW57109   4.315  11.560  13.765
85071SOL    HW157110   4.356  11.513  13.838
85071SOL    HW257111   4.227  11.579  13.795
85072SOL     OW57112   4.074  14.499   9.496
85072SOL    HW157113   3.987  14.540   9.504
85072SOL    HW257114   4.083  14.480   9.403
85073SOL     OW57115   4.935   2.862  12.143
85073SOL    HW157116   4.981   2.855  12.227
85073SOL    HW257117   4.975   2.936  12.099
85074SOL     OW57118  10.124  13.758   9.061
85074SOL    HW157119  10.079  13.752   9.145
85074SOL    HW257120  10.217  13.749   9.082
85075SOL     OW57121   5.304   6.818   2.247
85075SOL    HW157122   5.297   6.741   2.304
85075SOL    HW257123   5.393   6.849   2.260
85076SOL     OW57124   4.376   8.257   5.059
85076SOL    HW157125   4.419   8.339   5.085
85076SOL    HW257126   4.369   8.207   5.141
85077SOL     OW57127  14.268  10.756  10.445
85077SOL    HW157128  14.201  10.732  10.508
85077SOL    HW257129  14.290  10.847  10.466
85078SOL     OW57130   1.927   7.392   1.736
85078SOL    HW157131   1.973   7.405   1.819
85078SOL    HW257132   1.859   7.460   1.735
85079SOL     OW57133  13.204   7.471  14.807
85079SOL    HW157134  13.210   7.379  14.782
85079SOL    HW257135  13.127   7.504  14.760
85080SOL     OW57136  14.242   1.486   3.491
85080SOL    HW157137  14.266   1.498   3.399
85080SOL    HW257138  14.232   1.575   3.525
85081SOL     OW57139   8.333  13.511   5.163
85081SOL    HW157140   8.358  13.423   5.135
85081SOL    HW257141   8.409  13.544   5.211
85082SOL     OW57142   8.022   8.830   0.307
85082SOL    HW157143   8.085   8.819   0.236
85082SOL    HW257144   7.978   8.746   0.313
85083SOL     OW57145   2.280   1.328  14.521
85083SOL    HW157146   2.324   1.301  14.440
85083SOL    HW257147   2.274   1.247  14.572
85084SOL     OW57148   8.745   1.059  13.550
85084SOL    HW157149   8.684   1.007  13.498
85084SOL    HW257150   8.691   1.129  13.586
85085SOL     OW57151   6.009   8.927  11.945
85085SOL    HW157152   6.084   8.964  11.897
85085SOL    HW257153   6.015   8.966  12.032
85086SOL     OW57154   9.844   8.047   1.011
85086SOL    HW157155   9.935   8.024   1.029
85086SOL    HW257156   9.847   8.134   0.973
85087SOL     OW57157   4.684   8.404   0.299
85087SOL    HW157158   4.752   8.453   0.347
85087SOL    HW257159   4.673   8.453   0.218
85088SOL     OW57160   8.620   8.686   7.688
85088SOL    HW157161   8.551   8.620   7.694
85088SOL    HW257162   8.577   8.764   7.653
85089SOL     OW57163   6.397   2.044  11.544
85089SOL    HW157164   6.361   2.069  11.629
85089SOL    HW257165   6.325   1.997  11.501
85090SOL     OW57166  13.971  13.055   2.328
85090SOL    HW157167  14.004  13.095   2.408
85090SOL    HW257168  13.910  12.988   2.358
85091SOL     OW57169   1.265   4.715  10.353
85091SOL    HW157170   1.226   4.708  10.440
85091SOL    HW257171   1.355   4.685  10.364
85092SOL     OW57172   1.806   8.684   6.274
85092SOL    HW157173   1.828   8.777   6.273
85092SOL    HW257174   1.820   8.657   6.365
85093SOL     OW57175   2.952   2.094   7.505
85093SOL    HW157176   2.907   2.140   7.435
85093SOL    HW257177   3.013   2.159   7.541
85094SOL     OW57178   9.287   7.058  12.700
85094SOL    HW157179   9.324   7.006  12.772
85094SOL    HW257180   9.329   7.144  12.709
85095SOL     OW57181  11.111   2.748   3.688
85095SOL    HW157182  11.133   2.838   3.664
85095SOL    HW257183  11.154   2.734   3.772
85096SOL     OW57184  14.166   7.899   2.231
85096SOL    HW157185  14.258   7.904   2.254
85096SOL    HW257186  14.128   7.837   2.293
85097SOL     OW57187   3.986   6.699   3.175
85097SOL    HW157188   3.923   6.662   3.238
85097SOL    HW257189   4.044   6.752   3.228
85098SOL     OW57190  13.767   9.135   3.489
85098SOL    HW157191  13.781   9.040   3.493
85098SOL    HW257192  13.747   9.160   3.579
85099SOL     OW57193   7.300   1.479   6.937
85099SOL    HW157194   7.211   1.454   6.964
85099SOL    HW257195   7.330   1.407   6.882
85100SOL     OW57196  10.049   1.690   9.796
85100SOL    HW157197  10.059   1.723   9.707
85100SOL    HW257198   9.990   1.615   9.788
85101SOL     OW57199   4.590   8.689  13.622
85101SOL    HW157200   4.685   8.690  13.623
85101SOL    HW257201   4.565   8.769  13.669
85102SOL     OW57202   1.860   0.629   7.790
85102SOL    HW157203   1.840   0.710   7.744
85102SOL    HW257204   1.784   0.573   7.774
85103SOL     OW57205   0.878  10.114   6.156
85103SOL    HW157206   0.892  10.177   6.227
85103SOL    HW257207   0.790  10.133   6.123
85104SOL     OW57208  13.823   4.525   3.369
85104SOL    HW157209  13.826   4.559   3.459
85104SOL    HW257210  13.755   4.576   3.326
85105SOL     OW57211   1.051   9.548   5.398
85105SOL    HW157212   0.982   9.494   5.362
85105SOL    HW257213   1.120   9.486   5.423
85106SOL     OW57214   4.952   6.725   5.017
85106SOL    HW157215   4.996   6.808   5.039
85106SOL    HW257216   5.020   6.672   4.977
85107SOL     OW57217   1.854  14.757   9.854
85107SOL    HW157218   1.819  14.789   9.771
85107SOL    HW257219   1.796  14.686   9.879
85108SOL     OW57220   6.355   2.159  14.130
85108SOL    HW157221   6.427   2.159  14.193
85108SOL    HW257222   6.307   2.078  14.148
85109SOL     OW57223   7.325  14.776  14.799
85109SOL    HW157224   7.387  14.849  14.806
85109SOL    HW257225   7.370  14.712  14.745
85110SOL     OW57226  13.990   9.391   6.097
85110SOL    HW157227  14.064   9.344   6.135
85110SOL    HW257228  14.017   9.482   6.095
85111SOL     OW57229  12.707   1.432  14.020
85111SOL    HW157230  12.640   1.499  14.014
85111SOL    HW257231  12.785   1.478  14.053
85112SOL     OW57232   2.273   2.135   7.103
85112SOL    HW157233   2.314   2.100   7.024
85112SOL    HW257234   2.336   2.118   7.173
85113SOL     OW57235   0.901  12.363  11.933
85113SOL    HW157236   0.940  12.426  11.993
85113SOL    HW257237   0.907  12.405  11.847
85114SOL     OW57238   5.142   0.262   0.803
85114SOL    HW157239   5.114   0.240   0.892
85114SOL    HW257240   5.175   0.180   0.767
85115SOL     OW57241  10.968   4.034  10.652
85115SOL    HW157242  10.884   3.998  10.625
85115SOL    HW257243  10.995   3.979  10.726
85116SOL     OW57244   0.393   7.724   2.466
85116SOL    HW157245   0.477   7.698   2.428
85116SOL    HW257246   0.417   7.780   2.540
85117SOL     OW57247   3.427   2.647   0.956
85117SOL    HW157248   3.503   2.705   0.961
85117SOL    HW257249   3.456   2.575   0.901
85118SOL     OW57250   4.046  11.281   6.714
85118SOL    HW157251   4.137  11.310   6.721
85118SOL    HW257252   4.051  11.193   6.676
85119SOL     OW57253   5.942   9.760   4.405
85119SOL    HW157254   5.884   9.833   4.429
85119SOL    HW257255   6.006   9.756   4.476
85120SOL     OW57256   2.586   4.685   5.252
85120SOL    HW157257   2.557   4.610   5.304
85120SOL    HW257258   2.604   4.753   5.316
85121SOL     OW57259  10.175   7.432   8.479
85121SOL    HW157260  10.095   7.467   8.439
85121SOL    HW257261  10.210   7.372   8.412
85122SOL     OW57262   2.866   3.109  11.142
85122SOL    HW157263   2.854   3.014  11.140
85122SOL    HW257264   2.813   3.138  11.216
85123SOL     OW57265   1.004   2.388  11.430
85123SOL    HW157266   0.945   2.397  11.356
85123SOL    HW257267   1.054   2.308  11.412
85124SOL     OW57268   9.396   8.121   0.573
85124SOL    HW157269   9.439   8.100   0.490
85124SOL    HW257270   9.373   8.036   0.611
85125SOL     OW57271  11.774   8.249   9.745
85125SOL    HW157272  11.838   8.319   9.756
85125SOL    HW257273  11.689   8.292   9.751
85126SOL     OW57274   8.742   9.998   4.340
85126SOL    HW157275   8.660   9.978   4.294
85126SOL    HW257276   8.773   9.913   4.371
85127SOL     OW57277   2.549  12.426   9.591
85127SOL    HW157278   2.462  12.387   9.582
85127SOL    HW257279   2.610  12.352   9.583
85128SOL     OW57280  12.218   3.031  13.689
85128SOL    HW157281  12.176   3.083  13.757
85128SOL    HW257282  12.292   3.085  13.661
85129SOL     OW57283   7.115   2.114  13.577
85129SOL    HW157284   7.084   2.056  13.647
85129SOL    HW257285   7.041   2.120  13.517
85130SOL     OW57286   5.387  14.399   8.799
85130SOL    HW157287   5.326  14.325   8.798
85130SOL    HW257288   5.473  14.360   8.787
85131SOL     OW57289   3.152   4.915   5.745
85131SOL    HW157290   3.132   4.909   5.838
85131SOL    HW257291   3.067   4.931   5.703
85132SOL     OW57292  10.114   5.708  10.682
85132SOL    HW157293  10.131   5.717  10.589
85132SOL    HW257294  10.075   5.792  10.708
85133SOL     OW57295  10.609   7.174   3.930
85133SOL    HW157296  10.605   7.091   3.977
85133SOL    HW257297  10.689   7.216   3.962
85134SOL     OW57298   7.270  10.835  13.310
85134SOL    HW157299   7.183  10.872  13.328
85134SOL    HW257300   7.328  10.881  13.371
85135SOL     OW57301  10.245  11.830  11.625
85135SOL    HW157302  10.310  11.900  11.619
85135SOL    HW257303  10.163  11.871  11.597
85136SOL     OW57304   3.709   5.621   5.919
85136SOL    HW157305   3.689   5.712   5.943
85136SOL    HW257306   3.648   5.569   5.971
85137SOL     OW57307  13.089  10.247   4.639
85137SOL    HW157308  13.005  10.214   4.607
85137SOL    HW257309  13.153  10.183   4.608
85138SOL     OW57310   9.573   0.151  11.761
85138SOL    HW157311   9.504   0.086  11.748
85138SOL    HW257312   9.627   0.117  11.831
85139SOL     OW57313   3.420   2.774   7.586
85139SOL    HW157314   3.410   2.710   7.655
85139SOL    HW257315   3.348   2.757   7.525
85140SOL     OW57316   8.814   0.288   6.982
85140SOL    HW157317   8.878   0.300   6.912
85140SOL    HW257318   8.763   0.211   6.956
85141SOL     OW57319  14.093   9.054  12.337
85141SOL    HW157320  14.132   9.136  12.307
85141SOL    HW257321  13.999   9.069  12.333
85142SOL     OW57322   4.897   3.037   4.104
85142SOL    HW157323   4.990   3.052   4.086
85142SOL    HW257324   4.851   3.092   4.041
85143SOL     OW57325  11.717  11.614   5.423
85143SOL    HW157326  11.685  11.648   5.340
85143SOL    HW257327  11.801  11.575   5.402
85144SOL     OW57328   0.316  12.893   5.844
85144SOL    HW157329   0.221  12.896   5.830
85144SOL    HW257330   0.327  12.837   5.921
85145SOL     OW57331   1.772  13.071   7.792
85145SOL    HW157332   1.819  13.038   7.869
85145SOL    HW257333   1.719  12.998   7.762
85146SOL     OW57334  10.499   8.058  14.177
85146SOL    HW157335  10.569   7.996  14.153
85146SOL    HW257336  10.462   8.085  14.093
85147SOL     OW57337   0.617   3.527  12.011
85147SOL    HW157338   0.593   3.460  11.947
85147SOL    HW257339   0.713   3.522  12.016
85148SOL     OW57340  10.879   8.718   9.008
85148SOL    HW157341  10.826   8.646   9.040
85148SOL    HW257342  10.864   8.719   8.914
85149SOL     OW57343   4.740   5.904   4.580
85149SOL    HW157344   4.759   5.997   4.591
85149SOL    HW257345   4.645   5.900   4.569
85150SOL     OW57346  12.567   7.760   0.639
85150SOL    HW157347  12.526   7.743   0.554
85150SOL    HW257348  12.647   7.807   0.619
85151SOL     OW57349   8.126   8.498   0.141
85151SOL    HW157350   8.168   8.442   0.205
85151SOL    HW257351   8.195   8.560   0.114
85152SOL     OW57352   5.517  14.876  11.567
85152SOL    HW157353   5.460  14.801  11.551
85152SOL    HW257354   5.457   0.062  11.599
85153SOL     OW57355   9.214   7.935  11.429
85153SOL    HW157356   9.169   8.011  11.390
85153SOL    HW257357   9.270   7.903  11.359
85154SOL     OW57358   9.887   4.642  12.740
85154SOL    HW157359   9.812   4.608  12.789
85154SOL    HW257360   9.906   4.727  12.780
85155SOL     OW57361   7.960   6.285   9.183
85155SOL    HW157362   7.945   6.250   9.095
85155SOL    HW257363   8.042   6.244   9.211
85156SOL     OW57364   1.783   9.016   9.317
85156SOL    HW157365   1.731   9.083   9.362
85156SOL    HW257366   1.873   9.047   9.323
85157SOL     OW57367   9.118   2.391   2.431
85157SOL    HW157368   9.106   2.447   2.354
85157SOL    HW257369   9.210   2.400   2.454
85158SOL     OW57370  11.730   9.566   0.524
85158SOL    HW157371  11.722   9.472   0.503
85158SOL    HW257372  11.773   9.568   0.609
85159SOL     OW57373   5.539   2.859   8.087
85159SOL    HW157374   5.508   2.784   8.037
85159SOL    HW257375   5.522   2.835   8.179
85160SOL     OW57376  13.199   5.736   4.804
85160SOL    HW157377  13.103   5.739   4.797
85160SOL    HW257378  13.230   5.750   4.715
85161SOL     OW57379   3.130   9.116   3.455
85161SOL    HW157380   3.184   9.038   3.467
85161SOL    HW257381   3.109   9.116   3.361
85162SOL     OW57382   9.440   4.374   0.652
85162SOL    HW157383   9.505   4.402   0.587
85162SOL    HW257384   9.373   4.328   0.601
85163SOL     OW57385   5.300   5.506  14.328
85163SOL    HW157386   5.251   5.569  14.381
85163SOL    HW257387   5.365   5.559  14.281
85164SOL     OW57388   6.109  14.321   7.699
85164SOL    HW157389   6.198  14.349   7.680
85164SOL    HW257390   6.053  14.374   7.642
85165SOL     OW57391   5.249  10.241  13.159
85165SOL    HW157392   5.204  10.278  13.235
85165SOL    HW257393   5.200  10.162  13.139
85166SOL     OW57394  14.710  10.068  11.585
85166SOL    HW157395  14.735   9.979  11.560
85166SOL    HW257396  14.711  10.067  11.681
85167SOL     OW57397   6.260  14.501  13.163
85167SOL    HW157398   6.265  14.416  13.208
85167SOL    HW257399   6.168  14.508  13.136
85168SOL     OW57400  13.524   2.159   4.086
85168SOL    HW157401  13.451   2.220   4.089
85168SOL    HW257402  13.591   2.203   4.034
85169SOL     OW57403  12.482  13.751   0.722
85169SOL    HW157404  12.549  13.818   0.719
85169SOL    HW257405  12.405  13.792   0.682
85170SOL     OW57406   3.448   5.720  11.156
85170SOL    HW157407   3.494   5.801  11.178
85170SOL    HW257408   3.372   5.719  11.214
85171SOL     OW57409   6.691   5.607  14.407
85171SOL    HW157410   6.676   5.512  14.408
85171SOL    HW257411   6.771   5.618  14.356
85172SOL     OW57412   3.416   7.956  13.723
85172SOL    HW157413   3.449   7.876  13.765
85172SOL    HW257414   3.456   8.027  13.772
85173SOL     OW57415  12.135   8.154   4.236
85173SOL    HW157416  12.069   8.143   4.305
85173SOL    HW257417  12.218   8.134   4.279
85174SOL     OW57418   6.688   9.337  10.674
85174SOL    HW157419   6.754   9.312  10.610
85174SOL    HW257420   6.643   9.256  10.695
85175SOL     OW57421   3.449  12.130   7.335
85175SOL    HW157422   3.482  12.213   7.370
85175SOL    HW257423   3.503  12.113   7.259
85176SOL     OW57424   1.868   1.703   6.008
85176SOL    HW157425   1.779   1.734   6.029
85176SOL    HW257426   1.871   1.614   6.042
85177SOL     OW57427   1.902   7.495   4.860
85177SOL    HW157428   1.962   7.566   4.885
85177SOL    HW257429   1.955   7.416   4.868
85178SOL     OW57430  11.999   5.559   5.284
85178SOL    HW157431  12.021   5.466   5.278
85178SOL    HW257432  12.016   5.594   5.197
85179SOL     OW57433   3.759  10.260   5.012
85179SOL    HW157434   3.843  10.297   5.041
85179SOL    HW257435   3.710  10.335   4.978
85180SOL     OW57436   8.818   7.557   1.141
85180SOL    HW157437   8.772   7.478   1.170
85180SOL    HW257438   8.905   7.549   1.179
85181SOL     OW57439   1.885   9.000   1.005
85181SOL    HW157440   1.793   8.989   1.030
85181SOL    HW257441   1.885   9.074   0.946
85182SOL     OW57442  14.267   4.267   0.355
85182SOL    HW157443  14.222   4.187   0.382
85182SOL    HW257444  14.291   4.251   0.263
85183SOL     OW57445   9.620   9.690   6.274
85183SOL    HW157446   9.678   9.738   6.215
85183SOL    HW257447   9.560   9.643   6.216
85184SOL     OW57448   4.578  11.462   9.551
85184SOL    HW157449   4.610  11.373   9.540
85184SOL    HW257450   4.483  11.455   9.543
85185SOL     OW57451   1.477  12.059   5.635
85185SOL    HW157452   1.459  12.135   5.581
85185SOL    HW257453   1.540  12.090   5.700
85186SOL     OW57454   9.047   9.807   1.733
85186SOL    HW157455   8.982   9.742   1.707
85186SOL    HW257456   9.124   9.786   1.681
85187SOL     OW57457   1.334  11.962  14.821
85187SOL    HW157458   1.260  11.915  14.782
85187SOL    HW257459   1.323  12.052  14.792
85188SOL     OW57460   6.743   6.860   7.423
85188SOL    HW157461   6.738   6.829   7.513
85188SOL    HW257462   6.655   6.846   7.388
85189SOL     OW57463   0.874   5.993   3.898
85189SOL    HW157464   0.932   5.918   3.886
85189SOL    HW257465   0.786   5.956   3.896
85190SOL     OW57466   1.978  11.042   1.413
85190SOL    HW157467   2.022  11.127   1.408
85190SOL    HW257468   2.044  10.983   1.451
85191SOL     OW57469  10.737   8.144   7.828
85191SOL    HW157470  10.692   8.099   7.757
85191SOL    HW257471  10.754   8.232   7.794
85192SOL     OW57472   8.001   9.240   0.727
85192SOL    HW157473   7.997   9.279   0.640
85192SOL    HW257474   8.012   9.315   0.786
85193SOL     OW57475   4.546  14.012   4.734
85193SOL    HW157476   4.474  13.989   4.793
85193SOL    HW257477   4.614  13.948   4.753
85194SOL     OW57478  11.718   6.193  11.322
85194SOL    HW157479  11.702   6.126  11.255
85194SOL    HW257480  11.689   6.275  11.282
85195SOL     OW57481  10.509   8.624  12.364
85195SOL    HW157482  10.447   8.623  12.291
85195SOL    HW257483  10.480   8.553  12.421
85196SOL     OW57484   2.334   6.893   7.049
85196SOL    HW157485   2.398   6.833   7.086
85196SOL    HW257486   2.249   6.851   7.064
85197SOL     OW57487   7.038   3.888   5.357
85197SOL    HW157488   7.121   3.897   5.309
85197SOL    HW257489   6.991   3.970   5.338
85198SOL     OW57490  13.749   3.341  10.438
85198SOL    HW157491  13.814   3.305  10.378
85198SOL    HW257492  13.669   3.349  10.386
85199SOL     OW57493   8.536   8.730   4.656
85199SOL    HW157494   8.617   8.776   4.677
85199SOL    HW257495   8.479   8.796   4.617
85200SOL     OW57496  12.623  10.925   5.389
85200SOL    HW157497  12.627  11.021   5.387
85200SOL    HW257498  12.701  10.897   5.340
85201SOL     OW57499   5.564   1.211  12.507
85201SOL    HW157500   5.477   1.238  12.537
85201SOL    HW257501   5.616   1.292  12.507
85202SOL     OW57502   0.731   6.076  11.613
85202SOL    HW157503   0.777   5.994  11.628
85202SOL    HW257504   0.642   6.051  11.591
85203SOL     OW57505   5.674  10.937  10.399
85203SOL    HW157506   5.626  11.019  10.389
85203SOL    HW257507   5.763  10.963  10.422
85204SOL     OW57508  11.112  12.185  10.576
85204SOL    HW157509  11.143  12.101  10.609
85204SOL    HW257510  11.020  12.188  10.600
85205SOL     OW57511   3.608  13.114  10.285
85205SOL    HW157512   3.562  13.052  10.228
85205SOL    HW257513   3.612  13.195  10.234
85206SOL     OW57514   4.588  12.558  10.746
85206SOL    HW157515   4.494  12.556  10.734
85206SOL    HW257516   4.623  12.510  10.670
85207SOL     OW57517   3.213   7.327   1.290
85207SOL    HW157518   3.198   7.400   1.350
85207SOL    HW257519   3.212   7.249   1.346
85208SOL     OW57520  10.219   9.636   4.369
85208SOL    HW157521  10.195   9.610   4.280
85208SOL    HW257522  10.139   9.625   4.420
85209SOL     OW57523   5.004   5.528  11.331
85209SOL    HW157524   4.971   5.445  11.296
85209SOL    HW257525   5.099   5.522  11.320
85210SOL     OW57526   9.943   7.470   3.959
85210SOL    HW157527   9.907   7.532   4.023
85210SOL    HW257528  10.038   7.480   3.967
85211SOL     OW57529   0.235   8.044   0.732
85211SOL    HW157530   0.171   8.097   0.685
85211SOL    HW257531   0.318   8.062   0.687
85212SOL     OW57532   9.651   9.964   4.425
85212SOL    HW157533   9.586   9.983   4.358
85212SOL    HW257534   9.647   9.869   4.436
85213SOL     OW57535  10.751   7.930  11.358
85213SOL    HW157536  10.749   7.923  11.454
85213SOL    HW257537  10.828   7.983  11.339
85214SOL     OW57538  14.349   6.255   3.407
85214SOL    HW157539  14.383   6.344   3.405
85214SOL    HW257540  14.422   6.201   3.437
85215SOL     OW57541   9.110  11.713  10.074
85215SOL    HW157542   9.167  11.737  10.147
85215SOL    HW257543   9.134  11.774  10.004
85216SOL     OW57544  14.008  11.680   2.984
85216SOL    HW157545  13.940  11.617   2.961
85216SOL    HW257546  13.972  11.728   3.059
85217SOL     OW57547  10.288   4.001   1.968
85217SOL    HW157548  10.344   3.955   2.031
85217SOL    HW257549  10.337   4.000   1.886
85218SOL     OW57550   4.798   1.783   2.123
85218SOL    HW157551   4.839   1.765   2.207
85218SOL    HW257552   4.861   1.751   2.058
85219SOL     OW57553   0.382   6.475  11.499
85219SOL    HW157554   0.414   6.506  11.415
85219SOL    HW257555   0.457   6.431  11.539
85220SOL     OW57556  10.739   2.648  12.617
85220SOL    HW157557  10.764   2.580  12.555
85220SOL    HW257558  10.798   2.636  12.691
85221SOL     OW57559   5.434   4.817  12.230
85221SOL    HW157560   5.522   4.853  12.215
85221SOL    HW257561   5.425   4.818  12.326
85222SOL     OW57562   5.823   4.908   6.128
85222SOL    HW157563   5.808   4.961   6.050
85222SOL    HW257564   5.887   4.958   6.179
85223SOL     OW57565   2.378   3.205  11.315
85223SOL    HW157566   2.429   3.277  11.278
85223SOL    HW257567   2.362   3.147  11.240
85224SOL     OW57568   8.007   5.507  12.419
85224SOL    HW157569   8.012   5.513  12.514
85224SOL    HW257570   7.927   5.458  12.402
85225SOL     OW57571   3.624   8.619   0.147
85225SOL    HW157572   3.625   8.714   0.155
85225SOL    HW257573   3.716   8.595   0.139
85226SOL     OW57574   1.002  14.606  12.964
85226SOL    HW157575   1.020  14.598  12.871
85226SOL    HW257576   1.047  14.531  13.003
85227SOL     OW57577   3.010   3.015   3.973
85227SOL    HW157578   3.050   2.944   3.924
85227SOL    HW257579   3.084   3.069   4.002
85228SOL     OW57580  11.764   7.561   0.162
85228SOL    HW157581  11.783   7.614   0.084
85228SOL    HW257582  11.792   7.473   0.139
85229SOL     OW57583   1.622   6.343   8.810
85229SOL    HW157584   1.607   6.413   8.747
85229SOL    HW257585   1.545   6.347   8.868
85230SOL     OW57586  13.434   0.452   5.766
85230SOL    HW157587  13.366   0.399   5.725
85230SOL    HW257588  13.401   0.470   5.854
85231SOL     OW57589   3.903  11.511  13.130
85231SOL    HW157590   3.951  11.440  13.173
85231SOL    HW257591   3.961  11.587  13.137
85232SOL     OW57592   4.666  12.046  12.512
85232SOL    HW157593   4.742  12.058  12.454
85232SOL    HW257594   4.668  11.954  12.535
85233SOL     OW57595   2.271   1.442   4.983
85233SOL    HW157596   2.179   1.469   4.988
85233SOL    HW257597   2.320   1.523   4.999
85234SOL     OW57598   3.938  13.539  13.896
85234SOL    HW157599   4.012  13.598  13.882
85234SOL    HW257600   3.956  13.465  13.838
85235SOL     OW57601  13.676  12.959   0.749
85235SOL    HW157602  13.623  12.993   0.821
85235SOL    HW257603  13.733  12.893   0.790
85236SOL     OW57604   7.888  12.503  12.679
85236SOL    HW157605   7.835  12.518  12.758
85236SOL    HW257606   7.963  12.562  12.690
85237SOL     OW57607  12.432   2.632   3.701
85237SOL    HW157608  12.459   2.563   3.640
85237SOL    HW257609  12.500   2.699   3.694
85238SOL     OW57610  12.239  11.314  13.051
85238SOL    HW157611  12.221  11.285  12.962
85238SOL    HW257612  12.166  11.278  13.103
85239SOL     OW57613   0.553  11.420  14.110
85239SOL    HW157614   0.544  11.327  14.090
85239SOL    HW257615   0.476  11.440  14.162
85240SOL     OW57616   2.018   9.292   3.075
85240SOL    HW157617   1.979   9.205   3.082
85240SOL    HW257618   2.112   9.277   3.077
85241SOL     OW57619  13.617  13.678   8.614
85241SOL    HW157620  13.680  13.699   8.545
85241SOL    HW257621  13.562  13.609   8.576
85242SOL     OW57622   8.156   7.691   4.705
85242SOL    HW157623   8.129   7.768   4.656
85242SOL    HW257624   8.163   7.621   4.640
85243SOL     OW57625   3.031   9.238   2.328
85243SOL    HW157626   2.964   9.177   2.296
85243SOL    HW257627   3.083   9.186   2.390
85244SOL     OW57628  14.604   8.195   6.456
85244SOL    HW157629  14.625   8.288   6.449
85244SOL    HW257630  14.639   8.168   6.541
85245SOL     OW57631   3.210   2.959   7.296
85245SOL    HW157632   3.212   2.864   7.305
85245SOL    HW257633   3.294   2.981   7.256
85246SOL     OW57634   5.331   0.762   3.396
85246SOL    HW157635   5.367   0.802   3.317
85246SOL    HW257636   5.405   0.715   3.434
85247SOL     OW57637   2.594   6.674   7.560
85247SOL    HW157638   2.514   6.658   7.611
85247SOL    HW257639   2.562   6.697   7.473
85248SOL     OW57640   1.981   2.111   2.975
85248SOL    HW157641   2.005   2.127   3.066
85248SOL    HW257642   1.958   2.197   2.941
85249SOL     OW57643   1.873   0.997  10.402
85249SOL    HW157644   1.885   0.952  10.486
85249SOL    HW257645   1.915   1.083  10.415
85250SOL     OW57646   7.867   4.130  14.121
85250SOL    HW157647   7.885   4.191  14.193
85250SOL    HW257648   7.951   4.120  14.076
85251SOL     OW57649   4.194  12.013  14.640
85251SOL    HW157650   4.142  12.011  14.560
85251SOL    HW257651   4.238  12.099  14.639
85252SOL     OW57652   9.477   9.227  14.749
85252SOL    HW157653   9.493   9.212  14.656
85252SOL    HW257654   9.550   9.283  14.777
85253SOL     OW57655   3.139  14.294   8.276
85253SOL    HW157656   3.212  14.250   8.232
85253SOL    HW257657   3.151  14.386   8.255
85254SOL     OW57658  13.429   5.258  11.661
85254SOL    HW157659  13.471   5.205  11.593
85254SOL    HW257660  13.415   5.196  11.733
85255SOL     OW57661   7.170   4.110  12.623
85255SOL    HW157662   7.172   4.016  12.644
85255SOL    HW257663   7.262   4.136  12.621
85256SOL     OW57664  11.478   7.958   3.320
85256SOL    HW157665  11.509   8.016   3.389
85256SOL    HW257666  11.390   7.933   3.346
85257SOL     OW57667   4.589   8.435  13.348
85257SOL    HW157668   4.614   8.379  13.275
85257SOL    HW257669   4.656   8.418  13.415
85258SOL     OW57670   2.862   8.245  14.402
85258SOL    HW157671   2.896   8.332  14.422
85258SOL    HW257672   2.831   8.252  14.312
85259SOL     OW57673   6.260   1.493  11.559
85259SOL    HW157674   6.288   1.574  11.602
85259SOL    HW257675   6.239   1.434  11.631
85260SOL     OW57676  14.657   8.217  12.278
85260SOL    HW157677  14.657   8.130  12.317
85260SOL    HW257678  14.725   8.265  12.326
85261SOL     OW57679   7.416   4.724   6.674
85261SOL    HW157680   7.443   4.639   6.709
85261SOL    HW257681   7.485   4.784   6.703
85262SOL     OW57682   7.157   0.913  13.014
85262SOL    HW157683   7.247   0.890  13.038
85262SOL    HW257684   7.143   1.000  13.051
85263SOL     OW57685  14.449   7.665   0.976
85263SOL    HW157686  14.501   7.596   0.935
85263SOL    HW257687  14.502   7.694   1.050
85264SOL     OW57688  14.437   0.833  11.507
85264SOL    HW157689  14.379   0.860  11.436
85264SOL    HW257690  14.523   0.865  11.481
85265SOL     OW57691   9.240  11.406  12.009
85265SOL    HW157692   9.215  11.429  11.920
85265SOL    HW257693   9.170  11.441  12.064
85266SOL     OW57694   9.025   2.172   1.004
85266SOL    HW157695   9.117   2.146   0.995
85266SOL    HW257696   9.028   2.267   1.017
85267SOL     OW57697   3.364   7.465  11.274
85267SOL    HW157698   3.447   7.429  11.304
85267SOL    HW257699   3.303   7.391  11.278
85268SOL     OW57700   3.370   2.355   7.036
85268SOL    HW157701   3.367   2.394   7.123
85268SOL    HW257702   3.450   2.302   7.036
85269SOL     OW57703  10.459   5.569   1.353
85269SOL    HW157704  10.385   5.519   1.388
85269SOL    HW257705  10.534   5.541   1.404
85270SOL     OW57706   0.907  10.704  10.136
85270SOL    HW157707   0.887  10.715  10.229
85270SOL    HW257708   0.885  10.788  10.097
85271SOL     OW57709  13.395   6.721   0.161
85271SOL    HW157710  13.344   6.754   0.087
85271SOL    HW257711  13.426   6.635   0.133
85272SOL     OW57712   0.610  11.425   0.777
85272SOL    HW157713   0.665  11.459   0.706
85272SOL    HW257714   0.602  11.331   0.759
85273SOL     OW57715   1.461   7.713   2.559
85273SOL    HW157716   1.485   7.805   2.544
85273SOL    HW257717   1.543   7.665   2.544
85274SOL     OW57718  14.673   4.728   9.654
85274SOL    HW157719  14.611   4.665   9.691
85274SOL    HW257720  14.628   4.764   9.577
85275SOL     OW57721   1.772   8.699   1.307
85275SOL    HW157722   1.796   8.788   1.280
85275SOL    HW257723   1.710   8.670   1.240
85276SOL     OW57724   4.992  13.626  12.801
85276SOL    HW157725   4.958  13.597  12.716
85276SOL    HW257726   4.913  13.642  12.854
85277SOL     OW57727  10.223  12.476   4.301
85277SOL    HW157728  10.135  12.443   4.284
85277SOL    HW257729  10.213  12.532   4.378
85278SOL     OW57730  10.572   0.116   9.997
85278SOL    HW157731  10.515   0.069  10.057
85278SOL    HW257732  10.656   0.123  10.044
85279SOL     OW57733   6.881   0.653  10.444
85279SOL    HW157734   6.896   0.697  10.360
85279SOL    HW257735   6.851   0.723  10.503
85280SOL     OW57736   3.703   2.317   1.448
85280SOL    HW157737   3.682   2.373   1.523
85280SOL    HW257738   3.639   2.246   1.452
85281SOL     OW57739   8.535   3.907  13.082
85281SOL    HW157740   8.486   3.885  13.161
85281SOL    HW257741   8.467   3.926  13.016
85282SOL     OW57742   6.537   4.692   7.270
85282SOL    HW157743   6.444   4.705   7.249
85282SOL    HW257744   6.542   4.707   7.365
85283SOL     OW57745   2.982   9.831  11.600
85283SOL    HW157746   3.015   9.918  11.623
85283SOL    HW257747   2.888   9.835  11.617
85284SOL     OW57748   3.115   6.863   9.752
85284SOL    HW157749   3.144   6.774   9.772
85284SOL    HW257750   3.093   6.861   9.659
85285SOL     OW57751   4.413  10.653  13.521
85285SOL    HW157752   4.327  10.646  13.562
85285SOL    HW257753   4.455  10.568  13.537
85286SOL     OW57754  10.229   0.777  12.282
85286SOL    HW157755  10.238   0.871  12.296
85286SOL    HW257756  10.192   0.743  12.364
85287SOL     OW57757   3.331   1.084   6.052
85287SOL    HW157758   3.424   1.062   6.057
85287SOL    HW257759   3.302   1.087   6.143
85288SOL     OW57760   5.976   0.201   7.960
85288SOL    HW157761   5.938   0.231   7.877
85288SOL    HW257762   5.925   0.246   8.027
85289SOL     OW57763   2.513   7.977   7.024
85289SOL    HW157764   2.597   7.947   7.057
85289SOL    HW257765   2.468   8.013   7.101
85290SOL     OW57766   1.696  14.854   3.784
85290SOL    HW157767   1.783  14.819   3.804
85290SOL    HW257768   1.650  14.781   3.741
85291SOL     OW57769   5.793   3.490   7.551
85291SOL    HW157770   5.840   3.491   7.468
85291SOL    HW257771   5.862   3.483   7.618
85292SOL     OW57772   1.120  13.364  12.448
85292SOL    HW157773   1.105  13.269  12.448
85292SOL    HW257774   1.033  13.401  12.459
85293SOL     OW57775   3.729   7.081  10.230
85293SOL    HW157776   3.671   7.145  10.271
85293SOL    HW257777   3.805   7.132  10.202
85294SOL     OW57778  14.785  11.684   2.683
85294SOL    HW157779  14.757  11.766   2.643
85294SOL    HW257780  14.716  11.663   2.746
85295SOL     OW57781  11.909   4.417   8.549
85295SOL    HW157782  11.915   4.323   8.566
85295SOL    HW257783  11.853   4.424   8.471
85296SOL     OW57784   5.487   1.069   9.901
85296SOL    HW157785   5.523   1.017   9.829
85296SOL    HW257786   5.452   1.005   9.963
85297SOL     OW57787   7.326   1.551   9.896
85297SOL    HW157788   7.357   1.601   9.972
85297SOL    HW257789   7.397   1.489   9.878
85298SOL     OW57790  14.666  11.787   2.209
85298SOL    HW157791  14.758  11.765   2.196
85298SOL    HW257792  14.640  11.738   2.287
85299SOL     OW57793  13.223  11.089  13.613
85299SOL    HW157794  13.315  11.116  13.611
85299SOL    HW257795  13.187  11.118  13.530
85300SOL     OW57796   8.397   9.472   0.589
85300SOL    HW157797   8.425   9.493   0.500
85300SOL    HW257798   8.476   9.444   0.634
85301SOL     OW57799  12.529  12.937  11.378
85301SOL    HW157800  12.538  12.903  11.467
85301SOL    HW257801  12.437  12.924  11.357
85302SOL     OW57802   6.489   0.256   0.144
85302SOL    HW157803   6.434   0.178   0.149
85302SOL    HW257804   6.578   0.223   0.146
85303SOL     OW57805   0.493   2.268   7.533
85303SOL    HW157806   0.588   2.273   7.545
85303SOL    HW257807   0.471   2.178   7.557
85304SOL     OW57808   8.290  11.722  12.129
85304SOL    HW157809   8.363  11.734  12.189
85304SOL    HW257810   8.288  11.802  12.076
85305SOL     OW57811   2.081  10.799   9.595
85305SOL    HW157812   2.003  10.855   9.602
85305SOL    HW257813   2.061  10.740   9.522
85306SOL     OW57814  11.287   7.603   9.107
85306SOL    HW157815  11.278   7.628   9.199
85306SOL    HW257816  11.352   7.663   9.071
85307SOL     OW57817  11.787   2.187   4.081
85307SOL    HW157818  11.855   2.125   4.106
85307SOL    HW257819  11.815   2.270   4.119
85308SOL     OW57820  14.773   6.398  10.570
85308SOL    HW157821  14.753   6.474  10.625
85308SOL    HW257822  14.722   6.411  10.490
85309SOL     OW57823   6.648   0.513   9.526
85309SOL    HW157824   6.565   0.466   9.535
85309SOL    HW257825   6.654   0.533   9.433
85310SOL     OW57826   9.587   5.415  13.375
85310SOL    HW157827   9.586   5.507  13.401
85310SOL    HW257828   9.659   5.376  13.425
85311SOL     OW57829   9.660  12.149  14.576
85311SOL    HW157830   9.665  12.159  14.481
85311SOL    HW257831   9.637  12.236  14.608
85312SOL     OW57832   2.146   4.647  13.118
85312SOL    HW157833   2.116   4.705  13.048
85312SOL    HW257834   2.170   4.705  13.190
85313SOL     OW57835   5.259   5.155   7.077
85313SOL    HW157836   5.304   5.240   7.080
85313SOL    HW257837   5.190   5.163   7.143
85314SOL     OW57838   7.129  14.487   3.977
85314SOL    HW157839   7.137  14.472   4.071
85314SOL    HW257840   7.057  14.550   3.970
85315SOL     OW57841   8.557   5.423   6.008
85315SOL    HW157842   8.607   5.346   6.033
85315SOL    HW257843   8.591   5.446   5.921
85316SOL     OW57844   5.142  14.736   0.657
85316SOL    HW157845   5.206  14.678   0.698
85316SOL    HW257846   5.065  14.682   0.643
85317SOL     OW57847   6.128   0.491  11.138
85317SOL    HW157848   6.194   0.446  11.087
85317SOL    HW257849   6.142   0.584  11.120
85318SOL     OW57850   5.003   3.331   4.282
85318SOL    HW157851   5.035   3.410   4.326
85318SOL    HW257852   5.006   3.354   4.189
85319SOL     OW57853  12.181   9.576   6.404
85319SOL    HW157854  12.153   9.486   6.388
85319SOL    HW257855  12.187   9.616   6.317
85320SOL     OW57856   3.171   3.478   3.194
85320SOL    HW157857   3.266   3.489   3.186
85320SOL    HW257858   3.161   3.394   3.239
85321SOL     OW57859   9.412   1.578   0.563
85321SOL    HW157860   9.508   1.576   0.571
85321SOL    HW257861   9.389   1.491   0.531
85322SOL     OW57862   8.035  13.942  11.382
85322SOL    HW157863   8.085  13.862  11.367
85322SOL    HW257864   7.980  13.922  11.458
85323SOL     OW57865   6.757   7.727   6.011
85323SOL    HW157866   6.723   7.741   5.923
85323SOL    HW257867   6.798   7.641   6.008
85324SOL     OW57868   1.966   8.568   8.362
85324SOL    HW157869   2.020   8.631   8.410
85324SOL    HW257870   2.026   8.526   8.301
85325SOL     OW57871  10.996   5.002   1.201
85325SOL    HW157872  10.996   5.054   1.121
85325SOL    HW257873  10.922   4.942   1.191
85326SOL     OW57874  12.791  11.745   2.816
85326SOL    HW157875  12.712  11.711   2.774
85326SOL    HW257876  12.766  11.756   2.908
85327SOL     OW57877  11.867  12.239   2.455
85327SOL    HW157878  11.797  12.176   2.440
85327SOL    HW257879  11.884  12.235   2.549
85328SOL     OW57880   8.665   8.937   2.449
85328SOL    HW157881   8.677   9.008   2.386
85328SOL    HW257882   8.716   8.964   2.525
85329SOL     OW57883  11.451  10.226   9.465
85329SOL    HW157884  11.378  10.173   9.496
85329SOL    HW257885  11.529  10.185   9.505
85330SOL     OW57886   6.722   6.072   6.049
85330SOL    HW157887   6.711   6.163   6.021
85330SOL    HW257888   6.696   6.072   6.141
85331SOL     OW57889  12.706   3.477   6.931
85331SOL    HW157890  12.773   3.495   6.998
85331SOL    HW257891  12.750   3.421   6.867
85332SOL     OW57892   2.364   5.505   4.138
85332SOL    HW157893   2.333   5.541   4.221
85332SOL    HW257894   2.368   5.410   4.153
85333SOL     OW57895  12.166  13.696  14.609
85333SOL    HW157896  12.131  13.778  14.643
85333SOL    HW257897  12.220  13.662  14.680
85334SOL     OW57898   9.199   5.588   2.658
85334SOL    HW157899   9.219   5.647   2.586
85334SOL    HW257900   9.203   5.643   2.737
85335SOL     OW57901  11.627   5.575  11.048
85335SOL    HW157902  11.700   5.635  11.059
85335SOL    HW257903  11.552   5.620  11.087
85336SOL     OW57904  13.606   6.045   6.735
85336SOL    HW157905  13.630   6.130   6.772
85336SOL    HW257906  13.597   6.061   6.642
85337SOL     OW57907  12.975   2.897  12.037
85337SOL    HW157908  13.020   2.869  12.117
85337SOL    HW257909  12.959   2.990  12.051
85338SOL     OW57910   0.321  10.602  14.845
85338SOL    HW157911   0.375  10.525  14.861
85338SOL    HW257912   0.363  10.644  14.769
85339SOL     OW57913  12.576   6.827   1.238
85339SOL    HW157914  12.508   6.853   1.300
85339SOL    HW257915  12.605   6.741   1.270
85340SOL     OW57916  10.551   0.470  13.761
85340SOL    HW157917  10.475   0.477  13.819
85340SOL    HW257918  10.614   0.417  13.810
85341SOL     OW57919   9.683   7.119  11.786
85341SOL    HW157920   9.686   7.184  11.715
85341SOL    HW257921   9.598   7.133  11.827
85342SOL     OW57922   7.450   5.524  13.178
85342SOL    HW157923   7.437   5.531  13.084
85342SOL    HW257924   7.378   5.574  13.216
85343SOL     OW57925  12.770  12.278   4.481
85343SOL    HW157926  12.704  12.347   4.485
85343SOL    HW257927  12.853  12.324   4.471
85344SOL     OW57928   2.999   9.012   6.826
85344SOL    HW157929   2.920   8.959   6.822
85344SOL    HW257930   2.970   9.095   6.865
85345SOL     OW57931  14.846  11.089   3.749
85345SOL    HW157932  14.832  10.998   3.722
85345SOL    HW257933  14.798  11.141   3.685
85346SOL     OW57934   6.748   5.433   4.504
85346SOL    HW157935   6.713   5.351   4.538
85346SOL    HW257936   6.779   5.480   4.582
85347SOL     OW57937  13.690   8.351   0.689
85347SOL    HW157938  13.722   8.269   0.726
85347SOL    HW257939  13.661   8.327   0.601
85348SOL     OW57940   5.686  11.713   3.080
85348SOL    HW157941   5.626  11.697   3.153
85348SOL    HW257942   5.698  11.628   3.040
85349SOL     OW57943  13.668   8.981   4.171
85349SOL    HW157944  13.586   8.995   4.218
85349SOL    HW257945  13.736   8.996   4.236
85350SOL     OW57946   2.827  13.081   3.504
85350SOL    HW157947   2.762  13.142   3.540
85350SOL    HW257948   2.776  13.003   3.481
85351SOL     OW57949   6.117   1.985  11.805
85351SOL    HW157950   6.136   2.019  11.892
85351SOL    HW257951   6.095   2.062  11.753
85352SOL     OW57952  10.358  10.717  12.838
85352SOL    HW157953  10.296  10.758  12.779
85352SOL    HW257954  10.352  10.767  12.919
85353SOL     OW57955   3.136   1.744  13.451
85353SOL    HW157956   3.100   1.695  13.377
85353SOL    HW257957   3.126   1.685  13.526
85354SOL     OW57958   8.231   5.021  11.465
85354SOL    HW157959   8.305   5.021  11.526
85354SOL    HW257960   8.160   5.063  11.513
85355SOL     OW57961  11.206   4.757  11.378
85355SOL    HW157962  11.170   4.828  11.432
85355SOL    HW257963  11.294   4.786  11.354
85356SOL     OW57964  11.484  10.566   7.793
85356SOL    HW157965  11.555  10.578   7.729
85356SOL    HW257966  11.527  10.526   7.869
85357SOL     OW57967   5.776  11.459   3.089
85357SOL    HW157968   5.805  11.518   3.158
85357SOL    HW257969   5.720  11.395   3.134
85358SOL     OW57970   3.769  13.330   9.408
85358SOL    HW157971   3.813  13.246   9.397
85358SOL    HW257972   3.773  13.347   9.502
85359SOL     OW57973  14.737   0.742  12.530
85359SOL    HW157974  14.708   0.785  12.450
85359SOL    HW257975  14.828   0.770  12.541
85360SOL     OW57976   3.858   0.678   3.310
85360SOL    HW157977   3.848   0.692   3.216
85360SOL    HW257978   3.951   0.655   3.320
85361SOL     OW57979   3.190   9.471  13.942
85361SOL    HW157980   3.187   9.385  13.984
85361SOL    HW257981   3.265   9.466  13.882
85362SOL     OW57982   4.476   2.680  13.145
85362SOL    HW157983   4.440   2.619  13.080
85362SOL    HW257984   4.399   2.711  13.193
85363SOL     OW57985   8.262  13.144  12.473
85363SOL    HW157986   8.215  13.181  12.398
85363SOL    HW257987   8.266  13.214  12.537
85364SOL     OW57988   7.483   5.902   5.247
85364SOL    HW157989   7.538   5.937   5.177
85364SOL    HW257990   7.519   5.940   5.327
85365SOL     OW57991   8.760   2.231   4.203
85365SOL    HW157992   8.838   2.199   4.248
85365SOL    HW257993   8.741   2.315   4.244
85366SOL     OW57994  11.041  10.703   4.650
85366SOL    HW157995  10.962  10.654   4.674
85366SOL    HW257996  11.111  10.661   4.701
85367SOL     OW57997  14.846   9.271   6.921
85367SOL    HW157998  14.770   9.241   6.872
85367SOL    HW257999  14.821   9.259   7.013
85368SOL     OW58000  11.737   8.771   2.853
85368SOL    HW158001  11.833   8.768   2.854
85368SOL    HW258002  11.711   8.706   2.918
85369SOL     OW58003   0.622   2.895   4.969
85369SOL    HW158004   0.614   2.979   4.924
85369SOL    HW258005   0.663   2.917   5.053
85370SOL     OW58006   0.115  12.424   8.489
85370SOL    HW158007   0.125  12.345   8.543
85370SOL    HW258008   0.187  12.419   8.426
85371SOL     OW58009   3.710   0.862  12.103
85371SOL    HW158010   3.661   0.936  12.068
85371SOL    HW258011   3.657   0.830  12.176
85372SOL     OW58012   5.163   8.685   1.256
85372SOL    HW158013   5.176   8.675   1.161
85372SOL    HW258014   5.068   8.696   1.266
85373SOL     OW58015   0.194   8.142   5.577
85373SOL    HW158016   0.258   8.099   5.520
85373SOL    HW258017   0.167   8.073   5.639
85374SOL     OW58018   9.149  14.539  13.436
85374SOL    HW158019   9.062  14.497  13.438
85374SOL    HW258020   9.163  14.561  13.344
85375SOL     OW58021   4.739  12.915   8.414
85375SOL    HW158022   4.701  13.001   8.392
85375SOL    HW258023   4.692  12.888   8.493
85376SOL     OW58024   7.836  12.164   6.243
85376SOL    HW158025   7.901  12.162   6.172
85376SOL    HW258026   7.846  12.251   6.282
85377SOL     OW58027   6.442   9.837   8.745
85377SOL    HW158028   6.529   9.798   8.752
85377SOL    HW258029   6.433   9.859   8.652
85378SOL     OW58030  14.706   1.508  14.079
85378SOL    HW158031  14.758   1.549  14.010
85378SOL    HW258032  14.726   1.415  14.072
85379SOL     OW58033  10.409   8.976  13.896
85379SOL    HW158034  10.342   8.971  13.827
85379SOL    HW258035  10.361   9.003  13.974
85380SOL     OW58036   9.252   5.430   0.013
85380SOL    HW158037   9.214   5.474   0.088
85380SOL    HW258038   9.187   5.440  14.826
85381SOL     OW58039   9.834   1.886   8.564
85381SOL    HW158040   9.902   1.878   8.630
85381SOL    HW258041   9.766   1.939   8.606
85382SOL     OW58042   9.815  10.717   6.484
85382SOL    HW158043   9.797  10.811   6.489
85382SOL    HW258044   9.864  10.697   6.564
85383SOL     OW58045   9.088   0.896  10.089
85383SOL    HW158046   9.176   0.931  10.098
85383SOL    HW258047   9.054   0.937  10.009
85384SOL     OW58048  13.776   0.054  13.366
85384SOL    HW158049  13.781   0.114  13.440
85384SOL    HW258050  13.683   0.051  13.344
85385SOL     OW58051   2.390  12.494  11.494
85385SOL    HW158052   2.320  12.555  11.470
85385SOL    HW258053   2.463  12.518  11.438
85386SOL     OW58054  14.303  14.527   3.332
85386SOL    HW158055  14.263  14.540   3.419
85386SOL    HW258056  14.390  14.493   3.351
85387SOL     OW58057  11.676  13.940   3.981
85387SOL    HW158058  11.686  13.925   4.075
85387SOL    HW258059  11.756  13.987   3.956
85388SOL     OW58060  11.452   1.050   2.187
85388SOL    HW158061  11.439   0.981   2.121
85388SOL    HW258062  11.532   1.025   2.232
85389SOL     OW58063   7.136  14.769  14.245
85389SOL    HW158064   7.157  14.763  14.339
85389SOL    HW258065   7.146  14.680  14.212
85390SOL     OW58066   4.376   7.842  14.025
85390SOL    HW158067   4.328   7.860  14.106
85390SOL    HW258068   4.357   7.751  14.005
85391SOL     OW58069   6.261   3.678   8.690
85391SOL    HW158070   6.307   3.680   8.773
85391SOL    HW258071   6.169   3.664   8.714
85392SOL     OW58072   4.489   8.678  13.371
85392SOL    HW158073   4.517   8.697  13.461
85392SOL    HW258074   4.518   8.589  13.355
85393SOL     OW58075  11.237  10.163   0.181
85393SOL    HW158076  11.282  10.146   0.098
85393SOL    HW258077  11.183  10.240   0.163
85394SOL     OW58078   1.108  10.705  12.307
85394SOL    HW158079   1.162  10.763  12.253
85394SOL    HW258080   1.102  10.624  12.257
85395SOL     OW58081   8.097   9.390   3.247
85395SOL    HW158082   8.047   9.378   3.328
85395SOL    HW258083   8.102   9.485   3.236
85396SOL     OW58084  11.492  11.314   3.092
85396SOL    HW158085  11.432  11.317   3.018
85396SOL    HW258086  11.442  11.271   3.161
85397SOL     OW58087   9.748   9.431   5.990
85397SOL    HW158088   9.795   9.347   5.991
85397SOL    HW258089   9.655   9.406   5.990
85398SOL     OW58090   7.404  14.280  12.142
85398SOL    HW158091   7.368  14.194  12.164
85398SOL    HW258092   7.473  14.295  12.207
85399SOL     OW58093   6.551  13.794  12.757
85399SOL    HW158094   6.559  13.717  12.701
85399SOL    HW258095   6.638  13.807  12.793
85400SOL     OW58096   6.411  12.147   4.491
85400SOL    HW158097   6.484  12.206   4.507
85400SOL    HW258098   6.336  12.205   4.479
85401SOL     OW58099   6.677   6.789   8.737
85401SOL    HW158100   6.741   6.861   8.734
85401SOL    HW258101   6.686   6.753   8.825
85402SOL     OW58102  12.253   5.387   4.111
85402SOL    HW158103  12.323   5.357   4.169
85402SOL    HW258104  12.284   5.472   4.078
85403SOL     OW58105  14.587   1.607   8.842
85403SOL    HW158106  14.510   1.662   8.831
85403SOL    HW258107  14.658   1.668   8.863
85404SOL     OW58108   4.180  13.447   3.543
85404SOL    HW158109   4.143  13.372   3.589
85404SOL    HW258110   4.253  13.410   3.492
85405SOL     OW58111   8.435  10.963   1.140
85405SOL    HW158112   8.435  11.055   1.113
85405SOL    HW258113   8.514  10.926   1.099
85406SOL     OW58114  13.174  12.083   8.543
85406SOL    HW158115  13.203  12.168   8.575
85406SOL    HW258116  13.253  12.041   8.510
85407SOL     OW58117   8.629   2.031  14.161
85407SOL    HW158118   8.632   2.051  14.255
85407SOL    HW258119   8.688   1.957  14.150
85408SOL     OW58120   1.834  12.156  12.781
85408SOL    HW158121   1.871  12.147  12.693
85408SOL    HW258122   1.800  12.246  12.783
85409SOL     OW58123   0.321   3.832   2.489
85409SOL    HW158124   0.375   3.801   2.562
85409SOL    HW258125   0.244   3.775   2.490
85410SOL     OW58126   7.302   6.739  12.972
85410SOL    HW158127   7.366   6.673  12.945
85410SOL    HW258128   7.244   6.748  12.897
85411SOL     OW58129  11.796   9.563  13.267
85411SOL    HW158130  11.882   9.527  13.288
85411SOL    HW258131  11.808   9.658  13.274
85412SOL     OW58132   2.355   7.435   4.632
85412SOL    HW158133   2.389   7.486   4.706
85412SOL    HW258134   2.400   7.469   4.555
85413SOL     OW58135   4.797  10.887  10.709
85413SOL    HW158136   4.855  10.907  10.635
85413SOL    HW258137   4.716  10.934  10.689
85414SOL     OW58138   0.808   5.568  13.651
85414SOL    HW158139   0.860   5.647  13.636
85414SOL    HW258140   0.856   5.499  13.604
85415SOL     OW58141   1.554  12.887   7.707
85415SOL    HW158142   1.466  12.923   7.717
85415SOL    HW258143   1.541  12.793   7.693
85416SOL     OW58144   4.063   3.991  13.719
85416SOL    HW158145   3.980   3.959  13.683
85416SOL    HW258146   4.124   3.919  13.706
85417SOL     OW58147   1.901   5.728   1.842
85417SOL    HW158148   1.900   5.820   1.815
85417SOL    HW258149   1.809   5.706   1.857
85418SOL     OW58150   0.689   2.078  12.159
85418SOL    HW158151   0.750   2.017  12.200
85418SOL    HW258152   0.610   2.072  12.212
85419SOL     OW58153   3.042   8.593   8.844
85419SOL    HW158154   2.952   8.602   8.814
85419SOL    HW258155   3.096   8.612   8.766
85420SOL     OW58156  13.450   8.442  12.890
85420SOL    HW158157  13.356   8.440  12.905
85420SOL    HW258158  13.479   8.527  12.924
85421SOL     OW58159   3.442   4.657   3.734
85421SOL    HW158160   3.395   4.673   3.816
85421SOL    HW258161   3.530   4.632   3.762
85422SOL     OW58162   0.076   3.186  11.842
85422SOL    HW158163   0.060   3.157  11.932
85422SOL    HW258164  14.871   3.196  11.804
85423SOL     OW58165   2.627   6.075   8.147
85423SOL    HW158166   2.601   6.162   8.177
85423SOL    HW258167   2.675   6.090   8.066
85424SOL     OW58168   1.826   9.441  13.976
85424SOL    HW158169   1.852   9.531  13.956
85424SOL    HW258170   1.895   9.409  14.034
85425SOL     OW58171   9.868  13.555  12.039
85425SOL    HW158172   9.813  13.632  12.053
85425SOL    HW258173   9.823  13.505  11.971
85426SOL     OW58174   9.124  11.557   4.101
85426SOL    HW158175   9.201  11.588   4.150
85426SOL    HW258176   9.069  11.516   4.167
85427SOL     OW58177   4.187  10.796   3.149
85427SOL    HW158178   4.263  10.815   3.093
85427SOL    HW258179   4.225  10.766   3.232
85428SOL     OW58180   5.409   3.626  10.649
85428SOL    HW158181   5.380   3.717  10.644
85428SOL    HW258182   5.504   3.631  10.661
85429SOL     OW58183  14.646   0.955   1.037
85429SOL    HW158184  14.679   0.876   0.995
85429SOL    HW258185  14.722   1.013   1.043
85430SOL     OW58186  14.310   4.338  13.616
85430SOL    HW158187  14.395   4.376  13.638
85430SOL    HW258188  14.293   4.369  13.527
85431SOL     OW58189   5.916   0.725   8.969
85431SOL    HW158190   5.929   0.771   8.887
85431SOL    HW258191   5.999   0.679   8.984
85432SOL     OW58192   4.640   8.853   0.351
85432SOL    HW158193   4.565   8.904   0.321
85432SOL    HW258194   4.662   8.891   0.436
85433SOL     OW58195   5.258  11.107   1.448
85433SOL    HW158196   5.169  11.106   1.414
85433SOL    HW258197   5.297  11.026   1.415
85434SOL     OW58198   6.491   8.928   3.327
85434SOL    HW158199   6.484   9.007   3.275
85434SOL    HW258200   6.427   8.868   3.288
85435SOL     OW58201   2.340  12.311   3.961
85435SOL    HW158202   2.262  12.361   3.986
85435SOL    HW258203   2.321  12.279   3.872
85436SOL     OW58204   1.724  13.495   2.825
85436SOL    HW158205   1.776  13.434   2.772
85436SOL    HW258206   1.646  13.513   2.772
85437SOL     OW58207  14.030  14.611   9.397
85437SOL    HW158208  14.096  14.542   9.386
85437SOL    HW258209  13.982  14.586   9.476
85438SOL     OW58210  11.001   1.344   0.743
85438SOL    HW158211  10.909   1.368   0.756
85438SOL    HW258212  11.045   1.376   0.822
85439SOL     OW58213   5.533   7.608   5.044
85439SOL    HW158214   5.545   7.546   5.116
85439SOL    HW258215   5.475   7.675   5.079
85440SOL     OW58216   9.565   2.707   3.964
85440SOL    HW158217   9.644   2.697   3.911
85440SOL    HW258218   9.496   2.667   3.911
85441SOL     OW58219   5.782   2.625   1.147
85441SOL    HW158220   5.692   2.606   1.174
85441SOL    HW258221   5.798   2.567   1.073
85442SOL     OW58222   9.642  10.388   3.138
85442SOL    HW158223   9.578  10.327   3.174
85442SOL    HW258224   9.721  10.336   3.125
85443SOL     OW58225  10.343   4.510   2.476
85443SOL    HW158226  10.322   4.599   2.503
85443SOL    HW258227  10.427   4.491   2.518
85444SOL     OW58228   7.468   9.483   8.193
85444SOL    HW158229   7.410   9.491   8.269
85444SOL    HW258230   7.525   9.409   8.215
85445SOL     OW58231   8.593  12.158  13.358
85445SOL    HW158232   8.525  12.212  13.398
85445SOL    HW258233   8.555  12.132  13.274
85446SOL     OW58234   1.206   4.442   4.784
85446SOL    HW158235   1.145   4.496   4.833
85446SOL    HW258236   1.161   4.423   4.702
85447SOL     OW58237   4.361  13.945   2.952
85447SOL    HW158238   4.357  14.026   2.901
85447SOL    HW258239   4.434  13.896   2.913
85448SOL     OW58240   7.137   8.716   4.476
85448SOL    HW158241   7.100   8.648   4.532
85448SOL    HW258242   7.232   8.706   4.487
85449SOL     OW58243  10.575  10.969   0.233
85449SOL    HW158244  10.513  11.025   0.186
85449SOL    HW258245  10.584  10.891   0.178
85450SOL     OW58246   7.968   2.214   5.950
85450SOL    HW158247   8.024   2.291   5.959
85450SOL    HW258248   8.021   2.151   5.900
85451SOL     OW58249   1.640   4.690   9.491
85451SOL    HW158250   1.567   4.683   9.430
85451SOL    HW258251   1.610   4.646   9.570
85452SOL     OW58252  13.186  10.699   2.877
85452SOL    HW158253  13.204  10.763   2.945
85452SOL    HW258254  13.107  10.733   2.833
85453SOL     OW58255  10.017   3.115   6.180
85453SOL    HW158256  10.017   3.210   6.187
85453SOL    HW258257  10.037   3.084   6.269
85454SOL     OW58258  10.639   1.191   4.755
85454SOL    HW158259  10.702   1.180   4.684
85454SOL    HW258260  10.655   1.280   4.787
85455SOL     OW58261   4.904   3.990   5.115
85455SOL    HW158262   4.900   3.897   5.092
85455SOL    HW258263   4.826   4.028   5.074
85456SOL     OW58264   5.379   4.017   1.827
85456SOL    HW158265   5.362   4.074   1.902
85456SOL    HW258266   5.292   4.003   1.788
85457SOL     OW58267  12.775  12.937  11.274
85457SOL    HW158268  12.693  12.962  11.317
85457SOL    HW258269  12.779  12.842  11.284
85458SOL     OW58270   9.991  11.910   9.279
85458SOL    HW158271  10.059  11.876   9.337
85458SOL    HW258272   9.930  11.837   9.267
85459SOL     OW58273   4.267   0.582   4.571
85459SOL    HW158274   4.223   0.650   4.521
85459SOL    HW258275   4.308   0.526   4.505
85460SOL     OW58276   5.575   9.766  10.261
85460SOL    HW158277   5.557   9.768  10.167
85460SOL    HW258278   5.572   9.858  10.288
85461SOL     OW58279  12.270   2.151   9.237
85461SOL    HW158280  12.227   2.204   9.304
85461SOL    HW258281  12.302   2.215   9.173
85462SOL     OW58282  12.166   8.131   8.409
85462SOL    HW158283  12.113   8.053   8.391
85462SOL    HW258284  12.252   8.097   8.432
85463SOL     OW58285   1.677   0.122  11.886
85463SOL    HW158286   1.716   0.189  11.831
85463SOL    HW258287   1.667   0.046  11.828
85464SOL     OW58288  10.212  13.605   4.411
85464SOL    HW158289  10.272  13.668   4.370
85464SOL    HW258290  10.268  13.552   4.467
85465SOL     OW58291   8.961  14.760   1.688
85465SOL    HW158292   8.880  14.710   1.684
85465SOL    HW258293   9.003  14.730   1.769
85466SOL     OW58294  12.348  13.621   6.209
85466SOL    HW158295  12.342  13.564   6.285
85466SOL    HW258296  12.257  13.635   6.182
85467SOL     OW58297   4.200   1.225   9.606
85467SOL    HW158298   4.207   1.141   9.561
85467SOL    HW258299   4.206   1.204   9.699
85468SOL     OW58300  13.183   7.826   7.750
85468SOL    HW158301  13.170   7.896   7.814
85468SOL    HW258302  13.219   7.753   7.800
85469SOL     OW58303   1.474   5.044   3.101
85469SOL    HW158304   1.436   4.961   3.131
85469SOL    HW258305   1.528   5.020   3.026
85470SOL     OW58306   8.522  11.650   8.496
85470SOL    HW158307   8.528  11.614   8.584
85470SOL    HW258308   8.432  11.632   8.469
85471SOL     OW58309   3.101   5.365  10.533
85471SOL    HW158310   3.140   5.444  10.494
85471SOL    HW258311   3.034   5.338  10.470
85472SOL     OW58312   3.056   1.506   1.809
85472SOL    HW158313   3.028   1.573   1.746
85472SOL    HW258314   2.992   1.436   1.800
85473SOL     OW58315   7.517   9.425  12.660
85473SOL    HW158316   7.548   9.335  12.673
85473SOL    HW258317   7.556   9.453  12.578
85474SOL     OW58318   0.254  10.987  14.385
85474SOL    HW158319   0.267  10.994  14.480
85474SOL    HW258320   0.340  10.967  14.350
85475SOL     OW58321  11.704   7.671   8.367
85475SOL    HW158322  11.717   7.756   8.410
85475SOL    HW258323  11.782   7.660   8.312
85476SOL     OW58324   7.048  13.271   9.328
85476SOL    HW158325   6.997  13.317   9.260
85476SOL    HW258326   7.091  13.341   9.376
85477SOL     OW58327   3.575   2.209   9.174
85477SOL    HW158328   3.646   2.193   9.237
85477SOL    HW258329   3.580   2.135   9.113
85478SOL     OW58330   3.128   6.426   3.042
85478SOL    HW158331   3.118   6.510   2.997
85478SOL    HW258332   3.059   6.371   3.005
85479SOL     OW58333   9.261  14.032  12.011
85479SOL    HW158334   9.211  14.016  12.091
85479SOL    HW258335   9.350  14.049  12.041
85480SOL     OW58336  10.658  11.735  10.627
85480SOL    HW158337  10.652  11.813  10.571
85480SOL    HW258338  10.576  11.688  10.611
85481SOL     OW58339   7.916  14.258  13.007
85481SOL    HW158340   7.875  14.254  13.093
85481SOL    HW258341   7.934  14.166  12.985
85482SOL     OW58342  14.068   0.011  11.390
85482SOL    HW158343  14.123   0.054  11.456
85482SOL    HW258344  14.066   0.073  11.317
85483SOL     OW58345   6.683  13.782   7.446
85483SOL    HW158346   6.706  13.693   7.474
85483SOL    HW258347   6.588  13.778   7.429
85484SOL     OW58348   9.294   7.307   1.968
85484SOL    HW158349   9.317   7.390   1.926
85484SOL    HW258350   9.239   7.331   2.042
85485SOL     OW58351   8.165  10.651  11.194
85485SOL    HW158352   8.072  10.642  11.172
85485SOL    HW258353   8.200  10.562  11.187
85486SOL     OW58354  13.643   2.661   5.708
85486SOL    HW158355  13.716   2.641   5.767
85486SOL    HW258356  13.672   2.739   5.661
85487SOL     OW58357   4.251   9.822  13.792
85487SOL    HW158358   4.325   9.765  13.811
85487SOL    HW258359   4.183   9.763  13.760
85488SOL     OW58360   5.031  14.467   4.945
85488SOL    HW158361   4.972  14.392   4.940
85488SOL    HW258362   4.988  14.528   5.004
85489SOL     OW58363   0.599   3.044  11.735
85489SOL    HW158364   0.621   2.990  11.811
85489SOL    HW258365   0.503   3.041  11.731
85490SOL     OW58366  11.667   1.990   9.774
85490SOL    HW158367  11.665   1.908   9.724
85490SOL    HW258368  11.604   1.977   9.844
85491SOL     OW58369   8.054  13.270   4.551
85491SOL    HW158370   7.967  13.302   4.578
85491SOL    HW258371   8.115  13.328   4.595
85492SOL     OW58372   5.076  13.628  10.214
85492SOL    HW158373   4.993  13.588  10.238
85492SOL    HW258374   5.071  13.717  10.250
85493SOL     OW58375  13.328   4.027   7.521
85493SOL    HW158376  13.269   3.993   7.589
85493SOL    HW258377  13.277   4.094   7.476
85494SOL     OW58378   1.776  10.215  14.586
85494SOL    HW158379   1.796  10.234  14.494
85494SOL    HW258380   1.858  10.182  14.622
85495SOL     OW58381   1.350   2.581  13.815
85495SOL    HW158382   1.326   2.625  13.734
85495SOL    HW258383   1.442   2.605  13.829
85496SOL     OW58384   0.165   2.953   6.724
85496SOL    HW158385   0.191   3.033   6.678
85496SOL    HW258386   0.221   2.951   6.802
85497SOL     OW58387   0.147   7.108   1.233
85497SOL    HW158388   0.098   7.027   1.243
85497SOL    HW258389   0.239   7.081   1.226
85498SOL     OW58390   3.496   1.809   7.985
85498SOL    HW158391   3.507   1.720   8.019
85498SOL    HW258392   3.426   1.846   8.039
85499SOL     OW58393   0.463  11.596  13.846
85499SOL    HW158394   0.443  11.644  13.926
85499SOL    HW258395   0.497  11.512  13.875
85500SOL     OW58396   2.036  13.324   5.305
85500SOL    HW158397   2.025  13.405   5.354
85500SOL    HW258398   2.087  13.268   5.363
85501SOL     OW58399   8.797   1.609  12.246
85501SOL    HW158400   8.865   1.555  12.287
85501SOL    HW258401   8.741   1.636  12.319
85502SOL     OW58402   6.721   7.576   2.588
85502SOL    HW158403   6.753   7.627   2.514
85502SOL    HW258404   6.628   7.560   2.568
85503SOL     OW58405   3.812   4.168   2.940
85503SOL    HW158406   3.758   4.133   3.011
85503SOL    HW258407   3.773   4.132   2.860
85504SOL     OW58408  10.385   3.468   3.720
85504SOL    HW158409  10.373   3.401   3.787
85504SOL    HW258410  10.300   3.473   3.675
85505SOL     OW58411  11.956   6.099  10.518
85505SOL    HW158412  12.047   6.120  10.494
85505SOL    HW258413  11.931   6.028  10.460
85506SOL     OW58414   8.379   6.173   1.172
85506SOL    HW158415   8.395   6.267   1.161
85506SOL    HW258416   8.457   6.132   1.133
85507SOL     OW58417   1.864   9.289   0.540
85507SOL    HW158418   1.933   9.229   0.514
85507SOL    HW258419   1.787   9.260   0.492
85508SOL     OW58420  11.145   4.993  11.920
85508SOL    HW158421  11.105   5.079  11.929
85508SOL    HW258422  11.120   4.963  11.833
85509SOL     OW58423   7.036   0.484   4.234
85509SOL    HW158424   7.045   0.505   4.327
85509SOL    HW258425   7.052   0.389   4.229
85510SOL     OW58426   0.269  10.922   0.041
85510SOL    HW158427   0.251  11.007   0.081
85510SOL    HW258428   0.243  10.858   0.107
85511SOL     OW58429   7.645   2.011  12.947
85511SOL    HW158430   7.656   2.066  13.025
85511SOL    HW258431   7.617   1.926  12.982
85512SOL     OW58432   1.603  12.054   5.270
85512SOL    HW158433   1.635  12.122   5.210
85512SOL    HW258434   1.622  11.972   5.225
85513SOL     OW58435   4.305  12.913   2.839
85513SOL    HW158436   4.258  12.840   2.879
85513SOL    HW258437   4.354  12.952   2.912
85514SOL     OW58438  12.054   3.272  10.720
85514SOL    HW158439  11.981   3.283  10.780
85514SOL    HW258440  12.016   3.230  10.643
85515SOL     OW58441   3.208   1.571  14.147
85515SOL    HW158442   3.286   1.626  14.149
85515SOL    HW258443   3.169   1.588  14.062
85516SOL     OW58444  11.911   9.691   1.014
85516SOL    HW158445  11.893   9.624   1.080
85516SOL    HW258446  11.839   9.754   1.023
85517SOL     OW58447   6.792  14.106   5.422
85517SOL    HW158448   6.712  14.057   5.439
85517SOL    HW258449   6.839  14.104   5.505
85518SOL     OW58450  11.903   0.200  11.368
85518SOL    HW158451  11.885   0.194  11.274
85518SOL    HW258452  11.980   0.257  11.374
85519SOL     OW58453  14.432   8.405   8.083
85519SOL    HW158454  14.426   8.370   8.172
85519SOL    HW258455  14.436   8.328   8.027
85520SOL     OW58456   1.567  13.515   2.206
85520SOL    HW158457   1.608  13.516   2.119
85520SOL    HW258458   1.476  13.490   2.188
85521SOL     OW58459  11.492   8.423   6.540
85521SOL    HW158460  11.526   8.508   6.567
85521SOL    HW258461  11.397   8.431   6.548
85522SOL     OW58462  10.487  12.124   9.658
85522SOL    HW158463  10.519  12.119   9.749
85522SOL    HW258464  10.522  12.045   9.616
85523SOL     OW58465   7.507   0.083  14.782
85523SOL    HW158466   7.512   0.168  14.739
85523SOL    HW258467   7.598   0.054  14.790
85524SOL     OW58468   8.608  13.120  13.748
85524SOL    HW158469   8.659  13.198  13.770
85524SOL    HW258470   8.674  13.054  13.727
85525SOL     OW58471  14.313   9.291   9.906
85525SOL    HW158472  14.387   9.243   9.945
85525SOL    HW258473  14.271   9.335   9.980
85526SOL     OW58474  10.983  10.732   8.649
85526SOL    HW158475  11.074  10.715   8.627
85526SOL    HW258476  10.987  10.791   8.724
85527SOL     OW58477  13.939  11.748   2.594
85527SOL    HW158478  13.996  11.817   2.629
85527SOL    HW258479  13.899  11.788   2.516
85528SOL     OW58480   7.698  10.712  13.003
85528SOL    HW158481   7.716  10.620  13.020
85528SOL    HW258482   7.727  10.758  13.082
85529SOL     OW58483   7.172   9.383   4.694
85529SOL    HW158484   7.267   9.392   4.701
85529SOL    HW258485   7.155   9.290   4.709
85530SOL     OW58486   0.694   6.333   5.182
85530SOL    HW158487   0.678   6.405   5.120
85530SOL    HW258488   0.783   6.348   5.213
85531SOL     OW58489  13.441  13.702  11.410
85531SOL    HW158490  13.440  13.608  11.431
85531SOL    HW258491  13.372  13.713  11.344
85532SOL     OW58492  13.277   1.007  12.104
85532SOL    HW158493  13.237   0.928  12.068
85532SOL    HW258494  13.338   0.975  12.171
85533SOL     OW58495   4.348   4.520   8.247
85533SOL    HW158496   4.314   4.565   8.170
85533SOL    HW258497   4.435   4.490   8.222
85534SOL     OW58498   0.363  11.692   2.509
85534SOL    HW158499   0.301  11.695   2.582
85534SOL    HW258500   0.338  11.614   2.459
85535SOL     OW58501   9.206   6.337   0.107
85535SOL    HW158502   9.146   6.360   0.178
85535SOL    HW258503   9.215   6.242   0.112
85536SOL     OW58504   3.561   8.792   4.714
85536SOL    HW158505   3.533   8.713   4.669
85536SOL    HW258506   3.508   8.794   4.794
85537SOL     OW58507   3.590   1.166  11.126
85537SOL    HW158508   3.615   1.248  11.083
85537SOL    HW258509   3.607   1.099  11.060
85538SOL     OW58510   8.507   3.434   5.870
85538SOL    HW158511   8.545   3.368   5.813
85538SOL    HW258512   8.582   3.471   5.917
85539SOL     OW58513   2.603   7.615   5.990
85539SOL    HW158514   2.600   7.645   5.899
85539SOL    HW258515   2.582   7.692   6.042
85540SOL     OW58516   6.623  14.229   6.909
85540SOL    HW158517   6.618  14.269   6.995
85540SOL    HW258518   6.553  14.270   6.859
85541SOL     OW58519   8.272   0.027  14.810
85541SOL    HW158520   8.338  14.866  14.864
85541SOL    HW258521   8.282   0.120  14.830
85542SOL     OW58522  14.345   0.013  12.530
85542SOL    HW158523  14.370  14.834  12.600
85542SOL    HW258524  14.272   0.062  12.566
85543SOL     OW58525   7.904  10.043   5.600
85543SOL    HW158526   7.994  10.061   5.627
85543SOL    HW258527   7.860  10.128   5.608
85544SOL     OW58528   6.235  13.521   6.015
85544SOL    HW158529   6.251  13.575   6.093
85544SOL    HW258530   6.146  13.544   5.988
85545SOL     OW58531  12.209   0.349   5.057
85545SOL    HW158532  12.247   0.396   5.131
85545SOL    HW258533  12.243   0.394   4.980
85546SOL     OW58534   8.645   6.749   6.922
85546SOL    HW158535   8.678   6.784   6.839
85546SOL    HW258536   8.697   6.670   6.937
85547SOL     OW58537   1.933   7.687  13.328
85547SOL    HW158538   2.020   7.725  13.318
85547SOL    HW258539   1.876   7.746  13.277
85548SOL     OW58540   5.514   3.052   9.238
85548SOL    HW158541   5.538   3.079   9.150
85548SOL    HW258542   5.447   3.113   9.265
85549SOL     OW58543   5.617   9.342  13.215
85549SOL    HW158544   5.588   9.264  13.263
85549SOL    HW258545   5.651   9.308  13.132
85550SOL     OW58546  13.519   9.961   9.795
85550SOL    HW158547  13.608   9.928   9.802
85550SOL    HW258548  13.500   9.998   9.882
85551SOL     OW58549   9.196   0.989  10.969
85551SOL    HW158550   9.233   1.076  10.981
85551SOL    HW258551   9.272   0.933  10.952
85552SOL     OW58552   3.134   6.742   6.607
85552SOL    HW158553   3.044   6.772   6.594
85552SOL    HW258554   3.186   6.822   6.597
85553SOL     OW58555   2.413  14.781   2.521
85553SOL    HW158556   2.383  14.844   2.586
85553SOL    HW258557   2.338  14.770   2.462
85554SOL     OW58558   3.935   7.315   6.315
85554SOL    HW158559   3.928   7.332   6.409
85554SOL    HW258560   3.886   7.234   6.302
85555SOL     OW58561   0.939   1.545   9.234
85555SOL    HW158562   0.870   1.606   9.260
85555SOL    HW258563   0.928   1.470   9.292
85556SOL     OW58564   9.206  10.098  11.961
85556SOL    HW158565   9.232  10.126  12.049
85556SOL    HW258566   9.112  10.114  11.958
85557SOL     OW58567   1.244   4.805   6.498
85557SOL    HW158568   1.164   4.783   6.545
85557SOL    HW258569   1.215   4.822   6.408
85558SOL     OW58570  11.912   6.175   2.247
85558SOL    HW158571  11.889   6.086   2.273
85558SOL    HW258572  11.978   6.164   2.179
85559SOL     OW58573  13.640   3.508   2.809
85559SOL    HW158574  13.630   3.530   2.902
85559SOL    HW258575  13.734   3.514   2.793
85560SOL     OW58576   4.681   4.537  11.696
85560SOL    HW158577   4.773   4.551  11.675
85560SOL    HW258578   4.682   4.492  11.781
85561SOL     OW58579  10.765  10.634   4.530
85561SOL    HW158580  10.786  10.623   4.623
85561SOL    HW258581  10.678  10.595   4.520
85562SOL     OW58582   0.991   2.354   6.624
85562SOL    HW158583   0.939   2.273   6.625
85562SOL    HW258584   1.065   2.333   6.568
85563SOL     OW58585  10.740  12.854  11.959
85563SOL    HW158586  10.739  12.852  11.863
85563SOL    HW258587  10.647  12.846  11.984
85564SOL     OW58588   7.501  10.328   3.864
85564SOL    HW158589   7.504  10.237   3.837
85564SOL    HW258590   7.482  10.325   3.958
85565SOL     OW58591   3.508   3.361   9.331
85565SOL    HW158592   3.458   3.439   9.354
85565SOL    HW258593   3.445   3.303   9.290
85566SOL     OW58594   5.935   9.757  14.476
85566SOL    HW158595   5.972   9.678  14.436
85566SOL    HW258596   5.947   9.826  14.411
85567SOL     OW58597   7.350   3.252   3.639
85567SOL    HW158598   7.293   3.298   3.701
85567SOL    HW258599   7.359   3.313   3.565
85568SOL     OW58600   1.846  14.861   5.149
85568SOL    HW158601   1.837  14.817   5.065
85568SOL    HW258602   1.775  14.826   5.203
85569SOL     OW58603   8.191  13.976   7.235
85569SOL    HW158604   8.207  13.896   7.284
85569SOL    HW258605   8.219  13.955   7.145
85570SOL     OW58606   8.010   9.624  13.095
85570SOL    HW158607   8.049   9.690  13.153
85570SOL    HW258608   7.956   9.570  13.153
85571SOL     OW58609   5.030   3.585   0.592
85571SOL    HW158610   5.082   3.508   0.612
85571SOL    HW258611   4.945   3.568   0.632
85572SOL     OW58612   5.712  13.118   8.570
85572SOL    HW158613   5.683  13.210   8.572
85572SOL    HW258614   5.759  13.106   8.653
85573SOL     OW58615  11.918   0.801  12.450
85573SOL    HW158616  11.953   0.780  12.363
85573SOL    HW258617  11.899   0.894  12.446
85574SOL     OW58618  10.730   8.426  10.264
85574SOL    HW158619  10.669   8.499  10.264
85574SOL    HW258620  10.741   8.403  10.172
85575SOL     OW58621  10.022  10.576   8.090
85575SOL    HW158622  10.058  10.622   8.014
85575SOL    HW258623  10.091  10.513   8.113
85576SOL     OW58624   0.221   3.391  11.720
85576SOL    HW158625   0.183   3.332  11.784
85576SOL    HW258626   0.146   3.425  11.671
85577SOL     OW58627  11.005  11.058   6.190
85577SOL    HW158628  10.989  11.018   6.275
85577SOL    HW258629  10.928  11.113   6.174
85578SOL     OW58630   1.984  12.368  14.206
85578SOL    HW158631   2.024  12.312  14.273
85578SOL    HW258632   1.933  12.307  14.152
85579SOL     OW58633   4.531   2.546   6.006
85579SOL    HW158634   4.505   2.498   5.927
85579SOL    HW258635   4.506   2.637   5.989
85580SOL     OW58636   8.321   6.349  13.527
85580SOL    HW158637   8.278   6.329  13.444
85580SOL    HW258638   8.412   6.319  13.515
85581SOL     OW58639  13.011   9.276   9.395
85581SOL    HW158640  13.067   9.295   9.470
85581SOL    HW258641  12.925   9.311   9.419
85582SOL     OW58642  12.195   2.557   7.649
85582SOL    HW158643  12.161   2.482   7.697
85582SOL    HW258644  12.285   2.535   7.629
85583SOL     OW58645   5.914  10.967  10.517
85583SOL    HW158646   6.002  10.987  10.484
85583SOL    HW258647   5.929  10.918  10.598
85584SOL     OW58648   4.181   4.591   9.877
85584SOL    HW158649   4.260   4.546   9.908
85584SOL    HW258650   4.173   4.564   9.785
85585SOL     OW58651   3.476   6.009   0.474
85585SOL    HW158652   3.512   6.022   0.386
85585SOL    HW258653   3.439   6.093   0.498
85586SOL     OW58654   3.301   7.871   5.897
85586SOL    HW158655   3.223   7.817   5.912
85586SOL    HW258656   3.367   7.811   5.864
85587SOL     OW58657   6.081   0.738   3.535
85587SOL    HW158658   6.085   0.702   3.623
85587SOL    HW258659   6.170   0.732   3.502
85588SOL     OW58660  14.711   5.505   8.316
85588SOL    HW158661  14.740   5.595   8.300
85588SOL    HW258662  14.791   5.457   8.337
85589SOL     OW58663  13.429   0.598   3.444
85589SOL    HW158664  13.450   0.537   3.373
85589SOL    HW258665  13.424   0.542   3.522
85590SOL     OW58666   4.631   1.527   5.974
85590SOL    HW158667   4.562   1.591   5.959
85590SOL    HW258668   4.712   1.573   5.952
85591SOL     OW58669   2.027   2.918   5.079
85591SOL    HW158670   1.946   2.907   5.030
85591SOL    HW258671   2.032   3.011   5.099
85592SOL     OW58672   5.615   7.123  12.860
85592SOL    HW158673   5.522   7.125  12.880
85592SOL    HW258674   5.658   7.122  12.946
85593SOL     OW58675   1.858   0.881  14.004
85593SOL    HW158676   1.875   0.940  13.930
85593SOL    HW258677   1.808   0.934  14.066
85594SOL     OW58678   3.332   5.805   1.002
85594SOL    HW158679   3.376   5.847   1.075
85594SOL    HW258680   3.261   5.866   0.979
85595SOL     OW58681   7.889   0.330   1.747
85595SOL    HW158682   7.828   0.256   1.739
85595SOL    HW258683   7.834   0.403   1.776
85596SOL     OW58684  11.555   9.312   7.490
85596SOL    HW158685  11.488   9.259   7.447
85596SOL    HW258686  11.518   9.400   7.494
85597SOL     OW58687   3.794   5.370  12.588
85597SOL    HW158688   3.787   5.455  12.543
85597SOL    HW258689   3.781   5.391  12.681
85598SOL     OW58690   5.863   0.800   7.805
85598SOL    HW158691   5.954   0.800   7.835
85598SOL    HW258692   5.845   0.891   7.783
85599SOL     OW58693   4.060   3.551   9.116
85599SOL    HW158694   4.117   3.535   9.191
85599SOL    HW258695   4.082   3.482   9.053
85600SOL     OW58696   9.656  14.801  13.436
85600SOL    HW158697   9.575  14.804  13.487
85600SOL    HW258698   9.685  14.710  13.442
85601SOL     OW58699   8.962  13.929   4.000
85601SOL    HW158700   8.910  14.006   4.023
85601SOL    HW258701   8.952  13.870   4.074
85602SOL     OW58702   9.971  12.374   4.296
85602SOL    HW158703   9.951  12.282   4.278
85602SOL    HW258704   9.902  12.402   4.355
85603SOL     OW58705   8.553  10.247   7.187
85603SOL    HW158706   8.535  10.308   7.259
85603SOL    HW258707   8.647  10.231   7.192
85604SOL     OW58708   4.223   4.745  10.547
85604SOL    HW158709   4.204   4.652  10.557
85604SOL    HW258710   4.270   4.751  10.464
85605SOL     OW58711  12.639   6.875   9.272
85605SOL    HW158712  12.644   6.843   9.362
85605SOL    HW258713  12.721   6.845   9.232
85606SOL     OW58714  11.872   5.766  11.083
85606SOL    HW158715  11.956   5.755  11.037
85606SOL    HW258716  11.853   5.859  11.077
85607SOL     OW58717   2.158   4.674   4.413
85607SOL    HW158718   2.097   4.728   4.463
85607SOL    HW258719   2.123   4.585   4.421
85608SOL     OW58720   6.974   9.786   1.775
85608SOL    HW158721   7.039   9.753   1.838
85608SOL    HW258722   6.916   9.711   1.760
85609SOL     OW58723  12.783   6.172   2.385
85609SOL    HW158724  12.691   6.193   2.372
85609SOL    HW258725  12.785   6.077   2.395
85610SOL     OW58726   9.417  11.013   7.342
85610SOL    HW158727   9.444  10.940   7.397
85610SOL    HW258728   9.370  11.072   7.402
85611SOL     OW58729  11.034   9.992   7.990
85611SOL    HW158730  10.983   9.941   8.053
85611SOL    HW258731  11.065   9.927   7.926
85612SOL     OW58732   1.654   1.818   2.869
85612SOL    HW158733   1.612   1.732   2.865
85612SOL    HW258734   1.702   1.826   2.786
85613SOL     OW58735   8.216   6.951   1.439
85613SOL    HW158736   8.266   7.002   1.502
85613SOL    HW258737   8.238   6.988   1.354
85614SOL     OW58738  13.411  13.119   8.642
85614SOL    HW158739  13.369  13.061   8.578
85614SOL    HW258740  13.362  13.201   8.635
85615SOL     OW58741   1.499   1.919   2.308
85615SOL    HW158742   1.561   1.924   2.235
85615SOL    HW258743   1.541   1.968   2.378
85616SOL     OW58744   7.508   5.901   7.855
85616SOL    HW158745   7.472   5.969   7.798
85616SOL    HW258746   7.592   5.878   7.814
85617SOL     OW58747   2.139   8.880   0.907
85617SOL    HW158748   2.049   8.910   0.919
85617SOL    HW258749   2.152   8.814   0.975
85618SOL     OW58750  11.401  14.365   9.689
85618SOL    HW158751  11.390  14.287   9.635
85618SOL    HW258752  11.441  14.333   9.770
85619SOL     OW58753  14.540   8.618   3.910
85619SOL    HW158754  14.575   8.707   3.901
85619SOL    HW258755  14.454   8.623   3.869
85620SOL     OW58756   7.905  12.566  10.569
85620SOL    HW158757   7.819  12.583  10.532
85620SOL    HW258758   7.946  12.505  10.507
85621SOL     OW58759  13.309  13.727  12.742
85621SOL    HW158760  13.260  13.644  12.746
85621SOL    HW258761  13.275  13.778  12.816
85622SOL     OW58762   9.096   4.350   6.706
85622SOL    HW158763   9.126   4.259   6.701
85622SOL    HW258764   9.082   4.375   6.615
85623SOL     OW58765   3.507   7.472   3.499
85623SOL    HW158766   3.594   7.459   3.461
85623SOL    HW258767   3.464   7.533   3.440
85624SOL     OW58768   7.677  14.315   9.696
85624SOL    HW158769   7.758  14.342   9.654
85624SOL    HW258770   7.661  14.382   9.763
85625SOL     OW58771   8.504   1.764   1.302
85625SOL    HW158772   8.412   1.783   1.324
85625SOL    HW258773   8.555   1.819   1.361
85626SOL     OW58774   8.843   0.972  10.277
85626SOL    HW158775   8.750   0.970  10.253
85626SOL    HW258776   8.864   0.880  10.297
85627SOL     OW58777   3.545   6.702  14.745
85627SOL    HW158778   3.471   6.757  14.773
85627SOL    HW258779   3.596   6.687  14.824
85628SOL     OW58780   2.354   9.103  10.183
85628SOL    HW158781   2.307   9.175  10.142
85628SOL    HW258782   2.434   9.144  10.217
85629SOL     OW58783   8.575  10.544   6.846
85629SOL    HW158784   8.591  10.499   6.763
85629SOL    HW258785   8.497  10.501   6.882
85630SOL     OW58786   1.747   9.022  12.852
85630SOL    HW158787   1.738   9.049  12.943
85630SOL    HW258788   1.658   9.023  12.817
85631SOL     OW58789   4.333   6.046   5.677
85631SOL    HW158790   4.251   6.017   5.717
85631SOL    HW258791   4.397   5.980   5.702
85632SOL     OW58792   5.965   7.195  13.009
85632SOL    HW158793   5.985   7.240  13.092
85632SOL    HW258794   5.930   7.110  13.036
85633SOL     OW58795  10.544   0.848   5.569
85633SOL    HW158796  10.489   0.886   5.500
85633SOL    HW258797  10.577   0.923   5.618
85634SOL     OW58798  14.006   7.775  12.500
85634SOL    HW158799  13.991   7.738  12.413
85634SOL    HW258800  13.922   7.814  12.524
85635SOL     OW58801   1.898   9.943   5.893
85635SOL    HW158802   1.942   9.868   5.932
85635SOL    HW258803   1.884   9.918   5.802
85636SOL     OW58804  13.264   6.199   2.926
85636SOL    HW158805  13.304   6.264   2.867
85636SOL    HW258806  13.320   6.201   3.004
85637SOL     OW58807   6.956  10.248  11.421
85637SOL    HW158808   6.935  10.155  11.430
85637SOL    HW258809   7.036  10.250  11.369
85638SOL     OW58810   6.039   9.805  14.125
85638SOL    HW158811   5.960   9.807  14.179
85638SOL    HW258812   6.019   9.743  14.055
85639SOL     OW58813   3.987   3.471   9.491
85639SOL    HW158814   3.923   3.522   9.542
85639SOL    HW258815   3.942   3.451   9.409
85640SOL     OW58816  11.899  10.366   3.519
85640SOL    HW158817  11.906  10.298   3.452
85640SOL    HW258818  11.988  10.378   3.551
85641SOL     OW58819  13.955  13.659  10.725
85641SOL    HW158820  13.966  13.734  10.783
85641SOL    HW258821  13.942  13.585  10.784
85642SOL     OW58822  13.442   9.755  12.278
85642SOL    HW158823  13.348   9.755  12.297
85642SOL    HW258824  13.483   9.790  12.357
85643SOL     OW58825   2.323   1.821   8.580
85643SOL    HW158826   2.243   1.873   8.591
85643SOL    HW258827   2.391   1.871   8.625
85644SOL     OW58828   5.986   6.330  13.903
85644SOL    HW158829   6.054   6.374  13.954
85644SOL    HW258830   5.904   6.353  13.948
85645SOL     OW58831   4.961   1.974   1.800
85645SOL    HW158832   4.997   1.914   1.865
85645SOL    HW258833   4.929   1.917   1.730
85646SOL     OW58834   8.986  12.935   4.309
85646SOL    HW158835   9.066  12.886   4.289
85646SOL    HW258836   8.915  12.876   4.284
85647SOL     OW58837  10.458   9.725   4.566
85647SOL    HW158838  10.395   9.694   4.500
85647SOL    HW258839  10.513   9.788   4.520
85648SOL     OW58840   6.391  11.323   1.338
85648SOL    HW158841   6.466  11.266   1.350
85648SOL    HW258842   6.336  11.277   1.274
85649SOL     OW58843   3.591  14.823   1.157
85649SOL    HW158844   3.581   0.035   1.146
85649SOL    HW258845   3.509  14.795   1.198
85650SOL     OW58846   1.889  14.267   1.645
85650SOL    HW158847   1.934  14.340   1.602
85650SOL    HW258848   1.849  14.218   1.574
85651SOL     OW58849   8.042   7.054  11.386
85651SOL    HW158850   8.056   7.147  11.402
85651SOL    HW258851   7.989   7.024  11.460
85652SOL     OW58852  10.091   6.782   8.311
85652SOL    HW158853  10.186   6.780   8.300
85652SOL    HW258854  10.069   6.875   8.317
85653SOL     OW58855   7.433  12.429   8.800
85653SOL    HW158856   7.491  12.504   8.816
85653SOL    HW258857   7.408  12.437   8.708
85654SOL     OW58858   4.097   2.047   0.144
85654SOL    HW158859   4.109   1.952   0.142
85654SOL    HW258860   4.178   2.083   0.109
85655SOL     OW58861  10.119   0.355   4.136
85655SOL    HW158862  10.187   0.365   4.069
85655SOL    HW258863  10.055   0.424   4.116
85656SOL     OW58864  11.077   5.124   2.534
85656SOL    HW158865  11.065   5.031   2.554
85656SOL    HW258866  11.107   5.162   2.617
85657SOL     OW58867   8.634   3.277   8.001
85657SOL    HW158868   8.718   3.267   7.957
85657SOL    HW258869   8.574   3.303   7.931
85658SOL     OW58870   4.684   1.182  10.100
85658SOL    HW158871   4.627   1.107  10.086
85658SOL    HW258872   4.625   1.258  10.096
85659SOL     OW58873  10.044   0.841   4.113
85659SOL    HW158874  10.021   0.925   4.154
85659SOL    HW258875  10.007   0.775   4.172
85660SOL     OW58876  10.544  13.801   1.685
85660SOL    HW158877  10.522  13.743   1.613
85660SOL    HW258878  10.578  13.743   1.753
85661SOL     OW58879   5.079   5.959  11.455
85661SOL    HW158880   5.147   5.958  11.387
85661SOL    HW258881   5.033   6.042  11.442
85662SOL     OW58882   4.744   7.842   0.460
85662SOL    HW158883   4.773   7.925   0.498
85662SOL    HW258884   4.659   7.826   0.501
85663SOL     OW58885  10.211   4.586   0.336
85663SOL    HW158886  10.229   4.525   0.265
85663SOL    HW258887  10.273   4.561   0.405
85664SOL     OW58888   4.803   1.226   7.636
85664SOL    HW158889   4.793   1.255   7.727
85664SOL    HW258890   4.855   1.147   7.641
85665SOL     OW58891   2.938   5.278   4.531
85665SOL    HW158892   2.900   5.366   4.526
85665SOL    HW258893   2.867   5.220   4.504
85666SOL     OW58894   7.693   0.897   5.632
85666SOL    HW158895   7.615   0.941   5.601
85666SOL    HW258896   7.766   0.953   5.605
85667SOL     OW58897   8.744   9.055  10.244
85667SOL    HW158898   8.679   9.003  10.292
85667SOL    HW258899   8.811   8.992  10.220
85668SOL     OW58900   6.676  13.524  13.185
85668SOL    HW158901   6.648  13.499  13.273
85668SOL    HW258902   6.772  13.526  13.190
85669SOL     OW58903   1.605  12.945   3.061
85669SOL    HW158904   1.674  12.915   3.120
85669SOL    HW258905   1.583  13.033   3.092
85670SOL     OW58906   2.320   5.382   8.881
85670SOL    HW158907   2.354   5.446   8.818
85670SOL    HW258908   2.225   5.393   8.878
85671SOL     OW58909   1.736  14.822   7.096
85671SOL    HW158910   1.665  14.795   7.037
85671SOL    HW258911   1.696  14.822   7.183
85672SOL     OW58912   0.964   1.137   8.515
85672SOL    HW158913   0.981   1.231   8.508
85672SOL    HW258914   0.904   1.119   8.443
85673SOL     OW58915   5.327  11.811   6.429
85673SOL    HW158916   5.413  11.833   6.465
85673SOL    HW258917   5.334  11.832   6.336
85674SOL     OW58918  11.089  14.064  11.662
85674SOL    HW158919  11.041  14.122  11.602
85674SOL    HW258920  11.159  14.119  11.697
85675SOL     OW58921   2.949   8.518  11.263
85675SOL    HW158922   2.908   8.475  11.188
85675SOL    HW258923   2.918   8.469  11.339
85676SOL     OW58924   4.078  13.305   8.965
85676SOL    HW158925   4.029  13.236   9.010
85676SOL    HW258926   4.032  13.318   8.882
85677SOL     OW58927  11.093   0.302   5.406
85677SOL    HW158928  11.028   0.231   5.406
85677SOL    HW258929  11.050   0.374   5.451
85678SOL     OW58930   6.251   4.554  13.094
85678SOL    HW158931   6.260   4.644  13.064
85678SOL    HW258932   6.313   4.505  13.040
85679SOL     OW58933   9.558  13.001   8.364
85679SOL    HW158934   9.624  13.059   8.402
85679SOL    HW258935   9.497  12.982   8.435
85680SOL     OW58936  11.499   8.286   8.902
85680SOL    HW158937  11.573   8.336   8.868
85680SOL    HW258938  11.448   8.349   8.953
85681SOL     OW58939   3.971  14.095  12.184
85681SOL    HW158940   4.066  14.086  12.187
85681SOL    HW258941   3.941  14.019  12.133
85682SOL     OW58942   7.522   0.100  11.177
85682SOL    HW158943   7.516   0.064  11.266
85682SOL    HW258944   7.433   0.130  11.158
85683SOL     OW58945   7.349   0.539  13.241
85683SOL    HW158946   7.341   0.527  13.336
85683SOL    HW258947   7.344   0.451  13.205
85684SOL     OW58948  11.591   9.852  10.970
85684SOL    HW158949  11.527   9.916  11.001
85684SOL    HW258950  11.593   9.784  11.037
85685SOL     OW58951   7.117   4.692  13.775
85685SOL    HW158952   7.050   4.654  13.718
85685SOL    HW258953   7.195   4.639  13.760
85686SOL     OW58954   8.838   4.940   0.680
85686SOL    HW158955   8.837   4.994   0.759
85686SOL    HW258956   8.844   4.850   0.713
85687SOL     OW58957   4.502  10.062  13.467
85687SOL    HW158958   4.549  10.076  13.385
85687SOL    HW258959   4.572  10.046  13.531
85688SOL     OW58960   6.004   3.310   3.150
85688SOL    HW158961   6.090   3.276   3.122
85688SOL    HW258962   5.990   3.273   3.236
85689SOL     OW58963  12.949   7.430   2.685
85689SOL    HW158964  12.981   7.499   2.744
85689SOL    HW258965  12.992   7.350   2.716
85690SOL     OW58966  12.943  14.453   4.214
85690SOL    HW158967  12.874  14.465   4.148
85690SOL    HW258968  13.010  14.517   4.190
85691SOL     OW58969   1.459  10.479   0.262
85691SOL    HW158970   1.519  10.431   0.321
85691SOL    HW258971   1.501  10.474   0.177
85692SOL     OW58972   8.977   6.686   9.832
85692SOL    HW158973   8.921   6.758   9.803
85692SOL    HW258974   8.916   6.618   9.861
85693SOL     OW58975   1.679   6.855  13.291
85693SOL    HW158976   1.661   6.842  13.385
85693SOL    HW258977   1.617   6.923  13.265
85694SOL     OW58978  10.712  11.022   3.227
85694SOL    HW158979  10.715  11.084   3.299
85694SOL    HW258980  10.803  10.999   3.211
85695SOL     OW58981  11.350  11.322   6.103
85695SOL    HW158982  11.423  11.309   6.043
85695SOL    HW258983  11.342  11.418   6.110
85696SOL     OW58984   1.742   5.518   3.071
85696SOL    HW158985   1.755   5.507   2.976
85696SOL    HW258986   1.821   5.482   3.110
85697SOL     OW58987  11.326   9.846   0.243
85697SOL    HW158988  11.311   9.928   0.195
85697SOL    HW258989  11.381   9.794   0.184
85698SOL     OW58990   0.314  11.068   8.906
85698SOL    HW158991   0.248  11.003   8.932
85698SOL    HW258992   0.398  11.023   8.917
85699SOL     OW58993  10.013   9.305   9.660
85699SOL    HW158994  10.059   9.281   9.741
85699SOL    HW258995  10.027   9.400   9.652
85700SOL     OW58996  10.409   2.769  10.543
85700SOL    HW158997  10.486   2.757  10.598
85700SOL    HW258998  10.388   2.862  10.550
85701SOL     OW58999   5.082   9.625  14.849
85701SOL    HW159000   5.088   9.537   0.005
85701SOL    HW259001   5.023   9.673   0.024
85702SOL     OW59002   4.597   4.685   3.974
85702SOL    HW159003   4.570   4.675   3.883
85702SOL    HW259004   4.604   4.596   4.007
85703SOL     OW59005   5.377   0.819   4.453
85703SOL    HW159006   5.396   0.829   4.359
85703SOL    HW259007   5.283   0.800   4.456
85704SOL     OW59008   5.621  11.079   7.155
85704SOL    HW159009   5.650  10.995   7.122
85704SOL    HW259010   5.616  11.068   7.250
85705SOL     OW59011   6.253   3.598  13.039
85705SOL    HW159012   6.258   3.686  13.001
85705SOL    HW259013   6.231   3.613  13.131
85706SOL     OW59014  10.619  11.076  10.446
85706SOL    HW159015  10.671  11.024  10.386
85706SOL    HW259016  10.682  11.134  10.489
85707SOL     OW59017  13.114  14.881   5.312
85707SOL    HW159018  13.085   0.088   5.295
85707SOL    HW259019  13.155   0.003   5.399
85708SOL     OW59020   3.794   7.120   9.719
85708SOL    HW159021   3.833   7.085   9.639
85708SOL    HW259022   3.869   7.146   9.773
85709SOL     OW59023   8.360   5.783   2.323
85709SOL    HW159024   8.369   5.870   2.284
85709SOL    HW259025   8.407   5.725   2.264
85710SOL     OW59026   1.375   1.956   8.315
85710SOL    HW159027   1.347   1.871   8.348
85710SOL    HW259028   1.339   2.019   8.377
85711SOL     OW59029  14.249   1.765   7.482
85711SOL    HW159030  14.338   1.753   7.448
85711SOL    HW259031  14.202   1.809   7.410
85712SOL     OW59032   8.249   4.180   8.591
85712SOL    HW159033   8.218   4.255   8.642
85712SOL    HW259034   8.170   4.127   8.576
85713SOL     OW59035   5.487   5.721   6.890
85713SOL    HW159036   5.546   5.687   6.958
85713SOL    HW259037   5.460   5.807   6.922
85714SOL     OW59038   7.891   3.410   3.378
85714SOL    HW159039   7.985   3.424   3.365
85714SOL    HW259040   7.863   3.363   3.299
85715SOL     OW59041   8.914   8.818   6.390
85715SOL    HW159042   8.895   8.729   6.360
85715SOL    HW259043   8.836   8.845   6.439
85716SOL     OW59044  10.194   2.383   7.352
85716SOL    HW159045  10.193   2.313   7.286
85716SOL    HW259046  10.277   2.370   7.398
85717SOL     OW59047  12.322   9.429   4.509
85717SOL    HW159048  12.241   9.475   4.528
85717SOL    HW259049  12.385   9.464   4.572
85718SOL     OW59050   0.588  10.385  12.057
85718SOL    HW159051   0.660  10.322  12.062
85718SOL    HW259052   0.513  10.339  12.094
85719SOL     OW59053  12.304   1.494   0.040
85719SOL    HW159054  12.214   1.511   0.014
85719SOL    HW259055  12.304   1.503   0.135
85720SOL     OW59056  10.550  10.412   1.976
85720SOL    HW159057  10.466  10.398   1.932
85720SOL    HW259058  10.565  10.331   2.024
85721SOL     OW59059   9.526   8.835   6.307
85721SOL    HW159060   9.491   8.776   6.374
85721SOL    HW259061   9.572   8.778   6.245
85722SOL     OW59062  13.913   6.687   4.892
85722SOL    HW159063  13.945   6.630   4.963
85722SOL    HW259064  13.818   6.677   4.895
85723SOL     OW59065  14.238  11.570  10.022
85723SOL    HW159066  14.326  11.607  10.030
85723SOL    HW259067  14.179  11.645  10.029
85724SOL     OW59068   0.732   0.791   0.802
85724SOL    HW159069   0.717   0.725   0.869
85724SOL    HW259070   0.761   0.868   0.850
85725SOL     OW59071   2.309  13.000   4.667
85725SOL    HW159072   2.380  12.940   4.688
85725SOL    HW259073   2.344  13.087   4.686
85726SOL     OW59074   3.883  13.714  14.558
85726SOL    HW159075   3.855  13.805  14.572
85726SOL    HW259076   3.809  13.672  14.515
85727SOL     OW59077   4.453   1.393   3.506
85727SOL    HW159078   4.478   1.369   3.417
85727SOL    HW259079   4.481   1.319   3.560
85728SOL     OW59080  13.377   7.168   1.521
85728SOL    HW159081  13.399   7.228   1.591
85728SOL    HW259082  13.459   7.154   1.473
85729SOL     OW59083   3.568  10.745   2.224
85729SOL    HW159084   3.572  10.814   2.158
85729SOL    HW259085   3.632  10.771   2.290
85730SOL     OW59086   4.105   0.743   3.547
85730SOL    HW159087   4.127   0.740   3.454
85730SOL    HW259088   4.153   0.669   3.585
85731SOL     OW59089   6.677   5.851   6.829
85731SOL    HW159090   6.662   5.935   6.874
85731SOL    HW259091   6.652   5.785   6.894
85732SOL     OW59092  14.522  14.552   6.078
85732SOL    HW159093  14.553  14.614   6.144
85732SOL    HW259094  14.596  14.493   6.063
85733SOL     OW59095   3.928   5.420   5.189
85733SOL    HW159096   3.878   5.442   5.111
85733SOL    HW259097   4.015   5.457   5.173
85734SOL     OW59098  13.167   6.197   0.940
85734SOL    HW159099  13.169   6.177   0.847
85734SOL    HW259100  13.201   6.117   0.982
85735SOL     OW59101   8.890   5.137   3.853
85735SOL    HW159102   8.921   5.183   3.775
85735SOL    HW259103   8.799   5.116   3.834
85736SOL     OW59104   3.407  10.015  13.584
85736SOL    HW159105   3.424   9.998  13.491
85736SOL    HW259106   3.383  10.108  13.587
85737SOL     OW59107  11.864   0.699  10.462
85737SOL    HW159108  11.769   0.710  10.455
85737SOL    HW259109  11.877   0.604  10.462
85738SOL     OW59110   5.142   1.051   4.420
85738SOL    HW159111   5.199   1.051   4.497
85738SOL    HW259112   5.053   1.049   4.456
85739SOL     OW59113   4.070  12.922   8.560
85739SOL    HW159114   4.060  12.919   8.655
85739SOL    HW259115   4.050  12.833   8.530
85740SOL     OW59116   1.345   8.084  13.616
85740SOL    HW159117   1.301   8.000  13.627
85740SOL    HW259118   1.275   8.149  13.622
85741SOL     OW59119   9.603  10.379  13.029
85741SOL    HW159120   9.554  10.408  13.106
85741SOL    HW259121   9.563  10.294  13.006
85742SOL     OW59122   1.311   8.138   3.019
85742SOL    HW159123   1.320   8.219   3.070
85742SOL    HW259124   1.219   8.134   2.995
85743SOL     OW59125   0.389  13.127   2.681
85743SOL    HW159126   0.334  13.199   2.710
85743SOL    HW259127   0.357  13.051   2.729
85744SOL     OW59128  12.692   1.852   1.924
85744SOL    HW159129  12.782   1.879   1.911
85744SOL    HW259130  12.642   1.901   1.858
85745SOL     OW59131   0.186   0.171  14.438
85745SOL    HW159132   0.249   0.100  14.427
85745SOL    HW259133   0.236   0.242  14.479
85746SOL     OW59134   1.998   8.220   5.828
85746SOL    HW159135   2.054   8.266   5.891
85746SOL    HW259136   2.041   8.135   5.816
85747SOL     OW59137  10.249   6.502   6.596
85747SOL    HW159138  10.156   6.496   6.619
85747SOL    HW259139  10.271   6.594   6.609
85748SOL     OW59140   8.004  12.239  12.888
85748SOL    HW159141   8.047  12.229  12.803
85748SOL    HW259142   7.943  12.166  12.892
85749SOL     OW59143   1.894   2.082   8.726
85749SOL    HW159144   1.847   2.030   8.791
85749SOL    HW259145   1.950   2.139   8.777
85750SOL     OW59146  14.653  14.765   1.935
85750SOL    HW159147  14.724  14.826   1.914
85750SOL    HW259148  14.606  14.753   1.852
85751SOL     OW59149   3.815   2.586   8.098
85751SOL    HW159150   3.852   2.673   8.118
85751SOL    HW259151   3.755   2.602   8.025
85752SOL     OW59152  10.975  11.050   4.027
85752SOL    HW159153  10.891  11.090   4.052
85752SOL    HW259154  11.040  11.117   4.050
85753SOL     OW59155  11.971   0.710   0.331
85753SOL    HW159156  12.017   0.639   0.375
85753SOL    HW259157  11.911   0.666   0.270
85754SOL     OW59158   0.739  13.359   2.438
85754SOL    HW159159   0.742  13.387   2.529
85754SOL    HW259160   0.804  13.415   2.394
85755SOL     OW59161  13.546   4.338  12.013
85755SOL    HW159162  13.492   4.290  11.951
85755SOL    HW259163  13.521   4.430  12.000
85756SOL     OW59164   6.363   3.599   6.154
85756SOL    HW159165   6.364   3.695   6.159
85756SOL    HW259166   6.290   3.573   6.210
85757SOL     OW59167   6.417   1.589   2.773
85757SOL    HW159168   6.387   1.498   2.780
85757SOL    HW259169   6.411   1.622   2.862
85758SOL     OW59170  12.862  12.876   7.962
85758SOL    HW159171  12.820  12.792   7.944
85758SOL    HW259172  12.922  12.857   8.034
85759SOL     OW59173   1.273   1.061   7.407
85759SOL    HW159174   1.280   1.075   7.313
85759SOL    HW259175   1.185   1.092   7.429
85760SOL     OW59176   4.663   0.278  12.489
85760SOL    HW159177   4.674   0.342  12.418
85760SOL    HW259178   4.625   0.201  12.446
85761SOL     OW59179   3.073   7.617  14.442
85761SOL    HW159180   3.099   7.552  14.509
85761SOL    HW259181   3.151   7.671  14.431
85762SOL     OW59182   7.639   3.267   0.563
85762SOL    HW159183   7.584   3.339   0.531
85762SOL    HW259184   7.723   3.280   0.519
85763SOL     OW59185   9.177  11.895   9.871
85763SOL    HW159186   9.161  11.959   9.802
85763SOL    HW259187   9.233  11.829   9.831
85764SOL     OW59188   9.941   5.912  10.834
85764SOL    HW159189   9.861   5.958  10.862
85764SOL    HW259190   9.973   5.869  10.913
85765SOL     OW59191   5.532   8.650   1.004
85765SOL    HW159192   5.553   8.739   0.979
85765SOL    HW259193   5.612   8.600   0.987
85766SOL     OW59194  14.679   7.162   7.764
85766SOL    HW159195  14.597   7.124   7.732
85766SOL    HW259196  14.654   7.204   7.847
85767SOL     OW59197   8.132  14.113   0.526
85767SOL    HW159198   8.144  14.160   0.443
85767SOL    HW259199   8.130  14.183   0.592
85768SOL     OW59200   5.306   7.453   0.851
85768SOL    HW159201   5.373   7.456   0.919
85768SOL    HW259202   5.341   7.391   0.786
85769SOL     OW59203  14.488   6.483   3.493
85769SOL    HW159204  14.492   6.529   3.576
85769SOL    HW259205  14.537   6.538   3.432
85770SOL     OW59206   1.567   6.159  10.990
85770SOL    HW159207   1.544   6.236  11.042
85770SOL    HW259208   1.508   6.090  11.022
85771SOL     OW59209   0.567  10.261  12.581
85771SOL    HW159210   0.513  10.203  12.528
85771SOL    HW259211   0.552  10.232  12.671
85772SOL     OW59212  11.913  13.243   8.930
85772SOL    HW159213  11.930  13.186   9.006
85772SOL    HW259214  11.922  13.332   8.964
85773SOL     OW59215  12.705  13.913   1.094
85773SOL    HW159216  12.764  13.932   1.021
85773SOL    HW259217  12.617  13.919   1.056
85774SOL     OW59218  10.019   3.008   0.405
85774SOL    HW159219  10.008   3.003   0.310
85774SOL    HW259220  10.078   3.082   0.418
85775SOL     OW59221  14.804   8.443  13.626
85775SOL    HW159222  14.753   8.460  13.705
85775SOL    HW259223   0.013   8.447  13.656
85776SOL     OW59224   1.327   8.722   7.347
85776SOL    HW159225   1.328   8.635   7.387
85776SOL    HW259226   1.379   8.712   7.267
85777SOL     OW59227   9.429   8.431   6.639
85777SOL    HW159228   9.475   8.355   6.675
85777SOL    HW259229   9.363   8.452   6.705
85778SOL     OW59230   4.433   5.105   3.594
85778SOL    HW159231   4.487   5.071   3.665
85778SOL    HW259232   4.484   5.088   3.515
85779SOL     OW59233  12.434  12.767  12.374
85779SOL    HW159234  12.339  12.776  12.380
85779SOL    HW259235  12.448  12.677  12.346
85780SOL     OW59236   9.362  10.091   9.361
85780SOL    HW159237   9.454  10.067   9.373
85780SOL    HW259238   9.359  10.130   9.273
85781SOL     OW59239   5.771   0.110   2.715
85781SOL    HW159240   5.725   0.192   2.697
85781SOL    HW259241   5.751   0.091   2.807
85782SOL     OW59242   3.501  14.705   2.422
85782SOL    HW159243   3.445  14.681   2.495
85782SOL    HW259244   3.444  14.756   2.364
85783SOL     OW59245   6.000   7.940  12.572
85783SOL    HW159246   5.941   8.000  12.618
85783SOL    HW259247   6.024   7.875  12.638
85784SOL     OW59248   4.276  14.311   4.936
85784SOL    HW159249   4.331  14.297   4.859
85784SOL    HW259250   4.333  14.354   5.000
85785SOL     OW59251   9.982  11.415   2.676
85785SOL    HW159252   9.936  11.350   2.623
85785SOL    HW259253  10.040  11.460   2.614
85786SOL     OW59254   5.136   0.897   3.613
85786SOL    HW159255   5.123   0.854   3.697
85786SOL    HW259256   5.158   0.827   3.552
85787SOL     OW59257   9.532   6.250  12.384
85787SOL    HW159258   9.607   6.190  12.385
85787SOL    HW259259   9.458   6.195  12.355
85788SOL     OW59260  12.905   2.620   2.044
85788SOL    HW159261  12.996   2.616   2.072
85788SOL    HW259262  12.902   2.693   1.983
85789SOL     OW59263   4.574  11.720   7.066
85789SOL    HW159264   4.570  11.636   7.021
85789SOL    HW259265   4.651  11.713   7.122
85790SOL     OW59266   8.254   7.366   8.577
85790SOL    HW159267   8.293   7.413   8.650
85790SOL    HW259268   8.168   7.339   8.609
85791SOL     OW59269  12.582   1.429  11.880
85791SOL    HW159270  12.558   1.447  11.971
85791SOL    HW259271  12.511   1.468  11.829
85792SOL     OW59272  13.391   6.956   4.256
85792SOL    HW159273  13.299   6.965   4.234
85792SOL    HW259274  13.400   7.000   4.341
85793SOL     OW59275  11.242  10.127   9.799
85793SOL    HW159276  11.216  10.197   9.739
85793SOL    HW259277  11.161  10.099   9.840
85794SOL     OW59278  13.502   3.612   1.393
85794SOL    HW159279  13.576   3.608   1.454
85794SOL    HW259280  13.536   3.575   1.311
85795SOL     OW59281   2.895  12.338   5.391
85795SOL    HW159282   2.809  12.377   5.374
85795SOL    HW259283   2.877  12.244   5.397
85796SOL     OW59284   7.375   5.907   9.167
85796SOL    HW159285   7.393   5.999   9.185
85796SOL    HW259286   7.425   5.859   9.233
85797SOL     OW59287   1.672  14.124   9.627
85797SOL    HW159288   1.688  14.080   9.543
85797SOL    HW259289   1.621  14.060   9.677
85798SOL     OW59290   0.671   5.520   4.515
85798SOL    HW159291   0.689   5.445   4.458
85798SOL    HW259292   0.576   5.532   4.510
85799SOL     OW59293   0.320   2.478   4.290
85799SOL    HW159294   0.397   2.487   4.234
85799SOL    HW259295   0.310   2.564   4.331
85800SOL     OW59296  13.903   6.250   5.428
85800SOL    HW159297  13.828   6.237   5.486
85800SOL    HW259298  13.965   6.302   5.480
85801SOL     OW59299   8.364   9.418   3.335
85801SOL    HW159300   8.423   9.362   3.283
85801SOL    HW259301   8.290   9.361   3.357
85802SOL     OW59302  11.354   0.356   2.207
85802SOL    HW159303  11.285   0.406   2.164
85802SOL    HW259304  11.408   0.322   2.136
85803SOL     OW59305   1.801  13.957  12.211
85803SOL    HW159306   1.818  14.035  12.158
85803SOL    HW259307   1.785  13.888  12.146
85804SOL     OW59308   9.516   3.503   1.778
85804SOL    HW159309   9.485   3.567   1.843
85804SOL    HW259310   9.507   3.549   1.694
85805SOL     OW59311   3.216   6.249  10.764
85805SOL    HW159312   3.173   6.254  10.850
85805SOL    HW259313   3.254   6.161  10.762
85806SOL     OW59314   1.526  12.004   6.701
85806SOL    HW159315   1.473  11.963   6.769
85806SOL    HW259316   1.573  11.931   6.660
85807SOL     OW59317  12.383   5.591  10.819
85807SOL    HW159318  12.474   5.610  10.842
85807SOL    HW259319  12.337   5.591  10.902
85808SOL     OW59320  11.463  12.079   3.162
85808SOL    HW159321  11.414  11.997   3.149
85808SOL    HW259322  11.521  12.061   3.235
85809SOL     OW59323   0.406  13.817  11.100
85809SOL    HW159324   0.344  13.807  11.173
85809SOL    HW259325   0.413  13.911  11.088
85810SOL     OW59326   4.001  13.867   0.323
85810SOL    HW159327   3.915  13.885   0.359
85810SOL    HW259328   4.008  13.926   0.248
85811SOL     OW59329   7.541   6.187   3.332
85811SOL    HW159330   7.486   6.198   3.409
85811SOL    HW259331   7.542   6.093   3.316
85812SOL     OW59332  11.761   2.228  12.142
85812SOL    HW159333  11.754   2.269  12.229
85812SOL    HW259334  11.818   2.153  12.156
85813SOL     OW59335   7.449   3.814  11.546
85813SOL    HW159336   7.360   3.787  11.569
85813SOL    HW259337   7.447   3.827  11.451
85814SOL     OW59338  12.760   0.710  14.537
85814SOL    HW159339  12.766   0.645  14.467
85814SOL    HW259340  12.840   0.761  14.529
85815SOL     OW59341   8.095   1.368  12.868
85815SOL    HW159342   8.066   1.452  12.903
85815SOL    HW259343   8.190   1.373  12.868
85816SOL     OW59344   9.930  13.644   9.763
85816SOL    HW159345   9.908  13.737   9.760
85816SOL    HW259346   9.913  13.618   9.854
85817SOL     OW59347   9.302   9.588   1.158
85817SOL    HW159348   9.311   9.629   1.072
85817SOL    HW259349   9.227   9.528   1.147
85818SOL     OW59350  13.891   1.182   6.000
85818SOL    HW159351  13.957   1.158   5.935
85818SOL    HW259352  13.936   1.242   6.059
85819SOL     OW59353   4.665   3.624   8.754
85819SOL    HW159354   4.604   3.634   8.827
85819SOL    HW259355   4.721   3.701   8.759
85820SOL     OW59356  10.550  10.467  13.483
85820SOL    HW159357  10.468  10.437  13.522
85820SOL    HW259358  10.540  10.562  13.476
85821SOL     OW59359  11.400   2.743   7.043
85821SOL    HW159360  11.382   2.695   6.962
85821SOL    HW259361  11.377   2.834   7.023
85822SOL     OW59362  13.902   9.283  14.187
85822SOL    HW159363  13.808   9.268  14.180
85822SOL    HW259364  13.935   9.207  14.235
85823SOL     OW59365  11.123   4.765   7.779
85823SOL    HW159366  11.165   4.679   7.782
85823SOL    HW259367  11.176   4.814   7.716
85824SOL     OW59368   7.740   2.064  14.386
85824SOL    HW159369   7.653   2.068  14.425
85824SOL    HW259370   7.783   1.992  14.432
85825SOL     OW59371   6.947   1.764  10.910
85825SOL    HW159372   6.863   1.779  10.866
85825SOL    HW259373   6.952   1.669  10.922
85826SOL     OW59374   8.246   4.210   8.987
85826SOL    HW159375   8.194   4.140   8.947
85826SOL    HW259376   8.203   4.291   8.959
85827SOL     OW59377  11.183   0.274  11.247
85827SOL    HW159378  11.160   0.367  11.254
85827SOL    HW259379  11.266   0.267  11.295
85828SOL     OW59380  14.801   7.375   7.654
85828SOL    HW159381  14.752   7.304   7.695
85828SOL    HW259382   0.001   7.378   7.703
85829SOL     OW59383   4.842  14.227  10.097
85829SOL    HW159384   4.768  14.274  10.135
85829SOL    HW259385   4.808  14.140  10.076
85830SOL     OW59386   3.059   0.459  14.524
85830SOL    HW159387   2.969   0.461  14.492
85830SOL    HW259388   3.111   0.430  14.449
85831SOL     OW59389  14.302  10.758  12.991
85831SOL    HW159390  14.337  10.846  13.002
85831SOL    HW259391  14.368  10.713  12.938
85832SOL     OW59392   1.568   7.048  11.520
85832SOL    HW159393   1.501   6.998  11.473
85832SOL    HW259394   1.548   7.139  11.500
85833SOL     OW59395  10.885  13.886   8.876
85833SOL    HW159396  10.948  13.846   8.936
85833SOL    HW259397  10.808  13.903   8.930
85834SOL     OW59398   8.905   9.382  10.165
85834SOL    HW159399   8.970   9.323  10.204
85834SOL    HW259400   8.952   9.424  10.093
85835SOL     OW59401  12.591   3.620   9.769
85835SOL    HW159402  12.622   3.706   9.795
85835SOL    HW259403  12.525   3.637   9.702
85836SOL     OW59404   1.683   6.775   1.179
85836SOL    HW159405   1.657   6.853   1.131
85836SOL    HW259406   1.722   6.718   1.112
85837SOL     OW59407  14.231   2.636   0.564
85837SOL    HW159408  14.181   2.693   0.505
85837SOL    HW259409  14.187   2.551   0.557
85838SOL     OW59410  11.273   8.749  10.964
85838SOL    HW159411  11.276   8.844  10.950
85838SOL    HW259412  11.218   8.716  10.894
85839SOL     OW59413   1.302   1.065  10.310
85839SOL    HW159414   1.243   1.113  10.252
85839SOL    HW259415   1.386   1.109  10.300
85840SOL     OW59416   0.120   7.736   4.899
85840SOL    HW159417   0.169   7.796   4.955
85840SOL    HW259418   0.040   7.716   4.949
85841SOL     OW59419  13.982  11.026   6.369
85841SOL    HW159420  13.958  11.044   6.460
85841SOL    HW259421  13.914  11.069   6.317
85842SOL     OW59422   5.956  11.155   7.763
85842SOL    HW159423   6.050  11.142   7.755
85842SOL    HW259424   5.917  11.083   7.713
85843SOL     OW59425   6.327   5.234   4.005
85843SOL    HW159426   6.301   5.285   3.928
85843SOL    HW259427   6.246   5.226   4.056
85844SOL     OW59428   9.302   5.521   5.921
85844SOL    HW159429   9.305   5.453   5.854
85844SOL    HW259430   9.241   5.586   5.887
85845SOL     OW59431   1.243  10.740   4.867
85845SOL    HW159432   1.156  10.772   4.892
85845SOL    HW259433   1.232  10.645   4.859
85846SOL     OW59434   8.766   1.788  10.226
85846SOL    HW159435   8.728   1.869  10.191
85846SOL    HW259436   8.704   1.720  10.202
85847SOL     OW59437   6.849   8.753   5.201
85847SOL    HW159438   6.823   8.730   5.290
85847SOL    HW259439   6.839   8.848   5.197
85848SOL     OW59440   3.672   7.136  11.500
85848SOL    HW159441   3.621   7.196  11.554
85848SOL    HW259442   3.761   7.170  11.502
85849SOL     OW59443   8.063   5.989   7.944
85849SOL    HW159444   8.088   5.919   8.004
85849SOL    HW259445   8.131   6.056   7.957
85850SOL     OW59446   7.586   8.414  13.649
85850SOL    HW159447   7.591   8.373  13.563
85850SOL    HW259448   7.618   8.348  13.710
85851SOL     OW59449  11.658   7.340   0.602
85851SOL    HW159450  11.739   7.335   0.552
85851SOL    HW259451  11.674   7.284   0.678
85852SOL     OW59452   3.770   2.560  14.766
85852SOL    HW159453   3.816   2.514  14.697
85852SOL    HW259454   3.698   2.605  14.722
85853SOL     OW59455   8.480   0.633  10.467
85853SOL    HW159456   8.485   0.602  10.558
85853SOL    HW259457   8.534   0.712  10.466
85854SOL     OW59458   5.320   0.487   4.416
85854SOL    HW159459   5.315   0.416   4.481
85854SOL    HW259460   5.306   0.567   4.467
85855SOL     OW59461   2.647   4.288   3.640
85855SOL    HW159462   2.557   4.289   3.673
85855SOL    HW259463   2.683   4.373   3.665
85856SOL     OW59464   8.172  10.646  13.092
85856SOL    HW159465   8.152  10.691  13.175
85856SOL    HW259466   8.212  10.714  13.038
85857SOL     OW59467  14.348   1.843   7.984
85857SOL    HW159468  14.321   1.934   7.972
85857SOL    HW259469  14.333   1.802   7.899
85858SOL     OW59470   8.827   6.505   9.962
85858SOL    HW159471   8.837   6.426  10.014
85858SOL    HW259472   8.777   6.565  10.018
85859SOL     OW59473   7.253  13.612  14.848
85859SOL    HW159474   7.313  13.686  14.844
85859SOL    HW259475   7.296  13.548   0.024
85860SOL     OW59476  11.470   5.197   1.878
85860SOL    HW159477  11.559   5.201   1.912
85860SOL    HW259478  11.415   5.178   1.954
85861SOL     OW59479   1.142   7.189  10.350
85861SOL    HW159480   1.061   7.237  10.332
85861SOL    HW259481   1.155   7.198  10.444
85862SOL     OW59482   8.379   6.183   7.500
85862SOL    HW159483   8.382   6.266   7.452
85862SOL    HW259484   8.315   6.198   7.569
85863SOL     OW59485   8.309   8.261   1.773
85863SOL    HW159486   8.379   8.226   1.719
85863SOL    HW259487   8.255   8.185   1.796
85864SOL     OW59488   6.936   5.764  12.856
85864SOL    HW159489   6.998   5.835  12.839
85864SOL    HW259490   6.899   5.744  12.770
85865SOL     OW59491  12.951   5.382   7.285
85865SOL    HW159492  13.027   5.330   7.258
85865SOL    HW259493  12.907   5.405   7.203
85866SOL     OW59494   0.633  11.713  11.262
85866SOL    HW159495   0.637  11.794  11.211
85866SOL    HW259496   0.590  11.651  11.204
85867SOL     OW59497   7.670   8.669   9.488
85867SOL    HW159498   7.738   8.654   9.554
85867SOL    HW259499   7.691   8.755   9.451
85868SOL     OW59500   0.103   2.935  12.241
85868SOL    HW159501   0.161   2.943  12.316
85868SOL    HW259502   0.095   3.024  12.207
85869SOL     OW59503  13.941   2.859   1.638
85869SOL    HW159504  13.908   2.819   1.719
85869SOL    HW259505  14.033   2.876   1.655
85870SOL     OW59506   2.388  10.928   6.731
85870SOL    HW159507   2.323  10.859   6.743
85870SOL    HW259508   2.440  10.926   6.812
85871SOL     OW59509   9.063  13.651   2.808
85871SOL    HW159510   9.009  13.571   2.804
85871SOL    HW259511   9.110  13.652   2.725
85872SOL     OW59512  12.382  10.149  12.753
85872SOL    HW159513  12.423  10.177  12.671
85872SOL    HW259514  12.288  10.153  12.736
85873SOL     OW59515  13.398   0.761   3.949
85873SOL    HW159516  13.469   0.796   3.896
85873SOL    HW259517  13.416   0.792   4.038
85874SOL     OW59518   2.045   8.302   6.524
85874SOL    HW159519   2.104   8.268   6.457
85874SOL    HW259520   2.086   8.276   6.607
85875SOL     OW59521   8.200   1.253   3.054
85875SOL    HW159522   8.211   1.158   3.052
85875SOL    HW259523   8.140   1.272   2.982
85876SOL     OW59524   7.644   7.628   5.298
85876SOL    HW159525   7.711   7.624   5.366
85876SOL    HW259526   7.688   7.672   5.224
85877SOL     OW59527   3.057   9.492  11.034
85877SOL    HW159528   3.082   9.584  11.025
85877SOL    HW259529   3.101   9.448  10.961
85878SOL     OW59530  10.346   6.792   9.368
85878SOL    HW159531  10.345   6.770   9.461
85878SOL    HW259532  10.410   6.733   9.330
85879SOL     OW59533   8.289   8.767  13.068
85879SOL    HW159534   8.212   8.766  13.011
85879SOL    HW259535   8.359   8.729  13.015
85880SOL     OW59536  10.486   8.478  11.226
85880SOL    HW159537  10.465   8.470  11.319
85880SOL    HW259538  10.521   8.567  11.217
85881SOL     OW59539   8.673  13.076   2.380
85881SOL    HW159540   8.626  13.107   2.458
85881SOL    HW259541   8.747  13.028   2.415
85882SOL     OW59542  13.098   6.811   9.493
85882SOL    HW159543  13.191   6.789   9.496
85882SOL    HW259544  13.095   6.906   9.498
85883SOL     OW59545   1.883   0.802   5.577
85883SOL    HW159546   1.958   0.861   5.573
85883SOL    HW259547   1.891   0.748   5.498
85884SOL     OW59548   5.470  11.360  14.633
85884SOL    HW159549   5.382  11.389  14.655
85884SOL    HW259550   5.500  11.313  14.711
85885SOL     OW59551   9.677  14.228  10.234
85885SOL    HW159552   9.678  14.181  10.151
85885SOL    HW259553   9.753  14.287  10.230
85886SOL     OW59554   3.029  10.872   8.095
85886SOL    HW159555   3.011  10.949   8.041
85886SOL    HW259556   3.120  10.881   8.120
85887SOL     OW59557   0.441   1.118   5.546
85887SOL    HW159558   0.359   1.078   5.517
85887SOL    HW259559   0.458   1.187   5.482
85888SOL     OW59560   1.533  10.163  10.734
85888SOL    HW159561   1.529  10.177  10.828
85888SOL    HW259562   1.505  10.072  10.722
85889SOL     OW59563   8.279   2.432   4.721
85889SOL    HW159564   8.247   2.465   4.805
85889SOL    HW259565   8.217   2.467   4.656
85890SOL     OW59566   7.818  14.698  12.832
85890SOL    HW159567   7.842  14.651  12.912
85890SOL    HW259568   7.850  14.787  12.847
85891SOL     OW59569   6.362  11.997   7.602
85891SOL    HW159570   6.331  12.048   7.677
85891SOL    HW259571   6.289  11.940   7.579
85892SOL     OW59572  14.639   4.780   5.752
85892SOL    HW159573  14.625   4.725   5.830
85892SOL    HW259574  14.601   4.729   5.680
85893SOL     OW59575   2.129  10.846  12.758
85893SOL    HW159576   2.206  10.797  12.729
85893SOL    HW259577   2.141  10.934  12.722
85894SOL     OW59578  13.341   8.007   8.580
85894SOL    HW159579  13.308   8.096   8.571
85894SOL    HW259580  13.292   7.971   8.654
85895SOL     OW59581   5.102  13.235  14.305
85895SOL    HW159582   5.125  13.282  14.225
85895SOL    HW259583   5.175  13.174  14.318
85896SOL     OW59584   6.174   4.208  10.534
85896SOL    HW159585   6.130   4.159  10.603
85896SOL    HW259586   6.137   4.174  10.453
85897SOL     OW59587   5.540  14.241   9.841
85897SOL    HW159588   5.609  14.268   9.780
85897SOL    HW259589   5.462  14.229   9.785
85898SOL     OW59590  10.022   9.337  10.949
85898SOL    HW159591   9.973   9.309  10.871
85898SOL    HW259592  10.007   9.268  11.013
85899SOL     OW59593   5.721   9.071   5.157
85899SOL    HW159594   5.761   8.991   5.120
85899SOL    HW259595   5.645   9.086   5.102
85900SOL     OW59596  10.986   5.991   8.191
85900SOL    HW159597  10.931   5.917   8.165
85900SOL    HW259598  11.036   6.013   8.112
85901SOL     OW59599   7.142   8.495   2.545
85901SOL    HW159600   7.190   8.563   2.498
85901SOL    HW259601   7.084   8.542   2.604
85902SOL     OW59602   1.272   1.650  10.396
85902SOL    HW159603   1.338   1.689  10.453
85902SOL    HW259604   1.319   1.634  10.314
85903SOL     OW59605   9.304  12.497   7.631
85903SOL    HW159606   9.330  12.494   7.723
85903SOL    HW259607   9.209  12.493   7.632
85904SOL     OW59608  10.409   3.227   8.454
85904SOL    HW159609  10.321   3.255   8.430
85904SOL    HW259610  10.446   3.193   8.372
85905SOL     OW59611  10.961   8.981   7.087
85905SOL    HW159612  10.925   9.033   7.016
85905SOL    HW259613  10.925   8.893   7.073
85906SOL     OW59614   3.802  12.642  10.439
85906SOL    HW159615   3.886  12.597  10.447
85906SOL    HW259616   3.825  12.733  10.421
85907SOL     OW59617   1.714   2.072   9.988
85907SOL    HW159618   1.720   2.063  10.084
85907SOL    HW259619   1.637   2.128   9.975
85908SOL     OW59620   7.809   7.642   0.467
85908SOL    HW159621   7.826   7.635   0.560
85908SOL    HW259622   7.786   7.734   0.453
85909SOL     OW59623   7.061   7.547   9.474
85909SOL    HW159624   7.018   7.630   9.456
85909SOL    HW259625   7.052   7.536   9.569
85910SOL     OW59626   3.569   4.452   4.713
85910SOL    HW159627   3.505   4.481   4.648
85910SOL    HW259628   3.553   4.358   4.722
85911SOL     OW59629   5.475   3.276   2.068
85911SOL    HW159630   5.501   3.269   2.160
85911SOL    HW259631   5.431   3.193   2.049
85912SOL     OW59632   5.917  11.744  13.162
85912SOL    HW159633   5.858  11.757  13.236
85912SOL    HW259634   5.875  11.675  13.110
85913SOL     OW59635   6.455   1.213   8.998
85913SOL    HW159636   6.488   1.278   9.060
85913SOL    HW259637   6.531   1.192   8.943
85914SOL     OW59638  13.021  13.288   4.473
85914SOL    HW159639  12.926  13.278   4.466
85914SOL    HW259640  13.036  13.306   4.566
85915SOL     OW59641   7.489   3.231   3.128
85915SOL    HW159642   7.516   3.292   3.060
85915SOL    HW259643   7.394   3.233   3.126
85916SOL     OW59644   0.520   0.853  12.047
85916SOL    HW159645   0.426   0.865  12.030
85916SOL    HW259646   0.537   0.762  12.024
85917SOL     OW59647  13.652   1.642   0.058
85917SOL    HW159648  13.689   1.638  14.852
85917SOL    HW259649  13.715   1.693   0.108
85918SOL     OW59650   7.772   2.221   5.701
85918SOL    HW159651   7.687   2.257   5.677
85918SOL    HW259652   7.777   2.231   5.796
85919SOL     OW59653   1.054   3.194   4.743
85919SOL    HW159654   1.069   3.158   4.655
85919SOL    HW259655   1.037   3.287   4.728
85920SOL     OW59656  14.015   0.613   1.019
85920SOL    HW159657  14.009   0.616   0.924
85920SOL    HW259658  14.105   0.585   1.037
85921SOL     OW59659   7.114   6.128   4.016
85921SOL    HW159660   7.063   6.049   3.999
85921SOL    HW259661   7.083   6.158   4.102
85922SOL     OW59662   7.028  13.934  10.555
85922SOL    HW159663   7.017  13.848  10.597
85922SOL    HW259664   7.089  13.919  10.483
85923SOL     OW59665   4.145   8.226   8.502
85923SOL    HW159666   4.231   8.185   8.503
85923SOL    HW259667   4.092   8.171   8.560
85924SOL     OW59668  13.219   9.558   2.296
85924SOL    HW159669  13.124   9.553   2.290
85924SOL    HW259670  13.248   9.467   2.300
85925SOL     OW59671   3.206   7.242   1.716
85925SOL    HW159672   3.230   7.335   1.706
85925SOL    HW259673   3.247   7.216   1.798
85926SOL     OW59674  13.844   9.888  13.745
85926SOL    HW159675  13.880   9.962  13.793
85926SOL    HW259676  13.773   9.924  13.692
85927SOL     OW59677   4.081  12.636  10.634
85927SOL    HW159678   4.094  12.590  10.551
85927SOL    HW259679   3.991  12.667  10.630
85928SOL     OW59680  12.873   3.847   5.635
85928SOL    HW159681  12.942   3.913   5.637
85928SOL    HW259682  12.920   3.764   5.641
85929SOL     OW59683   4.681  14.486   6.943
85929SOL    HW159684   4.709  14.553   7.005
85929SOL    HW259685   4.622  14.532   6.883
85930SOL     OW59686  11.730   2.223  13.148
85930SOL    HW159687  11.759   2.295  13.091
85930SOL    HW259688  11.755   2.144  13.100
85931SOL     OW59689   4.915  14.095  14.417
85931SOL    HW159690   4.859  14.051  14.352
85931SOL    HW259691   4.988  14.034  14.430
85932SOL     OW59692   6.904   1.579   5.766
85932SOL    HW159693   6.835   1.642   5.748
85932SOL    HW259694   6.858   1.495   5.776
85933SOL     OW59695  13.542  12.498   2.880
85933SOL    HW159696  13.620  12.518   2.931
85933SOL    HW259697  13.529  12.575   2.825
85934SOL     OW59698   4.024   7.840  12.829
85934SOL    HW159699   4.038   7.745  12.824
85934SOL    HW259700   3.930   7.850  12.822
85935SOL     OW59701  10.252  14.882  11.193
85935SOL    HW159702  10.215  14.836  11.118
85935SOL    HW259703  10.177   0.029  11.243
85936SOL     OW59704   6.961  13.270   3.502
85936SOL    HW159705   6.964  13.270   3.598
85936SOL    HW259706   7.029  13.207   3.477
85937SOL     OW59707  11.556   5.671   3.166
85937SOL    HW159708  11.608   5.734   3.115
85937SOL    HW259709  11.466   5.702   3.157
85938SOL     OW59710  11.587   6.394   9.704
85938SOL    HW159711  11.576   6.344   9.623
85938SOL    HW259712  11.537   6.474   9.690
85939SOL     OW59713  13.523   2.936   7.551
85939SOL    HW159714  13.603   2.884   7.553
85939SOL    HW259715  13.543   3.012   7.606
85940SOL     OW59716   2.257  14.530  13.139
85940SOL    HW159717   2.293  14.475  13.070
85940SOL    HW259718   2.193  14.474  13.184
85941SOL     OW59719   7.601  11.267  14.605
85941SOL    HW159720   7.525  11.315  14.638
85941SOL    HW259721   7.627  11.211  14.679
85942SOL     OW59722   7.614   1.611   3.359
85942SOL    HW159723   7.619   1.703   3.332
85942SOL    HW259724   7.662   1.607   3.441
85943SOL     OW59725   8.008   4.675   1.868
85943SOL    HW159726   7.943   4.740   1.894
85943SOL    HW259727   8.085   4.696   1.921
85944SOL     OW59728   7.778   0.762   4.680
85944SOL    HW159729   7.740   0.752   4.767
85944SOL    HW259730   7.776   0.674   4.643
85945SOL     OW59731  12.973   6.017  12.679
85945SOL    HW159732  13.014   5.934  12.659
85945SOL    HW259733  12.894   5.994  12.728
85946SOL     OW59734   0.961  11.120   1.516
85946SOL    HW159735   1.032  11.112   1.579
85946SOL    HW259736   0.896  11.055   1.544
85947SOL     OW59737   7.515  13.846   6.830
85947SOL    HW159738   7.494  13.821   6.920
85947SOL    HW259739   7.433  13.834   6.782
85948SOL     OW59740   1.276   9.910   3.092
85948SOL    HW159741   1.371   9.902   3.080
85948SOL    HW259742   1.241   9.899   3.003
85949SOL     OW59743   2.883   0.342   4.345
85949SOL    HW159744   2.815   0.317   4.283
85949SOL    HW259745   2.920   0.259   4.375
85950SOL     OW59746  13.543   7.668   5.335
85950SOL    HW159747  13.539   7.671   5.431
85950SOL    HW259748  13.624   7.715   5.313
85951SOL     OW59749   8.273  11.319   3.388
85951SOL    HW159750   8.363  11.315   3.421
85951SOL    HW259751   8.241  11.229   3.397
85952SOL     OW59752  11.294  11.998   6.463
85952SOL    HW159753  11.294  12.052   6.542
85952SOL    HW259754  11.205  11.964   6.457
85953SOL     OW59755   3.448   0.232   8.138
85953SOL    HW159756   3.523   0.264   8.088
85953SOL    HW259757   3.394   0.310   8.153
85954SOL     OW59758  12.165   4.421  10.826
85954SOL    HW159759  12.222   4.478  10.774
85954SOL    HW259760  12.105   4.383  10.763
85955SOL     OW59761  13.450   5.870   0.895
85955SOL    HW159762  13.483   5.937   0.836
85955SOL    HW259763  13.513   5.798   0.888
85956SOL     OW59764  14.848  11.641  10.059
85956SOL    HW159765  14.815  11.707  10.121
85956SOL    HW259766  14.788  11.567  10.070
85957SOL     OW59767   6.275   2.216  12.229
85957SOL    HW159768   6.237   2.290  12.276
85957SOL    HW259769   6.360   2.248  12.199
85958SOL     OW59770  12.563  11.059  10.861
85958SOL    HW159771  12.509  11.133  10.885
85958SOL    HW259772  12.650  11.080  10.896
85959SOL     OW59773   0.155  11.695   6.713
85959SOL    HW159774   0.122  11.606   6.724
85959SOL    HW259775   0.082  11.744   6.677
85960SOL     OW59776   3.898   1.829   6.076
85960SOL    HW159777   3.880   1.893   6.007
85960SOL    HW259778   3.814   1.814   6.118
85961SOL     OW59779   0.565  10.977   8.935
85961SOL    HW159780   0.656  10.987   8.962
85961SOL    HW259781   0.549  10.883   8.940
85962SOL     OW59782   4.130  13.307   9.509
85962SOL    HW159783   4.132  13.247   9.583
85962SOL    HW259784   4.079  13.260   9.442
85963SOL     OW59785  12.180  13.965   9.478
85963SOL    HW159786  12.126  14.008   9.411
85963SOL    HW259787  12.122  13.955   9.553
85964SOL     OW59788   3.189   8.871   3.617
85964SOL    HW159789   3.197   8.917   3.701
85964SOL    HW259790   3.272   8.824   3.607
85965SOL     OW59791   4.188  14.401   9.236
85965SOL    HW159792   4.239  14.481   9.221
85965SOL    HW259793   4.185  14.358   9.151
85966SOL     OW59794  12.423   9.626   3.388
85966SOL    HW159795  12.382   9.645   3.303
85966SOL    HW259796  12.477   9.703   3.406
85967SOL     OW59797   4.685   5.076  14.788
85967SOL    HW159798   4.646   5.037  14.710
85967SOL    HW259799   4.673   5.170  14.776
85968SOL     OW59800   4.809   3.707   6.705
85968SOL    HW159801   4.804   3.800   6.680
85968SOL    HW259802   4.741   3.697   6.772
85969SOL     OW59803   5.146   9.625   2.131
85969SOL    HW159804   5.070   9.567   2.125
85969SOL    HW259805   5.206   9.581   2.190
85970SOL     OW59806  12.382   2.543   4.346
85970SOL    HW159807  12.322   2.541   4.272
85970SOL    HW259808  12.338   2.493   4.415
85971SOL     OW59809  13.210  10.749  12.464
85971SOL    HW159810  13.215  10.819  12.399
85971SOL    HW259811  13.161  10.788  12.537
85972SOL     OW59812   5.038  10.059  14.055
85972SOL    HW159813   5.013  10.104  14.135
85972SOL    HW259814   5.062   9.971  14.083
85973SOL     OW59815   1.526  11.088   3.623
85973SOL    HW159816   1.437  11.063   3.599
85973SOL    HW259817   1.516  11.169   3.673
85974SOL     OW59818  14.292  11.341   5.515
85974SOL    HW159819  14.249  11.339   5.600
85974SOL    HW259820  14.356  11.269   5.519
85975SOL     OW59821   9.508  13.341   4.096
85975SOL    HW159822   9.589  13.391   4.090
85975SOL    HW259823   9.452  13.378   4.029
85976SOL     OW59824  10.348   6.181  14.793
85976SOL    HW159825  10.305   6.161  14.877
85976SOL    HW259826  10.384   6.269  14.805
85977SOL     OW59827   3.341  14.611   2.894
85977SOL    HW159828   3.318  14.639   2.806
85977SOL    HW259829   3.410  14.546   2.882
85978SOL     OW59830   3.224   9.405   4.976
85978SOL    HW159831   3.180   9.351   5.041
85978SOL    HW259832   3.155   9.461   4.940
85979SOL     OW59833   5.883   7.073  11.152
85979SOL    HW159834   5.870   7.156  11.197
85979SOL    HW259835   5.835   7.009  11.205
85980SOL     OW59836   1.084  14.479   3.469
85980SOL    HW159837   0.996  14.467   3.504
85980SOL    HW259838   1.093  14.574   3.457
85981SOL     OW59839   8.728   2.817  11.746
85981SOL    HW159840   8.652   2.849  11.697
85981SOL    HW259841   8.694   2.801  11.835
85982SOL     OW59842  10.793   8.351  12.136
85982SOL    HW159843  10.854   8.302  12.081
85982SOL    HW259844  10.766   8.425  12.082
85983SOL     OW59845   4.261   5.115   9.973
85983SOL    HW159846   4.274   5.162   9.891
85983SOL    HW259847   4.347   5.080   9.995
85984SOL     OW59848   2.862   0.665  11.641
85984SOL    HW159849   2.934   0.683  11.580
85984SOL    HW259850   2.885   0.583  11.682
85985SOL     OW59851   0.675   5.074  10.926
85985SOL    HW159852   0.624   5.139  10.974
85985SOL    HW259853   0.617   5.045  10.855
85986SOL     OW59854   2.470   2.960   0.915
85986SOL    HW159855   2.509   2.923   0.995
85986SOL    HW259856   2.534   2.940   0.847
85987SOL     OW59857   6.942   0.119   7.602
85987SOL    HW159858   6.902   0.180   7.665
85987SOL    HW259859   6.974   0.047   7.656
85988SOL     OW59860  13.694   7.396   6.992
85988SOL    HW159861  13.666   7.487   6.999
85988SOL    HW259862  13.778   7.392   7.038
85989SOL     OW59863   0.121  13.184  14.049
85989SOL    HW159864   0.130  13.104  14.100
85989SOL    HW259865   0.190  13.178  13.982
85990SOL     OW59866  10.174   5.361   7.507
85990SOL    HW159867  10.103   5.297   7.517
85990SOL    HW259868  10.221   5.357   7.590
85991SOL     OW59869  13.114   4.722   6.273
85991SOL    HW159870  13.049   4.652   6.279
85991SOL    HW259871  13.066   4.802   6.291
85992SOL     OW59872   0.956   6.958   2.995
85992SOL    HW159873   0.889   6.954   3.063
85992SOL    HW259874   1.027   6.903   3.028
85993SOL     OW59875   1.583   6.725   6.198
85993SOL    HW159876   1.539   6.646   6.229
85993SOL    HW259877   1.659   6.734   6.255
85994SOL     OW59878  13.530   0.880  13.101
85994SOL    HW159879  13.598   0.878  13.034
85994SOL    HW259880  13.450   0.902  13.054
85995SOL     OW59881   9.119   2.654   1.124
85995SOL    HW159882   9.119   2.683   1.032
85995SOL    HW259883   9.155   2.566   1.121
85996SOL     OW59884  12.913   5.285  10.895
85996SOL    HW159885  12.952   5.372  10.886
85996SOL    HW259886  12.961   5.231  10.832
85997SOL     OW59887   3.118  14.306  11.630
85997SOL    HW159888   3.209  14.291  11.656
85997SOL    HW259889   3.106  14.401  11.635
85998SOL     OW59890  13.060   6.781  13.091
85998SOL    HW159891  13.153   6.759  13.087
85998SOL    HW259892  13.058   6.866  13.135
85999SOL     OW59893  11.873  12.314  14.350
85999SOL    HW159894  11.800  12.319  14.411
85999SOL    HW259895  11.865  12.227  14.310
86000SOL     OW59896   4.647   1.034   5.826
86000SOL    HW159897   4.618   0.968   5.889
86000SOL    HW259898   4.609   1.116   5.857
86001SOL     OW59899   3.051  10.060  13.472
86001SOL    HW159900   3.081  10.149  13.493
86001SOL    HW259901   2.998  10.071  13.393
86002SOL     OW59902   1.812   1.996  12.910
86002SOL    HW159903   1.729   1.952  12.891
86002SOL    HW259904   1.869   1.928  12.944
86003SOL     OW59905   8.946   7.224   4.415
86003SOL    HW159906   8.961   7.317   4.430
86003SOL    HW259907   9.004   7.180   4.477
86004SOL     OW59908   6.837   2.122  12.799
86004SOL    HW159909   6.873   2.044  12.842
86004SOL    HW259910   6.752   2.094  12.764
86005SOL     OW59911  14.605   2.384   6.350
86005SOL    HW159912  14.518   2.358   6.380
86005SOL    HW259913  14.626   2.322   6.280
86006SOL     OW59914   6.710  13.552  14.865
86006SOL    HW159915   6.669  13.484  14.811
86006SOL    HW259916   6.804  13.534  14.859
86007SOL     OW59917  10.292   6.776   6.672
86007SOL    HW159918  10.219   6.832   6.696
86007SOL    HW259919  10.362   6.836   6.648
86008SOL     OW59920   9.034  10.335   6.355
86008SOL    HW159921   9.028  10.380   6.439
86008SOL    HW259922   8.944  10.306   6.337
86009SOL     OW59923  12.463   1.313   4.691
86009SOL    HW159924  12.403   1.242   4.667
86009SOL    HW259925  12.531   1.270   4.743
86010SOL     OW59926   8.792   3.084   9.019
86010SOL    HW159927   8.764   3.168   8.985
86010SOL    HW259928   8.875   3.066   8.973
86011SOL     OW59929   6.249   0.057  10.953
86011SOL    HW159930   6.154   0.065  10.965
86011SOL    HW259931   6.281   0.025  11.038
86012SOL     OW59932   9.045   2.857  13.106
86012SOL    HW159933   9.117   2.900  13.061
86012SOL    HW259934   9.019   2.786  13.048
86013SOL     OW59935  13.019   0.750  10.560
86013SOL    HW159936  13.030   0.655  10.559
86013SOL    HW259937  13.089   0.782  10.617
86014SOL     OW59938   4.117   0.231  11.292
86014SOL    HW159939   4.202   0.197  11.264
86014SOL    HW259940   4.136   0.276  11.374
86015SOL     OW59941   3.593   7.499   3.174
86015SOL    HW159942   3.548   7.470   3.094
86015SOL    HW259943   3.526   7.547   3.223
86016SOL     OW59944   5.146  12.607   1.445
86016SOL    HW159945   5.099  12.588   1.525
86016SOL    HW259946   5.151  12.523   1.399
86017SOL     OW59947  11.961   7.234  13.098
86017SOL    HW159948  11.959   7.297  13.026
86017SOL    HW259949  11.968   7.149  13.055
86018SOL     OW59950   2.235   4.232   6.309
86018SOL    HW159951   2.238   4.185   6.392
86018SOL    HW259952   2.214   4.164   6.244
86019SOL     OW59953  12.872  13.574   0.531
86019SOL    HW159954  12.904  13.664   0.531
86019SOL    HW259955  12.901  13.538   0.447
86020SOL     OW59956   7.345   8.455   6.537
86020SOL    HW159957   7.326   8.548   6.553
86020SOL    HW259958   7.309   8.437   6.451
86021SOL     OW59959  10.082  14.249  10.910
86021SOL    HW159960  10.091  14.266  11.004
86021SOL    HW259961  10.054  14.157  10.904
86022SOL     OW59962  11.466   1.212   3.679
86022SOL    HW159963  11.455   1.189   3.587
86022SOL    HW259964  11.561   1.212   3.693
86023SOL     OW59965   8.310   5.172   7.970
86023SOL    HW159966   8.269   5.161   8.056
86023SOL    HW259967   8.267   5.248   7.932
86024SOL     OW59968   4.359  13.509  14.410
86024SOL    HW159969   4.330  13.418  14.417
86024SOL    HW259970   4.281  13.557  14.381
86025SOL     OW59971  14.586  12.891   1.062
86025SOL    HW159972  14.554  12.978   1.087
86025SOL    HW259973  14.577  12.889   0.967
86026SOL     OW59974   2.838   7.260  13.245
86026SOL    HW159975   2.922   7.217  13.229
86026SOL    HW259976   2.857   7.324  13.313
86027SOL     OW59977  11.709   5.055   6.952
86027SOL    HW159978  11.679   5.049   7.043
86027SOL    HW259979  11.802   5.035   6.956
86028SOL     OW59980   9.518   6.134   4.845
86028SOL    HW159981   9.609   6.161   4.860
86028SOL    HW259982   9.508   6.137   4.749
86029SOL     OW59983   9.292  10.794   6.360
86029SOL    HW159984   9.297  10.792   6.456
86029SOL    HW259985   9.207  10.834   6.341
86030SOL     OW59986   9.396   3.230   3.147
86030SOL    HW159987   9.311   3.257   3.112
86030SOL    HW259988   9.418   3.150   3.099
86031SOL     OW59989   8.331   9.485   9.364
86031SOL    HW159990   8.313   9.541   9.440
86031SOL    HW259991   8.343   9.547   9.292
86032SOL     OW59992  12.024   9.861   3.967
86032SOL    HW159993  12.097   9.838   3.910
86032SOL    HW259994  12.027   9.796   4.038
86033SOL     OW59995  12.063   3.111   3.817
86033SOL    HW159996  11.977   3.094   3.779
86033SOL    HW259997  12.065   3.057   3.896
86034SOL     OW59998  14.074   8.699   4.639
86034SOL    HW159999  14.029   8.779   4.610
86034SOL    HW260000  14.133   8.678   4.567
86035SOL     OW60001   7.916   0.629  14.668
86035SOL    HW160002   7.984   0.623  14.735
86035SOL    HW260003   7.852   0.690  14.704
86036SOL     OW60004   2.200   2.625   8.492
86036SOL    HW160005   2.176   2.533   8.487
86036SOL    HW260006   2.183   2.649   8.583
86037SOL     OW60007   6.946   1.006  10.477
86037SOL    HW160008   7.022   1.064  10.472
86037SOL    HW260009   6.938   0.985  10.570
86038SOL     OW60010   8.504   3.126   4.773
86038SOL    HW160011   8.433   3.183   4.745
86038SOL    HW260012   8.528   3.077   4.694
86039SOL     OW60013   2.493  11.493   4.661
86039SOL    HW160014   2.432  11.419   4.653
86039SOL    HW260015   2.573  11.463   4.619
86040SOL     OW60016  11.529   6.878  12.925
86040SOL    HW160017  11.470   6.920  12.863
86040SOL    HW260018  11.613   6.871  12.878
86041SOL     OW60019   4.547  10.902  11.881
86041SOL    HW160020   4.620  10.840  11.878
86041SOL    HW260021   4.488  10.865  11.947
86042SOL     OW60022   2.018  14.831   7.173
86042SOL    HW160023   1.943  14.834   7.113
86042SOL    HW260024   2.040   0.041   7.187
86043SOL     OW60025   1.930  13.294   0.733
86043SOL    HW160026   2.005  13.240   0.757
86043SOL    HW260027   1.957  13.383   0.756
86044SOL     OW60028   5.364  11.936  11.318
86044SOL    HW160029   5.372  11.850  11.357
86044SOL    HW260030   5.328  11.992  11.387
86045SOL     OW60031   0.938  13.127   4.576
86045SOL    HW160032   0.892  13.210   4.580
86045SOL    HW260033   0.892  13.070   4.638
86046SOL     OW60034  14.039  11.410  12.572
86046SOL    HW160035  13.970  11.412  12.638
86046SOL    HW260036  14.058  11.317  12.560
86047SOL     OW60037   2.182   5.940   4.194
86047SOL    HW160038   2.178   5.999   4.119
86047SOL    HW260039   2.142   5.859   4.163
86048SOL     OW60040   8.373  12.124  14.180
86048SOL    HW160041   8.394  12.037  14.215
86048SOL    HW260042   8.386  12.116  14.086
86049SOL     OW60043   7.759  11.950   8.121
86049SOL    HW160044   7.757  12.046   8.113
86049SOL    HW260045   7.798  11.934   8.207
86050SOL     OW60046   8.438   8.428  10.105
86050SOL    HW160047   8.397   8.416  10.191
86050SOL    HW260048   8.374   8.477  10.054
86051SOL     OW60049   7.617  11.719   7.589
86051SOL    HW160050   7.700  11.683   7.556
86051SOL    HW260051   7.589  11.657   7.656
86052SOL     OW60052   8.945  14.459   2.198
86052SOL    HW160053   8.878  14.392   2.182
86052SOL    HW260054   9.021  14.429   2.149
86053SOL     OW60055   1.583  11.107   7.730
86053SOL    HW160056   1.519  11.036   7.721
86053SOL    HW260057   1.663  11.071   7.691
86054SOL     OW60058  12.469  11.804   4.113
86054SOL    HW160059  12.515  11.862   4.053
86054SOL    HW260060  12.445  11.728   4.060
86055SOL     OW60061   1.197   4.653   1.895
86055SOL    HW160062   1.104   4.669   1.883
86055SOL    HW260063   1.229   4.728   1.945
86056SOL     OW60064   2.700   3.966  13.897
86056SOL    HW160065   2.757   3.953  13.973
86056SOL    HW260066   2.644   3.888  13.895
86057SOL     OW60067   5.608  12.820   9.722
86057SOL    HW160068   5.685  12.797   9.773
86057SOL    HW260069   5.640  12.834   9.633
86058SOL     OW60070   7.586  13.750  11.491
86058SOL    HW160071   7.655  13.739  11.425
86058SOL    HW260072   7.527  13.676  11.476
86059SOL     OW60073   6.644   2.687  12.530
86059SOL    HW160074   6.615   2.599  12.554
86059SOL    HW260075   6.739   2.683  12.534
86060SOL     OW60076  11.164  14.651   5.002
86060SOL    HW160077  11.137  14.693   5.084
86060SOL    HW260078  11.113  14.696   4.935
86061SOL     OW60079   5.664   4.307   4.854
86061SOL    HW160080   5.631   4.298   4.765
86061SOL    HW260081   5.742   4.252   4.856
86062SOL     OW60082  10.309   9.670   2.089
86062SOL    HW160083  10.330   9.687   1.997
86062SOL    HW260084  10.332   9.579   2.102
86063SOL     OW60085   8.485   5.177   9.506
86063SOL    HW160086   8.502   5.268   9.482
86063SOL    HW260087   8.392   5.164   9.488
86064SOL     OW60088   2.916  11.855   7.747
86064SOL    HW160089   2.911  11.935   7.696
86064SOL    HW260090   2.892  11.882   7.836
86065SOL     OW60091  14.707   9.025   4.817
86065SOL    HW160092  14.711   9.007   4.723
86065SOL    HW260093  14.797   9.043   4.843
86066SOL     OW60094   7.559   5.180   5.086
86066SOL    HW160095   7.608   5.196   5.005
86066SOL    HW260096   7.509   5.101   5.068
86067SOL     OW60097  11.909  11.537   5.812
86067SOL    HW160098  11.944  11.573   5.894
86067SOL    HW260099  11.937  11.445   5.812
86068SOL     OW60100   7.245   1.996   0.183
86068SOL    HW160101   7.232   2.015   0.090
86068SOL    HW260102   7.325   2.043   0.206
86069SOL     OW60103  12.209   5.299   6.543
86069SOL    HW160104  12.297   5.277   6.575
86069SOL    HW260105  12.160   5.320   6.622
86070SOL     OW60106   3.527  10.484   4.032
86070SOL    HW160107   3.611  10.524   4.007
86070SOL    HW260108   3.525  10.493   4.128
86071SOL     OW60109  12.657  14.626   4.756
86071SOL    HW160110  12.712  14.684   4.703
86071SOL    HW260111  12.607  14.574   4.692
86072SOL     OW60112   3.982   5.817  14.730
86072SOL    HW160113   3.981   5.866  14.647
86072SOL    HW260114   3.977   5.885  14.797
86073SOL     OW60115  11.805  10.304   7.089
86073SOL    HW160116  11.721  10.349   7.096
86073SOL    HW260117  11.799  10.253   7.008
86074SOL     OW60118  11.394  13.613  12.578
86074SOL    HW160119  11.440  13.616  12.662
86074SOL    HW260120  11.399  13.702  12.544
86075SOL     OW60121   8.928   8.964   1.348
86075SOL    HW160122   8.923   8.993   1.257
86075SOL    HW260123   8.857   9.010   1.392
86076SOL     OW60124   5.568   9.869   3.804
86076SOL    HW160125   5.622   9.948   3.809
86076SOL    HW260126   5.499   9.891   3.742
86077SOL     OW60127  10.620   0.347   3.378
86077SOL    HW160128  10.593   0.257   3.392
86077SOL    HW260129  10.704   0.355   3.423
86078SOL     OW60130   3.162   9.470   0.603
86078SOL    HW160131   3.167   9.563   0.579
86078SOL    HW260132   3.129   9.427   0.525
86079SOL     OW60133   8.457   6.558   3.540
86079SOL    HW160134   8.474   6.637   3.591
86079SOL    HW260135   8.510   6.490   3.581
86080SOL     OW60136   2.496  10.658   2.770
86080SOL    HW160137   2.439  10.649   2.846
86080SOL    HW260138   2.529  10.570   2.754
86081SOL     OW60139  14.779   2.928   3.561
86081SOL    HW160140  14.750   2.852   3.612
86081SOL    HW260141  14.703   2.952   3.508
86082SOL     OW60142   1.513   1.361  13.218
86082SOL    HW160143   1.497   1.374  13.312
86082SOL    HW260144   1.596   1.407  13.201
86083SOL     OW60145   3.179   6.988  13.350
86083SOL    HW160146   3.132   7.050  13.405
86083SOL    HW260147   3.151   6.902  13.381
86084SOL     OW60148  14.761   6.757  13.090
86084SOL    HW160149  14.827   6.699  13.127
86084SOL    HW260150  14.697   6.769  13.160
86085SOL     OW60151  12.634  11.850  11.282
86085SOL    HW160152  12.592  11.840  11.196
86085SOL    HW260153  12.566  11.888  11.337
86086SOL     OW60154   9.293   2.560  12.043
86086SOL    HW160155   9.235   2.631  12.016
86086SOL    HW260156   9.307   2.575  12.136
86087SOL     OW60157   7.077  14.449   0.280
86087SOL    HW160158   7.133  14.416   0.210
86087SOL    HW260159   6.989  14.449   0.242
86088SOL     OW60160   9.106  12.308  14.044
86088SOL    HW160161   9.037  12.253  14.081
86088SOL    HW260162   9.060  12.367  13.984
86089SOL     OW60163  14.810   1.355   9.195
86089SOL    HW160164  14.749   1.290   9.232
86089SOL    HW260165  14.870   1.303   9.141
86090SOL     OW60166   3.279   9.622   9.190
86090SOL    HW160167   3.202   9.644   9.138
86090SOL    HW260168   3.263   9.532   9.218
86091SOL     OW60169  11.466   7.309   0.427
86091SOL    HW160170  11.385   7.351   0.455
86091SOL    HW260171  11.531   7.336   0.492
86092SOL     OW60172  14.544  14.449   2.128
86092SOL    HW160173  14.535  14.406   2.213
86092SOL    HW260174  14.592  14.529   2.147
86093SOL     OW60175   3.677  13.006   6.524
86093SOL    HW160176   3.595  12.968   6.493
86093SOL    HW260177   3.679  12.984   6.618
86094SOL     OW60178   9.919   3.541  12.772
86094SOL    HW160179   9.854   3.472  12.762
86094SOL    HW260180  10.002   3.495  12.784
86095SOL     OW60181   6.730   1.449  12.199
86095SOL    HW160182   6.815   1.452  12.244
86095SOL    HW260183   6.720   1.537  12.162
86096SOL     OW60184   5.793   6.179  14.115
86096SOL    HW160185   5.746   6.197  14.196
86096SOL    HW260186   5.880   6.150  14.143
86097SOL     OW60187   1.577   6.582   2.196
86097SOL    HW160188   1.632   6.653   2.162
86097SOL    HW260189   1.500   6.627   2.232
86098SOL     OW60190   9.067   9.496   3.111
86098SOL    HW160191   9.162   9.481   3.108
86098SOL    HW260192   9.029   9.417   3.073
86099SOL     OW60193   3.963  11.733  13.485
86099SOL    HW160194   3.947  11.639  13.482
86099SOL    HW260195   4.055  11.742  13.459
86100SOL     OW60196   4.952   0.240   7.596
86100SOL    HW160197   5.024   0.183   7.568
86100SOL    HW260198   4.929   0.208   7.684
86101SOL     OW60199  13.513   0.506   2.257
86101SOL    HW160200  13.449   0.438   2.237
86101SOL    HW260201  13.563   0.516   2.176
86102SOL     OW60202   9.103  10.257  14.042
86102SOL    HW160203   9.129  10.229  13.954
86102SOL    HW260204   9.185  10.269  14.089
86103SOL     OW60205  11.693  14.596   5.207
86103SOL    HW160206  11.608  14.638   5.193
86103SOL    HW260207  11.756  14.668   5.204
86104SOL     OW60208  11.876   7.579  10.533
86104SOL    HW160209  11.882   7.625  10.449
86104SOL    HW260210  11.829   7.498  10.513
86105SOL     OW60211   7.123   2.269   0.233
86105SOL    HW160212   7.171   2.349   0.213
86105SOL    HW260213   7.185   2.216   0.283
86106SOL     OW60214   4.152   4.450  14.113
86106SOL    HW160215   4.081   4.423  14.171
86106SOL    HW260216   4.231   4.436  14.166
86107SOL     OW60217   0.603  14.551  11.700
86107SOL    HW160218   0.558  14.491  11.760
86107SOL    HW260219   0.682  14.577  11.747
86108SOL     OW60220   5.071   0.850   1.040
86108SOL    HW160221   5.143   0.797   1.003
86108SOL    HW260222   5.020   0.876   0.964
86109SOL     OW60223   4.175   8.214   6.837
86109SOL    HW160224   4.241   8.204   6.768
86109SOL    HW260225   4.175   8.130   6.883
86110SOL     OW60226  13.241   5.717   6.506
86110SOL    HW160227  13.307   5.673   6.452
86110SOL    HW260228  13.291   5.779   6.559
86111SOL     OW60229  13.996  10.627  10.040
86111SOL    HW160230  14.028  10.672  10.118
86111SOL    HW260231  14.025  10.537  10.050
86112SOL     OW60232  13.436  12.631   0.170
86112SOL    HW160233  13.439  12.726   0.155
86112SOL    HW260234  13.515  12.597   0.128
86113SOL     OW60235   9.345  13.149   3.895
86113SOL    HW160236   9.332  13.244   3.901
86113SOL    HW260237   9.320  13.116   3.981
86114SOL     OW60238   4.776  12.012   3.549
86114SOL    HW160239   4.772  11.940   3.612
86114SOL    HW260240   4.727  11.981   3.473
86115SOL     OW60241   8.799   4.001   0.336
86115SOL    HW160242   8.796   4.097   0.339
86115SOL    HW260243   8.882   3.978   0.378
86116SOL     OW60244   0.042  11.212   9.857
86116SOL    HW160245   0.131  11.244   9.841
86116SOL    HW260246   0.034  11.211   9.952
86117SOL     OW60247  13.885   2.807   2.888
86117SOL    HW160248  13.956   2.871   2.880
86117SOL    HW260249  13.805   2.857   2.871
86118SOL     OW60250   1.097   7.243  10.631
86118SOL    HW160251   1.155   7.296  10.685
86118SOL    HW260252   1.010   7.282  10.643
86119SOL     OW60253  11.621  11.494   7.038
86119SOL    HW160254  11.564  11.568   7.062
86119SOL    HW260255  11.580  11.418   7.078
86120SOL     OW60256  13.361  13.397   7.816
86120SOL    HW160257  13.392  13.341   7.745
86120SOL    HW260258  13.266  13.397   7.807
86121SOL     OW60259   9.989   6.550  11.218
86121SOL    HW160260  10.043   6.489  11.168
86121SOL    HW260261  10.049   6.587  11.283
86122SOL     OW60262   2.507  14.649   7.581
86122SOL    HW160263   2.514  14.674   7.489
86122SOL    HW260264   2.530  14.556   7.582
86123SOL     OW60265  13.497  10.257  14.651
86123SOL    HW160266  13.505  10.181  14.709
86123SOL    HW260267  13.565  10.244  14.585
86124SOL     OW60268   9.583  12.419  14.603
86124SOL    HW160269   9.569  12.461  14.689
86124SOL    HW260270   9.526  12.467  14.544
86125SOL     OW60271  14.540   7.360   9.705
86125SOL    HW160272  14.585   7.281   9.733
86125SOL    HW260273  14.574   7.429   9.763
86126SOL     OW60274   5.019   5.007   7.625
86126SOL    HW160275   5.066   5.015   7.542
86126SOL    HW260276   5.034   4.916   7.652
86127SOL     OW60277   2.457  13.398   0.795
86127SOL    HW160278   2.401  13.386   0.872
86127SOL    HW260279   2.408  13.357   0.723
86128SOL     OW60280  12.672   8.196   9.403
86128SOL    HW160281  12.670   8.124   9.467
86128SOL    HW260282  12.580   8.212   9.382
86129SOL     OW60283  11.892   5.570  10.835
86129SOL    HW160284  11.947   5.645  10.858
86129SOL    HW260285  11.852   5.544  10.917
86130SOL     OW60286  13.672   7.946   2.168
86130SOL    HW160287  13.637   7.900   2.091
86130SOL    HW260288  13.752   7.988   2.137
86131SOL     OW60289   2.257   4.837   5.430
86131SOL    HW160290   2.211   4.775   5.486
86131SOL    HW260291   2.211   4.833   5.346
86132SOL     OW60292  11.598  10.034   6.491
86132SOL    HW160293  11.536   9.962   6.507
86132SOL    HW260294  11.638  10.013   6.407
86133SOL     OW60295  12.554   1.762   9.753
86133SOL    HW160296  12.507   1.750   9.671
86133SOL    HW260297  12.489   1.743   9.821
86134SOL     OW60298   2.732  10.887   7.990
86134SOL    HW160299   2.791  10.919   7.922
86134SOL    HW260300   2.761  10.931   8.070
86135SOL     OW60301   7.321  13.871   8.244
86135SOL    HW160302   7.404  13.856   8.199
86135SOL    HW260303   7.338  13.947   8.300
86136SOL     OW60304   6.414   1.742  11.240
86136SOL    HW160305   6.375   1.668  11.194
86136SOL    HW260306   6.490   1.766  11.188
86137SOL     OW60307   7.952  10.437   0.234
86137SOL    HW160308   7.905  10.500   0.289
86137SOL    HW260309   8.019  10.401   0.291
86138SOL     OW60310   1.719   1.586   5.572
86138SOL    HW160311   1.677   1.651   5.629
86138SOL    HW260312   1.813   1.600   5.585
86139SOL     OW60313   3.487  12.369   6.636
86139SOL    HW160314   3.491  12.461   6.661
86139SOL    HW260315   3.400  12.359   6.596
86140SOL     OW60316  12.979   4.487   0.701
86140SOL    HW160317  13.054   4.505   0.757
86140SOL    HW260318  13.017   4.456   0.619
86141SOL     OW60319   9.711  12.274  10.280
86141SOL    HW160320   9.617  12.278  10.299
86141SOL    HW260321   9.727  12.348  10.221
86142SOL     OW60322   2.845   3.167  13.505
86142SOL    HW160323   2.902   3.101  13.545
86142SOL    HW260324   2.762   3.121  13.492
86143SOL     OW60325  12.970   2.305   2.005
86143SOL    HW160326  12.913   2.352   2.066
86143SOL    HW260327  13.036   2.369   1.980
86144SOL     OW60328  12.053   6.319   4.088
86144SOL    HW160329  12.020   6.255   4.152
86144SOL    HW260330  11.991   6.392   4.093
86145SOL     OW60331  12.415   4.732   4.799
86145SOL    HW160332  12.495   4.680   4.807
86145SOL    HW260333  12.357   4.676   4.746
86146SOL     OW60334  13.532   5.640  11.865
86146SOL    HW160335  13.457   5.594  11.902
86146SOL    HW260336  13.560   5.586  11.791
86147SOL     OW60337   4.275  13.359  11.941
86147SOL    HW160338   4.252  13.266  11.945
86147SOL    HW260339   4.246  13.388  11.855
86148SOL     OW60340   3.066  13.378  14.779
86148SOL    HW160341   3.128  13.341  14.842
86148SOL    HW260342   3.017  13.444  14.828
86149SOL     OW60343   0.729  11.387   5.819
86149SOL    HW160344   0.796  11.332   5.779
86149SOL    HW260345   0.769  11.419   5.900
86150SOL     OW60346  13.503   9.806  13.266
86150SOL    HW160347  13.415   9.809  13.227
86150SOL    HW260348  13.505   9.722  13.313
86151SOL     OW60349   1.197   7.613   0.363
86151SOL    HW160350   1.122   7.639   0.418
86151SOL    HW260351   1.174   7.645   0.276
86152SOL     OW60352   9.914   7.024  13.909
86152SOL    HW160353  10.003   7.024  13.944
86152SOL    HW260354   9.857   7.015  13.986
86153SOL     OW60355   4.397  12.624   3.578
86153SOL    HW160356   4.360  12.709   3.602
86153SOL    HW260357   4.449  12.599   3.655
86154SOL     OW60358   5.616   8.213  12.035
86154SOL    HW160359   5.543   8.275  12.042
86154SOL    HW260360   5.651   8.227  11.947
86155SOL     OW60361   8.008  14.321   2.052
86155SOL    HW160362   8.057  14.403   2.049
86155SOL    HW260363   8.057  14.266   2.113
86156SOL     OW60364   8.901   9.474   0.103
86156SOL    HW160365   8.938   9.393   0.138
86156SOL    HW260366   8.949   9.544   0.148
86157SOL     OW60367   2.423   2.621  10.609
86157SOL    HW160368   2.512   2.628  10.573
86157SOL    HW260369   2.371   2.583  10.538
86158SOL     OW60370   6.501   1.882   0.759
86158SOL    HW160371   6.591   1.850   0.763
86158SOL    HW260372   6.449   1.803   0.744
86159SOL     OW60373   2.930  13.483   0.848
86159SOL    HW160374   2.854  13.518   0.802
86159SOL    HW260375   2.982  13.440   0.780
86160SOL     OW60376  13.906  14.108   2.895
86160SOL    HW160377  13.943  14.183   2.941
86160SOL    HW260378  13.982  14.054   2.871
86161SOL     OW60379   0.013   6.934  11.913
86161SOL    HW160380  14.833   6.895  11.851
86161SOL    HW260381   0.099   6.923  11.872
86162SOL     OW60382   7.502  13.423   7.620
86162SOL    HW160383   7.471  13.458   7.703
86162SOL    HW260384   7.597  13.431   7.625
86163SOL     OW60385   8.033  11.941   6.334
86163SOL    HW160386   8.052  11.980   6.249
86163SOL    HW260387   8.069  11.853   6.329
86164SOL     OW60388  12.286  11.826  14.651
86164SOL    HW160389  12.281  11.791  14.562
86164SOL    HW260390  12.333  11.909  14.641
86165SOL     OW60391   3.273   2.707   7.071
86165SOL    HW160392   3.321   2.790   7.072
86165SOL    HW260393   3.303   2.663   6.992
86166SOL     OW60394  10.170   6.337  11.479
86166SOL    HW160395  10.223   6.321  11.558
86166SOL    HW260396  10.080   6.339  11.511
86167SOL     OW60397  12.832   5.728   6.603
86167SOL    HW160398  12.854   5.675   6.526
86167SOL    HW260399  12.913   5.731   6.654
86168SOL     OW60400   2.289  12.975   2.362
86168SOL    HW160401   2.340  13.007   2.436
86168SOL    HW260402   2.247  12.895   2.394
86169SOL     OW60403   3.968   4.602  12.915
86169SOL    HW160404   3.899   4.580  12.853
86169SOL    HW260405   4.044   4.551  12.886
86170SOL     OW60406   9.044   0.663   1.378
86170SOL    HW160407   9.061   0.669   1.284
86170SOL    HW260408   8.965   0.716   1.391
86171SOL     OW60409   6.030   9.973   2.626
86171SOL    HW160410   6.002  10.006   2.541
86171SOL    HW260411   6.060   9.884   2.609
86172SOL     OW60412   7.105  12.927  11.177
86172SOL    HW160413   7.128  12.962  11.091
86172SOL    HW260414   7.112  12.832  11.167
86173SOL     OW60415  12.510  10.554   9.748
86173SOL    HW160416  12.528  10.643   9.719
86173SOL    HW260417  12.504  10.560   9.844
86174SOL     OW60418   9.561   5.560   8.059
86174SOL    HW160419   9.538   5.609   8.138
86174SOL    HW260420   9.526   5.472   8.074
86175SOL     OW60421   4.887   1.764  10.909
86175SOL    HW160422   4.940   1.797  10.981
86175SOL    HW260423   4.949   1.721  10.851
86176SOL     OW60424  12.791   4.118  10.159
86176SOL    HW160425  12.814   4.031  10.127
86176SOL    HW260426  12.871   4.170  10.147
86177SOL     OW60427  10.583   3.521   4.275
86177SOL    HW160428  10.673   3.489   4.272
86177SOL    HW260429  10.532   3.448   4.309
86178SOL     OW60430  13.320   3.880   3.014
86178SOL    HW160431  13.267   3.902   2.937
86178SOL    HW260432  13.314   3.784   3.020
86179SOL     OW60433  13.845   0.055  11.580
86179SOL    HW160434  13.800  14.853  11.581
86179SOL    HW260435  13.926   0.038  11.531
86180SOL     OW60436   9.325   5.906   7.939
86180SOL    HW160437   9.278   5.987   7.922
86180SOL    HW260438   9.410   5.919   7.896
86181SOL     OW60439  13.704   3.272   1.382
86181SOL    HW160440  13.665   3.188   1.357
86181SOL    HW260441  13.704   3.270   1.478
86182SOL     OW60442   5.668   0.655   8.972
86182SOL    HW160443   5.759   0.683   8.962
86182SOL    HW260444   5.672   0.576   9.026
86183SOL     OW60445  10.122  14.057   8.416
86183SOL    HW160446  10.187  14.126   8.404
86183SOL    HW260447  10.076  14.081   8.497
86184SOL     OW60448  12.978   3.895   7.372
86184SOL    HW160449  12.975   3.959   7.442
86184SOL    HW260450  12.899   3.912   7.320
86185SOL     OW60451  14.487   8.079   8.735
86185SOL    HW160452  14.554   8.137   8.770
86185SOL    HW260453  14.536   8.001   8.706
86186SOL     OW60454   2.608  10.488   3.817
86186SOL    HW160455   2.691  10.442   3.821
86186SOL    HW260456   2.613  10.554   3.886
86187SOL     OW60457   7.029   5.104   3.840
86187SOL    HW160458   6.995   5.122   3.752
86187SOL    HW260459   7.115   5.146   3.843
86188SOL     OW60460   9.555   0.937   5.096
86188SOL    HW160461   9.552   0.940   5.192
86188SOL    HW260462   9.541   0.844   5.075
86189SOL     OW60463   4.306   2.593   3.197
86189SOL    HW160464   4.243   2.653   3.238
86189SOL    HW260465   4.357   2.559   3.271
86190SOL     OW60466  13.502  10.259   7.664
86190SOL    HW160467  13.530  10.206   7.589
86190SOL    HW260468  13.574  10.253   7.726
86191SOL     OW60469  11.788   1.273   4.020
86191SOL    HW160470  11.879   1.244   4.024
86191SOL    HW260471  11.790   1.363   4.052
86192SOL     OW60472   0.113   3.844  11.018
86192SOL    HW160473   0.155   3.777  10.965
86192SOL    HW260474   0.028   3.806  11.042
86193SOL     OW60475   2.452  13.313  12.544
86193SOL    HW160476   2.422  13.403  12.549
86193SOL    HW260477   2.466  13.297  12.451
86194SOL     OW60478   7.543   3.802   3.512
86194SOL    HW160479   7.617   3.819   3.454
86194SOL    HW260480   7.552   3.709   3.535
86195SOL     OW60481   7.803  14.868   5.782
86195SOL    HW160482   7.842  14.799   5.836
86195SOL    HW260483   7.789   0.058   5.843
86196SOL     OW60484   8.053   9.182   3.524
86196SOL    HW160485   8.021   9.102   3.482
86196SOL    HW260486   7.983   9.206   3.585
86197SOL     OW60487   8.288   4.601   8.640
86197SOL    HW160488   8.337   4.542   8.698
86197SOL    HW260489   8.317   4.689   8.665
86198SOL     OW60490   1.976  12.000   3.496
86198SOL    HW160491   1.900  12.010   3.438
86198SOL    HW260492   2.037  12.068   3.467
86199SOL     OW60493  11.954   8.817   6.850
86199SOL    HW160494  11.884   8.878   6.826
86199SOL    HW260495  11.924   8.733   6.817
86200SOL     OW60496   9.765   3.537   1.901
86200SOL    HW160497   9.691   3.592   1.926
86200SOL    HW260498   9.727   3.452   1.881
86201SOL     OW60499   7.875  10.142   6.445
86201SOL    HW160500   7.900  10.234   6.440
86201SOL    HW260501   7.911  10.112   6.528
86202SOL     OW60502  12.630  14.162  12.895
86202SOL    HW160503  12.655  14.148  12.804
86202SOL    HW260504  12.539  14.131  12.900
86203SOL     OW60505   6.278   7.701   1.447
86203SOL    HW160506   6.268   7.644   1.371
86203SOL    HW260507   6.373   7.711   1.458
86204SOL     OW60508  11.009  14.493  10.089
86204SOL    HW160509  10.945  14.560  10.062
86204SOL    HW260510  11.071  14.489  10.016
86205SOL     OW60511   3.108   5.063  10.110
86205SOL    HW160512   3.045   5.010  10.159
86205SOL    HW260513   3.158   5.109  10.177
86206SOL     OW60514   0.715   8.072   3.204
86206SOL    HW160515   0.806   8.048   3.218
86206SOL    HW260516   0.667   7.989   3.211
86207SOL     OW60517   6.845  11.516   2.101
86207SOL    HW160518   6.862  11.602   2.138
86207SOL    HW260519   6.783  11.533   2.029
86208SOL     OW60520   7.155   8.992  13.177
86208SOL    HW160521   7.102   9.020  13.102
86208SOL    HW260522   7.245   9.000  13.146
86209SOL     OW60523  13.421  13.985   5.977
86209SOL    HW160524  13.437  13.898   6.015
86209SOL    HW260525  13.328  14.001   5.993
86210SOL     OW60526   4.756  10.158   6.043
86210SOL    HW160527   4.824  10.094   6.064
86210SOL    HW260528   4.710  10.121   5.968
86211SOL     OW60529   3.576  10.409  14.035
86211SOL    HW160530   3.590  10.489  14.087
86211SOL    HW260531   3.662  10.389  13.999
86212SOL     OW60532  10.667   2.931   1.804
86212SOL    HW160533  10.701   2.883   1.728
86212SOL    HW260534  10.737   2.991   1.828
86213SOL     OW60535   5.084   7.249   8.919
86213SOL    HW160536   5.178   7.238   8.908
86213SOL    HW260537   5.050   7.160   8.931
86214SOL     OW60538   4.823  13.953   5.587
86214SOL    HW160539   4.743  13.947   5.535
86214SOL    HW260540   4.798  13.918   5.673
86215SOL     OW60541   3.552   6.846   3.927
86215SOL    HW160542   3.484   6.847   3.994
86215SOL    HW260543   3.612   6.778   3.955
86216SOL     OW60544  11.900   4.551   0.950
86216SOL    HW160545  11.985   4.554   0.906
86216SOL    HW260546  11.837   4.576   0.883
86217SOL     OW60547   6.318  14.197   1.646
86217SOL    HW160548   6.408  14.165   1.639
86217SOL    HW260549   6.272  14.129   1.696
86218SOL     OW60550   1.576   3.870   3.858
86218SOL    HW160551   1.486   3.892   3.882
86218SOL    HW260552   1.630   3.924   3.915
86219SOL     OW60553  13.894  10.614   0.283
86219SOL    HW160554  13.947  10.548   0.327
86219SOL    HW260555  13.818  10.565   0.250
86220SOL     OW60556   4.702   7.773   8.251
86220SOL    HW160557   4.744   7.728   8.325
86220SOL    HW260558   4.775   7.814   8.205
86221SOL     OW60559   7.830  10.010  11.623
86221SOL    HW160560   7.856   9.919  11.636
86221SOL    HW260561   7.907  10.060  11.650
86222SOL     OW60562   2.838   3.012   9.599
86222SOL    HW160563   2.850   3.103   9.573
86222SOL    HW260564   2.915   2.992   9.653
86223SOL     OW60565   9.858   7.588  13.879
86223SOL    HW160566   9.833   7.538  13.957
86223SOL    HW260567   9.775   7.613  13.838
86224SOL     OW60568  11.417   1.116   3.936
86224SOL    HW160569  11.426   1.119   3.841
86224SOL    HW260570  11.324   1.104   3.952
86225SOL     OW60571  14.746   7.832   9.692
86225SOL    HW160572  14.788   7.821   9.777
86225SOL    HW260573  14.660   7.791   9.703
86226SOL     OW60574  10.344  12.050  12.637
86226SOL    HW160575  10.324  12.142  12.620
86226SOL    HW260576  10.340  12.008  12.552
86227SOL     OW60577   7.680  11.826   2.732
86227SOL    HW160578   7.662  11.914   2.765
86227SOL    HW260579   7.737  11.841   2.656
86228SOL     OW60580   3.568   2.648   9.682
86228SOL    HW160581   3.611   2.728   9.711
86228SOL    HW260582   3.475   2.671   9.678
86229SOL     OW60583   4.164   4.349   4.260
86229SOL    HW160584   4.122   4.405   4.325
86229SOL    HW260585   4.258   4.363   4.274
86230SOL     OW60586  10.124  11.359  13.169
86230SOL    HW160587  10.063  11.364  13.096
86230SOL    HW260588  10.176  11.440  13.163
86231SOL     OW60589   0.294  10.300  10.240
86231SOL    HW160590   0.288  10.394  10.226
86231SOL    HW260591   0.335  10.266  10.160
86232SOL     OW60592   2.709  11.194   0.917
86232SOL    HW160593   2.791  11.200   0.868
86232SOL    HW260594   2.651  11.143   0.861
86233SOL     OW60595  12.688   4.381  14.533
86233SOL    HW160596  12.777   4.400  14.562
86233SOL    HW260597  12.696   4.303  14.479
86234SOL     OW60598  11.598   2.673  14.044
86234SOL    HW160599  11.552   2.742  13.996
86234SOL    HW260600  11.689   2.703  14.045
86235SOL     OW60601   8.218  14.125   2.091
86235SOL    HW160602   8.224  14.145   2.185
86235SOL    HW260603   8.158  14.050   2.087
86236SOL     OW60604   1.772   7.836  10.894
86236SOL    HW160605   1.820   7.758  10.867
86236SOL    HW260606   1.756   7.883  10.813
86237SOL     OW60607  12.937   6.938   1.522
86237SOL    HW160608  12.948   6.851   1.483
86237SOL    HW260609  12.849   6.965   1.497
86238SOL     OW60610   7.741  11.966   5.677
86238SOL    HW160611   7.831  11.996   5.695
86238SOL    HW260612   7.690  12.047   5.669
86239SOL     OW60613   0.765   2.316   4.201
86239SOL    HW160614   0.736   2.307   4.292
86239SOL    HW260615   0.745   2.232   4.161
86240SOL     OW60616   9.078   4.589  12.009
86240SOL    HW160617   9.041   4.614  11.924
86240SOL    HW260618   9.122   4.506  11.992
86241SOL     OW60619   2.582   9.011   0.126
86241SOL    HW160620   2.612   9.042   0.211
86241SOL    HW260621   2.487   9.023   0.129
86242SOL     OW60622  11.385   8.223  13.979
86242SOL    HW160623  11.347   8.305  14.011
86242SOL    HW260624  11.429   8.248  13.898
86243SOL     OW60625   9.927   0.515   4.051
86243SOL    HW160626   9.879   0.572   4.111
86243SOL    HW260627   9.884   0.527   3.967
86244SOL     OW60628   2.647  14.870   6.229
86244SOL    HW160629   2.718  14.806   6.224
86244SOL    HW260630   2.569  14.818   6.246
86245SOL     OW60631  12.748  12.796   2.328
86245SOL    HW160632  12.726  12.731   2.261
86245SOL    HW260633  12.739  12.748   2.411
86246SOL     OW60634   8.627   3.700   1.521
86246SOL    HW160635   8.718   3.670   1.515
86246SOL    HW260636   8.587   3.673   1.439
86247SOL     OW60637  11.194   0.872   2.607
86247SOL    HW160638  11.191   0.890   2.514
86247SOL    HW260639  11.154   0.785   2.616
86248SOL     OW60640   4.263  13.104  11.267
86248SOL    HW160641   4.242  13.091  11.360
86248SOL    HW260642   4.352  13.071  11.258
86249SOL     OW60643   0.608  12.227   4.945
86249SOL    HW160644   0.533  12.193   4.993
86249SOL    HW260645   0.575  12.303   4.898
86250SOL     OW60646   4.862   0.565   0.204
86250SOL    HW160647   4.893   0.548   0.115
86250SOL    HW260648   4.912   0.505   0.259
86251SOL     OW60649  14.689  12.132   4.341
86251SOL    HW160650  14.777  12.129   4.379
86251SOL    HW260651  14.631  12.112   4.415
86252SOL     OW60652   6.866   3.214  12.352
86252SOL    HW160653   6.894   3.124  12.369
86252SOL    HW260654   6.879   3.259  12.436
86253SOL     OW60655   3.796   7.877   5.393
86253SOL    HW160656   3.746   7.803   5.427
86253SOL    HW260657   3.729   7.939   5.362
86254SOL     OW60658   8.596  11.744   4.837
86254SOL    HW160659   8.576  11.682   4.767
86254SOL    HW260660   8.539  11.819   4.820
86255SOL     OW60661   9.906   7.537   0.686
86255SOL    HW160662   9.966   7.586   0.629
86255SOL    HW260663   9.876   7.464   0.632
86256SOL     OW60664  12.694   9.349  11.552
86256SOL    HW160665  12.781   9.385  11.537
86256SOL    HW260666  12.708   9.254  11.553
86257SOL     OW60667   8.819   0.670  12.033
86257SOL    HW160668   8.896   0.616  12.048
86257SOL    HW260669   8.851   0.760  12.039
86258SOL     OW60670  13.403   6.495   0.944
86258SOL    HW160671  13.462   6.423   0.966
86258SOL    HW260672  13.319   6.470   0.982
86259SOL     OW60673   0.696   2.283  13.318
86259SOL    HW160674   0.734   2.196  13.324
86259SOL    HW260675   0.601   2.269  13.326
86260SOL     OW60676  11.533   9.897   5.819
86260SOL    HW160677  11.499   9.823   5.769
86260SOL    HW260678  11.567   9.957   5.753
86261SOL     OW60679   4.229  11.997   5.329
86261SOL    HW160680   4.274  11.980   5.412
86261SOL    HW260681   4.138  11.971   5.345
86262SOL     OW60682  13.064   3.947   1.534
86262SOL    HW160683  13.039   4.007   1.604
86262SOL    HW260684  13.152   3.917   1.558
86263SOL     OW60685  10.530   4.403   0.377
86263SOL    HW160686  10.507   4.471   0.314
86263SOL    HW260687  10.456   4.400   0.437
86264SOL     OW60688  13.518  13.236   5.532
86264SOL    HW160689  13.467  13.163   5.496
86264SOL    HW260690  13.451  13.301   5.558
86265SOL     OW60691  12.028  11.552   9.954
86265SOL    HW160692  12.100  11.608   9.926
86265SOL    HW260693  11.957  11.572   9.892
86266SOL     OW60694   8.191  14.005   3.614
86266SOL    HW160695   8.163  14.070   3.678
86266SOL    HW260696   8.110  13.965   3.583
86267SOL     OW60697  13.808  12.945  10.487
86267SOL    HW160698  13.767  12.880  10.544
86267SOL    HW260699  13.890  12.968  10.532
86268SOL     OW60700  10.025  11.475   8.776
86268SOL    HW160701  10.006  11.549   8.835
86268SOL    HW260702  10.011  11.511   8.688
86269SOL     OW60703   6.690  11.599  10.181
86269SOL    HW160704   6.681  11.505  10.163
86269SOL    HW260705   6.768  11.604  10.237
86270SOL     OW60706   2.063   3.571   2.032
86270SOL    HW160707   2.020   3.488   2.013
86270SOL    HW260708   2.000   3.637   2.004
86271SOL     OW60709   5.631   8.695   7.155
86271SOL    HW160710   5.603   8.743   7.077
86271SOL    HW260711   5.561   8.709   7.219
86272SOL     OW60712   7.309   1.273   4.787
86272SOL    HW160713   7.271   1.211   4.724
86272SOL    HW260714   7.242   1.341   4.797
86273SOL     OW60715  12.204   0.590   0.963
86273SOL    HW160716  12.142   0.649   0.922
86273SOL    HW260717  12.289   0.632   0.950
86274SOL     OW60718   3.576   8.957   5.095
86274SOL    HW160719   3.565   9.041   5.141
86274SOL    HW260720   3.581   8.981   5.002
86275SOL     OW60721   4.232  11.336   8.645
86275SOL    HW160722   4.252  11.246   8.668
86275SOL    HW260723   4.176  11.329   8.568
86276SOL     OW60724   0.345   0.386  14.531
86276SOL    HW160725   0.370   0.443  14.459
86276SOL    HW260726   0.423   0.334  14.549
86277SOL     OW60727   0.533   8.538   6.748
86277SOL    HW160728   0.593   8.605   6.715
86277SOL    HW260729   0.514   8.566   6.838
86278SOL     OW60730   4.735   5.467   1.578
86278SOL    HW160731   4.789   5.535   1.538
86278SOL    HW260732   4.768   5.459   1.667
86279SOL     OW60733   9.057  11.044   2.531
86279SOL    HW160734   9.070  10.957   2.567
86279SOL    HW260735   9.138  11.091   2.550
86280SOL     OW60736   3.137   6.099   5.052
86280SOL    HW160737   3.101   6.154   5.122
86280SOL    HW260738   3.165   6.019   5.097
86281SOL     OW60739   0.344   2.314  12.375
86281SOL    HW160740   0.397   2.236  12.356
86281SOL    HW260741   0.352   2.368  12.296
86282SOL     OW60742   8.584   1.676  11.967
86282SOL    HW160743   8.513   1.668  11.904
86282SOL    HW260744   8.663   1.678  11.913
86283SOL     OW60745   0.357   8.073   4.732
86283SOL    HW160746   0.446   8.107   4.742
86283SOL    HW260747   0.365   8.004   4.667
86284SOL     OW60748   0.238   5.697   5.608
86284SOL    HW160749   0.299   5.751   5.660
86284SOL    HW260750   0.242   5.611   5.649
86285SOL     OW60751  12.566   8.433   4.840
86285SOL    HW160752  12.593   8.341   4.839
86285SOL    HW260753  12.647   8.481   4.858
86286SOL     OW60754   6.815   9.831  13.743
86286SOL    HW160755   6.890   9.861  13.794
86286SOL    HW260756   6.810   9.737  13.761
86287SOL     OW60757   1.555   5.181  13.653
86287SOL    HW160758   1.552   5.209  13.561
86287SOL    HW260759   1.480   5.226  13.693
86288SOL     OW60760   0.709  12.668   3.260
86288SOL    HW160761   0.666  12.734   3.314
86288SOL    HW260762   0.799  12.701   3.249
86289SOL     OW60763   6.434   5.972  13.516
86289SOL    HW160764   6.414   5.995  13.426
86289SOL    HW260765   6.350   5.978  13.562
86290SOL     OW60766   9.860   3.445   4.682
86290SOL    HW160767   9.846   3.475   4.772
86290SOL    HW260768   9.775   3.408   4.655
86291SOL     OW60769  11.393   4.671   6.805
86291SOL    HW160770  11.382   4.646   6.896
86291SOL    HW260771  11.455   4.744   6.807
86292SOL     OW60772  10.633   0.804   4.667
86292SOL    HW160773  10.605   0.730   4.721
86292SOL    HW260774  10.613   0.881   4.721
86293SOL     OW60775  14.687   3.035   6.984
86293SOL    HW160776  14.696   3.130   6.977
86293SOL    HW260777  14.682   3.005   6.893
86294SOL     OW60778   1.885   6.238  12.349
86294SOL    HW160779   1.867   6.204  12.437
86294SOL    HW260780   1.975   6.213  12.331
86295SOL     OW60781  13.674   2.080   3.160
86295SOL    HW160782  13.729   2.158   3.165
86295SOL    HW260783  13.587   2.111   3.184
86296SOL     OW60784   6.144   1.082   7.797
86296SOL    HW160785   6.195   1.162   7.806
86296SOL    HW260786   6.209   1.012   7.791
86297SOL     OW60787   4.823   7.159  14.530
86297SOL    HW160788   4.866   7.143  14.614
86297SOL    HW260789   4.895   7.169  14.467
86298SOL     OW60790   4.543  11.227   6.559
86298SOL    HW160791   4.587  11.193   6.481
86298SOL    HW260792   4.587  11.182   6.632
86299SOL     OW60793   9.638  10.200  13.520
86299SOL    HW160794   9.674  10.171  13.436
86299SOL    HW260795   9.675  10.138  13.584
86300SOL     OW60796  11.901   8.609   6.399
86300SOL    HW160797  11.809   8.634   6.399
86300SOL    HW260798  11.945   8.681   6.444
86301SOL     OW60799   8.719  13.581   6.753
86301SOL    HW160800   8.763  13.656   6.794
86301SOL    HW260801   8.686  13.616   6.671
86302SOL     OW60802   2.312   3.714  11.749
86302SOL    HW160803   2.238   3.711  11.689
86302SOL    HW260804   2.331   3.808  11.759
86303SOL     OW60805  13.657   0.066  12.088
86303SOL    HW160806  13.705   0.097  12.012
86303SOL    HW260807  13.689  14.859  12.102
86304SOL     OW60808  13.911  10.504  11.245
86304SOL    HW160809  13.837  10.511  11.186
86304SOL    HW260810  13.957  10.425  11.216
86305SOL     OW60811   1.976   6.202   9.607
86305SOL    HW160812   1.967   6.271   9.542
86305SOL    HW260813   2.058   6.158   9.585
86306SOL     OW60814   9.189   0.679  14.577
86306SOL    HW160815   9.262   0.651  14.523
86306SOL    HW260816   9.196   0.627  14.657
86307SOL     OW60817   3.235  10.739  10.849
86307SOL    HW160818   3.275  10.662  10.891
86307SOL    HW260819   3.245  10.809  10.914
86308SOL     OW60820   4.639   3.246  12.444
86308SOL    HW160821   4.561   3.223  12.494
86308SOL    HW260822   4.697   3.287  12.507
86309SOL     OW60823   5.791   0.232   7.735
86309SOL    HW160824   5.729   0.160   7.752
86309SOL    HW260825   5.739   0.311   7.745
86310SOL     OW60826   3.748   3.017   7.968
86310SOL    HW160827   3.727   3.103   8.004
86310SOL    HW260828   3.664   2.972   7.962
86311SOL     OW60829   8.732   9.247   2.305
86311SOL    HW160830   8.655   9.264   2.359
86311SOL    HW260831   8.799   9.219   2.368
86312SOL     OW60832  10.630   0.386   9.843
86312SOL    HW160833  10.663   0.321   9.780
86312SOL    HW260834  10.571   0.336   9.900
86313SOL     OW60835   8.131   4.934   6.127
86313SOL    HW160836   8.196   4.944   6.058
86313SOL    HW260837   8.145   5.009   6.185
86314SOL     OW60838   1.547   2.521   6.777
86314SOL    HW160839   1.504   2.589   6.828
86314SOL    HW260840   1.476   2.464   6.747
86315SOL     OW60841   6.295   7.265   6.439
86315SOL    HW160842   6.262   7.266   6.349
86315SOL    HW260843   6.312   7.358   6.458
86316SOL     OW60844   3.570   1.185   5.348
86316SOL    HW160845   3.661   1.155   5.351
86316SOL    HW260846   3.524   1.127   5.410
86317SOL     OW60847  13.923   1.648   0.182
86317SOL    HW160848  13.884   1.574   0.136
86317SOL    HW260849  14.002   1.668   0.132
86318SOL     OW60850   0.475   4.297   9.289
86318SOL    HW160851   0.555   4.336   9.253
86318SOL    HW260852   0.404   4.348   9.252
86319SOL     OW60853   4.475  12.159   6.440
86319SOL    HW160854   4.540  12.194   6.502
86319SOL    HW260855   4.443  12.079   6.482
86320SOL     OW60856   7.469   4.809  14.838
86320SOL    HW160857   7.463   4.884   0.014
86320SOL    HW260858   7.403   4.748  14.869
86321SOL     OW60859   1.085   8.563  12.898
86321SOL    HW160860   1.071   8.650  12.861
86321SOL    HW260861   1.000   8.520  12.891
86322SOL     OW60862   2.644  13.996   4.721
86322SOL    HW160863   2.608  13.925   4.775
86322SOL    HW260864   2.733  14.008   4.756
86323SOL     OW60865   9.601  14.581  10.749
86323SOL    HW160866   9.644  14.605  10.666
86323SOL    HW260867   9.624  14.488  10.761
86324SOL     OW60868  13.809   1.287   0.958
86324SOL    HW160869  13.784   1.235   1.035
86324SOL    HW260870  13.843   1.222   0.896
86325SOL     OW60871   6.291   2.729   5.741
86325SOL    HW160872   6.274   2.823   5.751
86325SOL    HW260873   6.386   2.722   5.739
86326SOL     OW60874   8.629  12.079  13.830
86326SOL    HW160875   8.662  12.043  13.913
86326SOL    HW260876   8.662  12.018  13.763
86327SOL     OW60877   6.167  14.694  11.513
86327SOL    HW160878   6.085  14.667  11.554
86327SOL    HW260879   6.212  14.745  11.581
86328SOL     OW60880  12.418  14.524   4.225
86328SOL    HW160881  12.331  14.519   4.265
86328SOL    HW260882  12.401  14.523   4.131
86329SOL     OW60883   6.341  12.595  11.186
86329SOL    HW160884   6.251  12.595  11.219
86329SOL    HW260885   6.383  12.522  11.231
86330SOL     OW60886  10.834  10.570  11.587
86330SOL    HW160887  10.768  10.635  11.610
86330SOL    HW260888  10.798  10.487  11.616
86331SOL     OW60889   2.608   2.246   3.896
86331SOL    HW160890   2.653   2.303   3.833
86331SOL    HW260891   2.663   2.168   3.901
86332SOL     OW60892   8.003  12.614   6.221
86332SOL    HW160893   8.013  12.672   6.297
86332SOL    HW260894   8.093  12.597   6.192
86333SOL     OW60895  11.317   6.791  11.575
86333SOL    HW160896  11.364   6.790  11.491
86333SOL    HW260897  11.365   6.853  11.629
86334SOL     OW60898   6.372   9.452  12.357
86334SOL    HW160899   6.372   9.359  12.376
86334SOL    HW260900   6.316   9.461  12.280
86335SOL     OW60901  12.506   1.557   3.827
86335SOL    HW160902  12.452   1.484   3.860
86335SOL    HW260903  12.570   1.573   3.896
86336SOL     OW60904  11.300   9.692   7.161
86336SOL    HW160905  11.367   9.631   7.131
86336SOL    HW260906  11.347   9.771   7.187
86337SOL     OW60907   4.163  11.300   0.731
86337SOL    HW160908   4.240  11.357   0.721
86337SOL    HW260909   4.123  11.298   0.644
86338SOL     OW60910  11.118   9.749   0.449
86338SOL    HW160911  11.180   9.782   0.384
86338SOL    HW260912  11.044   9.809   0.444
86339SOL     OW60913  10.570   2.234   2.310
86339SOL    HW160914  10.591   2.239   2.217
86339SOL    HW260915  10.587   2.323   2.342
86340SOL     OW60916   8.387  10.338   6.266
86340SOL    HW160917   8.379  10.406   6.333
86340SOL    HW260918   8.476  10.349   6.231
86341SOL     OW60919  10.962   3.347   9.550
86341SOL    HW160920  10.983   3.419   9.610
86341SOL    HW260921  11.015   3.274   9.581
86342SOL     OW60922   9.529   1.011   8.897
86342SOL    HW160923   9.445   0.968   8.913
86342SOL    HW260924   9.528   1.089   8.952
86343SOL     OW60925   0.168   3.853   7.951
86343SOL    HW160926   0.210   3.873   7.867
86343SOL    HW260927   0.175   3.933   8.002
86344SOL     OW60928   1.405   7.093   4.607
86344SOL    HW160929   1.373   7.038   4.679
86344SOL    HW260930   1.498   7.105   4.626
86345SOL     OW60931   4.253  12.643   1.143
86345SOL    HW160932   4.270  12.602   1.059
86345SOL    HW260933   4.328  12.618   1.198
86346SOL     OW60934   5.218   5.763   8.777
86346SOL    HW160935   5.146   5.706   8.805
86346SOL    HW260936   5.200   5.846   8.820
86347SOL     OW60937   1.600  14.600   9.872
86347SOL    HW160938   1.625  14.527   9.928
86347SOL    HW260939   1.577  14.561   9.788
86348SOL     OW60940  10.923  12.501  14.024
86348SOL    HW160941  10.927  12.428  14.086
86348SOL    HW260942  10.988  12.479  13.957
86349SOL     OW60943   5.688   4.084   0.473
86349SOL    HW160944   5.705   4.048   0.560
86349SOL    HW260945   5.766   4.063   0.423
86350SOL     OW60946   6.848  13.068   4.193
86350SOL    HW160947   6.865  12.997   4.130
86350SOL    HW260948   6.912  13.135   4.171
86351SOL     OW60949   6.954  13.318   6.291
86351SOL    HW160950   7.045  13.330   6.320
86351SOL    HW260951   6.945  13.377   6.217
86352SOL     OW60952  14.835   4.915   7.015
86352SOL    HW160953   0.003   4.857   6.959
86352SOL    HW260954  14.821   4.865   7.096
86353SOL     OW60955   7.388   2.216   5.522
86353SOL    HW160956   7.307   2.236   5.569
86353SOL    HW260957   7.457   2.254   5.576
86354SOL     OW60958   5.935   7.211   6.467
86354SOL    HW160959   6.001   7.178   6.528
86354SOL    HW260960   5.934   7.306   6.482
86355SOL     OW60961  10.776   0.284   4.566
86355SOL    HW160962  10.822   0.352   4.518
86355SOL    HW260963  10.754   0.218   4.500
86356SOL     OW60964   5.306  13.303  13.564
86356SOL    HW160965   5.314  13.397  13.549
86356SOL    HW260966   5.239  13.295  13.632
86357SOL     OW60967  11.650   7.952  14.159
86357SOL    HW160968  11.715   7.924  14.094
86357SOL    HW260969  11.566   7.942  14.114
86358SOL     OW60970   9.506   5.776   7.472
86358SOL    HW160971   9.419   5.750   7.503
86358SOL    HW260972   9.567   5.740   7.537
86359SOL     OW60973   5.761   8.329   0.463
86359SOL    HW160974   5.833   8.284   0.418
86359SOL    HW260975   5.805   8.386   0.526
86360SOL     OW60976  14.286   6.924   3.259
86360SOL    HW160977  14.194   6.934   3.281
86360SOL    HW260978  14.315   7.012   3.236
86361SOL     OW60979  12.364  12.810   3.168
86361SOL    HW160980  12.429  12.792   3.235
86361SOL    HW260981  12.387  12.751   3.096
86362SOL     OW60982  12.412  10.918   3.189
86362SOL    HW160983  12.488  10.930   3.246
86362SOL    HW260984  12.431  10.973   3.113
86363SOL     OW60985  11.667  10.580   9.691
86363SOL    HW160986  11.636  10.615   9.608
86363SOL    HW260987  11.710  10.498   9.668
86364SOL     OW60988  11.752   7.373   7.183
86364SOL    HW160989  11.810   7.429   7.236
86364SOL    HW260990  11.782   7.284   7.201
86365SOL     OW60991  11.307  11.452   2.683
86365SOL    HW160992  11.253  11.429   2.608
86365SOL    HW260993  11.329  11.368   2.723
86366SOL     OW60994   6.742  13.787   1.155
86366SOL    HW160995   6.661  13.742   1.178
86366SOL    HW260996   6.800  13.718   1.122
86367SOL     OW60997   3.713   2.200   8.805
86367SOL    HW160998   3.634   2.157   8.773
86367SOL    HW260999   3.764   2.131   8.846
86368SOL     OW61000  10.305   9.015  11.102
86368SOL    HW161001  10.272   9.105  11.105
86368SOL    HW261002  10.261   8.977  11.026
86369SOL     OW61003   1.749  10.573  13.485
86369SOL    HW161004   1.679  10.529  13.533
86369SOL    HW261005   1.736  10.666  13.502
86370SOL     OW61006   8.108  11.015   4.508
86370SOL    HW161007   8.070  11.042   4.424
86370SOL    HW261008   8.135  10.925   4.494
86371SOL     OW61009   0.294  10.309   1.791
86371SOL    HW161010   0.312  10.298   1.697
86371SOL    HW261011   0.352  10.380   1.818
86372SOL     OW61012  14.232  11.509   8.866
86372SOL    HW161013  14.240  11.604   8.879
86372SOL    HW261014  14.233  11.497   8.771
86373SOL     OW61015   1.599   3.609   0.399
86373SOL    HW161016   1.635   3.642   0.317
86373SOL    HW261017   1.572   3.519   0.378
86374SOL     OW61018   6.248  10.228  13.285
86374SOL    HW161019   6.344  10.233  13.279
86374SOL    HW261020   6.218  10.318  13.271
86375SOL     OW61021   0.567   6.655   7.888
86375SOL    HW161022   0.543   6.634   7.798
86375SOL    HW261023   0.611   6.740   7.883
86376SOL     OW61024   8.505   0.306  11.812
86376SOL    HW161025   8.455   0.237  11.769
86376SOL    HW261026   8.455   0.386  11.795
86377SOL     OW61027  11.376   8.260  10.544
86377SOL    HW161028  11.406   8.317  10.473
86377SOL    HW261029  11.298   8.218  10.510
86378SOL     OW61030   6.788  11.718  13.258
86378SOL    HW161031   6.812  11.808  13.282
86378SOL    HW261032   6.761  11.677  13.340
86379SOL     OW61033   3.322  12.438  12.361
86379SOL    HW161034   3.332  12.424  12.266
86379SOL    HW261035   3.411  12.453  12.393
86380SOL     OW61036   8.423  14.316   2.751
86380SOL    HW161037   8.472  14.371   2.691
86380SOL    HW261038   8.480  14.306   2.827
86381SOL     OW61039   2.144   7.488   7.870
86381SOL    HW161040   2.123   7.415   7.929
86381SOL    HW261041   2.128   7.566   7.922
86382SOL     OW61042  10.317  10.379   1.862
86382SOL    HW161043  10.258  10.324   1.811
86382SOL    HW261044  10.267  10.460   1.877
86383SOL     OW61045   6.239  14.126  14.366
86383SOL    HW161046   6.165  14.070  14.340
86383SOL    HW261047   6.225  14.143  14.459
86384SOL     OW61048   6.311   8.351   5.477
86384SOL    HW161049   6.351   8.412   5.416
86384SOL    HW261050   6.217   8.370   5.472
86385SOL     OW61051   2.334   7.379  11.303
86385SOL    HW161052   2.405   7.400  11.364
86385SOL    HW261053   2.263   7.347  11.360
86386SOL     OW61054  12.964   2.410  12.062
86386SOL    HW161055  13.052   2.391  12.031
86386SOL    HW261056  12.975   2.435  12.153
86387SOL     OW61057  13.479  13.548   6.405
86387SOL    HW161058  13.562  13.566   6.362
86387SOL    HW261059  13.432  13.631   6.403
86388SOL     OW61060  10.826   0.952  12.818
86388SOL    HW161061  10.750   1.009  12.805
86388SOL    HW261062  10.798   0.891  12.887
86389SOL     OW61063   3.028   7.243   0.730
86389SOL    HW161064   2.981   7.189   0.794
86389SOL    HW261065   3.001   7.333   0.749
86390SOL     OW61066   6.296   7.362   7.806
86390SOL    HW161067   6.212   7.398   7.777
86390SOL    HW261068   6.351   7.363   7.728
86391SOL     OW61069   6.799  14.809  14.372
86391SOL    HW161070   6.720  14.843  14.414
86391SOL    HW261071   6.869  14.822  14.437
86392SOL     OW61072  10.370   3.343  14.717
86392SOL    HW161073  10.426   3.269  14.738
86392SOL    HW261074  10.415   3.387  14.645
86393SOL     OW61075  14.689   3.276   0.062
86393SOL    HW161076  14.720   3.239   0.145
86393SOL    HW261077  14.757   3.253  14.880
86394SOL     OW61078   6.017   3.054   2.221
86394SOL    HW161079   6.015   2.968   2.262
86394SOL    HW261080   5.966   3.110   2.280
86395SOL     OW61081   6.608   5.368  12.708
86395SOL    HW161082   6.655   5.320  12.776
86395SOL    HW261083   6.526   5.395  12.750
86396SOL     OW61084  10.631   6.724   8.157
86396SOL    HW161085  10.613   6.660   8.088
86396SOL    HW261086  10.719   6.756   8.138
86397SOL     OW61087   7.630   7.001   0.727
86397SOL    HW161088   7.549   7.007   0.779
86397SOL    HW261089   7.693   6.961   0.787
86398SOL     OW61090   5.306  10.044   2.116
86398SOL    HW161091   5.261  10.096   2.049
86398SOL    HW261092   5.235   9.999   2.162
86399SOL     OW61093   2.979   0.093  14.551
86399SOL    HW161094   2.916   0.164  14.535
86399SOL    HW261095   2.935   0.015  14.519
86400SOL     OW61096   8.585   1.141   6.554
86400SOL    HW161097   8.602   1.177   6.642
86400SOL    HW261098   8.652   1.181   6.499
86401SOL     OW61099   1.509   1.103   4.446
86401SOL    HW161100   1.479   1.076   4.533
86401SOL    HW261101   1.482   1.032   4.388
86402SOL     OW61102   3.547   8.058  10.597
86402SOL    HW161103   3.606   8.127  10.567
86402SOL    HW261104   3.478   8.106  10.644
86403SOL     OW61105   6.812  13.829   6.528
86403SOL    HW161106   6.860  13.848   6.608
86403SOL    HW261107   6.877  13.788   6.471
86404SOL     OW61108  11.416   4.949   8.545
86404SOL    HW161109  11.342   4.998   8.582
86404SOL    HW261110  11.384   4.915   8.462
86405SOL     OW61111  10.278  11.631   3.776
86405SOL    HW161112  10.342  11.651   3.707
86405SOL    HW261113  10.331  11.599   3.849
86406SOL     OW61114  12.785   2.613   3.855
86406SOL    HW161115  12.803   2.534   3.908
86406SOL    HW261116  12.709   2.653   3.897
86407SOL     OW61117   3.264  12.211   2.503
86407SOL    HW161118   3.320  12.174   2.571
86407SOL    HW261119   3.283  12.158   2.425
86408SOL     OW61120   8.464   3.180   3.411
86408SOL    HW161121   8.554   3.209   3.401
86408SOL    HW261122   8.461   3.095   3.366
86409SOL     OW61123   2.147   2.792   0.180
86409SOL    HW161124   2.136   2.887   0.188
86409SOL    HW261125   2.069   2.756   0.222
86410SOL     OW61126   3.571   7.058   5.963
86410SOL    HW161127   3.655   7.104   5.958
86410SOL    HW261128   3.570   7.001   5.886
86411SOL     OW61129  10.072   6.371   2.462
86411SOL    HW161130  10.104   6.386   2.374
86411SOL    HW261131  10.038   6.456   2.490
86412SOL     OW61132   6.051   8.341  12.197
86412SOL    HW161133   6.043   8.263  12.142
86412SOL    HW261134   6.071   8.412  12.135
86413SOL     OW61135   0.443   6.803  14.672
86413SOL    HW161136   0.431   6.875  14.611
86413SOL    HW261137   0.455   6.846  14.757
86414SOL     OW61138   2.148  13.855   6.328
86414SOL    HW161139   2.144  13.811   6.413
86414SOL    HW261140   2.235  13.895   6.326
86415SOL     OW61141   8.079   4.606   2.434
86415SOL    HW161142   8.084   4.655   2.351
86415SOL    HW261143   8.160   4.629   2.479
86416SOL     OW61144  13.699   4.905  13.512
86416SOL    HW161145  13.705   4.810  13.503
86416SOL    HW261146  13.769   4.939  13.456
86417SOL     OW61147  11.661  10.000  14.271
86417SOL    HW161148  11.666  10.082  14.320
86417SOL    HW261149  11.589   9.952  14.312
86418SOL     OW61150   6.143   7.608  10.799
86418SOL    HW161151   6.176   7.526  10.763
86418SOL    HW261152   6.114   7.658  10.722
86419SOL     OW61153  13.678   0.544   5.188
86419SOL    HW161154  13.687   0.524   5.282
86419SOL    HW261155  13.602   0.603   5.183
86420SOL     OW61156   5.822  10.349   2.996
86420SOL    HW161157   5.910  10.356   3.035
86420SOL    HW261158   5.769  10.306   3.064
86421SOL     OW61159   9.319  11.744  10.250
86421SOL    HW161160   9.386  11.692  10.295
86421SOL    HW261161   9.273  11.789  10.321
86422SOL     OW61162  10.593   2.450  10.378
86422SOL    HW161163  10.590   2.414  10.467
86422SOL    HW261164  10.664   2.402  10.335
86423SOL     OW61165   8.963   4.103   5.557
86423SOL    HW161166   8.926   4.047   5.489
86423SOL    HW261167   9.056   4.080   5.559
86424SOL     OW61168  10.013  11.866  11.178
86424SOL    HW161169  10.034  11.782  11.219
86424SOL    HW261170   9.919  11.862  11.163
86425SOL     OW61171   3.078   5.493   2.524
86425SOL    HW161172   3.120   5.407   2.526
86425SOL    HW261173   2.989   5.477   2.555
86426SOL     OW61174   5.919   4.413  11.094
86426SOL    HW161175   5.838   4.369  11.123
86426SOL    HW261176   5.945   4.365  11.015
86427SOL     OW61177   8.331   1.713  10.408
86427SOL    HW161178   8.273   1.788  10.404
86427SOL    HW261179   8.382   1.716  10.327
86428SOL     OW61180   9.537   0.269  11.492
86428SOL    HW161181   9.549   0.209  11.566
86428SOL    HW261182   9.622   0.312  11.482
86429SOL     OW61183   6.291   3.197   5.136
86429SOL    HW161184   6.215   3.254   5.128
86429SOL    HW261185   6.281   3.155   5.222
86430SOL     OW61186   1.086  12.106   9.243
86430SOL    HW161187   1.074  12.171   9.312
86430SOL    HW261188   1.001  12.100   9.201
86431SOL     OW61189  14.060   0.682  10.659
86431SOL    HW161190  14.059   0.681  10.755
86431SOL    HW261191  13.968   0.673  10.634
86432SOL     OW61192   4.395   1.244   8.826
86432SOL    HW161193   4.466   1.180   8.828
86432SOL    HW261194   4.367   1.246   8.735
86433SOL     OW61195  11.757  10.919  13.289
86433SOL    HW161196  11.803  10.915  13.373
86433SOL    HW261197  11.720  11.008  13.287
86434SOL     OW61198   7.544  10.743  12.785
86434SOL    HW161199   7.578  10.687  12.715
86434SOL    HW261200   7.609  10.736  12.855
86435SOL     OW61201   1.455   5.577  14.679
86435SOL    HW161202   1.385   5.578  14.614
86435SOL    HW261203   1.536   5.578  14.628
86436SOL     OW61204   5.722   5.713  11.428
86436SOL    HW161205   5.684   5.637  11.385
86436SOL    HW261206   5.746   5.682  11.515
86437SOL     OW61207  11.064   2.466   1.962
86437SOL    HW161208  11.009   2.490   1.888
86437SOL    HW261209  11.119   2.543   1.977
86438SOL     OW61210   7.366   4.451   0.595
86438SOL    HW161211   7.371   4.356   0.601
86438SOL    HW261212   7.418   4.482   0.669
86439SOL     OW61213  12.541   5.456   2.249
86439SOL    HW161214  12.606   5.392   2.220
86439SOL    HW261215  12.566   5.538   2.205
86440SOL     OW61216   3.857   9.300   3.451
86440SOL    HW161217   3.857   9.221   3.505
86440SOL    HW261218   3.903   9.365   3.505
86441SOL     OW61219   2.174  13.652   5.129
86441SOL    HW161220   2.090  13.626   5.167
86441SOL    HW261221   2.151  13.718   5.063
86442SOL     OW61222   7.741   7.668   7.992
86442SOL    HW161223   7.710   7.635   8.076
86442SOL    HW261224   7.836   7.676   8.003
86443SOL     OW61225   1.934  11.748   2.797
86443SOL    HW161226   1.857  11.692   2.805
86443SOL    HW261227   1.909  11.829   2.840
86444SOL     OW61228  11.821   1.650   6.877
86444SOL    HW161229  11.862   1.618   6.957
86444SOL    HW261230  11.835   1.744   6.878
86445SOL     OW61231   0.636   4.448   9.684
86445SOL    HW161232   0.670   4.515   9.744
86445SOL    HW261233   0.641   4.366   9.733
86446SOL     OW61234  14.003   3.851   1.222
86446SOL    HW161235  14.054   3.854   1.303
86446SOL    HW261236  13.968   3.939   1.213
86447SOL     OW61237   4.340   7.908   4.145
86447SOL    HW161238   4.319   7.832   4.200
86447SOL    HW261239   4.415   7.949   4.189
86448SOL     OW61240  13.382   6.382  13.909
86448SOL    HW161241  13.387   6.286  13.910
86448SOL    HW261242  13.289   6.401  13.905
86449SOL     OW61243   2.611   1.687   8.807
86449SOL    HW161244   2.598   1.779   8.784
86449SOL    HW261245   2.686   1.688   8.866
86450SOL     OW61246   9.939  13.978  13.928
86450SOL    HW161247   9.989  13.896  13.932
86450SOL    HW261248   9.888  13.979  14.009
86451SOL     OW61249   0.789   2.628  13.162
86451SOL    HW161250   0.828   2.541  13.163
86451SOL    HW261251   0.843   2.678  13.101
86452SOL     OW61252   6.103  11.103  12.260
86452SOL    HW161253   6.020  11.129  12.301
86452SOL    HW261254   6.116  11.013  12.288
86453SOL     OW61255  10.763   8.148   8.377
86453SOL    HW161256  10.769   8.104   8.292
86453SOL    HW261257  10.669   8.149   8.397
86454SOL     OW61258   2.053   8.574   7.926
86454SOL    HW161259   1.971   8.621   7.934
86454SOL    HW261260   2.053   8.539   7.837
86455SOL     OW61261   9.361   6.306   0.373
86455SOL    HW161262   9.359   6.320   0.278
86455SOL    HW261263   9.436   6.249   0.387
86456SOL     OW61264  11.747   1.403  13.016
86456SOL    HW161265  11.796   1.483  12.998
86456SOL    HW261266  11.778   1.341  12.950
86457SOL     OW61267  12.964   6.648   0.866
86457SOL    HW161268  12.912   6.683   0.794
86457SOL    HW261269  13.038   6.709   0.874
86458SOL     OW61270   3.045   6.176   7.605
86458SOL    HW161271   3.112   6.149   7.668
86458SOL    HW261272   2.983   6.103   7.605
86459SOL     OW61273   0.976   3.272  10.303
86459SOL    HW161274   1.052   3.219  10.329
86459SOL    HW261275   1.004   3.315  10.222
86460SOL     OW61276  12.981   4.802   4.360
86460SOL    HW161277  13.075   4.807   4.375
86460SOL    HW261278  12.961   4.708   4.364
86461SOL     OW61279   8.877   1.837   0.170
86461SOL    HW161280   8.851   1.821   0.261
86461SOL    HW261281   8.821   1.779   0.118
86462SOL     OW61282  14.690  14.664   6.774
86462SOL    HW161283  14.720  14.630   6.858
86462SOL    HW261284  14.742  14.619   6.709
86463SOL     OW61285   1.329   3.374   4.644
86463SOL    HW161286   1.368   3.287   4.652
86463SOL    HW261287   1.395   3.427   4.600
86464SOL     OW61288  13.003  11.885   5.613
86464SOL    HW161289  12.924  11.888   5.560
86464SOL    HW261290  13.072  11.859   5.552
86465SOL     OW61291   2.080  14.548  10.930
86465SOL    HW161292   2.145  14.614  10.950
86465SOL    HW261293   2.070  14.498  11.011
86466SOL     OW61294   1.978   7.225   9.741
86466SOL    HW161295   1.915   7.171   9.693
86466SOL    HW261296   1.970   7.312   9.701
86467SOL     OW61297   4.944   5.147   0.862
86467SOL    HW161298   4.981   5.103   0.938
86467SOL    HW261299   4.971   5.095   0.788
86468SOL     OW61300  14.606   9.523  14.039
86468SOL    HW161301  14.578   9.603  13.995
86468SOL    HW261302  14.645   9.554  14.122
86469SOL     OW61303   7.670  10.416   1.573
86469SOL    HW161304   7.613  10.416   1.496
86469SOL    HW261305   7.682  10.508   1.594
86470SOL     OW61306  10.370   7.165   7.969
86470SOL    HW161307  10.441   7.227   7.952
86470SOL    HW261308  10.305   7.215   8.018
86471SOL     OW61309   4.357  12.099   0.029
86471SOL    HW161310   4.342  12.017  14.865
86471SOL    HW261311   4.325  12.083   0.118
86472SOL     OW61312   2.687   6.061  13.106
86472SOL    HW161313   2.738   6.141  13.120
86472SOL    HW261314   2.720   5.999  13.172
86473SOL     OW61315   9.097   6.746  13.387
86473SOL    HW161316   9.132   6.768  13.301
86473SOL    HW261317   9.133   6.659  13.407
86474SOL     OW61318  12.554   7.339   2.951
86474SOL    HW161319  12.509   7.368   3.030
86474SOL    HW261320  12.523   7.249   2.937
86475SOL     OW61321  10.419  12.953   1.860
86475SOL    HW161322  10.430  12.883   1.924
86475SOL    HW261323  10.502  13.000   1.863
86476SOL     OW61324   1.654   9.197  13.921
86476SOL    HW161325   1.569   9.228  13.952
86476SOL    HW261326   1.718   9.252  13.968
86477SOL     OW61327   9.040  13.524   5.033
86477SOL    HW161328   8.972  13.553   4.972
86477SOL    HW261329   9.059  13.601   5.087
86478SOL     OW61330   1.590   2.885   4.083
86478SOL    HW161331   1.590   2.855   4.174
86478SOL    HW261332   1.497   2.889   4.060
86479SOL     OW61333   8.037   3.561  11.464
86479SOL    HW161334   8.040   3.601  11.377
86479SOL    HW261335   8.128   3.549  11.488
86480SOL     OW61336   5.871   8.438   7.097
86480SOL    HW161337   5.920   8.372   7.047
86480SOL    HW261338   5.779   8.418   7.078
86481SOL     OW61339   8.381   9.835  14.334
86481SOL    HW161340   8.396   9.928  14.316
86481SOL    HW261341   8.287   9.823  14.319
86482SOL     OW61342   7.399   6.243  14.608
86482SOL    HW161343   7.415   6.189  14.531
86482SOL    HW261344   7.307   6.267  14.602
86483SOL     OW61345   8.583  10.378  12.856
86483SOL    HW161346   8.665  10.417  12.827
86483SOL    HW261347   8.565  10.310  12.792
86484SOL     OW61348   4.365  10.669   8.885
86484SOL    HW161349   4.415  10.666   8.967
86484SOL    HW261350   4.283  10.712   8.909
86485SOL     OW61351   3.513   4.882   9.707
86485SOL    HW161352   3.518   4.842   9.793
86485SOL    HW261353   3.604   4.896   9.681
86486SOL     OW61354   3.402   0.426   6.518
86486SOL    HW161355   3.384   0.420   6.424
86486SOL    HW261356   3.393   0.520   6.538
86487SOL     OW61357   2.481  13.481   2.216
86487SOL    HW161358   2.421  13.424   2.169
86487SOL    HW261359   2.566  13.465   2.174
86488SOL     OW61360   5.767  10.631  10.845
86488SOL    HW161361   5.754  10.663  10.756
86488SOL    HW261362   5.818  10.699  10.888
86489SOL     OW61363   8.118   5.997  12.484
86489SOL    HW161364   8.102   6.016  12.576
86489SOL    HW261365   8.052   5.930  12.462
86490SOL     OW61366   6.612   5.954  11.193
86490SOL    HW161367   6.580   5.938  11.281
86490SOL    HW261368   6.686   5.895  11.183
86491SOL     OW61369   6.461   2.147   6.982
86491SOL    HW161370   6.513   2.068   6.966
86491SOL    HW261371   6.508   2.216   6.936
86492SOL     OW61372   4.669   2.884   8.161
86492SOL    HW161373   4.653   2.933   8.242
86492SOL    HW261374   4.657   2.793   8.186
86493SOL     OW61375   4.847   9.259   4.146
86493SOL    HW161376   4.792   9.188   4.114
86493SOL    HW261377   4.811   9.338   4.105
86494SOL     OW61378   1.149   8.118   5.602
86494SOL    HW161379   1.177   8.204   5.634
86494SOL    HW261380   1.078   8.092   5.660
86495SOL     OW61381   4.663   2.237   8.521
86495SOL    HW161382   4.646   2.146   8.498
86495SOL    HW261383   4.619   2.249   8.605
86496SOL     OW61384   3.503   6.532  11.207
86496SOL    HW161385   3.571   6.543  11.273
86496SOL    HW261386   3.547   6.494  11.131
86497SOL     OW61387  11.306   0.819   9.290
86497SOL    HW161388  11.240   0.842   9.224
86497SOL    HW261389  11.312   0.724   9.286
86498SOL     OW61390  12.732   4.000   2.225
86498SOL    HW161391  12.734   4.083   2.272
86498SOL    HW261392  12.764   3.935   2.288
86499SOL     OW61393   2.181   8.146   9.714
86499SOL    HW161394   2.130   8.151   9.794
86499SOL    HW261395   2.260   8.098   9.739
86500SOL     OW61396   3.004   0.608   5.945
86500SOL    HW161397   3.072   0.563   5.995
86500SOL    HW261398   3.038   0.613   5.856
86501SOL     OW61399  11.789   3.411  12.443
86501SOL    HW161400  11.870   3.363  12.424
86501SOL    HW261401  11.800   3.442  12.533
86502SOL     OW61402   0.974   0.964   7.287
86502SOL    HW161403   0.999   0.885   7.239
86502SOL    HW261404   0.884   0.981   7.260
86503SOL     OW61405   6.822   8.511   3.649
86503SOL    HW161406   6.859   8.473   3.729
86503SOL    HW261407   6.832   8.605   3.660
86504SOL     OW61408   8.233   5.153   5.392
86504SOL    HW161409   8.294   5.082   5.374
86504SOL    HW261410   8.147   5.118   5.370
86505SOL     OW61411   3.695  13.243   5.501
86505SOL    HW161412   3.708  13.157   5.542
86505SOL    HW261413   3.602  13.244   5.477
86506SOL     OW61414   7.363   2.772  13.042
86506SOL    HW161415   7.376   2.701  12.978
86506SOL    HW261416   7.451   2.799  13.067
86507SOL     OW61417   0.725   9.029   5.525
86507SOL    HW161418   0.663   8.969   5.484
86507SOL    HW261419   0.799   8.973   5.551
86508SOL     OW61420   0.970   3.489   4.254
86508SOL    HW161421   0.967   3.442   4.171
86508SOL    HW261422   0.881   3.480   4.290
86509SOL     OW61423   9.536   5.202  14.728
86509SOL    HW161424   9.602   5.195  14.796
86509SOL    HW261425   9.561   5.136  14.664
86510SOL     OW61426   7.219   2.114  12.098
86510SOL    HW161427   7.223   2.138  12.190
86510SOL    HW261428   7.172   2.187  12.056
86511SOL     OW61429   0.217  11.750   5.189
86511SOL    HW161430   0.163  11.674   5.210
86511SOL    HW261431   0.288  11.748   5.253
86512SOL     OW61432   8.800  11.955   6.367
86512SOL    HW161433   8.740  11.883   6.348
86512SOL    HW261434   8.754  12.034   6.337
86513SOL     OW61435   5.316   1.818   3.097
86513SOL    HW161436   5.296   1.734   3.138
86513SOL    HW261437   5.385   1.856   3.153
86514SOL     OW61438   7.218  12.811  12.360
86514SOL    HW161439   7.282  12.752  12.399
86514SOL    HW261440   7.263  12.849  12.284
86515SOL     OW61441   2.239   7.813   0.486
86515SOL    HW161442   2.258   7.729   0.526
86515SOL    HW261443   2.247   7.797   0.392
86516SOL     OW61444  13.701   9.148  13.419
86516SOL    HW161445  13.793   9.167  13.438
86516SOL    HW261446  13.702   9.062  13.377
86517SOL     OW61447   3.798  10.481   8.345
86517SOL    HW161448   3.828  10.526   8.265
86517SOL    HW261449   3.847  10.399   8.346
86518SOL     OW61450   7.556   9.197   4.951
86518SOL    HW161451   7.504   9.162   5.023
86518SOL    HW261452   7.646   9.175   4.973
86519SOL     OW61453  14.566  13.539  12.913
86519SOL    HW161454  14.544  13.471  12.977
86519SOL    HW261455  14.482  13.580  12.893
86520SOL     OW61456   8.352  13.336   9.336
86520SOL    HW161457   8.444  13.360   9.325
86520SOL    HW261458   8.308  13.372   9.258
86521SOL     OW61459  11.563  13.137   8.601
86521SOL    HW161460  11.594  13.162   8.514
86521SOL    HW261461  11.640  13.144   8.657
86522SOL     OW61462  11.915   4.287   9.264
86522SOL    HW161463  11.925   4.191   9.262
86522SOL    HW261464  11.868   4.304   9.346
86523SOL     OW61465   4.149  10.870   2.058
86523SOL    HW161466   4.211  10.930   2.102
86523SOL    HW261467   4.192  10.848   1.976
86524SOL     OW61468   4.362  14.771   8.360
86524SOL    HW161469   4.443  14.819   8.342
86524SOL    HW261470   4.296  14.815   8.306
86525SOL     OW61471   1.193  13.545   8.438
86525SOL    HW161472   1.157  13.607   8.376
86525SOL    HW261473   1.287  13.545   8.421
86526SOL     OW61474  13.367   1.074   3.718
86526SOL    HW161475  13.355   1.165   3.691
86526SOL    HW261476  13.347   1.023   3.639
86527SOL     OW61477  12.736   3.787  12.816
86527SOL    HW161478  12.714   3.709  12.867
86527SOL    HW261479  12.810   3.826  12.862
86528SOL     OW61480   5.334   4.074   6.337
86528SOL    HW161481   5.305   4.048   6.250
86528SOL    HW261482   5.255   4.076   6.390
86529SOL     OW61483  11.733   3.033  10.276
86529SOL    HW161484  11.786   3.109  10.300
86529SOL    HW261485  11.675   3.065  10.207
86530SOL     OW61486   5.768   6.275   3.448
86530SOL    HW161487   5.697   6.318   3.494
86530SOL    HW261488   5.779   6.325   3.367
86531SOL     OW61489   9.774  11.340   2.157
86531SOL    HW161490   9.737  11.391   2.084
86531SOL    HW261491   9.730  11.376   2.234
86532SOL     OW61492   9.250   8.840   2.258
86532SOL    HW161493   9.159   8.820   2.235
86532SOL    HW261494   9.259   8.933   2.241
86533SOL     OW61495   1.130  11.835  12.263
86533SOL    HW161496   1.040  11.816  12.236
86533SOL    HW261497   1.123  11.916  12.313
86534SOL     OW61498  14.386   3.743   4.573
86534SOL    HW161499  14.377   3.793   4.654
86534SOL    HW261500  14.313   3.773   4.519
86535SOL     OW61501   7.200  11.039  14.740
86535SOL    HW161502   7.162  11.118  14.703
86535SOL    HW261503   7.185  11.045  14.834
86536SOL     OW61504   1.054   2.934  10.051
86536SOL    HW161505   1.071   2.881   9.973
86536SOL    HW261506   1.093   2.884  10.123
86537SOL     OW61507   5.990   4.317   1.615
86537SOL    HW161508   5.973   4.290   1.525
86537SOL    HW261509   6.000   4.235   1.663
86538SOL     OW61510  11.497   2.372  10.665
86538SOL    HW161511  11.548   2.393  10.743
86538SOL    HW261512  11.560   2.372  10.593
86539SOL     OW61513  10.132   4.335   6.872
86539SOL    HW161514  10.204   4.392   6.899
86539SOL    HW261515  10.053   4.388   6.885
86540SOL     OW61516   3.570   4.537   6.748
86540SOL    HW161517   3.538   4.452   6.720
86540SOL    HW261518   3.493   4.594   6.743
86541SOL     OW61519  12.238   1.413  10.484
86541SOL    HW161520  12.194   1.483  10.533
86541SOL    HW261521  12.280   1.458  10.411
86542SOL     OW61522  12.882  12.254   3.157
86542SOL    HW161523  12.913  12.182   3.102
86542SOL    HW261524  12.863  12.213   3.242
86543SOL     OW61525  10.574  12.446  13.812
86543SOL    HW161526  10.562  12.499  13.733
86543SOL    HW261527  10.532  12.497  13.881
86544SOL     OW61528  11.246  13.582  10.179
86544SOL    HW161529  11.178  13.564  10.244
86544SOL    HW261530  11.198  13.592  10.096
86545SOL     OW61531   4.418   4.221   4.448
86545SOL    HW161532   4.513   4.221   4.435
86545SOL    HW261533   4.399   4.308   4.483
86546SOL     OW61534  14.083  12.714  10.859
86546SOL    HW161535  14.124  12.719  10.945
86546SOL    HW261536  14.065  12.805  10.836
86547SOL     OW61537   0.537   4.304   1.910
86547SOL    HW161538   0.540   4.316   2.005
86547SOL    HW261539   0.592   4.227   1.894
86548SOL     OW61540   3.911  11.281   7.274
86548SOL    HW161541   3.978  11.333   7.230
86548SOL    HW261542   3.842  11.344   7.296
86549SOL     OW61543   2.809  12.574   0.386
86549SOL    HW161544   2.783  12.543   0.299
86549SOL    HW261545   2.843  12.662   0.371
86550SOL     OW61546   6.282   2.455  14.317
86550SOL    HW161547   6.243   2.505  14.245
86550SOL    HW261548   6.216   2.457  14.386
86551SOL     OW61549   3.529   7.526   5.957
86551SOL    HW161550   3.438   7.507   5.934
86551SOL    HW261551   3.556   7.452   6.011
86552SOL     OW61552   6.792  13.343   1.460
86552SOL    HW161553   6.816  13.264   1.412
86552SOL    HW261554   6.836  13.335   1.544
86553SOL     OW61555   3.016   8.050   7.289
86553SOL    HW161556   2.934   8.076   7.330
86553SOL    HW261557   3.000   7.961   7.257
86554SOL     OW61558   7.419   9.734   0.794
86554SOL    HW161559   7.399   9.723   0.701
86554SOL    HW261560   7.389   9.823   0.815
86555SOL     OW61561   7.618   2.514   4.138
86555SOL    HW161562   7.593   2.510   4.230
86555SOL    HW261563   7.577   2.437   4.098
86556SOL     OW61564   3.293  13.246   9.019
86556SOL    HW161565   3.265  13.184   8.952
86556SOL    HW261566   3.332  13.191   9.087
86557SOL     OW61567   7.854   1.723   5.422
86557SOL    HW161568   7.790   1.787   5.453
86557SOL    HW261569   7.914   1.774   5.368
86558SOL     OW61570   5.357   0.461   2.607
86558SOL    HW161571   5.355   0.458   2.511
86558SOL    HW261572   5.273   0.425   2.634
86559SOL     OW61573  10.895  10.396   2.738
86559SOL    HW161574  10.897  10.487   2.768
86559SOL    HW261575  10.832  10.396   2.666
86560SOL     OW61576  12.757   8.725   7.712
86560SOL    HW161577  12.823   8.709   7.645
86560SOL    HW261578  12.746   8.641   7.756
86561SOL     OW61579  14.211   6.003   0.033
86561SOL    HW161580  14.146   5.998  14.845
86561SOL    HW261581  14.184   6.078   0.086
86562SOL     OW61582  14.192  11.528   8.598
86562SOL    HW161583  14.229  11.498   8.515
86562SOL    HW261584  14.207  11.623   8.598
86563SOL     OW61585  14.553   2.609   9.841
86563SOL    HW161586  14.620   2.657   9.793
86563SOL    HW261587  14.602   2.541   9.887
86564SOL     OW61588   0.204   5.102   6.682
86564SOL    HW161589   0.135   5.108   6.748
86564SOL    HW261590   0.163   5.056   6.609
86565SOL     OW61591  12.640  10.642   5.117
86565SOL    HW161592  12.593  10.611   5.040
86565SOL    HW261593  12.574  10.691   5.167
86566SOL     OW61594   5.476   2.279   5.823
86566SOL    HW161595   5.506   2.325   5.901
86566SOL    HW261596   5.487   2.342   5.752
86567SOL     OW61597   8.977  14.812   0.265
86567SOL    HW161598   9.039   0.003   0.258
86567SOL    HW261599   9.025  14.745   0.314
86568SOL     OW61600  12.956   5.766  13.514
86568SOL    HW161601  12.963   5.727  13.601
86568SOL    HW261602  13.011   5.710  13.459
86569SOL     OW61603   6.846   6.453  10.544
86569SOL    HW161604   6.827   6.462  10.451
86569SOL    HW261605   6.913   6.520  10.561
86570SOL     OW61606  14.749  14.333   6.177
86570SOL    HW161607  14.699  14.270   6.125
86570SOL    HW261608  14.732  14.308   6.268
86571SOL     OW61609   6.246   8.636   2.437
86571SOL    HW161610   6.316   8.584   2.474
86571SOL    HW261611   6.197   8.576   2.381
86572SOL     OW61612   3.468   2.618   3.302
86572SOL    HW161613   3.485   2.536   3.348
86572SOL    HW261614   3.486   2.598   3.210
86573SOL     OW61615  13.393   1.847  14.641
86573SOL    HW161616  13.405   1.850  14.736
86573SOL    HW261617  13.384   1.754  14.621
86574SOL     OW61618   1.405   7.625  10.289
86574SOL    HW161619   1.447   7.710  10.278
86574SOL    HW261620   1.426   7.577  10.209
86575SOL     OW61621   6.367   2.228  11.006
86575SOL    HW161622   6.390   2.210  11.097
86575SOL    HW261623   6.292   2.286  11.011
86576SOL     OW61624   8.302   7.953   4.942
86576SOL    HW161625   8.272   7.927   5.028
86576SOL    HW261626   8.385   7.998   4.958
86577SOL     OW61627  10.986  13.553   3.762
86577SOL    HW161628  10.898  13.580   3.788
86577SOL    HW261629  10.986  13.563   3.666
86578SOL     OW61630   0.947   2.266   6.191
86578SOL    HW161631   0.913   2.206   6.125
86578SOL    HW261632   0.951   2.213   6.271
86579SOL     OW61633   8.934  11.021   9.496
86579SOL    HW161634   8.853  10.973   9.479
86579SOL    HW261635   8.905  11.105   9.530
86580SOL     OW61636  14.527   0.847  10.559
86580SOL    HW161637  14.611   0.869  10.518
86580SOL    HW261638  14.463   0.898  10.509
86581SOL     OW61639   2.548   7.515   7.508
86581SOL    HW161640   2.626   7.469   7.539
86581SOL    HW261641   2.477   7.484   7.565
86582SOL     OW61642   4.272   8.748   3.235
86582SOL    HW161643   4.177   8.763   3.229
86582SOL    HW261644   4.300   8.802   3.309
86583SOL     OW61645  11.432   3.652  12.042
86583SOL    HW161646  11.354   3.682  11.996
86583SOL    HW261647  11.418   3.680  12.133
86584SOL     OW61648   9.255   4.141   8.495
86584SOL    HW161649   9.272   4.138   8.401
86584SOL    HW261650   9.279   4.054   8.527
86585SOL     OW61651   1.922   3.577  14.248
86585SOL    HW161652   1.964   3.539  14.171
86585SOL    HW261653   1.911   3.669  14.227
86586SOL     OW61654   2.106   2.146  10.006
86586SOL    HW161655   2.035   2.083  10.013
86586SOL    HW261656   2.094   2.204  10.080
86587SOL     OW61657  10.267   0.169   0.319
86587SOL    HW161658  10.216   0.100   0.361
86587SOL    HW261659  10.204   0.239   0.301
86588SOL     OW61660   6.280   4.685   5.652
86588SOL    HW161661   6.248   4.596   5.636
86588SOL    HW261662   6.236   4.739   5.585
86589SOL     OW61663   8.051   7.837  13.190
86589SOL    HW161664   8.064   7.753  13.233
86589SOL    HW261665   8.123   7.843  13.127
86590SOL     OW61666   7.246  12.469   5.826
86590SOL    HW161667   7.186  12.406   5.787
86590SOL    HW261668   7.301  12.417   5.885
86591SOL     OW61669   5.841   2.746  11.192
86591SOL    HW161670   5.863   2.837  11.171
86591SOL    HW261671   5.794   2.752  11.276
86592SOL     OW61672   5.592   8.564  14.311
86592SOL    HW161673   5.629   8.476  14.315
86592SOL    HW261674   5.593   8.595  14.401
86593SOL     OW61675   0.062   1.239   3.260
86593SOL    HW161676   0.024   1.236   3.172
86593SOL    HW261677   0.068   1.148   3.287
86594SOL     OW61678  10.960   1.131   9.357
86594SOL    HW161679  10.993   1.107   9.270
86594SOL    HW261680  10.865   1.137   9.346
86595SOL     OW61681   8.532   5.566   3.809
86595SOL    HW161682   8.572   5.635   3.755
86595SOL    HW261683   8.606   5.512   3.837
86596SOL     OW61684   6.820  11.979   3.643
86596SOL    HW161685   6.776  11.905   3.684
86596SOL    HW261686   6.909  11.977   3.677
86597SOL     OW61687   7.186  11.140   3.836
86597SOL    HW161688   7.206  11.095   3.754
86597SOL    HW261689   7.224  11.084   3.904
86598SOL     OW61690   4.254   2.957   9.096
86598SOL    HW161691   4.319   2.903   9.050
86598SOL    HW261692   4.236   2.908   9.176
86599SOL     OW61693  12.663  13.995   9.795
86599SOL    HW161694  12.755  14.011   9.814
86599SOL    HW261695  12.661  13.967   9.703
86600SOL     OW61696   3.618   6.526   8.226
86600SOL    HW161697   3.713   6.514   8.219
86600SOL    HW261698   3.589   6.536   8.135
86601SOL     OW61699  14.172  13.727   6.805
86601SOL    HW161700  14.121  13.669   6.749
86601SOL    HW261701  14.155  13.815   6.771
86602SOL     OW61702   3.145   8.401  14.113
86602SOL    HW161703   3.205   8.424  14.042
86602SOL    HW261704   3.068   8.457  14.099
86603SOL     OW61705   5.298   4.278   1.368
86603SOL    HW161706   5.393   4.283   1.358
86603SOL    HW261707   5.281   4.189   1.397
86604SOL     OW61708   9.321   8.365   0.636
86604SOL    HW161709   9.338   8.273   0.615
86604SOL    HW261710   9.241   8.363   0.689
86605SOL     OW61711   2.870   0.976  11.071
86605SOL    HW161712   2.866   1.059  11.024
86605SOL    HW261713   2.934   0.923  11.022
86606SOL     OW61714   8.740  11.688   6.132
86606SOL    HW161715   8.760  11.599   6.103
86606SOL    HW261716   8.789  11.744   6.072
86607SOL     OW61717  11.663   3.603   4.270
86607SOL    HW161718  11.690   3.562   4.188
86607SOL    HW261719  11.679   3.696   4.256
86608SOL     OW61720   0.472   4.573   6.266
86608SOL    HW161721   0.449   4.609   6.180
86608SOL    HW261722   0.535   4.636   6.301
86609SOL     OW61723   8.080   9.529   1.231
86609SOL    HW161724   8.042   9.584   1.162
86609SOL    HW261725   8.056   9.440   1.206
86610SOL     OW61726   2.612   4.822   2.711
86610SOL    HW161727   2.697   4.787   2.687
86610SOL    HW261728   2.631   4.889   2.777
86611SOL     OW61729   9.098   7.758   6.877
86611SOL    HW161730   9.190   7.746   6.902
86611SOL    HW261731   9.081   7.851   6.893
86612SOL     OW61732  13.290   6.765   3.282
86612SOL    HW161733  13.360   6.742   3.221
86612SOL    HW261734  13.294   6.697   3.349
86613SOL     OW61735   0.191  11.871   7.793
86613SOL    HW161736   0.152  11.854   7.707
86613SOL    HW261737   0.161  11.799   7.848
86614SOL     OW61738   1.015  11.628  12.483
86614SOL    HW161739   1.104  11.661  12.473
86614SOL    HW261740   0.980  11.676  12.558
86615SOL     OW61741   9.287  13.927   1.878
86615SOL    HW161742   9.275  13.843   1.834
86615SOL    HW261743   9.205  13.940   1.926
86616SOL     OW61744   8.532   1.100   0.416
86616SOL    HW161745   8.466   1.131   0.478
86616SOL    HW261746   8.593   1.173   0.407
86617SOL     OW61747   2.357  10.455   8.125
86617SOL    HW161748   2.434  10.399   8.126
86617SOL    HW261749   2.343  10.475   8.032
86618SOL     OW61750   9.278   1.397   0.799
86618SOL    HW161751   9.299   1.305   0.784
86618SOL    HW261752   9.260   1.431   0.711
86619SOL     OW61753  14.522   0.107   5.534
86619SOL    HW161754  14.542   0.154   5.615
86619SOL    HW261755  14.427   0.110   5.527
86620SOL     OW61756   4.252  11.097   3.826
86620SOL    HW161757   4.179  11.035   3.824
86620SOL    HW261758   4.324  11.048   3.864
86621SOL     OW61759   7.192  12.164  14.217
86621SOL    HW161760   7.186  12.168  14.121
86621SOL    HW261761   7.212  12.072  14.235
86622SOL     OW61762   3.766  14.857  13.244
86622SOL    HW161763   3.749   0.066  13.223
86622SOL    HW261764   3.764  14.854  13.340
86623SOL     OW61765  12.648  13.182   0.672
86623SOL    HW161766  12.720  13.121   0.651
86623SOL    HW261767  12.625  13.221   0.588
86624SOL     OW61768  10.757   6.486   7.858
86624SOL    HW161769  10.669   6.462   7.889
86624SOL    HW261770  10.806   6.404   7.859
86625SOL     OW61771   6.583   3.608   2.453
86625SOL    HW161772   6.560   3.549   2.382
86625SOL    HW261773   6.550   3.694   2.424
86626SOL     OW61774   4.466   6.928   2.028
86626SOL    HW161775   4.464   7.012   1.983
86626SOL    HW261776   4.374   6.910   2.049
86627SOL     OW61777   5.685   9.828   6.624
86627SOL    HW161778   5.753   9.885   6.659
86627SOL    HW261779   5.710   9.740   6.653
86628SOL     OW61780  10.227   2.226  12.029
86628SOL    HW161781  10.279   2.184  12.097
86628SOL    HW261782  10.165   2.159  12.001
86629SOL     OW61783   9.396  10.624  13.861
86629SOL    HW161784   9.417  10.532  13.872
86629SOL    HW261785   9.472  10.671  13.895
86630SOL     OW61786  13.262   5.192   9.046
86630SOL    HW161787  13.185   5.155   9.090
86630SOL    HW261788  13.330   5.189   9.113
86631SOL     OW61789  10.438   5.016   8.048
86631SOL    HW161790  10.351   5.038   8.083
86631SOL    HW261791  10.483   4.974   8.121
86632SOL     OW61792   4.403  14.099   8.636
86632SOL    HW161793   4.330  14.038   8.647
86632SOL    HW261794   4.417  14.103   8.541
86633SOL     OW61795  12.732   5.078   9.584
86633SOL    HW161796  12.701   5.080   9.494
86633SOL    HW261797  12.722   5.168   9.615
86634SOL     OW61798  11.860   1.599   0.220
86634SOL    HW161799  11.783   1.576   0.169
86634SOL    HW261800  11.933   1.555   0.175
86635SOL     OW61801   5.593   8.687   8.068
86635SOL    HW161802   5.528   8.665   8.001
86635SOL    HW261803   5.677   8.684   8.021
86636SOL     OW61804   9.950   8.925   8.209
86636SOL    HW161805   9.933   8.876   8.289
86636SOL    HW261806   9.892   9.001   8.214
86637SOL     OW61807   4.290  11.388   5.579
86637SOL    HW161808   4.285  11.483   5.571
86637SOL    HW261809   4.330  11.373   5.665
86638SOL     OW61810   1.144  12.823   0.740
86638SOL    HW161811   1.173  12.802   0.828
86638SOL    HW261812   1.050  12.842   0.750
86639SOL     OW61813   3.242   3.789   7.304
86639SOL    HW161814   3.210   3.754   7.221
86639SOL    HW261815   3.216   3.723   7.369
86640SOL     OW61816   3.863   9.981  11.197
86640SOL    HW161817   3.888   9.975  11.289
86640SOL    HW261818   3.781  10.029  11.196
86641SOL     OW61819  10.376  14.062   2.321
86641SOL    HW161820  10.379  14.155   2.342
86641SOL    HW261821  10.303  14.053   2.261
86642SOL     OW61822   6.020  10.008  11.124
86642SOL    HW161823   5.958   9.999  11.052
86642SOL    HW261824   5.997  10.090  11.166
86643SOL     OW61825  12.730   4.754   9.780
86643SOL    HW161826  12.824   4.738   9.792
86643SOL    HW261827  12.726   4.819   9.709
86644SOL     OW61828   7.569  10.941  14.467
86644SOL    HW161829   7.660  10.935  14.496
86644SOL    HW261830   7.565  11.023  14.417
86645SOL     OW61831  12.424  11.301  12.356
86645SOL    HW161832  12.350  11.259  12.311
86645SOL    HW261833  12.501  11.255  12.324
86646SOL     OW61834   1.736  12.702   3.456
86646SOL    HW161835   1.738  12.617   3.412
86646SOL    HW261836   1.645  12.710   3.487
86647SOL     OW61837   7.428   4.540   0.899
86647SOL    HW161838   7.417   4.481   0.974
86647SOL    HW261839   7.511   4.514   0.860
86648SOL     OW61840   9.076  14.855  10.898
86648SOL    HW161841   8.992   0.017  10.913
86648SOL    HW261842   9.061  14.803  10.819
86649SOL     OW61843   9.640  12.185  12.647
86649SOL    HW161844   9.635  12.090  12.643
86649SOL    HW261845   9.637  12.213  12.555
86650SOL     OW61846   2.824   1.267   8.231
86650SOL    HW161847   2.912   1.229   8.228
86650SOL    HW261848   2.782   1.226   8.307
86651SOL     OW61849   3.502  11.555  12.242
86651SOL    HW161850   3.514  11.466  12.275
86651SOL    HW261851   3.563  11.562  12.168
86652SOL     OW61852   7.450   5.691  11.818
86652SOL    HW161853   7.374   5.634  11.832
86652SOL    HW261854   7.417   5.761  11.762
86653SOL     OW61855  13.741   3.615  13.575
86653SOL    HW161856  13.686   3.611  13.653
86653SOL    HW261857  13.763   3.524  13.557
86654SOL     OW61858  14.792   9.632  10.923
86654SOL    HW161859  14.701   9.611  10.942
86654SOL    HW261860  14.816   9.573  10.852
86655SOL     OW61861   1.254   3.160  10.334
86655SOL    HW161862   1.296   3.141  10.418
86655SOL    HW261863   1.290   3.245  10.307
86656SOL     OW61864   7.674  11.135  13.775
86656SOL    HW161865   7.756  11.106  13.734
86656SOL    HW261866   7.651  11.064  13.834
86657SOL     OW61867  13.690  11.511   4.665
86657SOL    HW161868  13.773  11.533   4.706
86657SOL    HW261869  13.627  11.513   4.736
86658SOL     OW61870   8.770   4.321   5.485
86658SOL    HW161871   8.833   4.378   5.439
86658SOL    HW261872   8.824   4.250   5.520
86659SOL     OW61873   2.824   8.862   0.011
86659SOL    HW161874   2.732   8.888   0.010
86659SOL    HW261875   2.823   8.767   0.001
86660SOL     OW61876  11.561  10.616  12.263
86660SOL    HW161877  11.483  10.561  12.274
86660SOL    HW261878  11.563  10.671  12.341
86661SOL     OW61879  13.612  10.855   6.912
86661SOL    HW161880  13.532  10.831   6.959
86661SOL    HW261881  13.621  10.949   6.926
86662SOL     OW61882  11.085   3.435   3.126
86662SOL    HW161883  11.051   3.518   3.092
86662SOL    HW261884  11.075   3.373   3.053
86663SOL     OW61885  14.138   5.282  10.003
86663SOL    HW161886  14.161   5.304   9.912
86663SOL    HW261887  14.172   5.355  10.055
86664SOL     OW61888   7.478  13.696   7.043
86664SOL    HW161889   7.506  13.690   7.135
86664SOL    HW261890   7.388  13.662   7.043
86665SOL     OW61891  13.373   2.560   7.206
86665SOL    HW161892  13.438   2.490   7.194
86665SOL    HW261893  13.297   2.531   7.156
86666SOL     OW61894   9.299   2.387   8.152
86666SOL    HW161895   9.279   2.443   8.077
86666SOL    HW261896   9.395   2.384   8.155
86667SOL     OW61897   6.444   7.531   3.322
86667SOL    HW161898   6.478   7.449   3.287
86667SOL    HW261899   6.360   7.508   3.361
86668SOL     OW61900   2.813   7.999  12.814
86668SOL    HW161901   2.856   7.914  12.829
86668SOL    HW261902   2.884   8.058  12.789
86669SOL     OW61903  14.145   1.483   9.530
86669SOL    HW161904  14.184   1.413   9.478
86669SOL    HW261905  14.099   1.438   9.601
86670SOL     OW61906   1.948   4.633   7.639
86670SOL    HW161907   2.008   4.643   7.713
86670SOL    HW261908   2.001   4.592   7.570
86671SOL     OW61909  12.476  11.534  14.591
86671SOL    HW161910  12.468  11.520  14.686
86671SOL    HW261911  12.476  11.446  14.554
86672SOL     OW61912   8.299   3.693  13.612
86672SOL    HW161913   8.353   3.758  13.567
86672SOL    HW261914   8.222   3.684  13.556
86673SOL     OW61915   2.422   5.335   5.823
86673SOL    HW161916   2.477   5.412   5.810
86673SOL    HW261917   2.421   5.322   5.918
86674SOL     OW61918   1.256   3.687   4.184
86674SOL    HW161919   1.209   3.690   4.268
86674SOL    HW261920   1.343   3.656   4.207
86675SOL     OW61921  11.575   9.835  11.408
86675SOL    HW161922  11.587   9.765  11.472
86675SOL    HW261923  11.611   9.913  11.450
86676SOL     OW61924   2.894   5.593   1.240
86676SOL    HW161925   2.877   5.592   1.334
86676SOL    HW261926   2.975   5.644   1.231
86677SOL     OW61927   2.185   4.509  11.805
86677SOL    HW161928   2.162   4.559  11.883
86677SOL    HW261929   2.165   4.418  11.828
86678SOL     OW61930   9.585   1.507  14.593
86678SOL    HW161931   9.671   1.466  14.592
86678SOL    HW261932   9.531   1.450  14.648
86679SOL     OW61933   7.013  10.118   4.210
86679SOL    HW161934   6.985  10.208   4.189
86679SOL    HW261935   7.089  10.129   4.266
86680SOL     OW61936   0.147   9.205  12.775
86680SOL    HW161937   0.070   9.208  12.719
86680SOL    HW261938   0.131   9.132  12.835
86681SOL     OW61939   8.558  10.590   3.491
86681SOL    HW161940   8.497  10.637   3.549
86681SOL    HW261941   8.534  10.619   3.403
86682SOL     OW61942   2.597  13.388   6.444
86682SOL    HW161943   2.625  13.448   6.375
86682SOL    HW261944   2.651  13.412   6.520
86683SOL     OW61945   8.730   4.210  13.827
86683SOL    HW161946   8.771   4.149  13.766
86683SOL    HW261947   8.801   4.238  13.885
86684SOL     OW61948  11.952   3.043   2.859
86684SOL    HW161949  11.998   3.122   2.886
86684SOL    HW261950  12.019   2.975   2.857
86685SOL     OW61951  11.320   1.119   5.997
86685SOL    HW161952  11.398   1.073   6.028
86685SOL    HW261953  11.304   1.186   6.063
86686SOL     OW61954   1.889  10.902   1.180
86686SOL    HW161955   1.820  10.875   1.241
86686SOL    HW261956   1.945  10.961   1.231
86687SOL     OW61957   0.330  13.113   0.477
86687SOL    HW161958   0.286  13.134   0.395
86687SOL    HW261959   0.347  13.199   0.517
86688SOL     OW61960  12.959  10.427   1.443
86688SOL    HW161961  13.017  10.352   1.459
86688SOL    HW261962  13.009  10.485   1.386
86689SOL     OW61963   5.204  11.562   2.213
86689SOL    HW161964   5.235  11.624   2.279
86689SOL    HW261965   5.109  11.564   2.220
86690SOL     OW61966   6.807   1.915   8.070
86690SOL    HW161967   6.811   1.851   7.999
86690SOL    HW261968   6.716   1.913   8.099
86691SOL     OW61969   6.535   4.941   2.960
86691SOL    HW161970   6.571   5.027   2.939
86691SOL    HW261971   6.610   4.892   2.993
86692SOL     OW61972   6.894  11.094  14.579
86692SOL    HW161973   6.922  11.003  14.565
86692SOL    HW261974   6.832  11.110  14.508
86693SOL     OW61975  13.713   7.938   3.847
86693SOL    HW161976  13.660   7.991   3.787
86693SOL    HW261977  13.666   7.941   3.930
86694SOL     OW61978   6.547   4.021   0.659
86694SOL    HW161979   6.491   3.949   0.629
86694SOL    HW261980   6.599   3.983   0.730
86695SOL     OW61981   9.614   5.450   9.979
86695SOL    HW161982   9.699   5.422  10.014
86695SOL    HW261983   9.582   5.514  10.042
86696SOL     OW61984  12.930  14.783  10.496
86696SOL    HW161985  12.965  14.842  10.562
86696SOL    HW261986  12.867  14.728  10.543
86697SOL     OW61987   6.270   4.106   8.526
86697SOL    HW161988   6.266   4.064   8.440
86697SOL    HW261989   6.182   4.143   8.539
86698SOL     OW61990   9.367   7.777   7.217
86698SOL    HW161991   9.431   7.713   7.249
86698SOL    HW261992   9.375   7.850   7.278
86699SOL     OW61993  11.735   3.690   8.025
86699SOL    HW161994  11.741   3.606   8.071
86699SOL    HW261995  11.675   3.742   8.078
86700SOL     OW61996  14.261  11.848  14.807
86700SOL    HW161997  14.207  11.875  14.733
86700SOL    HW261998  14.340  11.902  14.800
86701SOL     OW61999   7.300  12.405   1.115
86701SOL    HW162000   7.363  12.417   1.045
86701SOL    HW262001   7.351  12.374   1.190
86702SOL     OW62002   6.071   4.021  14.630
86702SOL    HW162003   6.028   3.991  14.710
86702SOL    HW262004   6.158   3.981  14.633
86703SOL     OW62005   6.209  12.357  13.720
86703SOL    HW162006   6.250  12.443  13.725
86703SOL    HW262007   6.116  12.375  13.712
86704SOL     OW62008  14.791   4.792   3.232
86704SOL    HW162009  14.796   4.772   3.325
86704SOL    HW262010  14.877   4.827   3.210
86705SOL     OW62011   2.899   5.627   3.693
86705SOL    HW162012   2.936   5.539   3.689
86705SOL    HW262013   2.974   5.685   3.685
86706SOL     OW62014   7.325   6.328   0.834
86706SOL    HW162015   7.368   6.293   0.755
86706SOL    HW262016   7.236   6.293   0.831
86707SOL     OW62017  10.224   6.308   1.512
86707SOL    HW162018  10.133   6.289   1.536
86707SOL    HW262019  10.217   6.374   1.443
86708SOL     OW62020   3.699  11.510  14.145
86708SOL    HW162021   3.619  11.563  14.135
86708SOL    HW262022   3.698  11.452  14.069
86709SOL     OW62023   5.678  10.390   8.901
86709SOL    HW162024   5.588  10.396   8.869
86709SOL    HW262025   5.702  10.298   8.889
86710SOL     OW62026   1.533   8.065   3.771
86710SOL    HW162027   1.509   8.100   3.857
86710SOL    HW262028   1.558   8.142   3.720
86711SOL     OW62029   0.431   3.585   7.170
86711SOL    HW162030   0.522   3.567   7.194
86711SOL    HW262031   0.423   3.680   7.174
86712SOL     OW62032   9.741  13.125  12.059
86712SOL    HW162033   9.822  13.125  12.008
86712SOL    HW262034   9.757  13.066  12.132
86713SOL     OW62035   6.205   5.057   3.301
86713SOL    HW162036   6.271   5.118   3.269
86713SOL    HW262037   6.168   5.018   3.221
86714SOL     OW62038   5.188   2.961   1.493
86714SOL    HW162039   5.255   2.981   1.558
86714SOL    HW262040   5.135   3.041   1.489
86715SOL     OW62041   1.623  10.982   0.514
86715SOL    HW162042   1.542  10.967   0.562
86715SOL    HW262043   1.664  10.896   0.510
86716SOL     OW62044  13.700   9.998   7.836
86716SOL    HW162045  13.667   9.975   7.923
86716SOL    HW262046  13.710  10.093   7.839
86717SOL     OW62047  11.536   1.593  11.187
86717SOL    HW162048  11.452   1.636  11.203
86717SOL    HW262049  11.521   1.501  11.210
86718SOL     OW62050  10.558   2.942   9.036
86718SOL    HW162051  10.633   2.884   9.051
86718SOL    HW262052  10.588   3.003   8.969
86719SOL     OW62053  11.821   1.737   4.353
86719SOL    HW162054  11.825   1.656   4.404
86719SOL    HW262055  11.867   1.801   4.408
86720SOL     OW62056   8.235  13.743  12.489
86720SOL    HW162057   8.142  13.721  12.482
86720SOL    HW262058   8.259  13.775  12.402
86721SOL     OW62059   3.784   5.162   4.977
86721SOL    HW162060   3.829   5.114   5.046
86721SOL    HW262061   3.798   5.109   4.898
86722SOL     OW62062   8.344   7.111   1.988
86722SOL    HW162063   8.293   7.164   1.927
86722SOL    HW262064   8.435   7.136   1.972
86723SOL     OW62065   8.507   9.812   4.359
86723SOL    HW162066   8.473   9.853   4.439
86723SOL    HW262067   8.429   9.785   4.311
86724SOL     OW62068   2.839   4.687   3.669
86724SOL    HW162069   2.774   4.757   3.678
86724SOL    HW262070   2.923   4.731   3.677
86725SOL     OW62071  14.531   2.278   9.606
86725SOL    HW162072  14.610   2.242   9.565
86725SOL    HW262073  14.496   2.206   9.657
86726SOL     OW62074  10.250   4.717   9.091
86726SOL    HW162075  10.342   4.720   9.116
86726SOL    HW262076  10.226   4.809   9.075
86727SOL     OW62077   6.271   6.137   1.144
86727SOL    HW162078   6.204   6.198   1.112
86727SOL    HW262079   6.234   6.101   1.224
86728SOL     OW62080   1.344  12.167  12.759
86728SOL    HW162081   1.354  12.082  12.802
86728SOL    HW262082   1.417  12.171  12.697
86729SOL     OW62083   6.936  12.256  10.210
86729SOL    HW162084   7.029  12.258  10.190
86729SOL    HW262085   6.893  12.278  10.127
86730SOL     OW62086   1.862  10.439   2.818
86730SOL    HW162087   1.847  10.407   2.907
86730SOL    HW262088   1.791  10.501   2.803
86731SOL     OW62089   8.626  11.197   8.569
86731SOL    HW162090   8.580  11.126   8.613
86731SOL    HW262091   8.582  11.204   8.484
86732SOL     OW62092   2.918   3.923   9.341
86732SOL    HW162093   2.877   3.977   9.274
86732SOL    HW262094   2.883   3.956   9.423
86733SOL     OW62095   2.534  13.289  10.505
86733SOL    HW162096   2.588  13.265  10.429
86733SOL    HW262097   2.456  13.234  10.498
86734SOL     OW62098  12.559  11.993   3.922
86734SOL    HW162099  12.507  12.020   3.846
86734SOL    HW262100  12.636  12.049   3.918
86735SOL     OW62101   1.634   7.067  12.449
86735SOL    HW162102   1.582   7.078  12.369
86735SOL    HW262103   1.571   7.071  12.520
86736SOL     OW62104   0.747   1.825   6.670
86736SOL    HW162105   0.815   1.760   6.688
86736SOL    HW262106   0.745   1.879   6.749
86737SOL     OW62107   9.139  14.572   0.297
86737SOL    HW162108   9.196  14.630   0.247
86737SOL    HW262109   9.130  14.494   0.241
86738SOL     OW62110   5.478  10.669  11.408
86738SOL    HW162111   5.470  10.610  11.333
86738SOL    HW262112   5.572  10.674  11.425
86739SOL     OW62113   8.803  12.792   7.636
86739SOL    HW162114   8.837  12.737   7.706
86739SOL    HW262115   8.778  12.874   7.680
86740SOL     OW62116  11.062   9.294   7.571
86740SOL    HW162117  11.048   9.283   7.477
86740SOL    HW262118  11.003   9.230   7.611
86741SOL     OW62119   5.928   0.424  10.902
86741SOL    HW162120   5.944   0.518  10.893
86741SOL    HW262121   5.834   0.415  10.893
86742SOL     OW62122  10.381   8.132   4.650
86742SOL    HW162123  10.390   8.205   4.711
86742SOL    HW262124  10.434   8.156   4.575
86743SOL     OW62125   3.856   7.439  11.066
86743SOL    HW162126   3.835   7.526  11.099
86743SOL    HW262127   3.780   7.415  11.012
86744SOL     OW62128  13.050   3.429   6.680
86744SOL    HW162129  13.121   3.427   6.744
86744SOL    HW262130  13.027   3.522   6.672
86745SOL     OW62131  10.069  12.247   9.085
86745SOL    HW162132  10.039  12.196   9.010
86745SOL    HW262133   9.993  12.251   9.143
86746SOL     OW62134   1.224  14.455   9.406
86746SOL    HW162135   1.143  14.403   9.400
86746SOL    HW262136   1.260  14.454   9.317
86747SOL     OW62137   3.210   7.386   0.152
86747SOL    HW162138   3.247   7.332   0.081
86747SOL    HW262139   3.127   7.344   0.173
86748SOL     OW62140   7.576  11.967   7.645
86748SOL    HW162141   7.667  11.988   7.666
86748SOL    HW262142   7.575  11.872   7.632
86749SOL     OW62143   6.978   9.094   6.212
86749SOL    HW162144   6.900   9.122   6.164
86749SOL    HW262145   6.985   9.157   6.284
86750SOL     OW62146   1.505   4.120   6.462
86750SOL    HW162147   1.470   4.060   6.396
86750SOL    HW262148   1.488   4.207   6.427
86751SOL     OW62149   1.917   7.702   8.890
86751SOL    HW162150   1.913   7.688   8.795
86751SOL    HW262151   1.962   7.785   8.900
86752SOL     OW62152   9.376  13.882  11.743
86752SOL    HW162153   9.384  13.934  11.823
86752SOL    HW262154   9.346  13.945  11.677
86753SOL     OW62155   2.169   1.240  13.363
86753SOL    HW162156   2.210   1.312  13.412
86753SOL    HW262157   2.176   1.266  13.271
86754SOL     OW62158   7.562   1.885   4.612
86754SOL    HW162159   7.482   1.915   4.654
86754SOL    HW262160   7.633   1.926   4.662
86755SOL     OW62161   2.073   5.720   4.068
86755SOL    HW162162   2.092   5.713   3.974
86755SOL    HW262163   2.080   5.630   4.100
86756SOL     OW62164  14.480   9.222   2.079
86756SOL    HW162165  14.499   9.186   2.166
86756SOL    HW262166  14.438   9.150   2.032
86757SOL     OW62167   1.513   6.863   9.980
86757SOL    HW162168   1.509   6.889   9.888
86757SOL    HW262169   1.422   6.844  10.003
86758SOL     OW62170  10.912   9.054   3.036
86758SOL    HW162171  10.964   9.130   3.061
86758SOL    HW262172  10.832   9.061   3.089
86759SOL     OW62173   5.047  12.143   5.400
86759SOL    HW162174   4.964  12.106   5.432
86759SOL    HW262175   5.108  12.133   5.473
86760SOL     OW62176   5.269   7.966   8.405
86760SOL    HW162177   5.247   7.980   8.497
86760SOL    HW262178   5.246   7.874   8.388
86761SOL     OW62179   4.014  11.848   2.901
86761SOL    HW162180   4.061  11.910   2.956
86761SOL    HW262181   3.922  11.873   2.911
86762SOL     OW62182  12.682  12.880   5.399
86762SOL    HW162183  12.776  12.896   5.391
86762SOL    HW262184  12.656  12.844   5.314
86763SOL     OW62185   3.328   1.112   3.765
86763SOL    HW162186   3.403   1.171   3.760
86763SOL    HW262187   3.265   1.149   3.703
86764SOL     OW62188  12.865   3.768   7.068
86764SOL    HW162189  12.812   3.771   7.148
86764SOL    HW262190  12.824   3.831   7.009
86765SOL     OW62191   8.851  11.194   2.111
86765SOL    HW162192   8.878  11.268   2.057
86765SOL    HW262193   8.761  11.215   2.137
86766SOL     OW62194   7.604  11.300   4.083
86766SOL    HW162195   7.643  11.213   4.093
86766SOL    HW262196   7.513  11.289   4.112
86767SOL     OW62197  13.265   0.373   5.155
86767SOL    HW162198  13.250   0.461   5.122
86767SOL    HW262199  13.360   0.369   5.169
86768SOL     OW62200   2.728  13.743   4.497
86768SOL    HW162201   2.642  13.764   4.461
86768SOL    HW262202   2.715  13.739   4.591
86769SOL     OW62203   4.402   7.606  13.703
86769SOL    HW162204   4.325   7.658  13.682
86769SOL    HW262205   4.475   7.655  13.663
86770SOL     OW62206   7.347   2.866   0.512
86770SOL    HW162207   7.403   2.939   0.535
86770SOL    HW262208   7.386   2.790   0.555
86771SOL     OW62209  11.547   8.407   4.348
86771SOL    HW162210  11.513   8.472   4.287
86771SOL    HW262211  11.628   8.375   4.307
86772SOL     OW62212  12.851   2.532   4.452
86772SOL    HW162213  12.818   2.525   4.542
86772SOL    HW262214  12.790   2.592   4.409
86773SOL     OW62215   0.221  11.370  11.419
86773SOL    HW162216   0.145  11.416  11.383
86773SOL    HW262217   0.187  11.284  11.445
86774SOL     OW62218   9.146   1.713   2.984
86774SOL    HW162219   9.126   1.807   2.993
86774SOL    HW262220   9.241   1.708   2.989
86775SOL     OW62221   1.716   6.212  11.393
86775SOL    HW162222   1.659   6.267  11.339
86775SOL    HW262223   1.660   6.178  11.462
86776SOL     OW62224  13.884   0.651   4.568
86776SOL    HW162225  13.945   0.601   4.515
86776SOL    HW262226  13.799   0.637   4.528
86777SOL     OW62227  14.392  13.646   2.881
86777SOL    HW162228  14.387  13.551   2.896
86777SOL    HW262229  14.308  13.668   2.841
86778SOL     OW62230  12.223   7.805  11.980
86778SOL    HW162231  12.307   7.811  11.934
86778SOL    HW262232  12.213   7.891  12.022
86779SOL     OW62233   9.292   2.286   3.974
86779SOL    HW162234   9.204   2.323   3.980
86779SOL    HW262235   9.284   2.199   4.013
86780SOL     OW62236   1.136  13.590  10.051
86780SOL    HW162237   1.220  13.594  10.007
86780SOL    HW262238   1.130  13.500  10.084
86781SOL     OW62239   2.034   2.134  14.724
86781SOL    HW162240   2.083   2.184  14.659
86781SOL    HW262241   1.944   2.166  14.715
86782SOL     OW62242   5.809  12.662  13.499
86782SOL    HW162243   5.897  12.679  13.463
86782SOL    HW262244   5.756  12.736  13.467
86783SOL     OW62245  13.988   7.379  10.731
86783SOL    HW162246  13.986   7.323  10.809
86783SOL    HW262247  13.938   7.457  10.755
86784SOL     OW62248   4.383   2.214   0.432
86784SOL    HW162249   4.304   2.203   0.484
86784SOL    HW262250   4.410   2.125   0.410
86785SOL     OW62251   3.708  11.633  10.540
86785SOL    HW162252   3.763  11.705  10.572
86785SOL    HW262253   3.699  11.575  10.616
86786SOL     OW62254   6.868   1.298  11.564
86786SOL    HW162255   6.847   1.363  11.632
86786SOL    HW262256   6.860   1.346  11.482
86787SOL     OW62257   4.102   1.200   7.160
86787SOL    HW162258   4.060   1.212   7.245
86787SOL    HW262259   4.044   1.244   7.098
86788SOL     OW62260  11.818   1.948   9.327
86788SOL    HW162261  11.868   1.867   9.332
86788SOL    HW262262  11.727   1.920   9.321
86789SOL     OW62263  12.213  12.999   7.800
86789SOL    HW162264  12.223  12.914   7.758
86789SOL    HW262265  12.301  13.021   7.832
86790SOL     OW62266   9.335   1.281   6.122
86790SOL    HW162267   9.370   1.235   6.046
86790SOL    HW262268   9.252   1.319   6.090
86791SOL     OW62269   2.181  14.092   8.346
86791SOL    HW162270   2.122  14.154   8.390
86791SOL    HW262271   2.232  14.147   8.287
86792SOL     OW62272  12.858   8.162   7.755
86792SOL    HW162273  12.890   8.156   7.845
86792SOL    HW262274  12.923   8.114   7.704
86793SOL     OW62275   2.464   4.615  10.710
86793SOL    HW162276   2.395   4.667  10.749
86793SOL    HW262277   2.541   4.631  10.765
86794SOL     OW62278   7.065   6.880   5.166
86794SOL    HW162279   7.000   6.809   5.174
86794SOL    HW262280   7.077   6.911   5.256
86795SOL     OW62281   5.676  14.790  10.289
86795SOL    HW162282   5.605  14.826  10.237
86795SOL    HW262283   5.732  14.745  10.226
86796SOL     OW62284   4.755  10.742  14.845
86796SOL    HW162285   4.742  10.757  14.752
86796SOL    HW262286   4.666  10.740  14.882
86797SOL     OW62287   1.302   2.238  12.517
86797SOL    HW162288   1.291   2.212  12.425
86797SOL    HW262289   1.284   2.332  12.518
86798SOL     OW62290  14.177  13.132   2.579
86798SOL    HW162291  14.272  13.122   2.580
86798SOL    HW262292  14.162  13.216   2.534
86799SOL     OW62293  14.695   0.673   5.975
86799SOL    HW162294  14.744   0.601   6.012
86799SOL    HW262295  14.604   0.657   6.002
86800SOL     OW62296  13.320   1.263   7.287
86800SOL    HW162297  13.339   1.309   7.369
86800SOL    HW262298  13.227   1.278   7.272
86801SOL     OW62299   0.881   3.921   1.591
86801SOL    HW162300   0.880   3.874   1.507
86801SOL    HW262301   0.929   4.002   1.572
86802SOL     OW62302   2.707  13.055   6.765
86802SOL    HW162303   2.790  13.020   6.795
86802SOL    HW262304   2.670  12.986   6.710
86803SOL     OW62305   0.663  10.255  10.787
86803SOL    HW162306   0.746  10.220  10.819
86803SOL    HW262307   0.603  10.181  10.788
86804SOL     OW62308  14.477   3.423   3.030
86804SOL    HW162309  14.511   3.334   3.039
86804SOL    HW262310  14.396   3.423   3.082
86805SOL     OW62311   6.016  10.330   9.885
86805SOL    HW162312   6.078  10.403   9.874
86805SOL    HW262313   6.066  10.262   9.929
86806SOL     OW62314  13.421   9.937   7.044
86806SOL    HW162315  13.385   9.991   6.973
86806SOL    HW262316  13.476   9.873   7.000
86807SOL     OW62317   9.781   5.416  12.336
86807SOL    HW162318   9.820   5.455  12.258
86807SOL    HW262319   9.852   5.415  12.400
86808SOL     OW62320   0.091  12.692   3.091
86808SOL    HW162321   0.143  12.612   3.081
86808SOL    HW262322   0.047  12.681   3.175
86809SOL     OW62323   2.987   8.585  11.613
86809SOL    HW162324   2.961   8.636  11.690
86809SOL    HW262325   2.945   8.499  11.626
86810SOL     OW62326   4.441  13.597  11.730
86810SOL    HW162327   4.522  13.546  11.734
86810SOL    HW262328   4.372  13.531  11.729
86811SOL     OW62329   6.624   9.794   9.873
86811SOL    HW162330   6.552   9.745   9.833
86811SOL    HW262331   6.595   9.813   9.962
86812SOL     OW62332   1.656   6.123   8.617
86812SOL    HW162333   1.631   6.190   8.553
86812SOL    HW262334   1.655   6.169   8.701
86813SOL     OW62335   7.305  13.028   9.407
86813SOL    HW162336   7.363  12.953   9.397
86813SOL    HW262337   7.224  13.001   9.364
86814SOL     OW62338   4.286  13.205   0.761
86814SOL    HW162339   4.272  13.137   0.695
86814SOL    HW262340   4.209  13.261   0.755
86815SOL     OW62341   9.952   2.992   8.423
86815SOL    HW162342  10.029   3.026   8.468
86815SOL    HW262343   9.924   2.918   8.477
86816SOL     OW62344   4.754  13.176  11.384
86816SOL    HW162345   4.752  13.262  11.341
86816SOL    HW262346   4.829  13.131  11.344
86817SOL     OW62347   1.634   4.764  12.863
86817SOL    HW162348   1.709   4.710  12.884
86817SOL    HW262349   1.664   4.854  12.875
86818SOL     OW62350   3.761   5.128  14.533
86818SOL    HW162351   3.774   5.108  14.626
86818SOL    HW262352   3.778   5.222  14.527
86819SOL     OW62353  13.820   3.385   4.123
86819SOL    HW162354  13.801   3.326   4.049
86819SOL    HW262355  13.759   3.358   4.191
86820SOL     OW62356   9.663  12.495  13.402
86820SOL    HW162357   9.696  12.442  13.329
86820SOL    HW262358   9.645  12.432  13.472
86821SOL     OW62359   1.230   0.744   7.844
86821SOL    HW162360   1.190   0.759   7.758
86821SOL    HW262361   1.304   0.805   7.846
86822SOL     OW62362   1.361   7.899  11.584
86822SOL    HW162363   1.347   7.991  11.605
86822SOL    HW262364   1.280   7.856  11.612
86823SOL     OW62365   0.651   5.209   8.305
86823SOL    HW162366   0.673   5.300   8.324
86823SOL    HW262367   0.556   5.203   8.318
86824SOL     OW62368   1.156  14.823   8.270
86824SOL    HW162369   1.187   0.024   8.236
86824SOL    HW262370   1.168  14.829   8.364
86825SOL     OW62371   2.739   4.403  10.302
86825SOL    HW162372   2.665   4.343  10.290
86825SOL    HW262373   2.764   4.428  10.214
86826SOL     OW62374  13.900   7.421   8.593
86826SOL    HW162375  13.933   7.510   8.579
86826SOL    HW262376  13.830   7.431   8.657
86827SOL     OW62377   8.182  13.094  13.196
86827SOL    HW162378   8.097  13.117  13.159
86827SOL    HW262379   8.244  13.149  13.149
86828SOL     OW62380   9.010  14.117   3.820
86828SOL    HW162381   9.032  14.106   3.728
86828SOL    HW262382   8.991  14.029   3.851
86829SOL     OW62383  11.957  12.012  13.963
86829SOL    HW162384  12.040  12.046  13.930
86829SOL    HW262385  11.981  11.935  14.015
86830SOL     OW62386  13.576  13.865  13.660
86830SOL    HW162387  13.526  13.850  13.740
86830SOL    HW262388  13.663  13.830  13.679
86831SOL     OW62389   4.008   4.497  10.075
86831SOL    HW162390   4.061   4.562  10.029
86831SOL    HW262391   3.975   4.440  10.005
86832SOL     OW62392   5.928   6.255   9.659
86832SOL    HW162393   5.994   6.226   9.722
86832SOL    HW262394   5.978   6.297   9.589
86833SOL     OW62395   0.724  13.403   5.492
86833SOL    HW162396   0.795  13.466   5.481
86833SOL    HW262397   0.648  13.445   5.451
86834SOL     OW62398  14.449  11.981   8.255
86834SOL    HW162399  14.392  12.058   8.259
86834SOL    HW262400  14.515  11.996   8.323
86835SOL     OW62401   9.236  11.542   3.453
86835SOL    HW162402   9.178  11.479   3.410
86835SOL    HW262403   9.264  11.601   3.383
86836SOL     OW62404   6.950  10.244   7.462
86836SOL    HW162405   6.881  10.184   7.492
86836SOL    HW262406   7.016  10.240   7.531
86837SOL     OW62407   6.958  11.497  12.131
86837SOL    HW162408   6.986  11.571  12.184
86837SOL    HW262409   6.982  11.420  12.183
86838SOL     OW62410  11.552   8.165   2.391
86838SOL    HW162411  11.467   8.203   2.367
86838SOL    HW262412  11.578   8.213   2.469
86839SOL     OW62413   7.791   5.879   8.690
86839SOL    HW162414   7.862   5.899   8.751
86839SOL    HW262415   7.711   5.891   8.741
86840SOL     OW62416   3.810  14.400   3.979
86840SOL    HW162417   3.783  14.465   4.044
86840SOL    HW262418   3.858  14.334   4.028
86841SOL     OW62419   2.148   1.842   4.146
86841SOL    HW162420   2.229   1.881   4.179
86841SOL    HW262421   2.175   1.793   4.068
86842SOL     OW62422   9.683   0.859   3.114
86842SOL    HW162423   9.755   0.882   3.056
86842SOL    HW262424   9.724   0.807   3.183
86843SOL     OW62425   2.416  13.364   3.910
86843SOL    HW162426   2.450  13.345   3.997
86843SOL    HW262427   2.420  13.279   3.864
86844SOL     OW62428   5.282   0.992   6.663
86844SOL    HW162429   5.318   1.044   6.591
86844SOL    HW262430   5.192   1.022   6.672
86845SOL     OW62431   8.642   9.192   0.762
86845SOL    HW162432   8.608   9.274   0.728
86845SOL    HW262433   8.711   9.167   0.699
86846SOL     OW62434   6.119  13.410  12.062
86846SOL    HW162435   6.128  13.450  11.976
86846SOL    HW262436   6.038  13.448  12.098
86847SOL     OW62437  13.589   1.986   7.022
86847SOL    HW162438  13.560   2.062   7.073
86847SOL    HW262439  13.683   2.000   7.010
86848SOL     OW62440   0.678  12.407   3.020
86848SOL    HW162441   0.696  12.313   3.008
86848SOL    HW262442   0.688  12.421   3.114
86849SOL     OW62443  12.994   7.619   5.614
86849SOL    HW162444  12.963   7.708   5.629
86849SOL    HW262445  13.085   7.629   5.588
86850SOL     OW62446  10.140   0.930  10.716
86850SOL    HW162447  10.157   0.886  10.799
86850SOL    HW262448  10.116   1.019  10.741
86851SOL     OW62449   7.302   2.311   2.309
86851SOL    HW162450   7.303   2.244   2.240
86851SOL    HW262451   7.218   2.356   2.298
86852SOL     OW62452   1.433  14.463   8.946
86852SOL    HW162453   1.528  14.469   8.934
86852SOL    HW262454   1.397  14.472   8.858
86853SOL     OW62455  13.426   4.055   8.827
86853SOL    HW162456  13.512   4.084   8.857
86853SOL    HW262457  13.365   4.116   8.867
86854SOL     OW62458   5.454   6.777   5.982
86854SOL    HW162459   5.422   6.842   6.045
86854SOL    HW262460   5.534   6.742   6.022
86855SOL     OW62461   3.299   5.698   3.888
86855SOL    HW162462   3.301   5.604   3.871
86855SOL    HW262463   3.283   5.705   3.982
86856SOL     OW62464   5.999   4.337   2.332
86856SOL    HW162465   5.916   4.304   2.365
86856SOL    HW262466   5.986   4.432   2.325
86857SOL     OW62467  11.308  13.755   0.369
86857SOL    HW162468  11.247  13.781   0.300
86857SOL    HW262469  11.376  13.706   0.324
86858SOL     OW62470  10.335   3.702   1.416
86858SOL    HW162471  10.299   3.645   1.348
86858SOL    HW262472  10.319   3.791   1.384
86859SOL     OW62473  14.078   6.950   1.141
86859SOL    HW162474  13.992   6.908   1.150
86859SOL    HW262475  14.100   6.939   1.048
86860SOL     OW62476   6.118  13.043   7.776
86860SOL    HW162477   6.063  12.971   7.743
86860SOL    HW262478   6.064  13.087   7.841
86861SOL     OW62479   3.535   2.685  13.041
86861SOL    HW162480   3.604   2.705  13.105
86861SOL    HW262481   3.581   2.641  12.970
86862SOL     OW62482   8.313  11.273  13.362
86862SOL    HW162483   8.261  11.349  13.388
86862SOL    HW262484   8.404  11.303  13.369
86863SOL     OW62485   1.605   8.796  13.532
86863SOL    HW162486   1.651   8.801  13.448
86863SOL    HW262487   1.634   8.874  13.579
86864SOL     OW62488   3.382  10.292   7.069
86864SOL    HW162489   3.475  10.269   7.065
86864SOL    HW262490   3.355  10.299   6.977
86865SOL     OW62491  11.769   2.749   9.609
86865SOL    HW162492  11.685   2.704   9.602
86865SOL    HW262493  11.784   2.756   9.704
86866SOL     OW62494   7.848   7.054   1.196
86866SOL    HW162495   7.763   7.009   1.189
86866SOL    HW262496   7.906   6.988   1.233
86867SOL     OW62497   4.217  10.450   3.817
86867SOL    HW162498   4.281  10.507   3.859
86867SOL    HW262499   4.139  10.505   3.807
86868SOL     OW62500   2.890   6.436  10.333
86868SOL    HW162501   2.982   6.452  10.355
86868SOL    HW262502   2.851   6.409  10.416
86869SOL     OW62503  14.064   0.006   3.574
86869SOL    HW162504  14.086   0.098   3.591
86869SOL    HW262505  13.992  14.870   3.634
86870SOL     OW62506   8.483   6.422   8.657
86870SOL    HW162507   8.472   6.451   8.566
86870SOL    HW262508   8.470   6.327   8.654
86871SOL     OW62509   4.206   8.801   5.409
86871SOL    HW162510   4.131   8.860   5.411
86871SOL    HW262511   4.181   8.735   5.344
86872SOL     OW62512  10.017   3.905   5.431
86872SOL    HW162513   9.997   3.876   5.342
86872SOL    HW262514  10.026   4.000   5.423
86873SOL     OW62515   0.877   5.862  13.529
86873SOL    HW162516   0.848   5.900  13.612
86873SOL    HW262517   0.958   5.816  13.550
86874SOL     OW62518  11.951   3.911  14.318
86874SOL    HW162519  11.980   3.865  14.239
86874SOL    HW262520  12.015   3.980  14.331
86875SOL     OW62521   9.104  12.723   4.086
86875SOL    HW162522   9.166  12.794   4.097
86875SOL    HW262523   9.046  12.751   4.015
86876SOL     OW62524   7.315   2.493   1.062
86876SOL    HW162525   7.361   2.411   1.046
86876SOL    HW262526   7.269   2.511   0.980
86877SOL     OW62527   1.757  11.455   2.955
86877SOL    HW162528   1.679  11.409   2.923
86877SOL    HW262529   1.830  11.395   2.937
86878SOL     OW62530   8.409   5.552   9.041
86878SOL    HW162531   8.391   5.576   8.950
86878SOL    HW262532   8.350   5.608   9.092
86879SOL     OW62533   8.295   1.520  13.952
86879SOL    HW162534   8.259   1.547  14.036
86879SOL    HW262535   8.270   1.591  13.892
86880SOL     OW62536   1.781   5.265   8.197
86880SOL    HW162537   1.697   5.251   8.153
86880SOL    HW262538   1.772   5.351   8.239
86881SOL     OW62539  12.636  11.977   3.032
86881SOL    HW162540  12.731  11.970   3.022
86881SOL    HW262541  12.624  12.029   3.111
86882SOL     OW62542   2.007   7.987   6.403
86882SOL    HW162543   2.096   7.955   6.391
86882SOL    HW262544   1.996   7.992   6.498
86883SOL     OW62545  13.984   4.059  13.178
86883SOL    HW162546  13.902   4.103  13.203
86883SOL    HW262547  14.014   4.019  13.259
86884SOL     OW62548   7.783   0.501   8.831
86884SOL    HW162549   7.804   0.590   8.859
86884SOL    HW262550   7.807   0.498   8.739
86885SOL     OW62551  12.866   1.590  14.711
86885SOL    HW162552  12.818   1.568  14.791
86885SOL    HW262553  12.917   1.512  14.691
86886SOL     OW62554   0.505  10.957   2.703
86886SOL    HW162555   0.496  10.925   2.793
86886SOL    HW262556   0.531  11.048   2.712
86887SOL     OW62557   3.204   1.676  12.148
86887SOL    HW162558   3.154   1.758  12.153
86887SOL    HW262559   3.295   1.704  12.140
86888SOL     OW62560  12.831  11.056   9.674
86888SOL    HW162561  12.834  10.977   9.619
86888SOL    HW262562  12.759  11.039   9.735
86889SOL     OW62563  12.840   8.457  13.921
86889SOL    HW162564  12.929   8.477  13.893
86889SOL    HW262565  12.814   8.531  13.976
86890SOL     OW62566   2.651   1.836   0.996
86890SOL    HW162567   2.688   1.905   1.052
86890SOL    HW262568   2.557   1.852   0.997
86891SOL     OW62569   0.948  12.482  13.462
86891SOL    HW162570   0.960  12.577  13.464
86891SOL    HW262571   0.868  12.467  13.513
86892SOL     OW62572   6.007  13.551   6.335
86892SOL    HW162573   5.938  13.593   6.284
86892SOL    HW262574   6.088  13.588   6.301
86893SOL     OW62575  10.670   6.619   0.999
86893SOL    HW162576  10.597   6.626   0.936
86893SOL    HW262577  10.636   6.562   1.067
86894SOL     OW62578  14.367  10.770  10.945
86894SOL    HW162579  14.347  10.815  11.027
86894SOL    HW262580  14.304  10.698  10.941
86895SOL     OW62581   9.965   1.465  10.088
86895SOL    HW162582   9.898   1.461  10.020
86895SOL    HW262583  10.039   1.509  10.046
86896SOL     OW62584  11.670   7.745   9.403
86896SOL    HW162585  11.726   7.764   9.478
86896SOL    HW262586  11.601   7.688   9.439
86897SOL     OW62587   8.873  12.121   9.946
86897SOL    HW162588   8.941  12.178   9.911
86897SOL    HW262589   8.852  12.158  10.032
86898SOL     OW62590  14.563  13.315   3.045
86898SOL    HW162591  14.593  13.403   3.069
86898SOL    HW262592  14.475  13.309   3.081
86899SOL     OW62593  10.732  12.419   2.382
86899SOL    HW162594  10.796  12.358   2.346
86899SOL    HW262595  10.731  12.401   2.476
86900SOL     OW62596  10.892   7.149   8.976
86900SOL    HW162597  10.974   7.144   9.026
86900SOL    HW262598  10.827   7.108   9.033
86901SOL     OW62599  13.505  14.810   0.230
86901SOL    HW162600  13.594  14.777   0.220
86901SOL    HW262601  13.474  14.769   0.311
86902SOL     OW62602  12.445   6.075  11.969
86902SOL    HW162603  12.354   6.058  11.946
86902SOL    HW262604  12.441   6.114  12.057
86903SOL     OW62605  11.190   9.096  14.737
86903SOL    HW162606  11.099   9.066  14.736
86903SOL    HW262607  11.184   9.191  14.738
86904SOL     OW62608   8.033   2.533   7.130
86904SOL    HW162609   7.997   2.497   7.048
86904SOL    HW262610   7.963   2.589   7.164
86905SOL     OW62611  14.216   6.666   9.941
86905SOL    HW162612  14.276   6.699  10.008
86905SOL    HW262613  14.141   6.727   9.945
86906SOL     OW62614   0.336   6.320  10.752
86906SOL    HW162615   0.414   6.283  10.712
86906SOL    HW262616   0.265   6.261  10.727
86907SOL     OW62617   5.990   0.755   2.016
86907SOL    HW162618   5.911   0.756   1.963
86907SOL    HW262619   6.046   0.822   1.977
86908SOL     OW62620   8.058   4.064  14.870
86908SOL    HW162621   8.100   4.109  14.797
86908SOL    HW262622   8.077   4.120   0.064
86909SOL     OW62623   6.321   8.870   2.566
86909SOL    HW162624   6.347   8.839   2.653
86909SOL    HW262625   6.295   8.791   2.519
86910SOL     OW62626   6.502  14.763   9.324
86910SOL    HW162627   6.516  14.770   9.230
86910SOL    HW262628   6.413  14.796   9.338
86911SOL     OW62629   5.106  11.766  13.780
86911SOL    HW162630   5.068  11.679  13.788
86911SOL    HW262631   5.092  11.790  13.688
86912SOL     OW62632   3.710   3.078   2.680
86912SOL    HW162633   3.656   3.148   2.717
86912SOL    HW262634   3.797   3.093   2.718
86913SOL     OW62635  13.210  10.881  13.986
86913SOL    HW162636  13.155  10.865  13.910
86913SOL    HW262637  13.157  10.936  14.043
86914SOL     OW62638   8.788  11.256   0.172
86914SOL    HW162639   8.756  11.190   0.110
86914SOL    HW262640   8.716  11.318   0.181
86915SOL     OW62641   0.627  10.011  14.439
86915SOL    HW162642   0.703  10.069  14.449
86915SOL    HW262643   0.588  10.037  14.355
86916SOL     OW62644   7.649  12.372   2.665
86916SOL    HW162645   7.699  12.340   2.590
86916SOL    HW262646   7.600  12.447   2.631
86917SOL     OW62647   7.797   0.384   3.511
86917SOL    HW162648   7.721   0.343   3.471
86917SOL    HW262649   7.838   0.434   3.440
86918SOL     OW62650  12.044   7.251   4.660
86918SOL    HW162651  11.968   7.223   4.711
86918SOL    HW262652  12.094   7.306   4.720
86919SOL     OW62653  13.104  10.283  10.657
86919SOL    HW162654  13.137  10.233  10.731
86919SOL    HW262655  13.021  10.242  10.635
86920SOL     OW62656   5.619   4.392   3.635
86920SOL    HW162657   5.685   4.457   3.609
86920SOL    HW262658   5.670   4.322   3.678
86921SOL     OW62659  11.373   2.097   2.329
86921SOL    HW162660  11.390   2.187   2.356
86921SOL    HW262661  11.312   2.063   2.395
86922SOL     OW62662   4.273  13.301   1.947
86922SOL    HW162663   4.357  13.265   1.976
86922SOL    HW262664   4.233  13.230   1.897
86923SOL     OW62665  11.121   6.697   3.148
86923SOL    HW162666  11.062   6.709   3.222
86923SOL    HW262667  11.067   6.660   3.079
86924SOL     OW62668   7.013   5.571   7.475
86924SOL    HW162669   7.057   5.655   7.461
86924SOL    HW262670   7.015   5.559   7.570
86925SOL     OW62671   3.253   8.494  13.831
86925SOL    HW162672   3.197   8.559  13.789
86925SOL    HW262673   3.221   8.410  13.799
86926SOL     OW62674   4.223   8.458   4.925
86926SOL    HW162675   4.284   8.386   4.939
86926SOL    HW262676   4.155   8.444   4.991
86927SOL     OW62677  10.257  13.984   9.377
86927SOL    HW162678  10.295  13.935   9.450
86927SOL    HW262679  10.330  14.032   9.340
86928SOL     OW62680   7.424   9.528   6.723
86928SOL    HW162681   7.398   9.455   6.668
86928SOL    HW262682   7.465   9.487   6.800
86929SOL     OW62683   8.840   9.732   0.679
86929SOL    HW162684   8.856   9.823   0.657
86929SOL    HW262685   8.833   9.687   0.595
86930SOL     OW62686   3.442   4.359   6.599
86930SOL    HW162687   3.419   4.367   6.506
86930SOL    HW262688   3.359   4.369   6.645
86931SOL     OW62689   2.502   5.011   5.024
86931SOL    HW162690   2.584   5.017   5.073
86931SOL    HW262691   2.435   5.046   5.083
86932SOL     OW62692   1.852   8.763   9.458
86932SOL    HW162693   1.836   8.795   9.546
86932SOL    HW262694   1.800   8.821   9.402
86933SOL     OW62695   8.766  12.922  11.729
86933SOL    HW162696   8.852  12.960  11.743
86933SOL    HW262697   8.754  12.924  11.634
86934SOL     OW62698   9.560   2.910   2.669
86934SOL    HW162699   9.481   2.861   2.649
86934SOL    HW262700   9.613   2.905   2.589
86935SOL     OW62701  14.849  13.567  10.074
86935SOL    HW162702   0.019  13.553  10.153
86935SOL    HW262703  14.806  13.652  10.087
86936SOL     OW62704   3.036   3.156  10.347
86936SOL    HW162705   3.088   3.131  10.271
86936SOL    HW262706   2.950   3.116  10.331
86937SOL     OW62707   0.901   4.027  11.756
86937SOL    HW162708   0.872   3.936  11.759
86937SOL    HW262709   0.952   4.039  11.836
86938SOL     OW62710  11.867   7.619   7.986
86938SOL    HW162711  11.832   7.622   7.897
86938SOL    HW262712  11.797   7.580   8.038
86939SOL     OW62713   9.775   0.561   4.390
86939SOL    HW162714   9.725   0.569   4.470
86939SOL    HW262715   9.750   0.476   4.354
86940SOL     OW62716   0.979   7.653  11.876
86940SOL    HW162717   0.934   7.587  11.823
86940SOL    HW262718   0.934   7.649  11.961
86941SOL     OW62719   8.068   4.697  14.371
86941SOL    HW162720   8.159   4.669  14.370
86941SOL    HW262721   8.054   4.739  14.286
86942SOL     OW62722   6.614  13.102   3.476
86942SOL    HW162723   6.665  13.165   3.426
86942SOL    HW262724   6.613  13.023   3.422
86943SOL     OW62725  12.507   1.397   0.408
86943SOL    HW162726  12.544   1.344   0.337
86943SOL    HW262727  12.557   1.479   0.404
86944SOL     OW62728  11.031   5.583   9.578
86944SOL    HW162729  10.997   5.602   9.490
86944SOL    HW262730  11.120   5.617   9.577
86945SOL     OW62731   0.630   9.620   1.477
86945SOL    HW162732   0.564   9.684   1.502
86945SOL    HW262733   0.685   9.666   1.413
86946SOL     OW62734  12.462   2.429   0.352
86946SOL    HW162735  12.523   2.432   0.279
86946SOL    HW262736  12.412   2.511   0.345
86947SOL     OW62737   2.826   5.529  14.020
86947SOL    HW162738   2.754   5.491  14.072
86947SOL    HW262739   2.790   5.611  13.987
86948SOL     OW62740   3.702   0.131   9.692
86948SOL    HW162741   3.680   0.063   9.755
86948SOL    HW262742   3.704   0.086   9.608
86949SOL     OW62743   2.692   5.381  10.276
86949SOL    HW162744   2.724   5.359  10.189
86949SOL    HW262745   2.658   5.470  10.267
86950SOL     OW62746   7.139   4.473   0.831
86950SOL    HW162747   7.080   4.429   0.771
86950SOL    HW262748   7.154   4.408   0.900
86951SOL     OW62749   5.976   3.455   0.052
86951SOL    HW162750   5.924   3.502   0.117
86951SOL    HW262751   6.060   3.499   0.051
86952SOL     OW62752   9.606   3.931   2.315
86952SOL    HW162753   9.599   3.896   2.404
86952SOL    HW262754   9.692   3.902   2.285
86953SOL     OW62755   9.764   4.290   7.109
86953SOL    HW162756   9.725   4.351   7.170
86953SOL    HW262757   9.719   4.305   7.026
86954SOL     OW62758  13.502   8.391  12.636
86954SOL    HW162759  13.559   8.462  12.606
86954SOL    HW262760  13.483   8.412  12.727
86955SOL     OW62761   4.920   9.156   5.732
86955SOL    HW162762   4.838   9.182   5.774
86955SOL    HW262763   4.918   9.061   5.731
86956SOL     OW62764   9.217   3.027  10.449
86956SOL    HW162765   9.212   2.956  10.385
86956SOL    HW262766   9.153   3.091  10.420
86957SOL     OW62767   8.016   7.421  14.193
86957SOL    HW162768   8.034   7.428  14.100
86957SOL    HW262769   8.016   7.512  14.224
86958SOL     OW62770  11.188   8.304   2.718
86958SOL    HW162771  11.151   8.305   2.807
86958SOL    HW262772  11.169   8.390   2.683
86959SOL     OW62773   6.001  11.520  12.853
86959SOL    HW162774   6.038  11.432  12.850
86959SOL    HW262775   6.077  11.578  12.849
86960SOL     OW62776   9.778  12.432   0.421
86960SOL    HW162777   9.683  12.425   0.425
86960SOL    HW262778   9.810  12.344   0.437
86961SOL     OW62779   3.375   8.860   0.642
86961SOL    HW162780   3.431   8.782   0.638
86961SOL    HW262781   3.358   8.882   0.551
86962SOL     OW62782  12.801   5.543   3.558
86962SOL    HW162783  12.779   5.537   3.651
86962SOL    HW262784  12.801   5.637   3.539
86963SOL     OW62785   4.427  12.217   3.747
86963SOL    HW162786   4.451  12.273   3.821
86963SOL    HW262787   4.335  12.196   3.761
86964SOL     OW62788   3.385   2.943   9.927
86964SOL    HW162789   3.466   2.981   9.961
86964SOL    HW262790   3.386   2.965   9.834
86965SOL     OW62791  10.210   0.674  11.183
86965SOL    HW162792  10.118   0.649  11.181
86965SOL    HW262793  10.251   0.609  11.240
86966SOL     OW62794   3.811   2.120   7.805
86966SOL    HW162795   3.891   2.074   7.781
86966SOL    HW262796   3.802   2.106   7.899
86967SOL     OW62797  13.852  13.101   5.323
86967SOL    HW162798  13.904  13.084   5.402
86967SOL    HW262799  13.805  13.182   5.342
86968SOL     OW62800   0.250   9.622  12.472
86968SOL    HW162801   0.246   9.581  12.559
86968SOL    HW262802   0.273   9.713  12.490
86969SOL     OW62803   1.735   6.307   5.151
86969SOL    HW162804   1.688   6.387   5.174
86969SOL    HW262805   1.709   6.244   5.219
86970SOL     OW62806   3.416  11.639   1.602
86970SOL    HW162807   3.401  11.555   1.645
86970SOL    HW262808   3.420  11.703   1.673
86971SOL     OW62809  14.288  11.259   3.325
86971SOL    HW162810  14.356  11.249   3.257
86971SOL    HW262811  14.332  11.235   3.406
86972SOL     OW62812   4.884   9.494  11.804
86972SOL    HW162813   4.902   9.405  11.776
86972SOL    HW262814   4.815   9.524  11.745
86973SOL     OW62815  11.105  12.022  13.528
86973SOL    HW162816  11.069  11.981  13.450
86973SOL    HW262817  11.173  11.961  13.558
86974SOL     OW62818  12.033   8.492   7.172
86974SOL    HW162819  12.066   8.470   7.085
86974SOL    HW262820  12.112   8.504   7.225
86975SOL     OW62821   4.442  10.086  11.787
86975SOL    HW162822   4.536  10.070  11.795
86975SOL    HW262823   4.405  10.000  11.769
86976SOL     OW62824   1.355   5.247   5.118
86976SOL    HW162825   1.316   5.323   5.161
86976SOL    HW262826   1.358   5.180   5.187
86977SOL     OW62827  12.929   5.630   4.791
86977SOL    HW162828  12.870   5.699   4.759
86977SOL    HW262829  12.877   5.584   4.858
86978SOL     OW62830   8.704  14.088   9.000
86978SOL    HW162831   8.724  14.009   9.050
86978SOL    HW262832   8.780  14.099   8.942
86979SOL     OW62833   8.028   8.957   5.498
86979SOL    HW162834   8.112   8.989   5.530
86979SOL    HW262835   7.965   9.022   5.528
86980SOL     OW62836   9.398   4.358  12.882
86980SOL    HW162837   9.376   4.364  12.975
86980SOL    HW262838   9.494   4.355  12.880
86981SOL     OW62839  13.254   6.902  12.054
86981SOL    HW162840  13.192   6.829  12.053
86981SOL    HW262841  13.340   6.861  12.044
86982SOL     OW62842   4.643  13.339   2.497
86982SOL    HW162843   4.658  13.259   2.548
86982SOL    HW262844   4.699  13.404   2.539
86983SOL     OW62845  12.863  12.037   5.226
86983SOL    HW162846  12.801  12.051   5.298
86983SOL    HW262847  12.934  12.099   5.244
86984SOL     OW62848   4.501   8.674   7.671
86984SOL    HW162849   4.497   8.692   7.765
86984SOL    HW262850   4.583   8.626   7.660
86985SOL     OW62851   8.689   1.602  11.158
86985SOL    HW162852   8.764   1.563  11.202
86985SOL    HW262853   8.658   1.670  11.218
86986SOL     OW62854  12.023   1.954  12.759
86986SOL    HW162855  11.937   1.938  12.722
86986SOL    HW262856  12.006   2.008  12.836
86987SOL     OW62857   1.386   7.342  14.353
86987SOL    HW162858   1.294   7.362  14.341
86987SOL    HW262859   1.414   7.305  14.269
86988SOL     OW62860   1.330  11.232  10.727
86988SOL    HW162861   1.268  11.201  10.660
86988SOL    HW262862   1.295  11.198  10.809
86989SOL     OW62863   9.129   0.165  12.846
86989SOL    HW162864   9.045   0.194  12.882
86989SOL    HW262865   9.142   0.078  12.882
86990SOL     OW62866  13.474   9.916  14.008
86990SOL    HW162867  13.447  10.002  13.975
86990SOL    HW262868  13.420   9.902  14.085
86991SOL     OW62869   7.340  14.788   0.202
86991SOL    HW162870   7.388  14.710   0.230
86991SOL    HW262871   7.376  14.808   0.115
86992SOL     OW62872   5.128   1.983   2.975
86992SOL    HW162873   5.187   1.935   3.033
86992SOL    HW262874   5.153   1.955   2.887
86993SOL     OW62875   4.082   4.762  10.271
86993SOL    HW162876   4.146   4.822  10.311
86993SOL    HW262877   4.041   4.814  10.202
86994SOL     OW62878   5.854  10.573   9.833
86994SOL    HW162879   5.811  10.515   9.770
86994SOL    HW262880   5.894  10.515   9.897
86995SOL     OW62881   5.384   9.131   8.235
86995SOL    HW162882   5.361   9.087   8.317
86995SOL    HW262883   5.478   9.114   8.224
86996SOL     OW62884   4.817  10.138   2.899
86996SOL    HW162885   4.876  10.096   2.961
86996SOL    HW262886   4.782  10.066   2.847
86997SOL     OW62887  11.098  10.398   1.564
86997SOL    HW162888  11.126  10.460   1.498
86997SOL    HW262889  11.151  10.320   1.549
86998SOL     OW62890  11.845   7.012   9.519
86998SOL    HW162891  11.857   6.965   9.436
86998SOL    HW262892  11.921   6.987   9.572
86999SOL     OW62893   0.121   2.718   1.696
86999SOL    HW162894   0.145   2.743   1.607
86999SOL    HW262895   0.200   2.735   1.748
87000SOL     OW62896  12.784   0.738   2.639
87000SOL    HW162897  12.871   0.734   2.678
87000SOL    HW262898  12.735   0.797   2.696
87001SOL     OW62899   4.068   6.894   1.501
87001SOL    HW162900   4.109   6.978   1.480
87001SOL    HW262901   4.132   6.849   1.556
87002SOL     OW62902   3.246  13.321   5.769
87002SOL    HW162903   3.152  13.299   5.770
87002SOL    HW262904   3.266  13.333   5.676
87003SOL     OW62905   3.273  11.849   6.755
87003SOL    HW162906   3.325  11.806   6.822
87003SOL    HW262907   3.333  11.860   6.681
87004SOL     OW62908   4.815   0.579   3.059
87004SOL    HW162909   4.884   0.643   3.076
87004SOL    HW262910   4.847   0.497   3.096
87005SOL     OW62911   2.392  14.466   4.723
87005SOL    HW162912   2.391  14.469   4.627
87005SOL    HW262913   2.456  14.399   4.745
87006SOL     OW62914  12.864   1.861  14.582
87006SOL    HW162915  12.885   1.775  14.620
87006SOL    HW262916  12.949   1.896  14.555
87007SOL     OW62917  13.926   3.976   5.111
87007SOL    HW162918  13.876   3.894   5.103
87007SOL    HW262919  13.866   4.036   5.155
87008SOL     OW62920   9.099   1.459  10.226
87008SOL    HW162921   9.089   1.444  10.320
87008SOL    HW262922   9.176   1.515  10.218
87009SOL     OW62923  14.407   2.293   8.881
87009SOL    HW162924  14.348   2.352   8.927
87009SOL    HW262925  14.370   2.286   8.793
87010SOL     OW62926   6.318   5.680   6.189
87010SOL    HW162927   6.301   5.587   6.175
87010SOL    HW262928   6.257   5.725   6.131
87011SOL     OW62929  13.832   5.103   5.386
87011SOL    HW162930  13.808   5.149   5.467
87011SOL    HW262931  13.926   5.120   5.377
87012SOL     OW62932   8.049   4.900   4.889
87012SOL    HW162933   8.044   4.956   4.811
87012SOL    HW262934   8.132   4.853   4.879
87013SOL     OW62935   5.324   0.203  12.170
87013SOL    HW162936   5.390   0.272  12.175
87013SOL    HW262937   5.372   0.122  12.188
87014SOL     OW62938   5.496  10.569   8.679
87014SOL    HW162939   5.428  10.519   8.632
87014SOL    HW262940   5.571  10.566   8.620
87015SOL     OW62941  11.629  14.047   3.672
87015SOL    HW162942  11.548  14.064   3.720
87015SOL    HW262943  11.614  13.961   3.632
87016SOL     OW62944  13.761   0.523   5.473
87016SOL    HW162945  13.837   0.477   5.437
87016SOL    HW262946  13.695   0.455   5.485
87017SOL     OW62947   0.155   0.716  13.222
87017SOL    HW162948   0.158   0.701  13.127
87017SOL    HW262949   0.235   0.766  13.240
87018SOL     OW62950  13.145   7.817   6.177
87018SOL    HW162951  13.058   7.797   6.213
87018SOL    HW262952  13.171   7.736   6.133
87019SOL     OW62953  13.691   3.185  14.250
87019SOL    HW162954  13.666   3.094  14.229
87019SOL    HW262955  13.750   3.210  14.179
87020SOL     OW62956  13.171  12.647   2.399
87020SOL    HW162957  13.118  12.613   2.470
87020SOL    HW262958  13.225  12.572   2.371
87021SOL     OW62959  14.678   7.077   3.879
87021SOL    HW162960  14.697   7.129   3.957
87021SOL    HW262961  14.582   7.078   3.872
87022SOL     OW62962   0.479  10.983   1.107
87022SOL    HW162963   0.422  11.052   1.073
87022SOL    HW262964   0.556  10.985   1.051
87023SOL     OW62965  14.129   9.469   8.853
87023SOL    HW162966  14.203   9.408   8.856
87023SOL    HW262967  14.076   9.444   8.928
87024SOL     OW62968   2.424   0.013   0.317
87024SOL    HW162969   2.343   0.065   0.314
87024SOL    HW262970   2.436  14.874   0.409
87025SOL     OW62971   6.214   6.266  13.458
87025SOL    HW162972   6.169   6.327  13.400
87025SOL    HW262973   6.280   6.319  13.503
87026SOL     OW62974  13.628  13.354   3.252
87026SOL    HW162975  13.546  13.329   3.295
87026SOL    HW262976  13.697  13.323   3.311
87027SOL     OW62977  13.156   5.148   9.521
87027SOL    HW162978  13.095   5.130   9.593
87027SOL    HW262979  13.199   5.064   9.505
87028SOL     OW62980   5.592  14.109  11.136
87028SOL    HW162981   5.599  14.189  11.084
87028SOL    HW262982   5.594  14.038  11.072
87029SOL     OW62983   4.714   9.914   6.582
87029SOL    HW162984   4.674   9.999   6.561
87029SOL    HW262985   4.720   9.869   6.498
87030SOL     OW62986   8.392  11.436  11.260
87030SOL    HW162987   8.473  11.426  11.210
87030SOL    HW262988   8.395  11.366  11.325
87031SOL     OW62989   7.268  14.384  13.102
87031SOL    HW162990   7.339  14.407  13.042
87031SOL    HW262991   7.199  14.350  13.046
87032SOL     OW62992   5.158  12.502  12.030
87032SOL    HW162993   5.129  12.484  12.119
87032SOL    HW262994   5.240  12.453  12.022
87033SOL     OW62995   9.720   3.257  12.588
87033SOL    HW162996   9.693   3.171  12.554
87033SOL    HW262997   9.709   3.251  12.682
87034SOL     OW62998   9.557   3.516  12.759
87034SOL    HW162999   9.492   3.451  12.733
87034SOL    HW263000   9.592   3.549  12.676
87035SOL     OW63001   7.448  14.615   1.089
87035SOL    HW163002   7.370  14.562   1.100
87035SOL    HW263003   7.416  14.699   1.057
87036SOL     OW63004   1.430  13.098  12.261
87036SOL    HW163005   1.357  13.067  12.208
87036SOL    HW263006   1.436  13.035  12.332
87037SOL     OW63007  11.898   9.184   6.868
87037SOL    HW163008  11.898   9.279   6.877
87037SOL    HW263009  11.981   9.163   6.826
87038SOL     OW63010  13.754   2.584   1.714
87038SOL    HW163011  13.766   2.501   1.668
87038SOL    HW263012  13.725   2.559   1.802
87039SOL     OW63013   7.683   9.814   4.014
87039SOL    HW163014   7.597   9.780   4.038
87039SOL    HW263015   7.741   9.738   4.017
87040SOL     OW63016   3.911   2.621   5.101
87040SOL    HW163017   3.850   2.671   5.047
87040SOL    HW263018   3.908   2.665   5.186
87041SOL     OW63019   0.333  12.648   5.567
87041SOL    HW163020   0.346  12.616   5.656
87041SOL    HW263021   0.421  12.656   5.530
87042SOL     OW63022  13.232  12.003   4.410
87042SOL    HW163023  13.234  12.071   4.478
87042SOL    HW263024  13.139  11.991   4.390
87043SOL     OW63025   1.807   7.030   8.710
87043SOL    HW163026   1.741   7.096   8.730
87043SOL    HW263027   1.825   6.988   8.794
87044SOL     OW63028  10.413   0.654   4.129
87044SOL    HW163029  10.483   0.590   4.123
87044SOL    HW263030  10.375   0.640   4.216
87045SOL     OW63031  14.079   5.082  11.070
87045SOL    HW163032  14.032   4.998  11.062
87045SOL    HW263033  14.037   5.139  11.005
87046SOL     OW63034   4.413   0.766  11.005
87046SOL    HW163035   4.364   0.840  10.969
87046SOL    HW263036   4.347   0.699  11.021
87047SOL     OW63037  14.877   6.088   7.792
87047SOL    HW163038   0.078   6.086   7.744
87047SOL    HW263039  14.810   6.079   7.724
87048SOL     OW63040   9.824   8.881  10.805
87048SOL    HW163041   9.905   8.899  10.756
87048SOL    HW263042   9.768   8.835  10.742
87049SOL     OW63043   1.751  13.699   4.235
87049SOL    HW163044   1.676  13.736   4.282
87049SOL    HW263045   1.806  13.775   4.215
87050SOL     OW63046  14.764  14.629   3.074
87050SOL    HW163047  14.742  14.571   3.146
87050SOL    HW263048  14.811  14.574   3.011
87051SOL     OW63049   5.369   9.488   6.398
87051SOL    HW163050   5.292   9.535   6.367
87051SOL    HW263051   5.334   9.406   6.433
87052SOL     OW63052   6.221   1.914   5.984
87052SOL    HW163053   6.228   1.936   6.077
87052SOL    HW263054   6.127   1.902   5.969
87053SOL     OW63055   9.977  12.266  10.046
87053SOL    HW163056  10.008  12.228   9.963
87053SOL    HW263057   9.971  12.360  10.029
87054SOL     OW63058   4.057   7.535   1.094
87054SOL    HW163059   3.966   7.515   1.076
87054SOL    HW263060   4.106   7.462   1.056
87055SOL     OW63061  14.065   3.678   4.881
87055SOL    HW163062  14.089   3.770   4.872
87055SOL    HW263063  14.147   3.635   4.907
87056SOL     OW63064   0.944  12.388  13.211
87056SOL    HW163065   1.026  12.410  13.167
87056SOL    HW263066   0.946  12.439  13.292
87057SOL     OW63067   7.995   4.339  10.821
87057SOL    HW163068   7.974   4.322  10.912
87057SOL    HW263069   7.972   4.259  10.774
87058SOL     OW63070   1.054   1.723   3.735
87058SOL    HW163071   1.011   1.638   3.725
87058SOL    HW263072   1.129   1.720   3.676
87059SOL     OW63073   9.621  13.414   4.818
87059SOL    HW163074   9.596  13.462   4.897
87059SOL    HW263075   9.683  13.348   4.849
87060SOL     OW63076  11.920  12.761   6.866
87060SOL    HW163077  11.865  12.714   6.804
87060SOL    HW263078  11.982  12.696   6.898
87061SOL     OW63079  12.762  11.791   9.378
87061SOL    HW163080  12.791  11.789   9.469
87061SOL    HW263081  12.779  11.702   9.346
87062SOL     OW63082  12.334  12.210   8.982
87062SOL    HW163083  12.290  12.200   9.066
87062SOL    HW263084  12.399  12.279   8.997
87063SOL     OW63085   9.713   4.857   5.336
87063SOL    HW163086   9.632   4.898   5.305
87063SOL    HW263087   9.719   4.775   5.286
87064SOL     OW63088   9.082  12.982   9.216
87064SOL    HW163089   9.110  13.069   9.187
87064SOL    HW263090   8.995  12.971   9.179
87065SOL     OW63091   9.121   2.644   0.828
87065SOL    HW163092   9.091   2.580   0.764
87065SOL    HW263093   9.040   2.680   0.866
87066SOL     OW63094   1.760  11.153  12.887
87066SOL    HW163095   1.824  11.114  12.946
87066SOL    HW263096   1.747  11.088  12.818
87067SOL     OW63097  11.234   4.509   9.491
87067SOL    HW163098  11.139   4.498   9.496
87067SOL    HW263099  11.268   4.422   9.472
87068SOL     OW63100   6.336   0.720   8.686
87068SOL    HW163101   6.411   0.661   8.678
87068SOL    HW263102   6.359   0.778   8.758
87069SOL     OW63103   6.823   5.030  12.719
87069SOL    HW163104   6.836   4.945  12.759
87069SOL    HW263105   6.753   5.070  12.769
87070SOL     OW63106   8.134   8.806   3.072
87070SOL    HW163107   8.126   8.711   3.081
87070SOL    HW263108   8.175   8.819   2.987
87071SOL     OW63109   9.454   9.671   2.421
87071SOL    HW163110   9.436   9.650   2.330
87071SOL    HW263111   9.417   9.598   2.470
87072SOL     OW63112   5.524  13.988   7.618
87072SOL    HW163113   5.591  13.922   7.599
87072SOL    HW263114   5.452  13.938   7.658
87073SOL     OW63115   8.162   4.394   5.951
87073SOL    HW163116   8.173   4.367   5.859
87073SOL    HW263117   8.094   4.460   5.948
87074SOL     OW63118   6.205  11.024  11.942
87074SOL    HW163119   6.186  11.116  11.928
87074SOL    HW263120   6.204  11.013  12.037
87075SOL     OW63121   4.871   6.661   4.080
87075SOL    HW163122   4.836   6.745   4.051
87075SOL    HW263123   4.865   6.605   4.002
87076SOL     OW63124   2.565   3.585   4.543
87076SOL    HW163125   2.617   3.518   4.587
87076SOL    HW263126   2.628   3.653   4.518
87077SOL     OW63127   3.660   7.490  11.652
87077SOL    HW163128   3.620   7.492  11.565
87077SOL    HW263129   3.604   7.548  11.705
87078SOL     OW63130  11.024   0.792  12.157
87078SOL    HW163131  11.068   0.829  12.081
87078SOL    HW263132  11.081   0.812  12.231
87079SOL     OW63133   1.225  13.485   0.696
87079SOL    HW163134   1.260  13.412   0.644
87079SOL    HW263135   1.248  13.563   0.646
87080SOL     OW63136   9.490  12.001  11.785
87080SOL    HW163137   9.458  12.081  11.827
87080SOL    HW263138   9.514  11.944  11.859
87081SOL     OW63139  10.140   7.045   1.721
87081SOL    HW163140  10.202   6.973   1.731
87081SOL    HW263141  10.056   7.009   1.751
87082SOL     OW63142   0.430  13.087  10.154
87082SOL    HW163143   0.496  13.150  10.182
87082SOL    HW263144   0.473  13.034  10.087
87083SOL     OW63145   7.357   0.419   3.076
87083SOL    HW163146   7.423   0.463   3.130
87083SOL    HW263147   7.313   0.489   3.029
87084SOL     OW63148  10.083  13.471   1.545
87084SOL    HW163149  10.058  13.552   1.501
87084SOL    HW263150  10.152  13.497   1.606
87085SOL     OW63151  10.305   4.518  12.588
87085SOL    HW163152  10.314   4.602  12.543
87085SOL    HW263153  10.253   4.464  12.529
87086SOL     OW63154   8.407  10.430  11.552
87086SOL    HW163155   8.464  10.356  11.529
87086SOL    HW263156   8.337  10.390  11.604
87087SOL     OW63157   0.815  12.156   8.328
87087SOL    HW163158   0.831  12.065   8.302
87087SOL    HW263159   0.895  12.183   8.372
87088SOL     OW63160  11.311   8.379  10.777
87088SOL    HW163161  11.217   8.386  10.760
87088SOL    HW263162  11.343   8.320  10.709
87089SOL     OW63163   3.941   1.295   5.115
87089SOL    HW163164   3.847   1.313   5.114
87089SOL    HW263165   3.950   1.213   5.164
87090SOL     OW63166   1.382  10.185   4.009
87090SOL    HW163167   1.401  10.119   3.943
87090SOL    HW263168   1.348  10.136   4.084
87091SOL     OW63169   1.957   5.471   1.882
87091SOL    HW163170   1.933   5.560   1.859
87091SOL    HW263171   2.021   5.481   1.953
87092SOL     OW63172   3.526   8.560  14.079
87092SOL    HW163173   3.574   8.643  14.073
87092SOL    HW263174   3.437   8.585  14.100
87093SOL     OW63175   6.880   1.013   7.200
87093SOL    HW163176   6.872   1.020   7.105
87093SOL    HW263177   6.806   0.959   7.226
87094SOL     OW63178   2.662   9.837   4.074
87094SOL    HW163179   2.734   9.805   4.128
87094SOL    HW263180   2.705   9.873   3.996
87095SOL     OW63181  12.509  13.317  14.439
87095SOL    HW163182  12.473  13.405  14.450
87095SOL    HW263183  12.507  13.279  14.527
87096SOL     OW63184   0.713   8.189   9.308
87096SOL    HW163185   0.672   8.257   9.255
87096SOL    HW263186   0.796   8.171   9.264
87097SOL     OW63187   1.089  14.135   4.546
87097SOL    HW163188   1.080  14.042   4.527
87097SOL    HW263189   1.126  14.139   4.634
87098SOL     OW63190   7.691   3.864   4.516
87098SOL    HW163191   7.666   3.899   4.430
87098SOL    HW263192   7.735   3.782   4.497
87099SOL     OW63193   9.958  11.375   3.079
87099SOL    HW163194   9.902  11.344   3.008
87099SOL    HW263195   9.907  11.445   3.121
87100SOL     OW63196   9.450  11.374   3.312
87100SOL    HW163197   9.541  11.346   3.317
87100SOL    HW263198   9.454  11.462   3.273
87101SOL     OW63199  14.792   7.730  11.753
87101SOL    HW163200  14.748   7.763  11.675
87101SOL    HW263201  14.839   7.806  11.788
87102SOL     OW63202   2.536   4.561   8.626
87102SOL    HW163203   2.547   4.547   8.720
87102SOL    HW263204   2.608   4.620   8.603
87103SOL     OW63205   4.218  10.324   7.587
87103SOL    HW163206   4.222  10.228   7.580
87103SOL    HW263207   4.143  10.349   7.533
87104SOL     OW63208   5.906   2.297   9.679
87104SOL    HW163209   5.958   2.326   9.604
87104SOL    HW263210   5.966   2.241   9.729
87105SOL     OW63211   7.193   1.262   1.261
87105SOL    HW163212   7.286   1.259   1.242
87105SOL    HW263213   7.156   1.185   1.216
87106SOL     OW63214   4.493   1.291  12.958
87106SOL    HW163215   4.478   1.356  12.889
87106SOL    HW263216   4.509   1.209  12.911
87107SOL     OW63217   1.680  12.452   1.313
87107SOL    HW163218   1.609  12.389   1.319
87107SOL    HW263219   1.681  12.479   1.221
87108SOL     OW63220   1.030  11.301   1.278
87108SOL    HW163221   0.999  11.223   1.324
87108SOL    HW263222   0.952  11.353   1.263
87109SOL     OW63223   1.180   5.459   0.380
87109SOL    HW163224   1.256   5.456   0.320
87109SOL    HW263225   1.199   5.533   0.438
87110SOL     OW63226   7.052   8.092   2.909
87110SOL    HW163227   7.017   8.007   2.935
87110SOL    HW263228   7.064   8.140   2.991
87111SOL     OW63229   6.918  11.586   4.924
87111SOL    HW163230   7.008  11.560   4.902
87111SOL    HW263231   6.901  11.542   5.007
87112SOL     OW63232  14.013  14.252  14.880
87112SOL    HW163233  13.925  14.281  14.854
87112SOL    HW263234  14.009  14.243   0.092
87113SOL     OW63235   6.795   9.990   8.852
87113SOL    HW163236   6.738   9.943   8.791
87113SOL    HW263237   6.870  10.016   8.799
87114SOL     OW63238   5.009  10.005   1.412
87114SOL    HW163239   5.047   9.956   1.339
87114SOL    HW263240   5.043   9.962   1.490
87115SOL     OW63241   0.979  14.193   0.250
87115SOL    HW163242   0.947  14.186   0.340
87115SOL    HW263243   1.002  14.103   0.226
87116SOL     OW63244   1.619   6.184  11.694
87116SOL    HW163245   1.622   6.276  11.665
87116SOL    HW263246   1.675   6.181  11.771
87117SOL     OW63247   6.860  10.085   7.252
87117SOL    HW163248   6.780  10.038   7.275
87117SOL    HW263249   6.893  10.119   7.335
87118SOL     OW63250   5.900   1.388   1.539
87118SOL    HW163251   5.871   1.314   1.486
87118SOL    HW263252   5.975   1.355   1.588
87119SOL     OW63253  14.542   3.996   2.861
87119SOL    HW163254  14.531   4.091   2.851
87119SOL    HW263255  14.637   3.982   2.859
87120SOL     OW63256   3.100   1.153   9.485
87120SOL    HW163257   3.060   1.235   9.455
87120SOL    HW263258   3.043   1.122   9.555
87121SOL     OW63259   2.066   1.677   0.483
87121SOL    HW163260   2.120   1.604   0.513
87121SOL    HW263261   2.118   1.717   0.413
87122SOL     OW63262   8.846   2.657  14.845
87122SOL    HW163263   8.757   2.690  14.856
87122SOL    HW263264   8.902   2.733  14.857
87123SOL     OW63265   7.302   9.378  10.915
87123SOL    HW163266   7.357   9.320  10.863
87123SOL    HW263267   7.260   9.435  10.851
87124SOL     OW63268   0.235   6.809   7.342
87124SOL    HW163269   0.149   6.770   7.354
87124SOL    HW263270   0.218   6.890   7.295
87125SOL     OW63271   3.872  13.820   7.571
87125SOL    HW163272   3.783  13.792   7.549
87125SOL    HW263273   3.908  13.748   7.623
87126SOL     OW63274  10.766  13.316   1.267
87126SOL    HW163275  10.681  13.306   1.223
87126SOL    HW263276  10.767  13.407   1.297
87127SOL     OW63277   0.249   5.553   7.004
87127SOL    HW163278   0.193   5.608   6.949
87127SOL    HW263279   0.298   5.499   6.943
87128SOL     OW63280   7.959   5.084   3.155
87128SOL    HW163281   7.899   5.047   3.221
87128SOL    HW263282   7.907   5.089   3.075
87129SOL     OW63283  10.762   3.978   0.164
87129SOL    HW163284  10.824   4.042   0.127
87129SOL    HW263285  10.695   4.032   0.206
87130SOL     OW63286   2.412   7.042   1.754
87130SOL    HW163287   2.326   7.073   1.782
87130SOL    HW263288   2.459   7.122   1.730
87131SOL     OW63289   3.929   0.346   4.797
87131SOL    HW163290   3.881   0.294   4.862
87131SOL    HW263291   3.920   0.436   4.826
87132SOL     OW63292  10.709   4.282  13.656
87132SOL    HW163293  10.667   4.278  13.742
87132SOL    HW263294  10.647   4.330  13.602
87133SOL     OW63295  11.138   5.446  11.307
87133SOL    HW163296  11.063   5.433  11.366
87133SOL    HW263297  11.105   5.505  11.240
87134SOL     OW63298   6.463   7.723   4.046
87134SOL    HW163299   6.373   7.747   4.027
87134SOL    HW263300   6.461   7.686   4.134
87135SOL     OW63301   6.154  11.790   7.586
87135SOL    HW163302   6.121  11.727   7.650
87135SOL    HW263303   6.079  11.848   7.569
87136SOL     OW63304  12.418  10.324  14.668
87136SOL    HW163305  12.356  10.253  14.653
87136SOL    HW263306  12.383  10.397  14.617
87137SOL     OW63307  14.719   5.760  14.058
87137SOL    HW163308  14.678   5.846  14.056
87137SOL    HW263309  14.811   5.777  14.080
87138SOL     OW63310  11.695  11.621   0.848
87138SOL    HW163311  11.757  11.548   0.846
87138SOL    HW263312  11.749  11.698   0.831
87139SOL     OW63313   4.369   2.224  13.044
87139SOL    HW163314   4.456   2.215  13.005
87139SOL    HW263315   4.385   2.255  13.133
87140SOL     OW63316   7.214  12.922   4.003
87140SOL    HW163317   7.212  12.879   3.917
87140SOL    HW263318   7.140  12.883   4.050
87141SOL     OW63319   1.011   2.453   2.520
87141SOL    HW163320   0.964   2.535   2.508
87141SOL    HW263321   0.943   2.388   2.535
87142SOL     OW63322   1.888  10.210   0.025
87142SOL    HW163323   1.887  10.121   0.061
87142SOL    HW263324   1.929  10.200  14.821
87143SOL     OW63325   0.764  14.501  12.723
87143SOL    HW163326   0.781  14.591  12.694
87143SOL    HW263327   0.668  14.494  12.724
87144SOL     OW63328   6.015   6.788   9.928
87144SOL    HW163329   5.992   6.876   9.899
87144SOL    HW263330   6.008   6.791  10.024
87145SOL     OW63331  12.665   8.496   8.750
87145SOL    HW163332  12.711   8.412   8.751
87145SOL    HW263333  12.700   8.543   8.826
87146SOL     OW63334   8.831   2.368   9.448
87146SOL    HW163335   8.831   2.460   9.474
87146SOL    HW263336   8.870   2.322   9.522
87147SOL     OW63337   0.935   7.343   2.551
87147SOL    HW163338   0.971   7.381   2.631
87147SOL    HW263339   0.850   7.308   2.578
87148SOL     OW63340  13.024   1.217   4.785
87148SOL    HW163341  13.106   1.262   4.806
87148SOL    HW263342  12.994   1.181   4.869
87149SOL     OW63343   7.114   3.884  13.406
87149SOL    HW163344   7.194   3.849  13.368
87149SOL    HW263345   7.047   3.869  13.339
87150SOL     OW63346   5.798  14.162  12.654
87150SOL    HW163347   5.804  14.067  12.655
87150SOL    HW263348   5.828  14.189  12.741
87151SOL     OW63349  14.688   5.282  10.353
87151SOL    HW163350  14.698   5.304  10.261
87151SOL    HW263351  14.663   5.364  10.395
87152SOL     OW63352  12.635   1.120   1.046
87152SOL    HW163353  12.628   1.216   1.047
87152SOL    HW263354  12.696   1.102   0.974
87153SOL     OW63355   9.032   0.821  13.098
87153SOL    HW163356   9.084   0.857  13.027
87153SOL    HW263357   9.024   0.728  13.077
87154SOL     OW63358  12.742   4.282   8.977
87154SOL    HW163359  12.694   4.290   8.894
87154SOL    HW263360  12.834   4.288   8.952
87155SOL     OW63361   9.405   4.474  11.844
87155SOL    HW163362   9.311   4.487  11.856
87155SOL    HW263363   9.422   4.388  11.883
87156SOL     OW63364   6.752  13.175  13.031
87156SOL    HW163365   6.738  13.172  13.125
87156SOL    HW263366   6.665  13.193  12.994
87157SOL     OW63367   7.471   3.582   4.553
87157SOL    HW163368   7.562   3.554   4.552
87157SOL    HW263369   7.444   3.574   4.644
87158SOL     OW63370  13.041   7.713   4.862
87158SOL    HW163371  12.991   7.656   4.920
87158SOL    HW263372  13.123   7.728   4.908
87159SOL     OW63373   9.127  12.135   3.855
87159SOL    HW163374   9.098  12.197   3.922
87159SOL    HW263375   9.083  12.053   3.877
87160SOL     OW63376  11.056   5.282  12.465
87160SOL    HW163377  11.082   5.213  12.526
87160SOL    HW263378  11.129   5.345  12.468
87161SOL     OW63379  13.779   1.236   3.929
87161SOL    HW163380  13.707   1.268   3.983
87161SOL    HW263381  13.817   1.315   3.889
87162SOL     OW63382   8.535   7.796  10.257
87162SOL    HW163383   8.451   7.779  10.300
87162SOL    HW263384   8.534   7.739  10.180
87163SOL     OW63385   5.571  12.057  14.818
87163SOL    HW163386   5.487  12.082  14.778
87163SOL    HW263387   5.576  12.110   0.015
87164SOL     OW63388  10.186   5.931   1.987
87164SOL    HW163389  10.271   5.974   1.974
87164SOL    HW263390  10.202   5.868   2.058
87165SOL     OW63391   7.737  11.201   6.160
87165SOL    HW163392   7.778  11.158   6.085
87165SOL    HW263393   7.799  11.269   6.186
87166SOL     OW63394  10.908   4.922  13.783
87166SOL    HW163395  10.985   4.866  13.774
87166SOL    HW263396  10.942   5.011  13.777
87167SOL     OW63397   0.447   9.296   8.377
87167SOL    HW163398   0.420   9.222   8.324
87167SOL    HW263399   0.529   9.269   8.417
87168SOL     OW63400   8.425  13.266  11.199
87168SOL    HW163401   8.359  13.196  11.199
87168SOL    HW263402   8.428  13.295  11.290
87169SOL     OW63403   2.659   0.593   0.936
87169SOL    HW163404   2.721   0.520   0.938
87169SOL    HW263405   2.622   0.595   1.025
87170SOL     OW63406   1.940   1.587   3.828
87170SOL    HW163407   2.021   1.589   3.880
87170SOL    HW263408   1.904   1.676   3.837
87171SOL     OW63409   4.348  14.651  13.906
87171SOL    HW163410   4.430  14.661  13.857
87171SOL    HW263411   4.347  14.560  13.934
87172SOL     OW63412  11.463   7.941   4.137
87172SOL    HW163413  11.447   8.010   4.202
87172SOL    HW263414  11.521   7.982   4.073
87173SOL     OW63415  11.543   2.721   5.485
87173SOL    HW163416  11.536   2.701   5.578
87173SOL    HW263417  11.629   2.763   5.476
87174SOL     OW63418  11.775  10.938   4.800
87174SOL    HW163419  11.686  10.963   4.825
87174SOL    HW263420  11.821  11.022   4.789
87175SOL     OW63421  10.454   2.894   6.641
87175SOL    HW163422  10.488   2.913   6.728
87175SOL    HW263423  10.360   2.907   6.647
87176SOL     OW63424   3.609   8.584   4.430
87176SOL    HW163425   3.548   8.597   4.502
87176SOL    HW263426   3.693   8.568   4.473
87177SOL     OW63427   8.247   0.889  10.485
87177SOL    HW163428   8.280   0.845  10.564
87177SOL    HW263429   8.183   0.827  10.449
87178SOL     OW63430   4.968  13.521  10.770
87178SOL    HW163431   5.024  13.573  10.828
87178SOL    HW263432   5.009  13.434  10.771
87179SOL     OW63433   1.216  10.456  11.087
87179SOL    HW163434   1.165  10.503  11.153
87179SOL    HW263435   1.216  10.365  11.116
87180SOL     OW63436  14.073   5.549   8.741
87180SOL    HW163437  14.152   5.597   8.715
87180SOL    HW263438  14.037   5.515   8.658
87181SOL     OW63439  13.457   6.343   6.056
87181SOL    HW163440  13.365   6.327   6.075
87181SOL    HW263441  13.504   6.275   6.103
87182SOL     OW63442   4.956  13.583  14.684
87182SOL    HW163443   5.000  13.604  14.766
87182SOL    HW263444   5.024  13.546  14.628
87183SOL     OW63445   0.839  14.728  12.570
87183SOL    HW163446   0.825  14.823  12.562
87183SOL    HW263447   0.852  14.698  12.480
87184SOL     OW63448   0.865  10.493   9.951
87184SOL    HW163449   0.914  10.554  10.007
87184SOL    HW263450   0.795  10.546   9.913
87185SOL     OW63451   8.470   8.696   8.014
87185SOL    HW163452   8.563   8.705   7.991
87185SOL    HW263453   8.462   8.736   8.100
87186SOL     OW63454  11.263  10.998  11.408
87186SOL    HW163455  11.231  11.062  11.344
87186SOL    HW263456  11.244  10.913  11.368
87187SOL     OW63457   8.244  14.141   7.455
87187SOL    HW163458   8.183  14.112   7.387
87187SOL    HW263459   8.311  14.072   7.458
87188SOL     OW63460   9.063   5.330   1.299
87188SOL    HW163461   9.046   5.255   1.356
87188SOL    HW263462   9.155   5.323   1.275
87189SOL     OW63463  10.513   2.748  11.522
87189SOL    HW163464  10.441   2.702  11.479
87189SOL    HW263465  10.497   2.840  11.505
87190SOL     OW63466   7.193   8.428   3.638
87190SOL    HW163467   7.114   8.405   3.688
87190SOL    HW263468   7.251   8.352   3.650
87191SOL     OW63469   9.676  11.656   4.033
87191SOL    HW163470   9.623  11.722   3.989
87191SOL    HW263471   9.724  11.613   3.963
87192SOL     OW63472  10.123   4.309   2.469
87192SOL    HW163473  10.188   4.379   2.472
87192SOL    HW263474  10.144   4.254   2.544
87193SOL     OW63475   2.262  12.343   6.624
87193SOL    HW163476   2.297  12.346   6.535
87193SOL    HW263477   2.177  12.300   6.615
87194SOL     OW63478   5.094  11.688   6.432
87194SOL    HW163479   5.081  11.679   6.337
87194SOL    HW263480   5.172  11.744   6.439
87195SOL     OW63481   9.924  14.278   0.686
87195SOL    HW163482   9.988  14.347   0.704
87195SOL    HW263483   9.870  14.274   0.765
87196SOL     OW63484   9.448   1.915  12.367
87196SOL    HW163485   9.363   1.876  12.345
87196SOL    HW263486   9.497   1.912  12.285
87197SOL     OW63487  12.444   1.412  11.054
87197SOL    HW163488  12.371   1.350  11.054
87197SOL    HW263489  12.490   1.395  10.972
87198SOL     OW63490   9.659   5.212   5.030
87198SOL    HW163491   9.631   5.179   5.115
87198SOL    HW263492   9.589   5.188   4.970
87199SOL     OW63493  12.453   0.132  10.564
87199SOL    HW163494  12.470   0.054  10.616
87199SOL    HW263495  12.502   0.201  10.608
87200SOL     OW63496   0.218   6.263  13.971
87200SOL    HW163497   0.307   6.256  13.937
87200SOL    HW263498   0.197   6.357  13.964
87201SOL     OW63499   4.588   2.730  11.201
87201SOL    HW163500   4.610   2.700  11.112
87201SOL    HW263501   4.637   2.812  11.211
87202SOL     OW63502   7.658   1.246   7.795
87202SOL    HW163503   7.729   1.283   7.847
87202SOL    HW263504   7.700   1.181   7.739
87203SOL     OW63505   8.362   6.678   3.073
87203SOL    HW163506   8.441   6.633   3.103
87203SOL    HW263507   8.292   6.642   3.128
87204SOL     OW63508   6.104  11.533   0.349
87204SOL    HW163509   6.106  11.622   0.384
87204SOL    HW263510   6.164  11.534   0.274
87205SOL     OW63511  12.971   9.451   6.784
87205SOL    HW163512  12.911   9.380   6.764
87205SOL    HW263513  13.030   9.415   6.851
87206SOL     OW63514  11.767  10.281   9.282
87206SOL    HW163515  11.723  10.311   9.202
87206SOL    HW263516  11.840  10.228   9.250
87207SOL     OW63517   3.503   8.519   0.826
87207SOL    HW163518   3.456   8.517   0.743
87207SOL    HW263519   3.558   8.440   0.824
87208SOL     OW63520  13.244   8.917   1.167
87208SOL    HW163521  13.262   8.918   1.073
87208SOL    HW263522  13.237   8.824   1.189
87209SOL     OW63523   5.283  11.297  13.090
87209SOL    HW163524   5.194  11.308  13.124
87209SOL    HW263525   5.324  11.383  13.104
87210SOL     OW63526   9.270  12.602   5.837
87210SOL    HW163527   9.238  12.654   5.763
87210SOL    HW263528   9.231  12.644   5.914
87211SOL     OW63529   5.626  12.355   0.996
87211SOL    HW163530   5.708  12.322   1.031
87211SOL    HW263531   5.585  12.402   1.069
87212SOL     OW63532   1.298   0.942   2.249
87212SOL    HW163533   1.311   1.032   2.218
87212SOL    HW263534   1.313   0.947   2.343
87213SOL     OW63535  11.071   8.701  12.045
87213SOL    HW163536  11.151   8.664  12.007
87213SOL    HW263537  11.052   8.644  12.119
87214SOL     OW63538  10.217   2.064  13.464
87214SOL    HW163539  10.295   2.100  13.507
87214SOL    HW263540  10.246   2.046  13.375
87215SOL     OW63541  11.753   9.636   6.834
87215SOL    HW163542  11.803   9.651   6.754
87215SOL    HW263543  11.793   9.557   6.872
87216SOL     OW63544   6.045  10.888  12.486
87216SOL    HW163545   6.123  10.838  12.460
87216SOL    HW263546   5.973  10.825  12.477
87217SOL     OW63547   8.273   5.714  14.120
87217SOL    HW163548   8.213   5.761  14.178
87217SOL    HW263549   8.325   5.783  14.079
87218SOL     OW63550  10.202   2.234  14.431
87218SOL    HW163551  10.130   2.284  14.393
87218SOL    HW263552  10.279   2.264  14.382
87219SOL     OW63553   2.759  10.329   5.653
87219SOL    HW163554   2.731  10.318   5.743
87219SOL    HW263555   2.695  10.280   5.601
87220SOL     OW63556   2.666   0.429   6.756
87220SOL    HW163557   2.685   0.446   6.664
87220SOL    HW263558   2.573   0.404   6.757
87221SOL     OW63559   7.062  13.381  13.643
87221SOL    HW163560   6.969  13.396  13.661
87221SOL    HW263561   7.079  13.431  13.562
87222SOL     OW63562   1.122   7.687   4.939
87222SOL    HW163563   1.116   7.686   4.843
87222SOL    HW263564   1.051   7.630   4.968
87223SOL     OW63565  10.915  14.719   7.274
87223SOL    HW163566  10.965  14.645   7.309
87223SOL    HW263567  10.975  14.794   7.281
87224SOL     OW63568   6.153   1.775   0.173
87224SOL    HW163569   6.235   1.766   0.125
87224SOL    HW263570   6.118   1.686   0.178
87225SOL     OW63571   9.508   2.652   7.883
87225SOL    HW163572   9.513   2.657   7.979
87225SOL    HW263573   9.578   2.710   7.853
87226SOL     OW63574   4.857  12.127   9.178
87226SOL    HW163575   4.863  12.031   9.185
87226SOL    HW263576   4.852  12.157   9.269
87227SOL     OW63577   0.399   4.282   3.994
87227SOL    HW163578   0.466   4.349   3.998
87227SOL    HW263579   0.447   4.199   3.999
87228SOL     OW63580  13.595   5.478  11.635
87228SOL    HW163581  13.541   5.543  11.590
87228SOL    HW263582  13.533   5.410  11.662
87229SOL     OW63583   3.063   5.717   5.317
87229SOL    HW163584   2.974   5.687   5.298
87229SOL    HW263585   3.113   5.637   5.329
87230SOL     OW63586   6.455   1.741   8.530
87230SOL    HW163587   6.488   1.806   8.467
87230SOL    HW263588   6.374   1.781   8.564
87231SOL     OW63589   0.576  13.662   2.107
87231SOL    HW163590   0.563  13.583   2.055
87231SOL    HW263591   0.584  13.631   2.197
87232SOL     OW63592  11.529   0.580   4.813
87232SOL    HW163593  11.571   0.631   4.882
87232SOL    HW263594  11.436   0.599   4.823
87233SOL     OW63595   7.643   0.311  14.668
87233SOL    HW163596   7.639   0.363  14.748
87233SOL    HW263597   7.707   0.355  14.613
87234SOL     OW63598   2.457   9.476  13.522
87234SOL    HW163599   2.491   9.387  13.519
87234SOL    HW263600   2.533   9.531  13.537
87235SOL     OW63601   8.149   2.097   5.473
87235SOL    HW163602   8.084   2.045   5.520
87235SOL    HW263603   8.137   2.186   5.506
87236SOL     OW63604  12.944   2.816   1.394
87236SOL    HW163605  12.928   2.859   1.478
87236SOL    HW263606  12.883   2.742   1.393
87237SOL     OW63607  13.643   7.085   1.388
87237SOL    HW163608  13.670   7.094   1.297
87237SOL    HW263609  13.723   7.095   1.439
87238SOL     OW63610   9.401   2.239  13.396
87238SOL    HW163611   9.436   2.285  13.320
87238SOL    HW263612   9.472   2.181  13.424
87239SOL     OW63613   5.333   1.574   6.960
87239SOL    HW163614   5.270   1.563   7.031
87239SOL    HW263615   5.410   1.610   7.003
87240SOL     OW63616   8.106   8.187   3.132
87240SOL    HW163617   8.039   8.253   3.148
87240SOL    HW263618   8.179   8.236   3.094
87241SOL     OW63619   4.067   1.270   3.487
87241SOL    HW163620   3.973   1.256   3.486
87241SOL    HW263621   4.097   1.231   3.569
87242SOL     OW63622   4.246   7.320   8.747
87242SOL    HW163623   4.285   7.372   8.676
87242SOL    HW263624   4.255   7.375   8.825
87243SOL     OW63625  10.378  11.273   7.882
87243SOL    HW163626  10.397  11.204   7.946
87243SOL    HW263627  10.449  11.336   7.894
87244SOL     OW63628   1.402  11.768   4.407
87244SOL    HW163629   1.430  11.708   4.476
87244SOL    HW263630   1.468  11.758   4.338
87245SOL     OW63631   6.151   9.667   1.001
87245SOL    HW163632   6.197   9.585   1.017
87245SOL    HW263633   6.102   9.653   0.920
87246SOL     OW63634   6.321  10.971  13.438
87246SOL    HW163635   6.377  10.898  13.462
87246SOL    HW263636   6.362  11.048  13.479
87247SOL     OW63637   3.582   4.180  10.045
87247SOL    HW163638   3.501   4.135  10.020
87247SOL    HW263639   3.568   4.205  10.137
87248SOL     OW63640  13.180  12.958   7.528
87248SOL    HW163641  13.275  12.948   7.520
87248SOL    HW263642  13.162  12.937   7.620
87249SOL     OW63643  10.117   3.143   8.608
87249SOL    HW163644  10.207   3.110   8.603
87249SOL    HW263645  10.125   3.224   8.658
87250SOL     OW63646  12.735   4.075   5.517
87250SOL    HW163647  12.785   4.045   5.593
87250SOL    HW263648  12.712   4.165   5.538
87251SOL     OW63649   8.219  14.766   5.213
87251SOL    HW163650   8.178  14.842   5.255
87251SOL    HW263651   8.279  14.731   5.278
87252SOL     OW63652  13.842  13.618   3.528
87252SOL    HW163653  13.768  13.616   3.589
87252SOL    HW263654  13.850  13.527   3.499
87253SOL     OW63655   8.907   0.281  11.204
87253SOL    HW163656   8.815   0.274  11.230
87253SOL    HW263657   8.956   0.247  11.279
87254SOL     OW63658   5.595   2.134  13.685
87254SOL    HW163659   5.652   2.084  13.626
87254SOL    HW263660   5.563   2.206  13.630
87255SOL     OW63661   4.975   5.012   0.193
87255SOL    HW163662   5.012   5.083   0.246
87255SOL    HW263663   4.973   5.048   0.104
87256SOL     OW63664  10.541   1.047  13.062
87256SOL    HW163665  10.514   1.058  13.154
87256SOL    HW263666  10.634   1.025  13.067
87257SOL     OW63667  14.149  12.569   7.015
87257SOL    HW163668  14.244  12.575   7.015
87257SOL    HW263669  14.121  12.640   7.073
87258SOL     OW63670   1.955  13.801  13.000
87258SOL    HW163671   1.930  13.738  13.068
87258SOL    HW263672   2.013  13.862  13.045
87259SOL     OW63673  12.567   4.030   6.443
87259SOL    HW163674  12.493   4.004   6.388
87259SOL    HW263675  12.625   3.953   6.443
87260SOL     OW63676   6.221  13.329   1.411
87260SOL    HW163677   6.166  13.299   1.338
87260SOL    HW263678   6.311  13.317   1.380
87261SOL     OW63679  13.677  13.575  10.472
87261SOL    HW163680  13.650  13.557  10.562
87261SOL    HW263681  13.760  13.622  10.480
87262SOL     OW63682  14.563  12.353  13.342
87262SOL    HW163683  14.569  12.441  13.380
87262SOL    HW263684  14.516  12.365  13.260
87263SOL     OW63685   9.456   7.176   2.143
87263SOL    HW163686   9.384   7.160   2.082
87263SOL    HW263687   9.417   7.227   2.214
87264SOL     OW63688   4.850  14.777   9.867
87264SOL    HW163689   4.943  14.776   9.843
87264SOL    HW263690   4.832  14.868   9.889
87265SOL     OW63691   5.349  10.180   7.017
87265SOL    HW163692   5.413  10.165   7.086
87265SOL    HW263693   5.296  10.253   7.049
87266SOL     OW63694   7.329  13.383   4.487
87266SOL    HW163695   7.253  13.421   4.442
87266SOL    HW263696   7.394  13.370   4.418
87267SOL     OW63697   5.577   6.076   2.279
87267SOL    HW163698   5.613   6.062   2.191
87267SOL    HW263699   5.631   6.020   2.335
87268SOL     OW63700   2.269   4.519   9.969
87268SOL    HW163701   2.253   4.552  10.057
87268SOL    HW263702   2.290   4.598   9.918
87269SOL     OW63703  11.316   5.009   0.211
87269SOL    HW163704  11.378   4.974   0.276
87269SOL    HW263705  11.254   5.060   0.263
87270SOL     OW63706   9.226  12.612   6.730
87270SOL    HW163707   9.166  12.612   6.655
87270SOL    HW263708   9.208  12.530   6.775
87271SOL     OW63709   4.877   1.695   4.539
87271SOL    HW163710   4.927   1.676   4.460
87271SOL    HW263711   4.935   1.750   4.592
87272SOL     OW63712  10.035   4.865  13.709
87272SOL    HW163713  10.016   4.785  13.661
87272SOL    HW263714  10.129   4.861  13.726
87273SOL     OW63715  14.816   2.235  14.790
87273SOL    HW163716  14.821   2.303  14.722
87273SOL    HW263717  14.736   2.255  14.838
87274SOL     OW63718  11.552   6.642   5.957
87274SOL    HW163719  11.624   6.705   5.957
87274SOL    HW263720  11.528   6.633   6.049
87275SOL     OW63721  13.359  13.042  10.905
87275SOL    HW163722  13.293  12.974  10.893
87275SOL    HW263723  13.407  13.014  10.983
87276SOL     OW63724   3.077  10.945   9.627
87276SOL    HW163725   3.132  10.953   9.549
87276SOL    HW263726   3.001  10.895   9.599
87277SOL     OW63727   6.749   3.812   4.102
87277SOL    HW163728   6.830   3.855   4.131
87277SOL    HW263729   6.712   3.775   4.182
87278SOL     OW63730   5.468   1.664  10.120
87278SOL    HW163731   5.390   1.684  10.068
87278SOL    HW263732   5.533   1.636  10.056
87279SOL     OW63733  13.014   5.812   6.321
87279SOL    HW163734  13.096   5.782   6.361
87279SOL    HW263735  12.972   5.731   6.292
87280SOL     OW63736   7.812  14.528  13.269
87280SOL    HW163737   7.772  14.449  13.232
87280SOL    HW263738   7.756  14.599  13.239
87281SOL     OW63739   3.594   4.441   7.336
87281SOL    HW163740   3.593   4.352   7.303
87281SOL    HW263741   3.675   4.479   7.302
87282SOL     OW63742   6.913   4.822   4.634
87282SOL    HW163743   6.937   4.799   4.724
87282SOL    HW263744   6.939   4.747   4.582
87283SOL     OW63745   3.440   2.119  14.334
87283SOL    HW163746   3.402   2.132  14.421
87283SOL    HW263747   3.367   2.134  14.273
87284SOL     OW63748  14.122   5.346   6.375
87284SOL    HW163749  14.166   5.276   6.326
87284SOL    HW263750  14.114   5.418   6.312
87285SOL     OW63751  13.053  12.652   9.556
87285SOL    HW163752  13.049  12.747   9.547
87285SOL    HW263753  13.091  12.637   9.642
87286SOL     OW63754  13.795  14.467  10.625
87286SOL    HW163755  13.823  14.493  10.713
87286SOL    HW263756  13.757  14.380  10.637
87287SOL     OW63757  10.405  10.280   5.452
87287SOL    HW163758  10.459  10.322   5.385
87287SOL    HW263759  10.316  10.314   5.436
87288SOL     OW63760   9.756   7.106  10.701
87288SOL    HW163761   9.700   7.179  10.673
87288SOL    HW263762   9.807   7.141  10.774
87289SOL     OW63763  13.445   0.389  13.464
87289SOL    HW163764  13.485   0.472  13.440
87289SOL    HW263765  13.517   0.335  13.497
87290SOL     OW63766  11.961  14.444  12.726
87290SOL    HW163767  12.011  14.377  12.679
87290SOL    HW263768  12.027  14.506  12.756
87291SOL     OW63769   6.749   7.419  11.124
87291SOL    HW163770   6.765   7.410  11.030
87291SOL    HW263771   6.831   7.396  11.166
87292SOL     OW63772  11.511   7.502   9.551
87292SOL    HW163773  11.440   7.440   9.533
87292SOL    HW263774  11.470   7.572   9.602
87293SOL     OW63775  10.511  11.325  14.058
87293SOL    HW163776  10.478  11.244  14.020
87293SOL    HW263777  10.544  11.375  13.984
87294SOL     OW63778   4.485  13.398   8.347
87294SOL    HW163779   4.401  13.354   8.333
87294SOL    HW263780   4.519  13.414   8.259
87295SOL     OW63781   9.968  11.630  13.463
87295SOL    HW163782   9.980  11.535  13.454
87295SOL    HW263783  10.025  11.654  13.536
87296SOL     OW63784   0.745   5.250   9.424
87296SOL    HW163785   0.653   5.236   9.449
87296SOL    HW263786   0.791   5.172   9.455
87297SOL     OW63787   0.311  13.124  10.833
87297SOL    HW163788   0.356  13.040  10.824
87297SOL    HW263789   0.359  13.168  10.903
87298SOL     OW63790  10.500   0.125  12.269
87298SOL    HW163791  10.444   0.202  12.262
87298SOL    HW263792  10.441   0.052  12.248
87299SOL     OW63793   5.612   4.774   7.051
87299SOL    HW163794   5.535   4.823   7.021
87299SOL    HW263795   5.686   4.832   7.033
87300SOL     OW63796  13.989  12.483  10.713
87300SOL    HW163797  14.006  12.566  10.758
87300SOL    HW263798  14.004  12.502  10.621
87301SOL     OW63799   7.551  12.065  13.371
87301SOL    HW163800   7.584  12.019  13.294
87301SOL    HW263801   7.489  12.129  13.336
87302SOL     OW63802  11.754   6.031   9.810
87302SOL    HW163803  11.696   5.973   9.761
87302SOL    HW263804  11.829   5.976   9.833
87303SOL     OW63805   0.466  10.060  14.853
87303SOL    HW163806   0.377  10.060  14.818
87303SOL    HW263807   0.515  10.005  14.792
87304SOL     OW63808   5.293   6.344  11.326
87304SOL    HW163809   5.293   6.258  11.283
87304SOL    HW263810   5.306   6.406  11.255
87305SOL     OW63811  10.991   5.390   6.917
87305SOL    HW163812  10.913   5.336   6.900
87305SOL    HW263813  10.956   5.474   6.947
87306SOL     OW63814   2.393   9.070  13.231
87306SOL    HW163815   2.466   9.011  13.212
87306SOL    HW263816   2.367   9.105  13.146
87307SOL     OW63817   4.045  10.767  14.323
87307SOL    HW163818   4.082  10.844  14.280
87307SOL    HW263819   3.952  10.770  14.302
87308SOL     OW63820   7.175   3.390  12.774
87308SOL    HW163821   7.210   3.375  12.861
87308SOL    HW263822   7.125   3.311  12.754
87309SOL     OW63823   0.457  14.065  11.382
87309SOL    HW163824   0.403  14.122  11.436
87309SOL    HW263825   0.423  13.977  11.399
87310SOL     OW63826  14.168   5.543   6.197
87310SOL    HW163827  14.232   5.524   6.128
87310SOL    HW263828  14.087   5.561   6.150
87311SOL     OW63829  13.734   0.307   2.564
87311SOL    HW163830  13.731   0.216   2.595
87311SOL    HW263831  13.646   0.324   2.532
87312SOL     OW63832   9.314  11.679   5.421
87312SOL    HW163833   9.326  11.730   5.501
87312SOL    HW263834   9.279  11.741   5.357
87313SOL     OW63835   9.756  14.377   1.318
87313SOL    HW163836   9.749  14.283   1.305
87313SOL    HW263837   9.839  14.389   1.365
87314SOL     OW63838   6.152  12.264   4.225
87314SOL    HW163839   6.104  12.303   4.152
87314SOL    HW263840   6.097  12.279   4.301
87315SOL     OW63841   7.458  10.275  12.608
87315SOL    HW163842   7.435  10.187  12.637
87315SOL    HW263843   7.385  10.330  12.638
87316SOL     OW63844   2.033   4.913   9.292
87316SOL    HW163845   2.103   4.847   9.289
87316SOL    HW263846   2.079   4.997   9.293
87317SOL     OW63847   2.317   1.982  10.616
87317SOL    HW163848   2.345   2.030  10.538
87317SOL    HW263849   2.395   1.936  10.645
87318SOL     OW63850  11.701   5.517  14.115
87318SOL    HW163851  11.763   5.590  14.122
87318SOL    HW263852  11.708   5.472  14.199
87319SOL     OW63853   3.596  11.665   4.023
87319SOL    HW163854   3.544  11.695   4.098
87319SOL    HW263855   3.673  11.722   4.023
87320SOL     OW63856   0.038   9.980   5.417
87320SOL    HW163857   0.025   9.958   5.510
87320SOL    HW263858   0.110   9.924   5.389
87321SOL     OW63859   2.073  14.465   3.211
87321SOL    HW163860   2.090  14.476   3.304
87321SOL    HW263861   1.985  14.429   3.206
87322SOL     OW63862   7.471   4.981  10.355
87322SOL    HW163863   7.431   5.057  10.314
87322SOL    HW263864   7.550   4.964  10.304
87323SOL     OW63865   4.612   2.640   5.430
87323SOL    HW163866   4.560   2.703   5.380
87323SOL    HW263867   4.703   2.660   5.409
87324SOL     OW63868  13.431   1.698   6.471
87324SOL    HW163869  13.477   1.645   6.406
87324SOL    HW263870  13.468   1.671   6.555
87325SOL     OW63871  13.102  13.431   9.611
87325SOL    HW163872  13.179  13.477   9.577
87325SOL    HW263873  13.027  13.482   9.579
87326SOL     OW63874   1.613   7.508   3.590
87326SOL    HW163875   1.527   7.541   3.562
87326SOL    HW263876   1.675   7.556   3.536
87327SOL     OW63877   9.183   0.381  12.248
87327SOL    HW163878   9.278   0.378  12.253
87327SOL    HW263879   9.160   0.469  12.278
87328SOL     OW63880   9.701   3.396   9.352
87328SOL    HW163881   9.659   3.448   9.284
87328SOL    HW263882   9.653   3.417   9.432
87329SOL     OW63883   3.742   3.331   8.720
87329SOL    HW163884   3.803   3.404   8.728
87329SOL    HW263885   3.747   3.286   8.804
87330SOL     OW63886  10.049   7.279   0.124
87330SOL    HW163887  10.041   7.185   0.138
87330SOL    HW263888  10.115   7.287   0.055
87331SOL     OW63889   7.999   3.558  10.186
87331SOL    HW163890   8.002   3.645  10.225
87331SOL    HW263891   7.943   3.568  10.109
87332SOL     OW63892   7.977   7.940  10.197
87332SOL    HW163893   7.917   7.972  10.130
87332SOL    HW263894   7.969   8.002  10.269
87333SOL     OW63895   9.149   2.270  12.678
87333SOL    HW163896   9.148   2.193  12.735
87333SOL    HW263897   9.240   2.299  12.678
87334SOL     OW63898   9.654  13.644   5.128
87334SOL    HW163899   9.651  13.654   5.223
87334SOL    HW263900   9.575  13.687   5.097
87335SOL     OW63901  11.601   4.320   7.270
87335SOL    HW163902  11.555   4.276   7.198
87335SOL    HW263903  11.575   4.270   7.348
87336SOL     OW63904   4.505   5.806   4.305
87336SOL    HW163905   4.581   5.847   4.263
87336SOL    HW263906   4.507   5.716   4.274
87337SOL     OW63907  14.165   0.868   2.013
87337SOL    HW163908  14.182   0.878   1.919
87337SOL    HW263909  14.103   0.795   2.018
87338SOL     OW63910  10.177   0.434  12.736
87338SOL    HW163911  10.220   0.519  12.747
87338SOL    HW263912  10.089   0.447  12.770
87339SOL     OW63913   2.247   4.563   3.294
87339SOL    HW163914   2.194   4.502   3.243
87339SOL    HW263915   2.332   4.519   3.303
87340SOL     OW63916  11.323   2.146  13.495
87340SOL    HW163917  11.305   2.153  13.401
87340SOL    HW263918  11.417   2.130  13.501
87341SOL     OW63919   5.630   9.491   1.946
87341SOL    HW163920   5.679   9.535   1.876
87341SOL    HW263921   5.698   9.455   2.003
87342SOL     OW63922   8.817   8.000   9.009
87342SOL    HW163923   8.848   7.953   9.086
87342SOL    HW263924   8.853   7.952   8.935
87343SOL     OW63925   4.864   5.306  13.237
87343SOL    HW163926   4.832   5.325  13.325
87343SOL    HW263927   4.784   5.302  13.184
87344SOL     OW63928  14.379  14.538  10.950
87344SOL    HW163929  14.375  14.540  11.046
87344SOL    HW263930  14.364  14.628  10.923
87345SOL     OW63931   6.355   9.208   7.085
87345SOL    HW163932   6.358   9.113   7.074
87345SOL    HW263933   6.272   9.233   7.045
87346SOL     OW63934   9.047   6.936  12.622
87346SOL    HW163935   9.141   6.955  12.632
87346SOL    HW263936   9.004   7.020  12.639
87347SOL     OW63937   5.279   1.567   9.526
87347SOL    HW163938   5.190   1.596   9.546
87347SOL    HW263939   5.280   1.556   9.431
87348SOL     OW63940   4.074  14.540   4.783
87348SOL    HW163941   4.117  14.569   4.863
87348SOL    HW263942   4.057  14.447   4.797
87349SOL     OW63943   1.634   5.921   9.886
87349SOL    HW163944   1.668   5.994   9.835
87349SOL    HW263945   1.661   5.939   9.976
87350SOL     OW63946   6.218  10.790  13.163
87350SOL    HW163947   6.165  10.759  13.236
87350SOL    HW263948   6.155  10.829  13.102
87351SOL     OW63949   2.236  10.604   2.132
87351SOL    HW163950   2.152  10.591   2.087
87351SOL    HW263951   2.235  10.696   2.157
87352SOL     OW63952  14.596  11.519   6.704
87352SOL    HW163953  14.573  11.600   6.660
87352SOL    HW263954  14.526  11.458   6.681
87353SOL     OW63955   9.595   0.726   7.610
87353SOL    HW163956   9.554   0.699   7.692
87353SOL    HW263957   9.685   0.694   7.615
87354SOL     OW63958  11.979   2.801   6.416
87354SOL    HW163959  11.968   2.707   6.430
87354SOL    HW263960  11.892   2.832   6.391
87355SOL     OW63961   4.098   1.052  12.844
87355SOL    HW163962   4.002   1.056  12.849
87355SOL    HW263963   4.121   0.973  12.893
87356SOL     OW63964   9.339   9.867   4.482
87356SOL    HW163965   9.354   9.918   4.402
87356SOL    HW263966   9.274   9.801   4.457
87357SOL     OW63967  13.871  12.511   0.767
87357SOL    HW163968  13.914  12.445   0.821
87357SOL    HW263969  13.866  12.588   0.823
87358SOL     OW63970  13.924  14.239   8.562
87358SOL    HW163971  13.951  14.269   8.649
87358SOL    HW263972  13.975  14.293   8.501
87359SOL     OW63973   7.794   8.436   1.465
87359SOL    HW163974   7.772   8.529   1.453
87359SOL    HW263975   7.868   8.437   1.526
87360SOL     OW63976   5.709  11.347   8.580
87360SOL    HW163977   5.616  11.324   8.572
87360SOL    HW263978   5.713  11.408   8.653
87361SOL     OW63979   4.509   1.882   1.389
87361SOL    HW163980   4.461   1.944   1.334
87361SOL    HW263981   4.593   1.924   1.404
87362SOL     OW63982  12.890  12.762  11.834
87362SOL    HW163983  12.835  12.813  11.775
87362SOL    HW263984  12.958  12.823  11.863
87363SOL     OW63985  13.103   6.072   7.208
87363SOL    HW163986  13.170   6.063   7.276
87363SOL    HW263987  13.021   6.052   7.252
87364SOL     OW63988   1.568   6.385   9.606
87364SOL    HW163989   1.505   6.409   9.674
87364SOL    HW263990   1.620   6.464   9.592
87365SOL     OW63991   3.418   5.964  10.383
87365SOL    HW163992   3.411   5.954  10.288
87365SOL    HW263993   3.414   5.874  10.416
87366SOL     OW63994  11.262   9.153   2.869
87366SOL    HW163995  11.219   9.144   2.784
87366SOL    HW263996  11.355   9.155   2.849
87367SOL     OW63997  14.489  12.894   4.928
87367SOL    HW163998  14.407  12.926   4.891
87367SOL    HW263999  14.463  12.838   5.000
87368SOL     OW64000   1.232   8.846   7.771
87368SOL    HW164001   1.279   8.930   7.775
87368SOL    HW264002   1.295   8.782   7.803
87369SOL     OW64003   6.467   1.517   0.090
87369SOL    HW164004   6.391   1.460   0.079
87369SOL    HW264005   6.502   1.527   0.001
87370SOL     OW64006  12.916   8.480   7.029
87370SOL    HW164007  12.879   8.538   6.962
87370SOL    HW264008  12.959   8.411   6.979
87371SOL     OW64009  13.107   2.182   4.431
87371SOL    HW164010  13.200   2.205   4.434
87371SOL    HW264011  13.076   2.221   4.349
87372SOL     OW64012  10.935   4.171  11.155
87372SOL    HW164013  11.001   4.240  11.152
87372SOL    HW264014  10.852   4.217  11.168
87373SOL     OW64015   2.868   4.603   6.910
87373SOL    HW164016   2.876   4.696   6.887
87373SOL    HW264017   2.841   4.561   6.829
87374SOL     OW64018   3.457  10.375  10.170
87374SOL    HW164019   3.456  10.362  10.265
87374SOL    HW264020   3.536  10.329  10.141
87375SOL     OW64021   8.509  14.135  13.813
87375SOL    HW164022   8.463  14.200  13.866
87375SOL    HW264023   8.546  14.074  13.876
87376SOL     OW64024   8.612  12.080   6.101
87376SOL    HW164025   8.571  11.994   6.094
87376SOL    HW264026   8.626  12.107   6.010
87377SOL     OW64027  12.266   9.266   2.747
87377SOL    HW164028  12.183   9.219   2.746
87377SOL    HW264029  12.252   9.342   2.690
87378SOL     OW64030   7.299  11.004   7.043
87378SOL    HW164031   7.251  11.027   6.963
87378SOL    HW264032   7.292  11.082   7.097
87379SOL     OW64033   8.935  10.983   0.788
87379SOL    HW164034   8.844  10.986   0.761
87379SOL    HW264035   8.957  10.890   0.792
87380SOL     OW64036  12.640   5.470   5.646
87380SOL    HW164037  12.580   5.466   5.572
87380SOL    HW264038  12.594   5.426   5.717
87381SOL     OW64039   1.637   8.425   3.372
87381SOL    HW164040   1.718   8.447   3.419
87381SOL    HW264041   1.667   8.375   3.296
87382SOL     OW64042  11.894   3.458   6.552
87382SOL    HW164043  11.844   3.534   6.522
87382SOL    HW264044  11.846   3.426   6.629
87383SOL     OW64045   0.536  12.594  14.005
87383SOL    HW164046   0.566  12.503  14.004
87383SOL    HW264047   0.609  12.643  13.969
87384SOL     OW64048   9.281   6.365   7.750
87384SOL    HW164049   9.369   6.404   7.750
87384SOL    HW264050   9.226   6.431   7.791
87385SOL     OW64051   4.414   3.005   1.242
87385SOL    HW164052   4.358   3.078   1.267
87385SOL    HW264053   4.382   2.931   1.293
87386SOL     OW64054   5.260   5.989  14.262
87386SOL    HW164055   5.189   5.941  14.219
87386SOL    HW264056   5.326   6.001  14.194
87387SOL     OW64057  13.151  10.131  12.485
87387SOL    HW164058  13.058  10.142  12.502
87387SOL    HW264059  13.194  10.160  12.566
87388SOL     OW64060   1.770   5.697   5.872
87388SOL    HW164061   1.709   5.638   5.915
87388SOL    HW264062   1.718   5.740   5.804
87389SOL     OW64063  12.859   9.725  14.410
87389SOL    HW164064  12.878   9.671  14.333
87389SOL    HW264065  12.856   9.815  14.376
87390SOL     OW64066  12.281   9.115   9.392
87390SOL    HW164067  12.224   9.187   9.418
87390SOL    HW264068  12.363   9.157   9.365
87391SOL     OW64069   4.153   7.262   9.392
87391SOL    HW164070   4.061   7.253   9.414
87391SOL    HW264071   4.195   7.183   9.426
87392SOL     OW64072  14.649  14.377  12.774
87392SOL    HW164073  14.581  14.391  12.707
87392SOL    HW264074  14.712  14.320  12.731
87393SOL     OW64075  11.877   4.507   2.243
87393SOL    HW164076  11.940   4.537   2.177
87393SOL    HW264077  11.794   4.502   2.196
87394SOL     OW64078   8.410   8.278   2.539
87394SOL    HW164079   8.490   8.227   2.528
87394SOL    HW264080   8.371   8.279   2.451
87395SOL     OW64081   8.709  14.378   7.299
87395SOL    HW164082   8.771  14.446   7.274
87395SOL    HW264083   8.641  14.424   7.349
87396SOL     OW64084   0.224  14.859  11.514
87396SOL    HW164085   0.265  14.826  11.434
87396SOL    HW264086   0.252   0.068  11.519
87397SOL     OW64087   0.310   6.549   2.007
87397SOL    HW164088   0.264   6.623   1.965
87397SOL    HW264089   0.388   6.537   1.954
87398SOL     OW64090   2.392   5.219  14.364
87398SOL    HW164091   2.319   5.254  14.415
87398SOL    HW264092   2.350   5.172  14.292
87399SOL     OW64093   8.116  13.579   1.455
87399SOL    HW164094   8.088  13.493   1.423
87399SOL    HW264095   8.190  13.560   1.513
87400SOL     OW64096   2.107   7.731   2.723
87400SOL    HW164097   2.188   7.690   2.696
87400SOL    HW264098   2.123   7.825   2.712
87401SOL     OW64099  10.237   8.787  11.610
87401SOL    HW164100  10.156   8.747  11.641
87401SOL    HW264101  10.274   8.830  11.687
87402SOL     OW64102   2.718   7.760   4.401
87402SOL    HW164103   2.631   7.758   4.361
87402SOL    HW264104   2.778   7.742   4.328
87403SOL     OW64105   2.672   0.257   2.134
87403SOL    HW164106   2.680   0.273   2.040
87403SOL    HW264107   2.578   0.264   2.152
87404SOL     OW64108  10.067   3.033   0.792
87404SOL    HW164109  10.156   3.068   0.784
87404SOL    HW264110  10.011   3.111   0.792
87405SOL     OW64111  14.492  12.282  13.637
87405SOL    HW164112  14.531  12.310  13.720
87405SOL    HW264113  14.566  12.274  13.578
87406SOL     OW64114   2.745   2.408   3.728
87406SOL    HW164115   2.747   2.504   3.727
87406SOL    HW264116   2.743   2.383   3.636
87407SOL     OW64117  10.693  12.933  13.265
87407SOL    HW164118  10.628  12.866  13.244
87407SOL    HW264119  10.702  12.985  13.185
87408SOL     OW64120   9.055   3.119  10.698
87408SOL    HW164121   9.068   3.130  10.603
87408SOL    HW264122   9.001   3.040  10.706
87409SOL     OW64123  14.445   6.720  10.103
87409SOL    HW164124  14.405   6.659  10.165
87409SOL    HW264125  14.524   6.674  10.073
87410SOL     OW64126  11.896   7.694  10.277
87410SOL    HW164127  11.814   7.736  10.252
87410SOL    HW264128  11.946   7.689  10.195
87411SOL     OW64129   2.719  10.519  13.805
87411SOL    HW164130   2.722  10.598  13.750
87411SOL    HW264131   2.743  10.550  13.892
87412SOL     OW64132   6.553  10.909   9.903
87412SOL    HW164133   6.633  10.881   9.948
87412SOL    HW264134   6.584  10.962   9.830
87413SOL     OW64135   7.595  11.486  11.412
87413SOL    HW164136   7.689  11.497  11.397
87413SOL    HW264137   7.583  11.391  11.419
87414SOL     OW64138   9.706   6.345  13.643
87414SOL    HW164139   9.678   6.359  13.553
87414SOL    HW264140   9.769   6.415  13.659
87415SOL     OW64141   1.278   3.886   4.470
87415SOL    HW164142   1.271   3.954   4.537
87415SOL    HW264143   1.326   3.815   4.514
87416SOL     OW64144   2.802   3.004   5.879
87416SOL    HW164145   2.803   2.909   5.868
87416SOL    HW264146   2.736   3.035   5.817
87417SOL     OW64147   8.362   2.524   6.841
87417SOL    HW164148   8.429   2.495   6.780
87417SOL    HW264149   8.402   2.599   6.887
87418SOL     OW64150   8.288   1.115   8.331
87418SOL    HW164151   8.373   1.160   8.336
87418SOL    HW264152   8.307   1.026   8.361
87419SOL     OW64153   8.290   8.874   3.752
87419SOL    HW164154   8.267   8.936   3.822
87419SOL    HW264155   8.216   8.814   3.747
87420SOL     OW64156   6.496   3.088   4.201
87420SOL    HW164157   6.493   3.176   4.238
87420SOL    HW264158   6.413   3.077   4.155
87421SOL     OW64159   5.237   2.880   5.249
87421SOL    HW164160   5.172   2.831   5.299
87421SOL    HW264161   5.192   2.906   5.169
87422SOL     OW64162  13.632   7.311   4.450
87422SOL    HW164163  13.540   7.300   4.475
87422SOL    HW264164  13.667   7.373   4.514
87423SOL     OW64165   3.507   6.776   9.268
87423SOL    HW164166   3.438   6.826   9.311
87423SOL    HW264167   3.515   6.816   9.181
87424SOL     OW64168   3.887  14.562  11.976
87424SOL    HW164169   3.873  14.476  12.016
87424SOL    HW264170   3.799  14.594  11.957
87425SOL     OW64171  12.472   3.447  10.183
87425SOL    HW164172  12.434   3.535  10.189
87425SOL    HW264173  12.396   3.389  10.172
87426SOL     OW64174   6.294  10.409  12.219
87426SOL    HW164175   6.305  10.504  12.218
87426SOL    HW264176   6.357  10.377  12.155
87427SOL     OW64177   1.975   3.857   1.667
87427SOL    HW164178   1.988   3.765   1.643
87427SOL    HW264179   1.942   3.898   1.588
87428SOL     OW64180   1.958   5.560  11.319
87428SOL    HW164181   1.898   5.572  11.393
87428SOL    HW264182   1.903   5.576  11.241
87429SOL     OW64183  13.085   8.302   5.748
87429SOL    HW164184  13.173   8.267   5.761
87429SOL    HW264185  13.099   8.389   5.710
87430SOL     OW64186   7.877  14.342   4.018
87430SOL    HW164187   7.832  14.322   4.100
87430SOL    HW264188   7.926  14.423   4.037
87431SOL     OW64189   5.405   4.642  11.140
87431SOL    HW164190   5.363   4.608  11.061
87431SOL    HW264191   5.395   4.572  11.204
87432SOL     OW64192  11.242   7.145  10.884
87432SOL    HW164193  11.335   7.142  10.907
87432SOL    HW264194  11.220   7.055  10.861
87433SOL     OW64195   6.099   2.095   0.741
87433SOL    HW164196   6.036   2.120   0.809
87433SOL    HW264197   6.147   2.021   0.779
87434SOL     OW64198   8.561   5.784   9.213
87434SOL    HW164199   8.643   5.822   9.244
87434SOL    HW264200   8.497   5.807   9.280
87435SOL     OW64201  14.183   0.200   6.587
87435SOL    HW164202  14.225   0.115   6.594
87435SOL    HW264203  14.215   0.249   6.663
87436SOL     OW64204  13.033   0.553  11.742
87436SOL    HW164205  13.010   0.644  11.760
87436SOL    HW264206  13.002   0.538  11.653
87437SOL     OW64207  12.166   7.166   0.381
87437SOL    HW164208  12.191   7.119   0.301
87437SOL    HW264209  12.154   7.098   0.446
87438SOL     OW64210   8.636   1.432   7.331
87438SOL    HW164211   8.564   1.494   7.339
87438SOL    HW264212   8.628   1.376   7.409
87439SOL     OW64213   5.580   4.822   7.898
87439SOL    HW164214   5.576   4.797   7.806
87439SOL    HW264215   5.650   4.886   7.903
87440SOL     OW64216   0.546   8.373  14.049
87440SOL    HW164217   0.544   8.414  14.136
87440SOL    HW264218   0.554   8.446  13.988
87441SOL     OW64219   0.259   5.546  14.403
87441SOL    HW164220   0.208   5.469  14.377
87441SOL    HW264221   0.300   5.521  14.486
87442SOL     OW64222   5.918  12.085   1.401
87442SOL    HW164223   6.003  12.128   1.401
87442SOL    HW264224   5.933  12.001   1.357
87443SOL     OW64225  10.932   4.761   8.849
87443SOL    HW164226  10.950   4.711   8.928
87443SOL    HW264227  10.968   4.708   8.778
87444SOL     OW64228   3.059  11.685   2.674
87444SOL    HW164229   3.134  11.627   2.686
87444SOL    HW264230   3.000  11.637   2.617
87445SOL     OW64231  10.326  10.232  14.788
87445SOL    HW164232  10.243  10.186  14.773
87445SOL    HW264233  10.386  10.165  14.820
87446SOL     OW64234   5.773   0.047  11.481
87446SOL    HW164235   5.680   0.047  11.503
87446SOL    HW264236   5.797  14.836  11.480
87447SOL     OW64237   5.265   3.023   9.430
87447SOL    HW164238   5.293   3.102   9.383
87447SOL    HW264239   5.309   2.951   9.385
87448SOL     OW64240   4.217   6.176   8.768
87448SOL    HW164241   4.229   6.159   8.675
87448SOL    HW264242   4.235   6.091   8.810
87449SOL     OW64243   4.787   4.160   0.352
87449SOL    HW164244   4.748   4.095   0.293
87449SOL    HW264245   4.752   4.137   0.438
87450SOL     OW64246   8.395   7.561   8.018
87450SOL    HW164247   8.388   7.635   8.078
87450SOL    HW264248   8.463   7.587   7.956
87451SOL     OW64249   9.904   5.163   0.223
87451SOL    HW164250   9.950   5.246   0.238
87451SOL    HW264251   9.849   5.151   0.300
87452SOL     OW64252  13.669  13.714   5.171
87452SOL    HW164253  13.610  13.696   5.245
87452SOL    HW264254  13.705  13.801   5.191
87453SOL     OW64255  13.047  13.249   5.250
87453SOL    HW164256  12.973  13.196   5.220
87453SOL    HW264257  13.006  13.320   5.301
87454SOL     OW64258  13.286   1.855  10.374
87454SOL    HW164259  13.379   1.873  10.360
87454SOL    HW264260  13.241   1.925  10.326
87455SOL     OW64261   0.923   7.257   4.970
87455SOL    HW164262   0.919   7.325   5.038
87455SOL    HW264263   0.996   7.284   4.913
87456SOL     OW64264  10.001   7.465   7.981
87456SOL    HW164265   9.930   7.520   8.012
87456SOL    HW264266   9.958   7.391   7.939
87457SOL     OW64267   1.887  12.710   6.845
87457SOL    HW164268   1.804  12.682   6.806
87457SOL    HW264269   1.897  12.655   6.922
87458SOL     OW64270  10.231  12.809   4.398
87458SOL    HW164271  10.214  12.729   4.448
87458SOL    HW264272  10.145  12.850   4.389
87459SOL     OW64273   2.942   9.191   9.063
87459SOL    HW164274   2.902   9.275   9.043
87459SOL    HW264275   2.883   9.127   9.024
87460SOL     OW64276   2.861   6.628  13.332
87460SOL    HW164277   2.948   6.612  13.368
87460SOL    HW264278   2.812   6.667  13.404
87461SOL     OW64279  11.805   5.515  12.958
87461SOL    HW164280  11.720   5.552  12.934
87461SOL    HW264281  11.830   5.562  13.038
87462SOL     OW64282   0.001   0.990   9.295
87462SOL    HW164283  14.792   0.965   9.285
87462SOL    HW264284   0.040   0.974   9.209
87463SOL     OW64285   7.315   6.075  10.781
87463SOL    HW164286   7.344   6.125  10.858
87463SOL    HW264287   7.224   6.054  10.799
87464SOL     OW64288   1.030  10.336  12.568
87464SOL    HW164289   0.948  10.366  12.529
87464SOL    HW264290   1.092  10.335  12.496
87465SOL     OW64291  12.142   5.645  10.071
87465SOL    HW164292  12.188   5.595  10.138
87465SOL    HW264293  12.050   5.620  10.081
87466SOL     OW64294  10.358  12.115   8.540
87466SOL    HW164295  10.384  12.050   8.606
87466SOL    HW264296  10.392  12.198   8.574
87467SOL     OW64297   3.878   1.225   6.428
87467SOL    HW164298   3.860   1.232   6.522
87467SOL    HW264299   3.924   1.142   6.419
87468SOL     OW64300  13.108  10.883   1.479
87468SOL    HW164301  13.148  10.968   1.496
87468SOL    HW264302  13.079  10.887   1.388
87469SOL     OW64303  13.730   3.396   0.972
87469SOL    HW164304  13.757   3.476   0.926
87469SOL    HW264305  13.782   3.326   0.931
87470SOL     OW64306   1.126  10.792   8.440
87470SOL    HW164307   1.180  10.713   8.445
87470SOL    HW264308   1.132  10.820   8.349
87471SOL     OW64309   0.811   7.383  14.503
87471SOL    HW164310   0.823   7.294  14.470
87471SOL    HW264311   0.724   7.408  14.472
87472SOL     OW64312   5.406  12.990   7.854
87472SOL    HW164313   5.489  12.992   7.808
87472SOL    HW264314   5.429  12.994   7.947
87473SOL     OW64315   2.205   1.302   6.344
87473SOL    HW164316   2.289   1.309   6.388
87473SOL    HW264317   2.176   1.392   6.333
87474SOL     OW64318  13.713   1.350   9.918
87474SOL    HW164319  13.661   1.410   9.865
87474SOL    HW264320  13.691   1.372  10.009
87475SOL     OW64321  13.984  11.338   0.401
87475SOL    HW164322  13.922  11.266   0.416
87475SOL    HW264323  14.054  11.299   0.348
87476SOL     OW64324   9.640   6.296   7.649
87476SOL    HW164325   9.586   6.294   7.571
87476SOL    HW264326   9.651   6.389   7.669
87477SOL     OW64327   2.844   1.737   3.976
87477SOL    HW164328   2.763   1.782   3.953
87477SOL    HW264329   2.913   1.800   3.957
87478SOL     OW64330   3.089   1.220   0.620
87478SOL    HW164331   3.071   1.180   0.535
87478SOL    HW264332   3.178   1.255   0.612
87479SOL     OW64333   4.304   3.975   0.248
87479SOL    HW164334   4.340   4.062   0.264
87479SOL    HW264335   4.246   3.987   0.172
87480SOL     OW64336   0.938  12.700   9.534
87480SOL    HW164337   0.885  12.774   9.562
87480SOL    HW264338   0.978  12.667   9.614
87481SOL     OW64339  14.872   7.968   7.317
87481SOL    HW164340  14.824   8.009   7.389
87481SOL    HW264341   0.007   8.040   7.256
87482SOL     OW64342  10.680  14.155  14.222
87482SOL    HW164343  10.694  14.100  14.146
87482SOL    HW264344  10.717  14.106  14.295
87483SOL     OW64345  11.188   7.980  10.117
87483SOL    HW164346  11.116   7.918  10.108
87483SOL    HW264347  11.145   8.066  10.126
87484SOL     OW64348   5.815   6.051   8.918
87484SOL    HW164349   5.843   6.016   9.002
87484SOL    HW264350   5.897   6.061   8.868
87485SOL     OW64351   6.005  13.269   2.239
87485SOL    HW164352   6.094  13.259   2.205
87485SOL    HW264353   5.951  13.217   2.179
87486SOL     OW64354   0.890   0.042  10.756
87486SOL    HW164355   0.936   0.001  10.683
87486SOL    HW264356   0.826  14.859  10.783
87487SOL     OW64357  10.251   9.833   5.744
87487SOL    HW164358  10.215   9.749   5.716
87487SOL    HW264359  10.259   9.825   5.840
87488SOL     OW64360   0.846  14.519   2.316
87488SOL    HW164361   0.775  14.478   2.267
87488SOL    HW264362   0.886  14.447   2.364
87489SOL     OW64363  13.553   6.953   4.780
87489SOL    HW164364  13.576   6.890   4.712
87489SOL    HW264365  13.458   6.944   4.789
87490SOL     OW64366   1.639  10.938   3.066
87490SOL    HW164367   1.616  10.885   2.990
87490SOL    HW264368   1.734  10.949   3.060
87491SOL     OW64369   6.120   7.578  13.794
87491SOL    HW164370   6.119   7.619  13.708
87491SOL    HW264371   6.028   7.576  13.820
87492SOL     OW64372   1.806  11.544  10.245
87492SOL    HW164373   1.772  11.530  10.333
87492SOL    HW264374   1.774  11.470  10.194
87493SOL     OW64375  13.244  13.490   3.646
87493SOL    HW164376  13.272  13.569   3.692
87493SOL    HW264377  13.298  13.420   3.683
87494SOL     OW64378  10.481   6.999   4.394
87494SOL    HW164379  10.563   7.015   4.440
87494SOL    HW264380  10.497   7.028   4.304
87495SOL     OW64381  13.630  11.231  10.406
87495SOL    HW164382  13.554  11.265  10.453
87495SOL    HW264383  13.640  11.290  10.332
87496SOL     OW64384  11.792   1.894  11.651
87496SOL    HW164385  11.777   1.975  11.700
87496SOL    HW264386  11.790   1.922  11.559
87497SOL     OW64387   2.586   1.675   2.159
87497SOL    HW164388   2.550   1.735   2.094
87497SOL    HW264389   2.672   1.651   2.124
87498SOL     OW64390  10.876   5.193   9.609
87498SOL    HW164391  10.854   5.284   9.631
87498SOL    HW264392  10.826   5.175   9.529
87499SOL     OW64393  12.725   8.792   9.964
87499SOL    HW164394  12.766   8.856  10.021
87499SOL    HW264395  12.790   8.721   9.957
87500SOL     OW64396   2.441  10.958   0.039
87500SOL    HW164397   2.525  10.956  14.876
87500SOL    HW264398   2.429  11.050   0.063
87501SOL     OW64399   5.837   1.433   2.533
87501SOL    HW164400   5.911   1.483   2.498
87501SOL    HW264401   5.859   1.418   2.625
87502SOL     OW64402  11.402   6.570  11.132
87502SOL    HW164403  11.497   6.559  11.131
87502SOL    HW264404  11.380   6.597  11.043
87503SOL     OW64405   9.633  10.398  14.147
87503SOL    HW164406   9.669  10.326  14.198
87503SOL    HW264407   9.693  10.471  14.165
87504SOL     OW64408  10.835   1.490   7.284
87504SOL    HW164409  10.790   1.510   7.202
87504SOL    HW264410  10.926   1.515   7.268
87505SOL     OW64411   0.896   6.897   8.541
87505SOL    HW164412   0.912   6.852   8.624
87505SOL    HW264413   0.814   6.944   8.554
87506SOL     OW64414   4.499   4.444  11.313
87506SOL    HW164415   4.488   4.414  11.403
87506SOL    HW264416   4.419   4.415  11.268
87507SOL     OW64417  11.861   4.933  10.346
87507SOL    HW164418  11.887   4.952  10.256
87507SOL    HW264419  11.913   4.993  10.400
87508SOL     OW64420  13.263  11.626  12.877
87508SOL    HW164421  13.321  11.551  12.881
87508SOL    HW264422  13.212  11.622  12.958
87509SOL     OW64423   5.319   1.192   1.677
87509SOL    HW164424   5.326   1.232   1.590
87509SOL    HW264425   5.361   1.106   1.667
87510SOL     OW64426   4.175   9.901  13.164
87510SOL    HW164427   4.088   9.863  13.176
87510SOL    HW264428   4.233   9.846  13.217
87511SOL     OW64429   3.574   3.347   9.912
87511SOL    HW164430   3.580   3.439   9.936
87511SOL    HW264431   3.598   3.300   9.992
87512SOL     OW64432  13.976  10.273   6.846
87512SOL    HW164433  14.008  10.185   6.864
87512SOL    HW264434  13.881  10.264   6.841
87513SOL     OW64435  13.788   5.319   9.301
87513SOL    HW164436  13.802   5.248   9.364
87513SOL    HW264437  13.693   5.328   9.296
87514SOL     OW64438   5.631   0.455   4.267
87514SOL    HW164439   5.624   0.508   4.347
87514SOL    HW264440   5.697   0.501   4.215
87515SOL     OW64441  10.117  13.207   6.571
87515SOL    HW164442  10.179  13.168   6.509
87515SOL    HW264443  10.113  13.145   6.643
87516SOL     OW64444   1.628   8.657  12.141
87516SOL    HW164445   1.630   8.681  12.234
87516SOL    HW264446   1.638   8.562  12.140
87517SOL     OW64447   5.008   9.868   9.011
87517SOL    HW164448   5.057   9.791   9.038
87517SOL    HW264449   4.949   9.836   8.942
87518SOL     OW64450  13.835   3.482   8.047
87518SOL    HW164451  13.766   3.453   8.106
87518SOL    HW264452  13.891   3.405   8.035
87519SOL     OW64453   4.252  11.037   4.136
87519SOL    HW164454   4.333  11.069   4.098
87519SOL    HW264455   4.247  10.946   4.110
87520SOL     OW64456   9.444   3.159   2.032
87520SOL    HW164457   9.395   3.231   2.072
87520SOL    HW264458   9.527   3.199   2.005
87521SOL     OW64459   5.817   2.814   8.110
87521SOL    HW164460   5.781   2.810   8.021
87521SOL    HW264461   5.781   2.896   8.145
87522SOL     OW64462  11.624  12.863  12.821
87522SOL    HW164463  11.644  12.771  12.806
87522SOL    HW264464  11.679  12.910  12.757
87523SOL     OW64465   6.971  11.604   7.482
87523SOL    HW164466   6.979  11.578   7.574
87523SOL    HW264467   7.056  11.641   7.460
87524SOL     OW64468   3.112   0.342   5.661
87524SOL    HW164469   3.112   0.252   5.694
87524SOL    HW264470   3.104   0.333   5.566
87525SOL     OW64471   7.001   3.227  11.848
87525SOL    HW164472   6.912   3.238  11.815
87525SOL    HW264473   6.989   3.195  11.938
87526SOL     OW64474   9.413   8.742   0.608
87526SOL    HW164475   9.322   8.741   0.640
87526SOL    HW264476   9.449   8.659   0.636
87527SOL     OW64477   4.290   7.385  13.656
87527SOL    HW164478   4.261   7.355  13.742
87527SOL    HW264479   4.335   7.467  13.673
87528SOL     OW64480   8.422   3.011   8.839
87528SOL    HW164481   8.413   3.087   8.781
87528SOL    HW264482   8.448   2.940   8.781
87529SOL     OW64483   2.632  10.600   8.639
87529SOL    HW164484   2.546  10.568   8.612
87529SOL    HW264485   2.692  10.569   8.571
87530SOL     OW64486  11.362   6.035   5.715
87530SOL    HW164487  11.313   6.105   5.671
87530SOL    HW264488  11.296   5.968   5.733
87531SOL     OW64489   0.143   8.462   9.937
87531SOL    HW164490   0.198   8.423  10.005
87531SOL    HW264491   0.053   8.445   9.967
87532SOL     OW64492   2.412   0.979   9.013
87532SOL    HW164493   2.484   0.918   8.998
87532SOL    HW264494   2.454   1.064   9.025
87533SOL     OW64495   9.548   8.569   5.129
87533SOL    HW164496   9.629   8.571   5.181
87533SOL    HW264497   9.560   8.496   5.069
87534SOL     OW64498   3.670   1.542  14.316
87534SOL    HW164499   3.640   1.496  14.237
87534SOL    HW264500   3.659   1.479  14.387
87535SOL     OW64501  13.246  14.846   0.124
87535SOL    HW164502  13.330  14.827   0.165
87535SOL    HW264503  13.206  14.759   0.113
87536SOL     OW64504  10.252  14.432  11.382
87536SOL    HW164505  10.289  14.497  11.442
87536SOL    HW264506  10.192  14.483  11.327
87537SOL     OW64507   4.120  14.643   1.792
87537SOL    HW164508   4.155  14.560   1.826
87537SOL    HW264509   4.042  14.617   1.743
87538SOL     OW64510   0.591   3.260   5.049
87538SOL    HW164511   0.583   3.351   5.080
87538SOL    HW264512   0.593   3.267   4.954
87539SOL     OW64513  13.265   0.295   7.131
87539SOL    HW164514  13.301   0.382   7.145
87539SOL    HW264515  13.199   0.307   7.062
87540SOL     OW64516   8.718   5.675   3.183
87540SOL    HW164517   8.809   5.704   3.175
87540SOL    HW264518   8.712   5.597   3.128
87541SOL     OW64519   5.007   1.935   1.219
87541SOL    HW164520   5.082   1.914   1.163
87541SOL    HW264521   4.939   1.874   1.191
87542SOL     OW64522   2.795   5.704   6.250
87542SOL    HW164523   2.862   5.650   6.209
87542SOL    HW264524   2.821   5.794   6.231
87543SOL     OW64525   8.552  14.595  13.656
87543SOL    HW164526   8.479  14.630  13.707
87543SOL    HW264527   8.528  14.612  13.565
87544SOL     OW64528   5.825   8.041  13.178
87544SOL    HW164529   5.905   8.014  13.132
87544SOL    HW264530   5.761   7.972  13.159
87545SOL     OW64531   1.935  13.172  10.439
87545SOL    HW164532   1.880  13.112  10.489
87545SOL    HW264533   1.899  13.170  10.351
87546SOL     OW64534   2.656  14.859   5.703
87546SOL    HW164535   2.680  14.771   5.675
87546SOL    HW264536   2.661  14.856   5.799
87547SOL     OW64537  14.205   0.716   8.575
87547SOL    HW164538  14.181   0.686   8.487
87547SOL    HW264539  14.300   0.729   8.572
87548SOL     OW64540   2.487  10.989   3.862
87548SOL    HW164541   2.561  11.020   3.811
87548SOL    HW264542   2.413  10.990   3.802
87549SOL     OW64543   2.207  10.965   1.560
87549SOL    HW164544   2.171  11.041   1.604
87549SOL    HW264545   2.298  10.989   1.540
87550SOL     OW64546  12.968  11.697  11.340
87550SOL    HW164547  12.916  11.760  11.290
87550SOL    HW264548  13.015  11.750  11.404
87551SOL     OW64549   5.832   4.800   5.469
87551SOL    HW164550   5.865   4.711   5.455
87551SOL    HW264551   5.761   4.790   5.531
87552SOL     OW64552   7.998   1.260   5.745
87552SOL    HW164553   7.954   1.270   5.829
87552SOL    HW264554   7.974   1.173   5.715
87553SOL     OW64555   3.193   8.056   1.290
87553SOL    HW164556   3.189   8.088   1.200
87553SOL    HW264557   3.138   7.978   1.290
87554SOL     OW64558   8.858   7.483   2.557
87554SOL    HW164559   8.826   7.414   2.616
87554SOL    HW264560   8.945   7.453   2.531
87555SOL     OW64561  14.125   2.201   5.751
87555SOL    HW164562  14.036   2.237   5.761
87555SOL    HW264563  14.165   2.211   5.838
87556SOL     OW64564  10.041   7.304   1.861
87556SOL    HW164565  10.131   7.332   1.874
87556SOL    HW264566  10.042   7.210   1.881
87557SOL     OW64567   5.172  10.444  11.654
87557SOL    HW164568   5.114  10.472  11.725
87557SOL    HW264569   5.194  10.525  11.609
87558SOL     OW64570   0.022   7.036   7.724
87558SOL    HW164571  14.834   7.101   7.719
87558SOL    HW264572   0.009   6.981   7.647
87559SOL     OW64573   2.943   2.238   8.107
87559SOL    HW164574   2.915   2.246   8.015
87559SOL    HW264575   3.025   2.188   8.103
87560SOL     OW64576  10.733   9.761  12.159
87560SOL    HW164577  10.709   9.669  12.155
87560SOL    HW264578  10.773   9.772  12.246
87561SOL     OW64579  13.334   1.921   6.584
87561SOL    HW164580  13.268   1.863   6.621
87561SOL    HW264581  13.384   1.866   6.524
87562SOL     OW64582  13.447   0.095   6.151
87562SOL    HW164583  13.533   0.075   6.116
87562SOL    HW264584  13.432   0.030   6.219
87563SOL     OW64585  11.956   2.687   7.555
87563SOL    HW164586  11.975   2.778   7.533
87563SOL    HW264587  12.037   2.655   7.595
87564SOL     OW64588  11.575  11.101   7.871
87564SOL    HW164589  11.611  11.100   7.782
87564SOL    HW264590  11.544  11.190   7.884
87565SOL     OW64591   9.469  13.377   1.689
87565SOL    HW164592   9.443  13.448   1.630
87565SOL    HW264593   9.390  13.355   1.738
87566SOL     OW64594   8.579   2.798   5.800
87566SOL    HW164595   8.570   2.888   5.768
87566SOL    HW264596   8.647   2.760   5.744
87567SOL     OW64597   2.294   3.315   3.881
87567SOL    HW164598   2.319   3.228   3.912
87567SOL    HW264599   2.288   3.305   3.786
87568SOL     OW64600   8.814   3.811   3.371
87568SOL    HW164601   8.770   3.893   3.394
87568SOL    HW264602   8.889   3.838   3.319
87569SOL     OW64603  13.260   0.341   1.182
87569SOL    HW164604  13.290   0.421   1.139
87569SOL    HW264605  13.173   0.325   1.145
87570SOL     OW64606   5.800   0.873   3.200
87570SOL    HW164607   5.749   0.792   3.210
87570SOL    HW264608   5.841   0.885   3.286
87571SOL     OW64609  14.353   0.881   1.322
87571SOL    HW164610  14.340   0.788   1.342
87571SOL    HW264611  14.313   0.892   1.236
87572SOL     OW64612  14.026   4.200   6.387
87572SOL    HW164613  13.954   4.175   6.446
87572SOL    HW264614  13.992   4.186   6.299
87573SOL     OW64615   9.860   4.225   5.567
87573SOL    HW164616   9.876   4.317   5.544
87573SOL    HW264617   9.857   4.180   5.482
87574SOL     OW64618   4.717   3.573   0.985
87574SOL    HW164619   4.728   3.568   0.890
87574SOL    HW264620   4.797   3.533   1.020
87575SOL     OW64621   4.181   6.428  13.060
87575SOL    HW164622   4.130   6.411  12.981
87575SOL    HW264623   4.248   6.491  13.032
87576SOL     OW64624   0.782  10.935   9.111
87576SOL    HW164625   0.852  10.992   9.142
87576SOL    HW264626   0.742  10.900   9.190
87577SOL     OW64627   0.064   2.954  10.122
87577SOL    HW164628   0.136   3.012  10.146
87577SOL    HW264629  14.874   3.014  10.101
87578SOL     OW64630   8.514  10.003  11.167
87578SOL    HW164631   8.548  10.073  11.112
87578SOL    HW264632   8.519   9.925  11.112
87579SOL     OW64633   8.440   7.723   7.250
87579SOL    HW164634   8.525   7.763   7.266
87579SOL    HW264635   8.450   7.632   7.277
87580SOL     OW64636   1.211   1.033   2.829
87580SOL    HW164637   1.265   1.066   2.901
87580SOL    HW264638   1.204   1.107   2.768
87581SOL     OW64639   7.793   3.783   1.132
87581SOL    HW164640   7.826   3.703   1.172
87581SOL    HW264641   7.857   3.805   1.064
87582SOL     OW64642  11.331   3.205  12.099
87582SOL    HW164643  11.392   3.278  12.106
87582SOL    HW264644  11.357   3.159  12.019
87583SOL     OW64645   6.066   3.392   9.472
87583SOL    HW164646   6.086   3.437   9.390
87583SOL    HW264647   6.136   3.419   9.532
87584SOL     OW64648  10.653   7.521   7.405
87584SOL    HW164649  10.610   7.452   7.356
87584SOL    HW264650  10.624   7.508   7.496
87585SOL     OW64651   4.402   6.179   5.255
87585SOL    HW164652   4.327   6.215   5.207
87585SOL    HW264653   4.387   6.205   5.346
87586SOL     OW64654   7.205  13.227  11.601
87586SOL    HW164655   7.157  13.151  11.568
87586SOL    HW264656   7.295  13.196  11.611
87587SOL     OW64657   0.799  12.603  12.256
87587SOL    HW164658   0.878  12.575  12.210
87587SOL    HW264659   0.745  12.524  12.264
87588SOL     OW64660   1.813   6.647  13.139
87588SOL    HW164661   1.817   6.701  13.060
87588SOL    HW264662   1.778   6.706  13.206
87589SOL     OW64663   7.098  14.225   8.336
87589SOL    HW164664   7.015  14.196   8.296
87589SOL    HW264665   7.106  14.171   8.414
87590SOL     OW64666  11.058   0.849   8.026
87590SOL    HW164667  11.130   0.912   8.027
87590SOL    HW264668  10.987   0.895   7.982
87591SOL     OW64669  11.136   7.830   6.396
87591SOL    HW164670  11.091   7.749   6.420
87591SOL    HW264671  11.187   7.853   6.474
87592SOL     OW64672  11.210  13.135   4.144
87592SOL    HW164673  11.301  13.166   4.141
87592SOL    HW264674  11.160  13.210   4.176
87593SOL     OW64675   0.865   8.590  10.760
87593SOL    HW164676   0.882   8.514  10.704
87593SOL    HW264677   0.910   8.662  10.717
87594SOL     OW64678   8.833  12.264   6.854
87594SOL    HW164679   8.807  12.188   6.908
87594SOL    HW264680   8.900  12.230   6.795
87595SOL     OW64681  10.573  10.106  10.760
87595SOL    HW164682  10.525  10.030  10.726
87595SOL    HW264683  10.533  10.181  10.716
87596SOL     OW64684  11.076   2.566   8.895
87596SOL    HW164685  11.019   2.491   8.881
87596SOL    HW264686  11.074   2.614   8.812
87597SOL     OW64687   7.398  13.410  13.254
87597SOL    HW164688   7.415  13.487  13.308
87597SOL    HW264689   7.448  13.426  13.174
87598SOL     OW64690   5.334  12.016   8.445
87598SOL    HW164691   5.269  12.064   8.497
87598SOL    HW264692   5.285  11.985   8.368
87599SOL     OW64693   7.477  14.703   8.708
87599SOL    HW164694   7.483  14.621   8.757
87599SOL    HW264695   7.539  14.761   8.750
87600SOL     OW64696  10.580  12.737   7.727
87600SOL    HW164697  10.487  12.761   7.725
87600SOL    HW264698  10.618  12.784   7.653
87601SOL     OW64699  14.118  13.115   0.486
87601SOL    HW164700  14.139  13.076   0.401
87601SOL    HW264701  14.045  13.062   0.519
87602SOL     OW64702   3.240   0.218   0.313
87602SOL    HW164703   3.270   0.165   0.240
87602SOL    HW264704   3.264   0.308   0.289
87603SOL     OW64705   7.574  10.407  13.940
87603SOL    HW164706   7.491  10.438  13.904
87603SOL    HW264707   7.576  10.314  13.918
87604SOL     OW64708   0.339  10.152   9.648
87604SOL    HW164709   0.319  10.064   9.617
87604SOL    HW264710   0.294  10.159   9.733
87605SOL     OW64711  14.520   9.617   3.595
87605SOL    HW164712  14.552   9.706   3.581
87605SOL    HW264713  14.447   9.627   3.657
87606SOL     OW64714   1.637   0.768  13.262
87606SOL    HW164715   1.667   0.683  13.295
87606SOL    HW264716   1.699   0.790  13.193
87607SOL     OW64717   4.280   1.962   2.365
87607SOL    HW164718   4.188   1.934   2.364
87607SOL    HW264719   4.276   2.057   2.354
87608SOL     OW64720   3.056   1.120  14.491
87608SOL    HW164721   3.114   1.096  14.419
87608SOL    HW264722   3.100   1.194  14.534
87609SOL     OW64723  10.498   4.020  13.410
87609SOL    HW164724  10.532   3.932  13.425
87609SOL    HW264725  10.504   4.032  13.315
87610SOL     OW64726   0.860  13.539   0.987
87610SOL    HW164727   0.875  13.476   0.917
87610SOL    HW264728   0.826  13.486   1.060
87611SOL     OW64729   5.635   1.605   9.895
87611SOL    HW164730   5.566   1.542   9.874
87611SOL    HW264731   5.716   1.558   9.879
87612SOL     OW64732  11.876   9.929   1.604
87612SOL    HW164733  11.795   9.925   1.654
87612SOL    HW264734  11.903   9.837   1.595
87613SOL     OW64735  11.477  11.655   8.858
87613SOL    HW164736  11.537  11.726   8.882
87613SOL    HW264737  11.415  11.652   8.931
87614SOL     OW64738   9.443  12.881   8.059
87614SOL    HW164739   9.461  12.787   8.054
87614SOL    HW264740   9.364  12.887   8.113
87615SOL     OW64741   8.691   7.365   7.998
87615SOL    HW164742   8.706   7.415   8.079
87615SOL    HW264743   8.598   7.379   7.980
87616SOL     OW64744   6.577   1.893   7.833
87616SOL    HW164745   6.656   1.945   7.843
87616SOL    HW264746   6.568   1.846   7.916
87617SOL     OW64747   4.232   2.696  13.256
87617SOL    HW164748   4.195   2.697  13.345
87617SOL    HW264749   4.165   2.653  13.203
87618SOL     OW64750   3.858   8.118   3.993
87618SOL    HW164751   3.829   8.194   4.044
87618SOL    HW264752   3.950   8.106   4.017
87619SOL     OW64753   2.556   4.237   4.081
87619SOL    HW164754   2.478   4.255   4.029
87619SOL    HW264755   2.550   4.298   4.155
87620SOL     OW64756   7.531   4.472   4.732
87620SOL    HW164757   7.525   4.498   4.640
87620SOL    HW264758   7.535   4.555   4.780
87621SOL     OW64759   2.692   2.792   6.793
87621SOL    HW164760   2.730   2.878   6.809
87621SOL    HW264761   2.643   2.772   6.873
87622SOL     OW64762   6.858   5.397  13.112
87622SOL    HW164763   6.842   5.433  13.199
87622SOL    HW264764   6.898   5.469  13.063
87623SOL     OW64765   7.968  12.201   5.236
87623SOL    HW164766   8.021  12.137   5.189
87623SOL    HW264767   7.879  12.168   5.230
87624SOL     OW64768   9.387   2.892  10.629
87624SOL    HW164769   9.422   2.848  10.552
87624SOL    HW264770   9.343   2.970  10.594
87625SOL     OW64771   5.633  13.179   2.735
87625SOL    HW164772   5.643  13.267   2.773
87625SOL    HW264773   5.683  13.122   2.794
87626SOL     OW64774  13.786   5.270  11.257
87626SOL    HW164775  13.725   5.245  11.188
87626SOL    HW264776  13.839   5.340  11.218
87627SOL     OW64777   2.515   5.946  11.344
87627SOL    HW164778   2.492   5.868  11.395
87627SOL    HW264779   2.532   5.912  11.256
87628SOL     OW64780   0.005   3.610   2.175
87628SOL    HW164781   0.035   3.523   2.148
87628SOL    HW264782  14.795   3.597   2.197
87629SOL     OW64783   6.726  13.080  12.359
87629SOL    HW164784   6.654  13.019  12.344
87629SOL    HW264785   6.722  13.099  12.453
87630SOL     OW64786   8.392   2.422   2.427
87630SOL    HW164787   8.388   2.410   2.332
87630SOL    HW264788   8.462   2.364   2.456
87631SOL     OW64789  12.955   4.101   2.060
87631SOL    HW164790  12.990   4.137   2.142
87631SOL    HW264791  12.865   4.076   2.083
87632SOL     OW64792   8.694   0.441   3.938
87632SOL    HW164793   8.718   0.499   4.010
87632SOL    HW264794   8.729   0.484   3.860
87633SOL     OW64795   5.068   4.637   6.166
87633SOL    HW164796   5.080   4.557   6.217
87633SOL    HW264797   4.994   4.618   6.109
87634SOL     OW64798  14.565  14.835  13.808
87634SOL    HW164799  14.539   0.017  13.742
87634SOL    HW264800  14.633  14.880  13.859
87635SOL     OW64801  12.522  11.201   0.243
87635SOL    HW164802  12.505  11.271   0.305
87635SOL    HW264803  12.437  11.181   0.205
87636SOL     OW64804   2.276  14.030  13.952
87636SOL    HW164805   2.317  13.997  14.032
87636SOL    HW264806   2.206  14.088  13.983
87637SOL     OW64807   9.397  12.986   4.872
87637SOL    HW164808   9.375  12.896   4.850
87637SOL    HW264809   9.343  13.039   4.813
87638SOL     OW64810  12.037   5.929   5.681
87638SOL    HW164811  12.094   5.991   5.635
87638SOL    HW264812  12.021   5.859   5.618
87639SOL     OW64813   9.488   2.110   2.491
87639SOL    HW164814   9.582   2.119   2.506
87639SOL    HW264815   9.464   2.030   2.537
87640SOL     OW64816   9.992   4.117   3.378
87640SOL    HW164817   9.998   4.208   3.406
87640SOL    HW264818  10.056   4.071   3.432
87641SOL     OW64819  13.341  11.721   9.165
87641SOL    HW164820  13.310  11.634   9.138
87641SOL    HW264821  13.283  11.782   9.120
87642SOL     OW64822  13.996   6.656   6.791
87642SOL    HW164823  13.942   6.625   6.719
87642SOL    HW264824  13.989   6.752   6.787
87643SOL     OW64825  13.893   9.076  12.723
87643SOL    HW164826  13.852   9.080  12.810
87643SOL    HW264827  13.884   9.165  12.688
87644SOL     OW64828  14.502   8.556   2.929
87644SOL    HW164829  14.597   8.569   2.929
87644SOL    HW264830  14.475   8.577   3.019
87645SOL     OW64831   0.752   0.214   8.941
87645SOL    HW164832   0.718   0.292   8.985
87645SOL    HW264833   0.741   0.231   8.848
87646SOL     OW64834   1.871   9.606   7.687
87646SOL    HW164835   1.946   9.663   7.670
87646SOL    HW264836   1.862   9.553   7.608
87647SOL     OW64837   0.302   8.957   7.749
87647SOL    HW164838   0.253   8.955   7.667
87647SOL    HW264839   0.241   8.995   7.812
87648SOL     OW64840  10.262   7.366  13.034
87648SOL    HW164841  10.189   7.350  13.095
87648SOL    HW264842  10.338   7.332  13.080
87649SOL     OW64843   0.412  10.581  10.549
87649SOL    HW164844   0.378  10.495  10.575
87649SOL    HW264845   0.371  10.599  10.465
87650SOL     OW64846  12.869   7.534  11.655
87650SOL    HW164847  12.848   7.582  11.735
87650SOL    HW264848  12.889   7.601  11.590
87651SOL     OW64849   1.962   3.223   3.289
87651SOL    HW164850   1.962   3.130   3.310
87651SOL    HW264851   2.040   3.235   3.235
87652SOL     OW64852   6.759  11.897   6.412
87652SOL    HW164853   6.682  11.840   6.413
87652SOL    HW264854   6.827  11.846   6.368
87653SOL     OW64855   6.113   5.074   0.036
87653SOL    HW164856   6.034   5.027   0.063
87653SOL    HW264857   6.142   5.027  14.839
87654SOL     OW64858  13.355   8.403   4.808
87654SOL    HW164859  13.391   8.366   4.889
87654SOL    HW264860  13.321   8.489   4.835
87655SOL     OW64861  14.733   8.256  11.034
87655SOL    HW164862  14.799   8.260  10.964
87655SOL    HW264863  14.679   8.181  11.010
87656SOL     OW64864  10.676   6.512   3.828
87656SOL    HW164865  10.689   6.419   3.844
87656SOL    HW264866  10.601   6.516   3.768
87657SOL     OW64867   4.743   8.878  14.254
87657SOL    HW164868   4.772   8.969  14.264
87657SOL    HW264869   4.768   8.836  14.336
87658SOL     OW64870   3.669   1.284  14.457
87658SOL    HW164871   3.619   1.206  14.482
87658SOL    HW264872   3.758   1.252  14.444
87659SOL     OW64873   3.740   9.154   9.727
87659SOL    HW164874   3.766   9.150   9.819
87659SOL    HW264875   3.742   9.062   9.698
87660SOL     OW64876   4.090   9.631  14.408
87660SOL    HW164877   4.142   9.677  14.342
87660SOL    HW264878   4.001   9.665  14.396
87661SOL     OW64879  11.121  14.138   7.328
87661SOL    HW164880  11.210  14.171   7.315
87661SOL    HW264881  11.121  14.102   7.417
87662SOL     OW64882  11.130   8.414  13.692
87662SOL    HW164883  11.107   8.506  13.679
87662SOL    HW264884  11.059   8.378  13.745
87663SOL     OW64885   6.564  11.023   9.339
87663SOL    HW164886   6.523  11.044   9.255
87663SOL    HW264887   6.591  10.932   9.331
87664SOL     OW64888  12.580   7.327   2.061
87664SOL    HW164889  12.504   7.379   2.086
87664SOL    HW264890  12.651   7.359   2.117
87665SOL     OW64891   5.715  11.505  12.343
87665SOL    HW164892   5.658  11.430  12.357
87665SOL    HW264893   5.777  11.503  12.416
87666SOL     OW64894   3.243   4.653   3.520
87666SOL    HW164895   3.300   4.671   3.595
87666SOL    HW264896   3.174   4.597   3.555
87667SOL     OW64897   0.191   6.905  10.743
87667SOL    HW164898   0.281   6.889  10.712
87667SOL    HW264899   0.146   6.942  10.668
87668SOL     OW64900  12.898   2.035   0.643
87668SOL    HW164901  12.947   2.107   0.682
87668SOL    HW264902  12.857   1.991   0.717
87669SOL     OW64903   4.422   7.331  14.675
87669SOL    HW164904   4.371   7.411  14.658
87669SOL    HW264905   4.445   7.299  14.587
87670SOL     OW64906   7.877  12.611  13.442
87670SOL    HW164907   7.871  12.700  13.407
87670SOL    HW264908   7.830  12.557  13.378
87671SOL     OW64909   3.977   8.319   0.574
87671SOL    HW164910   3.989   8.399   0.625
87671SOL    HW264911   3.951   8.253   0.638
87672SOL     OW64912   9.088   3.071   3.244
87672SOL    HW164913   9.099   3.164   3.223
87672SOL    HW264914   9.075   3.069   3.339
87673SOL     OW64915   6.726  12.794  13.651
87673SOL    HW164916   6.808  12.746  13.665
87673SOL    HW264917   6.723  12.859  13.721
87674SOL     OW64918   8.697   4.131  13.039
87674SOL    HW164919   8.776   4.078  13.026
87674SOL    HW264920   8.627   4.066  13.051
87675SOL     OW64921   7.667  10.843   0.258
87675SOL    HW164922   7.726  10.890   0.199
87675SOL    HW264923   7.584  10.838   0.211
87676SOL     OW64924   4.053  10.310   8.713
87676SOL    HW164925   3.996  10.311   8.789
87676SOL    HW264926   4.140  10.329   8.748
87677SOL     OW64927   4.150   7.637   9.647
87677SOL    HW164928   4.214   7.703   9.673
87677SOL    HW264929   4.076   7.650   9.707
87678SOL     OW64930   2.535  11.217   7.088
87678SOL    HW164931   2.473  11.284   7.059
87678SOL    HW264932   2.566  11.249   7.173
87679SOL     OW64933  13.340   9.389   1.946
87679SOL    HW164934  13.306   9.319   1.889
87679SOL    HW264935  13.396   9.343   2.009
87680SOL     OW64936  11.408   8.285  10.269
87680SOL    HW164937  11.494   8.319  10.296
87680SOL    HW264938  11.398   8.314  10.179
87681SOL     OW64939   6.495   9.188   3.220
87681SOL    HW164940   6.567   9.173   3.158
87681SOL    HW264941   6.488   9.283   3.227
87682SOL     OW64942  14.203  14.167   5.337
87682SOL    HW164943  14.165  14.092   5.290
87682SOL    HW264944  14.291  14.138   5.360
87683SOL     OW64945   7.123   4.450   3.151
87683SOL    HW164946   7.053   4.401   3.192
87683SOL    HW264947   7.109   4.541   3.179
87684SOL     OW64948   4.652  10.319   7.176
87684SOL    HW164949   4.584  10.311   7.243
87684SOL    HW264950   4.731  10.283   7.218
87685SOL     OW64951  11.249  14.513  14.056
87685SOL    HW164952  11.209  14.595  14.028
87685SOL    HW264953  11.248  14.518  14.151
87686SOL     OW64954   6.072   0.107   1.813
87686SOL    HW164955   6.139   0.175   1.817
87686SOL    HW264956   5.993   0.152   1.783
87687SOL     OW64957   1.184  12.712  13.255
87687SOL    HW164958   1.137  12.774  13.198
87687SOL    HW264959   1.242  12.767  13.307
87688SOL     OW64960   0.144  13.886  14.166
87688SOL    HW164961   0.141  13.863  14.259
87688SOL    HW264962   0.099  13.813  14.123
87689SOL     OW64963   8.714   3.537   5.998
87689SOL    HW164964   8.724   3.561   6.090
87689SOL    HW264965   8.797   3.562   5.957
87690SOL     OW64966   2.024   7.868   9.206
87690SOL    HW164967   2.007   7.780   9.171
87690SOL    HW264968   1.969   7.874   9.284
87691SOL     OW64969   5.765   1.320   0.910
87691SOL    HW164970   5.744   1.321   1.003
87691SOL    HW264971   5.728   1.402   0.876
87692SOL     OW64972   0.242   4.435   6.966
87692SOL    HW164973   0.218   4.353   7.010
87692SOL    HW264974   0.299   4.480   7.029
87693SOL     OW64975   2.353   3.880   1.773
87693SOL    HW164976   2.267   3.920   1.784
87693SOL    HW264977   2.381   3.857   1.861
87694SOL     OW64978   8.848  13.092   4.797
87694SOL    HW164979   8.804  13.070   4.715
87694SOL    HW264980   8.780  13.086   4.863
87695SOL     OW64981  13.840  12.761  13.848
87695SOL    HW164982  13.750  12.781  13.875
87695SOL    HW264983  13.871  12.842  13.807
87696SOL     OW64984  14.362   1.047   7.821
87696SOL    HW164985  14.323   0.960   7.811
87696SOL    HW264986  14.296   1.097   7.869
87697SOL     OW64987   8.013  14.556   4.977
87697SOL    HW164988   7.957  14.629   4.948
87697SOL    HW264989   8.020  14.500   4.900
87698SOL     OW64990   4.500   6.078  14.689
87698SOL    HW164991   4.532   5.998  14.731
87698SOL    HW264992   4.434   6.047  14.626
87699SOL     OW64993   9.335   5.465  12.357
87699SOL    HW164994   9.329   5.417  12.440
87699SOL    HW264995   9.273   5.420  12.299
87700SOL     OW64996   5.929   3.315   9.757
87700SOL    HW164997   5.834   3.313   9.772
87700SOL    HW264998   5.940   3.280   9.669
87701SOL     OW64999   3.467  11.803   9.487
87701SOL    HW165000   3.375  11.778   9.481
87701SOL    HW265001   3.488  11.837   9.401
87702SOL     OW65002   8.104   4.465   1.738
87702SOL    HW165003   8.129   4.386   1.786
87702SOL    HW265004   8.065   4.522   1.805
87703SOL     OW65005  13.866   6.542   1.684
87703SOL    HW165006  13.827   6.461   1.716
87703SOL    HW265007  13.826   6.554   1.597
87704SOL     OW65008   7.191   9.194   0.842
87704SOL    HW165009   7.156   9.274   0.880
87704SOL    HW265010   7.217   9.140   0.917
87705SOL     OW65011   2.480   2.742   7.464
87705SOL    HW165012   2.425   2.813   7.430
87705SOL    HW265013   2.437   2.662   7.434
87706SOL     OW65014   4.023  11.070   6.535
87706SOL    HW165015   4.052  11.011   6.465
87706SOL    HW265016   3.928  11.056   6.541
87707SOL     OW65017   7.712   3.765  12.065
87707SOL    HW165018   7.765   3.685  12.066
87707SOL    HW265019   7.676   3.770  12.154
87708SOL     OW65020   8.727   7.159   1.676
87708SOL    HW165021   8.679   7.093   1.726
87708SOL    HW265022   8.780   7.205   1.741
87709SOL     OW65023  11.613   3.141  14.735
87709SOL    HW165024  11.699   3.102  14.727
87709SOL    HW265025  11.564   3.081  14.791
87710SOL     OW65026   9.299  10.729   4.910
87710SOL    HW165027   9.209  10.761   4.904
87710SOL    HW265028   9.295  10.660   4.976
87711SOL     OW65029  12.624  12.376   8.726
87711SOL    HW165030  12.698  12.411   8.676
87711SOL    HW265031  12.658  12.363   8.814
87712SOL     OW65032  10.524  10.597   6.173
87712SOL    HW165033  10.455  10.615   6.109
87712SOL    HW265034  10.476  10.576   6.254
87713SOL     OW65035  13.550   8.065   3.093
87713SOL    HW165036  13.522   8.066   3.001
87713SOL    HW265037  13.502   7.992   3.132
87714SOL     OW65038  11.126   6.383   1.364
87714SOL    HW165039  11.084   6.309   1.319
87714SOL    HW265040  11.114   6.457   1.305
87715SOL     OW65041  10.606   1.592   5.765
87715SOL    HW165042  10.610   1.515   5.709
87715SOL    HW265043  10.645   1.564   5.848
87716SOL     OW65044   7.990   1.941  11.476
87716SOL    HW165045   7.903   1.924  11.442
87716SOL    HW265046   7.975   1.981  11.562
87717SOL     OW65047   2.986   4.496   4.086
87717SOL    HW165048   2.930   4.431   4.046
87717SOL    HW265049   3.032   4.537   4.013
87718SOL     OW65050   6.717   0.316  14.177
87718SOL    HW165051   6.763   0.232  14.182
87718SOL    HW265052   6.682   0.320  14.088
87719SOL     OW65053   3.742  12.312  12.913
87719SOL    HW165054   3.758  12.332  13.005
87719SOL    HW265055   3.649  12.328  12.900
87720SOL     OW65056   2.173   7.127   0.248
87720SOL    HW165057   2.097   7.068   0.255
87720SOL    HW265058   2.151   7.199   0.307
87721SOL     OW65059   6.647  12.031   9.151
87721SOL    HW165060   6.721  11.973   9.171
87721SOL    HW265061   6.685  12.104   9.103
87722SOL     OW65062   1.577   8.836  14.266
87722SOL    HW165063   1.536   8.861  14.183
87722SOL    HW265064   1.591   8.918  14.313
87723SOL     OW65065   8.297  12.929   3.949
87723SOL    HW165066   8.275  12.945   4.041
87723SOL    HW265067   8.234  12.862   3.921
87724SOL     OW65068   0.389   3.027   7.620
87724SOL    HW165069   0.337   3.106   7.606
87724SOL    HW265070   0.355   2.990   7.702
87725SOL     OW65071   6.923   7.774   6.726
87725SOL    HW165072   6.896   7.811   6.810
87725SOL    HW265073   6.848   7.721   6.698
87726SOL     OW65074  11.741  13.258   0.980
87726SOL    HW165075  11.795  13.325   0.939
87726SOL    HW265076  11.652  13.293   0.976
87727SOL     OW65077   6.015  10.571   9.240
87727SOL    HW165078   6.045  10.546   9.153
87727SOL    HW265079   5.920  10.574   9.232
87728SOL     OW65080   8.498   8.553   9.728
87728SOL    HW165081   8.418   8.533   9.680
87728SOL    HW265082   8.544   8.468   9.733
87729SOL     OW65083   2.271   0.350   4.733
87729SOL    HW165084   2.310   0.374   4.649
87729SOL    HW265085   2.339   0.368   4.797
87730SOL     OW65086   7.668  12.161  11.304
87730SOL    HW165087   7.687  12.093  11.238
87730SOL    HW265088   7.748  12.167  11.355
87731SOL     OW65089   8.608  10.292  10.299
87731SOL    HW165090   8.617  10.209  10.345
87731SOL    HW265091   8.638  10.358  10.362
87732SOL     OW65092   8.645   3.311   9.883
87732SOL    HW165093   8.630   3.348   9.970
87732SOL    HW265094   8.582   3.356   9.827
87733SOL     OW65095  10.223   4.974   6.592
87733SOL    HW165096  10.208   4.925   6.511
87733SOL    HW265097  10.309   5.013   6.581
87734SOL     OW65098   5.214   4.201   9.534
87734SOL    HW165099   5.154   4.127   9.522
87734SOL    HW265100   5.293   4.162   9.570
87735SOL     OW65101   6.973   0.578   1.059
87735SOL    HW165102   7.018   0.574   0.975
87735SOL    HW265103   6.912   0.504   1.057
87736SOL     OW65104   7.580  12.410   8.057
87736SOL    HW165105   7.514  12.455   8.004
87736SOL    HW265106   7.660  12.461   8.044
87737SOL     OW65107   7.897   4.934   9.058
87737SOL    HW165108   7.944   4.988   8.994
87737SOL    HW265109   7.807   4.932   9.026
87738SOL     OW65110   4.769   5.666  12.564
87738SOL    HW165111   4.854   5.658  12.606
87738SOL    HW265112   4.727   5.741  12.606
87739SOL     OW65113   3.074  11.950   5.297
87739SOL    HW165114   3.099  11.946   5.389
87739SOL    HW265115   3.086  12.041   5.272
87740SOL     OW65116   9.672   9.484   2.107
87740SOL    HW165117   9.577   9.479   2.112
87740SOL    HW265118   9.693   9.573   2.135
87741SOL     OW65119  11.113   5.300   1.529
87741SOL    HW165120  11.193   5.283   1.579
87741SOL    HW265121  11.135   5.271   1.440
87742SOL     OW65122   1.558   7.798   4.646
87742SOL    HW165123   1.559   7.708   4.613
87742SOL    HW265124   1.469   7.810   4.680
87743SOL     OW65125  10.439   7.634   3.711
87743SOL    HW165126  10.346   7.615   3.701
87743SOL    HW265127  10.478   7.551   3.738
87744SOL     OW65128  10.733  14.157   5.936
87744SOL    HW165129  10.745  14.082   5.877
87744SOL    HW265130  10.809  14.213   5.918
87745SOL     OW65131   5.352   7.357  10.355
87745SOL    HW165132   5.347   7.452  10.352
87745SOL    HW265133   5.432   7.339  10.405
87746SOL     OW65134   7.298   1.823   5.568
87746SOL    HW165135   7.291   1.910   5.609
87746SOL    HW265136   7.335   1.767   5.636
87747SOL     OW65137   1.983  14.803   3.207
87747SOL    HW165138   1.919  14.732   3.211
87747SOL    HW265139   1.937  14.879   3.244
87748SOL     OW65140  11.509   5.096  12.393
87748SOL    HW165141  11.592   5.120  12.433
87748SOL    HW265142  11.479   5.177  12.350
87749SOL     OW65143   5.087   0.748   5.531
87749SOL    HW165144   5.115   0.839   5.534
87749SOL    HW265145   5.163   0.699   5.563
87750SOL     OW65146   7.850   0.032  13.421
87750SOL    HW165147   7.922   0.066  13.474
87750SOL    HW265148   7.812  14.844  13.474
87751SOL     OW65149   2.900   2.415  14.680
87751SOL    HW165150   2.968   2.457  14.733
87751SOL    HW265151   2.833   2.389  14.743
87752SOL     OW65152   8.402   2.261   1.629
87752SOL    HW165153   8.319   2.302   1.653
87752SOL    HW265154   8.435   2.224   1.711
87753SOL     OW65155   2.645   6.553  12.360
87753SOL    HW165156   2.681   6.481  12.413
87753SOL    HW265157   2.661   6.526  12.270
87754SOL     OW65158   8.630   7.797   1.059
87754SOL    HW165159   8.646   7.891   1.056
87754SOL    HW265160   8.704   7.762   1.109
87755SOL     OW65161   6.039   4.975   6.656
87755SOL    HW165162   6.082   5.054   6.624
87755SOL    HW265163   6.077   4.959   6.742
87756SOL     OW65164   3.083   5.067   7.119
87756SOL    HW165165   3.125   5.134   7.172
87756SOL    HW265166   3.078   5.106   7.031
87757SOL     OW65167   1.042   3.727  13.815
87757SOL    HW165168   0.973   3.671  13.850
87757SOL    HW265169   1.010   3.816  13.828
87758SOL     OW65170   3.066   9.037  12.739
87758SOL    HW165171   3.159   9.022  12.720
87758SOL    HW265172   3.061   9.040  12.834
87759SOL     OW65173   6.078   6.567  10.446
87759SOL    HW165174   6.165   6.545  10.480
87759SOL    HW265175   6.017   6.522  10.506
87760SOL     OW65176   7.840   7.979   0.619
87760SOL    HW165177   7.794   7.937   0.547
87760SOL    HW265178   7.906   8.033   0.576
87761SOL     OW65179   1.734   4.053   2.199
87761SOL    HW165180   1.670   4.117   2.230
87761SOL    HW265181   1.682   3.978   2.170
87762SOL     OW65182   7.403   6.387  14.064
87762SOL    HW165183   7.358   6.385  13.979
87762SOL    HW265184   7.392   6.298  14.098
87763SOL     OW65185   6.179   2.306   6.012
87763SOL    HW165186   6.091   2.269   6.002
87763SOL    HW265187   6.171   2.395   5.978
87764SOL     OW65188   1.345   5.974  13.192
87764SOL    HW165189   1.286   5.901  13.212
87764SOL    HW265190   1.334   6.034  13.266
87765SOL     OW65191  14.329  12.297  10.585
87765SOL    HW165192  14.325  12.349  10.504
87765SOL    HW265193  14.341  12.363  10.654
87766SOL     OW65194  11.401  11.594  14.569
87766SOL    HW165195  11.352  11.571  14.491
87766SOL    HW265196  11.350  11.664  14.610
87767SOL     OW65197  14.025   9.992   7.808
87767SOL    HW165198  13.991   9.955   7.890
87767SOL    HW265199  13.950  10.037   7.769
87768SOL     OW65200   4.944   8.442  11.572
87768SOL    HW165201   4.911   8.354  11.550
87768SOL    HW265202   5.039   8.435  11.559
87769SOL     OW65203  10.310   7.418  13.755
87769SOL    HW165204  10.254   7.463  13.691
87769SOL    HW265205  10.258   7.416  13.835
87770SOL     OW65206   9.931  14.450  10.803
87770SOL    HW165207   9.947  14.480  10.714
87770SOL    HW265208  10.008  14.398  10.825
87771SOL     OW65209  12.108   0.239   0.641
87771SOL    HW165210  12.199   0.238   0.670
87771SOL    HW265211  12.059   0.274   0.715
87772SOL     OW65212  14.489   9.855  11.327
87772SOL    HW165213  14.524   9.910  11.257
87772SOL    HW265214  14.424   9.909  11.371
87773SOL     OW65215   9.443   8.508   7.313
87773SOL    HW165216   9.518   8.525   7.256
87773SOL    HW265217   9.465   8.427   7.358
87774SOL     OW65218   6.122   6.457   3.851
87774SOL    HW165219   6.033   6.454   3.887
87774SOL    HW265220   6.136   6.370   3.814
87775SOL     OW65221   6.979  14.056  10.807
87775SOL    HW165222   6.990  13.999  10.883
87775SOL    HW265223   6.978  13.996  10.732
87776SOL     OW65224  10.130  10.584   8.466
87776SOL    HW165225  10.102  10.525   8.536
87776SOL    HW265226  10.057  10.645   8.456
87777SOL     OW65227   4.845   6.069   5.055
87777SOL    HW165228   4.752   6.089   5.045
87777SOL    HW265229   4.847   5.978   5.086
87778SOL     OW65230  14.058   9.996   6.589
87778SOL    HW165231  14.033   9.962   6.675
87778SOL    HW265232  14.097   9.921   6.544
87779SOL     OW65233   5.012   4.604  13.401
87779SOL    HW165234   5.020   4.694  13.434
87779SOL    HW265235   5.013   4.613  13.306
87780SOL     OW65236   9.882   8.595   7.935
87780SOL    HW165237   9.836   8.678   7.937
87780SOL    HW265238   9.901   8.575   8.027
87781SOL     OW65239  10.849  12.848   8.784
87781SOL    HW165240  10.892  12.885   8.861
87781SOL    HW265241  10.916  12.848   8.716
87782SOL     OW65242   1.268   1.652  14.371
87782SOL    HW165243   1.202   1.587  14.349
87782SOL    HW265244   1.330   1.605  14.428
87783SOL     OW65245  10.702  12.139  14.569
87783SOL    HW165246  10.680  12.167  14.481
87783SOL    HW265247  10.739  12.052  14.559
87784SOL     OW65248  12.233   0.571  12.599
87784SOL    HW165249  12.263   0.536  12.683
87784SOL    HW265250  12.153   0.620  12.620
87785SOL     OW65251   5.003  10.867   8.317
87785SOL    HW165252   5.042  10.946   8.356
87785SOL    HW265253   5.004  10.884   8.223
87786SOL     OW65254   4.476   5.495   4.416
87786SOL    HW165255   4.517   5.453   4.491
87786SOL    HW265256   4.526   5.463   4.341
87787SOL     OW65257   0.032   6.320   8.855
87787SOL    HW165258   0.020   6.308   8.760
87787SOL    HW265259  14.832   6.290   8.893
87788SOL     OW65260   7.523   2.410  14.731
87788SOL    HW165261   7.464   2.371  14.667
87788SOL    HW265262   7.590   2.343  14.745
87789SOL     OW65263   2.748  11.531  12.462
87789SOL    HW165264   2.692  11.464  12.424
87789SOL    HW265265   2.713  11.613  12.428
87790SOL     OW65266   3.935   7.247   5.086
87790SOL    HW165267   3.897   7.257   4.999
87790SOL    HW265268   4.001   7.316   5.092
87791SOL     OW65269  14.654   5.721  13.775
87791SOL    HW165270  14.710   5.721  13.853
87791SOL    HW265271  14.565   5.713  13.809
87792SOL     OW65272   3.287   9.862   7.650
87792SOL    HW165273   3.232   9.800   7.603
87792SOL    HW265274   3.226   9.918   7.697
87793SOL     OW65275   3.821   6.207   0.319
87793SOL    HW165276   3.839   6.126   0.366
87793SOL    HW265277   3.759   6.181   0.251
87794SOL     OW65278   4.880   2.762   4.707
87794SOL    HW165279   4.965   2.719   4.716
87794SOL    HW265280   4.821   2.694   4.677
87795SOL     OW65281   6.025   6.068   8.745
87795SOL    HW165282   6.036   5.974   8.738
87795SOL    HW265283   6.013   6.098   8.654
87796SOL     OW65284   7.252   4.991   4.565
87796SOL    HW165285   7.253   4.924   4.497
87796SOL    HW265286   7.191   4.959   4.630
87797SOL     OW65287  13.986  12.791   0.131
87797SOL    HW165288  14.033  12.816   0.210
87797SOL    HW265289  14.039  12.721   0.093
87798SOL     OW65290   5.515  12.489   8.728
87798SOL    HW165291   5.592  12.498   8.784
87798SOL    HW265292   5.500  12.395   8.722
87799SOL     OW65293   9.918   3.865   2.416
87799SOL    HW165294   9.834   3.818   2.417
87799SOL    HW265295   9.926   3.897   2.326
87800SOL     OW65296   6.308  13.434   9.742
87800SOL    HW165297   6.403  13.419   9.743
87800SOL    HW265298   6.284  13.428   9.650
87801SOL     OW65299  14.075   6.145  14.168
87801SOL    HW165300  14.111   6.209  14.107
87801SOL    HW265301  14.092   6.182  14.254
87802SOL     OW65302  13.688   2.846   2.594
87802SOL    HW165303  13.775   2.812   2.617
87802SOL    HW265304  13.667   2.804   2.511
87803SOL     OW65305   8.896   6.507  13.668
87803SOL    HW165306   8.940   6.434  13.625
87803SOL    HW265307   8.928   6.506  13.757
87804SOL     OW65308   8.522   1.489   3.725
87804SOL    HW165309   8.609   1.523   3.706
87804SOL    HW265310   8.494   1.446   3.645
87805SOL     OW65311  14.445   5.484  11.247
87805SOL    HW165312  14.356   5.501  11.219
87805SOL    HW265313  14.484   5.432  11.177
87806SOL     OW65314  13.070   5.803  11.099
87806SOL    HW165315  13.040   5.890  11.125
87806SOL    HW265316  13.163   5.802  11.121
87807SOL     OW65317   6.296  10.604   9.230
87807SOL    HW165318   6.294  10.561   9.144
87807SOL    HW265319   6.206  10.635   9.243
87808SOL     OW65320   0.520   7.941  11.612
87808SOL    HW165321   0.546   7.849  11.613
87808SOL    HW265322   0.576   7.981  11.545
87809SOL     OW65323   4.745   5.806   8.327
87809SOL    HW165324   4.759   5.712   8.338
87809SOL    HW265325   4.674   5.827   8.389
87810SOL     OW65326   4.428  14.795   3.205
87810SOL    HW165327   4.396  14.749   3.127
87810SOL    HW265328   4.436   0.004   3.177
87811SOL     OW65329   6.192   2.239  11.284
87811SOL    HW165330   6.177   2.257  11.377
87811SOL    HW265331   6.152   2.153  11.270
87812SOL     OW65332  13.909   9.805  14.127
87812SOL    HW165333  13.867   9.719  14.129
87812SOL    HW265334  13.937   9.820  14.217
87813SOL     OW65335   9.619   1.375   9.401
87813SOL    HW165336   9.555   1.307   9.422
87813SOL    HW265337   9.577   1.428   9.334
87814SOL     OW65338   2.421  12.925   6.090
87814SOL    HW165339   2.346  12.970   6.051
87814SOL    HW265340   2.388  12.837   6.110
87815SOL     OW65341   1.863  10.849  10.588
87815SOL    HW165342   1.857  10.937  10.627
87815SOL    HW265343   1.911  10.863  10.507
87816SOL     OW65344  14.667   3.659  14.308
87816SOL    HW165345  14.680   3.697  14.222
87816SOL    HW265346  14.642   3.568  14.291
87817SOL     OW65347   4.893  12.904  10.720
87817SOL    HW165348   4.893  12.810  10.742
87817SOL    HW265349   4.911  12.948  10.803
87818SOL     OW65350   7.106   7.732  13.940
87818SOL    HW165351   7.087   7.700  13.852
87818SOL    HW265352   7.078   7.661  13.998
87819SOL     OW65353   8.498  14.041   0.800
87819SOL    HW165354   8.491  14.136   0.795
87819SOL    HW265355   8.448  14.010   0.725
87820SOL     OW65356   6.276   3.676  13.292
87820SOL    HW165357   6.258   3.650  13.382
87820SOL    HW265358   6.350   3.737  13.299
87821SOL     OW65359   5.498   6.672   3.586
87821SOL    HW165360   5.437   6.652   3.515
87821SOL    HW265361   5.461   6.626   3.662
87822SOL     OW65362   2.775   6.942   3.285
87822SOL    HW165363   2.761   6.857   3.243
87822SOL    HW265364   2.823   6.993   3.221
87823SOL     OW65365   6.747  13.350  11.682
87823SOL    HW165366   6.809  13.282  11.655
87823SOL    HW265367   6.708  13.316  11.762
87824SOL     OW65368  10.495   8.103  10.795
87824SOL    HW165369  10.545   8.064  10.723
87824SOL    HW265370  10.535   8.065  10.874
87825SOL     OW65371   3.282   5.123  11.024
87825SOL    HW165372   3.277   5.128  11.120
87825SOL    HW265373   3.261   5.212  10.995
87826SOL     OW65374   6.324   3.696   3.376
87826SOL    HW165375   6.253   3.633   3.362
87826SOL    HW265376   6.403   3.650   3.349
87827SOL     OW65377   3.232   9.213   3.049
87827SOL    HW165378   3.306   9.254   3.004
87827SOL    HW265379   3.178   9.286   3.079
87828SOL     OW65380   1.044  10.872   8.191
87828SOL    HW165381   1.055  10.927   8.113
87828SOL    HW265382   0.950  10.856   8.196
87829SOL     OW65383   1.640  12.059   8.830
87829SOL    HW165384   1.624  12.074   8.923
87829SOL    HW265385   1.557  12.080   8.787
87830SOL     OW65386   2.478   8.468   3.592
87830SOL    HW165387   2.461   8.422   3.509
87830SOL    HW265388   2.412   8.536   3.596
87831SOL     OW65389   7.843   3.918  14.745
87831SOL    HW165390   7.766   3.974  14.737
87831SOL    HW265391   7.906   3.972  14.793
87832SOL     OW65392   1.057  12.611   8.443
87832SOL    HW165393   1.039  12.568   8.359
87832SOL    HW265394   1.047  12.704   8.426
87833SOL     OW65395   0.754  10.913   8.200
87833SOL    HW165396   0.717  10.899   8.287
87833SOL    HW265397   0.691  10.872   8.141
87834SOL     OW65398  12.773   9.989  11.188
87834SOL    HW165399  12.815  10.070  11.216
87834SOL    HW265400  12.799   9.924  11.254
87835SOL     OW65401   0.797  14.351   0.801
87835SOL    HW165402   0.764  14.262   0.812
87835SOL    HW265403   0.876  14.354   0.856
87836SOL     OW65404   3.696   2.738   2.377
87836SOL    HW165405   3.790   2.756   2.371
87836SOL    HW265406   3.660   2.809   2.429
87837SOL     OW65407   0.970   3.964   4.182
87837SOL    HW165408   0.934   3.888   4.137
87837SOL    HW265409   0.900   4.029   4.181
87838SOL     OW65410  12.520   6.003   7.446
87838SOL    HW165411  12.616   6.003   7.443
87838SOL    HW265412  12.493   5.954   7.369
87839SOL     OW65413   6.089   2.186  13.275
87839SOL    HW165414   6.154   2.247  13.313
87839SOL    HW265415   6.005   2.225  13.297
87840SOL     OW65416   2.184   2.842   0.905
87840SOL    HW165417   2.153   2.854   0.995
87840SOL    HW265418   2.273   2.877   0.906
87841SOL     OW65419   4.636   3.635   6.490
87841SOL    HW165420   4.700   3.667   6.554
87841SOL    HW265421   4.573   3.707   6.482
87842SOL     OW65422   5.686   7.886  11.218
87842SOL    HW165423   5.720   7.945  11.286
87842SOL    HW265424   5.592   7.882  11.235
87843SOL     OW65425  10.453   0.212   8.642
87843SOL    HW165426  10.433   0.258   8.561
87843SOL    HW265427  10.388   0.242   8.704
87844SOL     OW65428  12.764   7.627  11.269
87844SOL    HW165429  12.834   7.574  11.231
87844SOL    HW265430  12.799   7.655  11.354
87845SOL     OW65431  12.211   3.603   7.133
87845SOL    HW165432  12.251   3.669   7.077
87845SOL    HW265433  12.192   3.650   7.215
87846SOL     OW65434   9.454   7.393  13.005
87846SOL    HW165435   9.514   7.453  13.051
87846SOL    HW265436   9.366   7.426  13.028
87847SOL     OW65437   3.035  10.446  13.996
87847SOL    HW165438   3.108  10.495  13.958
87847SOL    HW265439   2.960  10.505  13.989
87848SOL     OW65440   4.731   4.827   4.789
87848SOL    HW165441   4.696   4.750   4.743
87848SOL    HW265442   4.662   4.893   4.781
87849SOL     OW65443  10.329   5.911   6.859
87849SOL    HW165444  10.364   5.859   6.786
87849SOL    HW265445  10.256   5.960   6.820
87850SOL     OW65446  13.410   6.860   5.709
87850SOL    HW165447  13.357   6.781   5.706
87850SOL    HW265448  13.357   6.927   5.666
87851SOL     OW65449  14.660   7.546  14.409
87851SOL    HW165450  14.625   7.609  14.346
87851SOL    HW265451  14.698   7.477  14.355
87852SOL     OW65452   6.985   6.061   3.293
87852SOL    HW165453   6.912   6.079   3.234
87852SOL    HW265454   7.062   6.057   3.236
87853SOL     OW65455  11.841  13.908   7.790
87853SOL    HW165456  11.803  13.857   7.718
87853SOL    HW265457  11.936  13.905   7.773
87854SOL     OW65458   4.800  12.125  14.550
87854SOL    HW165459   4.788  12.088  14.637
87854SOL    HW265460   4.714  12.160  14.527
87855SOL     OW65461   4.449  12.292   8.655
87855SOL    HW165462   4.403  12.310   8.737
87855SOL    HW265463   4.380  12.281   8.590
87856SOL     OW65464   0.052  11.094  11.431
87856SOL    HW165465  14.871  11.037  11.473
87856SOL    HW265466   0.014  11.114  11.346
87857SOL     OW65467   9.134   2.592   9.905
87857SOL    HW165468   9.110   2.563   9.993
87857SOL    HW265469   9.219   2.634   9.916
87858SOL     OW65470   3.789   3.611   3.528
87858SOL    HW165471   3.828   3.528   3.499
87858SOL    HW265472   3.737   3.587   3.604
87859SOL     OW65473  12.769   8.632   3.756
87859SOL    HW165474  12.862   8.632   3.776
87859SOL    HW265475  12.727   8.665   3.836
87860SOL     OW65476  10.129   2.304  14.166
87860SOL    HW165477  10.171   2.370  14.111
87860SOL    HW265478  10.063   2.352  14.215
87861SOL     OW65479   3.084  11.663  13.800
87861SOL    HW165480   3.109  11.630  13.713
87861SOL    HW265481   3.042  11.589  13.842
87862SOL     OW65482   4.287   8.337   2.372
87862SOL    HW165483   4.243   8.421   2.373
87862SOL    HW265484   4.379   8.358   2.359
87863SOL     OW65485   7.902   1.339   0.146
87863SOL    HW165486   7.869   1.287   0.072
87863SOL    HW265487   7.952   1.276   0.198
87864SOL     OW65488   9.280   5.859   2.288
87864SOL    HW165489   9.363   5.905   2.298
87864SOL    HW265490   9.228   5.915   2.230
87865SOL     OW65491   4.401   7.840  11.589
87865SOL    HW165492   4.353   7.784  11.650
87865SOL    HW265493   4.428   7.781  11.519
87866SOL     OW65494   6.052   9.117   5.393
87866SOL    HW165495   6.005   9.084   5.470
87866SOL    HW265496   6.127   9.165   5.429
87867SOL     OW65497   1.631   5.952  11.275
87867SOL    HW165498   1.557   5.919  11.224
87867SOL    HW265499   1.707   5.941  11.217
87868SOL     OW65500   2.690   3.096  12.158
87868SOL    HW165501   2.661   3.185  12.136
87868SOL    HW265502   2.657   3.081  12.246
87869SOL     OW65503   6.558   5.107  13.015
87869SOL    HW165504   6.633   5.165  13.004
87869SOL    HW265505   6.582   5.026  12.970
87870SOL     OW65506  10.337  12.943   4.608
87870SOL    HW165507  10.302  12.895   4.534
87870SOL    HW265508  10.417  12.984   4.575
87871SOL     OW65509  13.184  14.305  12.380
87871SOL    HW165510  13.232  14.281  12.301
87871SOL    HW265511  13.147  14.223  12.412
87872SOL     OW65512   5.458   2.408   1.480
87872SOL    HW165513   5.509   2.343   1.432
87872SOL    HW265514   5.367   2.382   1.467
87873SOL     OW65515   5.968   2.082   2.374
87873SOL    HW165516   5.997   2.153   2.432
87873SOL    HW265517   5.953   2.008   2.431
87874SOL     OW65518  10.555   9.472   6.089
87874SOL    HW165519  10.545   9.564   6.064
87874SOL    HW265520  10.477   9.453   6.142
87875SOL     OW65521   4.681   0.134   0.855
87875SOL    HW165522   4.743   0.082   0.804
87875SOL    HW265523   4.628   0.069   0.902
87876SOL     OW65524   0.767   7.537   9.382
87876SOL    HW165525   0.759   7.455   9.333
87876SOL    HW265526   0.678   7.552   9.416
87877SOL     OW65527   0.891   5.413   8.471
87877SOL    HW165528   0.944   5.454   8.539
87877SOL    HW265529   0.804   5.449   8.484
87878SOL     OW65530   2.207   0.838   6.110
87878SOL    HW165531   2.113   0.821   6.120
87878SOL    HW265532   2.227   0.905   6.176
87879SOL     OW65533  12.611   6.081   3.337
87879SOL    HW165534  12.644   6.164   3.370
87879SOL    HW265535  12.669   6.060   3.263
87880SOL     OW65536  10.223  10.125   1.153
87880SOL    HW165537  10.168  10.179   1.096
87880SOL    HW265538  10.167  10.054   1.182
87881SOL     OW65539  10.890   7.530   2.015
87881SOL    HW165540  10.805   7.571   2.025
87881SOL    HW265541  10.907   7.488   2.100
87882SOL     OW65542   0.693   0.762   5.280
87882SOL    HW165543   0.691   0.799   5.368
87882SOL    HW265544   0.601   0.744   5.259
87883SOL     OW65545   3.391   1.541   5.280
87883SOL    HW165546   3.482   1.522   5.303
87883SOL    HW265547   3.346   1.545   5.365
87884SOL     OW65548  10.745   6.657   4.706
87884SOL    HW165549  10.784   6.667   4.619
87884SOL    HW265550  10.657   6.693   4.697
87885SOL     OW65551   9.554   8.750  11.758
87885SOL    HW165552   9.540   8.842  11.783
87885SOL    HW265553   9.491   8.734  11.689
87886SOL     OW65554   8.364   2.037  10.561
87886SOL    HW165555   8.321   1.986  10.629
87886SOL    HW265556   8.299   2.103  10.535
87887SOL     OW65557   3.394  10.938   2.568
87887SOL    HW165558   3.472  10.944   2.623
87887SOL    HW265559   3.404  10.856   2.520
87888SOL     OW65560  14.012   2.906  11.774
87888SOL    HW165561  14.104   2.892  11.751
87888SOL    HW265562  13.988   2.987  11.729
87889SOL     OW65563   1.145  11.871  13.985
87889SOL    HW165564   1.226  11.908  13.950
87889SOL    HW265565   1.085  11.872  13.910
87890SOL     OW65566  11.223  10.875  14.717
87890SOL    HW165567  11.157  10.869  14.786
87890SOL    HW265568  11.292  10.929  14.755
87891SOL     OW65569   7.702   0.445   7.867
87891SOL    HW165570   7.632   0.394   7.827
87891SOL    HW265571   7.722   0.399   7.949
87892SOL     OW65572   5.175   9.181   2.334
87892SOL    HW165573   5.172   9.085   2.330
87892SOL    HW265574   5.083   9.207   2.331
87893SOL     OW65575   0.953   1.169  12.505
87893SOL    HW165576   0.914   1.112  12.571
87893SOL    HW265577   0.985   1.109  12.438
87894SOL     OW65578   9.534  13.008   7.021
87894SOL    HW165579   9.574  13.068   7.085
87894SOL    HW265580   9.608  12.976   6.970
87895SOL     OW65581   2.745  12.628  12.286
87895SOL    HW165582   2.679  12.630  12.218
87895SOL    HW265583   2.714  12.562  12.348
87896SOL     OW65584  11.517  14.373   2.013
87896SOL    HW165585  11.482  14.428   2.083
87896SOL    HW265586  11.585  14.426   1.972
87897SOL     OW65587   9.382  11.894  13.467
87897SOL    HW165588   9.398  11.897  13.373
87897SOL    HW265589   9.316  11.962  13.481
87898SOL     OW65590   1.306   7.106  13.030
87898SOL    HW165591   1.217   7.077  13.011
87898SOL    HW265592   1.303   7.201  13.022
87899SOL     OW65593  14.238   3.677  14.423
87899SOL    HW165594  14.324   3.718  14.430
87899SOL    HW265595  14.178   3.749  14.404
87900SOL     OW65596   3.031   2.840   5.200
87900SOL    HW165597   3.095   2.871   5.136
87900SOL    HW265598   2.964   2.908   5.202
87901SOL     OW65599   0.987   5.877  12.886
87901SOL    HW165600   0.940   5.827  12.953
87901SOL    HW265601   0.950   5.965  12.891
87902SOL     OW65602   7.229   4.124   3.546
87902SOL    HW165603   7.160   4.146   3.483
87902SOL    HW265604   7.225   4.195   3.611
87903SOL     OW65605   4.650   9.742   1.834
87903SOL    HW165606   4.556   9.737   1.816
87903SOL    HW265607   4.688   9.778   1.754
87904SOL     OW65608  14.860   7.540   9.706
87904SOL    HW165609   0.044   7.477   9.678
87904SOL    HW265610  14.814   7.563   9.626
87905SOL     OW65611  13.833   7.858   9.330
87905SOL    HW165612  13.794   7.927   9.277
87905SOL    HW265613  13.860   7.901   9.411
87906SOL     OW65614   9.012   8.231   5.814
87906SOL    HW165615   8.973   8.148   5.786
87906SOL    HW265616   8.982   8.242   5.904
87907SOL     OW65617   1.037  13.303   8.631
87907SOL    HW165618   1.115  13.339   8.674
87907SOL    HW265619   1.071  13.247   8.562
87908SOL     OW65620   4.953  13.470   6.426
87908SOL    HW165621   4.870  13.488   6.382
87908SOL    HW265622   5.019  13.515   6.374
87909SOL     OW65623   4.023   9.228  14.010
87909SOL    HW165624   3.976   9.224  14.093
87909SOL    HW265625   3.972   9.172  13.951
87910SOL     OW65626   8.948  13.170   0.268
87910SOL    HW165627   8.895  13.122   0.205
87910SOL    HW265628   9.031  13.186   0.223
87911SOL     OW65629   0.123   9.156  11.253
87911SOL    HW165630   0.202   9.210  11.244
87911SOL    HW265631   0.064   9.190  11.186
87912SOL     OW65632   9.359  11.158  11.142
87912SOL    HW165633   9.411  11.111  11.076
87912SOL    HW265634   9.381  11.114  11.225
87913SOL     OW65635   6.324   8.814   1.863
87913SOL    HW165636   6.327   8.908   1.844
87913SOL    HW265637   6.396   8.777   1.811
87914SOL     OW65638  13.894  13.109   3.980
87914SOL    HW165639  13.904  13.126   4.074
87914SOL    HW265640  13.822  13.047   3.975
87915SOL     OW65641  13.800   4.505   9.613
87915SOL    HW165642  13.705   4.510   9.609
87915SOL    HW265643  13.818   4.421   9.656
87916SOL     OW65644   8.302   1.913  13.581
87916SOL    HW165645   8.352   1.909  13.499
87916SOL    HW265646   8.235   1.979  13.565
87917SOL     OW65647   3.358  14.737   0.438
87917SOL    HW165648   3.389  14.711   0.524
87917SOL    HW265649   3.321  14.825   0.452
87918SOL     OW65650   0.797  10.246  14.702
87918SOL    HW165651   0.805  10.198  14.784
87918SOL    HW265652   0.862  10.206  14.644
87919SOL     OW65653   5.369   6.062   1.644
87919SOL    HW165654   5.351   6.055   1.738
87919SOL    HW265655   5.292   6.025   1.602
87920SOL     OW65656  10.351   2.079   6.863
87920SOL    HW165657  10.260   2.102   6.848
87920SOL    HW265658  10.376   2.027   6.786
87921SOL     OW65659  12.117   9.107   5.687
87921SOL    HW165660  12.078   9.140   5.768
87921SOL    HW265661  12.120   9.012   5.698
87922SOL     OW65662  12.586  14.523   1.959
87922SOL    HW165663  12.546  14.607   1.979
87922SOL    HW265664  12.679  14.543   1.946
87923SOL     OW65665   2.528   6.852   6.577
87923SOL    HW165666   2.517   6.894   6.663
87923SOL    HW265667   2.446   6.806   6.562
87924SOL     OW65668   8.494  10.895   2.952
87924SOL    HW165669   8.424  10.845   2.995
87924SOL    HW265670   8.575  10.860   2.989
87925SOL     OW65671   2.611  12.287   5.277
87925SOL    HW165672   2.561  12.365   5.254
87925SOL    HW265673   2.574  12.258   5.360
87926SOL     OW65674  14.485   7.761  12.266
87926SOL    HW165675  14.440   7.677  12.259
87926SOL    HW265676  14.415   7.824  12.283
87927SOL     OW65677  13.580   5.187   7.086
87927SOL    HW165678  13.659   5.134   7.085
87927SOL    HW265679  13.574   5.222   6.997
87928SOL     OW65680   7.372   8.583   4.240
87928SOL    HW165681   7.387   8.495   4.207
87928SOL    HW265682   7.456   8.628   4.228
87929SOL     OW65683  13.596   5.105   6.623
87929SOL    HW165684  13.516   5.151   6.597
87929SOL    HW265685  13.623   5.058   6.544
87930SOL     OW65686  10.906   1.590  13.753
87930SOL    HW165687  10.920   1.495  13.751
87930SOL    HW265688  10.991   1.627  13.776
87931SOL     OW65689  11.077   3.187   7.505
87931SOL    HW165690  11.147   3.124   7.491
87931SOL    HW265691  11.114   3.270   7.475
87932SOL     OW65692   4.798  14.082   7.171
87932SOL    HW165693   4.778  14.071   7.078
87932SOL    HW265694   4.872  14.142   7.173
87933SOL     OW65695   5.969   0.105  13.101
87933SOL    HW165696   5.888   0.156  13.101
87933SOL    HW265697   6.022   0.146  13.169
87934SOL     OW65698   7.186   9.751   2.947
87934SOL    HW165699   7.146   9.691   2.883
87934SOL    HW265700   7.118   9.763   3.014
87935SOL     OW65701  10.928   8.167   3.388
87935SOL    HW165702  10.842   8.152   3.348
87935SOL    HW265703  10.979   8.090   3.362
87936SOL     OW65704   4.554   7.747   4.896
87936SOL    HW165705   4.549   7.668   4.950
87936SOL    HW265706   4.542   7.715   4.807
87937SOL     OW65707  10.084  14.083   1.393
87937SOL    HW165708  10.120  14.142   1.327
87937SOL    HW265709  10.027  14.024   1.344
87938SOL     OW65710   0.344   9.667   8.099
87938SOL    HW165711   0.392   9.722   8.037
87938SOL    HW265712   0.375   9.694   8.185
87939SOL     OW65713   2.407   7.922   7.476
87939SOL    HW165714   2.333   7.871   7.508
87939SOL    HW265715   2.420   7.990   7.542
87940SOL     OW65716   8.229  13.923   0.947
87940SOL    HW165717   8.298  13.990   0.947
87940SOL    HW265718   8.171  13.949   1.018
87941SOL     OW65719  14.510  12.237   1.977
87941SOL    HW165720  14.586  12.281   1.937
87941SOL    HW265721  14.435  12.273   1.930
87942SOL     OW65722   5.799   9.916   1.496
87942SOL    HW165723   5.713   9.889   1.527
87942SOL    HW265724   5.794  10.011   1.490
87943SOL     OW65725  13.499   6.460   3.021
87943SOL    HW165726  13.521   6.395   3.089
87943SOL    HW265727  13.577   6.516   3.016
87944SOL     OW65728   3.375  12.012  10.457
87944SOL    HW165729   3.393  12.076  10.526
87944SOL    HW265730   3.430  12.040  10.384
87945SOL     OW65731   4.598  11.088  14.762
87945SOL    HW165732   4.681  11.126  14.733
87945SOL    HW265733   4.591  11.005  14.714
87946SOL     OW65734   6.888   8.883   8.749
87946SOL    HW165735   6.903   8.838   8.833
87946SOL    HW265736   6.884   8.812   8.685
87947SOL     OW65737   4.474  13.914  12.127
87947SOL    HW165738   4.433  13.925  12.042
87947SOL    HW265739   4.566  13.936  12.113
87948SOL     OW65740   0.432   5.536   6.556
87948SOL    HW165741   0.522   5.508   6.543
87948SOL    HW265742   0.380   5.475   6.502
87949SOL     OW65743   1.933   3.891   2.152
87949SOL    HW165744   1.997   3.930   2.092
87949SOL    HW265745   1.876   3.964   2.177
87950SOL     OW65746   7.799   3.119  10.535
87950SOL    HW165747   7.726   3.140  10.593
87950SOL    HW265748   7.843   3.203  10.520
87951SOL     OW65749   7.097   1.755   7.735
87951SOL    HW165750   7.067   1.680   7.786
87951SOL    HW265751   7.192   1.741   7.726
87952SOL     OW65752   4.429   6.137   0.056
87952SOL    HW165753   4.522   6.133   0.079
87952SOL    HW265754   4.429   6.141  14.842
87953SOL     OW65755   7.683   6.842  10.553
87953SOL    HW165756   7.728   6.927  10.557
87953SOL    HW265757   7.599   6.857  10.597
87954SOL     OW65758  10.503  11.062   6.711
87954SOL    HW165759  10.567  11.036   6.777
87954SOL    HW265760  10.435  10.995   6.715
87955SOL     OW65761   5.950   5.588   5.760
87955SOL    HW165762   6.019   5.522   5.773
87955SOL    HW265763   5.988   5.650   5.699
87956SOL     OW65764  11.391  12.687   9.874
87956SOL    HW165765  11.391  12.600   9.914
87956SOL    HW265766  11.447  12.739   9.931
87957SOL     OW65767   4.549   2.895   8.708
87957SOL    HW165768   4.492   2.968   8.731
87957SOL    HW265769   4.491   2.819   8.704
87958SOL     OW65770   2.979  12.755   8.774
87958SOL    HW165771   2.891  12.759   8.812
87958SOL    HW265772   3.018  12.676   8.812
87959SOL     OW65773  10.012  10.314   0.159
87959SOL    HW165774   9.983  10.223   0.156
87959SOL    HW265775   9.947  10.362   0.108
87960SOL     OW65776  14.691   7.771   3.644
87960SOL    HW165777  14.642   7.785   3.563
87960SOL    HW265778  14.758   7.839   3.643
87961SOL     OW65779   1.080   0.859   6.089
87961SOL    HW165780   1.143   0.793   6.060
87961SOL    HW265781   1.076   0.921   6.017
87962SOL     OW65782  10.026   2.100   9.967
87962SOL    HW165783  10.074   2.134   9.891
87962SOL    HW265784  10.053   2.157  10.039
87963SOL     OW65785   3.558   3.210   3.308
87963SOL    HW165786   3.550   3.115   3.308
87963SOL    HW265787   3.469   3.241   3.329
87964SOL     OW65788   5.452  11.155   6.277
87964SOL    HW165789   5.428  11.235   6.229
87964SOL    HW265790   5.546  11.146   6.263
87965SOL     OW65791   0.341   5.727   0.481
87965SOL    HW165792   0.342   5.791   0.552
87965SOL    HW265793   0.297   5.651   0.517
87966SOL     OW65794  13.604  12.680   0.855
87966SOL    HW165795  13.597  12.587   0.876
87966SOL    HW265796  13.638  12.682   0.765
87967SOL     OW65797  13.801   3.071   6.728
87967SOL    HW165798  13.723   3.113   6.764
87967SOL    HW265799  13.817   3.115   6.645
87968SOL     OW65800   6.584   6.146  13.328
87968SOL    HW165801   6.650   6.081  13.350
87968SOL    HW265802   6.531   6.105  13.260
87969SOL     OW65803   8.308   4.785   8.884
87969SOL    HW165804   8.369   4.751   8.950
87969SOL    HW265805   8.239   4.828   8.935
87970SOL     OW65806  12.696   3.820  14.078
87970SOL    HW165807  12.676   3.898  14.129
87970SOL    HW265808  12.689   3.848  13.987
87971SOL     OW65809   5.104   4.706   1.543
87971SOL    HW165810   5.169   4.636   1.537
87971SOL    HW265811   5.104   4.746   1.456
87972SOL     OW65812   1.616   8.262   7.835
87972SOL    HW165813   1.705   8.232   7.854
87972SOL    HW265814   1.560   8.200   7.881
87973SOL     OW65815   0.607  10.915   6.603
87973SOL    HW165816   0.655  10.847   6.650
87973SOL    HW265817   0.631  10.902   6.511
87974SOL     OW65818   4.974   5.204   3.662
87974SOL    HW165819   5.058   5.226   3.622
87974SOL    HW265820   4.996   5.163   3.745
87975SOL     OW65821   7.655  13.194  14.063
87975SOL    HW165822   7.695  13.125  14.009
87975SOL    HW265823   7.586  13.230  14.007
87976SOL     OW65824  13.607   1.428  10.763
87976SOL    HW165825  13.666   1.415  10.837
87976SOL    HW265826  13.653   1.489  10.706
87977SOL     OW65827   7.717   0.298  12.262
87977SOL    HW165828   7.635   0.248  12.267
87977SOL    HW265829   7.745   0.289  12.171
87978SOL     OW65830  11.286  12.212   9.929
87978SOL    HW165831  11.304  12.302   9.957
87978SOL    HW265832  11.209  12.219   9.872
87979SOL     OW65833   5.793   5.687  13.170
87979SOL    HW165834   5.703   5.663  13.190
87979SOL    HW265835   5.789   5.779  13.143
87980SOL     OW65836  12.012  10.659   4.635
87980SOL    HW165837  11.998  10.641   4.542
87980SOL    HW265838  12.059  10.583   4.669
87981SOL     OW65839  10.777   3.924   3.833
87981SOL    HW165840  10.804   3.860   3.898
87981SOL    HW265841  10.774   3.875   3.751
87982SOL     OW65842   4.144   9.521   6.278
87982SOL    HW165843   4.184   9.608   6.288
87982SOL    HW265844   4.053   9.534   6.304
87983SOL     OW65845   1.733   7.071   2.906
87983SOL    HW165846   1.826   7.060   2.889
87983SOL    HW265847   1.689   7.027   2.833
87984SOL     OW65848   9.817   0.398   5.320
87984SOL    HW165849   9.738   0.344   5.307
87984SOL    HW265850   9.877   0.341   5.368
87985SOL     OW65851  10.326   4.241   7.091
87985SOL    HW165852  10.358   4.152   7.075
87985SOL    HW265853  10.268   4.259   7.016
87986SOL     OW65854   7.616  12.841  14.025
87986SOL    HW165855   7.673  12.794  14.086
87986SOL    HW265856   7.671  12.911  13.990
87987SOL     OW65857   1.967   1.080  10.812
87987SOL    HW165858   2.024   1.012  10.846
87987SOL    HW265859   1.878   1.051  10.835
87988SOL     OW65860   0.809   8.307  11.390
87988SOL    HW165861   0.798   8.292  11.484
87988SOL    HW265862   0.867   8.383  11.385
87989SOL     OW65863   5.681  10.272   5.969
87989SOL    HW165864   5.683  10.219   6.049
87989SOL    HW265865   5.631  10.350   5.993
87990SOL     OW65866   0.871   4.373   4.044
87990SOL    HW165867   0.905   4.461   4.033
87990SOL    HW265868   0.913   4.322   3.975
87991SOL     OW65869  10.519  13.246   7.315
87991SOL    HW165870  10.613  13.251   7.332
87991SOL    HW265871  10.505  13.155   7.286
87992SOL     OW65872   4.931   8.609   9.660
87992SOL    HW165873   5.025   8.622   9.655
87992SOL    HW265874   4.917   8.563   9.742
87993SOL     OW65875   1.508   8.727   8.122
87993SOL    HW165876   1.470   8.669   8.056
87993SOL    HW265877   1.591   8.685   8.145
87994SOL     OW65878   5.908   3.861   8.454
87994SOL    HW165879   6.000   3.838   8.462
87994SOL    HW265880   5.893   3.870   8.360
87995SOL     OW65881   7.341  14.434  10.248
87995SOL    HW165882   7.298  14.465  10.328
87995SOL    HW265883   7.415  14.381  10.279
87996SOL     OW65884   2.696   6.704   3.173
87996SOL    HW165885   2.629   6.666   3.230
87996SOL    HW265886   2.647   6.738   3.098
87997SOL     OW65887   3.888   8.439   7.883
87997SOL    HW165888   3.898   8.388   7.803
87997SOL    HW265889   3.967   8.420   7.934
87998SOL     OW65890   1.854  14.282   3.894
87998SOL    HW165891   1.938  14.241   3.874
87998SOL    HW265892   1.873  14.376   3.895
87999SOL     OW65893  14.790  12.887   6.288
87999SOL    HW165894  14.791  12.971   6.241
87999SOL    HW265895  14.833  12.826   6.229
88000SOL     OW65896   7.617  12.562   2.268
88000SOL    HW165897   7.605  12.595   2.179
88000SOL    HW265898   7.708  12.532   2.271
88001SOL     OW65899   8.506  10.310   0.543
88001SOL    HW165900   8.547  10.316   0.456
88001SOL    HW265901   8.579  10.314   0.604
88002SOL     OW65902   0.562  11.995  11.242
88002SOL    HW165903   0.469  12.005  11.262
88002SOL    HW265904   0.603  11.973  11.326
88003SOL     OW65905  14.879   2.081   7.828
88003SOL    HW165906   0.019   2.124   7.745
88003SOL    HW265907   0.078   2.084   7.879
88004SOL     OW65908   4.758  12.960   0.697
88004SOL    HW165909   4.832  13.004   0.738
88004SOL    HW265910   4.708  12.924   0.770
88005SOL     OW65911   2.643   7.812  10.256
88005SOL    HW165912   2.725   7.766  10.274
88005SOL    HW265913   2.609   7.770  10.177
88006SOL     OW65914   6.964  11.461  11.630
88006SOL    HW165915   6.912  11.526  11.582
88006SOL    HW265916   6.978  11.501  11.716
88007SOL     OW65917   2.154   8.755   0.109
88007SOL    HW165918   2.199   8.721   0.187
88007SOL    HW265919   2.084   8.691   0.092
88008SOL     OW65920  11.180  10.454   8.880
88008SOL    HW165921  11.133  10.513   8.939
88008SOL    HW265922  11.112  10.396   8.845
88009SOL     OW65923  13.405   5.451   7.788
88009SOL    HW165924  13.356   5.374   7.761
88009SOL    HW265925  13.458   5.421   7.862
88010SOL     OW65926   5.337   6.538   0.774
88010SOL    HW165927   5.392   6.599   0.726
88010SOL    HW265928   5.269   6.512   0.712
88011SOL     OW65929   4.119   7.054   6.434
88011SOL    HW165930   4.132   7.147   6.415
88011SOL    HW265931   4.154   7.043   6.523
88012SOL     OW65932   3.807   8.254  13.993
88012SOL    HW165933   3.859   8.241  13.914
88012SOL    HW265934   3.733   8.194  13.984
88013SOL     OW65935   1.723   4.370   5.429
88013SOL    HW165936   1.704   4.278   5.447
88013SOL    HW265937   1.672   4.419   5.493
88014SOL     OW65938  12.918   9.345   2.721
88014SOL    HW165939  12.924   9.440   2.706
88014SOL    HW265940  12.943   9.333   2.812
88015SOL     OW65941  10.747   3.809  12.281
88015SOL    HW165942  10.836   3.813  12.246
88015SOL    HW265943  10.725   3.900  12.301
88016SOL     OW65944  11.592   5.061   4.564
88016SOL    HW165945  11.563   5.072   4.474
88016SOL    HW265946  11.642   4.980   4.564
88017SOL     OW65947   8.291  13.932  13.851
88017SOL    HW165948   8.252  13.900  13.932
88017SOL    HW265949   8.368  13.980  13.878
88018SOL     OW65950   0.218   7.180   7.564
88018SOL    HW165951   0.159   7.124   7.614
88018SOL    HW265952   0.294   7.124   7.547
88019SOL     OW65953  10.716  11.325  10.203
88019SOL    HW165954  10.725  11.238  10.163
88019SOL    HW265955  10.790  11.375  10.169
88020SOL     OW65956   1.206  14.802  13.374
88020SOL    HW165957   1.217  14.744  13.449
88020SOL    HW265958   1.271  14.871  13.387
88021SOL     OW65959  14.316  11.924   9.661
88021SOL    HW165960  14.237  11.872   9.677
88021SOL    HW265961  14.292  12.013   9.688
88022SOL     OW65962  10.024   5.774  13.427
88022SOL    HW165963   9.944   5.825  13.413
88022SOL    HW265964  10.075   5.788  13.347
88023SOL     OW65965   5.802  10.414   9.225
88023SOL    HW165966   5.839  10.340   9.176
88023SOL    HW265967   5.707  10.403   9.217
88024SOL     OW65968   8.770   7.641  11.607
88024SOL    HW165969   8.682   7.678  11.599
88024SOL    HW265970   8.829   7.716  11.592
88025SOL     OW65971  11.268  14.378  14.499
88025SOL    HW165972  11.303  14.316  14.436
88025SOL    HW265973  11.182  14.402  14.464
88026SOL     OW65974   4.418   8.872   3.425
88026SOL    HW165975   4.386   8.824   3.502
88026SOL    HW265976   4.497   8.825   3.398
88027SOL     OW65977   6.144   7.940   1.343
88027SOL    HW165978   6.214   8.002   1.324
88027SOL    HW265979   6.188   7.866   1.384
88028SOL     OW65980   8.379  10.179  13.050
88028SOL    HW165981   8.414  10.263  13.022
88028SOL    HW265982   8.285  10.193  13.058
88029SOL     OW65983   4.537   4.998   6.583
88029SOL    HW165984   4.536   4.998   6.487
88029SOL    HW265985   4.630   4.998   6.606
88030SOL     OW65986   8.635   2.332  11.097
88030SOL    HW165987   8.721   2.329  11.139
88030SOL    HW265988   8.637   2.262  11.031
88031SOL     OW65989   0.893   4.401   0.448
88031SOL    HW165990   0.988   4.393   0.443
88031SOL    HW265991   0.879   4.485   0.493
88032SOL     OW65992  13.428   7.232   8.390
88032SOL    HW165993  13.445   7.230   8.296
88032SOL    HW265994  13.451   7.144   8.420
88033SOL     OW65995   5.894   4.432  13.491
88033SOL    HW165996   5.892   4.459  13.583
88033SOL    HW265997   5.802   4.422  13.467
88034SOL     OW65998   7.957  11.398   1.354
88034SOL    HW165999   7.871  11.361   1.376
88034SOL    HW266000   7.965  11.475   1.411
88035SOL     OW66001   1.454   5.081  12.998
88035SOL    HW166002   1.418   4.996  13.024
88035SOL    HW266003   1.447   5.081  12.902
88036SOL     OW66004  14.633   8.057   6.207
88036SOL    HW166005  14.541   8.043   6.188
88036SOL    HW266006  14.633   8.113   6.285
88037SOL     OW66007  10.183  14.220   6.669
88037SOL    HW166008  10.140  14.305   6.669
88037SOL    HW266009  10.274  14.238   6.691
88038SOL     OW66010   5.487  13.753   2.116
88038SOL    HW166011   5.394  13.761   2.095
88038SOL    HW266012   5.531  13.809   2.052
88039SOL     OW66013   5.261   5.324   9.859
88039SOL    HW166014   5.300   5.366   9.935
88039SOL    HW266015   5.260   5.231   9.881
88040SOL     OW66016  13.846   0.960   3.099
88040SOL    HW166017  13.750   0.955   3.096
88040SOL    HW266018  13.873   0.963   3.007
88041SOL     OW66019   0.269   3.461  10.432
88041SOL    HW166020   0.183   3.491  10.403
88041SOL    HW266021   0.315   3.440  10.351
88042SOL     OW66022   1.573   0.780  12.689
88042SOL    HW166023   1.576   0.838  12.765
88042SOL    HW266024   1.485   0.794  12.653
88043SOL     OW66025   6.245   9.637   2.982
88043SOL    HW166026   6.166   9.626   3.035
88043SOL    HW266027   6.260   9.552   2.943
88044SOL     OW66028   6.538  12.860  13.469
88044SOL    HW166029   6.502  12.774  13.488
88044SOL    HW266030   6.609  12.871  13.533
88045SOL     OW66031   5.619  11.092   3.488
88045SOL    HW166032   5.589  11.096   3.578
88045SOL    HW266033   5.544  11.058   3.439
88046SOL     OW66034   6.405   7.517   1.868
88046SOL    HW166035   6.395   7.427   1.900
88046SOL    HW266036   6.483   7.513   1.812
88047SOL     OW66037   8.174   6.221   8.231
88047SOL    HW166038   8.134   6.284   8.291
88047SOL    HW266039   8.139   6.243   8.145
88048SOL     OW66040   9.897  11.086  11.368
88048SOL    HW166041   9.827  11.038  11.325
88048SOL    HW266042   9.899  11.171  11.325
88049SOL     OW66043   4.485   3.570   2.068
88049SOL    HW166044   4.539   3.518   2.008
88049SOL    HW266045   4.449   3.506   2.130
88050SOL     OW66046  10.790   8.266   6.444
88050SOL    HW166047  10.754   8.178   6.433
88050SOL    HW266048  10.803   8.275   6.538
88051SOL     OW66049  11.909   4.647   1.388
88051SOL    HW166050  11.924   4.690   1.303
88051SOL    HW266051  11.870   4.716   1.443
88052SOL     OW66052  14.366   6.749  11.454
88052SOL    HW166053  14.335   6.835  11.483
88052SOL    HW266054  14.295   6.689  11.478
88053SOL     OW66055   8.644   9.288  10.149
88053SOL    HW166056   8.707   9.358  10.166
88053SOL    HW266057   8.697   9.209  10.141
88054SOL     OW66058   7.085  11.621  12.462
88054SOL    HW166059   7.122  11.536  12.485
88054SOL    HW266060   6.990  11.608  12.468
88055SOL     OW66061  13.249   7.213  12.466
88055SOL    HW166062  13.219   7.151  12.400
88055SOL    HW266063  13.181   7.280  12.470
88056SOL     OW66064   2.252   0.681  12.498
88056SOL    HW166065   2.340   0.699  12.530
88056SOL    HW266066   2.232   0.755  12.440
88057SOL     OW66067  14.512   4.505   7.025
88057SOL    HW166068  14.483   4.445   6.957
88057SOL    HW266069  14.469   4.474   7.105
88058SOL     OW66070   5.352   2.580  13.044
88058SOL    HW166071   5.316   2.640  13.110
88058SOL    HW266072   5.288   2.510  13.038
88059SOL     OW66073   4.665   7.645  10.504
88059SOL    HW166074   4.635   7.574  10.447
88059SOL    HW266075   4.733   7.606  10.557
88060SOL     OW66076   1.276   5.038   2.677
88060SOL    HW166077   1.214   5.052   2.605
88060SOL    HW266078   1.227   4.984   2.740
88061SOL     OW66079   6.225   1.143   6.975
88061SOL    HW166080   6.141   1.101   6.993
88061SOL    HW266081   6.238   1.203   7.049
88062SOL     OW66082   6.557  12.823   6.743
88062SOL    HW166083   6.635  12.844   6.794
88062SOL    HW266084   6.590  12.786   6.661
88063SOL     OW66085  10.909   7.461   5.658
88063SOL    HW166086  10.977   7.423   5.602
88063SOL    HW266087  10.856   7.514   5.598
88064SOL     OW66088   5.470   9.588   3.522
88064SOL    HW166089   5.448   9.527   3.592
88064SOL    HW266090   5.564   9.604   3.532
88065SOL     OW66091   8.795  14.371   8.096
88065SOL    HW166092   8.805  14.345   8.188
88065SOL    HW266093   8.732  14.308   8.060
88066SOL     OW66094   6.607   2.957  10.893
88066SOL    HW166095   6.620   2.987  10.803
88066SOL    HW266096   6.610   2.861  10.887
88067SOL     OW66097   6.355   2.829   3.518
88067SOL    HW166098   6.264   2.858   3.507
88067SOL    HW266099   6.355   2.784   3.602
88068SOL     OW66100   7.163   4.828  12.983
88068SOL    HW166101   7.231   4.771  13.019
88068SOL    HW266102   7.201   4.916  12.985
88069SOL     OW66103   7.430   1.247   5.899
88069SOL    HW166104   7.426   1.339   5.926
88069SOL    HW266105   7.523   1.229   5.886
88070SOL     OW66106   4.635   7.780   3.564
88070SOL    HW166107   4.672   7.857   3.608
88070SOL    HW266108   4.556   7.814   3.521
88071SOL     OW66109  10.241   7.386  12.186
88071SOL    HW166110  10.158   7.368  12.230
88071SOL    HW266111  10.228   7.471  12.143
88072SOL     OW66112  12.482   4.162  12.372
88072SOL    HW166113  12.520   4.161  12.460
88072SOL    HW266114  12.390   4.183  12.386
88073SOL     OW66115   3.052  11.302   3.989
88073SOL    HW166116   2.978  11.358   3.967
88073SOL    HW266117   3.129  11.356   3.973
88074SOL     OW66118   0.140  13.269   6.581
88074SOL    HW166119   0.103  13.206   6.642
88074SOL    HW266120   0.154  13.218   6.500
88075SOL     OW66121  11.842   0.158   1.744
88075SOL    HW166122  11.937   0.147   1.737
88075SOL    HW266123  11.825   0.244   1.705
88076SOL     OW66124  14.291   8.630   5.985
88076SOL    HW166125  14.361   8.565   5.992
88076SOL    HW266126  14.311   8.678   5.904
88077SOL     OW66127   4.427  13.362   1.237
88077SOL    HW166128   4.385  13.277   1.230
88077SOL    HW266129   4.379  13.408   1.306
88078SOL     OW66130   7.641   9.176   3.528
88078SOL    HW166131   7.619   9.140   3.442
88078SOL    HW266132   7.572   9.144   3.585
88079SOL     OW66133   7.496  12.851   0.555
88079SOL    HW166134   7.501  12.925   0.495
88079SOL    HW266135   7.555  12.873   0.627
88080SOL     OW66136   0.931   8.331   9.779
88080SOL    HW166137   0.884   8.323   9.695
88080SOL    HW266138   0.909   8.419   9.810
88081SOL     OW66139  12.277   0.657  12.239
88081SOL    HW166140  12.352   0.671  12.180
88081SOL    HW266141  12.309   0.681  12.325
88082SOL     OW66142  12.876   6.178   9.174
88082SOL    HW166143  12.846   6.097   9.216
88082SOL    HW266144  12.807   6.241   9.192
88083SOL     OW66145   6.016   8.086   5.342
88083SOL    HW166146   6.062   8.150   5.396
88083SOL    HW266147   5.925   8.113   5.344
88084SOL     OW66148  13.612   7.740   2.384
88084SOL    HW166149  13.571   7.685   2.319
88084SOL    HW266150  13.639   7.819   2.336
88085SOL     OW66151   4.183   1.228   8.969
88085SOL    HW166152   4.253   1.204   8.907
88085SOL    HW266153   4.179   1.323   8.964
88086SOL     OW66154   0.054   9.453  14.317
88086SOL    HW166155   0.076   9.364  14.288
88086SOL    HW266156  14.852   9.443  14.363
88087SOL     OW66157   7.630   8.827  11.635
88087SOL    HW166158   7.607   8.818  11.542
88087SOL    HW266159   7.631   8.737  11.667
88088SOL     OW66160   7.716  10.050   0.880
88088SOL    HW166161   7.800  10.006   0.887
88088SOL    HW266162   7.664  10.014   0.952
88089SOL     OW66163   5.718  11.161  14.296
88089SOL    HW166164   5.648  11.195  14.240
88089SOL    HW266165   5.673  11.100  14.355
88090SOL     OW66166  14.808   8.471   4.340
88090SOL    HW166167  14.729   8.490   4.289
88090SOL    HW266168  14.864   8.548   4.328
88091SOL     OW66169  12.439   9.714   9.215
88091SOL    HW166170  12.509   9.648   9.221
88091SOL    HW266171  12.486   9.798   9.215
88092SOL     OW66172  10.417   0.528   6.770
88092SOL    HW166173  10.416   0.623   6.769
88092SOL    HW266174  10.509   0.504   6.757
88093SOL     OW66175  12.745  10.721   1.212
88093SOL    HW166176  12.815  10.780   1.241
88093SOL    HW266177  12.761  10.711   1.118
88094SOL     OW66178   9.491  10.316   4.715
88094SOL    HW166179   9.450  10.252   4.773
88094SOL    HW266180   9.514  10.389   4.772
88095SOL     OW66181  12.714  14.428  12.857
88095SOL    HW166182  12.657  14.465  12.924
88095SOL    HW266183  12.729  14.338  12.886
88096SOL     OW66184   8.780  11.078  10.682
88096SOL    HW166185   8.797  11.126  10.601
88096SOL    HW266186   8.754  10.991  10.653
88097SOL     OW66187  12.622   5.623   9.030
88097SOL    HW166188  12.715   5.627   9.007
88097SOL    HW266189  12.593   5.714   9.028
88098SOL     OW66190   6.155  13.244   0.304
88098SOL    HW166191   6.088  13.310   0.324
88098SOL    HW266192   6.122  13.164   0.344
88099SOL     OW66193   3.050   1.261   8.643
88099SOL    HW166194   2.990   1.189   8.663
88099SOL    HW266195   3.010   1.338   8.683
88100SOL     OW66196   3.533   8.629   4.160
88100SOL    HW166197   3.567   8.623   4.249
88100SOL    HW266198   3.600   8.678   4.112
88101SOL     OW66199  13.056  13.176  10.693
88101SOL    HW166200  13.075  13.238  10.623
88101SOL    HW266201  12.986  13.120  10.658
88102SOL     OW66202   6.232   2.821  11.430
88102SOL    HW166203   6.224   2.728  11.409
88102SOL    HW266204   6.306   2.825  11.491
88103SOL     OW66205   6.969   1.172   2.679
88103SOL    HW166206   6.957   1.234   2.606
88103SOL    HW266207   6.881   1.160   2.715
88104SOL     OW66208  10.321  14.577   4.156
88104SOL    HW166209  10.347  14.489   4.182
88104SOL    HW266210  10.368  14.593   4.074
88105SOL     OW66211   4.275   3.455  12.644
88105SOL    HW166212   4.218   3.460  12.722
88105SOL    HW266213   4.361   3.481  12.677
88106SOL     OW66214   4.285   2.733   1.881
88106SOL    HW166215   4.301   2.827   1.870
88106SOL    HW266216   4.372   2.694   1.892
88107SOL     OW66217  13.009  12.031   8.195
88107SOL    HW166218  12.924  12.032   8.238
88107SOL    HW266219  12.989  12.029   8.101
88108SOL     OW66220  12.657   5.057  10.741
88108SOL    HW166221  12.731   5.035  10.798
88108SOL    HW266222  12.644   4.978  10.688
88109SOL     OW66223  11.198  12.061   8.996
88109SOL    HW166224  11.290  12.076   8.975
88109SOL    HW266225  11.150  12.099   8.922
88110SOL     OW66226   6.036  13.068   0.511
88110SOL    HW166227   6.008  13.106   0.595
88110SOL    HW266228   5.955  13.063   0.459
88111SOL     OW66229   6.814   1.707   7.895
88111SOL    HW166230   6.832   1.645   7.966
88111SOL    HW266231   6.796   1.651   7.819
88112SOL     OW66232   3.875  11.918   0.184
88112SOL    HW166233   3.806  11.917   0.117
88112SOL    HW266234   3.957  11.914   0.135
88113SOL     OW66235   0.993   5.156  12.389
88113SOL    HW166236   0.989   5.141  12.484
88113SOL    HW266237   0.919   5.213  12.371
88114SOL     OW66238   7.147   5.223   0.650
88114SOL    HW166239   7.080   5.215   0.718
88114SOL    HW266240   7.125   5.157   0.585
88115SOL     OW66241   5.191   8.780   5.440
88115SOL    HW166242   5.123   8.713   5.435
88115SOL    HW266243   5.252   8.748   5.506
88116SOL     OW66244  14.840   1.070   1.453
88116SOL    HW166245  14.788   0.992   1.433
88116SOL    HW266246  14.803   1.104   1.534
88117SOL     OW66247  14.853  14.001   7.123
88117SOL    HW166248  14.790  13.981   7.193
88117SOL    HW266249  14.879  13.916   7.089
88118SOL     OW66250   4.771  10.702  11.828
88118SOL    HW166251   4.740  10.638  11.892
88118SOL    HW266252   4.862  10.678  11.813
88119SOL     OW66253   7.293   0.041   8.978
88119SOL    HW166254   7.363  14.860   8.997
88119SOL    HW266255   7.212  14.879   9.004
88120SOL     OW66256  12.003   3.681   5.086
88120SOL    HW166257  11.949   3.633   5.022
88120SOL    HW266258  12.073   3.719   5.034
88121SOL     OW66259   6.137   4.236   8.172
88121SOL    HW166260   6.135   4.266   8.081
88121SOL    HW266261   6.211   4.176   8.177
88122SOL     OW66262   7.461   7.171   2.511
88122SOL    HW166263   7.498   7.160   2.599
88122SOL    HW266264   7.463   7.265   2.495
88123SOL     OW66265   6.360   5.343   2.301
88123SOL    HW166266   6.277   5.390   2.315
88123SOL    HW266267   6.348   5.298   2.218
88124SOL     OW66268   8.227   0.908   3.640
88124SOL    HW166269   8.218   0.827   3.689
88124SOL    HW266270   8.139   0.926   3.606
88125SOL     OW66271   1.933   7.531   2.671
88125SOL    HW166272   1.974   7.609   2.707
88125SOL    HW266273   1.877   7.563   2.601
88126SOL     OW66274  13.587   5.350  13.498
88126SOL    HW166275  13.660   5.378  13.553
88126SOL    HW266276  13.577   5.256  13.517
88127SOL     OW66277   0.862   4.840   6.358
88127SOL    HW166278   0.940   4.896   6.360
88127SOL    HW266279   0.840   4.833   6.265
88128SOL     OW66280   7.037  13.214   5.635
88128SOL    HW166281   7.034  13.310   5.638
88128SOL    HW266282   6.995  13.191   5.552
88129SOL     OW66283   6.633   6.904   8.012
88129SOL    HW166284   6.714   6.853   8.017
88129SOL    HW266285   6.567   6.849   8.055
88130SOL     OW66286   7.703   4.353   0.326
88130SOL    HW166287   7.764   4.410   0.278
88130SOL    HW266288   7.640   4.413   0.366
88131SOL     OW66289  10.674   8.158   7.143
88131SOL    HW166290  10.629   8.230   7.099
88131SOL    HW266291  10.737   8.126   7.078
88132SOL     OW66292   6.174   3.115   8.235
88132SOL    HW166293   6.106   3.052   8.209
88132SOL    HW266294   6.226   3.069   8.301
88133SOL     OW66295   0.474   7.994   3.903
88133SOL    HW166296   0.424   8.075   3.905
88133SOL    HW266297   0.553   8.013   3.954
88134SOL     OW66298   9.965   0.683  13.756
88134SOL    HW166299   9.887   0.738  13.749
88134SOL    HW266300   9.970   0.660  13.848
88135SOL     OW66301  13.526  11.217   9.622
88135SOL    HW166302  13.524  11.260   9.536
88135SOL    HW266303  13.485  11.132   9.608
88136SOL     OW66304   7.601   1.400   8.327
88136SOL    HW166305   7.539   1.331   8.351
88136SOL    HW266306   7.681   1.379   8.375
88137SOL     OW66307  13.175  11.459   4.242
88137SOL    HW166308  13.104  11.524   4.235
88137SOL    HW266309  13.154  11.408   4.320
88138SOL     OW66310  10.342  10.331   7.377
88138SOL    HW166311  10.377  10.312   7.463
88138SOL    HW266312  10.251  10.301   7.381
88139SOL     OW66313   2.672   6.142   1.617
88139SOL    HW166314   2.661   6.175   1.528
88139SOL    HW266315   2.583   6.137   1.652
88140SOL     OW66316  10.144   9.574   6.086
88140SOL    HW166317  10.204   9.646   6.063
88140SOL    HW266318  10.195   9.517   6.143
88141SOL     OW66319  14.577   4.174   3.130
88141SOL    HW166320  14.583   4.079   3.120
88141SOL    HW266321  14.665   4.206   3.107
88142SOL     OW66322  12.296   2.514   5.200
88142SOL    HW166323  12.378   2.476   5.232
88142SOL    HW266324  12.322   2.566   5.124
88143SOL     OW66325  13.525   4.933   6.834
88143SOL    HW166326  13.573   4.964   6.758
88143SOL    HW266327  13.577   4.961   6.909
88144SOL     OW66328   9.277   5.296   2.447
88144SOL    HW166329   9.213   5.275   2.515
88144SOL    HW266330   9.327   5.369   2.483
88145SOL     OW66331   4.092  13.032   5.318
88145SOL    HW166332   4.103  13.064   5.228
88145SOL    HW266333   4.050  13.105   5.364
88146SOL     OW66334   9.469   9.240   2.211
88146SOL    HW166335   9.417   9.270   2.136
88146SOL    HW266336   9.488   9.148   2.192
88147SOL     OW66337   4.697   0.817   0.946
88147SOL    HW166338   4.760   0.883   0.919
88147SOL    HW266339   4.632   0.814   0.875
88148SOL     OW66340  12.861   6.418  14.233
88148SOL    HW166341  12.813   6.335  14.232
88148SOL    HW266342  12.850   6.453  14.144
88149SOL     OW66343   5.403   2.468  10.505
88149SOL    HW166344   5.326   2.464  10.448
88149SOL    HW266345   5.447   2.549  10.480
88150SOL     OW66346  11.842   3.699  14.452
88150SOL    HW166347  11.866   3.778  14.403
88150SOL    HW266348  11.922   3.645  14.450
88151SOL     OW66349   7.196  11.068  12.954
88151SOL    HW166350   7.255  10.996  12.930
88151SOL    HW266351   7.243  11.115  13.023
88152SOL     OW66352   9.307   8.975   4.917
88152SOL    HW166353   9.322   9.067   4.896
88152SOL    HW266354   9.297   8.974   5.012
88153SOL     OW66355   1.358  11.334   3.651
88153SOL    HW166356   1.392  11.363   3.566
88153SOL    HW266357   1.304  11.406   3.681
88154SOL     OW66358  10.569  11.959  12.799
88154SOL    HW166359  10.502  11.968  12.731
88154SOL    HW266360  10.523  11.916  12.872
88155SOL     OW66361   9.560  13.072   9.951
88155SOL    HW166362   9.648  13.045   9.977
88155SOL    HW266363   9.571  13.105   9.861
88156SOL     OW66364   9.322   1.682   6.750
88156SOL    HW166365   9.352   1.773   6.742
88156SOL    HW266366   9.364   1.637   6.677
88157SOL     OW66367   9.530   1.737   2.318
88157SOL    HW166368   9.535   1.643   2.331
88157SOL    HW266369   9.499   1.772   2.402
88158SOL     OW66370  13.735   9.937   4.616
88158SOL    HW166371  13.672   9.995   4.572
88158SOL    HW266372  13.733   9.965   4.707
88159SOL     OW66373  10.233   5.340  14.491
88159SOL    HW166374  10.319   5.343  14.533
88159SOL    HW266375  10.246   5.382  14.406
88160SOL     OW66376  10.198   0.015  11.750
88160SOL    HW166377  10.146  14.860  11.822
88160SOL    HW266378  10.218   0.104  11.779
88161SOL     OW66379   4.613  11.626  11.094
88161SOL    HW166380   4.617  11.600  11.002
88161SOL    HW266381   4.520  11.622  11.116
88162SOL     OW66382   4.937  14.321  14.782
88162SOL    HW166383   5.012  14.269  14.750
88162SOL    HW266384   4.924  14.291  14.871
88163SOL     OW66385   0.276  12.127   8.953
88163SOL    HW166386   0.301  12.219   8.964
88163SOL    HW266387   0.350  12.089   8.906
88164SOL     OW66388  14.526  14.875   6.755
88164SOL    HW166389  14.599  14.814   6.761
88164SOL    HW266390  14.565   0.079   6.765
88165SOL     OW66391   2.170   5.789  10.222
88165SOL    HW166392   2.139   5.854  10.286
88165SOL    HW266393   2.179   5.838  10.140
88166SOL     OW66394   7.054   8.733  11.834
88166SOL    HW166395   6.985   8.797  11.852
88166SOL    HW266396   7.130   8.785  11.810
88167SOL     OW66397   2.317   8.574   1.682
88167SOL    HW166398   2.408   8.544   1.687
88167SOL    HW266399   2.287   8.574   1.773
88168SOL     OW66400  11.286  11.765   2.317
88168SOL    HW166401  11.361  11.707   2.332
88168SOL    HW266402  11.292  11.829   2.388
88169SOL     OW66403   3.217  14.108   9.617
88169SOL    HW166404   3.194  14.128   9.708
88169SOL    HW266405   3.160  14.165   9.565
88170SOL     OW66406   7.491  13.106  13.586
88170SOL    HW166407   7.458  13.128  13.674
88170SOL    HW266408   7.451  13.022  13.565
88171SOL     OW66409   2.893   7.034   4.429
88171SOL    HW166410   2.905   6.977   4.504
88171SOL    HW266411   2.919   6.981   4.353
88172SOL     OW66412   6.378  11.251   8.307
88172SOL    HW166413   6.283  11.254   8.295
88172SOL    HW266414   6.411  11.318   8.248
88173SOL     OW66415   1.284  14.387   6.104
88173SOL    HW166416   1.196  14.385   6.142
88173SOL    HW266417   1.270  14.418   6.014
88174SOL     OW66418   1.170  14.157   8.156
88174SOL    HW166419   1.081  14.145   8.190
88174SOL    HW266420   1.226  14.154   8.233
88175SOL     OW66421   3.758   3.196   5.430
88175SOL    HW166422   3.666   3.173   5.414
88175SOL    HW266423   3.757   3.241   5.514
88176SOL     OW66424   8.236   6.609   4.507
88176SOL    HW166425   8.218   6.651   4.422
88176SOL    HW266426   8.163   6.549   4.520
88177SOL     OW66427   4.124   8.390  13.481
88177SOL    HW166428   4.134   8.424  13.570
88177SOL    HW266429   4.086   8.303  13.493
88178SOL     OW66430   8.087   2.397  12.046
88178SOL    HW166431   8.104   2.337  11.974
88178SOL    HW266432   8.053   2.476  12.004
88179SOL     OW66433   6.609  11.580   4.973
88179SOL    HW166434   6.677  11.597   4.908
88179SOL    HW266435   6.598  11.485   4.972
88180SOL     OW66436   8.530   3.537  10.609
88180SOL    HW166437   8.483   3.464  10.650
88180SOL    HW266438   8.620   3.507  10.603
88181SOL     OW66439   0.983   3.857   4.734
88181SOL    HW166440   0.941   3.925   4.682
88181SOL    HW266441   0.966   3.776   4.687
88182SOL     OW66442   9.083   6.784   0.198
88182SOL    HW166443   9.076   6.841   0.274
88182SOL    HW266444   9.003   6.731   0.200
88183SOL     OW66445   3.833  14.308   6.816
88183SOL    HW166446   3.859  14.227   6.860
88183SOL    HW266447   3.859  14.378   6.877
88184SOL     OW66448  12.860   3.696   1.881
88184SOL    HW166449  12.814   3.716   1.800
88184SOL    HW266450  12.817   3.750   1.947
88185SOL     OW66451   0.785   6.280   2.755
88185SOL    HW166452   0.767   6.233   2.836
88185SOL    HW266453   0.878   6.265   2.738
88186SOL     OW66454   2.773   7.898  10.805
88186SOL    HW166455   2.734   7.814  10.831
88186SOL    HW266456   2.698   7.952  10.779
88187SOL     OW66457   4.267  12.848  10.304
88187SOL    HW166458   4.308  12.788  10.366
88187SOL    HW266459   4.248  12.794  10.227
88188SOL     OW66460  11.084   1.908   7.562
88188SOL    HW166461  11.121   1.930   7.648
88188SOL    HW266462  11.024   1.979   7.542
88189SOL     OW66463   9.033   8.046  14.647
88189SOL    HW166464   9.052   8.091  14.564
88189SOL    HW266465   9.050   7.954  14.628
88190SOL     OW66466   7.126   5.508  14.488
88190SOL    HW166467   7.071   5.543  14.558
88190SOL    HW266468   7.084   5.425  14.464
88191SOL     OW66469   4.585   1.624   3.455
88191SOL    HW166470   4.535   1.544   3.468
88191SOL    HW266471   4.560   1.654   3.367
88192SOL     OW66472  12.993   2.629   0.193
88192SOL    HW166473  13.070   2.610   0.245
88192SOL    HW266474  12.976   2.549   0.143
88193SOL     OW66475  10.599   4.093   7.205
88193SOL    HW166476  10.555   4.052   7.131
88193SOL    HW266477  10.691   4.068   7.195
88194SOL     OW66478   5.370   2.318   4.407
88194SOL    HW166479   5.396   2.225   4.411
88194SOL    HW266480   5.431   2.357   4.345
88195SOL     OW66481  14.413   6.953   7.765
88195SOL    HW166482  14.367   6.955   7.680
88195SOL    HW266483  14.439   6.862   7.776
88196SOL     OW66484   0.403  10.173   4.962
88196SOL    HW166485   0.427  10.212   4.878
88196SOL    HW266486   0.307  10.174   4.963
88197SOL     OW66487   7.846   6.942   8.774
88197SOL    HW166488   7.807   7.004   8.835
88197SOL    HW266489   7.828   6.856   8.812
88198SOL     OW66490   5.521  14.709   1.027
88198SOL    HW166491   5.520  14.738   1.118
88198SOL    HW266492   5.438  14.739   0.990
88199SOL     OW66493   6.378   4.179   0.844
88199SOL    HW166494   6.401   4.135   0.926
88199SOL    HW266495   6.428   4.131   0.777
88200SOL     OW66496  13.194  13.998   6.125
88200SOL    HW166497  13.108  14.034   6.102
88200SOL    HW266498  13.214  14.036   6.211
88201SOL     OW66499   4.159   8.795   2.711
88201SOL    HW166500   4.066   8.810   2.730
88201SOL    HW266501   4.189   8.737   2.781
88202SOL     OW66502   1.749   0.211   4.346
88202SOL    HW166503   1.692   0.142   4.380
88202SOL    HW266504   1.735   0.210   4.251
88203SOL     OW66505   4.977   4.826   2.666
88203SOL    HW166506   5.068   4.852   2.652
88203SOL    HW266507   4.968   4.824   2.761
88204SOL     OW66508   8.703  10.080   2.406
88204SOL    HW166509   8.668  10.075   2.495
88204SOL    HW266510   8.765  10.007   2.400
88205SOL     OW66511  14.693  14.022   6.258
88205SOL    HW166512  14.652  14.074   6.189
88205SOL    HW266513  14.627  14.018   6.327
88206SOL     OW66514  11.567   0.394   5.657
88206SOL    HW166515  11.571   0.474   5.604
88206SOL    HW266516  11.515   0.419   5.733
88207SOL     OW66517   5.435  13.654   6.929
88207SOL    HW166518   5.347  13.690   6.923
88207SOL    HW266519   5.423  13.559   6.919
88208SOL     OW66520   3.991  14.182  14.753
88208SOL    HW166521   4.003  14.274  14.777
88208SOL    HW266522   4.030  14.175  14.666
88209SOL     OW66523   5.654   0.067   0.830
88209SOL    HW166524   5.572   0.037   0.869
88209SOL    HW266525   5.718   0.061   0.900
88210SOL     OW66526   1.798   6.072   5.572
88210SOL    HW166527   1.857   6.113   5.509
88210SOL    HW266528   1.856   6.025   5.632
88211SOL     OW66529   6.320   2.292   9.179
88211SOL    HW166530   6.227   2.275   9.160
88211SOL    HW266531   6.362   2.291   9.093
88212SOL     OW66532   1.740   4.926   9.031
88212SOL    HW166533   1.666   4.867   9.017
88212SOL    HW266534   1.762   4.916   9.123
88213SOL     OW66535  13.801   3.571   0.788
88213SOL    HW166536  13.827   3.646   0.842
88213SOL    HW266537  13.874   3.558   0.729
88214SOL     OW66538  11.057   7.207   1.879
88214SOL    HW166539  10.970   7.170   1.894
88214SOL    HW266540  11.085   7.169   1.795
88215SOL     OW66541  11.809   1.597   3.799
88215SOL    HW166542  11.849   1.634   3.720
88215SOL    HW266543  11.726   1.560   3.769
88216SOL     OW66544   9.621   8.353   4.973
88216SOL    HW166545   9.623   8.305   4.890
88216SOL    HW266546   9.697   8.320   5.021
88217SOL     OW66547  13.028   6.078  14.572
88217SOL    HW166548  12.989   6.158  14.537
88217SOL    HW266549  12.959   6.040  14.627
88218SOL     OW66550   6.002   7.329   1.464
88218SOL    HW166551   5.960   7.384   1.398
88218SOL    HW266552   6.084   7.302   1.423
88219SOL     OW66553   6.203   0.983  10.041
88219SOL    HW166554   6.295   1.010  10.028
88219SOL    HW266555   6.158   1.015   9.963
88220SOL     OW66556   5.657  13.922   8.807
88220SOL    HW166557   5.699  13.837   8.819
88220SOL    HW266558   5.668  13.942   8.714
88221SOL     OW66559   5.575   9.232  10.041
88221SOL    HW166560   5.652   9.275  10.079
88221SOL    HW266561   5.583   9.140  10.067
88222SOL     OW66562   4.834   6.323   8.051
88222SOL    HW166563   4.883   6.299   8.130
88222SOL    HW266564   4.836   6.418   8.050
88223SOL     OW66565  10.785  13.264  13.480
88223SOL    HW166566  10.742  13.289  13.399
88223SOL    HW266567  10.764  13.172  13.492
88224SOL     OW66568  12.941  13.750  13.532
88224SOL    HW166569  12.936  13.837  13.572
88224SOL    HW266570  13.025  13.715  13.562
88225SOL     OW66571   8.941  14.198   3.280
88225SOL    HW166572   9.000  14.260   3.237
88225SOL    HW266573   8.870  14.185   3.217
88226SOL     OW66574   6.536  14.478   8.809
88226SOL    HW166575   6.460  14.463   8.752
88226SOL    HW266576   6.604  14.509   8.749
88227SOL     OW66577   3.912   1.342  11.309
88227SOL    HW166578   3.865   1.422  11.288
88227SOL    HW266579   3.915   1.340  11.405
88228SOL     OW66580   6.208  14.012   6.874
88228SOL    HW166581   6.148  13.944   6.906
88228SOL    HW266582   6.211  14.076   6.945
88229SOL     OW66583   7.325   0.960  10.926
88229SOL    HW166584   7.273   0.928  11.000
88229SOL    HW266585   7.311   1.055  10.926
88230SOL     OW66586  12.850  12.011  10.334
88230SOL    HW166587  12.775  11.960  10.305
88230SOL    HW266588  12.924  11.974  10.286
88231SOL     OW66589   7.747  14.171  11.039
88231SOL    HW166590   7.808  14.237  11.005
88231SOL    HW266591   7.767  14.165  11.132
88232SOL     OW66592   0.481   0.739   5.725
88232SOL    HW166593   0.528   0.819   5.747
88232SOL    HW266594   0.415   0.729   5.794
88233SOL     OW66595  10.899  11.787   6.672
88233SOL    HW166596  10.986  11.757   6.645
88233SOL    HW266597  10.901  11.784   6.768
88234SOL     OW66598  10.972   7.797   9.176
88234SOL    HW166599  11.000   7.888   9.179
88234SOL    HW266600  10.923   7.789   9.094
88235SOL     OW66601  14.844   9.602   3.061
88235SOL    HW166602  14.816   9.693   3.066
88235SOL    HW266603  14.763   9.552   3.074
88236SOL     OW66604   4.499  13.433   6.423
88236SOL    HW166605   4.469  13.519   6.452
88236SOL    HW266606   4.420  13.390   6.389
88237SOL     OW66607   0.743   7.370   7.203
88237SOL    HW166608   0.822   7.330   7.167
88237SOL    HW266609   0.766   7.463   7.214
88238SOL     OW66610   1.757  10.516  12.613
88238SOL    HW166611   1.840  10.544  12.652
88238SOL    HW266612   1.691  10.566  12.661
88239SOL     OW66613   8.086   2.008   7.069
88239SOL    HW166614   8.092   1.926   7.020
88239SOL    HW266615   8.042   1.984   7.150
88240SOL     OW66616   7.222   7.956  12.830
88240SOL    HW166617   7.260   8.039  12.861
88240SOL    HW266618   7.244   7.952  12.737
88241SOL     OW66619   9.569   4.029  12.241
88241SOL    HW166620   9.475   4.013  12.240
88241SOL    HW266621   9.608   3.942  12.232
88242SOL     OW66622   9.427  10.195   1.355
88242SOL    HW166623   9.504  10.171   1.305
88242SOL    HW266624   9.439  10.151   1.440
88243SOL     OW66625   8.890  13.761   4.209
88243SOL    HW166626   8.850  13.684   4.171
88243SOL    HW266627   8.952  13.727   4.273
88244SOL     OW66628   6.610   0.814  12.934
88244SOL    HW166629   6.649   0.734  12.968
88244SOL    HW266630   6.673   0.847  12.870
88245SOL     OW66631   9.283  11.375   1.269
88245SOL    HW166632   9.276  11.296   1.215
88245SOL    HW266633   9.270  11.448   1.208
88246SOL     OW66634   1.303   9.291  10.164
88246SOL    HW166635   1.381   9.305  10.218
88246SOL    HW266636   1.336   9.292  10.074
88247SOL     OW66637   7.681  12.679   9.726
88247SOL    HW166638   7.692  12.772   9.748
88247SOL    HW266639   7.643  12.680   9.638
88248SOL     OW66640  14.110  13.589   4.119
88248SOL    HW166641  14.137  13.586   4.211
88248SOL    HW266642  14.171  13.649   4.077
88249SOL     OW66643   8.464  14.804  14.567
88249SOL    HW166644   8.504  14.868  14.626
88249SOL    HW266645   8.528  14.794  14.496
88250SOL     OW66646   6.722   3.603   5.049
88250SOL    HW166647   6.651   3.557   5.093
88250SOL    HW266648   6.681   3.646   4.974
88251SOL     OW66649   7.664   7.026   8.968
88251SOL    HW166650   7.582   6.982   8.948
88251SOL    HW266651   7.640   7.095   9.030
88252SOL     OW66652   4.262  13.449   7.955
88252SOL    HW166653   4.304  13.381   8.007
88252SOL    HW266654   4.193  13.403   7.906
88253SOL     OW66655  10.728   1.030   7.694
88253SOL    HW166656  10.757   0.953   7.644
88253SOL    HW266657  10.632   1.022   7.696
88254SOL     OW66658   8.548   0.642  14.387
88254SOL    HW166659   8.538   0.552  14.355
88254SOL    HW266660   8.641   0.651  14.406
88255SOL     OW66661  14.654  13.821   1.189
88255SOL    HW166662  14.586  13.884   1.166
88255SOL    HW266663  14.617  13.736   1.164
88256SOL     OW66664  10.425   7.311  11.089
88256SOL    HW166665  10.478   7.331  11.167
88256SOL    HW266666  10.347   7.268  11.124
88257SOL     OW66667   4.862   8.995   3.016
88257SOL    HW166668   4.817   8.997   3.100
88257SOL    HW266669   4.817   9.061   2.963
88258SOL     OW66670   0.336   1.547   0.527
88258SOL    HW166671   0.354   1.600   0.449
88258SOL    HW266672   0.260   1.589   0.567
88259SOL     OW66673   9.075   3.722   4.799
88259SOL    HW166674   9.034   3.808   4.793
88259SOL    HW266675   9.030   3.670   4.732
88260SOL     OW66676   2.834   6.730  14.191
88260SOL    HW166677   2.799   6.816  14.167
88260SOL    HW266678   2.921   6.728  14.152
88261SOL     OW66679   4.414   7.746  10.766
88261SOL    HW166680   4.384   7.741  10.856
88261SOL    HW266681   4.441   7.657  10.744
88262SOL     OW66682   3.678   4.328   0.887
88262SOL    HW166683   3.762   4.359   0.855
88262SOL    HW266684   3.679   4.233   0.870
88263SOL     OW66685  11.452   1.145   5.743
88263SOL    HW166686  11.442   1.238   5.724
88263SOL    HW266687  11.409   1.134   5.828
88264SOL     OW66688   9.561  10.772   1.101
88264SOL    HW166689   9.606  10.850   1.067
88264SOL    HW266690   9.515  10.736   1.025
88265SOL     OW66691   5.630   8.037   5.243
88265SOL    HW166692   5.691   8.106   5.270
88265SOL    HW266693   5.556   8.085   5.206
88266SOL     OW66694   6.154  13.328   4.630
88266SOL    HW166695   6.152  13.318   4.726
88266SOL    HW266696   6.101  13.405   4.613
88267SOL     OW66697  14.779   1.012   8.332
88267SOL    HW166698  14.745   1.060   8.408
88267SOL    HW266699  14.862   0.976   8.362
88268SOL     OW66700   7.410   3.779   3.173
88268SOL    HW166701   7.448   3.778   3.084
88268SOL    HW266702   7.415   3.688   3.201
88269SOL     OW66703  12.384  10.219   0.792
88269SOL    HW166704  12.289  10.212   0.784
88269SOL    HW266705  12.398  10.258   0.878
88270SOL     OW66706   0.764   9.813   6.370
88270SOL    HW166707   0.847   9.766   6.380
88270SOL    HW266708   0.782   9.900   6.406
88271SOL     OW66709   9.420  11.933  13.192
88271SOL    HW166710   9.452  11.885  13.116
88271SOL    HW266711   9.455  12.022  13.181
88272SOL     OW66712   2.945  11.454   9.580
88272SOL    HW166713   2.995  11.394   9.635
88272SOL    HW266714   2.855  11.421   9.584
88273SOL     OW66715  14.192   7.651   1.060
88273SOL    HW166716  14.160   7.561   1.051
88273SOL    HW266717  14.273   7.653   1.010
88274SOL     OW66718   5.838   7.856   4.664
88274SOL    HW166719   5.805   7.945   4.671
88274SOL    HW266720   5.919   7.855   4.715
88275SOL     OW66721  13.673   7.209   0.270
88275SOL    HW166722  13.608   7.209   0.199
88275SOL    HW266723  13.748   7.164   0.233
88276SOL     OW66724   3.158  14.821   2.694
88276SOL    HW166725   3.145  14.850   2.784
88276SOL    HW266726   3.080  14.851   2.648
88277SOL     OW66727   4.103   9.402  10.358
88277SOL    HW166728   4.095   9.413  10.453
88277SOL    HW266729   4.161   9.473  10.330
88278SOL     OW66730  11.219   3.420  10.594
88278SOL    HW166731  11.162   3.464  10.530
88278SOL    HW266732  11.268   3.491  10.634
88279SOL     OW66733   3.713  14.348   8.484
88279SOL    HW166734   3.731  14.413   8.417
88279SOL    HW266735   3.621  14.326   8.473
88280SOL     OW66736   7.796  12.918  14.783
88280SOL    HW166737   7.773  12.981  14.852
88280SOL    HW266738   7.841  12.971  14.717
88281SOL     OW66739  12.385   3.647  12.056
88281SOL    HW166740  12.383   3.640  11.961
88281SOL    HW266741  12.477   3.634  12.079
88282SOL     OW66742  10.280  11.839   9.954
88282SOL    HW166743  10.276  11.857   9.860
88282SOL    HW266744  10.197  11.795   9.973
88283SOL     OW66745   3.675   0.651   8.753
88283SOL    HW166746   3.713   0.656   8.841
88283SOL    HW266747   3.589   0.691   8.762
88284SOL     OW66748  10.132   3.347   4.811
88284SOL    HW166749  10.137   3.425   4.756
88284SOL    HW266750  10.154   3.378   4.899
88285SOL     OW66751   6.511   7.540  14.356
88285SOL    HW166752   6.435   7.491  14.388
88285SOL    HW266753   6.580   7.521  14.420
88286SOL     OW66754  10.184   7.696   3.328
88286SOL    HW166755  10.171   7.690   3.234
88286SOL    HW266756  10.231   7.779   3.341
88287SOL     OW66757   4.155   3.342  10.355
88287SOL    HW166758   4.092   3.281  10.396
88287SOL    HW266759   4.189   3.393  10.428
88288SOL     OW66760   2.746   9.534   3.805
88288SOL    HW166761   2.782   9.448   3.785
88288SOL    HW266762   2.686   9.518   3.878
88289SOL     OW66763   0.164   1.157  14.039
88289SOL    HW166764   0.205   1.075  14.012
88289SOL    HW266765   0.237   1.212  14.068
88290SOL     OW66766   0.500  13.854   1.305
88290SOL    HW166767   0.407  13.841   1.284
88290SOL    HW266768   0.499  13.884   1.396
88291SOL     OW66769  12.710   1.063   5.151
88291SOL    HW166770  12.614   1.068   5.159
88291SOL    HW266771  12.738   1.019   5.231
88292SOL     OW66772   2.015  13.399   6.735
88292SOL    HW166773   2.038  13.374   6.825
88292SOL    HW266774   2.085  13.363   6.681
88293SOL     OW66775  10.478   1.373   6.320
88293SOL    HW166776  10.415   1.379   6.249
88293SOL    HW266777  10.430   1.333   6.392
88294SOL     OW66778  10.539  12.224   1.253
88294SOL    HW166779  10.552  12.187   1.166
88294SOL    HW266780  10.594  12.302   1.255
88295SOL     OW66781   1.625   9.596   2.058
88295SOL    HW166782   1.573   9.599   1.977
88295SOL    HW266783   1.580   9.656   2.117
88296SOL     OW66784   2.506   3.230   0.981
88296SOL    HW166785   2.433   3.292   0.977
88296SOL    HW266786   2.464   3.144   0.978
88297SOL     OW66787  10.377  13.522  12.788
88297SOL    HW166788  10.327  13.480  12.858
88297SOL    HW266789  10.370  13.615  12.806
88298SOL     OW66790  10.862   5.553   4.044
88298SOL    HW166791  10.776   5.517   4.019
88298SOL    HW266792  10.914   5.476   4.066
88299SOL     OW66793   7.234   2.911   7.632
88299SOL    HW166794   7.286   2.831   7.634
88299SOL    HW266795   7.215   2.930   7.724
88300SOL     OW66796   0.256   4.300   6.728
88300SOL    HW166797   0.260   4.281   6.821
88300SOL    HW266798   0.185   4.365   6.720
88301SOL     OW66799   8.085  11.603  12.666
88301SOL    HW166800   8.177  11.614  12.643
88301SOL    HW266801   8.043  11.575  12.585
88302SOL     OW66802   1.628   8.286   4.482
88302SOL    HW166803   1.686   8.253   4.551
88302SOL    HW266804   1.577   8.354   4.524
88303SOL     OW66805   2.519   7.013   9.182
88303SOL    HW166806   2.463   6.997   9.258
88303SOL    HW266807   2.603   6.975   9.207
88304SOL     OW66808   8.426   2.697   2.298
88304SOL    HW166809   8.421   2.677   2.205
88304SOL    HW266810   8.464   2.618   2.337
88305SOL     OW66811   1.814   9.213  11.839
88305SOL    HW166812   1.876   9.248  11.903
88305SOL    HW266813   1.846   9.124  11.822
88306SOL     OW66814   3.776  12.054   3.522
88306SOL    HW166815   3.687  12.085   3.539
88306SOL    HW266816   3.832  12.125   3.553
88307SOL     OW66817   4.829   0.781  11.643
88307SOL    HW166818   4.797   0.728  11.715
88307SOL    HW266819   4.906   0.734  11.611
88308SOL     OW66820  10.764  10.086   5.513
88308SOL    HW166821  10.734  10.164   5.559
88308SOL    HW266822  10.684  10.040   5.488
88309SOL     OW66823   2.404   8.915  12.781
88309SOL    HW166824   2.397   8.981  12.711
88309SOL    HW266825   2.373   8.961  12.859
88310SOL     OW66826   9.683   7.877   9.524
88310SOL    HW166827   9.645   7.808   9.578
88310SOL    HW266828   9.607   7.930   9.496
88311SOL     OW66829   0.218  12.338   7.452
88311SOL    HW166830   0.166  12.418   7.454
88311SOL    HW266831   0.302  12.366   7.415
88312SOL     OW66832  13.065  10.688   2.588
88312SOL    HW166833  12.974  10.684   2.559
88312SOL    HW266834  13.106  10.610   2.549
88313SOL     OW66835   8.234   7.325  10.409
88313SOL    HW166836   8.281   7.402  10.439
88313SOL    HW266837   8.193   7.351  10.327
88314SOL     OW66838   9.468   9.768   9.344
88314SOL    HW166839   9.525   9.844   9.350
88314SOL    HW266840   9.467   9.732   9.433
88315SOL     OW66841  14.838   0.678  11.460
88315SOL    HW166842  14.840   0.583  11.469
88315SOL    HW266843   0.042   0.706  11.490
88316SOL     OW66844   0.025  12.873   1.865
88316SOL    HW166845   0.064  12.787   1.851
88316SOL    HW266846  14.830  12.874   1.809
88317SOL     OW66847   9.549   1.161   4.087
88317SOL    HW166848   9.474   1.101   4.095
88317SOL    HW266849   9.512   1.248   4.107
88318SOL     OW66850   3.982   7.268   9.148
88318SOL    HW166851   3.982   7.357   9.112
88318SOL    HW266852   3.941   7.277   9.234
88319SOL     OW66853   6.535  10.990  11.520
88319SOL    HW166854   6.471  11.030  11.579
88319SOL    HW266855   6.482  10.934  11.462
88320SOL     OW66856   9.710  14.407   1.972
88320SOL    HW166857   9.665  14.438   1.894
88320SOL    HW266858   9.770  14.478   1.996
88321SOL     OW66859  12.029   8.558   0.046
88321SOL    HW166860  12.123   8.568   0.067
88321SOL    HW266861  12.010   8.467   0.067
88322SOL     OW66862  14.105   4.362   9.929
88322SOL    HW166863  14.137   4.315  10.006
88322SOL    HW266864  14.184   4.379   9.878
88323SOL     OW66865   2.338   4.931   3.489
88323SOL    HW166866   2.334   4.975   3.574
88323SOL    HW266867   2.273   4.975   3.435
88324SOL     OW66868  11.978  12.000  11.741
88324SOL    HW166869  11.946  12.059  11.809
88324SOL    HW266870  11.920  12.017  11.666
88325SOL     OW66871   3.451   0.971  13.643
88325SOL    HW166872   3.358   0.950  13.639
88325SOL    HW266873   3.494   0.900  13.594
88326SOL     OW66874   2.919   7.507  10.789
88326SOL    HW166875   2.954   7.483  10.704
88326SOL    HW266876   2.868   7.431  10.816
88327SOL     OW66877   0.691   8.076   5.484
88327SOL    HW166878   0.752   8.150   5.478
88327SOL    HW266879   0.739   8.002   5.448
88328SOL     OW66880   4.872   6.929   6.872
88328SOL    HW166881   4.934   6.935   6.799
88328SOL    HW266882   4.786   6.932   6.829
88329SOL     OW66883  14.740   8.359   3.491
88329SOL    HW166884  14.776   8.340   3.578
88329SOL    HW266885  14.652   8.323   3.493
88330SOL     OW66886   4.867   6.339   3.567
88330SOL    HW166887   4.839   6.402   3.500
88330SOL    HW266888   4.785   6.307   3.605
88331SOL     OW66889   1.904  14.134  10.491
88331SOL    HW166890   1.967  14.184  10.544
88331SOL    HW266891   1.826  14.129  10.545
88332SOL     OW66892  12.749   1.814  12.951
88332SOL    HW166893  12.797   1.839  13.030
88332SOL    HW266894  12.731   1.897  12.907
88333SOL     OW66895   1.369   8.382   8.848
88333SOL    HW166896   1.421   8.422   8.778
88333SOL    HW266897   1.414   8.299   8.866
88334SOL     OW66898   6.962   8.781   3.964
88334SOL    HW166899   6.951   8.847   4.033
88334SOL    HW266900   7.048   8.800   3.926
88335SOL     OW66901  14.180  14.473  13.165
88335SOL    HW166902  14.199  14.381  13.148
88335SOL    HW266903  14.246  14.500  13.228
88336SOL     OW66904   2.094  12.792   8.270
88336SOL    HW166905   2.154  12.839   8.213
88336SOL    HW266906   2.149  12.727   8.314
88337SOL     OW66907  11.801   6.611  11.572
88337SOL    HW166908  11.711   6.639  11.590
88337SOL    HW266909  11.855   6.672  11.622
88338SOL     OW66910   3.278   9.106   9.832
88338SOL    HW166911   3.193   9.111   9.875
88338SOL    HW266912   3.329   9.177   9.872
88339SOL     OW66913  12.932   1.583  14.090
88339SOL    HW166914  12.998   1.540  14.144
88339SOL    HW266915  12.883   1.638  14.152
88340SOL     OW66916   3.574   9.009   9.490
88340SOL    HW166917   3.498   9.045   9.536
88340SOL    HW266918   3.548   8.920   9.467
88341SOL     OW66919  12.444  11.985   7.231
88341SOL    HW166920  12.353  12.010   7.246
88341SOL    HW266921  12.495  12.055   7.271
88342SOL     OW66922   8.194  14.648   8.895
88342SOL    HW166923   8.140  14.726   8.882
88342SOL    HW266924   8.132  14.581   8.925
88343SOL     OW66925   4.223   8.176   0.703
88343SOL    HW166926   4.228   8.266   0.737
88343SOL    HW266927   4.135   8.147   0.726
88344SOL     OW66928   0.405   1.185   0.237
88344SOL    HW166929   0.353   1.229   0.305
88344SOL    HW266930   0.365   1.214   0.155
88345SOL     OW66931  10.288  12.741   6.448
88345SOL    HW166932  10.372  12.701   6.470
88345SOL    HW266933  10.224  12.693   6.500
88346SOL     OW66934   0.566  11.042   6.074
88346SOL    HW166935   0.548  10.953   6.106
88346SOL    HW266936   0.659  11.041   6.051
88347SOL     OW66937   1.418  10.404  12.337
88347SOL    HW166938   1.491  10.465  12.337
88347SOL    HW266939   1.366  10.428  12.413
88348SOL     OW66940  13.936   6.307   7.066
88348SOL    HW166941  13.944   6.290   6.972
88348SOL    HW266942  13.945   6.402   7.074
88349SOL     OW66943   0.675   0.913  10.825
88349SOL    HW166944   0.645   1.001  10.804
88349SOL    HW266945   0.615   0.855  10.778
88350SOL     OW66946   6.398   9.581   2.226
88350SOL    HW166947   6.391   9.638   2.302
88350SOL    HW266948   6.435   9.637   2.158
88351SOL     OW66949   0.210  10.471   0.626
88351SOL    HW166950   0.191  10.494   0.535
88351SOL    HW266951   0.305  10.471   0.631
88352SOL     OW66952   9.835   8.838   4.494
88352SOL    HW166953   9.824   8.764   4.435
88352SOL    HW266954   9.748   8.879   4.498
88353SOL     OW66955   9.550   9.457   8.227
88353SOL    HW166956   9.640   9.475   8.203
88353SOL    HW266957   9.500   9.532   8.195
88354SOL     OW66958  12.619  11.216   7.521
88354SOL    HW166959  12.656  11.288   7.471
88354SOL    HW266960  12.524  11.225   7.510
88355SOL     OW66961   7.596   0.901   6.186
88355SOL    HW166962   7.532   0.973   6.183
88355SOL    HW266963   7.646   0.910   6.104
88356SOL     OW66964  13.399   1.400   4.061
88356SOL    HW166965  13.439   1.430   3.978
88356SOL    HW266966  13.473   1.367   4.112
88357SOL     OW66967   3.066   2.507   5.232
88357SOL    HW166968   3.140   2.508   5.293
88357SOL    HW266969   3.081   2.582   5.174
88358SOL     OW66970   6.771  14.582  11.107
88358SOL    HW166971   6.790  14.490  11.127
88358SOL    HW266972   6.792  14.590  11.014
88359SOL     OW66973   6.536   1.800   6.155
88359SOL    HW166974   6.536   1.895   6.161
88359SOL    HW266975   6.466   1.772   6.214
88360SOL     OW66976   9.732  14.684   2.916
88360SOL    HW166977   9.717  14.690   3.011
88360SOL    HW266978   9.675  14.612   2.887
88361SOL     OW66979  13.366   8.239   0.319
88361SOL    HW166980  13.298   8.192   0.367
88361SOL    HW266981  13.350   8.331   0.340
88362SOL     OW66982   8.505   2.139   5.190
88362SOL    HW166983   8.566   2.071   5.161
88362SOL    HW266984   8.437   2.140   5.124
88363SOL     OW66985   4.267  14.220   0.683
88363SOL    HW166986   4.343  14.210   0.740
88363SOL    HW266987   4.241  14.131   0.662
88364SOL     OW66988   1.560  10.125   2.313
88364SOL    HW166989   1.486  10.180   2.339
88364SOL    HW266990   1.569  10.062   2.385
88365SOL     OW66991   2.816  11.054  14.576
88365SOL    HW166992   2.895  11.086  14.621
88365SOL    HW266993   2.806  11.112  14.501
88366SOL     OW66994   3.994   0.898  12.459
88366SOL    HW166995   4.068   0.896  12.399
88366SOL    HW266996   4.005   0.980  12.508
88367SOL     OW66997   3.316   2.685  10.319
88367SOL    HW166998   3.299   2.709  10.228
88367SOL    HW266999   3.270   2.602  10.330
88368SOL     OW67000   5.204   4.957   1.422
88368SOL    HW167001   5.124   4.963   1.370
88368SOL    HW267002   5.186   5.007   1.501
88369SOL     OW67003   4.006   6.788   6.553
88369SOL    HW167004   4.038   6.802   6.464
88369SOL    HW267005   3.948   6.862   6.569
88370SOL     OW67006   8.993   1.442  13.944
88370SOL    HW167007   9.002   1.530  13.981
88370SOL    HW267008   9.014   1.383  14.016
88371SOL     OW67009   7.862   6.559  13.045
88371SOL    HW167010   7.949   6.595  13.062
88371SOL    HW267011   7.818   6.627  12.994
88372SOL     OW67012   4.364  12.118   2.744
88372SOL    HW167013   4.398  12.196   2.700
88372SOL    HW267014   4.390  12.129   2.836
88373SOL     OW67015  10.398  12.218  10.113
88373SOL    HW167016  10.419  12.303  10.151
88373SOL    HW267017  10.308  12.201  10.141
88374SOL     OW67018   3.540   5.340   7.472
88374SOL    HW167019   3.521   5.384   7.555
88374SOL    HW267020   3.617   5.286   7.490
88375SOL     OW67021   8.215   9.401   3.667
88375SOL    HW167022   8.149   9.360   3.612
88375SOL    HW267023   8.165   9.440   3.739
88376SOL     OW67024   4.575   2.436   3.132
88376SOL    HW167025   4.655   2.438   3.184
88376SOL    HW267026   4.505   2.423   3.196
88377SOL     OW67027  13.433   8.288   1.300
88377SOL    HW167028  13.342   8.262   1.313
88377SOL    HW267029  13.483   8.207   1.310
88378SOL     OW67030   9.575   5.808   9.545
88378SOL    HW167031   9.488   5.767   9.546
88378SOL    HW267032   9.557   5.901   9.558
88379SOL     OW67033  11.699   7.568  11.736
88379SOL    HW167034  11.725   7.530  11.820
88379SOL    HW267035  11.734   7.657  11.737
88380SOL     OW67036   5.161   2.055   3.609
88380SOL    HW167037   5.227   1.991   3.635
88380SOL    HW267038   5.088   2.002   3.575
88381SOL     OW67039   0.091   1.938   4.229
88381SOL    HW167040   0.014   1.907   4.276
88381SOL    HW267041   0.056   1.975   4.148
88382SOL     OW67042  14.412   2.275  11.351
88382SOL    HW167043  14.405   2.286  11.256
88382SOL    HW267044  14.437   2.361  11.384
88383SOL     OW67045   9.892  12.962  13.562
88383SOL    HW167046   9.882  12.909  13.640
88383SOL    HW267047   9.935  13.042  13.592
88384SOL     OW67048   1.781   0.893   6.048
88384SOL    HW167049   1.865   0.860   6.080
88384SOL    HW267050   1.755   0.959   6.114
88385SOL     OW67051   5.886   4.031   1.188
88385SOL    HW167052   5.971   4.070   1.209
88385SOL    HW267053   5.824   4.075   1.245
88386SOL     OW67054  11.081   2.431  11.357
88386SOL    HW167055  10.988   2.410  11.369
88386SOL    HW267056  11.107   2.474  11.439
88387SOL     OW67057   8.296  11.839  13.806
88387SOL    HW167058   8.246  11.811  13.729
88387SOL    HW267059   8.276  11.932  13.815
88388SOL     OW67060   3.319   5.082   8.381
88388SOL    HW167061   3.345   4.992   8.400
88388SOL    HW267062   3.275   5.076   8.296
88389SOL     OW67063   6.680  10.005   7.776
88389SOL    HW167064   6.657   9.914   7.792
88389SOL    HW267065   6.596  10.050   7.766
88390SOL     OW67066   1.194   0.747   5.127
88390SOL    HW167067   1.259   0.691   5.085
88390SOL    HW267068   1.137   0.687   5.174
88391SOL     OW67069  11.549   8.533  12.026
88391SOL    HW167070  11.557   8.438  12.017
88391SOL    HW267071  11.540   8.565  11.936
88392SOL     OW67072  11.547   0.788  11.271
88392SOL    HW167073  11.559   0.813  11.363
88392SOL    HW267074  11.463   0.743  11.270
88393SOL     OW67075   9.895   6.320   0.843
88393SOL    HW167076   9.856   6.235   0.865
88393SOL    HW267077   9.951   6.341   0.918
88394SOL     OW67078  12.877   6.937   2.890
88394SOL    HW167079  12.920   7.022   2.901
88394SOL    HW267080  12.795   6.957   2.844
88395SOL     OW67081  10.884  10.084   1.416
88395SOL    HW167082  10.897  10.179   1.417
88395SOL    HW267083  10.924  10.055   1.335
88396SOL     OW67084   1.204   5.466   6.052
88396SOL    HW167085   1.256   5.394   6.016
88396SOL    HW267086   1.121   5.426   6.078
88397SOL     OW67087  10.039  12.094  10.994
88397SOL    HW167088  10.025  12.055  10.907
88397SOL    HW267089  10.055  12.019  11.051
88398SOL     OW67090   7.792   6.678   7.135
88398SOL    HW167091   7.849   6.668   7.059
88398SOL    HW267092   7.787   6.590   7.173
88399SOL     OW67093  10.007   8.305  10.438
88399SOL    HW167094  10.029   8.218  10.403
88399SOL    HW267095  10.079   8.361  10.407
88400SOL     OW67096   4.972  12.466   2.796
88400SOL    HW167097   5.045  12.527   2.798
88400SOL    HW267098   5.008  12.384   2.830
88401SOL     OW67099   3.412   8.717   2.159
88401SOL    HW167100   3.453   8.654   2.099
88401SOL    HW267101   3.483   8.744   2.217
88402SOL     OW67102   8.540   7.828   6.532
88402SOL    HW167103   8.569   7.806   6.620
88402SOL    HW267104   8.480   7.758   6.507
88403SOL     OW67105   6.135  14.767   4.361
88403SOL    HW167106   6.051  14.730   4.388
88403SOL    HW267107   6.111  14.841   4.304
88404SOL     OW67108   8.532   7.374   3.964
88404SOL    HW167109   8.436   7.374   3.962
88404SOL    HW267110   8.555   7.289   4.002
88405SOL     OW67111   7.104   9.141   3.144
88405SOL    HW167112   7.192   9.147   3.108
88405SOL    HW267113   7.053   9.203   3.093
88406SOL     OW67114   9.177  12.032  12.229
88406SOL    HW167115   9.140  12.009  12.314
88406SOL    HW267116   9.255  11.976  12.222
88407SOL     OW67117  13.733  11.440   7.013
88407SOL    HW167118  13.712  11.516   6.959
88407SOL    HW267119  13.707  11.465   7.102
88408SOL     OW67120   1.820  11.479   7.496
88408SOL    HW167121   1.778  11.536   7.561
88408SOL    HW267122   1.819  11.530   7.415
88409SOL     OW67123   6.608   0.352  12.033
88409SOL    HW167124   6.690   0.304  12.038
88409SOL    HW267125   6.581   0.363  12.124
88410SOL     OW67126  13.910  12.677   8.385
88410SOL    HW167127  13.944  12.698   8.298
88410SOL    HW267128  13.890  12.763   8.423
88411SOL     OW67129  13.551   4.615   0.123
88411SOL    HW167130  13.485   4.675   0.160
88411SOL    HW267131  13.633   4.664   0.128
88412SOL     OW67132   1.176  14.526   8.451
88412SOL    HW167133   1.107  14.513   8.387
88412SOL    HW267134   1.132  14.564   8.527
88413SOL     OW67135  11.559  10.264   2.789
88413SOL    HW167136  11.567  10.355   2.815
88413SOL    HW267137  11.475  10.259   2.742
88414SOL     OW67138   5.983   7.241   5.056
88414SOL    HW167139   5.911   7.225   4.994
88414SOL    HW267140   5.948   7.307   5.116
88415SOL     OW67141  12.470   4.437  11.814
88415SOL    HW167142  12.454   4.395  11.898
88415SOL    HW267143  12.481   4.364  11.752
88416SOL     OW67144   5.801   1.811   8.557
88416SOL    HW167145   5.868   1.879   8.556
88416SOL    HW267146   5.838   1.741   8.504
88417SOL     OW67147  13.411   0.041  11.755
88417SOL    HW167148  13.344   0.072  11.693
88417SOL    HW267149  13.389   0.085  11.838
88418SOL     OW67150   7.315   6.792   7.022
88418SOL    HW167151   7.276   6.835   7.098
88418SOL    HW267152   7.405   6.826   7.019
88419SOL     OW67153  13.053   9.138   3.333
88419SOL    HW167154  13.081   9.104   3.417
88419SOL    HW267155  12.958   9.137   3.337
88420SOL     OW67156  11.423   1.339   4.770
88420SOL    HW167157  11.335   1.314   4.741
88420SOL    HW267158  11.480   1.317   4.696
88421SOL     OW67159   6.479   1.576   0.931
88421SOL    HW167160   6.399   1.531   0.959
88421SOL    HW267161   6.538   1.506   0.904
88422SOL     OW67162  13.164   2.388   1.617
88422SOL    HW167163  13.115   2.348   1.545
88422SOL    HW267164  13.145   2.481   1.610
88423SOL     OW67165   1.882   8.729   8.579
88423SOL    HW167166   1.974   8.754   8.576
88423SOL    HW267167   1.883   8.635   8.601
88424SOL     OW67168   8.477   8.131   3.390
88424SOL    HW167169   8.478   8.220   3.355
88424SOL    HW267170   8.443   8.140   3.479
88425SOL     OW67171   9.255   5.537   8.319
88425SOL    HW167172   9.297   5.587   8.249
88425SOL    HW267173   9.219   5.603   8.378
88426SOL     OW67174   5.769   5.907  13.771
88426SOL    HW167175   5.678   5.924  13.796
88426SOL    HW267176   5.815   5.897  13.855
88427SOL     OW67177  10.671  12.315   4.532
88427SOL    HW167178  10.704  12.403   4.549
88427SOL    HW267179  10.739  12.274   4.479
88428SOL     OW67180  10.946  11.817  11.764
88428SOL    HW167181  10.953  11.724  11.788
88428SOL    HW267182  10.855  11.829  11.739
88429SOL     OW67183   0.592   9.534  10.305
88429SOL    HW167184   0.634   9.454  10.275
88429SOL    HW267185   0.507   9.535  10.261
88430SOL     OW67186   7.707   4.487   5.797
88430SOL    HW167187   7.685   4.394   5.796
88430SOL    HW267188   7.802   4.488   5.786
88431SOL     OW67189   4.878  11.509  11.756
88431SOL    HW167190   4.845  11.419  11.745
88431SOL    HW267191   4.931  11.525  11.678
88432SOL     OW67192   6.883   1.559   3.404
88432SOL    HW167193   6.796   1.526   3.384
88432SOL    HW267194   6.943   1.495   3.365
88433SOL     OW67195  12.381   0.554   9.286
88433SOL    HW167196  12.351   0.536   9.197
88433SOL    HW267197  12.476   0.557   9.279
88434SOL     OW67198   9.990   4.137  14.805
88434SOL    HW167199  10.082   4.161  14.815
88434SOL    HW267200   9.990   4.041  14.804
88435SOL     OW67201   6.831   9.927  12.072
88435SOL    HW167202   6.806   9.892  11.986
88435SOL    HW267203   6.824   9.852  12.131
88436SOL     OW67204   6.066   5.685   4.470
88436SOL    HW167205   6.079   5.637   4.388
88436SOL    HW267206   6.073   5.777   4.444
88437SOL     OW67207   5.665   5.199   8.266
88437SOL    HW167208   5.639   5.148   8.343
88437SOL    HW267209   5.755   5.171   8.248
88438SOL     OW67210   1.421   7.906  14.421
88438SOL    HW167211   1.437   7.906  14.515
88438SOL    HW267212   1.327   7.891  14.412
88439SOL     OW67213   8.839   2.294   9.875
88439SOL    HW167214   8.877   2.314   9.961
88439SOL    HW267215   8.806   2.378   9.844
88440SOL     OW67216   7.793  12.739   8.403
88440SOL    HW167217   7.844  12.756   8.323
88440SOL    HW267218   7.733  12.813   8.409
88441SOL     OW67219  13.993   4.636   3.805
88441SOL    HW167220  13.949   4.691   3.870
88441SOL    HW267221  14.086   4.657   3.814
88442SOL     OW67222   5.782  12.403  14.054
88442SOL    HW167223   5.784  12.312  14.083
88442SOL    HW267224   5.860  12.413  13.998
88443SOL     OW67225   0.042  12.920  10.543
88443SOL    HW167226  14.837  12.950  10.570
88443SOL    HW267227   0.060  12.844  10.598
88444SOL     OW67228  11.565   2.115   3.946
88444SOL    HW167229  11.564   2.186   3.882
88444SOL    HW267230  11.649   2.124   3.991
88445SOL     OW67231   4.642   3.646   4.308
88445SOL    HW167232   4.661   3.700   4.384
88445SOL    HW267233   4.581   3.580   4.340
88446SOL     OW67234   6.737   6.446  13.864
88446SOL    HW167235   6.778   6.475  13.782
88446SOL    HW267236   6.759   6.352  13.870
88447SOL     OW67237  13.277   3.039  13.541
88447SOL    HW167238  13.254   3.074  13.454
88447SOL    HW267239  13.372   3.033  13.540
88448SOL     OW67240   7.501   4.216   8.185
88448SOL    HW167241   7.475   4.141   8.132
88448SOL    HW267242   7.430   4.228   8.248
88449SOL     OW67243   0.244   2.188   3.456
88449SOL    HW167244   0.306   2.260   3.471
88449SOL    HW267245   0.207   2.207   3.370
88450SOL     OW67246   4.573   0.246  14.781
88450SOL    HW167247   4.508   0.243  14.851
88450SOL    HW267248   4.522   0.233  14.701
88451SOL     OW67249   3.606  14.668  14.668
88451SOL    HW167250   3.516  14.673  14.698
88451SOL    HW267251   3.659  14.675  14.748
88452SOL     OW67252  10.775   9.608   5.019
88452SOL    HW167253  10.701   9.614   5.080
88452SOL    HW267254  10.766   9.685   4.963
88453SOL     OW67255   4.161  10.292  10.481
88453SOL    HW167256   4.154  10.263  10.390
88453SOL    HW267257   4.089  10.355  10.491
88454SOL     OW67258   5.550   7.079  11.779
88454SOL    HW167259   5.496   7.158  11.778
88454SOL    HW267260   5.499   7.014  11.730
88455SOL     OW67261  11.952  13.582   3.860
88455SOL    HW167262  11.934  13.489   3.873
88455SOL    HW267263  11.946  13.621   3.948
88456SOL     OW67264  11.523   7.687  10.085
88456SOL    HW167265  11.591   7.663  10.023
88456SOL    HW267266  11.569   7.735  10.154
88457SOL     OW67267   3.321  11.989   5.700
88457SOL    HW167268   3.289  12.029   5.619
88457SOL    HW267269   3.244  11.985   5.757
88458SOL     OW67270   7.341  12.853   3.282
88458SOL    HW167271   7.396  12.788   3.237
88458SOL    HW267272   7.396  12.931   3.289
88459SOL     OW67273   9.517  14.004   3.332
88459SOL    HW167274   9.479  14.000   3.420
88459SOL    HW267275   9.581  14.074   3.337
88460SOL     OW67276  11.793  10.382   4.146
88460SOL    HW167277  11.747  10.311   4.189
88460SOL    HW267278  11.743  10.399   4.067
88461SOL     OW67279   2.924  11.291  13.782
88461SOL    HW167280   2.978  11.355  13.829
88461SOL    HW267281   2.843  11.287  13.832
88462SOL     OW67282  12.798  11.154  10.947
88462SOL    HW167283  12.855  11.215  10.994
88462SOL    HW267284  12.849  11.073  10.942
88463SOL     OW67285  12.014  13.171   9.786
88463SOL    HW167286  11.946  13.237   9.804
88463SOL    HW267287  11.981  13.123   9.710
88464SOL     OW67288  13.908   6.809   7.366
88464SOL    HW167289  13.982   6.862   7.395
88464SOL    HW267290  13.892   6.838   7.276
88465SOL     OW67291  12.790   9.250  13.797
88465SOL    HW167292  12.845   9.302  13.738
88465SOL    HW267293  12.707   9.241  13.750
88466SOL     OW67294   0.252  14.563   6.138
88466SOL    HW167295   0.182  14.556   6.202
88466SOL    HW267296   0.240  14.488   6.080
88467SOL     OW67297   9.867   1.002   0.201
88467SOL    HW167298   9.811   0.969   0.131
88467SOL    HW267299   9.952   0.961   0.185
88468SOL     OW67300   2.801   3.359  11.093
88468SOL    HW167301   2.839   3.273  11.110
88468SOL    HW267302   2.863   3.421  11.131
88469SOL     OW67303   6.601   4.919  10.065
88469SOL    HW167304   6.595   4.958   9.977
88469SOL    HW267305   6.606   4.994  10.124
88470SOL     OW67306   1.750   4.148   7.463
88470SOL    HW167307   1.843   4.172   7.463
88470SOL    HW267308   1.712   4.200   7.534
88471SOL     OW67309   6.198  13.009   4.330
88471SOL    HW167310   6.122  13.051   4.370
88471SOL    HW267311   6.161  12.938   4.278
88472SOL     OW67312   3.776   9.304  11.600
88472SOL    HW167313   3.736   9.375  11.550
88472SOL    HW267314   3.867   9.300  11.569
88473SOL     OW67315  14.624   0.604  14.600
88473SOL    HW167316  14.541   0.647  14.582
88473SOL    HW267317  14.690   0.672  14.588
88474SOL     OW67318   9.133   8.418  12.708
88474SOL    HW167319   9.164   8.331  12.733
88474SOL    HW267320   9.110   8.460  12.792
88475SOL     OW67321   2.144   8.823   0.503
88475SOL    HW167322   2.193   8.792   0.580
88475SOL    HW267323   2.185   8.778   0.429
88476SOL     OW67324  14.665  12.401   9.764
88476SOL    HW167325  14.650  12.424   9.672
88476SOL    HW267326  14.714  12.475   9.799
88477SOL     OW67327   6.518   3.134  12.361
88477SOL    HW167328   6.571   3.106  12.286
88477SOL    HW267329   6.551   3.083  12.435
88478SOL     OW67330  11.752  10.437   2.275
88478SOL    HW167331  11.758  10.402   2.364
88478SOL    HW267332  11.841  10.427   2.239
88479SOL     OW67333   7.550   5.929  13.765
88479SOL    HW167334   7.635   5.890  13.785
88479SOL    HW267335   7.533   5.906  13.673
88480SOL     OW67336   8.359   1.090  10.329
88480SOL    HW167337   8.279   1.096  10.276
88480SOL    HW267338   8.332   1.046  10.409
88481SOL     OW67339   4.343   9.428   1.423
88481SOL    HW167340   4.249   9.411   1.417
88481SOL    HW267341   4.350   9.517   1.455
88482SOL     OW67342  13.557  14.454   5.494
88482SOL    HW167343  13.570  14.475   5.401
88482SOL    HW267344  13.641  14.418   5.522
88483SOL     OW67345   0.681   8.221  12.282
88483SOL    HW167346   0.712   8.271  12.207
88483SOL    HW267347   0.649   8.139  12.245
88484SOL     OW67348   0.818   0.164  14.720
88484SOL    HW167349   0.885   0.181  14.653
88484SOL    HW267350   0.783   0.250  14.742
88485SOL     OW67351  10.578  11.911   9.540
88485SOL    HW167352  10.623  11.846   9.595
88485SOL    HW267353  10.634  11.919   9.462
88486SOL     OW67354  14.787   8.909   1.880
88486SOL    HW167355  14.864   8.867   1.918
88486SOL    HW267356  14.713   8.863   1.919
88487SOL     OW67357   0.738   0.516  10.291
88487SOL    HW167358   0.660   0.555  10.252
88487SOL    HW267359   0.704   0.451  10.353
88488SOL     OW67360   9.377   7.772   8.013
88488SOL    HW167361   9.431   7.823   8.073
88488SOL    HW267362   9.438   7.715   7.966
88489SOL     OW67363  10.948  13.732   7.488
88489SOL    HW167364  11.018  13.668   7.477
88489SOL    HW267365  10.871  13.689   7.450
88490SOL     OW67366   2.903   1.553   0.390
88490SOL    HW167367   2.860   1.495   0.453
88490SOL    HW267368   2.992   1.563   0.423
88491SOL     OW67369   3.276   2.677   7.938
88491SOL    HW167370   3.240   2.761   7.967
88491SOL    HW267371   3.202   2.616   7.943
88492SOL     OW67372   2.922   8.399   9.365
88492SOL    HW167373   2.912   8.456   9.289
88492SOL    HW267374   2.887   8.314   9.337
88493SOL     OW67375  10.444   5.769  10.338
88493SOL    HW167376  10.442   5.802  10.248
88493SOL    HW267377  10.537   5.769  10.361
88494SOL     OW67378  11.557   8.805   9.082
88494SOL    HW167379  11.597   8.794   8.995
88494SOL    HW267380  11.476   8.854   9.065
88495SOL     OW67381   8.431  13.923   8.370
88495SOL    HW167382   8.430  13.874   8.288
88495SOL    HW267383   8.343  13.961   8.377
88496SOL     OW67384  13.433  10.065  11.093
88496SOL    HW167385  13.385  10.064  11.176
88496SOL    HW267386  13.486  10.144  11.096
88497SOL     OW67387   7.848  13.252   1.033
88497SOL    HW167388   7.756  13.279   1.035
88497SOL    HW267389   7.894  13.328   0.997
88498SOL     OW67390   5.790   7.271  12.522
88498SOL    HW167391   5.869   7.237  12.480
88498SOL    HW267392   5.718   7.234  12.471
88499SOL     OW67393  10.831  13.384  10.678
88499SOL    HW167394  10.790  13.306  10.641
88499SOL    HW267395  10.769  13.416  10.742
88500SOL     OW67396   2.611  10.732  10.094
88500SOL    HW167397   2.586  10.650  10.137
88500SOL    HW267398   2.631  10.791  10.167
88501SOL     OW67399   0.582  10.816   5.725
88501SOL    HW167400   0.488  10.806   5.744
88501SOL    HW267401   0.617  10.727   5.729
88502SOL     OW67402   7.171   7.181   5.870
88502SOL    HW167403   7.173   7.086   5.881
88502SOL    HW267404   7.253   7.202   5.825
88503SOL     OW67405   1.281   1.705   0.802
88503SOL    HW167406   1.308   1.689   0.711
88503SOL    HW267407   1.214   1.773   0.795
88504SOL     OW67408   5.441   5.880   4.702
88504SOL    HW167409   5.463   5.831   4.622
88504SOL    HW267410   5.365   5.933   4.678
88505SOL     OW67411   5.312  12.968  12.926
88505SOL    HW167412   5.348  12.922  12.850
88505SOL    HW267413   5.354  13.053  12.925
88506SOL     OW67414  10.639   9.446   3.786
88506SOL    HW167415  10.614   9.510   3.853
88506SOL    HW267416  10.558   9.402   3.763
88507SOL     OW67417   4.084   3.377   2.200
88507SOL    HW167418   4.116   3.428   2.126
88507SOL    HW267419   4.027   3.311   2.161
88508SOL     OW67420   8.891   9.154   8.493
88508SOL    HW167421   8.941   9.079   8.460
88508SOL    HW267422   8.893   9.218   8.421
88509SOL     OW67423   0.798   3.061   0.559
88509SOL    HW167424   0.722   3.056   0.616
88509SOL    HW267425   0.785   2.990   0.496
88510SOL     OW67426  14.042  13.252   4.417
88510SOL    HW167427  14.039  13.335   4.465
88510SOL    HW267428  14.094  13.194   4.472
88511SOL     OW67429   6.392   1.867   0.062
88511SOL    HW167430   6.483   1.843   0.048
88511SOL    HW267431   6.395   1.960   0.085
88512SOL     OW67432  14.677   3.017   8.205
88512SOL    HW167433  14.682   3.112   8.193
88512SOL    HW267434  14.686   3.005   8.299
88513SOL     OW67435   3.373   6.612   9.822
88513SOL    HW167436   3.284   6.592   9.794
88513SOL    HW267437   3.389   6.554   9.897
88514SOL     OW67438  13.019   8.749  13.336
88514SOL    HW167439  12.980   8.835  13.324
88514SOL    HW267440  13.033   8.741  13.430
88515SOL     OW67441  10.609   7.956  10.594
88515SOL    HW167442  10.663   7.916  10.663
88515SOL    HW267443  10.673   7.987  10.529
88516SOL     OW67444  14.643  10.143   4.323
88516SOL    HW167445  14.602  10.230   4.326
88516SOL    HW267446  14.659  10.127   4.230
88517SOL     OW67447   7.429   5.035   0.562
88517SOL    HW167448   7.376   5.006   0.636
88517SOL    HW267449   7.488   4.961   0.544
88518SOL     OW67450   9.231  13.625   2.592
88518SOL    HW167451   9.307  13.567   2.584
88518SOL    HW267452   9.238  13.684   2.516
88519SOL     OW67453   6.979   4.034   3.805
88519SOL    HW167454   7.008   4.125   3.798
88519SOL    HW267455   6.924   4.032   3.884
88520SOL     OW67456   0.020   9.626   5.938
88520SOL    HW167457   0.031   9.668   6.023
88520SOL    HW267458  14.823   9.665   5.902
88521SOL     OW67459   7.085  12.349   6.458
88521SOL    HW167460   7.162  12.406   6.452
88521SOL    HW267461   7.021  12.391   6.400
88522SOL     OW67462   6.414   0.596   4.791
88522SOL    HW167463   6.485   0.551   4.747
88522SOL    HW267464   6.382   0.659   4.727
88523SOL     OW67465   9.785   1.379   3.354
88523SOL    HW167466   9.693   1.389   3.329
88523SOL    HW267467   9.807   1.290   3.325
88524SOL     OW67468   4.277   3.696   0.569
88524SOL    HW167469   4.211   3.744   0.519
88524SOL    HW267470   4.283   3.611   0.526
88525SOL     OW67471   1.898   3.711   3.991
88525SOL    HW167472   1.972   3.711   4.050
88525SOL    HW267473   1.919   3.777   3.925
88526SOL     OW67474  14.523   8.797   7.172
88526SOL    HW167475  14.450   8.818   7.114
88526SOL    HW267476  14.599   8.838   7.130
88527SOL     OW67477   8.139   8.003   9.246
88527SOL    HW167478   8.071   8.047   9.196
88527SOL    HW267479   8.119   7.909   9.237
88528SOL     OW67480   7.710   4.298  10.450
88528SOL    HW167481   7.805   4.284  10.440
88528SOL    HW267482   7.682   4.332  10.365
88529SOL     OW67483  11.669   7.640  10.822
88529SOL    HW167484  11.627   7.585  10.756
88529SOL    HW267485  11.615   7.720  10.824
88530SOL     OW67486   4.188  13.077   6.176
88530SOL    HW167487   4.207  13.041   6.089
88530SOL    HW267488   4.101  13.115   6.167
88531SOL     OW67489   4.392   0.749   2.866
88531SOL    HW167490   4.476   0.749   2.821
88531SOL    HW267491   4.407   0.700   2.947
88532SOL     OW67492   6.129   2.326   3.656
88532SOL    HW167493   6.074   2.384   3.604
88532SOL    HW267494   6.071   2.253   3.679
88533SOL     OW67495  11.823   3.760  11.519
88533SOL    HW167496  11.822   3.682  11.464
88533SOL    HW267497  11.752   3.746  11.582
88534SOL     OW67498  10.132   9.077   7.814
88534SOL    HW167499  10.048   9.056   7.773
88534SOL    HW267500  10.145   9.008   7.879
88535SOL     OW67501   2.655   7.894  11.390
88535SOL    HW167502   2.652   7.804  11.358
88535SOL    HW267503   2.732   7.932  11.347
88536SOL     OW67504   2.657   4.165   1.360
88536SOL    HW167505   2.607   4.239   1.393
88536SOL    HW267506   2.748   4.187   1.379
88537SOL     OW67507   4.881   4.058   1.038
88537SOL    HW167508   4.945   4.092   1.101
88537SOL    HW267509   4.800   4.106   1.059
88538SOL     OW67510   0.181   8.089  12.619
88538SOL    HW167511   0.268   8.049  12.623
88538SOL    HW267512   0.153   8.075  12.529
88539SOL     OW67513   2.979  11.773   8.524
88539SOL    HW167514   2.989  11.789   8.618
88539SOL    HW267515   2.934  11.689   8.518
88540SOL     OW67516   0.311   3.466   2.501
88540SOL    HW167517   0.239   3.460   2.564
88540SOL    HW267518   0.316   3.378   2.462
88541SOL     OW67519   5.790  13.839  11.241
88541SOL    HW167520   5.822  13.760  11.198
88541SOL    HW267521   5.758  13.894  11.169
88542SOL     OW67522   5.021   5.313   6.261
88542SOL    HW167523   5.039   5.334   6.353
88542SOL    HW267524   5.106   5.286   6.226
88543SOL     OW67525   6.570  14.000   2.616
88543SOL    HW167526   6.554  13.907   2.633
88543SOL    HW267527   6.487  14.044   2.636
88544SOL     OW67528  14.163  14.248  10.994
88544SOL    HW167529  14.139  14.271  11.083
88544SOL    HW267530  14.218  14.170  11.003
88545SOL     OW67531   2.823  13.346   4.711
88545SOL    HW167532   2.761  13.416   4.730
88545SOL    HW267533   2.792  13.271   4.762
88546SOL     OW67534  13.751   3.604   6.576
88546SOL    HW167535  13.778   3.558   6.656
88546SOL    HW267536  13.739   3.695   6.604
88547SOL     OW67537   0.133   8.907   1.351
88547SOL    HW167538   0.050   8.928   1.309
88547SOL    HW267539   0.110   8.884   1.441
88548SOL     OW67540   2.319   0.272   8.726
88548SOL    HW167541   2.344   0.190   8.683
88548SOL    HW267542   2.235   0.252   8.768
88549SOL     OW67543   9.624  11.786   4.293
88549SOL    HW167544   9.586  11.824   4.372
88549SOL    HW267545   9.585  11.836   4.221
88550SOL     OW67546   7.069  11.930  10.000
88550SOL    HW167547   6.987  11.965   9.967
88550SOL    HW267548   7.069  11.951  10.093
88551SOL     OW67549  14.230   2.373   7.378
88551SOL    HW167550  14.304   2.406   7.429
88551SOL    HW267551  14.188   2.308   7.434
88552SOL     OW67552  13.553   9.450   0.256
88552SOL    HW167553  13.567   9.463   0.162
88552SOL    HW267554  13.592   9.364   0.274
88553SOL     OW67555  12.170  10.966   3.319
88553SOL    HW167556  12.152  10.875   3.342
88553SOL    HW267557  12.263  10.966   3.296
88554SOL     OW67558  13.236   9.564  10.513
88554SOL    HW167559  13.195   9.477  10.513
88554SOL    HW267560  13.237   9.590  10.605
88555SOL     OW67561   9.889   1.825  14.521
88555SOL    HW167562   9.920   1.806  14.610
88555SOL    HW267563   9.955   1.886  14.486
88556SOL     OW67564   3.317   2.046   0.261
88556SOL    HW167565   3.300   2.140   0.263
88556SOL    HW267566   3.403   2.038   0.219
88557SOL     OW67567  13.129   1.540   4.593
88557SOL    HW167568  13.159   1.617   4.545
88557SOL    HW267569  13.049   1.512   4.549
88558SOL     OW67570   1.115   5.165  11.265
88558SOL    HW167571   1.086   5.239  11.318
88558SOL    HW267572   1.121   5.200  11.177
88559SOL     OW67573   6.743   6.892  11.415
88559SOL    HW167574   6.833   6.860  11.414
88559SOL    HW267575   6.740   6.956  11.343
88560SOL     OW67576  14.849  14.416   3.593
88560SOL    HW167577  14.776  14.401   3.653
88560SOL    HW267578   0.022  14.480   3.638
88561SOL     OW67579  10.434   7.029  12.253
88561SOL    HW167580  10.377   7.025  12.330
88561SOL    HW267581  10.521   7.045  12.288
88562SOL     OW67582  12.392  13.454   6.443
88562SOL    HW167583  12.422  13.435   6.532
88562SOL    HW267584  12.385  13.367   6.402
88563SOL     OW67585   4.433   8.354  11.508
88563SOL    HW167586   4.452   8.366  11.415
88563SOL    HW267587   4.432   8.259  11.521
88564SOL     OW67588  10.059  13.134   2.235
88564SOL    HW167589   9.987  13.159   2.293
88564SOL    HW267590  10.017  13.105   2.155
88565SOL     OW67591  13.368   5.084  11.847
88565SOL    HW167592  13.404   5.082  11.936
88565SOL    HW267593  13.288   5.031  11.852
88566SOL     OW67594  14.463  11.575   3.305
88566SOL    HW167595  14.550  11.548   3.275
88566SOL    HW267596  14.456  11.539   3.393
88567SOL     OW67597   1.141   4.607   1.487
88567SOL    HW167598   1.220   4.651   1.517
88567SOL    HW267599   1.070   4.649   1.535
88568SOL     OW67600   9.581   4.997   7.773
88568SOL    HW167601   9.505   5.043   7.738
88568SOL    HW267602   9.552   4.963   7.857
88569SOL     OW67603   4.791   3.031   2.611
88569SOL    HW167604   4.758   3.013   2.523
88569SOL    HW267605   4.764   2.956   2.663
88570SOL     OW67606   8.335  11.922   2.612
88570SOL    HW167607   8.285  11.979   2.671
88570SOL    HW267608   8.386  11.983   2.559
88571SOL     OW67609   3.851   8.349   0.312
88571SOL    HW167610   3.821   8.260   0.294
88571SOL    HW267611   3.901   8.342   0.394
88572SOL     OW67612  11.913   8.145   2.023
88572SOL    HW167613  11.890   8.123   2.113
88572SOL    HW267614  12.008   8.147   2.022
88573SOL     OW67615  12.747   6.377   3.415
88573SOL    HW167616  12.820   6.433   3.441
88573SOL    HW267617  12.675   6.438   3.398
88574SOL     OW67618   3.708   1.263   0.305
88574SOL    HW167619   3.778   1.198   0.313
88574SOL    HW267620   3.746   1.333   0.251
88575SOL     OW67621   6.543  13.393   6.128
88575SOL    HW167622   6.448  13.385   6.138
88575SOL    HW267623   6.570  13.448   6.202
88576SOL     OW67624   3.980  14.764   4.609
88576SOL    HW167625   3.989  14.687   4.666
88576SOL    HW267626   4.069  14.795   4.598
88577SOL     OW67627   5.083   4.181  10.496
88577SOL    HW167628   5.071   4.267  10.455
88577SOL    HW267629   5.144   4.135  10.439
88578SOL     OW67630  14.854  11.910   0.151
88578SOL    HW167631  14.856  11.844   0.220
88578SOL    HW267632   0.032  11.978   0.182
88579SOL     OW67633   5.118  14.651   2.359
88579SOL    HW167634   5.038  14.669   2.309
88579SOL    HW267635   5.090  14.591   2.427
88580SOL     OW67636   8.640   8.769   7.323
88580SOL    HW167637   8.657   8.853   7.365
88580SOL    HW267638   8.562   8.785   7.270
88581SOL     OW67639   2.083   7.681   9.575
88581SOL    HW167640   2.097   7.775   9.585
88581SOL    HW267641   2.129   7.657   9.495
88582SOL     OW67642  11.799  13.354   6.967
88582SOL    HW167643  11.714  13.354   6.923
88582SOL    HW267644  11.852  13.418   6.918
88583SOL     OW67645   5.047   0.123   6.646
88583SOL    HW167646   5.067   0.097   6.556
88583SOL    HW267647   5.132   0.142   6.686
88584SOL     OW67648   3.440  13.896   7.304
88584SOL    HW167649   3.412  13.984   7.281
88584SOL    HW267650   3.491  13.866   7.229
88585SOL     OW67651   1.125   5.725   6.021
88585SOL    HW167652   1.090   5.739   5.934
88585SOL    HW267653   1.159   5.636   6.020
88586SOL     OW67654  14.251   7.618   3.326
88586SOL    HW167655  14.313   7.609   3.399
88586SOL    HW267656  14.165   7.614   3.368
88587SOL     OW67657  12.310  13.123   1.912
88587SOL    HW167658  12.301  13.142   1.818
88587SOL    HW267659  12.268  13.197   1.956
88588SOL     OW67660  11.030  13.618   2.466
88588SOL    HW167661  11.110  13.650   2.508
88588SOL    HW267662  11.059  13.589   2.379
88589SOL     OW67663   5.348   7.414   0.556
88589SOL    HW167664   5.359   7.335   0.503
88589SOL    HW267665   5.260   7.445   0.535
88590SOL     OW67666  12.587   5.428   3.340
88590SOL    HW167667  12.641   5.489   3.390
88590SOL    HW267668  12.637   5.411   3.260
88591SOL     OW67669   9.637   0.601  13.652
88591SOL    HW167670   9.716   0.571  13.608
88591SOL    HW267671   9.659   0.689  13.684
88592SOL     OW67672   6.446  11.688   3.597
88592SOL    HW167673   6.413  11.608   3.638
88592SOL    HW267674   6.402  11.759   3.643
88593SOL     OW67675   4.414   8.914   5.053
88593SOL    HW167676   4.378   8.848   4.994
88593SOL    HW267677   4.457   8.863   5.123
88594SOL     OW67678   1.260  12.487   0.444
88594SOL    HW167679   1.265  12.531   0.360
88594SOL    HW267680   1.183  12.429   0.436
88595SOL     OW67681   6.604   4.713   8.231
88595SOL    HW167682   6.608   4.760   8.147
88595SOL    HW267683   6.623   4.621   8.208
88596SOL     OW67684  14.614   6.494  10.368
88596SOL    HW167685  14.658   6.510  10.285
88596SOL    HW267686  14.521   6.497  10.346
88597SOL     OW67687  11.711  10.244  14.415
88597SOL    HW167688  11.778  10.272  14.353
88597SOL    HW267689  11.668  10.325  14.443
88598SOL     OW67690   4.298   9.461   0.470
88598SOL    HW167691   4.233   9.401   0.506
88598SOL    HW267692   4.255   9.499   0.393
88599SOL     OW67693   0.067  12.021   9.596
88599SOL    HW167694   0.130  12.081   9.556
88599SOL    HW267695   0.109  11.995   9.678
88600SOL     OW67696   2.733  12.733  10.203
88600SOL    HW167697   2.655  12.678  10.207
88600SOL    HW267698   2.804  12.674  10.178
88601SOL     OW67699   2.925   3.002   7.032
88601SOL    HW167700   3.008   3.021   7.075
88601SOL    HW267701   2.938   3.026   6.940
88602SOL     OW67702   6.028   1.380   3.795
88602SOL    HW167703   6.052   1.303   3.743
88602SOL    HW267704   6.107   1.434   3.796
88603SOL     OW67705  14.472  10.896  13.822
88603SOL    HW167706  14.439  10.944  13.898
88603SOL    HW267707  14.401  10.901  13.758
88604SOL     OW67708  14.169   0.012  13.496
88604SOL    HW167709  14.176   0.067  13.574
88604SOL    HW267710  14.081  14.857  13.500
88605SOL     OW67711   0.440   4.018   7.858
88605SOL    HW167712   0.438   3.922   7.853
88605SOL    HW267713   0.530   4.041   7.837
88606SOL     OW67714   0.044   2.762  12.551
88606SOL    HW167715   0.057   2.849  12.515
88606SOL    HW267716   0.103   2.706  12.500
88607SOL     OW67717  11.665  12.838   9.121
88607SOL    HW167718  11.602  12.779   9.081
88607SOL    HW267719  11.649  12.831   9.215
88608SOL     OW67720   8.759   6.135  10.414
88608SOL    HW167721   8.727   6.051  10.380
88608SOL    HW267722   8.733   6.199  10.347
88609SOL     OW67723   6.009   0.012   2.736
88609SOL    HW167724   6.058   0.058   2.668
88609SOL    HW267725   5.924   0.056   2.739
88610SOL     OW67726   0.452   3.173   3.797
88610SOL    HW167727   0.358   3.158   3.784
88610SOL    HW267728   0.492   3.147   3.715
88611SOL     OW67729   3.055   2.053   1.532
88611SOL    HW167730   3.037   1.974   1.480
88611SOL    HW267731   3.134   2.031   1.582
88612SOL     OW67732  12.093   4.687   7.550
88612SOL    HW167733  12.096   4.636   7.632
88612SOL    HW267734  12.121   4.625   7.483
88613SOL     OW67735   2.288   2.639  11.804
88613SOL    HW167736   2.275   2.581  11.728
88613SOL    HW267737   2.380   2.665  11.799
88614SOL     OW67738   0.684   2.120  11.216
88614SOL    HW167739   0.620   2.057  11.250
88614SOL    HW267740   0.739   2.140  11.292
88615SOL     OW67741   6.245   6.665   9.971
88615SOL    HW167742   6.270   6.684  10.061
88615SOL    HW267743   6.183   6.735   9.948
88616SOL     OW67744   8.185  13.292   0.393
88616SOL    HW167745   8.232  13.308   0.475
88616SOL    HW267746   8.246  13.239   0.341
88617SOL     OW67747  13.136   9.671   4.684
88617SOL    HW167748  13.227   9.682   4.713
88617SOL    HW267749  13.136   9.702   4.593
88618SOL     OW67750  10.016  12.765  10.921
88618SOL    HW167751   9.974  12.736  11.002
88618SOL    HW267752   9.977  12.709  10.853
88619SOL     OW67753   0.419  10.113  10.543
88619SOL    HW167754   0.494  10.110  10.484
88619SOL    HW267755   0.449  10.069  10.623
88620SOL     OW67756   8.669   4.316  11.193
88620SOL    HW167757   8.712   4.387  11.240
88620SOL    HW267758   8.732   4.291  11.125
88621SOL     OW67759   2.441   2.058   7.538
88621SOL    HW167760   2.406   1.987   7.485
88621SOL    HW267761   2.378   2.069   7.610
88622SOL     OW67762   3.073   4.806   7.255
88622SOL    HW167763   3.065   4.885   7.202
88622SOL    HW267764   3.111   4.835   7.338
88623SOL     OW67765   9.654  10.224   3.856
88623SOL    HW167766   9.737  10.191   3.889
88623SOL    HW267767   9.667  10.234   3.762
88624SOL     OW67768  13.567   5.799   3.195
88624SOL    HW167769  13.480   5.792   3.234
88624SOL    HW267770  13.549   5.824   3.104
88625SOL     OW67771   6.374  14.402   7.645
88625SOL    HW167772   6.431  14.342   7.693
88625SOL    HW267773   6.429  14.479   7.630
88626SOL     OW67774   9.587   0.606   2.263
88626SOL    HW167775   9.611   0.649   2.345
88626SOL    HW267776   9.635   0.523   2.264
88627SOL     OW67777   2.786   6.558   6.093
88627SOL    HW167778   2.697   6.524   6.095
88627SOL    HW267779   2.815   6.545   6.002
88628SOL     OW67780   5.556   3.588   9.667
88628SOL    HW167781   5.520   3.500   9.662
88628SOL    HW267782   5.493   3.643   9.620
88629SOL     OW67783   3.003   7.762   8.738
88629SOL    HW167784   3.070   7.827   8.717
88629SOL    HW267785   2.921   7.803   8.711
88630SOL     OW67786   4.834   3.410   5.236
88630SOL    HW167787   4.788   3.439   5.314
88630SOL    HW267788   4.919   3.454   5.240
88631SOL     OW67789   5.099   0.046  10.121
88631SOL    HW167790   5.060   0.039  10.034
88631SOL    HW267791   5.094  14.840  10.158
88632SOL     OW67792  11.316   2.131   1.938
88632SOL    HW167793  11.237   2.106   1.986
88632SOL    HW267794  11.384   2.071   1.971
88633SOL     OW67795  14.425  12.674  14.286
88633SOL    HW167796  14.501  12.623  14.258
88633SOL    HW267797  14.438  12.760  14.247
88634SOL     OW67798  13.215  10.774   9.609
88634SOL    HW167799  13.285  10.746   9.668
88634SOL    HW267800  13.186  10.858   9.645
88635SOL     OW67801  11.733   1.478   5.296
88635SOL    HW167802  11.646   1.518   5.297
88635SOL    HW267803  11.791   1.547   5.266
88636SOL     OW67804   1.621  10.093   0.589
88636SOL    HW167805   1.536  10.051   0.599
88636SOL    HW267806   1.652  10.106   0.678
88637SOL     OW67807  10.538  13.260   1.788
88637SOL    HW167808  10.455  13.276   1.833
88637SOL    HW267809  10.532  13.313   1.709
88638SOL     OW67810   2.141   7.579   7.389
88638SOL    HW167811   2.168   7.634   7.463
88638SOL    HW267812   2.220   7.573   7.334
88639SOL     OW67813  12.344   4.362   5.986
88639SOL    HW167814  12.249   4.371   5.976
88639SOL    HW267815  12.356   4.328   6.074
88640SOL     OW67816   0.827   5.358   0.002
88640SOL    HW167817   0.849   5.269  14.858
88640SOL    HW267818   0.872   5.371   0.086
88641SOL     OW67819   1.343   7.244   9.056
88641SOL    HW167820   1.342   7.328   9.009
88641SOL    HW267821   1.265   7.246   9.111
88642SOL     OW67822  11.851   9.357   6.100
88642SOL    HW167823  11.803   9.416   6.158
88642SOL    HW267824  11.939   9.395   6.096
88643SOL     OW67825  11.488   6.939   9.105
88643SOL    HW167826  11.415   6.890   9.143
88643SOL    HW267827  11.447   7.008   9.054
88644SOL     OW67828  11.458   0.561   4.521
88644SOL    HW167829  11.481   0.553   4.614
88644SOL    HW267830  11.526   0.616   4.484
88645SOL     OW67831  14.575  14.084  10.054
88645SOL    HW167832  14.569  14.040   9.969
88645SOL    HW267833  14.484  14.099  10.080
88646SOL     OW67834   7.961   1.330   6.701
88646SOL    HW167835   7.983   1.419   6.675
88646SOL    HW267836   8.004   1.274   6.637
88647SOL     OW67837   5.586   8.188   5.862
88647SOL    HW167838   5.566   8.126   5.933
88647SOL    HW267839   5.676   8.215   5.880
88648SOL     OW67840  13.476   6.086  14.730
88648SOL    HW167841  13.488   6.113  14.821
88648SOL    HW267842  13.518   6.155  14.679
88649SOL     OW67843   0.498   5.654   1.910
88649SOL    HW167844   0.516   5.591   1.841
88649SOL    HW267845   0.492   5.602   1.990
88650SOL     OW67846   8.710  11.205  13.026
88650SOL    HW167847   8.720  11.248  12.941
88650SOL    HW267848   8.795  11.165  13.043
88651SOL     OW67849  10.881   3.400   8.875
88651SOL    HW167850  10.789   3.376   8.860
88651SOL    HW267851  10.883   3.495   8.863
88652SOL     OW67852   3.570   7.265   9.698
88652SOL    HW167853   3.628   7.331   9.660
88652SOL    HW267854   3.629   7.203   9.741
88653SOL     OW67855  11.542  10.537  12.833
88653SOL    HW167856  11.619  10.588  12.807
88653SOL    HW267857  11.534  10.469  12.765
88654SOL     OW67858   9.299  13.577   3.143
88654SOL    HW167859   9.321  13.601   3.233
88654SOL    HW267860   9.332  13.651   3.090
88655SOL     OW67861   3.871  11.145   9.124
88655SOL    HW167862   3.894  11.176   9.212
88655SOL    HW267863   3.775  11.153   9.121
88656SOL     OW67864  10.800   6.262   6.587
88656SOL    HW167865  10.834   6.280   6.675
88656SOL    HW267866  10.729   6.199   6.602
88657SOL     OW67867   7.864   7.632   9.244
88657SOL    HW167868   7.783   7.634   9.193
88657SOL    HW267869   7.873   7.540   9.270
88658SOL     OW67870   0.143   0.112   9.103
88658SOL    HW167871   0.063   0.153   9.136
88658SOL    HW267872   0.175   0.060   9.177
88659SOL     OW67873   7.174  11.064   5.497
88659SOL    HW167874   7.103  11.007   5.468
88659SOL    HW267875   7.253  11.012   5.484
88660SOL     OW67876   5.394   3.585   4.002
88660SOL    HW167877   5.362   3.661   3.953
88660SOL    HW267878   5.470   3.555   3.953
88661SOL     OW67879  14.047  10.818   5.902
88661SOL    HW167880  13.976  10.757   5.883
88661SOL    HW267881  14.088  10.784   5.981
88662SOL     OW67882   9.192   4.151   1.226
88662SOL    HW167883   9.225   4.109   1.306
88662SOL    HW267884   9.233   4.102   1.155
88663SOL     OW67885  13.049   4.943  10.413
88663SOL    HW167886  13.132   4.948  10.460
88663SOL    HW267887  13.074   4.926  10.322
88664SOL     OW67888  12.094   7.497  14.780
88664SOL    HW167889  12.053   7.425  14.732
88664SOL    HW267890  12.186   7.473  14.785
88665SOL     OW67891   1.698  14.043   2.993
88665SOL    HW167892   1.712  14.017   3.084
88665SOL    HW267893   1.725  13.967   2.942
88666SOL     OW67894   6.456   7.692   2.497
88666SOL    HW167895   6.402   7.767   2.520
88666SOL    HW267896   6.488   7.711   2.408
88667SOL     OW67897   1.490   9.328   9.151
88667SOL    HW167898   1.586   9.330   9.150
88667SOL    HW267899   1.464   9.393   9.085
88668SOL     OW67900   8.246   2.628   1.053
88668SOL    HW167901   8.262   2.658   1.142
88668SOL    HW267902   8.307   2.680   1.000
88669SOL     OW67903   7.591   5.889  10.313
88669SOL    HW167904   7.640   5.908  10.393
88669SOL    HW267905   7.578   5.975  10.272
88670SOL     OW67906  14.241  10.178  10.100
88670SOL    HW167907  14.237  10.157  10.194
88670SOL    HW267908  14.150  10.175  10.071
88671SOL     OW67909   7.658   7.995   1.960
88671SOL    HW167910   7.569   7.960   1.963
88671SOL    HW267911   7.647   8.089   1.971
88672SOL     OW67912  10.543   4.971   8.300
88672SOL    HW167913  10.549   4.879   8.326
88672SOL    HW267914  10.633   4.997   8.279
88673SOL     OW67915   0.678  13.623  10.543
88673SOL    HW167916   0.751  13.660  10.592
88673SOL    HW267917   0.643  13.553  10.600
88674SOL     OW67918   5.375   4.928   0.371
88674SOL    HW167919   5.439   4.882   0.426
88674SOL    HW267920   5.346   5.001   0.426
88675SOL     OW67921   3.064   3.081   0.603
88675SOL    HW167922   3.116   3.001   0.615
88675SOL    HW267923   2.984   3.065   0.653
88676SOL     OW67924   2.582   2.680  12.180
88676SOL    HW167925   2.556   2.723  12.262
88676SOL    HW267926   2.559   2.744  12.112
88677SOL     OW67927   2.857   0.816  13.772
88677SOL    HW167928   2.852   0.792  13.680
88677SOL    HW267929   2.768   0.804  13.805
88678SOL     OW67930  12.255  14.796   4.901
88678SOL    HW167931  12.345  14.776   4.927
88678SOL    HW267932  12.225  14.861   4.964
88679SOL     OW67933  10.037   8.311   7.609
88679SOL    HW167934   9.999   8.350   7.687
88679SOL    HW267935  10.068   8.225   7.637
88680SOL     OW67936   5.185   4.275   2.673
88680SOL    HW167937   5.136   4.269   2.755
88680SOL    HW267938   5.266   4.227   2.690
88681SOL     OW67939   2.160  13.203   4.198
88681SOL    HW167940   2.102  13.219   4.123
88681SOL    HW267941   2.247  13.225   4.165
88682SOL     OW67942   4.269  11.850  12.966
88682SOL    HW167943   4.250  11.942  12.983
88682SOL    HW267944   4.360  11.839  12.994
88683SOL     OW67945   0.573   2.862  13.965
88683SOL    HW167946   0.580   2.832  14.056
88683SOL    HW267947   0.577   2.782  13.913
88684SOL     OW67948   5.874  10.549  11.197
88684SOL    HW167949   5.948  10.608  11.187
88684SOL    HW267950   5.823  10.587  11.268
88685SOL     OW67951  10.307  12.756   7.699
88685SOL    HW167952  10.265  12.813   7.764
88685SOL    HW267953  10.327  12.815   7.626
88686SOL     OW67954   4.782  11.016   4.935
88686SOL    HW167955   4.822  10.974   5.011
88686SOL    HW267956   4.693  10.982   4.934
88687SOL     OW67957   3.297   2.770  13.107
88687SOL    HW167958   3.319   2.863  13.116
88687SOL    HW267959   3.380   2.727  13.086
88688SOL     OW67960   1.852  11.971  14.746
88688SOL    HW167961   1.803  12.051  14.725
88688SOL    HW267962   1.860  11.973  14.841
88689SOL     OW67963  14.670   4.204   0.245
88689SOL    HW167964  14.755   4.248   0.249
88689SOL    HW267965  14.648   4.204   0.152
88690SOL     OW67966   6.329   4.442   7.007
88690SOL    HW167967   6.309   4.487   6.925
88690SOL    HW267968   6.410   4.394   6.988
88691SOL     OW67969   1.672   7.563  12.920
88691SOL    HW167970   1.685   7.650  12.883
88691SOL    HW267971   1.619   7.578  12.999
88692SOL     OW67972   4.352  10.362  13.456
88692SOL    HW167973   4.324  10.300  13.388
88692SOL    HW267974   4.311  10.330  13.536
88693SOL     OW67975  14.030   5.912   5.710
88693SOL    HW167976  14.026   5.951   5.623
88693SOL    HW267977  14.102   5.850   5.705
88694SOL     OW67978   5.440   3.660   6.148
88694SOL    HW167979   5.391   3.633   6.225
88694SOL    HW267980   5.519   3.702   6.183
88695SOL     OW67981   2.768   4.106   9.217
88695SOL    HW167982   2.719   4.171   9.167
88695SOL    HW267983   2.833   4.156   9.265
88696SOL     OW67984  12.359   4.927   4.461
88696SOL    HW167985  12.373   4.840   4.497
88696SOL    HW267986  12.403   4.986   4.522
88697SOL     OW67987   6.844   6.754   9.269
88697SOL    HW167988   6.780   6.813   9.231
88697SOL    HW267989   6.822   6.668   9.233
88698SOL     OW67990   5.951   0.240   8.405
88698SOL    HW167991   5.866   0.277   8.430
88698SOL    HW267992   5.929   0.153   8.372
88699SOL     OW67993   6.988  13.221   5.349
88699SOL    HW167994   7.045  13.298   5.346
88699SOL    HW267995   6.951  13.215   5.262
88700SOL     OW67996   9.656   9.676  10.452
88700SOL    HW167997   9.584   9.739  10.460
88700SOL    HW267998   9.613   9.592  10.436
88701SOL     OW67999  11.767  10.703   2.860
88701SOL    HW168000  11.797  10.788   2.893
88701SOL    HW268001  11.749  10.718   2.767
88702SOL     OW68002  10.132  14.585   5.268
88702SOL    HW168003  10.130  14.602   5.363
88702SOL    HW268004  10.113  14.670   5.229
88703SOL     OW68005   7.056   2.691   5.476
88703SOL    HW168006   7.010   2.653   5.551
88703SOL    HW268007   7.149   2.682   5.498
88704SOL     OW68008  14.163   7.931   5.864
88704SOL    HW168009  14.181   7.841   5.836
88704SOL    HW268010  14.203   7.986   5.795
88705SOL     OW68011  14.365   2.847  12.092
88705SOL    HW168012  14.428   2.844  12.164
88705SOL    HW268013  14.377   2.765  12.045
88706SOL     OW68014  13.256   5.349  12.801
88706SOL    HW168015  13.306   5.322  12.879
88706SOL    HW268016  13.211   5.270  12.773
88707SOL     OW68017   8.490   0.242   0.866
88707SOL    HW168018   8.575   0.259   0.907
88707SOL    HW268019   8.511   0.213   0.778
88708SOL     OW68020  13.122   0.760  13.713
88708SOL    HW168021  13.057   0.706  13.667
88708SOL    HW268022  13.187   0.781  13.646
88709SOL     OW68023   5.934  12.737  12.906
88709SOL    HW168024   5.878  12.794  12.959
88709SOL    HW268025   5.876  12.706  12.836
88710SOL     OW68026  12.520   8.230   3.187
88710SOL    HW168027  12.602   8.271   3.216
88710SOL    HW268028  12.475   8.299   3.138
88711SOL     OW68029  10.797   4.958   5.371
88711SOL    HW168030  10.855   4.925   5.302
88711SOL    HW268031  10.808   4.896   5.443
88712SOL     OW68032   1.811  13.545  13.567
88712SOL    HW168033   1.745  13.613  13.553
88712SOL    HW268034   1.868  13.550  13.490
88713SOL     OW68035   1.114  14.552  14.158
88713SOL    HW168036   1.094  14.570  14.250
88713SOL    HW268037   1.074  14.624  14.110
88714SOL     OW68038   6.430   0.168  13.996
88714SOL    HW168039   6.490   0.102  13.961
88714SOL    HW268040   6.414   0.140  14.087
88715SOL     OW68041  14.435   1.838   6.289
88715SOL    HW168042  14.421   1.787   6.209
88715SOL    HW268043  14.487   1.781   6.345
88716SOL     OW68044  13.485   7.418   2.687
88716SOL    HW168045  13.467   7.512   2.678
88716SOL    HW268046  13.543   7.412   2.763
88717SOL     OW68047   4.125  14.881   1.912
88717SOL    HW168048   4.089   0.001   2.001
88717SOL    HW268049   4.123  14.788   1.888
88718SOL     OW68050   1.696   6.847  13.552
88718SOL    HW168051   1.639   6.896  13.611
88718SOL    HW268052   1.653   6.762  13.543
88719SOL     OW68053   5.092   1.192  10.840
88719SOL    HW168054   5.094   1.124  10.773
88719SOL    HW268055   5.106   1.146  10.922
88720SOL     OW68056   5.491   5.155   3.471
88720SOL    HW168057   5.578   5.162   3.509
88720SOL    HW268058   5.500   5.092   3.400
88721SOL     OW68059   5.511   0.482  13.552
88721SOL    HW168060   5.538   0.573  13.547
88721SOL    HW268061   5.540   0.443  13.470
88722SOL     OW68062   4.983   6.655  12.530
88722SOL    HW168063   4.899   6.685  12.494
88722SOL    HW268064   5.043   6.656  12.456
88723SOL     OW68065  11.096  12.832   4.780
88723SOL    HW168066  11.016  12.850   4.731
88723SOL    HW268067  11.148  12.912   4.772
88724SOL     OW68068   0.046   1.653   6.469
88724SOL    HW168069   0.005   1.593   6.531
88724SOL    HW268070  14.859   1.715   6.445
88725SOL     OW68071   4.355   3.391   4.675
88725SOL    HW168072   4.377   3.484   4.685
88725SOL    HW268073   4.431   3.345   4.710
88726SOL     OW68074  13.148  11.022   8.556
88726SOL    HW168075  13.057  11.009   8.531
88726SOL    HW268076  13.143  11.054   8.646
88727SOL     OW68077  12.492   1.384   3.248
88727SOL    HW168078  12.449   1.356   3.167
88727SOL    HW268079  12.561   1.443   3.220
88728SOL     OW68080  10.932   1.606   3.738
88728SOL    HW168081  11.001   1.610   3.672
88728SOL    HW268082  10.910   1.513   3.745
88729SOL     OW68083  12.390  11.365  11.628
88729SOL    HW168084  12.346  11.363  11.543
88729SOL    HW268085  12.418  11.456  11.639
88730SOL     OW68086  13.206   6.033   4.948
88730SOL    HW168087  13.277   5.968   4.941
88730SOL    HW268088  13.187   6.056   4.857
88731SOL     OW68089  11.038  12.276   5.798
88731SOL    HW168090  11.041  12.366   5.764
88731SOL    HW268091  11.117  12.268   5.851
88732SOL     OW68092  10.794   1.255  14.492
88732SOL    HW168093  10.767   1.163  14.490
88732SOL    HW268094  10.852   1.265  14.416
88733SOL     OW68095  12.067   6.774   1.619
88733SOL    HW168096  12.026   6.790   1.704
88733SOL    HW268097  12.161   6.771   1.638
88734SOL     OW68098   6.918   1.235   5.187
88734SOL    HW168099   7.000   1.207   5.227
88734SOL    HW268100   6.854   1.171   5.216
88735SOL     OW68101  14.217   4.268  11.768
88735SOL    HW168102  14.258   4.217  11.699
88735SOL    HW268103  14.126   4.277  11.740
88736SOL     OW68104   6.900   0.070   9.492
88736SOL    HW168105   6.959   0.000   9.519
88736SOL    HW268106   6.928   0.146   9.542
88737SOL     OW68107   8.329  11.245  10.631
88737SOL    HW168108   8.239  11.234  10.662
88737SOL    HW268109   8.379  11.268  10.709
88738SOL     OW68110   9.284   5.592  13.921
88738SOL    HW168111   9.347   5.520  13.924
88738SOL    HW268112   9.332   5.664  13.880
88739SOL     OW68113  11.180   0.071   1.575
88739SOL    HW168114  11.137   0.118   1.504
88739SOL    HW268115  11.165   0.125   1.652
88740SOL     OW68116   4.874   8.148  12.730
88740SOL    HW168117   4.912   8.227  12.694
88740SOL    HW268118   4.920   8.076  12.685
88741SOL     OW68119   7.068   0.404  11.728
88741SOL    HW168120   7.076   0.462  11.652
88741SOL    HW268121   6.986   0.430  11.769
88742SOL     OW68122   0.952   1.171  10.862
88742SOL    HW168123   0.910   1.149  10.944
88742SOL    HW268124   1.023   1.231  10.886
88743SOL     OW68125   6.539   9.726   9.421
88743SOL    HW168126   6.539   9.635   9.449
88743SOL    HW268127   6.525   9.776   9.502
88744SOL     OW68128   7.971   6.424  11.526
88744SOL    HW168129   7.896   6.430  11.585
88744SOL    HW268130   7.999   6.333  11.531
88745SOL     OW68131   5.796  13.441   8.427
88745SOL    HW168132   5.729  13.461   8.362
88745SOL    HW268133   5.748  13.405   8.501
88746SOL     OW68134   1.604   0.105  11.275
88746SOL    HW168135   1.594   0.185  11.223
88746SOL    HW268136   1.661   0.131  11.347
88747SOL     OW68137   2.336  10.932   2.618
88747SOL    HW168138   2.285  10.866   2.572
88747SOL    HW268139   2.369  10.887   2.696
88748SOL     OW68140  12.034   7.009   6.717
88748SOL    HW168141  11.974   6.954   6.767
88748SOL    HW268142  11.989   7.026   6.634
88749SOL     OW68143  11.079   9.022   5.424
88749SOL    HW168144  11.018   9.093   5.406
88749SOL    HW268145  11.028   8.958   5.474
88750SOL     OW68146  12.063  11.260   1.549
88750SOL    HW168147  12.010  11.289   1.623
88750SOL    HW268148  12.151  11.292   1.568
88751SOL     OW68149   2.853   5.556   5.843
88751SOL    HW168150   2.932   5.556   5.897
88751SOL    HW268151   2.804   5.479   5.872
88752SOL     OW68152  14.210   5.985   8.394
88752SOL    HW168153  14.158   5.968   8.472
88752SOL    HW268154  14.247   5.899   8.370
88753SOL     OW68155   7.286   6.327   6.454
88753SOL    HW168156   7.332   6.284   6.382
88753SOL    HW268157   7.211   6.370   6.413
88754SOL     OW68158  14.376  13.393   6.819
88754SOL    HW168159  14.426  13.402   6.737
88754SOL    HW268160  14.399  13.306   6.851
88755SOL     OW68161   8.115   6.821   7.922
88755SOL    HW168162   8.151   6.740   7.958
88755SOL    HW268163   8.115   6.882   7.996
88756SOL     OW68164  12.579  14.002   4.743
88756SOL    HW168165  12.536  13.920   4.765
88756SOL    HW268166  12.671  13.988   4.762
88757SOL     OW68167  13.372  10.334   2.198
88757SOL    HW168168  13.444  10.396   2.212
88757SOL    HW268169  13.410  10.267   2.141
88758SOL     OW68170  13.016  12.994  10.402
88758SOL    HW168171  12.956  13.000  10.477
88758SOL    HW268172  13.054  12.906  10.410
88759SOL     OW68173   3.908   8.479  13.272
88759SOL    HW168174   3.986   8.471  13.326
88759SOL    HW268175   3.939   8.521  13.191
88760SOL     OW68176  10.476   7.819   4.876
88760SOL    HW168177  10.410   7.871   4.922
88760SOL    HW268178  10.456   7.729   4.900
88761SOL     OW68179  10.888   3.680   8.878
88761SOL    HW168180  10.841   3.729   8.811
88761SOL    HW268181  10.889   3.738   8.954
88762SOL     OW68182  12.371   5.273   0.127
88762SOL    HW168183  12.315   5.257   0.204
88762SOL    HW268184  12.336   5.354   0.089
88763SOL     OW68185   5.186  12.124   2.318
88763SOL    HW168186   5.113  12.162   2.368
88763SOL    HW268187   5.144  12.078   2.246
88764SOL     OW68188   8.454  10.227   9.780
88764SOL    HW168189   8.542  10.218   9.743
88764SOL    HW268190   8.445  10.151   9.839
88765SOL     OW68191   5.458  11.574   8.785
88765SOL    HW168192   5.465  11.668   8.765
88765SOL    HW268193   5.547  11.548   8.808
88766SOL     OW68194  12.366   2.634  10.322
88766SOL    HW168195  12.405   2.722  10.322
88766SOL    HW268196  12.431   2.579  10.366
88767SOL     OW68197   2.610  14.072   5.700
88767SOL    HW168198   2.522  14.039   5.681
88767SOL    HW268199   2.605  14.103   5.790
88768SOL     OW68200   8.680   3.675   1.941
88768SOL    HW168201   8.762   3.724   1.930
88768SOL    HW268202   8.617   3.723   1.887
88769SOL     OW68203   6.009   2.515   2.702
88769SOL    HW168204   6.083   2.570   2.676
88769SOL    HW268205   5.939   2.537   2.640
88770SOL     OW68206   4.812  12.819   1.961
88770SOL    HW168207   4.804  12.875   2.038
88770SOL    HW268208   4.898  12.841   1.924
88771SOL     OW68209   6.060   3.563   4.169
88771SOL    HW168210   6.018   3.491   4.216
88771SOL    HW268211   6.115   3.520   4.104
88772SOL     OW68212  11.695   7.200   3.654
88772SOL    HW168213  11.628   7.250   3.608
88772SOL    HW268214  11.647   7.138   3.708
88773SOL     OW68215   9.919   6.637  14.096
88773SOL    HW168216   9.987   6.675  14.040
88773SOL    HW268217   9.882   6.712  14.143
88774SOL     OW68218  12.103   4.791   4.302
88774SOL    HW168219  12.134   4.701   4.313
88774SOL    HW268220  12.156   4.842   4.364
88775SOL     OW68221   7.930  12.534   8.540
88775SOL    HW168222   7.863  12.594   8.508
88775SOL    HW268223   8.012  12.580   8.527
88776SOL     OW68224   6.210   4.122   5.611
88776SOL    HW168225   6.175   4.109   5.523
88776SOL    HW268226   6.248   4.037   5.635
88777SOL     OW68227  11.627   1.387   8.470
88777SOL    HW168228  11.538   1.402   8.439
88777SOL    HW268229  11.625   1.409   8.563
88778SOL     OW68230   4.201   6.595  10.984
88778SOL    HW168231   4.145   6.554  10.918
88778SOL    HW268232   4.223   6.525  11.044
88779SOL     OW68233  12.972   6.838   0.123
88779SOL    HW168234  12.896   6.892   0.146
88779SOL    HW268235  12.965   6.826   0.028
88780SOL     OW68236  10.173   0.946   8.104
88780SOL    HW168237  10.115   0.912   8.172
88780SOL    HW268238  10.226   0.871   8.077
88781SOL     OW68239  11.521   3.114   0.676
88781SOL    HW168240  11.517   3.209   0.685
88781SOL    HW268241  11.535   3.082   0.765
88782SOL     OW68242   8.791  11.581  10.830
88782SOL    HW168243   8.794  11.648  10.762
88782SOL    HW268244   8.701  11.550  10.830
88783SOL     OW68245   0.020  10.780  10.898
88783SOL    HW168246   0.115  10.775  10.898
88783SOL    HW268247  14.874  10.699  10.941
88784SOL     OW68248   1.212   8.312   6.898
88784SOL    HW168249   1.265   8.315   6.978
88784SOL    HW268250   1.269   8.273   6.832
88785SOL     OW68251  12.505   1.746   0.166
88785SOL    HW168252  12.519   1.812   0.098
88785SOL    HW268253  12.419   1.766   0.202
88786SOL     OW68254  12.169  12.254  10.043
88786SOL    HW168255  12.244  12.195  10.039
88786SOL    HW268256  12.094  12.198  10.024
88787SOL     OW68257  10.836  10.276   0.135
88787SOL    HW168258  10.926  10.308   0.147
88787SOL    HW268259  10.798  10.336   0.072
88788SOL     OW68260  12.655  10.458  11.832
88788SOL    HW168261  12.661  10.521  11.904
88788SOL    HW268262  12.581  10.488  11.779
88789SOL     OW68263   8.418   2.387  14.222
88789SOL    HW168264   8.445   2.468  14.266
88789SOL    HW268265   8.499   2.353  14.183
88790SOL     OW68266   7.845   0.477   8.513
88790SOL    HW168267   7.850   0.532   8.434
88790SOL    HW268268   7.914   0.412   8.500
88791SOL     OW68269  14.718   2.219   3.572
88791SOL    HW168270  14.626   2.212   3.549
88791SOL    HW268271  14.764   2.223   3.487
88792SOL     OW68272  11.078  11.288  12.478
88792SOL    HW168273  11.111  11.343  12.407
88792SOL    HW268274  11.104  11.334  12.558
88793SOL     OW68275   1.449  13.376   5.518
88793SOL    HW168276   1.531  13.412   5.484
88793SOL    HW268277   1.463  13.281   5.518
88794SOL     OW68278   3.093   3.205  13.269
88794SOL    HW168279   3.075   3.212  13.362
88794SOL    HW268280   3.128   3.117  13.257
88795SOL     OW68281   0.058  11.750  11.997
88795SOL    HW168282   0.138  11.732  11.947
88795SOL    HW268283   0.081  11.729  12.087
88796SOL     OW68284   5.265   8.364  13.637
88796SOL    HW168285   5.351   8.351  13.679
88796SOL    HW268286   5.227   8.439  13.683
88797SOL     OW68287   3.449   7.857   6.210
88797SOL    HW168288   3.464   7.923   6.142
88797SOL    HW268289   3.502   7.886   6.284
88798SOL     OW68290  13.505  11.082   3.306
88798SOL    HW168291  13.516  11.000   3.258
88798SOL    HW268292  13.423  11.070   3.354
88799SOL     OW68293   2.245   9.890   2.314
88799SOL    HW168294   2.191   9.869   2.390
88799SOL    HW268295   2.208   9.838   2.243
88800SOL     OW68296   7.950   9.433  12.478
88800SOL    HW168297   8.028   9.380  12.466
88800SOL    HW268298   7.984   9.521  12.495
88801SOL     OW68299   7.337   9.793   6.802
88801SOL    HW168300   7.250   9.815   6.770
88801SOL    HW268301   7.354   9.706   6.766
88802SOL     OW68302  12.608   1.922   6.677
88802SOL    HW168303  12.535   1.972   6.640
88802SOL    HW268304  12.566   1.865   6.742
88803SOL     OW68305   8.875  10.473  13.964
88803SOL    HW168306   8.891  10.384  13.932
88803SOL    HW268307   8.962  10.511  13.972
88804SOL     OW68308  14.184   2.181  12.697
88804SOL    HW168309  14.126   2.241  12.744
88804SOL    HW268310  14.125   2.116  12.659
88805SOL     OW68311   8.953   6.520  11.330
88805SOL    HW168312   9.035   6.550  11.292
88805SOL    HW268313   8.969   6.428  11.352
88806SOL     OW68314   6.693   7.459  14.548
88806SOL    HW168315   6.687   7.369  14.517
88806SOL    HW268316   6.649   7.457  14.633
88807SOL     OW68317   9.481  11.377   4.047
88807SOL    HW168318   9.541  11.336   3.985
88807SOL    HW268319   9.439  11.304   4.093
88808SOL     OW68320   2.630   2.082   0.480
88808SOL    HW168321   2.587   2.088   0.565
88808SOL    HW268322   2.673   1.996   0.480
88809SOL     OW68323   6.365   5.118   9.085
88809SOL    HW168324   6.410   5.040   9.051
88809SOL    HW268325   6.317   5.152   9.009
88810SOL     OW68326  12.703   3.190  14.377
88810SOL    HW168327  12.713   3.229  14.464
88810SOL    HW268328  12.770   3.121  14.374
88811SOL     OW68329   1.840   2.863   6.375
88811SOL    HW168330   1.870   2.806   6.303
88811SOL    HW268331   1.895   2.837   6.450
88812SOL     OW68332   9.595   2.902  13.115
88812SOL    HW168333   9.566   2.818  13.152
88812SOL    HW268334   9.565   2.901  13.024
88813SOL     OW68335  14.395   5.338   6.373
88813SOL    HW168336  14.327   5.281   6.339
88813SOL    HW268337  14.477   5.298   6.345
88814SOL     OW68338   1.239   0.086  10.779
88814SOL    HW168339   1.199   0.170  10.803
88814SOL    HW268340   1.329   0.093  10.811
88815SOL     OW68341   7.041   6.918   0.888
88815SOL    HW168342   7.120   6.930   0.834
88815SOL    HW268343   6.971   6.958   0.837
88816SOL     OW68344   6.840   0.980  12.548
88816SOL    HW168345   6.882   0.904  12.506
88816SOL    HW268346   6.840   1.048  12.481
88817SOL     OW68347   3.213   4.994   9.873
88817SOL    HW168348   3.280   4.966   9.935
88817SOL    HW268349   3.145   5.034   9.927
88818SOL     OW68350   2.240   4.799  13.781
88818SOL    HW168351   2.162   4.744  13.774
88818SOL    HW268352   2.312   4.737  13.795
88819SOL     OW68353   6.658   1.342   6.899
88819SOL    HW168354   6.650   1.253   6.863
88819SOL    HW268355   6.704   1.391   6.832
88820SOL     OW68356  12.952  11.051   7.126
88820SOL    HW168357  12.982  11.135   7.161
88820SOL    HW268358  12.859  11.048   7.147
88821SOL     OW68359   2.764   4.507  13.695
88821SOL    HW168360   2.721   4.433  13.737
88821SOL    HW268361   2.704   4.534  13.626
88822SOL     OW68362   4.207   7.296  13.894
88822SOL    HW168363   4.215   7.277  13.988
88822SOL    HW268364   4.112   7.300  13.878
88823SOL     OW68365   3.656  13.330   5.014
88823SOL    HW168366   3.748  13.339   4.989
88823SOL    HW268367   3.654  13.353   5.107
88824SOL     OW68368   9.088   3.951   7.506
88824SOL    HW168369   9.080   3.974   7.599
88824SOL    HW268370   9.094   4.036   7.461
88825SOL     OW68371   6.584   3.736   1.193
88825SOL    HW168372   6.623   3.814   1.234
88825SOL    HW268373   6.503   3.768   1.153
88826SOL     OW68374   7.087   6.858  11.086
88826SOL    HW168375   7.166   6.903  11.054
88826SOL    HW268376   7.065   6.904  11.167
88827SOL     OW68377  13.896   5.895  12.895
88827SOL    HW168378  13.873   5.871  12.984
88827SOL    HW268379  13.844   5.973  12.877
88828SOL     OW68380  12.636  13.358   2.627
88828SOL    HW168381  12.669  13.329   2.542
88828SOL    HW268382  12.701  13.422   2.657
88829SOL     OW68383  13.328   6.608   6.022
88829SOL    HW168384  13.367   6.527   6.055
88829SOL    HW268385  13.235   6.601   6.042
88830SOL     OW68386   3.560   7.896   1.763
88830SOL    HW168387   3.478   7.902   1.713
88830SOL    HW268388   3.535   7.855   1.845
88831SOL     OW68389   7.120   1.434   6.160
88831SOL    HW168390   7.026   1.435   6.179
88831SOL    HW268391   7.125   1.435   6.064
88832SOL     OW68392   5.008  12.103   3.408
88832SOL    HW168393   4.990  12.071   3.320
88832SOL    HW268394   4.937  12.068   3.461
88833SOL     OW68395   3.590  12.841  10.568
88833SOL    HW168396   3.596  12.749  10.594
88833SOL    HW268397   3.509  12.847  10.519
88834SOL     OW68398   4.179  14.761   7.382
88834SOL    HW168399   4.266  14.798   7.371
88834SOL    HW268400   4.192  14.685   7.440
88835SOL     OW68401   6.712   8.719   6.031
88835SOL    HW168402   6.694   8.674   5.948
88835SOL    HW268403   6.805   8.744   6.025
88836SOL     OW68404   4.300   3.634   6.585
88836SOL    HW168405   4.324   3.549   6.550
88836SOL    HW268406   4.308   3.625   6.680
88837SOL     OW68407  10.648   4.657   7.329
88837SOL    HW168408  10.653   4.722   7.259
88837SOL    HW268409  10.721   4.597   7.310
88838SOL     OW68410   3.775  10.932  10.594
88838SOL    HW168411   3.774  10.931  10.689
88838SOL    HW268412   3.703  10.990  10.569
88839SOL     OW68413   5.738  14.718  13.469
88839SOL    HW168414   5.715  14.628  13.493
88839SOL    HW268415   5.768  14.758  13.551
88840SOL     OW68416   6.478   1.641   2.310
88840SOL    HW168417   6.526   1.564   2.338
88840SOL    HW268418   6.412   1.608   2.249
88841SOL     OW68419   2.781  12.995   2.545
88841SOL    HW168420   2.853  13.010   2.606
88841SOL    HW268421   2.781  13.072   2.489
88842SOL     OW68422   8.086  11.554  14.333
88842SOL    HW168423   8.036  11.479  14.301
88842SOL    HW268424   8.133  11.520  14.410
88843SOL     OW68425  10.579  10.829   3.336
88843SOL    HW168426  10.632  10.901   3.302
88843SOL    HW268427  10.493  10.868   3.352
88844SOL     OW68428   1.252  13.260  11.660
88844SOL    HW168429   1.219  13.289  11.745
88844SOL    HW268430   1.332  13.311  11.647
88845SOL     OW68431  14.699   3.879   3.765
88845SOL    HW168432  14.626   3.908   3.711
88845SOL    HW268433  14.771   3.939   3.743
88846SOL     OW68434   7.891   5.164  10.964
88846SOL    HW168435   7.970   5.172  11.017
88846SOL    HW268436   7.907   5.088  10.908
88847SOL     OW68437  11.389   8.886  13.359
88847SOL    HW168438  11.442   8.857  13.432
88847SOL    HW268439  11.309   8.835  13.364
88848SOL     OW68440  11.016  12.678   7.082
88848SOL    HW168441  11.008  12.763   7.125
88848SOL    HW268442  11.106  12.651   7.101
88849SOL     OW68443   1.057   0.664  11.517
88849SOL    HW168444   0.975   0.675  11.469
88849SOL    HW268445   1.032   0.663  11.609
88850SOL     OW68446   3.210  12.403   2.818
88850SOL    HW168447   3.279  12.386   2.753
88850SOL    HW268448   3.184  12.316   2.849
88851SOL     OW68449   9.186   8.984   0.918
88851SOL    HW168450   9.228   8.933   0.988
88851SOL    HW268451   9.103   9.013   0.956
88852SOL     OW68452  10.080   1.307   2.449
88852SOL    HW168453   9.997   1.341   2.484
88852SOL    HW268454  10.055   1.252   2.375
88853SOL     OW68455   9.806   3.175   8.666
88853SOL    HW168456   9.804   3.270   8.675
88853SOL    HW268457   9.877   3.157   8.604
88854SOL     OW68458  12.739   6.160  14.204
88854SOL    HW168459  12.745   6.065  14.209
88854SOL    HW268460  12.666   6.177  14.145
88855SOL     OW68461   0.291   3.142   1.426
88855SOL    HW168462   0.203   3.134   1.463
88855SOL    HW268463   0.286   3.098   1.341
88856SOL     OW68464   8.309   9.614  14.625
88856SOL    HW168465   8.288   9.531  14.669
88856SOL    HW268466   8.241   9.674  14.653
88857SOL     OW68467  10.665   3.093   9.403
88857SOL    HW168468  10.612   3.125   9.476
88857SOL    HW268469  10.652   3.158   9.334
88858SOL     OW68470   7.064   8.458  13.079
88858SOL    HW168471   7.134   8.492  13.135
88858SOL    HW268472   7.110   8.424  13.002
88859SOL     OW68473  10.547   3.454  12.914
88859SOL    HW168474  10.454   3.435  12.930
88859SOL    HW268475  10.551   3.549  12.909
88860SOL     OW68476   0.611  11.915  10.235
88860SOL    HW168477   0.564  11.833  10.246
88860SOL    HW268478   0.701  11.895  10.264
88861SOL     OW68479   2.875   9.281   2.831
88861SOL    HW168480   2.832   9.366   2.826
88861SOL    HW268481   2.941   9.283   2.762
88862SOL     OW68482  12.354   1.519   8.668
88862SOL    HW168483  12.295   1.449   8.641
88862SOL    HW268484  12.422   1.475   8.719
88863SOL     OW68485   0.563   8.844   0.667
88863SOL    HW168486   0.488   8.819   0.720
88863SOL    HW268487   0.624   8.884   0.729
88864SOL     OW68488   2.453   4.177   9.344
88864SOL    HW168489   2.457   4.224   9.261
88864SOL    HW268490   2.542   4.183   9.379
88865SOL     OW68491  13.147  10.085  14.361
88865SOL    HW168492  13.142  10.158  14.423
88865SOL    HW268493  13.073  10.029  14.385
88866SOL     OW68494   9.527  13.387   5.221
88866SOL    HW168495   9.522  13.321   5.151
88866SOL    HW268496   9.576  13.459   5.183
88867SOL     OW68497  13.484   8.039   9.650
88867SOL    HW168498  13.463   8.107   9.586
88867SOL    HW268499  13.519   8.086   9.725
88868SOL     OW68500   6.328  14.565   6.834
88868SOL    HW168501   6.271  14.638   6.810
88868SOL    HW268502   6.336  14.514   6.754
88869SOL     OW68503   7.864  12.799   6.681
88869SOL    HW168504   7.873  12.865   6.749
88869SOL    HW268505   7.778  12.760   6.697
88870SOL     OW68506  10.884   8.476   1.431
88870SOL    HW168507  10.886   8.507   1.521
88870SOL    HW268508  10.794   8.446   1.417
88871SOL     OW68509   6.023   9.117   8.040
88871SOL    HW168510   6.105   9.069   8.026
88871SOL    HW268511   5.958   9.068   7.990
88872SOL     OW68512   4.670   8.427  12.827
88872SOL    HW168513   4.626   8.351  12.864
88872SOL    HW268514   4.610   8.460  12.761
88873SOL     OW68515   1.948  13.790  10.302
88873SOL    HW168516   1.890  13.851  10.257
88873SOL    HW268517   1.931  13.805  10.395
88874SOL     OW68518   8.487   2.579   5.140
88874SOL    HW168519   8.521   2.668   5.146
88874SOL    HW268520   8.560   2.527   5.106
88875SOL     OW68521   5.474   3.061  10.669
88875SOL    HW168522   5.471   3.151  10.699
88875SOL    HW268523   5.514   3.065  10.582
88876SOL     OW68524  11.638   5.683   4.727
88876SOL    HW168525  11.651   5.777   4.739
88876SOL    HW268526  11.684   5.643   4.801
88877SOL     OW68527   7.661   8.597  14.467
88877SOL    HW168528   7.730   8.650  14.425
88877SOL    HW268529   7.584   8.653  14.467
88878SOL     OW68530   2.449  10.995   2.959
88878SOL    HW168531   2.531  10.952   2.934
88878SOL    HW268532   2.450  10.995   3.054
88879SOL     OW68533   2.472  13.853  12.777
88879SOL    HW168534   2.424  13.932  12.754
88879SOL    HW268535   2.505  13.869  12.865
88880SOL     OW68536   8.497   2.002  13.278
88880SOL    HW168537   8.557   2.028  13.348
88880SOL    HW268538   8.453   2.083  13.252
88881SOL     OW68539   1.758   3.074   5.486
88881SOL    HW168540   1.830   3.013   5.502
88881SOL    HW268541   1.790   3.158   5.521
88882SOL     OW68542  10.976   9.712   2.364
88882SOL    HW168543  10.904   9.764   2.400
88882SOL    HW268544  10.953   9.698   2.272
88883SOL     OW68545   9.925   3.714  12.442
88883SOL    HW168546   9.963   3.681  12.361
88883SOL    HW268547  10.000   3.737  12.497
88884SOL     OW68548  14.514  12.828  13.086
88884SOL    HW168549  14.468  12.859  13.007
88884SOL    HW268550  14.584  12.772  13.052
88885SOL     OW68551   2.116  14.244   3.799
88885SOL    HW168552   2.150  14.329   3.825
88885SOL    HW268553   2.134  14.238   3.705
88886SOL     OW68554   4.584  11.996   0.575
88886SOL    HW168555   4.500  11.963   0.605
88886SOL    HW268556   4.567  12.026   0.485
88887SOL     OW68557   5.816   5.253  11.804
88887SOL    HW168558   5.848   5.308  11.876
88887SOL    HW268559   5.833   5.164  11.834
88888SOL     OW68560  11.488  10.426   2.186
88888SOL    HW168561  11.577  10.417   2.219
88888SOL    HW268562  11.499  10.457   2.096
88889SOL     OW68563   2.546  14.193   1.252
88889SOL    HW168564   2.490  14.116   1.258
88889SOL    HW268565   2.635  14.159   1.257
88890SOL     OW68566   5.674   7.799   5.336
88890SOL    HW168567   5.646   7.883   5.300
88890SOL    HW268568   5.768   7.798   5.324
88891SOL     OW68569  10.470  11.964  14.606
88891SOL    HW168570  10.511  11.881  14.582
88891SOL    HW268571  10.530  12.004  14.669
88892SOL     OW68572   8.141  12.823  11.129
88892SOL    HW168573   8.060  12.844  11.084
88892SOL    HW268574   8.152  12.729  11.116
88893SOL     OW68575   7.378   7.276   8.968
88893SOL    HW168576   7.410   7.359   8.932
88893SOL    HW268577   7.292   7.298   9.005
88894SOL     OW68578   1.787   4.921   8.023
88894SOL    HW168579   1.871   4.877   8.011
88894SOL    HW268580   1.776   4.929   8.118
88895SOL     OW68581  12.006   3.303   5.251
88895SOL    HW168582  11.919   3.341   5.261
88895SOL    HW268583  12.004   3.225   5.306
88896SOL     OW68584  12.455   0.372   7.161
88896SOL    HW168585  12.519   0.406   7.098
88896SOL    HW268586  12.382   0.342   7.108
88897SOL     OW68587   3.807   6.328   8.454
88897SOL    HW168588   3.869   6.396   8.483
88897SOL    HW268589   3.853   6.246   8.471
88898SOL     OW68590  14.048   7.982   1.139
88898SOL    HW168591  13.965   7.936   1.128
88898SOL    HW268592  14.039   8.029   1.222
88899SOL     OW68593  13.174   8.419   1.919
88899SOL    HW168594  13.130   8.374   1.991
88899SOL    HW268595  13.112   8.415   1.847
88900SOL     OW68596  12.005  10.303   6.818
88900SOL    HW168597  12.038  10.219   6.786
88900SOL    HW268598  12.006  10.295   6.913
88901SOL     OW68599  10.805   3.690   2.818
88901SOL    HW168600  10.713   3.717   2.822
88901SOL    HW268601  10.807   3.620   2.753
88902SOL     OW68602   5.268   9.494  13.735
88902SOL    HW168603   5.267   9.513  13.641
88902SOL    HW268604   5.335   9.426  13.745
88903SOL     OW68605  10.556   3.315   0.352
88903SOL    HW168606  10.528   3.314   0.260
88903SOL    HW268607  10.569   3.408   0.372
88904SOL     OW68608   6.152   7.087   2.258
88904SOL    HW168609   6.067   7.056   2.290
88904SOL    HW268610   6.147   7.182   2.267
88905SOL     OW68611   5.420   2.187  10.176
88905SOL    HW168612   5.486   2.206  10.109
88905SOL    HW268613   5.336   2.206  10.133
88906SOL     OW68614   5.936   3.592  11.271
88906SOL    HW168615   5.854   3.628  11.304
88906SOL    HW268616   5.923   3.497  11.274
88907SOL     OW68617   4.550   9.219   5.222
88907SOL    HW168618   4.471   9.214   5.276
88907SOL    HW268619   4.545   9.142   5.166
88908SOL     OW68620  12.046  12.623   0.978
88908SOL    HW168621  12.126  12.669   1.004
88908SOL    HW268622  12.077  12.542   0.938
88909SOL     OW68623   5.628   8.812   5.870
88909SOL    HW168624   5.605   8.877   5.803
88909SOL    HW268625   5.554   8.814   5.931
88910SOL     OW68626   6.491   8.613   3.511
88910SOL    HW168627   6.574   8.621   3.464
88910SOL    HW268628   6.516   8.587   3.599
88911SOL     OW68629   5.052   5.867  10.511
88911SOL    HW168630   5.033   5.960  10.526
88911SOL    HW268631   5.032   5.853  10.419
88912SOL     OW68632   6.298  12.590   0.605
88912SOL    HW168633   6.288  12.685   0.603
88912SOL    HW268634   6.242  12.558   0.534
88913SOL     OW68635  14.618  13.695   3.588
88913SOL    HW168636  14.596  13.611   3.547
88913SOL    HW268637  14.628  13.674   3.681
88914SOL     OW68638   4.852   2.878   9.234
88914SOL    HW168639   4.886   2.953   9.282
88914SOL    HW268640   4.917   2.861   9.166
88915SOL     OW68641   2.136  11.864   3.676
88915SOL    HW168642   2.066  11.911   3.631
88915SOL    HW268643   2.215  11.882   3.625
88916SOL     OW68644  13.609   6.978   8.903
88916SOL    HW168645  13.613   6.985   8.808
88916SOL    HW268646  13.517   6.989   8.925
88917SOL     OW68647   9.843  13.187  14.587
88917SOL    HW168648   9.937  13.182  14.566
88917SOL    HW268649   9.841  13.192  14.682
88918SOL     OW68650  14.485  14.286  10.904
88918SOL    HW168651  14.496  14.283  10.809
88918SOL    HW268652  14.437  14.367  10.920
88919SOL     OW68653  13.519  12.194   7.975
88919SOL    HW168654  13.432  12.161   7.999
88919SOL    HW268655  13.539  12.152   7.891
88920SOL     OW68656   1.337   8.689  12.478
88920SOL    HW168657   1.310   8.739  12.554
88920SOL    HW268658   1.375   8.609  12.515
88921SOL     OW68659   6.417  14.211  11.110
88921SOL    HW168660   6.427  14.306  11.110
88921SOL    HW268661   6.351  14.193  11.176
88922SOL     OW68662  14.698   4.147   2.042
88922SOL    HW168663  14.664   4.069   2.086
88922SOL    HW268664  14.757   4.112   1.974
88923SOL     OW68665   0.147  13.174   7.102
88923SOL    HW168666   0.138  13.080   7.117
88923SOL    HW268667   0.227  13.198   7.148
88924SOL     OW68668   3.167  12.338   0.926
88924SOL    HW168669   3.191  12.288   1.005
88924SOL    HW268670   3.250  12.350   0.880
88925SOL     OW68671   0.132  11.815   4.087
88925SOL    HW168672   0.140  11.724   4.115
88925SOL    HW268673   0.200  11.827   4.022
88926SOL     OW68674   3.326  14.479  11.867
88926SOL    HW168675   3.239  14.499  11.833
88926SOL    HW268676   3.382  14.474  11.789
88927SOL     OW68677   3.322   3.263   7.547
88927SOL    HW168678   3.399   3.233   7.498
88927SOL    HW268679   3.269   3.184   7.559
88928SOL     OW68680   0.709  11.119   9.357
88928SOL    HW168681   0.716  11.024   9.356
88928SOL    HW268682   0.647  11.139   9.287
88929SOL     OW68683   5.697   6.827  13.762
88929SOL    HW168684   5.731   6.839  13.850
88929SOL    HW268685   5.744   6.751  13.728
88930SOL     OW68686   3.839   2.904  12.512
88930SOL    HW168687   3.816   2.992  12.482
88930SOL    HW268688   3.773   2.883  12.578
88931SOL     OW68689  10.755  13.949   8.220
88931SOL    HW168690  10.660  13.963   8.213
88931SOL    HW268691  10.764  13.879   8.284
88932SOL     OW68692   2.692   5.386   0.720
88932SOL    HW168693   2.705   5.412   0.629
88932SOL    HW268694   2.778   5.395   0.760
88933SOL     OW68695  11.629   1.782   7.268
88933SOL    HW168696  11.549   1.774   7.320
88933SOL    HW268697  11.615   1.722   7.194
88934SOL     OW68698   9.772  10.955  12.223
88934SOL    HW168699   9.785  10.979  12.132
88934SOL    HW268700   9.844  10.895  12.243
88935SOL     OW68701   1.755  13.448   4.406
88935SOL    HW168702   1.746  13.517   4.340
88935SOL    HW268703   1.841  13.410   4.388
88936SOL     OW68704   1.537   1.193   9.622
88936SOL    HW168705   1.482   1.268   9.600
88936SOL    HW268706   1.515   1.172   9.712
88937SOL     OW68707   2.956   2.117   6.387
88937SOL    HW168708   3.031   2.123   6.446
88937SOL    HW268709   2.940   2.023   6.377
88938SOL     OW68710   6.164  14.418   5.489
88938SOL    HW168711   6.126  14.503   5.469
88938SOL    HW268712   6.231  14.435   5.555
88939SOL     OW68713  12.503  13.019   7.826
88939SOL    HW168714  12.546  12.936   7.804
88939SOL    HW268715  12.556  13.086   7.785
88940SOL     OW68716   6.989   7.665   1.715
88940SOL    HW168717   7.052   7.638   1.648
88940SOL    HW268718   6.956   7.583   1.751
88941SOL     OW68719   3.202   4.840  11.764
88941SOL    HW168720   3.174   4.866  11.677
88941SOL    HW268721   3.298   4.833  11.758
88942SOL     OW68722   5.700   1.517  10.358
88942SOL    HW168723   5.723   1.444  10.300
88942SOL    HW268724   5.646   1.575  10.304
88943SOL     OW68725   3.550   5.448   8.838
88943SOL    HW168726   3.504   5.474   8.918
88943SOL    HW268727   3.538   5.353   8.833
88944SOL     OW68728  13.187  14.811  11.035
88944SOL    HW168729  13.238   0.009  11.027
88944SOL    HW268730  13.099  14.840  11.059
88945SOL     OW68731   8.055   7.666  13.585
88945SOL    HW168732   8.076   7.609  13.659
88945SOL    HW268733   8.136   7.672  13.535
88946SOL     OW68734   7.191   8.704   8.055
88946SOL    HW168735   7.129   8.694   8.128
88946SOL    HW268736   7.206   8.614   8.024
88947SOL     OW68737  14.024   4.244  12.500
88947SOL    HW168738  14.069   4.226  12.583
88947SOL    HW268739  13.959   4.311  12.522
88948SOL     OW68740   3.707   1.391  13.839
88948SOL    HW168741   3.754   1.312  13.813
88948SOL    HW268742   3.663   1.420  13.759
88949SOL     OW68743   8.494   6.514  10.525
88949SOL    HW168744   8.492   6.454  10.599
88949SOL    HW268745   8.428   6.478  10.464
88950SOL     OW68746   2.265   6.579   9.172
88950SOL    HW168747   2.196   6.642   9.195
88950SOL    HW268748   2.329   6.630   9.123
88951SOL     OW68749  12.725  10.547   4.446
88951SOL    HW168750  12.793  10.596   4.492
88951SOL    HW268751  12.762  10.530   4.359
88952SOL     OW68752   1.770   4.966   6.901
88952SOL    HW168753   1.801   4.885   6.943
88952SOL    HW268754   1.676   4.953   6.891
88953SOL     OW68755   4.689   9.382  12.519
88953SOL    HW168756   4.671   9.309  12.460
88953SOL    HW268757   4.778   9.409  12.498
88954SOL     OW68758  13.144  10.626  14.319
88954SOL    HW168759  13.148  10.708  14.367
88954SOL    HW268760  13.136  10.558  14.387
88955SOL     OW68761   9.600   3.595   6.802
88955SOL    HW168762   9.593   3.685   6.771
88955SOL    HW268763   9.681   3.562   6.763
88956SOL     OW68764   2.924  13.181  10.060
88956SOL    HW168765   2.937  13.090  10.035
88956SOL    HW268766   2.829  13.191  10.066
88957SOL     OW68767   9.335  12.451   6.508
88957SOL    HW168768   9.367  12.464   6.597
88957SOL    HW268769   9.324  12.356   6.499
88958SOL     OW68770  14.168   0.372   4.201
88958SOL    HW168771  14.194   0.463   4.189
88958SOL    HW268772  14.139   0.344   4.114
88959SOL     OW68773  12.594   2.260   2.350
88959SOL    HW168774  12.595   2.170   2.382
88959SOL    HW268775  12.518   2.300   2.392
88960SOL     OW68776   1.487   5.899   0.710
88960SOL    HW168777   1.566   5.922   0.758
88960SOL    HW268778   1.435   5.847   0.772
88961SOL     OW68779   8.374   5.871   2.661
88961SOL    HW168780   8.399   5.964   2.662
88961SOL    HW268781   8.437   5.830   2.602
88962SOL     OW68782  14.381   1.553   3.225
88962SOL    HW168783  14.470   1.529   3.253
88962SOL    HW268784  14.376   1.523   3.134
88963SOL     OW68785   0.460  13.788   5.580
88963SOL    HW168786   0.457  13.841   5.659
88963SOL    HW268787   0.424  13.703   5.606
88964SOL     OW68788  11.902   0.038   4.116
88964SOL    HW168789  11.963  14.856   4.081
88964SOL    HW268790  11.884   0.007   4.205
88965SOL     OW68791  11.717   5.599   9.735
88965SOL    HW168792  11.764   5.516   9.725
88965SOL    HW268793  11.780   5.656   9.779
88966SOL     OW68794   9.737   3.348   6.358
88966SOL    HW168795   9.720   3.296   6.279
88966SOL    HW268796   9.651   3.362   6.396
88967SOL     OW68797  12.615   0.515   1.857
88967SOL    HW168798  12.621   0.426   1.822
88967SOL    HW268799  12.670   0.567   1.799
88968SOL     OW68800   7.803   1.404   3.264
88968SOL    HW168801   7.793   1.359   3.180
88968SOL    HW268802   7.717   1.445   3.279
88969SOL     OW68803   0.359   5.642  12.355
88969SOL    HW168804   0.319   5.610  12.436
88969SOL    HW268805   0.286   5.643  12.292
88970SOL     OW68806   6.709   7.172   7.924
88970SOL    HW168807   6.782   7.133   7.877
88970SOL    HW268808   6.656   7.098   7.954
88971SOL     OW68809  13.397   1.939   0.047
88971SOL    HW168810  13.450   1.898   0.116
88971SOL    HW268811  13.419   2.032   0.051
88972SOL     OW68812   8.801  14.310   9.405
88972SOL    HW168813   8.756  14.341   9.327
88972SOL    HW268814   8.894  14.315   9.383
88973SOL     OW68815   2.202  11.175   0.746
88973SOL    HW168816   2.141  11.104   0.724
88973SOL    HW268817   2.193  11.237   0.673
88974SOL     OW68818   3.908   9.369   5.138
88974SOL    HW168819   3.964   9.296   5.162
88974SOL    HW268820   3.919   9.378   5.043
88975SOL     OW68821   9.968   0.183  14.741
88975SOL    HW168822   9.972   0.120  14.813
88975SOL    HW268823  10.003   0.136  14.665
88976SOL     OW68824   1.540   1.204   9.057
88976SOL    HW168825   1.591   1.182   8.979
88976SOL    HW268826   1.503   1.120   9.086
88977SOL     OW68827  12.117  14.764  12.101
88977SOL    HW168828  12.112  14.847  12.149
88977SOL    HW268829  12.028  14.730  12.103
88978SOL     OW68830   3.447   3.181  10.479
88978SOL    HW168831   3.375   3.158  10.538
88978SOL    HW268832   3.520   3.126  10.507
88979SOL     OW68833   8.409   0.432   0.123
88979SOL    HW168834   8.478   0.470   0.177
88979SOL    HW268835   8.443   0.435   0.034
88980SOL     OW68836   1.308  11.976   5.857
88980SOL    HW168837   1.360  12.005   5.782
88980SOL    HW268838   1.246  11.913   5.820
88981SOL     OW68839  13.774   6.931   2.797
88981SOL    HW168840  13.680   6.942   2.788
88981SOL    HW268841  13.800   6.876   2.723
88982SOL     OW68842  10.650  10.169  12.297
88982SOL    HW168843  10.587  10.242  12.292
88982SOL    HW268844  10.695  10.182  12.381
88983SOL     OW68845   1.402   3.749   6.889
88983SOL    HW168846   1.362   3.707   6.966
88983SOL    HW268847   1.485   3.784   6.922
88984SOL     OW68848   8.948   2.813  13.564
88984SOL    HW168849   8.966   2.719  13.556
88984SOL    HW268850   8.922   2.825  13.656
88985SOL     OW68851   1.707  13.913   2.581
88985SOL    HW168852   1.709  13.887   2.673
88985SOL    HW268853   1.701  13.830   2.533
88986SOL     OW68854  14.842   6.849   9.919
88986SOL    HW168855   0.016   6.921   9.888
88986SOL    HW268856  14.786   6.829   9.844
88987SOL     OW68857   6.455   3.410  10.052
88987SOL    HW168858   6.411   3.483  10.095
88987SOL    HW268859   6.477   3.350  10.124
88988SOL     OW68860  10.398  12.506  14.415
88988SOL    HW168861  10.447  12.442  14.466
88988SOL    HW268862  10.329  12.536  14.474
88989SOL     OW68863   5.932   3.329  13.742
88989SOL    HW168864   5.933   3.250  13.796
88989SOL    HW268865   5.938   3.401  13.806
88990SOL     OW68866  12.741   9.707  12.311
88990SOL    HW168867  12.660   9.688  12.357
88990SOL    HW268868  12.802   9.734  12.380
88991SOL     OW68869   3.587   3.551   0.922
88991SOL    HW168870   3.527   3.580   0.855
88991SOL    HW268871   3.633   3.477   0.883
88992SOL     OW68872   8.577  12.962   8.634
88992SOL    HW168873   8.590  13.035   8.695
88992SOL    HW268874   8.595  12.884   8.686
88993SOL     OW68875  14.726  10.437   3.632
88993SOL    HW168876  14.761  10.359   3.589
88993SOL    HW268877  14.743  10.507   3.569
88994SOL     OW68878  13.230   2.059   5.276
88994SOL    HW168879  13.216   2.147   5.310
88994SOL    HW268880  13.157   2.045   5.215
88995SOL     OW68881  10.997  12.576   3.158
88995SOL    HW168882  11.029  12.659   3.192
88995SOL    HW268883  10.938  12.600   3.086
88996SOL     OW68884   9.183   0.779   5.461
88996SOL    HW168885   9.089   0.780   5.480
88996SOL    HW268886   9.224   0.755   5.543
88997SOL     OW68887   7.212   9.618   6.226
88997SOL    HW168888   7.172   9.668   6.297
88997SOL    HW268889   7.148   9.624   6.154
88998SOL     OW68890   9.275   1.705   8.762
88998SOL    HW168891   9.300   1.795   8.744
88998SOL    HW268892   9.289   1.659   8.679
88999SOL     OW68893   7.470   3.500  12.362
88999SOL    HW168894   7.425   3.423  12.327
88999SOL    HW268895   7.415   3.531  12.433
89000SOL     OW68896  11.387  11.984   1.871
89000SOL    HW168897  11.311  12.040   1.864
89000SOL    HW268898  11.457  12.041   1.902
89001SOL     OW68899  14.849  10.058  14.686
89001SOL    HW168900  14.773  10.019  14.642
89001SOL    HW268901  14.853  10.148  14.653
89002SOL     OW68902   4.049  12.451   1.485
89002SOL    HW168903   4.136  12.471   1.450
89002SOL    HW268904   3.990  12.461   1.411
89003SOL     OW68905  11.227   6.362  13.461
89003SOL    HW168906  11.316   6.335  13.442
89003SOL    HW268907  11.209   6.327  13.548
89004SOL     OW68908   6.610  10.375   7.046
89004SOL    HW168909   6.692  10.337   7.075
89004SOL    HW268910   6.559  10.302   7.012
89005SOL     OW68911   1.128   6.747  14.395
89005SOL    HW168912   1.116   6.734  14.301
89005SOL    HW268913   1.168   6.666  14.426
89006SOL     OW68914   4.160  10.169   6.501
89006SOL    HW168915   4.240  10.169   6.553
89006SOL    HW268916   4.156  10.256   6.462
89007SOL     OW68917   8.532  12.583   3.915
89007SOL    HW168918   8.461  12.561   3.855
89007SOL    HW268919   8.489  12.598   3.999
89008SOL     OW68920   3.049   8.144   1.712
89008SOL    HW168921   3.134   8.178   1.685
89008SOL    HW268922   3.021   8.201   1.783
89009SOL     OW68923  13.850   1.205   2.829
89009SOL    HW168924  13.897   1.123   2.841
89009SOL    HW268925  13.803   1.195   2.746
89010SOL     OW68926   9.922  14.326   0.403
89010SOL    HW168927   9.958  14.414   0.414
89010SOL    HW268928   9.900  14.297   0.491
89011SOL     OW68929  11.545   1.214   1.632
89011SOL    HW168930  11.539   1.159   1.555
89011SOL    HW268931  11.605   1.167   1.691
89012SOL     OW68932  12.778   6.649   9.003
89012SOL    HW168933  12.687   6.635   9.028
89012SOL    HW268934  12.827   6.583   9.052
89013SOL     OW68935   9.592   8.060   8.379
89013SOL    HW168936   9.610   8.122   8.450
89013SOL    HW268937   9.532   7.996   8.418
89014SOL     OW68938  14.326   2.685   6.437
89014SOL    HW168939  14.302   2.709   6.527
89014SOL    HW268940  14.422   2.683   6.437
89015SOL     OW68941   3.579  14.178   2.155
89015SOL    HW168942   3.557  14.175   2.248
89015SOL    HW268943   3.592  14.086   2.130
89016SOL     OW68944  10.919   0.068  13.840
89016SOL    HW168945  10.895   0.125  13.766
89016SOL    HW268946  11.014   0.063  13.836
89017SOL     OW68947   5.783   4.254  12.876
89017SOL    HW168948   5.758   4.162  12.863
89017SOL    HW268949   5.863   4.264  12.824
89018SOL     OW68950   2.207  10.233   6.384
89018SOL    HW168951   2.253  10.272   6.310
89018SOL    HW268952   2.121  10.276   6.384
89019SOL     OW68953   6.230   2.109   4.834
89019SOL    HW168954   6.163   2.177   4.832
89019SOL    HW268955   6.299   2.145   4.890
89020SOL     OW68956   9.176  12.008  14.367
89020SOL    HW168957   9.148  12.001  14.276
89020SOL    HW268958   9.228  12.089  14.370
89021SOL     OW68959   7.119  14.573   3.654
89021SOL    HW168960   7.203  14.541   3.623
89021SOL    HW268961   7.116  14.551   3.746
89022SOL     OW68962  11.326  12.833  14.603
89022SOL    HW168963  11.383  12.760  14.582
89022SOL    HW268964  11.321  12.833  14.699
89023SOL     OW68965  10.002  12.738   8.704
89023SOL    HW168966  10.024  12.754   8.795
89023SOL    HW268967   9.917  12.694   8.706
89024SOL     OW68968   5.466   2.124   8.045
89024SOL    HW168969   5.431   2.068   7.976
89024SOL    HW268970   5.511   2.194   7.998
89025SOL     OW68971  10.936  12.817   9.765
89025SOL    HW168972  10.907  12.853   9.849
89025SOL    HW268973  10.891  12.870   9.699
89026SOL     OW68974   4.298   1.988   8.080
89026SOL    HW168975   4.231   1.944   8.132
89026SOL    HW268976   4.249   2.038   8.014
89027SOL     OW68977   4.986  11.178  12.878
89027SOL    HW168978   4.936  11.101  12.906
89027SOL    HW268979   4.997  11.230  12.958
89028SOL     OW68980  13.045   7.424   1.030
89028SOL    HW168981  12.976   7.483   1.000
89028SOL    HW268982  13.003   7.369   1.096
89029SOL     OW68983   9.660   6.158   3.284
89029SOL    HW168984   9.659   6.231   3.222
89029SOL    HW268985   9.752   6.134   3.292
89030SOL     OW68986   7.715  10.670   9.465
89030SOL    HW168987   7.735  10.581   9.437
89030SOL    HW268988   7.768  10.684   9.543
89031SOL     OW68989   3.197   7.297   7.834
89031SOL    HW168990   3.234   7.233   7.896
89031SOL    HW268991   3.271   7.353   7.810
89032SOL     OW68992   2.108   6.527   6.708
89032SOL    HW168993   2.165   6.479   6.769
89032SOL    HW268994   2.021   6.488   6.720
89033SOL     OW68995   3.139  11.638  13.532
89033SOL    HW168996   3.198  11.568  13.503
89033SOL    HW268997   3.149  11.707  13.466
89034SOL     OW68998   4.395   7.022   4.987
89034SOL    HW168999   4.425   7.077   4.914
89034SOL    HW269000   4.353   7.083   5.047
89035SOL     OW69001  10.504   8.221   9.061
89035SOL    HW169002  10.497   8.131   9.091
89035SOL    HW269003  10.516   8.272   9.141
89036SOL     OW69004   4.640   3.017  10.904
89036SOL    HW169005   4.586   2.961  10.849
89036SOL    HW269006   4.607   3.105  10.887
89037SOL     OW69007   6.881   9.364   0.258
89037SOL    HW169008   6.874   9.426   0.331
89037SOL    HW269009   6.797   9.318   0.258
89038SOL     OW69010  13.971   6.123   8.757
89038SOL    HW169011  13.893   6.176   8.769
89038SOL    HW269012  14.042   6.186   8.742
89039SOL     OW69013   3.556  14.593  11.329
89039SOL    HW169014   3.469  14.585  11.290
89039SOL    HW269015   3.556  14.678  11.372
89040SOL     OW69016   4.300  10.848  12.308
89040SOL    HW169017   4.314  10.757  12.335
89040SOL    HW269018   4.373  10.866  12.248
89041SOL     OW69019   1.357   7.479   8.765
89041SOL    HW169020   1.286   7.414   8.775
89041SOL    HW269021   1.397   7.458   8.681
89042SOL     OW69022  13.028  11.915   9.966
89042SOL    HW169023  13.038  11.973   9.890
89042SOL    HW269024  12.933  11.899   9.972
89043SOL     OW69025   9.949   2.048   0.485
89043SOL    HW169026   9.874   1.998   0.451
89043SOL    HW269027   9.919   2.139   0.487
89044SOL     OW69028  10.641   8.331   4.740
89044SOL    HW169029  10.585   8.406   4.760
89044SOL    HW269030  10.701   8.363   4.673
89045SOL     OW69031  14.483  13.065  11.028
89045SOL    HW169032  14.418  13.097  11.090
89045SOL    HW269033  14.534  13.143  11.004
89046SOL     OW69034   0.388  10.374   8.470
89046SOL    HW169035   0.370  10.378   8.376
89046SOL    HW269036   0.315  10.420   8.511
89047SOL     OW69037   6.564   2.129  14.830
89047SOL    HW169038   6.505   2.081  14.772
89047SOL    HW269039   6.652   2.097  14.808
89048SOL     OW69040  12.431  14.290   6.321
89048SOL    HW169041  12.515  14.329   6.346
89048SOL    HW269042  12.416  14.222   6.386
89049SOL     OW69043  10.181  10.556   3.780
89049SOL    HW169044  10.117  10.487   3.765
89049SOL    HW269045  10.213  10.579   3.692
89050SOL     OW69046   5.258   9.399  11.733
89050SOL    HW169047   5.247   9.324  11.792
89050SOL    HW269048   5.285   9.360  11.650
89051SOL     OW69049   3.046  12.090   3.396
89051SOL    HW169050   2.981  12.066   3.331
89051SOL    HW269051   3.064  12.009   3.444
89052SOL     OW69052   2.813   2.290   1.185
89052SOL    HW169053   2.908   2.303   1.183
89052SOL    HW269054   2.783   2.315   1.098
89053SOL     OW69055   0.152   4.658  10.985
89053SOL    HW169056   0.137   4.646  11.078
89053SOL    HW269057   0.216   4.590  10.962
89054SOL     OW69058   6.256   1.975   6.257
89054SOL    HW169059   6.343   2.016   6.247
89054SOL    HW269060   6.272   1.900   6.314
89055SOL     OW69061   5.774   0.473  10.524
89055SOL    HW169062   5.678   0.479  10.530
89055SOL    HW269063   5.794   0.386  10.558
89056SOL     OW69064   4.350   7.837   2.543
89056SOL    HW169065   4.367   7.902   2.475
89056SOL    HW269066   4.259   7.852   2.568
89057SOL     OW69067   3.074  11.705   1.316
89057SOL    HW169068   3.041  11.651   1.387
89057SOL    HW269069   3.149  11.751   1.353
89058SOL     OW69070  12.346  11.491   1.854
89058SOL    HW169071  12.324  11.571   1.901
89058SOL    HW269072  12.442  11.492   1.849
89059SOL     OW69073   6.884  13.846   9.323
89059SOL    HW169074   6.956  13.903   9.295
89059SOL    HW269075   6.806  13.902   9.317
89060SOL     OW69076   7.420   0.148   2.616
89060SOL    HW169077   7.420   0.169   2.522
89060SOL    HW269078   7.488   0.081   2.626
89061SOL     OW69079   5.577  14.644   0.253
89061SOL    HW169080   5.573  14.580   0.324
89061SOL    HW269081   5.669  14.668   0.247
89062SOL     OW69082  13.949  13.022  14.469
89062SOL    HW169083  14.008  12.949  14.489
89062SOL    HW269084  14.002  13.100  14.487
89063SOL     OW69085   8.757   4.878   4.974
89063SOL    HW169086   8.662   4.883   4.972
89063SOL    HW269087   8.777   4.819   5.047
89064SOL     OW69088   8.906   1.351  11.671
89064SOL    HW169089   8.945   1.297  11.602
89064SOL    HW269090   8.968   1.346  11.744
89065SOL     OW69091   8.137   6.518   9.140
89065SOL    HW169092   8.174   6.520   9.052
89065SOL    HW269093   8.099   6.431   9.148
89066SOL     OW69094  14.422   3.628   1.954
89066SOL    HW169095  14.413   3.721   1.936
89066SOL    HW269096  14.509   3.605   1.921
89067SOL     OW69097   7.817  13.189  10.600
89067SOL    HW169098   7.905  13.218  10.625
89067SOL    HW269099   7.832  13.116  10.540
89068SOL     OW69100  12.311   9.160  11.152
89068SOL    HW169101  12.226   9.117  11.141
89068SOL    HW269102  12.338   9.180  11.062
89069SOL     OW69103   0.908   5.061   3.223
89069SOL    HW169104   0.999   5.034   3.228
89069SOL    HW269105   0.899   5.130   3.288
89070SOL     OW69106   6.823   5.135   8.921
89070SOL    HW169107   6.765   5.182   8.862
89070SOL    HW269108   6.905   5.183   8.918
89071SOL     OW69109   4.408   6.490   4.354
89071SOL    HW169110   4.453   6.561   4.399
89071SOL    HW269111   4.449   6.410   4.389
89072SOL     OW69112   9.408   0.505  13.501
89072SOL    HW169113   9.387   0.598  13.487
89072SOL    HW269114   9.483   0.507  13.562
89073SOL     OW69115  10.845  14.735   4.706
89073SOL    HW169116  10.832  14.653   4.753
89073SOL    HW269117  10.801  14.801   4.760
89074SOL     OW69118   5.262   1.360  12.115
89074SOL    HW169119   5.245   1.311  12.195
89074SOL    HW269120   5.222   1.446  12.129
89075SOL     OW69121  11.087   0.245   8.756
89075SOL    HW169122  11.145   0.169   8.768
89075SOL    HW269123  11.043   0.255   8.840
89076SOL     OW69124  10.778   1.126  10.428
89076SOL    HW169125  10.768   1.185  10.354
89076SOL    HW269126  10.837   1.172  10.488
89077SOL     OW69127  13.557  12.119   3.661
89077SOL    HW169128  13.630  12.059   3.674
89077SOL    HW269129  13.501  12.107   3.738
89078SOL     OW69130   5.786   3.799   3.427
89078SOL    HW169131   5.740   3.729   3.474
89078SOL    HW269132   5.873   3.764   3.410
89079SOL     OW69133   5.370   7.575   2.305
89079SOL    HW169134   5.387   7.553   2.397
89079SOL    HW269135   5.389   7.494   2.258
89080SOL     OW69136  11.507   7.422   6.154
89080SOL    HW169137  11.443   7.394   6.219
89080SOL    HW269138  11.462   7.489   6.103
89081SOL     OW69139   1.079  10.190   5.996
89081SOL    HW169140   1.005  10.146   6.036
89081SOL    HW269141   1.154  10.166   6.050
89082SOL     OW69142  14.470   0.622   7.498
89082SOL    HW169143  14.433   0.638   7.412
89082SOL    HW269144  14.562   0.601   7.481
89083SOL     OW69145  10.481  11.619   8.121
89083SOL    HW169146  10.422  11.686   8.086
89083SOL    HW269147  10.508  11.568   8.044
89084SOL     OW69148   9.603  13.913   3.588
89084SOL    HW169149   9.674  13.971   3.560
89084SOL    HW269150   9.624  13.828   3.549
89085SOL     OW69151  11.013   2.241  10.402
89085SOL    HW169152  10.944   2.186  10.437
89085SOL    HW269153  11.052   2.283  10.479
89086SOL     OW69154   0.733   5.165   3.004
89086SOL    HW169155   0.711   5.074   2.985
89086SOL    HW269156   0.816   5.160   3.052
89087SOL     OW69157  13.147  13.680   2.385
89087SOL    HW169158  13.149  13.769   2.419
89087SOL    HW269159  13.113  13.689   2.295
89088SOL     OW69160   3.586  12.085   1.991
89088SOL    HW169161   3.647  12.154   1.968
89088SOL    HW269162   3.613  12.009   1.939
89089SOL     OW69163  12.350   4.338  13.615
89089SOL    HW169164  12.344   4.417  13.668
89089SOL    HW269165  12.329   4.367  13.526
89090SOL     OW69166   3.689  12.078   0.875
89090SOL    HW169167   3.632  12.013   0.834
89090SOL    HW269168   3.655  12.162   0.846
89091SOL     OW69169  13.260  14.189   4.379
89091SOL    HW169170  13.215  14.206   4.462
89091SOL    HW269171  13.342  14.146   4.404
89092SOL     OW69172   3.760   4.365   9.997
89092SOL    HW169173   3.691   4.299   9.989
89092SOL    HW269174   3.728   4.426  10.063
89093SOL     OW69175   0.348   7.304  12.989
89093SOL    HW169176   0.328   7.377  12.931
89093SOL    HW269177   0.311   7.330  13.073
89094SOL     OW69178   4.223   2.041   5.342
89094SOL    HW169179   4.265   2.097   5.276
89094SOL    HW269180   4.206   2.098   5.416
89095SOL     OW69181  14.106   4.520   1.715
89095SOL    HW169182  14.043   4.581   1.676
89095SOL    HW269183  14.066   4.434   1.702
89096SOL     OW69184  13.559   4.405  13.413
89096SOL    HW169185  13.604   4.483  13.382
89096SOL    HW269186  13.472   4.409  13.373
89097SOL     OW69187  14.147  13.580   5.232
89097SOL    HW169188  14.239  13.585   5.260
89097SOL    HW269189  14.107  13.658   5.270
89098SOL     OW69190   3.523   4.451  10.567
89098SOL    HW169191   3.463   4.461  10.641
89098SOL    HW269192   3.607   4.427  10.606
89099SOL     OW69193   0.962  12.431   2.054
89099SOL    HW169194   0.934  12.432   1.963
89099SOL    HW269195   0.885  12.460   2.103
89100SOL     OW69196   1.310   9.698   1.725
89100SOL    HW169197   1.300   9.763   1.795
89100SOL    HW269198   1.232   9.643   1.732
89101SOL     OW69199   8.838   1.911  13.941
89101SOL    HW169200   8.771   1.943  13.882
89101SOL    HW269201   8.900   1.984  13.948
89102SOL     OW69202   5.773   5.149   2.792
89102SOL    HW169203   5.792   5.058   2.770
89102SOL    HW269204   5.814   5.162   2.878
89103SOL     OW69205   9.956  11.164   5.443
89103SOL    HW169206   9.875  11.216   5.441
89103SOL    HW269207  10.023  11.224   5.410
89104SOL     OW69208  11.859   5.970   8.732
89104SOL    HW169209  11.768   5.948   8.714
89104SOL    HW269210  11.882   5.918   8.809
89105SOL     OW69211  14.011   5.964   5.458
89105SOL    HW169212  13.934   5.907   5.446
89105SOL    HW269213  13.977   6.053   5.447
89106SOL     OW69214   2.274   9.749   6.885
89106SOL    HW169215   2.228   9.711   6.809
89106SOL    HW269216   2.205   9.763   6.950
89107SOL     OW69217   5.095   1.497   2.414
89107SOL    HW169218   5.050   1.461   2.338
89107SOL    HW269219   5.119   1.421   2.467
89108SOL     OW69220  12.403  14.495  10.987
89108SOL    HW169221  12.462  14.421  11.002
89108SOL    HW269222  12.321  14.470  11.029
89109SOL     OW69223   0.719   8.813  14.303
89109SOL    HW169224   0.680   8.745  14.358
89109SOL    HW269225   0.703   8.894  14.350
89110SOL     OW69226   9.376   4.175   4.417
89110SOL    HW169227   9.353   4.168   4.510
89110SOL    HW269228   9.304   4.132   4.371
89111SOL     OW69229  10.271   3.763   8.375
89111SOL    HW169230  10.290   3.735   8.285
89111SOL    HW269231  10.188   3.722   8.396
89112SOL     OW69232   2.174  11.123   4.068
89112SOL    HW169233   2.251  11.179   4.062
89112SOL    HW269234   2.099  11.183   4.061
89113SOL     OW69235  13.734   7.639  13.170
89113SOL    HW169236  13.827   7.621  13.183
89113SOL    HW269237  13.717   7.719  13.220
89114SOL     OW69238   4.373   0.887   9.114
89114SOL    HW169239   4.338   0.897   9.203
89114SOL    HW269240   4.419   0.969   9.097
89115SOL     OW69241   2.845  12.110  10.591
89115SOL    HW169242   2.845  12.015  10.601
89115SOL    HW269243   2.797  12.125  10.509
89116SOL     OW69244  13.157  13.775  11.358
89116SOL    HW169245  13.130  13.688  11.331
89116SOL    HW269246  13.131  13.780  11.450
89117SOL     OW69247   3.428   7.993  13.051
89117SOL    HW169248   3.424   8.082  13.016
89117SOL    HW269249   3.471   8.002  13.136
89118SOL     OW69250   6.648   8.871   8.384
89118SOL    HW169251   6.689   8.818   8.316
89118SOL    HW269252   6.616   8.949   8.338
89119SOL     OW69253  10.587  13.147   0.309
89119SOL    HW169254  10.581  13.223   0.250
89119SOL    HW269255  10.681  13.131   0.317
89120SOL     OW69256   2.840  10.397   6.895
89120SOL    HW169257   2.782  10.394   6.819
89120SOL    HW269258   2.898  10.322   6.884
89121SOL     OW69259  14.808   1.694   2.719
89121SOL    HW169260  14.841   1.710   2.807
89121SOL    HW269261   0.002   1.707   2.662
89122SOL     OW69262   4.166   9.524   0.808
89122SOL    HW169263   4.195   9.605   0.852
89122SOL    HW269264   4.247   9.475   0.794
89123SOL     OW69265   4.882   1.468   3.296
89123SOL    HW169266   4.791   1.497   3.300
89123SOL    HW269267   4.933   1.550   3.298
89124SOL     OW69268   8.716   8.751   5.371
89124SOL    HW169269   8.678   8.839   5.382
89124SOL    HW269270   8.771   8.759   5.293
89125SOL     OW69271   8.683   7.483   3.775
89125SOL    HW169272   8.611   7.452   3.830
89125SOL    HW269273   8.761   7.473   3.829
89126SOL     OW69274   0.002   6.446   7.543
89126SOL    HW169275   0.083   6.453   7.594
89126SOL    HW269276  14.818   6.489   7.597
89127SOL     OW69277   7.614   7.543   1.587
89127SOL    HW169278   7.551   7.536   1.515
89127SOL    HW269279   7.610   7.635   1.613
89128SOL     OW69280   3.185   8.434  11.157
89128SOL    HW169281   3.196   8.510  11.099
89128SOL    HW269282   3.118   8.462  11.220
89129SOL     OW69283  13.717   7.022   6.177
89129SOL    HW169284  13.658   7.073   6.233
89129SOL    HW269285  13.666   6.945   6.153
89130SOL     OW69286  14.210   5.606   8.503
89130SOL    HW169287  14.163   5.676   8.460
89130SOL    HW269288  14.289   5.648   8.538
89131SOL     OW69289   4.821   1.946  12.204
89131SOL    HW169290   4.763   2.022  12.209
89131SOL    HW269291   4.854   1.947  12.114
89132SOL     OW69292   3.544   9.307  13.116
89132SOL    HW169293   3.565   9.371  13.184
89132SOL    HW269294   3.608   9.323  13.047
89133SOL     OW69295   1.259  12.367   1.123
89133SOL    HW169296   1.236  12.431   1.055
89133SOL    HW269297   1.174  12.334   1.154
89134SOL     OW69298   6.232   9.025  11.820
89134SOL    HW169299   6.279   9.101  11.785
89134SOL    HW269300   6.235   8.961  11.748
89135SOL     OW69301   9.025   3.159  12.633
89135SOL    HW169302   9.038   3.212  12.555
89135SOL    HW269303   8.961   3.093  12.607
89136SOL     OW69304   6.579  10.157   5.104
89136SOL    HW169305   6.589  10.063   5.091
89136SOL    HW269306   6.505  10.165   5.164
89137SOL     OW69307   0.031  14.142   8.026
89137SOL    HW169308   0.058  14.061   7.982
89137SOL    HW269309  14.826  14.122   8.061
89138SOL     OW69310  13.991   7.668  13.215
89138SOL    HW169311  14.029   7.703  13.296
89138SOL    HW269312  14.067   7.653  13.158
89139SOL     OW69313   0.507   2.288   7.840
89139SOL    HW169314   0.508   2.313   7.748
89139SOL    HW269315   0.434   2.226   7.848
89140SOL     OW69316   8.590   9.034   0.972
89140SOL    HW169317   8.596   9.085   0.892
89140SOL    HW269318   8.669   8.978   0.971
89141SOL     OW69319   8.607   5.024  11.117
89141SOL    HW169320   8.698   5.029  11.146
89141SOL    HW269321   8.576   5.114  11.122
89142SOL     OW69322   2.752   2.940   9.028
89142SOL    HW169323   2.727   2.848   9.022
89142SOL    HW269324   2.828   2.948   8.970
89143SOL     OW69325   6.841   6.862  13.933
89143SOL    HW169326   6.927   6.903  13.924
89143SOL    HW269327   6.853   6.773  13.899
89144SOL     OW69328   9.676   3.870  13.350
89144SOL    HW169329   9.586   3.897  13.335
89144SOL    HW269330   9.717   3.874  13.264
89145SOL     OW69331   7.938   8.502   2.642
89145SOL    HW169332   8.027   8.524   2.614
89145SOL    HW269333   7.882   8.546   2.578
89146SOL     OW69334   4.973   8.596   8.490
89146SOL    HW169335   5.023   8.547   8.425
89146SOL    HW269336   4.984   8.546   8.571
89147SOL     OW69337   8.989   1.032  11.906
89147SOL    HW169338   9.027   1.004  11.989
89147SOL    HW269339   8.899   1.001  11.908
89148SOL     OW69340  14.706  10.261  12.428
89148SOL    HW169341  14.630  10.256  12.369
89148SOL    HW269342  14.678  10.214  12.507
89149SOL     OW69343   7.476  13.454   2.870
89149SOL    HW169344   7.415  13.527   2.875
89149SOL    HW269345   7.488  13.439   2.776
89150SOL     OW69346  10.658  10.305   2.920
89150SOL    HW169347  10.609  10.303   3.002
89150SOL    HW269348  10.745  10.337   2.944
89151SOL     OW69349   6.817   4.576   2.380
89151SOL    HW169350   6.792   4.546   2.467
89151SOL    HW269351   6.735   4.574   2.330
89152SOL     OW69352   8.623   0.188  12.426
89152SOL    HW169353   8.582   0.271  12.448
89152SOL    HW269354   8.558   0.141  12.374
89153SOL     OW69355  12.060   2.361  13.398
89153SOL    HW169356  11.994   2.426  13.374
89153SOL    HW269357  12.069   2.370  13.493
89154SOL     OW69358   3.069  14.680   3.490
89154SOL    HW169359   3.061  14.647   3.401
89154SOL    HW269360   3.098  14.604   3.541
89155SOL     OW69361  13.615   6.216   4.714
89155SOL    HW169362  13.613   6.302   4.671
89155SOL    HW269363  13.541   6.169   4.676
89156SOL     OW69364   7.701   4.742  14.727
89156SOL    HW169365   7.769   4.809  14.720
89156SOL    HW269366   7.630   4.784  14.775
89157SOL     OW69367   7.858   6.422   8.239
89157SOL    HW169368   7.808   6.405   8.159
89157SOL    HW269369   7.817   6.499   8.278
89158SOL     OW69370   1.619   0.420   3.994
89158SOL    HW169371   1.548   0.464   3.948
89158SOL    HW269372   1.651   0.484   4.057
89159SOL     OW69373   1.481  11.415   9.801
89159SOL    HW169374   1.437  11.407   9.716
89159SOL    HW269375   1.552  11.478   9.786
89160SOL     OW69376  14.652  14.875   8.762
89160SOL    HW169377  14.676  14.829   8.843
89160SOL    HW269378  14.689   0.080   8.773
89161SOL     OW69379  10.109   0.055   0.705
89161SOL    HW169380  10.035   0.095   0.750
89161SOL    HW269381  10.121   0.107   0.626
89162SOL     OW69382   0.699   1.572   5.227
89162SOL    HW169383   0.746   1.616   5.156
89162SOL    HW269384   0.767   1.531   5.279
89163SOL     OW69385  10.746  12.663  13.925
89163SOL    HW169386  10.808  12.606  13.970
89163SOL    HW269387  10.705  12.714  13.995
89164SOL     OW69388   3.005   8.850  11.362
89164SOL    HW169389   3.072   8.846  11.294
89164SOL    HW269390   3.053   8.876  11.441
89165SOL     OW69391  11.693   7.781   5.316
89165SOL    HW169392  11.673   7.702   5.267
89165SOL    HW269393  11.758   7.828   5.263
89166SOL     OW69394  13.023  13.812   0.154
89166SOL    HW169395  13.044  13.877   0.087
89166SOL    HW269396  12.947  13.848   0.199
89167SOL     OW69397   2.966   4.704   8.800
89167SOL    HW169398   3.043   4.758   8.786
89167SOL    HW269399   2.941   4.720   8.891
89168SOL     OW69400   0.658  12.255   9.029
89168SOL    HW169401   0.678  12.347   9.012
89168SOL    HW269402   0.568  12.243   8.999
89169SOL     OW69403   7.706   0.030  11.009
89169SOL    HW169404   7.642   0.060  11.074
89169SOL    HW269405   7.730  14.825  11.039
89170SOL     OW69406   6.314  10.286  10.497
89170SOL    HW169407   6.267  10.341  10.560
89170SOL    HW269408   6.354  10.348  10.436
89171SOL     OW69409   7.347   2.733   4.898
89171SOL    HW169410   7.337   2.674   4.972
89171SOL    HW269411   7.260   2.770   4.884
89172SOL     OW69412  11.679   6.800  13.251
89172SOL    HW169413  11.687   6.878  13.196
89172SOL    HW269414  11.592   6.807  13.290
89173SOL     OW69415   2.432  10.441  12.292
89173SOL    HW169416   2.482  10.442  12.374
89173SOL    HW269417   2.341  10.433  12.320
89174SOL     OW69418   7.224   8.966   3.793
89174SOL    HW169419   7.154   8.984   3.731
89174SOL    HW269420   7.238   8.871   3.787
89175SOL     OW69421   1.318   8.595   7.889
89175SOL    HW169422   1.231   8.580   7.854
89175SOL    HW269423   1.320   8.545   7.971
89176SOL     OW69424  12.416   3.496   5.183
89176SOL    HW169425  12.506   3.527   5.182
89176SOL    HW269426  12.397   3.473   5.092
89177SOL     OW69427   7.408  14.177  10.639
89177SOL    HW169428   7.469  14.105  10.619
89177SOL    HW269429   7.465  14.253  10.654
89178SOL     OW69430   7.410   2.809   4.300
89178SOL    HW169431   7.362   2.888   4.276
89178SOL    HW269432   7.352   2.737   4.276
89179SOL     OW69433  14.220   5.905   7.262
89179SOL    HW169434  14.144   5.925   7.208
89179SOL    HW269435  14.238   5.987   7.309
89180SOL     OW69436  12.750  11.092   7.304
89180SOL    HW169437  12.710  11.136   7.379
89180SOL    HW269438  12.713  11.003   7.306
89181SOL     OW69439  11.620   6.806   4.896
89181SOL    HW169440  11.693   6.867   4.902
89181SOL    HW269441  11.583   6.802   4.984
89182SOL     OW69442  10.996  13.982   6.294
89182SOL    HW169443  10.932  13.922   6.255
89182SOL    HW269444  11.016  14.044   6.223
89183SOL     OW69445   8.746  10.968  12.706
89183SOL    HW169446   8.683  10.927  12.766
89183SOL    HW269447   8.781  11.042  12.756
89184SOL     OW69448   1.261  11.046   9.733
89184SOL    HW169449   1.353  11.026   9.719
89184SOL    HW269450   1.217  11.018   9.653
89185SOL     OW69451  14.043   8.269  13.014
89185SOL    HW169452  13.973   8.204  13.024
89185SOL    HW269453  14.013   8.325  12.942
89186SOL     OW69454   6.326   5.715  11.815
89186SOL    HW169455   6.391   5.647  11.796
89186SOL    HW269456   6.378   5.793  11.836
89187SOL     OW69457   7.967   6.513  10.609
89187SOL    HW169458   8.000   6.601  10.623
89187SOL    HW269459   7.873   6.524  10.595
89188SOL     OW69460   5.312   7.009   8.427
89188SOL    HW169461   5.220   6.983   8.424
89188SOL    HW269462   5.332   7.041   8.339
89189SOL     OW69463  10.784  12.886   5.115
89189SOL    HW169464  10.821  12.803   5.146
89189SOL    HW269465  10.699  12.862   5.079
89190SOL     OW69466   2.308   8.193   8.732
89190SOL    HW169467   2.272   8.105   8.721
89190SOL    HW269468   2.398   8.186   8.700
89191SOL     OW69469   3.756   8.117   2.294
89191SOL    HW169470   3.832   8.175   2.300
89191SOL    HW269471   3.704   8.153   2.222
89192SOL     OW69472   8.719   6.939   7.129
89192SOL    HW169473   8.656   6.885   7.080
89192SOL    HW269474   8.804   6.909   7.098
89193SOL     OW69475  10.415   6.439  13.752
89193SOL    HW169476  10.384   6.354  13.721
89193SOL    HW269477  10.490   6.418  13.808
89194SOL     OW69478   4.001  11.078   9.951
89194SOL    HW169479   4.086  11.036   9.960
89194SOL    HW269480   3.938  11.007   9.961
89195SOL     OW69481   6.553   0.379   3.243
89195SOL    HW169482   6.568   0.392   3.336
89195SOL    HW269483   6.460   0.397   3.230
89196SOL     OW69484  11.815  13.487  12.192
89196SOL    HW169485  11.805  13.440  12.110
89196SOL    HW269486  11.745  13.454  12.248
89197SOL     OW69487   5.544   6.868  12.702
89197SOL    HW169488   5.622   6.912  12.666
89197SOL    HW269489   5.567   6.851  12.793
89198SOL     OW69490  13.055   1.324  13.851
89198SOL    HW169491  13.124   1.320  13.917
89198SOL    HW269492  12.982   1.275  13.889
89199SOL     OW69493   6.743   5.310   8.145
89199SOL    HW169494   6.751   5.253   8.069
89199SOL    HW269495   6.801   5.272   8.210
89200SOL     OW69496  10.265   4.937  11.337
89200SOL    HW169497  10.289   5.029  11.354
89200SOL    HW269498  10.281   4.924  11.244
89201SOL     OW69499  14.638   5.220   7.337
89201SOL    HW169500  14.656   5.278   7.411
89201SOL    HW269501  14.709   5.155   7.340
89202SOL     OW69502   4.655  10.114  12.499
89202SOL    HW169503   4.633  10.201  12.532
89202SOL    HW269504   4.601  10.104  12.421
89203SOL     OW69505  11.333  13.622   2.667
89203SOL    HW169506  11.374  13.539   2.691
89203SOL    HW269507  11.402  13.671   2.623
89204SOL     OW69508  11.023   0.174  13.187
89204SOL    HW169509  11.001   0.114  13.116
89204SOL    HW269510  11.067   0.247  13.144
89205SOL     OW69511  10.572   9.483  13.807
89205SOL    HW169512  10.505   9.416  13.799
89205SOL    HW269513  10.569   9.531  13.724
89206SOL     OW69514  12.363  14.495   0.483
89206SOL    HW169515  12.313  14.438   0.424
89206SOL    HW269516  12.342  14.584   0.453
89207SOL     OW69517  11.263   6.904  10.717
89207SOL    HW169518  11.168   6.896  10.709
89207SOL    HW269519  11.291   6.937  10.631
89208SOL     OW69520   0.984  13.255  11.503
89208SOL    HW169521   1.068  13.298  11.516
89208SOL    HW269522   0.999  13.194  11.431
89209SOL     OW69523   7.944   9.834   7.447
89209SOL    HW169524   7.901   9.837   7.532
89209SOL    HW269525   7.986   9.920   7.438
89210SOL     OW69526  13.060   4.093   1.238
89210SOL    HW169527  13.115   4.021   1.267
89210SOL    HW269528  13.108   4.131   1.164
89211SOL     OW69529   7.885   3.661   6.336
89211SOL    HW169530   7.944   3.633   6.265
89211SOL    HW269531   7.832   3.730   6.297
89212SOL     OW69532   1.724   2.055  11.458
89212SOL    HW169533   1.646   2.105  11.434
89212SOL    HW269534   1.782   2.119  11.499
89213SOL     OW69535   0.792   9.228   8.075
89213SOL    HW169536   0.779   9.309   8.026
89213SOL    HW269537   0.834   9.169   8.012
89214SOL     OW69538  12.559  12.213   6.475
89214SOL    HW169539  12.598  12.172   6.553
89214SOL    HW269540  12.593  12.162   6.402
89215SOL     OW69541   5.448   4.031   4.524
89215SOL    HW169542   5.487   4.007   4.440
89215SOL    HW269543   5.355   4.012   4.515
89216SOL     OW69544   3.585  10.706   3.432
89216SOL    HW169545   3.605  10.796   3.404
89216SOL    HW269546   3.529  10.717   3.509
89217SOL     OW69547   9.004   3.766   8.067
89217SOL    HW169548   9.038   3.682   8.037
89217SOL    HW269549   8.966   3.806   7.989
89218SOL     OW69550   4.936   4.727   3.627
89218SOL    HW169551   5.010   4.694   3.576
89218SOL    HW269552   4.975   4.766   3.705
89219SOL     OW69553   3.755   8.215   1.559
89219SOL    HW169554   3.749   8.251   1.647
89219SOL    HW269555   3.665   8.215   1.526
89220SOL     OW69556   1.265   2.897   6.979
89220SOL    HW169557   1.205   2.922   7.048
89220SOL    HW269558   1.215   2.906   6.898
89221SOL     OW69559  11.971   0.739   4.784
89221SOL    HW169560  12.051   0.714   4.738
89221SOL    HW269561  11.932   0.807   4.729
89222SOL     OW69562   9.291   4.740  12.789
89222SOL    HW169563   9.272   4.650  12.762
89222SOL    HW269564   9.386   4.742  12.798
89223SOL     OW69565  11.036   4.048   2.338
89223SOL    HW169566  11.126   4.062   2.307
89223SOL    HW269567  11.021   3.954   2.325
89224SOL     OW69568   1.150   4.767   9.502
89224SOL    HW169569   1.135   4.861   9.495
89224SOL    HW269570   1.189   4.756   9.589
89225SOL     OW69571   3.550   8.815  14.659
89225SOL    HW169572   3.530   8.845  14.570
89225SOL    HW269573   3.625   8.757  14.648
89226SOL     OW69574  11.933   2.356   4.706
89226SOL    HW169575  11.964   2.312   4.786
89226SOL    HW269576  11.995   2.427   4.693
89227SOL     OW69577  13.177   4.111  13.385
89227SOL    HW169578  13.245   4.174  13.407
89227SOL    HW269579  13.220   4.026  13.392
89228SOL     OW69580   6.203  11.749   4.867
89228SOL    HW169581   6.132  11.719   4.923
89228SOL    HW269582   6.160  11.789   4.792
89229SOL     OW69583  14.820   4.277   3.097
89229SOL    HW169584  14.826   4.270   3.002
89229SOL    HW269585   0.016   4.326   3.123
89230SOL     OW69586  10.520   8.106  12.374
89230SOL    HW169587  10.479   8.150  12.299
89230SOL    HW269588  10.455   8.041  12.402
89231SOL     OW69589   4.898   6.769  10.907
89231SOL    HW169590   4.926   6.726  10.988
89231SOL    HW269591   4.883   6.860  10.932
89232SOL     OW69592   2.820   1.906   0.801
89232SOL    HW169593   2.771   1.855   0.865
89232SOL    HW269594   2.781   1.993   0.804
89233SOL     OW69595   4.490  14.867  10.516
89233SOL    HW169596   4.423  14.809  10.553
89233SOL    HW269597   4.572  14.817  10.523
89234SOL     OW69598   6.036   8.482   7.949
89234SOL    HW169599   6.000   8.399   7.979
89234SOL    HW269600   6.104   8.503   8.013
89235SOL     OW69601  13.732  10.998  10.521
89235SOL    HW169602  13.696  11.080  10.485
89235SOL    HW269603  13.683  10.929  10.477
89236SOL     OW69604   1.185   9.033   3.075
89236SOL    HW169605   1.141   8.992   3.000
89236SOL    HW269606   1.172   9.127   3.063
89237SOL     OW69607   0.528   1.536   1.113
89237SOL    HW169608   0.512   1.474   1.184
89237SOL    HW269609   0.498   1.620   1.147
89238SOL     OW69610  11.250   1.931   8.372
89238SOL    HW169611  11.184   1.880   8.327
89238SOL    HW269612  11.200   1.991   8.427
89239SOL     OW69613   5.936  11.641   8.460
89239SOL    HW169614   5.924  11.729   8.495
89239SOL    HW269615   5.993  11.597   8.523
89240SOL     OW69616   6.693   3.241  10.651
89240SOL    HW169617   6.752   3.256  10.577
89240SOL    HW269618   6.735   3.287  10.724
89241SOL     OW69619   7.816   4.548  11.783
89241SOL    HW169620   7.817   4.626  11.729
89241SOL    HW269621   7.798   4.579  11.871
89242SOL     OW69622   5.930   3.030   4.660
89242SOL    HW169623   6.018   3.067   4.651
89242SOL    HW269624   5.885   3.054   4.578
89243SOL     OW69625   7.419  12.789   1.567
89243SOL    HW169626   7.493  12.728   1.563
89243SOL    HW269627   7.418  12.819   1.657
89244SOL     OW69628  13.564  11.332   4.251
89244SOL    HW169629  13.623  11.407   4.250
89244SOL    HW269630  13.505  11.349   4.325
89245SOL     OW69631   8.999  14.868   2.404
89245SOL    HW169632   9.031  14.823   2.326
89245SOL    HW269633   9.016  14.807   2.476
89246SOL     OW69634   4.897  13.133   2.377
89246SOL    HW169635   4.829  13.094   2.433
89246SOL    HW269636   4.979  13.099   2.412
89247SOL     OW69637  12.053  10.847   2.297
89247SOL    HW169638  11.997  10.835   2.221
89247SOL    HW269639  12.116  10.775   2.293
89248SOL     OW69640   6.797  13.859   5.168
89248SOL    HW169641   6.753  13.776   5.151
89248SOL    HW269642   6.836  13.848   5.255
89249SOL     OW69643   5.570  12.160  13.813
89249SOL    HW169644   5.575  12.064  13.814
89249SOL    HW269645   5.657  12.189  13.840
89250SOL     OW69646   2.624   9.923   5.777
89250SOL    HW169647   2.582   9.980   5.714
89250SOL    HW269648   2.558   9.856   5.796
89251SOL     OW69649  12.299   3.672  14.665
89251SOL    HW169650  12.223   3.690  14.721
89251SOL    HW269651  12.363   3.634  14.724
89252SOL     OW69652   1.211   5.253   8.170
89252SOL    HW169653   1.250   5.316   8.109
89252SOL    HW269654   1.117   5.266   8.161
89253SOL     OW69655   1.873  10.901   8.414
89253SOL    HW169656   1.822  10.979   8.437
89253SOL    HW269657   1.960  10.935   8.392
89254SOL     OW69658   1.776   2.728   9.175
89254SOL    HW169659   1.716   2.695   9.107
89254SOL    HW269660   1.718   2.769   9.239
89255SOL     OW69661   7.987  14.470   7.072
89255SOL    HW169662   7.909  14.525   7.078
89255SOL    HW269663   8.061  14.532   7.075
89256SOL     OW69664   1.827   7.782   7.961
89256SOL    HW169665   1.785   7.833   8.030
89256SOL    HW269666   1.805   7.829   7.880
89257SOL     OW69667  14.818   5.693   0.945
89257SOL    HW169668  14.724   5.685   0.961
89257SOL    HW269669  14.854   5.728   1.026
89258SOL     OW69670   4.017   7.869   4.628
89258SOL    HW169671   4.006   7.956   4.667
89258SOL    HW269672   4.006   7.808   4.701
89259SOL     OW69673   6.000  12.579  10.925
89259SOL    HW169674   5.948  12.640  10.977
89259SOL    HW269675   6.059  12.634  10.873
89260SOL     OW69676  11.125   1.852  14.585
89260SOL    HW169677  11.169   1.845  14.500
89260SOL    HW269678  11.041   1.807  14.572
89261SOL     OW69679   7.860   7.031   2.388
89261SOL    HW169680   7.786   7.049   2.446
89261SOL    HW269681   7.911   7.111   2.388
89262SOL     OW69682   6.970  12.010   7.874
89262SOL    HW169683   7.016  11.946   7.819
89262SOL    HW269684   7.015  12.093   7.856
89263SOL     OW69685  13.126  14.563  10.487
89263SOL    HW169686  13.135  14.515  10.569
89263SOL    HW269687  13.062  14.631  10.506
89264SOL     OW69688  12.457   7.689   1.153
89264SOL    HW169689  12.369   7.682   1.116
89264SOL    HW269690  12.511   7.632   1.098
89265SOL     OW69691   4.744  10.574  11.183
89265SOL    HW169692   4.673  10.527  11.227
89265SOL    HW269693   4.703  10.653  11.149
89266SOL     OW69694   3.769   7.970   0.495
89266SOL    HW169695   3.799   8.061   0.504
89266SOL    HW269696   3.783   7.932   0.581
89267SOL     OW69697   9.197  10.051  14.414
89267SOL    HW169698   9.190  10.146  14.403
89267SOL    HW269699   9.246  10.021  14.338
89268SOL     OW69700   3.800   2.414  11.921
89268SOL    HW169701   3.805   2.498  11.876
89268SOL    HW269702   3.707   2.402  11.940
89269SOL     OW69703   2.122  14.798   2.789
89269SOL    HW169704   2.210  14.805   2.827
89269SOL    HW269705   2.085  14.720   2.830
89270SOL     OW69706  10.898   3.494  10.800
89270SOL    HW169707  10.857   3.579  10.820
89270SOL    HW269708  10.887   3.484  10.705
89271SOL     OW69709  10.083   8.915   4.509
89271SOL    HW169710   9.997   8.879   4.486
89271SOL    HW269711  10.111   8.862   4.583
89272SOL     OW69712   0.519  14.089   9.443
89272SOL    HW169713   0.451  14.048   9.390
89272SOL    HW269714   0.553  14.018   9.498
89273SOL     OW69715  12.817   4.660  14.824
89273SOL    HW169716  12.836   4.634   0.032
89273SOL    HW269717  12.776   4.746  14.832
89274SOL     OW69718  14.004   8.558   0.452
89274SOL    HW169719  14.085   8.517   0.485
89274SOL    HW269720  13.951   8.573   0.531
89275SOL     OW69721   6.078   6.753   3.143
89275SOL    HW169722   6.079   6.692   3.216
89275SOL    HW269723   5.987   6.783   3.137
89276SOL     OW69724   5.637  14.758   6.524
89276SOL    HW169725   5.586  14.832   6.491
89276SOL    HW269726   5.721  14.764   6.477
89277SOL     OW69727  13.107  10.438  14.521
89277SOL    HW169728  13.118  10.494  14.598
89277SOL    HW269729  13.137  10.352  14.550
89278SOL     OW69730  14.768   2.013  12.456
89278SOL    HW169731  14.714   2.017  12.378
89278SOL    HW269732  14.745   2.091  12.506
89279SOL     OW69733   1.711  13.961  14.056
89279SOL    HW169734   1.775  14.031  14.061
89279SOL    HW269735   1.710  13.923  14.144
89280SOL     OW69736  14.457   4.734  11.313
89280SOL    HW169737  14.434   4.693  11.396
89280SOL    HW269738  14.458   4.828  11.332
89281SOL     OW69739   1.377   9.237  11.994
89281SOL    HW169740   1.386   9.299  11.922
89281SOL    HW269741   1.368   9.292  12.072
89282SOL     OW69742   3.046   0.813  10.930
89282SOL    HW169743   3.090   0.730  10.947
89282SOL    HW269744   3.000   0.800  10.847
89283SOL     OW69745   0.447  10.153   3.149
89283SOL    HW169746   0.463  10.075   3.202
89283SOL    HW269747   0.431  10.118   3.061
89284SOL     OW69748  14.697  11.907   4.636
89284SOL    HW169749  14.619  11.862   4.604
89284SOL    HW269750  14.674  12.000   4.632
89285SOL     OW69751   2.292   1.195   0.516
89285SOL    HW169752   2.328   1.140   0.585
89285SOL    HW269753   2.369   1.234   0.474
89286SOL     OW69754   9.708   3.813   2.857
89286SOL    HW169755   9.633   3.853   2.815
89286SOL    HW269756   9.745   3.883   2.912
89287SOL     OW69757   3.793   9.512   4.455
89287SOL    HW169758   3.736   9.435   4.460
89287SOL    HW269759   3.881   9.476   4.470
89288SOL     OW69760   1.317   7.647   3.782
89288SOL    HW169761   1.372   7.725   3.790
89288SOL    HW269762   1.263   7.647   3.860
89289SOL     OW69763   8.990   5.024   5.188
89289SOL    HW169764   8.978   4.931   5.208
89289SOL    HW269765   8.902   5.058   5.179
89290SOL     OW69766  12.620   2.710   3.386
89290SOL    HW169767  12.614   2.803   3.408
89290SOL    HW269768  12.639   2.667   3.470
89291SOL     OW69769  14.110   8.460   9.560
89291SOL    HW169770  14.189   8.484   9.513
89291SOL    HW269771  14.050   8.533   9.544
89292SOL     OW69772  14.389   2.401   7.863
89292SOL    HW169773  14.401   2.421   7.956
89292SOL    HW269774  14.478   2.402   7.827
89293SOL     OW69775   3.239   0.046   6.147
89293SOL    HW169776   3.276  14.856   6.199
89293SOL    HW269777   3.275   0.034   6.059
89294SOL     OW69778  10.419  10.491   7.755
89294SOL    HW169779  10.511  10.484   7.781
89294SOL    HW269780  10.421  10.534   7.670
89295SOL     OW69781   9.669   3.451  14.749
89295SOL    HW169782   9.638   3.386  14.686
89295SOL    HW269783   9.737   3.499  14.703
89296SOL     OW69784  13.143  14.607   0.062
89296SOL    HW169785  13.147  14.538  14.878
89296SOL    HW269786  13.068  14.583   0.117
89297SOL     OW69787   5.147  13.412  10.453
89297SOL    HW169788   5.124  13.363  10.374
89297SOL    HW269789   5.200  13.350  10.504
89298SOL     OW69790  12.521  11.857  10.834
89298SOL    HW169791  12.553  11.786  10.778
89298SOL    HW269792  12.599  11.910  10.851
89299SOL     OW69793  12.306   7.232  11.938
89299SOL    HW169794  12.292   7.184  11.856
89299SOL    HW269795  12.323   7.165  12.003
89300SOL     OW69796   3.607  13.787   0.269
89300SOL    HW169797   3.634  13.715   0.326
89300SOL    HW269798   3.537  13.751   0.215
89301SOL     OW69799   6.514   5.157  14.707
89301SOL    HW169800   6.457   5.170  14.631
89301SOL    HW269801   6.585   5.102  14.675
89302SOL     OW69802  12.598   4.005   8.639
89302SOL    HW169803  12.602   4.092   8.679
89302SOL    HW269804  12.555   4.019   8.554
89303SOL     OW69805   4.711  11.212   0.177
89303SOL    HW169806   4.649  11.145   0.204
89303SOL    HW269807   4.657  11.285   0.148
89304SOL     OW69808   7.364  13.344   1.487
89304SOL    HW169809   7.364  13.440   1.480
89304SOL    HW269810   7.433  13.325   1.550
89305SOL     OW69811  10.058   0.730   1.545
89305SOL    HW169812   9.964   0.730   1.528
89305SOL    HW269813  10.091   0.653   1.499
89306SOL     OW69814   7.866   8.708  14.325
89306SOL    HW169815   7.891   8.787  14.278
89306SOL    HW269816   7.871   8.638  14.260
89307SOL     OW69817   2.325   2.358  14.470
89307SOL    HW169818   2.309   2.420  14.541
89307SOL    HW269819   2.419   2.339  14.475
89308SOL     OW69820  14.249  11.061   8.319
89308SOL    HW169821  14.299  11.121   8.263
89308SOL    HW269822  14.254  11.101   8.406
89309SOL     OW69823  13.613  10.450   9.628
89309SOL    HW169824  13.654  10.464   9.542
89309SOL    HW269825  13.648  10.366   9.658
89310SOL     OW69826  13.912  11.344   2.593
89310SOL    HW169827  13.978  11.383   2.650
89310SOL    HW269828  13.832  11.343   2.646
89311SOL     OW69829  10.668   1.769   3.448
89311SOL    HW169830  10.739   1.831   3.460
89311SOL    HW269831  10.594   1.822   3.419
89312SOL     OW69832  11.482   8.348   2.606
89312SOL    HW169833  11.500   8.441   2.615
89312SOL    HW269834  11.388   8.339   2.618
89313SOL     OW69835   8.091  12.675  10.070
89313SOL    HW169836   8.180  12.709  10.079
89313SOL    HW269837   8.085  12.648   9.978
89314SOL     OW69838  14.270   3.772   9.355
89314SOL    HW169839  14.214   3.823   9.413
89314SOL    HW269840  14.350   3.757   9.405
89315SOL     OW69841  13.904  14.069  11.092
89315SOL    HW169842  13.844  14.115  11.151
89315SOL    HW269843  13.984  14.059  11.143
89316SOL     OW69844  12.180   7.724   4.739
89316SOL    HW169845  12.235   7.762   4.808
89316SOL    HW269846  12.156   7.799   4.685
89317SOL     OW69847   7.397   1.461   3.197
89317SOL    HW169848   7.391   1.518   3.274
89317SOL    HW269849   7.469   1.497   3.146
89318SOL     OW69850  13.547  14.113   9.048
89318SOL    HW169851  13.500  14.029   9.046
89318SOL    HW269852  13.485  14.174   9.089
89319SOL     OW69853   5.008   9.140  11.518
89319SOL    HW169854   5.065   9.118  11.444
89319SOL    HW269855   4.931   9.179  11.477
89320SOL     OW69856   9.928  12.035   2.688
89320SOL    HW169857   9.917  12.001   2.599
89320SOL    HW269858  10.006  11.989   2.721
89321SOL     OW69859   9.393   1.190  11.065
89321SOL    HW169860   9.477   1.144  11.059
89321SOL    HW269861   9.401   1.263  11.004
89322SOL     OW69862  11.799  13.384  14.430
89322SOL    HW169863  11.834  13.442  14.361
89322SOL    HW269864  11.752  13.316  14.383
89323SOL     OW69865   7.926   8.646  13.555
89323SOL    HW169866   7.886   8.559  13.550
89323SOL    HW269867   8.012   8.631  13.594
89324SOL     OW69868  13.404   8.284   6.281
89324SOL    HW169869  13.381   8.193   6.265
89324SOL    HW269870  13.461   8.308   6.208
89325SOL     OW69871  13.783   6.223  12.574
89325SOL    HW169872  13.841   6.273  12.631
89325SOL    HW269873  13.707   6.279  12.560
89326SOL     OW69874   5.343  13.883   0.187
89326SOL    HW169875   5.408  13.834   0.137
89326SOL    HW269876   5.317  13.824   0.258
89327SOL     OW69877   0.901   8.576   3.346
89327SOL    HW169878   0.871   8.570   3.437
89327SOL    HW269879   0.905   8.670   3.328
89328SOL     OW69880   1.269   0.581   4.922
89328SOL    HW169881   1.214   0.624   4.856
89328SOL    HW269882   1.353   0.628   4.916
89329SOL     OW69883  13.002   3.880  13.812
89329SOL    HW169884  12.914   3.905  13.785
89329SOL    HW269885  12.990   3.841  13.898
89330SOL     OW69886   4.393   9.151  14.674
89330SOL    HW169887   4.340   9.077  14.704
89330SOL    HW269888   4.444   9.117  14.601
89331SOL     OW69889  12.110  11.530  13.904
89331SOL    HW169890  12.072  11.524  13.992
89331SOL    HW269891  12.081  11.615  13.872
89332SOL     OW69892   5.055   3.438   1.197
89332SOL    HW169893   5.103   3.430   1.279
89332SOL    HW269894   5.015   3.352   1.184
89333SOL     OW69895   0.710   5.088  14.153
89333SOL    HW169896   0.657   5.105  14.230
89333SOL    HW269897   0.789   5.046  14.187
89334SOL     OW69898   4.777  14.304  10.573
89334SOL    HW169899   4.847  14.264  10.624
89334SOL    HW269900   4.799  14.282  10.482
89335SOL     OW69901  13.444   3.452   4.551
89335SOL    HW169902  13.372   3.428   4.610
89335SOL    HW269903  13.522   3.454   4.606
89336SOL     OW69904   3.707   9.920   9.276
89336SOL    HW169905   3.642   9.882   9.217
89336SOL    HW269906   3.783   9.936   9.221
89337SOL     OW69907   4.699  13.193  12.103
89337SOL    HW169908   4.768  13.215  12.041
89337SOL    HW269909   4.727  13.111  12.143
89338SOL     OW69910  10.658   8.376  13.847
89338SOL    HW169911  10.663   8.351  13.940
89338SOL    HW269912  10.749   8.377  13.818
89339SOL     OW69913   2.870   5.940   6.429
89339SOL    HW169914   2.866   6.035   6.445
89339SOL    HW269915   2.923   5.907   6.501
89340SOL     OW69916   2.987   6.837   6.885
89340SOL    HW169917   2.904   6.848   6.838
89340SOL    HW269918   3.048   6.804   6.820
89341SOL     OW69919   2.901   1.593   4.200
89341SOL    HW169920   2.908   1.625   4.290
89341SOL    HW269921   2.843   1.657   4.157
89342SOL     OW69922   4.320   9.384   1.901
89342SOL    HW169923   4.243   9.418   1.946
89342SOL    HW269924   4.291   9.301   1.863
89343SOL     OW69925   0.386   3.050  14.656
89343SOL    HW169926   0.404   3.113  14.725
89343SOL    HW269927   0.395   3.100  14.575
89344SOL     OW69928  14.396  14.819  11.490
89344SOL    HW169929  14.392  14.831  11.395
89344SOL    HW269930  14.480  14.775  11.505
89345SOL     OW69931   5.471   0.101   8.063
89345SOL    HW169932   5.440   0.143   8.143
89345SOL    HW269933   5.438   0.011   8.069
89346SOL     OW69934  10.006   6.472   0.248
89346SOL    HW169935   9.920   6.433   0.263
89346SOL    HW269936  10.032   6.505   0.334
89347SOL     OW69937   0.273  10.610   5.457
89347SOL    HW169938   0.294  10.544   5.391
89347SOL    HW269939   0.227  10.679   5.410
89348SOL     OW69940   3.066   1.688  10.001
89348SOL    HW169941   3.046   1.615  10.060
89348SOL    HW269942   3.115   1.750  10.055
89349SOL     OW69943  13.542  10.040  13.391
89349SOL    HW169944  13.453  10.076  13.400
89349SOL    HW269945  13.531   9.963  13.336
89350SOL     OW69946  14.101  11.698   8.223
89350SOL    HW169947  14.176  11.709   8.281
89350SOL    HW269948  14.060  11.785   8.220
89351SOL     OW69949   3.462  12.434   2.270
89351SOL    HW169950   3.492  12.490   2.199
89351SOL    HW269951   3.476  12.344   2.238
89352SOL     OW69952   2.480   8.323  10.986
89352SOL    HW169953   2.501   8.414  10.967
89352SOL    HW269954   2.410   8.327  11.051
89353SOL     OW69955   4.021  12.784  13.844
89353SOL    HW169956   3.966  12.721  13.891
89353SOL    HW269957   4.024  12.861  13.900
89354SOL     OW69958   3.674   0.374  10.092
89354SOL    HW169959   3.626   0.397  10.171
89354SOL    HW269960   3.659   0.447  10.032
89355SOL     OW69961  13.502  13.865   4.147
89355SOL    HW169962  13.487  13.790   4.204
89355SOL    HW269963  13.428  13.924   4.164
89356SOL     OW69964  11.281   0.820   5.781
89356SOL    HW169965  11.293   0.894   5.840
89356SOL    HW269966  11.228   0.757   5.830
89357SOL     OW69967   2.889   3.833   2.865
89357SOL    HW169968   2.925   3.790   2.787
89357SOL    HW269969   2.881   3.926   2.840
89358SOL     OW69970  14.550  12.331   4.189
89358SOL    HW169971  14.520  12.344   4.279
89358SOL    HW269972  14.606  12.253   4.193
89359SOL     OW69973   1.317  10.975   7.165
89359SOL    HW169974   1.265  10.934   7.095
89359SOL    HW269975   1.401  10.931   7.161
89360SOL     OW69976  13.363   9.435   6.686
89360SOL    HW169977  13.365   9.402   6.597
89360SOL    HW269978  13.316   9.519   6.679
89361SOL     OW69979   1.675   1.747   9.282
89361SOL    HW169980   1.746   1.729   9.220
89361SOL    HW269981   1.596   1.750   9.229
89362SOL     OW69982  13.755   5.808  14.300
89362SOL    HW169983  13.732   5.732  14.353
89362SOL    HW269984  13.774   5.773  14.213
89363SOL     OW69985   6.661  12.087  14.688
89363SOL    HW169986   6.710  12.031  14.627
89363SOL    HW269987   6.721  12.102  14.760
89364SOL     OW69988  10.730  12.428   1.344
89364SOL    HW169989  10.701  12.518   1.362
89364SOL    HW269990  10.806  12.439   1.287
89365SOL     OW69991   5.794   1.013   1.013
89365SOL    HW169992   5.783   1.093   0.962
89365SOL    HW269993   5.886   0.990   1.002
89366SOL     OW69994  12.476  11.149   5.777
89366SOL    HW169995  12.393  11.102   5.770
89366SOL    HW269996  12.496  11.178   5.688
89367SOL     OW69997  10.033  10.467   0.737
89367SOL    HW169998  10.083  10.485   0.657
89367SOL    HW269999   9.955  10.521   0.730
89368SOL     OW70000  11.964   1.198   9.622
89368SOL    HW170001  11.922   1.231   9.543
89368SOL    HW270002  11.982   1.106   9.604
89369SOL     OW70003   4.680   5.135   7.966
89369SOL    HW170004   4.604   5.188   7.942
89369SOL    HW270005   4.705   5.166   8.053
89370SOL     OW70006  10.678  13.804   3.198
89370SOL    HW170007  10.671  13.724   3.147
89370SOL    HW270008  10.735  13.782   3.272
89371SOL     OW70009   8.635   7.479   1.796
89371SOL    HW170010   8.708   7.507   1.741
89371SOL    HW270011   8.643   7.533   1.875
89372SOL     OW70012  14.149   6.210   8.238
89372SOL    HW170013  14.147   6.131   8.291
89372SOL    HW270014  14.160   6.281   8.301
89373SOL     OW70015  14.027   1.765  11.396
89373SOL    HW170016  13.962   1.757  11.326
89373SOL    HW270017  13.983   1.818  11.463
89374SOL     OW70018   9.691   7.045   7.609
89374SOL    HW170019   9.681   7.124   7.662
89374SOL    HW270020   9.722   7.076   7.524
89375SOL     OW70021   2.641   0.974  14.421
89375SOL    HW170022   2.637   0.952  14.328
89375SOL    HW270023   2.721   0.932  14.453
89376SOL     OW70024  14.415   6.455   2.805
89376SOL    HW170025  14.490   6.513   2.794
89376SOL    HW270026  14.339   6.510   2.787
89377SOL     OW70027   3.624   3.999  13.041
89377SOL    HW170028   3.621   4.063  12.971
89377SOL    HW270029   3.612   4.050  13.121
89378SOL     OW70030  11.332   6.599  13.519
89378SOL    HW170031  11.344   6.591  13.614
89378SOL    HW270032  11.281   6.522  13.495
89379SOL     OW70033   3.713   7.517  13.863
89379SOL    HW170034   3.778   7.502  13.794
89379SOL    HW270035   3.670   7.432  13.875
89380SOL     OW70036  14.863   1.132   0.991
89380SOL    HW170037  14.849   1.190   0.916
89380SOL    HW270038   0.025   1.186   1.056
89381SOL     OW70039   5.297   0.003   8.394
89381SOL    HW170040   5.338   0.073   8.445
89381SOL    HW270041   5.227   0.047   8.346
89382SOL     OW70042   3.337   0.011   2.313
89382SOL    HW170043   3.375   0.066   2.244
89382SOL    HW270044   3.248   0.045   2.325
89383SOL     OW70045   9.436   6.626   1.232
89383SOL    HW170046   9.383   6.566   1.284
89383SOL    HW270047   9.476   6.685   1.297
89384SOL     OW70048   8.183   1.410   6.136
89384SOL    HW170049   8.140   1.478   6.187
89384SOL    HW270050   8.208   1.344   6.200
89385SOL     OW70051   6.516   9.585   8.003
89385SOL    HW170052   6.593   9.633   7.971
89385SOL    HW270053   6.516   9.503   7.954
89386SOL     OW70054   5.259   6.456   3.129
89386SOL    HW170055   5.289   6.545   3.113
89386SOL    HW270056   5.277   6.440   3.222
89387SOL     OW70057  14.207   1.669   2.670
89387SOL    HW170058  14.211   1.762   2.649
89387SOL    HW270059  14.285   1.631   2.629
89388SOL     OW70060   8.886   9.890   2.423
89388SOL    HW170061   8.946   9.845   2.364
89388SOL    HW270062   8.859   9.824   2.487
89389SOL     OW70063   8.951   7.465  11.658
89389SOL    HW170064   8.883   7.530  11.640
89389SOL    HW270065   9.000   7.502  11.732
89390SOL     OW70066  10.048   2.615   9.099
89390SOL    HW170067   9.996   2.661   9.165
89390SOL    HW270068  10.128   2.590   9.145
89391SOL     OW70069   9.355   3.268  11.690
89391SOL    HW170070   9.442   3.299  11.716
89391SOL    HW270071   9.294   3.330  11.730
89392SOL     OW70072   4.111   1.901  11.764
89392SOL    HW170073   4.205   1.900  11.785
89392SOL    HW270074   4.082   1.811  11.780
89393SOL     OW70075   6.793   0.437  11.757
89393SOL    HW170076   6.722   0.482  11.711
89393SOL    HW270077   6.771   0.448  11.850
89394SOL     OW70078   6.154   8.007   3.744
89394SOL    HW170079   6.079   7.958   3.778
89394SOL    HW270080   6.123   8.098   3.738
89395SOL     OW70081  11.074  11.161  14.323
89395SOL    HW170082  11.152  11.121  14.287
89395SOL    HW270083  11.030  11.091  14.372
89396SOL     OW70084   8.756  13.286  11.749
89396SOL    HW170085   8.832  13.229  11.758
89396SOL    HW270086   8.688  13.246  11.804
89397SOL     OW70087  13.356   6.602  10.487
89397SOL    HW170088  13.304   6.577  10.563
89397SOL    HW270089  13.296   6.597  10.413
89398SOL     OW70090   7.213  12.339  13.512
89398SOL    HW170091   7.246  12.372  13.596
89398SOL    HW270092   7.121  12.321  13.527
89399SOL     OW70093   8.100   8.775  10.514
89399SOL    HW170094   8.180   8.783  10.567
89399SOL    HW270095   8.116   8.701  10.456
89400SOL     OW70096   9.516  10.292  12.330
89400SOL    HW170097   9.533  10.202  12.358
89400SOL    HW270098   9.500  10.285  12.236
89401SOL     OW70099  12.940   2.451  13.509
89401SOL    HW170100  13.015   2.450  13.449
89401SOL    HW270101  12.867   2.481  13.457
89402SOL     OW70102   0.296   8.432   1.257
89402SOL    HW170103   0.214   8.383   1.254
89402SOL    HW270104   0.296   8.481   1.175
89403SOL     OW70105   3.513  10.862  14.877
89403SOL    HW170106   3.599  10.886  14.845
89403SOL    HW270107   3.458  10.860  14.799
89404SOL     OW70108   9.819  13.455   8.554
89404SOL    HW170109   9.882  13.495   8.615
89404SOL    HW270110   9.857  13.369   8.534
89405SOL     OW70111   4.373   9.905   3.404
89405SOL    HW170112   4.433   9.959   3.456
89405SOL    HW270113   4.431   9.847   3.354
89406SOL     OW70114  11.950   2.978   1.743
89406SOL    HW170115  11.942   3.067   1.709
89406SOL    HW270116  11.862   2.941   1.734
89407SOL     OW70117  11.343   0.578  12.457
89407SOL    HW170118  11.436   0.575  12.479
89407SOL    HW270119  11.299   0.545  12.535
89408SOL     OW70120   0.258   0.313   9.415
89408SOL    HW170121   0.282   0.402   9.387
89408SOL    HW270122   0.234   0.322   9.507
89409SOL     OW70123   9.511  10.725  11.822
89409SOL    HW170124   9.421  10.701  11.844
89409SOL    HW270125   9.525  10.810  11.865
89410SOL     OW70126   4.831   4.606   6.334
89410SOL    HW170127   4.836   4.656   6.253
89410SOL    HW270128   4.892   4.534   6.323
89411SOL     OW70129   3.075   4.248   2.735
89411SOL    HW170130   3.078   4.336   2.774
89411SOL    HW270131   3.150   4.202   2.774
89412SOL     OW70132   6.609   9.664   1.618
89412SOL    HW170133   6.569   9.653   1.532
89412SOL    HW270134   6.656   9.582   1.633
89413SOL     OW70135   1.408   2.817   5.584
89413SOL    HW170136   1.460   2.886   5.543
89413SOL    HW270137   1.472   2.748   5.603
89414SOL     OW70138   4.042   4.531   3.320
89414SOL    HW170139   4.104   4.488   3.379
89414SOL    HW270140   3.960   4.534   3.370
89415SOL     OW70141  12.750   4.866   9.074
89415SOL    HW170142  12.735   4.933   9.007
89415SOL    HW270143  12.683   4.799   9.058
89416SOL     OW70144   3.704   3.798   6.028
89416SOL    HW170145   3.648   3.860   6.075
89416SOL    HW270146   3.667   3.712   6.050
89417SOL     OW70147  13.247  11.892   8.219
89417SOL    HW170148  13.299  11.946   8.277
89417SOL    HW270149  13.163  11.937   8.213
89418SOL     OW70150   1.324   1.524   4.422
89418SOL    HW170151   1.394   1.518   4.487
89418SOL    HW270152   1.296   1.616   4.425
89419SOL     OW70153   9.350   4.149   5.036
89419SOL    HW170154   9.263   4.116   5.013
89419SOL    HW270155   9.343   4.175   5.127
89420SOL     OW70156  11.902   3.867   2.033
89420SOL    HW170157  11.821   3.903   2.068
89420SOL    HW270158  11.892   3.872   1.938
89421SOL     OW70159   5.531   0.620  12.376
89421SOL    HW170160   5.467   0.673  12.424
89421SOL    HW270161   5.609   0.675  12.371
89422SOL     OW70162   0.725   6.067   2.321
89422SOL    HW170163   0.769   6.047   2.403
89422SOL    HW270164   0.643   6.109   2.347
89423SOL     OW70165   1.515   5.648   1.156
89423SOL    HW170166   1.455   5.602   1.097
89423SOL    HW270167   1.600   5.606   1.140
89424SOL     OW70168  11.716   9.692   4.569
89424SOL    HW170169  11.682   9.605   4.590
89424SOL    HW270170  11.639   9.743   4.547
89425SOL     OW70171  10.280  11.976   8.146
89425SOL    HW170172  10.274  11.932   8.061
89425SOL    HW270173  10.208  11.939   8.197
89426SOL     OW70174   4.353   5.563   0.218
89426SOL    HW170175   4.299   5.500   0.266
89426SOL    HW270176   4.323   5.556   0.128
89427SOL     OW70177   8.568   2.677   9.497
89427SOL    HW170178   8.536   2.681   9.587
89427SOL    HW270179   8.518   2.605   9.457
89428SOL     OW70180  10.257   7.134  12.049
89428SOL    HW170181  10.247   7.224  12.081
89428SOL    HW270182  10.289   7.085  12.125
89429SOL     OW70183   1.529   8.498   6.469
89429SOL    HW170184   1.463   8.543   6.521
89429SOL    HW270185   1.609   8.502   6.522
89430SOL     OW70186   1.057   9.673  12.526
89430SOL    HW170187   1.125   9.615  12.491
89430SOL    HW270188   1.105   9.735  12.581
89431SOL     OW70189   6.140   0.333   3.041
89431SOL    HW170190   6.176   0.343   3.129
89431SOL    HW270191   6.045   0.332   3.053
89432SOL     OW70192   9.631  12.694   4.387
89432SOL    HW170193   9.542  12.662   4.376
89432SOL    HW270194   9.662  12.712   4.298
89433SOL     OW70195   4.358   9.395   2.852
89433SOL    HW170196   4.317   9.469   2.808
89433SOL    HW270197   4.291   9.328   2.855
89434SOL     OW70198   9.655  14.419  11.808
89434SOL    HW170199   9.637  14.418  11.714
89434SOL    HW270200   9.713  14.344  11.822
89435SOL     OW70201   6.474   5.361   1.551
89435SOL    HW170202   6.489   5.269   1.529
89435SOL    HW270203   6.561   5.393   1.577
89436SOL     OW70204   2.516   3.804   1.967
89436SOL    HW170205   2.491   3.859   2.041
89436SOL    HW270206   2.596   3.759   1.996
89437SOL     OW70207   9.195   9.445   8.072
89437SOL    HW170208   9.146   9.423   7.993
89437SOL    HW270209   9.138   9.505   8.119
89438SOL     OW70210   1.978  14.734  14.100
89438SOL    HW170211   2.066  14.768  14.083
89438SOL    HW270212   1.938  14.725  14.014
89439SOL     OW70213  13.902   3.427   2.856
89439SOL    HW170214  13.951   3.445   2.776
89439SOL    HW270215  13.928   3.497   2.916
89440SOL     OW70216   5.719   9.347  13.672
89440SOL    HW170217   5.692   9.383  13.756
89440SOL    HW270218   5.658   9.385  13.609
89441SOL     OW70219   9.872   7.310  14.798
89441SOL    HW170220   9.845   7.235  14.744
89441SOL    HW270221   9.936   7.273  14.859
89442SOL     OW70222  11.357   0.966   7.032
89442SOL    HW170223  11.417   1.038   7.015
89442SOL    HW270224  11.287   1.006   7.084
89443SOL     OW70225   8.358  12.054   6.963
89443SOL    HW170226   8.366  11.975   6.909
89443SOL    HW270227   8.266  12.079   6.955
89444SOL     OW70228   9.598   6.635  13.359
89444SOL    HW170229   9.572   6.688  13.283
89444SOL    HW270230   9.632   6.699  13.422
89445SOL     OW70231  11.575  13.709   6.663
89445SOL    HW170232  11.535  13.795   6.652
89445SOL    HW270233  11.664  13.720   6.629
89446SOL     OW70234   9.188  12.752   3.388
89446SOL    HW170235   9.169  12.832   3.337
89446SOL    HW270236   9.261  12.711   3.341
89447SOL     OW70237  11.529   6.596  11.650
89447SOL    HW170238  11.555   6.674  11.699
89447SOL    HW270239  11.460   6.627  11.592
89448SOL     OW70240   6.117   1.203   3.090
89448SOL    HW170241   6.054   1.134   3.069
89448SOL    HW270242   6.184   1.197   3.022
89449SOL     OW70243   5.973   4.828   2.347
89449SOL    HW170244   5.935   4.879   2.418
89449SOL    HW270245   5.912   4.756   2.334
89450SOL     OW70246   7.972  12.130   2.338
89450SOL    HW170247   7.915  12.094   2.270
89450SOL    HW270248   8.060  12.126   2.301
89451SOL     OW70249  10.974  11.417   6.799
89451SOL    HW170250  10.892  11.466   6.790
89451SOL    HW270251  10.986  11.374   6.714
89452SOL     OW70252  14.351   4.190   9.323
89452SOL    HW170253  14.416   4.226   9.263
89452SOL    HW270254  14.305   4.123   9.271
89453SOL     OW70255   9.210  11.364   6.865
89453SOL    HW170256   9.290  11.400   6.827
89453SOL    HW270257   9.192  11.420   6.941
89454SOL     OW70258  12.660  11.795  12.850
89454SOL    HW170259  12.715  11.820  12.924
89454SOL    HW270260  12.579  11.763  12.891
89455SOL     OW70261   9.671   9.934   3.672
89455SOL    HW170262   9.664   9.970   3.760
89455SOL    HW270263   9.735   9.863   3.679
89456SOL     OW70264  12.629  14.344   8.687
89456SOL    HW170265  12.653  14.433   8.661
89456SOL    HW270266  12.533  14.344   8.684
89457SOL     OW70267   5.488   1.565  10.809
89457SOL    HW170268   5.439   1.484  10.822
89457SOL    HW270269   5.445   1.608  10.736
89458SOL     OW70270   4.813   5.646  10.195
89458SOL    HW170271   4.879   5.576  10.198
89458SOL    HW270272   4.756   5.623  10.123
89459SOL     OW70273  12.666  11.960  14.827
89459SOL    HW170274  12.707  11.897   0.004
89459SOL    HW270275  12.619  11.905  14.764
89460SOL     OW70276   8.028  13.028   3.426
89460SOL    HW170277   8.075  13.053   3.346
89460SOL    HW270278   8.098  13.011   3.490
89461SOL     OW70279   7.343   5.546   9.587
89461SOL    HW170280   7.256   5.561   9.551
89461SOL    HW270281   7.326   5.512   9.676
89462SOL     OW70282   3.832   9.788   9.951
89462SOL    HW170283   3.770   9.821   9.885
89462SOL    HW270284   3.883   9.722   9.904
89463SOL     OW70285   0.508   8.883   6.802
89463SOL    HW170286   0.531   8.844   6.717
89463SOL    HW270287   0.462   8.964   6.779
89464SOL     OW70288   1.111   4.637   9.882
89464SOL    HW170289   1.127   4.712   9.939
89464SOL    HW270290   1.176   4.645   9.813
89465SOL     OW70291   4.832  11.526   6.226
89465SOL    HW170292   4.847  11.520   6.320
89465SOL    HW270293   4.896  11.589   6.195
89466SOL     OW70294   8.521   9.978   4.090
89466SOL    HW170295   8.451  10.043   4.093
89466SOL    HW270296   8.476   9.895   4.078
89467SOL     OW70297   9.167   2.605   6.494
89467SOL    HW170298   9.164   2.656   6.413
89467SOL    HW270299   9.248   2.631   6.536
89468SOL     OW70300   0.422  12.614  13.062
89468SOL    HW170301   0.417  12.520  13.076
89468SOL    HW270302   0.510  12.629  13.028
89469SOL     OW70303  14.230  13.802   1.589
89469SOL    HW170304  14.175  13.881   1.583
89469SOL    HW270305  14.298  13.815   1.523
89470SOL     OW70306   0.713   4.873  14.692
89470SOL    HW170307   0.644   4.827  14.644
89470SOL    HW270308   0.789   4.816  14.684
89471SOL     OW70309   1.537  14.508   4.560
89471SOL    HW170310   1.478  14.571   4.520
89471SOL    HW270311   1.482  14.433   4.581
89472SOL     OW70312  14.830  11.508  14.667
89472SOL    HW170313  14.814  11.417  14.692
89472SOL    HW270314  14.860  11.550  14.748
89473SOL     OW70315   2.321   0.019   8.631
89473SOL    HW170316   2.374  14.843   8.685
89473SOL    HW270317   2.362   0.015   8.544
89474SOL     OW70318  14.013   8.826   8.339
89474SOL    HW170319  13.946   8.774   8.294
89474SOL    HW270320  14.001   8.806   8.431
89475SOL     OW70321   6.482   2.433  13.117
89475SOL    HW170322   6.457   2.430  13.210
89475SOL    HW270323   6.572   2.465  13.118
89476SOL     OW70324   6.771   1.047   5.339
89476SOL    HW170325   6.757   1.044   5.434
89476SOL    HW270326   6.800   0.958   5.317
89477SOL     OW70327   4.382   2.631   4.641
89477SOL    HW170328   4.391   2.718   4.679
89477SOL    HW270329   4.295   2.631   4.600
89478SOL     OW70330   0.612   6.758  13.715
89478SOL    HW170331   0.614   6.796  13.627
89478SOL    HW270332   0.621   6.832  13.774
89479SOL     OW70333  14.200   7.594   7.103
89479SOL    HW170334  14.269   7.621   7.042
89479SOL    HW270335  14.211   7.499   7.112
89480SOL     OW70336  12.270   0.839   0.160
89480SOL    HW170337  12.297   0.829   0.251
89480SOL    HW270338  12.306   0.763   0.115
89481SOL     OW70339  14.512   6.275   7.702
89481SOL    HW170340  14.507   6.206   7.768
89481SOL    HW270341  14.538   6.230   7.622
89482SOL     OW70342   5.102   4.177   5.038
89482SOL    HW170343   5.042   4.104   5.053
89482SOL    HW270344   5.050   4.255   5.056
89483SOL     OW70345   9.625   5.137  13.063
89483SOL    HW170346   9.574   5.118  13.141
89483SOL    HW270347   9.686   5.205  13.091
89484SOL     OW70348   7.031  10.927   6.336
89484SOL    HW170349   7.122  10.931   6.365
89484SOL    HW270350   7.037  10.924   6.240
89485SOL     OW70351   0.164   8.452  14.679
89485SOL    HW170352   0.091   8.494  14.724
89485SOL    HW270353   0.156   8.481  14.588
89486SOL     OW70354  12.850   8.804  13.969
89486SOL    HW170355  12.791   8.791  13.895
89486SOL    HW270356  12.807   8.758  14.042
89487SOL     OW70357   4.757  10.075  14.875
89487SOL    HW170358   4.785  10.036  14.792
89487SOL    HW270359   4.801  10.022   0.060
89488SOL     OW70360  11.165   6.290   2.768
89488SOL    HW170361  11.074   6.268   2.784
89488SOL    HW270362  11.209   6.206   2.756
89489SOL     OW70363   1.705  10.740   0.438
89489SOL    HW170364   1.781  10.712   0.489
89489SOL    HW270365   1.730  10.724   0.347
89490SOL     OW70366  11.190   2.918   2.219
89490SOL    HW170367  11.182   2.957   2.306
89490SOL    HW270368  11.277   2.943   2.189
89491SOL     OW70369   9.849   1.651   4.628
89491SOL    HW170370   9.868   1.692   4.544
89491SOL    HW270371   9.933   1.652   4.674
89492SOL     OW70372  14.528   4.533  13.732
89492SOL    HW170373  14.573   4.529  13.817
89492SOL    HW270374  14.465   4.605  13.742
89493SOL     OW70375   1.972  14.880   0.770
89493SOL    HW170376   1.963   0.090   0.748
89493SOL    HW270377   1.883  14.846   0.767
89494SOL     OW70378  11.175   8.872   4.732
89494SOL    HW170379  11.194   8.955   4.777
89494SOL    HW270380  11.142   8.814   4.801
89495SOL     OW70381  12.119   3.624   6.661
89495SOL    HW170382  12.094   3.701   6.712
89495SOL    HW270383  12.039   3.573   6.652
89496SOL     OW70384  11.717   0.572  13.781
89496SOL    HW170385  11.802   0.557  13.738
89496SOL    HW270386  11.672   0.487  13.775
89497SOL     OW70387   1.028   3.012   8.249
89497SOL    HW170388   1.005   3.020   8.342
89497SOL    HW270389   1.123   3.015   8.248
89498SOL     OW70390  12.979   1.947   3.632
89498SOL    HW170391  13.027   1.965   3.551
89498SOL    HW270392  12.891   1.923   3.602
89499SOL     OW70393   4.625  13.177   0.933
89499SOL    HW170394   4.555  13.114   0.919
89499SOL    HW270395   4.699  13.125   0.965
89500SOL     OW70396   5.554   7.777  10.479
89500SOL    HW170397   5.614   7.726  10.532
89500SOL    HW270398   5.512   7.837  10.542
89501SOL     OW70399  12.655   3.577   3.413
89501SOL    HW170400  12.746   3.596   3.438
89501SOL    HW270401  12.660   3.556   3.320
89502SOL     OW70402  11.888  10.455   6.135
89502SOL    HW170403  11.973  10.479   6.173
89502SOL    HW270404  11.907  10.437   6.043
89503SOL     OW70405   4.832   6.095   2.120
89503SOL    HW170406   4.867   6.013   2.085
89503SOL    HW270407   4.909   6.145   2.147
89504SOL     OW70408   3.189   7.151   5.111
89504SOL    HW170409   3.251   7.224   5.116
89504SOL    HW270410   3.195   7.120   5.021
89505SOL     OW70411   8.101   0.788   4.178
89505SOL    HW170412   8.020   0.809   4.224
89505SOL    HW270413   8.146   0.873   4.170
89506SOL     OW70414   7.492  12.357   7.502
89506SOL    HW170415   7.462  12.321   7.585
89506SOL    HW270416   7.493  12.451   7.515
89507SOL     OW70417   8.783   4.027  11.907
89507SOL    HW170418   8.789   4.021  11.811
89507SOL    HW270419   8.699   3.987  11.928
89508SOL     OW70420  14.078   1.672  11.835
89508SOL    HW170421  14.080   1.766  11.819
89508SOL    HW270422  13.985   1.649  11.835
89509SOL     OW70423  14.660   7.174   1.153
89509SOL    HW170424  14.627   7.196   1.240
89509SOL    HW270425  14.646   7.080   1.144
89510SOL     OW70426   6.606   3.531  14.255
89510SOL    HW170427   6.670   3.471  14.218
89510SOL    HW270428   6.548   3.475  14.307
89511SOL     OW70429  11.519   9.519  13.757
89511SOL    HW170430  11.497   9.507  13.849
89511SOL    HW270431  11.510   9.431  13.719
89512SOL     OW70432   0.482  12.555  13.358
89512SOL    HW170433   0.414  12.500  13.320
89512SOL    HW270434   0.516  12.606  13.285
89513SOL     OW70435   5.341   6.697  12.747
89513SOL    HW170436   5.416   6.754  12.735
89513SOL    HW270437   5.353   6.626  12.684
89514SOL     OW70438   1.960   7.949   4.686
89514SOL    HW170439   1.989   7.997   4.763
89514SOL    HW270440   2.040   7.913   4.648
89515SOL     OW70441   7.900   4.614   6.913
89515SOL    HW170442   7.865   4.673   6.846
89515SOL    HW270443   7.993   4.609   6.894
89516SOL     OW70444   8.701  12.998   5.251
89516SOL    HW170445   8.774  13.053   5.277
89516SOL    HW270446   8.673  13.032   5.166
89517SOL     OW70447   7.703   5.149   7.484
89517SOL    HW170448   7.624   5.133   7.432
89517SOL    HW270449   7.673   5.203   7.556
89518SOL     OW70450   3.734   3.342   0.825
89518SOL    HW170451   3.740   3.260   0.873
89518SOL    HW270452   3.796   3.333   0.753
89519SOL     OW70453   6.990   3.198   8.021
89519SOL    HW170454   6.925   3.254   7.979
89519SOL    HW270455   7.071   3.250   8.020
89520SOL     OW70456   8.632  13.245   2.625
89520SOL    HW170457   8.588  13.323   2.592
89520SOL    HW270458   8.725  13.264   2.616
89521SOL     OW70459  11.509   5.495  12.115
89521SOL    HW170460  11.449   5.569  12.109
89521SOL    HW270461  11.596   5.534  12.122
89522SOL     OW70462   6.851  12.846  10.694
89522SOL    HW170463   6.922  12.813  10.639
89522SOL    HW270464   6.892  12.862  10.779
89523SOL     OW70465   7.576   7.201   6.874
89523SOL    HW170466   7.609   7.132   6.816
89523SOL    HW270467   7.482   7.186   6.879
89524SOL     OW70468   6.845  12.476   8.056
89524SOL    HW170469   6.837  12.473   7.960
89524SOL    HW270470   6.818  12.388   8.084
89525SOL     OW70471   9.902   3.049  10.794
89525SOL    HW170472   9.910   3.030  10.700
89525SOL    HW270473   9.807   3.049  10.810
89526SOL     OW70474   2.189   2.160   8.699
89526SOL    HW170475   2.213   2.252   8.693
89526SOL    HW270476   2.197   2.127   8.610
89527SOL     OW70477  13.316   0.404  14.568
89527SOL    HW170478  13.252   0.356  14.620
89527SOL    HW270479  13.266   0.444  14.497
89528SOL     OW70480   6.478   8.255   1.752
89528SOL    HW170481   6.558   8.204   1.759
89528SOL    HW270482   6.426   8.228   1.827
89529SOL     OW70483   5.143   7.702   7.338
89529SOL    HW170484   5.101   7.632   7.289
89529SOL    HW270485   5.207   7.658   7.393
89530SOL     OW70486   8.669   6.204  11.219
89530SOL    HW170487   8.608   6.249  11.160
89530SOL    HW270488   8.645   6.235  11.306
89531SOL     OW70489   9.626   6.130   5.700
89531SOL    HW170490   9.557   6.063   5.701
89531SOL    HW270491   9.585   6.206   5.660
89532SOL     OW70492   2.843  10.676   6.856
89532SOL    HW170493   2.840  10.724   6.938
89532SOL    HW270494   2.826  10.585   6.881
89533SOL     OW70495   7.116   1.217  12.557
89533SOL    HW170496   7.195   1.257  12.523
89533SOL    HW270497   7.145   1.135  12.597
89534SOL     OW70498   4.118   8.005  10.068
89534SOL    HW170499   4.197   8.008  10.122
89534SOL    HW270500   4.050   7.973  10.127
89535SOL     OW70501  13.752   7.428   7.620
89535SOL    HW170502  13.661   7.430   7.647
89535SOL    HW270503  13.753   7.476   7.536
89536SOL     OW70504   1.110   6.177   2.629
89536SOL    HW170505   1.172   6.174   2.555
89536SOL    HW270506   1.143   6.248   2.684
89537SOL     OW70507   5.547   1.666  12.217
89537SOL    HW170508   5.620   1.682  12.157
89537SOL    HW270509   5.476   1.721  12.182
89538SOL     OW70510   2.133   8.783   7.501
89538SOL    HW170511   2.128   8.761   7.408
89538SOL    HW270512   2.212   8.836   7.509
89539SOL     OW70513   9.781  11.438  14.839
89539SOL    HW170514   9.809  11.348  14.855
89539SOL    HW270515   9.699  11.447   0.006
89540SOL     OW70516   8.121   3.128   7.278
89540SOL    HW170517   8.094   3.037   7.265
89540SOL    HW270518   8.084   3.174   7.203
89541SOL     OW70519  11.014  11.333   0.082
89541SOL    HW170520  11.019  11.258   0.141
89541SOL    HW270521  11.089  11.388   0.107
89542SOL     OW70522   2.587  11.746   1.561
89542SOL    HW170523   2.663  11.748   1.503
89542SOL    HW270524   2.623  11.740   1.649
89543SOL     OW70525   2.104   7.203   2.459
89543SOL    HW170526   2.147   7.286   2.482
89543SOL    HW270527   2.162   7.135   2.494
89544SOL     OW70528   9.971   5.266   8.429
89544SOL    HW170529   9.913   5.192   8.449
89544SOL    HW270530   9.928   5.312   8.357
89545SOL     OW70531  10.462   4.478   2.211
89545SOL    HW170532  10.477   4.396   2.257
89545SOL    HW270533  10.370   4.498   2.228
89546SOL     OW70534  10.144   5.667   7.943
89546SOL    HW170535  10.143   5.627   8.029
89546SOL    HW270536  10.069   5.628   7.897
89547SOL     OW70537  13.331  11.346  10.154
89547SOL    HW170538  13.367  11.398  10.082
89547SOL    HW270539  13.403  11.289  10.180
89548SOL     OW70540  14.241   0.411   2.652
89548SOL    HW170541  14.261   0.346   2.720
89548SOL    HW270542  14.152   0.391   2.625
89549SOL     OW70543  11.810   5.662   7.910
89549SOL    HW170544  11.767   5.620   7.985
89549SOL    HW270545  11.804   5.598   7.840
89550SOL     OW70546   0.011   3.703  12.986
89550SOL    HW170547  14.875   3.615  12.952
89550SOL    HW270548  14.830   3.715  13.057
89551SOL     OW70549   9.773  12.779   6.117
89551SOL    HW170550   9.788  12.758   6.209
89551SOL    HW270551   9.782  12.874   6.112
89552SOL     OW70552   0.510   8.557  11.891
89552SOL    HW170553   0.572   8.613  11.938
89552SOL    HW270554   0.462   8.512  11.960
89553SOL     OW70555  12.103   8.240   0.648
89553SOL    HW170556  12.019   8.217   0.687
89553SOL    HW270557  12.162   8.250   0.723
89554SOL     OW70558   7.220   3.891   2.142
89554SOL    HW170559   7.203   3.875   2.235
89554SOL    HW270560   7.156   3.957   2.116
89555SOL     OW70561   4.352   8.874   2.309
89555SOL    HW170562   4.362   8.874   2.214
89555SOL    HW270563   4.440   8.863   2.343
89556SOL     OW70564   9.997   6.394  14.355
89556SOL    HW170565  10.088   6.402  14.385
89556SOL    HW270566  10.001   6.413  14.261
89557SOL     OW70567   9.865  14.542   8.131
89557SOL    HW170568   9.851  14.592   8.212
89557SOL    HW270569   9.815  14.590   8.064
89558SOL     OW70570   2.024   6.581  10.700
89558SOL    HW170571   1.977   6.661  10.678
89558SOL    HW270572   2.045   6.589  10.793
89559SOL     OW70573   1.152  13.657   1.032
89559SOL    HW170574   1.073  13.603   1.023
89559SOL    HW270575   1.129  13.721   1.100
89560SOL     OW70576   2.477   9.664  11.738
89560SOL    HW170577   2.527   9.586  11.759
89560SOL    HW270578   2.517   9.733  11.790
89561SOL     OW70579   9.355   4.781  14.064
89561SOL    HW170580   9.431   4.738  14.025
89561SOL    HW270581   9.280   4.742  14.020
89562SOL     OW70582  13.859   1.551   8.301
89562SOL    HW170583  13.791   1.512   8.246
89562SOL    HW270584  13.928   1.575   8.239
89563SOL     OW70585   3.363   4.715   3.283
89563SOL    HW170586   3.413   4.639   3.255
89563SOL    HW270587   3.322   4.688   3.365
89564SOL     OW70588   2.331  14.573  12.686
89564SOL    HW170589   2.390  14.498  12.694
89564SOL    HW270590   2.323  14.588  12.592
89565SOL     OW70591   5.291   9.636  11.609
89565SOL    HW170592   5.248   9.557  11.641
89565SOL    HW270593   5.239   9.708  11.646
89566SOL     OW70594  12.269   8.843   3.360
89566SOL    HW170595  12.305   8.824   3.272
89566SOL    HW270596  12.297   8.932   3.378
89567SOL     OW70597  11.561   7.541   8.025
89567SOL    HW170598  11.545   7.487   7.947
89567SOL    HW270599  11.553   7.481   8.098
89568SOL     OW70600  12.740   8.954   7.876
89568SOL    HW170601  12.705   9.021   7.818
89568SOL    HW270602  12.769   8.884   7.817
89569SOL     OW70603   4.757   9.925   1.656
89569SOL    HW170604   4.685   9.980   1.623
89569SOL    HW270605   4.782   9.871   1.581
89570SOL     OW70606   8.336   2.408   3.233
89570SOL    HW170607   8.314   2.498   3.211
89570SOL    HW270608   8.341   2.362   3.149
89571SOL     OW70609  14.308  13.955   1.836
89571SOL    HW170610  14.269  13.884   1.887
89571SOL    HW270611  14.401  13.932   1.830
89572SOL     OW70612   1.136   3.663  13.260
89572SOL    HW170613   1.147   3.623  13.346
89572SOL    HW270614   1.042   3.682  13.255
89573SOL     OW70615  13.922  11.281  11.637
89573SOL    HW170616  13.905  11.320  11.723
89573SOL    HW270617  13.936  11.188  11.655
89574SOL     OW70618   3.234  13.746   7.463
89574SOL    HW170619   3.233  13.725   7.556
89574SOL    HW270620   3.326  13.742   7.438
89575SOL     OW70621   6.765  12.481  13.566
89575SOL    HW170622   6.716  12.492  13.647
89575SOL    HW270623   6.786  12.387  13.562
89576SOL     OW70624   1.014  14.821   2.723
89576SOL    HW170625   1.023  14.726   2.732
89576SOL    HW270626   1.001  14.853   2.813
89577SOL     OW70627   6.334   4.330   1.191
89577SOL    HW170628   6.410   4.381   1.163
89577SOL    HW270629   6.292   4.384   1.258
89578SOL     OW70630   6.541   1.928  12.109
89578SOL    HW170631   6.634   1.919  12.092
89578SOL    HW270632   6.509   1.986  12.040
89579SOL     OW70633  11.511   9.033   8.602
89579SOL    HW170634  11.593   9.066   8.564
89579SOL    HW270635  11.450   9.029   8.529
89580SOL     OW70636   7.413   3.152   5.184
89580SOL    HW170637   7.362   3.226   5.216
89580SOL    HW270638   7.447   3.181   5.099
89581SOL     OW70639   8.259   8.883   7.537
89581SOL    HW170640   8.232   8.972   7.514
89581SOL    HW270641   8.251   8.834   7.456
89582SOL     OW70642   9.428   5.271  11.013
89582SOL    HW170643   9.517   5.243  10.992
89582SOL    HW270644   9.374   5.235  10.942
89583SOL     OW70645  13.729   6.377   7.819
89583SOL    HW170646  13.674   6.369   7.742
89583SOL    HW270647  13.801   6.434   7.792
89584SOL     OW70648   2.404  12.353   2.533
89584SOL    HW170649   2.459  12.333   2.457
89584SOL    HW270650   2.461  12.341   2.608
89585SOL     OW70651   0.692  13.767  10.879
89585SOL    HW170652   0.679  13.778  10.973
89585SOL    HW270653   0.608  13.733  10.848
89586SOL     OW70654  13.797  11.490   2.948
89586SOL    HW170655  13.789  11.413   3.004
89586SOL    HW270656  13.737  11.554   2.987
89587SOL     OW70657   9.401  11.437  13.615
89587SOL    HW170658   9.432  11.352  13.585
89587SOL    HW270659   9.342  11.416  13.688
89588SOL     OW70660  11.157   3.776  14.433
89588SOL    HW170661  11.184   3.719  14.504
89588SOL    HW270662  11.117   3.718  14.368
89589SOL     OW70663   6.727   4.481   7.551
89589SOL    HW170664   6.782   4.464   7.628
89589SOL    HW270665   6.785   4.526   7.490
89590SOL     OW70666   7.376   3.430   3.433
89590SOL    HW170667   7.347   3.474   3.353
89590SOL    HW270668   7.466   3.403   3.415
89591SOL     OW70669   2.778  12.580  13.641
89591SOL    HW170670   2.773  12.633  13.562
89591SOL    HW270671   2.769  12.642  13.713
89592SOL     OW70672   8.729   2.302   6.827
89592SOL    HW170673   8.776   2.219   6.839
89592SOL    HW270674   8.781   2.350   6.762
89593SOL     OW70675  10.619  14.404   7.032
89593SOL    HW170676  10.684  14.357   6.979
89593SOL    HW270677  10.659  14.412   7.118
89594SOL     OW70678  12.581  12.929  14.311
89594SOL    HW170679  12.526  13.006  14.324
89594SOL    HW270680  12.645  12.932  14.381
89595SOL     OW70681  12.376   5.949   1.283
89595SOL    HW170682  12.381   5.899   1.365
89595SOL    HW270683  12.348   5.885   1.218
89596SOL     OW70684   7.781  13.457   8.070
89596SOL    HW170685   7.768  13.543   8.031
89596SOL    HW270686   7.834  13.474   8.148
89597SOL     OW70687  10.845   7.164   6.224
89597SOL    HW170688  10.789   7.228   6.180
89597SOL    HW270689  10.910   7.140   6.158
89598SOL     OW70690   7.331  13.959  13.318
89598SOL    HW170691   7.424  13.956  13.299
89598SOL    HW270692   7.308  14.052  13.317
89599SOL     OW70693   0.303   4.629   4.339
89599SOL    HW170694   0.357   4.687   4.286
89599SOL    HW270695   0.235   4.597   4.279
89600SOL     OW70696   3.802   2.091  12.495
89600SOL    HW170697   3.851   2.120  12.572
89600SOL    HW270698   3.869   2.079  12.427
89601SOL     OW70699   1.129   9.965   6.981
89601SOL    HW170700   1.182   9.888   7.003
89601SOL    HW270701   1.053   9.960   7.040
89602SOL     OW70702   9.625   2.980   8.625
89602SOL    HW170703   9.686   3.053   8.634
89602SOL    HW270704   9.661   2.926   8.555
89603SOL     OW70705   2.623   7.128   7.409
89603SOL    HW170706   2.699   7.176   7.374
89603SOL    HW270707   2.566   7.116   7.333
89604SOL     OW70708  10.909   4.274  10.123
89604SOL    HW170709  10.877   4.364  10.133
89604SOL    HW270710  10.917   4.241  10.213
89605SOL     OW70711   8.881  14.642  10.307
89605SOL    HW170712   8.841  14.629  10.393
89605SOL    HW270713   8.969  14.603  10.316
89606SOL     OW70714  10.956  10.260   7.952
89606SOL    HW170715  10.959  10.164   7.958
89606SOL    HW270716  11.008  10.291   8.026
89607SOL     OW70717  10.424  11.805  10.435
89607SOL    HW170718  10.490  11.800  10.366
89607SOL    HW270719  10.385  11.718  10.438
89608SOL     OW70720  10.367   0.281  12.035
89608SOL    HW170721  10.460   0.282  12.012
89608SOL    HW270722  10.356   0.356  12.093
89609SOL     OW70723   1.036   4.053  13.051
89609SOL    HW170724   1.013   4.009  13.132
89609SOL    HW270725   1.132   4.052  13.049
89610SOL     OW70726   4.699   4.166   6.098
89610SOL    HW170727   4.659   4.210   6.023
89610SOL    HW270728   4.659   4.079   6.098
89611SOL     OW70729  13.128   4.991   3.536
89611SOL    HW170730  13.039   4.960   3.521
89611SOL    HW270731  13.135   5.001   3.631
89612SOL     OW70732   9.455   0.735  13.205
89612SOL    HW170733   9.508   0.814  13.208
89612SOL    HW270734   9.460   0.700  13.295
89613SOL     OW70735   5.905  13.916   2.651
89613SOL    HW170736   5.899  13.885   2.741
89613SOL    HW270737   5.939  14.005   2.658
89614SOL     OW70738  10.020  12.599   5.583
89614SOL    HW170739  10.100  12.592   5.530
89614SOL    HW270740  10.052  12.605   5.673
89615SOL     OW70741  14.350   8.978   6.260
89615SOL    HW170742  14.317   9.013   6.178
89615SOL    HW270743  14.277   8.988   6.322
89616SOL     OW70744   9.319  12.884  11.051
89616SOL    HW170745   9.231  12.909  11.024
89616SOL    HW270746   9.312  12.790  11.071
89617SOL     OW70747   6.602   2.643   8.813
89617SOL    HW170748   6.527   2.592   8.783
89617SOL    HW270749   6.676   2.583   8.809
89618SOL     OW70750   3.964  12.580   0.320
89618SOL    HW170751   4.029  12.632   0.273
89618SOL    HW270752   4.004  12.494   0.328
89619SOL     OW70753   8.951   7.678   9.035
89619SOL    HW170754   8.962   7.728   8.955
89619SOL    HW270755   9.010   7.719   9.098
89620SOL     OW70756  10.363   6.474   9.215
89620SOL    HW170757  10.439   6.519   9.252
89620SOL    HW270758  10.287   6.520   9.252
89621SOL     OW70759   0.499  12.791  10.637
89621SOL    HW170760   0.468  12.704  10.659
89621SOL    HW270761   0.491  12.841  10.718
89622SOL     OW70762   9.660   9.802   1.220
89622SOL    HW170763   9.638   9.742   1.149
89622SOL    HW270764   9.649   9.890   1.182
89623SOL     OW70765  11.584   3.448  10.692
89623SOL    HW170766  11.504   3.499  10.702
89623SOL    HW270767  11.653   3.513  10.679
89624SOL     OW70768   0.771   7.521   2.114
89624SOL    HW170769   0.691   7.573   2.111
89624SOL    HW270770   0.836   7.575   2.069
89625SOL     OW70771   3.552  14.182  14.472
89625SOL    HW170772   3.518  14.119  14.408
89625SOL    HW270773   3.519  14.266  14.441
89626SOL     OW70774  13.384   7.364   1.999
89626SOL    HW170775  13.477   7.378   2.016
89626SOL    HW270776  13.359   7.435   1.939
89627SOL     OW70777   0.423   8.976  12.990
89627SOL    HW170778   0.490   8.967  12.922
89627SOL    HW270779   0.371   8.896  12.983
89628SOL     OW70780   3.922   1.409   6.045
89628SOL    HW170781   3.952   1.432   6.133
89628SOL    HW270782   3.964   1.325   6.027
89629SOL     OW70783  14.833   4.032   2.582
89629SOL    HW170784   0.045   4.046   2.572
89629SOL    HW270785  14.797   4.051   2.495
89630SOL     OW70786  11.251   4.387   5.126
89630SOL    HW170787  11.319   4.413   5.063
89630SOL    HW270788  11.282   4.303   5.160
89631SOL     OW70789  13.945  11.431   6.166
89631SOL    HW170790  13.963  11.458   6.256
89631SOL    HW270791  13.869  11.374   6.173
89632SOL     OW70792   5.293   2.332   2.654
89632SOL    HW170793   5.282   2.237   2.659
89632SOL    HW270794   5.319   2.348   2.563
89633SOL     OW70795   4.728   0.863   6.539
89633SOL    HW170796   4.798   0.864   6.604
89633SOL    HW270797   4.647   0.864   6.590
89634SOL     OW70798  14.286   1.519   9.996
89634SOL    HW170799  14.326   1.517   9.909
89634SOL    HW270800  14.230   1.597   9.995
89635SOL     OW70801   4.451   4.070   1.766
89635SOL    HW170802   4.474   4.063   1.674
89635SOL    HW270803   4.441   4.164   1.782
89636SOL     OW70804   3.177  13.674  12.860
89636SOL    HW170805   3.112  13.708  12.799
89636SOL    HW270806   3.166  13.579  12.857
89637SOL     OW70807  13.876   9.857   2.256
89637SOL    HW170808  13.819   9.784   2.283
89637SOL    HW270809  13.914   9.890   2.338
89638SOL     OW70810  13.379   3.777   0.060
89638SOL    HW170811  13.389   3.834  14.866
89638SOL    HW270812  13.288   3.789   0.086
89639SOL     OW70813  13.640   5.305  12.541
89639SOL    HW170814  13.654   5.275  12.631
89639SOL    HW270815  13.559   5.355  12.545
89640SOL     OW70816   8.208   3.389   0.063
89640SOL    HW170817   8.294   3.361   0.095
89640SOL    HW270818   8.158   3.307   0.053
89641SOL     OW70819  13.974  14.073   6.623
89641SOL    HW170820  13.948  13.982   6.609
89641SOL    HW270821  14.038  14.069   6.694
89642SOL     OW70822  14.628   9.706   7.344
89642SOL    HW170823  14.533   9.708   7.333
89642SOL    HW270824  14.642   9.733   7.435
89643SOL     OW70825   7.853   8.575   9.011
89643SOL    HW170826   7.903   8.498   9.037
89643SOL    HW270827   7.788   8.542   8.948
89644SOL     OW70828   0.807   1.261  13.625
89644SOL    HW170829   0.880   1.271  13.563
89644SOL    HW270830   0.729   1.284  13.574
89645SOL     OW70831  12.216   9.937  11.529
89645SOL    HW170832  12.210   9.934  11.625
89645SOL    HW270833  12.310   9.925  11.511
89646SOL     OW70834  10.844   0.140   3.595
89646SOL    HW170835  10.912   0.121   3.531
89646SOL    HW270836  10.889   0.186   3.666
89647SOL     OW70837   5.321  13.521  14.856
89647SOL    HW170838   5.234  13.560  14.849
89647SOL    HW270839   5.381  13.596  14.861
89648SOL     OW70840   5.712   8.988   0.225
89648SOL    HW170841   5.671   9.013   0.142
89648SOL    HW270842   5.791   9.042   0.230
89649SOL     OW70843   9.252   2.050   6.683
89649SOL    HW170844   9.171   2.000   6.696
89649SOL    HW270845   9.315   2.010   6.743
89650SOL     OW70846   4.636   2.183  13.027
89650SOL    HW170847   4.726   2.204  13.051
89650SOL    HW270848   4.639   2.172  12.932
89651SOL     OW70849  14.260   3.541   5.004
89651SOL    HW170850  14.290   3.585   5.084
89651SOL    HW270851  14.243   3.451   5.031
89652SOL     OW70852   3.563   8.942   4.108
89652SOL    HW170853   3.490   8.908   4.160
89652SOL    HW270854   3.638   8.888   4.132
89653SOL     OW70855  11.686   0.009   4.662
89653SOL    HW170856  11.712   0.084   4.715
89653SOL    HW270857  11.601  14.865   4.697
89654SOL     OW70858   9.625   7.107   8.530
89654SOL    HW170859   9.564   7.175   8.558
89654SOL    HW270860   9.711   7.138   8.560
89655SOL     OW70861  10.765   2.120  12.945
89655SOL    HW170862  10.760   2.101  13.039
89655SOL    HW270863  10.826   2.194  12.938
89656SOL     OW70864  12.499  14.147  11.293
89656SOL    HW170865  12.469  14.214  11.354
89656SOL    HW270866  12.421  14.095  11.275
89657SOL     OW70867  13.841  14.704   9.680
89657SOL    HW170868  13.761  14.728   9.727
89657SOL    HW270869  13.873  14.626   9.725
89658SOL     OW70870   1.076  12.588   1.083
89658SOL    HW170871   1.113  12.667   1.044
89658SOL    HW270872   1.084  12.602   1.177
89659SOL     OW70873   8.781   4.002   3.766
89659SOL    HW170874   8.864   4.010   3.719
89659SOL    HW270875   8.714   4.005   3.698
89660SOL     OW70876   5.072   4.596   1.094
89660SOL    HW170877   5.008   4.546   1.043
89660SOL    HW270878   5.089   4.543   1.171
89661SOL     OW70879   2.562  12.068   0.002
89661SOL    HW170880   2.596  12.148  14.843
89661SOL    HW270881   2.473  12.091   0.028
89662SOL     OW70882   1.630  14.546   6.852
89662SOL    HW170883   1.657  14.469   6.902
89662SOL    HW270884   1.609  14.513   6.765
89663SOL     OW70885   6.073   0.843   2.280
89663SOL    HW170886   6.038   0.810   2.197
89663SOL    HW270887   6.022   0.922   2.298
89664SOL     OW70888  12.220   2.679   1.587
89664SOL    HW170889  12.206   2.605   1.528
89664SOL    HW270890  12.234   2.754   1.529
89665SOL     OW70891  14.865  14.538   2.523
89665SOL    HW170892  14.799  14.606   2.533
89665SOL    HW270893   0.044  14.552   2.595
89666SOL     OW70894  11.026   7.267   9.912
89666SOL    HW170895  11.100   7.318   9.880
89666SOL    HW270896  11.061   7.219   9.988
89667SOL     OW70897   2.641   5.030   7.984
89667SOL    HW170898   2.623   5.088   7.910
89667SOL    HW270899   2.556   5.021   8.029
89668SOL     OW70900   2.192  11.998  12.049
89668SOL    HW170901   2.184  12.028  11.958
89668SOL    HW270902   2.250  11.922  12.043
89669SOL     OW70903   5.226   6.044  10.765
89669SOL    HW170904   5.180   6.081  10.690
89669SOL    HW270905   5.159   6.038  10.834
89670SOL     OW70906   9.843  13.295   0.753
89670SOL    HW170907   9.909  13.312   0.686
89670SOL    HW270908   9.763  13.279   0.703
89671SOL     OW70909   4.090   6.370  11.936
89671SOL    HW170910   4.064   6.460  11.920
89671SOL    HW270911   4.135   6.372  12.021
89672SOL     OW70912   3.002   1.341   5.704
89672SOL    HW170913   3.029   1.377   5.789
89672SOL    HW270914   2.931   1.281   5.726
89673SOL     OW70915   4.994   5.383   3.936
89673SOL    HW170916   5.009   5.467   3.979
89673SOL    HW270917   5.070   5.371   3.879
89674SOL     OW70918   6.542   3.892   9.092
89674SOL    HW170919   6.635   3.900   9.073
89674SOL    HW270920   6.538   3.853   9.179
89675SOL     OW70921   8.933  10.150  14.651
89675SOL    HW170922   8.881  10.070  14.654
89675SOL    HW270923   8.929  10.177  14.559
89676SOL     OW70924   0.755  12.880   6.130
89676SOL    HW170925   0.718  12.817   6.068
89676SOL    HW270926   0.850  12.868   6.124
89677SOL     OW70927  10.184  14.852   9.070
89677SOL    HW170928  10.102  14.816   9.104
89677SOL    HW270929  10.157   0.033   9.004
89678SOL     OW70930   3.056   3.887   3.987
89678SOL    HW170931   3.104   3.885   4.070
89678SOL    HW270932   3.027   3.978   3.978
89679SOL     OW70933  11.945  10.509   9.811
89679SOL    HW170934  11.963  10.416   9.796
89679SOL    HW270935  11.976  10.552   9.731
89680SOL     OW70936   2.882  12.393   5.699
89680SOL    HW170937   2.850  12.396   5.609
89680SOL    HW270938   2.803  12.388   5.753
89681SOL     OW70939  12.133  12.497   8.387
89681SOL    HW170940  12.042  12.523   8.402
89681SOL    HW270941  12.185  12.558   8.439
89682SOL     OW70942   5.435  10.224   6.298
89682SOL    HW170943   5.448  10.202   6.391
89682SOL    HW270944   5.352  10.184   6.275
89683SOL     OW70945  10.854   4.861   1.933
89683SOL    HW170946  10.840   4.774   1.972
89683SOL    HW270947  10.771   4.882   1.891
89684SOL     OW70948  13.212   6.641   4.009
89684SOL    HW170949  13.216   6.665   3.916
89684SOL    HW270950  13.303   6.624   4.033
89685SOL     OW70951   1.770  12.037   3.838
89685SOL    HW170952   1.767  11.983   3.917
89685SOL    HW270953   1.853  12.083   3.844
89686SOL     OW70954   1.365  13.473   1.047
89686SOL    HW170955   1.335  13.398   0.996
89686SOL    HW270956   1.289  13.531   1.052
89687SOL     OW70957   9.632  10.491   1.215
89687SOL    HW170958   9.703  10.443   1.172
89687SOL    HW270959   9.632  10.577   1.172
89688SOL     OW70960   7.204  14.525  10.477
89688SOL    HW170961   7.229  14.537  10.568
89688SOL    HW270962   7.127  14.468  10.480
89689SOL     OW70963   6.367  14.368   4.911
89689SOL    HW170964   6.419  14.289   4.895
89689SOL    HW270965   6.329  14.389   4.826
89690SOL     OW70966   1.066  14.560   8.051
89690SOL    HW170967   1.022  14.475   8.058
89690SOL    HW270968   1.152  14.547   8.090
89691SOL     OW70969   0.006   4.015   4.474
89691SOL    HW170970  14.823   3.951   4.445
89691SOL    HW270971   0.014   4.000   4.568
89692SOL     OW70972   6.939   5.012   7.706
89692SOL    HW170973   6.921   4.918   7.698
89692SOL    HW270974   7.031   5.021   7.684
89693SOL     OW70975   7.389   4.934   9.100
89693SOL    HW170976   7.313   4.975   9.142
89693SOL    HW270977   7.449   5.006   9.083
89694SOL     OW70978  11.917  11.585   2.208
89694SOL    HW170979  11.889  11.493   2.214
89694SOL    HW270980  12.012  11.582   2.222
89695SOL     OW70981   0.907   6.488   5.009
89695SOL    HW170982   0.978   6.532   5.057
89695SOL    HW270983   0.950   6.416   4.964
89696SOL     OW70984  11.271   9.305  12.671
89696SOL    HW170985  11.353   9.355  12.675
89696SOL    HW270986  11.274   9.260  12.587
89697SOL     OW70987  13.942  14.329   4.903
89697SOL    HW170988  14.001  14.401   4.927
89697SOL    HW270989  13.891  14.362   4.830
89698SOL     OW70990  14.546   5.216   7.735
89698SOL    HW170991  14.577   5.139   7.687
89698SOL    HW270992  14.454   5.224   7.711
89699SOL     OW70993   9.232   2.831  10.253
89699SOL    HW170994   9.312   2.780  10.267
89699SOL    HW270995   9.170   2.768  10.215
89700SOL     OW70996   6.530  14.474   3.523
89700SOL    HW170997   6.618  14.512   3.519
89700SOL    HW270998   6.473  14.539   3.482
89701SOL     OW70999  11.763   0.843  11.775
89701SOL    HW171000  11.805   0.759  11.755
89701SOL    HW271001  11.722   0.869  11.693
89702SOL     OW71002  11.251   6.613   6.854
89702SOL    HW171003  11.265   6.519   6.864
89702SOL    HW271004  11.169   6.631   6.899
89703SOL     OW71005   6.424   3.245   0.992
89703SOL    HW171006   6.494   3.262   0.928
89703SOL    HW271007   6.343   3.265   0.945
89704SOL     OW71008   2.329  10.086  10.088
89704SOL    HW171009   2.237  10.103  10.067
89704SOL    HW271010   2.352  10.011  10.034
89705SOL     OW71011   6.922   9.871   2.703
89705SOL    HW171012   6.961   9.902   2.622
89705SOL    HW271013   6.975   9.912   2.772
89706SOL     OW71014   8.671   6.304   8.833
89706SOL    HW171015   8.727   6.271   8.764
89706SOL    HW271016   8.619   6.373   8.792
89707SOL     OW71017  13.925   3.244  12.940
89707SOL    HW171018  13.885   3.158  12.933
89707SOL    HW271019  14.005   3.230  12.990
89708SOL     OW71020   4.863   3.621  12.746
89708SOL    HW171021   4.886   3.588  12.833
89708SOL    HW271022   4.775   3.657  12.757
89709SOL     OW71023  11.476   4.019   7.737
89709SOL    HW171024  11.411   4.041   7.671
89709SOL    HW271025  11.488   3.924   7.729
89710SOL     OW71026   3.401   3.014  13.070
89710SOL    HW171027   3.488   3.030  13.033
89710SOL    HW271028   3.344   3.003  12.994
89711SOL     OW71029   6.337  10.339  12.829
89711SOL    HW171030   6.432  10.333  12.832
89711SOL    HW271031   6.306  10.249  12.838
89712SOL     OW71032   3.971   6.938  10.795
89712SOL    HW171033   3.948   6.863  10.739
89712SOL    HW271034   4.050   6.910  10.841
89713SOL     OW71035  10.050  13.962  14.382
89713SOL    HW171036  10.138  13.986  14.410
89713SOL    HW271037  10.038  13.872  14.412
89714SOL     OW71038   4.645   4.618   4.654
89714SOL    HW171039   4.624   4.654   4.567
89714SOL    HW271040   4.727   4.571   4.641
89715SOL     OW71041   1.341   9.753   3.393
89715SOL    HW171042   1.279   9.815   3.353
89715SOL    HW271043   1.299   9.727   3.475
89716SOL     OW71044   8.036   5.091   0.149
89716SOL    HW171045   8.123   5.081   0.186
89716SOL    HW271046   7.989   5.147   0.210
89717SOL     OW71047   2.026   8.271   9.347
89717SOL    HW171048   2.045   8.345   9.290
89717SOL    HW271049   1.938   8.244   9.323
89718SOL     OW71050  11.269   4.547  11.236
89718SOL    HW171051  11.314   4.469  11.269
89718SOL    HW271052  11.290   4.615  11.300
89719SOL     OW71053   2.996   6.713   0.821
89719SOL    HW171054   3.040   6.732   0.904
89719SOL    HW271055   2.989   6.798   0.777
89720SOL     OW71056   6.334  14.146  11.512
89720SOL    HW171057   6.290  14.174  11.432
89720SOL    HW271058   6.411  14.098  11.482
89721SOL     OW71059   3.490   2.775  11.505
89721SOL    HW171060   3.523   2.830  11.434
89721SOL    HW271061   3.507   2.826  11.584
89722SOL     OW71062   0.158   4.554  11.273
89722SOL    HW171063   0.103   4.475  11.268
89722SOL    HW271064   0.125   4.601  11.349
89723SOL     OW71065  13.858   3.015  12.389
89723SOL    HW171066  13.769   2.983  12.407
89723SOL    HW271067  13.889   3.048  12.474
89724SOL     OW71068   8.842   6.954   4.394
89724SOL    HW171069   8.899   7.027   4.372
89724SOL    HW271070   8.855   6.941   4.488
89725SOL     OW71071   7.203  10.031   4.681
89725SOL    HW171072   7.240  10.034   4.769
89725SOL    HW271073   7.162   9.945   4.675
89726SOL     OW71074   8.848   9.246   3.697
89726SOL    HW171075   8.844   9.208   3.609
89726SOL    HW271076   8.758   9.274   3.716
89727SOL     OW71077   9.990   4.545   6.143
89727SOL    HW171078   9.916   4.541   6.203
89727SOL    HW271079  10.051   4.607   6.184
89728SOL     OW71080  12.393   7.452  12.045
89728SOL    HW171081  12.374   7.362  12.018
89728SOL    HW271082  12.422   7.495  11.964
89729SOL     OW71083   4.390  11.563   6.173
89729SOL    HW171084   4.327  11.518   6.116
89729SOL    HW271085   4.472  11.514   6.162
89730SOL     OW71086   3.594   0.468   4.256
89730SOL    HW171087   3.578   0.487   4.164
89730SOL    HW271088   3.508   0.442   4.290
89731SOL     OW71089   7.149   0.939  13.965
89731SOL    HW171090   7.151   0.945  14.061
89731SOL    HW271091   7.150   1.031  13.936
89732SOL     OW71092  14.464   0.451   3.263
89732SOL    HW171093  14.390   0.487   3.313
89732SOL    HW271094  14.452   0.356   3.269
89733SOL     OW71095   2.296   7.490   6.496
89733SOL    HW171096   2.387   7.516   6.478
89733SOL    HW271097   2.258   7.477   6.409
89734SOL     OW71098  14.148   9.819   6.367
89734SOL    HW171099  14.070   9.791   6.321
89734SOL    HW271100  14.190   9.882   6.307
89735SOL     OW71101  13.705  13.333   8.979
89735SOL    HW171102  13.656  13.291   8.908
89735SOL    HW271103  13.714  13.265   9.045
89736SOL     OW71104  11.506   9.503  13.227
89736SOL    HW171105  11.513   9.421  13.277
89736SOL    HW271106  11.595   9.539  13.228
89737SOL     OW71107   0.319   5.895   9.283
89737SOL    HW171108   0.413   5.891   9.303
89737SOL    HW271109   0.293   5.983   9.312
89738SOL     OW71110   6.497   1.513   4.214
89738SOL    HW171111   6.412   1.553   4.197
89738SOL    HW271112   6.557   1.556   4.153
89739SOL     OW71113   0.725   4.522  10.733
89739SOL    HW171114   0.669   4.510  10.809
89739SOL    HW271115   0.723   4.616  10.716
89740SOL     OW71116   9.578   0.659   0.455
89740SOL    HW171117   9.522   0.716   0.402
89740SOL    HW271118   9.535   0.573   0.450
89741SOL     OW71119   8.916   6.797   5.109
89741SOL    HW171120   8.987   6.858   5.087
89741SOL    HW271121   8.915   6.796   5.205
89742SOL     OW71122  14.345  10.702   8.668
89742SOL    HW171123  14.356  10.755   8.589
89742SOL    HW271124  14.422  10.722   8.721
89743SOL     OW71125  10.150   4.853   7.284
89743SOL    HW171126  10.219   4.787   7.295
89743SOL    HW271127  10.124   4.875   7.373
89744SOL     OW71128   7.856   1.435  10.633
89744SOL    HW171129   7.774   1.463  10.592
89744SOL    HW271130   7.908   1.399  10.561
89745SOL     OW71131   3.129   3.420   8.360
89745SOL    HW171132   3.086   3.387   8.439
89745SOL    HW271133   3.183   3.347   8.330
89746SOL     OW71134  10.448   5.091   4.295
89746SOL    HW171135  10.366   5.135   4.318
89746SOL    HW271136  10.442   5.076   4.201
89747SOL     OW71137  14.412   5.945   7.644
89747SOL    HW171138  14.359   6.001   7.588
89747SOL    HW271139  14.349   5.891   7.691
89748SOL     OW71140  10.476  10.913   6.371
89748SOL    HW171141  10.448  10.821   6.376
89748SOL    HW271142  10.395  10.962   6.359
89749SOL     OW71143  14.634  11.148  12.760
89749SOL    HW171144  14.679  11.077  12.714
89749SOL    HW271145  14.591  11.105  12.834
89750SOL     OW71146  13.365   1.027   3.292
89750SOL    HW171147  13.368   0.974   3.373
89750SOL    HW271148  13.425   0.983   3.233
89751SOL     OW71149   8.778  12.820   9.386
89751SOL    HW171150   8.750  12.911   9.395
89751SOL    HW271151   8.812  12.814   9.297
89752SOL     OW71152   1.908   5.945   5.786
89752SOL    HW171153   1.850   5.997   5.840
89752SOL    HW271154   1.887   5.855   5.807
89753SOL     OW71155   3.396  13.055   9.178
89753SOL    HW171156   3.416  13.102   9.259
89753SOL    HW271157   3.447  12.974   9.183
89754SOL     OW71158  12.590   5.988   4.062
89754SOL    HW171159  12.605   6.077   4.031
89754SOL    HW271160  12.526   5.951   4.000
89755SOL     OW71161   1.053   5.211   5.932
89755SOL    HW171162   1.141   5.175   5.944
89755SOL    HW271163   1.061   5.270   5.857
89756SOL     OW71164  14.259   3.232  12.679
89756SOL    HW171165  14.277   3.322  12.703
89756SOL    HW271166  14.345   3.193  12.662
89757SOL     OW71167   6.338  10.300   3.870
89757SOL    HW171168   6.331  10.206   3.854
89757SOL    HW271169   6.424  10.311   3.912
89758SOL     OW71170   6.959   4.687   0.886
89758SOL    HW171171   6.983   4.689   0.979
89758SOL    HW271172   7.043   4.692   0.840
89759SOL     OW71173   6.493  14.257  14.637
89759SOL    HW171174   6.568  14.219  14.592
89759SOL    HW271175   6.457  14.186  14.690
89760SOL     OW71176   2.555  14.832   9.388
89760SOL    HW171177   2.640  14.854   9.426
89760SOL    HW271178   2.494   0.013   9.427
89761SOL     OW71179   7.746   2.164   3.524
89761SOL    HW171180   7.675   2.221   3.497
89761SOL    HW271181   7.763   2.188   3.615
89762SOL     OW71182  11.373   4.692   2.438
89762SOL    HW171183  11.304   4.702   2.373
89762SOL    HW271184  11.454   4.708   2.390
89763SOL     OW71185  14.308  12.340   0.925
89763SOL    HW171186  14.338  12.290   0.850
89763SOL    HW271187  14.212  12.335   0.921
89764SOL     OW71188  13.998  12.184   7.459
89764SOL    HW171189  13.978  12.145   7.373
89764SOL    HW271190  14.092  12.170   7.470
89765SOL     OW71191   9.390   1.661   2.790
89765SOL    HW171192   9.337   1.616   2.724
89765SOL    HW271193   9.445   1.592   2.828
89766SOL     OW71194   5.743  13.116   5.377
89766SOL    HW171195   5.713  13.201   5.410
89766SOL    HW271196   5.804  13.138   5.307
89767SOL     OW71197   6.931  11.359   5.847
89767SOL    HW171198   6.972  11.284   5.804
89767SOL    HW271199   6.839  11.335   5.856
89768SOL     OW71200   9.277   2.656  12.963
89768SOL    HW171201   9.341   2.596  12.923
89768SOL    HW271202   9.194   2.609  12.956
89769SOL     OW71203   8.768  13.308  13.891
89769SOL    HW171204   8.752  13.398  13.918
89769SOL    HW271205   8.820  13.270  13.962
89770SOL     OW71206   1.847  12.187   8.701
89770SOL    HW171207   1.787  12.127   8.745
89770SOL    HW271208   1.929  12.177   8.749
89771SOL     OW71209   3.017  10.833   4.686
89771SOL    HW171210   2.931  10.861   4.718
89771SOL    HW271211   3.013  10.848   4.591
89772SOL     OW71212   6.546  13.281  10.647
89772SOL    HW171213   6.500  13.293  10.730
89772SOL    HW271214   6.496  13.214  10.602
89773SOL     OW71215   7.239   2.103   4.740
89773SOL    HW171216   7.176   2.160   4.782
89773SOL    HW271217   7.324   2.130   4.775
89774SOL     OW71218   8.628   5.837  12.009
89774SOL    HW171219   8.639   5.899  11.937
89774SOL    HW271220   8.558   5.874  12.062
89775SOL     OW71221  10.386   8.779   8.427
89775SOL    HW171222  10.436   8.860   8.422
89775SOL    HW271223  10.445   8.713   8.390
89776SOL     OW71224   5.284   4.996  13.217
89776SOL    HW171225   5.369   5.031  13.241
89776SOL    HW271226   5.296   4.961  13.129
89777SOL     OW71227   4.366  13.672  11.005
89777SOL    HW171228   4.274  13.657  11.025
89777SOL    HW271229   4.383  13.761  11.037
89778SOL     OW71230   1.391   8.286   1.845
89778SOL    HW171231   1.376   8.295   1.751
89778SOL    HW271232   1.414   8.194   1.857
89779SOL     OW71233   3.406  12.016   5.192
89779SOL    HW171234   3.344  12.023   5.119
89779SOL    HW271235   3.484  12.062   5.161
89780SOL     OW71236   7.277   9.697  13.753
89780SOL    HW171237   7.320   9.716  13.670
89780SOL    HW271238   7.343   9.649  13.804
89781SOL     OW71239   6.160   0.640  14.131
89781SOL    HW171240   6.170   0.667  14.040
89781SOL    HW271241   6.066   0.651  14.148
89782SOL     OW71242  11.779   9.580   9.503
89782SOL    HW171243  11.824   9.526   9.568
89782SOL    HW271244  11.696   9.534   9.487
89783SOL     OW71245   8.760   9.700  13.933
89783SOL    HW171246   8.701   9.635  13.894
89783SOL    HW271247   8.703   9.752  13.991
89784SOL     OW71248   4.598  10.021   1.237
89784SOL    HW171249   4.677   9.985   1.198
89784SOL    HW271250   4.526   9.974   1.194
89785SOL     OW71251  10.517  13.476   9.011
89785SOL    HW171252  10.597  13.523   9.034
89785SOL    HW271253  10.515  13.477   8.915
89786SOL     OW71254   3.456  11.624   7.638
89786SOL    HW171255   3.547  11.617   7.664
89786SOL    HW271256   3.408  11.577   7.705
89787SOL     OW71257   2.554   2.072   1.675
89787SOL    HW171258   2.617   2.025   1.728
89787SOL    HW271259   2.553   2.160   1.712
89788SOL     OW71260   4.845  11.000  13.110
89788SOL    HW171261   4.800  10.978  13.192
89788SOL    HW271262   4.896  10.922  13.090
89789SOL     OW71263   3.116  10.510   3.293
89789SOL    HW171264   3.104  10.577   3.361
89789SOL    HW271265   3.197  10.537   3.248
89790SOL     OW71266   6.129   2.841  10.412
89790SOL    HW171267   6.054   2.842  10.352
89790SOL    HW271268   6.160   2.931  10.414
89791SOL     OW71269   8.643  14.746   0.791
89791SOL    HW171270   8.683  14.797   0.862
89791SOL    HW271271   8.550  14.743   0.814
89792SOL     OW71272   9.496   3.314  14.183
89792SOL    HW171273   9.502   3.232  14.233
89792SOL    HW271274   9.425   3.363  14.224
89793SOL     OW71275   2.964   9.831   3.196
89793SOL    HW171276   2.968   9.740   3.225
89793SOL    HW271277   2.972   9.825   3.100
89794SOL     OW71278  11.681   5.440   3.709
89794SOL    HW171279  11.588   5.451   3.731
89794SOL    HW271280  11.680   5.409   3.618
89795SOL     OW71281  11.071   0.977   0.101
89795SOL    HW171282  10.993   0.923   0.117
89795SOL    HW271283  11.144   0.923   0.134
89796SOL     OW71284   2.769  13.181  10.731
89796SOL    HW171285   2.727  13.261  10.698
89796SOL    HW271286   2.855  13.179  10.688
89797SOL     OW71287   6.681  11.483   6.754
89797SOL    HW171288   6.634  11.416   6.704
89797SOL    HW271289   6.773  11.461   6.741
89798SOL     OW71290   6.753   0.866   2.011
89798SOL    HW171291   6.742   0.873   1.916
89798SOL    HW271292   6.681   0.810   2.040
89799SOL     OW71293  13.052   7.670   4.054
89799SOL    HW171294  13.131   7.644   4.006
89799SOL    HW271295  12.984   7.612   4.020
89800SOL     OW71296   3.956   0.218   0.958
89800SOL    HW171297   3.911   0.191   0.878
89800SOL    HW271298   3.970   0.137   1.006
89801SOL     OW71299   8.711   7.423   6.456
89801SOL    HW171300   8.734   7.481   6.528
89801SOL    HW271301   8.638   7.371   6.488
89802SOL     OW71302   1.510   3.820   1.371
89802SOL    HW171303   1.436   3.780   1.416
89802SOL    HW271304   1.567   3.746   1.348
89803SOL     OW71305   7.989   6.808  12.217
89803SOL    HW171306   7.957   6.726  12.181
89803SOL    HW271307   8.056   6.837  12.155
89804SOL     OW71308   8.408   8.062   8.026
89804SOL    HW171309   8.401   8.069   8.121
89804SOL    HW271310   8.322   8.034   7.997
89805SOL     OW71311  13.309   8.736   3.961
89805SOL    HW171312  13.376   8.721   4.028
89805SOL    HW271313  13.348   8.801   3.903
89806SOL     OW71314   3.685   1.031  10.304
89806SOL    HW171315   3.777   1.010  10.323
89806SOL    HW271316   3.684   1.126  10.293
89807SOL     OW71317  13.613   4.651   3.232
89807SOL    HW171318  13.567   4.734   3.222
89807SOL    HW271319  13.574   4.593   3.167
89808SOL     OW71320   3.469   2.957   7.161
89808SOL    HW171321   3.474   2.998   7.075
89808SOL    HW271322   3.558   2.966   7.196
89809SOL     OW71323   2.941  12.459   4.205
89809SOL    HW171324   2.855  12.496   4.226
89809SOL    HW271325   2.945  12.460   4.110
89810SOL     OW71326   3.301   4.758  14.031
89810SOL    HW171327   3.373   4.726  14.086
89810SOL    HW271328   3.229   4.699  14.050
89811SOL     OW71329   1.450   0.916   3.939
89811SOL    HW171330   1.489   0.940   4.023
89811SOL    HW271331   1.475   0.987   3.880
89812SOL     OW71332   0.472  11.042  14.615
89812SOL    HW171333   0.457  11.136  14.615
89812SOL    HW271334   0.472  11.018  14.522
89813SOL     OW71335  14.761   5.621   2.048
89813SOL    HW171336  14.775   5.562   1.974
89813SOL    HW271337  14.666   5.634   2.051
89814SOL     OW71338   4.787   0.310   3.566
89814SOL    HW171339   4.879   0.288   3.555
89814SOL    HW271340   4.783   0.359   3.648
89815SOL     OW71341  10.930  14.642   7.811
89815SOL    HW171342  10.934  14.699   7.888
89815SOL    HW271343  10.878  14.691   7.747
89816SOL     OW71344  10.134  12.298   7.902
89816SOL    HW171345  10.137  12.386   7.864
89816SOL    HW271346  10.223  12.281   7.933
89817SOL     OW71347   8.640  13.433   8.454
89817SOL    HW171348   8.661  13.404   8.365
89817SOL    HW271349   8.552  13.399   8.469
89818SOL     OW71350   2.823   3.274   9.067
89818SOL    HW171351   2.802   3.367   9.064
89818SOL    HW271352   2.738   3.230   9.066
89819SOL     OW71353   6.008   3.719   1.032
89819SOL    HW171354   6.037   3.797   0.986
89819SOL    HW271355   6.008   3.745   1.125
89820SOL     OW71356   0.500   3.210  14.402
89820SOL    HW171357   0.463   3.290  14.365
89820SOL    HW271358   0.594   3.227  14.406
89821SOL     OW71359   8.333  13.931   9.310
89821SOL    HW171360   8.383  13.975   9.378
89821SOL    HW271361   8.312  14.000   9.247
89822SOL     OW71362   1.638  13.499  10.070
89822SOL    HW171363   1.645  13.574  10.011
89822SOL    HW271364   1.711  13.509  10.131
89823SOL     OW71365   6.183   5.344  13.958
89823SOL    HW171366   6.146   5.431  13.970
89823SOL    HW271367   6.108   5.289  13.934
89824SOL     OW71368   5.165   7.267   4.875
89824SOL    HW171369   5.153   7.359   4.850
89824SOL    HW271370   5.079   7.228   4.866
89825SOL     OW71371   7.467   2.555   9.252
89825SOL    HW171372   7.393   2.587   9.302
89825SOL    HW271373   7.459   2.460   9.255
89826SOL     OW71374   4.633   6.992  11.610
89826SOL    HW171375   4.539   6.980  11.598
89826SOL    HW271376   4.666   7.015  11.524
89827SOL     OW71377   2.858  13.617   8.502
89827SOL    HW171378   2.804  13.538   8.508
89827SOL    HW271379   2.833  13.669   8.578
89828SOL     OW71380   2.092  11.758   3.928
89828SOL    HW171381   2.126  11.827   3.985
89828SOL    HW271382   2.071  11.803   3.846
89829SOL     OW71383   2.222   8.820  11.991
89829SOL    HW171384   2.153   8.838  11.927
89829SOL    HW271385   2.213   8.891  12.055
89830SOL     OW71386  13.200   8.607   6.883
89830SOL    HW171387  13.266   8.648   6.828
89830SOL    HW271388  13.164   8.679   6.935
89831SOL     OW71389   8.861   6.155  10.830
89831SOL    HW171390   8.776   6.123  10.860
89831SOL    HW271391   8.920   6.137  10.903
89832SOL     OW71392  11.536   4.121   8.771
89832SOL    HW171393  11.451   4.144   8.807
89832SOL    HW271394  11.590   4.100   8.848
89833SOL     OW71395  10.589   6.281   0.447
89833SOL    HW171396  10.637   6.287   0.364
89833SOL    HW271397  10.505   6.324   0.429
89834SOL     OW71398  14.467   5.619   6.419
89834SOL    HW171399  14.558   5.612   6.391
89834SOL    HW271400  14.430   5.532   6.405
89835SOL     OW71401   6.333   0.585  14.870
89835SOL    HW171402   6.371   0.541   0.064
89835SOL    HW271403   6.290   0.663   0.024
89836SOL     OW71404   9.913   4.496   2.164
89836SOL    HW171405   9.883   4.569   2.110
89836SOL    HW271406   9.832   4.451   2.190
89837SOL     OW71407   9.403   9.247   0.161
89837SOL    HW171408   9.399   9.240   0.066
89837SOL    HW271409   9.466   9.180   0.188
89838SOL     OW71410   9.742   7.177   7.100
89838SOL    HW171411   9.703   7.193   7.014
89838SOL    HW271412   9.828   7.141   7.081
89839SOL     OW71413  10.357  10.264  10.651
89839SOL    HW171414  10.352  10.310  10.735
89839SOL    HW271415  10.293  10.193  10.659
89840SOL     OW71416   6.432  11.167   7.104
89840SOL    HW171417   6.482  11.169   7.186
89840SOL    HW271418   6.481  11.225   7.045
89841SOL     OW71419  10.806   3.397  10.535
89841SOL    HW171420  10.798   3.465  10.468
89841SOL    HW271421  10.722   3.399  10.581
89842SOL     OW71422   8.570   0.933  12.301
89842SOL    HW171423   8.666   0.929  12.301
89842SOL    HW271424   8.543   0.849  12.263
89843SOL     OW71425   1.972   8.445  12.672
89843SOL    HW171426   1.898   8.456  12.732
89843SOL    HW271427   2.047   8.432  12.730
89844SOL     OW71428   9.471   7.641   9.140
89844SOL    HW171429   9.549   7.601   9.179
89844SOL    HW271430   9.502   7.725   9.107
89845SOL     OW71431  10.537   0.864  13.479
89845SOL    HW171432  10.505   0.791  13.426
89845SOL    HW271433  10.588   0.823  13.549
89846SOL     OW71434   4.969  13.659  10.502
89846SOL    HW171435   4.901  13.604  10.539
89846SOL    HW271436   5.038  13.598  10.476
89847SOL     OW71437   0.189   9.359   6.659
89847SOL    HW171438   0.245   9.318   6.725
89847SOL    HW271439   0.181   9.450   6.687
89848SOL     OW71440  14.396   4.042  12.813
89848SOL    HW171441  14.395   4.051  12.718
89848SOL    HW271442  14.305   4.054  12.839
89849SOL     OW71443  11.638   6.697  10.765
89849SOL    HW171444  11.731   6.721  10.756
89849SOL    HW271445  11.620   6.642  10.689
89850SOL     OW71446   4.744   6.229  13.050
89850SOL    HW171447   4.667   6.172  13.044
89850SOL    HW271448   4.765   6.250  12.959
89851SOL     OW71449   2.896   2.646  10.357
89851SOL    HW171450   2.889   2.683  10.269
89851SOL    HW271451   2.947   2.711  10.406
89852SOL     OW71452   5.696  10.030  13.381
89852SOL    HW171453   5.642  10.035  13.303
89852SOL    HW271454   5.759   9.960  13.363
89853SOL     OW71455   8.514  12.591   6.134
89853SOL    HW171456   8.528  12.505   6.174
89853SOL    HW271457   8.573  12.591   6.058
89854SOL     OW71458   3.569  13.967  10.339
89854SOL    HW171459   3.629  14.033  10.371
89854SOL    HW271460   3.490  14.015  10.315
89855SOL     OW71461   6.971  10.389  10.878
89855SOL    HW171462   6.888  10.388  10.830
89855SOL    HW271463   7.015  10.308  10.852
89856SOL     OW71464  12.472  10.806  10.882
89856SOL    HW171465  12.514  10.757  10.812
89856SOL    HW271466  12.508  10.894  10.874
89857SOL     OW71467  13.137  12.912   8.452
89857SOL    HW171468  13.108  12.977   8.516
89857SOL    HW271469  13.229  12.932   8.437
89858SOL     OW71470  12.933   8.320   3.883
89858SOL    HW171471  12.996   8.259   3.844
89858SOL    HW271472  12.876   8.345   3.810
89859SOL     OW71473   1.728  13.367   7.829
89859SOL    HW171474   1.753  13.278   7.807
89859SOL    HW271475   1.668  13.394   7.760
89860SOL     OW71476   3.325   2.045   6.910
89860SOL    HW171477   3.275   2.103   6.853
89860SOL    HW271478   3.271   2.036   6.988
89861SOL     OW71479  13.411   1.464   4.631
89861SOL    HW171480  13.444   1.539   4.583
89861SOL    HW271481  13.318   1.460   4.610
89862SOL     OW71482   1.465   2.853   2.427
89862SOL    HW171483   1.444   2.778   2.482
89862SOL    HW271484   1.514   2.912   2.484
89863SOL     OW71485  11.427   7.110   8.913
89863SOL    HW171486  11.505   7.149   8.873
89863SOL    HW271487  11.395   7.048   8.847
89864SOL     OW71488  11.605  10.995   2.027
89864SOL    HW171489  11.634  10.948   1.948
89864SOL    HW271490  11.681  11.048   2.052
89865SOL     OW71491  10.518  12.313   8.287
89865SOL    HW171492  10.544  12.403   8.303
89865SOL    HW271493  10.422  12.314   8.295
89866SOL     OW71494  11.485   0.646  11.776
89866SOL    HW171495  11.492   0.655  11.871
89866SOL    HW271496  11.398   0.609  11.762
89867SOL     OW71497   4.717   8.176  11.738
89867SOL    HW171498   4.732   8.172  11.644
89867SOL    HW271499   4.647   8.112  11.753
89868SOL     OW71500   3.294   9.401  12.500
89868SOL    HW171501   3.310   9.486  12.460
89868SOL    HW271502   3.335   9.338  12.440
89869SOL     OW71503   9.721  14.231   6.329
89869SOL    HW171504   9.784  14.213   6.259
89869SOL    HW271505   9.751  14.314   6.367
89870SOL     OW71506   2.062   6.597   0.960
89870SOL    HW171507   2.007   6.624   0.887
89870SOL    HW271508   2.128   6.666   0.968
89871SOL     OW71509  12.591   5.130   7.278
89871SOL    HW171510  12.607   5.189   7.351
89871SOL    HW271511  12.676   5.123   7.234
89872SOL     OW71512  13.783   1.643  10.277
89872SOL    HW171513  13.740   1.704  10.338
89872SOL    HW271514  13.864   1.618  10.321
89873SOL     OW71515  14.718  11.005  13.468
89873SOL    HW171516  14.627  11.003  13.437
89873SOL    HW271517  14.742  10.913  13.477
89874SOL     OW71518   5.089   9.063   5.177
89874SOL    HW171519   5.139   8.981   5.178
89874SOL    HW271520   4.998   9.035   5.174
89875SOL     OW71521   8.933   2.826  11.098
89875SOL    HW171522   8.962   2.767  11.028
89875SOL    HW271523   8.858   2.781  11.138
89876SOL     OW71524   1.715   9.845   7.727
89876SOL    HW171525   1.754   9.898   7.798
89876SOL    HW271526   1.759   9.760   7.735
89877SOL     OW71527   1.159  10.693   5.410
89877SOL    HW171528   1.067  10.684   5.387
89877SOL    HW271529   1.164  10.665   5.502
89878SOL     OW71530   6.401   7.668   3.596
89878SOL    HW171531   6.380   7.609   3.523
89878SOL    HW271532   6.417   7.609   3.670
89879SOL     OW71533  12.267  11.029  11.006
89879SOL    HW171534  12.289  11.085  11.081
89879SOL    HW271535  12.187  10.984  11.034
89880SOL     OW71536   8.816  13.699   1.764
89880SOL    HW171537   8.841  13.736   1.679
89880SOL    HW271538   8.882  13.633   1.782
89881SOL     OW71539  10.465   1.756  13.354
89881SOL    HW171540  10.488   1.777  13.264
89881SOL    HW271541  10.548   1.759  13.402
89882SOL     OW71542   6.384   9.785   8.246
89882SOL    HW171543   6.387   9.690   8.234
89882SOL    HW271544   6.338   9.818   8.168
89883SOL     OW71545  13.897   0.634   5.683
89883SOL    HW171546  13.825   0.599   5.631
89883SOL    HW271547  13.931   0.558   5.730
89884SOL     OW71548   3.815  13.768  11.826
89884SOL    HW171549   3.906  13.739  11.824
89884SOL    HW271550   3.773  13.720  11.755
89885SOL     OW71551  12.367   2.361   1.499
89885SOL    HW171552  12.418   2.432   1.461
89885SOL    HW271553  12.394   2.283   1.452
89886SOL     OW71554   0.612   8.249  10.367
89886SOL    HW171555   0.646   8.335  10.342
89886SOL    HW271556   0.670   8.219  10.436
89887SOL     OW71557   4.051   7.421   7.267
89887SOL    HW171558   4.018   7.449   7.182
89887SOL    HW271559   4.085   7.333   7.252
89888SOL     OW71560   6.028   5.339   7.192
89888SOL    HW171561   6.122   5.332   7.176
89888SOL    HW271562   6.011   5.275   7.261
89889SOL     OW71563  13.225  11.369   0.408
89889SOL    HW171564  13.288  11.438   0.426
89889SOL    HW271565  13.198  11.337   0.494
89890SOL     OW71566  14.666   9.669   1.102
89890SOL    HW171567  14.757   9.649   1.083
89890SOL    HW271568  14.655   9.650   1.195
89891SOL     OW71569   0.381  10.269   9.964
89891SOL    HW171570   0.462  10.317   9.949
89891SOL    HW271571   0.317  10.310   9.906
89892SOL     OW71572  10.920  11.136  12.713
89892SOL    HW171573  10.999  11.153  12.662
89892SOL    HW271574  10.864  11.085  12.654
89893SOL     OW71575  14.463   4.456   0.613
89893SOL    HW171576  14.533   4.418   0.560
89893SOL    HW271577  14.408   4.381   0.638
89894SOL     OW71578  12.276   9.549   8.141
89894SOL    HW171579  12.371   9.558   8.145
89894SOL    HW271580  12.258   9.519   8.052
89895SOL     OW71581   0.359   8.568   1.796
89895SOL    HW171582   0.379   8.533   1.709
89895SOL    HW271583   0.322   8.655   1.779
89896SOL     OW71584   0.606   4.368  12.439
89896SOL    HW171585   0.684   4.423  12.438
89896SOL    HW271586   0.536   4.427  12.467
89897SOL     OW71587   1.207   3.389   3.726
89897SOL    HW171588   1.144   3.321   3.704
89897SOL    HW271589   1.291   3.344   3.730
89898SOL     OW71590   7.213   8.156  14.107
89898SOL    HW171591   7.224   8.125  14.197
89898SOL    HW271592   7.139   8.106  14.073
89899SOL     OW71593  12.007   5.190   2.163
89899SOL    HW171594  12.049   5.151   2.086
89899SOL    HW271595  11.934   5.241   2.128
89900SOL     OW71596   5.663   8.831   9.137
89900SOL    HW171597   5.752   8.795   9.144
89900SOL    HW271598   5.609   8.769   9.186
89901SOL     OW71599  12.939  12.470  14.573
89901SOL    HW171600  13.024  12.508  14.552
89901SOL    HW271601  12.945  12.448  14.667
89902SOL     OW71602   5.211  11.336   8.743
89902SOL    HW171603   5.205  11.386   8.825
89902SOL    HW271604   5.295  11.291   8.750
89903SOL     OW71605   0.116  11.051   0.458
89903SOL    HW171606   0.114  11.075   0.365
89903SOL    HW271607   0.201  11.010   0.471
89904SOL     OW71608   4.025   2.457  10.401
89904SOL    HW171609   4.019   2.548  10.433
89904SOL    HW271610   4.112   2.451  10.363
89905SOL     OW71611   4.961   9.257   3.276
89905SOL    HW171612   4.869   9.237   3.296
89905SOL    HW271613   5.008   9.242   3.358
89906SOL     OW71614  11.818   3.883   2.957
89906SOL    HW171615  11.880   3.816   2.927
89906SOL    HW271616  11.823   3.879   3.053
89907SOL     OW71617   2.513   3.915   6.914
89907SOL    HW171618   2.443   3.961   6.960
89907SOL    HW271619   2.583   3.979   6.906
89908SOL     OW71620   6.251   6.835   4.642
89908SOL    HW171621   6.240   6.801   4.731
89908SOL    HW271622   6.249   6.930   4.652
89909SOL     OW71623  13.009  10.714   6.693
89909SOL    HW171624  13.105  10.716   6.683
89909SOL    HW271625  12.976  10.754   6.613
89910SOL     OW71626   0.242   1.441   0.003
89910SOL    HW171627   0.217   1.374  14.822
89910SOL    HW271628   0.160   1.475   0.037
89911SOL     OW71629   3.666   8.805   8.990
89911SOL    HW171630   3.575   8.782   8.973
89911SOL    HW271631   3.712   8.788   8.907
89912SOL     OW71632   3.235   9.932   9.874
89912SOL    HW171633   3.140   9.924   9.865
89912SOL    HW271634   3.271   9.855   9.829
89913SOL     OW71635   6.080   6.656   6.271
89913SOL    HW171636   6.119   6.731   6.315
89913SOL    HW271637   5.999   6.689   6.233
89914SOL     OW71638   0.394   8.117   6.670
89914SOL    HW171639   0.477   8.147   6.707
89914SOL    HW271640   0.384   8.028   6.703
89915SOL     OW71641   8.942   3.041  14.366
89915SOL    HW171642   9.022   2.989  14.372
89915SOL    HW271643   8.894   3.020  14.446
89916SOL     OW71644   4.771  10.486   4.394
89916SOL    HW171645   4.816  10.452   4.472
89916SOL    HW271646   4.838  10.483   4.325
89917SOL     OW71647  12.724   3.465  10.635
89917SOL    HW171648  12.629   3.468  10.640
89917SOL    HW271649  12.743   3.416  10.555
89918SOL     OW71650   0.121   2.188  12.043
89918SOL    HW171651   0.142   2.154  12.130
89918SOL    HW271652   0.043   2.140  12.016
89919SOL     OW71653   8.081   9.898   3.152
89919SOL    HW171654   8.166   9.929   3.180
89919SOL    HW271655   8.082   9.907   3.057
89920SOL     OW71656   1.120   8.777  10.793
89920SOL    HW171657   1.109   8.723  10.715
89920SOL    HW271658   1.113   8.715  10.866
89921SOL     OW71659  10.616   8.740   9.582
89921SOL    HW171660  10.567   8.761   9.502
89921SOL    HW271661  10.559   8.771   9.653
89922SOL     OW71662   6.724   1.900   7.513
89922SOL    HW171663   6.819   1.888   7.511
89922SOL    HW271664   6.712   1.995   7.509
89923SOL     OW71665   5.751   1.495  10.839
89923SOL    HW171666   5.718   1.442  10.911
89923SOL    HW271667   5.683   1.491  10.772
89924SOL     OW71668   3.302   9.387   1.806
89924SOL    HW171669   3.235   9.355   1.866
89924SOL    HW271670   3.298   9.483   1.814
89925SOL     OW71671   6.734   0.833   9.959
89925SOL    HW171672   6.681   0.891  10.013
89925SOL    HW271673   6.792   0.788  10.021
89926SOL     OW71674   8.749  10.823  13.136
89926SOL    HW171675   8.701  10.890  13.086
89926SOL    HW271676   8.783  10.763  13.070
89927SOL     OW71677   7.789   7.689  10.987
89927SOL    HW171678   7.817   7.737  10.908
89927SOL    HW271679   7.777   7.757  11.053
89928SOL     OW71680  11.595   9.487  12.376
89928SOL    HW171681  11.596   9.485  12.472
89928SOL    HW271682  11.541   9.413  12.351
89929SOL     OW71683   8.275  14.298   9.007
89929SOL    HW171684   8.244  14.209   9.023
89929SOL    HW271685   8.369  14.294   9.022
89930SOL     OW71686   6.720   5.847   6.378
89930SOL    HW171687   6.711   5.817   6.288
89930SOL    HW271688   6.738   5.941   6.370
89931SOL     OW71689  10.878   3.860   4.670
89931SOL    HW171690  10.834   3.810   4.739
89931SOL    HW271691  10.883   3.949   4.705
89932SOL     OW71692   6.654  14.792   2.580
89932SOL    HW171693   6.659   0.004   2.597
89932SOL    HW271694   6.714  14.778   2.507
89933SOL     OW71695   8.930   5.752   9.306
89933SOL    HW171696   8.983   5.818   9.261
89933SOL    HW271697   8.926   5.679   9.244
89934SOL     OW71698   5.658  12.854  13.360
89934SOL    HW171699   5.570  12.828  13.386
89934SOL    HW271700   5.647  12.899  13.277
89935SOL     OW71701   5.106  11.763   1.791
89935SOL    HW171702   5.077  11.829   1.854
89935SOL    HW271703   5.178  11.718   1.836
89936SOL     OW71704   9.670  13.899  12.273
89936SOL    HW171705   9.668  13.826  12.211
89936SOL    HW271706   9.608  13.875  12.341
89937SOL     OW71707   9.067  14.030   0.911
89937SOL    HW171708   9.070  13.967   0.839
89937SOL    HW271709   9.021  13.984   0.981
89938SOL     OW71710  10.156   3.843   3.827
89938SOL    HW171711  10.231   3.903   3.827
89938SOL    HW271712  10.120   3.851   3.738
89939SOL     OW71713   6.415  13.072   5.194
89939SOL    HW171714   6.510  13.081   5.201
89939SOL    HW271715   6.383  13.162   5.189
89940SOL     OW71716   6.213   9.154   2.661
89940SOL    HW171717   6.222   9.063   2.691
89940SOL    HW271718   6.174   9.145   2.573
89941SOL     OW71719  11.949   0.256   2.580
89941SOL    HW171720  12.000   0.188   2.622
89941SOL    HW271721  11.904   0.212   2.508
89942SOL     OW71722   7.991   0.186   3.424
89942SOL    HW171723   7.925   0.255   3.436
89942SOL    HW271724   8.016   0.192   3.332
89943SOL     OW71725  13.165   6.170  13.367
89943SOL    HW171726  13.108   6.241  13.395
89943SOL    HW271727  13.106   6.102  13.335
89944SOL     OW71728   3.262  12.829  11.548
89944SOL    HW171729   3.187  12.889  11.544
89944SOL    HW271730   3.222  12.743  11.561
89945SOL     OW71731  12.631   4.925  11.968
89945SOL    HW171732  12.625   4.909  11.874
89945SOL    HW271733  12.627   4.838  12.008
89946SOL     OW71734  13.973   3.959   7.539
89946SOL    HW171735  13.897   3.921   7.496
89946SOL    HW271736  14.021   3.884   7.574
89947SOL     OW71737   2.566   2.039  14.277
89947SOL    HW171738   2.502   2.111  14.277
89947SOL    HW271739   2.518   1.964  14.312
89948SOL     OW71740   1.997   2.800   2.980
89948SOL    HW171741   1.949   2.873   3.019
89948SOL    HW271742   1.950   2.780   2.900
89949SOL     OW71743   2.041   4.252  10.162
89949SOL    HW171744   1.966   4.227  10.216
89949SOL    HW271745   2.036   4.348  10.158
89950SOL     OW71746   0.937   4.073   6.663
89950SOL    HW171747   0.896   3.995   6.626
89950SOL    HW271748   0.907   4.075   6.754
89951SOL     OW71749   6.241  14.295   9.471
89951SOL    HW171750   6.276  14.372   9.517
89951SOL    HW271751   6.291  14.222   9.506
89952SOL     OW71752   5.157  11.202   3.729
89952SOL    HW171753   5.118  11.281   3.692
89952SOL    HW271754   5.214  11.234   3.799
89953SOL     OW71755   2.045  10.211   9.430
89953SOL    HW171756   1.980  10.195   9.498
89953SOL    HW271757   2.098  10.131   9.428
89954SOL     OW71758  11.602  14.690  14.795
89954SOL    HW171759  11.687  14.699  14.752
89954SOL    HW271760  11.544  14.750  14.748
89955SOL     OW71761   8.644  12.390   4.858
89955SOL    HW171762   8.651  12.423   4.948
89955SOL    HW271763   8.557  12.350   4.855
89956SOL     OW71764   6.979   6.127   3.694
89956SOL    HW171765   6.938   6.072   3.627
89956SOL    HW271766   6.978   6.073   3.773
89957SOL     OW71767  11.399   4.934   9.513
89957SOL    HW171768  11.307   4.937   9.487
89957SOL    HW271769  11.405   4.857   9.570
89958SOL     OW71770   1.847   3.102   8.868
89958SOL    HW171771   1.815   3.014   8.848
89958SOL    HW271772   1.809   3.157   8.800
89959SOL     OW71773  11.290  10.357   9.916
89959SOL    HW171774  11.354  10.405   9.864
89959SOL    HW271775  11.299  10.266   9.886
89960SOL     OW71776  14.168   7.144  10.846
89960SOL    HW171777  14.083   7.128  10.805
89960SOL    HW271778  14.230   7.093  10.794
89961SOL     OW71779  10.172   1.096   5.752
89961SOL    HW171780  10.112   1.022   5.739
89961SOL    HW271781  10.142   1.136   5.834
89962SOL     OW71782   7.061  10.706   3.493
89962SOL    HW171783   7.009  10.656   3.430
89962SOL    HW271784   7.014  10.698   3.576
89963SOL     OW71785  13.818   8.314  11.225
89963SOL    HW171786  13.851   8.382  11.284
89963SOL    HW271787  13.727   8.301  11.250
89964SOL     OW71788  14.143  10.877  11.592
89964SOL    HW171789  14.070  10.819  11.614
89964SOL    HW271790  14.220  10.835  11.629
89965SOL     OW71791   4.458  12.645   5.855
89965SOL    HW171792   4.398  12.719   5.850
89965SOL    HW271793   4.423  12.590   5.925
89966SOL     OW71794   1.375   9.953  12.339
89966SOL    HW171795   1.390   9.862  12.363
89966SOL    HW271796   1.282   9.968  12.357
89967SOL     OW71797   0.947   4.106   8.641
89967SOL    HW171798   1.028   4.058   8.626
89967SOL    HW271799   0.915   4.128   8.554
89968SOL     OW71800  13.326   4.934  10.387
89968SOL    HW171801  13.376   4.969  10.313
89968SOL    HW271802  13.352   4.842  10.392
89969SOL     OW71803  10.471   2.597  11.131
89969SOL    HW171804  10.430   2.658  11.069
89969SOL    HW271805  10.546   2.646  11.165
89970SOL     OW71806  14.158   1.532   1.634
89970SOL    HW171807  14.157   1.590   1.711
89970SOL    HW271808  14.190   1.588   1.563
89971SOL     OW71809  10.795   9.050   5.710
89971SOL    HW171810  10.882   9.045   5.748
89971SOL    HW271811  10.751   8.971   5.740
89972SOL     OW71812   2.105   0.939  12.325
89972SOL    HW171813   2.073   0.913  12.238
89972SOL    HW271814   2.032   0.919  12.384
89973SOL     OW71815   1.784  12.408   9.360
89973SOL    HW171816   1.815  12.416   9.270
89973SOL    HW271817   1.762  12.315   9.370
89974SOL     OW71818  14.852   4.728  11.721
89974SOL    HW171819  14.796   4.751  11.796
89974SOL    HW271820   0.051   4.699  11.760
89975SOL     OW71821   3.329   5.295   1.360
89975SOL    HW171822   3.378   5.220   1.328
89975SOL    HW271823   3.345   5.295   1.455
89976SOL     OW71824  11.079   8.913   4.483
89976SOL    HW171825  11.159   8.941   4.439
89976SOL    HW271826  11.104   8.905   4.575
89977SOL     OW71827   1.865  12.576   4.967
89977SOL    HW171828   1.897  12.665   4.980
89977SOL    HW271829   1.887  12.555   4.876
89978SOL     OW71830   3.334  11.047  13.133
89978SOL    HW171831   3.323  11.050  13.228
89978SOL    HW271832   3.428  11.058  13.119
89979SOL     OW71833  11.207   8.349  12.181
89979SOL    HW171834  11.206   8.318  12.272
89979SOL    HW271835  11.177   8.274  12.130
89980SOL     OW71836  14.270  11.434  12.260
89980SOL    HW171837  14.231  11.447  12.174
89980SOL    HW271838  14.278  11.339  12.269
89981SOL     OW71839   9.226   0.201   0.579
89981SOL    HW171840   9.144   0.242   0.605
89981SOL    HW271841   9.262   0.165   0.660
89982SOL     OW71842  12.902   8.795  13.611
89982SOL    HW171843  12.964   8.749  13.667
89982SOL    HW271844  12.833   8.731  13.594
89983SOL     OW71845   6.022  11.495   3.634
89983SOL    HW171846   6.057  11.501   3.722
89983SOL    HW271847   5.931  11.467   3.647
89984SOL     OW71848  12.074   7.657  11.735
89984SOL    HW171849  12.168   7.668  11.718
89984SOL    HW271850  12.045   7.594  11.669
89985SOL     OW71851   6.516   9.804  10.133
89985SOL    HW171852   6.435   9.809  10.185
89985SOL    HW271853   6.581   9.770  10.195
89986SOL     OW71854   2.686  12.016  13.772
89986SOL    HW171855   2.754  12.052  13.715
89986SOL    HW271856   2.733  11.981  13.847
89987SOL     OW71857   9.356   7.401   9.544
89987SOL    HW171858   9.271   7.399   9.589
89987SOL    HW271859   9.338   7.364   9.458
89988SOL     OW71860   7.727   0.328  10.971
89988SOL    HW171861   7.685   0.363  11.050
89988SOL    HW271862   7.657   0.280  10.926
89989SOL     OW71863  12.279   8.030  10.434
89989SOL    HW171864  12.211   8.076  10.384
89989SOL    HW271865  12.237   8.011  10.518
89990SOL     OW71866  14.585   6.729  13.302
89990SOL    HW171867  14.498   6.767  13.290
89990SOL    HW271868  14.573   6.660  13.366
89991SOL     OW71869   7.038   4.066   1.559
89991SOL    HW171870   7.099   4.139   1.568
89991SOL    HW271871   7.071   3.999   1.619
89992SOL     OW71872   4.056   9.830  10.751
89992SOL    HW171873   3.998   9.893  10.709
89992SOL    HW271874   4.108   9.881  10.812
89993SOL     OW71875   3.682   6.819   0.650
89993SOL    HW171876   3.636   6.763   0.588
89993SOL    HW271877   3.654   6.907   0.628
89994SOL     OW71878  12.535   5.600  13.400
89994SOL    HW171879  12.472   5.585  13.329
89994SOL    HW271880  12.555   5.693  13.396
89995SOL     OW71881   6.869  10.625   6.140
89995SOL    HW171882   6.868  10.634   6.235
89995SOL    HW271883   6.777  10.612   6.116
89996SOL     OW71884  10.114  13.998  10.710
89996SOL    HW171885  10.204  13.986  10.679
89996SOL    HW271886  10.073  13.912  10.697
89997SOL     OW71887  11.612   3.838   9.700
89997SOL    HW171888  11.677   3.777   9.734
89997SOL    HW271889  11.559   3.862   9.776
89998SOL     OW71890   8.190   9.882  13.127
89998SOL    HW171891   8.229   9.849  13.046
89998SOL    HW271892   8.098   9.898  13.105
89999SOL     OW71893  14.793   0.474  13.491
89999SOL    HW171894  14.839   0.416  13.430
89999SOL    HW271895  14.701   0.448  13.485
90000SOL     OW71896  10.861   5.524   1.782
90000SOL    HW171897  10.839   5.435   1.753
90000SOL    HW271898  10.945   5.516   1.826
90001SOL     OW71899  13.540  11.250  11.484
90001SOL    HW171900  13.488  11.233  11.406
90001SOL    HW271901  13.551  11.165  11.525
90002SOL     OW71902   7.257   1.763   8.381
90002SOL    HW171903   7.292   1.682   8.346
90002SOL    HW271904   7.167   1.767   8.350
90003SOL     OW71905   8.559   6.697   6.609
90003SOL    HW171906   8.515   6.744   6.539
90003SOL    HW271907   8.605   6.764   6.658
90004SOL     OW71908   7.724   4.572   3.585
90004SOL    HW171909   7.637   4.565   3.545
90004SOL    HW271910   7.747   4.664   3.577
90005SOL     OW71911  14.822   5.881   2.049
90005SOL    HW171912  14.814   5.789   2.025
90005SOL    HW271913  14.775   5.889   2.132
90006SOL     OW71914   6.332   1.776   8.865
90006SOL    HW171915   6.280   1.777   8.785
90006SOL    HW271916   6.295   1.704   8.917
90007SOL     OW71917  10.898   2.251   0.512
90007SOL    HW171918  10.868   2.287   0.595
90007SOL    HW271919  10.989   2.224   0.529
90008SOL     OW71920  13.662  14.355   9.656
90008SOL    HW171921  13.640  14.413   9.728
90008SOL    HW271922  13.757  14.361   9.648
90009SOL     OW71923  11.378   5.326  14.504
90009SOL    HW171924  11.326   5.382  14.446
90009SOL    HW271925  11.338   5.240  14.497
90010SOL     OW71926  14.365  13.128   6.308
90010SOL    HW171927  14.383  13.176   6.227
90010SOL    HW271928  14.295  13.068   6.285
90011SOL     OW71929   6.856  14.826   2.396
90011SOL    HW171930   6.808   0.002   2.337
90011SOL    HW271931   6.924  14.882   2.433
90012SOL     OW71932  11.613  11.174  12.720
90012SOL    HW171933  11.550  11.244  12.703
90012SOL    HW271934  11.651  11.155  12.634
90013SOL     OW71935  12.885   2.791  13.201
90013SOL    HW171936  12.913   2.765  13.289
90013SOL    HW271937  12.955   2.848  13.169
90014SOL     OW71938   7.471  10.388   0.865
90014SOL    HW171939   7.558  10.347   0.859
90014SOL    HW271940   7.485  10.478   0.837
90015SOL     OW71941  11.457  11.246   7.514
90015SOL    HW171942  11.457  11.157   7.479
90015SOL    HW271943  11.540  11.283   7.483
90016SOL     OW71944   9.228  13.068  10.390
90016SOL    HW171945   9.308  13.119  10.398
90016SOL    HW271946   9.195  13.088  10.302
90017SOL     OW71947  11.148  13.228  10.653
90017SOL    HW171948  11.135  13.140  10.690
90017SOL    HW271949  11.064  13.271  10.665
90018SOL     OW71950  11.919   7.897   9.336
90018SOL    HW171951  11.832   7.922   9.307
90018SOL    HW271952  11.904   7.851   9.419
90019SOL     OW71953  11.391   1.929   0.832
90019SOL    HW171954  11.384   1.916   0.737
90019SOL    HW271955  11.382   2.024   0.844
90020SOL     OW71956  14.372   3.182  13.181
90020SOL    HW171957  14.316   3.203  13.106
90020SOL    HW271958  14.348   3.248  13.247
90021SOL     OW71959   9.201   2.770   4.308
90021SOL    HW171960   9.131   2.726   4.258
90021SOL    HW271961   9.268   2.788   4.243
90022SOL     OW71962   7.223  11.420   4.436
90022SOL    HW171963   7.140  11.457   4.467
90022SOL    HW271964   7.283  11.430   4.510
90023SOL     OW71965  12.084  10.235   4.405
90023SOL    HW171966  12.087  10.259   4.313
90023SOL    HW271967  12.010  10.284   4.441
90024SOL     OW71968  10.943   3.628  14.152
90024SOL    HW171969  10.992   3.614  14.070
90024SOL    HW271970  10.974   3.558  14.210
90025SOL     OW71971   4.387   9.348  10.599
90025SOL    HW171972   4.401   9.256  10.578
90025SOL    HW271973   4.291   9.358  10.601
90026SOL     OW71974   4.797   2.578   1.918
90026SOL    HW171975   4.880   2.577   1.869
90026SOL    HW271976   4.815   2.525   1.996
90027SOL     OW71977   1.534   5.155  11.131
90027SOL    HW171978   1.499   5.087  11.074
90027SOL    HW271979   1.551   5.111  11.214
90028SOL     OW71980  14.550   7.502   7.716
90028SOL    HW171981  14.490   7.428   7.704
90028SOL    HW271982  14.633   7.473   7.680
90029SOL     OW71983   1.046   2.671  13.314
90029SOL    HW171984   1.003   2.756  13.314
90029SOL    HW271985   0.986   2.614  13.363
90030SOL     OW71986   3.618   8.678   2.819
90030SOL    HW171987   3.651   8.718   2.738
90030SOL    HW271988   3.695   8.637   2.858
90031SOL     OW71989   9.621  13.191   9.696
90031SOL    HW171990   9.566  13.123   9.658
90031SOL    HW271991   9.606  13.268   9.642
90032SOL     OW71992   9.880   8.218   1.749
90032SOL    HW171993   9.800   8.196   1.701
90032SOL    HW271994   9.922   8.285   1.695
90033SOL     OW71995  13.342   8.992   6.079
90033SOL    HW171996  13.358   9.086   6.091
90033SOL    HW271997  13.399   8.968   6.007
90034SOL     OW71998   0.161   2.177   8.204
90034SOL    HW171999   0.066   2.181   8.194
90034SOL    HW272000   0.177   2.099   8.257
90035SOL     OW72001   9.466  13.519   2.473
90035SOL    HW172002   9.506  13.438   2.441
90035SOL    HW272003   9.413  13.550   2.399
90036SOL     OW72004  12.495   9.312   9.393
90036SOL    HW172005  12.416   9.366   9.380
90036SOL    HW272006  12.531   9.302   9.305
90037SOL     OW72007  10.994  14.331   1.274
90037SOL    HW172008  11.008  14.250   1.323
90037SOL    HW272009  10.921  14.374   1.319
90038SOL     OW72010   9.669   1.632   2.716
90038SOL    HW172011   9.737   1.645   2.782
90038SOL    HW272012   9.630   1.548   2.737
90039SOL     OW72013  13.811   6.200  14.824
90039SOL    HW172014  13.892   6.250  14.817
90039SOL    HW272015  13.745   6.255  14.782
90040SOL     OW72016   9.316   6.120   3.676
90040SOL    HW172017   9.291   6.028   3.683
90040SOL    HW272018   9.401   6.119   3.633
90041SOL     OW72019  12.136  11.463   1.118
90041SOL    HW172020  12.176  11.505   1.042
90041SOL    HW272021  12.045  11.494   1.117
90042SOL     OW72022  11.360   5.281   1.079
90042SOL    HW172023  11.335   5.323   0.996
90042SOL    HW272024  11.428   5.338   1.115
90043SOL     OW72025   3.382   8.357   5.456
90043SOL    HW172026   3.443   8.360   5.530
90043SOL    HW272027   3.296   8.374   5.495
90044SOL     OW72028  11.754  13.047   0.128
90044SOL    HW172029  11.832  13.004   0.091
90044SOL    HW272030  11.781  13.138   0.141
90045SOL     OW72031   0.907   4.787   2.109
90045SOL    HW172032   0.949   4.713   2.153
90045SOL    HW272033   0.944   4.864   2.151
90046SOL     OW72034   8.554   0.568   1.276
90046SOL    HW172035   8.490   0.626   1.318
90046SOL    HW272036   8.627   0.626   1.253
90047SOL     OW72037   9.986   8.526   4.124
90047SOL    HW172038  10.026   8.441   4.143
90047SOL    HW272039  10.059   8.588   4.123
90048SOL     OW72040   8.684   3.474   3.452
90048SOL    HW172041   8.646   3.429   3.527
90048SOL    HW272042   8.778   3.469   3.465
90049SOL     OW72043  14.519  11.917   4.020
90049SOL    HW172044  14.560  11.844   4.066
90049SOL    HW272045  14.430  11.888   4.004
90050SOL     OW72046  13.777   8.569   7.368
90050SOL    HW172047  13.764   8.542   7.277
90050SOL    HW272048  13.734   8.501   7.420
90051SOL     OW72049   7.918   6.931   4.594
90051SOL    HW172050   7.979   6.948   4.666
90051SOL    HW272051   7.890   7.017   4.566
90052SOL     OW72052   9.371   3.519   7.822
90052SOL    HW172053   9.375   3.424   7.820
90052SOL    HW272054   9.453   3.546   7.864
90053SOL     OW72055   0.035  13.072   1.442
90053SOL    HW172056   0.104  13.097   1.503
90053SOL    HW272057  14.837  13.107   1.481
90054SOL     OW72058  14.406   8.516  12.776
90054SOL    HW172059  14.384   8.470  12.856
90054SOL    HW272060  14.502   8.513  12.772
90055SOL     OW72061   5.134   4.883   3.158
90055SOL    HW172062   5.215   4.916   3.120
90055SOL    HW272063   5.074   4.957   3.159
90056SOL     OW72064  12.124   0.252  14.564
90056SOL    HW172065  12.070   0.330  14.580
90056SOL    HW272066  12.189   0.252  14.634
90057SOL     OW72067   5.570   0.975   7.542
90057SOL    HW172068   5.521   1.001   7.464
90057SOL    HW272069   5.504   0.973   7.612
90058SOL     OW72070  10.021  13.189   6.270
90058SOL    HW172071  10.023  13.280   6.238
90058SOL    HW272072   9.952  13.188   6.335
90059SOL     OW72073  11.695   6.636   3.160
90059SOL    HW172074  11.640   6.703   3.119
90059SOL    HW272075  11.693   6.657   3.253
90060SOL     OW72076   5.319  12.484   5.374
90060SOL    HW172077   5.399  12.537   5.375
90060SOL    HW272078   5.275  12.509   5.293
90061SOL     OW72079  13.977   1.870   5.783
90061SOL    HW172080  13.892   1.896   5.749
90061SOL    HW272081  13.990   1.781   5.749
90062SOL     OW72082   4.120   8.933   8.351
90062SOL    HW172083   4.209   8.903   8.368
90062SOL    HW272084   4.093   8.885   8.273
90063SOL     OW72085  14.629   7.968  12.426
90063SOL    HW172086  14.560   7.920  12.380
90063SOL    HW272087  14.711   7.933  12.392
90064SOL     OW72088   1.876   8.330   3.225
90064SOL    HW172089   1.788   8.317   3.190
90064SOL    HW272090   1.935   8.314   3.151
90065SOL     OW72091   3.528   4.589  11.440
90065SOL    HW172092   3.565   4.552  11.359
90065SOL    HW272093   3.435   4.566  11.435
90066SOL     OW72094   7.138   2.035   7.026
90066SOL    HW172095   7.106   2.006   6.941
90066SOL    HW272096   7.128   2.130   7.024
90067SOL     OW72097  14.537   7.954   5.156
90067SOL    HW172098  14.513   8.003   5.077
90067SOL    HW272099  14.616   7.998   5.188
90068SOL     OW72100   9.762   7.413   7.569
90068SOL    HW172101   9.761   7.506   7.544
90068SOL    HW272102   9.713   7.369   7.499
90069SOL     OW72103   9.846  12.247   0.021
90069SOL    HW172104   9.757  12.215   0.039
90069SOL    HW272105   9.839  12.342   0.025
90070SOL     OW72106   1.486   0.930  11.830
90070SOL    HW172107   1.451   0.993  11.767
90070SOL    HW272108   1.468   0.845  11.791
90071SOL     OW72109  14.867   3.541   9.358
90071SOL    HW172110  14.773   3.528   9.374
90071SOL    HW272111  14.879   3.636   9.361
90072SOL     OW72112   8.847  11.052   2.955
90072SOL    HW172113   8.814  11.096   2.876
90072SOL    HW272114   8.886  10.971   2.923
90073SOL     OW72115   3.439  12.587   3.211
90073SOL    HW172116   3.373  12.651   3.182
90073SOL    HW272117   3.416  12.507   3.163
90074SOL     OW72118   5.321  13.786   0.724
90074SOL    HW172119   5.363  13.749   0.802
90074SOL    HW272120   5.246  13.834   0.758
90075SOL     OW72121   3.313  12.317  12.987
90075SOL    HW172122   3.228  12.273  12.982
90075SOL    HW272123   3.372  12.252  13.025
90076SOL     OW72124   6.610   3.303  13.749
90076SOL    HW172125   6.586   3.367  13.682
90076SOL    HW272126   6.694   3.334  13.783
90077SOL     OW72127  13.748   8.383   2.171
90077SOL    HW172128  13.709   8.314   2.223
90077SOL    HW272129  13.689   8.458   2.181
90078SOL     OW72130   1.041   5.754   6.710
90078SOL    HW172131   1.016   5.839   6.674
90078SOL    HW272132   0.975   5.736   6.777
90079SOL     OW72133  14.840   1.751   8.731
90079SOL    HW172134  14.813   1.788   8.815
90079SOL    HW272135  14.834   1.824   8.669
90080SOL     OW72136   1.845   1.518  10.952
90080SOL    HW172137   1.904   1.590  10.930
90080SOL    HW272138   1.770   1.560  10.994
90081SOL     OW72139  11.552   6.621   6.519
90081SOL    HW172140  11.532   6.551   6.457
90081SOL    HW272141  11.546   6.579   6.605
90082SOL     OW72142  11.411   2.216  10.088
90082SOL    HW172143  11.347   2.158  10.047
90082SOL    HW272144  11.358   2.286  10.127
90083SOL     OW72145  11.804  12.484   0.087
90083SOL    HW172146  11.858  12.561   0.104
90083SOL    HW272147  11.750  12.475   0.166
90084SOL     OW72148   8.976  10.617   9.419
90084SOL    HW172149   9.033  10.616   9.342
90084SOL    HW272150   9.013  10.685   9.475
90085SOL     OW72151  12.914   4.688   3.894
90085SOL    HW172152  12.949   4.760   3.945
90085SOL    HW272153  12.979   4.674   3.825
90086SOL     OW72154  14.395   1.195   1.105
90086SOL    HW172155  14.458   1.265   1.084
90086SOL    HW272156  14.449   1.116   1.114
90087SOL     OW72157   5.064  12.325  10.107
90087SOL    HW172158   4.991  12.265  10.120
90087SOL    HW272159   5.094  12.346  10.196
90088SOL     OW72160   0.049  11.116   5.009
90088SOL    HW172161   0.109  11.158   5.070
90088SOL    HW272162  14.846  11.123   5.051
90089SOL     OW72163  13.402   9.361  14.554
90089SOL    HW172164  13.381   9.335  14.465
90089SOL    HW272165  13.328   9.416  14.581
90090SOL     OW72166   5.530   9.769   1.256
90090SOL    HW172167   5.506   9.736   1.169
90090SOL    HW272168   5.487   9.854   1.262
90091SOL     OW72169   6.216   2.863   4.568
90091SOL    HW172170   6.293   2.810   4.548
90091SOL    HW272171   6.249   2.936   4.620
90092SOL     OW72172   2.327  10.391   2.720
90092SOL    HW172173   2.288  10.319   2.670
90092SOL    HW272174   2.418  10.395   2.691
90093SOL     OW72175  12.987   7.639   7.974
90093SOL    HW172176  13.082   7.636   7.966
90093SOL    HW272177  12.969   7.717   8.027
90094SOL     OW72178  14.614  10.082   8.417
90094SOL    HW172179  14.555  10.134   8.473
90094SOL    HW272180  14.581   9.992   8.426
90095SOL     OW72181   7.222   4.993   7.693
90095SOL    HW172182   7.259   5.046   7.622
90095SOL    HW272183   7.265   4.908   7.684
90096SOL     OW72184   0.361   9.862   0.932
90096SOL    HW172185   0.388   9.920   0.860
90096SOL    HW272186   0.346   9.777   0.890
90097SOL     OW72187   7.055  10.311   8.989
90097SOL    HW172188   7.040  10.241   9.053
90097SOL    HW272189   7.149  10.327   8.993
90098SOL     OW72190   0.955   4.712   9.290
90098SOL    HW172191   1.000   4.713   9.374
90098SOL    HW272192   0.868   4.677   9.310
90099SOL     OW72193   6.020   7.513   4.365
90099SOL    HW172194   5.958   7.548   4.429
90099SOL    HW272195   5.971   7.445   4.319
90100SOL     OW72196  12.841   8.519   9.649
90100SOL    HW172197  12.885   8.439   9.622
90100SOL    HW272198  12.748   8.499   9.639
90101SOL     OW72199   4.654   5.363   8.621
90101SOL    HW172200   4.731   5.332   8.573
90101SOL    HW272201   4.583   5.361   8.558
90102SOL     OW72202  13.268   3.272   7.835
90102SOL    HW172203  13.298   3.221   7.760
90102SOL    HW272204  13.348   3.305   7.875
90103SOL     OW72205   5.286   6.869   7.297
90103SOL    HW172206   5.226   6.798   7.321
90103SOL    HW272207   5.229   6.940   7.267
90104SOL     OW72208   1.027   9.496   4.894
90104SOL    HW172209   0.996   9.554   4.964
90104SOL    HW272210   1.107   9.537   4.863
90105SOL     OW72211   9.931   0.744   2.945
90105SOL    HW172212  10.009   0.761   2.997
90105SOL    HW272213   9.962   0.744   2.854
90106SOL     OW72214  13.079   8.874  13.827
90106SOL    HW172215  13.153   8.828  13.866
90106SOL    HW272216  13.007   8.859  13.888
90107SOL     OW72217   7.634   4.669   8.757
90107SOL    HW172218   7.689   4.592   8.767
90107SOL    HW272219   7.674   4.718   8.686
90108SOL     OW72220   4.663  10.682   1.915
90108SOL    HW172221   4.643  10.618   1.983
90108SOL    HW272222   4.753  10.662   1.888
90109SOL     OW72223   7.856  11.564   6.717
90109SOL    HW172224   7.944  11.593   6.741
90109SOL    HW272225   7.841  11.486   6.770
90110SOL     OW72226  12.623   9.991  14.591
90110SOL    HW172227  12.551   9.974  14.530
90110SOL    HW272228  12.580  10.030  14.667
90111SOL     OW72229   3.286   0.059   3.266
90111SOL    HW172230   3.335   0.140   3.252
90111SOL    HW272231   3.327  14.878   3.207
90112SOL     OW72232  10.089   9.624  11.406
90112SOL    HW172233  10.057   9.712  11.386
90112SOL    HW272234  10.043   9.567  11.344
90113SOL     OW72235   4.079   7.980   7.828
90113SOL    HW172236   4.167   7.973   7.863
90113SOL    HW272237   4.022   7.978   7.905
90114SOL     OW72238  11.795  11.082  12.511
90114SOL    HW172239  11.808  10.994  12.546
90114SOL    HW272240  11.788  11.069  12.416
90115SOL     OW72241   0.072   4.067   8.537
90115SOL    HW172242   0.157   4.102   8.508
90115SOL    HW272243   0.035   4.027   8.459
90116SOL     OW72244   5.753  10.537  14.664
90116SOL    HW172245   5.824  10.488  14.625
90116SOL    HW272246   5.755  10.513  14.757
90117SOL     OW72247   4.488   7.749  13.284
90117SOL    HW172248   4.553   7.681  13.267
90117SOL    HW272249   4.515   7.822  13.228
90118SOL     OW72250   7.781   7.089   7.545
90118SOL    HW172251   7.796   7.029   7.618
90118SOL    HW272252   7.773   7.032   7.469
90119SOL     OW72253   0.516   1.925  13.140
90119SOL    HW172254   0.553   1.922  13.051
90119SOL    HW272255   0.446   1.990  13.135
90120SOL     OW72256   5.466   4.075  10.611
90120SOL    HW172257   5.420   3.998  10.643
90120SOL    HW272258   5.473   4.061  10.516
90121SOL     OW72259   6.620   2.411  12.576
90121SOL    HW172260   6.645   2.410  12.669
90121SOL    HW272261   6.561   2.336  12.567
90122SOL     OW72262   3.050   4.295   8.410
90122SOL    HW172263   2.978   4.322   8.468
90122SOL    HW272264   3.015   4.305   8.322
90123SOL     OW72265  12.109   8.423   2.433
90123SOL    HW172266  12.164   8.409   2.356
90123SOL    HW272267  12.161   8.390   2.506
90124SOL     OW72268   2.872   2.625  11.420
90124SOL    HW172269   2.884   2.568  11.496
90124SOL    HW272270   2.839   2.707  11.456
90125SOL     OW72271   5.794   9.704   9.836
90125SOL    HW172272   5.813   9.695   9.743
90125SOL    HW272273   5.790   9.799   9.850
90126SOL     OW72274   4.971  11.992   8.046
90126SOL    HW172275   4.888  12.020   8.085
90126SOL    HW272276   4.962  12.017   7.953
90127SOL     OW72277  13.181   9.022  14.840
90127SOL    HW172278  13.134   8.994   0.036
90127SOL    HW272279  13.254   8.961  14.832
90128SOL     OW72280  11.644  10.319   0.127
90128SOL    HW172281  11.638  10.306   0.221
90128SOL    HW272282  11.735  10.347   0.112
90129SOL     OW72283   1.210   1.905   9.005
90129SOL    HW172284   1.302   1.917   9.029
90129SOL    HW272285   1.172   1.860   9.080
90130SOL     OW72286  11.515  12.887  11.040
90130SOL    HW172287  11.460  12.948  10.992
90130SOL    HW272288  11.526  12.926  11.127
90131SOL     OW72289  12.951  14.318  10.344
90131SOL    HW172290  12.992  14.286  10.263
90131SOL    HW272291  12.997  14.399  10.364
90132SOL     OW72292   6.064   8.821   1.650
90132SOL    HW172293   6.139   8.879   1.661
90132SOL    HW272294   5.988   8.881   1.650
90133SOL     OW72295  12.740  12.584   9.662
90133SOL    HW172296  12.836  12.589   9.662
90133SOL    HW272297  12.720  12.502   9.707
90134SOL     OW72298   8.978  10.836   8.970
90134SOL    HW172299   8.904  10.867   8.919
90134SOL    HW272300   8.979  10.891   9.048
90135SOL     OW72301   9.169  11.954  11.960
90135SOL    HW172302   9.262  11.938  11.976
90135SOL    HW272303   9.133  11.976  12.046
90136SOL     OW72304   2.544   3.024  10.640
90136SOL    HW172305   2.529   3.096  10.701
90136SOL    HW272306   2.619   3.052  10.588
90137SOL     OW72307   7.101   3.826  11.088
90137SOL    HW172308   7.037   3.795  11.023
90137SOL    HW272309   7.184   3.829  11.040
90138SOL     OW72310   6.800   0.112   9.222
90138SOL    HW172311   6.839   0.200   9.219
90138SOL    HW272312   6.807   0.086   9.314
90139SOL     OW72313   4.355   5.992   3.390
90139SOL    HW172314   4.288   6.024   3.330
90139SOL    HW272315   4.395   5.917   3.344
90140SOL     OW72316   1.878   9.581  14.870
90140SOL    HW172317   1.914   9.657  14.825
90140SOL    HW272318   1.813   9.618   0.049
90141SOL     OW72319   7.141   2.256   7.450
90141SOL    HW172320   7.190   2.269   7.531
90141SOL    HW272321   7.206   2.225   7.387
90142SOL     OW72322   3.478  10.103   3.049
90142SOL    HW172323   3.402  10.046   3.062
90142SOL    HW272324   3.477  10.122   2.956
90143SOL     OW72325   2.363   3.516  14.030
90143SOL    HW172326   2.316   3.521  13.947
90143SOL    HW272327   2.327   3.438  14.073
90144SOL     OW72328   7.295   3.318  13.836
90144SOL    HW172329   7.305   3.400  13.787
90144SOL    HW272330   7.327   3.338  13.924
90145SOL     OW72331   2.524  10.748  10.856
90145SOL    HW172332   2.613  10.770  10.830
90145SOL    HW272333   2.498  10.679  10.795
90146SOL     OW72334   3.166   9.549   6.379
90146SOL    HW172335   3.221   9.618   6.415
90146SOL    HW272336   3.224   9.498   6.324
90147SOL     OW72337   7.233   8.696   3.707
90147SOL    HW172338   7.210   8.605   3.690
90147SOL    HW272339   7.210   8.742   3.626
90148SOL     OW72340   1.839   8.466  10.108
90148SOL    HW172341   1.816   8.383  10.150
90148SOL    HW272342   1.762   8.488  10.056
90149SOL     OW72343   0.777  14.376  11.343
90149SOL    HW172344   0.689  14.389  11.378
90149SOL    HW272345   0.782  14.282  11.325
90150SOL     OW72346   5.523   3.473  13.590
90150SOL    HW172347   5.466   3.522  13.649
90150SOL    HW272348   5.515   3.382  13.620
90151SOL     OW72349   3.090   2.322   1.215
90151SOL    HW172350   3.112   2.262   1.143
90151SOL    HW272351   3.173   2.338   1.259
90152SOL     OW72352   5.982   3.099  12.660
90152SOL    HW172353   5.961   3.080  12.569
90152SOL    HW272354   5.970   3.015  12.705
90153SOL     OW72355   9.324  11.707   8.092
90153SOL    HW172356   9.405  11.687   8.141
90153SOL    HW272357   9.283  11.778   8.141
90154SOL     OW72358  11.924   8.054  11.962
90154SOL    HW172359  12.018   8.036  11.968
90154SOL    HW272360  11.894   8.055  12.052
90155SOL     OW72361   1.388  12.008  10.199
90155SOL    HW172362   1.374  12.006  10.104
90155SOL    HW272363   1.334  11.937  10.232
90156SOL     OW72364  10.557  13.970   2.910
90156SOL    HW172365  10.539  14.062   2.894
90156SOL    HW272366  10.653  13.965   2.917
90157SOL     OW72367  13.436   6.216   5.052
90157SOL    HW172368  13.345   6.194   5.031
90157SOL    HW272369  13.459   6.162   5.127
90158SOL     OW72370  13.821  14.328   1.397
90158SOL    HW172371  13.762  14.260   1.432
90158SOL    HW272372  13.899  14.322   1.452
90159SOL     OW72373  13.672  14.303   4.387
90159SOL    HW172374  13.760  14.339   4.395
90159SOL    HW272375  13.629  14.325   4.470
90160SOL     OW72376   4.798  10.884  13.382
90160SOL    HW172377   4.791  10.921  13.470
90160SOL    HW272378   4.714  10.841  13.367
90161SOL     OW72379   9.887   1.165  11.883
90161SOL    HW172380   9.846   1.224  11.820
90161SOL    HW272381   9.820   1.100  11.903
90162SOL     OW72382   6.446   9.877   9.611
90162SOL    HW172383   6.382   9.834   9.668
90162SOL    HW272384   6.394   9.911   9.538
90163SOL     OW72385  10.877  11.557  11.873
90163SOL    HW172386  10.797  11.583  11.828
90163SOL    HW272387  10.880  11.462  11.862
90164SOL     OW72388   6.359   1.475   1.214
90164SOL    HW172389   6.449   1.454   1.239
90164SOL    HW272390   6.324   1.394   1.176
90165SOL     OW72391  11.026  11.869   6.339
90165SOL    HW172392  11.054  11.809   6.270
90165SOL    HW272393  10.955  11.920   6.300
90166SOL     OW72394   5.587   9.222  14.068
90166SOL    HW172395   5.586   9.137  14.112
90166SOL    HW272396   5.528   9.210  13.993
90167SOL     OW72397   0.778   7.905  13.902
90167SOL    HW172398   0.782   7.892  13.808
90167SOL    HW272399   0.854   7.960  13.922
90168SOL     OW72400   5.590   8.021  12.817
90168SOL    HW172401   5.605   7.992  12.906
90168SOL    HW272402   5.526   8.092  12.825
90169SOL     OW72403   7.374   9.204   2.485
90169SOL    HW172404   7.431   9.250   2.546
90169SOL    HW272405   7.342   9.128   2.534
90170SOL     OW72406  14.239   9.574   5.890
90170SOL    HW172407  14.259   9.667   5.900
90170SOL    HW272408  14.154   9.572   5.846
90171SOL     OW72409   8.373   5.271  11.421
90171SOL    HW172410   8.337   5.190  11.458
90171SOL    HW272411   8.311   5.339  11.446
90172SOL     OW72412   6.655  12.656  10.941
90172SOL    HW172413   6.706  12.737  10.938
90172SOL    HW272414   6.720  12.586  10.942
90173SOL     OW72415  13.657   4.462   7.287
90173SOL    HW172416  13.651   4.451   7.192
90173SOL    HW272417  13.617   4.547   7.304
90174SOL     OW72418  13.233  11.813   2.944
90174SOL    HW172419  13.312  11.865   2.935
90174SOL    HW272420  13.262  11.722   2.931
90175SOL     OW72421  13.050  10.348   0.253
90175SOL    HW172422  12.975  10.295   0.225
90175SOL    HW272423  13.014  10.436   0.265
90176SOL     OW72424   7.745   8.388   6.772
90176SOL    HW172425   7.689   8.438   6.832
90176SOL    HW272426   7.684   8.343   6.714
90177SOL     OW72427   1.823   1.821  14.866
90177SOL    HW172428   1.909   1.794  14.835
90177SOL    HW272429   1.781   1.740   0.012
90178SOL     OW72430   4.295  12.364   8.867
90178SOL    HW172431   4.247  12.323   8.939
90178SOL    HW272432   4.244  12.442   8.845
90179SOL     OW72433  13.966  11.096   1.826
90179SOL    HW172434  13.993  11.020   1.878
90179SOL    HW272435  13.933  11.159   1.890
90180SOL     OW72436   9.715   7.133  11.504
90180SOL    HW172437   9.727   7.039  11.491
90180SOL    HW272438   9.695   7.168  11.417
90181SOL     OW72439   4.538   9.636   4.826
90181SOL    HW172440   4.574   9.602   4.744
90181SOL    HW272441   4.443   9.625   4.817
90182SOL     OW72442   5.942  10.744   2.597
90182SOL    HW172443   5.975  10.664   2.556
90182SOL    HW272444   6.020  10.788   2.631
90183SOL     OW72445  11.096  10.813   3.935
90183SOL    HW172446  11.013  10.769   3.923
90183SOL    HW272447  11.075  10.891   3.987
90184SOL     OW72448  14.391  12.623   8.510
90184SOL    HW172449  14.387  12.527   8.512
90184SOL    HW272450  14.468  12.645   8.563
90185SOL     OW72451   5.805  12.672   6.041
90185SOL    HW172452   5.787  12.583   6.073
90185SOL    HW272453   5.763  12.729   6.106
90186SOL     OW72454  10.951   8.308  13.853
90186SOL    HW172455  11.003   8.319  13.933
90186SOL    HW272456  10.912   8.221  13.861
90187SOL     OW72457  10.213  13.129   6.052
90187SOL    HW172458  10.197  13.206   5.997
90187SOL    HW272459  10.151  13.138   6.125
90188SOL     OW72460   2.973   4.527   8.019
90188SOL    HW172461   2.957   4.449   7.966
90188SOL    HW272462   2.952   4.501   8.109
90189SOL     OW72463   0.277   8.594   2.811
90189SOL    HW172464   0.368   8.589   2.839
90189SOL    HW272465   0.270   8.531   2.740
90190SOL     OW72466   3.834  11.898  13.955
90190SOL    HW172467   3.930  11.897  13.949
90190SOL    HW272468   3.812  11.990  13.968
90191SOL     OW72469  10.442   3.325  13.747
90191SOL    HW172470  10.413   3.234  13.757
90191SOL    HW272471  10.380   3.376  13.801
90192SOL     OW72472   7.580   3.821  12.786
90192SOL    HW172473   7.519   3.814  12.859
90192SOL    HW272474   7.568   3.739  12.738
90193SOL     OW72475  12.782   8.487  12.863
90193SOL    HW172476  12.708   8.472  12.805
90193SOL    HW272477  12.836   8.551  12.817
90194SOL     OW72478  11.674   7.874   8.027
90194SOL    HW172479  11.753   7.825   8.006
90194SOL    HW272480  11.602   7.813   8.007
90195SOL     OW72481   4.998   9.891   4.342
90195SOL    HW172482   4.928   9.950   4.370
90195SOL    HW272483   5.078   9.931   4.376
90196SOL     OW72484   6.242   4.611   7.233
90196SOL    HW172485   6.274   4.542   7.176
90196SOL    HW272486   6.178   4.659   7.180
90197SOL     OW72487   8.347   6.930   5.448
90197SOL    HW172488   8.289   6.877   5.503
90197SOL    HW272489   8.400   6.980   5.511
90198SOL     OW72490  13.564  10.743  10.437
90198SOL    HW172491  13.490  10.686  10.457
90198SOL    HW272492  13.525  10.826  10.412
90199SOL     OW72493   1.173  12.477  10.733
90199SOL    HW172494   1.127  12.429  10.663
90199SOL    HW272495   1.231  12.537  10.686
90200SOL     OW72496  12.314   2.937   9.646
90200SOL    HW172497  12.339   2.955   9.556
90200SOL    HW272498  12.372   2.992   9.699
90201SOL     OW72499   3.610   5.276   9.757
90201SOL    HW172500   3.669   5.349   9.777
90201SOL    HW272501   3.572   5.299   9.672
90202SOL     OW72502   4.082   2.902   6.145
90202SOL    HW172503   4.069   2.822   6.094
90202SOL    HW272504   4.063   2.876   6.235
90203SOL     OW72505  12.742   0.265  14.666
90203SOL    HW172506  12.814   0.314  14.627
90203SOL    HW272507  12.721   0.197  14.601
90204SOL     OW72508   8.783   3.556   4.855
90204SOL    HW172509   8.753   3.565   4.946
90204SOL    HW272510   8.733   3.622   4.807
90205SOL     OW72511   9.305   2.622   6.767
90205SOL    HW172512   9.320   2.709   6.804
90205SOL    HW272513   9.354   2.563   6.825
90206SOL     OW72514   5.947   0.249  12.278
90206SOL    HW172515   5.905   0.170  12.244
90206SOL    HW272516   5.937   0.314  12.209
90207SOL     OW72517   6.004   4.539   9.421
90207SOL    HW172518   5.954   4.570   9.345
90207SOL    HW272519   5.992   4.609   9.487
90208SOL     OW72520  14.826  11.234   3.492
90208SOL    HW172521   0.034  11.210   3.468
90208SOL    HW272522  14.771  11.183   3.433
90209SOL     OW72523   7.953  11.414   4.257
90209SOL    HW172524   7.930  11.463   4.178
90209SOL    HW272525   8.006  11.474   4.308
90210SOL     OW72526   3.318  12.387   4.914
90210SOL    HW172527   3.228  12.353   4.908
90210SOL    HW272528   3.356  12.369   4.828
90211SOL     OW72529   5.616  10.117   0.568
90211SOL    HW172530   5.663  10.099   0.486
90211SOL    HW272531   5.647  10.204   0.594
90212SOL     OW72532   3.015   3.161  14.746
90212SOL    HW172533   3.000   3.067  14.739
90212SOL    HW272534   2.957   3.199  14.680
90213SOL     OW72535   4.270   8.709   3.575
90213SOL    HW172536   4.309   8.706   3.662
90213SOL    HW272537   4.197   8.647   3.579
90214SOL     OW72538  12.529   3.443   3.600
90214SOL    HW172539  12.572   3.520   3.562
90214SOL    HW272540  12.494   3.396   3.524
90215SOL     OW72541   3.634  10.420  12.877
90215SOL    HW172542   3.647  10.502  12.924
90215SOL    HW272543   3.640  10.353  12.944
90216SOL     OW72544  11.087   3.203   6.325
90216SOL    HW172545  11.013   3.143   6.316
90216SOL    HW272546  11.048   3.284   6.358
90217SOL     OW72547   0.410  14.012   4.024
90217SOL    HW172548   0.502  14.037   4.013
90217SOL    HW272549   0.410  13.953   4.099
90218SOL     OW72550  11.242  12.970   9.572
90218SOL    HW172551  11.294  12.894   9.598
90218SOL    HW272552  11.225  12.956   9.479
90219SOL     OW72553  12.116   5.589   0.265
90219SOL    HW172554  12.034   5.588   0.315
90219SOL    HW272555  12.116   5.506   0.217
90220SOL     OW72556  14.838   9.792   2.811
90220SOL    HW172557  14.837   9.737   2.890
90220SOL    HW272558  14.827   9.730   2.739
90221SOL     OW72559   9.526   4.357  13.897
90221SOL    HW172560   9.569   4.350  13.811
90221SOL    HW272561   9.459   4.289  13.896
90222SOL     OW72562  11.635   9.942   1.756
90222SOL    HW172563  11.570  10.007   1.731
90222SOL    HW272564  11.627   9.936   1.851
90223SOL     OW72565  11.036   1.490   0.117
90223SOL    HW172566  11.010   1.556   0.182
90223SOL    HW272567  11.124   1.517   0.090
90224SOL     OW72568  14.529  13.664  12.428
90224SOL    HW172569  14.500  13.755  12.425
90224SOL    HW272570  14.596  13.657  12.359
90225SOL     OW72571   4.047  12.147  12.341
90225SOL    HW172572   4.041  12.227  12.393
90225SOL    HW272573   4.123  12.161  12.284
90226SOL     OW72574   2.359   4.996  11.597
90226SOL    HW172575   2.313   4.973  11.678
90226SOL    HW272576   2.336   4.926  11.535
90227SOL     OW72577  10.117   7.448  10.639
90227SOL    HW172578  10.177   7.385  10.678
90227SOL    HW272579  10.044   7.453  10.700
90228SOL     OW72580   6.416   7.209   5.607
90228SOL    HW172581   6.438   7.296   5.642
90228SOL    HW272582   6.320   7.209   5.602
90229SOL     OW72583   3.195  10.272   0.455
90229SOL    HW172584   3.177  10.366   0.467
90229SOL    HW272585   3.132  10.244   0.389
90230SOL     OW72586   6.825   5.673   9.746
90230SOL    HW172587   6.764   5.702   9.814
90230SOL    HW272588   6.769   5.633   9.680
90231SOL     OW72589   1.146  10.243  10.672
90231SOL    HW172590   1.186  10.321  10.710
90231SOL    HW272591   1.084  10.277  10.608
90232SOL     OW72592   3.593   0.715   9.432
90232SOL    HW172593   3.590   0.777   9.360
90232SOL    HW272594   3.660   0.652   9.406
90233SOL     OW72595   9.214   6.087  13.851
90233SOL    HW172596   9.121   6.085  13.829
90233SOL    HW272597   9.240   6.178  13.836
90234SOL     OW72598   6.629   1.399   5.996
90234SOL    HW172599   6.682   1.470   6.032
90234SOL    HW272600   6.679   1.369   5.920
90235SOL     OW72601   4.921  13.264   1.101
90235SOL    HW172602   4.970  13.342   1.076
90235SOL    HW272603   4.844  13.298   1.147
90236SOL     OW72604   0.397   1.743   2.982
90236SOL    HW172605   0.486   1.712   2.964
90236SOL    HW272606   0.393   1.830   2.943
90237SOL     OW72607   2.848   2.872   8.594
90237SOL    HW172608   2.755   2.854   8.579
90237SOL    HW272609   2.892   2.788   8.582
90238SOL     OW72610   1.714   1.458   4.448
90238SOL    HW172611   1.781   1.522   4.470
90238SOL    HW272612   1.686   1.482   4.360
90239SOL     OW72613   3.831   9.740   8.035
90239SOL    HW172614   3.808   9.747   8.127
90239SOL    HW272615   3.892   9.812   8.020
90240SOL     OW72616   7.809   3.870  13.160
90240SOL    HW172617   7.773   3.958  13.152
90240SOL    HW272618   7.834   3.846  13.070
90241SOL     OW72619   5.722   2.793  10.223
90241SOL    HW172620   5.767   2.878  10.227
90241SOL    HW272621   5.722   2.771  10.130
90242SOL     OW72622   7.425   1.095   1.626
90242SOL    HW172623   7.410   1.030   1.557
90242SOL    HW272624   7.407   1.049   1.708
90243SOL     OW72625  13.385   9.495   5.721
90243SOL    HW172626  13.401   9.554   5.647
90243SOL    HW272627  13.433   9.415   5.699
90244SOL     OW72628   4.680   7.444   8.002
90244SOL    HW172629   4.682   7.511   7.933
90244SOL    HW272630   4.740   7.477   8.069
90245SOL     OW72631   0.141  14.048   6.556
90245SOL    HW172632   0.111  13.958   6.550
90245SOL    HW272633   0.233  14.041   6.581
90246SOL     OW72634   7.364  10.002   7.944
90246SOL    HW172635   7.283  10.041   7.978
90246SOL    HW272636   7.380  10.048   7.862
90247SOL     OW72637  13.165   3.504  11.363
90247SOL    HW172638  13.248   3.486  11.320
90247SOL    HW272639  13.119   3.420  11.363
90248SOL     OW72640   4.260   0.037   5.534
90248SOL    HW172641   4.207   0.115   5.517
90248SOL    HW272642   4.346   0.057   5.497
90249SOL     OW72643   7.763   4.033  12.386
90249SOL    HW172644   7.763   4.029  12.290
90249SOL    HW272645   7.680   3.991  12.411
90250SOL     OW72646   3.658   3.468  12.807
90250SOL    HW172647   3.730   3.406  12.814
90250SOL    HW272648   3.688   3.533  12.743
90251SOL     OW72649   0.751  14.778  13.767
90251SOL    HW172650   0.831  14.831  13.768
90251SOL    HW272651   0.705  14.807  13.688
90252SOL     OW72652   3.795   8.990   6.349
90252SOL    HW172653   3.795   8.971   6.256
90252SOL    HW272654   3.738   8.923   6.387
90253SOL     OW72655   3.317  14.505   2.164
90253SOL    HW172656   3.298  14.544   2.079
90253SOL    HW272657   3.412  14.504   2.169
90254SOL     OW72658   6.082   5.346   9.186
90254SOL    HW172659   6.071   5.361   9.279
90254SOL    HW272660   6.094   5.252   9.177
90255SOL     OW72661  12.039  10.710   0.644
90255SOL    HW172662  12.041  10.692   0.550
90255SOL    HW272663  12.064  10.802   0.652
90256SOL     OW72664   2.250   5.303   1.486
90256SOL    HW172665   2.308   5.378   1.474
90256SOL    HW272666   2.232   5.301   1.580
90257SOL     OW72667   2.243   7.357   5.833
90257SOL    HW172668   2.160   7.314   5.857
90257SOL    HW272669   2.251   7.431   5.893
90258SOL     OW72670   7.296  12.030  12.751
90258SOL    HW172671   7.304  11.949  12.802
90258SOL    HW272672   7.341  12.010  12.669
90259SOL     OW72673  13.677   2.074   3.734
90259SOL    HW172674  13.597   2.051   3.781
90259SOL    HW272675  13.722   2.134   3.793
90260SOL     OW72676   8.678  10.916   0.647
90260SOL    HW172677   8.680  10.856   0.573
90260SOL    HW272678   8.721  10.995   0.615
90261SOL     OW72679   5.366   2.712   2.469
90261SOL    HW172680   5.285   2.662   2.474
90261SOL    HW272681   5.338   2.802   2.454
90262SOL     OW72682  12.927  10.893  10.857
90262SOL    HW172683  13.019  10.876  10.878
90262SOL    HW272684  12.929  10.948  10.779
90263SOL     OW72685  14.876   4.671  13.841
90263SOL    HW172686   0.056   4.720  13.788
90263SOL    HW272687  14.801   4.730  13.851
90264SOL     OW72688   5.116  12.927  10.554
90264SOL    HW172689   5.101  12.876  10.475
90264SOL    HW272690   5.042  12.906  10.611
90265SOL     OW72691   4.418   9.974   7.174
90265SOL    HW172692   4.414   9.892   7.223
90265SOL    HW272693   4.415  10.042   7.241
90266SOL     OW72694  14.094   6.298  11.068
90266SOL    HW172695  14.084   6.261  11.156
90266SOL    HW272696  14.105   6.392  11.082
90267SOL     OW72697  10.912   1.600  12.611
90267SOL    HW172698  10.891   1.507  12.608
90267SOL    HW272699  10.828   1.644  12.622
90268SOL     OW72700   1.747  12.501  12.160
90268SOL    HW172701   1.788  12.540  12.083
90268SOL    HW272702   1.668  12.553  12.175
90269SOL     OW72703   8.991  12.296   4.366
90269SOL    HW172704   9.012  12.387   4.345
90269SOL    HW272705   8.909  12.301   4.415
90270SOL     OW72706   1.374   1.512  11.863
90270SOL    HW172707   1.315   1.439  11.878
90270SOL    HW272708   1.384   1.516  11.768
90271SOL     OW72709   7.006   7.158   7.849
90271SOL    HW172710   7.100   7.140   7.852
90271SOL    HW272711   6.968   7.081   7.807
90272SOL     OW72712   5.265   5.211   1.097
90272SOL    HW172713   5.296   5.123   1.074
90272SOL    HW272714   5.344   5.256   1.128
90273SOL     OW72715   7.422   0.316   4.973
90273SOL    HW172716   7.492   0.378   4.954
90273SOL    HW272717   7.402   0.329   5.066
90274SOL     OW72718   2.795   7.214   5.544
90274SOL    HW172719   2.869   7.211   5.483
90274SOL    HW272720   2.719   7.186   5.491
90275SOL     OW72721  14.637   7.094   0.589
90275SOL    HW172722  14.579   7.057   0.655
90275SOL    HW272723  14.578   7.139   0.528
90276SOL     OW72724  11.573   5.207  11.373
90276SOL    HW172725  11.524   5.245  11.300
90276SOL    HW272726  11.534   5.247  11.451
90277SOL     OW72727  14.320   9.188   2.769
90277SOL    HW172728  14.319   9.113   2.829
90277SOL    HW272729  14.250   9.245   2.801
90278SOL     OW72730  13.374   9.316   9.334
90278SOL    HW172731  13.448   9.367   9.299
90278SOL    HW272732  13.314   9.382   9.368
90279SOL     OW72733   6.426  12.979  13.223
90279SOL    HW172734   6.447  12.976  13.317
90279SOL    HW272735   6.432  12.888  13.195
90280SOL     OW72736  13.674  10.324   6.671
90280SOL    HW172737  13.712  10.386   6.733
90280SOL    HW272738  13.737  10.321   6.599
90281SOL     OW72739   1.460   9.434   5.266
90281SOL    HW172740   1.400   9.448   5.339
90281SOL    HW272741   1.490   9.344   5.276
90282SOL     OW72742   1.809   6.714   6.792
90282SOL    HW172743   1.904   6.703   6.784
90282SOL    HW272744   1.798   6.798   6.836
90283SOL     OW72745   9.827  10.055  11.906
90283SOL    HW172746   9.765  10.112  11.952
90283SOL    HW272747   9.892  10.116  11.870
90284SOL     OW72748   3.176   9.965   7.291
90284SOL    HW172749   3.207   9.972   7.201
90284SOL    HW272750   3.119  10.041   7.303
90285SOL     OW72751  14.754   3.019   5.904
90285SOL    HW172752  14.738   3.043   5.813
90285SOL    HW272753  14.816   2.947   5.899
90286SOL     OW72754   1.160  13.039  12.212
90286SOL    HW172755   1.069  13.017  12.190
90286SOL    HW272756   1.159  13.050  12.307
90287SOL     OW72757  10.892   5.883   1.918
90287SOL    HW172758  10.796   5.878   1.911
90287SOL    HW272759  10.913   5.835   1.998
90288SOL     OW72760  13.232   8.572  14.461
90288SOL    HW172761  13.308   8.539  14.413
90288SOL    HW272762  13.165   8.586  14.394
90289SOL     OW72763  13.659  12.793   5.517
90289SOL    HW172764  13.614  12.712   5.492
90289SOL    HW272765  13.694  12.775   5.604
90290SOL     OW72766   2.900   0.219   3.335
90290SOL    HW172767   2.950   0.185   3.408
90290SOL    HW272768   2.825   0.263   3.375
90291SOL     OW72769   9.150  13.253  14.317
90291SOL    HW172770   9.108  13.338  14.308
90291SOL    HW272771   9.156  13.239  14.411
90292SOL     OW72772  12.903   8.054   3.369
90292SOL    HW172773  12.891   8.003   3.448
90292SOL    HW272774  12.964   8.123   3.393
90293SOL     OW72775   9.769  12.959   2.015
90293SOL    HW172776   9.712  12.943   2.090
90293SOL    HW272777   9.816  12.876   2.003
90294SOL     OW72778   7.553   0.904  11.989
90294SOL    HW172779   7.531   0.886  12.080
90294SOL    HW272780   7.490   0.853  11.938
90295SOL     OW72781   1.372   4.405   9.611
90295SOL    HW172782   1.338   4.368   9.692
90295SOL    HW272783   1.294   4.439   9.566
90296SOL     OW72784  11.550   8.731  12.618
90296SOL    HW172785  11.579   8.748  12.528
90296SOL    HW272786  11.459   8.702  12.609
90297SOL     OW72787  11.339   1.772   7.130
90297SOL    HW172788  11.273   1.818   7.183
90297SOL    HW272789  11.387   1.842   7.086
90298SOL     OW72790   2.181   3.235  13.549
90298SOL    HW172791   2.174   3.252  13.455
90298SOL    HW272792   2.138   3.150  13.560
90299SOL     OW72793   1.248   2.670  13.126
90299SOL    HW172794   1.180   2.674  13.194
90299SOL    HW272795   1.208   2.621  13.055
90300SOL     OW72796  12.456   4.993   5.420
90300SOL    HW172797  12.366   4.970   5.397
90300SOL    HW272798  12.491   5.037   5.342
90301SOL     OW72799  14.149   1.718   0.061
90301SOL    HW172800  14.200   1.724  14.863
90301SOL    HW272801  14.134   1.809   0.088
90302SOL     OW72802   3.107  13.443  13.292
90302SOL    HW172803   3.180  13.383  13.281
90302SOL    HW272804   3.143  13.517  13.341
90303SOL     OW72805  12.873   8.891   3.997
90303SOL    HW172806  12.949   8.851   4.039
90303SOL    HW272807  12.798   8.843   4.031
90304SOL     OW72808  14.783  10.253   5.699
90304SOL    HW172809  14.843  10.325   5.680
90304SOL    HW272810  14.836  10.189   5.747
90305SOL     OW72811  13.791   4.045   7.169
90305SOL    HW172812  13.729   4.082   7.232
90305SOL    HW272813  13.850   4.116   7.147
90306SOL     OW72814  11.687  10.117  13.690
90306SOL    HW172815  11.611  10.110  13.632
90306SOL    HW272816  11.672  10.051  13.757
90307SOL     OW72817   0.324   5.461  14.664
90307SOL    HW172818   0.240   5.497  14.691
90307SOL    HW272819   0.387   5.531  14.682
90308SOL     OW72820   8.235   3.162  13.542
90308SOL    HW172821   8.255   3.068  13.550
90308SOL    HW272822   8.239   3.180  13.449
90309SOL     OW72823   6.381  10.796   4.967
90309SOL    HW172824   6.355  10.770   4.878
90309SOL    HW272825   6.300  10.828   5.007
90310SOL     OW72826   8.241   7.091   9.749
90310SOL    HW172827   8.325   7.111   9.790
90310SOL    HW272828   8.177   7.140   9.800
90311SOL     OW72829  10.578  10.444  14.562
90311SOL    HW172830  10.573  10.539  14.574
90311SOL    HW272831  10.500  10.423  14.510
90312SOL     OW72832   7.215   8.215   7.927
90312SOL    HW172833   7.291   8.178   7.882
90312SOL    HW272834   7.140   8.177   7.882
90313SOL     OW72835  11.905   9.969  13.554
90313SOL    HW172836  11.864  10.021  13.624
90313SOL    HW272837  11.940   9.892  13.599
90314SOL     OW72838   8.778   8.059   1.293
90314SOL    HW172839   8.757   8.107   1.213
90314SOL    HW272840   8.827   8.122   1.346
90315SOL     OW72841   7.648  12.952   8.437
90315SOL    HW172842   7.560  12.937   8.404
90315SOL    HW272843   7.685  13.018   8.378
90316SOL     OW72844   3.034  12.561  14.060
90316SOL    HW172845   2.968  12.499  14.089
90316SOL    HW272846   2.998  12.647  14.081
90317SOL     OW72847   2.678  11.565   3.018
90317SOL    HW172848   2.707  11.474   3.019
90317SOL    HW272849   2.755  11.615   2.992
90318SOL     OW72850  10.592   3.663   3.762
90318SOL    HW172851  10.602   3.666   3.857
90318SOL    HW272852  10.521   3.602   3.746
90319SOL     OW72853   0.804   4.202   2.828
90319SOL    HW172854   0.723   4.232   2.788
90319SOL    HW272855   0.862   4.278   2.827
90320SOL     OW72856   8.760   1.867   0.414
90320SOL    HW172857   8.752   1.804   0.485
90320SOL    HW272858   8.833   1.923   0.440
90321SOL     OW72859  12.957  14.256   9.788
90321SOL    HW172860  12.881  14.286   9.739
90321SOL    HW272861  12.942  14.162   9.800
90322SOL     OW72862  11.063   1.165  13.411
90322SOL    HW172863  11.127   1.094  13.405
90322SOL    HW272864  11.044   1.173  13.504
90323SOL     OW72865  13.110   2.803   3.394
90323SOL    HW172866  13.054   2.726   3.405
90323SOL    HW272867  13.148   2.817   3.481
90324SOL     OW72868  12.651   9.142   7.683
90324SOL    HW172869  12.702   9.123   7.605
90324SOL    HW272870  12.583   9.202   7.653
90325SOL     OW72871   7.153  10.060   6.947
90325SOL    HW172872   7.235  10.014   6.928
90325SOL    HW272873   7.148  10.128   6.880
90326SOL     OW72874   0.351  11.455  14.288
90326SOL    HW172875   0.374  11.504  14.367
90326SOL    HW272876   0.258  11.473  14.275
90327SOL     OW72877  14.249   8.142  12.662
90327SOL    HW172878  14.240   8.047  12.663
90327SOL    HW272879  14.341   8.157  12.638
90328SOL     OW72880   5.872  10.518   6.461
90328SOL    HW172881   5.793  10.543   6.508
90328SOL    HW272882   5.895  10.596   6.410
90329SOL     OW72883   3.352   1.774   0.807
90329SOL    HW172884   3.383   1.685   0.788
90329SOL    HW272885   3.257   1.769   0.793
90330SOL     OW72886   2.014   3.143  10.519
90330SOL    HW172887   2.055   3.082  10.458
90330SOL    HW272888   1.923   3.112  10.526
90331SOL     OW72889   3.537   2.121   2.301
90331SOL    HW172890   3.463   2.128   2.362
90331SOL    HW272891   3.582   2.205   2.308
90332SOL     OW72892   7.029   4.774   1.827
90332SOL    HW172893   6.955   4.834   1.836
90332SOL    HW272894   6.991   4.687   1.839
90333SOL     OW72895   2.001  14.514   3.956
90333SOL    HW172896   2.089  14.485   3.934
90333SOL    HW272897   2.001  14.524   4.051
90334SOL     OW72898   3.265  12.816   5.207
90334SOL    HW172899   3.228  12.894   5.167
90334SOL    HW272900   3.343  12.796   5.155
90335SOL     OW72901  12.508   7.322   1.170
90335SOL    HW172902  12.538   7.391   1.111
90335SOL    HW272903  12.540   7.241   1.130
90336SOL     OW72904   1.569   7.295   7.595
90336SOL    HW172905   1.596   7.385   7.611
90336SOL    HW272906   1.581   7.283   7.500
90337SOL     OW72907   5.191  11.751  12.605
90337SOL    HW172908   5.102  11.761  12.640
90337SOL    HW272909   5.200  11.656  12.591
90338SOL     OW72910  14.699   6.966   5.552
90338SOL    HW172911  14.704   7.045   5.499
90338SOL    HW272912  14.606   6.957   5.575
90339SOL     OW72913  11.800   9.754   4.267
90339SOL    HW172914  11.894   9.766   4.258
90339SOL    HW272915  11.782   9.772   4.359
90340SOL     OW72916  12.057  12.531   3.773
90340SOL    HW172917  12.062  12.622   3.745
90340SOL    HW272918  11.965  12.519   3.800
90341SOL     OW72919   2.069   8.298   1.632
90341SOL    HW172920   2.077   8.282   1.538
90341SOL    HW272921   2.071   8.394   1.640
90342SOL     OW72922  14.146   2.972   2.918
90342SOL    HW172923  14.115   3.028   2.989
90342SOL    HW272924  14.233   2.944   2.946
90343SOL     OW72925   8.329   0.744   1.018
90343SOL    HW172926   8.236   0.762   1.011
90343SOL    HW272927   8.335   0.674   1.084
90344SOL     OW72928   8.347  10.591   5.008
90344SOL    HW172929   8.343  10.496   5.013
90344SOL    HW272930   8.257  10.620   5.023
90345SOL     OW72931   2.648   1.088   6.833
90345SOL    HW172932   2.621   1.012   6.885
90345SOL    HW272933   2.567   1.124   6.798
90346SOL     OW72934   3.860   6.012  10.586
90346SOL    HW172935   3.909   6.043  10.662
90346SOL    HW272936   3.902   6.054  10.511
90347SOL     OW72937   3.922   1.855   8.181
90347SOL    HW172938   4.008   1.813   8.187
90347SOL    HW272939   3.935   1.942   8.218
90348SOL     OW72940   0.478  14.234  12.590
90348SOL    HW172941   0.416  14.168  12.560
90348SOL    HW272942   0.563  14.201  12.562
90349SOL     OW72943  11.864   7.997  10.416
90349SOL    HW172944  11.863   7.916  10.467
90349SOL    HW272945  11.799   7.983  10.348
90350SOL     OW72946   0.494   8.060   0.901
90350SOL    HW172947   0.401   8.075   0.918
90350SOL    HW272948   0.518   8.126   0.835
90351SOL     OW72949   4.637   8.081   8.114
90351SOL    HW172950   4.693   8.042   8.046
90351SOL    HW272951   4.553   8.037   8.103
90352SOL     OW72952  10.276  13.003   2.327
90352SOL    HW172953  10.194  13.041   2.297
90352SOL    HW272954  10.294  13.047   2.410
90353SOL     OW72955  12.011   3.610   8.245
90353SOL    HW172956  11.952   3.548   8.287
90353SOL    HW272957  12.096   3.565   8.242
90354SOL     OW72958   1.196   9.194  10.615
90354SOL    HW172959   1.141   9.123  10.647
90354SOL    HW272960   1.158   9.273  10.653
90355SOL     OW72961   4.742   2.304  10.527
90355SOL    HW172962   4.820   2.332  10.575
90355SOL    HW272963   4.689   2.383  10.519
90356SOL     OW72964  14.512   8.129   7.537
90356SOL    HW172965  14.577   8.059   7.549
90356SOL    HW272966  14.542   8.177   7.460
90357SOL     OW72967  10.364   3.279   2.954
90357SOL    HW172968  10.297   3.252   2.891
90357SOL    HW272969  10.439   3.223   2.935
90358SOL     OW72970   1.544   2.111   5.413
90358SOL    HW172971   1.633   2.144   5.425
90358SOL    HW272972   1.488   2.189   5.420
90359SOL     OW72973   4.944   4.813   3.954
90359SOL    HW172974   5.007   4.767   4.009
90359SOL    HW272975   4.870   4.752   3.947
90360SOL     OW72976  12.821   5.342  14.787
90360SOL    HW172977  12.890   5.275  14.785
90360SOL    HW272978  12.868   5.424  14.778
90361SOL     OW72979   7.151   2.824  12.021
90361SOL    HW172980   7.180   2.906  11.980
90361SOL    HW272981   7.062   2.841  12.050
90362SOL     OW72982   3.458   6.979  14.580
90362SOL    HW172983   3.506   6.897  14.593
90362SOL    HW272984   3.468   6.998  14.486
90363SOL     OW72985  11.996   5.943  12.602
90363SOL    HW172986  11.965   5.853  12.598
90363SOL    HW272987  12.079   5.938  12.649
90364SOL     OW72988   9.770   2.972   1.823
90364SOL    HW172989   9.675   2.963   1.820
90364SOL    HW272990   9.801   2.887   1.854
90365SOL     OW72991   6.608   7.112  13.180
90365SOL    HW172992   6.630   7.018  13.183
90365SOL    HW272993   6.624   7.137  13.090
90366SOL     OW72994   4.848   7.114   1.484
90366SOL    HW172995   4.784   7.167   1.435
90366SOL    HW272996   4.872   7.170   1.558
90367SOL     OW72997  11.950   8.359  10.448
90367SOL    HW172998  11.975   8.441  10.406
90367SOL    HW272999  11.996   8.291  10.399
90368SOL     OW73000   5.108   4.315  11.595
90368SOL    HW173001   5.017   4.289  11.584
90368SOL    HW273002   5.158   4.235  11.584
90369SOL     OW73003   1.780   4.661   1.813
90369SOL    HW173004   1.800   4.677   1.905
90369SOL    HW273005   1.812   4.572   1.797
90370SOL     OW73006  10.484  10.415   0.382
90370SOL    HW173007  10.440  10.388   0.301
90370SOL    HW273008  10.432  10.377   0.452
90371SOL     OW73009   2.999  10.261  12.048
90371SOL    HW173010   2.953  10.210  12.116
90371SOL    HW273011   2.933  10.322  12.016
90372SOL     OW73012  13.995   6.931  13.295
90372SOL    HW173013  14.011   7.003  13.356
90372SOL    HW273014  14.039   6.958  13.214
90373SOL     OW73015  11.740  14.415   3.816
90373SOL    HW173016  11.664  14.389   3.868
90373SOL    HW273017  11.760  14.504   3.845
90374SOL     OW73018   3.768   8.227  10.530
90374SOL    HW173019   3.774   8.272  10.446
90374SOL    HW273020   3.744   8.295  10.593
90375SOL     OW73021  11.732   8.362  12.252
90375SOL    HW173022  11.675   8.410  12.311
90375SOL    HW273023  11.675   8.335  12.180
90376SOL     OW73024  11.612   3.546  14.368
90376SOL    HW173025  11.561   3.552  14.449
90376SOL    HW273026  11.689   3.602  14.383
90377SOL     OW73027   8.432  12.304   1.609
90377SOL    HW173028   8.340  12.310   1.635
90377SOL    HW273029   8.481  12.345   1.680
90378SOL     OW73030   4.239   6.511   7.399
90378SOL    HW173031   4.290   6.493   7.319
90378SOL    HW273032   4.280   6.589   7.436
90379SOL     OW73033   0.075   9.962   0.170
90379SOL    HW173034   0.070   9.937   0.078
90379SOL    HW273035   0.005  10.026   0.181
90380SOL     OW73036   7.814   5.551   8.104
90380SOL    HW173037   7.848   5.600   8.178
90380SOL    HW273038   7.719   5.562   8.110
90381SOL     OW73039   5.279  11.815  10.753
90381SOL    HW173040   5.358  11.774  10.789
90381SOL    HW273041   5.310  11.896  10.712
90382SOL     OW73042   1.295   5.602  14.044
90382SOL    HW173043   1.251   5.568  14.121
90382SOL    HW273044   1.385   5.572  14.052
90383SOL     OW73045   4.765   8.731  14.474
90383SOL    HW173046   4.671   8.746  14.468
90383SOL    HW273047   4.773   8.655  14.532
90384SOL     OW73048   5.608   4.352  10.777
90384SOL    HW173049   5.535   4.373  10.719
90384SOL    HW273050   5.651   4.436  10.794
90385SOL     OW73051   9.414   6.428   9.647
90385SOL    HW173052   9.352   6.451   9.716
90385SOL    HW273053   9.360   6.392   9.576
90386SOL     OW73054   2.707   7.192  10.655
90386SOL    HW173055   2.753   7.235  10.583
90386SOL    HW273056   2.616   7.187  10.626
90387SOL     OW73057   8.154  14.292  11.936
90387SOL    HW173058   8.228  14.348  11.913
90387SOL    HW273059   8.080  14.329  11.888
90388SOL     OW73060  10.543   8.219   4.438
90388SOL    HW173061  10.625   8.187   4.474
90388SOL    HW273062  10.527   8.164   4.361
90389SOL     OW73063  10.223  12.573  11.661
90389SOL    HW173064  10.188  12.484  11.672
90389SOL    HW273065  10.318  12.560  11.655
90390SOL     OW73066   4.231   3.251   4.375
90390SOL    HW173067   4.296   3.191   4.338
90390SOL    HW273068   4.220   3.223   4.465
90391SOL     OW73069  10.847  12.550  14.487
90391SOL    HW173070  10.842  12.477  14.549
90391SOL    HW273071  10.939  12.554  14.462
90392SOL     OW73072   8.849   0.263   3.692
90392SOL    HW173073   8.754   0.274   3.696
90392SOL    HW273074   8.863   0.169   3.700
90393SOL     OW73075   7.779   2.884  12.404
90393SOL    HW173076   7.707   2.897  12.343
90393SOL    HW273077   7.776   2.791  12.426
90394SOL     OW73078  12.119   5.222   2.455
90394SOL    HW173079  12.082   5.262   2.534
90394SOL    HW273080  12.072   5.264   2.382
90395SOL     OW73081   5.485   4.707   1.904
90395SOL    HW173082   5.440   4.716   1.820
90395SOL    HW273083   5.551   4.776   1.903
90396SOL     OW73084   9.828  11.051  11.908
90396SOL    HW173085   9.883  11.129  11.915
90396SOL    HW273086   9.842  11.020  11.818
90397SOL     OW73087   8.015  10.992  14.167
90397SOL    HW173088   7.952  11.055  14.133
90397SOL    HW273089   8.100  11.034  14.155
90398SOL     OW73090   4.973   6.473   1.359
90398SOL    HW173091   4.896   6.516   1.322
90398SOL    HW273092   5.037   6.472   1.288
90399SOL     OW73093   4.741  11.365   7.854
90399SOL    HW173094   4.685  11.364   7.776
90399SOL    HW273095   4.806  11.432   7.836
90400SOL     OW73096   3.689   9.534   8.304
90400SOL    HW173097   3.775   9.506   8.273
90400SOL    HW273098   3.673   9.482   8.383
90401SOL     OW73099   3.627  11.453  10.761
90401SOL    HW173100   3.602  11.368  10.797
90401SOL    HW273101   3.547  11.488  10.722
90402SOL     OW73102   0.874   3.127  14.030
90402SOL    HW173103   0.814   3.116  13.956
90402SOL    HW273104   0.818   3.123  14.107
90403SOL     OW73105   7.653   2.870   8.352
90403SOL    HW173106   7.715   2.932   8.313
90403SOL    HW273107   7.568   2.912   8.343
90404SOL     OW73108  14.430  10.569   0.627
90404SOL    HW173109  14.475  10.494   0.587
90404SOL    HW273110  14.408  10.539   0.715
90405SOL     OW73111   3.921  10.859   9.110
90405SOL    HW173112   3.852  10.828   9.051
90405SOL    HW273113   3.906  10.953   9.117
90406SOL     OW73114   1.621   3.218   7.333
90406SOL    HW173115   1.557   3.261   7.277
90406SOL    HW273116   1.571   3.152   7.380
90407SOL     OW73117  12.440   7.099   8.974
90407SOL    HW173118  12.398   7.136   9.052
90407SOL    HW273119  12.425   7.005   8.980
90408SOL     OW73120   6.167  12.170   7.218
90408SOL    HW173121   6.196  12.079   7.212
90408SOL    HW273122   6.077  12.164   7.249
90409SOL     OW73123   7.378   0.246   9.345
90409SOL    HW173124   7.371   0.275   9.436
90409SOL    HW273125   7.472   0.232   9.332
90410SOL     OW73126   4.586   6.189   8.736
90410SOL    HW173127   4.572   6.254   8.805
90410SOL    HW273128   4.674   6.155   8.752
90411SOL     OW73129   7.141   2.243  13.962
90411SOL    HW173130   7.188   2.185  14.021
90411SOL    HW273131   7.049   2.233  13.985
90412SOL     OW73132   0.598   8.206  13.112
90412SOL    HW173133   0.556   8.183  13.195
90412SOL    HW273134   0.692   8.204  13.131
90413SOL     OW73135   6.112  10.597   1.422
90413SOL    HW173136   6.089  10.630   1.509
90413SOL    HW273137   6.112  10.502   1.432
90414SOL     OW73138   3.816  11.687   1.434
90414SOL    HW173139   3.745  11.748   1.455
90414SOL    HW273140   3.869  11.732   1.369
90415SOL     OW73141  12.520   6.582   8.507
90415SOL    HW173142  12.426   6.567   8.501
90415SOL    HW273143  12.541   6.566   8.599
90416SOL     OW73144   4.521  10.151  14.591
90416SOL    HW173145   4.445  10.153  14.533
90416SOL    HW273146   4.487  10.118  14.674
90417SOL     OW73147   0.520  11.702   4.938
90417SOL    HW173148   0.581  11.774   4.956
90417SOL    HW273149   0.544  11.671   4.851
90418SOL     OW73150  13.893   0.992  10.830
90418SOL    HW173151  13.906   1.061  10.894
90418SOL    HW273152  13.981   0.961  10.809
90419SOL     OW73153   5.138   2.559   2.083
90419SOL    HW173154   5.175   2.643   2.112
90419SOL    HW273155   5.212   2.509   2.051
90420SOL     OW73156   0.485   8.558   2.041
90420SOL    HW173157   0.528   8.643   2.035
90420SOL    HW273158   0.449   8.543   1.954
90421SOL     OW73159   3.186  13.238  12.240
90421SOL    HW173160   3.106  13.225  12.188
90421SOL    HW273161   3.177  13.326  12.277
90422SOL     OW73162   5.055   3.050   6.391
90422SOL    HW173163   5.062   3.081   6.481
90422SOL    HW273164   5.017   2.962   6.398
90423SOL     OW73165   4.175  14.110   2.522
90423SOL    HW173166   4.139  14.151   2.442
90423SOL    HW273167   4.203  14.023   2.494
90424SOL     OW73168  11.456   5.877   8.235
90424SOL    HW173169  11.388   5.851   8.297
90424SOL    HW273170  11.537   5.843   8.273
90425SOL     OW73171   8.444   1.231   2.730
90425SOL    HW173172   8.504   1.198   2.663
90425SOL    HW273173   8.364   1.251   2.681
90426SOL     OW73174   2.393  11.029   3.242
90426SOL    HW173175   2.344  10.950   3.266
90426SOL    HW273176   2.326  11.095   3.224
90427SOL     OW73177   6.192   1.458  10.578
90427SOL    HW173178   6.120   1.482  10.637
90427SOL    HW273179   6.157   1.470  10.490
90428SOL     OW73180   1.451  10.772   0.307
90428SOL    HW173181   1.443  10.680   0.281
90428SOL    HW273182   1.516  10.772   0.377
90429SOL     OW73183   8.267   6.248   3.488
90429SOL    HW173184   8.310   6.173   3.528
90429SOL    HW273185   8.256   6.222   3.396
90430SOL     OW73186  11.537  10.988   5.191
90430SOL    HW173187  11.470  10.920   5.188
90430SOL    HW273188  11.581  10.974   5.275
90431SOL     OW73189   2.286  14.202   1.635
90431SOL    HW173190   2.378  14.178   1.634
90431SOL    HW273191   2.239  14.119   1.629
90432SOL     OW73192   8.086  13.131   2.632
90432SOL    HW173193   8.176  13.102   2.643
90432SOL    HW273194   8.089  13.225   2.647
90433SOL     OW73195   5.470   1.196   4.609
90433SOL    HW173196   5.524   1.235   4.678
90433SOL    HW273197   5.401   1.150   4.657
90434SOL     OW73198   2.145   4.044  11.548
90434SOL    HW173199   2.184   4.120  11.591
90434SOL    HW273200   2.218   4.002  11.502
90435SOL     OW73201   7.912   2.655   1.966
90435SOL    HW173202   7.859   2.576   1.981
90435SOL    HW273203   7.881   2.717   2.032
90436SOL     OW73204   0.402   0.260   3.339
90436SOL    HW173205   0.374   0.305   3.259
90436SOL    HW273206   0.391   0.167   3.320
90437SOL     OW73207  10.086   3.550   5.992
90437SOL    HW173208  10.011   3.577   5.940
90437SOL    HW273209  10.051   3.484   6.052
90438SOL     OW73210   5.999  14.163   7.280
90438SOL    HW173211   6.028  14.123   7.362
90438SOL    HW273212   5.938  14.100   7.243
90439SOL     OW73213   3.685   7.910  13.902
90439SOL    HW173214   3.659   7.894  13.992
90439SOL    HW273215   3.646   7.838  13.852
90440SOL     OW73216  13.105  11.798  11.580
90440SOL    HW173217  13.176  11.736  11.566
90440SOL    HW273218  13.062  11.768  11.660
90441SOL     OW73219   9.846   9.517   8.294
90441SOL    HW173220   9.922   9.468   8.327
90441SOL    HW273221   9.882   9.576   8.228
90442SOL     OW73222  13.913   5.557  11.834
90442SOL    HW173223  13.991   5.578  11.782
90442SOL    HW273224  13.913   5.461  11.840
90443SOL     OW73225   3.455  10.522  10.461
90443SOL    HW173226   3.437  10.613  10.486
90443SOL    HW273227   3.549  10.520  10.443
90444SOL     OW73228  13.441   0.688   4.812
90444SOL    HW173229  13.347   0.675   4.818
90444SOL    HW273230  13.476   0.601   4.791
90445SOL     OW73231   1.720   0.617  14.068
90445SOL    HW173232   1.664   0.656  14.001
90445SOL    HW273233   1.789   0.682  14.082
90446SOL     OW73234   9.686   9.735   2.210
90446SOL    HW173235   9.624   9.746   2.282
90446SOL    HW273236   9.772   9.743   2.252
90447SOL     OW73237   4.748   9.822  13.064
90447SOL    HW173238   4.799   9.763  13.008
90447SOL    HW273239   4.658   9.793  13.053
90448SOL     OW73240  13.792   7.855   8.417
90448SOL    HW173241  13.835   7.899   8.345
90448SOL    HW273242  13.705   7.896   8.423
90449SOL     OW73243   1.157  11.339   3.269
90449SOL    HW173244   1.212  11.387   3.207
90449SOL    HW273245   1.214  11.270   3.304
90450SOL     OW73246   9.286  12.519   3.228
90450SOL    HW173247   9.379  12.511   3.210
90450SOL    HW273248   9.244  12.511   3.143
90451SOL     OW73249  13.464   9.657   5.488
90451SOL    HW173250  13.424   9.724   5.544
90451SOL    HW273251  13.518   9.706   5.427
90452SOL     OW73252   8.969   8.692  10.467
90452SOL    HW173253   8.886   8.649  10.487
90452SOL    HW273254   9.031   8.652  10.528
90453SOL     OW73255  14.452  13.095   9.701
90453SOL    HW173256  14.374  13.149   9.715
90453SOL    HW273257  14.492  13.089   9.788
90454SOL     OW73258   1.929   7.147   1.034
90454SOL    HW173259   1.945   7.111   1.121
90454SOL    HW273260   1.909   7.240   1.049
90455SOL     OW73261   5.185   4.084   7.516
90455SOL    HW173262   5.131   4.162   7.505
90455SOL    HW273263   5.122   4.012   7.523
90456SOL     OW73264   5.250  13.092  13.423
90456SOL    HW173265   5.242  13.117  13.331
90456SOL    HW273266   5.288  13.169  13.466
90457SOL     OW73267   0.143   2.073  12.338
90457SOL    HW173268   0.165   2.148  12.394
90457SOL    HW273269   0.061   2.041  12.374
90458SOL     OW73270  12.395   5.769  12.340
90458SOL    HW173271  12.405   5.798  12.250
90458SOL    HW273272  12.357   5.844  12.386
90459SOL     OW73273   9.269   9.337   7.604
90459SOL    HW173274   9.289   9.250   7.636
90459SOL    HW273275   9.350   9.386   7.613
90460SOL     OW73276  13.527  10.740   3.643
90460SOL    HW173277  13.452  10.782   3.599
90460SOL    HW273278  13.604  10.780   3.602
90461SOL     OW73279   1.146  10.058  13.114
90461SOL    HW173280   1.176   9.967  13.110
90461SOL    HW273281   1.175  10.088  13.201
90462SOL     OW73282   9.233  11.866   6.294
90462SOL    HW173283   9.283  11.805   6.350
90462SOL    HW273284   9.171  11.907   6.353
90463SOL     OW73285   4.481   9.506   9.873
90463SOL    HW173286   4.438   9.487   9.790
90463SOL    HW273287   4.548   9.571   9.852
90464SOL     OW73288   7.620   6.374   2.257
90464SOL    HW173289   7.531   6.343   2.242
90464SOL    HW273290   7.655   6.391   2.169
90465SOL     OW73291   6.303   1.458  14.622
90465SOL    HW173292   6.357   1.424  14.550
90465SOL    HW273293   6.219   1.480  14.581
90466SOL     OW73294   1.563   0.355   9.025
90466SOL    HW173295   1.555   0.387   9.114
90466SOL    HW273296   1.632   0.289   9.028
90467SOL     OW73297   8.592   2.914   4.996
90467SOL    HW173298   8.634   2.864   4.926
90467SOL    HW273299   8.596   3.005   4.967
90468SOL     OW73300   9.479   4.731   0.543
90468SOL    HW173301   9.422   4.710   0.470
90468SOL    HW273302   9.451   4.818   0.572
90469SOL     OW73303   3.236   2.133   7.599
90469SOL    HW173304   3.204   2.187   7.672
90469SOL    HW273305   3.331   2.129   7.613
90470SOL     OW73306  14.313   3.469   8.878
90470SOL    HW173307  14.280   3.558   8.886
90470SOL    HW273308  14.393   3.477   8.826
90471SOL     OW73309  13.290  14.507   3.420
90471SOL    HW173310  13.340  14.441   3.467
90471SOL    HW273311  13.304  14.588   3.469
90472SOL     OW73312   0.145   1.616  10.220
90472SOL    HW173313   0.141   1.617  10.316
90472SOL    HW273314   0.195   1.694  10.197
90473SOL     OW73315  11.331  12.456  10.079
90473SOL    HW173316  11.377  12.481  10.160
90473SOL    HW273317  11.250  12.417  10.110
90474SOL     OW73318   8.361   9.942  12.419
90474SOL    HW173319   8.370   9.917  12.327
90474SOL    HW273320   8.450   9.965  12.446
90475SOL     OW73321   5.365   2.142   2.192
90475SOL    HW173322   5.446   2.120   2.237
90475SOL    HW273323   5.303   2.074   2.219
90476SOL     OW73324  13.823   5.499  14.578
90476SOL    HW173325  13.768   5.481  14.654
90476SOL    HW273326  13.762   5.534  14.513
90477SOL     OW73327   0.526   5.879   2.343
90477SOL    HW173328   0.483   5.962   2.363
90477SOL    HW273329   0.597   5.902   2.283
90478SOL     OW73330   9.002   8.986   7.887
90478SOL    HW173331   8.977   8.918   7.825
90478SOL    HW273332   9.053   8.940   7.954
90479SOL     OW73333  13.300   9.923   2.762
90479SOL    HW173334  13.209   9.920   2.733
90479SOL    HW273335  13.304   9.995   2.825
90480SOL     OW73336  12.875   4.962  10.901
90480SOL    HW173337  12.915   5.000  10.978
90480SOL    HW273338  12.933   4.890  10.876
90481SOL     OW73339  11.745   0.161   5.495
90481SOL    HW173340  11.717   0.114   5.417
90481SOL    HW273341  11.751   0.252   5.466
90482SOL     OW73342  13.299   3.551   9.635
90482SOL    HW173343  13.273   3.597   9.555
90482SOL    HW273344  13.291   3.616   9.704
90483SOL     OW73345   1.303  10.054   1.314
90483SOL    HW173346   1.320   9.971   1.268
90483SOL    HW273347   1.300  10.030   1.406
90484SOL     OW73348   8.583   2.025   9.753
90484SOL    HW173349   8.675   2.016   9.778
90484SOL    HW273350   8.569   2.119   9.746
90485SOL     OW73351   7.532   8.920   1.537
90485SOL    HW173352   7.622   8.906   1.565
90485SOL    HW273353   7.537   8.921   1.441
90486SOL     OW73354   7.785   3.018   0.651
90486SOL    HW173355   7.803   3.087   0.715
90486SOL    HW273356   7.697   3.039   0.618
90487SOL     OW73357   5.530  13.090   9.206
90487SOL    HW173358   5.502  13.104   9.116
90487SOL    HW273359   5.460  13.038   9.245
90488SOL     OW73360   7.563  12.333   9.498
90488SOL    HW173361   7.493  12.268   9.491
90488SOL    HW273362   7.520  12.410   9.534
90489SOL     OW73363   8.723  10.920   8.086
90489SOL    HW173364   8.783  10.853   8.055
90489SOL    HW273365   8.779  10.981   8.135
90490SOL     OW73366   7.886   8.544   4.050
90490SOL    HW173367   7.934   8.462   4.057
90490SOL    HW273368   7.952   8.612   4.065
90491SOL     OW73369  13.973  10.700   6.429
90491SOL    HW173370  14.063  10.716   6.400
90491SOL    HW273371  13.933  10.787   6.431
90492SOL     OW73372  11.570   2.221   8.591
90492SOL    HW173373  11.615   2.136   8.592
90492SOL    HW273374  11.477   2.199   8.580
90493SOL     OW73375  11.704   7.378  12.227
90493SOL    HW173376  11.705   7.327  12.308
90493SOL    HW273377  11.613   7.375  12.198
90494SOL     OW73378  14.743   9.443   8.619
90494SOL    HW173379  14.786   9.365   8.585
90494SOL    HW273380  14.754   9.509   8.550
90495SOL     OW73381   9.736   4.380   2.753
90495SOL    HW173382   9.758   4.291   2.723
90495SOL    HW273383   9.682   4.367   2.830
90496SOL     OW73384   3.037   7.009  11.725
90496SOL    HW173385   3.064   7.084  11.777
90496SOL    HW273386   3.109   6.947  11.733
90497SOL     OW73387   4.634   6.756   9.812
90497SOL    HW173388   4.626   6.817   9.886
90497SOL    HW273389   4.648   6.671   9.853
90498SOL     OW73390   4.892   0.519  11.280
90498SOL    HW173391   4.922   0.452  11.218
90498SOL    HW273392   4.816   0.480  11.323
90499SOL     OW73393   7.268  14.632  13.249
90499SOL    HW173394   7.271  14.668  13.160
90499SOL    HW273395   7.274  14.537  13.236
90500SOL     OW73396   9.476   5.397   3.104
90500SOL    HW173397   9.450   5.374   3.194
90500SOL    HW273398   9.481   5.492   3.104
90501SOL     OW73399   3.163   7.573   2.849
90501SOL    HW173400   3.201   7.492   2.814
90501SOL    HW273401   3.114   7.609   2.775
90502SOL     OW73402   3.152   6.312   6.908
90502SOL    HW173403   3.202   6.230   6.902
90502SOL    HW273404   3.217   6.380   6.895
90503SOL     OW73405  12.199  11.241   2.641
90503SOL    HW173406  12.162  11.172   2.696
90503SOL    HW273407  12.260  11.288   2.699
90504SOL     OW73408   3.074   6.170   4.563
90504SOL    HW173409   3.108   6.111   4.496
90504SOL    HW273410   3.098   6.129   4.646
90505SOL     OW73411   7.716   9.709  12.594
90505SOL    HW173412   7.627   9.735  12.615
90505SOL    HW273413   7.706   9.629  12.543
90506SOL     OW73414  11.556   1.021  14.872
90506SOL    HW173415  11.540   1.068   0.072
90506SOL    HW273416  11.501   1.066  14.808
90507SOL     OW73417   8.674   2.008  14.442
90507SOL    HW173418   8.711   1.955  14.512
90507SOL    HW273419   8.654   2.092  14.483
90508SOL     OW73420  12.401   1.050   3.394
90508SOL    HW173421  12.414   1.008   3.309
90508SOL    HW273422  12.308   1.038   3.413
90509SOL     OW73423   4.735   0.432   8.199
90509SOL    HW173424   4.666   0.445   8.264
90509SOL    HW273425   4.794   0.369   8.239
90510SOL     OW73426   6.873   4.331   0.232
90510SOL    HW173427   6.886   4.263   0.166
90510SOL    HW273428   6.781   4.354   0.225
90511SOL     OW73429   4.259   7.906   1.986
90511SOL    HW173430   4.348   7.870   1.982
90511SOL    HW273431   4.202   7.830   1.973
90512SOL     OW73432   2.529   5.601   5.116
90512SOL    HW173433   2.564   5.686   5.090
90512SOL    HW273434   2.449   5.591   5.064
90513SOL     OW73435   6.865   4.086   5.182
90513SOL    HW173436   6.935   4.066   5.120
90513SOL    HW273437   6.787   4.046   5.143
90514SOL     OW73438   4.656  10.972   2.411
90514SOL    HW173439   4.741  10.962   2.454
90514SOL    HW273440   4.611  11.039   2.463
90515SOL     OW73441  10.830   2.399  12.415
90515SOL    HW173442  10.923   2.416  12.401
90515SOL    HW273443  10.799   2.368  12.330
90516SOL     OW73444   6.037   7.571  10.394
90516SOL    HW173445   6.069   7.618  10.318
90516SOL    HW273446   6.074   7.483  10.386
90517SOL     OW73447   1.578  11.928   0.063
90517SOL    HW173448   1.598  11.835   0.057
90517SOL    HW273449   1.491  11.937   0.023
90518SOL     OW73450   6.688  10.813  11.045
90518SOL    HW173451   6.779  10.836  11.062
90518SOL    HW273452   6.691  10.724  11.011
90519SOL     OW73453   9.345   7.669  14.063
90519SOL    HW173454   9.288   7.709  13.997
90519SOL    HW273455   9.425   7.721  14.059
90520SOL     OW73456   4.473  13.191  14.804
90520SOL    HW173457   4.501  13.219  14.717
90520SOL    HW273458   4.504  13.101  14.811
90521SOL     OW73459   6.551  13.475   9.168
90521SOL    HW173460   6.490  13.526   9.221
90521SOL    HW273461   6.635  13.520   9.178
90522SOL     OW73462  11.714   2.872   1.682
90522SOL    HW173463  11.620   2.879   1.700
90522SOL    HW273464  11.732   2.778   1.687
90523SOL     OW73465  13.634   3.035   3.715
90523SOL    HW173466  13.721   3.066   3.736
90523SOL    HW273467  13.578   3.112   3.721
90524SOL     OW73468  13.543   1.393  14.174
90524SOL    HW173469  13.595   1.381  14.254
90524SOL    HW273470  13.556   1.485  14.150
90525SOL     OW73471   5.024   9.056   7.428
90525SOL    HW173472   5.118   9.038   7.428
90525SOL    HW273473   4.995   9.032   7.340
90526SOL     OW73474  11.850  13.565   8.054
90526SOL    HW173475  11.824  13.538   8.141
90526SOL    HW273476  11.943  13.543   8.049
90527SOL     OW73477   9.763   8.084  10.689
90527SOL    HW173478   9.683   8.067  10.739
90527SOL    HW273479   9.780   8.002  10.644
90528SOL     OW73480  14.753   7.065   2.874
90528SOL    HW173481  14.686   6.998   2.884
90528SOL    HW273482  14.802   7.039   2.795
90529SOL     OW73483   9.229   0.247  11.033
90529SOL    HW173484   9.238   0.188  11.108
90529SOL    HW273485   9.300   0.220  10.974
90530SOL     OW73486   1.358   3.028   1.033
90530SOL    HW173487   1.405   3.072   1.103
90530SOL    HW273488   1.420   3.027   0.959
90531SOL     OW73489   9.279   5.064  14.065
90531SOL    HW173490   9.352   5.125  14.068
90531SOL    HW273491   9.320   4.978  14.058
90532SOL     OW73492   8.620   0.899  13.367
90532SOL    HW173493   8.669   0.908  13.285
90532SOL    HW273494   8.646   0.814  13.402
90533SOL     OW73495  11.237   7.871   2.326
90533SOL    HW173496  11.204   7.942   2.382
90533SOL    HW273497  11.329   7.862   2.351
90534SOL     OW73498  12.034   2.446   1.775
90534SOL    HW173499  12.034   2.537   1.806
90534SOL    HW273500  12.126   2.425   1.765
90535SOL     OW73501  11.072   8.106   2.396
90535SOL    HW173502  10.995   8.078   2.446
90535SOL    HW273503  11.046   8.096   2.304
90536SOL     OW73504   8.100   0.152   6.907
90536SOL    HW173505   8.094   0.219   6.976
90536SOL    HW273506   8.011   0.145   6.873
90537SOL     OW73507   2.746   6.651   6.500
90537SOL    HW173508   2.655   6.629   6.480
90537SOL    HW273509   2.745   6.745   6.518
90538SOL     OW73510   6.578   4.406   1.350
90538SOL    HW173511   6.527   4.423   1.429
90538SOL    HW273512   6.667   4.432   1.373
90539SOL     OW73513   4.215   9.124  12.381
90539SOL    HW173514   4.266   9.048  12.410
90539SOL    HW273515   4.257   9.199  12.422
90540SOL     OW73516  11.100   0.108  10.102
90540SOL    HW173517  11.122   0.193  10.139
90540SOL    HW273518  11.184   0.063  10.092
90541SOL     OW73519   4.311  12.677   4.379
90541SOL    HW173520   4.330  12.671   4.473
90541SOL    HW273521   4.363  12.607   4.340
90542SOL     OW73522   9.681   1.837   3.793
90542SOL    HW173523   9.624   1.889   3.735
90542SOL    HW273524   9.643   1.750   3.792
90543SOL     OW73525   6.953   2.740  11.486
90543SOL    HW173526   6.920   2.664  11.534
90543SOL    HW273527   6.896   2.746  11.409
90544SOL     OW73528   7.251   0.025  13.968
90544SOL    HW173529   7.288  14.873  14.050
90544SOL    HW273530   7.157   0.008  13.976
90545SOL     OW73531   4.083   1.577   0.826
90545SOL    HW173532   4.003   1.621   0.855
90545SOL    HW273533   4.128   1.641   0.772
90546SOL     OW73534  12.928   2.145   5.404
90546SOL    HW173535  12.959   2.064   5.445
90546SOL    HW273536  12.993   2.211   5.428
90547SOL     OW73537  13.113  10.258   4.184
90547SOL    HW173538  13.096  10.278   4.092
90547SOL    HW273539  13.179  10.188   4.182
90548SOL     OW73540   8.503  12.711  10.967
90548SOL    HW173541   8.443  12.639  10.988
90548SOL    HW273542   8.590  12.674  10.978
90549SOL     OW73543   1.830   9.336   5.342
90549SOL    HW173544   1.909   9.381   5.372
90549SOL    HW273545   1.758   9.383   5.384
90550SOL     OW73546   4.470   4.607  11.973
90550SOL    HW173547   4.489   4.568  12.059
90550SOL    HW273548   4.518   4.690  11.974
90551SOL     OW73549   7.606   4.716  11.322
90551SOL    HW173550   7.593   4.779  11.252
90551SOL    HW273551   7.551   4.641  11.299
90552SOL     OW73552  13.403   4.140  12.466
90552SOL    HW173553  13.425   4.212  12.524
90552SOL    HW273554  13.465   4.147  12.393
90553SOL     OW73555   8.320   3.500   7.962
90553SOL    HW173556   8.324   3.451   8.044
90553SOL    HW273557   8.381   3.455   7.904
90554SOL     OW73558   5.989  14.366  12.208
90554SOL    HW173559   5.969  14.295  12.147
90554SOL    HW273560   5.909  14.377  12.259
90555SOL     OW73561  13.152   6.949   7.023
90555SOL    HW173562  13.157   6.859   6.991
90555SOL    HW273563  13.202   6.948   7.105
90556SOL     OW73564   6.114   7.437   9.770
90556SOL    HW173565   6.101   7.467   9.860
90556SOL    HW273566   6.208   7.427   9.762
90557SOL     OW73567  12.213   6.096   6.788
90557SOL    HW173568  12.169   6.125   6.708
90557SOL    HW273569  12.165   6.140   6.859
90558SOL     OW73570   7.550   6.910   7.058
90558SOL    HW173571   7.622   6.888   6.999
90558SOL    HW273572   7.526   7.000   7.035
90559SOL     OW73573  11.047  14.829   5.500
90559SOL    HW173574  11.045  14.759   5.565
90559SOL    HW273575  10.983   0.011   5.531
90560SOL     OW73576  14.073   1.653   8.541
90560SOL    HW173577  14.058   1.620   8.453
90560SOL    HW273578  13.989   1.691   8.567
90561SOL     OW73579   2.806  12.872   5.652
90561SOL    HW173580   2.823  12.805   5.586
90561SOL    HW273581   2.779  12.949   5.601
90562SOL     OW73582   7.115  13.947  12.990
90562SOL    HW173583   7.034  13.899  13.008
90562SOL    HW273584   7.087  14.021  12.936
90563SOL     OW73585   4.759   6.814  12.463
90563SOL    HW173586   4.790   6.887  12.411
90563SOL    HW273587   4.745   6.851  12.550
90564SOL     OW73588   2.826   2.630  11.915
90564SOL    HW173589   2.862   2.599  11.998
90564SOL    HW273590   2.864   2.716  11.902
90565SOL     OW73591  14.492  12.716  12.618
90565SOL    HW173592  14.421  12.776  12.639
90565SOL    HW273593  14.490  12.708  12.523
90566SOL     OW73594  13.479   2.481  10.281
90566SOL    HW173595  13.499   2.574  10.292
90566SOL    HW273596  13.506   2.461  10.191
90567SOL     OW73597   8.086   5.235  12.649
90567SOL    HW173598   8.136   5.279  12.579
90567SOL    HW273599   8.075   5.146  12.617
90568SOL     OW73600   1.149  10.501  12.133
90568SOL    HW173601   1.166  10.479  12.042
90568SOL    HW273602   1.181  10.425  12.182
90569SOL     OW73603  10.593   3.796  10.854
90569SOL    HW173604  10.535   3.742  10.908
90569SOL    HW273605  10.607   3.875  10.906
90570SOL     OW73606   9.455   4.570   2.194
90570SOL    HW173607   9.383   4.595   2.253
90570SOL    HW273608   9.532   4.568   2.250
90571SOL     OW73609   5.638   9.871   2.741
90571SOL    HW173610   5.647   9.964   2.763
90571SOL    HW273611   5.720   9.849   2.696
90572SOL     OW73612  11.362  13.859   9.844
90572SOL    HW173613  11.381  13.874   9.937
90572SOL    HW273614  11.439  13.893   9.799
90573SOL     OW73615   1.023   1.427   8.126
90573SOL    HW173616   1.051   1.478   8.050
90573SOL    HW273617   1.010   1.492   8.195
90574SOL     OW73618   5.886   3.118  13.930
90574SOL    HW173619   5.851   3.054  13.993
90574SOL    HW273620   5.922   3.065  13.859
90575SOL     OW73621  11.097   4.826   0.763
90575SOL    HW173622  11.167   4.812   0.699
90575SOL    HW273623  11.093   4.743   0.811
90576SOL     OW73624   9.688  12.465   4.046
90576SOL    HW173625   9.639  12.545   4.062
90576SOL    HW273626   9.779  12.494   4.034
90577SOL     OW73627   6.253   1.619   8.159
90577SOL    HW173628   6.347   1.631   8.171
90577SOL    HW273629   6.214   1.649   8.241
90578SOL     OW73630   8.568   4.241   9.218
90578SOL    HW173631   8.529   4.189   9.148
90578SOL    HW273632   8.601   4.176   9.280
90579SOL     OW73633   2.478  10.385   0.194
90579SOL    HW173634   2.526  10.422   0.120
90579SOL    HW273635   2.518  10.424   0.272
90580SOL     OW73636   3.050   1.071   6.266
90580SOL    HW173637   3.100   1.072   6.348
90580SOL    HW273638   2.996   0.993   6.272
90581SOL     OW73639   1.305   2.380   1.525
90581SOL    HW173640   1.252   2.446   1.571
90581SOL    HW273641   1.250   2.301   1.525
90582SOL     OW73642   2.307   5.186   7.766
90582SOL    HW173643   2.402   5.189   7.758
90582SOL    HW273644   2.275   5.253   7.705
90583SOL     OW73645   9.293   9.461  14.826
90583SOL    HW173646   9.380   9.471  14.790
90583SOL    HW273647   9.272   9.368  14.811
90584SOL     OW73648   2.564  10.106   5.587
90584SOL    HW173649   2.636  10.065   5.539
90584SOL    HW273650   2.485  10.070   5.548
90585SOL     OW73651   1.636   2.909   7.219
90585SOL    HW173652   1.639   2.820   7.184
90585SOL    HW273653   1.728   2.935   7.224
90586SOL     OW73654  13.658   8.854   0.718
90586SOL    HW173655  13.736   8.823   0.763
90586SOL    HW273656  13.691   8.896   0.639
90587SOL     OW73657   6.851   8.517   2.465
90587SOL    HW173658   6.846   8.606   2.430
90587SOL    HW273659   6.887   8.528   2.553
90588SOL     OW73660  11.853   7.327   6.832
90588SOL    HW173661  11.870   7.404   6.779
90588SOL    HW273662  11.823   7.361   6.916
90589SOL     OW73663   5.759  12.722   5.176
90589SOL    HW173664   5.704  12.719   5.097
90589SOL    HW273665   5.848  12.733   5.142
90590SOL     OW73666   8.084   0.720   2.721
90590SOL    HW173667   8.115   0.655   2.658
90590SOL    HW273668   7.989   0.721   2.710
90591SOL     OW73669   1.394  11.327   9.303
90591SOL    HW173670   1.467  11.380   9.269
90591SOL    HW273671   1.382  11.357   9.393
90592SOL     OW73672   3.513   2.941   3.309
90592SOL    HW173673   3.511   2.937   3.213
90592SOL    HW273674   3.430   2.903   3.337
90593SOL     OW73675  13.259   6.592   7.062
90593SOL    HW173676  13.302   6.607   7.146
90593SOL    HW273677  13.279   6.671   7.011
90594SOL     OW73678   6.358  11.022   0.204
90594SOL    HW173679   6.289  10.956   0.195
90594SOL    HW273680   6.321  11.101   0.165
90595SOL     OW73681  12.892   1.214  12.485
90595SOL    HW173682  12.880   1.284  12.548
90595SOL    HW273683  12.926   1.141  12.536
90596SOL     OW73684   9.151   9.737   9.615
90596SOL    HW173685   9.149   9.791   9.536
90596SOL    HW273686   9.097   9.784   9.678
90597SOL     OW73687   3.776   7.555   2.438
90597SOL    HW173688   3.724   7.606   2.375
90597SOL    HW273689   3.844   7.514   2.384
90598SOL     OW73690   9.623   3.714   5.764
90598SOL    HW173691   9.605   3.652   5.835
90598SOL    HW273692   9.716   3.703   5.744
90599SOL     OW73693   1.010  11.843   7.125
90599SOL    HW173694   0.995  11.790   7.204
90599SOL    HW273695   0.962  11.797   7.056
90600SOL     OW73696  12.885  10.734   2.919
90600SOL    HW173697  12.915  10.644   2.902
90600SOL    HW273698  12.907  10.748   3.011
90601SOL     OW73699  12.547   1.545   1.909
90601SOL    HW173700  12.612   1.575   1.845
90601SOL    HW273701  12.464   1.577   1.875
90602SOL     OW73702  14.818   7.989  13.196
90602SOL    HW173703  14.830   7.894  13.198
90602SOL    HW273704  14.772   8.009  13.278
90603SOL     OW73705   6.372  11.697   1.677
90603SOL    HW173706   6.450  11.682   1.623
90603SOL    HW273707   6.405  11.742   1.755
90604SOL     OW73708   6.256   4.550   8.241
90604SOL    HW173709   6.208   4.623   8.200
90604SOL    HW273710   6.281   4.494   8.168
90605SOL     OW73711   9.535   1.813   6.113
90605SOL    HW173712   9.459   1.754   6.107
90605SOL    HW273713   9.597   1.779   6.049
90606SOL     OW73714   4.831  14.121   5.199
90606SOL    HW173715   4.814  14.037   5.242
90606SOL    HW273716   4.899  14.162   5.253
90607SOL     OW73717  13.487   5.666   7.425
90607SOL    HW173718  13.486   5.634   7.334
90607SOL    HW273719  13.409   5.627   7.465
90608SOL     OW73720   6.811   5.007  14.182
90608SOL    HW173721   6.841   4.948  14.113
90608SOL    HW273722   6.725   4.973  14.208
90609SOL     OW73723   3.366   8.174   2.214
90609SOL    HW173724   3.346   8.188   2.306
90609SOL    HW273725   3.323   8.091   2.192
90610SOL     OW73726   8.730  10.635   4.077
90610SOL    HW173727   8.693  10.583   4.005
90610SOL    HW273728   8.820  10.603   4.085
90611SOL     OW73729   1.320   4.578   0.760
90611SOL    HW173730   1.308   4.556   0.852
90611SOL    HW273731   1.348   4.496   0.719
90612SOL     OW73732   4.850   3.789   1.771
90612SOL    HW173733   4.795   3.795   1.849
90612SOL    HW273734   4.826   3.705   1.731
90613SOL     OW73735   8.456  11.234   8.345
90613SOL    HW173736   8.429  11.221   8.254
90613SOL    HW273737   8.375  11.259   8.390
90614SOL     OW73738   2.435  13.068   4.115
90614SOL    HW173739   2.503  13.133   4.128
90614SOL    HW273740   2.407  13.079   4.024
90615SOL     OW73741  14.169   3.241   2.423
90615SOL    HW173742  14.159   3.198   2.508
90615SOL    HW273743  14.259   3.274   2.423
90616SOL     OW73744   4.506  12.255  12.211
90616SOL    HW173745   4.545  12.181  12.163
90616SOL    HW273746   4.568  12.272  12.282
90617SOL     OW73747   7.576   8.260   4.424
90617SOL    HW173748   7.559   8.326   4.492
90617SOL    HW273749   7.635   8.197   4.466
90618SOL     OW73750   0.443  11.729  11.555
90618SOL    HW173751   0.385  11.703  11.483
90618SOL    HW273752   0.447  11.825  11.548
90619SOL     OW73753  11.111   8.806   0.528
90619SOL    HW173754  11.020   8.834   0.538
90619SOL    HW273755  11.132   8.825   0.437
90620SOL     OW73756   2.037   5.811  13.646
90620SOL    HW173757   1.946   5.790  13.626
90620SOL    HW273758   2.088   5.768  13.577
90621SOL     OW73759   4.065   0.578   0.416
90621SOL    HW173760   4.158   0.576   0.392
90621SOL    HW273761   4.061   0.534   0.501
90622SOL     OW73762  12.297   9.253  10.459
90622SOL    HW173763  12.291   9.308  10.537
90622SOL    HW273764  12.268   9.309  10.387
90623SOL     OW73765   3.783  13.593   4.169
90623SOL    HW173766   3.859  13.579   4.227
90623SOL    HW273767   3.707  13.582   4.226
90624SOL     OW73768   4.501  11.267   4.194
90624SOL    HW173769   4.452  11.251   4.275
90624SOL    HW273770   4.461  11.345   4.157
90625SOL     OW73771   2.007   3.739  12.387
90625SOL    HW173772   2.052   3.773  12.464
90625SOL    HW273773   1.920   3.714  12.418
90626SOL     OW73774   0.117   2.410  13.082
90626SOL    HW173775   0.167   2.359  13.018
90626SOL    HW273776   0.075   2.478  13.030
90627SOL     OW73777   3.481   1.002  14.735
90627SOL    HW173778   3.478   0.969  14.824
90627SOL    HW273779   3.440   1.089  14.740
90628SOL     OW73780  12.596  14.182  12.614
90628SOL    HW173781  12.674  14.211  12.567
90628SOL    HW273782  12.526  14.186  12.550
90629SOL     OW73783  13.996   2.287   6.364
90629SOL    HW173784  14.062   2.354   6.381
90629SOL    HW273785  13.993   2.236   6.444
90630SOL     OW73786   7.267   4.931   3.325
90630SOL    HW173787   7.284   5.021   3.299
90630SOL    HW273788   7.207   4.897   3.258
90631SOL     OW73789  12.469   6.691   6.972
90631SOL    HW173790  12.533   6.753   7.008
90631SOL    HW273791  12.384   6.730   6.993
90632SOL     OW73792  11.406   6.619   0.326
90632SOL    HW173793  11.319   6.581   0.332
90632SOL    HW273794  11.426   6.647   0.415
90633SOL     OW73795  11.718   4.561   0.565
90633SOL    HW173796  11.742   4.473   0.594
90633SOL    HW273797  11.782   4.619   0.607
90634SOL     OW73798   9.009   1.098   5.520
90634SOL    HW173799   9.038   1.080   5.431
90634SOL    HW273800   9.077   1.155   5.556
90635SOL     OW73801   9.407   8.028   6.210
90635SOL    HW173802   9.390   8.092   6.279
90635SOL    HW273803   9.502   8.020   6.207
90636SOL     OW73804   0.888  10.279  13.654
90636SOL    HW173805   0.942  10.201  13.666
90636SOL    HW273806   0.798  10.246  13.649
90637SOL     OW73807  14.037   6.731   7.884
90637SOL    HW173808  14.129   6.709   7.869
90637SOL    HW273809  14.040   6.818   7.925
90638SOL     OW73810   8.958   2.150  14.027
90638SOL    HW173811   8.942   2.240  14.057
90638SOL    HW273812   8.985   2.103  14.106
90639SOL     OW73813   4.729  10.086  11.130
90639SOL    HW173814   4.767  10.131  11.205
90639SOL    HW273815   4.787  10.011  11.115
90640SOL     OW73816  14.722   7.117  12.222
90640SOL    HW173817  14.670   7.036  12.229
90640SOL    HW273818  14.811   7.090  12.241
90641SOL     OW73819  11.110  10.722   8.287
90641SOL    HW173820  11.154  10.751   8.367
90641SOL    HW273821  11.047  10.656   8.317
90642SOL     OW73822  12.652  14.712   8.011
90642SOL    HW173823  12.622  14.623   7.995
90642SOL    HW273824  12.716  14.703   8.083
90643SOL     OW73825  13.575   5.057   5.398
90643SOL    HW173826  13.658   5.100   5.378
90643SOL    HW273827  13.539   5.108   5.471
90644SOL     OW73828  11.543  14.295  12.885
90644SOL    HW173829  11.547  14.382  12.845
90644SOL    HW273830  11.574  14.308  12.974
90645SOL     OW73831   4.954   4.530  11.715
90645SOL    HW173832   4.999   4.610  11.744
90645SOL    HW273833   5.022   4.479  11.672
90646SOL     OW73834   0.178   9.645  13.164
90646SOL    HW173835   0.189   9.565  13.112
90646SOL    HW273836   0.109   9.623  13.227
90647SOL     OW73837  14.153  11.326   7.592
90647SOL    HW173838  14.227  11.312   7.533
90647SOL    HW273839  14.193  11.349   7.676
90648SOL     OW73840  11.420  12.422   6.818
90648SOL    HW173841  11.513  12.430   6.839
90648SOL    HW273842  11.388  12.513   6.817
90649SOL     OW73843   8.495   5.294   7.792
90649SOL    HW173844   8.446   5.254   7.864
90649SOL    HW273845   8.438   5.285   7.716
90650SOL     OW73846   1.232   1.314   4.076
90650SOL    HW173847   1.262   1.395   4.117
90650SOL    HW273848   1.213   1.339   3.985
90651SOL     OW73849   7.165   0.430   7.500
90651SOL    HW173850   7.159   0.524   7.513
90651SOL    HW273851   7.089   0.408   7.446
90652SOL     OW73852   5.193  11.205   5.949
90652SOL    HW173853   5.285  11.231   5.962
90652SOL    HW273854   5.189  11.180   5.857
90653SOL     OW73855   4.505   0.665   9.014
90653SOL    HW173856   4.556   0.637   9.090
90653SOL    HW273857   4.464   0.747   9.042
90654SOL     OW73858  12.920   1.944   9.932
90654SOL    HW173859  12.878   1.899  10.004
90654SOL    HW273860  12.875   2.029   9.927
90655SOL     OW73861  12.244   0.610   7.808
90655SOL    HW173862  12.168   0.552   7.813
90655SOL    HW273863  12.288   0.600   7.892
90656SOL     OW73864   0.602  13.752   6.753
90656SOL    HW173865   0.523  13.762   6.806
90656SOL    HW273866   0.648  13.835   6.762
90657SOL     OW73867   4.186  14.269   5.249
90657SOL    HW173868   4.278  14.285   5.228
90657SOL    HW273869   4.183  14.263   5.344
90658SOL     OW73870  12.175  12.167  11.875
90658SOL    HW173871  12.241  12.169  11.806
90658SOL    HW273872  12.094  12.194  11.831
90659SOL     OW73873   0.647   9.603   6.723
90659SOL    HW173874   0.670   9.694   6.742
90659SOL    HW273875   0.603   9.573   6.803
90660SOL     OW73876   8.093   6.860   3.923
90660SOL    HW173877   8.094   6.900   3.836
90660SOL    HW273878   8.119   6.931   3.982
90661SOL     OW73879   7.159  12.022   7.042
90661SOL    HW173880   7.167  12.109   7.003
90661SOL    HW273881   7.141  11.964   6.969
90662SOL     OW73882   8.547   0.719  12.155
90662SOL    HW173883   8.474   0.750  12.102
90662SOL    HW273884   8.617   0.702  12.093
90663SOL     OW73885   4.103   2.316   4.841
90663SOL    HW173886   4.178   2.375   4.842
90663SOL    HW273887   4.028   2.373   4.860
90664SOL     OW73888  11.193   8.537   4.621
90664SOL    HW173889  11.173   8.495   4.537
90664SOL    HW273890  11.271   8.591   4.603
90665SOL     OW73891   4.476   3.807   9.586
90665SOL    HW173892   4.476   3.777   9.495
90665SOL    HW273893   4.530   3.886   9.586
90666SOL     OW73894  13.041   7.597   7.358
90666SOL    HW173895  12.985   7.525   7.331
90666SOL    HW273896  13.110   7.556   7.409
90667SOL     OW73897  10.649   0.504   4.787
90667SOL    HW173898  10.672   0.446   4.714
90667SOL    HW273899  10.727   0.503   4.843
90668SOL     OW73900   8.310  11.800   5.185
90668SOL    HW173901   8.331  11.766   5.272
90668SOL    HW273902   8.372  11.872   5.172
90669SOL     OW73903   7.630  13.528   0.352
90669SOL    HW173904   7.649  13.618   0.327
90669SOL    HW273905   7.714  13.483   0.347
90670SOL     OW73906   5.259   4.576   7.532
90670SOL    HW173907   5.351   4.551   7.532
90670SOL    HW273908   5.251   4.637   7.605
90671SOL     OW73909   6.925   4.751  11.894
90671SOL    HW173910   6.831   4.767  11.881
90671SOL    HW273911   6.928   4.671  11.948
90672SOL     OW73912  10.762  12.774   1.925
90672SOL    HW173913  10.852  12.763   1.957
90672SOL    HW273914  10.760  12.863   1.891
90673SOL     OW73915  13.984  14.317   4.124
90673SOL    HW173916  14.070  14.358   4.129
90673SOL    HW273917  14.001  14.224   4.136
90674SOL     OW73918   6.564   6.131   6.610
90674SOL    HW173919   6.530   6.168   6.691
90674SOL    HW273920   6.656   6.111   6.629
90675SOL     OW73921   4.975   4.294  11.906
90675SOL    HW173922   4.934   4.256  11.828
90675SOL    HW273923   4.984   4.387  11.884
90676SOL     OW73924   4.933   5.659  14.616
90676SOL    HW173925   4.848   5.648  14.573
90676SOL    HW273926   4.977   5.575  14.604
90677SOL     OW73927   7.332   4.700   2.384
90677SOL    HW173928   7.291   4.785   2.403
90677SOL    HW273929   7.308   4.682   2.293
90678SOL     OW73930   4.157  10.406  11.294
90678SOL    HW173931   4.179  10.453  11.375
90678SOL    HW273932   4.085  10.348  11.319
90679SOL     OW73933   2.946   0.362   3.987
90679SOL    HW173934   2.967   0.281   4.034
90679SOL    HW273935   2.904   0.332   3.906
90680SOL     OW73936  11.059   4.098   5.832
90680SOL    HW173937  11.028   4.185   5.808
90680SOL    HW273938  11.154   4.105   5.831
90681SOL     OW73939  13.824  10.011   6.427
90681SOL    HW173940  13.911  10.034   6.460
90681SOL    HW273941  13.825   9.915   6.423
90682SOL     OW73942   2.593   4.602   7.405
90682SOL    HW173943   2.586   4.540   7.333
90682SOL    HW273944   2.634   4.679   7.366
90683SOL     OW73945   1.665   1.719   4.719
90683SOL    HW173946   1.595   1.670   4.678
90683SOL    HW273947   1.684   1.791   4.659
90684SOL     OW73948   9.640   1.793  12.820
90684SOL    HW173949   9.583   1.772  12.745
90684SOL    HW273950   9.712   1.731  12.814
90685SOL     OW73951  13.080   8.936   0.200
90685SOL    HW173952  13.023   8.858   0.201
90685SOL    HW273953  13.076   8.970   0.289
90686SOL     OW73954  12.148   5.739  11.828
90686SOL    HW173955  12.227   5.777  11.791
90686SOL    HW273956  12.087   5.813  11.836
90687SOL     OW73957   0.568   9.636  13.150
90687SOL    HW173958   0.535   9.581  13.220
90687SOL    HW273959   0.538   9.593  13.070
90688SOL     OW73960   6.341   4.764   6.312
90688SOL    HW173961   6.291   4.684   6.294
90688SOL    HW273962   6.334   4.776   6.407
90689SOL     OW73963  13.946  10.568   2.995
90689SOL    HW173964  13.917  10.621   3.069
90689SOL    HW273965  14.030  10.606   2.969
90690SOL     OW73966   9.341   0.561   4.538
90690SOL    HW173967   9.309   0.484   4.491
90690SOL    HW273968   9.304   0.635   4.490
90691SOL     OW73969  11.564   8.548  12.361
90691SOL    HW173970  11.572   8.634  12.321
90691SOL    HW273971  11.484   8.553  12.414
90692SOL     OW73972   2.453   3.908   5.609
90692SOL    HW173973   2.500   3.919   5.527
90692SOL    HW273974   2.371   3.867   5.585
90693SOL     OW73975   0.016  14.167   8.422
90693SOL    HW173976  14.805  14.191   8.426
90693SOL    HW273977   0.027  14.128   8.336
90694SOL     OW73978   5.154  10.556   0.269
90694SOL    HW173979   5.239  10.581   0.233
90694SOL    HW273980   5.098  10.631   0.251
90695SOL     OW73981  10.839   9.947  14.356
90695SOL    HW173982  10.810   9.933  14.265
90695SOL    HW273983  10.794  10.027  14.383
90696SOL     OW73984   4.375   2.380  12.348
90696SOL    HW173985   4.292   2.391  12.301
90696SOL    HW273986   4.423   2.315  12.297
90697SOL     OW73987   1.095   1.164   8.942
90697SOL    HW173988   1.015   1.128   8.981
90697SOL    HW273989   1.116   1.240   8.997
90698SOL     OW73990  11.220   0.715   1.825
90698SOL    HW173991  11.184   0.640   1.872
90698SOL    HW273992  11.265   0.677   1.749
90699SOL     OW73993  13.873   3.551   5.009
90699SOL    HW173994  13.944   3.573   4.949
90699SOL    HW273995  13.865   3.456   5.003
90700SOL     OW73996   1.314   4.555  14.628
90700SOL    HW173997   1.247   4.540  14.694
90700SOL    HW273998   1.306   4.482  14.568
90701SOL     OW73999   9.829   6.901   9.667
90701SOL    HW174000   9.821   6.812   9.703
90701SOL    HW274001   9.824   6.958   9.743
90702SOL     OW74002   2.231   2.211  12.604
90702SOL    HW174003   2.255   2.240  12.693
90702SOL    HW274004   2.313   2.212  12.555
90703SOL     OW74005   5.932   3.078  13.461
90703SOL    HW174006   5.948   3.138  13.388
90703SOL    HW274007   5.956   2.992  13.428
90704SOL     OW74008   8.454   4.402   5.226
90704SOL    HW174009   8.461   4.323   5.280
90704SOL    HW274010   8.371   4.392   5.179
90705SOL     OW74011  14.728   9.336   0.272
90705SOL    HW174012  14.708   9.315   0.363
90705SOL    HW274013  14.814   9.296   0.256
90706SOL     OW74014  14.533   2.840  14.399
90706SOL    HW174015  14.471   2.828  14.471
90706SOL    HW274016  14.532   2.934  14.382
90707SOL     OW74017   6.374   0.490   0.247
90707SOL    HW174018   6.426   0.410   0.244
90707SOL    HW274019   6.406   0.537   0.324
90708SOL     OW74020   0.483   0.458  10.001
90708SOL    HW174021   0.577   0.477  10.000
90708SOL    HW274022   0.478   0.363  10.009
90709SOL     OW74023   0.196  13.355   8.860
90709SOL    HW174024   0.215  13.436   8.908
90709SOL    HW274025   0.271  13.344   8.801
90710SOL     OW74026   6.289   5.919   4.936
90710SOL    HW174027   6.217   5.923   4.998
90710SOL    HW274028   6.337   5.840   4.961
90711SOL     OW74029   4.938   6.329   0.788
90711SOL    HW174030   4.905   6.377   0.864
90711SOL    HW274031   4.890   6.367   0.714
90712SOL     OW74032   5.826   9.486  11.523
90712SOL    HW174033   5.854   9.542  11.596
90712SOL    HW274034   5.829   9.544  11.447
90713SOL     OW74035   7.142   9.999   5.796
90713SOL    HW174036   7.164  10.082   5.753
90713SOL    HW274037   7.060  10.017   5.842
90714SOL     OW74038   3.564  11.985   9.300
90714SOL    HW174039   3.579  12.069   9.345
90714SOL    HW274040   3.639  11.975   9.242
90715SOL     OW74041  10.776  13.890   6.121
90715SOL    HW174042  10.708  13.906   6.187
90715SOL    HW274043  10.765  13.962   6.058
90716SOL     OW74044   7.745  12.933   1.884
90716SOL    HW174045   7.811  12.866   1.902
90716SOL    HW274046   7.748  12.945   1.789
90717SOL     OW74047   5.370   0.339  12.799
90717SOL    HW174048   5.318   0.259  12.798
90717SOL    HW274049   5.323   0.398  12.859
90718SOL     OW74050   6.232   2.087  12.518
90718SOL    HW174051   6.155   2.076  12.575
90718SOL    HW274052   6.196   2.089  12.430
90719SOL     OW74053   3.235   9.552   2.536
90719SOL    HW174054   3.184   9.629   2.510
90719SOL    HW274055   3.246   9.502   2.455
90720SOL     OW74056   6.886   9.893   4.252
90720SOL    HW174057   6.928   9.976   4.231
90720SOL    HW274058   6.804   9.894   4.202
90721SOL     OW74059   5.078   9.294   0.302
90721SOL    HW174060   5.039   9.319   0.218
90721SOL    HW274061   5.008   9.304   0.366
90722SOL     OW74062   0.724   6.156   2.038
90722SOL    HW174063   0.762   6.140   2.124
90722SOL    HW274064   0.639   6.113   2.041
90723SOL     OW74065   6.555   0.557  10.472
90723SOL    HW174066   6.492   0.572  10.543
90723SOL    HW274067   6.550   0.463  10.454
90724SOL     OW74068   5.899   9.217  11.469
90724SOL    HW174069   5.961   9.240  11.399
90724SOL    HW274070   5.866   9.301  11.500
90725SOL     OW74071  14.320  11.840   6.439
90725SOL    HW174072  14.257  11.807   6.503
90725SOL    HW274073  14.296  11.797   6.357
90726SOL     OW74074   1.065   1.398   8.525
90726SOL    HW174075   1.059   1.422   8.617
90726SOL    HW274076   1.159   1.389   8.509
90727SOL     OW74077  13.097   1.156   1.519
90727SOL    HW174078  13.087   1.067   1.552
90727SOL    HW274079  13.029   1.164   1.452
90728SOL     OW74080  10.328  12.681  11.911
90728SOL    HW174081  10.398  12.641  11.861
90728SOL    HW274082  10.282  12.736  11.848
90729SOL     OW74083  11.035  12.262  13.291
90729SOL    HW174084  10.954  12.226  13.254
90729SOL    HW274085  11.089  12.184  13.309
90730SOL     OW74086   6.254   9.245   6.123
90730SOL    HW174087   6.234   9.309   6.056
90730SOL    HW274088   6.207   9.166   6.095
90731SOL     OW74089   5.196  13.637   4.964
90731SOL    HW174090   5.263  13.651   5.030
90731SOL    HW274091   5.244  13.605   4.887
90732SOL     OW74092  12.212   1.133   4.268
90732SOL    HW174093  12.304   1.136   4.294
90732SOL    HW274094  12.166   1.107   4.348
90733SOL     OW74095   1.741  12.144   7.642
90733SOL    HW174096   1.807  12.097   7.692
90733SOL    HW274097   1.773  12.142   7.552
90734SOL     OW74098  12.256  11.746   3.841
90734SOL    HW174099  12.312  11.676   3.874
90734SOL    HW274100  12.205  11.705   3.772
90735SOL     OW74101   7.647   1.052   0.745
90735SOL    HW174102   7.718   1.028   0.804
90735SOL    HW274103   7.685   1.116   0.686
90736SOL     OW74104  14.683  14.793   1.501
90736SOL    HW174105  14.685  14.711   1.451
90736SOL    HW274106  14.660  14.766   1.590
90737SOL     OW74107   7.425  11.613  12.236
90737SOL    HW174108   7.514  11.594  12.266
90737SOL    HW274109   7.436  11.681  12.170
90738SOL     OW74110   0.145   8.459   1.889
90738SOL    HW174111   0.236   8.480   1.867
90738SOL    HW274112   0.112   8.411   1.813
90739SOL     OW74113   9.531   5.075  12.487
90739SOL    HW174114   9.597   5.022  12.531
90739SOL    HW274115   9.575   5.109  12.409
90740SOL     OW74116  13.374   6.473   8.814
90740SOL    HW174117  13.325   6.392   8.809
90740SOL    HW274118  13.449   6.460   8.755
90741SOL     OW74119  11.124  13.745  12.081
90741SOL    HW174120  11.103  13.805  12.010
90741SOL    HW274121  11.219  13.751  12.090
90742SOL     OW74122   3.857  14.342  12.133
90742SOL    HW174123   3.776  14.298  12.109
90742SOL    HW274124   3.919  14.272  12.152
90743SOL     OW74125   6.703  12.368  13.832
90743SOL    HW174126   6.699  12.429  13.905
90743SOL    HW274127   6.784  12.319  13.846
90744SOL     OW74128   4.903   1.413  14.685
90744SOL    HW174129   4.988   1.431  14.725
90744SOL    HW274130   4.901   1.318  14.674
90745SOL     OW74131   0.109   1.561   1.208
90745SOL    HW174132   0.027   1.604   1.184
90745SOL    HW274133   0.083   1.493   1.270
90746SOL     OW74134  11.798  12.501   4.617
90746SOL    HW174135  11.757  12.438   4.559
90746SOL    HW274136  11.735  12.572   4.624
90747SOL     OW74137  10.104   4.830   9.446
90747SOL    HW174138  10.193   4.859   9.424
90747SOL    HW274139  10.047   4.892   9.400
90748SOL     OW74140   5.519   9.407   4.667
90748SOL    HW174141   5.520   9.322   4.712
90748SOL    HW274142   5.491   9.469   4.734
90749SOL     OW74143   0.986   8.912   9.823
90749SOL    HW174144   1.025   8.930   9.737
90749SOL    HW274145   0.953   8.823   9.817
90750SOL     OW74146   9.102   3.574   2.730
90750SOL    HW174147   9.092   3.661   2.691
90750SOL    HW274148   9.018   3.556   2.771
90751SOL     OW74149   0.014  14.765   5.171
90751SOL    HW174150  14.832  14.700   5.143
90751SOL    HW274151  14.846  14.845   5.185
90752SOL     OW74152   7.216   2.914   8.546
90752SOL    HW174153   7.186   2.999   8.577
90752SOL    HW274154   7.219   2.922   8.451
90753SOL     OW74155   4.470   0.110   9.125
90753SOL    HW174156   4.559   0.081   9.144
90753SOL    HW274157   4.435   0.044   9.066
90754SOL     OW74158   5.719  13.820   0.239
90754SOL    HW174159   5.812  13.810   0.218
90754SOL    HW274160   5.695  13.906   0.203
90755SOL     OW74161   1.941   9.018   3.517
90755SOL    HW174162   1.881   9.027   3.443
90755SOL    HW274163   1.902   8.951   3.573
90756SOL     OW74164   4.711   5.853   8.712
90756SOL    HW174165   4.792   5.902   8.726
90756SOL    HW274166   4.662   5.864   8.794
90757SOL     OW74167  13.774   5.318   8.772
90757SOL    HW174168  13.687   5.295   8.804
90757SOL    HW274169  13.761   5.398   8.721
90758SOL     OW74170  12.759   9.867   1.978
90758SOL    HW174171  12.784   9.808   1.906
90758SOL    HW274172  12.820   9.940   1.970
90759SOL     OW74173  12.240   5.766   2.040
90759SOL    HW174174  12.227   5.673   2.058
90759SOL    HW274175  12.227   5.809   2.124
90760SOL     OW74176  12.895   7.798   0.763
90760SOL    HW174177  12.893   7.795   0.668
90760SOL    HW274178  12.961   7.865   0.783
90761SOL     OW74179   7.453   2.137   8.988
90761SOL    HW174180   7.518   2.206   8.971
90761SOL    HW274181   7.369   2.179   8.969
90762SOL     OW74182   7.748   6.793   4.801
90762SOL    HW174183   7.797   6.719   4.836
90762SOL    HW274184   7.815   6.857   4.776
90763SOL     OW74185  13.290   4.898  13.886
90763SOL    HW174186  13.352   4.893  13.959
90763SOL    HW274187  13.330   4.959  13.824
90764SOL     OW74188   7.211   2.639   8.493
90764SOL    HW174189   7.177   2.593   8.570
90764SOL    HW274190   7.238   2.725   8.526
90765SOL     OW74191   3.129  12.291   5.249
90765SOL    HW174192   3.064  12.356   5.275
90765SOL    HW274193   3.177  12.332   5.177
90766SOL     OW74194   1.313  14.161  10.263
90766SOL    HW174195   1.302  14.256  10.262
90766SOL    HW274196   1.304  14.137  10.355
90767SOL     OW74197   5.818   2.180   6.797
90767SOL    HW174198   5.777   2.245   6.854
90767SOL    HW274199   5.749   2.117   6.779
90768SOL     OW74200   4.492   1.326  13.352
90768SOL    HW174201   4.407   1.369  13.361
90768SOL    HW274202   4.475   1.248  13.299
90769SOL     OW74203   9.493   3.383   7.254
90769SOL    HW174204   9.503   3.368   7.160
90769SOL    HW274205   9.441   3.309   7.285
90770SOL     OW74206  12.830  11.133   0.014
90770SOL    HW174207  12.837  11.228   0.021
90770SOL    HW274208  12.859  11.113  14.807
90771SOL     OW74209  14.782   8.188   2.408
90771SOL    HW174210  14.828   8.111   2.443
90771SOL    HW274211  14.834   8.216   2.333
90772SOL     OW74212   5.091  11.716  10.609
90772SOL    HW174213   5.025  11.683  10.669
90772SOL    HW274214   5.154  11.761  10.666
90773SOL     OW74215  10.836   3.964   6.024
90773SOL    HW174216  10.905   3.954   5.958
90773SOL    HW274217  10.761   3.996   5.974
90774SOL     OW74218   7.631   2.329  10.179
90774SOL    HW174219   7.553   2.356  10.227
90774SOL    HW274220   7.687   2.289  10.245
90775SOL     OW74221   8.757   0.148   2.986
90775SOL    HW174222   8.736   0.056   2.997
90775SOL    HW274223   8.825   0.150   2.919
90776SOL     OW74224  12.072   0.546  10.010
90776SOL    HW174225  12.098   0.637  10.001
90776SOL    HW274226  12.154   0.497  10.015
90777SOL     OW74227   0.607   3.387  11.773
90777SOL    HW174228   0.642   3.312  11.726
90777SOL    HW274229   0.529   3.412  11.723
90778SOL     OW74230   0.893  10.313   9.739
90778SOL    HW174231   0.867  10.236   9.790
90778SOL    HW274232   0.892  10.385   9.802
90779SOL     OW74233   7.135   7.593   5.256
90779SOL    HW174234   7.121   7.513   5.306
90779SOL    HW274235   7.062   7.650   5.281
90780SOL     OW74236   8.863  12.587   8.825
90780SOL    HW174237   8.941  12.613   8.776
90780SOL    HW274238   8.796  12.572   8.759
90781SOL     OW74239   9.902   0.979  11.550
90781SOL    HW174240   9.832   0.914  11.554
90781SOL    HW274241   9.961   0.946  11.482
90782SOL     OW74242   1.998   2.069  12.541
90782SOL    HW174243   1.939   2.102  12.475
90782SOL    HW274244   2.070   2.133  12.544
90783SOL     OW74245   9.272   0.780   3.776
90783SOL    HW174246   9.293   0.771   3.869
90783SOL    HW274247   9.337   0.726   3.731
90784SOL     OW74248  11.038   5.122   0.243
90784SOL    HW174249  10.978   5.189   0.276
90784SOL    HW274250  11.053   5.147   0.152
90785SOL     OW74251  11.663   5.300   4.237
90785SOL    HW174252  11.717   5.226   4.265
90785SOL    HW274253  11.723   5.355   4.187
90786SOL     OW74254   6.135  11.276  10.831
90786SOL    HW174255   6.091  11.260  10.748
90786SOL    HW274256   6.066  11.271  10.897
90787SOL     OW74257   7.331  12.884   9.873
90787SOL    HW174258   7.254  12.841   9.837
90787SOL    HW274259   7.377  12.815   9.921
90788SOL     OW74260   9.208   8.574   2.852
90788SOL    HW174261   9.143   8.550   2.918
90788SOL    HW274262   9.273   8.625   2.900
90789SOL     OW74263   3.255   5.270   6.628
90789SOL    HW174264   3.208   5.321   6.562
90789SOL    HW274265   3.224   5.181   6.615
90790SOL     OW74266   3.342   5.552   8.419
90790SOL    HW174267   3.324   5.576   8.510
90790SOL    HW274268   3.394   5.625   8.385
90791SOL     OW74269   5.711  12.216   7.284
90791SOL    HW174270   5.771  12.264   7.342
90791SOL    HW274271   5.678  12.283   7.224
90792SOL     OW74272   7.027   9.227   7.508
90792SOL    HW174273   7.001   9.150   7.559
90792SOL    HW274274   7.063   9.287   7.573
90793SOL     OW74275   8.266   9.824  13.535
90793SOL    HW174276   8.333   9.890  13.516
90793SOL    HW274277   8.293   9.747  13.485
90794SOL     OW74278   3.846   1.446   1.858
90794SOL    HW174279   3.762   1.400   1.864
90794SOL    HW274280   3.854   1.470   1.766
90795SOL     OW74281   5.764   8.623   5.713
90795SOL    HW174282   5.810   8.686   5.658
90795SOL    HW274283   5.737   8.673   5.790
90796SOL     OW74284   3.733   4.385   2.738
90796SOL    HW174285   3.760   4.372   2.829
90796SOL    HW274286   3.656   4.329   2.727
90797SOL     OW74287   8.244   0.492  14.066
90797SOL    HW174288   8.167   0.442  14.094
90797SOL    HW274289   8.315   0.429  14.066
90798SOL     OW74290   8.503  12.479  12.057
90798SOL    HW174291   8.506  12.574  12.069
90798SOL    HW274292   8.585  12.458  12.014
90799SOL     OW74293   3.903  10.643   9.637
90799SOL    HW174294   3.909  10.591   9.718
90799SOL    HW274295   3.977  10.614   9.585
90800SOL     OW74296   2.416  12.616   2.931
90800SOL    HW174297   2.424  12.535   2.981
90800SOL    HW274298   2.505  12.653   2.932
90801SOL     OW74299   2.298  13.468   9.355
90801SOL    HW174300   2.291  13.376   9.383
90801SOL    HW274301   2.305  13.517   9.437
90802SOL     OW74302  14.177   4.197   2.795
90802SOL    HW174303  14.233   4.225   2.723
90802SOL    HW274304  14.237   4.186   2.869
90803SOL     OW74305  12.595  12.158  14.324
90803SOL    HW174306  12.634  12.084  14.370
90803SOL    HW274307  12.626  12.235  14.371
90804SOL     OW74308  11.635   7.052   1.859
90804SOL    HW174309  11.564   7.056   1.923
90804SOL    HW274310  11.708   7.097   1.902
90805SOL     OW74311   8.500   6.543  14.867
90805SOL    HW174312   8.558   6.614  14.838
90805SOL    HW274313   8.549   6.463  14.847
90806SOL     OW74314  14.162  13.701   2.766
90806SOL    HW174315  14.143  13.784   2.809
90806SOL    HW274316  14.122  13.709   2.679
90807SOL     OW74317   5.576   8.763  12.702
90807SOL    HW174318   5.599   8.671  12.687
90807SOL    HW274319   5.496   8.777  12.652
90808SOL     OW74320  11.813  10.869   6.211
90808SOL    HW174321  11.771  10.922   6.278
90808SOL    HW274322  11.797  10.779   6.238
90809SOL     OW74323   0.163  14.836   2.029
90809SOL    HW174324   0.104  14.836   1.953
90809SOL    HW274325   0.191   0.045   2.038
90810SOL     OW74326   5.818   4.786   1.761
90810SOL    HW174327   5.754   4.809   1.828
90810SOL    HW274328   5.823   4.690   1.765
90811SOL     OW74329   5.704  12.020   0.421
90811SOL    HW174330   5.654  12.033   0.502
90811SOL    HW274331   5.773  11.959   0.445
90812SOL     OW74332   5.621   4.385   3.315
90812SOL    HW174333   5.624   4.295   3.348
90812SOL    HW274334   5.551   4.427   3.365
90813SOL     OW74335   8.858   2.080   5.244
90813SOL    HW174336   8.853   2.173   5.265
90813SOL    HW274337   8.935   2.049   5.290
90814SOL     OW74338   9.212   1.994   9.956
90814SOL    HW174339   9.215   1.965  10.047
90814SOL    HW274340   9.179   1.918   9.908
90815SOL     OW74341   1.912   7.703   3.906
90815SOL    HW174342   1.916   7.618   3.948
90815SOL    HW274343   1.825   7.737   3.927
90816SOL     OW74344   2.897   8.424  13.693
90816SOL    HW174345   2.818   8.412  13.641
90816SOL    HW274346   2.966   8.383  13.642
90817SOL     OW74347   7.211  11.993  13.381
90817SOL    HW174348   7.243  11.922  13.324
90817SOL    HW274349   7.260  12.070  13.354
90818SOL     OW74350   0.331   1.218   0.620
90818SOL    HW174351   0.410   1.272   0.629
90818SOL    HW274352   0.284   1.256   0.546
90819SOL     OW74353  13.404   7.854  12.618
90819SOL    HW174354  13.491   7.814  12.623
90819SOL    HW274355  13.416   7.943  12.652
90820SOL     OW74356   4.063   0.983  14.251
90820SOL    HW174357   4.039   0.917  14.315
90820SOL    HW274358   4.007   0.965  14.175
90821SOL     OW74359   4.712   3.711  11.486
90821SOL    HW174360   4.692   3.804  11.488
90821SOL    HW274361   4.645   3.673  11.428
90822SOL     OW74362   3.642   4.321   3.783
90822SOL    HW174363   3.586   4.260   3.736
90822SOL    HW274364   3.633   4.297   3.875
90823SOL     OW74365  10.014  14.543  11.811
90823SOL    HW174366  10.002  14.449  11.822
90823SOL    HW274367  10.074  14.551  11.737
90824SOL     OW74368   9.276   6.947   7.498
90824SOL    HW174369   9.229   7.002   7.560
90824SOL    HW274370   9.261   6.989   7.413
90825SOL     OW74371   2.799  11.899   1.838
90825SOL    HW174372   2.725  11.841   1.853
90825SOL    HW274373   2.760  11.980   1.807
90826SOL     OW74374   2.682   2.048  11.309
90826SOL    HW174375   2.758   2.079  11.259
90826SOL    HW274376   2.711   1.965  11.347
90827SOL     OW74377   1.949   6.681  11.635
90827SOL    HW174378   1.926   6.771  11.657
90827SOL    HW274379   1.904   6.628  11.700
90828SOL     OW74380   4.690   4.317  14.761
90828SOL    HW174381   4.723   4.407  14.759
90828SOL    HW274382   4.755   4.267  14.712
90829SOL     OW74383   2.096  10.419   6.807
90829SOL    HW174384   2.089  10.515   6.810
90829SOL    HW274385   2.181  10.403   6.766
90830SOL     OW74386  13.985  12.165   1.835
90830SOL    HW174387  14.037  12.212   1.769
90830SOL    HW274388  13.923  12.230   1.867
90831SOL     OW74389   0.312  14.659  12.564
90831SOL    HW174390   0.280  14.747  12.580
90831SOL    HW274391   0.351  14.663  12.477
90832SOL     OW74392   9.068   8.613   9.409
90832SOL    HW174393   8.988   8.561   9.395
90832SOL    HW274394   9.067   8.677   9.337
90833SOL     OW74395   0.701   7.419   7.574
90833SOL    HW174396   0.719   7.459   7.659
90833SOL    HW274397   0.607   7.401   7.575
90834SOL     OW74398   9.244  13.493   0.552
90834SOL    HW174399   9.280  13.405   0.548
90834SOL    HW274400   9.311  13.548   0.512
90835SOL     OW74401   1.242  11.173  14.623
90835SOL    HW174402   1.217  11.242  14.685
90835SOL    HW274403   1.279  11.104  14.678
90836SOL     OW74404  13.863   8.064   4.061
90836SOL    HW174405  13.821   8.098   4.140
90836SOL    HW274406  13.795   8.068   3.994
90837SOL     OW74407   6.239  11.501  13.109
90837SOL    HW174408   6.208  11.565  13.045
90837SOL    HW274409   6.222  11.541  13.194
90838SOL     OW74410   8.706  13.906   6.629
90838SOL    HW174411   8.631  13.959   6.601
90838SOL    HW274412   8.772  13.969   6.657
90839SOL     OW74413   7.925   3.676   3.251
90839SOL    HW174414   7.865   3.602   3.250
90839SOL    HW274415   8.012   3.636   3.256
90840SOL     OW74416  13.920  10.317   2.037
90840SOL    HW174417  13.928  10.238   2.091
90840SOL    HW274418  14.005  10.326   1.996
90841SOL     OW74419   7.057  13.880   5.066
90841SOL    HW174420   6.962  13.870   5.066
90841SOL    HW274421   7.077  13.917   5.152
90842SOL     OW74422   3.970  14.426   3.134
90842SOL    HW174423   3.919  14.421   3.053
90842SOL    HW274424   3.977  14.335   3.164
90843SOL     OW74425   2.942  10.523  10.981
90843SOL    HW174426   2.895  10.442  10.999
90843SOL    HW274427   3.034  10.503  10.999
90844SOL     OW74428   8.336   8.120   9.389
90844SOL    HW174429   8.259   8.067   9.367
90844SOL    HW274430   8.405   8.088   9.332
90845SOL     OW74431   3.867   4.858   8.149
90845SOL    HW174432   3.953   4.865   8.107
90845SOL    HW274433   3.816   4.930   8.112
90846SOL     OW74434   1.746   9.361   4.992
90846SOL    HW174435   1.795   9.283   4.967
90846SOL    HW274436   1.806   9.433   4.975
90847SOL     OW74437   1.334   6.173   7.362
90847SOL    HW174438   1.275   6.146   7.433
90847SOL    HW274439   1.377   6.093   7.335
90848SOL     OW74440  11.701   5.555   8.135
90848SOL    HW174441  11.769   5.501   8.174
90848SOL    HW274442  11.686   5.626   8.198
90849SOL     OW74443  12.912   9.172   4.264
90849SOL    HW174444  12.901   9.124   4.181
90849SOL    HW274445  12.875   9.258   4.247
90850SOL     OW74446  11.543   7.266   9.258
90850SOL    HW174447  11.537   7.206   9.332
90850SOL    HW274448  11.569   7.350   9.297
90851SOL     OW74449   6.445   8.680  11.829
90851SOL    HW174450   6.498   8.697  11.751
90851SOL    HW274451   6.449   8.762  11.879
90852SOL     OW74452   0.829   3.012   1.349
90852SOL    HW174453   0.876   3.092   1.323
90852SOL    HW274454   0.898   2.950   1.373
90853SOL     OW74455  10.170   2.176   7.153
90853SOL    HW174456  10.210   2.089   7.151
90853SOL    HW274457  10.145   2.192   7.062
90854SOL     OW74458   2.066   5.579   5.349
90854SOL    HW174459   2.139   5.518   5.346
90854SOL    HW274460   2.104   5.663   5.326
90855SOL     OW74461   7.261   8.933   3.284
90855SOL    HW174462   7.188   8.927   3.223
90855SOL    HW274463   7.306   9.014   3.259
90856SOL     OW74464   2.712   3.355  12.086
90856SOL    HW174465   2.775   3.363  12.157
90856SOL    HW274466   2.687   3.445  12.065
90857SOL     OW74467   6.188  10.162   8.647
90857SOL    HW174468   6.198  10.128   8.736
90857SOL    HW274469   6.135  10.096   8.602
90858SOL     OW74470   9.547   6.154   4.274
90858SOL    HW174471   9.590   6.219   4.218
90858SOL    HW274472   9.454   6.163   4.253
90859SOL     OW74473  13.574   1.475   7.352
90859SOL    HW174474  13.607   1.391   7.384
90859SOL    HW274475  13.481   1.474   7.375
90860SOL     OW74476   0.227   6.886   3.140
90860SOL    HW174477   0.168   6.945   3.186
90860SOL    HW274478   0.172   6.843   3.075
90861SOL     OW74479  10.183  10.125  10.794
90861SOL    HW174480  10.145  10.103  10.709
90861SOL    HW274481  10.180  10.043  10.843
90862SOL     OW74482   5.625   8.890   4.836
90862SOL    HW174483   5.638   8.843   4.918
90862SOL    HW274484   5.533   8.878   4.815
90863SOL     OW74485   8.649   7.187   9.536
90863SOL    HW174486   8.560   7.196   9.503
90863SOL    HW274487   8.667   7.269   9.581
90864SOL     OW74488   6.059   1.618   3.132
90864SOL    HW174489   6.069   1.587   3.043
90864SOL    HW274490   6.137   1.587   3.178
90865SOL     OW74491  12.171   0.022   3.876
90865SOL    HW174492  12.228   0.099   3.870
90865SOL    HW274493  12.131   0.015   3.789
90866SOL     OW74494   4.079  12.805   2.549
90866SOL    HW174495   4.048  12.735   2.491
90866SOL    HW274496   3.999  12.852   2.574
90867SOL     OW74497  10.715  10.956   5.989
90867SOL    HW174498  10.734  10.943   6.082
90867SOL    HW274499  10.798  10.937   5.945
90868SOL     OW74500   2.901   4.161  12.272
90868SOL    HW174501   2.881   4.245  12.313
90868SOL    HW274502   2.984   4.176  12.227
90869SOL     OW74503  12.341   5.940   6.544
90869SOL    HW174504  12.434   5.918   6.541
90869SOL    HW274505  12.315   5.919   6.634
90870SOL     OW74506  14.808   5.730   4.502
90870SOL    HW174507  14.793   5.807   4.556
90870SOL    HW274508  14.721   5.702   4.475
90871SOL     OW74509   9.537   7.150   5.683
90871SOL    HW174510   9.563   7.060   5.660
90871SOL    HW274511   9.555   7.156   5.777
90872SOL     OW74512  10.128   3.985   0.561
90872SOL    HW174513  10.148   4.072   0.596
90872SOL    HW274514  10.209   3.936   0.573
90873SOL     OW74515   6.013   5.428   3.334
90873SOL    HW174516   6.075   5.406   3.404
90873SOL    HW274517   6.067   5.440   3.256
90874SOL     OW74518   3.169   2.251  11.270
90874SOL    HW174519   3.229   2.188  11.231
90874SOL    HW274520   3.095   2.254  11.210
90875SOL     OW74521  14.164  11.500  12.025
90875SOL    HW174522  14.193  11.432  11.965
90875SOL    HW274523  14.079  11.528  11.991
90876SOL     OW74524   9.881   3.333  13.533
90876SOL    HW174525   9.829   3.391  13.478
90876SOL    HW274526   9.879   3.374  13.620
90877SOL     OW74527   3.239   7.802  13.180
90877SOL    HW174528   3.279   7.859  13.246
90877SOL    HW274529   3.262   7.841  13.096
90878SOL     OW74530   1.086   3.994   0.272
90878SOL    HW174531   1.071   4.085   0.297
90878SOL    HW274532   0.999   3.954   0.270
90879SOL     OW74533  10.878   7.222  10.995
90879SOL    HW174534  10.791   7.197  10.964
90879SOL    HW274535  10.925   7.250  10.917
90880SOL     OW74536   5.629  11.187   1.175
90880SOL    HW174537   5.687  11.256   1.208
90880SOL    HW274538   5.608  11.213   1.086
90881SOL     OW74539   9.195   0.814  13.692
90881SOL    HW174540   9.183   0.720  13.707
90881SOL    HW274541   9.259   0.841  13.757
90882SOL     OW74542   7.359  11.801   5.667
90882SOL    HW174543   7.409  11.865   5.718
90882SOL    HW274544   7.361  11.834   5.578
90883SOL     OW74545  10.062   5.300   7.961
90883SOL    HW174546   9.998   5.371   7.960
90883SOL    HW274547  10.009   5.220   7.966
90884SOL     OW74548   3.800  10.350   3.832
90884SOL    HW174549   3.835  10.309   3.752
90884SOL    HW274550   3.807  10.281   3.899
90885SOL     OW74551  11.537  12.792  14.403
90885SOL    HW174552  11.601  12.750  14.460
90885SOL    HW274553  11.564  12.768  14.314
90886SOL     OW74554   7.187  13.913   7.253
90886SOL    HW174555   7.137  13.831   7.264
90886SOL    HW274556   7.166  13.964   7.331
90887SOL     OW74557   6.526   2.054   6.214
90887SOL    HW174558   6.496   2.143   6.233
90887SOL    HW274559   6.621   2.058   6.224
90888SOL     OW74560  13.164  12.348   1.950
90888SOL    HW174561  13.161  12.286   2.022
90888SOL    HW274562  13.095  12.318   1.890
90889SOL     OW74563   7.513   9.317   2.672
90889SOL    HW174564   7.501   9.266   2.752
90889SOL    HW274565   7.531   9.406   2.702
90890SOL     OW74566   8.263  11.136   6.511
90890SOL    HW174567   8.309  11.059   6.477
90890SOL    HW274568   8.240  11.112   6.601
90891SOL     OW74569   4.688   8.095   1.579
90891SOL    HW174570   4.776   8.123   1.556
90891SOL    HW274571   4.645   8.174   1.611
90892SOL     OW74572  12.700   2.595   6.193
90892SOL    HW174573  12.795   2.604   6.186
90892SOL    HW274574  12.680   2.622   6.283
90893SOL     OW74575  12.087  11.324  13.757
90893SOL    HW174576  12.108  11.411  13.792
90893SOL    HW274577  12.154  11.267  13.794
90894SOL     OW74578   5.447   6.590   6.723
90894SOL    HW174579   5.433   6.685   6.730
90894SOL    HW274580   5.522   6.581   6.664
90895SOL     OW74581   4.737   0.626   4.068
90895SOL    HW174582   4.827   0.609   4.039
90895SOL    HW274583   4.747   0.661   4.156
90896SOL     OW74584   9.107  14.251   6.608
90896SOL    HW174585   9.203  14.258   6.605
90896SOL    HW274586   9.076  14.341   6.595
90897SOL     OW74587  11.624   0.665  13.272
90897SOL    HW174588  11.712   0.654  13.237
90897SOL    HW274589  11.577   0.715  13.205
90898SOL     OW74590   5.683  13.719  13.011
90898SOL    HW174591   5.631  13.771  12.949
90898SOL    HW274592   5.712  13.644  12.960
90899SOL     OW74593   5.376  11.703   2.420
90899SOL    HW174594   5.359  11.645   2.494
90899SOL    HW274595   5.392  11.789   2.459
90900SOL     OW74596   2.219   4.877   2.754
90900SOL    HW174597   2.198   4.956   2.705
90900SOL    HW274598   2.179   4.806   2.703
90901SOL     OW74599   4.745  11.413   3.529
90901SOL    HW174600   4.800  11.396   3.606
90901SOL    HW274601   4.719  11.326   3.499
90902SOL     OW74602  11.391  11.555  11.931
90902SOL    HW174603  11.432  11.555  11.845
90902SOL    HW274604  11.300  11.531  11.914
90903SOL     OW74605   2.666   9.327   9.748
90903SOL    HW174606   2.625   9.396   9.801
90903SOL    HW274607   2.727   9.374   9.692
90904SOL     OW74608  14.385  13.566   5.360
90904SOL    HW174609  14.387  13.626   5.434
90904SOL    HW274610  14.416  13.483   5.395
90905SOL     OW74611   1.145   6.006   4.591
90905SOL    HW174612   1.117   5.919   4.621
90905SOL    HW274613   1.196   6.041   4.665
90906SOL     OW74614   5.526   5.428   7.820
90906SOL    HW174615   5.580   5.353   7.795
90906SOL    HW274616   5.453   5.390   7.870
90907SOL     OW74617  11.684   7.050   3.271
90907SOL    HW174618  11.640   7.006   3.198
90907SOL    HW274619  11.638   7.019   3.349
90908SOL     OW74620   5.795   2.024   8.308
90908SOL    HW174621   5.870   1.964   8.305
90908SOL    HW274622   5.790   2.051   8.400
90909SOL     OW74623   9.943  11.453  10.362
90909SOL    HW174624   9.975  11.371  10.325
90909SOL    HW274625   9.864  11.473  10.311
90910SOL     OW74626   3.982   4.260   4.505
90910SOL    HW174627   4.029   4.214   4.435
90910SOL    HW274628   4.032   4.340   4.519
90911SOL     OW74629   5.337  13.439  13.301
90911SOL    HW174630   5.378  13.353  13.285
90911SOL    HW274631   5.379  13.471  13.381
90912SOL     OW74632   8.590   7.962   2.319
90912SOL    HW174633   8.519   7.936   2.377
90912SOL    HW274634   8.634   8.033   2.366
90913SOL     OW74635   5.888   2.753   4.570
90913SOL    HW174636   5.843   2.750   4.655
90913SOL    HW274637   5.979   2.774   4.593
90914SOL     OW74638   6.806  11.852   5.612
90914SOL    HW174639   6.887  11.815   5.646
90914SOL    HW274640   6.789  11.928   5.668
90915SOL     OW74641   4.684   2.019   2.816
90915SOL    HW174642   4.610   1.958   2.815
90915SOL    HW274643   4.649   2.097   2.859
90916SOL     OW74644   5.588   3.127   8.270
90916SOL    HW174645   5.581   3.050   8.326
90916SOL    HW274646   5.575   3.094   8.181
90917SOL     OW74647   4.928   5.314   7.494
90917SOL    HW174648   5.012   5.327   7.538
90917SOL    HW274649   4.885   5.400   7.499
90918SOL     OW74650   5.052  14.590   2.849
90918SOL    HW174651   5.106  14.649   2.795
90918SOL    HW274652   5.074  14.503   2.817
90919SOL     OW74653   0.992   5.949  11.156
90919SOL    HW174654   0.980   6.027  11.101
90919SOL    HW274655   0.988   5.876  11.095
90920SOL     OW74656  14.371   8.756  12.651
90920SOL    HW174657  14.306   8.799  12.707
90920SOL    HW274658  14.373   8.665  12.680
90921SOL     OW74659  12.871  12.973  11.043
90921SOL    HW174660  12.926  13.051  11.046
90921SOL    HW274661  12.840  12.961  11.133
90922SOL     OW74662   4.845  10.994  11.833
90922SOL    HW174663   4.776  10.940  11.873
90922SOL    HW274664   4.875  10.942  11.759
90923SOL     OW74665  13.326   4.459   2.612
90923SOL    HW174666  13.290   4.510   2.685
90923SOL    HW274667  13.253   4.405   2.582
90924SOL     OW74668   9.050   3.842   2.624
90924SOL    HW174669   9.076   3.931   2.600
90924SOL    HW274670   9.062   3.791   2.544
90925SOL     OW74671   9.061  10.406  12.441
90925SOL    HW174672   9.083  10.323  12.399
90925SOL    HW274673   9.029  10.461  12.370
90926SOL     OW74674   9.023   0.308   1.089
90926SOL    HW174675   8.990   0.370   1.154
90926SOL    HW274676   8.962   0.234   1.093
90927SOL     OW74677  11.245   8.557   8.749
90927SOL    HW174678  11.163   8.594   8.715
90927SOL    HW274679  11.227   8.464   8.760
90928SOL     OW74680   4.337   6.117   9.696
90928SOL    HW174681   4.370   6.071   9.619
90928SOL    HW274682   4.280   6.054   9.740
90929SOL     OW74683   7.774   4.958   8.100
90929SOL    HW174684   7.752   4.867   8.076
90929SOL    HW274685   7.867   4.966   8.079
90930SOL     OW74686   0.222   4.910  10.653
90930SOL    HW174687   0.156   4.915  10.722
90930SOL    HW274688   0.175   4.933  10.573
90931SOL     OW74689   1.860   2.520   5.010
90931SOL    HW174690   1.818   2.442   4.973
90931SOL    HW274691   1.828   2.524   5.100
90932SOL     OW74692   9.406   7.000   1.091
90932SOL    HW174693   9.366   7.051   1.021
90932SOL    HW274694   9.499   7.024   1.087
90933SOL     OW74695   6.474   6.534   6.393
90933SOL    HW174696   6.425   6.533   6.475
90933SOL    HW274697   6.467   6.624   6.362
90934SOL     OW74698   1.260  11.728  12.553
90934SOL    HW174699   1.287  11.757  12.640
90934SOL    HW274700   1.231  11.809  12.510
90935SOL     OW74701   7.003   4.296  13.914
90935SOL    HW174702   7.059   4.221  13.935
90935SOL    HW274703   7.024   4.316  13.822
90936SOL     OW74704  12.348  12.164  10.946
90936SOL    HW174705  12.365  12.080  10.989
90936SOL    HW274706  12.400  12.161  10.865
90937SOL     OW74707  13.860  12.792   5.911
90937SOL    HW174708  13.775  12.833   5.894
90937SOL    HW274709  13.914  12.863   5.948
90938SOL     OW74710  14.144  14.299  12.824
90938SOL    HW174711  14.206  14.371  12.839
90938SOL    HW274712  14.146  14.248  12.904
90939SOL     OW74713   8.387  14.341   0.822
90939SOL    HW174714   8.315  14.399   0.796
90939SOL    HW274715   8.397  14.356   0.916
90940SOL     OW74716  11.306   0.355   9.045
90940SOL    HW174717  11.334   0.359   8.954
90940SOL    HW274718  11.384   0.326   9.093
90941SOL     OW74719   6.874   4.028   2.180
90941SOL    HW174720   6.890   3.973   2.104
90941SOL    HW274721   6.871   3.967   2.254
90942SOL     OW74722  10.022  11.725   6.575
90942SOL    HW174723  10.040  11.726   6.481
90942SOL    HW274724   9.964  11.800   6.589
90943SOL     OW74725   8.579   7.760   7.930
90943SOL    HW174726   8.531   7.806   7.861
90943SOL    HW274727   8.546   7.798   8.011
90944SOL     OW74728   3.358   8.935   4.302
90944SOL    HW174729   3.341   8.890   4.385
90944SOL    HW274730   3.397   9.018   4.328
90945SOL     OW74731   2.994  11.336  10.800
90945SOL    HW174732   3.049  11.340  10.721
90945SOL    HW274733   3.045  11.379  10.868
90946SOL     OW74734   3.185   5.495  14.185
90946SOL    HW174735   3.203   5.444  14.265
90946SOL    HW274736   3.173   5.585  14.216
90947SOL     OW74737  11.489   6.330   4.164
90947SOL    HW174738  11.523   6.285   4.086
90947SOL    HW274739  11.449   6.410   4.129
90948SOL     OW74740   1.312  14.586  13.012
90948SOL    HW174741   1.398  14.591  13.054
90948SOL    HW274742   1.272  14.509  13.052
90949SOL     OW74743   1.154  10.374  13.366
90949SOL    HW174744   1.198  10.417  13.292
90949SOL    HW274745   1.214  10.304  13.392
90950SOL     OW74746  11.701   6.132   4.418
90950SOL    HW174747  11.656   6.165   4.340
90950SOL    HW274748  11.653   6.169   4.492
90951SOL     OW74749   9.703  13.769   4.577
90951SOL    HW174750   9.782  13.717   4.560
90951SOL    HW274751   9.722  13.813   4.660
90952SOL     OW74752  13.565   0.932   4.102
90952SOL    HW174753  13.582   0.930   4.008
90952SOL    HW274754  13.480   0.976   4.110
90953SOL     OW74755  11.753   1.213   2.330
90953SOL    HW174756  11.844   1.242   2.322
90953SOL    HW274757  11.703   1.276   2.278
90954SOL     OW74758   6.083   1.694   7.931
90954SOL    HW174759   6.165   1.671   7.975
90954SOL    HW274760   6.107   1.763   7.869
90955SOL     OW74761   3.028  12.759   1.909
90955SOL    HW174762   2.961  12.815   1.870
90955SOL    HW274763   3.109  12.781   1.863
90956SOL     OW74764  13.966   5.874  13.694
90956SOL    HW174765  14.031   5.941  13.715
90956SOL    HW274766  13.892   5.892  13.752
90957SOL     OW74767   7.537   4.391  14.078
90957SOL    HW174768   7.461   4.429  14.122
90957SOL    HW274769   7.612   4.438  14.114
90958SOL     OW74770   9.729  12.951   5.035
90958SOL    HW174771   9.718  12.899   4.955
90958SOL    HW274772   9.815  12.992   5.026
90959SOL     OW74773  11.423   6.217  10.497
90959SOL    HW174774  11.439   6.305  10.464
90959SOL    HW274775  11.471   6.160  10.436
90960SOL     OW74776   0.779  11.728  11.485
90960SOL    HW174777   0.732  11.660  11.533
90960SOL    HW274778   0.728  11.739  11.404
90961SOL     OW74779  11.393   6.481  10.384
90961SOL    HW174780  11.306   6.511  10.357
90961SOL    HW274781  11.427   6.435  10.307
90962SOL     OW74782   3.714  13.482   7.575
90962SOL    HW174783   3.757  13.424   7.638
90962SOL    HW274784   3.769  13.477   7.497
90963SOL     OW74785   7.543   8.341  14.382
90963SOL    HW174786   7.491   8.402  14.330
90963SOL    HW274787   7.559   8.388  14.464
90964SOL     OW74788   7.435   4.190  12.575
90964SOL    HW174789   7.490   4.112  12.589
90964SOL    HW274790   7.403   4.181  12.485
90965SOL     OW74791  14.709   4.476   9.188
90965SOL    HW174792  14.705   4.387   9.223
90965SOL    HW274793  14.713   4.464   9.093
90966SOL     OW74794   7.848  13.081   5.776
90966SOL    HW174795   7.814  13.154   5.724
90966SOL    HW274796   7.925  13.116   5.820
90967SOL     OW74797   7.298  11.292   2.433
90967SOL    HW174798   7.212  11.333   2.446
90967SOL    HW274799   7.340  11.298   2.519
90968SOL     OW74800  11.011  14.717   4.125
90968SOL    HW174801  10.917  14.699   4.130
90968SOL    HW274802  11.050  14.631   4.107
90969SOL     OW74803  11.636   6.260   8.878
90969SOL    HW174804  11.584   6.234   8.953
90969SOL    HW274805  11.722   6.222   8.894
90970SOL     OW74806   7.623   9.727   3.532
90970SOL    HW174807   7.604   9.633   3.525
90970SOL    HW274808   7.593   9.751   3.620
90971SOL     OW74809   8.727   3.902   0.615
90971SOL    HW174810   8.746   3.820   0.568
90971SOL    HW274811   8.633   3.913   0.606
90972SOL     OW74812  14.292   7.995  11.093
90972SOL    HW174813  14.288   8.066  11.157
90972SOL    HW274814  14.280   7.915  11.145
90973SOL     OW74815   1.491   7.391   8.530
90973SOL    HW174816   1.505   7.398   8.436
90973SOL    HW274817   1.551   7.322   8.558
90974SOL     OW74818  10.317   6.322   3.369
90974SOL    HW174819  10.396   6.326   3.424
90974SOL    HW274820  10.299   6.414   3.347
90975SOL     OW74821  12.481   4.529  10.402
90975SOL    HW174822  12.538   4.467  10.358
90975SOL    HW274823  12.393   4.495  10.389
90976SOL     OW74824   9.883   4.549  10.367
90976SOL    HW174825   9.958   4.534  10.309
90976SOL    HW274826   9.920   4.595  10.442
90977SOL     OW74827  10.206   3.269   3.189
90977SOL    HW174828  10.247   3.271   3.103
90977SOL    HW274829  10.193   3.176   3.208
90978SOL     OW74830  10.781   1.753   5.077
90978SOL    HW174831  10.765   1.669   5.120
90978SOL    HW274832  10.862   1.739   5.028
90979SOL     OW74833   2.213   6.990   1.046
90979SOL    HW174834   2.191   7.068   0.995
90979SOL    HW274835   2.239   7.023   1.131
90980SOL     OW74836   8.765   7.062   1.980
90980SOL    HW174837   8.686   7.036   1.934
90980SOL    HW274838   8.740   7.061   2.073
90981SOL     OW74839   3.967   0.256  10.603
90981SOL    HW174840   4.020   0.176  10.601
90981SOL    HW274841   3.902   0.243  10.533
90982SOL     OW74842   3.142   5.593  10.372
90982SOL    HW174843   3.148   5.510  10.326
90982SOL    HW274844   3.112   5.656  10.306
90983SOL     OW74845  13.134   1.188   0.330
90983SOL    HW174846  13.213   1.186   0.276
90983SOL    HW274847  13.138   1.273   0.374
90984SOL     OW74848   2.124   1.420   0.554
90984SOL    HW174849   2.042   1.398   0.510
90984SOL    HW274850   2.178   1.341   0.546
90985SOL     OW74851   7.680   0.837   8.836
90985SOL    HW174852   7.615   0.834   8.906
90985SOL    HW274853   7.763   0.854   8.881
90986SOL     OW74854   7.077   9.667   2.083
90986SOL    HW174855   7.134   9.717   2.025
90986SOL    HW274856   7.006   9.727   2.105
90987SOL     OW74857  10.697   0.967   8.496
90987SOL    HW174858  10.746   0.892   8.532
90987SOL    HW274859  10.607   0.951   8.522
90988SOL     OW74860  10.210   4.976   3.056
90988SOL    HW174861  10.123   4.953   3.024
90988SOL    HW274862  10.217   5.070   3.044
90989SOL     OW74863  13.070   8.597   4.449
90989SOL    HW174864  13.097   8.618   4.538
90989SOL    HW274865  13.150   8.607   4.397
90990SOL     OW74866  10.348  10.252   6.778
90990SOL    HW174867  10.333  10.314   6.850
90990SOL    HW274868  10.436  10.274   6.747
90991SOL     OW74869  13.492   7.751   8.426
90991SOL    HW174870  13.469   7.764   8.334
90991SOL    HW274871  13.542   7.670   8.427
90992SOL     OW74872  14.627   7.833   3.920
90992SOL    HW174873  14.709   7.796   3.952
90992SOL    HW274874  14.640   7.841   3.825
90993SOL     OW74875   5.202   7.161  14.204
90993SOL    HW174876   5.204   7.124  14.116
90993SOL    HW274877   5.292   7.190  14.220
90994SOL     OW74878  14.455  12.786  11.629
90994SOL    HW174879  14.489  12.830  11.552
90994SOL    HW274880  14.530  12.779  11.688
90995SOL     OW74881  12.137   4.833   0.770
90995SOL    HW174882  12.156   4.872   0.855
90995SOL    HW274883  12.220   4.796   0.741
90996SOL     OW74884   2.218   2.981  12.891
90996SOL    HW174885   2.231   3.071  12.921
90996SOL    HW274886   2.282   2.930  12.940
90997SOL     OW74887   7.883  12.301  10.334
90997SOL    HW174888   7.907  12.255  10.415
90997SOL    HW274889   7.963  12.298  10.281
90998SOL     OW74890   0.665  12.489   7.726
90998SOL    HW174891   0.712  12.408   7.706
90998SOL    HW274892   0.733  12.557   7.724
90999SOL     OW74893  10.325  12.202  10.702
90999SOL    HW174894  10.370  12.120  10.722
90999SOL    HW274895  10.245  12.176  10.657
91000SOL     OW74896  10.917   8.618  12.268
91000SOL    HW174897  10.858   8.543  12.279
91000SOL    HW274898  10.945   8.640  12.357
91001SOL     OW74899   7.454  10.600  10.193
91001SOL    HW174900   7.405  10.599  10.110
91001SOL    HW274901   7.505  10.519  10.191
91002SOL     OW74902  10.781   8.909  13.587
91002SOL    HW174903  10.781   9.004  13.575
91002SOL    HW274904  10.740   8.895  13.672
91003SOL     OW74905   0.816   5.132   5.104
91003SOL    HW174906   0.847   5.092   5.023
91003SOL    HW274907   0.865   5.214   5.110
91004SOL     OW74908   8.814   6.186   3.002
91004SOL    HW174909   8.738   6.233   2.967
91004SOL    HW274910   8.812   6.101   2.957
91005SOL     OW74911  11.362   5.751  12.372
91005SOL    HW174912  11.432   5.806  12.407
91005SOL    HW274913  11.291   5.759  12.435
91006SOL     OW74914  12.937  14.389   0.089
91006SOL    HW174915  12.845  14.415   0.092
91006SOL    HW274916  12.934  14.294   0.076
91007SOL     OW74917  10.252   0.054   8.414
91007SOL    HW174918  10.213  14.861   8.370
91007SOL    HW274919  10.341   0.026   8.436
91008SOL     OW74920  12.040  14.720   7.943
91008SOL    HW174921  12.134  14.728   7.961
91008SOL    HW274922  12.013  14.642   7.991
91009SOL     OW74923   6.313  10.843  12.746
91009SOL    HW174924   6.305  10.799  12.830
91009SOL    HW274925   6.275  10.782  12.683
91010SOL     OW74926   4.953  11.236   2.485
91010SOL    HW174927   4.971  11.211   2.395
91010SOL    HW274928   5.037  11.267   2.519
91011SOL     OW74929  11.225   1.186   2.607
91011SOL    HW174930  11.207   1.092   2.603
91011SOL    HW274931  11.265   1.207   2.523
91012SOL     OW74932   8.695   2.716   9.010
91012SOL    HW174933   8.690   2.770   8.931
91012SOL    HW274934   8.619   2.742   9.062
91013SOL     OW74935  11.216   8.810   1.913
91013SOL    HW174936  11.122   8.815   1.894
91013SOL    HW274937  11.258   8.853   1.839
91014SOL     OW74938  10.835   2.064  10.523
91014SOL    HW174939  10.758   2.016  10.492
91014SOL    HW274940  10.853   2.026  10.609
91015SOL     OW74941   0.371   3.227  11.572
91015SOL    HW174942   0.399   3.275  11.494
91015SOL    HW274943   0.327   3.293  11.627
91016SOL     OW74944  12.859   7.550  14.442
91016SOL    HW174945  12.806   7.622  14.409
91016SOL    HW274946  12.911   7.588  14.513
91017SOL     OW74947   9.563  10.824   6.754
91017SOL    HW174948   9.642  10.877   6.751
91017SOL    HW274949   9.590  10.742   6.796
91018SOL     OW74950  13.197  14.006   3.097
91018SOL    HW174951  13.163  14.088   3.133
91018SOL    HW274952  13.224  13.955   3.174
91019SOL     OW74953   3.471   1.778   4.042
91019SOL    HW174954   3.470   1.767   3.947
91019SOL    HW274955   3.387   1.743   4.071
91020SOL     OW74956   7.455   3.312   7.233
91020SOL    HW174957   7.549   3.293   7.235
91020SOL    HW274958   7.428   3.308   7.325
91021SOL     OW74959   3.220   1.286  11.612
91021SOL    HW174960   3.226   1.334  11.695
91021SOL    HW274961   3.221   1.193  11.638
91022SOL     OW74962   1.567   8.012   5.189
91022SOL    HW174963   1.574   8.092   5.242
91022SOL    HW274964   1.488   7.970   5.221
91023SOL     OW74965  11.391   5.911   4.089
91023SOL    HW174966  11.450   5.942   4.020
91023SOL    HW274967  11.313   5.966   4.081
91024SOL     OW74968  14.030   5.007  12.514
91024SOL    HW174969  14.069   5.053  12.439
91024SOL    HW274970  14.004   4.922  12.478
91025SOL     OW74971   3.920   6.393   4.154
91025SOL    HW174972   3.900   6.300   4.166
91025SOL    HW274973   3.931   6.427   4.242
91026SOL     OW74974  11.367   9.205   3.552
91026SOL    HW174975  11.454   9.238   3.531
91026SOL    HW274976  11.324   9.194   3.467
91027SOL     OW74977   5.562   4.670   4.276
91027SOL    HW174978   5.628   4.646   4.342
91027SOL    HW274979   5.577   4.763   4.261
91028SOL     OW74980  11.451  12.614  12.971
91028SOL    HW174981  11.375  12.593  13.027
91028SOL    HW274982  11.523  12.627  13.033
91029SOL     OW74983   7.252   3.552   6.239
91029SOL    HW174984   7.181   3.490   6.257
91029SOL    HW274985   7.262   3.602   6.319
91030SOL     OW74986  11.348  11.548  11.543
91030SOL    HW174987  11.307  11.489  11.606
91030SOL    HW274988  11.297  11.629  11.550
91031SOL     OW74989  11.014   1.554  11.750
91031SOL    HW174990  10.921   1.570  11.732
91031SOL    HW274991  11.022   1.459  11.751
91032SOL     OW74992   1.607   7.065  10.563
91032SOL    HW174993   1.582   7.149  10.602
91032SOL    HW274994   1.593   7.078  10.469
91033SOL     OW74995  11.554   7.558   2.494
91033SOL    HW174996  11.461   7.538   2.480
91033SOL    HW274997  11.597   7.472   2.499
91034SOL     OW74998   8.517   3.286   4.274
91034SOL    HW174999   8.499   3.193   4.286
91034SOL    HW275000   8.473   3.329   4.347
91035SOL     OW75001   1.000   1.367  11.388
91035SOL    HW175002   0.930   1.346  11.450
91035SOL    HW275003   0.998   1.463  11.382
91036SOL     OW75004   8.862   6.717   7.721
91036SOL    HW175005   8.880   6.638   7.772
91036SOL    HW275006   8.865   6.687   7.630
91037SOL     OW75007   3.925   5.092   4.421
91037SOL    HW175008   3.853   5.115   4.361
91037SOL    HW275009   3.913   5.150   4.496
91038SOL     OW75010  13.584   3.003  12.986
91038SOL    HW175011  13.558   3.086  12.946
91038SOL    HW275012  13.680   3.002  12.977
91039SOL     OW75013   2.385   8.598   8.953
91039SOL    HW175014   2.389   8.506   8.928
91039SOL    HW275015   2.360   8.596   9.046
91040SOL     OW75016   2.700  14.028  10.743
91040SOL    HW175017   2.628  14.072  10.697
91040SOL    HW275018   2.720  13.952  10.689
91041SOL     OW75019   5.534  13.380   9.921
91041SOL    HW175020   5.598  13.439   9.882
91041SOL    HW275021   5.576  13.352  10.003
91042SOL     OW75022   2.214   2.766  12.179
91042SOL    HW175023   2.208   2.683  12.133
91042SOL    HW275024   2.244   2.828  12.113
91043SOL     OW75025   9.618  14.556  12.358
91043SOL    HW175026   9.659  14.567  12.272
91043SOL    HW275027   9.525  14.570  12.343
91044SOL     OW75028   6.725  11.601   5.673
91044SOL    HW175029   6.665  11.657   5.722
91044SOL    HW275030   6.800  11.659   5.654
91045SOL     OW75031  11.961  10.447  14.489
91045SOL    HW175032  11.941  10.539  14.469
91045SOL    HW275033  11.926  10.434  14.577
91046SOL     OW75034   5.321   4.700   6.396
91046SOL    HW175035   5.365   4.771   6.444
91046SOL    HW275036   5.323   4.728   6.305
91047SOL     OW75037   8.298   2.547   5.613
91047SOL    HW175038   8.265   2.625   5.569
91047SOL    HW275039   8.311   2.575   5.704
91048SOL     OW75040  12.023   8.321   9.088
91048SOL    HW175041  11.949   8.368   9.127
91048SOL    HW275042  11.995   8.230   9.084
91049SOL     OW75043  13.440  13.462  10.390
91049SOL    HW175044  13.473  13.372  10.385
91049SOL    HW275045  13.514  13.513  10.422
91050SOL     OW75046  14.862  13.719   4.470
91050SOL    HW175047   0.068  13.687   4.453
91050SOL    HW275048  14.843  13.779   4.398
91051SOL     OW75049   6.383   8.722   9.872
91051SOL    HW175050   6.351   8.636   9.900
91051SOL    HW275051   6.437   8.703   9.795
91052SOL     OW75052   9.719   7.536   9.241
91052SOL    HW175053   9.706   7.513   9.333
91052SOL    HW275054   9.764   7.621   9.244
91053SOL     OW75055   2.960  12.168  12.580
91053SOL    HW175056   3.054  12.153  12.570
91053SOL    HW275057   2.952  12.223  12.658
91054SOL     OW75058  14.757   1.203  12.003
91054SOL    HW175059  14.692   1.188  12.071
91054SOL    HW275060  14.707   1.200  11.921
91055SOL     OW75061   5.411   3.365   6.079
91055SOL    HW175062   5.440   3.410   6.158
91055SOL    HW275063   5.453   3.412   6.008
91056SOL     OW75064   0.458   2.867   6.534
91056SOL    HW175065   0.546   2.858   6.498
91056SOL    HW275066   0.458   2.811   6.612
91057SOL     OW75067   6.428   0.225   2.386
91057SOL    HW175068   6.378   0.247   2.465
91057SOL    HW275069   6.398   0.137   2.363
91058SOL     OW75070  10.980  10.351   8.578
91058SOL    HW175071  11.012  10.273   8.623
91058SOL    HW275072  10.901  10.375   8.626
91059SOL     OW75073   0.532   0.875   6.399
91059SOL    HW175074   0.600   0.933   6.431
91059SOL    HW275075   0.469   0.869   6.471
91060SOL     OW75076  13.548  10.539  14.130
91060SOL    HW175077  13.534  10.506  14.219
91060SOL    HW275078  13.460  10.563  14.100
91061SOL     OW75079  11.367   2.470   2.279
91061SOL    HW175080  11.389   2.465   2.372
91061SOL    HW275081  11.385   2.561   2.255
91062SOL     OW75082   1.313  10.770   3.391
91062SOL    HW175083   1.344  10.687   3.354
91062SOL    HW275084   1.350  10.837   3.334
91063SOL     OW75085   2.089   0.838  10.856
91063SOL    HW175086   2.042   0.755  10.851
91063SOL    HW275087   2.181   0.814  10.867
91064SOL     OW75088  12.013   4.884  11.939
91064SOL    HW175089  12.020   4.795  11.903
91064SOL    HW275090  12.067   4.938  11.881
91065SOL     OW75091   7.249   9.238   5.253
91065SOL    HW175092   7.300   9.203   5.326
91065SOL    HW275093   7.159   9.240   5.285
91066SOL     OW75094   6.796   5.919   7.998
91066SOL    HW175095   6.887   5.943   8.014
91066SOL    HW275096   6.761   5.899   8.085
91067SOL     OW75097  12.924   1.700   6.244
91067SOL    HW175098  12.960   1.749   6.317
91067SOL    HW275099  12.902   1.766   6.178
91068SOL     OW75100   3.021   8.920  13.705
91068SOL    HW175101   3.000   8.966  13.623
91068SOL    HW275102   3.012   8.987  13.773
91069SOL     OW75103   5.566  10.993  13.725
91069SOL    HW175104   5.484  11.040  13.744
91069SOL    HW275105   5.608  10.982  13.810
91070SOL     OW75106  13.238   2.314   9.920
91070SOL    HW175107  13.231   2.409   9.914
91070SOL    HW275108  13.187   2.291   9.997
91071SOL     OW75109   6.030   4.346  10.855
91071SOL    HW175110   6.043   4.268  10.801
91071SOL    HW275111   5.976   4.403  10.800
91072SOL     OW75112   6.131   4.554  12.753
91072SOL    HW175113   6.086   4.501  12.688
91072SOL    HW275114   6.156   4.493  12.822
91073SOL     OW75115   4.580  14.524   8.444
91073SOL    HW175116   4.485  14.533   8.435
91073SOL    HW275117   4.593  14.483   8.530
91074SOL     OW75118  10.853  13.379   9.541
91074SOL    HW175119  10.783  13.395   9.478
91074SOL    HW275120  10.902  13.461   9.543
91075SOL     OW75121  12.775   0.228   7.036
91075SOL    HW175122  12.687   0.212   7.004
91075SOL    HW275123  12.771   0.206   7.129
91076SOL     OW75124   2.457   3.347  13.715
91076SOL    HW175125   2.420   3.270  13.671
91076SOL    HW275126   2.382   3.405  13.729
91077SOL     OW75127   9.191   9.010   8.385
91077SOL    HW175128   9.155   9.092   8.351
91077SOL    HW275129   9.120   8.947   8.374
91078SOL     OW75130   8.531   4.068   7.146
91078SOL    HW175131   8.489   4.097   7.227
91078SOL    HW275132   8.594   4.002   7.174
91079SOL     OW75133   3.612   6.916  11.364
91079SOL    HW175134   3.519   6.928  11.342
91079SOL    HW275135   3.634   6.992  11.417
91080SOL     OW75136   6.344   4.840   5.053
91080SOL    HW175137   6.417   4.876   5.104
91080SOL    HW275138   6.334   4.901   4.980
91081SOL     OW75139   6.141  12.587  11.787
91081SOL    HW175140   6.100  12.666  11.822
91081SOL    HW275141   6.161  12.535  11.865
91082SOL     OW75142   2.655  13.748   2.720
91082SOL    HW175143   2.717  13.814   2.751
91082SOL    HW275144   2.584  13.750   2.783
91083SOL     OW75145   4.654  11.892  11.186
91083SOL    HW175146   4.595  11.943  11.131
91083SOL    HW275147   4.649  11.803  11.151
91084SOL     OW75148   9.723  10.953  11.647
91084SOL    HW175149   9.651  10.973  11.588
91084SOL    HW275150   9.774  11.034  11.651
91085SOL     OW75151   1.157  12.426  12.348
91085SOL    HW175152   1.138  12.406  12.440
91085SOL    HW275153   1.231  12.370  12.326
91086SOL     OW75154   9.679   1.449   0.455
91086SOL    HW175155   9.734   1.433   0.378
91086SOL    HW275156   9.677   1.544   0.464
91087SOL     OW75157   8.302  13.797   2.291
91087SOL    HW175158   8.344  13.732   2.348
91087SOL    HW275159   8.342  13.880   2.316
91088SOL     OW75160   2.864   4.788   9.683
91088SOL    HW175161   2.817   4.724   9.737
91088SOL    HW275162   2.952   4.790   9.720
91089SOL     OW75163   2.332   9.973  11.477
91089SOL    HW175164   2.332  10.013  11.564
91089SOL    HW275165   2.335   9.878  11.494
91090SOL     OW75166   0.101   3.997  10.034
91090SOL    HW175167   0.102   3.981  10.128
91090SOL    HW275168   0.184   3.960  10.002
91091SOL     OW75169   8.764   4.441  10.329
91091SOL    HW175170   8.821   4.370  10.357
91091SOL    HW275171   8.719   4.469  10.409
91092SOL     OW75172   2.913   5.255  11.557
91092SOL    HW175173   2.916   5.169  11.517
91092SOL    HW275174   2.868   5.241  11.640
91093SOL     OW75175  10.635  14.485  11.740
91093SOL    HW175176  10.635  14.432  11.660
91093SOL    HW275177  10.698  14.555  11.724
91094SOL     OW75178   4.461   9.661   7.752
91094SOL    HW175179   4.534   9.705   7.709
91094SOL    HW275180   4.501   9.587   7.798
91095SOL     OW75181   3.696   3.294  14.364
91095SOL    HW175182   3.705   3.216  14.309
91095SOL    HW275183   3.644   3.355  14.312
91096SOL     OW75184   6.023  12.762   5.048
91096SOL    HW175185   6.103  12.806   5.018
91096SOL    HW275186   6.037  12.670   5.026
91097SOL     OW75187   8.780   5.689   5.866
91097SOL    HW175188   8.688   5.709   5.886
91097SOL    HW275189   8.778   5.652   5.778
91098SOL     OW75190   2.486  11.490   0.734
91098SOL    HW175191   2.520  11.497   0.823
91098SOL    HW275192   2.544  11.545   0.682
91099SOL     OW75193   7.947  14.377   6.077
91099SOL    HW175194   7.880  14.407   6.017
91099SOL    HW275195   7.989  14.304   6.032
91100SOL     OW75196  13.413  13.130   9.286
91100SOL    HW175197  13.410  13.103   9.378
91100SOL    HW275198  13.333  13.182   9.274
91101SOL     OW75199   6.151  12.216   9.269
91101SOL    HW175200   6.063  12.202   9.303
91101SOL    HW275201   6.203  12.242   9.345
91102SOL     OW75202   3.965   4.679   5.565
91102SOL    HW175203   3.905   4.712   5.633
91102SOL    HW275204   3.959   4.584   5.571
91103SOL     OW75205   0.457  12.863  14.385
91103SOL    HW175206   0.454  12.800  14.457
91103SOL    HW275207   0.445  12.810  14.307
91104SOL     OW75208   7.250   4.031   1.742
91104SOL    HW175209   7.288   4.108   1.699
91104SOL    HW275210   7.300   3.957   1.706
91105SOL     OW75211   5.811   7.583   9.025
91105SOL    HW175212   5.818   7.488   9.034
91105SOL    HW275213   5.902   7.613   9.025
91106SOL     OW75214   4.682   1.915   0.892
91106SOL    HW175215   4.747   1.849   0.868
91106SOL    HW275216   4.694   1.985   0.828
91107SOL     OW75217   5.102  14.398   1.808
91107SOL    HW175218   5.094  14.368   1.899
91107SOL    HW275219   5.137  14.487   1.815
91108SOL     OW75220   7.695   1.250   9.344
91108SOL    HW175221   7.708   1.338   9.379
91108SOL    HW275222   7.699   1.260   9.249
91109SOL     OW75223   4.207   2.920   7.375
91109SOL    HW175224   4.183   2.904   7.466
91109SOL    HW275225   4.251   2.840   7.347
91110SOL     OW75226  11.536   3.055   2.578
91110SOL    HW175227  11.586   2.975   2.593
91110SOL    HW275228  11.472   3.058   2.648
91111SOL     OW75229   9.998   0.731  11.805
91111SOL    HW175230  10.032   0.820  11.806
91111SOL    HW275231  10.034   0.689  11.883
91112SOL     OW75232   8.969   7.270   5.181
91112SOL    HW175233   8.887   7.224   5.163
91112SOL    HW275234   8.945   7.342   5.239
91113SOL     OW75235   4.310  13.817   2.457
91113SOL    HW175236   4.351  13.794   2.540
91113SOL    HW275237   4.325  13.742   2.400
91114SOL     OW75238   9.286   1.608   5.752
91114SOL    HW175239   9.291   1.701   5.732
91114SOL    HW275240   9.196   1.584   5.731
91115SOL     OW75241   7.553   4.281   3.299
91115SOL    HW175242   7.488   4.308   3.234
91115SOL    HW275243   7.554   4.186   3.295
91116SOL     OW75244   1.817   5.064   0.026
91116SOL    HW175245   1.799   5.022  14.824
91116SOL    HW275246   1.913   5.074   0.028
91117SOL     OW75247   6.062   9.042  14.119
91117SOL    HW175248   6.101   8.955  14.133
91117SOL    HW275249   6.027   9.039  14.030
91118SOL     OW75250  12.578   3.728   6.921
91118SOL    HW175251  12.620   3.646   6.894
91118SOL    HW275252  12.511   3.744   6.854
91119SOL     OW75253   6.041   0.646  11.647
91119SOL    HW175254   6.094   0.628  11.569
91119SOL    HW275255   5.976   0.710  11.618
91120SOL     OW75256  12.111   0.242   4.093
91120SOL    HW175257  12.053   0.317   4.082
91120SOL    HW275258  12.059   0.166   4.067
91121SOL     OW75259  12.512  14.789   4.939
91121SOL    HW175260  12.556  14.737   4.872
91121SOL    HW275261  12.560  14.771   5.020
91122SOL     OW75262   3.453  13.802   5.514
91122SOL    HW175263   3.383  13.856   5.478
91122SOL    HW275264   3.408  13.735   5.566
91123SOL     OW75265   9.992   6.740  10.507
91123SOL    HW175266  10.070   6.774  10.551
91123SOL    HW275267  10.009   6.646  10.498
91124SOL     OW75268  10.535  12.453   7.056
91124SOL    HW175269  10.557  12.363   7.031
91124SOL    HW275270  10.439  12.454   7.056
91125SOL     OW75271   7.498  11.134   2.278
91125SOL    HW175272   7.406  11.151   2.294
91125SOL    HW275273   7.519  11.058   2.334
91126SOL     OW75274   4.090   4.198   8.316
91126SOL    HW175275   4.116   4.275   8.367
91126SOL    HW275276   4.006   4.173   8.353
91127SOL     OW75277   4.598   6.323  14.697
91127SOL    HW175278   4.577   6.231  14.709
91127SOL    HW275279   4.693   6.327  14.693
91128SOL     OW75280   3.135   9.383  13.631
91128SOL    HW175281   3.162   9.342  13.549
91128SOL    HW275282   3.210   9.438  13.656
91129SOL     OW75283  14.538  10.619   7.501
91129SOL    HW175284  14.482  10.683   7.457
91129SOL    HW275285  14.544  10.649   7.591
91130SOL     OW75286  12.494  14.308  11.811
91130SOL    HW175287  12.486  14.374  11.880
91130SOL    HW275288  12.409  14.263  11.812
91131SOL     OW75289  10.020   6.266  14.648
91131SOL    HW175290   9.968   6.225  14.717
91131SOL    HW275291   9.981   6.235  14.567
91132SOL     OW75292   8.786   1.084  14.447
91132SOL    HW175293   8.860   1.032  14.416
91132SOL    HW275294   8.825   1.168  14.473
91133SOL     OW75295   3.713  14.232   2.739
91133SOL    HW175296   3.793  14.195   2.702
91133SOL    HW275297   3.642  14.194   2.687
91134SOL     OW75298   6.281   1.970   9.889
91134SOL    HW175299   6.273   2.050   9.942
91134SOL    HW275300   6.371   1.972   9.855
91135SOL     OW75301   9.055   2.414   3.087
91135SOL    HW175302   9.004   2.434   3.008
91135SOL    HW275303   9.141   2.388   3.054
91136SOL     OW75304   6.166   7.428  13.022
91136SOL    HW175305   6.145   7.426  12.929
91136SOL    HW275306   6.234   7.494  13.030
91137SOL     OW75307   4.441   7.432  10.305
91137SOL    HW175308   4.392   7.474  10.377
91137SOL    HW275309   4.394   7.458  10.226
91138SOL     OW75310   9.563  11.089  14.333
91138SOL    HW175311   9.608  11.005  14.322
91138SOL    HW275312   9.489  11.086  14.272
91139SOL     OW75313   7.401   9.708   7.063
91139SOL    HW175314   7.481   9.754   7.087
91139SOL    HW275315   7.382   9.737   6.974
91140SOL     OW75316   0.846   3.102   6.900
91140SOL    HW175317   0.924   3.049   6.881
91140SOL    HW275318   0.854   3.178   6.842
91141SOL     OW75319  14.443  12.218   7.471
91141SOL    HW175320  14.478  12.209   7.560
91141SOL    HW275321  14.485  12.146   7.422
91142SOL     OW75322  10.015  11.455   4.072
91142SOL    HW175323   9.960  11.472   4.148
91142SOL    HW275324   9.958  11.407   4.011
91143SOL     OW75325   9.222  12.786   7.067
91143SOL    HW175326   9.200  12.879   7.060
91143SOL    HW275327   9.140  12.740   7.049
91144SOL     OW75328  12.629   0.228  12.763
91144SOL    HW175329  12.654   0.175  12.687
91144SOL    HW275330  12.627   0.166  12.836
91145SOL     OW75331  14.723   7.040  13.832
91145SOL    HW175332  14.736   7.035  13.927
91145SOL    HW275333  14.656   7.108  13.821
91146SOL     OW75334   0.360   2.272   0.091
91146SOL    HW175335   0.266   2.253   0.093
91146SOL    HW275336   0.391   2.232   0.010
91147SOL     OW75337   4.198   5.369   8.459
91147SOL    HW175338   4.150   5.436   8.411
91147SOL    HW275339   4.130   5.318   8.504
91148SOL     OW75340  10.600  11.838   7.068
91148SOL    HW175341  10.541  11.814   7.139
91148SOL    HW275342  10.558  11.805   6.989
91149SOL     OW75343   8.599   5.482   8.121
91149SOL    HW175344   8.649   5.454   8.045
91149SOL    HW275345   8.601   5.578   8.117
91150SOL     OW75346   8.756   5.515   5.235
91150SOL    HW175347   8.718   5.472   5.312
91150SOL    HW275348   8.725   5.605   5.240
91151SOL     OW75349   8.014   5.117   3.980
91151SOL    HW175350   8.040   5.093   3.891
91151SOL    HW275351   8.080   5.181   4.007
91152SOL     OW75352  12.150   2.577   0.379
91152SOL    HW175353  12.209   2.635   0.331
91152SOL    HW275354  12.082   2.554   0.316
91153SOL     OW75355   2.672  10.714   3.986
91153SOL    HW175356   2.714  10.800   3.979
91153SOL    HW275357   2.605  10.725   4.054
91154SOL     OW75358   3.544  11.751   8.417
91154SOL    HW175359   3.450  11.735   8.425
91154SOL    HW275360   3.581  11.666   8.397
91155SOL     OW75361   3.619  10.075  14.320
91155SOL    HW175362   3.546  10.115  14.272
91155SOL    HW275363   3.689  10.141  14.317
91156SOL     OW75364   4.242  12.181  11.545
91156SOL    HW175365   4.301  12.105  11.546
91156SOL    HW275366   4.181  12.163  11.473
91157SOL     OW75367   8.488   6.157  12.020
91157SOL    HW175368   8.417   6.221  12.029
91157SOL    HW275369   8.487   6.107  12.101
91158SOL     OW75370   3.399   6.423  14.592
91158SOL    HW175371   3.311   6.394  14.569
91158SOL    HW275372   3.387   6.509  14.632
91159SOL     OW75373   5.539   6.671   6.412
91159SOL    HW175374   5.597   6.631   6.477
91159SOL    HW275375   5.511   6.753   6.453
91160SOL     OW75376   3.675   0.337   6.560
91160SOL    HW175377   3.591   0.380   6.572
91160SOL    HW275378   3.687   0.333   6.466
91161SOL     OW75379  13.487  14.073   3.133
91161SOL    HW175380  13.407  14.060   3.084
91161SOL    HW275381  13.484  14.165   3.160
91162SOL     OW75382   9.515   6.217  10.435
91162SOL    HW175383   9.431   6.260  10.418
91162SOL    HW275384   9.495   6.123  10.429
91163SOL     OW75385   1.255   7.721   2.918
91163SOL    HW175386   1.310   7.764   2.984
91163SOL    HW275387   1.288   7.632   2.913
91164SOL     OW75388   1.046   9.884  14.535
91164SOL    HW175389   0.969   9.829  14.519
91164SOL    HW275390   1.062   9.875  14.629
91165SOL     OW75391   5.407   4.822   3.749
91165SOL    HW175392   5.495   4.838   3.714
91165SOL    HW275393   5.363   4.907   3.741
91166SOL     OW75394   1.822   5.140  11.968
91166SOL    HW175395   1.875   5.211  12.004
91166SOL    HW275396   1.739   5.182  11.946
91167SOL     OW75397   4.922  11.031   9.088
91167SOL    HW175398   4.920  11.116   9.133
91167SOL    HW275399   4.958  11.050   9.002
91168SOL     OW75400   5.031   3.592  11.877
91168SOL    HW175401   4.941   3.579  11.845
91168SOL    HW275402   5.036   3.685  11.898
91169SOL     OW75403   9.108   2.254   0.158
91169SOL    HW175404   9.203   2.254   0.144
91169SOL    HW275405   9.098   2.277   0.250
91170SOL     OW75406   4.650  10.652   7.861
91170SOL    HW175407   4.658  10.562   7.892
91170SOL    HW275408   4.681  10.705   7.934
91171SOL     OW75409   2.542  12.934  11.333
91171SOL    HW175410   2.523  12.962  11.243
91171SOL    HW275411   2.494  12.996  11.388
91172SOL     OW75412   1.983   7.902  12.743
91172SOL    HW175413   1.940   7.953  12.812
91172SOL    HW275414   1.923   7.905  12.669
91173SOL     OW75415   8.887   4.214   6.493
91173SOL    HW175416   8.822   4.149   6.464
91173SOL    HW275417   8.836   4.276   6.545
91174SOL     OW75418   8.240   9.824  10.780
91174SOL    HW175419   8.283   9.738  10.777
91174SOL    HW275420   8.293   9.875  10.842
91175SOL     OW75421   1.662  12.535  10.848
91175SOL    HW175422   1.669  12.537  10.943
91175SOL    HW275423   1.753  12.528  10.817
91176SOL     OW75424   0.792   7.170  12.993
91176SOL    HW175425   0.818   7.232  13.061
91176SOL    HW275426   0.696   7.178  12.989
91177SOL     OW75427   1.313  10.211   2.290
91177SOL    HW175428   1.296  10.147   2.221
91177SOL    HW275429   1.234  10.210   2.344
91178SOL     OW75430  11.298   7.619   5.501
91178SOL    HW175431  11.314   7.704   5.461
91178SOL    HW275432  11.260   7.566   5.431
91179SOL     OW75433   4.179   4.653   8.958
91179SOL    HW175434   4.126   4.610   8.890
91179SOL    HW275435   4.262   4.674   8.914
91180SOL     OW75436  14.785   3.218   0.791
91180SOL    HW175437  14.786   3.308   0.757
91180SOL    HW275438  14.877   3.192   0.791
91181SOL     OW75439   1.352   0.455   9.997
91181SOL    HW175440   1.261   0.484  10.008
91181SOL    HW275441   1.393   0.473  10.081
91182SOL     OW75442   4.377  10.725   2.769
91182SOL    HW175443   4.470  10.715   2.749
91182SOL    HW275444   4.350  10.640   2.804
91183SOL     OW75445  10.844   4.229  11.837
91183SOL    HW175446  10.807   4.189  11.758
91183SOL    HW275447  10.795   4.190  11.909
91184SOL     OW75448   5.421  12.012  10.165
91184SOL    HW175449   5.377  11.928  10.157
91184SOL    HW275450   5.513  11.993  10.146
91185SOL     OW75451   1.952  10.921  10.345
91185SOL    HW175452   1.857  10.917  10.331
91185SOL    HW275453   1.972  11.014  10.348
91186SOL     OW75454   1.626  11.766   2.850
91186SOL    HW175455   1.569  11.699   2.812
91186SOL    HW275456   1.612  11.844   2.796
91187SOL     OW75457  11.978  11.999   7.546
91187SOL    HW175458  12.051  12.061   7.542
91187SOL    HW275459  12.007  11.925   7.493
91188SOL     OW75460   4.479   4.914   4.386
91188SOL    HW175461   4.543   4.854   4.425
91188SOL    HW275462   4.409   4.857   4.355
91189SOL     OW75463  13.350   1.878   1.031
91189SOL    HW175464  13.426   1.826   1.057
91189SOL    HW275465  13.384   1.942   0.970
91190SOL     OW75466   9.635   2.436   4.868
91190SOL    HW175467   9.614   2.457   4.778
91190SOL    HW275468   9.634   2.520   4.914
91191SOL     OW75469   2.308   3.835   0.139
91191SOL    HW175470   2.366   3.801   0.207
91191SOL    HW275471   2.261   3.758   0.108
91192SOL     OW75472   7.471   3.533   7.814
91192SOL    HW175473   7.510   3.546   7.900
91192SOL    HW275474   7.536   3.567   7.752
91193SOL     OW75475  12.139   2.199   3.197
91193SOL    HW175476  12.214   2.143   3.179
91193SOL    HW275477  12.122   2.188   3.290
91194SOL     OW75478  10.907   6.891  10.397
91194SOL    HW175479  10.811   6.893  10.395
91194SOL    HW275480  10.930   6.798  10.396
91195SOL     OW75481  10.928   4.160   6.187
91195SOL    HW175482  10.970   4.193   6.107
91195SOL    HW275483  10.887   4.078   6.160
91196SOL     OW75484   0.599  13.076   3.695
91196SOL    HW175485   0.544  13.056   3.771
91196SOL    HW275486   0.681  13.110   3.732
91197SOL     OW75487   1.452   7.658  11.201
91197SOL    HW175488   1.439   7.746  11.236
91197SOL    HW275489   1.396   7.602  11.256
91198SOL     OW75490  14.751   6.098   1.868
91198SOL    HW175491  14.771   6.023   1.925
91198SOL    HW275492  14.785   6.174   1.915
91199SOL     OW75493   5.912   9.226   2.642
91199SOL    HW175494   5.936   9.248   2.552
91199SOL    HW275495   5.993   9.237   2.692
91200SOL     OW75496   2.392   6.879  14.288
91200SOL    HW175497   2.379   6.872  14.194
91200SOL    HW275498   2.360   6.795  14.323
91201SOL     OW75499   5.393  11.175   7.014
91201SOL    HW175500   5.414  11.251   7.068
91201SOL    HW275501   5.450  11.105   7.046
91202SOL     OW75502   0.258  13.581  10.739
91202SOL    HW175503   0.281  13.672  10.760
91202SOL    HW275504   0.276  13.573  10.645
91203SOL     OW75505  12.724   3.660   9.363
91203SOL    HW175506  12.786   3.726   9.332
91203SOL    HW275507  12.683   3.626   9.283
91204SOL     OW75508  11.044   1.773   1.732
91204SOL    HW175509  10.985   1.725   1.790
91204SOL    HW275510  11.034   1.865   1.757
91205SOL     OW75511   7.630   4.212   5.827
91205SOL    HW175512   7.578   4.187   5.904
91205SOL    HW275513   7.587   4.166   5.754
91206SOL     OW75514  10.992  11.142  13.431
91206SOL    HW175515  10.978  11.131  13.525
91206SOL    HW275516  10.907  11.120  13.392
91207SOL     OW75517  10.091  11.579  10.903
91207SOL    HW175518  10.088  11.660  10.852
91207SOL    HW275519  10.176  11.582  10.947
91208SOL     OW75520   1.254  11.083  11.352
91208SOL    HW175521   1.339  11.125  11.359
91208SOL    HW275522   1.232  11.057  11.441
91209SOL     OW75523   5.468  14.497  13.022
91209SOL    HW175524   5.398  14.523  12.963
91209SOL    HW275525   5.432  14.509  13.110
91210SOL     OW75526  11.273  11.000   8.760
91210SOL    HW175527  11.261  11.081   8.809
91210SOL    HW275528  11.288  10.934   8.827
91211SOL     OW75529  13.617   1.201   4.176
91211SOL    HW175530  13.620   1.200   4.271
91211SOL    HW275531  13.619   1.108   4.151
91212SOL     OW75532   4.550  12.571   7.725
91212SOL    HW175533   4.532  12.480   7.700
91212SOL    HW275534   4.549  12.570   7.820
91213SOL     OW75535   9.352   0.089   9.202
91213SOL    HW175536   9.331   0.083   9.295
91213SOL    HW275537   9.322   0.176   9.175
91214SOL     OW75538   8.818   0.009   9.247
91214SOL    HW175539   8.875  14.824   9.285
91214SOL    HW275540   8.862   0.034   9.165
91215SOL     OW75541   7.314  14.001   3.120
91215SOL    HW175542   7.300  13.911   3.150
91215SOL    HW275543   7.257  14.054   3.176
91216SOL     OW75544  12.666   3.384   3.823
91216SOL    HW175545  12.719   3.320   3.775
91216SOL    HW275546  12.588   3.395   3.769
91217SOL     OW75547  12.192  13.861   2.180
91217SOL    HW175548  12.114  13.809   2.160
91217SOL    HW275549  12.158  13.943   2.215
91218SOL     OW75550   9.946  13.790  13.325
91218SOL    HW175551   9.853  13.776  13.310
91218SOL    HW275552   9.964  13.876  13.286
91219SOL     OW75553   3.892   2.225  10.468
91219SOL    HW175554   3.936   2.306  10.443
91219SOL    HW275555   3.906   2.166  10.394
91220SOL     OW75556   4.855   9.845  14.301
91220SOL    HW175557   4.824   9.895  14.226
91220SOL    HW275558   4.949   9.832  14.284
91221SOL     OW75559  12.914   7.785   0.031
91221SOL    HW175560  12.879   7.846   0.096
91221SOL    HW275561  12.888   7.699   0.063
91222SOL     OW75562   7.709   7.946   5.210
91222SOL    HW175563   7.750   7.911   5.289
91222SOL    HW275564   7.641   8.005   5.242
91223SOL     OW75565  11.031   1.238   9.106
91223SOL    HW175566  10.951   1.285   9.129
91223SOL    HW275567  11.081   1.299   9.053
91224SOL     OW75568  13.572  10.932   6.668
91224SOL    HW175569  13.595  10.863   6.607
91224SOL    HW275570  13.594  10.897   6.754
91225SOL     OW75571  10.214  14.603  13.214
91225SOL    HW175572  10.154  14.533  13.236
91225SOL    HW275573  10.301  14.563  13.216
91226SOL     OW75574   0.907   8.967   4.336
91226SOL    HW175575   0.912   8.901   4.267
91226SOL    HW275576   0.934   8.921   4.416
91227SOL     OW75577   3.983   4.139   2.099
91227SOL    HW175578   4.070   4.179   2.108
91227SOL    HW275579   3.997   4.065   2.039
91228SOL     OW75580  14.596   1.575  13.443
91228SOL    HW175581  14.593   1.618  13.528
91228SOL    HW275582  14.675   1.521  13.445
91229SOL     OW75583   9.639  12.671  13.798
91229SOL    HW175584   9.569  12.716  13.845
91229SOL    HW275585   9.703  12.647  13.865
91230SOL     OW75586   2.841  13.249   1.521
91230SOL    HW175587   2.766  13.302   1.547
91230SOL    HW275588   2.883  13.299   1.451
91231SOL     OW75589   2.458   9.309   1.378
91231SOL    HW175590   2.472   9.321   1.284
91231SOL    HW275591   2.439   9.216   1.388
91232SOL     OW75592   8.715   4.932   1.113
91232SOL    HW175593   8.748   4.893   1.032
91232SOL    HW275594   8.620   4.918   1.109
91233SOL     OW75595   0.553   0.357   7.758
91233SOL    HW175596   0.535   0.416   7.686
91233SOL    HW275597   0.648   0.351   7.762
91234SOL     OW75598   8.590  13.091  12.730
91234SOL    HW175599   8.636  13.059  12.808
91234SOL    HW275600   8.513  13.034  12.723
91235SOL     OW75601  13.038  11.381   9.822
91235SOL    HW175602  13.065  11.461   9.868
91235SOL    HW275603  13.099  11.375   9.748
91236SOL     OW75604   9.817   6.426  12.502
91236SOL    HW175605   9.777   6.475  12.574
91236SOL    HW275606   9.909   6.454  12.502
91237SOL     OW75607  12.820   7.567  12.633
91237SOL    HW175608  12.764   7.632  12.675
91237SOL    HW275609  12.828   7.599  12.542
91238SOL     OW75610   2.507  14.047   2.968
91238SOL    HW175611   2.560  13.969   2.982
91238SOL    HW275612   2.417  14.019   2.982
91239SOL     OW75613   9.614   0.283   3.492
91239SOL    HW175614   9.548   0.225   3.456
91239SOL    HW275615   9.586   0.371   3.466
91240SOL     OW75616   5.984   4.077   8.666
91240SOL    HW175617   5.951   4.000   8.621
91240SOL    HW275618   6.047   4.042   8.729
91241SOL     OW75619   4.202  13.734  13.946
91241SOL    HW175620   4.199  13.731  14.042
91241SOL    HW275621   4.283  13.780  13.926
91242SOL     OW75622  14.790   7.372  14.269
91242SOL    HW175623  14.824   7.310  14.333
91242SOL    HW275624  14.739   7.319  14.208
91243SOL     OW75625   0.002   8.386   6.154
91243SOL    HW175626   0.013   8.472   6.115
91243SOL    HW275627  14.852   8.403   6.242
91244SOL     OW75628  12.326  11.971   8.334
91244SOL    HW175629  12.354  11.883   8.310
91244SOL    HW275630  12.350  11.979   8.427
91245SOL     OW75631   6.317  10.853  12.351
91245SOL    HW175632   6.342  10.788  12.417
91245SOL    HW275633   6.326  10.937  12.396
91246SOL     OW75634   2.474   1.958   5.996
91246SOL    HW175635   2.502   2.050   5.998
91246SOL    HW275636   2.539   1.913   6.049
91247SOL     OW75637   6.566   4.645   2.255
91247SOL    HW175638   6.564   4.738   2.235
91247SOL    HW275639   6.536   4.639   2.345
91248SOL     OW75640   4.554   9.649   3.463
91248SOL    HW175641   4.559   9.735   3.504
91248SOL    HW275642   4.469   9.649   3.418
91249SOL     OW75643   1.590   9.408   4.679
91249SOL    HW175644   1.685   9.421   4.683
91249SOL    HW275645   1.572   9.395   4.586
91250SOL     OW75646   0.206   6.009  11.072
91250SOL    HW175647   0.223   6.103  11.066
91250SOL    HW275648   0.136   5.994  11.008
91251SOL     OW75649   1.111  12.980  14.026
91251SOL    HW175650   1.207  12.989  14.031
91251SOL    HW275651   1.092  12.905  14.083
91252SOL     OW75652   4.197  12.883   9.441
91252SOL    HW175653   4.135  12.819   9.478
91252SOL    HW275654   4.204  12.950   9.509
91253SOL     OW75655  14.209   1.323  10.194
91253SOL    HW175656  14.274   1.258  10.169
91253SOL    HW275657  14.230   1.399  10.139
91254SOL     OW75658   0.920   8.852   1.342
91254SOL    HW175659   0.931   8.938   1.381
91254SOL    HW275660   0.984   8.797   1.387
91255SOL     OW75661   6.674  14.233   3.920
91255SOL    HW175662   6.657  14.297   3.851
91255SOL    HW275663   6.599  14.174   3.917
91256SOL     OW75664   1.928  13.243   2.844
91256SOL    HW175665   1.914  13.152   2.868
91256SOL    HW275666   2.022  13.250   2.827
91257SOL     OW75667   1.318   6.952  12.062
91257SOL    HW175668   1.379   7.024  12.078
91257SOL    HW275669   1.371   6.885  12.019
91258SOL     OW75670   4.900   1.157   9.238
91258SOL    HW175671   4.860   1.080   9.197
91258SOL    HW275672   4.864   1.231   9.189
91259SOL     OW75673   6.671   9.139   8.882
91259SOL    HW175674   6.578   9.116   8.876
91259SOL    HW275675   6.685   9.157   8.975
91260SOL     OW75676   1.246   2.032   6.882
91260SOL    HW175677   1.206   2.108   6.924
91260SOL    HW275678   1.340   2.045   6.893
91261SOL     OW75679  12.082  11.498   2.944
91261SOL    HW175680  12.161  11.460   2.906
91261SOL    HW275681  12.028  11.422   2.967
91262SOL     OW75682  13.027  12.372   4.519
91262SOL    HW175683  13.032  12.432   4.594
91262SOL    HW275684  13.098  12.310   4.533
91263SOL     OW75685  11.438  10.939  10.361
91263SOL    HW175686  11.378  10.913  10.431
91263SOL    HW275687  11.484  11.015  10.397
91264SOL     OW75688   9.867   9.587  11.228
91264SOL    HW175689   9.807   9.660  11.210
91264SOL    HW275690   9.816   9.527  11.283
91265SOL     OW75691  14.124   4.153  14.135
91265SOL    HW175692  14.037   4.192  14.135
91265SOL    HW275693  14.143   4.136  14.043
91266SOL     OW75694   7.859   6.500   6.746
91266SOL    HW175695   7.791   6.435   6.761
91266SOL    HW275696   7.920   6.457   6.686
91267SOL     OW75697   4.879   2.728   1.149
91267SOL    HW175698   4.868   2.712   1.243
91267SOL    HW275699   4.790   2.741   1.116
91268SOL     OW75700   7.803  11.344   8.253
91268SOL    HW175701   7.737  11.321   8.188
91268SOL    HW275702   7.886  11.318   8.214
91269SOL     OW75703   0.783   2.244   3.487
91269SOL    HW175704   0.825   2.310   3.431
91269SOL    HW275705   0.716   2.293   3.535
91270SOL     OW75706   9.729   4.684   0.486
91270SOL    HW175707   9.635   4.698   0.498
91270SOL    HW275708   9.740   4.589   0.493
91271SOL     OW75709   3.877   5.447   4.333
91271SOL    HW175710   3.947   5.421   4.272
91271SOL    HW275711   3.890   5.541   4.344
91272SOL     OW75712   2.279   8.183   4.624
91272SOL    HW175713   2.223   8.106   4.634
91272SOL    HW275714   2.358   8.150   4.581
91273SOL     OW75715   3.213  11.720  11.948
91273SOL    HW175716   3.140  11.780  11.968
91273SOL    HW275717   3.257  11.706  12.032
91274SOL     OW75718   6.245   5.634  10.979
91274SOL    HW175719   6.215   5.675  10.897
91274SOL    HW275720   6.195   5.679  11.047
91275SOL     OW75721   7.613  11.975  10.663
91275SOL    HW175722   7.688  11.948  10.609
91275SOL    HW275723   7.596  11.899  10.719
91276SOL     OW75724  10.293   4.891   8.856
91276SOL    HW175725  10.345   4.912   8.934
91276SOL    HW275726  10.249   4.973   8.833
91277SOL     OW75727   3.703   6.719   7.757
91277SOL    HW175728   3.791   6.717   7.794
91277SOL    HW275729   3.708   6.665   7.679
91278SOL     OW75730  14.036   5.666  14.621
91278SOL    HW175731  14.024   5.741  14.679
91278SOL    HW275732  13.952   5.620  14.624
91279SOL     OW75733   6.929   1.306  13.362
91279SOL    HW175734   6.841   1.337  13.342
91279SOL    HW275735   6.958   1.359  13.436
91280SOL     OW75736   3.007   1.686  12.729
91280SOL    HW175737   2.927   1.647  12.695
91280SOL    HW275738   3.077   1.635  12.687
91281SOL     OW75739  11.523   7.001   5.536
91281SOL    HW175740  11.502   7.034   5.448
91281SOL    HW275741  11.440   6.964   5.567
91282SOL     OW75742   0.319   5.177   2.450
91282SOL    HW175743   0.248   5.119   2.477
91282SOL    HW275744   0.274   5.254   2.415
91283SOL     OW75745   5.558  12.279   3.088
91283SOL    HW175746   5.466  12.263   3.107
91283SOL    HW275747   5.597  12.191   3.084
91284SOL     OW75748   8.556  14.305   7.069
91284SOL    HW175749   8.620  14.324   7.137
91284SOL    HW275750   8.478  14.278   7.117
91285SOL     OW75751   4.966  10.656   5.457
91285SOL    HW175752   5.043  10.613   5.421
91285SOL    HW275753   4.910  10.674   5.380
91286SOL     OW75754   0.522  14.676   7.557
91286SOL    HW175755   0.465  14.629   7.617
91286SOL    HW275756   0.606  14.681   7.602
91287SOL     OW75757   0.652   0.086   2.049
91287SOL    HW175758   0.654  14.878   2.018
91287SOL    HW275759   0.578   0.089   2.110
91288SOL     OW75760   7.539   9.632  14.440
91288SOL    HW175761   7.465   9.659  14.494
91288SOL    HW275762   7.506   9.558  14.390
91289SOL     OW75763   0.949  13.956  13.134
91289SOL    HW175764   1.012  13.995  13.072
91289SOL    HW275765   0.966  14.001  13.217
91290SOL     OW75766   0.594   6.808   5.189
91290SOL    HW175767   0.546   6.890   5.181
91290SOL    HW275768   0.609   6.780   5.098
91291SOL     OW75769   3.419   1.708  14.080
91291SOL    HW175770   3.475   1.771  14.125
91291SOL    HW275771   3.395   1.751  13.998
91292SOL     OW75772   5.013  10.450   1.289
91292SOL    HW175773   4.986  10.478   1.376
91292SOL    HW275774   5.107  10.469   1.285
91293SOL     OW75775  12.858   9.572   0.221
91293SOL    HW175776  12.788   9.598   0.161
91293SOL    HW275777  12.918   9.647   0.222
91294SOL     OW75778   3.767  10.384  13.371
91294SOL    HW175779   3.847  10.358  13.325
91294SOL    HW275780   3.793  10.389  13.463
91295SOL     OW75781   0.248  10.281  14.014
91295SOL    HW175782   0.275  10.247  14.100
91295SOL    HW275783   0.200  10.209  13.974
91296SOL     OW75784   2.372  13.215  12.101
91296SOL    HW175785   2.363  13.166  12.182
91296SOL    HW275786   2.285  13.216  12.063
91297SOL     OW75787   3.506   2.490  11.564
91297SOL    HW175788   3.509   2.578  11.527
91297SOL    HW275789   3.417   2.459  11.544
91298SOL     OW75790   9.781  13.146   8.517
91298SOL    HW175791   9.849  13.159   8.451
91298SOL    HW275792   9.828  13.106   8.591
91299SOL     OW75793  13.488  14.148   9.736
91299SOL    HW175794  13.407  14.194   9.712
91299SOL    HW275795  13.558  14.209   9.712
91300SOL     OW75796   6.332   1.472   5.423
91300SOL    HW175797   6.321   1.418   5.344
91300SOL    HW275798   6.256   1.530   5.422
91301SOL     OW75799   5.859   0.990  14.439
91301SOL    HW175800   5.939   0.984  14.386
91301SOL    HW275801   5.800   0.925  14.401
91302SOL     OW75802   6.130   4.343   5.294
91302SOL    HW175803   6.094   4.357   5.207
91302SOL    HW275804   6.178   4.424   5.313
91303SOL     OW75805  11.632   4.874  10.499
91303SOL    HW175806  11.717   4.886  10.456
91303SOL    HW275807  11.573   4.849  10.429
91304SOL     OW75808  14.360   6.937   5.088
91304SOL    HW175809  14.349   6.943   4.993
91304SOL    HW275810  14.389   7.025   5.114
91305SOL     OW75811  12.709   0.542  11.260
91305SOL    HW175812  12.671   0.574  11.342
91305SOL    HW275813  12.636   0.500  11.214
91306SOL     OW75814   1.789   4.742  10.901
91306SOL    HW175815   1.730   4.667  10.901
91306SOL    HW275816   1.791   4.771  10.810
91307SOL     OW75817   3.585   4.916   5.225
91307SOL    HW175818   3.499   4.875   5.229
91307SOL    HW275819   3.607   4.937   5.316
91308SOL     OW75820   4.449  10.300   4.588
91308SOL    HW175821   4.468  10.391   4.568
91308SOL    HW275822   4.503  10.250   4.527
91309SOL     OW75823   7.801   1.801   0.897
91309SOL    HW175824   7.885   1.839   0.870
91309SOL    HW275825   7.763   1.766   0.816
91310SOL     OW75826   3.038   3.037   9.792
91310SOL    HW175827   2.998   3.110   9.840
91310SOL    HW275828   3.132   3.049   9.805
91311SOL     OW75829  10.149   0.719   1.846
91311SOL    HW175830  10.182   0.692   1.760
91311SOL    HW275831  10.115   0.807   1.832
91312SOL     OW75832  13.840  14.709   3.897
91312SOL    HW175833  13.761  14.738   3.944
91312SOL    HW275834  13.837  14.614   3.902
91313SOL     OW75835   2.779  13.944   7.527
91313SOL    HW175836   2.727  13.874   7.567
91313SOL    HW275837   2.868  13.928   7.559
91314SOL     OW75838   3.238  14.559   8.550
91314SOL    HW175839   3.244  14.469   8.516
91314SOL    HW275840   3.252  14.550   8.644
91315SOL     OW75841   5.574   6.018  10.027
91315SOL    HW175842   5.517   5.941  10.017
91315SOL    HW275843   5.575   6.058   9.940
91316SOL     OW75844   6.952   4.549   0.071
91316SOL    HW175845   7.034   4.530   0.025
91316SOL    HW275846   6.939   4.473   0.129
91317SOL     OW75847  10.338   1.858   2.245
91317SOL    HW175848  10.263   1.871   2.303
91317SOL    HW275849  10.374   1.946   2.232
91318SOL     OW75850   4.221  12.922  14.458
91318SOL    HW175851   4.225  12.832  14.427
91318SOL    HW275852   4.291  12.928  14.524
91319SOL     OW75853   8.369   6.490   3.795
91319SOL    HW175854   8.378   6.564   3.735
91319SOL    HW275855   8.443   6.432   3.774
91320SOL     OW75856   8.645  12.582   3.546
91320SOL    HW175857   8.696  12.593   3.626
91320SOL    HW275858   8.594  12.502   3.560
91321SOL     OW75859   4.545   1.337   1.614
91321SOL    HW175860   4.472   1.386   1.651
91321SOL    HW275861   4.516   1.245   1.616
91322SOL     OW75862   8.465   1.375   1.687
91322SOL    HW175863   8.418   1.396   1.768
91322SOL    HW275864   8.433   1.438   1.623
91323SOL     OW75865   9.859   8.637   2.100
91323SOL    HW175866   9.777   8.625   2.149
91323SOL    HW275867   9.845   8.591   2.018
91324SOL     OW75868   4.102   5.834  14.116
91324SOL    HW175869   4.182   5.800  14.075
91324SOL    HW275870   4.072   5.763  14.173
91325SOL     OW75871   9.172  13.964   6.827
91325SOL    HW175872   9.085  13.962   6.788
91325SOL    HW275873   9.212  14.043   6.792
91326SOL     OW75874   6.606  10.668   3.372
91326SOL    HW175875   6.519  10.676   3.334
91326SOL    HW275876   6.655  10.741   3.334
91327SOL     OW75877  14.497  13.747   9.839
91327SOL    HW175878  14.435  13.677   9.859
91327SOL    HW275879  14.483  13.766   9.746
91328SOL     OW75880  10.018   2.842   1.420
91328SOL    HW175881   9.967   2.897   1.479
91328SOL    HW275882   9.957   2.774   1.391
91329SOL     OW75883  13.809  14.619   7.713
91329SOL    HW175884  13.857  14.559   7.770
91329SOL    HW275885  13.865  14.628   7.636
91330SOL     OW75886   6.793   3.116  13.194
91330SOL    HW175887   6.773   3.176  13.265
91330SOL    HW275888   6.795   3.030  13.234
91331SOL     OW75889  13.877   0.024   8.614
91331SOL    HW175890  13.963   0.064   8.602
91331SOL    HW275891  13.892  14.813   8.598
91332SOL     OW75892  13.692   5.143   3.353
91332SOL    HW175893  13.659   5.223   3.314
91332SOL    HW275894  13.779   5.166   3.386
91333SOL     OW75895  11.757   6.241   5.821
91333SOL    HW175896  11.852   6.237   5.827
91333SOL    HW275897  11.731   6.158   5.781
91334SOL     OW75898   7.402  13.135   3.441
91334SOL    HW175899   7.455  13.102   3.369
91334SOL    HW275900   7.312  13.129   3.410
91335SOL     OW75901   1.484   3.368  14.614
91335SOL    HW175902   1.535   3.290  14.595
91335SOL    HW275903   1.550   3.436  14.629
91336SOL     OW75904   4.426   5.345   1.207
91336SOL    HW175905   4.416   5.434   1.239
91336SOL    HW275906   4.517   5.340   1.176
91337SOL     OW75907   9.843   1.781   3.358
91337SOL    HW175908   9.910   1.730   3.312
91337SOL    HW275909   9.798   1.830   3.288
91338SOL     OW75910  14.680   7.885   8.314
91338SOL    HW175911  14.586   7.884   8.332
91338SOL    HW275912  14.691   7.953   8.248
91339SOL     OW75913  14.291  11.454   7.792
91339SOL    HW175914  14.367  11.477   7.739
91339SOL    HW275915  14.295  11.512   7.867
91340SOL     OW75916  11.700  12.977   7.284
91340SOL    HW175917  11.755  12.943   7.213
91340SOL    HW275918  11.728  12.928   7.361
91341SOL     OW75919   1.024  14.652   9.142
91341SOL    HW175920   1.057  14.651   9.052
91341SOL    HW275921   1.000  14.743   9.158
91342SOL     OW75922   5.118  14.134  14.687
91342SOL    HW175923   5.073  14.055  14.656
91342SOL    HW275924   5.158  14.108  14.770
91343SOL     OW75925   4.781   6.483   0.170
91343SOL    HW175926   4.773   6.567   0.125
91343SOL    HW275927   4.837   6.501   0.245
91344SOL     OW75928  10.546   0.291   3.911
91344SOL    HW175929  10.599   0.354   3.960
91344SOL    HW275930  10.600   0.268   3.835
91345SOL     OW75931   8.261   6.512  12.696
91345SOL    HW175932   8.290   6.440  12.640
91345SOL    HW275933   8.195   6.474  12.753
91346SOL     OW75934   1.297  14.071  14.267
91346SOL    HW175935   1.333  13.990  14.304
91346SOL    HW275936   1.352  14.089  14.191
91347SOL     OW75937  10.394  11.058   7.255
91347SOL    HW175938  10.416  10.973   7.218
91347SOL    HW275939  10.476  11.089   7.294
91348SOL     OW75940   1.117   2.737   8.214
91348SOL    HW175941   1.045   2.675   8.227
91348SOL    HW275942   1.073   2.822   8.205
91349SOL     OW75943   2.401  10.659   9.560
91349SOL    HW175944   2.413  10.568   9.588
91349SOL    HW275945   2.416  10.710   9.640
91350SOL     OW75946   6.528   1.821   4.127
91350SOL    HW175947   6.484   1.804   4.044
91350SOL    HW275948   6.459   1.812   4.193
91351SOL     OW75949   8.036   6.149   4.557
91351SOL    HW175950   8.094   6.102   4.617
91351SOL    HW275951   8.092   6.172   4.483
91352SOL     OW75952   2.862   1.110   7.316
91352SOL    HW175953   2.780   1.131   7.361
91352SOL    HW275954   2.869   1.177   7.248
91353SOL     OW75955  10.018   7.816  14.674
91353SOL    HW175956  10.109   7.839  14.656
91353SOL    HW275957   9.976   7.816  14.588
91354SOL     OW75958   3.750   8.463  10.687
91354SOL    HW175959   3.736   8.453  10.782
91354SOL    HW275960   3.845   8.465  10.677
91355SOL     OW75961   2.917  13.115   7.447
91355SOL    HW175962   2.967  13.195   7.429
91355SOL    HW275963   2.921  13.106   7.543
91356SOL     OW75964   0.490   6.350   9.445
91356SOL    HW175965   0.477   6.398   9.526
91356SOL    HW275966   0.404   6.351   9.402
91357SOL     OW75967  10.813   6.693  10.730
91357SOL    HW175968  10.725   6.668  10.704
91357SOL    HW275969  10.804   6.720  10.822
91358SOL     OW75970  13.117   1.438   0.492
91358SOL    HW175971  13.203   1.450   0.533
91358SOL    HW275972  13.090   1.527   0.468
91359SOL     OW75973  10.023  14.448   3.860
91359SOL    HW175974   9.951  14.447   3.922
91359SOL    HW275975  10.091  14.394   3.901
91360SOL     OW75976   1.077   6.384   7.760
91360SOL    HW175977   1.125   6.448   7.707
91360SOL    HW275978   1.112   6.395   7.848
91361SOL     OW75979  12.470   2.040  10.955
91361SOL    HW175980  12.415   2.114  10.930
91361SOL    HW275981  12.436   1.966  10.905
91362SOL     OW75982   7.351  13.506  11.198
91362SOL    HW175983   7.337  13.501  11.293
91362SOL    HW275984   7.262  13.505  11.162
91363SOL     OW75985   8.072  13.078   2.162
91363SOL    HW175986   8.160  13.070   2.200
91363SOL    HW275987   8.014  13.089   2.237
91364SOL     OW75988   9.139  11.480   1.696
91364SOL    HW175989   9.232  11.482   1.673
91364SOL    HW275990   9.126  11.394   1.735
91365SOL     OW75991  12.489   9.794   4.940
91365SOL    HW175992  12.536   9.774   4.860
91365SOL    HW275993  12.542   9.861   4.983
91366SOL     OW75994   5.789  13.830   2.063
91366SOL    HW175995   5.870  13.828   2.114
91366SOL    HW275996   5.723  13.863   2.125
91367SOL     OW75997   3.244   4.080   7.191
91367SOL    HW175998   3.242   4.002   7.246
91367SOL    HW275999   3.335   4.111   7.197
91368SOL     OW76000   9.301  11.288   4.236
91368SOL    HW176001   9.288  11.339   4.316
91368SOL    HW276002   9.237  11.323   4.174
91369SOL     OW76003   9.854  14.175   6.090
91369SOL    HW176004   9.880  14.243   6.029
91369SOL    HW276005   9.856  14.094   6.038
91370SOL     OW76006  12.761  10.541  12.351
91370SOL    HW176007  12.783  10.614  12.293
91370SOL    HW276008  12.845  10.498  12.367
91371SOL     OW76009  12.547   9.415   4.957
91371SOL    HW176010  12.596   9.497   4.955
91371SOL    HW276011  12.585   9.365   5.029
91372SOL     OW76012  13.713   6.316   3.141
91372SOL    HW176013  13.794   6.272   3.167
91372SOL    HW276014  13.739   6.406   3.123
91373SOL     OW76015   3.259   2.576  12.854
91373SOL    HW176016   3.236   2.483  12.856
91373SOL    HW276017   3.266   2.601  12.946
91374SOL     OW76018   5.771  13.583   0.004
91374SOL    HW176019   5.773  13.487   0.008
91374SOL    HW276020   5.848  13.610   0.052
91375SOL     OW76021   2.441  13.688   3.703
91375SOL    HW176022   2.384  13.645   3.640
91375SOL    HW276023   2.410  13.657   3.789
91376SOL     OW76024   7.396   1.097   8.162
91376SOL    HW176025   7.304   1.120   8.167
91376SOL    HW276026   7.425   1.132   8.077
91377SOL     OW76027   1.157   9.274  13.007
91377SOL    HW176028   1.147   9.240  13.096
91377SOL    HW276029   1.086   9.338  12.998
91378SOL     OW76030   7.017  11.749   1.738
91378SOL    HW176031   7.075  11.749   1.814
91378SOL    HW276032   7.017  11.658   1.708
91379SOL     OW76033   1.281  10.301   1.216
91379SOL    HW176034   1.270  10.215   1.257
91379SOL    HW276035   1.212  10.305   1.150
91380SOL     OW76036   2.107  10.775  11.102
91380SOL    HW176037   2.080  10.785  11.011
91380SOL    HW276038   2.194  10.735  11.097
91381SOL     OW76039   5.569   8.837   8.292
91381SOL    HW176040   5.617   8.910   8.253
91381SOL    HW276041   5.560   8.774   8.220
91382SOL     OW76042  12.763   4.416   7.224
91382SOL    HW176043  12.857   4.428   7.241
91382SOL    HW276044  12.727   4.504   7.224
91383SOL     OW76045  10.464   0.799   7.966
91383SOL    HW176046  10.411   0.752   8.031
91383SOL    HW276047  10.440   0.758   7.883
91384SOL     OW76048  14.843   6.599  12.850
91384SOL    HW176049  14.783   6.672  12.865
91384SOL    HW276050  14.862   6.602  12.756
91385SOL     OW76051   2.735   0.967  13.153
91385SOL    HW176052   2.711   0.897  13.214
91385SOL    HW276053   2.703   1.047  13.195
91386SOL     OW76054  13.817  10.706   6.838
91386SOL    HW176055  13.738  10.754   6.862
91386SOL    HW276056  13.796  10.615   6.856
91387SOL     OW76057   5.088   2.970   9.078
91387SOL    HW176058   5.162   2.985   9.019
91387SOL    HW276059   5.078   3.053   9.125
91388SOL     OW76060   2.010   9.532  12.420
91388SOL    HW176061   2.072   9.475  12.374
91388SOL    HW276062   1.927   9.483  12.420
91389SOL     OW76063  14.255   8.614   7.646
91389SOL    HW176064  14.349   8.631   7.651
91389SOL    HW276065  14.221   8.685   7.591
91390SOL     OW76066  12.326   2.540   8.262
91390SOL    HW176067  12.264   2.592   8.312
91390SOL    HW276068  12.302   2.554   8.171
91391SOL     OW76069  14.504  10.016   4.852
91391SOL    HW176070  14.410  10.025   4.864
91391SOL    HW276071  14.526  10.080   4.784
91392SOL     OW76072   7.852  11.510  11.322
91392SOL    HW176073   7.908  11.581  11.292
91392SOL    HW276074   7.890  11.431  11.284
91393SOL     OW76075  11.126   5.412   1.790
91393SOL    HW176076  11.184   5.488   1.799
91393SOL    HW276077  11.125   5.394   1.696
91394SOL     OW76078   4.834   3.197   5.012
91394SOL    HW176079   4.921   3.188   5.051
91394SOL    HW276080   4.817   3.291   5.014
91395SOL     OW76081   5.594   5.191   5.696
91395SOL    HW176082   5.518   5.247   5.684
91395SOL    HW276083   5.669   5.248   5.680
91396SOL     OW76084  10.185   1.362   7.226
91396SOL    HW176085  10.188   1.402   7.139
91396SOL    HW276086  10.230   1.279   7.216
91397SOL     OW76087   7.987   6.613   4.844
91397SOL    HW176088   8.079   6.637   4.829
91397SOL    HW276089   7.973   6.537   4.788
91398SOL     OW76090   6.588  13.238   8.698
91398SOL    HW176091   6.583  13.273   8.786
91398SOL    HW276092   6.509  13.270   8.654
91399SOL     OW76093   8.531  14.776  12.618
91399SOL    HW176094   8.445  14.738  12.636
91399SOL    HW276095   8.512  14.863  12.584
91400SOL     OW76096  13.494  13.217   3.478
91400SOL    HW176097  13.533  13.163   3.547
91400SOL    HW276098  13.399  13.212   3.495
91401SOL     OW76099   4.845  11.648   7.860
91401SOL    HW176100   4.893  11.601   7.929
91401SOL    HW276101   4.912  11.674   7.797
91402SOL     OW76102  12.031   1.919  10.787
91402SOL    HW176103  11.986   1.837  10.767
91402SOL    HW276104  12.032   1.924  10.882
91403SOL     OW76105   6.402  14.052  14.794
91403SOL    HW176106   6.384  13.959  14.778
91403SOL    HW276107   6.437  14.054   0.001
91404SOL     OW76108  14.724   5.387   4.962
91404SOL    HW176109  14.725   5.463   5.020
91404SOL    HW276110  14.685   5.317   5.014
91405SOL     OW76111   4.397   0.516  12.739
91405SOL    HW176112   4.378   0.559  12.655
91405SOL    HW276113   4.355   0.430  12.732
91406SOL     OW76114   3.272   7.709   2.476
91406SOL    HW176115   3.191   7.736   2.433
91406SOL    HW276116   3.336   7.776   2.452
91407SOL     OW76117   7.654   8.811  13.590
91407SOL    HW176118   7.642   8.905  13.604
91407SOL    HW276119   7.749   8.799  13.593
91408SOL     OW76120   4.314   7.599  13.984
91408SOL    HW176121   4.332   7.572  13.894
91408SOL    HW276122   4.277   7.521  14.026
91409SOL     OW76123   3.692   5.525   5.669
91409SOL    HW176124   3.770   5.477   5.640
91409SOL    HW276125   3.714   5.558   5.756
91410SOL     OW76126   2.817   9.773   1.100
91410SOL    HW176127   2.798   9.866   1.089
91410SOL    HW276128   2.822   9.738   1.011
91411SOL     OW76129  12.690   8.559   1.999
91411SOL    HW176130  12.742   8.593   2.072
91411SOL    HW276131  12.753   8.552   1.927
91412SOL     OW76132   1.154   5.489   1.134
91412SOL    HW176133   1.125   5.496   1.043
91412SOL    HW276134   1.203   5.407   1.137
91413SOL     OW76135   9.546   7.865  13.181
91413SOL    HW176136   9.577   7.878  13.271
91413SOL    HW276137   9.459   7.905  13.180
91414SOL     OW76138   1.230   0.803   8.112
91414SOL    HW176139   1.147   0.796   8.159
91414SOL    HW276140   1.208   0.780   8.022
91415SOL     OW76141  13.139   0.462   7.922
91415SOL    HW176142  13.049   0.442   7.895
91415SOL    HW276143  13.194   0.409   7.864
91416SOL     OW76144  11.542   9.419   9.508
91416SOL    HW176145  11.537   9.358   9.581
91416SOL    HW276146  11.464   9.474   9.518
91417SOL     OW76147   4.957   8.177   9.727
91417SOL    HW176148   4.963   8.186   9.632
91417SOL    HW276149   5.036   8.129   9.751
91418SOL     OW76150  14.848  12.905   2.592
91418SOL    HW176151  14.840  12.840   2.661
91418SOL    HW276152  14.760  12.912   2.556
91419SOL     OW76153  10.743   5.295   5.639
91419SOL    HW176154  10.784   5.380   5.624
91419SOL    HW276155  10.703   5.273   5.555
91420SOL     OW76156   8.592   8.772   3.200
91420SOL    HW176157   8.498   8.760   3.210
91420SOL    HW276158   8.603   8.800   3.109
91421SOL     OW76159   6.530  12.116   4.839
91421SOL    HW176160   6.550  12.094   4.930
91421SOL    HW276161   6.612  12.149   4.803
91422SOL     OW76162  12.016   6.739  11.331
91422SOL    HW176163  11.996   6.647  11.350
91422SOL    HW276164  12.108   6.737  11.303
91423SOL     OW76165   0.894  12.789   1.440
91423SOL    HW176166   0.967  12.743   1.399
91423SOL    HW276167   0.921  12.803   1.530
91424SOL     OW76168   8.764  12.347   6.025
91424SOL    HW176169   8.685  12.345   6.078
91424SOL    HW276170   8.835  12.330   6.086
91425SOL     OW76171   7.532   8.292   6.643
91425SOL    HW176172   7.518   8.204   6.607
91425SOL    HW276173   7.454   8.341   6.619
91426SOL     OW76174   1.621   8.947  11.544
91426SOL    HW176175   1.581   8.960  11.630
91426SOL    HW276176   1.700   9.001  11.546
91427SOL     OW76177  13.108  12.190   7.044
91427SOL    HW176178  13.121  12.274   7.089
91427SOL    HW276179  13.183  12.183   6.984
91428SOL     OW76180   1.544   5.677  13.164
91428SOL    HW176181   1.529   5.632  13.081
91428SOL    HW276182   1.475   5.644  13.221
91429SOL     OW76183   1.659  11.230   3.200
91429SOL    HW176184   1.706  11.243   3.117
91429SOL    HW276185   1.721  11.259   3.267
91430SOL     OW76186  14.674   2.052  10.478
91430SOL    HW176187  14.616   2.096  10.416
91430SOL    HW276188  14.621   1.979  10.512
91431SOL     OW76189   4.461  11.217  12.783
91431SOL    HW176190   4.492  11.306  12.768
91431SOL    HW276191   4.429  11.218  12.873
91432SOL     OW76192   3.762  14.128   3.372
91432SOL    HW176193   3.713  14.054   3.407
91432SOL    HW276194   3.697  14.198   3.362
91433SOL     OW76195   6.371  12.976   9.756
91433SOL    HW176196   6.311  12.913   9.715
91433SOL    HW276197   6.443  12.984   9.694
91434SOL     OW76198   0.660   3.674  10.469
91434SOL    HW176199   0.673   3.659  10.375
91434SOL    HW276200   0.651   3.769  10.477
91435SOL     OW76201   4.733  13.923   2.505
91435SOL    HW176202   4.739  13.849   2.445
91435SOL    HW276203   4.805  13.910   2.567
91436SOL     OW76204   4.685  10.919  14.059
91436SOL    HW176205   4.648  10.840  14.099
91436SOL    HW276206   4.777  10.900  14.046
91437SOL     OW76207  13.448  11.789   8.075
91437SOL    HW176208  13.449  11.847   7.999
91437SOL    HW276209  13.360  11.798   8.112
91438SOL     OW76210   5.686   8.426   5.526
91438SOL    HW176211   5.605   8.400   5.570
91438SOL    HW276212   5.730   8.483   5.588
91439SOL     OW76213   9.416   1.292   0.497
91439SOL    HW176214   9.489   1.264   0.553
91439SOL    HW276215   9.453   1.294   0.409
91440SOL     OW76216   6.110   1.332   0.553
91440SOL    HW176217   6.157   1.257   0.516
91440SOL    HW276218   6.179   1.392   0.581
91441SOL     OW76219  11.110   1.803   6.216
91441SOL    HW176220  11.094   1.802   6.121
91441SOL    HW276221  11.095   1.712   6.243
91442SOL     OW76222   8.104  13.464   6.834
91442SOL    HW176223   8.151  13.392   6.792
91442SOL    HW276224   8.053  13.422   6.903
91443SOL     OW76225   7.763   5.561   1.958
91443SOL    HW176226   7.715   5.558   2.041
91443SOL    HW276227   7.716   5.626   1.906
91444SOL     OW76228  14.540   9.335  13.862
91444SOL    HW176229  14.455   9.371  13.836
91444SOL    HW276230  14.571   9.396  13.929
91445SOL     OW76231   2.347   2.013   4.284
91445SOL    HW176232   2.384   1.983   4.367
91445SOL    HW276233   2.416   1.999   4.220
91446SOL     OW76234   8.639   7.030  14.414
91446SOL    HW176235   8.599   6.990  14.336
91446SOL    HW276236   8.720   6.981  14.427
91447SOL     OW76237  10.732  12.616   8.687
91447SOL    HW176238  10.745  12.626   8.593
91447SOL    HW276239  10.772  12.694   8.725
91448SOL     OW76240   7.084   1.950  10.509
91448SOL    HW176241   7.023   1.880  10.533
91448SOL    HW276242   7.078   1.956  10.414
91449SOL     OW76243  10.550   0.716  14.587
91449SOL    HW176244  10.511   0.629  14.595
91449SOL    HW276245  10.494   0.773  14.640
91450SOL     OW76246  12.838   5.344   8.905
91450SOL    HW176247  12.867   5.305   8.822
91450SOL    HW276248  12.838   5.438   8.888
91451SOL     OW76249   8.692   1.755   9.534
91451SOL    HW176250   8.728   1.844   9.532
91451SOL    HW276251   8.747   1.708   9.597
91452SOL     OW76252   0.076  13.113   2.039
91452SOL    HW176253   0.089  13.168   1.961
91452SOL    HW276254   0.056  13.026   2.004
91453SOL     OW76255   3.518  13.314   7.936
91453SOL    HW176256   3.533  13.298   8.029
91453SOL    HW276257   3.533  13.408   7.925
91454SOL     OW76258   0.379   0.453   5.939
91454SOL    HW176259   0.371   0.548   5.937
91454SOL    HW276260   0.302   0.421   5.891
91455SOL     OW76261  10.915   9.357   2.963
91455SOL    HW176262  10.829   9.317   2.965
91455SOL    HW276263  10.948   9.341   2.875
91456SOL     OW76264  14.708  13.539  10.518
91456SOL    HW176265  14.716  13.621  10.471
91456SOL    HW276266  14.773  13.544  10.588
91457SOL     OW76267   4.447  14.446   7.477
91457SOL    HW176268   4.501  14.524   7.490
91457SOL    HW276269   4.485  14.381   7.536
91458SOL     OW76270  13.276   7.137   5.780
91458SOL    HW176271  13.218   7.119   5.706
91458SOL    HW276272  13.264   7.230   5.798
91459SOL     OW76273  10.075  12.359  14.292
91459SOL    HW176274  10.076  12.282  14.349
91459SOL    HW276275  10.167  12.376  14.272
91460SOL     OW76276   5.938  12.019   7.319
91460SOL    HW176277   5.891  12.100   7.298
91460SOL    HW276278   5.916  12.001   7.411
91461SOL     OW76279  13.147   5.255   0.981
91461SOL    HW176280  13.175   5.166   1.004
91461SOL    HW276281  13.066   5.242   0.932
91462SOL     OW76282   9.498  14.013   6.997
91462SOL    HW176283   9.555  14.085   7.023
91462SOL    HW276284   9.466  14.037   6.910
91463SOL     OW76285  14.607   1.936   1.749
91463SOL    HW176286  14.568   1.984   1.822
91463SOL    HW276287  14.534   1.918   1.691
91464SOL     OW76288   0.066   0.072   8.503
91464SOL    HW176289   0.097  14.864   8.496
91464SOL    HW276290  14.873   0.076   8.444
91465SOL     OW76291   3.532  10.480  11.185
91465SOL    HW176292   3.536  10.485  11.280
91465SOL    HW276293   3.621  10.455  11.158
91466SOL     OW76294   4.125   8.093   4.150
91466SOL    HW176295   4.171   8.013   4.124
91466SOL    HW276296   4.128   8.091   4.246
91467SOL     OW76297  10.856   7.283   3.430
91467SOL    HW176298  10.893   7.357   3.479
91467SOL    HW276299  10.920   7.212   3.442
91468SOL     OW76300   5.394   3.558   0.713
91468SOL    HW176301   5.337   3.523   0.782
91468SOL    HW276302   5.337   3.610   0.657
91469SOL     OW76303  14.677   2.699   3.664
91469SOL    HW176304  14.745   2.678   3.728
91469SOL    HW276305  14.595   2.676   3.708
91470SOL     OW76306   8.818  11.127  12.012
91470SOL    HW176307   8.732  11.133  11.971
91470SOL    HW276308   8.865  11.060  11.962
91471SOL     OW76309   0.964   2.454   1.292
91471SOL    HW176310   0.969   2.480   1.200
91471SOL    HW276311   1.054   2.433   1.316
91472SOL     OW76312   4.222   8.161   1.513
91472SOL    HW176313   4.202   8.128   1.600
91472SOL    HW276314   4.155   8.122   1.456
91473SOL     OW76315   5.305   7.236   1.892
91473SOL    HW176316   5.299   7.209   1.800
91473SOL    HW276317   5.360   7.169   1.933
91474SOL     OW76318   6.517   7.295   2.783
91474SOL    HW176319   6.470   7.295   2.699
91474SOL    HW276320   6.608   7.313   2.759
91475SOL     OW76321  11.048  12.264  14.146
91475SOL    HW176322  10.994  12.250  14.223
91475SOL    HW276323  11.137  12.272  14.180
91476SOL     OW76324   8.921   0.049   9.725
91476SOL    HW176325   8.991   0.103   9.689
91476SOL    HW276326   8.848   0.061   9.664
91477SOL     OW76327   1.662   6.608  12.544
91477SOL    HW176328   1.649   6.637  12.454
91477SOL    HW276329   1.688   6.687  12.592
91478SOL     OW76330   9.573   7.423  11.823
91478SOL    HW176331   9.542   7.413  11.732
91478SOL    HW276332   9.599   7.514  11.829
91479SOL     OW76333   3.346   1.953   3.617
91479SOL    HW176334   3.326   1.916   3.531
91479SOL    HW276335   3.385   1.881   3.666
91480SOL     OW76336   2.608  13.254   3.621
91480SOL    HW176337   2.624  13.342   3.655
91480SOL    HW276338   2.519  13.258   3.586
91481SOL     OW76339   2.844   0.907   7.670
91481SOL    HW176340   2.826   0.825   7.623
91481SOL    HW276341   2.923   0.890   7.720
91482SOL     OW76342   4.629   6.451  10.385
91482SOL    HW176343   4.722   6.444  10.363
91482SOL    HW276344   4.607   6.367  10.424
91483SOL     OW76345   9.774   2.046  11.706
91483SOL    HW176346   9.740   1.974  11.758
91483SOL    HW276347   9.706   2.113  11.710
91484SOL     OW76348   7.502   4.105  10.131
91484SOL    HW176349   7.536   4.077  10.046
91484SOL    HW276350   7.453   4.029  10.164
91485SOL     OW76351   0.394   5.394  13.399
91485SOL    HW176352   0.394   5.447  13.479
91485SOL    HW276353   0.387   5.457  13.328
91486SOL     OW76354   9.388   4.097   2.606
91486SOL    HW176355   9.443   4.141   2.541
91486SOL    HW276356   9.311   4.069   2.557
91487SOL     OW76357   5.138   1.345   0.605
91487SOL    HW176358   5.211   1.374   0.660
91487SOL    HW276359   5.174   1.275   0.552
91488SOL     OW76360   0.047   3.688   4.116
91488SOL    HW176361   0.090   3.604   4.098
91488SOL    HW276362   0.119   3.749   4.130
91489SOL     OW76363  14.878   1.410  10.152
91489SOL    HW176364  14.789   1.445  10.164
91489SOL    HW276365   0.053   1.483  10.176
91490SOL     OW76366  10.814   6.682  13.812
91490SOL    HW176367  10.817   6.764  13.861
91490SOL    HW276368  10.809   6.613  13.879
91491SOL     OW76369   6.303  12.391  14.800
91491SOL    HW176370   6.249  12.322  14.840
91491SOL    HW276371   6.347  12.347  14.727
91492SOL     OW76372  12.334   6.890  12.452
91492SOL    HW176373  12.291   6.941  12.384
91492SOL    HW276374  12.383   6.954  12.503
91493SOL     OW76375  11.917   5.115  12.742
91493SOL    HW176376  12.007   5.132  12.714
91493SOL    HW276377  11.918   5.127  12.836
91494SOL     OW76378  14.043   8.993  13.655
91494SOL    HW176379  14.028   8.917  13.712
91494SOL    HW276380  14.124   9.032  13.687
91495SOL     OW76381  13.125  14.725   2.311
91495SOL    HW176382  13.071  14.686   2.379
91495SOL    HW276383  13.098  14.682   2.230
91496SOL     OW76384  11.379  11.536  10.906
91496SOL    HW176385  11.402  11.590  10.830
91496SOL    HW276386  11.462  11.499  10.936
91497SOL     OW76387  14.718   2.614   1.912
91497SOL    HW176388  14.779   2.685   1.933
91497SOL    HW276389  14.684   2.585   1.996
91498SOL     OW76390   3.395   2.568   6.841
91498SOL    HW176391   3.431   2.543   6.756
91498SOL    HW276392   3.388   2.486   6.890
91499SOL     OW76393   4.009  14.651  11.292
91499SOL    HW176394   4.018  14.620  11.382
91499SOL    HW276395   3.916  14.641  11.272
91500SOL     OW76396  10.142   5.391  14.151
91500SOL    HW176397  10.199   5.454  14.195
91500SOL    HW276398  10.061   5.440  14.134
91501SOL     OW76399   7.617   5.081   6.147
91501SOL    HW176400   7.582   5.053   6.062
91501SOL    HW276401   7.670   5.007   6.175
91502SOL     OW76402  13.488   5.022   9.734
91502SOL    HW176403  13.574   5.031   9.775
91502SOL    HW276404  13.501   4.954   9.667
91503SOL     OW76405   8.366   6.626  13.581
91503SOL    HW176406   8.328   6.538  13.587
91503SOL    HW276407   8.356   6.649  13.488
91504SOL     OW76408   0.295  11.983  10.121
91504SOL    HW176409   0.389  11.981  10.137
91504SOL    HW276410   0.284  11.936  10.038
91505SOL     OW76411   6.304  12.305   1.991
91505SOL    HW176412   6.242  12.305   1.918
91505SOL    HW276413   6.252  12.332   2.066
91506SOL     OW76414   7.643  13.241  11.995
91506SOL    HW176415   7.655  13.292  11.915
91506SOL    HW276416   7.567  13.280  12.038
91507SOL     OW76417   1.701   1.986   6.467
91507SOL    HW176418   1.662   2.055   6.413
91507SOL    HW276419   1.773   1.952   6.413
91508SOL     OW76420   7.029  11.371   1.090
91508SOL    HW176421   6.971  11.386   1.165
91508SOL    HW276422   6.992  11.294   1.046
91509SOL     OW76423  12.991   5.146   5.232
91509SOL    HW176424  12.903   5.112   5.248
91509SOL    HW276425  13.035   5.075   5.185
91510SOL     OW76426   3.334   0.044   5.554
91510SOL    HW176427   3.317  14.832   5.559
91510SOL    HW276428   3.267   0.083   5.611
91511SOL     OW76429   3.805   9.267   8.774
91511SOL    HW176430   3.828   9.174   8.772
91511SOL    HW276431   3.742   9.274   8.846
91512SOL     OW76432   0.636  13.024   1.802
91512SOL    HW176433   0.661  12.971   1.877
91512SOL    HW276434   0.712  13.080   1.786
91513SOL     OW76435   2.084  11.431   7.421
91513SOL    HW176436   2.122  11.393   7.501
91513SOL    HW276437   1.989  11.425   7.435
91514SOL     OW76438   7.464   9.574   6.322
91514SOL    HW176439   7.381   9.599   6.282
91514SOL    HW276440   7.513   9.533   6.251
91515SOL     OW76441  12.358   8.329  13.031
91515SOL    HW176442  12.322   8.296  12.949
91515SOL    HW276443  12.283   8.371  13.074
91516SOL     OW76444   8.833  12.014   0.767
91516SOL    HW176445   8.923  12.047   0.776
91516SOL    HW276446   8.796  12.026   0.855
91517SOL     OW76447   8.404   8.811   2.493
91517SOL    HW176448   8.456   8.731   2.485
91517SOL    HW276449   8.457   8.879   2.451
91518SOL     OW76450  11.838  11.006  11.980
91518SOL    HW176451  11.805  11.039  11.897
91518SOL    HW276452  11.863  11.085  12.029
91519SOL     OW76453  11.839  13.809   1.632
91519SOL    HW176454  11.926  13.782   1.662
91519SOL    HW276455  11.855  13.859   1.552
91520SOL     OW76456   0.182   8.738   2.388
91520SOL    HW176457   0.266   8.700   2.362
91520SOL    HW276458   0.197   8.771   2.476
91521SOL     OW76459   9.258   6.912   5.783
91521SOL    HW176460   9.222   6.989   5.826
91521SOL    HW276461   9.353   6.927   5.782
91522SOL     OW76462  13.668   9.575   7.087
91522SOL    HW176463  13.579   9.544   7.069
91522SOL    HW276464  13.663   9.670   7.074
91523SOL     OW76465  10.052   8.564   8.679
91523SOL    HW176466  10.028   8.488   8.731
91523SOL    HW276467  10.061   8.530   8.590
91524SOL     OW76468   8.556   1.250   2.003
91524SOL    HW176469   8.622   1.308   1.967
91524SOL    HW276470   8.473   1.287   1.971
91525SOL     OW76471  12.030  14.660   4.796
91525SOL    HW176472  12.112  14.703   4.821
91525SOL    HW276473  12.011  14.601   4.869
91526SOL     OW76474  10.547   5.644  12.241
91526SOL    HW176475  10.547   5.549  12.244
91526SOL    HW276476  10.559   5.671  12.332
91527SOL     OW76477   5.026   4.507   4.272
91527SOL    HW176478   5.034   4.412   4.262
91527SOL    HW276479   5.052   4.524   4.362
91528SOL     OW76480  12.160   2.165   7.048
91528SOL    HW176481  12.121   2.252   7.052
91528SOL    HW276482  12.109   2.118   6.983
91529SOL     OW76483  11.496   4.648  12.553
91529SOL    HW176484  11.416   4.627  12.601
91529SOL    HW276485  11.484   4.738  12.524
91530SOL     OW76486   8.066  11.558  10.684
91530SOL    HW176487   7.981  11.564  10.727
91530SOL    HW276488   8.129  11.570  10.755
91531SOL     OW76489   7.614   0.606  13.166
91531SOL    HW176490   7.533   0.601  13.216
91531SOL    HW276491   7.670   0.665  13.217
91532SOL     OW76492   3.875   6.383   0.665
91532SOL    HW176493   3.817   6.343   0.730
91532SOL    HW276494   3.946   6.422   0.717
91533SOL     OW76495  12.200  14.826   5.972
91533SOL    HW176496  12.239  14.805   6.056
91533SOL    HW276497  12.143   0.019   5.990
91534SOL     OW76498   1.777   8.382   6.585
91534SOL    HW176499   1.718   8.308   6.583
91534SOL    HW276500   1.865   8.344   6.577
91535SOL     OW76501   9.121   5.687   8.502
91535SOL    HW176502   9.028   5.695   8.524
91535SOL    HW276503   9.141   5.766   8.453
91536SOL     OW76504   2.487   8.574   8.254
91536SOL    HW176505   2.473   8.616   8.339
91536SOL    HW276506   2.555   8.509   8.270
91537SOL     OW76507  13.279   9.620  13.144
91537SOL    HW176508  13.246   9.597  13.231
91537SOL    HW276509  13.356   9.564  13.132
91538SOL     OW76510   4.437   6.157  10.131
91538SOL    HW176511   4.386   6.144  10.212
91538SOL    HW276512   4.401   6.238  10.094
91539SOL     OW76513   6.716   9.833   1.311
91539SOL    HW176514   6.623   9.836   1.290
91539SOL    HW276515   6.730   9.910   1.367
91540SOL     OW76516   6.016   3.705  14.502
91540SOL    HW176517   5.956   3.734  14.571
91540SOL    HW276518   6.032   3.612  14.521
91541SOL     OW76519   2.740  11.042   0.172
91541SOL    HW176520   2.766  11.127   0.209
91541SOL    HW276521   2.699  11.065   0.088
91542SOL     OW76522   1.716   3.031   0.376
91542SOL    HW176523   1.627   2.999   0.361
91542SOL    HW276524   1.713   3.067   0.465
91543SOL     OW76525   3.204  13.437  11.744
91543SOL    HW176526   3.223  13.367  11.681
91543SOL    HW276527   3.145  13.396  11.807
91544SOL     OW76528   4.703  11.577  10.841
91544SOL    HW176529   4.720  11.496  10.793
91544SOL    HW276530   4.785  11.627  10.832
91545SOL     OW76531   0.184  13.908   1.748
91545SOL    HW176532   0.224  13.821   1.752
91545SOL    HW276533   0.108  13.901   1.806
91546SOL     OW76534  11.503   9.769   0.609
91546SOL    HW176535  11.571   9.727   0.556
91546SOL    HW276536  11.551   9.807   0.683
91547SOL     OW76537   6.439   9.841   7.869
91547SOL    HW176538   6.367   9.865   7.927
91547SOL    HW276539   6.472   9.758   7.904
91548SOL     OW76540   4.640  13.820   0.244
91548SOL    HW176541   4.616  13.766   0.168
91548SOL    HW276542   4.735  13.818   0.247
91549SOL     OW76543  13.354  12.042  13.322
91549SOL    HW176544  13.307  11.973  13.367
91549SOL    HW276545  13.427  12.064  13.380
91550SOL     OW76546  10.537   3.651   0.749
91550SOL    HW176547  10.479   3.693   0.812
91550SOL    HW276548  10.493   3.661   0.665
91551SOL     OW76549   3.052   7.140  10.217
91551SOL    HW176550   3.048   7.068  10.154
91551SOL    HW276551   3.145   7.157  10.229
91552SOL     OW76552   8.432   7.031  12.188
91552SOL    HW176553   8.486   6.983  12.125
91552SOL    HW276554   8.462   7.121  12.183
91553SOL     OW76555   0.639   2.348   1.131
91553SOL    HW176556   0.655   2.265   1.087
91553SOL    HW276557   0.631   2.412   1.061
91554SOL     OW76558   9.818   8.816   2.411
91554SOL    HW176559   9.870   8.828   2.491
91554SOL    HW276560   9.833   8.725   2.387
91555SOL     OW76561   0.719   3.994  11.502
91555SOL    HW176562   0.792   3.956  11.453
91555SOL    HW276563   0.746   3.987  11.594
91556SOL     OW76564   8.555   5.101   4.690
91556SOL    HW176565   8.546   5.190   4.655
91556SOL    HW276566   8.644   5.097   4.724
91557SOL     OW76567   0.988   5.371   0.218
91557SOL    HW176568   0.957   5.281   0.226
91557SOL    HW276569   1.052   5.379   0.289
91558SOL     OW76570  10.159   4.475  10.256
91558SOL    HW176571  10.213   4.551  10.231
91558SOL    HW276572  10.204   4.436  10.330
91559SOL     OW76573  12.023   3.678   2.200
91559SOL    HW176574  12.006   3.757   2.150
91559SOL    HW276575  12.034   3.610   2.133
91560SOL     OW76576   2.458   9.792   0.610
91560SOL    HW176577   2.520   9.823   0.676
91560SOL    HW276578   2.512   9.765   0.536
91561SOL     OW76579   4.181  12.234   4.713
91561SOL    HW176580   4.263  12.195   4.745
91561SOL    HW276581   4.145  12.169   4.653
91562SOL     OW76582  14.807   4.569   6.502
91562SOL    HW176583  14.784   4.525   6.421
91562SOL    HW276584  14.812   4.662   6.478
91563SOL     OW76585   4.563  10.092  12.894
91563SOL    HW176586   4.553  10.177  12.935
91563SOL    HW276587   4.506  10.034  12.944
91564SOL     OW76588   7.253   1.144   5.730
91564SOL    HW176589   7.306   1.198   5.788
91564SOL    HW276590   7.171   1.193   5.719
91565SOL     OW76591  13.194   6.222   8.285
91565SOL    HW176592  13.285   6.241   8.303
91565SOL    HW276593  13.188   6.221   8.189
91566SOL     OW76594  10.034  11.626   9.699
91566SOL    HW176595  10.056  11.622   9.792
91566SOL    HW276596   9.941  11.648   9.698
91567SOL     OW76597  11.972   5.303   9.375
91567SOL    HW176598  11.962   5.255   9.457
91567SOL    HW276599  12.049   5.266   9.334
91568SOL     OW76600   2.777   5.714   5.640
91568SOL    HW176601   2.815   5.644   5.693
91568SOL    HW276602   2.717   5.670   5.581
91569SOL     OW76603  13.612  10.381   6.213
91569SOL    HW176604  13.695  10.428   6.217
91569SOL    HW276605  13.583  10.377   6.305
91570SOL     OW76606   1.970   3.790   2.533
91570SOL    HW176607   1.985   3.702   2.497
91570SOL    HW276608   2.034   3.797   2.604
91571SOL     OW76609  11.287   5.515   2.865
91571SOL    HW176610  11.274   5.539   2.957
91571SOL    HW276611  11.381   5.520   2.852
91572SOL     OW76612  11.294  11.052   9.453
91572SOL    HW176613  11.227  10.998   9.409
91572SOL    HW276614  11.253  11.138   9.463
91573SOL     OW76615   4.964  12.273   1.344
91573SOL    HW176616   4.883  12.319   1.362
91573SOL    HW276617   5.004  12.321   1.272
91574SOL     OW76618   0.151   5.747   9.407
91574SOL    HW176619   0.132   5.671   9.353
91574SOL    HW276620   0.205   5.804   9.351
91575SOL     OW76621   8.626  13.084   9.398
91575SOL    HW176622   8.645  13.151   9.332
91575SOL    HW276623   8.556  13.123   9.451
91576SOL     OW76624   4.930  10.038   1.839
91576SOL    HW176625   4.874  10.012   1.913
91576SOL    HW276626   4.877  10.020   1.761
91577SOL     OW76627   0.943   6.163   4.484
91577SOL    HW176628   0.981   6.212   4.411
91577SOL    HW276629   1.018   6.118   4.524
91578SOL     OW76630  14.805   6.753   4.744
91578SOL    HW176631  14.869   6.728   4.677
91578SOL    HW276632  14.822   6.693   4.816
91579SOL     OW76633  13.724   3.951  14.663
91579SOL    HW176634  13.746   3.964  14.755
91579SOL    HW276635  13.807   3.959  14.617
91580SOL     OW76636   9.368   3.957   1.627
91580SOL    HW176637   9.422   3.878   1.629
91580SOL    HW276638   9.401   4.010   1.700
91581SOL     OW76639  13.973   9.840   8.727
91581SOL    HW176640  13.974   9.767   8.664
91581SOL    HW276641  13.961   9.918   8.672
91582SOL     OW76642  13.658  14.604   7.432
91582SOL    HW176643  13.652  14.666   7.359
91582SOL    HW276644  13.689  14.523   7.391
91583SOL     OW76645  14.141   5.546   3.314
91583SOL    HW176646  14.118   5.486   3.243
91583SOL    HW276647  14.165   5.628   3.269
91584SOL     OW76648   4.034   2.828   0.332
91584SOL    HW176649   4.008   2.918   0.353
91584SOL    HW276650   4.053   2.831   0.238
91585SOL     OW76651   4.178   6.679   7.039
91585SOL    HW176652   4.130   6.735   6.979
91585SOL    HW276653   4.192   6.598   6.990
91586SOL     OW76654  13.771   2.881   4.430
91586SOL    HW176655  13.737   2.792   4.424
91586SOL    HW276656  13.693   2.936   4.427
91587SOL     OW76657   4.245   4.387  13.739
91587SOL    HW176658   4.176   4.364  13.677
91587SOL    HW276659   4.211   4.463  13.786
91588SOL     OW76660  10.977   5.059   7.560
91588SOL    HW176661  10.911   4.994   7.538
91588SOL    HW276662  11.051   5.039   7.502
91589SOL     OW76663   3.627   9.246   3.293
91589SOL    HW176664   3.692   9.272   3.359
91589SOL    HW276665   3.561   9.315   3.298
91590SOL     OW76666   2.859   7.092   0.377
91590SOL    HW176667   2.933   7.145   0.408
91590SOL    HW276668   2.870   7.008   0.420
91591SOL     OW76669  11.907  10.871   8.210
91591SOL    HW176670  11.887  10.810   8.281
91591SOL    HW276671  11.822  10.910   8.188
91592SOL     OW76672  12.649   5.894  10.765
91592SOL    HW176673  12.732   5.942  10.775
91592SOL    HW276674  12.642   5.843  10.845
91593SOL     OW76675   7.241   8.251  14.840
91593SOL    HW176676   7.333   8.242  14.866
91593SOL    HW276677   7.209   8.161  14.836
91594SOL     OW76678  14.076  12.784  13.233
91594SOL    HW176679  14.034  12.805  13.316
91594SOL    HW276680  14.024  12.831  13.167
91595SOL     OW76681   3.700  12.895   2.301
91595SOL    HW176682   3.701  12.803   2.275
91595SOL    HW276683   3.756  12.939   2.237
91596SOL     OW76684  11.123  13.359  10.408
91596SOL    HW176685  11.113  13.284  10.466
91596SOL    HW276686  11.194  13.335  10.349
91597SOL     OW76687   2.649  13.455   1.601
91597SOL    HW176688   2.704  13.509   1.658
91597SOL    HW276689   2.605  13.394   1.661
91598SOL     OW76690   6.902   2.552   7.310
91598SOL    HW176691   6.933   2.532   7.398
91598SOL    HW276692   6.976   2.593   7.266
91599SOL     OW76693   9.985   6.672  11.630
91599SOL    HW176694   9.985   6.593  11.684
91599SOL    HW276695  10.062   6.664  11.574
91600SOL     OW76696  14.579   0.989  12.981
91600SOL    HW176697  14.560   1.059  13.043
91600SOL    HW276698  14.537   0.912  13.018
91601SOL     OW76699   1.279   7.088   7.610
91601SOL    HW176700   1.233   7.034   7.674
91601SOL    HW276701   1.326   7.026   7.556
91602SOL     OW76702   2.574   0.643   1.194
91602SOL    HW176703   2.540   0.645   1.283
91602SOL    HW276704   2.600   0.734   1.177
91603SOL     OW76705  13.107   7.572   0.300
91603SOL    HW176706  13.057   7.550   0.222
91603SOL    HW276707  13.041   7.580   0.369
91604SOL     OW76708   7.214   3.159  13.392
91604SOL    HW176709   7.192   3.079  13.343
91604SOL    HW276710   7.291   3.134  13.443
91605SOL     OW76711  10.288  14.825   7.815
91605SOL    HW176712  10.357  14.871   7.768
91605SOL    HW276713  10.262   0.002   7.885
91606SOL     OW76714   9.228   3.515   1.293
91606SOL    HW176715   9.184   3.538   1.375
91606SOL    HW276716   9.259   3.599   1.259
91607SOL     OW76717   4.085   1.550   3.596
91607SOL    HW176718   4.014   1.567   3.658
91607SOL    HW276719   4.061   1.466   3.555
91608SOL     OW76720  11.686   2.878   6.447
91608SOL    HW176721  11.624   2.908   6.513
91608SOL    HW276722  11.724   2.959   6.412
91609SOL     OW76723  10.002  14.282  11.789
91609SOL    HW176724   9.919  14.266  11.744
91609SOL    HW276725  10.020  14.200  11.835
91610SOL     OW76726   0.321   1.526  13.144
91610SOL    HW176727   0.398   1.500  13.095
91610SOL    HW276728   0.259   1.555  13.078
91611SOL     OW76729   8.548  14.042  12.920
91611SOL    HW176730   8.475  14.095  12.887
91611SOL    HW276731   8.527  14.025  13.011
91612SOL     OW76732   9.324   5.922   1.439
91612SOL    HW176733   9.387   5.973   1.489
91612SOL    HW276734   9.306   5.975   1.361
91613SOL     OW76735   1.188   3.784  12.273
91613SOL    HW176736   1.262   3.784  12.335
91613SOL    HW276737   1.229   3.794  12.187
91614SOL     OW76738   7.060   5.813  10.229
91614SOL    HW176739   7.149   5.813  10.194
91614SOL    HW276740   7.067   5.860  10.312
91615SOL     OW76741  14.420  13.600  13.534
91615SOL    HW176742  14.394  13.539  13.466
91615SOL    HW276743  14.497  13.645  13.498
91616SOL     OW76744  12.565   2.327   5.048
91616SOL    HW176745  12.613   2.254   5.009
91616SOL    HW276746  12.592   2.404   4.998
91617SOL     OW76747   4.247   9.264  13.853
91617SOL    HW176748   4.204   9.302  13.777
91617SOL    HW276749   4.178   9.255  13.919
91618SOL     OW76750   4.189  10.182   5.549
91618SOL    HW176751   4.144  10.109   5.505
91618SOL    HW276752   4.170  10.258   5.494
91619SOL     OW76753   9.153   3.805  13.176
91619SOL    HW176754   9.172   3.781  13.086
91619SOL    HW276755   9.071   3.761  13.196
91620SOL     OW76756  10.509  12.687  12.113
91620SOL    HW176757  10.441  12.674  12.047
91620SOL    HW276758  10.471  12.750  12.175
91621SOL     OW76759   9.412  14.856   3.950
91621SOL    HW176760   9.364  14.801   3.889
91621SOL    HW276761   9.469   0.028   3.895
91622SOL     OW76762  13.525  13.295   8.281
91622SOL    HW176763  13.585  13.254   8.343
91622SOL    HW276764  13.525  13.236   8.206
91623SOL     OW76765   7.941   0.568  14.366
91623SOL    HW176766   7.972   0.634  14.428
91623SOL    HW276767   7.932   0.615  14.283
91624SOL     OW76768   9.196  13.671  10.525
91624SOL    HW176769   9.286  13.693  10.499
91624SOL    HW276770   9.141  13.727  10.470
91625SOL     OW76771  13.409   9.668  14.326
91625SOL    HW176772  13.364   9.734  14.378
91625SOL    HW276773  13.482   9.640  14.381
91626SOL     OW76774   3.498   3.019   5.953
91626SOL    HW176775   3.427   3.017   6.017
91626SOL    HW276776   3.475   2.953   5.889
91627SOL     OW76777   8.200   7.339  11.215
91627SOL    HW176778   8.183   7.266  11.156
91627SOL    HW276779   8.132   7.332  11.282
91628SOL     OW76780   6.133  12.660  12.550
91628SOL    HW176781   6.179  12.724  12.605
91628SOL    HW276782   6.160  12.575  12.584
91629SOL     OW76783   9.540   3.833   0.245
91629SOL    HW176784   9.578   3.919   0.228
91629SOL    HW276785   9.526   3.832   0.340
91630SOL     OW76786   0.986   4.953   0.716
91630SOL    HW176787   0.891   4.956   0.727
91630SOL    HW276788   1.008   4.861   0.723
91631SOL     OW76789   9.501   6.436   4.581
91631SOL    HW176790   9.510   6.496   4.507
91631SOL    HW276791   9.407   6.427   4.594
91632SOL     OW76792   2.461   5.672   2.134
91632SOL    HW176793   2.518   5.596   2.125
91632SOL    HW276794   2.374   5.639   2.114
91633SOL     OW76795  10.268   9.646   3.880
91633SOL    HW176796  10.309   9.718   3.831
91633SOL    HW276797  10.192   9.622   3.827
91634SOL     OW76798  13.036   4.954  14.097
91634SOL    HW176799  13.067   4.936  14.008
91634SOL    HW276800  13.030   4.868  14.138
91635SOL     OW76801  12.822  11.969  10.892
91635SOL    HW176802  12.878  11.897  10.862
91635SOL    HW276803  12.872  12.048  10.869
91636SOL     OW76804   9.297  12.717   7.312
91636SOL    HW176805   9.270  12.747   7.225
91636SOL    HW276806   9.219  12.730   7.366
91637SOL     OW76807   4.194  14.601  14.304
91637SOL    HW176808   4.181  14.695  14.287
91637SOL    HW276809   4.177  14.559  14.220
91638SOL     OW76810  13.292   9.820   3.428
91638SOL    HW176811  13.293   9.902   3.378
91638SOL    HW276812  13.362   9.768   3.389
91639SOL     OW76813   5.215  12.865   1.758
91639SOL    HW176814   5.234  12.815   1.837
91639SOL    HW276815   5.149  12.929   1.785
91640SOL     OW76816  13.411  14.744   8.147
91640SOL    HW176817  13.434  14.802   8.221
91640SOL    HW276818  13.456  14.783   8.072
91641SOL     OW76819   9.420   7.227  14.389
91641SOL    HW176820   9.376   7.186  14.315
91641SOL    HW276821   9.492   7.277  14.350
91642SOL     OW76822   4.760   0.525   1.139
91642SOL    HW176823   4.811   0.559   1.066
91642SOL    HW276824   4.825   0.488   1.198
91643SOL     OW76825  13.166  12.999  14.687
91643SOL    HW176826  13.256  12.971  14.670
91643SOL    HW276827  13.168  13.037  14.775
91644SOL     OW76828   5.300  10.529  10.270
91644SOL    HW176829   5.381  10.581  10.267
91644SOL    HW276830   5.298  10.485  10.185
91645SOL     OW76831   0.054   7.871   7.755
91645SOL    HW176832   0.033   7.870   7.849
91645SOL    HW276833   0.101   7.789   7.740
91646SOL     OW76834   5.847  10.867   5.935
91646SOL    HW176835   5.855  10.940   5.997
91646SOL    HW276836   5.793  10.802   5.981
91647SOL     OW76837  11.905   5.651   3.436
91647SOL    HW176838  11.995   5.621   3.430
91647SOL    HW276839  11.889   5.662   3.530
91648SOL     OW76840   3.918   3.501   1.164
91648SOL    HW176841   3.936   3.430   1.226
91648SOL    HW276842   3.823   3.504   1.159
91649SOL     OW76843  11.391  11.496  12.575
91649SOL    HW176844  11.451  11.479  12.647
91649SOL    HW276845  11.367  11.409  12.543
91650SOL     OW76846  10.771   2.961   7.293
91650SOL    HW176847  10.817   3.043   7.274
91650SOL    HW276848  10.815   2.926   7.370
91651SOL     OW76849   6.931   1.563   9.966
91651SOL    HW176850   6.991   1.561   9.891
91651SOL    HW276851   6.912   1.471   9.984
91652SOL     OW76852  14.187  12.871   6.798
91652SOL    HW176853  14.131  12.938   6.837
91652SOL    HW276854  14.220  12.911   6.718
91653SOL     OW76855   5.239   1.619   5.258
91653SOL    HW176856   5.180   1.629   5.183
91653SOL    HW276857   5.291   1.541   5.238
91654SOL     OW76858   6.078   4.623  10.238
91654SOL    HW176859   6.173   4.620  10.227
91654SOL    HW276860   6.065   4.678  10.315
91655SOL     OW76861   2.653   6.204  11.931
91655SOL    HW176862   2.683   6.286  11.972
91655SOL    HW276863   2.615   6.231  11.848
91656SOL     OW76864   3.239   6.469  11.987
91656SOL    HW176865   3.214   6.519  12.065
91656SOL    HW276866   3.158   6.427  11.958
91657SOL     OW76867  10.510   7.100  13.416
91657SOL    HW176868  10.577   7.043  13.377
91657SOL    HW276869  10.535   7.105  13.508
91658SOL     OW76870   1.601   1.423  10.876
91658SOL    HW176871   1.640   1.480  10.809
91658SOL    HW276872   1.671   1.411  10.941
91659SOL     OW76873   1.636   1.834   5.697
91659SOL    HW176874   1.643   1.828   5.793
91659SOL    HW276875   1.549   1.870   5.682
91660SOL     OW76876   7.956   7.949  13.594
91660SOL    HW176877   7.979   7.989  13.510
91660SOL    HW276878   7.970   7.855  13.580
91661SOL     OW76879  10.816   3.763  10.723
91661SOL    HW176880  10.741   3.769  10.782
91661SOL    HW276881  10.797   3.827  10.654
91662SOL     OW76882  10.833  10.697   4.026
91662SOL    HW176883  10.817  10.740   4.110
91662SOL    HW276884  10.783  10.616   4.030
91663SOL     OW76885  13.113  14.131  12.894
91663SOL    HW176886  13.069  14.116  12.977
91663SOL    HW276887  13.206  14.117  12.913
91664SOL     OW76888   7.167  13.695   9.657
91664SOL    HW176889   7.254  13.720   9.625
91664SOL    HW276890   7.140  13.768   9.712
91665SOL     OW76891  11.041  12.168   2.634
91665SOL    HW176892  11.054  12.242   2.573
91665SOL    HW276893  11.008  12.097   2.579
91666SOL     OW76894  13.009   8.847   1.908
91666SOL    HW176895  12.970   8.836   1.995
91666SOL    HW276896  12.937   8.827   1.848
91667SOL     OW76897   2.083   0.212   9.501
91667SOL    HW176898   2.054   0.280   9.562
91667SOL    HW276899   2.066   0.250   9.414
91668SOL     OW76900   9.583   0.582  10.039
91668SOL    HW176901   9.606   0.530  10.116
91668SOL    HW276902   9.590   0.521   9.965
91669SOL     OW76903   8.895   2.290   3.956
91669SOL    HW176904   8.889   2.287   4.052
91669SOL    HW276905   8.945   2.370   3.938
91670SOL     OW76906  12.122  10.650   1.164
91670SOL    HW176907  12.082  10.737   1.157
91670SOL    HW276908  12.049  10.589   1.157
91671SOL     OW76909   8.812   3.785  14.346
91671SOL    HW176910   8.884   3.771  14.283
91671SOL    HW276911   8.824   3.716  14.411
91672SOL     OW76912   4.138   4.243   1.356
91672SOL    HW176913   4.046   4.232   1.331
91672SOL    HW276914   4.135   4.272   1.447
91673SOL     OW76915   9.405  12.596   6.992
91673SOL    HW176916   9.334  12.660   6.994
91673SOL    HW276917   9.367  12.517   7.032
91674SOL     OW76918   1.309   9.744   7.023
91674SOL    HW176919   1.345   9.700   7.100
91674SOL    HW276920   1.382   9.797   6.990
91675SOL     OW76921  13.329   4.581   4.064
91675SOL    HW176922  13.234   4.577   4.078
91675SOL    HW276923  13.340   4.574   3.969
91676SOL     OW76924   8.082   4.634   3.239
91676SOL    HW176925   8.141   4.577   3.189
91676SOL    HW276926   8.040   4.577   3.302
91677SOL     OW76927  14.372   3.727   3.523
91677SOL    HW176928  14.307   3.672   3.567
91677SOL    HW276929  14.368   3.811   3.569
91678SOL     OW76930  11.399  14.239   3.536
91678SOL    HW176931  11.329  14.243   3.471
91678SOL    HW276932  11.453  14.164   3.509
91679SOL     OW76933  13.459   1.735   3.764
91679SOL    HW176934  13.494   1.752   3.677
91679SOL    HW276935  13.436   1.821   3.797
91680SOL     OW76936  11.260  10.143  13.166
91680SOL    HW176937  11.227  10.053  13.172
91680SOL    HW276938  11.209  10.193  13.229
91681SOL     OW76939  10.544   3.890  14.212
91681SOL    HW176940  10.613   3.862  14.151
91681SOL    HW276941  10.548   3.986  14.210
91682SOL     OW76942   9.799   5.915   7.761
91682SOL    HW176943   9.842   5.884   7.681
91682SOL    HW276944   9.751   5.839   7.792
91683SOL     OW76945   1.966  13.629  10.889
91683SOL    HW176946   2.054  13.597  10.909
91683SOL    HW276947   1.959  13.623  10.794
91684SOL     OW76948  11.798  14.869  10.418
91684SOL    HW176949  11.708  14.877  10.448
91684SOL    HW276950  11.805   0.051  10.347
91685SOL     OW76951   8.873  14.471   6.970
91685SOL    HW176952   8.837  14.556   6.995
91685SOL    HW276953   8.952  14.462   7.023
91686SOL     OW76954  12.540  10.122  10.874
91686SOL    HW176955  12.467  10.179  10.897
91686SOL    HW276956  12.501  10.036  10.863
91687SOL     OW76957  13.590   3.076   0.095
91687SOL    HW176958  13.646   3.007   0.130
91687SOL    HW276959  13.572   3.050   0.005
91688SOL     OW76960   2.010   6.648   7.775
91688SOL    HW176961   1.951   6.631   7.702
91688SOL    HW276962   1.953   6.667   7.849
91689SOL     OW76963  10.379   0.630   5.678
91689SOL    HW176964  10.443   0.577   5.724
91689SOL    HW276965  10.424   0.713   5.661
91690SOL     OW76966   4.655   7.263   6.766
91690SOL    HW176967   4.742   7.274   6.728
91690SOL    HW276968   4.621   7.352   6.777
91691SOL     OW76969   6.997   8.329   0.416
91691SOL    HW176970   6.928   8.332   0.483
91691SOL    HW276971   7.036   8.417   0.419
91692SOL     OW76972   1.840  11.996   0.137
91692SOL    HW176973   1.746  11.997   0.118
91692SOL    HW276974   1.846  11.956   0.224
91693SOL     OW76975  13.270   6.503   1.952
91693SOL    HW176976  13.180   6.473   1.959
91693SOL    HW276977  13.321   6.436   1.997
91694SOL     OW76978   6.028  13.432   1.169
91694SOL    HW176979   6.111  13.427   1.122
91694SOL    HW276980   5.964  13.394   1.109
91695SOL     OW76981   2.407   7.815   2.493
91695SOL    HW176982   2.350   7.878   2.537
91695SOL    HW276983   2.477   7.868   2.454
91696SOL     OW76984   3.923   8.326   6.321
91696SOL    HW176985   3.964   8.270   6.386
91696SOL    HW276986   3.991   8.343   6.256
91697SOL     OW76987   2.157   6.767   5.740
91697SOL    HW176988   2.180   6.744   5.830
91697SOL    HW276989   2.080   6.823   5.748
91698SOL     OW76990  13.271  14.609  14.692
91698SOL    HW176991  13.318  14.588  14.611
91698SOL    HW276992  13.185  14.567  14.681
91699SOL     OW76993   3.539  14.482   5.538
91699SOL    HW176994   3.543  14.404   5.593
91699SOL    HW276995   3.620  14.529   5.558
91700SOL     OW76996  10.594   5.604  13.626
91700SOL    HW176997  10.538   5.550  13.681
91700SOL    HW276998  10.571   5.694  13.650
91701SOL     OW76999   2.502  13.464  12.148
91701SOL    HW177000   2.508  13.396  12.215
91701SOL    HW277001   2.424  13.441  12.097
91702SOL     OW77002   9.080  14.058  11.578
91702SOL    HW177003   9.098  14.003  11.502
91702SOL    HW277004   9.130  14.137  11.563
91703SOL     OW77005   1.572   5.489   5.996
91703SOL    HW177006   1.478   5.497   5.984
91703SOL    HW277007   1.583   5.415   6.055
91704SOL     OW77008  10.073   8.164   0.203
91704SOL    HW177009  10.016   8.171   0.126
91704SOL    HW277010  10.063   8.248   0.247
91705SOL     OW77011   7.952  11.073   0.789
91705SOL    HW177012   8.035  11.064   0.836
91705SOL    HW277013   7.976  11.113   0.706
91706SOL     OW77014   0.904  10.164   3.974
91706SOL    HW177015   0.965  10.180   4.045
91706SOL    HW277016   0.824  10.210   4.000
91707SOL     OW77017   6.754  14.487  12.763
91707SOL    HW177018   6.789  14.534  12.838
91707SOL    HW277019   6.674  14.446  12.796
91708SOL     OW77020   6.617   5.878   0.217
91708SOL    HW177021   6.671   5.847   0.144
91708SOL    HW277022   6.629   5.811   0.285
91709SOL     OW77023   8.098   3.404  13.626
91709SOL    HW177024   8.130   3.315  13.614
91709SOL    HW277025   8.080   3.435  13.537
91710SOL     OW77026  13.350   0.884   3.515
91710SOL    HW177027  13.352   0.805   3.460
91710SOL    HW277028  13.305   0.856   3.595
91711SOL     OW77029   0.039   8.048  11.544
91711SOL    HW177030  14.879   7.962  11.549
91711SOL    HW277031   0.126   8.030  11.509
91712SOL     OW77032  12.170   7.311   2.042
91712SOL    HW177033  12.081   7.298   2.073
91712SOL    HW277034  12.216   7.231   2.069
91713SOL     OW77035   5.431  14.163   6.139
91713SOL    HW177036   5.442  14.171   6.044
91713SOL    HW277037   5.502  14.216   6.175
91714SOL     OW77038   8.377   0.093   8.327
91714SOL    HW177039   8.351   0.044   8.249
91714SOL    HW277040   8.295   0.107   8.375
91715SOL     OW77041   1.097  14.078   8.927
91715SOL    HW177042   1.143  14.068   9.010
91715SOL    HW277043   1.159  14.124   8.871
91716SOL     OW77044   2.210   7.862  12.899
91716SOL    HW177045   2.178   7.951  12.916
91716SOL    HW277046   2.137   7.817  12.857
91717SOL     OW77047   2.284   8.238  14.445
91717SOL    HW177048   2.209   8.240  14.385
91717SOL    HW277049   2.346   8.301  14.407
91718SOL     OW77050  13.791  12.187   0.732
91718SOL    HW177051  13.760  12.158   0.818
91718SOL    HW277052  13.727  12.253   0.705
91719SOL     OW77053   6.460   1.232   4.240
91719SOL    HW177054   6.495   1.223   4.328
91719SOL    HW277055   6.492   1.317   4.209
91720SOL     OW77056  14.808   0.056  13.382
91720SOL    HW177057  14.859  14.862  13.409
91720SOL    HW277058  14.723   0.045  13.424
91721SOL     OW77059  11.606   0.442   1.812
91721SOL    HW177060  11.631   0.519   1.761
91721SOL    HW277061  11.572   0.381   1.747
91722SOL     OW77062   9.016  14.519  13.053
91722SOL    HW177063   9.099  14.546  13.093
91722SOL    HW277064   9.020  14.423  13.051
91723SOL     OW77065  13.286   3.098   8.598
91723SOL    HW177066  13.248   3.176   8.556
91723SOL    HW277067  13.320   3.046   8.525
91724SOL     OW77068   4.652   8.778   4.181
91724SOL    HW177069   4.721   8.711   4.176
91724SOL    HW277070   4.668   8.823   4.264
91725SOL     OW77071  14.144   1.216   3.484
91725SOL    HW177072  14.216   1.277   3.470
91725SOL    HW277073  14.076   1.245   3.424
91726SOL     OW77074  14.578   6.456  12.889
91726SOL    HW177075  14.534   6.528  12.844
91726SOL    HW277076  14.663   6.491  12.915
91727SOL     OW77077  13.114  12.203  11.431
91727SOL    HW177078  13.057  12.193  11.355
91727SOL    HW277079  13.199  12.171  11.402
91728SOL     OW77080   3.477   1.879   3.122
91728SOL    HW177081   3.422   1.802   3.136
91728SOL    HW277082   3.467   1.899   3.029
91729SOL     OW77083   1.179   2.142   5.282
91729SOL    HW177084   1.235   2.167   5.355
91729SOL    HW277085   1.238   2.137   5.207
91730SOL     OW77086   4.362  12.371   7.599
91730SOL    HW177087   4.301  12.330   7.538
91730SOL    HW277088   4.306  12.418   7.660
91731SOL     OW77089   4.930  10.951  10.050
91731SOL    HW177090   5.017  10.914  10.065
91731SOL    HW277091   4.924  11.024  10.113
91732SOL     OW77092  13.612   3.874   8.618
91732SOL    HW177093  13.554   3.950   8.619
91732SOL    HW277094  13.679   3.895   8.683
91733SOL     OW77095   2.150   5.173  11.511
91733SOL    HW177096   2.217   5.111  11.540
91733SOL    HW277097   2.181   5.204  11.426
91734SOL     OW77098   5.824   3.611   3.144
91734SOL    HW177099   5.810   3.697   3.103
91734SOL    HW277100   5.862   3.631   3.229
91735SOL     OW77101   7.205  10.326  14.487
91735SOL    HW177102   7.232  10.418  14.481
91735SOL    HW277103   7.276  10.277  14.445
91736SOL     OW77104   4.665   2.856  10.463
91736SOL    HW177105   4.646   2.940  10.506
91736SOL    HW277106   4.721   2.879  10.389
91737SOL     OW77107  10.437   0.346  11.093
91737SOL    HW177108  10.524   0.386  11.102
91737SOL    HW277109  10.389   0.377  11.170
91738SOL     OW77110   8.465   9.465   1.026
91738SOL    HW177111   8.559   9.471   1.042
91738SOL    HW277112   8.444   9.372   1.041
91739SOL     OW77113  11.530  11.725   7.552
91739SOL    HW177114  11.547  11.782   7.627
91739SOL    HW277115  11.516  11.785   7.478
91740SOL     OW77116   2.010   8.064  10.653
91740SOL    HW177117   1.920   8.036  10.639
91740SOL    HW277118   2.041   8.090  10.566
91741SOL     OW77119   5.514   3.413   3.048
91741SOL    HW177120   5.606   3.400   3.026
91741SOL    HW277121   5.515   3.446   3.138
91742SOL     OW77122   0.396   5.148   2.770
91742SOL    HW177123   0.480   5.194   2.777
91742SOL    HW277124   0.336   5.212   2.734
91743SOL     OW77125   2.043   4.906   8.667
91743SOL    HW177126   2.089   4.983   8.698
91743SOL    HW277127   1.952   4.934   8.655
91744SOL     OW77128  13.621   4.600   3.956
91744SOL    HW177129  13.577   4.519   3.929
91744SOL    HW277130  13.609   4.660   3.882
91745SOL     OW77131  13.116   9.361   4.376
91745SOL    HW177132  13.021   9.352   4.379
91745SOL    HW277133  13.141   9.320   4.293
91746SOL     OW77134   1.793  13.914   3.848
91746SOL    HW177135   1.749  13.836   3.881
91746SOL    HW277136   1.723  13.973   3.821
91747SOL     OW77137   2.971  11.220  10.372
91747SOL    HW177138   2.918  11.222  10.292
91747SOL    HW277139   2.977  11.127  10.395
91748SOL     OW77140  10.811   3.787   9.999
91748SOL    HW177141  10.895   3.757  10.033
91748SOL    HW277142  10.832   3.840   9.923
91749SOL     OW77143   2.203   5.912  12.299
91749SOL    HW177144   2.115   5.890  12.329
91749SOL    HW277145   2.208   6.008  12.305
91750SOL     OW77146   3.531   0.635  14.710
91750SOL    HW177147   3.489   0.572  14.768
91750SOL    HW277148   3.572   0.698  14.769
91751SOL     OW77149   5.351   4.557   3.368
91751SOL    HW177150   5.420   4.623   3.375
91751SOL    HW277151   5.302   4.582   3.289
91752SOL     OW77152  14.821   0.290   3.643
91752SOL    HW177153  14.791   0.320   3.558
91752SOL    HW277154  14.850   0.199   3.628
91753SOL     OW77155   8.894   2.616   9.788
91753SOL    HW177156   8.984   2.588   9.802
91753SOL    HW277157   8.887   2.628   9.693
91754SOL     OW77158  14.551   9.377  14.694
91754SOL    HW177159  14.469   9.390  14.645
91754SOL    HW277160  14.564   9.460  14.740
91755SOL     OW77161  11.751   5.560   1.628
91755SOL    HW177162  11.835   5.543   1.672
91755SOL    HW277163  11.740   5.655   1.634
91756SOL     OW77164   8.067  14.671   2.373
91756SOL    HW177165   8.091  14.608   2.305
91756SOL    HW277166   8.146  14.723   2.386
91757SOL     OW77167   1.130  14.608  12.174
91757SOL    HW177168   1.149  14.686  12.122
91757SOL    HW277169   1.165  14.536  12.122
91758SOL     OW77170   9.610   5.344  10.283
91758SOL    HW177171   9.551   5.269  10.278
91758SOL    HW277172   9.685   5.320  10.229
91759SOL     OW77173   6.284  12.872   9.522
91759SOL    HW177174   6.319  12.953   9.485
91759SOL    HW277175   6.354  12.808   9.513
91760SOL     OW77176   6.532  13.755  13.957
91760SOL    HW177177   6.508  13.680  14.011
91760SOL    HW277178   6.512  13.831  14.011
91761SOL     OW77179   3.919   4.070  10.531
91761SOL    HW177180   3.843   4.056  10.587
91761SOL    HW277181   3.883   4.115  10.454
91762SOL     OW77182  11.292  11.909   9.551
91762SOL    HW177183  11.368  11.915   9.609
91762SOL    HW277184  11.244  11.991   9.566
91763SOL     OW77185   3.527  12.249   5.052
91763SOL    HW177186   3.591  12.316   5.075
91763SOL    HW277187   3.450  12.298   5.024
91764SOL     OW77188   9.403   9.718  12.292
91764SOL    HW177189   9.311   9.725  12.269
91764SOL    HW277190   9.423   9.625  12.280
91765SOL     OW77191   1.064   4.225  11.044
91765SOL    HW177192   1.036   4.135  11.027
91765SOL    HW277193   1.050   4.271  10.961
91766SOL     OW77194   8.642   9.409  11.258
91766SOL    HW177195   8.649   9.478  11.323
91766SOL    HW277196   8.577   9.441  11.195
91767SOL     OW77197  13.867   1.477   9.000
91767SOL    HW177198  13.865   1.392   8.956
91767SOL    HW277199  13.945   1.521   8.967
91768SOL     OW77200   6.426   3.318   0.657
91768SOL    HW177201   6.365   3.321   0.730
91768SOL    HW277202   6.513   3.322   0.698
91769SOL     OW77203  11.956   6.740  14.000
91769SOL    HW177204  11.985   6.713  14.087
91769SOL    HW277205  11.960   6.836  14.002
91770SOL     OW77206  11.518   2.793   8.369
91770SOL    HW177207  11.513   2.747   8.285
91770SOL    HW277208  11.571   2.871   8.350
91771SOL     OW77209   3.018   8.300   0.149
91771SOL    HW177210   2.951   8.233   0.136
91771SOL    HW277211   3.051   8.319   0.061
91772SOL     OW77212  10.952   0.169   1.411
91772SOL    HW177213  10.898   0.206   1.342
91772SOL    HW277214  10.900   0.180   1.491
91773SOL     OW77215   7.507   3.332   2.178
91773SOL    HW177216   7.449   3.407   2.190
91773SOL    HW277217   7.456   3.256   2.206
91774SOL     OW77218  10.943   8.861  11.674
91774SOL    HW177219  10.944   8.896  11.763
91774SOL    HW277220  11.030   8.821  11.663
91775SOL     OW77221   5.488   0.288   8.748
91775SOL    HW177222   5.579   0.315   8.758
91775SOL    HW277223   5.443   0.328   8.822
91776SOL     OW77224   7.162  11.424   6.021
91776SOL    HW177225   7.196  11.464   5.940
91776SOL    HW277226   7.086  11.374   5.992
91777SOL     OW77227   2.865   0.899   7.115
91777SOL    HW177228   2.782   0.887   7.070
91777SOL    HW277229   2.842   0.935   7.200
91778SOL     OW77230  14.731   8.942  10.974
91778SOL    HW177231  14.754   8.949  11.066
91778SOL    HW277232  14.652   8.995  10.964
91779SOL     OW77233   6.835   6.072   0.735
91779SOL    HW177234   6.772   6.038   0.672
91779SOL    HW277235   6.921   6.053   0.696
91780SOL     OW77236   8.557   2.587   4.463
91780SOL    HW177237   8.540   2.542   4.545
91780SOL    HW277238   8.605   2.666   4.489
91781SOL     OW77239   7.478  10.812  13.729
91781SOL    HW177240   7.543  10.753  13.692
91781SOL    HW277241   7.516  10.840  13.813
91782SOL     OW77242  11.636   6.702  14.789
91782SOL    HW177243  11.555   6.751  14.777
91782SOL    HW277244  11.615   6.636  14.855
91783SOL     OW77245   8.678  14.557  11.439
91783SOL    HW177246   8.716  14.481  11.396
91783SOL    HW277247   8.689  14.541  11.533
91784SOL     OW77248   9.999  14.863   6.517
91784SOL    HW177249   9.987   0.003   6.609
91784SOL    HW277250  10.093  14.849   6.507
91785SOL     OW77251   6.035  13.323  14.153
91785SOL    HW177252   6.041  13.411  14.113
91785SOL    HW277253   5.948  13.320  14.191
91786SOL     OW77254   0.182  11.914  13.928
91786SOL    HW177255   0.111  11.905  13.864
91786SOL    HW277256   0.232  11.990  13.898
91787SOL     OW77257   1.817   1.180  13.291
91787SOL    HW177258   1.869   1.109  13.329
91787SOL    HW277259   1.879   1.252  13.281
91788SOL     OW77260  14.569  10.143   6.773
91788SOL    HW177261  14.479  10.117   6.789
91788SOL    HW277262  14.616  10.118   6.853
91789SOL     OW77263   1.780   1.496   4.813
91789SOL    HW177264   1.739   1.413   4.790
91789SOL    HW277265   1.747   1.558   4.748
91790SOL     OW77266   7.533   1.435   5.362
91790SOL    HW177267   7.510   1.527   5.351
91790SOL    HW277268   7.455   1.395   5.400
91791SOL     OW77269  12.731   0.289   3.113
91791SOL    HW177270  12.692   0.210   3.075
91791SOL    HW277271  12.823   0.267   3.125
91792SOL     OW77272  11.549   0.835  13.478
91792SOL    HW177273  11.588   0.785  13.406
91792SOL    HW277274  11.611   0.826  13.550
91793SOL     OW77275   8.143   1.309   4.325
91793SOL    HW177276   8.186   1.393   4.309
91793SOL    HW277277   8.128   1.272   4.238
91794SOL     OW77278   4.703   0.701  10.404
91794SOL    HW177279   4.615   0.736  10.421
91794SOL    HW277280   4.687   0.610  10.378
91795SOL     OW77281  12.102   2.314  10.570
91795SOL    HW177282  12.139   2.403  10.573
91795SOL    HW277283  12.039   2.317  10.499
91796SOL     OW77284   5.766  12.933  10.934
91796SOL    HW177285   5.733  12.876  11.003
91796SOL    HW277286   5.814  13.002  10.980
91797SOL     OW77287  14.266  13.819  10.819
91797SOL    HW177288  14.280  13.745  10.877
91797SOL    HW277289  14.210  13.785  10.749
91798SOL     OW77290  14.622   7.426   4.323
91798SOL    HW177291  14.604   7.408   4.415
91798SOL    HW277292  14.558   7.492   4.299
91799SOL     OW77293   2.241   9.786  11.811
91799SOL    HW177294   2.305   9.728  11.770
91799SOL    HW277295   2.293   9.849  11.861
91800SOL     OW77296  13.693  11.507  12.847
91800SOL    HW177297  13.711  11.593  12.885
91800SOL    HW277298  13.772  11.456  12.863
91801SOL     OW77299  14.484  13.944   9.278
91801SOL    HW177300  14.451  13.857   9.298
91801SOL    HW277301  14.550  13.961   9.346
91802SOL     OW77302   5.571   2.790   1.536
91802SOL    HW177303   5.644   2.729   1.547
91802SOL    HW277304   5.492   2.737   1.549
91803SOL     OW77305  13.859   0.700  13.770
91803SOL    HW177306  13.830   0.753  13.844
91803SOL    HW277307  13.954   0.692  13.781
91804SOL     OW77308   5.513   9.436   7.692
91804SOL    HW177309   5.569   9.511   7.710
91804SOL    HW277310   5.444   9.440   7.758
91805SOL     OW77311  13.939  14.466   3.243
91805SOL    HW177312  13.946  14.486   3.336
91805SOL    HW277313  13.856  14.419   3.234
91806SOL     OW77314   3.108  11.082   9.099
91806SOL    HW177315   3.079  11.051   9.185
91806SOL    HW277316   3.082  11.013   9.038
91807SOL     OW77317   4.923   9.219  13.989
91807SOL    HW177318   4.993   9.211  14.055
91807SOL    HW277319   4.953   9.289  13.931
91808SOL     OW77320  12.447  14.712   2.392
91808SOL    HW177321  12.378  14.650   2.368
91808SOL    HW277322  12.432  14.729   2.485
91809SOL     OW77323  14.386  10.847   8.449
91809SOL    HW177324  14.462  10.905   8.458
91809SOL    HW277325  14.326  10.895   8.392
91810SOL     OW77326  11.208  12.784   5.437
91810SOL    HW177327  11.204  12.865   5.386
91810SOL    HW277328  11.295  12.749   5.420
91811SOL     OW77329  14.176  14.737   9.219
91811SOL    HW177330  14.113  14.716   9.287
91811SOL    HW277331  14.202  14.652   9.183
91812SOL     OW77332  10.986   2.274  12.956
91812SOL    HW177333  10.979   2.310  12.868
91812SOL    HW277334  11.071   2.231  12.958
91813SOL     OW77335   4.810  14.217   7.750
91813SOL    HW177336   4.771  14.287   7.803
91813SOL    HW277337   4.750  14.205   7.677
91814SOL     OW77338  13.442  12.360   2.633
91814SOL    HW177339  13.448  12.444   2.586
91814SOL    HW277340  13.460  12.382   2.724
91815SOL     OW77341  12.911  12.674   0.901
91815SOL    HW177342  12.859  12.687   0.822
91815SOL    HW277343  13.002  12.679   0.872
91816SOL     OW77344  12.684   1.473   4.412
91816SOL    HW177345  12.723   1.447   4.496
91816SOL    HW277346  12.759   1.492   4.356
91817SOL     OW77347   7.424   8.005   4.385
91817SOL    HW177348   7.442   8.099   4.389
91817SOL    HW277349   7.375   7.993   4.304
91818SOL     OW77350   6.445   4.357  13.724
91818SOL    HW177351   6.500   4.355  13.803
91818SOL    HW277352   6.507   4.349  13.651
91819SOL     OW77353   5.170   1.048  11.483
91819SOL    HW177354   5.161   1.101  11.404
91819SOL    HW277355   5.084   1.053  11.525
91820SOL     OW77356   9.966  12.574   4.044
91820SOL    HW177357  10.007  12.625   4.114
91820SOL    HW277358   9.955  12.487   4.082
91821SOL     OW77359   2.271  14.751  10.025
91821SOL    HW177360   2.262  14.843   9.999
91821SOL    HW277361   2.217  14.703   9.963
91822SOL     OW77362   1.989   4.248   6.801
91822SOL    HW177363   1.946   4.260   6.717
91822SOL    HW277364   2.080   4.226   6.780
91823SOL     OW77365   9.787   4.130   2.687
91823SOL    HW177366   9.826   4.043   2.672
91823SOL    HW277367   9.757   4.128   2.777
91824SOL     OW77368  12.730   6.348   1.805
91824SOL    HW177369  12.779   6.285   1.752
91824SOL    HW277370  12.793   6.379   1.870
91825SOL     OW77371   5.944  12.117   2.018
91825SOL    HW177372   5.873  12.179   2.001
91825SOL    HW277373   6.017  12.173   2.048
91826SOL     OW77374   0.383   0.691   1.971
91826SOL    HW177375   0.474   0.713   1.992
91826SOL    HW277376   0.345   0.773   1.939
91827SOL     OW77377   7.063   2.277   7.946
91827SOL    HW177378   7.036   2.185   7.950
91827SOL    HW277379   6.983   2.324   7.921
91828SOL     OW77380   7.251   9.496   0.374
91828SOL    HW177381   7.246   9.539   0.289
91828SOL    HW277382   7.201   9.415   0.363
91829SOL     OW77383  14.210   0.161   9.936
91829SOL    HW177384  14.251   0.246   9.917
91829SOL    HW277385  14.284   0.103   9.953
91830SOL     OW77386   7.072   4.120  10.473
91830SOL    HW177387   6.991   4.120  10.422
91830SOL    HW277388   7.141   4.143  10.410
91831SOL     OW77389  10.277   9.684   9.900
91831SOL    HW177390  10.345   9.644   9.847
91831SOL    HW277391  10.298   9.658   9.990
91832SOL     OW77392   5.630   3.738   6.349
91832SOL    HW177393   5.633   3.737   6.445
91832SOL    HW277394   5.629   3.831   6.327
91833SOL     OW77395  14.304  13.872   5.015
91833SOL    HW177396  14.350  13.807   5.069
91833SOL    HW277397  14.344  13.863   4.928
91834SOL     OW77398  11.791   1.926   6.796
91834SOL    HW177399  11.745   1.990   6.742
91834SOL    HW277400  11.871   1.970   6.823
91835SOL     OW77401   9.740   2.215   8.463
91835SOL    HW177402   9.835   2.226   8.456
91835SOL    HW277403   9.720   2.237   8.554
91836SOL     OW77404   7.053  11.836   5.722
91836SOL    HW177405   7.073  11.926   5.750
91836SOL    HW277406   7.137  11.803   5.689
91837SOL     OW77407   7.054   3.845  10.508
91837SOL    HW177408   6.971   3.872  10.549
91837SOL    HW277409   7.113   3.918  10.523
91838SOL     OW77410   3.761  10.681  14.755
91838SOL    HW177411   3.743  10.634  14.674
91838SOL    HW277412   3.772  10.772  14.729
91839SOL     OW77413   8.378   2.906   3.218
91839SOL    HW177414   8.469   2.906   3.187
91839SOL    HW277415   8.338   2.981   3.175
91840SOL     OW77416   4.876   8.312   2.794
91840SOL    HW177417   4.873   8.387   2.735
91840SOL    HW277418   4.936   8.338   2.864
91841SOL     OW77419  11.146   4.030   8.158
91841SOL    HW177420  11.058   4.063   8.138
91841SOL    HW277421  11.204   4.099   8.127
91842SOL     OW77422   1.145   2.962  13.695
91842SOL    HW177423   1.187   2.990  13.614
91842SOL    HW277424   1.064   2.919  13.668
91843SOL     OW77425  10.202  13.319   4.988
91843SOL    HW177426  10.251  13.245   4.954
91843SOL    HW277427  10.267  13.376   5.028
91844SOL     OW77428   9.053  11.007   9.163
91844SOL    HW177429   9.068  11.101   9.154
91844SOL    HW277430   9.125  10.976   9.218
91845SOL     OW77431   3.944   5.619  13.083
91845SOL    HW177432   3.995   5.679  13.138
91845SOL    HW277433   3.880   5.580  13.142
91846SOL     OW77434  13.282  14.183   1.700
91846SOL    HW177435  13.254  14.125   1.772
91846SOL    HW277436  13.281  14.126   1.623
91847SOL     OW77437   5.040   6.670   5.976
91847SOL    HW177438   5.042   6.707   6.064
91847SOL    HW277439   5.065   6.578   5.989
91848SOL     OW77440   0.336   5.028   8.577
91848SOL    HW177441   0.266   5.043   8.640
91848SOL    HW277442   0.353   5.115   8.539
91849SOL     OW77443   3.410   1.642   9.873
91849SOL    HW177444   3.352   1.717   9.855
91849SOL    HW277445   3.498   1.678   9.867
91850SOL     OW77446  13.932   6.449   3.774
91850SOL    HW177447  14.014   6.426   3.732
91850SOL    HW277448  13.935   6.404   3.859
91851SOL     OW77449   6.342  11.909   8.815
91851SOL    HW177450   6.339  11.845   8.745
91851SOL    HW277451   6.427  11.896   8.856
91852SOL     OW77452   6.859  10.312   3.004
91852SOL    HW177453   6.888  10.367   3.077
91852SOL    HW277454   6.914  10.340   2.931
91853SOL     OW77455   0.282  10.073   6.008
91853SOL    HW177456   0.288  10.137   6.080
91853SOL    HW277457   0.188  10.061   5.995
91854SOL     OW77458   6.935   9.708   2.388
91854SOL    HW177459   6.863   9.694   2.450
91854SOL    HW277460   6.976   9.622   2.380
91855SOL     OW77461   0.924   0.030  12.236
91855SOL    HW177462   0.994   0.094  12.233
91855SOL    HW277463   0.942  14.860  12.314
91856SOL     OW77464   8.738   2.024   5.949
91856SOL    HW177465   8.648   2.011   5.980
91856SOL    HW277466   8.728   2.071   5.866
91857SOL     OW77467   2.889   2.503  13.207
91857SOL    HW177468   2.976   2.540  13.218
91857SOL    HW277469   2.898   2.413  13.237
91858SOL     OW77470   4.840   2.029   9.360
91858SOL    HW177471   4.836   1.933   9.368
91858SOL    HW277472   4.901   2.045   9.289
91859SOL     OW77473   3.908   3.628   3.875
91859SOL    HW177474   3.853   3.676   3.815
91859SOL    HW277475   3.899   3.673   3.959
91860SOL     OW77476   6.820   5.312  13.931
91860SOL    HW177477   6.782   5.240  13.880
91860SOL    HW277478   6.890   5.270  13.982
91861SOL     OW77479   4.404   3.975  13.508
91861SOL    HW177480   4.412   4.068  13.527
91861SOL    HW277481   4.495   3.944  13.504
91862SOL     OW77482   6.935   0.442   9.140
91862SOL    HW177483   7.002   0.377   9.118
91862SOL    HW277484   6.873   0.438   9.068
91863SOL     OW77485   7.925   5.514   3.317
91863SOL    HW177486   7.897   5.603   3.293
91863SOL    HW277487   7.989   5.490   3.250
91864SOL     OW77488  13.451  10.520   1.617
91864SOL    HW177489  13.365  10.561   1.614
91864SOL    HW277490  13.480  10.532   1.708
91865SOL     OW77491   4.927   1.130  14.664
91865SOL    HW177492   4.987   1.080  14.609
91865SOL    HW277493   4.950   1.104  14.754
91866SOL     OW77494   9.222   5.236  11.564
91866SOL    HW177495   9.257   5.324  11.554
91866SOL    HW277496   9.141   5.247  11.613
91867SOL     OW77497   1.020   4.429  13.417
91867SOL    HW177498   0.931   4.401  13.397
91867SOL    HW277499   1.075   4.355  13.389
91868SOL     OW77500   6.573   2.342   6.819
91868SOL    HW177501   6.664   2.363   6.840
91868SOL    HW277502   6.526   2.425   6.827
91869SOL     OW77503   0.976   4.669   8.148
91869SOL    HW177504   1.057   4.636   8.109
91869SOL    HW277505   0.909   4.653   8.082
91870SOL     OW77506  13.932   6.490   1.064
91870SOL    HW177507  13.856   6.461   1.013
91870SOL    HW277508  13.927   6.585   1.062
91871SOL     OW77509  12.474   6.192   5.721
91871SOL    HW177510  12.382   6.219   5.727
91871SOL    HW277511  12.470   6.102   5.689
91872SOL     OW77512  11.309   0.590  10.843
91872SOL    HW177513  11.376   0.572  10.778
91872SOL    HW277514  11.297   0.685  10.839
91873SOL     OW77515   8.176  10.464   2.127
91873SOL    HW177516   8.090  10.475   2.167
91873SOL    HW277517   8.238  10.496   2.193
91874SOL     OW77518   8.092  10.707   5.054
91874SOL    HW177519   8.047  10.791   5.058
91874SOL    HW277520   8.029  10.644   5.089
91875SOL     OW77521  11.360   5.991   7.383
91875SOL    HW177522  11.305   5.914   7.392
91875SOL    HW277523  11.415   5.991   7.461
91876SOL     OW77524   9.129   0.140   9.559
91876SOL    HW177525   9.111   0.233   9.572
91876SOL    HW277526   9.206   0.138   9.502
91877SOL     OW77527   6.596  11.883  13.782
91877SOL    HW177528   6.536  11.846  13.847
91877SOL    HW277529   6.679  11.894  13.829
91878SOL     OW77530   4.407   4.159   9.485
91878SOL    HW177531   4.371   4.194   9.404
91878SOL    HW277532   4.335   4.111   9.526
91879SOL     OW77533   5.155  11.864   8.740
91879SOL    HW177534   5.230  11.885   8.684
91879SOL    HW277535   5.081  11.909   8.699
91880SOL     OW77536   3.858  11.944   1.707
91880SOL    HW177537   3.942  11.903   1.688
91880SOL    HW277538   3.881  12.033   1.734
91881SOL     OW77539  11.021   1.360  12.917
91881SOL    HW177540  11.110   1.366  12.950
91881SOL    HW277541  11.022   1.286  12.856
91882SOL     OW77542   1.210   9.436   1.277
91882SOL    HW177543   1.209   9.341   1.285
91882SOL    HW277544   1.277   9.465   1.339
91883SOL     OW77545  13.650   0.233   5.828
91883SOL    HW177546  13.635   0.193   5.742
91883SOL    HW277547  13.604   0.317   5.823
91884SOL     OW77548   6.830   0.806   5.208
91884SOL    HW177549   6.903   0.746   5.195
91884SOL    HW277550   6.761   0.773   5.149
91885SOL     OW77551   2.962   8.488   6.039
91885SOL    HW177552   2.886   8.445   6.000
91885SOL    HW277553   2.939   8.581   6.039
91886SOL     OW77554  12.044   8.366   6.307
91886SOL    HW177555  11.973   8.332   6.252
91886SOL    HW277556  12.020   8.457   6.324
91887SOL     OW77557  11.746   3.675   5.332
91887SOL    HW177558  11.833   3.709   5.356
91887SOL    HW277559  11.764   3.593   5.286
91888SOL     OW77560   6.966  10.431   1.016
91888SOL    HW177561   7.047  10.411   0.969
91888SOL    HW277562   6.977  10.522   1.044
91889SOL     OW77563  13.750  11.035   8.156
91889SOL    HW177564  13.839  11.008   8.139
91889SOL    HW277565  13.698  10.955   8.150
91890SOL     OW77566   9.710   6.531   4.760
91890SOL    HW177567   9.648   6.505   4.692
91890SOL    HW277568   9.790   6.481   4.741
91891SOL     OW77569   2.016   5.065   7.194
91891SOL    HW177570   1.964   5.048   7.272
91891SOL    HW277571   2.079   4.994   7.191
91892SOL     OW77572  12.543   5.406   6.368
91892SOL    HW177573  12.530   5.384   6.460
91892SOL    HW277574  12.476   5.472   6.350
91893SOL     OW77575   2.202   3.743   8.184
91893SOL    HW177576   2.171   3.834   8.184
91893SOL    HW277577   2.127   3.692   8.215
91894SOL     OW77578   8.464   9.856   7.055
91894SOL    HW177579   8.413   9.777   7.036
91894SOL    HW277580   8.430   9.885   7.140
91895SOL     OW77581  10.478  12.782   5.489
91895SOL    HW177582  10.439  12.816   5.569
91895SOL    HW277583  10.566  12.819   5.486
91896SOL     OW77584   0.029   2.469   9.307
91896SOL    HW177585  14.877   2.465   9.218
91896SOL    HW277586   0.043   2.377   9.331
91897SOL     OW77587  11.072   4.270   5.474
91897SOL    HW177588  11.115   4.356   5.478
91897SOL    HW277589  11.119   4.223   5.405
91898SOL     OW77590   6.990   5.953  14.805
91898SOL    HW177591   6.927   5.882  14.818
91898SOL    HW277592   6.959   6.022  14.863
91899SOL     OW77593   6.354  10.243   7.259
91899SOL    HW177594   6.421  10.295   7.305
91899SOL    HW277595   6.331  10.174   7.320
91900SOL     OW77596   8.111   5.927   9.445
91900SOL    HW177597   8.040   5.864   9.451
91900SOL    HW277598   8.082   6.002   9.496
91901SOL     OW77599  10.734   9.477   4.164
91901SOL    HW177600  10.798   9.522   4.218
91901SOL    HW277601  10.664   9.452   4.225
91902SOL     OW77602   6.455  13.581   3.993
91902SOL    HW177603   6.515  13.635   3.942
91902SOL    HW277604   6.511  13.516   4.036
91903SOL     OW77605  10.316   5.034   1.985
91903SOL    HW177606  10.263   5.071   2.056
91903SOL    HW277607  10.341   4.947   2.017
91904SOL     OW77608   3.879  10.503  14.554
91904SOL    HW177609   3.914  10.476  14.639
91904SOL    HW277610   3.921  10.443  14.491
91905SOL     OW77611   2.501  14.023   2.408
91905SOL    HW177612   2.580  14.067   2.440
91905SOL    HW277613   2.533  13.944   2.365
91906SOL     OW77614  10.436  12.181   7.738
91906SOL    HW177615  10.434  12.268   7.697
91906SOL    HW277616  10.404  12.196   7.827
91907SOL     OW77617  13.480  12.630  14.695
91907SOL    HW177618  13.570  12.634  14.727
91907SOL    HW277619  13.472  12.543  14.656
91908SOL     OW77620  13.951   5.877   0.851
91908SOL    HW177621  13.991   5.808   0.904
91908SOL    HW277622  13.905   5.830   0.782
91909SOL     OW77623   6.548   0.344   2.756
91909SOL    HW177624   6.464   0.352   2.711
91909SOL    HW277625   6.570   0.434   2.782
91910SOL     OW77626   3.088  13.915   1.320
91910SOL    HW177627   3.056  13.843   1.375
91910SOL    HW277628   3.178  13.929   1.349
91911SOL     OW77629   1.109   6.425  14.043
91911SOL    HW177630   1.016   6.403  14.041
91911SOL    HW277631   1.140   6.391  14.127
91912SOL     OW77632   5.375   9.530   7.478
91912SOL    HW177633   5.424   9.495   7.553
91912SOL    HW277634   5.294   9.478   7.476
91913SOL     OW77635   7.290   8.372   8.151
91913SOL    HW177636   7.383   8.386   8.170
91913SOL    HW277637   7.289   8.289   8.102
91914SOL     OW77638  14.775  10.333  13.377
91914SOL    HW177639  14.743  10.391  13.445
91914SOL    HW277640  14.855  10.295  13.413
91915SOL     OW77641   6.710  12.484   6.798
91915SOL    HW177642   6.720  12.443   6.884
91915SOL    HW277643   6.618  12.512   6.796
91916SOL     OW77644  14.678  14.726   9.344
91916SOL    HW177645  14.758  14.726   9.398
91916SOL    HW277646  14.619  14.787   9.388
91917SOL     OW77647  13.006   6.481   1.977
91917SOL    HW177648  12.960   6.527   1.907
91917SOL    HW277649  12.942   6.474   2.048
91918SOL     OW77650   3.455   8.426   0.068
91918SOL    HW177651   3.504   8.354   0.028
91918SOL    HW277652   3.519   8.496   0.076
91919SOL     OW77653  12.834   2.539  13.788
91919SOL    HW177654  12.885   2.538  13.706
91919SOL    HW277655  12.877   2.605  13.842
91920SOL     OW77656  10.382   5.964   9.152
91920SOL    HW177657  10.426   6.025   9.094
91920SOL    HW277658  10.333   6.019   9.213
91921SOL     OW77659   2.423  13.019  11.109
91921SOL    HW177660   2.374  13.083  11.160
91921SOL    HW277661   2.489  13.071  11.062
91922SOL     OW77662   2.549   8.489   7.979
91922SOL    HW177663   2.543   8.566   8.037
91922SOL    HW277664   2.641   8.463   7.983
91923SOL     OW77665   7.154   6.850  14.331
91923SOL    HW177666   7.184   6.770  14.289
91923SOL    HW277667   7.174   6.838  14.424
91924SOL     OW77668   1.002   6.202  13.404
91924SOL    HW177669   0.925   6.149  13.384
91924SOL    HW277670   1.001   6.272  13.338
91925SOL     OW77671   9.692  14.457   9.462
91925SOL    HW177672   9.787  14.446   9.452
91925SOL    HW277673   9.682  14.500   9.547
91926SOL     OW77674   3.921   5.353   9.562
91926SOL    HW177675   3.830   5.383   9.560
91926SOL    HW277676   3.953   5.369   9.474
91927SOL     OW77677  14.391  11.661   0.863
91927SOL    HW177678  14.363  11.710   0.940
91927SOL    HW277679  14.451  11.719   0.817
91928SOL     OW77680   6.572   7.395  12.604
91928SOL    HW177681   6.534   7.480  12.581
91928SOL    HW277682   6.506   7.353  12.658
91929SOL     OW77683  14.476   2.153   1.067
91929SOL    HW177684  14.397   2.176   1.115
91929SOL    HW277685  14.533   2.113   1.133
91930SOL     OW77686   9.169  11.780  12.965
91930SOL    HW177687   9.262  11.773  12.943
91930SOL    HW277688   9.125  11.723  12.901
91931SOL     OW77689   5.287   7.841   3.377
91931SOL    HW177690   5.337   7.850   3.295
91931SOL    HW277691   5.279   7.747   3.389
91932SOL     OW77692  14.219   5.237   3.731
91932SOL    HW177693  14.198   5.279   3.647
91932SOL    HW277694  14.164   5.159   3.733
91933SOL     OW77695   0.821   9.891   8.000
91933SOL    HW177696   0.790   9.818   8.055
91933SOL    HW277697   0.893   9.853   7.949
91934SOL     OW77698  12.426  10.331  10.320
91934SOL    HW177699  12.484  10.373  10.255
91934SOL    HW277700  12.483  10.269  10.365
91935SOL     OW77701   8.559   0.938   3.422
91935SOL    HW177702   8.523   1.008   3.367
91935SOL    HW277703   8.526   0.958   3.510
91936SOL     OW77704   9.639   9.296   6.459
91936SOL    HW177705   9.722   9.334   6.488
91936SOL    HW277706   9.644   9.297   6.363
91937SOL     OW77707  13.561  13.865   3.299
91937SOL    HW177708  13.513  13.905   3.226
91937SOL    HW277709  13.529  13.775   3.302
91938SOL     OW77710   8.045   9.636  10.731
91938SOL    HW177711   7.998   9.601  10.807
91938SOL    HW277712   8.113   9.692  10.770
91939SOL     OW77713  13.058  12.020   1.069
91939SOL    HW177714  13.035  12.111   1.049
91939SOL    HW277715  13.137  12.004   1.018
91940SOL     OW77716   2.617   6.837   4.706
91940SOL    HW177717   2.607   6.911   4.766
91940SOL    HW277718   2.587   6.871   4.621
91941SOL     OW77719  10.137   8.306   4.178
91941SOL    HW177720  10.167   8.218   4.202
91941SOL    HW277721  10.212   8.345   4.134
91942SOL     OW77722   2.212   0.426   6.028
91942SOL    HW177723   2.288   0.387   5.986
91942SOL    HW277724   2.153   0.449   5.956
91943SOL     OW77725   9.569   6.905   5.827
91943SOL    HW177726   9.614   6.971   5.881
91943SOL    HW277727   9.622   6.826   5.836
91944SOL     OW77728   3.690   6.442   5.901
91944SOL    HW177729   3.785   6.443   5.889
91944SOL    HW277730   3.671   6.522   5.949
91945SOL     OW77731   2.233   3.157   1.065
91945SOL    HW177732   2.138   3.161   1.076
91945SOL    HW277733   2.248   3.189   0.976
91946SOL     OW77734  13.551  11.494   7.545
91946SOL    HW177735  13.474  11.549   7.561
91946SOL    HW277736  13.527  11.409   7.581
91947SOL     OW77737   6.316  13.724   4.567
91947SOL    HW177738   6.374  13.720   4.643
91947SOL    HW277739   6.246  13.784   4.593
91948SOL     OW77740   1.476  10.968   4.271
91948SOL    HW177741   1.416  10.907   4.229
91948SOL    HW277742   1.512  11.020   4.199
91949SOL     OW77743   7.325   4.418   5.740
91949SOL    HW177744   7.232   4.397   5.754
91949SOL    HW277745   7.333   4.508   5.770
91950SOL     OW77746  11.979   2.295   8.392
91950SOL    HW177747  11.893   2.329   8.416
91950SOL    HW277748  12.009   2.248   8.470
91951SOL     OW77749  13.397  11.541   7.940
91951SOL    HW177750  13.411  11.476   8.008
91951SOL    HW277751  13.457  11.613   7.963
91952SOL     OW77752   3.606   0.763   1.298
91952SOL    HW177753   3.598   0.842   1.246
91952SOL    HW277754   3.690   0.772   1.344
91953SOL     OW77755   3.638   8.509   1.090
91953SOL    HW177756   3.702   8.580   1.075
91953SOL    HW277757   3.558   8.555   1.116
91954SOL     OW77758  12.282   0.019  12.672
91954SOL    HW177759  12.302   0.055  12.759
91954SOL    HW277760  12.202   0.065  12.645
91955SOL     OW77761  11.462   8.591   2.901
91955SOL    HW177762  11.472   8.652   2.974
91955SOL    HW277763  11.484   8.505   2.938
91956SOL     OW77764  11.339   2.264   5.376
91956SOL    HW177765  11.415   2.319   5.357
91956SOL    HW277766  11.377   2.185   5.415
91957SOL     OW77767   9.335   1.671   0.319
91957SOL    HW177768   9.375   1.646   0.402
91957SOL    HW277769   9.256   1.720   0.343
91958SOL     OW77770   0.817   1.909   9.658
91958SOL    HW177771   0.737   1.922   9.607
91958SOL    HW277772   0.875   1.978   9.629
91959SOL     OW77773   1.522  10.124  12.202
91959SOL    HW177774   1.490  10.200  12.250
91959SOL    HW277775   1.480  10.049  12.245
91960SOL     OW77776   5.403  13.813   2.866
91960SOL    HW177777   5.414  13.789   2.774
91960SOL    HW277778   5.327  13.763   2.895
91961SOL     OW77779   6.940  11.810   3.898
91961SOL    HW177780   6.916  11.885   3.952
91961SOL    HW277781   6.859  11.784   3.855
91962SOL     OW77782   7.354  10.297  12.157
91962SOL    HW177783   7.329  10.249  12.078
91962SOL    HW277784   7.426  10.354  12.128
91963SOL     OW77785   5.188   4.888   8.362
91963SOL    HW177786   5.178   4.813   8.303
91963SOL    HW277787   5.111   4.884   8.419
91964SOL     OW77788   2.590   6.966   9.907
91964SOL    HW177789   2.531   6.896   9.879
91964SOL    HW277790   2.675   6.941   9.870
91965SOL     OW77791   7.331   7.645   5.454
91965SOL    HW177792   7.274   7.627   5.380
91965SOL    HW277793   7.334   7.741   5.459
91966SOL     OW77794  12.875   8.633   6.029
91966SOL    HW177795  12.792   8.588   6.014
91966SOL    HW277796  12.850   8.713   6.077
91967SOL     OW77797  12.011   8.693   9.850
91967SOL    HW177798  12.103   8.707   9.873
91967SOL    HW277799  11.979   8.780   9.824
91968SOL     OW77800   1.878   7.366  12.003
91968SOL    HW177801   1.951   7.332  11.950
91968SOL    HW277802   1.920   7.425  12.066
91969SOL     OW77803   2.624   1.815  10.025
91969SOL    HW177804   2.539   1.816   9.980
91969SOL    HW277805   2.613   1.749  10.094
91970SOL     OW77806  10.428   9.128  14.781
91970SOL    HW177807  10.386   9.186  14.717
91970SOL    HW277808  10.356   9.078  14.820
91971SOL     OW77809  12.061   8.721   4.961
91971SOL    HW177810  12.059   8.625   4.954
91971SOL    HW277811  12.021   8.739   5.047
91972SOL     OW77812   6.062   9.433  11.948
91972SOL    HW177813   6.123   9.388  12.007
91972SOL    HW277814   6.117   9.462  11.875
91973SOL     OW77815   5.206   0.089  11.276
91973SOL    HW177816   5.111   0.079  11.267
91973SOL    HW277817   5.226   0.056  11.363
91974SOL     OW77818   0.622  12.823   8.490
91974SOL    HW177819   0.582  12.862   8.412
91974SOL    HW277820   0.639  12.732   8.466
91975SOL     OW77821   0.646   9.788   0.490
91975SOL    HW177822   0.681   9.757   0.574
91975SOL    HW277823   0.584   9.857   0.513
91976SOL     OW77824   0.071   1.273  13.263
91976SOL    HW177825   0.033   1.228  13.339
91976SOL    HW277826  14.878   1.296  13.209
91977SOL     OW77827   9.946   9.710   5.056
91977SOL    HW177828   9.855   9.727   5.031
91977SOL    HW277829   9.940   9.641   5.121
91978SOL     OW77830   1.174  12.907   5.681
91978SOL    HW177831   1.238  12.956   5.630
91978SOL    HW277832   1.225  12.871   5.754
91979SOL     OW77833   9.860   5.994   5.917
91979SOL    HW177834   9.883   5.989   5.824
91979SOL    HW277835   9.781   6.048   5.919
91980SOL     OW77836  13.797   3.327  13.559
91980SOL    HW177837  13.724   3.314  13.498
91980SOL    HW277838  13.875   3.315  13.506
91981SOL     OW77839   4.883  12.011  10.927
91981SOL    HW177840   4.793  12.006  10.958
91981SOL    HW277841   4.896  12.103  10.904
91982SOL     OW77842   3.843   1.558  10.198
91982SOL    HW177843   3.824   1.541  10.290
91982SOL    HW277844   3.757   1.572  10.158
91983SOL     OW77845   9.747   1.358   7.851
91983SOL    HW177846   9.836   1.336   7.823
91983SOL    HW277847   9.755   1.443   7.895
91984SOL     OW77848   1.094   5.498  13.895
91984SOL    HW177849   1.031   5.471  13.962
91984SOL    HW277850   1.167   5.535  13.945
91985SOL     OW77851   9.192   4.624  13.906
91985SOL    HW177852   9.127   4.628  13.836
91985SOL    HW277853   9.186   4.535  13.940
91986SOL     OW77854  10.565   0.524   8.773
91986SOL    HW177855  10.617   0.501   8.696
91986SOL    HW277856  10.625   0.573   8.829
91987SOL     OW77857  11.148  10.364   4.564
91987SOL    HW177858  11.077  10.416   4.527
91987SOL    HW277859  11.192  10.423   4.625
91988SOL     OW77860   0.249   1.245  12.154
91988SOL    HW177861   0.187   1.294  12.099
91988SOL    HW277862   0.277   1.308  12.220
91989SOL     OW77863  12.182   3.950  10.209
91989SOL    HW177864  12.097   3.977  10.174
91989SOL    HW277865  12.210   4.024  10.264
91990SOL     OW77866  13.810   6.143   2.124
91990SOL    HW177867  13.851   6.204   2.185
91990SOL    HW277868  13.878   6.077   2.107
91991SOL     OW77869   0.953   4.656   8.981
91991SOL    HW177870   0.949   4.656   9.076
91991SOL    HW277871   0.869   4.617   8.954
91992SOL     OW77872   6.961   7.825   5.401
91992SOL    HW177873   6.869   7.851   5.397
91992SOL    HW277874   7.003   7.874   5.330
91993SOL     OW77875   0.398   4.766  10.211
91993SOL    HW177876   0.405   4.767  10.307
91993SOL    HW277877   0.456   4.836  10.182
91994SOL     OW77878  13.140   3.785   9.062
91994SOL    HW177879  13.078   3.855   9.041
91994SOL    HW277880  13.224   3.817   9.029
91995SOL     OW77881   5.821   8.575   7.627
91995SOL    HW177882   5.910   8.609   7.630
91995SOL    HW277883   5.831   8.484   7.598
91996SOL     OW77884  12.946   4.213   6.125
91996SOL    HW177885  13.007   4.174   6.062
91996SOL    HW277886  12.893   4.139   6.156
91997SOL     OW77887  12.100   0.472   4.417
91997SOL    HW177888  12.048   0.470   4.337
91997SOL    HW277889  12.180   0.423   4.394
91998SOL     OW77890  14.182   7.959   6.714
91998SOL    HW177891  14.246   8.012   6.667
91998SOL    HW277892  14.228   7.877   6.732
91999SOL     OW77893  13.040   4.973   2.442
91999SOL    HW177894  13.097   4.932   2.506
91999SOL    HW277895  13.088   5.050   2.412
92000SOL     OW77896   7.299  13.704  13.681
92000SOL    HW177897   7.226  13.657  13.721
92000SOL    HW277898   7.322  13.771  13.746
92001SOL     OW77899   4.648   0.040   2.689
92001SOL    HW177900   4.730   0.023   2.734
92001SOL    HW277901   4.667   0.023   2.597
92002SOL     OW77902   8.152   6.859   7.216
92002SOL    HW177903   8.103   6.875   7.297
92002SOL    HW277904   8.199   6.777   7.233
92003SOL     OW77905   5.130  14.326   2.808
92003SOL    HW177906   5.221  14.296   2.808
92003SOL    HW277907   5.081  14.253   2.770
92004SOL     OW77908   3.923   1.347  11.624
92004SOL    HW177909   3.946   1.318  11.713
92004SOL    HW277910   3.868   1.425  11.638
92005SOL     OW77911   7.147   3.691  14.348
92005SOL    HW177912   7.103   3.708  14.432
92005SOL    HW277913   7.180   3.602  14.356
92006SOL     OW77914   9.213   2.833  11.992
92006SOL    HW177915   9.274   2.871  11.928
92006SOL    HW277916   9.250   2.858  12.077
92007SOL     OW77917   7.237   3.176   6.279
92007SOL    HW177918   7.196   3.109   6.334
92007SOL    HW277919   7.166   3.233   6.252
92008SOL     OW77920   9.111  13.867  11.377
92008SOL    HW177921   9.193  13.865  11.328
92008SOL    HW277922   9.056  13.803  11.334
92009SOL     OW77923  13.386   7.577   0.334
92009SOL    HW177924  13.416   7.543   0.250
92009SOL    HW277925  13.291   7.570   0.330
92010SOL     OW77926  12.446   7.705  10.193
92010SOL    HW177927  12.499   7.748  10.260
92010SOL    HW277928  12.461   7.757  10.114
92011SOL     OW77929   6.772   7.775   4.567
92011SOL    HW177930   6.813   7.737   4.645
92011SOL    HW277931   6.681   7.745   4.570
92012SOL     OW77932   3.478   6.511   1.967
92012SOL    HW177933   3.566   6.529   1.998
92012SOL    HW277934   3.485   6.518   1.872
92013SOL     OW77935   3.578  10.835   9.682
92013SOL    HW177936   3.656  10.889   9.671
92013SOL    HW277937   3.506  10.898   9.691
92014SOL     OW77938   7.991   3.500   4.306
92014SOL    HW177939   8.081   3.508   4.274
92014SOL    HW277940   7.941   3.468   4.231
92015SOL     OW77941   8.756   2.589   7.955
92015SOL    HW177942   8.848   2.614   7.953
92015SOL    HW277943   8.714   2.645   7.890
92016SOL     OW77944  12.998   6.851  14.387
92016SOL    HW177945  13.029   6.859  14.477
92016SOL    HW277946  12.954   6.765  14.384
92017SOL     OW77947  14.576   8.252   7.260
92017SOL    HW177948  14.501   8.204   7.227
92017SOL    HW277949  14.563   8.342   7.230
92018SOL     OW77950   8.521  12.777   1.621
92018SOL    HW177951   8.521  12.869   1.646
92018SOL    HW277952   8.611  12.749   1.635
92019SOL     OW77953   4.972  13.683   6.700
92019SOL    HW177954   5.010  13.670   6.613
92019SOL    HW277955   4.900  13.745   6.686
92020SOL     OW77956   3.570   6.111   7.088
92020SOL    HW177957   3.634   6.079   7.024
92020SOL    HW277958   3.554   6.036   7.146
92021SOL     OW77959  11.139   4.780   4.081
92021SOL    HW177960  11.194   4.837   4.135
92021SOL    HW277961  11.158   4.807   3.991
92022SOL     OW77962   4.386  11.884   8.206
92022SOL    HW177963   4.409  11.820   8.139
92022SOL    HW277964   4.291  11.878   8.214
92023SOL     OW77965  12.975   2.412   5.191
92023SOL    HW177966  13.011   2.499   5.174
92023SOL    HW277967  13.037   2.371   5.251
92024SOL     OW77968   5.613  13.377   8.631
92024SOL    HW177969   5.538  13.414   8.584
92024SOL    HW277970   5.584  13.371   8.722
92025SOL     OW77971   9.366   4.899  12.266
92025SOL    HW177972   9.309   4.970  12.235
92025SOL    HW277973   9.398   4.930  12.351
92026SOL     OW77974   8.228  10.786   1.039
92026SOL    HW177975   8.193  10.875   1.045
92026SOL    HW277976   8.319  10.794   1.069
92027SOL     OW77977   5.606   9.511   9.661
92027SOL    HW177978   5.694   9.546   9.675
92027SOL    HW277979   5.562   9.579   9.610
92028SOL     OW77980  11.462  10.024   6.040
92028SOL    HW177981  11.488   9.992   5.953
92028SOL    HW277982  11.376   9.986   6.055
92029SOL     OW77983   4.499   4.056   3.561
92029SOL    HW177984   4.429   4.082   3.621
92029SOL    HW277985   4.455   4.043   3.477
92030SOL     OW77986   3.741  13.962   0.444
92030SOL    HW177987   3.717  14.012   0.367
92030SOL    HW277988   3.686  13.884   0.441
92031SOL     OW77989  11.170   1.949   9.771
92031SOL    HW177990  11.165   2.023   9.709
92031SOL    HW277991  11.081   1.941   9.805
92032SOL     OW77992  14.371   1.256   4.477
92032SOL    HW177993  14.288   1.268   4.431
92032SOL    HW277994  14.427   1.328   4.447
92033SOL     OW77995   6.300   9.439   0.993
92033SOL    HW177996   6.386   9.472   0.969
92033SOL    HW277997   6.303   9.346   0.972
92034SOL     OW77998   4.830   0.892  13.380
92034SOL    HW177999   4.902   0.834  13.404
92034SOL    HW278000   4.751   0.838  13.388
92035SOL     OW78001  11.321   8.663   3.984
92035SOL    HW178002  11.314   8.710   4.068
92035SOL    HW278003  11.278   8.721   3.921
92036SOL     OW78004  14.747   6.956   2.456
92036SOL    HW178005  14.789   6.900   2.391
92036SOL    HW278006  14.730   7.038   2.409
92037SOL     OW78007  13.188   6.734   7.978
92037SOL    HW178008  13.217   6.790   8.050
92037SOL    HW278009  13.112   6.687   8.012
92038SOL     OW78010   3.606   5.199   1.721
92038SOL    HW178011   3.556   5.119   1.732
92038SOL    HW278012   3.620   5.232   1.810
92039SOL     OW78013   5.758   6.049   2.080
92039SOL    HW178014   5.845   6.038   2.042
92039SOL    HW278015   5.705   5.981   2.039
92040SOL     OW78016   3.509   3.173  12.033
92040SOL    HW178017   3.531   3.084  12.008
92040SOL    HW278018   3.464   3.210  11.957
92041SOL     OW78019  13.639   2.364   2.086
92041SOL    HW178020  13.643   2.436   2.024
92041SOL    HW278021  13.554   2.373   2.129
92042SOL     OW78022   2.534   1.313  11.603
92042SOL    HW178023   2.462   1.280  11.657
92042SOL    HW278024   2.547   1.403  11.634
92043SOL     OW78025   9.071   8.499   6.081
92043SOL    HW178026   9.064   8.403   6.084
92043SOL    HW278027   9.157   8.516   6.043
92044SOL     OW78028   5.091  10.918   2.254
92044SOL    HW178029   5.136  10.909   2.337
92044SOL    HW278030   5.070  11.011   2.248
92045SOL     OW78031  11.016   2.419   7.373
92045SOL    HW178032  10.945   2.462   7.326
92045SOL    HW278033  11.043   2.483   7.439
92046SOL     OW78034   0.212  10.641   3.812
92046SOL    HW178035   0.194  10.702   3.884
92046SOL    HW278036   0.260  10.694   3.748
92047SOL     OW78037  14.806   1.241   2.995
92047SOL    HW178038  14.852   1.315   2.956
92047SOL    HW278039  14.796   1.179   2.923
92048SOL     OW78040   3.254  14.605   1.884
92048SOL    HW178041   3.217  14.692   1.898
92048SOL    HW278042   3.341  14.621   1.848
92049SOL     OW78043   3.410   4.467   8.463
92049SOL    HW178044   3.384   4.454   8.372
92049SOL    HW278045   3.364   4.398   8.511
92050SOL     OW78046   3.256  10.330  12.894
92050SOL    HW178047   3.249  10.422  12.868
92050SOL    HW278048   3.302  10.289  12.821
92051SOL     OW78049  13.006   1.104  13.623
92051SOL    HW178050  13.045   1.044  13.687
92051SOL    HW278051  13.076   1.166  13.603
92052SOL     OW78052   3.453  11.449   4.793
92052SOL    HW178053   3.449  11.465   4.699
92052SOL    HW278054   3.478  11.533   4.831
92053SOL     OW78055  10.256   7.134  13.786
92053SOL    HW178056  10.262   7.067  13.718
92053SOL    HW278057  10.290   7.213  13.745
92054SOL     OW78058   2.661   2.907   8.378
92054SOL    HW178059   2.707   2.824   8.372
92054SOL    HW278060   2.686   2.955   8.299
92055SOL     OW78061   1.785   0.556   6.300
92055SOL    HW178062   1.725   0.482   6.303
92055SOL    HW278063   1.784   0.591   6.390
92056SOL     OW78064   5.935   3.858  12.961
92056SOL    HW178065   5.877   3.904  12.900
92056SOL    HW278066   5.940   3.769  12.927
92057SOL     OW78067  12.085  12.338   2.326
92057SOL    HW178068  12.015  12.300   2.379
92057SOL    HW278069  12.042  12.364   2.245
92058SOL     OW78070   2.689  11.321   5.491
92058SOL    HW178071   2.607  11.308   5.444
92058SOL    HW278072   2.757  11.318   5.423
92059SOL     OW78073   3.089   9.206   6.122
92059SOL    HW178074   3.036   9.286   6.123
92059SOL    HW278075   3.173   9.234   6.086
92060SOL     OW78076   4.384   3.788   8.143
92060SOL    HW178077   4.387   3.739   8.060
92060SOL    HW278078   4.455   3.851   8.136
92061SOL     OW78079   6.901   7.674  12.309
92061SOL    HW178080   6.926   7.616  12.237
92061SOL    HW278081   6.913   7.621  12.388
92062SOL     OW78082  13.986   3.477   8.395
92062SOL    HW178083  13.998   3.548   8.458
92062SOL    HW278084  13.907   3.502   8.347
92063SOL     OW78085  11.114   9.643  14.515
92063SOL    HW178086  11.027   9.667  14.483
92063SOL    HW278087  11.116   9.548  14.512
92064SOL     OW78088  12.379   5.861   8.974
92064SOL    HW178089  12.383   5.852   8.879
92064SOL    HW278090  12.457   5.913   8.996
92065SOL     OW78091   6.259   6.805   0.143
92065SOL    HW178092   6.276   6.712   0.161
92065SOL    HW278093   6.166   6.808   0.121
92066SOL     OW78094  11.457   1.244  12.011
92066SOL    HW178095  11.541   1.249  12.057
92066SOL    HW278096  11.391   1.251  12.081
92067SOL     OW78097   3.575   0.477  10.348
92067SOL    HW178098   3.482   0.454  10.354
92067SOL    HW278099   3.589   0.539  10.419
92068SOL     OW78100   2.754  12.838   0.857
92068SOL    HW178101   2.832  12.805   0.901
92068SOL    HW278102   2.744  12.781   0.781
92069SOL     OW78103   8.961   6.545  12.400
92069SOL    HW178104   8.871   6.551  12.432
92069SOL    HW278105   8.982   6.634  12.370
92070SOL     OW78106   0.963   0.612   4.265
92070SOL    HW178107   1.016   0.540   4.229
92070SOL    HW278108   0.965   0.598   4.360
92071SOL     OW78109   7.810  14.230  14.416
92071SOL    HW178110   7.816  14.283  14.337
92071SOL    HW278111   7.759  14.153  14.390
92072SOL     OW78112  13.830   5.591  13.197
92072SOL    HW178113  13.819   5.574  13.103
92072SOL    HW278114  13.834   5.687  13.203
92073SOL     OW78115   2.062  11.253   3.171
92073SOL    HW178116   2.065  11.320   3.102
92073SOL    HW278117   2.047  11.171   3.125
92074SOL     OW78118   7.014   6.197  13.197
92074SOL    HW178119   7.052   6.171  13.113
92074SOL    HW278120   7.069   6.269  13.228
92075SOL     OW78121   7.463   3.726   1.357
92075SOL    HW178122   7.515   3.807   1.362
92075SOL    HW278123   7.496   3.681   1.279
92076SOL     OW78124  14.071   8.124   3.416
92076SOL    HW178125  14.066   8.094   3.506
92076SOL    HW278126  13.983   8.111   3.381
92077SOL     OW78127  12.298  11.289   4.054
92077SOL    HW178128  12.344  11.312   3.973
92077SOL    HW278129  12.367  11.288   4.120
92078SOL     OW78130   0.893   9.179  14.476
92078SOL    HW178131   0.901   9.184  14.571
92078SOL    HW278132   0.927   9.092  14.454
92079SOL     OW78133   8.290   9.325   5.141
92079SOL    HW178134   8.198   9.348   5.156
92079SOL    HW278135   8.288   9.264   5.067
92080SOL     OW78136  13.949  11.309   4.746
92080SOL    HW178137  13.960  11.295   4.652
92080SOL    HW278138  13.966  11.403   4.759
92081SOL     OW78139  11.371   2.801  11.429
92081SOL    HW178140  11.310   2.869  11.400
92081SOL    HW278141  11.322   2.720  11.418
92082SOL     OW78142   4.648   6.966  14.228
92082SOL    HW178143   4.732   7.011  14.219
92082SOL    HW278144   4.668   6.887  14.278
92083SOL     OW78145  11.476  13.041   9.681
92083SOL    HW178146  11.392  13.020   9.641
92083SOL    HW278147  11.478  13.137   9.684
92084SOL     OW78148   4.612  12.317   7.988
92084SOL    HW178149   4.533  12.264   7.997
92084SOL    HW278150   4.581  12.407   7.999
92085SOL     OW78151  14.296  12.908   2.695
92085SOL    HW178152  14.228  12.969   2.723
92085SOL    HW278153  14.251  12.849   2.635
92086SOL     OW78154   2.864   8.963   1.467
92086SOL    HW178155   2.917   8.948   1.389
92086SOL    HW278156   2.927   8.972   1.538
92087SOL     OW78157   6.340   1.822   3.348
92087SOL    HW178158   6.302   1.902   3.383
92087SOL    HW278159   6.407   1.797   3.412
92088SOL     OW78160   2.580   5.498   8.080
92088SOL    HW178161   2.598   5.591   8.094
92088SOL    HW278162   2.666   5.457   8.070
92089SOL     OW78163   6.412   3.923   2.169
92089SOL    HW178164   6.430   3.837   2.207
92089SOL    HW278165   6.447   3.986   2.233
92090SOL     OW78166   9.310  11.879  12.678
92090SOL    HW178167   9.261  11.959  12.698
92090SOL    HW278168   9.399  11.909  12.660
92091SOL     OW78169   2.395  13.175   6.428
92091SOL    HW178170   2.448  13.238   6.475
92091SOL    HW278171   2.457  13.127   6.373
92092SOL     OW78172   0.627  13.077   4.725
92092SOL    HW178173   0.668  13.163   4.734
92092SOL    HW278174   0.533  13.095   4.722
92093SOL     OW78175   0.787   7.038   4.327
92093SOL    HW178176   0.696   7.034   4.300
92093SOL    HW278177   0.788   7.000   4.415
92094SOL     OW78178   6.423   5.491   4.519
92094SOL    HW178179   6.514   5.502   4.547
92094SOL    HW278180   6.397   5.578   4.487
92095SOL     OW78181  10.400  10.082  13.372
92095SOL    HW178182  10.420  10.056  13.282
92095SOL    HW278183  10.483  10.069  13.419
92096SOL     OW78184   1.811  14.311   2.232
92096SOL    HW178185   1.886  14.254   2.251
92096SOL    HW278186   1.743  14.283   2.294
92097SOL     OW78187  11.825   5.651  13.219
92097SOL    HW178188  11.764   5.622  13.287
92097SOL    HW278189  11.780   5.723  13.176
92098SOL     OW78190   2.670   8.517   2.741
92098SOL    HW178191   2.608   8.530   2.669
92098SOL    HW278192   2.631   8.564   2.815
92099SOL     OW78193  14.236  12.683   2.533
92099SOL    HW178194  14.146  12.656   2.550
92099SOL    HW278195  14.289  12.631   2.594
92100SOL     OW78196   5.332  13.268  11.867
92100SOL    HW178197   5.366  13.178  11.864
92100SOL    HW278198   5.236  13.257  11.865
92101SOL     OW78199   2.293   5.095   1.209
92101SOL    HW178200   2.240   5.076   1.286
92101SOL    HW278201   2.362   5.153   1.240
92102SOL     OW78202   5.658   1.008  11.079
92102SOL    HW178203   5.568   0.975  11.085
92102SOL    HW278204   5.647   1.101  11.059
92103SOL     OW78205   3.753  12.760  13.502
92103SOL    HW178206   3.732  12.677  13.459
92103SOL    HW278207   3.748  12.825  13.431
92104SOL     OW78208   4.409   8.624   1.628
92104SOL    HW178209   4.486   8.668   1.664
92104SOL    HW278210   4.386   8.674   1.550
92105SOL     OW78211  13.323   7.016  13.880
92105SOL    HW178212  13.304   7.009  13.974
92105SOL    HW278213  13.339   7.109  13.866
92106SOL     OW78214   4.434   7.512   7.438
92106SOL    HW178215   4.355   7.552   7.476
92106SOL    HW278216   4.492   7.501   7.513
92107SOL     OW78217  11.368   5.436  10.921
92107SOL    HW178218  11.418   5.496  10.977
92107SOL    HW278219  11.314   5.494  10.867
92108SOL     OW78220   7.981  11.524   9.124
92108SOL    HW178221   7.959  11.556   9.037
92108SOL    HW278222   8.066  11.482   9.113
92109SOL     OW78223  13.762  11.525   3.342
92109SOL    HW178224  13.694  11.543   3.277
92109SOL    HW278225  13.806  11.446   3.310
92110SOL     OW78226   6.053   9.220   9.531
92110SOL    HW178227   5.987   9.260   9.473
92110SOL    HW278228   6.134   9.266   9.510
92111SOL     OW78229  10.510  11.425  11.566
92111SOL    HW178230  10.583  11.375  11.603
92111SOL    HW278231  10.443  11.358  11.547
92112SOL     OW78232   7.287   1.592   8.049
92112SOL    HW178233   7.257   1.502   8.060
92112SOL    HW278234   7.377   1.584   8.016
92113SOL     OW78235   1.175   2.737   2.212
92113SOL    HW178236   1.188   2.650   2.249
92113SOL    HW278237   1.107   2.726   2.146
92114SOL     OW78238   2.128   4.558  12.535
92114SOL    HW178239   2.088   4.553  12.449
92114SOL    HW278240   2.086   4.488  12.585
92115SOL     OW78241   9.113   1.318  14.794
92115SOL    HW178242   9.039   1.260  14.777
92115SOL    HW278243   9.074   1.394  14.837
92116SOL     OW78244   5.113   7.881  14.525
92116SOL    HW178245   5.076   7.938  14.591
92116SOL    HW278246   5.047   7.813  14.511
92117SOL     OW78247   7.276   9.757   2.327
92117SOL    HW178248   7.207   9.699   2.295
92117SOL    HW278249   7.314   9.795   2.248
92118SOL     OW78250  13.609   0.872   7.381
92118SOL    HW178251  13.534   0.927   7.359
92118SOL    HW278252  13.640   0.838   7.297
92119SOL     OW78253   0.858   5.425   5.605
92119SOL    HW178254   0.846   5.456   5.515
92119SOL    HW278255   0.865   5.330   5.597
92120SOL     OW78256   0.065   0.370   0.327
92120SOL    HW178257   0.021   0.372   0.242
92120SOL    HW278258   0.047   0.283   0.362
92121SOL     OW78259  14.732   9.177   8.813
92121SOL    HW178260  14.644   9.164   8.777
92121SOL    HW278261  14.791   9.147   8.745
92122SOL     OW78262   4.471   3.370   3.173
92122SOL    HW178263   4.387   3.367   3.219
92122SOL    HW278264   4.458   3.315   3.095
92123SOL     OW78265   1.137  12.259  10.132
92123SOL    HW178266   1.103  12.217  10.211
92123SOL    HW278267   1.211  12.312  10.163
92124SOL     OW78268   8.133   8.132   5.339
92124SOL    HW178269   8.149   8.136   5.434
92124SOL    HW278270   8.210   8.173   5.300
92125SOL     OW78271  11.366   6.876   8.669
92125SOL    HW178272  11.414   6.906   8.591
92125SOL    HW278273  11.386   6.783   8.675
92126SOL     OW78274   1.482   6.983  14.314
92126SOL    HW178275   1.460   7.020  14.400
92126SOL    HW278276   1.539   7.049  14.274
92127SOL     OW78277   1.365   0.202   8.891
92127SOL    HW178278   1.418   0.277   8.916
92127SOL    HW278279   1.343   0.159   8.974
92128SOL     OW78280   2.939   3.299   4.907
92128SOL    HW178281   2.847   3.315   4.930
92128SOL    HW278282   2.939   3.213   4.866
92129SOL     OW78283  13.213   2.098  13.936
92129SOL    HW178284  13.146   2.031  13.923
92129SOL    HW278285  13.164   2.174  13.966
92130SOL     OW78286  11.854  14.730  12.030
92130SOL    HW178287  11.859  14.670  11.955
92130SOL    HW278288  11.767  14.713  12.068
92131SOL     OW78289  10.411  12.805   2.134
92131SOL    HW178290  10.505  12.786   2.140
92131SOL    HW278291  10.390  12.849   2.216
92132SOL     OW78292  13.701   6.265   3.448
92132SOL    HW178293  13.622   6.214   3.467
92132SOL    HW278294  13.749   6.213   3.384
92133SOL     OW78295   4.326   0.136  12.635
92133SOL    HW178296   4.366   0.055  12.606
92133SOL    HW278297   4.359   0.203  12.575
92134SOL     OW78298  13.452   4.587  11.552
92134SOL    HW178299  13.525   4.621  11.500
92134SOL    HW278300  13.393   4.661  11.561
92135SOL     OW78301   0.976  11.179  13.027
92135SOL    HW178302   0.902  11.240  13.025
92135SOL    HW278303   0.960  11.119  12.954
92136SOL     OW78304   1.925  11.371   4.493
92136SOL    HW178305   1.933  11.450   4.440
92136SOL    HW278306   1.983  11.307   4.452
92137SOL     OW78307   1.108   4.380   5.886
92137SOL    HW178308   1.101   4.308   5.948
92137SOL    HW278309   1.066   4.454   5.930
92138SOL     OW78310  13.122   3.986   3.803
92138SOL    HW178311  13.124   3.994   3.707
92138SOL    HW278312  13.212   4.001   3.830
92139SOL     OW78313   6.587   3.215  10.230
92139SOL    HW178314   6.680   3.240  10.234
92139SOL    HW278315   6.587   3.132  10.182
92140SOL     OW78316   1.329   7.390   4.539
92140SOL    HW178317   1.349   7.300   4.564
92140SOL    HW278318   1.238   7.387   4.509
92141SOL     OW78319   4.913   1.848   8.358
92141SOL    HW178320   4.996   1.886   8.388
92141SOL    HW278321   4.937   1.796   8.281
92142SOL     OW78322   4.032  14.426  10.149
92142SOL    HW178323   4.106  14.368  10.166
92142SOL    HW278324   4.023  14.426  10.054
92143SOL     OW78325   1.387  12.712   5.446
92143SOL    HW178326   1.327  12.751   5.383
92143SOL    HW278327   1.464  12.688   5.394
92144SOL     OW78328   8.672   4.053   5.201
92144SOL    HW178329   8.631   4.130   5.162
92144SOL    HW278330   8.616   3.980   5.175
92145SOL     OW78331  14.671  11.431   6.100
92145SOL    HW178332  14.676  11.520   6.136
92145SOL    HW278333  14.763  11.403   6.095
92146SOL     OW78334   7.542   4.128  13.002
92146SOL    HW178335   7.480   4.055  12.994
92146SOL    HW278336   7.563   4.133  13.095
92147SOL     OW78337   1.651   1.025  10.265
92147SOL    HW178338   1.678   1.099  10.210
92147SOL    HW278339   1.709   1.029  10.341
92148SOL     OW78340  12.869   6.141   3.881
92148SOL    HW178341  12.785   6.162   3.922
92148SOL    HW278342  12.874   6.199   3.805
92149SOL     OW78343   3.445  13.096  13.521
92149SOL    HW178344   3.461  13.137  13.606
92149SOL    HW278345   3.526  13.108  13.472
92150SOL     OW78346  10.836   6.552   4.963
92150SOL    HW178347  10.817   6.626   4.905
92150SOL    HW278348  10.873   6.485   4.905
92151SOL     OW78349  14.333   8.047  14.051
92151SOL    HW178350  14.339   8.054  13.955
92151SOL    HW278351  14.291   7.963  14.066
92152SOL     OW78352   4.083   1.958  13.998
92152SOL    HW178353   4.083   2.035  14.054
92152SOL    HW278354   4.098   1.992  13.910
92153SOL     OW78355   8.040   0.225   7.367
92153SOL    HW178356   8.069   0.254   7.281
92153SOL    HW278357   8.064   0.296   7.426
92154SOL     OW78358   1.631   7.552  14.042
92154SOL    HW178359   1.576   7.630  14.056
92154SOL    HW278360   1.684   7.574  13.965
92155SOL     OW78361  11.392   2.533   4.226
92155SOL    HW178362  11.321   2.583   4.266
92155SOL    HW278363  11.378   2.443   4.255
92156SOL     OW78364   1.223  12.526  14.503
92156SOL    HW178365   1.274  12.451  14.535
92156SOL    HW278366   1.271  12.603  14.535
92157SOL     OW78367   9.118   1.071  14.546
92157SOL    HW178368   9.115   1.074  14.451
92157SOL    HW278369   9.210   1.085  14.568
92158SOL     OW78370   8.583   7.901   2.675
92158SOL    HW178371   8.498   7.859   2.668
92158SOL    HW278372   8.571   7.987   2.633
92159SOL     OW78373   0.928   4.231   6.442
92159SOL    HW178374   0.921   4.173   6.518
92159SOL    HW278375   0.995   4.295   6.466
92160SOL     OW78376   0.191  12.457   9.398
92160SOL    HW178377   0.108  12.454   9.351
92160SOL    HW278378   0.246  12.516   9.345
92161SOL     OW78379  11.764  13.031   2.390
92161SOL    HW178380  11.726  12.949   2.359
92161SOL    HW278381  11.711  13.053   2.467
92162SOL     OW78382  14.441   5.448   0.152
92162SOL    HW178383  14.364   5.395   0.173
92162SOL    HW278384  14.514   5.387   0.157
92163SOL     OW78385   3.843   7.883   1.933
92163SOL    HW178386   3.835   7.971   1.969
92163SOL    HW278387   3.831   7.894   1.839
92164SOL     OW78388   7.551   0.986  10.729
92164SOL    HW178389   7.538   0.897  10.697
92164SOL    HW278390   7.621   0.979  10.794
92165SOL     OW78391  11.075   8.527   0.549
92165SOL    HW178392  10.987   8.496   0.531
92165SOL    HW278393  11.073   8.620   0.527
92166SOL     OW78394  10.372   4.596  11.690
92166SOL    HW178395  10.362   4.690  11.680
92166SOL    HW278396  10.364   4.561  11.601
92167SOL     OW78397   1.382   4.736   5.811
92167SOL    HW178398   1.375   4.641   5.810
92167SOL    HW278399   1.327   4.764   5.737
92168SOL     OW78400   8.415   6.130   8.576
92168SOL    HW178401   8.327   6.112   8.543
92168SOL    HW278402   8.424   6.076   8.654
92169SOL     OW78403   4.020   6.775  10.544
92169SOL    HW178404   3.962   6.823  10.486
92169SOL    HW278405   3.979   6.689  10.554
92170SOL     OW78406   0.750  12.481   1.027
92170SOL    HW178407   0.684  12.426   1.068
92170SOL    HW278408   0.824  12.422   1.010
92171SOL     OW78409   4.201  10.121   5.999
92171SOL    HW178410   4.135  10.186   5.975
92171SOL    HW278411   4.231  10.086   5.915
92172SOL     OW78412   5.173  11.161  10.507
92172SOL    HW178413   5.159  11.079  10.460
92172SOL    HW278414   5.085  11.192  10.528
92173SOL     OW78415  12.947   7.460   9.696
92173SOL    HW178416  12.958   7.545   9.738
92173SOL    HW278417  12.994   7.399   9.754
92174SOL     OW78418  12.494   1.240   6.073
92174SOL    HW178419  12.408   1.213   6.106
92174SOL    HW278420  12.487   1.233   5.978
92175SOL     OW78421  10.054  13.854   8.243
92175SOL    HW178422  10.079  13.930   8.296
92175SOL    HW278423  10.039  13.785   8.307
92176SOL     OW78424   2.199  13.183   7.729
92176SOL    HW178425   2.139  13.109   7.740
92176SOL    HW278426   2.159  13.235   7.659
92177SOL     OW78427  13.601   5.789   1.526
92177SOL    HW178428  13.549   5.806   1.605
92177SOL    HW278429  13.619   5.695   1.529
92178SOL     OW78430   9.099  13.547  12.800
92178SOL    HW178431   9.027  13.488  12.781
92178SOL    HW278432   9.178  13.493  12.789
92179SOL     OW78433   3.848   4.962  12.971
92179SOL    HW178434   3.805   5.047  12.981
92179SOL    HW278435   3.786   4.910  12.921
92180SOL     OW78436  11.063   7.495   4.669
92180SOL    HW178437  10.981   7.531   4.634
92180SOL    HW278438  11.043   7.403   4.686
92181SOL     OW78439   5.202   7.697  14.864
92181SOL    HW178440   5.238   7.614   0.013
92181SOL    HW278441   5.259   7.723  14.792
92182SOL     OW78442  12.747  13.844  10.487
92182SOL    HW178443  12.717  13.875  10.402
92182SOL    HW278444  12.727  13.750  10.486
92183SOL     OW78445   4.573   1.137   9.094
92183SOL    HW178446   4.550   1.229   9.099
92183SOL    HW278447   4.603   1.115   9.182
92184SOL     OW78448  14.547   4.310  10.203
92184SOL    HW178449  14.626   4.265  10.175
92184SOL    HW278450  14.567   4.341  10.291
92185SOL     OW78451   3.846  12.011   8.180
92185SOL    HW178452   3.910  12.077   8.208
92185SOL    HW278453   3.763  12.041   8.216
92186SOL     OW78454   1.310   3.891   5.963
92186SOL    HW178455   1.357   3.816   5.927
92186SOL    HW278456   1.366   3.966   5.944
92187SOL     OW78457   0.246  12.715   6.868
92187SOL    HW178458   0.291  12.682   6.946
92187SOL    HW278459   0.309  12.773   6.826
92188SOL     OW78460  11.641  12.621  11.491
92188SOL    HW178461  11.609  12.626  11.401
92188SOL    HW278462  11.730  12.657  11.487
92189SOL     OW78463  12.297   1.539  12.309
92189SOL    HW178464  12.203   1.523  12.298
92189SOL    HW278465  12.337   1.496  12.234
92190SOL     OW78466  10.351   8.622  10.013
92190SOL    HW178467  10.266   8.596  10.047
92190SOL    HW278468  10.339   8.713   9.987
92191SOL     OW78469   3.744   7.885   3.382
92191SOL    HW178470   3.734   7.842   3.467
92191SOL    HW278471   3.654   7.895   3.351
92192SOL     OW78472  12.500   8.580   7.246
92192SOL    HW178473  12.574   8.618   7.200
92192SOL    HW278474  12.513   8.606   7.337
92193SOL     OW78475  13.066   6.300  10.314
92193SOL    HW178476  13.095   6.281  10.403
92193SOL    HW278477  13.145   6.291  10.261
92194SOL     OW78478   5.254   5.371   6.870
92194SOL    HW178479   5.324   5.400   6.929
92194SOL    HW278480   5.289   5.385   6.782
92195SOL     OW78481   8.466  11.055   4.896
92195SOL    HW178482   8.387  11.017   4.857
92195SOL    HW278483   8.538  11.005   4.856
92196SOL     OW78484   6.987  13.112   1.977
92196SOL    HW178485   6.921  13.053   1.939
92196SOL    HW278486   6.949  13.199   1.969
92197SOL     OW78487   4.301   3.020   7.788
92197SOL    HW178488   4.247   2.970   7.727
92197SOL    HW278489   4.296   2.972   7.870
92198SOL     OW78490   7.821   9.418  14.205
92198SOL    HW178491   7.835   9.364  14.283
92198SOL    HW278492   7.890   9.484  14.209
92199SOL     OW78493  13.211   4.203  12.136
92199SOL    HW178494  13.286   4.189  12.194
92199SOL    HW278495  13.136   4.208  12.195
92200SOL     OW78496  12.368  10.959  11.675
92200SOL    HW178497  12.362  10.991  11.585
92200SOL    HW278498  12.396  10.868  11.665
92201SOL     OW78499  13.142  14.069   7.009
92201SOL    HW178500  13.065  14.052   7.063
92201SOL    HW278501  13.216  14.037   7.062
92202SOL     OW78502   8.211   3.691  12.168
92202SOL    HW178503   8.206   3.686  12.263
92202SOL    HW278504   8.284   3.633  12.145
92203SOL     OW78505   3.037   9.391   7.406
92203SOL    HW178506   3.068   9.463   7.352
92203SOL    HW278507   3.114   9.364   7.457
92204SOL     OW78508   8.682   4.531   2.068
92204SOL    HW178509   8.647   4.486   2.145
92204SOL    HW278510   8.765   4.487   2.050
92205SOL     OW78511   8.789   7.550   2.854
92205SOL    HW178512   8.779   7.502   2.936
92205SOL    HW278513   8.700   7.562   2.822
92206SOL     OW78514   2.202   6.875  13.514
92206SOL    HW178515   2.129   6.874  13.451
92206SOL    HW278516   2.270   6.927  13.470
92207SOL     OW78517   7.629   0.010   8.844
92207SOL    HW178518   7.651   0.093   8.887
92207SOL    HW278519   7.581  14.843   8.911
92208SOL     OW78520   1.135   9.842  14.788
92208SOL    HW178521   1.169   9.863  14.875
92208SOL    HW278522   1.151   9.748  14.778
92209SOL     OW78523   0.296   5.912   9.589
92209SOL    HW178524   0.253   5.845   9.535
92209SOL    HW278525   0.389   5.892   9.581
92210SOL     OW78526  12.753  10.646   2.534
92210SOL    HW178527  12.703  10.594   2.471
92210SOL    HW278528  12.767  10.730   2.490
92211SOL     OW78529   9.691  12.753  14.404
92211SOL    HW178530   9.644  12.746  14.321
92211SOL    HW278531   9.745  12.674  14.408
92212SOL     OW78532   9.569  13.505   6.424
92212SOL    HW178533   9.478  13.527   6.404
92212SOL    HW278534   9.565  13.463   6.510
92213SOL     OW78535  13.703  14.568   7.031
92213SOL    HW178536  13.633  14.503   7.020
92213SOL    HW278537  13.782  14.523   7.001
92214SOL     OW78538   5.965   8.270  10.381
92214SOL    HW178539   6.008   8.320  10.312
92214SOL    HW278540   5.884   8.238  10.340
92215SOL     OW78541   1.768   8.240  10.567
92215SOL    HW178542   1.694   8.300  10.552
92215SOL    HW278543   1.797   8.261  10.656
92216SOL     OW78544   0.277  14.615  14.172
92216SOL    HW178545   0.372  14.620  14.165
92216SOL    HW278546   0.249  14.705  14.186
92217SOL     OW78547  12.576   1.354   8.852
92217SOL    HW178548  12.667   1.368   8.877
92217SOL    HW278549  12.576   1.271   8.804
92218SOL     OW78550   0.770  13.388   4.141
92218SOL    HW178551   0.845  13.330   4.152
92218SOL    HW278552   0.748  13.415   4.230
92219SOL     OW78553   8.832   6.242   9.815
92219SOL    HW178554   8.873   6.223   9.900
92219SOL    HW278555   8.904   6.243   9.753
92220SOL     OW78556   4.464   9.390   3.723
92220SOL    HW178557   4.485   9.483   3.727
92220SOL    HW278558   4.440   9.374   3.632
92221SOL     OW78559   8.418   0.901  11.997
92221SOL    HW178560   8.450   0.989  12.016
92221SOL    HW278561   8.399   0.903  11.903
92222SOL     OW78562  10.215  13.151   4.719
92222SOL    HW178563  10.247  13.105   4.642
92222SOL    HW278564  10.125  13.121   4.730
92223SOL     OW78565  11.050  12.452   2.543
92223SOL    HW178566  10.974  12.455   2.601
92223SOL    HW278567  11.051  12.538   2.500
92224SOL     OW78568   9.309  13.389  14.058
92224SOL    HW178569   9.300  13.470  14.009
92224SOL    HW278570   9.287  13.413  14.148
92225SOL     OW78571   5.704  10.421   2.754
92225SOL    HW178572   5.742  10.408   2.841
92225SOL    HW278573   5.750  10.358   2.699
92226SOL     OW78574   9.309  10.032  10.001
92226SOL    HW178575   9.392   9.991   9.974
92226SOL    HW278576   9.258   9.960  10.037
92227SOL     OW78577   2.671  10.258  11.796
92227SOL    HW178578   2.699  10.341  11.833
92227SOL    HW278579   2.664  10.274  11.702
92228SOL     OW78580   2.835  10.191   8.974
92228SOL    HW178581   2.758  10.197   9.031
92228SOL    HW278582   2.813  10.122   8.912
92229SOL     OW78583   0.160  10.377  14.586
92229SOL    HW178584   0.196  10.295  14.621
92229SOL    HW278585   0.071  10.382  14.622
92230SOL     OW78586  13.628   2.433   7.175
92230SOL    HW178587  13.721   2.452   7.161
92230SOL    HW278588  13.604   2.378   7.101
92231SOL     OW78589   2.959  12.808  14.817
92231SOL    HW178590   2.963  12.893  14.773
92231SOL    HW278591   3.051  12.786  14.834
92232SOL     OW78592   7.437   7.063   4.495
92232SOL    HW178593   7.350   7.045   4.457
92232SOL    HW278594   7.491   6.989   4.466
92233SOL     OW78595   0.973   2.096   1.956
92233SOL    HW178596   0.969   2.049   2.040
92233SOL    HW278597   0.881   2.111   1.933
92234SOL     OW78598  12.860   2.358   6.353
92234SOL    HW178599  12.837   2.406   6.433
92234SOL    HW278600  12.906   2.280   6.385
92235SOL     OW78601  14.621   8.310  10.640
92235SOL    HW178602  14.639   8.377  10.706
92235SOL    HW278603  14.559   8.351  10.580
92236SOL     OW78604   9.534   9.414  11.100
92236SOL    HW178605   9.444   9.384  11.117
92236SOL    HW278606   9.589   9.338  11.121
92237SOL     OW78607   0.470   9.410   6.296
92237SOL    HW178608   0.517   9.457   6.365
92237SOL    HW278609   0.448   9.477   6.231
92238SOL     OW78610   5.900  12.316   6.906
92238SOL    HW178611   5.837  12.381   6.877
92238SOL    HW278612   5.966  12.366   6.953
92239SOL     OW78613   4.052  10.782   7.889
92239SOL    HW178614   4.135  10.740   7.911
92239SOL    HW278615   4.072  10.876   7.886
92240SOL     OW78616  10.188   1.021   1.831
92240SOL    HW178617  10.165   1.044   1.921
92240SOL    HW278618  10.105   1.026   1.783
92241SOL     OW78619   5.740   8.051  13.543
92241SOL    HW178620   5.649   8.022  13.533
92241SOL    HW278621   5.759   8.098  13.462
92242SOL     OW78622   9.435   1.194   6.374
92242SOL    HW178623   9.398   1.251   6.441
92242SOL    HW278624   9.402   1.229   6.291
92243SOL     OW78625  12.861  13.611   0.811
92243SOL    HW178626  12.814  13.647   0.735
92243SOL    HW278627  12.806  13.539   0.840
92244SOL     OW78628  11.888   2.903   8.197
92244SOL    HW178629  11.971   2.949   8.208
92244SOL    HW278630  11.901   2.819   8.240
92245SOL     OW78631  11.495  12.571   9.302
92245SOL    HW178632  11.481  12.540   9.391
92245SOL    HW278633  11.522  12.662   9.311
92246SOL     OW78634   8.410  14.316   1.633
92246SOL    HW178635   8.497  14.278   1.648
92246SOL    HW278636   8.353  14.268   1.693
92247SOL     OW78637   9.770  12.781  14.741
92247SOL    HW178638   9.853  12.733  14.738
92247SOL    HW278639   9.706  12.720  14.706
92248SOL     OW78640   7.035   7.779  10.868
92248SOL    HW178641   7.048   7.870  10.839
92248SOL    HW278642   7.022   7.786  10.963
92249SOL     OW78643   5.442   6.325  14.183
92249SOL    HW178644   5.474   6.371  14.261
92249SOL    HW278645   5.352   6.355  14.174
92250SOL     OW78646  10.709   2.900  12.481
92250SOL    HW178647  10.622   2.934  12.503
92250SOL    HW278648  10.713   2.814  12.523
92251SOL     OW78649   7.921  10.464   2.250
92251SOL    HW178650   7.939  10.470   2.344
92251SOL    HW278651   7.826  10.454   2.245
92252SOL     OW78652   4.648  11.362   5.764
92252SOL    HW178653   4.580  11.299   5.740
92252SOL    HW278654   4.730  11.323   5.732
92253SOL     OW78655   3.453  14.558   9.310
92253SOL    HW178656   3.538  14.555   9.267
92253SOL    HW278657   3.465  14.619   9.383
92254SOL     OW78658  13.500   6.481   9.155
92254SOL    HW178659  13.425   6.525   9.116
92254SOL    HW278660  13.466   6.443   9.236
92255SOL     OW78661   4.879   3.853   9.076
92255SOL    HW178662   4.965   3.822   9.048
92255SOL    HW278663   4.897   3.904   9.155
92256SOL     OW78664   7.940  12.592   4.704
92256SOL    HW178665   7.925  12.616   4.796
92256SOL    HW278666   7.867  12.534   4.683
92257SOL     OW78667  13.297  10.490  10.849
92257SOL    HW178668  13.256  10.522  10.768
92257SOL    HW278669  13.384  10.528  10.848
92258SOL     OW78670   9.631  12.053   2.963
92258SOL    HW178671   9.552  12.088   2.922
92258SOL    HW278672   9.703  12.106   2.927
92259SOL     OW78673   5.645  13.359   5.463
92259SOL    HW178674   5.675  13.439   5.507
92259SOL    HW278675   5.661  13.376   5.370
92260SOL     OW78676  14.416   0.300  14.553
92260SOL    HW178677  14.371   0.367  14.501
92260SOL    HW278678  14.509   0.313  14.533
92261SOL     OW78679  11.199   0.252   4.757
92261SOL    HW178680  11.104   0.246   4.745
92261SOL    HW278681  11.233   0.271   4.669
92262SOL     OW78682   4.739   2.696   8.366
92262SOL    HW178683   4.666   2.650   8.408
92262SOL    HW278684   4.762   2.765   8.428
92263SOL     OW78685   5.424  10.353   7.693
92263SOL    HW178686   5.356  10.417   7.670
92263SOL    HW278687   5.443  10.308   7.611
92264SOL     OW78688   8.274  11.811   2.205
92264SOL    HW178689   8.349  11.757   2.231
92264SOL    HW278690   8.213  11.804   2.279
92265SOL     OW78691   8.371   2.284  10.214
92265SOL    HW178692   8.398   2.194  10.234
92265SOL    HW278693   8.452   2.334  10.216
92266SOL     OW78694  13.040  12.955   4.042
92266SOL    HW178695  13.037  12.912   4.127
92266SOL    HW278696  13.033  13.049   4.062
92267SOL     OW78697  13.688   8.886   6.873
92267SOL    HW178698  13.668   8.980   6.875
92267SOL    HW278699  13.783   8.882   6.885
92268SOL     OW78700   3.875   5.364   6.431
92268SOL    HW178701   3.886   5.454   6.462
92268SOL    HW278702   3.886   5.310   6.510
92269SOL     OW78703   1.453   9.659  12.976
92269SOL    HW178704   1.486   9.606  12.904
92269SOL    HW278705   1.512   9.639  13.049
92270SOL     OW78706  12.885  14.869   9.736
92270SOL    HW178707  12.904  14.826   9.652
92270SOL    HW278708  12.968  14.864   9.784
92271SOL     OW78709   3.754   4.144   9.692
92271SOL    HW178710   3.780   4.094   9.770
92271SOL    HW278711   3.659   4.151   9.699
92272SOL     OW78712   8.545   6.131   1.987
92272SOL    HW178713   8.602   6.145   1.911
92272SOL    HW278714   8.485   6.062   1.960
92273SOL     OW78715   6.632  13.955   4.744
92273SOL    HW178716   6.606  13.865   4.767
92273SOL    HW278717   6.726  13.949   4.728
92274SOL     OW78718  13.351  11.838   1.021
92274SOL    HW178719  13.389  11.882   0.945
92274SOL    HW278720  13.295  11.770   0.983
92275SOL     OW78721   3.363  14.367   7.891
92275SOL    HW178722   3.327  14.437   7.945
92275SOL    HW278723   3.425  14.411   7.833
92276SOL     OW78724  12.877   8.810   4.827
92276SOL    HW178725  12.938   8.797   4.899
92276SOL    HW278726  12.883   8.903   4.807
92277SOL     OW78727  10.839   1.993   0.672
92277SOL    HW178728  10.797   1.996   0.586
92277SOL    HW278729  10.806   2.070   0.718
92278SOL     OW78730  14.639   0.417  12.074
92278SOL    HW178731  14.580   0.462  12.134
92278SOL    HW278732  14.582   0.387  12.003
92279SOL     OW78733  14.820  14.114   1.075
92279SOL    HW178734  14.750  14.087   1.015
92279SOL    HW278735  14.879  14.039   1.080
92280SOL     OW78736   5.058  14.764  11.997
92280SOL    HW178737   5.063  14.844  12.050
92280SOL    HW278738   5.005  14.704  12.049
92281SOL     OW78739   0.735   0.553   9.631
92281SOL    HW178740   0.693   0.625   9.678
92281SOL    HW278741   0.664   0.493   9.611
92282SOL     OW78742   3.066   9.815   1.220
92282SOL    HW178743   2.974   9.792   1.206
92282SOL    HW278744   3.082   9.888   1.159
92283SOL     OW78745   7.181   7.368  12.391
92283SOL    HW178746   7.170   7.275  12.414
92283SOL    HW278747   7.106   7.387  12.334
92284SOL     OW78748   6.808  12.610  14.426
92284SOL    HW178749   6.875  12.639  14.364
92284SOL    HW278750   6.849  12.537  14.472
92285SOL     OW78751  13.165   3.322   9.719
92285SOL    HW178752  13.199   3.406   9.688
92285SOL    HW278753  13.095   3.346   9.780
92286SOL     OW78754  14.408  14.038   8.403
92286SOL    HW178755  14.339  14.044   8.469
92286SOL    HW278756  14.372  14.082   8.327
92287SOL     OW78757   0.921   4.984   3.639
92287SOL    HW178758   0.926   4.908   3.697
92287SOL    HW278759   1.007   5.025   3.645
92288SOL     OW78760   0.293   4.359   0.632
92288SOL    HW178761   0.289   4.331   0.541
92288SOL    HW278762   0.312   4.279   0.681
92289SOL     OW78763  14.279   5.463   5.954
92289SOL    HW178764  14.314   5.542   5.912
92289SOL    HW278765  14.212   5.431   5.893
92290SOL     OW78766   9.149  14.292   2.016
92290SOL    HW178767   9.204  14.246   1.953
92290SOL    HW278768   9.207  14.310   2.090
92291SOL     OW78769   5.144   7.080   9.685
92291SOL    HW178770   5.066   7.134   9.699
92291SOL    HW278771   5.111   7.002   9.640
92292SOL     OW78772   5.626  12.777  14.572
92292SOL    HW178773   5.686  12.843  14.536
92292SOL    HW278774   5.592  12.732  14.495
92293SOL     OW78775   6.438  13.667   7.338
92293SOL    HW178776   6.391  13.588   7.312
92293SOL    HW278777   6.407  13.735   7.278
92294SOL     OW78778   1.495   6.403   1.374
92294SOL    HW178779   1.491   6.496   1.354
92294SOL    HW278780   1.574   6.393   1.428
92295SOL     OW78781   5.389   3.966   2.875
92295SOL    HW178782   5.430   4.034   2.823
92295SOL    HW278783   5.430   3.973   2.962
92296SOL     OW78784   8.035   9.335  10.391
92296SOL    HW178785   8.076   9.250  10.404
92296SOL    HW278786   8.103   9.398  10.414
92297SOL     OW78787   5.849   9.891   8.801
92297SOL    HW178788   5.801   9.809   8.787
92297SOL    HW278789   5.910   9.871   8.872
92298SOL     OW78790   0.847  12.082   7.371
92298SOL    HW178791   0.767  12.114   7.412
92298SOL    HW278792   0.883  12.158   7.325
92299SOL     OW78793   2.518   5.611  13.807
92299SOL    HW178794   2.592   5.630  13.865
92299SOL    HW278795   2.442   5.648  13.852
92300SOL     OW78796   8.967   0.303  14.824
92300SOL    HW178797   8.931   0.277   0.027
92300SOL    HW278798   8.935   0.392  14.810
92301SOL     OW78799   1.922   5.833  12.412
92301SOL    HW178800   1.879   5.866  12.491
92301SOL    HW278801   1.850   5.805  12.355
92302SOL     OW78802   2.432  11.315   3.212
92302SOL    HW178803   2.448  11.409   3.202
92302SOL    HW278804   2.510  11.282   3.255
92303SOL     OW78805   1.549  10.737   5.445
92303SOL    HW178806   1.481  10.715   5.380
92303SOL    HW278807   1.631  10.708   5.404
92304SOL     OW78808   6.666   4.636  13.956
92304SOL    HW178809   6.586   4.613  14.003
92304SOL    HW278810   6.728   4.566  13.977
92305SOL     OW78811   2.198   0.549  14.276
92305SOL    HW178812   2.150   0.627  14.248
92305SOL    HW278813   2.207   0.559  14.371
92306SOL     OW78814   7.584  10.701   2.282
92306SOL    HW178815   7.512  10.763   2.283
92306SOL    HW278816   7.545  10.619   2.250
92307SOL     OW78817  11.241   4.408  13.066
92307SOL    HW178818  11.276   4.375  13.149
92307SOL    HW278819  11.156   4.365  13.057
92308SOL     OW78820   3.969   5.056   0.629
92308SOL    HW178821   4.006   5.135   0.667
92308SOL    HW278822   3.985   5.064   0.535
92309SOL     OW78823   2.793   5.120   0.389
92309SOL    HW178824   2.875   5.143   0.346
92309SOL    HW278825   2.760   5.044   0.341
92310SOL     OW78826   9.403  14.702   4.808
92310SOL    HW178827   9.450  14.644   4.748
92310SOL    HW278828   9.402  14.655   4.891
92311SOL     OW78829   2.689  12.683   0.632
92311SOL    HW178830   2.729  12.655   0.550
92311SOL    HW278831   2.624  12.749   0.607
92312SOL     OW78832   5.523  10.453  14.033
92312SOL    HW178833   5.496  10.458  14.124
92312SOL    HW278834   5.471  10.381  13.996
92313SOL     OW78835   1.289   3.749   6.585
92313SOL    HW178836   1.340   3.777   6.661
92313SOL    HW278837   1.293   3.823   6.525
92314SOL     OW78838   8.758  12.290  13.726
92314SOL    HW178839   8.687  12.226  13.732
92314SOL    HW278840   8.832  12.241  13.691
92315SOL     OW78841   6.041  11.046   7.102
92315SOL    HW178842   6.111  11.026   7.165
92315SOL    HW278843   5.963  11.057   7.156
92316SOL     OW78844  12.041  13.073   4.317
92316SOL    HW178845  11.986  13.039   4.246
92316SOL    HW278846  12.113  13.010   4.324
92317SOL     OW78847   4.507   7.730   2.304
92317SOL    HW178848   4.470   7.708   2.389
92317SOL    HW278849   4.475   7.660   2.246
92318SOL     OW78850  10.019  11.833   5.187
92318SOL    HW178851  10.068  11.900   5.235
92318SOL    HW278852   9.959  11.797   5.252
92319SOL     OW78853   7.506  12.581  12.167
92319SOL    HW178854   7.587  12.616  12.130
92319SOL    HW278855   7.506  12.612  12.258
92320SOL     OW78856   1.861   3.436   0.434
92320SOL    HW178857   1.905   3.475   0.509
92320SOL    HW278858   1.772   3.471   0.438
92321SOL     OW78859  11.700   8.468   3.801
92321SOL    HW178860  11.743   8.406   3.742
92321SOL    HW278861  11.612   8.478   3.765
92322SOL     OW78862  10.903   6.836   5.692
92322SOL    HW178863  10.930   6.784   5.768
92322SOL    HW278864  10.984   6.874   5.659
92323SOL     OW78865   1.095   6.583   9.995
92323SOL    HW178866   1.109   6.501   9.947
92323SOL    HW278867   1.010   6.614   9.965
92324SOL     OW78868  11.561   1.952  12.239
92324SOL    HW178869  11.481   2.004  12.246
92324SOL    HW278870  11.609   1.992  12.166
92325SOL     OW78871  14.398  14.310   4.320
92325SOL    HW178872  14.349  14.363   4.384
92325SOL    HW278873  14.366  14.340   4.235
92326SOL     OW78874   8.745  12.629   1.656
92326SOL    HW178875   8.764  12.647   1.564
92326SOL    HW278876   8.830  12.604   1.693
92327SOL     OW78877   6.988   6.509   9.899
92327SOL    HW178878   7.023   6.585   9.851
92327SOL    HW278879   6.893   6.525   9.901
92328SOL     OW78880   3.682   3.530   9.517
92328SOL    HW178881   3.626   3.472   9.467
92328SOL    HW278882   3.686   3.611   9.466
92329SOL     OW78883  10.206   7.087   5.300
92329SOL    HW178884  10.133   7.036   5.264
92329SOL    HW278885  10.206   7.168   5.249
92330SOL     OW78886  11.255  11.244  12.189
92330SOL    HW178887  11.346  11.219  12.169
92330SOL    HW278888  11.202  11.178  12.145
92331SOL     OW78889   0.100   2.038   5.876
92331SOL    HW178890   0.146   2.050   5.793
92331SOL    HW278891   0.138   1.958   5.913
92332SOL     OW78892   8.709   6.421   5.379
92332SOL    HW178893   8.756   6.504   5.385
92332SOL    HW278894   8.777   6.357   5.357
92333SOL     OW78895   5.143  10.513   5.936
92333SOL    HW178896   5.111  10.565   6.010
92333SOL    HW278897   5.077  10.523   5.868
92334SOL     OW78898   4.496   7.239   7.186
92334SOL    HW178899   4.405   7.226   7.157
92334SOL    HW278900   4.549   7.203   7.115
92335SOL     OW78901   4.358  12.033  13.521
92335SOL    HW178902   4.265  12.052  13.510
92335SOL    HW278903   4.377  12.055  13.612
92336SOL     OW78904   2.117   7.347  11.518
92336SOL    HW178905   2.074   7.417  11.470
92336SOL    HW278906   2.097   7.365  11.610
92337SOL     OW78907   3.596   3.933  14.798
92337SOL    HW178908   3.605   3.875  14.874
92337SOL    HW278909   3.532   3.998  14.825
92338SOL     OW78910   8.747  12.731   5.181
92338SOL    HW178911   8.718  12.803   5.238
92338SOL    HW278912   8.696  12.742   5.101
92339SOL     OW78913   8.868   6.546   7.477
92339SOL    HW178914   8.943   6.579   7.428
92339SOL    HW278915   8.878   6.451   7.475
92340SOL     OW78916  12.283  13.546   5.640
92340SOL    HW178917  12.287  13.475   5.704
92340SOL    HW278918  12.355  13.604   5.663
92341SOL     OW78919  12.399   5.788   1.839
92341SOL    HW178920  12.351   5.779   1.921
92341SOL    HW278921  12.338   5.832   1.780
92342SOL     OW78922  13.748   6.128  12.832
92342SOL    HW178923  13.809   6.185  12.784
92342SOL    HW278924  13.670   6.182  12.843
92343SOL     OW78925  14.524   1.145   6.132
92343SOL    HW178926  14.613   1.178   6.145
92343SOL    HW278927  14.488   1.200   6.062
92344SOL     OW78928   0.063  13.894   7.924
92344SOL    HW178929   0.082  13.847   7.843
92344SOL    HW278930  14.850  13.887   7.934
92345SOL     OW78931   5.498  14.565  11.870
92345SOL    HW178932   5.486  14.512  11.791
92345SOL    HW278933   5.546  14.642  11.841
92346SOL     OW78934  11.540   3.276   4.721
92346SOL    HW178935  11.448   3.286   4.745
92346SOL    HW278936  11.562   3.186   4.745
92347SOL     OW78937  11.758  14.466   9.913
92347SOL    HW178938  11.790  14.556   9.923
92347SOL    HW278939  11.760  14.429  10.001
92348SOL     OW78940  13.195   9.991  14.738
92348SOL    HW178941  13.131   9.929  14.702
92348SOL    HW278942  13.152  10.026  14.816
92349SOL     OW78943  11.454   3.620   6.843
92349SOL    HW178944  11.411   3.543   6.806
92349SOL    HW278945  11.452   3.685   6.774
92350SOL     OW78946   6.624   3.026  13.912
92350SOL    HW178947   6.661   2.940  13.892
92350SOL    HW278948   6.635   3.077  13.831
92351SOL     OW78949  11.896  12.370   4.125
92351SOL    HW178950  11.939  12.349   4.042
92351SOL    HW278951  11.827  12.432   4.101
92352SOL     OW78952  11.711  13.285  12.870
92352SOL    HW178953  11.770  13.296  12.945
92352SOL    HW278954  11.637  13.235  12.905
92353SOL     OW78955   4.302   0.591  10.813
92353SOL    HW178956   4.395   0.578  10.833
92353SOL    HW278957   4.256   0.566  10.893
92354SOL     OW78958   5.423   7.755  13.459
92354SOL    HW178959   5.415   7.671  13.505
92354SOL    HW278960   5.334   7.775  13.431
92355SOL     OW78961   8.502   7.508   7.391
92355SOL    HW178962   8.473   7.514   7.482
92355SOL    HW278963   8.537   7.419   7.383
92356SOL     OW78964   6.345   0.000  10.172
92356SOL    HW178965   6.401  14.867  10.096
92356SOL    HW278966   6.257  14.859  10.142
92357SOL     OW78967  13.480   2.338   3.588
92357SOL    HW178968  13.420   2.410   3.609
92357SOL    HW278969  13.509   2.305   3.673
92358SOL     OW78970  13.492   5.647  10.969
92358SOL    HW178971  13.410   5.618  10.929
92358SOL    HW278972  13.560   5.617  10.909
92359SOL     OW78973  10.025   4.100  14.354
92359SOL    HW178974   9.964   4.107  14.427
92359SOL    HW278975  10.005   4.016  14.314
92360SOL     OW78976  11.478  10.611   5.298
92360SOL    HW178977  11.466  10.628   5.391
92360SOL    HW278978  11.573  10.605   5.287
92361SOL     OW78979   7.410   8.205  13.926
92361SOL    HW178980   7.341   8.188  13.990
92361SOL    HW278981   7.439   8.294  13.944
92362SOL     OW78982   4.260   9.940   3.713
92362SOL    HW178983   4.346   9.982   3.720
92362SOL    HW278984   4.246   9.899   3.798
92363SOL     OW78985  10.525   4.178  11.333
92363SOL    HW178986  10.557   4.093  11.361
92363SOL    HW278987  10.602   4.225  11.302
92364SOL     OW78988   7.265   3.891   7.360
92364SOL    HW178989   7.317   3.969   7.341
92364SOL    HW278990   7.318   3.818   7.331
92365SOL     OW78991  13.759   3.341   3.303
92365SOL    HW178992  13.826   3.332   3.371
92365SOL    HW278993  13.757   3.255   3.261
92366SOL     OW78994   5.317   6.484   6.133
92366SOL    HW178995   5.308   6.573   6.167
92366SOL    HW278996   5.228   6.449   6.132
92367SOL     OW78997  11.671  14.071   6.803
92367SOL    HW178998  11.751  14.123   6.797
92367SOL    HW278999  11.611  14.125   6.854
92368SOL     OW79000   0.718   9.152  12.063
92368SOL    HW179001   0.627   9.163  12.034
92368SOL    HW279002   0.755   9.087  12.003
92369SOL     OW79003   7.272   6.678  11.256
92369SOL    HW179004   7.315   6.657  11.173
92369SOL    HW279005   7.303   6.767  11.277
92370SOL     OW79006  10.651  12.223  11.693
92370SOL    HW179007  10.708  12.295  11.665
92370SOL    HW279008  10.704  12.173  11.755
92371SOL     OW79009   4.755  14.589  13.406
92371SOL    HW179010   4.835  14.634  13.434
92371SOL    HW279011   4.784  14.501  13.382
92372SOL     OW79012   6.977  11.482   7.752
92372SOL    HW179013   6.920  11.417   7.710
92372SOL    HW279014   6.919  11.531   7.810
92373SOL     OW79015   6.392   0.079  14.289
92373SOL    HW179016   6.311   0.124  14.312
92373SOL    HW279017   6.377  14.870  14.316
92374SOL     OW79018   9.328   0.349   2.296
92374SOL    HW179019   9.363   0.289   2.231
92374SOL    HW279020   9.388   0.343   2.370
92375SOL     OW79021  13.049  11.130   1.211
92375SOL    HW179022  12.977  11.184   1.241
92375SOL    HW279023  13.086  11.179   1.137
92376SOL     OW79024   1.034   4.640   5.141
92376SOL    HW179025   1.126   4.651   5.166
92376SOL    HW279026   0.985   4.686   5.209
92377SOL     OW79027   9.111  14.132   4.266
92377SOL    HW179028   9.099  14.226   4.254
92377SOL    HW279029   9.169  14.106   4.194
92378SOL     OW79030  11.069   3.347   4.449
92378SOL    HW179031  11.137   3.281   4.466
92378SOL    HW279032  11.086   3.415   4.514
92379SOL     OW79033  11.373   5.381  11.895
92379SOL    HW179034  11.379   5.286  11.901
92379SOL    HW279035  11.432   5.414  11.962
92380SOL     OW79036  12.802  11.371   6.552
92380SOL    HW179037  12.881  11.352   6.603
92380SOL    HW279038  12.740  11.406   6.616
92381SOL     OW79039   6.835  11.398   0.542
92381SOL    HW179040   6.796  11.445   0.616
92381SOL    HW279041   6.882  11.466   0.493
92382SOL     OW79042   0.696   2.656   1.208
92382SOL    HW179043   0.678   2.615   1.124
92382SOL    HW279044   0.741   2.588   1.258
92383SOL     OW79045   7.728  14.105   0.530
92383SOL    HW179046   7.665  14.171   0.560
92383SOL    HW279047   7.690  14.071   0.449
92384SOL     OW79048  13.976  11.102   3.391
92384SOL    HW179049  13.893  11.149   3.385
92384SOL    HW279050  14.042  11.169   3.376
92385SOL     OW79051  14.437   9.430   9.258
92385SOL    HW179052  14.357   9.383   9.283
92385SOL    HW279053  14.477   9.373   9.192
92386SOL     OW79054   2.732   0.370   0.011
92386SOL    HW179055   2.686   0.349   0.092
92386SOL    HW279056   2.821   0.389   0.039
92387SOL     OW79057   8.038   3.212  12.728
92387SOL    HW179058   7.983   3.287  12.703
92387SOL    HW279059   8.091   3.245  12.800
92388SOL     OW79060   8.869   6.356  14.241
92388SOL    HW179061   8.804   6.290  14.266
92388SOL    HW279062   8.908   6.384  14.323
92389SOL     OW79063   6.726   9.549  13.776
92389SOL    HW179064   6.811   9.567  13.735
92389SOL    HW279065   6.748   9.516  13.863
92390SOL     OW79066  14.515   4.086   9.538
92390SOL    HW179067  14.435   4.119   9.498
92390SOL    HW279068  14.586   4.132   9.493
92391SOL     OW79069   3.582  14.388   8.133
92391SOL    HW179070   3.490  14.367   8.148
92391SOL    HW279071   3.615  14.314   8.082
92392SOL     OW79072   6.707  11.279  14.395
92392SOL    HW179073   6.767  11.343  14.433
92392SOL    HW279074   6.651  11.252  14.468
92393SOL     OW79075  13.687   0.518  14.050
92393SOL    HW179076  13.647   0.581  13.990
92393SOL    HW279077  13.614   0.467  14.084
92394SOL     OW79078   0.475   6.087   8.706
92394SOL    HW179079   0.552   6.040   8.738
92394SOL    HW279080   0.418   6.096   8.783
92395SOL     OW79081   4.493  10.093   3.697
92395SOL    HW179082   4.489  10.122   3.605
92395SOL    HW279083   4.554  10.020   3.696
92396SOL     OW79084   4.940   5.477  10.970
92396SOL    HW179085   4.918   5.395  11.015
92396SOL    HW279086   4.928   5.458  10.877
92397SOL     OW79087  12.634  14.123  14.829
92397SOL    HW179088  12.539  14.128  14.839
92397SOL    HW279089  12.667  14.198  14.878
92398SOL     OW79090   1.981   6.040   7.224
92398SOL    HW179091   2.062   5.991   7.238
92398SOL    HW279092   1.924   5.979   7.177
92399SOL     OW79093   6.708  14.283  12.034
92399SOL    HW179094   6.630  14.295  11.981
92399SOL    HW279095   6.677  14.287  12.125
92400SOL     OW79096   4.171   9.202   2.795
92400SOL    HW179097   4.101   9.234   2.738
92400SOL    HW279098   4.216   9.135   2.744
92401SOL     OW79099   6.279   7.298   2.957
92401SOL    HW179100   6.323   7.298   2.872
92401SOL    HW279101   6.334   7.242   3.012
92402SOL     OW79102   7.182   7.369  13.881
92402SOL    HW179103   7.221   7.307  13.820
92402SOL    HW279104   7.219   7.346  13.966
92403SOL     OW79105  10.167  14.485   7.166
92403SOL    HW179106  10.101  14.526   7.110
92403SOL    HW279107  10.239  14.464   7.107
92404SOL     OW79108   0.853   6.986   9.739
92404SOL    HW179109   0.805   6.970   9.658
92404SOL    HW279110   0.863   6.899   9.779
92405SOL     OW79111   3.243   2.640   2.188
92405SOL    HW179112   3.338   2.648   2.193
92405SOL    HW279113   3.212   2.662   2.276
92406SOL     OW79114   9.883   0.679  10.131
92406SOL    HW179115   9.951   0.731  10.173
92406SOL    HW279116   9.858   0.729  10.054
92407SOL     OW79117   1.716  12.360   8.942
92407SOL    HW179118   1.629  12.378   8.977
92407SOL    HW279119   1.704  12.360   8.847
92408SOL     OW79120   3.113   8.563  12.850
92408SOL    HW179121   3.086   8.620  12.778
92408SOL    HW279122   3.153   8.623  12.914
92409SOL     OW79123   2.422   2.463   8.410
92409SOL    HW179124   2.405   2.422   8.325
92409SOL    HW279125   2.355   2.531   8.417
92410SOL     OW79126   3.529   1.307   3.547
92410SOL    HW179127   3.539   1.214   3.564
92410SOL    HW279128   3.449   1.314   3.494
92411SOL     OW79129  10.116  11.512   2.463
92411SOL    HW179130  10.096  11.425   2.428
92411SOL    HW279131  10.159  11.557   2.391
92412SOL     OW79132  13.459   9.465   9.064
92412SOL    HW179133  13.542   9.466   9.112
92412SOL    HW279134  13.484   9.455   8.972
92413SOL     OW79135   8.386   1.027   5.371
92413SOL    HW179136   8.391   0.937   5.340
92413SOL    HW279137   8.404   1.080   5.293
92414SOL     OW79138   2.488   1.593   1.772
92414SOL    HW179139   2.504   1.644   1.851
92414SOL    HW279140   2.551   1.521   1.777
92415SOL     OW79141   7.155   6.489   9.605
92415SOL    HW179142   7.115   6.403   9.591
92415SOL    HW279143   7.093   6.551   9.569
92416SOL     OW79144  11.493  11.614   2.339
92416SOL    HW179145  11.484  11.539   2.280
92416SOL    HW279146  11.587  11.629   2.345
92417SOL     OW79147   8.300  12.885  12.788
92417SOL    HW179148   8.358  12.920  12.720
92417SOL    HW279149   8.232  12.951  12.798
92418SOL     OW79150   5.238  12.493   5.807
92418SOL    HW179151   5.154  12.450   5.789
92418SOL    HW279152   5.224  12.584   5.783
92419SOL     OW79153   6.011   8.675   6.614
92419SOL    HW179154   6.067   8.622   6.557
92419SOL    HW279155   5.965   8.734   6.554
92420SOL     OW79156   5.184   0.455  14.223
92420SOL    HW179157   5.268   0.412  14.237
92420SOL    HW279158   5.206   0.537  14.178
92421SOL     OW79159   5.219  10.525   7.676
92421SOL    HW179160   5.179  10.486   7.754
92421SOL    HW279161   5.145  10.544   7.618
92422SOL     OW79162  12.173  11.586   6.422
92422SOL    HW179163  12.084  11.568   6.452
92422SOL    HW279164  12.189  11.522   6.353
92423SOL     OW79165  10.694   3.564   2.537
92423SOL    HW179166  10.670   3.554   2.629
92423SOL    HW279167  10.655   3.488   2.494
92424SOL     OW79168   9.696  12.296   7.818
92424SOL    HW179169   9.603  12.312   7.806
92424SOL    HW279170   9.737  12.383   7.810
92425SOL     OW79171   8.398   5.392   5.217
92425SOL    HW179172   8.313   5.423   5.247
92425SOL    HW279173   8.443   5.470   5.185
92426SOL     OW79174   3.783  11.889   8.516
92426SOL    HW179175   3.845  11.853   8.453
92426SOL    HW279176   3.713  11.825   8.521
92427SOL     OW79177   7.190   5.844  13.632
92427SOL    HW179178   7.257   5.776  13.640
92427SOL    HW279179   7.148   5.827  13.548
92428SOL     OW79180   4.261  10.949  13.943
92428SOL    HW179181   4.311  10.868  13.959
92428SOL    HW279182   4.328  11.015  13.924
92429SOL     OW79183  13.202   0.989   7.794
92429SOL    HW179184  13.136   0.968   7.859
92429SOL    HW279185  13.167   1.065   7.748
92430SOL     OW79186   5.723  13.450   8.092
92430SOL    HW179187   5.705  13.452   7.998
92430SOL    HW279188   5.814  13.422   8.099
92431SOL     OW79189   5.792  10.101   2.830
92431SOL    HW179190   5.807  10.018   2.876
92431SOL    HW279191   5.809  10.168   2.896
92432SOL     OW79192   8.808   8.669  11.075
92432SOL    HW179193   8.841   8.579  11.074
92432SOL    HW279194   8.794   8.690  10.982
92433SOL     OW79195   9.117   2.983   4.424
92433SOL    HW179196   9.200   3.026   4.445
92433SOL    HW279197   9.141   2.911   4.365
92434SOL     OW79198   7.208   6.272   1.471
92434SOL    HW179199   7.194   6.362   1.498
92434SOL    HW279200   7.203   6.274   1.376
92435SOL     OW79201   8.683   9.867  10.250
92435SOL    HW179202   8.691   9.791  10.307
92435SOL    HW279203   8.707   9.835  10.163
92436SOL     OW79204  12.941  13.398  14.304
92436SOL    HW179205  12.872  13.342  14.338
92436SOL    HW279206  12.942  13.380  14.210
92437SOL     OW79207  13.240   8.153   4.446
92437SOL    HW179208  13.213   8.216   4.512
92437SOL    HW279209  13.209   8.068   4.478
92438SOL     OW79210  12.319  12.763   5.374
92438SOL    HW179211  12.312  12.688   5.316
92438SOL    HW279212  12.344  12.836   5.317
92439SOL     OW79213   1.137   4.018   7.862
92439SOL    HW179214   1.205   4.051   7.922
92439SOL    HW279215   1.186   3.977   7.791
92440SOL     OW79216  10.847  14.228   4.727
92440SOL    HW179217  10.939  14.213   4.750
92440SOL    HW279218  10.797  14.187   4.798
92441SOL     OW79219   2.048   1.699   8.768
92441SOL    HW179220   2.059   1.771   8.706
92441SOL    HW279221   2.100   1.725   8.844
92442SOL     OW79222   3.357   4.335   2.475
92442SOL    HW179223   3.302   4.272   2.429
92442SOL    HW279224   3.442   4.291   2.484
92443SOL     OW79225  13.829   3.466   0.101
92443SOL    HW179226  13.907   3.476   0.046
92443SOL    HW279227  13.757   3.495   0.046
92444SOL     OW79228   9.212  10.678  13.344
92444SOL    HW179229   9.149  10.680  13.417
92444SOL    HW279230   9.296  10.702  13.385
92445SOL     OW79231   6.867   7.068   3.082
92445SOL    HW179232   6.953   7.099   3.054
92445SOL    HW279233   6.826   7.035   3.002
92446SOL     OW79234   1.634  12.674   4.643
92446SOL    HW179235   1.599  12.626   4.718
92446SOL    HW279236   1.723  12.641   4.633
92447SOL     OW79237  11.523   0.803   2.560
92447SOL    HW179238  11.528   0.873   2.624
92447SOL    HW279239  11.568   0.838   2.483
92448SOL     OW79240   7.696   2.235  12.796
92448SOL    HW179241   7.652   2.160  12.836
92448SOL    HW279242   7.652   2.311  12.834
92449SOL     OW79243  10.179   4.508   1.521
92449SOL    HW179244  10.245   4.566   1.560
92449SOL    HW279245  10.220   4.477   1.440
92450SOL     OW79246   9.063   8.501   0.829
92450SOL    HW179247   9.067   8.594   0.805
92450SOL    HW279248   8.984   8.469   0.785
92451SOL     OW79249  10.896   6.063   0.315
92451SOL    HW179250  10.803   6.086   0.309
92451SOL    HW279251  10.936   6.106   0.239
92452SOL     OW79252  11.519  13.556   3.728
92452SOL    HW179253  11.545  13.591   3.814
92452SOL    HW279254  11.561  13.615   3.665
92453SOL     OW79255  12.363   2.599   4.914
92453SOL    HW179256  12.377   2.689   4.882
92453SOL    HW279257  12.451   2.564   4.924
92454SOL     OW79258   3.687  13.282   4.224
92454SOL    HW179259   3.661  13.374   4.235
92454SOL    HW279260   3.761  13.272   4.283
92455SOL     OW79261   4.729  13.281   5.582
92455SOL    HW179262   4.670  13.287   5.507
92455SOL    HW279263   4.695  13.207   5.633
92456SOL     OW79264   1.696   0.525   0.643
92456SOL    HW179265   1.709   0.514   0.549
92456SOL    HW279266   1.627   0.591   0.651
92457SOL     OW79267  11.653   4.740   5.764
92457SOL    HW179268  11.653   4.742   5.860
92457SOL    HW279269  11.708   4.813   5.739
92458SOL     OW79270   0.160  13.370  13.117
92458SOL    HW179271   0.115  13.363  13.201
92458SOL    HW279272   0.091  13.357  13.052
92459SOL     OW79273   0.579   0.934   2.548
92459SOL    HW179274   0.574   0.871   2.620
92459SOL    HW279275   0.494   0.977   2.547
92460SOL     OW79276   9.681  10.819  13.204
92460SOL    HW179277   9.746  10.750  13.193
92460SOL    HW279278   9.602  10.773  13.233
92461SOL     OW79279   0.198  13.164   7.982
92461SOL    HW179280   0.154  13.123   8.056
92461SOL    HW279281   0.273  13.108   7.963
92462SOL     OW79282   5.074   1.341  12.781
92462SOL    HW179283   5.058   1.272  12.846
92462SOL    HW279284   5.167   1.335  12.762
92463SOL     OW79285  14.384  11.715   6.987
92463SOL    HW179286  14.380  11.755   7.074
92463SOL    HW279287  14.463  11.660   6.989
92464SOL     OW79288  11.575   1.410  13.896
92464SOL    HW179289  11.577   1.317  13.918
92464SOL    HW279290  11.572   1.454  13.981
92465SOL     OW79291   1.833   8.857   2.385
92465SOL    HW179292   1.829   8.860   2.480
92465SOL    HW279293   1.771   8.923   2.356
92466SOL     OW79294  10.986   0.826   6.636
92466SOL    HW179295  11.015   0.905   6.681
92466SOL    HW279296  10.986   0.758   6.703
92467SOL     OW79297   1.567  10.730   3.948
92467SOL    HW179298   1.601  10.641   3.953
92467SOL    HW279299   1.515  10.731   3.868
92468SOL     OW79300   0.425   3.283   8.870
92468SOL    HW179301   0.517   3.258   8.879
92468SOL    HW279302   0.377   3.203   8.892
92469SOL     OW79303   1.698  12.534   1.038
92469SOL    HW179304   1.789  12.532   1.069
92469SOL    HW279305   1.688  12.621   0.999
92470SOL     OW79306  11.364  13.966   1.708
92470SOL    HW179307  11.431  13.971   1.641
92470SOL    HW279308  11.329  14.055   1.715
92471SOL     OW79309   6.074   4.255   9.853
92471SOL    HW179310   6.010   4.324   9.836
92471SOL    HW279311   6.028   4.194   9.911
92472SOL     OW79312  12.923   5.304  14.062
92472SOL    HW179313  12.858   5.235  14.056
92472SOL    HW279314  12.990   5.280  13.998
92473SOL     OW79315  12.213  13.907   5.528
92473SOL    HW179316  12.132  13.957   5.533
92473SOL    HW279317  12.190  13.829   5.478
92474SOL     OW79318   6.693  10.649  12.185
92474SOL    HW179319   6.775  10.663  12.139
92474SOL    HW279320   6.714  10.663  12.277
92475SOL     OW79321   1.465   4.534  11.347
92475SOL    HW179322   1.501   4.503  11.264
92475SOL    HW279323   1.487   4.627  11.350
92476SOL     OW79324  14.054  14.324   6.926
92476SOL    HW179325  14.022  14.372   6.849
92476SOL    HW279326  14.049  14.388   6.997
92477SOL     OW79327  13.914   7.495   5.408
92477SOL    HW179328  13.933   7.456   5.494
92477SOL    HW279329  13.867   7.576   5.428
92478SOL     OW79330   0.577   1.899   4.202
92478SOL    HW179331   0.606   1.899   4.294
92478SOL    HW279332   0.497   1.848   4.202
92479SOL     OW79333   4.581  14.621  13.174
92479SOL    HW179334   4.505  14.652  13.224
92479SOL    HW279335   4.643  14.590  13.241
92480SOL     OW79336   7.333  10.934   0.523
92480SOL    HW179337   7.315  10.851   0.477
92480SOL    HW279338   7.425  10.928   0.548
92481SOL     OW79339   2.660  13.829   9.673
92481SOL    HW179340   2.597  13.834   9.745
92481SOL    HW279341   2.664  13.919   9.639
92482SOL     OW79342   5.810   9.271  13.016
92482SOL    HW179343   5.835   9.363  13.025
92482SOL    HW279344   5.892   9.225  13.001
92483SOL     OW79345  14.286   9.636  13.203
92483SOL    HW179346  14.266   9.718  13.246
92483SOL    HW279347  14.305   9.575  13.274
92484SOL     OW79348  10.602  14.448  12.412
92484SOL    HW179349  10.653  14.430  12.333
92484SOL    HW279350  10.613  14.542  12.427
92485SOL     OW79351  10.501  10.534   2.653
92485SOL    HW179352  10.542  10.617   2.676
92485SOL    HW279353  10.499  10.485   2.735
92486SOL     OW79354  14.237  12.380  13.547
92486SOL    HW179355  14.289  12.450  13.508
92486SOL    HW279356  14.301  12.324  13.591
92487SOL     OW79357   7.934   9.875   5.043
92487SOL    HW179358   7.937   9.780   5.052
92487SOL    HW279359   7.951   9.909   5.131
92488SOL     OW79360   0.044  11.988   5.215
92488SOL    HW179361   0.067  12.030   5.298
92488SOL    HW279362   0.116  11.927   5.198
92489SOL     OW79363   5.565   9.107   5.435
92489SOL    HW179364   5.475   9.088   5.410
92489SOL    HW279365   5.617   9.082   5.359
92490SOL     OW79366   6.774  14.338   1.947
92490SOL    HW179367   6.730  14.400   1.890
92490SOL    HW279368   6.718  14.260   1.946
92491SOL     OW79369   6.259   1.646   7.077
92491SOL    HW179370   6.189   1.674   7.017
92491SOL    HW279371   6.306   1.578   7.030
92492SOL     OW79372   5.269   0.498  14.558
92492SOL    HW179373   5.174   0.488  14.548
92492SOL    HW279374   5.298   0.413  14.593
92493SOL     OW79375  11.395  13.011  10.793
92493SOL    HW179376  11.465  12.954  10.762
92493SOL    HW279377  11.314  12.969  10.762
92494SOL     OW79378  14.858   1.157   4.456
92494SOL    HW179379  14.839   1.167   4.362
92494SOL    HW279380   0.066   1.187   4.466
92495SOL     OW79381   8.844   5.200   9.767
92495SOL    HW179382   8.884   5.127   9.813
92495SOL    HW279383   8.754   5.171   9.749
92496SOL     OW79384  11.489  11.932   1.390
92496SOL    HW179385  11.506  11.839   1.375
92496SOL    HW279386  11.553  11.977   1.334
92497SOL     OW79387   7.696  13.191   6.164
92497SOL    HW179388   7.766  13.126   6.160
92497SOL    HW279389   7.634  13.155   6.228
92498SOL     OW79390   8.173   6.167  14.291
92498SOL    HW179391   8.265   6.147  14.310
92498SOL    HW279392   8.176   6.227  14.217
92499SOL     OW79393  11.564   7.309   5.573
92499SOL    HW179394  11.525   7.295   5.487
92499SOL    HW279395  11.494   7.347   5.625
92500SOL     OW79396   5.756   0.843   2.400
92500SOL    HW179397   5.786   0.917   2.453
92500SOL    HW279398   5.835   0.809   2.358
92501SOL     OW79399  11.729   6.395  12.068
92501SOL    HW179400  11.756   6.435  11.985
92501SOL    HW279401  11.634   6.384  12.060
92502SOL     OW79402   3.820   4.568  12.395
92502SOL    HW179403   3.740   4.520  12.415
92502SOL    HW279404   3.891   4.507  12.417
92503SOL     OW79405  12.505   9.298  12.244
92503SOL    HW179406  12.491   9.369  12.306
92503SOL    HW279407  12.442   9.230  12.270
92504SOL     OW79408   3.476  10.537  12.003
92504SOL    HW179409   3.402  10.590  12.032
92504SOL    HW279410   3.498  10.482  12.078
92505SOL     OW79411   5.173  14.234   1.341
92505SOL    HW179412   5.136  14.303   1.396
92505SOL    HW279413   5.100  14.204   1.287
92506SOL     OW79414   8.783   6.706   0.922
92506SOL    HW179415   8.858   6.764   0.911
92506SOL    HW279416   8.778   6.658   0.840
92507SOL     OW79417   9.269   1.882  10.196
92507SOL    HW179418   9.316   1.916  10.272
92507SOL    HW279419   9.178   1.908  10.212
92508SOL     OW79420   5.097   6.130   2.164
92508SOL    HW179421   5.135   6.061   2.108
92508SOL    HW279422   5.114   6.100   2.253
92509SOL     OW79423   8.751   1.647   3.716
92509SOL    HW179424   8.752   1.699   3.635
92509SOL    HW279425   8.831   1.595   3.712
92510SOL     OW79426   7.333   0.152   7.942
92510SOL    HW179427   7.254   0.132   7.993
92510SOL    HW279428   7.368   0.231   7.982
92511SOL     OW79429   3.821  10.852  11.681
92511SOL    HW179430   3.765  10.919  11.720
92511SOL    HW279431   3.798  10.771  11.727
92512SOL     OW79432   8.395   6.258   8.936
92512SOL    HW179433   8.489   6.250   8.917
92512SOL    HW279434   8.386   6.344   8.977
92513SOL     OW79435   9.752  11.439   8.283
92513SOL    HW179436   9.824  11.491   8.247
92513SOL    HW279437   9.745  11.469   8.374
92514SOL     OW79438   3.888   4.996   5.952
92514SOL    HW179439   3.824   5.053   5.909
92514SOL    HW279440   3.948   5.056   5.995
92515SOL     OW79441   0.644  13.490   8.956
92515SOL    HW179442   0.636  13.401   8.990
92515SOL    HW279443   0.723  13.487   8.901
92516SOL     OW79444   0.429  14.782   3.580
92516SOL    HW179445   0.505  14.839   3.569
92516SOL    HW279446   0.425  14.766   3.674
92517SOL     OW79447  10.211  11.718   2.016
92517SOL    HW179448  10.291  11.743   1.970
92517SOL    HW279449  10.157  11.675   1.949
92518SOL     OW79450   9.868   4.133  11.641
92518SOL    HW179451   9.804   4.193  11.680
92518SOL    HW279452   9.816   4.057  11.614
92519SOL     OW79453  12.388   8.109   0.977
92519SOL    HW179454  12.450   8.043   0.945
92519SOL    HW279455  12.395   8.104   1.073
92520SOL     OW79456   5.006   6.124  13.913
92520SOL    HW179457   4.947   6.191  13.878
92520SOL    HW279458   4.976   6.110  14.003
92521SOL     OW79459   8.589   1.971   6.536
92521SOL    HW179460   8.641   2.023   6.475
92521SOL    HW279461   8.561   2.033   6.603
92522SOL     OW79462   6.256   0.228  11.467
92522SOL    HW179463   6.183   0.170  11.488
92522SOL    HW279464   6.318   0.214  11.539
92523SOL     OW79465  12.577  11.789  12.490
92523SOL    HW179466  12.559  11.775  12.584
92523SOL    HW279467  12.559  11.704  12.450
92524SOL     OW79468  10.241   5.866   0.650
92524SOL    HW179469  10.184   5.938   0.622
92524SOL    HW279470  10.194   5.787   0.623
92525SOL     OW79471   2.542   6.041   6.668
92525SOL    HW179472   2.611   6.037   6.733
92525SOL    HW279473   2.463   6.016   6.716
92526SOL     OW79474  12.790   2.233   8.473
92526SOL    HW179475  12.813   2.179   8.398
92526SOL    HW279476  12.719   2.186   8.516
92527SOL     OW79477   1.417   9.938  11.969
92527SOL    HW179478   1.419  10.007  12.035
92527SOL    HW279479   1.331   9.898  11.978
92528SOL     OW79480   7.341   8.333   0.655
92528SOL    HW179481   7.434   8.343   0.676
92528SOL    HW279482   7.338   8.324   0.560
92529SOL     OW79483   2.324   0.900   2.411
92529SOL    HW179484   2.275   0.947   2.478
92529SOL    HW279485   2.260   0.840   2.372
92530SOL     OW79486   6.669   1.928  12.372
92530SOL    HW179487   6.659   1.866  12.445
92530SOL    HW279488   6.597   1.908  12.313
92531SOL     OW79489  11.014   2.094  13.496
92531SOL    HW179490  10.959   2.075  13.572
92531SOL    HW279491  11.042   2.184  13.509
92532SOL     OW79492  13.783  10.772  14.492
92532SOL    HW179493  13.750  10.683  14.487
92532SOL    HW279494  13.797  10.798  14.401
92533SOL     OW79495   6.105  10.166  10.788
92533SOL    HW179496   6.112  10.235  10.723
92533SOL    HW279497   6.171  10.188  10.853
92534SOL     OW79498   7.872  13.678  14.666
92534SOL    HW179499   7.883  13.755  14.610
92534SOL    HW279500   7.778  13.675  14.684
92535SOL     OW79501  11.015  10.249  14.284
92535SOL    HW179502  11.065  10.304  14.223
92535SOL    HW279503  11.073  10.175  14.303
92536SOL     OW79504   7.445   2.996   9.473
92536SOL    HW179505   7.379   2.963   9.534
92536SOL    HW279506   7.504   2.922   9.458
92537SOL     OW79507  11.244  14.471   2.684
92537SOL    HW179508  11.214  14.391   2.642
92537SOL    HW279509  11.274  14.526   2.612
92538SOL     OW79510  13.273   6.755   7.624
92538SOL    HW179511  13.312   6.709   7.698
92538SOL    HW279512  13.233   6.687   7.570
92539SOL     OW79513   1.041   5.975  14.743
92539SOL    HW179514   0.950   5.963  14.770
92539SOL    HW279515   1.082   5.889  14.757
92540SOL     OW79516   3.133   5.418   0.657
92540SOL    HW179517   3.181   5.336   0.646
92540SOL    HW279518   3.201   5.485   0.659
92541SOL     OW79519  13.206   0.251   9.980
92541SOL    HW179520  13.229   0.342   9.958
92541SOL    HW279521  13.162   0.258  10.064
92542SOL     OW79522  13.803  10.123   7.389
92542SOL    HW179523  13.854  10.124   7.308
92542SOL    HW279524  13.720  10.165   7.366
92543SOL     OW79525   8.459   4.617   5.421
92543SOL    HW179526   8.451   4.556   5.347
92543SOL    HW279527   8.374   4.612   5.465
92544SOL     OW79528   7.828  12.423   5.140
92544SOL    HW179529   7.871  12.339   5.157
92544SOL    HW279530   7.739  12.400   5.112
92545SOL     OW79531   1.636   3.430  13.357
92545SOL    HW179532   1.671   3.412  13.444
92545SOL    HW279533   1.636   3.525  13.350
92546SOL     OW79534   7.846  12.412   6.375
92546SOL    HW179535   7.875  12.406   6.466
92546SOL    HW279536   7.923  12.444   6.327
92547SOL     OW79537   7.814  10.868   9.297
92547SOL    HW179538   7.770  10.952   9.307
92547SOL    HW279539   7.755  10.805   9.338
92548SOL     OW79540   3.525  12.057  14.624
92548SOL    HW179541   3.609  12.091  14.656
92548SOL    HW279542   3.468  12.057  14.700
92549SOL     OW79543  10.091  11.654  11.407
92549SOL    HW179544  10.107  11.577  11.462
92549SOL    HW279545  10.076  11.725  11.470
92550SOL     OW79546   9.520   5.982  12.079
92550SOL    HW179547   9.519   5.895  12.039
92550SOL    HW279548   9.599   6.023  12.046
92551SOL     OW79549  10.145   1.874   7.129
92551SOL    HW179550  10.194   1.792   7.143
92551SOL    HW279551  10.108   1.895   7.214
92552SOL     OW79552  11.735   6.996   5.225
92552SOL    HW179553  11.775   6.998   5.138
92552SOL    HW279554  11.711   6.904   5.237
92553SOL     OW79555   8.722  10.180   4.530
92553SOL    HW179556   8.679  10.254   4.487
92553SOL    HW279557   8.731  10.114   4.462
92554SOL     OW79558   2.768  13.465   2.933
92554SOL    HW179559   2.688  13.456   2.881
92554SOL    HW279560   2.833  13.496   2.870
92555SOL     OW79561   2.018   0.305  10.158
92555SOL    HW179562   1.945   0.258  10.197
92555SOL    HW279563   2.035   0.377  10.219
92556SOL     OW79564   7.649   5.952   9.348
92556SOL    HW179565   7.667   5.884   9.413
92556SOL    HW279566   7.677   6.033   9.390
92557SOL     OW79567   8.415  10.543   7.132
92557SOL    HW179568   8.398  10.465   7.079
92557SOL    HW279569   8.422  10.511   7.221
92558SOL     OW79570   5.309  14.086  13.438
92558SOL    HW179571   5.365  14.028  13.387
92558SOL    HW279572   5.369  14.140  13.489
92559SOL     OW79573  14.496   4.780   6.456
92559SOL    HW179574  14.417   4.831   6.440
92559SOL    HW279575  14.497   4.715   6.385
92560SOL     OW79576   6.727  13.127   7.964
92560SOL    HW179577   6.733  13.100   7.873
92560SOL    HW279578   6.808  13.176   7.980
92561SOL     OW79579  11.358   5.156   5.942
92561SOL    HW179580  11.425   5.155   5.874
92561SOL    HW279581  11.366   5.072   5.987
92562SOL     OW79582  12.463  10.940   6.927
92562SOL    HW179583  12.446  11.013   6.987
92562SOL    HW279584  12.549  10.907   6.953
92563SOL     OW79585   2.417   9.535  13.249
92563SOL    HW179586   2.385   9.531  13.339
92563SOL    HW279587   2.484   9.467  13.244
92564SOL     OW79588   9.509  14.754  12.017
92564SOL    HW179589   9.565  14.694  11.969
92564SOL    HW279590   9.423  14.742  11.979
92565SOL     OW79591   2.923  14.646  10.702
92565SOL    HW179592   2.911  14.554  10.680
92565SOL    HW279593   3.015  14.663  10.682
92566SOL     OW79594   2.274   3.862   3.296
92566SOL    HW179595   2.252   3.931   3.358
92566SOL    HW279596   2.362   3.834   3.322
92567SOL     OW79597  13.950  11.745   4.553
92567SOL    HW179598  13.915  11.759   4.465
92567SOL    HW279599  13.874  11.755   4.611
92568SOL     OW79600   7.703   2.948   4.199
92568SOL    HW179601   7.687   2.879   4.135
92568SOL    HW279602   7.710   2.902   4.283
92569SOL     OW79603   5.186   7.884  11.679
92569SOL    HW179604   5.262   7.827  11.671
92569SOL    HW279605   5.217   7.958  11.731
92570SOL     OW79606   9.805   7.958   0.278
92570SOL    HW179607   9.869   7.930   0.212
92570SOL    HW279608   9.729   7.903   0.263
92571SOL     OW79609  12.421   7.722   6.057
92571SOL    HW179610  12.361   7.766   5.996
92571SOL    HW279611  12.468   7.793   6.100
92572SOL     OW79612   1.545   8.134   2.322
92572SOL    HW179613   1.494   8.094   2.251
92572SOL    HW279614   1.527   8.227   2.315
92573SOL     OW79615  10.415   6.329  12.053
92573SOL    HW179616  10.353   6.366  11.990
92573SOL    HW279617  10.501   6.340  12.011
92574SOL     OW79618   2.225  12.649   5.310
92574SOL    HW179619   2.229  12.694   5.227
92574SOL    HW279620   2.174  12.707   5.367
92575SOL     OW79621   3.747   3.211  13.361
92575SOL    HW179622   3.759   3.172  13.274
92575SOL    HW279623   3.771   3.141  13.422
92576SOL     OW79624  12.463   6.768   3.212
92576SOL    HW179625  12.477   6.694   3.271
92576SOL    HW279626  12.551   6.805   3.198
92577SOL     OW79627   8.897  13.656  13.175
92577SOL    HW179628   8.970  13.644  13.115
92577SOL    HW279629   8.868  13.746  13.160
92578SOL     OW79630   0.094  11.695  14.083
92578SOL    HW179631   0.007  11.679  14.048
92578SOL    HW279632   0.121  11.779  14.044
92579SOL     OW79633  11.192   6.195   9.470
92579SOL    HW179634  11.164   6.215   9.559
92579SOL    HW279635  11.182   6.278   9.422
92580SOL     OW79636   1.275   3.502   1.809
92580SOL    HW179637   1.273   3.557   1.731
92580SOL    HW279638   1.306   3.417   1.778
92581SOL     OW79639   9.889  10.097   1.376
92581SOL    HW179640   9.867  10.043   1.452
92581SOL    HW279641   9.882  10.187   1.408
92582SOL     OW79642   2.178   4.723   0.162
92582SOL    HW179643   2.262   4.693   0.125
92582SOL    HW279644   2.201   4.799   0.215
92583SOL     OW79645  14.341  12.949  12.914
92583SOL    HW179646  14.300  12.867  12.885
92583SOL    HW279647  14.325  13.010  12.842
92584SOL     OW79648   3.692  14.297  12.536
92584SOL    HW179649   3.743  14.355  12.480
92584SOL    HW279650   3.704  14.210  12.498
92585SOL     OW79651   9.152  14.096   1.181
92585SOL    HW179652   9.104  14.098   1.098
92585SOL    HW279653   9.155  14.187   1.210
92586SOL     OW79654  13.161   6.021   7.878
92586SOL    HW179655  13.148   6.111   7.910
92586SOL    HW279656  13.236   5.989   7.928
92587SOL     OW79657   5.078  12.024   4.512
92587SOL    HW179658   5.169  12.041   4.539
92587SOL    HW279659   5.052  12.103   4.465
92588SOL     OW79660   9.561   7.752   4.481
92588SOL    HW179661   9.593   7.820   4.423
92588SOL    HW279662   9.481   7.788   4.519
92589SOL     OW79663   7.906  13.500   8.307
92589SOL    HW179664   7.854  13.530   8.382
92589SOL    HW279665   7.984  13.555   8.308
92590SOL     OW79666   5.874  14.510  13.895
92590SOL    HW179667   5.926  14.587  13.872
92590SOL    HW279668   5.849  14.524  13.987
92591SOL     OW79669  11.981   3.840   4.814
92591SOL    HW179670  12.068   3.841   4.855
92591SOL    HW279671  11.920   3.839   4.887
92592SOL     OW79672   7.494   5.641   3.851
92592SOL    HW179673   7.407   5.675   3.871
92592SOL    HW279674   7.497   5.636   3.756
92593SOL     OW79675   2.239   0.106   5.170
92593SOL    HW179676   2.156   0.126   5.127
92593SOL    HW279677   2.215   0.087   5.261
92594SOL     OW79678  10.648  14.202   8.833
92594SOL    HW179679  10.595  14.134   8.792
92594SOL    HW279680  10.662  14.170   8.922
92595SOL     OW79681   0.780   5.842  11.339
92595SOL    HW179682   0.859   5.894  11.329
92595SOL    HW279683   0.776   5.822  11.433
92596SOL     OW79684   5.591  10.562   2.238
92596SOL    HW179685   5.601  10.489   2.299
92596SOL    HW279686   5.680  10.598   2.231
92597SOL     OW79687  13.435   8.316  13.928
92597SOL    HW179688  13.476   8.390  13.884
92597SOL    HW279689  13.355   8.351  13.966
92598SOL     OW79690  10.878   2.817  12.243
92598SOL    HW179691  10.950   2.853  12.191
92598SOL    HW279692  10.912   2.816  12.332
92599SOL     OW79693   4.952  14.591   4.670
92599SOL    HW179694   4.929  14.682   4.690
92599SOL    HW279695   5.002  14.562   4.747
92600SOL     OW79696   2.548   1.002   8.698
92600SOL    HW179697   2.461   1.018   8.661
92600SOL    HW279698   2.545   0.912   8.728
92601SOL     OW79699  10.543  10.476   9.212
92601SOL    HW179700  10.550  10.543   9.145
92601SOL    HW279701  10.489  10.516   9.280
92602SOL     OW79702  12.141   1.168   3.305
92602SOL    HW179703  12.169   1.253   3.338
92602SOL    HW279704  12.199   1.151   3.230
92603SOL     OW79705   1.689   5.739   3.379
92603SOL    HW179706   1.650   5.761   3.464
92603SOL    HW279707   1.771   5.696   3.402
92604SOL     OW79708  14.808   7.437   0.316
92604SOL    HW179709  14.761   7.414   0.235
92604SOL    HW279710  14.844   7.355   0.347
92605SOL     OW79711  12.467   3.954   3.785
92605SOL    HW179712  12.443   4.046   3.775
92605SOL    HW279713  12.540   3.954   3.847
92606SOL     OW79714   6.397   4.968   0.403
92606SOL    HW179715   6.404   4.925   0.318
92606SOL    HW279716   6.363   4.901   0.461
92607SOL     OW79717  12.565  11.829   9.661
92607SOL    HW179718  12.659  11.819   9.645
92607SOL    HW279719  12.550  11.783   9.743
92608SOL     OW79720   2.797   4.336   3.980
92608SOL    HW179721   2.727   4.295   4.031
92608SOL    HW279722   2.755   4.407   3.932
92609SOL     OW79723   7.512   5.746   3.549
92609SOL    HW179724   7.515   5.661   3.505
92609SOL    HW279725   7.435   5.789   3.512
92610SOL     OW79726   1.493  10.655   6.241
92610SOL    HW179727   1.570  10.601   6.223
92610SOL    HW279728   1.493  10.721   6.171
92611SOL     OW79729   9.485   5.366  12.603
92611SOL    HW179730   9.572   5.405  12.599
92611SOL    HW279731   9.501   5.274  12.624
92612SOL     OW79732  10.113   2.604   1.625
92612SOL    HW179733  10.032   2.553   1.622
92612SOL    HW279734  10.092   2.686   1.580
92613SOL     OW79735  10.931   9.178   2.440
92613SOL    HW179736  10.963   9.219   2.520
92613SOL    HW279737  10.875   9.243   2.399
92614SOL     OW79738  11.147   1.368  12.002
92614SOL    HW179739  11.117   1.426  12.072
92614SOL    HW279740  11.234   1.339  12.031
92615SOL     OW79741   7.542   0.811  13.414
92615SOL    HW179742   7.484   0.741  13.446
92615SOL    HW279743   7.506   0.891  13.452
92616SOL     OW79744   2.503   9.255   6.753
92616SOL    HW179745   2.599   9.251   6.752
92616SOL    HW279746   2.475   9.166   6.734
92617SOL     OW79747  11.593   4.943   7.197
92617SOL    HW179748  11.632   4.860   7.224
92617SOL    HW279749  11.509   4.919   7.158
92618SOL     OW79750   1.182   2.156   6.058
92618SOL    HW179751   1.113   2.219   6.081
92618SOL    HW279752   1.147   2.109   5.983
92619SOL     OW79753   3.107   7.546   1.436
92619SOL    HW179754   3.031   7.488   1.428
92619SOL    HW279755   3.076   7.632   1.409
92620SOL     OW79756  13.102   3.398  10.964
92620SOL    HW179757  13.038   3.424  10.898
92620SOL    HW279758  13.120   3.478  11.014
92621SOL     OW79759  10.246   2.305   6.297
92621SOL    HW179760  10.253   2.321   6.391
92621SOL    HW279761  10.160   2.264   6.285
92622SOL     OW79762   6.804   5.686  12.594
92622SOL    HW179763   6.751   5.636  12.532
92622SOL    HW279764   6.742   5.741  12.641
92623SOL     OW79765  11.967   9.598   1.761
92623SOL    HW179766  12.057   9.569   1.777
92623SOL    HW279767  11.925   9.595   1.846
92624SOL     OW79768   7.553   4.671   5.910
92624SOL    HW179769   7.515   4.637   5.991
92624SOL    HW279770   7.611   4.601   5.880
92625SOL     OW79771  11.505  13.770  11.187
92625SOL    HW179772  11.521  13.702  11.253
92625SOL    HW279773  11.422  13.809  11.214
92626SOL     OW79774   7.691   9.264   9.005
92626SOL    HW179775   7.682   9.308   8.921
92626SOL    HW279776   7.611   9.286   9.052
92627SOL     OW79777   6.026   0.212  13.710
92627SOL    HW179778   5.990   0.152  13.644
92627SOL    HW279779   6.073   0.155  13.771
92628SOL     OW79780  11.891   1.700  10.729
92628SOL    HW179781  11.824   1.660  10.674
92628SOL    HW279782  11.884   1.654  10.813
92629SOL     OW79783   4.175   6.118   6.216
92629SOL    HW179784   4.175   6.045   6.278
92629SOL    HW279785   4.098   6.170   6.240
92630SOL     OW79786  14.032  13.873   7.682
92630SOL    HW179787  14.092  13.831   7.744
92630SOL    HW279788  13.959  13.904   7.736
92631SOL     OW79789   9.046   3.880   4.030
92631SOL    HW179790   9.103   3.871   3.953
92631SOL    HW279791   8.994   3.958   4.013
92632SOL     OW79792  12.645   5.311   8.623
92632SOL    HW179793  12.641   5.406   8.625
92632SOL    HW279794  12.738   5.290   8.632
92633SOL     OW79795   1.080   8.835  13.125
92633SOL    HW179796   1.166   8.852  13.087
92633SOL    HW279797   1.083   8.744  13.153
92634SOL     OW79798   7.007   3.345   3.224
92634SOL    HW179799   6.917   3.357   3.197
92634SOL    HW279800   7.025   3.418   3.283
92635SOL     OW79801  11.719   6.856   0.126
92635SOL    HW179802  11.674   6.805   0.059
92635SOL    HW279803  11.667   6.843   0.205
92636SOL     OW79804   8.177   9.483   1.989
92636SOL    HW179805   8.148   9.521   2.072
92636SOL    HW279806   8.098   9.476   1.936
92637SOL     OW79807  10.722   8.117  14.777
92637SOL    HW179808  10.781   8.186  14.808
92637SOL    HW279809  10.778   8.041  14.765
92638SOL     OW79810   3.389   4.753   6.681
92638SOL    HW179811   3.420   4.823   6.739
92638SOL    HW279812   3.444   4.761   6.603
92639SOL     OW79813   0.374   5.831   8.370
92639SOL    HW179814   0.367   5.788   8.285
92639SOL    HW279815   0.427   5.908   8.354
92640SOL     OW79816  12.660  10.414  12.752
92640SOL    HW179817  12.607  10.431  12.830
92640SOL    HW279818  12.742  10.459  12.768
92641SOL     OW79819  10.593   3.718  10.126
92641SOL    HW179820  10.670   3.738  10.071
92641SOL    HW279821  10.567   3.630  10.098
92642SOL     OW79822   0.305   0.360   3.572
92642SOL    HW179823   0.378   0.320   3.620
92642SOL    HW279824   0.316   0.328   3.482
92643SOL     OW79825  12.915  10.813   9.588
92643SOL    HW179826  12.871  10.730   9.569
92643SOL    HW279827  13.008  10.792   9.585
92644SOL     OW79828   5.345   7.009  10.243
92644SOL    HW179829   5.437   6.990  10.259
92644SOL    HW279830   5.298   6.962  10.313
92645SOL     OW79831   6.140  12.410   3.564
92645SOL    HW179832   6.137  12.462   3.483
92645SOL    HW279833   6.208  12.345   3.548
92646SOL     OW79834   9.430  13.916   2.746
92646SOL    HW179835   9.428  13.936   2.653
92646SOL    HW279836   9.352  13.958   2.782
92647SOL     OW79837  12.720   6.359  12.299
92647SOL    HW179838  12.738   6.326  12.386
92647SOL    HW279839  12.802   6.348  12.251
92648SOL     OW79840  10.414  14.658   0.723
92648SOL    HW179841  10.423  14.604   0.801
92648SOL    HW279842  10.359  14.732   0.751
92649SOL     OW79843   8.948   3.918   9.560
92649SOL    HW179844   8.955   4.009   9.531
92649SOL    HW279845   8.860   3.891   9.534
92650SOL     OW79846   5.691   6.282  11.581
92650SOL    HW179847   5.724   6.291  11.491
92650SOL    HW279848   5.637   6.203  11.578
92651SOL     OW79849   4.916   3.842   6.991
92651SOL    HW179850   4.858   3.767   7.002
92651SOL    HW279851   5.004   3.806   7.004
92652SOL     OW79852   1.987  11.894   6.120
92652SOL    HW179853   1.932  11.819   6.097
92652SOL    HW279854   1.929  11.970   6.110
92653SOL     OW79855   2.703  14.221  11.059
92653SOL    HW179856   2.652  14.147  11.092
92653SOL    HW279857   2.793  14.188  11.058
92654SOL     OW79858   4.795   7.571   5.599
92654SOL    HW179859   4.880   7.586   5.558
92654SOL    HW279860   4.815   7.550   5.690
92655SOL     OW79861   3.344   5.004   5.471
92655SOL    HW179862   3.417   4.981   5.530
92655SOL    HW279863   3.273   5.029   5.530
92656SOL     OW79864   1.014   3.528  14.858
92656SOL    HW179865   0.998   3.621  14.846
92656SOL    HW279866   1.050   3.521   0.064
92657SOL     OW79867   5.526   0.106  11.265
92657SOL    HW179868   5.557   0.019  11.241
92657SOL    HW279869   5.474   0.093  11.344
92658SOL     OW79870   4.818   1.732   1.105
92658SOL    HW179871   4.840   1.710   1.014
92658SOL    HW279872   4.723   1.731   1.107
92659SOL     OW79873  14.669   5.634   5.083
92659SOL    HW179874  14.582   5.668   5.099
92659SOL    HW279875  14.692   5.666   4.995
92660SOL     OW79876   6.938  12.381   3.222
92660SOL    HW179877   6.881  12.429   3.163
92660SOL    HW279878   6.922  12.289   3.203
92661SOL     OW79879   4.371   2.403  10.924
92661SOL    HW179880   4.350   2.402  10.830
92661SOL    HW279881   4.358   2.313  10.952
92662SOL     OW79882   5.031  14.111   6.604
92662SOL    HW179883   5.037  14.162   6.685
92662SOL    HW279884   5.109  14.055   6.605
92663SOL     OW79885   6.667   4.186   0.486
92663SOL    HW179886   6.629   4.124   0.548
92663SOL    HW279887   6.756   4.155   0.472
92664SOL     OW79888   9.842   1.569   4.117
92664SOL    HW179889   9.930   1.590   4.086
92664SOL    HW279890   9.789   1.567   4.037
92665SOL     OW79891   1.911   7.186  13.502
92665SOL    HW179892   1.890   7.125  13.573
92665SOL    HW279893   1.915   7.131  13.424
92666SOL     OW79894  10.087   4.998   6.169
92666SOL    HW179895  10.162   4.985   6.227
92666SOL    HW279896  10.107   5.079   6.121
92667SOL     OW79897   2.082   7.704   8.035
92667SOL    HW179898   2.045   7.663   8.113
92667SOL    HW279899   2.006   7.741   7.990
92668SOL     OW79900  10.842  13.665  11.166
92668SOL    HW179901  10.867  13.694  11.253
92668SOL    HW279902  10.890  13.584  11.153
92669SOL     OW79903   9.994   4.909  13.373
92669SOL    HW179904  10.064   4.973  13.386
92669SOL    HW279905  10.038   4.824  13.377
92670SOL     OW79906   5.457   4.297   5.837
92670SOL    HW179907   5.397   4.281   5.910
92670SOL    HW279908   5.486   4.210   5.810
92671SOL     OW79909  13.486  13.023   0.302
92671SOL    HW179910  13.457  12.979   0.223
92671SOL    HW279911  13.582  13.028   0.293
92672SOL     OW79912   9.664   7.362   3.742
92672SOL    HW179913   9.717   7.433   3.706
92672SOL    HW279914   9.728   7.306   3.786
92673SOL     OW79915  13.098  13.860   7.274
92673SOL    HW179916  13.149  13.863   7.355
92673SOL    HW279917  13.011  13.828   7.301
92674SOL     OW79918   2.923  14.105  13.356
92674SOL    HW179919   2.982  14.113  13.431
92674SOL    HW279920   2.972  14.053  13.292
92675SOL     OW79921  12.965   6.042  11.223
92675SOL    HW179922  12.905   6.115  11.208
92675SOL    HW279923  13.047   6.083  11.251
92676SOL     OW79924   7.347   6.437   8.480
92676SOL    HW179925   7.387   6.504   8.425
92676SOL    HW279926   7.420   6.383   8.509
92677SOL     OW79927   3.469  11.758   5.305
92677SOL    HW179928   3.454  11.851   5.291
92677SOL    HW279929   3.473  11.748   5.401
92678SOL     OW79930  12.026   6.427   7.354
92678SOL    HW179931  11.937   6.411   7.382
92678SOL    HW279932  12.080   6.404   7.429
92679SOL     OW79933  13.248   2.984  11.330
92679SOL    HW179934  13.182   2.997  11.399
92679SOL    HW279935  13.206   3.018  11.251
92680SOL     OW79936   6.479   8.771  13.698
92680SOL    HW179937   6.557   8.738  13.652
92680SOL    HW279938   6.417   8.788  13.628
92681SOL     OW79939  13.021   9.054   5.819
92681SOL    HW179940  13.044   9.111   5.746
92681SOL    HW279941  12.934   9.082   5.846
92682SOL     OW79942   5.995  11.293   7.987
92682SOL    HW179943   5.968  11.385   7.982
92682SOL    HW279944   5.962  11.254   7.906
92683SOL     OW79945   2.007  13.371   4.352
92683SOL    HW179946   2.068  13.445   4.362
92683SOL    HW279947   2.048  13.315   4.286
92684SOL     OW79948  10.533  14.669   3.329
92684SOL    HW179949  10.628  14.678   3.330
92684SOL    HW279950  10.501  14.741   3.381
92685SOL     OW79951  11.279  10.785   7.507
92685SOL    HW179952  11.198  10.835   7.518
92685SOL    HW279953  11.270  10.712   7.567
92686SOL     OW79954   2.773   9.806   3.468
92686SOL    HW179955   2.862   9.840   3.475
92686SOL    HW279956   2.740   9.807   3.558
92687SOL     OW79957   1.950  13.323   7.003
92687SOL    HW179958   1.864  13.363   7.000
92687SOL    HW279959   1.994  13.365   7.078
92688SOL     OW79960  12.357  10.965  12.204
92688SOL    HW179961  12.325  11.055  12.209
92688SOL    HW279962  12.282  10.915  12.172
92689SOL     OW79963  11.102  14.554   0.128
92689SOL    HW179964  11.183  14.510   0.153
92689SOL    HW279965  11.097  14.543   0.033
92690SOL     OW79966  10.499   4.128  10.079
92690SOL    HW179967  10.551   4.110  10.000
92690SOL    HW279968  10.544   4.200  10.122
92691SOL     OW79969   4.970  14.084   0.782
92691SOL    HW179970   4.887  14.125   0.806
92691SOL    HW279971   4.951  14.038   0.700
92692SOL     OW79972   5.459   2.054   4.050
92692SOL    HW179973   5.512   2.086   4.123
92692SOL    HW279974   5.480   2.113   3.977
92693SOL     OW79975  11.200  14.800   8.048
92693SOL    HW179976  11.227   0.010   8.049
92693SOL    HW279977  11.230  14.768   7.962
92694SOL     OW79978   6.731  14.572   4.408
92694SOL    HW179979   6.698  14.525   4.484
92694SOL    HW279980   6.798  14.514   4.371
92695SOL     OW79981   4.681  11.912  12.214
92695SOL    HW179982   4.695  11.975  12.144
92695SOL    HW279983   4.586  11.907  12.223
92696SOL     OW79984  12.008   1.756   4.595
92696SOL    HW179985  11.990   1.727   4.684
92696SOL    HW279986  12.093   1.719   4.574
92697SOL     OW79987  14.689   0.067   5.163
92697SOL    HW179988  14.614   0.035   5.214
92697SOL    HW279989  14.660   0.151   5.127
92698SOL     OW79990   0.018   7.342   1.221
92698SOL    HW179991   0.065   7.259   1.210
92698SOL    HW279992  14.824   7.333   1.163
92699SOL     OW79993   5.083  11.425  12.324
92699SOL    HW179994   5.115  11.452  12.410
92699SOL    HW279995   4.989  11.411  12.336
92700SOL     OW79996  10.470  12.673   3.357
92700SOL    HW179997  10.489  12.638   3.444
92700SOL    HW279998  10.533  12.630   3.299
92701SOL     OW79999   0.260  12.378   4.863
92701SOL    HW180000   0.270  12.466   4.901
92701SOL    HW280001   0.293  12.319   4.930
92702SOL     OW80002  12.648   5.717   4.045
92702SOL    HW180003  12.553   5.727   4.036
92702SOL    HW280004  12.673   5.788   4.104
92703SOL     OW80005   9.549  12.827  12.711
92703SOL    HW180006   9.601  12.907  12.719
92703SOL    HW280007   9.591  12.777  12.642
92704SOL     OW80008   5.752   3.595  13.450
92704SOL    HW180009   5.838   3.574  13.486
92704SOL    HW280010   5.691   3.541  13.500
92705SOL     OW80011   7.981   6.030  14.095
92705SOL    HW180012   7.890   6.057  14.106
92705SOL    HW280013   8.026   6.110  14.068
92706SOL     OW80014  11.576   0.610   6.873
92706SOL    HW180015  11.578   0.685   6.813
92706SOL    HW280016  11.548   0.646   6.957
92707SOL     OW80017  12.649  11.486   9.545
92707SOL    HW180018  12.578  11.545   9.522
92707SOL    HW280019  12.710  11.490   9.471
92708SOL     OW80020   5.024  10.125   9.178
92708SOL    HW180021   5.020  10.036   9.211
92708SOL    HW280022   5.079  10.119   9.099
92709SOL     OW80023  11.615  10.764   7.621
92709SOL    HW180024  11.686  10.799   7.675
92709SOL    HW280025  11.615  10.820   7.542
92710SOL     OW80026   5.760   3.961  10.472
92710SOL    HW180027   5.761   4.057  10.477
92710SOL    HW280028   5.669   3.939  10.453
92711SOL     OW80029   0.044  11.575   8.703
92711SOL    HW180030  14.871  11.503   8.734
92711SOL    HW280031   0.059  11.629   8.781
92712SOL     OW80032   5.168   4.054   4.504
92712SOL    HW180033   5.200   4.046   4.414
92712SOL    HW280034   5.091   3.998   4.508
92713SOL     OW80035  13.879   6.002   0.131
92713SOL    HW180036  13.969   5.976   0.111
92713SOL    HW280037  13.857   6.065   0.062
92714SOL     OW80038   3.865  11.703  14.234
92714SOL    HW180039   3.840  11.791  14.206
92714SOL    HW280040   3.804  11.645  14.189
92715SOL     OW80041   2.775   5.649   7.328
92715SOL    HW180042   2.760   5.569   7.379
92715SOL    HW280043   2.703   5.651   7.265
92716SOL     OW80044   6.494   2.601   6.017
92716SOL    HW180045   6.452   2.687   6.017
92716SOL    HW280046   6.430   2.543   5.976
92717SOL     OW80047   8.499   1.326   0.066
92717SOL    HW180048   8.583   1.282   0.052
92717SOL    HW280049   8.434   1.257   0.059
92718SOL     OW80050  12.757   4.094  13.867
92718SOL    HW180051  12.703   4.154  13.816
92718SOL    HW280052  12.754   4.012  13.818
92719SOL     OW80053  11.167   1.368   6.418
92719SOL    HW180054  11.125   1.410   6.493
92719SOL    HW280055  11.261   1.384   6.430
92720SOL     OW80056   0.766   4.061  13.661
92720SOL    HW180057   0.851   4.100  13.643
92720SOL    HW280058   0.784   3.987  13.720
92721SOL     OW80059   1.078  14.820   7.945
92721SOL    HW180060   1.155  14.843   7.998
92721SOL    HW280061   1.057  14.730   7.972
92722SOL     OW80062  10.892   1.284   6.605
92722SOL    HW180063  10.817   1.307   6.549
92722SOL    HW280064  10.953   1.358   6.595
92723SOL     OW80065   0.069  14.440   4.014
92723SOL    HW180066   0.050  14.428   4.108
92723SOL    HW280067  14.868  14.470   3.977
92724SOL     OW80068  14.297   0.602   0.031
92724SOL    HW180069  14.311   0.513  14.881
92724SOL    HW280070  14.245   0.591   0.110
92725SOL     OW80071   3.438  13.497   2.294
92725SOL    HW180072   3.505  13.440   2.256
92725SOL    HW280073   3.360  13.441   2.300
92726SOL     OW80074   8.273  11.925  13.343
92726SOL    HW180075   8.329  11.973  13.283
92726SOL    HW280076   8.193  11.908  13.293
92727SOL     OW80077   3.291  11.061   1.853
92727SOL    HW180078   3.385  11.076   1.849
92727SOL    HW280079   3.281  10.966   1.847
92728SOL     OW80080   8.647   6.322   0.980
92728SOL    HW180081   8.570   6.352   0.932
92728SOL    HW280082   8.720   6.336   0.920
92729SOL     OW80083   5.072   7.787   4.179
92729SOL    HW180084   5.049   7.845   4.252
92729SOL    HW280085   5.160   7.756   4.199
92730SOL     OW80086   1.426   9.251   1.438
92730SOL    HW180087   1.438   9.260   1.533
92730SOL    HW280088   1.512   9.267   1.401
92731SOL     OW80089   2.643  14.547   6.887
92731SOL    HW180090   2.694  14.622   6.918
92731SOL    HW280091   2.704  14.498   6.831
92732SOL     OW80092   1.907   5.560   3.416
92732SOL    HW180093   1.926   5.527   3.504
92732SOL    HW280094   1.975   5.626   3.401
92733SOL     OW80095   6.160  14.755   1.917
92733SOL    HW180096   6.128  14.829   1.866
92733SOL    HW280097   6.101  14.682   1.895
92734SOL     OW80098   4.331  11.022   1.829
92734SOL    HW180099   4.423  11.002   1.815
92734SOL    HW280100   4.298  11.045   1.742
92735SOL     OW80101   8.234   1.520  14.608
92735SOL    HW180102   8.253   1.433  14.573
92735SOL    HW280103   8.208   1.504  14.699
92736SOL     OW80104   8.585  11.895   7.767
92736SOL    HW180105   8.569  11.802   7.751
92736SOL    HW280106   8.518  11.920   7.831
92737SOL     OW80107   0.909   7.061   6.918
92737SOL    HW180108   0.822   7.098   6.902
92737SOL    HW280109   0.957   7.131   6.962
92738SOL     OW80110   3.353   4.233   9.251
92738SOL    HW180111   3.427   4.194   9.296
92738SOL    HW280112   3.360   4.327   9.269
92739SOL     OW80113  11.934   3.473   7.014
92739SOL    HW180114  12.026   3.481   6.988
92739SOL    HW280115  11.903   3.563   7.021
92740SOL     OW80116  11.994  13.201  14.556
92740SOL    HW180117  11.938  13.279  14.555
92740SOL    HW280118  12.084  13.236  14.558
92741SOL     OW80119   0.380   1.976   9.107
92741SOL    HW180120   0.299   2.015   9.142
92741SOL    HW280121   0.398   2.026   9.027
92742SOL     OW80122   7.624   2.275   0.455
92742SOL    HW180123   7.638   2.363   0.420
92742SOL    HW280124   7.673   2.273   0.537
92743SOL     OW80125  12.690   7.528   2.820
92743SOL    HW180126  12.649   7.451   2.859
92743SOL    HW280127  12.698   7.507   2.727
92744SOL     OW80128   4.998   8.060  14.678
92744SOL    HW180129   4.909   8.094  14.670
92744SOL    HW280130   5.031   8.097  14.760
92745SOL     OW80131  10.512   2.249   7.909
92745SOL    HW180132  10.565   2.231   7.831
92745SOL    HW280133  10.422   2.234   7.881
92746SOL     OW80134   3.873  11.452  13.497
92746SOL    HW180135   3.881  11.380  13.434
92746SOL    HW280136   3.920  11.421  13.574
92747SOL     OW80137  12.194   0.711   2.938
92747SOL    HW180138  12.221   0.646   2.873
92747SOL    HW280139  12.133   0.768   2.891
92748SOL     OW80140   4.075  11.495  10.854
92748SOL    HW180141   4.061  11.467  10.763
92748SOL    HW280142   3.988  11.514  10.888
92749SOL     OW80143  14.003   7.801   6.890
92749SOL    HW180144  14.012   7.874   6.829
92749SOL    HW280145  14.090   7.792   6.930
92750SOL     OW80146  13.794  11.415  13.562
92750SOL    HW180147  13.831  11.459  13.639
92750SOL    HW280148  13.853  11.437  13.491
92751SOL     OW80149   6.888   3.437   2.473
92751SOL    HW180150   6.846   3.440   2.387
92751SOL    HW280151   6.816   3.446   2.535
92752SOL     OW80152   3.272   4.372   1.906
92752SOL    HW180153   3.285   4.362   1.812
92752SOL    HW280154   3.353   4.412   1.938
92753SOL     OW80155   7.215   5.638  13.213
92753SOL    HW180156   7.244   5.715  13.164
92753SOL    HW280157   7.137   5.669  13.261
92754SOL     OW80158   6.279  14.536   7.391
92754SOL    HW180159   6.206  14.492   7.349
92754SOL    HW280160   6.296  14.484   7.470
92755SOL     OW80161   8.441   5.964   4.906
92755SOL    HW180162   8.443   5.920   4.822
92755SOL    HW280163   8.428   6.057   4.885
92756SOL     OW80164   2.049   5.161   8.798
92756SOL    HW180165   1.955   5.153   8.815
92756SOL    HW280166   2.078   5.232   8.855
92757SOL     OW80167   5.558   9.554   0.490
92757SOL    HW180168   5.483   9.511   0.530
92757SOL    HW280169   5.579   9.499   0.414
92758SOL     OW80170  12.821   0.643   6.715
92758SOL    HW180171  12.790   0.554   6.729
92758SOL    HW280172  12.916   0.638   6.730
92759SOL     OW80173  14.167   4.883  13.317
92759SOL    HW180174  14.215   4.800  13.308
92759SOL    HW280175  14.223   4.948  13.274
92760SOL     OW80176   7.803   0.633   0.126
92760SOL    HW180177   7.849   0.672   0.200
92760SOL    HW280178   7.846   0.549   0.112
92761SOL     OW80179   4.652  14.111  12.795
92761SOL    HW180180   4.708  14.152  12.729
92761SOL    HW280181   4.685  14.144  12.879
92762SOL     OW80182   8.586   5.580   9.692
92762SOL    HW180183   8.625   5.658   9.653
92762SOL    HW280184   8.590   5.514   9.622
92763SOL     OW80185   5.861   0.170  10.069
92763SOL    HW180186   5.802   0.100  10.097
92763SOL    HW280187   5.805   0.228  10.017
92764SOL     OW80188   6.131  11.223  13.378
92764SOL    HW180189   6.155  11.231  13.470
92764SOL    HW280190   6.214  11.220  13.331
92765SOL     OW80191  10.017   5.634  11.415
92765SOL    HW180192   9.985   5.580  11.487
92765SOL    HW280193  10.003   5.580  11.337
92766SOL     OW80194   4.888   8.552  12.742
92766SOL    HW180195   4.863   8.644  12.731
92766SOL    HW280196   4.810   8.510  12.778
92767SOL     OW80197   6.460   8.516  14.652
92767SOL    HW180198   6.446   8.553  14.740
92767SOL    HW280199   6.414   8.432  14.654
92768SOL     OW80200   2.513  10.912   6.286
92768SOL    HW180201   2.449  10.977   6.312
92768SOL    HW280202   2.484  10.884   6.199
92769SOL     OW80203  10.325   3.410   0.969
92769SOL    HW180204  10.320   3.319   0.998
92769SOL    HW280205  10.383   3.408   0.893
92770SOL     OW80206   9.361  14.223  13.579
92770SOL    HW180207   9.365  14.319  13.587
92770SOL    HW280208   9.327  14.194  13.664
92771SOL     OW80209   8.932   4.759   2.747
92771SOL    HW180210   8.968   4.701   2.814
92771SOL    HW280211   8.868   4.813   2.794
92772SOL     OW80212  10.213   3.257   5.738
92772SOL    HW180213  10.263   3.325   5.783
92772SOL    HW280214  10.256   3.175   5.764
92773SOL     OW80215  13.191  13.773   4.456
92773SOL    HW180216  13.206  13.812   4.371
92773SOL    HW280217  13.098  13.750   4.456
92774SOL     OW80218   8.012   5.852   3.581
92774SOL    HW180219   8.018   5.860   3.486
92774SOL    HW280220   8.037   5.938   3.615
92775SOL     OW80221   3.620   5.454  12.825
92775SOL    HW180222   3.531   5.473  12.797
92775SOL    HW280223   3.648   5.533  12.871
92776SOL     OW80224  13.396   6.369  11.246
92776SOL    HW180225  13.395   6.463  11.228
92776SOL    HW280226  13.460   6.333  11.184
92777SOL     OW80227   1.787   1.496   8.869
92777SOL    HW180228   1.721   1.481   8.802
92777SOL    HW280229   1.844   1.564   8.833
92778SOL     OW80230  14.604   4.105  11.405
92778SOL    HW180231  14.673   4.085  11.468
92778SOL    HW280232  14.600   4.029  11.348
92779SOL     OW80233   4.848   3.599   3.334
92779SOL    HW180234   4.899   3.631   3.260
92779SOL    HW280235   4.763   3.644   3.327
92780SOL     OW80236   3.183  11.887  13.671
92780SOL    HW180237   3.275  11.870  13.649
92780SOL    HW280238   3.154  11.806  13.712
92781SOL     OW80239  10.964  11.464   7.808
92781SOL    HW180240  10.903  11.449   7.880
92781SOL    HW280241  11.049  11.480   7.851
92782SOL     OW80242   6.480   2.080   5.584
92782SOL    HW180243   6.499   1.994   5.621
92782SOL    HW280244   6.466   2.136   5.660
92783SOL     OW80245   9.948   8.028   6.284
92783SOL    HW180246   9.876   8.084   6.254
92783SOL    HW280247   9.994   8.082   6.349
92784SOL     OW80248   3.977   6.599   2.165
92784SOL    HW180249   4.037   6.529   2.137
92784SOL    HW280250   3.972   6.589   2.260
92785SOL     OW80251   1.044   0.692   0.890
92785SOL    HW180252   1.052   0.629   0.818
92785SOL    HW280253   0.953   0.684   0.918
92786SOL     OW80254   7.045   0.636   5.095
92786SOL    HW180255   7.131   0.616   5.132
92786SOL    HW280256   7.024   0.559   5.042
92787SOL     OW80257  12.484   0.227   8.944
92787SOL    HW180258  12.448   0.268   9.023
92787SOL    HW280259  12.479   0.133   8.962
92788SOL     OW80260   2.242   6.587  13.916
92788SOL    HW180261   2.174   6.572  13.851
92788SOL    HW280262   2.309   6.522  13.896
92789SOL     OW80263   2.126   0.353   1.398
92789SOL    HW180264   2.046   0.305   1.374
92789SOL    HW280265   2.187   0.285   1.427
92790SOL     OW80266   0.592   5.861   8.023
92790SOL    HW180267   0.545   5.944   8.017
92790SOL    HW280268   0.593   5.827   7.933
92791SOL     OW80269   2.111  10.264   4.886
92791SOL    HW180270   2.033  10.316   4.867
92791SOL    HW280271   2.184  10.326   4.883
92792SOL     OW80272   9.685   4.849   6.037
92792SOL    HW180273   9.688   4.758   6.009
92792SOL    HW280274   9.671   4.899   5.956
92793SOL     OW80275   8.523  11.488  10.909
92793SOL    HW180276   8.519  11.394  10.927
92793SOL    HW280277   8.510  11.528  10.995
92794SOL     OW80278   1.392   4.166   5.639
92794SOL    HW180279   1.319   4.228   5.633
92794SOL    HW280280   1.366   4.094   5.582
92795SOL     OW80281  10.369   9.583  10.869
92795SOL    HW180282  10.461   9.608  10.882
92795SOL    HW280283  10.332   9.581  10.957
92796SOL     OW80284  14.843   9.095   1.539
92796SOL    HW180285  14.786   9.133   1.606
92796SOL    HW280286  14.850   9.163   1.473
92797SOL     OW80287  10.200  13.411   5.915
92797SOL    HW180288  10.276  13.465   5.893
92797SOL    HW280289  10.167  13.380   5.831
92798SOL     OW80290   9.095   1.572   7.252
92798SOL    HW180291   9.067   1.526   7.173
92798SOL    HW280292   9.014   1.607   7.290
92799SOL     OW80293   5.489  11.171  10.029
92799SOL    HW180294   5.448  11.199  10.111
92799SOL    HW280295   5.427  11.198   9.961
92800SOL     OW80296   9.814  11.552   4.238
92800SOL    HW180297   9.814  11.635   4.285
92800SOL    HW280298   9.738  11.557   4.180
92801SOL     OW80299  13.343   2.647   7.477
92801SOL    HW180300  13.356   2.630   7.384
92801SOL    HW280301  13.419   2.701   7.502
92802SOL     OW80302   0.820  11.723  13.535
92802SOL    HW180303   0.848  11.786  13.468
92802SOL    HW280304   0.836  11.637  13.494
92803SOL     OW80305   1.831  11.646   4.082
92803SOL    HW180306   1.890  11.581   4.046
92803SOL    HW280307   1.804  11.609   4.167
92804SOL     OW80308   4.894   0.719  14.300
92804SOL    HW180309   4.842   0.798  14.315
92804SOL    HW280310   4.950   0.712  14.378
92805SOL     OW80311   6.045  11.262   0.382
92805SOL    HW180312   6.062  11.356   0.379
92805SOL    HW280313   6.044  11.235   0.290
92806SOL     OW80314   3.507   3.182   5.106
92806SOL    HW180315   3.465   3.200   5.021
92806SOL    HW280316   3.597   3.213   5.094
92807SOL     OW80317   9.261   0.533  14.774
92807SOL    HW180318   9.231   0.442  14.767
92807SOL    HW280319   9.356   0.526  14.782
92808SOL     OW80320   1.869   9.901  12.299
92808SOL    HW180321   1.852   9.899  12.204
92808SOL    HW280322   1.804   9.842  12.336
92809SOL     OW80323   4.532   8.913  13.772
92809SOL    HW180324   4.538   8.989  13.829
92809SOL    HW280325   4.466   8.857  13.813
92810SOL     OW80326   3.247   6.670   4.335
92810SOL    HW180327   3.205   6.585   4.346
92810SOL    HW280328   3.265   6.700   4.425
92811SOL     OW80329   2.433  12.776  10.092
92811SOL    HW180330   2.346  12.739  10.078
92811SOL    HW280331   2.426  12.824  10.174
92812SOL     OW80332   5.024  12.698   3.707
92812SOL    HW180333   5.058  12.622   3.754
92812SOL    HW280334   4.946  12.664   3.661
92813SOL     OW80335   6.492   0.333   1.532
92813SOL    HW180336   6.495   0.386   1.611
92813SOL    HW280337   6.531   0.249   1.557
92814SOL     OW80338   4.150   3.080   0.792
92814SOL    HW180339   4.162   3.148   0.725
92814SOL    HW280340   4.223   3.094   0.853
92815SOL     OW80341   1.009  14.086   0.989
92815SOL    HW180342   1.016  14.181   0.987
92815SOL    HW280343   0.919  14.068   0.960
92816SOL     OW80344   1.095  10.541  11.346
92816SOL    HW180345   1.045  10.587  11.414
92816SOL    HW280346   1.172  10.508  11.392
92817SOL     OW80347   1.763   8.713   5.284
92817SOL    HW180348   1.694   8.647   5.285
92817SOL    HW280349   1.835   8.672   5.236
92818SOL     OW80350   6.438  11.473   3.153
92818SOL    HW180351   6.495  11.504   3.224
92818SOL    HW280352   6.378  11.412   3.196
92819SOL     OW80353  12.958   0.767   7.836
92819SOL    HW180354  12.881   0.720   7.869
92819SOL    HW280355  12.936   0.789   7.746
92820SOL     OW80356   9.845  13.206   5.480
92820SOL    HW180357   9.828  13.144   5.409
92820SOL    HW280358   9.765  13.257   5.488
92821SOL     OW80359   7.979  11.450   3.591
92821SOL    HW180360   8.072  11.443   3.614
92821SOL    HW280361   7.975  11.418   3.500
92822SOL     OW80362  10.824   5.819   2.918
92822SOL    HW180363  10.768   5.884   2.961
92822SOL    HW280364  10.799   5.823   2.825
92823SOL     OW80365   1.373   4.382   7.447
92823SOL    HW180366   1.430   4.406   7.521
92823SOL    HW280367   1.336   4.465   7.419
92824SOL     OW80368   2.733   4.711  11.288
92824SOL    HW180369   2.714   4.642  11.351
92824SOL    HW280370   2.828   4.721  11.292
92825SOL     OW80371   0.056   9.921   2.397
92825SOL    HW180372   0.055   9.837   2.444
92825SOL    HW280373  14.865   9.970   2.434
92826SOL     OW80374   2.468   9.407  11.133
92826SOL    HW180375   2.456   9.401  11.038
92826SOL    HW280376   2.537   9.471  11.145
92827SOL     OW80377   6.594   0.135   0.740
92827SOL    HW180378   6.643   0.057   0.716
92827SOL    HW280379   6.516   0.102   0.785
92828SOL     OW80380   6.842   1.259   9.470
92828SOL    HW180381   6.782   1.186   9.457
92828SOL    HW280382   6.786   1.333   9.491
92829SOL     OW80383   1.963  14.759  11.657
92829SOL    HW180384   1.975  14.678  11.606
92829SOL    HW280385   1.968  14.731  11.748
92830SOL     OW80386   7.890   5.925   9.691
92830SOL    HW180387   7.856   6.012   9.711
92830SOL    HW280388   7.982   5.929   9.715
92831SOL     OW80389   0.649   4.384  11.842
92831SOL    HW180390   0.700   4.322  11.895
92831SOL    HW280391   0.710   4.455  11.823
92832SOL     OW80392   8.349   3.940   9.258
92832SOL    HW180393   8.257   3.942   9.287
92832SOL    HW280394   8.346   3.900   9.171
92833SOL     OW80395   2.577   2.412  14.571
92833SOL    HW180396   2.642   2.457  14.517
92833SOL    HW280397   2.630   2.363  14.635
92834SOL     OW80398   9.152   4.759  10.578
92834SOL    HW180399   9.113   4.759  10.666
92834SOL    HW280400   9.235   4.712  10.590
92835SOL     OW80401   4.414  10.294   0.111
92835SOL    HW180402   4.328  10.267   0.145
92835SOL    HW280403   4.465  10.315   0.190
92836SOL     OW80404   9.890   4.482   0.191
92836SOL    HW180405   9.832   4.536   0.137
92836SOL    HW280406   9.977   4.492   0.151
92837SOL     OW80407   1.783  13.025   1.871
92837SOL    HW180408   1.703  13.044   1.823
92837SOL    HW280409   1.823  12.952   1.824
92838SOL     OW80410   7.432   3.088   5.936
92838SOL    HW180411   7.378   3.166   5.925
92838SOL    HW280412   7.460   3.092   6.028
92839SOL     OW80413   4.045   2.919  14.713
92839SOL    HW180414   3.971   2.981  14.717
92839SOL    HW280415   4.011   2.839  14.753
92840SOL     OW80416   2.117  14.626   4.399
92840SOL    HW180417   2.056  14.657   4.466
92840SOL    HW280418   2.149  14.707   4.357
92841SOL     OW80419  12.123   9.731   0.519
92841SOL    HW180420  12.122   9.729   0.615
92841SOL    HW280421  12.169   9.651   0.494
92842SOL     OW80422  13.435   6.337   9.719
92842SOL    HW180423  13.419   6.333   9.813
92842SOL    HW280424  13.473   6.252   9.697
92843SOL     OW80425  13.675   0.947   0.324
92843SOL    HW180426  13.580   0.938   0.334
92843SOL    HW280427  13.712   0.888   0.390
92844SOL     OW80428   8.101   6.600   8.768
92844SOL    HW180429   8.123   6.666   8.834
92844SOL    HW280430   8.007   6.587   8.778
92845SOL     OW80431   1.166   5.752   9.510
92845SOL    HW180432   1.189   5.728   9.600
92845SOL    HW280433   1.245   5.732   9.459
92846SOL     OW80434   8.504  13.494   5.894
92846SOL    HW180435   8.552  13.426   5.846
92846SOL    HW280436   8.413  13.464   5.891
92847SOL     OW80437   1.106   3.496   8.970
92847SOL    HW180438   1.108   3.587   9.002
92847SOL    HW280439   1.040   3.453   9.024
92848SOL     OW80440   8.760   8.906   5.782
92848SOL    HW180441   8.699   8.976   5.803
92848SOL    HW280442   8.708   8.843   5.732
92849SOL     OW80443   7.315   8.685  14.711
92849SOL    HW180444   7.361   8.714  14.632
92849SOL    HW280445   7.230   8.654  14.679
92850SOL     OW80446   5.868   8.615   4.039
92850SOL    HW180447   5.782   8.649   4.065
92850SOL    HW280448   5.870   8.526   4.075
92851SOL     OW80449   4.082  12.478   5.455
92851SOL    HW180450   4.043  12.474   5.542
92851SOL    HW280451   4.104  12.388   5.433
92852SOL     OW80452   1.638   7.659   1.071
92852SOL    HW180453   1.545   7.640   1.059
92852SOL    HW280454   1.675   7.655   0.983
92853SOL     OW80455  14.580   5.845  13.534
92853SOL    HW180456  14.622   5.795  13.604
92853SOL    HW280457  14.486   5.835  13.551
92854SOL     OW80458   4.433   6.157   3.742
92854SOL    HW180459   4.387   6.176   3.824
92854SOL    HW280460   4.376   6.094   3.697
92855SOL     OW80461   8.897  11.609  11.083
92855SOL    HW180462   8.833  11.615  11.154
92855SOL    HW280463   8.845  11.614  11.003
92856SOL     OW80464  12.591   2.503  12.895
92856SOL    HW180465  12.672   2.546  12.923
92856SOL    HW280466  12.603   2.412  12.919
92857SOL     OW80467   6.303   7.849  11.554
92857SOL    HW180468   6.284   7.844  11.460
92857SOL    HW280469   6.398   7.839  11.559
92858SOL     OW80470   7.184   6.048   0.523
92858SOL    HW180471   7.236   6.022   0.599
92858SOL    HW280472   7.237   6.024   0.448
92859SOL     OW80473   2.981  11.939  12.862
92859SOL    HW180474   2.952  12.030  12.861
92859SOL    HW280475   2.900  11.888  12.850
92860SOL     OW80476   6.948   4.648   8.201
92860SOL    HW180477   6.991   4.714   8.255
92860SOL    HW280478   6.914   4.696   8.126
92861SOL     OW80479  11.728   9.509  10.024
92861SOL    HW180480  11.751   9.577  10.087
92861SOL    HW280481  11.782   9.529   9.948
92862SOL     OW80482   8.663   6.286   7.561
92862SOL    HW180483   8.579   6.242   7.553
92862SOL    HW280484   8.648   6.355   7.626
92863SOL     OW80485  13.716   8.027   9.125
92863SOL    HW180486  13.749   8.111   9.157
92863SOL    HW280487  13.778   8.001   9.058
92864SOL     OW80488  11.538   5.422  13.940
92864SOL    HW180489  11.487   5.356  13.986
92864SOL    HW280490  11.607   5.447  14.002
92865SOL     OW80491   9.448   6.884   2.197
92865SOL    HW180492   9.404   6.967   2.179
92865SOL    HW280493   9.499   6.866   2.118
92866SOL     OW80494  12.702  14.072   5.874
92866SOL    HW180495  12.635  14.140   5.875
92866SOL    HW280496  12.654  13.991   5.862
92867SOL     OW80497  10.509  12.977   7.907
92867SOL    HW180498  10.566  12.926   7.849
92867SOL    HW280499  10.544  13.066   7.904
92868SOL     OW80500   5.664   3.379   0.377
92868SOL    HW180501   5.681   3.285   0.366
92868SOL    HW280502   5.616   3.385   0.459
92869SOL     OW80503  10.840   2.603  13.415
92869SOL    HW180504  10.749   2.627  13.429
92869SOL    HW280505  10.891   2.674  13.454
92870SOL     OW80506   6.165   1.914   3.127
92870SOL    HW180507   6.105   1.839   3.122
92870SOL    HW280508   6.242   1.880   3.171
92871SOL     OW80509   5.592   8.548  10.866
92871SOL    HW180510   5.605   8.514  10.955
92871SOL    HW280511   5.675   8.534  10.822
92872SOL     OW80512   9.841   9.190   4.085
92872SOL    HW180513   9.805   9.274   4.060
92872SOL    HW280514   9.878   9.154   4.005
92873SOL     OW80515  11.285  12.992   3.321
92873SOL    HW180516  11.276  12.980   3.415
92873SOL    HW280517  11.291  13.087   3.309
92874SOL     OW80518   2.037   7.038  14.427
92874SOL    HW180519   1.953   7.005  14.460
92874SOL    HW280520   2.102   7.006  14.490
92875SOL     OW80521   3.006   7.305   0.437
92875SOL    HW180522   3.070   7.372   0.412
92875SOL    HW280523   3.031   7.281   0.527
92876SOL     OW80524   9.215   7.315   9.307
92876SOL    HW180525   9.184   7.336   9.219
92876SOL    HW280526   9.163   7.372   9.364
92877SOL     OW80527  13.805   2.388  13.923
92877SOL    HW180528  13.711   2.377  13.905
92877SOL    HW280529  13.843   2.407  13.837
92878SOL     OW80530  13.101   0.527   9.513
92878SOL    HW180531  13.137   0.446   9.549
92878SOL    HW280532  13.151   0.541   9.432
92879SOL     OW80533   6.608   4.251  11.715
92879SOL    HW180534   6.696   4.220  11.696
92879SOL    HW280535   6.621   4.332  11.764
92880SOL     OW80536   4.501  10.802   0.467
92880SOL    HW180537   4.558  10.765   0.535
92880SOL    HW280538   4.536  10.889   0.450
92881SOL     OW80539   2.179   9.818   8.869
92881SOL    HW180540   2.239   9.892   8.856
92881SOL    HW280541   2.101   9.856   8.907
92882SOL     OW80542   6.542  13.597  12.587
92882SOL    HW180543   6.470  13.613  12.526
92882SOL    HW280544   6.584  13.518  12.554
92883SOL     OW80545   2.752   5.007   5.104
92883SOL    HW180546   2.817   5.059   5.057
92883SOL    HW280547   2.793   4.921   5.113
92884SOL     OW80548   3.169   2.028   4.980
92884SOL    HW180549   3.133   2.106   5.022
92884SOL    HW280550   3.162   1.960   5.047
92885SOL     OW80551   0.816   7.563   4.703
92885SOL    HW180552   0.737   7.616   4.692
92885SOL    HW280553   0.788   7.474   4.682
92886SOL     OW80554   5.022   4.485  12.410
92886SOL    HW180555   4.999   4.425  12.482
92886SOL    HW280556   5.004   4.435  12.331
92887SOL     OW80557  14.270  11.908   5.590
92887SOL    HW180558  14.186  11.929   5.630
92887SOL    HW280559  14.334  11.917   5.660
92888SOL     OW80560   6.849   5.321  12.563
92888SOL    HW180561   6.781   5.340  12.629
92888SOL    HW280562   6.921   5.379  12.586
92889SOL     OW80563   6.111  14.461  11.100
92889SOL    HW180564   6.086  14.393  11.038
92889SOL    HW280565   6.207  14.462  11.098
92890SOL     OW80566   8.196  10.959  14.362
92890SOL    HW180567   8.109  10.963  14.323
92890SOL    HW280568   8.238  10.884  14.318
92891SOL     OW80569  12.059   9.559   7.185
92891SOL    HW180570  12.027   9.648   7.198
92891SOL    HW280571  12.092   9.533   7.271
92892SOL     OW80572  11.001   3.896   9.012
92892SOL    HW180573  10.944   3.939   8.949
92892SOL    HW280574  10.976   3.933   9.097
92893SOL     OW80575   0.907   8.482   2.452
92893SOL    HW180576   0.959   8.475   2.372
92893SOL    HW280577   0.966   8.523   2.515
92894SOL     OW80578   9.673   9.520   1.420
92894SOL    HW180579   9.577   9.523   1.420
92894SOL    HW280580   9.699   9.595   1.365
92895SOL     OW80581   1.609   6.006   9.341
92895SOL    HW180582   1.674   6.049   9.286
92895SOL    HW280583   1.535   5.991   9.282
92896SOL     OW80584   2.192   2.659   4.798
92896SOL    HW180585   2.097   2.657   4.811
92896SOL    HW280586   2.218   2.567   4.804
92897SOL     OW80587  10.935   3.633   0.622
92897SOL    HW180588  10.938   3.716   0.575
92897SOL    HW280589  10.995   3.645   0.696
92898SOL     OW80590   7.989   5.051   5.419
92898SOL    HW180591   7.910   5.100   5.397
92898SOL    HW280592   7.969   5.010   5.504
92899SOL     OW80593   8.749  10.378   2.270
92899SOL    HW180594   8.655  10.362   2.261
92899SOL    HW280595   8.790  10.311   2.215
92900SOL     OW80596   0.169  12.961   3.196
92900SOL    HW180597   0.235  12.936   3.261
92900SOL    HW280598   0.136  12.878   3.163
92901SOL     OW80599   1.400  14.246   3.867
92901SOL    HW180600   1.354  14.242   3.783
92901SOL    HW280601   1.334  14.224   3.932
92902SOL     OW80602  11.775   8.694  14.106
92902SOL    HW180603  11.754   8.697  14.013
92902SOL    HW280604  11.858   8.742  14.113
92903SOL     OW80605   2.621  13.636  12.666
92903SOL    HW180606   2.567  13.703  12.708
92903SOL    HW280607   2.628  13.566  12.731
92904SOL     OW80608   6.471  12.344   6.099
92904SOL    HW180609   6.531  12.417   6.084
92904SOL    HW280610   6.388  12.386   6.124
92905SOL     OW80611   1.971   4.152  10.797
92905SOL    HW180612   1.937   4.197  10.720
92905SOL    HW280613   2.038   4.092  10.762
92906SOL     OW80614  14.714   7.300   4.098
92906SOL    HW180615  14.713   7.349   4.180
92906SOL    HW280616  14.806   7.273   4.087
92907SOL     OW80617  13.085   6.531  11.197
92907SOL    HW180618  13.060   6.620  11.221
92907SOL    HW280619  13.005   6.492  11.162
92908SOL     OW80620   5.192  10.830   6.034
92908SOL    HW180621   5.145  10.851   6.115
92908SOL    HW280622   5.125  10.834   5.966
92909SOL     OW80623   9.020   1.727  14.002
92909SOL    HW180624   9.105   1.770  13.989
92909SOL    HW280625   8.957   1.786  13.961
92910SOL     OW80626  11.162   7.702   4.854
92910SOL    HW180627  11.127   7.621   4.818
92910SOL    HW280628  11.086   7.759   4.863
92911SOL     OW80629  10.380   3.298   3.913
92911SOL    HW180630  10.362   3.309   4.006
92911SOL    HW280631  10.431   3.218   3.907
92912SOL     OW80632  14.577   0.027   1.145
92912SOL    HW180633  14.657   0.066   1.178
92912SOL    HW280634  14.514   0.037   1.217
92913SOL     OW80635  10.175   3.273   8.299
92913SOL    HW180636  10.089   3.300   8.268
92913SOL    HW280637  10.208   3.217   8.229
92914SOL     OW80638   5.772   3.966   1.683
92914SOL    HW180639   5.719   3.942   1.606
92914SOL    HW280640   5.862   3.962   1.651
92915SOL     OW80641   7.089   7.950   2.507
92915SOL    HW180642   7.157   8.014   2.484
92915SOL    HW280643   7.109   7.927   2.598
92916SOL     OW80644   9.070   6.420   1.851
92916SOL    HW180645   9.076   6.487   1.919
92916SOL    HW280646   8.980   6.387   1.858
92917SOL     OW80647   8.834   3.065  13.004
92917SOL    HW180648   8.912   3.119  12.992
92917SOL    HW280649   8.865   2.988  13.052
92918SOL     OW80650  12.330   3.600  11.781
92918SOL    HW180651  12.261   3.539  11.806
92918SOL    HW280652  12.286   3.668  11.731
92919SOL     OW80653   6.615   2.037  13.081
92919SOL    HW180654   6.692   1.982  13.065
92919SOL    HW280655   6.547   2.000  13.024
92920SOL     OW80656   4.964   8.643  11.772
92920SOL    HW180657   4.963   8.630  11.677
92920SOL    HW280658   4.941   8.735  11.784
92921SOL     OW80659   2.136   6.367   1.987
92921SOL    HW180660   2.164   6.421   2.061
92921SOL    HW280661   2.111   6.284   2.027
92922SOL     OW80662  13.428   2.177  12.003
92922SOL    HW180663  13.432   2.261  12.048
92922SOL    HW280664  13.379   2.120  12.062
92923SOL     OW80665   9.915  11.611   2.848
92923SOL    HW180666   9.921  11.533   2.792
92923SOL    HW280667   9.987  11.667   2.820
92924SOL     OW80668  12.609   2.012   7.027
92924SOL    HW180669  12.685   1.971   6.986
92924SOL    HW280670  12.553   2.039   6.954
92925SOL     OW80671   4.818  13.419   4.422
92925SOL    HW180672   4.768  13.479   4.367
92925SOL    HW280673   4.872  13.475   4.477
92926SOL     OW80674  10.539  12.268   4.929
92926SOL    HW180675  10.520  12.349   4.881
92926SOL    HW280676  10.500  12.281   5.015
92927SOL     OW80677   8.645  13.916   8.537
92927SOL    HW180678   8.596  13.889   8.459
92927SOL    HW280679   8.623  14.009   8.549
92928SOL     OW80680   6.096  11.297  12.065
92928SOL    HW180681   6.002  11.288  12.080
92928SOL    HW280682   6.137  11.244  12.134
92929SOL     OW80683   0.800   7.960   0.944
92929SOL    HW180684   0.716   7.984   0.905
92929SOL    HW280685   0.777   7.900   1.016
92930SOL     OW80686   6.076   8.457  11.013
92930SOL    HW180687   6.029   8.377  11.035
92930SOL    HW280688   6.158   8.452  11.062
92931SOL     OW80689   0.797   1.312   9.979
92931SOL    HW180690   0.757   1.279  10.059
92931SOL    HW280691   0.727   1.361   9.935
92932SOL     OW80692   3.925   7.256   8.470
92932SOL    HW180693   4.000   7.315   8.467
92932SOL    HW280694   3.912   7.237   8.563
92933SOL     OW80695   2.903   2.450  13.978
92933SOL    HW180696   2.945   2.487  14.055
92933SOL    HW280697   2.818   2.419  14.009
92934SOL     OW80698   3.319  13.762   9.521
92934SOL    HW180699   3.233  13.791   9.491
92934SOL    HW280700   3.380  13.828   9.486
92935SOL     OW80701  13.694  14.609   5.694
92935SOL    HW180702  13.723  14.527   5.732
92935SOL    HW280703  13.608  14.590   5.656
92936SOL     OW80704  14.318   5.855   1.787
92936SOL    HW180705  14.280   5.939   1.760
92936SOL    HW280706  14.243   5.796   1.797
92937SOL     OW80707   1.326  11.345   8.146
92937SOL    HW180708   1.368  11.290   8.080
92937SOL    HW280709   1.386  11.342   8.221
92938SOL     OW80710   2.035  14.763   2.138
92938SOL    HW180711   2.016  14.672   2.116
92938SOL    HW280712   1.962  14.813   2.102
92939SOL     OW80713   5.150  11.797   7.959
92939SOL    HW180714   5.083  11.853   7.999
92939SOL    HW280715   5.157  11.829   7.869
92940SOL     OW80716  11.554   7.825   5.734
92940SOL    HW180717  11.616   7.771   5.685
92940SOL    HW280718  11.528   7.893   5.672
92941SOL     OW80719  10.683  11.686   4.298
92941SOL    HW180720  10.693  11.613   4.238
92941SOL    HW280721  10.733  11.758   4.259
92942SOL     OW80722   6.995   2.023  11.910
92942SOL    HW180723   7.041   2.107  11.915
92942SOL    HW280724   7.053   1.962  11.955
92943SOL     OW80725  13.185   7.543   8.418
92943SOL    HW180726  13.252   7.526   8.352
92943SOL    HW280727  13.225   7.516   8.501
92944SOL     OW80728  14.473   7.066  11.750
92944SOL    HW180729  14.480   7.161  11.758
92944SOL    HW280730  14.516   7.044  11.668
92945SOL     OW80731   0.263   0.200  10.685
92945SOL    HW180732   0.224   0.175  10.602
92945SOL    HW280733   0.208   0.272  10.718
92946SOL     OW80734   9.514   0.037   3.648
92946SOL    HW180735   9.519   0.119   3.599
92946SOL    HW280736   9.605   0.017   3.669
92947SOL     OW80737  11.110  10.320   3.090
92947SOL    HW180738  11.101  10.378   3.014
92947SOL    HW280739  11.202  10.292   3.088
92948SOL     OW80740   4.227  12.728   0.540
92948SOL    HW180741   4.178  12.764   0.466
92948SOL    HW280742   4.292  12.669   0.500
92949SOL     OW80743   5.064   6.104   3.567
92949SOL    HW180744   5.088   6.109   3.659
92949SOL    HW280745   5.024   6.189   3.548
92950SOL     OW80746   0.210   8.689  13.752
92950SOL    HW180747   0.153   8.693  13.829
92950SOL    HW280748   0.212   8.780  13.720
92951SOL     OW80749  13.749   9.861   0.933
92951SOL    HW180750  13.779   9.819   1.014
92951SOL    HW280751  13.754   9.793   0.867
92952SOL     OW80752  11.818  11.363  13.692
92952SOL    HW180753  11.817  11.435  13.629
92952SOL    HW280754  11.911  11.338  13.699
92953SOL     OW80755   6.410  11.688   6.166
92953SOL    HW180756   6.361  11.742   6.228
92953SOL    HW280757   6.487  11.740   6.144
92954SOL     OW80758   2.255   6.458   6.462
92954SOL    HW180759   2.201   6.472   6.540
92954SOL    HW280760   2.194   6.422   6.397
92955SOL     OW80761   7.957   4.221  10.425
92955SOL    HW180762   7.975   4.151  10.487
92955SOL    HW280763   8.041   4.267  10.416
92956SOL     OW80764  11.549  12.806   2.975
92956SOL    HW180765  11.551  12.710   2.970
92956SOL    HW280766  11.642  12.831   2.973
92957SOL     OW80767  13.048  12.984   6.146
92957SOL    HW180768  12.989  12.909   6.142
92957SOL    HW280769  13.108  12.964   6.218
92958SOL     OW80770  13.881  12.144   6.878
92958SOL    HW180771  13.868  12.054   6.906
92958SOL    HW280772  13.972  12.148   6.850
92959SOL     OW80773   3.763  13.816  13.172
92959SOL    HW180774   3.840  13.816  13.115
92959SOL    HW280775   3.689  13.829  13.113
92960SOL     OW80776   2.816   9.354  10.814
92960SOL    HW180777   2.870   9.432  10.794
92960SOL    HW280778   2.758   9.345  10.739
92961SOL     OW80779   2.962   6.139   6.768
92961SOL    HW180780   2.891   6.158   6.706
92961SOL    HW280781   3.027   6.207   6.751
92962SOL     OW80782  13.639  11.008   5.035
92962SOL    HW180783  13.558  11.010   4.984
92962SOL    HW280784  13.691  11.080   4.999
92963SOL     OW80785  13.267   0.119   2.469
92963SOL    HW180786  13.194   0.067   2.502
92963SOL    HW280787  13.269   0.100   2.375
92964SOL     OW80788   9.096   4.242  12.261
92964SOL    HW180789   9.189   4.254  12.279
92964SOL    HW280790   9.059   4.331  12.264
92965SOL     OW80791  10.243  12.676   3.073
92965SOL    HW180792  10.249  12.639   2.985
92965SOL    HW280793  10.293  12.615   3.128
92966SOL     OW80794  14.372   2.348   6.516
92966SOL    HW180795  14.415   2.410   6.575
92966SOL    HW280796  14.291   2.325   6.561
92967SOL     OW80797   0.096   2.444  12.625
92967SOL    HW180798   0.017   2.432  12.572
92967SOL    HW280799   0.131   2.356  12.636
92968SOL     OW80800   1.224   0.026   4.391
92968SOL    HW180801   1.245   0.072   4.311
92968SOL    HW280802   1.173   0.088   4.443
92969SOL     OW80803   4.326   4.092   0.812
92969SOL    HW180804   4.378   4.127   0.739
92969SOL    HW280805   4.385   4.031   0.856
92970SOL     OW80806   0.676   2.600  14.705
92970SOL    HW180807   0.735   2.587  14.779
92970SOL    HW280808   0.635   2.685  14.722
92971SOL     OW80809   8.141  14.127  12.754
92971SOL    HW180810   8.216  14.185  12.766
92971SOL    HW280811   8.177  14.049  12.712
92972SOL     OW80812   6.928   5.668   1.558
92972SOL    HW180813   6.896   5.731   1.622
92972SOL    HW280814   6.993   5.716   1.506
92973SOL     OW80815  14.047   5.308   4.423
92973SOL    HW180816  14.041   5.393   4.468
92973SOL    HW280817  14.140   5.288   4.422
92974SOL     OW80818  11.535  10.172   2.377
92974SOL    HW180819  11.491  10.240   2.326
92974SOL    HW280820  11.620  10.210   2.399
92975SOL     OW80821   8.207  10.091   4.443
92975SOL    HW180822   8.280  10.033   4.465
92975SOL    HW280823   8.241  10.179   4.458
92976SOL     OW80824   4.743   3.440  10.894
92976SOL    HW180825   4.717   3.489  10.972
92976SOL    HW280826   4.769   3.508  10.831
92977SOL     OW80827  11.411  14.092   0.691
92977SOL    HW180828  11.433  14.160   0.755
92977SOL    HW280829  11.466  14.018   0.715
92978SOL     OW80830   2.290   2.412  11.532
92978SOL    HW180831   2.347   2.448  11.463
92978SOL    HW280832   2.202   2.432  11.502
92979SOL     OW80833   0.574  10.603   9.287
92979SOL    HW180834   0.540  10.632   9.202
92979SOL    HW280835   0.520  10.528   9.310
92980SOL     OW80836  13.281   7.480  10.609
92980SOL    HW180837  13.360   7.479  10.663
92980SOL    HW280838  13.291   7.554  10.551
92981SOL     OW80839  13.359   6.698   9.758
92981SOL    HW180840  13.366   6.628   9.693
92981SOL    HW280841  13.386   6.777   9.710
92982SOL     OW80842   3.906  11.164   8.806
92982SOL    HW180843   3.836  11.131   8.863
92982SOL    HW280844   3.902  11.108   8.728
92983SOL     OW80845  13.496  11.985  14.100
92983SOL    HW180846  13.430  11.922  14.072
92983SOL    HW280847  13.473  12.004  14.191
92984SOL     OW80848  13.264   5.419   6.806
92984SOL    HW180849  13.304   5.497   6.768
92984SOL    HW280850  13.255   5.441   6.899
92985SOL     OW80851   1.120   3.326  12.297
92985SOL    HW180852   1.034   3.316  12.255
92985SOL    HW280853   1.103   3.378  12.376
92986SOL     OW80854   3.999   9.879   8.389
92986SOL    HW180855   3.997   9.935   8.312
92986SOL    HW280856   3.945   9.925   8.454
92987SOL     OW80857   5.272  13.202   7.873
92987SOL    HW180858   5.312  13.115   7.869
92987SOL    HW280859   5.322  13.248   7.939
92988SOL     OW80860   5.249   1.671  12.186
92988SOL    HW180861   5.279   1.747  12.136
92988SOL    HW280862   5.191   1.708  12.253
92989SOL     OW80863   4.749   9.102   2.759
92989SOL    HW180864   4.686   9.124   2.691
92989SOL    HW280865   4.705   9.036   2.812
92990SOL     OW80866  11.854   6.709   8.134
92990SOL    HW180867  11.942   6.720   8.169
92990SOL    HW280868  11.835   6.792   8.091
92991SOL     OW80869  14.535   4.276   9.716
92991SOL    HW180870  14.588   4.327   9.655
92991SOL    HW280871  14.534   4.187   9.679
92992SOL     OW80872  10.961  10.542  14.080
92992SOL    HW180873  10.866  10.538  14.066
92992SOL    HW280874  10.994  10.461  14.040
92993SOL     OW80875   5.242   3.749  12.608
92993SOL    HW180876   5.292   3.755  12.526
92993SOL    HW280877   5.240   3.839  12.641
92994SOL     OW80878   9.898   0.012   6.262
92994SOL    HW180879   9.972  14.849   6.221
92994SOL    HW280880   9.931   0.037   6.349
92995SOL     OW80881   0.484   4.798  11.391
92995SOL    HW180882   0.548   4.780  11.460
92995SOL    HW280883   0.509   4.884  11.357
92996SOL     OW80884  10.555   0.658   7.312
92996SOL    HW180885  10.568   0.717   7.387
92996SOL    HW280886  10.468   0.620   7.326
92997SOL     OW80887   5.459  13.887   0.533
92997SOL    HW180888   5.397  13.945   0.490
92997SOL    HW280889   5.410  13.848   0.605
92998SOL     OW80890   7.984   4.901   2.663
92998SOL    HW180891   7.910   4.866   2.613
92998SOL    HW280892   8.025   4.824   2.702
92999SOL     OW80893   6.409  11.385   8.801
92999SOL    HW180894   6.393  11.443   8.875
92999SOL    HW280895   6.444  11.442   8.732
93000SOL     OW80896   1.519  10.518   3.089
93000SOL    HW180897   1.476  10.506   3.173
93000SOL    HW280898   1.468  10.464   3.028
93001SOL     OW80899   7.678   9.519  10.579
93001SOL    HW180900   7.670   9.533  10.485
93001SOL    HW280901   7.751   9.457  10.588
93002SOL     OW80902   6.865   8.219   2.041
93002SOL    HW180903   6.831   8.286   2.100
93002SOL    HW280904   6.959   8.216   2.059
93003SOL     OW80905   2.194  11.027   6.554
93003SOL    HW180906   2.169  11.097   6.614
93003SOL    HW280907   2.285  11.007   6.577
93004SOL     OW80908  12.014   5.411   7.763
93004SOL    HW180909  12.062   5.486   7.725
93004SOL    HW280910  12.061   5.391   7.843
93005SOL     OW80911   6.470   9.460   4.845
93005SOL    HW180912   6.441   9.536   4.795
93005SOL    HW280913   6.417   9.387   4.811
93006SOL     OW80914  14.353  13.513   9.557
93006SOL    HW180915  14.406  13.439   9.528
93006SOL    HW280916  14.351  13.505   9.653
93007SOL     OW80917   5.731   6.076  14.757
93007SOL    HW180918   5.791   6.145  14.728
93007SOL    HW280919   5.651   6.091  14.707
93008SOL     OW80920   2.502   4.179   5.911
93008SOL    HW180921   2.443   4.226   5.852
93008SOL    HW280922   2.555   4.125   5.852
93009SOL     OW80923   4.983  14.025   4.764
93009SOL    HW180924   5.035  14.104   4.752
93009SOL    HW280925   5.013  13.988   4.847
93010SOL     OW80926   3.079  13.776  14.397
93010SOL    HW180927   3.141  13.704  14.389
93010SOL    HW280928   2.997  13.734  14.425
93011SOL     OW80929  14.327   4.760   5.338
93011SOL    HW180930  14.373   4.708   5.405
93011SOL    HW280931  14.344   4.851   5.363
93012SOL     OW80932  11.023   4.381   3.587
93012SOL    HW180933  10.930   4.401   3.573
93012SOL    HW280934  11.060   4.378   3.499
93013SOL     OW80935   4.391  11.105   7.135
93013SOL    HW180936   4.477  11.133   7.104
93013SOL    HW280937   4.404  11.089   7.229
93014SOL     OW80938   1.502  13.642   6.936
93014SOL    HW180939   1.539  13.686   6.859
93014SOL    HW280940   1.469  13.714   6.990
93015SOL     OW80941   7.201  14.214  12.570
93015SOL    HW180942   7.178  14.298  12.530
93015SOL    HW280943   7.124  14.159  12.557
93016SOL     OW80944   1.668   4.221  12.304
93016SOL    HW180945   1.656   4.289  12.238
93016SOL    HW280946   1.759   4.231  12.331
93017SOL     OW80947   5.120  14.574  14.120
93017SOL    HW180948   5.044  14.603  14.170
93017SOL    HW280949   5.172  14.523  14.183
93018SOL     OW80950  10.146   2.448   1.101
93018SOL    HW180951  10.162   2.532   1.144
93018SOL    HW280952  10.063   2.460   1.055
93019SOL     OW80953   6.516  11.542   9.884
93019SOL    HW180954   6.443  11.535   9.946
93019SOL    HW280955   6.477  11.521   9.799
93020SOL     OW80956   7.661  10.661  13.607
93020SOL    HW180957   7.616  10.592  13.558
93020SOL    HW280958   7.706  10.615  13.677
93021SOL     OW80959   8.966   3.069   7.329
93021SOL    HW180960   9.054   3.103   7.310
93021SOL    HW280961   8.975   3.026   7.414
93022SOL     OW80962   1.545   7.902  11.353
93022SOL    HW180963   1.621   7.954  11.376
93022SOL    HW280964   1.477   7.930  11.414
93023SOL     OW80965   2.614  13.583   6.260
93023SOL    HW180966   2.655  13.533   6.189
93023SOL    HW280967   2.675  13.655   6.276
93024SOL     OW80968  11.599   1.803  12.468
93024SOL    HW180969  11.604   1.712  12.439
93024SOL    HW280970  11.575   1.851  12.389
93025SOL     OW80971  13.196  14.285   2.239
93025SOL    HW180972  13.132  14.354   2.256
93025SOL    HW280973  13.263  14.328   2.185
93026SOL     OW80974  13.448   0.444   3.682
93026SOL    HW180975  13.361   0.475   3.707
93026SOL    HW280976  13.467   0.373   3.744
93027SOL     OW80977   6.232   6.520   1.364
93027SOL    HW180978   6.233   6.610   1.334
93027SOL    HW280979   6.146   6.487   1.338
93028SOL     OW80980  10.168   2.899   3.458
93028SOL    HW180981  10.226   2.833   3.419
93028SOL    HW280982  10.217   2.931   3.534
93029SOL     OW80983   3.606  14.361  10.433
93029SOL    HW180984   3.653  14.281  10.456
93029SOL    HW280985   3.567  14.343  10.348
93030SOL     OW80986   4.799   1.559   6.381
93030SOL    HW180987   4.756   1.475   6.396
93030SOL    HW280988   4.805   1.566   6.285
93031SOL     OW80989  13.935   2.715   2.603
93031SOL    HW180990  13.977   2.685   2.523
93031SOL    HW280991  13.969   2.658   2.671
93032SOL     OW80992  10.897   8.678  10.868
93032SOL    HW180993  10.824   8.644  10.816
93032SOL    HW280994  10.882   8.772  10.874
93033SOL     OW80995   0.547   8.538   3.797
93033SOL    HW180996   0.535   8.606   3.863
93033SOL    HW280997   0.543   8.583   3.713
93034SOL     OW80998   6.969   6.721   8.852
93034SOL    HW180999   6.988   6.663   8.779
93034SOL    HW281000   6.953   6.806   8.812
93035SOL     OW81001   8.828  13.390   2.144
93035SOL    HW181002   8.775  13.324   2.099
93035SOL    HW281003   8.889  13.338   2.197
93036SOL     OW81004   0.473  11.934   5.967
93036SOL    HW181005   0.392  11.984   5.968
93036SOL    HW281006   0.474  11.887   6.050
93037SOL     OW81007  10.913   9.409   6.801
93037SOL    HW181008  10.825   9.382   6.774
93037SOL    HW281009  10.959   9.428   6.719
93038SOL     OW81010   5.724   6.594  14.016
93038SOL    HW181011   5.698   6.518  13.965
93038SOL    HW281012   5.820   6.593  14.015
93039SOL     OW81013   5.672   2.384  11.421
93039SOL    HW181014   5.698   2.323  11.490
93039SOL    HW281015   5.754   2.426  11.394
93040SOL     OW81016  13.081  10.401   3.471
93040SOL    HW181017  13.091  10.441   3.385
93040SOL    HW281018  13.067  10.308   3.453
93041SOL     OW81019  13.429  12.537  13.186
93041SOL    HW181020  13.461  12.475  13.252
93041SOL    HW281021  13.507  12.584  13.157
93042SOL     OW81022   6.359   5.179  10.648
93042SOL    HW181023   6.381   5.087  10.629
93042SOL    HW281024   6.283   5.174  10.705
93043SOL     OW81025   9.242  14.645  11.920
93043SOL    HW181026   9.160  14.695  11.926
93043SOL    HW281027   9.222  14.561  11.961
93044SOL     OW81028   0.740   3.613   9.464
93044SOL    HW181029   0.671   3.671   9.497
93044SOL    HW281030   0.719   3.602   9.371
93045SOL     OW81031  14.259  13.163   9.327
93045SOL    HW181032  14.335  13.180   9.384
93045SOL    HW281033  14.295  13.169   9.238
93046SOL     OW81034   9.791   0.619  14.760
93046SOL    HW181035   9.800   0.525  14.771
93046SOL    HW281036   9.866   0.645  14.706
93047SOL     OW81037   5.026   1.105  13.255
93047SOL    HW181038   4.950   1.046  13.267
93047SOL    HW281039   5.102   1.048  13.268
93048SOL     OW81040  12.322   2.895   7.419
93048SOL    HW181041  12.407   2.939   7.431
93048SOL    HW281042  12.289   2.930   7.336
93049SOL     OW81043   7.590  14.511   5.060
93049SOL    HW181044   7.571  14.424   5.025
93049SOL    HW281045   7.526  14.523   5.130
93050SOL     OW81046  14.731   2.219  14.232
93050SOL    HW181047  14.649   2.265  14.215
93050SOL    HW281048  14.705   2.139  14.278
93051SOL     OW81049   7.073   1.072   1.118
93051SOL    HW181050   7.135   1.002   1.102
93051SOL    HW281051   6.998   1.052   1.061
93052SOL     OW81052   6.529  10.806   0.474
93052SOL    HW181053   6.617  10.845   0.469
93052SOL    HW281054   6.471  10.879   0.493
93053SOL     OW81055   6.030   4.521   2.796
93053SOL    HW181056   6.001   4.463   2.726
93053SOL    HW281057   5.962   4.513   2.863
93054SOL     OW81058   7.039   2.785  13.625
93054SOL    HW181059   6.954   2.740  13.627
93054SOL    HW281060   7.096   2.731  13.679
93055SOL     OW81061   1.441  11.715   5.047
93055SOL    HW181062   1.458  11.623   5.030
93055SOL    HW281063   1.460  11.759   4.964
93056SOL     OW81064   7.574   2.996   3.212
93056SOL    HW181065   7.549   3.079   3.172
93056SOL    HW281066   7.603   3.020   3.300
93057SOL     OW81067   9.560   9.313   0.869
93057SOL    HW181068   9.535   9.222   0.882
93057SOL    HW281069   9.485   9.352   0.823
93058SOL     OW81070  11.491   2.056   9.483
93058SOL    HW181071  11.514   1.980   9.430
93058SOL    HW281072  11.519   2.033   9.572
93059SOL     OW81073  12.212   0.851   7.074
93059SOL    HW181074  12.276   0.787   7.105
93059SOL    HW281075  12.145   0.854   7.143
93060SOL     OW81076   3.204   0.609  13.476
93060SOL    HW181077   3.204   0.582  13.568
93060SOL    HW281078   3.296   0.607  13.450
93061SOL     OW81079  10.762  12.914   5.511
93061SOL    HW181080  10.809  12.966   5.445
93061SOL    HW281081  10.798  12.943   5.594
93062SOL     OW81082   8.871   3.380  12.729
93062SOL    HW181083   8.931   3.306  12.716
93062SOL    HW281084   8.784   3.341  12.722
93063SOL     OW81085   0.840   8.037   0.040
93063SOL    HW181086   0.751   8.071   0.052
93063SOL    HW281087   0.874   8.085  14.847
93064SOL     OW81088   0.702   2.203   8.878
93064SOL    HW181089   0.667   2.264   8.813
93064SOL    HW281090   0.739   2.259   8.946
93065SOL     OW81091  11.319   8.267  11.876
93065SOL    HW181092  11.262   8.341  11.898
93065SOL    HW281093  11.299   8.248  11.785
93066SOL     OW81094   4.806  12.992   1.006
93066SOL    HW181095   4.853  12.985   1.088
93066SOL    HW281096   4.732  12.932   1.015
93067SOL     OW81097   8.350   3.152  13.275
93067SOL    HW181098   8.427   3.130  13.222
93067SOL    HW281099   8.310   3.225  13.229
93068SOL     OW81100   0.544  11.469  10.794
93068SOL    HW181101   0.493  11.400  10.751
93068SOL    HW281102   0.550  11.441  10.885
93069SOL     OW81103  13.996   7.214   7.400
93069SOL    HW181104  14.054   7.275   7.446
93069SOL    HW281105  13.920   7.205   7.458
93070SOL     OW81106   0.415  10.270   4.012
93070SOL    HW181107   0.370  10.257   3.929
93070SOL    HW281108   0.415  10.183   4.053
93071SOL     OW81109   8.554  12.797  13.167
93071SOL    HW181110   8.541  12.730  13.234
93071SOL    HW281111   8.534  12.879  13.212
93072SOL     OW81112   5.706  10.599   6.038
93072SOL    HW181113   5.662  10.608   6.122
93072SOL    HW281114   5.636  10.608   5.973
93073SOL     OW81115   1.836   5.444  14.398
93073SOL    HW181116   1.839   5.382  14.470
93073SOL    HW281117   1.792   5.398  14.327
93074SOL     OW81118   3.494  11.861  10.677
93074SOL    HW181119   3.568  11.881  10.620
93074SOL    HW281120   3.417  11.886  10.627
93075SOL     OW81121   9.530   8.878   7.870
93075SOL    HW181122   9.485   8.795   7.887
93075SOL    HW281123   9.509   8.898   7.778
93076SOL     OW81124   9.885  10.575   3.119
93076SOL    HW181125   9.809  10.523   3.095
93076SOL    HW281126   9.865  10.607   3.207
93077SOL     OW81127   3.908   5.035  14.776
93077SOL    HW181128   3.968   5.081  14.836
93077SOL    HW281129   3.943   4.947  14.768
93078SOL     OW81130  13.374  12.935  11.776
93078SOL    HW181131  13.355  12.973  11.690
93078SOL    HW281132  13.416  12.852  11.757
93079SOL     OW81133  13.210   1.798   7.757
93079SOL    HW181134  13.118   1.778   7.774
93079SOL    HW281135  13.247   1.817   7.844
93080SOL     OW81136  11.464   9.845  10.281
93080SOL    HW181137  11.390   9.870  10.225
93080SOL    HW281138  11.488   9.758  10.252
93081SOL     OW81139  12.741   6.294   5.284
93081SOL    HW181140  12.740   6.372   5.228
93081SOL    HW281141  12.661   6.302   5.337
93082SOL     OW81142   3.597   8.666  10.605
93082SOL    HW181143   3.643   8.587  10.633
93082SOL    HW281144   3.507   8.653  10.636
93083SOL     OW81145  11.761   9.555  14.137
93083SOL    HW181146  11.735   9.619  14.202
93083SOL    HW281147  11.778   9.475  14.187
93084SOL     OW81148   5.367   8.514   7.625
93084SOL    HW181149   5.409   8.584   7.575
93084SOL    HW281150   5.274   8.522   7.604
93085SOL     OW81151   5.218   7.935  14.280
93085SOL    HW181152   5.185   7.929  14.370
93085SOL    HW281153   5.232   7.844  14.254
93086SOL     OW81154   5.262  14.089   9.419
93086SOL    HW181155   5.215  14.139   9.352
93086SOL    HW281156   5.230  14.000   9.409
93087SOL     OW81157   5.552   1.797  13.155
93087SOL    HW181158   5.573   1.711  13.192
93087SOL    HW281159   5.583   1.793  13.065
93088SOL     OW81160   7.581   5.697  12.952
93088SOL    HW181161   7.666   5.728  12.923
93088SOL    HW281162   7.547   5.767  13.007
93089SOL     OW81163   6.923   3.024   5.946
93089SOL    HW181164   6.926   3.115   5.915
93089SOL    HW281165   6.907   3.031   6.040
93090SOL     OW81166   2.750   9.993  14.518
93090SOL    HW181167   2.811  10.067  14.509
93090SOL    HW281168   2.770   9.936  14.444
93091SOL     OW81169   4.012  14.535  13.439
93091SOL    HW181170   4.107  14.546  13.453
93091SOL    HW281171   3.999  14.549  13.346
93092SOL     OW81172  10.288   9.826   7.624
93092SOL    HW181173  10.313   9.770   7.551
93092SOL    HW281174  10.371   9.847   7.667
93093SOL     OW81175   3.654  12.341  11.027
93093SOL    HW181176   3.739  12.379  11.048
93093SOL    HW281177   3.630  12.291  11.105
93094SOL     OW81178  13.127  10.528   6.487
93094SOL    HW181179  13.109  10.470   6.561
93094SOL    HW281180  13.070  10.497   6.417
93095SOL     OW81181   2.863   2.325  11.823
93095SOL    HW181182   2.915   2.316  11.903
93095SOL    HW281183   2.792   2.384  11.847
93096SOL     OW81184  14.720   6.719   3.062
93096SOL    HW181185  14.646   6.778   3.044
93096SOL    HW281186  14.790   6.751   3.004
93097SOL     OW81187   1.646   2.795   6.645
93097SOL    HW181188   1.617   2.705   6.631
93097SOL    HW281189   1.658   2.830   6.556
93098SOL     OW81190  11.738   0.549  12.862
93098SOL    HW181191  11.694   0.627  12.830
93098SOL    HW281192  11.718   0.482  12.797
93099SOL     OW81193  10.278  11.197   6.174
93099SOL    HW181194  10.318  11.199   6.087
93099SOL    HW281195  10.184  11.208   6.158
93100SOL     OW81196   4.580   7.556  12.606
93100SOL    HW181197   4.544   7.500  12.538
93100SOL    HW281198   4.513   7.558  12.674
93101SOL     OW81199   0.924   6.181   9.125
93101SOL    HW181200   0.851   6.161   9.184
93101SOL    HW281201   0.882   6.213   9.045
93102SOL     OW81202   8.113   5.304  12.253
93102SOL    HW181203   8.090   5.389  12.291
93102SOL    HW281204   8.186   5.273  12.308
93103SOL     OW81205   5.408  13.434   7.425
93103SOL    HW181206   5.374  13.354   7.465
93103SOL    HW281207   5.379  13.505   7.483
93104SOL     OW81208   6.271   1.004   4.275
93104SOL    HW181209   6.297   0.912   4.266
93104SOL    HW281210   6.349   1.054   4.253
93105SOL     OW81211   6.679   0.542   1.348
93105SOL    HW181212   6.686   0.551   1.253
93105SOL    HW281213   6.653   0.450   1.361
93106SOL     OW81214  12.570  13.972   8.532
93106SOL    HW181215  12.631  14.010   8.595
93106SOL    HW281216  12.503  14.040   8.520
93107SOL     OW81217   2.826   2.214  12.545
93107SOL    HW181218   2.859   2.226  12.455
93107SOL    HW281219   2.814   2.120  12.553
93108SOL     OW81220   3.643   0.070   2.454
93108SOL    HW181221   3.559   0.089   2.496
93108SOL    HW281222   3.641  14.858   2.438
93109SOL     OW81223   2.724   2.097  13.478
93109SOL    HW181224   2.800   2.040  13.464
93109SOL    HW281225   2.666   2.077  13.405
93110SOL     OW81226   9.983   4.573   3.013
93110SOL    HW181227   9.922   4.595   3.084
93110SOL    HW281228   9.945   4.613   2.935
93111SOL     OW81229  12.191   4.256  11.890
93111SOL    HW181230  12.200   4.162  11.874
93111SOL    HW281231  12.106   4.265  11.932
93112SOL     OW81232  13.206   1.506  13.310
93112SOL    HW181233  13.208   1.453  13.230
93112SOL    HW281234  13.152   1.582  13.287
93113SOL     OW81235  13.274   5.033  10.630
93113SOL    HW181236  13.310   4.962  10.683
93113SOL    HW281237  13.298   5.011  10.540
93114SOL     OW81238  13.522   8.660   3.606
93114SOL    HW181239  13.539   8.657   3.700
93114SOL    HW281240  13.427   8.673   3.599
93115SOL     OW81241   3.610   8.220  11.324
93115SOL    HW181242   3.551   8.144  11.318
93115SOL    HW281243   3.695   8.182  11.344
93116SOL     OW81244   5.760   7.977  11.478
93116SOL    HW181245   5.774   7.887  11.507
93116SOL    HW281246   5.846   8.018  11.487
93117SOL     OW81247  13.687   0.440   2.919
93117SOL    HW181248  13.746   0.375   2.879
93117SOL    HW281249  13.625   0.387   2.970
93118SOL     OW81250   3.472  14.767   8.332
93118SOL    HW181251   3.505  14.737   8.248
93118SOL    HW281252   3.524  14.845   8.352
93119SOL     OW81253  14.014  11.255   5.338
93119SOL    HW181254  13.998  11.168   5.375
93119SOL    HW281255  14.098  11.282   5.376
93120SOL     OW81256   9.589   5.429   5.930
93120SOL    HW181257   9.629   5.392   6.009
93120SOL    HW281258   9.495   5.416   5.943
93121SOL     OW81259   5.322   3.795   5.593
93121SOL    HW181260   5.241   3.759   5.557
93121SOL    HW281261   5.309   3.790   5.688
93122SOL     OW81262  12.876  14.497  14.480
93122SOL    HW181263  12.822  14.541  14.546
93122SOL    HW281264  12.817  14.479  14.408
93123SOL     OW81265   4.214  11.498   4.862
93123SOL    HW181266   4.301  11.469   4.889
93123SOL    HW281267   4.199  11.455   4.778
93124SOL     OW81268   5.829   6.615   7.024
93124SOL    HW181269   5.802   6.557   7.095
93124SOL    HW281270   5.838   6.701   7.064
93125SOL     OW81271  13.793  14.347   7.636
93125SOL    HW181272  13.882  14.350   7.602
93125SOL    HW281273  13.787  14.264   7.684
93126SOL     OW81274   2.069   3.456   1.053
93126SOL    HW181275   2.095   3.509   0.978
93126SOL    HW281276   2.049   3.370   1.016
93127SOL     OW81277   1.662  13.737  12.925
93127SOL    HW181278   1.752  13.765  12.935
93127SOL    HW281279   1.630  13.785  12.848
93128SOL     OW81280   9.885   3.450  10.724
93128SOL    HW181281   9.866   3.417  10.636
93128SOL    HW281282   9.801   3.447  10.769
93129SOL     OW81283   8.136  13.404   8.826
93129SOL    HW181284   8.050  13.401   8.869
93129SOL    HW281285   8.185  13.333   8.866
93130SOL     OW81286  14.232   1.990   6.593
93130SOL    HW181287  14.286   1.915   6.618
93130SOL    HW281288  14.143   1.958   6.598
93131SOL     OW81289  10.826   5.434  12.342
93131SOL    HW181290  10.880   5.374  12.395
93131SOL    HW281291  10.887   5.501  12.313
93132SOL     OW81292   2.190   0.909  11.724
93132SOL    HW181293   2.271   0.928  11.772
93132SOL    HW281294   2.156   0.994  11.699
93133SOL     OW81295  11.705   4.220   0.967
93133SOL    HW181296  11.661   4.254   0.890
93133SOL    HW281297  11.635   4.209   1.032
93134SOL     OW81298  12.274  14.514  11.346
93134SOL    HW181299  12.335  14.546  11.279
93134SOL    HW281300  12.225  14.593  11.372
93135SOL     OW81301   7.241  13.285   3.106
93135SOL    HW181302   7.271  13.356   3.163
93135SOL    HW281303   7.313  13.272   3.043
93136SOL     OW81304   6.265   7.516   0.320
93136SOL    HW181305   6.269   7.423   0.302
93136SOL    HW281306   6.354   7.540   0.348
93137SOL     OW81307   7.298   5.157   2.011
93137SOL    HW181308   7.272   5.115   1.928
93137SOL    HW281309   7.317   5.247   1.986
93138SOL     OW81310  11.445   2.305   9.368
93138SOL    HW181311  11.513   2.301   9.301
93138SOL    HW281312  11.455   2.224   9.418
93139SOL     OW81313  12.087   1.479   2.074
93139SOL    HW181314  12.152   1.439   2.016
93139SOL    HW281315  12.051   1.552   2.023
93140SOL     OW81316  10.306   2.815   3.876
93140SOL    HW181317  10.317   2.732   3.922
93140SOL    HW281318  10.391   2.834   3.837
93141SOL     OW81319  10.121   4.435   5.675
93141SOL    HW181320  10.213   4.463   5.681
93141SOL    HW281321  10.101   4.402   5.762
93142SOL     OW81322   8.000   5.264   0.603
93142SOL    HW181323   8.079   5.210   0.599
93142SOL    HW281324   8.005   5.306   0.689
93143SOL     OW81325  11.768   2.728   1.124
93143SOL    HW181326  11.740   2.808   1.080
93143SOL    HW281327  11.724   2.731   1.210
93144SOL     OW81328  12.318  13.380   5.860
93144SOL    HW181329  12.406  13.385   5.896
93144SOL    HW281330  12.293  13.288   5.868
93145SOL     OW81331   1.010  10.376   7.210
93145SOL    HW181332   1.077  10.426   7.256
93145SOL    HW281333   1.002  10.295   7.259
93146SOL     OW81334   4.595   1.586   7.625
93146SOL    HW181335   4.602   1.576   7.720
93146SOL    HW281336   4.523   1.528   7.600
93147SOL     OW81337   6.524  11.996  14.146
93147SOL    HW181338   6.617  11.980  14.158
93147SOL    HW281339   6.491  11.916  14.105
93148SOL     OW81340  11.069   9.774  11.890
93148SOL    HW181341  11.081   9.789  11.796
93148SOL    HW281342  11.028   9.688  11.896
93149SOL     OW81343   0.752   5.821  13.109
93149SOL    HW181344   0.670   5.828  13.157
93149SOL    HW281345   0.802   5.755  13.156
93150SOL     OW81346   0.349   9.927   5.621
93150SOL    HW181347   0.364   9.834   5.639
93150SOL    HW281348   0.333   9.932   5.527
93151SOL     OW81349  14.704  10.743   8.784
93151SOL    HW181350  14.772  10.679   8.807
93151SOL    HW281351  14.630  10.691   8.756
93152SOL     OW81352   8.810   7.870   5.516
93152SOL    HW181353   8.771   7.956   5.534
93152SOL    HW281354   8.797   7.858   5.422
93153SOL     OW81355   5.583   0.458   2.947
93153SOL    HW181356   5.568   0.528   2.884
93153SOL    HW281357   5.536   0.382   2.912
93154SOL     OW81358   8.385   1.037   8.695
93154SOL    HW181359   8.334   1.113   8.664
93154SOL    HW281360   8.386   0.977   8.621
93155SOL     OW81361   4.792  10.218   1.051
93155SOL    HW181362   4.708  10.207   1.095
93155SOL    HW281363   4.770  10.218   0.958
93156SOL     OW81364  13.172   7.245   2.459
93156SOL    HW181365  13.201   7.237   2.368
93156SOL    HW281366  13.080   7.218   2.458
93157SOL     OW81367  12.488   3.191  13.709
93157SOL    HW181368  12.508   3.264  13.767
93157SOL    HW281369  12.566   3.182  13.654
93158SOL     OW81370   5.495   4.310  14.015
93158SOL    HW181371   5.457   4.226  14.039
93158SOL    HW281372   5.430   4.375  14.041
93159SOL     OW81373   2.584   9.624  11.314
93159SOL    HW181374   2.661   9.680  11.301
93159SOL    HW281375   2.518   9.662  11.256
93160SOL     OW81376   0.711  14.030  12.634
93160SOL    HW181377   0.789  14.010  12.686
93160SOL    HW281378   0.648  13.962  12.657
93161SOL     OW81379  12.638  10.505   6.620
93161SOL    HW181380  12.624  10.411   6.635
93161SOL    HW281381  12.552  10.544   6.635
93162SOL     OW81382  11.524   9.838  10.681
93162SOL    HW181383  11.554   9.850  10.771
93162SOL    HW281384  11.604   9.817  10.632
93163SOL     OW81385   6.388   6.388  10.036
93163SOL    HW181386   6.370   6.372  10.129
93163SOL    HW281387   6.325   6.456  10.011
93164SOL     OW81388   6.918  11.449   6.356
93164SOL    HW181389   6.888  11.442   6.447
93164SOL    HW281390   6.868  11.382   6.309
93165SOL     OW81391   6.236   6.558   0.782
93165SOL    HW181392   6.197   6.577   0.867
93165SOL    HW281393   6.330   6.549   0.800
93166SOL     OW81394   6.082   2.251  12.895
93166SOL    HW181395   6.055   2.316  12.959
93166SOL    HW281396   6.122   2.301  12.824
93167SOL     OW81397  11.473  14.205  12.626
93167SOL    HW181398  11.534  14.226  12.696
93167SOL    HW281399  11.528  14.168  12.556
93168SOL     OW81400  12.423   9.318   7.563
93168SOL    HW181401  12.379   9.331   7.647
93168SOL    HW281402  12.353   9.291   7.504
93169SOL     OW81403   8.505  12.460   2.753
93169SOL    HW181404   8.458  12.378   2.737
93169SOL    HW281405   8.545  12.481   2.668
93170SOL     OW81406   5.349  12.534  13.562
93170SOL    HW181407   5.441  12.536  13.536
93170SOL    HW281408   5.302  12.509  13.483
93171SOL     OW81409   0.327  12.613  14.575
93171SOL    HW181410   0.240  12.638  14.545
93171SOL    HW281411   0.311  12.552  14.646
93172SOL     OW81412   6.615   2.743  14.658
93172SOL    HW181413   6.673   2.702  14.722
93172SOL    HW281414   6.529   2.743  14.700
93173SOL     OW81415   8.098  12.245  11.168
93173SOL    HW181416   8.139  12.225  11.084
93173SOL    HW281417   8.168  12.230  11.233
93174SOL     OW81418  13.788   9.753  11.758
93174SOL    HW181419  13.706   9.774  11.804
93174SOL    HW281420  13.766   9.758  11.666
93175SOL     OW81421  13.488   5.244   8.145
93175SOL    HW181422  13.553   5.254   8.214
93175SOL    HW281423  13.520   5.171   8.092
93176SOL     OW81424   3.496  13.774   8.992
93176SOL    HW181425   3.417  13.724   9.011
93176SOL    HW281426   3.562  13.707   8.971
93177SOL     OW81427  11.394   9.554   1.497
93177SOL    HW181428  11.380   9.567   1.591
93177SOL    HW281429  11.324   9.493   1.471
93178SOL     OW81430  10.610  11.669   5.817
93178SOL    HW181431  10.576  11.751   5.855
93178SOL    HW281432  10.555  11.601   5.856
93179SOL     OW81433   1.959   7.701   1.971
93179SOL    HW181434   2.006   7.618   1.972
93179SOL    HW281435   2.016   7.760   1.922
93180SOL     OW81436   2.520  10.995   0.323
93180SOL    HW181437   2.608  10.995   0.284
93180SOL    HW281438   2.469  10.938   0.266
93181SOL     OW81439   3.948  11.178   9.421
93181SOL    HW181440   3.880  11.203   9.484
93181SOL    HW281441   3.996  11.108   9.463
93182SOL     OW81442   3.142   4.737   6.367
93182SOL    HW181443   3.236   4.736   6.349
93182SOL    HW281444   3.122   4.646   6.391
93183SOL     OW81445   3.862  12.168  11.823
93183SOL    HW181446   3.786  12.220  11.798
93183SOL    HW281447   3.935  12.229  11.820
93184SOL     OW81448  10.723   3.146   0.519
93184SOL    HW181449  10.651   3.185   0.470
93184SOL    HW281450  10.762   3.219   0.566
93185SOL     OW81451   9.019  13.987  11.862
93185SOL    HW181452   9.095  14.000  11.920
93185SOL    HW281453   9.053  14.003  11.774
93186SOL     OW81454  12.980   0.880   5.698
93186SOL    HW181455  12.949   0.823   5.768
93186SOL    HW281456  13.062   0.839   5.668
93187SOL     OW81457  11.048  13.537   3.429
93187SOL    HW181458  11.115  13.499   3.486
93187SOL    HW281459  10.966  13.497   3.459
93188SOL     OW81460  10.687  14.179   6.315
93188SOL    HW181461  10.615  14.189   6.377
93188SOL    HW281462  10.662  14.104   6.261
93189SOL     OW81463   2.932   1.820   1.379
93189SOL    HW181464   2.915   1.743   1.325
93189SOL    HW281465   2.847   1.864   1.386
93190SOL     OW81466   6.076   9.516  14.390
93190SOL    HW181467   6.067   9.448  14.324
93190SOL    HW281468   6.169   9.519  14.410
93191SOL     OW81469  13.618   7.244   4.856
93191SOL    HW181470  13.637   7.150   4.856
93191SOL    HW281471  13.667   7.278   4.931
93192SOL     OW81472  12.897  10.528  11.704
93192SOL    HW181473  12.829  10.543  11.770
93192SOL    HW281474  12.979  10.549  11.750
93193SOL     OW81475  13.956   6.652  13.959
93193SOL    HW181476  14.046   6.630  13.935
93193SOL    HW281477  13.902   6.585  13.916
93194SOL     OW81478   3.237  14.711  13.085
93194SOL    HW181479   3.203  14.684  13.000
93194SOL    HW281480   3.186  14.790  13.106
93195SOL     OW81481   4.188   9.360   9.362
93195SOL    HW181482   4.123   9.290   9.361
93195SOL    HW281483   4.265   9.323   9.319
93196SOL     OW81484   8.663   2.777   7.818
93196SOL    HW181485   8.599   2.846   7.837
93196SOL    HW281486   8.659   2.766   7.723
93197SOL     OW81487  12.981   8.211   7.378
93197SOL    HW181488  12.894   8.225   7.340
93197SOL    HW281489  13.041   8.245   7.311
93198SOL     OW81490   4.873   3.725   4.151
93198SOL    HW181491   4.898   3.647   4.101
93198SOL    HW281492   4.784   3.705   4.181
93199SOL     OW81493  11.840   7.269   1.052
93199SOL    HW181494  11.927   7.264   1.012
93199SOL    HW281495  11.855   7.316   1.135
93200SOL     OW81496   2.721   8.009   0.638
93200SOL    HW181497   2.768   8.071   0.582
93200SOL    HW281498   2.705   7.934   0.581
93201SOL     OW81499   5.636   7.363   1.664
93201SOL    HW181500   5.617   7.424   1.593
93201SOL    HW281501   5.682   7.291   1.620
93202SOL     OW81502   1.092   6.523   2.474
93202SOL    HW181503   1.021   6.464   2.449
93202SOL    HW281504   1.050   6.589   2.529
93203SOL     OW81505   8.022  11.986   5.684
93203SOL    HW181506   8.074  12.026   5.615
93203SOL    HW281507   8.028  11.892   5.667
93204SOL     OW81508  14.179   8.836  12.817
93204SOL    HW181509  14.120   8.821  12.890
93204SOL    HW281510  14.124   8.829  12.739
93205SOL     OW81511  10.789   3.759   7.403
93205SOL    HW181512  10.811   3.667   7.416
93205SOL    HW281513  10.706   3.770   7.448
93206SOL     OW81514  11.836  11.366   4.027
93206SOL    HW181515  11.815  11.303   3.958
93206SOL    HW281516  11.784  11.443   4.007
93207SOL     OW81517   0.318   5.901   1.371
93207SOL    HW181518   0.256   5.877   1.441
93207SOL    HW281519   0.263   5.941   1.304
93208SOL     OW81520   4.028   2.452   6.844
93208SOL    HW181521   4.012   2.386   6.912
93208SOL    HW281522   3.989   2.532   6.879
93209SOL     OW81523   2.788   8.073   8.891
93209SOL    HW181524   2.738   7.993   8.903
93209SOL    HW281525   2.872   8.056   8.934
93210SOL     OW81526   1.901   8.542   5.789
93210SOL    HW181527   1.912   8.548   5.884
93210SOL    HW281528   1.947   8.618   5.754
93211SOL     OW81529   2.905   7.549   9.144
93211SOL    HW181530   2.945   7.465   9.165
93211SOL    HW281531   2.811   7.529   9.134
93212SOL     OW81532  11.377  14.164   8.341
93212SOL    HW181533  11.410  14.094   8.396
93212SOL    HW281534  11.310  14.123   8.286
93213SOL     OW81535  12.750  10.883   6.992
93213SOL    HW181536  12.761  10.813   7.056
93213SOL    HW281537  12.832  10.933   6.997
93214SOL     OW81538   4.599   6.607  11.942
93214SOL    HW181539   4.511   6.644  11.947
93214SOL    HW281540   4.591   6.536  11.879
93215SOL     OW81541   0.337   6.919   2.326
93215SOL    HW181542   0.431   6.903   2.315
93215SOL    HW281543   0.295   6.844   2.284
93216SOL     OW81544  11.189   1.791   0.978
93216SOL    HW181545  11.169   1.866   1.035
93216SOL    HW281546  11.261   1.823   0.922
93217SOL     OW81547   0.266   6.160   9.130
93217SOL    HW181548   0.249   6.163   9.224
93217SOL    HW281549   0.184   6.187   9.089
93218SOL     OW81550   8.561   0.906  10.339
93218SOL    HW181551   8.500   0.977  10.318
93218SOL    HW281552   8.554   0.896  10.434
93219SOL     OW81553   2.508   5.919   9.444
93219SOL    HW181554   2.560   5.998   9.429
93219SOL    HW281555   2.476   5.894   9.356
93220SOL     OW81556   3.972  13.611   7.707
93220SOL    HW181557   3.963  13.528   7.661
93220SOL    HW281558   3.939  13.594   7.795
93221SOL     OW81559   6.025   3.212  10.969
93221SOL    HW181560   6.063   3.146  10.912
93221SOL    HW281561   6.079   3.290  10.954
93222SOL     OW81562   4.555   3.229   2.614
93222SOL    HW181563   4.646   3.202   2.624
93222SOL    HW281564   4.558   3.324   2.623
93223SOL     OW81565   6.230   7.904   3.159
93223SOL    HW181566   6.313   7.859   3.170
93223SOL    HW281567   6.187   7.858   3.086
93224SOL     OW81568   7.887   0.428  11.439
93224SOL    HW181569   7.796   0.441  11.464
93224SOL    HW281570   7.916   0.353  11.491
93225SOL     OW81571   8.998   4.730  11.771
93225SOL    HW181572   9.015   4.679  11.692
93225SOL    HW281573   9.046   4.811  11.759
93226SOL     OW81574  11.230   8.266  11.281
93226SOL    HW181575  11.265   8.325  11.215
93226SOL    HW281576  11.287   8.189  11.277
93227SOL     OW81577  10.456  12.325   8.695
93227SOL    HW181578  10.433  12.414   8.720
93227SOL    HW281579  10.461  12.277   8.778
93228SOL     OW81580   2.467  11.182  13.946
93228SOL    HW181581   2.395  11.162  13.887
93228SOL    HW281582   2.435  11.157  14.032
93229SOL     OW81583   4.686   2.098   7.193
93229SOL    HW181584   4.669   2.084   7.100
93229SOL    HW281585   4.782   2.101   7.199
93230SOL     OW81586   9.549   0.947   2.561
93230SOL    HW181587   9.603   1.024   2.584
93230SOL    HW281588   9.593   0.874   2.604
93231SOL     OW81589  11.358  12.932  12.359
93231SOL    HW181590  11.314  13.007  12.320
93231SOL    HW281591  11.405  12.967  12.435
93232SOL     OW81592  13.718   4.682   6.548
93232SOL    HW181593  13.770   4.631   6.486
93232SOL    HW281594  13.628   4.669   6.520
93233SOL     OW81595   5.175   7.043   8.124
93233SOL    HW181596   5.087   7.008   8.113
93233SOL    HW281597   5.193   7.090   8.043
93234SOL     OW81598   1.952   0.348   1.907
93234SOL    HW181599   1.914   0.366   1.821
93234SOL    HW281600   1.921   0.420   1.962
93235SOL     OW81601   2.798   3.465  10.034
93235SOL    HW181602   2.878   3.498  10.074
93235SOL    HW281603   2.753   3.544  10.003
93236SOL     OW81604   7.818  10.468  13.366
93236SOL    HW181605   7.818  10.563  13.367
93236SOL    HW281606   7.850  10.444  13.279
93237SOL     OW81607   4.596   5.505   0.536
93237SOL    HW181608   4.633   5.517   0.448
93237SOL    HW281609   4.671   5.512   0.595
93238SOL     OW81610   9.408   1.683  10.626
93238SOL    HW181611   9.319   1.716  10.620
93238SOL    HW281612   9.404   1.596  10.585
93239SOL     OW81613   3.347   1.930   8.897
93239SOL    HW181614   3.378   1.879   8.973
93239SOL    HW281615   3.359   2.021   8.924
93240SOL     OW81616  14.761  13.310   8.212
93240SOL    HW181617  14.736  13.219   8.226
93240SOL    HW281618  14.767  13.347   8.300
93241SOL     OW81619   5.981  13.681   7.171
93241SOL    HW181620   5.908  13.628   7.138
93241SOL    HW281621   6.008  13.636   7.251
93242SOL     OW81622   9.878   4.218   8.995
93242SOL    HW181623   9.953   4.265   8.960
93242SOL    HW281624   9.841   4.277   9.061
93243SOL     OW81625   3.054   8.244  14.759
93243SOL    HW181626   2.961   8.242  14.738
93243SOL    HW281627   3.076   8.153  14.780
93244SOL     OW81628  12.576   1.524  10.528
93244SOL    HW181629  12.575   1.429  10.544
93244SOL    HW281630  12.553   1.562  10.613
93245SOL     OW81631   9.115   7.371   7.776
93245SOL    HW181632   9.033   7.403   7.739
93245SOL    HW281633   9.120   7.411   7.863
93246SOL     OW81634   8.030   7.643  14.540
93246SOL    HW181635   8.105   7.660  14.597
93246SOL    HW281636   7.959   7.621  14.601
93247SOL     OW81637  12.791   6.258  11.706
93247SOL    HW181638  12.723   6.320  11.680
93247SOL    HW281639  12.785   6.255  11.802
93248SOL     OW81640   5.278  11.437   8.130
93248SOL    HW181641   5.373  11.452   8.134
93248SOL    HW281642   5.257  11.394   8.213
93249SOL     OW81643  12.502   1.297   4.132
93249SOL    HW181644  12.590   1.334   4.140
93249SOL    HW281645  12.470   1.290   4.222
93250SOL     OW81646   4.911  11.457  14.835
93250SOL    HW181647   4.867  11.386  14.789
93250SOL    HW281648   4.840  11.515  14.863
93251SOL     OW81649  12.293  12.139   1.199
93251SOL    HW181650  12.324  12.081   1.268
93251SOL    HW281651  12.308  12.090   1.118
93252SOL     OW81652  10.538   7.906   9.703
93252SOL    HW181653  10.591   7.857   9.765
93252SOL    HW281654  10.466   7.941   9.755
93253SOL     OW81655   2.286   5.142   0.701
93253SOL    HW181656   2.353   5.125   0.767
93253SOL    HW281657   2.323   5.212   0.646
93254SOL     OW81658   1.091  13.848  11.037
93254SOL    HW181659   1.099  13.857  11.132
93254SOL    HW281660   1.065  13.757  11.024
93255SOL     OW81661   5.014  10.393   9.394
93255SOL    HW181662   4.933  10.345   9.409
93255SOL    HW281663   4.994  10.455   9.324
93256SOL     OW81664   0.238   8.337  10.208
93256SOL    HW181665   0.209   8.396  10.278
93256SOL    HW281666   0.225   8.249  10.244
93257SOL     OW81667   9.909  12.614  10.735
93257SOL    HW181668   9.985  12.568  10.699
93257SOL    HW281669   9.844  12.545  10.750
93258SOL     OW81670   9.598   6.734   0.265
93258SOL    HW181671   9.530   6.694   0.210
93258SOL    HW281672   9.641   6.659   0.307
93259SOL     OW81673  13.665   6.274   8.278
93259SOL    HW181674  13.695   6.279   8.369
93259SOL    HW281675  13.746   6.271   8.227
93260SOL     OW81676   6.517   1.718   3.521
93260SOL    HW181677   6.547   1.645   3.467
93260SOL    HW281678   6.562   1.707   3.604
93261SOL     OW81679   2.740   0.443   7.683
93261SOL    HW181680   2.750   0.510   7.751
93261SOL    HW281681   2.684   0.377   7.722
93262SOL     OW81682  13.455   8.543   9.919
93262SOL    HW181683  13.508   8.524   9.842
93262SOL    HW281684  13.519   8.564   9.988
93263SOL     OW81685   1.797  10.748   9.613
93263SOL    HW181686   1.785  10.835   9.574
93263SOL    HW281687   1.719  10.736   9.667
93264SOL     OW81688   6.456   9.529   3.458
93264SOL    HW181689   6.490   9.499   3.373
93264SOL    HW281690   6.435   9.621   3.445
93265SOL     OW81691   5.023   6.032   4.254
93265SOL    HW181692   5.036   5.960   4.191
93265SOL    HW281693   4.947   6.079   4.220
93266SOL     OW81694   7.090  10.690  11.494
93266SOL    HW181695   7.084  10.783  11.516
93266SOL    HW281696   7.010  10.672  11.445
93267SOL     OW81697   9.901   9.121   8.917
93267SOL    HW181698   9.843   9.194   8.894
93267SOL    HW281699   9.986   9.162   8.934
93268SOL     OW81700   5.778   0.009  13.943
93268SOL    HW181701   5.819  14.854  13.865
93268SOL    HW281702   5.773   0.103  13.924
93269SOL     OW81703  13.462  13.284   4.998
93269SOL    HW181704  13.495  13.347   4.934
93269SOL    HW281705  13.506  13.202   4.976
93270SOL     OW81706  13.797  10.618  14.802
93270SOL    HW181707  13.703  10.634  14.795
93270SOL    HW281708  13.835  10.706  14.809
93271SOL     OW81709  11.238   3.679   3.491
93271SOL    HW181710  11.171   3.701   3.555
93271SOL    HW281711  11.196   3.691   3.406
93272SOL     OW81712  10.126  12.964   2.015
93272SOL    HW181713  10.143  12.871   2.001
93272SOL    HW281714  10.140  12.977   2.109
93273SOL     OW81715   0.828   6.341   9.731
93273SOL    HW181716   0.908   6.392   9.743
93273SOL    HW281717   0.818   6.292   9.813
93274SOL     OW81718  12.231   3.803   4.954
93274SOL    HW181719  12.289   3.730   4.934
93274SOL    HW281720  12.279   3.855   5.018
93275SOL     OW81721   8.592  13.412  14.870
93275SOL    HW181722   8.669  13.415  14.814
93275SOL    HW281723   8.610  13.476   0.057
93276SOL     OW81724   4.867   4.801  14.659
93276SOL    HW181725   4.917   4.811  14.739
93276SOL    HW281726   4.898   4.871  14.602
93277SOL     OW81727  13.262   3.768  14.618
93277SOL    HW181728  13.295   3.679  14.628
93277SOL    HW281729  13.338   3.824  14.634
93278SOL     OW81730  14.048   0.557   5.327
93278SOL    HW181731  14.114   0.623   5.307
93278SOL    HW281732  13.995   0.550   5.247
93279SOL     OW81733   8.169   8.963   2.285
93279SOL    HW181734   8.197   9.029   2.221
93279SOL    HW281735   8.156   8.883   2.233
93280SOL     OW81736  10.396   7.223   0.325
93280SOL    HW181737  10.453   7.163   0.372
93280SOL    HW281738  10.315   7.224   0.376
93281SOL     OW81739   3.928  14.455   9.092
93281SOL    HW181740   3.877  14.375   9.094
93281SOL    HW281741   4.013  14.430   9.130
93282SOL     OW81742  10.661   9.549  11.815
93282SOL    HW181743  10.621   9.505  11.741
93282SOL    HW281744  10.592   9.552  11.882
93283SOL     OW81745   6.530  10.457  13.659
93283SOL    HW181746   6.562  10.440  13.747
93283SOL    HW281747   6.441  10.420  13.658
93284SOL     OW81748   3.427  12.255   9.813
93284SOL    HW181749   3.414  12.162   9.795
93284SOL    HW281750   3.446  12.259   9.907
93285SOL     OW81751  12.360   2.876  11.303
93285SOL    HW181752  12.430   2.926  11.262
93285SOL    HW281753  12.282   2.896  11.252
93286SOL     OW81754   1.828   2.233   3.927
93286SOL    HW181755   1.828   2.236   4.023
93286SOL    HW281756   1.882   2.157   3.906
93287SOL     OW81757  13.324   7.232  11.338
93287SOL    HW181758  13.234   7.205  11.321
93287SOL    HW281759  13.331   7.319  11.298
93288SOL     OW81760  10.110   3.020  14.120
93288SOL    HW181761  10.107   3.105  14.075
93288SOL    HW281762  10.094   2.956  14.050
93289SOL     OW81763  13.144   8.265   1.317
93289SOL    HW181764  13.102   8.273   1.231
93289SOL    HW281765  13.077   8.226   1.373
93290SOL     OW81766   3.414   4.151  14.879
93290SOL    HW181767   3.451   4.238   0.012
93290SOL    HW281768   3.339   4.166  14.822
93291SOL     OW81769   9.114   8.647   2.087
93291SOL    HW181770   9.123   8.645   1.992
93291SOL    HW281771   9.076   8.561   2.109
93292SOL     OW81772   3.281   1.451  12.374
93292SOL    HW181773   3.347   1.389  12.344
93292SOL    HW281774   3.238   1.480  12.293
93293SOL     OW81775   3.317   1.584   0.194
93293SOL    HW181776   3.291   1.675   0.179
93293SOL    HW281777   3.405   1.579   0.156
93294SOL     OW81778   4.103  10.733   7.434
93294SOL    HW181779   4.162  10.723   7.360
93294SOL    HW281780   4.158  10.765   7.505
93295SOL     OW81781   7.432  13.219   2.359
93295SOL    HW181782   7.362  13.203   2.421
93295SOL    HW281783   7.396  13.281   2.297
93296SOL     OW81784   1.266  14.048   2.679
93296SOL    HW181785   1.354  14.081   2.659
93296SOL    HW281786   1.220  14.124   2.715
93297SOL     OW81787  14.007   9.796  13.531
93297SOL    HW181788  13.939   9.801  13.464
93297SOL    HW281789  13.969   9.838  13.608
93298SOL     OW81790  10.609   4.160   3.906
93298SOL    HW181791  10.686   4.103   3.914
93298SOL    HW281792  10.590   4.187   3.996
93299SOL     OW81793   3.434   6.772   4.148
93299SOL    HW181794   3.487   6.791   4.225
93299SOL    HW281795   3.363   6.717   4.181
93300SOL     OW81796   4.175  11.236  12.165
93300SOL    HW181797   4.128  11.164  12.207
93300SOL    HW281798   4.247  11.193  12.118
93301SOL     OW81799   9.074  10.944   3.829
93301SOL    HW181800   9.049  10.968   3.918
93301SOL    HW281801   9.042  11.017   3.775
93302SOL     OW81802   6.851  11.123  13.521
93302SOL    HW181803   6.869  11.209  13.482
93302SOL    HW281804   6.851  11.063  13.447
93303SOL     OW81805  12.933   7.135   0.767
93303SOL    HW181806  13.011   7.100   0.726
93303SOL    HW281807  12.957   7.147   0.859
93304SOL     OW81808   8.479   9.860   5.235
93304SOL    HW181809   8.413   9.789   5.236
93304SOL    HW281810   8.437   9.931   5.283
93305SOL     OW81811   8.006   0.515  10.206
93305SOL    HW181812   8.089   0.515  10.254
93305SOL    HW281813   7.963   0.596  10.234
93306SOL     OW81814   8.500   5.189  12.932
93306SOL    HW181815   8.453   5.246  12.871
93306SOL    HW281816   8.531   5.116  12.878
93307SOL     OW81817   3.128   9.539  10.502
93307SOL    HW181818   3.143   9.470  10.438
93307SOL    HW281819   3.203   9.598  10.493
93308SOL     OW81820   7.948  10.416   6.450
93308SOL    HW181821   7.976  10.432   6.360
93308SOL    HW281822   7.864  10.461   6.457
93309SOL     OW81823   4.369   4.331   7.884
93309SOL    HW181824   4.443   4.390   7.896
93309SOL    HW281825   4.294   4.388   7.870
93310SOL     OW81826   7.501   6.273  10.602
93310SOL    HW181827   7.454   6.356  10.614
93310SOL    HW281828   7.450   6.209  10.651
93311SOL     OW81829   7.295   6.486   6.163
93311SOL    HW181830   7.313   6.579   6.171
93311SOL    HW281831   7.202   6.477   6.186
93312SOL     OW81832  14.178  11.887   0.390
93312SOL    HW181833  14.272  11.895   0.405
93312SOL    HW281834  14.144  11.851   0.472
93313SOL     OW81835   5.490   7.739   0.762
93313SOL    HW181836   5.400   7.767   0.782
93313SOL    HW281837   5.539   7.820   0.752
93314SOL     OW81838   0.268   2.111   7.930
93314SOL    HW181839   0.258   2.151   8.017
93314SOL    HW281840   0.282   2.018   7.949
93315SOL     OW81841  12.934   3.829   5.945
93315SOL    HW181842  12.933   3.754   6.005
93315SOL    HW281843  12.842   3.857   5.941
93316SOL     OW81844   5.834   3.992  14.061
93316SOL    HW181845   5.909   3.999  14.120
93316SOL    HW281846   5.836   4.073  14.010
93317SOL     OW81847  10.302   3.464   2.733
93317SOL    HW181848  10.218   3.422   2.714
93317SOL    HW281849  10.319   3.519   2.657
93318SOL     OW81850  11.481   7.334  11.241
93318SOL    HW181851  11.449   7.243  11.235
93318SOL    HW281852  11.509   7.343  11.332
93319SOL     OW81853   2.855   3.740  14.559
93319SOL    HW181854   2.842   3.656  14.516
93319SOL    HW281855   2.784   3.744  14.624
93320SOL     OW81856   9.327  12.248  12.993
93320SOL    HW181857   9.294  12.215  12.910
93320SOL    HW281858   9.250  12.282  13.039
93321SOL     OW81859   2.545   1.482   9.541
93321SOL    HW181860   2.519   1.391   9.554
93321SOL    HW281861   2.537   1.497   9.447
93322SOL     OW81862   0.894   6.876   0.917
93322SOL    HW181863   0.924   6.835   0.997
93322SOL    HW281864   0.808   6.912   0.938
93323SOL     OW81865   8.148  11.419   6.666
93323SOL    HW181866   8.177  11.484   6.731
93323SOL    HW281867   8.181  11.336   6.700
93324SOL     OW81868   5.211   9.110  12.479
93324SOL    HW181869   5.126   9.129  12.439
93324SOL    HW281870   5.274   9.118  12.408
93325SOL     OW81871  14.724   6.030   8.038
93325SOL    HW181872  14.785   6.052   7.967
93325SOL    HW281873  14.638   6.040   7.999
93326SOL     OW81874   0.999   2.926   6.366
93326SOL    HW181875   1.052   2.872   6.424
93326SOL    HW281876   0.974   2.868   6.294
93327SOL     OW81877   5.573   9.949   2.037
93327SOL    HW181878   5.565   9.900   1.956
93327SOL    HW281879   5.484   9.951   2.073
93328SOL     OW81880  12.600   9.068   9.021
93328SOL    HW181881  12.693   9.046   9.027
93328SOL    HW281882  12.556   8.983   9.025
93329SOL     OW81883   0.200   0.261   7.726
93329SOL    HW181884   0.228   0.352   7.728
93329SOL    HW281885   0.235   0.227   7.643
93330SOL     OW81886   6.189   3.604   5.804
93330SOL    HW181887   6.255   3.539   5.827
93330SOL    HW281888   6.108   3.554   5.796
93331SOL     OW81889   6.011   5.426   2.813
93331SOL    HW181890   6.069   5.369   2.763
93331SOL    HW281891   5.980   5.372   2.886
93332SOL     OW81892   5.449   5.230   3.912
93332SOL    HW181893   5.400   5.199   3.987
93332SOL    HW281894   5.412   5.183   3.837
93333SOL     OW81895  14.679  10.139   5.355
93333SOL    HW181896  14.686  10.233   5.374
93333SOL    HW281897  14.756  10.101   5.397
93334SOL     OW81898   6.014   0.050   4.195
93334SOL    HW181899   6.014   0.071   4.102
93334SOL    HW281900   5.925   0.068   4.224
93335SOL     OW81901   3.636   5.106  14.278
93335SOL    HW181902   3.660   5.116  14.370
93335SOL    HW281903   3.547   5.070  14.280
93336SOL     OW81904  12.319   1.649   1.785
93336SOL    HW181905  12.346   1.716   1.723
93336SOL    HW281906  12.273   1.697   1.854
93337SOL     OW81907   2.339   0.447   2.851
93337SOL    HW181908   2.301   0.361   2.830
93337SOL    HW281909   2.272   0.491   2.904
93338SOL     OW81910   0.231   9.639   6.621
93338SOL    HW181911   0.250   9.661   6.530
93338SOL    HW281912   0.152   9.688   6.642
93339SOL     OW81913   5.003   2.294   7.228
93339SOL    HW181914   4.944   2.313   7.155
93339SOL    HW281915   5.086   2.333   7.201
93340SOL     OW81916  12.600   7.167  13.510
93340SOL    HW181917  12.670   7.219  13.472
93340SOL    HW281918  12.524   7.225  13.509
93341SOL     OW81919  10.943   3.758   1.228
93341SOL    HW181920  10.946   3.666   1.255
93341SOL    HW281921  10.849   3.777   1.221
93342SOL     OW81922  11.760   6.150   6.702
93342SOL    HW181923  11.751   6.244   6.686
93342SOL    HW281924  11.671   6.116   6.698
93343SOL     OW81925  13.345   4.714   8.081
93343SOL    HW181926  13.326   4.801   8.116
93343SOL    HW281927  13.260   4.679   8.055
93344SOL     OW81928   8.865  11.610   8.998
93344SOL    HW181929   8.812  11.630   9.075
93344SOL    HW281930   8.816  11.646   8.925
93345SOL     OW81931   9.522   1.896   6.766
93345SOL    HW181932   9.612   1.887   6.732
93345SOL    HW281933   9.529   1.871   6.859
93346SOL     OW81934  11.173  11.528   0.834
93346SOL    HW181935  11.174  11.437   0.863
93346SOL    HW281936  11.119  11.527   0.755
93347SOL     OW81937   0.180   9.922   9.636
93347SOL    HW181938   0.155   9.951   9.724
93347SOL    HW281939   0.193   9.828   9.644
93348SOL     OW81940  14.606   2.966  10.356
93348SOL    HW181941  14.557   3.039  10.395
93348SOL    HW281942  14.592   2.893  10.416
93349SOL     OW81943   4.205  13.803   9.619
93349SOL    HW181944   4.216  13.711   9.644
93349SOL    HW281945   4.243  13.852   9.692
93350SOL     OW81946  10.845   4.099   4.865
93350SOL    HW181947  10.780   4.144   4.918
93350SOL    HW281948  10.915   4.077   4.927
93351SOL     OW81949   9.854  14.523  13.836
93351SOL    HW181950   9.876  14.456  13.771
93351SOL    HW281951   9.914  14.507  13.909
93352SOL     OW81952  12.778   5.479   4.150
93352SOL    HW181953  12.719   5.520   4.087
93352SOL    HW281954  12.791   5.390   4.118
93353SOL     OW81955  14.252  14.168  11.277
93353SOL    HW181956  14.327  14.220  11.305
93353SOL    HW281957  14.176  14.223  11.298
93354SOL     OW81958  13.538   3.164  11.806
93354SOL    HW181959  13.614   3.164  11.865
93354SOL    HW281960  13.520   3.257  11.791
93355SOL     OW81961  13.326  12.812   5.717
93355SOL    HW181962  13.243  12.764   5.721
93355SOL    HW281963  13.316  12.872   5.644
93356SOL     OW81964   7.363   9.231   9.465
93356SOL    HW181965   7.375   9.139   9.487
93356SOL    HW281966   7.386   9.236   9.372
93357SOL     OW81967  13.745   0.245   6.643
93357SOL    HW181968  13.821   0.303   6.645
93357SOL    HW281969  13.749   0.197   6.726
93358SOL     OW81970   4.690  10.726   0.995
93358SOL    HW181971   4.735  10.675   0.927
93358SOL    HW281972   4.717  10.685   1.077
93359SOL     OW81973   7.877   7.146   3.869
93359SOL    HW181974   7.851   7.103   3.787
93359SOL    HW281975   7.927   7.223   3.841
93360SOL     OW81976  12.805   2.619  13.022
93360SOL    HW181977  12.875   2.554  13.015
93360SOL    HW281978  12.836   2.681  13.088
93361SOL     OW81979   1.058   1.743  12.054
93361SOL    HW181980   0.971   1.732  12.092
93361SOL    HW281981   1.105   1.664  12.079
93362SOL     OW81982  14.223   4.472   5.297
93362SOL    HW181983  14.234   4.567   5.297
93362SOL    HW281984  14.140   4.457   5.251
93363SOL     OW81985  11.819   4.080  12.825
93363SOL    HW181986  11.852   4.167  12.805
93363SOL    HW281987  11.771   4.054  12.746
93364SOL     OW81988   4.655   0.728  10.687
93364SOL    HW181989   4.718   0.727  10.615
93364SOL    HW281990   4.703   0.768  10.760
93365SOL     OW81991   1.955  12.989   9.520
93365SOL    HW181992   1.873  13.028   9.490
93365SOL    HW281993   1.948  12.990   9.616
93366SOL     OW81994   9.966   0.387   2.829
93366SOL    HW181995  10.044   0.423   2.871
93366SOL    HW281996   9.937   0.318   2.888
93367SOL     OW81997   4.361   3.468  14.839
93367SOL    HW181998   4.321   3.425   0.032
93367SOL    HW281999   4.331   3.558  14.844
93368SOL     OW82000   5.315  10.229   0.019
93368SOL    HW182001   5.298  10.194  14.813
93368SOL    HW282002   5.410  10.223   0.029
93369SOL     OW82003   0.292   8.948   0.027
93369SOL    HW182004   0.243   9.013   0.077
93369SOL    HW282005   0.362   8.998  14.867
93370SOL     OW82006  10.671   6.131  11.798
93370SOL    HW182007  10.674   6.220  11.835
93370SOL    HW282008  10.588   6.129  11.749
93371SOL     OW82009   1.374  14.769  12.242
93371SOL    HW182010   1.459  14.763  12.199
93371SOL    HW282011   1.370  14.692  12.299
93372SOL     OW82012   8.794  10.919  11.102
93372SOL    HW182013   8.757  10.896  11.187
93372SOL    HW282014   8.839  10.839  11.073
93373SOL     OW82015   3.707  13.187   8.162
93373SOL    HW182016   3.783  13.132   8.180
93373SOL    HW282017   3.729  13.272   8.199
93374SOL     OW82018   9.439  10.370   8.272
93374SOL    HW182019   9.518  10.317   8.284
93374SOL    HW282020   9.434  10.385   8.178
93375SOL     OW82021   8.701   7.419   9.684
93375SOL    HW182022   8.737   7.502   9.654
93375SOL    HW282023   8.617   7.442   9.723
93376SOL     OW82024   5.627   5.397   9.813
93376SOL    HW182025   5.613   5.431   9.901
93376SOL    HW282026   5.565   5.446   9.758
93377SOL     OW82027   4.739   1.786   7.898
93377SOL    HW182028   4.661   1.764   7.847
93377SOL    HW282029   4.707   1.839   7.970
93378SOL     OW82030  13.758   5.688   3.359
93378SOL    HW182031  13.838   5.711   3.312
93378SOL    HW282032  13.687   5.719   3.302
93379SOL     OW82033  13.129   7.348   9.881
93379SOL    HW182034  13.118   7.418   9.945
93379SOL    HW282035  13.219   7.358   9.851
93380SOL     OW82036   8.900   4.781   3.682
93380SOL    HW182037   8.877   4.839   3.610
93380SOL    HW282038   8.962   4.719   3.644
93381SOL     OW82039  10.797   0.556   1.706
93381SOL    HW182040  10.704   0.580   1.707
93381SOL    HW282041  10.820   0.542   1.798
93382SOL     OW82042   6.266   7.812   2.826
93382SOL    HW182043   6.290   7.723   2.852
93382SOL    HW282044   6.172   7.817   2.844
93383SOL     OW82045   6.786   6.723   2.318
93383SOL    HW182046   6.752   6.634   2.321
93383SOL    HW282047   6.881   6.714   2.321
93384SOL     OW82048  14.733  11.024   5.951
93384SOL    HW182049  14.820  11.002   5.919
93384SOL    HW282050  14.739  11.014   6.046
93385SOL     OW82051  12.315  14.671  13.969
93385SOL    HW182052  12.358  14.711  13.893
93385SOL    HW282053  12.231  14.640  13.935
93386SOL     OW82054   9.846  11.658  11.033
93386SOL    HW182055   9.839  11.713  10.955
93386SOL    HW282056   9.940  11.643  11.043
93387SOL     OW82057   8.860  14.876   5.739
93387SOL    HW182058   8.806   0.061   5.696
93387SOL    HW282059   8.947   0.006   5.702
93388SOL     OW82060   4.740   7.829   5.625
93388SOL    HW182061   4.822   7.815   5.579
93388SOL    HW282062   4.719   7.743   5.663
93389SOL     OW82063  13.808  11.672   0.998
93389SOL    HW182064  13.763  11.733   1.057
93389SOL    HW282065  13.792  11.586   1.035
93390SOL     OW82066   5.019   0.282   9.258
93390SOL    HW182067   4.953   0.344   9.287
93390SOL    HW282068   4.983   0.243   9.178
93391SOL     OW82069   9.160   7.264   7.198
93391SOL    HW182070   9.158   7.358   7.217
93391SOL    HW282071   9.135   7.258   7.106
93392SOL     OW82072  12.538   0.297  14.022
93392SOL    HW182073  12.500   0.215  14.053
93392SOL    HW282074  12.524   0.358  14.094
93393SOL     OW82075  14.056   4.476  13.174
93393SOL    HW182076  13.982   4.525  13.211
93393SOL    HW282077  14.022   4.442  13.091
93394SOL     OW82078   3.188  14.709  12.788
93394SOL    HW182079   3.198  14.702  12.693
93394SOL    HW282080   3.096  14.735  12.800
93395SOL     OW82081   2.270  11.968   8.419
93395SOL    HW182082   2.229  11.898   8.369
93395SOL    HW282083   2.216  11.978   8.497
93396SOL     OW82084  14.710  13.334  14.109
93396SOL    HW182085  14.734  13.271  14.042
93396SOL    HW282086  14.711  13.419  14.064
93397SOL     OW82087  13.180   0.994   3.101
93397SOL    HW182088  13.243   1.025   3.166
93397SOL    HW282089  13.100   0.979   3.152
93398SOL     OW82090  10.488   4.081   0.911
93398SOL    HW182091  10.506   4.004   0.965
93398SOL    HW282092  10.564   4.087   0.852
93399SOL     OW82093   2.670  10.428  11.539
93399SOL    HW182094   2.652  10.515  11.506
93399SOL    HW282095   2.600  10.373  11.504
93400SOL     OW82096  14.529   5.947  11.089
93400SOL    HW182097  14.435   5.952  11.105
93400SOL    HW282098  14.536   5.920  10.997
93401SOL     OW82099   1.846  13.057   5.659
93401SOL    HW182100   1.823  13.085   5.747
93401SOL    HW282101   1.938  13.033   5.665
93402SOL     OW82102   6.064   0.358  14.478
93402SOL    HW182103   6.051   0.453  14.479
93402SOL    HW282104   6.132   0.343  14.544
93403SOL     OW82105  14.464   0.281  10.137
93403SOL    HW182106  14.425   0.255  10.054
93403SOL    HW282107  14.410   0.238  10.204
93404SOL     OW82108   2.480   3.340  12.483
93404SOL    HW182109   2.469   3.339  12.388
93404SOL    HW282110   2.420   3.272  12.514
93405SOL     OW82111   0.394   4.661   4.611
93405SOL    HW182112   0.404   4.570   4.641
93405SOL    HW282113   0.339   4.653   4.532
93406SOL     OW82114   5.617   4.426  13.469
93406SOL    HW182115   5.546   4.368  13.441
93406SOL    HW282116   5.577   4.512  13.473
93407SOL     OW82117   3.656   8.414   8.838
93407SOL    HW182118   3.687   8.474   8.771
93407SOL    HW282119   3.682   8.455   8.921
93408SOL     OW82120   6.139   0.938  12.797
93408SOL    HW182121   6.151   0.889  12.878
93408SOL    HW282122   6.132   1.029  12.825
93409SOL     OW82123  10.958   5.156   1.000
93409SOL    HW182124  11.014   5.120   0.932
93409SOL    HW282125  10.877   5.106   0.994
93410SOL     OW82126   2.402   8.841  10.100
93410SOL    HW182127   2.407   8.784  10.177
93410SOL    HW282128   2.409   8.930  10.134
93411SOL     OW82129   2.389   0.674  11.563
93411SOL    HW182130   2.362   0.620  11.489
93411SOL    HW282131   2.481   0.695  11.546
93412SOL     OW82132  14.100  14.762   1.904
93412SOL    HW182133  14.171  14.826   1.895
93412SOL    HW282134  14.127  14.689   1.848
93413SOL     OW82135   1.774  12.212   5.442
93413SOL    HW182136   1.708  12.163   5.392
93413SOL    HW282137   1.800  12.152   5.511
93414SOL     OW82138   1.183   8.153  10.549
93414SOL    HW182139   1.199   8.120  10.638
93414SOL    HW282140   1.161   8.075  10.498
93415SOL     OW82141  13.019   4.615   5.959
93415SOL    HW182142  13.043   4.706   5.942
93415SOL    HW282143  12.992   4.614   6.051
93416SOL     OW82144   9.389   8.629   3.077
93416SOL    HW182145   9.353   8.667   3.157
93416SOL    HW282146   9.469   8.679   3.060
93417SOL     OW82147  14.733  10.623  11.095
93417SOL    HW182148  14.679  10.649  11.170
93417SOL    HW282149  14.678  10.562  11.046
93418SOL     OW82150   2.273   1.830  11.397
93418SOL    HW182151   2.290   1.890  11.324
93418SOL    HW282152   2.187   1.793  11.378
93419SOL     OW82153   7.639   7.718   5.825
93419SOL    HW182154   7.662   7.655   5.757
93419SOL    HW282155   7.718   7.726   5.878
93420SOL     OW82156  12.089  11.108   3.109
93420SOL    HW182157  12.117  11.058   3.186
93420SOL    HW282158  12.110  11.199   3.130
93421SOL     OW82159  12.112   5.740  11.390
93421SOL    HW182160  12.176   5.742  11.462
93421SOL    HW282161  12.100   5.647  11.371
93422SOL     OW82162   5.634  13.858  10.374
93422SOL    HW182163   5.683  13.939  10.386
93422SOL    HW282164   5.701  13.791  10.362
93423SOL     OW82165   2.632   0.725   6.640
93423SOL    HW182166   2.618   0.749   6.549
93423SOL    HW282167   2.558   0.667   6.661
93424SOL     OW82168   7.790   4.979   9.835
93424SOL    HW182169   7.760   5.070   9.844
93424SOL    HW282170   7.860   4.971   9.899
93425SOL     OW82171  14.038   2.507   6.661
93425SOL    HW182172  14.064   2.598   6.672
93425SOL    HW282173  14.119   2.457   6.667
93426SOL     OW82174  13.749  13.519  12.585
93426SOL    HW182175  13.656  13.512  12.610
93426SOL    HW282176  13.759  13.610  12.557
93427SOL     OW82177  13.552   1.139   0.882
93427SOL    HW182178  13.600   1.135   0.965
93427SOL    HW282179  13.524   1.049   0.866
93428SOL     OW82180   9.257   2.588   9.080
93428SOL    HW182181   9.197   2.566   9.152
93428SOL    HW282182   9.256   2.684   9.077
93429SOL     OW82183   7.713   0.473   0.900
93429SOL    HW182184   7.744   0.383   0.912
93429SOL    HW282185   7.697   0.505   0.989
93430SOL     OW82186  11.672   2.744   2.388
93430SOL    HW182187  11.681   2.787   2.473
93430SOL    HW282188  11.657   2.652   2.409
93431SOL     OW82189  10.350   3.390   5.449
93431SOL    HW182190  10.370   3.376   5.541
93431SOL    HW282191  10.328   3.303   5.415
93432SOL     OW82192  12.589  14.391   5.099
93432SOL    HW182193  12.628  14.371   5.013
93432SOL    HW282194  12.623  14.479   5.120
93433SOL     OW82195   8.284   3.506   0.505
93433SOL    HW182196   8.281   3.481   0.598
93433SOL    HW282197   8.367   3.553   0.495
93434SOL     OW82198  12.245   9.054  10.076
93434SOL    HW182199  12.291   8.991  10.021
93434SOL    HW282200  12.196   9.001  10.138
93435SOL     OW82201   3.861   0.216  11.351
93435SOL    HW182202   3.934   0.154  11.343
93435SOL    HW282203   3.810   0.183  11.424
93436SOL     OW82204   3.246   1.097   8.836
93436SOL    HW182205   3.242   1.097   8.740
93436SOL    HW282206   3.304   1.024   8.858
93437SOL     OW82207   3.708  10.906  11.425
93437SOL    HW182208   3.735  10.883  11.514
93437SOL    HW282209   3.623  10.862  11.414
93438SOL     OW82210   6.321   5.826   3.469
93438SOL    HW182211   6.325   5.772   3.548
93438SOL    HW282212   6.282   5.769   3.403
93439SOL     OW82213  13.793   1.552   1.961
93439SOL    HW182214  13.867   1.576   2.016
93439SOL    HW282215  13.780   1.459   1.978
93440SOL     OW82216   5.625   9.066   2.912
93440SOL    HW182217   5.630   9.157   2.942
93440SOL    HW282218   5.557   9.027   2.967
93441SOL     OW82219  11.635  11.410   0.343
93441SOL    HW182220  11.633  11.315   0.334
93441SOL    HW282221  11.548  11.438   0.312
93442SOL     OW82222  11.914   3.536  10.938
93442SOL    HW182223  12.006   3.525  10.915
93442SOL    HW282224  11.886   3.614  10.889
93443SOL     OW82225   7.589   3.341   4.895
93443SOL    HW182226   7.532   3.273   4.858
93443SOL    HW282227   7.663   3.292   4.932
93444SOL     OW82228  14.877  14.093   3.752
93444SOL    HW182229   0.079  14.124   3.787
93444SOL    HW282230  14.817  14.165   3.768
93445SOL     OW82231   2.181   6.121   9.382
93445SOL    HW182232   2.132   6.053   9.336
93445SOL    HW282233   2.193   6.191   9.318
93446SOL     OW82234  12.886   7.973  14.362
93446SOL    HW182235  12.791   7.974  14.374
93446SOL    HW282236  12.920   8.020  14.438
93447SOL     OW82237   7.618   1.711   5.129
93447SOL    HW182238   7.636   1.804   5.120
93447SOL    HW282239   7.621   1.695   5.223
93448SOL     OW82240  10.983   6.628   2.933
93448SOL    HW182241  10.924   6.554   2.946
93448SOL    HW282242  11.003   6.627   2.839
93449SOL     OW82243   9.001   5.167   1.543
93449SOL    HW182244   9.087   5.196   1.574
93449SOL    HW282245   8.938   5.219   1.594
93450SOL     OW82246   2.783   1.893   3.177
93450SOL    HW182247   2.767   1.839   3.255
93450SOL    HW282248   2.696   1.905   3.139
93451SOL     OW82249  11.209   0.148  13.643
93451SOL    HW182250  11.158   0.067  13.650
93451SOL    HW282251  11.295   0.126  13.677
93452SOL     OW82252  10.959   9.590   6.439
93452SOL    HW182253  10.916   9.628   6.362
93452SOL    HW282254  10.889   9.542   6.484
93453SOL     OW82255   3.436  13.185  10.487
93453SOL    HW182256   3.385  13.232  10.421
93453SOL    HW282257   3.521  13.171  10.446
93454SOL     OW82258   8.761  12.666  11.044
93454SOL    HW182259   8.764  12.602  11.115
93454SOL    HW282260   8.834  12.726  11.062
93455SOL     OW82261  11.819   7.801  13.682
93455SOL    HW182262  11.875   7.822  13.608
93455SOL    HW282263  11.829   7.707  13.695
93456SOL     OW82264   2.789   6.189   5.039
93456SOL    HW182265   2.742   6.151   4.965
93456SOL    HW282266   2.853   6.248   4.999
93457SOL     OW82267   0.369   2.187   5.300
93457SOL    HW182268   0.300   2.250   5.320
93457SOL    HW282269   0.440   2.209   5.360
93458SOL     OW82270   4.445   8.816   8.603
93458SOL    HW182271   4.527   8.767   8.609
93458SOL    HW282272   4.451   8.863   8.520
93459SOL     OW82273   2.347   1.853   1.112
93459SOL    HW182274   2.280   1.791   1.084
93459SOL    HW282275   2.334   1.861   1.207
93460SOL     OW82276   6.941   8.179   0.750
93460SOL    HW182277   6.940   8.235   0.827
93460SOL    HW282278   6.849   8.174   0.723
93461SOL     OW82279   5.835   1.853  11.806
93461SOL    HW182280   5.900   1.923  11.808
93461SOL    HW282281   5.858   1.802  11.728
93462SOL     OW82282   8.326   6.523   2.823
93462SOL    HW182283   8.271   6.555   2.751
93462SOL    HW282284   8.309   6.584   2.895
93463SOL     OW82285   3.960   3.029  14.165
93463SOL    HW182286   4.030   3.025  14.230
93463SOL    HW282287   3.989   3.097  14.104
93464SOL     OW82288   6.644  12.298   5.849
93464SOL    HW182289   6.654  12.391   5.870
93464SOL    HW282290   6.549  12.282   5.856
93465SOL     OW82291   5.617   9.368  14.860
93465SOL    HW182292   5.563   9.425  14.806
93465SOL    HW282293   5.564   9.290  14.874
93466SOL     OW82294   6.284  13.552   3.695
93466SOL    HW182295   6.227  13.621   3.662
93466SOL    HW282296   6.307  13.500   3.618
93467SOL     OW82297   1.671   9.880   8.448
93467SOL    HW182298   1.745   9.832   8.410
93467SOL    HW282299   1.689   9.880   8.542
93468SOL     OW82300   6.888  11.188   2.421
93468SOL    HW182301   6.806  11.185   2.371
93468SOL    HW282302   6.912  11.097   2.434
93469SOL     OW82303   6.314   3.007  10.598
93469SOL    HW182304   6.348   3.083  10.550
93469SOL    HW282305   6.391   2.952  10.613
93470SOL     OW82306   0.962   5.601   3.961
93470SOL    HW182307   1.057   5.596   3.975
93470SOL    HW282308   0.935   5.511   3.947
93471SOL     OW82309   2.710  11.913   3.842
93471SOL    HW182310   2.629  11.863   3.841
93471SOL    HW282311   2.731  11.923   3.935
93472SOL     OW82312  13.682   2.957  14.457
93472SOL    HW182313  13.685   2.908  14.376
93472SOL    HW282314  13.748   3.026  14.446
93473SOL     OW82315  12.166   4.571   8.487
93473SOL    HW182316  12.118   4.606   8.412
93473SOL    HW282317  12.100   4.525   8.539
93474SOL     OW82318   2.343   6.168   0.686
93474SOL    HW182319   2.343   6.219   0.605
93474SOL    HW282320   2.430   6.128   0.690
93475SOL     OW82321  11.949   0.049   8.081
93475SOL    HW182322  11.985  14.857   8.033
93475SOL    HW282323  11.941   0.018   8.171
93476SOL     OW82324  11.628   9.150  10.632
93476SOL    HW182325  11.591   9.156  10.720
93476SOL    HW282326  11.596   9.229  10.588
93477SOL     OW82327   9.199   4.931   6.816
93477SOL    HW182328   9.172   4.840   6.805
93477SOL    HW282329   9.285   4.925   6.859
93478SOL     OW82330  13.696  13.775   1.969
93478SOL    HW182331  13.610  13.750   1.935
93478SOL    HW282332  13.713  13.860   1.929
93479SOL     OW82333   9.354  14.686   8.440
93479SOL    HW182334   9.328  14.769   8.479
93479SOL    HW282335   9.311  14.685   8.354
93480SOL     OW82336   4.543   9.148   2.565
93480SOL    HW182337   4.561   9.174   2.474
93480SOL    HW282338   4.448   9.155   2.573
93481SOL     OW82339   1.935   6.258   6.037
93481SOL    HW182340   1.926   6.352   6.050
93481SOL    HW282341   1.896   6.242   5.951
93482SOL     OW82342   6.509   3.677  11.108
93482SOL    HW182343   6.513   3.738  11.181
93482SOL    HW282344   6.464   3.600  11.144
93483SOL     OW82345   2.171   0.478   3.336
93483SOL    HW182346   2.082   0.509   3.318
93483SOL    HW282347   2.180   0.399   3.282
93484SOL     OW82348   5.203   9.869  11.140
93484SOL    HW182349   5.268   9.850  11.208
93484SOL    HW282350   5.197   9.964  11.138
93485SOL     OW82351  10.997  12.017   5.110
93485SOL    HW182352  10.972  11.957   5.179
93485SOL    HW282353  10.995  11.964   5.030
93486SOL     OW82354  10.044   7.044   4.279
93486SOL    HW182355  10.012   6.967   4.231
93486SOL    HW282356  10.058   7.013   4.368
93487SOL     OW82357   4.116  11.282  13.199
93487SOL    HW182358   4.208  11.299  13.222
93487SOL    HW282359   4.119  11.245  13.111
93488SOL     OW82360   5.577  14.484   9.320
93488SOL    HW182361   5.511  14.468   9.253
93488SOL    HW282362   5.553  14.569   9.357
93489SOL     OW82363   9.966   9.943  13.241
93489SOL    HW182364   9.996   9.865  13.287
93489SOL    HW282365  10.045   9.976  13.197
93490SOL     OW82366   1.097   7.996   2.023
93490SOL    HW182367   1.019   8.011   1.969
93490SOL    HW282368   1.071   7.927   2.084
93491SOL     OW82369   3.583   5.628   1.083
93491SOL    HW182370   3.494   5.631   1.048
93491SOL    HW282371   3.572   5.640   1.177
93492SOL     OW82372  14.421  13.674   9.316
93492SOL    HW182373  14.441  13.626   9.396
93492SOL    HW282374  14.337  13.638   9.287
93493SOL     OW82375   0.794   6.804  14.244
93493SOL    HW182376   0.857   6.753  14.295
93493SOL    HW282377   0.846   6.844  14.174
93494SOL     OW82378   9.118   0.789  12.553
93494SOL    HW182379   9.127   0.695  12.571
93494SOL    HW282380   9.027   0.799  12.525
93495SOL     OW82381   6.979  14.721  12.485
93495SOL    HW182382   6.946  14.795  12.536
93495SOL    HW282383   6.917  14.713  12.413
93496SOL     OW82384  12.880  11.354   5.187
93496SOL    HW182385  12.854  11.371   5.277
93496SOL    HW282386  12.875  11.439   5.143
93497SOL     OW82387   8.136   8.086   5.674
93497SOL    HW182388   8.165   8.059   5.761
93497SOL    HW282389   8.055   8.134   5.691
93498SOL     OW82390   5.703  12.923  11.367
93498SOL    HW182391   5.751  12.870  11.431
93498SOL    HW282392   5.613  12.926  11.401
93499SOL     OW82393   9.064   8.866   3.011
93499SOL    HW182394   9.061   8.773   2.990
93499SOL    HW282395   8.993   8.879   3.073
93500SOL     OW82396   9.105   7.779  14.581
93500SOL    HW182397   9.123   7.797  14.673
93500SOL    HW282398   9.189   7.789  14.537
93501SOL     OW82399   6.073   6.715  11.858
93501SOL    HW182400   6.054   6.739  11.949
93501SOL    HW282401   6.166   6.736  11.847
93502SOL     OW82402  13.049   1.319   8.256
93502SOL    HW182403  13.033   1.245   8.197
93502SOL    HW282404  12.970   1.373   8.248
93503SOL     OW82405   7.531   4.008   3.275
93503SOL    HW182406   7.623   3.987   3.288
93503SOL    HW282407   7.490   3.925   3.250
93504SOL     OW82408   5.124   9.668   1.839
93504SOL    HW182409   5.189   9.598   1.849
93504SOL    HW282410   5.111   9.702   1.927
93505SOL     OW82411   9.812  11.014   9.006
93505SOL    HW182412   9.844  11.088   8.954
93505SOL    HW282413   9.811  10.940   8.944
93506SOL     OW82414   9.430   8.049   4.792
93506SOL    HW182415   9.357   8.109   4.802
93506SOL    HW282416   9.507   8.106   4.787
93507SOL     OW82417   8.953   3.230   2.888
93507SOL    HW182418   8.952   3.214   2.793
93507SOL    HW282419   8.909   3.314   2.898
93508SOL     OW82420   0.261   3.845   4.183
93508SOL    HW182421   0.252   3.880   4.272
93508SOL    HW282422   0.354   3.852   4.164
93509SOL     OW82423   2.043   7.218  12.848
93509SOL    HW182424   1.963   7.262  12.876
93509SOL    HW282425   2.095   7.286  12.805
93510SOL     OW82426   2.274   1.966  11.103
93510SOL    HW182427   2.331   1.889  11.093
93510SOL    HW282428   2.328   2.029  11.152
93511SOL     OW82429  12.241  14.041  11.300
93511SOL    HW182430  12.180  14.110  11.327
93511SOL    HW282431  12.198  13.959  11.325
93512SOL     OW82432   1.768   7.710  10.014
93512SOL    HW182433   1.777   7.795   9.971
93512SOL    HW282434   1.775   7.646   9.943
93513SOL     OW82435   6.345   9.048  10.476
93513SOL    HW182436   6.261   9.015  10.444
93513SOL    HW282437   6.321   9.122  10.533
93514SOL     OW82438   1.049   3.281   5.434
93514SOL    HW182439   1.054   3.309   5.526
93514SOL    HW282440   1.037   3.362   5.385
93515SOL     OW82441  14.750  11.464   8.149
93515SOL    HW182442  14.802  11.385   8.165
93515SOL    HW282443  14.764  11.518   8.227
93516SOL     OW82444   1.752   8.879  10.798
93516SOL    HW182445   1.768   8.795  10.842
93516SOL    HW282446   1.686   8.921  10.852
93517SOL     OW82447   3.841   1.296  12.061
93517SOL    HW182448   3.935   1.283  12.076
93517SOL    HW282449   3.834   1.319  11.969
93518SOL     OW82450   2.664   3.575   8.735
93518SOL    HW182451   2.618   3.632   8.797
93518SOL    HW282452   2.667   3.490   8.779
93519SOL     OW82453   6.981   2.179  14.659
93519SOL    HW182454   7.027   2.252  14.701
93519SOL    HW282455   6.895   2.216  14.636
93520SOL     OW82456   3.073   9.766   2.490
93520SOL    HW182457   3.013   9.791   2.559
93520SOL    HW282458   3.118   9.848   2.467
93521SOL     OW82459   0.991   9.490   0.313
93521SOL    HW182460   0.922   9.513   0.250
93521SOL    HW282461   0.945   9.484   0.397
93522SOL     OW82462  12.186   9.793   3.751
93522SOL    HW182463  12.191   9.832   3.664
93522SOL    HW282464  12.117   9.727   3.744
93523SOL     OW82465   1.708   3.544   4.710
93523SOL    HW182466   1.734   3.452   4.718
93523SOL    HW282467   1.742   3.586   4.789
93524SOL     OW82468   8.767  11.357   1.015
93524SOL    HW182469   8.837  11.406   1.058
93524SOL    HW282470   8.757  11.399   0.930
93525SOL     OW82471   1.230   9.678   3.628
93525SOL    HW182472   1.168   9.621   3.674
93525SOL    HW282473   1.204   9.767   3.652
93526SOL     OW82474  12.319  14.787   7.676
93526SOL    HW182475  12.317  14.760   7.767
93526SOL    HW282476  12.265  14.722   7.630
93527SOL     OW82477   8.490   7.630   5.769
93527SOL    HW182478   8.453   7.671   5.847
93527SOL    HW282479   8.487   7.699   5.702
93528SOL     OW82480   3.136   6.042  13.286
93528SOL    HW182481   3.082   6.052  13.364
93528SOL    HW282482   3.120   5.952  13.257
93529SOL     OW82483   9.783   6.086   0.959
93529SOL    HW182484   9.771   6.005   0.910
93529SOL    HW282485   9.698   6.103   0.999
93530SOL     OW82486  11.824  12.588   8.415
93530SOL    HW182487  11.732  12.569   8.395
93530SOL    HW282488  11.833  12.568   8.508
93531SOL     OW82489  14.553   5.297  14.664
93531SOL    HW182490  14.479   5.296  14.604
93531SOL    HW282491  14.567   5.389  14.685
93532SOL     OW82492   0.712  10.601   6.123
93532SOL    HW182493   0.768  10.661   6.173
93532SOL    HW282494   0.771  10.558   6.062
93533SOL     OW82495   7.846   4.772   6.658
93533SOL    HW182496   7.816   4.693   6.615
93533SOL    HW282497   7.879   4.827   6.587
93534SOL     OW82498   5.847   9.418   2.130
93534SOL    HW182499   5.914   9.486   2.122
93534SOL    HW282500   5.874   9.367   2.206
93535SOL     OW82501   7.777   8.908   5.844
93535SOL    HW182502   7.831   8.987   5.851
93535SOL    HW282503   7.835   8.844   5.804
93536SOL     OW82504   4.354   4.834   0.721
93536SOL    HW182505   4.361   4.914   0.669
93536SOL    HW282506   4.261   4.829   0.744
93537SOL     OW82507   5.798   3.672   9.805
93537SOL    HW182508   5.876   3.679   9.750
93537SOL    HW282509   5.745   3.604   9.762
93538SOL     OW82510   0.657  13.629   7.416
93538SOL    HW182511   0.641  13.700   7.478
93538SOL    HW282512   0.753  13.625   7.408
93539SOL     OW82513   1.879   1.686  11.579
93539SOL    HW182514   1.970   1.658  11.593
93539SOL    HW282515   1.842   1.692  11.667
93540SOL     OW82516  12.854   9.450   7.091
93540SOL    HW182517  12.939   9.440   7.133
93540SOL    HW282518  12.804   9.374   7.119
93541SOL     OW82519  12.728  11.854  10.023
93541SOL    HW182520  12.673  11.932  10.020
93541SOL    HW282521  12.672  11.784   9.988
93542SOL     OW82522   8.985   5.758  14.289
93542SOL    HW182523   9.063   5.774  14.235
93542SOL    HW282524   8.926   5.830  14.268
93543SOL     OW82525   6.426   6.118   3.995
93543SOL    HW182526   6.429   6.110   3.899
93543SOL    HW282527   6.343   6.162   4.012
93544SOL     OW82528   0.708  11.281  13.884
93544SOL    HW182529   0.786  11.241  13.924
93544SOL    HW282530   0.714  11.373  13.908
93545SOL     OW82531  11.352  10.447   0.916
93545SOL    HW182532  11.307  10.499   0.849
93545SOL    HW282533  11.359  10.506   0.991
93546SOL     OW82534   6.970  11.907   2.669
93546SOL    HW182535   6.895  11.966   2.680
93546SOL    HW282536   7.037  11.943   2.728
93547SOL     OW82537   8.605  14.630   0.359
93547SOL    HW182538   8.663  14.622   0.434
93547SOL    HW282539   8.619  14.720   0.327
93548SOL     OW82540   4.775  11.756   3.674
93548SOL    HW182541   4.693  11.706   3.676
93548SOL    HW282542   4.788  11.786   3.764
93549SOL     OW82543   3.564   1.015   1.161
93549SOL    HW182544   3.545   1.034   1.069
93549SOL    HW282545   3.572   1.102   1.202
93550SOL     OW82546   5.227   7.310   7.413
93550SOL    HW182547   5.286   7.384   7.420
93550SOL    HW282548   5.250   7.270   7.329
93551SOL     OW82549  10.375   1.560   9.218
93551SOL    HW182550  10.401   1.651   9.227
93551SOL    HW282551  10.292   1.563   9.170
93552SOL     OW82552   7.370  14.266   6.355
93552SOL    HW182553   7.425  14.331   6.399
93552SOL    HW282554   7.420  14.184   6.360
93553SOL     OW82555   3.897   1.585   3.283
93553SOL    HW182556   3.811   1.618   3.257
93553SOL    HW282557   3.888   1.490   3.278
93554SOL     OW82558  10.879   3.092   1.877
93554SOL    HW182559  10.935   3.039   1.820
93554SOL    HW282560  10.923   3.177   1.882
93555SOL     OW82561   1.779   4.077   4.565
93555SOL    HW182562   1.799   3.993   4.524
93555SOL    HW282563   1.705   4.059   4.623
93556SOL     OW82564  14.381   2.767   7.761
93556SOL    HW182565  14.439   2.755   7.685
93556SOL    HW282566  14.361   2.860   7.762
93557SOL     OW82567  11.446   7.515  12.766
93557SOL    HW182568  11.433   7.452  12.696
93557SOL    HW282569  11.538   7.541  12.758
93558SOL     OW82570   3.664   1.333   6.662
93558SOL    HW182571   3.685   1.337   6.755
93558SOL    HW282572   3.602   1.260   6.655
93559SOL     OW82573   2.007   0.565  13.617
93559SOL    HW182574   2.092   0.590  13.652
93559SOL    HW282575   1.970   0.646  13.583
93560SOL     OW82576   2.429   9.680  14.583
93560SOL    HW182577   2.478   9.731  14.647
93560SOL    HW282578   2.496   9.625  14.541
93561SOL     OW82579  11.321   2.441   2.904
93561SOL    HW182580  11.260   2.515   2.913
93561SOL    HW282581  11.264   2.367   2.882
93562SOL     OW82582   5.722   6.227   6.424
93562SOL    HW182583   5.757   6.175   6.352
93562SOL    HW282584   5.640   6.264   6.390
93563SOL     OW82585  13.927   6.325   2.365
93563SOL    HW182586  13.918   6.241   2.411
93563SOL    HW282587  14.021   6.334   2.351
93564SOL     OW82588   4.098  13.202  11.776
93564SOL    HW182589   4.044  13.264  11.727
93564SOL    HW282590   4.040  13.171  11.846
93565SOL     OW82591  13.022   7.368  13.152
93565SOL    HW182592  13.116   7.364  13.166
93565SOL    HW282593  13.011   7.428  13.079
93566SOL     OW82594   0.467   6.980  12.701
93566SOL    HW182595   0.423   6.926  12.766
93566SOL    HW282596   0.524   6.919  12.654
93567SOL     OW82597   6.869   2.974   9.920
93567SOL    HW182598   6.964   2.970   9.928
93567SOL    HW282599   6.837   2.971  10.010
93568SOL     OW82600  12.109   7.862   7.811
93568SOL    HW182601  12.141   7.858   7.901
93568SOL    HW282602  12.025   7.908   7.818
93569SOL     OW82603  10.678   3.115   8.815
93569SOL    HW182604  10.761   3.073   8.839
93569SOL    HW282605  10.689   3.138   8.723
93570SOL     OW82606   5.325   1.270  12.743
93570SOL    HW182607   5.381   1.348  12.750
93570SOL    HW282608   5.381   1.198  12.772
93571SOL     OW82609  10.188   8.344   5.803
93571SOL    HW182610  10.189   8.425   5.855
93571SOL    HW282611  10.116   8.293   5.838
93572SOL     OW82612  14.487   1.185  13.124
93572SOL    HW182613  14.484   1.179  13.220
93572SOL    HW282614  14.399   1.216  13.100
93573SOL     OW82615   5.351   0.178   1.179
93573SOL    HW182616   5.353   0.139   1.092
93573SOL    HW282617   5.261   0.208   1.189
93574SOL     OW82618  11.255   4.715  14.292
93574SOL    HW182619  11.178   4.698  14.347
93574SOL    HW282620  11.300   4.631  14.288
93575SOL     OW82621   6.835   1.204   6.222
93575SOL    HW182622   6.762   1.265   6.215
93575SOL    HW282623   6.809   1.129   6.169
93576SOL     OW82624   3.908  11.772   8.317
93576SOL    HW182625   3.934  11.701   8.258
93576SOL    HW282626   3.881  11.843   8.258
93577SOL     OW82627   4.966   2.168   8.443
93577SOL    HW182628   4.888   2.113   8.436
93577SOL    HW282629   4.933   2.252   8.476
93578SOL     OW82630  13.571  10.798   2.506
93578SOL    HW182631  13.587  10.726   2.445
93578SOL    HW282632  13.485  10.831   2.483
93579SOL     OW82633   9.996   1.744  14.755
93579SOL    HW182634  10.031   1.795  14.828
93579SOL    HW282635  10.034   1.657  14.766
93580SOL     OW82636   0.803  13.760   0.650
93580SOL    HW182637   0.728  13.714   0.689
93580SOL    HW282638   0.865  13.770   0.722
93581SOL     OW82639   0.273   4.144   5.089
93581SOL    HW182640   0.276   4.180   5.000
93581SOL    HW282641   0.188   4.101   5.094
93582SOL     OW82642   6.793   9.884   5.619
93582SOL    HW182643   6.860   9.901   5.554
93582SOL    HW282644   6.792   9.962   5.674
93583SOL     OW82645  10.253   2.971   9.861
93583SOL    HW182646  10.257   3.045   9.801
93583SOL    HW282647  10.239   3.012   9.947
93584SOL     OW82648   1.039   2.630  14.740
93584SOL    HW182649   1.022   2.676  14.657
93584SOL    HW282650   0.953   2.626  14.782
93585SOL     OW82651  14.815   0.407  11.483
93585SOL    HW182652  14.741   0.346  11.486
93585SOL    HW282653  14.879   0.371  11.544
93586SOL     OW82654   7.784   4.321  14.528
93586SOL    HW182655   7.717   4.389  14.529
93586SOL    HW282656   7.739   4.242  14.560
93587SOL     OW82657  14.492  13.896   2.779
93587SOL    HW182658  14.475  13.879   2.686
93587SOL    HW282659  14.474  13.812   2.822
93588SOL     OW82660   8.325   4.154   5.207
93588SOL    HW182661   8.252   4.100   5.176
93588SOL    HW282662   8.395   4.136   5.145
93589SOL     OW82663   0.885  12.225  10.842
93589SOL    HW182664   0.908  12.198  10.931
93589SOL    HW282665   0.968  12.255  10.804
93590SOL     OW82666   3.183   6.537   0.695
93590SOL    HW182667   3.105   6.569   0.741
93590SOL    HW282668   3.162   6.549   0.603
93591SOL     OW82669   3.946   4.936   3.046
93591SOL    HW182670   3.866   4.924   2.995
93591SOL    HW282671   4.000   4.859   3.026
93592SOL     OW82672  12.948   9.039   2.224
93592SOL    HW182673  13.019   8.980   2.251
93592SOL    HW282674  12.974   9.125   2.257
93593SOL     OW82675  13.545  10.446  13.403
93593SOL    HW182676  13.580  10.532  13.381
93593SOL    HW282677  13.621  10.387  13.399
93594SOL     OW82678  14.793   5.361  14.196
93594SOL    HW182679   0.005   5.348  14.181
93594SOL    HW282680  14.751   5.329  14.116
93595SOL     OW82681  11.193  11.216   7.894
93595SOL    HW182682  11.176  11.142   7.953
93595SOL    HW282683  11.193  11.178   7.806
93596SOL     OW82684  12.742   4.477   6.406
93596SOL    HW182685  12.714   4.413   6.471
93596SOL    HW282686  12.669   4.483   6.345
93597SOL     OW82687   7.977   7.714   8.474
93597SOL    HW182688   8.068   7.702   8.502
93597SOL    HW282689   7.982   7.778   8.403
93598SOL     OW82690   8.354   9.702   3.302
93598SOL    HW182691   8.284   9.701   3.237
93598SOL    HW282692   8.365   9.610   3.327
93599SOL     OW82693   9.504  13.141   5.084
93599SOL    HW182694   9.466  13.099   5.007
93599SOL    HW282695   9.584  13.092   5.101
93600SOL     OW82696  13.580   0.899  11.684
93600SOL    HW182697  13.596   0.816  11.730
93600SOL    HW282698  13.665   0.922  11.646
93601SOL     OW82699   8.578   4.815   1.602
93601SOL    HW182700   8.662   4.768   1.604
93601SOL    HW282701   8.550   4.818   1.693
93602SOL     OW82702  12.633   6.852   4.452
93602SOL    HW182703  12.646   6.841   4.546
93602SOL    HW282704  12.676   6.776   4.412
93603SOL     OW82705   1.940  12.617  13.874
93603SOL    HW182706   2.018  12.585  13.918
93603SOL    HW282707   1.907  12.543  13.824
93604SOL     OW82708  12.897  14.818   1.880
93604SOL    HW182709  12.934  14.835   1.793
93604SOL    HW282710  12.831   0.004   1.892
93605SOL     OW82711   2.738  12.398  14.538
93605SOL    HW182712   2.800  12.467  14.514
93605SOL    HW282713   2.686  12.384  14.458
93606SOL     OW82714   1.255  12.543   9.177
93606SOL    HW182715   1.250  12.456   9.136
93606SOL    HW282716   1.173  12.586   9.151
93607SOL     OW82717   3.373   1.658   4.822
93607SOL    HW182718   3.455   1.705   4.841
93607SOL    HW282719   3.347   1.621   4.906
93608SOL     OW82720   4.044   1.732   5.664
93608SOL    HW182721   4.055   1.785   5.743
93608SOL    HW282722   3.961   1.763   5.627
93609SOL     OW82723  11.218   5.631   1.088
93609SOL    HW182724  11.192   5.707   1.035
93609SOL    HW282725  11.187   5.556   1.038
93610SOL     OW82726  11.328   7.302   4.906
93610SOL    HW182727  11.351   7.386   4.945
93610SOL    HW282728  11.410   7.252   4.908
93611SOL     OW82729   2.038   3.729   0.418
93611SOL    HW182730   2.018   3.761   0.506
93611SOL    HW282731   2.015   3.802   0.360
93612SOL     OW82732   6.891   8.131   2.533
93612SOL    HW182733   6.819   8.086   2.577
93612SOL    HW282734   6.950   8.061   2.505
93613SOL     OW82735   6.027  11.658   1.587
93613SOL    HW182736   5.975  11.705   1.522
93613SOL    HW282737   6.088  11.606   1.536
93614SOL     OW82738  14.051   8.213  13.834
93614SOL    HW182739  14.108   8.267  13.888
93614SOL    HW282740  13.994   8.168  13.897
93615SOL     OW82741   1.135   3.731  14.591
93615SOL    HW182742   1.056   3.731  14.645
93615SOL    HW282743   1.206   3.714  14.653
93616SOL     OW82744  10.921  14.312   3.312
93616SOL    HW182745  10.916  14.384   3.250
93616SOL    HW282746  10.892  14.235   3.263
93617SOL     OW82747   0.582  14.303   9.287
93617SOL    HW182748   0.552  14.276   9.200
93617SOL    HW282749   0.562  14.227   9.343
93618SOL     OW82750   8.120   5.820   2.652
93618SOL    HW182751   8.119   5.725   2.669
93618SOL    HW282752   8.212   5.843   2.654
93619SOL     OW82753   5.074   3.546  11.144
93619SOL    HW182754   5.018   3.596  11.203
93619SOL    HW282755   5.070   3.456  11.177
93620SOL     OW82756   1.836  12.095   7.012
93620SOL    HW182757   1.874  12.163   6.956
93620SOL    HW282758   1.753  12.132   7.041
93621SOL     OW82759   0.627   6.097   5.874
93621SOL    HW182760   0.635   6.028   5.940
93621SOL    HW282761   0.558   6.154   5.907
93622SOL     OW82762  14.134  14.841   1.079
93622SOL    HW182763  14.164  14.767   1.132
93622SOL    HW282764  14.038  14.834   1.080
93623SOL     OW82765   1.318   9.445   0.084
93623SOL    HW182766   1.275   9.432   0.168
93623SOL    HW282767   1.368   9.364   0.071
93624SOL     OW82768  12.546   3.344  13.947
93624SOL    HW182769  12.572   3.262  13.988
93624SOL    HW282770  12.598   3.411  13.992
93625SOL     OW82771  13.362   4.188   5.009
93625SOL    HW182772  13.361   4.101   5.049
93625SOL    HW282773  13.455   4.208   4.999
93626SOL     OW82774   0.577   2.986   6.021
93626SOL    HW182775   0.607   3.027   6.102
93626SOL    HW282776   0.642   2.918   6.003
93627SOL     OW82777  13.745   0.710   0.473
93627SOL    HW182778  13.681   0.666   0.529
93627SOL    HW282779  13.827   0.705   0.521
93628SOL     OW82780   0.045   0.467   3.252
93628SOL    HW182781   0.102   0.392   3.237
93628SOL    HW282782   0.034   0.506   3.165
93629SOL     OW82783  10.612   0.742   1.951
93629SOL    HW182784  10.585   0.833   1.938
93629SOL    HW282785  10.578   0.696   1.875
93630SOL     OW82786  13.778   2.192   3.484
93630SOL    HW182787  13.806   2.109   3.443
93630SOL    HW282788  13.718   2.165   3.554
93631SOL     OW82789   7.072   8.617   2.185
93631SOL    HW182790   6.982   8.595   2.163
93631SOL    HW282791   7.065   8.687   2.250
93632SOL     OW82792   0.203   1.462   3.303
93632SOL    HW182793   0.166   1.522   3.239
93632SOL    HW282794   0.154   1.380   3.290
93633SOL     OW82795  14.373   8.002   6.148
93633SOL    HW182796  14.326   8.048   6.079
93633SOL    HW282797  14.304   7.967   6.205
93634SOL     OW82798   4.465   6.358   8.049
93634SOL    HW182799   4.372   6.379   8.037
93634SOL    HW282800   4.491   6.315   7.967
93635SOL     OW82801   0.611   7.491   4.398
93635SOL    HW182802   0.692   7.540   4.384
93635SOL    HW282803   0.553   7.553   4.442
93636SOL     OW82804   1.289   0.255   2.057
93636SOL    HW182805   1.207   0.208   2.069
93636SOL    HW282806   1.269   0.345   2.082
93637SOL     OW82807   4.495   2.537   3.402
93637SOL    HW182808   4.497   2.446   3.433
93637SOL    HW282809   4.584   2.569   3.415
93638SOL     OW82810   4.426   3.772   0.777
93638SOL    HW182811   4.375   3.758   0.697
93638SOL    HW282812   4.509   3.809   0.746
93639SOL     OW82813  12.936   7.843   7.237
93639SOL    HW182814  12.977   7.881   7.315
93639SOL    HW282815  12.900   7.759   7.267
93640SOL     OW82816   7.769   2.292   9.912
93640SOL    HW182817   7.715   2.318   9.987
93640SOL    HW282818   7.856   2.327   9.931
93641SOL     OW82819   5.255  12.320   0.812
93641SOL    HW182820   5.219  12.258   0.875
93641SOL    HW282821   5.206  12.400   0.825
93642SOL     OW82822   7.741   3.982   8.036
93642SOL    HW182823   7.832   3.954   8.041
93642SOL    HW282824   7.745   4.070   7.998
93643SOL     OW82825  12.061  14.645  12.868
93643SOL    HW182826  11.994  14.712  12.852
93643SOL    HW282827  12.042  14.614  12.957
93644SOL     OW82828  13.212   3.074  10.696
93644SOL    HW182829  13.118   3.060  10.682
93644SOL    HW282830  13.229   3.161  10.659
93645SOL     OW82831  13.012   9.419   4.661
93645SOL    HW182832  13.094   9.371   4.651
93645SOL    HW282833  13.039   9.508   4.685
93646SOL     OW82834   5.871   8.508  10.528
93646SOL    HW182835   5.957   8.547  10.513
93646SOL    HW282836   5.875   8.424  10.481
93647SOL     OW82837   6.367   1.611  14.000
93647SOL    HW182838   6.382   1.593  14.093
93647SOL    HW282839   6.297   1.551  13.975
93648SOL     OW82840  10.437  13.315   4.544
93648SOL    HW182841  10.349  13.278   4.548
93648SOL    HW282842  10.482  13.263   4.478
93649SOL     OW82843   6.436  12.369   5.424
93649SOL    HW182844   6.359  12.324   5.390
93649SOL    HW282845   6.498  12.368   5.351
93650SOL     OW82846   4.898   8.327   4.010
93650SOL    HW182847   4.883   8.416   4.044
93650SOL    HW282848   4.954   8.339   3.934
93651SOL     OW82849  13.181  10.106   5.052
93651SOL    HW182850  13.155  10.038   4.989
93651SOL    HW282851  13.109  10.169   5.049
93652SOL     OW82852   0.972  11.651  10.460
93652SOL    HW182853   0.900  11.713  10.472
93652SOL    HW282854   0.933  11.565  10.472
93653SOL     OW82855   8.377  11.672  14.207
93653SOL    HW182856   8.312  11.608  14.238
93653SOL    HW282857   8.368  11.670  14.112
93654SOL     OW82858   8.267   4.756  13.794
93654SOL    HW182859   8.295   4.844  13.766
93654SOL    HW282860   8.253   4.708  13.712
93655SOL     OW82861  10.551   3.465   7.859
93655SOL    HW182862  10.634   3.418   7.862
93655SOL    HW282863  10.519   3.453   7.770
93656SOL     OW82864  14.809  14.790   7.540
93656SOL    HW182865  14.817   0.003   7.540
93656SOL    HW282866  14.854  14.762   7.460
93657SOL     OW82867   2.548   8.156   8.602
93657SOL    HW182868   2.636   8.191   8.613
93657SOL    HW282869   2.539   8.144   8.507
93658SOL     OW82870  11.848   7.124  11.932
93658SOL    HW182871  11.766   7.163  11.902
93658SOL    HW282872  11.916   7.175  11.887
93659SOL     OW82873  14.090   7.230   6.193
93659SOL    HW182874  14.045   7.151   6.223
93659SOL    HW282875  14.096   7.220   6.098
93660SOL     OW82876   3.973   5.134   8.308
93660SOL    HW182877   4.027   5.116   8.385
93660SOL    HW282878   3.887   5.097   8.330
93661SOL     OW82879   9.644   6.061  11.008
93661SOL    HW182880   9.708   6.118  10.966
93661SOL    HW282881   9.659   6.071  11.102
93662SOL     OW82882   9.342   3.444   6.673
93662SOL    HW182883   9.270   3.477   6.727
93662SOL    HW282884   9.420   3.488   6.707
93663SOL     OW82885   7.060   4.842  14.596
93663SOL    HW182886   7.080   4.751  14.575
93663SOL    HW282887   7.129   4.869  14.656
93664SOL     OW82888   9.202   0.127  13.895
93664SOL    HW182889   9.245   0.132  13.981
93664SOL    HW282890   9.135   0.060  13.907
93665SOL     OW82891   0.616   6.471   6.834
93665SOL    HW182892   0.704   6.467   6.870
93665SOL    HW282893   0.606   6.562   6.805
93666SOL     OW82894  10.630   6.926   3.459
93666SOL    HW182895  10.696   6.857   3.471
93666SOL    HW282896  10.636   6.979   3.539
93667SOL     OW82897   2.806  11.670  14.865
93667SOL    HW182898   2.736  11.684   0.047
93667SOL    HW282899   2.793  11.738  14.799
93668SOL     OW82900   8.178   6.311   8.748
93668SOL    HW182901   8.189   6.404   8.729
93668SOL    HW282902   8.260   6.285   8.792
93669SOL     OW82903  10.735   0.658   8.973
93669SOL    HW182904  10.757   0.689   9.061
93669SOL    HW282905  10.820   0.636   8.934
93670SOL     OW82906   6.251  14.499   6.570
93670SOL    HW182907   6.167  14.544   6.561
93670SOL    HW282908   6.303  14.532   6.497
93671SOL     OW82909  12.117   3.048   4.868
93671SOL    HW182910  12.190   2.987   4.869
93671SOL    HW282911  12.091   3.055   4.776
93672SOL     OW82912  13.604   1.885  10.971
93672SOL    HW182913  13.669   1.940  11.014
93672SOL    HW282914  13.521   1.909  11.013
93673SOL     OW82915  13.307   0.954   5.041
93673SOL    HW182916  13.278   0.988   4.956
93673SOL    HW282917  13.351   1.028   5.083
93674SOL     OW82918   4.630  10.898   8.202
93674SOL    HW182919   4.651  10.909   8.109
93674SOL    HW282920   4.601  10.807   8.210
93675SOL     OW82921   2.185   2.699   8.773
93675SOL    HW182922   2.118   2.720   8.838
93675SOL    HW282923   2.252   2.767   8.784
93676SOL     OW82924   1.514  12.850  11.720
93676SOL    HW182925   1.545  12.916  11.658
93676SOL    HW282926   1.465  12.899  11.786
93677SOL     OW82927  13.564   9.316   2.263
93677SOL    HW182928  13.511   9.281   2.335
93677SOL    HW282929  13.631   9.368   2.306
93678SOL     OW82930   8.687   5.476  14.100
93678SOL    HW182931   8.707   5.538  14.171
93678SOL    HW282932   8.692   5.390  14.141
93679SOL     OW82933   7.789   8.700   3.091
93679SOL    HW182934   7.731   8.676   3.163
93679SOL    HW282935   7.758   8.649   3.017
93680SOL     OW82936   3.553  12.983   7.379
93680SOL    HW182937   3.610  12.907   7.364
93680SOL    HW282938   3.465  12.948   7.378
93681SOL     OW82939   1.360  10.745  14.835
93681SOL    HW182940   1.317  10.661  14.821
93681SOL    HW282941   1.296  10.797   0.002
93682SOL     OW82942  13.019   6.830   3.281
93682SOL    HW182943  12.965   6.756   3.252
93682SOL    HW282944  13.109   6.801   3.267
93683SOL     OW82945   5.082   3.472   4.550
93683SOL    HW182946   5.041   3.386   4.552
93683SOL    HW282947   5.035   3.523   4.616
93684SOL     OW82948   7.570   4.095  10.631
93684SOL    HW182949   7.570   4.155  10.556
93684SOL    HW282950   7.613   4.144  10.701
93685SOL     OW82951  10.284  14.083   4.524
93685SOL    HW182952  10.314  14.090   4.615
93685SOL    HW282953  10.203  14.133   4.521
93686SOL     OW82954   9.329   3.070  13.530
93686SOL    HW182955   9.323   2.994  13.472
93686SOL    HW282956   9.239   3.093  13.549
93687SOL     OW82957   4.860  12.535  11.730
93687SOL    HW182958   4.846  12.501  11.819
93687SOL    HW282959   4.773  12.553  11.697
93688SOL     OW82960  14.307  14.487   2.687
93688SOL    HW182961  14.310  14.545   2.763
93688SOL    HW282962  14.358  14.410   2.714
93689SOL     OW82963   8.264   5.279  13.470
93689SOL    HW182964   8.205   5.234  13.531
93689SOL    HW282965   8.314   5.339  13.526
93690SOL     OW82966   5.911   9.525  10.907
93690SOL    HW182967   5.972   9.479  10.850
93690SOL    HW282968   5.905   9.613  10.870
93691SOL     OW82969   0.230   2.788   8.569
93691SOL    HW182970   0.263   2.698   8.561
93691SOL    HW282971   0.246   2.827   8.483
93692SOL     OW82972   8.424   7.257   5.872
93692SOL    HW182973   8.464   7.276   5.787
93692SOL    HW282974   8.346   7.312   5.874
93693SOL     OW82975  10.067   5.398   1.092
93693SOL    HW182976  10.140   5.360   1.043
93693SOL    HW282977  10.015   5.323   1.120
93694SOL     OW82978  11.072   6.506  10.969
93694SOL    HW182979  11.069   6.600  10.947
93694SOL    HW282980  11.093   6.505  11.063
93695SOL     OW82981   6.657   6.675   0.914
93695SOL    HW182982   6.743   6.641   0.891
93695SOL    HW282983   6.596   6.606   0.887
93696SOL     OW82984  13.778  14.075   7.824
93696SOL    HW182985  13.723  14.134   7.875
93696SOL    HW282986  13.717  14.032   7.764
93697SOL     OW82987   0.074  12.303   1.182
93697SOL    HW182988   0.086  12.210   1.203
93697SOL    HW282989   0.162  12.337   1.171
93698SOL     OW82990  11.074  13.461   1.315
93698SOL    HW182991  11.071  13.429   1.405
93698SOL    HW282992  10.982  13.481   1.294
93699SOL     OW82993  14.101  14.166  13.063
93699SOL    HW182994  14.146  14.122  13.135
93699SOL    HW282995  14.015  14.125  13.060
93700SOL     OW82996   3.916  11.584   2.916
93700SOL    HW182997   3.970  11.541   2.983
93700SOL    HW282998   3.961  11.668   2.900
93701SOL     OW82999  13.158   8.009  11.251
93701SOL    HW183000  13.082   7.986  11.196
93701SOL    HW283001  13.122   8.019  11.339
93702SOL     OW83002   8.831   3.329   7.477
93702SOL    HW183003   8.826   3.387   7.552
93702SOL    HW283004   8.904   3.270   7.497
93703SOL     OW83005   6.320   8.601  13.336
93703SOL    HW183006   6.368   8.651  13.270
93703SOL    HW283007   6.339   8.509  13.316
93704SOL     OW83008   4.360   7.169  11.192
93704SOL    HW183009   4.322   7.253  11.217
93704SOL    HW283010   4.318   7.147  11.109
93705SOL     OW83011  12.672  11.976  13.905
93705SOL    HW183012  12.682  11.901  13.846
93705SOL    HW283013  12.680  12.052  13.848
93706SOL     OW83014   7.359   9.695   0.546
93706SOL    HW183015   7.325   9.630   0.485
93706SOL    HW283016   7.425   9.743   0.495
93707SOL     OW83017   6.793   3.627  13.481
93707SOL    HW183018   6.771   3.719  13.463
93707SOL    HW283019   6.889   3.625  13.483
93708SOL     OW83020   4.193   0.709   7.800
93708SOL    HW183021   4.207   0.616   7.783
93708SOL    HW283022   4.281   0.744   7.813
93709SOL     OW83023   7.261   1.271   5.085
93709SOL    HW183024   7.305   1.215   5.149
93709SOL    HW283025   7.227   1.344   5.137
93710SOL     OW83026   0.254   9.659   7.756
93710SOL    HW183027   0.223   9.569   7.755
93710SOL    HW283028   0.349   9.652   7.744
93711SOL     OW83029   0.630   5.934   3.969
93711SOL    HW183030   0.630   5.854   4.022
93711SOL    HW283031   0.615   6.004   4.032
93712SOL     OW83032   5.921   9.612  11.754
93712SOL    HW183033   5.911   9.533  11.808
93712SOL    HW283034   5.932   9.683  11.817
93713SOL     OW83035   3.368   4.760   2.204
93713SOL    HW183036   3.347   4.848   2.236
93713SOL    HW283037   3.378   4.708   2.284
93714SOL     OW83038   2.412  12.431   0.244
93714SOL    HW183039   2.374  12.423   0.331
93714SOL    HW283040   2.474  12.503   0.250
93715SOL     OW83041  11.411   0.327   1.373
93715SOL    HW183042  11.499   0.318   1.337
93715SOL    HW283043  11.361   0.257   1.331
93716SOL     OW83044  13.723   5.000  11.980
93716SOL    HW183045  13.683   5.063  12.040
93716SOL    HW283046  13.721   5.043  11.895
93717SOL     OW83047   2.164  12.372   1.585
93717SOL    HW183048   2.124  12.376   1.498
93717SOL    HW283049   2.143  12.456   1.625
93718SOL     OW83050   8.382   6.586   2.238
93718SOL    HW183051   8.416   6.506   2.198
93718SOL    HW283052   8.315   6.617   2.177
93719SOL     OW83053   3.886   8.217  11.404
93719SOL    HW183054   3.917   8.302  11.436
93719SOL    HW283055   3.931   8.205  11.321
93720SOL     OW83056   8.115   0.162   6.112
93720SOL    HW183057   8.101   0.080   6.066
93720SOL    HW283058   8.047   0.163   6.181
93721SOL     OW83059  11.241  11.612   9.007
93721SOL    HW183060  11.208  11.702   9.010
93721SOL    HW283061  11.177  11.564   8.955
93722SOL     OW83062   0.084  12.001  12.975
93722SOL    HW183063   0.175  11.979  12.954
93722SOL    HW283064   0.038  11.917  12.971
93723SOL     OW83065  12.394   8.962   7.671
93723SOL    HW183066  12.453   8.888   7.660
93723SOL    HW283067  12.358   8.977   7.584
93724SOL     OW83068   7.907   7.686  10.118
93724SOL    HW183069   7.992   7.651  10.146
93724SOL    HW283070   7.909   7.778  10.143
93725SOL     OW83071   9.358  14.268  12.560
93725SOL    HW183072   9.447  14.233  12.552
93725SOL    HW283073   9.328  14.277  12.469
93726SOL     OW83074   0.153   4.638   9.885
93726SOL    HW183075   0.061   4.632   9.860
93726SOL    HW283076   0.200   4.592   9.816
93727SOL     OW83077   2.479   1.155   8.277
93727SOL    HW183078   2.531   1.181   8.353
93727SOL    HW283079   2.407   1.103   8.314
93728SOL     OW83080   3.281   5.272   9.435
93728SOL    HW183081   3.284   5.237   9.346
93728SOL    HW283082   3.253   5.197   9.489
93729SOL     OW83083   6.824   3.990   9.172
93729SOL    HW183084   6.848   3.963   9.260
93729SOL    HW283085   6.843   4.084   9.170
93730SOL     OW83086  14.171   9.459   9.539
93730SOL    HW183087  14.125   9.535   9.575
93730SOL    HW283088  14.200   9.409   9.616
93731SOL     OW83089   1.225  12.270  11.740
93731SOL    HW183090   1.146  12.229  11.775
93731SOL    HW283091   1.245  12.222  11.660
93732SOL     OW83092  13.991  11.258   7.883
93732SOL    HW183093  14.010  11.351   7.897
93732SOL    HW283094  13.925  11.256   7.815
93733SOL     OW83095   2.501  12.710   4.425
93733SOL    HW183096   2.421  12.673   4.463
93733SOL    HW283097   2.470  12.773   4.360
93734SOL     OW83098   5.235  14.165   8.836
93734SOL    HW183099   5.307  14.115   8.873
93734SOL    HW283100   5.159  14.107   8.842
93735SOL     OW83101   3.581  12.137   0.419
93735SOL    HW183102   3.573  12.042   0.423
93735SOL    HW283103   3.506  12.165   0.365
93736SOL     OW83104   3.763   1.374   8.816
93736SOL    HW183105   3.822   1.408   8.883
93736SOL    HW283106   3.816   1.312   8.766
93737SOL     OW83107   5.929   4.057   3.559
93737SOL    HW183108   5.948   4.142   3.517
93737SOL    HW283109   5.945   3.993   3.490
93738SOL     OW83110   5.752  11.541   4.107
93738SOL    HW183111   5.748  11.637   4.108
93738SOL    HW283112   5.669  11.514   4.146
93739SOL     OW83113   7.662  13.666  10.934
93739SOL    HW183114   7.623  13.701  11.014
93739SOL    HW283115   7.631  13.575  10.930
93740SOL     OW83116   6.774   7.237   1.454
93740SOL    HW183117   6.854   7.270   1.494
93740SOL    HW283118   6.769   7.145   1.480
93741SOL     OW83119   4.688   8.290   0.954
93741SOL    HW183120   4.647   8.366   0.912
93741SOL    HW283121   4.642   8.281   1.037
93742SOL     OW83122   6.901   4.261   9.186
93742SOL    HW183123   6.979   4.303   9.222
93742SOL    HW283124   6.849   4.334   9.152
93743SOL     OW83125   4.344   4.890  13.825
93743SOL    HW183126   4.356   4.800  13.794
93743SOL    HW283127   4.249   4.905  13.821
93744SOL     OW83128   8.166   7.497   8.330
93744SOL    HW183129   8.106   7.430   8.295
93744SOL    HW283130   8.223   7.449   8.390
93745SOL     OW83131  11.208   5.522   7.420
93745SOL    HW183132  11.132   5.467   7.440
93745SOL    HW283133  11.282   5.474   7.456
93746SOL     OW83134   2.319  13.283   0.591
93746SOL    HW183135   2.256  13.306   0.523
93746SOL    HW283136   2.266  13.244   0.660
93747SOL     OW83137   2.643   7.653   0.169
93747SOL    HW183138   2.716   7.674   0.110
93747SOL    HW283139   2.671   7.573   0.214
93748SOL     OW83140   1.098   3.145   0.746
93748SOL    HW183141   1.116   3.053   0.764
93748SOL    HW283142   1.072   3.182   0.830
93749SOL     OW83143   9.548   6.892  11.302
93749SOL    HW183144   9.574   6.817  11.356
93749SOL    HW283145   9.454   6.903  11.319
93750SOL     OW83146  10.754   8.727   5.802
93750SOL    HW183147  10.793   8.647   5.767
93750SOL    HW283148  10.662   8.722   5.778
93751SOL     OW83149   7.617   2.527   0.311
93751SOL    HW183150   7.646   2.605   0.358
93751SOL    HW283151   7.683   2.514   0.243
93752SOL     OW83152   9.466  10.826   0.371
93752SOL    HW183153   9.529  10.871   0.316
93752SOL    HW283154   9.384  10.875   0.361
93753SOL     OW83155   3.904   9.646   9.518
93753SOL    HW183156   3.924   9.729   9.473
93753SOL    HW283157   3.836   9.605   9.463
93754SOL     OW83158  12.736   9.941  10.312
93754SOL    HW183159  12.759  10.021  10.264
93754SOL    HW283160  12.816   9.920  10.361
93755SOL     OW83161  11.202   2.758  13.011
93755SOL    HW183162  11.168   2.835  13.058
93755SOL    HW283163  11.128   2.698  13.007
93756SOL     OW83164   7.081  13.755   6.452
93756SOL    HW183165   7.103  13.694   6.522
93756SOL    HW283166   7.108  13.711   6.371
93757SOL     OW83167   4.297  14.551   0.651
93757SOL    HW183168   4.236  14.555   0.578
93757SOL    HW283169   4.284  14.464   0.689
93758SOL     OW83170  12.439  12.520   6.924
93758SOL    HW183171  12.504  12.461   6.886
93758SOL    HW283172  12.358  12.469   6.925
93759SOL     OW83173   0.405   5.006   3.776
93759SOL    HW183174   0.376   4.972   3.692
93759SOL    HW283175   0.500   5.007   3.770
93760SOL     OW83176   1.127  14.152   5.461
93760SOL    HW183177   1.168  14.091   5.399
93760SOL    HW283178   1.042  14.112   5.481
93761SOL     OW83179   1.031   9.428   7.218
93761SOL    HW183180   1.122   9.413   7.243
93761SOL    HW283181   0.982   9.362   7.267
93762SOL     OW83182   7.565   7.426   5.133
93762SOL    HW183183   7.606   7.434   5.047
93762SOL    HW283184   7.585   7.509   5.177
93763SOL     OW83185   4.766   5.001  11.173
93763SOL    HW183186   4.710   5.016  11.249
93763SOL    HW283187   4.847   4.966  11.209
93764SOL     OW83188   3.161   6.038   6.083
93764SOL    HW183189   3.250   6.006   6.094
93764SOL    HW283190   3.167   6.104   6.014
93765SOL     OW83191   8.373   0.481   0.798
93765SOL    HW183192   8.423   0.409   0.837
93765SOL    HW283193   8.428   0.514   0.727
93766SOL     OW83194  11.642  12.770   0.198
93766SOL    HW183195  11.571  12.780   0.135
93766SOL    HW283196  11.709  12.831   0.169
93767SOL     OW83197   5.512   4.537   5.250
93767SOL    HW183198   5.490   4.522   5.341
93767SOL    HW283199   5.450   4.483   5.201
93768SOL     OW83200   9.596   1.299  11.314
93768SOL    HW183201   9.549   1.216  11.318
93768SOL    HW283202   9.682   1.280  11.351
93769SOL     OW83203   3.573   5.837  10.900
93769SOL    HW183204   3.536   5.790  10.974
93769SOL    HW283205   3.667   5.819  10.904
93770SOL     OW83206  12.819   1.837   1.481
93770SOL    HW183207  12.850   1.747   1.479
93770SOL    HW283208  12.899   1.890   1.480
93771SOL     OW83209   9.469   2.938   8.842
93771SOL    HW183210   9.535   2.909   8.905
93771SOL    HW283211   9.512   2.931   8.757
93772SOL     OW83212   8.829   5.743   8.564
93772SOL    HW183213   8.835   5.837   8.546
93772SOL    HW283214   8.826   5.737   8.659
93773SOL     OW83215  12.499   3.038   2.787
93773SOL    HW183216  12.442   3.076   2.720
93773SOL    HW283217  12.469   3.076   2.869
93774SOL     OW83218   1.029   7.125   9.037
93774SOL    HW183219   1.018   7.151   9.128
93774SOL    HW283220   0.949   7.077   9.016
93775SOL     OW83221  14.130  12.297   6.272
93775SOL    HW183222  14.141  12.373   6.330
93775SOL    HW283223  14.131  12.334   6.184
93776SOL     OW83224   0.408   8.637   2.291
93776SOL    HW183225   0.477   8.597   2.344
93776SOL    HW283226   0.415   8.593   2.206
93777SOL     OW83227   0.891   6.341   1.478
93777SOL    HW183228   0.960   6.393   1.438
93777SOL    HW283229   0.936   6.265   1.515
93778SOL     OW83230   7.129  12.021   4.054
93778SOL    HW183231   7.039  12.030   4.086
93778SOL    HW283232   7.121  12.034   3.959
93779SOL     OW83233   1.893   4.548   0.768
93779SOL    HW183234   1.800   4.563   0.749
93779SOL    HW283235   1.909   4.596   0.849
93780SOL     OW83236   6.308  13.592   2.542
93780SOL    HW183237   6.330  13.541   2.464
93780SOL    HW283238   6.220  13.625   2.527
93781SOL     OW83239  10.246  12.855   9.342
93781SOL    HW183240  10.165  12.805   9.351
93781SOL    HW283241  10.315  12.789   9.337
93782SOL     OW83242  13.258   7.017   3.658
93782SOL    HW183243  13.181   6.980   3.616
93782SOL    HW283244  13.226   7.049   3.743
93783SOL     OW83245   4.026  13.901  12.541
93783SOL    HW183246   4.092  13.832  12.538
93783SOL    HW283247   4.076  13.982  12.552
93784SOL     OW83248  11.034   4.706  14.475
93784SOL    HW183249  10.961   4.765  14.490
93784SOL    HW283250  11.001   4.641  14.413
93785SOL     OW83251  10.427   2.227  13.929
93785SOL    HW183252  10.425   2.181  14.013
93785SOL    HW283253  10.520   2.235  13.908
93786SOL     OW83254   0.593   8.108   3.654
93786SOL    HW183255   0.564   8.154   3.732
93786SOL    HW283256   0.576   8.015   3.674
93787SOL     OW83257   5.166  14.233   8.540
93787SOL    HW183258   5.237  14.175   8.511
93787SOL    HW283259   5.200  14.321   8.526
93788SOL     OW83260   1.738   8.936   4.471
93788SOL    HW183261   1.735   8.859   4.528
93788SOL    HW283262   1.679   8.998   4.513
93789SOL     OW83263   2.105   8.191   0.829
93789SOL    HW183264   2.151   8.248   0.891
93789SOL    HW283265   2.015   8.190   0.861
93790SOL     OW83266  14.386   1.025  14.349
93790SOL    HW183267  14.306   0.996  14.304
93790SOL    HW283268  14.409   0.951  14.405
93791SOL     OW83269   8.908   7.845   8.800
93791SOL    HW183270   8.883   7.774   8.740
93791SOL    HW283271   8.994   7.874   8.768
93792SOL     OW83272   9.656  12.757   4.079
93792SOL    HW183273   9.737  12.797   4.048
93792SOL    HW283274   9.588  12.794   4.024
93793SOL     OW83275   1.191   4.995   5.734
93793SOL    HW183276   1.200   5.071   5.676
93793SOL    HW283277   1.116   4.947   5.697
93794SOL     OW83278  11.050   6.515  12.445
93794SOL    HW183279  10.997   6.557  12.377
93794SOL    HW283280  11.009   6.542  12.527
93795SOL     OW83281   0.865   0.754  11.740
93795SOL    HW183282   0.873   0.770  11.834
93795SOL    HW283283   0.866   0.841  11.701
93796SOL     OW83284   1.407   4.781   6.917
93796SOL    HW183285   1.380   4.740   6.835
93796SOL    HW283286   1.434   4.869   6.892
93797SOL     OW83287   5.609   3.111  10.164
93797SOL    HW183288   5.589   3.076  10.077
93797SOL    HW283289   5.694   3.155  10.153
93798SOL     OW83290   8.034   7.873  11.023
93798SOL    HW183291   7.979   7.890  10.947
93798SOL    HW283292   7.984   7.904  11.097
93799SOL     OW83293   8.393   3.994  11.492
93799SOL    HW183294   8.454   4.068  11.494
93799SOL    HW283295   8.348   3.997  11.576
93800SOL     OW83296   9.316   7.366  10.464
93800SOL    HW183297   9.259   7.427  10.510
93800SOL    HW283298   9.287   7.369  10.373
93801SOL     OW83299   8.395   3.685   4.453
93801SOL    HW183300   8.302   3.676   4.431
93801SOL    HW283301   8.411   3.780   4.453
93802SOL     OW83302   4.529   3.491   3.953
93802SOL    HW183303   4.444   3.469   3.915
93802SOL    HW283304   4.527   3.452   4.040
93803SOL     OW83305   5.121   9.301   2.757
93803SOL    HW183306   5.029   9.307   2.785
93803SOL    HW283307   5.153   9.222   2.800
93804SOL     OW83308   1.297  12.462   7.129
93804SOL    HW183309   1.266  12.374   7.148
93804SOL    HW283310   1.280  12.511   7.210
93805SOL     OW83311  11.966   4.279  12.453
93805SOL    HW183312  12.059   4.300  12.461
93805SOL    HW283313  11.961   4.224  12.375
93806SOL     OW83314   2.461   8.618   0.088
93806SOL    HW183315   2.471   8.696   0.034
93806SOL    HW283316   2.490   8.645   0.175
93807SOL     OW83317   5.806   8.773  13.794
93807SOL    HW183318   5.745   8.723  13.738
93807SOL    HW283319   5.759   8.854  13.813
93808SOL     OW83320   1.268   4.041  10.837
93808SOL    HW183321   1.189   3.995  10.866
93808SOL    HW283322   1.281   4.109  10.903
93809SOL     OW83323   4.266   8.316  10.369
93809SOL    HW183324   4.332   8.319  10.301
93809SOL    HW283325   4.309   8.353  10.446
93810SOL     OW83326   0.482   9.910   3.515
93810SOL    HW183327   0.449   9.826   3.546
93810SOL    HW283328   0.562   9.888   3.466
93811SOL     OW83329   1.330   3.424   5.985
93811SOL    HW183330   1.348   3.332   5.964
93811SOL    HW283331   1.394   3.446   6.053
93812SOL     OW83332   6.407   6.477  11.257
93812SOL    HW183333   6.485   6.532  11.265
93812SOL    HW283334   6.441   6.390  11.237
93813SOL     OW83335   8.522   1.754  14.401
93813SOL    HW183336   8.601   1.711  14.433
93813SOL    HW283337   8.555   1.819  14.338
93814SOL     OW83338   6.829   2.685   1.424
93814SOL    HW183339   6.898   2.722   1.369
93814SOL    HW283340   6.787   2.620   1.368
93815SOL     OW83341   5.397   1.919   9.134
93815SOL    HW183342   5.447   2.000   9.124
93815SOL    HW283343   5.354   1.928   9.220
93816SOL     OW83344   8.813  14.242  12.068
93816SOL    HW183345   8.851  14.190  12.139
93816SOL    HW283346   8.772  14.177  12.011
93817SOL     OW83347   8.499   9.166   9.541
93817SOL    HW183348   8.568   9.152   9.606
93817SOL    HW283349   8.441   9.231   9.582
93818SOL     OW83350  10.308  12.379   1.273
93818SOL    HW183351  10.388  12.326   1.273
93818SOL    HW283352  10.276  12.373   1.183
93819SOL     OW83353   4.373  12.549   0.380
93819SOL    HW183354   4.395  12.473   0.433
93819SOL    HW283355   4.388  12.521   0.290
93820SOL     OW83356   9.435   5.488   4.959
93820SOL    HW183357   9.415   5.580   4.942
93820SOL    HW283358   9.531   5.486   4.969
93821SOL     OW83359   8.464   5.631   6.132
93821SOL    HW183360   8.369   5.640   6.131
93821SOL    HW283361   8.480   5.543   6.099
93822SOL     OW83362  12.316   9.132  12.402
93822SOL    HW183363  12.306   9.041  12.373
93822SOL    HW283364  12.326   9.126  12.497
93823SOL     OW83365   4.399   1.325   4.136
93823SOL    HW183366   4.389   1.317   4.041
93823SOL    HW283367   4.313   1.353   4.167
93824SOL     OW83368   3.709   4.821  12.007
93824SOL    HW183369   3.639   4.817  11.941
93824SOL    HW283370   3.662   4.832  12.090
93825SOL     OW83371  11.598  14.051   5.075
93825SOL    HW183372  11.632  14.093   4.996
93825SOL    HW283373  11.632  14.104   5.147
93826SOL     OW83374  13.693   5.449   1.565
93826SOL    HW183375  13.613   5.426   1.612
93826SOL    HW283376  13.665   5.458   1.474
93827SOL     OW83377   2.662   0.779   4.705
93827SOL    HW183378   2.595   0.775   4.637
93827SOL    HW283379   2.744   0.789   4.657
93828SOL     OW83380   5.748  14.781   1.783
93828SOL    HW183381   5.825  14.755   1.834
93828SOL    HW283382   5.706  14.699   1.759
93829SOL     OW83383   1.980   2.434   8.767
93829SOL    HW183384   2.027   2.416   8.849
93829SOL    HW283385   1.891   2.454   8.795
93830SOL     OW83386   2.989  14.324   0.505
93830SOL    HW183387   3.045  14.269   0.450
93830SOL    HW283388   2.947  14.385   0.443
93831SOL     OW83389   2.680   0.475   6.014
93831SOL    HW183390   2.769   0.466   5.979
93831SOL    HW283391   2.676   0.566   6.044
93832SOL     OW83392   2.826  10.164   4.367
93832SOL    HW183393   2.887  10.111   4.314
93832SOL    HW283394   2.877  10.241   4.392
93833SOL     OW83395   8.207  14.050   7.942
93833SOL    HW183396   8.271  14.067   8.011
93833SOL    HW283397   8.128  14.022   7.988
93834SOL     OW83398   5.532   6.606  12.147
93834SOL    HW183399   5.599   6.634  12.085
93834SOL    HW283400   5.532   6.674  12.215
93835SOL     OW83401   3.738  14.171   8.683
93835SOL    HW183402   3.666  14.183   8.744
93835SOL    HW283403   3.733  14.247   8.625
93836SOL     OW83404   7.242   4.081  11.365
93836SOL    HW183405   7.287   4.021  11.305
93836SOL    HW283406   7.311   4.139  11.397
93837SOL     OW83407  12.815   8.701   4.389
93837SOL    HW183408  12.751   8.643   4.430
93837SOL    HW283409  12.900   8.660   4.407
93838SOL     OW83410   2.346   9.097   0.225
93838SOL    HW183411   2.251   9.086   0.213
93838SOL    HW283412   2.358   9.192   0.224
93839SOL     OW83413  14.357   1.282  11.762
93839SOL    HW183414  14.303   1.209  11.791
93839SOL    HW283415  14.298   1.357  11.762
93840SOL     OW83416  12.637   6.090   0.469
93840SOL    HW183417  12.677   6.146   0.402
93840SOL    HW283418  12.633   6.145   0.547
93841SOL     OW83419  13.505  11.924  13.110
93841SOL    HW183420  13.442  11.941  13.180
93841SOL    HW283421  13.486  11.991  13.044
93842SOL     OW83422   3.730  11.637   7.649
93842SOL    HW183423   3.727  11.636   7.553
93842SOL    HW283424   3.821  11.618   7.671
93843SOL     OW83425   3.433   9.985   9.425
93843SOL    HW183426   3.377  10.023   9.494
93843SOL    HW283427   3.513   9.960   9.471
93844SOL     OW83428  10.588  12.538   1.950
93844SOL    HW183429  10.660  12.475   1.945
93844SOL    HW283430  10.630  12.623   1.939
93845SOL     OW83431  12.525   2.955   8.460
93845SOL    HW183432  12.515   2.894   8.387
93845SOL    HW283433  12.561   3.034   8.420
93846SOL     OW83434   3.362  12.548  14.149
93846SOL    HW183435   3.337  12.459  14.173
93846SOL    HW283436   3.291  12.579  14.093
93847SOL     OW83437   5.774   2.206  10.282
93847SOL    HW183438   5.797   2.130  10.229
93847SOL    HW283439   5.680   2.198  10.297
93848SOL     OW83440   9.030  13.577  11.719
93848SOL    HW183441   8.952  13.551  11.669
93848SOL    HW283442   8.997  13.641  11.782
93849SOL     OW83443  11.716  13.556  10.668
93849SOL    HW183444  11.747  13.466  10.658
93849SOL    HW283445  11.621  13.550  10.654
93850SOL     OW83446  14.803   4.473  10.081
93850SOL    HW183447  14.867   4.448  10.015
93850SOL    HW283448  14.776   4.561  10.057
93851SOL     OW83449   7.617   8.774   6.605
93851SOL    HW183450   7.540   8.739   6.651
93851SOL    HW283451   7.678   8.700   6.601
93852SOL     OW83452   1.487   4.164   9.905
93852SOL    HW183453   1.436   4.236   9.868
93852SOL    HW283454   1.567   4.162   9.854
93853SOL     OW83455   7.970   9.475   0.894
93853SOL    HW183456   7.923   9.556   0.876
93853SOL    HW283457   8.062   9.500   0.892
93854SOL     OW83458   0.688   4.285  12.839
93854SOL    HW183459   0.773   4.288  12.883
93854SOL    HW283460   0.632   4.343  12.890
93855SOL     OW83461   7.914   9.115   0.987
93855SOL    HW183462   7.953   9.157   0.910
93855SOL    HW283463   7.826   9.089   0.957
93856SOL     OW83464   7.444   7.814  11.893
93856SOL    HW183465   7.373   7.820  11.829
93856SOL    HW283466   7.426   7.883  11.956
93857SOL     OW83467   0.670  13.919   0.180
93857SOL    HW183468   0.731  13.845   0.173
93857SOL    HW283469   0.596  13.894   0.125
93858SOL     OW83470   5.308   7.394   8.695
93858SOL    HW183471   5.321   7.316   8.749
93858SOL    HW283472   5.229   7.375   8.644
93859SOL     OW83473  10.418  10.619  13.206
93859SOL    HW183474  10.340  10.592  13.253
93859SOL    HW283475  10.405  10.712  13.189
93860SOL     OW83476   5.677   6.895  13.295
93860SOL    HW183477   5.686   6.947  13.376
93860SOL    HW283478   5.751   6.835  13.297
93861SOL     OW83479   4.762  14.832   5.672
93861SOL    HW183480   4.852  14.802   5.682
93861SOL    HW283481   4.737  14.863   5.759
93862SOL     OW83482   3.609  11.342   5.104
93862SOL    HW183483   3.567  11.258   5.121
93862SOL    HW283484   3.561  11.379   5.030
93863SOL     OW83485   9.650   2.617   5.621
93863SOL    HW183486   9.702   2.646   5.697
93863SOL    HW283487   9.581   2.683   5.614
93864SOL     OW83488   6.235   9.011   8.767
93864SOL    HW183489   6.281   8.931   8.742
93864SOL    HW283490   6.148   9.003   8.726
93865SOL     OW83491   3.165   4.731  10.098
93865SOL    HW183492   3.250   4.775  10.103
93865SOL    HW283493   3.101   4.801  10.110
93866SOL     OW83494   1.777   0.844   9.414
93866SOL    HW183495   1.747   0.926   9.375
93866SOL    HW283496   1.739   0.844   9.502
93867SOL     OW83497   7.660  10.233   5.258
93867SOL    HW183498   7.744  10.278   5.260
93867SOL    HW283499   7.651  10.194   5.345
93868SOL     OW83500   2.745   0.834   5.754
93868SOL    HW183501   2.807   0.760   5.752
93868SOL    HW283502   2.661   0.795   5.730
93869SOL     OW83503   3.185   7.180   2.896
93869SOL    HW183504   3.168   7.238   2.970
93869SOL    HW283505   3.254   7.224   2.847
93870SOL     OW83506   9.362   3.102   6.849
93870SOL    HW183507   9.294   3.157   6.888
93870SOL    HW283508   9.314   3.035   6.800
93871SOL     OW83509   1.058   6.583  11.592
93871SOL    HW183510   0.971   6.561  11.559
93871SOL    HW283511   1.098   6.498  11.612
93872SOL     OW83512   1.180   5.844   6.445
93872SOL    HW183513   1.160   5.776   6.509
93872SOL    HW283514   1.229   5.799   6.376
93873SOL     OW83515   5.558  10.905   0.069
93873SOL    HW183516   5.553  10.965   0.143
93873SOL    HW283517   5.622  10.839   0.095
93874SOL     OW83518  13.078   7.474  12.432
93874SOL    HW183519  13.133   7.552  12.429
93874SOL    HW283520  13.055   7.464  12.525
93875SOL     OW83521   2.340  11.952   8.842
93875SOL    HW183522   2.294  11.872   8.868
93875SOL    HW283523   2.381  11.984   8.923
93876SOL     OW83524   2.485  14.485   8.062
93876SOL    HW183525   2.483  14.421   7.991
93876SOL    HW283526   2.395  14.517   8.068
93877SOL     OW83527   6.852   0.805   4.349
93877SOL    HW183528   6.812   0.720   4.334
93877SOL    HW283529   6.810   0.863   4.286
93878SOL     OW83530   7.985  13.816  13.480
93878SOL    HW183531   8.073  13.822  13.443
93878SOL    HW283532   7.985  13.734  13.529
93879SOL     OW83533   9.989  13.545   5.065
93879SOL    HW183534   9.942  13.563   5.147
93879SOL    HW283535  10.071  13.593   5.074
93880SOL     OW83536  10.109  11.845   3.928
93880SOL    HW183537  10.174  11.786   3.889
93880SOL    HW283538  10.047  11.863   3.857
93881SOL     OW83539  13.289  12.639  11.371
93881SOL    HW183540  13.284  12.720  11.422
93881SOL    HW283541  13.364  12.592  11.408
93882SOL     OW83542   8.256   6.462   7.483
93882SOL    HW183543   8.177   6.410   7.501
93882SOL    HW283544   8.250   6.535   7.544
93883SOL     OW83545   2.258   4.684   8.860
93883SOL    HW183546   2.228   4.745   8.793
93883SOL    HW283547   2.183   4.626   8.875
93884SOL     OW83548   3.131   0.011   3.924
93884SOL    HW183549   3.087   0.048   4.001
93884SOL    HW283550   3.190  14.827   3.960
93885SOL     OW83551  12.070  10.463   8.172
93885SOL    HW183552  12.147  10.461   8.114
93885SOL    HW283553  12.095  10.407   8.246
93886SOL     OW83554   7.689  14.414   7.570
93886SOL    HW183555   7.725  14.355   7.504
93886SOL    HW283556   7.595  14.411   7.556
93887SOL     OW83557   4.468   7.857  13.566
93887SOL    HW183558   4.437   7.838  13.477
93887SOL    HW283559   4.435   7.945  13.585
93888SOL     OW83560   9.337   3.568  11.607
93888SOL    HW183561   9.352   3.588  11.699
93888SOL    HW283562   9.268   3.502  11.608
93889SOL     OW83563  12.076   9.927   9.931
93889SOL    HW183564  12.054   9.899   9.842
93889SOL    HW283565  12.031   9.864   9.987
93890SOL     OW83566   4.673   3.001   3.580
93890SOL    HW183567   4.755   3.040   3.550
93890SOL    HW283568   4.605   3.057   3.543
93891SOL     OW83569   7.495   1.339   9.809
93891SOL    HW183570   7.471   1.326   9.718
93891SOL    HW283571   7.582   1.300   9.817
93892SOL     OW83572   6.826   2.961   7.735
93892SOL    HW183573   6.734   2.984   7.747
93892SOL    HW283574   6.823   2.884   7.678
93893SOL     OW83575  10.850   4.052   2.069
93893SOL    HW183576  10.896   4.132   2.091
93893SOL    HW283577  10.900   3.982   2.110
93894SOL     OW83578   4.510   6.288   9.841
93894SOL    HW183579   4.459   6.263   9.764
93894SOL    HW283580   4.446   6.328   9.901
93895SOL     OW83581   1.298   8.364   5.619
93895SOL    HW183582   1.326   8.341   5.530
93895SOL    HW283583   1.379   8.388   5.664
93896SOL     OW83584   7.127   2.905   4.445
93896SOL    HW183585   7.062   2.974   4.460
93896SOL    HW283586   7.161   2.922   4.357
93897SOL     OW83587   2.186  13.643   1.851
93897SOL    HW183588   2.277  13.628   1.874
93897SOL    HW283589   2.177  13.739   1.851
93898SOL     OW83590  12.397   2.798  10.604
93898SOL    HW183591  12.463   2.779  10.537
93898SOL    HW283592  12.421   2.741  10.678
93899SOL     OW83593   1.265  10.739   9.490
93899SOL    HW183594   1.259  10.706   9.580
93899SOL    HW283595   1.239  10.665   9.436
93900SOL     OW83596   3.780  12.078  12.319
93900SOL    HW183597   3.745  12.054  12.405
93900SOL    HW283598   3.874  12.085  12.332
93901SOL     OW83599   2.741   3.705   9.339
93901SOL    HW183600   2.808   3.773   9.331
93901SOL    HW283601   2.774   3.647   9.408
93902SOL     OW83602  11.218   7.587   1.726
93902SOL    HW183603  11.264   7.511   1.763
93902SOL    HW283604  11.229   7.656   1.791
93903SOL     OW83605   2.268   4.299  13.336
93903SOL    HW183606   2.312   4.333  13.258
93903SOL    HW283607   2.320   4.223  13.361
93904SOL     OW83608  14.615   4.404   1.570
93904SOL    HW183609  14.704   4.431   1.549
93904SOL    HW283610  14.625   4.320   1.614
93905SOL     OW83611   5.222   3.354   0.442
93905SOL    HW183612   5.222   3.294   0.368
93905SOL    HW283613   5.299   3.329   0.493
93906SOL     OW83614   0.854  13.128   5.746
93906SOL    HW183615   0.792  13.144   5.817
93906SOL    HW283616   0.885  13.215   5.721
93907SOL     OW83617  13.361   8.214   5.636
93907SOL    HW183618  13.421   8.141   5.653
93907SOL    HW283619  13.310   8.185   5.561
93908SOL     OW83620  12.043   1.401   5.846
93908SOL    HW183621  12.084   1.410   5.932
93908SOL    HW283622  11.985   1.477   5.839
93909SOL     OW83623   8.649   1.367   5.014
93909SOL    HW183624   8.688   1.281   5.029
93909SOL    HW283625   8.605   1.360   4.930
93910SOL     OW83626   8.396   1.584   6.232
93910SOL    HW183627   8.320   1.540   6.195
93910SOL    HW283628   8.468   1.562   6.172
93911SOL     OW83629  14.042   3.557   5.923
93911SOL    HW183630  13.992   3.539   5.843
93911SOL    HW283631  14.067   3.470   5.955
93912SOL     OW83632   7.522   8.625   8.392
93912SOL    HW183633   7.535   8.533   8.369
93912SOL    HW283634   7.429   8.640   8.377
93913SOL     OW83635   0.693  12.372  11.398
93913SOL    HW183636   0.685  12.420  11.481
93913SOL    HW283637   0.689  12.280  11.423
93914SOL     OW83638  14.399   3.174   7.494
93914SOL    HW183639  14.310   3.151   7.521
93914SOL    HW283640  14.399   3.270   7.491
93915SOL     OW83641  14.715   9.047   5.135
93915SOL    HW183642  14.689   9.064   5.226
93915SOL    HW283643  14.636   9.064   5.084
93916SOL     OW83644  13.194  13.891   3.346
93916SOL    HW183645  13.098  13.891   3.343
93916SOL    HW283646  13.215  13.906   3.438
93917SOL     OW83647  11.336   9.510   4.599
93917SOL    HW183648  11.285   9.435   4.568
93917SOL    HW283649  11.272   9.581   4.606
93918SOL     OW83650  11.555  14.309   6.506
93918SOL    HW183651  11.464  14.281   6.517
93918SOL    HW283652  11.599  14.233   6.468
93919SOL     OW83653   0.599   0.216   0.645
93919SOL    HW183654   0.606   0.308   0.620
93919SOL    HW283655   0.519   0.185   0.604
93920SOL     OW83656   1.266  12.651   2.784
93920SOL    HW183657   1.326  12.619   2.717
93920SOL    HW283658   1.304  12.734   2.812
93921SOL     OW83659   2.600   5.188   6.945
93921SOL    HW183660   2.585   5.179   6.851
93921SOL    HW283661   2.690   5.157   6.958
93922SOL     OW83662   6.820  12.421   6.284
93922SOL    HW183663   6.806  12.403   6.376
93922SOL    HW283664   6.823  12.335   6.243
93923SOL     OW83665   2.884  11.584   9.228
93923SOL    HW183666   2.941  11.508   9.212
93923SOL    HW283667   2.918  11.622   9.309
93924SOL     OW83668   2.757   5.725   4.779
93924SOL    HW183669   2.843   5.741   4.741
93924SOL    HW283670   2.721   5.651   4.730
93925SOL     OW83671  14.496   5.462   1.672
93925SOL    HW183672  14.485   5.550   1.709
93925SOL    HW283673  14.591   5.454   1.659
93926SOL     OW83674  10.304   2.101   0.779
93926SOL    HW183675  10.215   2.067   0.771
93926SOL    HW283676  10.312   2.163   0.707
93927SOL     OW83677  11.932   9.712  12.305
93927SOL    HW183678  11.913   9.744  12.393
93927SOL    HW283679  12.006   9.765  12.275
93928SOL     OW83680   0.283   3.576   7.730
93928SOL    HW183681   0.250   3.577   7.640
93928SOL    HW283682   0.222   3.518   7.777
93929SOL     OW83683  12.061  12.815   3.760
93929SOL    HW183684  12.024  12.881   3.702
93929SOL    HW283685  12.033  12.840   3.847
93930SOL     OW83686   0.480  11.674   7.012
93930SOL    HW183687   0.435  11.758   7.019
93930SOL    HW283688   0.411  11.611   6.992
93931SOL     OW83689   8.001  11.971   6.628
93931SOL    HW183690   7.984  11.890   6.675
93931SOL    HW283691   7.988  11.949   6.536
93932SOL     OW83692   7.835   9.739   9.285
93932SOL    HW183693   7.917   9.786   9.305
93932SOL    HW283694   7.807   9.705   9.370
93933SOL     OW83695   0.300   3.719   4.850
93933SOL    HW183696   0.364   3.648   4.848
93933SOL    HW283697   0.226   3.686   4.799
93934SOL     OW83698   6.780   2.226  13.064
93934SOL    HW183699   6.823   2.201  12.982
93934SOL    HW283700   6.695   2.183  13.061
93935SOL     OW83701   8.368  10.385   1.393
93935SOL    HW183702   8.362  10.480   1.389
93935SOL    HW283703   8.413  10.367   1.476
93936SOL     OW83704   6.431   1.166  14.828
93936SOL    HW183705   6.483   1.136  14.754
93936SOL    HW283706   6.464   1.116   0.020
93937SOL     OW83707  12.663   3.714   2.655
93937SOL    HW183708  12.738   3.664   2.623
93937SOL    HW283709  12.661   3.792   2.600
93938SOL     OW83710  10.082   2.754  13.989
93938SOL    HW183711  10.044   2.667  13.977
93938SOL    HW283712  10.166   2.737  14.034
93939SOL     OW83713   2.972   7.621   9.779
93939SOL    HW183714   2.931   7.541   9.814
93939SOL    HW283715   2.901   7.685   9.777
93940SOL     OW83716   4.273   3.706   4.392
93940SOL    HW183717   4.328   3.783   4.378
93940SOL    HW283718   4.239   3.717   4.481
93941SOL     OW83719  13.636  14.253   2.083
93941SOL    HW183720  13.571  14.230   2.150
93941SOL    HW283721  13.653  14.346   2.097
93942SOL     OW83722   9.798   2.094   2.521
93942SOL    HW183723   9.815   2.002   2.539
93942SOL    HW283724   9.812   2.104   2.427
93943SOL     OW83725   1.665   9.163  13.092
93943SOL    HW183726   1.572   9.142  13.089
93943SOL    HW283727   1.684   9.176  13.185
93944SOL     OW83728   0.315   3.517   0.291
93944SOL    HW183729   0.401   3.479   0.276
93944SOL    HW283730   0.333   3.607   0.318
93945SOL     OW83731   1.527  12.205   6.303
93945SOL    HW183732   1.494  12.117   6.283
93945SOL    HW283733   1.466  12.239   6.368
93946SOL     OW83734  12.942  13.691   4.859
93946SOL    HW183735  12.919  13.783   4.845
93946SOL    HW283736  12.869  13.642   4.821
93947SOL     OW83737  12.324   6.031   5.434
93947SOL    HW183738  12.325   6.014   5.529
93947SOL    HW283739  12.264   5.965   5.399
93948SOL     OW83740   9.760  11.293   0.860
93948SOL    HW183741   9.675  11.264   0.893
93948SOL    HW283742   9.765  11.258   0.771
93949SOL     OW83743  14.725   8.219  11.439
93949SOL    HW183744  14.802   8.175  11.472
93949SOL    HW283745  14.760   8.287  11.381
93950SOL     OW83746   2.794   2.300   4.953
93950SOL    HW183747   2.738   2.302   5.031
93950SOL    HW283748   2.803   2.392   4.927
93951SOL     OW83749  10.293   6.956   1.153
93951SOL    HW183750  10.294   7.042   1.196
93951SOL    HW283751  10.349   6.901   1.209
93952SOL     OW83752   7.663   6.016   3.755
93952SOL    HW183753   7.722   6.003   3.681
93952SOL    HW283754   7.656   6.111   3.765
93953SOL     OW83755   5.170  11.364   4.475
93953SOL    HW183756   5.090  11.314   4.455
93953SOL    HW283757   5.240  11.315   4.432
93954SOL     OW83758   7.099  10.875  11.914
93954SOL    HW183759   7.069  10.866  11.823
93954SOL    HW283760   7.165  10.807  11.925
93955SOL     OW83761   2.262   7.008   2.561
93955SOL    HW183762   2.288   6.969   2.644
93955SOL    HW283763   2.334   6.989   2.501
93956SOL     OW83764   6.494   4.685   0.673
93956SOL    HW183765   6.512   4.593   0.694
93956SOL    HW283766   6.579   4.729   0.682
93957SOL     OW83767   0.954   4.046   3.024
93957SOL    HW183768   0.932   3.953   3.018
93957SOL    HW283769   0.905   4.087   2.953
93958SOL     OW83770   2.567  14.196   0.614
93958SOL    HW183771   2.503  14.246   0.563
93958SOL    HW283772   2.599  14.257   0.680
93959SOL     OW83773   2.465  11.125   3.522
93959SOL    HW183774   2.372  11.119   3.497
93959SOL    HW283775   2.463  11.152   3.614
93960SOL     OW83776   1.887   2.358  13.683
93960SOL    HW183777   1.913   2.427  13.621
93960SOL    HW283778   1.868   2.282  13.628
93961SOL     OW83779  13.881  13.991  12.368
93961SOL    HW183780  13.943  14.063  12.354
93961SOL    HW283781  13.831  13.986  12.287
93962SOL     OW83782   6.385  10.878   6.713
93962SOL    HW183783   6.318  10.864   6.780
93962SOL    HW283784   6.430  10.794   6.707
93963SOL     OW83785   5.372   4.658  13.923
93963SOL    HW183786   5.430   4.731  13.945
93963SOL    HW283787   5.312   4.650  13.997
93964SOL     OW83788   4.904   0.658   2.365
93964SOL    HW183789   4.919   0.678   2.458
93964SOL    HW283790   4.864   0.571   2.366
93965SOL     OW83791  11.976  14.127  14.635
93965SOL    HW183792  11.897  14.073  14.627
93965SOL    HW283793  12.015  14.126  14.547
93966SOL     OW83794   6.602  12.732   4.913
93966SOL    HW183795   6.565  12.767   4.994
93966SOL    HW283796   6.595  12.804   4.850
93967SOL     OW83797  12.049   9.606   3.221
93967SOL    HW183798  12.141   9.615   3.196
93967SOL    HW283799  12.001   9.656   3.155
93968SOL     OW83800   8.348   8.845  10.092
93968SOL    HW183801   8.390   8.881  10.169
93968SOL    HW283802   8.395   8.763  10.075
93969SOL     OW83803   0.801  11.599   5.390
93969SOL    HW183804   0.867  11.626   5.327
93969SOL    HW283805   0.723  11.584   5.338
93970SOL     OW83806   7.000   8.995   3.654
93970SOL    HW183807   6.947   8.946   3.591
93970SOL    HW283808   6.938   9.052   3.698
93971SOL     OW83809   6.057  10.962  14.794
93971SOL    HW183810   5.999  10.962  14.718
93971SOL    HW283811   6.067  10.870  14.816
93972SOL     OW83812  14.201   3.484   5.640
93972SOL    HW183813  14.183   3.493   5.547
93972SOL    HW283814  14.118   3.504   5.683
93973SOL     OW83815   4.591  10.064   5.840
93973SOL    HW183816   4.649  10.035   5.770
93973SOL    HW283817   4.511  10.091   5.796
93974SOL     OW83818  13.669   0.129  13.939
93974SOL    HW183819  13.634   0.046  13.906
93974SOL    HW283820  13.700   0.108  14.027
93975SOL     OW83821   8.049   4.727   2.189
93975SOL    HW183822   7.991   4.791   2.147
93975SOL    HW283823   8.116   4.710   2.123
93976SOL     OW83824   8.237   1.676   8.398
93976SOL    HW183825   8.272   1.624   8.470
93976SOL    HW283826   8.264   1.766   8.417
93977SOL     OW83827  11.069  12.673   6.262
93977SOL    HW183828  11.112  12.611   6.204
93977SOL    HW283829  10.983  12.634   6.279
93978SOL     OW83830   4.370  11.901  14.365
93978SOL    HW183831   4.387  11.988  14.330
93978SOL    HW283832   4.443  11.884  14.424
93979SOL     OW83833   2.662  10.306   9.450
93979SOL    HW183834   2.732  10.343   9.503
93979SOL    HW283835   2.648  10.370   9.381
93980SOL     OW83836   4.715  12.730   6.741
93980SOL    HW183837   4.738  12.641   6.714
93980SOL    HW283838   4.789  12.758   6.795
93981SOL     OW83839   8.192  13.317   3.914
93981SOL    HW183840   8.197  13.266   3.995
93981SOL    HW283841   8.246  13.269   3.852
93982SOL     OW83842  13.373   3.462   5.526
93982SOL    HW183843  13.374   3.482   5.619
93982SOL    HW283844  13.371   3.548   5.483
93983SOL     OW83845  14.644  10.482  12.919
93983SOL    HW183846  14.569  10.459  12.974
93983SOL    HW283847  14.605  10.525  12.843
93984SOL     OW83848   1.529   0.449   9.266
93984SOL    HW183849   1.450   0.435   9.318
93984SOL    HW283850   1.504   0.518   9.204
93985SOL     OW83851   8.254  14.336   1.293
93985SOL    HW183852   8.180  14.275   1.297
93985SOL    HW283853   8.326  14.289   1.336
93986SOL     OW83854  10.736  13.128   7.981
93986SOL    HW183855  10.771  13.192   8.043
93986SOL    HW283856  10.795  13.133   7.906
93987SOL     OW83857  14.164  12.786   9.484
93987SOL    HW183858  14.184  12.697   9.455
93987SOL    HW283859  14.250  12.826   9.500
93988SOL     OW83860   2.682   1.526  14.655
93988SOL    HW183861   2.699   1.438  14.688
93988SOL    HW283862   2.748   1.581  14.699
93989SOL     OW83863   6.800  10.211   6.213
93989SOL    HW183864   6.709  10.240   6.211
93989SOL    HW283865   6.831  10.237   6.300
93990SOL     OW83866   4.536  10.770   5.142
93990SOL    HW183867   4.578  10.793   5.059
93990SOL    HW283868   4.509  10.854   5.178
93991SOL     OW83869   3.281   5.877   9.852
93991SOL    HW183870   3.300   5.886   9.946
93991SOL    HW283871   3.227   5.952   9.830
93992SOL     OW83872   4.429  12.157   0.921
93992SOL    HW183873   4.504  12.098   0.927
93992SOL    HW283874   4.463  12.236   0.878
93993SOL     OW83875  12.582   0.771  10.973
93993SOL    HW183876  12.577   0.687  11.019
93993SOL    HW283877  12.637   0.826  11.029
93994SOL     OW83878  11.950   9.490  10.848
93994SOL    HW183879  11.968   9.574  10.806
93994SOL    HW283880  11.876   9.454  10.798
93995SOL     OW83881   2.327   6.187   3.483
93995SOL    HW183882   2.285   6.252   3.427
93995SOL    HW283883   2.398   6.151   3.429
93996SOL     OW83884  11.785   4.386   3.790
93996SOL    HW183885  11.871   4.428   3.797
93996SOL    HW283886  11.795   4.303   3.836
93997SOL     OW83887   1.693   7.114   5.605
93997SOL    HW183888   1.633   7.159   5.664
93997SOL    HW283889   1.672   7.149   5.518
93998SOL     OW83890   7.669  11.046   1.226
93998SOL    HW183891   7.651  11.101   1.151
93998SOL    HW283892   7.765  11.041   1.231
93999SOL     OW83893  10.245   5.556   4.431
93999SOL    HW183894  10.329   5.559   4.386
93999SOL    HW283895  10.267   5.565   4.523
94000SOL     OW83896  11.386   6.630  12.961
94000SOL    HW183897  11.436   6.707  12.934
94000SOL    HW283898  11.300   6.642  12.921
94001SOL     OW83899   2.935   0.044  12.014
94001SOL    HW183900   3.000   0.048  12.083
94001SOL    HW283901   2.857   0.008  12.056
94002SOL     OW83902  10.661   3.811  13.733
94002SOL    HW183903  10.720   3.739  13.713
94002SOL    HW283904  10.577   3.768  13.754
94003SOL     OW83905  13.247   2.680   7.933
94003SOL    HW183906  13.212   2.747   7.874
94003SOL    HW283907  13.208   2.701   8.018
94004SOL     OW83908   8.907  10.164   3.586
94004SOL    HW183909   8.948  10.101   3.526
94004SOL    HW283910   8.820  10.179   3.548
94005SOL     OW83911   6.975  12.948   1.089
94005SOL    HW183912   6.920  13.012   1.045
94005SOL    HW283913   7.061  12.959   1.049
94006SOL     OW83914   3.186  12.084   3.810
94006SOL    HW183915   3.104  12.127   3.834
94006SOL    HW283916   3.180  12.071   3.716
94007SOL     OW83917   6.214  10.852   8.319
94007SOL    HW183918   6.158  10.848   8.241
94007SOL    HW283919   6.293  10.898   8.289
94008SOL     OW83920   7.869   7.063  12.253
94008SOL    HW183921   7.925   7.065  12.176
94008SOL    HW283922   7.862   6.970  12.275
94009SOL     OW83923  13.756  10.844   3.527
94009SOL    HW183924  13.732  10.932   3.556
94009SOL    HW283925  13.724  10.839   3.437
94010SOL     OW83926  10.316   0.813  10.419
94010SOL    HW183927  10.369   0.761  10.359
94010SOL    HW283928  10.379   0.866  10.467
94011SOL     OW83929   2.110   4.748   1.138
94011SOL    HW183930   2.201   4.745   1.164
94011SOL    HW283931   2.088   4.842   1.139
94012SOL     OW83932   5.506   0.736  11.714
94012SOL    HW183933   5.567   0.780  11.656
94012SOL    HW283934   5.429   0.793  11.716
94013SOL     OW83935  14.350   1.999   2.427
94013SOL    HW183936  14.399   1.951   2.361
94013SOL    HW283937  14.386   1.970   2.510
94014SOL     OW83938   8.826   3.682  13.724
94014SOL    HW183939   8.852   3.723  13.806
94014SOL    HW283940   8.843   3.589  13.736
94015SOL     OW83941  12.447   1.058   7.142
94015SOL    HW183942  12.365   1.066   7.093
94015SOL    HW283943  12.513   1.096   7.084
94016SOL     OW83944   7.915   5.061   4.220
94016SOL    HW183945   7.940   5.043   4.129
94016SOL    HW283946   7.871   5.146   4.216
94017SOL     OW83947  11.672   8.759   3.907
94017SOL    HW183948  11.673   8.675   3.862
94017SOL    HW283949  11.735   8.813   3.859
94018SOL     OW83950  12.407   5.188   2.453
94018SOL    HW183951  12.316   5.209   2.436
94018SOL    HW283952  12.408   5.093   2.465
94019SOL     OW83953   6.157  10.688  13.791
94019SOL    HW183954   6.154  10.598  13.760
94019SOL    HW283955   6.246  10.718  13.770
94020SOL     OW83956   6.660  11.715   0.080
94020SOL    HW183957   6.718  11.640   0.092
94020SOL    HW283958   6.713  11.791   0.103
94021SOL     OW83959  14.620  12.037  12.107
94021SOL    HW183960  14.611  11.970  12.175
94021SOL    HW283961  14.642  11.987  12.028
94022SOL     OW83962   0.851   5.771  14.040
94022SOL    HW183963   0.867   5.682  14.073
94022SOL    HW283964   0.797   5.812  14.108
94023SOL     OW83965   7.742   8.979   3.796
94023SOL    HW183966   7.668   8.953   3.740
94023SOL    HW283967   7.776   9.058   3.755
94024SOL     OW83968  14.185  11.832   2.334
94024SOL    HW183969  14.098  11.841   2.373
94024SOL    HW283970  14.171  11.783   2.253
94025SOL     OW83971   7.549  14.788  10.613
94025SOL    HW183972   7.530  14.840  10.535
94025SOL    HW283973   7.622  14.731  10.587
94026SOL     OW83974   0.934  12.233   0.143
94026SOL    HW183975   0.839  12.221   0.143
94026SOL    HW283976   0.951  12.290   0.069
94027SOL     OW83977  14.130   0.201  13.691
94027SOL    HW183978  14.065   0.161  13.748
94027SOL    HW283979  14.166   0.274  13.742
94028SOL     OW83980   7.833   1.920   3.485
94028SOL    HW183981   7.796   2.008   3.486
94028SOL    HW283982   7.759   1.863   3.466
94029SOL     OW83983   4.309   2.692  13.608
94029SOL    HW183984   4.362   2.767  13.580
94029SOL    HW283985   4.221   2.713  13.577
94030SOL     OW83986   1.500  13.531  12.754
94030SOL    HW183987   1.421  13.504  12.800
94030SOL    HW283988   1.570  13.521  12.819
94031SOL     OW83989   3.856  13.670  10.541
94031SOL    HW183990   3.804  13.620  10.478
94031SOL    HW283991   3.912  13.605  10.583
94032SOL     OW83992   2.174   3.051   9.736
94032SOL    HW183993   2.162   3.146   9.734
94032SOL    HW283994   2.268   3.038   9.722
94033SOL     OW83995  13.411   0.081  13.583
94033SOL    HW183996  13.485   0.135  13.611
94033SOL    HW283997  13.448   0.018  13.520
94034SOL     OW83998   6.690   7.922   5.391
94034SOL    HW183999   6.650   7.835   5.391
94034SOL    HW284000   6.679   7.953   5.480
94035SOL     OW84001   0.023   1.335   8.670
94035SOL    HW184002  14.838   1.378   8.617
94035SOL    HW284003   0.066   1.275   8.611
94036SOL     OW84004  11.918  10.350   0.111
94036SOL    HW184005  11.947  10.282   0.050
94036SOL    HW284006  11.994  10.366   0.167
94037SOL     OW84007   2.643   4.495  13.992
94037SOL    HW184008   2.667   4.526  14.079
94037SOL    HW284009   2.630   4.401  14.003
94038SOL     OW84010  11.496   1.508  11.896
94038SOL    HW184011  11.487   1.568  11.969
94038SOL    HW284012  11.469   1.423  11.931
94039SOL     OW84013  12.440   2.903  14.035
94039SOL    HW184014  12.507   2.969  14.018
94039SOL    HW284015  12.484   2.838  14.089
94040SOL     OW84016  10.353  11.045   1.106
94040SOL    HW184017  10.398  11.118   1.064
94040SOL    HW284018  10.422  10.982   1.125
94041SOL     OW84019   9.264  12.133  13.354
94041SOL    HW184020   9.345  12.162  13.311
94041SOL    HW284021   9.216  12.214  13.372
94042SOL     OW84022   7.924   4.067  10.113
94042SOL    HW184023   7.864   4.115  10.056
94042SOL    HW284024   7.987   4.132  10.144
94043SOL     OW84025   3.437   1.132   0.214
94043SOL    HW184026   3.372   1.198   0.191
94043SOL    HW284027   3.519   1.181   0.224
94044SOL     OW84028   4.998  13.015   9.640
94044SOL    HW184029   4.975  13.041   9.551
94044SOL    HW284030   5.093  13.023   9.644
94045SOL     OW84031   0.244   5.329  11.842
94045SOL    HW184032   0.190   5.375  11.777
94045SOL    HW284033   0.183   5.273  11.889
94046SOL     OW84034   8.067   1.427  10.870
94046SOL    HW184035   8.043   1.394  10.783
94046SOL    HW284036   8.144   1.376  10.894
94047SOL     OW84037   0.426   5.603   2.966
94047SOL    HW184038   0.463   5.516   2.956
94047SOL    HW284039   0.499   5.656   3.000
94048SOL     OW84040  13.362  13.905  13.884
94048SOL    HW184041  13.387  13.988  13.845
94048SOL    HW284042  13.273  13.919  13.917
94049SOL     OW84043   6.874  13.735   7.240
94049SOL    HW184044   6.801  13.711   7.298
94049SOL    HW284045   6.864  13.829   7.229
94050SOL     OW84046   7.243   2.809  10.873
94050SOL    HW184047   7.294   2.728  10.876
94050SOL    HW284048   7.207   2.812  10.784
94051SOL     OW84049   3.818   0.366   0.719
94051SOL    HW184050   3.773   0.389   0.800
94051SOL    HW284051   3.755   0.314   0.670
94052SOL     OW84052   2.988   4.118   0.637
94052SOL    HW184053   2.964   4.120   0.729
94052SOL    HW284054   3.034   4.035   0.626
94053SOL     OW84055   3.275   7.346   2.691
94053SOL    HW184056   3.232   7.366   2.609
94053SOL    HW284057   3.347   7.408   2.697
94054SOL     OW84058  11.642   3.520   4.745
94054SOL    HW184059  11.702   3.535   4.671
94054SOL    HW284060  11.613   3.429   4.733
94055SOL     OW84061  11.463   7.125   5.287
94055SOL    HW184062  11.523   7.065   5.243
94055SOL    HW284063  11.499   7.212   5.269
94056SOL     OW84064   9.173  11.815   2.203
94056SOL    HW184065   9.131  11.886   2.154
94056SOL    HW284066   9.114  11.797   2.275
94057SOL     OW84067   1.109   5.352   6.782
94057SOL    HW184068   1.158   5.434   6.778
94057SOL    HW284069   1.040   5.362   6.717
94058SOL     OW84070  14.734  12.548   2.601
94058SOL    HW184071  14.757  12.458   2.576
94058SOL    HW284072  14.735  12.547   2.697
94059SOL     OW84073   1.437   6.014   3.943
94059SOL    HW184074   1.376   6.088   3.943
94059SOL    HW284075   1.401   5.954   3.877
94060SOL     OW84076   3.019   6.142   2.440
94060SOL    HW184077   3.111   6.132   2.466
94060SOL    HW284078   2.993   6.227   2.475
94061SOL     OW84079  11.264   4.092  13.600
94061SOL    HW184080  11.231   4.101  13.689
94061SOL    HW284081  11.200   4.138  13.546
94062SOL     OW84082   5.917  11.851   0.126
94062SOL    HW184083   5.928  11.762   0.092
94062SOL    HW284084   6.007  11.882   0.138
94063SOL     OW84085   1.219   7.373   1.013
94063SOL    HW184086   1.171   7.293   0.991
94063SOL    HW284087   1.295   7.343   1.062
94064SOL     OW84088  10.672  10.723   0.628
94064SOL    HW184089  10.649  10.703   0.537
94064SOL    HW284090  10.762  10.692   0.638
94065SOL     OW84091  14.335  14.475   0.478
94065SOL    HW184092  14.391  14.469   0.555
94065SOL    HW284093  14.333  14.385   0.443
94066SOL     OW84094   8.705  12.334  11.943
94066SOL    HW184095   8.732  12.244  11.961
94066SOL    HW284096   8.739  12.384  12.018
94067SOL     OW84097  10.727   7.885   1.885
94067SOL    HW184098  10.798   7.928   1.837
94067SOL    HW284099  10.692   7.954   1.942
94068SOL     OW84100  14.421   9.313  12.569
94068SOL    HW184101  14.480   9.268  12.509
94068SOL    HW284102  14.478   9.353  12.634
94069SOL     OW84103   9.805   5.907  11.869
94069SOL    HW184104   9.816   5.996  11.902
94069SOL    HW284105   9.847   5.852  11.936
94070SOL     OW84106  11.577  11.188   8.375
94070SOL    HW184107  11.669  11.217   8.381
94070SOL    HW284108  11.532  11.239   8.442
94071SOL     OW84109   2.581  12.204   6.367
94071SOL    HW184110   2.601  12.178   6.457
94071SOL    HW284111   2.620  12.135   6.313
94072SOL     OW84112   6.704   5.238   1.698
94072SOL    HW184113   6.726   5.319   1.744
94072SOL    HW284114   6.639   5.196   1.754
94073SOL     OW84115  12.402  11.885   9.181
94073SOL    HW184116  12.459  11.811   9.160
94073SOL    HW284117  12.379  11.922   9.096
94074SOL     OW84118   9.432   5.107   9.399
94074SOL    HW184119   9.356   5.130   9.345
94074SOL    HW284120   9.491   5.181   9.389
94075SOL     OW84121   2.227   0.601   6.320
94075SOL    HW184122   2.226   0.531   6.255
94075SOL    HW284123   2.237   0.681   6.268
94076SOL     OW84124   1.156   1.696   8.116
94076SOL    HW184125   1.245   1.710   8.083
94076SOL    HW284126   1.167   1.681   8.210
94077SOL     OW84127   5.467   5.422  10.481
94077SOL    HW184128   5.412   5.442  10.557
94077SOL    HW284129   5.406   5.404  10.410
94078SOL     OW84130   4.639   8.559   0.551
94078SOL    HW184131   4.618   8.473   0.515
94078SOL    HW284132   4.728   8.577   0.520
94079SOL     OW84133   5.469   7.293   3.233
94079SOL    HW184134   5.396   7.288   3.171
94079SOL    HW284135   5.520   7.369   3.204
94080SOL     OW84136  11.679  11.736   6.404
94080SOL    HW184137  11.636  11.820   6.416
94080SOL    HW284138  11.705  11.735   6.312
94081SOL     OW84139   1.967   3.917  12.885
94081SOL    HW184140   1.957   3.914  12.980
94081SOL    HW284141   2.018   3.839  12.864
94082SOL     OW84142   2.523   8.861   0.773
94082SOL    HW184143   2.588   8.866   0.703
94082SOL    HW284144   2.563   8.805   0.839
94083SOL     OW84145   3.420   3.266   7.105
94083SOL    HW184146   3.470   3.299   7.030
94083SOL    HW284147   3.485   3.221   7.159
94084SOL     OW84148   1.446  10.405  10.691
94084SOL    HW184149   1.430  10.311  10.704
94084SOL    HW284150   1.395  10.448  10.759
94085SOL     OW84151   7.791  12.546   8.063
94085SOL    HW184152   7.867  12.540   8.006
94085SOL    HW284153   7.827  12.563   8.150
94086SOL     OW84154   4.900   8.686   1.828
94086SOL    HW184155   4.954   8.755   1.788
94086SOL    HW284156   4.962   8.616   1.849
94087SOL     OW84157   4.014   2.474   1.356
94087SOL    HW184158   3.960   2.475   1.434
94087SOL    HW284159   3.953   2.485   1.283
94088SOL     OW84160  10.159   5.096   0.106
94088SOL    HW184161  10.172   5.186   0.076
94088SOL    HW284162  10.081   5.100   0.162
94089SOL     OW84163   9.855   7.496   1.780
94089SOL    HW184164   9.911   7.428   1.818
94089SOL    HW284165   9.915   7.562   1.747
94090SOL     OW84166   1.479   3.259   2.995
94090SOL    HW184167   1.546   3.303   3.048
94090SOL    HW284168   1.430   3.206   3.058
94091SOL     OW84169   3.454   3.679   0.679
94091SOL    HW184170   3.390   3.614   0.651
94091SOL    HW284171   3.438   3.755   0.622
94092SOL     OW84172   4.444  12.449   4.256
94092SOL    HW184173   4.431  12.425   4.164
94092SOL    HW284174   4.531  12.417   4.276
94093SOL     OW84175   8.861   5.664   8.279
94093SOL    HW184176   8.815   5.670   8.363
94093SOL    HW284177   8.883   5.572   8.270
94094SOL     OW84178   6.631  14.261  10.406
94094SOL    HW184179   6.687  14.185  10.392
94094SOL    HW284180   6.660  14.297  10.490
94095SOL     OW84181   7.957   6.447  10.203
94095SOL    HW184182   7.891   6.493  10.255
94095SOL    HW284183   8.017   6.410  10.268
94096SOL     OW84184   5.019   8.122   0.076
94096SOL    HW184185   5.045   8.084   0.160
94096SOL    HW284186   4.924   8.130   0.082
94097SOL     OW84187  13.242   9.299   0.783
94097SOL    HW184188  13.149   9.323   0.789
94097SOL    HW284189  13.266   9.277   0.873
94098SOL     OW84190   0.724   5.956   0.668
94098SOL    HW184191   0.655   6.016   0.698
94098SOL    HW284192   0.692   5.869   0.693
94099SOL     OW84193   5.644   4.607   4.834
94099SOL    HW184194   5.677   4.620   4.922
94099SOL    HW284195   5.637   4.512   4.824
94100SOL     OW84196  10.693   0.474   6.684
94100SOL    HW184197  10.781   0.486   6.649
94100SOL    HW284198  10.681   0.379   6.686
94101SOL     OW84199   1.484   5.076   0.043
94101SOL    HW184200   1.482   5.158  14.877
94101SOL    HW284201   1.490   5.103   0.135
94102SOL     OW84202   9.470   5.162   4.858
94102SOL    HW184203   9.530   5.160   4.783
94102SOL    HW284204   9.394   5.211   4.827
94103SOL     OW84205   0.014   3.286   3.066
94103SOL    HW184206   0.074   3.237   3.011
94103SOL    HW284207   0.070   3.345   3.116
94104SOL     OW84208   4.276   9.269   6.989
94104SOL    HW184209   4.307   9.226   6.909
94104SOL    HW284210   4.265   9.360   6.964
94105SOL     OW84211  13.886   4.868  11.113
94105SOL    HW184212  13.932   4.812  11.051
94105SOL    HW284213  13.795   4.867  11.083
94106SOL     OW84214   4.650  11.869   5.222
94106SOL    HW184215   4.568  11.848   5.267
94106SOL    HW284216   4.662  11.963   5.235
94107SOL     OW84217   9.801   9.553   4.686
94107SOL    HW184218   9.806   9.538   4.780
94107SOL    HW284219   9.775   9.469   4.649
94108SOL     OW84220  10.461   7.656   7.922
94108SOL    HW184221  10.530   7.721   7.906
94108SOL    HW284222  10.425   7.679   8.007
94109SOL     OW84223   6.247   3.997  13.899
94109SOL    HW184224   6.243   3.938  13.824
94109SOL    HW284225   6.324   3.967  13.949
94110SOL     OW84226  10.194   4.831   0.452
94110SOL    HW184227  10.103   4.862   0.459
94110SOL    HW284228  10.187   4.748   0.404
94111SOL     OW84229  11.300  13.317   6.492
94111SOL    HW184230  11.318  13.376   6.566
94111SOL    HW284231  11.339  13.234   6.518
94112SOL     OW84232   5.445   5.001   0.115
94112SOL    HW184233   5.423   4.992   0.207
94112SOL    HW284234   5.457   5.095   0.101
94113SOL     OW84235  12.251   8.914   4.079
94113SOL    HW184236  12.245   8.950   4.168
94113SOL    HW284237  12.163   8.925   4.043
94114SOL     OW84238   7.741  14.148  11.319
94114SOL    HW184239   7.660  14.196  11.336
94114SOL    HW284240   7.759  14.101  11.400
94115SOL     OW84241   4.225   2.869   4.364
94115SOL    HW184242   4.306   2.920   4.367
94115SOL    HW284243   4.164   2.920   4.417
94116SOL     OW84244  13.743   2.615   9.303
94116SOL    HW184245  13.780   2.681   9.360
94116SOL    HW284246  13.649   2.619   9.319
94117SOL     OW84247   0.468  11.360   9.559
94117SOL    HW184248   0.375  11.340   9.547
94117SOL    HW284249   0.505  11.357   9.471
94118SOL     OW84250  13.158   2.478   6.518
94118SOL    HW184251  13.186   2.514   6.434
94118SOL    HW284252  13.089   2.538   6.547
94119SOL     OW84253   0.844   4.448   7.183
94119SOL    HW184254   0.795   4.421   7.105
94119SOL    HW284255   0.827   4.542   7.191
94120SOL     OW84256   5.963   2.394   1.320
94120SOL    HW184257   5.921   2.321   1.365
94120SOL    HW284258   5.992   2.452   1.391
94121SOL     OW84259   5.349   6.115   4.350
94121SOL    HW184260   5.268   6.156   4.320
94121SOL    HW284261   5.328   6.079   4.436
94122SOL     OW84262  13.126   1.676   1.839
94122SOL    HW184263  13.173   1.747   1.794
94122SOL    HW284264  13.185   1.650   1.910
94123SOL     OW84265   6.028   8.247  13.647
94123SOL    HW184266   5.964   8.187  13.609
94123SOL    HW284267   6.081   8.276  13.573
94124SOL     OW84268  11.282  12.971   8.626
94124SOL    HW184269  11.338  12.964   8.548
94124SOL    HW284270  11.288  13.063   8.651
94125SOL     OW84271   4.521   4.902  14.222
94125SOL    HW184272   4.481   4.818  14.200
94125SOL    HW284273   4.454   4.967  14.200
94126SOL     OW84274  10.747   1.931   7.520
94126SOL    HW184275  10.798   1.862   7.563
94126SOL    HW284276  10.763   1.917   7.426
94127SOL     OW84277   4.767   0.230   2.194
94127SOL    HW184278   4.694   0.212   2.135
94127SOL    HW284279   4.840   0.254   2.136
94128SOL     OW84280  13.283  12.448  12.030
94128SOL    HW184281  13.271  12.522  11.970
94128SOL    HW284282  13.304  12.488  12.114
94129SOL     OW84283   8.412   9.514   2.264
94129SOL    HW184284   8.478   9.558   2.212
94129SOL    HW284285   8.331   9.564   2.248
94130SOL     OW84286  14.556   5.653   4.451
94130SOL    HW184287  14.551   5.711   4.376
94130SOL    HW284288  14.608   5.578   4.421
94131SOL     OW84289   6.798  13.714   0.346
94131SOL    HW184290   6.801  13.757   0.260
94131SOL    HW284291   6.805  13.620   0.325
94132SOL     OW84292  14.853   7.794  14.789
94132SOL    HW184293  14.826   7.820  14.878
94132SOL    HW284294   0.045   7.736  14.802
94133SOL     OW84295  12.384   4.055   9.658
94133SOL    HW184296  12.401   4.040   9.566
94133SOL    HW284297  12.367   4.149   9.665
94134SOL     OW84298   6.148   7.708   6.816
94134SOL    HW184299   6.183   7.624   6.787
94134SOL    HW284300   6.180   7.718   6.906
94135SOL     OW84301   7.980   0.252   8.131
94135SOL    HW184302   8.028   0.318   8.080
94135SOL    HW284303   7.890   0.285   8.133
94136SOL     OW84304   7.593   3.860   7.489
94136SOL    HW184305   7.679   3.820   7.476
94136SOL    HW284306   7.531   3.793   7.459
94137SOL     OW84307  10.739  11.709   3.830
94137SOL    HW184308  10.715  11.792   3.872
94137SOL    HW284309  10.767  11.734   3.742
94138SOL     OW84310   2.823   5.343   6.457
94138SOL    HW184311   2.766   5.354   6.381
94138SOL    HW284312   2.823   5.429   6.499
94139SOL     OW84313   7.627   7.472  10.959
94139SOL    HW184314   7.716   7.438  10.958
94139SOL    HW284315   7.637   7.566  10.974
94140SOL     OW84316  10.915  14.693   9.047
94140SOL    HW184317  10.984  14.733   9.099
94140SOL    HW284318  10.960  14.627   8.994
94141SOL     OW84319   7.392   9.269   7.126
94141SOL    HW184320   7.316   9.278   7.069
94141SOL    HW284321   7.396   9.175   7.146
94142SOL     OW84322   6.993   6.630   7.844
94142SOL    HW184323   7.034   6.717   7.848
94142SOL    HW284324   6.927   6.632   7.913
94143SOL     OW84325  14.018   8.074   6.450
94143SOL    HW184326  14.064   8.158   6.452
94143SOL    HW284327  14.088   8.009   6.439
94144SOL     OW84328   2.896  13.774   8.283
94144SOL    HW184329   2.956  13.716   8.237
94144SOL    HW284330   2.858  13.720   8.352
94145SOL     OW84331  14.176  10.160   4.470
94145SOL    HW184332  14.246  10.096   4.483
94145SOL    HW284333  14.095  10.109   4.477
94146SOL     OW84334   5.317  11.634   6.096
94146SOL    HW184335   5.365  11.551   6.092
94146SOL    HW284336   5.231  11.610   6.131
94147SOL     OW84337   9.376  10.800   5.617
94147SOL    HW184338   9.288  10.812   5.653
94147SOL    HW284339   9.387  10.705   5.611
94148SOL     OW84340   8.078  12.776   2.628
94148SOL    HW184341   8.049  12.814   2.546
94148SOL    HW284342   8.061  12.682   2.618
94149SOL     OW84343   6.051  12.632   8.602
94149SOL    HW184344   5.992  12.706   8.585
94149SOL    HW284345   6.060  12.630   8.697
94150SOL     OW84346   5.350   3.021   9.690
94150SOL    HW184347   5.316   3.002   9.603
94150SOL    HW284348   5.339   2.940   9.739
94151SOL     OW84349   1.743   4.443   1.570
94151SOL    HW184350   1.766   4.509   1.505
94151SOL    HW284351   1.660   4.407   1.539
94152SOL     OW84352   6.190   2.172  10.061
94152SOL    HW184353   6.123   2.163  10.128
94152SOL    HW284354   6.253   2.234  10.098
94153SOL     OW84355  10.570  14.841   0.542
94153SOL    HW184356  10.505  14.788   0.588
94153SOL    HW284357  10.639  14.779   0.518
94154SOL     OW84358   6.485  11.601   1.209
94154SOL    HW184359   6.454  11.524   1.257
94154SOL    HW284360   6.405  11.649   1.188
94155SOL     OW84361   4.602   2.659   3.927
94155SOL    HW184362   4.547   2.734   3.907
94155SOL    HW284363   4.576   2.634   4.016
94156SOL     OW84364   8.350   1.650  12.975
94156SOL    HW184365   8.345   1.632  13.069
94156SOL    HW284366   8.392   1.572  12.938
94157SOL     OW84367   8.954   5.373  10.057
94157SOL    HW184368   8.865   5.355  10.025
94157SOL    HW284369   8.952   5.350  10.150
94158SOL     OW84370  10.747   6.785   9.919
94158SOL    HW184371  10.759   6.729   9.995
94158SOL    HW284372  10.736   6.873   9.956
94159SOL     OW84373   8.050   4.034  11.297
94159SOL    HW184374   8.085   3.956  11.254
94159SOL    HW284375   7.962   4.044  11.260
94160SOL     OW84376   0.907  11.663   4.525
94160SOL    HW184377   0.893  11.571   4.550
94160SOL    HW284378   1.000  11.668   4.503
94161SOL     OW84379   5.348  14.790   9.901
94161SOL    HW184380   5.368  14.882   9.883
94161SOL    HW284381   5.400  14.769   9.979
94162SOL     OW84382  10.981   2.024   9.124
94162SOL    HW184383  11.063   2.054   9.086
94162SOL    HW284384  10.921   2.097   9.113
94163SOL     OW84385   3.119   7.457   5.317
94163SOL    HW184386   3.091   7.548   5.320
94163SOL    HW284387   3.189   7.455   5.252
94164SOL     OW84388  12.006  10.167   7.466
94164SOL    HW184389  11.962  10.137   7.546
94164SOL    HW284390  11.993  10.262   7.466
94165SOL     OW84391   0.914  12.602   0.245
94165SOL    HW184392   0.983  12.547   0.209
94165SOL    HW284393   0.944  12.624   0.333
94166SOL     OW84394   4.041  11.353   2.605
94166SOL    HW184395   3.955  11.387   2.628
94166SOL    HW284396   4.067  11.403   2.528
94167SOL     OW84397   5.159   1.295   9.860
94167SOL    HW184398   5.116   1.381   9.860
94167SOL    HW284399   5.099   1.237   9.906
94168SOL     OW84400  12.222   3.437   4.039
94168SOL    HW184401  12.219   3.433   3.944
94168SOL    HW284402  12.267   3.356   4.065
94169SOL     OW84403   4.806  10.241   3.761
94169SOL    HW184404   4.835  10.151   3.746
94169SOL    HW284405   4.778  10.271   3.674
94170SOL     OW84406   6.806   6.224   9.512
94170SOL    HW184407   6.887   6.226   9.564
94170SOL    HW284408   6.759   6.302   9.540
94171SOL     OW84409  12.477   9.691  11.910
94171SOL    HW184410  12.551   9.712  11.853
94171SOL    HW284411  12.406   9.668  11.849
94172SOL     OW84412   2.163  10.043   3.475
94172SOL    HW184413   2.171  10.024   3.569
94172SOL    HW284414   2.235   9.994   3.434
94173SOL     OW84415  13.535   7.505   5.967
94173SOL    HW184416  13.609   7.542   6.015
94173SOL    HW284417  13.491   7.450   6.031
94174SOL     OW84418   0.201   0.265   1.509
94174SOL    HW184419   0.170   0.188   1.462
94174SOL    HW284420   0.186   0.245   1.601
94175SOL     OW84421   7.249   4.653   5.437
94175SOL    HW184422   7.312   4.706   5.388
94175SOL    HW284423   7.263   4.676   5.528
94176SOL     OW84424   4.864  14.816   2.829
94176SOL    HW184425   4.852  14.734   2.782
94176SOL    HW284426   4.869  14.790   2.921
94177SOL     OW84427  12.673   5.933   3.575
94177SOL    HW184428  12.618   5.979   3.512
94177SOL    HW284429  12.676   5.989   3.652
94178SOL     OW84430   4.025   8.141   1.144
94178SOL    HW184431   4.078   8.220   1.143
94178SOL    HW284432   4.068   8.083   1.081
94179SOL     OW84433   0.048   8.063   4.369
94179SOL    HW184434  14.867   7.992   4.365
94179SOL    HW284435  14.877   8.143   4.360
94180SOL     OW84436   4.975   1.484   8.173
94180SOL    HW184437   4.918   1.417   8.210
94180SOL    HW284438   5.059   1.471   8.217
94181SOL     OW84439   4.047   2.401   0.096
94181SOL    HW184440   4.031   2.360   0.181
94181SOL    HW284441   3.974   2.374   0.042
94182SOL     OW84442   1.387  12.356  12.121
94182SOL    HW184443   1.298  12.333  12.094
94182SOL    HW284444   1.443  12.320  12.052
94183SOL     OW84445   3.939  14.642  10.296
94183SOL    HW184446   3.922  14.601  10.381
94183SOL    HW284447   3.976  14.572  10.242
94184SOL     OW84448  13.895   0.185   5.905
94184SOL    HW184449  13.886   0.145   5.992
94184SOL    HW284450  13.809   0.222   5.887
94185SOL     OW84451  14.490   5.553  14.065
94185SOL    HW184452  14.576   5.596  14.064
94185SOL    HW284453  14.462   5.553  13.973
94186SOL     OW84454   0.532  14.769  14.090
94186SOL    HW184455   0.610  14.807  14.132
94186SOL    HW284456   0.498  14.840  14.036
94187SOL     OW84457   3.120   9.875   8.392
94187SOL    HW184458   3.184   9.818   8.351
94187SOL    HW284459   3.058   9.895   8.322
94188SOL     OW84460  10.287   0.948   7.401
94188SOL    HW184461  10.219   0.898   7.355
94188SOL    HW284462  10.281   1.036   7.364
94189SOL     OW84463  14.003   6.457   6.541
94189SOL    HW184464  13.965   6.463   6.454
94189SOL    HW284465  14.085   6.505   6.536
94190SOL     OW84466  13.374   2.108   7.205
94190SOL    HW184467  13.395   2.028   7.255
94190SOL    HW284468  13.337   2.167   7.270
94191SOL     OW84469   5.535  12.274  14.292
94191SOL    HW184470   5.626  12.256  14.272
94191SOL    HW284471   5.538  12.328  14.371
94192SOL     OW84472   2.689   1.714   7.774
94192SOL    HW184473   2.741   1.768   7.715
94192SOL    HW284474   2.749   1.644   7.801
94193SOL     OW84475  14.450   0.172  10.643
94193SOL    HW184476  14.361   0.201  10.664
94193SOL    HW284477  14.493   0.166  10.728
94194SOL     OW84478  13.544  13.720   9.200
94194SOL    HW184479  13.449  13.707   9.207
94194SOL    HW284480  13.557  13.758   9.113
94195SOL     OW84481   2.698   3.559  14.283
94195SOL    HW184482   2.763   3.520  14.342
94195SOL    HW284483   2.633   3.598  14.342
94196SOL     OW84484  14.596   8.735   0.885
94196SOL    HW184485  14.628   8.782   0.808
94196SOL    HW284486  14.529   8.793   0.923
94197SOL     OW84487   5.669  13.560  13.439
94197SOL    HW184488   5.678  13.619  13.514
94197SOL    HW284489   5.695  13.613  13.364
94198SOL     OW84490   9.603   3.423   9.616
94198SOL    HW184491   9.672   3.483   9.645
94198SOL    HW284492   9.522   3.472   9.631
94199SOL     OW84493   1.487   3.769   8.681
94199SOL    HW184494   1.569   3.815   8.666
94199SOL    HW284495   1.442   3.772   8.596
94200SOL     OW84496   8.990  14.183   8.337
94200SOL    HW184497   9.016  14.108   8.391
94200SOL    HW284498   9.063  14.244   8.344
94201SOL     OW84499  10.883   8.264  13.063
94201SOL    HW184500  10.978   8.276  13.067
94201SOL    HW284501  10.852   8.337  13.011
94202SOL     OW84502  10.464   6.059   6.017
94202SOL    HW184503  10.519   6.089   5.945
94202SOL    HW284504  10.389   6.119   6.016
94203SOL     OW84505   8.485   5.046  12.524
94203SOL    HW184506   8.567   5.064  12.479
94203SOL    HW284507   8.488   5.100  12.603
94204SOL     OW84508  12.571  10.588  10.041
94204SOL    HW184509  12.489  10.540  10.050
94204SOL    HW284510  12.632  10.543  10.099
94205SOL     OW84511  13.100   9.434  10.920
94205SOL    HW184512  13.021   9.458  10.873
94205SOL    HW284513  13.086   9.463  11.010
94206SOL     OW84514   4.779   9.515   3.619
94206SOL    HW184515   4.704   9.525   3.560
94206SOL    HW284516   4.850   9.563   3.577
94207SOL     OW84517   9.352   9.107   3.763
94207SOL    HW184518   9.305   9.025   3.747
94207SOL    HW284519   9.440   9.079   3.790
94208SOL     OW84520   8.542  11.819  13.956
94208SOL    HW184521   8.592  11.768  13.892
94208SOL    HW284522   8.466  11.850  13.907
94209SOL     OW84523   8.595   3.826   7.972
94209SOL    HW184524   8.602   3.759   8.040
94209SOL    HW284525   8.587   3.909   8.021
94210SOL     OW84526   1.389   2.627  11.818
94210SOL    HW184527   1.328   2.692  11.854
94210SOL    HW284528   1.392   2.645  11.725
94211SOL     OW84529  11.720  10.525   0.531
94211SOL    HW184530  11.661  10.509   0.605
94211SOL    HW284531  11.723  10.621   0.525
94212SOL     OW84532  11.552   8.053   0.497
94212SOL    HW184533  11.619   7.988   0.478
94212SOL    HW284534  11.600   8.133   0.518
94213SOL     OW84535  10.166  12.305   1.490
94213SOL    HW184536  10.230  12.275   1.553
94213SOL    HW284537  10.217  12.324   1.411
94214SOL     OW84538   7.387  10.821   0.110
94214SOL    HW184539   7.349  10.803   0.196
94214SOL    HW284540   7.384  10.916   0.102
94215SOL     OW84541  10.674  12.757   2.185
94215SOL    HW184542  10.735  12.780   2.255
94215SOL    HW284543  10.729  12.746   2.108
94216SOL     OW84544   1.093   9.418  10.744
94216SOL    HW184545   1.038   9.490  10.715
94216SOL    HW284546   1.072   9.407  10.837
94217SOL     OW84547   3.179   1.629   0.453
94217SOL    HW184548   3.225   1.645   0.370
94217SOL    HW284549   3.249   1.611   0.515
94218SOL     OW84550   7.961   9.343   0.477
94218SOL    HW184551   7.913   9.306   0.404
94218SOL    HW284552   7.982   9.433   0.448
94219SOL     OW84553   0.262   7.935   5.054
94219SOL    HW184554   0.277   7.970   5.142
94219SOL    HW284555   0.244   8.012   5.000
94220SOL     OW84556  10.066   3.466   9.731
94220SOL    HW184557  10.040   3.518   9.807
94220SOL    HW284558  10.029   3.513   9.657
94221SOL     OW84559   3.384   1.656   1.180
94221SOL    HW184560   3.373   1.563   1.198
94221SOL    HW284561   3.303   1.682   1.136
94222SOL     OW84562  11.889   7.065   8.464
94222SOL    HW184563  11.974   7.039   8.429
94222SOL    HW284564  11.906   7.147   8.510
94223SOL     OW84565   2.354   0.308   4.168
94223SOL    HW184566   2.416   0.373   4.200
94223SOL    HW284567   2.377   0.296   4.076
94224SOL     OW84568  14.164  14.188   3.783
94224SOL    HW184569  14.125  14.167   3.699
94224SOL    HW284570  14.122  14.128   3.845
94225SOL     OW84571  14.427   6.413   6.448
94225SOL    HW184572  14.495   6.413   6.380
94225SOL    HW284573  14.472   6.386   6.528
94226SOL     OW84574   1.753   1.698  11.818
94226SOL    HW184575   1.668   1.739  11.801
94226SOL    HW284576   1.765   1.706  11.912
94227SOL     OW84577   7.541   2.688  14.004
94227SOL    HW184578   7.474   2.636  14.048
94227SOL    HW284579   7.510   2.696  13.914
94228SOL     OW84580   1.356  14.850   3.603
94228SOL    HW184581   1.318  14.774   3.646
94228SOL    HW284582   1.351   0.038   3.668
94229SOL     OW84583   0.580   9.541   0.890
94229SOL    HW184584   0.550   9.523   0.801
94229SOL    HW284585   0.508   9.510   0.946
94230SOL     OW84586   7.909   4.882   6.386
94230SOL    HW184587   7.838   4.897   6.324
94230SOL    HW284588   7.930   4.789   6.375
94231SOL     OW84589   1.919   5.008  10.993
94231SOL    HW184590   1.910   5.010  10.898
94231SOL    HW284591   1.832   4.987  11.025
94232SOL     OW84592  14.445  12.126   5.382
94232SOL    HW184593  14.508  12.080   5.326
94232SOL    HW284594  14.461  12.091   5.469
94233SOL     OW84595   6.917   4.792  12.213
94233SOL    HW184596   6.917   4.801  12.308
94233SOL    HW284597   7.004   4.760  12.191
94234SOL     OW84598  10.064   4.383   3.408
94234SOL    HW184599  10.151   4.344   3.417
94234SOL    HW284600  10.079   4.477   3.409
94235SOL     OW84601   4.728   6.724  14.320
94235SOL    HW184602   4.744   6.678  14.403
94235SOL    HW284603   4.808   6.710  14.269
94236SOL     OW84604   0.015   3.637   8.307
94236SOL    HW184605  14.826   3.646   8.243
94236SOL    HW284606   0.082   3.697   8.276
94237SOL     OW84607   6.921   4.685   4.864
94237SOL    HW184608   6.838   4.672   4.910
94237SOL    HW284609   6.988   4.652   4.924
94238SOL     OW84610   2.243   7.385   3.453
94238SOL    HW184611   2.171   7.370   3.515
94238SOL    HW284612   2.252   7.302   3.406
94239SOL     OW84613   4.487   3.907  12.379
94239SOL    HW184614   4.466   3.991  12.417
94239SOL    HW284615   4.583   3.905  12.375
94240SOL     OW84616   6.766   5.396   7.758
94240SOL    HW184617   6.761   5.474   7.813
94240SOL    HW284618   6.676   5.380   7.730
94241SOL     OW84619   9.999   3.918  10.051
94241SOL    HW184620   9.994   3.852  10.119
94241SOL    HW284621  10.033   3.996  10.096
94242SOL     OW84622   7.817   1.367   8.465
94242SOL    HW184623   7.894   1.333   8.418
94242SOL    HW284624   7.853   1.411   8.541
94243SOL     OW84625  12.991  10.188   8.161
94243SOL    HW184626  13.014  10.250   8.231
94243SOL    HW284627  13.075  10.150   8.135
94244SOL     OW84628  11.463   4.037   2.994
94244SOL    HW184629  11.444   4.089   3.072
94244SOL    HW284630  11.424   3.952   3.012
94245SOL     OW84631   3.045   5.583  11.417
94245SOL    HW184632   2.962   5.541  11.439
94245SOL    HW284633   3.069   5.544  11.333
94246SOL     OW84634   3.294   9.318   6.000
94246SOL    HW184635   3.348   9.272   5.935
94246SOL    HW284636   3.247   9.384   5.949
94247SOL     OW84637   5.624  11.740  12.791
94247SOL    HW184638   5.609  11.695  12.708
94247SOL    HW284639   5.559  11.810  12.792
94248SOL     OW84640   2.319   4.527  14.821
94248SOL    HW184641   2.296   4.527  14.728
94248SOL    HW284642   2.327   4.435  14.845
94249SOL     OW84643   8.395  10.751   4.024
94249SOL    HW184644   8.442  10.805   4.087
94249SOL    HW284645   8.458  10.735   3.954
94250SOL     OW84646   5.444   9.905   4.997
94250SOL    HW184647   5.363   9.872   5.035
94250SOL    HW284648   5.506   9.833   5.007
94251SOL     OW84649   1.169  11.858   0.198
94251SOL    HW184650   1.162  11.945   0.158
94251SOL    HW284651   1.122  11.801   0.137
94252SOL     OW84652   5.237   7.771   0.490
94252SOL    HW184653   5.207   7.718   0.564
94252SOL    HW284654   5.288   7.711   0.436
94253SOL     OW84655  10.009   6.900   5.221
94253SOL    HW184656   9.929   6.948   5.201
94253SOL    HW284657  10.030   6.854   5.140
94254SOL     OW84658  10.523   7.432   3.066
94254SOL    HW184659  10.467   7.359   3.041
94254SOL    HW284660  10.565   7.459   2.984
94255SOL     OW84661   8.633   5.334  13.653
94255SOL    HW184662   8.688   5.362  13.580
94255SOL    HW284663   8.548   5.374  13.635
94256SOL     OW84664   8.693   7.630  14.796
94256SOL    HW184665   8.695   7.723  14.774
94256SOL    HW284666   8.687   7.629   0.010
94257SOL     OW84667  11.837  13.305  13.800
94257SOL    HW184668  11.816  13.251  13.725
94257SOL    HW284669  11.771  13.284  13.865
94258SOL     OW84670   7.768  10.863  12.542
94258SOL    HW184671   7.728  10.776  12.553
94258SOL    HW284672   7.755  10.883  12.450
94259SOL     OW84673   7.940   6.371  13.255
94259SOL    HW184674   7.932   6.438  13.188
94259SOL    HW284675   7.852   6.334  13.263
94260SOL     OW84676  13.938  14.737  13.453
94260SOL    HW184677  13.893  14.818  13.431
94260SOL    HW284678  13.879  14.693  13.515
94261SOL     OW84679  14.240  10.341   6.791
94261SOL    HW184680  14.149  10.315   6.809
94261SOL    HW284681  14.233  10.422   6.741
94262SOL     OW84682  13.656   7.330   2.456
94262SOL    HW184683  13.626   7.315   2.545
94262SOL    HW284684  13.612   7.263   2.403
94263SOL     OW84685   6.946   9.913   3.043
94263SOL    HW184686   7.006   9.960   2.986
94263SOL    HW284687   6.913   9.979   3.104
94264SOL     OW84688  10.070   0.078   9.834
94264SOL    HW184689  10.158   0.075   9.871
94264SOL    HW284690  10.067   0.160   9.784
94265SOL     OW84691   6.475   0.705   5.038
94265SOL    HW184692   6.568   0.685   5.037
94265SOL    HW284693   6.441   0.665   4.958
94266SOL     OW84694  11.250   8.638   9.588
94266SOL    HW184695  11.205   8.655   9.671
94266SOL    HW284696  11.198   8.684   9.523
94267SOL     OW84697  14.692  14.238  13.159
94267SOL    HW184698  14.704  14.330  13.135
94267SOL    HW284699  14.755  14.190  13.105
94268SOL     OW84700   2.340  10.150   2.098
94268SOL    HW184701   2.373  10.062   2.113
94268SOL    HW284702   2.364  10.170   2.008
94269SOL     OW84703   2.180   5.143   3.402
94269SOL    HW184704   2.146   5.129   3.314
94269SOL    HW284705   2.257   5.199   3.391
94270SOL     OW84706   2.075   0.267   9.224
94270SOL    HW184707   2.057   0.354   9.188
94270SOL    HW284708   1.996   0.216   9.204
94271SOL     OW84709  13.283  13.336   8.150
94271SOL    HW184710  13.301  13.369   8.062
94271SOL    HW284711  13.364  13.351   8.199
94272SOL     OW84712  13.783   5.045   6.986
94272SOL    HW184713  13.818   5.063   6.899
94272SOL    HW284714  13.856   5.007   7.034
94273SOL     OW84715   0.373  11.957  12.962
94273SOL    HW184716   0.376  11.901  12.884
94273SOL    HW284717   0.394  11.898  13.035
94274SOL     OW84718   1.870   3.457  12.810
94274SOL    HW184719   1.851   3.470  12.903
94274SOL    HW284720   1.944   3.515  12.792
94275SOL     OW84721   3.388   0.570   4.010
94275SOL    HW184722   3.333   0.502   3.972
94275SOL    HW284723   3.333   0.648   4.012
94276SOL     OW84724   0.584   2.380   3.950
94276SOL    HW184725   0.550   2.381   3.861
94276SOL    HW284726   0.600   2.287   3.968
94277SOL     OW84727   4.236   5.534  14.477
94277SOL    HW184728   4.172   5.470  14.506
94277SOL    HW284729   4.190   5.617  14.479
94278SOL     OW84730   3.977  11.149   1.110
94278SOL    HW184731   4.032  11.106   1.045
94278SOL    HW284732   3.994  11.242   1.098
94279SOL     OW84733   4.677  13.127  12.583
94279SOL    HW184734   4.750  13.168  12.536
94279SOL    HW284735   4.654  13.189  12.652
94280SOL     OW84736   1.891   9.463   2.754
94280SOL    HW184737   1.833   9.511   2.814
94280SOL    HW284738   1.906   9.524   2.682
94281SOL     OW84739  12.020  11.121   2.344
94281SOL    HW184740  12.036  11.037   2.301
94281SOL    HW284741  11.960  11.101   2.416
94282SOL     OW84742   9.000   4.570   9.077
94282SOL    HW184743   9.053   4.600   9.003
94282SOL    HW284744   9.021   4.631   9.148
94283SOL     OW84745   7.449   2.702   7.640
94283SOL    HW184746   7.403   2.640   7.696
94283SOL    HW284747   7.459   2.655   7.557
94284SOL     OW84748   8.203   6.229   9.245
94284SOL    HW184749   8.278   6.268   9.288
94284SOL    HW284750   8.227   6.137   9.233
94285SOL     OW84751   2.743   0.215   6.951
94285SOL    HW184752   2.662   0.220   6.900
94285SOL    HW284753   2.713   0.199   7.041
94286SOL     OW84754   5.965   1.220  11.298
94286SOL    HW184755   5.874   1.248  11.294
94286SOL    HW284756   5.975   1.163  11.221
94287SOL     OW84757  10.567  14.830   5.596
94287SOL    HW184758  10.543   0.033   5.560
94287SOL    HW284759  10.604  14.783   5.522
94288SOL     OW84760   1.278  13.713   7.447
94288SOL    HW184761   1.217  13.730   7.520
94288SOL    HW284762   1.232  13.747   7.370
94289SOL     OW84763  13.526  10.830   3.241
94289SOL    HW184764  13.524  10.819   3.146
94289SOL    HW284765  13.476  10.756   3.275
94290SOL     OW84766  11.744   4.089   6.147
94290SOL    HW184767  11.815   4.069   6.087
94290SOL    HW284768  11.748   4.020   6.213
94291SOL     OW84769   7.414   9.714  13.522
94291SOL    HW184770   7.422   9.795  13.472
94291SOL    HW284771   7.414   9.645  13.455
94292SOL     OW84772   5.541   6.571   0.289
94292SOL    HW184773   5.590   6.502   0.333
94292SOL    HW284774   5.607   6.638   0.268
94293SOL     OW84775   8.599  14.681  12.026
94293SOL    HW184776   8.662  14.610  12.021
94293SOL    HW284777   8.609  14.717  12.114
94294SOL     OW84778   9.187  10.857  13.790
94294SOL    HW184779   9.210  10.764  13.797
94294SOL    HW284780   9.125  10.861  13.717
94295SOL     OW84781  13.861   7.758   8.046
94295SOL    HW184782  13.868   7.851   8.067
94295SOL    HW284783  13.844   7.756   7.952
94296SOL     OW84784  10.973   2.213  14.149
94296SOL    HW184785  10.949   2.126  14.118
94296SOL    HW284786  11.056   2.232  14.104
94297SOL     OW84787   5.118  14.218  13.306
94297SOL    HW184788   5.180  14.175  13.364
94297SOL    HW284789   5.143  14.190  13.218
94298SOL     OW84790  10.264   0.256   8.942
94298SOL    HW184791  10.220   0.236   9.025
94298SOL    HW284792  10.194   0.254   8.877
94299SOL     OW84793  11.005   2.528   4.174
94299SOL    HW184794  11.014   2.436   4.149
94299SOL    HW284795  10.920   2.554   4.137
94300SOL     OW84796   7.204   5.076  13.991
94300SOL    HW184797   7.186   5.045  13.902
94300SOL    HW284798   7.201   4.996  14.045
94301SOL     OW84799   8.947   5.796   6.743
94301SOL    HW184800   8.856   5.799   6.712
94301SOL    HW284801   8.999   5.812   6.665
94302SOL     OW84802   7.190  11.816  11.117
94302SOL    HW184803   7.244  11.739  11.097
94302SOL    HW284804   7.100  11.784  11.113
94303SOL     OW84805   7.188  10.117   9.385
94303SOL    HW184806   7.173  10.112   9.480
94303SOL    HW284807   7.277  10.151   9.377
94304SOL     OW84808   5.337   0.201  11.667
94304SOL    HW184809   5.276   0.192  11.740
94304SOL    HW284810   5.388   0.279  11.688
94305SOL     OW84811   7.504   8.428  10.408
94305SOL    HW184812   7.408   8.429  10.410
94305SOL    HW284813   7.527   8.336  10.417
94306SOL     OW84814   5.802   6.257  11.334
94306SOL    HW184815   5.769   6.176  11.296
94306SOL    HW284816   5.893   6.262  11.306
94307SOL     OW84817   3.903   0.063  12.406
94307SOL    HW184818   3.855  14.864  12.391
94307SOL    HW284819   3.903   0.074  12.501
94308SOL     OW84820   6.773   2.073  12.160
94308SOL    HW184821   6.859   2.113  12.174
94308SOL    HW284822   6.748   2.040  12.247
94309SOL     OW84823   6.500  13.562   8.419
94309SOL    HW184824   6.548  13.586   8.498
94309SOL    HW284825   6.541  13.480   8.391
94310SOL     OW84826  11.563   1.171   5.246
94310SOL    HW184827  11.517   1.156   5.163
94310SOL    HW284828  11.519   1.247   5.284
94311SOL     OW84829   9.866  12.643   1.779
94311SOL    HW184830   9.922  12.607   1.710
94311SOL    HW284831   9.839  12.729   1.747
94312SOL     OW84832   4.753  13.652  13.276
94312SOL    HW184833   4.706  13.707  13.338
94312SOL    HW284834   4.757  13.566  13.318
94313SOL     OW84835   7.906   2.191  14.193
94313SOL    HW184836   7.886   2.149  14.277
94313SOL    HW284837   7.919   2.118  14.132
94314SOL     OW84838  12.987   5.279   1.442
94314SOL    HW184839  12.930   5.203   1.455
94314SOL    HW284840  12.951   5.323   1.365
94315SOL     OW84841   4.903  12.844  11.865
94315SOL    HW184842   4.904  12.809  11.775
94315SOL    HW284843   4.839  12.790  11.911
94316SOL     OW84844   1.687   9.549   6.756
94316SOL    HW184845   1.739   9.498   6.694
94316SOL    HW284846   1.597   9.543   6.723
94317SOL     OW84847   4.090  11.493  11.587
94317SOL    HW184848   4.008  11.455  11.557
94317SOL    HW284849   4.085  11.487  11.683
94318SOL     OW84850   2.635   9.446  11.838
94318SOL    HW184851   2.669   9.416  11.754
94318SOL    HW284852   2.713   9.462  11.891
94319SOL     OW84853   5.218   6.261   8.730
94319SOL    HW184854   5.209   6.291   8.639
94319SOL    HW284855   5.161   6.320   8.780
94320SOL     OW84856   9.364   2.653   0.907
94320SOL    HW184857   9.390   2.575   0.955
94320SOL    HW284858   9.279   2.630   0.868
94321SOL     OW84859   7.285   9.009  11.386
94321SOL    HW184860   7.324   9.055  11.312
94321SOL    HW284861   7.281   9.075  11.456
94322SOL     OW84862   3.634  13.759  11.188
94322SOL    HW184863   3.607  13.701  11.117
94322SOL    HW284864   3.568  13.828  11.190
94323SOL     OW84865   5.767   0.331  14.293
94323SOL    HW184866   5.806   0.403  14.243
94323SOL    HW284867   5.837   0.303  14.352
94324SOL     OW84868   4.863  12.633  10.765
94324SOL    HW184869   4.884  12.575  10.839
94324SOL    HW284870   4.768  12.631  10.759
94325SOL     OW84871   4.584  13.103   2.661
94325SOL    HW184872   4.594  13.085   2.755
94325SOL    HW284873   4.497  13.071   2.640
94326SOL     OW84874  12.759   4.658  11.495
94326SOL    HW184875  12.744   4.717  11.422
94326SOL    HW284876  12.855   4.657  11.505
94327SOL     OW84877   0.505   2.821  14.744
94327SOL    HW184878   0.451   2.785  14.815
94327SOL    HW284879   0.448   2.884  14.700
94328SOL     OW84880  14.758   3.725   5.006
94328SOL    HW184881  14.686   3.701   4.949
94328SOL    HW284882  14.729   3.702   5.094
94329SOL     OW84883   2.130  10.726   1.439
94329SOL    HW184884   2.206  10.705   1.384
94329SOL    HW284885   2.165  10.786   1.505
94330SOL     OW84886  11.318   7.546   3.470
94330SOL    HW184887  11.377   7.528   3.544
94330SOL    HW284888  11.375   7.552   3.394
94331SOL     OW84889   6.668   9.161   9.153
94331SOL    HW184890   6.624   9.227   9.206
94331SOL    HW284891   6.620   9.080   9.169
94332SOL     OW84892  11.433   3.047   8.555
94332SOL    HW184893  11.487   3.068   8.479
94332SOL    HW284894  11.395   2.962   8.535
94333SOL     OW84895   0.144   7.735   7.414
94333SOL    HW184896   0.126   7.826   7.392
94333SOL    HW284897   0.075   7.685   7.371
94334SOL     OW84898   3.141   6.016   1.012
94334SOL    HW184899   3.180   6.100   0.986
94334SOL    HW284900   3.066   6.005   0.953
94335SOL     OW84901   6.503   3.182   5.934
94335SOL    HW184902   6.578   3.205   5.879
94335SOL    HW284903   6.540   3.171   6.021
94336SOL     OW84904   6.262   9.945   8.049
94336SOL    HW184905   6.326  10.016   8.041
94336SOL    HW284906   6.187   9.985   8.093
94337SOL     OW84907  11.758   3.091   3.230
94337SOL    HW184908  11.823   3.161   3.239
94337SOL    HW284909  11.689   3.129   3.176
94338SOL     OW84910   9.498   8.412  10.270
94338SOL    HW184911   9.524   8.490  10.221
94338SOL    HW284912   9.580   8.378  10.307
94339SOL     OW84913   9.882   4.917  11.215
94339SOL    HW184914   9.863   4.884  11.127
94339SOL    HW284915   9.956   4.864  11.245
94340SOL     OW84916   5.624   4.934   1.879
94340SOL    HW184917   5.622   4.969   1.969
94340SOL    HW284918   5.577   5.000   1.827
94341SOL     OW84919   1.827  10.192  12.258
94341SOL    HW184920   1.848  10.107  12.296
94341SOL    HW284921   1.738  10.182  12.224
94342SOL     OW84922   2.549   5.781  13.359
94342SOL    HW184923   2.617   5.832  13.403
94342SOL    HW284924   2.524   5.833  13.283
94343SOL     OW84925  14.745   1.498   9.807
94343SOL    HW184926  14.828   1.546   9.804
94343SOL    HW284927  14.763   1.415   9.764
94344SOL     OW84928   6.049  11.031   6.103
94344SOL    HW184929   6.014  11.067   6.185
94344SOL    HW284930   6.048  10.936   6.117
94345SOL     OW84931  13.789   7.040   4.507
94345SOL    HW184932  13.761   7.126   4.476
94345SOL    HW284933  13.883   7.050   4.524
94346SOL     OW84934   3.462  12.088  12.405
94346SOL    HW184935   3.509  12.147  12.346
94346SOL    HW284936   3.404  12.038  12.347
94347SOL     OW84937   3.461   3.998  12.187
94347SOL    HW184938   3.546   4.042  12.173
94347SOL    HW284939   3.442   3.956  12.103
94348SOL     OW84940   8.017   2.923   0.531
94348SOL    HW184941   7.998   2.863   0.460
94348SOL    HW284942   7.935   2.971   0.545
94349SOL     OW84943  11.198   1.332   9.754
94349SOL    HW184944  11.246   1.356   9.675
94349SOL    HW284945  11.219   1.401   9.817
94350SOL     OW84946   2.579   1.659  12.316
94350SOL    HW184947   2.639   1.678  12.389
94350SOL    HW284948   2.631   1.676  12.238
94351SOL     OW84949  11.384  10.413   9.669
94351SOL    HW184950  11.445  10.385   9.600
94351SOL    HW284951  11.299  10.380   9.641
94352SOL     OW84952   5.062   3.225   9.198
94352SOL    HW184953   5.008   3.167   9.252
94352SOL    HW284954   5.001   3.290   9.164
94353SOL     OW84955   6.156   6.888  11.263
94353SOL    HW184956   6.107   6.914  11.341
94353SOL    HW284957   6.103   6.921  11.190
94354SOL     OW84958   4.722   5.532   8.298
94354SOL    HW184959   4.722   5.507   8.205
94354SOL    HW284960   4.739   5.451   8.345
94355SOL     OW84961  12.602   4.405   5.578
94355SOL    HW184962  12.521   4.453   5.594
94355SOL    HW284963  12.667   4.446   5.636
94356SOL     OW84964   5.441   9.275  13.841
94356SOL    HW184965   5.421   9.225  13.762
94356SOL    HW284966   5.379   9.243  13.906
94357SOL     OW84967   1.498   8.534  10.324
94357SOL    HW184968   1.516   8.624  10.350
94357SOL    HW284969   1.440   8.542  10.248
94358SOL     OW84970   2.222   6.155   4.396
94358SOL    HW184971   2.202   6.076   4.347
94358SOL    HW284972   2.193   6.227   4.339
94359SOL     OW84973  14.380  13.149  10.029
94359SOL    HW184974  14.424  13.121  10.109
94359SOL    HW284975  14.367  13.243  10.040
94360SOL     OW84976  14.411   7.799  10.404
94360SOL    HW184977  14.436   7.707  10.395
94360SOL    HW284978  14.489   7.847  10.376
94361SOL     OW84979  12.535   2.320   9.456
94361SOL    HW184980  12.578   2.316   9.542
94361SOL    HW284981  12.491   2.405   9.455
94362SOL     OW84982  14.359  10.858   3.118
94362SOL    HW184983  14.361  10.883   3.210
94362SOL    HW284984  14.441  10.810   3.105
94363SOL     OW84985   4.865   3.231   1.124
94363SOL    HW184986   4.881   3.271   1.038
94363SOL    HW284987   4.895   3.141   1.115
94364SOL     OW84988  13.775  12.639   4.459
94364SOL    HW184989  13.865  12.610   4.448
94364SOL    HW284990  13.728  12.562   4.489
94365SOL     OW84991   1.263   0.670  10.584
94365SOL    HW184992   1.213   0.707  10.511
94365SOL    HW284993   1.338   0.628  10.542
94366SOL     OW84994   1.022  13.756   3.171
94366SOL    HW184995   0.956  13.784   3.234
94366SOL    HW284996   0.972  13.710   3.103
94367SOL     OW84997  14.474  12.201   0.679
94367SOL    HW184998  14.445  12.222   0.590
94367SOL    HW284999  14.569  12.195   0.673
94368SOL     OW85000   5.342   3.106   0.055
94368SOL    HW185001   5.363   3.013   0.052
94368SOL    HW285002   5.345   3.134  14.845
94369SOL     OW85003   3.346   9.053  13.734
94369SOL    HW185004   3.377   9.131  13.778
94369SOL    HW285005   3.267   9.028  13.783
94370SOL     OW85006  14.255   6.877  13.952
94370SOL    HW185007  14.232   6.885  14.044
94370SOL    HW285008  14.188   6.928  13.906
94371SOL     OW85009   2.064  10.493  14.363
94371SOL    HW185010   2.031  10.574  14.326
94371SOL    HW285011   2.053  10.503  14.458
94372SOL     OW85012  12.288   4.483  11.337
94372SOL    HW185013  12.340   4.517  11.264
94372SOL    HW285014  12.238   4.559  11.367
94373SOL     OW85015   7.268  14.194   6.832
94373SOL    HW185016   7.227  14.267   6.879
94373SOL    HW285017   7.221  14.117   6.863
94374SOL     OW85018   6.185   8.989   3.506
94374SOL    HW185019   6.185   9.077   3.544
94374SOL    HW285020   6.243   8.938   3.562
94375SOL     OW85021   9.356   0.036  12.238
94375SOL    HW185022   9.409  14.856  12.190
94375SOL    HW285023   9.418   0.101  12.271
94376SOL     OW85024   3.100   4.912   6.849
94376SOL    HW185025   3.086   5.003   6.875
94376SOL    HW285026   3.176   4.884   6.899
94377SOL     OW85027   2.341  14.313   9.557
94377SOL    HW185028   2.358  14.301   9.651
94377SOL    HW285029   2.417  14.362   9.525
94378SOL     OW85030   1.083   0.915   4.950
94378SOL    HW185031   1.085   0.843   4.887
94378SOL    HW285032   1.135   0.883   5.024
94379SOL     OW85033   0.203   3.080   6.076
94379SOL    HW185034   0.269   3.101   6.010
94379SOL    HW285035   0.243   3.109   6.159
94380SOL     OW85036   5.195   3.136  12.847
94380SOL    HW185037   5.150   3.181  12.775
94380SOL    HW285038   5.124   3.110  12.906
94381SOL     OW85039   8.531   7.907   4.108
94381SOL    HW185040   8.567   7.995   4.116
94381SOL    HW285041   8.606   7.852   4.088
94382SOL     OW85042  13.851  10.278  13.123
94382SOL    HW185043  13.836  10.372  13.133
94382SOL    HW285044  13.789  10.250  13.056
94383SOL     OW85045   3.704  13.348   4.573
94383SOL    HW185046   3.768  13.419   4.583
94383SOL    HW285047   3.756  13.272   4.545
94384SOL     OW85048   9.138   4.128  14.360
94384SOL    HW185049   9.170   4.204  14.311
94384SOL    HW285050   9.050   4.153  14.386
94385SOL     OW85051   5.431  10.458   2.786
94385SOL    HW185052   5.431  10.546   2.822
94385SOL    HW285053   5.523  10.433   2.782
94386SOL     OW85054   4.219  13.571   4.748
94386SOL    HW185055   4.179  13.644   4.795
94386SOL    HW285056   4.272  13.526   4.814
94387SOL     OW85057   0.997   1.337   1.603
94387SOL    HW185058   0.947   1.406   1.647
94387SOL    HW285059   0.978   1.349   1.510
94388SOL     OW85060   7.278   9.376  12.513
94388SOL    HW185061   7.358   9.358  12.562
94388SOL    HW285062   7.222   9.300  12.530
94389SOL     OW85063   3.535  13.913   9.457
94389SOL    HW185064   3.540  14.003   9.488
94389SOL    HW285065   3.615  13.900   9.406
94390SOL     OW85066  13.084   3.329   1.746
94390SOL    HW185067  13.078   3.322   1.651
94390SOL    HW285068  12.993   3.336   1.776
94391SOL     OW85069   7.534   5.301   9.471
94391SOL    HW185070   7.541   5.220   9.420
94391SOL    HW285071   7.471   5.354   9.423
94392SOL     OW85072   2.568   4.521  11.085
94392SOL    HW185073   2.618   4.440  11.092
94392SOL    HW285074   2.601   4.576  11.156
94393SOL     OW85075   8.759  13.982   7.359
94393SOL    HW185076   8.780  14.022   7.275
94393SOL    HW285077   8.780  13.889   7.347
94394SOL     OW85078   9.923   6.857   3.838
94394SOL    HW185079   9.971   6.774   3.838
94394SOL    HW285080   9.835   6.833   3.868
94395SOL     OW85081   2.464   2.731   0.309
94395SOL    HW185082   2.439   2.822   0.290
94395SOL    HW285083   2.459   2.724   0.404
94396SOL     OW85084   8.130   7.407   7.843
94396SOL    HW185085   8.122   7.424   7.749
94396SOL    HW285086   8.117   7.313   7.852
94397SOL     OW85087   3.373   5.708   0.420
94397SOL    HW185088   3.426   5.650   0.366
94397SOL    HW285089   3.430   5.782   0.440
94398SOL     OW85090  11.440   5.778  13.581
94398SOL    HW185091  11.483   5.823  13.509
94398SOL    HW285092  11.365   5.834  13.603
94399SOL     OW85093   6.921  13.655   4.408
94399SOL    HW185094   6.948  13.745   4.393
94399SOL    HW285095   6.833  13.649   4.371
94400SOL     OW85096   5.729  13.378   5.206
94400SOL    HW185097   5.687  13.349   5.126
94400SOL    HW285098   5.799  13.436   5.177
94401SOL     OW85099  14.803   8.083  13.726
94401SOL    HW185100  14.814   8.159  13.783
94401SOL    HW285101  14.882   8.031  13.740
94402SOL     OW85102  14.692   9.121   8.265
94402SOL    HW185103  14.614   9.165   8.298
94402SOL    HW285104  14.659   9.055   8.205
94403SOL     OW85105  10.305   2.512   2.886
94403SOL    HW185106  10.348   2.580   2.938
94403SOL    HW285107  10.212   2.531   2.895
94404SOL     OW85108   8.765   1.034   0.704
94404SOL    HW185109   8.764   1.072   0.616
94404SOL    HW285110   8.754   1.109   0.762
94405SOL     OW85111   4.733   3.388   8.905
94405SOL    HW185112   4.725   3.470   8.856
94405SOL    HW285113   4.644   3.354   8.911
94406SOL     OW85114  12.979  11.784   4.779
94406SOL    HW185115  13.011  11.748   4.696
94406SOL    HW285116  12.886  11.761   4.781
94407SOL     OW85117  14.263   2.987   9.424
94407SOL    HW185118  14.344   2.939   9.439
94407SOL    HW285119  14.291   3.070   9.387
94408SOL     OW85120  13.033   1.073  11.949
94408SOL    HW185121  13.032   1.169  11.945
94408SOL    HW285122  13.102   1.053  12.013
94409SOL     OW85123   9.610   9.455  11.705
94409SOL    HW185124   9.576   9.544  11.709
94409SOL    HW285125   9.662   9.452  11.626
94410SOL     OW85126   0.816   6.621  12.453
94410SOL    HW185127   0.843   6.566  12.380
94410SOL    HW285128   0.748   6.570  12.498
94411SOL     OW85129   3.898  11.988  13.618
94411SOL    HW185130   3.839  12.029  13.555
94411SOL    HW285131   3.927  11.908  13.574
94412SOL     OW85132  14.098   0.091   9.131
94412SOL    HW185133  14.122  14.881   9.137
94412SOL    HW285134  14.077   0.117   9.221
94413SOL     OW85135  12.906  11.185   8.847
94413SOL    HW185136  12.816  11.183   8.878
94413SOL    HW285137  12.957  11.148   8.919
94414SOL     OW85138   8.494  12.623  13.674
94414SOL    HW185139   8.497  12.558  13.744
94414SOL    HW285140   8.452  12.578  13.601
94415SOL     OW85141   7.924  14.664   2.810
94415SOL    HW185142   7.965  14.750   2.808
94415SOL    HW285143   7.854  14.672   2.874
94416SOL     OW85144   8.892  10.528   5.778
94416SOL    HW185145   8.927  10.490   5.859
94416SOL    HW285146   8.849  10.454   5.734
94417SOL     OW85147  12.744   1.919  14.087
94417SOL    HW185148  12.800   1.926  14.165
94417SOL    HW285149  12.699   1.835  14.097
94418SOL     OW85150   6.155   5.244   4.935
94418SOL    HW185151   6.067   5.264   4.967
94418SOL    HW285152   6.175   5.315   4.874
94419SOL     OW85153   8.121   8.991   2.000
94419SOL    HW185154   8.056   8.951   1.942
94419SOL    HW285155   8.107   9.085   1.991
94420SOL     OW85156   0.383   7.346   1.676
94420SOL    HW185157   0.303   7.395   1.658
94420SOL    HW285158   0.425   7.335   1.591
94421SOL     OW85159   5.024   9.204   6.831
94421SOL    HW185160   4.935   9.177   6.808
94421SOL    HW285161   5.026   9.298   6.813
94422SOL     OW85162   6.960   1.387  14.871
94422SOL    HW185163   7.019   1.425  14.807
94422SOL    HW285164   7.000   1.302   0.011
94423SOL     OW85165  10.209   1.127   2.112
94423SOL    HW185166  10.258   1.203   2.143
94423SOL    HW285167  10.147   1.162   2.049
94424SOL     OW85168  10.953   0.141  10.739
94424SOL    HW185169  10.880   0.200  10.720
94424SOL    HW285170  10.924   0.091  10.815
94425SOL     OW85171   5.652   2.794   6.329
94425SOL    HW185172   5.692   2.715   6.365
94425SOL    HW285173   5.706   2.816   6.254
94426SOL     OW85174   2.018   0.998  13.368
94426SOL    HW185175   2.083   0.988  13.298
94426SOL    HW285176   2.054   1.066  13.425
94427SOL     OW85177  11.588   0.849  14.124
94427SOL    HW185178  11.542   0.833  14.206
94427SOL    HW285179  11.631   0.766  14.103
94428SOL     OW85180   1.750  10.296   1.642
94428SOL    HW185181   1.823  10.273   1.584
94428SOL    HW285182   1.727  10.214   1.685
94429SOL     OW85183  14.193   1.449   8.689
94429SOL    HW185184  14.288   1.457   8.703
94429SOL    HW285185  14.172   1.520   8.629
94430SOL     OW85186  11.456  12.002   9.837
94430SOL    HW185187  11.420  12.089   9.852
94430SOL    HW285188  11.396  11.943   9.883
94431SOL     OW85189   9.636  12.809  11.086
94431SOL    HW185190   9.631  12.803  11.181
94431SOL    HW285191   9.566  12.869  11.062
94432SOL     OW85192   0.856   0.757   4.631
94432SOL    HW185193   0.877   0.793   4.545
94432SOL    HW285194   0.762   0.741   4.629
94433SOL     OW85195  14.345  11.932  10.871
94433SOL    HW185196  14.364  11.878  10.947
94433SOL    HW285197  14.423  11.986  10.859
94434SOL     OW85198   4.254   0.322  13.778
94434SOL    HW185199   4.202   0.258  13.729
94434SOL    HW285200   4.210   0.406  13.762
94435SOL     OW85201   6.306   1.693  10.884
94435SOL    HW185202   6.294   1.788  10.891
94435SOL    HW285203   6.373   1.682  10.817
94436SOL     OW85204   9.908  13.113  12.663
94436SOL    HW185205   9.949  13.193  12.697
94436SOL    HW285206   9.893  13.131  12.571
94437SOL     OW85207   3.272   9.164   1.339
94437SOL    HW185208   3.229   9.249   1.328
94437SOL    HW285209   3.357   9.185   1.377
94438SOL     OW85210   3.435   5.687   3.189
94438SOL    HW185211   3.493   5.763   3.179
94438SOL    HW285212   3.473   5.639   3.263
94439SOL     OW85213  10.082   2.048   3.657
94439SOL    HW185214  10.058   2.134   3.691
94439SOL    HW285215  10.003   2.017   3.614
94440SOL     OW85216   4.194   7.639  14.318
94440SOL    HW185217   4.219   7.732  14.325
94440SOL    HW285218   4.225   7.613  14.231
94441SOL     OW85219   7.913   2.208   4.047
94441SOL    HW185220   7.973   2.134   4.054
94441SOL    HW285221   7.840   2.185   4.105
94442SOL     OW85222   6.383   4.365   3.313
94442SOL    HW185223   6.360   4.406   3.396
94442SOL    HW285224   6.324   4.290   3.306
94443SOL     OW85225   4.419   0.867   7.830
94443SOL    HW185226   4.439   0.830   7.916
94443SOL    HW285227   4.395   0.958   7.848
94444SOL     OW85228   0.464   3.723   7.878
94444SOL    HW185229   0.402   3.662   7.838
94444SOL    HW285230   0.479   3.689   7.966
94445SOL     OW85231   9.580  11.449   0.123
94445SOL    HW185232   9.495  11.434   0.164
94445SOL    HW285233   9.638  11.471   0.196
94446SOL     OW85234  10.785  11.011   0.410
94446SOL    HW185235  10.773  11.105   0.426
94446SOL    HW285236  10.702  10.982   0.374
94447SOL     OW85237   1.410   7.309  14.032
94447SOL    HW185238   1.476   7.323  13.965
94447SOL    HW285239   1.359   7.234  14.001
94448SOL     OW85240   1.670   0.332   0.820
94448SOL    HW185241   1.661   0.396   0.749
94448SOL    HW285242   1.635   0.377   0.897
94449SOL     OW85243   5.055   4.381   5.919
94449SOL    HW185244   4.982   4.426   5.962
94449SOL    HW285245   5.098   4.449   5.867
94450SOL     OW85246  14.211   7.550   0.171
94450SOL    HW185247  14.124   7.515   0.189
94450SOL    HW285248  14.199   7.645   0.168
94451SOL     OW85249   2.135   2.113   3.253
94451SOL    HW185250   2.090   2.048   3.307
94451SOL    HW285251   2.121   2.196   3.298
94452SOL     OW85252   5.628   7.887   3.276
94452SOL    HW185253   5.705   7.856   3.228
94452SOL    HW285254   5.555   7.868   3.218
94453SOL     OW85255  10.613   4.669  14.301
94453SOL    HW185256  10.677   4.606  14.333
94453SOL    HW285257  10.528   4.629  14.318
94454SOL     OW85258   1.440   3.243  13.371
94454SOL    HW185259   1.443   3.197  13.287
94454SOL    HW285260   1.514   3.303  13.367
94455SOL     OW85261   7.751   7.537   1.164
94455SOL    HW185262   7.745   7.442   1.161
94455SOL    HW285263   7.684   7.568   1.103
94456SOL     OW85264   6.060   6.383   7.180
94456SOL    HW185265   6.131   6.378   7.115
94456SOL    HW285266   6.082   6.461   7.232
94457SOL     OW85267  11.209   2.080  13.747
94457SOL    HW185268  11.301   2.065  13.767
94457SOL    HW285269  11.206   2.086  13.651
94458SOL     OW85270   0.344   6.617   4.216
94458SOL    HW185271   0.317   6.674   4.143
94458SOL    HW285272   0.432   6.648   4.239
94459SOL     OW85273  13.233  11.855   1.906
94459SOL    HW185274  13.299  11.862   1.837
94459SOL    HW285275  13.280  11.820   1.981
94460SOL     OW85276  13.021  11.704   6.758
94460SOL    HW185277  12.989  11.773   6.816
94460SOL    HW285278  13.115  11.722   6.749
94461SOL     OW85279   7.315  12.221   2.905
94461SOL    HW185280   7.300  12.133   2.941
94461SOL    HW285281   7.312  12.279   2.982
94462SOL     OW85282   0.181  10.279   9.041
94462SOL    HW185283   0.166  10.312   8.952
94462SOL    HW285284   0.180  10.184   9.032
94463SOL     OW85285   0.176   5.782   4.482
94463SOL    HW185286   0.163   5.872   4.452
94463SOL    HW285287   0.088   5.745   4.487
94464SOL     OW85288   4.031   5.849   4.885
94464SOL    HW185289   4.084   5.895   4.950
94464SOL    HW285290   4.086   5.846   4.806
94465SOL     OW85291  14.483   3.753  10.252
94465SOL    HW185292  14.486   3.802  10.334
94465SOL    HW285293  14.558   3.783  10.203
94466SOL     OW85294   5.310   8.892   9.189
94466SOL    HW185295   5.224   8.903   9.149
94466SOL    HW285296   5.324   8.798   9.190
94467SOL     OW85297   9.731  14.482   4.752
94467SOL    HW185298   9.809  14.528   4.723
94467SOL    HW285299   9.664  14.550   4.758
94468SOL     OW85300  11.224   2.781   9.971
94468SOL    HW185301  11.139   2.785   9.928
94468SOL    HW285302  11.242   2.687   9.981
94469SOL     OW85303   0.695   0.318   6.825
94469SOL    HW185304   0.777   0.276   6.853
94469SOL    HW285305   0.718   0.362   6.743
94470SOL     OW85306   5.847  13.324  12.387
94470SOL    HW185307   5.850  13.250  12.327
94470SOL    HW285308   5.782  13.299  12.452
94471SOL     OW85309   1.388   0.987   9.234
94471SOL    HW185310   1.451   0.932   9.187
94471SOL    HW285311   1.344   0.926   9.294
94472SOL     OW85312   4.678   9.399   5.624
94472SOL    HW185313   4.706   9.341   5.554
94472SOL    HW285314   4.615   9.458   5.582
94473SOL     OW85315   8.626  11.101   1.568
94473SOL    HW185316   8.693  11.085   1.502
94473SOL    HW285317   8.621  11.019   1.617
94474SOL     OW85318   7.660   7.279  11.969
94474SOL    HW185319   7.565   7.289  11.972
94474SOL    HW285320   7.677   7.197  12.015
94475SOL     OW85321  11.708   0.081   9.098
94475SOL    HW185322  11.678   0.029   9.024
94475SOL    HW285323  11.628   0.122   9.132
94476SOL     OW85324   0.637   1.807   3.556
94476SOL    HW185325   0.723   1.847   3.571
94476SOL    HW285326   0.575   1.879   3.569
94477SOL     OW85327  11.903   0.486   4.190
94477SOL    HW185328  11.844   0.412   4.202
94477SOL    HW285329  11.901   0.504   4.096
94478SOL     OW85330   2.713   3.550   9.078
94478SOL    HW185331   2.641   3.586   9.027
94478SOL    HW285332   2.686   3.562   9.169
94479SOL     OW85333   8.578   8.003   8.476
94479SOL    HW185334   8.555   7.920   8.518
94479SOL    HW285335   8.562   8.069   8.544
94480SOL     OW85336   6.210   5.251   2.962
94480SOL    HW185337   6.200   5.157   2.977
94480SOL    HW285338   6.223   5.258   2.867
94481SOL     OW85339  10.105  11.087  13.550
94481SOL    HW185340  10.044  11.035  13.497
94481SOL    HW285341  10.100  11.047  13.637
94482SOL     OW85342  14.790  14.661  12.737
94482SOL    HW185343  14.789  14.590  12.672
94482SOL    HW285344  14.702  14.660  12.774
94483SOL     OW85345   9.897   5.819  12.101
94483SOL    HW185346   9.895   5.890  12.164
94483SOL    HW285347   9.978   5.772  12.120
94484SOL     OW85348  11.351  14.601   3.293
94484SOL    HW185349  11.322  14.515   3.262
94484SOL    HW285350  11.436  14.614   3.250
94485SOL     OW85351   4.945   7.389   9.119
94485SOL    HW185352   4.856   7.358   9.100
94485SOL    HW285353   5.000   7.347   9.053
94486SOL     OW85354  12.282  13.637  11.769
94486SOL    HW185355  12.354  13.645  11.706
94486SOL    HW285356  12.290  13.547  11.802
94487SOL     OW85357   5.843   6.751   0.604
94487SOL    HW185358   5.891   6.832   0.586
94487SOL    HW285359   5.893   6.683   0.558
94488SOL     OW85360   1.182   0.969   2.528
94488SOL    HW185361   1.220   1.009   2.606
94488SOL    HW285362   1.145   1.043   2.479
94489SOL     OW85363  11.990  13.178  12.305
94489SOL    HW185364  12.015  13.268  12.285
94489SOL    HW285365  12.072  13.130  12.309
94490SOL     OW85366   5.293  14.708  10.632
94490SOL    HW185367   5.234  14.783  10.637
94490SOL    HW285368   5.252  14.650  10.568
94491SOL     OW85369   5.773  10.130  13.624
94491SOL    HW185370   5.739  10.104  13.538
94491SOL    HW285371   5.732  10.214  13.642
94492SOL     OW85372   4.614   8.760  12.518
94492SOL    HW185373   4.622   8.699  12.444
94492SOL    HW285374   4.698   8.755  12.563
94493SOL     OW85375   3.608  14.763  12.598
94493SOL    HW185376   3.561  14.683  12.622
94493SOL    HW285377   3.588  14.824  12.668
94494SOL     OW85378  11.947   8.345   1.805
94494SOL    HW185379  11.895   8.295   1.868
94494SOL    HW285380  11.881   8.387   1.749
94495SOL     OW85381   4.628   7.883   1.730
94495SOL    HW185382   4.706   7.833   1.706
94495SOL    HW285383   4.626   7.956   1.668
94496SOL     OW85384   6.061   2.853   9.406
94496SOL    HW185385   6.111   2.772   9.410
94496SOL    HW285386   6.052   2.881   9.497
94497SOL     OW85387  12.846   1.365   4.604
94497SOL    HW185388  12.917   1.302   4.614
94497SOL    HW285389  12.810   1.374   4.692
94498SOL     OW85390  10.415  12.244  11.841
94498SOL    HW185391  10.491  12.215  11.790
94498SOL    HW285392  10.452  12.307  11.903
94499SOL     OW85393   5.835   8.443  12.312
94499SOL    HW185394   5.913   8.418  12.263
94499SOL    HW285395   5.770   8.464  12.244
94500SOL     OW85396  14.755   1.724  11.319
94500SOL    HW185397  14.675   1.678  11.344
94500SOL    HW285398  14.729   1.815  11.308
94501SOL     OW85399   1.476   7.506   9.503
94501SOL    HW185400   1.440   7.577   9.448
94501SOL    HW285401   1.527   7.453   9.442
94502SOL     OW85402  13.345   2.272   4.668
94502SOL    HW185403  13.382   2.202   4.615
94502SOL    HW285404  13.295   2.226   4.736
94503SOL     OW85405   8.113   4.781   5.305
94503SOL    HW185406   8.096   4.873   5.325
94503SOL    HW285407   8.178   4.783   5.235
94504SOL     OW85408   1.461   6.873   6.002
94504SOL    HW185409   1.517   6.824   6.063
94504SOL    HW285410   1.473   6.964   6.027
94505SOL     OW85411   7.965  11.695   2.753
94505SOL    HW185412   7.960  11.785   2.721
94505SOL    HW285413   7.918  11.643   2.688
94506SOL     OW85414   6.211   2.708  12.707
94506SOL    HW185415   6.251   2.778  12.655
94506SOL    HW285416   6.285   2.662  12.746
94507SOL     OW85417   6.740   9.407   4.684
94507SOL    HW185418   6.720   9.317   4.656
94507SOL    HW285419   6.661   9.436   4.728
94508SOL     OW85420   1.505  13.762   7.646
94508SOL    HW185421   1.459  13.846   7.654
94508SOL    HW285422   1.445  13.708   7.594
94509SOL     OW85423   4.185   6.872  13.831
94509SOL    HW185424   4.098   6.893  13.797
94509SOL    HW285425   4.171   6.854  13.924
94510SOL     OW85426  13.409  11.029   5.693
94510SOL    HW185427  13.383  10.942   5.661
94510SOL    HW285428  13.360  11.090   5.638
94511SOL     OW85429   0.373   7.803   9.503
94511SOL    HW185430   0.345   7.831   9.590
94511SOL    HW285431   0.292   7.801   9.452
94512SOL     OW85432  10.085  12.943  10.495
94512SOL    HW185433  10.167  12.957  10.447
94512SOL    HW285434  10.079  12.848  10.505
94513SOL     OW85435  12.951   2.825   9.153
94513SOL    HW185436  12.885   2.768   9.113
94513SOL    HW285437  13.034   2.794   9.117
94514SOL     OW85438  13.826   6.675  10.439
94514SOL    HW185439  13.838   6.706  10.349
94514SOL    HW285440  13.834   6.580  10.432
94515SOL     OW85441  10.653   1.534  12.286
94515SOL    HW185442  10.639   1.449  12.327
94515SOL    HW285443  10.688   1.514  12.199
94516SOL     OW85444   5.530   0.624  13.949
94516SOL    HW185445   5.613   0.629  13.902
94516SOL    HW285446   5.554   0.595  14.037
94517SOL     OW85447   0.893   7.867  10.605
94517SOL    HW185448   0.909   7.887  10.513
94517SOL    HW285449   0.820   7.806  10.605
94518SOL     OW85450   0.995   1.354   4.409
94518SOL    HW185451   1.070   1.322   4.359
94518SOL    HW285452   1.034   1.398   4.485
94519SOL     OW85453   3.496  13.027  12.407
94519SOL    HW185454   3.464  12.938  12.420
94519SOL    HW285455   3.529  13.053  12.494
94520SOL     OW85456  10.626  14.658  11.172
94520SOL    HW185457  10.601  14.569  11.146
94520SOL    HW285458  10.636  14.705  11.090
94521SOL     OW85459   1.888  10.829  14.416
94521SOL    HW185460   1.911  10.894  14.348
94521SOL    HW285461   1.858  10.753  14.367
94522SOL     OW85462   5.605  10.299  12.426
94522SOL    HW185463   5.577  10.242  12.354
94522SOL    HW285464   5.617  10.385  12.385
94523SOL     OW85465  12.670   3.756   4.159
94523SOL    HW185466  12.684   3.779   4.250
94523SOL    HW285467  12.626   3.671   4.162
94524SOL     OW85468  14.136  12.703  13.618
94524SOL    HW185469  14.172  12.791  13.631
94524SOL    HW285470  14.208  12.644  13.637
94525SOL     OW85471  11.873  14.613  13.448
94525SOL    HW185472  11.871  14.622  13.544
94525SOL    HW285473  11.857  14.520  13.433
94526SOL     OW85474  10.538   2.970   7.412
94526SOL    HW185475  10.621   2.956   7.366
94526SOL    HW285476  10.553   3.048   7.465
94527SOL     OW85477   1.866   0.658   5.028
94527SOL    HW185478   1.912   0.651   4.944
94527SOL    HW285479   1.784   0.703   5.007
94528SOL     OW85480  13.746   6.186  10.145
94528SOL    HW185481  13.825   6.211  10.097
94528SOL    HW285482  13.684   6.257  10.129
94529SOL     OW85483  13.783   8.153   3.254
94529SOL    HW185484  13.721   8.219   3.224
94529SOL    HW285485  13.744   8.069   3.227
94530SOL     OW85486  11.325   3.206  10.463
94530SOL    HW185487  11.305   3.282  10.519
94530SOL    HW285488  11.308   3.130  10.519
94531SOL     OW85489   9.992   4.310   1.567
94531SOL    HW185490  10.062   4.373   1.550
94531SOL    HW285491   9.971   4.275   1.480
94532SOL     OW85492  10.433   7.069   8.492
94532SOL    HW185493  10.499   7.025   8.440
94532SOL    HW285494  10.482   7.129   8.548
94533SOL     OW85495   3.088   3.055   4.605
94533SOL    HW185496   3.058   3.019   4.521
94533SOL    HW285497   3.088   3.150   4.591
94534SOL     OW85498  10.767   7.048   7.675
94534SOL    HW185499  10.709   6.985   7.633
94534SOL    HW285500  10.845   6.998   7.698
94535SOL     OW85501   1.626   8.894   6.555
94535SOL    HW185502   1.550   8.888   6.497
94535SOL    HW285503   1.694   8.843   6.511
94536SOL     OW85504  10.035   0.062  11.402
94536SOL    HW185505   9.977  14.878  11.365
94536SOL    HW285506   9.994   0.088  11.484
94537SOL     OW85507   6.884   3.152   2.085
94537SOL    HW185508   6.954   3.216   2.101
94537SOL    HW285509   6.891   3.089   2.156
94538SOL     OW85510   8.290  13.259   9.034
94538SOL    HW185511   8.233  13.322   9.079
94538SOL    HW285512   8.365  13.311   9.005
94539SOL     OW85513  13.389  12.814   9.092
94539SOL    HW185514  13.435  12.829   9.175
94539SOL    HW285515  13.412  12.724   9.068
94540SOL     OW85516   8.069   0.081   4.491
94540SOL    HW185517   8.082   0.113   4.580
94540SOL    HW285518   8.145   0.113   4.443
94541SOL     OW85519  11.060  11.240   5.575
94541SOL    HW185520  11.061  11.184   5.652
94541SOL    HW285521  10.979  11.290   5.582
94542SOL     OW85522   1.059  10.440   9.101
94542SOL    HW185523   1.044  10.475   9.012
94542SOL    HW285524   0.983  10.385   9.118
94543SOL     OW85525   5.747   0.294  13.818
94543SOL    HW185526   5.740   0.384  13.851
94543SOL    HW285527   5.658   0.259  13.825
94544SOL     OW85528   8.973  13.852  12.843
94544SOL    HW185529   8.994  13.761  12.862
94544SOL    HW285530   8.957  13.853  12.749
94545SOL     OW85531  12.308  14.778   0.704
94545SOL    HW185532  12.288  14.798   0.796
94545SOL    HW285533  12.316  14.863   0.663
94546SOL     OW85534   9.994  10.086   7.730
94546SOL    HW185535   9.901  10.064   7.735
94546SOL    HW285536  10.031  10.023   7.668
94547SOL     OW85537   9.185  11.829   5.240
94547SOL    HW185538   9.106  11.775   5.238
94547SOL    HW285539   9.178  11.885   5.162
94548SOL     OW85540   7.034  13.719   2.322
94548SOL    HW185541   7.069  13.668   2.249
94548SOL    HW285542   6.953  13.674   2.346
94549SOL     OW85543  12.867   0.801  11.587
94549SOL    HW185544  12.929   0.835  11.652
94549SOL    HW285545  12.904   0.828  11.503
94550SOL     OW85546   5.273   2.448  10.836
94550SOL    HW185547   5.206   2.390  10.799
94550SOL    HW285548   5.351   2.430  10.784
94551SOL     OW85549   3.741  11.758  11.928
94551SOL    HW185550   3.804  11.790  11.993
94551SOL    HW285551   3.771  11.794  11.845
94552SOL     OW85552   1.795   0.936  12.293
94552SOL    HW185553   1.722   0.938  12.231
94552SOL    HW285554   1.842   0.855  12.271
94553SOL     OW85555   7.434   8.674   5.122
94553SOL    HW185556   7.411   8.644   5.034
94553SOL    HW285557   7.357   8.651   5.175
94554SOL     OW85558   2.336  11.562  11.803
94554SOL    HW185559   2.250  11.522  11.795
94554SOL    HW285560   2.374  11.555  11.715
94555SOL     OW85561  10.360   5.699  10.843
94555SOL    HW185562  10.410   5.773  10.807
94555SOL    HW285563  10.275   5.705  10.800
94556SOL     OW85564   2.086   6.784   9.208
94556SOL    HW185565   2.080   6.873   9.245
94556SOL    HW285566   2.089   6.798   9.113
94557SOL     OW85567   0.949  10.468   5.991
94557SOL    HW185568   0.997  10.534   5.943
94557SOL    HW285569   1.011  10.395   5.999
94558SOL     OW85570   9.899   4.816   4.272
94558SOL    HW185571   9.960   4.877   4.231
94558SOL    HW285572   9.953   4.740   4.294
94559SOL     OW85573   3.935   0.612   4.891
94559SOL    HW185574   4.025   0.643   4.884
94559SOL    HW285575   3.928   0.577   4.980
94560SOL     OW85576   4.222   3.926   9.117
94560SOL    HW185577   4.243   3.833   9.105
94560SOL    HW285578   4.193   3.955   9.031
94561SOL     OW85579   7.238   3.669   7.693
94561SOL    HW185580   7.190   3.750   7.678
94561SOL    HW285581   7.284   3.683   7.775
94562SOL     OW85582  10.168  13.658   9.350
94562SOL    HW185583  10.250  13.681   9.306
94562SOL    HW285584  10.193  13.597   9.418
94563SOL     OW85585   0.118   0.308  14.208
94563SOL    HW185586   0.129   0.282  14.300
94563SOL    HW285587   0.145   0.400  14.206
94564SOL     OW85588  12.030   0.721   8.278
94564SOL    HW185589  12.008   0.814   8.270
94564SOL    HW285590  12.121   0.720   8.309
94565SOL     OW85591   6.678   9.949   0.299
94565SOL    HW185592   6.731  10.027   0.312
94565SOL    HW285593   6.690   9.927   0.207
94566SOL     OW85594   9.227  13.764   1.199
94566SOL    HW185595   9.291  13.744   1.131
94566SOL    HW285596   9.270  13.830   1.253
94567SOL     OW85597   7.104   0.442  13.523
94567SOL    HW185598   7.052   0.404  13.452
94567SOL    HW285599   7.113   0.370  13.586
94568SOL     OW85600  12.196   9.129  14.610
94568SOL    HW185601  12.263   9.137  14.678
94568SOL    HW285602  12.243   9.143  14.528
94569SOL     OW85603   4.478   3.818  10.840
94569SOL    HW185604   4.551   3.859  10.793
94569SOL    HW285605   4.406   3.880  10.832
94570SOL     OW85606   0.008  11.356  11.805
94570SOL    HW185607  14.839  11.275  11.799
94570SOL    HW285608   0.051  11.363  11.720
94571SOL     OW85609   2.838   2.237   7.321
94571SOL    HW185610   2.826   2.326   7.352
94571SOL    HW285611   2.750   2.200   7.317
94572SOL     OW85612  14.865   2.550   9.019
94572SOL    HW185613  14.856   2.637   8.980
94572SOL    HW285614  14.785   2.504   8.993
94573SOL     OW85615   8.328   7.150   8.884
94573SOL    HW185616   8.306   7.080   8.946
94573SOL    HW285617   8.423   7.153   8.884
94574SOL     OW85618  14.098  13.297  13.347
94574SOL    HW185619  14.007  13.323  13.359
94574SOL    HW285620  14.094  13.218  13.294
94575SOL     OW85621  14.833  11.157  11.187
94575SOL    HW185622  14.738  11.166  11.181
94575SOL    HW285623  14.864  11.172  11.097
94576SOL     OW85624  10.915  10.308   6.614
94576SOL    HW185625  10.989  10.353   6.574
94576SOL    HW285626  10.891  10.362   6.689
94577SOL     OW85627  13.763  12.664  14.742
94577SOL    HW185628  13.810  12.747  14.747
94577SOL    HW285629  13.779  12.632  14.653
94578SOL     OW85630   4.492   3.612  14.638
94578SOL    HW185631   4.469   3.701  14.664
94578SOL    HW285632   4.417   3.559  14.663
94579SOL     OW85633   1.590   8.953   0.954
94579SOL    HW185634   1.623   8.945   0.865
94579SOL    HW285635   1.508   8.902   0.953
94580SOL     OW85636  12.799   4.310   7.550
94580SOL    HW185637  12.796   4.259   7.469
94580SOL    HW285638  12.741   4.384   7.534
94581SOL     OW85639  14.005   1.715   3.815
94581SOL    HW185640  13.983   1.795   3.863
94581SOL    HW285641  13.996   1.739   3.723
94582SOL     OW85642   9.122   7.089   5.308
94582SOL    HW185643   9.121   7.136   5.391
94582SOL    HW285644   9.047   7.125   5.259
94583SOL     OW85645   7.957  11.926  14.755
94583SOL    HW185646   7.907  11.845  14.744
94583SOL    HW285647   8.049  11.898  14.757
94584SOL     OW85648   3.170  10.644  13.611
94584SOL    HW185649   3.197  10.610  13.526
94584SOL    HW285650   3.137  10.732  13.592
94585SOL     OW85651   5.773  13.370   9.481
94585SOL    HW185652   5.860  13.408   9.492
94585SOL    HW285653   5.715  13.446   9.470
94586SOL     OW85654   9.963   2.148   6.240
94586SOL    HW185655   9.908   2.140   6.161
94586SOL    HW285656  10.007   2.064   6.247
94587SOL     OW85657   6.523   7.908  12.521
94587SOL    HW185658   6.528   7.970  12.594
94587SOL    HW285659   6.442   7.931  12.476
94588SOL     OW85660   2.760  10.935   4.669
94588SOL    HW185661   2.688  10.882   4.636
94588SOL    HW285662   2.760  11.013   4.613
94589SOL     OW85663   0.178   1.806   1.910
94589SOL    HW185664   0.088   1.774   1.918
94589SOL    HW285665   0.168   1.897   1.882
94590SOL     OW85666  11.407  13.034   3.073
94590SOL    HW185667  11.351  13.012   3.147
94590SOL    HW285668  11.455  12.953   3.054
94591SOL     OW85669   5.258  13.906   9.757
94591SOL    HW185670   5.203  13.887   9.833
94591SOL    HW285671   5.268  13.821   9.713
94592SOL     OW85672   2.188   9.735   2.713
94592SOL    HW185673   2.132   9.772   2.645
94592SOL    HW285674   2.259   9.692   2.666
94593SOL     OW85675   4.272  12.732   6.321
94593SOL    HW185676   4.278  12.804   6.384
94593SOL    HW285677   4.197  12.754   6.267
94594SOL     OW85678   7.459   3.290   7.534
94594SOL    HW185679   7.548   3.319   7.557
94594SOL    HW285680   7.445   3.212   7.588
94595SOL     OW85681  14.270   1.854   6.860
94595SOL    HW185682  14.188   1.880   6.902
94595SOL    HW285683  14.277   1.760   6.878
94596SOL     OW85684   1.998  11.728   0.924
94596SOL    HW185685   1.916  11.727   0.874
94596SOL    HW285686   2.042  11.646   0.900
94597SOL     OW85687   4.025   6.911   7.831
94597SOL    HW185688   3.987   6.982   7.882
94597SOL    HW285689   4.113   6.942   7.808
94598SOL     OW85690   0.103  12.310   0.845
94598SOL    HW185691   0.060  12.227   0.866
94598SOL    HW285692   0.196  12.288   0.839
94599SOL     OW85693   3.710   8.042   9.891
94599SOL    HW185694   3.767   8.099   9.839
94599SOL    HW285695   3.636   8.098   9.915
94600SOL     OW85696   3.887  13.970   9.027
94600SOL    HW185697   3.849  13.895   8.979
94600SOL    HW285698   3.912  14.032   8.958
94601SOL     OW85699   1.111   4.091  13.895
94601SOL    HW185700   1.060   4.111  13.973
94601SOL    HW285701   1.192   4.140  13.905
94602SOL     OW85702  12.034  12.296   5.715
94602SOL    HW185703  12.105  12.306   5.778
94602SOL    HW285704  12.031  12.202   5.698
94603SOL     OW85705   5.885  13.632  14.273
94603SOL    HW185706   5.948  13.576  14.228
94603SOL    HW285707   5.823  13.571  14.313
94604SOL     OW85708  12.659  13.409   0.244
94604SOL    HW185709  12.661  13.361   0.161
94604SOL    HW285710  12.751  13.418   0.269
94605SOL     OW85711  12.518   8.713   7.574
94605SOL    HW185712  12.474   8.628   7.582
94605SOL    HW285713  12.607   8.697   7.605
94606SOL     OW85714   9.680  11.191  14.565
94606SOL    HW185715   9.774  11.193  14.549
94606SOL    HW285716   9.641  11.182  14.478
94607SOL     OW85717  13.848   5.147   9.489
94607SOL    HW185718  13.904   5.071   9.472
94607SOL    HW285719  13.907   5.211   9.528
94608SOL     OW85720  10.064   1.740  11.497
94608SOL    HW185721  10.134   1.804  11.507
94608SOL    HW285722  10.021   1.738  11.583
94609SOL     OW85723   5.333   9.803   2.678
94609SOL    HW185724   5.297   9.724   2.717
94609SOL    HW285725   5.423   9.808   2.709
94610SOL     OW85726  12.779   4.203  11.796
94610SOL    HW185727  12.689   4.217  11.767
94610SOL    HW285728  12.806   4.121  11.756
94611SOL     OW85729   3.702  12.476   0.999
94611SOL    HW185730   3.794  12.482   1.023
94611SOL    HW285731   3.679  12.565   0.971
94612SOL     OW85732   5.306   0.891  10.350
94612SOL    HW185733   5.257   0.809  10.362
94612SOL    HW285734   5.248   0.959  10.384
94613SOL     OW85735   2.458   3.837  14.210
94613SOL    HW185736   2.528   3.899  14.232
94613SOL    HW285737   2.475   3.761  14.266
94614SOL     OW85738  13.737  10.305   8.198
94614SOL    HW185739  13.796  10.238   8.164
94614SOL    HW285740  13.773  10.327   8.284
94615SOL     OW85741   5.168   0.113  14.784
94615SOL    HW185742   5.089   0.146  14.740
94615SOL    HW285743   5.139   0.032  14.827
94616SOL     OW85744   9.135  11.615   3.688
94616SOL    HW185745   9.175  11.584   3.606
94616SOL    HW285746   9.158  11.708   3.692
94617SOL     OW85747   6.183  12.946   1.666
94617SOL    HW185748   6.265  12.922   1.623
94617SOL    HW285749   6.120  12.881   1.635
94618SOL     OW85750   8.741  12.117   9.210
94618SOL    HW185751   8.683  12.061   9.159
94618SOL    HW285752   8.708  12.111   9.300
94619SOL     OW85753   7.872   0.435   5.438
94619SOL    HW185754   7.859   0.349   5.479
94619SOL    HW285755   7.797   0.487   5.466
94620SOL     OW85756   0.863   2.398  11.185
94620SOL    HW185757   0.898   2.476  11.142
94620SOL    HW285758   0.874   2.328  11.122
94621SOL     OW85759   3.400   2.624   2.573
94621SOL    HW185760   3.481   2.578   2.551
94621SOL    HW285761   3.409   2.645   2.666
94622SOL     OW85762   2.115   3.631  10.292
94622SOL    HW185763   2.039   3.587  10.253
94622SOL    HW285764   2.078   3.679  10.366
94623SOL     OW85765  11.403  14.519   1.722
94623SOL    HW185766  11.424  14.604   1.761
94623SOL    HW285767  11.478  14.463   1.740
94624SOL     OW85768   8.103   2.314   5.050
94624SOL    HW185769   8.166   2.348   5.114
94624SOL    HW285770   8.023   2.300   5.101
94625SOL     OW85771   0.449   4.895   5.925
94625SOL    HW185772   0.493   4.874   6.007
94625SOL    HW285773   0.493   4.974   5.893
94626SOL     OW85774   8.922  10.795   3.571
94626SOL    HW185775   8.996  10.746   3.533
94626SOL    HW285776   8.953  10.822   3.657
94627SOL     OW85777  13.985   1.134   5.669
94627SOL    HW185778  13.931   1.055   5.660
94627SOL    HW285779  14.052   1.125   5.602
94628SOL     OW85780   6.853   0.159  11.695
94628SOL    HW185781   6.884   0.142  11.606
94628SOL    HW285782   6.825   0.251  11.694
94629SOL     OW85783   6.657   0.597   0.879
94629SOL    HW185784   6.709   0.525   0.914
94629SOL    HW285785   6.701   0.621   0.797
94630SOL     OW85786   1.054   3.584   1.222
94630SOL    HW185787   1.022   3.520   1.286
94630SOL    HW285788   0.996   3.575   1.147
94631SOL     OW85789   7.028  11.600   2.669
94631SOL    HW185790   6.987  11.686   2.678
94631SOL    HW285791   7.122  11.617   2.681
94632SOL     OW85792   1.989   7.430   5.912
94632SOL    HW185793   1.895   7.427   5.928
94632SOL    HW285794   1.999   7.400   5.822
94633SOL     OW85795   7.632   3.630  14.822
94633SOL    HW185796   7.622   3.547  14.776
94633SOL    HW285797   7.711   3.669  14.786
94634SOL     OW85798   9.196   6.517   0.456
94634SOL    HW185799   9.259   6.456   0.417
94634SOL    HW285800   9.116   6.504   0.405
94635SOL     OW85801   9.125   6.613   2.022
94635SOL    HW185802   9.090   6.700   2.001
94635SOL    HW285803   9.154   6.620   2.113
94636SOL     OW85804   0.269  12.892   3.461
94636SOL    HW185805   0.312  12.808   3.445
94636SOL    HW285806   0.327  12.957   3.422
94637SOL     OW85807   1.984   3.856   7.932
94637SOL    HW185808   2.074   3.887   7.915
94637SOL    HW285809   1.967   3.794   7.861
94638SOL     OW85810   7.054   7.567  14.158
94638SOL    HW185811   7.126   7.542  14.216
94638SOL    HW285812   7.015   7.645  14.199
94639SOL     OW85813   3.252   2.954   8.016
94639SOL    HW185814   3.184   3.016   7.988
94639SOL    HW285815   3.250   2.958   8.111
94640SOL     OW85816   3.236   2.103  11.025
94640SOL    HW185817   3.329   2.080  11.020
94640SOL    HW285818   3.191   2.020  11.041
94641SOL     OW85819  14.696   8.833  12.301
94641SOL    HW185820  14.729   8.905  12.355
94641SOL    HW285821  14.628   8.873  12.247
94642SOL     OW85822   5.241  11.858  14.745
94642SOL    HW185823   5.264  11.878  14.835
94642SOL    HW285824   5.323  11.869  14.696
94643SOL     OW85825   7.560   0.274   6.684
94643SOL    HW185826   7.528   0.361   6.705
94643SOL    HW285827   7.594   0.282   6.594
94644SOL     OW85828   9.046  11.750   9.650
94644SOL    HW185829   8.975  11.813   9.641
94644SOL    HW285830   9.005  11.673   9.689
94645SOL     OW85831   0.936   9.041   6.344
94645SOL    HW185832   1.000   8.990   6.393
94645SOL    HW285833   0.938   9.004   6.256
94646SOL     OW85834  13.995  13.957  14.862
94646SOL    HW185835  14.069  13.896  14.866
94646SOL    HW285836  14.034  14.043  14.878
94647SOL     OW85837  11.353   5.981   8.008
94647SOL    HW185838  11.259   5.970   8.015
94647SOL    HW285839  11.389   5.934   8.084
94648SOL     OW85840   9.346  12.691  10.361
94648SOL    HW185841   9.307  12.747  10.294
94648SOL    HW285842   9.385  12.752  10.424
94649SOL     OW85843   2.950  11.535   0.478
94649SOL    HW185844   2.961  11.470   0.548
94649SOL    HW285845   3.024  11.595   0.488
94650SOL     OW85846   1.212   9.309   7.538
94650SOL    HW185847   1.262   9.329   7.459
94650SOL    HW285848   1.162   9.388   7.555
94651SOL     OW85849   0.509   2.580   4.146
94651SOL    HW185850   0.536   2.545   4.062
94651SOL    HW285851   0.552   2.665   4.152
94652SOL     OW85852   6.864   7.090  10.978
94652SOL    HW185853   6.939   7.150  10.983
94652SOL    HW285854   6.896   7.016  10.926
94653SOL     OW85855   7.590   4.576   9.906
94653SOL    HW185856   7.509   4.525   9.911
94653SOL    HW285857   7.561   4.666   9.892
94654SOL     OW85858  11.406   3.945   4.260
94654SOL    HW185859  11.442   3.885   4.325
94654SOL    HW285860  11.337   3.895   4.216
94655SOL     OW85861  10.234   8.954  10.849
94655SOL    HW185862  10.294   8.973  10.776
94655SOL    HW285863  10.177   8.885  10.815
94656SOL     OW85864   3.306   2.943   6.443
94656SOL    HW185865   3.395   2.978   6.454
94656SOL    HW285866   3.295   2.884   6.517
94657SOL     OW85867   3.310   2.472   9.753
94657SOL    HW185868   3.297   2.460   9.847
94657SOL    HW285869   3.355   2.392   9.725
94658SOL     OW85870   6.221  11.638   0.688
94658SOL    HW185871   6.173  11.650   0.770
94658SOL    HW285872   6.190  11.554   0.654
94659SOL     OW85873   5.379   5.955  11.680
94659SOL    HW185874   5.412   5.942  11.590
94659SOL    HW285875   5.433   6.026  11.714
94660SOL     OW85876   2.094   9.807   8.513
94660SOL    HW185877   2.189   9.803   8.523
94660SOL    HW285878   2.070   9.896   8.539
94661SOL     OW85879   6.588   5.399  13.144
94661SOL    HW185880   6.679   5.407  13.115
94661SOL    HW285881   6.564   5.489  13.170
94662SOL     OW85882  10.681   4.497   5.495
94662SOL    HW185883  10.643   4.584   5.482
94662SOL    HW285884  10.698   4.465   5.406
94663SOL     OW85885  11.311  14.170  10.967
94663SOL    HW185886  11.225  14.208  10.984
94663SOL    HW285887  11.344  14.145  11.053
94664SOL     OW85888  11.841   0.574   3.367
94664SOL    HW185889  11.920   0.526   3.345
94664SOL    HW285890  11.792   0.580   3.285
94665SOL     OW85891   4.956   4.080  10.915
94665SOL    HW185892   4.926   4.001  10.959
94665SOL    HW285893   5.051   4.074  10.918
94666SOL     OW85894   4.119  14.859   9.440
94666SOL    HW185895   4.091  14.868   9.531
94666SOL    HW285896   4.200  14.809   9.444
94667SOL     OW85897  13.290   1.802   0.468
94667SOL    HW185898  13.310   1.827   0.558
94667SOL    HW285899  13.367   1.830   0.418
94668SOL     OW85900  13.770   8.489   4.591
94668SOL    HW185901  13.688   8.481   4.542
94668SOL    HW285902  13.838   8.459   4.530
94669SOL     OW85903   1.757   2.613  10.077
94669SOL    HW185904   1.838   2.568  10.101
94669SOL    HW285905   1.786   2.690  10.029
94670SOL     OW85906   5.705   3.584   3.597
94670SOL    HW185907   5.632   3.525   3.617
94670SOL    HW285908   5.751   3.595   3.680
94671SOL     OW85909   9.742  10.168   8.010
94671SOL    HW185910   9.791  10.250   7.999
94671SOL    HW285911   9.702  10.176   8.097
94672SOL     OW85912   9.110   5.377  13.021
94672SOL    HW185913   9.186   5.387  12.964
94672SOL    HW285914   9.036   5.403  12.967
94673SOL     OW85915   7.966  11.369  12.469
94673SOL    HW185916   8.037  11.311  12.498
94673SOL    HW285917   7.887  11.315  12.476
94674SOL     OW85918   1.206  12.221   4.743
94674SOL    HW185919   1.169  12.295   4.695
94674SOL    HW285920   1.241  12.163   4.676
94675SOL     OW85921  10.613   1.000   3.853
94675SOL    HW185922  10.566   0.918   3.841
94675SOL    HW285923  10.641   0.999   3.944
94676SOL     OW85924   7.147   0.285  12.714
94676SOL    HW185925   7.145   0.356  12.779
94676SOL    HW285926   7.068   0.299  12.661
94677SOL     OW85927   2.195   1.079   7.300
94677SOL    HW185928   2.225   1.167   7.322
94677SOL    HW285929   2.265   1.021   7.331
94678SOL     OW85930   8.339   1.445   5.885
94678SOL    HW185931   8.279   1.468   5.815
94678SOL    HW285932   8.283   1.407   5.953
94679SOL     OW85933   1.845   1.458   7.696
94679SOL    HW185934   1.850   1.496   7.609
94679SOL    HW285935   1.753   1.431   7.705
94680SOL     OW85936  10.948   7.394  11.704
94680SOL    HW185937  11.009   7.322  11.684
94680SOL    HW285938  10.984   7.435  11.783
94681SOL     OW85939   7.057  10.362   6.065
94681SOL    HW185940   7.019  10.415   5.995
94681SOL    HW285941   6.984  10.309   6.097
94682SOL     OW85942   6.951   7.254   6.306
94682SOL    HW185943   6.876   7.195   6.320
94682SOL    HW285944   6.957   7.305   6.386
94683SOL     OW85945  11.897  14.280  11.196
94683SOL    HW185946  11.806  14.310  11.200
94683SOL    HW285947  11.936  14.314  11.277
94684SOL     OW85948  10.006   0.649   7.859
94684SOL    HW185949  10.064   0.723   7.878
94684SOL    HW285950  10.048   0.574   7.899
94685SOL     OW85951   0.484   6.883  11.922
94685SOL    HW185952   0.577   6.886  11.899
94685SOL    HW285953   0.476   6.944  11.995
94686SOL     OW85954   7.197   6.721   1.142
94686SOL    HW185955   7.265   6.655   1.156
94686SOL    HW285956   7.122   6.672   1.110
94687SOL     OW85957   0.507  13.297  13.447
94687SOL    HW185958   0.419  13.260  13.456
94687SOL    HW285959   0.510  13.334  13.359
94688SOL     OW85960   6.651  10.332  11.847
94688SOL    HW185961   6.604  10.408  11.813
94688SOL    HW285962   6.740  10.341  11.813
94689SOL     OW85963   7.003   5.214  14.082
94689SOL    HW185964   6.954   5.156  14.141
94689SOL    HW285965   7.076   5.160  14.052
94690SOL     OW85966   2.670   3.840   1.567
94690SOL    HW185967   2.608   3.864   1.636
94690SOL    HW285968   2.664   3.911   1.503
94691SOL     OW85969   2.188   0.624  14.539
94691SOL    HW185970   2.217   0.716  14.541
94691SOL    HW285971   2.243   0.580  14.604
94692SOL     OW85972   2.806  10.536   8.405
94692SOL    HW185973   2.819  10.490   8.322
94692SOL    HW285974   2.812  10.629   8.382
94693SOL     OW85975  13.127   8.891  10.096
94693SOL    HW185976  13.082   8.891  10.180
94693SOL    HW285977  13.202   8.949  10.108
94694SOL     OW85978   1.026   0.144  14.302
94694SOL    HW185979   1.075   0.160  14.221
94694SOL    HW285980   1.073   0.072  14.345
94695SOL     OW85981  13.170   2.098  11.039
94695SOL    HW185982  13.248   2.107  10.984
94695SOL    HW285983  13.142   2.007  11.027
94696SOL     OW85984   9.297   4.952   0.212
94696SOL    HW185985   9.392   4.962   0.205
94696SOL    HW285986   9.263   4.998   0.135
94697SOL     OW85987   7.270   2.627   9.507
94697SOL    HW185988   7.226   2.555   9.553
94697SOL    HW285989   7.206   2.657   9.443
94698SOL     OW85990   1.700   5.935   7.432
94698SOL    HW185991   1.607   5.928   7.455
94698SOL    HW285992   1.730   5.844   7.425
94699SOL     OW85993  10.218   3.765  14.324
94699SOL    HW185994  10.133   3.798  14.294
94699SOL    HW285995  10.273   3.768  14.246
94700SOL     OW85996  14.848   0.911   4.602
94700SOL    HW185997  14.868   0.849   4.532
94700SOL    HW285998  14.877   0.996   4.568
94701SOL     OW85999   6.399   1.010  11.771
94701SOL    HW186000   6.305   0.992  11.766
94701SOL    HW286001   6.425   0.979  11.858
94702SOL     OW86002   0.843  14.572   0.662
94702SOL    HW186003   0.879  14.531   0.583
94702SOL    HW286004   0.797  14.501   0.707
94703SOL     OW86005   7.523  12.250   9.224
94703SOL    HW186006   7.465  12.175   9.237
94703SOL    HW286007   7.539  12.283   9.312
94704SOL     OW86008   8.418   6.018  10.381
94704SOL    HW186009   8.348   6.059  10.330
94704SOL    HW286010   8.485   5.995  10.317
94705SOL     OW86011   8.040   9.829   6.292
94705SOL    HW186012   8.015   9.904   6.237
94705SOL    HW286013   8.133   9.818   6.278
94706SOL     OW86014   6.354   0.626  10.129
94706SOL    HW186015   6.320   0.555  10.184
94706SOL    HW286016   6.416   0.671  10.186
94707SOL     OW86017   1.749   9.191   8.567
94707SOL    HW186018   1.721   9.103   8.592
94707SOL    HW286019   1.781   9.182   8.477
94708SOL     OW86020   2.804   1.133   3.445
94708SOL    HW186021   2.889   1.093   3.428
94708SOL    HW286022   2.740   1.069   3.414
94709SOL     OW86023  11.349   7.297   2.516
94709SOL    HW186024  11.256   7.300   2.539
94709SOL    HW286025  11.385   7.224   2.566
94710SOL     OW86026   3.697   5.593  12.469
94710SOL    HW186027   3.763   5.660  12.488
94710SOL    HW286028   3.616   5.644  12.456
94711SOL     OW86029  12.840  12.267  14.022
94711SOL    HW186030  12.805  12.178  14.027
94711SOL    HW286031  12.931  12.258  14.052
94712SOL     OW86032   6.258  14.364   4.662
94712SOL    HW186033   6.285  14.444   4.617
94712SOL    HW286034   6.236  14.303   4.592
94713SOL     OW86035  10.218   5.375  13.659
94713SOL    HW186036  10.234   5.312  13.730
94713SOL    HW286037  10.245   5.459  13.695
94714SOL     OW86038   2.666   3.526  13.201
94714SOL    HW186039   2.630   3.476  13.274
94714SOL    HW286040   2.595   3.530  13.137
94715SOL     OW86041  12.426  11.389  13.281
94715SOL    HW186042  12.510  11.371  13.238
94715SOL    HW286043  12.361  11.381  13.211
94716SOL     OW86044   8.945  13.025  11.247
94716SOL    HW186045   8.867  13.079  11.235
94716SOL    HW286046   8.971  13.041  11.338
94717SOL     OW86047  12.928   2.716   8.774
94717SOL    HW186048  12.964   2.684   8.692
94717SOL    HW286049  12.856   2.774   8.748
94718SOL     OW86050   7.974   7.323   3.267
94718SOL    HW186051   8.036   7.345   3.197
94718SOL    HW286052   7.976   7.399   3.325
94719SOL     OW86053  12.069  14.194   2.257
94719SOL    HW186054  11.976  14.174   2.243
94719SOL    HW286055  12.092  14.144   2.335
94720SOL     OW86056  10.859   8.700   2.743
94720SOL    HW186057  10.923   8.653   2.795
94720SOL    HW286058  10.902   8.783   2.721
94721SOL     OW86059  12.858  14.846   2.387
94721SOL    HW186060  12.805   0.043   2.399
94721SOL    HW286061  12.936  14.877   2.340
94722SOL     OW86062  11.676  12.040   1.567
94722SOL    HW186063  11.655  11.961   1.517
94722SOL    HW286064  11.749  12.013   1.623
94723SOL     OW86065   9.458   7.702   9.912
94723SOL    HW186066   9.412   7.624   9.942
94723SOL    HW286067   9.546   7.671   9.889
94724SOL     OW86068  13.459  11.105   1.512
94724SOL    HW186069  13.386  11.137   1.459
94724SOL    HW286070  13.529  11.168   1.496
94725SOL     OW86071   3.224   5.118   0.560
94725SOL    HW186072   3.228   5.032   0.519
94725SOL    HW286073   3.314   5.137   0.587
94726SOL     OW86074  12.107   6.715   6.858
94726SOL    HW186075  12.032   6.769   6.884
94726SOL    HW286076  12.181   6.776   6.859
94727SOL     OW86077  11.064  12.295   1.986
94727SOL    HW186078  11.115  12.250   1.919
94727SOL    HW286079  11.107  12.273   2.069
94728SOL     OW86080  13.999   8.124   0.253
94728SOL    HW186081  13.995   8.218   0.268
94728SOL    HW286082  14.008   8.085   0.340
94729SOL     OW86083  12.052   0.963  14.405
94729SOL    HW186084  11.963   0.929  14.408
94729SOL    HW286085  12.083   0.955  14.496
94730SOL     OW86086   3.262   8.029   7.413
94730SOL    HW186087   3.275   7.934   7.413
94730SOL    HW286088   3.178   8.041   7.368
94731SOL     OW86089   7.388   2.069   6.852
94731SOL    HW186090   7.315   2.110   6.805
94731SOL    HW286091   7.377   1.975   6.836
94732SOL     OW86092   3.192  13.932   2.687
94732SOL    HW186093   3.259  13.951   2.752
94732SOL    HW286094   3.232  13.954   2.603
94733SOL     OW86095   9.578   2.635   5.056
94733SOL    HW186096   9.572   2.604   5.147
94733SOL    HW286097   9.606   2.726   5.064
94734SOL     OW86098   7.754   0.678  10.875
94734SOL    HW186099   7.717   0.724  10.950
94734SOL    HW286100   7.725   0.587  10.886
94735SOL     OW86101   6.103  14.823   9.990
94735SOL    HW186102   6.167  14.787   9.929
94735SOL    HW286103   6.032  14.854   9.934
94736SOL     OW86104   7.892   9.537  10.263
94736SOL    HW186105   7.849   9.460  10.228
94736SOL    HW286106   7.966   9.503  10.314
94737SOL     OW86107  11.767  11.461  11.634
94737SOL    HW186108  11.759  11.380  11.683
94737SOL    HW286109  11.680  11.501  11.637
94738SOL     OW86110  13.224   0.859   5.290
94738SOL    HW186111  13.226   0.887   5.199
94738SOL    HW286112  13.150   0.799   5.295
94739SOL     OW86113  13.216   2.458   1.065
94739SOL    HW186114  13.204   2.370   1.101
94739SOL    HW286115  13.305   2.458   1.029
94740SOL     OW86116   4.275  13.412  11.639
94740SOL    HW186117   4.197  13.422  11.584
94740SOL    HW286118   4.333  13.355  11.589
94741SOL     OW86119   7.607  14.689   5.718
94741SOL    HW186120   7.685  14.746   5.718
94741SOL    HW286121   7.573  14.696   5.807
94742SOL     OW86122   9.461  12.223   8.850
94742SOL    HW186123   9.379  12.257   8.886
94742SOL    HW286124   9.438  12.138   8.814
94743SOL     OW86125   4.462   3.628   0.306
94743SOL    HW186126   4.407   3.695   0.267
94743SOL    HW286127   4.547   3.638   0.263
94744SOL     OW86128  12.803  10.384   2.739
94744SOL    HW186129  12.811  10.347   2.651
94744SOL    HW286130  12.758  10.468   2.725
94745SOL     OW86131   9.382   3.195  11.440
94745SOL    HW186132   9.429   3.112  11.445
94745SOL    HW286133   9.347   3.209  11.528
94746SOL     OW86134   6.696   9.475   2.108
94746SOL    HW186135   6.665   9.560   2.080
94746SOL    HW286136   6.639   9.412   2.064
94747SOL     OW86137  13.580   2.161   8.893
94747SOL    HW186138  13.537   2.079   8.919
94747SOL    HW286139  13.509   2.215   8.859
94748SOL     OW86140   4.248   5.920   8.876
94748SOL    HW186141   4.209   5.833   8.874
94748SOL    HW286142   4.341   5.906   8.858
94749SOL     OW86143  11.620  13.274  11.166
94749SOL    HW186144  11.575  13.271  11.082
94749SOL    HW286145  11.712  13.286  11.144
94750SOL     OW86146   4.498   8.974   6.238
94750SOL    HW186147   4.433   8.974   6.168
94750SOL    HW286148   4.571   8.922   6.204
94751SOL     OW86149   6.541  12.498  10.075
94751SOL    HW186150   6.454  12.476  10.041
94751SOL    HW286151   6.591  12.417  10.068
94752SOL     OW86152  13.968  12.565  11.459
94752SOL    HW186153  13.905  12.493  11.456
94752SOL    HW286154  13.966  12.594  11.550
94753SOL     OW86155  11.311   1.401   6.037
94753SOL    HW186156  11.361   1.390   5.956
94753SOL    HW286157  11.226   1.434   6.007
94754SOL     OW86158   0.257  10.029   3.417
94754SOL    HW186159   0.339   9.987   3.445
94754SOL    HW286160   0.270  10.121   3.439
94755SOL     OW86161   8.303   4.338   1.145
94755SOL    HW186162   8.379   4.395   1.157
94755SOL    HW286163   8.339   4.254   1.118
94756SOL     OW86164   9.448   0.149   3.332
94756SOL    HW186165   9.357   0.175   3.348
94756SOL    HW286166   9.466   0.178   3.242
94757SOL     OW86167   3.107   6.797  13.615
94757SOL    HW186168   3.183   6.848  13.642
94757SOL    HW286169   3.042   6.813  13.683
94758SOL     OW86170   0.994  13.013   9.895
94758SOL    HW186171   0.917  13.002   9.952
94758SOL    HW286172   1.069  13.000   9.953
94759SOL     OW86173   5.052  13.104   0.870
94759SOL    HW186174   4.985  13.084   0.937
94759SOL    HW286175   5.066  13.198   0.878
94760SOL     OW86176   1.323  12.398  13.899
94760SOL    HW186177   1.309  12.469  13.962
94760SOL    HW286178   1.291  12.432  13.816
94761SOL     OW86179  11.238   0.518   8.655
94761SOL    HW186180  11.266   0.436   8.696
94761SOL    HW286181  11.320   0.561   8.630
94762SOL     OW86182   3.538   7.587  11.093
94762SOL    HW186183   3.515   7.571  11.001
94762SOL    HW286184   3.459   7.562  11.141
94763SOL     OW86185   8.087  11.969   6.074
94763SOL    HW186186   8.131  12.041   6.029
94763SOL    HW286187   7.994  11.984   6.058
94764SOL     OW86188   4.880  12.399  11.509
94764SOL    HW186189   4.863  12.311  11.543
94764SOL    HW286190   4.879  12.454  11.587
94765SOL     OW86191   4.185  10.076   4.564
94765SOL    HW186192   4.236  10.050   4.487
94765SOL    HW286193   4.235  10.043   4.638
94766SOL     OW86194   1.364   1.092   1.549
94766SOL    HW186195   1.424   1.109   1.621
94766SOL    HW286196   1.297   1.160   1.557
94767SOL     OW86197   3.424  11.734   5.919
94767SOL    HW186198   3.503  11.788   5.922
94767SOL    HW286199   3.360  11.783   5.970
94768SOL     OW86200   9.663  14.009   1.587
94768SOL    HW186201   9.611  14.020   1.667
94768SOL    HW286202   9.735  13.952   1.613
94769SOL     OW86203   5.289   6.638   0.388
94769SOL    HW186204   5.374   6.608   0.355
94769SOL    HW286205   5.241   6.557   0.406
94770SOL     OW86206   2.861   1.750   5.175
94770SOL    HW186207   2.857   1.659   5.147
94770SOL    HW286208   2.950   1.779   5.151
94771SOL     OW86209   1.309  11.231   7.468
94771SOL    HW186210   1.395  11.190   7.470
94771SOL    HW286211   1.250  11.162   7.438
94772SOL     OW86212   3.271  12.979   2.718
94772SOL    HW186213   3.358  12.957   2.686
94772SOL    HW286214   3.252  12.914   2.785
94773SOL     OW86215   7.593   1.712   2.170
94773SOL    HW186216   7.515   1.708   2.225
94773SOL    HW286217   7.646   1.637   2.199
94774SOL     OW86218  10.468  10.611   5.468
94774SOL    HW186219  10.431  10.574   5.549
94774SOL    HW286220  10.499  10.535   5.419
94775SOL     OW86221  11.693   5.750   0.130
94775SOL    HW186222  11.752   5.801   0.074
94775SOL    HW286223  11.623   5.722   0.070
94776SOL     OW86224   3.249   0.720  10.268
94776SOL    HW186225   3.336   0.755  10.286
94776SOL    HW286226   3.253   0.690  10.177
94777SOL     OW86227   5.460   6.139   8.251
94777SOL    HW186228   5.419   6.145   8.164
94777SOL    HW286229   5.512   6.059   8.247
94778SOL     OW86230   7.260   1.201   0.802
94778SOL    HW186231   7.211   1.124   0.774
94778SOL    HW286232   7.254   1.262   0.728
94779SOL     OW86233  14.056   8.758  11.953
94779SOL    HW186234  14.047   8.853  11.963
94779SOL    HW286235  14.119   8.747  11.881
94780SOL     OW86236   4.519   6.884  13.986
94780SOL    HW186237   4.459   6.953  13.959
94780SOL    HW286238   4.535   6.902  14.079
94781SOL     OW86239   1.453   6.355   2.047
94781SOL    HW186240   1.379   6.416   2.039
94781SOL    HW286241   1.517   6.402   2.099
94782SOL     OW86242   1.166   8.471  14.195
94782SOL    HW186243   1.087   8.522  14.179
94782SOL    HW286244   1.237   8.536  14.193
94783SOL     OW86245   4.338  14.413   6.832
94783SOL    HW186246   4.287  14.464   6.769
94783SOL    HW286247   4.357  14.475   6.902
94784SOL     OW86248  11.633   6.834   0.378
94784SOL    HW186249  11.679   6.891   0.439
94784SOL    HW286250  11.571   6.786   0.432
94785SOL     OW86251   4.495   2.251   4.644
94785SOL    HW186252   4.407   2.213   4.642
94785SOL    HW286253   4.494   2.310   4.719
94786SOL     OW86254  12.074   1.405  11.041
94786SOL    HW186255  12.138   1.397  10.970
94786SOL    HW286256  12.122   1.447  11.112
94787SOL     OW86257   8.332   1.530   1.516
94787SOL    HW186258   8.368   1.606   1.470
94787SOL    HW286259   8.361   1.455   1.463
94788SOL     OW86260  14.253   1.353   5.598
94788SOL    HW186261  14.226   1.271   5.640
94788SOL    HW286262  14.260   1.415   5.671
94789SOL     OW86263   7.369   8.095   4.729
94789SOL    HW186264   7.425   8.143   4.668
94789SOL    HW286265   7.381   8.140   4.813
94790SOL     OW86266  11.509  10.623   4.724
94790SOL    HW186267  11.522  10.619   4.629
94790SOL    HW286268  11.590  10.662   4.758
94791SOL     OW86269   8.055   5.659   5.295
94791SOL    HW186270   8.143   5.669   5.332
94791SOL    HW286271   8.053   5.568   5.263
94792SOL     OW86272   2.107  10.393  12.622
94792SOL    HW186273   2.064  10.450  12.686
94792SOL    HW286274   2.040  10.330  12.598
94793SOL     OW86275   7.249   4.994   0.820
94793SOL    HW186276   7.161   5.032   0.830
94793SOL    HW286277   7.234   4.908   0.781
94794SOL     OW86278   1.965  14.215   0.398
94794SOL    HW186279   1.899  14.283   0.411
94794SOL    HW286280   1.920  14.134   0.418
94795SOL     OW86281  10.358   8.623   7.731
94795SOL    HW186282  10.266   8.640   7.751
94795SOL    HW286283  10.373   8.534   7.762
94796SOL     OW86284   5.786   8.616   9.814
94796SOL    HW186285   5.722   8.547   9.795
94796SOL    HW286286   5.738   8.697   9.800
94797SOL     OW86287   8.815   0.765   0.830
94797SOL    HW186288   8.803   0.838   0.769
94797SOL    HW286289   8.775   0.795   0.912
94798SOL     OW86290   7.154  10.737   4.749
94798SOL    HW186291   7.227  10.703   4.801
94798SOL    HW286292   7.103  10.790   4.810
94799SOL     OW86293   5.142   9.808  11.761
94799SOL    HW186294   5.047   9.808  11.768
94799SOL    HW286295   5.170   9.881  11.816
94800SOL     OW86296   6.817  11.771   1.478
94800SOL    HW186297   6.813  11.849   1.533
94800SOL    HW286298   6.782  11.800   1.393
94801SOL     OW86299  12.060  11.494   8.270
94801SOL    HW186300  12.014  11.506   8.353
94801SOL    HW286301  12.121  11.422   8.286
94802SOL     OW86302   0.457   3.382   6.971
94802SOL    HW186303   0.552   3.379   6.961
94802SOL    HW286304   0.441   3.456   7.029
94803SOL     OW86305   6.246   7.412  10.673
94803SOL    HW186306   6.286   7.325  10.681
94803SOL    HW286307   6.318   7.473  10.686
94804SOL     OW86308  14.035  12.578   1.773
94804SOL    HW186309  14.016  12.515   1.704
94804SOL    HW286310  13.992  12.659   1.745
94805SOL     OW86311   3.420   0.047   8.962
94805SOL    HW186312   3.416   0.056   8.867
94805SOL    HW286313   3.329   0.057   8.991
94806SOL     OW86314   0.615   9.803   5.306
94806SOL    HW186315   0.545   9.867   5.296
94806SOL    HW286316   0.572   9.727   5.346
94807SOL     OW86317  13.464   1.547   9.933
94807SOL    HW186318  13.428   1.632   9.960
94807SOL    HW286319  13.509   1.514  10.011
94808SOL     OW86320   5.937   8.782   0.669
94808SOL    HW186321   5.929   8.860   0.725
94808SOL    HW286322   5.912   8.813   0.582
94809SOL     OW86323   8.195   3.940  14.129
94809SOL    HW186324   8.170   4.013  14.073
94809SOL    HW286325   8.262   3.893  14.080
94810SOL     OW86326   8.253   8.755   0.092
94810SOL    HW186327   8.219   8.833   0.048
94810SOL    HW286328   8.343   8.746   0.060
94811SOL     OW86329  12.412  11.333   0.957
94811SOL    HW186330  12.501  11.298   0.962
94811SOL    HW286331  12.365  11.289   1.029
94812SOL     OW86332   6.432   7.412   1.142
94812SOL    HW186333   6.464   7.392   1.230
94812SOL    HW286334   6.497   7.374   1.083
94813SOL     OW86335   5.540  13.068   7.576
94813SOL    HW186336   5.616  13.126   7.569
94813SOL    HW286337   5.554  13.002   7.508
94814SOL     OW86338   6.461  13.781   6.900
94814SOL    HW186339   6.401  13.811   6.832
94814SOL    HW286340   6.547  13.785   6.860
94815SOL     OW86341  11.636   5.313  10.647
94815SOL    HW186342  11.617   5.346  10.735
94815SOL    HW286343  11.646   5.218  10.659
94816SOL     OW86344   1.132   9.945  12.501
94816SOL    HW186345   1.186  10.001  12.557
94816SOL    HW286346   1.052   9.932  12.552
94817SOL     OW86347  12.195   4.883  10.606
94817SOL    HW186348  12.165   4.974  10.619
94817SOL    HW286349  12.114   4.832  10.604
94818SOL     OW86350  11.581   4.523  14.420
94818SOL    HW186351  11.598   4.559  14.507
94818SOL    HW286352  11.485   4.525  14.412
94819SOL     OW86353   5.539   6.633  11.390
94819SOL    HW186354   5.626   6.620  11.352
94819SOL    HW286355   5.500   6.546  11.392
94820SOL     OW86356  11.236   4.111  14.844
94820SOL    HW186357  11.297   4.037  14.842
94820SOL    HW286358  11.208   4.122  14.753
94821SOL     OW86359   0.189   5.679  11.903
94821SOL    HW186360   0.118   5.742  11.891
94821SOL    HW286361   0.148   5.606  11.951
94822SOL     OW86362  10.701   4.909   8.943
94822SOL    HW186363  10.662   4.922   8.856
94822SOL    HW286364  10.778   4.854   8.927
94823SOL     OW86365  12.774   2.613   9.000
94823SOL    HW186366  12.741   2.700   9.020
94823SOL    HW286367  12.828   2.624   8.922
94824SOL     OW86368   8.686   2.713   0.738
94824SOL    HW186369   8.666   2.806   0.735
94824SOL    HW286370   8.687   2.686   0.646
94825SOL     OW86371  14.875  13.666   2.396
94825SOL    HW186372  14.787  13.705   2.390
94825SOL    HW286373   0.029  13.674   2.308
94826SOL     OW86374   6.337   7.100   3.840
94826SOL    HW186375   6.298   7.016   3.867
94826SOL    HW286376   6.419   7.105   3.888
94827SOL     OW86377   6.006   8.424   3.476
94827SOL    HW186378   6.096   8.445   3.449
94827SOL    HW286379   5.970   8.375   3.402
94828SOL     OW86380   6.830  10.814  10.730
94828SOL    HW186381   6.867  10.895  10.764
94828SOL    HW286382   6.773  10.843  10.658
94829SOL     OW86383   8.642   5.329   1.971
94829SOL    HW186384   8.554   5.336   2.006
94829SOL    HW286385   8.631   5.290   1.884
94830SOL     OW86386   1.923   7.187   5.753
94830SOL    HW186387   1.940   7.133   5.830
94830SOL    HW286388   1.841   7.152   5.718
94831SOL     OW86389  13.457   0.241   9.728
94831SOL    HW186390  13.393   0.302   9.692
94831SOL    HW286391  13.473   0.273   9.817
94832SOL     OW86392   5.150   5.839   1.254
94832SOL    HW186393   5.064   5.797   1.256
94832SOL    HW286394   5.209   5.772   1.222
94833SOL     OW86395   2.098  12.561   9.448
94833SOL    HW186396   2.102  12.476   9.404
94833SOL    HW286397   2.065  12.622   9.382
94834SOL     OW86398   9.868   4.020  11.192
94834SOL    HW186399   9.911   3.980  11.116
94834SOL    HW286400   9.775   4.001  11.179
94835SOL     OW86401  13.625   1.987  14.510
94835SOL    HW186402  13.683   1.940  14.450
94835SOL    HW286403  13.562   1.920  14.539
94836SOL     OW86404   7.210   0.107   0.438
94836SOL    HW186405   7.221   0.023   0.394
94836SOL    HW286406   7.242   0.171   0.375
94837SOL     OW86407   7.491   5.070   2.388
94837SOL    HW186408   7.583   5.045   2.380
94837SOL    HW286409   7.494   5.165   2.402
94838SOL     OW86410   3.015   4.273   7.157
94838SOL    HW186411   3.070   4.195   7.155
94838SOL    HW286412   3.073   4.344   7.130
94839SOL     OW86413  11.251   8.272   1.615
94839SOL    HW186414  11.337   8.302   1.583
94839SOL    HW286415  11.196   8.271   1.537
94840SOL     OW86416   4.243  14.435  14.515
94840SOL    HW186417   4.229  14.472  14.428
94840SOL    HW286418   4.180  14.482  14.571
94841SOL     OW86419   8.362   1.730   1.920
94841SOL    HW186420   8.428   1.735   1.851
94841SOL    HW286421   8.389   1.797   1.983
94842SOL     OW86422  14.562   3.020   9.207
94842SOL    HW186423  14.608   3.055   9.131
94842SOL    HW286424  14.613   2.944   9.234
94843SOL     OW86425   5.995   1.980   8.527
94843SOL    HW186426   6.060   1.917   8.555
94843SOL    HW286427   6.039   2.065   8.533
94844SOL     OW86428  13.205   0.279  13.909
94844SOL    HW186429  13.221   0.366  13.947
94844SOL    HW286430  13.111   0.279  13.890
94845SOL     OW86431   5.233   2.231   8.540
94845SOL    HW186432   5.232   2.288   8.464
94845SOL    HW286433   5.150   2.183   8.536
94846SOL     OW86434   2.137   6.150   1.807
94846SOL    HW186435   2.085   6.148   1.727
94846SOL    HW286436   2.132   6.241   1.836
94847SOL     OW86437  13.448  13.777   6.850
94847SOL    HW186438  13.448  13.759   6.944
94847SOL    HW286439  13.461  13.871   6.843
94848SOL     OW86440   9.134   2.081   8.426
94848SOL    HW186441   9.133   2.097   8.331
94848SOL    HW286442   9.156   1.989   8.435
94849SOL     OW86443   2.412  14.019  11.011
94849SOL    HW186444   2.459  13.935  11.017
94849SOL    HW286445   2.438  14.054  10.925
94850SOL     OW86446  14.334  11.842  14.415
94850SOL    HW186447  14.253  11.832  14.465
94850SOL    HW286448  14.321  11.786  14.339
94851SOL     OW86449  13.832   5.565   5.685
94851SOL    HW186450  13.878   5.505   5.744
94851SOL    HW286451  13.885   5.565   5.606
94852SOL     OW86452   9.730  12.491   3.560
94852SOL    HW186453   9.689  12.474   3.645
94852SOL    HW286454   9.804  12.548   3.580
94853SOL     OW86455  13.159   2.501   2.466
94853SOL    HW186456  13.093   2.441   2.502
94853SOL    HW286457  13.152   2.579   2.521
94854SOL     OW86458  13.107  11.688   5.782
94854SOL    HW186459  13.064  11.747   5.721
94854SOL    HW286460  13.085  11.600   5.750
94855SOL     OW86461   5.594   1.491   7.930
94855SOL    HW186462   5.577   1.513   8.022
94855SOL    HW286463   5.622   1.400   7.931
94856SOL     OW86464  10.835  14.695  11.781
94856SOL    HW186465  10.926  14.679  11.807
94856SOL    HW286466  10.841  14.760  11.711
94857SOL     OW86467  14.070   8.445  14.591
94857SOL    HW186468  14.133   8.449  14.519
94857SOL    HW286469  14.122   8.416  14.666
94858SOL     OW86470   5.399   9.842  11.362
94858SOL    HW186471   5.416   9.806  11.449
94858SOL    HW286472   5.465   9.802  11.306
94859SOL     OW86473  10.192   3.285  10.420
94859SOL    HW186474  10.105   3.258  10.390
94859SOL    HW286475  10.235   3.318  10.341
94860SOL     OW86476  14.040   1.792   5.456
94860SOL    HW186477  14.075   1.870   5.499
94860SOL    HW286478  14.109   1.765   5.395
94861SOL     OW86479   1.718   2.977   1.402
94861SOL    HW186480   1.726   3.072   1.392
94861SOL    HW286481   1.689   2.965   1.493
94862SOL     OW86482   4.871   5.848   9.374
94862SOL    HW186483   4.866   5.753   9.366
94862SOL    HW286484   4.786   5.874   9.409
94863SOL     OW86485   0.865  11.204  14.341
94863SOL    HW186486   0.898  11.280  14.292
94863SOL    HW286487   0.794  11.170  14.286
94864SOL     OW86488   7.293   1.949   9.165
94864SOL    HW186489   7.352   1.937   9.239
94864SOL    HW286490   7.336   2.015   9.110
94865SOL     OW86491   2.615  10.234  12.827
94865SOL    HW186492   2.652  10.162  12.878
94865SOL    HW286493   2.563  10.191  12.759
94866SOL     OW86494   4.451  13.829   5.293
94866SOL    HW186495   4.414  13.891   5.230
94866SOL    HW286496   4.506  13.771   5.240
94867SOL     OW86497   8.936  11.688  12.341
94867SOL    HW186498   8.994  11.628  12.294
94867SOL    HW286499   8.862  11.634  12.367
94868SOL     OW86500   6.724   6.482  11.030
94868SOL    HW186501   6.732   6.387  11.015
94868SOL    HW286502   6.636   6.503  10.999
94869SOL     OW86503   4.364   1.305   5.032
94869SOL    HW186504   4.409   1.320   4.949
94869SOL    HW286505   4.354   1.393   5.069
94870SOL     OW86506   7.409  12.756  10.449
94870SOL    HW186507   7.465  12.679  10.452
94870SOL    HW286508   7.371  12.755  10.361
94871SOL     OW86509   7.713   3.390   7.653
94871SOL    HW186510   7.785   3.354   7.602
94871SOL    HW286511   7.719   3.345   7.738
94872SOL     OW86512   3.126   8.799   0.783
94872SOL    HW186513   3.212   8.822   0.746
94872SOL    HW286514   3.132   8.705   0.799
94873SOL     OW86515  10.072  13.461   8.958
94873SOL    HW186516  10.024  13.544   8.955
94873SOL    HW286517  10.104  13.456   9.048
94874SOL     OW86518   5.123  10.918  14.765
94874SOL    HW186519   5.092  10.960  14.846
94874SOL    HW286520   5.084  10.831  14.766
94875SOL     OW86521   2.608  12.289  14.303
94875SOL    HW186522   2.519  12.277  14.335
94875SOL    HW286523   2.645  12.201  14.302
94876SOL     OW86524   0.356  14.710   2.942
94876SOL    HW186525   0.367  14.672   3.029
94876SOL    HW286526   0.425  14.670   2.889
94877SOL     OW86527  12.988  10.276  13.011
94877SOL    HW186528  13.031  10.358  12.988
94877SOL    HW286529  12.940  10.296  13.092
94878SOL     OW86530   1.358   6.341   0.591
94878SOL    HW186531   1.309   6.271   0.548
94878SOL    HW286532   1.402   6.298   0.664
94879SOL     OW86533   3.677   4.799  10.233
94879SOL    HW186534   3.694   4.783  10.140
94879SOL    HW286535   3.751   4.757  10.278
94880SOL     OW86536  14.451  11.992  12.693
94880SOL    HW186537  14.509  11.923  12.725
94880SOL    HW286538  14.433  12.046  12.770
94881SOL     OW86539   4.288  12.971   8.234
94881SOL    HW186540   4.232  12.898   8.258
94881SOL    HW286541   4.290  13.026   8.313
94882SOL     OW86542   0.109   2.820  10.348
94882SOL    HW186543   0.103   2.845  10.255
94882SOL    HW286544   0.073   2.732  10.351
94883SOL     OW86545   9.447   1.175   9.489
94883SOL    HW186546   9.416   1.181   9.580
94883SOL    HW286547   9.375   1.134   9.442
94884SOL     OW86548   7.402   2.359  12.649
94884SOL    HW186549   7.396   2.281  12.704
94884SOL    HW286550   7.322   2.408  12.668
94885SOL     OW86551  12.838   2.372   2.286
94885SOL    HW186552  12.883   2.355   2.369
94885SOL    HW286553  12.759   2.318   2.291
94886SOL     OW86554   4.935   3.373  13.806
94886SOL    HW186555   4.950   3.295  13.752
94886SOL    HW286556   5.014   3.425  13.794
94887SOL     OW86557   4.193  12.054  11.998
94887SOL    HW186558   4.224  12.137  12.033
94887SOL    HW286559   4.097  12.060  12.000
94888SOL     OW86560   8.357   2.769  11.294
94888SOL    HW186561   8.387   2.688  11.254
94888SOL    HW286562   8.275   2.745  11.336
94889SOL     OW86563   1.989   4.841  12.614
94889SOL    HW186564   1.997   4.849  12.709
94889SOL    HW286565   2.020   4.752  12.596
94890SOL     OW86566   7.229   5.837   9.611
94890SOL    HW186567   7.215   5.748   9.645
94890SOL    HW286568   7.163   5.846   9.542
94891SOL     OW86569   5.391   0.808   2.515
94891SOL    HW186570   5.389   0.888   2.463
94891SOL    HW286571   5.363   0.739   2.454
94892SOL     OW86572  13.748   8.741  12.803
94892SOL    HW186573  13.681   8.725  12.870
94892SOL    HW286574  13.830   8.748  12.852
94893SOL     OW86575  11.868   5.544   2.939
94893SOL    HW186576  11.940   5.584   2.891
94893SOL    HW286577  11.879   5.575   3.028
94894SOL     OW86578   6.625  13.820  10.728
94894SOL    HW186579   6.622  13.726  10.708
94894SOL    HW286580   6.546  13.856  10.687
94895SOL     OW86581   7.278   0.857   5.440
94895SOL    HW186582   7.334   0.854   5.362
94895SOL    HW286583   7.282   0.768   5.476
94896SOL     OW86584  10.479   8.209   9.740
94896SOL    HW186585  10.446   8.297   9.758
94896SOL    HW286586  10.572   8.212   9.761
94897SOL     OW86587  10.320   8.257   3.779
94897SOL    HW186588  10.321   8.352   3.768
94897SOL    HW286589  10.410   8.235   3.805
94898SOL     OW86590   8.194   9.086  14.499
94898SOL    HW186591   8.240   9.167  14.479
94898SOL    HW286592   8.223   9.024  14.432
94899SOL     OW86593  12.199   2.370   2.569
94899SOL    HW186594  12.282   2.406   2.536
94899SOL    HW286595  12.132   2.428   2.533
94900SOL     OW86596   0.088  10.337   5.253
94900SOL    HW186597   0.010  10.334   5.309
94900SOL    HW286598   0.155  10.288   5.302
94901SOL     OW86599  10.590  11.558   2.562
94901SOL    HW186600  10.508  11.536   2.607
94901SOL    HW286601  10.640  11.477   2.562
94902SOL     OW86602  11.668  12.875   5.123
94902SOL    HW186603  11.615  12.796   5.131
94902SOL    HW286604  11.730  12.870   5.195
94903SOL     OW86605  11.801  13.067   8.744
94903SOL    HW186606  11.869  13.065   8.676
94903SOL    HW286607  11.833  13.128   8.810
94904SOL     OW86608   9.411   8.713  12.118
94904SOL    HW186609   9.444   8.802  12.108
94904SOL    HW286610   9.352   8.718  12.193
94905SOL     OW86611   9.940  14.752   9.639
94905SOL    HW186612   9.998  14.765   9.563
94905SOL    HW286613   9.981  14.803   9.709
94906SOL     OW86614   6.015  12.298  11.266
94906SOL    HW186615   6.058  12.226  11.313
94906SOL    HW286616   6.050  12.292  11.177
94907SOL     OW86617   5.169   8.017   9.815
94907SOL    HW186618   5.255   7.978   9.802
94907SOL    HW286619   5.111   7.943   9.831
94908SOL     OW86620  13.999   9.710  13.086
94908SOL    HW186621  14.062   9.769  13.043
94908SOL    HW286622  14.054   9.640  13.122
94909SOL     OW86623  13.977   1.284   8.340
94909SOL    HW186624  13.948   1.375   8.347
94909SOL    HW286625  13.949   1.256   8.253
94910SOL     OW86626   3.476   3.757  13.151
94910SOL    HW186627   3.538   3.828  13.136
94910SOL    HW286628   3.390   3.796  13.136
94911SOL     OW86629   3.201   7.530   0.373
94911SOL    HW186630   3.255   7.473   0.429
94911SOL    HW286631   3.234   7.515   0.285
94912SOL     OW86632   7.855   8.964  13.235
94912SOL    HW186633   7.917   9.023  13.193
94912SOL    HW286634   7.891   8.950  13.322
94913SOL     OW86635   9.271  14.700   0.519
94913SOL    HW186636   9.211  14.658   0.457
94913SOL    HW286637   9.214  14.748   0.578
94914SOL     OW86638   6.239  12.934  13.900
94914SOL    HW186639   6.161  12.947  13.847
94914SOL    HW286640   6.206  12.928  13.990
94915SOL     OW86641  14.753   1.030   7.690
94915SOL    HW186642  14.797   0.952   7.656
94915SOL    HW286643  14.823   1.095   7.700
94916SOL     OW86644   4.410  11.226   4.447
94916SOL    HW186645   4.479  11.269   4.498
94916SOL    HW286646   4.430  11.132   4.454
94917SOL     OW86647  11.032   7.652   1.064
94917SOL    HW186648  10.983   7.635   1.145
94917SOL    HW286649  11.109   7.595   1.071
94918SOL     OW86650  10.630   4.882   6.892
94918SOL    HW186651  10.566   4.929   6.945
94918SOL    HW286652  10.600   4.791   6.893
94919SOL     OW86653   8.846   9.651   1.605
94919SOL    HW186654   8.835   9.605   1.521
94919SOL    HW286655   8.757   9.658   1.640
94920SOL     OW86656   7.591   5.285   0.178
94920SOL    HW186657   7.508   5.242   0.157
94920SOL    HW286658   7.591   5.290   0.274
94921SOL     OW86659   9.600  12.263  13.581
94921SOL    HW186660   9.650  12.232  13.657
94921SOL    HW286661   9.512  12.279  13.616
94922SOL     OW86662   3.016   8.180   2.832
94922SOL    HW186663   2.952   8.146   2.770
94922SOL    HW286664   2.965   8.202   2.910
94923SOL     OW86665   9.482   5.954   5.025
94923SOL    HW186666   9.504   6.014   4.954
94923SOL    HW286667   9.448   6.011   5.094
94924SOL     OW86668  11.488   4.527  11.911
94924SOL    HW186669  11.461   4.440  11.939
94924SOL    HW286670  11.449   4.537  11.824
94925SOL     OW86671  13.124   8.896   1.487
94925SOL    HW186672  13.206   8.864   1.525
94925SOL    HW286673  13.121   8.989   1.510
94926SOL     OW86674  12.812   3.088   8.974
94926SOL    HW186675  12.785   2.999   8.996
94926SOL    HW286676  12.901   3.095   9.010
94927SOL     OW86677   0.054   5.897   2.411
94927SOL    HW186678   0.112   5.861   2.343
94927SOL    HW286679  14.855   5.916   2.365
94928SOL     OW86680  14.087  10.504   9.220
94928SOL    HW186681  14.105  10.587   9.175
94928SOL    HW286682  14.169  10.455   9.215
94929SOL     OW86683   8.078   5.046  13.549
94929SOL    HW186684   8.007   5.088  13.500
94929SOL    HW286685   8.100   4.969  13.498
94930SOL     OW86686   1.151  12.083  10.369
94930SOL    HW186687   1.176  12.081  10.461
94930SOL    HW286688   1.233  12.070  10.321
94931SOL     OW86689   8.208   6.228   3.200
94931SOL    HW186690   8.251   6.199   3.119
94931SOL    HW286691   8.209   6.324   3.194
94932SOL     OW86692  10.848  13.442   4.568
94932SOL    HW186693  10.798  13.391   4.504
94932SOL    HW286694  10.788  13.513   4.593
94933SOL     OW86695  10.472  14.174  11.651
94933SOL    HW186696  10.419  14.254  11.659
94933SOL    HW286697  10.408  14.103  11.657
94934SOL     OW86698   1.202  12.954   1.323
94934SOL    HW186699   1.218  13.008   1.400
94934SOL    HW286700   1.169  13.015   1.257
94935SOL     OW86701   1.756   3.320   9.018
94935SOL    HW186702   1.801   3.236   9.013
94935SOL    HW286703   1.726   3.336   8.928
94936SOL     OW86704  13.705  10.649  13.386
94936SOL    HW186705  13.720  10.636  13.479
94936SOL    HW286706  13.656  10.732  13.381
94937SOL     OW86707   5.911  12.513   8.408
94937SOL    HW186708   5.974  12.543   8.474
94937SOL    HW286709   5.920  12.576   8.336
94938SOL     OW86710   9.422   1.634   2.018
94938SOL    HW186711   9.433   1.729   2.022
94938SOL    HW286712   9.510   1.599   2.030
94939SOL     OW86713  10.801   3.997   8.865
94939SOL    HW186714  10.757   4.057   8.805
94939SOL    HW286715  10.732   3.941   8.899
94940SOL     OW86716   1.592   5.227  11.795
94940SOL    HW186717   1.517   5.286  11.798
94940SOL    HW286718   1.602   5.207  11.702
94941SOL     OW86719   9.224   1.306   5.111
94941SOL    HW186720   9.193   1.265   5.031
94941SOL    HW286721   9.149   1.357   5.143
94942SOL     OW86722   2.580   7.607   7.097
94942SOL    HW186723   2.593   7.618   7.003
94942SOL    HW286724   2.598   7.694   7.134
94943SOL     OW86725   7.961   3.001   5.875
94943SOL    HW186726   7.973   2.907   5.863
94943SOL    HW286727   7.866   3.014   5.871
94944SOL     OW86728   2.837  14.629  11.126
94944SOL    HW186729   2.798  14.613  11.040
94944SOL    HW286730   2.782  14.696  11.166
94945SOL     OW86731  12.493   8.071   3.435
94945SOL    HW186732  12.500   8.085   3.340
94945SOL    HW286733  12.466   7.980   3.443
94946SOL     OW86734  13.525   5.465   6.640
94946SOL    HW186735  13.559   5.553   6.658
94946SOL    HW286736  13.546   5.416   6.720
94947SOL     OW86737  10.337   3.636   9.974
94947SOL    HW186738  10.308   3.652  10.064
94947SOL    HW286739  10.369   3.721   9.944
94948SOL     OW86740   7.967  10.434   1.502
94948SOL    HW186741   7.958  10.344   1.473
94948SOL    HW286742   7.949  10.432   1.596
94949SOL     OW86743  11.220   1.434  10.639
94949SOL    HW186744  11.147   1.489  10.669
94949SOL    HW286745  11.252   1.478  10.560
94950SOL     OW86746  13.997  10.931   8.223
94950SOL    HW186747  13.964  10.957   8.309
94950SOL    HW286748  14.092  10.946   8.229
94951SOL     OW86749   3.748   2.096  12.168
94951SOL    HW186750   3.660   2.085  12.204
94951SOL    HW286751   3.738   2.083  12.074
94952SOL     OW86752   7.298   9.289   7.649
94952SOL    HW186753   7.281   9.203   7.688
94952SOL    HW286754   7.385   9.314   7.681
94953SOL     OW86755  14.056   7.034   4.588
94953SOL    HW186756  14.125   6.972   4.565
94953SOL    HW286757  14.004   6.989   4.654
94954SOL     OW86758   2.606  12.729   5.061
94954SOL    HW186759   2.667  12.655   5.070
94954SOL    HW286760   2.646  12.799   5.112
94955SOL     OW86761  12.327  12.283   6.575
94955SOL    HW186762  12.264  12.245   6.515
94955SOL    HW286763  12.412  12.271   6.533
94956SOL     OW86764  11.485   6.271  10.188
94956SOL    HW186765  11.472   6.188  10.234
94956SOL    HW286766  11.574   6.266  10.154
94957SOL     OW86767  12.280  14.155   3.300
94957SOL    HW186768  12.242  14.197   3.222
94957SOL    HW286769  12.239  14.069   3.303
94958SOL     OW86770   8.954   4.405  14.739
94958SOL    HW186771   8.957   4.487  14.789
94958SOL    HW286772   8.881   4.415  14.679
94959SOL     OW86773   5.045   6.107   9.402
94959SOL    HW186774   5.004   6.087   9.486
94959SOL    HW286775   5.113   6.172   9.423
94960SOL     OW86776   1.783   8.209   6.013
94960SOL    HW186777   1.864   8.205   5.962
94960SOL    HW286778   1.810   8.190   6.103
94961SOL     OW86779   4.302  11.425   4.014
94961SOL    HW186780   4.360  11.386   3.948
94961SOL    HW286781   4.353  11.497   4.051
94962SOL     OW86782  14.131  10.172   5.362
94962SOL    HW186783  14.225  10.186   5.351
94962SOL    HW286784  14.091  10.252   5.329
94963SOL     OW86785  11.691   0.987   5.393
94963SOL    HW186786  11.635   1.049   5.348
94963SOL    HW286787  11.732   0.936   5.323
94964SOL     OW86788   2.045  12.382  14.616
94964SOL    HW186789   1.991  12.316  14.573
94964SOL    HW286790   2.081  12.339  14.693
94965SOL     OW86791   1.906   4.301   2.319
94965SOL    HW186792   1.958   4.377   2.290
94965SOL    HW286793   1.893   4.249   2.240
94966SOL     OW86794   6.530  14.754   7.131
94966SOL    HW186795   6.434  14.758   7.137
94966SOL    HW286796   6.560  14.814   7.199
94967SOL     OW86797   1.383  11.219  11.806
94967SOL    HW186798   1.308  11.194  11.859
94967SOL    HW286799   1.382  11.315  11.805
94968SOL     OW86800   3.098   3.602   5.383
94968SOL    HW186801   3.156   3.535   5.417
94968SOL    HW286802   3.031   3.613   5.452
94969SOL     OW86803   4.917   5.962   9.635
94969SOL    HW186804   4.922   5.905   9.558
94969SOL    HW286805   4.829   6.000   9.631
94970SOL     OW86806  14.436  13.330   3.788
94970SOL    HW186807  14.348  13.364   3.801
94970SOL    HW286808  14.491  13.408   3.780
94971SOL     OW86809   3.486   3.983   0.413
94971SOL    HW186810   3.552   3.998   0.481
94971SOL    HW286811   3.521   3.912   0.360
94972SOL     OW86812  13.487   4.529   5.836
94972SOL    HW186813  13.451   4.597   5.892
94972SOL    HW286814  13.581   4.529   5.854
94973SOL     OW86815   9.186   2.520  10.545
94973SOL    HW186816   9.155   2.450  10.603
94973SOL    HW286817   9.154   2.601  10.585
94974SOL     OW86818  13.335   5.407  14.105
94974SOL    HW186819  13.312   5.314  14.112
94974SOL    HW286820  13.269   5.452  14.156
94975SOL     OW86821   9.624   4.375   5.978
94975SOL    HW186822   9.627   4.285   5.947
94975SOL    HW286823   9.581   4.370   6.063
94976SOL     OW86824  14.039   4.206   0.615
94976SOL    HW186825  14.047   4.141   0.546
94976SOL    HW286826  13.974   4.169   0.675
94977SOL     OW86827   4.642  13.572   4.255
94977SOL    HW186828   4.684  13.657   4.269
94977SOL    HW286829   4.612  13.575   4.164
94978SOL     OW86830   8.827   9.119   6.971
94978SOL    HW186831   8.808   9.185   7.038
94978SOL    HW286832   8.799   9.036   7.010
94979SOL     OW86833   5.686   7.172  14.733
94979SOL    HW186834   5.648   7.259  14.735
94979SOL    HW286835   5.658   7.135  14.649
94980SOL     OW86836   9.311   1.064  12.794
94980SOL    HW186837   9.226   1.020  12.794
94980SOL    HW286838   9.297   1.143  12.742
94981SOL     OW86839  10.954  12.697  13.136
94981SOL    HW186840  11.006  12.760  13.085
94981SOL    HW286841  10.989  12.703  13.224
94982SOL     OW86842  12.102  10.167   8.339
94982SOL    HW186843  12.025  10.194   8.389
94982SOL    HW286844  12.135  10.091   8.385
94983SOL     OW86845   4.882   3.127   3.491
94983SOL    HW186846   4.875   3.204   3.547
94983SOL    HW286847   4.855   3.158   3.405
94984SOL     OW86848  12.718   7.256  13.755
94984SOL    HW186849  12.763   7.209  13.825
94984SOL    HW286850  12.786   7.276  13.692
94985SOL     OW86851   9.068   1.519   3.176
94985SOL    HW186852   9.134   1.449   3.171
94985SOL    HW286853   9.091   1.579   3.105
94986SOL     OW86854   1.465  12.577  11.768
94986SOL    HW186855   1.485  12.668  11.750
94986SOL    HW286856   1.412  12.548  11.694
94987SOL     OW86857   5.803   0.202  10.613
94987SOL    HW186858   5.823   0.123  10.663
94987SOL    HW286859   5.865   0.201  10.540
94988SOL     OW86860   5.540   5.591  14.229
94988SOL    HW186861   5.569   5.500  14.228
94988SOL    HW286862   5.608   5.637  14.278
94989SOL     OW86863   3.377  13.652  10.085
94989SOL    HW186864   3.364  13.644   9.991
94989SOL    HW286865   3.299  13.699  10.116
94990SOL     OW86866   6.559   2.879  12.063
94990SOL    HW186867   6.499   2.953  12.064
94990SOL    HW286868   6.539   2.830  12.142
94991SOL     OW86869  13.999  10.384   9.591
94991SOL    HW186870  13.948  10.318   9.639
94991SOL    HW286871  13.968  10.378   9.501
94992SOL     OW86872   9.152  10.213   4.889
94992SOL    HW186873   9.066  10.205   4.846
94992SOL    HW286874   9.211  10.164   4.833
94993SOL     OW86875   8.025  14.171   1.350
94993SOL    HW186876   7.955  14.230   1.321
94993SOL    HW286877   8.017  14.170   1.445
94994SOL     OW86878   2.113   9.247  13.236
94994SOL    HW186879   2.201   9.214  13.256
94994SOL    HW286880   2.056   9.205  13.299
94995SOL     OW86881  10.972  13.583   9.694
94995SOL    HW186882  10.929  13.666   9.714
94995SOL    HW286883  11.065  13.602   9.700
94996SOL     OW86884   8.554  12.558  10.158
94996SOL    HW186885   8.555  12.497  10.233
94996SOL    HW286886   8.633  12.535  10.108
94997SOL     OW86887   0.213   1.259  10.065
94997SOL    HW186888   0.228   1.347  10.031
94997SOL    HW286889   0.162   1.273  10.145
94998SOL     OW86890   8.650  14.149  10.951
94998SOL    HW186891   8.677  14.099  10.874
94998SOL    HW286892   8.661  14.088  11.024
94999SOL     OW86893   7.568   9.271   1.199
94999SOL    HW186894   7.472   9.271   1.201
94999SOL    HW286895   7.590   9.338   1.133
95000SOL     OW86896  10.726  11.763   2.636
95000SOL    HW186897  10.678  11.687   2.604
95000SOL    HW286898  10.753  11.740   2.724
95001SOL     OW86899  13.674   2.159  13.209
95001SOL    HW186900  13.601   2.118  13.255
95001SOL    HW286901  13.686   2.243  13.252
95002SOL     OW86902  10.005   4.901   3.821
95002SOL    HW186903   9.965   4.866   3.741
95002SOL    HW286904  10.096   4.920   3.796
95003SOL     OW86905  11.073   1.608   7.205
95003SOL    HW186906  11.025   1.690   7.187
95003SOL    HW286907  11.160   1.637   7.231
95004SOL     OW86908   4.712   6.460  12.782
95004SOL    HW186909   4.681   6.420  12.701
95004SOL    HW286910   4.640   6.516  12.810
95005SOL     OW86911   9.386   6.659   4.471
95005SOL    HW186912   9.339   6.723   4.523
95005SOL    HW286913   9.323   6.630   4.404
95006SOL     OW86914  11.394   5.104  11.931
95006SOL    HW186915  11.304   5.072  11.921
95006SOL    HW286916  11.434   5.043  11.993
95007SOL     OW86917   6.712   5.459   9.996
95007SOL    HW186918   6.735   5.366   9.995
95007SOL    HW286919   6.741   5.490  10.082
95008SOL     OW86920   7.542   4.877  13.058
95008SOL    HW186921   7.530   4.935  13.134
95008SOL    HW286922   7.508   4.928  12.984
95009SOL     OW86923  10.602   6.092  14.681
95009SOL    HW186924  10.596   6.182  14.714
95009SOL    HW286925  10.512   6.060  14.685
95010SOL     OW86926   6.900  11.638   5.917
95010SOL    HW186927   6.895  11.545   5.940
95010SOL    HW286928   6.939  11.639   5.830
95011SOL     OW86929   5.341  14.190   8.023
95011SOL    HW186930   5.348  14.159   8.113
95011SOL    HW286931   5.431  14.192   7.991
95012SOL     OW86932   3.702   8.466  10.282
95012SOL    HW186933   3.782   8.428  10.245
95012SOL    HW286934   3.718   8.561  10.279
95013SOL     OW86935   3.462   6.779  11.116
95013SOL    HW186936   3.453   6.689  11.148
95013SOL    HW286937   3.536   6.775  11.056
95014SOL     OW86938   0.282   4.404  12.469
95014SOL    HW186939   0.209   4.452  12.508
95014SOL    HW286940   0.247   4.373  12.385
95015SOL     OW86941   2.139  12.248   0.660
95015SOL    HW186942   2.090  12.166   0.662
95015SOL    HW286943   2.213  12.233   0.719
95016SOL     OW86944   7.649  10.444   5.811
95016SOL    HW186945   7.580  10.384   5.783
95016SOL    HW286946   7.664  10.423   5.903
95017SOL     OW86947   3.329   9.003  12.267
95017SOL    HW186948   3.352   9.090  12.300
95017SOL    HW286949   3.256   8.975  12.323
95018SOL     OW86950   5.207   5.235   0.798
95018SOL    HW186951   5.152   5.167   0.759
95018SOL    HW286952   5.201   5.220   0.892
95019SOL     OW86953   2.078   7.838   7.759
95019SOL    HW186954   2.129   7.888   7.823
95019SOL    HW286955   2.143   7.801   7.700
95020SOL     OW86956   2.210   9.004   6.330
95020SOL    HW186957   2.173   8.919   6.352
95020SOL    HW286958   2.198   9.012   6.235
95021SOL     OW86959  13.467  10.527   3.952
95021SOL    HW186960  13.520  10.464   3.903
95021SOL    HW286961  13.380  10.487   3.957
95022SOL     OW86962  14.447   3.003   1.627
95022SOL    HW186963  14.520   3.056   1.596
95022SOL    HW286964  14.484   2.950   1.698
95023SOL     OW86965   5.908  14.310   3.842
95023SOL    HW186966   5.834  14.371   3.844
95023SOL    HW286967   5.894  14.259   3.762
95024SOL     OW86968  10.199   4.665  14.479
95024SOL    HW186969  10.251   4.736  14.517
95024SOL    HW286970  10.109   4.688  14.500
95025SOL     OW86971   2.418   4.308   2.850
95025SOL    HW186972   2.467   4.226   2.852
95025SOL    HW286973   2.428   4.344   2.938
95026SOL     OW86974   7.966   5.572  11.315
95026SOL    HW186975   7.912   5.571  11.236
95026SOL    HW286976   7.975   5.480  11.339
95027SOL     OW86977   0.236   0.473   2.718
95027SOL    HW186978   0.205   0.472   2.628
95027SOL    HW286979   0.283   0.391   2.729
95028SOL     OW86980   0.875   0.483   9.217
95028SOL    HW186981   0.948   0.545   9.214
95028SOL    HW286982   0.914   0.399   9.195
95029SOL     OW86983   2.190  13.916   7.040
95029SOL    HW186984   2.222  13.984   7.099
95029SOL    HW286985   2.258  13.849   7.041
95030SOL     OW86986   2.771   9.436   9.042
95030SOL    HW186987   2.720   9.396   8.971
95030SOL    HW286988   2.725   9.410   9.122
95031SOL     OW86989   3.212   9.941   7.924
95031SOL    HW186990   3.268   9.901   7.991
95031SOL    HW286991   3.135   9.884   7.919
95032SOL     OW86992   5.701  13.027   5.944
95032SOL    HW186993   5.666  13.009   5.857
95032SOL    HW286994   5.793  13.049   5.928
95033SOL     OW86995  10.217   7.442   8.743
95033SOL    HW186996  10.198   7.433   8.650
95033SOL    HW286997  10.190   7.358   8.781
95034SOL     OW86998   0.945   4.111  12.223
95034SOL    HW186999   1.030   4.155  12.217
95034SOL    HW287000   0.950   4.059  12.303
95035SOL     OW87001   1.320  10.080   7.369
95035SOL    HW187002   1.384  10.136   7.412
95035SOL    HW287003   1.347   9.991   7.392
95036SOL     OW87004   6.644   2.675   0.379
95036SOL    HW187005   6.597   2.612   0.434
95036SOL    HW287006   6.577   2.735   0.348
95037SOL     OW87007   1.073  13.374   9.767
95037SOL    HW187008   1.048  13.461   9.735
95037SOL    HW287009   1.009  13.355   9.836
95038SOL     OW87010   0.297   3.367   8.620
95038SOL    HW187011   0.258   3.284   8.594
95038SOL    HW287012   0.345   3.347   8.700
95039SOL     OW87013   4.035  10.631  13.059
95039SOL    HW187014   3.976  10.568  13.100
95039SOL    HW287015   3.977  10.703  13.033
95040SOL     OW87016   2.937   6.765  11.986
95040SOL    HW187017   2.954   6.704  12.058
95040SOL    HW287018   3.023   6.805  11.969
95041SOL     OW87019   4.972   5.096  11.439
95041SOL    HW187020   4.959   5.007  11.409
95041SOL    HW287021   5.054   5.124  11.398
95042SOL     OW87022  14.677   8.261   4.436
95042SOL    HW187023  14.612   8.328   4.459
95042SOL    HW287024  14.752   8.310   4.403
95043SOL     OW87025   2.599  10.602  12.091
95043SOL    HW187026   2.526  10.565  12.141
95043SOL    HW287027   2.558  10.639  12.013
95044SOL     OW87028   8.546  13.738  11.809
95044SOL    HW187029   8.617  13.745  11.872
95044SOL    HW287030   8.482  13.804  11.837
95045SOL     OW87031   6.747   2.600   0.007
95045SOL    HW187032   6.799   2.523   0.032
95045SOL    HW287033   6.799   2.674   0.039
95046SOL     OW87034  11.664  14.384   1.745
95046SOL    HW187035  11.744  14.364   1.793
95046SOL    HW287036  11.693  14.440   1.673
95047SOL     OW87037   7.828   6.705   4.483
95047SOL    HW187038   7.860   6.778   4.537
95047SOL    HW287039   7.905   6.651   4.469
95048SOL     OW87040  11.692   5.666   0.969
95048SOL    HW187041  11.609   5.703   0.998
95048SOL    HW287042  11.668   5.601   0.903
95049SOL     OW87043   1.630  13.058  10.958
95049SOL    HW187044   1.686  13.005  10.902
95049SOL    HW287045   1.595  13.126  10.900
95050SOL     OW87046  12.447   6.578   6.263
95050SOL    HW187047  12.493   6.657   6.237
95050SOL    HW287048  12.379   6.567   6.197
95051SOL     OW87049  10.547   1.692   5.371
95051SOL    HW187050  10.619   1.743   5.407
95051SOL    HW287051  10.526   1.734   5.287
95052SOL     OW87052   5.712   0.446   8.724
95052SOL    HW187053   5.801   0.445   8.761
95052SOL    HW287054   5.724   0.477   8.634
95053SOL     OW87055   6.213   6.145   6.041
95053SOL    HW187056   6.209   6.238   6.019
95053SOL    HW287057   6.249   6.143   6.130
95054SOL     OW87058   4.762   8.480  10.451
95054SOL    HW187059   4.853   8.508  10.454
95054SOL    HW287060   4.713   8.558  10.427
95055SOL     OW87061   5.543  13.657   4.843
95055SOL    HW187062   5.486  13.703   4.781
95055SOL    HW287063   5.627  13.653   4.799
95056SOL     OW87064   4.778  13.021   7.009
95056SOL    HW187065   4.862  12.992   6.972
95056SOL    HW287066   4.789  13.010   7.104
95057SOL     OW87067   2.347   2.181   1.914
95057SOL    HW187068   2.272   2.229   1.878
95057SOL    HW287069   2.424   2.226   1.879
95058SOL     OW87070   1.375   6.140   9.823
95058SOL    HW187071   1.446   6.201   9.842
95058SOL    HW287072   1.403   6.093   9.745
95059SOL     OW87073   9.931   4.162   3.745
95059SOL    HW187074  10.025   4.176   3.730
95059SOL    HW287075   9.927   4.091   3.809
95060SOL     OW87076   0.383   6.015   4.236
95060SOL    HW187077   0.359   5.922   4.234
95060SOL    HW287078   0.313   6.059   4.187
95061SOL     OW87079  12.962   9.303   4.973
95061SOL    HW187080  12.965   9.309   4.877
95061SOL    HW287081  12.898   9.234   4.990
95062SOL     OW87082  10.569  12.015   4.337
95062SOL    HW187083  10.651  12.048   4.300
95062SOL    HW287084  10.514  12.093   4.346
95063SOL     OW87085   2.788  11.004  10.045
95063SOL    HW187086   2.851  10.942  10.082
95063SOL    HW287087   2.704  10.959  10.054
95064SOL     OW87088   8.128   2.775  14.877
95064SOL    HW187089   8.033   2.768   0.001
95064SOL    HW287090   8.151   2.851   0.049
95065SOL     OW87091   8.575   7.233   0.026
95065SOL    HW187092   8.557   7.175  14.833
95065SOL    HW287093   8.521   7.310   0.010
95066SOL     OW87094   5.308  12.653   4.871
95066SOL    HW187095   5.241  12.713   4.837
95066SOL    HW287096   5.360  12.630   4.794
95067SOL     OW87097   2.327   0.190   7.396
95067SOL    HW187098   2.292   0.137   7.324
95067SOL    HW287099   2.408   0.144   7.421
95068SOL     OW87100   7.291  10.068  12.791
95068SOL    HW187101   7.278   9.978  12.762
95068SOL    HW287102   7.379  10.070  12.828
95069SOL     OW87103   2.630  14.120   9.732
95069SOL    HW187104   2.616  14.211   9.708
95069SOL    HW287105   2.612  14.117   9.826
95070SOL     OW87106   3.803   3.446   9.256
95070SOL    HW187107   3.711   3.421   9.262
95070SOL    HW287108   3.823   3.444   9.163
95071SOL     OW87109   2.389  11.000  10.060
95071SOL    HW187110   2.339  11.080  10.077
95071SOL    HW287111   2.428  11.014   9.973
95072SOL     OW87112  11.491   7.554  13.755
95072SOL    HW187113  11.522   7.636  13.716
95072SOL    HW287114  11.445   7.510  13.684
95073SOL     OW87115   7.490  11.358   0.536
95073SOL    HW187116   7.397  11.354   0.514
95073SOL    HW287117   7.524  11.431   0.485
95074SOL     OW87118  11.940  10.502  12.302
95074SOL    HW187119  12.015  10.560  12.308
95074SOL    HW287120  11.881  10.532  12.372
95075SOL     OW87121   3.364   1.009   1.404
95075SOL    HW187122   3.454   0.981   1.389
95075SOL    HW287123   3.314   0.971   1.332
95076SOL     OW87124   8.468  10.091   7.601
95076SOL    HW187125   8.435  10.179   7.616
95076SOL    HW287126   8.520  10.071   7.678
95077SOL     OW87127   7.140   9.865   1.553
95077SOL    HW187128   7.205   9.802   1.585
95077SOL    HW287129   7.067   9.857   1.614
95078SOL     OW87130   4.717   5.557   2.454
95078SOL    HW187131   4.676   5.632   2.411
95078SOL    HW287132   4.761   5.594   2.531
95079SOL     OW87133   4.669   5.893   5.317
95079SOL    HW187134   4.668   5.867   5.224
95079SOL    HW287135   4.678   5.989   5.314
95080SOL     OW87136   5.466   9.200   9.785
95080SOL    HW187137   5.496   9.201   9.876
95080SOL    HW287138   5.532   9.251   9.737
95081SOL     OW87139   2.572  11.021   7.567
95081SOL    HW187140   2.602  10.932   7.545
95081SOL    HW287141   2.476  11.014   7.567
95082SOL     OW87142   8.278   6.309  12.056
95082SOL    HW187143   8.233   6.344  12.133
95082SOL    HW287144   8.207   6.279  11.999
95083SOL     OW87145  12.100   0.825  11.926
95083SOL    HW187146  12.171   0.850  11.868
95083SOL    HW287147  12.130   0.745  11.968
95084SOL     OW87148   9.402   2.030  13.760
95084SOL    HW187149   9.331   2.084  13.794
95084SOL    HW287150   9.479   2.060  13.809
95085SOL     OW87151   4.298  11.645   9.316
95085SOL    HW187152   4.243  11.570   9.295
95085SOL    HW287153   4.371  11.640   9.254
95086SOL     OW87154  10.814  10.908   5.140
95086SOL    HW187155  10.898  10.870   5.113
95086SOL    HW287156  10.835  10.958   5.219
95087SOL     OW87157   0.215   8.941   9.129
95087SOL    HW187158   0.172   9.022   9.101
95087SOL    HW287159   0.269   8.915   9.054
95088SOL     OW87160   4.713  14.515   1.076
95088SOL    HW187161   4.674  14.427   1.069
95088SOL    HW287162   4.641  14.570   1.106
95089SOL     OW87163   6.430  10.533   2.773
95089SOL    HW187164   6.338  10.556   2.759
95089SOL    HW287165   6.456  10.583   2.850
95090SOL     OW87166   9.758   6.910   3.481
95090SOL    HW187167   9.687   6.908   3.544
95090SOL    HW287168   9.811   6.985   3.506
95091SOL     OW87169   7.394  13.011   8.855
95091SOL    HW187170   7.368  12.931   8.809
95091SOL    HW287171   7.396  13.078   8.787
95092SOL     OW87172   1.462   9.503  13.646
95092SOL    HW187173   1.517   9.544  13.712
95092SOL    HW287174   1.510   9.424  13.621
95093SOL     OW87175  10.746   0.578   9.614
95093SOL    HW187176  10.676   0.567   9.679
95093SOL    HW287177  10.710   0.539   9.534
95094SOL     OW87178  11.337   8.448   0.602
95094SOL    HW187179  11.242   8.459   0.597
95094SOL    HW287180  11.368   8.472   0.514
95095SOL     OW87181   0.465  14.454  10.432
95095SOL    HW187182   0.385  14.476  10.383
95095SOL    HW287183   0.492  14.369  10.396
95096SOL     OW87184   8.304   2.069  12.692
95096SOL    HW187185   8.279   1.990  12.741
95096SOL    HW287186   8.224   2.096  12.647
95097SOL     OW87187   7.836  13.279   3.223
95097SOL    HW187188   7.797  13.361   3.252
95097SOL    HW287189   7.842  13.226   3.303
95098SOL     OW87190   5.359  12.328  11.980
95098SOL    HW187191   5.345  12.234  11.988
95098SOL    HW287192   5.449  12.337  11.951
95099SOL     OW87193   3.181   4.905   3.133
95099SOL    HW187194   3.256   4.941   3.086
95099SOL    HW287195   3.220   4.841   3.194
95100SOL     OW87196   9.447   4.260  11.074
95100SOL    HW187197   9.507   4.329  11.045
95100SOL    HW287198   9.498   4.179  11.065
95101SOL     OW87199   0.997  14.660  13.254
95101SOL    HW187200   1.060  14.722  13.292
95101SOL    HW287201   1.023  14.653  13.163
95102SOL     OW87202   7.242   0.194  13.190
95102SOL    HW187203   7.284   0.240  13.118
95102SOL    HW287204   7.184   0.131  13.148
95103SOL     OW87205   2.804   5.114  14.723
95103SOL    HW187206   2.785   5.144  14.634
95103SOL    HW287207   2.726   5.066  14.750
95104SOL     OW87208   9.480   0.745   7.368
95104SOL    HW187209   9.437   0.661   7.351
95104SOL    HW287210   9.533   0.730   7.446
95105SOL     OW87211   6.800  12.391   9.700
95105SOL    HW187212   6.718  12.341   9.702
95105SOL    HW287213   6.822  12.396   9.607
95106SOL     OW87214  14.054   1.598   5.677
95106SOL    HW187215  14.000   1.526   5.644
95106SOL    HW287216  14.052   1.663   5.607
95107SOL     OW87217  11.776   8.389   7.808
95107SOL    HW187218  11.869   8.392   7.786
95107SOL    HW287219  11.770   8.432   7.893
95108SOL     OW87220   7.185   2.839   9.182
95108SOL    HW187221   7.102   2.861   9.226
95108SOL    HW287222   7.237   2.919   9.189
95109SOL     OW87223   5.719   2.747   3.226
95109SOL    HW187224   5.662   2.671   3.235
95109SOL    HW287225   5.778   2.724   3.154
95110SOL     OW87226   0.529   1.020   7.585
95110SOL    HW187227   0.581   1.065   7.518
95110SOL    HW287228   0.548   1.067   7.666
95111SOL     OW87229   8.010   1.659   4.713
95111SOL    HW187230   8.049   1.713   4.645
95111SOL    HW287231   7.996   1.574   4.672
95112SOL     OW87232  13.375   6.155   1.998
95112SOL    HW187233  13.396   6.200   2.080
95112SOL    HW287234  13.316   6.084   2.024
95113SOL     OW87235  13.993   5.341   9.607
95113SOL    HW187236  13.971   5.421   9.559
95113SOL    HW287237  14.064   5.366   9.665
95114SOL     OW87238   6.141  14.113   4.159
95114SOL    HW187239   6.163  14.065   4.079
95114SOL    HW287240   6.048  14.093   4.173
95115SOL     OW87241   4.451  14.412   5.159
95115SOL    HW187242   4.546  14.411   5.151
95115SOL    HW287243   4.430  14.499   5.193
95116SOL     OW87244  14.412   6.171  13.266
95116SOL    HW187245  14.340   6.110  13.282
95116SOL    HW287246  14.479   6.118  13.223
95117SOL     OW87247   3.400   9.216  11.771
95117SOL    HW187248   3.316   9.186  11.806
95117SOL    HW287249   3.452   9.238  11.849
95118SOL     OW87250  14.817   0.727  10.948
95118SOL    HW187251  14.825   0.765  10.860
95118SOL    HW287252  14.814   0.803  11.007
95119SOL     OW87253  10.327  13.050   3.021
95119SOL    HW187254  10.247  13.102   3.021
95119SOL    HW287255  10.321  12.996   3.099
95120SOL     OW87256   6.801  13.835  11.084
95120SOL    HW187257   6.766  13.924  11.079
95120SOL    HW287258   6.733  13.785  11.130
95121SOL     OW87259  11.065   3.131  13.273
95121SOL    HW187260  11.140   3.156  13.326
95121SOL    HW287261  11.035   3.212  13.233
95122SOL     OW87262   7.657   8.585   2.872
95122SOL    HW187263   7.597   8.514   2.850
95122SOL    HW287264   7.618   8.663   2.832
95123SOL     OW87265   9.796   6.491   1.088
95123SOL    HW187266   9.809   6.423   1.154
95123SOL    HW287267   9.705   6.480   1.060
95124SOL     OW87268  13.669   1.067   2.153
95124SOL    HW187269  13.718   1.049   2.233
95124SOL    HW287270  13.735   1.068   2.084
95125SOL     OW87271  10.176   3.794  12.509
95125SOL    HW187272  10.247   3.760  12.454
95125SOL    HW287273  10.192   3.888  12.514
95126SOL     OW87274   6.556   4.012   6.634
95126SOL    HW187275   6.573   4.069   6.709
95126SOL    HW287276   6.617   4.041   6.567
95127SOL     OW87277   4.636   9.614   6.555
95127SOL    HW187278   4.615   9.521   6.565
95127SOL    HW287279   4.585   9.658   6.623
95128SOL     OW87280   2.483   5.433  11.219
95128SOL    HW187281   2.462   5.445  11.126
95128SOL    HW287282   2.489   5.339  11.230
95129SOL     OW87283  12.192   2.542   4.160
95129SOL    HW187284  12.165   2.450   4.169
95129SOL    HW287285  12.113   2.588   4.132
95130SOL     OW87286  11.659   8.012   9.701
95130SOL    HW187287  11.571   8.035   9.730
95130SOL    HW287288  11.711   8.091   9.715
95131SOL     OW87289   1.494   4.959   2.169
95131SOL    HW187290   1.526   5.049   2.173
95131SOL    HW287291   1.554   4.910   2.225
95132SOL     OW87292   0.307  14.260   4.247
95132SOL    HW187293   0.352  14.203   4.310
95132SOL    HW287294   0.373  14.278   4.180
95133SOL     OW87295   3.938   9.195  12.439
95133SOL    HW187296   4.003   9.124  12.446
95133SOL    HW287297   3.980   9.270  12.481
95134SOL     OW87298  10.007   1.295   3.756
95134SOL    HW187299  10.077   1.230   3.755
95134SOL    HW287300  10.049   1.376   3.729
95135SOL     OW87301   5.594  11.655   2.772
95135SOL    HW187302   5.560  11.744   2.767
95135SOL    HW287303   5.689  11.666   2.777
95136SOL     OW87304   6.863  11.376   4.160
95136SOL    HW187305   6.802  11.448   4.173
95136SOL    HW287306   6.913  11.400   4.081
95137SOL     OW87307   2.037   1.636   3.012
95137SOL    HW187308   1.980   1.712   3.009
95137SOL    HW287309   2.036   1.608   3.104
95138SOL     OW87310   4.942   7.182   4.209
95138SOL    HW187311   5.002   7.128   4.261
95138SOL    HW287312   4.855   7.152   4.235
95139SOL     OW87313   9.857   1.227   9.417
95139SOL    HW187314   9.770   1.264   9.430
95139SOL    HW287315   9.903   1.245   9.499
95140SOL     OW87316   7.217   9.461   3.116
95140SOL    HW187317   7.307   9.460   3.147
95140SOL    HW287318   7.177   9.536   3.160
95141SOL     OW87319  12.059   6.121   0.339
95141SOL    HW187320  12.076   6.040   0.292
95141SOL    HW287321  12.144   6.147   0.375
95142SOL     OW87322   2.090   6.773   6.812
95142SOL    HW187323   2.092   6.772   6.908
95142SOL    HW287324   2.126   6.688   6.787
95143SOL     OW87325  13.580   3.954   5.322
95143SOL    HW187326  13.632   4.012   5.267
95143SOL    HW287327  13.535   4.011   5.384
95144SOL     OW87328   2.359   1.565   8.852
95144SOL    HW187329   2.410   1.636   8.812
95144SOL    HW287330   2.371   1.578   8.946
95145SOL     OW87331  11.192   0.112   7.712
95145SOL    HW187332  11.155   0.184   7.763
95145SOL    HW287333  11.275   0.093   7.755
95146SOL     OW87334  14.622  14.606   7.603
95146SOL    HW187335  14.610  14.644   7.690
95146SOL    HW287336  14.695  14.655   7.566
95147SOL     OW87337   0.797  14.004  11.100
95147SOL    HW187338   0.821  14.082  11.049
95147SOL    HW287339   0.863  13.939  11.075
95148SOL     OW87340   5.988  14.160  13.203
95148SOL    HW187341   6.032  14.084  13.164
95148SOL    HW287342   6.057  14.226  13.211
95149SOL     OW87343   2.410   0.781  14.824
95149SOL    HW187344   2.484   0.725  14.844
95149SOL    HW287345   2.421   0.803  14.731
95150SOL     OW87346   3.848   3.528   7.515
95150SOL    HW187347   3.894   3.448   7.538
95150SOL    HW287348   3.917   3.594   7.508
95151SOL     OW87349   7.714   0.080   9.964
95151SOL    HW187350   7.681   0.143   9.900
95151SOL    HW287351   7.785   0.035   9.918
95152SOL     OW87352   8.869  13.572   0.316
95152SOL    HW187353   8.779  13.584   0.346
95152SOL    HW287354   8.913  13.526   0.387
95153SOL     OW87355   3.664  14.533   8.809
95153SOL    HW187356   3.623  14.535   8.723
95153SOL    HW287357   3.754  14.563   8.794
95154SOL     OW87358   0.310   6.092  14.381
95154SOL    HW187359   0.251   6.114  14.453
95154SOL    HW287360   0.380   6.157  14.387
95155SOL     OW87361  12.085  11.927   3.966
95155SOL    HW187362  12.028  11.869   4.016
95155SOL    HW287363  12.124  11.871   3.899
95156SOL     OW87364   9.674   2.087  13.325
95156SOL    HW187365   9.748   2.050  13.373
95156SOL    HW287366   9.642   2.015  13.270
95157SOL     OW87367  11.223   3.989  10.324
95157SOL    HW187368  11.215   4.078  10.289
95157SOL    HW287369  11.138   3.949  10.303
95158SOL     OW87370  12.135  14.179   6.643
95158SOL    HW187371  12.081  14.190   6.564
95158SOL    HW287372  12.151  14.268   6.674
95159SOL     OW87373   7.487   6.630   2.190
95159SOL    HW187374   7.549   6.701   2.170
95159SOL    HW287375   7.442   6.613   2.107
95160SOL     OW87376   6.109   0.032  12.073
95160SOL    HW187377   6.090  14.839  12.128
95160SOL    HW287378   6.051   0.021  11.997
95161SOL     OW87379   1.604  13.183  12.745
95161SOL    HW187380   1.647  13.268  12.755
95161SOL    HW287381   1.677  13.121  12.733
95162SOL     OW87382   8.231  12.387  10.740
95162SOL    HW187383   8.211  12.298  10.711
95162SOL    HW287384   8.327  12.388  10.746
95163SOL     OW87385   5.300   8.106  12.836
95163SOL    HW187386   5.267   8.051  12.765
95163SOL    HW287387   5.342   8.179  12.792
95164SOL     OW87388   1.290   4.493  13.971
95164SOL    HW187389   1.211   4.466  13.925
95164SOL    HW287390   1.269   4.482  14.064
95165SOL     OW87391   4.880   3.412   6.393
95165SOL    HW187392   4.888   3.450   6.481
95165SOL    HW287393   4.811   3.347   6.401
95166SOL     OW87394   1.426   2.212   8.144
95166SOL    HW187395   1.393   2.130   8.180
95166SOL    HW287396   1.445   2.192   8.052
95167SOL     OW87397   4.195   5.137   1.254
95167SOL    HW187398   4.180   5.179   1.339
95167SOL    HW287399   4.270   5.184   1.218
95168SOL     OW87400   6.154   5.953   7.586
95168SOL    HW187401   6.230   5.950   7.644
95168SOL    HW287402   6.099   5.880   7.616
95169SOL     OW87403   9.215   9.893   0.375
95169SOL    HW187404   9.286   9.869   0.434
95169SOL    HW287405   9.230   9.840   0.297
95170SOL     OW87406  13.804  12.080  14.858
95170SOL    HW187407  13.832  12.101   0.065
95170SOL    HW287408  13.832  11.989  14.845
95171SOL     OW87409   5.659   5.342  14.180
95171SOL    HW187410   5.718   5.321  14.107
95171SOL    HW287411   5.710   5.318  14.258
95172SOL     OW87412   0.226   9.447   2.387
95172SOL    HW187413   0.271   9.480   2.465
95172SOL    HW287414   0.218   9.353   2.402
95173SOL     OW87415   4.974  11.183  11.449
95173SOL    HW187416   4.899  11.220  11.403
95173SOL    HW287417   4.991  11.100  11.405
95174SOL     OW87418  13.374  12.153  12.077
95174SOL    HW187419  13.284  12.143  12.045
95174SOL    HW287420  13.371  12.230  12.134
95175SOL     OW87421   3.838  14.285  11.388
95175SOL    HW187422   3.911  14.347  11.397
95175SOL    HW287423   3.871  14.203  11.425
95176SOL     OW87424  11.747   7.704   7.755
95176SOL    HW187425  11.693   7.688   7.677
95176SOL    HW287426  11.812   7.768   7.726
95177SOL     OW87427   8.591  13.459  11.155
95177SOL    HW187428   8.536  13.537  11.149
95177SOL    HW287429   8.532  13.386  11.137
95178SOL     OW87430  10.733   6.178   5.575
95178SOL    HW187431  10.695   6.215   5.496
95178SOL    HW287432  10.825   6.161   5.552
95179SOL     OW87433   4.417   0.960   5.047
95179SOL    HW187434   4.432   0.876   5.005
95179SOL    HW287435   4.475   1.021   5.001
95180SOL     OW87436   6.329   8.741   1.419
95180SOL    HW187437   6.246   8.737   1.466
95180SOL    HW287438   6.373   8.818   1.454
95181SOL     OW87439   4.769  10.931   6.226
95181SOL    HW187440   4.860  10.950   6.206
95181SOL    HW287441   4.747  10.989   6.299
95182SOL     OW87442   5.849   7.782   1.305
95182SOL    HW187443   5.761   7.770   1.270
95182SOL    HW287444   5.894   7.837   1.240
95183SOL     OW87445   3.319   2.655  11.973
95183SOL    HW187446   3.259   2.587  11.943
95183SOL    HW287447   3.261   2.727  11.999
95184SOL     OW87448   7.452   2.556   2.329
95184SOL    HW187449   7.409   2.598   2.254
95184SOL    HW287450   7.421   2.465   2.326
95185SOL     OW87451   8.579  10.130   5.178
95185SOL    HW187452   8.548  10.089   5.259
95185SOL    HW287453   8.617  10.058   5.128
95186SOL     OW87454   6.606  12.773   4.438
95186SOL    HW187455   6.563  12.701   4.484
95186SOL    HW287456   6.699  12.762   4.459
95187SOL     OW87457   4.826   3.282   2.805
95187SOL    HW187458   4.830   3.272   2.710
95187SOL    HW287459   4.901   3.339   2.826
95188SOL     OW87460   2.323  13.920   4.808
95188SOL    HW187461   2.266  13.949   4.879
95188SOL    HW287462   2.407  13.962   4.825
95189SOL     OW87463   1.015  14.148   6.321
95189SOL    HW187464   1.012  14.053   6.309
95189SOL    HW287465   1.098  14.164   6.367
95190SOL     OW87466   2.131   6.727   7.444
95190SOL    HW187467   2.171   6.813   7.454
95190SOL    HW287468   2.045   6.735   7.485
95191SOL     OW87469  11.750   1.082   0.414
95191SOL    HW187470  11.777   1.155   0.470
95191SOL    HW287471  11.826   1.067   0.356
95192SOL     OW87472   5.920   3.999   0.244
95192SOL    HW187473   5.896   3.906   0.237
95192SOL    HW287474   5.882   4.039   0.166
95193SOL     OW87475   9.512   5.253   3.612
95193SOL    HW187476   9.502   5.294   3.698
95193SOL    HW287477   9.562   5.174   3.628
95194SOL     OW87478   9.872   0.932   8.031
95194SOL    HW187479   9.784   0.949   8.062
95194SOL    HW287480   9.920   0.902   8.109
95195SOL     OW87481  13.934  10.863   4.988
95195SOL    HW187482  13.856  10.863   5.044
95195SOL    HW287483  13.911  10.918   4.914
95196SOL     OW87484   1.316   6.491  13.604
95196SOL    HW187485   1.333   6.397  13.595
95196SOL    HW287486   1.232   6.504  13.560
95197SOL     OW87487  11.582  10.710   3.502
95197SOL    HW187488  11.551  10.741   3.587
95197SOL    HW287489  11.504  10.676   3.459
95198SOL     OW87490   4.914   4.311  14.376
95198SOL    HW187491   4.998   4.268  14.390
95198SOL    HW287492   4.919   4.390  14.430
95199SOL     OW87493   9.320   6.184  11.915
95199SOL    HW187494   9.378   6.198  11.990
95199SOL    HW287495   9.378   6.172  11.841
95200SOL     OW87496   6.155   5.410  13.190
95200SOL    HW187497   6.238   5.376  13.158
95200SOL    HW287498   6.114   5.335  13.235
95201SOL     OW87499  10.572  12.536   6.255
95201SOL    HW187500  10.484  12.511   6.227
95201SOL    HW287501  10.588  12.619   6.209
95202SOL     OW87502  11.411   7.084   2.696
95202SOL    HW187503  11.486   7.046   2.743
95202SOL    HW287504  11.362   7.130   2.764
95203SOL     OW87505   5.119   8.566  13.801
95203SOL    HW187506   5.158   8.652  13.790
95203SOL    HW287507   5.170   8.525  13.871
95204SOL     OW87508   5.344   1.371   6.434
95204SOL    HW187509   5.387   1.402   6.355
95204SOL    HW287510   5.409   1.317   6.478
95205SOL     OW87511   3.885   3.188  10.375
95205SOL    HW187512   3.838   3.203  10.456
95205SOL    HW287513   3.849   3.107  10.340
95206SOL     OW87514   2.033  11.744   0.502
95206SOL    HW187515   2.049  11.650   0.509
95206SOL    HW287516   2.116  11.781   0.471
95207SOL     OW87517  12.722  12.075   6.652
95207SOL    HW187518  12.689  12.119   6.730
95207SOL    HW287519  12.700  11.983   6.665
95208SOL     OW87520   0.185  10.076   4.225
95208SOL    HW187521   0.133  10.040   4.297
95208SOL    HW287522   0.132  10.147   4.190
95209SOL     OW87523   3.108   3.632  13.618
95209SOL    HW187524   3.064   3.552  13.590
95209SOL    HW287525   3.159   3.606  13.695
95210SOL     OW87526   9.494   7.774  14.870
95210SOL    HW187527   9.527   7.831  14.800
95210SOL    HW287528   9.572   7.742   0.032
95211SOL     OW87529   3.235  10.636   8.803
95211SOL    HW187530   3.140  10.649   8.799
95211SOL    HW287531   3.254  10.580   8.728
95212SOL     OW87532   8.287   3.603   5.652
95212SOL    HW187533   8.243   3.546   5.715
95212SOL    HW287534   8.286   3.690   5.694
95213SOL     OW87535   3.928   1.059   2.192
95213SOL    HW187536   3.839   1.040   2.162
95213SOL    HW287537   3.918   1.076   2.286
95214SOL     OW87538   7.056   2.679   7.918
95214SOL    HW187539   7.043   2.768   7.885
95214SOL    HW287540   7.058   2.689   8.013
95215SOL     OW87541   7.005   4.798  12.768
95215SOL    HW187542   7.079   4.800  12.828
95215SOL    HW287543   6.941   4.741  12.811
95216SOL     OW87544  12.634   6.591   2.899
95216SOL    HW187545  12.692   6.593   2.823
95216SOL    HW287546  12.546   6.584   2.861
95217SOL     OW87547   6.558   7.176  14.074
95217SOL    HW187548   6.575   7.270  14.078
95217SOL    HW287549   6.643   7.136  14.094
95218SOL     OW87550   6.867  13.541   6.183
95218SOL    HW187551   6.909  13.627   6.180
95218SOL    HW287552   6.799  13.545   6.116
95219SOL     OW87553   6.264  14.459   0.044
95219SOL    HW187554   6.309  14.484  14.845
95219SOL    HW287555   6.239  14.367   0.029
95220SOL     OW87556   8.576   6.601  13.925
95220SOL    HW187557   8.491   6.596  13.970
95220SOL    HW287558   8.568   6.679  13.869
95221SOL     OW87559   2.671  12.091   3.615
95221SOL    HW187560   2.723  12.071   3.693
95221SOL    HW287561   2.671  12.010   3.564
95222SOL     OW87562   7.068  10.099   8.004
95222SOL    HW187563   7.034  10.124   7.918
95222SOL    HW287564   6.993  10.108   8.063
95223SOL     OW87565   1.786   4.109   0.775
95223SOL    HW187566   1.801   4.108   0.869
95223SOL    HW287567   1.737   4.190   0.759
95224SOL     OW87568   3.606  12.832   7.050
95224SOL    HW187569   3.661  12.754   7.052
95224SOL    HW287570   3.665  12.904   7.076
95225SOL     OW87571   8.062   7.633   7.958
95225SOL    HW187572   8.121   7.650   8.032
95225SOL    HW287573   8.094   7.552   7.919
95226SOL     OW87574   6.272  13.888  12.083
95226SOL    HW187575   6.360  13.853  12.076
95226SOL    HW287576   6.239  13.855  12.167
95227SOL     OW87577   7.792  11.166   8.508
95227SOL    HW187578   7.780  11.223   8.584
95227SOL    HW287579   7.820  11.224   8.438
95228SOL     OW87580   7.084   3.806   1.686
95228SOL    HW187581   7.145   3.780   1.616
95228SOL    HW287582   7.131   3.784   1.766
95229SOL     OW87583  11.921   1.374  13.859
95229SOL    HW187584  11.852   1.349  13.920
95229SOL    HW287585  11.967   1.446  13.903
95230SOL     OW87586   3.893   0.359  13.300
95230SOL    HW187587   3.932   0.443  13.276
95230SOL    HW287588   3.871   0.318  13.216
95231SOL     OW87589   4.896   1.031  11.539
95231SOL    HW187590   4.882   0.948  11.584
95231SOL    HW287591   4.821   1.039  11.480
95232SOL     OW87592   6.297  11.690   7.069
95232SOL    HW187593   6.330  11.667   7.156
95232SOL    HW287594   6.252  11.611   7.039
95233SOL     OW87595   5.954   6.727   8.056
95233SOL    HW187596   6.030   6.682   8.091
95233SOL    HW287597   5.880   6.695   8.108
95234SOL     OW87598   2.454   7.107  13.058
95234SOL    HW187599   2.453   7.106  12.963
95234SOL    HW287600   2.382   7.049  13.083
95235SOL     OW87601   1.313  12.435   6.705
95235SOL    HW187602   1.261  12.363   6.742
95235SOL    HW287603   1.287  12.511   6.757
95236SOL     OW87604   1.973   1.435   3.601
95236SOL    HW187605   2.056   1.450   3.556
95236SOL    HW287606   1.978   1.490   3.680
95237SOL     OW87607  14.069  11.073  10.870
95237SOL    HW187608  14.151  11.111  10.902
95237SOL    HW287609  14.096  11.004  10.809
95238SOL     OW87610  11.592   8.057  10.918
95238SOL    HW187611  11.538   8.035  10.841
95238SOL    HW287612  11.681   8.065  10.883
95239SOL     OW87613   1.054  11.017   9.154
95239SOL    HW187614   1.028  10.930   9.184
95239SOL    HW287615   1.038  11.016   9.059
95240SOL     OW87616   1.263   4.877   8.474
95240SOL    HW187617   1.282   4.961   8.432
95240SOL    HW287618   1.169   4.866   8.464
95241SOL     OW87619  12.189   7.446  12.704
95241SOL    HW187620  12.191   7.357  12.739
95241SOL    HW287621  12.212   7.435  12.612
95242SOL     OW87622   9.602   0.850   8.682
95242SOL    HW187623   9.591   0.771   8.735
95242SOL    HW287624   9.575   0.921   8.739
95243SOL     OW87625   8.568   5.434   6.307
95243SOL    HW187626   8.658   5.422   6.337
95243SOL    HW287627   8.576   5.466   6.217
95244SOL     OW87628   0.420   7.026  10.981
95244SOL    HW187629   0.433   6.953  10.920
95244SOL    HW287630   0.372   7.091  10.930
95245SOL     OW87631   6.844   2.155   1.174
95245SOL    HW187632   6.830   2.123   1.085
95245SOL    HW287633   6.846   2.076   1.227
95246SOL     OW87634   6.603   6.241   0.751
95246SOL    HW187635   6.696   6.260   0.737
95246SOL    HW287636   6.599   6.149   0.774
95247SOL     OW87637   2.743  14.738   2.905
95247SOL    HW187638   2.717  14.825   2.936
95247SOL    HW287639   2.793  14.755   2.825
95248SOL     OW87640  12.295   3.565   1.638
95248SOL    HW187641  12.234   3.493   1.619
95248SOL    HW287642  12.359   3.561   1.567
95249SOL     OW87643   4.179   0.941   0.489
95249SOL    HW187644   4.141   0.969   0.405
95249SOL    HW287645   4.270   0.920   0.468
95250SOL     OW87646   8.972   5.671   0.708
95250SOL    HW187647   9.040   5.604   0.709
95250SOL    HW287648   8.890   5.622   0.697
95251SOL     OW87649   7.349  10.032   0.601
95251SOL    HW187650   7.322  10.024   0.692
95251SOL    HW287651   7.270  10.014   0.550
95252SOL     OW87652   2.635  11.251   2.349
95252SOL    HW187653   2.656  11.159   2.367
95252SOL    HW287654   2.720  11.295   2.344
95253SOL     OW87655  14.471  14.285   2.707
95253SOL    HW187656  14.506  14.269   2.795
95253SOL    HW287657  14.549  14.291   2.651
95254SOL     OW87658  12.857  14.719  11.825
95254SOL    HW187659  12.806  14.793  11.790
95254SOL    HW287660  12.823  14.707  11.914
95255SOL     OW87661   8.641   5.094   5.297
95255SOL    HW187662   8.560   5.047   5.277
95255SOL    HW287663   8.636   5.111   5.391
95256SOL     OW87664  12.011  10.241  13.617
95256SOL    HW187665  12.012  10.145  13.623
95256SOL    HW287666  11.986  10.270  13.705
95257SOL     OW87667   6.329   1.484   1.503
95257SOL    HW187668   6.323   1.494   1.408
95257SOL    HW287669   6.400   1.543   1.529
95258SOL     OW87670   2.278   6.939  13.179
95258SOL    HW187671   2.280   6.888  13.260
95258SOL    HW287672   2.237   6.881  13.115
95259SOL     OW87673   0.809   6.459  14.606
95259SOL    HW187674   0.736   6.520  14.605
95259SOL    HW287675   0.817   6.432  14.697
95260SOL     OW87676  13.380   3.750   0.375
95260SOL    HW187677  13.323   3.765   0.300
95260SOL    HW287678  13.322   3.715   0.443
95261SOL     OW87679   0.456  12.921  12.372
95261SOL    HW187680   0.408  13.002  12.386
95261SOL    HW287681   0.390  12.858  12.344
95262SOL     OW87682   3.693  10.214  11.262
95262SOL    HW187683   3.693  10.224  11.357
95262SOL    HW287684   3.761  10.273  11.231
95263SOL     OW87685   9.386   8.578   6.204
95263SOL    HW187686   9.325   8.636   6.249
95263SOL    HW287687   9.450   8.637   6.164
95264SOL     OW87688  13.007   3.783   6.797
95264SOL    HW187689  13.093   3.796   6.758
95264SOL    HW287690  13.024   3.744   6.883
95265SOL     OW87691  14.741   0.874   1.290
95265SOL    HW187692  14.691   0.882   1.209
95265SOL    HW287693  14.749   0.780   1.304
95266SOL     OW87694   0.143  13.477  13.604
95266SOL    HW187695   0.234  13.505  13.607
95266SOL    HW287696   0.093  13.558  13.608
95267SOL     OW87697   4.605   5.964  11.369
95267SOL    HW187698   4.676   5.956  11.305
95267SOL    HW287699   4.650   5.979  11.453
95268SOL     OW87700   0.217   1.701  11.651
95268SOL    HW187701   0.172   1.621  11.623
95268SOL    HW287702   0.304   1.672  11.676
95269SOL     OW87703  12.813   4.044   9.644
95269SOL    HW187704  12.818   4.087   9.559
95269SOL    HW287705  12.881   3.977   9.641
95270SOL     OW87706   3.686   1.356   8.159
95270SOL    HW187707   3.705   1.268   8.124
95270SOL    HW287708   3.757   1.372   8.221
95271SOL     OW87709   1.814   2.504   4.081
95271SOL    HW187710   1.857   2.580   4.120
95271SOL    HW287711   1.875   2.474   4.014
95272SOL     OW87712   2.269   6.276   4.729
95272SOL    HW187713   2.215   6.308   4.802
95272SOL    HW287714   2.279   6.352   4.672
95273SOL     OW87715  11.092  11.970   1.234
95273SOL    HW187716  11.149  12.034   1.192
95273SOL    HW287717  11.003  11.997   1.209
95274SOL     OW87718   9.839  11.986   9.680
95274SOL    HW187719   9.787  12.065   9.669
95274SOL    HW287720   9.910  12.012   9.740
95275SOL     OW87721  14.681   3.717   2.789
95275SOL    HW187722  14.730   3.798   2.801
95275SOL    HW287723  14.694   3.695   2.697
95276SOL     OW87724   1.541  14.521   0.974
95276SOL    HW187725   1.476  14.473   1.024
95276SOL    HW287726   1.490  14.566   0.906
95277SOL     OW87727   9.922   4.262  10.287
95277SOL    HW187728   9.894   4.319  10.216
95277SOL    HW287729   9.853   4.270  10.353
95278SOL     OW87730   9.314   9.941  11.571
95278SOL    HW187731   9.318   9.949  11.666
95278SOL    HW287732   9.296   9.849  11.555
95279SOL     OW87733  10.033  14.660  10.202
95279SOL    HW187734   9.996  14.679  10.116
95279SOL    HW287735  10.016  14.567  10.216
95280SOL     OW87736   9.128   2.827   1.444
95280SOL    HW187737   9.144   2.848   1.536
95280SOL    HW287738   9.188   2.756   1.425
95281SOL     OW87739  13.094  11.070   9.602
95281SOL    HW187740  13.080  11.017   9.523
95281SOL    HW287741  13.012  11.061   9.652
95282SOL     OW87742   9.183   9.644   4.383
95282SOL    HW187743   9.230   9.603   4.455
95282SOL    HW287744   9.148   9.571   4.331
95283SOL     OW87745   3.505   7.879   2.232
95283SOL    HW187746   3.550   7.962   2.216
95283SOL    HW287747   3.459   7.893   2.315
95284SOL     OW87748  11.442  14.297   4.552
95284SOL    HW187749  11.438  14.362   4.482
95284SOL    HW287750  11.353  14.296   4.589
95285SOL     OW87751   2.159   8.547  11.346
95285SOL    HW187752   2.097   8.482  11.312
95285SOL    HW287753   2.103   8.619  11.377
95286SOL     OW87754   0.871   9.556  13.914
95286SOL    HW187755   0.915   9.633  13.949
95286SOL    HW287756   0.805   9.534  13.980
95287SOL     OW87757   6.889   0.540  11.981
95287SOL    HW187758   6.921   0.610  11.924
95287SOL    HW287759   6.819   0.581  12.032
95288SOL     OW87760   4.947   3.431   3.525
95288SOL    HW187761   4.966   3.475   3.607
95288SOL    HW287762   4.903   3.497   3.471
95289SOL     OW87763   9.320   1.036   4.453
95289SOL    HW187764   9.323   1.037   4.358
95289SOL    HW287765   9.298   0.946   4.476
95290SOL     OW87766   7.677   8.377   5.288
95290SOL    HW187767   7.748   8.332   5.243
95290SOL    HW287768   7.683   8.347   5.379
95291SOL     OW87769  11.507   8.716  12.941
95291SOL    HW187770  11.541   8.719  12.851
95291SOL    HW287771  11.493   8.622  12.957
95292SOL     OW87772   9.704   3.948  11.532
95292SOL    HW187773   9.782   3.905  11.496
95292SOL    HW287774   9.638   3.879  11.535
95293SOL     OW87775   8.288   9.737   0.095
95293SOL    HW187776   8.269   9.802   0.163
95293SOL    HW287777   8.202   9.704   0.069
95294SOL     OW87778  11.744  12.454  11.704
95294SOL    HW187779  11.714  12.499  11.625
95294SOL    HW287780  11.698  12.498  11.775
95295SOL     OW87781   5.863   2.404   2.916
95295SOL    HW187782   5.942   2.413   2.862
95295SOL    HW287783   5.791   2.424   2.856
95296SOL     OW87784   8.902  10.656   1.209
95296SOL    HW187785   8.854  10.655   1.292
95296SOL    HW287786   8.840  10.620   1.146
95297SOL     OW87787  13.383   9.127   0.600
95297SOL    HW187788  13.448   9.101   0.665
95297SOL    HW287789  13.326   9.189   0.645
95298SOL     OW87790   9.252   5.072   5.182
95298SOL    HW187791   9.259   5.132   5.107
95298SOL    HW287792   9.157   5.062   5.195
95299SOL     OW87793   2.300   2.701  14.859
95299SOL    HW187794   2.380   2.687   0.027
95299SOL    HW287795   2.237   2.736   0.040
95300SOL     OW87796  10.044  12.714  10.011
95300SOL    HW187797  10.132  12.690   9.981
95300SOL    HW287798   9.994  12.730   9.931
95301SOL     OW87799   2.067   8.029   4.931
95301SOL    HW187800   1.997   7.983   4.978
95301SOL    HW287801   2.147   7.999   4.974
95302SOL     OW87802   2.784   8.837   4.635
95302SOL    HW187803   2.772   8.927   4.665
95302SOL    HW287804   2.698   8.796   4.644
95303SOL     OW87805   1.815   9.668   9.593
95303SOL    HW187806   1.805   9.737   9.527
95303SOL    HW287807   1.788   9.588   9.549
95304SOL     OW87808  14.703   2.467   7.108
95304SOL    HW187809  14.780   2.477   7.165
95304SOL    HW287810  14.737   2.423   7.030
95305SOL     OW87811   7.608  13.378  10.934
95305SOL    HW187812   7.642  13.323  10.863
95305SOL    HW287813   7.546  13.322  10.981
95306SOL     OW87814   9.856   7.992   2.773
95306SOL    HW187815   9.813   7.912   2.744
95306SOL    HW287816   9.889   8.033   2.693
95307SOL     OW87817   2.072  13.098   3.252
95307SOL    HW187818   2.089  13.025   3.311
95307SOL    HW287819   2.158  13.138   3.238
95308SOL     OW87820   5.965   8.783   8.897
95308SOL    HW187821   5.930   8.744   8.977
95308SOL    HW287822   6.035   8.841   8.927
95309SOL     OW87823   4.426   1.711  12.184
95309SOL    HW187824   4.483   1.712  12.260
95309SOL    HW287825   4.381   1.795  12.186
95310SOL     OW87826   7.554   4.831   9.890
95310SOL    HW187827   7.622   4.887   9.854
95310SOL    HW287828   7.473   4.879   9.876
95311SOL     OW87829   2.896  12.481  10.204
95311SOL    HW187830   2.984  12.487  10.243
95311SOL    HW287831   2.847  12.426  10.266
95312SOL     OW87832   9.079   6.411   9.716
95312SOL    HW187833   9.009   6.465   9.754
95312SOL    HW287834   9.135   6.390   9.791
95313SOL     OW87835  11.449   0.100  13.763
95313SOL    HW187836  11.399   0.079  13.841
95313SOL    HW287837  11.454   0.018  13.714
95314SOL     OW87838   0.256   2.490   6.800
95314SOL    HW187839   0.197   2.560   6.828
95314SOL    HW287840   0.199   2.428   6.753
95315SOL     OW87841   7.424   2.673   5.271
95315SOL    HW187842   7.402   2.614   5.343
95315SOL    HW287843   7.515   2.697   5.287
95316SOL     OW87844  13.012  12.713  10.692
95316SOL    HW187845  13.031  12.620  10.677
95316SOL    HW287846  12.930  12.728  10.645
95317SOL     OW87847  13.024  12.049   4.766
95317SOL    HW187848  12.936  12.080   4.790
95317SOL    HW287849  13.013  11.955   4.753
95318SOL     OW87850   7.704   8.904   5.245
95318SOL    HW187851   7.675   8.820   5.280
95318SOL    HW287852   7.799   8.895   5.238
95319SOL     OW87853   6.893   0.591  13.673
95319SOL    HW187854   6.889   0.597  13.768
95319SOL    HW287855   6.986   0.577  13.654
95320SOL     OW87856  10.219  12.602   4.927
95320SOL    HW187857  10.269  12.648   4.994
95320SOL    HW287858  10.253  12.512   4.930
95321SOL     OW87859  11.535   8.958   4.913
95321SOL    HW187860  11.456   8.981   4.962
95321SOL    HW287861  11.578   8.892   4.967
95322SOL     OW87862  13.828  10.508   5.006
95322SOL    HW187863  13.902  10.568   5.016
95322SOL    HW287864  13.773  10.548   4.940
95323SOL     OW87865  13.240  12.819   3.529
95323SOL    HW187866  13.312  12.811   3.591
95323SOL    HW287867  13.279  12.800   3.444
95324SOL     OW87868   2.906  11.586   2.472
95324SOL    HW187869   2.890  11.516   2.409
95324SOL    HW287870   2.826  11.638   2.473
95325SOL     OW87871  13.997  13.737   1.774
95325SOL    HW187872  14.053  13.757   1.699
95325SOL    HW287873  13.970  13.822   1.807
95326SOL     OW87874   4.461   8.138   1.317
95326SOL    HW187875   4.412   8.134   1.399
95326SOL    HW287876   4.480   8.047   1.296
95327SOL     OW87877   3.492   0.678  13.412
95327SOL    HW187878   3.540   0.598  13.432
95327SOL    HW287879   3.560   0.743  13.391
95328SOL     OW87880   6.747   9.425   7.890
95328SOL    HW187881   6.839   9.446   7.872
95328SOL    HW287882   6.750   9.357   7.957
95329SOL     OW87883   9.074  12.215   9.467
95329SOL    HW187884   8.999  12.207   9.408
95329SOL    HW287885   9.047  12.280   9.532
95330SOL     OW87886   1.837   4.185  11.520
95330SOL    HW187887   1.787   4.207  11.598
95330SOL    HW287888   1.815   4.254  11.457
95331SOL     OW87889   7.743  13.678   4.473
95331SOL    HW187890   7.652  13.687   4.501
95331SOL    HW287891   7.739  13.621   4.396
95332SOL     OW87892   9.518  14.585   1.698
95332SOL    HW187893   9.578  14.659   1.708
95332SOL    HW287894   9.537  14.551   1.610
95333SOL     OW87895   3.295   9.709   0.527
95333SOL    HW187896   3.351   9.670   0.459
95333SOL    HW287897   3.347   9.782   0.561
95334SOL     OW87898  10.299   4.846  13.731
95334SOL    HW187899  10.368   4.904  13.763
95334SOL    HW287900  10.327   4.759  13.757
95335SOL     OW87901  11.661  14.354   4.703
95335SOL    HW187902  11.582  14.363   4.649
95335SOL    HW287903  11.646  14.411   4.778
95336SOL     OW87904   5.690  13.707   5.323
95336SOL    HW187905   5.656  13.796   5.312
95336SOL    HW287906   5.618  13.659   5.365
95337SOL     OW87907   1.098  10.842   0.011
95337SOL    HW187908   1.079  10.926   0.053
95337SOL    HW287909   1.033  10.836  14.822
95338SOL     OW87910   6.706  10.296   8.753
95338SOL    HW187911   6.642  10.321   8.687
95338SOL    HW287912   6.676  10.210   8.785
95339SOL     OW87913  13.554  12.963   2.598
95339SOL    HW187914  13.624  12.948   2.534
95339SOL    HW287915  13.579  13.044   2.642
95340SOL     OW87916   4.610   4.321   6.289
95340SOL    HW187917   4.567   4.401   6.257
95340SOL    HW287918   4.628   4.270   6.210
95341SOL     OW87919  14.000   8.975   4.555
95341SOL    HW187920  14.057   8.992   4.629
95341SOL    HW287921  14.020   9.045   4.492
95342SOL     OW87922  14.615   0.449   4.126
95342SOL    HW187923  14.557   0.487   4.193
95342SOL    HW287924  14.641   0.523   4.071
95343SOL     OW87925  10.300   1.912   8.698
95343SOL    HW187926  10.296   2.008   8.707
95343SOL    HW287927  10.344   1.883   8.778
95344SOL     OW87928  14.034   6.105  13.476
95344SOL    HW187929  14.078   6.063  13.550
95344SOL    HW287930  14.086   6.183  13.457
95345SOL     OW87931   2.457   6.735   9.562
95345SOL    HW187932   2.371   6.715   9.599
95345SOL    HW287933   2.473   6.666   9.498
95346SOL     OW87934   4.998  10.029   8.696
95346SOL    HW187935   5.065  10.093   8.672
95346SOL    HW287936   5.031   9.946   8.662
95347SOL     OW87937  14.736   8.092   8.171
95347SOL    HW187938  14.799   8.117   8.238
95347SOL    HW287939  14.748   8.157   8.102
95348SOL     OW87940  11.045  12.930  10.698
95348SOL    HW187941  11.107  12.858  10.706
95348SOL    HW287942  10.969  12.903  10.750
95349SOL     OW87943   2.092   1.562   6.226
95349SOL    HW187944   2.117   1.608   6.146
95349SOL    HW287945   2.095   1.628   6.295
95350SOL     OW87946   7.071   6.985  13.876
95350SOL    HW187947   7.086   7.080  13.870
95350SOL    HW287948   7.159   6.949  13.889
95351SOL     OW87949  10.212   4.467   6.579
95351SOL    HW187950  10.241   4.455   6.488
95351SOL    HW287951  10.293   4.463   6.630
95352SOL     OW87952   5.351   0.406   0.889
95352SOL    HW187953   5.440   0.379   0.866
95352SOL    HW287954   5.297   0.329   0.869
95353SOL     OW87955   2.080   5.599  14.427
95353SOL    HW187956   2.000   5.547  14.433
95353SOL    HW287957   2.124   5.566  14.348
95354SOL     OW87958   4.920  12.959  10.997
95354SOL    HW187959   4.908  12.947  11.091
95354SOL    HW287960   4.987  13.027  10.990
95355SOL     OW87961   3.520   3.826   0.165
95355SOL    HW187962   3.427   3.839   0.145
95355SOL    HW287963   3.527   3.733   0.186
95356SOL     OW87964   6.189  13.038   8.075
95356SOL    HW187965   6.205  13.125   8.111
95356SOL    HW287966   6.277  13.004   8.057
95357SOL     OW87967   8.247   1.614   3.747
95357SOL    HW187968   8.267   1.705   3.765
95357SOL    HW287969   8.330   1.575   3.720
95358SOL     OW87970   1.716   9.887   8.718
95358SOL    HW187971   1.775   9.956   8.748
95358SOL    HW287972   1.663   9.865   8.795
95359SOL     OW87973  11.398   8.075   9.745
95359SOL    HW187974  11.383   8.026   9.826
95359SOL    HW287975  11.311   8.084   9.706
95360SOL     OW87976   0.409   2.460   2.092
95360SOL    HW187977   0.485   2.474   2.036
95360SOL    HW287978   0.335   2.460   2.031
95361SOL     OW87979   1.448   8.879   6.360
95361SOL    HW187980   1.440   8.812   6.292
95361SOL    HW287981   1.368   8.869   6.412
95362SOL     OW87982  10.495   1.442   7.331
95362SOL    HW187983  10.557   1.382   7.372
95362SOL    HW287984  10.413   1.427   7.377
95363SOL     OW87985  12.095  13.980   9.026
95363SOL    HW187986  12.032  13.961   9.096
95363SOL    HW287987  12.072  13.920   8.955
95364SOL     OW87988   2.124  10.453  10.048
95364SOL    HW187989   2.208  10.480  10.012
95364SOL    HW287990   2.063  10.523  10.025
95365SOL     OW87991   1.712   8.518  13.946
95365SOL    HW187992   1.709   8.569  13.865
95365SOL    HW287993   1.768   8.568  14.004
95366SOL     OW87994   3.308   8.519   7.949
95366SOL    HW187995   3.236   8.477   7.902
95366SOL    HW287996   3.377   8.453   7.953
95367SOL     OW87997  13.378   8.829   1.597
95367SOL    HW187998  13.430   8.863   1.524
95367SOL    HW287999  13.431   8.757   1.632
95368SOL     OW88000   9.812   7.434  11.318
95368SOL    HW188001   9.772   7.499  11.259
95368SOL    HW288002   9.758   7.356  11.307
95369SOL     OW88003   1.732   8.489   5.107
95369SOL    HW188004   1.677   8.491   5.186
95369SOL    HW288005   1.669   8.475   5.036
95370SOL     OW88006   2.261   2.286   2.289
95370SOL    HW188007   2.327   2.315   2.351
95370SOL    HW288008   2.269   2.345   2.215
95371SOL     OW88009   6.944  13.519  13.186
95371SOL    HW188010   7.006  13.488  13.120
95371SOL    HW288011   6.992  13.514  13.269
95372SOL     OW88012  14.314  12.410  14.604
95372SOL    HW188013  14.309  12.326  14.558
95372SOL    HW288014  14.408  12.424  14.619
95373SOL     OW88015  11.348   1.185   0.492
95373SOL    HW188016  11.377   1.266   0.533
95373SOL    HW288017  11.257   1.201   0.468
95374SOL     OW88018   6.676  14.839   4.339
95374SOL    HW188019   6.591  14.804   4.314
95374SOL    HW288020   6.731  14.761   4.352
95375SOL     OW88021   9.778   5.996   8.454
95375SOL    HW188022   9.814   5.908   8.447
95375SOL    HW288023   9.811   6.042   8.377
95376SOL     OW88024   4.535   9.208   7.089
95376SOL    HW188025   4.441   9.207   7.076
95376SOL    HW288026   4.551   9.281   7.148
95377SOL     OW88027   5.693   6.744   4.909
95377SOL    HW188028   5.708   6.761   5.002
95377SOL    HW288029   5.779   6.721   4.874
95378SOL     OW88030  13.724  11.245   3.383
95378SOL    HW188031  13.647  11.188   3.371
95378SOL    HW288032  13.719  11.270   3.475
95379SOL     OW88033   9.808   6.166   9.478
95379SOL    HW188034   9.857   6.085   9.494
95379SOL    HW288035   9.775   6.157   9.388
95380SOL     OW88036   8.929   4.538   4.118
95380SOL    HW188037   8.984   4.595   4.171
95380SOL    HW288038   8.958   4.554   4.028
95381SOL     OW88039   2.054  11.223   7.001
95381SOL    HW188040   2.068  11.128   7.008
95381SOL    HW288041   2.015  11.235   6.914
95382SOL     OW88042  12.721   5.763  12.532
95382SOL    HW188043  12.728   5.800  12.444
95382SOL    HW288044  12.640   5.801  12.567
95383SOL     OW88045   7.941  10.347   4.630
95383SOL    HW188046   7.934  10.427   4.683
95383SOL    HW288047   7.879  10.360   4.559
95384SOL     OW88048  10.065   5.185   4.544
95384SOL    HW188049   9.981   5.179   4.498
95384SOL    HW288050  10.042   5.178   4.637
95385SOL     OW88051   0.682  14.614   7.812
95385SOL    HW188052   0.730  14.575   7.886
95385SOL    HW288053   0.642  14.693   7.849
95386SOL     OW88054   1.394   3.933   6.267
95386SOL    HW188055   1.325   3.867   6.263
95386SOL    HW288056   1.372   3.995   6.198
95387SOL     OW88057  14.069   1.926   1.515
95387SOL    HW188058  14.014   1.927   1.437
95387SOL    HW288059  14.072   2.017   1.544
95388SOL     OW88060   9.536  10.340  10.024
95388SOL    HW188061   9.554  10.248  10.043
95388SOL    HW288062   9.459  10.338   9.967
95389SOL     OW88063  11.538   5.069   5.727
95389SOL    HW188064  11.599   5.139   5.703
95389SOL    HW288065  11.478   5.063   5.653
95390SOL     OW88066  11.415  12.143   3.745
95390SOL    HW188067  11.463  12.222   3.721
95390SOL    HW288068  11.448  12.121   3.832
95391SOL     OW88069  14.110  14.509   8.065
95391SOL    HW188070  14.156  14.462   7.995
95391SOL    HW288071  14.020  14.515   8.033
95392SOL     OW88072   8.895   4.180   5.815
95392SOL    HW188073   8.933   4.142   5.735
95392SOL    HW288074   8.820   4.124   5.835
95393SOL     OW88075   2.956  13.002  12.863
95393SOL    HW188076   3.003  13.039  12.938
95393SOL    HW288077   3.024  12.987  12.797
95394SOL     OW88078   8.184  12.183   3.179
95394SOL    HW188079   8.165  12.090   3.167
95394SOL    HW288080   8.185  12.219   3.090
95395SOL     OW88081  10.728   1.437   0.815
95395SOL    HW188082  10.728   1.432   0.719
95395SOL    HW288083  10.719   1.531   0.834
95396SOL     OW88084  11.948   5.193   4.294
95396SOL    HW188085  11.988   5.280   4.289
95396SOL    HW288086  11.990   5.144   4.223
95397SOL     OW88087   8.219   5.304   4.064
95397SOL    HW188088   8.255   5.383   4.105
95397SOL    HW288089   8.265   5.299   3.979
95398SOL     OW88090   3.085  12.940   4.581
95398SOL    HW188091   3.097  13.035   4.581
95398SOL    HW288092   3.172  12.905   4.559
95399SOL     OW88093  11.695  11.631  10.855
95399SOL    HW188094  11.703  11.536  10.854
95399SOL    HW288095  11.614  11.649  10.808
95400SOL     OW88096  10.879   1.690  14.790
95400SOL    HW188097  10.869   1.596  14.807
95400SOL    HW288098  10.939   1.720  14.858
95401SOL     OW88099   6.529  13.749  12.316
95401SOL    HW188100   6.522  13.826  12.260
95401SOL    HW288101   6.612  13.761  12.363
95402SOL     OW88102  14.723   1.615   1.239
95402SOL    HW188103  14.705   1.640   1.330
95402SOL    HW288104  14.636   1.610   1.198
95403SOL     OW88105   0.020   3.745   7.061
95403SOL    HW188106   0.076   3.809   7.105
95403SOL    HW288107   0.080   3.682   7.022
95404SOL     OW88108  13.464   8.081   4.295
95404SOL    HW188109  13.422   8.002   4.261
95404SOL    HW288110  13.400   8.118   4.355
95405SOL     OW88111   8.053  11.245   6.381
95405SOL    HW188112   8.117  11.218   6.448
95405SOL    HW288113   7.998  11.310   6.425
95406SOL     OW88114   0.714  14.727  10.840
95406SOL    HW188115   0.682  14.677  10.764
95406SOL    HW288116   0.792  14.680  10.868
95407SOL     OW88117   1.680   2.052   3.687
95407SOL    HW188118   1.657   2.081   3.599
95407SOL    HW288119   1.643   2.119   3.745
95408SOL     OW88120   6.879   7.872   7.005
95408SOL    HW188121   6.803   7.931   7.006
95408SOL    HW288122   6.896   7.854   7.098
95409SOL     OW88123  11.627   2.265   7.145
95409SOL    HW188124  11.672   2.184   7.122
95409SOL    HW288125  11.607   2.255   7.238
95410SOL     OW88126  11.219   9.198  12.188
95410SOL    HW188127  11.139   9.211  12.240
95410SOL    HW288128  11.187   9.164  12.104
95411SOL     OW88129  11.736   2.540   3.437
95411SOL    HW188130  11.820   2.587   3.434
95411SOL    HW288131  11.748   2.474   3.504
95412SOL     OW88132   5.934   8.987   5.584
95412SOL    HW188133   5.898   8.916   5.530
95412SOL    HW288134   5.986   8.942   5.650
95413SOL     OW88135   1.628   4.212   5.024
95413SOL    HW188136   1.683   4.240   4.951
95413SOL    HW288137   1.686   4.159   5.078
95414SOL     OW88138   6.847  12.650  13.020
95414SOL    HW188139   6.914  12.662  12.953
95414SOL    HW288140   6.823  12.739  13.046
95415SOL     OW88141  14.762  13.083   5.711
95415SOL    HW188142  14.761  13.027   5.633
95415SOL    HW288143  14.674  13.120   5.715
95416SOL     OW88144   8.663  11.111   6.929
95416SOL    HW188145   8.650  11.195   6.975
95416SOL    HW288146   8.578  11.067   6.936
95417SOL     OW88147  12.750   4.346   3.450
95417SOL    HW188148  12.676   4.322   3.395
95417SOL    HW288149  12.824   4.298   3.414
95418SOL     OW88150   3.220   0.962   0.909
95418SOL    HW188151   3.245   0.964   0.816
95418SOL    HW288152   3.217   0.869   0.930
95419SOL     OW88153   6.524  11.844   7.294
95419SOL    HW188154   6.547  11.873   7.382
95419SOL    HW288155   6.608  11.823   7.253
95420SOL     OW88156   8.325   0.866   8.464
95420SOL    HW188157   8.278   0.787   8.491
95420SOL    HW288158   8.379   0.838   8.391
95421SOL     OW88159   1.966   9.665   5.281
95421SOL    HW188160   2.011   9.581   5.289
95421SOL    HW288161   2.037   9.729   5.275
95422SOL     OW88162   2.861   1.771   7.296
95422SOL    HW188163   2.910   1.780   7.215
95422SOL    HW288164   2.775   1.809   7.277
95423SOL     OW88165  11.652   5.149  14.427
95423SOL    HW188166  11.712   5.103  14.368
95423SOL    HW288167  11.565   5.120  14.399
95424SOL     OW88168   4.758   0.597   2.061
95424SOL    HW188169   4.803   0.550   1.991
95424SOL    HW288170   4.681   0.544   2.080
95425SOL     OW88171   0.740   1.149   8.356
95425SOL    HW188172   0.674   1.130   8.289
95425SOL    HW288173   0.738   1.245   8.364
95426SOL     OW88174   3.943  12.934   9.867
95426SOL    HW188175   3.880  12.935   9.939
95426SOL    HW288176   4.029  12.926   9.909
95427SOL     OW88177   2.760  14.237   4.096
95427SOL    HW188178   2.737  14.177   4.167
95427SOL    HW288179   2.685  14.234   4.036
95428SOL     OW88180   8.902  14.003   9.338
95428SOL    HW188181   8.968  14.055   9.386
95428SOL    HW288182   8.902  13.918   9.381
95429SOL     OW88183   5.839  10.425   1.902
95429SOL    HW188184   5.801  10.340   1.925
95429SOL    HW288185   5.767  10.473   1.862
95430SOL     OW88186   4.978   0.132   1.584
95430SOL    HW188187   5.001   0.098   1.497
95430SOL    HW288188   4.923   0.063   1.622
95431SOL     OW88189  10.373   0.496   1.441
95431SOL    HW188190  10.386   0.460   1.353
95431SOL    HW288191  10.420   0.579   1.439
95432SOL     OW88192  13.920  14.237  11.993
95432SOL    HW188193  13.847  14.185  11.960
95432SOL    HW288194  13.944  14.196  12.076
95433SOL     OW88195   2.548   1.510   5.533
95433SOL    HW188196   2.508   1.524   5.448
95433SOL    HW288197   2.626   1.566   5.532
95434SOL     OW88198   8.069   9.729   3.562
95434SOL    HW188199   8.119   9.648   3.574
95434SOL    HW288200   8.000   9.705   3.500
95435SOL     OW88201   8.663   8.388  12.355
95435SOL    HW188202   8.583   8.349  12.322
95435SOL    HW288203   8.633   8.462  12.409
95436SOL     OW88204   3.816   0.996   0.368
95436SOL    HW188205   3.727   0.993   0.402
95436SOL    HW288206   3.855   0.913   0.395
95437SOL     OW88207   0.387   8.741  10.685
95437SOL    HW188208   0.446   8.800  10.731
95437SOL    HW288209   0.357   8.680  10.753
95438SOL     OW88210  11.454  13.438   8.194
95438SOL    HW188211  11.392  13.468   8.260
95438SOL    HW288212  11.484  13.353   8.226
95439SOL     OW88213   2.787  11.075   4.934
95439SOL    HW188214   2.700  11.109   4.909
95439SOL    HW288215   2.820  11.033   4.854
95440SOL     OW88216   4.182  13.204   9.876
95440SOL    HW188217   4.164  13.297   9.893
95440SOL    HW288218   4.243  13.179   9.945
95441SOL     OW88219   9.501   5.675   9.114
95441SOL    HW188220   9.458   5.617   9.177
95441SOL    HW288221   9.529   5.616   9.044
95442SOL     OW88222  14.126  11.715  11.028
95442SOL    HW188223  14.179  11.635  11.029
95442SOL    HW288224  14.039  11.686  11.055
95443SOL     OW88225   7.582  10.475  11.664
95443SOL    HW188226   7.514  10.536  11.634
95443SOL    HW288227   7.587  10.409  11.595
95444SOL     OW88228   8.907   2.240   8.046
95444SOL    HW188229   8.857   2.291   8.110
95444SOL    HW288230   8.980   2.204   8.096
95445SOL     OW88231   7.527   8.553   2.573
95445SOL    HW188232   7.598   8.586   2.519
95445SOL    HW288233   7.566   8.479   2.620
95446SOL     OW88234   0.828   0.812   9.161
95446SOL    HW188235   0.910   0.779   9.124
95446SOL    HW288236   0.764   0.743   9.145
95447SOL     OW88237   2.710   4.982   2.909
95447SOL    HW188238   2.679   4.939   2.989
95447SOL    HW288239   2.795   5.019   2.934
95448SOL     OW88240   7.557   9.899   3.794
95448SOL    HW188241   7.605   9.832   3.841
95448SOL    HW288242   7.614   9.976   3.796
95449SOL     OW88243  10.939  11.371   1.094
95449SOL    HW188244  11.017  11.425   1.107
95449SOL    HW288245  10.955  11.325   1.012
95450SOL     OW88246  14.693  10.974   0.381
95450SOL    HW188247  14.781  11.000   0.408
95450SOL    HW288248  14.698  10.879   0.371
95451SOL     OW88249   4.853   8.437   9.048
95451SOL    HW188250   4.941   8.468   9.027
95451SOL    HW288251   4.798   8.469   8.976
95452SOL     OW88252   9.767   0.118  11.961
95452SOL    HW188253   9.717   0.053  12.011
95452SOL    HW288254   9.854   0.118  12.001
95453SOL     OW88255   4.177   4.048   6.170
95453SOL    HW188256   4.192   3.960   6.206
95453SOL    HW288257   4.140   4.032   6.083
95454SOL     OW88258  11.648   8.174   1.194
95454SOL    HW188259  11.590   8.199   1.122
95454SOL    HW288260  11.589   8.159   1.268
95455SOL     OW88261  14.513  12.485   5.800
95455SOL    HW188262  14.593  12.432   5.794
95455SOL    HW288263  14.442  12.425   5.776
95456SOL     OW88264   4.576  11.865   7.896
95456SOL    HW188265   4.611  11.830   7.979
95456SOL    HW288266   4.654  11.878   7.842
95457SOL     OW88267  12.227  14.700   8.425
95457SOL    HW188268  12.263  14.612   8.418
95457SOL    HW288269  12.136  14.691   8.399
95458SOL     OW88270   3.595   7.534  10.596
95458SOL    HW188271   3.636   7.522  10.682
95458SOL    HW288272   3.524   7.595  10.612
95459SOL     OW88273   3.806   7.780   0.283
95459SOL    HW188274   3.881   7.815   0.234
95459SOL    HW288275   3.772   7.855   0.332
95460SOL     OW88276   4.619   5.656   9.638
95460SOL    HW188277   4.684   5.587   9.622
95460SOL    HW288278   4.672   5.734   9.657
95461SOL     OW88279   9.485   0.083   8.835
95461SOL    HW188280   9.427   0.011   8.861
95461SOL    HW288281   9.470   0.093   8.741
95462SOL     OW88282   7.672   8.310   0.393
95462SOL    HW188283   7.737   8.268   0.337
95462SOL    HW288284   7.721   8.341   0.468
95463SOL     OW88285  10.199   5.304  11.029
95463SOL    HW188286  10.122   5.278  10.978
95463SOL    HW288287  10.248   5.361  10.969
95464SOL     OW88288   5.461  14.229   5.877
95464SOL    HW188289   5.401  14.164   5.839
95464SOL    HW288290   5.464  14.299   5.812
95465SOL     OW88291   4.039  12.527   8.950
95465SOL    HW188292   4.099  12.582   8.999
95465SOL    HW288293   4.032  12.447   9.002
95466SOL     OW88294   3.637  12.483  14.080
95466SOL    HW188295   3.615  12.401  14.037
95466SOL    HW288296   3.565  12.498  14.142
95467SOL     OW88297   5.889   2.999   0.435
95467SOL    HW188298   5.901   2.913   0.395
95467SOL    HW288299   5.936   3.059   0.378
95468SOL     OW88300  13.279   3.421   0.600
95468SOL    HW188301  13.321   3.342   0.566
95468SOL    HW288302  13.351   3.472   0.636
95469SOL     OW88303   6.354  14.530   1.680
95469SOL    HW188304   6.355  14.437   1.656
95469SOL    HW288305   6.339  14.530   1.774
95470SOL     OW88306   7.758   6.669   0.598
95470SOL    HW188307   7.794   6.594   0.550
95470SOL    HW288308   7.718   6.631   0.676
95471SOL     OW88309  11.358   3.013   6.941
95471SOL    HW188310  11.291   3.009   6.872
95471SOL    HW288311  11.337   3.092   6.990
95472SOL     OW88312   7.213  10.632   1.247
95472SOL    HW188313   7.150  10.642   1.175
95472SOL    HW288314   7.299  10.644   1.206
95473SOL     OW88315  12.908   6.972   1.159
95473SOL    HW188316  12.907   6.894   1.215
95473SOL    HW288317  13.000   6.981   1.131
95474SOL     OW88318   5.860  12.003   5.032
95474SOL    HW188319   5.771  12.035   5.046
95474SOL    HW288320   5.908  12.032   5.110
95475SOL     OW88321   7.244   8.316  12.372
95475SOL    HW188322   7.242   8.310  12.467
95475SOL    HW288323   7.195   8.397  12.352
95476SOL     OW88324  13.561  13.662   1.346
95476SOL    HW188325  13.502  13.671   1.421
95476SOL    HW288326  13.618  13.589   1.369
95477SOL     OW88327   2.879   9.452  12.005
95477SOL    HW188328   2.916   9.489  12.085
95477SOL    HW288329   2.952   9.444  11.944
95478SOL     OW88330   9.398   7.639   4.044
95478SOL    HW188331   9.419   7.568   4.104
95478SOL    HW288332   9.311   7.669   4.070
95479SOL     OW88333   9.706   4.509   9.411
95479SOL    HW188334   9.719   4.551   9.326
95479SOL    HW288335   9.794   4.496   9.446
95480SOL     OW88336  12.991   7.867   8.171
95480SOL    HW188337  12.948   7.949   8.194
95480SOL    HW288338  13.042   7.843   8.249
95481SOL     OW88339   4.320   8.965   5.831
95481SOL    HW188340   4.247   8.938   5.777
95481SOL    HW288341   4.338   8.890   5.888
95482SOL     OW88342  11.514  11.621   3.152
95482SOL    HW188343  11.467  11.538   3.163
95482SOL    HW288344  11.602  11.596   3.127
95483SOL     OW88345   8.473  12.664  14.829
95483SOL    HW188346   8.446  12.573  14.818
95483SOL    HW288347   8.405  12.703   0.002
95484SOL     OW88348   6.286   8.924   7.155
95484SOL    HW188349   6.204   8.916   7.108
95484SOL    HW288350   6.346   8.865   7.110
95485SOL     OW88351   3.593  12.039  13.207
95485SOL    HW188352   3.537  12.028  13.130
95485SOL    HW288353   3.587  12.132  13.228
95486SOL     OW88354  10.224  10.446   2.437
95486SOL    HW188355  10.258  10.377   2.381
95486SOL    HW288356  10.197  10.515   2.376
95487SOL     OW88357   5.259  14.064  11.176
95487SOL    HW188358   5.354  14.071  11.183
95487SOL    HW288359   5.228  14.155  11.181
95488SOL     OW88360  11.320   0.455  11.446
95488SOL    HW188361  11.275   0.502  11.515
95488SOL    HW288362  11.324   0.517  11.373
95489SOL     OW88363  11.324  12.249  14.199
95489SOL    HW188364  11.393  12.313  14.187
95489SOL    HW288365  11.353  12.172  14.151
95490SOL     OW88366   2.646  14.497   2.776
95490SOL    HW188367   2.687  14.574   2.816
95490SOL    HW288368   2.552  14.509   2.789
95491SOL     OW88369  14.405   3.875   1.920
95491SOL    HW188370  14.398   3.919   1.835
95491SOL    HW288371  14.341   3.920   1.975
95492SOL     OW88372  11.620  10.454   1.101
95492SOL    HW188373  11.540  10.505   1.106
95492SOL    HW288374  11.669  10.492   1.028
95493SOL     OW88375   5.438   9.607  10.871
95493SOL    HW188376   5.441   9.589  10.965
95493SOL    HW288377   5.527   9.589  10.840
95494SOL     OW88378   4.238   0.930   9.367
95494SOL    HW188379   4.147   0.906   9.350
95494SOL    HW288380   4.243   0.939   9.463
95495SOL     OW88381   9.515   0.204  14.287
95495SOL    HW188382   9.531   0.149  14.364
95495SOL    HW288383   9.592   0.260  14.281
95496SOL     OW88384  11.968   8.169   8.045
95496SOL    HW188385  11.908   8.146   8.116
95496SOL    HW288386  12.034   8.100   8.046
95497SOL     OW88387  12.146   3.090  14.678
95497SOL    HW188388  12.187   3.150  14.616
95497SOL    HW288389  12.062   3.132  14.699
95498SOL     OW88390   7.469   3.477   0.454
95498SOL    HW188391   7.458   3.566   0.487
95498SOL    HW288392   7.402   3.468   0.386
95499SOL     OW88393   1.617   7.839  13.750
95499SOL    HW188394   1.566   7.831  13.669
95499SOL    HW288395   1.708   7.836  13.721
95500SOL     OW88396   7.651   8.655   4.188
95500SOL    HW188397   7.687   8.739   4.162
95500SOL    HW288398   7.724   8.594   4.181
95501SOL     OW88399   2.767   2.516   1.340
95501SOL    HW188400   2.693   2.569   1.310
95501SOL    HW288401   2.765   2.438   1.284
95502SOL     OW88402   2.279   0.848  13.923
95502SOL    HW188403   2.253   0.940  13.931
95502SOL    HW288404   2.315   0.826  14.009
95503SOL     OW88405  12.574   0.392   7.795
95503SOL    HW188406  12.479   0.391   7.790
95503SOL    HW288407  12.597   0.313   7.845
95504SOL     OW88408   6.680   3.940   0.889
95504SOL    HW188409   6.772   3.930   0.866
95504SOL    HW288410   6.659   3.860   0.938
95505SOL     OW88411   9.741   5.017  14.369
95505SOL    HW188412   9.745   5.099  14.319
95505SOL    HW288413   9.684   5.038  14.443
95506SOL     OW88414  12.820   2.348   3.380
95506SOL    HW188415  12.836   2.270   3.432
95506SOL    HW288416  12.895   2.355   3.321
95507SOL     OW88417   7.593   3.563   3.652
95507SOL    HW188418   7.515   3.528   3.695
95507SOL    HW288419   7.614   3.497   3.585
95508SOL     OW88420  14.420  10.800   4.898
95508SOL    HW188421  14.352  10.777   4.834
95508SOL    HW288422  14.502  10.786   4.850
95509SOL     OW88423   9.784  12.258   2.755
95509SOL    HW188424   9.832  12.175   2.749
95509SOL    HW288425   9.841  12.315   2.806
95510SOL     OW88426   2.502   7.148   0.442
95510SOL    HW188427   2.576   7.125   0.497
95510SOL    HW288428   2.534   7.139   0.352
95511SOL     OW88429   5.780  12.898  13.071
95511SOL    HW188430   5.705  12.956  13.059
95511SOL    HW288431   5.743  12.810  13.072
95512SOL     OW88432   4.915   8.909   0.865
95512SOL    HW188433   4.830   8.887   0.903
95512SOL    HW288434   4.901   8.993   0.822
95513SOL     OW88435  11.012   1.987  12.800
95513SOL    HW188436  11.011   1.893  12.821
95513SOL    HW288437  10.937   2.023  12.846
95514SOL     OW88438   8.613  12.304  12.491
95514SOL    HW188439   8.550  12.300  12.419
95514SOL    HW288440   8.645  12.394  12.489
95515SOL     OW88441  11.900  14.431   0.660
95515SOL    HW188442  11.815  14.387   0.662
95515SOL    HW288443  11.881  14.522   0.683
95516SOL     OW88444   1.520  13.638  12.490
95516SOL    HW188445   1.523  13.593  12.575
95516SOL    HW288446   1.600  13.692  12.489
95517SOL     OW88447  13.325   9.175  11.405
95517SOL    HW188448  13.272   9.097  11.419
95517SOL    HW288449  13.382   9.179  11.481
95518SOL     OW88450   8.961   9.601   1.341
95518SOL    HW188451   8.970   9.509   1.314
95518SOL    HW288452   8.977   9.651   1.261
95519SOL     OW88453   0.619  14.229   1.152
95519SOL    HW188454   0.685  14.276   1.102
95519SOL    HW288455   0.636  14.253   1.243
95520SOL     OW88456   2.218   7.658  13.636
95520SOL    HW188457   2.216   7.674  13.542
95520SOL    HW288458   2.279   7.586  13.647
95521SOL     OW88459   2.127   6.358   4.257
95521SOL    HW188460   2.033   6.375   4.256
95521SOL    HW288461   2.159   6.397   4.176
95522SOL     OW88462  10.600   3.328   8.932
95522SOL    HW188463  10.524   3.297   8.982
95522SOL    HW288464  10.626   3.253   8.879
95523SOL     OW88465   6.824  12.766  11.627
95523SOL    HW188466   6.732  12.752  11.604
95523SOL    HW288467   6.830  12.859  11.648
95524SOL     OW88468   4.170   4.671  12.677
95524SOL    HW188469   4.098   4.715  12.723
95524SOL    HW288470   4.248   4.695  12.726
95525SOL     OW88471   5.023   7.062   5.285
95525SOL    HW188472   5.068   7.138   5.323
95525SOL    HW288473   5.030   7.076   5.191
95526SOL     OW88474  12.558   3.010   7.125
95526SOL    HW188475  12.594   3.095   7.099
95526SOL    HW288476  12.635   2.955   7.140
95527SOL     OW88477  12.790   4.194  14.376
95527SOL    HW188478  12.866   4.189  14.318
95527SOL    HW288479  12.777   4.104  14.406
95528SOL     OW88480   3.093   1.221   3.600
95528SOL    HW188481   3.104   1.175   3.516
95528SOL    HW288482   3.013   1.184   3.637
95529SOL     OW88483  10.353  14.403   6.986
95529SOL    HW188484  10.447  14.421   6.992
95529SOL    HW288485  10.348  14.309   6.966
95530SOL     OW88486  14.650  13.975   5.836
95530SOL    HW188487  14.650  13.976   5.740
95530SOL    HW288488  14.667  13.884   5.860
95531SOL     OW88489   6.476  12.879  12.107
95531SOL    HW188490   6.421  12.843  12.177
95531SOL    HW288491   6.526  12.804  12.076
95532SOL     OW88492   9.700   4.586   9.159
95532SOL    HW188493   9.658   4.525   9.098
95532SOL    HW288494   9.674   4.673   9.129
95533SOL     OW88495  14.274  10.026   8.022
95533SOL    HW188496  14.210  10.027   8.094
95533SOL    HW288497  14.355  10.058   8.062
95534SOL     OW88498   8.159   5.756   7.475
95534SOL    HW188499   8.103   5.685   7.507
95534SOL    HW288500   8.098   5.825   7.451
95535SOL     OW88501   4.158  12.260   3.344
95535SOL    HW188502   4.193  12.172   3.354
95535SOL    HW288503   4.079  12.248   3.291
95536SOL     OW88504   3.914   3.659   5.465
95536SOL    HW188505   3.928   3.707   5.383
95536SOL    HW288506   3.918   3.567   5.441
95537SOL     OW88507   2.660  10.138   9.164
95537SOL    HW188508   2.691  10.145   9.254
95537SOL    HW288509   2.565  10.143   9.170
95538SOL     OW88510  13.116   9.553   0.695
95538SOL    HW188511  13.055   9.500   0.745
95538SOL    HW288512  13.068   9.577   0.616
95539SOL     OW88513   8.850   6.403   4.562
95539SOL    HW188514   8.834   6.374   4.472
95539SOL    HW288515   8.786   6.472   4.577
95540SOL     OW88516   3.174   8.634   5.325
95540SOL    HW188517   3.123   8.556   5.303
95540SOL    HW288518   3.198   8.671   5.240
95541SOL     OW88519   4.960   8.775   5.133
95541SOL    HW188520   4.974   8.703   5.195
95541SOL    HW288521   5.001   8.746   5.052
95542SOL     OW88522   6.377  10.526   5.518
95542SOL    HW188523   6.382  10.458   5.585
95542SOL    HW288524   6.381  10.608   5.566
95543SOL     OW88525   5.320  14.390   5.637
95543SOL    HW188526   5.291  14.300   5.649
95543SOL    HW288527   5.367  14.390   5.554
95544SOL     OW88528   5.446   6.143   3.658
95544SOL    HW188529   5.435   6.200   3.581
95544SOL    HW288530   5.519   6.086   3.634
95545SOL     OW88531  12.721   6.077  13.910
95545SOL    HW188532  12.681   6.136  13.846
95545SOL    HW288533  12.808   6.114  13.926
95546SOL     OW88534  14.557   9.884   2.336
95546SOL    HW188535  14.472   9.903   2.295
95546SOL    HW288536  14.621   9.908   2.269
95547SOL     OW88537   2.606  14.610   2.518
95547SOL    HW188538   2.588  14.550   2.590
95547SOL    HW288539   2.531  14.670   2.517
95548SOL     OW88540  11.007   8.578   4.049
95548SOL    HW188541  10.926   8.615   4.013
95548SOL    HW288542  10.978   8.499   4.095
95549SOL     OW88543   9.667   6.253   8.816
95549SOL    HW188544   9.688   6.344   8.838
95549SOL    HW288545   9.623   6.218   8.893
95550SOL     OW88546  10.927  11.317   5.261
95550SOL    HW188547  10.887  11.381   5.319
95550SOL    HW288548  10.964  11.368   5.189
95551SOL     OW88549  10.302  13.407  14.165
95551SOL    HW188550  10.358  13.484  14.167
95551SOL    HW288551  10.313  13.371  14.077
95552SOL     OW88552   4.366   0.743   4.145
95552SOL    HW188553   4.355   0.834   4.119
95552SOL    HW288554   4.434   0.709   4.087
95553SOL     OW88555  14.462   1.114  13.862
95553SOL    HW188556  14.413   1.139  13.940
95553SOL    HW288557  14.536   1.064  13.896
95554SOL     OW88558  13.525  10.378   7.006
95554SOL    HW188559  13.449  10.432   6.987
95554SOL    HW288560  13.498  10.289   6.983
95555SOL     OW88561   8.290   1.471  10.517
95555SOL    HW188562   8.375   1.442  10.549
95555SOL    HW288563   8.305   1.560  10.484
95556SOL     OW88564   0.735   5.300  11.228
95556SOL    HW188565   0.754   5.392  11.248
95556SOL    HW288566   0.700   5.264  11.310
95557SOL     OW88567  12.298   3.651   9.150
95557SOL    HW188568  12.346   3.658   9.067
95557SOL    HW288569  12.347   3.586   9.201
95558SOL     OW88570   6.749  10.516   0.236
95558SOL    HW188571   6.787  10.584   0.292
95558SOL    HW288572   6.738  10.441   0.294
95559SOL     OW88573  13.988   4.575  11.464
95559SOL    HW188574  14.021   4.578  11.553
95559SOL    HW288575  14.034   4.646  11.419
95560SOL     OW88576   7.794   8.821  13.897
95560SOL    HW188577   7.824   8.894  13.951
95560SOL    HW288578   7.819   8.845  13.808
95561SOL     OW88579   9.887  12.897   4.099
95561SOL    HW188580   9.823  12.967   4.103
95561SOL    HW288581   9.920  12.890   4.189
95562SOL     OW88582   4.240   0.495   9.757
95562SOL    HW188583   4.314   0.535   9.712
95562SOL    HW288584   4.203   0.566   9.809
95563SOL     OW88585   1.192   4.557  14.239
95563SOL    HW188586   1.103   4.524  14.236
95563SOL    HW288587   1.244   4.485  14.273
95564SOL     OW88588   6.249   9.596   6.527
95564SOL    HW188589   6.312   9.611   6.457
95564SOL    HW288590   6.231   9.502   6.523
95565SOL     OW88591   9.311   0.806   9.326
95565SOL    HW188592   9.282   0.742   9.390
95565SOL    HW288593   9.277   0.774   9.242
95566SOL     OW88594   8.539   0.564  13.670
95566SOL    HW188595   8.491   0.507  13.610
95566SOL    HW288596   8.600   0.506  13.715
95567SOL     OW88597   4.880   7.055  11.049
95567SOL    HW188598   4.809   6.994  11.068
95567SOL    HW288599   4.858   7.090  10.962
95568SOL     OW88600  13.534  12.584   7.249
95568SOL    HW188601  13.588  12.587   7.170
95568SOL    HW288602  13.509  12.675   7.264
95569SOL     OW88603   4.865   2.528   9.207
95569SOL    HW188604   4.904   2.450   9.168
95569SOL    HW288605   4.833   2.579   9.132
95570SOL     OW88606   6.164   8.680   5.680
95570SOL    HW188607   6.098   8.613   5.692
95570SOL    HW288608   6.141   8.749   5.742
95571SOL     OW88609   5.834   5.847   1.625
95571SOL    HW188610   5.823   5.822   1.533
95571SOL    HW288611   5.926   5.826   1.644
95572SOL     OW88612   0.088  10.947   1.243
95572SOL    HW188613   0.128  10.948   1.330
95572SOL    HW288614   0.137  11.012   1.193
95573SOL     OW88615  13.214  10.368   0.940
95573SOL    HW188616  13.267  10.433   0.894
95573SOL    HW288617  13.155  10.333   0.874
95574SOL     OW88618   6.036  14.769  14.786
95574SOL    HW188619   6.032  14.850  14.836
95574SOL    HW288620   6.015  14.795  14.696
95575SOL     OW88621  12.789   0.799   5.020
95575SOL    HW188622  12.875   0.803   4.979
95575SOL    HW288623  12.806   0.813   5.113
95576SOL     OW88624  14.687   1.362   8.378
95576SOL    HW188625  14.676   1.342   8.285
95576SOL    HW288626  14.773   1.405   8.384
95577SOL     OW88627   6.437   9.142   3.766
95577SOL    HW188628   6.496   9.071   3.790
95577SOL    HW288629   6.472   9.177   3.684
95578SOL     OW88630   9.850  13.281   9.838
95578SOL    HW188631   9.913  13.312   9.773
95578SOL    HW288632   9.770  13.263   9.787
95579SOL     OW88633   8.413   0.877  12.536
95579SOL    HW188634   8.477   0.909  12.472
95579SOL    HW288635   8.464   0.861  12.615
95580SOL     OW88636  13.499  10.526  13.049
95580SOL    HW188637  13.557  10.523  13.125
95580SOL    HW288638  13.510  10.614  13.013
95581SOL     OW88639   8.663  10.830  11.350
95581SOL    HW188640   8.722  10.760  11.378
95581SOL    HW288641   8.595  10.785  11.299
95582SOL     OW88642   6.557   0.359   8.337
95582SOL    HW188643   6.648   0.337   8.355
95582SOL    HW288644   6.525   0.289   8.280
95583SOL     OW88645   5.316   0.438   3.542
95583SOL    HW188646   5.397   0.488   3.527
95583SOL    HW288647   5.325   0.361   3.487
95584SOL     OW88648  11.704   0.685   2.151
95584SOL    HW188649  11.681   0.771   2.116
95584SOL    HW288650  11.629   0.660   2.205
95585SOL     OW88651  14.172  13.666   7.255
95585SOL    HW188652  14.234  13.605   7.215
95585SOL    HW288653  14.096  13.611   7.277
95586SOL     OW88654   3.272  10.932  11.041
95586SOL    HW188655   3.229  10.966  11.119
95586SOL    HW288656   3.350  10.887  11.074
95587SOL     OW88657   2.534   4.650   9.377
95587SOL    HW188658   2.533   4.720   9.442
95587SOL    HW288659   2.609   4.596   9.402
95588SOL     OW88660   6.814   1.474  12.776
95588SOL    HW188661   6.730   1.486  12.731
95588SOL    HW288662   6.796   1.408  12.843
95589SOL     OW88663  12.148   6.921   8.196
95589SOL    HW188664  12.192   6.845   8.157
95589SOL    HW288665  12.171   6.917   8.288
95590SOL     OW88666   6.880   1.770  13.267
95590SOL    HW188667   6.925   1.746  13.347
95590SOL    HW288668   6.799   1.718  13.268
95591SOL     OW88669  13.543   7.029   5.324
95591SOL    HW188670  13.537   6.936   5.300
95591SOL    HW288671  13.579   7.029   5.412
95592SOL     OW88672   7.631   6.098   6.302
95592SOL    HW188673   7.682   6.042   6.243
95592SOL    HW288674   7.688   6.173   6.318
95593SOL     OW88675   5.321  14.255   9.650
95593SOL    HW188676   5.304  14.337   9.605
95593SOL    HW288677   5.297  14.187   9.587
95594SOL     OW88678   3.882   2.074   1.836
95594SOL    HW188679   3.840   2.004   1.886
95594SOL    HW288680   3.944   2.029   1.779
95595SOL     OW88681   3.098   3.526   7.848
95595SOL    HW188682   3.107   3.620   7.859
95595SOL    HW288683   3.172   3.501   7.792
95596SOL     OW88684   3.767  14.570   7.490
95596SOL    HW188685   3.835  14.524   7.540
95596SOL    HW288686   3.706  14.601   7.557
95597SOL     OW88687   4.098  10.691   6.442
95597SOL    HW188688   4.016  10.643   6.447
95597SOL    HW288689   4.164  10.623   6.424
95598SOL     OW88690  14.707   6.150  11.187
95598SOL    HW188691  14.639   6.206  11.223
95598SOL    HW288692  14.659   6.083  11.138
95599SOL     OW88693  11.753  11.176  13.868
95599SOL    HW188694  11.792  11.216  13.946
95599SOL    HW288695  11.764  11.243  13.800
95600SOL     OW88696  10.069   1.217   9.247
95600SOL    HW188697   9.991   1.206   9.300
95600SOL    HW288698  10.039   1.263   9.169
95601SOL     OW88699  11.273  10.630  10.722
95601SOL    HW188700  11.248  10.662  10.808
95601SOL    HW288701  11.198  10.653  10.666
95602SOL     OW88702   8.736  12.990   8.222
95602SOL    HW188703   8.643  12.986   8.200
95602SOL    HW288704   8.765  12.899   8.221
95603SOL     OW88705   7.811  12.051   3.438
95603SOL    HW188706   7.759  12.016   3.510
95603SOL    HW288707   7.796  11.990   3.366
95604SOL     OW88708   9.567   1.256   9.043
95604SOL    HW188709   9.640   1.217   9.091
95604SOL    HW288710   9.532   1.321   9.104
95605SOL     OW88711  10.297   0.369   1.223
95605SOL    HW188712  10.241   0.327   1.157
95605SOL    HW288713  10.374   0.313   1.229
95606SOL     OW88714  12.170   0.047   4.483
95606SOL    HW188715  12.222  14.850   4.495
95606SOL    HW288716  12.079   0.018   4.490
95607SOL     OW88717   6.294  13.227  14.179
95607SOL    HW188718   6.256  13.298  14.230
95607SOL    HW288719   6.221  13.192  14.129
95608SOL     OW88720   8.184   3.802   6.784
95608SOL    HW188721   8.251   3.772   6.845
95608SOL    HW288722   8.229   3.806   6.699
95609SOL     OW88723   2.453  11.821  12.866
95609SOL    HW188724   2.392  11.841  12.937
95609SOL    HW288725   2.434  11.730  12.842
95610SOL     OW88726   0.001   8.270   3.733
95610SOL    HW188727  14.866   8.346   3.789
95610SOL    HW288728   0.073   8.224   3.776
95611SOL     OW88729   6.918   4.833   4.280
95611SOL    HW188730   7.002   4.819   4.235
95611SOL    HW288731   6.857   4.852   4.209
95612SOL     OW88732   1.673   3.792   2.725
95612SOL    HW188733   1.675   3.856   2.654
95612SOL    HW288734   1.722   3.833   2.796
95613SOL     OW88735   9.566   5.698   3.433
95613SOL    HW188736   9.488   5.693   3.488
95613SOL    HW288737   9.555   5.779   3.383
95614SOL     OW88738   9.866   4.496  13.848
95614SOL    HW188739   9.943   4.473  13.899
95614SOL    HW288740   9.851   4.589  13.867
95615SOL     OW88741   3.189   4.377   5.577
95615SOL    HW188742   3.252   4.408   5.512
95615SOL    HW288743   3.240   4.319   5.634
95616SOL     OW88744  13.585   7.896   8.721
95616SOL    HW188745  13.511   7.873   8.776
95616SOL    HW288746  13.546   7.929   8.640
95617SOL     OW88747   3.809   8.782   4.820
95617SOL    HW188748   3.715   8.763   4.818
95617SOL    HW288749   3.819   8.856   4.760
95618SOL     OW88750   1.095   7.202   2.369
95618SOL    HW188751   1.049   7.276   2.409
95618SOL    HW288752   1.036   7.173   2.299
95619SOL     OW88753   0.118  12.016   0.806
95619SOL    HW188754   0.039  11.964   0.790
95619SOL    HW288755   0.164  11.969   0.875
95620SOL     OW88756   5.851   9.326   7.939
95620SOL    HW188757   5.840   9.295   7.850
95620SOL    HW288758   5.926   9.277   7.973
95621SOL     OW88759   6.914  13.622   6.975
95621SOL    HW188760   6.908  13.647   7.067
95621SOL    HW288761   6.833  13.574   6.958
95622SOL     OW88762   2.973   6.729   9.178
95622SOL    HW188763   2.929   6.649   9.151
95622SOL    HW288764   3.064   6.717   9.150
95623SOL     OW88765   4.970   2.776  14.568
95623SOL    HW188766   4.932   2.780  14.481
95623SOL    HW288767   5.048   2.831  14.564
95624SOL     OW88768  14.069   1.326  13.181
95624SOL    HW188769  14.028   1.240  13.188
95624SOL    HW288770  14.148   1.312  13.129
95625SOL     OW88771   1.484   0.667   7.599
95625SOL    HW188772   1.555   0.639   7.542
95625SOL    HW288773   1.442   0.585   7.627
95626SOL     OW88774  14.537   8.596   2.556
95626SOL    HW188775  14.525   8.673   2.611
95626SOL    HW288776  14.592   8.537   2.608
95627SOL     OW88777   3.127   6.561   4.722
95627SOL    HW188778   3.154   6.486   4.776
95627SOL    HW288779   3.036   6.543   4.698
95628SOL     OW88780  13.008   6.555   9.439
95628SOL    HW188781  13.047   6.642   9.451
95628SOL    HW288782  13.045   6.502   9.509
95629SOL     OW88783   3.830  10.543  12.594
95629SOL    HW188784   3.925  10.549  12.606
95629SOL    HW288785   3.796  10.623  12.634
95630SOL     OW88786   7.933  13.601   3.606
95630SOL    HW188787   7.991  13.590   3.530
95630SOL    HW288788   7.931  13.514   3.647
95631SOL     OW88789   4.616   4.508   8.956
95631SOL    HW188790   4.552   4.494   8.886
95631SOL    HW288791   4.594   4.443   9.022
95632SOL     OW88792   4.828  11.981   2.504
95632SOL    HW188793   4.733  11.979   2.507
95632SOL    HW288794   4.852  12.053   2.563
95633SOL     OW88795   4.838   8.083   4.398
95633SOL    HW188796   4.925   8.088   4.358
95633SOL    HW288797   4.786   8.146   4.349
95634SOL     OW88798  13.578   1.637  10.569
95634SOL    HW188799  13.600   1.718  10.522
95634SOL    HW288800  13.532   1.667  10.647
95635SOL     OW88801   0.730   3.139   1.776
95635SOL    HW188802   0.670   3.107   1.708
95635SOL    HW288803   0.673   3.185   1.838
95636SOL     OW88804   2.462   2.041   6.775
95636SOL    HW188805   2.532   2.043   6.709
95636SOL    HW288806   2.495   2.096   6.846
95637SOL     OW88807   7.748   1.939   2.876
95637SOL    HW188808   7.841   1.954   2.893
95637SOL    HW288809   7.735   1.847   2.900
95638SOL     OW88810   9.512   3.753  11.491
95638SOL    HW188811   9.446   3.689  11.517
95638SOL    HW288812   9.509   3.752  11.395
95639SOL     OW88813  13.864   3.637   6.218
95639SOL    HW188814  13.884   3.631   6.124
95639SOL    HW288815  13.910   3.715   6.247
95640SOL     OW88816   1.355   1.162   5.890
95640SOL    HW188817   1.348   1.216   5.811
95640SOL    HW288818   1.448   1.142   5.897
95641SOL     OW88819   1.276   1.758   7.678
95641SOL    HW188820   1.329   1.720   7.749
95641SOL    HW288821   1.212   1.813   7.723
95642SOL     OW88822   1.486   0.793   5.892
95642SOL    HW188823   1.551   0.842   5.841
95642SOL    HW288824   1.408   0.792   5.837
95643SOL     OW88825   7.123   6.710   3.882
95643SOL    HW188826   7.075   6.740   3.959
95643SOL    HW288827   7.059   6.659   3.833
95644SOL     OW88828  11.375   7.310   0.080
95644SOL    HW188829  11.444   7.263   0.128
95644SOL    HW288830  11.298   7.254   0.086
95645SOL     OW88831   6.449   9.032   9.343
95645SOL    HW188832   6.356   9.057   9.350
95645SOL    HW288833   6.448   8.936   9.346
95646SOL     OW88834  11.985  12.804   8.334
95646SOL    HW188835  11.932  12.733   8.370
95646SOL    HW288836  12.026  12.766   8.256
95647SOL     OW88837  14.070   4.204  10.212
95647SOL    HW188838  14.033   4.213  10.300
95647SOL    HW288839  14.117   4.120  10.214
95648SOL     OW88840   8.919   1.174   7.379
95648SOL    HW188841   8.902   1.224   7.459
95648SOL    HW288842   9.006   1.137   7.392
95649SOL     OW88843   3.368   6.180  11.195
95649SOL    HW188844   3.341   6.172  11.287
95649SOL    HW288845   3.425   6.105  11.180
95650SOL     OW88846  11.167   9.390   2.367
95650SOL    HW188847  11.123   9.352   2.443
95650SOL    HW288848  11.149   9.483   2.373
95651SOL     OW88849   1.721   3.662   7.885
95651SOL    HW188850   1.815   3.656   7.902
95651SOL    HW288851   1.681   3.603   7.950
95652SOL     OW88852   6.728  12.179   7.887
95652SOL    HW188853   6.658  12.210   7.830
95652SOL    HW288854   6.808  12.196   7.839
95653SOL     OW88855  11.880   2.905   2.302
95653SOL    HW188856  11.834   2.988   2.287
95653SOL    HW288857  11.811   2.839   2.308
95654SOL     OW88858   3.545   4.279  12.982
95654SOL    HW188859   3.572   4.299  13.071
95654SOL    HW288860   3.504   4.360  12.950
95655SOL     OW88861   1.829   8.514  11.470
95655SOL    HW188862   1.757   8.542  11.528
95655SOL    HW288863   1.878   8.594  11.454
95656SOL     OW88864  10.301   0.628   7.201
95656SOL    HW188865  10.220   0.646   7.248
95656SOL    HW288866  10.336   0.715   7.179
95657SOL     OW88867   9.816  10.067   5.331
95657SOL    HW188868   9.872  10.003   5.287
95657SOL    HW288869   9.835  10.150   5.288
95658SOL     OW88870  14.825   8.908  10.434
95658SOL    HW188871  14.816   8.942  10.523
95658SOL    HW288872   0.017   8.956  10.398
95659SOL     OW88873   4.183  13.015  14.208
95659SOL    HW188874   4.113  12.954  14.186
95659SOL    HW288875   4.182  13.021  14.304
95660SOL     OW88876  11.196  12.098  10.238
95660SOL    HW188877  11.149  12.179  10.259
95660SOL    HW288878  11.224  12.110  10.148
95661SOL     OW88879   2.406  10.551   5.916
95661SOL    HW188880   2.465  10.479   5.896
95661SOL    HW288881   2.418  10.567   6.010
95662SOL     OW88882   7.656  13.465   5.274
95662SOL    HW188883   7.647  13.508   5.189
95662SOL    HW288884   7.750  13.446   5.281
95663SOL     OW88885   1.001  12.317   3.737
95663SOL    HW188886   1.053  12.263   3.677
95663SOL    HW288887   0.911  12.285   3.726
95664SOL     OW88888  12.095   8.836   4.598
95664SOL    HW188889  12.055   8.811   4.515
95664SOL    HW288890  12.105   8.931   4.593
95665SOL     OW88891   2.589  11.707   6.672
95665SOL    HW188892   2.594  11.752   6.756
95665SOL    HW288893   2.678  11.712   6.636
95666SOL     OW88894   7.796   1.200  14.807
95666SOL    HW188895   7.757   1.114  14.796
95666SOL    HW288896   7.879   1.195  14.760
95667SOL     OW88897  11.561   5.166   0.873
95667SOL    HW188898  11.506   5.193   0.799
95667SOL    HW288899  11.507   5.183   0.950
95668SOL     OW88900  10.256  13.686   7.098
95668SOL    HW188901  10.191  13.621   7.072
95668SOL    HW288902  10.228  13.767   7.055
95669SOL     OW88903   8.430  11.515   2.387
95669SOL    HW188904   8.369  11.452   2.350
95669SOL    HW288905   8.375  11.579   2.432
95670SOL     OW88906  12.462   7.500   7.297
95670SOL    HW188907  12.430   7.525   7.210
95670SOL    HW288908  12.472   7.405   7.293
95671SOL     OW88909   8.553   8.140   1.682
95671SOL    HW188910   8.574   8.060   1.635
95671SOL    HW288911   8.637   8.178   1.706
95672SOL     OW88912   1.496   1.161   3.784
95672SOL    HW188913   1.575   1.180   3.836
95672SOL    HW288914   1.493   1.231   3.719
95673SOL     OW88915   2.779  10.960   6.746
95673SOL    HW188916   2.719  10.922   6.682
95673SOL    HW288917   2.728  10.968   6.826
95674SOL     OW88918   6.071  12.836   4.074
95674SOL    HW188919   6.021  12.755   4.062
95674SOL    HW288920   6.162  12.808   4.079
95675SOL     OW88921   8.959   1.121   9.472
95675SOL    HW188922   9.029   1.126   9.406
95675SOL    HW288923   8.905   1.198   9.455
95676SOL     OW88924   8.323   0.852  13.901
95676SOL    HW188925   8.409   0.835  13.863
95676SOL    HW288926   8.273   0.892  13.831
95677SOL     OW88927  14.255   0.821  13.824
95677SOL    HW188928  14.186   0.758  13.844
95677SOL    HW288929  14.211   0.906  13.824
95678SOL     OW88930   3.663   5.917  10.135
95678SOL    HW188931   3.758   5.931  10.140
95678SOL    HW288932   3.625   5.996  10.171
95679SOL     OW88933   3.448   1.555  14.611
95679SOL    HW188934   3.534   1.578  14.647
95679SOL    HW288935   3.425   1.628  14.554
95680SOL     OW88936   7.953   1.971   7.499
95680SOL    HW188937   7.949   1.964   7.594
95680SOL    HW288938   7.882   2.030   7.476
95681SOL     OW88939   7.680   3.331  14.143
95681SOL    HW188940   7.616   3.303  14.208
95681SOL    HW288941   7.755   3.272  14.155
95682SOL     OW88942   0.825   6.113  12.480
95682SOL    HW188943   0.871   6.186  12.522
95682SOL    HW288944   0.804   6.053  12.552
95683SOL     OW88945   2.732  12.146  13.232
95683SOL    HW188946   2.643  12.135  13.265
95683SOL    HW288947   2.724  12.212  13.164
95684SOL     OW88948  14.631   7.106   4.332
95684SOL    HW188949  14.564   7.099   4.399
95684SOL    HW288950  14.623   7.195   4.299
95685SOL     OW88951   9.207   3.711  12.930
95685SOL    HW188952   9.134   3.653  12.908
95685SOL    HW288953   9.212   3.772  12.856
95686SOL     OW88954   4.888  13.651   9.515
95686SOL    HW188955   4.823  13.707   9.557
95686SOL    HW288956   4.972  13.682   9.550
95687SOL     OW88957   5.340   4.522  13.023
95687SOL    HW188958   5.406   4.452  13.033
95687SOL    HW288959   5.261   4.485  13.062
95688SOL     OW88960   2.143  10.237   4.313
95688SOL    HW188961   2.062  10.228   4.264
95688SOL    HW288962   2.173  10.326   4.293
95689SOL     OW88963  11.399  11.590   6.076
95689SOL    HW188964  11.377  11.569   5.985
95689SOL    HW288965  11.491  11.617   6.073
95690SOL     OW88966  13.967   2.188   3.031
95690SOL    HW188967  13.968   2.101   3.071
95690SOL    HW288968  13.900   2.183   2.962
95691SOL     OW88969   0.543  11.583   3.671
95691SOL    HW188970   0.567  11.616   3.758
95691SOL    HW288971   0.625  11.551   3.634
95692SOL     OW88972   5.491   6.252   5.183
95692SOL    HW188973   5.553   6.323   5.197
95692SOL    HW288974   5.448   6.274   5.100
95693SOL     OW88975   5.286   6.463  10.274
95693SOL    HW188976   5.258   6.407  10.345
95693SOL    HW288977   5.265   6.414  10.194
95694SOL     OW88978   6.579  10.763   6.132
95694SOL    HW188979   6.643  10.822   6.093
95694SOL    HW288980   6.538  10.718   6.058
95695SOL     OW88981   5.670   4.221  11.164
95695SOL    HW188982   5.675   4.129  11.139
95695SOL    HW288983   5.648   4.219  11.257
95696SOL     OW88984   3.170   5.363  13.351
95696SOL    HW188985   3.263   5.349  13.372
95696SOL    HW288986   3.128   5.373  13.436
95697SOL     OW88987   5.496   0.200   6.676
95697SOL    HW188988   5.430   0.177   6.611
95697SOL    HW288989   5.479   0.141   6.750
95698SOL     OW88990  11.380  10.289   3.035
95698SOL    HW188991  11.384  10.382   3.011
95698SOL    HW288992  11.471  10.261   3.041
95699SOL     OW88993   2.241  10.255  11.065
95699SOL    HW188994   2.206  10.177  11.107
95699SOL    HW288995   2.187  10.266  10.986
95700SOL     OW88996  10.569  12.596   0.328
95700SOL    HW188997  10.604  12.635   0.248
95700SOL    HW288998  10.576  12.502   0.315
95701SOL     OW88999   4.200   3.942  14.135
95701SOL    HW189000   4.278   3.966  14.085
95701SOL    HW289001   4.163   3.867  14.088
95702SOL     OW89002   1.940   2.846   5.888
95702SOL    HW189003   1.855   2.828   5.928
95702SOL    HW289004   1.950   2.941   5.893
95703SOL     OW89005   5.996  10.336   2.749
95703SOL    HW189006   5.941  10.363   2.823
95703SOL    HW289007   6.048  10.263   2.783
95704SOL     OW89008   1.963   5.266  12.412
95704SOL    HW189009   1.956   5.360  12.427
95704SOL    HW289010   2.053   5.244  12.439
95705SOL     OW89011  11.626   4.627  10.954
95705SOL    HW189012  11.623   4.626  11.049
95705SOL    HW289013  11.537   4.647  10.927
95706SOL     OW89014   4.756   3.337   3.694
95706SOL    HW189015   4.672   3.333   3.647
95706SOL    HW289016   4.811   3.393   3.641
95707SOL     OW89017   3.027  10.049  14.317
95707SOL    HW189018   2.998  10.116  14.379
95707SOL    HW289019   3.116  10.075  14.294
95708SOL     OW89020  13.201   6.432   0.251
95708SOL    HW189021  13.213   6.384   0.169
95708SOL    HW289022  13.120   6.481   0.238
95709SOL     OW89023  13.839  11.975   3.452
95709SOL    HW189024  13.835  11.881   3.469
95709SOL    HW289025  13.871  12.013   3.534
95710SOL     OW89026  14.209   5.344   8.886
95710SOL    HW189027  14.254   5.355   8.802
95710SOL    HW289028  14.147   5.417   8.890
95711SOL     OW89029   4.503  14.774   2.907
95711SOL    HW189030   4.540  14.860   2.887
95711SOL    HW289031   4.571  14.729   2.956
95712SOL     OW89032   4.865   0.174   9.640
95712SOL    HW189033   4.773   0.198   9.650
95712SOL    HW289034   4.864   0.097   9.584
95713SOL     OW89035   3.272   4.063   5.483
95713SOL    HW189036   3.285   3.979   5.526
95713SOL    HW289037   3.350   4.114   5.505
95714SOL     OW89038   0.619   7.296   9.977
95714SOL    HW189039   0.693   7.238   9.958
95714SOL    HW289040   0.541   7.245   9.954
95715SOL     OW89041   0.920   9.278   2.050
95715SOL    HW189042   0.922   9.292   1.955
95715SOL    HW289043   0.829   9.259   2.069
95716SOL     OW89044   9.426   8.828   8.536
95716SOL    HW189045   9.353   8.835   8.597
95716SOL    HW289046   9.469   8.745   8.558
95717SOL     OW89047   0.791  11.591   4.242
95717SOL    HW189048   0.854  11.556   4.305
95717SOL    HW289049   0.761  11.515   4.193
95718SOL     OW89050   3.452   7.437   4.753
95718SOL    HW189051   3.402   7.494   4.811
95718SOL    HW289052   3.440   7.349   4.788
95719SOL     OW89053  11.440   8.985   5.657
95719SOL    HW189054  11.364   9.021   5.611
95719SOL    HW289055  11.479   8.924   5.594
95720SOL     OW89056  13.705   6.319   9.440
95720SOL    HW189057  13.614   6.344   9.451
95720SOL    HW289058  13.753   6.401   9.439
95721SOL     OW89059   7.320   3.686  10.915
95721SOL    HW189060   7.411   3.660  10.930
95721SOL    HW289061   7.321   3.781  10.924
95722SOL     OW89062   4.469   4.363  12.672
95722SOL    HW189063   4.493   4.456  12.676
95722SOL    HW289064   4.403   4.352  12.740
95723SOL     OW89065   3.898  14.542   2.413
95723SOL    HW189066   3.819  14.512   2.459
95723SOL    HW289067   3.884  14.515   2.323
95724SOL     OW89068  10.792   9.391   9.765
95724SOL    HW189069  10.817   9.341   9.688
95724SOL    HW289070  10.832   9.478   9.751
95725SOL     OW89071   7.712   5.998  13.392
95725SOL    HW189072   7.629   5.952  13.399
95725SOL    HW289073   7.772   5.933  13.353
95726SOL     OW89074   0.920   9.092  11.074
95726SOL    HW189075   0.898   9.120  10.986
95726SOL    HW289076   0.886   9.003  11.081
95727SOL     OW89077   4.374   3.931  11.938
95727SOL    HW189078   4.411   3.998  11.996
95727SOL    HW289079   4.450   3.879  11.911
95728SOL     OW89080  12.387   0.243   2.016
95728SOL    HW189081  12.381   0.283   2.103
95728SOL    HW289082  12.296   0.237   1.986
95729SOL     OW89083   5.407   7.229   0.375
95729SOL    HW189084   5.406   7.135   0.391
95729SOL    HW289085   5.499   7.253   0.376
95730SOL     OW89086   1.472   8.458   1.253
95730SOL    HW189087   1.517   8.437   1.335
95730SOL    HW289088   1.510   8.541   1.225
95731SOL     OW89089   5.751   7.417   8.682
95731SOL    HW189090   5.796   7.401   8.765
95731SOL    HW289091   5.762   7.335   8.633
95732SOL     OW89092  10.651   5.243   3.460
95732SOL    HW189093  10.574   5.189   3.480
95732SOL    HW289094  10.693   5.257   3.545
95733SOL     OW89095   8.100  13.348  11.792
95733SOL    HW189096   8.017  13.306  11.816
95733SOL    HW289097   8.076  13.410  11.723
95734SOL     OW89098  14.431  10.841   2.786
95734SOL    HW189099  14.452  10.760   2.740
95734SOL    HW289100  14.378  10.891   2.724
95735SOL     OW89101  11.656   9.194   9.679
95735SOL    HW189102  11.689   9.151   9.600
95735SOL    HW289103  11.581   9.141   9.705
95736SOL     OW89104   7.758  12.950   3.137
95736SOL    HW189105   7.825  13.018   3.124
95736SOL    HW289106   7.792  12.874   3.089
95737SOL     OW89107   2.500   3.759   5.895
95737SOL    HW189108   2.494   3.718   5.809
95737SOL    HW289109   2.439   3.833   5.891
95738SOL     OW89110   6.991   3.133  12.125
95738SOL    HW189111   6.935   3.058  12.104
95738SOL    HW289112   6.942   3.182  12.191
95739SOL     OW89113   8.712   7.001  10.546
95739SOL    HW189114   8.805   6.997  10.564
95739SOL    HW289115   8.678   6.916  10.573
95740SOL     OW89116  12.688  10.440  10.239
95740SOL    HW189117  12.716  10.369  10.182
95740SOL    HW289118  12.745  10.433  10.316
95741SOL     OW89119   2.550   2.722  12.429
95741SOL    HW189120   2.623   2.689  12.481
95741SOL    HW289121   2.490   2.760  12.493
95742SOL     OW89122   7.100  12.161   2.394
95742SOL    HW189123   7.072  12.080   2.352
95742SOL    HW289124   7.116  12.136   2.485
95743SOL     OW89125   8.191  10.587   7.705
95743SOL    HW189126   8.153  10.651   7.766
95743SOL    HW289127   8.140  10.508   7.720
95744SOL     OW89128   9.987  11.682   7.024
95744SOL    HW189129   9.998  11.591   7.051
95744SOL    HW289130   9.941  11.723   7.097
95745SOL     OW89131   9.813   6.856   0.435
95745SOL    HW189132   9.747   6.847   0.366
95745SOL    HW289133   9.776   6.810   0.510
95746SOL     OW89134   6.979   9.886   5.206
95746SOL    HW189135   6.978   9.874   5.111
95746SOL    HW289136   6.911   9.826   5.238
95747SOL     OW89137   2.287  12.433  10.124
95747SOL    HW189138   2.228  12.383  10.067
95747SOL    HW289139   2.374  12.403  10.100
95748SOL     OW89140   0.013  12.712   8.231
95748SOL    HW189141   0.108  12.710   8.221
95748SOL    HW289142  14.881  12.743   8.321
95749SOL     OW89143  13.719   6.084   5.559
95749SOL    HW189144  13.724   6.019   5.489
95749SOL    HW289145  13.626   6.085   5.584
95750SOL     OW89146  12.885  11.888  13.417
95750SOL    HW189147  12.947  11.914  13.350
95750SOL    HW289148  12.939  11.856  13.489
95751SOL     OW89149   6.199   7.654  12.770
95751SOL    HW189150   6.157   7.729  12.812
95751SOL    HW289151   6.135   7.622  12.707
95752SOL     OW89152  14.236  10.850   2.301
95752SOL    HW189153  14.236  10.902   2.381
95752SOL    HW289154  14.289  10.900   2.239
95753SOL     OW89155  11.715   4.052  11.574
95753SOL    HW189156  11.797   4.100  11.568
95753SOL    HW289157  11.733   3.968  11.531
95754SOL     OW89158   2.663   7.671  10.903
95754SOL    HW189159   2.703   7.605  10.846
95754SOL    HW289160   2.680   7.639  10.992
95755SOL     OW89161   6.770   4.638   0.686
95755SOL    HW189162   6.810   4.629   0.599
95755SOL    HW289163   6.844   4.637   0.747
95756SOL     OW89164   1.113   3.067  12.912
95756SOL    HW189165   1.129   3.099  13.001
95756SOL    HW289166   1.025   3.029  12.916
95757SOL     OW89167   5.083   4.020  13.320
95757SOL    HW189168   5.166   4.013  13.271
95757SOL    HW289169   5.110   4.040  13.409
95758SOL     OW89170   9.440   3.878   2.756
95758SOL    HW189171   9.413   3.948   2.695
95758SOL    HW289172   9.374   3.880   2.825
95759SOL     OW89173   2.742  13.716  11.083
95759SOL    HW189174   2.647  13.721  11.096
95759SOL    HW289175   2.759  13.624  11.064
95760SOL     OW89176   8.023   5.866  10.924
95760SOL    HW189177   8.091   5.870  10.992
95760SOL    HW289178   8.044   5.937  10.865
95761SOL     OW89179   6.266  13.330  12.276
95761SOL    HW189180   6.203  13.348  12.206
95761SOL    HW289181   6.330  13.270  12.235
95762SOL     OW89182   9.669   5.818  10.408
95762SOL    HW189183   9.702   5.907  10.397
95762SOL    HW289184   9.574   5.828  10.408
95763SOL     OW89185   0.628   8.681   1.806
95763SOL    HW189186   0.701   8.626   1.779
95763SOL    HW289187   0.550   8.635   1.774
95764SOL     OW89188  11.520   3.426  12.121
95764SOL    HW189189  11.580   3.461  12.187
95764SOL    HW289190  11.474   3.503  12.087
95765SOL     OW89191   1.919   3.181   1.964
95765SOL    HW189192   1.840   3.135   1.935
95765SOL    HW289193   1.888   3.267   1.991
95766SOL     OW89194   4.948   6.812   7.887
95766SOL    HW189195   4.947   6.843   7.978
95766SOL    HW289196   5.005   6.875   7.842
95767SOL     OW89197   4.770  12.986  13.583
95767SOL    HW189198   4.824  13.012  13.508
95767SOL    HW289199   4.817  12.911  13.621
95768SOL     OW89200   7.855   4.824   0.178
95768SOL    HW189201   7.928   4.883   0.163
95768SOL    HW289202   7.784   4.881   0.207
95769SOL     OW89203   3.114  14.210   4.941
95769SOL    HW189204   3.185  14.173   4.992
95769SOL    HW289205   3.155  14.279   4.889
95770SOL     OW89206   1.466   6.742   0.425
95770SOL    HW189207   1.409   6.815   0.451
95770SOL    HW289208   1.410   6.683   0.376
95771SOL     OW89209   8.568   8.595   8.319
95771SOL    HW189210   8.568   8.691   8.319
95771SOL    HW289211   8.525   8.571   8.401
95772SOL     OW89212  12.270   3.951   5.833
95772SOL    HW189213  12.194   4.010   5.833
95772SOL    HW289214  12.313   3.969   5.750
95773SOL     OW89215   4.754   0.355  14.185
95773SOL    HW189216   4.841   0.316  14.175
95773SOL    HW289217   4.768   0.449  14.171
95774SOL     OW89218  12.092   6.401  12.718
95774SOL    HW189219  12.140   6.477  12.686
95774SOL    HW289220  12.142   6.370  12.793
95775SOL     OW89221  11.278   2.402  10.932
95775SOL    HW189222  11.251   2.484  10.890
95775SOL    HW289223  11.373   2.399  10.920
95776SOL     OW89224  12.225   5.644  14.808
95776SOL    HW189225  12.176   5.619  14.730
95776SOL    HW289226  12.174   5.715  14.847
95777SOL     OW89227  12.069   2.647   9.718
95777SOL    HW189228  12.067   2.555   9.690
95777SOL    HW289229  12.071   2.642   9.814
95778SOL     OW89230   2.081   2.084   3.814
95778SOL    HW189231   2.166   2.082   3.857
95778SOL    HW289232   2.079   2.169   3.769
95779SOL     OW89233   8.905   7.279  12.754
95779SOL    HW189234   8.857   7.207  12.712
95779SOL    HW289235   8.892   7.354  12.696
95780SOL     OW89236   9.054   3.216   1.295
95780SOL    HW189237   9.012   3.131   1.282
95780SOL    HW289238   9.123   3.199   1.358
95781SOL     OW89239   0.516   7.722  10.767
95781SOL    HW189240   0.563   7.717  10.684
95781SOL    HW289241   0.537   7.639  10.812
95782SOL     OW89242   6.234  13.727  13.136
95782SOL    HW189243   6.304  13.706  13.199
95782SOL    HW289244   6.280  13.740  13.053
95783SOL     OW89245   0.421  11.967   1.192
95783SOL    HW189246   0.420  11.910   1.115
95783SOL    HW289247   0.514  11.980   1.211
95784SOL     OW89248   7.022  12.626   5.501
95784SOL    HW189249   6.957  12.671   5.555
95784SOL    HW289250   6.973  12.555   5.460
95785SOL     OW89251   8.142   5.011   6.642
95785SOL    HW189252   8.110   5.010   6.733
95785SOL    HW289253   8.112   5.095   6.607
95786SOL     OW89254  12.599   2.454   1.834
95786SOL    HW189255  12.626   2.486   1.920
95786SOL    HW289256  12.648   2.508   1.772
95787SOL     OW89257   3.828   9.826  11.612
95787SOL    HW189258   3.871   9.741  11.607
95787SOL    HW289259   3.736   9.805  11.626
95788SOL     OW89260   7.905  13.108  14.605
95788SOL    HW189261   7.890  13.121  14.511
95788SOL    HW289262   7.994  13.073  14.610
95789SOL     OW89263  12.326  11.843   1.812
95789SOL    HW189264  12.396  11.892   1.856
95789SOL    HW289265  12.296  11.780   1.876
95790SOL     OW89266   2.737   3.092   4.574
95790SOL    HW189267   2.722   3.130   4.488
95790SOL    HW289268   2.668   3.129   4.629
95791SOL     OW89269  14.084   5.558   2.261
95791SOL    HW189270  14.004   5.524   2.220
95791SOL    HW289271  14.155   5.520   2.210
95792SOL     OW89272   1.888   6.388  10.579
95792SOL    HW189273   1.932   6.462  10.620
95792SOL    HW289274   1.905   6.314  10.638
95793SOL     OW89275   5.739  14.594  10.995
95793SOL    HW189276   5.710  14.676  10.956
95793SOL    HW289277   5.824  14.614  11.034
95794SOL     OW89278   1.086   8.360   4.295
95794SOL    HW189279   1.091   8.345   4.389
95794SOL    HW289280   1.171   8.395   4.271
95795SOL     OW89281   9.131  13.058  13.599
95795SOL    HW189282   9.214  13.093  13.633
95795SOL    HW289283   9.103  12.996  13.666
95796SOL     OW89284  13.775  12.711   2.898
95796SOL    HW189285  13.856  12.700   2.948
95796SOL    HW289286  13.708  12.725   2.964
95797SOL     OW89287  12.793   3.103  13.009
95797SOL    HW189288  12.835   3.057  12.935
95797SOL    HW289289  12.757   3.183  12.970
95798SOL     OW89290  12.100   8.306   0.184
95798SOL    HW189291  12.126   8.387   0.229
95798SOL    HW289292  12.142   8.236   0.234
95799SOL     OW89293   0.778   9.335   5.211
95799SOL    HW189294   0.807   9.301   5.126
95799SOL    HW289295   0.768   9.429   5.197
95800SOL     OW89296  13.535  11.591  13.593
95800SOL    HW189297  13.614  11.556  13.551
95800SOL    HW289298  13.567  11.654  13.658
95801SOL     OW89299  11.998  10.030   0.377
95801SOL    HW189300  12.013  10.079   0.296
95801SOL    HW289301  11.917   9.981   0.361
95802SOL     OW89302   6.434   1.004  11.046
95802SOL    HW189303   6.505   0.993  10.983
95802SOL    HW289304   6.359   0.959  11.007
95803SOL     OW89305   7.799  14.450  13.933
95803SOL    HW189306   7.791  14.365  13.890
95803SOL    HW289307   7.734  14.505  13.890
95804SOL     OW89308  10.270   6.500  12.990
95804SOL    HW189309  10.325   6.553  13.049
95804SOL    HW289310  10.234   6.432  13.047
95805SOL     OW89311  12.380   4.144   0.979
95805SOL    HW189312  12.324   4.127   0.904
95805SOL    HW289313  12.329   4.112   1.054
95806SOL     OW89314   4.968   5.971  12.604
95806SOL    HW189315   4.968   5.882  12.639
95806SOL    HW289316   4.997   5.961  12.513
95807SOL     OW89317   5.801   3.054  10.669
95807SOL    HW189318   5.851   2.973  10.657
95807SOL    HW289319   5.758   3.042  10.754
95808SOL     OW89320  11.279   0.871   9.724
95808SOL    HW189321  11.271   0.915   9.639
95808SOL    HW289322  11.341   0.925   9.772
95809SOL     OW89323   3.546   8.289   5.235
95809SOL    HW189324   3.610   8.360   5.246
95809SOL    HW289325   3.492   8.292   5.314
95810SOL     OW89326   1.275   4.135   6.136
95810SOL    HW189327   1.182   4.145   6.116
95810SOL    HW289328   1.293   4.204   6.200
95811SOL     OW89329   3.988   3.904   6.353
95811SOL    HW189330   3.986   3.889   6.448
95811SOL    HW289331   4.076   3.876   6.327
95812SOL     OW89332  13.610   0.653  12.823
95812SOL    HW189333  13.540   0.664  12.758
95812SOL    HW289334  13.689   0.680  12.778
95813SOL     OW89335   7.883  13.690   6.567
95813SOL    HW189336   7.903  13.604   6.530
95813SOL    HW289337   7.820  13.728   6.506
95814SOL     OW89338   9.676  10.966   8.622
95814SOL    HW189339   9.736  10.963   8.696
95814SOL    HW289340   9.641  11.055   8.623
95815SOL     OW89341  11.351  13.127   7.056
95815SOL    HW189342  11.335  13.218   7.032
95815SOL    HW289343  11.280  13.078   7.015
95816SOL     OW89344   9.075   6.749   5.662
95816SOL    HW189345   9.148   6.811   5.663
95816SOL    HW289346   9.075   6.711   5.750
95817SOL     OW89347   9.140  10.974   1.267
95817SOL    HW189348   9.092  11.049   1.231
95817SOL    HW289349   9.160  10.919   1.192
95818SOL     OW89350   3.449   0.693   6.952
95818SOL    HW189351   3.464   0.758   7.021
95818SOL    HW289352   3.412   0.744   6.880
95819SOL     OW89353   9.629   5.679  10.135
95819SOL    HW189354   9.631   5.709  10.226
95819SOL    HW289355   9.559   5.730  10.094
95820SOL     OW89356  12.769   9.655  10.447
95820SOL    HW189357  12.682   9.662  10.485
95820SOL    HW289358  12.780   9.562  10.429
95821SOL     OW89359  14.110   5.475   0.487
95821SOL    HW189360  14.132   5.388   0.454
95821SOL    HW289361  14.084   5.524   0.409
95822SOL     OW89362   0.117  12.529   0.997
95822SOL    HW189363   0.097  12.508   1.089
95822SOL    HW289364   0.103  12.447   0.950
95823SOL     OW89365  12.639   8.977   1.604
95823SOL    HW189366  12.700   8.925   1.552
95823SOL    HW289367  12.686   9.057   1.625
95824SOL     OW89368  11.593   6.297  13.901
95824SOL    HW189369  11.511   6.318  13.946
95824SOL    HW289370  11.622   6.379  13.863
95825SOL     OW89371   0.962   4.916   8.854
95825SOL    HW189372   0.948   4.827   8.888
95825SOL    HW289373   1.053   4.914   8.822
95826SOL     OW89374   4.500   2.581   1.326
95826SOL    HW189375   4.528   2.588   1.234
95826SOL    HW289376   4.417   2.533   1.322
95827SOL     OW89377   8.541   3.184   7.575
95827SOL    HW189378   8.623   3.134   7.579
95827SOL    HW289379   8.537   3.216   7.485
95828SOL     OW89380   6.374   0.545   0.882
95828SOL    HW189381   6.362   0.503   0.797
95828SOL    HW289382   6.467   0.568   0.885
95829SOL     OW89383   7.620  13.281   8.682
95829SOL    HW189384   7.528  13.253   8.691
95829SOL    HW289385   7.615  13.376   8.668
95830SOL     OW89386  14.224   5.806   0.505
95830SOL    HW189387  14.249   5.874   0.442
95830SOL    HW289388  14.250   5.724   0.462
95831SOL     OW89389  11.379   8.005  11.805
95831SOL    HW189390  11.294   7.960  11.810
95831SOL    HW289391  11.364   8.090  11.845
95832SOL     OW89392   4.097   5.851  12.981
95832SOL    HW189393   4.027   5.787  12.998
95832SOL    HW289394   4.124   5.881  13.068
95833SOL     OW89395  14.792   1.872   8.328
95833SOL    HW189396  14.789   1.935   8.400
95833SOL    HW289397  14.711   1.822   8.336
95834SOL     OW89398  13.874  13.380  14.402
95834SOL    HW189399  13.864  13.344  14.314
95834SOL    HW289400  13.785  13.407  14.427
95835SOL     OW89401   1.573   7.499  11.983
95835SOL    HW189402   1.608   7.564  11.921
95835SOL    HW289403   1.589   7.415  11.941
95836SOL     OW89404   0.501   6.744  12.236
95836SOL    HW189405   0.457   6.752  12.321
95836SOL    HW289406   0.431   6.723  12.174
95837SOL     OW89407   1.582   5.547  11.539
95837SOL    HW189408   1.579   5.642  11.555
95837SOL    HW289409   1.672   5.523  11.563
95838SOL     OW89410   1.861   3.538   8.818
95838SOL    HW189411   1.950   3.567   8.838
95838SOL    HW289412   1.845   3.570   8.729
95839SOL     OW89413   3.008   2.193  13.981
95839SOL    HW189414   3.041   2.277  13.949
95839SOL    HW289415   2.914   2.197  13.964
95840SOL     OW89416   5.550   2.947   4.630
95840SOL    HW189417   5.539   2.855   4.652
95840SOL    HW289418   5.553   2.992   4.715
95841SOL     OW89419  13.979   0.769  12.702
95841SOL    HW189420  13.946   0.729  12.783
95841SOL    HW289421  13.999   0.859  12.727
95842SOL     OW89422  14.509   9.490   3.344
95842SOL    HW189423  14.416   9.512   3.354
95842SOL    HW289424  14.549   9.519   3.427
95843SOL     OW89425  11.359  11.025   7.106
95843SOL    HW189426  11.337  11.099   7.163
95843SOL    HW289427  11.453  11.013   7.118
95844SOL     OW89428  11.892   6.204  10.245
95844SOL    HW189429  11.924   6.174  10.331
95844SOL    HW289430  11.869   6.124  10.199
95845SOL     OW89431   6.371  13.148   7.209
95845SOL    HW189432   6.388  13.095   7.131
95845SOL    HW289433   6.454  13.145   7.257
95846SOL     OW89434   4.069   5.848   1.678
95846SOL    HW189435   4.099   5.765   1.639
95846SOL    HW289436   3.975   5.848   1.663
95847SOL     OW89437   0.970   6.326   0.707
95847SOL    HW189438   0.972   6.254   0.770
95847SOL    HW289439   0.995   6.403   0.758
95848SOL     OW89440   3.295   8.128  12.286
95848SOL    HW189441   3.384   8.092  12.282
95848SOL    HW289442   3.238   8.055  12.262
95849SOL     OW89443   6.420   0.534  12.259
95849SOL    HW189444   6.433   0.593  12.184
95849SOL    HW289445   6.356   0.470  12.228
95850SOL     OW89446  13.402   3.589  11.528
95850SOL    HW189447  13.444   3.591  11.443
95850SOL    HW289448  13.320   3.637  11.516
95851SOL     OW89449   7.606  12.072   6.098
95851SOL    HW189450   7.681  12.109   6.146
95851SOL    HW289451   7.597  11.984   6.132
95852SOL     OW89452   3.344  13.222   3.591
95852SOL    HW189453   3.382  13.147   3.545
95852SOL    HW289454   3.249  13.212   3.578
95853SOL     OW89455   2.684  12.347  13.928
95853SOL    HW189456   2.726  12.342  13.842
95853SOL    HW289457   2.637  12.265  13.937
95854SOL     OW89458   3.589  12.157   8.773
95854SOL    HW189459   3.595  12.065   8.800
95854SOL    HW289460   3.496  12.170   8.752
95855SOL     OW89461   7.227   0.826   6.788
95855SOL    HW189462   7.291   0.895   6.804
95855SOL    HW289463   7.167   0.863   6.724
95856SOL     OW89464   8.863   6.365   0.836
95856SOL    HW189465   8.872   6.278   0.797
95856SOL    HW289466   8.952   6.401   0.836
95857SOL     OW89467  13.515   6.909   6.792
95857SOL    HW189468  13.497   6.983   6.734
95857SOL    HW289469  13.610   6.911   6.804
95858SOL     OW89470   8.061   0.277   1.181
95858SOL    HW189471   7.979   0.269   1.230
95858SOL    HW289472   8.098   0.189   1.181
95859SOL     OW89473   7.579   6.089   1.593
95859SOL    HW189474   7.656   6.032   1.592
95859SOL    HW289475   7.539   6.074   1.678
95860SOL     OW89476   6.153   6.016   9.193
95860SOL    HW189477   6.059   5.996   9.194
95860SOL    HW289478   6.180   6.008   9.285
95861SOL     OW89479   3.104  11.566   1.564
95861SOL    HW189480   3.186  11.516   1.560
95861SOL    HW289481   3.119  11.629   1.634
95862SOL     OW89482   6.982  10.859  12.826
95862SOL    HW189483   7.052  10.855  12.761
95862SOL    HW289484   6.909  10.813  12.785
95863SOL     OW89485   1.654  10.990  12.665
95863SOL    HW189486   1.689  10.984  12.576
95863SOL    HW289487   1.570  10.944  12.661
95864SOL     OW89488   6.573  11.366   2.647
95864SOL    HW189489   6.643  11.315   2.687
95864SOL    HW289490   6.527  11.304   2.591
95865SOL     OW89491   2.864   1.875  10.197
95865SOL    HW189492   2.950   1.836  10.181
95865SOL    HW289493   2.807   1.836  10.130
95866SOL     OW89494  11.129   5.278  10.834
95866SOL    HW189495  11.075   5.345  10.875
95866SOL    HW289496  11.215   5.319  10.824
95867SOL     OW89497   8.684   5.506   9.192
95867SOL    HW189498   8.740   5.469   9.124
95867SOL    HW289499   8.641   5.580   9.149
95868SOL     OW89500  10.560   5.766  14.718
95868SOL    HW189501  10.587   5.826  14.787
95868SOL    HW289502  10.587   5.680  14.749
95869SOL     OW89503  11.355   4.560   5.733
95869SOL    HW189504  11.409   4.631   5.698
95869SOL    HW289505  11.300   4.602   5.799
95870SOL     OW89506   5.809   9.078   4.578
95870SOL    HW189507   5.770   9.086   4.491
95870SOL    HW289508   5.815   8.984   4.594
95871SOL     OW89509  12.740   4.404   8.494
95871SOL    HW189510  12.713   4.462   8.565
95871SOL    HW289511  12.707   4.445   8.415
95872SOL     OW89512   1.362  14.346   8.088
95872SOL    HW189513   1.283  14.292   8.084
95872SOL    HW289514   1.333  14.427   8.130
95873SOL     OW89515  11.614   1.152  12.952
95873SOL    HW189516  11.679   1.145  13.022
95873SOL    HW289517  11.555   1.221  12.979
95874SOL     OW89518  12.936  11.034   3.385
95874SOL    HW189519  12.977  10.948   3.376
95874SOL    HW289520  12.937  11.069   3.296
95875SOL     OW89521  13.409   0.061  10.758
95875SOL    HW189522  13.439   0.122  10.691
95875SOL    HW289523  13.415   0.110  10.840
95876SOL     OW89524  13.844   3.755   1.010
95876SOL    HW189525  13.775   3.820   0.994
95876SOL    HW289526  13.893   3.790   1.084
95877SOL     OW89527   5.336  12.049  12.010
95877SOL    HW189528   5.264  11.987  12.016
95877SOL    HW289529   5.403  12.014  12.068
95878SOL     OW89530   0.211   9.250   2.021
95878SOL    HW189531   0.122   9.243   2.056
95878SOL    HW289532   0.198   9.275   1.929
95879SOL     OW89533  14.827  13.886  14.432
95879SOL    HW189534  14.780  13.897  14.349
95879SOL    HW289535   0.012  13.821  14.413
95880SOL     OW89536   1.094   7.810   6.773
95880SOL    HW189537   1.125   7.891   6.731
95880SOL    HW289538   1.173   7.761   6.792
95881SOL     OW89539   7.427   7.818  13.690
95881SOL    HW189540   7.489   7.762  13.738
95881SOL    HW289541   7.372   7.756  13.642
95882SOL     OW89542   6.469  13.545  14.222
95882SOL    HW189543   6.524  13.492  14.279
95882SOL    HW289544   6.487  13.512  14.134
95883SOL     OW89545   6.307   7.394  14.504
95883SOL    HW189546   6.229   7.403  14.560
95883SOL    HW289547   6.281   7.332  14.436
95884SOL     OW89548  12.022   0.944   7.304
95884SOL    HW189549  11.965   1.010   7.264
95884SOL    HW289550  12.062   0.989   7.379
95885SOL     OW89551   2.797   1.999  12.109
95885SOL    HW189552   2.853   2.076  12.093
95885SOL    HW289553   2.712   2.024  12.073
95886SOL     OW89554   8.518   8.926   7.662
95886SOL    HW189555   8.429   8.892   7.652
95886SOL    HW289556   8.512   9.017   7.633
95887SOL     OW89557  13.331   8.356   6.767
95887SOL    HW189558  13.335   8.452   6.770
95887SOL    HW289559  13.310   8.336   6.676
95888SOL     OW89560   2.627   0.708  13.931
95888SOL    HW189561   2.603   0.644  13.865
95888SOL    HW289562   2.544   0.750  13.955
95889SOL     OW89563   9.683   4.389  12.880
95889SOL    HW189564   9.702   4.472  12.922
95889SOL    HW289565   9.757   4.333  12.903
95890SOL     OW89566   6.269   8.556   3.362
95890SOL    HW189567   6.249   8.646   3.336
95890SOL    HW289568   6.354   8.561   3.405
95891SOL     OW89569   2.093   9.645   1.129
95891SOL    HW189570   2.176   9.610   1.097
95891SOL    HW289571   2.075   9.720   1.072
95892SOL     OW89572   4.581  12.912  13.871
95892SOL    HW189573   4.590  12.986  13.812
95892SOL    HW289574   4.541  12.948  13.950
95893SOL     OW89575   2.342  14.810  12.824
95893SOL    HW189576   2.258  14.833  12.864
95893SOL    HW289577   2.324  14.732  12.773
95894SOL     OW89578  11.925   5.527   7.240
95894SOL    HW189579  11.980   5.601   7.267
95894SOL    HW289580  11.898   5.548   7.151
95895SOL     OW89581   6.288  11.987  12.498
95895SOL    HW189582   6.279  11.952  12.586
95895SOL    HW289583   6.336  11.919  12.450
95896SOL     OW89584   1.920  14.539  11.509
95896SOL    HW189585   1.954  14.452  11.486
95896SOL    HW289586   1.834  14.542  11.467
95897SOL     OW89587   9.820  14.652   8.404
95897SOL    HW189588   9.799  14.604   8.484
95897SOL    HW289589   9.793  14.742   8.422
95898SOL     OW89590   9.255  10.978   2.200
95898SOL    HW189591   9.194  10.911   2.167
95898SOL    HW289592   9.316  10.992   2.128
95899SOL     OW89593   7.378   0.751   1.648
95899SOL    HW189594   7.375   0.660   1.617
95899SOL    HW289595   7.411   0.801   1.574
95900SOL     OW89596   0.189  12.339   6.780
95900SOL    HW189597   0.134  12.398   6.833
95900SOL    HW289598   0.216  12.392   6.705
95901SOL     OW89599   0.938   9.625   8.953
95901SOL    HW189600   0.999   9.608   8.882
95901SOL    HW289601   0.896   9.708   8.930
95902SOL     OW89602   4.457   0.799  13.171
95902SOL    HW189603   4.510   0.839  13.103
95902SOL    HW289604   4.490   0.709  13.177
95903SOL     OW89605   6.742   2.734   0.661
95903SOL    HW189606   6.670   2.711   0.602
95903SOL    HW289607   6.768   2.822   0.633
95904SOL     OW89608   0.919   8.053  12.374
95904SOL    HW189609   0.867   8.119  12.328
95904SOL    HW289610   0.988   8.029  12.312
95905SOL     OW89611   9.722  11.918   9.026
95905SOL    HW189612   9.671  11.900   9.104
95905SOL    HW289613   9.670  11.883   8.954
95906SOL     OW89614   2.238   4.293   6.679
95906SOL    HW189615   2.300   4.231   6.640
95906SOL    HW289616   2.285   4.332   6.752
95907SOL     OW89617   0.189   0.790  10.547
95907SOL    HW189618   0.193   0.694  10.550
95907SOL    HW289619   0.095   0.809  10.537
95908SOL     OW89620  14.604   5.390  12.498
95908SOL    HW189621  14.652   5.312  12.469
95908SOL    HW289622  14.645   5.414  12.581
95909SOL     OW89623  11.786  13.022  12.436
95909SOL    HW189624  11.818  13.109  12.410
95909SOL    HW289625  11.725  12.997  12.367
95910SOL     OW89626   4.792  14.252   4.653
95910SOL    HW189627   4.726  14.190   4.682
95910SOL    HW289628   4.814  14.303   4.731
95911SOL     OW89629   2.787   3.267  14.247
95911SOL    HW189630   2.700   3.274  14.285
95911SOL    HW289631   2.787   3.329  14.174
95912SOL     OW89632  10.733   7.735   4.958
95912SOL    HW189633  10.703   7.724   5.048
95912SOL    HW289634  10.677   7.803   4.921
95913SOL     OW89635   9.375   6.190  12.857
95913SOL    HW189636   9.300   6.249  12.868
95913SOL    HW289637   9.362   6.151  12.770
95914SOL     OW89638   2.101   3.257   4.919
95914SOL    HW189639   2.186   3.302   4.924
95914SOL    HW289640   2.065   3.283   4.834
95915SOL     OW89641  11.859  10.881  11.036
95915SOL    HW189642  11.929  10.889  11.100
95915SOL    HW289643  11.810  10.804  11.064
95916SOL     OW89644   9.262  10.549   6.909
95916SOL    HW189645   9.187  10.489   6.904
95916SOL    HW289646   9.337  10.495   6.885
95917SOL     OW89647   5.710   7.247   2.809
95917SOL    HW189648   5.672   7.161   2.790
95917SOL    HW289649   5.796   7.245   2.768
95918SOL     OW89650   1.777   8.621   6.825
95918SOL    HW189651   1.837   8.693   6.843
95918SOL    HW289652   1.706   8.660   6.775
95919SOL     OW89653  11.570   5.966   8.691
95919SOL    HW189654  11.494   5.925   8.651
95919SOL    HW289655  11.548   6.059   8.694
95920SOL     OW89656   9.652   4.787   0.780
95920SOL    HW189657   9.632   4.760   0.690
95920SOL    HW289658   9.572   4.768   0.829
95921SOL     OW89659   6.677   1.757   5.275
95921SOL    HW189660   6.638   1.839   5.247
95921SOL    HW289661   6.625   1.729   5.350
95922SOL     OW89662  11.711   9.652   0.253
95922SOL    HW189663  11.725   9.566   0.213
95922SOL    HW289664  11.736   9.641   0.345
95923SOL     OW89665   2.723  14.578  13.664
95923SOL    HW189666   2.629  14.576  13.683
95923SOL    HW289667   2.737  14.657  13.612
95924SOL     OW89668  11.783  11.641   8.310
95924SOL    HW189669  11.770  11.655   8.404
95924SOL    HW289670  11.698  11.661   8.271
95925SOL     OW89671   1.890   9.515   0.702
95925SOL    HW189672   1.882   9.448   0.634
95925SOL    HW289673   1.973   9.496   0.745
95926SOL     OW89674   5.374   1.282   7.627
95926SOL    HW189675   5.289   1.266   7.587
95926SOL    HW289676   5.390   1.204   7.681
95927SOL     OW89677   5.890  11.510   2.564
95927SOL    HW189678   5.845  11.480   2.643
95927SOL    HW289679   5.857  11.454   2.495
95928SOL     OW89680   6.240   3.771   9.888
95928SOL    HW189681   6.209   3.844   9.834
95928SOL    HW289682   6.335   3.772   9.876
95929SOL     OW89683  13.805  12.653  14.469
95929SOL    HW189684  13.886  12.644  14.418
95929SOL    HW289685  13.735  12.642  14.405
95930SOL     OW89686   8.426   1.576   8.143
95930SOL    HW189687   8.366   1.617   8.205
95930SOL    HW289688   8.370   1.539   8.076
95931SOL     OW89689   6.272   9.290   0.627
95931SOL    HW189690   6.212   9.216   0.612
95931SOL    HW289691   6.215   9.364   0.646
95932SOL     OW89692   3.017   0.928   4.987
95932SOL    HW189693   3.038   0.956   4.897
95932SOL    HW289694   2.940   0.980   5.011
95933SOL     OW89695   1.291   0.226  10.234
95933SOL    HW189696   1.377   0.264  10.217
95933SOL    HW289697   1.307   0.132  10.240
95934SOL     OW89698   6.372   0.579   1.361
95934SOL    HW189699   6.429   0.535   1.423
95934SOL    HW289700   6.332   0.508   1.310
95935SOL     OW89701  11.836  13.864   0.783
95935SOL    HW189702  11.837  13.813   0.864
95935SOL    HW289703  11.888  13.942   0.803
95936SOL     OW89704   8.916   6.008  10.201
95936SOL    HW189705   8.833   5.968  10.175
95936SOL    HW289706   8.946   6.055  10.124
95937SOL     OW89707   4.157  14.440  13.118
95937SOL    HW189708   4.104  14.519  13.127
95937SOL    HW289709   4.232  14.466  13.065
95938SOL     OW89710  11.843  11.857  12.488
95938SOL    HW189711  11.812  11.884  12.575
95938SOL    HW289712  11.766  11.818  12.446
95939SOL     OW89713   9.485  13.891   8.990
95939SOL    HW189714   9.552  13.958   8.991
95939SOL    HW289715   9.440  13.903   8.906
95940SOL     OW89716   5.383  12.055   7.526
95940SOL    HW189717   5.453  12.119   7.539
95940SOL    HW289718   5.304  12.108   7.512
95941SOL     OW89719  13.964   9.715   4.112
95941SOL    HW189720  14.041   9.770   4.104
95941SOL    HW289721  13.906   9.744   4.042
95942SOL     OW89722   7.305   1.672   4.454
95942SOL    HW189723   7.339   1.585   4.433
95942SOL    HW289724   7.311   1.677   4.549
95943SOL     OW89725   3.820  12.878  14.547
95943SOL    HW189726   3.782  12.826  14.475
95943SOL    HW289727   3.867  12.814  14.600
95944SOL     OW89728  10.570  13.820   3.534
95944SOL    HW189729  10.652  13.826   3.485
95944SOL    HW289730  10.513  13.767   3.479
95945SOL     OW89731   1.631   1.695  10.073
95945SOL    HW189732   1.548   1.741  10.056
95945SOL    HW289733   1.647   1.644   9.994
95946SOL     OW89734   8.648   5.184  10.216
95946SOL    HW189735   8.694   5.205  10.297
95946SOL    HW289736   8.555   5.189  10.240
95947SOL     OW89737  13.797   0.367   8.828
95947SOL    HW189738  13.742   0.324   8.893
95947SOL    HW289739  13.860   0.300   8.802
95948SOL     OW89740   4.183  13.833   7.519
95948SOL    HW189741   4.098  13.822   7.476
95948SOL    HW289742   4.184  13.767   7.587
95949SOL     OW89743  13.996   1.316   4.985
95949SOL    HW189744  13.974   1.223   4.984
95949SOL    HW289745  14.018   1.336   4.894
95950SOL     OW89746   3.351   2.209   9.003
95950SOL    HW189747   3.274   2.189   9.058
95950SOL    HW289748   3.425   2.207   9.064
95951SOL     OW89749   9.125  11.886  13.206
95951SOL    HW189750   9.213  11.921  13.219
95951SOL    HW289751   9.135  11.824  13.134
95952SOL     OW89752  11.029   9.460   6.103
95952SOL    HW189753  11.089   9.438   6.174
95952SOL    HW289754  11.051   9.550   6.080
95953SOL     OW89755   5.996   2.775   8.423
95953SOL    HW189756   6.070   2.723   8.455
95953SOL    HW289757   6.008   2.777   8.328
95954SOL     OW89758  11.201  13.442   3.060
95954SOL    HW189759  11.214  13.414   2.969
95954SOL    HW289760  11.116  13.405   3.084
95955SOL     OW89761  10.210   6.635   8.765
95955SOL    HW189762  10.235   6.574   8.834
95955SOL    HW289763  10.155   6.584   8.706
95956SOL     OW89764   5.048   0.607  11.981
95956SOL    HW189765   4.972   0.553  11.959
95956SOL    HW289766   5.074   0.648  11.899
95957SOL     OW89767   1.810  10.599   9.164
95957SOL    HW189768   1.721  10.634   9.160
95957SOL    HW289769   1.852  10.632   9.085
95958SOL     OW89770   3.432   7.170   8.570
95958SOL    HW189771   3.483   7.233   8.620
95958SOL    HW289772   3.450   7.086   8.611
95959SOL     OW89773   7.126   6.748  14.615
95959SOL    HW189774   7.163   6.694  14.685
95959SOL    HW289775   7.044   6.705  14.593
95960SOL     OW89776   1.838  12.963  12.148
95960SOL    HW189777   1.752  12.967  12.108
95960SOL    HW289778   1.832  13.023  12.223
95961SOL     OW89779  11.469   3.329   9.711
95961SOL    HW189780  11.475   3.238   9.739
95961SOL    HW289781  11.526   3.335   9.634
95962SOL     OW89782  10.864   9.403   5.695
95962SOL    HW189783  10.944   9.421   5.744
95962SOL    HW289784  10.888   9.335   5.632
95963SOL     OW89785   8.005   4.710  14.826
95963SOL    HW189786   7.966   4.626  14.805
95963SOL    HW289787   7.998   4.761  14.745
95964SOL     OW89788  14.734   3.943   1.656
95964SOL    HW189789  14.768   3.878   1.718
95964SOL    HW289790  14.781   3.926   1.575
95965SOL     OW89791   8.421   4.578   9.053
95965SOL    HW189792   8.348   4.536   9.099
95965SOL    HW289793   8.440   4.518   8.980
95966SOL     OW89794   0.200   3.854   6.326
95966SOL    HW189795   0.110   3.827   6.345
95966SOL    HW289796   0.211   3.935   6.375
95967SOL     OW89797   0.962  13.740   1.645
95967SOL    HW189798   1.029  13.787   1.694
95967SOL    HW289799   0.933  13.669   1.703
95968SOL     OW89800  14.647   3.103  14.410
95968SOL    HW189801  14.661   3.198  14.415
95968SOL    HW289802  14.736   3.066  14.415
95969SOL     OW89803   0.471   1.018  14.648
95969SOL    HW189804   0.465   1.101  14.600
95969SOL    HW289805   0.503   1.044  14.735
95970SOL     OW89806  13.315   1.775  13.091
95970SOL    HW189807  13.259   1.702  13.067
95970SOL    HW289808  13.392   1.735  13.130
95971SOL     OW89809  11.007  14.238  14.649
95971SOL    HW189810  10.992  14.147  14.622
95971SOL    HW289811  11.039  14.282  14.570
95972SOL     OW89812   7.664  12.559   9.066
95972SOL    HW189813   7.702  12.647   9.076
95972SOL    HW289814   7.598  12.553   9.134
95973SOL     OW89815   0.655   1.608   9.513
95973SOL    HW189816   0.632   1.671   9.581
95973SOL    HW289817   0.627   1.523   9.549
95974SOL     OW89818   8.380   9.774  13.860
95974SOL    HW189819   8.447   9.705  13.855
95974SOL    HW289820   8.427   9.854  13.837
95975SOL     OW89821   2.923  14.223  11.800
95975SOL    HW189822   2.970  14.267  11.729
95975SOL    HW289823   2.961  14.135  11.802
95976SOL     OW89824   1.066   9.756   0.419
95976SOL    HW189825   1.086   9.663   0.405
95976SOL    HW289826   1.036   9.760   0.510
95977SOL     OW89827   0.221  14.766   1.426
95977SOL    HW189828   0.267  14.723   1.355
95977SOL    HW289829   0.190  14.848   1.388
95978SOL     OW89830   1.350  12.047   1.452
95978SOL    HW189831   1.346  11.960   1.412
95978SOL    HW289832   1.265  12.058   1.494
95979SOL     OW89833  11.677   3.550  13.631
95979SOL    HW189834  11.648   3.595  13.710
95979SOL    HW289835  11.631   3.465  13.634
95980SOL     OW89836   5.840   1.863  12.741
95980SOL    HW189837   5.889   1.783  12.758
95980SOL    HW289838   5.833   1.868  12.646
95981SOL     OW89839  11.955   5.532   4.641
95981SOL    HW189840  11.944   5.508   4.549
95981SOL    HW289841  11.890   5.479   4.687
95982SOL     OW89842  14.657  14.651  12.470
95982SOL    HW189843  14.591  14.637  12.538
95982SOL    HW289844  14.647  14.743  12.446
95983SOL     OW89845   5.460  13.952  14.714
95983SOL    HW189846   5.369  13.936  14.736
95983SOL    HW289847   5.459  14.035  14.666
95984SOL     OW89848   5.834   0.729   9.811
95984SOL    HW189849   5.912   0.699   9.765
95984SOL    HW289850   5.763   0.675   9.777
95985SOL     OW89851   0.626   1.190   3.221
95985SOL    HW189852   0.644   1.100   3.194
95985SOL    HW289853   0.549   1.215   3.171
95986SOL     OW89854   2.856   1.752   8.609
95986SOL    HW189855   2.786   1.817   8.605
95986SOL    HW289856   2.919   1.781   8.542
95987SOL     OW89857   5.459   4.749   2.998
95987SOL    HW189858   5.421   4.730   2.912
95987SOL    HW289859   5.488   4.663   3.030
95988SOL     OW89860   1.144  11.408  13.546
95988SOL    HW189861   1.061  11.413  13.498
95988SOL    HW289862   1.134  11.333  13.604
95989SOL     OW89863   1.496   1.306  10.580
95989SOL    HW189864   1.423   1.316  10.641
95989SOL    HW289865   1.560   1.371  10.608
95990SOL     OW89866  13.329  10.082   0.985
95990SOL    HW189867  13.277  10.157   1.014
95990SOL    HW289868  13.294  10.062   0.898
95991SOL     OW89869  11.665   0.679   4.100
95991SOL    HW189870  11.650   0.769   4.074
95991SOL    HW289871  11.676   0.682   4.194
95992SOL     OW89872   7.036   9.261   1.839
95992SOL    HW189873   7.019   9.288   1.929
95992SOL    HW289874   7.076   9.338   1.798
95993SOL     OW89875   9.625   3.816   1.393
95993SOL    HW189876   9.550   3.766   1.426
95993SOL    HW289877   9.659   3.860   1.470
95994SOL     OW89878   0.914  12.976   4.957
95994SOL    HW189879   0.947  13.047   5.012
95994SOL    HW289880   0.991  12.944   4.910
95995SOL     OW89881   6.054  11.145   2.135
95995SOL    HW189882   6.046  11.051   2.154
95995SOL    HW289883   6.066  11.186   2.221
95996SOL     OW89884  13.672   4.677   6.833
95996SOL    HW189885  13.695   4.685   6.741
95996SOL    HW289886  13.607   4.745   6.848
95997SOL     OW89887  14.146   6.732   8.765
95997SOL    HW189888  14.087   6.784   8.820
95997SOL    HW289889  14.127   6.641   8.789
95998SOL     OW89890  10.523   4.422   2.682
95998SOL    HW189891  10.498   4.491   2.744
95998SOL    HW289892  10.617   4.409   2.697
95999SOL     OW89893   0.360   3.071   0.854
95999SOL    HW189894   0.281   3.068   0.800
95999SOL    HW289895   0.387   3.163   0.852
96000SOL     OW89896   0.984   9.026   4.987
96000SOL    HW189897   0.973   9.094   4.921
96000SOL    HW289898   1.079   9.017   4.997
96001SOL     OW89899   5.709   1.062  12.829
96001SOL    HW189900   5.617   1.075  12.851
96001SOL    HW289901   5.735   0.982  12.877
96002SOL     OW89902   7.613  14.275   3.203
96002SOL    HW189903   7.597  14.216   3.129
96002SOL    HW289904   7.541  14.257   3.263
96003SOL     OW89905  10.965   4.547   8.652
96003SOL    HW189906  10.998   4.458   8.638
96003SOL    HW289907  10.878   4.534   8.690
96004SOL     OW89908  14.297  11.193  12.064
96004SOL    HW189909  14.383  11.188  12.105
96004SOL    HW289910  14.315  11.219  11.974
96005SOL     OW89911   6.370   2.549   6.780
96005SOL    HW189912   6.416   2.546   6.697
96005SOL    HW289913   6.412   2.620   6.829
96006SOL     OW89914  13.706   5.406   5.310
96006SOL    HW189915  13.741   5.459   5.239
96006SOL    HW289916  13.776   5.404   5.375
96007SOL     OW89917   8.211  12.110   4.695
96007SOL    HW189918   8.146  12.111   4.624
96007SOL    HW289919   8.271  12.182   4.672
96008SOL     OW89920  11.606   6.415   7.927
96008SOL    HW189921  11.595   6.411   7.832
96008SOL    HW289922  11.552   6.343   7.961
96009SOL     OW89923  14.186   2.259   2.379
96009SOL    HW189924  14.158   2.270   2.288
96009SOL    HW289925  14.252   2.190   2.376
96010SOL     OW89926  13.458   3.932   2.224
96010SOL    HW189927  13.485   3.848   2.186
96010SOL    HW289928  13.447   3.990   2.148
96011SOL     OW89929   5.131   9.643  12.693
96011SOL    HW189930   5.189   9.593  12.636
96011SOL    HW289931   5.068   9.579  12.726
96012SOL     OW89932  13.324   5.046  12.139
96012SOL    HW189933  13.339   5.111  12.207
96012SOL    HW289934  13.256   4.989  12.175
96013SOL     OW89935  13.970   0.859   8.877
96013SOL    HW189936  13.947   0.767   8.887
96013SOL    HW289937  13.889   0.901   8.846
96014SOL     OW89938   3.811   7.182   0.956
96014SOL    HW189939   3.900   7.167   0.924
96014SOL    HW289940   3.823   7.203   1.049
96015SOL     OW89941   2.530   2.398  11.898
96015SOL    HW189942   2.436   2.403  11.912
96015SOL    HW289943   2.551   2.476  11.847
96016SOL     OW89944   5.172   2.781   1.851
96016SOL    HW189945   5.179   2.876   1.852
96016SOL    HW289946   5.206   2.753   1.936
96017SOL     OW89947  10.119   2.977   4.513
96017SOL    HW189948  10.136   2.883   4.522
96017SOL    HW289949  10.206   3.016   4.508
96018SOL     OW89950  13.225   8.965   4.161
96018SOL    HW189951  13.298   8.970   4.223
96018SOL    HW289952  13.193   8.875   4.170
96019SOL     OW89953  14.100   4.502   5.046
96019SOL    HW189954  14.051   4.554   4.983
96019SOL    HW289955  14.189   4.497   5.010
96020SOL     OW89956   9.306   3.553   4.060
96020SOL    HW189957   9.248   3.566   3.985
96020SOL    HW289958   9.274   3.472   4.101
96021SOL     OW89959  12.083   0.908  10.950
96021SOL    HW189960  12.060   0.997  10.976
96021SOL    HW289961  12.179   0.907  10.949
96022SOL     OW89962  12.419  10.145   1.970
96022SOL    HW189963  12.485  10.205   1.936
96022SOL    HW289964  12.412  10.168   2.063
96023SOL     OW89965   4.756   2.325   1.044
96023SOL    HW189966   4.846   2.297   1.060
96023SOL    HW289967   4.743   2.311   0.950
96024SOL     OW89968   1.657  12.449   6.915
96024SOL    HW189969   1.645  12.520   6.852
96024SOL    HW289970   1.597  12.381   6.884
96025SOL     OW89971   6.302   0.720  13.598
96025SOL    HW189972   6.361   0.738  13.524
96025SOL    HW289973   6.361   0.713  13.674
96026SOL     OW89974  14.439   9.697  12.108
96026SOL    HW189975  14.483   9.613  12.102
96026SOL    HW289976  14.346   9.675  12.109
96027SOL     OW89977   6.702  10.626   5.722
96027SOL    HW189978   6.743  10.663   5.643
96027SOL    HW289979   6.644  10.696   5.753
96028SOL     OW89980   6.525   5.970  14.028
96028SOL    HW189981   6.455   6.020  14.070
96028SOL    HW289982   6.559   5.913  14.097
96029SOL     OW89983   7.520  13.133   9.099
96029SOL    HW189984   7.439  13.172   9.129
96029SOL    HW289985   7.499  13.098   9.012
96030SOL     OW89986  12.647   1.808   8.602
96030SOL    HW189987  12.729   1.850   8.578
96030SOL    HW289988  12.663   1.773   8.690
96031SOL     OW89989   0.119  14.555   4.709
96031SOL    HW189990   0.180  14.594   4.772
96031SOL    HW289991   0.049  14.619   4.700
96032SOL     OW89992   8.420   3.562  11.843
96032SOL    HW189993   8.444   3.541  11.933
96032SOL    HW289994   8.358   3.493  11.818
96033SOL     OW89995   7.234   5.985   8.400
96033SOL    HW189996   7.297   5.936   8.349
96033SOL    HW289997   7.243   5.951   8.489
96034SOL     OW89998  10.175   7.206  11.077
96034SOL    HW189999  10.082   7.224  11.066
96034SOL    HW290000  10.178   7.123  11.124
96035SOL     OW90001   1.106   2.912   6.755
96035SOL    HW190002   1.151   2.961   6.687
96035SOL    HW290003   1.092   2.825   6.717
96036SOL     OW90004  12.341  14.591  13.662
96036SOL    HW190005  12.381  14.508  13.637
96036SOL    HW290006  12.250  14.568  13.683
96037SOL     OW90007   7.324   6.748   5.126
96037SOL    HW190008   7.249   6.803   5.103
96037SOL    HW290009   7.397   6.786   5.078
96038SOL     OW90010  13.970   0.415  11.906
96038SOL    HW190011  14.040   0.474  11.876
96038SOL    HW290012  14.015   0.349  11.959
96039SOL     OW90013   9.288  12.249  12.706
96039SOL    HW190014   9.305  12.342  12.692
96039SOL    HW290015   9.339  12.205  12.637
96040SOL     OW90016  14.290   8.418   3.627
96040SOL    HW190017  14.208   8.456   3.594
96040SOL    HW290018  14.300   8.457   3.714
96041SOL     OW90019   0.372   7.425   5.590
96041SOL    HW190020   0.281   7.455   5.579
96041SOL    HW290021   0.391   7.374   5.511
96042SOL     OW90022   5.221  13.366   4.231
96042SOL    HW190023   5.220  13.385   4.137
96042SOL    HW290024   5.129  13.356   4.255
96043SOL     OW90025  11.186   4.290   7.140
96043SOL    HW190026  11.175   4.197   7.161
96043SOL    HW290027  11.167   4.336   7.222
96044SOL     OW90028  13.576   3.844  11.632
96044SOL    HW190029  13.542   3.911  11.572
96044SOL    HW290030  13.499   3.797  11.661
96045SOL     OW90031   8.161  12.834   1.393
96045SOL    HW190032   8.254  12.852   1.407
96045SOL    HW290033   8.150  12.743   1.422
96046SOL     OW90034  10.493   6.662   2.878
96046SOL    HW190035  10.414   6.714   2.859
96046SOL    HW290036  10.515   6.621   2.794
96047SOL     OW90037   2.546  11.378  12.344
96047SOL    HW190038   2.504  11.298  12.316
96047SOL    HW290039   2.501  11.402  12.425
96048SOL     OW90040   4.257  10.641   5.213
96048SOL    HW190041   4.191  10.708   5.230
96048SOL    HW290042   4.329  10.689   5.172
96049SOL     OW90043   7.851  13.178  11.746
96049SOL    HW190044   7.758  13.190  11.729
96049SOL    HW290045   7.879  13.115  11.679
96050SOL     OW90046  13.679  13.522  11.758
96050SOL    HW190047  13.694  13.467  11.681
96050SOL    HW290048  13.732  13.482  11.826
96051SOL     OW90049   7.837   1.083   4.117
96051SOL    HW190050   7.898   1.082   4.044
96051SOL    HW290051   7.864   1.010   4.173
96052SOL     OW90052   6.817  11.885   8.795
96052SOL    HW190053   6.833  11.878   8.701
96052SOL    HW290054   6.793  11.796   8.822
96053SOL     OW90055  14.238   5.357   9.758
96053SOL    HW190056  14.315   5.303   9.742
96053SOL    HW290057  14.270   5.447   9.754
96054SOL     OW90058   6.921   8.630   0.031
96054SOL    HW190059   6.996   8.571   0.032
96054SOL    HW290060   6.868   8.604   0.107
96055SOL     OW90061  13.399  12.853  10.408
96055SOL    HW190062  13.389  12.774  10.461
96055SOL    HW290063  13.402  12.924  10.472
96056SOL     OW90064  10.371   3.900   9.918
96056SOL    HW190065  10.404   3.952   9.992
96056SOL    HW290066  10.307   3.957   9.875
96057SOL     OW90067   6.878   0.353   1.681
96057SOL    HW190068   6.843   0.441   1.693
96057SOL    HW290069   6.943   0.362   1.611
96058SOL     OW90070  12.627  14.715   3.881
96058SOL    HW190071  12.551  14.657   3.879
96058SOL    HW290072  12.602  14.785   3.942
96059SOL     OW90073   9.777  12.458   5.671
96059SOL    HW190074   9.850  12.503   5.628
96059SOL    HW290075   9.712  12.446   5.601
96060SOL     OW90076   8.156   9.335   5.859
96060SOL    HW190077   8.246   9.363   5.877
96060SOL    HW290078   8.102   9.410   5.884
96061SOL     OW90079   2.819   3.547   7.260
96061SOL    HW190080   2.800   3.590   7.343
96061SOL    HW290081   2.783   3.606   7.193
96062SOL     OW90082   0.095   0.792   3.749
96062SOL    HW190083   0.098   0.709   3.797
96062SOL    HW290084   0.142   0.775   3.668
96063SOL     OW90085   9.492   6.403  14.789
96063SOL    HW190086   9.515   6.363  14.705
96063SOL    HW290087   9.419   6.462  14.769
96064SOL     OW90088  13.418   9.741   2.401
96064SOL    HW190089  13.355   9.673   2.377
96064SOL    HW290090  13.395   9.815   2.345
96065SOL     OW90091  12.231  14.385   0.173
96065SOL    HW190092  12.209  14.315   0.234
96065SOL    HW290093  12.149  14.405   0.128
96066SOL     OW90094  12.768   5.106   0.944
96066SOL    HW190095  12.766   5.201   0.937
96066SOL    HW290096  12.796   5.089   1.034
96067SOL     OW90097  11.569   5.399  13.583
96067SOL    HW190098  11.593   5.462  13.652
96067SOL    HW290099  11.549   5.319  13.631
96068SOL     OW90100   1.124  11.592   6.149
96068SOL    HW190101   1.098  11.665   6.206
96068SOL    HW290102   1.156  11.525   6.208
96069SOL     OW90103   7.995  12.498   1.778
96069SOL    HW190104   7.955  12.441   1.712
96069SOL    HW290105   8.072  12.450   1.808
96070SOL     OW90106  12.975   4.473   7.754
96070SOL    HW190107  13.070   4.472   7.750
96070SOL    HW290108  12.947   4.499   7.666
96071SOL     OW90109  10.149   4.486   4.022
96071SOL    HW190110  10.199   4.494   3.941
96071SOL    HW290111  10.147   4.574   4.058
96072SOL     OW90112  14.691   2.790   4.323
96072SOL    HW190113  14.640   2.795   4.242
96072SOL    HW290114  14.774   2.834   4.303
96073SOL     OW90115   3.731  12.940  12.798
96073SOL    HW190116   3.652  12.995  12.798
96073SOL    HW290117   3.744  12.916  12.889
96074SOL     OW90118   4.561  12.717  11.286
96074SOL    HW190119   4.577  12.722  11.191
96074SOL    HW290120   4.618  12.646  11.316
96075SOL     OW90121   6.624   9.157   4.673
96075SOL    HW190122   6.691   9.101   4.635
96075SOL    HW290123   6.596   9.110   4.752
96076SOL     OW90124   8.259   5.777  12.997
96076SOL    HW190125   8.188   5.773  13.061
96076SOL    HW290126   8.249   5.863  12.955
96077SOL     OW90127  12.988   1.692   0.768
96077SOL    HW190128  13.056   1.743   0.724
96077SOL    HW290129  12.926   1.756   0.801
96078SOL     OW90130   7.991  12.850  10.821
96078SOL    HW190131   7.987  12.895  10.736
96078SOL    HW290132   8.046  12.773  10.805
96079SOL     OW90133   2.642   0.472   7.161
96079SOL    HW190134   2.612   0.495   7.249
96079SOL    HW290135   2.738   0.475   7.166
96080SOL     OW90136   1.932   6.073  11.466
96080SOL    HW190137   1.973   6.122  11.394
96080SOL    HW290138   1.846   6.114  11.477
96081SOL     OW90139   3.406  12.648   8.489
96081SOL    HW190140   3.348  12.723   8.504
96081SOL    HW290141   3.354  12.572   8.517
96082SOL     OW90142   2.828   8.026   2.050
96082SOL    HW190143   2.849   7.982   1.968
96082SOL    HW290144   2.747   8.074   2.032
96083SOL     OW90145  11.627   7.214  14.631
96083SOL    HW190146  11.590   7.176  14.711
96083SOL    HW290147  11.689   7.280  14.662
96084SOL     OW90148  10.388  12.189  13.462
96084SOL    HW190149  10.317  12.211  13.403
96084SOL    HW290150  10.468  12.207  13.413
96085SOL     OW90151   2.388   5.734   7.364
96085SOL    HW190152   2.364   5.648   7.397
96085SOL    HW290153   2.444   5.717   7.289
96086SOL     OW90154   2.059   2.549   1.439
96086SOL    HW190155   1.993   2.604   1.397
96086SOL    HW290156   2.111   2.611   1.491
96087SOL     OW90157   6.795   2.376   6.331
96087SOL    HW190158   6.761   2.387   6.242
96087SOL    HW290159   6.727   2.327   6.377
96088SOL     OW90160   4.363   4.423   7.600
96088SOL    HW190161   4.384   4.515   7.610
96088SOL    HW290162   4.447   4.377   7.607
96089SOL     OW90163  11.940   3.440  14.155
96089SOL    HW190164  11.891   3.394  14.224
96089SOL    HW290165  11.894   3.524  14.147
96090SOL     OW90166   2.446   9.175  10.579
96090SOL    HW190167   2.375   9.111  10.590
96090SOL    HW290168   2.406   9.248  10.533
96091SOL     OW90169   5.335  10.429  13.000
96091SOL    HW190170   5.402  10.456  13.063
96091SOL    HW290171   5.292  10.354  13.041
96092SOL     OW90172   8.077   4.779   5.732
96092SOL    HW190173   8.009   4.840   5.704
96092SOL    HW290174   8.141   4.834   5.777
96093SOL     OW90175   5.874  12.308   9.611
96093SOL    HW190176   5.968  12.319   9.627
96093SOL    HW290177   5.870  12.264   9.526
96094SOL     OW90178   8.844  14.606   7.320
96094SOL    HW190179   8.809  14.619   7.409
96094SOL    HW290180   8.794  14.667   7.266
96095SOL     OW90181   8.354   2.020  14.032
96095SOL    HW190182   8.350   2.077  13.955
96095SOL    HW290183   8.442   2.033  14.067
96096SOL     OW90184   6.938   7.917  13.574
96096SOL    HW190185   7.017   7.969  13.559
96096SOL    HW290186   6.927   7.918  13.669
96097SOL     OW90187  14.228  10.966   6.195
96097SOL    HW190188  14.155  11.014   6.234
96097SOL    HW290189  14.228  10.882   6.240
96098SOL     OW90190   5.481   5.099  10.042
96098SOL    HW190191   5.562   5.089   9.991
96098SOL    HW290192   5.488   5.032  10.110
96099SOL     OW90193  11.244  14.006   2.540
96099SOL    HW190194  11.160  14.023   2.496
96099SOL    HW290195  11.219  13.958   2.620
96100SOL     OW90196  10.803  14.155  10.484
96100SOL    HW190197  10.845  14.110  10.410
96100SOL    HW290198  10.877  14.191  10.534
96101SOL     OW90199  14.197  12.080   2.174
96101SOL    HW190200  14.199  11.986   2.158
96101SOL    HW290201  14.272  12.114   2.125
96102SOL     OW90202  11.422  11.271  14.239
96102SOL    HW190203  11.445  11.274  14.332
96102SOL    HW290204  11.376  11.188  14.229
96103SOL     OW90205   7.320  11.963   2.674
96103SOL    HW190206   7.269  12.044   2.665
96103SOL    HW290207   7.411  11.993   2.672
96104SOL     OW90208  10.458   9.083   4.216
96104SOL    HW190209  10.546   9.103   4.248
96104SOL    HW290210  10.401   9.096   4.292
96105SOL     OW90211   6.452   6.179   4.265
96105SOL    HW190212   6.388   6.146   4.328
96105SOL    HW290213   6.430   6.135   4.183
96106SOL     OW90214   3.679  14.125   4.314
96106SOL    HW190215   3.609  14.143   4.377
96106SOL    HW290216   3.739  14.067   4.359
96107SOL     OW90217  12.131   6.650  12.581
96107SOL    HW190218  12.119   6.589  12.508
96107SOL    HW290219  12.203   6.707  12.553
96108SOL     OW90220   2.794   0.194   9.792
96108SOL    HW190221   2.868   0.230   9.842
96108SOL    HW290222   2.717   0.235   9.832
96109SOL     OW90223   9.568   8.722   3.997
96109SOL    HW190224   9.554   8.740   4.090
96109SOL    HW290225   9.635   8.654   3.996
96110SOL     OW90226   6.225  14.163   0.761
96110SOL    HW190227   6.298  14.154   0.822
96110SOL    HW290228   6.216  14.077   0.721
96111SOL     OW90229   4.285   6.421  10.686
96111SOL    HW190230   4.202   6.449  10.725
96111SOL    HW290231   4.317   6.351  10.743
96112SOL     OW90232   8.752   7.079   3.802
96112SOL    HW190233   8.806   7.147   3.764
96112SOL    HW290234   8.698   7.047   3.730
96113SOL     OW90235   4.199  11.526   3.330
96113SOL    HW190236   4.284  11.490   3.356
96113SOL    HW290237   4.207  11.620   3.345
96114SOL     OW90238  12.466   5.598   7.445
96114SOL    HW190239  12.397   5.626   7.384
96114SOL    HW290240  12.470   5.503   7.435
96115SOL     OW90241   3.315   9.276   8.433
96115SOL    HW190242   3.346   9.208   8.494
96115SOL    HW290243   3.250   9.231   8.379
96116SOL     OW90244  10.958   6.661   1.458
96116SOL    HW190245  10.946   6.619   1.373
96116SOL    HW290246  10.888   6.726   1.462
96117SOL     OW90247  11.853   6.372   9.120
96117SOL    HW190248  11.785   6.382   9.186
96117SOL    HW290249  11.843   6.282   9.089
96118SOL     OW90250  12.453   8.847   3.128
96118SOL    HW190251  12.515   8.851   3.055
96118SOL    HW290252  12.506   8.868   3.205
96119SOL     OW90253   7.075  14.327  11.465
96119SOL    HW190254   7.091  14.391  11.535
96119SOL    HW290255   7.108  14.245  11.500
96120SOL     OW90256  14.197  12.476  14.049
96120SOL    HW190257  14.142  12.400  14.031
96120SOL    HW290258  14.151  12.549  14.006
96121SOL     OW90259  11.336   1.603   8.738
96121SOL    HW190260  11.376   1.596   8.652
96121SOL    HW290261  11.247   1.571   8.726
96122SOL     OW90262   2.647  10.048  10.995
96122SOL    HW190263   2.599  10.023  11.074
96122SOL    HW290264   2.659   9.966  10.948
96123SOL     OW90265   5.096   3.837  10.509
96123SOL    HW190266   5.132   3.857  10.423
96123SOL    HW290267   5.120   3.745  10.524
96124SOL     OW90268   4.784  10.865   9.247
96124SOL    HW190269   4.815  10.915   9.172
96124SOL    HW290270   4.860  10.859   9.305
96125SOL     OW90271   3.766  14.489   0.427
96125SOL    HW190272   3.830  14.420   0.444
96125SOL    HW290273   3.693  14.443   0.385
96126SOL     OW90274   9.553   4.635  10.786
96126SOL    HW190275   9.562   4.725  10.817
96126SOL    HW290276   9.605   4.583  10.847
96127SOL     OW90277   5.145   1.873  11.889
96127SOL    HW190278   5.144   1.922  11.807
96127SOL    HW290279   5.148   1.940  11.957
96128SOL     OW90280   3.670   4.260  13.231
96128SOL    HW190281   3.612   4.213  13.292
96128SOL    HW290282   3.756   4.256  13.272
96129SOL     OW90283  13.486   8.880  11.317
96129SOL    HW190284  13.425   8.953  11.316
96129SOL    HW290285  13.492   8.853  11.225
96130SOL     OW90286   8.103   7.366  12.252
96130SOL    HW190287   8.181   7.311  12.253
96130SOL    HW290288   8.135   7.454  12.235
96131SOL     OW90289   7.926  13.974   6.883
96131SOL    HW190290   7.865  13.959   6.811
96131SOL    HW290291   7.914  14.066   6.905
96132SOL     OW90292   6.430   9.812   5.827
96132SOL    HW190293   6.338   9.801   5.850
96132SOL    HW290294   6.468   9.859   5.902
96133SOL     OW90295   7.626   1.146  13.801
96133SOL    HW190296   7.708   1.142  13.851
96133SOL    HW290297   7.581   1.064  13.823
96134SOL     OW90298  10.726   0.139   9.724
96134SOL    HW190299  10.678   0.129   9.806
96134SOL    HW290300  10.769   0.054   9.710
96135SOL     OW90301   0.171   1.700   8.965
96135SOL    HW190302   0.192   1.640   8.893
96135SOL    HW290303   0.193   1.787   8.931
96136SOL     OW90304  11.295   8.111   4.566
96136SOL    HW190305  11.349   8.134   4.490
96136SOL    HW290306  11.316   8.178   4.631
96137SOL     OW90307  11.029   7.789   4.318
96137SOL    HW190308  11.072   7.828   4.393
96137SOL    HW290309  11.082   7.815   4.243
96138SOL     OW90310   7.338  10.385  11.341
96138SOL    HW190311   7.348  10.365  11.248
96138SOL    HW290312   7.295  10.308  11.378
96139SOL     OW90313   9.639   3.068   9.138
96139SOL    HW190314   9.716   3.123   9.156
96139SOL    HW290315   9.565   3.121   9.166
96140SOL     OW90316   7.461   1.787   0.918
96140SOL    HW190317   7.542   1.838   0.917
96140SOL    HW290318   7.433   1.789   1.010
96141SOL     OW90319   7.942   0.708   7.973
96141SOL    HW190320   7.874   0.683   8.035
96141SOL    HW290321   7.907   0.784   7.927
96142SOL     OW90322   1.674  12.606  10.507
96142SOL    HW190323   1.738  12.593  10.577
96142SOL    HW290324   1.658  12.700  10.506
96143SOL     OW90325   0.161   4.767  13.648
96143SOL    HW190326   0.235   4.826  13.664
96143SOL    HW290327   0.157   4.758  13.553
96144SOL     OW90328   4.500   3.521  10.587
96144SOL    HW190329   4.571   3.470  10.548
96144SOL    HW290330   4.421   3.470  10.568
96145SOL     OW90331   7.241   6.865   1.779
96145SOL    HW190332   7.294   6.786   1.788
96145SOL    HW290333   7.252   6.912   1.862
96146SOL     OW90334  14.539   3.499   6.403
96146SOL    HW190335  14.466   3.465   6.352
96146SOL    HW290336  14.616   3.454   6.368
96147SOL     OW90337  13.658   3.494   6.329
96147SOL    HW190338  13.668   3.538   6.413
96147SOL    HW290339  13.702   3.551   6.266
96148SOL     OW90340   9.794  14.164  11.663
96148SOL    HW190341   9.850  14.090  11.641
96148SOL    HW290342   9.746  14.182  11.583
96149SOL     OW90343   6.024  13.899  11.932
96149SOL    HW190344   6.107  13.915  11.976
96149SOL    HW290345   6.045  13.907  11.839
96150SOL     OW90346   6.035   8.176   5.089
96150SOL    HW190347   6.046   8.143   5.178
96150SOL    HW290348   5.941   8.196   5.082
96151SOL     OW90349  10.047  12.015   8.353
96151SOL    HW190350   9.980  12.048   8.413
96151SOL    HW290351  10.024  12.053   8.268
96152SOL     OW90352   3.960  13.808  13.519
96152SOL    HW190353   4.034  13.778  13.466
96152SOL    HW290354   3.920  13.727  13.551
96153SOL     OW90355  11.070   7.700   7.310
96153SOL    HW190356  11.059   7.703   7.405
96153SOL    HW290357  11.118   7.780   7.289
96154SOL     OW90358   0.906  10.487  14.792
96154SOL    HW190359   0.857  10.412  14.757
96154SOL    HW290360   0.913  10.548  14.719
96155SOL     OW90361   0.385   3.085  10.653
96155SOL    HW190362   0.326   3.157  10.629
96155SOL    HW290363   0.473   3.119  10.635
96156SOL     OW90364   3.447   7.168   3.114
96156SOL    HW190365   3.404   7.179   3.199
96156SOL    HW290366   3.436   7.253   3.070
96157SOL     OW90367   1.629   7.983   3.042
96157SOL    HW190368   1.613   8.067   3.086
96157SOL    HW290369   1.564   7.924   3.081
96158SOL     OW90370   2.385   7.034  12.475
96158SOL    HW190371   2.424   6.987  12.549
96158SOL    HW290372   2.403   7.126  12.493
96159SOL     OW90373   8.149   3.273  14.030
96159SOL    HW190374   8.140   3.196  13.974
96159SOL    HW290375   8.087   3.336  13.994
96160SOL     OW90376   6.921   5.888  11.420
96160SOL    HW190377   6.852   5.822  11.430
96160SOL    HW290378   6.949   5.878  11.329
96161SOL     OW90379   3.290   7.287  10.519
96161SOL    HW190380   3.348   7.304  10.594
96161SOL    HW290381   3.248   7.203  10.540
96162SOL     OW90382   5.739   8.025   4.945
96162SOL    HW190383   5.658   8.018   4.994
96162SOL    HW290384   5.797   7.959   4.984
96163SOL     OW90385   2.095   0.843   3.490
96163SOL    HW190386   2.158   0.854   3.418
96163SOL    HW290387   2.016   0.812   3.447
96164SOL     OW90388   0.701   9.673   8.719
96164SOL    HW190389   0.755   9.599   8.692
96164SOL    HW290390   0.643   9.688   8.644
96165SOL     OW90391   8.680   1.210   3.668
96165SOL    HW190392   8.694   1.242   3.579
96165SOL    HW290393   8.625   1.133   3.658
96166SOL     OW90394   3.475  10.979   4.906
96166SOL    HW190395   3.549  10.919   4.898
96166SOL    HW290396   3.473  11.024   4.821
96167SOL     OW90397   0.177   4.240   7.617
96167SOL    HW190398   0.130   4.256   7.536
96167SOL    HW290399   0.231   4.318   7.630
96168SOL     OW90400   0.899   2.296   9.335
96168SOL    HW190401   0.889   2.389   9.353
96168SOL    HW290402   0.836   2.277   9.266
96169SOL     OW90403  10.885  12.259  14.362
96169SOL    HW190404  10.857  12.249  14.452
96169SOL    HW290405  10.806  12.246  14.310
96170SOL     OW90406  12.254  10.469  10.448
96170SOL    HW190407  12.173  10.419  10.434
96170SOL    HW290408  12.322  10.419  10.404
96171SOL     OW90409   8.873  13.858   5.289
96171SOL    HW190410   8.934  13.793   5.253
96171SOL    HW290411   8.888  13.855   5.383
96172SOL     OW90412  12.566   6.864   0.250
96172SOL    HW190413  12.645   6.917   0.234
96172SOL    HW290414  12.494   6.923   0.230
96173SOL     OW90415   4.392   0.388   4.099
96173SOL    HW190416   4.434   0.302   4.104
96173SOL    HW290417   4.413   0.420   4.012
96174SOL     OW90418  14.473   5.497  12.929
96174SOL    HW190419  14.428   5.567  12.882
96174SOL    HW290420  14.411   5.425  12.931
96175SOL     OW90421   4.417   9.318   0.235
96175SOL    HW190422   4.422   9.362   0.320
96175SOL    HW290423   4.485   9.361   0.182
96176SOL     OW90424  13.201   5.389   0.359
96176SOL    HW190425  13.204   5.325   0.288
96176SOL    HW290426  13.191   5.474   0.315
96177SOL     OW90427   3.902   1.912   4.233
96177SOL    HW190428   3.831   1.852   4.255
96177SOL    HW290429   3.965   1.859   4.185
96178SOL     OW90430   6.635   8.711   6.892
96178SOL    HW190431   6.695   8.680   6.959
96178SOL    HW290432   6.620   8.635   6.836
96179SOL     OW90433   9.204  12.976  11.714
96179SOL    HW190434   9.155  12.929  11.782
96179SOL    HW290435   9.289  12.994  11.754
96180SOL     OW90436   9.735   3.873   6.675
96180SOL    HW190437   9.771   3.867   6.764
96180SOL    HW290438   9.773   3.953   6.639
96181SOL     OW90439   7.425   6.154  13.013
96181SOL    HW190440   7.420   6.127  12.921
96181SOL    HW290441   7.365   6.229  13.018
96182SOL     OW90442   7.704   5.163   6.673
96182SOL    HW190443   7.665   5.093   6.725
96182SOL    HW290444   7.667   5.152   6.586
96183SOL     OW90445   0.831   2.774   7.008
96183SOL    HW190446   0.819   2.869   7.008
96183SOL    HW290447   0.789   2.745   6.927
96184SOL     OW90448   1.107   8.614  11.006
96184SOL    HW190449   1.018   8.593  11.032
96184SOL    HW290450   1.138   8.535  10.960
96185SOL     OW90451   5.489  10.387  10.473
96185SOL    HW190452   5.453  10.354  10.556
96185SOL    HW290453   5.412  10.419  10.425
96186SOL     OW90454   8.638  10.338   6.163
96186SOL    HW190455   8.623  10.294   6.080
96186SOL    HW290456   8.668  10.426   6.138
96187SOL     OW90457   8.845  14.572   8.287
96187SOL    HW190458   8.828  14.665   8.305
96187SOL    HW290459   8.776  14.546   8.226
96188SOL     OW90460   7.961  11.303   5.320
96188SOL    HW190461   7.929  11.334   5.405
96188SOL    HW290462   7.948  11.208   5.323
96189SOL     OW90463  14.399   6.251   0.338
96189SOL    HW190464  14.374   6.342   0.355
96189SOL    HW290465  14.454   6.257   0.259
96190SOL     OW90466  11.591   2.673   9.103
96190SOL    HW190467  11.587   2.764   9.075
96190SOL    HW290468  11.654   2.632   9.044
96191SOL     OW90469   4.641   5.620   3.948
96191SOL    HW190470   4.643   5.526   3.930
96191SOL    HW290471   4.561   5.633   3.999
96192SOL     OW90472  14.020   7.523  12.029
96192SOL    HW190473  14.097   7.469  12.010
96192SOL    HW290474  13.950   7.484  11.978
96193SOL     OW90475  14.246   2.645  14.529
96193SOL    HW190476  14.308   2.695  14.582
96193SOL    HW290477  14.290   2.561  14.515
96194SOL     OW90478   2.297  13.172  13.519
96194SOL    HW190479   2.339  13.087  13.533
96194SOL    HW290480   2.366  13.226  13.482
96195SOL     OW90481   0.017   7.674  14.222
96195SOL    HW190482   0.101   7.653  14.264
96195SOL    HW290483  14.839   7.608  14.254
96196SOL     OW90484   9.518  10.422  13.661
96196SOL    HW190485   9.489  10.464  13.580
96196SOL    HW290486   9.604  10.385  13.640
96197SOL     OW90487   0.847   1.447   2.800
96197SOL    HW190488   0.929   1.412   2.765
96197SOL    HW290489   0.803   1.484   2.723
96198SOL     OW90490  12.527   4.169  11.720
96198SOL    HW190491  12.479   4.167  11.637
96198SOL    HW290492  12.501   4.089  11.765
96199SOL     OW90493  12.281   5.407   0.802
96199SOL    HW190494  12.253   5.355   0.878
96199SOL    HW290495  12.317   5.342   0.742
96200SOL     OW90496   7.691  11.322   2.329
96200SOL    HW190497   7.618  11.265   2.306
96200SOL    HW290498   7.710  11.302   2.421
96201SOL     OW90499   9.065   1.092  10.424
96201SOL    HW190500   9.098   1.055  10.505
96201SOL    HW290501   8.986   1.041  10.404
96202SOL     OW90502  11.296  10.807   4.944
96202SOL    HW190503  11.345  10.727   4.963
96202SOL    HW290504  11.353  10.856   4.884
96203SOL     OW90505   4.695   3.311  10.415
96203SOL    HW190506   4.760   3.373  10.383
96203SOL    HW290507   4.618   3.328  10.361
96204SOL     OW90508   0.676   3.294  10.088
96204SOL    HW190509   0.731   3.277  10.165
96204SOL    HW290510   0.737   3.323  10.020
96205SOL     OW90511   2.440   0.673   3.196
96205SOL    HW190512   2.395   0.697   3.277
96205SOL    HW290513   2.408   0.585   3.177
96206SOL     OW90514   4.463   8.500   8.665
96206SOL    HW190515   4.377   8.520   8.627
96206SOL    HW290516   4.525   8.526   8.597
96207SOL     OW90517   4.183   5.256   0.111
96207SOL    HW190518   4.256   5.306   0.076
96207SOL    HW290519   4.105   5.304   0.082
96208SOL     OW90520   3.900   8.823   1.922
96208SOL    HW190521   3.975   8.778   1.884
96208SOL    HW290522   3.859   8.868   1.848
96209SOL     OW90523   5.679   2.195  11.623
96209SOL    HW190524   5.645   2.220  11.709
96209SOL    HW290525   5.603   2.192  11.566
96210SOL     OW90526  12.874   1.534   3.566
96210SOL    HW190527  12.959   1.535   3.521
96210SOL    HW290528  12.860   1.443   3.590
96211SOL     OW90529  13.736   2.059   2.297
96211SOL    HW190530  13.676   2.114   2.347
96211SOL    HW290531  13.682   1.985   2.268
96212SOL     OW90532   1.355  11.270   7.075
96212SOL    HW190533   1.379  11.209   7.004
96212SOL    HW290534   1.357  11.216   7.154
96213SOL     OW90535   5.991  14.878  13.540
96213SOL    HW190536   5.969   0.005  13.447
96213SOL    HW290537   6.048  14.801  13.543
96214SOL     OW90538   6.555  12.389   0.366
96214SOL    HW190539   6.571  12.450   0.294
96214SOL    HW290540   6.460  12.389   0.376
96215SOL     OW90541   5.506   9.767  13.216
96215SOL    HW190542   5.450   9.834  13.178
96215SOL    HW290543   5.585   9.814  13.244
96216SOL     OW90544   2.240   0.017   3.141
96216SOL    HW190545   2.148  14.882   3.158
96216SOL    HW290546   2.286  14.821   3.171
96217SOL     OW90547   3.909   8.786   9.422
96217SOL    HW190548   3.894   8.821   9.334
96217SOL    HW290549   3.936   8.861   9.474
96218SOL     OW90550  11.603   6.673   8.017
96218SOL    HW190551  11.646   6.692   8.100
96218SOL    HW290552  11.624   6.581   8.000
96219SOL     OW90553   8.521   0.428   0.454
96219SOL    HW190554   8.564   0.447   0.371
96219SOL    HW290555   8.531   0.507   0.506
96220SOL     OW90556   1.256   3.111   4.947
96220SOL    HW190557   1.222   3.192   4.984
96220SOL    HW290558   1.188   3.082   4.886
96221SOL     OW90559   3.424   9.146   8.134
96221SOL    HW190560   3.473   9.112   8.060
96221SOL    HW290561   3.487   9.147   8.206
96222SOL     OW90562  13.991  11.927  13.280
96222SOL    HW190563  14.080  11.958  13.297
96222SOL    HW290564  13.935  12.001  13.302
96223SOL     OW90565   7.367   8.860  12.900
96223SOL    HW190566   7.378   8.785  12.959
96223SOL    HW290567   7.456   8.882  12.873
96224SOL     OW90568  10.844   0.139  12.618
96224SOL    HW190569  10.754   0.146  12.648
96224SOL    HW290570  10.877   0.229  12.622
96225SOL     OW90571   9.143   7.071  10.204
96225SOL    HW190572   9.175   7.150  10.248
96225SOL    HW290573   9.076   7.102  10.144
96226SOL     OW90574   3.780   9.973   0.180
96226SOL    HW190575   3.850   9.966   0.115
96226SOL    HW290576   3.761  10.066   0.185
96227SOL     OW90577   9.714  13.023  13.344
96227SOL    HW190578   9.657  13.098  13.358
96227SOL    HW290579   9.778  13.028  13.415
96228SOL     OW90580   4.461   5.785  13.191
96228SOL    HW190581   4.367   5.782  13.211
96228SOL    HW290582   4.493   5.863  13.238
96229SOL     OW90583  14.488   8.313  13.416
96229SOL    HW190584  14.561   8.360  13.458
96229SOL    HW290585  14.504   8.324  13.322
96230SOL     OW90586   4.695  13.140   6.283
96230SOL    HW190587   4.662  13.099   6.203
96230SOL    HW290588   4.618  13.173   6.328
96231SOL     OW90589   6.333   2.719   1.640
96231SOL    HW190590   6.379   2.733   1.722
96231SOL    HW290591   6.402   2.699   1.577
96232SOL     OW90592  12.659  10.685   0.237
96232SOL    HW190593  12.610  10.616   0.193
96232SOL    HW290594  12.673  10.751   0.169
96233SOL     OW90595  13.143   1.788  10.788
96233SOL    HW190596  13.118   1.709  10.741
96233SOL    HW290597  13.060   1.825  10.819
96234SOL     OW90598   7.325   0.260   8.393
96234SOL    HW190599   7.240   0.262   8.437
96234SOL    HW290600   7.308   0.293   8.305
96235SOL     OW90601   8.210  10.876  11.677
96235SOL    HW190602   8.215  10.798  11.621
96235SOL    HW290603   8.212  10.949  11.615
96236SOL     OW90604   8.826  11.515   8.402
96236SOL    HW190605   8.824  11.476   8.490
96236SOL    HW290606   8.736  11.508   8.371
96237SOL     OW90607  12.781   4.549   8.038
96237SOL    HW190608  12.701   4.594   8.009
96237SOL    HW290609  12.818   4.512   7.958
96238SOL     OW90610   7.663   6.221  11.432
96238SOL    HW190611   7.686   6.308  11.466
96238SOL    HW290612   7.578   6.203  11.472
96239SOL     OW90613   4.718   3.647   0.173
96239SOL    HW190614   4.809   3.640   0.203
96239SOL    HW290615   4.720   3.615   0.083
96240SOL     OW90616  10.705  14.114   4.492
96240SOL    HW190617  10.690  14.200   4.453
96240SOL    HW290618  10.751  14.133   4.574
96241SOL     OW90619   7.926   5.561  12.691
96241SOL    HW190620   8.012   5.567  12.732
96241SOL    HW290621   7.877   5.501  12.747
96242SOL     OW90622   8.390   5.585   0.128
96242SOL    HW190623   8.450   5.577   0.054
96242SOL    HW290624   8.427   5.655   0.182
96243SOL     OW90625   1.178   6.189  13.066
96243SOL    HW190626   1.236   6.141  13.125
96243SOL    HW290627   1.237   6.224  12.999
96244SOL     OW90628   2.827  11.634   2.168
96244SOL    HW190629   2.766  11.574   2.211
96244SOL    HW290630   2.784  11.719   2.174
96245SOL     OW90631   8.553   5.170   9.777
96245SOL    HW190632   8.523   5.178   9.686
96245SOL    HW290633   8.504   5.095   9.812
96246SOL     OW90634  11.960   8.948   1.678
96246SOL    HW190635  11.901   8.954   1.753
96246SOL    HW290636  11.971   8.854   1.663
96247SOL     OW90637   6.293   8.578   5.261
96247SOL    HW190638   6.279   8.668   5.289
96247SOL    HW290639   6.275   8.579   5.167
96248SOL     OW90640   4.928  13.440   7.200
96248SOL    HW190641   5.011  13.488   7.207
96248SOL    HW290642   4.868  13.487   7.258
96249SOL     OW90643   9.627  10.024  12.366
96249SOL    HW190644   9.699  10.023  12.303
96249SOL    HW290645   9.668  10.009  12.451
96250SOL     OW90646  12.842   2.019  11.259
96250SOL    HW190647  12.758   2.030  11.305
96250SOL    HW290648  12.829   2.063  11.175
96251SOL     OW90649   3.142   1.532   9.778
96251SOL    HW190650   3.105   1.509   9.863
96251SOL    HW290651   3.155   1.627   9.782
96252SOL     OW90652   9.739   7.381  12.871
96252SOL    HW190653   9.713   7.307  12.926
96252SOL    HW290654   9.658   7.413  12.832
96253SOL     OW90655   3.565   3.654  11.838
96253SOL    HW190656   3.530   3.585  11.895
96253SOL    HW290657   3.629   3.700  11.892
96254SOL     OW90658  10.485   3.826   1.805
96254SOL    HW190659  10.498   3.900   1.747
96254SOL    HW290660  10.563   3.825   1.861
96255SOL     OW90661  14.744   6.795   5.194
96255SOL    HW190662  14.806   6.785   5.122
96255SOL    HW290663  14.731   6.890   5.202
96256SOL     OW90664   9.751   8.975   1.014
96256SOL    HW190665   9.704   8.912   0.959
96256SOL    HW290666   9.693   8.988   1.090
96257SOL     OW90667  12.217   9.668   0.767
96257SOL    HW190668  12.284   9.737   0.761
96257SOL    HW290669  12.265   9.590   0.795
96258SOL     OW90670   4.219   4.277  13.121
96258SOL    HW190671   4.196   4.207  13.182
96258SOL    HW290672   4.143   4.285  13.064
96259SOL     OW90673   0.446   2.248  13.474
96259SOL    HW190674   0.442   2.339  13.500
96259SOL    HW290675   0.372   2.236  13.414
96260SOL     OW90676   5.459   5.752   1.114
96260SOL    HW190677   5.385   5.723   1.060
96260SOL    HW290678   5.526   5.685   1.100
96261SOL     OW90679  10.076  12.037   0.614
96261SOL    HW190680  10.052  12.067   0.702
96261SOL    HW290681  10.058  11.943   0.615
96262SOL     OW90682  10.112   9.600   2.725
96262SOL    HW190683  10.144   9.561   2.807
96262SOL    HW290684  10.170   9.565   2.658
96263SOL     OW90685   0.401   4.909  13.614
96263SOL    HW190686   0.416   4.828  13.564
96263SOL    HW290687   0.486   4.930  13.651
96264SOL     OW90688   1.681   6.557   2.487
96264SOL    HW190689   1.772   6.528   2.486
96264SOL    HW290690   1.659   6.568   2.394
96265SOL     OW90691   6.668   3.937   1.337
96265SOL    HW190692   6.707   3.913   1.421
96265SOL    HW290693   6.693   4.028   1.325
96266SOL     OW90694   7.687   9.515   6.539
96266SOL    HW190695   7.611   9.513   6.481
96266SOL    HW290696   7.650   9.530   6.626
96267SOL     OW90697   2.592   9.820   3.260
96267SOL    HW190698   2.668   9.802   3.315
96267SOL    HW290699   2.519   9.829   3.322
96268SOL     OW90700  10.377  14.700  11.380
96268SOL    HW190701  10.357  14.790  11.353
96268SOL    HW290702  10.449  14.673  11.324
96269SOL     OW90703   7.972   1.008   4.897
96269SOL    HW190704   8.003   1.083   4.947
96269SOL    HW290705   7.880   0.999   4.921
96270SOL     OW90706  10.162   6.931   0.466
96270SOL    HW190707  10.250   6.907   0.435
96270SOL    HW290708  10.110   6.852   0.450
96271SOL     OW90709   8.002  14.660   1.405
96271SOL    HW190710   8.037  14.722   1.469
96271SOL    HW290711   7.967  14.588   1.458
96272SOL     OW90712   1.540   3.415   1.321
96272SOL    HW190713   1.569   3.476   1.389
96272SOL    HW290714   1.467   3.460   1.278
96273SOL     OW90715   1.579  11.248  10.644
96273SOL    HW190716   1.605  11.167  10.602
96273SOL    HW290717   1.490  11.232  10.675
96274SOL     OW90718   4.179   3.636   3.547
96274SOL    HW190719   4.129   3.702   3.499
96274SOL    HW290720   4.119   3.561   3.554
96275SOL     OW90721  12.145  11.197   7.515
96275SOL    HW190722  12.131  11.151   7.598
96275SOL    HW290723  12.138  11.290   7.538
96276SOL     OW90724   3.116   1.122   0.354
96276SOL    HW190725   3.164   1.195   0.315
96276SOL    HW290726   3.037   1.114   0.301
96277SOL     OW90727   2.664   4.201   4.916
96277SOL    HW190728   2.705   4.275   4.961
96277SOL    HW290729   2.580   4.235   4.886
96278SOL     OW90730   7.421  12.035  12.172
96278SOL    HW190731   7.411  11.950  12.128
96278SOL    HW290732   7.402  12.099  12.104
96279SOL     OW90733  11.565  14.058   1.522
96279SOL    HW190734  11.643  14.032   1.571
96279SOL    HW290735  11.595  14.125   1.461
96280SOL     OW90736  13.944   5.197  13.821
96280SOL    HW190737  13.951   5.228  13.731
96280SOL    HW290738  13.948   5.102  13.815
96281SOL     OW90739   5.524   0.636   1.800
96281SOL    HW190740   5.469   0.558   1.797
96281SOL    HW290741   5.469   0.702   1.841
96282SOL     OW90742   5.010   5.529   0.558
96282SOL    HW190743   5.029   5.552   0.467
96282SOL    HW290744   5.021   5.610   0.606
96283SOL     OW90745   0.208  14.122  10.887
96283SOL    HW190746   0.199  14.039  10.933
96283SOL    HW290747   0.175  14.187  10.949
96284SOL     OW90748   1.619   9.138   3.782
96284SOL    HW190749   1.638   9.132   3.689
96284SOL    HW290750   1.525   9.120   3.789
96285SOL     OW90751   2.972  13.256  10.342
96285SOL    HW190752   2.882  13.280  10.362
96285SOL    HW290753   2.966  13.210  10.258
96286SOL     OW90754  13.481  14.164   0.253
96286SOL    HW190755  13.497  14.179   0.160
96286SOL    HW290756  13.423  14.236   0.279
96287SOL     OW90757   5.990   9.084   6.472
96287SOL    HW190758   5.947   9.163   6.502
96287SOL    HW290759   5.919   9.025   6.447
96288SOL     OW90760   2.688   0.317   5.387
96288SOL    HW190761   2.714   0.229   5.412
96288SOL    HW290762   2.766   0.370   5.401
96289SOL     OW90763  13.034   7.923   6.971
96289SOL    HW190764  12.999   7.874   7.045
96289SOL    HW290765  13.128   7.930   6.989
96290SOL     OW90766   1.904  10.127   4.208
96290SOL    HW190767   1.868  10.077   4.135
96290SOL    HW290768   1.886  10.073   4.285
96291SOL     OW90769   1.376  10.200  12.920
96291SOL    HW190770   1.338  10.114  12.939
96291SOL    HW290771   1.446  10.181  12.857
96292SOL     OW90772   3.045   7.540   6.360
96292SOL    HW190773   3.130   7.537   6.317
96292SOL    HW290774   2.998   7.610   6.315
96293SOL     OW90775  11.154   8.152   5.182
96293SOL    HW190776  11.067   8.176   5.150
96293SOL    HW290777  11.206   8.232   5.173
96294SOL     OW90778  13.314  12.239  14.438
96294SOL    HW190779  13.219  12.238  14.446
96294SOL    HW290780  13.335  12.161  14.387
96295SOL     OW90781   5.647   1.433   5.775
96295SOL    HW190782   5.723   1.437   5.833
96295SOL    HW290783   5.661   1.503   5.712
96296SOL     OW90784  11.947   2.654   8.286
96296SOL    HW190785  11.963   2.577   8.231
96296SOL    HW290786  12.007   2.643   8.360
96297SOL     OW90787  11.565  12.705  11.246
96297SOL    HW190788  11.535  12.636  11.186
96297SOL    HW290789  11.574  12.782  11.190
96298SOL     OW90790  14.631   3.297  12.323
96298SOL    HW190791  14.717   3.322  12.289
96298SOL    HW290792  14.574   3.299  12.247
96299SOL     OW90793  13.556   7.612   1.608
96299SOL    HW190794  13.540   7.537   1.551
96299SOL    HW290795  13.650   7.606   1.629
96300SOL     OW90796  11.941  14.029   1.844
96300SOL    HW190797  12.033  14.039   1.822
96300SOL    HW290798  11.934  13.939   1.877
96301SOL     OW90799  12.566   5.122  12.355
96301SOL    HW190800  12.478   5.089  12.372
96301SOL    HW290801  12.623   5.070  12.411
96302SOL     OW90802   0.872   9.156   0.385
96302SOL    HW190803   0.916   9.137   0.467
96302SOL    HW290804   0.864   9.071   0.341
96303SOL     OW90805   0.609   0.888   5.509
96303SOL    HW190806   0.572   0.976   5.511
96303SOL    HW290807   0.535   0.830   5.528
96304SOL     OW90808  12.807   5.157   0.439
96304SOL    HW190809  12.857   5.236   0.421
96304SOL    HW290810  12.772   5.169   0.527
96305SOL     OW90811  11.056   0.086   3.989
96305SOL    HW190812  11.146   0.117   3.998
96305SOL    HW290813  11.061  14.875   4.008
96306SOL     OW90814   6.729   3.010   6.986
96306SOL    HW190815   6.639   2.986   7.003
96306SOL    HW290816   6.774   3.000   7.070
96307SOL     OW90817  12.009   9.990   1.835
96307SOL    HW190818  12.091  10.021   1.796
96307SOL    HW290819  11.958   9.957   1.761
96308SOL     OW90820  11.629   9.990  12.350
96308SOL    HW190821  11.568  10.063  12.365
96308SOL    HW290822  11.581   9.912  12.379
96309SOL     OW90823   7.432   1.961   0.530
96309SOL    HW190824   7.496   2.006   0.585
96309SOL    HW290825   7.369   1.924   0.592
96310SOL     OW90826   3.730   0.491   9.390
96310SOL    HW190827   3.704   0.467   9.479
96310SOL    HW290828   3.702   0.418   9.336
96311SOL     OW90829  13.643   7.289  14.635
96311SOL    HW190830  13.691   7.256  14.560
96311SOL    HW290831  13.596   7.366  14.602
96312SOL     OW90832  11.714   2.147   0.435
96312SOL    HW190833  11.672   2.148   0.521
96312SOL    HW290834  11.755   2.061   0.430
96313SOL     OW90835   5.475   7.208  10.103
96313SOL    HW190836   5.432   7.125  10.123
96313SOL    HW290837   5.428   7.273  10.156
96314SOL     OW90838   7.966  12.243   1.600
96314SOL    HW190839   7.980  12.193   1.680
96314SOL    HW290840   7.879  12.218   1.570
96315SOL     OW90841   1.357   1.212   8.519
96315SOL    HW190842   1.313   1.127   8.512
96315SOL    HW290843   1.392   1.214   8.608
96316SOL     OW90844  10.578   5.524  10.866
96316SOL    HW190845  10.613   5.455  10.810
96316SOL    HW290846  10.513   5.569  10.811
96317SOL     OW90847   7.587   3.604   9.987
96317SOL    HW190848   7.634   3.676  10.028
96317SOL    HW290849   7.655   3.555   9.940
96318SOL     OW90850   6.015  13.321  10.218
96318SOL    HW190851   5.976  13.407  10.234
96318SOL    HW290852   6.100  13.340  10.179
96319SOL     OW90853   1.250   7.955   3.784
96319SOL    HW190854   1.344   7.969   3.786
96319SOL    HW290855   1.235   7.902   3.705
96320SOL     OW90856  13.904   1.057   5.003
96320SOL    HW190857  13.937   1.015   4.924
96320SOL    HW290858  13.825   1.007   5.025
96321SOL     OW90859  11.151   5.637   8.103
96321SOL    HW190860  11.187   5.668   8.187
96321SOL    HW290861  11.225   5.591   8.062
96322SOL     OW90862  13.190  11.923  14.626
96322SOL    HW190863  13.216  11.982  14.556
96322SOL    HW290864  13.261  11.858  14.631
96323SOL     OW90865   7.578   0.177   2.383
96323SOL    HW190866   7.669   0.202   2.400
96323SOL    HW290867   7.585   0.099   2.328
96324SOL     OW90868   5.533   6.745  14.443
96324SOL    HW190869   5.584   6.798  14.381
96324SOL    HW290870   5.560   6.655  14.424
96325SOL     OW90871   5.472   2.739   1.944
96325SOL    HW190872   5.550   2.783   1.977
96325SOL    HW290873   5.506   2.660   1.901
96326SOL     OW90874   4.495   9.443  10.856
96326SOL    HW190875   4.428   9.509  10.870
96326SOL    HW290876   4.489   9.422  10.763
96327SOL     OW90877  10.436   8.252  13.079
96327SOL    HW190878  10.347   8.238  13.111
96327SOL    HW290879  10.482   8.292  13.153
96328SOL     OW90880  12.490  13.859   9.964
96328SOL    HW190881  12.439  13.842   9.885
96328SOL    HW290882  12.561  13.917   9.935
96329SOL     OW90883  11.202   9.211   6.239
96329SOL    HW190884  11.170   9.148   6.304
96329SOL    HW290885  11.175   9.175   6.155
96330SOL     OW90886  11.485   1.902   4.714
96330SOL    HW190887  11.546   1.915   4.787
96330SOL    HW290888  11.494   1.810   4.691
96331SOL     OW90889   5.689  10.611  14.302
96331SOL    HW190890   5.624  10.662  14.254
96331SOL    HW290891   5.673  10.632  14.394
96332SOL     OW90892   3.790   9.102  12.184
96332SOL    HW190893   3.796   9.110  12.279
96332SOL    HW290894   3.859   9.159  12.151
96333SOL     OW90895  13.107   1.897   6.310
96333SOL    HW190896  13.199   1.904   6.285
96333SOL    HW290897  13.090   1.976   6.361
96334SOL     OW90898  14.087   0.660  10.030
96334SOL    HW190899  14.075   0.647   9.935
96334SOL    HW290900  14.167   0.711  10.037
96335SOL     OW90901  10.738   7.367   8.832
96335SOL    HW190902  10.705   7.430   8.897
96335SOL    HW290903  10.797   7.310   8.882
96336SOL     OW90904   0.407  12.542   0.078
96336SOL    HW190905   0.393  12.635   0.094
96336SOL    HW290906   0.382  12.500   0.161
96337SOL     OW90907  10.274  10.864   6.965
96337SOL    HW190908  10.335  10.839   7.034
96337SOL    HW290909  10.191  10.878   7.011
96338SOL     OW90910   9.190   9.192   2.601
96338SOL    HW190911   9.194   9.210   2.695
96338SOL    HW290912   9.277   9.158   2.580
96339SOL     OW90913   5.818   4.187   2.054
96339SOL    HW190914   5.763   4.135   1.996
96339SOL    HW290915   5.757   4.233   2.112
96340SOL     OW90916   6.045   5.787  13.668
96340SOL    HW190917   6.101   5.710  13.653
96340SOL    HW290918   6.083   5.855  13.612
96341SOL     OW90919   4.492   8.033  11.760
96341SOL    HW190920   4.401   8.054  11.780
96341SOL    HW290921   4.488   7.954  11.706
96342SOL     OW90922   7.217   1.666   9.405
96342SOL    HW190923   7.138   1.612   9.400
96342SOL    HW290924   7.283   1.615   9.358
96343SOL     OW90925   0.489  11.667   4.251
96343SOL    HW190926   0.548  11.739   4.273
96343SOL    HW290927   0.521  11.634   4.167
96344SOL     OW90928   5.818   9.099   9.001
96344SOL    HW190929   5.804   9.027   9.063
96344SOL    HW290930   5.860   9.167   9.054
96345SOL     OW90931  14.728   7.205   2.267
96345SOL    HW190932  14.693   7.261   2.197
96345SOL    HW290933  14.653   7.190   2.325
96346SOL     OW90934  12.918   7.498   0.104
96346SOL    HW190935  12.932   7.412   0.065
96346SOL    HW290936  12.841   7.488   0.159
96347SOL     OW90937   1.260   4.721   5.571
96347SOL    HW190938   1.265   4.629   5.595
96347SOL    HW290939   1.167   4.742   5.573
96348SOL     OW90940  11.577   3.371  14.873
96348SOL    HW190941  11.609   3.323   0.067
96348SOL    HW290942  11.588   3.310  14.799
96349SOL     OW90943   5.837   4.981   1.520
96349SOL    HW190944   5.822   5.041   1.593
96349SOL    HW290945   5.874   4.902   1.561
96350SOL     OW90946   1.239  11.622   5.901
96350SOL    HW190947   1.201  11.602   5.986
96350SOL    HW290948   1.185  11.695   5.868
96351SOL     OW90949   3.476  14.194   9.555
96351SOL    HW190950   3.459  14.214   9.463
96351SOL    HW290951   3.393  14.159   9.588
96352SOL     OW90952   2.657  11.753  12.271
96352SOL    HW190953   2.752  11.764  12.264
96352SOL    HW290954   2.626  11.838  12.302
96353SOL     OW90955  10.544   6.921  13.743
96353SOL    HW190956  10.490   6.860  13.693
96353SOL    HW290957  10.504   7.006  13.728
96354SOL     OW90958  10.380  13.696   7.744
96354SOL    HW190959  10.449  13.710   7.679
96354SOL    HW290960  10.343  13.783   7.759
96355SOL     OW90961  14.418  14.691   8.386
96355SOL    HW190962  14.385  14.684   8.297
96355SOL    HW290963  14.475  14.769   8.385
96356SOL     OW90964   2.250   3.665  10.049
96356SOL    HW190965   2.175   3.724  10.049
96356SOL    HW290966   2.289   3.676  10.136
96357SOL     OW90967   6.020  11.261  10.586
96357SOL    HW190968   5.998  11.344  10.544
96357SOL    HW290969   5.936  11.217  10.599
96358SOL     OW90970   9.220   6.139   9.650
96358SOL    HW190971   9.155   6.086   9.696
96358SOL    HW290972   9.217   6.224   9.694
96359SOL     OW90973  14.276  11.414   5.059
96359SOL    HW190974  14.309  11.438   5.145
96359SOL    HW290975  14.299  11.321   5.049
96360SOL     OW90976   5.166   2.365   1.726
96360SOL    HW190977   5.209   2.343   1.643
96360SOL    HW290978   5.077   2.332   1.716
96361SOL     OW90979   0.793   6.437   0.201
96361SOL    HW190980   0.743   6.518   0.194
96361SOL    HW290981   0.857   6.455   0.269
96362SOL     OW90982   0.735   9.224   6.433
96362SOL    HW190983   0.779   9.297   6.389
96362SOL    HW290984   0.797   9.152   6.426
96363SOL     OW90985   4.935   7.050   3.534
96363SOL    HW190986   5.008   7.111   3.547
96363SOL    HW290987   4.957   7.005   3.452
96364SOL     OW90988  12.208  13.670  10.029
96364SOL    HW190989  12.171  13.583  10.044
96364SOL    HW290990  12.140  13.730  10.058
96365SOL     OW90991   5.906   0.623  14.212
96365SOL    HW190992   5.945   0.626  14.299
96365SOL    HW290993   5.844   0.696  14.211
96366SOL     OW90994  10.852   9.120   0.311
96366SOL    HW190995  10.874   9.153   0.398
96366SOL    HW290996  10.780   9.060   0.325
96367SOL     OW90997   7.487   0.488   8.812
96367SOL    HW190998   7.574   0.457   8.839
96367SOL    HW290999   7.479   0.460   8.721
96368SOL     OW91000  13.715  13.618   5.956
96368SOL    HW191001  13.763  13.541   5.986
96368SOL    HW291002  13.782  13.679   5.926
96369SOL     OW91003  12.166   7.257   8.514
96369SOL    HW191004  12.148   7.345   8.481
96369SOL    HW291005  12.262   7.252   8.517
96370SOL     OW91006   7.176   4.669   8.000
96370SOL    HW191007   7.232   4.721   8.057
96370SOL    HW291008   7.160   4.726   7.924
96371SOL     OW91009  13.209   8.932   8.398
96371SOL    HW191010  13.161   8.854   8.371
96371SOL    HW291011  13.187   8.943   8.491
96372SOL     OW91012   4.234   4.403   5.920
96372SOL    HW191013   4.147   4.372   5.944
96372SOL    HW291014   4.234   4.496   5.946
96373SOL     OW91015   1.791   4.464   9.867
96373SOL    HW191016   1.870   4.504   9.831
96373SOL    HW291017   1.765   4.522   9.938
96374SOL     OW91018  14.184   6.735   4.756
96374SOL    HW191019  14.111   6.750   4.815
96374SOL    HW291020  14.236   6.814   4.762
96375SOL     OW91021   2.242  12.778   5.073
96375SOL    HW191022   2.250  12.872   5.061
96375SOL    HW291023   2.188  12.748   5.000
96376SOL     OW91024   4.848  14.302   5.723
96376SOL    HW191025   4.797  14.348   5.657
96376SOL    HW291026   4.783  14.266   5.783
96377SOL     OW91027   0.276   1.160  13.710
96377SOL    HW191028   0.230   1.238  13.739
96377SOL    HW291029   0.207   1.098  13.686
96378SOL     OW91030   4.132   7.357   6.578
96378SOL    HW191031   4.164   7.402   6.656
96378SOL    HW291032   4.037   7.372   6.578
96379SOL     OW91033  10.728  10.335  14.756
96379SOL    HW191034  10.816  10.368  14.739
96379SOL    HW291035  10.675  10.369  14.684
96380SOL     OW91036   9.620   9.586   3.822
96380SOL    HW191037   9.566   9.525   3.771
96380SOL    HW291038   9.708   9.576   3.786
96381SOL     OW91039   3.733   9.668   1.132
96381SOL    HW191040   3.730   9.732   1.061
96381SOL    HW291041   3.645   9.670   1.169
96382SOL     OW91042  14.002   4.893   9.412
96382SOL    HW191043  13.951   4.898   9.331
96382SOL    HW291044  14.091   4.874   9.384
96383SOL     OW91045   1.647  10.967   1.012
96383SOL    HW191046   1.689  10.961   0.927
96383SOL    HW291047   1.719  10.968   1.075
96384SOL     OW91048   7.328  14.309   9.381
96384SOL    HW191049   7.341  14.281   9.290
96384SOL    HW291050   7.403  14.273   9.427
96385SOL     OW91051   0.885   5.416  14.076
96385SOL    HW191052   0.918   5.350  14.137
96385SOL    HW291053   0.856   5.367  14.000
96386SOL     OW91054   3.171   2.883  10.966
96386SOL    HW191055   3.083   2.847  10.954
96386SOL    HW291056   3.217   2.818  11.018
96387SOL     OW91057  13.566  10.780  11.252
96387SOL    HW191058  13.622  10.844  11.295
96387SOL    HW291059  13.514  10.742  11.323
96388SOL     OW91060   2.312   4.904   6.180
96388SOL    HW191061   2.330   4.881   6.271
96388SOL    HW291062   2.374   4.852   6.129
96389SOL     OW91063   1.610  13.224   4.616
96389SOL    HW191064   1.626  13.167   4.541
96389SOL    HW291065   1.666  13.300   4.601
96390SOL     OW91066   1.508   5.441   8.623
96390SOL    HW191067   1.526   5.347   8.626
96390SOL    HW291068   1.493   5.459   8.530
96391SOL     OW91069   5.742   9.685   5.855
96391SOL    HW191070   5.789   9.664   5.935
96391SOL    HW291071   5.663   9.631   5.858
96392SOL     OW91072   1.016  14.004  11.966
96392SOL    HW191073   0.991  13.935  12.027
96392SOL    HW291074   1.106  13.981  11.940
96393SOL     OW91075   3.996   8.403  14.432
96393SOL    HW191076   3.943   8.352  14.493
96393SOL    HW291077   3.973   8.494  14.450
96394SOL     OW91078  10.304   6.930   8.111
96394SOL    HW191079  10.365   6.943   8.183
96394SOL    HW291080  10.313   7.009   8.057
96395SOL     OW91081   7.059   3.119  14.785
96395SOL    HW191082   7.066   3.127  14.690
96395SOL    HW291083   7.024   3.204  14.813
96396SOL     OW91084   1.095   7.316   1.305
96396SOL    HW191085   1.158   7.279   1.243
96396SOL    HW291086   1.149   7.367   1.366
96397SOL     OW91087   1.318   0.352  14.392
96397SOL    HW191088   1.321   0.257  14.402
96397SOL    HW291089   1.390   0.373  14.332
96398SOL     OW91090  13.950  10.070   3.378
96398SOL    HW191091  14.011  10.136   3.345
96398SOL    HW291092  13.888  10.056   3.306
96399SOL     OW91093  10.062   0.069  12.599
96399SOL    HW191094  10.083   0.061  12.692
96399SOL    HW291095   9.993   0.004  12.585
96400SOL     OW91096   0.129   2.923  14.677
96400SOL    HW191097   0.134   2.839  14.723
96400SOL    HW291098   0.221   2.945  14.660
96401SOL     OW91099   7.964  13.242  14.859
96401SOL    HW191100   8.024  13.276  14.792
96401SOL    HW291101   7.893  13.203  14.809
96402SOL     OW91102   2.706   8.257   4.663
96402SOL    HW191103   2.645   8.196   4.622
96402SOL    HW291104   2.654   8.336   4.677
96403SOL     OW91105   4.088   9.814  12.034
96403SOL    HW191106   4.042   9.859  11.963
96403SOL    HW291107   4.130   9.740  11.991
96404SOL     OW91108   8.605  10.032   7.812
96404SOL    HW191109   8.604   9.940   7.784
96404SOL    HW291110   8.698  10.052   7.824
96405SOL     OW91111   2.493  12.437   3.370
96405SOL    HW191112   2.436  12.490   3.426
96405SOL    HW291113   2.496  12.351   3.413
96406SOL     OW91114   9.418  12.450   7.919
96406SOL    HW191115   9.486  12.478   7.980
96406SOL    HW291116   9.338  12.445   7.972
96407SOL     OW91117   7.996   4.665  10.168
96407SOL    HW191118   7.946   4.598  10.121
96407SOL    HW291119   8.059   4.615  10.220
96408SOL     OW91120  10.935   1.341   8.225
96408SOL    HW191121  10.910   1.283   8.297
96408SOL    HW291122  10.870   1.325   8.157
96409SOL     OW91123   3.955   1.173  12.537
96409SOL    HW191124   4.029   1.232  12.552
96409SOL    HW291125   3.899   1.221  12.477
96410SOL     OW91126   6.373   6.321   2.471
96410SOL    HW191127   6.344   6.311   2.380
96410SOL    HW291128   6.400   6.412   2.478
96411SOL     OW91129   5.683  13.567  12.749
96411SOL    HW191130   5.692  13.482  12.792
96411SOL    HW291131   5.609  13.555  12.689
96412SOL     OW91132   8.357   9.039   2.924
96412SOL    HW191133   8.300   8.965   2.904
96412SOL    HW291134   8.301   9.101   2.970
96413SOL     OW91135  10.777   5.203   6.990
96413SOL    HW191136  10.682   5.214   6.979
96413SOL    HW291137  10.804   5.277   7.044
96414SOL     OW91138   5.763   2.684   4.886
96414SOL    HW191139   5.677   2.671   4.846
96414SOL    HW291140   5.775   2.608   4.943
96415SOL     OW91141   4.068   2.715  13.470
96415SOL    HW191142   4.049   2.807  13.455
96415SOL    HW291143   3.988   2.680  13.509
96416SOL     OW91144  13.735   5.718   4.153
96416SOL    HW191145  13.693   5.766   4.225
96416SOL    HW291146  13.721   5.773   4.076
96417SOL     OW91147   3.781   6.288  12.297
96417SOL    HW191148   3.735   6.309  12.379
96417SOL    HW291149   3.743   6.347  12.232
96418SOL     OW91150  13.670  13.476  12.139
96418SOL    HW191151  13.736  13.526  12.186
96418SOL    HW291152  13.720  13.418  12.081
96419SOL     OW91153   2.379  13.911   1.953
96419SOL    HW191154   2.367  13.949   2.040
96419SOL    HW291155   2.290  13.899   1.919
96420SOL     OW91156   2.547  12.948   1.011
96420SOL    HW191157   2.606  12.885   0.969
96420SOL    HW291158   2.578  13.034   0.980
96421SOL     OW91159   2.221  11.637  14.498
96421SOL    HW191160   2.164  11.711  14.478
96421SOL    HW291161   2.281  11.669  14.565
96422SOL     OW91162   8.954   2.767   6.201
96422SOL    HW191163   9.041   2.762   6.241
96422SOL    HW291164   8.906   2.828   6.255
96423SOL     OW91165   3.482   8.584   8.723
96423SOL    HW191166   3.550   8.594   8.656
96423SOL    HW291167   3.483   8.491   8.745
96424SOL     OW91168   8.508   2.619   7.213
96424SOL    HW191169   8.426   2.571   7.225
96424SOL    HW291170   8.549   2.577   7.137
96425SOL     OW91171   2.034  10.210  11.497
96425SOL    HW191172   1.992  10.291  11.527
96425SOL    HW291173   2.046  10.159  11.577
96426SOL     OW91174   7.676   2.097   8.618
96426SOL    HW191175   7.668   2.061   8.706
96426SOL    HW291176   7.649   2.026   8.560
96427SOL     OW91177  13.642   8.598   7.674
96427SOL    HW191178  13.637   8.508   7.643
96427SOL    HW291179  13.623   8.652   7.598
96428SOL     OW91180   0.095   4.131  13.029
96428SOL    HW191181  14.882   4.127  13.025
96428SOL    HW291182   0.122   4.045  13.062
96429SOL     OW91183   5.763   6.016  10.281
96429SOL    HW191184   5.804   6.101  10.297
96429SOL    HW291185   5.723   6.024  10.194
96430SOL     OW91186  11.804   4.669   6.782
96430SOL    HW191187  11.851   4.679   6.864
96430SOL    HW291188  11.819   4.751   6.735
96431SOL     OW91189   2.606  14.214  14.584
96431SOL    HW191190   2.609  14.285  14.520
96431SOL    HW291191   2.542  14.243  14.650
96432SOL     OW91192  14.567   4.257  12.817
96432SOL    HW191193  14.516   4.316  12.761
96432SOL    HW291194  14.511   4.180  12.827
96433SOL     OW91195  11.067  11.710   4.040
96433SOL    HW191196  11.002  11.644   4.015
96433SOL    HW291197  11.142  11.692   3.983
96434SOL     OW91198  12.060   6.595  13.176
96434SOL    HW191199  12.119   6.593  13.251
96434SOL    HW291200  11.987   6.650  13.205
96435SOL     OW91201   3.560  12.675   1.717
96435SOL    HW191202   3.560  12.658   1.811
96435SOL    HW291203   3.502  12.608   1.680
96436SOL     OW91204   1.333  12.371   6.427
96436SOL    HW191205   1.276  12.441   6.394
96436SOL    HW291206   1.343  12.390   6.520
96437SOL     OW91207   7.026   9.745   6.066
96437SOL    HW191208   6.983   9.830   6.078
96437SOL    HW291209   7.095   9.762   6.002
96438SOL     OW91210   6.874   2.714   8.507
96438SOL    HW191211   6.805   2.649   8.508
96438SOL    HW291212   6.948   2.673   8.553
96439SOL     OW91213   3.753   8.921   2.114
96439SOL    HW191214   3.819   8.887   2.053
96439SOL    HW291215   3.802   8.944   2.192
96440SOL     OW91216   9.367   2.735   2.518
96440SOL    HW191217   9.337   2.684   2.593
96440SOL    HW291218   9.438   2.682   2.480
96441SOL     OW91219   7.447   8.799   4.466
96441SOL    HW191220   7.423   8.727   4.408
96441SOL    HW291221   7.541   8.811   4.453
96442SOL     OW91222   4.095   4.835   0.753
96442SOL    HW191223   4.061   4.823   0.841
96442SOL    HW291224   4.042   4.905   0.715
96443SOL     OW91225   3.675   4.932  10.630
96443SOL    HW191226   3.583   4.907  10.636
96443SOL    HW291227   3.706   4.933  10.721
96444SOL     OW91228   9.486  13.012  11.812
96444SOL    HW191229   9.517  12.952  11.744
96444SOL    HW291230   9.547  13.000  11.884
96445SOL     OW91231   6.650   0.919   3.896
96445SOL    HW191232   6.598   0.958   3.826
96445SOL    HW291233   6.738   0.911   3.859
96446SOL     OW91234  14.266   4.689   6.875
96446SOL    HW191235  14.322   4.664   6.948
96446SOL    HW291236  14.186   4.637   6.887
96447SOL     OW91237   9.771  10.726   4.341
96447SOL    HW191238   9.800  10.810   4.377
96447SOL    HW291239   9.809  10.661   4.400
96448SOL     OW91240  14.561  10.285   5.890
96448SOL    HW191241  14.638  10.324   5.932
96448SOL    HW291242  14.570  10.307   5.797
96449SOL     OW91243   5.491   1.128   8.734
96449SOL    HW191244   5.467   1.045   8.774
96449SOL    HW291245   5.435   1.192   8.777
96450SOL     OW91246   6.665   6.962   9.107
96450SOL    HW191247   6.678   7.042   9.159
96450SOL    HW291248   6.579   6.930   9.133
96451SOL     OW91249   9.592   7.736  12.394
96451SOL    HW191250   9.610   7.828  12.411
96451SOL    HW291251   9.501   7.724  12.419
96452SOL     OW91252  13.230   6.052  13.649
96452SOL    HW191253  13.201   6.142  13.632
96452SOL    HW291254  13.240   6.013  13.562
96453SOL     OW91255  13.217   0.277   3.716
96453SOL    HW191256  13.213   0.360   3.762
96453SOL    HW291257  13.196   0.211   3.782
96454SOL     OW91258   6.794   2.444  10.871
96454SOL    HW191259   6.810   2.377  10.938
96454SOL    HW291260   6.830   2.408  10.791
96455SOL     OW91261   7.548   4.009   3.722
96455SOL    HW191262   7.527   3.926   3.678
96455SOL    HW291263   7.638   3.997   3.753
96456SOL     OW91264  11.919  13.620  10.462
96456SOL    HW191265  11.855  13.608  10.531
96456SOL    HW291266  11.870  13.663  10.391
96457SOL     OW91267   7.311   6.360   2.225
96457SOL    HW191268   7.305   6.434   2.165
96457SOL    HW291269   7.263   6.389   2.303
96458SOL     OW91270  10.609   2.459  14.852
96458SOL    HW191271  10.699   2.481  14.876
96458SOL    HW291272  10.595   2.372   0.006
96459SOL     OW91273   9.213   6.624  14.674
96459SOL    HW191274   9.177   6.538  14.695
96459SOL    HW291275   9.155   6.686  14.717
96460SOL     OW91276   7.860  10.444   3.219
96460SOL    HW191277   7.788  10.504   3.238
96460SOL    HW291278   7.884  10.407   3.304
96461SOL     OW91279   2.100  10.943   7.039
96461SOL    HW191280   2.005  10.939   7.045
96461SOL    HW291281   2.127  10.851   7.028
96462SOL     OW91282   1.852   7.525   3.390
96462SOL    HW191283   1.866   7.443   3.436
96462SOL    HW291284   1.804   7.500   3.311
96463SOL     OW91285   8.131  12.374   9.418
96463SOL    HW191286   8.041  12.398   9.440
96463SOL    HW291287   8.162  12.445   9.362
96464SOL     OW91288   9.130   1.014   7.017
96464SOL    HW191289   9.134   1.108   6.999
96464SOL    HW291290   9.184   1.001   7.095
96465SOL     OW91291   6.827   9.889   3.745
96465SOL    HW191292   6.908   9.896   3.796
96465SOL    HW291293   6.850   9.921   3.658
96466SOL     OW91294   4.228   5.248   6.316
96466SOL    HW191295   4.202   5.232   6.407
96466SOL    HW291296   4.184   5.330   6.293
96467SOL     OW91297  10.583  10.548   7.011
96467SOL    HW191298  10.491  10.521   7.012
96467SOL    HW291299  10.631  10.466   7.021
96468SOL     OW91300   4.239   7.988   5.695
96468SOL    HW191301   4.235   7.992   5.791
96468SOL    HW291302   4.148   7.975   5.668
96469SOL     OW91303   9.044   9.026   2.299
96469SOL    HW191304   9.093   9.062   2.225
96469SOL    HW291305   9.021   9.102   2.352
96470SOL     OW91306  11.784   0.888  14.446
96470SOL    HW191307  11.717   0.881  14.378
96470SOL    HW291308  11.739   0.865  14.527
96471SOL     OW91309   0.138   0.341   7.432
96471SOL    HW191310   0.073   0.411   7.444
96471SOL    HW291311   0.168   0.352   7.342
96472SOL     OW91312  14.599   6.190   0.136
96472SOL    HW191313  14.656   6.266   0.135
96472SOL    HW291314  14.531   6.210   0.073
96473SOL     OW91315   3.752   8.129   6.216
96473SOL    HW191316   3.812   8.197   6.248
96473SOL    HW291317   3.682   8.127   6.281
96474SOL     OW91318  13.997  10.311   9.024
96474SOL    HW191319  13.904  10.336   9.021
96474SOL    HW291320  14.034  10.368   9.092
96475SOL     OW91321   9.366  11.741   1.447
96475SOL    HW191322   9.360  11.816   1.506
96475SOL    HW291323   9.416  11.773   1.372
96476SOL     OW91324   0.247  13.261   0.985
96476SOL    HW191325   0.216  13.181   0.942
96476SOL    HW291326   0.317  13.294   0.928
96477SOL     OW91327   8.020   1.059   3.908
96477SOL    HW191328   7.995   1.110   3.832
96477SOL    HW291329   8.085   1.113   3.953
96478SOL     OW91330   4.963   8.146   4.671
96478SOL    HW191331   4.952   8.239   4.692
96478SOL    HW291332   4.882   8.122   4.625
96479SOL     OW91333  10.649  13.325  13.240
96479SOL    HW191334  10.722  13.299  13.184
96479SOL    HW291335  10.581  13.259  13.223
96480SOL     OW91336   1.885   9.198   2.721
96480SOL    HW191337   1.979   9.204   2.738
96480SOL    HW291338   1.851   9.285   2.740
96481SOL     OW91339   9.012  10.394   1.393
96481SOL    HW191340   9.007  10.299   1.393
96481SOL    HW291341   8.924  10.422   1.422
96482SOL     OW91342   8.283  12.720  12.375
96482SOL    HW191343   8.255  12.629  12.385
96482SOL    HW291344   8.219  12.770  12.426
96483SOL     OW91345  12.951   8.916   6.311
96483SOL    HW191346  12.999   8.894   6.231
96483SOL    HW291347  13.014   8.904   6.381
96484SOL     OW91348   1.118   0.732   4.728
96484SOL    HW191349   1.168   0.708   4.650
96484SOL    HW291350   1.027   0.734   4.699
96485SOL     OW91351   9.470   7.479  14.638
96485SOL    HW191352   9.467   7.390  14.603
96485SOL    HW291353   9.563   7.501  14.638
96486SOL     OW91354   3.816   6.854  14.182
96486SOL    HW191355   3.826   6.919  14.112
96486SOL    HW291356   3.784   6.904  14.257
96487SOL     OW91357   9.190   1.835   6.263
96487SOL    HW191358   9.192   1.857   6.170
96487SOL    HW291359   9.131   1.900   6.302
96488SOL     OW91360  11.280   3.290  11.119
96488SOL    HW191361  11.309   3.311  11.208
96488SOL    HW291362  11.189   3.262  11.130
96489SOL     OW91363   3.073   6.791  13.147
96489SOL    HW191364   3.095   6.724  13.211
96489SOL    HW291365   2.978   6.797  13.149
96490SOL     OW91366   7.009  11.531   1.617
96490SOL    HW191367   6.942  11.570   1.561
96490SOL    HW291368   6.968  11.452   1.652
96491SOL     OW91369   8.933   9.353   4.619
96491SOL    HW191370   8.883   9.321   4.543
96491SOL    HW291371   8.885   9.431   4.647
96492SOL     OW91372   9.041  11.468  11.501
96492SOL    HW191373   9.049  11.402  11.432
96492SOL    HW291374   9.037  11.551  11.454
96493SOL     OW91375   7.944   4.114  13.002
96493SOL    HW191376   7.938   4.092  12.909
96493SOL    HW291377   7.911   4.203  13.008
96494SOL     OW91378   7.519  13.888   2.740
96494SOL    HW191379   7.607  13.926   2.738
96494SOL    HW291380   7.509  13.855   2.829
96495SOL     OW91381  10.924  14.354   3.845
96495SOL    HW191382  10.851  14.388   3.794
96495SOL    HW291383  10.976  14.303   3.783
96496SOL     OW91384   6.049   7.920  13.510
96496SOL    HW191385   6.081   7.977  13.439
96496SOL    HW291386   5.965   7.888  13.479
96497SOL     OW91387   8.970  14.072   2.650
96497SOL    HW191388   9.026  14.101   2.578
96497SOL    HW291389   8.917  14.148   2.672
96498SOL     OW91390   9.192   3.764   2.355
96498SOL    HW191391   9.198   3.694   2.290
96498SOL    HW291392   9.272   3.757   2.406
96499SOL     OW91393  11.775  12.640   6.299
96499SOL    HW191394  11.737  12.725   6.319
96499SOL    HW291395  11.818  12.653   6.215
96500SOL     OW91396  12.013   0.750  14.867
96500SOL    HW191397  12.068   0.749   0.063
96500SOL    HW291398  11.954   0.825  14.879
96501SOL     OW91399   3.215  12.858   3.339
96501SOL    HW191400   3.229  12.764   3.354
96501SOL    HW291401   3.169  12.887   3.418
96502SOL     OW91402  10.846  11.377   4.313
96502SOL    HW191403  10.888  11.321   4.379
96502SOL    HW291404  10.916  11.436   4.284
96503SOL     OW91405  10.419   8.968   3.397
96503SOL    HW191406  10.384   8.918   3.470
96503SOL    HW291407  10.401   8.915   3.320
96504SOL     OW91408   7.448  12.114   5.047
96504SOL    HW191409   7.455  12.033   4.998
96504SOL    HW291410   7.531  12.159   5.032
96505SOL     OW91411   8.502   3.428   5.176
96505SOL    HW191412   8.514   3.426   5.271
96505SOL    HW291413   8.408   3.440   5.163
96506SOL     OW91414   2.199   8.106  14.670
96506SOL    HW191415   2.231   8.130  14.582
96506SOL    HW291416   2.249   8.162  14.729
96507SOL     OW91417  14.310   8.732   2.805
96507SOL    HW191418  14.371   8.680   2.857
96507SOL    HW291419  14.364   8.768   2.734
96508SOL     OW91420  14.613   2.390   7.727
96508SOL    HW191421  14.663   2.471   7.729
96508SOL    HW291422  14.666   2.331   7.674
96509SOL     OW91423   4.590   1.481   4.292
96509SOL    HW191424   4.540   1.552   4.330
96509SOL    HW291425   4.524   1.420   4.258
96510SOL     OW91426   1.178   7.543   5.976
96510SOL    HW191427   1.271   7.520   5.981
96510SOL    HW291428   1.142   7.482   5.911
96511SOL     OW91429   2.247   9.592   4.543
96511SOL    HW191430   2.154   9.571   4.552
96511SOL    HW291431   2.250   9.666   4.482
96512SOL     OW91432  10.802   2.322   0.758
96512SOL    HW191433  10.722   2.351   0.801
96512SOL    HW291434  10.861   2.299   0.831
96513SOL     OW91435   3.587  12.704   7.347
96513SOL    HW191436   3.606  12.620   7.306
96513SOL    HW291437   3.654  12.714   7.415
96514SOL     OW91438   4.054  13.096   6.580
96514SOL    HW191439   4.071  13.025   6.642
96514SOL    HW291440   4.067  13.176   6.631
96515SOL     OW91441   8.513   1.012   6.146
96515SOL    HW191442   8.483   1.062   6.070
96515SOL    HW291443   8.593   0.968   6.116
96516SOL     OW91444   9.719   9.688  12.244
96516SOL    HW191445   9.624   9.690  12.259
96516SOL    HW291446   9.734   9.605  12.199
96517SOL     OW91447   3.956  13.434   5.095
96517SOL    HW191448   4.012  13.364   5.061
96517SOL    HW291449   4.016  13.505   5.116
96518SOL     OW91450   8.252  12.873   2.815
96518SOL    HW191451   8.181  12.832   2.766
96518SOL    HW291452   8.331  12.830   2.784
96519SOL     OW91453  12.369  12.735  10.345
96519SOL    HW191454  12.362  12.805  10.410
96519SOL    HW291455  12.390  12.780  10.263
96520SOL     OW91456  11.109   3.791   8.040
96520SOL    HW191457  11.146   3.854   8.100
96520SOL    HW291458  11.064   3.844   7.974
96521SOL     OW91459  10.246   2.764  12.760
96521SOL    HW191460  10.238   2.792  12.851
96521SOL    HW291461  10.216   2.838  12.709
96522SOL     OW91462   9.305  12.713   4.807
96522SOL    HW191463   9.289  12.650   4.737
96522SOL    HW291464   9.219  12.726   4.848
96523SOL     OW91465  13.410  13.940   5.350
96523SOL    HW191466  13.341  13.940   5.283
96523SOL    HW291467  13.365  13.917   5.431
96524SOL     OW91468  13.061   9.705   8.110
96524SOL    HW191469  13.021   9.697   8.197
96524SOL    HW291470  12.988   9.700   8.049
96525SOL     OW91471   9.140   4.335  13.916
96525SOL    HW191472   9.173   4.371  13.833
96525SOL    HW291473   9.093   4.256  13.890
96526SOL     OW91474   2.283   2.409   9.601
96526SOL    HW191475   2.373   2.375   9.597
96526SOL    HW291476   2.240   2.354   9.666
96527SOL     OW91477  10.562   4.921  14.416
96527SOL    HW191478  10.597   4.844  14.373
96527SOL    HW291479  10.499   4.886  14.479
96528SOL     OW91480   8.259   6.653   4.816
96528SOL    HW191481   8.319   6.725   4.833
96528SOL    HW291482   8.305   6.597   4.753
96529SOL     OW91483   4.703  11.733  12.845
96529SOL    HW191484   4.683  11.785  12.923
96529SOL    HW291485   4.662  11.648  12.861
96530SOL     OW91486   9.896   2.574   3.368
96530SOL    HW191487   9.814   2.564   3.319
96530SOL    HW291488   9.897   2.666   3.394
96531SOL     OW91489   3.283   2.914  12.332
96531SOL    HW191490   3.356   2.921  12.271
96531SOL    HW291491   3.307   2.844  12.392
96532SOL     OW91492   4.225   7.028  10.254
96532SOL    HW191493   4.231   7.038  10.159
96532SOL    HW291494   4.306   7.065  10.288
96533SOL     OW91495  14.386   2.439  14.402
96533SOL    HW191496  14.449   2.386  14.450
96533SOL    HW291497  14.310   2.382  14.391
96534SOL     OW91498   8.507   3.354   0.790
96534SOL    HW191499   8.529   3.312   0.707
96534SOL    HW291500   8.585   3.343   0.845
96535SOL     OW91501   0.175   0.684   1.021
96535SOL    HW191502   0.260   0.693   0.977
96535SOL    HW291503   0.176   0.752   1.089
96536SOL     OW91504  14.813  13.167  14.345
96536SOL    HW191505  14.833  13.238  14.406
96536SOL    HW291506  14.809  13.210  14.259
96537SOL     OW91507  12.824  12.966  12.562
96537SOL    HW191508  12.783  12.882  12.540
96537SOL    HW291509  12.772  13.031  12.515
96538SOL     OW91510   0.028   5.516  12.059
96538SOL    HW191511   0.087   5.467  12.115
96538SOL    HW291512  14.822   5.493  12.089
96539SOL     OW91513   1.872   3.311  12.500
96539SOL    HW191514   1.965   3.332  12.491
96539SOL    HW291515   1.871   3.217  12.520
96540SOL     OW91516   1.494   7.053   6.967
96540SOL    HW191517   1.445   7.135   6.966
96540SOL    HW291518   1.440   6.992   6.917
96541SOL     OW91519   2.965   4.318   2.460
96541SOL    HW191520   2.998   4.307   2.549
96541SOL    HW291521   2.975   4.412   2.443
96542SOL     OW91522   0.467   3.797  11.979
96542SOL    HW191523   0.539   3.745  12.014
96542SOL    HW291524   0.410   3.732  11.937
96543SOL     OW91525   3.029   7.378   2.268
96543SOL    HW191526   3.088   7.353   2.198
96543SOL    HW291527   2.966   7.437   2.227
96544SOL     OW91528  12.222   1.478  11.270
96544SOL    HW191529  12.205   1.433  11.353
96544SOL    HW291530  12.303   1.526  11.285
96545SOL     OW91531   4.598   3.683  12.600
96545SOL    HW191532   4.568   3.753  12.543
96545SOL    HW291533   4.639   3.620  12.541
96546SOL     OW91534   7.315  10.787   3.366
96546SOL    HW191535   7.368  10.833   3.431
96546SOL    HW291536   7.244  10.748   3.417
96547SOL     OW91537   1.554  11.871  11.235
96547SOL    HW191538   1.514  11.911  11.157
96547SOL    HW291539   1.550  11.940  11.301
96548SOL     OW91540  13.793   2.008  11.881
96548SOL    HW191541  13.794   2.102  11.865
96548SOL    HW291542  13.763   1.999  11.971
96549SOL     OW91543   4.391   5.386  10.406
96549SOL    HW191544   4.464   5.445  10.389
96549SOL    HW291545   4.354   5.368  10.319
96550SOL     OW91546  14.775   0.099  13.921
96550SOL    HW191547  14.857   0.090  13.871
96550SOL    HW291548  14.794   0.166  13.986
96551SOL     OW91549  11.344  12.248   0.332
96551SOL    HW191550  11.350  12.300   0.252
96551SOL    HW291551  11.325  12.159   0.301
96552SOL     OW91552  13.314   3.021  12.138
96552SOL    HW191553  13.333   2.965  12.063
96552SOL    HW291554  13.331   3.110  12.107
96553SOL     OW91555   6.265   4.184  12.188
96553SOL    HW191556   6.270   4.275  12.217
96553SOL    HW291557   6.196   4.183  12.122
96554SOL     OW91558   8.283   7.971   1.867
96554SOL    HW191559   8.357   7.993   1.923
96554SOL    HW291560   8.256   7.884   1.896
96555SOL     OW91561   7.953   4.723   7.728
96555SOL    HW191562   7.896   4.799   7.715
96555SOL    HW291563   7.968   4.689   7.639
96556SOL     OW91564   8.601   2.029   3.725
96556SOL    HW191565   8.601   2.078   3.642
96556SOL    HW291566   8.614   2.097   3.792
96557SOL     OW91567   2.472   4.206   9.005
96557SOL    HW191568   2.509   4.160   8.930
96557SOL    HW291569   2.532   4.279   9.021
96558SOL     OW91570   8.775   9.869   1.449
96558SOL    HW191571   8.778   9.857   1.544
96558SOL    HW291572   8.819   9.791   1.413
96559SOL     OW91573   6.609   0.734  11.484
96559SOL    HW191574   6.570   0.808  11.438
96559SOL    HW291575   6.582   0.657  11.433
96560SOL     OW91576   1.818   8.345   5.623
96560SOL    HW191577   1.866   8.272   5.662
96560SOL    HW291578   1.838   8.419   5.681
96561SOL     OW91579   6.151   8.494   2.655
96561SOL    HW191580   6.188   8.575   2.690
96561SOL    HW291581   6.137   8.512   2.562
96562SOL     OW91582   7.043   3.793  12.881
96562SOL    HW191583   6.993   3.874  12.872
96562SOL    HW291584   6.981   3.731  12.920
96563SOL     OW91585  11.153   1.589   0.659
96563SOL    HW191586  11.076   1.618   0.707
96563SOL    HW291587  11.159   1.495   0.678
96564SOL     OW91588   6.764   9.521   1.038
96564SOL    HW191589   6.795   9.582   1.105
96564SOL    HW291590   6.840   9.508   0.980
96565SOL     OW91591  13.386  13.700   0.932
96565SOL    HW191592  13.292  13.691   0.918
96565SOL    HW291593  13.416  13.610   0.948
96566SOL     OW91594   3.442   1.131  13.847
96566SOL    HW191595   3.443   1.072  13.771
96566SOL    HW291596   3.521   1.108  13.896
96567SOL     OW91597  13.955   3.361  11.088
96567SOL    HW191598  14.020   3.409  11.036
96567SOL    HW291599  14.004   3.330  11.164
96568SOL     OW91600  11.609  13.416   6.763
96568SOL    HW191601  11.529  13.390   6.716
96568SOL    HW291602  11.594  13.508   6.786
96569SOL     OW91603  11.500   2.317   5.908
96569SOL    HW191604  11.408   2.331   5.886
96569SOL    HW291605  11.531   2.403   5.938
96570SOL     OW91606  14.381   4.407   3.253
96570SOL    HW191607  14.405   4.489   3.297
96570SOL    HW291608  14.456   4.350   3.268
96571SOL     OW91609   8.577   5.916   6.490
96571SOL    HW191610   8.487   5.884   6.495
96571SOL    HW291611   8.625   5.844   6.448
96572SOL     OW91612  13.919   1.576   5.096
96572SOL    HW191613  14.000   1.526   5.087
96572SOL    HW291614  13.887   1.555   5.183
96573SOL     OW91615  13.500  10.013   3.089
96573SOL    HW191616  13.443   9.937   3.098
96573SOL    HW291617  13.452  10.084   3.132
96574SOL     OW91618   5.862   9.273   1.538
96574SOL    HW191619   5.881   9.213   1.610
96574SOL    HW291620   5.928   9.253   1.471
96575SOL     OW91621   6.111   3.313  11.221
96575SOL    HW191622   6.046   3.277  11.161
96575SOL    HW291623   6.099   3.264  11.302
96576SOL     OW91624   8.301   3.964  11.740
96576SOL    HW191625   8.316   4.045  11.790
96576SOL    HW291626   8.206   3.959  11.729
96577SOL     OW91627   3.491  13.553  13.676
96577SOL    HW191628   3.465  13.644  13.669
96577SOL    HW291629   3.413  13.508  13.708
96578SOL     OW91630   8.714  11.041   5.010
96578SOL    HW191631   8.634  11.092   4.997
96578SOL    HW291632   8.722  10.989   4.931
96579SOL     OW91633   9.512   6.803   7.166
96579SOL    HW191634   9.518   6.853   7.085
96579SOL    HW291635   9.452   6.853   7.221
96580SOL     OW91636   6.001  14.217   8.238
96580SOL    HW191637   5.997  14.251   8.328
96580SOL    HW291638   6.085  14.250   8.204
96581SOL     OW91639  13.024   8.224  10.105
96581SOL    HW191640  13.045   8.188  10.191
96581SOL    HW291641  13.025   8.319  10.117
96582SOL     OW91642  14.304   1.939   1.273
96582SOL    HW191643  14.397   1.963   1.281
96582SOL    HW291644  14.257   2.019   1.298
96583SOL     OW91645   1.481   8.647   7.148
96583SOL    HW191646   1.553   8.703   7.118
96583SOL    HW291647   1.523   8.563   7.166
96584SOL     OW91648   1.771  11.106  14.520
96584SOL    HW191649   1.703  11.073  14.580
96584SOL    HW291650   1.788  11.032  14.462
96585SOL     OW91651  10.017  11.550   3.685
96585SOL    HW191652   9.977  11.637   3.692
96585SOL    HW291653  10.108  11.563   3.712
96586SOL     OW91654   8.401  13.073   2.587
96586SOL    HW191655   8.453  13.134   2.638
96586SOL    HW291656   8.439  12.987   2.606
96587SOL     OW91657  10.748  10.207  14.417
96587SOL    HW191658  10.686  10.278  14.402
96587SOL    HW291659  10.834  10.249  14.410
96588SOL     OW91660  13.632   2.339  10.728
96588SOL    HW191661  13.574   2.352  10.653
96588SOL    HW291662  13.609   2.409  10.789
96589SOL     OW91663  14.423   1.574   2.480
96589SOL    HW191664  14.469   1.520   2.545
96589SOL    HW291665  14.482   1.647   2.463
96590SOL     OW91666   9.266   3.914  11.576
96590SOL    HW191667   9.229   3.902  11.489
96590SOL    HW291668   9.348   3.865  11.574
96591SOL     OW91669  11.669   4.462   5.245
96591SOL    HW191670  11.764   4.473   5.256
96591SOL    HW291671  11.650   4.505   5.162
96592SOL     OW91672  10.710  12.789   8.473
96592SOL    HW191673  10.774  12.811   8.405
96592SOL    HW291674  10.658  12.869   8.484
96593SOL     OW91675  14.726   2.017   0.297
96593SOL    HW191676  14.694   2.086   0.356
96593SOL    HW291677  14.821   2.020   0.306
96594SOL     OW91678   8.979   2.189  11.984
96594SOL    HW191679   8.963   2.220  12.073
96594SOL    HW291680   8.926   2.247  11.929
96595SOL     OW91681  13.935   1.016   2.084
96595SOL    HW191682  14.027   0.991   2.078
96595SOL    HW291683  13.898   0.958   2.151
96596SOL     OW91684  13.545  14.327   7.876
96596SOL    HW191685  13.589  14.293   7.954
96596SOL    HW291686  13.455  14.295   7.884
96597SOL     OW91687  12.032   5.421   5.775
96597SOL    HW191688  12.072   5.508   5.771
96597SOL    HW291689  12.008   5.410   5.867
96598SOL     OW91690   4.313   1.669   6.130
96598SOL    HW191691   4.241   1.616   6.163
96598SOL    HW291692   4.304   1.753   6.176
96599SOL     OW91693   9.107   8.418  13.635
96599SOL    HW191694   9.164   8.341  13.634
96599SOL    HW291695   9.048   8.404  13.709
96600SOL     OW91696   7.199  13.932   1.827
96600SOL    HW191697   7.160  14.009   1.786
96600SOL    HW291698   7.163  13.932   1.916
96601SOL     OW91699   0.412  13.555  13.585
96601SOL    HW191700   0.464  13.487  13.541
96601SOL    HW291701   0.477  13.607  13.632
96602SOL     OW91702   9.317  11.887   8.350
96602SOL    HW191703   9.394  11.908   8.403
96602SOL    HW291704   9.295  11.969   8.305
96603SOL     OW91705   4.717  13.089  11.635
96603SOL    HW191706   4.802  13.062  11.669
96603SOL    HW291707   4.735  13.122  11.548
96604SOL     OW91708   1.502  14.757  11.222
96604SOL    HW191709   1.444  14.787  11.152
96604SOL    HW291710   1.558  14.833  11.241
96605SOL     OW91711   7.526   5.456   2.821
96605SOL    HW191712   7.499   5.413   2.902
96605SOL    HW291713   7.455   5.439   2.759
96606SOL     OW91714  12.681   8.324   2.141
96606SOL    HW191715  12.665   8.349   2.232
96606SOL    HW291716  12.665   8.404   2.091
96607SOL     OW91717   6.802   8.236   1.210
96607SOL    HW191718   6.893   8.252   1.185
96607SOL    HW291719   6.808   8.203   1.300
96608SOL     OW91720   4.597  11.205   8.198
96608SOL    HW191721   4.603  11.115   8.232
96608SOL    HW291722   4.599  11.260   8.276
96609SOL     OW91723  12.631   9.825   6.045
96609SOL    HW191724  12.553   9.806   6.098
96609SOL    HW291725  12.617   9.914   6.012
96610SOL     OW91726   0.370  13.558  11.001
96610SOL    HW191727   0.383  13.642  11.045
96610SOL    HW291728   0.311  13.577  10.928
96611SOL     OW91729  14.063   4.490   6.817
96611SOL    HW191730  14.075   4.411   6.870
96611SOL    HW291731  14.007   4.546   6.871
96612SOL     OW91732   1.449   0.829   3.503
96612SOL    HW191733   1.417   0.874   3.581
96612SOL    HW291734   1.402   0.746   3.501
96613SOL     OW91735   8.925   3.833   1.943
96613SOL    HW191736   8.968   3.858   1.861
96613SOL    HW291737   8.935   3.908   2.000
96614SOL     OW91738   5.116   6.305   2.938
96614SOL    HW191739   5.138   6.324   2.847
96614SOL    HW291740   5.170   6.367   2.989
96615SOL     OW91741   0.001   5.341   3.425
96615SOL    HW191742  14.805   5.349   3.480
96615SOL    HW291743   0.074   5.349   3.487
96616SOL     OW91744  10.715  10.202   4.778
96616SOL    HW191745  10.695  10.259   4.704
96616SOL    HW291746  10.720  10.115   4.740
96617SOL     OW91747  13.934   5.129  14.198
96617SOL    HW191748  13.927   5.224  14.203
96617SOL    HW291749  14.022   5.113  14.165
96618SOL     OW91750  10.385   1.147   4.642
96618SOL    HW191751  10.477   1.142   4.667
96618SOL    HW291752  10.385   1.142   4.547
96619SOL     OW91753   6.667   3.934  14.771
96619SOL    HW191754   6.593   3.959  14.826
96619SOL    HW291755   6.699   4.017  14.734
96620SOL     OW91756   6.555  12.517   0.692
96620SOL    HW191757   6.473  12.563   0.673
96620SOL    HW291758   6.537  12.426   0.671
96621SOL     OW91759   8.144  12.529   8.268
96621SOL    HW191760   8.096  12.496   8.192
96621SOL    HW291761   8.213  12.584   8.231
96622SOL     OW91762   0.357  12.431  13.598
96622SOL    HW191763   0.404  12.481  13.531
96622SOL    HW291764   0.347  12.493  13.671
96623SOL     OW91765   4.005   5.147   3.186
96623SOL    HW191766   3.916   5.180   3.171
96623SOL    HW291767   4.007   5.063   3.141
96624SOL     OW91768  13.556  12.900   5.007
96624SOL    HW191769  13.566  12.991   4.978
96624SOL    HW291770  13.634  12.883   5.060
96625SOL     OW91771  11.183   8.649  10.109
96625SOL    HW191772  11.144   8.652  10.196
96625SOL    HW291773  11.271   8.683  10.121
96626SOL     OW91774  14.848   8.538   8.287
96626SOL    HW191775  14.784   8.580   8.229
96626SOL    HW291776   0.045   8.530   8.234
96627SOL     OW91777  10.525   8.215  14.635
96627SOL    HW191778  10.607   8.179  14.670
96627SOL    HW291779  10.495   8.276  14.702
96628SOL     OW91780  14.685  12.448   7.787
96628SOL    HW191781  14.631  12.527   7.793
96628SOL    HW291782  14.709  12.428   7.878
96629SOL     OW91783   6.910   2.923   3.648
96629SOL    HW191784   6.830   2.970   3.671
96629SOL    HW291785   6.894   2.833   3.676
96630SOL     OW91786   2.057   4.622   0.544
96630SOL    HW191787   2.105   4.696   0.582
96630SOL    HW291788   1.993   4.598   0.611
96631SOL     OW91789   5.044   1.378   1.331
96631SOL    HW191790   4.972   1.316   1.329
96631SOL    HW291791   5.003   1.462   1.348
96632SOL     OW91792  13.608   3.670  13.807
96632SOL    HW191793  13.622   3.747  13.861
96632SOL    HW291794  13.514   3.670  13.788
96633SOL     OW91795  13.503   6.972   2.776
96633SOL    HW191796  13.493   6.999   2.868
96633SOL    HW291797  13.497   7.054   2.727
96634SOL     OW91798   5.412  14.491  13.300
96634SOL    HW191799   5.385  14.544  13.375
96634SOL    HW291800   5.471  14.426  13.338
96635SOL     OW91801   0.744  11.040   5.786
96635SOL    HW191802   0.740  11.080   5.700
96635SOL    HW291803   0.695  10.958   5.778
96636SOL     OW91804  12.607   5.129   3.861
96636SOL    HW191805  12.644   5.122   3.773
96636SOL    HW291806  12.635   5.049   3.905
96637SOL     OW91807  14.820   3.237  14.650
96637SOL    HW191808  14.876   3.313  14.667
96637SOL    HW291809  14.865   3.188  14.582
96638SOL     OW91810   8.628   9.152   6.256
96638SOL    HW191811   8.610   9.240   6.223
96638SOL    HW291812   8.651   9.164   6.348
96639SOL     OW91813   2.852   2.861   2.275
96639SOL    HW191814   2.872   2.767   2.273
96639SOL    HW291815   2.868   2.891   2.186
96640SOL     OW91816   2.654   5.285  12.153
96640SOL    HW191817   2.737   5.296  12.200
96640SOL    HW291818   2.600   5.358  12.183
96641SOL     OW91819   8.945  12.669  10.268
96641SOL    HW191820   8.873  12.731  10.266
96641SOL    HW291821   9.023  12.721  10.247
96642SOL     OW91822   9.973   1.926   1.594
96642SOL    HW191823  10.032   1.937   1.520
96642SOL    HW291824   9.886   1.943   1.559
96643SOL     OW91825  14.831   6.708   8.592
96643SOL    HW191826   0.033   6.734   8.628
96643SOL    HW291827  14.832   6.741   8.502
96644SOL     OW91828   4.623   3.873  14.536
96644SOL    HW191829   4.614   3.797  14.478
96644SOL    HW291830   4.718   3.886  14.542
96645SOL     OW91831   5.796   8.995  11.594
96645SOL    HW191832   5.876   8.946  11.572
96645SOL    HW291833   5.814   9.084  11.565
96646SOL     OW91834  12.172  10.295  11.686
96646SOL    HW191835  12.092  10.288  11.737
96646SOL    HW291836  12.239  10.322  11.748
96647SOL     OW91837   1.632  13.031   4.438
96647SOL    HW191838   1.716  13.015   4.396
96647SOL    HW291839   1.568  12.990   4.379
96648SOL     OW91840  12.626   5.439  14.612
96648SOL    HW191841  12.640   5.410  14.702
96648SOL    HW291842  12.703   5.409  14.565
96649SOL     OW91843   3.845   4.907   1.883
96649SOL    HW191844   3.883   4.985   1.923
96649SOL    HW291845   3.914   4.841   1.891
96650SOL     OW91846   1.431   8.416   2.269
96650SOL    HW191847   1.430   8.470   2.190
96650SOL    HW291848   1.482   8.466   2.332
96651SOL     OW91849   3.412  11.614  14.196
96651SOL    HW191850   3.329  11.568  14.194
96651SOL    HW291851   3.406  11.680  14.127
96652SOL     OW91852   0.192   6.552   2.891
96652SOL    HW191853   0.267   6.574   2.947
96652SOL    HW291854   0.180   6.457   2.903
96653SOL     OW91855  12.491  11.920  13.149
96653SOL    HW191856  12.428  11.914  13.221
96653SOL    HW291857  12.469  11.845  13.093
96654SOL     OW91858   6.567  10.368   2.618
96654SOL    HW191859   6.513  10.290   2.606
96654SOL    HW291860   6.523  10.418   2.686
96655SOL     OW91861   9.318   5.992   3.353
96655SOL    HW191862   9.272   5.915   3.385
96655SOL    HW291863   9.411   5.970   3.360
96656SOL     OW91864  11.752   6.905   8.770
96656SOL    HW191865  11.721   6.874   8.684
96656SOL    HW291866  11.736   6.999   8.769
96657SOL     OW91867   7.897  10.781  13.481
96657SOL    HW191868   7.835  10.740  13.541
96657SOL    HW291869   7.886  10.875  13.495
96658SOL     OW91870  10.367  11.538   6.423
96658SOL    HW191871  10.347  11.460   6.474
96658SOL    HW291872  10.292  11.596   6.438
96659SOL     OW91873   6.809   2.705   7.598
96659SOL    HW191874   6.849   2.618   7.594
96659SOL    HW291875   6.723   2.690   7.638
96660SOL     OW91876   7.115   3.061   9.969
96660SOL    HW191877   7.152   3.053  10.057
96660SOL    HW291878   7.131   3.152   9.944
96661SOL     OW91879   0.244   7.839   0.367
96661SOL    HW191880   0.317   7.807   0.314
96661SOL    HW291881   0.170   7.784   0.341
96662SOL     OW91882   5.993   2.642   6.346
96662SOL    HW191883   5.910   2.615   6.386
96662SOL    HW291884   6.031   2.561   6.313
96663SOL     OW91885   5.279   5.731   6.684
96663SOL    HW191886   5.331   5.700   6.759
96663SOL    HW291887   5.343   5.774   6.628
96664SOL     OW91888   0.998   6.344   5.703
96664SOL    HW191889   0.954   6.429   5.704
96664SOL    HW291890   0.940   6.286   5.752
96665SOL     OW91891  11.134  12.242   5.416
96665SOL    HW191892  11.216  12.208   5.450
96665SOL    HW291893  11.080  12.258   5.493
96666SOL     OW91894   7.532   5.153   3.156
96666SOL    HW191895   7.560   5.072   3.199
96666SOL    HW291896   7.612   5.202   3.142
96667SOL     OW91897   3.240   2.646  14.079
96667SOL    HW191898   3.320   2.598  14.100
96667SOL    HW291899   3.186   2.639  14.157
96668SOL     OW91900  13.804  13.271  14.164
96668SOL    HW191901  13.860  13.226  14.101
96668SOL    HW291902  13.737  13.206  14.187
96669SOL     OW91903   8.917  13.081  14.725
96669SOL    HW191904   8.929  12.999  14.774
96669SOL    HW291905   8.856  13.058  14.655
96670SOL     OW91906   5.123  14.427   2.517
96670SOL    HW191907   5.155  14.341   2.489
96670SOL    HW291908   5.110  14.418   2.612
96671SOL     OW91909   8.110  14.449  10.821
96671SOL    HW191910   8.200  14.466  10.795
96671SOL    HW291911   8.069  14.536  10.824
96672SOL     OW91912   3.757   3.473  13.543
96672SOL    HW191913   3.802   3.418  13.607
96672SOL    HW291914   3.740   3.414  13.469
96673SOL     OW91915   1.455  13.288  14.686
96673SOL    HW191916   1.368  13.261  14.716
96673SOL    HW291917   1.502  13.311  14.765
96674SOL     OW91918   3.247  12.188  12.562
96674SOL    HW191919   3.273  12.204  12.471
96674SOL    HW291920   3.306  12.118  12.591
96675SOL     OW91921  11.128   6.562   4.615
96675SOL    HW191922  11.216   6.592   4.639
96675SOL    HW291923  11.073   6.639   4.628
96676SOL     OW91924   4.376  12.169   8.222
96676SOL    HW191925   4.384  12.092   8.165
96676SOL    HW291926   4.320  12.139   8.294
96677SOL     OW91927   1.415   2.715   3.438
96677SOL    HW191928   1.388   2.749   3.353
96677SOL    HW291929   1.507   2.739   3.446
96678SOL     OW91930  14.639   1.971  10.022
96678SOL    HW191931  14.665   1.982   9.930
96678SOL    HW291932  14.717   1.936  10.065
96679SOL     OW91933  14.285   8.840  13.772
96679SOL    HW191934  14.357   8.864  13.713
96679SOL    HW291935  14.294   8.745  13.783
96680SOL     OW91936   8.323  14.744  10.909
96680SOL    HW191937   8.381  14.679  10.948
96680SOL    HW291938   8.244  14.741  10.963
96681SOL     OW91939   0.629   3.829   9.823
96681SOL    HW191940   0.641   3.738   9.851
96681SOL    HW291941   0.638   3.826   9.728
96682SOL     OW91942  14.001  14.658   5.653
96682SOL    HW191943  13.965  14.703   5.729
96682SOL    HW291944  13.927  14.649   5.593
96683SOL     OW91945   3.790   8.374   9.932
96683SOL    HW191946   3.834   8.457   9.915
96683SOL    HW291947   3.861   8.310   9.939
96684SOL     OW91948  12.928   1.518  12.276
96684SOL    HW191949  12.878   1.584  12.323
96684SOL    HW291950  12.909   1.534  12.184
96685SOL     OW91951   7.774   7.021   3.652
96685SOL    HW191952   7.817   6.965   3.588
96685SOL    HW291953   7.681   6.997   3.647
96686SOL     OW91954   4.964   8.957  13.951
96686SOL    HW191955   4.947   9.048  13.976
96686SOL    HW291956   4.997   8.963  13.861
96687SOL     OW91957   8.055  12.296   7.791
96687SOL    HW191958   8.013  12.365   7.842
96687SOL    HW291959   8.033  12.317   7.700
96688SOL     OW91960  12.651  14.316   4.825
96688SOL    HW191961  12.558  14.309   4.807
96688SOL    HW291962  12.692  14.320   4.738
96689SOL     OW91963  12.049   3.629   3.380
96689SOL    HW191964  12.094   3.615   3.463
96689SOL    HW291965  11.959   3.649   3.404
96690SOL     OW91966   6.712   4.087  11.159
96690SOL    HW191967   6.788   4.079  11.216
96690SOL    HW291968   6.738   4.043  11.078
96691SOL     OW91969   0.155   5.652  10.720
96691SOL    HW191970   0.213   5.581  10.747
96691SOL    HW291971   0.080   5.647  10.779
96692SOL     OW91972   3.229  11.059   5.928
96692SOL    HW191973   3.146  11.043   5.972
96692SOL    HW291974   3.280  11.110   5.990
96693SOL     OW91975  12.516   0.757   1.085
96693SOL    HW191976  12.528   0.758   0.990
96693SOL    HW291977  12.451   0.826   1.101
96694SOL     OW91978  12.694   7.224   4.081
96694SOL    HW191979  12.614   7.275   4.090
96694SOL    HW291980  12.673   7.139   4.120
96695SOL     OW91981  13.741   9.106   9.879
96695SOL    HW191982  13.665   9.106   9.820
96695SOL    HW291983  13.816   9.103   9.820
96696SOL     OW91984   7.338   9.946  14.217
96696SOL    HW191985   7.275   9.889  14.174
96696SOL    HW291986   7.421   9.899  14.209
96697SOL     OW91987   2.186  13.394   3.772
96697SOL    HW191988   2.151  13.483   3.770
96697SOL    HW291989   2.278  13.404   3.797
96698SOL     OW91990  14.440   1.923  11.264
96698SOL    HW191991  14.360   1.949  11.310
96698SOL    HW291992  14.410   1.893  11.178
96699SOL     OW91993   6.845  14.416  13.718
96699SOL    HW191994   6.841  14.422  13.622
96699SOL    HW291995   6.848  14.507  13.747
96700SOL     OW91996   2.487   8.999   2.420
96700SOL    HW191997   2.509   8.936   2.351
96700SOL    HW291998   2.489   9.084   2.377
96701SOL     OW91999  14.817   0.737   7.923
96701SOL    HW192000  14.795   0.810   7.981
96701SOL    HW292001  14.732   0.696   7.903
96702SOL     OW92002   1.461  14.494   3.431
96702SOL    HW192003   1.484  14.492   3.338
96702SOL    HW292004   1.366  14.504   3.431
96703SOL     OW92005   0.220   1.165   2.881
96703SOL    HW192006   0.265   1.170   2.965
96703SOL    HW292007   0.279   1.209   2.820
96704SOL     OW92008   6.049   4.730  14.247
96704SOL    HW192009   6.112   4.660  14.232
96704SOL    HW292010   6.006   4.707  14.330
96705SOL     OW92011   6.283   9.316   4.682
96705SOL    HW192012   6.212   9.357   4.632
96705SOL    HW292013   6.266   9.222   4.676
96706SOL     OW92014   5.504   5.470   6.309
96706SOL    HW192015   5.557   5.478   6.230
96706SOL    HW292016   5.566   5.443   6.377
96707SOL     OW92017   1.024  11.084   0.118
96707SOL    HW192018   0.972  11.164   0.110
96707SOL    HW292019   1.081  11.099   0.193
96708SOL     OW92020  13.086   4.613   7.996
96708SOL    HW192021  13.134   4.553   7.938
96708SOL    HW292022  13.043   4.555   8.059
96709SOL     OW92023   0.889   7.797   8.032
96709SOL    HW192024   0.843   7.838   7.958
96709SOL    HW292025   0.971   7.846   8.039
96710SOL     OW92026   0.349  12.178   6.944
96710SOL    HW192027   0.301  12.221   7.015
96710SOL    HW292028   0.294  12.189   6.867
96711SOL     OW92029  10.362  13.268   6.947
96711SOL    HW192030  10.421  13.204   6.985
96711SOL    HW292031  10.322  13.312   7.022
96712SOL     OW92032   2.393   1.616  12.775
96712SOL    HW192033   2.406   1.644  12.685
96712SOL    HW292034   2.459   1.663  12.825
96713SOL     OW92035   0.110  11.326   7.447
96713SOL    HW192036   0.124  11.249   7.392
96713SOL    HW292037   0.198  11.349   7.479
96714SOL     OW92038   4.452   3.628   4.679
96714SOL    HW192039   4.370   3.677   4.678
96714SOL    HW292040   4.506   3.669   4.611
96715SOL     OW92041   5.804  12.529   5.449
96715SOL    HW192042   5.887  12.565   5.480
96715SOL    HW292043   5.759  12.603   5.409
96716SOL     OW92044   9.909   7.866   1.518
96716SOL    HW192045   9.844   7.936   1.510
96716SOL    HW292046   9.913   7.828   1.430
96717SOL     OW92047   4.756  14.425   9.426
96717SOL    HW192048   4.804  14.428   9.508
96717SOL    HW292049   4.765  14.334   9.396
96718SOL     OW92050   2.675  12.128   0.820
96718SOL    HW192051   2.701  12.097   0.733
96718SOL    HW292052   2.757  12.151   0.863
96719SOL     OW92053  13.983   7.206   1.156
96719SOL    HW192054  14.041   7.267   1.111
96719SOL    HW292055  14.042   7.139   1.191
96720SOL     OW92056  12.676   4.066   4.509
96720SOL    HW192057  12.642   4.066   4.599
96720SOL    HW292058  12.609   4.113   4.459
96721SOL     OW92059   7.643   7.511   2.738
96721SOL    HW192060   7.589   7.549   2.669
96721SOL    HW292061   7.729   7.502   2.698
96722SOL     OW92062   9.976   0.286  13.465
96722SOL    HW192063  10.040   0.270  13.396
96722SOL    HW292064   9.941   0.199  13.485
96723SOL     OW92065   7.409   8.676   9.537
96723SOL    HW192066   7.499   8.678   9.506
96723SOL    HW292067   7.356   8.693   9.459
96724SOL     OW92068   6.858   4.510  13.664
96724SOL    HW192069   6.815   4.431  13.696
96724SOL    HW292070   6.786   4.572  13.651
96725SOL     OW92071   4.444  11.636   6.556
96725SOL    HW192072   4.513  11.582   6.595
96725SOL    HW292073   4.371  11.575   6.542
96726SOL     OW92074   4.034   0.640  13.329
96726SOL    HW192075   3.995   0.687  13.403
96726SOL    HW292076   4.123   0.619  13.359
96727SOL     OW92077   4.518  14.396   7.962
96727SOL    HW192078   4.538  14.404   8.055
96727SOL    HW292079   4.452  14.326   7.958
96728SOL     OW92080   7.279   5.198   4.355
96728SOL    HW192081   7.321   5.117   4.384
96728SOL    HW292082   7.248   5.239   4.436
96729SOL     OW92083   9.134  14.040   3.099
96729SOL    HW192084   9.083  14.116   3.127
96729SOL    HW292085   9.092  13.966   3.142
96730SOL     OW92086   6.919   3.114   3.901
96730SOL    HW192087   6.847   3.084   3.845
96730SOL    HW292088   6.877   3.161   3.972
96731SOL     OW92089   7.610  10.716   7.933
96731SOL    HW192090   7.644  10.659   7.865
96731SOL    HW292091   7.534  10.670   7.968
96732SOL     OW92092   0.668  12.159  14.185
96732SOL    HW192093   0.750  12.129  14.146
96732SOL    HW292094   0.676  12.136  14.278
96733SOL     OW92095   6.387  11.719  12.368
96733SOL    HW192096   6.441  11.748  12.294
96733SOL    HW292097   6.402  11.624  12.372
96734SOL     OW92098   5.946   1.639   1.434
96734SOL    HW192099   5.915   1.635   1.344
96734SOL    HW292100   5.932   1.550   1.468
96735SOL     OW92101  14.809  10.006  12.687
96735SOL    HW192102  14.836   9.976  12.773
96735SOL    HW292103  14.849   9.944  12.626
96736SOL     OW92104   8.110   3.351  12.956
96736SOL    HW192105   8.144   3.438  12.976
96736SOL    HW292106   8.062   3.325  13.035
96737SOL     OW92107   4.620   8.538   4.480
96737SOL    HW192108   4.558   8.473   4.515
96737SOL    HW292109   4.598   8.544   4.387
96738SOL     OW92110  10.116   4.706   6.317
96738SOL    HW192111  10.139   4.792   6.282
96738SOL    HW292112  10.039   4.722   6.371
96739SOL     OW92113   2.394  12.215  14.631
96739SOL    HW192114   2.403  12.242  14.723
96739SOL    HW292115   2.344  12.133  14.636
96740SOL     OW92116   9.581   8.354  10.859
96740SOL    HW192117   9.586   8.299  10.938
96740SOL    HW292118   9.534   8.299  10.796
96741SOL     OW92119  10.152  14.111   9.919
96741SOL    HW192120  10.222  14.165   9.882
96741SOL    HW292121  10.192  14.067   9.994
96742SOL     OW92122  10.649   2.813  11.262
96742SOL    HW192123  10.713   2.862  11.210
96742SOL    HW292124  10.637   2.865  11.341
96743SOL     OW92125   4.543   3.468   9.147
96743SOL    HW192126   4.590   3.386   9.162
96743SOL    HW292127   4.611   3.535   9.143
96744SOL     OW92128  10.327  12.651   9.909
96744SOL    HW192129  10.299  12.639   9.818
96744SOL    HW292130  10.422  12.658   9.904
96745SOL     OW92131   0.387   0.702   5.401
96745SOL    HW192132   0.352   0.657   5.325
96745SOL    HW292133   0.416   0.632   5.460
96746SOL     OW92134  14.218  10.644  13.341
96746SOL    HW192135  14.307  10.670  13.363
96746SOL    HW292136  14.166  10.724  13.349
96747SOL     OW92137   9.373  11.303   8.449
96747SOL    HW192138   9.311  11.374   8.466
96747SOL    HW292139   9.366  11.286   8.355
96748SOL     OW92140  12.987  14.131   4.264
96748SOL    HW192141  12.978  14.116   4.170
96748SOL    HW292142  13.081  14.126   4.280
96749SOL     OW92143   3.573   5.905   7.266
96749SOL    HW192144   3.651   5.919   7.319
96749SOL    HW292145   3.501   5.937   7.321
96750SOL     OW92146   3.253   0.431   5.002
96750SOL    HW192147   3.201   0.505   4.970
96750SOL    HW292148   3.192   0.381   5.057
96751SOL     OW92149   7.091  13.879   4.125
96751SOL    HW192150   7.035  13.869   4.202
96751SOL    HW292151   7.041  13.838   4.054
96752SOL     OW92152  12.126   5.897   0.125
96752SOL    HW192153  12.194   5.939   0.176
96752SOL    HW292154  12.102   5.820   0.177
96753SOL     OW92155   5.046   9.595   9.447
96753SOL    HW192156   5.040   9.587   9.542
96753SOL    HW292157   5.104   9.523   9.421
96754SOL     OW92158   6.826  12.813   2.715
96754SOL    HW192159   6.792  12.724   2.726
96754SOL    HW292160   6.910  12.812   2.760
96755SOL     OW92161   6.403  14.454   9.604
96755SOL    HW192162   6.470  14.468   9.537
96755SOL    HW292163   6.452  14.436   9.684
96756SOL     OW92164  10.153   0.703   6.335
96756SOL    HW192165  10.237   0.674   6.373
96756SOL    HW292166  10.088   0.681   6.402
96757SOL     OW92167   2.420  10.563   1.838
96757SOL    HW192168   2.416  10.656   1.814
96757SOL    HW292169   2.449  10.564   1.929
96758SOL     OW92170   1.891   3.165   6.213
96758SOL    HW192171   1.805   3.127   6.193
96758SOL    HW292172   1.892   3.174   6.308
96759SOL     OW92173  10.666   3.508   8.509
96759SOL    HW192174  10.583   3.542   8.476
96759SOL    HW292175  10.699   3.577   8.566
96760SOL     OW92176  14.673  11.574  11.349
96760SOL    HW192177  14.704  11.587  11.260
96760SOL    HW292178  14.596  11.519  11.340
96761SOL     OW92179   8.801  10.080   9.859
96761SOL    HW192180   8.758  10.092   9.774
96761SOL    HW292181   8.734  10.101   9.923
96762SOL     OW92182   2.347  12.064   6.627
96762SOL    HW192183   2.256  12.094   6.616
96762SOL    HW292184   2.363  12.006   6.552
96763SOL     OW92185   8.968   9.171  11.334
96763SOL    HW192186   9.049   9.222  11.328
96763SOL    HW292187   8.996   9.081  11.319
96764SOL     OW92188  12.369   1.235  14.879
96764SOL    HW192189  12.363   1.329   0.013
96764SOL    HW292190  12.375   1.228  14.784
96765SOL     OW92191   4.470   5.618  11.569
96765SOL    HW192192   4.504   5.548  11.512
96765SOL    HW292193   4.505   5.698  11.531
96766SOL     OW92194   3.676   1.503   1.518
96766SOL    HW192195   3.647   1.560   1.588
96766SOL    HW292196   3.643   1.544   1.438
96767SOL     OW92197   6.054  11.948  10.865
96767SOL    HW192198   6.094  11.919  10.947
96767SOL    HW292199   6.127  11.948  10.803
96768SOL     OW92200  14.542  13.002  12.341
96768SOL    HW192201  14.506  12.913  12.341
96768SOL    HW292202  14.585  13.010  12.426
96769SOL     OW92203   0.103   9.226  11.793
96769SOL    HW192204   0.083   9.267  11.709
96769SOL    HW292205   0.108   9.299  11.855
96770SOL     OW92206   1.941  11.839   5.015
96770SOL    HW192207   1.915  11.760   5.063
96770SOL    HW292208   1.983  11.895   5.081
96771SOL     OW92209   1.174  14.297   0.791
96771SOL    HW192210   1.190  14.317   0.699
96771SOL    HW292211   1.248  14.241   0.816
96772SOL     OW92212   1.390   6.621  10.940
96772SOL    HW192213   1.310   6.573  10.964
96772SOL    HW292214   1.438   6.562  10.883
96773SOL     OW92215   6.418  12.529  12.374
96773SOL    HW192216   6.489  12.506  12.315
96773SOL    HW292217   6.363  12.451  12.379
96774SOL     OW92218   9.982   5.436   3.977
96774SOL    HW192219  10.030   5.516   3.960
96774SOL    HW292220   9.898   5.465   4.012
96775SOL     OW92221   4.949   8.254  13.684
96775SOL    HW192222   5.039   8.272  13.708
96775SOL    HW292223   4.902   8.253  13.767
96776SOL     OW92224   1.916  12.585  10.777
96776SOL    HW192225   2.000  12.556  10.743
96776SOL    HW292226   1.920  12.680  10.774
96777SOL     OW92227  10.416  11.588  10.646
96777SOL    HW192228  10.415  11.508  10.698
96777SOL    HW292229  10.325  11.601  10.619
96778SOL     OW92230   9.865  11.109   2.684
96778SOL    HW192231   9.823  11.180   2.636
96778SOL    HW292232   9.884  11.043   2.617
96779SOL     OW92233  14.713  13.473   7.465
96779SOL    HW192234  14.729  13.384   7.431
96779SOL    HW292235  14.768  13.529   7.411
96780SOL     OW92236   6.958   9.717   8.845
96780SOL    HW192237   7.016   9.720   8.770
96780SOL    HW292238   6.987   9.788   8.902
96781SOL     OW92239   0.477   2.139   1.606
96781SOL    HW192240   0.438   2.113   1.522
96781SOL    HW292241   0.429   2.088   1.671
96782SOL     OW92242  12.084   2.086  13.006
96782SOL    HW192243  12.171   2.071  12.970
96782SOL    HW292244  12.087   2.177  13.038
96783SOL     OW92245  12.037  12.254   6.442
96783SOL    HW192246  12.021  12.226   6.352
96783SOL    HW292247  12.004  12.344   6.445
96784SOL     OW92248   9.369   8.762   5.655
96784SOL    HW192249   9.418   8.680   5.666
96784SOL    HW292250   9.431   8.822   5.613
96785SOL     OW92251  10.192   7.785  12.714
96785SOL    HW192252  10.179   7.733  12.793
96785SOL    HW292253  10.205   7.720  12.644
96786SOL     OW92254   2.882  11.742   3.733
96786SOL    HW192255   2.948  11.775   3.672
96786SOL    HW292256   2.823  11.817   3.747
96787SOL     OW92257  11.644  12.176  10.026
96787SOL    HW192258  11.670  12.112  10.092
96787SOL    HW292259  11.564  12.139   9.987
96788SOL     OW92260   1.903   9.925   9.232
96788SOL    HW192261   1.881   9.879   9.313
96788SOL    HW292262   1.996   9.910   9.220
96789SOL     OW92263   6.695  14.265   1.377
96789SOL    HW192264   6.735  14.316   1.306
96789SOL    HW292265   6.719  14.174   1.357
96790SOL     OW92266  14.579  10.356   3.103
96790SOL    HW192267  14.486  10.345   3.085
96790SOL    HW292268  14.610  10.417   3.036
96791SOL     OW92269   1.240   9.919   8.150
96791SOL    HW192270   1.239   9.866   8.230
96791SOL    HW292271   1.167   9.884   8.098
96792SOL     OW92272   1.580  13.115   1.237
96792SOL    HW192273   1.653  13.136   1.179
96792SOL    HW292274   1.510  13.175   1.208
96793SOL     OW92275   6.022  12.900   2.292
96793SOL    HW192276   6.117  12.910   2.298
96793SOL    HW292277   5.991  12.915   2.382
96794SOL     OW92278   5.016   0.940   5.249
96794SOL    HW192279   4.924   0.915   5.238
96794SOL    HW292280   5.017   1.035   5.238
96795SOL     OW92281  12.207   4.359   9.407
96795SOL    HW192282  12.131   4.302   9.420
96795SOL    HW292283  12.275   4.320   9.464
96796SOL     OW92284   0.337   6.963   9.528
96796SOL    HW192285   0.254   7.010   9.535
96796SOL    HW292286   0.355   6.962   9.434
96797SOL     OW92287  14.415   7.178   5.191
96797SOL    HW192288  14.467   7.246   5.149
96797SOL    HW292289  14.450   7.172   5.280
96798SOL     OW92290   6.503   9.422  10.889
96798SOL    HW192291   6.502   9.514  10.862
96798SOL    HW292292   6.590   9.390  10.867
96799SOL     OW92293   6.132   5.417   0.989
96799SOL    HW192294   6.218   5.381   1.009
96799SOL    HW292295   6.146   5.473   0.913
96800SOL     OW92296   2.938  12.234   0.915
96800SOL    HW192297   3.016  12.288   0.915
96800SOL    HW292298   2.966  12.152   0.955
96801SOL     OW92299   5.160   7.876   1.046
96801SOL    HW192300   5.089   7.940   1.036
96801SOL    HW292301   5.137   7.805   0.986
96802SOL     OW92302   8.460   5.429  10.541
96802SOL    HW192303   8.492   5.353  10.590
96802SOL    HW292304   8.479   5.503  10.598
96803SOL     OW92305   4.885  10.045  12.631
96803SOL    HW192306   4.811  10.075  12.578
96803SOL    HW292307   4.869  10.082  12.718
96804SOL     OW92308  13.009   3.234   2.007
96804SOL    HW192309  13.038   3.292   1.937
96804SOL    HW292310  12.991   3.292   2.081
96805SOL     OW92311   5.831   0.810   3.515
96805SOL    HW192312   5.926   0.798   3.507
96805SOL    HW292313   5.800   0.727   3.550
96806SOL     OW92314   1.977  10.680   8.952
96806SOL    HW192315   1.977  10.774   8.934
96806SOL    HW292316   2.069  10.654   8.949
96807SOL     OW92317  10.936  10.279  10.568
96807SOL    HW192318  10.999  10.209  10.587
96807SOL    HW292319  10.975  10.357  10.607
96808SOL     OW92320   9.252  10.629  11.527
96808SOL    HW192321   9.274  10.601  11.438
96808SOL    HW292322   9.179  10.574  11.554
96809SOL     OW92323   6.535   0.018   8.823
96809SOL    HW192324   6.552  14.840   8.751
96809SOL    HW292325   6.554  14.849   8.902
96810SOL     OW92326   2.582   0.297  12.169
96810SOL    HW192327   2.586   0.262  12.080
96810SOL    HW292328   2.574   0.391  12.158
96811SOL     OW92329  11.945   9.605   2.197
96811SOL    HW192330  12.016   9.635   2.140
96811SOL    HW292331  11.901   9.685   2.225
96812SOL     OW92332   8.002   3.296   8.592
96812SOL    HW192333   7.973   3.353   8.520
96812SOL    HW292334   7.927   3.293   8.652
96813SOL     OW92335   8.644   2.453   2.179
96813SOL    HW192336   8.563   2.404   2.166
96813SOL    HW292337   8.649   2.469   2.273
96814SOL     OW92338   0.306   4.919   8.954
96814SOL    HW192339   0.347   4.836   8.933
96814SOL    HW292340   0.215   4.909   8.927
96815SOL     OW92341  13.895  10.953   2.376
96815SOL    HW192342  13.985  10.960   2.408
96815SOL    HW292343  13.846  11.017   2.427
96816SOL     OW92344   8.984   9.775  13.770
96816SOL    HW192345   8.948   9.742  13.687
96816SOL    HW292346   8.930   9.734  13.838
96817SOL     OW92347  12.993  14.555   9.814
96817SOL    HW192348  13.000  14.592   9.903
96817SOL    HW292349  12.991  14.461   9.828
96818SOL     OW92350   0.385   5.167   7.434
96818SOL    HW192351   0.405   5.247   7.385
96818SOL    HW292352   0.426   5.180   7.519
96819SOL     OW92353   1.205   3.203   7.419
96819SOL    HW192354   1.289   3.186   7.462
96819SOL    HW292355   1.191   3.297   7.431
96820SOL     OW92356  13.864   6.422  13.392
96820SOL    HW192357  13.942   6.478  13.385
96820SOL    HW292358  13.852   6.387  13.303
96821SOL     OW92359   3.036  11.402   7.918
96821SOL    HW192360   3.017  11.474   7.978
96821SOL    HW292361   3.004  11.432   7.833
96822SOL     OW92362   1.199   0.145  11.823
96822SOL    HW192363   1.284   0.149  11.865
96822SOL    HW292364   1.201   0.216  11.758
96823SOL     OW92365   9.865   9.312  10.749
96823SOL    HW192366   9.788   9.282  10.797
96823SOL    HW292367   9.853   9.407  10.740
96824SOL     OW92368   2.451   3.263   5.094
96824SOL    HW192369   2.394   3.295   5.165
96824SOL    HW292370   2.396   3.200   5.046
96825SOL     OW92371   3.707   2.905   7.316
96825SOL    HW192372   3.694   2.813   7.293
96825SOL    HW292373   3.797   2.925   7.288
96826SOL     OW92374   3.709  11.897   4.299
96826SOL    HW192375   3.627  11.886   4.348
96826SOL    HW292376   3.746  11.809   4.295
96827SOL     OW92377  12.168  14.466   8.151
96827SOL    HW192378  12.220  14.402   8.102
96827SOL    HW292379  12.179  14.441   8.243
96828SOL     OW92380  12.249   3.212  11.293
96828SOL    HW192381  12.297   3.182  11.216
96828SOL    HW292382  12.232   3.305  11.277
96829SOL     OW92383   4.132   9.624   4.524
96829SOL    HW192384   4.134   9.648   4.616
96829SOL    HW292385   4.078   9.545   4.521
96830SOL     OW92386   5.859   7.071   0.493
96830SOL    HW192387   5.869   7.161   0.523
96830SOL    HW292388   5.947   7.045   0.466
96831SOL     OW92389   1.325  11.485  10.629
96831SOL    HW192390   1.370  11.460  10.548
96831SOL    HW292391   1.331  11.408  10.685
96832SOL     OW92392   5.853   1.326  11.574
96832SOL    HW192393   5.939   1.305  11.538
96832SOL    HW292394   5.799   1.250  11.554
96833SOL     OW92395   5.313   0.639   5.620
96833SOL    HW192396   5.350   0.666   5.536
96833SOL    HW292397   5.349   0.701   5.684
96834SOL     OW92398   5.974   9.473   5.295
96834SOL    HW192399   6.021   9.395   5.266
96834SOL    HW292400   5.913   9.493   5.224
96835SOL     OW92401  12.813   8.088   4.693
96835SOL    HW192402  12.729   8.091   4.649
96835SOL    HW292403  12.842   7.997   4.685
96836SOL     OW92404   7.088  12.863   5.941
96836SOL    HW192405   7.076  12.769   5.958
96836SOL    HW292406   7.031  12.906   6.005
96837SOL     OW92407   6.092  13.122   1.184
96837SOL    HW192408   6.184  13.103   1.165
96837SOL    HW292409   6.056  13.039   1.216
96838SOL     OW92410   6.734   1.444   1.092
96838SOL    HW192411   6.668   1.425   1.158
96838SOL    HW292412   6.799   1.498   1.137
96839SOL     OW92413   7.438   2.298   9.321
96839SOL    HW192414   7.412   2.289   9.413
96839SOL    HW292415   7.530   2.273   9.319
96840SOL     OW92416   2.408  13.778  13.436
96840SOL    HW192417   2.314  13.761  13.437
96840SOL    HW292418   2.428  13.810  13.524
96841SOL     OW92419   1.036   4.017  14.507
96841SOL    HW192420   0.975   4.070  14.558
96841SOL    HW292421   1.031   3.930  14.547
96842SOL     OW92422  11.082   8.801   4.175
96842SOL    HW192423  11.157   8.784   4.232
96842SOL    HW292424  11.070   8.720   4.126
96843SOL     OW92425  11.673   8.590   8.021
96843SOL    HW192426  11.600   8.586   8.083
96843SOL    HW292427  11.733   8.522   8.050
96844SOL     OW92428   7.386   4.696  13.428
96844SOL    HW192429   7.432   4.774  13.459
96844SOL    HW292430   7.397   4.698  13.333
96845SOL     OW92431   7.504   7.501   8.429
96845SOL    HW192432   7.582   7.459   8.467
96845SOL    HW292433   7.467   7.553   8.500
96846SOL     OW92434  12.541  10.078   0.308
96846SOL    HW192435  12.539  10.033   0.393
96846SOL    HW292436  12.575  10.012   0.247
96847SOL     OW92437   7.530   2.950   2.388
96847SOL    HW192438   7.569   2.864   2.376
96847SOL    HW292439   7.476   2.942   2.466
96848SOL     OW92440   6.740   4.418  13.140
96848SOL    HW192441   6.670   4.381  13.086
96848SOL    HW292442   6.696   4.452  13.217
96849SOL     OW92443  12.214   0.815   1.455
96849SOL    HW192444  12.306   0.792   1.442
96849SOL    HW292445  12.196   0.878   1.385
96850SOL     OW92446  14.145   3.080   7.565
96850SOL    HW192447  14.103   2.994   7.571
96850SOL    HW292448  14.088   3.130   7.506
96851SOL     OW92449   8.694   8.194   1.076
96851SOL    HW192450   8.667   8.173   0.986
96851SOL    HW292451   8.665   8.284   1.090
96852SOL     OW92452  12.582   8.770  12.822
96852SOL    HW192453  12.672   8.744  12.840
96852SOL    HW292454  12.571   8.756  12.728
96853SOL     OW92455  10.756  12.008   6.871
96853SOL    HW192456  10.708  12.063   6.808
96853SOL    HW292457  10.687  11.970   6.926
96854SOL     OW92458  13.729   5.935  13.836
96854SOL    HW192459  13.750   6.028  13.825
96854SOL    HW292460  13.645   5.934  13.881
96855SOL     OW92461   5.796  10.987   2.924
96855SOL    HW192462   5.715  11.030   2.895
96855SOL    HW292463   5.790  10.988   3.019
96856SOL     OW92464  10.435  13.825  13.205
96856SOL    HW192465  10.392  13.824  13.290
96856SOL    HW292466  10.464  13.916  13.194
96857SOL     OW92467   4.479   3.124   3.393
96857SOL    HW192468   4.487   3.128   3.298
96857SOL    HW292469   4.385   3.121   3.410
96858SOL     OW92470   9.381  10.460   1.302
96858SOL    HW192471   9.471  10.457   1.270
96858SOL    HW292472   9.363  10.371   1.331
96859SOL     OW92473  12.545  10.899   8.892
96859SOL    HW192474  12.512  10.917   8.804
96859SOL    HW292475  12.586  10.813   8.885
96860SOL     OW92476  10.789   3.684   5.854
96860SOL    HW192477  10.883   3.701   5.850
96860SOL    HW292478  10.783   3.596   5.891
96861SOL     OW92479   3.567   0.820  13.031
96861SOL    HW192480   3.559   0.774  12.947
96861SOL    HW292481   3.579   0.912  13.008
96862SOL     OW92482  12.014  10.818  14.753
96862SOL    HW192483  11.945  10.793  14.815
96862SOL    HW292484  12.042  10.735  14.714
96863SOL     OW92485   5.509  14.499   6.889
96863SOL    HW192486   5.581  14.499   6.952
96863SOL    HW292487   5.551  14.496   6.803
96864SOL     OW92488   5.406   9.439  10.126
96864SOL    HW192489   5.407   9.522  10.080
96864SOL    HW292490   5.464   9.382  10.075
96865SOL     OW92491  12.210   1.948   3.484
96865SOL    HW192492  12.148   1.970   3.553
96865SOL    HW292493  12.281   1.901   3.529
96866SOL     OW92494  11.879   3.117   0.132
96866SOL    HW192495  11.896   3.169   0.053
96866SOL    HW292496  11.818   3.049   0.103
96867SOL     OW92497   6.689  10.392   0.463
96867SOL    HW192498   6.676  10.470   0.518
96867SOL    HW292499   6.630  10.327   0.501
96868SOL     OW92500   1.248  13.546  11.314
96868SOL    HW192501   1.322  13.588  11.359
96868SOL    HW292502   1.285  13.465  11.279
96869SOL     OW92503   4.512  10.135   6.324
96869SOL    HW192504   4.549  10.172   6.244
96869SOL    HW292505   4.476  10.050   6.297
96870SOL     OW92506  11.521   0.326   5.267
96870SOL    HW192507  11.473   0.256   5.312
96870SOL    HW292508  11.528   0.296   5.177
96871SOL     OW92509   8.707   7.780  10.474
96871SOL    HW192510   8.698   7.686  10.489
96871SOL    HW292511   8.639   7.802  10.410
96872SOL     OW92512   0.000   6.264   4.605
96872SOL    HW192513  14.795   6.291   4.631
96872SOL    HW292514   0.059   6.313   4.662
96873SOL     OW92515   6.450   7.887  10.918
96873SOL    HW192516   6.481   7.904  11.007
96873SOL    HW292517   6.529   7.887  10.864
96874SOL     OW92518   6.576   1.705  11.463
96874SOL    HW192519   6.522   1.733  11.389
96874SOL    HW292520   6.577   1.610  11.458
96875SOL     OW92521   1.265   6.683   4.928
96875SOL    HW192522   1.195   6.644   4.877
96875SOL    HW292523   1.226   6.703   5.013
96876SOL     OW92524  10.064  10.265   0.957
96876SOL    HW192525  10.103  10.187   0.917
96876SOL    HW292526  10.048  10.324   0.883
96877SOL     OW92527   7.358   5.296   5.959
96877SOL    HW192528   7.315   5.213   5.979
96877SOL    HW292529   7.337   5.353   6.032
96878SOL     OW92530   7.919   0.334  12.900
96878SOL    HW192531   7.869   0.364  12.825
96878SOL    HW292532   7.864   0.354  12.976
96879SOL     OW92533   9.101  14.360   9.411
96879SOL    HW192534   9.163  14.431   9.396
96879SOL    HW292535   9.117  14.298   9.341
96880SOL     OW92536   7.163  13.862   8.768
96880SOL    HW192537   7.245  13.890   8.807
96880SOL    HW292538   7.182  13.853   8.675
96881SOL     OW92539   8.600  13.924  10.538
96881SOL    HW192540   8.516  13.879  10.534
96881SOL    HW292541   8.659  13.870  10.486
96882SOL     OW92542   7.889   1.452  10.364
96882SOL    HW192543   7.816   1.514  10.361
96882SOL    HW292544   7.852   1.369  10.334
96883SOL     OW92545   1.789   9.389   2.349
96883SOL    HW192546   1.825   9.462   2.297
96883SOL    HW292547   1.866   9.339   2.375
96884SOL     OW92548   0.972  12.635  10.381
96884SOL    HW192549   0.921  12.574  10.434
96884SOL    HW292550   1.011  12.695  10.444
96885SOL     OW92551  14.748   1.271   9.527
96885SOL    HW192552  14.826   1.216   9.519
96885SOL    HW292553  14.684   1.232   9.468
96886SOL     OW92554  11.378   2.691  14.279
96886SOL    HW192555  11.342   2.604  14.298
96886SOL    HW292556  11.449   2.674  14.217
96887SOL     OW92557   9.287   3.521  11.891
96887SOL    HW192558   9.261   3.467  11.966
96887SOL    HW292559   9.212   3.579  11.875
96888SOL     OW92560   4.354   6.921   2.577
96888SOL    HW192561   4.411   6.946   2.649
96888SOL    HW292562   4.414   6.898   2.506
96889SOL     OW92563   0.931   6.445  11.877
96889SOL    HW192564   1.011   6.418  11.832
96889SOL    HW292565   0.935   6.400  11.961
96890SOL     OW92566   4.995   8.582   8.131
96890SOL    HW192567   4.975   8.501   8.178
96890SOL    HW292568   4.936   8.582   8.056
96891SOL     OW92569   9.054   4.799  13.655
96891SOL    HW192570   9.080   4.866  13.718
96891SOL    HW292571   8.985   4.749  13.700
96892SOL     OW92572   0.483   6.542   0.056
96892SOL    HW192573   0.405   6.594   0.038
96892SOL    HW292574   0.460   6.489   0.132
96893SOL     OW92575  14.041   3.264   7.390
96893SOL    HW192576  14.019   3.252   7.298
96893SOL    HW292577  14.049   3.359   7.401
96894SOL     OW92578   3.427   0.817   0.666
96894SOL    HW192579   3.443   0.722   0.663
96894SOL    HW292580   3.343   0.828   0.621
96895SOL     OW92581  10.613  12.479   7.797
96895SOL    HW192582  10.554  12.451   7.727
96895SOL    HW292583  10.636  12.569   7.776
96896SOL     OW92584  10.653   9.785  13.690
96896SOL    HW192585  10.666   9.856  13.754
96896SOL    HW292586  10.729   9.791  13.632
96897SOL     OW92587  12.571   2.247  13.631
96897SOL    HW192588  12.562   2.327  13.682
96897SOL    HW292589  12.539   2.178  13.689
96898SOL     OW92590  14.625  13.442   6.341
96898SOL    HW192591  14.575  13.483   6.412
96898SOL    HW292592  14.681  13.512   6.308
96899SOL     OW92593  10.349  11.564   9.881
96899SOL    HW192594  10.294  11.582   9.958
96899SOL    HW292595  10.337  11.641   9.825
96900SOL     OW92596  12.444   8.650   7.890
96900SOL    HW192597  12.520   8.604   7.854
96900SOL    HW292598  12.391   8.581   7.930
96901SOL     OW92599   3.685   3.059   8.645
96901SOL    HW192600   3.711   3.037   8.555
96901SOL    HW292601   3.712   3.150   8.656
96902SOL     OW92602   0.784   3.786  11.703
96902SOL    HW192603   0.810   3.751  11.789
96902SOL    HW292604   0.834   3.734  11.640
96903SOL     OW92605   1.954  10.908   4.224
96903SOL    HW192606   1.871  10.861   4.216
96903SOL    HW292607   1.931  10.990   4.268
96904SOL     OW92608   0.155   3.201  13.474
96904SOL    HW192609   0.137   3.171  13.385
96904SOL    HW292610   0.160   3.121  13.526
96905SOL     OW92611  11.961   6.415   0.834
96905SOL    HW192612  11.893   6.386   0.772
96905SOL    HW292613  12.040   6.422   0.781
96906SOL     OW92614   9.683   4.105   7.575
96906SOL    HW192615   9.773   4.130   7.596
96906SOL    HW292616   9.682   4.093   7.480
96907SOL     OW92617   9.847  12.512  14.846
96907SOL    HW192618   9.900  12.562  14.785
96907SOL    HW292619   9.758  12.518  14.812
96908SOL     OW92620   5.075   2.007   9.925
96908SOL    HW192621   5.079   2.093   9.968
96908SOL    HW292622   5.047   2.027   9.835
96909SOL     OW92623  12.113   8.867  10.238
96909SOL    HW192624  12.026   8.906  10.232
96909SOL    HW292625  12.099   8.773  10.223
96910SOL     OW92626   8.380   5.219  10.282
96910SOL    HW192627   8.326   5.168  10.342
96910SOL    HW292628   8.326   5.295  10.260
96911SOL     OW92629  11.332   5.397   2.316
96911SOL    HW192630  11.353   5.452   2.241
96911SOL    HW292631  11.237   5.401   2.323
96912SOL     OW92632  10.260   6.464   5.779
96912SOL    HW192633  10.207   6.443   5.702
96912SOL    HW292634  10.349   6.474   5.744
96913SOL     OW92635   6.772  12.898   6.903
96913SOL    HW192636   6.837  12.831   6.885
96913SOL    HW292637   6.818  12.964   6.954
96914SOL     OW92638   4.216   5.410  13.103
96914SOL    HW192639   4.248   5.400  13.013
96914SOL    HW292640   4.146   5.345  13.110
96915SOL     OW92641  13.278  12.323  13.660
96915SOL    HW192642  13.320  12.398  13.618
96915SOL    HW292643  13.204  12.302  13.603
96916SOL     OW92644   1.718  11.934  13.450
96916SOL    HW192645   1.789  11.950  13.389
96916SOL    HW292646   1.642  11.978  13.411
96917SOL     OW92647   1.107   1.995   3.399
96917SOL    HW192648   1.157   2.067   3.437
96917SOL    HW292649   1.041   2.037   3.345
96918SOL     OW92650  14.018   4.596   2.783
96918SOL    HW192651  14.044   4.572   2.694
96918SOL    HW292652  14.013   4.513   2.830
96919SOL     OW92653  12.166  10.309   1.300
96919SOL    HW192654  12.115  10.346   1.229
96919SOL    HW292655  12.215  10.383   1.336
96920SOL     OW92656   5.281   5.424   0.604
96920SOL    HW192657   5.259   5.371   0.681
96920SOL    HW292658   5.198   5.457   0.572
96921SOL     OW92659   0.672   8.583   4.181
96921SOL    HW192660   0.579   8.607   4.184
96921SOL    HW292661   0.672   8.488   4.179
96922SOL     OW92662   7.902  12.433  14.008
96922SOL    HW192663   7.937  12.509  14.054
96922SOL    HW292664   7.886  12.465  13.919
96923SOL     OW92665  11.917   0.466  13.616
96923SOL    HW192666  11.962   0.382  13.605
96923SOL    HW292667  11.942   0.517  13.539
96924SOL     OW92668   8.045   8.368  14.693
96924SOL    HW192669   8.067   8.461  14.684
96924SOL    HW292670   7.952   8.364  14.670
96925SOL     OW92671   6.093   2.953  14.799
96925SOL    HW192672   6.168   2.974  14.855
96925SOL    HW292673   6.048   3.036  14.786
96926SOL     OW92674  14.142   3.719   2.758
96926SOL    HW192675  14.227   3.684   2.785
96926SOL    HW292676  14.144   3.718   2.663
96927SOL     OW92677   4.442  10.167   3.446
96927SOL    HW192678   4.447  10.165   3.350
96927SOL    HW292679   4.348  10.162   3.465
96928SOL     OW92680   8.234   6.675   1.242
96928SOL    HW192681   8.183   6.711   1.315
96928SOL    HW292682   8.211   6.731   1.168
96929SOL     OW92683   6.304   6.045   1.438
96929SOL    HW192684   6.221   6.086   1.461
96929SOL    HW292685   6.369   6.115   1.445
96930SOL     OW92686   3.975  13.690   4.426
96930SOL    HW192687   3.950  13.610   4.471
96930SOL    HW292688   4.069  13.698   4.441
96931SOL     OW92689   3.472   7.566   9.424
96931SOL    HW192690   3.437   7.614   9.349
96931SOL    HW292691   3.541   7.623   9.459
96932SOL     OW92692  14.808   3.756   1.849
96932SOL    HW192693  14.806   3.796   1.936
96932SOL    HW292694  14.824   3.663   1.866
96933SOL     OW92695  14.808   1.801  11.013
96933SOL    HW192696  14.774   1.795  11.102
96933SOL    HW292697   0.019   1.821  11.024
96934SOL     OW92698  10.597  12.660  10.862
96934SOL    HW192699  10.565  12.591  10.804
96934SOL    HW292700  10.582  12.626  10.951
96935SOL     OW92701   1.727   5.809  12.199
96935SOL    HW192702   1.636   5.784  12.215
96935SOL    HW292703   1.730   5.829  12.106
96936SOL     OW92704   4.239   7.177   3.763
96936SOL    HW192705   4.162   7.228   3.739
96936SOL    HW292706   4.312   7.238   3.752
96937SOL     OW92707  14.251   8.213   4.856
96937SOL    HW192708  14.260   8.303   4.824
96937SOL    HW292709  14.216   8.223   4.944
96938SOL     OW92710   1.084   9.233   5.463
96938SOL    HW192711   1.046   9.184   5.536
96938SOL    HW292712   1.029   9.209   5.387
96939SOL     OW92713   5.620   8.522  12.132
96939SOL    HW192714   5.610   8.600  12.078
96939SOL    HW292715   5.538   8.474  12.120
96940SOL     OW92716   2.023  10.098   2.862
96940SOL    HW192717   1.987  10.150   2.790
96940SOL    HW292718   1.947  10.051   2.898
96941SOL     OW92719  12.883   4.839   1.361
96941SOL    HW192720  12.823   4.765   1.367
96941SOL    HW292721  12.967   4.801   1.338
96942SOL     OW92722   3.492   1.427   9.615
96942SOL    HW192723   3.462   1.515   9.638
96942SOL    HW292724   3.457   1.371   9.684
96943SOL     OW92725  11.116  14.780   7.550
96943SOL    HW192726  11.162  14.850   7.597
96943SOL    HW292727  11.133  14.701   7.603
96944SOL     OW92728   6.191   4.760  11.357
96944SOL    HW192729   6.279   4.722  11.355
96944SOL    HW292730   6.182   4.795  11.445
96945SOL     OW92731   4.083  11.695   8.898
96945SOL    HW192732   4.055  11.635   8.967
96945SOL    HW292733   4.171  11.723   8.925
96946SOL     OW92734   3.050   3.489  12.066
96946SOL    HW192735   3.000   3.472  12.145
96946SOL    HW292736   3.124   3.542  12.095
96947SOL     OW92737   3.175   2.642   8.791
96947SOL    HW192738   3.228   2.591   8.852
96947SOL    HW292739   3.238   2.684   8.734
96948SOL     OW92740   3.159   7.278   5.538
96948SOL    HW192741   3.249   7.248   5.524
96948SOL    HW292742   3.136   7.324   5.457
96949SOL     OW92743   3.854  11.048   2.490
96949SOL    HW192744   3.945  11.074   2.501
96949SOL    HW292745   3.856  10.982   2.421
96950SOL     OW92746   4.233   6.411   0.589
96950SOL    HW192747   4.203   6.346   0.653
96950SOL    HW292748   4.260   6.360   0.513
96951SOL     OW92749   5.208   0.770   2.788
96951SOL    HW192750   5.273   0.804   2.727
96951SOL    HW292751   5.256   0.706   2.841
96952SOL     OW92752  12.560   6.561  14.026
96952SOL    HW192753  12.476   6.534  14.063
96952SOL    HW292754  12.538   6.631  13.965
96953SOL     OW92755   6.923  12.251   7.665
96953SOL    HW192756   7.010  12.226   7.697
96953SOL    HW292757   6.918  12.213   7.578
96954SOL     OW92758  14.535  10.173   4.618
96954SOL    HW192759  14.468  10.240   4.606
96954SOL    HW292760  14.574  10.162   4.531
96955SOL     OW92761  10.202   0.940   6.626
96955SOL    HW192762  10.111   0.912   6.628
96955SOL    HW292763  10.249   0.868   6.584
96956SOL     OW92764   1.408   1.102   0.030
96956SOL    HW192765   1.336   1.046  14.882
96956SOL    HW292766   1.447   1.053   0.102
96957SOL     OW92767  13.316   0.105   9.129
96957SOL    HW192768  13.275   0.026   9.093
96957SOL    HW292769  13.281   0.177   9.076
96958SOL     OW92770   6.450   1.127  11.521
96958SOL    HW192771   6.426   1.088  11.605
96958SOL    HW292772   6.490   1.056  11.471
96959SOL     OW92773   0.649   3.983   9.282
96959SOL    HW192774   0.729   3.936   9.304
96959SOL    HW292775   0.661   4.070   9.320
96960SOL     OW92776  12.209  10.101  14.603
96960SOL    HW192777  12.226  10.011  14.629
96960SOL    HW292778  12.169  10.094  14.516
96961SOL     OW92779   3.396   7.525  10.067
96961SOL    HW192780   3.459   7.457  10.090
96961SOL    HW292781   3.375   7.508   9.975
96962SOL     OW92782  14.688   0.457   1.062
96962SOL    HW192783  14.776   0.448   1.025
96962SOL    HW292784  14.630   0.423   0.995
96963SOL     OW92785  14.229   3.534   9.199
96963SOL    HW192786  14.152   3.523   9.142
96963SOL    HW292787  14.218   3.621   9.237
96964SOL     OW92788   1.832   8.665   6.526
96964SOL    HW192789   1.822   8.574   6.552
96964SOL    HW292790   1.871   8.708   6.602
96965SOL     OW92791   1.724  11.263   0.005
96965SOL    HW192792   1.689  11.174   0.002
96965SOL    HW292793   1.809  11.256  14.843
96966SOL     OW92794   2.049   2.516   9.440
96966SOL    HW192795   2.004   2.539   9.521
96966SOL    HW292796   2.137   2.551   9.451
96967SOL     OW92797   4.339   2.535  12.936
96967SOL    HW192798   4.354   2.484  12.857
96967SOL    HW292799   4.357   2.626  12.911
96968SOL     OW92800   0.642   7.081   8.134
96968SOL    HW192801   0.635   7.146   8.204
96968SOL    HW292802   0.666   7.132   8.057
96969SOL     OW92803   0.386   3.378  11.349
96969SOL    HW192804   0.455   3.438  11.379
96969SOL    HW292805   0.343   3.425  11.278
96970SOL     OW92806  13.619   1.164   6.014
96970SOL    HW192807  13.713   1.170   5.994
96970SOL    HW292808  13.592   1.255   6.027
96971SOL     OW92809  13.631  10.767   0.488
96971SOL    HW192810  13.706  10.823   0.470
96971SOL    HW292811  13.581  10.814   0.555
96972SOL     OW92812   4.859  11.884   2.210
96972SOL    HW192813   4.779  11.903   2.162
96972SOL    HW292814   4.859  11.946   2.283
96973SOL     OW92815   1.467  12.340   5.596
96973SOL    HW192816   1.478  12.380   5.511
96973SOL    HW292817   1.556  12.330   5.630
96974SOL     OW92818  13.835  11.748  12.209
96974SOL    HW192819  13.869  11.720  12.294
96974SOL    HW292820  13.905  11.801  12.172
96975SOL     OW92821   6.704  11.949   0.214
96975SOL    HW192822   6.630  11.956   0.274
96975SOL    HW292823   6.709  12.035   0.172
96976SOL     OW92824  10.353   8.345   6.288
96976SOL    HW192825  10.398   8.262   6.302
96976SOL    HW292826  10.418   8.411   6.312
96977SOL     OW92827  10.685   6.122   2.135
96977SOL    HW192828  10.708   6.209   2.103
96977SOL    HW292829  10.752   6.064   2.099
96978SOL     OW92830  14.117   3.590  12.704
96978SOL    HW192831  14.190   3.643  12.672
96978SOL    HW292832  14.058   3.581  12.629
96979SOL     OW92833   2.256  11.439   5.897
96979SOL    HW192834   2.161  11.433   5.902
96979SOL    HW292835   2.286  11.420   5.986
96980SOL     OW92836  14.190   8.244   8.020
96980SOL    HW192837  14.203   8.339   8.018
96980SOL    HW292838  14.241   8.211   7.946
96981SOL     OW92839   7.213  14.032   4.474
96981SOL    HW192840   7.271  13.957   4.490
96981SOL    HW292841   7.269  14.109   4.489
96982SOL     OW92842  11.651   0.834   1.447
96982SOL    HW192843  11.571   0.791   1.417
96982SOL    HW292844  11.721   0.773   1.424
96983SOL     OW92845  10.122  14.224  12.841
96983SOL    HW192846  10.058  14.268  12.897
96983SOL    HW292847  10.078  14.216  12.756
96984SOL     OW92848   9.029   7.251  11.946
96984SOL    HW192849   9.034   7.344  11.924
96984SOL    HW292850   9.098   7.239  12.012
96985SOL     OW92851   8.053  14.029   2.792
96985SOL    HW192852   8.067  14.116   2.829
96985SOL    HW292853   7.965  14.005   2.821
96986SOL     OW92854  12.329   7.228   8.768
96986SOL    HW192855  12.370   7.181   8.841
96986SOL    HW292856  12.235   7.212   8.779
96987SOL     OW92857  14.769   1.758   0.315
96987SOL    HW192858  14.818   1.771   0.396
96987SOL    HW292859  14.751   1.846   0.283
96988SOL     OW92860   6.665   5.648  14.701
96988SOL    HW192861   6.586   5.620  14.655
96988SOL    HW292862   6.721   5.684  14.632
96989SOL     OW92863   0.496   8.340  10.713
96989SOL    HW192864   0.514   8.251  10.683
96989SOL    HW292865   0.501   8.393  10.633
96990SOL     OW92866  13.835  10.392  12.199
96990SOL    HW192867  13.810  10.480  12.173
96990SOL    HW292868  13.761  10.361  12.252
96991SOL     OW92869   4.400   0.017   6.750
96991SOL    HW192870   4.490  14.873   6.769
96991SOL    HW292871   4.401   0.045   6.659
96992SOL     OW92872  12.144  12.511  13.865
96992SOL    HW192873  12.132  12.530  13.958
96992SOL    HW292874  12.214  12.447  13.862
96993SOL     OW92875   7.009   2.461  13.277
96993SOL    HW192876   7.070   2.509  13.221
96993SOL    HW292877   7.011   2.372  13.243
96994SOL     OW92878   9.390   7.247   0.614
96994SOL    HW192879   9.338   7.195   0.553
96994SOL    HW292880   9.475   7.202   0.617
96995SOL     OW92881  13.834   8.597   8.848
96995SOL    HW192882  13.753   8.634   8.884
96995SOL    HW292883  13.891   8.588   8.924
96996SOL     OW92884  13.673   6.512   3.865
96996SOL    HW192885  13.613   6.556   3.805
96996SOL    HW292886  13.752   6.496   3.813
96997SOL     OW92887   5.160  14.402   5.233
96997SOL    HW192888   5.089  14.405   5.297
96997SOL    HW292889   5.144  14.476   5.175
96998SOL     OW92890  12.920   8.313   9.480
96998SOL    HW192891  12.852   8.281   9.422
96998SOL    HW292892  12.923   8.249   9.551
96999SOL     OW92893   5.051  11.874  12.280
96999SOL    HW192894   5.030  11.781  12.272
96999SOL    HW292895   5.085  11.898  12.193
97000SOL     OW92896  14.840   0.155   7.342
97000SOL    HW192897   0.000   0.216   7.402
97000SOL    HW292898   0.026   0.130   7.280
97001SOL     OW92899   1.111   7.520   9.516
97001SOL    HW192900   1.016   7.522   9.507
97001SOL    HW292901   1.137   7.611   9.526
97002SOL     OW92902   5.347  14.106   7.421
97002SOL    HW192903   5.274  14.157   7.456
97002SOL    HW292904   5.405  14.092   7.495
97003SOL     OW92905   2.561   8.256   0.584
97003SOL    HW192906   2.555   8.281   0.491
97003SOL    HW292907   2.545   8.162   0.585
97004SOL     OW92908   8.741   4.597   5.639
97004SOL    HW192909   8.745   4.565   5.729
97004SOL    HW292910   8.708   4.523   5.588
97005SOL     OW92911   5.338   8.930   9.767
97005SOL    HW192912   5.411   8.978   9.806
97005SOL    HW292913   5.370   8.906   9.680
97006SOL     OW92914  13.801  12.900   8.836
97006SOL    HW192915  13.733  12.963   8.858
97006SOL    HW292916  13.796  12.833   8.904
97007SOL     OW92917   9.520   4.926   6.246
97007SOL    HW192918   9.599   4.881   6.216
97007SOL    HW292919   9.465   4.933   6.167
97008SOL     OW92920   1.527   7.540   4.079
97008SOL    HW192921   1.528   7.500   3.992
97008SOL    HW292922   1.611   7.586   4.086
97009SOL     OW92923  12.701   8.273   1.675
97009SOL    HW192924  12.612   8.240   1.680
97009SOL    HW292925  12.695   8.351   1.619
97010SOL     OW92926  12.745   6.632   4.295
97010SOL    HW192927  12.652   6.622   4.273
97010SOL    HW292928  12.779   6.543   4.299
97011SOL     OW92929   7.202   1.301   3.082
97011SOL    HW192930   7.195   1.274   2.991
97011SOL    HW292931   7.258   1.379   3.080
97012SOL     OW92932   9.525   1.168   7.787
97012SOL    HW192933   9.467   1.230   7.742
97012SOL    HW292934   9.603   1.220   7.808
97013SOL     OW92935   6.866  13.324   3.814
97013SOL    HW192936   6.857  13.406   3.862
97013SOL    HW292937   6.961  13.308   3.812
97014SOL     OW92938   0.327   7.559   3.930
97014SOL    HW192939   0.254   7.572   3.869
97014SOL    HW292940   0.379   7.489   3.890
97015SOL     OW92941  13.049  10.714  11.503
97015SOL    HW192942  13.033  10.688  11.594
97015SOL    HW292943  13.082  10.804  11.509
97016SOL     OW92944  10.428  14.347   3.612
97016SOL    HW192945  10.363  14.374   3.547
97016SOL    HW292946  10.447  14.256   3.590
97017SOL     OW92947  10.254   5.765   1.135
97017SOL    HW192948  10.210   5.710   1.200
97017SOL    HW292949  10.199   5.843   1.129
97018SOL     OW92950  14.089  11.079   0.857
97018SOL    HW192951  14.047  11.023   0.921
97018SOL    HW292952  14.060  11.168   0.880
97019SOL     OW92953  10.410   6.491   0.042
97019SOL    HW192954  10.494   6.506  14.882
97019SOL    HW292955  10.419   6.534   0.128
97020SOL     OW92956  14.309   7.307   7.786
97020SOL    HW192957  14.246   7.360   7.835
97020SOL    HW292958  14.373   7.280   7.851
97021SOL     OW92959   9.937   6.977   8.606
97021SOL    HW192960  10.032   6.971   8.597
97021SOL    HW292961   9.919   7.070   8.615
97022SOL     OW92962   1.238   3.007   9.687
97022SOL    HW192963   1.182   2.950   9.739
97022SOL    HW292964   1.183   3.082   9.665
97023SOL     OW92965  11.105   6.362   1.025
97023SOL    HW192966  11.047   6.421   0.977
97023SOL    HW292967  11.102   6.280   0.977
97024SOL     OW92968   2.986  13.140  10.991
97024SOL    HW192969   3.028  13.054  10.983
97024SOL    HW292970   2.995  13.179  10.904
97025SOL     OW92971  11.253   9.410   8.117
97025SOL    HW192972  11.231   9.447   8.032
97025SOL    HW292973  11.337   9.368   8.104
97026SOL     OW92974  12.369   6.484   9.320
97026SOL    HW192975  12.276   6.462   9.318
97026SOL    HW292976  12.375   6.556   9.384
97027SOL     OW92977  11.690  14.004  10.387
97027SOL    HW192978  11.778  14.039  10.374
97027SOL    HW292979  11.632  14.072  10.352
97028SOL     OW92980   4.382   3.916   8.489
97028SOL    HW192981   4.303   3.887   8.444
97028SOL    HW292982   4.392   4.007   8.462
97029SOL     OW92983   4.797  13.801  14.645
97029SOL    HW192984   4.821  13.709  14.663
97029SOL    HW292985   4.727  13.795  14.580
97030SOL     OW92986   7.651   0.177  12.940
97030SOL    HW192987   7.621   0.098  12.895
97030SOL    HW292988   7.732   0.151  12.983
97031SOL     OW92989  12.975   0.624   8.967
97031SOL    HW192990  13.066   0.615   8.996
97031SOL    HW292991  12.930   0.663   9.042
97032SOL     OW92992   0.314  11.604   1.044
97032SOL    HW192993   0.282  11.522   1.006
97032SOL    HW292994   0.313  11.589   1.138
97033SOL     OW92995   3.553   2.337   0.557
97033SOL    HW192996   3.544   2.426   0.523
97033SOL    HW292997   3.598   2.348   0.641
97034SOL     OW92998   1.941   3.202   0.365
97034SOL    HW192999   1.877   3.139   0.399
97034SOL    HW293000   1.900   3.287   0.381
97035SOL     OW93001   4.673  13.747   1.210
97035SOL    HW193002   4.724  13.799   1.148
97035SOL    HW293003   4.725  13.667   1.222
97036SOL     OW93004   9.826  11.064   3.793
97036SOL    HW193005   9.862  11.049   3.706
97036SOL    HW293006   9.878  11.007   3.850
97037SOL     OW93007  11.975   6.465  14.579
97037SOL    HW193008  11.988   6.484  14.672
97037SOL    HW293009  11.994   6.548  14.535
97038SOL     OW93010   6.481   2.849   3.925
97038SOL    HW193011   6.449   2.908   3.993
97038SOL    HW293012   6.540   2.790   3.972
97039SOL     OW93013   5.136   6.424   9.500
97039SOL    HW193014   5.047   6.451   9.523
97039SOL    HW293015   5.171   6.497   9.449
97040SOL     OW93016   6.240   3.768   8.096
97040SOL    HW193017   6.319   3.803   8.056
97040SOL    HW293018   6.270   3.694   8.148
97041SOL     OW93019   0.212   7.023  11.175
97041SOL    HW193020   0.213   6.929  11.157
97041SOL    HW293021   0.263   7.062  11.105
97042SOL     OW93022   5.298   3.071   0.325
97042SOL    HW193023   5.391   3.060   0.341
97042SOL    HW293024   5.292   3.091   0.231
97043SOL     OW93025   0.211   2.966   8.311
97043SOL    HW193026   0.286   2.984   8.255
97043SOL    HW293027   0.139   2.951   8.250
97044SOL     OW93028   0.435   1.920   5.255
97044SOL    HW193029   0.522   1.927   5.294
97044SOL    HW293030   0.395   2.006   5.271
97045SOL     OW93031   8.264   4.446  10.744
97045SOL    HW193032   8.186   4.416  10.790
97045SOL    HW293033   8.266   4.393  10.664
97046SOL     OW93034   4.316  13.916   9.839
97046SOL    HW193035   4.307  13.898   9.933
97046SOL    HW293036   4.390  13.977   9.833
97047SOL     OW93037  11.695   5.117   6.280
97047SOL    HW193038  11.623   5.062   6.310
97047SOL    HW293039  11.750   5.058   6.227
97048SOL     OW93040  11.723   3.122  11.980
97048SOL    HW193041  11.760   3.034  11.981
97048SOL    HW293042  11.671   3.127  12.060
97049SOL     OW93043   6.219  10.373   8.206
97049SOL    HW193044   6.195  10.287   8.173
97049SOL    HW293045   6.189  10.434   8.139
97050SOL     OW93046   8.438   1.304  11.378
97050SOL    HW193047   8.520   1.317  11.426
97050SOL    HW293048   8.370   1.331  11.440
97051SOL     OW93049   9.659  11.252   6.077
97051SOL    HW193050   9.687  11.195   6.005
97051SOL    HW293051   9.609  11.194   6.135
97052SOL     OW93052  11.681   4.584   6.438
97052SOL    HW193053  11.700   4.639   6.514
97052SOL    HW293054  11.754   4.599   6.378
97053SOL     OW93055   2.338   5.616   3.729
97053SOL    HW193056   2.405   5.569   3.778
97053SOL    HW293057   2.378   5.632   3.643
97054SOL     OW93058  13.703   0.531   3.929
97054SOL    HW193059  13.727   0.611   3.975
97054SOL    HW293060  13.771   0.520   3.863
97055SOL     OW93061  13.595   3.112   5.740
97055SOL    HW193062  13.585   3.022   5.709
97055SOL    HW293063  13.505   3.141   5.756
97056SOL     OW93064   8.036  10.365  14.527
97056SOL    HW193065   8.003  10.281  14.495
97056SOL    HW293066   8.026  10.425  14.454
97057SOL     OW93067  10.596   3.558  14.636
97057SOL    HW193068  10.622   3.490  14.698
97057SOL    HW293069  10.556   3.511  14.563
97058SOL     OW93070   2.796   3.885   2.152
97058SOL    HW193071   2.872   3.896   2.095
97058SOL    HW293072   2.764   3.797   2.132
97059SOL     OW93073   7.817   2.840  14.494
97059SOL    HW193074   7.815   2.883  14.409
97059SOL    HW293075   7.725   2.817  14.511
97060SOL     OW93076   5.488   8.602   2.862
97060SOL    HW193077   5.554   8.533   2.868
97060SOL    HW293078   5.523   8.663   2.796
97061SOL     OW93079   2.576  11.137   6.047
97061SOL    HW193080   2.550  11.153   5.957
97061SOL    HW293081   2.576  11.224   6.088
97062SOL     OW93082  13.954   9.006   7.217
97062SOL    HW193083  13.888   9.048   7.161
97062SOL    HW293084  13.947   8.913   7.196
97063SOL     OW93085   7.102  13.284  11.160
97063SOL    HW193086   7.164  13.221  11.195
97063SOL    HW293087   7.067  13.330  11.237
97064SOL     OW93088  10.969   7.885  10.796
97064SOL    HW193089  10.876   7.887  10.822
97064SOL    HW293090  10.980   7.801  10.751
97065SOL     OW93091   0.394   6.619   8.774
97065SOL    HW193092   0.426   6.531   8.793
97065SOL    HW293093   0.451   6.651   8.704
97066SOL     OW93094   1.190   9.771  12.769
97066SOL    HW193095   1.243   9.830  12.823
97066SOL    HW293096   1.104   9.771  12.809
97067SOL     OW93097   9.912   1.175   0.636
97067SOL    HW193098   9.895   1.094   0.684
97067SOL    HW293099   9.864   1.164   0.554
97068SOL     OW93100   4.408   7.815   5.559
97068SOL    HW193101   4.471   7.774   5.619
97068SOL    HW293102   4.382   7.896   5.604
97069SOL     OW93103   5.952   7.963   4.080
97069SOL    HW193104   6.017   7.899   4.108
97069SOL    HW293105   5.960   8.034   4.144
97070SOL     OW93106  10.407  13.303   6.526
97070SOL    HW193107  10.406  13.207   6.516
97070SOL    HW293108  10.350  13.334   6.456
97071SOL     OW93109  13.995   7.289   1.687
97071SOL    HW193110  14.021   7.234   1.614
97071SOL    HW293111  14.034   7.247   1.764
97072SOL     OW93112   0.807   4.521  10.269
97072SOL    HW193113   0.791   4.594  10.209
97072SOL    HW293114   0.775   4.444  10.223
97073SOL     OW93115  12.240   8.373   5.356
97073SOL    HW193116  12.193   8.293   5.333
97073SOL    HW293117  12.328   8.360   5.322
97074SOL     OW93118  12.732  12.039   8.254
97074SOL    HW193119  12.677  12.002   8.323
97074SOL    HW293120  12.674  12.099   8.207
97075SOL     OW93121  12.969   1.269   6.781
97075SOL    HW193122  12.886   1.284   6.734
97075SOL    HW293123  13.035   1.313   6.727
97076SOL     OW93124   8.091   5.053   3.485
97076SOL    HW193125   8.031   4.990   3.444
97076SOL    HW293126   8.177   5.030   3.449
97077SOL     OW93127   8.179   2.035   5.838
97077SOL    HW193128   8.169   1.940   5.839
97077SOL    HW293129   8.261   2.051   5.791
97078SOL     OW93130   9.366   8.365   3.405
97078SOL    HW193131   9.315   8.414   3.470
97078SOL    HW293132   9.309   8.292   3.381
97079SOL     OW93133   6.174   3.086   9.265
97079SOL    HW193134   6.108   3.034   9.308
97079SOL    HW293135   6.257   3.052   9.297
97080SOL     OW93136   6.895  11.186   0.734
97080SOL    HW193137   6.863  11.119   0.674
97080SOL    HW293138   6.871  11.269   0.693
97081SOL     OW93139   3.297   0.335   9.448
97081SOL    HW193140   3.330   0.403   9.506
97081SOL    HW293141   3.373   0.281   9.427
97082SOL     OW93142  13.263   7.114  10.079
97082SOL    HW193143  13.271   7.144  10.169
97082SOL    HW293144  13.223   7.187  10.032
97083SOL     OW93145   6.293   9.499   9.968
97083SOL    HW193146   6.288   9.496  10.064
97083SOL    HW293147   6.227   9.437   9.938
97084SOL     OW93148   7.137   9.978   7.446
97084SOL    HW193149   7.066   9.922   7.415
97084SOL    HW293150   7.174  10.016   7.367
97085SOL     OW93151   7.532  11.850  13.657
97085SOL    HW193152   7.555  11.900  13.579
97085SOL    HW293153   7.611  11.801  13.679
97086SOL     OW93154   1.329  14.795   5.498
97086SOL    HW193155   1.360  14.864   5.556
97086SOL    HW293156   1.361  14.714   5.538
97087SOL     OW93157   6.474  13.700   4.826
97087SOL    HW193158   6.432  13.618   4.849
97087SOL    HW293159   6.416  13.768   4.860
97088SOL     OW93160   1.203   3.869   2.101
97088SOL    HW193161   1.125   3.826   2.137
97088SOL    HW293162   1.184   3.876   2.008
97089SOL     OW93163   2.219   2.779   2.591
97089SOL    HW193164   2.200   2.871   2.605
97089SOL    HW293165   2.289   2.759   2.654
97090SOL     OW93166  10.169  10.209  13.301
97090SOL    HW193167  10.147  10.261  13.379
97090SOL    HW293168  10.245  10.157  13.328
97091SOL     OW93169   4.312  10.657  10.620
97091SOL    HW193170   4.337  10.690  10.534
97091SOL    HW293171   4.350  10.569  10.624
97092SOL     OW93172   1.675   6.168  13.618
97092SOL    HW193173   1.726   6.127  13.548
97092SOL    HW293174   1.733   6.166  13.694
97093SOL     OW93175   2.996  13.699   4.569
97093SOL    HW193176   3.048  13.771   4.604
97093SOL    HW293177   2.905  13.727   4.582
97094SOL     OW93178  10.084   6.728   5.455
97094SOL    HW193179  10.064   6.793   5.523
97094SOL    HW293180  10.068   6.773   5.373
97095SOL     OW93181   0.730  14.286   0.436
97095SOL    HW193182   0.721  14.381   0.444
97095SOL    HW293183   0.720  14.268   0.343
97096SOL     OW93184   9.599   7.048  14.144
97096SOL    HW193185   9.628   7.131  14.182
97096SOL    HW293186   9.588   7.068  14.051
97097SOL     OW93187   5.255   5.340  14.089
97097SOL    HW193188   5.236   5.389  14.169
97097SOL    HW293189   5.332   5.288  14.111
97098SOL     OW93190   7.096  10.051  12.109
97098SOL    HW193191   7.022  10.000  12.075
97098SOL    HW293192   7.126  10.103  12.034
97099SOL     OW93193  12.675  12.260  13.800
97099SOL    HW193194  12.766  12.268  13.829
97099SOL    HW293195  12.682  12.252  13.704
97100SOL     OW93196   8.960  11.090  13.113
97100SOL    HW193197   8.995  11.076  13.202
97100SOL    HW293198   9.031  11.064  13.055
97101SOL     OW93199  11.861   1.919   2.038
97101SOL    HW193200  11.937   1.867   2.015
97101SOL    HW293201  11.876   2.004   1.996
97102SOL     OW93202  11.044   6.853   4.764
97102SOL    HW193203  11.121   6.840   4.708
97102SOL    HW293204  10.976   6.882   4.703
97103SOL     OW93205   9.948   6.512   7.103
97103SOL    HW193206   9.861   6.497   7.066
97103SOL    HW293207   9.961   6.607   7.095
97104SOL     OW93208  12.342  11.669   2.473
97104SOL    HW193209  12.315  11.760   2.476
97104SOL    HW293210  12.293  11.631   2.400
97105SOL     OW93211   2.059   9.027   8.314
97105SOL    HW193212   2.015   9.112   8.322
97105SOL    HW293213   2.006   8.980   8.249
97106SOL     OW93214   9.759   7.089  14.683
97106SOL    HW193215   9.777   7.001  14.715
97106SOL    HW293216   9.667   7.087  14.656
97107SOL     OW93217  12.846   7.844   7.518
97107SOL    HW193218  12.907   7.771   7.508
97107SOL    HW293219  12.800   7.825   7.600
97108SOL     OW93220  10.890  10.886  11.564
97108SOL    HW193221  10.894  10.825  11.491
97108SOL    HW293222  10.902  10.972  11.525
97109SOL     OW93223   8.321  11.881   6.137
97109SOL    HW193224   8.326  11.867   6.232
97109SOL    HW293225   8.228  11.890   6.119
97110SOL     OW93226  14.281   9.150   9.376
97110SOL    HW193227  14.227   9.220   9.339
97110SOL    HW293228  14.272   9.160   9.471
97111SOL     OW93229   5.333   1.869   5.303
97111SOL    HW193230   5.399   1.877   5.234
97111SOL    HW293231   5.299   1.780   5.292
97112SOL     OW93232   5.386  11.877   6.183
97112SOL    HW193233   5.369  11.937   6.110
97112SOL    HW293234   5.355  11.792   6.152
97113SOL     OW93235   0.842   7.185   9.938
97113SOL    HW193236   0.850   7.119   9.869
97113SOL    HW293237   0.932   7.198   9.969
97114SOL     OW93238  12.866   3.808   4.714
97114SOL    HW193239  12.778   3.777   4.735
97114SOL    HW293240  12.896   3.851   4.793
97115SOL     OW93241   3.538   4.280  11.072
97115SOL    HW193242   3.522   4.218  11.000
97115SOL    HW293243   3.561   4.362  11.029
97116SOL     OW93244  10.810   2.825   9.100
97116SOL    HW193245  10.796   2.734   9.127
97116SOL    HW293246  10.848   2.867   9.176
97117SOL     OW93247  14.872  10.503   9.944
97117SOL    HW193248  14.790  10.453   9.944
97117SOL    HW293249  14.849  10.585   9.900
97118SOL     OW93250  11.916  10.814   2.020
97118SOL    HW193251  11.961  10.844   1.942
97118SOL    HW293252  11.887  10.725   1.998
97119SOL     OW93253   0.468   4.221   5.255
97119SOL    HW193254   0.464   4.156   5.325
97119SOL    HW293255   0.416   4.183   5.184
97120SOL     OW93256   0.843   3.742  10.213
97120SOL    HW193257   0.817   3.833  10.223
97120SOL    HW293258   0.933   3.739  10.246
97121SOL     OW93259   4.315   3.284   1.923
97121SOL    HW193260   4.251   3.354   1.916
97121SOL    HW293261   4.362   3.287   1.840
97122SOL     OW93262   4.323   4.210  10.244
97122SOL    HW193263   4.374   4.241  10.319
97122SOL    HW293264   4.377   4.140  10.206
97123SOL     OW93265   2.233   8.224   7.515
97123SOL    HW193266   2.323   8.220   7.548
97123SOL    HW293267   2.241   8.263   7.428
97124SOL     OW93268   0.072  11.844  13.702
97124SOL    HW193269   0.137  11.774  13.692
97124SOL    HW293270  14.880  11.816  13.648
97125SOL     OW93271  12.330   3.304   8.514
97125SOL    HW193272  12.389   3.380   8.511
97125SOL    HW293273  12.387   3.231   8.539
97126SOL     OW93274  10.793   0.960  13.133
97126SOL    HW193275  10.767   0.874  13.166
97126SOL    HW293276  10.796   1.015  13.211
97127SOL     OW93277  12.486  10.532   4.615
97127SOL    HW193278  12.573  10.512   4.648
97127SOL    HW293279  12.501  10.568   4.528
97128SOL     OW93280  12.867  12.122  12.812
97128SOL    HW193281  12.904  12.182  12.748
97128SOL    HW293282  12.783  12.095  12.774
97129SOL     OW93283  11.668   5.240   9.918
97129SOL    HW193284  11.669   5.305   9.988
97129SOL    HW293285  11.730   5.273   9.854
97130SOL     OW93286  11.023  13.272   6.660
97130SOL    HW193287  11.056  13.214   6.591
97130SOL    HW293288  10.947  13.227   6.695
97131SOL     OW93289  14.602   3.561   3.436
97131SOL    HW193290  14.548   3.633   3.467
97131SOL    HW293291  14.562   3.483   3.474
97132SOL     OW93292  12.490   0.158  10.281
97132SOL    HW193293  12.558   0.223  10.300
97132SOL    HW293294  12.443   0.148  10.364
97133SOL     OW93295   5.411   8.103  14.616
97133SOL    HW193296   5.499   8.078  14.643
97133SOL    HW293297   5.383   8.166  14.682
97134SOL     OW93298   8.924   1.362   4.835
97134SOL    HW193299   8.891   1.311   4.761
97134SOL    HW293300   8.990   1.306   4.875
97135SOL     OW93301   6.671  13.463   7.257
97135SOL    HW193302   6.661  13.417   7.174
97135SOL    HW293303   6.591  13.514   7.266
97136SOL     OW93304  11.731  10.385  13.626
97136SOL    HW193305  11.803  10.371  13.564
97136SOL    HW293306  11.731  10.307  13.680
97137SOL     OW93307   0.680  12.877   8.874
97137SOL    HW193308   0.614  12.939   8.844
97137SOL    HW293309   0.741  12.869   8.801
97138SOL     OW93310  12.475   6.182   3.022
97138SOL    HW193311  12.419   6.196   2.945
97138SOL    HW293312  12.507   6.270   3.043
97139SOL     OW93313  11.147  10.291   9.602
97139SOL    HW193314  11.099  10.372   9.585
97139SOL    HW293315  11.095  10.223   9.558
97140SOL     OW93316   0.918   8.664  14.866
97140SOL    HW193317   1.004   8.635   0.015
97140SOL    HW293318   0.917   8.758  14.881
97141SOL     OW93319   5.377  13.581   8.767
97141SOL    HW193320   5.376  13.595   8.862
97141SOL    HW293321   5.317  13.507   8.754
97142SOL     OW93322   5.931   4.754   9.567
97142SOL    HW193323   5.951   4.830   9.512
97142SOL    HW293324   5.979   4.770   9.649
97143SOL     OW93325   7.105   7.660   2.082
97143SOL    HW193326   7.047   7.728   2.046
97143SOL    HW293327   7.168   7.644   2.012
97144SOL     OW93328   6.689   7.991   5.676
97144SOL    HW193329   6.741   8.059   5.632
97144SOL    HW293330   6.633   8.039   5.737
97145SOL     OW93331   3.772   2.443  14.134
97145SOL    HW193332   3.824   2.394  14.070
97145SOL    HW293333   3.714   2.377  14.172
97146SOL     OW93334  10.912   6.469   0.850
97146SOL    HW193335  10.990   6.480   0.796
97146SOL    HW293336  10.843   6.515   0.803
97147SOL     OW93337   4.770  12.342  14.130
97147SOL    HW193338   4.793  12.420  14.179
97147SOL    HW293339   4.686  12.363  14.088
97148SOL     OW93340   3.327   9.720   9.718
97148SOL    HW193341   3.337   9.639   9.768
97148SOL    HW293342   3.377   9.706   9.639
97149SOL     OW93343   0.053   5.655   7.436
97149SOL    HW193344   0.030   5.614   7.352
97149SOL    HW293345   0.135   5.702   7.417
97150SOL     OW93346  11.216  14.229   4.695
97150SOL    HW193347  11.271  14.198   4.767
97150SOL    HW293348  11.168  14.303   4.732
97151SOL     OW93349   7.624   9.591   4.801
97151SOL    HW193350   7.715   9.580   4.775
97151SOL    HW293351   7.611   9.686   4.800
97152SOL     OW93352   1.773  11.397   9.894
97152SOL    HW193353   1.769  11.385   9.989
97152SOL    HW293354   1.740  11.315   9.858
97153SOL     OW93355   6.576   0.465   5.351
97153SOL    HW193356   6.536   0.420   5.277
97153SOL    HW293357   6.549   0.414   5.428
97154SOL     OW93358   7.571   2.247   6.944
97154SOL    HW193359   7.644   2.215   6.892
97154SOL    HW293360   7.503   2.181   6.934
97155SOL     OW93361   9.504   1.445  14.236
97155SOL    HW193362   9.409   1.441  14.250
97155SOL    HW293363   9.519   1.530  14.195
97156SOL     OW93364   0.995   0.610  13.519
97156SOL    HW193365   1.061   0.678  13.527
97156SOL    HW293366   0.912   0.656  13.529
97157SOL     OW93367   8.245   1.736   9.328
97157SOL    HW193368   8.261   1.790   9.251
97157SOL    HW293369   8.322   1.749   9.383
97158SOL     OW93370  13.565   9.509   1.112
97158SOL    HW193371  13.636   9.570   1.089
97158SOL    HW293372  13.608   9.424   1.118
97159SOL     OW93373  11.153  13.246  14.451
97159SOL    HW193374  11.214  13.289  14.392
97159SOL    HW293375  11.195  13.164  14.475
97160SOL     OW93376   0.033  10.075  14.141
97160SOL    HW193377   0.072  10.060  14.055
97160SOL    HW293378   0.103  10.117  14.192
97161SOL     OW93379   9.890   6.557   2.104
97161SOL    HW193380   9.953   6.594   2.165
97161SOL    HW293381   9.830   6.507   2.158
97162SOL     OW93382   2.585   0.550   2.147
97162SOL    HW193383   2.642   0.623   2.123
97162SOL    HW293384   2.626   0.474   2.105
97163SOL     OW93385  14.083  10.168   1.792
97163SOL    HW193386  14.118  10.250   1.826
97163SOL    HW293387  14.069  10.185   1.699
97164SOL     OW93388   5.477  14.411  11.634
97164SOL    HW193389   5.510  14.326  11.662
97164SOL    HW293390   5.472  14.406  11.539
97165SOL     OW93391  11.626   8.992   0.838
97165SOL    HW193392  11.545   8.955   0.871
97165SOL    HW293393  11.598   9.058   0.775
97166SOL     OW93394   6.902   3.525   1.077
97166SOL    HW193395   6.959   3.559   1.008
97166SOL    HW293396   6.813   3.538   1.045
97167SOL     OW93397   1.350   7.339   4.929
97167SOL    HW193398   1.419   7.370   4.870
97167SOL    HW293399   1.361   7.244   4.931
97168SOL     OW93400   9.965  10.624   6.009
97168SOL    HW193401   9.891  10.584   5.964
97168SOL    HW293402  10.040  10.603   5.954
97169SOL     OW93403  12.172   4.538   1.466
97169SOL    HW193404  12.127   4.613   1.505
97169SOL    HW293405  12.140   4.534   1.376
97170SOL     OW93406   8.742  12.553  12.444
97170SOL    HW193407   8.681  12.589  12.378
97170SOL    HW293408   8.829  12.577  12.411
97171SOL     OW93409   1.785   6.699   0.110
97171SOL    HW193410   1.702   6.657   0.088
97171SOL    HW293411   1.773   6.732   0.199
97172SOL     OW93412   6.772   7.092   7.290
97172SOL    HW193413   6.783   7.000   7.316
97172SOL    HW293414   6.679   7.110   7.302
97173SOL     OW93415   4.857  11.132  14.622
97173SOL    HW193416   4.895  11.089  14.699
97173SOL    HW293417   4.911  11.210  14.608
97174SOL     OW93418   8.280   4.059  13.054
97174SOL    HW193419   8.271   4.154  13.062
97174SOL    HW293420   8.201   4.023  13.094
97175SOL     OW93421  11.370   0.926   0.565
97175SOL    HW193422  11.458   0.907   0.597
97175SOL    HW293423  11.370   1.019   0.544
97176SOL     OW93424   7.056  13.473   5.603
97176SOL    HW193425   7.115  13.467   5.528
97176SOL    HW293426   7.044  13.567   5.618
97177SOL     OW93427  12.088   6.625   8.907
97177SOL    HW193428  12.182   6.629   8.890
97177SOL    HW293429  12.081   6.599   8.998
97178SOL     OW93430  11.320   3.349  14.206
97178SOL    HW193431  11.277   3.280  14.155
97178SOL    HW293432  11.414   3.335  14.191
97179SOL     OW93433   3.331  11.337  12.683
97179SOL    HW193434   3.340  11.431  12.697
97179SOL    HW293435   3.341  11.326  12.588
97180SOL     OW93436  12.742  12.016   8.582
97180SOL    HW193437  12.796  12.093   8.561
97180SOL    HW293438  12.792  11.942   8.548
97181SOL     OW93439  12.343   8.356  12.370
97181SOL    HW193440  12.354   8.260  12.370
97181SOL    HW293441  12.338   8.379  12.463
97182SOL     OW93442   1.813  14.625   8.035
97182SOL    HW193443   1.833  14.555   8.097
97182SOL    HW293444   1.888  14.685   8.042
97183SOL     OW93445   3.249   2.622   6.032
97183SOL    HW193446   3.274   2.585   6.117
97183SOL    HW293447   3.158   2.649   6.044
97184SOL     OW93448   2.096  14.071  14.298
97184SOL    HW193449   2.081  14.006  14.229
97184SOL    HW293450   2.080  14.023  14.380
97185SOL     OW93451   0.453  10.009   7.293
97185SOL    HW193452   0.460   9.959   7.211
97185SOL    HW293453   0.541  10.009   7.329
97186SOL     OW93454   2.579  10.461   2.394
97186SOL    HW193455   2.494  10.445   2.352
97186SOL    HW293456   2.628  10.380   2.382
97187SOL     OW93457   2.075   9.471   6.817
97187SOL    HW193458   2.050   9.380   6.801
97187SOL    HW293459   2.147   9.465   6.880
97188SOL     OW93460   9.426   4.987   1.020
97188SOL    HW193461   9.391   5.000   1.108
97188SOL    HW293462   9.443   5.076   0.988
97189SOL     OW93463  12.055  13.892  10.485
97189SOL    HW193464  12.071  13.801  10.459
97189SOL    HW293465  11.991  13.885  10.556
97190SOL     OW93466  12.798   0.078   0.001
97190SOL    HW193467  12.769   0.126  14.806
97190SOL    HW293468  12.723   0.024   0.027
97191SOL     OW93469   3.349   2.104  10.681
97191SOL    HW193470   3.400   2.170  10.728
97191SOL    HW293471   3.260   2.137  10.683
97192SOL     OW93472  14.627  12.916  10.686
97192SOL    HW193473  14.583  12.950  10.765
97192SOL    HW293474  14.569  12.846  10.655
97193SOL     OW93475   3.974   0.440  11.161
97193SOL    HW193476   3.914   0.480  11.224
97193SOL    HW293477   3.999   0.357  11.201
97194SOL     OW93478   9.099   7.196  12.360
97194SOL    HW193479   9.190   7.164  12.360
97194SOL    HW293480   9.104   7.280  12.405
97195SOL     OW93481   8.108   9.784  14.397
97195SOL    HW193482   8.118   9.879  14.408
97195SOL    HW293483   8.099   9.750  14.486
97196SOL     OW93484  11.506   0.070   8.245
97196SOL    HW193485  11.505   0.129   8.320
97196SOL    HW293486  11.457  14.875   8.274
97197SOL     OW93487  13.298   4.329   6.807
97197SOL    HW193488  13.339   4.286   6.732
97197SOL    HW293489  13.271   4.258   6.865
97198SOL     OW93490   4.867  11.520   1.244
97198SOL    HW193491   4.887  11.444   1.298
97198SOL    HW293492   4.774  11.511   1.224
97199SOL     OW93493  10.729  10.985   3.867
97199SOL    HW193494  10.754  11.060   3.921
97199SOL    HW293495  10.788  10.915   3.894
97200SOL     OW93496   1.427   0.047   6.545
97200SOL    HW193497   1.490  14.857   6.549
97200SOL    HW293498   1.480   0.126   6.551
97201SOL     OW93499   8.973   6.933   0.404
97201SOL    HW193500   9.041   6.869   0.425
97201SOL    HW293501   8.923   6.942   0.486
97202SOL     OW93502  14.520   0.859  13.269
97202SOL    HW193503  14.517   0.938  13.322
97202SOL    HW293504  14.603   0.817  13.293
97203SOL     OW93505  10.723   1.384   4.029
97203SOL    HW193506  10.645   1.387   4.086
97203SOL    HW293507  10.707   1.451   3.963
97204SOL     OW93508   9.962  13.693   4.529
97204SOL    HW193509  10.008  13.733   4.455
97204SOL    HW293510  10.024  13.629   4.564
97205SOL     OW93511  14.333   6.340   1.423
97205SOL    HW193512  14.366   6.251   1.434
97205SOL    HW293513  14.271   6.333   1.350
97206SOL     OW93514   2.233   7.408   8.611
97206SOL    HW193515   2.329   7.414   8.616
97206SOL    HW293516   2.215   7.314   8.613
97207SOL     OW93517  14.265   9.497  14.507
97207SOL    HW193518  14.311   9.430  14.457
97207SOL    HW293519  14.195   9.450  14.552
97208SOL     OW93520   1.973   5.784   8.357
97208SOL    HW193521   2.019   5.829   8.286
97208SOL    HW293522   1.881   5.783   8.329
97209SOL     OW93523   4.728  11.868   7.472
97209SOL    HW193524   4.774  11.869   7.556
97209SOL    HW293525   4.734  11.777   7.442
97210SOL     OW93526  13.768   1.481   5.311
97210SOL    HW193527  13.684   1.475   5.356
97210SOL    HW293528  13.832   1.446   5.373
97211SOL     OW93529  14.458   1.518  13.197
97211SOL    HW193530  14.507   1.508  13.278
97211SOL    HW293531  14.367   1.526  13.225
97212SOL     OW93532  10.573  11.166  12.159
97212SOL    HW193533  10.666  11.190  12.153
97212SOL    HW293534  10.539  11.219  12.231
97213SOL     OW93535  13.504  12.363   1.218
97213SOL    HW193536  13.521  12.457   1.214
97213SOL    HW293537  13.415  12.355   1.252
97214SOL     OW93538  13.348   4.664  10.475
97214SOL    HW193539  13.287   4.590  10.475
97214SOL    HW293540  13.406   4.647  10.549
97215SOL     OW93541   0.757  11.779   5.606
97215SOL    HW193542   0.809  11.775   5.686
97215SOL    HW293543   0.765  11.691   5.568
97216SOL     OW93544  14.240   9.201  11.042
97216SOL    HW193545  14.227   9.295  11.030
97216SOL    HW293546  14.305   9.195  11.112
97217SOL     OW93547  13.712  13.973  10.171
97217SOL    HW193548  13.677  14.012  10.092
97217SOL    HW293549  13.640  13.977  10.234
97218SOL     OW93550   2.074   1.207  12.713
97218SOL    HW193551   2.021   1.153  12.771
97218SOL    HW293552   2.061   1.169  12.626
97219SOL     OW93553   7.610  10.942   8.634
97219SOL    HW193554   7.682  11.001   8.610
97219SOL    HW293555   7.645  10.855   8.618
97220SOL     OW93556   5.816   5.501   9.422
97220SOL    HW193557   5.770   5.418   9.413
97220SOL    HW293558   5.843   5.504   9.514
97221SOL     OW93559   3.279   0.400   0.775
97221SOL    HW193560   3.187   0.421   0.760
97221SOL    HW293561   3.278   0.335   0.845
97222SOL     OW93562  10.846   1.636   8.266
97222SOL    HW193563  10.875   1.556   8.222
97222SOL    HW293564  10.821   1.607   8.354
97223SOL     OW93565   4.545   2.120  13.288
97223SOL    HW193566   4.577   2.131  13.199
97223SOL    HW293567   4.578   2.034  13.314
97224SOL     OW93568  12.085   0.039   0.423
97224SOL    HW193569  11.995   0.012   0.408
97224SOL    HW293570  12.081   0.097   0.498
97225SOL     OW93571   1.503   3.078   8.799
97225SOL    HW193572   1.487   3.168   8.770
97225SOL    HW293573   1.475   3.077   8.890
97226SOL     OW93574   9.506   1.777   4.861
97226SOL    HW193575   9.416   1.799   4.882
97226SOL    HW293576   9.523   1.696   4.910
97227SOL     OW93577   8.714   0.170   5.615
97227SOL    HW193578   8.671   0.134   5.537
97227SOL    HW293579   8.768   0.241   5.582
97228SOL     OW93580   1.187   0.178  14.098
97228SOL    HW193581   1.275   0.153  14.123
97228SOL    HW293582   1.200   0.249  14.035
97229SOL     OW93583   6.261   0.540   8.208
97229SOL    HW193584   6.337   0.546   8.267
97229SOL    HW293585   6.222   0.455   8.227
97230SOL     OW93586   6.316  13.101  13.627
97230SOL    HW193587   6.237  13.089  13.574
97230SOL    HW293588   6.351  13.013  13.639
97231SOL     OW93589   5.267   1.159  12.299
97231SOL    HW193590   5.352   1.141  12.259
97231SOL    HW293591   5.235   1.074  12.326
97232SOL     OW93592  10.498  14.293   5.122
97232SOL    HW193593  10.555  14.363   5.153
97232SOL    HW293594  10.412  14.332   5.115
97233SOL     OW93595  13.328   0.466   3.086
97233SOL    HW193596  13.279   0.412   3.148
97233SOL    HW293597  13.272   0.472   3.009
97234SOL     OW93598  14.554   4.785   7.795
97234SOL    HW193599  14.632   4.734   7.774
97234SOL    HW293600  14.560   4.862   7.739
97235SOL     OW93601   0.719   9.887   3.080
97235SOL    HW193602   0.727   9.791   3.074
97235SOL    HW293603   0.642   9.900   3.136
97236SOL     OW93604   9.095  14.675  11.438
97236SOL    HW193605   9.166  14.736  11.422
97236SOL    HW293606   9.114  14.600  11.381
97237SOL     OW93607   7.389   6.581  14.586
97237SOL    HW193608   7.318   6.562  14.524
97237SOL    HW293609   7.347   6.574  14.672
97238SOL     OW93610   5.947   6.900   4.970
97238SOL    HW193611   6.033   6.933   4.948
97238SOL    HW293612   5.887   6.946   4.912
97239SOL     OW93613   2.932   6.912   8.142
97239SOL    HW193614   2.846   6.902   8.182
97239SOL    HW293615   2.950   7.006   8.148
97240SOL     OW93616   7.332   0.843   5.848
97240SOL    HW193617   7.242   0.825   5.876
97240SOL    HW293618   7.330   0.934   5.818
97241SOL     OW93619  11.967   1.429  11.863
97241SOL    HW193620  11.915   1.504  11.833
97241SOL    HW293621  11.910   1.383  11.925
97242SOL     OW93622   5.803   7.911   9.279
97242SOL    HW193623   5.768   7.940   9.363
97242SOL    HW293624   5.863   7.840   9.301
97243SOL     OW93625   8.307  12.530   9.255
97243SOL    HW193626   8.285  12.569   9.170
97243SOL    HW293627   8.371  12.462   9.234
97244SOL     OW93628   5.604  11.713   4.341
97244SOL    HW193629   5.583  11.620   4.351
97244SOL    HW293630   5.592  11.750   4.428
97245SOL     OW93631   4.209   6.590   7.991
97245SOL    HW193632   4.268   6.615   7.920
97245SOL    HW293633   4.195   6.496   7.979
97246SOL     OW93634  10.168   2.047   8.314
97246SOL    HW193635  10.203   2.094   8.238
97246SOL    HW293636  10.118   1.975   8.276
97247SOL     OW93637  12.119  14.218   2.671
97247SOL    HW193638  12.166  14.301   2.671
97247SOL    HW293639  12.180  14.157   2.629
97248SOL     OW93640  11.373   8.347  14.602
97248SOL    HW193641  11.292   8.328  14.556
97248SOL    HW293642  11.435   8.369  14.533
97249SOL     OW93643   4.954  10.258   2.659
97249SOL    HW193644   4.912  10.252   2.744
97249SOL    HW293645   4.914  10.189   2.607
97250SOL     OW93646   3.916   7.574  14.512
97250SOL    HW193647   3.992   7.520  14.489
97250SOL    HW293648   3.858   7.514  14.560
97251SOL     OW93649   8.188  10.636  14.113
97251SOL    HW193650   8.217  10.693  14.041
97251SOL    HW293651   8.093  10.638  14.107
97252SOL     OW93652   8.837   4.879   5.939
97252SOL    HW193653   8.894   4.909   6.009
97252SOL    HW293654   8.770   4.826   5.983
97253SOL     OW93655  13.857  12.918  14.819
97253SOL    HW193656  13.912  12.980  14.770
97253SOL    HW293657  13.911  12.893   0.012
97254SOL     OW93658   6.345  10.004   0.077
97254SOL    HW193659   6.339   9.953   0.158
97254SOL    HW293660   6.387   9.945   0.015
97255SOL     OW93661  10.813   5.038  11.737
97255SOL    HW193662  10.802   5.133  11.747
97255SOL    HW293663  10.805   5.003  11.826
97256SOL     OW93664  11.212   0.371   2.702
97256SOL    HW193665  11.269   0.388   2.777
97256SOL    HW293666  11.255   0.413   2.628
97257SOL     OW93667   8.713  10.040   2.698
97257SOL    HW193668   8.797  10.000   2.722
97257SOL    HW293669   8.688  10.089   2.776
97258SOL     OW93670   1.010  11.824   6.257
97258SOL    HW193671   1.066  11.900   6.251
97258SOL    HW293672   0.945  11.836   6.188
97259SOL     OW93673  14.803   7.856   9.424
97259SOL    HW193674  14.871   7.920   9.446
97259SOL    HW293675  14.742   7.859   9.497
97260SOL     OW93676  14.183   3.333   1.190
97260SOL    HW193677  14.155   3.265   1.128
97260SOL    HW293678  14.128   3.408   1.170
97261SOL     OW93679   5.309   4.129  12.210
97261SOL    HW193680   5.300   4.214  12.168
97261SOL    HW293681   5.404   4.114  12.213
97262SOL     OW93682   5.192  10.785   7.743
97262SOL    HW193683   5.226  10.698   7.760
97262SOL    HW293684   5.112  10.770   7.694
97263SOL     OW93685  12.413  13.602   3.571
97263SOL    HW193686  12.326  13.629   3.598
97263SOL    HW293687  12.443  13.672   3.513
97264SOL     OW93688  12.512  13.480   2.156
97264SOL    HW193689  12.442  13.512   2.214
97264SOL    HW293690  12.466  13.428   2.090
97265SOL     OW93691  12.395   0.574   9.005
97265SOL    HW193692  12.366   0.642   8.944
97265SOL    HW293693  12.343   0.497   8.983
97266SOL     OW93694   7.592   5.934   8.111
97266SOL    HW193695   7.556   5.932   8.022
97266SOL    HW293696   7.687   5.933   8.099
97267SOL     OW93697   4.177  14.807   7.741
97267SOL    HW193698   4.246  14.795   7.676
97267SOL    HW293699   4.105  14.849   7.694
97268SOL     OW93700  12.228  13.381   9.491
97268SOL    HW193701  12.193  13.390   9.402
97268SOL    HW293702  12.225  13.287   9.508
97269SOL     OW93703  12.647  14.601   8.608
97269SOL    HW193704  12.597  14.629   8.532
97269SOL    HW293705  12.683  14.681   8.645
97270SOL     OW93706   6.210   3.605   1.302
97270SOL    HW193707   6.136   3.663   1.316
97270SOL    HW293708   6.281   3.642   1.355
97271SOL     OW93709   6.379   9.466   5.754
97271SOL    HW193710   6.444   9.415   5.801
97271SOL    HW293711   6.295   9.430   5.781
97272SOL     OW93712   9.777   0.279   1.342
97272SOL    HW193713   9.824   0.206   1.303
97272SOL    HW293714   9.802   0.355   1.290
97273SOL     OW93715  12.458  13.176   8.398
97273SOL    HW193716  12.414  13.143   8.476
97273SOL    HW293717  12.422  13.124   8.326
97274SOL     OW93718   3.234   8.774  13.959
97274SOL    HW193719   3.159   8.801  13.907
97274SOL    HW293720   3.262   8.691  13.921
97275SOL     OW93721   3.080   4.750  13.221
97275SOL    HW193722   3.023   4.795  13.283
97275SOL    HW293723   3.088   4.811  13.148
97276SOL     OW93724   9.685   5.539   7.605
97276SOL    HW193725   9.635   5.460   7.624
97276SOL    HW293726   9.720   5.525   7.516
97277SOL     OW93727   8.380   5.381  14.487
97277SOL    HW193728   8.362   5.295  14.448
97277SOL    HW293729   8.297   5.406  14.528
97278SOL     OW93730   8.288  12.714   9.051
97278SOL    HW193731   8.244  12.665   8.982
97278SOL    HW293732   8.291  12.804   9.019
97279SOL     OW93733   9.778   9.895   4.049
97279SOL    HW193734   9.808   9.879   4.138
97279SOL    HW293735   9.700   9.840   4.039
97280SOL     OW93736  11.181   2.688   4.306
97280SOL    HW193737  11.110   2.752   4.307
97280SOL    HW293738  11.141   2.608   4.271
97281SOL     OW93739  12.796   1.812   4.895
97281SOL    HW193740  12.713   1.793   4.937
97281SOL    HW293741  12.862   1.795   4.962
97282SOL     OW93742  10.398   9.268   0.115
97282SOL    HW193743  10.492   9.281   0.107
97282SOL    HW293744  10.372   9.227   0.032
97283SOL     OW93745   9.471   2.518   1.849
97283SOL    HW193746   9.480   2.608   1.817
97283SOL    HW293747   9.501   2.464   1.776
97284SOL     OW93748   3.968  14.384   7.589
97284SOL    HW193749   3.950  14.292   7.608
97284SOL    HW293750   3.953  14.429   7.672
97285SOL     OW93751   5.330  11.018   3.087
97285SOL    HW193752   5.303  11.097   3.040
97285SOL    HW293753   5.359  10.958   3.018
97286SOL     OW93754   5.930   4.533  13.754
97286SOL    HW193755   6.018   4.555  13.786
97286SOL    HW293756   5.896   4.471  13.818
97287SOL     OW93757  12.814  10.955   9.136
97287SOL    HW193758  12.745  10.889   9.131
97287SOL    HW293759  12.787  11.013   9.207
97288SOL     OW93760   5.391   1.664   5.678
97288SOL    HW193761   5.333   1.615   5.619
97288SOL    HW293762   5.444   1.719   5.619
97289SOL     OW93763   4.093   8.919   4.962
97289SOL    HW193764   4.028   8.858   4.927
97289SOL    HW293765   4.176   8.871   4.959
97290SOL     OW93766   9.850   3.054  10.532
97290SOL    HW193767   9.755   3.051  10.520
97290SOL    HW293768   9.882   3.107  10.459
97291SOL     OW93769   8.966   6.175  12.716
97291SOL    HW193770   8.873   6.189  12.734
97291SOL    HW293771   9.011   6.236  12.773
97292SOL     OW93772   0.055  11.752   6.334
97292SOL    HW193773   0.032  11.767   6.426
97292SOL    HW293774  14.862  11.785   6.285
97293SOL     OW93775  12.338  10.110   4.230
97293SOL    HW193776  12.415  10.128   4.283
97293SOL    HW293777  12.273  10.077   4.292
97294SOL     OW93778   0.373   1.625   4.478
97294SOL    HW193779   0.396   1.718   4.483
97294SOL    HW293780   0.335   1.605   4.563
97295SOL     OW93781   8.951  10.879   4.639
97295SOL    HW193782   8.958  10.974   4.627
97295SOL    HW293783   9.009  10.860   4.713
97296SOL     OW93784   1.634  11.648   7.736
97296SOL    HW193785   1.641  11.632   7.830
97296SOL    HW293786   1.644  11.743   7.727
97297SOL     OW93787   0.278   0.668  12.978
97297SOL    HW193788   0.330   0.730  12.926
97297SOL    HW293789   0.340   0.633  13.042
97298SOL     OW93790   1.325   3.393   9.601
97298SOL    HW193791   1.397   3.363   9.657
97298SOL    HW293792   1.354   3.477   9.567
97299SOL     OW93793   4.582   1.000  10.403
97299SOL    HW193794   4.622   1.085  10.386
97299SOL    HW293795   4.498   1.004  10.358
97300SOL     OW93796   1.136   5.023   7.350
97300SOL    HW193797   1.063   4.980   7.394
97300SOL    HW293798   1.206   4.957   7.351
97301SOL     OW93799  11.636   0.065  13.126
97301SOL    HW193800  11.653   0.034  13.037
97301SOL    HW293801  11.541   0.076  13.130
97302SOL     OW93802   8.741   9.480   8.827
97302SOL    HW193803   8.680   9.406   8.830
97302SOL    HW293804   8.793   9.470   8.907
97303SOL     OW93805   4.198   8.413   8.847
97303SOL    HW193806   4.234   8.456   8.925
97303SOL    HW293807   4.240   8.328   8.844
97304SOL     OW93808   2.921   9.954   0.709
97304SOL    HW193809   2.934  10.044   0.741
97304SOL    HW293810   2.852   9.962   0.643
97305SOL     OW93811  11.671   9.026   5.823
97305SOL    HW193812  11.731   9.049   5.752
97305SOL    HW293813  11.584   9.049   5.789
97306SOL     OW93814  13.686   6.437   8.940
97306SOL    HW193815  13.619   6.456   9.006
97306SOL    HW293816  13.760   6.491   8.966
97307SOL     OW93817   1.827   4.290   2.924
97307SOL    HW193818   1.791   4.229   2.989
97307SOL    HW293819   1.869   4.234   2.859
97308SOL     OW93820   5.546   5.355   8.645
97308SOL    HW193821   5.511   5.268   8.624
97308SOL    HW293822   5.503   5.413   8.582
97309SOL     OW93823   2.336   0.123   6.944
97309SOL    HW193824   2.394   0.126   6.868
97309SOL    HW293825   2.355   0.204   6.992
97310SOL     OW93826   2.423  12.911  10.371
97310SOL    HW193827   2.415  12.853  10.446
97310SOL    HW293828   2.469  12.988  10.404
97311SOL     OW93829   9.667   2.854   7.515
97311SOL    HW193830   9.648   2.845   7.422
97311SOL    HW293831   9.723   2.780   7.536
97312SOL     OW93832   1.278   1.183   1.030
97312SOL    HW193833   1.237   1.205   1.113
97312SOL    HW293834   1.351   1.126   1.053
97313SOL     OW93835  13.117  14.525   0.882
97313SOL    HW193836  13.170  14.597   0.846
97313SOL    HW293837  13.030  14.539   0.846
97314SOL     OW93838  14.330  11.495   5.307
97314SOL    HW193839  14.286  11.574   5.337
97314SOL    HW293840  14.328  11.436   5.383
97315SOL     OW93841  14.150   9.679  10.033
97315SOL    HW193842  14.177   9.716  10.117
97315SOL    HW293843  14.149   9.754   9.973
97316SOL     OW93844   3.300   7.475   7.357
97316SOL    HW193845   3.383   7.474   7.404
97316SOL    HW293846   3.239   7.427   7.414
97317SOL     OW93847   6.634  11.877   2.206
97317SOL    HW193848   6.594  11.953   2.248
97317SOL    HW293849   6.567  11.808   2.211
97318SOL     OW93850  10.055   5.919   1.046
97318SOL    HW193851  10.085   5.896   0.958
97318SOL    HW293852   9.966   5.885   1.051
97319SOL     OW93853   0.830   4.878   5.230
97319SOL    HW193854   0.750   4.826   5.239
97319SOL    HW293855   0.802   4.955   5.180
97320SOL     OW93856   6.924   7.449   7.023
97320SOL    HW193857   6.971   7.446   7.106
97320SOL    HW293858   6.987   7.485   6.960
97321SOL     OW93859  10.714   7.693   7.030
97321SOL    HW193860  10.775   7.646   6.972
97321SOL    HW293861  10.759   7.695   7.115
97322SOL     OW93862   2.600   3.820   4.809
97322SOL    HW193863   2.627   3.734   4.841
97322SOL    HW293864   2.681   3.865   4.786
97323SOL     OW93865   3.278   6.048   3.207
97323SOL    HW193866   3.235   6.009   3.284
97323SOL    HW293867   3.239   6.135   3.199
97324SOL     OW93868   9.825   5.220  10.553
97324SOL    HW193869   9.772   5.214  10.473
97324SOL    HW293870   9.760   5.223  10.623
97325SOL     OW93871   6.323   0.904   5.415
97325SOL    HW193872   6.244   0.876   5.460
97325SOL    HW293873   6.361   0.823   5.380
97326SOL     OW93874  11.641   4.831  13.034
97326SOL    HW193875  11.698   4.797  12.965
97326SOL    HW293876  11.629   4.758  13.094
97327SOL     OW93877   7.354   5.291   4.779
97327SOL    HW193878   7.428   5.247   4.737
97327SOL    HW293879   7.369   5.384   4.765
97328SOL     OW93880  14.601   4.673  11.564
97328SOL    HW193881  14.696   4.676  11.580
97328SOL    HW293882  14.565   4.640  11.647
97329SOL     OW93883  14.635   9.535   4.977
97329SOL    HW193884  14.659   9.472   4.909
97329SOL    HW293885  14.678   9.616   4.951
97330SOL     OW93886  11.462   2.648   5.734
97330SOL    HW193887  11.413   2.580   5.779
97330SOL    HW293888  11.439   2.729   5.780
97331SOL     OW93889  13.116  12.699  13.484
97331SOL    HW193890  13.080  12.611  13.476
97331SOL    HW293891  13.043  12.753  13.514
97332SOL     OW93892  11.453   4.096   4.771
97332SOL    HW193893  11.470   4.181   4.730
97332SOL    HW293894  11.368   4.069   4.737
97333SOL     OW93895  12.401   6.368   9.889
97333SOL    HW193896  12.432   6.445   9.840
97333SOL    HW293897  12.423   6.388   9.980
97334SOL     OW93898   3.084   7.884   4.031
97334SOL    HW193899   3.090   7.961   3.974
97334SOL    HW293900   3.150   7.900   4.099
97335SOL     OW93901   9.159  12.391   2.754
97335SOL    HW193902   9.110  12.429   2.681
97335SOL    HW293903   9.236  12.351   2.713
97336SOL     OW93904  13.635   3.313  10.831
97336SOL    HW193905  13.549   3.353  10.819
97336SOL    HW293906  13.692   3.360  10.770
97337SOL     OW93907   6.280  12.204  10.872
97337SOL    HW193908   6.256  12.141  10.804
97337SOL    HW293909   6.371  12.226  10.852
97338SOL     OW93910   2.262  11.935  12.383
97338SOL    HW193911   2.250  11.901  12.294
97338SOL    HW293912   2.349  11.975  12.382
97339SOL     OW93913  10.386  13.854   9.598
97339SOL    HW193914  10.404  13.904   9.677
97339SOL    HW293915  10.341  13.775   9.628
97340SOL     OW93916   1.597  14.685  13.366
97340SOL    HW193917   1.554  14.765  13.397
97340SOL    HW293918   1.549  14.661  13.287
97341SOL     OW93919  10.988   2.828  13.516
97341SOL    HW193920  10.930   2.904  13.526
97341SOL    HW293921  11.073   2.859  13.548
97342SOL     OW93922   8.164  12.866   4.707
97342SOL    HW193923   8.230  12.904   4.765
97342SOL    HW293924   8.080  12.890   4.746
97343SOL     OW93925   5.138   2.638   6.640
97343SOL    HW193926   5.045   2.628   6.659
97343SOL    HW293927   5.159   2.565   6.581
97344SOL     OW93928   9.500   7.696  12.727
97344SOL    HW193929   9.486   7.777  12.775
97344SOL    HW293930   9.575   7.714  12.670
97345SOL     OW93931  13.683   7.748   6.072
97345SOL    HW193932  13.773   7.720   6.090
97345SOL    HW293933  13.692   7.813   6.003
97346SOL     OW93934   9.493   0.623   1.491
97346SOL    HW193935   9.448   0.644   1.574
97346SOL    HW293936   9.536   0.539   1.509
97347SOL     OW93937   3.610   4.968   7.354
97347SOL    HW193938   3.567   4.883   7.362
97347SOL    HW293939   3.590   4.997   7.265
97348SOL     OW93940  11.919   0.078  13.174
97348SOL    HW193941  11.892   0.010  13.235
97348SOL    HW293942  11.840   0.101  13.126
97349SOL     OW93943   3.143  11.167   1.635
97349SOL    HW193944   3.171  11.122   1.715
97349SOL    HW293945   3.082  11.234   1.665
97350SOL     OW93946   8.834   7.737  13.356
97350SOL    HW193947   8.902   7.683  13.397
97350SOL    HW293948   8.793   7.783  13.429
97351SOL     OW93949   2.593  13.368  14.167
97351SOL    HW193950   2.504  13.340  14.146
97351SOL    HW293951   2.585  13.414  14.251
97352SOL     OW93952  13.799   1.441   6.333
97352SOL    HW193953  13.778   1.354   6.298
97352SOL    HW293954  13.854   1.424   6.408
97353SOL     OW93955   8.514  10.270   1.170
97353SOL    HW193956   8.578  10.205   1.200
97353SOL    HW293957   8.455  10.282   1.245
97354SOL     OW93958   8.726  10.822   4.517
97354SOL    HW193959   8.805  10.824   4.571
97354SOL    HW293960   8.758  10.810   4.428
97355SOL     OW93961   7.824   0.743   1.282
97355SOL    HW193962   7.810   0.836   1.300
97355SOL    HW293963   7.872   0.710   1.358
97356SOL     OW93964   6.939  11.218   8.882
97356SOL    HW193965   6.923  11.210   8.788
97356SOL    HW293966   6.989  11.140   8.905
97357SOL     OW93967   4.317   4.058   3.081
97357SOL    HW193968   4.349   4.146   3.062
97357SOL    HW293969   4.234   4.053   3.034
97358SOL     OW93970   3.307   4.594   1.404
97358SOL    HW193971   3.239   4.571   1.468
97358SOL    HW293972   3.259   4.624   1.328
97359SOL     OW93973   0.963   6.704   9.636
97359SOL    HW193974   0.935   6.741   9.553
97359SOL    HW293975   1.044   6.658   9.616
97360SOL     OW93976  14.368   3.461   6.649
97360SOL    HW193977  14.384   3.481   6.557
97360SOL    HW293978  14.370   3.546   6.693
97361SOL     OW93979   8.723   1.393   1.801
97361SOL    HW193980   8.778   1.413   1.726
97361SOL    HW293981   8.633   1.394   1.766
97362SOL     OW93982   3.543  10.399  12.282
97362SOL    HW193983   3.487  10.322  12.280
97362SOL    HW293984   3.591  10.393  12.365
97363SOL     OW93985  12.485  11.401   9.975
97363SOL    HW193986  12.429  11.359   9.910
97363SOL    HW293987  12.430  11.409  10.053
97364SOL     OW93988   2.209   1.557  13.776
97364SOL    HW193989   2.152   1.602  13.838
97364SOL    HW293990   2.263   1.627  13.739
97365SOL     OW93991  13.783  14.727   0.358
97365SOL    HW193992  13.842  14.747   0.430
97365SOL    HW293993  13.831  14.752   0.279
97366SOL     OW93994   7.599   4.245   0.865
97366SOL    HW193995   7.641   4.315   0.814
97366SOL    HW293996   7.603   4.276   0.955
97367SOL     OW93997   6.134   2.055   5.740
97367SOL    HW193998   6.124   2.023   5.830
97367SOL    HW293999   6.228   2.061   5.727
97368SOL     OW94000   4.247   2.492   0.329
97368SOL    HW194001   4.324   2.490   0.273
97368SOL    HW294002   4.260   2.420   0.391
97369SOL     OW94003  14.503  13.190  14.517
97369SOL    HW194004  14.455  13.166  14.437
97369SOL    HW294005  14.524  13.283  14.504
97370SOL     OW94006   5.008   7.158  10.150
97370SOL    HW194007   4.936   7.166  10.088
97370SOL    HW294008   4.993   7.075  10.195
97371SOL     OW94009   2.028   2.121  11.692
97371SOL    HW194010   2.118   2.129  11.661
97371SOL    HW294011   2.023   2.032  11.729
97372SOL     OW94012  10.252   8.169   6.639
97372SOL    HW194013  10.318   8.101   6.654
97372SOL    HW294014  10.234   8.203   6.727
97373SOL     OW94015  11.798   6.864  11.952
97373SOL    HW194016  11.815   6.845  12.044
97373SOL    HW294017  11.812   6.959  11.944
97374SOL     OW94018   1.879  10.361   6.687
97374SOL    HW194019   1.966  10.376   6.723
97374SOL    HW294020   1.859  10.440   6.637
97375SOL     OW94021   1.870  12.948  14.763
97375SOL    HW194022   1.872  13.033  14.806
97375SOL    HW294023   1.933  12.956  14.691
97376SOL     OW94024  13.122   2.369  14.099
97376SOL    HW194025  13.060   2.363  14.172
97376SOL    HW294026  13.205   2.393  14.140
97377SOL     OW94027   4.307  12.682  11.435
97377SOL    HW194028   4.322  12.657  11.527
97377SOL    HW294029   4.394  12.708  11.403
97378SOL     OW94030   2.205  10.497   7.855
97378SOL    HW194031   2.149  10.570   7.881
97378SOL    HW294032   2.239  10.521   7.769
97379SOL     OW94033   6.545   4.647  13.034
97379SOL    HW194034   6.588   4.671  13.116
97379SOL    HW294035   6.507   4.728  13.001
97380SOL     OW94036   9.090   0.515  13.229
97380SOL    HW194037   9.094   0.505  13.324
97380SOL    HW294038   8.997   0.523  13.209
97381SOL     OW94039   1.000   0.054   3.009
97381SOL    HW194040   1.021   0.059   3.102
97381SOL    HW294041   1.030   0.138   2.973
97382SOL     OW94042  11.885   3.086  14.491
97382SOL    HW194043  11.869   3.129  14.407
97382SOL    HW294044  11.817   3.019  14.497
97383SOL     OW94045   6.671   8.332  14.694
97383SOL    HW194046   6.667   8.323  14.789
97383SOL    HW294047   6.633   8.419  14.677
97384SOL     OW94048  14.478  11.962  12.424
97384SOL    HW194049  14.507  11.984  12.513
97384SOL    HW294050  14.547  11.903  12.391
97385SOL     OW94051   8.616   9.455   9.808
97385SOL    HW194052   8.533   9.430   9.769
97385SOL    HW294053   8.593   9.521   9.874
97386SOL     OW94054  10.905   9.331  10.193
97386SOL    HW194055  10.950   9.287  10.265
97386SOL    HW294056  10.846   9.265  10.157
97387SOL     OW94057  11.470  14.848   4.090
97387SOL    HW194058  11.461  14.814   4.179
97387SOL    HW294059  11.385   0.004   4.069
97388SOL     OW94060  13.690  14.191   4.843
97388SOL    HW194061  13.724  14.119   4.789
97388SOL    HW294062  13.641  14.148   4.913
97389SOL     OW94063   3.943  12.622  12.841
97389SOL    HW194064   3.987  12.560  12.783
97389SOL    HW294065   4.002  12.697  12.845
97390SOL     OW94066   6.081   0.709   5.034
97390SOL    HW194067   6.044   0.674   5.115
97390SOL    HW294068   6.079   0.804   5.047
97391SOL     OW94069   5.754   0.548  10.165
97391SOL    HW194070   5.763   0.489  10.240
97391SOL    HW294071   5.843   0.561  10.134
97392SOL     OW94072   9.570  11.318  10.469
97392SOL    HW194073   9.655  11.305  10.511
97392SOL    HW294074   9.570  11.258  10.394
97393SOL     OW94075  14.684  10.140   9.389
97393SOL    HW194076  14.759  10.081   9.401
97393SOL    HW294077  14.688  10.166   9.297
97394SOL     OW94078   4.336   0.161  11.144
97394SOL    HW194079   4.313   0.186  11.054
97394SOL    HW294080   4.420   0.203  11.160
97395SOL     OW94081   7.476   5.049  11.313
97395SOL    HW194082   7.459   4.992  11.238
97395SOL    HW294083   7.565   5.026  11.341
97396SOL     OW94084   6.845  10.889  13.681
97396SOL    HW194085   6.919  10.856  13.630
97396SOL    HW294086   6.839  10.982  13.656
97397SOL     OW94087   3.301   9.119   9.581
97397SOL    HW194088   3.296   9.108   9.676
97397SOL    HW294089   3.238   9.056   9.547
97398SOL     OW94090   4.223  13.462   3.903
97398SOL    HW194091   4.196  13.518   3.975
97398SOL    HW294092   4.145  13.410   3.883
97399SOL     OW94093   6.417   8.911   5.126
97399SOL    HW194094   6.372   8.949   5.051
97399SOL    HW294095   6.347   8.881   5.185
97400SOL     OW94096   3.119   5.381  10.217
97400SOL    HW194097   3.192   5.327  10.186
97400SOL    HW294098   3.057   5.317  10.254
97401SOL     OW94099   4.217  13.685   7.737
97401SOL    HW194100   4.223  13.679   7.832
97401SOL    HW294101   4.130  13.653   7.716
97402SOL     OW94102   6.708   0.961   1.230
97402SOL    HW194103   6.752   1.004   1.156
97402SOL    HW294104   6.668   0.883   1.192
97403SOL     OW94105  12.775   0.797   4.229
97403SOL    HW194106  12.763   0.885   4.266
97403SOL    HW294107  12.716   0.795   4.153
97404SOL     OW94108   5.579   4.235  11.432
97404SOL    HW194109   5.493   4.197  11.412
97404SOL    HW294110   5.566   4.329  11.422
97405SOL     OW94111   3.179   4.435  10.970
97405SOL    HW194112   3.098   4.449  11.019
97405SOL    HW294113   3.240   4.398  11.034
97406SOL     OW94114   4.395   5.849   3.719
97406SOL    HW194115   4.376   5.823   3.810
97406SOL    HW294116   4.491   5.849   3.714
97407SOL     OW94117   9.181   4.111   8.951
97407SOL    HW194118   9.143   4.181   9.004
97407SOL    HW294119   9.220   4.051   9.015
97408SOL     OW94120   3.397   2.328   1.691
97408SOL    HW194121   3.464   2.331   1.759
97408SOL    HW294122   3.405   2.241   1.653
97409SOL     OW94123  14.186   2.847  13.081
97409SOL    HW194124  14.132   2.882  13.010
97409SOL    HW294125  14.156   2.757  13.093
97410SOL     OW94126  13.288  10.233   8.594
97410SOL    HW194127  13.277  10.182   8.514
97410SOL    HW294128  13.222  10.199   8.654
97411SOL     OW94129   5.435  10.179   2.294
97411SOL    HW194130   5.400  10.138   2.215
97411SOL    HW294131   5.383  10.142   2.365
97412SOL     OW94132   6.784   4.145   8.859
97412SOL    HW194133   6.794   4.135   8.764
97412SOL    HW294134   6.845   4.080   8.896
97413SOL     OW94135   9.487  11.835   6.135
97413SOL    HW194136   9.395  11.832   6.163
97413SOL    HW294137   9.492  11.770   6.065
97414SOL     OW94138   7.650   8.471   3.855
97414SOL    HW194139   7.564   8.501   3.885
97414SOL    HW294140   7.712   8.512   3.916
97415SOL     OW94141  13.684  11.263   4.864
97415SOL    HW194142  13.651  11.352   4.862
97415SOL    HW294143  13.772  11.269   4.827
97416SOL     OW94144   1.183   6.419   1.400
97416SOL    HW194145   1.148   6.508   1.403
97416SOL    HW294146   1.261   6.425   1.346
97417SOL     OW94147   8.650   8.594  14.766
97417SOL    HW194148   8.690   8.596  14.679
97417SOL    HW294149   8.556   8.587  14.749
97418SOL     OW94150   8.560   1.065   8.263
97418SOL    HW194151   8.481   1.012   8.253
97418SOL    HW294152   8.612   1.047   8.185
97419SOL     OW94153   5.159  10.033  10.564
97419SOL    HW194154   5.068  10.015  10.585
97419SOL    HW294155   5.202  10.043  10.649
97420SOL     OW94156   1.643  14.440   9.223
97420SOL    HW194157   1.550  14.450   9.202
97420SOL    HW294158   1.644  14.425   9.318
97421SOL     OW94159  12.553  10.231   7.835
97421SOL    HW194160  12.471  10.264   7.871
97421SOL    HW294161  12.617  10.300   7.854
97422SOL     OW94162   1.205  13.867   4.977
97422SOL    HW194163   1.203  13.815   4.897
97422SOL    HW294164   1.126  13.841   5.025
97423SOL     OW94165   7.918   4.031   8.705
97423SOL    HW194166   7.862   3.954   8.699
97423SOL    HW294167   7.993   4.010   8.651
97424SOL     OW94168   0.506   7.592   1.664
97424SOL    HW194169   0.592   7.603   1.704
97424SOL    HW294170   0.471   7.512   1.703
97425SOL     OW94171   3.691   0.003   6.373
97425SOL    HW194172   3.613  14.830   6.365
97425SOL    HW294173   3.699   0.018   6.467
97426SOL     OW94174  10.318   4.168  12.714
97426SOL    HW194175  10.382   4.153  12.645
97426SOL    HW294176  10.239   4.123  12.683
97427SOL     OW94177  12.496  11.660   2.795
97427SOL    HW194178  12.540  11.629   2.716
97427SOL    HW294179  12.413  11.696   2.763
97428SOL     OW94180  10.158  13.123  10.103
97428SOL    HW194181  10.251  13.130  10.078
97428SOL    HW294182  10.151  13.037  10.143
97429SOL     OW94183   2.146  14.442   2.731
97429SOL    HW194184   2.156  14.364   2.785
97429SOL    HW294185   2.218  14.499   2.757
97430SOL     OW94186   1.294  12.865   0.342
97430SOL    HW194187   1.383  12.898   0.358
97430SOL    HW294188   1.248  12.938   0.301
97431SOL     OW94189   6.417   5.477   9.631
97431SOL    HW194190   6.354   5.412   9.660
97431SOL    HW294191   6.381   5.561   9.660
97432SOL     OW94192   1.932   8.688  13.032
97432SOL    HW194193   1.939   8.760  12.969
97432SOL    HW294194   1.879   8.623  12.986
97433SOL     OW94195  13.995   6.457   5.581
97433SOL    HW194196  14.018   6.466   5.673
97433SOL    HW294197  14.078   6.465   5.534
97434SOL     OW94198   1.386   4.727   2.701
97434SOL    HW194199   1.356   4.750   2.613
97434SOL    HW294200   1.344   4.791   2.758
97435SOL     OW94201   5.711   5.294   4.770
97435SOL    HW194202   5.644   5.317   4.835
97435SOL    HW294203   5.766   5.372   4.763
97436SOL     OW94204   8.533   9.602  11.717
97436SOL    HW194205   8.567   9.638  11.799
97436SOL    HW294206   8.505   9.513  11.739
97437SOL     OW94207  11.403   4.788   0.643
97437SOL    HW194208  11.490   4.823   0.626
97437SOL    HW294209  11.395   4.785   0.739
97438SOL     OW94210  10.173  10.841   9.922
97438SOL    HW194211  10.201  10.928   9.951
97438SOL    HW294212  10.125  10.858   9.841
97439SOL     OW94213   7.937   0.033  11.308
97439SOL    HW194214   8.001  14.855  11.269
97439SOL    HW294215   7.917   0.095  11.239
97440SOL     OW94216   4.920  14.325   1.522
97440SOL    HW194217   4.855  14.340   1.454
97440SOL    HW294218   4.878  14.356   1.602
97441SOL     OW94219   2.778   2.700   6.552
97441SOL    HW194220   2.761   2.735   6.639
97441SOL    HW294221   2.769   2.606   6.561
97442SOL     OW94222  12.129   8.884   7.208
97442SOL    HW194223  12.208   8.833   7.189
97442SOL    HW294224  12.057   8.821   7.200
97443SOL     OW94225  12.498  14.342   7.691
97443SOL    HW194226  12.537  14.391   7.618
97443SOL    HW294227  12.417  14.306   7.655
97444SOL     OW94228   9.555   7.446   8.102
97444SOL    HW194229   9.513   7.377   8.050
97444SOL    HW294230   9.553   7.414   8.192
97445SOL     OW94231   2.581   5.984  14.413
97445SOL    HW194232   2.505   5.967  14.358
97445SOL    HW294233   2.559   5.946  14.498
97446SOL     OW94234   7.152   2.358   8.642
97446SOL    HW194235   7.062   2.387   8.624
97446SOL    HW294236   7.175   2.302   8.568
97447SOL     OW94237  11.860   1.925   0.488
97447SOL    HW194238  11.937   1.869   0.495
97447SOL    HW294239  11.787   1.865   0.478
97448SOL     OW94240   0.800   4.468  14.454
97448SOL    HW194241   0.884   4.508  14.473
97448SOL    HW294242   0.753   4.468  14.538
97449SOL     OW94243   4.597   5.141   5.801
97449SOL    HW194244   4.600   5.086   5.723
97449SOL    HW294245   4.534   5.098   5.858
97450SOL     OW94246   2.316   6.147   9.603
97450SOL    HW194247   2.381   6.083   9.630
97450SOL    HW294248   2.267   6.104   9.534
97451SOL     OW94249  14.069  10.209   3.112
97451SOL    HW194250  14.085  10.114   3.120
97451SOL    HW294251  13.981  10.215   3.077
97452SOL     OW94252   8.113  13.883   2.124
97452SOL    HW194253   8.046  13.820   2.099
97452SOL    HW294254   8.167  13.836   2.188
97453SOL     OW94255  14.597   4.387  12.034
97453SOL    HW194256  14.523   4.422  11.984
97453SOL    HW294257  14.556   4.328  12.098
97454SOL     OW94258   1.647   3.026   2.557
97454SOL    HW194259   1.737   2.998   2.574
97454SOL    HW294260   1.605   3.029   2.643
97455SOL     OW94261   5.263  10.894   7.308
97455SOL    HW194262   5.348  10.903   7.350
97455SOL    HW294263   5.219  10.977   7.324
97456SOL     OW94264   9.918  11.221  13.695
97456SOL    HW194265   9.913  11.238  13.601
97456SOL    HW294266   9.990  11.159  13.704
97457SOL     OW94267   3.969   1.056   0.894
97457SOL    HW194268   3.972   1.152   0.898
97457SOL    HW294269   3.900   1.036   0.831
97458SOL     OW94270  10.331   9.360   6.182
97458SOL    HW194271  10.380   9.341   6.262
97458SOL    HW294272  10.342   9.281   6.128
97459SOL     OW94273   1.130   6.207   0.240
97459SOL    HW194274   1.218   6.208   0.276
97459SOL    HW294275   1.081   6.269   0.294
97460SOL     OW94276  14.534   9.079   1.280
97460SOL    HW194277  14.572   9.005   1.326
97460SOL    HW294278  14.600   9.148   1.287
97461SOL     OW94279  13.824  12.830   1.196
97461SOL    HW194280  13.797  12.920   1.213
97461SOL    HW294281  13.899  12.816   1.252
97462SOL     OW94282   9.240  14.503   2.694
97462SOL    HW194283   9.172  14.478   2.757
97462SOL    HW294284   9.288  14.574   2.737
97463SOL     OW94285  12.928   4.390  12.531
97463SOL    HW194286  12.833   4.399  12.525
97463SOL    HW294287  12.954   4.353  12.447
97464SOL     OW94288   6.995  11.458  14.817
97464SOL    HW194289   7.058  11.508  14.869
97464SOL    HW294290   6.919  11.450  14.874
97465SOL     OW94291   5.690  10.820   7.061
97465SOL    HW194292   5.737  10.741   7.087
97465SOL    HW294293   5.745  10.861   6.994
97466SOL     OW94294  10.589   0.278   4.313
97466SOL    HW194295  10.617   0.188   4.331
97466SOL    HW294296  10.494   0.274   4.311
97467SOL     OW94297   6.817  10.095   3.199
97467SOL    HW194298   6.815  10.184   3.163
97467SOL    HW294299   6.897  10.092   3.251
97468SOL     OW94300   5.560   0.853  14.377
97468SOL    HW194301   5.518   0.768  14.392
97468SOL    HW294302   5.608   0.841  14.295
97469SOL     OW94303   7.032  12.719   3.460
97469SOL    HW194304   7.095  12.770   3.511
97469SOL    HW294305   7.076  12.637   3.441
97470SOL     OW94306   1.236   0.341   3.982
97470SOL    HW194307   1.251   0.426   4.023
97470SOL    HW294308   1.229   0.360   3.888
97471SOL     OW94309  13.437   5.473  13.240
97471SOL    HW194310  13.471   5.469  13.330
97471SOL    HW294311  13.483   5.547  13.200
97472SOL     OW94312  13.304   5.501  10.840
97472SOL    HW194313  13.210   5.510  10.823
97472SOL    HW294314  13.345   5.521  10.756
97473SOL     OW94315   0.174   1.548   7.707
97473SOL    HW194316   0.150   1.458   7.687
97473SOL    HW294317   0.221   1.578   7.630
97474SOL     OW94318   1.872  13.801   1.744
97474SOL    HW194319   1.897  13.812   1.836
97474SOL    HW294320   1.778  13.815   1.743
97475SOL     OW94321   9.677   0.398   0.070
97475SOL    HW194322   9.733   0.370   0.142
97475SOL    HW294323   9.618   0.324   0.056
97476SOL     OW94324   4.304  14.629   3.389
97476SOL    HW194325   4.359  14.696   3.348
97476SOL    HW294326   4.255  14.591   3.316
97477SOL     OW94327  13.489   4.708  14.480
97477SOL    HW194328  13.472   4.705  14.574
97477SOL    HW294329  13.562   4.769  14.471
97478SOL     OW94330  11.781   5.737   6.456
97478SOL    HW194331  11.804   5.787   6.378
97478SOL    HW294332  11.704   5.686   6.430
97479SOL     OW94333   2.064   7.435   1.971
97479SOL    HW194334   2.152   7.468   1.990
97479SOL    HW294335   2.030   7.405   2.056
97480SOL     OW94336  13.292   8.469   9.528
97480SOL    HW194337  13.227   8.539   9.521
97480SOL    HW294338  13.264   8.417   9.603
97481SOL     OW94339  11.949  14.705   4.307
97481SOL    HW194340  11.938  14.734   4.397
97481SOL    HW294341  12.036  14.665   4.305
97482SOL     OW94342  13.938  12.123   2.788
97482SOL    HW194343  13.926  12.201   2.842
97482SOL    HW294344  14.008  12.074   2.833
97483SOL     OW94345  14.723  13.468   2.218
97483SOL    HW194346  14.703  13.483   2.310
97483SOL    HW294347  14.749  13.376   2.214
97484SOL     OW94348   4.834   5.857  14.782
97484SOL    HW194349   4.757   5.815  14.743
97484SOL    HW294350   4.897   5.864  14.711
97485SOL     OW94351   6.221  10.357   6.167
97485SOL    HW194352   6.226  10.418   6.240
97485SOL    HW294353   6.143  10.304   6.185
97486SOL     OW94354  14.083  13.358   2.445
97486SOL    HW194355  14.038  13.442   2.457
97486SOL    HW294356  14.115  13.361   2.355
97487SOL     OW94357  11.141   2.019   2.462
97487SOL    HW194358  11.097   2.103   2.447
97487SOL    HW294359  11.071   1.960   2.492
97488SOL     OW94360   0.498   4.160   9.523
97488SOL    HW194361   0.479   4.199   9.438
97488SOL    HW294362   0.594   4.156   9.527
97489SOL     OW94363   6.047  11.866  12.902
97489SOL    HW194364   6.006  11.832  12.981
97489SOL    HW294365   5.992  11.835  12.830
97490SOL     OW94366  10.124   7.324   7.090
97490SOL    HW194367  10.131   7.284   7.177
97490SOL    HW294368  10.214   7.329   7.059
97491SOL     OW94369  14.238   5.742   5.729
97491SOL    HW194370  14.325   5.700   5.728
97491SOL    HW294371  14.256   5.835   5.720
97492SOL     OW94372   7.545   2.799  10.708
97492SOL    HW194373   7.495   2.859  10.763
97492SOL    HW294374   7.617   2.769  10.763
97493SOL     OW94375  12.162   7.180  11.577
97493SOL    HW194376  12.229   7.248  11.582
97493SOL    HW294377  12.089   7.222  11.530
97494SOL     OW94378  11.321   0.179  11.715
97494SOL    HW194379  11.263   0.160  11.789
97494SOL    HW294380  11.397   0.222  11.754
97495SOL     OW94381   8.441   6.887   6.852
97495SOL    HW194382   8.474   6.942   6.781
97495SOL    HW294383   8.516   6.833   6.878
97496SOL     OW94384  12.340   0.359   1.679
97496SOL    HW194385  12.301   0.412   1.750
97496SOL    HW294386  12.433   0.356   1.700
97497SOL     OW94387   3.439   9.381   2.119
97497SOL    HW194388   3.492   9.303   2.134
97497SOL    HW294389   3.473   9.419   2.039
97498SOL     OW94390   1.570  10.297   9.048
97498SOL    HW194391   1.483  10.304   9.088
97498SOL    HW294392   1.611  10.222   9.091
97499SOL     OW94393   9.277   9.924  10.738
97499SOL    HW194394   9.203   9.985  10.728
97499SOL    HW294395   9.266   9.886  10.825
97500SOL     OW94396   3.334   4.958   1.877
97500SOL    HW194397   3.411   4.909   1.848
97500SOL    HW294398   3.356   4.986   1.966
97501SOL     OW94399   6.499   9.711   4.609
97501SOL    HW194400   6.498   9.652   4.534
97501SOL    HW294401   6.577   9.765   4.597
97502SOL     OW94402  11.998   3.750   5.331
97502SOL    HW194403  11.996   3.742   5.236
97502SOL    HW294404  12.063   3.685   5.359
97503SOL     OW94405  11.191   3.531  14.025
97503SOL    HW194406  11.210   3.447  14.068
97503SOL    HW294407  11.272   3.581  14.035
97504SOL     OW94408   1.616   1.932   2.043
97504SOL    HW194409   1.701   1.889   2.034
97504SOL    HW294410   1.628   2.019   2.006
97505SOL     OW94411   4.660  14.847   6.844
97505SOL    HW194412   4.651  14.765   6.797
97505SOL    HW294413   4.753  14.870   6.837
97506SOL     OW94414  14.303  10.313   5.916
97506SOL    HW194415  14.276  10.252   5.847
97506SOL    HW294416  14.398  10.303   5.921
97507SOL     OW94417   8.775   4.072   8.553
97507SOL    HW194418   8.858   4.098   8.594
97507SOL    HW294419   8.727   4.154   8.541
97508SOL     OW94420   2.820  14.093   1.493
97508SOL    HW194421   2.882  14.154   1.454
97508SOL    HW294422   2.800  14.031   1.423
97509SOL     OW94423   4.227   6.853   2.158
97509SOL    HW194424   4.180   6.929   2.193
97509SOL    HW294425   4.221   6.788   2.228
97510SOL     OW94426   1.839  11.975  14.457
97510SOL    HW194427   1.753  11.933  14.452
97510SOL    HW294428   1.859  11.979  14.550
97511SOL     OW94429   3.786  12.679   5.686
97511SOL    HW194430   3.713  12.616   5.691
97511SOL    HW294431   3.841  12.656   5.761
97512SOL     OW94432  12.050   0.790  12.211
97512SOL    HW194433  12.024   0.776  12.120
97512SOL    HW294434  12.123   0.730  12.225
97513SOL     OW94435  12.753   9.036   8.618
97513SOL    HW194436  12.826   9.096   8.601
97513SOL    HW294437  12.794   8.949   8.621
97514SOL     OW94438  12.015   0.927   5.408
97514SOL    HW194439  11.945   0.985   5.377
97514SOL    HW294440  12.070   0.913   5.331
97515SOL     OW94441   8.592   7.412  13.835
97515SOL    HW194442   8.630   7.444  13.754
97515SOL    HW294443   8.660   7.355  13.872
97516SOL     OW94444   5.140   5.042   6.837
97516SOL    HW194445   5.200   5.046   6.762
97516SOL    HW294446   5.180   5.100   6.902
97517SOL     OW94447   9.921  13.176  14.156
97517SOL    HW194448   9.923  13.100  14.098
97517SOL    HW294449   9.884  13.142  14.238
97518SOL     OW94450   3.830   7.855   9.251
97518SOL    HW194451   3.881   7.936   9.251
97518SOL    HW294452   3.891   7.787   9.281
97519SOL     OW94453  10.915  13.791   1.106
97519SOL    HW194454  11.001  13.759   1.132
97519SOL    HW294455  10.926  13.886   1.096
97520SOL     OW94456  13.279   5.447  13.548
97520SOL    HW194457  13.261   5.428  13.640
97520SOL    HW294458  13.357   5.394  13.527
97521SOL     OW94459   7.437   6.532   9.520
97521SOL    HW194460   7.361   6.493   9.563
97521SOL    HW294461   7.513   6.491   9.563
97522SOL     OW94462   3.909   3.071   1.451
97522SOL    HW194463   3.896   3.097   1.542
97522SOL    HW294464   3.844   3.002   1.436
97523SOL     OW94465   1.308  13.817  10.879
97523SOL    HW194466   1.219  13.840  10.907
97523SOL    HW294467   1.321  13.867  10.799
97524SOL     OW94468   2.234  10.656   5.321
97524SOL    HW194469   2.215  10.620   5.408
97524SOL    HW294470   2.273  10.584   5.273
97525SOL     OW94471   7.645   5.652   3.131
97525SOL    HW194472   7.591   5.728   3.107
97525SOL    HW294473   7.733   5.675   3.103
97526SOL     OW94474  11.738   8.233   0.518
97526SOL    HW194475  11.766   8.280   0.439
97526SOL    HW294476  11.790   8.271   0.588
97527SOL     OW94477  10.183   5.154   2.173
97527SOL    HW194478  10.102   5.155   2.121
97527SOL    HW294479  10.168   5.088   2.240
97528SOL     OW94480   4.202   9.109   7.181
97528SOL    HW194481   4.218   9.160   7.102
97528SOL    HW294482   4.107   9.099   7.185
97529SOL     OW94483   1.013  13.537   2.034
97529SOL    HW194484   1.064  13.618   2.036
97529SOL    HW294485   1.025  13.504   1.945
97530SOL     OW94486   1.078   3.762  12.924
97530SOL    HW194487   1.005   3.817  12.897
97530SOL    HW294488   1.038   3.690  12.973
97531SOL     OW94489  11.996  14.751   7.171
97531SOL    HW194490  11.978  14.678   7.229
97531SOL    HW294491  11.933  14.819   7.198
97532SOL     OW94492   6.272  10.470   7.089
97532SOL    HW194493   6.294  10.549   7.139
97532SOL    HW294494   6.317  10.400   7.135
97533SOL     OW94495   8.364   9.188   9.304
97533SOL    HW194496   8.384   9.273   9.263
97533SOL    HW294497   8.406   9.193   9.390
97534SOL     OW94498   8.867   5.519   0.062
97534SOL    HW194499   8.801   5.502   0.129
97534SOL    HW294500   8.910   5.435   0.048
97535SOL     OW94501   0.013  14.260   7.035
97535SOL    HW194502  14.815  14.311   7.051
97535SOL    HW294503   0.002  14.181   7.088
97536SOL     OW94504   1.083  10.178   9.314
97536SOL    HW194505   1.038  10.225   9.383
97536SOL    HW294506   1.024  10.105   9.292
97537SOL     OW94507   4.686   9.702   9.841
97537SOL    HW194508   4.773   9.664   9.849
97537SOL    HW294509   4.686   9.775   9.903
97538SOL     OW94510   2.930   2.294  12.088
97538SOL    HW194511   2.911   2.376  12.133
97538SOL    HW294512   3.026   2.291  12.083
97539SOL     OW94513   6.352   5.203  13.777
97539SOL    HW194514   6.300   5.262  13.831
97539SOL    HW294515   6.327   5.224  13.687
97540SOL     OW94516   5.621   3.007   1.695
97540SOL    HW194517   5.610   2.923   1.650
97540SOL    HW294518   5.584   2.992   1.782
97541SOL     OW94519  13.491   4.633   4.605
97541SOL    HW194520  13.466   4.558   4.659
97541SOL    HW294521  13.553   4.597   4.541
97542SOL     OW94522  13.151   2.520  13.328
97542SOL    HW194523  13.211   2.457  13.368
97542SOL    HW294524  13.203   2.561  13.259
97543SOL     OW94525   4.155   4.928   7.197
97543SOL    HW194526   4.084   4.868   7.218
97543SOL    HW294527   4.121   5.015   7.219
97544SOL     OW94528  11.879   0.662   1.912
97544SOL    HW194529  11.829   0.662   1.994
97544SOL    HW294530  11.813   0.672   1.844
97545SOL     OW94531  10.138  11.962   7.649
97545SOL    HW194532  10.174  11.900   7.712
97545SOL    HW294533  10.208  11.973   7.584
97546SOL     OW94534   8.928   5.122   4.404
97546SOL    HW194535   8.997   5.055   4.410
97546SOL    HW294536   8.926   5.161   4.492
97547SOL     OW94537  11.520  13.942   0.397
97547SOL    HW194538  11.541  13.910   0.485
97547SOL    HW294539  11.439  13.897   0.373
97548SOL     OW94540  13.265   8.389   7.946
97548SOL    HW194541  13.258   8.482   7.966
97548SOL    HW294542  13.295   8.386   7.855
97549SOL     OW94543   9.372   5.459   9.221
97549SOL    HW194544   9.297   5.413   9.260
97549SOL    HW294545   9.343   5.478   9.131
97550SOL     OW94546   6.384  11.568   6.773
97550SOL    HW194547   6.455  11.561   6.709
97550SOL    HW294548   6.411  11.513   6.846
97551SOL     OW94549  12.078  12.472   7.552
97551SOL    HW194550  12.133  12.414   7.605
97551SOL    HW294551  12.114  12.466   7.464
97552SOL     OW94552  13.652   4.602   0.970
97552SOL    HW194553  13.615   4.542   0.905
97552SOL    HW294554  13.627   4.689   0.938
97553SOL     OW94555   4.195  13.709   6.233
97553SOL    HW194556   4.255  13.767   6.187
97553SOL    HW294557   4.202  13.625   6.187
97554SOL     OW94558   7.086   8.621   0.404
97554SOL    HW194559   7.087   8.717   0.412
97554SOL    HW294560   7.025   8.604   0.333
97555SOL     OW94561  11.449   4.383   0.950
97555SOL    HW194562  11.444   4.400   1.044
97555SOL    HW294563  11.358   4.391   0.920
97556SOL     OW94564   5.725   2.262  13.301
97556SOL    HW194565   5.685   2.326  13.241
97556SOL    HW294566   5.732   2.182  13.249
97557SOL     OW94567  10.265  11.903   3.337
97557SOL    HW194568  10.348  11.870   3.303
97557SOL    HW294569  10.199  11.853   3.290
97558SOL     OW94570   8.902   4.642   0.673
97558SOL    HW194571   8.974   4.579   0.678
97558SOL    HW294572   8.936   4.714   0.621
97559SOL     OW94573   4.748   9.643   9.590
97559SOL    HW194574   4.696   9.670   9.665
97559SOL    HW294575   4.708   9.687   9.515
97560SOL     OW94576   6.218   3.078   9.570
97560SOL    HW194577   6.224   3.166   9.534
97560SOL    HW294578   6.289   3.029   9.529
97561SOL     OW94579   8.007   6.417   5.755
97561SOL    HW194580   7.987   6.456   5.840
97561SOL    HW294581   8.103   6.416   5.752
97562SOL     OW94582  13.124   0.254  14.724
97562SOL    HW194583  13.119   0.159  14.736
97562SOL    HW294584  13.139   0.289  14.812
97563SOL     OW94585  13.586  11.122  13.545
97563SOL    HW194586  13.605  11.184  13.474
97563SOL    HW294587  13.611  11.169  13.625
97564SOL     OW94588   7.936   8.650   8.429
97564SOL    HW194589   7.860   8.703   8.452
97564SOL    HW294590   7.914   8.562   8.462
97565SOL     OW94591   1.491  12.643  14.326
97565SOL    HW194592   1.531  12.719  14.283
97565SOL    HW294593   1.562  12.604  14.376
97566SOL     OW94594  10.525  11.877   5.988
97566SOL    HW194595  10.441  11.842   5.958
97566SOL    HW294596  10.556  11.814   6.052
97567SOL     OW94597   7.119   4.408   7.649
97567SOL    HW194598   7.057   4.337   7.635
97567SOL    HW294599   7.202   4.364   7.666
97568SOL     OW94600   8.428   5.604  11.020
97568SOL    HW194601   8.470   5.594  11.106
97568SOL    HW294602   8.501   5.605  10.958
97569SOL     OW94603   0.390   4.672   0.440
97569SOL    HW194604   0.422   4.660   0.529
97569SOL    HW294605   0.450   4.621   0.386
97570SOL     OW94606  14.651  13.961   9.500
97570SOL    HW194607  14.723  13.898   9.495
97570SOL    HW294608  14.579  13.913   9.540
97571SOL     OW94609   1.299  14.694   2.251
97571SOL    HW194610   1.361  14.766   2.251
97571SOL    HW294611   1.301  14.659   2.340
97572SOL     OW94612   0.704  10.186   0.612
97572SOL    HW194613   0.779  10.215   0.561
97572SOL    HW294614   0.637  10.164   0.547
97573SOL     OW94615  11.651   7.304   2.938
97573SOL    HW194616  11.594   7.378   2.916
97573SOL    HW294617  11.653   7.303   3.033
97574SOL     OW94618  12.021  14.139   8.134
97574SOL    HW194619  12.079  14.169   8.063
97574SOL    HW294620  11.935  14.129   8.092
97575SOL     OW94621   5.561  12.683   7.123
97575SOL    HW194622   5.483  12.732   7.150
97575SOL    HW294623   5.533  12.633   7.046
97576SOL     OW94624   6.141  11.083  13.688
97576SOL    HW194625   6.052  11.073  13.723
97576SOL    HW294626   6.164  10.996  13.656
97577SOL     OW94627   5.373   7.668  10.762
97577SOL    HW194628   5.328   7.668  10.678
97577SOL    HW294629   5.441   7.602  10.753
97578SOL     OW94630   5.555   3.442  14.810
97578SOL    HW194631   5.483   3.435  14.747
97578SOL    HW294632   5.610   3.513  14.776
97579SOL     OW94633   4.229   1.419   5.880
97579SOL    HW194634   4.272   1.372   5.952
97579SOL    HW294635   4.179   1.352   5.834
97580SOL     OW94636   8.410   2.293   8.776
97580SOL    HW194637   8.430   2.380   8.810
97580SOL    HW294638   8.333   2.306   8.720
97581SOL     OW94639   0.624  14.507  13.324
97581SOL    HW194640   0.650  14.589  13.283
97581SOL    HW294641   0.678  14.500  13.402
97582SOL     OW94642  11.299   1.763   2.990
97582SOL    HW194643  11.370   1.786   3.051
97582SOL    HW294644  11.343   1.713   2.921
97583SOL     OW94645   9.659   0.335   8.330
97583SOL    HW194646   9.670   0.320   8.424
97583SOL    HW294647   9.704   0.417   8.312
97584SOL     OW94648   3.145   1.594   2.971
97584SOL    HW194649   3.175   1.515   2.927
97584SOL    HW294650   3.053   1.603   2.947
97585SOL     OW94651  11.614  10.465   9.949
97585SOL    HW194652  11.622  10.549   9.994
97585SOL    HW294653  11.602  10.488   9.857
97586SOL     OW94654   8.761   1.445  12.653
97586SOL    HW194655   8.854   1.420  12.646
97586SOL    HW294656   8.728   1.442  12.563
97587SOL     OW94657   7.547  12.427   6.091
97587SOL    HW194658   7.567  12.520   6.101
97587SOL    HW294659   7.624  12.383   6.126
97588SOL     OW94660   4.921   0.845   9.939
97588SOL    HW194661   5.016   0.839   9.945
97588SOL    HW294662   4.889   0.800  10.017
97589SOL     OW94663   3.140  14.419  13.104
97589SOL    HW194664   3.052  14.383  13.098
97589SOL    HW294665   3.170  14.424  13.013
97590SOL     OW94666  10.691  11.735  14.805
97590SOL    HW194667  10.651  11.660  14.850
97590SOL    HW294668  10.671  11.720  14.712
97591SOL     OW94669   9.941   9.531   6.681
97591SOL    HW194670   9.863   9.475   6.678
97591SOL    HW294671   9.919   9.606   6.624
97592SOL     OW94672  13.130  11.209  13.383
97592SOL    HW194673  13.143  11.290  13.334
97592SOL    HW294674  13.039  11.213  13.412
97593SOL     OW94675   2.416  11.564  12.796
97593SOL    HW194676   2.500  11.519  12.796
97593SOL    HW294677   2.374  11.537  12.715
97594SOL     OW94678  11.759   0.477  11.371
97594SOL    HW194679  11.759   0.527  11.452
97594SOL    HW294680  11.776   0.387  11.398
97595SOL     OW94681   6.602   1.425   1.769
97595SOL    HW194682   6.639   1.482   1.703
97595SOL    HW294683   6.582   1.483   1.842
97596SOL     OW94684   1.560   5.046   6.552
97596SOL    HW194685   1.556   4.959   6.511
97596SOL    HW294686   1.640   5.085   6.517
97597SOL     OW94687  14.134   6.262   0.669
97597SOL    HW194688  14.140   6.167   0.667
97597SOL    HW294689  14.057   6.283   0.617
97598SOL     OW94690   1.975   3.253  11.141
97598SOL    HW194691   1.926   3.284  11.217
97598SOL    HW294692   2.022   3.330  11.109
97599SOL     OW94693   9.633   5.919   1.640
97599SOL    HW194694   9.608   5.882   1.725
97599SOL    HW294695   9.562   5.981   1.619
97600SOL     OW94696   5.542   5.983  14.351
97600SOL    HW194697   5.469   5.978  14.289
97600SOL    HW294698   5.586   6.066  14.330
97601SOL     OW94699   1.762   9.891   9.482
97601SOL    HW194700   1.675   9.914   9.448
97601SOL    HW294701   1.795   9.972   9.521
97602SOL     OW94702   9.736   0.549  14.048
97602SOL    HW194703   9.649   0.574  14.079
97602SOL    HW294704   9.721   0.481  13.982
97603SOL     OW94705   6.733  11.183   4.276
97603SOL    HW194706   6.785  11.103   4.266
97603SOL    HW294707   6.789  11.252   4.241
97604SOL     OW94708   1.600   2.330   5.998
97604SOL    HW194709   1.598   2.249   6.049
97604SOL    HW294710   1.528   2.320   5.935
97605SOL     OW94711  14.506   0.470   2.595
97605SOL    HW194712  14.520   0.443   2.504
97605SOL    HW294713  14.418   0.439   2.616
97606SOL     OW94714   5.620   3.329   7.688
97606SOL    HW194715   5.615   3.402   7.750
97606SOL    HW294716   5.684   3.358   7.622
97607SOL     OW94717  13.923  10.941   9.415
97607SOL    HW194718  13.910  10.981   9.330
97607SOL    HW294719  13.944  11.014   9.474
97608SOL     OW94720   3.401   3.906   1.254
97608SOL    HW194721   3.321   3.957   1.265
97608SOL    HW294722   3.452   3.954   1.188
97609SOL     OW94723  14.428   4.375  14.386
97609SOL    HW194724  14.382   4.453  14.354
97609SOL    HW294725  14.517   4.383  14.351
97610SOL     OW94726  12.413   4.645   4.509
97610SOL    HW194727  12.338   4.603   4.468
97610SOL    HW294728  12.489   4.596   4.477
97611SOL     OW94729   3.856   8.217   5.729
97611SOL    HW194730   3.790   8.216   5.797
97611SOL    HW294731   3.919   8.284   5.758
97612SOL     OW94732  13.349  12.014  12.311
97612SOL    HW194733  13.350  12.033  12.217
97612SOL    HW294734  13.419  12.068  12.347
97613SOL     OW94735   7.170   2.372  13.716
97613SOL    HW194736   7.174   2.289  13.670
97613SOL    HW294737   7.163   2.348  13.809
97614SOL     OW94738   1.247   2.201  12.236
97614SOL    HW194739   1.258   2.107  12.225
97614SOL    HW294740   1.153   2.212  12.251
97615SOL     OW94741   0.614   5.702   0.733
97615SOL    HW194742   0.537   5.712   0.790
97615SOL    HW294743   0.657   5.622   0.764
97616SOL     OW94744   4.339  11.425   6.961
97616SOL    HW194745   4.272  11.359   6.980
97616SOL    HW294746   4.353  11.418   6.867
97617SOL     OW94747   1.105  10.150  13.877
97617SOL    HW194748   1.027  10.094  13.882
97617SOL    HW294749   1.147  10.140  13.963
97618SOL     OW94750  14.524  14.667   4.916
97618SOL    HW194751  14.574  14.742   4.884
97618SOL    HW294752  14.572  14.590   4.883
97619SOL     OW94753   3.950   6.826  12.108
97619SOL    HW194754   3.970   6.770  12.183
97619SOL    HW294755   3.881   6.885  12.140
97620SOL     OW94756   4.558  11.903   8.731
97620SOL    HW194757   4.609  11.937   8.805
97620SOL    HW294758   4.575  11.809   8.733
97621SOL     OW94759   7.481   3.708   0.171
97621SOL    HW194760   7.413   3.647   0.199
97621SOL    HW294761   7.511   3.673   0.086
97622SOL     OW94762   6.899   0.721  13.394
97622SOL    HW194763   6.972   0.660  13.409
97622SOL    HW294764   6.865   0.739  13.481
97623SOL     OW94765  13.635   8.967   2.473
97623SOL    HW194766  13.604   9.053   2.500
97623SOL    HW294767  13.716   8.984   2.424
97624SOL     OW94768   2.016   4.951   2.912
97624SOL    HW194769   2.102   4.940   2.871
97624SOL    HW294770   1.962   4.994   2.846
97625SOL     OW94771  12.421   7.689   0.424
97625SOL    HW194772  12.348   7.639   0.460
97625SOL    HW294773  12.401   7.700   0.332
97626SOL     OW94774  14.689   8.905   5.696
97626SOL    HW194775  14.646   8.931   5.615
97626SOL    HW294776  14.776   8.944   5.691
97627SOL     OW94777   3.257  14.417   9.470
97627SOL    HW194778   3.329  14.476   9.449
97627SOL    HW294779   3.247  14.424   9.565
97628SOL     OW94780   3.225   2.005   8.229
97628SOL    HW194781   3.241   1.982   8.321
97628SOL    HW294782   3.174   1.932   8.195
97629SOL     OW94783  14.157   4.626   4.224
97629SOL    HW194784  14.077   4.645   4.273
97629SOL    HW294785  14.132   4.554   4.166
97630SOL     OW94786   5.270   9.361  12.647
97630SOL    HW194787   5.345   9.393  12.698
97630SOL    HW294788   5.289   9.269  12.631
97631SOL     OW94789  10.524   7.263   6.597
97631SOL    HW194790  10.534   7.339   6.654
97631SOL    HW294791  10.504   7.301   6.511
97632SOL     OW94792  13.346   7.371   8.014
97632SOL    HW194793  13.298   7.288   8.007
97632SOL    HW294794  13.436   7.345   8.033
97633SOL     OW94795   0.065   6.301   8.585
97633SOL    HW194796   0.128   6.338   8.523
97633SOL    HW294797   0.087   6.208   8.589
97634SOL     OW94798   5.062   9.345   3.897
97634SOL    HW194799   5.069   9.348   3.801
97634SOL    HW294800   4.980   9.299   3.913
97635SOL     OW94801   0.209  13.591   6.771
97635SOL    HW194802   0.272  13.553   6.832
97635SOL    HW294803   0.248  13.675   6.746
97636SOL     OW94804  14.118  11.879   7.332
97636SOL    HW194805  14.171  11.807   7.297
97636SOL    HW294806  14.163  11.904   7.413
97637SOL     OW94807  11.960   6.391  13.886
97637SOL    HW194808  12.032   6.431  13.836
97637SOL    HW294809  11.893   6.373  13.820
97638SOL     OW94810   9.984  13.675   7.557
97638SOL    HW194811   9.943  13.704   7.639
97638SOL    HW294812  10.052  13.614   7.586
97639SOL     OW94813  10.795   1.416  10.708
97639SOL    HW194814  10.865   1.480  10.723
97639SOL    HW294815  10.839   1.331  10.711
97640SOL     OW94816   5.007  11.739  14.675
97640SOL    HW194817   5.072  11.803  14.703
97640SOL    HW294818   5.021  11.664  14.732
97641SOL     OW94819  14.021   4.816   6.063
97641SOL    HW194820  14.087   4.882   6.042
97641SOL    HW294821  14.020   4.813   6.159
97642SOL     OW94822   9.939  10.400   3.808
97642SOL    HW194823   9.917  10.307   3.798
97642SOL    HW294824   9.986  10.404   3.891
97643SOL     OW94825   7.787   8.544  13.866
97643SOL    HW194826   7.812   8.514  13.779
97643SOL    HW294827   7.812   8.637  13.867
97644SOL     OW94828   2.237   0.480   1.996
97644SOL    HW194829   2.269   0.458   1.909
97644SOL    HW294830   2.143   0.464   1.992
97645SOL     OW94831  11.162   8.947   2.657
97645SOL    HW194832  11.194   8.876   2.712
97645SOL    HW294833  11.229   8.958   2.590
97646SOL     OW94834   1.599  11.949  10.621
97646SOL    HW194835   1.526  11.889  10.609
97646SOL    HW294836   1.641  11.920  10.702
97647SOL     OW94837  11.749  11.134   3.363
97647SOL    HW194838  11.693  11.084   3.422
97647SOL    HW294839  11.725  11.103   3.275
97648SOL     OW94840   0.868   7.658   3.255
97648SOL    HW194841   0.901   7.745   3.234
97648SOL    HW294842   0.883   7.649   3.349
97649SOL     OW94843   5.392   3.143  11.524
97649SOL    HW194844   5.428   3.190  11.598
97649SOL    HW294845   5.418   3.193  11.447
97650SOL     OW94846   7.137  12.642  11.127
97650SOL    HW194847   7.092  12.567  11.088
97650SOL    HW294848   7.223  12.608  11.151
97651SOL     OW94849   0.256   2.567   3.978
97651SOL    HW194850   0.316   2.641   3.989
97651SOL    HW294851   0.263   2.519   4.061
97652SOL     OW94852   1.742   1.489   6.381
97652SOL    HW194853   1.804   1.465   6.450
97652SOL    HW294854   1.796   1.508   6.305
97653SOL     OW94855   8.529  11.588   9.013
97653SOL    HW194856   8.462  11.651   9.040
97653SOL    HW294857   8.543  11.533   9.090
97654SOL     OW94858  14.178   2.637   7.269
97654SOL    HW194859  14.209   2.547   7.275
97654SOL    HW294860  14.250   2.690   7.302
97655SOL     OW94861  10.320   3.457  10.579
97655SOL    HW194862  10.248   3.486  10.634
97655SOL    HW294863  10.286   3.380  10.534
97656SOL     OW94864  12.875   5.633  11.012
97656SOL    HW194865  12.928   5.711  11.026
97656SOL    HW294866  12.820   5.628  11.090
97657SOL     OW94867  11.641   9.670   4.877
97657SOL    HW194868  11.629   9.745   4.818
97657SOL    HW294869  11.713   9.696   4.934
97658SOL     OW94870  11.360   3.745   7.906
97658SOL    HW194871  11.375   3.749   7.812
97658SOL    HW294872  11.266   3.763   7.917
97659SOL     OW94873  10.441  13.377   8.396
97659SOL    HW194874  10.476  13.445   8.339
97659SOL    HW294875  10.451  13.296   8.347
97660SOL     OW94876   5.907   5.734   3.018
97660SOL    HW194877   5.847   5.667   2.984
97660SOL    HW294878   5.972   5.745   2.948
97661SOL     OW94879  13.415   2.712   4.787
97661SOL    HW194880  13.481   2.780   4.794
97661SOL    HW294881  13.361   2.722   4.866
97662SOL     OW94882  14.091   0.283   3.557
97662SOL    HW194883  14.164   0.323   3.605
97662SOL    HW294884  14.084   0.336   3.477
97663SOL     OW94885   8.361   8.513   7.824
97663SOL    HW194886   8.422   8.440   7.837
97663SOL    HW294887   8.381   8.574   7.895
97664SOL     OW94888  13.965   4.531   7.248
97664SOL    HW194889  13.985   4.447   7.208
97664SOL    HW294890  13.880   4.518   7.291
97665SOL     OW94891   1.715   2.727  12.946
97665SOL    HW194892   1.621   2.744  12.935
97665SOL    HW294893   1.721   2.631  12.950
97666SOL     OW94894  14.779   7.630  13.372
97666SOL    HW194895  14.728   7.694  13.421
97666SOL    HW294896  14.806   7.565  13.436
97667SOL     OW94897   3.421   8.090   9.006
97667SOL    HW194898   3.396   8.079   9.098
97667SOL    HW294899   3.504   8.043   8.998
97668SOL     OW94900   9.073   4.988  10.319
97668SOL    HW194901   9.019   5.028  10.386
97668SOL    HW294902   9.100   5.061  10.263
97669SOL     OW94903   1.133   1.052  13.853
97669SOL    HW194904   1.130   1.012  13.765
97669SOL    HW294905   1.111   0.980  13.912
97670SOL     OW94906   5.517  14.806   5.424
97670SOL    HW194907   5.580  14.878   5.418
97670SOL    HW294908   5.496  14.800   5.517
97671SOL     OW94909  12.643   7.755  14.476
97671SOL    HW194910  12.594   7.805  14.410
97671SOL    HW294911  12.690   7.822  14.526
97672SOL     OW94912  14.247   9.920   7.239
97672SOL    HW194913  14.202  10.003   7.255
97672SOL    HW294914  14.316   9.942   7.176
97673SOL     OW94915  10.798  13.804  11.668
97673SOL    HW194916  10.807  13.785  11.761
97673SOL    HW294917  10.764  13.894  11.665
97674SOL     OW94918  13.151   4.583  14.383
97674SOL    HW194919  13.094   4.639  14.437
97674SOL    HW294920  13.111   4.585  14.296
97675SOL     OW94921   1.508   9.348  14.357
97675SOL    HW194922   1.483   9.386  14.441
97675SOL    HW294923   1.425   9.326  14.315
97676SOL     OW94924   0.872   6.393   2.384
97676SOL    HW194925   0.795   6.449   2.397
97676SOL    HW294926   0.864   6.363   2.294
97677SOL     OW94927   8.114   8.717   8.002
97677SOL    HW194928   8.174   8.643   7.989
97677SOL    HW294929   8.090   8.745   7.914
97678SOL     OW94930   3.820  12.436   7.493
97678SOL    HW194931   3.904  12.413   7.533
97678SOL    HW294932   3.824  12.402   7.404
97679SOL     OW94933  12.812   9.432   6.259
97679SOL    HW194934  12.796   9.522   6.233
97679SOL    HW294935  12.896   9.435   6.306
97680SOL     OW94936   3.026  13.740  12.642
97680SOL    HW194937   2.961  13.686  12.598
97680SOL    HW294938   3.082  13.773  12.572
97681SOL     OW94939   4.598  10.297   1.342
97681SOL    HW194940   4.690  10.276   1.362
97681SOL    HW294941   4.565  10.220   1.297
97682SOL     OW94942   5.484   8.393   2.308
97682SOL    HW194943   5.455   8.456   2.374
97682SOL    HW294944   5.402   8.361   2.268
97683SOL     OW94945   1.310  11.129   3.378
97683SOL    HW194946   1.369  11.075   3.325
97683SOL    HW294947   1.305  11.083   3.462
97684SOL     OW94948   7.716   0.583   2.552
97684SOL    HW194949   7.751   0.663   2.590
97684SOL    HW294950   7.773   0.513   2.585
97685SOL     OW94951   5.048   2.728  10.115
97685SOL    HW194952   5.109   2.658  10.092
97685SOL    HW294953   4.966   2.683  10.134
97686SOL     OW94954   7.301   6.834   9.709
97686SOL    HW194955   7.314   6.746   9.746
97686SOL    HW294956   7.207   6.842   9.699
97687SOL     OW94957   4.761   4.866   0.146
97687SOL    HW194958   4.835   4.926   0.142
97687SOL    HW294959   4.716   4.876   0.062
97688SOL     OW94960  12.154  12.958   0.514
97688SOL    HW194961  12.164  12.884   0.574
97688SOL    HW294962  12.136  13.033   0.570
97689SOL     OW94963  14.402   9.827  14.245
97689SOL    HW194964  14.317   9.783  14.250
97689SOL    HW294965  14.407   9.880  14.324
97690SOL     OW94966   9.220  11.141  13.599
97690SOL    HW194967   9.301  11.092  13.582
97690SOL    HW294968   9.200  11.122  13.691
97691SOL     OW94969  14.716   6.811   0.547
97691SOL    HW194970  14.713   6.906   0.552
97691SOL    HW294971  14.807   6.789   0.569
97692SOL     OW94972  13.970   4.438   7.576
97692SOL    HW194973  14.019   4.428   7.495
97692SOL    HW294974  14.035   4.426   7.646
97693SOL     OW94975  10.810  13.006  11.031
97693SOL    HW194976  10.717  13.007  11.055
97693SOL    HW294977  10.815  12.941  10.961
97694SOL     OW94978   5.043   3.993   9.515
97694SOL    HW194979   5.031   3.899   9.501
97694SOL    HW294980   5.040   4.003   9.610
97695SOL     OW94981   5.327   1.480  10.241
97695SOL    HW194982   5.380   1.556  10.216
97695SOL    HW294983   5.369   1.406  10.196
97696SOL     OW94984   2.999   9.765   7.911
97696SOL    HW194985   2.983   9.673   7.893
97696SOL    HW294986   2.963   9.811   7.835
97697SOL     OW94987   8.542   0.897   6.754
97697SOL    HW194988   8.558   0.901   6.660
97697SOL    HW294989   8.586   0.975   6.789
97698SOL     OW94990  10.226   6.145   4.433
97698SOL    HW194991  10.230   6.074   4.369
97698SOL    HW294992  10.196   6.221   4.384
97699SOL     OW94993   2.654  10.763   7.570
97699SOL    HW194994   2.658  10.668   7.578
97699SOL    HW294995   2.698  10.795   7.650
97700SOL     OW94996  12.398   9.661  12.840
97700SOL    HW194997  12.365   9.751  12.845
97700SOL    HW294998  12.370   9.630  12.754
97701SOL     OW94999   4.961   3.422  14.849
97701SOL    HW195000   4.906   3.356  14.809
97701SOL    HW295001   4.904   3.499  14.859
97702SOL     OW95002  12.693   8.499   7.811
97702SOL    HW195003  12.685   8.433   7.742
97702SOL    HW295004  12.755   8.461   7.873
97703SOL     OW95005   3.307  13.644   5.700
97703SOL    HW195006   3.241  13.713   5.689
97703SOL    HW295007   3.278  13.574   5.642
97704SOL     OW95008   5.439   2.382   2.922
97704SOL    HW195009   5.390   2.355   2.844
97704SOL    HW295010   5.491   2.457   2.892
97705SOL     OW95011   8.358   4.087   1.097
97705SOL    HW195012   8.315   4.020   1.150
97705SOL    HW295013   8.373   4.045   1.012
97706SOL     OW95014   0.665  10.075   6.933
97706SOL    HW195015   0.702  10.153   6.891
97706SOL    HW295016   0.572  10.095   6.943
97707SOL     OW95017   2.825  10.954   1.629
97707SOL    HW195018   2.783  11.038   1.648
97707SOL    HW295019   2.785  10.893   1.691
97708SOL     OW95020   6.832   7.401  13.692
97708SOL    HW195021   6.894   7.474  13.683
97708SOL    HW295022   6.808   7.401  13.785
97709SOL     OW95023   6.327  11.008  10.171
97709SOL    HW195024   6.305  10.945  10.103
97709SOL    HW295025   6.294  11.092  10.137
97710SOL     OW95026   1.479   9.270  10.688
97710SOL    HW195027   1.413   9.211  10.651
97710SOL    HW295028   1.562   9.222  10.678
97711SOL     OW95029   6.546   0.611   2.538
97711SOL    HW195030   6.528   0.557   2.461
97711SOL    HW295031   6.635   0.644   2.523
97712SOL     OW95032  11.381   5.991   2.043
97712SOL    HW195033  11.430   6.010   2.122
97712SOL    HW295034  11.441   5.942   1.988
97713SOL     OW95035   2.109   4.645   2.588
97713SOL    HW195036   2.093   4.556   2.618
97713SOL    HW295037   2.204   4.656   2.595
97714SOL     OW95038   6.070   9.768   4.038
97714SOL    HW195039   6.123   9.698   4.000
97714SOL    HW295040   6.031   9.729   4.116
97715SOL     OW95041   6.743   9.169   1.962
97715SOL    HW195042   6.778   9.188   1.875
97715SOL    HW295043   6.661   9.219   1.966
97716SOL     OW95044   9.097   5.180  12.661
97716SOL    HW195045   9.179   5.148  12.622
97716SOL    HW295046   9.053   5.101  12.693
97717SOL     OW95047   0.855   3.946   6.283
97717SOL    HW195048   0.873   3.879   6.348
97717SOL    HW295049   0.941   3.984   6.263
97718SOL     OW95050   1.733   6.638   0.737
97718SOL    HW195051   1.712   6.588   0.659
97718SOL    HW295052   1.648   6.670   0.769
97719SOL     OW95053   0.747  13.436  13.629
97719SOL    HW195054   0.760  13.363  13.690
97719SOL    HW295055   0.672  13.484  13.664
97720SOL     OW95056  11.783  14.109   8.028
97720SOL    HW195057  11.780  14.126   7.934
97720SOL    HW295058  11.693  14.089   8.052
97721SOL     OW95059   8.488   2.436   3.470
97721SOL    HW195060   8.523   2.525   3.460
97721SOL    HW295061   8.486   2.401   3.382
97722SOL     OW95062   0.528  10.901   2.051
97722SOL    HW195063   0.619  10.876   2.033
97722SOL    HW295064   0.534  10.987   2.093
97723SOL     OW95065   1.440  10.966  12.332
97723SOL    HW195066   1.459  11.006  12.417
97723SOL    HW295067   1.345  10.967  12.326
97724SOL     OW95068   1.438   8.579   6.221
97724SOL    HW195069   1.464   8.545   6.307
97724SOL    HW295070   1.517   8.571   6.167
97725SOL     OW95071   3.843   2.800   9.359
97725SOL    HW195072   3.783   2.731   9.385
97725SOL    HW295073   3.830   2.809   9.264
97726SOL     OW95074   6.156  11.618   0.969
97726SOL    HW195075   6.142  11.615   1.064
97726SOL    HW295076   6.075  11.583   0.932
97727SOL     OW95077   8.907   7.492  12.544
97727SOL    HW195078   8.831   7.509  12.489
97727SOL    HW295079   8.979   7.480  12.481
97728SOL     OW95080   9.765  11.007   4.865
97728SOL    HW195081   9.814  11.068   4.921
97728SOL    HW295082   9.675  11.015   4.896
97729SOL     OW95083   0.868   4.324   7.430
97729SOL    HW195084   0.849   4.373   7.350
97729SOL    HW295085   0.962   4.339   7.445
97730SOL     OW95086  10.566   6.625  12.889
97730SOL    HW195087  10.632   6.558  12.875
97730SOL    HW295088  10.520   6.631  12.804
97731SOL     OW95089   1.545   8.992  10.926
97731SOL    HW195090   1.546   9.055  10.998
97731SOL    HW295091   1.457   8.998  10.890
97732SOL     OW95092  14.737  12.627  10.765
97732SOL    HW195093  14.712  12.686  10.836
97732SOL    HW295094  14.827  12.653  10.743
97733SOL     OW95095   8.167  13.618  12.821
97733SOL    HW195096   8.222  13.690  12.853
97733SOL    HW295097   8.103  13.661  12.764
97734SOL     OW95098   9.765   7.034   9.055
97734SOL    HW195099   9.713   7.090   9.113
97734SOL    HW295100   9.831   7.092   9.018
97735SOL     OW95101   1.823   5.685   0.126
97735SOL    HW195102   1.876   5.669   0.048
97735SOL    HW295103   1.867   5.635   0.195
97736SOL     OW95104  11.752  14.149   0.812
97736SOL    HW195105  11.845  14.172   0.822
97736SOL    HW295106  11.749  14.097   0.731
97737SOL     OW95107   2.672   2.674  13.104
97737SOL    HW195108   2.689   2.593  13.151
97737SOL    HW295109   2.591   2.708  13.143
97738SOL     OW95110   0.159  14.356  10.459
97738SOL    HW195111   0.209  14.429  10.422
97738SOL    HW295112   0.212  14.326  10.533
97739SOL     OW95113   5.365  11.762   9.118
97739SOL    HW195114   5.390  11.682   9.164
97739SOL    HW295115   5.433  11.774   9.052
97740SOL     OW95116   4.646   8.409   7.358
97740SOL    HW195117   4.619   8.484   7.304
97740SOL    HW295118   4.733   8.433   7.389
97741SOL     OW95119  13.912   0.746  11.156
97741SOL    HW195120  13.875   0.834  11.147
97741SOL    HW295121  13.897   0.723  11.248
97742SOL     OW95122  14.650   4.860  14.821
97742SOL    HW195123  14.648   4.953  14.845
97742SOL    HW295124  14.713   4.821  14.881
97743SOL     OW95125   7.892  11.667   7.816
97743SOL    HW195126   7.920  11.746   7.769
97743SOL    HW295127   7.881  11.601   7.748
97744SOL     OW95128   7.066   1.739  11.631
97744SOL    HW195129   6.988   1.753  11.685
97744SOL    HW295130   7.139   1.750  11.691
97745SOL     OW95131   6.094   6.951   8.717
97745SOL    HW195132   6.135   6.910   8.641
97745SOL    HW295133   6.167   6.986   8.768
97746SOL     OW95134  10.593   4.209   2.039
97746SOL    HW195135  10.636   4.124   2.044
97746SOL    HW295136  10.534   4.211   2.115
97747SOL     OW95137  14.342  11.794  13.349
97747SOL    HW195138  14.382  11.862  13.403
97747SOL    HW295139  14.278  11.752  13.408
97748SOL     OW95140   7.827   3.745  12.488
97748SOL    HW195141   7.817   3.811  12.557
97748SOL    HW295142   7.753   3.760  12.429
97749SOL     OW95143   2.560   3.634  10.546
97749SOL    HW195144   2.632   3.580  10.580
97749SOL    HW295145   2.489   3.572  10.530
97750SOL     OW95146  13.848   5.648  11.397
97750SOL    HW195147  13.845   5.562  11.439
97750SOL    HW295148  13.807   5.634  11.311
97751SOL     OW95149   1.435  10.125   3.168
97751SOL    HW195150   1.396  10.180   3.235
97751SOL    HW295151   1.369  10.058   3.150
97752SOL     OW95152   9.696  10.512   4.881
97752SOL    HW195153   9.620  10.481   4.930
97752SOL    HW295154   9.737  10.577   4.939
97753SOL     OW95155  13.146   6.474   6.645
97753SOL    HW195156  13.072   6.434   6.600
97753SOL    HW295157  13.138   6.444   6.736
97754SOL     OW95158  12.515  14.274   8.232
97754SOL    HW195159  12.538  14.185   8.205
97754SOL    HW295160  12.596  14.324   8.222
97755SOL     OW95161   4.078   2.394   3.829
97755SOL    HW195162   3.984   2.378   3.815
97755SOL    HW295163   4.119   2.308   3.815
97756SOL     OW95164  11.343   3.443   3.542
97756SOL    HW195165  11.331   3.537   3.527
97756SOL    HW295166  11.293   3.401   3.472
97757SOL     OW95167   7.443  12.652   9.226
97757SOL    HW195168   7.407  12.700   9.151
97757SOL    HW295169   7.372  12.593   9.252
97758SOL     OW95170  11.512   4.248   7.030
97758SOL    HW195171  11.442   4.197   6.988
97758SOL    HW295172  11.551   4.298   6.958
97759SOL     OW95173   3.671  10.465   6.623
97759SOL    HW195174   3.687  10.378   6.660
97759SOL    HW295175   3.577  10.478   6.631
97760SOL     OW95176  13.821   1.430   8.714
97760SOL    HW195177  13.885   1.361   8.694
97760SOL    HW295178  13.736   1.387   8.705
97761SOL     OW95179   1.998   5.416   6.850
97761SOL    HW195180   2.019   5.439   6.759
97761SOL    HW295181   1.935   5.344   6.842
97762SOL     OW95182   3.140  11.373   3.648
97762SOL    HW195183   3.183  11.307   3.594
97762SOL    HW295184   3.195  11.379   3.726
97763SOL     OW95185  13.364   2.849  14.683
97763SOL    HW195186  13.418   2.815  14.611
97763SOL    HW295187  13.371   2.781  14.751
97764SOL     OW95188   1.400   7.172   9.555
97764SOL    HW195189   1.345   7.240   9.515
97764SOL    HW295190   1.396   7.099   9.493
97765SOL     OW95191   1.549   0.827  14.795
97765SOL    HW195192   1.509   0.898  14.844
97765SOL    HW295193   1.480   0.798  14.735
97766SOL     OW95194   4.039   0.771   9.806
97766SOL    HW195195   4.072   0.728   9.884
97766SOL    HW295196   3.959   0.815   9.835
97767SOL     OW95197   7.655   5.682  12.355
97767SOL    HW195198   7.581   5.675  12.295
97767SOL    HW295199   7.689   5.593  12.362
97768SOL     OW95200   3.078  13.833   3.059
97768SOL    HW195201   3.043  13.813   3.146
97768SOL    HW295202   3.036  13.770   3.001
97769SOL     OW95203   9.667   4.059  13.714
97769SOL    HW195204   9.667   4.151  13.689
97769SOL    HW295205   9.670   4.012  13.630
97770SOL     OW95206  10.918   9.640   7.238
97770SOL    HW195207  10.962   9.588   7.171
97770SOL    HW295208  10.825   9.631   7.218
97771SOL     OW95209  12.139   1.478   7.896
97771SOL    HW195210  12.070   1.411   7.887
97771SOL    HW295211  12.126   1.513   7.984
97772SOL     OW95212   1.861  12.395   1.701
97772SOL    HW195213   1.896  12.397   1.612
97772SOL    HW295214   1.893  12.476   1.741
97773SOL     OW95215   2.139   5.034   1.728
97773SOL    HW195216   2.072   4.973   1.760
97773SOL    HW295217   2.163   5.086   1.805
97774SOL     OW95218   6.338   2.684   3.776
97774SOL    HW195219   6.319   2.604   3.824
97774SOL    HW295220   6.395   2.734   3.835
97775SOL     OW95221   6.898   1.709   2.042
97775SOL    HW195222   6.980   1.692   1.996
97775SOL    HW295223   6.912   1.791   2.088
97776SOL     OW95224  14.237  11.714   1.492
97776SOL    HW195225  14.199  11.801   1.503
97776SOL    HW295226  14.281  11.696   1.575
97777SOL     OW95227   6.017  11.339   1.592
97777SOL    HW195228   5.997  11.408   1.655
97777SOL    HW295229   6.092  11.372   1.543
97778SOL     OW95230   1.903  12.647  14.259
97778SOL    HW195231   1.819  12.630  14.302
97778SOL    HW295232   1.933  12.561  14.229
97779SOL     OW95233   9.024   7.100   7.356
97779SOL    HW195234   9.046   7.130   7.444
97779SOL    HW295235   9.068   7.162   7.298
97780SOL     OW95236   9.351  10.014   2.670
97780SOL    HW195237   9.436   9.974   2.648
97780SOL    HW295238   9.286   9.948   2.646
97781SOL     OW95239   6.902  10.292  11.796
97781SOL    HW195240   6.901  10.198  11.813
97781SOL    HW295241   6.971  10.303  11.731
97782SOL     OW95242   5.282   8.707   3.401
97782SOL    HW195243   5.309   8.716   3.309
97782SOL    HW295244   5.273   8.613   3.414
97783SOL     OW95245  14.733  14.823   5.492
97783SOL    HW195246  14.667   0.007   5.513
97783SOL    HW295247  14.700  14.780   5.413
97784SOL     OW95248   1.828  12.927   9.029
97784SOL    HW195249   1.789  12.858   9.082
97784SOL    HW295250   1.777  13.005   9.050
97785SOL     OW95251  10.248  14.648   8.662
97785SOL    HW195252  10.331  14.696   8.660
97785SOL    HW295253  10.181  14.717   8.661
97786SOL     OW95254   4.539   9.638   7.069
97786SOL    HW195255   4.558   9.548   7.096
97786SOL    HW295256   4.491   9.676   7.142
97787SOL     OW95257   7.961   3.026   3.237
97787SOL    HW195258   7.961   3.097   3.172
97787SOL    HW295259   7.922   2.952   3.191
97788SOL     OW95260  12.103   3.698   0.458
97788SOL    HW195261  12.047   3.754   0.403
97788SOL    HW295262  12.041   3.639   0.501
97789SOL     OW95263   1.739   4.628  13.661
97789SOL    HW195264   1.661   4.572  13.662
97789SOL    HW295265   1.719   4.698  13.722
97790SOL     OW95266   5.402  14.180   4.947
97790SOL    HW195267   5.319  14.134   4.956
97790SOL    HW295268   5.409  14.232   5.027
97791SOL     OW95269   6.921   0.332  12.567
97791SOL    HW195270   6.862   0.406  12.580
97791SOL    HW295271   6.903   0.303  12.478
97792SOL     OW95272  11.693   9.865   8.769
97792SOL    HW195273  11.705   9.959   8.783
97792SOL    HW295274  11.600   9.855   8.750
97793SOL     OW95275  13.215   4.212   7.356
97793SOL    HW195276  13.247   4.286   7.304
97793SOL    HW295277  13.137   4.182   7.309
97794SOL     OW95278   7.708  10.778   1.014
97794SOL    HW195279   7.633  10.807   1.067
97794SOL    HW295280   7.712  10.841   0.943
97795SOL     OW95281  13.224   0.679   4.352
97795SOL    HW195282  13.296   0.725   4.395
97795SOL    HW295283  13.238   0.586   4.372
97796SOL     OW95284   2.184   1.742   5.321
97796SOL    HW195285   2.116   1.757   5.387
97796SOL    HW295286   2.145   1.774   5.239
97797SOL     OW95287   7.925   6.949   0.298
97797SOL    HW195288   7.951   6.862   0.268
97797SOL    HW295289   7.839   6.936   0.339
97798SOL     OW95290   2.903   6.536   3.834
97798SOL    HW195291   2.938   6.452   3.863
97798SOL    HW295292   2.887   6.524   3.740
97799SOL     OW95293   9.299   4.731   1.631
97799SOL    HW195294   9.285   4.660   1.568
97799SOL    HW295295   9.275   4.810   1.582
97800SOL     OW95296  13.785   1.617   0.910
97800SOL    HW195297  13.770   1.551   0.978
97800SOL    HW295298  13.762   1.573   0.829
97801SOL     OW95299   8.841  13.465  11.256
97801SOL    HW195300   8.826  13.412  11.334
97801SOL    HW295301   8.754  13.475  11.217
97802SOL     OW95302   9.207   4.100   6.684
97802SOL    HW195303   9.178   4.009   6.695
97802SOL    HW295304   9.290   4.093   6.638
97803SOL     OW95305  11.607   0.937   3.989
97803SOL    HW195306  11.545   1.009   3.999
97803SOL    HW295307  11.610   0.921   3.894
97804SOL     OW95308   0.601  14.332   8.497
97804SOL    HW195309   0.517  14.295   8.525
97804SOL    HW295310   0.597  14.423   8.527
97805SOL     OW95311   6.539  13.180  13.478
97805SOL    HW195312   6.496  13.155  13.559
97805SOL    HW295313   6.467  13.196  13.416
97806SOL     OW95314   7.047   8.156   1.075
97806SOL    HW195315   7.073   8.222   1.010
97806SOL    HW295316   7.030   8.077   1.024
97807SOL     OW95317  11.042  13.459  12.483
97807SOL    HW195318  11.006  13.371  12.470
97807SOL    HW295319  10.967  13.517  12.467
97808SOL     OW95320   3.268  14.504  11.266
97808SOL    HW195321   3.196  14.560  11.238
97808SOL    HW295322   3.229  14.417  11.274
97809SOL     OW95323   3.607  12.035   4.922
97809SOL    HW195324   3.699  12.043   4.896
97809SOL    HW295325   3.589  12.115   4.970
97810SOL     OW95326   3.605  13.788  10.105
97810SOL    HW195327   3.528  13.733  10.094
97810SOL    HW295328   3.597  13.824  10.193
97811SOL     OW95329   7.871   0.082  12.788
97811SOL    HW195330   7.796   0.088  12.729
97811SOL    HW295331   7.886   0.172  12.817
97812SOL     OW95332  11.296   2.970  10.580
97812SOL    HW195333  11.217   2.931  10.542
97812SOL    HW295334  11.296   2.938  10.671
97813SOL     OW95335   4.302   4.910   1.409
97813SOL    HW195336   4.230   4.968   1.383
97813SOL    HW295337   4.334   4.946   1.491
97814SOL     OW95338   8.664  13.479  13.246
97814SOL    HW195339   8.596  13.433  13.297
97814SOL    HW295340   8.678  13.561  13.293
97815SOL     OW95341   6.976  14.814  11.039
97815SOL    HW195342   7.019  14.729  11.041
97815SOL    HW295343   7.041  14.873  11.002
97816SOL     OW95344   6.988   7.207   5.542
97816SOL    HW195345   7.034   7.136   5.587
97816SOL    HW295346   6.938   7.250   5.610
97817SOL     OW95347  13.447   4.325   1.363
97817SOL    HW195348  13.403   4.280   1.291
97817SOL    HW295349  13.474   4.255   1.422
97818SOL     OW95350   6.643   0.616   8.733
97818SOL    HW195351   6.670   0.691   8.681
97818SOL    HW295352   6.601   0.557   8.671
97819SOL     OW95353   4.976   4.167   1.414
97819SOL    HW195354   4.981   4.219   1.495
97819SOL    HW295355   5.060   4.120   1.411
97820SOL     OW95356  14.831   9.043   3.978
97820SOL    HW195357  14.755   9.098   3.998
97820SOL    HW295358   0.023   9.102   3.988
97821SOL     OW95359   5.398  11.376   3.441
97821SOL    HW195360   5.435  11.356   3.527
97821SOL    HW295361   5.318  11.324   3.438
97822SOL     OW95362   2.742   4.711  11.969
97822SOL    HW195363   2.821   4.755  11.939
97822SOL    HW295364   2.728   4.745  12.058
97823SOL     OW95365   7.450  14.627   2.128
97823SOL    HW195366   7.441  14.625   2.033
97823SOL    HW295367   7.389  14.560   2.159
97824SOL     OW95368   3.616   3.918   7.335
97824SOL    HW195369   3.626   3.905   7.241
97824SOL    HW295370   3.549   3.854   7.361
97825SOL     OW95371   1.630   2.655   7.110
97825SOL    HW195372   1.652   2.706   7.032
97825SOL    HW295373   1.608   2.568   7.077
97826SOL     OW95374  12.939   3.227  13.202
97826SOL    HW195375  12.890   3.300  13.241
97826SOL    HW295376  12.886   3.200  13.127
97827SOL     OW95377   0.969   9.354   3.343
97827SOL    HW195378   1.027   9.351   3.418
97827SOL    HW295379   0.918   9.273   3.348
97828SOL     OW95380  12.414   1.506   4.347
97828SOL    HW195381  12.396   1.514   4.253
97828SOL    HW295382  12.508   1.522   4.354
97829SOL     OW95383  11.167   2.247   0.475
97829SOL    HW195384  11.110   2.323   0.468
97829SOL    HW295385  11.248   2.280   0.513
97830SOL     OW95386   7.255   1.522   0.349
97830SOL    HW195387   7.247   1.573   0.269
97830SOL    HW295388   7.221   1.436   0.327
97831SOL     OW95389   6.526  10.703   2.979
97831SOL    HW195390   6.480  10.654   3.047
97831SOL    HW295391   6.618  10.701   3.004
97832SOL     OW95392  11.689  14.723   0.185
97832SOL    HW195393  11.680  14.715   0.090
97832SOL    HW295394  11.632  14.654   0.220
97833SOL     OW95395   4.632   3.186  13.693
97833SOL    HW195396   4.726   3.192  13.708
97833SOL    HW295397   4.618   3.231  13.609
97834SOL     OW95398   7.415   1.616   9.112
97834SOL    HW195399   7.427   1.577   9.199
97834SOL    HW295400   7.439   1.547   9.051
97835SOL     OW95401  11.306   8.232   2.302
97835SOL    HW195402  11.223   8.223   2.348
97835SOL    HW295403  11.320   8.327   2.296
97836SOL     OW95404   4.852   5.253   6.711
97836SOL    HW195405   4.845   5.168   6.668
97836SOL    HW295406   4.830   5.236   6.802
97837SOL     OW95407   4.118  12.633   0.064
97837SOL    HW195408   4.105  12.555   0.010
97837SOL    HW295409   4.213  12.645   0.067
97838SOL     OW95410   4.882  12.584   4.796
97838SOL    HW195411   4.891  12.586   4.701
97838SOL    HW295412   4.805  12.529   4.812
97839SOL     OW95413  12.505   8.927  12.125
97839SOL    HW195414  12.461   8.879  12.055
97839SOL    HW295415  12.499   9.019  12.099
97840SOL     OW95416   3.639   1.519   3.664
97840SOL    HW195417   3.729   1.522   3.631
97840SOL    HW295418   3.597   1.452   3.611
97841SOL     OW95419  11.416  11.031  13.631
97841SOL    HW195420  11.343  10.972  13.653
97841SOL    HW295421  11.409  11.043  13.536
97842SOL     OW95422  13.520   9.068  14.027
97842SOL    HW195423  13.530   9.066  13.932
97842SOL    HW295424  13.533   8.978  14.055
97843SOL     OW95425  14.639   7.404  12.341
97843SOL    HW195426  14.651   7.312  12.315
97843SOL    HW295427  14.567   7.435  12.285
97844SOL     OW95428  13.780   5.258   5.592
97844SOL    HW195429  13.720   5.231   5.661
97844SOL    HW295430  13.786   5.353   5.601
97845SOL     OW95431   9.314   9.500  13.730
97845SOL    HW195432   9.397   9.454  13.718
97845SOL    HW295433   9.257   9.463  13.663
97846SOL     OW95434  14.034   0.011  11.024
97846SOL    HW195435  14.046  14.802  10.997
97846SOL    HW295436  13.943   0.015  11.054
97847SOL     OW95437   5.791  14.552   8.844
97847SOL    HW195438   5.782  14.486   8.912
97847SOL    HW295439   5.883  14.545   8.816
97848SOL     OW95440   4.223   9.517   8.578
97848SOL    HW195441   4.223   9.434   8.532
97848SOL    HW295442   4.172   9.576   8.522
97849SOL     OW95443  14.751   1.999   8.582
97849SOL    HW195444  14.781   2.089   8.573
97849SOL    HW295445  14.655   2.005   8.579
97850SOL     OW95446   3.205   9.493   4.657
97850SOL    HW195447   3.151   9.447   4.722
97850SOL    HW295448   3.173   9.461   4.573
97851SOL     OW95449   6.004   0.823  13.277
97851SOL    HW195450   6.038   0.762  13.342
97851SOL    HW295451   5.914   0.793  13.261
97852SOL     OW95452  12.896   6.262   6.744
97852SOL    HW195453  12.841   6.281   6.820
97852SOL    HW295454  12.878   6.334   6.683
97853SOL     OW95455  12.468   5.097   9.670
97853SOL    HW195456  12.471   5.190   9.650
97853SOL    HW295457  12.554   5.064   9.645
97854SOL     OW95458   0.213   3.786   8.216
97854SOL    HW195459   0.265   3.864   8.202
97854SOL    HW295460   0.243   3.724   8.150
97855SOL     OW95461   0.554   6.892   1.473
97855SOL    HW195462   0.533   6.814   1.526
97855SOL    HW295463   0.570   6.960   1.538
97856SOL     OW95464  12.631   5.739  10.308
97856SOL    HW195465  12.643   5.658  10.359
97856SOL    HW295466  12.675   5.806  10.360
97857SOL     OW95467   4.785   0.810   1.419
97857SOL    HW195468   4.717   0.793   1.354
97857SOL    HW295469   4.854   0.854   1.369
97858SOL     OW95470   9.875   5.113   3.429
97858SOL    HW195471   9.834   5.178   3.485
97858SOL    HW295472   9.931   5.062   3.489
97859SOL     OW95473   0.051   8.628   5.911
97859SOL    HW195474   0.116   8.647   5.978
97859SOL    HW295475  14.849   8.629   5.958
97860SOL     OW95476   1.750   8.681  13.729
97860SOL    HW195477   1.800   8.759  13.751
97860SOL    HW295478   1.682   8.713  13.669
97861SOL     OW95479   2.373   0.501  14.728
97861SOL    HW195480   2.300   0.466  14.780
97861SOL    HW295481   2.439   0.432  14.731
97862SOL     OW95482   2.159   0.945   4.792
97862SOL    HW195483   2.084   0.978   4.742
97862SOL    HW295484   2.230   0.939   4.728
97863SOL     OW95485   4.797   7.934  12.948
97863SOL    HW195486   4.775   7.988  12.872
97863SOL    HW295487   4.724   7.949  13.009
97864SOL     OW95488   1.089   9.588  14.240
97864SOL    HW195489   1.157   9.653  14.255
97864SOL    HW295490   1.018   9.637  14.198
97865SOL     OW95491   2.049   3.459   7.430
97865SOL    HW195492   2.116   3.480   7.494
97865SOL    HW295493   1.974   3.513   7.453
97866SOL     OW95494   4.824   5.152   2.007
97866SOL    HW195495   4.822   5.095   1.930
97866SOL    HW295496   4.757   5.116   2.065
97867SOL     OW95497   6.617  12.218  13.614
97867SOL    HW195498   6.541  12.264  13.580
97867SOL    HW295499   6.646  12.271  13.688
97868SOL     OW95500  14.112  10.669  13.623
97868SOL    HW195501  14.172  10.655  13.696
97868SOL    HW295502  14.146  10.747  13.578
97869SOL     OW95503   5.866   2.628   5.929
97869SOL    HW195504   5.823   2.695   5.983
97869SOL    HW295505   5.875   2.669   5.843
97870SOL     OW95506  13.908  14.854   7.492
97870SOL    HW195507  13.949  14.773   7.522
97870SOL    HW295508  13.852  14.881   7.564
97871SOL     OW95509   6.193   2.599   7.872
97871SOL    HW195510   6.202   2.588   7.967
97871SOL    HW295511   6.277   2.635   7.844
97872SOL     OW95512   5.735   4.229  10.531
97872SOL    HW195513   5.699   4.293  10.470
97872SOL    HW295514   5.670   4.224  10.602
97873SOL     OW95515   8.052   9.727  14.693
97873SOL    HW195516   7.965   9.717  14.654
97873SOL    HW295517   8.042   9.800  14.754
97874SOL     OW95518  13.139   6.791   9.162
97874SOL    HW195519  13.103   6.874   9.131
97874SOL    HW295520  13.146   6.737   9.084
97875SOL     OW95521   5.302   0.262   3.339
97875SOL    HW195522   5.284   0.264   3.245
97875SOL    HW295523   5.305   0.169   3.362
97876SOL     OW95524   9.544   8.159   1.173
97876SOL    HW195525   9.598   8.233   1.199
97876SOL    HW295526   9.607   8.093   1.142
97877SOL     OW95527   7.131   7.657   3.819
97877SOL    HW195528   7.152   7.695   3.734
97877SOL    HW295529   7.159   7.566   3.812
97878SOL     OW95530   5.904   2.454   8.610
97878SOL    HW195531   5.835   2.519   8.605
97878SOL    HW295532   5.982   2.504   8.635
97879SOL     OW95533   0.891   3.703   3.651
97879SOL    HW195534   0.913   3.775   3.591
97879SOL    HW295535   0.940   3.628   3.617
97880SOL     OW95536  12.127   0.434  14.200
97880SOL    HW195537  12.171   0.354  14.230
97880SOL    HW295538  12.125   0.425  14.105
97881SOL     OW95539  11.459  13.236   4.249
97881SOL    HW195540  11.450  13.329   4.229
97881SOL    HW295541  11.399  13.222   4.323
97882SOL     OW95542  10.621   7.176   5.004
97882SOL    HW195543  10.547   7.205   4.951
97882SOL    HW295544  10.609   7.223   5.087
97883SOL     OW95545   8.535  10.912  10.322
97883SOL    HW195546   8.458  10.953  10.363
97883SOL    HW295547   8.550  10.963  10.243
97884SOL     OW95548   2.522   3.853   9.263
97884SOL    HW195549   2.591   3.787   9.269
97884SOL    HW295550   2.512   3.885   9.353
97885SOL     OW95551   5.358   0.159  10.175
97885SOL    HW195552   5.309   0.234  10.208
97885SOL    HW295553   5.295   0.110  10.122
97886SOL     OW95554   1.107   8.202   3.731
97886SOL    HW195555   1.174   8.136   3.748
97886SOL    HW295556   1.027   8.151   3.716
97887SOL     OW95557   6.923  10.498   3.858
97887SOL    HW195558   6.902  10.417   3.812
97887SOL    HW295559   7.017  10.508   3.848
97888SOL     OW95560   8.283   5.045   1.278
97888SOL    HW195561   8.245   4.957   1.288
97888SOL    HW295562   8.355   5.047   1.342
97889SOL     OW95563   6.806  10.958   4.713
97889SOL    HW195564   6.722  11.000   4.693
97889SOL    HW295565   6.867  10.992   4.647
97890SOL     OW95566   7.532  10.170   4.769
97890SOL    HW195567   7.592  10.137   4.836
97890SOL    HW295568   7.554  10.263   4.761
97891SOL     OW95569   9.068   6.444  12.143
97891SOL    HW195570   9.048   6.452  12.236
97891SOL    HW295571   9.059   6.350  12.125
97892SOL     OW95572  10.112   6.699   1.678
97892SOL    HW195573  10.082   6.753   1.751
97892SOL    HW295574  10.141   6.762   1.612
97893SOL     OW95575   4.220   8.429   7.389
97893SOL    HW195576   4.295   8.403   7.443
97893SOL    HW295577   4.258   8.483   7.320
97894SOL     OW95578   9.258  10.292   9.919
97894SOL    HW195579   9.281  10.200   9.933
97894SOL    HW295580   9.163  10.295   9.935
97895SOL     OW95581   3.088  13.399   3.333
97895SOL    HW195582   3.082  13.317   3.382
97895SOL    HW295583   3.018  13.393   3.268
97896SOL     OW95584  14.823  10.883   5.514
97896SOL    HW195585  14.826  10.973   5.481
97896SOL    HW295586  14.730  10.861   5.515
97897SOL     OW95587   5.601  12.462   3.669
97897SOL    HW195588   5.687  12.481   3.705
97897SOL    HW295589   5.567  12.548   3.642
97898SOL     OW95590   2.236   4.887   7.176
97898SOL    HW195591   2.285   4.839   7.243
97898SOL    HW295592   2.298   4.953   7.144
97899SOL     OW95593   2.787   0.481   9.614
97899SOL    HW195594   2.839   0.419   9.665
97899SOL    HW295595   2.830   0.483   9.528
97900SOL     OW95596   6.450   7.486   5.636
97900SOL    HW195597   6.430   7.568   5.681
97900SOL    HW295598   6.467   7.512   5.546
97901SOL     OW95599   7.417   9.049   7.414
97901SOL    HW195600   7.374   8.971   7.450
97901SOL    HW295601   7.496   9.059   7.467
97902SOL     OW95602   3.414   1.776   9.132
97902SOL    HW195603   3.347   1.712   9.155
97902SOL    HW295604   3.473   1.776   9.208
97903SOL     OW95605  14.778   3.754  11.316
97903SOL    HW195606  14.820   3.668  11.308
97903SOL    HW295607  14.850   3.815  11.332
97904SOL     OW95608   2.406   8.081   7.255
97904SOL    HW195609   2.491   8.118   7.277
97904SOL    HW295610   2.388   8.019   7.325
97905SOL     OW95611  10.005   0.037  10.277
97905SOL    HW195612   9.979   0.081  10.196
97905SOL    HW295613  10.014  14.827  10.252
97906SOL     OW95614   9.418   4.992   2.821
97906SOL    HW195615   9.331   5.002   2.783
97906SOL    HW295616   9.421   5.057   2.891
97907SOL     OW95617  14.328   2.974   3.936
97907SOL    HW195618  14.254   2.937   3.985
97907SOL    HW295619  14.372   3.031   3.998
97908SOL     OW95620   6.863   4.845  10.146
97908SOL    HW195621   6.842   4.877  10.234
97908SOL    HW295622   6.798   4.887  10.089
97909SOL     OW95623   2.778   2.413   5.804
97909SOL    HW195624   2.824   2.410   5.888
97909SOL    HW295625   2.840   2.374   5.742
97910SOL     OW95626  11.885   7.109   6.207
97910SOL    HW195627  11.957   7.111   6.145
97910SOL    HW295628  11.831   7.184   6.184
97911SOL     OW95629   9.364   3.904   6.061
97911SOL    HW195630   9.356   3.833   5.998
97911SOL    HW295631   9.316   3.977   6.021
97912SOL     OW95632   4.113  12.144  13.462
97912SOL    HW195633   4.036  12.113  13.509
97912SOL    HW295634   4.122  12.236  13.488
97913SOL     OW95635   4.770   6.672   4.325
97913SOL    HW195636   4.817   6.744   4.367
97913SOL    HW295637   4.814   6.661   4.241
97914SOL     OW95638  10.164   7.592  12.908
97914SOL    HW195639  10.197   7.515  12.956
97914SOL    HW295640  10.069   7.585  12.915
97915SOL     OW95641   2.906   7.442  13.430
97915SOL    HW195642   2.936   7.385  13.500
97915SOL    HW295643   2.954   7.524  13.444
97916SOL     OW95644   2.412  11.194   2.662
97916SOL    HW195645   2.360  11.199   2.742
97916SOL    HW295646   2.368  11.127   2.609
97917SOL     OW95647   7.332  14.306   8.560
97917SOL    HW195648   7.300  14.394   8.539
97917SOL    HW295649   7.268  14.273   8.624
97918SOL     OW95650   9.689   3.740   8.550
97918SOL    HW195651   9.595   3.752   8.538
97918SOL    HW295652   9.718   3.821   8.592
97919SOL     OW95653   1.518   5.641  14.390
97919SOL    HW195654   1.442   5.698  14.375
97919SOL    HW295655   1.593   5.700  14.392
97920SOL     OW95656  10.791  12.912   7.593
97920SOL    HW195657  10.875  12.932   7.634
97920SOL    HW295658  10.800  12.821   7.562
97921SOL     OW95659   1.062   3.543   3.520
97921SOL    HW195660   1.089   3.493   3.597
97921SOL    HW295661   1.139   3.544   3.464
97922SOL     OW95662  12.336   2.086   1.219
97922SOL    HW195663  12.258   2.136   1.195
97922SOL    HW295664  12.399   2.105   1.150
97923SOL     OW95665   4.969  13.944   4.485
97923SOL    HW195666   4.963  13.973   4.576
97923SOL    HW295667   4.947  14.022   4.434
97924SOL     OW95668   3.731  11.211   2.301
97924SOL    HW195669   3.798  11.241   2.240
97924SOL    HW295670   3.780  11.173   2.374
97925SOL     OW95671   6.968   3.722   4.998
97925SOL    HW195672   6.884   3.676   4.996
97925SOL    HW295673   6.957   3.794   4.936
97926SOL     OW95674   3.535   5.025  14.000
97926SOL    HW195675   3.569   5.112  13.980
97926SOL    HW295676   3.601   4.987  14.058
97927SOL     OW95677  14.814   6.020   8.966
97927SOL    HW195678   0.022   6.020   8.998
97927SOL    HW295679  14.809   5.945   8.907
97928SOL     OW95680   1.169   4.209   7.512
97928SOL    HW195681   1.221   4.131   7.490
97928SOL    HW295682   1.230   4.282   7.504
97929SOL     OW95683   3.377   7.845   3.791
97929SOL    HW195684   3.338   7.891   3.866
97929SOL    HW295685   3.317   7.773   3.773
97930SOL     OW95686   2.927  11.693   2.973
97930SOL    HW195687   2.947  11.688   2.879
97930SOL    HW295688   2.963  11.613   3.010
97931SOL     OW95689  11.319  13.027   6.512
97931SOL    HW195690  11.388  13.046   6.575
97931SOL    HW295691  11.310  12.931   6.514
97932SOL     OW95692  12.977   5.161   6.580
97932SOL    HW195693  12.930   5.077   6.578
97932SOL    HW295694  12.910   5.225   6.602
97933SOL     OW95695   3.775  11.713   4.873
97933SOL    HW195696   3.754  11.704   4.780
97933SOL    HW295697   3.852  11.657   4.885
97934SOL     OW95698   4.265   8.561   2.095
97934SOL    HW195699   4.336   8.506   2.061
97934SOL    HW295700   4.258   8.632   2.031
97935SOL     OW95701   4.363   5.924   0.657
97935SOL    HW195702   4.418   6.001   0.672
97935SOL    HW295703   4.354   5.919   0.562
97936SOL     OW95704   6.850   3.934   6.405
97936SOL    HW195705   6.774   3.876   6.414
97936SOL    HW295706   6.908   3.887   6.346
97937SOL     OW95707   9.864   5.459  12.093
97937SOL    HW195708   9.859   5.389  12.029
97937SOL    HW295709   9.922   5.524  12.053
97938SOL     OW95710   6.092   3.956   7.021
97938SOL    HW195711   6.072   4.011   6.945
97938SOL    HW295712   6.100   3.868   6.986
97939SOL     OW95713  13.190   7.983   5.229
97939SOL    HW195714  13.212   7.892   5.210
97939SOL    HW295715  13.187   8.025   5.143
97940SOL     OW95716   1.168   5.326   7.273
97940SOL    HW195717   1.158   5.236   7.304
97940SOL    HW295718   1.263   5.337   7.264
97941SOL     OW95719   3.258   1.520   9.187
97941SOL    HW195720   3.213   1.477   9.114
97941SOL    HW295721   3.269   1.452   9.253
97942SOL     OW95722   5.007   1.744   6.875
97942SOL    HW195723   5.002   1.652   6.851
97942SOL    HW295724   4.935   1.785   6.827
97943SOL     OW95725   5.163  13.967  14.175
97943SOL    HW195726   5.087  13.970  14.117
97943SOL    HW295727   5.161  14.049  14.223
97944SOL     OW95728   1.962   3.602  13.448
97944SOL    HW195729   1.994   3.598  13.358
97944SOL    HW295730   1.898   3.674  13.448
97945SOL     OW95731   6.081  10.119   2.880
97945SOL    HW195732   6.088  10.047   2.943
97945SOL    HW295733   6.038  10.080   2.804
97946SOL     OW95734   7.506  14.753  12.407
97946SOL    HW195735   7.531  14.723  12.495
97946SOL    HW295736   7.411  14.764  12.412
97947SOL     OW95737   7.164  11.803  10.774
97947SOL    HW195738   7.155  11.898  10.766
97947SOL    HW295739   7.254  11.789  10.802
97948SOL     OW95740  11.856   3.559   3.061
97948SOL    HW195741  11.762   3.558   3.083
97948SOL    HW295742  11.889   3.639   3.103
97949SOL     OW95743  10.791   2.235   9.650
97949SOL    HW195744  10.698   2.212   9.657
97949SOL    HW295745  10.816   2.210   9.562
97950SOL     OW95746   9.597   1.401   1.359
97950SOL    HW195747   9.536   1.363   1.423
97950SOL    HW295748   9.592   1.495   1.375
97951SOL     OW95749   7.016  12.313   4.121
97951SOL    HW195750   7.041  12.274   4.037
97951SOL    HW295751   7.100  12.339   4.160
97952SOL     OW95752  14.833  14.782   0.776
97952SOL    HW195753  14.778  14.782   0.855
97952SOL    HW295754   0.010  14.857   0.788
97953SOL     OW95755  13.864   8.877   9.252
97953SOL    HW195756  13.861   8.786   9.282
97953SOL    HW295757  13.772   8.901   9.240
97954SOL     OW95758   7.704  10.943   3.097
97954SOL    HW195759   7.681  11.027   3.057
97954SOL    HW295760   7.622  10.909   3.132
97955SOL     OW95761  13.731   8.194   1.981
97955SOL    HW195762  13.638   8.180   1.961
97955SOL    HW295763  13.732   8.269   2.040
97956SOL     OW95764   5.404   0.227   5.732
97956SOL    HW195765   5.377   0.186   5.814
97956SOL    HW295766   5.337   0.293   5.716
97957SOL     OW95767   2.263   1.702   9.764
97957SOL    HW195768   2.357   1.684   9.758
97957SOL    HW295769   2.254   1.751   9.846
97958SOL     OW95770  12.378  13.470   8.845
97958SOL    HW195771  12.409  13.549   8.890
97958SOL    HW295772  12.378  13.494   8.752
97959SOL     OW95773   9.067   0.405   8.763
97959SOL    HW195774   9.163   0.407   8.761
97959SOL    HW295775   9.041   0.370   8.678
97960SOL     OW95776  14.096  14.476  11.650
97960SOL    HW195777  14.017  14.422  11.656
97960SOL    HW295778  14.167  14.417  11.675
97961SOL     OW95779   0.230   1.899  14.705
97961SOL    HW195780   0.150   1.893  14.653
97961SOL    HW295781   0.232   1.818  14.755
97962SOL     OW95782   9.157  13.326   7.067
97962SOL    HW195783   9.163  13.362   7.155
97962SOL    HW295784   9.203  13.389   7.012
97963SOL     OW95785  12.653  12.984   7.560
97963SOL    HW195786  12.727  12.945   7.608
97963SOL    HW295787  12.629  12.918   7.495
97964SOL     OW95788   2.363  13.104   3.247
97964SOL    HW195789   2.387  13.197   3.239
97964SOL    HW295790   2.430  13.058   3.196
97965SOL     OW95791  13.157  14.566   5.336
97965SOL    HW195792  13.156  14.589   5.429
97965SOL    HW295793  13.229  14.619   5.299
97966SOL     OW95794   1.495   8.746  10.634
97966SOL    HW195795   1.573   8.731  10.688
97966SOL    HW295796   1.435   8.675  10.658
97967SOL     OW95797   4.587  13.994   0.614
97967SOL    HW195798   4.568  14.049   0.691
97967SOL    HW295799   4.506  13.995   0.564
97968SOL     OW95800   0.264   5.148  10.168
97968SOL    HW195801   0.184   5.119  10.125
97968SOL    HW295802   0.288   5.228  10.121
97969SOL     OW95803   4.032  10.631   1.003
97969SOL    HW195804   4.080  10.669   0.929
97969SOL    HW295805   4.010  10.707   1.058
97970SOL     OW95806   8.593  10.132   6.594
97970SOL    HW195807   8.561  10.071   6.527
97970SOL    HW295808   8.574  10.089   6.677
97971SOL     OW95809   4.719  12.022   4.248
97971SOL    HW195810   4.719  12.114   4.274
97971SOL    HW295811   4.800  11.987   4.284
97972SOL     OW95812  11.257  13.495   4.911
97972SOL    HW195813  11.285  13.497   5.002
97972SOL    HW295814  11.211  13.577   4.898
97973SOL     OW95815   3.851   2.646   8.664
97973SOL    HW195816   3.774   2.700   8.645
97973SOL    HW295817   3.831   2.605   8.748
97974SOL     OW95818   9.214  10.732   3.290
97974SOL    HW195819   9.177  10.697   3.371
97974SOL    HW295820   9.294  10.776   3.317
97975SOL     OW95821   3.729   6.525   1.492
97975SOL    HW195822   3.752   6.618   1.494
97975SOL    HW295823   3.673   6.517   1.414
97976SOL     OW95824   3.475   5.574   5.466
97976SOL    HW195825   3.556   5.552   5.421
97976SOL    HW295826   3.503   5.617   5.546
97977SOL     OW95827   6.606  12.286  12.673
97977SOL    HW195828   6.696  12.316  12.690
97977SOL    HW295829   6.555  12.324  12.744
97978SOL     OW95830  13.310   5.637   5.946
97978SOL    HW195831  13.215   5.647   5.958
97978SOL    HW295832  13.325   5.661   5.854
97979SOL     OW95833   0.791   6.467   7.507
97979SOL    HW195834   0.741   6.467   7.425
97979SOL    HW295835   0.881   6.452   7.480
97980SOL     OW95836  10.567   6.262  10.604
97980SOL    HW195837  10.568   6.249  10.510
97980SOL    HW295838  10.649   6.306  10.624
97981SOL     OW95839  13.283   9.273   8.857
97981SOL    HW195840  13.369   9.237   8.836
97981SOL    HW295841  13.228   9.196   8.873
97982SOL     OW95842   7.726   2.242  10.828
97982SOL    HW195843   7.642   2.197  10.815
97982SOL    HW295844   7.725   2.312  10.764
97983SOL     OW95845  11.712  13.805   7.570
97983SOL    HW195846  11.786  13.825   7.514
97983SOL    HW295847  11.664  13.737   7.523
97984SOL     OW95848   0.376   1.625   1.684
97984SOL    HW195849   0.297   1.621   1.737
97984SOL    HW295850   0.378   1.542   1.637
97985SOL     OW95851   6.834   8.551   0.280
97985SOL    HW195852   6.784   8.570   0.359
97985SOL    HW295853   6.841   8.456   0.278
97986SOL     OW95854   3.587   6.231   3.033
97986SOL    HW195855   3.494   6.247   3.044
97986SOL    HW295856   3.611   6.277   2.953
97987SOL     OW95857  11.812   2.494   6.225
97987SOL    HW195858  11.875   2.522   6.158
97987SOL    HW295859  11.858   2.504   6.308
97988SOL     OW95860   7.278  12.615   5.605
97988SOL    HW195861   7.279  12.569   5.689
97988SOL    HW295862   7.186  12.615   5.578
97989SOL     OW95863   6.953  14.339   6.784
97989SOL    HW195864   6.862  14.361   6.768
97989SOL    HW295865   6.993  14.338   6.697
97990SOL     OW95866   0.882  10.835   4.279
97990SOL    HW195867   0.856  10.753   4.237
97990SOL    HW295868   0.898  10.811   4.370
97991SOL     OW95869   0.862  10.832   1.320
97991SOL    HW195870   0.936  10.801   1.372
97991SOL    HW295871   0.886  10.922   1.297
97992SOL     OW95872  11.914   1.529   0.487
97992SOL    HW195873  11.918   1.539   0.392
97992SOL    HW295874  11.831   1.485   0.503
97993SOL     OW95875   6.181   4.280   0.545
97993SOL    HW195876   6.164   4.258   0.453
97993SOL    HW295877   6.276   4.284   0.551
97994SOL     OW95878  12.996  11.668   5.162
97994SOL    HW195879  13.063  11.727   5.125
97994SOL    HW295880  12.931  11.659   5.093
97995SOL     OW95881   0.507  12.077   7.746
97995SOL    HW195882   0.526  11.997   7.698
97995SOL    HW295883   0.428  12.057   7.795
97996SOL     OW95884  14.336   0.808   6.860
97996SOL    HW195885  14.319   0.881   6.920
97996SOL    HW295886  14.393   0.844   6.793
97997SOL     OW95887   9.355   4.959  10.556
97997SOL    HW195888   9.362   5.023  10.627
97997SOL    HW295889   9.274   4.911  10.576
97998SOL     OW95890  10.567   6.219   9.181
97998SOL    HW195891  10.545   6.303   9.139
97998SOL    HW295892  10.516   6.219   9.262
97999SOL     OW95893   3.930  13.295  10.073
97999SOL    HW195894   4.010  13.273  10.120
97999SOL    HW295895   3.938  13.389  10.054
98000SOL     OW95896   6.687   9.705  10.316
98000SOL    HW195897   6.686   9.611  10.294
98000SOL    HW295898   6.775   9.721  10.348
98001SOL     OW95899   6.970   8.984  12.164
98001SOL    HW195900   7.031   9.047  12.126
98001SOL    HW295901   6.932   8.939  12.088
98002SOL     OW95902  11.881  11.317  14.060
98002SOL    HW195903  11.841  11.316  14.147
98002SOL    HW295904  11.975  11.316  14.076
98003SOL     OW95905   4.614   9.489   1.331
98003SOL    HW195906   4.690   9.454   1.377
98003SOL    HW295907   4.575   9.413   1.288
98004SOL     OW95908   6.450  13.434   5.440
98004SOL    HW195909   6.504  13.406   5.366
98004SOL    HW295910   6.442  13.528   5.430
98005SOL     OW95911  13.417   9.348   4.749
98005SOL    HW195912  13.392   9.412   4.683
98005SOL    HW295913  13.349   9.355   4.816
98006SOL     OW95914   0.504  12.570   3.549
98006SOL    HW195915   0.459  12.618   3.479
98006SOL    HW295916   0.593  12.605   3.548
98007SOL     OW95917   7.423   3.461  10.489
98007SOL    HW195918   7.337   3.503  10.484
98007SOL    HW295919   7.481   3.519  10.440
98008SOL     OW95920   8.945   9.805  12.891
98008SOL    HW195921   9.005   9.829  12.962
98008SOL    HW295922   9.000   9.757  12.829
98009SOL     OW95923   2.200   4.462   7.171
98009SOL    HW195924   2.142   4.456   7.095
98009SOL    HW295925   2.281   4.498   7.136
98010SOL     OW95926   4.292   5.864   7.262
98010SOL    HW195927   4.343   5.842   7.340
98010SOL    HW295928   4.339   5.823   7.190
98011SOL     OW95929  12.705   3.295  11.421
98011SOL    HW195930  12.753   3.348  11.485
98011SOL    HW295931  12.732   3.330  11.336
98012SOL     OW95932  12.966  10.545   7.391
98012SOL    HW195933  12.989  10.534   7.484
98012SOL    HW295934  12.892  10.486   7.378
98013SOL     OW95935   5.075  12.867   6.595
98013SOL    HW195936   5.082  12.778   6.562
98013SOL    HW295937   4.985  12.893   6.574
98014SOL     OW95938   8.726   4.834   9.760
98014SOL    HW195939   8.705   4.887   9.683
98014SOL    HW295940   8.688   4.882   9.834
98015SOL     OW95941   3.788   4.803   5.089
98015SOL    HW195942   3.721   4.846   5.141
98015SOL    HW295943   3.868   4.853   5.108
98016SOL     OW95944   0.892  10.813   6.225
98016SOL    HW195945   0.882  10.859   6.142
98016SOL    HW295946   0.973  10.848   6.263
98017SOL     OW95947   1.820  14.281  14.789
98017SOL    HW195948   1.852  14.199  14.752
98017SOL    HW295949   1.745  14.256  14.843
98018SOL     OW95950  13.081   1.879   8.302
98018SOL    HW195951  13.160   1.927   8.324
98018SOL    HW295952  13.076   1.810   8.368
98019SOL     OW95953  10.017   5.530   9.868
98019SOL    HW195954   9.984   5.583   9.941
98019SOL    HW295955  10.060   5.456   9.910
98020SOL     OW95956   7.659   4.890   9.581
98020SOL    HW195957   7.707   4.830   9.638
98020SOL    HW295958   7.691   4.977   9.606
98021SOL     OW95959   0.476  11.366   4.720
98021SOL    HW195960   0.475  11.278   4.756
98021SOL    HW295961   0.447  11.355   4.629
98022SOL     OW95962  11.555   1.519  12.809
98022SOL    HW195963  11.639   1.536  12.768
98022SOL    HW295964  11.577   1.475  12.892
98023SOL     OW95965   6.926  10.810   2.261
98023SOL    HW195966   6.876  10.831   2.340
98023SOL    HW295967   6.862  10.815   2.190
98024SOL     OW95968   0.020  14.227  11.317
98024SOL    HW195969   0.106  14.237  11.276
98024SOL    HW295970  14.840  14.253  11.249
98025SOL     OW95971   5.309  12.950   4.476
98025SOL    HW195972   5.266  13.005   4.542
98025SOL    HW295973   5.245  12.880   4.459
98026SOL     OW95974  10.322   1.719   9.687
98026SOL    HW195975  10.310   1.631   9.653
98026SOL    HW295976  10.254   1.727   9.755
98027SOL     OW95977   9.312  10.239  10.724
98027SOL    HW195978   9.229  10.191  10.718
98027SOL    HW295979   9.323  10.256  10.818
98028SOL     OW95980   7.442   9.603   2.499
98028SOL    HW195981   7.443   9.516   2.459
98028SOL    HW295982   7.383   9.654   2.444
98029SOL     OW95983   4.953  13.684   5.932
98029SOL    HW195984   5.024  13.644   5.981
98029SOL    HW295985   4.890  13.613   5.918
98030SOL     OW95986   9.881   6.590  10.756
98030SOL    HW195987   9.960   6.550  10.792
98030SOL    HW295988   9.913   6.650  10.688
98031SOL     OW95989   3.529   7.024  13.333
98031SOL    HW195990   3.587   6.949  13.348
98031SOL    HW295991   3.469   6.996  13.265
98032SOL     OW95992   3.446  13.067  11.660
98032SOL    HW195993   3.541  13.063  11.671
98032SOL    HW295994   3.420  12.978  11.638
98033SOL     OW95995   0.999   1.714  12.634
98033SOL    HW195996   1.077   1.670  12.600
98033SOL    HW295997   0.946   1.643  12.671
98034SOL     OW95998   2.414   9.030   1.671
98034SOL    HW195999   2.442   9.112   1.632
98034SOL    HW296000   2.484   8.968   1.652
98035SOL     OW96001   3.950   1.798   5.097
98035SOL    HW196002   3.962   1.703   5.090
98035SOL    HW296003   4.037   1.830   5.122
98036SOL     OW96004   6.873   6.895   5.708
98036SOL    HW196005   6.912   6.808   5.699
98036SOL    HW296006   6.792   6.890   5.658
98037SOL     OW96007   6.842  10.567  11.100
98037SOL    HW196008   6.805  10.492  11.146
98037SOL    HW296009   6.852  10.538  11.010
98038SOL     OW96010   7.093  14.007   7.764
98038SOL    HW196011   7.051  13.978   7.844
98038SOL    HW296012   7.179  14.038   7.792
98039SOL     OW96013   7.122  12.124  11.882
98039SOL    HW196014   7.214  12.149  11.868
98039SOL    HW296015   7.072  12.197  11.845
98040SOL     OW96016  12.801  11.513  11.785
98040SOL    HW196017  12.776  11.522  11.877
98040SOL    HW296018  12.887  11.553  11.779
98041SOL     OW96019  10.464   1.435   8.443
98041SOL    HW196020  10.485   1.484   8.523
98041SOL    HW296021  10.410   1.362   8.473
98042SOL     OW96022  14.446   0.708   4.718
98042SOL    HW196023  14.470   0.638   4.658
98042SOL    HW296024  14.392   0.665   4.785
98043SOL     OW96025   9.498  11.081   9.643
98043SOL    HW196026   9.433  11.081   9.713
98043SOL    HW296027   9.448  11.097   9.563
98044SOL     OW96028   1.843   2.199  12.764
98044SOL    HW196029   1.908   2.171  12.699
98044SOL    HW296030   1.829   2.121  12.818
98045SOL     OW96031  14.077   0.149   8.122
98045SOL    HW196032  14.001   0.206   8.113
98045SOL    HW296033  14.077   0.121   8.213
98046SOL     OW96034   2.989   7.803   7.215
98046SOL    HW196035   2.968   7.747   7.289
98046SOL    HW296036   2.984   7.745   7.139
98047SOL     OW96037  12.801   5.104  10.166
98047SOL    HW196038  12.734   5.098  10.098
98047SOL    HW296039  12.756   5.079  10.247
98048SOL     OW96040   0.715  14.626   5.243
98048SOL    HW196041   0.680  14.676   5.316
98048SOL    HW296042   0.749  14.691   5.182
98049SOL     OW96043  14.207   3.345   9.892
98049SOL    HW196044  14.286   3.398   9.885
98049SOL    HW296045  14.237   3.255   9.884
98050SOL     OW96046  14.451  13.159  11.578
98050SOL    HW196047  14.503  13.082  11.556
98050SOL    HW296048  14.514  13.222  11.613
98051SOL     OW96049   0.384   9.246  12.886
98051SOL    HW196050   0.305   9.239  12.832
98051SOL    HW296051   0.396   9.158  12.922
98052SOL     OW96052   9.291   5.303   8.803
98052SOL    HW196053   9.300   5.369   8.734
98052SOL    HW296054   9.380   5.284   8.830
98053SOL     OW96055   0.972   8.035   0.570
98053SOL    HW196056   0.963   8.012   0.477
98053SOL    HW296057   0.955   7.953   0.617
98054SOL     OW96058   4.031  14.704   2.904
98054SOL    HW196059   4.062  14.691   2.994
98054SOL    HW296060   4.028  14.799   2.893
98055SOL     OW96061  11.814  12.644   3.191
98055SOL    HW196062  11.726  12.607   3.196
98055SOL    HW296063  11.859  12.612   3.269
98056SOL     OW96064   5.209   6.070  13.177
98056SOL    HW196065   5.249   6.140  13.125
98056SOL    HW296066   5.117   6.069  13.149
98057SOL     OW96067   5.226   4.652   5.315
98057SOL    HW196068   5.200   4.632   5.405
98057SOL    HW296069   5.233   4.567   5.272
98058SOL     OW96070  11.138   0.567  12.684
98058SOL    HW196071  11.070   0.520  12.732
98058SOL    HW296072  11.117   0.660  12.696
98059SOL     OW96073   1.272   5.922   3.613
98059SOL    HW196074   1.278   6.017   3.623
98059SOL    HW296075   1.360   5.890   3.630
98060SOL     OW96076   3.038   5.002   4.788
98060SOL    HW196077   3.001   4.943   4.722
98060SOL    HW296078   3.043   4.948   4.868
98061SOL     OW96079   9.033  14.710   9.291
98061SOL    HW196080   9.106  14.648   9.282
98061SOL    HW296081   8.969  14.663   9.343
98062SOL     OW96082   2.884   6.454   9.627
98062SOL    HW196083   2.972   6.416   9.621
98062SOL    HW296084   2.829   6.380   9.652
98063SOL     OW96085  14.199  13.647  11.096
98063SOL    HW196086  14.189  13.739  11.122
98063SOL    HW296087  14.290  13.626  11.117
98064SOL     OW96088   1.705  14.759   0.816
98064SOL    HW196089   1.728  14.703   0.891
98064SOL    HW296090   1.617  14.790   0.836
98065SOL     OW96091   4.931   6.843   4.472
98065SOL    HW196092   4.997   6.792   4.518
98065SOL    HW296093   4.960   6.934   4.482
98066SOL     OW96094   1.084   1.317  13.809
98066SOL    HW196095   1.003   1.343  13.854
98066SOL    HW296096   1.096   1.225  13.834
98067SOL     OW96097   7.332   5.171   9.644
98067SOL    HW196098   7.419   5.210   9.639
98067SOL    HW296099   7.287   5.221   9.712
98068SOL     OW96100   5.303   9.446   2.324
98068SOL    HW196101   5.271   9.358   2.307
98068SOL    HW296102   5.267   9.469   2.410
98069SOL     OW96103   7.127   6.280   7.184
98069SOL    HW196104   7.068   6.291   7.109
98069SOL    HW296105   7.128   6.186   7.200
98070SOL     OW96106  13.678   4.206   8.351
98070SOL    HW196107  13.772   4.220   8.341
98070SOL    HW296108  13.664   4.209   8.446
98071SOL     OW96109  11.611  14.568   0.790
98071SOL    HW196110  11.672  14.637   0.768
98071SOL    HW296111  11.626  14.551   0.883
98072SOL     OW96112   6.573   0.251  11.484
98072SOL    HW196113   6.658   0.210  11.472
98072SOL    HW296114   6.546   0.225  11.572
98073SOL     OW96115  10.945   7.576  14.161
98073SOL    HW196116  11.002   7.632  14.213
98073SOL    HW296117  10.923   7.629  14.084
98074SOL     OW96118   8.482   0.994   7.356
98074SOL    HW196119   8.570   0.995   7.319
98074SOL    HW296120   8.455   1.086   7.358
98075SOL     OW96121   9.521   7.209   1.361
98075SOL    HW196122   9.596   7.237   1.412
98075SOL    HW296123   9.536   7.245   1.273
98076SOL     OW96124  13.654   9.337  10.616
98076SOL    HW196125  13.610   9.349  10.700
98076SOL    HW296126  13.594   9.375  10.551
98077SOL     OW96127  10.753   2.465   6.428
98077SOL    HW196128  10.737   2.558   6.409
98077SOL    HW296129  10.677   2.438   6.479
98078SOL     OW96130   0.594   6.341  11.598
98078SOL    HW196131   0.594   6.363  11.691
98078SOL    HW296132   0.659   6.271  11.590
98079SOL     OW96133  12.279  10.463  14.051
98079SOL    HW196134  12.198  10.514  14.056
98079SOL    HW296135  12.276  10.407  14.129
98080SOL     OW96136   0.095  12.115  10.687
98080SOL    HW196137   0.052  12.166  10.618
98080SOL    HW296138   0.096  12.174  10.762
98081SOL     OW96139   4.631   4.916   9.459
98081SOL    HW196140   4.574   4.890   9.532
98081SOL    HW296141   4.575   4.911   9.382
98082SOL     OW96142   5.822   4.350  11.632
98082SOL    HW196143   5.824   4.313  11.543
98082SOL    HW296144   5.735   4.326  11.666
98083SOL     OW96145  13.564   1.193  13.963
98083SOL    HW196146  13.564   1.270  14.019
98083SOL    HW296147  13.584   1.120  14.023
98084SOL     OW96148   8.371   6.536   6.712
98084SOL    HW196149   8.433   6.605   6.692
98084SOL    HW296150   8.412   6.486   6.783
98085SOL     OW96151  14.774   0.265   7.666
98085SOL    HW196152  14.866   0.257   7.693
98085SOL    HW296153  14.729   0.299   7.744
98086SOL     OW96154  13.319  13.507  13.195
98086SOL    HW196155  13.339  13.571  13.263
98086SOL    HW296156  13.227  13.522  13.175
98087SOL     OW96157  12.078   5.578   8.748
98087SOL    HW196158  12.053   5.650   8.806
98087SOL    HW296159  12.016   5.508   8.768
98088SOL     OW96160   5.813  12.403   6.117
98088SOL    HW196161   5.720  12.384   6.115
98088SOL    HW296162   5.855  12.325   6.081
98089SOL     OW96163   1.889   6.578   3.387
98089SOL    HW196164   1.832   6.653   3.403
98089SOL    HW296165   1.839   6.502   3.418
98090SOL     OW96166  10.084   5.953   5.490
98090SOL    HW196167  10.091   5.994   5.404
98090SOL    HW296168  10.007   5.993   5.531
98091SOL     OW96169  14.864   9.482   8.200
98091SOL    HW196170  14.850   9.544   8.272
98091SOL    HW296171   0.074   9.491   8.178
98092SOL     OW96172   4.219   7.505   1.536
98092SOL    HW196173   4.234   7.594   1.503
98092SOL    HW296174   4.243   7.509   1.628
98093SOL     OW96175  11.876   4.834  12.399
98093SOL    HW196176  11.788   4.840  12.361
98093SOL    HW296177  11.935   4.857  12.327
98094SOL     OW96178  12.669   0.969   2.800
98094SOL    HW196179  12.649   1.060   2.779
98094SOL    HW296180  12.700   0.972   2.891
98095SOL     OW96181  14.617   6.548   2.185
98095SOL    HW196182  14.590   6.640   2.180
98095SOL    HW296183  14.658   6.531   2.100
98096SOL     OW96184   5.127   6.222   7.514
98096SOL    HW196185   5.223   6.230   7.520
98096SOL    HW296186   5.112   6.190   7.425
98097SOL     OW96187   1.540   3.874   9.172
98097SOL    HW196188   1.476   3.933   9.131
98097SOL    HW296189   1.535   3.794   9.121
98098SOL     OW96190   7.162  14.004   0.117
98098SOL    HW196191   7.097  14.046   0.174
98098SOL    HW296192   7.111  13.953   0.055
98099SOL     OW96193   4.462   3.103  13.307
98099SOL    HW196194   4.393   3.092  13.242
98099SOL    HW296195   4.524   3.032  13.288
98100SOL     OW96196  12.108   8.495  13.982
98100SOL    HW196197  12.112   8.583  14.019
98100SOL    HW296198  12.081   8.439  14.055
98101SOL     OW96199   7.293  14.416  11.310
98101SOL    HW196200   7.209  14.377  11.333
98101SOL    HW296201   7.299  14.403  11.215
98102SOL     OW96202   1.003   0.825   5.382
98102SOL    HW196203   0.961   0.822   5.468
98102SOL    HW296204   0.995   0.735   5.349
98103SOL     OW96205   4.005   7.190   1.613
98103SOL    HW196206   3.981   7.282   1.606
98103SOL    HW296207   4.056   7.173   1.533
98104SOL     OW96208  10.187   5.137  14.274
98104SOL    HW196209  10.159   5.228  14.266
98104SOL    HW296210  10.139   5.092  14.205
98105SOL     OW96211   9.868   3.225   1.005
98105SOL    HW196212   9.800   3.292   1.012
98105SOL    HW296213   9.860   3.193   0.915
98106SOL     OW96214   4.154   5.207   7.577
98106SOL    HW196215   4.207   5.286   7.578
98106SOL    HW296216   4.181   5.162   7.496
98107SOL     OW96217  10.511   2.949   3.136
98107SOL    HW196218  10.519   3.005   3.214
98107SOL    HW296219  10.424   2.971   3.101
98108SOL     OW96220  10.140  10.823  14.860
98108SOL    HW196221  10.150  10.815  14.766
98108SOL    HW296222  10.132  10.733   0.010
98109SOL     OW96223   1.460   3.602   9.413
98109SOL    HW196224   1.484   3.571   9.325
98109SOL    HW296225   1.500   3.688   9.420
98110SOL     OW96226   6.548   4.448   0.812
98110SOL    HW196227   6.513   4.360   0.825
98110SOL    HW296228   6.643   4.437   0.822
98111SOL     OW96229  11.127   7.036   0.605
98111SOL    HW196230  11.139   7.108   0.667
98111SOL    HW296231  11.205   7.038   0.550
98112SOL     OW96232   9.314   9.751   3.406
98112SOL    HW196233   9.409   9.750   3.394
98112SOL    HW296234   9.301   9.783   3.495
98113SOL     OW96235  13.842   2.973  12.905
98113SOL    HW196236  13.908   2.911  12.936
98113SOL    HW296237  13.788   2.922  12.845
98114SOL     OW96238  14.707   3.168   9.567
98114SOL    HW196239  14.618   3.202   9.569
98114SOL    HW296240  14.716   3.121   9.649
98115SOL     OW96241   2.569   9.248   4.950
98115SOL    HW196242   2.649   9.239   4.897
98115SOL    HW296243   2.564   9.341   4.971
98116SOL     OW96244   5.778   4.787  10.223
98116SOL    HW196245   5.845   4.750  10.166
98116SOL    HW296246   5.780   4.732  10.301
98117SOL     OW96247   7.334   7.250   7.155
98117SOL    HW196248   7.326   7.198   7.075
98117SOL    HW296249   7.420   7.225   7.191
98118SOL     OW96250   1.410  11.436   3.140
98118SOL    HW196251   1.437  11.528   3.145
98118SOL    HW296252   1.489  11.389   3.111
98119SOL     OW96253   2.923   8.790   0.404
98119SOL    HW196254   2.942   8.793   0.498
98119SOL    HW296255   2.981   8.723   0.370
98120SOL     OW96256   9.069   6.755  11.667
98120SOL    HW196257   9.000   6.820  11.668
98120SOL    HW296258   9.070   6.718  11.755
98121SOL     OW96259  14.535   2.458   2.077
98121SOL    HW196260  14.473   2.529   2.094
98121SOL    HW296261  14.494   2.408   2.007
98122SOL     OW96262   2.212  14.279  12.977
98122SOL    HW196263   2.300  14.246  12.994
98122SOL    HW296264   2.168  14.276  13.062
98123SOL     OW96265   4.000   5.420  14.838
98123SOL    HW196266   4.030   5.502  14.877
98123SOL    HW296267   4.031   5.423  14.748
98124SOL     OW96268   8.932   9.051   5.429
98124SOL    HW196269   8.843   9.015   5.422
98124SOL    HW296270   8.929   9.111   5.503
98125SOL     OW96271   5.356   5.202   6.300
98125SOL    HW196272   5.384   5.136   6.236
98125SOL    HW296273   5.434   5.253   6.318
98126SOL     OW96274  10.023   3.188  12.366
98126SOL    HW196275  10.005   3.147  12.450
98126SOL    HW296276   9.955   3.255  12.357
98127SOL     OW96277   2.942   7.650   0.365
98127SOL    HW196278   2.880   7.584   0.335
98127SOL    HW296279   3.025   7.604   0.373
98128SOL     OW96280   6.081  12.510   6.979
98128SOL    HW196281   6.095  12.550   6.893
98128SOL    HW296282   6.017  12.567   7.022
98129SOL     OW96283   7.847  11.319  11.580
98129SOL    HW196284   7.796  11.332  11.660
98129SOL    HW296285   7.783  11.296  11.513
98130SOL     OW96286  10.889  11.648  12.595
98130SOL    HW196287  10.874  11.733  12.554
98130SOL    HW296288  10.974  11.619  12.560
98131SOL     OW96289   8.815  10.563   0.525
98131SOL    HW196290   8.752  10.520   0.467
98131SOL    HW296291   8.763  10.591   0.601
98132SOL     OW96292   5.316   0.260   7.801
98132SOL    HW196293   5.258   0.323   7.759
98132SOL    HW296294   5.294   0.265   7.894
98133SOL     OW96295  10.041   6.804  13.094
98133SOL    HW196296  10.070   6.877  13.038
98133SOL    HW296297   9.999   6.847  13.169
98134SOL     OW96298   0.936   4.366   1.786
98134SOL    HW196299   0.928   4.452   1.827
98134SOL    HW296300   0.972   4.309   1.854
98135SOL     OW96301   6.784  10.173   5.902
98135SOL    HW196302   6.729  10.243   5.935
98135SOL    HW296303   6.812  10.125   5.980
98136SOL     OW96304  10.746   1.795  11.442
98136SOL    HW196305  10.663   1.753  11.466
98136SOL    HW296306  10.731   1.888  11.457
98137SOL     OW96307   2.601   2.289   4.436
98137SOL    HW196308   2.563   2.338   4.508
98137SOL    HW296309   2.688   2.262   4.467
98138SOL     OW96310  13.326  12.175   1.643
98138SOL    HW196311  13.360  12.257   1.678
98138SOL    HW296312  13.242  12.163   1.687
98139SOL     OW96313   2.878   6.304   7.813
98139SOL    HW196314   2.944   6.293   7.745
98139SOL    HW296315   2.814   6.364   7.774
98140SOL     OW96316   0.862   7.597   3.547
98140SOL    HW196317   0.942   7.551   3.572
98140SOL    HW296318   0.860   7.674   3.604
98141SOL     OW96319  14.029   9.012  11.999
98141SOL    HW196320  14.052   9.089  12.052
98141SOL    HW296321  13.934   9.019  11.986
98142SOL     OW96322   3.840   2.028   2.468
98142SOL    HW196323   3.771   1.988   2.522
98142SOL    HW296324   3.815   2.120   2.461
98143SOL     OW96325  12.774   3.228   5.727
98143SOL    HW196326  12.748   3.277   5.649
98143SOL    HW296327  12.797   3.141   5.694
98144SOL     OW96328  12.838  12.183   3.456
98144SOL    HW196329  12.902  12.157   3.523
98144SOL    HW296330  12.781  12.246   3.501
98145SOL     OW96331   1.226   2.404   1.252
98145SOL    HW196332   1.273   2.375   1.330
98145SOL    HW296333   1.263   2.351   1.180
98146SOL     OW96334   3.079  11.227  12.756
98146SOL    HW196335   3.164  11.222  12.711
98146SOL    HW296336   3.099  11.209  12.847
98147SOL     OW96337   9.581   2.503  11.693
98147SOL    HW196338   9.652   2.524  11.632
98147SOL    HW296339   9.557   2.413  11.671
98148SOL     OW96340   9.801  12.975  10.408
98148SOL    HW196341   9.782  13.067  10.386
98148SOL    HW296342   9.896  12.968  10.399
98149SOL     OW96343   2.361   5.698  12.345
98149SOL    HW196344   2.304   5.774  12.334
98149SOL    HW296345   2.370   5.662  12.257
98150SOL     OW96346   9.979  14.709   7.603
98150SOL    HW196347   9.973  14.784   7.544
98150SOL    HW296348  10.036  14.648   7.557
98151SOL     OW96349   9.986   1.928  10.946
98151SOL    HW196350  10.022   1.867  11.010
98151SOL    HW296351   9.901   1.890  10.922
98152SOL     OW96352  12.554   7.931   0.884
98152SOL    HW196353  12.622   7.876   0.923
98152SOL    HW296354  12.549   7.903   0.793
98153SOL     OW96355  12.462  12.778   4.658
98153SOL    HW196356  12.366  12.777   4.663
98153SOL    HW296357  12.491  12.755   4.746
98154SOL     OW96358   6.007   4.958   0.298
98154SOL    HW196359   6.070   5.030   0.288
98154SOL    HW296360   6.021   4.926   0.387
98155SOL     OW96361  10.181  10.937   7.408
98155SOL    HW196362  10.205  10.944   7.500
98155SOL    HW296363  10.235  11.003   7.365
98156SOL     OW96364   1.980   2.996   6.743
98156SOL    HW196365   1.919   2.991   6.817
98156SOL    HW296366   2.032   3.074   6.760
98157SOL     OW96367   9.459   3.438   8.936
98157SOL    HW196368   9.517   3.514   8.940
98157SOL    HW296369   9.417   3.445   8.850
98158SOL     OW96370   9.895   4.220  11.950
98158SOL    HW196371   9.880   4.236  12.043
98158SOL    HW296372   9.818   4.258  11.907
98159SOL     OW96373  13.407   3.571  14.127
98159SOL    HW196374  13.365   3.577  14.213
98159SOL    HW296375  13.354   3.627  14.071
98160SOL     OW96376  10.048   4.104   0.303
98160SOL    HW196377  10.071   4.039   0.237
98160SOL    HW296378  10.061   4.059   0.387
98161SOL     OW96379   4.054  12.735   4.842
98161SOL    HW196380   3.983  12.738   4.906
98161SOL    HW296381   4.072  12.642   4.830
98162SOL     OW96382   5.515  13.362  14.590
98162SOL    HW196383   5.589  13.311  14.621
98162SOL    HW296384   5.440  13.329  14.639
98163SOL     OW96385   9.612  12.079   5.652
98163SOL    HW196386   9.558  12.098   5.575
98163SOL    HW296387   9.653  11.994   5.632
98164SOL     OW96388   6.896   3.614   7.436
98164SOL    HW196389   6.975   3.635   7.386
98164SOL    HW296390   6.855   3.699   7.452
98165SOL     OW96391   8.831   6.691   4.783
98165SOL    HW196392   8.822   6.648   4.869
98165SOL    HW296393   8.768   6.645   4.727
98166SOL     OW96394  12.949  13.287   8.369
98166SOL    HW196395  12.859  13.293   8.336
98166SOL    HW296396  12.998  13.247   8.297
98167SOL     OW96397  10.766   9.337   5.087
98167SOL    HW196398  10.771   9.432   5.095
98167SOL    HW296399  10.722   9.322   5.003
98168SOL     OW96400  13.407   8.924   3.783
98168SOL    HW196401  13.438   8.979   3.711
98168SOL    HW296402  13.315   8.947   3.793
98169SOL     OW96403   9.630   0.102  12.340
98169SOL    HW196404   9.701   0.053  12.297
98169SOL    HW296405   9.664   0.192  12.347
98170SOL     OW96406   7.827  14.563   3.504
98170SOL    HW196407   7.892  14.498   3.479
98170SOL    HW296408   7.761  14.560   3.434
98171SOL     OW96409   7.994   2.242  11.562
98171SOL    HW196410   8.047   2.310  11.604
98171SOL    HW296411   7.993   2.170  11.625
98172SOL     OW96412   4.067  14.037  13.276
98172SOL    HW196413   4.156  14.052  13.309
98172SOL    HW296414   4.018  14.002  13.351
98173SOL     OW96415  13.283  11.915   6.258
98173SOL    HW196416  13.337  11.960   6.193
98173SOL    HW296417  13.232  11.852   6.207
98174SOL     OW96418  13.844   2.827  12.181
98174SOL    HW196419  13.854   2.899  12.243
98174SOL    HW296420  13.934   2.799  12.162
98175SOL     OW96421   1.631   3.070   3.908
98175SOL    HW196422   1.726   3.081   3.901
98175SOL    HW296423   1.620   3.004   3.976
98176SOL     OW96424   6.381  14.319   2.016
98176SOL    HW196425   6.377  14.415   2.016
98176SOL    HW296426   6.415  14.297   2.102
98177SOL     OW96427   5.519   4.526   7.510
98177SOL    HW196428   5.527   4.438   7.474
98177SOL    HW296429   5.541   4.584   7.438
98178SOL     OW96430   9.236   7.850   8.550
98178SOL    HW196431   9.263   7.922   8.492
98178SOL    HW296432   9.218   7.892   8.634
98179SOL     OW96433   0.922   1.864   9.982
98179SOL    HW196434   1.001   1.823  10.015
98179SOL    HW296435   0.916   1.947  10.030
98180SOL     OW96436   5.994   1.833  13.974
98180SOL    HW196437   5.940   1.800  13.902
98180SOL    HW296438   5.943   1.905  14.012
98181SOL     OW96439   1.276  12.062   6.532
98181SOL    HW196440   1.291  12.006   6.455
98181SOL    HW296441   1.358  12.057   6.581
98182SOL     OW96442   8.408   1.539   6.565
98182SOL    HW196443   8.402   1.553   6.470
98182SOL    HW296444   8.487   1.586   6.591
98183SOL     OW96445   6.561  11.695  14.697
98183SOL    HW196446   6.556  11.702  14.792
98183SOL    HW296447   6.619  11.767  14.671
98184SOL     OW96448   1.537   5.167  12.685
98184SOL    HW196449   1.618   5.135  12.724
98184SOL    HW296450   1.563   5.245  12.635
98185SOL     OW96451  13.966  12.767   9.832
98185SOL    HW196452  13.996  12.835   9.893
98185SOL    HW296453  13.897  12.721   9.879
98186SOL     OW96454   6.800   3.899  12.767
98186SOL    HW196455   6.838   3.917  12.681
98186SOL    HW296456   6.708   3.878  12.749
98187SOL     OW96457  10.679  10.719   2.699
98187SOL    HW196458  10.714  10.801   2.663
98187SOL    HW296459  10.731  10.704   2.778
98188SOL     OW96460  11.444   0.700  13.907
98188SOL    HW196461  11.418   0.758  13.836
98188SOL    HW296462  11.457   0.758  13.982
98189SOL     OW96463   0.621  14.763  11.134
98189SOL    HW196464   0.573  14.691  11.095
98189SOL    HW296465   0.621  14.832  11.067
98190SOL     OW96466   6.337  12.220  14.055
98190SOL    HW196467   6.336  12.199  13.961
98190SOL    HW296468   6.428  12.205  14.081
98191SOL     OW96469   9.021  12.090   1.090
98191SOL    HW196470   9.032  12.051   1.176
98191SOL    HW296471   8.944  12.045   1.053
98192SOL     OW96472   5.502   6.203   8.692
98192SOL    HW196473   5.422   6.219   8.743
98192SOL    HW296474   5.490   6.256   8.613
98193SOL     OW96475   6.444  12.450   7.109
98193SOL    HW196476   6.451  12.544   7.091
98193SOL    HW296477   6.391  12.415   7.038
98194SOL     OW96478   0.069  14.705   7.298
98194SOL    HW196479   0.051  14.684   7.206
98194SOL    HW296480   0.135  14.774   7.294
98195SOL     OW96481   4.728  11.746  14.728
98195SOL    HW196482   4.814  11.724  14.691
98195SOL    HW296483   4.738  11.727  14.821
98196SOL     OW96484   2.815   9.701   7.540
98196SOL    HW196485   2.838   9.762   7.610
98196SOL    HW296486   2.898   9.682   7.497
98197SOL     OW96487  13.253   9.696   1.184
98197SOL    HW196488  13.287   9.709   1.096
98197SOL    HW296489  13.288   9.611   1.211
98198SOL     OW96490  13.072  12.881   5.016
98198SOL    HW196491  13.102  12.972   5.011
98198SOL    HW296492  13.140  12.831   4.970
98199SOL     OW96493   7.603  13.648   3.508
98199SOL    HW196494   7.523  13.675   3.553
98199SOL    HW296495   7.629  13.567   3.552
98200SOL     OW96496   2.629   3.873   1.070
98200SOL    HW196497   2.713   3.911   1.094
98200SOL    HW296498   2.590   3.844   1.152
98201SOL     OW96499   6.439   6.368   4.619
98201SOL    HW196500   6.397   6.345   4.537
98201SOL    HW296501   6.454   6.463   4.613
98202SOL     OW96502   5.385   1.432  14.469
98202SOL    HW196503   5.444   1.379  14.523
98202SOL    HW296504   5.420   1.424  14.380
98203SOL     OW96505  12.058  13.702   7.147
98203SOL    HW196506  11.973  13.659   7.142
98203SOL    HW296507  12.039  13.794   7.129
98204SOL     OW96508   0.574   2.847   4.122
98204SOL    HW196509   0.541   2.937   4.111
98204SOL    HW296510   0.623   2.850   4.204
98205SOL     OW96511  10.560   3.358  10.340
98205SOL    HW196512  10.545   3.370  10.247
98205SOL    HW296513  10.558   3.447  10.376
98206SOL     OW96514   6.965   2.649   9.372
98206SOL    HW196515   6.926   2.680   9.290
98206SOL    HW296516   6.894   2.657   9.436
98207SOL     OW96517   4.674  11.155  10.336
98207SOL    HW196518   4.661  11.077  10.281
98207SOL    HW296519   4.649  11.228  10.279
98208SOL     OW96520  13.639  12.433   1.466
98208SOL    HW196521  13.565  12.401   1.414
98208SOL    HW296522  13.693  12.356   1.481
98209SOL     OW96523  12.707   2.496   0.841
98209SOL    HW196524  12.653   2.555   0.894
98209SOL    HW296525  12.655   2.482   0.761
98210SOL     OW96526   4.797   5.043   9.925
98210SOL    HW196527   4.873   5.102   9.921
98210SOL    HW296528   4.784   5.026  10.018
98211SOL     OW96529   3.893   3.785   1.188
98211SOL    HW196530   3.914   3.693   1.204
98211SOL    HW296531   3.840   3.784   1.108
98212SOL     OW96532   5.495  10.533   5.874
98212SOL    HW196533   5.457  10.501   5.956
98212SOL    HW296534   5.427  10.591   5.839
98213SOL     OW96535   8.882   8.259   1.494
98213SOL    HW196536   8.856   8.265   1.586
98213SOL    HW296537   8.845   8.337   1.454
98214SOL     OW96538   5.331   0.065   3.676
98214SOL    HW196539   5.298  14.862   3.703
98214SOL    HW296540   5.288   0.128   3.735
98215SOL     OW96541   6.547   8.663   4.085
98215SOL    HW196542   6.511   8.593   4.139
98215SOL    HW296543   6.490   8.738   4.103
98216SOL     OW96544   6.305   3.038   6.758
98216SOL    HW196545   6.264   2.994   6.684
98216SOL    HW296546   6.349   3.114   6.720
98217SOL     OW96547   1.891   3.680   9.496
98217SOL    HW196548   1.857   3.673   9.407
98217SOL    HW296549   1.962   3.744   9.490
98218SOL     OW96550  14.426   8.362   9.234
98218SOL    HW196551  14.407   8.450   9.266
98218SOL    HW296552  14.368   8.350   9.159
98219SOL     OW96553   4.220   0.428   9.082
98219SOL    HW196554   4.162   0.383   9.144
98219SOL    HW296555   4.277   0.482   9.137
98220SOL     OW96556   8.122   2.070   2.291
98220SOL    HW196557   8.053   2.005   2.299
98220SOL    HW296558   8.142   2.096   2.381
98221SOL     OW96559   1.183   3.587  10.958
98221SOL    HW196560   1.242   3.538  11.015
98221SOL    HW296561   1.098   3.545  10.969
98222SOL     OW96562  12.514  13.112   9.363
98222SOL    HW196563  12.430  13.072   9.384
98222SOL    HW296564  12.579  13.043   9.378
98223SOL     OW96565  14.415   4.541   8.980
98223SOL    HW196566  14.508   4.518   8.984
98223SOL    HW296567  14.380   4.488   8.909
98224SOL     OW96568  12.515   3.850  14.781
98224SOL    HW196569  12.450   3.876  14.716
98224SOL    HW296570  12.584   3.915  14.773
98225SOL     OW96571   8.123  10.610   4.650
98225SOL    HW196572   8.174  10.530   4.650
98225SOL    HW296573   8.142  10.651   4.565
98226SOL     OW96574   7.966   2.481   5.737
98226SOL    HW196575   7.882   2.522   5.715
98226SOL    HW296576   7.957   2.455   5.828
98227SOL     OW96577   5.138   0.511   3.739
98227SOL    HW196578   5.181   0.474   3.662
98227SOL    HW296579   5.199   0.578   3.771
98228SOL     OW96580   6.793   6.178   5.147
98228SOL    HW196581   6.855   6.226   5.091
98228SOL    HW296582   6.747   6.246   5.196
98229SOL     OW96583  11.867   2.934  13.556
98229SOL    HW196584  11.823   2.872  13.497
98229SOL    HW296585  11.939   2.969  13.504
98230SOL     OW96586  11.683   6.683   5.288
98230SOL    HW196587  11.720   6.601   5.320
98230SOL    HW296588  11.661   6.666   5.197
98231SOL     OW96589   4.719   5.172   2.700
98231SOL    HW196590   4.676   5.248   2.662
98231SOL    HW296591   4.697   5.100   2.641
98232SOL     OW96592   7.208  13.183   2.486
98232SOL    HW196593   7.112  13.186   2.492
98232SOL    HW296594   7.232  13.103   2.534
98233SOL     OW96595   5.335   3.949  14.064
98233SOL    HW196596   5.406   4.008  14.089
98233SOL    HW296597   5.271   3.957  14.135
98234SOL     OW96598   3.078   5.650   8.304
98234SOL    HW196599   3.100   5.567   8.347
98234SOL    HW296600   3.139   5.657   8.231
98235SOL     OW96601   0.815   7.238   3.171
98235SOL    HW196602   0.782   7.148   3.174
98235SOL    HW296603   0.910   7.229   3.185
98236SOL     OW96604   3.927   4.292  12.539
98236SOL    HW196605   3.882   4.209  12.522
98236SOL    HW296606   4.000   4.293  12.478
98237SOL     OW96607   9.607   1.365   6.994
98237SOL    HW196608   9.524   1.334   6.958
98237SOL    HW296609   9.664   1.374   6.917
98238SOL     OW96610  11.114  11.806   0.567
98238SOL    HW196611  11.189  11.746   0.565
98238SOL    HW296612  11.043  11.757   0.526
98239SOL     OW96613   0.853   5.115  11.503
98239SOL    HW196614   0.873   5.170  11.427
98239SOL    HW296615   0.855   5.176  11.577
98240SOL     OW96616   0.993   8.827   8.216
98240SOL    HW196617   0.973   8.833   8.123
98240SOL    HW296618   1.082   8.791   8.220
98241SOL     OW96619   2.023   4.428  13.452
98241SOL    HW196620   2.105   4.410  13.405
98241SOL    HW296621   2.051   4.463  13.536
98242SOL     OW96622   6.168   1.896   5.311
98242SOL    HW196623   6.123   1.892   5.396
98242SOL    HW296624   6.168   1.989   5.288
98243SOL     OW96625  13.130   1.006   2.159
98243SOL    HW196626  13.202   0.971   2.106
98243SOL    HW296627  13.166   1.085   2.200
98244SOL     OW96628   5.394   9.181  13.603
98244SOL    HW196629   5.435   9.198  13.518
98244SOL    HW296630   5.407   9.087  13.617
98245SOL     OW96631   3.467   8.624   5.309
98245SOL    HW196632   3.380   8.590   5.332
98245SOL    HW296633   3.466   8.714   5.340
98246SOL     OW96634   0.752  10.991  10.574
98246SOL    HW196635   0.682  10.928  10.592
98246SOL    HW296636   0.832  10.945  10.596
98247SOL     OW96637  13.246  11.104   6.431
98247SOL    HW196638  13.226  11.198   6.428
98247SOL    HW296639  13.241  11.082   6.524
98248SOL     OW96640  14.027  11.178   5.908
98248SOL    HW196641  13.945  11.228   5.898
98248SOL    HW296642  14.004  11.108   5.970
98249SOL     OW96643   3.308  11.061   0.116
98249SOL    HW196644   3.317  11.096   0.204
98249SOL    HW296645   3.372  10.989   0.112
98250SOL     OW96646  11.894  12.193  10.547
98250SOL    HW196647  11.807  12.155  10.533
98250SOL    HW296648  11.948  12.118  10.573
98251SOL     OW96649  12.962   0.783   0.744
98251SOL    HW196650  12.874   0.768   0.777
98251SOL    HW296651  12.954   0.773   0.649
98252SOL     OW96652   4.181   7.832   0.719
98252SOL    HW196653   4.172   7.900   0.652
98252SOL    HW296654   4.143   7.754   0.679
98253SOL     OW96655  12.720   4.591  11.828
98253SOL    HW196656  12.717   4.596  11.733
98253SOL    HW296657  12.632   4.564  11.854
98254SOL     OW96658   0.425   5.320  14.227
98254SOL    HW196659   0.464   5.290  14.309
98254SOL    HW296660   0.336   5.284  14.229
98255SOL     OW96661  10.159  11.172   3.111
98255SOL    HW196662  10.121  11.107   3.053
98255SOL    HW296663  10.117  11.254   3.086
98256SOL     OW96664  11.489   6.657   7.219
98256SOL    HW196665  11.428   6.601   7.267
98256SOL    HW296666  11.550   6.689   7.285
98257SOL     OW96667   3.768   3.926  13.828
98257SOL    HW196668   3.826   3.849  13.828
98257SOL    HW296669   3.720   3.919  13.745
98258SOL     OW96670  13.062  10.139   8.725
98258SOL    HW196671  13.064  10.068   8.661
98258SOL    HW296672  12.972  10.172   8.720
98259SOL     OW96673   0.764  13.753   5.526
98259SOL    HW196674   0.789  13.788   5.441
98259SOL    HW296675   0.668  13.760   5.527
98260SOL     OW96676   7.203   0.323   7.111
98260SOL    HW196677   7.273   0.349   7.052
98260SOL    HW296678   7.245   0.319   7.197
98261SOL     OW96679   2.291   4.175   2.174
98261SOL    HW196680   2.265   4.245   2.113
98261SOL    HW296681   2.338   4.221   2.244
98262SOL     OW96682   8.960  12.274   2.499
98262SOL    HW196683   8.874  12.308   2.523
98262SOL    HW296684   9.015  12.351   2.488
98263SOL     OW96685   9.318   9.978   1.782
98263SOL    HW196686   9.314   9.935   1.697
98263SOL    HW296687   9.312  10.072   1.762
98264SOL     OW96688   8.529   8.259   6.453
98264SOL    HW196689   8.440   8.276   6.486
98264SOL    HW296690   8.569   8.346   6.449
98265SOL     OW96691   5.191   3.314   1.401
98265SOL    HW196692   5.234   3.236   1.437
98265SOL    HW296693   5.255   3.384   1.409
98266SOL     OW96694   1.584   4.083   1.227
98266SOL    HW196695   1.613   4.160   1.276
98266SOL    HW296696   1.568   4.017   1.294
98267SOL     OW96697  11.039  14.429  13.254
98267SOL    HW196698  10.992  14.511  13.238
98267SOL    HW296699  11.065  14.398  13.167
98268SOL     OW96700  11.803   0.560  10.093
98268SOL    HW196701  11.753   0.639  10.071
98268SOL    HW296702  11.889   0.592  10.119
98269SOL     OW96703   3.992   0.758  10.231
98269SOL    HW196704   3.953   0.821  10.291
98269SOL    HW296705   4.008   0.681  10.285
98270SOL     OW96706  14.440  10.575   1.432
98270SOL    HW196707  14.534  10.594   1.422
98270SOL    HW296708  14.429  10.487   1.398
98271SOL     OW96709  13.695  13.733   0.559
98271SOL    HW196710  13.725  13.756   0.471
98271SOL    HW296711  13.601  13.714   0.548
98272SOL     OW96712  12.805   9.417  10.312
98272SOL    HW196713  12.882   9.410  10.256
98272SOL    HW296714  12.732   9.425  10.251
98273SOL     OW96715   9.920   7.334   5.338
98273SOL    HW196716   9.869   7.317   5.259
98273SOL    HW296717   9.902   7.259   5.395
98274SOL     OW96718  11.452   1.449   0.654
98274SOL    HW196719  11.474   1.419   0.742
98274SOL    HW296720  11.435   1.543   0.665
98275SOL     OW96721  10.390   6.614   6.327
98275SOL    HW196722  10.361   6.673   6.258
98275SOL    HW296723  10.309   6.586   6.370
98276SOL     OW96724   9.192   1.915  11.075
98276SOL    HW196725   9.283   1.923  11.046
98276SOL    HW296726   9.194   1.937  11.168
98277SOL     OW96727   0.482  12.396   7.360
98277SOL    HW196728   0.476  12.491   7.352
98277SOL    HW296729   0.547  12.371   7.294
98278SOL     OW96730   5.173   2.057   4.101
98278SOL    HW196731   5.251   2.075   4.047
98278SOL    HW296732   5.119   2.000   4.046
98279SOL     OW96733   8.208   5.034   1.673
98279SOL    HW196734   8.222   5.125   1.649
98279SOL    HW296735   8.123   5.012   1.635
98280SOL     OW96736   7.444  11.268   6.676
98280SOL    HW196737   7.425  11.343   6.619
98280SOL    HW296738   7.398  11.289   6.758
98281SOL     OW96739  13.748   1.481  11.570
98281SOL    HW196740  13.683   1.465  11.501
98281SOL    HW296741  13.736   1.409  11.631
98282SOL     OW96742   2.467   3.887   7.743
98282SOL    HW196743   2.558   3.907   7.724
98282SOL    HW296744   2.424   3.886   7.657
98283SOL     OW96745   7.259  11.807   9.417
98283SOL    HW196746   7.188  11.770   9.469
98283SOL    HW296747   7.299  11.732   9.374
98284SOL     OW96748   6.357  11.394  10.302
98284SOL    HW196749   6.381  11.471  10.355
98284SOL    HW296750   6.436  11.374  10.253
98285SOL     OW96751   4.190   6.435   2.317
98285SOL    HW196752   4.165   6.345   2.338
98285SOL    HW296753   4.221   6.431   2.227
98286SOL     OW96754   8.306  12.648   6.514
98286SOL    HW196755   8.287  12.617   6.425
98286SOL    HW296756   8.400  12.668   6.512
98287SOL     OW96757   2.790  11.250   8.719
98287SOL    HW196758   2.787  11.207   8.805
98287SOL    HW296759   2.816  11.340   8.738
98288SOL     OW96760  13.728   8.509   1.498
98288SOL    HW196761  13.644   8.555   1.490
98288SOL    HW296762  13.762   8.506   1.408
98289SOL     OW96763   2.446   8.749   8.521
98289SOL    HW196764   2.441   8.720   8.612
98289SOL    HW296765   2.495   8.831   8.526
98290SOL     OW96766   9.567  11.980   4.930
98290SOL    HW196767   9.492  12.003   4.875
98290SOL    HW296768   9.540  12.005   5.018
98291SOL     OW96769   8.557   1.208  13.652
98291SOL    HW196770   8.536   1.174  13.740
98291SOL    HW296771   8.520   1.297  13.652
98292SOL     OW96772   7.699   1.941   3.907
98292SOL    HW196773   7.645   2.019   3.893
98292SOL    HW296774   7.649   1.870   3.868
98293SOL     OW96775   3.108   0.565  11.859
98293SOL    HW196776   3.131   0.510  11.934
98293SOL    HW296777   3.057   0.508  11.802
98294SOL     OW96778   9.717  10.190   2.813
98294SOL    HW196779   9.786  10.219   2.872
98294SOL    HW296780   9.651  10.151   2.871
98295SOL     OW96781   7.782   8.057  10.054
98295SOL    HW196782   7.750   8.079   9.966
98295SOL    HW296783   7.710   8.082  10.112
98296SOL     OW96784   9.048   0.718   8.802
98296SOL    HW196785   9.072   0.631   8.834
98296SOL    HW296786   8.954   0.726   8.821
98297SOL     OW96787  14.021   5.909  11.391
98297SOL    HW196788  13.976   5.973  11.336
98297SOL    HW296789  13.964   5.899  11.467
98298SOL     OW96790   5.905  11.545   8.057
98298SOL    HW196791   5.978  11.527   8.117
98298SOL    HW296792   5.879  11.635   8.079
98299SOL     OW96793   2.433  11.755   1.204
98299SOL    HW196794   2.431  11.703   1.284
98299SOL    HW296795   2.345  11.745   1.167
98300SOL     OW96796  13.019  10.418   9.358
98300SOL    HW196797  13.052  10.473   9.428
98300SOL    HW296798  12.981  10.342   9.402
98301SOL     OW96799   1.301   8.178   5.926
98301SOL    HW196800   1.264   8.234   5.994
98301SOL    HW296801   1.229   8.123   5.898
98302SOL     OW96802  13.397  11.932   5.675
98302SOL    HW196803  13.372  11.865   5.739
98302SOL    HW296804  13.484  11.905   5.646
98303SOL     OW96805   4.835   3.792   1.246
98303SOL    HW196806   4.876   3.758   1.166
98303SOL    HW296807   4.759   3.735   1.260
98304SOL     OW96808  11.999   5.469   1.927
98304SOL    HW196809  11.958   5.386   1.905
98304SOL    HW296810  12.090   5.459   1.899
98305SOL     OW96811   4.940  11.128  10.271
98305SOL    HW196812   4.982  11.208  10.240
98305SOL    HW296813   4.853  11.156  10.299
98306SOL     OW96814   0.522   0.835   9.330
98306SOL    HW196815   0.490   0.843   9.240
98306SOL    HW296816   0.570   0.751   9.330
98307SOL     OW96817   8.185   4.512   5.056
98307SOL    HW196818   8.227   4.583   5.104
98307SOL    HW296819   8.252   4.482   4.994
98308SOL     OW96820  13.153   8.639   4.699
98308SOL    HW196821  13.145   8.608   4.789
98308SOL    HW296822  13.212   8.715   4.705
98309SOL     OW96823   6.179   2.800   1.387
98309SOL    HW196824   6.104   2.794   1.327
98309SOL    HW296825   6.256   2.804   1.331
98310SOL     OW96826   2.952   3.009   8.802
98310SOL    HW196827   2.899   2.956   8.742
98310SOL    HW296828   2.957   3.095   8.760
98311SOL     OW96829  12.982   3.395  14.564
98311SOL    HW196830  12.890   3.391  14.537
98311SOL    HW296831  12.994   3.320  14.621
98312SOL     OW96832   9.576   9.355   1.850
98312SOL    HW196833   9.588   9.411   1.927
98312SOL    HW296834   9.662   9.314   1.836
98313SOL     OW96835   0.880   5.060   4.261
98313SOL    HW196836   0.861   5.122   4.190
98313SOL    HW296837   0.914   4.982   4.216
98314SOL     OW96838   9.230   8.501  10.256
98314SOL    HW196839   9.318   8.465  10.266
98314SOL    HW296840   9.176   8.450  10.317
98315SOL     OW96841  13.431   6.590   8.231
98315SOL    HW196842  13.339   6.564   8.242
98315SOL    HW296843  13.453   6.559   8.143
98316SOL     OW96844   2.064   7.941  14.263
98316SOL    HW196845   2.048   8.035  14.260
98316SOL    HW296846   2.033   7.913  14.349
98317SOL     OW96847  12.274   5.248   2.997
98317SOL    HW196848  12.204   5.200   2.952
98317SOL    HW296849  12.343   5.182   3.010
98318SOL     OW96850   8.193   9.328  12.474
98318SOL    HW196851   8.234   9.293  12.553
98318SOL    HW296852   8.237   9.285  12.402
98319SOL     OW96853  10.153   6.999   5.811
98319SOL    HW196854  10.212   6.956   5.873
98319SOL    HW296855  10.211   7.032   5.742
98320SOL     OW96856   8.029   5.069   6.881
98320SOL    HW196857   8.029   5.044   6.974
98320SOL    HW296858   8.008   5.162   6.881
98321SOL     OW96859  14.036   1.900   2.825
98321SOL    HW196860  14.059   1.928   2.914
98321SOL    HW296861  14.120   1.885   2.782
98322SOL     OW96862  11.270   5.926   3.400
98322SOL    HW196863  11.314   5.885   3.325
98322SOL    HW296864  11.231   5.853   3.448
98323SOL     OW96865   6.426   3.958   7.897
98323SOL    HW196866   6.422   4.046   7.860
98323SOL    HW296867   6.401   3.901   7.825
98324SOL     OW96868   6.754   6.758  13.433
98324SOL    HW196869   6.806   6.829  13.471
98324SOL    HW296870   6.817   6.710  13.378
98325SOL     OW96871   6.045  14.016  11.222
98325SOL    HW196872   6.070  13.928  11.248
98325SOL    HW296873   5.963  14.005  11.173
98326SOL     OW96874  11.777   2.452  11.748
98326SOL    HW196875  11.844   2.509  11.711
98326SOL    HW296876  11.759   2.388  11.679
98327SOL     OW96877   4.860  11.815   1.652
98327SOL    HW196878   4.938  11.780   1.695
98327SOL    HW296879   4.889  11.897   1.611
98328SOL     OW96880   0.901  12.901   2.289
98328SOL    HW196881   0.961  12.826   2.295
98328SOL    HW296882   0.827  12.876   2.345
98329SOL     OW96883   6.664   3.311   6.582
98329SOL    HW196884   6.727   3.242   6.561
98329SOL    HW296885   6.709   3.392   6.558
98330SOL     OW96886   1.887   2.501  11.960
98330SOL    HW196887   1.795   2.527  11.954
98330SOL    HW296888   1.891   2.446  12.037
98331SOL     OW96889   1.511  10.894   6.970
98331SOL    HW196890   1.545  10.978   7.001
98331SOL    HW296891   1.506  10.903   6.875
98332SOL     OW96892  14.530  11.588  10.572
98332SOL    HW196893  14.537  11.679  10.544
98332SOL    HW296894  14.606  11.545  10.533
98333SOL     OW96895   2.593  11.742   5.631
98333SOL    HW196896   2.535  11.707   5.563
98333SOL    HW296897   2.606  11.833   5.607
98334SOL     OW96898   3.774   6.851   3.303
98334SOL    HW196899   3.779   6.859   3.398
98334SOL    HW296900   3.767   6.941   3.271
98335SOL     OW96901   2.260   1.721   3.758
98335SOL    HW196902   2.194   1.783   3.730
98335SOL    HW296903   2.328   1.727   3.691
98336SOL     OW96904   1.455   3.070  10.933
98336SOL    HW196905   1.494   2.994  10.888
98336SOL    HW296906   1.407   3.032  11.006
98337SOL     OW96907   6.432  14.601  12.420
98337SOL    HW196908   6.385  14.594  12.337
98337SOL    HW296909   6.364  14.622  12.484
98338SOL     OW96910   3.075  13.543   1.059
98338SOL    HW196911   3.024  13.506   0.987
98338SOL    HW296912   3.013  13.601   1.104
98339SOL     OW96913   5.745   2.241   8.740
98339SOL    HW196914   5.805   2.307   8.706
98339SOL    HW296915   5.690   2.218   8.666
98340SOL     OW96916   8.941   4.974   6.422
98340SOL    HW196917   8.929   5.032   6.498
98340SOL    HW296918   9.035   4.956   6.421
98341SOL     OW96919   3.160   1.288  10.618
98341SOL    HW196920   3.177   1.366  10.672
98341SOL    HW296921   3.065   1.275  10.625
98342SOL     OW96922  14.373   2.775   3.745
98342SOL    HW196923  14.355   2.718   3.819
98342SOL    HW296924  14.345   2.862   3.775
98343SOL     OW96925   3.695  14.606   1.309
98343SOL    HW196926   3.626  14.544   1.282
98343SOL    HW296927   3.677  14.685   1.259
98344SOL     OW96928   0.591  13.871   7.922
98344SOL    HW196929   0.579  13.813   7.998
98344SOL    HW296930   0.503  13.900   7.899
98345SOL     OW96931   2.693   3.235  10.470
98345SOL    HW196932   2.716   3.319  10.509
98345SOL    HW296933   2.744   3.232  10.388
98346SOL     OW96934   6.334  14.565  13.979
98346SOL    HW196935   6.285  14.582  14.059
98346SOL    HW296936   6.273  14.585  13.908
98347SOL     OW96937   0.967   2.854   9.060
98347SOL    HW196938   1.047   2.883   9.105
98347SOL    HW296939   0.911   2.820   9.129
98348SOL     OW96940   1.832  12.812   1.141
98348SOL    HW196941   1.831  12.908   1.141
98348SOL    HW296942   1.881  12.789   1.220
98349SOL     OW96943   0.268  11.461   2.446
98349SOL    HW196944   0.190  11.440   2.395
98349SOL    HW296945   0.298  11.376   2.480
98350SOL     OW96946   8.699  12.814   8.896
98350SOL    HW196947   8.651  12.762   8.961
98350SOL    HW296948   8.786  12.775   8.894
98351SOL     OW96949  11.807  13.356   2.567
98351SOL    HW196950  11.816  13.263   2.589
98351SOL    HW296951  11.741  13.389   2.628
98352SOL     OW96952  10.796   4.861  10.966
98352SOL    HW196953  10.774   4.913  11.043
98352SOL    HW296954  10.883   4.892  10.941
98353SOL     OW96955   5.280  14.722  13.452
98353SOL    HW196956   5.268  14.816  13.466
98353SOL    HW296957   5.340  14.695  13.521
98354SOL     OW96958   8.988   3.146   0.355
98354SOL    HW196959   9.027   3.212   0.298
98354SOL    HW296960   8.989   3.066   0.304
98355SOL     OW96961   5.174   1.568  10.448
98355SOL    HW196962   5.202   1.540  10.361
98355SOL    HW296963   5.178   1.489  10.502
98356SOL     OW96964   4.567  11.167   0.708
98356SOL    HW196965   4.658  11.158   0.735
98356SOL    HW296966   4.525  11.215   0.779
98357SOL     OW96967   9.491   3.848  10.977
98357SOL    HW196968   9.574   3.808  10.953
98357SOL    HW296969   9.443   3.778  11.022
98358SOL     OW96970   2.692   1.730  14.457
98358SOL    HW196971   2.657   1.655  14.409
98358SOL    HW296972   2.721   1.693  14.541
98359SOL     OW96973   7.814   0.814   9.952
98359SOL    HW196974   7.822   0.759   9.874
98359SOL    HW296975   7.851   0.898   9.925
98360SOL     OW96976   7.800  13.390   0.166
98360SOL    HW196977   7.793  13.334   0.089
98360SOL    HW296978   7.835  13.473   0.133
98361SOL     OW96979  10.522   3.867   2.721
98361SOL    HW196980  10.532   3.962   2.730
98361SOL    HW296981  10.475   3.856   2.638
98362SOL     OW96982   8.285   0.350   3.250
98362SOL    HW196983   8.240   0.342   3.166
98362SOL    HW296984   8.277   0.442   3.273
98363SOL     OW96985   0.706   0.986   3.980
98363SOL    HW196986   0.672   1.064   3.936
98363SOL    HW296987   0.642   0.966   4.048
98364SOL     OW96988   4.376   3.925   4.158
98364SOL    HW196989   4.365   3.849   4.101
98364SOL    HW296990   4.288   3.961   4.167
98365SOL     OW96991  11.553  10.198   4.677
98365SOL    HW196992  11.545  10.120   4.731
98365SOL    HW296993  11.624  10.178   4.615
98366SOL     OW96994   5.035   5.631  12.226
98366SOL    HW196995   4.941   5.647  12.238
98366SOL    HW296996   5.039   5.566  12.156
98367SOL     OW96997   8.298  10.015   4.955
98367SOL    HW196998   8.372   9.960   4.980
98367SOL    HW296999   8.234   9.953   4.919
98368SOL     OW97000   3.224   7.278   2.073
98368SOL    HW197001   3.288   7.248   2.009
98368SOL    HW297002   3.158   7.209   2.075
98369SOL     OW97003   8.614   0.646  11.855
98369SOL    HW197004   8.618   0.742  11.850
98369SOL    HW297005   8.676   0.624  11.925
98370SOL     OW97006  14.767  12.670   4.784
98370SOL    HW197007  14.764  12.702   4.874
98370SOL    HW297008  14.688  12.706   4.743
98371SOL     OW97009   7.132   2.468   9.690
98371SOL    HW197010   7.195   2.440   9.757
98371SOL    HW297011   7.063   2.402   9.693
98372SOL     OW97012  14.567   6.007   2.566
98372SOL    HW197013  14.545   6.066   2.493
98372SOL    HW297014  14.483   5.990   2.608
98373SOL     OW97015  14.645   1.271  10.549
98373SOL    HW197016  14.630   1.333  10.478
98373SOL    HW297017  14.738   1.251  10.544
98374SOL     OW97018  10.566   8.962   6.455
98374SOL    HW197019  10.481   8.989   6.421
98374SOL    HW297020  10.601   9.040   6.499
98375SOL     OW97021   6.586   8.072   5.914
98375SOL    HW197022   6.510   8.014   5.919
98375SOL    HW297023   6.551   8.160   5.927
98376SOL     OW97024  10.802   1.734  10.894
98376SOL    HW197025  10.761   1.709  10.977
98376SOL    HW297026  10.804   1.830  10.896
98377SOL     OW97027   4.100   4.683   0.303
98377SOL    HW197028   4.098   4.652   0.393
98377SOL    HW297029   4.110   4.778   0.311
98378SOL     OW97030   1.012   7.258   7.962
98378SOL    HW197031   0.960   7.259   7.882
98378SOL    HW297032   1.037   7.349   7.976
98379SOL     OW97033   6.250   2.570  14.788
98379SOL    HW197034   6.275   2.481  14.766
98379SOL    HW297035   6.320   2.601  14.846
98380SOL     OW97036   4.641  11.969   1.064
98380SOL    HW197037   4.679  11.892   1.105
98380SOL    HW297038   4.654  12.039   1.129
98381SOL     OW97039   9.632   4.532   2.991
98381SOL    HW197040   9.631   4.614   2.941
98381SOL    HW297041   9.565   4.478   2.951
98382SOL     OW97042  12.031   2.416   9.158
98382SOL    HW197043  11.989   2.337   9.193
98382SOL    HW297044  11.960   2.480   9.154
98383SOL     OW97045  12.234   6.003   5.962
98383SOL    HW197046  12.247   5.972   6.051
98383SOL    HW297047  12.142   5.987   5.944
98384SOL     OW97048   9.963   1.314   5.271
98384SOL    HW197049  10.006   1.392   5.237
98384SOL    HW297050   9.871   1.340   5.281
98385SOL     OW97051   1.703  12.887   5.528
98385SOL    HW197052   1.755  12.947   5.582
98385SOL    HW297053   1.710  12.922   5.440
98386SOL     OW97054   2.440   6.297  14.547
98386SOL    HW197055   2.388   6.315  14.469
98386SOL    HW297056   2.470   6.207  14.536
98387SOL     OW97057   9.840  10.098   8.854
98387SOL    HW197058   9.801  10.052   8.929
98387SOL    HW297059   9.771  10.156   8.822
98388SOL     OW97060  12.302   6.499   2.984
98388SOL    HW197061  12.251   6.429   3.023
98388SOL    HW297062  12.238   6.550   2.934
98389SOL     OW97063  10.088   2.720  13.646
98389SOL    HW197064  10.065   2.628  13.663
98389SOL    HW297065  10.181   2.718  13.625
98390SOL     OW97066   1.169   7.440   8.372
98390SOL    HW197067   1.101   7.410   8.311
98390SOL    HW297068   1.192   7.361   8.421
98391SOL     OW97069   3.745  11.754   5.379
98391SOL    HW197070   3.783  11.666   5.380
98391SOL    HW297071   3.667  11.746   5.325
98392SOL     OW97072   2.582  13.612   9.933
98392SOL    HW197073   2.534  13.693   9.915
98392SOL    HW297074   2.671  13.641   9.955
98393SOL     OW97075   3.824  12.424  11.658
98393SOL    HW197076   3.763  12.493  11.683
98393SOL    HW297077   3.894  12.430  11.723
98394SOL     OW97078   0.723  10.017   9.271
98394SOL    HW197079   0.704  10.051   9.184
98394SOL    HW297080   0.639   9.980   9.301
98395SOL     OW97081   9.879   3.006   1.588
98395SOL    HW197082   9.884   3.101   1.575
98395SOL    HW297083   9.828   2.994   1.668
98396SOL     OW97084   6.119   2.880   6.560
98396SOL    HW197085   6.062   2.956   6.547
98396SOL    HW297086   6.059   2.806   6.569
98397SOL     OW97087   5.939   4.649  14.487
98397SOL    HW197088   5.993   4.597  14.547
98397SOL    HW297089   5.849   4.631  14.514
98398SOL     OW97090   0.706   1.001  13.260
98398SOL    HW197091   0.745   1.085  13.286
98398SOL    HW297092   0.629   1.024  13.209
98399SOL     OW97093  14.615   1.055   9.769
98399SOL    HW197094  14.688   1.116   9.773
98399SOL    HW297095  14.651   0.971   9.800
98400SOL     OW97096   9.637  13.762  10.770
98400SOL    HW197097   9.585  13.822  10.715
98400SOL    HW297098   9.708  13.816  10.803
98401SOL     OW97099   5.333   4.804  14.842
98401SOL    HW197100   5.393   4.730  14.830
98401SOL    HW297101   5.388   4.875  14.874
98402SOL     OW97102   3.536  12.359   6.058
98402SOL    HW197103   3.511  12.281   6.009
98402SOL    HW297104   3.473  12.426   6.030
98403SOL     OW97105   6.108   1.802   4.484
98403SOL    HW197106   6.110   1.742   4.559
98403SOL    HW297107   6.025   1.782   4.440
98404SOL     OW97108   1.838  12.508  14.734
98404SOL    HW197109   1.920  12.501  14.685
98404SOL    HW297110   1.849  12.587  14.787
98405SOL     OW97111  13.722   0.713   1.845
98405SOL    HW197112  13.639   0.760   1.846
98405SOL    HW297113  13.775   0.761   1.781
98406SOL     OW97114  14.207  12.011   3.745
98406SOL    HW197115  14.189  12.105   3.743
98406SOL    HW297116  14.219  11.987   3.653
98407SOL     OW97117  12.247   4.878   1.041
98407SOL    HW197118  12.191   4.953   1.059
98407SOL    HW297119  12.336   4.913   1.046
98408SOL     OW97120   7.122   9.883  12.479
98408SOL    HW197121   7.176   9.806  12.493
98408SOL    HW297122   7.036   9.848  12.455
98409SOL     OW97123  13.407   7.909   0.357
98409SOL    HW197124  13.432   7.997   0.385
98409SOL    HW297125  13.352   7.876   0.429
98410SOL     OW97126   8.776   9.928   1.725
98410SOL    HW197127   8.861   9.935   1.767
98410SOL    HW297128   8.718   9.983   1.778
98411SOL     OW97129   0.384   8.832   7.164
98411SOL    HW197130   0.353   8.804   7.250
98411SOL    HW297131   0.374   8.927   7.165
98412SOL     OW97132   3.450   5.457   6.704
98412SOL    HW197133   3.381   5.398   6.674
98412SOL    HW297134   3.404   5.533   6.739
98413SOL     OW97135  11.884  12.496   3.438
98413SOL    HW197136  11.823  12.557   3.480
98413SOL    HW297137  11.830  12.422   3.411
98414SOL     OW97138  12.284  11.612   5.632
98414SOL    HW197139  12.288  11.526   5.589
98414SOL    HW297140  12.211  11.657   5.589
98415SOL     OW97141   1.935   8.353   3.821
98415SOL    HW197142   1.915   8.286   3.755
98415SOL    HW297143   1.982   8.306   3.889
98416SOL     OW97144   1.981  11.628   4.379
98416SOL    HW197145   1.981  11.714   4.421
98416SOL    HW297146   2.016  11.645   4.291
98417SOL     OW97147   1.736   6.052  10.428
98417SOL    HW197148   1.692   6.124  10.384
98417SOL    HW297149   1.726   6.072  10.521
98418SOL     OW97150   5.036   3.955   2.933
98418SOL    HW197151   4.989   4.014   2.991
98418SOL    HW297152   5.012   3.983   2.845
98419SOL     OW97153  11.295   7.200   7.622
98419SOL    HW197154  11.265   7.150   7.698
98419SOL    HW297155  11.217   7.209   7.567
98420SOL     OW97156   0.528   6.136   4.937
98420SOL    HW197157   0.552   6.048   4.907
98420SOL    HW297158   0.488   6.121   5.023
98421SOL     OW97159   3.179  11.037   4.532
98421SOL    HW197160   3.110  10.977   4.504
98421SOL    HW297161   3.176  11.035   4.628
98422SOL     OW97162  11.999   5.968   7.365
98422SOL    HW197163  12.074   6.028   7.368
98422SOL    HW297164  11.939   6.008   7.302
98423SOL     OW97165   0.704   9.480  14.123
98423SOL    HW197166   0.770   9.449  14.185
98423SOL    HW297167   0.661   9.400  14.092
98424SOL     OW97168   3.370   3.894   3.406
98424SOL    HW197169   3.432   3.900   3.479
98424SOL    HW297170   3.317   3.817   3.426
98425SOL     OW97171   1.843   4.178   8.791
98425SOL    HW197172   1.881   4.266   8.789
98425SOL    HW297173   1.873   4.141   8.875
98426SOL     OW97174  10.959  12.553   6.519
98426SOL    HW197175  10.931  12.534   6.429
98426SOL    HW297176  11.053  12.537   6.519
98427SOL     OW97177  12.873   0.282   6.017
98427SOL    HW197178  12.901   0.200   6.058
98427SOL    HW297179  12.935   0.347   6.049
98428SOL     OW97180   8.402   0.167   0.147
98428SOL    HW197181   8.497   0.155   0.141
98428SOL    HW297182   8.388   0.261   0.133
98429SOL     OW97183   8.626   0.865   8.608
98429SOL    HW197184   8.635   0.857   8.513
98429SOL    HW297185   8.707   0.907   8.636
98430SOL     OW97186   8.758  10.417  12.488
98430SOL    HW197187   8.729  10.331  12.519
98430SOL    HW297188   8.854  10.413  12.492
98431SOL     OW97189   6.321   2.743   0.675
98431SOL    HW197190   6.240   2.794   0.679
98431SOL    HW297191   6.327   2.702   0.762
98432SOL     OW97192   6.956  12.850  12.383
98432SOL    HW197193   6.907  12.905  12.322
98432SOL    HW297194   7.045  12.851  12.349
98433SOL     OW97195   6.093   8.241   2.119
98433SOL    HW197196   6.008   8.226   2.160
98433SOL    HW297197   6.124   8.154   2.093
98434SOL     OW97198   2.325  11.337   6.971
98434SOL    HW197199   2.328  11.406   6.904
98434SOL    HW297200   2.235  11.306   6.968
98435SOL     OW97201  14.413   7.189   6.201
98435SOL    HW197202  14.506   7.183   6.224
98435SOL    HW297203  14.367   7.190   6.285
98436SOL     OW97204   4.466   2.696   6.964
98436SOL    HW197205   4.398   2.637   6.930
98436SOL    HW297206   4.425   2.782   6.964
98437SOL     OW97207   1.508   7.291  11.412
98437SOL    HW197208   1.414   7.294  11.396
98437SOL    HW297209   1.522   7.346  11.489
98438SOL     OW97210   1.598   3.028   9.192
98438SOL    HW197211   1.621   2.974   9.267
98438SOL    HW297212   1.654   3.105   9.199
98439SOL     OW97213  10.219   5.484  12.417
98439SOL    HW197214  10.306   5.461  12.385
98439SOL    HW297215  10.234   5.521  12.504
98440SOL     OW97216  13.251   0.742  10.315
98440SOL    HW197217  13.271   0.807  10.248
98440SOL    HW297218  13.297   0.773  10.393
98441SOL     OW97219   1.683   5.645   4.346
98441SOL    HW197220   1.590   5.667   4.341
98441SOL    HW297221   1.719   5.708   4.409
98442SOL     OW97222  12.157   0.301   0.990
98442SOL    HW197223  12.201   0.381   0.961
98442SOL    HW297224  12.075   0.299   0.942
98443SOL     OW97225   4.557  14.350  12.620
98443SOL    HW197226   4.652  14.354  12.622
98443SOL    HW297227   4.534  14.289  12.689
98444SOL     OW97228  11.896   8.787   5.651
98444SOL    HW197229  11.988   8.795   5.678
98444SOL    HW297230  11.859   8.722   5.711
98445SOL     OW97231  12.524   6.664   2.316
98445SOL    HW197232  12.464   6.717   2.264
98445SOL    HW297233  12.608   6.708   2.309
98446SOL     OW97234  14.185   0.649   2.528
98446SOL    HW197235  14.109   0.631   2.471
98446SOL    HW297236  14.192   0.571   2.583
98447SOL     OW97237  11.210  13.880   8.466
98447SOL    HW197238  11.189  13.967   8.432
98447SOL    HW297239  11.128  13.848   8.504
98448SOL     OW97240  14.079  10.998  12.215
98448SOL    HW197241  14.031  11.073  12.180
98448SOL    HW297242  14.050  10.924  12.162
98449SOL     OW97243   1.727   9.009   3.307
98449SOL    HW197244   1.661   9.053   3.361
98449SOL    HW297245   1.688   8.925   3.284
98450SOL     OW97246   8.911  11.253   4.863
98450SOL    HW197247   8.844  11.207   4.914
98450SOL    HW297248   8.988  11.254   4.920
98451SOL     OW97249   6.831  14.673  13.845
98451SOL    HW197250   6.876  14.665  13.929
98451SOL    HW297251   6.750  14.719  13.866
98452SOL     OW97252   9.476   8.160   6.717
98452SOL    HW197253   9.506   8.075   6.685
98452SOL    HW297254   9.387   8.144   6.747
98453SOL     OW97255   7.311  10.974   4.774
98453SOL    HW197256   7.385  11.000   4.720
98453SOL    HW297257   7.310  10.879   4.770
98454SOL     OW97258   9.681  14.671   7.960
98454SOL    HW197259   9.628  14.702   8.033
98454SOL    HW297260   9.618  14.643   7.894
98455SOL     OW97261   0.799   1.386  13.155
98455SOL    HW197262   0.863   1.456  13.172
98455SOL    HW297263   0.835   1.310  13.201
98456SOL     OW97264   7.573   6.957   8.560
98456SOL    HW197265   7.530   6.915   8.485
98456SOL    HW297266   7.620   6.886   8.604
98457SOL     OW97267   3.197   6.564  10.950
98457SOL    HW197268   3.275   6.569  10.896
98457SOL    HW297269   3.202   6.477  10.992
98458SOL     OW97270   6.016  10.991  10.126
98458SOL    HW197271   5.930  11.032  10.121
98458SOL    HW297272   6.020  10.953  10.214
98459SOL     OW97273   4.637   2.144   0.673
98459SOL    HW197274   4.632   2.176   0.582
98459SOL    HW297275   4.725   2.106   0.679
98460SOL     OW97276  13.579  10.951  14.056
98460SOL    HW197277  13.536  10.882  14.107
98460SOL    HW297278  13.507  11.004  14.022
98461SOL     OW97279   1.255   7.856  12.614
98461SOL    HW197280   1.266   7.942  12.573
98461SOL    HW297281   1.325   7.803  12.576
98462SOL     OW97282   3.908  11.169   4.495
98462SOL    HW197283   3.984  11.152   4.440
98462SOL    HW297284   3.912  11.101   4.563
98463SOL     OW97285   2.145  13.692  10.153
98463SOL    HW197286   2.063  13.739  10.172
98463SOL    HW297287   2.211  13.762  10.146
98464SOL     OW97288  14.479   6.762   5.251
98464SOL    HW197289  14.571   6.756   5.228
98464SOL    HW297290  14.443   6.829   5.193
98465SOL     OW97291   4.691   5.093   7.204
98465SOL    HW197292   4.718   5.063   7.291
98465SOL    HW297293   4.749   5.167   7.185
98466SOL     OW97294   0.123   4.615   8.960
98466SOL    HW197295   0.208   4.601   8.918
98466SOL    HW297296   0.092   4.698   8.923
98467SOL     OW97297  12.320   3.877  11.692
98467SOL    HW197298  12.390   3.883  11.756
98467SOL    HW297299  12.359   3.830  11.618
98468SOL     OW97300   7.881  11.162   0.433
98468SOL    HW197301   7.871  11.070   0.456
98468SOL    HW297302   7.948  11.163   0.364
98469SOL     OW97303  13.463   1.275   3.372
98469SOL    HW197304  13.445   1.284   3.465
98469SOL    HW297305  13.419   1.194   3.347
98470SOL     OW97306   2.885   4.742   9.041
98470SOL    HW197307   2.799   4.737   9.082
98470SOL    HW297308   2.947   4.723   9.111
98471SOL     OW97309  11.540  10.788   1.016
98471SOL    HW197310  11.478  10.860   1.006
98471SOL    HW297311  11.484  10.711   1.031
98472SOL     OW97312   2.189  13.424   8.240
98472SOL    HW197313   2.145  13.488   8.184
98472SOL    HW297314   2.282  13.446   8.233
98473SOL     OW97315   4.631  12.226   3.194
98473SOL    HW197316   4.588  12.208   3.110
98473SOL    HW297317   4.614  12.318   3.211
98474SOL     OW97318   7.075   7.689   4.991
98474SOL    HW197319   7.148   7.725   4.941
98474SOL    HW297320   7.117   7.635   5.059
98475SOL     OW97321   2.109   5.804  12.014
98475SOL    HW197322   2.143   5.799  11.925
98475SOL    HW297323   2.170   5.861  12.060
98476SOL     OW97324   4.699   8.758   3.849
98476SOL    HW197325   4.666   8.724   3.766
98476SOL    HW297326   4.714   8.851   3.833
98477SOL     OW97327   8.834   4.141   7.393
98477SOL    HW197328   8.873   4.217   7.349
98477SOL    HW297329   8.759   4.177   7.440
98478SOL     OW97330  10.333  11.782  11.312
98478SOL    HW197331  10.292  11.735  11.240
98478SOL    HW297332  10.276  11.766  11.387
98479SOL     OW97333   3.978   0.447   7.395
98479SOL    HW197334   3.993   0.510   7.465
98479SOL    HW297335   4.063   0.436   7.353
98480SOL     OW97336   7.189   5.290   8.380
98480SOL    HW197337   7.271   5.252   8.409
98480SOL    HW297338   7.201   5.385   8.391
98481SOL     OW97339  14.756   6.966   1.370
98481SOL    HW197340  14.683   7.022   1.400
98481SOL    HW297341  14.714   6.883   1.349
98482SOL     OW97342   1.972  13.326   6.402
98482SOL    HW197343   1.889  13.305   6.445
98482SOL    HW297344   1.947  13.375   6.324
98483SOL     OW97345   5.538   5.939  12.765
98483SOL    HW197346   5.563   5.874  12.830
98483SOL    HW297347   5.587   5.915  12.687
98484SOL     OW97348  11.703   9.380   0.851
98484SOL    HW197349  11.770   9.377   0.920
98484SOL    HW297350  11.652   9.459   0.871
98485SOL     OW97351  11.441   7.979  10.305
98485SOL    HW197352  11.459   8.068  10.337
98485SOL    HW297353  11.368   7.990  10.245
98486SOL     OW97354  12.050   6.348   6.180
98486SOL    HW197355  11.959   6.364   6.205
98486SOL    HW297356  12.093   6.324   6.261
98487SOL     OW97357  12.913   3.731   0.013
98487SOL    HW197358  12.984   3.792  14.874
98487SOL    HW297359  12.902   3.679  14.816
98488SOL     OW97360   7.093   6.441   0.407
98488SOL    HW197361   7.124   6.371   0.349
98488SOL    HW297362   7.169   6.497   0.420
98489SOL     OW97363   3.561   0.277  13.243
98489SOL    HW197364   3.502   0.218  13.196
98489SOL    HW297365   3.580   0.347  13.181
98490SOL     OW97366   0.446   1.741  13.352
98490SOL    HW197367   0.450   1.661  13.299
98490SOL    HW297368   0.442   1.812  13.287
98491SOL     OW97369  14.503   1.389   7.865
98491SOL    HW197370  14.551   1.312   7.897
98491SOL    HW297371  14.566   1.435   7.810
98492SOL     OW97372   7.912   0.411   2.685
98492SOL    HW197373   7.921   0.453   2.771
98492SOL    HW297374   7.997   0.426   2.643
98493SOL     OW97375   0.057   3.503  14.450
98493SOL    HW197376   0.055   3.599  14.456
98493SOL    HW297377   0.093   3.475  14.534
98494SOL     OW97378   4.797   7.271  11.752
98494SOL    HW197379   4.776   7.274  11.659
98494SOL    HW297380   4.892   7.275  11.756
98495SOL     OW97381  11.033  10.207  13.690
98495SOL    HW197382  11.117  10.170  13.719
98495SOL    HW297383  11.057  10.290  13.649
98496SOL     OW97384  10.908  10.285   5.339
98496SOL    HW197385  10.981  10.255   5.393
98496SOL    HW297386  10.831  10.276   5.396
98497SOL     OW97387  14.820   9.518  13.297
98497SOL    HW197388  14.734   9.537  13.258
98497SOL    HW297389  14.803   9.516  13.391
98498SOL     OW97390   5.438   9.995   5.549
98498SOL    HW197391   5.439  10.075   5.495
98498SOL    HW297392   5.404   9.927   5.491
98499SOL     OW97393   2.241   6.466   2.216
98499SOL    HW197394   2.327   6.431   2.191
98499SOL    HW297395   2.245   6.472   2.312
98500SOL     OW97396  12.806   2.004   9.552
98500SOL    HW197397  12.851   1.985   9.635
98500SOL    HW297398  12.845   2.086   9.522
98501SOL     OW97399   6.273   9.840   6.618
98501SOL    HW197400   6.262   9.752   6.582
98501SOL    HW297401   6.340   9.881   6.563
98502SOL     OW97402  12.670  12.670   8.733
98502SOL    HW197403  12.699  12.585   8.699
98502SOL    HW297404  12.732  12.733   8.697
98503SOL     OW97405  12.612  10.586   0.483
98503SOL    HW197406  12.619  10.633   0.400
98503SOL    HW297407  12.569  10.503   0.461
98504SOL     OW97408  11.140   9.913   6.720
98504SOL    HW197409  11.218   9.961   6.747
98504SOL    HW297410  11.167   9.821   6.720
98505SOL     OW97411   8.697  12.029   7.569
98505SOL    HW197412   8.661  11.977   7.497
98505SOL    HW297413   8.673  11.981   7.648
98506SOL     OW97414  10.281   5.177   1.473
98506SOL    HW197415  10.300   5.247   1.535
98506SOL    HW297416  10.311   5.211   1.389
98507SOL     OW97417   4.210   3.318   3.238
98507SOL    HW197418   4.136   3.377   3.247
98507SOL    HW297419   4.199   3.254   3.309
98508SOL     OW97420   6.653   3.115  12.941
98508SOL    HW197421   6.567   3.073  12.951
98508SOL    HW297422   6.698   3.096  13.023
98509SOL     OW97423   5.662  10.195   9.327
98509SOL    HW197424   5.653  10.125   9.262
98509SOL    HW297425   5.598  10.261   9.300
98510SOL     OW97426   8.984  10.380   6.783
98510SOL    HW197427   8.907  10.349   6.831
98510SOL    HW297428   9.040  10.303   6.775
98511SOL     OW97429   1.774  10.194  10.598
98511SOL    HW197430   1.816  10.109  10.609
98511SOL    HW297431   1.688  10.184  10.639
98512SOL     OW97432  12.123   5.020   4.145
98512SOL    HW197433  12.217   5.011   4.156
98512SOL    HW297434  12.087   4.936   4.173
98513SOL     OW97435   8.127   0.358   0.136
98513SOL    HW197436   8.139   0.439   0.186
98513SOL    HW297437   8.159   0.289   0.195
98514SOL     OW97438   1.200  11.766   4.695
98514SOL    HW197439   1.125  11.816   4.726
98514SOL    HW297440   1.167  11.718   4.618
98515SOL     OW97441   1.025  14.203   2.099
98515SOL    HW197442   1.104  14.166   2.059
98515SOL    HW297443   1.027  14.171   2.189
98516SOL     OW97444   3.200   3.617   2.300
98516SOL    HW197445   3.216   3.619   2.206
98516SOL    HW297446   3.179   3.708   2.322
98517SOL     OW97447   3.673   9.008   4.627
98517SOL    HW197448   3.676   9.071   4.699
98517SOL    HW297449   3.628   8.931   4.663
98518SOL     OW97450   4.436   1.398   5.654
98518SOL    HW197451   4.410   1.479   5.610
98518SOL    HW297452   4.357   1.344   5.654
98519SOL     OW97453   7.153   9.587   4.082
98519SOL    HW197454   7.126   9.583   3.991
98519SOL    HW297455   7.087   9.537   4.129
98520SOL     OW97456   1.736   9.481   7.154
98520SOL    HW197457   1.727   9.553   7.091
98520SOL    HW297458   1.820   9.441   7.132
98521SOL     OW97459   9.077   4.712   1.826
98521SOL    HW197460   9.125   4.747   1.751
98521SOL    HW297461   9.046   4.626   1.797
98522SOL     OW97462  14.274   0.034   0.345
98522SOL    HW197463  14.309   0.044   0.434
98522SOL    HW297464  14.207  14.849   0.353
98523SOL     OW97465   5.542   0.612   3.492
98523SOL    HW197466   5.560   0.655   3.576
98523SOL    HW297467   5.623   0.567   3.471
98524SOL     OW97468  14.811   6.869   4.031
98524SOL    HW197469  14.764   6.947   4.002
98524SOL    HW297470  14.768   6.797   3.985
98525SOL     OW97471   1.074  11.913   5.314
98525SOL    HW197472   1.165  11.926   5.288
98525SOL    HW297473   1.024  11.965   5.252
98526SOL     OW97474  14.262   5.230   7.696
98526SOL    HW197475  14.238   5.138   7.702
98526SOL    HW297476  14.179   5.276   7.685
98527SOL     OW97477   3.278   7.796   8.558
98527SOL    HW197478   3.366   7.760   8.543
98527SOL    HW297479   3.284   7.840   8.643
98528SOL     OW97480   1.795   7.450  13.255
98528SOL    HW197481   1.874   7.411  13.217
98528SOL    HW297482   1.816   7.543  13.264
98529SOL     OW97483   6.751  12.988  10.227
98529SOL    HW197484   6.766  12.894  10.233
98529SOL    HW297485   6.664  12.996  10.187
98530SOL     OW97486   9.377  11.858   3.030
98530SOL    HW197487   9.444  11.822   2.971
98530SOL    HW297488   9.313  11.897   2.971
98531SOL     OW97489  13.521   2.864   9.368
98531SOL    HW197490  13.511   2.910   9.451
98531SOL    HW297491  13.431   2.848   9.339
98532SOL     OW97492  14.658   6.332  12.541
98532SOL    HW197493  14.736   6.280  12.523
98532SOL    HW297494  14.602   6.276  12.595
98533SOL     OW97495   6.283   0.436   6.659
98533SOL    HW197496   6.235   0.518   6.648
98533SOL    HW297497   6.341   0.431   6.583
98534SOL     OW97498  12.604   9.145   9.817
98534SOL    HW197499  12.687   9.105   9.791
98534SOL    HW297500  12.624   9.238   9.827
98535SOL     OW97501  13.904   6.681   9.015
98535SOL    HW197502  13.905   6.760   8.960
98535SOL    HW297503  13.981   6.632   8.988
98536SOL     OW97504   1.481  11.032  12.989
98536SOL    HW197505   1.573  11.057  12.979
98536SOL    HW297506   1.461  11.053  13.080
98537SOL     OW97507   6.173   0.523  13.263
98537SOL    HW197508   6.259   0.508  13.225
98537SOL    HW297509   6.117   0.546  13.189
98538SOL     OW97510   6.164  14.221  12.539
98538SOL    HW197511   6.102  14.294  12.535
98538SOL    HW297512   6.201  14.216  12.451
98539SOL     OW97513  13.974   8.464   8.340
98539SOL    HW197514  13.994   8.371   8.328
98539SOL    HW297515  14.028   8.491   8.414
98540SOL     OW97516   5.890   6.966   9.299
98540SOL    HW197517   5.928   6.893   9.250
98540SOL    HW297518   5.797   6.962   9.280
98541SOL     OW97519   0.415  10.739   0.272
98541SOL    HW197520   0.451  10.651   0.286
98541SOL    HW297521   0.476  10.780   0.211
98542SOL     OW97522  10.225   7.368   3.554
98542SOL    HW197523  10.205   7.427   3.627
98542SOL    HW297524  10.261   7.290   3.596
98543SOL     OW97525   7.003  13.741   5.724
98543SOL    HW197526   7.094  13.746   5.754
98543SOL    HW297527   6.960  13.815   5.767
98544SOL     OW97528   3.259   8.770  12.971
98544SOL    HW197529   3.335   8.808  12.927
98544SOL    HW297530   3.198   8.843  12.983
98545SOL     OW97531   6.348  10.007   3.205
98545SOL    HW197532   6.346  10.101   3.222
98545SOL    HW297533   6.431   9.992   3.159
98546SOL     OW97534   9.973   5.626  13.972
98546SOL    HW197535   9.884   5.613  13.939
98546SOL    HW297536  10.021   5.665  13.898
98547SOL     OW97537   5.284  12.070  13.863
98547SOL    HW197538   5.363  12.119  13.839
98547SOL    HW297539   5.296  12.051  13.956
98548SOL     OW97540   3.469  12.351   4.675
98548SOL    HW197541   3.561  12.331   4.688
98548SOL    HW297542   3.445  12.302   4.596
98549SOL     OW97543   2.537   1.800  10.416
98549SOL    HW197544   2.621   1.769  10.450
98549SOL    HW297545   2.474   1.732  10.442
98550SOL     OW97546   8.914   3.375   4.107
98550SOL    HW197547   8.909   3.470   4.105
98550SOL    HW297548   8.882   3.351   4.194
98551SOL     OW97549   0.315  11.073   9.620
98551SOL    HW197550   0.343  11.096   9.531
98551SOL    HW297551   0.230  11.030   9.608
98552SOL     OW97552  14.229  11.679   3.578
98552SOL    HW197553  14.318  11.705   3.603
98552SOL    HW297554  14.172  11.741   3.624
98553SOL     OW97555  14.494  13.087   5.651
98553SOL    HW197556  14.514  13.004   5.695
98553SOL    HW297557  14.417  13.067   5.598
98554SOL     OW97558   7.848   1.600   5.662
98554SOL    HW197559   7.932   1.555   5.654
98554SOL    HW297560   7.835   1.642   5.577
98555SOL     OW97561   2.246   6.108   9.867
98555SOL    HW197562   2.278   6.189   9.907
98555SOL    HW297563   2.251   6.124   9.773
98556SOL     OW97564  14.643  11.378   5.273
98556SOL    HW197565  14.649  11.442   5.344
98556SOL    HW297566  14.551  11.382   5.245
98557SOL     OW97567   9.109  12.530   4.285
98557SOL    HW197568   9.104  12.602   4.223
98557SOL    HW297569   9.190  12.484   4.262
98558SOL     OW97570   0.172   5.672   7.957
98558SOL    HW197571   0.082   5.703   7.967
98558SOL    HW297572   0.223   5.752   7.941
98559SOL     OW97573  13.308   5.512   5.478
98559SOL    HW197574  13.229   5.478   5.519
98559SOL    HW297575  13.321   5.457   5.401
98560SOL     OW97576   4.860  10.278   9.763
98560SOL    HW197577   4.818  10.364   9.772
98560SOL    HW297578   4.790  10.220   9.734
98561SOL     OW97579  10.155   5.686   6.382
98561SOL    HW197580  10.076   5.741   6.385
98561SOL    HW297581  10.129   5.606   6.426
98562SOL     OW97582   9.988   3.822   3.612
98562SOL    HW197583  10.006   3.773   3.532
98562SOL    HW297584   9.956   3.756   3.674
98563SOL     OW97585   1.343   6.715  12.552
98563SOL    HW197586   1.250   6.723  12.572
98563SOL    HW297587   1.346   6.659  12.474
98564SOL     OW97588  13.729   2.565   3.857
98564SOL    HW197589  13.662   2.624   3.820
98564SOL    HW297590  13.787   2.624   3.905
98565SOL     OW97591   9.671  12.832   5.460
98565SOL    HW197592   9.660  12.854   5.553
98565SOL    HW297593   9.596  12.776   5.440
98566SOL     OW97594   2.509  12.766   7.411
98566SOL    HW197595   2.552  12.747   7.494
98566SOL    HW297596   2.511  12.683   7.364
98567SOL     OW97597  14.723  13.933  14.176
98567SOL    HW197598  14.695  14.006  14.120
98567SOL    HW297599  14.805  13.903  14.136
98568SOL     OW97600   0.124   7.748   4.482
98568SOL    HW197601   0.083   7.728   4.398
98568SOL    HW297602   0.053   7.787   4.534
98569SOL     OW97603   0.354   0.066   8.666
98569SOL    HW197604   0.332   0.135   8.602
98569SOL    HW297605   0.278   0.061   8.723
98570SOL     OW97606  12.012   6.891   8.868
98570SOL    HW197607  12.009   6.808   8.914
98570SOL    HW297608  11.927   6.897   8.824
98571SOL     OW97609   8.331   0.160   4.439
98571SOL    HW197610   8.369   0.205   4.515
98571SOL    HW297611   8.385   0.190   4.366
98572SOL     OW97612   9.812   4.341   2.451
98572SOL    HW197613   9.790   4.301   2.536
98572SOL    HW297614   9.904   4.367   2.461
98573SOL     OW97615   1.549   5.495  14.081
98573SOL    HW197616   1.590   5.419  14.123
98573SOL    HW297617   1.605   5.514  14.006
98574SOL     OW97618   4.830   2.591   4.424
98574SOL    HW197619   4.854   2.526   4.357
98574SOL    HW297620   4.836   2.675   4.379
98575SOL     OW97621   7.646  14.665   7.419
98575SOL    HW197622   7.601  14.592   7.463
98575SOL    HW297623   7.602  14.743   7.452
98576SOL     OW97624   7.649  14.113   7.813
98576SOL    HW197625   7.695  14.175   7.757
98576SOL    HW297626   7.625  14.164   7.890
98577SOL     OW97627   6.690   9.367   8.500
98577SOL    HW197628   6.625   9.299   8.518
98577SOL    HW297629   6.639   9.446   8.484
98578SOL     OW97630   8.428   0.471   8.994
98578SOL    HW197631   8.424   0.396   8.935
98578SOL    HW297632   8.434   0.547   8.936
98579SOL     OW97633   6.345   2.201   6.638
98579SOL    HW197634   6.257   2.201   6.600
98579SOL    HW297635   6.337   2.254   6.717
98580SOL     OW97636  13.547   0.185   1.970
98580SOL    HW197637  13.457   0.179   2.001
98580SOL    HW297638  13.574   0.274   1.991
98581SOL     OW97639  12.174   0.620   5.370
98581SOL    HW197640  12.120   0.661   5.437
98581SOL    HW297641  12.245   0.579   5.418
98582SOL     OW97642   5.753   2.885   5.336
98582SOL    HW197643   5.773   2.934   5.415
98582SOL    HW297644   5.678   2.830   5.360
98583SOL     OW97645   2.757   9.924   5.474
98583SOL    HW197646   2.800   9.924   5.560
98583SOL    HW297647   2.700   9.847   5.476
98584SOL     OW97648   8.082  11.683  13.166
98584SOL    HW197649   8.095  11.777  13.174
98584SOL    HW297650   8.073  11.668  13.072
98585SOL     OW97651   0.725   6.230   1.779
98585SOL    HW197652   0.742   6.323   1.792
98585SOL    HW297653   0.726   6.192   1.867
98586SOL     OW97654  12.896   0.392   0.027
98586SOL    HW197655  12.866   0.317  14.858
98586SOL    HW297656  12.853   0.382   0.112
98587SOL     OW97657  12.405  14.419  13.345
98587SOL    HW197658  12.360  14.335  13.343
98587SOL    HW297659  12.466  14.412  13.419
98588SOL     OW97660   8.469   7.228   9.894
98588SOL    HW197661   8.548   7.177   9.910
98588SOL    HW297662   8.426   7.234   9.980
98589SOL     OW97663   0.073   6.775  10.378
98589SOL    HW197664   0.080   6.869  10.396
98589SOL    HW297665   0.160   6.749  10.347
98590SOL     OW97666   8.292   8.552   5.746
98590SOL    HW197667   8.247   8.620   5.696
98590SOL    HW297668   8.378   8.545   5.705
98591SOL     OW97669   0.619   5.526  12.190
98591SOL    HW197670   0.644   5.619  12.192
98591SOL    HW297671   0.524   5.527  12.184
98592SOL     OW97672   2.882   7.508   6.703
98592SOL    HW197673   2.830   7.559   6.641
98592SOL    HW297674   2.961   7.483   6.655
98593SOL     OW97675   1.016  10.925   7.101
98593SOL    HW197676   1.064  10.888   7.027
98593SOL    HW297677   0.950  10.860   7.123
98594SOL     OW97678   9.765  13.466   2.046
98594SOL    HW197679   9.762  13.370   2.047
98594SOL    HW297680   9.751  13.489   1.954
98595SOL     OW97681  12.642  13.916   6.258
98595SOL    HW197682  12.567  13.871   6.298
98595SOL    HW297683  12.603  13.972   6.191
98596SOL     OW97684   0.145   3.947   8.789
98596SOL    HW197685   0.121   3.962   8.698
98596SOL    HW297686   0.223   3.892   8.785
98597SOL     OW97687   4.375   7.449   8.510
98597SOL    HW197688   4.467   7.437   8.535
98597SOL    HW297689   4.367   7.407   8.424
98598SOL     OW97690   7.239   8.599  13.232
98598SOL    HW197691   7.334   8.598  13.227
98598SOL    HW297692   7.218   8.664  13.299
98599SOL     OW97693  12.682  10.522   6.988
98599SOL    HW197694  12.701  10.493   6.899
98599SOL    HW297695  12.643  10.445   7.031
98600SOL     OW97696   6.921   2.028  13.372
98600SOL    HW197697   6.836   2.069  13.357
98600SOL    HW297698   6.913   1.941  13.331
98601SOL     OW97699   1.763  14.051   1.472
98601SOL    HW197700   1.750  14.040   1.377
98601SOL    HW297701   1.679  14.030   1.511
98602SOL     OW97702  11.035   1.794  13.513
98602SOL    HW197703  11.075   1.823  13.595
98602SOL    HW297704  11.108   1.784  13.452
98603SOL     OW97705  10.355   8.630   2.515
98603SOL    HW197706  10.347   8.616   2.609
98603SOL    HW297707  10.336   8.545   2.476
98604SOL     OW97708   6.735   4.637   5.109
98604SOL    HW197709   6.732   4.609   5.201
98604SOL    HW297710   6.726   4.732   5.113
98605SOL     OW97711  14.063  10.549  12.600
98605SOL    HW197712  14.002  10.617  12.571
98605SOL    HW297713  14.136  10.597  12.637
98606SOL     OW97714  10.313   1.454   9.581
98606SOL    HW197715  10.247   1.492   9.522
98606SOL    HW297716  10.397   1.475   9.540
98607SOL     OW97717   4.129  13.592  14.570
98607SOL    HW197718   4.140  13.510  14.522
98607SOL    HW297719   4.044  13.625  14.542
98608SOL     OW97720   2.862   9.188  13.031
98608SOL    HW197721   2.931   9.255  13.034
98608SOL    HW297722   2.801   9.219  12.965
98609SOL     OW97723   6.477   5.154   6.446
98609SOL    HW197724   6.541   5.154   6.375
98609SOL    HW297725   6.519   5.205   6.516
98610SOL     OW97726  13.073   9.486   1.546
98610SOL    HW197727  13.122   9.556   1.588
98610SOL    HW297728  13.060   9.517   1.456
98611SOL     OW97729  13.668   6.823   9.755
98611SOL    HW197730  13.602   6.846   9.690
98611SOL    HW297731  13.735   6.777   9.705
98612SOL     OW97732   6.010   5.408   1.365
98612SOL    HW197733   5.963   5.431   1.285
98612SOL    HW297734   6.086   5.467   1.366
98613SOL     OW97735  12.453   2.411   6.436
98613SOL    HW197736  12.465   2.342   6.371
98613SOL    HW297737  12.530   2.467   6.426
98614SOL     OW97738   4.933   9.545  13.014
98614SOL    HW197739   5.024   9.565  13.037
98614SOL    HW297740   4.938   9.518  12.922
98615SOL     OW97741   7.839   8.971  10.908
98615SOL    HW197742   7.902   8.979  10.836
98615SOL    HW297743   7.800   9.059  10.915
98616SOL     OW97744   6.213  13.934   2.161
98616SOL    HW197745   6.297  13.900   2.128
98616SOL    HW297746   6.237  13.994   2.231
98617SOL     OW97747  10.907   1.368  13.553
98617SOL    HW197748  10.868   1.445  13.512
98617SOL    HW297749  10.994   1.361  13.512
98618SOL     OW97750  10.851   9.540   1.318
98618SOL    HW197751  10.763   9.503   1.327
98618SOL    HW297752  10.860   9.599   1.392
98619SOL     OW97753   2.030   1.584   4.223
98619SOL    HW197754   2.085   1.560   4.149
98619SOL    HW297755   1.945   1.546   4.203
98620SOL     OW97756   7.328  11.715   8.104
98620SOL    HW197757   7.379  11.795   8.093
98620SOL    HW297758   7.392  11.648   8.129
98621SOL     OW97759  10.031   4.175   2.221
98621SOL    HW197760  10.071   4.227   2.291
98621SOL    HW297761  10.084   4.196   2.144
98622SOL     OW97762   7.062  13.848  11.734
98622SOL    HW197763   7.092  13.923  11.683
98622SOL    HW297764   7.083  13.871  11.825
98623SOL     OW97765   9.340   3.324   1.146
98623SOL    HW197766   9.412   3.277   1.189
98623SOL    HW297767   9.284   3.354   1.218
98624SOL     OW97768   8.486   3.370   7.767
98624SOL    HW197769   8.495   3.297   7.706
98624SOL    HW297770   8.477   3.447   7.711
98625SOL     OW97771   8.651   6.011   6.864
98625SOL    HW197772   8.645   5.916   6.872
98625SOL    HW297773   8.654   6.042   6.955
98626SOL     OW97774   7.907   4.333  13.250
98626SOL    HW197775   7.875   4.366  13.166
98626SOL    HW297776   7.901   4.409  13.309
98627SOL     OW97777   8.711   0.752   3.297
98627SOL    HW197778   8.665   0.829   3.331
98627SOL    HW297779   8.649   0.714   3.234
98628SOL     OW97780   2.535  12.118  13.431
98628SOL    HW197781   2.551  12.186  13.496
98628SOL    HW297782   2.495  12.047  13.480
98629SOL     OW97783   1.949   2.520   8.096
98629SOL    HW197784   1.909   2.605   8.111
98629SOL    HW297785   1.913   2.464   8.165
98630SOL     OW97786   2.587   6.435   0.294
98630SOL    HW197787   2.564   6.344   0.314
98630SOL    HW297788   2.530   6.487   0.351
98631SOL     OW97789  11.943   6.703   0.491
98631SOL    HW197790  12.030   6.663   0.482
98631SOL    HW297791  11.949   6.785   0.442
98632SOL     OW97792   4.697  14.876  13.345
98632SOL    HW197793   4.630  14.863  13.278
98632SOL    HW297794   4.710  14.789  13.382
98633SOL     OW97795   0.629   5.074   8.814
98633SOL    HW197796   0.559   5.139   8.811
98633SOL    HW297797   0.679   5.096   8.893
98634SOL     OW97798   1.822  11.742  11.406
98634SOL    HW197799   1.756  11.766  11.471
98634SOL    HW297800   1.776  11.683  11.346
98635SOL     OW97801  10.627   0.015   9.039
98635SOL    HW197802  10.693   0.015   9.108
98635SOL    HW297803  10.609   0.107   9.022
98636SOL     OW97804   6.337   3.857   1.048
98636SOL    HW197805   6.383   3.941   1.053
98636SOL    HW297806   6.246   3.881   1.033
98637SOL     OW97807   4.795   2.998   5.617
98637SOL    HW197808   4.809   2.930   5.682
98637SOL    HW297809   4.798   3.080   5.667
98638SOL     OW97810   6.005   1.851   2.230
98638SOL    HW197811   5.998   1.934   2.277
98638SOL    HW297812   6.068   1.867   2.160
98639SOL     OW97813   1.744  11.841  13.781
98639SOL    HW197814   1.662  11.869  13.741
98639SOL    HW297815   1.794  11.922  13.793
98640SOL     OW97816  14.584   7.247   0.879
98640SOL    HW197817  14.597   7.221   0.970
98640SOL    HW297818  14.670   7.275   0.849
98641SOL     OW97819   3.297  14.240  11.995
98641SOL    HW197820   3.296  14.334  12.012
98641SOL    HW297821   3.300  14.232  11.899
98642SOL     OW97822   5.618  13.072   1.931
98642SOL    HW197823   5.669  13.122   1.868
98642SOL    HW297824   5.601  13.133   2.003
98643SOL     OW97825   9.490   9.677   1.710
98643SOL    HW197826   9.515   9.728   1.633
98643SOL    HW297827   9.525   9.590   1.694
98644SOL     OW97828   6.899   5.318   5.609
98644SOL    HW197829   6.942   5.334   5.693
98644SOL    HW297830   6.915   5.225   5.591
98645SOL     OW97831   7.168   8.883   8.375
98645SOL    HW197832   7.209   8.799   8.398
98645SOL    HW297833   7.124   8.867   8.292
98646SOL     OW97834   9.999   0.892   6.860
98646SOL    HW197835   9.945   0.813   6.868
98646SOL    HW297836   9.972   0.930   6.777
98647SOL     OW97837  12.039  11.698   3.352
98647SOL    HW197838  11.949  11.682   3.325
98647SOL    HW297839  12.063  11.779   3.308
98648SOL     OW97840   4.793  11.188  10.975
98648SOL    HW197841   4.759  11.194  11.064
98648SOL    HW297842   4.879  11.145  10.984
98649SOL     OW97843   7.868   3.531   8.663
98649SOL    HW197844   7.823   3.553   8.582
98649SOL    HW297845   7.798   3.500   8.722
98650SOL     OW97846   5.211   9.643  13.041
98650SOL    HW197847   5.282   9.592  13.080
98650SOL    HW297848   5.250   9.727  13.019
98651SOL     OW97849  11.543   1.778   6.776
98651SOL    HW197850  11.634   1.807   6.769
98651SOL    HW297851  11.503   1.840   6.836
98652SOL     OW97852  13.513   7.856   9.189
98652SOL    HW197853  13.583   7.910   9.153
98652SOL    HW297854  13.548   7.767   9.188
98653SOL     OW97855  12.646  12.862   4.484
98653SOL    HW197856  12.718  12.814   4.525
98653SOL    HW297857  12.568  12.831   4.530
98654SOL     OW97858   5.188   7.294   6.307
98654SOL    HW197859   5.255   7.352   6.343
98654SOL    HW297860   5.183   7.318   6.215
98655SOL     OW97861  12.979  11.771   0.781
98655SOL    HW197862  13.053  11.735   0.830
98655SOL    HW297863  12.963  11.707   0.712
98656SOL     OW97864  13.710   5.794   3.778
98656SOL    HW197865  13.690   5.857   3.847
98656SOL    HW297866  13.803   5.774   3.791
98657SOL     OW97867   3.970  12.516  10.154
98657SOL    HW197868   3.946  12.570  10.078
98657SOL    HW297869   3.924  12.434  10.140
98658SOL     OW97870   7.992  12.631   0.287
98658SOL    HW197871   8.021  12.681   0.211
98658SOL    HW297872   7.918  12.579   0.255
98659SOL     OW97873  14.493  12.767   3.796
98659SOL    HW197874  14.429  12.830   3.763
98659SOL    HW297875  14.570  12.820   3.817
98660SOL     OW97876   4.840   9.156   0.158
98660SOL    HW197877   4.845   9.167   0.253
98660SOL    HW297878   4.820   9.063   0.146
98661SOL     OW97879  12.874  12.990  12.907
98661SOL    HW197880  12.910  12.935  12.838
98661SOL    HW297881  12.911  12.953  12.988
98662SOL     OW97882   9.301  10.405   8.795
98662SOL    HW197883   9.213  10.395   8.757
98662SOL    HW297884   9.285  10.423   8.887
98663SOL     OW97885   5.205   9.014   0.714
98663SOL    HW197886   5.213   9.067   0.635
98663SOL    HW297887   5.140   9.060   0.767
98664SOL     OW97888   1.193   9.673   4.739
98664SOL    HW197889   1.164   9.647   4.652
98664SOL    HW297890   1.260   9.609   4.762
98665SOL     OW97891   0.311   7.991  10.475
98665SOL    HW197892   0.400   8.022  10.496
98665SOL    HW297893   0.254   8.061  10.505
98666SOL     OW97894   7.107  11.589   6.621
98666SOL    HW197895   7.094  11.637   6.702
98666SOL    HW297896   7.041  11.519   6.623
98667SOL     OW97897   4.279  10.618   4.162
98667SOL    HW197898   4.203  10.649   4.211
98667SOL    HW297899   4.274  10.663   4.078
98668SOL     OW97900   7.070   1.770  12.082
98668SOL    HW197901   7.003   1.831  12.115
98668SOL    HW297902   7.058   1.691  12.134
98669SOL     OW97903   2.764   3.134   4.255
98669SOL    HW197904   2.751   3.103   4.166
98669SOL    HW297905   2.799   3.223   4.245
98670SOL     OW97906  12.565   2.472   8.905
98670SOL    HW197907  12.649   2.509   8.931
98670SOL    HW297908  12.511   2.477   8.983
98671SOL     OW97909  10.934   4.488   0.816
98671SOL    HW197910  10.866   4.421   0.829
98671SOL    HW297911  10.893   4.555   0.764
98672SOL     OW97912   2.771  14.817   7.442
98672SOL    HW197913   2.764  14.764   7.363
98672SOL    HW297914   2.813  14.759   7.506
98673SOL     OW97915  12.541   2.328   4.183
98673SOL    HW197916  12.507   2.401   4.235
98673SOL    HW297917  12.630   2.315   4.217
98674SOL     OW97918   0.035   0.503   8.036
98674SOL    HW197919   0.109   0.550   8.074
98674SOL    HW297920  14.860   0.572   8.002
98675SOL     OW97921  12.635  12.997   8.080
98675SOL    HW197922  12.679  12.939   8.019
98675SOL    HW297923  12.553  13.021   8.037
98676SOL     OW97924   1.397  13.894  12.956
98676SOL    HW197925   1.379  13.831  12.887
98676SOL    HW297926   1.454  13.847  13.017
98677SOL     OW97927   1.559   9.304   1.685
98677SOL    HW197928   1.564   9.211   1.707
98677SOL    HW297929   1.639   9.321   1.635
98678SOL     OW97930   9.137   7.036   6.886
98678SOL    HW197931   9.130   7.126   6.916
98678SOL    HW297932   9.091   7.036   6.802
98679SOL     OW97933  11.555  12.578   4.557
98679SOL    HW197934  11.549  12.618   4.470
98679SOL    HW297935  11.499  12.633   4.612
98680SOL     OW97936   2.151   3.093   8.374
98680SOL    HW197937   2.108   3.018   8.334
98680SOL    HW297938   2.234   3.101   8.328
98681SOL     OW97939  10.064  12.309  12.816
98681SOL    HW197940  10.146  12.352  12.793
98681SOL    HW297941   9.997  12.376  12.802
98682SOL     OW97942  12.686  12.913  10.357
98682SOL    HW197943  12.707  12.832  10.310
98682SOL    HW297944  12.666  12.976  10.288
98683SOL     OW97945   3.683   7.876   7.175
98683SOL    HW197946   3.718   7.886   7.264
98683SOL    HW297947   3.717   7.952   7.127
98684SOL     OW97948   4.998   9.523   3.250
98684SOL    HW197949   4.945   9.444   3.239
98684SOL    HW297950   5.087   9.491   3.264
98685SOL     OW97951   4.359  12.958   2.570
98685SOL    HW197952   4.267  12.970   2.545
98685SOL    HW297953   4.355  12.925   2.660
98686SOL     OW97954   6.192  12.987   3.232
98686SOL    HW197955   6.277  13.005   3.193
98686SOL    HW297956   6.160  13.072   3.260
98687SOL     OW97957   8.828   2.027   9.841
98687SOL    HW197958   8.799   1.994   9.926
98687SOL    HW297959   8.833   2.122   9.853
98688SOL     OW97960  13.336   4.275   3.509
98688SOL    HW197961  13.260   4.331   3.523
98688SOL    HW297962  13.354   4.282   3.415
98689SOL     OW97963  11.699  12.600  12.725
98689SOL    HW197964  11.647  12.614  12.646
98689SOL    HW297965  11.738  12.514  12.713
98690SOL     OW97966  12.826  10.225   2.983
98690SOL    HW197967  12.833  10.279   2.905
98690SOL    HW297968  12.885  10.152   2.967
98691SOL     OW97969  10.790  12.428  13.112
98691SOL    HW197970  10.735  12.444  13.036
98691SOL    HW297971  10.864  12.488  13.102
98692SOL     OW97972   3.161   4.112   5.243
98692SOL    HW197973   3.206   4.188   5.205
98692SOL    HW297974   3.196   4.106   5.332
98693SOL     OW97975  14.662  12.607   4.158
98693SOL    HW197976  14.756  12.596   4.141
98693SOL    HW297977  14.630  12.518   4.170
98694SOL     OW97978  13.442   8.165   8.870
98694SOL    HW197979  13.373   8.170   8.936
98694SOL    HW297980  13.450   8.072   8.850
98695SOL     OW97981   8.211   1.155   9.577
98695SOL    HW197982   8.207   1.248   9.554
98695SOL    HW297983   8.221   1.154   9.672
98696SOL     OW97984   1.935  11.482   1.326
98696SOL    HW197985   1.893  11.481   1.412
98696SOL    HW297986   2.017  11.531   1.340
98697SOL     OW97987   6.788   3.563   6.559
98697SOL    HW197988   6.787   3.551   6.654
98697SOL    HW297989   6.880   3.550   6.535
98698SOL     OW97990   4.630   6.962  13.324
98698SOL    HW197991   4.648   6.868  13.327
98698SOL    HW297992   4.710   7.003  13.355
98699SOL     OW97993   8.467   0.299  10.212
98699SOL    HW197994   8.521   0.338  10.280
98699SOL    HW297995   8.387   0.271  10.256
98700SOL     OW97996  13.618   5.364   8.400
98700SOL    HW197997  13.618   5.288   8.459
98700SOL    HW297998  13.702   5.407   8.416
98701SOL     OW97999   0.526  11.633   8.399
98701SOL    HW198000   0.472  11.684   8.339
98701SOL    HW298001   0.615  11.665   8.385
98702SOL     OW98002  12.108  13.367   6.982
98702SOL    HW198003  12.051  13.292   6.996
98702SOL    HW298004  12.051  13.434   6.944
98703SOL     OW98005   4.073   2.813   6.436
98703SOL    HW198006   4.087   2.867   6.513
98703SOL    HW298007   3.978   2.811   6.425
98704SOL     OW98008  14.069   3.052  13.293
98704SOL    HW198009  14.034   2.972  13.252
98704SOL    HW298010  14.160   3.031  13.312
98705SOL     OW98011   1.526   6.026   8.972
98705SOL    HW198012   1.605   6.029   9.026
98705SOL    HW298013   1.548   5.968   8.899
98706SOL     OW98014   3.437   3.884   6.616
98706SOL    HW198015   3.436   3.939   6.538
98706SOL    HW298016   3.526   3.848   6.619
98707SOL     OW98017   8.643   6.466   3.745
98707SOL    HW198018   8.698   6.388   3.733
98707SOL    HW298019   8.704   6.535   3.769
98708SOL     OW98020  11.154   1.191   3.451
98708SOL    HW198021  11.158   1.127   3.380
98708SOL    HW298022  11.173   1.275   3.409
98709SOL     OW98023   0.197   2.377   3.257
98709SOL    HW198024   0.216   2.422   3.175
98709SOL    HW298025   0.102   2.362   3.255
98710SOL     OW98026   2.782   0.649   3.305
98710SOL    HW198027   2.762   0.560   3.275
98710SOL    HW298028   2.786   0.700   3.224
98711SOL     OW98029  12.380  12.962  13.563
98711SOL    HW198030  12.368  12.966  13.468
98711SOL    HW298031  12.474  12.969  13.576
98712SOL     OW98032  13.010   3.315  11.578
98712SOL    HW198033  13.098   3.329  11.613
98712SOL    HW298034  12.969   3.402  11.580
98713SOL     OW98035   2.192  12.092  13.478
98713SOL    HW198036   2.216  12.088  13.385
98713SOL    HW298037   2.146  12.010  13.494
98714SOL     OW98038   9.986  10.946   3.616
98714SOL    HW198039   9.964  10.956   3.523
98714SOL    HW298040   9.987  10.851   3.630
98715SOL     OW98041   5.181   9.035   2.830
98715SOL    HW198042   5.231   8.961   2.862
98715SOL    HW298043   5.117   8.996   2.769
98716SOL     OW98044   7.122   6.712   9.074
98716SOL    HW198045   7.092   6.622   9.066
98716SOL    HW298046   7.086   6.756   8.997
98717SOL     OW98047   2.140  10.491  11.418
98717SOL    HW198048   2.090  10.458  11.492
98717SOL    HW298049   2.074  10.530  11.360
98718SOL     OW98050   4.625   9.063   8.878
98718SOL    HW198051   4.634   9.130   8.946
98718SOL    HW298052   4.585   9.109   8.804
98719SOL     OW98053   1.694  10.948   9.161
98719SOL    HW198054   1.656  10.862   9.146
98719SOL    HW298055   1.727  10.975   9.075
98720SOL     OW98056   8.874  11.142   7.183
98720SOL    HW198057   8.804  11.169   7.123
98720SOL    HW298058   8.953  11.143   7.129
98721SOL     OW98059   4.862   9.835   6.984
98721SOL    HW198060   4.931   9.775   6.957
98721SOL    HW298061   4.867   9.907   6.922
98722SOL     OW98062   7.894  11.109  13.228
98722SOL    HW198063   7.860  11.199  13.229
98722SOL    HW298064   7.955  11.106  13.302
98723SOL     OW98065   1.081  14.187   1.434
98723SOL    HW198066   1.075  14.258   1.370
98723SOL    HW298067   1.011  14.127   1.410
98724SOL     OW98068   0.825   3.855  12.915
98724SOL    HW198069   0.811   3.940  12.957
98724SOL    HW298070   0.816   3.791  12.986
98725SOL     OW98071   3.824   0.925   6.600
98725SOL    HW198072   3.769   0.943   6.524
98725SOL    HW298073   3.765   0.928   6.675
98726SOL     OW98074  13.089   5.686   8.398
98726SOL    HW198075  13.129   5.717   8.317
98726SOL    HW298076  13.157   5.698   8.464
98727SOL     OW98077  11.224   2.168  13.042
98727SOL    HW198078  11.290   2.119  12.993
98727SOL    HW298079  11.209   2.115  13.121
98728SOL     OW98080  11.657   0.956   2.362
98728SOL    HW198081  11.695   1.043   2.350
98728SOL    HW298082  11.732   0.897   2.362
98729SOL     OW98083   8.367   9.424   8.307
98729SOL    HW198084   8.425   9.439   8.382
98729SOL    HW298085   8.347   9.330   8.311
98730SOL     OW98086   5.002   2.873   6.034
98730SOL    HW198087   5.078   2.877   5.976
98730SOL    HW298088   5.028   2.927   6.110
98731SOL     OW98089  12.860   3.481   7.688
98731SOL    HW198090  12.911   3.403   7.710
98731SOL    HW298091  12.891   3.506   7.601
98732SOL     OW98092   4.876  13.373   1.538
98732SOL    HW198093   4.960  13.354   1.579
98732SOL    HW298094   4.844  13.289   1.506
98733SOL     OW98095  11.685  12.695  13.624
98733SOL    HW198096  11.742  12.683  13.700
98733SOL    HW298097  11.629  12.618  13.624
98734SOL     OW98098   8.647   8.314   9.737
98734SOL    HW198099   8.606   8.297   9.822
98734SOL    HW298100   8.622   8.240   9.682
98735SOL     OW98101   4.932   1.390   8.811
98735SOL    HW198102   5.002   1.426   8.755
98735SOL    HW298103   4.894   1.320   8.759
98736SOL     OW98104  10.917   0.186  11.796
98736SOL    HW198105  10.924   0.168  11.702
98736SOL    HW298106  10.827   0.161  11.818
98737SOL     OW98107   3.482  10.425  13.749
98737SOL    HW198108   3.522  10.393  13.830
98737SOL    HW298109   3.525  10.508  13.731
98738SOL     OW98110  14.314   7.935  10.134
98738SOL    HW198111  14.367   7.964  10.208
98738SOL    HW298112  14.304   7.840  10.148
98739SOL     OW98113   4.630  14.722  12.117
98739SOL    HW198114   4.671  14.652  12.066
98739SOL    HW298115   4.611  14.791  12.054
98740SOL     OW98116   9.443   7.270   7.954
98740SOL    HW198117   9.406   7.290   7.868
98740SOL    HW298118   9.369   7.235   8.004
98741SOL     OW98119   6.054   0.456  10.252
98741SOL    HW198120   5.998   0.405  10.310
98741SOL    HW298121   6.086   0.394  10.187
98742SOL     OW98122   9.123  11.879   7.139
98742SOL    HW198123   9.036  11.890   7.100
98742SOL    HW298124   9.122  11.936   7.216
98743SOL     OW98125   4.690   0.093   0.329
98743SOL    HW198126   4.618   0.031   0.341
98743SOL    HW298127   4.761   0.040   0.294
98744SOL     OW98128   5.363  14.545   4.951
98744SOL    HW198129   5.418  14.620   4.927
98744SOL    HW298130   5.274  14.574   4.932
98745SOL     OW98131  14.253  11.101   4.100
98745SOL    HW198132  14.343  11.106   4.067
98745SOL    HW298133  14.256  11.032   4.167
98746SOL     OW98134   7.159   0.915   9.927
98746SOL    HW198135   7.154   0.927  10.022
98746SOL    HW298136   7.134   0.823   9.913
98747SOL     OW98137   3.570   6.008   0.210
98747SOL    HW198138   3.544   6.090   0.168
98747SOL    HW298139   3.534   5.940   0.153
98748SOL     OW98140   9.790   4.930   1.821
98748SOL    HW198141   9.875   4.965   1.792
98748SOL    HW298142   9.742   5.007   1.852
98749SOL     OW98143  12.080   1.174   8.447
98749SOL    HW198144  12.070   1.189   8.353
98749SOL    HW298145  12.149   1.108   8.454
98750SOL     OW98146  12.392   5.194   4.679
98750SOL    HW198147  12.445   5.273   4.691
98750SOL    HW298148  12.302   5.226   4.672
98751SOL     OW98149  12.518   1.700   9.122
98751SOL    HW198150  12.473   1.782   9.142
98751SOL    HW298151  12.483   1.637   9.185
98752SOL     OW98152   8.666  12.057   1.209
98752SOL    HW198153   8.626  12.144   1.218
98752SOL    HW298154   8.604  11.998   1.252
98753SOL     OW98155  14.300  12.589   8.234
98753SOL    HW198156  14.356  12.603   8.310
98753SOL    HW298157  14.316  12.665   8.178
98754SOL     OW98158   3.322   1.086  11.205
98754SOL    HW198159   3.363   1.003  11.228
98754SOL    HW298160   3.393   1.150  11.205
98755SOL     OW98161  13.668   6.298   6.493
98755SOL    HW198162  13.631   6.291   6.581
98755SOL    HW298163  13.755   6.260   6.501
98756SOL     OW98164   3.970  12.517   5.854
98756SOL    HW198165   4.011  12.449   5.801
98756SOL    HW298166   3.880  12.487   5.867
98757SOL     OW98167  10.705   1.212  13.874
98757SOL    HW198168  10.687   1.194  13.782
98757SOL    HW298169  10.658   1.293  13.892
98758SOL     OW98170   5.473  11.605   3.975
98758SOL    HW198171   5.411  11.678   3.972
98758SOL    HW298172   5.453  11.560   4.057
98759SOL     OW98173   8.462   0.020   9.695
98759SOL    HW198174   8.415   0.103   9.704
98759SOL    HW298175   8.463  14.865   9.783
98760SOL     OW98176  12.642   2.650   6.483
98760SOL    HW198177  12.563   2.670   6.534
98760SOL    HW298178  12.707   2.624   6.548
98761SOL     OW98179   5.250  14.443   8.019
98761SOL    HW198180   5.168  14.407   7.985
98761SOL    HW298181   5.314  14.372   8.008
98762SOL     OW98182   2.982  13.995   6.388
98762SOL    HW198183   3.053  13.986   6.324
98762SOL    HW298184   3.023  13.978   6.473
98763SOL     OW98185  10.143   9.112   1.447
98763SOL    HW198186  10.166   9.135   1.357
98763SOL    HW298187  10.066   9.165   1.466
98764SOL     OW98188   9.690   9.746   9.791
98764SOL    HW198189   9.605   9.746   9.747
98764SOL    HW298190   9.691   9.664   9.840
98765SOL     OW98191  10.932  14.792   2.815
98765SOL    HW198192  10.922  14.864   2.752
98765SOL    HW298193  11.027  14.785   2.829
98766SOL     OW98194   3.688  13.929   0.039
98766SOL    HW198195   3.656  13.931   0.129
98766SOL    HW298196   3.718  13.839   0.026
98767SOL     OW98197  10.879   4.262   6.826
98767SOL    HW198198  10.921   4.177   6.817
98767SOL    HW298199  10.942   4.324   6.788
98768SOL     OW98200   6.820  11.492  10.900
98768SOL    HW198201   6.772  11.419  10.938
98768SOL    HW298202   6.897  11.452  10.860
98769SOL     OW98203   0.756  10.408   9.365
98769SOL    HW198204   0.694  10.344   9.398
98769SOL    HW298205   0.723  10.431   9.278
98770SOL     OW98206  13.116   9.485  13.734
98770SOL    HW198207  13.125   9.576  13.708
98770SOL    HW298208  13.132   9.485  13.828
98771SOL     OW98209  14.194   8.815  11.712
98771SOL    HW198210  14.198   8.864  11.629
98771SOL    HW298211  14.223   8.727  11.689
98772SOL     OW98212  11.059   9.866   7.299
98772SOL    HW198213  11.024   9.779   7.283
98772SOL    HW298214  11.014   9.922   7.236
98773SOL     OW98215   1.701  11.251  11.084
98773SOL    HW198216   1.656  11.255  11.168
98773SOL    HW298217   1.741  11.164  11.083
98774SOL     OW98218  11.859  12.473   2.671
98774SOL    HW198219  11.932  12.521   2.709
98774SOL    HW298220  11.877  12.381   2.693
98775SOL     OW98221  12.620   2.717   2.449
98775SOL    HW198222  12.700   2.666   2.442
98775SOL    HW298223  12.619   2.749   2.539
98776SOL     OW98224   7.603  12.084   7.101
98776SOL    HW198225   7.541  12.012   7.094
98776SOL    HW298226   7.637  12.094   7.011
98777SOL     OW98227  13.011  11.702   4.516
98777SOL    HW198228  13.083  11.750   4.477
98777SOL    HW298229  12.981  11.642   4.448
98778SOL     OW98230  13.250   2.226   3.874
98778SOL    HW198231  13.182   2.253   3.812
98778SOL    HW298232  13.311   2.300   3.877
98779SOL     OW98233  11.918   5.278   5.197
98779SOL    HW198234  12.012   5.256   5.200
98779SOL    HW298235  11.874   5.197   5.223
98780SOL     OW98236   8.205  14.223   3.795
98780SOL    HW198237   8.276  14.233   3.859
98780SOL    HW298238   8.142  14.291   3.819
98781SOL     OW98239   4.795   8.013   2.012
98781SOL    HW198240   4.733   8.008   1.939
98781SOL    HW298241   4.769   7.942   2.070
98782SOL     OW98242   3.317  11.459   4.024
98782SOL    HW198243   3.288  11.444   4.114
98782SOL    HW298244   3.370  11.539   4.029
98783SOL     OW98245   7.978   8.660   3.287
98783SOL    HW198246   7.940   8.706   3.211
98783SOL    HW298247   7.973   8.567   3.263
98784SOL     OW98248   6.243   5.845  14.413
98784SOL    HW198249   6.156   5.863  14.448
98784SOL    HW298250   6.230   5.772  14.353
98785SOL     OW98251   2.986  12.198   2.583
98785SOL    HW198252   2.984  12.105   2.605
98785SOL    HW298253   3.077  12.215   2.558
98786SOL     OW98254   3.512   0.059   6.736
98786SOL    HW198255   3.480   0.143   6.703
98786SOL    HW298256   3.602   0.053   6.703
98787SOL     OW98257   1.361   5.016   8.097
98787SOL    HW198258   1.272   5.046   8.112
98787SOL    HW298259   1.414   5.095   8.095
98788SOL     OW98260   8.133   5.802   8.184
98788SOL    HW198261   8.212   5.842   8.221
98788SOL    HW298262   8.086   5.766   8.260
98789SOL     OW98263   6.321   5.011   8.235
98789SOL    HW198264   6.335   5.043   8.146
98789SOL    HW298265   6.406   5.021   8.277
98790SOL     OW98266   6.812   0.572  12.621
98790SOL    HW198267   6.731   0.623  12.615
98790SOL    HW298268   6.881   0.638  12.631
98791SOL     OW98269  12.810  14.047   0.861
98791SOL    HW198270  12.777  14.130   0.894
98791SOL    HW298271  12.881  14.071   0.801
98792SOL     OW98272  14.693  14.304  11.150
98792SOL    HW198273  14.602  14.280  11.166
98792SOL    HW298274  14.703  14.389  11.193
98793SOL     OW98275   1.688   4.018   0.534
98793SOL    HW198276   1.693   4.102   0.487
98793SOL    HW298277   1.753   4.026   0.603
98794SOL     OW98278   2.860  10.272  13.806
98794SOL    HW198279   2.826  10.360  13.822
98794SOL    HW298280   2.796  10.213  13.846
98795SOL     OW98281   1.663   6.989  11.772
98795SOL    HW198282   1.668   7.070  11.823
98795SOL    HW298283   1.632   7.017  11.686
98796SOL     OW98284   0.140   7.723   1.800
98796SOL    HW198285   0.156   7.775   1.878
98796SOL    HW298286   0.190   7.767   1.731
98797SOL     OW98287   6.196   8.289  12.448
98797SOL    HW198288   6.218   8.233  12.373
98797SOL    HW298289   6.117   8.335  12.420
98798SOL     OW98290  11.188   6.516   0.715
98798SOL    HW198291  11.162   6.472   0.634
98798SOL    HW298292  11.224   6.447   0.770
98799SOL     OW98293   4.469  11.298   1.789
98799SOL    HW198294   4.518  11.221   1.819
98799SOL    HW298295   4.511  11.322   1.706
98800SOL     OW98296  10.380   2.096  13.227
98800SOL    HW198297  10.375   2.042  13.147
98800SOL    HW298298  10.467   2.137  13.222
98801SOL     OW98299  14.651  13.194  10.611
98801SOL    HW198300  14.577  13.221  10.557
98801SOL    HW298301  14.640  13.099  10.621
98802SOL     OW98302   8.751  10.029   3.371
98802SOL    HW198303   8.737   9.934   3.375
98802SOL    HW298304   8.779  10.045   3.281
98803SOL     OW98305  13.200   2.921   1.306
98803SOL    HW198306  13.116   2.904   1.349
98803SOL    HW298307  13.249   2.839   1.316
98804SOL     OW98308  10.671  11.084   8.663
98804SOL    HW198309  10.578  11.084   8.682
98804SOL    HW298310  10.697  11.176   8.663
98805SOL     OW98311   9.709   4.181  12.393
98805SOL    HW198312   9.648   4.143  12.330
98805SOL    HW298313   9.653   4.222  12.459
98806SOL     OW98314   8.367   7.874  14.026
98806SOL    HW198315   8.380   7.782  14.048
98806SOL    HW298316   8.355   7.874  13.931
98807SOL     OW98317  11.510  14.441   6.142
98807SOL    HW198318  11.433  14.390   6.164
98807SOL    HW298319  11.570  14.378   6.102
98808SOL     OW98320  11.745  13.395   3.509
98808SOL    HW198321  11.684  13.377   3.580
98808SOL    HW298322  11.724  13.330   3.442
98809SOL     OW98323   4.922   9.896  11.153
98809SOL    HW198324   4.886   9.857  11.233
98809SOL    HW298325   5.013   9.866  11.152
98810SOL     OW98326   8.689  14.264  12.417
98810SOL    HW198327   8.706  14.264  12.511
98810SOL    HW298328   8.603  14.224  12.408
98811SOL     OW98329  11.884  12.550   5.836
98811SOL    HW198330  11.958  12.589   5.791
98811SOL    HW298331  11.862  12.612   5.906
98812SOL     OW98332  12.818  10.465   0.853
98812SOL    HW198333  12.894  10.428   0.899
98812SOL    HW298334  12.743  10.429   0.900
98813SOL     OW98335   0.835  13.092  14.704
98813SOL    HW198336   0.867  13.064  14.618
98813SOL    HW298337   0.817  13.185  14.695
98814SOL     OW98338  12.434   4.772  13.059
98814SOL    HW198339  12.507   4.748  13.001
98814SOL    HW298340  12.356   4.758  13.006
98815SOL     OW98341   1.661   0.048   2.626
98815SOL    HW198342   1.695   0.062   2.537
98815SOL    HW298343   1.608   0.125   2.644
98816SOL     OW98344   6.592  12.809   7.874
98816SOL    HW198345   6.590  12.715   7.852
98816SOL    HW298346   6.513  12.845   7.833
98817SOL     OW98347  14.189  12.370  10.915
98817SOL    HW198348  14.120  12.411  10.862
98817SOL    HW298349  14.158  12.282  10.932
98818SOL     OW98350   7.360   6.943  11.373
98818SOL    HW198351   7.345   7.004  11.301
98818SOL    HW298352   7.391   6.997  11.445
98819SOL     OW98353   3.664  10.435   3.403
98819SOL    HW198354   3.625  10.519   3.427
98819SOL    HW298355   3.596  10.392   3.351
98820SOL     OW98356   0.181   3.956   7.650
98820SOL    HW198357   0.275   3.968   7.643
98820SOL    HW298358   0.145   4.044   7.646
98821SOL     OW98359  11.965   2.669   3.306
98821SOL    HW198360  12.001   2.599   3.251
98821SOL    HW298361  11.943   2.739   3.244
98822SOL     OW98362   2.109  13.993  10.721
98822SOL    HW198363   2.096  14.053  10.647
98822SOL    HW298364   2.187  13.943  10.697
98823SOL     OW98365   7.562   1.363   2.044
98823SOL    HW198366   7.508   1.285   2.056
98823SOL    HW298367   7.584   1.392   2.132
98824SOL     OW98368  14.857   2.036  12.759
98824SOL    HW198369  14.773   2.077  12.741
98824SOL    HW298370   0.039   2.106  12.748
98825SOL     OW98371   9.295   8.989   2.917
98825SOL    HW198372   9.209   8.954   2.937
98825SOL    HW298373   9.322   8.942   2.837
98826SOL     OW98374  11.106   2.343   2.213
98826SOL    HW198375  11.200   2.355   2.220
98826SOL    HW298376  11.083   2.383   2.129
98827SOL     OW98377  13.605  10.290   7.255
98827SOL    HW198378  13.596  10.362   7.317
98827SOL    HW298379  13.560  10.320   7.176
98828SOL     OW98380   1.372   4.655   7.795
98828SOL    HW198381   1.468   4.654   7.784
98828SOL    HW298382   1.351   4.748   7.807
98829SOL     OW98383  11.630  13.251  13.940
98829SOL    HW198384  11.581  13.307  13.879
98829SOL    HW298385  11.640  13.168  13.893
98830SOL     OW98386   3.225  10.806   1.278
98830SOL    HW198387   3.165  10.768   1.342
98830SOL    HW298388   3.285  10.860   1.331
98831SOL     OW98389   9.423  10.963  13.877
98831SOL    HW198390   9.356  10.903  13.842
98831SOL    HW298391   9.439  11.025  13.806
98832SOL     OW98392   9.423   6.766   0.944
98832SOL    HW198393   9.423   6.691   1.003
98832SOL    HW298394   9.429   6.842   1.001
98833SOL     OW98395  12.137  10.168   5.417
98833SOL    HW198396  12.190  10.088   5.417
98833SOL    HW298397  12.113  10.181   5.509
98834SOL     OW98398   2.147   8.289   5.234
98834SOL    HW198399   2.224   8.311   5.287
98834SOL    HW298400   2.116   8.206   5.272
98835SOL     OW98401   8.690   0.558   0.948
98835SOL    HW198402   8.747   0.611   0.892
98835SOL    HW298403   8.665   0.618   1.018
98836SOL     OW98404   8.675  12.557  13.067
98836SOL    HW198405   8.668  12.613  12.990
98836SOL    HW298406   8.633  12.608  13.137
98837SOL     OW98407  12.179   7.772   6.832
98837SOL    HW198408  12.166   7.708   6.762
98837SOL    HW298409  12.098   7.770   6.882
98838SOL     OW98410  13.884   6.159   7.294
98838SOL    HW198411  13.816   6.121   7.239
98838SOL    HW298412  13.926   6.224   7.238
98839SOL     OW98413  14.388   0.626   0.892
98839SOL    HW198414  14.342   0.564   0.949
98839SOL    HW298415  14.458   0.574   0.853
98840SOL     OW98416   1.603  11.696  13.380
98840SOL    HW198417   1.555  11.653  13.452
98840SOL    HW298418   1.652  11.767  13.423
98841SOL     OW98419  13.183  13.055  13.698
98841SOL    HW198420  13.237  13.023  13.626
98841SOL    HW298421  13.096  13.068  13.659
98842SOL     OW98422  12.834   5.724   8.043
98842SOL    HW198423  12.755   5.724   8.097
98842SOL    HW298424  12.895   5.781   8.090
98843SOL     OW98425  12.400   6.076   1.947
98843SOL    HW198426  12.441   6.131   1.880
98843SOL    HW298427  12.418   6.121   2.029
98844SOL     OW98428  13.482   6.492   8.571
98844SOL    HW198429  13.549   6.500   8.504
98844SOL    HW298430  13.428   6.571   8.560
98845SOL     OW98431  14.265   9.564   3.700
98845SOL    HW198432  14.174   9.588   3.686
98845SOL    HW298433  14.287   9.605   3.784
98846SOL     OW98434  10.234  10.848   1.743
98846SOL    HW198435  10.322  10.885   1.735
98846SOL    HW298436  10.221  10.798   1.663
98847SOL     OW98437   5.251   1.293   3.258
98847SOL    HW198438   5.241   1.373   3.206
98847SOL    HW298439   5.342   1.294   3.287
98848SOL     OW98440   8.184  10.736   2.690
98848SOL    HW198441   8.231  10.796   2.748
98848SOL    HW298442   8.240  10.728   2.613
98849SOL     OW98443   9.170  12.878   8.156
98849SOL    HW198444   9.141  12.907   8.070
98849SOL    HW298445   9.180  12.959   8.206
98850SOL     OW98446   4.867  10.578  11.450
98850SOL    HW198447   4.949  10.565  11.403
98850SOL    HW298448   4.799  10.574  11.382
98851SOL     OW98449  14.460   6.885   6.504
98851SOL    HW198450  14.378   6.935   6.499
98851SOL    HW298451  14.466   6.841   6.419
98852SOL     OW98452   2.078   0.262  11.980
98852SOL    HW198453   2.161   0.258  11.932
98852SOL    HW298454   2.101   0.243  12.070
98853SOL     OW98455   0.370  14.877  14.460
98853SOL    HW198456   0.436  14.848  14.398
98853SOL    HW298457   0.414   0.062  14.512
98854SOL     OW98458  14.113  10.069  14.543
98854SOL    HW198459  14.061  10.012  14.486
98854SOL    HW298460  14.077  10.055  14.630
98855SOL     OW98461   9.432  10.160  11.436
98855SOL    HW198462   9.425  10.233  11.497
98855SOL    HW298463   9.404  10.084  11.487
98856SOL     OW98464  11.847   4.932   1.472
98856SOL    HW198465  11.806   5.011   1.437
98856SOL    HW298466  11.810   4.923   1.560
98857SOL     OW98467   1.605  12.580   1.736
98857SOL    HW198468   1.605  12.500   1.789
98857SOL    HW298469   1.620  12.550   1.646
98858SOL     OW98470   5.724   9.167   6.146
98858SOL    HW198471   5.672   9.234   6.190
98858SOL    HW298472   5.720   9.091   6.204
98859SOL     OW98473   6.195   9.985   5.667
98859SOL    HW198474   6.274   9.967   5.617
98859SOL    HW298475   6.202   9.928   5.744
98860SOL     OW98476  14.769   5.265   8.927
98860SOL    HW198477  14.699   5.240   8.867
98860SOL    HW298478  14.743   5.351   8.959
98861SOL     OW98479   0.651  11.767  12.859
98861SOL    HW198480   0.676  11.710  12.933
98861SOL    HW298481   0.644  11.854  12.897
98862SOL     OW98482  12.598   6.775   6.169
98862SOL    HW198483  12.530   6.839   6.149
98862SOL    HW298484  12.676   6.808   6.125
98863SOL     OW98485  14.028   5.881   9.632
98863SOL    HW198486  13.988   5.813   9.685
98863SOL    HW298487  14.007   5.857   9.542
98864SOL     OW98488  11.802  10.675  12.133
98864SOL    HW198489  11.713  10.650  12.158
98864SOL    HW298490  11.855  10.597  12.152
98865SOL     OW98491   9.969  14.288  12.566
98865SOL    HW198492   9.886  14.329  12.589
98865SOL    HW298493   9.952  14.244  12.483
98866SOL     OW98494   9.802   3.166   3.724
98866SOL    HW198495   9.871   3.180   3.659
98866SOL    HW298496   9.720   3.179   3.676
98867SOL     OW98497   5.133   6.862  11.522
98867SOL    HW198498   5.096   6.932  11.468
98867SOL    HW298499   5.221   6.847  11.486
98868SOL     OW98500   5.879   9.099   1.932
98868SOL    HW198501   5.910   9.079   2.021
98868SOL    HW298502   5.795   9.142   1.945
98869SOL     OW98503   0.889   8.149   1.923
98869SOL    HW198504   0.930   8.221   1.875
98869SOL    HW298505   0.869   8.186   2.009
98870SOL     OW98506  12.269   0.273   6.997
98870SOL    HW198507  12.233   0.185   7.006
98870SOL    HW298508  12.193   0.331   7.005
98871SOL     OW98509   9.513  13.081  12.489
98871SOL    HW198510   9.448  13.151  12.479
98871SOL    HW298511   9.523  13.070  12.583
98872SOL     OW98512   9.863   7.417   8.425
98872SOL    HW198513   9.884   7.498   8.379
98872SOL    HW298514   9.794   7.377   8.372
98873SOL     OW98515  12.129   6.039   9.617
98873SOL    HW198516  12.044   6.046   9.572
98873SOL    HW298517  12.155   5.948   9.603
98874SOL     OW98518  14.680   4.279  14.872
98874SOL    HW198519  14.652   4.362  14.833
98874SOL    HW298520  14.641   4.212  14.816
98875SOL     OW98521   0.602  10.128   8.265
98875SOL    HW198522   0.584  10.198   8.327
98875SOL    HW298523   0.641  10.173   8.189
98876SOL     OW98524   5.957  14.458  12.664
98876SOL    HW198525   5.951  14.397  12.737
98876SOL    HW298526   5.889  14.429  12.603
98877SOL     OW98527   2.273   6.869  14.041
98877SOL    HW198528   2.229   6.953  14.027
98877SOL    HW298529   2.323   6.855  13.960
98878SOL     OW98530  10.943   7.380   1.527
98878SOL    HW198531  10.998   7.308   1.560
98878SOL    HW298532  10.947   7.447   1.595
98879SOL     OW98533   4.866  13.439   5.816
98879SOL    HW198534   4.829  13.403   5.735
98879SOL    HW298535   4.899  13.362   5.863
98880SOL     OW98536   6.352  12.869   5.779
98880SOL    HW198537   6.270  12.874   5.828
98880SOL    HW298538   6.391  12.956   5.789
98881SOL     OW98539   5.734  10.391   1.602
98881SOL    HW198540   5.726  10.473   1.553
98881SOL    HW298541   5.679  10.404   1.679
98882SOL     OW98542  14.473   6.702  11.721
98882SOL    HW198543  14.389   6.682  11.763
98882SOL    HW298544  14.450   6.730  11.632
98883SOL     OW98545   6.119   7.420   1.711
98883SOL    HW198546   6.134   7.515   1.716
98883SOL    HW298547   6.074   7.408   1.627
98884SOL     OW98548  11.743   8.170   5.700
98884SOL    HW198549  11.674   8.141   5.760
98884SOL    HW298550  11.742   8.105   5.629
98885SOL     OW98551   8.812   7.605   0.688
98885SOL    HW198552   8.846   7.640   0.606
98885SOL    HW298553   8.834   7.671   0.753
98886SOL     OW98554   5.720   4.876   8.208
98886SOL    HW198555   5.747   4.911   8.293
98886SOL    HW298556   5.625   4.869   8.213
98887SOL     OW98557  14.278  10.152  13.908
98887SOL    HW198558  14.222  10.224  13.880
98887SOL    HW298559  14.226  10.103  13.971
98888SOL     OW98560   9.570   4.641  13.973
98888SOL    HW198561   9.604   4.551  13.971
98888SOL    HW298562   9.639   4.694  13.934
98889SOL     OW98563  13.468   6.758  10.891
98889SOL    HW198564  13.485   6.834  10.834
98889SOL    HW298565  13.445   6.797  10.975
98890SOL     OW98566  12.472   2.599   1.273
98890SOL    HW198567  12.531   2.598   1.197
98890SOL    HW298568  12.482   2.687   1.310
98891SOL     OW98569   0.236  10.899   2.663
98891SOL    HW198570   0.331  10.906   2.671
98891SOL    HW298571   0.203  10.911   2.752
98892SOL     OW98572   8.445   2.762   6.156
98892SOL    HW198573   8.499   2.774   6.078
98892SOL    HW298574   8.492   2.808   6.225
98893SOL     OW98575  11.968   0.996   2.587
98893SOL    HW198576  12.054   1.015   2.549
98893SOL    HW298577  11.924   0.941   2.521
98894SOL     OW98578   4.619   5.812   0.404
98894SOL    HW198579   4.689   5.788   0.465
98894SOL    HW298580   4.546   5.837   0.460
98895SOL     OW98581   1.626   7.831   6.782
98895SOL    HW198582   1.578   7.771   6.724
98895SOL    HW298583   1.559   7.890   6.816
98896SOL     OW98584   5.852  12.070   8.771
98896SOL    HW198585   5.913  11.997   8.787
98896SOL    HW298586   5.868  12.130   8.843
98897SOL     OW98587   9.079   4.590   7.158
98897SOL    HW198588   9.170   4.564   7.173
98897SOL    HW298589   9.069   4.587   7.063
98898SOL     OW98590   7.512   1.572  12.044
98898SOL    HW198591   7.566   1.508  12.090
98898SOL    HW298592   7.430   1.526  12.027
98899SOL     OW98593  12.996   4.361   3.826
98899SOL    HW198594  12.960   4.413   3.754
98899SOL    HW298595  12.975   4.270   3.803
98900SOL     OW98596   2.800   2.124  10.728
98900SOL    HW198597   2.713   2.153  10.757
98900SOL    HW298598   2.813   2.040  10.772
98901SOL     OW98599   3.044   4.072   8.582
98901SOL    HW198600   3.036   4.150   8.527
98901SOL    HW298601   2.961   4.067   8.629
98902SOL     OW98602  14.685   2.764  13.419
98902SOL    HW198603  14.593   2.755  13.392
98902SOL    HW298604  14.734   2.714  13.354
98903SOL     OW98605   2.946   5.345  14.797
98903SOL    HW198606   2.976   5.388  14.717
98903SOL    HW298607   2.927   5.255  14.770
98904SOL     OW98608  14.402   4.930  13.175
98904SOL    HW198609  14.465   5.002  13.174
98904SOL    HW298610  14.363   4.932  13.088
98905SOL     OW98611   2.779   1.249  12.256
98905SOL    HW198612   2.716   1.280  12.321
98905SOL    HW298613   2.850   1.210  12.307
98906SOL     OW98614  12.294   0.379  10.040
98906SOL    HW198615  12.342   0.408   9.963
98906SOL    HW298616  12.338   0.421  10.113
98907SOL     OW98617   2.535  13.431  14.800
98907SOL    HW198618   2.501  13.520  14.806
98907SOL    HW298619   2.596  13.433  14.727
98908SOL     OW98620   9.035   0.466   9.037
98908SOL    HW198621   8.939   0.469   9.036
98908SOL    HW298622   9.058   0.414   8.960
98909SOL     OW98623   5.114   4.051   1.943
98909SOL    HW198624   5.023   4.047   1.975
98909SOL    HW298625   5.110   4.011   1.856
98910SOL     OW98626  13.567   5.106   4.650
98910SOL    HW198627  13.635   5.052   4.610
98910SOL    HW298628  13.537   5.055   4.725
98911SOL     OW98629   0.647   3.591   1.124
98911SOL    HW198630   0.579   3.639   1.171
98911SOL    HW298631   0.673   3.521   1.184
98912SOL     OW98632   4.794  10.714  12.228
98912SOL    HW198633   4.888  10.694  12.230
98912SOL    HW298634   4.758  10.654  12.164
98913SOL     OW98635  11.459  14.463  12.286
98913SOL    HW198636  11.434  14.374  12.312
98913SOL    HW298637  11.415  14.476  12.202
98914SOL     OW98638   8.804   8.880   7.140
98914SOL    HW198639   8.872   8.839   7.086
98914SOL    HW298640   8.772   8.809   7.196
98915SOL     OW98641   7.819   2.268   6.217
98915SOL    HW198642   7.892   2.329   6.213
98915SOL    HW298643   7.834   2.218   6.297
98916SOL     OW98644   2.590   8.995   6.969
98916SOL    HW198645   2.620   8.908   6.995
98916SOL    HW298646   2.635   9.013   6.886
98917SOL     OW98647  13.635  14.064   6.254
98917SOL    HW198648  13.600  14.152   6.265
98917SOL    HW298649  13.597  14.033   6.172
98918SOL     OW98650  10.842   9.224   8.793
98918SOL    HW198651  10.773   9.180   8.742
98918SOL    HW298652  10.921   9.172   8.775
98919SOL     OW98653  13.713   2.324  12.731
98919SOL    HW198654  13.783   2.260  12.720
98919SOL    HW298655  13.664   2.293  12.806
98920SOL     OW98656  13.036   6.250   9.898
98920SOL    HW198657  12.983   6.324   9.926
98920SOL    HW298658  13.101   6.240   9.967
98921SOL     OW98659  12.028   7.960   9.736
98921SOL    HW198660  12.066   7.905   9.668
98921SOL    HW298661  12.055   8.049   9.712
98922SOL     OW98662   7.205  13.227   0.661
98922SOL    HW198663   7.226  13.136   0.680
98922SOL    HW298664   7.254  13.247   0.582
98923SOL     OW98665   6.110   5.805   6.644
98923SOL    HW198666   6.159   5.854   6.579
98923SOL    HW298667   6.146   5.833   6.728
98924SOL     OW98668  11.676   6.266   2.349
98924SOL    HW198669  11.690   6.358   2.372
98924SOL    HW298670  11.751   6.243   2.294
98925SOL     OW98671  11.589   1.607   8.814
98925SOL    HW198672  11.496   1.621   8.799
98925SOL    HW298673  11.603   1.515   8.791
98926SOL     OW98674  10.619   9.606   6.853
98926SOL    HW198675  10.680   9.665   6.898
98926SOL    HW298676  10.610   9.531   6.912
98927SOL     OW98677   5.814  11.240   5.396
98927SOL    HW198678   5.872  11.316   5.390
98927SOL    HW298679   5.819  11.213   5.488
98928SOL     OW98680  12.886   8.490   1.337
98928SOL    HW198681  12.859   8.529   1.420
98928SOL    HW298682  12.863   8.397   1.346
98929SOL     OW98683   9.937   7.587   5.898
98929SOL    HW198684  10.022   7.544   5.907
98929SOL    HW298685   9.945   7.668   5.948
98930SOL     OW98686  14.026  12.751   7.183
98930SOL    HW198687  14.027  12.809   7.260
98930SOL    HW298688  14.048  12.664   7.218
98931SOL     OW98689   9.728  10.947   9.539
98931SOL    HW198690   9.711  10.954   9.446
98931SOL    HW298691   9.643  10.964   9.580
98932SOL     OW98692  12.125   0.686  13.822
98932SOL    HW198693  12.196   0.748  13.842
98932SOL    HW298694  12.045   0.732  13.847
98933SOL     OW98695   8.131  10.169   2.759
98933SOL    HW198696   8.208  10.122   2.726
98933SOL    HW298697   8.071  10.101   2.788
98934SOL     OW98698   5.199   4.612   3.134
98934SOL    HW198699   5.189   4.706   3.146
98934SOL    HW298700   5.114   4.575   3.156
98935SOL     OW98701   0.123   0.119   6.862
98935SOL    HW198702   0.154   0.201   6.901
98935SOL    HW298703   0.201   0.077   6.827
98936SOL     OW98704  14.248  14.778   5.577
98936SOL    HW198705  14.159  14.744   5.587
98936SOL    HW298706  14.236  14.873   5.571
98937SOL     OW98707   9.744  12.363   3.068
98937SOL    HW198708   9.768  12.271   3.077
98937SOL    HW298709   9.814  12.401   3.014
98938SOL     OW98710   7.016   6.420   3.479
98938SOL    HW198711   7.083   6.445   3.542
98938SOL    HW298712   6.988   6.333   3.507
98939SOL     OW98713   7.160  14.107  14.182
98939SOL    HW198714   7.083  14.164  14.177
98939SOL    HW298715   7.152  14.049  14.107
98940SOL     OW98716   7.430  13.616  13.450
98940SOL    HW198717   7.393  13.653  13.530
98940SOL    HW298718   7.517  13.656  13.443
98941SOL     OW98719   9.874   7.859   9.940
98941SOL    HW198720   9.930   7.913   9.995
98941SOL    HW298721   9.787   7.869   9.978
98942SOL     OW98722   1.350  12.434   1.888
98942SOL    HW198723   1.312  12.514   1.852
98942SOL    HW298724   1.396  12.394   1.814
98943SOL     OW98725   1.595   3.962  13.932
98943SOL    HW198726   1.638   3.904  13.996
98943SOL    HW298727   1.507   3.926  13.922
98944SOL     OW98728  12.192  14.028   2.938
98944SOL    HW198729  12.108  14.070   2.959
98944SOL    HW298730  12.171  13.971   2.863
98945SOL     OW98731   6.275  10.503   0.724
98945SOL    HW198732   6.277  10.488   0.629
98945SOL    HW298733   6.329  10.433   0.760
98946SOL     OW98734   1.352   4.637   6.670
98946SOL    HW198735   1.318   4.559   6.626
98946SOL    HW298736   1.337   4.708   6.609
98947SOL     OW98737   2.509   0.891   9.344
98947SOL    HW198738   2.504   0.796   9.341
98947SOL    HW298739   2.435   0.921   9.291
98948SOL     OW98740   6.214  12.617   2.086
98948SOL    HW198741   6.245  12.654   2.004
98948SOL    HW298742   6.292  12.610   2.141
98949SOL     OW98743  13.782  13.045   6.866
98949SOL    HW198744  13.729  13.099   6.808
98949SOL    HW298745  13.772  13.084   6.952
98950SOL     OW98746  14.604  13.545   6.704
98950SOL    HW198747  14.692  13.538   6.668
98950SOL    HW298748  14.615  13.546   6.799
98951SOL     OW98749   5.789   6.676  12.592
98951SOL    HW198750   5.797   6.765  12.626
98951SOL    HW298751   5.783   6.621  12.670
98952SOL     OW98752   7.435   6.942   8.158
98952SOL    HW198753   7.379   6.993   8.099
98952SOL    HW298754   7.520   6.940   8.114
98953SOL     OW98755   7.514   6.782   2.871
98953SOL    HW198756   7.479   6.695   2.855
98953SOL    HW298757   7.521   6.789   2.966
98954SOL     OW98758   7.327  14.231   8.171
98954SOL    HW198759   7.261  14.229   8.241
98954SOL    HW298760   7.408  14.254   8.215
98955SOL     OW98761  10.394   2.749   7.608
98955SOL    HW198762  10.323   2.812   7.617
98955SOL    HW298763  10.436   2.772   7.525
98956SOL     OW98764   9.707   4.443  14.531
98956SOL    HW198765   9.668   4.432  14.445
98956SOL    HW298766   9.732   4.355  14.558
98957SOL     OW98767  14.132   6.974  11.118
98957SOL    HW198768  14.212   6.928  11.145
98957SOL    HW298769  14.162   7.038  11.054
98958SOL     OW98770   7.132  12.196   6.120
98958SOL    HW198771   7.159  12.136   6.051
98958SOL    HW298772   7.041  12.174   6.137
98959SOL     OW98773   6.252   3.100   2.072
98959SOL    HW198774   6.338   3.058   2.079
98959SOL    HW298775   6.199   3.059   2.141
98960SOL     OW98776   9.060  12.486   5.577
98960SOL    HW198777   8.993  12.468   5.642
98960SOL    HW298778   9.015  12.540   5.511
98961SOL     OW98779   1.991  10.597  12.752
98961SOL    HW198780   1.936  10.617  12.828
98961SOL    HW298781   2.039  10.679  12.735
98962SOL     OW98782   1.528  13.692   4.588
98962SOL    HW198783   1.495  13.607   4.558
98962SOL    HW298784   1.558  13.735   4.508
98963SOL     OW98785  11.131  12.394   4.001
98963SOL    HW198786  11.068  12.324   3.984
98963SOL    HW298787  11.178  12.404   3.918
98964SOL     OW98788   6.659  14.212  11.328
98964SOL    HW198789   6.704  14.286  11.369
98964SOL    HW298790   6.713  14.189  11.253
98965SOL     OW98791   8.413   2.431  11.756
98965SOL    HW198792   8.462   2.442  11.838
98965SOL    HW298793   8.442   2.346  11.723
98966SOL     OW98794  11.156  13.555  12.705
98966SOL    HW198795  11.091  13.527  12.640
98966SOL    HW298796  11.239  13.555  12.657
98967SOL     OW98797   6.203   3.195  13.061
98967SOL    HW198798   6.207   3.177  12.967
98967SOL    HW298799   6.290   3.172  13.093
98968SOL     OW98800  12.077   1.502  12.578
98968SOL    HW198801  12.114   1.589  12.560
98968SOL    HW298802  12.034   1.477  12.496
98969SOL     OW98803  10.688   0.287  10.306
98969SOL    HW198804  10.742   0.350  10.259
98969SOL    HW298805  10.749   0.243  10.365
98970SOL     OW98806  13.984  10.970   9.724
98970SOL    HW198807  13.901  11.012   9.700
98970SOL    HW298808  14.050  11.017   9.673
98971SOL     OW98809   3.948  10.276  11.382
98971SOL    HW198810   3.881  10.291  11.449
98971SOL    HW298811   3.971  10.184  11.391
98972SOL     OW98812   4.722   7.615   1.188
98972SOL    HW198813   4.797   7.561   1.212
98972SOL    HW298814   4.760   7.698   1.159
98973SOL     OW98815   2.507  14.597   8.523
98973SOL    HW198816   2.480  14.506   8.511
98973SOL    HW298817   2.599  14.592   8.548
98974SOL     OW98818   6.794   0.275  14.573
98974SOL    HW198819   6.870   0.219  14.561
98974SOL    HW298820   6.766   0.258  14.663
98975SOL     OW98821  14.241   9.531   7.555
98975SOL    HW198822  14.176   9.591   7.593
98975SOL    HW298823  14.242   9.456   7.614
98976SOL     OW98824   9.036  11.598  13.212
98976SOL    HW198825   9.079  11.680  13.238
98976SOL    HW298826   9.107  11.544  13.178
98977SOL     OW98827   6.074  10.579   0.898
98977SOL    HW198828   6.150  10.522   0.884
98977SOL    HW298829   6.106  10.667   0.877
98978SOL     OW98830   2.261   0.604   0.135
98978SOL    HW198831   2.297   0.680   0.089
98978SOL    HW298832   2.167   0.621   0.139
98979SOL     OW98833  10.072  14.208  13.377
98979SOL    HW198834  10.050  14.154  13.453
98979SOL    HW298835  10.135  14.271  13.410
98980SOL     OW98836   9.742   4.960  12.614
98980SOL    HW198837   9.743   4.880  12.561
98980SOL    HW298838   9.821   4.955  12.667
98981SOL     OW98839  13.022   4.781   7.787
98981SOL    HW198840  13.045   4.710   7.847
98981SOL    HW298841  13.047   4.861   7.834
98982SOL     OW98842  10.586   5.407  13.464
98982SOL    HW198843  10.581   5.480  13.526
98982SOL    HW298844  10.657   5.430  13.405
98983SOL     OW98845   0.877   5.132  14.734
98983SOL    HW198846   0.795   5.087  14.755
98983SOL    HW298847   0.885   5.124  14.639
98984SOL     OW98848   6.492  10.201   7.708
98984SOL    HW198849   6.570  10.256   7.704
98984SOL    HW298850   6.419  10.261   7.694
98985SOL     OW98851   3.592   6.968   2.979
98985SOL    HW198852   3.537   7.026   3.031
98985SOL    HW298853   3.565   6.879   3.004
98986SOL     OW98854   2.515  12.730   0.275
98986SOL    HW198855   2.577  12.801   0.257
98986SOL    HW298856   2.486  12.745   0.365
98987SOL     OW98857   5.618  12.064   5.579
98987SOL    HW198858   5.613  11.969   5.564
98987SOL    HW298859   5.540  12.099   5.538
98988SOL     OW98860  11.079   1.334  14.737
98988SOL    HW198861  11.097   1.299  14.824
98988SOL    HW298862  10.994   1.377  14.746
98989SOL     OW98863  11.206   9.076   6.789
98989SOL    HW198864  11.238   9.155   6.746
98989SOL    HW298865  11.114   9.071   6.766
98990SOL     OW98866   2.725  11.915   4.791
98990SOL    HW198867   2.716  11.821   4.802
98990SOL    HW298868   2.679  11.934   4.709
98991SOL     OW98869   8.022  14.535   9.167
98991SOL    HW198870   7.989  14.622   9.187
98991SOL    HW298871   8.045  14.498   9.253
98992SOL     OW98872   1.539   6.272   5.840
98992SOL    HW198873   1.551   6.278   5.935
98992SOL    HW298874   1.612   6.320   5.803
98993SOL     OW98875   9.745   8.875   0.606
98993SOL    HW198876   9.705   8.875   0.693
98993SOL    HW298877   9.679   8.833   0.550
98994SOL     OW98878   7.499  14.202   8.847
98994SOL    HW198879   7.591  14.178   8.858
98994SOL    HW298880   7.494  14.236   8.757
98995SOL     OW98881   7.893   2.869   2.302
98995SOL    HW198882   7.811   2.820   2.302
98995SOL    HW298883   7.962   2.802   2.293
98996SOL     OW98884  10.301  14.684  14.831
98996SOL    HW198885  10.235  14.629  14.873
98996SOL    HW298886  10.277  14.685  14.738
98997SOL     OW98887  12.392   3.364   3.365
98997SOL    HW198888  12.412   3.351   3.273
98997SOL    HW298889  12.340   3.287   3.389
98998SOL     OW98890   8.634   6.615   2.757
98998SOL    HW198891   8.551   6.569   2.772
98998SOL    HW298892   8.639   6.678   2.829
98999SOL     OW98893  12.940   2.436  12.579
98999SOL    HW198894  12.971   2.520  12.614
98999SOL    HW298895  12.882   2.402  12.647
99000SOL     OW98896   7.505   2.689   6.635
99000SOL    HW198897   7.457   2.624   6.583
99000SOL    HW298898   7.595   2.656   6.639
99001SOL     OW98899   2.890   2.094  14.353
99001SOL    HW198900   2.805   2.051  14.355
99001SOL    HW298901   2.917   2.090  14.261
99002SOL     OW98902  10.163  13.029   8.811
99002SOL    HW198903  10.150  12.953   8.867
99002SOL    HW298904  10.249  13.016   8.771
99003SOL     OW98905   4.320   4.378  14.308
99003SOL    HW198906   4.256   4.362  14.378
99003SOL    HW298907   4.383   4.438  14.347
99004SOL     OW98908   2.781   1.573  11.148
99004SOL    HW198909   2.827   1.656  11.145
99004SOL    HW298910   2.721   1.581  11.223
99005SOL     OW98911   0.534   3.210  14.830
99005SOL    HW198912   0.560   3.156   0.022
99005SOL    HW298913   0.616   3.252  14.802
99006SOL     OW98914   9.607   2.364   5.989
99006SOL    HW198915   9.665   2.316   5.931
99006SOL    HW298916   9.533   2.305   6.003
99007SOL     OW98917   4.247   5.464  11.324
99007SOL    HW198918   4.228   5.438  11.234
99007SOL    HW298919   4.341   5.453  11.333
99008SOL     OW98920  14.475   2.929  10.594
99008SOL    HW198921  14.536   2.956  10.662
99008SOL    HW298922  14.393   2.911  10.641
99009SOL     OW98923   2.864   7.069   5.758
99009SOL    HW198924   2.849   7.121   5.679
99009SOL    HW298925   2.900   7.131   5.822
99010SOL     OW98926   8.851   4.691  10.933
99010SOL    HW198927   8.757   4.704  10.944
99010SOL    HW298928   8.859   4.612  10.879
99011SOL     OW98929  13.484   0.838   2.806
99011SOL    HW198930  13.404   0.885   2.782
99011SOL    HW298931  13.484   0.761   2.749
99012SOL     OW98932   6.127   8.816   4.240
99012SOL    HW198933   6.044   8.835   4.196
99012SOL    HW298934   6.111   8.733   4.285
99013SOL     OW98935  12.294   3.748   3.798
99013SOL    HW198936  12.214   3.781   3.756
99013SOL    HW298937  12.358   3.819   3.787
99014SOL     OW98938   9.921   7.068   3.643
99014SOL    HW198939   9.934   6.989   3.696
99014SOL    HW298940   9.887   7.133   3.705
99015SOL     OW98941   1.145  10.811   1.317
99015SOL    HW198942   1.148  10.762   1.400
99015SOL    HW298943   1.175  10.899   1.340
99016SOL     OW98944   0.255  14.146  11.191
99016SOL    HW198945   0.290  14.091  11.261
99016SOL    HW298946   0.330  14.198  11.163
99017SOL     OW98947   3.479   9.247  14.687
99017SOL    HW198948   3.522   9.177  14.735
99017SOL    HW298949   3.518   9.244  14.599
99018SOL     OW98950   6.328  10.641   3.492
99018SOL    HW198951   6.383  10.701   3.543
99018SOL    HW298952   6.356  10.554   3.521
99019SOL     OW98953   7.928  13.634  13.846
99019SOL    HW198954   7.972  13.563  13.891
99019SOL    HW298955   7.949  13.621  13.754
99020SOL     OW98956  13.472   0.965   1.221
99020SOL    HW198957  13.435   0.885   1.260
99020SOL    HW298958  13.398   1.025   1.214
99021SOL     OW98959  11.514   3.647  12.730
99021SOL    HW198960  11.505   3.740  12.709
99021SOL    HW298961  11.484   3.602  12.651
99022SOL     OW98962   2.850   3.636  13.370
99022SOL    HW198963   2.891   3.578  13.434
99022SOL    HW298964   2.792   3.579  13.320
99023SOL     OW98965  10.349   6.924   1.638
99023SOL    HW198966  10.396   6.841   1.628
99023SOL    HW298967  10.404   6.989   1.595
99024SOL     OW98968   8.974   3.376   4.758
99024SOL    HW198969   8.893   3.325   4.760
99024SOL    HW298970   8.963   3.440   4.828
99025SOL     OW98971   7.417  11.941  14.358
99025SOL    HW198972   7.501  11.985  14.369
99025SOL    HW298973   7.429  11.884  14.283
99026SOL     OW98974   9.514  10.820   7.906
99026SOL    HW198975   9.610  10.822   7.905
99026SOL    HW298976   9.492  10.737   7.863
99027SOL     OW98977   7.470   0.061  13.340
99027SOL    HW198978   7.418   0.104  13.409
99027SOL    HW298979   7.414   0.063  13.263
99028SOL     OW98980  12.992   1.639   3.787
99028SOL    HW198981  12.931   1.647   3.713
99028SOL    HW298982  12.946   1.583   3.850
99029SOL     OW98983   6.979   4.299  10.124
99029SOL    HW198984   6.983   4.213  10.083
99029SOL    HW298985   7.063   4.307  10.170
99030SOL     OW98986   7.990   0.131   1.916
99030SOL    HW198987   7.907   0.114   1.961
99030SOL    HW298988   7.970   0.203   1.856
99031SOL     OW98989   4.999   8.199   8.197
99031SOL    HW198990   4.996   8.188   8.103
99031SOL    HW298991   5.054   8.127   8.228
99032SOL     OW98992   0.757   3.940   7.165
99032SOL    HW198993   0.795   3.994   7.235
99032SOL    HW298994   0.790   3.851   7.183
99033SOL     OW98995  11.129  10.859  14.112
99033SOL    HW198996  11.147  10.785  14.054
99033SOL    HW298997  11.174  10.933  14.070
99034SOL     OW98998   7.724   7.343   3.106
99034SOL    HW198999   7.639   7.353   3.149
99034SOL    HW299000   7.785   7.323   3.177
99035SOL     OW99001  13.628  10.307   1.307
99035SOL    HW199002  13.580  10.390   1.313
99035SOL    HW299003  13.623  10.270   1.395
99036SOL     OW99004  11.675   8.066   6.938
99036SOL    HW199005  11.675   8.136   6.873
99036SOL    HW299006  11.728   8.100   7.010
99037SOL     OW99007  10.892   0.610   6.120
99037SOL    HW199008  10.911   0.698   6.152
99037SOL    HW299009  10.938   0.551   6.180
99038SOL     OW99010   6.144   2.509   4.943
99038SOL    HW199011   6.116   2.423   4.911
99038SOL    HW299012   6.139   2.566   4.866
99039SOL     OW99013   8.559  14.470   3.360
99039SOL    HW199014   8.575  14.376   3.373
99039SOL    HW299015   8.516  14.498   3.440
99040SOL     OW99016   5.678   2.514  13.631
99040SOL    HW199017   5.694   2.587  13.571
99040SOL    HW299018   5.752   2.455  13.617
99041SOL     OW99019  12.360  14.146  13.101
99041SOL    HW199020  12.349  14.056  13.069
99041SOL    HW299021  12.274  14.186  13.093
99042SOL     OW99022  10.411   5.377   4.802
99042SOL    HW199023  10.498   5.373   4.842
99042SOL    HW299024  10.397   5.289   4.767
99043SOL     OW99025   9.517  13.786   1.326
99043SOL    HW199026   9.473  13.732   1.260
99043SOL    HW299027   9.610  13.767   1.314
99044SOL     OW99028   3.179   8.428   1.637
99044SOL    HW199029   3.153   8.515   1.610
99044SOL    HW299030   3.174   8.374   1.558
99045SOL     OW99031   8.830   5.297   6.297
99045SOL    HW199032   8.844   5.285   6.390
99045SOL    HW299033   8.891   5.366   6.271
99046SOL     OW99034   5.735   2.126   2.592
99046SOL    HW199035   5.830   2.114   2.601
99046SOL    HW299036   5.716   2.206   2.641
99047SOL     OW99037   2.447   4.871  12.126
99047SOL    HW199038   2.431   4.959  12.161
99047SOL    HW299039   2.444   4.882  12.031
99048SOL     OW99040   9.294   9.801   5.587
99048SOL    HW199041   9.266   9.881   5.544
99048SOL    HW299042   9.341   9.830   5.665
99049SOL     OW99043   6.127  13.682  14.480
99049SOL    HW199044   6.061  13.663  14.547
99049SOL    HW299045   6.081  13.737  14.416
99050SOL     OW99046   1.072  14.091  13.814
99050SOL    HW199047   1.143  14.027  13.823
99050SOL    HW299048   0.993  14.040  13.831
99051SOL     OW99049  11.712   8.003   4.867
99051SOL    HW199050  11.657   7.986   4.943
99051SOL    HW299051  11.676   7.947   4.799
99052SOL     OW99052   9.424   1.657  11.625
99052SOL    HW199053   9.346   1.671  11.572
99052SOL    HW299054   9.497   1.664  11.563
99053SOL     OW99055   2.689  13.221   7.071
99053SOL    HW199056   2.667  13.171   6.993
99053SOL    HW299057   2.643  13.176   7.142
99054SOL     OW99058  12.286   4.740   6.195
99054SOL    HW199059  12.194   4.719   6.209
99054SOL    HW299060  12.289   4.780   6.107
99055SOL     OW99061  13.911   3.899  12.764
99055SOL    HW199062  13.870   3.964  12.707
99055SOL    HW299063  14.002   3.929  12.773
99056SOL     OW99064   1.756   5.671  10.201
99056SOL    HW199065   1.782   5.634  10.286
99056SOL    HW299066   1.692   5.739  10.223
99057SOL     OW99067   3.853   9.767  12.403
99057SOL    HW199068   3.948   9.768  12.389
99057SOL    HW299069   3.837   9.842  12.460
99058SOL     OW99070   5.389   3.141   5.224
99058SOL    HW199071   5.370   3.048   5.236
99058SOL    HW299072   5.468   3.143   5.170
99059SOL     OW99073  11.270  11.298  13.121
99059SOL    HW199074  11.291  11.206  13.110
99059SOL    HW299075  11.178  11.306  13.096
99060SOL     OW99076   9.949  10.526   5.067
99060SOL    HW199077  10.036  10.514   5.029
99060SOL    HW299078   9.921  10.612   5.038
99061SOL     OW99079   6.552   2.807   1.783
99061SOL    HW199080   6.618   2.739   1.788
99061SOL    HW299081   6.601   2.889   1.787
99062SOL     OW99082   0.271  13.786  12.038
99062SOL    HW199083   0.284  13.692  12.020
99062SOL    HW299084   0.360  13.821  12.046
99063SOL     OW99085   8.799   6.066   5.506
99063SOL    HW199086   8.752   6.128   5.561
99063SOL    HW299087   8.755   5.982   5.522
99064SOL     OW99088  10.458   3.140   1.803
99064SOL    HW199089  10.438   3.109   1.891
99064SOL    HW299090  10.548   3.112   1.787
99065SOL     OW99091   1.280   4.471   9.069
99065SOL    HW199092   1.344   4.426   9.124
99065SOL    HW299093   1.271   4.558   9.109
99066SOL     OW99094   9.021  13.693   6.901
99066SOL    HW199095   8.949  13.756   6.904
99066SOL    HW299096   9.054  13.698   6.811
99067SOL     OW99097   6.632   9.396   6.480
99067SOL    HW199098   6.604   9.339   6.408
99067SOL    HW299099   6.630   9.339   6.558
99068SOL     OW99100   8.066   9.532   0.149
99068SOL    HW199101   8.127   9.559   0.218
99068SOL    HW299102   8.108   9.457   0.108
99069SOL     OW99103   1.550   8.682   0.495
99069SOL    HW199104   1.464   8.724   0.504
99069SOL    HW299105   1.544   8.631   0.414
99070SOL     OW99106   5.622   5.795   0.208
99070SOL    HW199107   5.627   5.733   0.281
99070SOL    HW299108   5.713   5.808   0.180
99071SOL     OW99109   7.106   7.199  10.881
99071SOL    HW199110   7.091   7.170  10.791
99071SOL    HW299111   7.087   7.293  10.879
99072SOL     OW99112  12.450   0.803  12.016
99072SOL    HW199113  12.523   0.762  12.062
99072SOL    HW299114  12.452   0.895  12.043
99073SOL     OW99115   1.826   4.754   4.168
99073SOL    HW199116   1.772   4.763   4.246
99073SOL    HW299117   1.800   4.828   4.113
99074SOL     OW99118   3.908   2.404  14.437
99074SOL    HW199119   3.951   2.371  14.515
99074SOL    HW299120   3.832   2.453  14.469
99075SOL     OW99121  14.818   2.008  11.935
99075SOL    HW199122   0.019   1.964  11.917
99075SOL    HW299123  14.757   1.971  11.871
99076SOL     OW99124   2.083   8.330  13.335
99076SOL    HW199125   2.083   8.305  13.427
99076SOL    HW299126   2.038   8.415  13.333
99077SOL     OW99127   2.471   4.354  12.836
99077SOL    HW199128   2.378   4.368  12.816
99077SOL    HW299129   2.489   4.266  12.804
99078SOL     OW99130   7.901   0.330   9.563
99078SOL    HW199131   7.989   0.295   9.547
99078SOL    HW299132   7.904   0.419   9.528
99079SOL     OW99133   1.747   9.190  13.351
99079SOL    HW199134   1.678   9.153  13.407
99079SOL    HW299135   1.825   9.141  13.374
99080SOL     OW99136  14.193   5.618  11.714
99080SOL    HW199137  14.187   5.711  11.692
99080SOL    HW299138  14.238   5.578  11.640
99081SOL     OW99139   5.219   1.889   2.047
99081SOL    HW199140   5.173   1.820   2.094
99081SOL    HW299141   5.289   1.844   2.000
99082SOL     OW99142  11.974   6.135   5.127
99082SOL    HW199143  11.897   6.192   5.129
99082SOL    HW299144  12.027   6.167   5.054
99083SOL     OW99145   4.016   9.768   0.487
99083SOL    HW199146   4.019   9.725   0.572
99083SOL    HW299147   3.923   9.785   0.472
99084SOL     OW99148   4.874   5.110  13.843
99084SOL    HW199149   4.793   5.134  13.798
99084SOL    HW299150   4.850   5.033  13.895
99085SOL     OW99151   4.260  11.981   0.241
99085SOL    HW199152   4.214  11.989   0.325
99085SOL    HW299153   4.309  11.900   0.248
99086SOL     OW99154   2.725   1.599  10.484
99086SOL    HW199155   2.753   1.622  10.573
99086SOL    HW299156   2.799   1.550  10.448
99087SOL     OW99157  13.962   8.635  13.007
99087SOL    HW199158  13.971   8.589  13.091
99087SOL    HW299159  13.970   8.565  12.941
99088SOL     OW99160   5.242  13.802   4.500
99088SOL    HW199161   5.222  13.882   4.452
99088SOL    HW299162   5.246  13.734   4.433
99089SOL     OW99163   8.326  11.266   7.543
99089SOL    HW199164   8.307  11.173   7.531
99089SOL    HW299165   8.382  11.269   7.621
99090SOL     OW99166   8.592   1.088   8.870
99090SOL    HW199167   8.663   1.112   8.811
99090SOL    HW299168   8.525   1.051   8.813
99091SOL     OW99169   3.243   6.918   3.007
99091SOL    HW199170   3.225   6.950   3.096
99091SOL    HW299171   3.210   6.987   2.950
99092SOL     OW99172  12.562   3.891   0.679
99092SOL    HW199173  12.587   3.805   0.645
99092SOL    HW299174  12.595   3.952   0.614
99093SOL     OW99175   0.131   3.538  11.965
99093SOL    HW199176   0.223   3.512  11.961
99093SOL    HW299177   0.126   3.602  12.035
99094SOL     OW99178   9.920  12.606  13.522
99094SOL    HW199179   9.835  12.580  13.487
99094SOL    HW299180   9.963  12.523  13.543
99095SOL     OW99181   8.046  11.204   9.776
99095SOL    HW199182   8.107  11.140   9.811
99095SOL    HW299183   8.050  11.277   9.838
99096SOL     OW99184   9.643   2.729  10.975
99096SOL    HW199185   9.640   2.634  10.991
99096SOL    HW299186   9.590   2.766  11.046
99097SOL     OW99187   1.800  11.578   7.235
99097SOL    HW199188   1.868  11.534   7.183
99097SOL    HW299189   1.785  11.660   7.189
99098SOL     OW99190   2.610   6.607   8.871
99098SOL    HW199191   2.669   6.682   8.867
99098SOL    HW299192   2.530   6.641   8.909
99099SOL     OW99193   8.662  14.650   2.743
99099SOL    HW199194   8.607  14.606   2.808
99099SOL    HW299195   8.642  14.605   2.661
99100SOL     OW99196  10.565   6.967   0.279
99100SOL    HW199197  10.643   7.004   0.238
99100SOL    HW299198  10.500   6.963   0.209
99101SOL     OW99199   7.116   6.333   5.617
99101SOL    HW199200   7.123   6.245   5.579
99101SOL    HW299201   7.024   6.343   5.639
99102SOL     OW99202   6.448   0.081   0.517
99102SOL    HW199203   6.479   0.102   0.605
99102SOL    HW299204   6.506   0.012   0.487
99103SOL     OW99205   4.872  11.681   9.838
99103SOL    HW199206   4.790  11.637   9.817
99103SOL    HW299207   4.905  11.713   9.753
99104SOL     OW99208   7.523  14.313   0.525
99104SOL    HW199209   7.449  14.374   0.525
99104SOL    HW299210   7.511  14.261   0.446
99105SOL     OW99211   2.126   0.272  14.190
99105SOL    HW199212   2.120   0.357  14.233
99105SOL    HW299213   2.197   0.226  14.236
99106SOL     OW99214   3.831  13.226   0.818
99106SOL    HW199215   3.900  13.217   0.753
99106SOL    HW299216   3.839  13.149   0.873
99107SOL     OW99217  10.300   9.489   5.400
99107SOL    HW199218  10.361   9.436   5.349
99107SOL    HW299219  10.355   9.538   5.460
99108SOL     OW99220  10.283  11.116  10.904
99108SOL    HW199221  10.225  11.069  10.844
99108SOL    HW299222  10.235  11.116  10.987
99109SOL     OW99223   9.496   7.877   1.509
99109SOL    HW199224   9.482   7.904   1.600
99109SOL    HW299225   9.585   7.907   1.489
99110SOL     OW99226   0.728   6.539   4.039
99110SOL    HW199227   0.791   6.495   3.983
99110SOL    HW299228   0.701   6.473   4.103
99111SOL     OW99229   6.496  13.417  11.920
99111SOL    HW199230   6.505  13.476  11.995
99111SOL    HW299231   6.494  13.475  11.844
99112SOL     OW99232  12.374  14.418  14.046
99112SOL    HW199233  12.371  14.513  14.035
99112SOL    HW299234  12.389  14.385  13.957
99113SOL     OW99235   4.035   1.839   2.347
99113SOL    HW199236   3.948   1.871   2.372
99113SOL    HW299237   4.024   1.810   2.256
99114SOL     OW99238   1.587  12.311   2.635
99114SOL    HW199239   1.631  12.278   2.557
99114SOL    HW299240   1.629  12.266   2.708
99115SOL     OW99241  12.524   3.986  10.249
99115SOL    HW199242  12.608   4.031  10.238
99115SOL    HW299243  12.466   4.052  10.287
99116SOL     OW99244   4.670  13.233   0.606
99116SOL    HW199245   4.690  13.162   0.667
99116SOL    HW299246   4.755  13.257   0.568
99117SOL     OW99247   7.147   0.049  10.302
99117SOL    HW199248   7.085   0.007  10.362
99117SOL    HW299249   7.124   0.142  10.304
99118SOL     OW99250   9.078   2.874  12.484
99118SOL    HW199251   9.111   2.866  12.574
99118SOL    HW299252   8.983   2.865  12.493
99119SOL     OW99253  11.797   3.516   4.519
99119SOL    HW199254  11.754   3.439   4.481
99119SOL    HW299255  11.788   3.583   4.453
99120SOL     OW99256  13.014   1.363  11.583
99120SOL    HW199257  13.005   1.348  11.489
99120SOL    HW299258  12.969   1.290  11.624
99121SOL     OW99259   2.131   3.276  11.626
99121SOL    HW199260   2.051   3.329  11.629
99121SOL    HW299261   2.194   3.324  11.679
99122SOL     OW99262   5.363   3.292  13.881
99122SOL    HW199263   5.377   3.275  13.974
99122SOL    HW299264   5.406   3.220  13.836
99123SOL     OW99265  12.017   5.173   3.177
99123SOL    HW199266  11.994   5.166   3.269
99123SOL    HW299267  12.098   5.122   3.168
99124SOL     OW99268  11.155  12.759   5.033
99124SOL    HW199269  11.130  12.781   4.943
99124SOL    HW299270  11.212  12.683   5.024
99125SOL     OW99271   7.729  12.680   2.968
99125SOL    HW199272   7.799  12.680   3.033
99125SOL    HW299273   7.693  12.591   2.973
99126SOL     OW99274   7.939   1.506   5.207
99126SOL    HW199275   7.921   1.578   5.146
99126SOL    HW299276   7.921   1.543   5.294
99127SOL     OW99277  12.312   6.479  14.105
99127SOL    HW199278  12.312   6.437  14.191
99127SOL    HW299279  12.247   6.549  14.113
99128SOL     OW99280   0.834   2.606   4.292
99128SOL    HW199281   0.773   2.604   4.366
99128SOL    HW299282   0.796   2.546   4.228
99129SOL     OW99283   4.931   1.847  10.304
99129SOL    HW199284   4.882   1.914  10.256
99129SOL    HW299285   5.021   1.857  10.274
99130SOL     OW99286  11.366  13.972   1.038
99130SOL    HW199287  11.458  13.951   1.055
99130SOL    HW299288  11.328  13.889   1.009
99131SOL     OW99289  12.703   5.868  12.264
99131SOL    HW199290  12.658   5.821  12.195
99131SOL    HW299291  12.645   5.942  12.285
99132SOL     OW99292   0.778   8.041  14.601
99132SOL    HW199293   0.800   7.953  14.633
99132SOL    HW299294   0.684   8.036  14.583
99133SOL     OW99295   3.268  11.599   0.170
99133SOL    HW199296   3.182  11.605   0.212
99133SOL    HW299297   3.310  11.524   0.212
99134SOL     OW99298   2.432   9.389  11.993
99134SOL    HW199299   2.401   9.305  11.959
99134SOL    HW299300   2.510   9.408  11.943
99135SOL     OW99301   2.661   7.096  10.140
99135SOL    HW199302   2.647   7.044  10.061
99135SOL    HW299303   2.745   7.140  10.126
99136SOL     OW99304   7.868  13.698   7.641
99136SOL    HW199305   7.830  13.775   7.599
99136SOL    HW299306   7.962  13.716   7.645
99137SOL     OW99307  11.902  13.705  14.725
99137SOL    HW199308  11.879  13.635  14.664
99137SOL    HW299309  11.852  13.781  14.693
99138SOL     OW99310  12.908  11.131   6.389
99138SOL    HW199311  12.898  11.226   6.400
99138SOL    HW299312  12.989  11.121   6.339
99139SOL     OW99313  14.228   0.222   1.398
99139SOL    HW199314  14.142   0.236   1.438
99139SOL    HW299315  14.212   0.225   1.304
99140SOL     OW99316   4.787   4.552  12.791
99140SOL    HW199317   4.880   4.568  12.809
99140SOL    HW299318   4.754   4.513  12.871
99141SOL     OW99319   9.828   9.842   6.781
99141SOL    HW199320   9.840   9.937   6.772
99141SOL    HW299321   9.846   9.807   6.694
99142SOL     OW99322   9.527   4.099   1.851
99142SOL    HW199323   9.524   4.036   1.923
99142SOL    HW299324   9.612   4.142   1.860
99143SOL     OW99325   8.093   7.257   8.775
99143SOL    HW199326   8.175   7.209   8.789
99143SOL    HW299327   8.099   7.333   8.832
99144SOL     OW99328   6.682   1.575   8.550
99144SOL    HW199329   6.600   1.622   8.566
99144SOL    HW299330   6.681   1.503   8.613
99145SOL     OW99331  12.716   1.092  14.390
99145SOL    HW199332  12.661   1.114  14.315
99145SOL    HW299333  12.667   1.024  14.436
99146SOL     OW99334   5.727  14.473   5.224
99146SOL    HW199335   5.765  14.550   5.264
99146SOL    HW299336   5.634  14.494   5.214
99147SOL     OW99337  10.711   0.953   8.856
99147SOL    HW199338  10.619   0.979   8.848
99147SOL    HW299339  10.708   0.858   8.860
99148SOL     OW99340   7.731   3.127   6.089
99148SOL    HW199341   7.722   3.220   6.111
99148SOL    HW299342   7.670   3.082   6.147
99149SOL     OW99343   7.720  10.447   6.093
99149SOL    HW199344   7.638  10.398   6.092
99149SOL    HW299345   7.748  10.446   6.185
99150SOL     OW99346   2.176  12.995   4.422
99150SOL    HW199347   2.187  13.088   4.403
99150SOL    HW299348   2.231  12.980   4.499
99151SOL     OW99349  12.281  10.367  13.618
99151SOL    HW199350  12.199  10.338  13.577
99151SOL    HW299351  12.321  10.425  13.554
99152SOL     OW99352  12.926  14.858  12.869
99152SOL    HW199353  12.891  14.776  12.833
99152SOL    HW299354  12.862   0.002  12.935
99153SOL     OW99355  13.298  11.005   7.421
99153SOL    HW199356  13.368  11.009   7.486
99153SOL    HW299357  13.223  11.047   7.463
99154SOL     OW99358  10.353   7.598   5.899
99154SOL    HW199359  10.296   7.646   5.839
99154SOL    HW299360  10.333   7.632   5.985
99155SOL     OW99361   3.448   5.392   5.689
99155SOL    HW199362   3.492   5.309   5.710
99155SOL    HW299363   3.520   5.455   5.677
99156SOL     OW99364   9.366   5.008  13.625
99156SOL    HW199365   9.312   5.071  13.578
99156SOL    HW299366   9.304   4.943  13.658
99157SOL     OW99367  10.091   9.941   1.284
99157SOL    HW199368  10.047   9.860   1.257
99157SOL    HW299369  10.022   9.994   1.324
99158SOL     OW99370   0.369  10.020   0.234
99158SOL    HW199371   0.273  10.028   0.233
99158SOL    HW299372   0.394  10.019   0.141
99159SOL     OW99373   5.388   9.617   3.977
99159SOL    HW199374   5.421   9.687   4.034
99159SOL    HW299375   5.409   9.646   3.888
99160SOL     OW99376  13.432   0.646  12.376
99160SOL    HW199377  13.356   0.588  12.378
99160SOL    HW299378  13.481   0.617  12.299
99161SOL     OW99379   0.007  13.047   0.602
99161SOL    HW199380  14.861  13.082   0.518
99161SOL    HW299381   0.033  12.957   0.583
99162SOL     OW99382  14.784  13.313   7.137
99162SOL    HW199383  14.859  13.305   7.078
99162SOL    HW299384  14.816  13.275   7.220
99163SOL     OW99385   0.123   5.385  13.683
99163SOL    HW199386   0.056   5.440  13.641
99163SOL    HW299387   0.150   5.435  13.760
99164SOL     OW99388   1.453  14.269  13.730
99164SOL    HW199389   1.442  14.274  13.825
99164SOL    HW299390   1.499  14.186  13.716
99165SOL     OW99391  12.071  11.418   4.182
99165SOL    HW199392  12.140  11.371   4.135
99165SOL    HW299393  11.994  11.411   4.125
99166SOL     OW99394  14.576   4.915   0.859
99166SOL    HW199395  14.634   4.845   0.829
99166SOL    HW299396  14.580   4.981   0.790
99167SOL     OW99397  12.681   4.632  14.421
99167SOL    HW199398  12.671   4.542  14.453
99167SOL    HW299399  12.771   4.637  14.391
99168SOL     OW99400  10.362   2.639   4.352
99168SOL    HW199401  10.311   2.562   4.376
99168SOL    HW299402  10.352   2.698   4.426
99169SOL     OW99403   0.060  10.683   2.238
99169SOL    HW199404   0.108  10.750   2.286
99169SOL    HW299405   0.018  10.631   2.307
99170SOL     OW99406   2.525   1.834   1.382
99170SOL    HW199407   2.430   1.845   1.387
99170SOL    HW299408   2.561   1.908   1.430
99171SOL     OW99409   2.402   2.345  11.119
99171SOL    HW199410   2.493   2.364  11.095
99171SOL    HW299411   2.356   2.428  11.106
99172SOL     OW99412  14.073  11.509   0.615
99172SOL    HW199413  14.074  11.440   0.548
99172SOL    HW299414  14.104  11.465   0.694
99173SOL     OW99415   5.158   3.668   6.049
99173SOL    HW199416   5.243   3.679   6.091
99173SOL    HW299417   5.095   3.683   6.119
99174SOL     OW99418   1.499   4.703  10.672
99174SOL    HW199419   1.574   4.762  10.674
99174SOL    HW299420   1.424   4.759  10.692
99175SOL     OW99421  10.139   3.497   6.394
99175SOL    HW199422  10.066   3.483   6.455
99175SOL    HW299423  10.190   3.416   6.400
99176SOL     OW99424   2.668   6.802   7.907
99176SOL    HW199425   2.760   6.790   7.886
99176SOL    HW299426   2.660   6.769   7.997
99177SOL     OW99427   8.726   5.510  13.115
99177SOL    HW199428   8.806   5.514  13.167
99177SOL    HW299429   8.686   5.426  13.140
99178SOL     OW99430  13.343   8.246   8.442
99178SOL    HW199431  13.262   8.280   8.481
99178SOL    HW299432  13.321   8.233   8.350
99179SOL     OW99433  12.014   8.766  13.714
99179SOL    HW199434  11.943   8.813  13.672
99179SOL    HW299435  11.989   8.674  13.708
99180SOL     OW99436  13.949   2.872   7.539
99180SOL    HW199437  14.017   2.817   7.577
99180SOL    HW299438  13.895   2.899   7.613
99181SOL     OW99439   9.446   1.002   3.208
99181SOL    HW199440   9.538   0.984   3.226
99181SOL    HW299441   9.399   0.925   3.239
99182SOL     OW99442   8.950  13.599  10.196
99182SOL    HW199443   9.021  13.543  10.227
99182SOL    HW299444   8.959  13.597  10.100
99183SOL     OW99445  14.125   9.273  12.127
99183SOL    HW199446  14.158   9.307  12.210
99183SOL    HW299447  14.047   9.324  12.109
99184SOL     OW99448  12.090   7.529   5.477
99184SOL    HW199449  12.137   7.536   5.560
99184SOL    HW299450  12.002   7.499   5.501
99185SOL     OW99451   7.260  10.170   4.023
99185SOL    HW199452   7.321  10.112   4.070
99185SOL    HW299453   7.174  10.145   4.056
99186SOL     OW99454  14.811   2.862   8.598
99186SOL    HW199455  14.807   2.949   8.559
99186SOL    HW299456   0.019   2.833   8.582
99187SOL     OW99457   3.475  14.537  12.210
99187SOL    HW199458   3.513  14.604  12.267
99187SOL    HW299459   3.382  14.558  12.206
99188SOL     OW99460  14.272   0.442  14.394
99188SOL    HW199461  14.177   0.446  14.388
99188SOL    HW299462  14.303   0.518  14.345
99189SOL     OW99463   2.843   9.249   9.452
99189SOL    HW199464   2.920   9.213   9.409
99189SOL    HW299465   2.851   9.344   9.442
99190SOL     OW99466   9.395   9.930  11.859
99190SOL    HW199467   9.347   9.848  11.868
99190SOL    HW299468   9.335   9.997  11.891
99191SOL     OW99469  10.826  12.398   9.859
99191SOL    HW199470  10.740  12.409   9.899
99191SOL    HW299471  10.870  12.481   9.875
99192SOL     OW99472   7.713   3.554   5.945
99192SOL    HW199473   7.626   3.556   5.905
99192SOL    HW299474   7.715   3.633   6.000
99193SOL     OW99475  14.375   5.237   7.289
99193SOL    HW199476  14.350   5.148   7.317
99193SOL    HW299477  14.471   5.234   7.283
99194SOL     OW99478   8.332   1.988   4.561
99194SOL    HW199479   8.327   1.992   4.465
99194SOL    HW299480   8.401   2.050   4.584
99195SOL     OW99481   0.590   1.328  12.713
99195SOL    HW199482   0.577   1.420  12.739
99195SOL    HW299483   0.658   1.296  12.772
99196SOL     OW99484   5.834   5.849  14.666
99196SOL    HW199485   5.886   5.901  14.727
99196SOL    HW299486   5.745   5.884  14.674
99197SOL     OW99487  12.412  10.106   1.511
99197SOL    HW199488  12.360  10.177   1.473
99197SOL    HW299489  12.415  10.040   1.442
99198SOL     OW99490   9.185   8.725   6.335
99198SOL    HW199491   9.098   8.686   6.337
99198SOL    HW299492   9.178   8.794   6.268
99199SOL     OW99493  13.980  14.442   2.628
99199SOL    HW199494  14.050  14.379   2.618
99199SOL    HW299495  13.998  14.510   2.563
99200SOL     OW99496   1.468  12.028  13.384
99200SOL    HW199497   1.452  12.103  13.327
99200SOL    HW299498   1.399  11.966  13.364
99201SOL     OW99499   1.333  12.398   0.057
99201SOL    HW199500   1.246  12.412   0.019
99201SOL    HW299501   1.346  12.475   0.113
99202SOL     OW99502   7.815  12.347   3.852
99202SOL    HW199503   7.859  12.262   3.845
99202SOL    HW299504   7.886  12.410   3.863
99203SOL     OW99505  12.924   4.313  10.471
99203SOL    HW199506  13.001   4.360  10.438
99203SOL    HW299507  12.899   4.361  10.550
99204SOL     OW99508  10.262   2.268   6.590
99204SOL    HW199509  10.210   2.348   6.596
99204SOL    HW299510  10.200   2.197   6.608
99205SOL     OW99511   0.753   7.521   7.817
99205SOL    HW199512   0.828   7.576   7.842
99205SOL    HW299513   0.676   7.572   7.841
99206SOL     OW99514   0.145   7.744  11.508
99206SOL    HW199515   0.149   7.677  11.576
99206SOL    HW299516   0.084   7.708  11.443
99207SOL     OW99517  11.367   9.160   7.370
99207SOL    HW199518  11.309   9.178   7.443
99207SOL    HW299519  11.349   9.069   7.347
99208SOL     OW99520   7.202   7.188   3.276
99208SOL    HW199521   7.164   7.276   3.273
99208SOL    HW299522   7.139   7.134   3.229
99209SOL     OW99523   2.062   6.199   1.509
99209SOL    HW199524   2.154   6.222   1.490
99209SOL    HW299525   2.052   6.112   1.472
99210SOL     OW99526  13.586   9.530   4.597
99210SOL    HW199527  13.502   9.522   4.551
99210SOL    HW299528  13.652   9.503   4.533
99211SOL     OW99529   4.253   7.658   8.795
99211SOL    HW199530   4.214   7.741   8.820
99211SOL    HW299531   4.333   7.651   8.846
99212SOL     OW99532   7.373  11.533   4.645
99212SOL    HW199533   7.393  11.594   4.574
99212SOL    HW299534   7.437  11.553   4.713
99213SOL     OW99535   5.453   8.884  12.302
99213SOL    HW199536   5.443   8.968  12.259
99213SOL    HW299537   5.410   8.895  12.387
99214SOL     OW99538   0.164   9.804   0.608
99214SOL    HW199539   0.105   9.868   0.648
99214SOL    HW299540   0.119   9.776   0.529
99215SOL     OW99541  13.966  13.733   4.502
99215SOL    HW199542  13.879  13.706   4.473
99215SOL    HW299543  13.955  13.753   4.595
99216SOL     OW99544  10.944   4.191   5.167
99216SOL    HW199545  11.016   4.242   5.131
99216SOL    HW299546  10.880   4.257   5.194
99217SOL     OW99547   5.074   6.746   5.562
99217SOL    HW199548   5.075   6.650   5.559
99217SOL    HW299549   5.144   6.772   5.502
99218SOL     OW99550   5.590   0.712  14.687
99218SOL    HW199551   5.525   0.702  14.757
99218SOL    HW299552   5.602   0.807  14.680
99219SOL     OW99553  11.703   6.941   4.387
99219SOL    HW199554  11.623   6.900   4.421
99219SOL    HW299555  11.723   7.011   4.449
99220SOL     OW99556   8.115   7.331   9.157
99220SOL    HW199557   8.146   7.354   9.069
99220SOL    HW299558   8.026   7.368   9.161
99221SOL     OW99559   1.680   6.342  13.360
99221SOL    HW199560   1.719   6.417  13.404
99221SOL    HW299561   1.642   6.289  13.431
99222SOL     OW99562   0.644   4.589   4.846
99222SOL    HW199563   0.718   4.648   4.857
99222SOL    HW299564   0.639   4.540   4.928
99223SOL     OW99565  11.977  12.930  14.591
99223SOL    HW199566  12.053  12.910  14.536
99223SOL    HW299567  11.987  13.022  14.613
99224SOL     OW99568  14.085   6.119  10.115
99224SOL    HW199569  14.110   6.028  10.134
99224SOL    HW299570  14.058   6.117  10.023
99225SOL     OW99571   2.608  11.529   0.992
99225SOL    HW199572   2.551  11.606   1.001
99225SOL    HW299573   2.603  11.486   1.077
99226SOL     OW99574  14.015   2.325   9.205
99226SOL    HW199575  13.976   2.410   9.182
99226SOL    HW299576  13.960   2.261   9.160
99227SOL     OW99577   0.233   4.642  12.336
99227SOL    HW199578   0.165   4.649  12.269
99227SOL    HW299579   0.303   4.592  12.294
99228SOL     OW99580  13.877   7.659   9.861
99228SOL    HW199581  13.912   7.679   9.774
99228SOL    HW299582  13.931   7.587   9.893
99229SOL     OW99583   7.369   6.751   6.236
99229SOL    HW199584   7.415   6.830   6.263
99229SOL    HW299585   7.277   6.777   6.232
99230SOL     OW99586   8.637  11.384   6.248
99230SOL    HW199587   8.651  11.448   6.318
99230SOL    HW299588   8.577  11.320   6.286
99231SOL     OW99589   1.969   9.098   4.207
99231SOL    HW199590   1.905   9.135   4.146
99231SOL    HW299591   1.983   9.009   4.175
99232SOL     OW99592   9.623   7.201  10.972
99232SOL    HW199593   9.532   7.220  10.995
99232SOL    HW299594   9.620   7.111  10.938
99233SOL     OW99595   2.864  14.107   3.484
99233SOL    HW199596   2.955  14.093   3.511
99233SOL    HW299597   2.826  14.160   3.554
99234SOL     OW99598   5.236  10.221   3.140
99234SOL    HW199599   5.280  10.142   3.108
99234SOL    HW299600   5.239  10.282   3.067
99235SOL     OW99601  12.676   8.570   5.465
99235SOL    HW199602  12.717   8.609   5.542
99235SOL    HW299603  12.582   8.570   5.484
99236SOL     OW99604   5.356  10.460  12.462
99236SOL    HW199605   5.430  10.419  12.418
99236SOL    HW299606   5.280  10.436  12.409
99237SOL     OW99607   2.304   9.480   3.311
99237SOL    HW199608   2.347   9.492   3.395
99237SOL    HW299609   2.291   9.386   3.304
99238SOL     OW99610   2.210  11.032  12.515
99238SOL    HW199611   2.214  11.073  12.602
99238SOL    HW299612   2.131  11.069  12.476
99239SOL     OW99613   9.764  10.428   8.582
99239SOL    HW199614   9.728  10.483   8.513
99239SOL    HW299615   9.688  10.402   8.634
99240SOL     OW99616   7.512   5.337  14.413
99240SOL    HW199617   7.471   5.418  14.444
99240SOL    HW299618   7.439   5.279  14.395
99241SOL     OW99619   8.204   4.955  14.058
99241SOL    HW199620   8.298   4.950  14.043
99241SOL    HW299621   8.166   4.974  13.972
99242SOL     OW99622   0.909   8.493  13.575
99242SOL    HW199623   0.815   8.475  13.571
99242SOL    HW299624   0.924   8.522  13.665
99243SOL     OW99625  11.761   8.582  12.667
99243SOL    HW199626  11.745   8.497  12.707
99243SOL    HW299627  11.674   8.620  12.656
99244SOL     OW99628   8.789  13.958   1.337
99244SOL    HW199629   8.734  13.913   1.401
99244SOL    HW299630   8.786  14.050   1.363
99245SOL     OW99631   2.833  13.599  11.616
99245SOL    HW199632   2.740  13.620  11.609
99245SOL    HW299633   2.874  13.639  11.540
99246SOL     OW99634  10.934  13.779   0.321
99246SOL    HW199635  11.012  13.758   0.270
99246SOL    HW299636  10.861  13.762   0.260
99247SOL     OW99637   9.482  10.976  10.163
99247SOL    HW199638   9.523  10.899  10.124
99247SOL    HW299639   9.397  10.945  10.194
99248SOL     OW99640   5.153   3.039  10.804
99248SOL    HW199641   5.179   3.131  10.801
99248SOL    HW299642   5.235   2.991  10.796
99249SOL     OW99643  12.159   4.135   1.152
99249SOL    HW199644  12.133   4.135   1.244
99249SOL    HW299645  12.077   4.143   1.104
99250SOL     OW99646  12.092   9.227  12.263
99250SOL    HW199647  12.118   9.316  12.286
99250SOL    HW299648  12.166   9.173  12.291
99251SOL     OW99649   3.797   8.320  11.776
99251SOL    HW199650   3.769   8.245  11.722
99251SOL    HW299651   3.724   8.334  11.836
99252SOL     OW99652   7.246   3.830  12.656
99252SOL    HW199653   7.243   3.738  12.630
99252SOL    HW299654   7.196   3.834  12.738
99253SOL     OW99655  14.208   5.298  12.619
99253SOL    HW199656  14.207   5.371  12.681
99253SOL    HW299657  14.116   5.287  12.594
99254SOL     OW99658   0.937  11.380   7.631
99254SOL    HW199659   0.854  11.389   7.585
99254SOL    HW299660   0.914  11.348   7.718
99255SOL     OW99661   0.826  14.725   2.022
99255SOL    HW199662   0.901  14.667   2.010
99255SOL    HW299663   0.831  14.786   1.948
99256SOL     OW99664  11.534  13.046  14.511
99256SOL    HW199665  11.458  13.102  14.494
99256SOL    HW299666  11.514  12.964  14.465
99257SOL     OW99667   8.443  13.629   6.158
99257SOL    HW199668   8.372  13.582   6.202
99257SOL    HW299669   8.460  13.578   6.079
99258SOL     OW99670   8.247   4.756   6.578
99258SOL    HW199671   8.237   4.744   6.483
99258SOL    HW299672   8.215   4.845   6.594
99259SOL     OW99673  10.386   5.297  10.697
99259SOL    HW199674  10.389   5.366  10.630
99259SOL    HW299675  10.471   5.303  10.742
99260SOL     OW99676   1.498   8.109   4.937
99260SOL    HW199677   1.530   8.071   5.018
99260SOL    HW299678   1.408   8.077   4.929
99261SOL     OW99679   6.108  10.475   0.157
99261SOL    HW199680   6.107  10.477   0.252
99261SOL    HW299681   6.049  10.403   0.134
99262SOL     OW99682  12.907  14.511  12.478
99262SOL    HW199683  12.974  14.491  12.543
99262SOL    HW299684  12.912  14.439  12.415
99263SOL     OW99685  11.369  14.881   4.787
99263SOL    HW199686  11.387   0.086   4.752
99263SOL    HW299687  11.282  14.859   4.753
99264SOL     OW99688  11.191  11.185   4.049
99264SOL    HW199689  11.242  11.111   4.083
99264SOL    HW299690  11.256  11.240   4.004
99265SOL     OW99691   8.798   4.071   2.863
99265SOL    HW199692   8.869   4.006   2.859
99265SOL    HW299693   8.758   4.058   2.949
99266SOL     OW99694   3.864   8.612  10.935
99266SOL    HW199695   3.830   8.525  10.956
99266SOL    HW299696   3.873   8.655  11.020
99267SOL     OW99697   6.022  14.693   3.082
99267SOL    HW199698   6.058  14.772   3.042
99267SOL    HW299699   5.928  14.699   3.065
99268SOL     OW99700   3.043   2.515   8.040
99268SOL    HW199701   3.112   2.545   8.100
99268SOL    HW299702   2.987   2.459   8.093
99269SOL     OW99703   5.017  14.157   5.880
99269SOL    HW199704   5.012  14.079   5.826
99269SOL    HW299705   4.964  14.222   5.833
99270SOL     OW99706  13.191  10.321   0.466
99270SOL    HW199707  13.130  10.339   0.395
99270SOL    HW299708  13.199  10.403   0.514
99271SOL     OW99709   7.127   4.548   5.001
99271SOL    HW199710   7.216   4.577   5.023
99271SOL    HW299711   7.137   4.457   4.975
99272SOL     OW99712   0.085  13.316  13.389
99272SOL    HW199713   0.150  13.246  13.388
99272SOL    HW299714   0.097  13.358  13.474
99273SOL     OW99715   0.207  10.963  13.988
99273SOL    HW199716   0.196  10.900  14.059
99273SOL    HW299717   0.236  10.911  13.913
99274SOL     OW99718   1.536   2.334   3.715
99274SOL    HW199719   1.499   2.412   3.757
99274SOL    HW299720   1.624   2.360   3.688
99275SOL     OW99721   0.886  10.667   8.444
99275SOL    HW199722   0.955  10.728   8.469
99275SOL    HW299723   0.841  10.647   8.526
99276SOL     OW99724  11.998   7.023   3.974
99276SOL    HW199725  12.042   7.108   3.977
99276SOL    HW299726  11.977   7.009   3.882
99277SOL     OW99727   9.289   1.342  11.738
99277SOL    HW199728   9.365   1.284  11.734
99277SOL    HW299729   9.321   1.425  11.703
99278SOL     OW99730   5.555  13.479   0.718
99278SOL    HW199731   5.601  13.563   0.721
99278SOL    HW299732   5.500  13.479   0.797
99279SOL     OW99733   8.542   3.374   7.368
99279SOL    HW199734   8.631   3.404   7.390
99279SOL    HW299735   8.486   3.416   7.434
99280SOL     OW99736  10.738  12.562   6.693
99280SOL    HW199737  10.828  12.556   6.659
99280SOL    HW299738  10.746  12.615   6.773
99281SOL     OW99739  14.440  14.597  13.858
99281SOL    HW199740  14.485  14.667  13.812
99281SOL    HW299741  14.366  14.640  13.900
99282SOL     OW99742  12.302  12.091  11.376
99282SOL    HW199743  12.331  12.007  11.411
99282SOL    HW299744  12.275  12.072  11.286
99283SOL     OW99745   9.904  14.020   5.575
99283SOL    HW199746   9.903  13.942   5.630
99283SOL    HW299747   9.933  14.091   5.633
99284SOL     OW99748   1.003  10.240   4.751
99284SOL    HW199749   1.077  10.179   4.751
99284SOL    HW299750   1.044  10.326   4.758
99285SOL     OW99751   8.296   0.863   9.311
99285SOL    HW199752   8.356   0.841   9.240
99285SOL    HW299753   8.238   0.929   9.274
99286SOL     OW99754   2.545  13.446  10.149
99286SOL    HW199755   2.639  13.451  10.129
99286SOL    HW299756   2.502  13.471  10.067
99287SOL     OW99757   0.722  14.067   5.838
99287SOL    HW199758   0.713  13.971   5.838
99287SOL    HW299759   0.633  14.099   5.825
99288SOL     OW99760   5.543  11.780  14.577
99288SOL    HW199761   5.602  11.826  14.517
99288SOL    HW299762   5.557  11.687  14.558
99289SOL     OW99763   3.289   9.133   2.027
99289SOL    HW199764   3.239   9.215   2.035
99289SOL    HW299765   3.326   9.119   2.114
99290SOL     OW99766   1.965   5.966   3.309
99290SOL    HW199767   1.976   6.026   3.383
99290SOL    HW299768   1.928   6.020   3.240
99291SOL     OW99769  10.076   8.785   0.239
99291SOL    HW199770   9.983   8.772   0.257
99291SOL    HW299771  10.101   8.859   0.295
99292SOL     OW99772   8.172  13.320  13.412
99292SOL    HW199773   8.165  13.329  13.507
99292SOL    HW299774   8.124  13.240  13.392
99293SOL     OW99775   3.798   1.009   4.180
99293SOL    HW199776   3.838   0.928   4.150
99293SOL    HW299777   3.870   1.073   4.179
99294SOL     OW99778   5.453   5.012  11.433
99294SOL    HW199779   5.470   4.931  11.482
99294SOL    HW299780   5.441   4.983  11.343
99295SOL     OW99781  10.606   1.524  10.075
99295SOL    HW199782  10.599   1.578   9.996
99295SOL    HW299783  10.537   1.459  10.066
99296SOL     OW99784  14.705   6.349   9.536
99296SOL    HW199785  14.674   6.427   9.489
99296SOL    HW299786  14.785   6.378   9.580
99297SOL     OW99787   7.737  14.837  12.328
99297SOL    HW199788   7.734  14.842  12.233
99297SOL    HW299789   7.646  14.827  12.354
99298SOL     OW99790   4.183   7.228  13.415
99298SOL    HW199791   4.264   7.183  13.391
99298SOL    HW299792   4.198   7.258  13.504
99299SOL     OW99793   3.842  12.275  10.057
99299SOL    HW199794   3.819  12.219  10.131
99299SOL    HW299795   3.926  12.241  10.026
99300SOL     OW99796  13.550  11.345   9.139
99300SOL    HW199797  13.567  11.386   9.054
99300SOL    HW299798  13.619  11.379   9.196
99301SOL     OW99799   3.661   3.822  14.233
99301SOL    HW199800   3.751   3.855  14.240
99301SOL    HW299801   3.666   3.754  14.166
99302SOL     OW99802  13.764   5.004   1.643
99302SOL    HW199803  13.721   4.940   1.699
99302SOL    HW299804  13.777   4.958   1.559
99303SOL     OW99805   2.951  13.018   7.126
99303SOL    HW199806   3.041  13.027   7.094
99303SOL    HW299807   2.925  13.107   7.151
99304SOL     OW99808   9.782  13.919   5.374
99304SOL    HW199809   9.824  13.980   5.433
99304SOL    HW299810   9.855  13.871   5.333
99305SOL     OW99811   2.951  12.874   4.311
99305SOL    HW199812   3.012  12.813   4.269
99305SOL    HW299813   3.005  12.921   4.375
99306SOL     OW99814  14.542   6.352   6.748
99306SOL    HW199815  14.591   6.270   6.758
99306SOL    HW299816  14.454   6.331   6.779
99307SOL     OW99817   9.877   4.652  14.561
99307SOL    HW199818   9.811   4.589  14.531
99307SOL    HW299819   9.953   4.598  14.583
99308SOL     OW99820  11.472   3.132  13.412
99308SOL    HW199821  11.529   3.187  13.358
99308SOL    HW299822  11.481   3.045  13.374
99309SOL     OW99823   6.968  12.018   5.401
99309SOL    HW199824   6.930  11.931   5.406
99309SOL    HW299825   7.033  12.020   5.470
99310SOL     OW99826   3.907   8.428   1.408
99310SOL    HW199827   3.895   8.353   1.468
99310SOL    HW299828   3.843   8.493   1.439
99311SOL     OW99829   6.806   8.140   5.320
99311SOL    HW199830   6.753   8.199   5.373
99311SOL    HW299831   6.754   8.060   5.313
99312SOL     OW99832  11.726   5.941  13.783
99312SOL    HW199833  11.798   5.941  13.720
99312SOL    HW299834  11.759   5.992  13.857
99313SOL     OW99835   9.724   5.928   4.615
99313SOL    HW199836   9.811   5.957   4.641
99313SOL    HW299837   9.710   5.847   4.663
99314SOL     OW99838   1.493  13.336   4.931
99314SOL    HW199839   1.435  13.345   5.006
99314SOL    HW299840   1.517  13.243   4.931
99315SOL     OW99841  14.029   2.543  10.871
99315SOL    HW199842  14.040   2.451  10.846
99315SOL    HW299843  13.940   2.547  10.907
99316SOL     OW99844  12.331   3.496  11.215
99316SOL    HW199845  12.293   3.507  11.128
99316SOL    HW299846  12.402   3.433  11.203
99317SOL     OW99847   7.627   5.201   0.439
99317SOL    HW199848   7.620   5.294   0.460
99317SOL    HW299849   7.573   5.158   0.505
99318SOL     OW99850  11.135   5.997   7.020
99318SOL    HW199851  11.040   6.000   7.034
99318SOL    HW299852  11.151   5.909   6.986
99319SOL     OW99853   3.935  14.825  10.783
99319SOL    HW199854   3.923   0.019  10.840
99319SOL    HW299855   3.943  14.751  10.843
99320SOL     OW99856   9.251   0.077   4.296
99320SOL    HW199857   9.227   0.025   4.220
99320SOL    HW299858   9.276   0.012   4.362
99321SOL     OW99859  13.490  13.340   0.588
99321SOL    HW199860  13.440  13.394   0.650
99321SOL    HW299861  13.581  13.360   0.606
99322SOL     OW99862   2.490   3.316   9.310
99322SOL    HW199863   2.395   3.310   9.316
99322SOL    HW299864   2.512   3.280   9.225
99323SOL     OW99865   6.303   1.067   5.732
99323SOL    HW199866   6.254   1.143   5.700
99323SOL    HW299867   6.276   0.995   5.676
99324SOL     OW99868   9.604   3.569   9.168
99324SOL    HW199869   9.529   3.626   9.175
99324SOL    HW299870   9.639   3.585   9.080
99325SOL     OW99871   8.383  10.989   7.458
99325SOL    HW199872   8.351  10.968   7.370
99325SOL    HW299873   8.476  10.970   7.455
99326SOL     OW99874   4.380   2.641   9.997
99326SOL    HW199875   4.287   2.659  10.008
99326SOL    HW299876   4.406   2.596  10.078
99327SOL     OW99877   7.266   1.846   3.951
99327SOL    HW199878   7.361   1.844   3.938
99327SOL    HW299879   7.239   1.755   3.940
99328SOL     OW99880   7.616   6.159   7.041
99328SOL    HW199881   7.644   6.131   7.128
99328SOL    HW299882   7.526   6.126   7.034
99329SOL     OW99883   7.624   1.550  10.552
99329SOL    HW199884   7.580   1.554  10.467
99329SOL    HW299885   7.585   1.623  10.601
99330SOL     OW99886   9.628   9.186   7.164
99330SOL    HW199887   9.653   9.253   7.228
99330SOL    HW299888   9.533   9.196   7.155
99331SOL     OW99889  10.495   2.266   9.302
99331SOL    HW199890  10.485   2.359   9.284
99331SOL    HW299891  10.427   2.224   9.249
99332SOL     OW99892   6.526   5.645  10.933
99332SOL    HW199893   6.439   5.646  10.974
99332SOL    HW299894   6.519   5.581  10.863
99333SOL     OW99895   3.207   8.159  14.267
99333SOL    HW199896   3.281   8.126  14.215
99333SOL    HW299897   3.215   8.254  14.263
99334SOL     OW99898   5.789   3.965   4.431
99334SOL    HW199899   5.735   3.924   4.364
99334SOL    HW299900   5.852   3.897   4.456
99335SOL     OW99901  12.380  13.636  14.776
99335SOL    HW199902  12.396  13.543  14.792
99335SOL    HW299903  12.453  13.681  14.820
99336SOL     OW99904   6.672  13.625   0.783
99336SOL    HW199905   6.593  13.673   0.807
99336SOL    HW299906   6.728  13.690   0.741
99337SOL     OW99907   8.292   4.263   9.425
99337SOL    HW199908   8.364   4.326   9.417
99337SOL    HW299909   8.332   4.178   9.408
99338SOL     OW99910   2.269  11.087  12.806
99338SOL    HW199911   2.205  11.137  12.856
99338SOL    HW299912   2.343  11.075  12.865
99339SOL     OW99913   2.084  12.925  12.900
99339SOL    HW199914   2.077  12.871  12.822
99339SOL    HW299915   2.111  12.864  12.969
99340SOL     OW99916  13.621   2.770   3.243
99340SOL    HW199917  13.605   2.707   3.313
99340SOL    HW299918  13.533   2.796   3.214
99341SOL     OW99919   0.171   3.461  13.588
99341SOL    HW199920   0.099   3.484  13.646
99341SOL    HW299921   0.149   3.373  13.555
99342SOL     OW99922  14.680   2.207  12.643
99342SOL    HW199923  14.707   2.286  12.595
99342SOL    HW299924  14.585   2.204  12.633
99343SOL     OW99925   6.931   7.959   6.528
99343SOL    HW199926   6.852   7.931   6.481
99343SOL    HW299927   6.941   7.895   6.598
99344SOL     OW99928   6.039   2.772   1.157
99344SOL    HW199929   6.050   2.823   1.076
99344SOL    HW299930   5.954   2.728   1.146
99345SOL     OW99931   4.092   3.757   3.199
99345SOL    HW199932   4.137   3.777   3.117
99345SOL    HW299933   4.091   3.662   3.203
99346SOL     OW99934  13.752   9.186   1.713
99346SOL    HW199935  13.757   9.218   1.803
99346SOL    HW299936  13.721   9.095   1.722
99347SOL     OW99937  13.709   7.828  13.364
99347SOL    HW199938  13.759   7.881  13.426
99347SOL    HW299939  13.685   7.890  13.294
99348SOL     OW99940   7.967   2.053   9.400
99348SOL    HW199941   8.061   2.046   9.417
99348SOL    HW299942   7.960   2.063   9.305
99349SOL     OW99943   4.820   4.684   0.814
99349SOL    HW199944   4.731   4.710   0.835
99349SOL    HW299945   4.812   4.594   0.782
99350SOL     OW99946  11.929   1.700   9.343
99350SOL    HW199947  11.868   1.661   9.281
99350SOL    HW299948  12.014   1.695   9.299
99351SOL     OW99949   4.778  14.844   3.350
99351SOL    HW199950   4.714   0.029   3.328
99351SOL    HW299951   4.856  14.867   3.300
99352SOL     OW99952   8.813   2.019   7.835
99352SOL    HW199953   8.906   2.004   7.819
99352SOL    HW299954   8.812   2.077   7.912
99353SOL     OW99955   2.812   5.100   7.392
99353SOL    HW199956   2.853   5.185   7.411
99353SOL    HW299957   2.799   5.100   7.298
99354SOL     OW99958   4.840  13.115   3.916
99354SOL    HW199959   4.847  13.209   3.935
99354SOL    HW299960   4.849  13.073   4.002
99355SOL     OW99961   9.336  13.559   6.119
99355SOL    HW199962   9.391  13.558   6.041
99355SOL    HW299963   9.344  13.649   6.152
99356SOL     OW99964   1.462  12.171  13.822
99356SOL    HW199965   1.551  12.190  13.852
99356SOL    HW299966   1.411  12.248  13.848
99357SOL     OW99967   3.965  12.500   8.690
99357SOL    HW199968   3.878  12.517   8.726
99357SOL    HW299969   4.024  12.512   8.764
99358SOL     OW99970  12.382   1.054   4.005
99358SOL    HW199971  12.414   0.998   4.076
99358SOL    HW299972  12.431   1.135   4.015
99359SOL     OW99973  11.923  11.917   1.421
99359SOL    HW199974  11.974  11.984   1.466
99359SOL    HW299975  11.846  11.963   1.388
99360SOL     OW99976  13.756  12.715  11.334
99360SOL    HW199977  13.776  12.714  11.241
99360SOL    HW299978  13.830  12.669  11.375
99361SOL     OW99979   4.025  11.330   7.856
99361SOL    HW199980   3.966  11.279   7.912
99361SOL    HW299981   3.972  11.403   7.825
99362SOL     OW99982   1.077   6.899  12.375
99362SOL    HW199983   1.101   6.811  12.403
99362SOL    HW299984   0.984   6.907  12.397
99363SOL     OW99985  13.009   1.887  13.929
99363SOL    HW199986  12.922   1.897  13.967
99363SOL    HW299987  13.025   1.793  13.931
99364SOL     OW99988  11.891  14.670   9.062
99364SOL    HW199989  11.972  14.638   9.103
99364SOL    HW299990  11.912  14.758   9.031
99365SOL     OW99991  11.220  13.094  11.077
99365SOL    HW199992  11.145  13.154  11.070
99365SOL    HW299993  11.287  13.132  11.021
99366SOL     OW99994   9.875   1.196   4.835
99366SOL    HW199995   9.967   1.221   4.845
99366SOL    HW299996   9.847   1.170   4.923
99367SOL     OW99997   7.474  14.493   6.477
99367SOL    HW199998   7.390  14.479   6.520
99367SOL    HW299999   7.493  14.586   6.490
99368SOL     OW    0   8.177   8.131  13.939
99368SOL    HW1    1   8.155   8.168  14.024
99368SOL    HW2    2   8.095   8.130  13.891
99369SOL     OW    3   8.634   9.467  10.842
99369SOL    HW1    4   8.558   9.481  10.899
99369SOL    HW2    5   8.597   9.428  10.763
99370SOL     OW    6  14.847  13.045  12.001
99370SOL    HW1    7  14.757  13.052  12.033
99370SOL    HW2    8  14.871  13.134  11.975
99371SOL     OW    9   7.913   0.031   1.057
99371SOL    HW1   10   7.995   0.019   1.105
99371SOL    HW2   11   7.903  14.833   1.007
99372SOL     OW   12   4.143  12.670   3.253
99372SOL    HW1   13   4.197  12.613   3.309
99372SOL    HW2   14   4.082  12.610   3.211
99373SOL     OW   15  14.167   4.225   5.409
99373SOL    HW1   16  14.166   4.313   5.371
99373SOL    HW2   17  14.116   4.232   5.489
99374SOL     OW   18   1.379   4.351  12.241
99374SOL    HW1   19   1.432   4.397  12.305
99374SOL    HW2   20   1.357   4.417  12.175
99375SOL     OW   21  12.775   4.419   2.211
99375SOL    HW1   22  12.688   4.420   2.249
99375SOL    HW2   23  12.760   4.417   2.116
99376SOL     OW   24  10.942  11.693   9.246
99376SOL    HW1   25  10.989  11.748   9.184
99376SOL    HW2   26  11.009  11.636   9.284
99377SOL     OW   27   1.112  14.726   0.228
99377SOL    HW1   28   1.074  14.813   0.215
99377SOL    HW2   29   1.184  14.740   0.290
99378SOL     OW   30   5.673   5.181  10.563
99378SOL    HW1   31   5.582   5.210  10.572
99378SOL    HW2   32   5.722   5.260  10.540
99379SOL     OW   33   8.419   1.311   8.903
99379SOL    HW1   34   8.494   1.252   8.891
99379SOL    HW2   35   8.394   1.335   8.814
99380SOL     OW   36  13.816  12.640  11.935
99380SOL    HW1   37  13.871  12.701  11.886
99380SOL    HW2   38  13.740  12.692  11.961
99381SOL     OW   39   3.149  13.914   9.373
99381SOL    HW1   40   3.165  13.991   9.318
99381SOL    HW2   41   3.065  13.880   9.342
99382SOL     OW   42   9.309   5.717   4.416
99382SOL    HW1   43   9.384   5.693   4.470
99382SOL    HW2   44   9.236   5.724   4.477
99383SOL     OW   45   2.649  13.332  14.527
99383SOL    HW1   46   2.744  13.325  14.518
99383SOL    HW2   47   2.614  13.265  14.468
99384SOL     OW   48  11.125   3.363   4.102
99384SOL    HW1   49  11.191   3.389   4.167
99384SOL    HW2   50  11.165   3.290   4.055
99385SOL     OW   51   5.347  14.057   1.444
99385SOL    HW1   52   5.289  14.133   1.446
99385SOL    HW2   53   5.327  14.013   1.362
99386SOL     OW   54   1.237   0.323   0.685
99386SOL    HW1   55   1.171   0.283   0.743
99386SOL    HW2   56   1.186   0.358   0.611
99387SOL     OW   57  13.761   3.064  13.392
99387SOL    HW1   58  13.694   3.125  13.362
99387SOL    HW2   59  13.844   3.104  13.365
99388SOL     OW   60   4.788   6.850  13.888
99388SOL    HW1   61   4.776   6.881  13.798
99388SOL    HW2   62   4.721   6.897  13.938
99389SOL     OW   63   1.064  13.126   9.666
99389SOL    HW1   64   1.095  13.213   9.692
99389SOL    HW2   65   1.016  13.095   9.742
99390SOL     OW   66   3.321   8.757   6.132
99390SOL    HW1   67   3.309   8.831   6.072
99390SOL    HW2   68   3.333   8.682   6.075
99391SOL     OW   69  13.325  13.320   1.767
99391SOL    HW1   70  13.394  13.256   1.783
99391SOL    HW2   71  13.245  13.269   1.761
99392SOL     OW   72  11.719  12.024   1.277
99392SOL    HW1   73  11.729  12.110   1.236
99392SOL    HW2   74  11.706  11.965   1.203
99393SOL     OW   75   6.835   5.091   7.119
99393SOL    HW1   76   6.923   5.127   7.125
99393SOL    HW2   77   6.779   5.155   7.163
99394SOL     OW   78   1.989   6.756  13.636
99394SOL    HW1   79   1.928   6.812  13.588
99394SOL    HW2   80   2.073   6.803  13.631
99395SOL     OW   81  10.275   0.982  13.071
99395SOL    HW1   82  10.370   0.991  13.058
99395SOL    HW2   83  10.267   0.904  13.127
99396SOL     OW   84   0.560  11.828   6.704
99396SOL    HW1   85   0.572  11.737   6.732
99396SOL    HW2   86   0.632  11.843   6.643
99397SOL     OW   87   8.865   2.854   5.398
99397SOL    HW1   88   8.928   2.868   5.327
99397SOL    HW2   89   8.911   2.797   5.460
99398SOL     OW   90   9.720   9.906  10.714
99398SOL    HW1   91   9.658   9.879  10.646
99398SOL    HW2   92   9.671   9.901  10.796
99399SOL     OW   93   6.599   7.663  12.266
99399SOL    HW1   94   6.589   7.730  12.333
99399SOL    HW2   95   6.687   7.678  12.230
99400SOL     OW   96   7.152   4.176   2.754
99400SOL    HW1   97   7.243   4.201   2.770
99400SOL    HW2   98   7.128   4.124   2.831
99401SOL     OW   99   6.045  11.132   2.923
99401SOL    HW1  100   5.977  11.070   2.895
99401SOL    HW2  101   6.057  11.113   3.016
99402SOL     OW  102   5.423   1.961  14.458
99402SOL    HW1  103   5.357   1.988  14.522
99402SOL    HW2  104   5.507   1.981  14.498
99403SOL     OW  105   7.834  10.189   1.607
99403SOL    HW1  106   7.803  10.105   1.573
99403SOL    HW2  107   7.764  10.250   1.588
99404SOL     OW  108   7.970   2.692   9.543
99404SOL    HW1  109   7.974   2.605   9.502
99404SOL    HW2  110   7.901   2.684   9.609
99405SOL     OW  111   9.173  11.809   7.481
99405SOL    HW1  112   9.079  11.811   7.499
99405SOL    HW2  113   9.210  11.756   7.552
99406SOL     OW  114   2.416  14.740  11.171
99406SOL    HW1  115   2.387  14.746  11.081
99406SOL    HW2  116   2.355  14.680  11.213
99407SOL     OW  117   2.230  14.582   8.060
99407SOL    HW1  118   2.182  14.661   8.035
99407SOL    HW2  119   2.165  14.512   8.057
99408SOL     OW  120   7.714   6.701  14.211
99408SOL    HW1  121   7.752   6.670  14.129
99408SOL    HW2  122   7.772   6.666  14.279
99409SOL     OW  123   9.741  11.828   0.233
99409SOL    HW1  124   9.692  11.899   0.275
99409SOL    HW2  125   9.731  11.843   0.139
99410SOL     OW  126   3.150  13.589   8.509
99410SOL    HW1  127   3.193  13.653   8.566
99410SOL    HW2  128   3.063  13.625   8.494
99411SOL     OW  129   9.101   7.484   7.427
99411SOL    HW1  130   9.029   7.434   7.389
99411SOL    HW2  131   9.161   7.418   7.462
99412SOL     OW  132   1.005   4.431   7.893
99412SOL    HW1  133   1.068   4.422   7.821
99412SOL    HW2  134   1.059   4.440   7.971
99413SOL     OW  135  12.565   4.371  10.757
99413SOL    HW1  136  12.494   4.432  10.735
99413SOL    HW2  137  12.569   4.312  10.682
99414SOL     OW  138   8.129   8.480   3.006
99414SOL    HW1  139   8.196   8.459   2.940
99414SOL    HW2  140   8.175   8.473   3.090
99415SOL     OW  141  11.913  12.839  10.102
99415SOL    HW1  142  11.865  12.796  10.031
99415SOL    HW2  143  11.845  12.879  10.156
99416SOL     OW  144  10.851  12.313   7.548
99416SOL    HW1  145  10.759  12.307   7.522
99416SOL    HW2  146  10.896  12.342   7.469
99417SOL     OW  147   2.842   4.240   4.370
99417SOL    HW1  148   2.840   4.325   4.414
99417SOL    HW2  149   2.779   4.186   4.418
99418SOL     OW  150   5.917   6.156   0.809
99418SOL    HW1  151   5.901   6.203   0.891
99418SOL    HW2  152   5.839   6.101   0.798
99419SOL     OW  153   2.689  11.233   2.711
99419SOL    HW1  154   2.696  11.150   2.664
99419SOL    HW2  155   2.597  11.258   2.701
99420SOL     OW  156   2.751  10.929   5.507
99420SOL    HW1  157   2.768  10.969   5.422
99420SOL    HW2  158   2.818  10.966   5.564
99421SOL     OW  159   7.970   7.417   8.137
99421SOL    HW1  160   7.883   7.442   8.169
99421SOL    HW2  161   7.992   7.485   8.073
99422SOL     OW  162   7.881  14.438   7.971
99422SOL    HW1  163   7.902  14.354   8.012
99422SOL    HW2  164   7.952  14.496   7.999
99423SOL     OW  165  14.721   5.879   1.115
99423SOL    HW1  166  14.676   5.893   1.032
99423SOL    HW2  167  14.715   5.963   1.160
99424SOL     OW  168   8.927  14.098   6.369
99424SOL    HW1  169   9.012  14.119   6.331
99424SOL    HW2  170   8.904  14.175   6.420
99425SOL     OW  171   5.843   4.342   6.268
99425SOL    HW1  172   5.887   4.423   6.242
99425SOL    HW2  173   5.889   4.274   6.219
99426SOL     OW  174  10.090   6.686   2.552
99426SOL    HW1  175   9.998   6.699   2.532
99426SOL    HW2  176  10.105   6.736   2.633
99427SOL     OW  177   3.830   0.949   7.467
99427SOL    HW1  178   3.783   1.009   7.408
99427SOL    HW2  179   3.903   0.915   7.415
99428SOL     OW  180   2.880  12.256   6.664
99428SOL    HW1  181   2.959  12.202   6.657
99428SOL    HW2  182   2.808  12.192   6.666
99429SOL     OW  183   9.676   8.989   3.247
99429SOL    HW1  184   9.641   8.953   3.166
99429SOL    HW2  185   9.668   8.918   3.311
99430SOL     OW  186  13.013   6.294  10.848
99430SOL    HW1  187  12.990   6.346  10.925
99430SOL    HW2  188  13.090   6.244  10.874
99431SOL     OW  189  10.000  14.681   5.925
99431SOL    HW1  190  10.068  14.747   5.939
99431SOL    HW2  191   9.959  14.671   6.012
99432SOL     OW  192   9.749   6.287  13.179
99432SOL    HW1  193   9.807   6.332  13.118
99432SOL    HW2  194   9.805   6.225  13.225
99433SOL     OW  195   5.132   6.460   5.144
99433SOL    HW1  196   5.112   6.501   5.059
99433SOL    HW2  197   5.157   6.371   5.122
99434SOL     OW  198   3.409   1.877   2.262
99434SOL    HW1  199   3.344   1.859   2.195
99434SOL    HW2  200   3.465   1.945   2.224
99435SOL     OW  201   3.155   7.457   6.612
99435SOL    HW1  202   3.187   7.541   6.645
99435SOL    HW2  203   3.132   7.474   6.521
99436SOL     OW  204  12.847  11.414  13.725
99436SOL    HW1  205  12.795  11.381  13.651
99436SOL    HW2  206  12.937  11.394  13.702
99437SOL     OW  207  12.061  11.139  11.267
99437SOL    HW1  208  12.044  11.059  11.317
99437SOL    HW2  209  12.153  11.158  11.283
99438SOL     OW  210   1.375  13.685  14.014
99438SOL    HW1  211   1.326  13.664  14.094
99438SOL    HW2  212   1.466  13.666  14.036
99439SOL     OW  213  14.406   1.405   8.370
99439SOL    HW1  214  14.492   1.394   8.330
99439SOL    HW2  215  14.385   1.318   8.405
99440SOL     OW  216  12.530   2.355  13.363
99440SOL    HW1  217  12.453   2.412  13.356
99440SOL    HW2  218  12.519   2.311  13.447
99441SOL     OW  219   9.966  14.405   1.818
99441SOL    HW1  220   9.951  14.498   1.831
99441SOL    HW2  221   9.902  14.362   1.874
99442SOL     OW  222  11.621   2.447   1.766
99442SOL    HW1  223  11.652   2.357   1.773
99442SOL    HW2  224  11.584   2.467   1.852
99443SOL     OW  225   0.597  10.399  11.526
99443SOL    HW1  226   0.683  10.359  11.518
99443SOL    HW2  227   0.536  10.326  11.532
99444SOL     OW  228   0.033  13.845  13.327
99444SOL    HW1  229   0.044  13.847  13.232
99444SOL    HW2  230   0.122  13.834  13.360
99445SOL     OW  231   2.229   9.208   3.295
99445SOL    HW1  232   2.159   9.248   3.346
99445SOL    HW2  233   2.280   9.157   3.358
99446SOL     OW  234   6.824   1.691   9.392
99446SOL    HW1  235   6.878   1.748   9.338
99446SOL    HW2  236   6.873   1.681   9.473
99447SOL     OW  237   7.493  14.218  11.882
99447SOL    HW1  238   7.457  14.252  11.964
99447SOL    HW2  239   7.572  14.170  11.908
99448SOL     OW  240  10.133   7.099   2.995
99448SOL    HW1  241  10.050   7.058   2.972
99448SOL    HW2  242  10.171   7.041   3.061
99449SOL     OW  243   7.753  13.739  14.249
99449SOL    HW1  244   7.711  13.676  14.308
99449SOL    HW2  245   7.681  13.768  14.192
99450SOL     OW  246   9.118  12.997   3.184
99450SOL    HW1  247   9.048  13.025   3.243
99450SOL    HW2  248   9.101  13.045   3.103
99451SOL     OW  249   8.144   5.122   8.993
99451SOL    HW1  250   8.142   5.087   9.082
99451SOL    HW2  251   8.234   5.153   8.982
99452SOL     OW  252   7.646   9.295   8.237
99452SOL    HW1  253   7.720   9.337   8.194
99452SOL    HW2  254   7.656   9.202   8.216
99453SOL     OW  255   0.832   7.765   0.101
99453SOL    HW1  256   0.795   7.758   0.013
99453SOL    HW2  257   0.844   7.859   0.114
99454SOL     OW  258  11.126  13.657   8.163
99454SOL    HW1  259  11.099  13.721   8.097
99454SOL    HW2  260  11.220  13.670   8.173
99455SOL     OW  261   3.627  12.481  10.272
99455SOL    HW1  262   3.673  12.555  10.312
99455SOL    HW2  263   3.633  12.411  10.338
99456SOL     OW  264   7.248  13.649   2.869
99456SOL    HW1  265   7.267  13.710   2.798
99456SOL    HW2  266   7.177  13.690   2.918
99457SOL     OW  267  12.002   3.039   5.336
99457SOL    HW1  268  12.009   2.983   5.259
99457SOL    HW2  269  12.076   3.014   5.391
99458SOL     OW  270   8.733   6.982  14.014
99458SOL    HW1  271   8.786   6.929  13.955
99458SOL    HW2  272   8.643   6.957  13.995
99459SOL     OW  273  14.495   6.928   9.836
99459SOL    HW1  274  14.543   6.940   9.754
99459SOL    HW2  275  14.428   6.862   9.816
99460SOL     OW  276   2.244   1.215   8.981
99460SOL    HW1  277   2.305   1.279   8.946
99460SOL    HW2  278   2.158   1.248   8.955
99461SOL     OW  279   8.659   2.942   3.119
99461SOL    HW1  280   8.707   2.904   3.192
99461SOL    HW2  281   8.717   3.009   3.084
99462SOL     OW  282  12.686   9.720   4.022
99462SOL    HW1  283  12.601   9.763   4.022
99462SOL    HW2  284  12.705   9.705   3.929
99463SOL     OW  285  12.753   4.592   0.226
99463SOL    HW1  286  12.713   4.506   0.213
99463SOL    HW2  287  12.828   4.575   0.282
99464SOL     OW  288  14.640  12.580   2.299
99464SOL    HW1  289  14.666  12.618   2.382
99464SOL    HW2  290  14.639  12.654   2.238
99465SOL     OW  291   2.600  10.714  14.332
99465SOL    HW1  292   2.610  10.799  14.288
99465SOL    HW2  293   2.653  10.722  14.411
99466SOL     OW  294   1.323   1.274   4.771
99466SOL    HW1  295   1.351   1.272   4.863
99466SOL    HW2  296   1.269   1.196   4.761
99467SOL     OW  297   0.816   6.708   9.389
99467SOL    HW1  298   0.830   6.643   9.321
99467SOL    HW2  299   0.722   6.704   9.407
99468SOL     OW  300   1.518  12.437   3.072
99468SOL    HW1  301   1.448  12.375   3.092
99468SOL    HW2  302   1.512  12.503   3.142
99469SOL     OW  303   8.850   2.068   6.870
99469SOL    HW1  304   8.888   2.022   6.795
99469SOL    HW2  305   8.851   2.004   6.941
99470SOL     OW  306   9.640  10.576   3.378
99470SOL    HW1  307   9.601  10.530   3.303
99470SOL    HW2  308   9.568  10.588   3.439
99471SOL     OW  309   1.534   9.422   8.059
99471SOL    HW1  310   1.534   9.355   8.127
99471SOL    HW2  311   1.597   9.390   7.994
99472SOL     OW  312   5.628   0.169   6.109
99472SOL    HW1  313   5.555   0.212   6.154
99472SOL    HW2  314   5.669   0.238   6.057
99473SOL     OW  315   9.290   7.112   2.517
99473SOL    HW1  316   9.298   7.018   2.532
99473SOL    HW2  317   9.376   7.137   2.482
99474SOL     OW  318  12.077  10.313   9.503
99474SOL    HW1  319  12.016  10.320   9.577
99474SOL    HW2  320  12.162  10.297   9.544
99475SOL     OW  321   4.234   7.554   0.384
99475SOL    HW1  322   4.226   7.506   0.301
99475SOL    HW2  323   4.149   7.543   0.426
99476SOL     OW  324  13.993   0.344  14.343
99476SOL    HW1  325  14.041   0.348  14.260
99476SOL    HW2  326  13.995   0.252  14.368
99477SOL     OW  327   8.155   7.732   9.777
99477SOL    HW1  328   8.125   7.801   9.836
99477SOL    HW2  329   8.162   7.776   9.692
99478SOL     OW  330   0.482  14.374  12.986
99478SOL    HW1  331   0.476  14.394  12.892
99478SOL    HW2  332   0.440  14.448  13.029
99479SOL     OW  333  12.517   8.757   8.229
99479SOL    HW1  334  12.492   8.800   8.311
99479SOL    HW2  335  12.496   8.821   8.161
99480SOL     OW  336   5.673   4.875   5.119
99480SOL    HW1  337   5.740   4.900   5.183
99480SOL    HW2  338   5.609   4.946   5.123
99481SOL     OW  339   2.665   6.334   7.244
99481SOL    HW1  340   2.742   6.287   7.277
99481SOL    HW2  341   2.697   6.381   7.167
99482SOL     OW  342  10.253   8.488   6.058
99482SOL    HW1  343  10.304   8.569   6.066
99482SOL    HW2  344  10.297   8.426   6.117
99483SOL     OW  345   3.210   3.959   6.910
99483SOL    HW1  346   3.210   3.978   7.003
99483SOL    HW2  347   3.264   3.880   6.902
99484SOL     OW  348   1.434   1.850   3.764
99484SOL    HW1  349   1.436   1.771   3.818
99484SOL    HW2  350   1.470   1.823   3.679
99485SOL     OW  351   0.130   1.302   3.977
99485SOL    HW1  352   0.224   1.296   3.957
99485SOL    HW2  353   0.088   1.243   3.915
99486SOL     OW  354  13.287  12.000  14.289
99486SOL    HW1  355  13.207  12.024  14.242
99486SOL    HW2  356  13.269  11.914  14.326
99487SOL     OW  357   5.557   5.049   6.754
99487SOL    HW1  358   5.521   4.990   6.687
99487SOL    HW2  359   5.522   5.015   6.837
99488SOL     OW  360   7.135   4.818   6.793
99488SOL    HW1  361   7.196   4.863   6.851
99488SOL    HW2  362   7.128   4.876   6.717
99489SOL     OW  363  14.611   4.420   1.880
99489SOL    HW1  364  14.634   4.346   1.824
99489SOL    HW2  365  14.533   4.458   1.839
99490SOL     OW  366   3.178   4.194  14.744
99490SOL    HW1  367   3.112   4.247  14.789
99490SOL    HW2  368   3.128   4.141  14.682
99491SOL     OW  369   6.278   3.960  12.722
99491SOL    HW1  370   6.349   3.907  12.758
99491SOL    HW2  371   6.225   3.985  12.798
99492SOL     OW  372   9.782   9.933  13.496
99492SOL    HW1  373   9.857   9.957  13.550
99492SOL    HW2  374   9.817   9.931  13.407
99493SOL     OW  375   6.217   3.276   1.714
99493SOL    HW1  376   6.247   3.360   1.679
99493SOL    HW2  377   6.156   3.244   1.647
99494SOL     OW  378   4.334   5.823  13.922
99494SOL    HW1  379   4.409   5.773  13.952
99494SOL    HW2  380   4.371   5.899  13.878
99495SOL     OW  381   0.362   0.924  12.872
99495SOL    HW1  382   0.453   0.954  12.871
99495SOL    HW2  383   0.317   0.989  12.927
99496SOL     OW  384   8.777   4.094   3.363
99496SOL    HW1  385   8.705   4.154   3.342
99496SOL    HW2  386   8.855   4.148   3.356
99497SOL     OW  387   1.774   6.532  11.443
99497SOL    HW1  388   1.791   6.438  11.443
99497SOL    HW2  389   1.853   6.570  11.481
99498SOL     OW  390   9.392  11.505   1.573
99498SOL    HW1  391   9.385  11.432   1.511
99498SOL    HW2  392   9.394  11.583   1.518
99499SOL     OW  393   7.367   8.283   0.378
99499SOL    HW1  394   7.367   8.379   0.368
99499SOL    HW2  395   7.459   8.259   0.371
99500SOL     OW  396   9.226  13.301  11.825
99500SOL    HW1  397   9.176  13.374  11.788
99500SOL    HW2  398   9.307  13.299  11.775
99501SOL     OW  399   8.320   7.948  11.048
99501SOL    HW1  400   8.238   7.920  11.008
99501SOL    HW2  401   8.297   8.027  11.097
99502SOL     OW  402   1.182   5.401  14.173
99502SOL    HW1  403   1.161   5.316  14.133
99502SOL    HW2  404   1.161   5.390  14.266
99503SOL     OW  405  11.340   9.700   4.222
99503SOL    HW1  406  11.314   9.772   4.279
99503SOL    HW2  407  11.257   9.656   4.201
99504SOL     OW  408   1.638  13.378   0.038
99504SOL    HW1  409   1.649  13.336   0.123
99504SOL    HW2  410   1.713  13.349  14.869
99505SOL     OW  411   0.920   3.815   1.329
99505SOL    HW1  412   0.981   3.873   1.283
99505SOL    HW2  413   0.958   3.728   1.319
99506SOL     OW  414   3.279   4.310  13.535
99506SOL    HW1  415   3.233   4.319  13.618
99506SOL    HW2  416   3.212   4.278  13.474
99507SOL     OW  417   8.310  10.650   6.150
99507SOL    HW1  418   8.366  10.727   6.144
99507SOL    HW2  419   8.371  10.576   6.153
99508SOL     OW  420  14.355   7.501   6.701
99508SOL    HW1  421  14.375   7.414   6.734
99508SOL    HW2  422  14.362   7.493   6.606
99509SOL     OW  423   4.551   9.347   6.186
99509SOL    HW1  424   4.456   9.332   6.188
99509SOL    HW2  425   4.561   9.420   6.124
99510SOL     OW  426   7.359  13.663   5.667
99510SOL    HW1  427   7.390  13.629   5.583
99510SOL    HW2  428   7.438  13.694   5.710
99511SOL     OW  429  13.849   4.631  12.537
99511SOL    HW1  430  13.897   4.655  12.458
99511SOL    HW2  431  13.901   4.669  12.608
99512SOL     OW  432   8.049   1.531   2.345
99512SOL    HW1  433   8.120   1.468   2.347
99512SOL    HW2  434   8.025   1.542   2.437
99513SOL     OW  435   6.542   4.068   2.899
99513SOL    HW1  436   6.576   4.034   2.982
99513SOL    HW2  437   6.568   4.160   2.898
99514SOL     OW  438   5.455   8.007  13.566
99514SOL    HW1  439   5.415   8.060  13.497
99514SOL    HW2  440   5.455   7.918  13.531
99515SOL     OW  441   2.254   2.501  10.446
99515SOL    HW1  442   2.247   2.405  10.444
99515SOL    HW2  443   2.209   2.530  10.366
99516SOL     OW  444   7.600   2.803   7.319
99516SOL    HW1  445   7.617   2.872   7.384
99516SOL    HW2  446   7.682   2.754   7.315
99517SOL     OW  447   5.790  13.035  14.824
99517SOL    HW1  448   5.850  13.013  14.753
99517SOL    HW2  449   5.836  13.007   0.021
99518SOL     OW  450   3.660   8.871  11.493
99518SOL    HW1  451   3.671   8.939  11.559
99518SOL    HW2  452   3.738   8.816  11.503
99519SOL     OW  453   2.764  12.833   8.986
99519SOL    HW1  454   2.736  12.827   9.078
99519SOL    HW2  455   2.684  12.817   8.936
99520SOL     OW  456   0.754  13.973  11.563
99520SOL    HW1  457   0.728  14.057  11.524
99520SOL    HW2  458   0.808  13.997  11.638
99521SOL     OW  459   1.190   2.965   5.199
99521SOL    HW1  460   1.113   3.011   5.167
99521SOL    HW2  461   1.255   2.975   5.129
99522SOL     OW  462  13.850   1.424  12.777
99522SOL    HW1  463  13.878   1.336  12.752
99522SOL    HW2  464  13.790   1.450  12.708
99523SOL     OW  465   3.393   5.956   7.539
99523SOL    HW1  466   3.438   6.028   7.585
99523SOL    HW2  467   3.321   5.998   7.493
99524SOL     OW  468  10.809   2.687  13.729
99524SOL    HW1  469  10.892   2.712  13.688
99524SOL    HW2  470  10.821   2.708  13.822
99525SOL     OW  471  13.185  10.859  10.889
99525SOL    HW1  472  13.207  10.831  10.800
99525SOL    HW2  473  13.260  10.834  10.942
99526SOL     OW  474   3.998   5.850   8.288
99526SOL    HW1  475   4.064   5.908   8.326
99526SOL    HW2  476   3.926   5.908   8.265
99527SOL     OW  477  11.368   3.686  12.963
99527SOL    HW1  478  11.292   3.647  12.920
99527SOL    HW2  479  11.440   3.671  12.903
99528SOL     OW  480  14.767  10.909  14.065
99528SOL    HW1  481  14.680  10.948  14.074
99528SOL    HW2  482  14.799  10.900  14.154
99529SOL     OW  483  14.397   1.386  12.389
99529SOL    HW1  484  14.306   1.412  12.374
99529SOL    HW2  485  14.392   1.292  12.406
99530SOL     OW  486  11.762  12.135   8.977
99530SOL    HW1  487  11.749  12.209   8.917
99530SOL    HW2  488  11.817  12.074   8.928
99531SOL     OW  489   8.935  11.969   3.984
99531SOL    HW1  490   8.947  11.985   4.078
99531SOL    HW2  491   8.982  11.887   3.968
99532SOL     OW  492   8.647   8.351   4.065
99532SOL    HW1  493   8.669   8.437   4.100
99532SOL    HW2  494   8.553   8.355   4.048
99533SOL     OW  495  14.412  12.846   6.944
99533SOL    HW1  496  14.478  12.857   6.875
99533SOL    HW2  497  14.329  12.868   6.901
99534SOL     OW  498   2.720   7.779   9.785
99534SOL    HW1  499   2.710   7.786   9.880
99534SOL    HW2  500   2.630   7.783   9.751
99535SOL     OW  501  12.094  10.986   4.336
99535SOL    HW1  502  12.150  10.965   4.260
99535SOL    HW2  503  12.036  11.054   4.304
99536SOL     OW  504  13.893   6.975   0.847
99536SOL    HW1  505  13.890   6.900   0.788
99536SOL    HW2  506  13.851   7.046   0.799
99537SOL     OW  507   3.844   4.909   2.299
99537SOL    HW1  508   3.931   4.938   2.327
99537SOL    HW2  509   3.819   4.842   2.362
99538SOL     OW  510  14.747   6.565  10.776
99538SOL    HW1  511  14.771   6.548  10.867
99538SOL    HW2  512  14.829   6.592  10.734
99539SOL     OW  513   8.220   4.871   2.972
99539SOL    HW1  514   8.167   4.800   2.934
99539SOL    HW2  515   8.255   4.833   3.053
99540SOL     OW  516   3.077  14.726  11.193
99540SOL    HW1  517   3.110  14.805  11.150
99540SOL    HW2  518   2.993  14.709  11.150
99541SOL     OW  519   0.276   5.027   9.355
99541SOL    HW1  520   0.300   5.079   9.279
99541SOL    HW2  521   0.206   4.969   9.324
99542SOL     OW  522   5.630  14.398   8.141
99542SOL    HW1  523   5.672  14.397   8.056
99542SOL    HW2  524   5.545  14.441   8.126
99543SOL     OW  525  10.695   8.170   1.961
99543SOL    HW1  526  10.789   8.182   1.959
99543SOL    HW2  527  10.665   8.202   1.876
99544SOL     OW  528   2.049  12.510   0.716
99544SOL    HW1  529   2.064  12.429   0.669
99544SOL    HW2  530   2.092  12.577   0.663
99545SOL     OW  531   6.723  14.444   4.635
99545SOL    HW1  532   6.691  14.457   4.724
99545SOL    HW2  533   6.816  14.465   4.639
99546SOL     OW  534   0.158   9.676  10.671
99546SOL    HW1  535   0.201   9.654  10.589
99546SOL    HW2  536   0.152   9.593  10.719
99547SOL     OW  537   8.798   5.101  14.689
99547SOL    HW1  538   8.839   5.128  14.771
99547SOL    HW2  539   8.870   5.100  14.625
99548SOL     OW  540   9.767  12.074   3.657
99548SOL    HW1  541   9.732  12.141   3.597
99548SOL    HW2  542   9.696  12.010   3.664
99549SOL     OW  543  13.615   1.239  12.806
99549SOL    HW1  544  13.678   1.187  12.855
99549SOL    HW2  545  13.530   1.213  12.841
99550SOL     OW  546   4.808   2.209   6.587
99550SOL    HW1  547   4.832   2.207   6.495
99550SOL    HW2  548   4.718   2.240   6.588
99551SOL     OW  549   7.180   3.375   8.068
99551SOL    HW1  550   7.170   3.455   8.120
99551SOL    HW2  551   7.269   3.377   8.035
99552SOL     OW  552   3.033  14.030   7.607
99552SOL    HW1  553   3.091  13.955   7.598
99552SOL    HW2  554   3.090  14.101   7.635
99553SOL     OW  555   7.851   6.150  12.306
99553SOL    HW1  556   7.910   6.188  12.371
99553SOL    HW2  557   7.797   6.089  12.355
99554SOL     OW  558   1.352   3.833   1.092
99554SOL    HW1  559   1.388   3.831   1.003
99554SOL    HW2  560   1.415   3.783   1.144
99555SOL     OW  561  10.629  13.724   0.821
99555SOL    HW1  562  10.682  13.653   0.856
99555SOL    HW2  563  10.691  13.781   0.775
99556SOL     OW  564  12.810   4.743  10.327
99556SOL    HW1  565  12.891   4.789  10.348
99556SOL    HW2  566  12.816   4.726  10.233
99557SOL     OW  567  14.159   5.008   0.085
99557SOL    HW1  568  14.072   4.998   0.122
99557SOL    HW2  569  14.195   4.919   0.081
99558SOL     OW  570   2.764   3.614   7.554
99558SOL    HW1  571   2.788   3.634   7.644
99558SOL    HW2  572   2.682   3.564   7.562
99559SOL     OW  573  10.055  11.495   7.588
99559SOL    HW1  574   9.961  11.514   7.597
99559SOL    HW2  575  10.086  11.557   7.522
99560SOL     OW  576   3.467  10.162   6.131
99560SOL    HW1  577   3.425  10.209   6.059
99560SOL    HW2  578   3.484  10.075   6.096
99561SOL     OW  579  12.590   4.017   2.556
99561SOL    HW1  580  12.495   4.027   2.546
99561SOL    HW2  581  12.623   4.106   2.568
99562SOL     OW  582  11.334   6.593  14.484
99562SOL    HW1  583  11.420   6.562  14.454
99562SOL    HW2  584  11.320   6.674  14.436
99563SOL     OW  585   4.898   4.406   3.487
99563SOL    HW1  586   4.958   4.336   3.512
99563SOL    HW2  587   4.833   4.407   3.558
99564SOL     OW  588   6.044   4.740   3.074
99564SOL    HW1  589   6.050   4.676   3.003
99564SOL    HW2  590   6.082   4.696   3.150
99565SOL     OW  591  13.513  11.373   5.619
99565SOL    HW1  592  13.491  11.439   5.552
99565SOL    HW2  593  13.521  11.423   5.700
99566SOL     OW  594   6.202   3.046  10.242
99566SOL    HW1  595   6.236   3.115  10.299
99566SOL    HW2  596   6.164   3.093  10.168
99567SOL     OW  597   7.114   5.951   6.637
99567SOL    HW1  598   7.063   5.886   6.686
99567SOL    HW2  599   7.188   5.901   6.602
99568SOL     OW  600   0.799  13.731   5.248
99568SOL    HW1  601   0.891  13.752   5.258
99568SOL    HW2  602   0.797  13.646   5.205
99569SOL     OW  603  10.817  11.125  14.649
99569SOL    HW1  604  10.811  11.074  14.568
99569SOL    HW2  605  10.870  11.070  14.708
99570SOL     OW  606   2.383   3.512   6.563
99570SOL    HW1  607   2.387   3.583   6.627
99570SOL    HW2  608   2.422   3.549   6.483
99571SOL     OW  609   7.627   8.053   8.404
99571SOL    HW1  610   7.569   8.107   8.458
99571SOL    HW2  611   7.590   7.965   8.409
99572SOL     OW  612   1.066   8.432  11.337
99572SOL    HW1  613   1.137   8.379  11.299
99572SOL    HW2  614   1.106   8.473  11.414
99573SOL     OW  615   6.393   8.174  13.160
99573SOL    HW1  616   6.436   8.223  13.230
99573SOL    HW2  617   6.422   8.219  13.080
99574SOL     OW  618  13.770   1.125   5.254
99574SOL    HW1  619  13.791   1.036   5.283
99574SOL    HW2  620  13.829   1.141   5.181
99575SOL     OW  621  10.151  11.996   8.760
99575SOL    HW1  622  10.138  11.981   8.854
99575SOL    HW2  623  10.140  12.090   8.749
99576SOL     OW  624   7.868  10.984   2.778
99576SOL    HW1  625   7.896  10.953   2.692
99576SOL    HW2  626   7.846  10.904   2.826
99577SOL     OW  627  11.353   3.799   3.054
99577SOL    HW1  628  11.277   3.769   3.102
99577SOL    HW2  629  11.381   3.722   3.004
99578SOL     OW  630  10.730   7.782   2.363
99578SOL    HW1  631  10.794   7.725   2.320
99578SOL    HW2  632  10.645   7.750   2.332
99579SOL     OW  633  13.449  14.266  14.086
99579SOL    HW1  634  13.366  14.310  14.065
99579SOL    HW2  635  13.426  14.201  14.152
99580SOL     OW  636   8.441   7.666   5.119
99580SOL    HW1  637   8.448   7.680   5.024
99580SOL    HW2  638   8.485   7.741   5.158
99581SOL     OW  639   6.948  10.022  14.760
99581SOL    HW1  640   6.905  10.101  14.726
99581SOL    HW2  641   7.041  10.041  14.755
99582SOL     OW  642   1.833   1.962   9.006
99582SOL    HW1  643   1.913   2.003   9.039
99582SOL    HW2  644   1.764   2.025   9.026
99583SOL     OW  645  11.948   3.158   4.103
99583SOL    HW1  646  11.916   3.215   4.172
99583SOL    HW2  647  11.881   3.163   4.035
99584SOL     OW  648  14.764   9.865   3.106
99584SOL    HW1  649  14.834   9.924   3.133
99584SOL    HW2  650  14.730   9.903   3.025
99585SOL     OW  651   7.464   1.680  13.945
99585SOL    HW1  652   7.482   1.601  13.996
99585SOL    HW2  653   7.384   1.716  13.984
99586SOL     OW  654   2.725  13.133   4.898
99586SOL    HW1  655   2.754  13.095   4.815
99586SOL    HW2  656   2.776  13.088   4.965
99587SOL     OW  657   6.060   7.319  11.488
99587SOL    HW1  658   6.127   7.358  11.431
99587SOL    HW2  659   6.076   7.357  11.574
99588SOL     OW  660   4.995   5.621   8.262
99588SOL    HW1  661   4.963   5.537   8.294
99588SOL    HW2  662   4.948   5.635   8.180
99589SOL     OW  663   0.935  11.321  10.553
99589SOL    HW1  664   0.878  11.250  10.525
99589SOL    HW2  665   0.892  11.358  10.630
99590SOL     OW  666   1.903   1.103  13.853
99590SOL    HW1  667   1.938   1.191  13.862
99590SOL    HW2  668   1.871   1.099  13.763
99591SOL     OW  669  10.285   2.218   1.743
99591SOL    HW1  670  10.350   2.274   1.701
99591SOL    HW2  671  10.301   2.227   1.837
99592SOL     OW  672  14.706   4.341   1.227
99592SOL    HW1  673  14.634   4.372   1.281
99592SOL    HW2  674  14.748   4.273   1.280
99593SOL     OW  675   6.307   9.190  13.079
99593SOL    HW1  676   6.224   9.235  13.064
99593SOL    HW2  677   6.325   9.145  12.996
99594SOL     OW  678   6.745   4.623   3.528
99594SOL    HW1  679   6.707   4.587   3.448
99594SOL    HW2  680   6.694   4.703   3.545
99595SOL     OW  681   4.366   9.449  12.328
99595SOL    HW1  682   4.274   9.472  12.320
99595SOL    HW2  683   4.393   9.487  12.412
99596SOL     OW  684   1.271   4.161  12.710
99596SOL    HW1  685   1.214   4.094  12.673
99596SOL    HW2  686   1.297   4.127  12.795
99597SOL     OW  687   9.968   6.076   7.938
99597SOL    HW1  688   9.896   6.022   7.906
99597SOL    HW2  689  10.046   6.041   7.894
99598SOL     OW  690  10.544  12.013   5.291
99598SOL    HW1  691  10.636  12.033   5.273
99598SOL    HW2  692  10.498  12.094   5.272
99599SOL     OW  693  12.745   4.088   7.350
99599SOL    HW1  694  12.667   4.121   7.306
99599SOL    HW2  695  12.714   4.018   7.406
99600SOL     OW  696   9.988  12.060   0.867
99600SOL    HW1  697   9.986  12.143   0.916
99600SOL    HW2  698   9.995  11.993   0.935
99601SOL     OW  699  12.982   3.901   8.696
99601SOL    HW1  700  12.980   3.943   8.609
99601SOL    HW2  701  12.976   3.808   8.678
99602SOL     OW  702   3.872  12.667   2.054
99602SOL    HW1  703   3.884  12.748   2.004
99602SOL    HW2  704   3.946  12.612   2.029
99603SOL     OW  705  12.154   1.589   3.834
99603SOL    HW1  706  12.231   1.633   3.796
99603SOL    HW2  707  12.145   1.509   3.782
99604SOL     OW  708   4.579   6.848  10.374
99604SOL    HW1  709   4.584   6.872  10.467
99604SOL    HW2  710   4.530   6.919  10.334
99605SOL     OW  711   9.530  10.279   6.469
99605SOL    HW1  712   9.501  10.220   6.399
99605SOL    HW2  713   9.625  10.270   6.470
99606SOL     OW  714   5.481   5.198   2.815
99606SOL    HW1  715   5.573   5.172   2.820
99606SOL    HW2  716   5.459   5.189   2.722
99607SOL     OW  717  14.679  13.489  11.553
99607SOL    HW1  718  14.594  13.491  11.598
99607SOL    HW2  719  14.706  13.580  11.550
99608SOL     OW  720   5.216  14.668   1.891
99608SOL    HW1  721   5.156  14.722   1.945
99608SOL    HW2  722   5.297  14.665   1.942
99609SOL     OW  723   5.153   4.094  12.428
99609SOL    HW1  724   5.208   4.087  12.506
99609SOL    HW2  725   5.212   4.127  12.360
99610SOL     OW  726   5.370  11.802  11.684
99610SOL    HW1  727   5.346  11.756  11.764
99610SOL    HW2  728   5.335  11.890  11.696
99611SOL     OW  729   7.680   9.383   7.154
99611SOL    HW1  730   7.713   9.442   7.222
99611SOL    HW2  731   7.626   9.319   7.202
99612SOL     OW  732   3.588   9.124   4.872
99612SOL    HW1  733   3.494   9.138   4.866
99612SOL    HW2  734   3.616   9.179   4.946
99613SOL     OW  735   5.592   3.530  12.772
99613SOL    HW1  736   5.542   3.480  12.836
99613SOL    HW2  737   5.665   3.472  12.749
99614SOL     OW  738   8.095   3.920   9.351
99614SOL    HW1  739   8.054   3.933   9.266
99614SOL    HW2  740   8.023   3.894   9.409
99615SOL     OW  741   1.299   6.187   2.395
99615SOL    HW1  742   1.248   6.184   2.314
99615SOL    HW2  743   1.381   6.143   2.372
99616SOL     OW  744   2.727   0.104  10.808
99616SOL    HW1  745   2.804   0.078  10.859
99616SOL    HW2  746   2.660   0.040  10.831
99617SOL     OW  747   9.024  13.370  13.072
99617SOL    HW1  748   8.943  13.381  13.121
99617SOL    HW2  749   8.997  13.361  12.981
99618SOL     OW  750  13.722   7.781  11.026
99618SOL    HW1  751  13.709   7.689  11.005
99618SOL    HW2  752  13.710   7.786  11.121
99619SOL     OW  753   4.860   3.756  12.175
99619SOL    HW1  754   4.770   3.778  12.153
99619SOL    HW2  755   4.913   3.799  12.108
99620SOL     OW  756  14.192   6.462  10.523
99620SOL    HW1  757  14.128   6.413  10.471
99620SOL    HW2  758  14.174   6.436  10.613
99621SOL     OW  759   0.471   7.580  14.631
99621SOL    HW1  760   0.413   7.546  14.700
99621SOL    HW2  761   0.452   7.674  14.628
99622SOL     OW  762   8.784  14.134   4.101
99622SOL    HW1  763   8.813  14.167   4.186
99622SOL    HW2  764   8.695  14.102   4.117
99623SOL     OW  765  11.872   6.125  12.218
99623SOL    HW1  766  11.866   6.087  12.131
99623SOL    HW2  767  11.782   6.150  12.240
99624SOL     OW  768   7.514  10.813   9.718
99624SOL    HW1  769   7.553  10.734   9.756
99624SOL    HW2  770   7.502  10.872   9.792
99625SOL     OW  771   1.429   5.927   1.237
99625SOL    HW1  772   1.352   5.871   1.251
99625SOL    HW2  773   1.501   5.865   1.225
99626SOL     OW  774   3.897  10.397   2.265
99626SOL    HW1  775   3.949  10.326   2.228
99626SOL    HW2  776   3.928  10.475   2.220
99627SOL     OW  777   0.185  12.285   7.118
99627SOL    HW1  778   0.117  12.350   7.134
99627SOL    HW2  779   0.189  12.234   7.198
99628SOL     OW  780   8.190   8.073   4.163
99628SOL    HW1  781   8.196   8.035   4.251
99628SOL    HW2  782   8.154   8.004   4.109
99629SOL     OW  783   7.846  14.505   5.198
99629SOL    HW1  784   7.783  14.540   5.135
99629SOL    HW2  785   7.915  14.466   5.144
99630SOL     OW  786   4.409  12.932   8.782
99630SOL    HW1  787   4.377  12.976   8.860
99630SOL    HW2  788   4.350  12.859   8.768
99631SOL     OW  789  13.402  12.978   8.399
99631SOL    HW1  790  13.458  13.015   8.331
99631SOL    HW2  791  13.425  12.885   8.403
99632SOL     OW  792  12.420   4.055   2.280
99632SOL    HW1  793  12.501   4.034   2.234
99632SOL    HW2  794  12.354   4.063   2.210
99633SOL     OW  795   5.449   8.897  14.669
99633SOL    HW1  796   5.412   8.813  14.696
99633SOL    HW2  797   5.507   8.875  14.596
99634SOL     OW  798   9.288   0.151  14.146
99634SOL    HW1  799   9.361   0.209  14.168
99634SOL    HW2  800   9.265   0.108  14.228
99635SOL     OW  801   4.641  11.568  12.134
99635SOL    HW1  802   4.670  11.493  12.186
99635SOL    HW2  803   4.692  11.641  12.167
99636SOL     OW  804   8.644   0.882   0.527
99636SOL    HW1  805   8.594   0.954   0.487
99636SOL    HW2  806   8.679   0.920   0.608
99637SOL     OW  807   5.222  10.261   5.986
99637SOL    HW1  808   5.301  10.247   5.933
99637SOL    HW2  809   5.184  10.342   5.952
99638SOL     OW  810   6.202   9.195   4.009
99638SOL    HW1  811   6.293   9.188   4.036
99638SOL    HW2  812   6.176   9.283   4.035
99639SOL     OW  813   8.690   4.821   5.500
99639SOL    HW1  814   8.602   4.846   5.526
99639SOL    HW2  815   8.698   4.729   5.528
99640SOL     OW  816   9.087  12.621   3.587
99640SOL    HW1  817   9.018  12.673   3.630
99640SOL    HW2  818   9.105  12.668   3.505
99641SOL     OW  819   7.305  12.271   6.908
99641SOL    HW1  820   7.380  12.329   6.901
99641SOL    HW2  821   7.252  12.289   6.830
99642SOL     OW  822   2.159  10.601   4.843
99642SOL    HW1  823   2.145  10.638   4.930
99642SOL    HW2  824   2.220  10.529   4.857
99643SOL     OW  825   6.304   5.625   2.887
99643SOL    HW1  826   6.385   5.662   2.921
99643SOL    HW2  827   6.262   5.698   2.841
99644SOL     OW  828  13.701   3.746  10.811
99644SOL    HW1  829  13.746   3.822  10.773
99644SOL    HW2  830  13.725   3.673  10.754
99645SOL     OW  831  11.232  12.320   2.410
99645SOL    HW1  832  11.172  12.355   2.476
99645SOL    HW2  833  11.242  12.391   2.347
99646SOL     OW  834  12.261  11.595   7.015
99646SOL    HW1  835  12.297  11.509   6.993
99646SOL    HW2  836  12.338  11.651   7.029
99647SOL     OW  837  12.699  12.779   0.762
99647SOL    HW1  838  12.634  12.797   0.694
99647SOL    HW2  839  12.650  12.784   0.844
99648SOL     OW  840   8.729  10.715  14.592
99648SOL    HW1  841   8.642  10.678  14.585
99648SOL    HW2  842   8.784  10.645  14.627
99649SOL     OW  843  13.073   7.119  11.258
99649SOL    HW1  844  13.053   7.138  11.166
99649SOL    HW2  845  12.992   7.079  11.291
99650SOL     OW  846   0.442   5.509   4.782
99650SOL    HW1  847   0.531   5.539   4.798
99650SOL    HW2  848   0.388   5.560   4.842
99651SOL     OW  849   6.195   2.399   2.202
99651SOL    HW1  850   6.204   2.494   2.214
99651SOL    HW2  851   6.209   2.385   2.109
99652SOL     OW  852  11.323  10.892   3.823
99652SOL    HW1  853  11.241  10.866   3.866
99652SOL    HW2  854  11.305  10.979   3.787
99653SOL     OW  855  11.807  11.600   0.389
99653SOL    HW1  856  11.800  11.653   0.310
99653SOL    HW2  857  11.732  11.541   0.385
99654SOL     OW  858  11.536   0.426   6.508
99654SOL    HW1  859  11.483   0.399   6.583
99654SOL    HW2  860  11.626   0.405   6.534
99655SOL     OW  861   4.159   5.085  11.023
99655SOL    HW1  862   4.070   5.120  11.021
99655SOL    HW2  863   4.172   5.047  10.935
99656SOL     OW  864   1.007   3.648  11.564
99656SOL    HW1  865   1.052   3.563  11.563
99656SOL    HW2  866   1.073   3.711  11.592
99657SOL     OW  867   9.866  13.687  10.899
99657SOL    HW1  868   9.812  13.708  10.976
99657SOL    HW2  869   9.886  13.594  10.910
99658SOL     OW  870  13.089  11.324   0.154
99658SOL    HW1  871  13.118  11.346   0.243
99658SOL    HW2  872  12.999  11.293   0.164
99659SOL     OW  873  11.101   9.530  13.208
99659SOL    HW1  874  11.162   9.557  13.140
99659SOL    HW2  875  11.128   9.441  13.232
99660SOL     OW  876  10.460  14.778   3.084
99660SOL    HW1  877  10.484  14.797   2.994
99660SOL    HW2  878  10.536  14.732   3.120
99661SOL     OW  879  12.648   9.678   5.235
99661SOL    HW1  880  12.718   9.655   5.296
99661SOL    HW2  881  12.620   9.766   5.261
99662SOL     OW  882   1.478  14.060   1.523
99662SOL    HW1  883   1.469  14.151   1.493
99662SOL    HW2  884   1.395  14.019   1.500
99663SOL     OW  885  10.613   6.931  14.286
99663SOL    HW1  886  10.531   6.975  14.264
99663SOL    HW2  887  10.621   6.862  14.220
99664SOL     OW  888   7.403  11.222  12.790
99664SOL    HW1  889   7.450  11.144  12.818
99664SOL    HW2  890   7.463  11.294  12.810
99665SOL     OW  891   3.373  13.788  10.444
99665SOL    HW1  892   3.408  13.711  10.490
99665SOL    HW2  893   3.449  13.826  10.401
99666SOL     OW  894   4.592   0.225   6.381
99666SOL    HW1  895   4.613   0.295   6.319
99666SOL    HW2  896   4.659   0.233   6.449
99667SOL     OW  897  13.125   8.825   5.393
99667SOL    HW1  898  13.065   8.750   5.390
99667SOL    HW2  899  13.069   8.901   5.380
99668SOL     OW  900  14.717  10.018   2.181
99668SOL    HW1  901  14.747  10.109   2.171
99668SOL    HW2  902  14.735   9.978   2.096
99669SOL     OW  903   0.438  14.445  14.716
99669SOL    HW1  904   0.420  14.508  14.785
99669SOL    HW2  905   0.418  14.492  14.635
99670SOL     OW  906   4.653   7.388   9.620
99670SOL    HW1  907   4.724   7.444   9.653
99670SOL    HW2  908   4.612   7.440   9.551
99671SOL     OW  909   1.203   5.952  12.537
99671SOL    HW1  910   1.299   5.957  12.530
99671SOL    HW2  911   1.188   5.911  12.622
99672SOL     OW  912   7.773  10.209   7.052
99672SOL    HW1  913   7.820  10.292   7.038
99672SOL    HW2  914   7.822  10.165   7.121
99673SOL     OW  915  11.813   2.251  11.002
99673SOL    HW1  916  11.743   2.197  10.965
99673SOL    HW2  917  11.891   2.196  10.996
99674SOL     OW  918   0.440  12.703  12.600
99674SOL    HW1  919   0.526  12.735  12.571
99674SOL    HW2  920   0.445  12.702  12.695
99675SOL     OW  921   3.519  10.032  10.831
99675SOL    HW1  922   3.553  10.011  10.744
99675SOL    HW2  923   3.521   9.949  10.878
99676SOL     OW  924   4.147   4.121  12.767
99676SOL    HW1  925   4.091   4.060  12.815
99676SOL    HW2  926   4.213   4.065  12.726
99677SOL     OW  927  11.992   8.481  11.388
99677SOL    HW1  928  11.912   8.477  11.336
99677SOL    HW2  929  11.968   8.446  11.473
99678SOL     OW  930   5.459   1.265   2.563
99678SOL    HW1  931   5.380   1.227   2.602
99678SOL    HW2  932   5.452   1.245   2.470
99679SOL     OW  933   3.575   5.297  13.970
99679SOL    HW1  934   3.524   5.374  13.996
99679SOL    HW2  935   3.621   5.325  13.891
99680SOL     OW  936   5.058   7.385  10.293
99680SOL    HW1  937   5.031   7.322  10.226
99680SOL    HW2  938   5.153   7.393  10.281
99681SOL     OW  939   8.934  11.559   7.975
99681SOL    HW1  940   8.916  11.565   7.881
99681SOL    HW2  941   8.930  11.650   8.006
99682SOL     OW  942   1.501   4.279  13.417
99682SOL    HW1  943   1.591   4.306  13.430
99682SOL    HW2  944   1.460   4.352  13.370
99683SOL     OW  945   2.772   9.866  13.124
99683SOL    HW1  946   2.760   9.934  13.057
99683SOL    HW2  947   2.720   9.792  13.092
99684SOL     OW  948  13.935  13.245   2.843
99684SOL    HW1  949  13.880  13.288   2.909
99684SOL    HW2  950  13.927  13.300   2.765
99685SOL     OW  951   2.720  10.889   8.668
99685SOL    HW1  952   2.693  10.798   8.679
99685SOL    HW2  953   2.735  10.899   8.574
99686SOL     OW  954  12.230  10.505   6.474
99686SOL    HW1  955  12.257  10.547   6.555
99686SOL    HW2  956  12.245  10.412   6.488
99687SOL     OW  957  11.484   2.687   3.930
99687SOL    HW1  958  11.472   2.649   4.017
99687SOL    HW2  959  11.395   2.702   3.898
99688SOL     OW  960   0.894   6.325  10.339
99688SOL    HW1  961   0.897   6.382  10.416
99688SOL    HW2  962   0.802   6.325  10.313
99689SOL     OW  963   1.268   6.400   8.559
99689SOL    HW1  964   1.348   6.353   8.537
99689SOL    HW2  965   1.298   6.489   8.581
99690SOL     OW  966   2.605   2.235   5.934
99690SOL    HW1  967   2.676   2.170   5.940
99690SOL    HW2  968   2.637   2.298   5.869
99691SOL     OW  969  14.526  11.168   3.645
99691SOL    HW1  970  14.515  11.078   3.617
99691SOL    HW2  971  14.526  11.164   3.741
99692SOL     OW  972   3.446   3.622   6.487
99692SOL    HW1  973   3.469   3.706   6.446
99692SOL    HW2  974   3.355   3.632   6.514
99693SOL     OW  975   0.125  11.011  10.791
99693SOL    HW1  976   0.095  10.938  10.845
99693SOL    HW2  977   0.191  10.974  10.734
99694SOL     OW  978   8.576  13.801   1.155
99694SOL    HW1  979   8.517  13.760   1.218
99694SOL    HW2  980   8.592  13.888   1.191
99695SOL     OW  981   9.650   4.154   1.436
99695SOL    HW1  982   9.735   4.197   1.426
99695SOL    HW2  983   9.670   4.074   1.485
99696SOL     OW  984  11.596   4.368   6.582
99696SOL    HW1  985  11.503   4.379   6.602
99696SOL    HW2  986  11.615   4.436   6.518
99697SOL     OW  987  12.695  11.303   4.798
99697SOL    HW1  988  12.604  11.280   4.777
99697SOL    HW2  989  12.709  11.268   4.886
99698SOL     OW  990   2.592  10.855  12.834
99698SOL    HW1  991   2.632  10.788  12.889
99698SOL    HW2  992   2.582  10.812  12.748
99699SOL     OW  993   2.207  13.682  13.651
99699SOL    HW1  994   2.234  13.662  13.741
99699SOL    HW2  995   2.172  13.771  13.656
99700SOL     OW  996  13.902  10.312   1.319
99700SOL    HW1  997  13.934  10.384   1.265
99700SOL    HW2  998  13.807  10.318   1.313
99701SOL     OW  999  10.397   3.856   7.290
99701SOL    HW1 1000  10.373   3.829   7.202
99701SOL    HW2 1001  10.427   3.946   7.280
99702SOL     OW 1002   2.929  14.250  12.149
99702SOL    HW1 1003   2.880  14.191  12.092
99702SOL    HW2 1004   2.948  14.198  12.227
99703SOL     OW 1005  10.362   4.696   1.654
99703SOL    HW1 1006  10.306   4.754   1.706
99703SOL    HW2 1007  10.397   4.752   1.585
99704SOL     OW 1008   6.323   7.286   1.573
99704SOL    HW1 1009   6.282   7.348   1.633
99704SOL    HW2 1010   6.250   7.248   1.525
99705SOL     OW 1011   5.461   6.307  13.756
99705SOL    HW1 1012   5.529   6.314  13.822
99705SOL    HW2 1013   5.396   6.248  13.794
99706SOL     OW 1014   5.351  14.709   8.015
99706SOL    HW1 1015   5.294  14.746   7.948
99706SOL    HW2 1016   5.328  14.616   8.017
99707SOL     OW 1017   4.914   1.836  13.688
99707SOL    HW1 1018   4.936   1.752  13.648
99707SOL    HW2 1019   4.922   1.821  13.782
99708SOL     OW 1020   5.493  11.893   8.664
99708SOL    HW1 1021   5.524  11.981   8.685
99708SOL    HW2 1022   5.447  11.902   8.581
99709SOL     OW 1023   5.643   8.108   1.347
99709SOL    HW1 1024   5.591   8.046   1.296
99709SOL    HW2 1025   5.692   8.053   1.408
99710SOL     OW 1026  12.014   6.613   7.149
99710SOL    HW1 1027  11.961   6.555   7.094
99710SOL    HW2 1028  12.025   6.566   7.231
99711SOL     OW 1029  13.604   5.130   3.008
99711SOL    HW1 1030  13.522   5.159   2.970
99711SOL    HW2 1031  13.581   5.101   3.097
99712SOL     OW 1032   6.403  11.040   4.036
99712SOL    HW1 1033   6.409  11.118   4.092
99712SOL    HW2 1034   6.494  11.016   4.019
99713SOL     OW 1035  14.745   2.913   7.608
99713SOL    HW1 1036  14.791   2.890   7.689
99713SOL    HW2 1037  14.731   3.008   7.615
99714SOL     OW 1038   2.743  12.429   3.273
99714SOL    HW1 1039   2.752  12.524   3.277
99714SOL    HW2 1040   2.648  12.414   3.278
99715SOL     OW 1041   6.138   3.727   5.198
99715SOL    HW1 1042   6.198   3.787   5.154
99715SOL    HW2 1043   6.147   3.645   5.151
99716SOL     OW 1044  11.858   6.389   6.366
99716SOL    HW1 1045  11.811   6.306   6.371
99716SOL    HW2 1046  11.853   6.425   6.455
99717SOL     OW 1047  14.816   1.361   0.376
99717SOL    HW1 1048  14.777   1.329   0.457
99717SOL    HW2 1049  14.747   1.413   0.334
99718SOL     OW 1050  11.366   5.768   5.536
99718SOL    HW1 1051  11.311   5.767   5.615
99718SOL    HW2 1052  11.315   5.721   5.471
99719SOL     OW 1053   9.224  12.769   7.713
99719SOL    HW1 1054   9.210  12.853   7.669
99719SOL    HW2 1055   9.149  12.715   7.686
99720SOL     OW 1056   9.318   8.571  14.453
99720SOL    HW1 1057   9.294   8.658  14.421
99720SOL    HW2 1058   9.234   8.525  14.463
99721SOL     OW 1059   3.600   5.058  12.713
99721SOL    HW1 1060   3.606   5.007  12.632
99721SOL    HW2 1061   3.562   5.142  12.685
99722SOL     OW 1062  12.349  13.296   7.224
99722SOL    HW1 1063  12.323  13.205   7.210
99722SOL    HW2 1064  12.273  13.347   7.197
99723SOL     OW 1065   6.759   2.187   0.325
99723SOL    HW1 1066   6.817   2.138   0.266
99723SOL    HW2 1067   6.699   2.233   0.266
99724SOL     OW 1068  12.666  14.803  12.264
99724SOL    HW1 1069  12.646   0.008  12.230
99724SOL    HW2 1070  12.595  14.784  12.325
99725SOL     OW 1071  10.855   1.723   7.662
99725SOL    HW1 1072  10.936   1.772   7.670
99725SOL    HW2 1073  10.837   1.692   7.751
99726SOL     OW 1074  10.091   4.023   9.829
99726SOL    HW1 1075  10.096   3.972   9.910
99726SOL    HW2 1076  10.024   4.089   9.846
99727SOL     OW 1077   1.665  10.405   4.190
99727SOL    HW1 1078   1.623  10.456   4.259
99727SOL    HW2 1079   1.735  10.358   4.234
99728SOL     OW 1080   2.445   0.507  13.301
99728SOL    HW1 1081   2.404   0.586  13.265
99728SOL    HW2 1082   2.389   0.481  13.374
99729SOL     OW 1083   9.562   0.815  12.926
99729SOL    HW1 1084   9.614   0.738  12.950
99729SOL    HW2 1085   9.479   0.804  12.972
99730SOL     OW 1086  11.602  11.304   9.056
99730SOL    HW1 1087  11.515  11.345   9.055
99730SOL    HW2 1088  11.601  11.248   9.134
99731SOL     OW 1089   7.701   0.819   0.481
99731SOL    HW1 1090   7.723   0.834   0.572
99731SOL    HW2 1091   7.620   0.869   0.467
99732SOL     OW 1092   0.176   7.363   7.749
99732SOL    HW1 1093   0.230   7.332   7.821
99732SOL    HW2 1094   0.194   7.303   7.677
99733SOL     OW 1095   6.995   9.584   8.168
99733SOL    HW1 1096   7.048   9.583   8.088
99733SOL    HW2 1097   6.905   9.591   8.136
99734SOL     OW 1098   1.361   4.463   1.022
99734SOL    HW1 1099   1.444   4.425   0.992
99734SOL    HW2 1100   1.386   4.532   1.083
99735SOL     OW 1101   2.877   8.247  13.955
99735SOL    HW1 1102   2.950   8.214  14.008
99735SOL    HW2 1103   2.917   8.313  13.898
99736SOL     OW 1104  14.025  12.064   4.183
99736SOL    HW1 1105  14.093  12.121   4.146
99736SOL    HW2 1106  13.967  12.124   4.230
99737SOL     OW 1107  10.754  14.162  11.560
99737SOL    HW1 1108  10.731  14.089  11.503
99737SOL    HW2 1109  10.670  14.197  11.588
99738SOL     OW 1110   3.797  12.144  14.620
99738SOL    HW1 1111   3.759  12.201  14.553
99738SOL    HW2 1112   3.801  12.199  14.699
99739SOL     OW 1113  10.465   9.360   8.331
99739SOL    HW1 1114  10.410   9.292   8.371
99739SOL    HW2 1115  10.526   9.386   8.400
99740SOL     OW 1116  11.500   9.444  14.004
99740SOL    HW1 1117  11.590   9.465  14.030
99740SOL    HW2 1118  11.489   9.352  14.028
99741SOL     OW 1119   9.007   6.804  14.153
99741SOL    HW1 1120   9.097   6.830  14.133
99741SOL    HW2 1121   8.968   6.787  14.067
99742SOL     OW 1122   1.525  11.677   5.860
99742SOL    HW1 1123   1.537  11.701   5.768
99742SOL    HW2 1124   1.440  11.635   5.863
99743SOL     OW 1125   7.089   5.815  11.171
99743SOL    HW1 1126   7.094   5.773  11.086
99743SOL    HW2 1127   7.118   5.905  11.156
99744SOL     OW 1128   5.423   2.731   7.506
99744SOL    HW1 1129   5.417   2.756   7.414
99744SOL    HW2 1130   5.404   2.637   7.507
99745SOL     OW 1131   5.839   1.790   9.860
99745SOL    HW1 1132   5.808   1.852   9.926
99745SOL    HW2 1133   5.759   1.752   9.823
99746SOL     OW 1134   4.660   5.826   5.066
99746SOL    HW1 1135   4.690   5.758   5.006
99746SOL    HW2 1136   4.592   5.873   5.018
99747SOL     OW 1137   8.939  11.492   9.399
99747SOL    HW1 1138   8.864  11.539   9.435
99747SOL    HW2 1139   8.942  11.518   9.307
99748SOL     OW 1140   6.112   3.055  11.918
99748SOL    HW1 1141   6.137   2.992  11.985
99748SOL    HW2 1142   6.091   3.001  11.842
99749SOL     OW 1143  13.431   5.204   2.805
99749SOL    HW1 1144  13.435   5.151   2.725
99749SOL    HW2 1145  13.340   5.233   2.810
99750SOL     OW 1146  11.378  14.431   2.909
99750SOL    HW1 1147  11.401  14.523   2.922
99750SOL    HW2 1148  11.324  14.430   2.830
99751SOL     OW 1149   2.349  11.690   4.274
99751SOL    HW1 1150   2.328  11.725   4.361
99751SOL    HW2 1151   2.429  11.640   4.287
99752SOL     OW 1152   2.698   1.984   6.209
99752SOL    HW1 1153   2.634   1.978   6.280
99752SOL    HW2 1154   2.711   2.078   6.196
99753SOL     OW 1155   6.885  10.725  14.745
99753SOL    HW1 1156   6.922  10.771  14.670
99753SOL    HW2 1157   6.960  10.703  14.800
99754SOL     OW 1158  14.788   1.483   3.636
99754SOL    HW1 1159  14.825   1.423   3.700
99754SOL    HW2 1160  14.761   1.427   3.562
99755SOL     OW 1161  13.575   2.560  13.228
99755SOL    HW1 1162  13.484   2.545  13.204
99755SOL    HW2 1163  13.571   2.623  13.300
99756SOL     OW 1164  11.346   0.023  10.147
99756SOL    HW1 1165  11.413  14.863  10.093
99756SOL    HW2 1166  11.390   0.043  10.230
99757SOL     OW 1167   6.466   3.113   6.412
99757SOL    HW1 1168   6.499   3.182   6.354
99757SOL    HW2 1169   6.404   3.158   6.470
99758SOL     OW 1170   4.168  14.173   0.282
99758SOL    HW1 1171   4.107  14.166   0.209
99758SOL    HW2 1172   4.213  14.089   0.284
99759SOL     OW 1173   8.287  10.383   2.813
99759SOL    HW1 1174   8.237  10.302   2.802
99759SOL    HW2 1175   8.246  10.426   2.888
99760SOL     OW 1176   7.509  11.093   6.256
99760SOL    HW1 1177   7.451  11.154   6.210
99760SOL    HW2 1178   7.597  11.119   6.231
99761SOL     OW 1179   8.658   9.465   0.671
99761SOL    HW1 1180   8.702   9.522   0.735
99761SOL    HW2 1181   8.691   9.496   0.587
99762SOL     OW 1182   8.897  12.966   0.966
99762SOL    HW1 1183   8.976  13.013   0.995
99762SOL    HW2 1184   8.882  12.997   0.877
99763SOL     OW 1185   4.231  11.426   1.678
99763SOL    HW1 1186   4.226  11.508   1.728
99763SOL    HW2 1187   4.282  11.367   1.734
99764SOL     OW 1188   2.161   5.234   5.621
99764SOL    HW1 1189   2.122   5.224   5.534
99764SOL    HW2 1190   2.218   5.311   5.613
99765SOL     OW 1191  13.950   0.265   1.471
99765SOL    HW1 1192  13.918   0.181   1.439
99765SOL    HW2 1193  13.991   0.245   1.556
99766SOL     OW 1194   8.898  11.894  12.968
99766SOL    HW1 1195   8.897  11.966  12.905
99766SOL    HW2 1196   8.990  11.867  12.971
99767SOL     OW 1197  13.241   7.229   2.188
99767SOL    HW1 1198  13.192   7.159   2.145
99767SOL    HW2 1199  13.263   7.290   2.118
99768SOL     OW 1200  14.195  14.616  11.922
99768SOL    HW1 1201  14.282  14.650  11.902
99768SOL    HW2 1202  14.169  14.568  11.843
99769SOL     OW 1203   2.258   6.504   1.697
99769SOL    HW1 1204   2.325   6.441   1.672
99769SOL    HW2 1205   2.261   6.571   1.628
99770SOL     OW 1206   5.626   5.946   3.615
99770SOL    HW1 1207   5.674   5.958   3.697
99770SOL    HW2 1208   5.687   5.974   3.547
99771SOL     OW 1209   5.140   6.653  12.312
99771SOL    HW1 1210   5.200   6.717  12.274
99771SOL    HW2 1211   5.116   6.596  12.240
99772SOL     OW 1212   3.221   5.294   3.994
99772SOL    HW1 1213   3.311   5.325   3.982
99772SOL    HW2 1214   3.228   5.199   3.993
99773SOL     OW 1215   1.686   6.326   9.350
99773SOL    HW1 1216   1.617   6.302   9.288
99773SOL    HW2 1217   1.640   6.337   9.433
99774SOL     OW 1218   6.281   5.585   9.098
99774SOL    HW1 1219   6.334   5.506   9.097
99774SOL    HW2 1220   6.247   5.591   9.187
99775SOL     OW 1221   0.881   0.973  12.709
99775SOL    HW1 1222   0.810   0.924  12.668
99775SOL    HW2 1223   0.873   0.952  12.802
99776SOL     OW 1224   3.415   6.395   4.113
99776SOL    HW1 1225   3.371   6.409   4.197
99776SOL    HW2 1226   3.350   6.419   4.047
99777SOL     OW 1227  10.369   9.076  11.414
99777SOL    HW1 1228  10.385   8.989  11.378
99777SOL    HW2 1229  10.275   9.077  11.433
99778SOL     OW 1230   3.737   1.933   2.236
99778SOL    HW1 1231   3.653   1.979   2.246
99778SOL    HW2 1232   3.796   1.978   2.296
99779SOL     OW 1233   0.382  14.603   3.190
99779SOL    HW1 1234   0.446  14.552   3.141
99779SOL    HW2 1235   0.379  14.561   3.276
99780SOL     OW 1236   3.934  10.526   3.348
99780SOL    HW1 1237   3.841  10.504   3.349
99780SOL    HW2 1238   3.952  10.548   3.257
99781SOL     OW 1239   3.180   1.763   6.839
99781SOL    HW1 1240   3.122   1.840   6.840
99781SOL    HW2 1241   3.180   1.732   6.929
99782SOL     OW 1242  13.539   0.120   4.222
99782SOL    HW1 1243  13.626   0.136   4.186
99782SOL    HW2 1244  13.547   0.036   4.268
99783SOL     OW 1245  14.258   3.095  11.842
99783SOL    HW1 1246  14.348   3.064  11.832
99783SOL    HW2 1247  14.250   3.167  11.780
99784SOL     OW 1248  11.943   3.752   0.846
99784SOL    HW1 1249  12.035   3.758   0.821
99784SOL    HW2 1250  11.916   3.665   0.817
99785SOL     OW 1251   6.934  11.952  13.308
99785SOL    HW1 1252   7.028  11.966  13.317
99785SOL    HW2 1253   6.893  12.023  13.357
99786SOL     OW 1254   5.933   8.377  11.313
99786SOL    HW1 1255   6.008   8.349  11.366
99786SOL    HW2 1256   5.938   8.322  11.235
99787SOL     OW 1257   0.320  14.652   7.948
99787SOL    HW1 1258   0.240  14.649   7.894
99787SOL    HW2 1259   0.289  14.638   8.037
99788SOL     OW 1260  12.268  10.425   8.011
99788SOL    HW1 1261  12.243  10.340   7.973
99788SOL    HW2 1262  12.328  10.402   8.082
99789SOL     OW 1263  13.560   3.727   9.709
99789SOL    HW1 1264  13.623   3.799   9.716
99789SOL    HW2 1265  13.546   3.717   9.614
99790SOL     OW 1266  12.245  13.909  11.640
99790SOL    HW1 1267  12.157  13.936  11.667
99790SOL    HW2 1268  12.256  13.822  11.677
99791SOL     OW 1269   1.190  10.194   5.133
99791SOL    HW1 1270   1.257  10.143   5.178
99791SOL    HW2 1271   1.134  10.129   5.091
99792SOL     OW 1272  12.056   6.130   2.010
99792SOL    HW1 1273  12.141   6.085   2.013
99792SOL    HW2 1274  12.057   6.177   1.926
99793SOL     OW 1275   2.355   9.939   8.559
99793SOL    HW1 1276   2.370  10.027   8.594
99793SOL    HW2 1277   2.425   9.925   8.495
99794SOL     OW 1278  11.139   5.029   7.030
99794SOL    HW1 1279  11.061   4.978   7.007
99794SOL    HW2 1280  11.151   5.087   6.955
99795SOL     OW 1281  12.100   8.341   6.950
99795SOL    HW1 1282  12.167   8.280   6.981
99795SOL    HW2 1283  12.038   8.287   6.901
99796SOL     OW 1284   6.470   5.931   3.216
99796SOL    HW1 1285   6.470   5.858   3.278
99796SOL    HW2 1286   6.384   5.929   3.175
99797SOL     OW 1287  14.521  10.588   9.259
99797SOL    HW1 1288  14.442  10.533   9.259
99797SOL    HW2 1289  14.579  10.547   9.194
99798SOL     OW 1290   6.342  12.537   4.753
99798SOL    HW1 1291   6.415  12.557   4.695
99798SOL    HW2 1292   6.370  12.569   4.838
99799SOL     OW 1293   1.919   6.843  12.309
99799SOL    HW1 1294   1.993   6.783  12.302
99799SOL    HW2 1295   1.843   6.789  12.291
99800SOL     OW 1296   1.988  12.121  11.597
99800SOL    HW1 1297   2.045  12.195  11.619
99800SOL    HW2 1298   1.944  12.099  11.680
99801SOL     OW 1299   0.100   3.968  12.064
99801SOL    HW1 1300   0.191   3.998  12.057
99801SOL    HW2 1301   0.070   3.961  11.973
99802SOL     OW 1302   1.520  12.865   9.478
99802SOL    HW1 1303   1.499  12.849   9.570
99802SOL    HW2 1304   1.574  12.791   9.453
99803SOL     OW 1305   5.039   3.695   1.073
99803SOL    HW1 1306   5.036   3.624   1.138
99803SOL    HW2 1307   5.116   3.746   1.097
99804SOL     OW 1308  11.649   2.410  11.971
99804SOL    HW1 1309  11.708   2.403  11.896
99804SOL    HW2 1310  11.683   2.346  12.034
99805SOL     OW 1311  10.050   1.656   6.480
99805SOL    HW1 1312   9.974   1.714   6.478
99805SOL    HW2 1313  10.014   1.569   6.497
99806SOL     OW 1314   1.590   4.859   3.784
99806SOL    HW1 1315   1.619   4.860   3.693
99806SOL    HW2 1316   1.653   4.804   3.830
99807SOL     OW 1317   5.368   2.084   0.111
99807SOL    HW1 1318   5.324   2.146   0.054
99807SOL    HW2 1319   5.435   2.044   0.056
99808SOL     OW 1320  10.639   9.704  10.158
99808SOL    HW1 1321  10.616   9.613  10.139
99808SOL    HW2 1322  10.725   9.716  10.117
99809SOL     OW 1323   4.771  11.247  11.732
99809SOL    HW1 1324   4.743  11.194  11.657
99809SOL    HW2 1325   4.788  11.183  11.801
99810SOL     OW 1326   9.718   0.622   7.901
99810SOL    HW1 1327   9.726   0.530   7.928
99810SOL    HW2 1328   9.806   0.646   7.873
99811SOL     OW 1329  11.751  11.001  12.241
99811SOL    HW1 1330  11.769  11.014  12.147
99811SOL    HW2 1331  11.778  10.910  12.257
99812SOL     OW 1332  14.207   6.922   2.687
99812SOL    HW1 1333  14.148   6.961   2.623
99812SOL    HW2 1334  14.166   6.940   2.772
99813SOL     OW 1335   5.349   9.675   8.494
99813SOL    HW1 1336   5.348   9.600   8.552
99813SOL    HW2 1337   5.315   9.642   8.411
99814SOL     OW 1338   3.423   4.587  12.016
99814SOL    HW1 1339   3.439   4.679  12.035
99814SOL    HW2 1340   3.397   4.549  12.100
99815SOL     OW 1341   6.321  12.641  13.850
99815SOL    HW1 1342   6.273  12.582  13.907
99815SOL    HW2 1343   6.313  12.727  13.892
99816SOL     OW 1344   1.412   6.906   8.742
99816SOL    HW1 1345   1.421   6.979   8.804
99816SOL    HW2 1346   1.412   6.948   8.656
99817SOL     OW 1347   6.836   8.666   6.540
99817SOL    HW1 1348   6.922   8.648   6.579
99817SOL    HW2 1349   6.850   8.744   6.487
99818SOL     OW 1350  11.591   3.185  10.626
99818SOL    HW1 1351  11.514   3.175  10.570
99818SOL    HW2 1352  11.595   3.278  10.645
99819SOL     OW 1353   3.141   0.276   7.063
99819SOL    HW1 1354   3.215   0.336   7.054
99819SOL    HW2 1355   3.104   0.296   7.149
99820SOL     OW 1356   8.926   8.145  12.599
99820SOL    HW1 1357   8.960   8.119  12.685
99820SOL    HW2 1358   8.833   8.125  12.603
99821SOL     OW 1359   3.492   3.561   4.620
99821SOL    HW1 1360   3.415   3.558   4.564
99821SOL    HW2 1361   3.541   3.482   4.597
99822SOL     OW 1362  10.868   4.596  13.034
99822SOL    HW1 1363  10.927   4.531  13.073
99822SOL    HW2 1364  10.905   4.680  13.061
99823SOL     OW 1365   1.211   9.938  10.298
99823SOL    HW1 1366   1.208   9.903  10.209
99823SOL    HW2 1367   1.244  10.027  10.288
99824SOL     OW 1368   2.126  12.967   9.068
99824SOL    HW1 1369   2.076  13.044   9.095
99824SOL    HW2 1370   2.166  12.992   8.985
99825SOL     OW 1371   3.143   7.335   8.408
99825SOL    HW1 1372   3.121   7.338   8.501
99825SOL    HW2 1373   3.161   7.426   8.385
99826SOL     OW 1374   1.358   6.488   3.073
99826SOL    HW1 1375   1.440   6.487   3.023
99826SOL    HW2 1376   1.348   6.579   3.100
99827SOL     OW 1377   0.403  11.826   8.212
99827SOL    HW1 1378   0.308  11.814   8.218
99827SOL    HW2 1379   0.414  11.920   8.194
99828SOL     OW 1380   3.952  11.494   3.733
99828SOL    HW1 1381   4.002  11.413   3.742
99828SOL    HW2 1382   3.999  11.557   3.787
99829SOL     OW 1383   6.446  10.569   8.582
99829SOL    HW1 1384   6.443  10.474   8.580
99829SOL    HW2 1385   6.539  10.590   8.596
99830SOL     OW 1386   3.523   8.922   8.621
99830SOL    HW1 1387   3.601   8.887   8.663
99830SOL    HW2 1388   3.525   8.887   8.532
99831SOL     OW 1389  13.472  10.520   1.347
99831SOL    HW1 1390  13.465  10.506   1.442
99831SOL    HW2 1391  13.382  10.508   1.316
99832SOL     OW 1392   0.386   6.410   0.285
99832SOL    HW1 1393   0.428   6.411   0.371
99832SOL    HW2 1394   0.315   6.346   0.293
99833SOL     OW 1395  13.860  10.647   7.739
99833SOL    HW1 1396  13.846  10.688   7.654
99833SOL    HW2 1397  13.882  10.719   7.797
99834SOL     OW 1398   9.310   5.856   6.313
99834SOL    HW1 1399   9.279   5.833   6.226
99834SOL    HW2 1400   9.381   5.794   6.330
99835SOL     OW 1401   5.468  12.930  11.508
99835SOL    HW1 1402   5.457  13.021  11.483
99835SOL    HW2 1403   5.395  12.913  11.569
99836SOL     OW 1404   6.616   7.450  14.868
99836SOL    HW1 1405   6.565   7.382  14.824
99836SOL    HW2 1406   6.626   7.418   0.075
99837SOL     OW 1407  13.926   2.914   1.379
99837SOL    HW1 1408  13.908   2.898   1.472
99837SOL    HW2 1409  13.959   3.004   1.377
99838SOL     OW 1410   8.536   4.519   4.562
99838SOL    HW1 1411   8.565   4.554   4.478
99838SOL    HW2 1412   8.479   4.446   4.539
99839SOL     OW 1413   0.684   9.218  14.078
99839SOL    HW1 1414   0.736   9.142  14.103
99839SOL    HW2 1415   0.652   9.197  13.990
99840SOL     OW 1416   5.661  12.623   5.818
99840SOL    HW1 1417   5.663  12.695   5.754
99840SOL    HW2 1418   5.710  12.657   5.893
99841SOL     OW 1419  10.601  13.680   9.794
99841SOL    HW1 1420  10.610  13.694   9.888
99841SOL    HW2 1421  10.647  13.753   9.753
99842SOL     OW 1422  10.433   0.425   7.062
99842SOL    HW1 1423  10.462   0.468   6.982
99842SOL    HW2 1424  10.414   0.497   7.123
99843SOL     OW 1425   6.294  10.334   9.634
99843SOL    HW1 1426   6.254  10.405   9.684
99843SOL    HW2 1427   6.238  10.324   9.557
99844SOL     OW 1428   8.757   2.588  13.290
99844SOL    HW1 1429   8.756   2.542  13.375
99844SOL    HW2 1430   8.833   2.552  13.244
99845SOL     OW 1431   0.165   3.312  10.632
99845SOL    HW1 1432   0.170   3.372  10.707
99845SOL    HW2 1433   0.192   3.365  10.557
99846SOL     OW 1434   9.029   5.334   7.996
99846SOL    HW1 1435   8.939   5.364   7.993
99846SOL    HW2 1436   9.036   5.287   8.079
99847SOL     OW 1437   7.228  13.197  13.183
99847SOL    HW1 1438   7.298  13.259  13.205
99847SOL    HW2 1439   7.242  13.178  13.090
99848SOL     OW 1440   8.049   7.248   4.782
99848SOL    HW1 1441   8.051   7.340   4.808
99848SOL    HW2 1442   7.976   7.210   4.830
99849SOL     OW 1443  12.743  14.121   1.945
99849SOL    HW1 1444  12.816  14.155   1.996
99849SOL    HW2 1445  12.752  14.161   1.859
99850SOL     OW 1446   7.309   2.024   4.213
99850SOL    HW1 1447   7.308   1.975   4.295
99850SOL    HW2 1448   7.350   1.965   4.150
99851SOL     OW 1449   6.912  12.010   8.475
99851SOL    HW1 1450   6.955  12.091   8.449
99851SOL    HW2 1451   6.984  11.955   8.509
99852SOL     OW 1452   7.247   4.221   8.606
99852SOL    HW1 1453   7.239   4.315   8.626
99852SOL    HW2 1454   7.221   4.177   8.686
99853SOL     OW 1455   3.736   4.871   5.466
99853SOL    HW1 1456   3.776   4.796   5.420
99853SOL    HW2 1457   3.769   4.864   5.556
99854SOL     OW 1458  10.320  14.124   1.572
99854SOL    HW1 1459  10.243  14.120   1.515
99854SOL    HW2 1460  10.394  14.112   1.513
99855SOL     OW 1461  13.413   8.257   2.529
99855SOL    HW1 1462  13.399   8.166   2.556
99855SOL    HW2 1463  13.468   8.294   2.598
99856SOL     OW 1464   3.139   6.324  14.597
99856SOL    HW1 1465   3.107   6.239  14.628
99856SOL    HW2 1466   3.071   6.354  14.537
99857SOL     OW 1467  11.440  13.170   1.227
99857SOL    HW1 1468  11.432  13.079   1.198
99857SOL    HW2 1469  11.355  13.209   1.209
99858SOL     OW 1470   4.149   8.671   1.304
99858SOL    HW1 1471   4.077   8.707   1.356
99858SOL    HW2 1472   4.144   8.576   1.317
99859SOL     OW 1473  10.428   2.701   3.061
99859SOL    HW1 1474  10.492   2.647   3.108
99859SOL    HW2 1475  10.459   2.791   3.074
99860SOL     OW 1476  13.095   6.758  11.582
99860SOL    HW1 1477  13.180   6.800  11.571
99860SOL    HW2 1478  13.114   6.664  11.579
99861SOL     OW 1479   8.648   6.959   1.235
99861SOL    HW1 1480   8.728   6.919   1.269
99861SOL    HW2 1481   8.625   7.026   1.299
99862SOL     OW 1482   7.321   7.538   7.364
99862SOL    HW1 1483   7.337   7.632   7.359
99862SOL    HW2 1484   7.367   7.509   7.443
99863SOL     OW 1485   7.714  12.851  11.166
99863SOL    HW1 1486   7.664  12.881  11.242
99863SOL    HW2 1487   7.746  12.765  11.191
99864SOL     OW 1488   2.107  10.582   7.445
99864SOL    HW1 1489   2.172  10.609   7.381
99864SOL    HW2 1490   2.155  10.527   7.507
99865SOL     OW 1491  14.136   2.169   7.563
99865SOL    HW1 1492  14.115   2.124   7.644
99865SOL    HW2 1493  14.052   2.181   7.519
99866SOL     OW 1494   3.534   7.095  12.742
99866SOL    HW1 1495   3.441   7.086  12.722
99866SOL    HW2 1496   3.565   7.005  12.752
99867SOL     OW 1497   9.040  10.988   7.599
99867SOL    HW1 1498   8.988  11.008   7.677
99867SOL    HW2 1499   8.989  10.922   7.552
99868SOL     OW 1500   2.785   8.589   8.786
99868SOL    HW1 1501   2.708   8.645   8.782
99868SOL    HW2 1502   2.751   8.505   8.816
99869SOL     OW 1503  13.805   3.173   8.355
99869SOL    HW1 1504  13.860   3.106   8.314
99869SOL    HW2 1505  13.844   3.186   8.441
99870SOL     OW 1506  14.381  12.213  12.343
99870SOL    HW1 1507  14.429  12.138  12.379
99870SOL    HW2 1508  14.418  12.225  12.255
99871SOL     OW 1509   5.119   6.959   3.065
99871SOL    HW1 1510   5.050   7.009   3.110
99871SOL    HW2 1511   5.073   6.886   3.024
99872SOL     OW 1512   3.374   6.921   0.724
99872SOL    HW1 1513   3.411   6.977   0.656
99872SOL    HW2 1514   3.281   6.942   0.725
99873SOL     OW 1515   1.511  10.630  14.309
99873SOL    HW1 1516   1.496  10.707  14.255
99873SOL    HW2 1517   1.510  10.663  14.399
99874SOL     OW 1518  10.917  14.687   1.812
99874SOL    HW1 1519  10.838  14.727   1.775
99874SOL    HW2 1520  10.985  14.705   1.747
99875SOL     OW 1521   0.280   0.980  11.355
99875SOL    HW1 1522   0.212   0.922  11.388
99875SOL    HW2 1523   0.329   0.926  11.292
99876SOL     OW 1524   2.732   0.044   9.552
99876SOL    HW1 1525   2.788   0.113   9.587
99876SOL    HW2 1526   2.665   0.031   9.619
99877SOL     OW 1527   7.192   5.486   2.156
99877SOL    HW1 1528   7.226   5.574   2.173
99877SOL    HW2 1529   7.209   5.471   2.063
99878SOL     OW 1530   4.376  12.368   3.995
99878SOL    HW1 1531   4.287  12.342   3.971
99878SOL    HW2 1532   4.376  12.463   3.991
99879SOL     OW 1533   2.471   3.982  12.938
99879SOL    HW1 1534   2.542   3.941  12.988
99879SOL    HW2 1535   2.445   4.058  12.991
99880SOL     OW 1536  13.031   4.922   1.860
99880SOL    HW1 1537  12.984   4.844   1.831
99880SOL    HW2 1538  12.963   4.981   1.891
99881SOL     OW 1539  14.333  12.076   2.414
99881SOL    HW1 1540  14.324  12.137   2.341
99881SOL    HW2 1541  14.278  12.001   2.391
99882SOL     OW 1542   7.419   7.766   4.506
99882SOL    HW1 1543   7.476   7.768   4.583
99882SOL    HW2 1544   7.412   7.857   4.478
99883SOL     OW 1545   1.640   4.314   7.636
99883SOL    HW1 1546   1.570   4.268   7.682
99883SOL    HW2 1547   1.688   4.360   7.705
99884SOL     OW 1548   1.628   7.056   2.238
99884SOL    HW1 1549   1.673   7.137   2.213
99884SOL    HW2 1550   1.646   7.047   2.331
99885SOL     OW 1551   4.685   3.983  13.534
99885SOL    HW1 1552   4.768   3.994  13.580
99885SOL    HW2 1553   4.650   4.071  13.526
99886SOL     OW 1554   7.345  11.791  12.889
99886SOL    HW1 1555   7.301  11.798  12.973
99886SOL    HW2 1556   7.288  11.735  12.837
99887SOL     OW 1557   2.579  11.102   0.695
99887SOL    HW1 1558   2.486  11.088   0.677
99887SOL    HW2 1559   2.612  11.146   0.617
99888SOL     OW 1560  14.239  11.599  13.195
99888SOL    HW1 1561  14.267  11.677  13.244
99888SOL    HW2 1562  14.294  11.599  13.117
99889SOL     OW 1563  10.146  13.990  12.984
99889SOL    HW1 1564  10.143  14.073  12.938
99889SOL    HW2 1565  10.078  13.997  13.052
99890SOL     OW 1566   3.364  11.334  11.088
99890SOL    HW1 1567   3.315  11.328  11.170
99890SOL    HW2 1568   3.368  11.427  11.069
99891SOL     OW 1569  12.484   4.567   6.177
99891SOL    HW1 1570  12.412   4.504   6.186
99891SOL    HW2 1571  12.450   4.648   6.215
99892SOL     OW 1572   3.492  12.426  12.835
99892SOL    HW1 1573   3.418  12.369  12.855
99892SOL    HW2 1574   3.464  12.476  12.758
99893SOL     OW 1575  12.195   2.386   6.270
99893SOL    HW1 1576  12.284   2.356   6.250
99893SOL    HW2 1577  12.178   2.455   6.205
99894SOL     OW 1578   6.479  14.221  10.840
99894SOL    HW1 1579   6.533  14.142  10.835
99894SOL    HW2 1580   6.457  14.229  10.933
99895SOL     OW 1581   4.446   0.668  10.171
99895SOL    HW1 1582   4.444   0.706  10.258
99895SOL    HW2 1583   4.422   0.576  10.184
99896SOL     OW 1584   2.929   5.073   2.516
99896SOL    HW1 1585   2.878   4.998   2.546
99896SOL    HW2 1586   2.901   5.086   2.426
99897SOL     OW 1587   2.520  13.301   1.765
99897SOL    HW1 1588   2.426  13.292   1.747
99897SOL    HW2 1589   2.526  13.291   1.860
99898SOL     OW 1590  13.222   0.996   4.093
99898SOL    HW1 1591  13.205   0.904   4.070
99898SOL    HW2 1592  13.179   1.008   4.178
99899SOL     OW 1593  14.789  14.707  14.716
99899SOL    HW1 1594  14.714  14.704  14.656
99899SOL    HW2 1595  14.750  14.716  14.803
99900SOL     OW 1596   5.647   0.017   7.835
99900SOL    HW1 1597   5.587   0.051   7.901
99900SOL    HW2 1598   5.673  14.813   7.868
99901SOL     OW 1599   1.601  13.881   4.388
99901SOL    HW1 1600   1.534  13.909   4.326
99901SOL    HW2 1601   1.648  13.962   4.410
99902SOL     OW 1602  11.652   5.034   2.116
99902SOL    HW1 1603  11.678   5.123   2.142
99902SOL    HW2 1604  11.615   4.996   2.195
99903SOL     OW 1605   1.334   4.201  11.081
99903SOL    HW1 1606   1.352   4.209  11.175
99903SOL    HW2 1607   1.239   4.209  11.074
99904SOL     OW 1608   1.701   9.836   4.055
99904SOL    HW1 1609   1.792   9.809   4.039
99904SOL    HW2 1610   1.686   9.905   3.991
99905SOL     OW 1611   2.665  10.875   8.360
99905SOL    HW1 1612   2.603  10.802   8.365
99905SOL    HW2 1613   2.751  10.834   8.348
99906SOL     OW 1614   2.471  13.403   4.913
99906SOL    HW1 1615   2.432  13.433   4.995
99906SOL    HW2 1616   2.560  13.376   4.937
99907SOL     OW 1617   3.156  14.522  14.335
99907SOL    HW1 1618   3.201  14.595  14.293
99907SOL    HW2 1619   3.144  14.458  14.265
99908SOL     OW 1620   1.745   7.981  10.634
99908SOL    HW1 1621   1.722   8.065  10.596
99908SOL    HW2 1622   1.738   7.918  10.562
99909SOL     OW 1623   1.254   1.209   8.098
99909SOL    HW1 1624   1.175   1.251   8.133
99909SOL    HW2 1625   1.287   1.157   8.172
99910SOL     OW 1626   3.116   3.313  14.179
99910SOL    HW1 1627   3.040   3.339  14.127
99910SOL    HW2 1628   3.103   3.357  14.264
99911SOL     OW 1629   8.532  13.842  13.167
99911SOL    HW1 1630   8.620  13.869  13.141
99911SOL    HW2 1631   8.480  13.923  13.159
99912SOL     OW 1632  12.621  14.465   2.265
99912SOL    HW1 1633  12.585  14.382   2.296
99912SOL    HW2 1634  12.553  14.530   2.287
99913SOL     OW 1635  10.441  10.280   6.223
99913SOL    HW1 1636  10.468  10.233   6.144
99913SOL    HW2 1637  10.379  10.347   6.191
99914SOL     OW 1638   9.601   7.583  13.166
99914SOL    HW1 1639   9.696   7.583  13.178
99914SOL    HW2 1640   9.579   7.674  13.149
99915SOL     OW 1641  10.401   2.175   3.536
99915SOL    HW1 1642  10.316   2.219   3.534
99915SOL    HW2 1643  10.403   2.131   3.621
99916SOL     OW 1644   9.362   4.959   1.983
99916SOL    HW1 1645   9.422   4.966   2.057
99916SOL    HW2 1646   9.299   4.892   2.009
99917SOL     OW 1647   5.362   7.126   1.635
99917SOL    HW1 1648   5.430   7.059   1.638
99917SOL    HW2 1649   5.280   7.077   1.640
99918SOL     OW 1650  11.314  14.582  11.765
99918SOL    HW1 1651  11.331  14.513  11.702
99918SOL    HW2 1652  11.386  14.644  11.752
99919SOL     OW 1653   9.998   9.878   7.147
99919SOL    HW1 1654   9.940   9.936   7.097
99919SOL    HW2 1655   9.991   9.793   7.102
99920SOL     OW 1656   7.290   0.288   0.178
99920SOL    HW1 1657   7.325   0.374   0.153
99920SOL    HW2 1658   7.359   0.248   0.230
99921SOL     OW 1659   7.594   7.205  14.358
99921SOL    HW1 1660   7.671   7.149  14.353
99921SOL    HW2 1661   7.551   7.179  14.440
99922SOL     OW 1662  12.689  14.527  13.845
99922SOL    HW1 1663  12.687  14.504  13.752
99922SOL    HW2 1664  12.768  14.486  13.879
99923SOL     OW 1665  12.986  12.563   1.619
99923SOL    HW1 1666  12.956  12.611   1.696
99923SOL    HW2 1667  13.044  12.624   1.573
99924SOL     OW 1668   5.908   3.237  12.897
99924SOL    HW1 1669   5.987   3.289  12.913
99924SOL    HW2 1670   5.922   3.197  12.812
99925SOL     OW 1671   3.926   7.833  14.629
99925SOL    HW1 1672   3.964   7.789  14.705
99925SOL    HW2 1673   3.932   7.769  14.558
99926SOL     OW 1674   0.703   5.567   3.424
99926SOL    HW1 1675   0.686   5.629   3.354
99926SOL    HW2 1676   0.703   5.481   3.381
99927SOL     OW 1677  10.932  10.596   9.010
99927SOL    HW1 1678  10.885  10.517   9.039
99927SOL    HW2 1679  10.913  10.660   9.078
99928SOL     OW 1680  11.033   5.204   6.590
99928SOL    HW1 1681  10.959   5.265   6.591
99928SOL    HW2 1682  11.009   5.140   6.523
99929SOL     OW 1683   3.194   4.966   7.457
99929SOL    HW1 1684   3.189   5.030   7.386
99929SOL    HW2 1685   3.280   4.981   7.496
99930SOL     OW 1686  10.056  10.069   9.621
99930SOL    HW1 1687   9.996  10.034   9.687
99930SOL    HW2 1688  10.009  10.145   9.586
99931SOL     OW 1689  13.104   8.510   1.026
99931SOL    HW1 1690  13.070   8.532   0.939
99931SOL    HW2 1691  13.069   8.578   1.083
99932SOL     OW 1692   5.530   8.305  10.392
99932SOL    HW1 1693   5.470   8.375  10.365
99932SOL    HW2 1694   5.499   8.228  10.345
99933SOL     OW 1695   2.120   8.729   6.413
99933SOL    HW1 1696   2.045   8.675   6.391
99933SOL    HW2 1697   2.193   8.667   6.422
99934SOL     OW 1698  13.766   0.174   4.014
99934SOL    HW1 1699  13.825   0.181   3.939
99934SOL    HW2 1700  13.696   0.236   3.994
99935SOL     OW 1701   4.467   1.076   8.461
99935SOL    HW1 1702   4.487   1.011   8.528
99935SOL    HW2 1703   4.455   1.025   8.381
99936SOL     OW 1704   1.859   0.369  14.034
99936SOL    HW1 1705   1.789   0.305  14.046
99936SOL    HW2 1706   1.819   0.454  14.052
99937SOL     OW 1707   7.096   3.930  14.204
99937SOL    HW1 1708   7.067   3.923  14.113
99937SOL    HW2 1709   7.116   3.840  14.229
99938SOL     OW 1710   5.019   9.146   9.032
99938SOL    HW1 1711   4.975   9.166   8.949
99938SOL    HW2 1712   5.040   9.053   9.027
99939SOL     OW 1713   6.230  10.618   2.207
99939SOL    HW1 1714   6.263  10.550   2.265
99939SOL    HW2 1715   6.157  10.577   2.161
99940SOL     OW 1716  14.057   3.509  10.595
99940SOL    HW1 1717  14.092   3.592  10.564
99940SOL    HW2 1718  14.078   3.447  10.526
99941SOL     OW 1719   0.154  13.428  14.171
99941SOL    HW1 1720   0.127  13.342  14.141
99941SOL    HW2 1721   0.215  13.410  14.243
99942SOL     OW 1722  11.857  11.054   2.107
99942SOL    HW1 1723  11.893  10.970   2.077
99942SOL    HW2 1724  11.905  11.120   2.057
99943SOL     OW 1725   6.708   5.557  12.356
99943SOL    HW1 1726   6.727   5.516  12.271
99943SOL    HW2 1727   6.670   5.486  12.408
99944SOL     OW 1728   3.687   2.834   5.556
99944SOL    HW1 1729   3.759   2.845   5.618
99944SOL    HW2 1730   3.729   2.800   5.477
99945SOL     OW 1731   9.221  13.558   9.526
99945SOL    HW1 1732   9.271  13.547   9.445
99945SOL    HW2 1733   9.265  13.628   9.572
99946SOL     OW 1734   9.422   9.125  11.342
99946SOL    HW1 1735   9.392   9.037  11.365
99946SOL    HW2 1736   9.467   9.156  11.421
99947SOL     OW 1737  11.966   7.120  11.121
99947SOL    HW1 1738  12.020   7.193  11.092
99947SOL    HW2 1739  11.879   7.138  11.086
99948SOL     OW 1740   7.027   8.071  13.035
99948SOL    HW1 1741   7.077   8.071  12.953
99948SOL    HW2 1742   7.094   8.074  13.103
99949SOL     OW 1743  11.473   7.567   0.095
99949SOL    HW1 1744  11.562   7.537   0.116
99949SOL    HW2 1745  11.418   7.491   0.110
99950SOL     OW 1746   4.474   9.677   3.053
99950SOL    HW1 1747   4.380   9.672   3.067
99950SOL    HW2 1748   4.486   9.750   2.993
99951SOL     OW 1749   8.005   8.249  11.762
99951SOL    HW1 1750   8.067   8.203  11.705
99951SOL    HW2 1751   8.016   8.341  11.740
99952SOL     OW 1752   1.312   0.585   9.749
99952SOL    HW1 1753   1.221   0.574   9.723
99952SOL    HW2 1754   1.316   0.551   9.838
99953SOL     OW 1755   9.568  12.976  10.260
99953SOL    HW1 1756   9.521  13.056  10.283
99953SOL    HW2 1757   9.637  12.969  10.326
99954SOL     OW 1758   8.714   0.698  12.845
99954SOL    HW1 1759   8.665   0.776  12.818
99954SOL    HW2 1760   8.659   0.624  12.818
99955SOL     OW 1761  14.176   3.917  12.235
99955SOL    HW1 1762  14.261   3.876  12.253
99955SOL    HW2 1763  14.121   3.845  12.204
99956SOL     OW 1764   8.091   4.188   2.756
99956SOL    HW1 1765   8.009   4.144   2.778
99956SOL    HW2 1766   8.151   4.163   2.827
99957SOL     OW 1767  10.325   0.448  11.323
99957SOL    HW1 1768  10.270   0.390  11.375
99957SOL    HW2 1769  10.368   0.505  11.387
99958SOL     OW 1770   9.877   4.689   1.401
99958SOL    HW1 1771   9.816   4.754   1.434
99958SOL    HW2 1772   9.923   4.657   1.479
99959SOL     OW 1773   0.189   0.836   9.806
99959SOL    HW1 1774   0.240   0.764   9.843
99959SOL    HW2 1775   0.227   0.851   9.720
99960SOL     OW 1776   2.371   7.738   3.365
99960SOL    HW1 1777   2.287   7.734   3.410
99960SOL    HW2 1778   2.411   7.652   3.381
99961SOL     OW 1779  13.025   5.215   9.805
99961SOL    HW1 1780  13.104   5.166   9.825
99961SOL    HW2 1781  12.994   5.247   9.890
99962SOL     OW 1782  12.906   2.135   7.331
99962SOL    HW1 1783  12.823   2.179   7.348
99962SOL    HW2 1784  12.908   2.123   7.236
99963SOL     OW 1785   6.136  13.493  13.553
99963SOL    HW1 1786   6.196  13.506  13.626
99963SOL    HW2 1787   6.113  13.400  13.557
99964SOL     OW 1788  13.619   4.637   2.892
99964SOL    HW1 1789  13.699   4.679   2.923
99964SOL    HW2 1790  13.554   4.707   2.891
99965SOL     OW 1791  13.561   4.844   0.892
99965SOL    HW1 1792  13.637   4.887   0.853
99965SOL    HW2 1793  13.490   4.860   0.829
99966SOL     OW 1794   9.130   4.785   9.209
99966SOL    HW1 1795   9.112   4.820   9.296
99966SOL    HW2 1796   9.161   4.861   9.159
99967SOL     OW 1797   4.052  12.313   0.304
99967SOL    HW1 1798   4.115  12.297   0.374
99967SOL    HW2 1799   3.971  12.272   0.334
99968SOL     OW 1800   0.534   3.678  11.624
99968SOL    HW1 1801   0.564   3.640  11.541
99968SOL    HW2 1802   0.611   3.721  11.660
99969SOL     OW 1803   3.190   3.630   3.474
99969SOL    HW1 1804   3.110   3.589   3.505
99969SOL    HW2 1805   3.247   3.557   3.452
99970SOL     OW 1806   5.608   0.909   0.087
99970SOL    HW1 1807   5.602   0.813   0.093
99970SOL    HW2 1808   5.628   0.937   0.176
99971SOL     OW 1809   6.145   3.631   4.610
99971SOL    HW1 1810   6.180   3.681   4.684
99971SOL    HW2 1811   6.066   3.589   4.645
99972SOL     OW 1812   0.013   9.798   6.652
99972SOL    HW1 1813  14.873   9.812   6.744
99972SOL    HW2 1814  14.879   9.883   6.610
99973SOL     OW 1815   6.408   5.606   7.339
99973SOL    HW1 1816   6.486   5.614   7.394
99973SOL    HW2 1817   6.442   5.583   7.252
99974SOL     OW 1818   1.720   6.839   2.094
99974SOL    HW1 1819   1.811   6.840   2.123
99974SOL    HW2 1820   1.676   6.903   2.149
99975SOL     OW 1821   6.235   2.763   5.015
99975SOL    HW1 1822   6.175   2.770   5.089
99975SOL    HW2 1823   6.198   2.693   4.961
99976SOL     OW 1824   3.215   3.297  12.401
99976SOL    HW1 1825   3.157   3.313  12.475
99976SOL    HW2 1826   3.166   3.239  12.344
99977SOL     OW 1827  10.143   4.080  13.241
99977SOL    HW1 1828  10.080   4.090  13.170
99977SOL    HW2 1829  10.178   3.991  13.229
99978SOL     OW 1830  10.229   3.571  10.276
99978SOL    HW1 1831  10.229   3.482  10.241
99978SOL    HW2 1832  10.264   3.562  10.365
99979SOL     OW 1833   5.354   7.632  10.347
99979SOL    HW1 1834   5.351   7.651  10.253
99979SOL    HW2 1835   5.431   7.680  10.378
99980SOL     OW 1836   6.069   7.255  10.094
99980SOL    HW1 1837   6.034   7.322  10.036
99980SOL    HW2 1838   6.077   7.298  10.179
99981SOL     OW 1839   6.222   2.744   2.243
99981SOL    HW1 1840   6.310   2.732   2.208
99981SOL    HW2 1841   6.164   2.732   2.168
99982SOL     OW 1842   0.734   1.415   5.552
99982SOL    HW1 1843   0.823   1.450   5.555
99982SOL    HW2 1844   0.740   1.340   5.493
99983SOL     OW 1845   1.779  10.893  12.417
99983SOL    HW1 1846   1.788  10.800  12.437
99983SOL    HW2 1847   1.846  10.910  12.351
99984SOL     OW 1848   2.820   6.372   6.592
99984SOL    HW1 1849   2.915   6.379   6.600
99984SOL    HW2 1850   2.794   6.452   6.545
99985SOL     OW 1851  13.368   3.284   6.128
99985SOL    HW1 1852  13.289   3.244   6.166
99985SOL    HW2 1853  13.440   3.240   6.173
99986SOL     OW 1854   9.121  14.038   9.007
99986SOL    HW1 1855   9.061  14.083   8.947
99986SOL    HW2 1856   9.204  14.085   8.997
99987SOL     OW 1857   8.543   7.576   2.751
99987SOL    HW1 1858   8.585   7.567   2.665
99987SOL    HW2 1859   8.478   7.506   2.753
99988SOL     OW 1860   9.086   6.844  13.069
99988SOL    HW1 1861   9.031   6.915  13.035
99988SOL    HW2 1862   9.042   6.764  13.040
99989SOL     OW 1863  10.643   7.041   1.591
99989SOL    HW1 1864  10.691   6.979   1.537
99989SOL    HW2 1865  10.661   7.127   1.551
99990SOL     OW 1866  14.003   9.302   6.402
99990SOL    HW1 1867  13.992   9.389   6.441
99990SOL    HW2 1868  14.090   9.304   6.362
99991SOL     OW 1869   6.305   0.985   2.167
99991SOL    HW1 1870   6.314   1.033   2.249
99991SOL    HW2 1871   6.216   0.949   2.170
99992SOL     OW 1872  10.340   2.216   0.536
99992SOL    HW1 1873  10.361   2.298   0.582
99992SOL    HW2 1874  10.410   2.207   0.471
99993SOL     OW 1875  11.420  13.279  10.651
99993SOL    HW1 1876  11.431  13.373  10.658
99993SOL    HW2 1877  11.326  13.265  10.661
99994SOL     OW 1878   3.494  10.797   4.602
99994SOL    HW1 1879   3.589  10.811   4.605
99994SOL    HW2 1880   3.479  10.728   4.667
99995SOL     OW 1881  12.944   9.224  11.379
99995SOL    HW1 1882  12.989   9.296  11.335
99995SOL    HW2 1883  12.992   9.213  11.462
99996SOL     OW 1884  11.008  10.228   5.613
99996SOL    HW1 1885  11.074  10.281   5.658
99996SOL    HW2 1886  11.057  10.173   5.553
99997SOL     OW 1887   3.109   8.622   4.209
99997SOL    HW1 1888   3.043   8.575   4.258
99997SOL    HW2 1889   3.189   8.571   4.220
99998SOL     OW 1890   0.475  13.941   6.103
99998SOL    HW1 1891   0.424  14.021   6.097
99998SOL    HW2 1892   0.560  13.969   6.137
99999SOL     OW 1893   4.362  14.719  13.302
99999SOL    HW1 1894   4.335  14.646  13.359
99999SOL    HW2 1895   4.294  14.785  13.315
    0SOL     OW 1896   8.590   4.052   8.118
    0SOL    HW1 1897   8.528   4.100   8.064
    0SOL    HW2 1898   8.541   4.031   8.198
    1SOL     OW 1899  10.123   1.915   5.134
    1SOL    HW1 1900  10.034   1.946   5.118
    1SOL    HW2 1901  10.111   1.827   5.170
    2SOL     OW 1902  14.384   7.493  12.256
    2SOL    HW1 1903  14.334   7.412  12.252
    2SOL    HW2 1904  14.358   7.541  12.177
    3SOL     OW 1905   5.596   7.555   3.192
    3SOL    HW1 1906   5.682   7.514   3.179
    3SOL    HW2 1907   5.573   7.592   3.107
    4SOL     OW 1908  10.917   9.118   4.427
    4SOL    HW1 1909  10.976   9.047   4.454
    4SOL    HW2 1910  10.892   9.096   4.337
    5SOL     OW 1911   2.423   3.975  10.031
    5SOL    HW1 1912   2.354   4.041  10.023
    5SOL    HW2 1913   2.384   3.907  10.087
    6SOL     OW 1914   3.391   1.382   1.121
    6SOL    HW1 1915   3.331   1.308   1.113
    6SOL    HW2 1916   3.409   1.408   1.030
    7SOL     OW 1917   8.186   3.779   6.429
    7SOL    HW1 1918   8.122   3.841   6.394
    7SOL    HW2 1919   8.134   3.703   6.457
    8SOL     OW 1920  14.601   4.226   3.755
    8SOL    HW1 1921  14.646   4.239   3.839
    8SOL    HW2 1922  14.644   4.288   3.695
    9SOL     OW 1923  12.498   2.033   2.457
    9SOL    HW1 1924  12.431   2.016   2.524
    9SOL    HW2 1925  12.472   1.977   2.384
   10SOL     OW 1926  11.973  10.985   9.391
   10SOL    HW1 1927  11.984  10.976   9.486
   10SOL    HW2 1928  12.061  10.975   9.356
   11SOL     OW 1929  11.301   9.904   8.148
   11SOL    HW1 1930  11.257   9.978   8.191
   11SOL    HW2 1931  11.230   9.844   8.126
   12SOL     OW 1932  14.279   7.910  10.708
   12SOL    HW1 1933  14.245   7.833  10.753
   12SOL    HW2 1934  14.328   7.874  10.634
   13SOL     OW 1935  13.837  10.729  13.632
   13SOL    HW1 1936  13.924  10.689  13.624
   13SOL    HW2 1937  13.831  10.756  13.724
   14SOL     OW 1938   1.228  11.602   2.660
   14SOL    HW1 1939   1.259  11.583   2.571
   14SOL    HW2 1940   1.198  11.693   2.656
   15SOL     OW 1941   9.898   2.096   7.318
   15SOL    HW1 1942   9.977   2.147   7.301
   15SOL    HW2 1943   9.845   2.152   7.375
   16SOL     OW 1944   6.733   8.242   4.877
   16SOL    HW1 1945   6.700   8.281   4.959
   16SOL    HW2 1946   6.766   8.317   4.827
   17SOL     OW 1947   5.425   8.522  11.831
   17SOL    HW1 1948   5.515   8.544  11.807
   17SOL    HW2 1949   5.373   8.596  11.799
   18SOL     OW 1950  10.941  13.777  11.390
   18SOL    HW1 1951  10.881  13.753  11.461
   18SOL    HW2 1952  11.027  13.747  11.420
   19SOL     OW 1953   4.460   0.616   9.664
   19SOL    HW1 1954   4.435   0.699   9.624
   19SOL    HW2 1955   4.556   0.619   9.667
   20SOL     OW 1956   8.964  14.131   3.537
   20SOL    HW1 1957   8.951  14.116   3.444
   20SOL    HW2 1958   8.898  14.077   3.580
   21SOL     OW 1959   2.425   2.059   5.099
   21SOL    HW1 1960   2.411   2.072   5.006
   21SOL    HW2 1961   2.405   2.144   5.139
   22SOL     OW 1962  14.838  13.263  11.384
   22SOL    HW1 1963  14.834  13.179  11.431
   22SOL    HW2 1964  14.804  13.327  11.447
   23SOL     OW 1965   5.123   2.072   0.519
   23SOL    HW1 1966   5.116   2.114   0.434
   23SOL    HW2 1967   5.217   2.061   0.534
   24SOL     OW 1968  14.807  14.517   1.102
   24SOL    HW1 1969  14.842  14.451   1.042
   24SOL    HW2 1970  14.789  14.467   1.183
   25SOL     OW 1971  11.670  13.063  13.237
   25SOL    HW1 1972  11.671  12.988  13.178
   25SOL    HW2 1973  11.734  13.124  13.200
   26SOL     OW 1974  14.604  14.295  10.600
   26SOL    HW1 1975  14.531  14.349  10.569
   26SOL    HW2 1976  14.641  14.258  10.520
   27SOL     OW 1977   4.068   3.946   3.711
   27SOL    HW1 1978   4.067   3.923   3.618
   27SOL    HW2 1979   3.987   3.909   3.746
   28SOL     OW 1980  13.457   3.466  11.933
   28SOL    HW1 1981  13.409   3.548  11.944
   28SOL    HW2 1982  13.537   3.478  11.985
   29SOL     OW 1983   5.138   1.504   2.868
   29SOL    HW1 1984   5.050   1.540   2.863
   29SOL    HW2 1985   5.175   1.518   2.782
   30SOL     OW 1986   5.412   9.684   8.882
   30SOL    HW1 1987   5.426   9.730   8.799
   30SOL    HW2 1988   5.318   9.665   8.883
   31SOL     OW 1989   9.340   0.950   6.491
   31SOL    HW1 1990   9.389   1.028   6.463
   31SOL    HW2 1991   9.394   0.877   6.464
   32SOL     OW 1992  11.232  10.609   5.982
   32SOL    HW1 1993  11.224  10.524   5.938
   32SOL    HW2 1994  11.145  10.625   6.020
   33SOL     OW 1995   2.516   7.257   1.621
   33SOL    HW1 1996   2.497   7.345   1.588
   33SOL    HW2 1997   2.541   7.207   1.544
   34SOL     OW 1998   0.653  12.655  10.446
   34SOL    HW1 1999   0.656  12.685  10.536
   34SOL    HW2 2000   0.585  12.708  10.405
   35SOL     OW 2001   2.074   7.444  10.947
   35SOL    HW1 2002   2.033   7.374  10.998
   35SOL    HW2 2003   2.167   7.439  10.972
   36SOL     OW 2004   7.423   4.822  10.599
   36SOL    HW1 2005   7.410   4.865  10.515
   36SOL    HW2 2006   7.513   4.790  10.596
   37SOL     OW 2007   5.119   6.760   3.630
   37SOL    HW1 2008   5.139   6.819   3.557
   37SOL    HW2 2009   5.031   6.726   3.610
   38SOL     OW 2010   5.659   6.412   8.977
   38SOL    HW1 2011   5.606   6.470   8.921
   38SOL    HW2 2012   5.611   6.330   8.978
   39SOL     OW 2013  10.969   1.806   9.407
   39SOL    HW1 2014  11.007   1.894   9.415
   39SOL    HW2 2015  11.037   1.755   9.364
   40SOL     OW 2016   7.244   7.977   2.751
   40SOL    HW1 2017   7.294   8.055   2.726
   40SOL    HW2 2018   7.190   8.005   2.825
   41SOL     OW 2019   7.459   1.013   4.735
   41SOL    HW1 2020   7.426   1.103   4.730
   41SOL    HW2 2021   7.435   0.974   4.651
   42SOL     OW 2022   5.102  13.270   1.709
   42SOL    HW1 2023   5.123  13.363   1.706
   42SOL    HW2 2024   5.178  13.228   1.668
   43SOL     OW 2025   6.606  12.647  12.530
   43SOL    HW1 2026   6.686  12.601  12.505
   43SOL    HW2 2027   6.535  12.593  12.495
   44SOL     OW 2028   2.099   5.143   5.284
   44SOL    HW1 2029   2.137   5.227   5.312
   44SOL    HW2 2030   2.028   5.127   5.347
   45SOL     OW 2031  13.525   8.202   9.901
   45SOL    HW1 2032  13.577   8.222   9.979
   45SOL    HW2 2033  13.436   8.190   9.935
   46SOL     OW 2034   7.360   3.330  12.984
   46SOL    HW1 2035   7.434   3.364  12.934
   46SOL    HW2 2036   7.386   3.339  13.076
   47SOL     OW 2037   4.972   5.922  12.002
   47SOL    HW1 2038   4.962   6.003  12.053
   47SOL    HW2 2039   4.970   5.951  11.911
   48SOL     OW 2040  12.206   9.400  14.237
   48SOL    HW1 2041  12.292   9.378  14.200
   48SOL    HW2 2042  12.188   9.329  14.299
   49SOL     OW 2043   8.761   4.455   6.551
   49SOL    HW1 2044   8.818   4.490   6.482
   49SOL    HW2 2045   8.674   4.489   6.529
   50SOL     OW 2046   8.752   0.917  13.115
   50SOL    HW1 2047   8.786   0.992  13.066
   50SOL    HW2 2048   8.823   0.853  13.114
   51SOL     OW 2049   4.909   5.939   6.335
   51SOL    HW1 2050   4.838   6.004   6.337
   51SOL    HW2 2051   4.936   5.936   6.243
   52SOL     OW 2052   0.637  13.340  12.959
   52SOL    HW1 2053   0.556  13.289  12.958
   52SOL    HW2 2054   0.675  13.324  13.045
   53SOL     OW 2055   4.827   1.065   2.229
   53SOL    HW1 2056   4.806   0.972   2.217
   53SOL    HW2 2057   4.749   1.111   2.200
   54SOL     OW 2058   9.426   2.526   9.618
   54SOL    HW1 2059   9.439   2.608   9.666
   54SOL    HW2 2060   9.497   2.524   9.554
   55SOL     OW 2061  13.613   1.577   8.981
   55SOL    HW1 2062  13.624   1.619   9.067
   55SOL    HW2 2063  13.703   1.558   8.953
   56SOL     OW 2064   1.950   4.175   4.346
   56SOL    HW1 2065   1.880   4.123   4.386
   56SOL    HW2 2066   1.920   4.191   4.256
   57SOL     OW 2067   5.573   4.740   3.421
   57SOL    HW1 2068   5.642   4.743   3.354
   57SOL    HW2 2069   5.603   4.800   3.489
   58SOL     OW 2070  11.166   6.376   4.399
   58SOL    HW1 2071  11.118   6.422   4.469
   58SOL    HW2 2072  11.243   6.430   4.385
   59SOL     OW 2073  11.049   4.283  12.166
   59SOL    HW1 2074  11.022   4.368  12.132
   59SOL    HW2 2075  11.113   4.304  12.234
   60SOL     OW 2076   8.564   9.741  11.966
   60SOL    HW1 2077   8.479   9.732  12.008
   60SOL    HW2 2078   8.623   9.769  12.036
   61SOL     OW 2079   4.648   9.241   1.648
   61SOL    HW1 2080   4.688   9.158   1.623
   61SOL    HW2 2081   4.670   9.301   1.577
   62SOL     OW 2082   8.205   4.106   9.940
   62SOL    HW1 2083   8.275   4.109   9.875
   62SOL    HW2 2084   8.167   4.193   9.939
   63SOL     OW 2085   9.484   2.770   1.759
   63SOL    HW1 2086   9.495   2.853   1.715
   63SOL    HW2 2087   9.492   2.790   1.852
   64SOL     OW 2088   7.250  14.153   3.615
   64SOL    HW1 2089   7.240  14.205   3.695
   64SOL    HW2 2090   7.168  14.166   3.567
   65SOL     OW 2091   0.546   6.790   9.396
   65SOL    HW1 2092   0.556   6.724   9.465
   65SOL    HW2 2093   0.483   6.752   9.335
   66SOL     OW 2094   8.970  10.173   0.793
   66SOL    HW1 2095   9.000  10.216   0.713
   66SOL    HW2 2096   8.886  10.134   0.769
   67SOL     OW 2097   5.855   2.314  13.537
   67SOL    HW1 2098   5.820   2.311  13.448
   67SOL    HW2 2099   5.838   2.227  13.572
   68SOL     OW 2100   3.053  12.685   2.631
   68SOL    HW1 2101   3.080  12.603   2.589
   68SOL    HW2 2102   3.117  12.698   2.701
   69SOL     OW 2103   7.196  14.521  10.802
   69SOL    HW1 2104   7.170  14.518  10.894
   69SOL    HW2 2105   7.175  14.435  10.768
   70SOL     OW 2106   6.274   6.915   9.633
   70SOL    HW1 2107   6.273   6.829   9.674
   70SOL    HW2 2108   6.189   6.924   9.590
   71SOL     OW 2109   8.127   5.705  13.356
   71SOL    HW1 2110   8.219   5.703  13.383
   71SOL    HW2 2111   8.103   5.613  13.343
   72SOL     OW 2112  10.495  14.557   8.867
   72SOL    HW1 2113  10.415  14.574   8.917
   72SOL    HW2 2114  10.537  14.643   8.859
   73SOL     OW 2115   1.097   6.565  13.440
   73SOL    HW1 2116   1.010   6.529  13.423
   73SOL    HW2 2117   1.140   6.564  13.355
   74SOL     OW 2118   7.392   8.826   5.689
   74SOL    HW1 2119   7.397   8.734   5.712
   74SOL    HW2 2120   7.299   8.849   5.700
   75SOL     OW 2121   7.864   0.606  12.825
   75SOL    HW1 2122   7.847   0.625  12.917
   75SOL    HW2 2123   7.780   0.573  12.792
   76SOL     OW 2124   8.668  13.514   7.059
   76SOL    HW1 2125   8.603  13.445   7.048
   76SOL    HW2 2126   8.707  13.524   6.972
   77SOL     OW 2127   2.405   9.829   2.025
   77SOL    HW1 2128   2.319   9.804   2.060
   77SOL    HW2 2129   2.453   9.863   2.100
   78SOL     OW 2130  11.265  14.702   5.394
   78SOL    HW1 2131  11.345  14.750   5.415
   78SOL    HW2 2132  11.198  14.740   5.452
   79SOL     OW 2133   6.556   2.996   7.570
   79SOL    HW1 2134   6.516   2.960   7.649
   79SOL    HW2 2135   6.582   2.919   7.519
   80SOL     OW 2136  10.289   3.747   7.057
   80SOL    HW1 2137  10.321   3.701   6.980
   80SOL    HW2 2138  10.202   3.777   7.033
   81SOL     OW 2139   8.245   5.788   4.712
   81SOL    HW1 2140   8.303   5.712   4.713
   81SOL    HW2 2141   8.157   5.752   4.713
   82SOL     OW 2142   4.539   0.503   7.588
   82SOL    HW1 2143   4.544   0.464   7.501
   82SOL    HW2 2144   4.510   0.593   7.573
   83SOL     OW 2145   5.333   2.982   8.862
   83SOL    HW1 2146   5.378   2.957   8.782
   83SOL    HW2 2147   5.371   2.927   8.930
   84SOL     OW 2148   8.983   0.842   9.429
   84SOL    HW1 2149   8.982   0.938   9.422
   84SOL    HW2 2150   8.929   0.813   9.356
   85SOL     OW 2151   4.405  11.461   0.732
   85SOL    HW1 2152   4.458  11.457   0.811
   85SOL    HW2 2153   4.453  11.518   0.672
   86SOL     OW 2154   1.301   7.276  13.305
   86SOL    HW1 2155   1.377   7.304  13.357
   86SOL    HW2 2156   1.269   7.198  13.351
   87SOL     OW 2157   3.251   7.703  14.842
   87SOL    HW1 2158   3.270   7.612  14.818
   87SOL    HW2 2159   3.238   7.748  14.758
   88SOL     OW 2160   2.295   7.135  12.216
   88SOL    HW1 2161   2.332   7.083  12.289
   88SOL    HW2 2162   2.365   7.195  12.192
   89SOL     OW 2163  14.394  14.592   2.454
   89SOL    HW1 2164  14.436  14.508   2.436
   89SOL    HW2 2165  14.360  14.583   2.543
   90SOL     OW 2166   6.895   4.427   1.159
   90SOL    HW1 2167   6.851   4.420   1.074
   90SOL    HW2 2168   6.976   4.378   1.149
   91SOL     OW 2169   2.746   3.782   4.460
   91SOL    HW1 2170   2.742   3.877   4.471
   91SOL    HW2 2171   2.743   3.769   4.365
   92SOL     OW 2172  14.685   6.566   9.817
   92SOL    HW1 2173  14.732   6.499   9.766
   92SOL    HW2 2174  14.671   6.638   9.755
   93SOL     OW 2175  14.697  14.224   7.793
   93SOL    HW1 2176  14.641  14.302   7.797
   93SOL    HW2 2177  14.780  14.253   7.829
   94SOL     OW 2178   4.777   3.953   5.885
   94SOL    HW1 2179   4.833   4.023   5.853
   94SOL    HW2 2180   4.697   3.961   5.833
   95SOL     OW 2181  14.127   1.903   8.832
   95SOL    HW1 2182  14.123   1.922   8.926
   95SOL    HW2 2183  14.040   1.868   8.811
   96SOL     OW 2184   2.026   5.745  13.045
   96SOL    HW1 2185   1.946   5.733  13.097
   96SOL    HW2 2186   2.022   5.836  13.016
   97SOL     OW 2187  11.618   1.503  10.411
   97SOL    HW1 2188  11.701   1.515  10.457
   97SOL    HW2 2189  11.641   1.509  10.318
   98SOL     OW 2190   2.257   9.924  13.344
   98SOL    HW1 2191   2.303   9.880  13.272
   98SOL    HW2 2192   2.265  10.018  13.323
   99SOL     OW 2193   1.179   8.931   6.153
   99SOL    HW1 2194   1.097   8.946   6.107
   99SOL    HW2 2195   1.177   8.839   6.179
  100SOL     OW 2196   3.851   7.319   9.397
  100SOL    HW1 2197   3.804   7.368   9.464
  100SOL    HW2 2198   3.784   7.262   9.357
  101SOL     OW 2199   6.094   4.540   0.523
  101SOL    HW1 2200   6.041   4.567   0.599
  101SOL    HW2 2201   6.101   4.445   0.532
  102SOL     OW 2202  10.339  11.002   5.733
  102SOL    HW1 2203  10.404  10.947   5.777
  102SOL    HW2 2204  10.264  11.002   5.793
  103SOL     OW 2205   4.022   2.707   0.049
  103SOL    HW1 2206   4.111   2.740   0.039
  103SOL    HW2 2207   4.032   2.622   0.092
  104SOL     OW 2208   1.847   4.393  14.276
  104SOL    HW1 2209   1.901   4.326  14.234
  104SOL    HW2 2210   1.886   4.403  14.363
  105SOL     OW 2211   9.106  13.671   4.360
  105SOL    HW1 2212   9.103  13.652   4.454
  105SOL    HW2 2213   9.148  13.595   4.321
  106SOL     OW 2214   0.840   9.345   7.744
  106SOL    HW1 2215   0.862   9.419   7.688
  106SOL    HW2 2216   0.806   9.385   7.824
  107SOL     OW 2217   6.687   3.333   0.376
  107SOL    HW1 2218   6.644   3.248   0.367
  107SOL    HW2 2219   6.723   3.351   0.289
  108SOL     OW 2220   5.878   9.783   0.006
  108SOL    HW1 2221   5.896   9.835  14.810
  108SOL    HW2 2222   5.957   9.731   0.019
  109SOL     OW 2223   1.604  13.002  11.480
  109SOL    HW1 2224   1.596  12.979  11.388
  109SOL    HW2 2225   1.622  13.096  11.480
  110SOL     OW 2226   1.006   5.647   9.316
  110SOL    HW1 2227   0.946   5.590   9.365
  110SOL    HW2 2228   1.052   5.697   9.383
  111SOL     OW 2229  14.474   4.047   6.851
  111SOL    HW1 2230  14.490   4.050   6.945
  111SOL    HW2 2231  14.560   4.032   6.812
  112SOL     OW 2232   1.376   4.457   2.775
  112SOL    HW1 2233   1.398   4.436   2.684
  112SOL    HW2 2234   1.353   4.550   2.773
  113SOL     OW 2235   3.919   2.022  11.620
  113SOL    HW1 2236   3.918   1.956  11.551
  113SOL    HW2 2237   4.003   2.010  11.664
  114SOL     OW 2238   8.682   2.045   7.599
  114SOL    HW1 2239   8.746   2.031   7.668
  114SOL    HW2 2240   8.629   2.118   7.630
  115SOL     OW 2241   8.789   1.565   0.907
  115SOL    HW1 2242   8.757   1.566   0.817
  115SOL    HW2 2243   8.855   1.634   0.910
  116SOL     OW 2244   0.051   0.236   2.481
  116SOL    HW1 2245  14.871   0.302   2.510
  116SOL    HW2 2246   0.017   0.154   2.516
  117SOL     OW 2247   1.901  12.065   1.738
  117SOL    HW1 2248   1.869  12.026   1.657
  117SOL    HW2 2249   1.958  12.137   1.709
  118SOL     OW 2250   2.852  11.375   1.501
  118SOL    HW1 2251   2.922  11.440   1.512
  118SOL    HW2 2252   2.830  11.348   1.590
  119SOL     OW 2253  12.629   8.132   0.701
  119SOL    HW1 2254  12.556   8.177   0.743
  119SOL    HW2 2255  12.701   8.137   0.764
  120SOL     OW 2256  14.037   2.962   5.989
  120SOL    HW1 2257  13.997   2.995   6.069
  120SOL    HW2 2258  14.131   2.963   6.007
  121SOL     OW 2259   5.752   1.975  13.274
  121SOL    HW1 2260   5.764   2.009  13.185
  121SOL    HW2 2261   5.704   1.894  13.262
  122SOL     OW 2262  14.831  10.782   2.683
  122SOL    HW1 2263   0.013  10.715   2.705
  122SOL    HW2 2264  14.871  10.864   2.710
  123SOL     OW 2265  12.892  12.308  12.140
  123SOL    HW1 2266  12.938  12.267  12.067
  123SOL    HW2 2267  12.831  12.241  12.171
  124SOL     OW 2268  13.465  12.814   3.699
  124SOL    HW1 2269  13.523  12.754   3.745
  124SOL    HW2 2270  13.450  12.885   3.760
  125SOL     OW 2271   9.570   8.450   6.362
  125SOL    HW1 2272   9.627   8.525   6.344
  125SOL    HW2 2273   9.482   8.483   6.345
  126SOL     OW 2274   7.959   7.695   0.220
  126SOL    HW1 2275   7.892   7.682   0.287
  126SOL    HW2 2276   7.921   7.761   0.161
  127SOL     OW 2277  14.536  13.992   0.118
  127SOL    HW1 2278  14.508  13.994   0.210
  127SOL    HW2 2279  14.617  14.043   0.116
  128SOL     OW 2280   5.560   8.868  11.540
  128SOL    HW1 2281   5.635   8.927  11.543
  128SOL    HW2 2282   5.594   8.786  11.506
  129SOL     OW 2283   0.545   8.155  13.374
  129SOL    HW1 2284   0.634   8.121  13.383
  129SOL    HW2 2285   0.507   8.144  13.461
  130SOL     OW 2286   4.112   7.080   2.241
  130SOL    HW1 2287   4.088   7.090   2.333
  130SOL    HW2 2288   4.028   7.079   2.194
  131SOL     OW 2289   4.283   4.020   3.366
  131SOL    HW1 2290   4.299   4.023   3.271
  131SOL    HW2 2291   4.194   3.985   3.374
  132SOL     OW 2292  13.022   5.233  11.709
  132SOL    HW1 2293  13.021   5.275  11.795
  132SOL    HW2 2294  13.011   5.140  11.727
  133SOL     OW 2295  13.667  10.916   2.213
  133SOL    HW1 2296  13.634  11.006   2.214
  133SOL    HW2 2297  13.723  10.911   2.290
  134SOL     OW 2298   8.280   4.171   2.970
  134SOL    HW1 2299   8.371   4.201   2.978
  134SOL    HW2 2300   8.283   4.079   2.994
  135SOL     OW 2301   8.656  12.536   4.204
  135SOL    HW1 2302   8.582  12.494   4.161
  135SOL    HW2 2303   8.651  12.506   4.295
  136SOL     OW 2304  13.543  11.021   4.705
  136SOL    HW1 2305  13.594  11.100   4.726
  136SOL    HW2 2306  13.574  10.995   4.618
  137SOL     OW 2307   4.100  11.004  14.167
  137SOL    HW1 2308   4.086  11.098  14.178
  137SOL    HW2 2309   4.148  10.997  14.084
  138SOL     OW 2310   6.955  12.429   0.268
  138SOL    HW1 2311   6.925  12.423   0.359
  138SOL    HW2 2312   6.947  12.522   0.246
  139SOL     OW 2313   2.082   4.066   2.939
  139SOL    HW1 2314   2.135   3.986   2.939
  139SOL    HW2 2315   2.082   4.096   2.848
  140SOL     OW 2316  12.862  11.282   1.379
  140SOL    HW1 2317  12.858  11.375   1.356
  140SOL    HW2 2318  12.882  11.282   1.473
  141SOL     OW 2319  12.388  10.683  11.100
  141SOL    HW1 2320  12.455  10.724  11.155
  141SOL    HW2 2321  12.412  10.709  11.010
  142SOL     OW 2322   8.971   1.991   4.497
  142SOL    HW1 2323   9.047   2.001   4.440
  142SOL    HW2 2324   8.988   1.910   4.545
  143SOL     OW 2325  10.172   1.248   8.246
  143SOL    HW1 2326  10.123   1.169   8.266
  143SOL    HW2 2327  10.115   1.320   8.273
  144SOL     OW 2328   4.631  12.607  11.604
  144SOL    HW1 2329   4.549  12.569  11.637
  144SOL    HW2 2330   4.658  12.548  11.533
  145SOL     OW 2331  14.415   5.720   5.171
  145SOL    HW1 2332  14.357   5.794   5.151
  145SOL    HW2 2333  14.374   5.646   5.126
  146SOL     OW 2334  14.522  12.971  13.460
  146SOL    HW1 2335  14.505  12.912  13.534
  146SOL    HW2 2336  14.460  12.941  13.393
  147SOL     OW 2337   5.025   2.345   9.419
  147SOL    HW1 2338   4.931   2.328   9.415
  147SOL    HW2 2339   5.064   2.262   9.448
  148SOL     OW 2340   2.558   5.633  14.394
  148SOL    HW1 2341   2.653   5.639  14.382
  148SOL    HW2 2342   2.524   5.619  14.305
  149SOL     OW 2343  11.296   4.515   4.726
  149SOL    HW1 2344  11.201   4.520   4.725
  149SOL    HW2 2345  11.323   4.566   4.650
  150SOL     OW 2346   7.620   5.803  14.297
  150SOL    HW1 2347   7.615   5.893  14.263
  150SOL    HW2 2348   7.617   5.748  14.220
  151SOL     OW 2349   1.586   6.638   1.571
  151SOL    HW1 2350   1.579   6.568   1.635
  151SOL    HW2 2351   1.680   6.649   1.559
  152SOL     OW 2352   9.827   4.110   3.161
  152SOL    HW1 2353   9.746   4.151   3.193
  152SOL    HW2 2354   9.879   4.096   3.240
  153SOL     OW 2355  11.783   4.753   3.464
  153SOL    HW1 2356  11.751   4.753   3.373
  153SOL    HW2 2357  11.703   4.757   3.517
  154SOL     OW 2358   6.624  14.828   6.283
  154SOL    HW1 2359   6.578  14.799   6.362
  154SOL    HW2 2360   6.714  14.798   6.295
  155SOL     OW 2361  11.381   2.103   0.346
  155SOL    HW1 2362  11.431   2.141   0.274
  155SOL    HW2 2363  11.307   2.163   0.359
  156SOL     OW 2364   7.914   5.429   4.010
  156SOL    HW1 2365   7.874   5.511   3.983
  156SOL    HW2 2366   7.983   5.454   4.071
  157SOL     OW 2367  12.294   7.257   4.874
  157SOL    HW1 2368  12.269   7.329   4.816
  157SOL    HW2 2369  12.354   7.204   4.822
  158SOL     OW 2370  12.607  12.353   5.393
  158SOL    HW1 2371  12.516  12.345   5.366
  158SOL    HW2 2372  12.636  12.263   5.408
  159SOL     OW 2373   7.207  13.074   5.791
  159SOL    HW1 2374   7.162  12.998   5.827
  159SOL    HW2 2375   7.137  13.127   5.752
  160SOL     OW 2376   4.094  10.120  13.745
  160SOL    HW1 2377   4.169  10.088  13.794
  160SOL    HW2 2378   4.107  10.088  13.656
  161SOL     OW 2379   4.860   6.548   9.397
  161SOL    HW1 2380   4.776   6.520   9.431
  161SOL    HW2 2381   4.888   6.619   9.456
  162SOL     OW 2382  11.649   1.245  12.233
  162SOL    HW1 2383  11.604   1.307  12.290
  162SOL    HW2 2384  11.671   1.171  12.290
  163SOL     OW 2385   5.266   0.636   7.316
  163SOL    HW1 2386   5.344   0.613   7.266
  163SOL    HW2 2387   5.229   0.711   7.269
  164SOL     OW 2388  12.116   1.497  12.083
  164SOL    HW1 2389  12.071   1.490  11.999
  164SOL    HW2 2390  12.193   1.551  12.065
  165SOL     OW 2391   2.005  10.675   9.897
  165SOL    HW1 2392   2.029  10.755   9.944
  165SOL    HW2 2393   2.041  10.687   9.809
  166SOL     OW 2394   8.365  10.430   3.968
  166SOL    HW1 2395   8.349  10.511   4.015
  166SOL    HW2 2396   8.442  10.447   3.914
  167SOL     OW 2397   1.166   5.453   8.884
  167SOL    HW1 2398   1.221   5.412   8.817
  167SOL    HW2 2399   1.083   5.405   8.880
  168SOL     OW 2400  13.541  10.858  13.483
  168SOL    HW1 2401  13.472  10.816  13.535
  168SOL    HW2 2402  13.552  10.944  13.525
  169SOL     OW 2403  10.990   3.240  12.769
  169SOL    HW1 2404  10.903   3.222  12.805
  169SOL    HW2 2405  11.022   3.316  12.818
  170SOL     OW 2406   6.672  11.693  13.592
  170SOL    HW1 2407   6.606  11.742  13.542
  170SOL    HW2 2408   6.700  11.753  13.661
  171SOL     OW 2409   4.822   7.775   8.944
  171SOL    HW1 2410   4.779   7.737   8.867
  171SOL    HW2 2411   4.898   7.821   8.908
  172SOL     OW 2412  13.039  11.408   5.709
  172SOL    HW1 2413  13.097  11.379   5.639
  172SOL    HW2 2414  13.012  11.327   5.752
  173SOL     OW 2415  13.525   3.833  14.426
  173SOL    HW1 2416  13.483   3.907  14.382
  173SOL    HW2 2417  13.546   3.866  14.514
  174SOL     OW 2418  12.879  14.364   5.869
  174SOL    HW1 2419  12.949  14.396   5.812
  174SOL    HW2 2420  12.812  14.332   5.808
  175SOL     OW 2421   2.143   8.771   7.210
  175SOL    HW1 2422   2.170   8.679   7.208
  175SOL    HW2 2423   2.206   8.816   7.153
  176SOL     OW 2424   1.975  10.645   6.535
  176SOL    HW1 2425   1.984  10.673   6.444
  176SOL    HW2 2426   1.897  10.591   6.535
  177SOL     OW 2427  12.974   4.929   9.560
  177SOL    HW1 2428  12.904   4.993   9.574
  177SOL    HW2 2429  12.946   4.880   9.482
  178SOL     OW 2430   0.668  14.281   8.255
  178SOL    HW1 2431   0.582  14.252   8.224
  178SOL    HW2 2432   0.653  14.308   8.346
  179SOL     OW 2433  11.269   6.534   9.091
  179SOL    HW1 2434  11.360   6.517   9.068
  179SOL    HW2 2435  11.222   6.530   9.008
  180SOL     OW 2436   8.199  10.766   8.151
  180SOL    HW1 2437   8.284  10.725   8.138
  180SOL    HW2 2438   8.217  10.838   8.211
  181SOL     OW 2439  10.470   2.346  11.094
  181SOL    HW1 2440  10.481   2.441  11.102
  181SOL    HW2 2441  10.446   2.332  11.002
  182SOL     OW 2442   6.005   7.430   0.629
  182SOL    HW1 2443   6.015   7.408   0.536
  182SOL    HW2 2444   5.925   7.385   0.656
  183SOL     OW 2445   2.928   9.554   3.250
  183SOL    HW1 2446   2.918   9.538   3.343
  183SOL    HW2 2447   2.839   9.562   3.217
  184SOL     OW 2448   9.601   0.459   6.270
  184SOL    HW1 2449   9.565   0.546   6.250
  184SOL    HW2 2450   9.694   0.467   6.249
  185SOL     OW 2451  12.409  11.200   9.228
  185SOL    HW1 2452  12.315  11.214   9.229
  185SOL    HW2 2453  12.422  11.133   9.160
  186SOL     OW 2454   7.354   1.587   3.448
  186SOL    HW1 2455   7.449   1.601   3.448
  186SOL    HW2 2456   7.316   1.675   3.451
  187SOL     OW 2457  11.604   6.468  11.370
  187SOL    HW1 2458  11.509   6.462  11.368
  187SOL    HW2 2459  11.623   6.561  11.357
  188SOL     OW 2460   9.751   8.394  14.610
  188SOL    HW1 2461   9.679   8.405  14.547
  188SOL    HW2 2462   9.729   8.314  14.658
  189SOL     OW 2463   1.560  14.625  11.567
  189SOL    HW1 2464   1.623  14.576  11.620
  189SOL    HW2 2465   1.598  14.712  11.558
  190SOL     OW 2466  14.472   6.239  14.402
  190SOL    HW1 2467  14.534   6.172  14.372
  190SOL    HW2 2468  14.396   6.189  14.432
  191SOL     OW 2469   5.087   5.569   9.529
  191SOL    HW1 2470   5.159   5.631   9.530
  191SOL    HW2 2471   5.029   5.600   9.459
  192SOL     OW 2472  12.968   5.614   0.770
  192SOL    HW1 2473  12.919   5.608   0.688
  192SOL    HW2 2474  12.967   5.708   0.791
  193SOL     OW 2475  13.509  10.586   1.859
  193SOL    HW1 2476  13.590  10.561   1.904
  193SOL    HW2 2477  13.462  10.640   1.921
  194SOL     OW 2478   1.051   9.500   1.982
  194SOL    HW1 2479   1.033   9.571   2.044
  194SOL    HW2 2480   1.019   9.421   2.027
  195SOL     OW 2481   5.754   1.246   4.804
  195SOL    HW1 2482   5.842   1.270   4.776
  195SOL    HW2 2483   5.751   1.151   4.795
  196SOL     OW 2484   2.961  11.442  11.269
  196SOL    HW1 2485   3.041  11.395  11.294
  196SOL    HW2 2486   2.891  11.379  11.280
  197SOL     OW 2487   9.703  12.372   6.125
  197SOL    HW1 2488   9.730  12.447   6.178
  197SOL    HW2 2489   9.614  12.353   6.153
  198SOL     OW 2490   7.715   1.534   1.497
  198SOL    HW1 2491   7.791   1.509   1.548
  198SOL    HW2 2492   7.669   1.451   1.480
  199SOL     OW 2493   1.848   9.406   3.757
  199SOL    HW1 2494   1.814   9.334   3.810
  199SOL    HW2 2495   1.788   9.479   3.775
  200SOL     OW 2496  10.463   7.340   5.837
  200SOL    HW1 2497  10.422   7.422   5.865
  200SOL    HW2 2498  10.433   7.275   5.900
  201SOL     OW 2499   7.367   0.565   0.115
  201SOL    HW1 2500   7.387   0.636   0.176
  201SOL    HW2 2501   7.292   0.596   0.065
  202SOL     OW 2502   9.248   7.876   5.625
  202SOL    HW1 2503   9.244   7.788   5.587
  202SOL    HW2 2504   9.298   7.927   5.561
  203SOL     OW 2505  13.532  11.972  12.730
  203SOL    HW1 2506  13.603  12.015  12.777
  203SOL    HW2 2507  13.567  11.888  12.703
  204SOL     OW 2508  14.864   3.896  10.344
  204SOL    HW1 2509   0.038   3.971  10.359
  204SOL    HW2 2510  14.807   3.893  10.421
  205SOL     OW 2511   4.528   7.098   3.073
  205SOL    HW1 2512   4.607   7.127   3.029
  205SOL    HW2 2513   4.559   7.035   3.139
  206SOL     OW 2514   1.408   8.657   3.113
  206SOL    HW1 2515   1.324   8.681   3.152
  206SOL    HW2 2516   1.407   8.561   3.111
  207SOL     OW 2517   9.000  14.435   3.521
  207SOL    HW1 2518   8.967  14.356   3.478
  207SOL    HW2 2519   9.069  14.403   3.579
  208SOL     OW 2520  10.335  13.174   1.390
  208SOL    HW1 2521  10.278  13.098   1.398
  208SOL    HW2 2522  10.275  13.247   1.373
  209SOL     OW 2523   6.292   8.692   6.232
  209SOL    HW1 2524   6.294   8.769   6.176
  209SOL    HW2 2525   6.385   8.673   6.249
  210SOL     OW 2526   9.902   8.503   5.538
  210SOL    HW1 2527   9.851   8.427   5.567
  210SOL    HW2 2528   9.870   8.522   5.450
  211SOL     OW 2529   1.971   1.549   3.271
  211SOL    HW1 2530   2.037   1.517   3.333
  211SOL    HW2 2531   1.894   1.495   3.286
  212SOL     OW 2532  11.986  12.326  11.746
  212SOL    HW1 2533  12.044  12.348  11.674
  212SOL    HW2 2534  11.908  12.380  11.731
  213SOL     OW 2535   7.969   6.279   7.671
  213SOL    HW1 2536   7.904   6.280   7.601
  213SOL    HW2 2537   7.929   6.329   7.742
  214SOL     OW 2538   6.884   6.335   0.833
  214SOL    HW1 2539   6.959   6.286   0.800
  214SOL    HW2 2540   6.912   6.427   0.832
  215SOL     OW 2541   5.981  12.568   9.787
  215SOL    HW1 2542   5.980  12.477   9.757
  215SOL    HW2 2543   6.040  12.612   9.725
  216SOL     OW 2544  14.798   9.347  10.391
  216SOL    HW1 2545  14.719   9.393  10.420
  216SOL    HW2 2546  14.811   9.279  10.457
  217SOL     OW 2547   7.815   9.464   1.591
  217SOL    HW1 2548   7.789   9.384   1.545
  217SOL    HW2 2549   7.779   9.535   1.539
  218SOL     OW 2550  12.388  10.489  11.312
  218SOL    HW1 2551  12.294  10.484  11.292
  218SOL    HW2 2552  12.423  10.550  11.246
  219SOL     OW 2553  11.507   9.915   1.226
  219SOL    HW1 2554  11.509   9.980   1.296
  219SOL    HW2 2555  11.414   9.902   1.209
  220SOL     OW 2556  11.164   0.585   2.207
  220SOL    HW1 2557  11.109   0.509   2.227
  220SOL    HW2 2558  11.108   0.642   2.154
  221SOL     OW 2559   2.727   8.574   3.124
  221SOL    HW1 2560   2.811   8.551   3.165
  221SOL    HW2 2561   2.752   8.630   3.051
  222SOL     OW 2562  13.587  13.844   1.025
  222SOL    HW1 2563  13.551  13.854   1.113
  222SOL    HW2 2564  13.525  13.787   0.980
  223SOL     OW 2565   6.514   3.188  11.589
  223SOL    HW1 2566   6.421   3.174  11.609
  223SOL    HW2 2567   6.543   3.105  11.550
  224SOL     OW 2568  12.292  13.185   6.897
  224SOL    HW1 2569  12.235  13.220   6.966
  224SOL    HW2 2570  12.239  13.117   6.855
  225SOL     OW 2571   3.568   3.832   8.864
  225SOL    HW1 2572   3.533   3.829   8.775
  225SOL    HW2 2573   3.641   3.770   8.863
  226SOL     OW 2574  10.573   6.917   7.513
  226SOL    HW1 2575  10.554   6.827   7.539
  226SOL    HW2 2576  10.612   6.909   7.426
  227SOL     OW 2577   9.242   7.512  11.069
  227SOL    HW1 2578   9.160   7.462  11.074
  227SOL    HW2 2579   9.235   7.576  11.140
  228SOL     OW 2580   8.834   3.809   7.838
  228SOL    HW1 2581   8.832   3.857   7.755
  228SOL    HW2 2582   8.751   3.830   7.881
  229SOL     OW 2583  11.839  11.358   7.210
  229SOL    HW1 2584  11.836  11.355   7.115
  229SOL    HW2 2585  11.874  11.445   7.231
  230SOL     OW 2586  11.087  13.269   5.768
  230SOL    HW1 2587  11.172  13.262   5.811
  230SOL    HW2 2588  11.043  13.341   5.813
  231SOL     OW 2589   0.149   1.652  10.504
  231SOL    HW1 2590   0.214   1.603  10.555
  231SOL    HW2 2591   0.069   1.647  10.557
  232SOL     OW 2592   2.198   3.053   3.130
  232SOL    HW1 2593   2.259   3.124   3.151
  232SOL    HW2 2594   2.213   3.035   3.037
  233SOL     OW 2595   8.282  13.624   8.442
  233SOL    HW1 2596   8.310  13.539   8.409
  233SOL    HW2 2597   8.314  13.627   8.533
  234SOL     OW 2598   9.614   1.091   2.987
  234SOL    HW1 2599   9.602   1.002   3.019
  234SOL    HW2 2600   9.706   1.111   3.008
  235SOL     OW 2601   9.849  13.615   8.082
  235SOL    HW1 2602   9.928  13.562   8.095
  235SOL    HW2 2603   9.805  13.613   8.167
  236SOL     OW 2604  13.263   3.338   7.190
  236SOL    HW1 2605  13.332   3.271   7.190
  236SOL    HW2 2606  13.310   3.421   7.199
  237SOL     OW 2607  14.188  12.608  12.873
  237SOL    HW1 2608  14.228  12.602  12.786
  237SOL    HW2 2609  14.210  12.525  12.915
  238SOL     OW 2610  13.786  10.355   4.000
  238SOL    HW1 2611  13.725  10.378   4.070
  238SOL    HW2 2612  13.731  10.325   3.928
  239SOL     OW 2613  11.247   4.944   3.374
  239SOL    HW1 2614  11.158   4.908   3.373
  239SOL    HW2 2615  11.273   4.946   3.282
  240SOL     OW 2616  14.862  10.252   4.917
  240SOL    HW1 2617  14.822  10.199   4.986
  240SOL    HW2 2618  14.794  10.315   4.892
  241SOL     OW 2619   5.279  14.785  14.044
  241SOL    HW1 2620   5.206  14.735  14.080
  241SOL    HW2 2621   5.334  14.807  14.120
  242SOL     OW 2622  13.204  11.991   9.514
  242SOL    HW1 2623  13.272  12.002   9.447
  242SOL    HW2 2624  13.127  11.961   9.466
  243SOL     OW 2625   9.394   2.345  14.491
  243SOL    HW1 2626   9.314   2.292  14.493
  243SOL    HW2 2627   9.383   2.408  14.562
  244SOL     OW 2628  12.953  14.153   3.712
  244SOL    HW1 2629  13.031  14.176   3.662
  244SOL    HW2 2630  12.880  14.174   3.653
  245SOL     OW 2631  13.494  14.587  13.530
  245SOL    HW1 2632  13.456  14.588  13.618
  245SOL    HW2 2633  13.485  14.496  13.501
  246SOL     OW 2634  11.710  10.956  14.714
  246SOL    HW1 2635  11.764  10.922  14.785
  246SOL    HW2 2636  11.717  10.891  14.644
  247SOL     OW 2637   4.593   1.804   9.899
  247SOL    HW1 2638   4.688   1.796   9.889
  247SOL    HW2 2639   4.563   1.843   9.817
  248SOL     OW 2640   1.305   0.617  10.870
  248SOL    HW1 2641   1.271   0.637  10.783
  248SOL    HW2 2642   1.400   0.622  10.861
  249SOL     OW 2643   2.089   0.040  12.908
  249SOL    HW1 2644   1.996   0.056  12.925
  249SOL    HW2 2645   2.135   0.097  12.969
  250SOL     OW 2646   3.444  10.708   3.697
  250SOL    HW1 2647   3.352  10.688   3.715
  250SOL    HW2 2648   3.490  10.625   3.711
  251SOL     OW 2649  12.924  13.949   1.277
  251SOL    HW1 2650  12.863  13.992   1.217
  251SOL    HW2 2651  12.954  13.871   1.230
  252SOL     OW 2652   8.636   0.820   5.763
  252SOL    HW1 2653   8.688   0.748   5.798
  252SOL    HW2 2654   8.554   0.818   5.812
  253SOL     OW 2655  11.501  14.810   5.469
  253SOL    HW1 2656  11.480   0.015   5.504
  253SOL    HW2 2657  11.558  14.828   5.394
  254SOL     OW 2658   2.417  13.219  11.539
  254SOL    HW1 2659   2.367  13.138  11.527
  254SOL    HW2 2660   2.362  13.272  11.598
  255SOL     OW 2661   3.954   9.394   3.677
  255SOL    HW1 2662   3.915   9.481   3.674
  255SOL    HW2 2663   3.982   9.384   3.768
  256SOL     OW 2664  12.918  14.267   7.198
  256SOL    HW1 2665  12.912  14.293   7.107
  256SOL    HW2 2666  12.847  14.314   7.242
  257SOL     OW 2667   9.431   9.236   2.989
  257SOL    HW1 2668   9.418   9.142   2.975
  257SOL    HW2 2669   9.518   9.253   2.952
  258SOL     OW 2670   5.825   3.973   6.089
  258SOL    HW1 2671   5.729   3.977   6.090
  258SOL    HW2 2672   5.852   4.053   6.044
  259SOL     OW 2673   3.316  10.226  12.264
  259SOL    HW1 2674   3.250  10.165  12.296
  259SOL    HW2 2675   3.304  10.228  12.169
  260SOL     OW 2676  14.207  12.062   5.262
  260SOL    HW1 2677  14.288  12.073   5.313
  260SOL    HW2 2678  14.233  12.005   5.190
  261SOL     OW 2679  11.378   3.442  14.473
  261SOL    HW1 2680  11.393   3.354  14.505
  261SOL    HW2 2681  11.361   3.431  14.379
  262SOL     OW 2682  12.789  10.208   8.971
  262SOL    HW1 2683  12.701  10.190   8.938
  262SOL    HW2 2684  12.776  10.269   9.043
  263SOL     OW 2685   6.813   6.857  10.380
  263SOL    HW1 2686   6.882   6.913  10.415
  263SOL    HW2 2687   6.848   6.826  10.296
  264SOL     OW 2688   3.052   3.441  11.272
  264SOL    HW1 2689   3.130   3.449  11.326
  264SOL    HW2 2690   3.004   3.367  11.309
  265SOL     OW 2691  13.782   6.467  13.828
  265SOL    HW1 2692  13.704   6.442  13.779
  265SOL    HW2 2693  13.847   6.485  13.761
  266SOL     OW 2694  14.430   5.968   4.481
  266SOL    HW1 2695  14.502   6.012   4.436
  266SOL    HW2 2696  14.351   6.007   4.444
  267SOL     OW 2697   1.255  13.474   2.856
  267SOL    HW1 2698   1.293  13.386   2.852
  267SOL    HW2 2699   1.187  13.474   2.789
  268SOL     OW 2700  10.189  13.409   3.258
  268SOL    HW1 2701  10.189  13.343   3.189
  268SOL    HW2 2702  10.148  13.486   3.218
  269SOL     OW 2703  14.042   4.885  11.813
  269SOL    HW1 2704  14.104   4.957  11.801
  269SOL    HW2 2705  13.963   4.915  11.769
  270SOL     OW 2706   7.033   6.009  12.732
  270SOL    HW1 2707   7.075   6.074  12.788
  270SOL    HW2 2708   6.949   6.048  12.708
  271SOL     OW 2709   6.031  13.035   6.883
  271SOL    HW1 2710   6.067  13.102   6.942
  271SOL    HW2 2711   6.107  12.992   6.845
  272SOL     OW 2712   5.829   2.150  10.644
  272SOL    HW1 2713   5.873   2.209  10.704
  272SOL    HW2 2714   5.809   2.073  10.697
  273SOL     OW 2715   1.960   5.013  13.900
  273SOL    HW1 2716   1.927   5.078  13.838
  273SOL    HW2 2717   1.926   5.042  13.985
  274SOL     OW 2718   5.132  11.597  10.997
  274SOL    HW1 2719   5.164  11.529  10.937
  274SOL    HW2 2720   5.182  11.583  11.077
  275SOL     OW 2721   6.117   0.785   8.164
  275SOL    HW1 2722   6.156   0.698   8.161
  275SOL    HW2 2723   6.151   0.825   8.244
  276SOL     OW 2724   7.080  12.099   3.783
  276SOL    HW1 2725   7.145  12.039   3.747
  276SOL    HW2 2726   7.078  12.173   3.722
  277SOL     OW 2727   5.977   9.305   3.397
  277SOL    HW1 2728   6.025   9.244   3.341
  277SOL    HW2 2729   6.016   9.293   3.484
  278SOL     OW 2730   4.672  11.052  12.323
  278SOL    HW1 2731   4.640  10.992  12.390
  278SOL    HW2 2732   4.762  11.072  12.349
  279SOL     OW 2733   9.144   6.507  12.669
  279SOL    HW1 2734   9.131   6.595  12.705
  279SOL    HW2 2735   9.088   6.505  12.591
  280SOL     OW 2736   4.097  11.638   6.702
  280SOL    HW1 2737   4.050  11.721   6.706
  280SOL    HW2 2738   4.181  11.656   6.745
  281SOL     OW 2739   9.682   9.710   4.468
  281SOL    HW1 2740   9.726   9.654   4.532
  281SOL    HW2 2741   9.652   9.649   4.400
  282SOL     OW 2742   0.355   6.610  13.049
  282SOL    HW1 2743   0.422   6.572  13.107
  282SOL    HW2 2744   0.274   6.602  13.099
  283SOL     OW 2745  12.413   0.938   0.606
  283SOL    HW1 2746  12.320   0.927   0.626
  283SOL    HW2 2747  12.414   0.997   0.530
  284SOL     OW 2748   2.563   2.434   7.331
  284SOL    HW1 2749   2.578   2.412   7.239
  284SOL    HW2 2750   2.475   2.470   7.333
  285SOL     OW 2751  13.538   8.507   6.416
  285SOL    HW1 2752  13.573   8.441   6.476
  285SOL    HW2 2753  13.472   8.459   6.364
  286SOL     OW 2754   0.439   3.247   6.315
  286SOL    HW1 2755   0.379   3.315   6.286
  286SOL    HW2 2756   0.431   3.246   6.410
  287SOL     OW 2757  12.111   5.395  12.151
  287SOL    HW1 2758  12.065   5.432  12.076
  287SOL    HW2 2759  12.069   5.435  12.227
  288SOL     OW 2760   7.627   3.065   3.496
  288SOL    HW1 2761   7.682   2.997   3.537
  288SOL    HW2 2762   7.551   3.073   3.554
  289SOL     OW 2763  14.779   1.732   0.680
  289SOL    HW1 2764  14.858   1.710   0.631
  289SOL    HW2 2765  14.794   1.820   0.712
  290SOL     OW 2766   9.918   3.022   6.827
  290SOL    HW1 2767   9.835   3.068   6.819
  290SOL    HW2 2768   9.979   3.088   6.861
  291SOL     OW 2769  12.207   1.960   6.114
  291SOL    HW1 2770  12.249   2.016   6.049
  291SOL    HW2 2771  12.242   1.872   6.096
  292SOL     OW 2772  12.138  13.305   0.006
  292SOL    HW1 2773  12.143  13.246   0.081
  292SOL    HW2 2774  12.102  13.386   0.041
  293SOL     OW 2775   8.330   3.348   3.711
  293SOL    HW1 2776   8.293   3.365   3.798
  293SOL    HW2 2777   8.309   3.256   3.693
  294SOL     OW 2778  12.368  10.076   9.167
  294SOL    HW1 2779  12.371  10.147   9.232
  294SOL    HW2 2780  12.319  10.007   9.211
  295SOL     OW 2781  11.308  13.205  13.999
  295SOL    HW1 2782  11.280  13.297  13.997
  295SOL    HW2 2783  11.284  13.176  14.087
  296SOL     OW 2784   6.140   5.862  12.029
  296SOL    HW1 2785   6.157   5.834  12.119
  296SOL    HW2 2786   6.172   5.789  11.976
  297SOL     OW 2787   3.188   2.520   1.567
  297SOL    HW1 2788   3.228   2.508   1.653
  297SOL    HW2 2789   3.218   2.444   1.516
  298SOL     OW 2790  12.453   1.738   6.323
  298SOL    HW1 2791  12.518   1.728   6.254
  298SOL    HW2 2792  12.486   1.684   6.395
  299SOL     OW 2793  13.292  11.743   6.745
  299SOL    HW1 2794  13.294  11.760   6.650
  299SOL    HW2 2795  13.358  11.802   6.781
  300SOL     OW 2796   7.580   0.536  12.260
  300SOL    HW1 2797   7.630   0.454  12.268
  300SOL    HW2 2798   7.539   0.531  12.174
  301SOL     OW 2799  10.295  10.240  10.200
  301SOL    HW1 2800  10.292  10.150  10.233
  301SOL    HW2 2801  10.344  10.288  10.267
  302SOL     OW 2802   5.924   2.572  13.292
  302SOL    HW1 2803   5.903   2.597  13.202
  302SOL    HW2 2804   5.851   2.605  13.344
  303SOL     OW 2805   5.014  14.835   5.382
  303SOL    HW1 2806   4.983   0.027   5.330
  303SOL    HW2 2807   4.937  14.777   5.389
  304SOL     OW 2808  11.445   5.815   4.400
  304SOL    HW1 2809  11.534   5.837   4.426
  304SOL    HW2 2810  11.435   5.852   4.312
  305SOL     OW 2811   4.380   8.644   0.607
  305SOL    HW1 2812   4.471   8.669   0.616
  305SOL    HW2 2813   4.380   8.580   0.536
  306SOL     OW 2814   8.115  13.472  12.214
  306SOL    HW1 2815   8.075  13.510  12.292
  306SOL    HW2 2816   8.209  13.477  12.231
  307SOL     OW 2817  13.362   7.445   9.858
  307SOL    HW1 2818  13.408   7.423   9.940
  307SOL    HW2 2819  13.367   7.541   9.853
  308SOL     OW 2820   9.422   5.653  14.431
  308SOL    HW1 2821   9.431   5.621  14.341
  308SOL    HW2 2822   9.436   5.576  14.486
  309SOL     OW 2823   8.492  14.770   9.330
  309SOL    HW1 2824   8.565  14.763   9.391
  309SOL    HW2 2825   8.456  14.681   9.325
  310SOL     OW 2826  14.686   2.519  10.118
  310SOL    HW1 2827  14.706   2.453  10.052
  310SOL    HW2 2828  14.754   2.585  10.107
  311SOL     OW 2829   3.593   4.181   7.227
  311SOL    HW1 2830   3.679   4.141   7.213
  311SOL    HW2 2831   3.548   4.120   7.286
  312SOL     OW 2832   6.230  10.203  14.785
  312SOL    HW1 2833   6.233  10.137  14.855
  312SOL    HW2 2834   6.294  10.269  14.811
  313SOL     OW 2835   3.905  13.174  11.398
  313SOL    HW1 2836   3.980  13.127  11.434
  313SOL    HW2 2837   3.829  13.128  11.433
  314SOL     OW 2838   4.027   5.789   1.267
  314SOL    HW1 2839   3.953   5.746   1.309
  314SOL    HW2 2840   4.031   5.875   1.307
  315SOL     OW 2841   7.114  12.558  11.879
  315SOL    HW1 2842   7.092  12.539  11.970
  315SOL    HW2 2843   7.032  12.543  11.831
  316SOL     OW 2844   4.720   1.375  14.309
  316SOL    HW1 2845   4.773   1.303  14.274
  316SOL    HW2 2846   4.650   1.387  14.245
  317SOL     OW 2847   3.377  10.537  10.956
  317SOL    HW1 2848   3.396  10.505  11.044
  317SOL    HW2 2849   3.393  10.462  10.899
  318SOL     OW 2850   2.375   2.792   6.008
  318SOL    HW1 2851   2.408   2.709   5.974
  318SOL    HW2 2852   2.371   2.779   6.103
  319SOL     OW 2853   2.725   9.372  11.328
  319SOL    HW1 2854   2.721   9.381  11.233
  319SOL    HW2 2855   2.668   9.442  11.361
  320SOL     OW 2856   4.417   9.428   9.626
  320SOL    HW1 2857   4.490   9.370   9.647
  320SOL    HW2 2858   4.409   9.424   9.531
  321SOL     OW 2859   2.321   2.422   9.915
  321SOL    HW1 2860   2.284   2.346   9.870
  321SOL    HW2 2861   2.398   2.388   9.960
  322SOL     OW 2862  14.265  12.202   7.033
  322SOL    HW1 2863  14.297  12.227   6.947
  322SOL    HW2 2864  14.194  12.141   7.016
  323SOL     OW 2865   1.685  11.902   1.255
  323SOL    HW1 2866   1.745  11.932   1.187
  323SOL    HW2 2867   1.603  11.947   1.235
  324SOL     OW 2868  14.746  11.195  14.444
  324SOL    HW1 2869  14.819  11.215  14.502
  324SOL    HW2 2870  14.680  11.261  14.465
  325SOL     OW 2871  11.185   4.562   2.593
  325SOL    HW1 2872  11.191   4.466   2.588
  325SOL    HW2 2873  11.269   4.592   2.558
  326SOL     OW 2874   6.969   9.868  14.350
  326SOL    HW1 2875   7.047   9.885  14.404
  326SOL    HW2 2876   6.901   9.847  14.413
  327SOL     OW 2877  10.478   7.057   9.401
  327SOL    HW1 2878  10.457   6.973   9.360
  327SOL    HW2 2879  10.393   7.101   9.409
  328SOL     OW 2880   0.454   6.127   2.371
  328SOL    HW1 2881   0.475   6.157   2.460
  328SOL    HW2 2882   0.405   6.200   2.332
  329SOL     OW 2883   2.219   0.303   3.126
  329SOL    HW1 2884   2.165   0.325   3.050
  329SOL    HW2 2885   2.238   0.210   3.115
  330SOL     OW 2886  10.587  10.785  10.327
  330SOL    HW1 2887  10.529  10.726  10.279
  330SOL    HW2 2888  10.672  10.740  10.328
  331SOL     OW 2889   5.223  12.862   8.694
  331SOL    HW1 2890   5.138  12.905   8.699
  331SOL    HW2 2891   5.210  12.789   8.634
  332SOL     OW 2892  11.461  10.828   0.150
  332SOL    HW1 2893  11.501  10.811   0.236
  332SOL    HW2 2894  11.388  10.766   0.145
  333SOL     OW 2895  10.560   9.890   2.431
  333SOL    HW1 2896  10.634   9.884   2.491
  333SOL    HW2 2897  10.582   9.962   2.372
  334SOL     OW 2898   6.884   5.031   0.050
  334SOL    HW1 2899   6.928   5.105   0.093
  334SOL    HW2 2900   6.800   5.025   0.095
  335SOL     OW 2901   0.589   4.881  12.073
  335SOL    HW1 2902   0.581   4.811  12.137
  335SOL    HW2 2903   0.520   4.864  12.009
  336SOL     OW 2904   5.815  11.896   6.108
  336SOL    HW1 2905   5.734  11.882   6.155
  336SOL    HW2 2906   5.815  11.830   6.038
  337SOL     OW 2907  14.051   4.797   7.397
  337SOL    HW1 2908  13.967   4.834   7.424
  337SOL    HW2 2909  14.040   4.702   7.408
  338SOL     OW 2910  13.139   9.582   2.870
  338SOL    HW1 2911  13.199   9.540   2.808
  338SOL    HW2 2912  13.134   9.673   2.840
  339SOL     OW 2913   0.413  10.019   1.581
  339SOL    HW1 2914   0.478  10.060   1.524
  339SOL    HW2 2915   0.406   9.929   1.549
  340SOL     OW 2916   1.807  14.576   2.313
  340SOL    HW1 2917   1.886  14.568   2.366
  340SOL    HW2 2918   1.785  14.486   2.290
  341SOL     OW 2919   2.391  12.759  13.854
  341SOL    HW1 2920   2.479  12.724  13.868
  341SOL    HW2 2921   2.344  12.688  13.810
  342SOL     OW 2922   9.996   1.455  11.404
  342SOL    HW1 2923  10.014   1.400  11.481
  342SOL    HW2 2924   9.984   1.543  11.440
  343SOL     OW 2925  12.506  11.606   2.105
  343SOL    HW1 2926  12.581  11.665   2.096
  343SOL    HW2 2927  12.541  11.531   2.153
  344SOL     OW 2928   2.304  12.020   2.339
  344SOL    HW1 2929   2.297  11.975   2.423
  344SOL    HW2 2930   2.375  12.083   2.352
  345SOL     OW 2931   7.285  11.455  14.234
  345SOL    HW1 2932   7.370  11.484  14.264
  345SOL    HW2 2933   7.272  11.369  14.274
  346SOL     OW 2934   9.208   1.824   7.062
  346SOL    HW1 2935   9.161   1.845   7.143
  346SOL    HW2 2936   9.205   1.906   7.012
  347SOL     OW 2937   2.847  13.184  13.843
  347SOL    HW1 2938   2.918  13.214  13.785
  347SOL    HW2 2939   2.778  13.155  13.783
  348SOL     OW 2940   5.826   7.578   2.965
  348SOL    HW1 2941   5.857   7.505   2.912
  348SOL    HW2 2942   5.835   7.548   3.056
  349SOL     OW 2943   1.990   4.281   7.542
  349SOL    HW1 2944   1.998   4.370   7.508
  349SOL    HW2 2945   1.985   4.293   7.637
  350SOL     OW 2946   6.618   5.575   2.597
  350SOL    HW1 2947   6.713   5.558   2.599
  350SOL    HW2 2948   6.611   5.666   2.569
  351SOL     OW 2949  13.765   3.768   2.823
  351SOL    HW1 2950  13.794   3.705   2.757
  351SOL    HW2 2951  13.770   3.853   2.779
  352SOL     OW 2952   3.684   7.583   7.003
  352SOL    HW1 2953   3.640   7.656   7.047
  352SOL    HW2 2954   3.682   7.511   7.067
  353SOL     OW 2955   9.529   6.104   1.494
  353SOL    HW1 2956   9.543   6.193   1.526
  353SOL    HW2 2957   9.606   6.085   1.440
  354SOL     OW 2958  14.786  10.738   0.282
  354SOL    HW1 2959  14.711  10.746   0.222
  354SOL    HW2 2960  14.860  10.718   0.224
  355SOL     OW 2961  13.306   8.472  12.393
  355SOL    HW1 2962  13.248   8.452  12.467
  355SOL    HW2 2963  13.252   8.456  12.316
  356SOL     OW 2964  11.371  10.548   5.031
  356SOL    HW1 2965  11.356  10.573   5.122
  356SOL    HW2 2966  11.442  10.483   5.035
  357SOL     OW 2967   9.893  12.392  12.291
  357SOL    HW1 2968   9.952  12.328  12.250
  357SOL    HW2 2969   9.838  12.423  12.219
  358SOL     OW 2970   7.303  14.316   4.460
  358SOL    HW1 2971   7.353  14.279   4.387
  358SOL    HW2 2972   7.364  14.377   4.502
  359SOL     OW 2973   2.983   1.889  13.165
  359SOL    HW1 2974   2.936   1.817  13.207
  359SOL    HW2 2975   2.969   1.874  13.071
  360SOL     OW 2976  14.882   2.626   4.832
  360SOL    HW1 2977  14.830   2.634   4.912
  360SOL    HW2 2978  14.818   2.636   4.761
  361SOL     OW 2979   0.444   4.453   1.451
  361SOL    HW1 2980   0.537   4.459   1.474
  361SOL    HW2 2981   0.421   4.361   1.468
  362SOL     OW 2982   7.431   7.431   2.440
  362SOL    HW1 2983   7.345   7.455   2.406
  362SOL    HW2 2984   7.463   7.511   2.482
  363SOL     OW 2985   9.657   0.434   5.658
  363SOL    HW1 2986   9.613   0.354   5.630
  363SOL    HW2 2987   9.715   0.407   5.729
  364SOL     OW 2988   2.433  14.571   3.435
  364SOL    HW1 2989   2.353  14.612   3.466
  364SOL    HW2 2990   2.405  14.486   3.401
  365SOL     OW 2991  13.052   3.058   4.162
  365SOL    HW1 2992  13.063   3.006   4.242
  365SOL    HW2 2993  13.141   3.085   4.139
  366SOL     OW 2994   0.307  12.841   1.712
  366SOL    HW1 2995   0.228  12.821   1.762
  366SOL    HW2 2996   0.379  12.815   1.769
  367SOL     OW 2997   5.265  14.826   7.325
  367SOL    HW1 2998   5.248  14.746   7.274
  367SOL    HW2 2999   5.291   0.009   7.260
  368SOL     OW 3000   3.570  14.792  10.405
  368SOL    HW1 3001   3.644  14.817  10.350
  368SOL    HW2 3002   3.610  14.766  10.488
  369SOL     OW 3003   2.226   2.770   5.176
  369SOL    HW1 3004   2.191   2.681   5.177
  369SOL    HW2 3005   2.154   2.824   5.143
  370SOL     OW 3006  14.580   2.513   1.240
  370SOL    HW1 3007  14.571   2.508   1.335
  370SOL    HW2 3008  14.673   2.493   1.224
  371SOL     OW 3009   1.767   0.610   7.019
  371SOL    HW1 3010   1.804   0.570   6.940
  371SOL    HW2 3011   1.780   0.545   7.087
  372SOL     OW 3012  14.177   5.747   1.529
  372SOL    HW1 3013  14.083   5.751   1.511
  372SOL    HW2 3014  14.184   5.698   1.611
  373SOL     OW 3015  11.801   8.635  12.102
  373SOL    HW1 3016  11.802   8.560  12.161
  373SOL    HW2 3017  11.712   8.637  12.067
  374SOL     OW 3018   9.921   4.608  11.692
  374SOL    HW1 3019   9.856   4.625  11.759
  374SOL    HW2 3020   9.894   4.661  11.617
  375SOL     OW 3021   3.654  11.441   0.677
  375SOL    HW1 3022   3.581  11.383   0.699
  375SOL    HW2 3023   3.722  11.382   0.646
  376SOL     OW 3024   8.059   8.864  14.053
  376SOL    HW1 3025   8.084   8.775  14.079
  376SOL    HW2 3026   8.142   8.908  14.036
  377SOL     OW 3027   9.138   9.963   7.458
  377SOL    HW1 3028   9.138   9.923   7.545
  377SOL    HW2 3029   9.231   9.967   7.434
  378SOL     OW 3030   0.779  10.786   6.792
  378SOL    HW1 3031   0.799  10.724   6.723
  378SOL    HW2 3032   0.793  10.738   6.873
  379SOL     OW 3033   2.422   8.038  14.227
  379SOL    HW1 3034   2.456   8.016  14.314
  379SOL    HW2 3035   2.427   7.955  14.178
  380SOL     OW 3036   4.136   3.939   2.603
  380SOL    HW1 3037   4.051   3.961   2.565
  380SOL    HW2 3038   4.167   4.021   2.641
  381SOL     OW 3039   5.312  12.229   4.357
  381SOL    HW1 3040   5.229  12.186   4.337
  381SOL    HW2 3041   5.334  12.198   4.445
  382SOL     OW 3042   9.374   0.522   6.962
  382SOL    HW1 3043   9.370   0.618   6.957
  382SOL    HW2 3044   9.426   0.496   6.886
  383SOL     OW 3045  14.788   7.895   8.747
  383SOL    HW1 3046  14.827   7.918   8.662
  383SOL    HW2 3047  14.706   7.852   8.726
  384SOL     OW 3048   9.552   3.952   4.945
  384SOL    HW1 3049   9.552   3.860   4.971
  384SOL    HW2 3050   9.484   3.992   4.999
  385SOL     OW 3051  14.193   8.657  10.394
  385SOL    HW1 3052  14.098   8.666  10.390
  385SOL    HW2 3053  14.207   8.567  10.423
  386SOL     OW 3054   8.939   3.647  10.463
  386SOL    HW1 3055   8.939   3.690  10.549
  386SOL    HW2 3056   8.862   3.682  10.418
  387SOL     OW 3057  11.372   6.775   7.948
  387SOL    HW1 3058  11.442   6.723   7.985
  387SOL    HW2 3059  11.346   6.834   8.019
  388SOL     OW 3060   6.344   3.378   4.568
  388SOL    HW1 3061   6.396   3.397   4.646
  388SOL    HW2 3062   6.270   3.439   4.574
  389SOL     OW 3063   0.017   6.361  14.265
  389SOL    HW1 3064   0.005   6.319  14.351
  389SOL    HW2 3065  14.841   6.312  14.207
  390SOL     OW 3066   2.272   7.921  11.719
  390SOL    HW1 3067   2.359   7.961  11.717
  390SOL    HW2 3068   2.230   7.959  11.796
  391SOL     OW 3069   8.741   0.772   8.327
  391SOL    HW1 3070   8.816   0.719   8.353
  391SOL    HW2 3071   8.777   0.859   8.312
  392SOL     OW 3072   8.719   5.413  12.406
  392SOL    HW1 3073   8.646   5.424  12.345
  392SOL    HW2 3074   8.790   5.463  12.367
  393SOL     OW 3075   9.681   1.096   6.301
  393SOL    HW1 3076   9.594   1.125   6.329
  393SOL    HW2 3077   9.721   1.175   6.263
  394SOL     OW 3078   7.610  14.327  10.749
  394SOL    HW1 3079   7.572  14.415  10.741
  394SOL    HW2 3080   7.677  14.323  10.681
  395SOL     OW 3081   7.429  11.948   3.001
  395SOL    HW1 3082   7.468  11.877   2.951
  395SOL    HW2 3083   7.490  11.962   3.074
  396SOL     OW 3084  13.903  13.825   2.106
  396SOL    HW1 3085  13.861  13.866   2.182
  396SOL    HW2 3086  13.830  13.797   2.050
  397SOL     OW 3087   1.607   6.364  14.700
  397SOL    HW1 3088   1.594   6.438  14.642
  397SOL    HW2 3089   1.563   6.291  14.657
  398SOL     OW 3090   9.966   7.426   2.605
  398SOL    HW1 3091   9.898   7.428   2.538
  398SOL    HW2 3092  10.003   7.515   2.604
  399SOL     OW 3093  10.251  12.436   6.452
  399SOL    HW1 3094  10.157  12.424   6.440
  399SOL    HW2 3095  10.291  12.390   6.378
  400SOL     OW 3096   8.953   5.083  11.399
  400SOL    HW1 3097   9.047   5.071  11.384
  400SOL    HW2 3098   8.948   5.147  11.470
  401SOL     OW 3099   3.755   3.128   7.072
  401SOL    HW1 3100   3.786   3.084   7.151
  401SOL    HW2 3101   3.833   3.173   7.038
  402SOL     OW 3102   5.886  10.762  13.106
  402SOL    HW1 3103   5.883  10.689  13.168
  402SOL    HW2 3104   5.820  10.823  13.138
  403SOL     OW 3105   2.680   4.012   4.036
  403SOL    HW1 3106   2.763   4.030   4.081
  403SOL    HW2 3107   2.623   4.085   4.061
  404SOL     OW 3108   8.972  13.225   0.540
  404SOL    HW1 3109   8.979  13.184   0.454
  404SOL    HW2 3110   8.937  13.312   0.522
  405SOL     OW 3111   1.297   4.067   9.441
  405SOL    HW1 3112   1.388   4.096   9.451
  405SOL    HW2 3113   1.290   3.989   9.496
  406SOL     OW 3114  13.009   9.205  10.225
  406SOL    HW1 3115  13.054   9.182  10.143
  406SOL    HW2 3116  13.005   9.123  10.274
  407SOL     OW 3117  13.278   0.480   3.914
  407SOL    HW1 3118  13.276   0.457   4.007
  407SOL    HW2 3119  13.311   0.570   3.913
  408SOL     OW 3120   6.110   7.217   6.177
  408SOL    HW1 3121   6.119   7.245   6.086
  408SOL    HW2 3122   6.152   7.131   6.179
  409SOL     OW 3123   1.376   8.373   9.479
  409SOL    HW1 3124   1.295   8.332   9.448
  409SOL    HW2 3125   1.408   8.423   9.404
  410SOL     OW 3126   3.534  13.161   2.480
  410SOL    HW1 3127   3.528  13.238   2.537
  410SOL    HW2 3128   3.521  13.195   2.392
  411SOL     OW 3129  14.349  14.043  10.946
  411SOL    HW1 3130  14.352  13.972  10.882
  411SOL    HW2 3131  14.434  14.085  10.940
  412SOL     OW 3132  12.175  11.769  11.248
  412SOL    HW1 3133  12.185  11.716  11.327
  412SOL    HW2 3134  12.119  11.842  11.275
  413SOL     OW 3135   6.100   6.305  10.091
  413SOL    HW1 3136   6.191   6.306  10.123
  413SOL    HW2 3137   6.102   6.244  10.017
  414SOL     OW 3138   5.301   2.802   2.143
  414SOL    HW1 3139   5.371   2.761   2.092
  414SOL    HW2 3140   5.324   2.784   2.234
  415SOL     OW 3141   4.332  13.558   1.441
  415SOL    HW1 3142   4.357  13.602   1.359
  415SOL    HW2 3143   4.365  13.615   1.510
  416SOL     OW 3144   1.201   8.052  10.805
  416SOL    HW1 3145   1.160   7.970  10.835
  416SOL    HW2 3146   1.286   8.054  10.848
  417SOL     OW 3147   5.099   1.865   7.115
  417SOL    HW1 3148   5.031   1.922   7.149
  417SOL    HW2 3149   5.056   1.817   7.043
  418SOL     OW 3150  13.585   8.952   2.064
  418SOL    HW1 3151  13.635   8.931   2.143
  418SOL    HW2 3152  13.595   8.875   2.008
  419SOL     OW 3153  10.368   3.060  13.795
  419SOL    HW1 3154  10.277   3.029  13.788
  419SOL    HW2 3155  10.416   2.984  13.827
  420SOL     OW 3156   8.443   3.678   6.809
  420SOL    HW1 3157   8.509   3.613   6.785
  420SOL    HW2 3158   8.464   3.754   6.756
  421SOL     OW 3159   6.216  14.196   7.092
  421SOL    HW1 3160   6.171  14.216   7.174
  421SOL    HW2 3161   6.295  14.250   7.094
  422SOL     OW 3162   6.504  12.108  11.238
  422SOL    HW1 3163   6.485  12.196  11.272
  422SOL    HW2 3164   6.532  12.058  11.315
  423SOL     OW 3165   9.133   1.172   4.849
  423SOL    HW1 3166   9.185   1.096   4.877
  423SOL    HW2 3167   9.167   1.193   4.762
  424SOL     OW 3168  12.891   7.719   6.277
  424SOL    HW1 3169  12.879   7.763   6.361
  424SOL    HW2 3170  12.899   7.626   6.299
  425SOL     OW 3171  10.463  11.315  13.056
  425SOL    HW1 3172  10.530  11.250  13.033
  425SOL    HW2 3173  10.509  11.399  13.050
  426SOL     OW 3174   1.697   3.861   9.989
  426SOL    HW1 3175   1.707   3.809   9.910
  426SOL    HW2 3176   1.718   3.951   9.962
  427SOL     OW 3177  11.866   4.779   1.880
  427SOL    HW1 3178  11.924   4.828   1.938
  427SOL    HW2 3179  11.778   4.813   1.899
  428SOL     OW 3180   5.061  13.739   1.173
  428SOL    HW1 3181   5.075  13.677   1.101
  428SOL    HW2 3182   5.011  13.690   1.238
  429SOL     OW 3183   0.203  10.545   3.217
  429SOL    HW1 3184   0.273  10.487   3.247
  429SOL    HW2 3185   0.122  10.501   3.241
  430SOL     OW 3186   0.569   6.026   8.467
  430SOL    HW1 3187   0.655   5.989   8.484
  430SOL    HW2 3188   0.529   6.034   8.553
  431SOL     OW 3189  11.390  10.077   1.670
  431SOL    HW1 3190  11.381  10.172   1.656
  431SOL    HW2 3191  11.341  10.060   1.750
  432SOL     OW 3192   6.677   9.233  13.725
  432SOL    HW1 3193   6.719   9.319  13.720
  432SOL    HW2 3194   6.739   9.179  13.773
  433SOL     OW 3195   0.077   0.223  11.897
  433SOL    HW1 3196   0.145   0.283  11.927
  433SOL    HW2 3197   0.059   0.167  11.973
  434SOL     OW 3198   8.818  10.247  14.123
  434SOL    HW1 3199   8.907  10.279  14.115
  434SOL    HW2 3200   8.763  10.325  14.123
  435SOL     OW 3201   3.369   4.198   8.639
  435SOL    HW1 3202   3.289   4.207   8.690
  435SOL    HW2 3203   3.342   4.151   8.560
  436SOL     OW 3204   9.254   4.365   3.878
  436SOL    HW1 3205   9.319   4.296   3.863
  436SOL    HW2 3206   9.172   4.328   3.846
  437SOL     OW 3207  13.173   2.052  10.657
  437SOL    HW1 3208  13.171   1.956  10.654
  437SOL    HW2 3209  13.166   2.074  10.750
  438SOL     OW 3210   4.579  14.625  14.094
  438SOL    HW1 3211   4.658  14.605  14.045
  438SOL    HW2 3212   4.511  14.634  14.027
  439SOL     OW 3213   2.661   8.461   6.326
  439SOL    HW1 3214   2.645   8.545   6.284
  439SOL    HW2 3215   2.649   8.397   6.256
  440SOL     OW 3216   6.288   9.810   4.408
  440SOL    HW1 3217   6.354   9.820   4.476
  440SOL    HW2 3218   6.205   9.813   4.455
  441SOL     OW 3219   3.347   3.480   7.744
  441SOL    HW1 3220   3.341   3.409   7.679
  441SOL    HW2 3221   3.417   3.537   7.712
  442SOL     OW 3222   2.935   3.440  13.537
  442SOL    HW1 3223   2.885   3.360  13.520
  442SOL    HW2 3224   2.954   3.437  13.631
  443SOL     OW 3225   9.176   9.772  14.538
  443SOL    HW1 3226   9.139   9.737  14.457
  443SOL    HW2 3227   9.164   9.867  14.531
  444SOL     OW 3228  13.993   7.775   2.042
  444SOL    HW1 3229  13.991   7.829   1.963
  444SOL    HW2 3230  14.067   7.809   2.092
  445SOL     OW 3231   6.993   1.630   2.326
  445SOL    HW1 3232   7.009   1.590   2.412
  445SOL    HW2 3233   7.040   1.573   2.265
  446SOL     OW 3234   7.940   0.659   2.111
  446SOL    HW1 3235   7.943   0.574   2.155
  446SOL    HW2 3236   8.031   0.676   2.087
  447SOL     OW 3237   8.763   0.449   9.056
  447SOL    HW1 3238   8.689   0.480   9.109
  447SOL    HW2 3239   8.761   0.505   8.978
  448SOL     OW 3240   3.270   7.753   0.528
  448SOL    HW1 3241   3.248   7.718   0.441
  448SOL    HW2 3242   3.332   7.824   0.510
  449SOL     OW 3243   4.891   8.839   6.037
  449SOL    HW1 3244   4.917   8.906   6.101
  449SOL    HW2 3245   4.963   8.776   6.038
  450SOL     OW 3246   2.907  13.297  14.484
  450SOL    HW1 3247   2.956  13.333  14.558
  450SOL    HW2 3248   2.916  13.364  14.415
  451SOL     OW 3249   5.940  11.089   7.402
  451SOL    HW1 3250   5.889  11.156   7.448
  451SOL    HW2 3251   5.960  11.024   7.469
  452SOL     OW 3252   3.250   7.023   4.106
  452SOL    HW1 3253   3.324   6.965   4.125
  452SOL    HW2 3254   3.290   7.110   4.096
  453SOL     OW 3255  13.268  12.567   7.786
  453SOL    HW1 3256  13.296  12.494   7.732
  453SOL    HW2 3257  13.345  12.624   7.792
  454SOL     OW 3258  13.954   1.770   7.546
  454SOL    HW1 3259  13.883   1.834   7.540
  454SOL    HW2 3260  14.022   1.805   7.488
  455SOL     OW 3261   5.674  12.484   0.585
  455SOL    HW1 3262   5.621  12.427   0.641
  455SOL    HW2 3263   5.754  12.499   0.636
  456SOL     OW 3264   9.681  10.951   0.215
  456SOL    HW1 3265   9.710  10.861   0.197
  456SOL    HW2 3266   9.751  11.006   0.179
  457SOL     OW 3267   2.499   8.325   6.576
  457SOL    HW1 3268   2.556   8.390   6.534
  457SOL    HW2 3269   2.558   8.272   6.628
  458SOL     OW 3270   4.758   4.774   3.403
  458SOL    HW1 3271   4.783   4.744   3.491
  458SOL    HW2 3272   4.754   4.869   3.410
  459SOL     OW 3273   5.448  11.294   5.987
  459SOL    HW1 3274   5.526  11.243   6.008
  459SOL    HW2 3275   5.471  11.341   5.907
  460SOL     OW 3276  11.724   9.387   5.461
  460SOL    HW1 3277  11.815   9.401   5.487
  460SOL    HW2 3278  11.717   9.430   5.376
  461SOL     OW 3279  11.675   6.577  11.111
  461SOL    HW1 3280  11.688   6.663  11.152
  461SOL    HW2 3281  11.723   6.516  11.166
  462SOL     OW 3282   7.551   6.707  11.089
  462SOL    HW1 3283   7.615   6.675  11.153
  462SOL    HW2 3284   7.591   6.787  11.053
  463SOL     OW 3285   6.107   5.068   9.170
  463SOL    HW1 3286   6.048   5.065   9.095
  463SOL    HW2 3287   6.195   5.071   9.132
  464SOL     OW 3288   9.225   6.376   4.614
  464SOL    HW1 3289   9.219   6.295   4.665
  464SOL    HW2 3290   9.184   6.442   4.669
  465SOL     OW 3291   7.229  10.651  11.982
  465SOL    HW1 3292   7.250  10.637  12.074
  465SOL    HW2 3293   7.285  10.588  11.935
  466SOL     OW 3294  13.259  10.785  13.292
  466SOL    HW1 3295  13.240  10.733  13.215
  466SOL    HW2 3296  13.272  10.874  13.259
  467SOL     OW 3297   3.387  13.458  12.078
  467SOL    HW1 3298   3.328  13.405  12.132
  467SOL    HW2 3299   3.392  13.411  11.995
  468SOL     OW 3300  11.908   4.637   5.501
  468SOL    HW1 3301  11.836   4.577   5.518
  468SOL    HW2 3302  11.986   4.590   5.530
  469SOL     OW 3303   4.411   8.233   8.831
  469SOL    HW1 3304   4.458   8.305   8.788
  469SOL    HW2 3305   4.388   8.174   8.759
  470SOL     OW 3306  12.597  13.018   6.055
  470SOL    HW1 3307  12.581  12.935   6.100
  470SOL    HW2 3308  12.664  13.061   6.109
  471SOL     OW 3309  13.451  11.931   0.743
  471SOL    HW1 3310  13.512  11.858   0.742
  471SOL    HW2 3311  13.485  11.993   0.678
  472SOL     OW 3312   3.047   7.759   9.547
  472SOL    HW1 3313   3.020   7.679   9.592
  472SOL    HW2 3314   3.040   7.828   9.613
  473SOL     OW 3315   6.128  13.263   3.248
  473SOL    HW1 3316   6.177  13.301   3.175
  473SOL    HW2 3317   6.073  13.335   3.280
  474SOL     OW 3318   0.773   6.877  12.934
  474SOL    HW1 3319   0.717   6.886  13.010
  474SOL    HW2 3320   0.816   6.963  12.925
  475SOL     OW 3321  10.209   3.399   5.067
  475SOL    HW1 3322  10.247   3.479   5.104
  475SOL    HW2 3323  10.169   3.355   5.142
  476SOL     OW 3324  12.407   5.933   6.875
  476SOL    HW1 3325  12.494   5.972   6.864
  476SOL    HW2 3326  12.347   5.997   6.839
  477SOL     OW 3327   0.579   3.584   6.157
  477SOL    HW1 3328   0.650   3.618   6.102
  477SOL    HW2 3329   0.621   3.558   6.239
  478SOL     OW 3330   2.390   3.041   0.623
  478SOL    HW1 3331   2.323   3.103   0.650
  478SOL    HW2 3332   2.396   3.051   0.528
  479SOL     OW 3333  10.227   8.666   4.226
  479SOL    HW1 3334  10.309   8.705   4.197
  479SOL    HW2 3335  10.252   8.603   4.293
  480SOL     OW 3336   9.834  12.855   1.327
  480SOL    HW1 3337   9.786  12.796   1.385
  480SOL    HW2 3338   9.920  12.814   1.318
  481SOL     OW 3339   7.956   3.530   3.648
  481SOL    HW1 3340   7.941   3.502   3.557
  481SOL    HW2 3341   7.970   3.448   3.695
  482SOL     OW 3342  13.400   5.043   9.235
  482SOL    HW1 3343  13.356   4.987   9.299
  482SOL    HW2 3344  13.486   5.003   9.223
  483SOL     OW 3345  12.881  11.494   6.317
  483SOL    HW1 3346  12.859  11.450   6.399
  483SOL    HW2 3347  12.865  11.428   6.250
  484SOL     OW 3348   2.081   2.504   2.603
  484SOL    HW1 3349   2.062   2.563   2.530
  484SOL    HW2 3350   2.170   2.472   2.586
  485SOL     OW 3351   8.853   4.181   8.062
  485SOL    HW1 3352   8.921   4.169   8.129
  485SOL    HW2 3353   8.776   4.139   8.099
  486SOL     OW 3354  10.818   8.382   8.282
  486SOL    HW1 3355  10.816   8.301   8.332
  486SOL    HW2 3356  10.735   8.381   8.233
  487SOL     OW 3357   5.343   8.084   2.947
  487SOL    HW1 3358   5.274   8.061   2.885
  487SOL    HW2 3359   5.423   8.089   2.895
  488SOL     OW 3360   3.736   0.896   6.109
  488SOL    HW1 3361   3.693   0.955   6.047
  488SOL    HW2 3362   3.670   0.829   6.129
  489SOL     OW 3363  12.897   8.428   2.625
  489SOL    HW1 3364  12.874   8.375   2.549
  489SOL    HW2 3365  12.878   8.372   2.701
  490SOL     OW 3366   7.993   8.746   3.865
  490SOL    HW1 3367   7.998   8.670   3.806
  490SOL    HW2 3368   7.900   8.766   3.872
  491SOL     OW 3369   7.023  11.525   4.582
  491SOL    HW1 3370   6.999  11.456   4.644
  491SOL    HW2 3371   6.941  11.550   4.540
  492SOL     OW 3372   3.851   6.939   1.706
  492SOL    HW1 3373   3.895   7.009   1.657
  492SOL    HW2 3374   3.916   6.869   1.709
  493SOL     OW 3375   7.282   1.883   6.012
  493SOL    HW1 3376   7.288   1.976   6.036
  493SOL    HW2 3377   7.363   1.845   6.046
  494SOL     OW 3378   8.345  11.558   4.727
  494SOL    HW1 3379   8.281  11.488   4.714
  494SOL    HW2 3380   8.319  11.600   4.809
  495SOL     OW 3381   6.754   0.555  12.969
  495SOL    HW1 3382   6.739   0.544  13.063
  495SOL    HW2 3383   6.794   0.473  12.941
  496SOL     OW 3384   1.922  12.709  10.128
  496SOL    HW1 3385   1.890  12.774  10.065
  496SOL    HW2 3386   1.866  12.633  10.114
  497SOL     OW 3387  11.767   9.633  14.699
  497SOL    HW1 3388  11.754   9.726  14.716
  497SOL    HW2 3389  11.686   9.591  14.729
  498SOL     OW 3390   6.797   8.845   4.661
  498SOL    HW1 3391   6.753   8.796   4.591
  498SOL    HW2 3392   6.767   8.802   4.742
  499SOL     OW 3393   3.196  13.074   1.717
  499SOL    HW1 3394   3.279  13.114   1.694
  499SOL    HW2 3395   3.161  13.040   1.635
  500SOL     OW 3396   9.323   9.900   3.635
  500SOL    HW1 3397   9.405   9.910   3.683
  500SOL    HW2 3398   9.260   9.952   3.684
  501SOL     OW 3399   8.423   5.537  12.976
  501SOL    HW1 3400   8.378   5.619  12.954
  501SOL    HW2 3401   8.401   5.522  13.068
  502SOL     OW 3402   8.975   6.945   2.192
  502SOL    HW1 3403   8.934   6.864   2.160
  502SOL    HW2 3404   9.066   6.937   2.165
  503SOL     OW 3405  13.650   9.488   0.019
  503SOL    HW1 3406  13.687   9.433  14.832
  503SOL    HW2 3407  13.696   9.572   0.010
  504SOL     OW 3408   4.698  14.002   3.317
  504SOL    HW1 3409   4.606  13.999   3.288
  504SOL    HW2 3410   4.744  14.046   3.246
  505SOL     OW 3411   9.890   2.301   0.465
  505SOL    HW1 3412   9.953   2.361   0.425
  505SOL    HW2 3413   9.805   2.343   0.450
  506SOL     OW 3414  10.730  14.827  14.632
  506SOL    HW1 3415  10.787   0.015  14.598
  506SOL    HW2 3416  10.774  14.798  14.712
  507SOL     OW 3417   0.707   1.464   4.837
  507SOL    HW1 3418   0.756   1.537   4.874
  507SOL    HW2 3419   0.737   1.458   4.746
  508SOL     OW 3420   1.104  11.801  14.750
  508SOL    HW1 3421   1.058  11.885  14.750
  508SOL    HW2 3422   1.052  11.745  14.693
  509SOL     OW 3423  10.671  14.590   0.125
  509SOL    HW1 3424  10.575  14.590   0.120
  509SOL    HW2 3425  10.692  14.532   0.198
  510SOL     OW 3426  11.343   1.598   4.534
  510SOL    HW1 3427  11.320   1.618   4.624
  510SOL    HW2 3428  11.310   1.672   4.483
  511SOL     OW 3429   4.268   7.341   2.118
  511SOL    HW1 3430   4.191   7.387   2.151
  511SOL    HW2 3431   4.263   7.254   2.156
  512SOL     OW 3432   2.560  11.876  10.914
  512SOL    HW1 3433   2.596  11.831  10.991
  512SOL    HW2 3434   2.521  11.806  10.861
  513SOL     OW 3435   6.798   3.950   1.579
  513SOL    HW1 3436   6.731   3.997   1.629
  513SOL    HW2 3437   6.866   4.015   1.563
  514SOL     OW 3438  11.399   0.278   8.538
  514SOL    HW1 3439  11.459   0.282   8.612
  514SOL    HW2 3440  11.336   0.210   8.561
  515SOL     OW 3441  11.061  10.645   6.318
  515SOL    HW1 3442  10.978  10.670   6.357
  515SOL    HW2 3443  11.099  10.582   6.379
  516SOL     OW 3444   5.755  14.128   0.498
  516SOL    HW1 3445   5.808  14.062   0.543
  516SOL    HW2 3446   5.708  14.079   0.431
  517SOL     OW 3447   2.320   3.045   3.952
  517SOL    HW1 3448   2.402   3.014   3.990
  517SOL    HW2 3449   2.266   2.967   3.942
  518SOL     OW 3450   6.612   8.174  13.755
  518SOL    HW1 3451   6.597   8.243  13.820
  518SOL    HW2 3452   6.699   8.193  13.719
  519SOL     OW 3453   5.725   4.871  13.419
  519SOL    HW1 3454   5.800   4.828  13.378
  519SOL    HW2 3455   5.762   4.947  13.463
  520SOL     OW 3456   3.770   4.245   6.868
  520SOL    HW1 3457   3.748   4.336   6.887
  520SOL    HW2 3458   3.721   4.226   6.787
  521SOL     OW 3459   3.787  11.644   7.114
  521SOL    HW1 3460   3.758  11.710   7.051
  521SOL    HW2 3461   3.782  11.561   7.067
  522SOL     OW 3462  10.250   5.279   0.893
  522SOL    HW1 3463  10.343   5.287   0.917
  522SOL    HW2 3464  10.243   5.190   0.857
  523SOL     OW 3465  14.199   5.143  12.337
  523SOL    HW1 3466  14.286   5.104  12.339
  523SOL    HW2 3467  14.207   5.215  12.275
  524SOL     OW 3468   4.688  13.036   3.699
  524SOL    HW1 3469   4.690  13.105   3.633
  524SOL    HW2 3470   4.747  13.067   3.768
  525SOL     OW 3471   3.913  13.935  10.168
  525SOL    HW1 3472   3.956  13.851  10.154
  525SOL    HW2 3473   3.860  13.948  10.089
  526SOL     OW 3474   9.813   7.646   8.055
  526SOL    HW1 3475   9.728   7.617   8.087
  526SOL    HW2 3476   9.793   7.698   7.977
  527SOL     OW 3477   8.768   0.649   8.859
  527SOL    HW1 3478   8.772   0.582   8.790
  527SOL    HW2 3479   8.685   0.694   8.844
  528SOL     OW 3480   6.282   4.638   2.651
  528SOL    HW1 3481   6.243   4.624   2.565
  528SOL    HW2 3482   6.228   4.587   2.711
  529SOL     OW 3483   6.632   9.490   5.509
  529SOL    HW1 3484   6.690   9.424   5.548
  529SOL    HW2 3485   6.611   9.549   5.581
  530SOL     OW 3486  12.785  12.586   8.014
  530SOL    HW1 3487  12.746  12.562   7.930
  530SOL    HW2 3488  12.862  12.529   8.021
  531SOL     OW 3489   9.069   8.029  10.223
  531SOL    HW1 3490   9.163   8.022  10.236
  531SOL    HW2 3491   9.034   8.048  10.310
  532SOL     OW 3492   9.284   2.803  10.898
  532SOL    HW1 3493   9.352   2.801  10.965
  532SOL    HW2 3494   9.309   2.876  10.841
  533SOL     OW 3495   8.483   7.398   0.489
  533SOL    HW1 3496   8.499   7.491   0.504
  533SOL    HW2 3497   8.516   7.355   0.569
  534SOL     OW 3498   4.721   0.033   9.199
  534SOL    HW1 3499   4.737   0.092   9.273
  534SOL    HW2 3500   4.797   0.045   9.142
  535SOL     OW 3501   7.862   4.547   0.166
  535SOL    HW1 3502   7.856   4.509   0.079
  535SOL    HW2 3503   7.868   4.642   0.151
  536SOL     OW 3504  14.401   2.622   1.439
  536SOL    HW1 3505  14.406   2.713   1.411
  536SOL    HW2 3506  14.446   2.620   1.524
  537SOL     OW 3507   2.635  13.335  13.707
  537SOL    HW1 3508   2.727  13.350  13.685
  537SOL    HW2 3509   2.602  13.422  13.729
  538SOL     OW 3510   1.627   6.535   3.239
  538SOL    HW1 3511   1.582   6.552   3.156
  538SOL    HW2 3512   1.720   6.549   3.219
  539SOL     OW 3513   7.080  11.307   7.169
  539SOL    HW1 3514   7.006  11.266   7.214
  539SOL    HW2 3515   7.096  11.388   7.219
  540SOL     OW 3516  14.613   1.888  14.848
  540SOL    HW1 3517  14.595   1.905   0.058
  540SOL    HW2 3518  14.563   1.809  14.828
  541SOL     OW 3519  13.526   2.698   4.149
  541SOL    HW1 3520  13.447   2.735   4.108
  541SOL    HW2 3521  13.495   2.618   4.191
  542SOL     OW 3522  10.380   4.182   6.561
  542SOL    HW1 3523  10.425   4.266   6.553
  542SOL    HW2 3524  10.339   4.169   6.476
  543SOL     OW 3525   9.895  14.505   3.310
  543SOL    HW1 3526   9.799  14.500   3.310
  543SOL    HW2 3527   9.913  14.599   3.309
  544SOL     OW 3528   3.572   9.179   6.665
  544SOL    HW1 3529   3.624   9.101   6.647
  544SOL    HW2 3530   3.636   9.246   6.691
  545SOL     OW 3531   8.356   6.883   0.161
  545SOL    HW1 3532   8.281   6.843   0.117
  545SOL    HW2 3533   8.389   6.947   0.098
  546SOL     OW 3534   0.679   7.637   6.662
  546SOL    HW1 3535   0.669   7.632   6.757
  546SOL    HW2 3536   0.771   7.658   6.648
  547SOL     OW 3537   7.113  12.571  12.456
  547SOL    HW1 3538   7.136  12.662  12.439
  547SOL    HW2 3539   7.148  12.553  12.544
  548SOL     OW 3540   2.963  11.026  13.273
  548SOL    HW1 3541   2.909  11.101  13.299
  548SOL    HW2 3542   3.013  11.059  13.198
  549SOL     OW 3543  10.001   5.472   8.633
  549SOL    HW1 3544   9.979   5.422   8.554
  549SOL    HW2 3545  10.050   5.547   8.601
  550SOL     OW 3546   0.288  11.643  10.928
  550SOL    HW1 3547   0.335  11.675  11.005
  550SOL    HW2 3548   0.234  11.717  10.901
  551SOL     OW 3549  14.811   1.990  14.672
  551SOL    HW1 3550  14.750   1.947  14.732
  551SOL    HW2 3551  14.808   2.082  14.698
  552SOL     OW 3552  13.408   2.537   3.222
  552SOL    HW1 3553  13.352   2.487   3.281
  552SOL    HW2 3554  13.374   2.626   3.227
  553SOL     OW 3555  11.452   7.818  12.065
  553SOL    HW1 3556  11.406   7.735  12.048
  553SOL    HW2 3557  11.443   7.867  11.984
  554SOL     OW 3558  14.324   0.416   3.621
  554SOL    HW1 3559  14.384   0.473   3.669
  554SOL    HW2 3560  14.253   0.474   3.593
  555SOL     OW 3561   5.682  13.085   1.190
  555SOL    HW1 3562   5.638  13.163   1.223
  555SOL    HW2 3563   5.623  13.013   1.212
  556SOL     OW 3564   1.856   2.356  11.687
  556SOL    HW1 3565   1.925   2.292  11.675
  556SOL    HW2 3566   1.881   2.403  11.767
  557SOL     OW 3567  14.231  11.710   5.805
  557SOL    HW1 3568  14.140  11.739   5.796
  557SOL    HW2 3569  14.234  11.669   5.892
  558SOL     OW 3570   6.571   7.900   1.654
  558SOL    HW1 3571   6.611   7.972   1.704
  558SOL    HW2 3572   6.642   7.837   1.642
  559SOL     OW 3573  13.895   7.763  10.545
  559SOL    HW1 3574  13.921   7.743  10.635
  559SOL    HW2 3575  13.970   7.810  10.508
  560SOL     OW 3576   4.726   4.161  11.372
  560SOL    HW1 3577   4.682   4.185  11.290
  560SOL    HW2 3578   4.816   4.142  11.345
  561SOL     OW 3579   9.848  12.512  12.832
  561SOL    HW1 3580   9.814  12.498  12.920
  561SOL    HW2 3581   9.771  12.509  12.775
  562SOL     OW 3582  14.541   3.306  13.673
  562SOL    HW1 3583  14.474   3.238  13.675
  562SOL    HW2 3584  14.559   3.325  13.765
  563SOL     OW 3585   3.386   6.262  13.606
  563SOL    HW1 3586   3.449   6.285  13.675
  563SOL    HW2 3587   3.301   6.278  13.646
  564SOL     OW 3588   8.746  12.977   9.795
  564SOL    HW1 3589   8.774  13.069   9.792
  564SOL    HW2 3590   8.658  12.979   9.755
  565SOL     OW 3591   8.095   1.166   7.078
  565SOL    HW1 3592   8.139   1.143   7.160
  565SOL    HW2 3593   8.166   1.182   7.016
  566SOL     OW 3594   2.009   7.058   2.901
  566SOL    HW1 3595   2.088   7.108   2.918
  566SOL    HW2 3596   1.999   7.002   2.979
  567SOL     OW 3597  13.566   6.228  11.810
  567SOL    HW1 3598  13.625   6.169  11.763
  567SOL    HW2 3599  13.624   6.280  11.866
  568SOL     OW 3600  12.159   7.294   7.633
  568SOL    HW1 3601  12.157   7.253   7.720
  568SOL    HW2 3602  12.106   7.236   7.579
  569SOL     OW 3603   0.328   9.419   7.006
  569SOL    HW1 3604   0.299   9.349   6.947
  569SOL    HW2 3605   0.251   9.439   7.059
  570SOL     OW 3606   9.175   8.910   3.659
  570SOL    HW1 3607   9.083   8.887   3.646
  570SOL    HW2 3608   9.215   8.901   3.573
  571SOL     OW 3609  12.659   6.952   8.282
  571SOL    HW1 3610  12.663   6.930   8.375
  571SOL    HW2 3611  12.622   7.040   8.280
  572SOL     OW 3612  10.910  13.707   7.147
  572SOL    HW1 3613  10.818  13.684   7.131
  572SOL    HW2 3614  10.908  13.758   7.228
  573SOL     OW 3615   9.653   6.451  10.504
  573SOL    HW1 3616   9.718   6.417  10.564
  573SOL    HW2 3617   9.611   6.373  10.467
  574SOL     OW 3618  13.438   5.344  12.996
  574SOL    HW1 3619  13.518   5.360  12.946
  574SOL    HW2 3620  13.441   5.409  13.067
  575SOL     OW 3621  12.116   2.235   1.149
  575SOL    HW1 3622  12.070   2.319   1.148
  575SOL    HW2 3623  12.064   2.178   1.093
  576SOL     OW 3624  14.827   1.840   3.060
  576SOL    HW1 3625  14.807   1.821   3.151
  576SOL    HW2 3626  14.866   1.759   3.026
  577SOL     OW 3627   5.702  14.679   8.023
  577SOL    HW1 3628   5.702  14.627   7.943
  577SOL    HW2 3629   5.794  14.704   8.035
  578SOL     OW 3630   4.910   6.363   3.846
  578SOL    HW1 3631   4.905   6.376   3.751
  578SOL    HW2 3632   4.823   6.333   3.870
  579SOL     OW 3633  13.226   9.195   2.672
  579SOL    HW1 3634  13.167   9.119   2.671
  579SOL    HW2 3635  13.190   9.254   2.607
  580SOL     OW 3636  11.371   8.680  14.062
  580SOL    HW1 3637  11.417   8.652  13.983
  580SOL    HW2 3638  11.432   8.740  14.106
  581SOL     OW 3639   3.540   7.996  13.313
  581SOL    HW1 3640   3.626   7.974  13.349
  581SOL    HW2 3641   3.500   8.052  13.379
  582SOL     OW 3642  12.749   8.817  10.947
  582SOL    HW1 3643  12.787   8.749  11.003
  582SOL    HW2 3644  12.761   8.783  10.858
  583SOL     OW 3645   9.444   9.812  14.620
  583SOL    HW1 3646   9.366   9.773  14.581
  583SOL    HW2 3647   9.455   9.766  14.703
  584SOL     OW 3648   1.627   3.573   7.056
  584SOL    HW1 3649   1.671   3.566   7.140
  584SOL    HW2 3650   1.666   3.651   7.015
  585SOL     OW 3651   2.896   6.273  13.124
  585SOL    HW1 3652   2.935   6.343  13.071
  585SOL    HW2 3653   2.948   6.271  13.203
  586SOL     OW 3654  13.026   8.469   4.179
  586SOL    HW1 3655  13.021   8.472   4.275
  586SOL    HW2 3656  12.957   8.407   4.154
  587SOL     OW 3657   8.467   4.526   6.554
  587SOL    HW1 3658   8.471   4.608   6.504
  587SOL    HW2 3659   8.391   4.480   6.519
  588SOL     OW 3660   6.889   8.304  11.964
  588SOL    HW1 3661   6.906   8.345  12.049
  588SOL    HW2 3662   6.873   8.377  11.905
  589SOL     OW 3663  12.453   2.075   8.155
  589SOL    HW1 3664  12.503   2.039   8.228
  589SOL    HW2 3665  12.379   2.119   8.196
  590SOL     OW 3666   5.171   5.129   5.009
  590SOL    HW1 3667   5.203   5.213   4.975
  590SOL    HW2 3668   5.097   5.107   4.953
  591SOL     OW 3669   5.319  12.262   8.798
  591SOL    HW1 3670   5.284  12.247   8.711
  591SOL    HW2 3671   5.344  12.175   8.829
  592SOL     OW 3672   8.191   2.489   9.330
  592SOL    HW1 3673   8.225   2.578   9.332
  592SOL    HW2 3674   8.140   2.484   9.249
  593SOL     OW 3675   1.900   5.271   5.931
  593SOL    HW1 3676   1.880   5.272   6.024
  593SOL    HW2 3677   1.962   5.198   5.921
  594SOL     OW 3678   6.809  13.788   4.113
  594SOL    HW1 3679   6.789  13.799   4.019
  594SOL    HW2 3680   6.747  13.846   4.157
  595SOL     OW 3681   5.498   4.480   2.709
  595SOL    HW1 3682   5.577   4.512   2.753
  595SOL    HW2 3683   5.435   4.466   2.781
  596SOL     OW 3684   4.224   0.640  10.002
  596SOL    HW1 3685   4.315   0.663  10.021
  596SOL    HW2 3686   4.184   0.630  10.088
  597SOL     OW 3687  10.869   1.914   2.583
  597SOL    HW1 3688  10.780   1.941   2.560
  597SOL    HW2 3689  10.857   1.829   2.625
  598SOL     OW 3690  11.651  12.898   4.749
  598SOL    HW1 3691  11.593  12.841   4.799
  598SOL    HW2 3692  11.651  12.981   4.797
  599SOL     OW 3693   8.253  14.050   5.955
  599SOL    HW1 3694   8.332  14.004   5.927
  599SOL    HW2 3695   8.188  14.029   5.888
  600SOL     OW 3696  11.610  10.385   1.712
  600SOL    HW1 3697  11.698  10.384   1.676
  600SOL    HW2 3698  11.553  10.364   1.638
  601SOL     OW 3699   3.860   5.009   1.579
  601SOL    HW1 3700   3.823   5.071   1.643
  601SOL    HW2 3701   3.850   5.053   1.495
  602SOL     OW 3702   5.487   5.819   8.094
  602SOL    HW1 3703   5.533   5.770   8.026
  602SOL    HW2 3704   5.399   5.782   8.095
  603SOL     OW 3705   7.338  12.737   5.971
  603SOL    HW1 3706   7.267  12.801   5.969
  603SOL    HW2 3707   7.294  12.653   5.961
  604SOL     OW 3708   0.422   7.376   1.938
  604SOL    HW1 3709   0.398   7.341   1.853
  604SOL    HW2 3710   0.341   7.414   1.973
  605SOL     OW 3711   8.624   2.161   8.258
  605SOL    HW1 3712   8.657   2.239   8.213
  605SOL    HW2 3713   8.539   2.145   8.217
  606SOL     OW 3714   0.299  12.071   3.814
  606SOL    HW1 3715   0.215  12.116   3.817
  606SOL    HW2 3716   0.277  11.983   3.781
  607SOL     OW 3717  14.643   3.841   4.459
  607SOL    HW1 3718  14.620   3.841   4.366
  607SOL    HW2 3719  14.568   3.800   4.502
  608SOL     OW 3720   2.700   2.446   0.295
  608SOL    HW1 3721   2.618   2.404   0.273
  608SOL    HW2 3722   2.679   2.504   0.368
  609SOL     OW 3723   4.260  13.645   0.974
  609SOL    HW1 3724   4.298  13.560   0.951
  609SOL    HW2 3725   4.310  13.673   1.051
  610SOL     OW 3726   7.933  12.860  13.702
  610SOL    HW1 3727   8.000  12.803  13.666
  610SOL    HW2 3728   7.971  12.896  13.781
  611SOL     OW 3729  12.810   6.895   6.046
  611SOL    HW1 3730  12.824   6.883   5.952
  611SOL    HW2 3731  12.817   6.989   6.060
  612SOL     OW 3732   9.923   6.406   3.262
  612SOL    HW1 3733   9.962   6.488   3.230
  612SOL    HW2 3734   9.853   6.386   3.199
  613SOL     OW 3735   1.440  12.902   4.290
  613SOL    HW1 3736   1.361  12.850   4.303
  613SOL    HW2 3737   1.512  12.842   4.311
  614SOL     OW 3738   8.790   2.450  13.551
  614SOL    HW1 3739   8.876   2.483  13.574
  614SOL    HW2 3740   8.739   2.457  13.631
  615SOL     OW 3741  10.819   4.585  11.000
  615SOL    HW1 3742  10.798   4.678  10.996
  615SOL    HW2 3743  10.740   4.545  11.036
  616SOL     OW 3744   5.617   7.739   2.865
  616SOL    HW1 3745   5.676   7.664   2.876
  616SOL    HW2 3746   5.667   7.814   2.899
  617SOL     OW 3747   9.062   7.463  13.280
  617SOL    HW1 3748   9.042   7.509  13.362
  617SOL    HW2 3749   9.047   7.370  13.300
  618SOL     OW 3750  13.036  12.645   8.807
  618SOL    HW1 3751  13.004  12.562   8.844
  618SOL    HW2 3752  13.010  12.711   8.872
  619SOL     OW 3753   7.830   7.024  14.326
  619SOL    HW1 3754   7.915   7.035  14.370
  619SOL    HW2 3755   7.782   6.962  14.381
  620SOL     OW 3756  13.457  11.919   2.602
  620SOL    HW1 3757  13.502  11.977   2.540
  620SOL    HW2 3758  13.463  11.965   2.686
  621SOL     OW 3759   8.059   8.000   9.796
  621SOL    HW1 3760   8.078   8.070   9.734
  621SOL    HW2 3761   7.979   7.960   9.764
  622SOL     OW 3762   0.593   6.888   2.223
  622SOL    HW1 3763   0.535   6.885   2.147
  622SOL    HW2 3764   0.648   6.810   2.214
  623SOL     OW 3765  13.400   1.236  10.173
  623SOL    HW1 3766  13.444   1.185  10.241
  623SOL    HW2 3767  13.456   1.312  10.161
  624SOL     OW 3768   2.301  11.228   9.169
  624SOL    HW1 3769   2.342  11.303   9.213
  624SOL    HW2 3770   2.277  11.169   9.240
  625SOL     OW 3771  13.297  10.345   5.994
  625SOL    HW1 3772  13.260  10.428   5.965
  625SOL    HW2 3773  13.313  10.358   6.088
  626SOL     OW 3774  12.293   3.868  10.658
  626SOL    HW1 3775  12.204   3.890  10.632
  626SOL    HW2 3776  12.325   3.811  10.588
  627SOL     OW 3777   8.419   9.262   4.458
  627SOL    HW1 3778   8.369   9.343   4.469
  627SOL    HW2 3779   8.361   9.205   4.407
  628SOL     OW 3780   5.297   9.473   7.881
  628SOL    HW1 3781   5.336   9.524   7.952
  628SOL    HW2 3782   5.235   9.533   7.839
  629SOL     OW 3783   1.165   3.684  10.008
  629SOL    HW1 3784   1.249   3.719   9.978
  629SOL    HW2 3785   1.112   3.679   9.928
  630SOL     OW 3786   6.018   8.986   7.591
  630SOL    HW1 3787   5.975   9.044   7.528
  630SOL    HW2 3788   6.089   8.945   7.542
  631SOL     OW 3789  11.981  11.358   9.605
  631SOL    HW1 3790  11.885  11.358   9.613
  631SOL    HW2 3791  12.001  11.441   9.564
  632SOL     OW 3792   8.763   2.860   3.631
  632SOL    HW1 3793   8.669   2.858   3.648
  632SOL    HW2 3794   8.791   2.769   3.638
  633SOL     OW 3795  11.335  10.956   0.939
  633SOL    HW1 3796  11.299  10.954   1.027
  633SOL    HW2 3797  11.277  10.900   0.888
  634SOL     OW 3798   9.869   6.889  14.169
  634SOL    HW1 3799   9.806   6.872  14.239
  634SOL    HW2 3800   9.930   6.953  14.206
  635SOL     OW 3801   1.309  10.543   6.935
  635SOL    HW1 3802   1.284  10.454   6.962
  635SOL    HW2 3803   1.363  10.530   6.857
  636SOL     OW 3804  13.779   9.689   4.713
  636SOL    HW1 3805  13.702   9.639   4.686
  636SOL    HW2 3806  13.759   9.779   4.687
  637SOL     OW 3807   6.341   4.104   7.106
  637SOL    HW1 3808   6.336   4.115   7.201
  637SOL    HW2 3809   6.295   4.022   7.090
  638SOL     OW 3810  13.688   3.458   2.403
  638SOL    HW1 3811  13.600   3.433   2.432
  638SOL    HW2 3812  13.707   3.399   2.330
  639SOL     OW 3813   0.510   5.126   9.452
  639SOL    HW1 3814   0.523   5.032   9.437
  639SOL    HW2 3815   0.416   5.139   9.445
  640SOL     OW 3816   8.539  10.135  12.749
  640SOL    HW1 3817   8.450  10.099  12.756
  640SOL    HW2 3818   8.594  10.071  12.794
  641SOL     OW 3819   8.968   5.249   4.650
  641SOL    HW1 3820   8.976   5.342   4.675
  641SOL    HW2 3821   8.906   5.213   4.713
  642SOL     OW 3822   7.660   7.167  13.615
  642SOL    HW1 3823   7.607   7.096  13.651
  642SOL    HW2 3824   7.610   7.247  13.636
  643SOL     OW 3825  12.192   7.799   8.970
  643SOL    HW1 3826  12.253   7.726   8.967
  643SOL    HW2 3827  12.106   7.758   8.981
  644SOL     OW 3828   3.917   2.854   4.134
  644SOL    HW1 3829   3.974   2.830   4.061
  644SOL    HW2 3830   3.942   2.794   4.204
  645SOL     OW 3831   3.295   2.367  14.704
  645SOL    HW1 3832   3.309   2.275  14.680
  645SOL    HW2 3833   3.201   2.372  14.723
  646SOL     OW 3834  11.201   2.370  11.866
  646SOL    HW1 3835  11.253   2.329  11.934
  646SOL    HW2 3836  11.133   2.418  11.914
  647SOL     OW 3837   7.462   2.308   3.990
  647SOL    HW1 3838   7.372   2.332   3.969
  647SOL    HW2 3839   7.468   2.215   3.967
  648SOL     OW 3840   0.751   4.234  12.052
  648SOL    HW1 3841   0.685   4.232  12.121
  648SOL    HW2 3842   0.830   4.197  12.092
  649SOL     OW 3843  12.630   0.205  13.162
  649SOL    HW1 3844  12.646   0.130  13.220
  649SOL    HW2 3845  12.696   0.269  13.189
  650SOL     OW 3846   9.719   4.091   0.222
  650SOL    HW1 3847   9.693   4.157   0.285
  650SOL    HW2 3848   9.730   4.140   0.140
  651SOL     OW 3849  11.049  13.873   5.700
  651SOL    HW1 3850  11.113  13.807   5.726
  651SOL    HW2 3851  10.964  13.829   5.708
  652SOL     OW 3852  13.619   4.553  13.044
  652SOL    HW1 3853  13.556   4.492  13.006
  652SOL    HW2 3854  13.578   4.583  13.125
  653SOL     OW 3855   9.685  12.507   8.004
  653SOL    HW1 3856   9.756  12.443   8.008
  653SOL    HW2 3857   9.651  12.510   8.093
  654SOL     OW 3858   3.314   6.313   1.139
  654SOL    HW1 3859   3.235   6.367   1.145
  654SOL    HW2 3860   3.303   6.246   1.207
  655SOL     OW 3861   0.147   1.474   8.294
  655SOL    HW1 3862   0.114   1.489   8.383
  655SOL    HW2 3863   0.083   1.516   8.237
  656SOL     OW 3864  13.419   4.171   1.119
  656SOL    HW1 3865  13.390   4.080   1.107
  656SOL    HW2 3866  13.498   4.178   1.065
  657SOL     OW 3867  13.909  11.880   2.357
  657SOL    HW1 3868  13.885  11.859   2.267
  657SOL    HW2 3869  13.863  11.962   2.375
  658SOL     OW 3870  14.546   6.453   3.883
  658SOL    HW1 3871  14.635   6.487   3.888
  658SOL    HW2 3872  14.499   6.515   3.827
  659SOL     OW 3873   7.686  10.246   3.335
  659SOL    HW1 3874   7.758  10.278   3.389
  659SOL    HW2 3875   7.727  10.187   3.272
  660SOL     OW 3876  13.557  12.103   0.161
  660SOL    HW1 3877  13.578  12.036   0.226
  660SOL    HW2 3878  13.613  12.178   0.185
  661SOL     OW 3879   0.039   1.479   1.844
  661SOL    HW1 3880   0.035   1.571   1.869
  661SOL    HW2 3881  14.878   1.433   1.916
  662SOL     OW 3882   7.673   8.844   5.515
  662SOL    HW1 3883   7.699   8.936   5.503
  662SOL    HW2 3884   7.589   8.848   5.560
  663SOL     OW 3885   1.565  13.666   6.649
  663SOL    HW1 3886   1.637  13.610   6.623
  663SOL    HW2 3887   1.573  13.743   6.593
  664SOL     OW 3888  10.774  12.574   1.670
  664SOL    HW1 3889  10.752  12.633   1.599
  664SOL    HW2 3890  10.728  12.609   1.746
  665SOL     OW 3891  13.260   7.772   9.523
  665SOL    HW1 3892  13.167   7.753   9.508
  665SOL    HW2 3893  13.296   7.689   9.555
  666SOL     OW 3894   3.273  11.043  13.404
  666SOL    HW1 3895   3.263  11.127  13.447
  666SOL    HW2 3896   3.321  10.989  13.466
  667SOL     OW 3897  13.698   0.591   8.629
  667SOL    HW1 3898  13.608   0.624   8.618
  667SOL    HW2 3899  13.695   0.544   8.712
  668SOL     OW 3900   4.930  11.419  14.118
  668SOL    HW1 3901   5.018  11.454  14.107
  668SOL    HW2 3902   4.892  11.470  14.189
  669SOL     OW 3903   0.353   4.241   8.500
  669SOL    HW1 3904   0.443   4.237   8.533
  669SOL    HW2 3905   0.361   4.279   8.413
  670SOL     OW 3906  11.918   4.067   1.032
  670SOL    HW1 3907  11.828   4.098   1.021
  670SOL    HW2 3908  11.914   4.011   1.109
  671SOL     OW 3909   2.627   8.606   4.259
  671SOL    HW1 3910   2.659   8.686   4.218
  671SOL    HW2 3911   2.617   8.544   4.187
  672SOL     OW 3912   8.209  11.043   8.264
  672SOL    HW1 3913   8.139  11.108   8.265
  672SOL    HW2 3914   8.274  11.079   8.203
  673SOL     OW 3915   0.702  14.480   1.897
  673SOL    HW1 3916   0.785  14.488   1.945
  673SOL    HW2 3917   0.711  14.399   1.847
  674SOL     OW 3918   7.223   8.092   0.752
  674SOL    HW1 3919   7.261   8.180   0.749
  674SOL    HW2 3920   7.128   8.107   0.759
  675SOL     OW 3921  14.858   2.697  10.020
  675SOL    HW1 3922  14.842   2.686   9.927
  675SOL    HW2 3923  14.859   2.792  10.033
  676SOL     OW 3924  11.852   1.008   3.275
  676SOL    HW1 3925  11.898   1.036   3.354
  676SOL    HW2 3926  11.820   0.920   3.295
  677SOL     OW 3927   1.916   0.685  11.731
  677SOL    HW1 3928   2.003   0.725  11.729
  677SOL    HW2 3929   1.864   0.738  11.670
  678SOL     OW 3930  10.470   3.811  14.482
  678SOL    HW1 3931  10.423   3.734  14.515
  678SOL    HW2 3932  10.445   3.816  14.389
  679SOL     OW 3933  11.975   5.034  11.230
  679SOL    HW1 3934  11.993   4.942  11.209
  679SOL    HW2 3935  12.042   5.083  11.184
  680SOL     OW 3936   1.867   3.851  13.499
  680SOL    HW1 3937   1.874   3.945  13.515
  680SOL    HW2 3938   1.792   3.823  13.551
  681SOL     OW 3939  11.419  10.660   6.854
  681SOL    HW1 3940  11.487  10.668   6.921
  681SOL    HW2 3941  11.337  10.674   6.900
  682SOL     OW 3942  14.358   5.400  12.433
  682SOL    HW1 3943  14.451   5.393  12.456
  682SOL    HW2 3944  14.312   5.364  12.509
  683SOL     OW 3945   9.262   5.918   8.729
  683SOL    HW1 3946   9.215   5.899   8.810
  683SOL    HW2 3947   9.193   5.941   8.667
  684SOL     OW 3948   9.872  11.164   5.069
  684SOL    HW1 3949   9.960  11.164   5.106
  684SOL    HW2 3950   9.859  11.253   5.037
  685SOL     OW 3951  13.191  13.445  14.028
  685SOL    HW1 3952  13.210  13.528  14.071
  685SOL    HW2 3953  13.265  13.431  13.969
  686SOL     OW 3954   8.200  10.832   8.855
  686SOL    HW1 3955   8.182  10.893   8.783
  686SOL    HW2 3956   8.253  10.883   8.916
  687SOL     OW 3957   5.421   2.274  11.587
  687SOL    HW1 3958   5.448   2.352  11.538
  687SOL    HW2 3959   5.424   2.302  11.679
  688SOL     OW 3960   0.502   9.984   2.737
  688SOL    HW1 3961   0.446   9.972   2.660
  688SOL    HW2 3962   0.513  10.078   2.745
  689SOL     OW 3963   3.380   7.179  13.518
  689SOL    HW1 3964   3.450   7.240  13.540
  689SOL    HW2 3965   3.405   7.145  13.432
  690SOL     OW 3966   5.895   0.120   3.254
  690SOL    HW1 3967   5.810   0.096   3.290
  690SOL    HW2 3968   5.958   0.095   3.321
  691SOL     OW 3969   4.798   2.494   7.936
  691SOL    HW1 3970   4.883   2.492   7.891
  691SOL    HW2 3971   4.817   2.464   8.025
  692SOL     OW 3972   0.324   8.620   6.525
  692SOL    HW1 3973   0.341   8.598   6.617
  692SOL    HW2 3974   0.239   8.581   6.506
  693SOL     OW 3975   6.326   0.014   3.167
  693SOL    HW1 3976   6.256  14.847   3.126
  693SOL    HW2 3977   6.391   0.027   3.098
  694SOL     OW 3978   8.127   2.616   8.577
  694SOL    HW1 3979   8.068   2.676   8.531
  694SOL    HW2 3980   8.086   2.602   8.662
  695SOL     OW 3981   2.506   6.288   6.069
  695SOL    HW1 3982   2.478   6.232   5.997
  695SOL    HW2 3983   2.547   6.229   6.132
  696SOL     OW 3984   8.129  12.319   2.911
  696SOL    HW1 3985   8.060  12.384   2.913
  696SOL    HW2 3986   8.210  12.370   2.915
  697SOL     OW 3987   9.922  10.936  13.399
  697SOL    HW1 3988   9.955  10.981  13.322
  697SOL    HW2 3989   9.909  10.845  13.371
  698SOL     OW 3990   0.790  11.311   6.696
  698SOL    HW1 3991   0.839  11.390   6.671
  698SOL    HW2 3992   0.797  11.308   6.792
  699SOL     OW 3993   0.238   9.801  10.042
  699SOL    HW1 3994   0.149   9.767  10.055
  699SOL    HW2 3995   0.231   9.894  10.062
  700SOL     OW 3996  13.498   7.958   6.686
  700SOL    HW1 3997  13.502   7.912   6.770
  700SOL    HW2 3998  13.585   7.998   6.677
  701SOL     OW 3999   9.093   5.975   0.427
  701SOL    HW1 4000   9.137   5.941   0.505
  701SOL    HW2 4001   9.005   5.937   0.431
  702SOL     OW 4002   7.834   9.198   6.887
  702SOL    HW1 4003   7.819   9.190   6.793
  702SOL    HW2 4004   7.871   9.285   6.898
  703SOL     OW 4005   3.429   1.229  10.852
  703SOL    HW1 4006   3.380   1.153  10.882
  703SOL    HW2 4007   3.488   1.194  10.785
  704SOL     OW 4008  12.952  14.448   3.807
  704SOL    HW1 4009  12.927  14.356   3.800
  704SOL    HW2 4010  13.045  14.446   3.826
  705SOL     OW 4011   2.119   9.577  13.478
  705SOL    HW1 4012   2.129   9.484  13.499
  705SOL    HW2 4013   2.104   9.579  13.383
  706SOL     OW 4014  13.860  13.356   6.906
  706SOL    HW1 4015  13.933  13.341   6.845
  706SOL    HW2 4016  13.809  13.426   6.865
  707SOL     OW 4017   5.477  12.837   1.952
  707SOL    HW1 4018   5.500  12.930   1.943
  707SOL    HW2 4019   5.394  12.838   1.999
  708SOL     OW 4020  13.809   4.238  13.653
  708SOL    HW1 4021  13.794   4.156  13.606
  708SOL    HW2 4022  13.866   4.213  13.727
  709SOL     OW 4023   0.494  13.779  14.291
  709SOL    HW1 4024   0.492  13.874  14.305
  709SOL    HW2 4025   0.487  13.742  14.379
  710SOL     OW 4026  10.477  11.595   4.696
  710SOL    HW1 4027  10.437  11.681   4.682
  710SOL    HW2 4028  10.512  11.570   4.610
  711SOL     OW 4029  12.776   6.132   4.983
  711SOL    HW1 4030  12.844   6.101   5.043
  711SOL    HW2 4031  12.824   6.173   4.911
  712SOL     OW 4032  12.831   1.559   6.490
  712SOL    HW1 4033  12.849   1.584   6.400
  712SOL    HW2 4034  12.737   1.540   6.492
  713SOL     OW 4035  10.617  13.485  10.864
  713SOL    HW1 4036  10.525  13.501  10.880
  713SOL    HW2 4037  10.629  13.391  10.878
  714SOL     OW 4038   3.304   9.583   0.858
  714SOL    HW1 4039   3.400   9.585   0.853
  714SOL    HW2 4040   3.275   9.600   0.768
  715SOL     OW 4041  12.832   8.642   6.843
  715SOL    HW1 4042  12.912   8.653   6.792
  715SOL    HW2 4043  12.762   8.634   6.777
  716SOL     OW 4044   7.325  13.860  11.506
  716SOL    HW1 4045   7.282  13.844  11.422
  716SOL    HW2 4046   7.411  13.819  11.497
  717SOL     OW 4047  13.498   4.939   3.220
  717SOL    HW1 4048  13.582   4.956   3.261
  717SOL    HW2 4049  13.434   4.983   3.275
  718SOL     OW 4050  13.872   8.279  14.463
  718SOL    HW1 4051  13.821   8.239  14.533
  718SOL    HW2 4052  13.938   8.332  14.508
  719SOL     OW 4053   6.912   3.764  11.570
  719SOL    HW1 4054   6.905   3.832  11.637
  719SOL    HW2 4055   6.871   3.687  11.610
  720SOL     OW 4056   6.010  14.555   0.041
  720SOL    HW1 4057   6.099  14.521   0.051
  720SOL    HW2 4058   6.020  14.634  14.870
  721SOL     OW 4059   8.179  13.042  10.044
  721SOL    HW1 4060   8.195  13.033  10.138
  721SOL    HW2 4061   8.084  13.032  10.035
  722SOL     OW 4062   5.898   1.122  13.132
  722SOL    HW1 4063   5.849   1.083  13.059
  722SOL    HW2 4064   5.985   1.083  13.125
  723SOL     OW 4065   6.019   8.456  13.324
  723SOL    HW1 4066   6.089   8.404  13.365
  723SOL    HW2 4067   6.051   8.546  13.328
  724SOL     OW 4068   2.512   7.271  10.350
  724SOL    HW1 4069   2.477   7.213  10.418
  724SOL    HW2 4070   2.547   7.213  10.284
  725SOL     OW 4071   2.592  11.484   6.473
  725SOL    HW1 4072   2.687  11.475   6.484
  725SOL    HW2 4073   2.566  11.546   6.541
  726SOL     OW 4074  12.136   3.750   2.864
  726SOL    HW1 4075  12.152   3.783   2.953
  726SOL    HW2 4076  12.212   3.695   2.845
  727SOL     OW 4077   1.236   5.637   2.445
  727SOL    HW1 4078   1.170   5.665   2.382
  727SOL    HW2 4079   1.220   5.691   2.522
  728SOL     OW 4080   6.617   7.099   1.202
  728SOL    HW1 4081   6.694   7.077   1.151
  728SOL    HW2 4082   6.647   7.164   1.265
  729SOL     OW 4083  11.882   1.090   2.015
  729SOL    HW1 4084  11.918   1.112   2.101
  729SOL    HW2 4085  11.938   1.020   1.983
  730SOL     OW 4086  10.178  12.720   6.200
  730SOL    HW1 4087  10.243  12.712   6.269
  730SOL    HW2 4088  10.124  12.795   6.227
  731SOL     OW 4089   4.422   1.644   5.863
  731SOL    HW1 4090   4.347   1.634   5.921
  731SOL    HW2 4091   4.413   1.572   5.800
  732SOL     OW 4092   4.771   9.212   6.309
  732SOL    HW1 4093   4.700   9.262   6.269
  732SOL    HW2 4094   4.728   9.160   6.377
  733SOL     OW 4095   3.558   2.320  13.033
  733SOL    HW1 4096   3.484   2.380  13.034
  733SOL    HW2 4097   3.623   2.361  13.091
  734SOL     OW 4098   5.008   7.974  11.939
  734SOL    HW1 4099   5.000   8.031  12.016
  734SOL    HW2 4100   4.987   7.886  11.972
  735SOL     OW 4101   0.414   0.148   8.381
  735SOL    HW1 4102   0.424   0.061   8.420
  735SOL    HW2 4103   0.366   0.133   8.300
  736SOL     OW 4104   4.271   2.462   1.310
  736SOL    HW1 4105   4.260   2.377   1.268
  736SOL    HW2 4106   4.183   2.489   1.336
  737SOL     OW 4107   8.846   0.525   1.600
  737SOL    HW1 4108   8.792   0.494   1.527
  737SOL    HW2 4109   8.787   0.521   1.676
  738SOL     OW 4110   2.618   5.360   4.236
  738SOL    HW1 4111   2.536   5.355   4.285
  738SOL    HW2 4112   2.616   5.446   4.196
  739SOL     OW 4113   2.061   3.884  10.055
  739SOL    HW1 4114   2.008   3.891  10.134
  739SOL    HW2 4115   2.053   3.969  10.012
  740SOL     OW 4116   5.984  10.536   6.093
  740SOL    HW1 4117   5.978  10.443   6.116
  740SOL    HW2 4118   5.894  10.567   6.092
  741SOL     OW 4119   5.678  11.474   1.359
  741SOL    HW1 4120   5.595  11.516   1.382
  741SOL    HW2 4121   5.721  11.458   1.443
  742SOL     OW 4122  14.157  11.162  13.305
  742SOL    HW1 4123  14.136  11.145  13.213
  742SOL    HW2 4124  14.113  11.245  13.324
  743SOL     OW 4125   5.211   3.286   6.388
  743SOL    HW1 4126   5.142   3.290   6.454
  743SOL    HW2 4127   5.198   3.202   6.345
  744SOL     OW 4128   5.633   2.369   1.688
  744SOL    HW1 4129   5.585   2.414   1.618
  744SOL    HW2 4130   5.624   2.276   1.667
  745SOL     OW 4131   9.640   4.284  13.198
  745SOL    HW1 4132   9.704   4.345  13.235
  745SOL    HW2 4133   9.681   4.198  13.209
  746SOL     OW 4134  13.784   6.210  13.705
  746SOL    HW1 4135  13.875   6.210  13.677
  746SOL    HW2 4136  13.783   6.263  13.785
  747SOL     OW 4137   3.764   8.781   8.737
  747SOL    HW1 4138   3.774   8.697   8.691
  747SOL    HW2 4139   3.846   8.828   8.720
  748SOL     OW 4140  13.868   1.240   8.090
  748SOL    HW1 4141  13.908   1.297   8.024
  748SOL    HW2 4142  13.774   1.247   8.073
  749SOL     OW 4143  13.709  11.137  13.088
  749SOL    HW1 4144  13.630  11.125  13.035
  749SOL    HW2 4145  13.689  11.092  13.170
  750SOL     OW 4146   4.922   7.248   9.731
  750SOL    HW1 4147   4.908   7.342   9.719
  750SOL    HW2 4148   4.876   7.207   9.658
  751SOL     OW 4149   5.813   3.246   8.386
  751SOL    HW1 4150   5.741   3.201   8.342
  751SOL    HW2 4151   5.784   3.337   8.395
  752SOL     OW 4152   2.504  10.835   4.623
  752SOL    HW1 4153   2.513  10.902   4.691
  752SOL    HW2 4154   2.428  10.784   4.650
  753SOL     OW 4155   7.525  14.153   6.834
  753SOL    HW1 4156   7.533  14.058   6.829
  753SOL    HW2 4157   7.431  14.170   6.826
  754SOL     OW 4158  12.858  11.037  10.626
  754SOL    HW1 4159  12.775  11.003  10.592
  754SOL    HW2 4160  12.900  11.078  10.550
  755SOL     OW 4161  10.081   0.304   3.587
  755SOL    HW1 4162  10.023   0.274   3.517
  755SOL    HW2 4163  10.022   0.347   3.649
  756SOL     OW 4164   7.269  10.688   2.491
  756SOL    HW1 4165   7.319  10.633   2.551
  756SOL    HW2 4166   7.246  10.630   2.418
  757SOL     OW 4167   9.501   4.017   7.232
  757SOL    HW1 4168   9.431   3.980   7.285
  757SOL    HW2 4169   9.462   4.094   7.190
  758SOL     OW 4170  11.834  13.297   5.376
  758SOL    HW1 4171  11.838  13.262   5.287
  758SOL    HW2 4172  11.741  13.296   5.398
  759SOL     OW 4173  11.418   1.387   3.383
  759SOL    HW1 4174  11.433   1.470   3.428
  759SOL    HW2 4175  11.413   1.411   3.290
  760SOL     OW 4176   8.716   3.603   9.185
  760SOL    HW1 4177   8.804   3.630   9.209
  760SOL    HW2 4178   8.679   3.678   9.138
  761SOL     OW 4179   0.064   6.747   5.015
  761SOL    HW1 4180   0.093   6.828   5.056
  761SOL    HW2 4181   0.135   6.724   4.955
  762SOL     OW 4182   0.735  11.399  11.370
  762SOL    HW1 4183   0.794  11.414  11.296
  762SOL    HW2 4184   0.654  11.445  11.346
  763SOL     OW 4185   2.455   5.864   0.754
  763SOL    HW1 4186   2.496   5.816   0.682
  763SOL    HW2 4187   2.441   5.952   0.719
  764SOL     OW 4188   8.467   1.049   3.644
  764SOL    HW1 4189   8.434   1.137   3.662
  764SOL    HW2 4190   8.389   0.993   3.644
  765SOL     OW 4191   7.206  12.736   7.901
  765SOL    HW1 4192   7.160  12.756   7.819
  765SOL    HW2 4193   7.180  12.806   7.961
  766SOL     OW 4194  14.875   0.157   6.616
  766SOL    HW1 4195   0.066   0.208   6.581
  766SOL    HW2 4196   0.015   0.142   6.708
  767SOL     OW 4197   5.392   9.388   0.643
  767SOL    HW1 4198   5.338   9.325   0.594
  767SOL    HW2 4199   5.331   9.454   0.674
  768SOL     OW 4200   5.391   5.175   5.344
  768SOL    HW1 4201   5.483   5.189   5.364
  768SOL    HW2 4202   5.374   5.232   5.268
  769SOL     OW 4203  11.140  14.823   8.917
  769SOL    HW1 4204  11.092   0.013   8.958
  769SOL    HW2 4205  11.230  14.853   8.912
  770SOL     OW 4206  12.682  12.955   3.112
  770SOL    HW1 4207  12.663  12.866   3.082
  770SOL    HW2 4208  12.673  13.009   3.033
  771SOL     OW 4209  13.597   6.154   9.148
  771SOL    HW1 4210  13.574   6.076   9.198
  771SOL    HW2 4211  13.639   6.212   9.211
  772SOL     OW 4212   2.388   1.982   5.581
  772SOL    HW1 4213   2.324   2.037   5.536
  772SOL    HW2 4214   2.470   1.997   5.533
  773SOL     OW 4215   3.689   4.535   2.480
  773SOL    HW1 4216   3.722   4.622   2.499
  773SOL    HW2 4217   3.707   4.485   2.559
  774SOL     OW 4218  14.693   8.441   1.547
  774SOL    HW1 4219  14.667   8.533   1.550
  774SOL    HW2 4220  14.661   8.405   1.629
  775SOL     OW 4221  14.645   2.639  12.084
  775SOL    HW1 4222  14.708   2.710  12.096
  775SOL    HW2 4223  14.565   2.671  12.126
  776SOL     OW 4224   2.848  12.839  12.160
  776SOL    HW1 4225   2.828  12.767  12.220
  776SOL    HW2 4226   2.781  12.834  12.093
  777SOL     OW 4227   2.900   5.273   4.210
  777SOL    HW1 4228   2.806   5.291   4.217
  777SOL    HW2 4229   2.910   5.184   4.243
  778SOL     OW 4230   9.860  14.308  14.220
  778SOL    HW1 4231   9.914  14.383  14.246
  778SOL    HW2 4232   9.896  14.281  14.136
  779SOL     OW 4233   1.429   5.368   7.249
  779SOL    HW1 4234   1.493   5.365   7.320
  779SOL    HW2 4235   1.479   5.343   7.171
  780SOL     OW 4236  11.718   4.979   9.161
  780SOL    HW1 4237  11.719   4.903   9.219
  780SOL    HW2 4238  11.624   4.998   9.148
  781SOL     OW 4239   0.402   6.046   6.254
  781SOL    HW1 4240   0.363   5.959   6.250
  781SOL    HW2 4241   0.457   6.044   6.332
  782SOL     OW 4242   5.375  13.347   6.495
  782SOL    HW1 4243   5.301  13.321   6.441
  782SOL    HW2 4244   5.389  13.274   6.555
  783SOL     OW 4245   7.811  12.331  12.216
  783SOL    HW1 4246   7.758  12.369  12.146
  783SOL    HW2 4247   7.887  12.389  12.223
  784SOL     OW 4248  10.764   2.373   3.789
  784SOL    HW1 4249  10.760   2.467   3.774
  784SOL    HW2 4250  10.713   2.335   3.717
  785SOL     OW 4251  13.432   9.889  11.408
  785SOL    HW1 4252  13.507   9.932  11.366
  785SOL    HW2 4253  13.432   9.922  11.497
  786SOL     OW 4254   3.519   2.756   0.178
  786SOL    HW1 4255   3.464   2.831   0.199
  786SOL    HW2 4256   3.543   2.769   0.086
  787SOL     OW 4257  10.149   1.053  10.405
  787SOL    HW1 4258  10.199   0.971  10.413
  787SOL    HW2 4259  10.187   1.110  10.471
  788SOL     OW 4260   2.351  10.397  11.879
  788SOL    HW1 4261   2.305  10.459  11.936
  788SOL    HW2 4262   2.383  10.329  11.938
  789SOL     OW 4263   0.737   6.548   8.089
  789SOL    HW1 4264   0.710   6.598   8.012
  789SOL    HW2 4265   0.830   6.529   8.074
  790SOL     OW 4266  13.125  13.698   0.795
  790SOL    HW1 4267  13.040  13.654   0.798
  790SOL    HW2 4268  13.164  13.668   0.713
  791SOL     OW 4269  12.992   4.450   8.194
  791SOL    HW1 4270  13.009   4.361   8.165
  791SOL    HW2 4271  12.901   4.466   8.170
  792SOL     OW 4272   7.474  13.533  10.471
  792SOL    HW1 4273   7.447  13.569  10.387
  792SOL    HW2 4274   7.442  13.442  10.470
  793SOL     OW 4275   1.182  10.435   3.806
  793SOL    HW1 4276   1.144  10.437   3.894
  793SOL    HW2 4277   1.276  10.423   3.820
  794SOL     OW 4278  10.904  11.882  12.501
  794SOL    HW1 4279  10.914  11.921  12.414
  794SOL    HW2 4280  10.850  11.945  12.550
  795SOL     OW 4281   3.788   8.174   3.244
  795SOL    HW1 4282   3.774   8.090   3.288
  795SOL    HW2 4283   3.714   8.229   3.271
  796SOL     OW 4284   3.540   1.908   1.934
  796SOL    HW1 4285   3.521   1.924   1.842
  796SOL    HW2 4286   3.540   1.813   1.943
  797SOL     OW 4287  10.784  14.516   4.848
  797SOL    HW1 4288  10.799  14.424   4.828
  797SOL    HW2 4289  10.744  14.516   4.934
  798SOL     OW 4290   4.624  10.745  10.364
  798SOL    HW1 4291   4.698  10.723  10.420
  798SOL    HW2 4292   4.623  10.676  10.297
  799SOL     OW 4293   4.407   1.844   5.442
  799SOL    HW1 4294   4.474   1.873   5.381
  799SOL    HW2 4295   4.332   1.902   5.425
  800SOL     OW 4296   8.054   7.288   9.868
  800SOL    HW1 4297   8.041   7.263   9.960
  800SOL    HW2 4298   7.966   7.311   9.837
  801SOL     OW 4299   6.794   1.490   6.708
  801SOL    HW1 4300   6.754   1.571   6.679
  801SOL    HW2 4301   6.813   1.442   6.627
  802SOL     OW 4302   0.112   5.695  13.773
  802SOL    HW1 4303   0.039   5.673  13.716
  802SOL    HW2 4304   0.117   5.791  13.771
  803SOL     OW 4305   2.140   5.431   0.115
  803SOL    HW1 4306   2.175   5.348   0.147
  803SOL    HW2 4307   2.060   5.444   0.165
  804SOL     OW 4308  13.200   1.231  10.824
  804SOL    HW1 4309  13.119   1.182  10.816
  804SOL    HW2 4310  13.174   1.317  10.858
  805SOL     OW 4311   0.700   9.988   8.472
  805SOL    HW1 4312   0.760   9.928   8.427
  805SOL    HW2 4313   0.663  10.041   8.401
  806SOL     OW 4314   5.754   0.769   5.890
  806SOL    HW1 4315   5.682   0.832   5.896
  806SOL    HW2 4316   5.833   0.821   5.906
  807SOL     OW 4317   4.903  13.597   8.484
  807SOL    HW1 4318   4.965  13.542   8.530
  807SOL    HW2 4319   4.910  13.683   8.526
  808SOL     OW 4320  13.431   6.457   2.469
  808SOL    HW1 4321  13.381   6.481   2.546
  808SOL    HW2 4322  13.487   6.385   2.498
  809SOL     OW 4323   8.367   4.368  10.492
  809SOL    HW1 4324   8.425   4.442  10.476
  809SOL    HW2 4325   8.424   4.300  10.528
  810SOL     OW 4326  12.036   1.691  10.174
  810SOL    HW1 4327  12.004   1.603  10.195
  810SOL    HW2 4328  11.958   1.745  10.170
  811SOL     OW 4329   5.414   7.733   9.254
  811SOL    HW1 4330   5.390   7.680   9.178
  811SOL    HW2 4331   5.498   7.698   9.282
  812SOL     OW 4332   3.504   3.890  10.917
  812SOL    HW1 4333   3.593   3.861  10.936
  812SOL    HW2 4334   3.470   3.824  10.856
  813SOL     OW 4335  12.371   3.892   4.655
  813SOL    HW1 4336  12.380   3.946   4.577
  813SOL    HW2 4337  12.296   3.930   4.702
  814SOL     OW 4338   2.640   9.436  13.865
  814SOL    HW1 4339   2.654   9.493  13.789
  814SOL    HW2 4340   2.729   9.412  13.893
  815SOL     OW 4341  12.262   0.588  10.958
  815SOL    HW1 4342  12.168   0.587  10.977
  815SOL    HW2 4343  12.268   0.568  10.865
  816SOL     OW 4344   2.601  11.530   9.160
  816SOL    HW1 4345   2.611  11.510   9.067
  816SOL    HW2 4346   2.690  11.547   9.190
  817SOL     OW 4347   4.162  13.328  12.502
  817SOL    HW1 4348   4.143  13.243  12.462
  817SOL    HW2 4349   4.241  13.313  12.554
  818SOL     OW 4350   2.471  10.110   6.210
  818SOL    HW1 4351   2.550  10.100   6.157
  818SOL    HW2 4352   2.431  10.191   6.180
  819SOL     OW 4353  14.389  12.255   4.817
  819SOL    HW1 4354  14.298  12.225   4.808
  819SOL    HW2 4355  14.397  12.281   4.908
  820SOL     OW 4356  14.184   0.445  11.290
  820SOL    HW1 4357  14.096   0.416  11.314
  820SOL    HW2 4358  14.209   0.389  11.216
  821SOL     OW 4359   7.901   5.580   7.589
  821SOL    HW1 4360   7.886   5.604   7.681
  821SOL    HW2 4361   7.825   5.614   7.542
  822SOL     OW 4362   4.880  14.668   7.106
  822SOL    HW1 4363   4.929  14.614   7.167
  822SOL    HW2 4364   4.943  14.693   7.039
  823SOL     OW 4365   2.147   1.994  10.836
  823SOL    HW1 4366   2.205   2.014  10.910
  823SOL    HW2 4367   2.206   1.985  10.762
  824SOL     OW 4368   0.377  14.863   5.749
  824SOL    HW1 4369   0.422   0.028   5.819
  824SOL    HW2 4370   0.303   0.037   5.725
  825SOL     OW 4371  13.802   4.772   9.560
  825SOL    HW1 4372  13.823   4.685   9.593
  825SOL    HW2 4373  13.885   4.806   9.527
  826SOL     OW 4374   4.577  12.603   8.001
  826SOL    HW1 4375   4.522  12.679   7.986
  826SOL    HW2 4376   4.663  12.638   8.025
  827SOL     OW 4377  10.672   1.213   9.936
  827SOL    HW1 4378  10.643   1.293   9.894
  827SOL    HW2 4379  10.592   1.173   9.971
  828SOL     OW 4380   2.663   3.706   6.478
  828SOL    HW1 4381   2.618   3.786   6.452
  828SOL    HW2 4382   2.623   3.637   6.425
  829SOL     OW 4383   9.091  13.877   4.884
  829SOL    HW1 4384   9.152  13.923   4.942
  829SOL    HW2 4385   9.134  13.793   4.867
  830SOL     OW 4386  13.263   5.005   4.084
  830SOL    HW1 4387  13.238   5.095   4.106
  830SOL    HW2 4388  13.337   4.986   4.141
  831SOL     OW 4389  11.382  13.141   3.754
  831SOL    HW1 4390  11.382  13.234   3.778
  831SOL    HW2 4391  11.435  13.099   3.822
  832SOL     OW 4392  13.435   8.124  12.632
  832SOL    HW1 4393  13.466   8.213  12.614
  832SOL    HW2 4394  13.344   8.134  12.659
  833SOL     OW 4395   8.669   6.999  11.271
  833SOL    HW1 4396   8.670   7.058  11.196
  833SOL    HW2 4397   8.641   7.053  11.344
  834SOL     OW 4398  11.023   2.559  13.005
  834SOL    HW1 4399  10.948   2.565  13.064
  834SOL    HW2 4400  11.020   2.469  12.971
  835SOL     OW 4401   6.826   3.819  11.335
  835SOL    HW1 4402   6.863   3.803  11.422
  835SOL    HW2 4403   6.887   3.880  11.293
  836SOL     OW 4404   0.623  12.627   0.371
  836SOL    HW1 4405   0.657  12.645   0.459
  836SOL    HW2 4406   0.701  12.621   0.316
  837SOL     OW 4407   7.276  10.087   7.238
  837SOL    HW1 4408   7.266  10.180   7.217
  837SOL    HW2 4409   7.231  10.041   7.166
  838SOL     OW 4410  14.838   6.433  11.339
  838SOL    HW1 4411   0.022   6.425  11.407
  838SOL    HW2 4412  14.770   6.487  11.379
  839SOL     OW 4413   0.445   9.151   2.268
  839SOL    HW1 4414   0.365   9.150   2.321
  839SOL    HW2 4415   0.422   9.098   2.191
  840SOL     OW 4416   8.538   5.733   0.330
  840SOL    HW1 4417   8.526   5.787   0.409
  840SOL    HW2 4418   8.577   5.792   0.266
  841SOL     OW 4419   9.748  12.673   7.282
  841SOL    HW1 4420   9.673  12.684   7.340
  841SOL    HW2 4421   9.784  12.587   7.305
  842SOL     OW 4422   8.715   5.752   7.800
  842SOL    HW1 4423   8.784   5.688   7.784
  842SOL    HW2 4424   8.761   5.833   7.821
  843SOL     OW 4425   4.996   2.051   5.558
  843SOL    HW1 4426   5.060   2.071   5.626
  843SOL    HW2 4427   4.920   2.019   5.606
  844SOL     OW 4428   7.587   3.878   2.946
  844SOL    HW1 4429   7.535   3.854   2.869
  844SOL    HW2 4430   7.544   3.957   2.980
  845SOL     OW 4431  10.187  10.046   7.269
  845SOL    HW1 4432  10.133  10.124   7.257
  845SOL    HW2 4433  10.140   9.977   7.223
  846SOL     OW 4434  13.315   2.279   2.082
  846SOL    HW1 4435  13.229   2.315   2.061
  846SOL    HW2 4436  13.309   2.253   2.174
  847SOL     OW 4437   9.165  13.139  14.554
  847SOL    HW1 4438   9.207  13.205  14.610
  847SOL    HW2 4439   9.089  13.110  14.606
  848SOL     OW 4440  12.753   2.987  11.161
  848SOL    HW1 4441  12.804   3.068  11.165
  848SOL    HW2 4442  12.687   3.004  11.094
  849SOL     OW 4443  10.543   9.947  12.170
  849SOL    HW1 4444  10.612   9.884  12.151
  849SOL    HW2 4445  10.590  10.028  12.189
  850SOL     OW 4446  13.735   4.789   7.169
  850SOL    HW1 4447  13.796   4.825   7.233
  850SOL    HW2 4448  13.654   4.839   7.182
  851SOL     OW 4449   9.938   2.543   5.041
  851SOL    HW1 4450   9.922   2.638   5.036
  851SOL    HW2 4451   9.965   2.529   5.132
  852SOL     OW 4452   9.769  11.241   2.899
  852SOL    HW1 4453   9.850  11.229   2.848
  852SOL    HW2 4454   9.748  11.153   2.931
  853SOL     OW 4455  11.809  12.224   8.668
  853SOL    HW1 4456  11.876  12.230   8.600
  853SOL    HW2 4457  11.762  12.308   8.663
  854SOL     OW 4458  13.645   7.065  13.487
  854SOL    HW1 4459  13.691   6.995  13.534
  854SOL    HW2 4460  13.583   7.019  13.430
  855SOL     OW 4461  10.532   7.276   5.228
  855SOL    HW1 4462  10.473   7.210   5.263
  855SOL    HW2 4463  10.591   7.297   5.300
  856SOL     OW 4464   8.710   3.825   9.415
  856SOL    HW1 4465   8.721   3.734   9.445
  856SOL    HW2 4466   8.694   3.818   9.321
  857SOL     OW 4467   3.441   8.630  13.454
  857SOL    HW1 4468   3.507   8.680  13.502
  857SOL    HW2 4469   3.473   8.540  13.454
  858SOL     OW 4470   5.469   3.711  13.980
  858SOL    HW1 4471   5.413   3.657  13.925
  858SOL    HW2 4472   5.409   3.763  14.033
  859SOL     OW 4473   9.169   7.470   8.410
  859SOL    HW1 4474   9.079   7.439   8.396
  859SOL    HW2 4475   9.190   7.519   8.331
  860SOL     OW 4476  12.550   2.642  10.785
  860SOL    HW1 4477  12.639   2.614  10.805
  860SOL    HW2 4478  12.506   2.646  10.870
  861SOL     OW 4479  14.379   8.154  14.335
  861SOL    HW1 4480  14.368   8.123  14.245
  861SOL    HW2 4481  14.446   8.095  14.372
  862SOL     OW 4482   1.508   9.415  10.282
  862SOL    HW1 4483   1.591   9.429  10.238
  862SOL    HW2 4484   1.456   9.493  10.260
  863SOL     OW 4485   8.781   9.090   9.667
  863SOL    HW1 4486   8.788   9.110   9.761
  863SOL    HW2 4487   8.769   8.995   9.664
  864SOL     OW 4488   3.355  13.511   5.957
  864SOL    HW1 4489   3.344  13.547   5.869
  864SOL    HW2 4490   3.272  13.466   5.975
  865SOL     OW 4491   1.652   0.423   8.787
  865SOL    HW1 4492   1.617   0.397   8.872
  865SOL    HW2 4493   1.669   0.340   8.742
  866SOL     OW 4494   0.443   7.860  14.602
  866SOL    HW1 4495   0.354   7.897  14.603
  866SOL    HW2 4496   0.475   7.878  14.514
  867SOL     OW 4497  10.673   7.515  10.313
  867SOL    HW1 4498  10.706   7.571  10.384
  867SOL    HW2 4499  10.652   7.432  10.357
  868SOL     OW 4500  12.609   2.255   7.638
  868SOL    HW1 4501  12.553   2.316   7.590
  868SOL    HW2 4502  12.565   2.242   7.722
  869SOL     OW 4503   9.605   0.188   5.559
  869SOL    HW1 4504   9.553   0.132   5.502
  869SOL    HW2 4505   9.689   0.197   5.514
  870SOL     OW 4506   5.006  12.356   1.940
  870SOL    HW1 4507   5.081  12.364   1.882
  870SOL    HW2 4508   4.967  12.271   1.919
  871SOL     OW 4509   8.837   2.853   1.684
  871SOL    HW1 4510   8.764   2.903   1.722
  871SOL    HW2 4511   8.800   2.811   1.607
  872SOL     OW 4512   1.062   5.192  13.687
  872SOL    HW1 4513   1.079   5.105  13.650
  872SOL    HW2 4514   1.042   5.175  13.779
  873SOL     OW 4515   8.356   6.262   2.891
  873SOL    HW1 4516   8.448   6.289   2.896
  873SOL    HW2 4517   8.307   6.345   2.896
  874SOL     OW 4518   3.021  11.181   8.497
  874SOL    HW1 4519   3.070  11.144   8.571
  874SOL    HW2 4520   2.929  11.176   8.525
  875SOL     OW 4521   1.241   4.551   3.311
  875SOL    HW1 4522   1.211   4.470   3.353
  875SOL    HW2 4523   1.171   4.614   3.328
  876SOL     OW 4524   0.258   2.705   4.754
  876SOL    HW1 4525   0.190   2.647   4.788
  876SOL    HW2 4526   0.210   2.772   4.705
  877SOL     OW 4527   5.933   9.194   5.741
  877SOL    HW1 4528   5.920   9.116   5.687
  877SOL    HW2 4529   5.870   9.186   5.812
  878SOL     OW 4530   5.261   1.796  11.338
  878SOL    HW1 4531   5.356   1.782  11.344
  878SOL    HW2 4532   5.246   1.875  11.391
  879SOL     OW 4533   3.218   2.883  13.714
  879SOL    HW1 4534   3.123   2.886  13.707
  879SOL    HW2 4535   3.238   2.932  13.793
  880SOL     OW 4536   0.921   0.697   8.912
  880SOL    HW1 4537   0.936   0.790   8.897
  880SOL    HW2 4538   0.847   0.675   8.856
  881SOL     OW 4539   6.274   9.183   0.928
  881SOL    HW1 4540   6.348   9.126   0.910
  881SOL    HW2 4541   6.234   9.198   0.842
  882SOL     OW 4542  12.630   0.435   0.877
  882SOL    HW1 4543  12.580   0.398   0.949
  882SOL    HW2 4544  12.666   0.359   0.831
  883SOL     OW 4545   3.950   4.890   6.570
  883SOL    HW1 4546   3.929   4.965   6.513
  883SOL    HW2 4547   4.045   4.881   6.563
  884SOL     OW 4548  12.333   6.395   1.257
  884SOL    HW1 4549  12.291   6.375   1.173
  884SOL    HW2 4550  12.392   6.322   1.272
  885SOL     OW 4551   7.013   9.618   3.193
  885SOL    HW1 4552   6.962   9.680   3.246
  885SOL    HW2 4553   6.956   9.542   3.184
  886SOL     OW 4554  13.328   1.944   6.884
  886SOL    HW1 4555  13.409   1.958   6.933
  886SOL    HW2 4556  13.320   1.849   6.877
  887SOL     OW 4557  11.434   3.867   2.497
  887SOL    HW1 4558  11.365   3.865   2.563
  887SOL    HW2 4559  11.515   3.876   2.548
  888SOL     OW 4560   8.915   3.497  14.173
  888SOL    HW1 4561   8.924   3.424  14.234
  888SOL    HW2 4562   8.831   3.482  14.129
  889SOL     OW 4563   4.568   1.290   2.963
  889SOL    HW1 4564   4.558   1.196   2.948
  889SOL    HW2 4565   4.658   1.309   2.936
  890SOL     OW 4566   4.907  12.679   4.547
  890SOL    HW1 4567   4.911  12.681   4.452
  890SOL    HW2 4568   4.823  12.718   4.569
  891SOL     OW 4569   9.900  13.513   0.948
  891SOL    HW1 4570   9.909  13.595   0.899
  891SOL    HW2 4571   9.819  13.474   0.916
  892SOL     OW 4572   5.836  11.733   1.405
  892SOL    HW1 4573   5.775  11.788   1.454
  892SOL    HW2 4574   5.781  11.668   1.362
  893SOL     OW 4575   9.591   6.926   6.805
  893SOL    HW1 4576   9.513   6.887   6.845
  893SOL    HW2 4577   9.585   7.019   6.828
  894SOL     OW 4578  10.827   1.916   8.600
  894SOL    HW1 4579  10.772   1.923   8.522
  894SOL    HW2 4580  10.772   1.950   8.670
  895SOL     OW 4581  10.058  13.945  10.964
  895SOL    HW1 4582  10.003  13.873  10.934
  895SOL    HW2 4583  10.106  13.972  10.886
  896SOL     OW 4584   5.129   0.966   5.760
  896SOL    HW1 4585   5.085   0.991   5.679
  896SOL    HW2 4586   5.101   1.031   5.824
  897SOL     OW 4587   4.817   0.853  10.876
  897SOL    HW1 4588   4.778   0.907  10.945
  897SOL    HW2 4589   4.894   0.815  10.917
  898SOL     OW 4590  11.030   5.747   3.724
  898SOL    HW1 4591  11.119   5.743   3.760
  898SOL    HW2 4592  11.040   5.730   3.631
  899SOL     OW 4593   2.924   3.397   2.177
  899SOL    HW1 4594   2.954   3.455   2.107
  899SOL    HW2 4595   2.868   3.334   2.133
  900SOL     OW 4596   5.608   4.278  11.776
  900SOL    HW1 4597   5.570   4.357  11.815
  900SOL    HW2 4598   5.537   4.214  11.779
  901SOL     OW 4599   2.737   5.356   6.000
  901SOL    HW1 4600   2.650   5.394   6.012
  901SOL    HW2 4601   2.736   5.276   6.052
  902SOL     OW 4602   5.754   9.659  11.119
  902SOL    HW1 4603   5.794   9.625  11.199
  902SOL    HW2 4604   5.790   9.603  11.049
  903SOL     OW 4605   4.052   6.350   8.936
  903SOL    HW1 4606   4.088   6.269   8.900
  903SOL    HW2 4607   3.958   6.335   8.940
  904SOL     OW 4608   1.424   6.229  11.348
  904SOL    HW1 4609   1.354   6.166  11.331
  904SOL    HW2 4610   1.401   6.306  11.297
  905SOL     OW 4611   8.841   9.628   4.706
  905SOL    HW1 4612   8.762   9.580   4.681
  905SOL    HW2 4613   8.852   9.609   4.800
  906SOL     OW 4614   0.381   7.964  11.978
  906SOL    HW1 4615   0.297   7.934  12.014
  906SOL    HW2 4616   0.360   8.048  11.937
  907SOL     OW 4617  14.310  11.539  10.708
  907SOL    HW1 4618  14.255  11.613  10.681
  907SOL    HW2 4619  14.395  11.557  10.669
  908SOL     OW 4620   0.301  11.251  10.920
  908SOL    HW1 4621   0.389  11.289  10.928
  908SOL    HW2 4622   0.285  11.209  11.004
  909SOL     OW 4623   7.925  14.102   7.254
  909SOL    HW1 4624   8.010  14.061   7.240
  909SOL    HW2 4625   7.912  14.158   7.178
  910SOL     OW 4626   1.527   4.984   5.907
  910SOL    HW1 4627   1.504   5.060   5.853
  910SOL    HW2 4628   1.477   4.912   5.868
  911SOL     OW 4629  14.639  11.911   9.937
  911SOL    HW1 4630  14.689  11.947  10.010
  911SOL    HW2 4631  14.664  11.965   9.862
  912SOL     OW 4632   7.310  14.008  12.255
  912SOL    HW1 4633   7.317  14.023  12.350
  912SOL    HW2 4634   7.337  13.917  12.244
  913SOL     OW 4635  11.863   8.361   6.557
  913SOL    HW1 4636  11.904   8.280   6.527
  913SOL    HW2 4637  11.874   8.422   6.483
  914SOL     OW 4638   9.274   8.180  11.141
  914SOL    HW1 4639   9.264   8.273  11.119
  914SOL    HW2 4640   9.208   8.164  11.208
  915SOL     OW 4641   6.322  11.683   7.360
  915SOL    HW1 4642   6.286  11.716   7.443
  915SOL    HW2 4643   6.392  11.744   7.339
  916SOL     OW 4644   8.147  13.342   9.999
  916SOL    HW1 4645   8.152  13.247   9.996
  916SOL    HW2 4646   8.151  13.364  10.092
  917SOL     OW 4647   8.194   5.125  10.478
  917SOL    HW1 4648   8.123   5.177  10.515
  917SOL    HW2 4649   8.207   5.054  10.541
  918SOL     OW 4650   8.678  13.825   1.555
  918SOL    HW1 4651   8.688  13.786   1.642
  918SOL    HW2 4652   8.603  13.779   1.517
  919SOL     OW 4653   3.425   2.906   2.983
  919SOL    HW1 4654   3.516   2.879   2.970
  919SOL    HW2 4655   3.385   2.898   2.896
  920SOL     OW 4656   1.390   4.065   1.462
  920SOL    HW1 4657   1.372   4.119   1.385
  920SOL    HW2 4658   1.401   3.977   1.428
  921SOL     OW 4659  10.049   3.359  14.692
  921SOL    HW1 4660  10.049   3.307  14.611
  921SOL    HW2 4661  10.059   3.449  14.662
  922SOL     OW 4662   8.812  10.339  11.761
  922SOL    HW1 4663   8.768  10.423  11.779
  922SOL    HW2 4664   8.868  10.357  11.686
  923SOL     OW 4665   7.511  11.574   2.937
  923SOL    HW1 4666   7.450  11.502   2.955
  923SOL    HW2 4667   7.464  11.630   2.875
  924SOL     OW 4668  12.126   5.348   7.320
  924SOL    HW1 4669  12.128   5.329   7.413
  924SOL    HW2 4670  12.055   5.412   7.309
  925SOL     OW 4671  14.365   9.610  12.948
  925SOL    HW1 4672  14.298   9.666  12.908
  925SOL    HW2 4673  14.345   9.612  13.041
  926SOL     OW 4674  10.767   5.240   3.706
  926SOL    HW1 4675  10.713   5.183   3.761
  926SOL    HW2 4676  10.847   5.252   3.757
  927SOL     OW 4677   8.521   2.504   7.501
  927SOL    HW1 4678   8.515   2.431   7.563
  927SOL    HW2 4679   8.431   2.529   7.485
  928SOL     OW 4680   2.193  10.844   3.260
  928SOL    HW1 4681   2.168  10.778   3.196
  928SOL    HW2 4682   2.230  10.793   3.333
  929SOL     OW 4683  12.568   6.226   3.926
  929SOL    HW1 4684  12.541   6.244   3.836
  929SOL    HW2 4685  12.500   6.267   3.980
  930SOL     OW 4686   3.286   5.871  12.103
  930SOL    HW1 4687   3.312   5.961  12.080
  930SOL    HW2 4688   3.212   5.853  12.046
  931SOL     OW 4689  14.434   4.713   8.733
  931SOL    HW1 4690  14.449   4.695   8.826
  931SOL    HW2 4691  14.475   4.639   8.688
  932SOL     OW 4692   7.712   0.480   4.683
  932SOL    HW1 4693   7.799   0.449   4.659
  932SOL    HW2 4694   7.659   0.471   4.604
  933SOL     OW 4695   2.347   7.601   8.871
  933SOL    HW1 4696   2.386   7.678   8.830
  933SOL    HW2 4697   2.339   7.537   8.800
  934SOL     OW 4698   9.030   7.260  13.451
  934SOL    HW1 4699   9.065   7.327  13.510
  934SOL    HW2 4700   8.962   7.217  13.502
  935SOL     OW 4701   2.787   7.550  10.318
  935SOL    HW1 4702   2.860   7.603  10.350
  935SOL    HW2 4703   2.824   7.502  10.244
  936SOL     OW 4704  14.312   9.554   9.809
  936SOL    HW1 4705  14.314   9.461   9.831
  936SOL    HW2 4706  14.280   9.597   9.889
  937SOL     OW 4707   3.085   6.612   1.553
  937SOL    HW1 4708   3.034   6.543   1.509
  937SOL    HW2 4709   3.020   6.678   1.577
  938SOL     OW 4710   5.157  10.813  14.158
  938SOL    HW1 4711   5.213  10.764  14.098
  938SOL    HW2 4712   5.213  10.882  14.192
  939SOL     OW 4713   5.079   7.013   6.703
  939SOL    HW1 4714   5.134   7.032   6.780
  939SOL    HW2 4715   5.031   7.094   6.687
  940SOL     OW 4716  13.624   0.874   8.584
  940SOL    HW1 4717  13.554   0.844   8.525
  940SOL    HW2 4718  13.620   0.813   8.658
  941SOL     OW 4719  13.301   5.078  12.649
  941SOL    HW1 4720  13.251   5.056  12.571
  941SOL    HW2 4721  13.382   5.027  12.640
  942SOL     OW 4722   3.659   0.865  13.312
  942SOL    HW1 4723   3.603   0.837  13.240
  942SOL    HW2 4724   3.666   0.960  13.302
  943SOL     OW 4725   7.618   7.228   5.312
  943SOL    HW1 4726   7.714   7.225   5.315
  943SOL    HW2 4727   7.598   7.285   5.237
  944SOL     OW 4728   4.912   6.349   8.797
  944SOL    HW1 4729   4.872   6.425   8.756
  944SOL    HW2 4730   4.974   6.386   8.861
  945SOL     OW 4731  11.430   1.981   7.392
  945SOL    HW1 4732  11.430   2.076   7.400
  945SOL    HW2 4733  11.342   1.959   7.363
  946SOL     OW 4734   8.925   1.421  13.247
  946SOL    HW1 4735   8.912   1.430  13.153
  946SOL    HW2 4736   8.987   1.348  13.255
  947SOL     OW 4737  13.752  14.474   6.272
  947SOL    HW1 4738  13.795  14.419   6.337
  947SOL    HW2 4739  13.703  14.539   6.323
  948SOL     OW 4740   8.210  14.818  10.686
  948SOL    HW1 4741   8.281  14.791  10.744
  948SOL    HW2 4742   8.225  14.769  10.605
  949SOL     OW 4743  12.619   9.903   9.125
  949SOL    HW1 4744  12.659   9.914   9.039
  949SOL    HW2 4745  12.546   9.965   9.125
  950SOL     OW 4746  12.428   1.206  11.390
  950SOL    HW1 4747  12.371   1.164  11.325
  950SOL    HW2 4748  12.377   1.278  11.425
  951SOL     OW 4749   5.489  13.554   5.100
  951SOL    HW1 4750   5.575  13.566   5.139
  951SOL    HW2 4751   5.495  13.595   5.014
  952SOL     OW 4752   6.198   6.191  12.397
  952SOL    HW1 4753   6.188   6.277  12.358
  952SOL    HW2 4754   6.157   6.131  12.335
  953SOL     OW 4755   3.720  13.257   3.298
  953SOL    HW1 4756   3.628  13.252   3.270
  953SOL    HW2 4757   3.769  13.223   3.224
  954SOL     OW 4758   2.636   2.694   8.118
  954SOL    HW1 4759   2.602   2.682   8.207
  954SOL    HW2 4760   2.591   2.628   8.066
  955SOL     OW 4761  12.177   5.621  14.438
  955SOL    HW1 4762  12.271   5.617  14.453
  955SOL    HW2 4763  12.153   5.534  14.406
  956SOL     OW 4764   9.520   8.702  10.329
  956SOL    HW1 4765   9.434   8.660  10.331
  956SOL    HW2 4766   9.503   8.791  10.360
  957SOL     OW 4767  11.269   5.576  10.465
  957SOL    HW1 4768  11.209   5.647  10.444
  957SOL    HW2 4769  11.213   5.502  10.488
  958SOL     OW 4770  13.996   2.207   8.888
  958SOL    HW1 4771  14.034   2.132   8.935
  958SOL    HW2 4772  13.940   2.250   8.952
  959SOL     OW 4773   5.655   8.044  14.745
  959SOL    HW1 4774   5.716   8.001  14.685
  959SOL    HW2 4775   5.696   8.129  14.764
  960SOL     OW 4776   6.515   8.968   7.397
  960SOL    HW1 4777   6.499   8.934   7.485
  960SOL    HW2 4778   6.458   8.917   7.340
  961SOL     OW 4779   1.674   7.554  12.241
  961SOL    HW1 4780   1.639   7.530  12.155
  961SOL    HW2 4781   1.604   7.531  12.302
  962SOL     OW 4782  12.482  11.296  14.773
  962SOL    HW1 4783  12.414  11.320  14.836
  962SOL    HW2 4784  12.561  11.336  14.808
  963SOL     OW 4785  14.786  13.315   3.841
  963SOL    HW1 4786  14.810  13.367   3.764
  963SOL    HW2 4787  14.755  13.232   3.804
  964SOL     OW 4788  11.902   1.653   5.860
  964SOL    HW1 4789  11.869   1.733   5.819
  964SOL    HW2 4790  11.877   1.661   5.952
  965SOL     OW 4791   8.819   9.756  11.565
  965SOL    HW1 4792   8.806   9.800  11.481
  965SOL    HW2 4793   8.758   9.682  11.563
  966SOL     OW 4794   8.819   9.479   8.554
  966SOL    HW1 4795   8.796   9.405   8.610
  966SOL    HW2 4796   8.914   9.488   8.565
  967SOL     OW 4797   6.446   7.813   2.234
  967SOL    HW1 4798   6.427   7.846   2.146
  967SOL    HW2 4799   6.372   7.758   2.255
  968SOL     OW 4800   6.040  12.340   0.233
  968SOL    HW1 4801   5.972  12.334   0.300
  968SOL    HW2 4802   6.003  12.294   0.157
  969SOL     OW 4803   2.819   4.396   5.072
  969SOL    HW1 4804   2.889   4.419   5.010
  969SOL    HW2 4805   2.842   4.444   5.152
  970SOL     OW 4806   9.051   2.526  11.263
  970SOL    HW1 4807   9.001   2.478  11.196
  970SOL    HW2 4808   9.079   2.459  11.325
  971SOL     OW 4809  14.663  10.496   9.530
  971SOL    HW1 4810  14.688  10.549   9.454
  971SOL    HW2 4811  14.573  10.469   9.511
  972SOL     OW 4812   4.925   1.029   0.363
  972SOL    HW1 4813   5.014   1.014   0.332
  972SOL    HW2 4814   4.885   0.942   0.367
  973SOL     OW 4815   0.531   3.104   1.584
  973SOL    HW1 4816   0.480   3.160   1.524
  973SOL    HW2 4817   0.566   3.035   1.528
  974SOL     OW 4818  11.228   1.705  13.060
  974SOL    HW1 4819  11.213   1.711  12.966
  974SOL    HW2 4820  11.146   1.671  13.096
  975SOL     OW 4821   4.853  14.255   4.938
  975SOL    HW1 4822   4.821  14.236   5.026
  975SOL    HW2 4823   4.912  14.182   4.918
  976SOL     OW 4824   1.693   5.456   8.859
  976SOL    HW1 4825   1.664   5.385   8.918
  976SOL    HW2 4826   1.613   5.487   8.817
  977SOL     OW 4827   3.089   0.858  13.399
  977SOL    HW1 4828   3.151   0.793  13.368
  977SOL    HW2 4829   3.109   0.936  13.347
  978SOL     OW 4830  10.547   1.886  10.982
  978SOL    HW1 4831  10.526   1.819  11.047
  978SOL    HW2 4832  10.519   1.968  11.022
  979SOL     OW 4833   5.738  14.325   2.008
  979SOL    HW1 4834   5.698  14.289   1.929
  979SOL    HW2 4835   5.719  14.419   2.004
  980SOL     OW 4836  11.544   9.477   3.656
  980SOL    HW1 4837  11.523   9.472   3.749
  980SOL    HW2 4838  11.640   9.473   3.652
  981SOL     OW 4839  14.587   5.977  13.162
  981SOL    HW1 4840  14.656   6.022  13.211
  981SOL    HW2 4841  14.594   5.886  13.190
  982SOL     OW 4842   9.008   2.549   2.835
  982SOL    HW1 4843   9.099   2.534   2.861
  982SOL    HW2 4844   8.998   2.644   2.838
  983SOL     OW 4845  11.829  13.022   4.139
  983SOL    HW1 4846  11.739  12.989   4.150
  983SOL    HW2 4847  11.824  13.114   4.163
  984SOL     OW 4848   6.983   9.469   3.479
  984SOL    HW1 4849   6.924   9.401   3.511
  984SOL    HW2 4850   7.035   9.425   3.412
  985SOL     OW 4851  11.639   5.591  13.386
  985SOL    HW1 4852  11.611   5.507  13.421
  985SOL    HW2 4853  11.631   5.652  13.459
  986SOL     OW 4854   9.559  12.380   8.568
  986SOL    HW1 4855   9.547  12.356   8.659
  986SOL    HW2 4856   9.634  12.439   8.568
  987SOL     OW 4857   2.156   7.609   1.483
  987SOL    HW1 4858   2.162   7.532   1.540
  987SOL    HW2 4859   2.247   7.628   1.459
  988SOL     OW 4860   4.591   1.803   9.511
  988SOL    HW1 4861   4.568   1.844   9.594
  988SOL    HW2 4862   4.511   1.756   9.485
  989SOL     OW 4863  14.732   3.016  12.912
  989SOL    HW1 4864  14.710   3.098  12.956
  989SOL    HW2 4865  14.788   2.969  12.974
  990SOL     OW 4866   7.241   4.442   3.546
  990SOL    HW1 4867   7.260   4.536   3.535
  990SOL    HW2 4868   7.326   4.402   3.562
  991SOL     OW 4869  13.118   8.793   3.180
  991SOL    HW1 4870  13.124   8.880   3.142
  991SOL    HW2 4871  13.208   8.761   3.181
  992SOL     OW 4872  10.718   8.016  12.138
  992SOL    HW1 4873  10.740   7.990  12.048
  992SOL    HW2 4874  10.692   8.108  12.130
  993SOL     OW 4875   6.374   6.463   3.808
  993SOL    HW1 4876   6.288   6.472   3.850
  993SOL    HW2 4877   6.356   6.418   3.726
  994SOL     OW 4878   6.969   5.761  13.329
  994SOL    HW1 4879   6.879   5.732  13.337
  994SOL    HW2 4880   6.966   5.855  13.349
  995SOL     OW 4881  14.758   0.439   9.437
  995SOL    HW1 4882  14.810   0.505   9.392
  995SOL    HW2 4883  14.781   0.357   9.395
  996SOL     OW 4884   5.306  13.946   3.795
  996SOL    HW1 4885   5.267  13.862   3.774
  996SOL    HW2 4886   5.399  13.936   3.774
  997SOL     OW 4887   3.550   5.296   8.202
  997SOL    HW1 4888   3.546   5.275   8.295
  997SOL    HW2 4889   3.466   5.338   8.183
  998SOL     OW 4890   8.521  12.769   1.092
  998SOL    HW1 4891   8.451  12.826   1.060
  998SOL    HW2 4892   8.520  12.780   1.187
  999SOL     OW 4893  13.094  10.846   7.707
  999SOL    HW1 4894  13.012  10.798   7.695
  999SOL    HW2 4895  13.072  10.915   7.770
 1000SOL     OW 4896   0.187   3.782   1.717
 1000SOL    HW1 4897   0.243   3.709   1.744
 1000SOL    HW2 4898   0.108   3.772   1.770
 1001SOL     OW 4899  13.809   0.427  13.188
 1001SOL    HW1 4900  13.739   0.429  13.123
 1001SOL    HW2 4901  13.819   0.334  13.209
 1002SOL     OW 4902  12.311   2.237  12.882
 1002SOL    HW1 4903  12.248   2.280  12.940
 1002SOL    HW2 4904  12.329   2.302  12.814
 1003SOL     OW 4905   9.551   0.580   8.830
 1003SOL    HW1 4906   9.546   0.577   8.926
 1003SOL    HW2 4907   9.640   0.552   8.810
 1004SOL     OW 4908  12.376  10.962  14.015
 1004SOL    HW1 4909  12.340  10.897  13.953
 1004SOL    HW2 4910  12.411  10.909  14.087
 1005SOL     OW 4911   0.832   5.114   7.825
 1005SOL    HW1 4912   0.908   5.074   7.868
 1005SOL    HW2 4913   0.789   5.041   7.780
 1006SOL     OW 4914   7.479   7.196  13.065
 1006SOL    HW1 4915   7.541   7.147  13.118
 1006SOL    HW2 4916   7.504   7.288  13.077
 1007SOL     OW 4917  10.184   7.684   4.535
 1007SOL    HW1 4918  10.206   7.612   4.476
 1007SOL    HW2 4919  10.268   7.728   4.550
 1008SOL     OW 4920   3.732   5.224   4.253
 1008SOL    HW1 4921   3.784   5.292   4.296
 1008SOL    HW2 4922   3.641   5.255   4.263
 1009SOL     OW 4923   9.302  13.417   3.916
 1009SOL    HW1 4924   9.346  13.502   3.905
 1009SOL    HW2 4925   9.212  13.434   3.888
 1010SOL     OW 4926   2.752   0.587  12.357
 1010SOL    HW1 4927   2.668   0.554  12.326
 1010SOL    HW2 4928   2.758   0.556  12.448
 1011SOL     OW 4929  12.494  12.958   4.288
 1011SOL    HW1 4930  12.535  12.923   4.209
 1011SOL    HW2 4931  12.552  12.931   4.359
 1012SOL     OW 4932   0.288   3.572  11.134
 1012SOL    HW1 4933   0.297   3.634  11.206
 1012SOL    HW2 4934   0.371   3.575  11.087
 1013SOL     OW 4935   3.374  11.698   8.782
 1013SOL    HW1 4936   3.351  11.645   8.706
 1013SOL    HW2 4937   3.328  11.656   8.855
 1014SOL     OW 4938  14.087  11.856   4.821
 1014SOL    HW1 4939  14.123  11.878   4.736
 1014SOL    HW2 4940  14.129  11.773   4.844
 1015SOL     OW 4941   2.234   1.587   0.149
 1015SOL    HW1 4942   2.321   1.559   0.123
 1015SOL    HW2 4943   2.249   1.656   0.213
 1016SOL     OW 4944   6.283   1.553   3.258
 1016SOL    HW1 4945   6.326   1.637   3.269
 1016SOL    HW2 4946   6.349   1.497   3.217
 1017SOL     OW 4947  12.710   1.345   9.352
 1017SOL    HW1 4948  12.765   1.421   9.372
 1017SOL    HW2 4949  12.706   1.343   9.256
 1018SOL     OW 4950   3.666   0.907  13.978
 1018SOL    HW1 4951   3.737   0.937  13.922
 1018SOL    HW2 4952   3.705   0.901  14.065
 1019SOL     OW 4953   0.967   0.820   8.220
 1019SOL    HW1 4954   0.921   0.817   8.304
 1019SOL    HW2 4955   0.992   0.912   8.210
 1020SOL     OW 4956   8.665   4.044   6.409
 1020SOL    HW1 4957   8.675   3.964   6.461
 1020SOL    HW2 4958   8.585   4.085   6.443
 1021SOL     OW 4959   7.284  13.027   1.505
 1021SOL    HW1 4960   7.336  12.947   1.506
 1021SOL    HW2 4961   7.287  13.056   1.414
 1022SOL     OW 4962   3.785  11.326  14.625
 1022SOL    HW1 4963   3.714  11.262  14.630
 1022SOL    HW2 4964   3.776  11.365  14.538
 1023SOL     OW 4965   1.622   2.381  11.549
 1023SOL    HW1 4966   1.561   2.414  11.615
 1023SOL    HW2 4967   1.706   2.375  11.594
 1024SOL     OW 4968  10.566   7.549   2.533
 1024SOL    HW1 4969  10.528   7.574   2.449
 1024SOL    HW2 4970  10.505   7.486   2.570
 1025SOL     OW 4971   7.626   7.985   4.910
 1025SOL    HW1 4972   7.663   7.982   4.999
 1025SOL    HW2 4973   7.699   8.012   4.854
 1026SOL     OW 4974  10.853   5.278   1.612
 1026SOL    HW1 4975  10.935   5.298   1.567
 1026SOL    HW2 4976  10.816   5.204   1.564
 1027SOL     OW 4977   1.243  13.547   5.164
 1027SOL    HW1 4978   1.195  13.516   5.087
 1027SOL    HW2 4979   1.311  13.604   5.129
 1028SOL     OW 4980   4.940   8.205   0.853
 1028SOL    HW1 4981   4.849   8.231   0.869
 1028SOL    HW2 4982   4.987   8.287   0.839
 1029SOL     OW 4983   8.637   0.169  13.015
 1029SOL    HW1 4984   8.569   0.221  12.973
 1029SOL    HW2 4985   8.608   0.079  13.005
 1030SOL     OW 4986   5.039   9.544  11.231
 1030SOL    HW1 4987   5.104   9.480  11.262
 1030SOL    HW2 4988   4.973   9.491  11.185
 1031SOL     OW 4989   8.281   7.706  13.440
 1031SOL    HW1 4990   8.355   7.734  13.386
 1031SOL    HW2 4991   8.220   7.667  13.377
 1032SOL     OW 4992   6.470   0.117   2.019
 1032SOL    HW1 4993   6.557   0.157   2.028
 1032SOL    HW2 4994   6.409   0.190   2.029
 1033SOL     OW 4995   1.806   6.945   9.798
 1033SOL    HW1 4996   1.724   6.964   9.753
 1033SOL    HW2 4997   1.786   6.869   9.853
 1034SOL     OW 4998   2.862   7.162   6.059
 1034SOL    HW1 4999   2.866   7.214   6.140
 1034SOL    HW2 5000   2.769   7.160   6.037
 1035SOL     OW 5001   1.471  11.288   2.177
 1035SOL    HW1 5002   1.524  11.357   2.214
 1035SOL    HW2 5003   1.473  11.304   2.082
 1036SOL     OW 5004  13.092   8.443  11.252
 1036SOL    HW1 5005  13.011   8.440  11.303
 1036SOL    HW2 5006  13.151   8.499  11.303
 1037SOL     OW 5007   5.691  10.133   7.734
 1037SOL    HW1 5008   5.668  10.155   7.644
 1037SOL    HW2 5009   5.739  10.050   7.726
 1038SOL     OW 5010  12.981  11.555   0.574
 1038SOL    HW1 5011  12.945  11.506   0.501
 1038SOL    HW2 5012  13.011  11.637   0.536
 1039SOL     OW 5013   1.057   4.497   6.444
 1039SOL    HW1 5014   1.002   4.569   6.475
 1039SOL    HW2 5015   1.052   4.501   6.349
 1040SOL     OW 5016  12.676   7.913   0.154
 1040SOL    HW1 5017  12.605   7.977   0.152
 1040SOL    HW2 5018  12.632   7.828   0.153
 1041SOL     OW 5019  14.277  11.195   7.386
 1041SOL    HW1 5020  14.248  11.176   7.297
 1041SOL    HW2 5021  14.333  11.122   7.409
 1042SOL     OW 5022   7.590   2.895  12.204
 1042SOL    HW1 5023   7.597   2.802  12.181
 1042SOL    HW2 5024   7.553   2.936  12.126
 1043SOL     OW 5025  12.055   8.562   5.358
 1043SOL    HW1 5026  12.112   8.485   5.350
 1043SOL    HW2 5027  12.008   8.548   5.440
 1044SOL     OW 5028  14.263   4.563  14.014
 1044SOL    HW1 5029  14.277   4.642  13.961
 1044SOL    HW2 5030  14.339   4.560  14.073
 1045SOL     OW 5031   4.659   7.660   4.367
 1045SOL    HW1 5032   4.736   7.706   4.400
 1045SOL    HW2 5033   4.664   7.573   4.407
 1046SOL     OW 5034   6.670  14.834   8.341
 1046SOL    HW1 5035   6.695  14.748   8.306
 1046SOL    HW2 5036   6.751  14.871   8.376
 1047SOL     OW 5037   8.083   1.176   7.410
 1047SOL    HW1 5038   8.170   1.215   7.406
 1047SOL    HW2 5039   8.086   1.120   7.488
 1048SOL     OW 5040   9.792   8.838   0.271
 1048SOL    HW1 5041   9.729   8.838   0.199
 1048SOL    HW2 5042   9.815   8.931   0.282
 1049SOL     OW 5043   9.318   9.501   7.145
 1049SOL    HW1 5044   9.248   9.525   7.084
 1049SOL    HW2 5045   9.343   9.583   7.187
 1050SOL     OW 5046   4.243   8.746  12.063
 1050SOL    HW1 5047   4.224   8.837  12.038
 1050SOL    HW2 5048   4.245   8.699  11.980
 1051SOL     OW 5049   9.621   8.093   2.045
 1051SOL    HW1 5050   9.637   8.184   2.019
 1051SOL    HW2 5051   9.533   8.094   2.082
 1052SOL     OW 5052   5.505  11.390   7.183
 1052SOL    HW1 5053   5.520  11.475   7.142
 1052SOL    HW2 5054   5.570  11.384   7.252
 1053SOL     OW 5055   1.856   0.433   2.265
 1053SOL    HW1 5056   1.831   0.472   2.181
 1053SOL    HW2 5057   1.918   0.496   2.303
 1054SOL     OW 5058   2.713  12.452  12.850
 1054SOL    HW1 5059   2.654  12.514  12.808
 1054SOL    HW2 5060   2.710  12.374  12.793
 1055SOL     OW 5061  11.960   3.250   1.654
 1055SOL    HW1 5062  11.882   3.217   1.610
 1055SOL    HW2 5063  11.926   3.304   1.726
 1056SOL     OW 5064  12.116  11.528  12.151
 1056SOL    HW1 5065  12.180  11.457  12.159
 1056SOL    HW2 5066  12.168  11.608  12.155
 1057SOL     OW 5067   4.847   2.614  10.778
 1057SOL    HW1 5068   4.913   2.683  10.771
 1057SOL    HW2 5069   4.813   2.605  10.689
 1058SOL     OW 5070   7.850  11.930   5.954
 1058SOL    HW1 5071   7.840  12.005   5.895
 1058SOL    HW2 5072   7.760  11.901   5.972
 1059SOL     OW 5073   0.784   0.256   3.979
 1059SOL    HW1 5074   0.737   0.317   3.922
 1059SOL    HW2 5075   0.721   0.236   4.049
 1060SOL     OW 5076  14.519   4.918   4.009
 1060SOL    HW1 5077  14.536   4.895   4.100
 1060SOL    HW2 5078  14.533   5.013   4.005
 1061SOL     OW 5079   6.190   1.257   4.914
 1061SOL    HW1 5080   6.281   1.248   4.885
 1061SOL    HW2 5081   6.152   1.170   4.898
 1062SOL     OW 5082   0.358   2.162   4.195
 1062SOL    HW1 5083   0.341   2.068   4.189
 1062SOL    HW2 5084   0.434   2.176   4.140
 1063SOL     OW 5085  12.301   4.251   5.029
 1063SOL    HW1 5086  12.248   4.195   5.086
 1063SOL    HW2 5087  12.366   4.192   4.991
 1064SOL     OW 5088  13.359   7.978   7.280
 1064SOL    HW1 5089  13.338   7.955   7.190
 1064SOL    HW2 5090  13.282   7.952   7.330
 1065SOL     OW 5091  10.875   4.796   1.349
 1065SOL    HW1 5092  10.817   4.723   1.371
 1065SOL    HW2 5093  10.963   4.761   1.363
 1066SOL     OW 5094   1.049   9.016   0.523
 1066SOL    HW1 5095   1.053   8.921   0.533
 1066SOL    HW2 5096   1.139   9.045   0.540
 1067SOL     OW 5097   7.246  14.483   8.033
 1067SOL    HW1 5098   7.269  14.397   8.069
 1067SOL    HW2 5099   7.293  14.487   7.950
 1068SOL     OW 5100  10.138   6.426  13.686
 1068SOL    HW1 5101  10.084   6.481  13.744
 1068SOL    HW2 5102  10.164   6.351  13.740
 1069SOL     OW 5103  11.944  14.878   9.324
 1069SOL    HW1 5104  11.984   0.055   9.387
 1069SOL    HW2 5105  11.960   0.036   9.239
 1070SOL     OW 5106  10.925  10.879  13.936
 1070SOL    HW1 5107  10.894  10.969  13.943
 1070SOL    HW2 5108  10.978  10.865  14.015
 1071SOL     OW 5109  11.897   0.514   3.626
 1071SOL    HW1 5110  11.880   0.551   3.539
 1071SOL    HW2 5111  11.932   0.586   3.677
 1072SOL     OW 5112   9.456  11.794   3.939
 1072SOL    HW1 5113   9.460  11.885   3.909
 1072SOL    HW2 5114   9.362  11.773   3.939
 1073SOL     OW 5115   0.100   5.092   8.672
 1073SOL    HW1 5116   0.072   5.121   8.585
 1073SOL    HW2 5117   0.091   5.169   8.728
 1074SOL     OW 5118   3.936  10.296   6.677
 1074SOL    HW1 5119   4.007  10.232   6.686
 1074SOL    HW2 5120   3.958  10.364   6.741
 1075SOL     OW 5121  10.044   8.971   5.039
 1075SOL    HW1 5122  10.104   8.963   4.965
 1075SOL    HW2 5123  10.065   9.056   5.077
 1076SOL     OW 5124  11.203   9.982   2.136
 1076SOL    HW1 5125  11.161   9.900   2.164
 1076SOL    HW2 5126  11.203  10.036   2.215
 1077SOL     OW 5127   4.059   6.372  11.465
 1077SOL    HW1 5128   4.043   6.449  11.410
 1077SOL    HW2 5129   3.979   6.361  11.515
 1078SOL     OW 5130   9.597  14.671   0.749
 1078SOL    HW1 5131   9.687  14.703   0.754
 1078SOL    HW2 5132   9.605  14.581   0.719
 1079SOL     OW 5133  11.939   0.531   8.137
 1079SOL    HW1 5134  11.969   0.454   8.185
 1079SOL    HW2 5135  11.965   0.605   8.192
 1080SOL     OW 5136   8.751   8.977  10.663
 1080SOL    HW1 5137   8.797   9.059  10.646
 1080SOL    HW2 5138   8.660   8.996  10.640
 1081SOL     OW 5139   1.541   4.162   9.517
 1081SOL    HW1 5140   1.636   4.166   9.527
 1081SOL    HW2 5141   1.510   4.248   9.545
 1082SOL     OW 5142   1.755  10.331  11.908
 1082SOL    HW1 5143   1.770  10.391  11.835
 1082SOL    HW2 5144   1.685  10.371  11.958
 1083SOL     OW 5145  12.990   9.272   7.952
 1083SOL    HW1 5146  12.905   9.315   7.954
 1083SOL    HW2 5147  12.982   9.200   8.016
 1084SOL     OW 5148  11.671   8.152  11.161
 1084SOL    HW1 5149  11.647   8.102  11.083
 1084SOL    HW2 5150  11.595   8.144  11.219
 1085SOL     OW 5151   0.692  10.316   5.629
 1085SOL    HW1 5152   0.747  10.353   5.561
 1085SOL    HW2 5153   0.663  10.391   5.681
 1086SOL     OW 5154   6.708  13.480   8.166
 1086SOL    HW1 5155   6.716  13.404   8.223
 1086SOL    HW2 5156   6.758  13.548   8.211
 1087SOL     OW 5157   0.056  14.653  12.302
 1087SOL    HW1 5158  14.882  14.679  12.229
 1087SOL    HW2 5159   0.041  14.720  12.369
 1088SOL     OW 5160   0.177   1.876  13.107
 1088SOL    HW1 5161   0.098   1.845  13.062
 1088SOL    HW2 5162   0.248   1.855  13.046
 1089SOL     OW 5163   4.527   8.969   1.419
 1089SOL    HW1 5164   4.449   8.968   1.475
 1089SOL    HW2 5165   4.495   8.942   1.333
 1090SOL     OW 5166   3.755  10.817   3.061
 1090SOL    HW1 5167   3.709  10.734   3.075
 1090SOL    HW2 5168   3.787  10.812   2.971
 1091SOL     OW 5169   6.671   7.362   6.869
 1091SOL    HW1 5170   6.664   7.268   6.886
 1091SOL    HW2 5171   6.754   7.387   6.909
 1092SOL     OW 5172   0.905   0.956   8.858
 1092SOL    HW1 5173   0.987   0.995   8.826
 1092SOL    HW2 5174   0.855   0.938   8.779
 1093SOL     OW 5175   4.564   0.658   5.464
 1093SOL    HW1 5176   4.581   0.633   5.373
 1093SOL    HW2 5177   4.574   0.576   5.513
 1094SOL     OW 5178  11.338   3.268  10.172
 1094SOL    HW1 5179  11.325   3.176  10.150
 1094SOL    HW2 5180  11.337   3.270  10.268
 1095SOL     OW 5181   3.954   3.274  14.720
 1095SOL    HW1 5182   3.939   3.281  14.814
 1095SOL    HW2 5183   3.883   3.218  14.688
 1096SOL     OW 5184   3.523   7.331   5.698
 1096SOL    HW1 5185   3.597   7.279   5.729
 1096SOL    HW2 5186   3.510   7.302   5.607
 1097SOL     OW 5187   4.552   5.099  13.526
 1097SOL    HW1 5188   4.499   5.041  13.471
 1097SOL    HW2 5189   4.628   5.120  13.472
 1098SOL     OW 5190   2.544   6.111   5.611
 1098SOL    HW1 5191   2.626   6.094   5.657
 1098SOL    HW2 5192   2.484   6.141   5.680
 1099SOL     OW 5193   6.861  10.071   6.998
 1099SOL    HW1 5194   6.957  10.069   6.990
 1099SOL    HW2 5195   6.845  10.062   7.092
 1100SOL     OW 5196   1.462   7.588   0.461
 1100SOL    HW1 5197   1.495   7.677   0.470
 1100SOL    HW2 5198   1.368   7.598   0.447
 1101SOL     OW 5199  10.943  12.902   4.561
 1101SOL    HW1 5200  10.946  12.973   4.496
 1101SOL    HW2 5201  10.944  12.822   4.510
 1102SOL     OW 5202  13.706   5.023   7.731
 1102SOL    HW1 5203  13.751   4.958   7.785
 1102SOL    HW2 5204  13.771   5.093   7.720
 1103SOL     OW 5205   2.003   8.125   2.049
 1103SOL    HW1 5206   2.057   8.112   2.127
 1103SOL    HW2 5207   2.009   8.219   2.031
 1104SOL     OW 5208   6.135   8.396   4.959
 1104SOL    HW1 5209   6.214   8.365   4.914
 1104SOL    HW2 5210   6.105   8.320   5.009
 1105SOL     OW 5211  10.112   6.401  14.086
 1105SOL    HW1 5212  10.079   6.485  14.055
 1105SOL    HW2 5213  10.207   6.412  14.088
 1106SOL     OW 5214   1.185   0.440  10.407
 1106SOL    HW1 5215   1.242   0.467  10.335
 1106SOL    HW2 5216   1.177   0.345  10.396
 1107SOL     OW 5217  13.679   9.281  11.171
 1107SOL    HW1 5218  13.725   9.268  11.088
 1107SOL    HW2 5219  13.589   9.256  11.153
 1108SOL     OW 5220  11.435   7.020  12.259
 1108SOL    HW1 5221  11.401   6.987  12.175
 1108SOL    HW2 5222  11.515   7.067  12.236
 1109SOL     OW 5223  11.248  11.737  10.270
 1109SOL    HW1 5224  11.163  11.771  10.243
 1109SOL    HW2 5225  11.312  11.798  10.232
 1110SOL     OW 5226   1.088  14.797   4.692
 1110SOL    HW1 5227   1.000  14.822   4.665
 1110SOL    HW2 5228   1.103  14.844   4.774
 1111SOL     OW 5229   9.643   7.128   1.069
 1111SOL    HW1 5230   9.717   7.116   1.009
 1111SOL    HW2 5231   9.658   7.213   1.109
 1112SOL     OW 5232   5.380   2.711   4.533
 1112SOL    HW1 5233   5.368   2.719   4.439
 1112SOL    HW2 5234   5.415   2.623   4.545
 1113SOL     OW 5235   5.342   8.145  13.367
 1113SOL    HW1 5236   5.290   8.222  13.391
 1113SOL    HW2 5237   5.362   8.157  13.274
 1114SOL     OW 5238   2.433  14.206  10.794
 1114SOL    HW1 5239   2.506  14.263  10.819
 1114SOL    HW2 5240   2.358  14.265  10.786
 1115SOL     OW 5241   9.486   9.585  13.939
 1115SOL    HW1 5242   9.533   9.654  13.893
 1115SOL    HW2 5243   9.433   9.543  13.871
 1116SOL     OW 5244   3.878   2.818   3.443
 1116SOL    HW1 5245   3.970   2.794   3.447
 1116SOL    HW2 5246   3.832   2.747   3.488
 1117SOL     OW 5247   1.064   6.732   0.587
 1117SOL    HW1 5248   0.983   6.690   0.613
 1117SOL    HW2 5249   1.060   6.735   0.491
 1118SOL     OW 5250   4.748   5.286  10.320
 1118SOL    HW1 5251   4.677   5.283  10.257
 1118SOL    HW2 5252   4.810   5.350  10.284
 1119SOL     OW 5253  11.323  14.196  11.715
 1119SOL    HW1 5254  11.328  14.272  11.656
 1119SOL    HW2 5255  11.404  14.148  11.698
 1120SOL     OW 5256  12.186   3.620   3.137
 1120SOL    HW1 5257  12.157   3.605   3.227
 1120SOL    HW2 5258  12.237   3.701   3.141
 1121SOL     OW 5259   5.991  11.025  14.279
 1121SOL    HW1 5260   5.907  11.071  14.286
 1121SOL    HW2 5261   5.968  10.932  14.290
 1122SOL     OW 5262  13.435  10.892  11.059
 1122SOL    HW1 5263  13.437  10.987  11.072
 1122SOL    HW2 5264  13.462  10.856  11.144
 1123SOL     OW 5265   6.257  13.281   8.110
 1123SOL    HW1 5266   6.262  13.315   8.021
 1123SOL    HW2 5267   6.320  13.335   8.160
 1124SOL     OW 5268   3.193   0.732   5.550
 1124SOL    HW1 5269   3.128   0.696   5.489
 1124SOL    HW2 5270   3.246   0.790   5.496
 1125SOL     OW 5271  11.637   2.384   0.382
 1125SOL    HW1 5272  11.671   2.296   0.396
 1125SOL    HW2 5273  11.565   2.373   0.320
 1126SOL     OW 5274   2.828   5.646  14.332
 1126SOL    HW1 5275   2.880   5.569  14.306
 1126SOL    HW2 5276   2.836   5.706  14.259
 1127SOL     OW 5277  14.274   6.264   5.738
 1127SOL    HW1 5278  14.210   6.279   5.808
 1127SOL    HW2 5279  14.350   6.316   5.765
 1128SOL     OW 5280   6.177  12.652   9.283
 1128SOL    HW1 5281   6.203  12.597   9.209
 1128SOL    HW2 5282   6.128  12.724   9.243
 1129SOL     OW 5283  14.101   3.074   3.506
 1129SOL    HW1 5284  14.103   2.979   3.514
 1129SOL    HW2 5285  14.123   3.091   3.414
 1130SOL     OW 5286   9.138   2.270  14.554
 1130SOL    HW1 5287   9.103   2.343  14.503
 1130SOL    HW2 5288   9.071   2.253  14.621
 1131SOL     OW 5289   2.903   8.858  11.076
 1131SOL    HW1 5290   2.928   8.793  11.011
 1131SOL    HW2 5291   2.895   8.940  11.027
 1132SOL     OW 5292  10.807   7.533   0.607
 1132SOL    HW1 5293  10.849   7.613   0.577
 1132SOL    HW2 5294  10.795   7.547   0.702
 1133SOL     OW 5295  11.646  14.312  10.757
 1133SOL    HW1 5296  11.651  14.346  10.668
 1133SOL    HW2 5297  11.611  14.385  10.808
 1134SOL     OW 5298   0.885  12.540   7.096
 1134SOL    HW1 5299   0.963  12.595   7.096
 1134SOL    HW2 5300   0.850  12.547   7.007
 1135SOL     OW 5301   4.806   0.061  14.443
 1135SOL    HW1 5302   4.769   0.038  14.358
 1135SOL    HW2 5303   4.791  14.866  14.497
 1136SOL     OW 5304   1.640   0.245  12.385
 1136SOL    HW1 5305   1.685   0.221  12.304
 1136SOL    HW2 5306   1.604   0.162  12.418
 1137SOL     OW 5307   0.989   6.092   1.998
 1137SOL    HW1 5308   1.036   6.066   1.919
 1137SOL    HW2 5309   0.918   6.148   1.966
 1138SOL     OW 5310   4.119   4.975   0.323
 1138SOL    HW1 5311   4.092   5.065   0.338
 1138SOL    HW2 5312   4.171   4.978   0.243
 1139SOL     OW 5313   5.592   1.916   0.896
 1139SOL    HW1 5314   5.569   2.008   0.880
 1139SOL    HW2 5315   5.629   1.886   0.812
 1140SOL     OW 5316  10.778   5.700   0.930
 1140SOL    HW1 5317  10.819   5.629   0.978
 1140SOL    HW2 5318  10.686   5.697   0.956
 1141SOL     OW 5319   9.123   8.850   9.849
 1141SOL    HW1 5320   9.169   8.766   9.852
 1141SOL    HW2 5321   9.040   8.830   9.808
 1142SOL     OW 5322   4.799   9.073   8.155
 1142SOL    HW1 5323   4.715   9.118   8.158
 1142SOL    HW2 5324   4.778   8.980   8.164
 1143SOL     OW 5325   4.904   5.674   4.287
 1143SOL    HW1 5326   4.812   5.665   4.261
 1143SOL    HW2 5327   4.903   5.669   4.382
 1144SOL     OW 5328   1.400   7.758   1.913
 1144SOL    HW1 5329   1.335   7.785   1.849
 1144SOL    HW2 5330   1.445   7.840   1.938
 1145SOL     OW 5331  12.869   3.840   6.572
 1145SOL    HW1 5332  12.908   3.805   6.652
 1145SOL    HW2 5333  12.904   3.929   6.566
 1146SOL     OW 5334  10.250  12.314  12.598
 1146SOL    HW1 5335  10.318  12.378  12.577
 1146SOL    HW2 5336  10.169  12.354  12.567
 1147SOL     OW 5337   8.183   4.278   6.891
 1147SOL    HW1 5338   8.113   4.324   6.846
 1147SOL    HW2 5339   8.164   4.185   6.878
 1148SOL     OW 5340  11.499   7.423   7.088
 1148SOL    HW1 5341  11.582   7.378   7.100
 1148SOL    HW2 5342  11.482   7.467   7.171
 1149SOL     OW 5343  10.421   5.683   7.886
 1149SOL    HW1 5344  10.336   5.650   7.857
 1149SOL    HW2 5345  10.484   5.639   7.831
 1150SOL     OW 5346  10.239   9.473   0.170
 1150SOL    HW1 5347  10.258   9.391   0.124
 1150SOL    HW2 5348  10.165   9.510   0.122
 1151SOL     OW 5349  10.051   1.138   5.082
 1151SOL    HW1 5350  10.026   1.190   5.158
 1151SOL    HW2 5351   9.994   1.061   5.086
 1152SOL     OW 5352  14.539  12.293  12.123
 1152SOL    HW1 5353  14.517  12.308  12.031
 1152SOL    HW2 5354  14.581  12.207  12.124
 1153SOL     OW 5355   4.776  12.691   6.100
 1153SOL    HW1 5356   4.684  12.707   6.119
 1153SOL    HW2 5357   4.809  12.775   6.068
 1154SOL     OW 5358  11.273   1.519  14.064
 1154SOL    HW1 5359  11.231   1.493  13.982
 1154SOL    HW2 5360  11.212   1.490  14.132
 1155SOL     OW 5361   0.937   4.901  12.272
 1155SOL    HW1 5362   1.026   4.869  12.289
 1155SOL    HW2 5363   0.937   4.990  12.306
 1156SOL     OW 5364  14.252   2.383   8.148
 1156SOL    HW1 5365  14.263   2.448   8.078
 1156SOL    HW2 5366  14.285   2.426   8.227
 1157SOL     OW 5367  11.001   1.371   5.838
 1157SOL    HW1 5368  10.993   1.440   5.773
 1157SOL    HW2 5369  10.911   1.353   5.865
 1158SOL     OW 5370  14.647   3.940  11.169
 1158SOL    HW1 5371  14.716   4.004  11.187
 1158SOL    HW2 5372  14.681   3.858  11.206
 1159SOL     OW 5373   6.301   1.301   2.208
 1159SOL    HW1 5374   6.254   1.373   2.167
 1159SOL    HW2 5375   6.351   1.261   2.136
 1160SOL     OW 5376  12.415   6.667  14.449
 1160SOL    HW1 5377  12.419   6.574  14.427
 1160SOL    HW2 5378  12.408   6.711  14.364
 1161SOL     OW 5379   4.240   9.252  11.169
 1161SOL    HW1 5380   4.148   9.260  11.196
 1161SOL    HW2 5381   4.273   9.177  11.218
 1162SOL     OW 5382  14.033   3.445   6.366
 1162SOL    HW1 5383  13.981   3.496   6.303
 1162SOL    HW2 5384  14.033   3.356   6.329
 1163SOL     OW 5385  11.783   8.909   1.304
 1163SOL    HW1 5386  11.864   8.952   1.276
 1163SOL    HW2 5387  11.721   8.981   1.319
 1164SOL     OW 5388  10.540   4.768  10.916
 1164SOL    HW1 5389  10.549   4.753  10.822
 1164SOL    HW2 5390  10.616   4.822  10.939
 1165SOL     OW 5391  13.122   3.761  13.592
 1165SOL    HW1 5392  13.212   3.757  13.625
 1165SOL    HW2 5393  13.074   3.811  13.659
 1166SOL     OW 5394   5.057   8.678   6.239
 1166SOL    HW1 5395   5.103   8.597   6.262
 1166SOL    HW2 5396   5.127   8.737   6.210
 1167SOL     OW 5397   0.110  12.578   1.299
 1167SOL    HW1 5398   0.024  12.618   1.292
 1167SOL    HW2 5399   0.161  12.640   1.352
 1168SOL     OW 5400  10.137   8.124   3.458
 1168SOL    HW1 5401  10.069   8.151   3.519
 1168SOL    HW2 5402  10.093   8.066   3.396
 1169SOL     OW 5403   3.230   0.090  11.176
 1169SOL    HW1 5404   3.319   0.102  11.210
 1169SOL    HW2 5405   3.237   0.112  11.083
 1170SOL     OW 5406   4.967   9.604   3.928
 1170SOL    HW1 5407   4.995   9.514   3.915
 1170SOL    HW2 5408   5.020   9.635   4.001
 1171SOL     OW 5409   3.116  12.803   0.645
 1171SOL    HW1 5410   3.168  12.782   0.567
 1171SOL    HW2 5411   3.126  12.726   0.702
 1172SOL     OW 5412   4.485   0.713   7.257
 1172SOL    HW1 5413   4.488   0.801   7.220
 1172SOL    HW2 5414   4.471   0.727   7.351
 1173SOL     OW 5415   2.870   8.506   6.936
 1173SOL    HW1 5416   2.867   8.537   7.026
 1173SOL    HW2 5417   2.954   8.537   6.903
 1174SOL     OW 5418   2.788   7.427   4.264
 1174SOL    HW1 5419   2.855   7.381   4.215
 1174SOL    HW2 5420   2.786   7.384   4.349
 1175SOL     OW 5421   1.568   0.063   9.453
 1175SOL    HW1 5422   1.567  14.871   9.393
 1175SOL    HW2 5423   1.593   0.138   9.398
 1176SOL     OW 5424   8.638   6.552   2.479
 1176SOL    HW1 5425   8.621   6.580   2.568
 1176SOL    HW2 5426   8.598   6.465   2.474
 1177SOL     OW 5427   6.106   5.592  14.017
 1177SOL    HW1 5428   6.186   5.642  14.000
 1177SOL    HW2 5429   6.078   5.621  14.104
 1178SOL     OW 5430  11.037  12.030  13.982
 1178SOL    HW1 5431  11.100  11.995  14.046
 1178SOL    HW2 5432  11.022  12.120  14.010
 1179SOL     OW 5433  11.681   7.203  12.427
 1179SOL    HW1 5434  11.674   7.179  12.519
 1179SOL    HW2 5435  11.749   7.145  12.392
 1180SOL     OW 5436   8.606   8.829   4.291
 1180SOL    HW1 5437   8.573   8.892   4.355
 1180SOL    HW2 5438   8.699   8.850   4.282
 1181SOL     OW 5439   4.664   0.955   4.045
 1181SOL    HW1 5440   4.706   0.967   4.130
 1181SOL    HW2 5441   4.706   0.878   4.008
 1182SOL     OW 5442   7.826  13.572   9.431
 1182SOL    HW1 5443   7.766  13.507   9.468
 1182SOL    HW2 5444   7.913  13.533   9.442
 1183SOL     OW 5445  13.462   4.088  13.160
 1183SOL    HW1 5446  13.398   4.149  13.122
 1183SOL    HW2 5447  13.546   4.116  13.122
 1184SOL     OW 5448   4.255   6.751   9.092
 1184SOL    HW1 5449   4.232   6.830   9.141
 1184SOL    HW2 5450   4.188   6.687   9.115
 1185SOL     OW 5451   1.085   1.644   1.521
 1185SOL    HW1 5452   1.130   1.586   1.460
 1185SOL    HW2 5453   1.050   1.715   1.467
 1186SOL     OW 5454  13.641   2.945   9.119
 1186SOL    HW1 5455  13.598   2.917   9.200
 1186SOL    HW2 5456  13.722   2.987   9.147
 1187SOL     OW 5457   4.742   4.700   1.880
 1187SOL    HW1 5458   4.691   4.747   1.946
 1187SOL    HW2 5459   4.819   4.668   1.927
 1188SOL     OW 5460   5.515   0.338   0.157
 1188SOL    HW1 5461   5.582   0.312   0.220
 1188SOL    HW2 5462   5.497   0.258   0.107
 1189SOL     OW 5463  13.651  14.012   2.932
 1189SOL    HW1 5464  13.735  14.057   2.923
 1189SOL    HW2 5465  13.620  14.037   3.020
 1190SOL     OW 5466   2.328   2.686  13.971
 1190SOL    HW1 5467   2.254   2.649  14.018
 1190SOL    HW2 5468   2.352   2.763  14.021
 1191SOL     OW 5469   1.827  13.189   5.904
 1191SOL    HW1 5470   1.748  13.241   5.918
 1191SOL    HW2 5471   1.890  13.251   5.867
 1192SOL     OW 5472   4.579   1.741   1.610
 1192SOL    HW1 5473   4.518   1.676   1.575
 1192SOL    HW2 5474   4.559   1.821   1.562
 1193SOL     OW 5475   6.548   5.797   6.600
 1193SOL    HW1 5476   6.610   5.813   6.671
 1193SOL    HW2 5477   6.597   5.817   6.520
 1194SOL     OW 5478   2.343   4.096   7.031
 1194SOL    HW1 5479   2.329   4.108   7.125
 1194SOL    HW2 5480   2.349   4.185   6.996
 1195SOL     OW 5481   1.851   4.260   0.143
 1195SOL    HW1 5482   1.894   4.288   0.223
 1195SOL    HW2 5483   1.919   4.269   0.075
 1196SOL     OW 5484   9.393  14.031   2.161
 1196SOL    HW1 5485   9.438  14.112   2.140
 1196SOL    HW2 5486   9.430  13.967   2.100
 1197SOL     OW 5487   5.050   0.488   8.280
 1197SOL    HW1 5488   5.139   0.476   8.311
 1197SOL    HW2 5489   5.056   0.479   8.185
 1198SOL     OW 5490   4.944   4.352  12.930
 1198SOL    HW1 5491   4.950   4.273  12.877
 1198SOL    HW2 5492   4.944   4.321  13.020
 1199SOL     OW 5493   7.976  12.750   3.069
 1199SOL    HW1 5494   8.018  12.831   3.039
 1199SOL    HW2 5495   8.045  12.705   3.119
 1200SOL     OW 5496   7.002   8.188   4.308
 1200SOL    HW1 5497   7.031   8.097   4.309
 1200SOL    HW2 5498   6.933   8.192   4.373
 1201SOL     OW 5499   8.508   1.150  12.004
 1201SOL    HW1 5500   8.583   1.189  11.958
 1201SOL    HW2 5501   8.432   1.197  11.971
 1202SOL     OW 5502  13.352   0.199   8.639
 1202SOL    HW1 5503  13.447   0.200   8.629
 1202SOL    HW2 5504  13.337   0.143   8.716
 1203SOL     OW 5505  13.167  13.190   6.000
 1203SOL    HW1 5506  13.140  13.118   6.057
 1203SOL    HW2 5507  13.085  13.220   5.960
 1204SOL     OW 5508   4.081   4.336   0.742
 1204SOL    HW1 5509   4.103   4.283   0.819
 1204SOL    HW2 5510   4.166   4.352   0.699
 1205SOL     OW 5511   7.166  12.803   4.748
 1205SOL    HW1 5512   7.235  12.786   4.684
 1205SOL    HW2 5513   7.145  12.895   4.736
 1206SOL     OW 5514   9.127   1.857   0.102
 1206SOL    HW1 5515   9.034   1.874   0.116
 1206SOL    HW2 5516   9.164   1.854   0.190
 1207SOL     OW 5517  12.722   4.688   7.186
 1207SOL    HW1 5518  12.640   4.694   7.136
 1207SOL    HW2 5519  12.787   4.731   7.131
 1208SOL     OW 5520  13.015   8.014   6.382
 1208SOL    HW1 5521  12.963   7.953   6.434
 1208SOL    HW2 5522  13.102   8.013   6.422
 1209SOL     OW 5523   0.393  10.336   0.390
 1209SOL    HW1 5524   0.421  10.357   0.479
 1209SOL    HW2 5525   0.360  10.419   0.356
 1210SOL     OW 5526  10.634   4.490   8.989
 1210SOL    HW1 5527  10.597   4.539   9.062
 1210SOL    HW2 5528  10.634   4.399   9.018
 1211SOL     OW 5529  13.394   4.686   5.545
 1211SOL    HW1 5530  13.425   4.595   5.546
 1211SOL    HW2 5531  13.394   4.712   5.637
 1212SOL     OW 5532   9.467  11.196   1.441
 1212SOL    HW1 5533   9.412  11.230   1.371
 1212SOL    HW2 5534   9.426  11.113   1.466
 1213SOL     OW 5535   8.928   7.914   9.232
 1213SOL    HW1 5536   8.984   7.918   9.310
 1213SOL    HW2 5537   8.856   7.856   9.258
 1214SOL     OW 5538  10.024   8.104  12.096
 1214SOL    HW1 5539   9.950   8.147  12.138
 1214SOL    HW2 5540   9.984   8.049  12.028
 1215SOL     OW 5541  13.197   0.312   5.620
 1215SOL    HW1 5542  13.202   0.216   5.627
 1215SOL    HW2 5543  13.104   0.331   5.615
 1216SOL     OW 5544   2.511  10.718  13.521
 1216SOL    HW1 5545   2.607  10.715  13.524
 1216SOL    HW2 5546   2.488  10.652  13.455
 1217SOL     OW 5547   2.457   0.485   8.060
 1217SOL    HW1 5548   2.415   0.483   7.974
 1217SOL    HW2 5549   2.426   0.566   8.100
 1218SOL     OW 5550  13.048  11.023  14.168
 1218SOL    HW1 5551  12.964  11.027  14.123
 1218SOL    HW2 5552  13.068  11.114  14.189
 1219SOL     OW 5553   5.158   8.996  11.008
 1219SOL    HW1 5554   5.217   9.068  11.030
 1219SOL    HW2 5555   5.127   9.017  10.920
 1220SOL     OW 5556   9.506   4.274  11.391
 1220SOL    HW1 5557   9.514   4.238  11.303
 1220SOL    HW2 5558   9.545   4.361  11.384
 1221SOL     OW 5559   7.050   8.454   5.352
 1221SOL    HW1 5560   7.098   8.372   5.346
 1221SOL    HW2 5561   6.965   8.435   5.312
 1222SOL     OW 5562  10.549  14.329  12.683
 1222SOL    HW1 5563  10.552  14.244  12.640
 1222SOL    HW2 5564  10.541  14.392  12.612
 1223SOL     OW 5565   4.034   1.796   3.820
 1223SOL    HW1 5566   4.015   1.836   3.734
 1223SOL    HW2 5567   3.948   1.791   3.863
 1224SOL     OW 5568   3.366   3.226   4.873
 1224SOL    HW1 5569   3.280   3.266   4.858
 1224SOL    HW2 5570   3.406   3.220   4.786
 1225SOL     OW 5571  13.047   9.802  14.600
 1225SOL    HW1 5572  12.965   9.779  14.557
 1225SOL    HW2 5573  13.051   9.745  14.677
 1226SOL     OW 5574  11.081  11.421  11.495
 1226SOL    HW1 5575  11.131  11.351  11.537
 1226SOL    HW2 5576  11.123  11.432  11.409
 1227SOL     OW 5577   3.326   7.108   6.980
 1227SOL    HW1 5578   3.262   7.089   7.049
 1227SOL    HW2 5579   3.274   7.110   6.899
 1228SOL     OW 5580   5.488  14.481   0.564
 1228SOL    HW1 5581   5.567  14.450   0.519
 1228SOL    HW2 5582   5.520  14.512   0.649
 1229SOL     OW 5583   6.867   5.254   0.480
 1229SOL    HW1 5584   6.775   5.233   0.498
 1229SOL    HW2 5585   6.917   5.184   0.521
 1230SOL     OW 5586   5.792   3.389  12.646
 1230SOL    HW1 5587   5.852   3.315  12.653
 1230SOL    HW2 5588   5.749   3.379  12.561
 1231SOL     OW 5589   0.289   4.977   7.798
 1231SOL    HW1 5590   0.229   5.034   7.847
 1231SOL    HW2 5591   0.362   5.035   7.774
 1232SOL     OW 5592  12.411  14.257   3.929
 1232SOL    HW1 5593  12.487  14.240   3.874
 1232SOL    HW2 5594  12.336  14.250   3.870
 1233SOL     OW 5595   4.967   9.052   6.190
 1233SOL    HW1 5596   4.979   9.116   6.120
 1233SOL    HW2 5597   4.916   9.098   6.256
 1234SOL     OW 5598   0.261   3.189  12.881
 1234SOL    HW1 5599   0.295   3.268  12.839
 1234SOL    HW2 5600   0.334   3.127  12.878
 1235SOL     OW 5601   0.119   0.407   6.584
 1235SOL    HW1 5602   0.213   0.391   6.576
 1235SOL    HW2 5603   0.103   0.410   6.678
 1236SOL     OW 5604   4.258   4.477  10.863
 1236SOL    HW1 5605   4.336   4.423  10.849
 1236SOL    HW2 5606   4.252   4.530  10.783
 1237SOL     OW 5607   3.049   0.865   3.180
 1237SOL    HW1 5608   3.080   0.785   3.222
 1237SOL    HW2 5609   3.024   0.838   3.092
 1238SOL     OW 5610   9.377   8.015   0.046
 1238SOL    HW1 5611   9.449   7.953   0.049
 1238SOL    HW2 5612   9.383   8.063   0.129
 1239SOL     OW 5613   4.846   4.258  11.623
 1239SOL    HW1 5614   4.766   4.264  11.675
 1239SOL    HW2 5615   4.815   4.261  11.532
 1240SOL     OW 5616  14.330   5.022   6.484
 1240SOL    HW1 5617  14.317   5.090   6.550
 1240SOL    HW2 5618  14.294   5.059   6.404
 1241SOL     OW 5619   8.007   3.837   0.977
 1241SOL    HW1 5620   8.055   3.812   0.898
 1241SOL    HW2 5621   8.075   3.850   1.043
 1242SOL     OW 5622   4.631   1.021   2.950
 1242SOL    HW1 5623   4.647   0.944   2.896
 1242SOL    HW2 5624   4.717   1.043   2.987
 1243SOL     OW 5625  11.158   0.001   1.924
 1243SOL    HW1 5626  11.181  14.806   1.977
 1243SOL    HW2 5627  11.187  14.860   1.836
 1244SOL     OW 5628   1.572  13.994  13.692
 1244SOL    HW1 5629   1.535  13.919  13.740
 1244SOL    HW2 5630   1.556  13.973  13.600
 1245SOL     OW 5631   9.183   4.916   3.550
 1245SOL    HW1 5632   9.251   4.957   3.496
 1245SOL    HW2 5633   9.201   4.947   3.639
 1246SOL     OW 5634   1.443   8.077   4.431
 1246SOL    HW1 5635   1.452   8.041   4.519
 1246SOL    HW2 5636   1.493   8.158   4.434
 1247SOL     OW 5637   7.893   4.609   0.429
 1247SOL    HW1 5638   7.880   4.607   0.334
 1247SOL    HW2 5639   7.805   4.598   0.465
 1248SOL     OW 5640   0.425   5.435  10.099
 1248SOL    HW1 5641   0.504   5.457  10.049
 1248SOL    HW2 5642   0.449   5.455  10.190
 1249SOL     OW 5643   8.868   9.352  11.074
 1249SOL    HW1 5644   8.936   9.335  11.139
 1249SOL    HW2 5645   8.801   9.401  11.123
 1250SOL     OW 5646   0.272   6.463  14.212
 1250SOL    HW1 5647   0.193   6.409  14.218
 1250SOL    HW2 5648   0.238   6.552  14.197
 1251SOL     OW 5649  12.269   4.314   5.632
 1251SOL    HW1 5650  12.268   4.355   5.719
 1251SOL    HW2 5651  12.200   4.361   5.583
 1252SOL     OW 5652  11.298  12.261   3.026
 1252SOL    HW1 5653  11.346  12.210   3.091
 1252SOL    HW2 5654  11.228  12.202   2.997
 1253SOL     OW 5655   3.570   0.279   4.762
 1253SOL    HW1 5656   3.518   0.357   4.775
 1253SOL    HW2 5657   3.520   0.209   4.805
 1254SOL     OW 5658   6.972   0.755   8.813
 1254SOL    HW1 5659   6.916   0.789   8.743
 1254SOL    HW2 5660   6.992   0.665   8.786
 1255SOL     OW 5661  11.619   4.910   1.685
 1255SOL    HW1 5662  11.594   4.847   1.753
 1255SOL    HW2 5663  11.554   4.897   1.616
 1256SOL     OW 5664   7.699  13.599   2.208
 1256SOL    HW1 5665   7.730  13.689   2.210
 1256SOL    HW2 5666   7.751  13.557   2.140
 1257SOL     OW 5667  11.420   7.760   7.887
 1257SOL    HW1 5668  11.325   7.772   7.895
 1257SOL    HW2 5669  11.435   7.668   7.907
 1258SOL     OW 5670   4.344   8.459   8.031
 1258SOL    HW1 5671   4.404   8.533   8.023
 1258SOL    HW2 5672   4.401   8.383   8.045
 1259SOL     OW 5673   8.156  11.093   3.443
 1259SOL    HW1 5674   8.226  11.043   3.485
 1259SOL    HW2 5675   8.088  11.028   3.424
 1260SOL     OW 5676   0.975  12.035  11.273
 1260SOL    HW1 5677   1.040  12.078  11.217
 1260SOL    HW2 5678   0.895  12.034  11.220
 1261SOL     OW 5679   5.066   4.954   1.001
 1261SOL    HW1 5680   5.012   4.905   1.063
 1261SOL    HW2 5681   5.085   4.892   0.931
 1262SOL     OW 5682  10.326   1.771   3.114
 1262SOL    HW1 5683  10.417   1.791   3.134
 1262SOL    HW2 5684  10.328   1.680   3.081
 1263SOL     OW 5685   1.486   6.199  10.537
 1263SOL    HW1 5686   1.536   6.151  10.603
 1263SOL    HW2 5687   1.396   6.200  10.570
 1264SOL     OW 5688   5.427   5.129   1.835
 1264SOL    HW1 5689   5.359   5.076   1.876
 1264SOL    HW2 5690   5.387   5.161   1.755
 1265SOL     OW 5691   2.237   6.944  11.214
 1265SOL    HW1 5692   2.151   6.927  11.252
 1265SOL    HW2 5693   2.289   6.981  11.286
 1266SOL     OW 5694   5.845  14.380   9.305
 1266SOL    HW1 5695   5.877  14.393   9.395
 1266SOL    HW2 5696   5.773  14.441   9.297
 1267SOL     OW 5697   6.478  13.711   1.157
 1267SOL    HW1 5698   6.477  13.621   1.190
 1267SOL    HW2 5699   6.392  13.746   1.181
 1268SOL     OW 5700   0.757   2.044   6.896
 1268SOL    HW1 5701   0.669   2.033   6.932
 1268SOL    HW2 5702   0.801   2.101   6.959
 1269SOL     OW 5703  11.873  10.858  13.044
 1269SOL    HW1 5704  11.832  10.865  13.130
 1269SOL    HW2 5705  11.824  10.920  12.989
 1270SOL     OW 5706   5.874   0.128   3.788
 1270SOL    HW1 5707   5.834   0.126   3.701
 1270SOL    HW2 5708   5.840   0.049   3.831
 1271SOL     OW 5709  10.883  13.126  10.235
 1271SOL    HW1 5710  10.962  13.122  10.181
 1271SOL    HW2 5711  10.900  13.064  10.306
 1272SOL     OW 5712   8.053  12.681   7.279
 1272SOL    HW1 5713   8.120  12.652   7.217
 1272SOL    HW2 5714   7.989  12.610   7.281
 1273SOL     OW 5715  12.107   4.300   7.900
 1273SOL    HW1 5716  12.171   4.313   7.969
 1273SOL    HW2 5717  12.108   4.206   7.884
 1274SOL     OW 5718   0.084   6.656  13.648
 1274SOL    HW1 5719   0.060   6.686  13.736
 1274SOL    HW2 5720   0.177   6.679  13.640
 1275SOL     OW 5721   9.240  11.997  10.665
 1275SOL    HW1 5722   9.248  12.079  10.714
 1275SOL    HW2 5723   9.314  11.944  10.696
 1276SOL     OW 5724   8.048   7.394   6.325
 1276SOL    HW1 5725   8.136   7.367   6.300
 1276SOL    HW2 5726   8.039   7.365   6.416
 1277SOL     OW 5727  12.160   8.118   5.241
 1277SOL    HW1 5728  12.169   8.083   5.153
 1277SOL    HW2 5729  12.237   8.084   5.288
 1278SOL     OW 5730   6.683   7.811   7.312
 1278SOL    HW1 5731   6.744   7.752   7.356
 1278SOL    HW2 5732   6.670   7.772   7.225
 1279SOL     OW 5733  14.830  10.985   3.125
 1279SOL    HW1 5734  14.760  10.950   3.071
 1279SOL    HW2 5735   0.011  10.913   3.132
 1280SOL     OW 5736  11.256   5.315   3.507
 1280SOL    HW1 5737  11.183   5.341   3.451
 1280SOL    HW2 5738  11.330   5.307   3.447
 1281SOL     OW 5739   5.159   3.303  10.812
 1281SOL    HW1 5740   5.142   3.315  10.718
 1281SOL    HW2 5741   5.196   3.386  10.841
 1282SOL     OW 5742   2.228  11.269   3.383
 1282SOL    HW1 5743   2.298  11.307   3.330
 1282SOL    HW2 5744   2.168  11.231   3.319
 1283SOL     OW 5745  12.370  14.811   8.217
 1283SOL    HW1 5746  12.306  14.787   8.284
 1283SOL    HW2 5747  12.389   0.021   8.234
 1284SOL     OW 5748   1.170   2.924   4.497
 1284SOL    HW1 5749   1.143   2.920   4.589
 1284SOL    HW2 5750   1.197   2.834   4.476
 1285SOL     OW 5751   4.514  13.218   7.551
 1285SOL    HW1 5752   4.518  13.278   7.477
 1285SOL    HW2 5753   4.463  13.143   7.519
 1286SOL     OW 5754   8.523   8.074  14.085
 1286SOL    HW1 5755   8.473   7.993  14.076
 1286SOL    HW2 5756   8.491   8.130  14.014
 1287SOL     OW 5757   5.807  14.581   8.302
 1287SOL    HW1 5758   5.764  14.513   8.250
 1287SOL    HW2 5759   5.782  14.562   8.392
 1288SOL     OW 5760   5.346  10.919   0.680
 1288SOL    HW1 5761   5.309  10.863   0.749
 1288SOL    HW2 5762   5.425  10.873   0.653
 1289SOL     OW 5763  13.278   8.833   5.173
 1289SOL    HW1 5764  13.249   8.829   5.264
 1289SOL    HW2 5765  13.373   8.836   5.177
 1290SOL     OW 5766   6.101   5.783   8.385
 1290SOL    HW1 5767   6.112   5.765   8.478
 1290SOL    HW2 5768   6.034   5.851   8.383
 1291SOL     OW 5769   7.846   3.231   6.830
 1291SOL    HW1 5770   7.788   3.156   6.823
 1291SOL    HW2 5771   7.828   3.282   6.751
 1292SOL     OW 5772   0.523   7.121   1.819
 1292SOL    HW1 5773   0.589   7.080   1.763
 1292SOL    HW2 5774   0.554   7.211   1.831
 1293SOL     OW 5775   6.084   3.578   3.063
 1293SOL    HW1 5776   6.014   3.624   3.016
 1293SOL    HW2 5777   6.049   3.490   3.079
 1294SOL     OW 5778   2.632   9.071  11.029
 1294SOL    HW1 5779   2.655   9.106  11.115
 1294SOL    HW2 5780   2.715   9.038  10.994
 1295SOL     OW 5781   1.906   5.557  12.437
 1295SOL    HW1 5782   1.811   5.569  12.444
 1295SOL    HW2 5783   1.942   5.640  12.468
 1296SOL     OW 5784   7.459   1.011   1.902
 1296SOL    HW1 5785   7.550   1.038   1.911
 1296SOL    HW2 5786   7.434   0.981   1.989
 1297SOL     OW 5787   7.695  11.568   7.139
 1297SOL    HW1 5788   7.636  11.624   7.190
 1297SOL    HW2 5789   7.684  11.597   7.049
 1298SOL     OW 5790  13.243   8.114  12.856
 1298SOL    HW1 5791  13.175   8.136  12.792
 1298SOL    HW2 5792  13.217   8.028  12.889
 1299SOL     OW 5793   7.560  14.448   8.215
 1299SOL    HW1 5794   7.543  14.486   8.301
 1299SOL    HW2 5795   7.562  14.524   8.156
 1300SOL     OW 5796   2.626  14.215   5.943
 1300SOL    HW1 5797   2.681  14.216   6.021
 1300SOL    HW2 5798   2.561  14.284   5.959
 1301SOL     OW 5799   2.961   9.612  10.769
 1301SOL    HW1 5800   2.952   9.694  10.818
 1301SOL    HW2 5801   3.055   9.597  10.765
 1302SOL     OW 5802  14.362  12.489   4.059
 1302SOL    HW1 5803  14.316  12.543   4.124
 1302SOL    HW2 5804  14.432  12.447   4.109
 1303SOL     OW 5805   8.987   7.668  14.192
 1303SOL    HW1 5806   8.952   7.723  14.262
 1303SOL    HW2 5807   9.066   7.630  14.229
 1304SOL     OW 5808   4.400  13.903  11.125
 1304SOL    HW1 5809   4.475  13.949  11.088
 1304SOL    HW2 5810   4.398  13.932  11.216
 1305SOL     OW 5811   0.482  13.197   1.957
 1305SOL    HW1 5812   0.550  13.155   1.904
 1305SOL    HW2 5813   0.509  13.183   2.047
 1306SOL     OW 5814   1.096   8.006   6.196
 1306SOL    HW1 5815   1.091   7.998   6.101
 1306SOL    HW2 5816   1.044   8.084   6.217
 1307SOL     OW 5817   2.737   0.446   1.925
 1307SOL    HW1 5818   2.740   0.509   1.852
 1307SOL    HW2 5819   2.809   0.386   1.907
 1308SOL     OW 5820  11.065   8.585   1.256
 1308SOL    HW1 5821  10.987   8.559   1.305
 1308SOL    HW2 5822  11.133   8.524   1.286
 1309SOL     OW 5823   8.476   5.872  14.021
 1309SOL    HW1 5824   8.532   5.917  14.083
 1309SOL    HW2 5825   8.403   5.932  14.007
 1310SOL     OW 5826  12.017   6.590   7.772
 1310SOL    HW1 5827  11.990   6.532   7.843
 1310SOL    HW2 5828  12.063   6.661   7.815
 1311SOL     OW 5829   6.849   0.794   2.809
 1311SOL    HW1 5830   6.772   0.837   2.846
 1311SOL    HW2 5831   6.844   0.704   2.841
 1312SOL     OW 5832  13.444   0.777   8.802
 1312SOL    HW1 5833  13.475   0.727   8.878
 1312SOL    HW2 5834  13.436   0.867   8.833
 1313SOL     OW 5835   7.168  13.799  13.449
 1313SOL    HW1 5836   7.234  13.756  13.504
 1313SOL    HW2 5837   7.219  13.847  13.384
 1314SOL     OW 5838  13.605  10.897   7.222
 1314SOL    HW1 5839  13.580  10.981   7.184
 1314SOL    HW2 5840  13.554  10.832   7.174
 1315SOL     OW 5841  10.473   1.375   7.027
 1315SOL    HW1 5842  10.491   1.368   7.121
 1315SOL    HW2 5843  10.477   1.285   6.995
 1316SOL     OW 5844  11.704  11.612  14.499
 1316SOL    HW1 5845  11.614  11.638  14.521
 1316SOL    HW2 5846  11.706  11.614  14.404
 1317SOL     OW 5847  12.632  14.691   0.849
 1317SOL    HW1 5848  12.693  14.761   0.822
 1317SOL    HW2 5849  12.556  14.738   0.883
 1318SOL     OW 5850   6.262  11.865   0.142
 1318SOL    HW1 5851   6.262  11.802   0.070
 1318SOL    HW2 5852   6.332  11.927   0.120
 1319SOL     OW 5853   7.332   6.129   6.971
 1319SOL    HW1 5854   7.334   6.194   6.901
 1319SOL    HW2 5855   7.350   6.046   6.927
 1320SOL     OW 5856   6.342   9.251   8.283
 1320SOL    HW1 5857   6.282   9.215   8.347
 1320SOL    HW2 5858   6.404   9.179   8.266
 1321SOL     OW 5859   3.164  12.228  11.105
 1321SOL    HW1 5860   3.133  12.316  11.126
 1321SOL    HW2 5861   3.086  12.174  11.109
 1322SOL     OW 5862  14.729  10.577   1.701
 1322SOL    HW1 5863  14.771  10.644   1.649
 1322SOL    HW2 5864  14.733  10.498   1.646
 1323SOL     OW 5865  12.922  11.767   8.030
 1323SOL    HW1 5866  13.004  11.718   8.041
 1323SOL    HW2 5867  12.855  11.699   8.029
 1324SOL     OW 5868   4.580   5.381   2.283
 1324SOL    HW1 5869   4.619   5.431   2.355
 1324SOL    HW2 5870   4.652   5.366   2.222
 1325SOL     OW 5871   4.711  10.480  10.098
 1325SOL    HW1 5872   4.741  10.551  10.042
 1325SOL    HW2 5873   4.791  10.438  10.129
 1326SOL     OW 5874  13.975   5.258  14.538
 1326SOL    HW1 5875  14.014   5.204  14.606
 1326SOL    HW2 5876  13.922   5.322  14.585
 1327SOL     OW 5877   6.493   3.944   5.650
 1327SOL    HW1 5878   6.550   3.961   5.576
 1327SOL    HW2 5879   6.527   4.000   5.720
 1328SOL     OW 5880   6.656  11.940   8.440
 1328SOL    HW1 5881   6.746  11.972   8.450
 1328SOL    HW2 5882   6.607  11.985   8.509
 1329SOL     OW 5883  14.246   4.766   9.562
 1329SOL    HW1 5884  14.181   4.785   9.630
 1329SOL    HW2 5885  14.202   4.704   9.504
 1330SOL     OW 5886   8.566  11.797   2.699
 1330SOL    HW1 5887   8.621  11.865   2.660
 1330SOL    HW2 5888   8.485  11.800   2.648
 1331SOL     OW 5889  10.784  11.290   6.121
 1331SOL    HW1 5890  10.825  11.375   6.105
 1331SOL    HW2 5891  10.777  11.284   6.216
 1332SOL     OW 5892  12.399  11.302   5.994
 1332SOL    HW1 5893  12.358  11.382   5.960
 1332SOL    HW2 5894  12.395  11.241   5.920
 1333SOL     OW 5895   9.481   2.380  13.873
 1333SOL    HW1 5896   9.500   2.286  13.879
 1333SOL    HW2 5897   9.529   2.410  13.797
 1334SOL     OW 5898   0.152   4.419   8.639
 1334SOL    HW1 5899   0.112   4.404   8.725
 1334SOL    HW2 5900   0.212   4.345   8.628
 1335SOL     OW 5901   7.965   1.743   0.137
 1335SOL    HW1 5902   8.034   1.807   0.152
 1335SOL    HW2 5903   7.983   1.706   0.051
 1336SOL     OW 5904   3.246   7.440  12.920
 1336SOL    HW1 5905   3.331   7.443  12.964
 1336SOL    HW2 5906   3.267   7.441  12.827
 1337SOL     OW 5907  10.292  14.270   8.919
 1337SOL    HW1 5908  10.323  14.265   8.829
 1337SOL    HW2 5909  10.348  14.335   8.961
 1338SOL     OW 5910   3.982  14.791   6.445
 1338SOL    HW1 5911   3.975  14.875   6.400
 1338SOL    HW2 5912   4.075  14.768   6.439
 1339SOL     OW 5913   1.068  13.711  12.765
 1339SOL    HW1 5914   1.162  13.729  12.761
 1339SOL    HW2 5915   1.062  13.624  12.804
 1340SOL     OW 5916   4.189  13.805   8.272
 1340SOL    HW1 5917   4.100  13.837   8.260
 1340SOL    HW2 5918   4.221  13.849   8.350
 1341SOL     OW 5919   8.178  11.728  13.584
 1341SOL    HW1 5920   8.127  11.805  13.561
 1341SOL    HW2 5921   8.220  11.702  13.501
 1342SOL     OW 5922   7.905  11.312   6.823
 1342SOL    HW1 5923   7.934  11.364   6.898
 1342SOL    HW2 5924   7.984  11.269   6.791
 1343SOL     OW 5925  14.709   9.468   5.245
 1343SOL    HW1 5926  14.639   9.480   5.180
 1343SOL    HW2 5927  14.678   9.515   5.322
 1344SOL     OW 5928   6.869  10.146  13.130
 1344SOL    HW1 5929   6.916  10.108  13.204
 1344SOL    HW2 5930   6.930  10.141  13.057
 1345SOL     OW 5931   1.735  10.490   8.096
 1345SOL    HW1 5932   1.775  10.436   8.164
 1345SOL    HW2 5933   1.663  10.535   8.141
 1346SOL     OW 5934   8.964   4.727   7.588
 1346SOL    HW1 5935   8.890   4.786   7.605
 1346SOL    HW2 5936   8.974   4.729   7.493
 1347SOL     OW 5937   0.043   7.746   4.211
 1347SOL    HW1 5938   0.119   7.801   4.188
 1347SOL    HW2 5939   0.027   7.694   4.132
 1348SOL     OW 5940   2.605  11.101   1.893
 1348SOL    HW1 5941   2.576  11.147   1.814
 1348SOL    HW2 5942   2.627  11.171   1.954
 1349SOL     OW 5943   8.560  13.663   4.449
 1349SOL    HW1 5944   8.490  13.723   4.473
 1349SOL    HW2 5945   8.622  13.718   4.399
 1350SOL     OW 5946   4.468   0.986   9.699
 1350SOL    HW1 5947   4.451   1.057   9.760
 1350SOL    HW2 5948   4.559   0.960   9.718
 1351SOL     OW 5949   7.538  10.003   9.737
 1351SOL    HW1 5950   7.481   9.934   9.702
 1351SOL    HW2 5951   7.539   9.988   9.831
 1352SOL     OW 5952  10.062   6.035  14.303
 1352SOL    HW1 5953  10.156   6.051  14.309
 1352SOL    HW2 5954  10.045   6.027  14.209
 1353SOL     OW 5955  14.009  14.633   4.505
 1353SOL    HW1 5956  13.929  14.685   4.503
 1353SOL    HW2 5957  14.063  14.673   4.573
 1354SOL     OW 5958   3.444  14.322   8.487
 1354SOL    HW1 5959   3.459  14.236   8.448
 1354SOL    HW2 5960   3.359  14.315   8.530
 1355SOL     OW 5961   6.710   8.935   6.532
 1355SOL    HW1 5962   6.758   8.901   6.608
 1355SOL    HW2 5963   6.644   8.993   6.571
 1356SOL     OW 5964   5.884   9.746  10.757
 1356SOL    HW1 5965   5.893   9.732  10.663
 1356SOL    HW2 5966   5.906   9.839  10.769
 1357SOL     OW 5967  14.733   0.230  14.461
 1357SOL    HW1 5968  14.823   0.241  14.491
 1357SOL    HW2 5969  14.713   0.311  14.415
 1358SOL     OW 5970   4.109  11.936   6.693
 1358SOL    HW1 5971   4.120  12.010   6.753
 1358SOL    HW2 5972   4.022  11.948   6.655
 1359SOL     OW 5973   4.710   8.390  14.503
 1359SOL    HW1 5974   4.615   8.383  14.515
 1359SOL    HW2 5975   4.729   8.335  14.427
 1360SOL     OW 5976   9.256   5.101  11.317
 1360SOL    HW1 5977   9.241   5.143  11.402
 1360SOL    HW2 5978   9.208   5.156  11.255
 1361SOL     OW 5979   1.884  13.783   9.466
 1361SOL    HW1 5980   1.902  13.769   9.559
 1361SOL    HW2 5981   1.946  13.726   9.420
 1362SOL     OW 5982   5.549  11.855   1.458
 1362SOL    HW1 5983   5.465  11.835   1.500
 1362SOL    HW2 5984   5.558  11.789   1.389
 1363SOL     OW 5985  12.042  13.627   0.566
 1363SOL    HW1 5986  12.020  13.558   0.504
 1363SOL    HW2 5987  11.992  13.703   0.535
 1364SOL     OW 5988  12.067   9.734   4.220
 1364SOL    HW1 5989  12.135   9.667   4.207
 1364SOL    HW2 5990  12.114   9.807   4.260
 1365SOL     OW 5991  10.122  12.314   8.765
 1365SOL    HW1 5992  10.200  12.285   8.813
 1365SOL    HW2 5993  10.150  12.394   8.722
 1366SOL     OW 5994  12.180   4.781  14.433
 1366SOL    HW1 5995  12.146   4.826  14.511
 1366SOL    HW2 5996  12.239   4.715  14.468
 1367SOL     OW 5997   5.113  12.145  10.579
 1367SOL    HW1 5998   5.159  12.097  10.510
 1367SOL    HW2 5999   5.052  12.082  10.616
 1368SOL     OW 6000   2.007   5.871  12.689
 1368SOL    HW1 6001   2.045   5.876  12.602
 1368SOL    HW2 6002   2.059   5.804  12.734
 1369SOL     OW 6003  11.128   7.277  11.153
 1369SOL    HW1 6004  11.063   7.256  11.086
 1369SOL    HW2 6005  11.180   7.348  11.115
 1370SOL     OW 6006   2.530   7.353  12.059
 1370SOL    HW1 6007   2.516   7.383  12.149
 1370SOL    HW2 6008   2.531   7.434  12.007
 1371SOL     OW 6009   1.692  11.410   2.596
 1371SOL    HW1 6010   1.687  11.327   2.644
 1371SOL    HW2 6011   1.621  11.463   2.631
 1372SOL     OW 6012   6.259  12.209   0.652
 1372SOL    HW1 6013   6.194  12.141   0.670
 1372SOL    HW2 6014   6.257  12.266   0.729
 1373SOL     OW 6015   8.839   8.081  11.960
 1373SOL    HW1 6016   8.902   8.133  11.910
 1373SOL    HW2 6017   8.774   8.054  11.894
 1374SOL     OW 6018   3.242   6.793  11.454
 1374SOL    HW1 6019   3.329   6.758  11.473
 1374SOL    HW2 6020   3.236   6.790  11.358
 1375SOL     OW 6021  11.309   8.808   6.625
 1375SOL    HW1 6022  11.361   8.845   6.553
 1375SOL    HW2 6023  11.293   8.882   6.683
 1376SOL     OW 6024  14.043  12.056  11.874
 1376SOL    HW1 6025  14.078  12.134  11.916
 1376SOL    HW2 6026  14.040  11.990  11.943
 1377SOL     OW 6027   8.834  14.208   4.349
 1377SOL    HW1 6028   8.865  14.284   4.397
 1377SOL    HW2 6029   8.894  14.137   4.376
 1378SOL     OW 6030   9.040  12.985  13.854
 1378SOL    HW1 6031   9.063  13.028  13.936
 1378SOL    HW2 6032   8.993  12.906  13.880
 1379SOL     OW 6033   6.577  14.583  14.158
 1379SOL    HW1 6034   6.544  14.650  14.218
 1379SOL    HW2 6035   6.499  14.547  14.116
 1380SOL     OW 6036  12.296   9.839  12.547
 1380SOL    HW1 6037  12.243   9.877  12.617
 1380SOL    HW2 6038  12.271   9.887  12.468
 1381SOL     OW 6039  14.118  13.513   0.763
 1381SOL    HW1 6040  14.078  13.468   0.688
 1381SOL    HW2 6041  14.211  13.520   0.741
 1382SOL     OW 6042   7.375   0.761   6.301
 1382SOL    HW1 6043   7.454   0.785   6.252
 1382SOL    HW2 6044   7.404   0.762   6.393
 1383SOL     OW 6045   2.704   9.371   1.493
 1383SOL    HW1 6046   2.609   9.382   1.483
 1383SOL    HW2 6047   2.738   9.385   1.405
 1384SOL     OW 6048   2.242  14.433   8.835
 1384SOL    HW1 6049   2.305  14.384   8.888
 1384SOL    HW2 6050   2.158  14.417   8.879
 1385SOL     OW 6051   7.136  12.559   2.564
 1385SOL    HW1 6052   7.216  12.527   2.521
 1385SOL    HW2 6053   7.138  12.654   2.549
 1386SOL     OW 6054   2.483  10.167  13.626
 1386SOL    HW1 6055   2.563  10.130  13.664
 1386SOL    HW2 6056   2.413  10.111  13.659
 1387SOL     OW 6057   1.662   8.778   5.947
 1387SOL    HW1 6058   1.706   8.700   5.979
 1387SOL    HW2 6059   1.733   8.838   5.923
 1388SOL     OW 6060   7.566   4.793   9.239
 1388SOL    HW1 6061   7.492   4.825   9.186
 1388SOL    HW2 6062   7.569   4.699   9.221
 1389SOL     OW 6063   2.332   4.756   2.290
 1389SOL    HW1 6064   2.353   4.673   2.247
 1389SOL    HW2 6065   2.377   4.750   2.375
 1390SOL     OW 6066   0.161   5.376   8.902
 1390SOL    HW1 6067   0.067   5.369   8.920
 1390SOL    HW2 6068   0.172   5.465   8.869
 1391SOL     OW 6069  13.384   3.462   6.619
 1391SOL    HW1 6070  13.375   3.430   6.709
 1391SOL    HW2 6071  13.348   3.392   6.565
 1392SOL     OW 6072   7.009   0.730   8.399
 1392SOL    HW1 6073   7.030   0.750   8.307
 1392SOL    HW2 6074   7.095   0.721   8.441
 1393SOL     OW 6075   0.938   2.716   6.200
 1393SOL    HW1 6076   1.025   2.705   6.162
 1393SOL    HW2 6077   0.926   2.638   6.254
 1394SOL     OW 6078   0.842   3.742   4.036
 1394SOL    HW1 6079   0.932   3.719   4.014
 1394SOL    HW2 6080   0.791   3.713   3.960
 1395SOL     OW 6081  14.464  12.674   9.892
 1395SOL    HW1 6082  14.491  12.630   9.973
 1395SOL    HW2 6083  14.546  12.699   9.849
 1396SOL     OW 6084  10.760  10.991   7.908
 1396SOL    HW1 6085  10.673  10.951   7.913
 1396SOL    HW2 6086  10.815  10.938   7.965
 1397SOL     OW 6087   3.490   9.565   7.937
 1397SOL    HW1 6088   3.556   9.525   7.993
 1397SOL    HW2 6089   3.409   9.560   7.987
 1398SOL     OW 6090   7.393   4.020   9.095
 1398SOL    HW1 6091   7.367   4.037   9.186
 1398SOL    HW2 6092   7.367   4.099   9.048
 1399SOL     OW 6093  11.320   7.709  14.100
 1399SOL    HW1 6094  11.333   7.790  14.051
 1399SOL    HW2 6095  11.255   7.660  14.050
 1400SOL     OW 6096   7.069  12.810   7.671
 1400SOL    HW1 6097   7.034  12.896   7.693
 1400SOL    HW2 6098   7.146  12.827   7.617
 1401SOL     OW 6099   1.980   9.179   7.107
 1401SOL    HW1 6100   2.009   9.136   7.188
 1401SOL    HW2 6101   2.055   9.173   7.048
 1402SOL     OW 6102   0.845   9.911  14.804
 1402SOL    HW1 6103   0.934   9.880  14.788
 1402SOL    HW2 6104   0.857   9.993  14.852
 1403SOL     OW 6105  14.880  11.237   0.615
 1403SOL    HW1 6106   0.038  11.182   0.548
 1403SOL    HW2 6107  14.786  11.225   0.602
 1404SOL     OW 6108   7.305   3.260   9.605
 1404SOL    HW1 6109   7.315   3.241   9.699
 1404SOL    HW2 6110   7.394   3.256   9.571
 1405SOL     OW 6111  12.482  12.050  12.161
 1405SOL    HW1 6112  12.402  12.094  12.190
 1405SOL    HW2 6113  12.493  12.077  12.070
 1406SOL     OW 6114   2.397   4.791  13.267
 1406SOL    HW1 6115   2.378   4.883  13.281
 1406SOL    HW2 6116   2.417   4.785  13.173
 1407SOL     OW 6117  13.895   6.630  12.018
 1407SOL    HW1 6118  13.885   6.646  11.924
 1407SOL    HW2 6119  13.810   6.594  12.044
 1408SOL     OW 6120   7.727   5.074  12.267
 1408SOL    HW1 6121   7.801   5.035  12.312
 1408SOL    HW2 6122   7.688   5.002  12.217
 1409SOL     OW 6123  10.277  13.951   5.499
 1409SOL    HW1 6124  10.196  13.986   5.462
 1409SOL    HW2 6125  10.345  13.978   5.437
 1410SOL     OW 6126   1.524   2.383   7.133
 1410SOL    HW1 6127   1.537   2.347   7.221
 1410SOL    HW2 6128   1.458   2.452   7.145
 1411SOL     OW 6129   9.335  10.270  10.975
 1411SOL    HW1 6130   9.390  10.347  10.990
 1411SOL    HW2 6131   9.324  10.231  11.061
 1412SOL     OW 6132  11.325   4.500   3.487
 1412SOL    HW1 6133  11.389   4.529   3.422
 1412SOL    HW2 6134  11.350   4.409   3.505
 1413SOL     OW 6135   1.860  11.733   3.536
 1413SOL    HW1 6136   1.907  11.806   3.576
 1413SOL    HW2 6137   1.889  11.733   3.445
 1414SOL     OW 6138  10.903   6.699   6.159
 1414SOL    HW1 6139  10.881   6.621   6.209
 1414SOL    HW2 6140  10.927   6.666   6.073
 1415SOL     OW 6141   0.170  11.459   0.294
 1415SOL    HW1 6142   0.254  11.421   0.271
 1415SOL    HW2 6143   0.167  11.456   0.390
 1416SOL     OW 6144   6.037  14.432   7.302
 1416SOL    HW1 6145   5.950  14.471   7.313
 1416SOL    HW2 6146   6.020  14.338   7.299
 1417SOL     OW 6147   7.072   6.636  10.499
 1417SOL    HW1 6148   7.117   6.715  10.530
 1417SOL    HW2 6149   7.090   6.634  10.405
 1418SOL     OW 6150   5.384  10.406  14.261
 1418SOL    HW1 6151   5.323  10.344  14.220
 1418SOL    HW2 6152   5.452  10.351  14.300
 1419SOL     OW 6153   2.103   0.010  10.716
 1419SOL    HW1 6154   2.136  14.806  10.688
 1419SOL    HW2 6155   2.155   0.073  10.666
 1420SOL     OW 6156   1.414   3.687  12.653
 1420SOL    HW1 6157   1.487   3.644  12.699
 1420SOL    HW2 6158   1.337   3.636  12.679
 1421SOL     OW 6159   2.954  12.633   2.338
 1421SOL    HW1 6160   3.035  12.587   2.357
 1421SOL    HW2 6161   2.967  12.721   2.373
 1422SOL     OW 6162  14.586  12.291   3.822
 1422SOL    HW1 6163  14.537  12.368   3.851
 1422SOL    HW2 6164  14.556  12.276   3.732
 1423SOL     OW 6165   1.833   4.539   9.140
 1423SOL    HW1 6166   1.927   4.551   9.146
 1423SOL    HW2 6167   1.799   4.625   9.114
 1424SOL     OW 6168  14.296   7.288  14.843
 1424SOL    HW1 6169  14.336   7.316   0.043
 1424SOL    HW2 6170  14.340   7.340  14.776
 1425SOL     OW 6171  13.104   2.181  11.682
 1425SOL    HW1 6172  13.034   2.227  11.637
 1425SOL    HW2 6173  13.174   2.173  11.617
 1426SOL     OW 6174   3.670  13.017  14.731
 1426SOL    HW1 6175   3.733  13.005  14.660
 1426SOL    HW2 6176   3.614  13.089  14.701
 1427SOL     OW 6177   5.057  11.374   7.761
 1427SOL    HW1 6178   5.040  11.443   7.696
 1427SOL    HW2 6179   5.069  11.421   7.843
 1428SOL     OW 6180   3.052   6.046  10.098
 1428SOL    HW1 6181   2.972   6.083  10.135
 1428SOL    HW2 6182   3.021   5.986  10.030
 1429SOL     OW 6183   6.196   6.222   5.324
 1429SOL    HW1 6184   6.166   6.190   5.239
 1429SOL    HW2 6185   6.241   6.304   5.305
 1430SOL     OW 6186  14.195   2.866   1.323
 1430SOL    HW1 6187  14.104   2.886   1.346
 1430SOL    HW2 6188  14.190   2.788   1.267
 1431SOL     OW 6189   0.549  12.963  10.847
 1431SOL    HW1 6190   0.612  13.030  10.820
 1431SOL    HW2 6191   0.588  12.921  10.923
 1432SOL     OW 6192   3.274   9.126  11.058
 1432SOL    HW1 6193   3.331   9.125  10.981
 1432SOL    HW2 6194   3.312   9.193  11.114
 1433SOL     OW 6195   7.893   1.065   8.454
 1433SOL    HW1 6196   7.921   1.062   8.362
 1433SOL    HW2 6197   7.799   1.080   8.450
 1434SOL     OW 6198   9.363   2.303   6.007
 1434SOL    HW1 6199   9.331   2.328   6.093
 1434SOL    HW2 6200   9.310   2.228   5.982
 1435SOL     OW 6201   6.682   7.657  12.994
 1435SOL    HW1 6202   6.698   7.610  13.075
 1435SOL    HW2 6203   6.609   7.716  13.013
 1436SOL     OW 6204  11.626  11.378  12.285
 1436SOL    HW1 6205  11.580  11.303  12.323
 1436SOL    HW2 6206  11.710  11.380  12.330
 1437SOL     OW 6207   3.425  13.998  14.881
 1437SOL    HW1 6208   3.394  14.022  14.794
 1437SOL    HW2 6209   3.520  14.012  14.877
 1438SOL     OW 6210   9.947  11.354  14.299
 1438SOL    HW1 6211   9.952  11.308  14.215
 1438SOL    HW2 6212   9.860  11.394  14.299
 1439SOL     OW 6213  10.849   4.552   6.448
 1439SOL    HW1 6214  10.879   4.467   6.415
 1439SOL    HW2 6215  10.924   4.611   6.435
 1440SOL     OW 6216  11.707   6.197   1.838
 1440SOL    HW1 6217  11.611   6.193   1.837
 1440SOL    HW2 6218  11.731   6.194   1.746
 1441SOL     OW 6219  14.681   4.883  10.893
 1441SOL    HW1 6220  14.683   4.977  10.872
 1441SOL    HW2 6221  14.590   4.866  10.915
 1442SOL     OW 6222  11.862  12.250   8.179
 1442SOL    HW1 6223  11.768  12.236   8.165
 1442SOL    HW2 6224  11.887  12.314   8.113
 1443SOL     OW 6225   0.039  11.145   6.670
 1443SOL    HW1 6226   0.092  11.142   6.749
 1443SOL    HW2 6227   0.101  11.139   6.598
 1444SOL     OW 6228   1.175   7.111  12.281
 1444SOL    HW1 6229   1.247   7.069  12.233
 1444SOL    HW2 6230   1.128   7.038  12.322
 1445SOL     OW 6231   2.854  12.726   5.917
 1445SOL    HW1 6232   2.840  12.815   5.884
 1445SOL    HW2 6233   2.779  12.709   5.974
 1446SOL     OW 6234   8.009   2.545   0.644
 1446SOL    HW1 6235   8.046   2.619   0.693
 1446SOL    HW2 6236   7.967   2.490   0.710
 1447SOL     OW 6237   5.587   7.516   0.666
 1447SOL    HW1 6238   5.508   7.467   0.645
 1447SOL    HW2 6239   5.555   7.597   0.706
 1448SOL     OW 6240   9.344   1.645   6.086
 1448SOL    HW1 6241   9.259   1.609   6.111
 1448SOL    HW2 6242   9.347   1.635   5.991
 1449SOL     OW 6243   0.607   4.859   2.882
 1449SOL    HW1 6244   0.603   4.766   2.861
 1449SOL    HW2 6245   0.685   4.891   2.837
 1450SOL     OW 6246   3.887   9.692  14.882
 1450SOL    HW1 6247   3.883   9.768  14.824
 1450SOL    HW2 6248   3.966   9.645  14.855
 1451SOL     OW 6249  10.933   2.128   4.827
 1451SOL    HW1 6250  10.902   2.147   4.738
 1451SOL    HW2 6251  10.858   2.149   4.883
 1452SOL     OW 6252  13.659   9.327  14.609
 1452SOL    HW1 6253  13.677   9.234  14.603
 1452SOL    HW2 6254  13.566   9.335  14.585
 1453SOL     OW 6255  11.237   1.888  12.059
 1453SOL    HW1 6256  11.157   1.861  12.014
 1453SOL    HW2 6257  11.219   1.873  12.152
 1454SOL     OW 6258  11.669   2.314  13.752
 1454SOL    HW1 6259  11.693   2.286  13.664
 1454SOL    HW2 6260  11.612   2.390  13.738
 1455SOL     OW 6261   4.420   0.229   8.091
 1455SOL    HW1 6262   4.379   0.189   8.014
 1455SOL    HW2 6263   4.415   0.323   8.074
 1456SOL     OW 6264   5.109  13.673  12.117
 1456SOL    HW1 6265   5.147  13.754  12.151
 1456SOL    HW2 6266   5.185  13.617  12.101
 1457SOL     OW 6267   7.632   2.851   4.440
 1457SOL    HW1 6268   7.612   2.831   4.531
 1457SOL    HW2 6269   7.553   2.830   4.392
 1458SOL     OW 6270   7.836   9.739   1.010
 1458SOL    HW1 6271   7.792   9.707   0.931
 1458SOL    HW2 6272   7.891   9.811   0.979
 1459SOL     OW 6273  12.861  14.451  13.569
 1459SOL    HW1 6274  12.895  14.368  13.602
 1459SOL    HW2 6275  12.927  14.516  13.593
 1460SOL     OW 6276   2.258   1.442   4.336
 1460SOL    HW1 6277   2.344   1.403   4.324
 1460SOL    HW2 6278   2.213   1.426   4.253
 1461SOL     OW 6279   9.250  12.830   0.080
 1461SOL    HW1 6280   9.312  12.872   0.020
 1461SOL    HW2 6281   9.166  12.869   0.056
 1462SOL     OW 6282   4.819   0.896   4.948
 1462SOL    HW1 6283   4.819   0.938   5.034
 1462SOL    HW2 6284   4.823   0.969   4.886
 1463SOL     OW 6285   7.434  14.189   3.420
 1463SOL    HW1 6286   7.498  14.125   3.451
 1463SOL    HW2 6287   7.363  14.185   3.484
 1464SOL     OW 6288   0.384   2.394   8.811
 1464SOL    HW1 6289   0.393   2.417   8.904
 1464SOL    HW2 6290   0.382   2.299   8.809
 1465SOL     OW 6291   7.478  13.193  11.653
 1465SOL    HW1 6292   7.513  13.272  11.695
 1465SOL    HW2 6293   7.503  13.122  11.712
 1466SOL     OW 6294  12.156  11.612   3.598
 1466SOL    HW1 6295  12.242  11.584   3.566
 1466SOL    HW2 6296  12.105  11.631   3.519
 1467SOL     OW 6297   3.591   4.268  11.348
 1467SOL    HW1 6298   3.567   4.281  11.256
 1467SOL    HW2 6299   3.509   4.242  11.390
 1468SOL     OW 6300   5.101   7.176  10.519
 1468SOL    HW1 6301   5.141   7.248  10.470
 1468SOL    HW2 6302   5.157   7.101  10.502
 1469SOL     OW 6303   0.243  14.349  12.006
 1469SOL    HW1 6304   0.161  14.315  11.968
 1469SOL    HW2 6305   0.220  14.437  12.036
 1470SOL     OW 6306   3.883   5.233   6.669
 1470SOL    HW1 6307   3.860   5.164   6.732
 1470SOL    HW2 6308   3.827   5.307   6.693
 1471SOL     OW 6309   6.067   6.345   2.678
 1471SOL    HW1 6310   6.022   6.411   2.731
 1471SOL    HW2 6311   6.124   6.396   2.620
 1472SOL     OW 6312   2.068   1.095   0.385
 1472SOL    HW1 6313   2.088   1.023   0.325
 1472SOL    HW2 6314   2.151   1.113   0.429
 1473SOL     OW 6315   3.894  14.723  12.227
 1473SOL    HW1 6316   3.897  14.662  12.153
 1473SOL    HW2 6317   3.849  14.800  12.193
 1474SOL     OW 6318   9.822  11.733   0.865
 1474SOL    HW1 6319   9.866  11.711   0.947
 1474SOL    HW2 6320   9.883  11.708   0.796
 1475SOL     OW 6321  12.116   8.433   5.031
 1475SOL    HW1 6322  12.207   8.407   5.041
 1475SOL    HW2 6323  12.071   8.389   5.103
 1476SOL     OW 6324   7.358   4.839   6.220
 1476SOL    HW1 6325   7.406   4.883   6.290
 1476SOL    HW2 6326   7.397   4.752   6.215
 1477SOL     OW 6327   2.572  13.776   1.292
 1477SOL    HW1 6328   2.605  13.832   1.363
 1477SOL    HW2 6329   2.499  13.729   1.331
 1478SOL     OW 6330  14.260   7.547   2.095
 1478SOL    HW1 6331  14.254   7.466   2.146
 1478SOL    HW2 6332  14.234   7.615   2.157
 1479SOL     OW 6333   5.704  12.479   6.787
 1479SOL    HW1 6334   5.697  12.559   6.736
 1479SOL    HW2 6335   5.621  12.433   6.771
 1480SOL     OW 6336   1.066  12.451   8.222
 1480SOL    HW1 6337   1.118  12.389   8.273
 1480SOL    HW2 6338   1.053  12.408   8.137
 1481SOL     OW 6339   1.643   2.834   3.737
 1481SOL    HW1 6340   1.658   2.871   3.650
 1481SOL    HW2 6341   1.601   2.905   3.786
 1482SOL     OW 6342   9.330   6.128  12.600
 1482SOL    HW1 6343   9.359   6.037  12.591
 1482SOL    HW2 6344   9.264   6.139  12.532
 1483SOL     OW 6345  14.541   8.852   2.016
 1483SOL    HW1 6346  14.497   8.921   1.968
 1483SOL    HW2 6347  14.557   8.889   2.103
 1484SOL     OW 6348   9.108   4.521   2.077
 1484SOL    HW1 6349   9.194   4.534   2.038
 1484SOL    HW2 6350   9.112   4.568   2.160
 1485SOL     OW 6351   9.125  14.752   7.645
 1485SOL    HW1 6352   9.194  14.697   7.683
 1485SOL    HW2 6353   9.139  14.838   7.683
 1486SOL     OW 6354  13.711   4.997   0.581
 1486SOL    HW1 6355  13.739   5.038   0.662
 1486SOL    HW2 6356  13.769   4.921   0.572
 1487SOL     OW 6357   1.842   9.192  10.725
 1487SOL    HW1 6358   1.928   9.166  10.692
 1487SOL    HW2 6359   1.786   9.192  10.647
 1488SOL     OW 6360  14.419  11.595  13.794
 1488SOL    HW1 6361  14.461  11.660  13.850
 1488SOL    HW2 6362  14.448  11.617  13.706
 1489SOL     OW 6363   4.298   9.548   6.898
 1489SOL    HW1 6364   4.391   9.566   6.881
 1489SOL    HW2 6365   4.276   9.606   6.971
 1490SOL     OW 6366  10.901   2.631   4.814
 1490SOL    HW1 6367  10.837   2.693   4.780
 1490SOL    HW2 6368  10.887   2.632   4.909
 1491SOL     OW 6369  13.051   1.592   1.092
 1491SOL    HW1 6370  13.141   1.617   1.113
 1491SOL    HW2 6371  13.059   1.522   1.027
 1492SOL     OW 6372   7.951   8.914  13.490
 1492SOL    HW1 6373   7.970   8.932  13.582
 1492SOL    HW2 6374   7.959   8.819  13.482
 1493SOL     OW 6375   0.131   3.172   2.807
 1493SOL    HW1 6376   0.143   3.253   2.757
 1493SOL    HW2 6377   0.090   3.112   2.745
 1494SOL     OW 6378   8.885   0.254   0.199
 1494SOL    HW1 6379   8.945   0.195   0.244
 1494SOL    HW2 6380   8.880   0.331   0.256
 1495SOL     OW 6381   7.786  10.914   5.787
 1495SOL    HW1 6382   7.837  10.935   5.708
 1495SOL    HW2 6383   7.786  10.818   5.791
 1496SOL     OW 6384  10.315   0.651   9.212
 1496SOL    HW1 6385  10.297   0.638   9.118
 1496SOL    HW2 6386  10.394   0.600   9.229
 1497SOL     OW 6387   9.907  14.404  10.140
 1497SOL    HW1 6388   9.927  14.341  10.072
 1497SOL    HW2 6389   9.830  14.452  10.107
 1498SOL     OW 6390   2.099  10.713  14.559
 1498SOL    HW1 6391   2.059  10.763  14.487
 1498SOL    HW2 6392   2.143  10.780  14.612
 1499SOL     OW 6393   4.367   9.761   2.270
 1499SOL    HW1 6394   4.349   9.813   2.192
 1499SOL    HW2 6395   4.316   9.681   2.257
 1500SOL     OW 6396   0.435   0.999   4.382
 1500SOL    HW1 6397   0.412   1.081   4.337
 1500SOL    HW2 6398   0.531   1.003   4.391
 1501SOL     OW 6399   7.420   3.455  11.883
 1501SOL    HW1 6400   7.447   3.456  11.791
 1501SOL    HW2 6401   7.482   3.396  11.926
 1502SOL     OW 6402  12.887   9.089   4.738
 1502SOL    HW1 6403  12.975   9.124   4.725
 1502SOL    HW2 6404  12.847   9.090   4.652
 1503SOL     OW 6405   7.897   2.578   4.699
 1503SOL    HW1 6406   7.949   2.559   4.777
 1503SOL    HW2 6407   7.859   2.664   4.715
 1504SOL     OW 6408   5.404  14.815  14.777
 1504SOL    HW1 6409   5.327  14.870  14.791
 1504SOL    HW2 6410   5.387  14.770  14.694
 1505SOL     OW 6411   6.041   0.204   0.286
 1505SOL    HW1 6412   5.986   0.135   0.324
 1505SOL    HW2 6413   6.115   0.156   0.247
 1506SOL     OW 6414  14.596  14.080  12.207
 1506SOL    HW1 6415  14.548  14.143  12.153
 1506SOL    HW2 6416  14.681  14.071  12.164
 1507SOL     OW 6417   1.631  11.957   4.275
 1507SOL    HW1 6418   1.663  11.894   4.210
 1507SOL    HW2 6419   1.706  12.014   4.293
 1508SOL     OW 6420   5.780   7.458  10.351
 1508SOL    HW1 6421   5.762   7.484  10.261
 1508SOL    HW2 6422   5.862   7.502  10.373
 1509SOL     OW 6423   7.574   0.920  11.653
 1509SOL    HW1 6424   7.614   0.997  11.612
 1509SOL    HW2 6425   7.499   0.954  11.702
 1510SOL     OW 6426   6.930   2.381   0.052
 1510SOL    HW1 6427   6.995   2.382  14.864
 1510SOL    HW2 6428   6.967   2.324   0.119
 1511SOL     OW 6429  10.806   1.370  11.501
 1511SOL    HW1 6430  10.870   1.418  11.449
 1511SOL    HW2 6431  10.806   1.414  11.586
 1512SOL     OW 6432   2.146   3.047   2.857
 1512SOL    HW1 6433   2.193   3.120   2.817
 1512SOL    HW2 6434   2.205   2.972   2.848
 1513SOL     OW 6435  12.871   6.058   6.995
 1513SOL    HW1 6436  12.923   6.016   7.063
 1513SOL    HW2 6437  12.884   6.151   7.009
 1514SOL     OW 6438   6.823   7.512   5.178
 1514SOL    HW1 6439   6.816   7.515   5.274
 1514SOL    HW2 6440   6.812   7.602   5.150
 1515SOL     OW 6441   5.486   8.823   9.534
 1515SOL    HW1 6442   5.422   8.856   9.470
 1515SOL    HW2 6443   5.543   8.765   9.485
 1516SOL     OW 6444   3.255   9.888   8.906
 1516SOL    HW1 6445   3.299   9.861   8.826
 1516SOL    HW2 6446   3.325   9.904   8.968
 1517SOL     OW 6447  11.403   1.850   0.147
 1517SOL    HW1 6448  11.475   1.913   0.144
 1517SOL    HW2 6449  11.382   1.841   0.240
 1518SOL     OW 6450   0.507   4.395   4.363
 1518SOL    HW1 6451   0.490   4.440   4.280
 1518SOL    HW2 6452   0.520   4.466   4.427
 1519SOL     OW 6453  11.786   0.863   6.921
 1519SOL    HW1 6454  11.742   0.907   6.848
 1519SOL    HW2 6455  11.878   0.885   6.909
 1520SOL     OW 6456   1.241   4.815  14.045
 1520SOL    HW1 6457   1.261   4.841  13.955
 1520SOL    HW2 6458   1.263   4.722  14.049
 1521SOL     OW 6459   3.335  14.329  14.771
 1521SOL    HW1 6460   3.329  14.381  14.691
 1521SOL    HW2 6461   3.321  14.238  14.742
 1522SOL     OW 6462   6.880  13.993  10.092
 1522SOL    HW1 6463   6.799  14.043  10.089
 1522SOL    HW2 6464   6.949  14.059  10.089
 1523SOL     OW 6465   8.352   1.258   7.396
 1523SOL    HW1 6466   8.352   1.322   7.325
 1523SOL    HW2 6467   8.383   1.308   7.472
 1524SOL     OW 6468   9.291  10.789   3.705
 1524SOL    HW1 6469   9.260  10.865   3.755
 1524SOL    HW2 6470   9.381  10.810   3.682
 1525SOL     OW 6471   8.140  11.410   0.893
 1525SOL    HW1 6472   8.187  11.438   0.815
 1525SOL    HW2 6473   8.050  11.397   0.863
 1526SOL     OW 6474   4.798  10.627   1.228
 1526SOL    HW1 6475   4.870  10.567   1.249
 1526SOL    HW2 6476   4.743  10.626   1.307
 1527SOL     OW 6477   8.240  11.561   1.990
 1527SOL    HW1 6478   8.318  11.578   2.044
 1527SOL    HW2 6479   8.275  11.553   1.901
 1528SOL     OW 6480   8.803  11.760   0.200
 1528SOL    HW1 6481   8.799  11.778   0.106
 1528SOL    HW2 6482   8.857  11.682   0.207
 1529SOL     OW 6483   0.069  13.106  12.837
 1529SOL    HW1 6484   0.058  13.021  12.880
 1529SOL    HW2 6485   0.095  13.084  12.748
 1530SOL     OW 6486   5.210   8.229   8.473
 1530SOL    HW1 6487   5.224   8.142   8.437
 1530SOL    HW2 6488   5.114   8.236   8.481
 1531SOL     OW 6489  14.045   9.693   7.695
 1531SOL    HW1 6490  13.957   9.730   7.705
 1531SOL    HW2 6491  14.104   9.769   7.702
 1532SOL     OW 6492   7.694   5.258   1.339
 1532SOL    HW1 6493   7.697   5.172   1.298
 1532SOL    HW2 6494   7.669   5.318   1.269
 1533SOL     OW 6495  10.205  11.092   0.640
 1533SOL    HW1 6496  10.135  11.094   0.574
 1533SOL    HW2 6497  10.285  11.079   0.589
 1534SOL     OW 6498  11.781   2.872   1.987
 1534SOL    HW1 6499  11.723   2.873   1.911
 1534SOL    HW2 6500  11.813   2.782   1.992
 1535SOL     OW 6501   3.341  10.393   5.213
 1535SOL    HW1 6502   3.326  10.410   5.305
 1535SOL    HW2 6503   3.257  10.410   5.170
 1536SOL     OW 6504   7.723   6.541   2.770
 1536SOL    HW1 6505   7.629   6.527   2.776
 1536SOL    HW2 6506   7.760   6.453   2.767
 1537SOL     OW 6507   6.517  12.047   2.387
 1537SOL    HW1 6508   6.454  12.029   2.456
 1537SOL    HW2 6509   6.566  12.123   2.419
 1538SOL     OW 6510   6.640  10.318   8.055
 1538SOL    HW1 6511   6.595  10.359   8.129
 1538SOL    HW2 6512   6.693  10.388   8.017
 1539SOL     OW 6513   4.647   1.763  10.413
 1539SOL    HW1 6514   4.626   1.760  10.320
 1539SOL    HW2 6515   4.741   1.749  10.417
 1540SOL     OW 6516   3.071   6.128   5.519
 1540SOL    HW1 6517   3.090   6.144   5.611
 1540SOL    HW2 6518   3.038   6.039   5.516
 1541SOL     OW 6519   0.167  13.283   4.996
 1541SOL    HW1 6520   0.197  13.305   4.908
 1541SOL    HW2 6521   0.157  13.188   4.995
 1542SOL     OW 6522   0.789   6.601   1.544
 1542SOL    HW1 6523   0.756   6.569   1.628
 1542SOL    HW2 6524   0.785   6.525   1.486
 1543SOL     OW 6525  11.229   8.854   3.804
 1543SOL    HW1 6526  11.310   8.902   3.816
 1543SOL    HW2 6527  11.177   8.908   3.745
 1544SOL     OW 6528   4.386  11.829   0.964
 1544SOL    HW1 6529   4.309  11.798   1.012
 1544SOL    HW2 6530   4.414  11.907   1.013
 1545SOL     OW 6531   2.252   8.572   6.069
 1545SOL    HW1 6532   2.308   8.629   6.015
 1545SOL    HW2 6533   2.306   8.553   6.146
 1546SOL     OW 6534   8.809   7.262   5.649
 1546SOL    HW1 6535   8.766   7.332   5.699
 1546SOL    HW2 6536   8.835   7.198   5.715
 1547SOL     OW 6537  14.361   1.182   2.894
 1547SOL    HW1 6538  14.269   1.187   2.920
 1547SOL    HW2 6539  14.389   1.274   2.886
 1548SOL     OW 6540   8.448  12.173   4.397
 1548SOL    HW1 6541   8.436  12.225   4.317
 1548SOL    HW2 6542   8.410  12.228   4.467
 1549SOL     OW 6543   3.790   5.161  14.065
 1549SOL    HW1 6544   3.743   5.130  14.142
 1549SOL    HW2 6545   3.726   5.213  14.017
 1550SOL     OW 6546   4.520   9.432   8.829
 1550SOL    HW1 6547   4.532   9.382   8.748
 1550SOL    HW2 6548   4.598   9.412   8.882
 1551SOL     OW 6549  10.187  12.930   5.854
 1551SOL    HW1 6550  10.193  12.977   5.936
 1551SOL    HW2 6551  10.106  12.962   5.813
 1552SOL     OW 6552   4.961  11.081   8.788
 1552SOL    HW1 6553   4.909  11.029   8.727
 1552SOL    HW2 6554   4.919  11.167   8.788
 1553SOL     OW 6555   9.232   0.154  14.564
 1553SOL    HW1 6556   9.156   0.213  14.564
 1553SOL    HW2 6557   9.304   0.208  14.533
 1554SOL     OW 6558  11.170   3.166  10.871
 1554SOL    HW1 6559  11.110   3.232  10.906
 1554SOL    HW2 6560  11.256   3.193  10.902
 1555SOL     OW 6561  13.602   7.178   6.394
 1555SOL    HW1 6562  13.542   7.176   6.469
 1555SOL    HW2 6563  13.676   7.231   6.425
 1556SOL     OW 6564  13.200   4.666   1.192
 1556SOL    HW1 6565  13.282   4.622   1.214
 1556SOL    HW2 6566  13.190   4.733   1.260
 1557SOL     OW 6567   7.114   3.165   9.123
 1557SOL    HW1 6568   7.093   3.133   9.036
 1557SOL    HW2 6569   7.199   3.126   9.143
 1558SOL     OW 6570   4.461   8.151   3.415
 1558SOL    HW1 6571   4.513   8.137   3.336
 1558SOL    HW2 6572   4.524   8.175   3.482
 1559SOL     OW 6573  14.205   5.214   0.560
 1559SOL    HW1 6574  14.209   5.226   0.655
 1559SOL    HW2 6575  14.116   5.182   0.543
 1560SOL     OW 6576   0.008   3.971  13.965
 1560SOL    HW1 6577   0.009   4.037  13.896
 1560SOL    HW2 6578   0.101   3.948  13.978
 1561SOL     OW 6579   3.194   5.328  12.240
 1561SOL    HW1 6580   3.171   5.280  12.161
 1561SOL    HW2 6581   3.172   5.419  12.220
 1562SOL     OW 6582   0.149  10.957   4.314
 1562SOL    HW1 6583   0.065  10.992   4.343
 1562SOL    HW2 6584   0.193  11.030   4.272
 1563SOL     OW 6585   0.045  11.375   6.393
 1563SOL    HW1 6586   0.105  11.302   6.406
 1563SOL    HW2 6587   0.101  11.447   6.364
 1564SOL     OW 6588  12.357   5.029   1.324
 1564SOL    HW1 6589  12.373   4.989   1.238
 1564SOL    HW2 6590  12.307   4.962   1.372
 1565SOL     OW 6591   6.996  13.390   8.432
 1565SOL    HW1 6592   7.077  13.418   8.473
 1565SOL    HW2 6593   6.980  13.303   8.469
 1566SOL     OW 6594  10.163   4.629   7.701
 1566SOL    HW1 6595  10.083   4.612   7.751
 1566SOL    HW2 6596  10.234   4.610   7.763
 1567SOL     OW 6597   9.730   1.519   8.985
 1567SOL    HW1 6598   9.651   1.468   9.005
 1567SOL    HW2 6599   9.703   1.610   9.000
 1568SOL     OW 6600   8.440   2.044   5.704
 1568SOL    HW1 6601   8.455   2.139   5.696
 1568SOL    HW2 6602   8.442   2.011   5.614
 1569SOL     OW 6603   5.439   6.448   0.987
 1569SOL    HW1 6604   5.438   6.354   1.007
 1569SOL    HW2 6605   5.381   6.457   0.912
 1570SOL     OW 6606   1.227   6.556  13.212
 1570SOL    HW1 6607   1.319   6.531  13.220
 1570SOL    HW2 6608   1.228   6.638  13.163
 1571SOL     OW 6609  13.387   7.584   8.945
 1571SOL    HW1 6610  13.336   7.596   8.865
 1571SOL    HW2 6611  13.478   7.600   8.919
 1572SOL     OW 6612  10.802   9.850   5.264
 1572SOL    HW1 6613  10.756   9.777   5.223
 1572SOL    HW2 6614  10.737   9.920   5.269
 1573SOL     OW 6615   5.860  10.595   8.824
 1573SOL    HW1 6616   5.881  10.553   8.741
 1573SOL    HW2 6617   5.778  10.555   8.852
 1574SOL     OW 6618   3.536   8.064  14.348
 1574SOL    HW1 6619   3.575   8.150  14.357
 1574SOL    HW2 6620   3.486   8.052  14.429
 1575SOL     OW 6621   5.126   3.287  14.058
 1575SOL    HW1 6622   5.190   3.279  14.128
 1575SOL    HW2 6623   5.124   3.200  14.018
 1576SOL     OW 6624   3.588   6.175   2.107
 1576SOL    HW1 6625   3.643   6.246   2.141
 1576SOL    HW2 6626   3.538   6.145   2.183
 1577SOL     OW 6627   1.574   1.175  14.372
 1577SOL    HW1 6628   1.609   1.263  14.386
 1577SOL    HW2 6629   1.595   1.128  14.452
 1578SOL     OW 6630   1.081   4.979   2.198
 1578SOL    HW1 6631   1.085   5.050   2.134
 1578SOL    HW2 6632   1.098   5.023   2.282
 1579SOL     OW 6633  11.531  11.515  13.545
 1579SOL    HW1 6634  11.610  11.565  13.569
 1579SOL    HW2 6635  11.486  11.570  13.482
 1580SOL     OW 6636   3.282   4.342   8.238
 1580SOL    HW1 6637   3.278   4.274   8.170
 1580SOL    HW2 6638   3.223   4.310   8.307
 1581SOL     OW 6639  10.008  13.929  10.147
 1581SOL    HW1 6640   9.944  13.890  10.207
 1581SOL    HW2 6641   9.959  13.942  10.065
 1582SOL     OW 6642  12.532   4.248   0.723
 1582SOL    HW1 6643  12.501   4.163   0.756
 1582SOL    HW2 6644  12.480   4.262   0.644
 1583SOL     OW 6645  10.287  12.077   9.153
 1583SOL    HW1 6646  10.194  12.090   9.135
 1583SOL    HW2 6647  10.299  12.109   9.242
 1584SOL     OW 6648   5.748  14.608   8.568
 1584SOL    HW1 6649   5.785  14.531   8.611
 1584SOL    HW2 6650   5.655  14.604   8.587
 1585SOL     OW 6651   8.964   2.666  12.937
 1585SOL    HW1 6652   8.877   2.696  12.909
 1585SOL    HW2 6653   8.963   2.572  12.923
 1586SOL     OW 6654   2.838   4.057  11.363
 1586SOL    HW1 6655   2.759   4.071  11.415
 1586SOL    HW2 6656   2.888   4.138  11.372
 1587SOL     OW 6657  12.833  12.806   1.496
 1587SOL    HW1 6658  12.773  12.764   1.558
 1587SOL    HW2 6659  12.783  12.881   1.462
 1588SOL     OW 6660   0.638   9.350   9.595
 1588SOL    HW1 6661   0.662   9.439   9.568
 1588SOL    HW2 6662   0.553   9.360   9.638
 1589SOL     OW 6663   7.495  11.691   2.520
 1589SOL    HW1 6664   7.537  11.627   2.577
 1589SOL    HW2 6665   7.459  11.756   2.581
 1590SOL     OW 6666   4.485   1.408   9.612
 1590SOL    HW1 6667   4.558   1.450   9.656
 1590SOL    HW2 6668   4.425   1.480   9.592
 1591SOL     OW 6669   0.608   0.396   3.859
 1591SOL    HW1 6670   0.545   0.435   3.920
 1591SOL    HW2 6671   0.557   0.331   3.810
 1592SOL     OW 6672   4.529  10.006   0.816
 1592SOL    HW1 6673   4.469  10.061   0.765
 1592SOL    HW2 6674   4.476   9.932   0.844
 1593SOL     OW 6675   0.722   9.742   0.773
 1593SOL    HW1 6676   0.721   9.819   0.829
 1593SOL    HW2 6677   0.658   9.683   0.813
 1594SOL     OW 6678   6.617  11.587   3.388
 1594SOL    HW1 6679   6.585  11.498   3.403
 1594SOL    HW2 6680   6.578  11.639   3.459
 1595SOL     OW 6681  14.838   2.207   3.810
 1595SOL    HW1 6682  14.782   2.220   3.733
 1595SOL    HW2 6683   0.040   2.180   3.774
 1596SOL     OW 6684  14.547  13.278   6.106
 1596SOL    HW1 6685  14.596  13.315   6.180
 1596SOL    HW2 6686  14.589  13.316   6.029
 1597SOL     OW 6687   4.987   2.369   4.892
 1597SOL    HW1 6688   4.981   2.294   4.833
 1597SOL    HW2 6689   5.059   2.346   4.951
 1598SOL     OW 6690   4.226   6.438   3.137
 1598SOL    HW1 6691   4.298   6.498   3.120
 1598SOL    HW2 6692   4.147   6.490   3.122
 1599SOL     OW 6693   4.993  14.138   5.469
 1599SOL    HW1 6694   4.979  14.215   5.523
 1599SOL    HW2 6695   4.937  14.070   5.507
 1600SOL     OW 6696   7.886  11.669  12.893
 1600SOL    HW1 6697   7.906  11.633  12.807
 1600SOL    HW2 6698   7.794  11.649  12.907
 1601SOL     OW 6699  10.050   6.202  10.491
 1601SOL    HW1 6700   9.955   6.192  10.501
 1601SOL    HW2 6701  10.087   6.130  10.543
 1602SOL     OW 6702   5.301   1.221   5.407
 1602SOL    HW1 6703   5.372   1.167   5.373
 1602SOL    HW2 6704   5.274   1.275   5.333
 1603SOL     OW 6705  10.718  14.479   6.400
 1603SOL    HW1 6706  10.763  14.396   6.411
 1603SOL    HW2 6707  10.771  14.527   6.336
 1604SOL     OW 6708   1.247  12.907   4.615
 1604SOL    HW1 6709   1.342  12.900   4.619
 1604SOL    HW2 6710   1.231  12.983   4.558
 1605SOL     OW 6711  10.346   6.517  11.155
 1605SOL    HW1 6712  10.383   6.497  11.241
 1605SOL    HW2 6713  10.272   6.457  11.147
 1606SOL     OW 6714   0.958  12.146   5.882
 1606SOL    HW1 6715   0.922  12.222   5.837
 1606SOL    HW2 6716   1.029  12.182   5.935
 1607SOL     OW 6717   2.623  10.715  11.386
 1607SOL    HW1 6718   2.623  10.652  11.314
 1607SOL    HW2 6719   2.576  10.791  11.351
 1608SOL     OW 6720  11.966   9.336   8.714
 1608SOL    HW1 6721  11.879   9.327   8.752
 1608SOL    HW2 6722  11.984   9.430   8.717
 1609SOL     OW 6723   9.621  12.635   1.527
 1609SOL    HW1 6724   9.541  12.660   1.574
 1609SOL    HW2 6725   9.597  12.642   1.435
 1610SOL     OW 6726  12.328   0.751   8.388
 1610SOL    HW1 6727  12.417   0.765   8.422
 1610SOL    HW2 6728  12.322   0.656   8.376
 1611SOL     OW 6729  11.209   1.402  13.329
 1611SOL    HW1 6730  11.181   1.434  13.244
 1611SOL    HW2 6731  11.167   1.316  13.338
 1612SOL     OW 6732   4.129   5.504   6.178
 1612SOL    HW1 6733   4.061   5.471   6.119
 1612SOL    HW2 6734   4.146   5.593   6.147
 1613SOL     OW 6735  11.928   1.267  13.351
 1613SOL    HW1 6736  11.980   1.254  13.430
 1613SOL    HW2 6737  11.989   1.308  13.289
 1614SOL     OW 6738   9.502   3.460  11.332
 1614SOL    HW1 6739   9.472   3.375  11.363
 1614SOL    HW2 6740   9.587   3.472  11.374
 1615SOL     OW 6741   8.089   4.832  12.054
 1615SOL    HW1 6742   8.011   4.780  12.072
 1615SOL    HW2 6743   8.063   4.922  12.070
 1616SOL     OW 6744   2.111   3.953  10.645
 1616SOL    HW1 6745   2.035   3.900  10.668
 1616SOL    HW2 6746   2.186   3.900  10.671
 1617SOL     OW 6747   7.580   7.157   3.372
 1617SOL    HW1 6748   7.513   7.212   3.332
 1617SOL    HW2 6749   7.621   7.213   3.437
 1618SOL     OW 6750   1.905   9.776   7.413
 1618SOL    HW1 6751   1.811   9.788   7.400
 1618SOL    HW2 6752   1.937   9.740   7.330
 1619SOL     OW 6753   9.574  13.493  14.453
 1619SOL    HW1 6754   9.566  13.441  14.373
 1619SOL    HW2 6755   9.514  13.566  14.441
 1620SOL     OW 6756   4.009   9.942   0.034
 1620SOL    HW1 6757   4.077   9.924  14.851
 1620SOL    HW2 6758   4.044   9.907   0.116
 1621SOL     OW 6759   3.656   8.475   6.324
 1621SOL    HW1 6760   3.633   8.402   6.382
 1621SOL    HW2 6761   3.748   8.461   6.304
 1622SOL     OW 6762  12.475   3.380  11.696
 1622SOL    HW1 6763  12.436   3.339  11.774
 1622SOL    HW2 6764  12.434   3.466  11.691
 1623SOL     OW 6765   7.316   0.954   4.480
 1623SOL    HW1 6766   7.356   1.027   4.432
 1623SOL    HW2 6767   7.263   0.997   4.547
 1624SOL     OW 6768  12.039   5.454  13.227
 1624SOL    HW1 6769  11.976   5.526  13.220
 1624SOL    HW2 6770  11.988   5.382  13.265
 1625SOL     OW 6771   7.250  10.611   1.594
 1625SOL    HW1 6772   7.329  10.655   1.627
 1625SOL    HW2 6773   7.270  10.518   1.601
 1626SOL     OW 6774   8.056  11.820   0.324
 1626SOL    HW1 6775   8.111  11.843   0.399
 1626SOL    HW2 6776   8.114  11.826   0.248
 1627SOL     OW 6777   0.284   2.434  10.835
 1627SOL    HW1 6778   0.223   2.486  10.783
 1627SOL    HW2 6779   0.279   2.470  10.923
 1628SOL     OW 6780  12.178   5.517  12.541
 1628SOL    HW1 6781  12.121   5.466  12.483
 1628SOL    HW2 6782  12.119   5.576  12.587
 1629SOL     OW 6783   7.206  10.390  13.271
 1629SOL    HW1 6784   7.207  10.372  13.365
 1629SOL    HW2 6785   7.134  10.451  13.258
 1630SOL     OW 6786   2.572  13.035   7.274
 1630SOL    HW1 6787   2.585  12.979   7.198
 1630SOL    HW2 6788   2.583  12.976   7.349
 1631SOL     OW 6789  12.158  12.763   7.121
 1631SOL    HW1 6790  12.151  12.756   7.216
 1631SOL    HW2 6791  12.194  12.679   7.093
 1632SOL     OW 6792   7.494  10.730   1.732
 1632SOL    HW1 6793   7.588  10.712   1.737
 1632SOL    HW2 6794   7.461  10.712   1.820
 1633SOL     OW 6795   2.794   3.315   8.532
 1633SOL    HW1 6796   2.748   3.233   8.515
 1633SOL    HW2 6797   2.749   3.353   8.607
 1634SOL     OW 6798   6.958   5.431  14.780
 1634SOL    HW1 6799   7.010   5.354  14.758
 1634SOL    HW2 6800   6.875   5.395  14.812
 1635SOL     OW 6801   3.408   2.174   4.565
 1635SOL    HW1 6802   3.464   2.116   4.513
 1635SOL    HW2 6803   3.371   2.235   4.502
 1636SOL     OW 6804   5.116   2.180   2.070
 1636SOL    HW1 6805   5.135   2.095   2.030
 1636SOL    HW2 6806   5.193   2.234   2.050
 1637SOL     OW 6807   9.279   1.283  12.246
 1637SOL    HW1 6808   9.219   1.353  12.221
 1637SOL    HW2 6809   9.225   1.221  12.295
 1638SOL     OW 6810   4.554  10.967   1.034
 1638SOL    HW1 6811   4.620  10.898   1.022
 1638SOL    HW2 6812   4.492  10.954   0.963
 1639SOL     OW 6813  11.939   0.495  12.479
 1639SOL    HW1 6814  11.915   0.587  12.473
 1639SOL    HW2 6815  11.947   0.479  12.573
 1640SOL     OW 6816   9.532   5.791   1.858
 1640SOL    HW1 6817   9.545   5.698   1.880
 1640SOL    HW2 6818   9.439   5.806   1.870
 1641SOL     OW 6819   6.541   2.282   4.663
 1641SOL    HW1 6820   6.548   2.242   4.576
 1641SOL    HW2 6821   6.585   2.220   4.721
 1642SOL     OW 6822   0.099  10.557   2.776
 1642SOL    HW1 6823   0.144  10.566   2.860
 1642SOL    HW2 6824   0.058  10.470   2.780
 1643SOL     OW 6825   7.833  13.797   1.154
 1643SOL    HW1 6826   7.793  13.858   1.216
 1643SOL    HW2 6827   7.894  13.851   1.104
 1644SOL     OW 6828   9.864   6.768   1.078
 1644SOL    HW1 6829   9.853   6.673   1.080
 1644SOL    HW2 6830   9.957   6.782   1.093
 1645SOL     OW 6831  10.840   3.243   7.218
 1645SOL    HW1 6832  10.799   3.323   7.251
 1645SOL    HW2 6833  10.776   3.206   7.157
 1646SOL     OW 6834   4.882  10.648  13.487
 1646SOL    HW1 6835   4.864  10.683  13.400
 1646SOL    HW2 6836   4.917  10.723  13.537
 1647SOL     OW 6837   5.867   2.048   7.333
 1647SOL    HW1 6838   5.935   2.039   7.267
 1647SOL    HW2 6839   5.807   2.114   7.298
 1648SOL     OW 6840   7.111   1.634  14.412
 1648SOL    HW1 6841   7.036   1.597  14.366
 1648SOL    HW2 6842   7.078   1.653  14.500
 1649SOL     OW 6843   0.732   1.013   9.418
 1649SOL    HW1 6844   0.811   0.981   9.376
 1649SOL    HW2 6845   0.661   0.963   9.377
 1650SOL     OW 6846   7.244   0.578   2.708
 1650SOL    HW1 6847   7.187   0.505   2.731
 1650SOL    HW2 6848   7.321   0.567   2.764
 1651SOL     OW 6849   0.410   4.188   2.265
 1651SOL    HW1 6850   0.466   4.115   2.290
 1651SOL    HW2 6851   0.334   4.146   2.225
 1652SOL     OW 6852   3.671  11.650   9.560
 1652SOL    HW1 6853   3.653  11.696   9.642
 1652SOL    HW2 6854   3.613  11.691   9.496
 1653SOL     OW 6855   2.292   7.091  13.709
 1653SOL    HW1 6856   2.339   7.168  13.740
 1653SOL    HW2 6857   2.292   7.099  13.614
 1654SOL     OW 6858   2.162   7.392   5.528
 1654SOL    HW1 6859   2.155   7.487   5.537
 1654SOL    HW2 6860   2.220   7.366   5.600
 1655SOL     OW 6861  14.250   9.785   1.784
 1655SOL    HW1 6862  14.314   9.763   1.851
 1655SOL    HW2 6863  14.303   9.806   1.707
 1656SOL     OW 6864   5.680   1.563   0.790
 1656SOL    HW1 6865   5.755   1.619   0.767
 1656SOL    HW2 6866   5.652   1.525   0.707
 1657SOL     OW 6867   0.202  12.279  10.886
 1657SOL    HW1 6868   0.285  12.247  10.920
 1657SOL    HW2 6869   0.200  12.372  10.910
 1658SOL     OW 6870   8.589  14.781   3.676
 1658SOL    HW1 6871   8.566  14.768   3.584
 1658SOL    HW2 6872   8.609  14.694   3.709
 1659SOL     OW 6873   2.087   8.932   9.115
 1659SOL    HW1 6874   2.150   8.921   9.043
 1659SOL    HW2 6875   2.022   8.994   9.080
 1660SOL     OW 6876   4.160   0.610  11.412
 1660SOL    HW1 6877   4.246   0.593  11.375
 1660SOL    HW2 6878   4.139   0.531  11.462
 1661SOL     OW 6879   0.848   4.062   5.024
 1661SOL    HW1 6880   0.943   4.063   5.034
 1661SOL    HW2 6881   0.814   4.045   5.112
 1662SOL     OW 6882  12.162  10.608  13.726
 1662SOL    HW1 6883  12.223  10.535  13.733
 1662SOL    HW2 6884  12.091  10.586  13.787
 1663SOL     OW 6885   5.347   3.747   2.458
 1663SOL    HW1 6886   5.305   3.733   2.542
 1663SOL    HW2 6887   5.323   3.837   2.434
 1664SOL     OW 6888   6.230   2.774   6.325
 1664SOL    HW1 6889   6.149   2.724   6.336
 1664SOL    HW2 6890   6.228   2.839   6.396
 1665SOL     OW 6891   2.210   7.926   1.542
 1665SOL    HW1 6892   2.284   7.975   1.579
 1665SOL    HW2 6893   2.161   7.991   1.492
 1666SOL     OW 6894   2.880   2.444   9.238
 1666SOL    HW1 6895   2.917   2.362   9.268
 1666SOL    HW2 6896   2.818   2.469   9.306
 1667SOL     OW 6897   3.390  12.183  10.679
 1667SOL    HW1 6898   3.299  12.191  10.652
 1667SOL    HW2 6899   3.391  12.210  10.770
 1668SOL     OW 6900   3.441   2.066  13.353
 1668SOL    HW1 6901   3.453   1.986  13.404
 1668SOL    HW2 6902   3.479   2.045  13.268
 1669SOL     OW 6903  10.448  11.676   8.434
 1669SOL    HW1 6904  10.509  11.749   8.422
 1669SOL    HW2 6905  10.364  11.718   8.455
 1670SOL     OW 6906   0.354  13.883   2.813
 1670SOL    HW1 6907   0.341  13.870   2.719
 1670SOL    HW2 6908   0.364  13.978   2.822
 1671SOL     OW 6909  14.325  12.098   1.698
 1671SOL    HW1 6910  14.407  12.057   1.725
 1671SOL    HW2 6911  14.321  12.180   1.747
 1672SOL     OW 6912   8.970   8.005   4.443
 1672SOL    HW1 6913   8.945   7.916   4.468
 1672SOL    HW2 6914   9.029   8.034   4.512
 1673SOL     OW 6915   0.245   4.159   2.622
 1673SOL    HW1 6916   0.278   4.236   2.576
 1673SOL    HW2 6917   0.321   4.102   2.631
 1674SOL     OW 6918  10.089  10.270   7.465
 1674SOL    HW1 6919  10.039  10.303   7.539
 1674SOL    HW2 6920  10.053  10.182   7.449
 1675SOL     OW 6921   3.341   8.619   9.840
 1675SOL    HW1 6922   3.374   8.703   9.874
 1675SOL    HW2 6923   3.331   8.564   9.917
 1676SOL     OW 6924   4.392  14.114  14.068
 1676SOL    HW1 6925   4.297  14.117  14.068
 1676SOL    HW2 6926   4.414  14.051  13.999
 1677SOL     OW 6927  10.335  10.298  13.539
 1677SOL    HW1 6928  10.340  10.266  13.629
 1677SOL    HW2 6929  10.370  10.227  13.486
 1678SOL     OW 6930  13.460   6.160  12.724
 1678SOL    HW1 6931  13.379   6.160  12.673
 1678SOL    HW2 6932  13.464   6.247  12.762
 1679SOL     OW 6933  12.689   0.289   6.359
 1679SOL    HW1 6934  12.719   0.370   6.317
 1679SOL    HW2 6935  12.729   0.219   6.307
 1680SOL     OW 6936  11.866   3.716  12.169
 1680SOL    HW1 6937  11.885   3.804  12.201
 1680SOL    HW2 6938  11.818   3.674  12.241
 1681SOL     OW 6939   0.333   8.284   7.630
 1681SOL    HW1 6940   0.428   8.274   7.632
 1681SOL    HW2 6941   0.315   8.354   7.693
 1682SOL     OW 6942   9.845   8.530   3.265
 1682SOL    HW1 6943   9.789   8.540   3.341
 1682SOL    HW2 6944   9.840   8.437   3.243
 1683SOL     OW 6945  12.831  11.546   0.359
 1683SOL    HW1 6946  12.787  11.539   0.274
 1683SOL    HW2 6947  12.790  11.620   0.402
 1684SOL     OW 6948  12.735   9.476   0.724
 1684SOL    HW1 6949  12.734   9.568   0.749
 1684SOL    HW2 6950  12.643   9.453   0.711
 1685SOL     OW 6951   9.357  11.458   0.285
 1685SOL    HW1 6952   9.332  11.464   0.377
 1685SOL    HW2 6953   9.334  11.543   0.247
 1686SOL     OW 6954  12.823   4.977   7.864
 1686SOL    HW1 6955  12.848   4.979   7.957
 1686SOL    HW2 6956  12.844   4.888   7.836
 1687SOL     OW 6957  14.212   9.190   1.612
 1687SOL    HW1 6958  14.165   9.149   1.685
 1687SOL    HW2 6959  14.234   9.278   1.645
 1688SOL     OW 6960   1.331   1.185   2.632
 1688SOL    HW1 6961   1.391   1.119   2.598
 1688SOL    HW2 6962   1.349   1.263   2.579
 1689SOL     OW 6963  14.833   4.065   9.139
 1689SOL    HW1 6964   0.024   4.123   9.157
 1689SOL    HW2 6965  14.796   4.096   9.057
 1690SOL     OW 6966   7.493  13.029   6.754
 1690SOL    HW1 6967   7.505  13.107   6.699
 1690SOL    HW2 6968   7.581  12.998   6.772
 1691SOL     OW 6969  10.396   9.570  12.993
 1691SOL    HW1 6970  10.401   9.593  13.086
 1691SOL    HW2 6971  10.458   9.499  12.982
 1692SOL     OW 6972  13.379  13.803   8.145
 1692SOL    HW1 6973  13.306  13.744   8.163
 1692SOL    HW2 6974  13.454  13.763   8.189
 1693SOL     OW 6975   0.171   5.143   1.205
 1693SOL    HW1 6976   0.202   5.102   1.124
 1693SOL    HW2 6977   0.151   5.069   1.263
 1694SOL     OW 6978  13.752   0.205   6.974
 1694SOL    HW1 6979  13.826   0.226   7.030
 1694SOL    HW2 6980  13.714   0.290   6.951
 1695SOL     OW 6981   2.665  12.247   4.156
 1695SOL    HW1 6982   2.690  12.293   4.075
 1695SOL    HW2 6983   2.745  12.244   4.208
 1696SOL     OW 6984   4.900   0.617   0.769
 1696SOL    HW1 6985   4.822   0.562   0.763
 1696SOL    HW2 6986   4.948   0.582   0.843
 1697SOL     OW 6987  12.286  11.672  10.172
 1697SOL    HW1 6988  12.224  11.674  10.245
 1697SOL    HW2 6989  12.362  11.625  10.206
 1698SOL     OW 6990  13.785   2.277  14.270
 1698SOL    HW1 6991  13.708   2.331  14.289
 1698SOL    HW2 6992  13.855   2.340  14.254
 1699SOL     OW 6993   6.149   4.050   4.648
 1699SOL    HW1 6994   6.196   4.132   4.661
 1699SOL    HW2 6995   6.057   4.074   4.656
 1700SOL     OW 6996   8.414  14.428   1.075
 1700SOL    HW1 6997   8.387  14.417   1.166
 1700SOL    HW2 6998   8.390  14.519   1.054
 1701SOL     OW 6999   1.471   5.704  10.864
 1701SOL    HW1 7000   1.506   5.652  10.937
 1701SOL    HW2 7001   1.548   5.731  10.814
 1702SOL     OW 7002   9.152   0.933  11.689
 1702SOL    HW1 7003   9.185   0.844  11.680
 1702SOL    HW2 7004   9.143   0.946  11.784
 1703SOL     OW 7005   3.430   5.650   8.022
 1703SOL    HW1 7006   3.440   5.683   7.933
 1703SOL    HW2 7007   3.520   5.646   8.056
 1704SOL     OW 7008   2.386  12.215   0.790
 1704SOL    HW1 7009   2.467  12.200   0.741
 1704SOL    HW2 7010   2.406  12.185   0.879
 1705SOL     OW 7011   4.084  11.975  13.210
 1705SOL    HW1 7012   4.129  12.009  13.133
 1705SOL    HW2 7013   4.072  12.052  13.266
 1706SOL     OW 7014   1.479  13.235  12.983
 1706SOL    HW1 7015   1.421  13.306  12.958
 1706SOL    HW2 7016   1.516  13.204  12.900
 1707SOL     OW 7017  11.405   4.591  11.662
 1707SOL    HW1 7018  11.472   4.553  11.605
 1707SOL    HW2 7019  11.427   4.684  11.666
 1708SOL     OW 7020   5.441   9.685   9.520
 1708SOL    HW1 7021   5.381   9.699   9.447
 1708SOL    HW2 7022   5.491   9.766   9.526
 1709SOL     OW 7023  13.863   2.319   5.693
 1709SOL    HW1 7024  13.816   2.304   5.775
 1709SOL    HW2 7025  13.896   2.408   5.700
 1710SOL     OW 7026   1.772  13.490   6.682
 1710SOL    HW1 7027   1.731  13.418   6.634
 1710SOL    HW2 7028   1.865  13.468   6.684
 1711SOL     OW 7029   0.936   7.215   4.169
 1711SOL    HW1 7030   0.911   7.295   4.215
 1711SOL    HW2 7031   0.904   7.144   4.224
 1712SOL     OW 7032   3.984  11.590   7.714
 1712SOL    HW1 7033   4.053  11.655   7.706
 1712SOL    HW2 7034   3.997  11.531   7.639
 1713SOL     OW 7035   7.226   6.212  12.590
 1713SOL    HW1 7036   7.139   6.247  12.571
 1713SOL    HW2 7037   7.233   6.134  12.535
 1714SOL     OW 7038   1.793   5.319   2.585
 1714SOL    HW1 7039   1.883   5.318   2.553
 1714SOL    HW2 7040   1.740   5.323   2.505
 1715SOL     OW 7041   9.432   6.535   8.938
 1715SOL    HW1 7042   9.521   6.538   8.905
 1715SOL    HW2 7043   9.415   6.625   8.968
 1716SOL     OW 7044   5.471  11.333  13.514
 1716SOL    HW1 7045   5.421  11.260  13.477
 1716SOL    HW2 7046   5.547  11.341  13.457
 1717SOL     OW 7047  10.709  13.602   6.194
 1717SOL    HW1 7048  10.614  13.602   6.207
 1717SOL    HW2 7049  10.731  13.693   6.174
 1718SOL     OW 7050   8.059  13.496   2.240
 1718SOL    HW1 7051   8.001  13.481   2.315
 1718SOL    HW2 7052   8.028  13.435   2.173
 1719SOL     OW 7053  14.632   2.162   2.940
 1719SOL    HW1 7054  14.606   2.149   3.031
 1719SOL    HW2 7055  14.582   2.239   2.911
 1720SOL     OW 7056  14.157   9.776   0.003
 1720SOL    HW1 7057  14.245   9.750   0.028
 1720SOL    HW2 7058  14.156   9.871   0.013
 1721SOL     OW 7059   7.418  11.597  13.595
 1721SOL    HW1 7060   7.439  11.683  13.631
 1721SOL    HW2 7061   7.500  11.548  13.601
 1722SOL     OW 7062   1.568  10.700   9.101
 1722SOL    HW1 7063   1.484  10.745   9.112
 1722SOL    HW2 7064   1.548  10.626   9.044
 1723SOL     OW 7065   8.696   1.642   8.053
 1723SOL    HW1 7066   8.670   1.711   8.115
 1723SOL    HW2 7067   8.645   1.566   8.080
 1724SOL     OW 7068   3.634   1.879   9.010
 1724SOL    HW1 7069   3.563   1.853   9.068
 1724SOL    HW2 7070   3.611   1.843   8.925
 1725SOL     OW 7071  12.841   9.703   6.250
 1725SOL    HW1 7072  12.759   9.726   6.207
 1725SOL    HW2 7073  12.895   9.782   6.245
 1726SOL     OW 7074   7.476   6.593   4.570
 1726SOL    HW1 7075   7.428   6.556   4.496
 1726SOL    HW2 7076   7.559   6.545   4.571
 1727SOL     OW 7077   9.832   4.340  11.436
 1727SOL    HW1 7078   9.793   4.391  11.508
 1727SOL    HW2 7079   9.876   4.267  11.480
 1728SOL     OW 7080   5.110  10.844   0.548
 1728SOL    HW1 7081   5.091  10.887   0.465
 1728SOL    HW2 7082   5.177  10.899   0.589
 1729SOL     OW 7083  12.340   2.958  14.801
 1729SOL    HW1 7084  12.310   2.992   0.003
 1729SOL    HW2 7085  12.275   2.989  14.738
 1730SOL     OW 7086  10.937   2.043   0.021
 1730SOL    HW1 7087  10.905   2.073   0.106
 1730SOL    HW2 7088  11.003   1.976   0.043
 1731SOL     OW 7089   7.215  10.562  10.066
 1731SOL    HW1 7090   7.122  10.572  10.086
 1731SOL    HW2 7091   7.241  10.483  10.114
 1732SOL     OW 7092   1.138   2.927   1.157
 1732SOL    HW1 7093   1.167   2.846   1.199
 1732SOL    HW2 7094   1.207   2.947   1.094
 1733SOL     OW 7095   5.840   8.447   4.705
 1733SOL    HW1 7096   5.755   8.420   4.671
 1733SOL    HW2 7097   5.898   8.374   4.684
 1734SOL     OW 7098   0.993   4.087  12.766
 1734SOL    HW1 7099   1.057   4.017  12.760
 1734SOL    HW2 7100   0.944   4.069  12.846
 1735SOL     OW 7101   2.233   4.223  10.677
 1735SOL    HW1 7102   2.194   4.148  10.633
 1735SOL    HW2 7103   2.324   4.197  10.693
 1736SOL     OW 7104   8.036   1.298   5.026
 1736SOL    HW1 7105   8.020   1.386   5.059
 1736SOL    HW2 7106   7.988   1.240   5.086
 1737SOL     OW 7107   0.585  10.243   1.404
 1737SOL    HW1 7108   0.556  10.169   1.352
 1737SOL    HW2 7109   0.660  10.279   1.357
 1738SOL     OW 7110  14.658  10.454   8.017
 1738SOL    HW1 7111  14.710  10.527   7.982
 1738SOL    HW2 7112  14.567  10.482   8.005
 1739SOL     OW 7113   8.233  12.022   4.247
 1739SOL    HW1 7114   8.323  12.011   4.219
 1739SOL    HW2 7115   8.193  11.935   4.236
 1740SOL     OW 7116   4.805  14.660   8.294
 1740SOL    HW1 7117   4.732  14.622   8.342
 1740SOL    HW2 7118   4.835  14.733   8.349
 1741SOL     OW 7119  11.243   8.772   7.582
 1741SOL    HW1 7120  11.234   8.714   7.658
 1741SOL    HW2 7121  11.338   8.775   7.566
 1742SOL     OW 7122   9.330   4.205  12.401
 1742SOL    HW1 7123   9.320   4.164  12.486
 1742SOL    HW2 7124   9.410   4.257  12.409
 1743SOL     OW 7125   5.836   1.802   6.670
 1743SOL    HW1 7126   5.762   1.815   6.610
 1743SOL    HW2 7127   5.901   1.754   6.619
 1744SOL     OW 7128  11.937  11.987   1.777
 1744SOL    HW1 7129  11.922  12.081   1.766
 1744SOL    HW2 7130  11.909  11.969   1.866
 1745SOL     OW 7131  10.290  12.104   0.415
 1745SOL    HW1 7132  10.220  12.046   0.442
 1745SOL    HW2 7133  10.365  12.078   0.468
 1746SOL     OW 7134   2.079   9.434  10.279
 1746SOL    HW1 7135   1.987   9.410  10.267
 1746SOL    HW2 7136   2.082   9.528  10.261
 1747SOL     OW 7137   3.677   2.185  14.572
 1747SOL    HW1 7138   3.734   2.214  14.643
 1747SOL    HW2 7139   3.701   2.093  14.559
 1748SOL     OW 7140   2.527   3.446   8.049
 1748SOL    HW1 7141   2.507   3.492   8.130
 1748SOL    HW2 7142   2.600   3.388   8.073
 1749SOL     OW 7143  13.187   4.570   1.820
 1749SOL    HW1 7144  13.170   4.481   1.853
 1749SOL    HW2 7145  13.248   4.607   1.884
 1750SOL     OW 7146   3.632  13.413   9.194
 1750SOL    HW1 7147   3.556  13.466   9.216
 1750SOL    HW2 7148   3.657  13.371   9.277
 1751SOL     OW 7149   4.766   8.976   1.575
 1751SOL    HW1 7150   4.836   9.015   1.524
 1751SOL    HW2 7151   4.691   8.971   1.515
 1752SOL     OW 7152  14.006  13.183  11.791
 1752SOL    HW1 7153  14.013  13.113  11.855
 1752SOL    HW2 7154  14.088  13.232  11.801
 1753SOL     OW 7155   9.691   0.382   1.978
 1753SOL    HW1 7156   9.724   0.412   1.894
 1753SOL    HW2 7157   9.610   0.433   1.991
 1754SOL     OW 7158  13.637   1.640  14.419
 1754SOL    HW1 7159  13.694   1.564  14.431
 1754SOL    HW2 7160  13.563   1.623  14.476
 1755SOL     OW 7161   3.636  12.922  13.268
 1755SOL    HW1 7162   3.641  13.016  13.285
 1755SOL    HW2 7163   3.628  12.915  13.173
 1756SOL     OW 7164   7.905  13.774  10.036
 1756SOL    HW1 7165   7.932  13.863  10.015
 1756SOL    HW2 7166   7.816  13.766  10.000
 1757SOL     OW 7167  13.055  11.813   3.166
 1757SOL    HW1 7168  13.102  11.826   3.083
 1757SOL    HW2 7169  13.112  11.852   3.232
 1758SOL     OW 7170  11.511   6.098  13.727
 1758SOL    HW1 7171  11.593   6.050  13.734
 1758SOL    HW2 7172  11.524   6.177  13.779
 1759SOL     OW 7173   5.466   6.700  13.991
 1759SOL    HW1 7174   5.550   6.670  14.024
 1759SOL    HW2 7175   5.462   6.666  13.901
 1760SOL     OW 7176   9.497   6.656   1.560
 1760SOL    HW1 7177   9.527   6.746   1.568
 1760SOL    HW2 7178   9.516   6.616   1.645
 1761SOL     OW 7179  14.448   1.789  14.529
 1761SOL    HW1 7180  14.496   1.714  14.493
 1761SOL    HW2 7181  14.486   1.865  14.485
 1762SOL     OW 7182   0.883   0.181   0.520
 1762SOL    HW1 7183   0.906   0.269   0.549
 1762SOL    HW2 7184   0.787   0.184   0.511
 1763SOL     OW 7185  10.494  14.818   8.647
 1763SOL    HW1 7186  10.580  14.816   8.689
 1763SOL    HW2 7187  10.484   0.027   8.618
 1764SOL     OW 7188  11.269   5.627   1.801
 1764SOL    HW1 7189  11.234   5.713   1.825
 1764SOL    HW2 7190  11.315   5.643   1.718
 1765SOL     OW 7191   5.952   6.177   4.328
 1765SOL    HW1 7192   5.948   6.252   4.387
 1765SOL    HW2 7193   5.943   6.101   4.385
 1766SOL     OW 7194   7.333   5.786   7.107
 1766SOL    HW1 7195   7.424   5.813   7.111
 1766SOL    HW2 7196   7.293   5.824   7.185
 1767SOL     OW 7197  11.405  10.544  10.350
 1767SOL    HW1 7198  11.317  10.572  10.377
 1767SOL    HW2 7199  11.415  10.581  10.262
 1768SOL     OW 7200   9.387  12.414  10.925
 1768SOL    HW1 7201   9.472  12.457  10.929
 1768SOL    HW2 7202   9.333  12.473  10.872
 1769SOL     OW 7203   7.191   8.736   1.521
 1769SOL    HW1 7204   7.170   8.651   1.484
 1769SOL    HW2 7205   7.208   8.719   1.614
 1770SOL     OW 7206  13.670  11.083   9.225
 1770SOL    HW1 7207  13.759  11.099   9.194
 1770SOL    HW2 7208  13.626  11.168   9.217
 1771SOL     OW 7209   6.950   2.044   0.181
 1771SOL    HW1 7210   7.018   2.107   0.202
 1771SOL    HW2 7211   6.958   1.976   0.248
 1772SOL     OW 7212   2.027   4.466   6.973
 1772SOL    HW1 7213   1.939   4.482   7.005
 1772SOL    HW2 7214   2.018   4.392   6.912
 1773SOL     OW 7215  10.024   7.166   3.417
 1773SOL    HW1 7216   9.993   7.129   3.500
 1773SOL    HW2 7217  10.100   7.219   3.442
 1774SOL     OW 7218   9.819   9.486   5.682
 1774SOL    HW1 7219   9.850   9.454   5.767
 1774SOL    HW2 7220   9.849   9.577   5.679
 1775SOL     OW 7221  10.381   9.713   0.273
 1775SOL    HW1 7222  10.354   9.632   0.230
 1775SOL    HW2 7223  10.322   9.719   0.349
 1776SOL     OW 7224   0.099  10.706  12.691
 1776SOL    HW1 7225   0.107  10.615  12.719
 1776SOL    HW2 7226   0.188  10.742  12.701
 1777SOL     OW 7227   9.751   2.173   6.426
 1777SOL    HW1 7228   9.833   2.190   6.380
 1777SOL    HW2 7229   9.722   2.088   6.393
 1778SOL     OW 7230   0.328  10.944   8.260
 1778SOL    HW1 7231   0.305  10.852   8.247
 1778SOL    HW2 7232   0.363  10.947   8.349
 1779SOL     OW 7233  12.991  12.975  11.544
 1779SOL    HW1 7234  12.953  13.025  11.472
 1779SOL    HW2 7235  12.941  13.002  11.621
 1780SOL     OW 7236   1.276   7.358   7.728
 1780SOL    HW1 7237   1.217   7.313   7.788
 1780SOL    HW2 7238   1.286   7.298   7.654
 1781SOL     OW 7239  13.062  11.081   0.369
 1781SOL    HW1 7240  12.986  11.138   0.368
 1781SOL    HW2 7241  13.121  11.119   0.434
 1782SOL     OW 7242   1.681   9.906   9.805
 1782SOL    HW1 7243   1.760   9.953   9.831
 1782SOL    HW2 7244   1.711   9.846   9.737
 1783SOL     OW 7245  10.654  11.043   7.389
 1783SOL    HW1 7246  10.671  11.119   7.332
 1783SOL    HW2 7247  10.697  11.065   7.471
 1784SOL     OW 7248   3.492  14.743   7.829
 1784SOL    HW1 7249   3.514  14.656   7.794
 1784SOL    HW2 7250   3.477  14.729   7.922
 1785SOL     OW 7251   5.982  13.832  10.788
 1785SOL    HW1 7252   5.919  13.782  10.737
 1785SOL    HW2 7253   6.026  13.888  10.724
 1786SOL     OW 7254   5.156   1.594   2.119
 1786SOL    HW1 7255   5.201   1.512   2.139
 1786SOL    HW2 7256   5.068   1.567   2.092
 1787SOL     OW 7257   3.098  12.494  14.615
 1787SOL    HW1 7258   3.182  12.538  14.626
 1787SOL    HW2 7259   3.115  12.403  14.640
 1788SOL     OW 7260   0.229   9.189   1.343
 1788SOL    HW1 7261   0.214   9.099   1.314
 1788SOL    HW2 7262   0.142   9.220   1.371
 1789SOL     OW 7263   3.241   1.530   4.483
 1789SOL    HW1 7264   3.232   1.511   4.390
 1789SOL    HW2 7265   3.278   1.618   4.486
 1790SOL     OW 7266  11.499   5.919   0.313
 1790SOL    HW1 7267  11.414   5.884   0.285
 1790SOL    HW2 7268  11.561   5.848   0.294
 1791SOL     OW 7269   7.520   7.326   1.253
 1791SOL    HW1 7270   7.456   7.260   1.225
 1791SOL    HW2 7271   7.596   7.311   1.197
 1792SOL     OW 7272  14.699   8.874   2.458
 1792SOL    HW1 7273  14.738   8.813   2.395
 1792SOL    HW2 7274  14.718   8.836   2.544
 1793SOL     OW 7275  14.242   2.619   3.167
 1793SOL    HW1 7276  14.231   2.659   3.253
 1793SOL    HW2 7277  14.158   2.576   3.150
 1794SOL     OW 7278   5.724  10.516   4.489
 1794SOL    HW1 7279   5.761  10.583   4.547
 1794SOL    HW2 7280   5.713  10.561   4.405
 1795SOL     OW 7281  10.474   0.404  12.434
 1795SOL    HW1 7282  10.450   0.465  12.364
 1795SOL    HW2 7283  10.569   0.403  12.434
 1796SOL     OW 7284   4.907   3.648  14.388
 1796SOL    HW1 7285   4.928   3.647  14.295
 1796SOL    HW2 7286   4.811   3.653  14.391
 1797SOL     OW 7287   5.881  14.782   0.938
 1797SOL    HW1 7288   5.951  14.844   0.919
 1797SOL    HW2 7289   5.891  14.763   1.031
 1798SOL     OW 7290   9.920   6.402   8.338
 1798SOL    HW1 7291  10.002   6.405   8.288
 1798SOL    HW2 7292   9.890   6.312   8.329
 1799SOL     OW 7293   3.935  14.103   7.611
 1799SOL    HW1 7294   3.880  14.025   7.610
 1799SOL    HW2 7295   3.994  14.093   7.536
 1800SOL     OW 7296  12.963   8.618   7.569
 1800SOL    HW1 7297  12.910   8.567   7.508
 1800SOL    HW2 7298  13.003   8.553   7.626
 1801SOL     OW 7299  11.042   7.320   3.771
 1801SOL    HW1 7300  11.070   7.401   3.815
 1801SOL    HW2 7301  11.070   7.332   3.680
 1802SOL     OW 7302   5.220   6.304   7.116
 1802SOL    HW1 7303   5.304   6.274   7.151
 1802SOL    HW2 7304   5.220   6.398   7.133
 1803SOL     OW 7305   8.992   3.139  12.291
 1803SOL    HW1 7306   9.086   3.137  12.310
 1803SOL    HW2 7307   8.966   3.046  12.291
 1804SOL     OW 7308   9.427   0.503  12.091
 1804SOL    HW1 7309   9.414   0.470  12.180
 1804SOL    HW2 7310   9.519   0.482  12.071
 1805SOL     OW 7311  11.514  14.820   6.806
 1805SOL    HW1 7312  11.439  14.830   6.748
 1805SOL    HW2 7313  11.573  14.760   6.760
 1806SOL     OW 7314  13.014   4.606   9.356
 1806SOL    HW1 7315  12.931   4.650   9.335
 1806SOL    HW2 7316  13.082   4.663   9.320
 1807SOL     OW 7317  12.733  14.001   9.058
 1807SOL    HW1 7318  12.715  13.950   8.979
 1807SOL    HW2 7319  12.648  14.036   9.084
 1808SOL     OW 7320   1.281   8.564  10.144
 1808SOL    HW1 7321   1.271   8.485  10.090
 1808SOL    HW2 7322   1.196   8.575  10.186
 1809SOL     OW 7323  10.882   4.978   9.359
 1809SOL    HW1 7324  10.855   4.921   9.288
 1809SOL    HW2 7325  10.878   4.923   9.437
 1810SOL     OW 7326  10.185   7.025   4.867
 1810SOL    HW1 7327  10.108   7.036   4.923
 1810SOL    HW2 7328  10.194   6.930   4.857
 1811SOL     OW 7329   7.708  11.281   1.390
 1811SOL    HW1 7330   7.621  11.295   1.427
 1811SOL    HW2 7331   7.700  11.200   1.339
 1812SOL     OW 7332   0.304   9.264   5.964
 1812SOL    HW1 7333   0.293   9.175   5.999
 1812SOL    HW2 7334   0.278   9.256   5.873
 1813SOL     OW 7335   1.134   4.567   3.604
 1813SOL    HW1 7336   1.228   4.561   3.625
 1813SOL    HW2 7337   1.109   4.477   3.581
 1814SOL     OW 7338   6.275   9.819  10.269
 1814SOL    HW1 7339   6.271   9.890  10.332
 1814SOL    HW2 7340   6.229   9.853  10.192
 1815SOL     OW 7341   0.424   0.222   7.456
 1815SOL    HW1 7342   0.418   0.138   7.500
 1815SOL    HW2 7343   0.336   0.260   7.463
 1816SOL     OW 7344   9.409  13.983  14.450
 1816SOL    HW1 7345   9.473  13.958  14.383
 1816SOL    HW2 7346   9.459  13.988  14.531
 1817SOL     OW 7347  12.625  11.313  13.520
 1817SOL    HW1 7348  12.538  11.351  13.507
 1817SOL    HW2 7349  12.679  11.352  13.452
 1818SOL     OW 7350   7.768  12.224   8.138
 1818SOL    HW1 7351   7.691  12.281   8.144
 1818SOL    HW2 7352   7.838  12.273   8.181
 1819SOL     OW 7353  14.814   3.280   7.729
 1819SOL    HW1 7354  14.748   3.212   7.737
 1819SOL    HW2 7355  14.764   3.361   7.716
 1820SOL     OW 7356  11.407   3.545  11.407
 1820SOL    HW1 7357  11.485   3.566  11.357
 1820SOL    HW2 7358  11.338   3.600  11.369
 1821SOL     OW 7359   5.332   2.860   2.702
 1821SOL    HW1 7360   5.256   2.911   2.675
 1821SOL    HW2 7361   5.297   2.775   2.726
 1822SOL     OW 7362   2.039  10.829   3.746
 1822SOL    HW1 7363   2.057  10.818   3.840
 1822SOL    HW2 7364   1.967  10.891   3.742
 1823SOL     OW 7365  11.546   9.249   5.121
 1823SOL    HW1 7366  11.537   9.344   5.126
 1823SOL    HW2 7367  11.638   9.234   5.100
 1824SOL     OW 7368  12.601   8.018   1.987
 1824SOL    HW1 7369  12.650   8.100   1.980
 1824SOL    HW2 7370  12.553   8.012   1.904
 1825SOL     OW 7371   2.969   5.081   3.081
 1825SOL    HW1 7372   3.037   5.021   3.113
 1825SOL    HW2 7373   2.969   5.153   3.144
 1826SOL     OW 7374   0.527   7.046  12.132
 1826SOL    HW1 7375   0.442   7.089  12.139
 1826SOL    HW2 7376   0.560   7.044  12.221
 1827SOL     OW 7377  12.475   0.766   1.424
 1827SOL    HW1 7378  12.548   0.828   1.423
 1827SOL    HW2 7379  12.516   0.682   1.403
 1828SOL     OW 7380   3.887   3.808   8.491
 1828SOL    HW1 7381   3.811   3.751   8.504
 1828SOL    HW2 7382   3.850   3.890   8.459
 1829SOL     OW 7383   7.147  11.862   7.744
 1829SOL    HW1 7384   7.224  11.905   7.781
 1829SOL    HW2 7385   7.180  11.780   7.708
 1830SOL     OW 7386  13.997   0.860   7.952
 1830SOL    HW1 7387  13.938   0.894   8.019
 1830SOL    HW2 7388  14.033   0.938   7.910
 1831SOL     OW 7389   0.817  12.785   7.404
 1831SOL    HW1 7390   0.831  12.863   7.458
 1831SOL    HW2 7391   0.772  12.817   7.326
 1832SOL     OW 7392   3.662   4.437   9.736
 1832SOL    HW1 7393   3.724   4.439   9.809
 1832SOL    HW2 7394   3.620   4.351   9.743
 1833SOL     OW 7395   5.327  14.319   6.853
 1833SOL    HW1 7396   5.291  14.326   6.765
 1833SOL    HW2 7397   5.389  14.392   6.859
 1834SOL     OW 7398   8.228   4.018   7.095
 1834SOL    HW1 7399   8.194   3.931   7.118
 1834SOL    HW2 7400   8.319   4.017   7.125
 1835SOL     OW 7401  12.026   9.786   5.479
 1835SOL    HW1 7402  11.931   9.790   5.495
 1835SOL    HW2 7403  12.036   9.721   5.410
 1836SOL     OW 7404   9.608  14.553  13.715
 1836SOL    HW1 7405   9.687  14.576  13.763
 1836SOL    HW2 7406   9.636  14.545  13.624
 1837SOL     OW 7407   5.589  11.940   6.487
 1837SOL    HW1 7408   5.684  11.944   6.478
 1837SOL    HW2 7409   5.560  12.031   6.485
 1838SOL     OW 7410   9.785   1.914  13.050
 1838SOL    HW1 7411   9.774   1.873  12.964
 1838SOL    HW2 7412   9.744   1.853  13.111
 1839SOL     OW 7413   1.926   4.252   7.148
 1839SOL    HW1 7414   1.922   4.337   7.191
 1839SOL    HW2 7415   1.988   4.265   7.076
 1840SOL     OW 7416   4.345   7.262   9.188
 1840SOL    HW1 7417   4.283   7.263   9.261
 1840SOL    HW2 7418   4.305   7.319   9.122
 1841SOL     OW 7419   4.240  12.016  14.078
 1841SOL    HW1 7420   4.177  12.055  14.016
 1841SOL    HW2 7421   4.203  11.930  14.099
 1842SOL     OW 7422   6.437   4.729   3.766
 1842SOL    HW1 7423   6.510   4.730   3.829
 1842SOL    HW2 7424   6.479   4.735   3.681
 1843SOL     OW 7425  10.235   9.549   8.962
 1843SOL    HW1 7426  10.203   9.630   9.002
 1843SOL    HW2 7427  10.271   9.575   8.877
 1844SOL     OW 7428   8.562   9.421   6.318
 1844SOL    HW1 7429   8.489   9.367   6.348
 1844SOL    HW2 7430   8.613   9.438   6.397
 1845SOL     OW 7431  13.186   7.976   5.806
 1845SOL    HW1 7432  13.102   7.934   5.786
 1845SOL    HW2 7433  13.242   7.952   5.732
 1846SOL     OW 7434  11.657   8.076   6.537
 1846SOL    HW1 7435  11.678   8.168   6.551
 1846SOL    HW2 7436  11.606   8.051   6.614
 1847SOL     OW 7437   2.187  10.105   1.666
 1847SOL    HW1 7438   2.276  10.110   1.700
 1847SOL    HW2 7439   2.154  10.022   1.699
 1848SOL     OW 7440   3.755   7.319  12.127
 1848SOL    HW1 7441   3.848   7.340  12.114
 1848SOL    HW2 7442   3.732   7.366  12.207
 1849SOL     OW 7443   0.610   2.672  11.667
 1849SOL    HW1 7444   0.625   2.584  11.632
 1849SOL    HW2 7445   0.620   2.662  11.761
 1850SOL     OW 7446  13.264  12.699  13.874
 1850SOL    HW1 7447  13.285  12.697  13.781
 1850SOL    HW2 7448  13.249  12.791  13.894
 1851SOL     OW 7449   2.363   7.556   5.052
 1851SOL    HW1 7450   2.399   7.589   4.970
 1851SOL    HW2 7451   2.440   7.533   5.104
 1852SOL     OW 7452  10.132   9.823   3.295
 1852SOL    HW1 7453  10.197   9.876   3.342
 1852SOL    HW2 7454  10.184   9.756   3.250
 1853SOL     OW 7455  13.935   6.505   2.616
 1853SOL    HW1 7456  13.869   6.531   2.680
 1853SOL    HW2 7457  13.891   6.514   2.532
 1854SOL     OW 7458   7.311   9.586  11.644
 1854SOL    HW1 7459   7.387   9.645  11.648
 1854SOL    HW2 7460   7.237   9.643  11.623
 1855SOL     OW 7461   7.123   8.682   0.968
 1855SOL    HW1 7462   7.170   8.633   0.900
 1855SOL    HW2 7463   7.050   8.723   0.921
 1856SOL     OW 7464   5.236   9.762  14.645
 1856SOL    HW1 7465   5.205   9.708  14.717
 1856SOL    HW2 7466   5.281   9.835  14.688
 1857SOL     OW 7467   0.860   3.790  14.624
 1857SOL    HW1 7468   0.802   3.788  14.548
 1857SOL    HW2 7469   0.807   3.829  14.693
 1858SOL     OW 7470   4.601  11.930   8.439
 1858SOL    HW1 7471   4.574  11.936   8.530
 1858SOL    HW2 7472   4.519  11.937   8.389
 1859SOL     OW 7473  13.176   3.574   2.095
 1859SOL    HW1 7474  13.213   3.590   2.182
 1859SOL    HW2 7475  13.082   3.566   2.109
 1860SOL     OW 7476   6.669  14.314   2.886
 1860SOL    HW1 7477   6.717  14.271   2.815
 1860SOL    HW2 7478   6.635  14.395   2.847
 1861SOL     OW 7479   5.869  10.513   8.261
 1861SOL    HW1 7480   5.954  10.557   8.260
 1861SOL    HW2 7481   5.887  10.426   8.297
 1862SOL     OW 7482   9.771  13.113   9.229
 1862SOL    HW1 7483   9.749  13.043   9.290
 1862SOL    HW2 7484   9.805  13.183   9.284
 1863SOL     OW 7485   0.435   2.442   6.441
 1863SOL    HW1 7486   0.378   2.366   6.428
 1863SOL    HW2 7487   0.414   2.500   6.368
 1864SOL     OW 7488  14.378   9.201  12.027
 1864SOL    HW1 7489  14.349   9.172  11.940
 1864SOL    HW2 7490  14.302   9.245  12.064
 1865SOL     OW 7491   1.078  11.257   2.598
 1865SOL    HW1 7492   1.061  11.342   2.639
 1865SOL    HW2 7493   0.994  11.213   2.599
 1866SOL     OW 7494   8.681   5.479   0.257
 1866SOL    HW1 7495   8.616   5.548   0.275
 1866SOL    HW2 7496   8.646   5.402   0.302
 1867SOL     OW 7497   8.864   2.557   3.240
 1867SOL    HW1 7498   8.918   2.498   3.188
 1867SOL    HW2 7499   8.780   2.512   3.250
 1868SOL     OW 7500  13.769   3.857   6.693
 1868SOL    HW1 7501  13.811   3.904   6.765
 1868SOL    HW2 7502  13.774   3.917   6.619
 1869SOL     OW 7503   3.620  13.034   9.540
 1869SOL    HW1 7504   3.711  13.040   9.567
 1869SOL    HW2 7505   3.603  12.940   9.532
 1870SOL     OW 7506   4.638   2.220   5.422
 1870SOL    HW1 7507   4.707   2.274   5.459
 1870SOL    HW2 7508   4.560   2.276   5.424
 1871SOL     OW 7509  10.885  12.106   1.169
 1871SOL    HW1 7510  10.827  12.118   1.094
 1871SOL    HW2 7511  10.911  12.195   1.194
 1872SOL     OW 7512   8.283   9.588  14.055
 1872SOL    HW1 7513   8.350   9.569  14.120
 1872SOL    HW2 7514   8.283   9.683  14.047
 1873SOL     OW 7515   1.354   5.742   0.492
 1873SOL    HW1 7516   1.278   5.800   0.482
 1873SOL    HW2 7517   1.406   5.783   0.561
 1874SOL     OW 7518   2.506   5.605   5.768
 1874SOL    HW1 7519   2.459   5.661   5.830
 1874SOL    HW2 7520   2.573   5.663   5.730
 1875SOL     OW 7521   4.977  13.968  12.766
 1875SOL    HW1 7522   4.886  13.948  12.742
 1875SOL    HW2 7523   4.980  13.958  12.861
 1876SOL     OW 7524   9.406  11.250   9.407
 1876SOL    HW1 7525   9.318  11.262   9.441
 1876SOL    HW2 7526   9.394  11.210   9.321
 1877SOL     OW 7527   4.174   3.435  13.468
 1877SOL    HW1 7528   4.113   3.495  13.511
 1877SOL    HW2 7529   4.182   3.470  13.379
 1878SOL     OW 7530   2.136   7.849   2.291
 1878SOL    HW1 7531   2.071   7.902   2.244
 1878SOL    HW2 7532   2.197   7.914   2.327
 1879SOL     OW 7533  13.976   3.685   3.845
 1879SOL    HW1 7534  13.900   3.732   3.808
 1879SOL    HW2 7535  13.953   3.671   3.937
 1880SOL     OW 7536   5.023  13.375   2.480
 1880SOL    HW1 7537   5.115  13.368   2.456
 1880SOL    HW2 7538   4.979  13.307   2.428
 1881SOL     OW 7539   3.730   4.188   5.886
 1881SOL    HW1 7540   3.696   4.151   5.805
 1881SOL    HW2 7541   3.703   4.127   5.954
 1882SOL     OW 7542  11.968   4.226   6.671
 1882SOL    HW1 7543  11.952   4.251   6.762
 1882SOL    HW2 7544  11.912   4.149   6.658
 1883SOL     OW 7545   3.539   0.229   2.085
 1883SOL    HW1 7546   3.470   0.234   2.151
 1883SOL    HW2 7547   3.545   0.317   2.050
 1884SOL     OW 7548  11.581  10.274   3.571
 1884SOL    HW1 7549  11.555  10.222   3.648
 1884SOL    HW2 7550  11.659  10.322   3.599
 1885SOL     OW 7551   9.293   1.454   1.231
 1885SOL    HW1 7552   9.370   1.421   1.278
 1885SOL    HW2 7553   9.327   1.525   1.176
 1886SOL     OW 7554   7.344  13.736   3.571
 1886SOL    HW1 7555   7.279  13.668   3.552
 1886SOL    HW2 7556   7.293  13.810   3.603
 1887SOL     OW 7557   0.447   2.998  12.528
 1887SOL    HW1 7558   0.371   3.024  12.476
 1887SOL    HW2 7559   0.511   2.970  12.464
 1888SOL     OW 7560   7.329   9.818  11.319
 1888SOL    HW1 7561   7.324   9.724  11.336
 1888SOL    HW2 7562   7.395   9.851  11.379
 1889SOL     OW 7563   5.106  14.354  12.101
 1889SOL    HW1 7564   5.075  14.275  12.147
 1889SOL    HW2 7565   5.200  14.340  12.090
 1890SOL     OW 7566   9.222  10.619   3.976
 1890SOL    HW1 7567   9.267  10.676   4.038
 1890SOL    HW2 7568   9.230  10.664   3.892
 1891SOL     OW 7569   4.377   0.828   6.337
 1891SOL    HW1 7570   4.349   0.872   6.257
 1891SOL    HW2 7571   4.471   0.817   6.327
 1892SOL     OW 7572   0.936   1.721  14.157
 1892SOL    HW1 7573   0.893   1.649  14.204
 1892SOL    HW2 7574   0.909   1.709  14.066
 1893SOL     OW 7575   8.428   5.670  10.694
 1893SOL    HW1 7576   8.444   5.732  10.764
 1893SOL    HW2 7577   8.343   5.632  10.714
 1894SOL     OW 7578   4.967  11.336   0.824
 1894SOL    HW1 7579   4.977  11.311   0.916
 1894SOL    HW2 7580   5.057  11.347   0.793
 1895SOL     OW 7581   8.872   3.813  13.973
 1895SOL    HW1 7582   8.781   3.803  14.003
 1895SOL    HW2 7583   8.913   3.869  14.039
 1896SOL     OW 7584  12.728  10.998   0.458
 1896SOL    HW1 7585  12.638  11.002   0.491
 1896SOL    HW2 7586  12.719  10.976   0.366
 1897SOL     OW 7587   7.955  10.043   6.666
 1897SOL    HW1 7588   8.023  10.024   6.731
 1897SOL    HW2 7589   7.921   9.957   6.641
 1898SOL     OW 7590  10.225  11.652  13.630
 1898SOL    HW1 7591  10.266  11.713  13.691
 1898SOL    HW2 7592  10.238  11.566  13.670
 1899SOL     OW 7593   4.486   9.217  11.359
 1899SOL    HW1 7594   4.476   9.226  11.454
 1899SOL    HW2 7595   4.443   9.295  11.323
 1900SOL     OW 7596  10.392   3.599   6.346
 1900SOL    HW1 7597  10.315   3.557   6.309
 1900SOL    HW2 7598  10.369   3.692   6.351
 1901SOL     OW 7599   4.276   1.019  10.360
 1901SOL    HW1 7600   4.286   1.068  10.441
 1901SOL    HW2 7601   4.235   1.080  10.299
 1902SOL     OW 7602   2.816  10.853   9.442
 1902SOL    HW1 7603   2.722  10.843   9.460
 1902SOL    HW2 7604   2.854  10.767   9.461
 1903SOL     OW 7605   4.482  10.537   3.573
 1903SOL    HW1 7606   4.405  10.519   3.626
 1903SOL    HW2 7607   4.541  10.584   3.632
 1904SOL     OW 7608   8.057  12.133  14.558
 1904SOL    HW1 7609   8.150  12.120  14.541
 1904SOL    HW2 7610   8.021  12.045  14.566
 1905SOL     OW 7611   1.435   5.172  10.183
 1905SOL    HW1 7612   1.507   5.235  10.181
 1905SOL    HW2 7613   1.434   5.134  10.095
 1906SOL     OW 7614   8.949   5.696   7.997
 1906SOL    HW1 7615   8.921   5.787   7.983
 1906SOL    HW2 7616   8.947   5.685   8.092
 1907SOL     OW 7617   7.954  10.000   1.404
 1907SOL    HW1 7618   7.911   9.977   1.321
 1907SOL    HW2 7619   7.978  10.092   1.394
 1908SOL     OW 7620   3.289   7.571   7.040
 1908SOL    HW1 7621   3.244   7.510   7.099
 1908SOL    HW2 7622   3.350   7.618   7.097
 1909SOL     OW 7623   4.152   9.654   8.341
 1909SOL    HW1 7624   4.113   9.741   8.348
 1909SOL    HW2 7625   4.221   9.664   8.276
 1910SOL     OW 7626   1.659   1.100   0.783
 1910SOL    HW1 7627   1.694   1.180   0.824
 1910SOL    HW2 7628   1.564   1.107   0.794
 1911SOL     OW 7629  13.363   6.834   2.354
 1911SOL    HW1 7630  13.306   6.854   2.429
 1911SOL    HW2 7631  13.303   6.805   2.285
 1912SOL     OW 7632   0.973   2.041   6.427
 1912SOL    HW1 7633   0.997   1.949   6.440
 1912SOL    HW2 7634   0.912   2.060   6.498
 1913SOL     OW 7635   3.696   2.570   4.385
 1913SOL    HW1 7636   3.786   2.538   4.387
 1913SOL    HW2 7637   3.646   2.501   4.342
 1914SOL     OW 7638  11.789   8.212  11.432
 1914SOL    HW1 7639  11.812   8.120  11.420
 1914SOL    HW2 7640  11.777   8.246  11.343
 1915SOL     OW 7641  11.892  14.828  10.984
 1915SOL    HW1 7642  11.806  14.818  11.024
 1915SOL    HW2 7643  11.882   0.019  10.924
 1916SOL     OW 7644  12.980   7.747   9.477
 1916SOL    HW1 7645  12.891   7.750   9.512
 1916SOL    HW2 7646  12.981   7.670   9.419
 1917SOL     OW 7647   1.879  12.144  10.769
 1917SOL    HW1 7648   1.876  12.213  10.835
 1917SOL    HW2 7649   1.860  12.188  10.686
 1918SOL     OW 7650   8.078  12.640  12.071
 1918SOL    HW1 7651   8.129  12.713  12.106
 1918SOL    HW2 7652   8.024  12.611  12.144
 1919SOL     OW 7653   2.928   7.909   8.073
 1919SOL    HW1 7654   2.914   7.835   8.132
 1919SOL    HW2 7655   2.991   7.965   8.118
 1920SOL     OW 7656   6.832  10.247   4.981
 1920SOL    HW1 7657   6.751  10.281   4.942
 1920SOL    HW2 7658   6.806  10.218   5.069
 1921SOL     OW 7659   7.639   1.632   4.521
 1921SOL    HW1 7660   7.638   1.613   4.615
 1921SOL    HW2 7661   7.614   1.724   4.514
 1922SOL     OW 7662   0.251   0.063   2.433
 1922SOL    HW1 7663   0.326   0.104   2.476
 1922SOL    HW2 7664   0.180   0.126   2.445
 1923SOL     OW 7665  12.030  10.694  12.861
 1923SOL    HW1 7666  11.994  10.685  12.949
 1923SOL    HW2 7667  12.119  10.727  12.875
 1924SOL     OW 7668   0.458   0.086   2.219
 1924SOL    HW1 7669   0.478   0.043   2.302
 1924SOL    HW2 7670   0.363   0.100   2.222
 1925SOL     OW 7671  14.416   8.136  10.423
 1925SOL    HW1 7672  14.446   8.057  10.467
 1925SOL    HW2 7673  14.337   8.162  10.472
 1926SOL     OW 7674   5.983   7.718   1.949
 1926SOL    HW1 7675   5.926   7.642   1.936
 1926SOL    HW2 7676   6.050   7.710   1.880
 1927SOL     OW 7677   2.152   2.375   9.129
 1927SOL    HW1 7678   2.060   2.387   9.107
 1927SOL    HW2 7679   2.199   2.429   9.065
 1928SOL     OW 7680  13.438  14.601   7.755
 1928SOL    HW1 7681  13.350  14.562   7.761
 1928SOL    HW2 7682  13.423  14.695   7.763
 1929SOL     OW 7683   5.357  14.856   7.756
 1929SOL    HW1 7684   5.340   0.061   7.792
 1929SOL    HW2 7685   5.451  14.844   7.764
 1930SOL     OW 7686  12.700  13.236  10.045
 1930SOL    HW1 7687  12.762  13.240  10.118
 1930SOL    HW2 7688  12.680  13.327  10.026
 1931SOL     OW 7689   0.415   5.484   1.006
 1931SOL    HW1 7690   0.433   5.578   1.007
 1931SOL    HW2 7691   0.471   5.450   0.936
 1932SOL     OW 7692  11.661  14.027  13.391
 1932SOL    HW1 7693  11.581  14.077  13.403
 1932SOL    HW2 7694  11.634  13.935  13.401
 1933SOL     OW 7695   3.273   2.322   5.644
 1933SOL    HW1 7696   3.330   2.326   5.567
 1933SOL    HW2 7697   3.308   2.388   5.704
 1934SOL     OW 7698   6.096   9.802   9.829
 1934SOL    HW1 7699   6.081   9.715   9.792
 1934SOL    HW2 7700   6.031   9.859   9.786
 1935SOL     OW 7701   2.462  13.905   0.621
 1935SOL    HW1 7702   2.445  13.999   0.614
 1935SOL    HW2 7703   2.513  13.895   0.701
 1936SOL     OW 7704   6.806  11.530  12.483
 1936SOL    HW1 7705   6.783  11.621  12.463
 1936SOL    HW2 7706   6.743  11.504  12.550
 1937SOL     OW 7707   7.702   6.984  12.949
 1937SOL    HW1 7708   7.788   7.015  12.923
 1937SOL    HW2 7709   7.645   7.008  12.875
 1938SOL     OW 7710   1.823   1.335   1.708
 1938SOL    HW1 7711   1.789   1.288   1.632
 1938SOL    HW2 7712   1.749   1.387   1.740
 1939SOL     OW 7713   4.294   5.788  14.689
 1939SOL    HW1 7714   4.242   5.781  14.609
 1939SOL    HW2 7715   4.235   5.829  14.752
 1940SOL     OW 7716   0.994   4.782  13.956
 1940SOL    HW1 7717   1.077   4.803  14.000
 1940SOL    HW2 7718   0.983   4.688  13.970
 1941SOL     OW 7719   9.445   3.176  14.708
 1941SOL    HW1 7720   9.490   3.139  14.784
 1941SOL    HW2 7721   9.501   3.153  14.634
 1942SOL     OW 7722   9.227   7.632  14.316
 1942SOL    HW1 7723   9.260   7.659  14.230
 1942SOL    HW2 7724   9.259   7.700  14.376
 1943SOL     OW 7725   5.458  13.377   0.277
 1943SOL    HW1 7726   5.469  13.358   0.184
 1943SOL    HW2 7727   5.518  13.449   0.294
 1944SOL     OW 7728   3.312   1.294   0.838
 1944SOL    HW1 7729   3.231   1.268   0.882
 1944SOL    HW2 7730   3.377   1.229   0.865
 1945SOL     OW 7731   9.168   2.059   1.511
 1945SOL    HW1 7732   9.246   2.102   1.545
 1945SOL    HW2 7733   9.104   2.066   1.582
 1946SOL     OW 7734  11.234   8.116   1.849
 1946SOL    HW1 7735  11.286   8.175   1.904
 1946SOL    HW2 7736  11.253   8.144   1.759
 1947SOL     OW 7737   1.666   0.506  11.448
 1947SOL    HW1 7738   1.584   0.556  11.445
 1947SOL    HW2 7739   1.704   0.527  11.533
 1948SOL     OW 7740  14.620  10.934   2.955
 1948SOL    HW1 7741  14.564  10.904   2.883
 1948SOL    HW2 7742  14.591  11.023   2.973
 1949SOL     OW 7743   6.833   8.300  13.639
 1949SOL    HW1 7744   6.809   8.389  13.666
 1949SOL    HW2 7745   6.928   8.301  13.630
 1950SOL     OW 7746  14.668  13.659   3.852
 1950SOL    HW1 7747  14.704  13.588   3.904
 1950SOL    HW2 7748  14.708  13.738   3.887
 1951SOL     OW 7749   2.550   3.106   0.128
 1951SOL    HW1 7750   2.608   3.147   0.191
 1951SOL    HW2 7751   2.606   3.046   0.078
 1952SOL     OW 7752  14.770  14.254   9.156
 1952SOL    HW1 7753  14.819  14.305   9.220
 1952SOL    HW2 7754  14.802  14.284   9.071
 1953SOL     OW 7755  10.683   4.777   0.940
 1953SOL    HW1 7756  10.627   4.730   0.879
 1953SOL    HW2 7757  10.696   4.863   0.900
 1954SOL     OW 7758   1.134   8.190   4.666
 1954SOL    HW1 7759   1.068   8.212   4.731
 1954SOL    HW2 7760   1.185   8.271   4.656
 1955SOL     OW 7761  14.722   5.143   3.638
 1955SOL    HW1 7762  14.664   5.099   3.701
 1955SOL    HW2 7763  14.680   5.129   3.553
 1956SOL     OW 7764   0.560  13.810   9.228
 1956SOL    HW1 7765   0.493  13.866   9.266
 1956SOL    HW2 7766   0.530  13.795   9.138
 1957SOL     OW 7767   5.368   9.293   4.457
 1957SOL    HW1 7768   5.414   9.335   4.529
 1957SOL    HW2 7769   5.353   9.364   4.393
 1958SOL     OW 7770   8.543  12.353   7.245
 1958SOL    HW1 7771   8.538  12.429   7.188
 1958SOL    HW2 7772   8.468  12.361   7.304
 1959SOL     OW 7773   1.936  12.899   4.296
 1959SOL    HW1 7774   1.908  12.968   4.235
 1959SOL    HW2 7775   2.024  12.926   4.323
 1960SOL     OW 7776   0.552   4.858   8.641
 1960SOL    HW1 7777   0.609   4.923   8.682
 1960SOL    HW2 7778   0.472   4.906   8.618
 1961SOL     OW 7779   2.542  14.312   3.101
 1961SOL    HW1 7780   2.529  14.219   3.080
 1961SOL    HW2 7781   2.637  14.320   3.117
 1962SOL     OW 7782   6.222   8.807   9.595
 1962SOL    HW1 7783   6.197   8.714   9.599
 1962SOL    HW2 7784   6.175   8.841   9.519
 1963SOL     OW 7785   3.370   1.975   9.628
 1963SOL    HW1 7786   3.320   1.956   9.549
 1963SOL    HW2 7787   3.309   2.026   9.682
 1964SOL     OW 7788   6.849   9.979  10.355
 1964SOL    HW1 7789   6.836   9.978  10.261
 1964SOL    HW2 7790   6.843   9.887  10.381
 1965SOL     OW 7791   6.785  13.328   1.982
 1965SOL    HW1 7792   6.704  13.290   2.017
 1965SOL    HW2 7793   6.796  13.410   2.030
 1966SOL     OW 7794   1.568   7.934   0.092
 1966SOL    HW1 7795   1.652   7.980   0.090
 1966SOL    HW2 7796   1.579   7.868   0.161
 1967SOL     OW 7797  13.032   1.661   8.470
 1967SOL    HW1 7798  12.979   1.700   8.539
 1967SOL    HW2 7799  13.027   1.567   8.487
 1968SOL     OW 7800   1.004  10.074   3.089
 1968SOL    HW1 7801   0.913  10.099   3.074
 1968SOL    HW2 7802   1.047  10.090   3.005
 1969SOL     OW 7803   0.514   3.895   7.466
 1969SOL    HW1 7804   0.557   3.980   7.465
 1969SOL    HW2 7805   0.547   3.852   7.545
 1970SOL     OW 7806   9.861  12.799   9.587
 1970SOL    HW1 7807   9.938  12.807   9.530
 1970SOL    HW2 7808   9.885  12.847   9.666
 1971SOL     OW 7809   0.047   4.697   1.560
 1971SOL    HW1 7810   0.045   4.712   1.655
 1971SOL    HW2 7811   0.141   4.690   1.539
 1972SOL     OW 7812   8.358   2.375   2.941
 1972SOL    HW1 7813   8.366   2.402   2.849
 1972SOL    HW2 7814   8.265   2.353   2.951
 1973SOL     OW 7815   5.369   4.754   9.238
 1973SOL    HW1 7816   5.410   4.755   9.325
 1973SOL    HW2 7817   5.312   4.831   9.238
 1974SOL     OW 7818  12.847   3.317   3.487
 1974SOL    HW1 7819  12.830   3.261   3.563
 1974SOL    HW2 7820  12.768   3.309   3.433
 1975SOL     OW 7821  12.578  12.957   1.390
 1975SOL    HW1 7822  12.548  12.866   1.394
 1975SOL    HW2 7823  12.537  13.000   1.465
 1976SOL     OW 7824   3.944  11.251  11.857
 1976SOL    HW1 7825   4.007  11.232  11.787
 1976SOL    HW2 7826   3.876  11.303  11.814
 1977SOL     OW 7827  11.579   3.358  13.278
 1977SOL    HW1 7828  11.564   3.446  13.310
 1977SOL    HW2 7829  11.674   3.352  13.266
 1978SOL     OW 7830   2.198   2.090   7.688
 1978SOL    HW1 7831   2.115   2.080   7.643
 1978SOL    HW2 7832   2.187   2.043   7.771
 1979SOL     OW 7833  12.925  14.712   3.805
 1979SOL    HW1 7834  12.850  14.771   3.814
 1979SOL    HW2 7835  12.888  14.624   3.817
 1980SOL     OW 7836   3.734   5.173  11.918
 1980SOL    HW1 7837   3.826   5.155  11.935
 1980SOL    HW2 7838   3.686   5.108  11.971
 1981SOL     OW 7839   3.723   0.712   5.525
 1981SOL    HW1 7840   3.674   0.788   5.554
 1981SOL    HW2 7841   3.699   0.642   5.586
 1982SOL     OW 7842   4.329   9.520  10.084
 1982SOL    HW1 7843   4.380   9.508  10.004
 1982SOL    HW2 7844   4.395   9.523  10.154
 1983SOL     OW 7845   2.828  11.514  14.514
 1983SOL    HW1 7846   2.803  11.597  14.555
 1983SOL    HW2 7847   2.921  11.522  14.497
 1984SOL     OW 7848   8.023   0.473   9.916
 1984SOL    HW1 7849   8.008   0.484  10.009
 1984SOL    HW2 7850   8.063   0.386   9.908
 1985SOL     OW 7851  10.511   5.920   7.244
 1985SOL    HW1 7852  10.422   5.897   7.216
 1985SOL    HW2 7853  10.508   6.015   7.257
 1986SOL     OW 7854  11.276   1.196   2.331
 1986SOL    HW1 7855  11.190   1.199   2.290
 1986SOL    HW2 7856  11.336   1.174   2.259
 1987SOL     OW 7857   6.602   7.755   5.795
 1987SOL    HW1 7858   6.511   7.782   5.797
 1987SOL    HW2 7859   6.646   7.821   5.741
 1988SOL     OW 7860  10.383   4.250   1.422
 1988SOL    HW1 7861  10.396   4.269   1.330
 1988SOL    HW2 7862  10.407   4.332   1.467
 1989SOL     OW 7863   7.819   3.764   2.994
 1989SOL    HW1 7864   7.725   3.781   2.986
 1989SOL    HW2 7865   7.836   3.764   3.088
 1990SOL     OW 7866  11.342   1.243   8.624
 1990SOL    HW1 7867  11.253   1.217   8.649
 1990SOL    HW2 7868  11.330   1.298   8.546
 1991SOL     OW 7869   6.403   1.498   6.157
 1991SOL    HW1 7870   6.454   1.508   6.077
 1991SOL    HW2 7871   6.462   1.523   6.227
 1992SOL     OW 7872  13.259   6.772   4.904
 1992SOL    HW1 7873  13.204   6.800   4.977
 1992SOL    HW2 7874  13.234   6.680   4.889
 1993SOL     OW 7875   6.370  10.103   9.164
 1993SOL    HW1 7876   6.415  10.106   9.248
 1993SOL    HW2 7877   6.441  10.095   9.100
 1994SOL     OW 7878  12.211   6.466  14.835
 1994SOL    HW1 7879  12.203   6.520   0.031
 1994SOL    HW2 7880  12.169   6.383  14.859
 1995SOL     OW 7881  14.870   3.093  12.697
 1995SOL    HW1 7882  14.829   3.039  12.765
 1995SOL    HW2 7883   0.040   3.157  12.745
 1996SOL     OW 7884  10.255   2.584  12.226
 1996SOL    HW1 7885  10.328   2.526  12.206
 1996SOL    HW2 7886  10.177   2.533  12.204
 1997SOL     OW 7887   0.868  13.922   7.877
 1997SOL    HW1 7888   0.773  13.931   7.869
 1997SOL    HW2 7889   0.881  13.832   7.906
 1998SOL     OW 7890  12.763   7.508   6.418
 1998SOL    HW1 7891  12.749   7.518   6.512
 1998SOL    HW2 7892  12.715   7.582   6.379
 1999SOL     OW 7893  12.300   1.137   6.264
 1999SOL    HW1 7894  12.285   1.060   6.209
 1999SOL    HW2 7895  12.214   1.160   6.297
 2000SOL     OW 7896   6.059  13.875   3.887
 2000SOL    HW1 7897   6.078  13.891   3.795
 2000SOL    HW2 7898   6.131  13.820   3.918
 2001SOL     OW 7899  10.878   8.359   4.186
 2001SOL    HW1 7900  10.832   8.311   4.254
 2001SOL    HW2 7901  10.956   8.306   4.168
 2002SOL     OW 7902   9.541  10.212   1.610
 2002SOL    HW1 7903   9.458  10.227   1.655
 2002SOL    HW2 7904   9.597  10.171   1.677
 2003SOL     OW 7905   6.732   0.696   0.212
 2003SOL    HW1 7906   6.698   0.748   0.139
 2003SOL    HW2 7907   6.698   0.739   0.291
 2004SOL     OW 7908   8.459   4.412   0.025
 2004SOL    HW1 7909   8.496   4.325   0.040
 2004SOL    HW2 7910   8.364   4.397   0.024
 2005SOL     OW 7911  13.849  11.663  11.478
 2005SOL    HW1 7912  13.762  11.700  11.463
 2005SOL    HW2 7913  13.840  11.570  11.455
 2006SOL     OW 7914   5.313   0.216   8.562
 2006SOL    HW1 7915   5.275   0.301   8.538
 2006SOL    HW2 7916   5.381   0.238   8.626
 2007SOL     OW 7917   4.479  11.064   8.903
 2007SOL    HW1 7918   4.485  11.118   8.981
 2007SOL    HW2 7919   4.395  11.020   8.910
 2008SOL     OW 7920   7.851  14.638   2.093
 2008SOL    HW1 7921   7.944  14.619   2.081
 2008SOL    HW2 7922   7.819  14.568   2.150
 2009SOL     OW 7923   6.034  14.289  11.944
 2009SOL    HW1 7924   5.984  14.366  11.917
 2009SOL    HW2 7925   6.013  14.222  11.880
 2010SOL     OW 7926   4.129  12.575   1.989
 2010SOL    HW1 7927   4.155  12.519   1.916
 2010SOL    HW2 7928   4.200  12.567   2.052
 2011SOL     OW 7929   9.136   4.672   6.846
 2011SOL    HW1 7930   9.202   4.615   6.884
 2011SOL    HW2 7931   9.055   4.620   6.848
 2012SOL     OW 7932   6.910   8.976   2.913
 2012SOL    HW1 7933   6.991   9.021   2.887
 2012SOL    HW2 7934   6.887   9.016   2.997
 2013SOL     OW 7935   0.413   2.225   6.007
 2013SOL    HW1 7936   0.374   2.313   6.013
 2013SOL    HW2 7937   0.388   2.194   5.921
 2014SOL     OW 7938   6.301   4.367  14.429
 2014SOL    HW1 7939   6.357   4.292  14.410
 2014SOL    HW2 7940   6.340   4.408  14.506
 2015SOL     OW 7941  13.564  10.298  11.094
 2015SOL    HW1 7942  13.644  10.289  11.041
 2015SOL    HW2 7943  13.557  10.393  11.109
 2016SOL     OW 7944   2.404   1.290   8.697
 2016SOL    HW1 7945   2.361   1.214   8.657
 2016SOL    HW2 7946   2.335   1.357   8.702
 2017SOL     OW 7947   3.581   2.155   9.887
 2017SOL    HW1 7948   3.589   2.084   9.823
 2017SOL    HW2 7949   3.606   2.234   9.840
 2018SOL     OW 7950   4.428   7.117   6.824
 2018SOL    HW1 7951   4.361   7.184   6.835
 2018SOL    HW2 7952   4.508   7.166   6.804
 2019SOL     OW 7953  11.143   8.709   9.076
 2019SOL    HW1 7954  11.200   8.784   9.056
 2019SOL    HW2 7955  11.056   8.738   9.048
 2020SOL     OW 7956  10.187  14.027   1.841
 2020SOL    HW1 7957  10.216  14.063   1.757
 2020SOL    HW2 7958  10.104  13.984   1.821
 2021SOL     OW 7959  14.504   2.536   2.478
 2021SOL    HW1 7960  14.555   2.612   2.506
 2021SOL    HW2 7961  14.436   2.528   2.544
 2022SOL     OW 7962   6.331   2.682  10.442
 2022SOL    HW1 7963   6.243   2.719  10.433
 2022SOL    HW2 7964   6.385   2.738  10.386
 2023SOL     OW 7965   4.493  10.467  14.619
 2023SOL    HW1 7966   4.526  10.515  14.695
 2023SOL    HW2 7967   4.506  10.374  14.642
 2024SOL     OW 7968  14.015   6.950   8.906
 2024SOL    HW1 7969  13.965   7.006   8.965
 2024SOL    HW2 7970  14.107   6.970   8.927
 2025SOL     OW 7971  10.882   9.342   3.961
 2025SOL    HW1 7972  10.901   9.399   3.886
 2025SOL    HW2 7973  10.821   9.392   4.014
 2026SOL     OW 7974   5.821  14.628  11.958
 2026SOL    HW1 7975   5.753  14.611  12.023
 2026SOL    HW2 7976   5.798  14.713  11.920
 2027SOL     OW 7977   0.321  10.400   3.753
 2027SOL    HW1 7978   0.241  10.393   3.702
 2027SOL    HW2 7979   0.314  10.485   3.797
 2028SOL     OW 7980   8.656  12.213   8.829
 2028SOL    HW1 7981   8.749  12.200   8.847
 2028SOL    HW2 7982   8.618  12.125   8.830
 2029SOL     OW 7983   6.848   5.228   7.565
 2029SOL    HW1 7984   6.824   5.306   7.616
 2029SOL    HW2 7985   6.859   5.159   7.631
 2030SOL     OW 7986   6.484   9.406  10.500
 2030SOL    HW1 7987   6.434   9.473  10.546
 2030SOL    HW2 7988   6.559   9.389  10.557
 2031SOL     OW 7989   1.604   4.573   2.463
 2031SOL    HW1 7990   1.568   4.491   2.496
 2031SOL    HW2 7991   1.601   4.632   2.538
 2032SOL     OW 7992   0.173  11.434   2.776
 2032SOL    HW1 7993   0.106  11.473   2.832
 2032SOL    HW2 7994   0.221  11.509   2.740
 2033SOL     OW 7995  13.042   8.296  11.565
 2033SOL    HW1 7996  13.018   8.333  11.480
 2033SOL    HW2 7997  13.102   8.360  11.604
 2034SOL     OW 7998  14.879   4.394   0.247
 2034SOL    HW1 7999  14.856   4.452   0.175
 2034SOL    HW2 8000   0.034   4.451   0.313
 2035SOL     OW 8001  11.360   1.767  14.088
 2035SOL    HW1 8002  11.402   1.768  14.002
 2035SOL    HW2 8003  11.299   1.694  14.084
 2036SOL     OW 8004  10.683   7.709  10.094
 2036SOL    HW1 8005  10.702   7.678  10.183
 2036SOL    HW2 8006  10.617   7.777  10.106
 2037SOL     OW 8007  14.000   7.915   7.416
 2037SOL    HW1 8008  13.926   7.939   7.471
 2037SOL    HW2 8009  13.963   7.858   7.349
 2038SOL     OW 8010   3.470   8.295  11.898
 2038SOL    HW1 8011   3.486   8.234  11.971
 2038SOL    HW2 8012   3.381   8.276  11.870
 2039SOL     OW 8013   2.911   5.866   9.959
 2039SOL    HW1 8014   2.866   5.927   9.900
 2039SOL    HW2 8015   2.854   5.789   9.962
 2040SOL     OW 8016  11.449   7.507  11.594
 2040SOL    HW1 8017  11.423   7.573  11.530
 2040SOL    HW2 8018  11.521   7.547  11.642
 2041SOL     OW 8019   8.892   0.829   8.015
 2041SOL    HW1 8020   8.925   0.851   7.928
 2041SOL    HW2 8021   8.968   0.836   8.072
 2042SOL     OW 8022  13.915   4.150   6.148
 2042SOL    HW1 8023  13.831   4.192   6.166
 2042SOL    HW2 8024  13.905   4.115   6.059
 2043SOL     OW 8025   1.753   4.999  10.416
 2043SOL    HW1 8026   1.682   4.967  10.360
 2043SOL    HW2 8027   1.788   5.075  10.370
 2044SOL     OW 8028  14.144   6.071   1.186
 2044SOL    HW1 8029  14.051   6.056   1.171
 2044SOL    HW2 8030  14.151   6.165   1.202
 2045SOL     OW 8031   0.044   1.472  11.608
 2045SOL    HW1 8032  14.833   1.474  11.628
 2045SOL    HW2 8033   0.063   1.380  11.590
 2046SOL     OW 8034   6.602  12.146   3.996
 2046SOL    HW1 8035   6.522  12.150   4.049
 2046SOL    HW2 8036   6.577  12.094   3.919
 2047SOL     OW 8037  12.634   3.122  14.124
 2047SOL    HW1 8038  12.638   3.172  14.205
 2047SOL    HW2 8039  12.709   3.063  14.128
 2048SOL     OW 8040  10.165   6.887   8.883
 2048SOL    HW1 8041  10.210   6.804   8.863
 2048SOL    HW2 8042  10.112   6.905   8.806
 2049SOL     OW 8043   9.823   5.020   6.199
 2049SOL    HW1 8044   9.907   4.975   6.200
 2049SOL    HW2 8045   9.766   4.964   6.146
 2050SOL     OW 8046   3.186  14.596   6.736
 2050SOL    HW1 8047   3.151  14.596   6.647
 2050SOL    HW2 8048   3.279  14.614   6.725
 2051SOL     OW 8049   3.139   2.356   2.803
 2051SOL    HW1 8050   3.058   2.401   2.828
 2051SOL    HW2 8051   3.207   2.422   2.815
 2052SOL     OW 8052   6.480   6.872   3.593
 2052SOL    HW1 8053   6.529   6.826   3.662
 2052SOL    HW2 8054   6.517   6.960   3.592
 2053SOL     OW 8055  14.331   8.617   9.336
 2053SOL    HW1 8056  14.338   8.649   9.246
 2053SOL    HW2 8057  14.258   8.667   9.374
 2054SOL     OW 8058   8.196   2.376   3.518
 2054SOL    HW1 8059   8.136   2.397   3.447
 2054SOL    HW2 8060   8.283   2.391   3.482
 2055SOL     OW 8061  12.079  10.104   0.092
 2055SOL    HW1 8062  12.065  10.144   0.006
 2055SOL    HW2 8063  12.058  10.011   0.080
 2056SOL     OW 8064  12.195   4.490   0.498
 2056SOL    HW1 8065  12.214   4.537   0.417
 2056SOL    HW2 8066  12.241   4.540   0.566
 2057SOL     OW 8067   4.314   1.621   5.574
 2057SOL    HW1 8068   4.340   1.672   5.498
 2057SOL    HW2 8069   4.236   1.666   5.608
 2058SOL     OW 8070   1.611  10.634   1.989
 2058SOL    HW1 8071   1.559  10.556   2.009
 2058SOL    HW2 8072   1.666  10.608   1.914
 2059SOL     OW 8073   5.865   0.532   2.203
 2059SOL    HW1 8074   5.812   0.480   2.142
 2059SOL    HW2 8075   5.906   0.599   2.148
 2060SOL     OW 8076   0.386   2.394   1.688
 2060SOL    HW1 8077   0.443   2.320   1.709
 2060SOL    HW2 8078   0.298   2.356   1.687
 2061SOL     OW 8079   0.314   2.860   0.184
 2061SOL    HW1 8080   0.257   2.932   0.210
 2061SOL    HW2 8081   0.314   2.801   0.259
 2062SOL     OW 8082  12.156   3.272   3.625
 2062SOL    HW1 8083  12.190   3.352   3.665
 2062SOL    HW2 8084  12.117   3.224   3.697
 2063SOL     OW 8085   1.536   5.373   5.554
 2063SOL    HW1 8086   1.593   5.382   5.631
 2063SOL    HW2 8087   1.518   5.463   5.526
 2064SOL     OW 8088   7.732   2.113   4.200
 2064SOL    HW1 8089   7.730   2.018   4.210
 2064SOL    HW2 8090   7.640   2.139   4.195
 2065SOL     OW 8091   8.069  12.191   4.418
 2065SOL    HW1 8092   8.144  12.146   4.380
 2065SOL    HW2 8093   8.080  12.282   4.392
 2066SOL     OW 8094   3.369   8.458   3.526
 2066SOL    HW1 8095   3.440   8.512   3.492
 2066SOL    HW2 8096   3.348   8.398   3.454
 2067SOL     OW 8097  10.284   6.657   4.446
 2067SOL    HW1 8098  10.232   6.582   4.476
 2067SOL    HW2 8099  10.234   6.733   4.474
 2068SOL     OW 8100  14.079  14.785   8.913
 2068SOL    HW1 8101  14.093  14.722   8.984
 2068SOL    HW2 8102  14.163  14.789   8.868
 2069SOL     OW 8103   8.751  14.634   0.582
 2069SOL    HW1 8104   8.832  14.594   0.615
 2069SOL    HW2 8105   8.715  14.681   0.657
 2070SOL     OW 8106  13.876   7.626   1.450
 2070SOL    HW1 8107  13.850   7.595   1.537
 2070SOL    HW2 8108  13.921   7.552   1.410
 2071SOL     OW 8109   7.574  10.413  13.508
 2071SOL    HW1 8110   7.658  10.412  13.462
 2071SOL    HW2 8111   7.512  10.446  13.442
 2072SOL     OW 8112   6.987   9.207  10.914
 2072SOL    HW1 8113   6.966   9.198  10.820
 2072SOL    HW2 8114   7.052   9.139  10.930
 2073SOL     OW 8115   6.044   9.387   9.884
 2073SOL    HW1 8116   6.012   9.314   9.937
 2073SOL    HW2 8117   5.995   9.463   9.915
 2074SOL     OW 8118  12.809   8.045  10.481
 2074SOL    HW1 8119  12.904   8.030  10.476
 2074SOL    HW2 8120  12.770   7.971  10.435
 2075SOL     OW 8121   6.383   3.582   7.930
 2075SOL    HW1 8122   6.422   3.496   7.917
 2075SOL    HW2 8123   6.362   3.585   8.024
 2076SOL     OW 8124   2.557  11.110  11.548
 2076SOL    HW1 8125   2.596  11.194  11.521
 2076SOL    HW2 8126   2.562  11.055  11.470
 2077SOL     OW 8127   7.661   7.366   2.253
 2077SOL    HW1 8128   7.690   7.275   2.251
 2077SOL    HW2 8129   7.587   7.366   2.314
 2078SOL     OW 8130  10.745  11.299   6.957
 2078SOL    HW1 8131  10.814  11.330   6.897
 2078SOL    HW2 8132  10.665  11.302   6.904
 2079SOL     OW 8133   9.976   2.085   1.143
 2079SOL    HW1 8134  10.070   2.096   1.128
 2079SOL    HW2 8135   9.962   1.990   1.134
 2080SOL     OW 8136  11.426   3.133  11.844
 2080SOL    HW1 8137  11.495   3.145  11.779
 2080SOL    HW2 8138  11.442   3.045  11.879
 2081SOL     OW 8139  11.836   1.256  11.202
 2081SOL    HW1 8140  11.874   1.335  11.164
 2081SOL    HW2 8141  11.811   1.282  11.291
 2082SOL     OW 8142  11.214  10.046   9.395
 2082SOL    HW1 8143  11.120  10.036   9.382
 2082SOL    HW2 8144  11.241  10.107   9.326
 2083SOL     OW 8145  14.593  14.257   1.531
 2083SOL    HW1 8146  14.589  14.329   1.594
 2083SOL    HW2 8147  14.686  14.237   1.523
 2084SOL     OW 8148   6.813  14.623   9.724
 2084SOL    HW1 8149   6.873  14.665   9.787
 2084SOL    HW2 8150   6.779  14.695   9.671
 2085SOL     OW 8151   6.898   2.371   3.596
 2085SOL    HW1 8152   6.882   2.332   3.681
 2085SOL    HW2 8153   6.826   2.433   3.583
 2086SOL     OW 8154  11.871   9.795  10.872
 2086SOL    HW1 8155  11.790   9.827  10.911
 2086SOL    HW2 8156  11.918   9.752  10.944
 2087SOL     OW 8157   6.521  10.561   4.574
 2087SOL    HW1 8158   6.615  10.548   4.575
 2087SOL    HW2 8159   6.491  10.517   4.495
 2088SOL     OW 8160   5.275   6.181  13.890
 2088SOL    HW1 8161   5.182   6.197  13.875
 2088SOL    HW2 8162   5.280   6.090  13.919
 2089SOL     OW 8163  12.637   5.450   3.074
 2089SOL    HW1 8164  12.655   5.543   3.086
 2089SOL    HW2 8165  12.546   5.447   3.044
 2090SOL     OW 8166   2.710  12.559   4.710
 2090SOL    HW1 8167   2.763  12.619   4.658
 2090SOL    HW2 8168   2.771  12.491   4.739
 2091SOL     OW 8169   0.174  13.300   8.534
 2091SOL    HW1 8170   0.099  13.251   8.570
 2091SOL    HW2 8171   0.157  13.391   8.558
 2092SOL     OW 8172  11.451  14.228  11.357
 2092SOL    HW1 8173  11.377  14.204  11.300
 2092SOL    HW2 8174  11.515  14.158  11.343
 2093SOL     OW 8175   4.231   3.699   8.932
 2093SOL    HW1 8176   4.154   3.658   8.971
 2093SOL    HW2 8177   4.216   3.695   8.838
 2094SOL     OW 8178   5.432  12.960   8.477
 2094SOL    HW1 8179   5.507  12.912   8.512
 2094SOL    HW2 8180   5.407  12.910   8.399
 2095SOL     OW 8181   8.187   5.394   7.868
 2095SOL    HW1 8182   8.149   5.442   7.795
 2095SOL    HW2 8183   8.187   5.456   7.940
 2096SOL     OW 8184   0.622   6.566   3.506
 2096SOL    HW1 8185   0.554   6.606   3.452
 2096SOL    HW2 8186   0.628   6.476   3.475
 2097SOL     OW 8187  13.896   8.342   2.735
 2097SOL    HW1 8188  13.818   8.298   2.768
 2097SOL    HW2 8189  13.874   8.435   2.739
 2098SOL     OW 8190   5.667   2.638   6.737
 2098SOL    HW1 8191   5.632   2.566   6.790
 2098SOL    HW2 8192   5.595   2.701   6.731
 2099SOL     OW 8193  12.866   8.306   4.556
 2099SOL    HW1 8194  12.841   8.238   4.619
 2099SOL    HW2 8195  12.961   8.310   4.561
 2100SOL     OW 8196   3.610   2.347   4.638
 2100SOL    HW1 8197   3.609   2.366   4.732
 2100SOL    HW2 8198   3.537   2.287   4.624
 2101SOL     OW 8199  10.863   4.299  14.300
 2101SOL    HW1 8200  10.950   4.268  14.277
 2101SOL    HW2 8201  10.837   4.244  14.374
 2102SOL     OW 8202   2.666  11.547   0.286
 2102SOL    HW1 8203   2.625  11.523   0.369
 2102SOL    HW2 8204   2.632  11.635   0.268
 2103SOL     OW 8205  10.159   9.029  13.672
 2103SOL    HW1 8206  10.089   8.966  13.688
 2103SOL    HW2 8207  10.113   9.112  13.657
 2104SOL     OW 8208  14.138   1.145   0.450
 2104SOL    HW1 8209  14.146   1.170   0.358
 2104SOL    HW2 8210  14.171   1.055   0.453
 2105SOL     OW 8211   1.722  13.153   7.109
 2105SOL    HW1 8212   1.633  13.186   7.120
 2105SOL    HW2 8213   1.777  13.220   7.150
 2106SOL     OW 8214  10.620  14.825   6.742
 2106SOL    HW1 8215  10.611  14.792   6.832
 2106SOL    HW2 8216  10.683  14.766   6.701
 2107SOL     OW 8217   2.519  13.129   0.495
 2107SOL    HW1 8218   2.604  13.170   0.511
 2107SOL    HW2 8219   2.455  13.190   0.533
 2108SOL     OW 8220  13.499   9.262   5.709
 2108SOL    HW1 8221  13.573   9.233   5.656
 2108SOL    HW2 8222  13.436   9.190   5.705
 2109SOL     OW 8223   8.723   8.106   4.828
 2109SOL    HW1 8224   8.765   8.190   4.847
 2109SOL    HW2 8225   8.691   8.114   4.738
 2110SOL     OW 8226   2.492   5.504  13.110
 2110SOL    HW1 8227   2.418   5.561  13.132
 2110SOL    HW2 8228   2.456   5.441  13.048
 2111SOL     OW 8229  12.315  10.254   6.538
 2111SOL    HW1 8230  12.356  10.205   6.609
 2111SOL    HW2 8231  12.222  10.234   6.546
 2112SOL     OW 8232  11.310   1.885   2.655
 2112SOL    HW1 8233  11.355   1.950   2.709
 2112SOL    HW2 8234  11.282   1.934   2.577
 2113SOL     OW 8235   2.361   5.579  10.104
 2113SOL    HW1 8236   2.337   5.588  10.012
 2113SOL    HW2 8237   2.286   5.612  10.153
 2114SOL     OW 8238  10.504  10.264   7.153
 2114SOL    HW1 8239  10.530  10.188   7.206
 2114SOL    HW2 8240  10.419  10.291   7.189
 2115SOL     OW 8241   8.048   2.066  13.532
 2115SOL    HW1 8242   7.958   2.035  13.530
 2115SOL    HW2 8243   8.040   2.161  13.520
 2116SOL     OW 8244   6.276   7.120  10.949
 2116SOL    HW1 8245   6.211   7.051  10.938
 2116SOL    HW2 8246   6.298   7.147  10.860
 2117SOL     OW 8247  10.752  13.690  13.937
 2117SOL    HW1 8248  10.748  13.608  13.986
 2117SOL    HW2 8249  10.661  13.717  13.927
 2118SOL     OW 8250  13.269   0.746   5.584
 2118SOL    HW1 8251  13.289   0.773   5.674
 2118SOL    HW2 8252  13.311   0.813   5.530
 2119SOL     OW 8253  13.977   7.702   0.262
 2119SOL    HW1 8254  13.947   7.685   0.173
 2119SOL    HW2 8255  13.924   7.644   0.316
 2120SOL     OW 8256   7.795  13.400   4.492
 2120SOL    HW1 8257   7.829  13.487   4.511
 2120SOL    HW2 8258   7.798  13.393   4.396
 2121SOL     OW 8259   2.680   8.066   3.992
 2121SOL    HW1 8260   2.741   8.137   4.013
 2121SOL    HW2 8261   2.630   8.099   3.917
 2122SOL     OW 8262   2.107  11.115   4.835
 2122SOL    HW1 8263   2.152  11.184   4.786
 2122SOL    HW2 8264   2.014  11.134   4.823
 2123SOL     OW 8265   9.793  11.569  14.109
 2123SOL    HW1 8266   9.799  11.597  14.200
 2123SOL    HW2 8267   9.701  11.547  14.096
 2124SOL     OW 8268  12.199   4.882  11.412
 2124SOL    HW1 8269  12.167   4.806  11.462
 2124SOL    HW2 8270  12.175   4.863  11.322
 2125SOL     OW 8271   7.112  13.940  12.007
 2125SOL    HW1 8272   7.099  14.019  12.059
 2125SOL    HW2 8273   7.197  13.906  12.036
 2126SOL     OW 8274   4.385   5.848   2.562
 2126SOL    HW1 8275   4.324   5.793   2.611
 2126SOL    HW2 8276   4.333   5.923   2.534
 2127SOL     OW 8277  14.252   5.761  10.802
 2127SOL    HW1 8278  14.235   5.853  10.781
 2127SOL    HW2 8279  14.255   5.717  10.717
 2128SOL     OW 8280   6.401  11.632   5.377
 2128SOL    HW1 8281   6.429  11.557   5.428
 2128SOL    HW2 8282   6.351  11.595   5.304
 2129SOL     OW 8283   9.167   4.539   0.680
 2129SOL    HW1 8284   9.221   4.543   0.600
 2129SOL    HW2 8285   9.194   4.457   0.721
 2130SOL     OW 8286   3.116   4.989  10.864
 2130SOL    HW1 8287   3.184   5.031  10.917
 2130SOL    HW2 8288   3.051   5.058  10.851
 2131SOL     OW 8289   4.661   7.039   8.957
 2131SOL    HW1 8290   4.575   7.008   8.986
 2131SOL    HW2 8291   4.675   7.121   9.004
 2132SOL     OW 8292   9.235   9.101   8.673
 2132SOL    HW1 8293   9.320   9.131   8.705
 2132SOL    HW2 8294   9.241   9.108   8.578
 2133SOL     OW 8295  14.506   0.881   2.362
 2133SOL    HW1 8296  14.425   0.925   2.337
 2133SOL    HW2 8297  14.477   0.804   2.410
 2134SOL     OW 8298   4.425   4.317  12.943
 2134SOL    HW1 8299   4.449   4.225  12.933
 2134SOL    HW2 8300   4.361   4.317  13.014
 2135SOL     OW 8301   8.276   3.872  12.650
 2135SOL    HW1 8302   8.364   3.896  12.623
 2135SOL    HW2 8303   8.262   3.785  12.611
 2136SOL     OW 8304  14.277   8.565  14.779
 2136SOL    HW1 8305  14.372   8.564  14.764
 2136SOL    HW2 8306  14.262   8.648  14.825
 2137SOL     OW 8307   5.851   5.737  11.940
 2137SOL    HW1 8308   5.942   5.713  11.959
 2137SOL    HW2 8309   5.846   5.831  11.960
 2138SOL     OW 8310  10.863   5.816   6.076
 2138SOL    HW1 8311  10.832   5.885   6.135
 2138SOL    HW2 8312  10.809   5.740   6.099
 2139SOL     OW 8313   3.192  14.770   8.861
 2139SOL    HW1 8314   3.233  14.843   8.815
 2139SOL    HW2 8315   3.247  14.694   8.841
 2140SOL     OW 8316   5.421   7.508   1.767
 2140SOL    HW1 8317   5.382   7.559   1.695
 2140SOL    HW2 8318   5.484   7.451   1.724
 2141SOL     OW 8319  13.571  14.102   9.977
 2141SOL    HW1 8320  13.482  14.101  10.013
 2141SOL    HW2 8321  13.559  14.105   9.882
 2142SOL     OW 8322   6.628   0.501  13.519
 2142SOL    HW1 8323   6.701   0.514  13.580
 2142SOL    HW2 8324   6.562   0.457  13.572
 2143SOL     OW 8325   5.272   8.600   5.050
 2143SOL    HW1 8326   5.186   8.597   5.092
 2143SOL    HW2 8327   5.287   8.509   5.022
 2144SOL     OW 8328  12.651   5.951  11.332
 2144SOL    HW1 8329  12.575   5.899  11.355
 2144SOL    HW2 8330  12.708   5.947  11.409
 2145SOL     OW 8331   5.196   0.963   0.284
 2145SOL    HW1 8332   5.196   1.005   0.198
 2145SOL    HW2 8333   5.206   0.869   0.264
 2146SOL     OW 8334   9.554   6.825   8.512
 2146SOL    HW1 8335   9.642   6.788   8.506
 2146SOL    HW2 8336   9.567   6.920   8.502
 2147SOL     OW 8337  12.510   3.972  12.790
 2147SOL    HW1 8338  12.593   3.926  12.774
 2147SOL    HW2 8339  12.450   3.904  12.819
 2148SOL     OW 8340   0.569   4.057   3.733
 2148SOL    HW1 8341   0.650   4.105   3.751
 2148SOL    HW2 8342   0.508   4.124   3.703
 2149SOL     OW 8343  14.063  14.378   1.008
 2149SOL    HW1 8344  14.067  14.447   0.942
 2149SOL    HW2 8345  14.154  14.360   1.030
 2150SOL     OW 8346   7.889  12.852   1.307
 2150SOL    HW1 8347   7.951  12.888   1.369
 2150SOL    HW2 8348   7.907  12.898   1.225
 2151SOL     OW 8349  14.469   6.695   4.243
 2151SOL    HW1 8350  14.486   6.705   4.337
 2151SOL    HW2 8351  14.447   6.784   4.214
 2152SOL     OW 8352  13.409  14.331   9.196
 2152SOL    HW1 8353  13.371  14.336   9.108
 2152SOL    HW2 8354  13.416  14.422   9.225
 2153SOL     OW 8355  12.216   5.119  11.526
 2153SOL    HW1 8356  12.231   5.026  11.507
 2153SOL    HW2 8357  12.121   5.130  11.517
 2154SOL     OW 8358   2.052   9.188  11.610
 2154SOL    HW1 8359   1.998   9.267  11.612
 2154SOL    HW2 8360   1.994   9.119  11.580
 2155SOL     OW 8361   5.408   4.286  14.827
 2155SOL    HW1 8362   5.317   4.256  14.827
 2155SOL    HW2 8363   5.455   4.222  14.880
 2156SOL     OW 8364   2.794   6.407   0.536
 2156SOL    HW1 8365   2.778   6.483   0.479
 2156SOL    HW2 8366   2.706   6.373   0.555
 2157SOL     OW 8367   6.851   0.477  10.640
 2157SOL    HW1 8368   6.934   0.523  10.628
 2157SOL    HW2 8369   6.799   0.498  10.563
 2158SOL     OW 8370  10.650   3.430  11.005
 2158SOL    HW1 8371  10.688   3.487  11.072
 2158SOL    HW2 8372  10.700   3.450  10.925
 2159SOL     OW 8373  10.757   4.307  13.304
 2159SOL    HW1 8374  10.752   4.237  13.239
 2159SOL    HW2 8375  10.679   4.295  13.358
 2160SOL     OW 8376  12.657   9.494  11.991
 2160SOL    HW1 8377  12.657   9.533  11.903
 2160SOL    HW2 8378  12.599   9.551  12.042
 2161SOL     OW 8379  12.038   4.733   7.989
 2161SOL    HW1 8380  11.963   4.791   7.986
 2161SOL    HW2 8381  12.043   4.705   8.081
 2162SOL     OW 8382  12.309  10.181   7.331
 2162SOL    HW1 8383  12.317  10.277   7.333
 2162SOL    HW2 8384  12.300  10.155   7.422
 2163SOL     OW 8385   6.701   5.014   0.801
 2163SOL    HW1 8386   6.737   5.082   0.858
 2163SOL    HW2 8387   6.616   5.048   0.774
 2164SOL     OW 8388  11.411   5.828   9.814
 2164SOL    HW1 8389  11.449   5.808   9.728
 2164SOL    HW2 8390  11.422   5.747   9.864
 2165SOL     OW 8391  12.216   0.518  10.464
 2165SOL    HW1 8392  12.150   0.587  10.474
 2165SOL    HW2 8393  12.264   0.519  10.546
 2166SOL     OW 8394  11.439   7.020   7.109
 2166SOL    HW1 8395  11.368   7.083   7.116
 2166SOL    HW2 8396  11.506   7.064   7.056
 2167SOL     OW 8397  12.339   5.405   8.195
 2167SOL    HW1 8398  12.377   5.337   8.252
 2167SOL    HW2 8399  12.256   5.428   8.237
 2168SOL     OW 8400  12.569   0.349   5.130
 2168SOL    HW1 8401  12.537   0.309   5.049
 2168SOL    HW2 8402  12.543   0.440   5.124
 2169SOL     OW 8403   6.904   9.887   3.467
 2169SOL    HW1 8404   6.975   9.823   3.466
 2169SOL    HW2 8405   6.948   9.972   3.466
 2170SOL     OW 8406   2.815  10.254  10.577
 2170SOL    HW1 8407   2.862  10.178  10.612
 2170SOL    HW2 8408   2.789  10.228  10.489
 2171SOL     OW 8409   7.018   0.619   9.899
 2171SOL    HW1 8410   6.934   0.600   9.858
 2171SOL    HW2 8411   7.077   0.551   9.865
 2172SOL     OW 8412  12.870   8.172   5.963
 2172SOL    HW1 8413  12.891   8.186   5.870
 2172SOL    HW2 8414  12.956   8.167   6.006
 2173SOL     OW 8415   4.001   7.656   7.877
 2173SOL    HW1 8416   3.961   7.592   7.936
 2173SOL    HW2 8417   4.001   7.738   7.926
 2174SOL     OW 8418   2.000   3.696  14.605
 2174SOL    HW1 8419   1.931   3.681  14.670
 2174SOL    HW2 8420   1.953   3.733  14.530
 2175SOL     OW 8421   5.904  14.751   9.790
 2175SOL    HW1 8422   5.910  14.767   9.696
 2175SOL    HW2 8423   5.942  14.664   9.802
 2176SOL     OW 8424   5.817  10.543  12.590
 2176SOL    HW1 8425   5.815  10.601  12.666
 2176SOL    HW2 8426   5.883  10.478  12.611
 2177SOL     OW 8427   6.448   5.692   5.059
 2177SOL    HW1 8428   6.488   5.612   5.026
 2177SOL    HW2 8429   6.405   5.666   5.141
 2178SOL     OW 8430   2.187   3.677   5.840
 2178SOL    HW1 8431   2.093   3.672   5.858
 2178SOL    HW2 8432   2.227   3.691   5.926
 2179SOL     OW 8433  13.563   4.837   9.272
 2179SOL    HW1 8434  13.653   4.834   9.239
 2179SOL    HW2 8435  13.527   4.751   9.252
 2180SOL     OW 8436   1.143   3.180   1.984
 2180SOL    HW1 8437   1.081   3.131   1.930
 2180SOL    HW2 8438   1.089   3.217   2.054
 2181SOL     OW 8439  12.038   5.326   6.064
 2181SOL    HW1 8440  12.130   5.349   6.077
 2181SOL    HW2 8441  12.003   5.319   6.153
 2182SOL     OW 8442   5.835   5.993   9.211
 2182SOL    HW1 8443   5.852   6.084   9.236
 2182SOL    HW2 8444   5.869   5.942   9.284
 2183SOL     OW 8445  14.618   0.786   8.350
 2183SOL    HW1 8446  14.567   0.838   8.413
 2183SOL    HW2 8447  14.698   0.836   8.337
 2184SOL     OW 8448  13.493  13.076  12.801
 2184SOL    HW1 8449  13.530  13.130  12.871
 2184SOL    HW2 8450  13.406  13.112  12.786
 2185SOL     OW 8451   9.316  10.605   2.523
 2185SOL    HW1 8452   9.234  10.612   2.474
 2185SOL    HW2 8453   9.292  10.621   2.614
 2186SOL     OW 8454  12.576  11.261   2.558
 2186SOL    HW1 8455  12.609  11.348   2.532
 2186SOL    HW2 8456  12.499  11.280   2.611
 2187SOL     OW 8457   5.640   5.493   2.348
 2187SOL    HW1 8458   5.707   5.426   2.365
 2187SOL    HW2 8459   5.677   5.547   2.279
 2188SOL     OW 8460   6.139   2.412  13.415
 2188SOL    HW1 8461   6.130   2.436  13.507
 2188SOL    HW2 8462   6.052   2.426  13.378
 2189SOL     OW 8463  12.373   5.467   2.453
 2189SOL    HW1 8464  12.426   5.454   2.375
 2189SOL    HW2 8465  12.371   5.382   2.496
 2190SOL     OW 8466   8.779  11.586  14.570
 2190SOL    HW1 8467   8.846  11.530  14.532
 2190SOL    HW2 8468   8.734  11.624  14.494
 2191SOL     OW 8469  11.066   3.086   9.253
 2191SOL    HW1 8470  11.123   3.107   9.179
 2191SOL    HW2 8471  11.103   3.135   9.326
 2192SOL     OW 8472   5.217  13.818  12.889
 2192SOL    HW1 8473   5.174  13.871  12.822
 2192SOL    HW2 8474   5.150  13.755  12.917
 2193SOL     OW 8475  11.745  13.031  14.680
 2193SOL    HW1 8476  11.822  12.980  14.654
 2193SOL    HW2 8477  11.695  13.042  14.599
 2194SOL     OW 8478   1.581  10.176   6.550
 2194SOL    HW1 8479   1.603  10.203   6.639
 2194SOL    HW2 8480   1.659  10.198   6.499
 2195SOL     OW 8481   7.706  12.096   5.167
 2195SOL    HW1 8482   7.696  12.001   5.171
 2195SOL    HW2 8483   7.653  12.129   5.240
 2196SOL     OW 8484   6.881   7.414   7.849
 2196SOL    HW1 8485   6.928   7.334   7.826
 2196SOL    HW2 8486   6.894   7.471   7.773
 2197SOL     OW 8487   2.430   2.224  14.773
 2197SOL    HW1 8488   2.351   2.198  14.821
 2197SOL    HW2 8489   2.449   2.149  14.717
 2198SOL     OW 8490   1.504  10.773  14.543
 2198SOL    HW1 8491   1.574  10.736  14.596
 2198SOL    HW2 8492   1.430  10.780  14.603
 2199SOL     OW 8493   8.666   1.494  10.058
 2199SOL    HW1 8494   8.628   1.453  10.136
 2199SOL    HW2 8495   8.641   1.436   9.986
 2200SOL     OW 8496  11.963   0.513   8.468
 2200SOL    HW1 8497  11.983   0.586   8.409
 2200SOL    HW2 8498  11.889   0.545   8.520
 2201SOL     OW 8499  12.566   5.001   8.104
 2201SOL    HW1 8500  12.605   4.914   8.110
 2201SOL    HW2 8501  12.524   5.003   8.017
 2202SOL     OW 8502  14.786  13.863   3.247
 2202SOL    HW1 8503  14.731  13.790   3.273
 2202SOL    HW2 8504  14.760  13.882   3.157
 2203SOL     OW 8505   7.392   0.715  11.593
 2203SOL    HW1 8506   7.460   0.783  11.602
 2203SOL    HW2 8507   7.341   0.722  11.674
 2204SOL     OW 8508  10.105   6.752   1.194
 2204SOL    HW1 8509  10.174   6.818   1.201
 2204SOL    HW2 8510  10.057   6.759   1.277
 2205SOL     OW 8511  12.324   1.286  13.073
 2205SOL    HW1 8512  12.395   1.350  13.066
 2205SOL    HW2 8513  12.282   1.305  13.157
 2206SOL     OW 8514   1.911   6.673  12.820
 2206SOL    HW1 8515   1.961   6.747  12.855
 2206SOL    HW2 8516   1.838   6.713  12.773
 2207SOL     OW 8517  12.773   8.734   8.469
 2207SOL    HW1 8518  12.694   8.718   8.521
 2207SOL    HW2 8519  12.844   8.737   8.534
 2208SOL     OW 8520  12.377   7.320   9.989
 2208SOL    HW1 8521  12.323   7.291  10.062
 2208SOL    HW2 8522  12.342   7.407   9.967
 2209SOL     OW 8523   6.653   3.420   5.754
 2209SOL    HW1 8524   6.689   3.472   5.682
 2209SOL    HW2 8525   6.558   3.426   5.743
 2210SOL     OW 8526   0.427  13.871  13.152
 2210SOL    HW1 8527   0.377  13.863  13.071
 2210SOL    HW2 8528   0.435  13.965  13.166
 2211SOL     OW 8529  14.729  11.244   5.748
 2211SOL    HW1 8530  14.680  11.165   5.769
 2211SOL    HW2 8531  14.663  11.305   5.715
 2212SOL     OW 8532   9.270   2.987  11.749
 2212SOL    HW1 8533   9.189   3.005  11.700
 2212SOL    HW2 8534   9.311   3.073  11.760
 2213SOL     OW 8535  12.326   7.302  13.558
 2213SOL    HW1 8536  12.300   7.323  13.648
 2213SOL    HW2 8537  12.267   7.353  13.503
 2214SOL     OW 8538   0.037   4.016   8.235
 2214SOL    HW1 8539   0.061   4.099   8.193
 2214SOL    HW2 8540   0.079   3.950   8.180
 2215SOL     OW 8541   3.003   5.480   0.412
 2215SOL    HW1 8542   3.067   5.453   0.477
 2215SOL    HW2 8543   3.031   5.438   0.331
 2216SOL     OW 8544  10.800  10.191   6.226
 2216SOL    HW1 8545  10.737  10.119   6.215
 2216SOL    HW2 8546  10.757  10.251   6.287
 2217SOL     OW 8547   3.085  10.314   3.745
 2217SOL    HW1 8548   3.148  10.387   3.741
 2217SOL    HW2 8549   3.134  10.239   3.712
 2218SOL     OW 8550   2.506   6.029  12.548
 2218SOL    HW1 8551   2.501   6.069  12.462
 2218SOL    HW2 8552   2.593   6.052  12.580
 2219SOL     OW 8553   0.601   0.098   9.706
 2219SOL    HW1 8554   0.671   0.147   9.749
 2219SOL    HW2 8555   0.529   0.100   9.769
 2220SOL     OW 8556  11.637   0.317  13.853
 2220SOL    HW1 8557  11.607   0.244  13.799
 2220SOL    HW2 8558  11.723   0.291  13.884
 2221SOL     OW 8559   3.601   1.088   5.964
 2221SOL    HW1 8560   3.652   1.046   5.895
 2221SOL    HW2 8561   3.602   1.181   5.941
 2222SOL     OW 8562  10.883   2.896  11.132
 2222SOL    HW1 8563  10.912   2.864  11.047
 2222SOL    HW2 8564  10.958   2.879  11.190
 2223SOL     OW 8565   1.281  11.056   1.074
 2223SOL    HW1 8566   1.343  10.987   1.049
 2223SOL    HW2 8567   1.276  11.051   1.169
 2224SOL     OW 8568  10.903   1.192   3.999
 2224SOL    HW1 8569  10.834   1.245   4.039
 2224SOL    HW2 8570  10.966   1.176   4.070
 2225SOL     OW 8571   8.719   9.901   5.108
 2225SOL    HW1 8572   8.638   9.862   5.141
 2225SOL    HW2 8573   8.787   9.869   5.167
 2226SOL     OW 8574   4.218   0.057   4.588
 2226SOL    HW1 8575   4.275   0.045   4.512
 2226SOL    HW2 8576   4.213   0.152   4.600
 2227SOL     OW 8577   7.604  13.818  12.867
 2227SOL    HW1 8578   7.660  13.747  12.899
 2227SOL    HW2 8579   7.516  13.794  12.898
 2228SOL     OW 8580   1.998  14.270  11.556
 2228SOL    HW1 8581   2.069  14.253  11.494
 2228SOL    HW2 8582   1.960  14.183  11.573
 2229SOL     OW 8583   3.716   0.623   9.006
 2229SOL    HW1 8584   3.681   0.535   9.022
 2229SOL    HW2 8585   3.788   0.631   9.069
 2230SOL     OW 8586   9.913  12.989  14.862
 2230SOL    HW1 8587   9.854  12.920  14.832
 2230SOL    HW2 8588  10.000  12.954  14.847
 2231SOL     OW 8589   3.623  14.186   5.296
 2231SOL    HW1 8590   3.625  14.217   5.387
 2231SOL    HW2 8591   3.552  14.123   5.294
 2232SOL     OW 8592   7.473   7.142  14.576
 2232SOL    HW1 8593   7.443   7.233  14.585
 2232SOL    HW2 8594   7.405   7.090  14.618
 2233SOL     OW 8595   7.767   3.604  13.194
 2233SOL    HW1 8596   7.760   3.697  13.173
 2233SOL    HW2 8597   7.722   3.595  13.278
 2234SOL     OW 8598   5.934  12.110   3.930
 2234SOL    HW1 8599   5.878  12.102   4.007
 2234SOL    HW2 8600   5.973  12.197   3.937
 2235SOL     OW 8601  13.385  14.196  12.179
 2235SOL    HW1 8602  13.369  14.106  12.207
 2235SOL    HW2 8603  13.431  14.236  12.253
 2236SOL     OW 8604   3.862   2.106   0.867
 2236SOL    HW1 8605   3.790   2.064   0.915
 2236SOL    HW2 8606   3.905   2.162   0.932
 2237SOL     OW 8607   6.446   4.148   4.382
 2237SOL    HW1 8608   6.536   4.176   4.396
 2237SOL    HW2 8609   6.406   4.217   4.329
 2238SOL     OW 8610   0.476  12.620   9.481
 2238SOL    HW1 8611   0.516  12.541   9.444
 2238SOL    HW2 8612   0.414  12.587   9.547
 2239SOL     OW 8613   7.058   3.083  11.041
 2239SOL    HW1 8614   7.105   3.125  10.969
 2239SOL    HW2 8615   7.050   3.152  11.107
 2240SOL     OW 8616  10.118   7.690   7.832
 2240SOL    HW1 8617  10.171   7.639   7.771
 2240SOL    HW2 8618  10.067   7.624   7.880
 2241SOL     OW 8619   6.102   2.864   0.837
 2241SOL    HW1 8620   6.019   2.822   0.815
 2241SOL    HW2 8621   6.085   2.957   0.823
 2242SOL     OW 8622   3.042   4.584  14.575
 2242SOL    HW1 8623   2.991   4.503  14.572
 2242SOL    HW2 8624   3.068   4.593  14.667
 2243SOL     OW 8625  14.108   7.442   9.813
 2243SOL    HW1 8626  14.159   7.364   9.793
 2243SOL    HW2 8627  14.075   7.428   9.902
 2244SOL     OW 8628   1.300   6.896   4.761
 2244SOL    HW1 8629   1.332   6.944   4.838
 2244SOL    HW2 8630   1.292   6.806   4.792
 2245SOL     OW 8631   2.620   0.445   7.429
 2245SOL    HW1 8632   2.678   0.455   7.505
 2245SOL    HW2 8633   2.566   0.369   7.450
 2246SOL     OW 8634  13.690   5.962   4.757
 2246SOL    HW1 8635  13.651   5.934   4.840
 2246SOL    HW2 8636  13.667   6.055   4.750
 2247SOL     OW 8637   2.451  12.810   8.892
 2247SOL    HW1 8638   2.468  12.718   8.868
 2247SOL    HW2 8639   2.435  12.807   8.987
 2248SOL     OW 8640  13.517   7.176   1.851
 2248SOL    HW1 8641  13.436   7.213   1.885
 2248SOL    HW2 8642  13.586   7.216   1.904
 2249SOL     OW 8643   8.637   6.789  12.082
 2249SOL    HW1 8644   8.719   6.797  12.032
 2249SOL    HW2 8645   8.569   6.786  12.016
 2250SOL     OW 8646   1.222   2.139  10.789
 2250SOL    HW1 8647   1.132   2.110  10.801
 2250SOL    HW2 8648   1.274   2.059  10.794
 2251SOL     OW 8649   6.197  13.921   1.472
 2251SOL    HW1 8650   6.230  13.951   1.557
 2251SOL    HW2 8651   6.127  13.860   1.494
 2252SOL     OW 8652  10.024  10.264   2.883
 2252SOL    HW1 8653  10.058  10.175   2.877
 2252SOL    HW2 8654  10.022  10.296   2.793
 2253SOL     OW 8655   6.980   5.255   0.198
 2253SOL    HW1 8656   6.917   5.307   0.148
 2253SOL    HW2 8657   6.962   5.277   0.290
 2254SOL     OW 8658   2.093   1.744   2.611
 2254SOL    HW1 8659   2.011   1.700   2.592
 2254SOL    HW2 8660   2.072   1.804   2.683
 2255SOL     OW 8661   0.922   9.549   2.246
 2255SOL    HW1 8662   0.833   9.521   2.270
 2255SOL    HW2 8663   0.908   9.631   2.198
 2256SOL     OW 8664  14.682  12.933   3.072
 2256SOL    HW1 8665  14.629  12.900   3.144
 2256SOL    HW2 8666  14.769  12.944   3.110
 2257SOL     OW 8667  14.239   9.668   2.126
 2257SOL    HW1 8668  14.257   9.575   2.111
 2257SOL    HW2 8669  14.173   9.669   2.196
 2258SOL     OW 8670   5.189  11.419   3.963
 2258SOL    HW1 8671   5.225  11.458   4.043
 2258SOL    HW2 8672   5.173  11.493   3.905
 2259SOL     OW 8673   3.454   1.026  12.390
 2259SOL    HW1 8674   3.502   0.956  12.346
 2259SOL    HW2 8675   3.444   0.995  12.480
 2260SOL     OW 8676  13.568  13.852  11.606
 2260SOL    HW1 8677  13.512  13.789  11.560
 2260SOL    HW2 8678  13.520  13.935  11.600
 2261SOL     OW 8679   3.060  10.230   6.863
 2261SOL    HW1 8680   3.144  10.271   6.843
 2261SOL    HW2 8681   3.035  10.185   6.783
 2262SOL     OW 8682   3.245  14.251   6.406
 2262SOL    HW1 8683   3.228  14.316   6.338
 2262SOL    HW2 8684   3.177  14.184   6.394
 2263SOL     OW 8685   9.615  14.352  13.958
 2263SOL    HW1 8686   9.613  14.408  13.880
 2263SOL    HW2 8687   9.708  14.335  13.973
 2264SOL     OW 8688  14.026   3.399  13.849
 2264SOL    HW1 8689  14.024   3.491  13.877
 2264SOL    HW2 8690  13.935   3.380  13.824
 2265SOL     OW 8691  14.199   7.950  12.963
 2265SOL    HW1 8692  14.273   7.998  12.924
 2265SOL    HW2 8693  14.199   7.977  13.055
 2266SOL     OW 8694  10.170   1.547   2.354
 2266SOL    HW1 8695  10.155   1.459   2.387
 2266SOL    HW2 8696  10.264   1.560   2.359
 2267SOL     OW 8697   6.050   6.206   7.775
 2267SOL    HW1 8698   6.132   6.251   7.794
 2267SOL    HW2 8699   6.063   6.169   7.688
 2268SOL     OW 8700  10.573   9.185   0.649
 2268SOL    HW1 8701  10.543   9.120   0.585
 2268SOL    HW2 8702  10.501   9.193   0.711
 2269SOL     OW 8703   1.111   9.378   3.574
 2269SOL    HW1 8704   1.173   9.310   3.600
 2269SOL    HW2 8705   1.112   9.440   3.647
 2270SOL     OW 8706   1.008   6.019   0.683
 2270SOL    HW1 8707   1.017   6.076   0.759
 2270SOL    HW2 8708   0.914   6.015   0.667
 2271SOL     OW 8709  13.437   7.741   6.524
 2271SOL    HW1 8710  13.468   7.771   6.439
 2271SOL    HW2 8711  13.459   7.812   6.584
 2272SOL     OW 8712  14.301   3.415   9.446
 2272SOL    HW1 8713  14.285   3.497   9.492
 2272SOL    HW2 8714  14.308   3.440   9.354
 2273SOL     OW 8715   1.938   5.954   8.764
 2273SOL    HW1 8716   2.002   5.979   8.831
 2273SOL    HW2 8717   1.932   6.031   8.707
 2274SOL     OW 8718  14.777   4.607  12.509
 2274SOL    HW1 8719  14.806   4.550  12.580
 2274SOL    HW2 8720  14.794   4.556  12.429
 2275SOL     OW 8721   5.856   2.069   1.687
 2275SOL    HW1 8722   5.927   2.010   1.711
 2275SOL    HW2 8723   5.870   2.147   1.741
 2276SOL     OW 8724   5.078   5.437  12.041
 2276SOL    HW1 8725   5.011   5.404  11.981
 2276SOL    HW2 8726   5.156   5.445  11.987
 2277SOL     OW 8727   1.936  12.112   4.641
 2277SOL    HW1 8728   1.951  12.166   4.563
 2277SOL    HW2 8729   1.891  12.171   4.702
 2278SOL     OW 8730  13.750   7.632   9.158
 2278SOL    HW1 8731  13.749   7.722   9.190
 2278SOL    HW2 8732  13.698   7.583   9.222
 2279SOL     OW 8733  11.781   1.743   5.553
 2279SOL    HW1 8734  11.751   1.829   5.582
 2279SOL    HW2 8735  11.716   1.682   5.587
 2280SOL     OW 8736  11.212   8.159   9.355
 2280SOL    HW1 8737  11.121   8.180   9.375
 2280SOL    HW2 8738  11.260   8.239   9.374
 2281SOL     OW 8739   8.161   0.757  12.456
 2281SOL    HW1 8740   8.182   0.686  12.516
 2281SOL    HW2 8741   8.231   0.820  12.468
 2282SOL     OW 8742   3.751   1.280   1.138
 2282SOL    HW1 8743   3.822   1.231   1.180
 2282SOL    HW2 8744   3.676   1.268   1.196
 2283SOL     OW 8745  11.938   1.330   1.877
 2283SOL    HW1 8746  11.896   1.249   1.904
 2283SOL    HW2 8747  11.985   1.360   1.955
 2284SOL     OW 8748  12.011  13.881   8.215
 2284SOL    HW1 8749  11.919  13.882   8.242
 2284SOL    HW2 8750  12.029  13.970   8.186
 2285SOL     OW 8751   5.669   0.902  13.893
 2285SOL    HW1 8752   5.678   0.807  13.888
 2285SOL    HW2 8753   5.707   0.934  13.811
 2286SOL     OW 8754  10.952   6.207  12.630
 2286SOL    HW1 8755  10.904   6.288  12.614
 2286SOL    HW2 8756  10.958   6.201  12.726
 2287SOL     OW 8757   5.923   4.672  11.242
 2287SOL    HW1 8758   5.904   4.582  11.217
 2287SOL    HW2 8759   6.004   4.666  11.293
 2288SOL     OW 8760  14.797  14.149   0.134
 2288SOL    HW1 8761  14.729  14.202   0.175
 2288SOL    HW2 8762  14.809  14.188   0.047
 2289SOL     OW 8763   6.851  11.139   9.298
 2289SOL    HW1 8764   6.933  11.126   9.346
 2289SOL    HW2 8765   6.794  11.070   9.331
 2290SOL     OW 8766   0.688   3.507   6.392
 2290SOL    HW1 8767   0.653   3.491   6.480
 2290SOL    HW2 8768   0.759   3.569   6.405
 2291SOL     OW 8769  12.501  11.039   3.827
 2291SOL    HW1 8770  12.437  10.972   3.851
 2291SOL    HW2 8771  12.565  11.038   3.898
 2292SOL     OW 8772   5.420  14.662   4.517
 2292SOL    HW1 8773   5.512  14.646   4.537
 2292SOL    HW2 8774   5.390  14.582   4.475
 2293SOL     OW 8775  11.244   2.402   3.936
 2293SOL    HW1 8776  11.155   2.377   3.910
 2293SOL    HW2 8777  11.286   2.429   3.854
 2294SOL     OW 8778   9.546  10.383  14.724
 2294SOL    HW1 8779   9.485  10.454  14.743
 2294SOL    HW2 8780   9.497  10.303  14.744
 2295SOL     OW 8781  12.634   7.980   7.958
 2295SOL    HW1 8782  12.702   8.017   8.015
 2295SOL    HW2 8783  12.623   8.044   7.888
 2296SOL     OW 8784   6.148   0.164   3.763
 2296SOL    HW1 8785   6.055   0.142   3.762
 2296SOL    HW2 8786   6.191   0.084   3.793
 2297SOL     OW 8787   4.868   1.252   8.299
 2297SOL    HW1 8788   4.773   1.253   8.289
 2297SOL    HW2 8789   4.882   1.202   8.380
 2298SOL     OW 8790  11.079   1.042   6.344
 2298SOL    HW1 8791  11.172   1.053   6.328
 2298SOL    HW2 8792  11.057   1.107   6.410
 2299SOL     OW 8793  14.813   0.361   9.055
 2299SOL    HW1 8794  14.745   0.408   9.101
 2299SOL    HW2 8795  14.775   0.339   8.970
 2300SOL     OW 8796  12.943   0.381  14.510
 2300SOL    HW1 8797  12.995   0.453  14.472
 2300SOL    HW2 8798  13.002   0.341  14.574
 2301SOL     OW 8799   9.397  14.134   3.787
 2301SOL    HW1 8800   9.373  14.118   3.696
 2301SOL    HW2 8801   9.437  14.052   3.816
 2302SOL     OW 8802  10.780   7.890   5.778
 2302SOL    HW1 8803  10.819   7.965   5.821
 2302SOL    HW2 8804  10.820   7.814   5.820
 2303SOL     OW 8805   1.498  12.040   1.676
 2303SOL    HW1 8806   1.431  12.019   1.740
 2303SOL    HW2 8807   1.450  12.074   1.600
 2304SOL     OW 8808   7.743  11.385   9.774
 2304SOL    HW1 8809   7.741  11.465   9.722
 2304SOL    HW2 8810   7.748  11.416   9.865
 2305SOL     OW 8811   4.951   3.145  13.611
 2305SOL    HW1 8812   5.012   3.085  13.653
 2305SOL    HW2 8813   5.005   3.196  13.550
 2306SOL     OW 8814   5.108   3.058   7.578
 2306SOL    HW1 8815   5.059   2.978   7.595
 2306SOL    HW2 8816   5.078   3.119   7.646
 2307SOL     OW 8817   8.292   2.835   4.245
 2307SOL    HW1 8818   8.329   2.871   4.165
 2307SOL    HW2 8819   8.209   2.796   4.217
 2308SOL     OW 8820  10.872   4.676   7.738
 2308SOL    HW1 8821  10.830   4.762   7.745
 2308SOL    HW2 8822  10.966   4.695   7.741
 2309SOL     OW 8823   7.626  12.407  11.202
 2309SOL    HW1 8824   7.675  12.477  11.245
 2309SOL    HW2 8825   7.667  12.326  11.231
 2310SOL     OW 8826   5.666   4.008   3.636
 2310SOL    HW1 8827   5.761   4.002   3.624
 2310SOL    HW2 8828   5.654   4.018   3.730
 2311SOL     OW 8829  13.666   1.794  11.613
 2311SOL    HW1 8830  13.694   1.742  11.537
 2311SOL    HW2 8831  13.570   1.790  11.612
 2312SOL     OW 8832   7.633  10.019   6.475
 2312SOL    HW1 8833   7.723  10.053   6.466
 2312SOL    HW2 8834   7.625   9.954   6.405
 2313SOL     OW 8835   0.640   3.255  12.924
 2313SOL    HW1 8836   0.699   3.201  12.977
 2313SOL    HW2 8837   0.603   3.195  12.860
 2314SOL     OW 8838   1.096   0.426  13.694
 2314SOL    HW1 8839   1.026   0.363  13.710
 2314SOL    HW2 8840   1.063   0.482  13.624
 2315SOL     OW 8841   2.785   9.519   2.713
 2315SOL    HW1 8842   2.844   9.573   2.764
 2315SOL    HW2 8843   2.826   9.513   2.627
 2316SOL     OW 8844   3.103   0.397  12.960
 2316SOL    HW1 8845   3.164   0.445  13.017
 2316SOL    HW2 8846   3.084   0.458  12.889
 2317SOL     OW 8847   7.942  12.783   4.490
 2317SOL    HW1 8848   7.917  12.717   4.555
 2317SOL    HW2 8849   8.037  12.779   4.487
 2318SOL     OW 8850  13.757   9.745  14.879
 2318SOL    HW1 8851  13.666   9.755   0.026
 2318SOL    HW2 8852  13.805   9.814   0.043
 2319SOL     OW 8853   0.043  10.234   1.263
 2319SOL    HW1 8854  14.860  10.169   1.290
 2319SOL    HW2 8855   0.125  10.185   1.259
 2320SOL     OW 8856   6.057   8.926   3.895
 2320SOL    HW1 8857   6.079   9.018   3.909
 2320SOL    HW2 8858   6.142   8.883   3.881
 2321SOL     OW 8859   4.827   1.894   4.236
 2321SOL    HW1 8860   4.745   1.944   4.242
 2321SOL    HW2 8861   4.799   1.803   4.236
 2322SOL     OW 8862   2.124  14.226  14.847
 2322SOL    HW1 8863   2.107  14.172   0.042
 2322SOL    HW2 8864   2.050  14.286  14.843
 2323SOL     OW 8865   0.644  11.890   4.380
 2323SOL    HW1 8866   0.702  11.848   4.443
 2323SOL    HW2 8867   0.596  11.955   4.431
 2324SOL     OW 8868   4.657  10.499  13.445
 2324SOL    HW1 8869   4.738  10.545  13.467
 2324SOL    HW2 8870   4.619  10.552  13.374
 2325SOL     OW 8871   6.865  14.196   8.155
 2325SOL    HW1 8872   6.909  14.254   8.092
 2325SOL    HW2 8873   6.781  14.175   8.113
 2326SOL     OW 8874   2.091   9.633   7.274
 2326SOL    HW1 8875   2.108   9.546   7.240
 2326SOL    HW2 8876   2.140   9.637   7.356
 2327SOL     OW 8877   3.261   6.089   2.722
 2327SOL    HW1 8878   3.305   6.066   2.803
 2327SOL    HW2 8879   3.252   6.185   2.726
 2328SOL     OW 8880  11.588   1.956  14.537
 2328SOL    HW1 8881  11.535   1.978  14.613
 2328SOL    HW2 8882  11.677   1.945  14.571
 2329SOL     OW 8883   6.837   3.813   2.376
 2329SOL    HW1 8884   6.873   3.774   2.455
 2329SOL    HW2 8885   6.747   3.834   2.398
 2330SOL     OW 8886  14.385   5.200  14.122
 2330SOL    HW1 8887  14.370   5.295  14.130
 2330SOL    HW2 8888  14.308   5.168  14.076
 2331SOL     OW 8889   1.469  13.395  13.199
 2331SOL    HW1 8890   1.488  13.323  13.139
 2331SOL    HW2 8891   1.388  13.369  13.242
 2332SOL     OW 8892   7.387   2.493  11.708
 2332SOL    HW1 8893   7.418   2.584  11.709
 2332SOL    HW2 8894   7.458   2.444  11.666
 2333SOL     OW 8895   3.327   3.902  11.437
 2333SOL    HW1 8896   3.371   3.826  11.475
 2333SOL    HW2 8897   3.349   3.897  11.344
 2334SOL     OW 8898  14.196   3.822   3.755
 2334SOL    HW1 8899  14.150   3.883   3.697
 2334SOL    HW2 8900  14.131   3.755   3.776
 2335SOL     OW 8901   5.983   6.274   6.292
 2335SOL    HW1 8902   5.935   6.206   6.244
 2335SOL    HW2 8903   5.977   6.247   6.383
 2336SOL     OW 8904   1.399  12.233  11.225
 2336SOL    HW1 8905   1.369  12.145  11.202
 2336SOL    HW2 8906   1.491  12.234  11.199
 2337SOL     OW 8907   8.982   3.865  12.579
 2337SOL    HW1 8908   8.977   3.794  12.515
 2337SOL    HW2 8909   8.990   3.944  12.526
 2338SOL     OW 8910   8.114   0.974  12.125
 2338SOL    HW1 8911   8.195   1.015  12.155
 2338SOL    HW2 8912   8.118   0.885  12.159
 2339SOL     OW 8913  13.168   6.464  13.038
 2339SOL    HW1 8914  13.088   6.484  12.990
 2339SOL    HW2 8915  13.145   6.479  13.130
 2340SOL     OW 8916  10.540   0.358   1.778
 2340SOL    HW1 8917  10.467   0.297   1.783
 2340SOL    HW2 8918  10.618   0.302   1.785
 2341SOL     OW 8919   1.779   2.198   1.481
 2341SOL    HW1 8920   1.701   2.231   1.525
 2341SOL    HW2 8921   1.763   2.213   1.388
 2342SOL     OW 8922   7.157   5.412  12.074
 2342SOL    HW1 8923   7.122   5.418  12.163
 2342SOL    HW2 8924   7.107   5.477  12.024
 2343SOL     OW 8925   3.652   5.813  11.835
 2343SOL    HW1 8926   3.627   5.884  11.777
 2343SOL    HW2 8927   3.702   5.855  11.905
 2344SOL     OW 8928  13.697  10.698   5.799
 2344SOL    HW1 8929  13.773  10.644   5.821
 2344SOL    HW2 8930  13.676  10.743   5.881
 2345SOL     OW 8931   1.818  11.158   0.548
 2345SOL    HW1 8932   1.739  11.104   0.546
 2345SOL    HW2 8933   1.823  11.197   0.460
 2346SOL     OW 8934   9.842   4.193   4.105
 2346SOL    HW1 8935   9.896   4.208   4.183
 2346SOL    HW2 8936   9.893   4.130   4.053
 2347SOL     OW 8937   3.831  10.228  14.257
 2347SOL    HW1 8938   3.899  10.167  14.229
 2347SOL    HW2 8939   3.875  10.313  14.263
 2348SOL     OW 8940   3.218  12.973   5.654
 2348SOL    HW1 8941   3.243  13.001   5.742
 2348SOL    HW2 8942   3.221  12.877   5.657
 2349SOL     OW 8943   6.822   1.514   8.100
 2349SOL    HW1 8944   6.863   1.483   8.019
 2349SOL    HW2 8945   6.770   1.440   8.131
 2350SOL     OW 8946  11.557  12.853  13.414
 2350SOL    HW1 8947  11.608  12.804  13.478
 2350SOL    HW2 8948  11.622  12.891  13.355
 2351SOL     OW 8949   2.281  10.733  10.088
 2351SOL    HW1 8950   2.375  10.728  10.106
 2351SOL    HW2 8951   2.270  10.817  10.043
 2352SOL     OW 8952  12.436   1.236   4.408
 2352SOL    HW1 8953  12.464   1.320   4.446
 2352SOL    HW2 8954  12.366   1.206   4.466
 2353SOL     OW 8955   9.378   0.502   1.243
 2353SOL    HW1 8956   9.316   0.487   1.171
 2353SOL    HW2 8957   9.361   0.592   1.269
 2354SOL     OW 8958   1.598   9.191   3.475
 2354SOL    HW1 8959   1.663   9.261   3.486
 2354SOL    HW2 8960   1.516   9.237   3.454
 2355SOL     OW 8961   0.110  14.844  14.666
 2355SOL    HW1 8962   0.026  14.801  14.676
 2355SOL    HW2 8963   0.111  14.873  14.574
 2356SOL     OW 8964  13.670   7.395   8.730
 2356SOL    HW1 8965  13.665   7.472   8.787
 2356SOL    HW2 8966  13.616   7.417   8.654
 2357SOL     OW 8967  10.429   4.009   7.670
 2357SOL    HW1 8968  10.457   4.075   7.606
 2357SOL    HW2 8969  10.471   3.928   7.642
 2358SOL     OW 8970   2.451  10.445   8.489
 2358SOL    HW1 8971   2.383  10.478   8.430
 2358SOL    HW2 8972   2.485  10.367   8.445
 2359SOL     OW 8973   6.701  11.786   1.237
 2359SOL    HW1 8974   6.626  11.730   1.219
 2359SOL    HW2 8975   6.773  11.747   1.188
 2360SOL     OW 8976  12.081   3.910  11.089
 2360SOL    HW1 8977  12.091   3.834  11.031
 2360SOL    HW2 8978  12.055   3.981  11.031
 2361SOL     OW 8979   1.943   6.560   7.032
 2361SOL    HW1 8980   1.989   6.494   7.085
 2361SOL    HW2 8981   1.890   6.508   6.970
 2362SOL     OW 8982  13.192  13.997  10.344
 2362SOL    HW1 8983  13.159  14.008  10.254
 2362SOL    HW2 8984  13.114  13.977  10.395
 2363SOL     OW 8985  11.670   4.017   8.552
 2363SOL    HW1 8986  11.630   4.053   8.473
 2363SOL    HW2 8987  11.618   4.054   8.624
 2364SOL     OW 8988  11.104   5.690   5.994
 2364SOL    HW1 8989  11.144   5.633   6.060
 2364SOL    HW2 8990  11.062   5.760   6.045
 2365SOL     OW 8991   1.215  11.679  13.675
 2365SOL    HW1 8992   1.133  11.729  13.681
 2365SOL    HW2 8993   1.188  11.593  13.643
 2366SOL     OW 8994   8.791   3.543   0.906
 2366SOL    HW1 8995   8.721   3.502   0.956
 2366SOL    HW2 8996   8.801   3.489   0.828
 2367SOL     OW 8997   8.498  14.003   4.648
 2367SOL    HW1 8998   8.567  14.019   4.584
 2367SOL    HW2 8999   8.520  14.059   4.723
 2368SOL     OW 9000   1.952  14.492  10.485
 2368SOL    HW1 9001   1.880  14.480  10.547
 2368SOL    HW2 9002   1.909  14.491  10.399
 2369SOL     OW 9003  14.466   7.780   6.515
 2369SOL    HW1 9004  14.422   7.861   6.487
 2369SOL    HW2 9005  14.528   7.809   6.582
 2370SOL     OW 9006  12.773   3.034   1.933
 2370SOL    HW1 9007  12.827   3.074   2.001
 2370SOL    HW2 9008  12.694   3.005   1.978
 2371SOL     OW 9009   0.076  13.787  12.210
 2371SOL    HW1 9010   0.158  13.766  12.163
 2371SOL    HW2 9011   0.072  13.882  12.210
 2372SOL     OW 9012   9.917   9.839  11.368
 2372SOL    HW1 9013   9.898   9.903  11.299
 2372SOL    HW2 9014   9.846   9.849  11.430
 2373SOL     OW 9015   0.603   4.255   8.578
 2373SOL    HW1 9016   0.634   4.207   8.655
 2373SOL    HW2 9017   0.648   4.215   8.504
 2374SOL     OW 9018   0.207  13.589  12.782
 2374SOL    HW1 9019   0.187  13.681  12.799
 2374SOL    HW2 9020   0.295  13.577  12.816
 2375SOL     OW 9021  14.809   3.346   9.977
 2375SOL    HW1 9022  14.777   3.366  10.065
 2375SOL    HW2 9023   0.009   3.300   9.992
 2376SOL     OW 9024   0.621   2.137   2.417
 2376SOL    HW1 9025   0.698   2.118   2.363
 2376SOL    HW2 9026   0.602   2.055   2.462
 2377SOL     OW 9027  12.275  10.227  13.858
 2377SOL    HW1 9028  12.288  10.276  13.776
 2377SOL    HW2 9029  12.271  10.294  13.926
 2378SOL     OW 9030   4.628  11.586   9.814
 2378SOL    HW1 9031   4.560  11.653   9.806
 2378SOL    HW2 9032   4.639  11.552   9.726
 2379SOL     OW 9033  10.108  10.656   4.039
 2379SOL    HW1 9034  10.066  10.581   4.081
 2379SOL    HW2 9035  10.137  10.622   3.954
 2380SOL     OW 9036   5.582   5.783   3.387
 2380SOL    HW1 9037   5.525   5.788   3.464
 2380SOL    HW2 9038   5.657   5.838   3.409
 2381SOL     OW 9039  11.854  11.651   2.606
 2381SOL    HW1 9040  11.863  11.696   2.691
 2381SOL    HW2 9041  11.919  11.581   2.610
 2382SOL     OW 9042   2.781   7.188  11.520
 2382SOL    HW1 9043   2.750   7.139  11.596
 2382SOL    HW2 9044   2.801   7.121  11.455
 2383SOL     OW 9045   4.774   9.511  14.077
 2383SOL    HW1 9046   4.716   9.501  14.152
 2383SOL    HW2 9047   4.862   9.509  14.114
 2384SOL     OW 9048   9.408   4.086   6.455
 2384SOL    HW1 9049   9.410   4.014   6.393
 2384SOL    HW2 9050   9.363   4.157   6.408
 2385SOL     OW 9051  12.560   2.878   0.654
 2385SOL    HW1 9052  12.633   2.929   0.618
 2385SOL    HW2 9053  12.576   2.789   0.625
 2386SOL     OW 9054   6.856   1.058   2.170
 2386SOL    HW1 9055   6.816   1.140   2.139
 2386SOL    HW2 9056   6.820   0.991   2.112
 2387SOL     OW 9057   9.066   0.653   1.075
 2387SOL    HW1 9058   8.977   0.624   1.053
 2387SOL    HW2 9059   9.120   0.574   1.065
 2388SOL     OW 9060   8.725   0.210   7.807
 2388SOL    HW1 9061   8.723   0.277   7.738
 2388SOL    HW2 9062   8.802   0.231   7.859
 2389SOL     OW 9063  11.190  10.957   4.632
 2389SOL    HW1 9064  11.149  10.986   4.550
 2389SOL    HW2 9065  11.192  10.862   4.626
 2390SOL     OW 9066   4.788   7.910  14.236
 2390SOL    HW1 9067   4.864   7.967  14.224
 2390SOL    HW2 9068   4.767   7.880  14.148
 2391SOL     OW 9069   9.777   1.596   8.005
 2391SOL    HW1 9070   9.728   1.646   7.939
 2391SOL    HW2 9071   9.751   1.636   8.089
 2392SOL     OW 9072  14.206  11.275  12.763
 2392SOL    HW1 9073  14.217  11.276  12.858
 2392SOL    HW2 9074  14.205  11.368  12.738
 2393SOL     OW 9075   6.417  13.866  11.672
 2393SOL    HW1 9076   6.473  13.909  11.607
 2393SOL    HW2 9077   6.453  13.892  11.757
 2394SOL     OW 9078   3.630  13.740   0.630
 2394SOL    HW1 9079   3.616  13.816   0.686
 2394SOL    HW2 9080   3.724  13.724   0.632
 2395SOL     OW 9081  10.367   6.428   7.316
 2395SOL    HW1 9082  10.439   6.440   7.379
 2395SOL    HW2 9083  10.342   6.336   7.326
 2396SOL     OW 9084   7.966   5.425   5.574
 2396SOL    HW1 9085   7.899   5.401   5.639
 2396SOL    HW2 9086   7.926   5.406   5.490
 2397SOL     OW 9087  13.714  13.789   2.372
 2397SOL    HW1 9088  13.647  13.768   2.307
 2397SOL    HW2 9089  13.743  13.877   2.349
 2398SOL     OW 9090  13.607   4.798  10.341
 2398SOL    HW1 9091  13.665   4.804  10.265
 2398SOL    HW2 9092  13.552   4.722  10.323
 2399SOL     OW 9093  12.356  12.969  14.607
 2399SOL    HW1 9094  12.441  12.988  14.646
 2399SOL    HW2 9095  12.337  13.045  14.552
 2400SOL     OW 9096   3.402   7.256  12.120
 2400SOL    HW1 9097   3.449   7.317  12.063
 2400SOL    HW2 9098   3.359   7.196  12.060
 2401SOL     OW 9099   6.562   3.403  12.388
 2401SOL    HW1 9100   6.553   3.441  12.301
 2401SOL    HW2 9101   6.582   3.310  12.372
 2402SOL     OW 9102   8.728   1.392   2.366
 2402SOL    HW1 9103   8.824   1.397   2.366
 2402SOL    HW2 9104   8.708   1.299   2.369
 2403SOL     OW 9105   8.229  11.904  14.756
 2403SOL    HW1 9106   8.246  11.950  14.674
 2403SOL    HW2 9107   8.252  11.813  14.738
 2404SOL     OW 9108   3.581   7.126   2.115
 2404SOL    HW1 9109   3.541   7.198   2.164
 2404SOL    HW2 9110   3.675   7.134   2.133
 2405SOL     OW 9111  11.418   3.359   5.006
 2405SOL    HW1 9112  11.359   3.294   4.967
 2405SOL    HW2 9113  11.361   3.433   5.027
 2406SOL     OW 9114  12.531   4.372   5.309
 2406SOL    HW1 9115  12.453   4.428   5.311
 2406SOL    HW2 9116  12.576   4.390   5.392
 2407SOL     OW 9117   5.664  14.111   2.847
 2407SOL    HW1 9118   5.577  14.100   2.808
 2407SOL    HW2 9119   5.700  14.187   2.801
 2408SOL     OW 9120   1.232   1.601   6.238
 2408SOL    HW1 9121   1.233   1.547   6.159
 2408SOL    HW2 9122   1.289   1.555   6.299
 2409SOL     OW 9123  11.131   4.555  10.183
 2409SOL    HW1 9124  11.043   4.566  10.147
 2409SOL    HW2 9125  11.117   4.509  10.266
 2410SOL     OW 9126   1.557  12.988   0.351
 2410SOL    HW1 9127   1.640  12.964   0.392
 2410SOL    HW2 9128   1.574  13.073   0.311
 2411SOL     OW 9129  11.685  12.421  10.671
 2411SOL    HW1 9130  11.669  12.431  10.577
 2411SOL    HW2 9131  11.760  12.478  10.689
 2412SOL     OW 9132  13.206  13.374  12.049
 2412SOL    HW1 9133  13.159  13.458  12.046
 2412SOL    HW2 9134  13.235  13.360  11.959
 2413SOL     OW 9135  13.568  11.657   6.112
 2413SOL    HW1 9136  13.651  11.677   6.068
 2413SOL    HW2 9137  13.529  11.742   6.129
 2414SOL     OW 9138   0.026  10.046   5.992
 2414SOL    HW1 9139  14.874  10.135   5.987
 2414SOL    HW2 9140   0.023  10.024   6.085
 2415SOL     OW 9141  10.233   2.327  12.930
 2415SOL    HW1 9142  10.214   2.296  13.019
 2415SOL    HW2 9143  10.325   2.355  12.934
 2416SOL     OW 9144   9.055  10.563  13.686
 2416SOL    HW1 9145   9.139  10.525  13.663
 2416SOL    HW2 9146   8.994  10.490  13.687
 2417SOL     OW 9147  13.784  12.613  10.413
 2417SOL    HW1 9148  13.704  12.665  10.400
 2417SOL    HW2 9149  13.756  12.541  10.470
 2418SOL     OW 9150  11.261  14.555   7.277
 2418SOL    HW1 9151  11.184  14.524   7.325
 2418SOL    HW2 9152  11.299  14.623   7.332
 2419SOL     OW 9153   0.947   2.688  11.797
 2419SOL    HW1 9154   0.950   2.605  11.751
 2419SOL    HW2 9155   1.022   2.685  11.856
 2420SOL     OW 9156   1.544   4.584   4.503
 2420SOL    HW1 9157   1.500   4.571   4.588
 2420SOL    HW2 9158   1.485   4.642   4.455
 2421SOL     OW 9159   9.776  13.364   1.197
 2421SOL    HW1 9160   9.863  13.362   1.237
 2421SOL    HW2 9161   9.715  13.347   1.269
 2422SOL     OW 9162  14.840   7.084   4.656
 2422SOL    HW1 9163   0.045   7.113   4.682
 2422SOL    HW2 9164  14.852   6.991   4.636
 2423SOL     OW 9165   2.903   7.333   1.753
 2423SOL    HW1 9166   2.840   7.286   1.807
 2423SOL    HW2 9167   2.928   7.271   1.685
 2424SOL     OW 9168   1.229   3.418   2.700
 2424SOL    HW1 9169   1.201   3.473   2.627
 2424SOL    HW2 9170   1.251   3.479   2.770
 2425SOL     OW 9171   0.775   9.034  11.741
 2425SOL    HW1 9172   0.684   9.064  11.731
 2425SOL    HW2 9173   0.768   8.940  11.757
 2426SOL     OW 9174   0.992   6.226   7.358
 2426SOL    HW1 9175   0.907   6.185   7.372
 2426SOL    HW2 9176   1.034   6.225   7.444
 2427SOL     OW 9177  13.092  11.275  14.193
 2427SOL    HW1 9178  13.187  11.281  14.184
 2427SOL    HW2 9179  13.063  11.365  14.209
 2428SOL     OW 9180   9.363   8.222  11.451
 2428SOL    HW1 9181   9.368   8.278  11.528
 2428SOL    HW2 9182   9.270   8.199  11.444
 2429SOL     OW 9183  10.059  12.304   2.043
 2429SOL    HW1 9184   9.970  12.292   2.076
 2429SOL    HW2 9185  10.049  12.357   1.964
 2430SOL     OW 9186   8.636   4.574   0.518
 2430SOL    HW1 9187   8.650   4.564   0.423
 2430SOL    HW2 9188   8.725   4.583   0.554
 2431SOL     OW 9189   1.639  11.115   8.505
 2431SOL    HW1 9190   1.596  11.190   8.547
 2431SOL    HW2 9191   1.612  11.121   8.413
 2432SOL     OW 9192   1.322   0.474   7.751
 2432SOL    HW1 9193   1.256   0.407   7.767
 2432SOL    HW2 9194   1.284   0.554   7.789
 2433SOL     OW 9195   3.620  13.469   1.969
 2433SOL    HW1 9196   3.648  13.439   1.882
 2433SOL    HW2 9197   3.675  13.545   1.987
 2434SOL     OW 9198   7.940  12.262   5.892
 2434SOL    HW1 9199   8.028  12.247   5.925
 2434SOL    HW2 9200   7.913  12.344   5.933
 2435SOL     OW 9201  12.371   1.882  10.525
 2435SOL    HW1 9202  12.438   1.857  10.461
 2435SOL    HW2 9203  12.382   1.977  10.536
 2436SOL     OW 9204  11.435   2.235  12.732
 2436SOL    HW1 9205  11.410   2.163  12.789
 2436SOL    HW2 9206  11.495   2.288  12.784
 2437SOL     OW 9207   4.625  12.398  10.494
 2437SOL    HW1 9208   4.706  12.439  10.464
 2437SOL    HW2 9209   4.650  12.308  10.514
 2438SOL     OW 9210   2.200   8.644  14.447
 2438SOL    HW1 9211   2.152   8.565  14.426
 2438SOL    HW2 9212   2.198   8.697  14.367
 2439SOL     OW 9213   6.943   2.414   1.813
 2439SOL    HW1 9214   6.999   2.353   1.860
 2439SOL    HW2 9215   6.984   2.423   1.727
 2440SOL     OW 9216   2.126   0.873  12.017
 2440SOL    HW1 9217   2.104   0.821  11.939
 2440SOL    HW2 9218   2.073   0.952  12.009
 2441SOL     OW 9219   6.033   3.694  11.060
 2441SOL    HW1 9220   5.977   3.771  11.063
 2441SOL    HW2 9221   6.011   3.645  11.140
 2442SOL     OW 9222   8.943   2.661  10.893
 2442SOL    HW1 9223   8.859   2.615  10.883
 2442SOL    HW2 9224   9.007   2.602  10.851
 2443SOL     OW 9225   4.422  11.492   0.268
 2443SOL    HW1 9226   4.399  11.403   0.294
 2443SOL    HW2 9227   4.477  11.481   0.190
 2444SOL     OW 9228   9.193  11.878   3.656
 2444SOL    HW1 9229   9.198  11.941   3.584
 2444SOL    HW2 9230   9.247  11.916   3.725
 2445SOL     OW 9231   6.742   0.507   1.931
 2445SOL    HW1 9232   6.813   0.547   1.880
 2445SOL    HW2 9233   6.723   0.571   2.000
 2446SOL     OW 9234   1.241  14.416  10.291
 2446SOL    HW1 9235   1.241  14.495  10.345
 2446SOL    HW2 9236   1.149  14.387  10.291
 2447SOL     OW 9237   3.916   8.165   9.755
 2447SOL    HW1 9238   3.913   8.206   9.669
 2447SOL    HW2 9239   3.999   8.117   9.756
 2448SOL     OW 9240   3.923   8.773   1.411
 2448SOL    HW1 9241   3.890   8.863   1.404
 2448SOL    HW2 9242   3.851   8.724   1.451
 2449SOL     OW 9243   7.555  13.163  14.694
 2449SOL    HW1 9244   7.644  13.150  14.725
 2449SOL    HW2 9245   7.539  13.257  14.705
 2450SOL     OW 9246   0.841   5.289   4.109
 2450SOL    HW1 9247   0.749   5.300   4.087
 2450SOL    HW2 9248   0.886   5.289   4.024
 2451SOL     OW 9249  13.899   3.577   5.442
 2451SOL    HW1 9250  13.882   3.486   5.417
 2451SOL    HW2 9251  13.948   3.613   5.368
 2452SOL     OW 9252   1.455   0.682   1.347
 2452SOL    HW1 9253   1.519   0.662   1.279
 2452SOL    HW2 9254   1.472   0.773   1.370
 2453SOL     OW 9255   5.975   7.218   9.255
 2453SOL    HW1 9256   5.917   7.142   9.257
 2453SOL    HW2 9257   6.063   7.182   9.260
 2454SOL     OW 9258   8.102   9.851  10.438
 2454SOL    HW1 9259   8.012   9.852  10.471
 2454SOL    HW2 9260   8.092   9.844  10.343
 2455SOL     OW 9261   6.173  13.981   7.966
 2455SOL    HW1 9262   6.235  14.048   7.995
 2455SOL    HW2 9263   6.189  13.906   8.023
 2456SOL     OW 9264   7.934   9.842  11.256
 2456SOL    HW1 9265   7.981   9.866  11.336
 2456SOL    HW2 9266   7.999   9.795  11.203
 2457SOL     OW 9267   7.615   5.523   0.052
 2457SOL    HW1 9268   7.653   5.489  14.853
 2457SOL    HW2 9269   7.615   5.448   0.111
 2458SOL     OW 9270   5.577   6.058   0.092
 2458SOL    HW1 9271   5.644   6.069   0.025
 2458SOL    HW2 9272   5.590   5.969   0.124
 2459SOL     OW 9273   8.227   0.555   4.598
 2459SOL    HW1 9274   8.301   0.507   4.636
 2459SOL    HW2 9275   8.264   0.599   4.521
 2460SOL     OW 9276   6.173   9.858   2.040
 2460SOL    HW1 9277   6.154   9.851   1.946
 2460SOL    HW2 9278   6.265   9.884   2.044
 2461SOL     OW 9279  12.631   7.192   0.037
 2461SOL    HW1 9280  12.592   7.238   0.111
 2461SOL    HW2 9281  12.601   7.240  14.842
 2462SOL     OW 9282   6.114   6.099   4.067
 2462SOL    HW1 9283   6.052   6.112   4.138
 2462SOL    HW2 9284   6.154   6.186   4.054
 2463SOL     OW 9285   1.471  14.043   2.074
 2463SOL    HW1 9286   1.536  13.983   2.111
 2463SOL    HW2 9287   1.519  14.122   2.055
 2464SOL     OW 9288   4.650   0.421  10.409
 2464SOL    HW1 9289   4.688   0.349  10.459
 2464SOL    HW2 9290   4.560   0.393  10.390
 2465SOL     OW 9291   2.115   8.073   6.691
 2465SOL    HW1 9292   2.041   8.021   6.722
 2465SOL    HW2 9293   2.190   8.036   6.738
 2466SOL     OW 9294   2.149   4.001   6.143
 2466SOL    HW1 9295   2.176   3.985   6.053
 2466SOL    HW2 9296   2.064   3.957   6.151
 2467SOL     OW 9297  13.435  12.445   2.112
 2467SOL    HW1 9298  13.498  12.505   2.072
 2467SOL    HW2 9299  13.406  12.389   2.039
 2468SOL     OW 9300  14.725   9.313   2.867
 2468SOL    HW1 9301  14.707   9.342   2.957
 2468SOL    HW2 9302  14.732   9.393   2.816
 2469SOL     OW 9303  11.649  12.093   2.471
 2469SOL    HW1 9304  11.585  12.149   2.516
 2469SOL    HW2 9305  11.640  12.008   2.515
 2470SOL     OW 9306   1.090   3.801  14.869
 2470SOL    HW1 9307   1.168   3.823   0.039
 2470SOL    HW2 9308   1.024   3.864   0.015
 2471SOL     OW 9309  11.992   9.049   4.063
 2471SOL    HW1 9310  11.930   8.987   4.101
 2471SOL    HW2 9311  11.947   9.134   4.068
 2472SOL     OW 9312  10.269  10.451   1.104
 2472SOL    HW1 9313  10.301  10.539   1.083
 2472SOL    HW2 9314  10.198  10.436   1.042
 2473SOL     OW 9315   3.420  14.870  10.168
 2473SOL    HW1 9316   3.489  14.848  10.105
 2473SOL    HW2 9317   3.450  14.834  10.251
 2474SOL     OW 9318   9.670   3.856  10.604
 2474SOL    HW1 9319   9.582   3.868  10.641
 2474SOL    HW2 9320   9.722   3.927  10.641
 2475SOL     OW 9321   5.273   0.476   8.471
 2475SOL    HW1 9322   5.204   0.524   8.516
 2475SOL    HW2 9323   5.353   0.525   8.491
 2476SOL     OW 9324  10.514  14.198  11.304
 2476SOL    HW1 9325  10.421  14.179  11.317
 2476SOL    HW2 9326  10.559  14.118  11.330
 2477SOL     OW 9327   5.831   0.354  14.829
 2477SOL    HW1 9328   5.743   0.328  14.801
 2477SOL    HW2 9329   5.817   0.393   0.033
 2478SOL     OW 9330   8.429  10.699   9.591
 2478SOL    HW1 9331   8.384  10.726   9.511
 2478SOL    HW2 9332   8.420  10.603   9.592
 2479SOL     OW 9333   5.372   4.749   2.743
 2479SOL    HW1 9334   5.309   4.820   2.731
 2479SOL    HW2 9335   5.335   4.675   2.695
 2480SOL     OW 9336  10.500  12.314  11.463
 2480SOL    HW1 9337  10.415  12.356  11.447
 2480SOL    HW2 9338  10.511  12.318  11.558
 2481SOL     OW 9339   3.854   3.083   9.910
 2481SOL    HW1 9340   3.833   3.127   9.827
 2481SOL    HW2 9341   3.909   3.145   9.957
 2482SOL     OW 9342   8.480  10.374   7.684
 2482SOL    HW1 9343   8.572  10.360   7.707
 2482SOL    HW2 9344   8.455  10.453   7.732
 2483SOL     OW 9345   8.757   1.832   3.533
 2483SOL    HW1 9346   8.676   1.874   3.563
 2483SOL    HW2 9347   8.819   1.904   3.525
 2484SOL     OW 9348   3.078  10.501  11.566
 2484SOL    HW1 9349   3.049  10.509  11.475
 2484SOL    HW2 9350   2.999  10.518  11.617
 2485SOL     OW 9351   9.231   8.151   3.802
 2485SOL    HW1 9352   9.281   8.171   3.881
 2485SOL    HW2 9353   9.297   8.128   3.737
 2486SOL     OW 9354   1.668   1.883   9.781
 2486SOL    HW1 9355   1.653   1.934   9.861
 2486SOL    HW2 9356   1.587   1.833   9.769
 2487SOL     OW 9357   0.802   0.743   3.245
 2487SOL    HW1 9358   0.855   0.695   3.181
 2487SOL    HW2 9359   0.749   0.675   3.288
 2488SOL     OW 9360   7.067   0.821   8.137
 2488SOL    HW1 9361   7.045   0.814   8.044
 2488SOL    HW2 9362   7.054   0.913   8.158
 2489SOL     OW 9363   3.720   1.637   5.001
 2489SOL    HW1 9364   3.803   1.684   5.008
 2489SOL    HW2 9365   3.723   1.594   4.916
 2490SOL     OW 9366  12.444   8.519   3.082
 2490SOL    HW1 9367  12.514   8.568   3.039
 2490SOL    HW2 9368  12.364   8.569   3.062
 2491SOL     OW 9369   7.276   2.427  11.310
 2491SOL    HW1 9370   7.208   2.479  11.268
 2491SOL    HW2 9371   7.227   2.366  11.366
 2492SOL     OW 9372  11.596   2.643  12.084
 2492SOL    HW1 9373  11.596   2.581  12.011
 2492SOL    HW2 9374  11.605   2.587  12.162
 2493SOL     OW 9375  10.729   8.742   6.566
 2493SOL    HW1 9376  10.683   8.804   6.510
 2493SOL    HW2 9377  10.702   8.656   6.535
 2494SOL     OW 9378   5.586   3.424   3.855
 2494SOL    HW1 9379   5.573   3.368   3.779
 2494SOL    HW2 9380   5.653   3.379   3.907
 2495SOL     OW 9381   6.011   7.099  12.564
 2495SOL    HW1 9382   6.031   7.040  12.637
 2495SOL    HW2 9383   6.077   7.078  12.498
 2496SOL     OW 9384   2.963   2.473  12.929
 2496SOL    HW1 9385   2.900   2.480  13.000
 2496SOL    HW2 9386   3.023   2.403  12.957
 2497SOL     OW 9387   4.681   7.267   5.096
 2497SOL    HW1 9388   4.668   7.235   5.186
 2497SOL    HW2 9389   4.677   7.188   5.042
 2498SOL     OW 9390  11.490   3.383   8.309
 2498SOL    HW1 9391  11.467   3.462   8.260
 2498SOL    HW2 9392  11.466   3.403   8.399
 2499SOL     OW 9393   1.408   8.598  13.031
 2499SOL    HW1 9394   1.320   8.583  12.997
 2499SOL    HW2 9395   1.416   8.539  13.106
 2500SOL     OW 9396  13.884   1.514  10.833
 2500SOL    HW1 9397  13.871   1.592  10.779
 2500SOL    HW2 9398  13.944   1.542  10.902
 2501SOL     OW 9399   1.107   9.972   6.277
 2501SOL    HW1 9400   1.100   9.952   6.371
 2501SOL    HW2 9401   1.021  10.008   6.254
 2502SOL     OW 9402  13.342   4.912   7.780
 2502SOL    HW1 9403  13.380   4.972   7.844
 2502SOL    HW2 9404  13.254   4.894   7.813
 2503SOL     OW 9405   1.310  12.977   7.873
 2503SOL    HW1 9406   1.399  12.999   7.901
 2503SOL    HW2 9407   1.265  12.954   7.955
 2504SOL     OW 9408  13.721   1.552   1.625
 2504SOL    HW1 9409  13.769   1.635   1.624
 2504SOL    HW2 9410  13.749   1.509   1.706
 2505SOL     OW 9411  13.326   3.163  14.356
 2505SOL    HW1 9412  13.395   3.153  14.290
 2505SOL    HW2 9413  13.254   3.204  14.308
 2506SOL     OW 9414   4.092   1.146   9.863
 2506SOL    HW1 9415   4.074   1.080   9.930
 2506SOL    HW2 9416   4.011   1.149   9.811
 2507SOL     OW 9417  14.111   0.430   6.445
 2507SOL    HW1 9418  14.106   0.351   6.498
 2507SOL    HW2 9419  14.183   0.414   6.384
 2508SOL     OW 9420  11.710  12.943  10.268
 2508SOL    HW1 9421  11.680  12.915  10.355
 2508SOL    HW2 9422  11.705  13.038  10.271
 2509SOL     OW 9423   8.881   3.597  12.432
 2509SOL    HW1 9424   8.853   3.664  12.370
 2509SOL    HW2 9425   8.976   3.601  12.430
 2510SOL     OW 9426   1.016   7.583   1.026
 2510SOL    HW1 9427   0.945   7.576   0.963
 2510SOL    HW2 9428   1.085   7.527   0.991
 2511SOL     OW 9429  14.534   9.321   8.154
 2511SOL    HW1 9430  14.616   9.327   8.203
 2511SOL    HW2 9431  14.482   9.395   8.186
 2512SOL     OW 9432   1.301   8.137  11.400
 2512SOL    HW1 9433   1.295   8.215  11.346
 2512SOL    HW2 9434   1.249   8.158  11.478
 2513SOL     OW 9435   0.717   7.064   1.647
 2513SOL    HW1 9436   0.769   7.004   1.700
 2513SOL    HW2 9437   0.773   7.086   1.573
 2514SOL     OW 9438  11.286  12.752   2.012
 2514SOL    HW1 9439  11.305  12.667   2.051
 2514SOL    HW2 9440  11.371  12.784   1.981
 2515SOL     OW 9441   6.823   7.593   1.149
 2515SOL    HW1 9442   6.865   7.614   1.232
 2515SOL    HW2 9443   6.889   7.544   1.100
 2516SOL     OW 9444  14.550  14.799  14.624
 2516SOL    HW1 9445  14.563  14.808  14.530
 2516SOL    HW2 9446  14.508  14.713  14.634
 2517SOL     OW 9447   8.891   5.735   9.854
 2517SOL    HW1 9448   8.833   5.660   9.867
 2517SOL    HW2 9449   8.834   5.805   9.821
 2518SOL     OW 9450  11.585   6.417   1.687
 2518SOL    HW1 9451  11.671   6.439   1.725
 2518SOL    HW2 9452  11.522   6.465   1.741
 2519SOL     OW 9453   9.588   8.500   8.047
 2519SOL    HW1 9454   9.674   8.489   8.087
 2519SOL    HW2 9455   9.537   8.548   8.112
 2520SOL     OW 9456   0.190  13.596   0.830
 2520SOL    HW1 9457   0.135  13.578   0.753
 2520SOL    HW2 9458   0.136  13.570   0.904
 2521SOL     OW 9459   5.687   3.791   0.324
 2521SOL    HW1 9460   5.651   3.716   0.276
 2521SOL    HW2 9461   5.612   3.831   0.367
 2522SOL     OW 9462   7.908  13.122   5.418
 2522SOL    HW1 9463   7.858  13.167   5.487
 2522SOL    HW2 9464   7.992  13.167   5.416
 2523SOL     OW 9465  11.941   3.273   7.620
 2523SOL    HW1 9466  11.902   3.252   7.705
 2523SOL    HW2 9467  11.900   3.355   7.595
 2524SOL     OW 9468  13.397   2.448  14.166
 2524SOL    HW1 9469  13.445   2.476  14.244
 2524SOL    HW2 9470  13.387   2.528  14.115
 2525SOL     OW 9471  13.011  12.368  12.401
 2525SOL    HW1 9472  12.989  12.391  12.311
 2525SOL    HW2 9473  13.101  12.400  12.412
 2526SOL     OW 9474   5.153   1.417   8.668
 2526SOL    HW1 9475   5.223   1.401   8.605
 2526SOL    HW2 9476   5.195   1.468   8.737
 2527SOL     OW 9477  11.270   7.516  14.395
 2527SOL    HW1 9478  11.182   7.531  14.431
 2527SOL    HW2 9479  11.326   7.509  14.472
 2528SOL     OW 9480   2.280  13.809   3.926
 2528SOL    HW1 9481   2.319  13.887   3.966
 2528SOL    HW2 9482   2.238  13.841   3.846
 2529SOL     OW 9483  11.854   2.848  11.264
 2529SOL    HW1 9484  11.794   2.805  11.204
 2529SOL    HW2 9485  11.836   2.808  11.349
 2530SOL     OW 9486  12.081   6.890   5.007
 2530SOL    HW1 9487  12.111   6.970   5.050
 2530SOL    HW2 9488  12.157   6.858   4.959
 2531SOL     OW 9489   1.147  11.193   3.658
 2531SOL    HW1 9490   1.179  11.102   3.661
 2531SOL    HW2 9491   1.223  11.245   3.685
 2532SOL     OW 9492   2.889   3.524  12.997
 2532SOL    HW1 9493   2.860   3.476  12.919
 2532SOL    HW2 9494   2.814   3.522  13.056
 2533SOL     OW 9495   9.341   1.980  14.211
 2533SOL    HW1 9496   9.251   1.972  14.179
 2533SOL    HW2 9497   9.372   1.890  14.220
 2534SOL     OW 9498   2.082   9.553   3.876
 2534SOL    HW1 9499   2.010   9.493   3.856
 2534SOL    HW2 9500   2.154   9.524   3.819
 2535SOL     OW 9501  13.012   2.008   8.776
 2535SOL    HW1 9502  12.972   2.072   8.836
 2535SOL    HW2 9503  13.016   1.927   8.826
 2536SOL     OW 9504  12.149   0.874   4.451
 2536SOL    HW1 9505  12.082   0.825   4.403
 2536SOL    HW2 9506  12.166   0.821   4.528
 2537SOL     OW 9507   3.344   4.683   3.986
 2537SOL    HW1 9508   3.296   4.667   4.068
 2537SOL    HW2 9509   3.434   4.659   4.006
 2538SOL     OW 9510   7.707   9.310   5.313
 2538SOL    HW1 9511   7.691   9.390   5.264
 2538SOL    HW2 9512   7.649   9.245   5.273
 2539SOL     OW 9513  10.683   2.396  13.374
 2539SOL    HW1 9514  10.751   2.460  13.392
 2539SOL    HW2 9515  10.648   2.373  13.460
 2540SOL     OW 9516  10.697  12.166   9.320
 2540SOL    HW1 9517  10.774  12.202   9.365
 2540SOL    HW2 9518  10.709  12.072   9.324
 2541SOL     OW 9519   4.722  12.126   6.077
 2541SOL    HW1 9520   4.702  12.205   6.126
 2541SOL    HW2 9521   4.783  12.156   6.009
 2542SOL     OW 9522   2.900   1.962  14.779
 2542SOL    HW1 9523   2.910   1.867  14.771
 2542SOL    HW2 9524   2.931   1.982  14.867
 2543SOL     OW 9525   5.544   2.111   1.643
 2543SOL    HW1 9526   5.508   2.103   1.731
 2543SOL    HW2 9527   5.477   2.073   1.586
 2544SOL     OW 9528  14.325  13.983  13.979
 2544SOL    HW1 9529  14.373  13.987  13.897
 2544SOL    HW2 9530  14.250  13.927  13.960
 2545SOL     OW 9531   1.118   2.933   3.521
 2545SOL    HW1 9532   1.165   2.868   3.573
 2545SOL    HW2 9533   1.156   3.017   3.547
 2546SOL     OW 9534   4.824   8.498   2.035
 2546SOL    HW1 9535   4.815   8.500   1.939
 2546SOL    HW2 9536   4.887   8.429   2.052
 2547SOL     OW 9537   5.351   5.486   2.401
 2547SOL    HW1 9538   5.435   5.501   2.446
 2547SOL    HW2 9539   5.345   5.556   2.337
 2548SOL     OW 9540   0.438   3.838   2.111
 2548SOL    HW1 9541   0.450   3.757   2.162
 2548SOL    HW2 9542   0.347   3.864   2.130
 2549SOL     OW 9543   8.698   3.074   2.630
 2549SOL    HW1 9544   8.743   2.993   2.653
 2549SOL    HW2 9545   8.755   3.117   2.566
 2550SOL     OW 9546   7.948   6.881  11.183
 2550SOL    HW1 9547   7.992   6.897  11.099
 2550SOL    HW2 9548   7.962   6.961  11.233
 2551SOL     OW 9549  14.655   7.006  11.544
 2551SOL    HW1 9550  14.638   6.986  11.452
 2551SOL    HW2 9551  14.719   7.077  11.542
 2552SOL     OW 9552   9.504  11.173   0.190
 2552SOL    HW1 9553   9.560  11.245   0.161
 2552SOL    HW2 9554   9.545  11.094   0.154
 2553SOL     OW 9555  10.138   6.420   5.279
 2553SOL    HW1 9556  10.197   6.482   5.321
 2553SOL    HW2 9557  10.068   6.474   5.242
 2554SOL     OW 9558  14.727   5.648   3.401
 2554SOL    HW1 9559  14.708   5.645   3.307
 2554SOL    HW2 9560  14.707   5.560   3.433
 2555SOL     OW 9561   1.239  14.114   6.446
 2555SOL    HW1 9562   1.309  14.149   6.500
 2555SOL    HW2 9563   1.282  14.051   6.388
 2556SOL     OW 9564   0.002   9.100   9.051
 2556SOL    HW1 9565  14.827   9.035   9.092
 2556SOL    HW2 9566  14.828   9.145   8.987
 2557SOL     OW 9567   0.071   2.868   4.629
 2557SOL    HW1 9568  14.861   2.845   4.620
 2557SOL    HW2 9569   0.072   2.939   4.694
 2558SOL     OW 9570   6.642  13.858   8.342
 2558SOL    HW1 9571   6.588  13.782   8.321
 2558SOL    HW2 9572   6.702  13.866   8.268
 2559SOL     OW 9573   2.343   1.853   6.228
 2559SOL    HW1 9574   2.263   1.830   6.181
 2559SOL    HW2 9575   2.413   1.810   6.178
 2560SOL     OW 9576   7.079   1.238   9.636
 2560SOL    HW1 9577   7.006   1.274   9.586
 2560SOL    HW2 9578   7.054   1.147   9.654
 2561SOL     OW 9579   5.707  11.486   6.609
 2561SOL    HW1 9580   5.742  11.398   6.593
 2561SOL    HW2 9581   5.785  11.541   6.620
 2562SOL     OW 9582  12.890   9.050  12.048
 2562SOL    HW1 9583  12.835   9.014  11.978
 2562SOL    HW2 9584  12.842   9.126  12.079
 2563SOL     OW 9585  13.796   2.219  10.205
 2563SOL    HW1 9586  13.792   2.305  10.164
 2563SOL    HW2 9587  13.888   2.209  10.231
 2564SOL     OW 9588  13.917   2.846   5.300
 2564SOL    HW1 9589  13.827   2.825   5.272
 2564SOL    HW2 9590  13.971   2.826   5.224
 2565SOL     OW 9591   5.437   9.115   2.102
 2565SOL    HW1 9592   5.472   9.032   2.133
 2565SOL    HW2 9593   5.380   9.145   2.173
 2566SOL     OW 9594  12.595   6.332   8.379
 2566SOL    HW1 9595  12.514   6.284   8.365
 2566SOL    HW2 9596  12.567   6.423   8.389
 2567SOL     OW 9597   1.198   5.953  10.354
 2567SOL    HW1 9598   1.158   5.945  10.267
 2567SOL    HW2 9599   1.259   5.879  10.359
 2568SOL     OW 9600  14.342   1.212   0.780
 2568SOL    HW1 9601  14.279   1.142   0.800
 2568SOL    HW2 9602  14.381   1.234   0.865
 2569SOL     OW 9603   2.902  12.695   3.054
 2569SOL    HW1 9604   2.916  12.669   3.145
 2569SOL    HW2 9605   2.944  12.626   3.003
 2570SOL     OW 9606   6.197   4.666   5.919
 2570SOL    HW1 9607   6.183   4.756   5.947
 2570SOL    HW2 9608   6.266   4.671   5.853
 2571SOL     OW 9609   8.827  11.025  13.420
 2571SOL    HW1 9610   8.921  11.043  13.425
 2571SOL    HW2 9611   8.816  10.972  13.341
 2572SOL     OW 9612   2.411   1.085   0.778
 2572SOL    HW1 9613   2.505   1.067   0.772
 2572SOL    HW2 9614   2.375   1.013   0.829
 2573SOL     OW 9615   1.474  12.352   9.389
 2573SOL    HW1 9616   1.498  12.307   9.470
 2573SOL    HW2 9617   1.423  12.288   9.340
 2574SOL     OW 9618   5.950   9.731  12.586
 2574SOL    HW1 9619   5.879   9.757  12.644
 2574SOL    HW2 9620   5.917   9.747  12.497
 2575SOL     OW 9621   1.912   9.876   5.611
 2575SOL    HW1 9622   1.858   9.807   5.571
 2575SOL    HW2 9623   1.855   9.953   5.611
 2576SOL     OW 9624   2.264   1.798   6.906
 2576SOL    HW1 9625   2.270   1.824   6.814
 2576SOL    HW2 9626   2.265   1.702   6.905
 2577SOL     OW 9627  11.354   5.069   5.528
 2577SOL    HW1 9628  11.372   5.154   5.488
 2577SOL    HW2 9629  11.259   5.065   5.535
 2578SOL     OW 9630   1.281   7.021   0.250
 2578SOL    HW1 9631   1.287   6.997   0.343
 2578SOL    HW2 9632   1.372   7.025   0.220
 2579SOL     OW 9633   7.798   1.940  13.551
 2579SOL    HW1 9634   7.850   1.938  13.632
 2579SOL    HW2 9635   7.786   1.848  13.529
 2580SOL     OW 9636  13.099   1.519  10.084
 2580SOL    HW1 9637  13.107   1.438  10.135
 2580SOL    HW2 9638  13.007   1.520  10.057
 2581SOL     OW 9639   3.046   5.317   8.192
 2581SOL    HW1 9640   3.051   5.223   8.175
 2581SOL    HW2 9641   2.954   5.333   8.213
 2582SOL     OW 9642   5.500   3.513   3.302
 2582SOL    HW1 9643   5.570   3.451   3.319
 2582SOL    HW2 9644   5.438   3.499   3.373
 2583SOL     OW 9645  13.758   1.694  13.198
 2583SOL    HW1 9646  13.681   1.660  13.244
 2583SOL    HW2 9647  13.785   1.622  13.140
 2584SOL     OW 9648   3.535   2.506   3.059
 2584SOL    HW1 9649   3.554   2.413   3.075
 2584SOL    HW2 9650   3.609   2.537   3.007
 2585SOL     OW 9651   5.278  14.564   8.276
 2585SOL    HW1 9652   5.270  14.536   8.185
 2585SOL    HW2 9653   5.350  14.627   8.276
 2586SOL     OW 9654  11.730   7.813   9.927
 2586SOL    HW1 9655  11.711   7.836   9.836
 2586SOL    HW2 9656  11.710   7.892   9.976
 2587SOL     OW 9657   4.816   6.706   5.422
 2587SOL    HW1 9658   4.855   6.625   5.389
 2587SOL    HW2 9659   4.855   6.718   5.509
 2588SOL     OW 9660   8.668   8.865   9.240
 2588SOL    HW1 9661   8.575   8.860   9.262
 2588SOL    HW2 9662   8.680   8.803   9.168
 2589SOL     OW 9663   7.061   9.148  11.802
 2589SOL    HW1 9664   7.134   9.089  11.784
 2589SOL    HW2 9665   7.078   9.181  11.891
 2590SOL     OW 9666   7.288  13.496   0.931
 2590SOL    HW1 9667   7.336  13.519   1.011
 2590SOL    HW2 9668   7.273  13.579   0.888
 2591SOL     OW 9669  13.746   4.504  13.750
 2591SOL    HW1 9670  13.706   4.546  13.674
 2591SOL    HW2 9671  13.737   4.410  13.733
 2592SOL     OW 9672  13.882   1.490  13.061
 2592SOL    HW1 9673  13.853   1.434  12.989
 2592SOL    HW2 9674  13.949   1.439  13.106
 2593SOL     OW 9675  12.683  12.623   2.122
 2593SOL    HW1 9676  12.754  12.559   2.124
 2593SOL    HW2 9677  12.605  12.572   2.101
 2594SOL     OW 9678  13.215   1.444   3.132
 2594SOL    HW1 9679  13.284   1.433   3.066
 2594SOL    HW2 9680  13.261   1.468   3.212
 2595SOL     OW 9681   2.729   4.503   6.700
 2595SOL    HW1 9682   2.769   4.457   6.625
 2595SOL    HW2 9683   2.691   4.434   6.753
 2596SOL     OW 9684  13.915   9.909   9.571
 2596SOL    HW1 9685  13.885   9.920   9.661
 2596SOL    HW2 9686  13.875   9.982   9.524
 2597SOL     OW 9687   1.134   0.064   0.550
 2597SOL    HW1 9688   1.049   0.105   0.532
 2597SOL    HW2 9689   1.194   0.137   0.565
 2598SOL     OW 9690   2.731   8.445   3.985
 2598SOL    HW1 9691   2.805   8.485   3.940
 2598SOL    HW2 9692   2.770   8.377   4.040
 2599SOL     OW 9693   3.634   3.627   8.253
 2599SOL    HW1 9694   3.547   3.662   8.269
 2599SOL    HW2 9695   3.674   3.621   8.340
 2600SOL     OW 9696   1.509   8.750   1.482
 2600SOL    HW1 9697   1.499   8.777   1.391
 2600SOL    HW2 9698   1.524   8.656   1.478
 2601SOL     OW 9699  10.726   8.867   0.403
 2601SOL    HW1 9700  10.778   8.848   0.481
 2601SOL    HW2 9701  10.784   8.846   0.330
 2602SOL     OW 9702  10.674   2.455   5.960
 2602SOL    HW1 9703  10.701   2.377   5.911
 2602SOL    HW2 9704  10.611   2.499   5.903
 2603SOL     OW 9705   3.983   4.524   3.877
 2603SOL    HW1 9706   3.999   4.618   3.884
 2603SOL    HW2 9707   4.061   4.483   3.914
 2604SOL     OW 9708   1.961  14.232   1.238
 2604SOL    HW1 9709   1.867  14.246   1.226
 2604SOL    HW2 9710   1.967  14.174   1.314
 2605SOL     OW 9711   6.262  14.613  10.342
 2605SOL    HW1 9712   6.355  14.622  10.363
 2605SOL    HW2 9713   6.220  14.687  10.385
 2606SOL     OW 9714   1.894   1.830  14.554
 2606SOL    HW1 9715   1.985   1.850  14.534
 2606SOL    HW2 9716   1.847   1.911  14.537
 2607SOL     OW 9717   5.965   2.968  11.109
 2607SOL    HW1 9718   6.038   2.993  11.166
 2607SOL    HW2 9719   5.969   3.029  11.036
 2608SOL     OW 9720   4.114  11.297   4.681
 2608SOL    HW1 9721   4.054  11.227   4.707
 2608SOL    HW2 9722   4.132  11.280   4.589
 2609SOL     OW 9723   3.842   0.026  14.244
 2609SOL    HW1 9724   3.782  14.859  14.300
 2609SOL    HW2 9725   3.920   0.037  14.298
 2610SOL     OW 9726   0.636   6.659  11.258
 2610SOL    HW1 9727   0.571   6.612  11.206
 2610SOL    HW2 9728   0.618   6.751  11.242
 2611SOL     OW 9729  14.349   2.307   0.327
 2611SOL    HW1 9730  14.352   2.215   0.354
 2611SOL    HW2 9731  14.287   2.348   0.387
 2612SOL     OW 9732  12.147   8.876   0.758
 2612SOL    HW1 9733  12.146   8.932   0.681
 2612SOL    HW2 9734  12.056   8.873   0.788
 2613SOL     OW 9735   6.768  11.430   9.420
 2613SOL    HW1 9736   6.702  11.368   9.392
 2613SOL    HW2 9737   6.847  11.407   9.370
 2614SOL     OW 9738   4.321   1.990  10.037
 2614SOL    HW1 9739   4.256   1.961   9.973
 2614SOL    HW2 9740   4.270   2.010  10.116
 2615SOL     OW 9741   7.965   7.071   9.316
 2615SOL    HW1 9742   7.897   7.135   9.296
 2615SOL    HW2 9743   8.008   7.105   9.394
 2616SOL     OW 9744   3.458   7.146   3.800
 2616SOL    HW1 9745   3.528   7.084   3.818
 2616SOL    HW2 9746   3.446   7.194   3.883
 2617SOL     OW 9747   1.048   4.858  12.844
 2617SOL    HW1 9748   1.022   4.770  12.814
 2617SOL    HW2 9749   1.004   4.918  12.783
 2618SOL     OW 9750   7.585   8.831  11.035
 2618SOL    HW1 9751   7.500   8.788  11.044
 2618SOL    HW2 9752   7.575   8.915  11.079
 2619SOL     OW 9753  11.006  10.217   8.803
 2619SOL    HW1 9754  11.073  10.156   8.834
 2619SOL    HW2 9755  10.929  10.198   8.857
 2620SOL     OW 9756   5.124   2.896   0.827
 2620SOL    HW1 9757   5.069   2.818   0.812
 2620SOL    HW2 9758   5.212   2.867   0.805
 2621SOL     OW 9759   3.400   8.051  14.598
 2621SOL    HW1 9760   3.367   8.141  14.593
 2621SOL    HW2 9761   3.326   8.000  14.629
 2622SOL     OW 9762  12.224   6.311   9.639
 2622SOL    HW1 9763  12.204   6.218   9.639
 2622SOL    HW2 9764  12.309   6.317   9.682
 2623SOL     OW 9765  13.300  10.640  14.095
 2623SOL    HW1 9766  13.289  10.650  14.189
 2623SOL    HW2 9767  13.265  10.721  14.057
 2624SOL     OW 9768   9.667   5.842  10.793
 2624SOL    HW1 9769   9.762   5.842  10.779
 2624SOL    HW2 9770   9.654   5.894  10.872
 2625SOL     OW 9771   0.512  11.433   9.305
 2625SOL    HW1 9772   0.516  11.352   9.254
 2625SOL    HW2 9773   0.427  11.471   9.281
 2626SOL     OW 9774   5.338   9.268   2.552
 2626SOL    HW1 9775   5.317   9.204   2.484
 2626SOL    HW2 9776   5.267   9.258   2.616
 2627SOL     OW 9777   4.386   2.858   0.848
 2627SOL    HW1 9778   4.367   2.951   0.865
 2627SOL    HW2 9779   4.310   2.826   0.801
 2628SOL     OW 9780   4.282   2.051  14.480
 2628SOL    HW1 9781   4.191   2.023  14.492
 2628SOL    HW2 9782   4.292   2.127  14.537
 2629SOL     OW 9783   5.991  11.183  11.692
 2629SOL    HW1 9784   6.065  11.135  11.654
 2629SOL    HW2 9785   5.931  11.114  11.721
 2630SOL     OW 9786   3.203  10.880  12.873
 2630SOL    HW1 9787   3.248  10.923  12.801
 2630SOL    HW2 9788   3.209  10.943  12.946
 2631SOL     OW 9789  11.769   4.535   2.700
 2631SOL    HW1 9790  11.762   4.474   2.773
 2631SOL    HW2 9791  11.863   4.541   2.682
 2632SOL     OW 9792   2.870   5.172   2.243
 2632SOL    HW1 9793   2.962   5.194   2.231
 2632SOL    HW2 9794   2.829   5.254   2.270
 2633SOL     OW 9795   9.279   9.733   0.910
 2633SOL    HW1 9796   9.326   9.688   0.840
 2633SOL    HW2 9797   9.251   9.816   0.870
 2634SOL     OW 9798   3.646  10.234  11.853
 2634SOL    HW1 9799   3.691  10.318  11.859
 2634SOL    HW2 9800   3.687  10.180  11.921
 2635SOL     OW 9801  13.275   5.297   9.995
 2635SOL    HW1 9802  13.192   5.306  10.041
 2635SOL    HW2 9803  13.339   5.338  10.054
 2636SOL     OW 9804  13.830  12.017  10.673
 2636SOL    HW1 9805  13.898  11.953  10.653
 2636SOL    HW2 9806  13.852  12.048  10.761
 2637SOL     OW 9807  12.903   3.844  10.095
 2637SOL    HW1 9808  12.927   3.796  10.175
 2637SOL    HW2 9809  12.811   3.823  10.081
 2638SOL     OW 9810  10.030  14.363   4.583
 2638SOL    HW1 9811   9.989  14.277   4.577
 2638SOL    HW2 9812   9.988  14.414   4.514
 2639SOL     OW 9813   2.642   5.419   7.195
 2639SOL    HW1 9814   2.737   5.417   7.183
 2639SOL    HW2 9815   2.607   5.371   7.120
 2640SOL     OW 9816   8.912  13.921   1.934
 2640SOL    HW1 9817   8.870  13.842   1.899
 2640SOL    HW2 9818   8.915  13.982   1.861
 2641SOL     OW 9819   4.494  14.576  14.351
 2641SOL    HW1 9820   4.406  14.614  14.350
 2641SOL    HW2 9821   4.528  14.592  14.263
 2642SOL     OW 9822   1.886   4.269  10.548
 2642SOL    HW1 9823   1.960   4.329  10.539
 2642SOL    HW2 9824   1.851   4.260  10.460
 2643SOL     OW 9825   0.161   8.663   8.112
 2643SOL    HW1 9826   0.226   8.660   8.041
 2643SOL    HW2 9827   0.090   8.717   8.076
 2644SOL     OW 9828   6.140   7.350   2.253
 2644SOL    HW1 9829   6.215   7.409   2.265
 2644SOL    HW2 9830   6.110   7.368   2.164
 2645SOL     OW 9831   2.138   9.870   5.157
 2645SOL    HW1 9832   2.065   9.928   5.180
 2645SOL    HW2 9833   2.134   9.865   5.062
 2646SOL     OW 9834  11.157   4.780  13.800
 2646SOL    HW1 9835  11.251   4.774  13.813
 2646SOL    HW2 9836  11.137   4.712  13.736
 2647SOL     OW 9837  13.487   2.427   8.462
 2647SOL    HW1 9838  13.560   2.487   8.451
 2647SOL    HW2 9839  13.526   2.347   8.498
 2648SOL     OW 9840   6.326   6.542   1.626
 2648SOL    HW1 9841   6.362   6.454   1.639
 2648SOL    HW2 9842   6.278   6.535   1.543
 2649SOL     OW 9843   3.659   4.570   0.390
 2649SOL    HW1 9844   3.583   4.529   0.431
 2649SOL    HW2 9845   3.687   4.507   0.324
 2650SOL     OW 9846   1.857   7.953   5.155
 2650SOL    HW1 9847   1.778   7.996   5.121
 2650SOL    HW2 9848   1.843   7.860   5.137
 2651SOL     OW 9849   3.233   0.898   9.641
 2651SOL    HW1 9850   3.163   0.958   9.664
 2651SOL    HW2 9851   3.196   0.841   9.573
 2652SOL     OW 9852   7.061   8.044   8.168
 2652SOL    HW1 9853   6.984   7.990   8.152
 2652SOL    HW2 9854   7.065   8.104   8.094
 2653SOL     OW 9855   9.150  14.266   4.869
 2653SOL    HW1 9856   9.212  14.218   4.815
 2653SOL    HW2 9857   9.195  14.278   4.952
 2654SOL     OW 9858   5.671   9.819   1.820
 2654SOL    HW1 9859   5.615   9.851   1.750
 2654SOL    HW2 9860   5.690   9.728   1.797
 2655SOL     OW 9861   6.240   0.233   0.512
 2655SOL    HW1 9862   6.310   0.171   0.490
 2655SOL    HW2 9863   6.210   0.266   0.427
 2656SOL     OW 9864   4.224  13.077   0.495
 2656SOL    HW1 9865   4.154  13.018   0.467
 2656SOL    HW2 9866   4.191  13.164   0.474
 2657SOL     OW 9867   4.966   6.653  13.927
 2657SOL    HW1 9868   4.938   6.578  13.875
 2657SOL    HW2 9869   4.907   6.724  13.902
 2658SOL     OW 9870   9.748  12.356  10.656
 2658SOL    HW1 9871   9.675  12.410  10.624
 2658SOL    HW2 9872   9.707  12.275  10.684
 2659SOL     OW 9873   1.542   8.396  11.800
 2659SOL    HW1 9874   1.455   8.382  11.839
 2659SOL    HW2 9875   1.603   8.362  11.865
 2660SOL     OW 9876  14.035  11.512   2.746
 2660SOL    HW1 9877  14.011  11.584   2.688
 2660SOL    HW2 9878  14.046  11.553   2.832
 2661SOL     OW 9879   5.409   6.492   5.442
 2661SOL    HW1 9880   5.388   6.426   5.508
 2661SOL    HW2 9881   5.368   6.572   5.476
 2662SOL     OW 9882   6.630   0.905   8.296
 2662SOL    HW1 9883   6.702   0.955   8.335
 2662SOL    HW2 9884   6.645   0.912   8.202
 2663SOL     OW 9885   3.045   6.100  12.466
 2663SOL    HW1 9886   3.134   6.107  12.502
 2663SOL    HW2 9887   3.017   6.012  12.492
 2664SOL     OW 9888   5.373  12.892  12.431
 2664SOL    HW1 9889   5.323  12.938  12.498
 2664SOL    HW2 9890   5.309  12.875  12.361
 2665SOL     OW 9891   3.831   0.756  13.128
 2665SOL    HW1 9892   3.839   0.762  13.223
 2665SOL    HW2 9893   3.772   0.827  13.104
 2666SOL     OW 9894   6.726  11.897  12.728
 2666SOL    HW1 9895   6.696  11.868  12.642
 2666SOL    HW2 9896   6.816  11.928  12.714
 2667SOL     OW 9897   3.038  10.545  10.168
 2667SOL    HW1 9898   3.105  10.533  10.102
 2667SOL    HW2 9899   3.080  10.521  10.250
 2668SOL     OW 9900   6.551  11.878   8.944
 2668SOL    HW1 9901   6.615  11.821   8.901
 2668SOL    HW2 9902   6.603  11.936   8.999
 2669SOL     OW 9903  11.281  10.441  11.634
 2669SOL    HW1 9904  11.261  10.379  11.705
 2669SOL    HW2 9905  11.269  10.527  11.674
 2670SOL     OW 9906  11.168   2.098  14.739
 2670SOL    HW1 9907  11.099   2.090  14.805
 2670SOL    HW2 9908  11.161   2.017  14.687
 2671SOL     OW 9909  13.429   9.214  11.129
 2671SOL    HW1 9910  13.385   9.210  11.214
 2671SOL    HW2 9911  13.365   9.178  11.068
 2672SOL     OW 9912   5.888   8.417   2.573
 2672SOL    HW1 9913   5.973   8.427   2.615
 2672SOL    HW2 9914   5.871   8.323   2.574
 2673SOL     OW 9915  10.842   8.493  14.499
 2673SOL    HW1 9916  10.777   8.513  14.432
 2673SOL    HW2 9917  10.791   8.460  14.573
 2674SOL     OW 9918   4.591  11.213   9.780
 2674SOL    HW1 9919   4.609  11.215   9.686
 2674SOL    HW2 9920   4.579  11.121   9.800
 2675SOL     OW 9921   4.518  11.439   1.538
 2675SOL    HW1 9922   4.434  11.481   1.556
 2675SOL    HW2 9923   4.583  11.507   1.558
 2676SOL     OW 9924  12.728  11.063   5.946
 2676SOL    HW1 9925  12.692  11.114   6.018
 2676SOL    HW2 9926  12.653  11.045   5.889
 2677SOL     OW 9927   3.581   9.268   5.495
 2677SOL    HW1 9928   3.545   9.320   5.423
 2677SOL    HW2 9929   3.544   9.180   5.481
 2678SOL     OW 9930   0.276  12.050  11.313
 2678SOL    HW1 9931   0.252  12.142  11.313
 2678SOL    HW2 9932   0.278  12.025  11.406
 2679SOL     OW 9933   7.729   7.568  14.174
 2679SOL    HW1 9934   7.805   7.579  14.117
 2679SOL    HW2 9935   7.737   7.638  14.239
 2680SOL     OW 9936   2.926   3.457   5.182
 2680SOL    HW1 9937   3.010   3.411   5.183
 2680SOL    HW2 9938   2.936   3.526   5.247
 2681SOL     OW 9939  12.859  11.433   9.064
 2681SOL    HW1 9940  12.806  11.369   9.015
 2681SOL    HW2 9941  12.929  11.458   9.003
 2682SOL     OW 9942   5.429  11.412  13.774
 2682SOL    HW1 9943   5.435  11.399  13.680
 2682SOL    HW2 9944   5.395  11.329  13.808
 2683SOL     OW 9945   5.262   3.938   4.784
 2683SOL    HW1 9946   5.215   3.876   4.839
 2683SOL    HW2 9947   5.287   3.888   4.706
 2684SOL     OW 9948   4.213   3.820   1.748
 2684SOL    HW1 9949   4.291   3.870   1.772
 2684SOL    HW2 9950   4.207   3.830   1.653
 2685SOL     OW 9951   7.678   2.519   7.560
 2685SOL    HW1 9952   7.635   2.496   7.642
 2685SOL    HW2 9953   7.708   2.436   7.524
 2686SOL     OW 9954   9.124  10.600   3.509
 2686SOL    HW1 9955   9.135  10.572   3.600
 2686SOL    HW2 9956   9.062  10.538   3.472
 2687SOL     OW 9957   6.065  13.594   4.697
 2687SOL    HW1 9958   5.985  13.622   4.741
 2687SOL    HW2 9959   6.061  13.635   4.611
 2688SOL     OW 9960  12.600  12.504  13.924
 2688SOL    HW1 9961  12.542  12.481  13.997
 2688SOL    HW2 9962  12.629  12.420  13.888
 2689SOL     OW 9963   8.704   2.759   6.472
 2689SOL    HW1 9964   8.673   2.713   6.550
 2689SOL    HW2 9965   8.748   2.691   6.420
 2690SOL     OW 9966   1.954  11.004   9.299
 2690SOL    HW1 9967   1.929  11.087   9.341
 2690SOL    HW2 9968   1.878  10.980   9.247
 2691SOL     OW 9969   3.697  13.750   9.852
 2691SOL    HW1 9970   3.671  13.807   9.924
 2691SOL    HW2 9971   3.617  13.702   9.829
 2692SOL     OW 9972   1.427  10.016   3.797
 2692SOL    HW1 9973   1.386  10.046   3.716
 2692SOL    HW2 9974   1.473   9.936   3.772
 2693SOL     OW 9975   4.919   2.748   0.378
 2693SOL    HW1 9976   4.874   2.812   0.434
 2693SOL    HW2 9977   5.011   2.774   0.383
 2694SOL     OW 9978  10.334   1.108   7.962
 2694SOL    HW1 9979  10.339   1.200   7.990
 2694SOL    HW2 9980  10.274   1.067   8.025
 2695SOL     OW 9981   1.341   1.066  13.204
 2695SOL    HW1 9982   1.394   1.056  13.283
 2695SOL    HW2 9983   1.366   1.151  13.168
 2696SOL     OW 9984   4.098  12.101  10.820
 2696SOL    HW1 9985   4.125  12.155  10.746
 2696SOL    HW2 9986   4.159  12.027  10.819
 2697SOL     OW 9987  11.322   5.006  14.532
 2697SOL    HW1 9988  11.355   5.007  14.622
 2697SOL    HW2 9989  11.357   4.925  14.494
 2698SOL     OW 9990   3.830  10.118   8.538
 2698SOL    HW1 9991   3.840  10.115   8.633
 2698SOL    HW2 9992   3.738  10.098   8.523
 2699SOL     OW 9993  12.646   3.415   9.477
 2699SOL    HW1 9994  12.699   3.419   9.556
 2699SOL    HW2 9995  12.646   3.505   9.443
 2700SOL     OW 9996  12.116   7.297   0.936
 2700SOL    HW1 9997  12.171   7.295   0.858
 2700SOL    HW2 9998  12.173   7.268   1.007
 2701SOL     OW 9999  12.375  12.366   8.133
 2701SOL    HW110000  12.426  12.446   8.127
 2701SOL    HW210001  12.384  12.338   8.224
 2702SOL     OW10002   0.996   8.871   3.675
 2702SOL    HW110003   1.084   8.863   3.711
 2702SOL    HW210004   0.961   8.781   3.676
 2703SOL     OW10005   4.271   5.399   9.366
 2703SOL    HW110006   4.279   5.325   9.426
 2703SOL    HW210007   4.255   5.358   9.281
 2704SOL     OW10008   3.804   5.507   3.567
 2704SOL    HW110009   3.740   5.576   3.585
 2704SOL    HW210010   3.752   5.433   3.536
 2705SOL     OW10011  14.505  10.509  14.473
 2705SOL    HW110012  14.563  10.570  14.427
 2705SOL    HW210013  14.421  10.556  14.479
 2706SOL     OW10014  13.171   0.038   9.817
 2706SOL    HW110015  13.204   0.116   9.862
 2706SOL    HW210016  13.220  14.848   9.855
 2707SOL     OW10017   0.542   0.858   4.154
 2707SOL    HW110018   0.574   0.770   4.175
 2707SOL    HW210019   0.495   0.885   4.234
 2708SOL     OW10020  13.911   8.139  13.299
 2708SOL    HW110021  13.992   8.093  13.277
 2708SOL    HW210022  13.850   8.115  13.230
 2709SOL     OW10023   8.301   4.471  13.723
 2709SOL    HW110024   8.296   4.377  13.704
 2709SOL    HW210025   8.266   4.479  13.812
 2710SOL     OW10026   8.961  10.926   0.483
 2710SOL    HW110027   8.924  11.005   0.523
 2710SOL    HW210028   8.986  10.871   0.558
 2711SOL     OW10029  10.130  11.921  13.744
 2711SOL    HW110030  10.157  11.944  13.832
 2711SOL    HW210031  10.063  11.853  13.755
 2712SOL     OW10032   8.023  10.009   8.103
 2712SOL    HW110033   7.934  10.023   8.135
 2712SOL    HW210034   8.055   9.933   8.151
 2713SOL     OW10035  11.344   2.363   7.188
 2713SOL    HW110036  11.260   2.368   7.142
 2713SOL    HW210037  11.409   2.387   7.122
 2714SOL     OW10038   2.674  10.749   1.755
 2714SOL    HW110039   2.651  10.761   1.847
 2714SOL    HW210040   2.590  10.754   1.709
 2715SOL     OW10041  12.424  10.108   3.102
 2715SOL    HW110042  12.363  10.183   3.103
 2715SOL    HW210043  12.443  10.094   3.010
 2716SOL     OW10044  10.022   6.350   4.120
 2716SOL    HW110045  10.035   6.331   4.027
 2716SOL    HW210046  10.106   6.332   4.161
 2717SOL     OW10047   2.123   8.831   5.640
 2717SOL    HW110048   2.150   8.746   5.606
 2717SOL    HW210049   2.045   8.853   5.589
 2718SOL     OW10050  11.526   6.716   9.939
 2718SOL    HW110051  11.482   6.656   9.879
 2718SOL    HW210052  11.454   6.763   9.981
 2719SOL     OW10053   4.480  14.472  11.467
 2719SOL    HW110054   4.545  14.426  11.415
 2719SOL    HW210055   4.477  14.560  11.429
 2720SOL     OW10056   3.489   1.283   9.094
 2720SOL    HW110057   3.408   1.334   9.103
 2720SOL    HW210058   3.490   1.254   9.003
 2721SOL     OW10059  11.695   9.207   8.469
 2721SOL    HW110060  11.785   9.217   8.439
 2721SOL    HW210061  11.661   9.296   8.475
 2722SOL     OW10062   7.239  14.645  12.239
 2722SOL    HW110063   7.294  14.721  12.223
 2722SOL    HW210064   7.151  14.672  12.214
 2723SOL     OW10065   4.102   0.790   4.397
 2723SOL    HW110066   4.105   0.840   4.478
 2723SOL    HW210067   4.013   0.757   4.392
 2724SOL     OW10068   2.629   9.954   7.354
 2724SOL    HW110069   2.617   9.887   7.287
 2724SOL    HW210070   2.616   9.907   7.437
 2725SOL     OW10071  11.626   9.447   4.710
 2725SOL    HW110072  11.540   9.424   4.673
 2725SOL    HW210073  11.606   9.496   4.789
 2726SOL     OW10074  12.885   3.387  12.680
 2726SOL    HW110075  12.797   3.355  12.698
 2726SOL    HW210076  12.879   3.432  12.596
 2727SOL     OW10077  13.752   2.730   1.251
 2727SOL    HW110078  13.812   2.798   1.281
 2727SOL    HW210079  13.697   2.775   1.186
 2728SOL     OW10080  12.885   8.696  12.701
 2728SOL    HW110081  12.851   8.723  12.616
 2728SOL    HW210082  12.965   8.749  12.712
 2729SOL     OW10083   3.838   3.309   2.066
 2729SOL    HW110084   3.746   3.299   2.042
 2729SOL    HW210085   3.886   3.263   1.997
 2730SOL     OW10086   9.621  11.220   3.851
 2730SOL    HW110087   9.571  11.238   3.771
 2730SOL    HW210088   9.693  11.164   3.823
 2731SOL     OW10089  12.509   8.266   7.278
 2731SOL    HW110090  12.593   8.302   7.252
 2731SOL    HW210091  12.525   8.172   7.288
 2732SOL     OW10092  12.914   1.955  14.325
 2732SOL    HW110093  12.936   2.030  14.381
 2732SOL    HW210094  12.877   1.891  14.385
 2733SOL     OW10095  10.775   9.949   2.939
 2733SOL    HW110096  10.702   9.942   3.000
 2733SOL    HW210097  10.841   9.999   2.987
 2734SOL     OW10098   2.870   5.972   7.574
 2734SOL    HW110099   2.843   5.896   7.626
 2734SOL    HW210100   2.829   5.958   7.489
 2735SOL     OW10101   6.881   0.629   1.710
 2735SOL    HW110102   6.822   0.681   1.656
 2735SOL    HW210103   6.962   0.681   1.713
 2736SOL     OW10104   0.107   7.298   8.252
 2736SOL    HW110105   0.171   7.228   8.242
 2736SOL    HW210106   0.129   7.360   8.183
 2737SOL     OW10107   7.423   8.539   7.485
 2737SOL    HW110108   7.413   8.614   7.544
 2737SOL    HW210109   7.361   8.474   7.519
 2738SOL     OW10110   6.524   6.888  11.141
 2738SOL    HW110111   6.461   6.838  11.089
 2738SOL    HW210112   6.554   6.826  11.207
 2739SOL     OW10113   2.698   6.038   9.124
 2739SOL    HW110114   2.638   5.976   9.084
 2739SOL    HW210115   2.751   6.071   9.051
 2740SOL     OW10116   2.842   7.500   2.110
 2740SOL    HW110117   2.814   7.591   2.121
 2740SOL    HW210118   2.765   7.448   2.134
 2741SOL     OW10119   6.598   6.504   0.403
 2741SOL    HW110120   6.672   6.502   0.464
 2741SOL    HW210121   6.585   6.413   0.378
 2742SOL     OW10122   8.931  11.183   1.694
 2742SOL    HW110123   8.857  11.151   1.745
 2742SOL    HW210124   8.962  11.106   1.645
 2743SOL     OW10125   5.896   2.713   0.794
 2743SOL    HW110126   5.903   2.641   0.730
 2743SOL    HW210127   5.808   2.704   0.831
 2744SOL     OW10128  13.977   6.043   1.841
 2744SOL    HW110129  13.970   5.956   1.880
 2744SOL    HW210130  13.891   6.058   1.801
 2745SOL     OW10131  12.287  14.402   2.551
 2745SOL    HW110132  12.284  14.430   2.460
 2745SOL    HW210133  12.378  14.417   2.578
 2746SOL     OW10134   3.309   9.985   0.570
 2746SOL    HW110135   3.334  10.002   0.479
 2746SOL    HW210136   3.214   9.994   0.571
 2747SOL     OW10137   6.826  13.014   5.790
 2747SOL    HW110138   6.880  13.071   5.844
 2747SOL    HW210139   6.739  13.053   5.793
 2748SOL     OW10140  13.745   7.779   7.638
 2748SOL    HW110141  13.702   7.814   7.716
 2748SOL    HW210142  13.728   7.844   7.570
 2749SOL     OW10143   0.610   4.426   5.080
 2749SOL    HW110144   0.552   4.366   5.127
 2749SOL    HW210145   0.695   4.383   5.082
 2750SOL     OW10146   2.910   1.860   2.508
 2750SOL    HW110147   2.972   1.872   2.436
 2750SOL    HW210148   2.835   1.816   2.469
 2751SOL     OW10149  11.155   4.148   1.132
 2751SOL    HW110150  11.138   4.229   1.180
 2751SOL    HW210151  11.073   4.130   1.085
 2752SOL     OW10152   4.050   0.899   3.006
 2752SOL    HW110153   4.038   0.805   3.015
 2752SOL    HW210154   4.101   0.910   2.926
 2753SOL     OW10155  13.813   0.213   6.284
 2753SOL    HW110156  13.835   0.306   6.276
 2753SOL    HW210157  13.742   0.211   6.348
 2754SOL     OW10158   8.421  13.246   2.910
 2754SOL    HW110159   8.393  13.279   2.825
 2754SOL    HW210160   8.407  13.319   2.970
 2755SOL     OW10161   5.746   2.588   8.251
 2755SOL    HW110162   5.794   2.644   8.190
 2755SOL    HW210163   5.717   2.514   8.197
 2756SOL     OW10164   7.305  12.865   7.566
 2756SOL    HW110165   7.315  12.910   7.482
 2756SOL    HW210166   7.337  12.928   7.631
 2757SOL     OW10167   8.878  14.266   1.921
 2757SOL    HW110168   8.881  14.207   1.845
 2757SOL    HW210169   8.970  14.276   1.947
 2758SOL     OW10170   0.531   1.392  10.203
 2758SOL    HW110171   0.481   1.429  10.275
 2758SOL    HW210172   0.538   1.299  10.224
 2759SOL     OW10173   3.351  14.557   8.819
 2759SOL    HW110174   3.435  14.512   8.815
 2759SOL    HW210175   3.286  14.486   8.822
 2760SOL     OW10176   0.757   1.392   8.404
 2760SOL    HW110177   0.831   1.445   8.375
 2760SOL    HW210178   0.708   1.450   8.462
 2761SOL     OW10179   3.315   3.173  14.071
 2761SOL    HW110180   3.236   3.210  14.110
 2761SOL    HW210181   3.285   3.093  14.028
 2762SOL     OW10182  14.095   9.726  11.579
 2762SOL    HW110183  14.185   9.759  11.575
 2762SOL    HW210184  14.086   9.670  11.502
 2763SOL     OW10185   6.380   3.613   0.842
 2763SOL    HW110186   6.364   3.705   0.864
 2763SOL    HW210187   6.370   3.566   0.925
 2764SOL     OW10188   2.236   2.505   0.174
 2764SOL    HW110189   2.171   2.504   0.103
 2764SOL    HW210190   2.238   2.596   0.203
 2765SOL     OW10191   4.490  10.061   4.357
 2765SOL    HW110192   4.463  10.121   4.288
 2765SOL    HW210193   4.443   9.980   4.339
 2766SOL     OW10194  14.402  12.514  12.412
 2766SOL    HW110195  14.392  12.456  12.487
 2766SOL    HW210196  14.467  12.470  12.357
 2767SOL     OW10197   3.109   5.222  14.318
 2767SOL    HW110198   3.117   5.177  14.402
 2767SOL    HW210199   3.174   5.180  14.262
 2768SOL     OW10200  14.574  10.782   5.576
 2768SOL    HW110201  14.542  10.693   5.562
 2768SOL    HW210202  14.495  10.834   5.589
 2769SOL     OW10203   4.965   6.681  14.216
 2769SOL    HW110204   4.952   6.675  14.121
 2769SOL    HW210205   5.060   6.683  14.226
 2770SOL     OW10206  11.008   4.699   0.037
 2770SOL    HW110207  11.015   4.734   0.126
 2770SOL    HW210208  11.037   4.770  14.863
 2771SOL     OW10209   0.833   7.720  11.278
 2771SOL    HW110210   0.915   7.704  11.326
 2771SOL    HW210211   0.838   7.660  11.203
 2772SOL     OW10212   6.815  14.738  12.259
 2772SOL    HW110213   6.880  14.743  12.188
 2772SOL    HW210214   6.735  14.710  12.215
 2773SOL     OW10215  14.091  11.527   7.996
 2773SOL    HW110216  14.071  11.539   8.089
 2773SOL    HW210217  14.157  11.593   7.977
 2774SOL     OW10218   6.915   8.734  12.807
 2774SOL    HW110219   6.997   8.746  12.759
 2774SOL    HW210220   6.852   8.790  12.762
 2775SOL     OW10221   2.538  10.162   3.436
 2775SOL    HW110222   2.591  10.239   3.417
 2775SOL    HW210223   2.480  10.152   3.361
 2776SOL     OW10224   0.843   8.387  14.776
 2776SOL    HW110225   0.920   8.436  14.804
 2776SOL    HW210226   0.829   8.412  14.685
 2777SOL     OW10227   1.175   2.755  11.944
 2777SOL    HW110228   1.178   2.705  12.026
 2777SOL    HW210229   1.196   2.845  11.970
 2778SOL     OW10230  14.830   7.648  10.762
 2778SOL    HW110231  14.796   7.615  10.845
 2778SOL    HW210232   0.011   7.715  10.787
 2779SOL     OW10233  11.335   4.250   6.223
 2779SOL    HW110234  11.268   4.275   6.160
 2779SOL    HW210235  11.320   4.308   6.298
 2780SOL     OW10236   7.594   2.058   6.215
 2780SOL    HW110237   7.679   2.103   6.214
 2780SOL    HW210238   7.566   2.063   6.307
 2781SOL     OW10239  10.971   7.043  14.796
 2781SOL    HW110240  10.901   7.072  14.854
 2781SOL    HW210241  10.936   7.055  14.708
 2782SOL     OW10242   2.860  11.886  11.631
 2782SOL    HW110243   2.875  11.799  11.595
 2782SOL    HW210244   2.773  11.881  11.671
 2783SOL     OW10245   9.094   0.939  10.670
 2783SOL    HW110246   9.075   0.849  10.645
 2783SOL    HW210247   9.157   0.932  10.741
 2784SOL     OW10248   3.549   6.285   8.360
 2784SOL    HW110249   3.554   6.366   8.309
 2784SOL    HW210250   3.620   6.292   8.424
 2785SOL     OW10251   6.155   0.501   2.269
 2785SOL    HW110252   6.193   0.575   2.316
 2785SOL    HW210253   6.065   0.528   2.249
 2786SOL     OW10254   2.303   4.245  14.782
 2786SOL    HW110255   2.339   4.194  14.854
 2786SOL    HW210256   2.338   4.203  14.703
 2787SOL     OW10257   0.600   7.762  11.826
 2787SOL    HW110258   0.546   7.840  11.817
 2787SOL    HW210259   0.566   7.718  11.904
 2788SOL     OW10260   1.382   3.108  10.589
 2788SOL    HW110261   1.333   3.052  10.649
 2788SOL    HW210262   1.369   3.197  10.623
 2789SOL     OW10263   6.939   2.339  10.636
 2789SOL    HW110264   6.903   2.250  10.630
 2789SOL    HW210265   7.028   2.326  10.669
 2790SOL     OW10266   1.543   4.135  12.531
 2790SOL    HW110267   1.512   4.225  12.539
 2790SOL    HW210268   1.583   4.131  12.444
 2791SOL     OW10269   0.576   3.238   3.539
 2791SOL    HW110270   0.522   3.241   3.460
 2791SOL    HW210271   0.587   3.329   3.565
 2792SOL     OW10272   0.272  12.700   9.256
 2792SOL    HW110273   0.275  12.699   9.351
 2792SOL    HW210274   0.310  12.784   9.231
 2793SOL     OW10275   1.598   2.510   1.366
 2793SOL    HW110276   1.581   2.569   1.292
 2793SOL    HW210277   1.642   2.435   1.326
 2794SOL     OW10278  13.059   6.028  10.287
 2794SOL    HW110279  13.115   5.995  10.217
 2794SOL    HW210280  13.050   6.121  10.269
 2795SOL     OW10281   2.299  11.718   8.960
 2795SOL    HW110282   2.345  11.643   8.923
 2795SOL    HW210283   2.327  11.721   9.051
 2796SOL     OW10284  12.029   9.841   8.602
 2796SOL    HW110285  12.074   9.884   8.530
 2796SOL    HW210286  12.022   9.908   8.670
 2797SOL     OW10287   1.794  14.725  10.601
 2797SOL    HW110288   1.814  14.761  10.688
 2797SOL    HW210289   1.880  14.713  10.560
 2798SOL     OW10290   8.077  12.328  13.640
 2798SOL    HW110291   8.138  12.331  13.714
 2798SOL    HW210292   8.006  12.387  13.665
 2799SOL     OW10293  10.704  13.305  14.516
 2799SOL    HW110294  10.632  13.303  14.453
 2799SOL    HW210295  10.782  13.284  14.464
 2800SOL     OW10296  12.933  14.440   5.248
 2800SOL    HW110297  13.018  14.483   5.259
 2800SOL    HW210298  12.870  14.512   5.244
 2801SOL     OW10299   8.564  11.565  11.938
 2801SOL    HW110300   8.557  11.584  12.032
 2801SOL    HW210301   8.648  11.520  11.930
 2802SOL     OW10302   5.092   7.805  12.658
 2802SOL    HW110303   5.128   7.893  12.646
 2802SOL    HW210304   5.006   7.808  12.617
 2803SOL     OW10305   3.315   7.975   8.129
 2803SOL    HW110306   3.281   7.895   8.090
 2803SOL    HW210307   3.271   8.046   8.082
 2804SOL     OW10308   4.456   4.691   8.009
 2804SOL    HW110309   4.543   4.711   8.043
 2804SOL    HW210310   4.472   4.638   7.931
 2805SOL     OW10311  14.591  10.020   6.144
 2805SOL    HW110312  14.588   9.953   6.212
 2805SOL    HW210313  14.606  10.102   6.192
 2806SOL     OW10314   7.942   7.970  11.911
 2806SOL    HW110315   7.949   7.917  11.991
 2806SOL    HW210316   7.858   7.946  11.873
 2807SOL     OW10317   2.393   1.199   9.455
 2807SOL    HW110318   2.308   1.185   9.498
 2807SOL    HW210319   2.371   1.234   9.369
 2808SOL     OW10320   3.891   6.885   5.023
 2808SOL    HW110321   3.848   6.806   5.056
 2808SOL    HW210322   3.889   6.876   4.928
 2809SOL     OW10323  12.652  12.780  11.648
 2809SOL    HW110324  12.559  12.760  11.642
 2809SOL    HW210325  12.696  12.702  11.615
 2810SOL     OW10326   2.054   8.270  13.597
 2810SOL    HW110327   2.064   8.201  13.663
 2810SOL    HW210328   1.973   8.315  13.620
 2811SOL     OW10329   0.218  10.657   7.582
 2811SOL    HW110330   0.163  10.696   7.513
 2811SOL    HW210331   0.272  10.593   7.536
 2812SOL     OW10332  14.135   3.290   4.798
 2812SOL    HW110333  14.075   3.309   4.870
 2812SOL    HW210334  14.123   3.364   4.737
 2813SOL     OW10335   9.379  11.072   6.521
 2813SOL    HW110336   9.373  10.988   6.566
 2813SOL    HW210337   9.448  11.120   6.568
 2814SOL     OW10338  14.526   2.251  11.771
 2814SOL    HW110339  14.564   2.218  11.690
 2814SOL    HW210340  14.437   2.216  11.772
 2815SOL     OW10341  13.003   2.088   1.806
 2815SOL    HW110342  12.944   2.155   1.841
 2815SOL    HW210343  13.088   2.131   1.801
 2816SOL     OW10344   4.097   0.356   1.324
 2816SOL    HW110345   4.137   0.301   1.392
 2816SOL    HW210346   4.003   0.352   1.343
 2817SOL     OW10347  13.741   1.394   2.985
 2817SOL    HW110348  13.787   1.471   2.953
 2817SOL    HW210349  13.774   1.322   2.931
 2818SOL     OW10350   8.929  10.901  11.892
 2818SOL    HW110351   8.864  10.876  11.826
 2818SOL    HW210352   9.013  10.893  11.847
 2819SOL     OW10353   1.554   8.461   5.655
 2819SOL    HW110354   1.631   8.405   5.645
 2819SOL    HW210355   1.586   8.539   5.700
 2820SOL     OW10356  10.427   4.038   4.211
 2820SOL    HW110357  10.480   4.105   4.254
 2820SOL    HW210358  10.395   4.081   4.132
 2821SOL     OW10359   0.689   5.305   3.331
 2821SOL    HW110360   0.615   5.246   3.346
 2821SOL    HW210361   0.705   5.300   3.236
 2822SOL     OW10362   9.530   1.330   4.715
 2822SOL    HW110363   9.476   1.348   4.793
 2822SOL    HW210364   9.619   1.347   4.743
 2823SOL     OW10365   0.253   5.558  11.665
 2823SOL    HW110366   0.347   5.541  11.653
 2823SOL    HW210367   0.249   5.610  11.746
 2824SOL     OW10368   5.935   8.666   3.162
 2824SOL    HW110369   5.972   8.744   3.202
 2824SOL    HW210370   5.941   8.682   3.068
 2825SOL     OW10371   8.839   2.598   3.603
 2825SOL    HW110372   8.815   2.528   3.541
 2825SOL    HW210373   8.777   2.587   3.676
 2826SOL     OW10374  12.684   9.876   0.181
 2826SOL    HW110375  12.748   9.860   0.249
 2826SOL    HW210376  12.692   9.800   0.122
 2827SOL     OW10377   8.233   7.884   5.200
 2827SOL    HW110378   8.208   7.942   5.273
 2827SOL    HW210379   8.316   7.845   5.228
 2828SOL     OW10380  14.485   8.996  12.738
 2828SOL    HW110381  14.556   9.031  12.684
 2828SOL    HW210382  14.458   8.916  12.694
 2829SOL     OW10383  10.185   2.702   1.232
 2829SOL    HW110384  10.126   2.724   1.161
 2829SOL    HW210385  10.147   2.744   1.309
 2830SOL     OW10386  12.728   0.209  10.013
 2830SOL    HW110387  12.702   0.291  10.056
 2830SOL    HW210388  12.799   0.176  10.068
 2831SOL     OW10389   9.863   3.533  12.153
 2831SOL    HW110390   9.838   3.491  12.235
 2831SOL    HW210391   9.786   3.524  12.097
 2832SOL     OW10392   4.471   3.520  11.374
 2832SOL    HW110393   4.507   3.436  11.403
 2832SOL    HW210394   4.477   3.517  11.278
 2833SOL     OW10395   7.451   0.916   1.423
 2833SOL    HW110396   7.538   0.940   1.392
 2833SOL    HW210397   7.404   0.889   1.345
 2834SOL     OW10398   3.238   1.166   1.095
 2834SOL    HW110399   3.188   1.125   1.165
 2834SOL    HW210400   3.249   1.097   1.030
 2835SOL     OW10401  11.862   4.785  12.847
 2835SOL    HW110402  11.869   4.880  12.838
 2835SOL    HW210403  11.879   4.752  12.759
 2836SOL     OW10404   4.290   0.832   3.817
 2836SOL    HW110405   4.357   0.789   3.764
 2836SOL    HW210406   4.223   0.765   3.829
 2837SOL     OW10407   0.096   3.017   0.252
 2837SOL    HW110408   0.084   3.080   0.323
 2837SOL    HW210409   0.112   3.071   0.174
 2838SOL     OW10410  12.157  12.054   2.782
 2838SOL    HW110411  12.199  12.139   2.800
 2838SOL    HW210412  12.225  12.004   2.736
 2839SOL     OW10413   2.060   2.753  14.623
 2839SOL    HW110414   2.098   2.688  14.682
 2839SOL    HW210415   2.112   2.832  14.640
 2840SOL     OW10416  14.484   3.300  12.101
 2840SOL    HW110417  14.402   3.340  12.071
 2840SOL    HW210418  14.549   3.329  12.038
 2841SOL     OW10419  11.940   7.972   3.381
 2841SOL    HW110420  12.020   8.024   3.372
 2841SOL    HW210421  11.880   8.007   3.315
 2842SOL     OW10422  13.912   6.488   2.123
 2842SOL    HW110423  13.966   6.430   2.069
 2842SOL    HW210424  13.959   6.494   2.207
 2843SOL     OW10425   9.027  10.427   2.996
 2843SOL    HW110426   9.113  10.432   2.952
 2843SOL    HW210427   8.964  10.445   2.926
 2844SOL     OW10428  13.196  13.511   3.334
 2844SOL    HW110429  13.286  13.534   3.312
 2844SOL    HW210430  13.201  13.471   3.420
 2845SOL     OW10431   8.297   0.815   6.841
 2845SOL    HW110432   8.359   0.823   6.770
 2845SOL    HW210433   8.322   0.884   6.902
 2846SOL     OW10434   7.129   3.920   7.632
 2846SOL    HW110435   7.148   3.919   7.538
 2846SOL    HW210436   7.033   3.928   7.636
 2847SOL     OW10437   5.180   6.626  13.234
 2847SOL    HW110438   5.239   6.692  13.272
 2847SOL    HW210439   5.234   6.548  13.226
 2848SOL     OW10440   7.462   1.625  14.601
 2848SOL    HW110441   7.451   1.567  14.526
 2848SOL    HW210442   7.545   1.599  14.640
 2849SOL     OW10443   5.350   9.692   7.238
 2849SOL    HW110444   5.370   9.662   7.326
 2849SOL    HW210445   5.257   9.717   7.242
 2850SOL     OW10446   0.696  12.018  14.406
 2850SOL    HW110447   0.720  12.079  14.476
 2850SOL    HW210448   0.729  11.934  14.436
 2851SOL     OW10449   6.771   3.700   3.004
 2851SOL    HW110450   6.737   3.764   2.941
 2851SOL    HW210451   6.865   3.716   3.006
 2852SOL     OW10452  13.172   7.216   4.357
 2852SOL    HW110453  13.168   7.308   4.330
 2852SOL    HW210454  13.262   7.203   4.386
 2853SOL     OW10455   9.219  14.447  14.251
 2853SOL    HW110456   9.294  14.427  14.196
 2853SOL    HW210457   9.156  14.489  14.192
 2854SOL     OW10458   8.283   9.618   9.600
 2854SOL    HW110459   8.346   9.689   9.590
 2854SOL    HW210460   8.198   9.661   9.603
 2855SOL     OW10461  11.109  10.564   3.557
 2855SOL    HW110462  11.088  10.473   3.537
 2855SOL    HW210463  11.026  10.611   3.549
 2856SOL     OW10464   2.178   9.978   3.105
 2856SOL    HW110465   2.115  10.035   3.061
 2856SOL    HW210466   2.186   9.902   3.047
 2857SOL     OW10467  12.566  10.539  12.521
 2857SOL    HW110468  12.611  10.499  12.596
 2857SOL    HW210469  12.632  10.538  12.451
 2858SOL     OW10470   8.705  11.424   9.727
 2858SOL    HW110471   8.773  11.453   9.788
 2858SOL    HW210472   8.720  11.478   9.649
 2859SOL     OW10473  11.737   2.881   7.962
 2859SOL    HW110474  11.718   2.788   7.951
 2859SOL    HW210475  11.806   2.883   8.029
 2860SOL     OW10476   7.902   0.900   4.331
 2860SOL    HW110477   7.917   0.935   4.419
 2860SOL    HW210478   7.859   0.816   4.347
 2861SOL     OW10479   1.742   0.562  12.926
 2861SOL    HW110480   1.832   0.540  12.900
 2861SOL    HW210481   1.752   0.634  12.988
 2862SOL     OW10482  13.783   3.140   3.986
 2862SOL    HW110483  13.843   3.131   3.912
 2862SOL    HW210484  13.806   3.068   4.044
 2863SOL     OW10485  12.654   1.956  11.702
 2863SOL    HW110486  12.689   1.939  11.614
 2863SOL    HW210487  12.578   2.013  11.687
 2864SOL     OW10488   1.287  10.946   3.603
 2864SOL    HW110489   1.309  10.898   3.683
 2864SOL    HW210490   1.285  10.879   3.535
 2865SOL     OW10491   4.397  10.154   9.177
 2865SOL    HW110492   4.318  10.204   9.156
 2865SOL    HW210493   4.434  10.197   9.254
 2866SOL     OW10494  14.775   2.970   6.736
 2866SOL    HW110495  14.751   2.888   6.692
 2866SOL    HW210496  14.871   2.971   6.733
 2867SOL     OW10497   7.204   4.910   3.618
 2867SOL    HW110498   7.278   4.850   3.623
 2867SOL    HW210499   7.200   4.934   3.525
 2868SOL     OW10500   5.956   7.594   3.459
 2868SOL    HW110501   5.937   7.563   3.547
 2868SOL    HW210502   5.970   7.688   3.469
 2869SOL     OW10503   2.214   0.749   1.507
 2869SOL    HW110504   2.210   0.675   1.567
 2869SOL    HW210505   2.123   0.770   1.487
 2870SOL     OW10506   3.249   3.473   6.804
 2870SOL    HW110507   3.296   3.547   6.842
 2870SOL    HW210508   3.156   3.492   6.820
 2871SOL     OW10509  11.534   5.752  12.992
 2871SOL    HW110510  11.468   5.792  12.935
 2871SOL    HW210511  11.500   5.664  13.011
 2872SOL     OW10512   2.802   0.177  11.790
 2872SOL    HW110513   2.825   0.127  11.869
 2872SOL    HW210514   2.718   0.141  11.763
 2873SOL     OW10515   4.270  14.522  13.478
 2873SOL    HW110516   4.266  14.533  13.573
 2873SOL    HW210517   4.243  14.431  13.463
 2874SOL     OW10518  12.953   5.722   0.462
 2874SOL    HW110519  13.002   5.659   0.409
 2874SOL    HW210520  12.862   5.694   0.454
 2875SOL     OW10521   7.557  13.025  14.461
 2875SOL    HW110522   7.554  13.076  14.542
 2875SOL    HW210523   7.595  12.941  14.487
 2876SOL     OW10524   8.336   7.143   4.909
 2876SOL    HW110525   8.263   7.081   4.899
 2876SOL    HW210526   8.293   7.229   4.917
 2877SOL     OW10527   5.322   6.917   0.277
 2877SOL    HW110528   5.290   6.834   0.313
 2877SOL    HW210529   5.411   6.897   0.248
 2878SOL     OW10530   0.372  13.828   4.210
 2878SOL    HW110531   0.332  13.786   4.286
 2878SOL    HW210532   0.418  13.758   4.164
 2879SOL     OW10533   4.849  14.409   2.672
 2879SOL    HW110534   4.840  14.426   2.766
 2879SOL    HW210535   4.815  14.320   2.660
 2880SOL     OW10536  10.129   1.037   8.436
 2880SOL    HW110537  10.217   1.040   8.474
 2880SOL    HW210538  10.070   1.058   8.509
 2881SOL     OW10539  10.411  12.806  10.171
 2881SOL    HW110540  10.504  12.814  10.194
 2881SOL    HW210541  10.411  12.793  10.076
 2882SOL     OW10542  14.720  13.263   5.111
 2882SOL    HW110543  14.809  13.298   5.118
 2882SOL    HW210544  14.700  13.231   5.199
 2883SOL     OW10545   3.906  13.208   6.206
 2883SOL    HW110546   3.902  13.283   6.146
 2883SOL    HW210547   3.870  13.136   6.155
 2884SOL     OW10548   4.324   1.305  11.175
 2884SOL    HW110549   4.400   1.358  11.198
 2884SOL    HW210550   4.290   1.345  11.096
 2885SOL     OW10551   4.620  13.588   5.371
 2885SOL    HW110552   4.631  13.644   5.447
 2885SOL    HW210553   4.692  13.526   5.376
 2886SOL     OW10554   7.033   6.393   6.370
 2886SOL    HW110555   6.982   6.346   6.304
 2886SOL    HW210556   6.984   6.474   6.384
 2887SOL     OW10557   9.215   9.032   5.192
 2887SOL    HW110558   9.151   8.962   5.181
 2887SOL    HW210559   9.161   9.111   5.201
 2888SOL     OW10560   8.071  13.817   3.004
 2888SOL    HW110561   8.160  13.849   3.020
 2888SOL    HW210562   8.021  13.847   3.079
 2889SOL     OW10563  11.862   5.791   2.538
 2889SOL    HW110564  11.815   5.751   2.611
 2889SOL    HW210565  11.953   5.763   2.550
 2890SOL     OW10566   8.758  11.159   0.589
 2890SOL    HW110567   8.821  11.189   0.524
 2890SOL    HW210568   8.755  11.229   0.654
 2891SOL     OW10569   0.698  13.351  10.950
 2891SOL    HW110570   0.746  13.317  11.025
 2891SOL    HW210571   0.745  13.316  10.874
 2892SOL     OW10572   3.589   7.977   6.497
 2892SOL    HW110573   3.655   8.018   6.552
 2892SOL    HW210574   3.540   7.921   6.556
 2893SOL     OW10575   8.638  13.996   0.477
 2893SOL    HW110576   8.564  13.985   0.537
 2893SOL    HW210577   8.654  14.090   0.477
 2894SOL     OW10578  12.787   9.642   3.776
 2894SOL    HW110579  12.876   9.615   3.796
 2894SOL    HW210580  12.781   9.638   3.681
 2895SOL     OW10581   9.943   3.572   9.047
 2895SOL    HW110582   9.974   3.531   9.128
 2895SOL    HW210583  10.014   3.632   9.023
 2896SOL     OW10584   8.941   5.511   2.516
 2896SOL    HW110585   9.008   5.506   2.584
 2896SOL    HW210586   8.982   5.563   2.446
 2897SOL     OW10587   3.685   0.153  14.078
 2897SOL    HW110588   3.680   0.080  14.016
 2897SOL    HW210589   3.739   0.120  14.150
 2898SOL     OW10590   8.604   0.841  14.203
 2898SOL    HW110591   8.604   0.774  14.272
 2898SOL    HW210592   8.569   0.796  14.126
 2899SOL     OW10593   3.616  12.152   1.465
 2899SOL    HW110594   3.664  12.203   1.400
 2899SOL    HW210595   3.650  12.063   1.456
 2900SOL     OW10596   5.005   0.482   6.406
 2900SOL    HW110597   4.926   0.433   6.383
 2900SOL    HW210598   4.972   0.567   6.436
 2901SOL     OW10599   2.455   3.152   1.538
 2901SOL    HW110600   2.549   3.171   1.537
 2901SOL    HW210601   2.423   3.195   1.617
 2902SOL     OW10602   5.579   3.002  14.579
 2902SOL    HW110603   5.585   2.920  14.628
 2902SOL    HW210604   5.635   2.989  14.503
 2903SOL     OW10605   5.128   0.858   7.200
 2903SOL    HW110606   5.133   0.953   7.213
 2903SOL    HW210607   5.095   0.848   7.111
 2904SOL     OW10608   1.813   6.922  14.494
 2904SOL    HW110609   1.795   7.012  14.524
 2904SOL    HW210610   1.789   6.867  14.569
 2905SOL     OW10611  14.700   7.824   2.092
 2905SOL    HW110612  14.790   7.808   2.122
 2905SOL    HW210613  14.658   7.739   2.096
 2906SOL     OW10614   8.098   0.757   4.950
 2906SOL    HW110615   8.132   0.707   4.876
 2906SOL    HW210616   8.072   0.841   4.911
 2907SOL     OW10617   1.839   7.929   2.635
 2907SOL    HW110618   1.816   7.860   2.572
 2907SOL    HW210619   1.898   7.886   2.697
 2908SOL     OW10620   1.823   8.646  10.930
 2908SOL    HW110621   1.845   8.643  11.023
 2908SOL    HW210622   1.900   8.612  10.886
 2909SOL     OW10623   5.239   5.975   5.541
 2909SOL    HW110624   5.194   6.048   5.583
 2909SOL    HW210625   5.329   6.006   5.530
 2910SOL     OW10626   8.802  13.623  11.565
 2910SOL    HW110627   8.737  13.632  11.495
 2910SOL    HW210628   8.841  13.710  11.572
 2911SOL     OW10629  12.885   3.168   3.933
 2911SOL    HW110630  12.932   3.241   3.894
 2911SOL    HW210631  12.892   3.182   4.027
 2912SOL     OW10632   9.593   4.519  13.434
 2912SOL    HW110633   9.551   4.546  13.515
 2912SOL    HW210634   9.533   4.547  13.365
 2913SOL     OW10635   4.065  14.271  10.634
 2913SOL    HW110636   4.074  14.261  10.539
 2913SOL    HW210637   4.075  14.183  10.669
 2914SOL     OW10638   3.942   4.184  13.920
 2914SOL    HW110639   3.855   4.181  13.880
 2914SOL    HW210640   4.001   4.154  13.851
 2915SOL     OW10641   3.951   3.053   0.445
 2915SOL    HW110642   3.899   2.993   0.499
 2915SOL    HW210643   3.896   3.131   0.437
 2916SOL     OW10644   5.826   9.366   3.111
 2916SOL    HW110645   5.793   9.347   3.199
 2916SOL    HW210646   5.748   9.365   3.055
 2917SOL     OW10647  13.809   0.974  11.539
 2917SOL    HW110648  13.840   1.064  11.530
 2917SOL    HW210649  13.880   0.920  11.505
 2918SOL     OW10650   2.769   1.198   3.171
 2918SOL    HW110651   2.795   1.225   3.260
 2918SOL    HW210652   2.737   1.109   3.182
 2919SOL     OW10653   4.013   7.617   0.677
 2919SOL    HW110654   3.954   7.606   0.752
 2919SOL    HW210655   3.955   7.614   0.601
 2920SOL     OW10656   3.576  10.366   9.568
 2920SOL    HW110657   3.613  10.454   9.577
 2920SOL    HW210658   3.607  10.320   9.646
 2921SOL     OW10659   1.249   3.290  11.064
 2921SOL    HW110660   1.248   3.269  10.971
 2921SOL    HW210661   1.307   3.225  11.103
 2922SOL     OW10662   3.708   8.152   4.388
 2922SOL    HW110663   3.710   8.234   4.339
 2922SOL    HW210664   3.690   8.085   4.322
 2923SOL     OW10665   8.166   1.260  14.476
 2923SOL    HW110666   8.226   1.203  14.427
 2923SOL    HW210667   8.115   1.304  14.408
 2924SOL     OW10668   2.648  10.425   1.409
 2924SOL    HW110669   2.632  10.506   1.362
 2924SOL    HW210670   2.693  10.452   1.489
 2925SOL     OW10671  12.094   6.889  10.142
 2925SOL    HW110672  12.123   6.931  10.223
 2925SOL    HW210673  12.060   6.804  10.170
 2926SOL     OW10674  14.647   5.419   5.808
 2926SOL    HW110675  14.655   5.472   5.729
 2926SOL    HW210676  14.714   5.351   5.798
 2927SOL     OW10677  14.668  13.842   0.698
 2927SOL    HW110678  14.728  13.858   0.626
 2927SOL    HW210679  14.712  13.776   0.752
 2928SOL     OW10680  12.573   8.084   8.789
 2928SOL    HW110681  12.489   8.116   8.756
 2928SOL    HW210682  12.550   8.023   8.859
 2929SOL     OW10683   9.089   3.761  11.110
 2929SOL    HW110684   9.089   3.666  11.101
 2929SOL    HW210685   9.009   3.781  11.158
 2930SOL     OW10686   4.216  14.585   2.734
 2930SOL    HW110687   4.146  14.647   2.757
 2930SOL    HW210688   4.172  14.518   2.682
 2931SOL     OW10689  14.483   0.116   3.919
 2931SOL    HW110690  14.562   0.063   3.909
 2931SOL    HW210691  14.447   0.091   4.003
 2932SOL     OW10692  10.032   6.926  13.326
 2932SOL    HW110693  10.126   6.944  13.323
 2932SOL    HW210694   9.990   7.011  13.311
 2933SOL     OW10695  10.841   8.772   4.442
 2933SOL    HW110696  10.780   8.841   4.468
 2933SOL    HW210697  10.927   8.805   4.465
 2934SOL     OW10698  12.329  14.632   0.075
 2934SOL    HW110699  12.322  14.631  14.862
 2934SOL    HW210700  12.300  14.545   0.102
 2935SOL     OW10701  12.091   4.861  14.180
 2935SOL    HW110702  12.107   4.844  14.273
 2935SOL    HW210703  12.132   4.947  14.164
 2936SOL     OW10704  14.528  10.049   0.676
 2936SOL    HW110705  14.519   9.955   0.662
 2936SOL    HW210706  14.618  10.059   0.707
 2937SOL     OW10707  12.017   7.465   4.399
 2937SOL    HW110708  11.962   7.426   4.330
 2937SOL    HW210709  11.974   7.547   4.420
 2938SOL     OW10710  11.995   6.900   4.369
 2938SOL    HW110711  11.900   6.885   4.366
 2938SOL    HW210712  12.004   6.995   4.378
 2939SOL     OW10713  13.472   0.129  11.207
 2939SOL    HW110714  13.454   0.036  11.219
 2939SOL    HW210715  13.470   0.165  11.295
 2940SOL     OW10716   7.494   7.611  12.504
 2940SOL    HW110717   7.518   7.539  12.563
 2940SOL    HW210718   7.566   7.613  12.441
 2941SOL     OW10719   0.496  14.302  11.834
 2941SOL    HW110720   0.432  14.294  11.905
 2941SOL    HW210721   0.578  14.271  11.873
 2942SOL     OW10722   3.720  10.204   1.592
 2942SOL    HW110723   3.778  10.141   1.635
 2942SOL    HW210724   3.729  10.185   1.499
 2943SOL     OW10725  11.277   8.254  11.579
 2943SOL    HW110726  11.366   8.283  11.598
 2943SOL    HW210727  11.261   8.283  11.489
 2944SOL     OW10728   2.301  13.800  11.864
 2944SOL    HW110729   2.234  13.822  11.928
 2944SOL    HW210730   2.380  13.845  11.895
 2945SOL     OW10731   9.469  13.944  10.614
 2945SOL    HW110732   9.373  13.940  10.608
 2945SOL    HW210733   9.496  13.979  10.529
 2946SOL     OW10734   0.966  14.417  11.536
 2946SOL    HW110735   0.901  14.417  11.466
 2946SOL    HW210736   0.990  14.509  11.547
 2947SOL     OW10737   1.076  11.058   0.810
 2947SOL    HW110738   1.003  10.996   0.804
 2947SOL    HW210739   1.067  11.097   0.897
 2948SOL     OW10740   3.774   9.351  14.637
 2948SOL    HW110741   3.847   9.300  14.673
 2948SOL    HW210742   3.811   9.438  14.622
 2949SOL     OW10743  11.652  10.050   9.081
 2949SOL    HW110744  11.611  10.135   9.068
 2949SOL    HW210745  11.718  10.044   9.012
 2950SOL     OW10746  12.997   6.975  14.708
 2950SOL    HW110747  13.075   7.031  14.711
 2950SOL    HW210748  13.032   6.886  14.707
 2951SOL     OW10749  14.101  12.180   8.783
 2951SOL    HW110750  14.079  12.188   8.876
 2951SOL    HW210751  14.068  12.094   8.758
 2952SOL     OW10752   0.991  14.283  12.842
 2952SOL    HW110753   0.907  14.257  12.879
 2952SOL    HW210754   1.024  14.350  12.902
 2953SOL     OW10755  11.205   3.741   6.948
 2953SOL    HW110756  11.260   3.816   6.923
 2953SOL    HW210757  11.262   3.665   6.940
 2954SOL     OW10758   8.809  11.036   7.773
 2954SOL    HW110759   8.797  11.126   7.803
 2954SOL    HW210760   8.876  11.000   7.831
 2955SOL     OW10761   5.908  11.954   5.685
 2955SOL    HW110762   5.900  12.041   5.645
 2955SOL    HW210763   6.000  11.946   5.708
 2956SOL     OW10764  12.648  10.203   3.666
 2956SOL    HW110765  12.636  10.121   3.715
 2956SOL    HW210766  12.703  10.257   3.722
 2957SOL     OW10767   1.047   7.356   5.768
 2957SOL    HW110768   0.954   7.342   5.786
 2957SOL    HW210769   1.085   7.268   5.764
 2958SOL     OW10770   1.730   8.970  12.193
 2958SOL    HW110771   1.751   8.878  12.177
 2958SOL    HW210772   1.669   8.994  12.123
 2959SOL     OW10773   9.017   1.982  10.216
 2959SOL    HW110774   8.983   2.039  10.285
 2959SOL    HW210775   8.944   1.926  10.192
 2960SOL     OW10776   0.097   4.275   4.437
 2960SOL    HW110777   0.170   4.257   4.377
 2960SOL    HW210778   0.054   4.190   4.449
 2961SOL     OW10779   8.779  13.503   9.955
 2961SOL    HW110780   8.768  13.416   9.993
 2961SOL    HW210781   8.758  13.491   9.862
 2962SOL     OW10782   6.057   5.429   2.236
 2962SOL    HW110783   6.024   5.350   2.277
 2962SOL    HW210784   5.980   5.486   2.228
 2963SOL     OW10785   3.600   0.474   2.662
 2963SOL    HW110786   3.618   0.461   2.755
 2963SOL    HW210787   3.687   0.476   2.621
 2964SOL     OW10788   5.099  11.747   9.022
 2964SOL    HW110789   5.094  11.764   8.928
 2964SOL    HW210790   5.190  11.769   9.045
 2965SOL     OW10791   2.655   4.837   7.311
 2965SOL    HW110792   2.689   4.902   7.373
 2965SOL    HW210793   2.667   4.877   7.225
 2966SOL     OW10794   7.914   2.739   8.454
 2966SOL    HW110795   7.832   2.706   8.418
 2966SOL    HW210796   7.896   2.831   8.476
 2967SOL     OW10797  13.962   6.824  12.752
 2967SOL    HW110798  14.052   6.856  12.753
 2967SOL    HW210799  13.917   6.875  12.820
 2968SOL     OW10800   6.714   0.445   0.331
 2968SOL    HW110801   6.720   0.513   0.264
 2968SOL    HW210802   6.734   0.364   0.284
 2969SOL     OW10803   4.999   2.792   6.462
 2969SOL    HW110804   4.968   2.702   6.450
 2969SOL    HW210805   5.083   2.782   6.506
 2970SOL     OW10806  12.238   2.673   7.151
 2970SOL    HW110807  12.261   2.667   7.244
 2970SOL    HW210808  12.187   2.754   7.144
 2971SOL     OW10809   0.914  13.349   3.742
 2971SOL    HW110810   0.929  13.417   3.808
 2971SOL    HW210811   0.954  13.383   3.662
 2972SOL     OW10812   6.170   8.252  10.839
 2972SOL    HW110813   6.218   8.326  10.874
 2972SOL    HW210814   6.205   8.240  10.750
 2973SOL     OW10815   7.287   8.502   6.960
 2973SOL    HW110816   7.249   8.588   6.981
 2973SOL    HW210817   7.252   8.481   6.874
 2974SOL     OW10818   8.921   1.714  10.719
 2974SOL    HW110819   8.913   1.711  10.815
 2974SOL    HW210820   8.890   1.628  10.690
 2975SOL     OW10821  11.088   5.967   4.092
 2975SOL    HW110822  11.028   5.983   4.019
 2975SOL    HW210823  11.129   5.883   4.070
 2976SOL     OW10824  10.209   4.532   1.237
 2976SOL    HW110825  10.229   4.625   1.224
 2976SOL    HW210826  10.191   4.499   1.149
 2977SOL     OW10827  12.730   1.128   9.925
 2977SOL    HW110828  12.815   1.100   9.961
 2977SOL    HW210829  12.736   1.108   9.832
 2978SOL     OW10830   9.494   8.714   9.561
 2978SOL    HW110831   9.540   8.631   9.551
 2978SOL    HW210832   9.432   8.700   9.632
 2979SOL     OW10833  13.201  14.406   1.905
 2979SOL    HW110834  13.211  14.337   1.839
 2979SOL    HW210835  13.167  14.481   1.857
 2980SOL     OW10836  14.453   4.049   8.454
 2980SOL    HW110837  14.526   3.998   8.419
 2980SOL    HW210838  14.438   4.117   8.388
 2981SOL     OW10839   8.577  11.228  12.335
 2981SOL    HW110840   8.620  11.294  12.388
 2981SOL    HW210841   8.638  11.154  12.334
 2982SOL     OW10842  12.958   1.096   5.044
 2982SOL    HW110843  12.981   1.007   5.017
 2982SOL    HW210844  12.879   1.085   5.097
 2983SOL     OW10845   5.767   6.808   1.957
 2983SOL    HW110846   5.836   6.840   1.900
 2983SOL    HW210847   5.708   6.760   1.900
 2984SOL     OW10848   6.143  13.871  11.648
 2984SOL    HW110849   6.237  13.883  11.632
 2984SOL    HW210850   6.107  13.852  11.562
 2985SOL     OW10851   8.221   1.327   0.345
 2985SOL    HW110852   8.252   1.300   0.258
 2985SOL    HW210853   8.256   1.416   0.356
 2986SOL     OW10854   1.688  11.696  14.007
 2986SOL    HW110855   1.672  11.742  13.925
 2986SOL    HW210856   1.689  11.603  13.984
 2987SOL     OW10857  12.793   3.275  13.688
 2987SOL    HW110858  12.754   3.267  13.602
 2987SOL    HW210859  12.886   3.257  13.674
 2988SOL     OW10860  14.076  10.122  11.484
 2988SOL    HW110861  14.105  10.199  11.533
 2988SOL    HW210862  14.056  10.057  11.551
 2989SOL     OW10863   8.928   6.812   1.939
 2989SOL    HW110864   8.925   6.906   1.955
 2989SOL    HW210865   8.983   6.802   1.861
 2990SOL     OW10866   5.012  13.244   5.947
 2990SOL    HW110867   5.108  13.238   5.953
 2990SOL    HW210868   4.984  13.265   6.036
 2991SOL     OW10869   1.473  11.596  12.077
 2991SOL    HW110870   1.394  11.581  12.025
 2991SOL    HW210871   1.507  11.509  12.096
 2992SOL     OW10872   3.623   4.727   2.067
 2992SOL    HW110873   3.623   4.793   1.998
 2992SOL    HW210874   3.544   4.745   2.118
 2993SOL     OW10875   6.555   7.115  13.781
 2993SOL    HW110876   6.514   7.131  13.866
 2993SOL    HW210877   6.637   7.070  13.801
 2994SOL     OW10878   6.499   7.778   3.198
 2994SOL    HW110879   6.520   7.856   3.249
 2994SOL    HW210880   6.496   7.708   3.263
 2995SOL     OW10881   5.944   2.969   2.496
 2995SOL    HW110882   5.919   2.905   2.563
 2995SOL    HW210883   5.862   2.995   2.454
 2996SOL     OW10884   5.556   9.668  12.025
 2996SOL    HW110885   5.611   9.602  11.983
 2996SOL    HW210886   5.468   9.650  11.991
 2997SOL     OW10887   9.659  14.319   7.785
 2997SOL    HW110888   9.704  14.401   7.764
 2997SOL    HW210889   9.725  14.267   7.831
 2998SOL     OW10890   9.162   5.326  12.148
 2998SOL    HW110891   9.100   5.325  12.221
 2998SOL    HW210892   9.109   5.352  12.072
 2999SOL     OW10893  10.614   9.151   1.923
 2999SOL    HW110894  10.560   9.078   1.894
 2999SOL    HW210895  10.598   9.158   2.017
 3000SOL     OW10896   3.956   6.764   4.737
 3000SOL    HW110897   3.942   6.691   4.677
 3000SOL    HW210898   4.047   6.753   4.765
 3001SOL     OW10899   1.473   8.068  10.425
 3001SOL    HW110900   1.469   8.149  10.476
 3001SOL    HW210901   1.435   8.002  10.483
 3002SOL     OW10902  14.306  11.223  10.931
 3002SOL    HW110903  14.294  11.251  10.840
 3002SOL    HW210904  14.328  11.304  10.978
 3003SOL     OW10905  14.344   6.875   9.128
 3003SOL    HW110906  14.439   6.866   9.139
 3003SOL    HW210907  14.331   6.967   9.109
 3004SOL     OW10908  10.919   5.247   2.859
 3004SOL    HW110909  11.014   5.257   2.863
 3004SOL    HW210910  10.905   5.159   2.824
 3005SOL     OW10911   6.396   8.063  10.400
 3005SOL    HW110912   6.326   8.021  10.349
 3005SOL    HW210913   6.424   7.995  10.461
 3006SOL     OW10914  13.110   9.315   6.979
 3006SOL    HW110915  13.158   9.318   7.062
 3006SOL    HW210916  13.096   9.222   6.963
 3007SOL     OW10917   3.782   8.100   0.147
 3007SOL    HW110918   3.734   8.164   0.095
 3007SOL    HW210919   3.839   8.056   0.084
 3008SOL     OW10920  13.008   0.241   8.294
 3008SOL    HW110921  13.044   0.215   8.379
 3008SOL    HW210922  13.065   0.312   8.265
 3009SOL     OW10923  13.037  12.818  14.481
 3009SOL    HW110924  13.090  12.740  14.497
 3009SOL    HW210925  13.063  12.879  14.550
 3010SOL     OW10926   0.055  10.636  11.748
 3010SOL    HW110927   0.098  10.647  11.663
 3010SOL    HW210928   0.127  10.620  11.809
 3011SOL     OW10929  14.143   7.513  11.094
 3011SOL    HW110930  14.149   7.585  11.157
 3011SOL    HW210931  14.171   7.552  11.011
 3012SOL     OW10932   4.033  12.879  12.411
 3012SOL    HW110933   4.109  12.918  12.454
 3012SOL    HW210934   4.044  12.901  12.319
 3013SOL     OW10935  14.258  14.165   9.326
 3013SOL    HW110936  14.300  14.080   9.340
 3013SOL    HW210937  14.234  14.164   9.233
 3014SOL     OW10938  10.441  12.851   5.782
 3014SOL    HW110939  10.354  12.875   5.813
 3014SOL    HW210940  10.500  12.917   5.818
 3015SOL     OW10941  14.309   7.881   4.263
 3015SOL    HW110942  14.286   7.874   4.170
 3015SOL    HW210943  14.352   7.966   4.271
 3016SOL     OW10944  11.080   4.219  13.405
 3016SOL    HW110945  11.073   4.125  13.385
 3016SOL    HW210946  11.002   4.258  13.367
 3017SOL     OW10947  14.284  12.463   7.855
 3017SOL    HW110948  14.270  12.473   7.761
 3017SOL    HW210949  14.338  12.538   7.879
 3018SOL     OW10950  10.269   8.193  10.184
 3018SOL    HW110951  10.266   8.278  10.227
 3018SOL    HW210952  10.304   8.134  10.251
 3019SOL     OW10953   7.555  13.510   8.223
 3019SOL    HW110954   7.611  13.482   8.151
 3019SOL    HW210955   7.471  13.467   8.206
 3020SOL     OW10956   4.203   6.478   0.193
 3020SOL    HW110957   4.120   6.523   0.178
 3020SOL    HW210958   4.270   6.539   0.161
 3021SOL     OW10959   7.574   9.121   9.859
 3021SOL    HW110960   7.521   9.176   9.916
 3021SOL    HW210961   7.511   9.076   9.803
 3022SOL     OW10962   5.806   7.220   9.659
 3022SOL    HW110963   5.844   7.150   9.713
 3022SOL    HW210964   5.719   7.187   9.637
 3023SOL     OW10965   1.809   7.131   8.181
 3023SOL    HW110966   1.817   7.036   8.184
 3023SOL    HW210967   1.782   7.155   8.269
 3024SOL     OW10968   7.610   3.382   1.062
 3024SOL    HW110969   7.649   3.408   0.979
 3024SOL    HW210970   7.683   3.349   1.114
 3025SOL     OW10971   3.548   2.668   2.789
 3025SOL    HW110972   3.602   2.589   2.784
 3025SOL    HW210973   3.592   2.723   2.853
 3026SOL     OW10974   9.484  13.328   7.463
 3026SOL    HW110975   9.569  13.356   7.496
 3026SOL    HW210976   9.504  13.274   7.386
 3027SOL     OW10977   1.066  11.852  11.459
 3027SOL    HW110978   1.048  11.924  11.398
 3027SOL    HW210979   1.044  11.773  11.410
 3028SOL     OW10980   1.786  13.587  14.465
 3028SOL    HW110981   1.715  13.557  14.408
 3028SOL    HW210982   1.744  13.648  14.526
 3029SOL     OW10983  14.752  11.278   9.482
 3029SOL    HW110984  14.683  11.296   9.418
 3029SOL    HW210985  14.713  11.302   9.566
 3030SOL     OW10986   5.288   4.528   1.543
 3030SOL    HW110987   5.300   4.490   1.630
 3030SOL    HW210988   5.275   4.453   1.485
 3031SOL     OW10989   3.728   3.915   2.054
 3031SOL    HW110990   3.797   3.849   2.043
 3031SOL    HW210991   3.701   3.907   2.145
 3032SOL     OW10992   9.272  11.206   2.332
 3032SOL    HW110993   9.236  11.125   2.296
 3032SOL    HW210994   9.200  11.268   2.329
 3033SOL     OW10995   8.221   7.961  14.844
 3033SOL    HW110996   8.266   7.994  14.766
 3033SOL    HW210997   8.208   7.868  14.826
 3034SOL     OW10998   9.743  11.358  13.448
 3034SOL    HW110999   9.711  11.448  13.452
 3034SOL    HW211000   9.837  11.366  13.433
 3035SOL     OW11001   8.996  10.840  14.416
 3035SOL    HW111002   8.915  10.811  14.457
 3035SOL    HW211003   9.065  10.790  14.460
 3036SOL     OW11004   2.533  12.851   4.666
 3036SOL    HW111005   2.618  12.895   4.672
 3036SOL    HW211006   2.545  12.784   4.599
 3037SOL     OW11007   3.924   8.614  12.513
 3037SOL    HW111008   3.941   8.619  12.419
 3037SOL    HW211009   3.861   8.684  12.529
 3038SOL     OW11010   5.076   7.564  13.707
 3038SOL    HW111011   5.035   7.572  13.621
 3038SOL    HW211012   5.011   7.599  13.768
 3039SOL     OW11013   2.929   8.771   7.809
 3039SOL    HW111014   2.872   8.801   7.880
 3039SOL    HW211015   3.016   8.803   7.832
 3040SOL     OW11016   2.544   9.980   1.315
 3040SOL    HW111017   2.560  10.038   1.389
 3040SOL    HW211018   2.510  10.038   1.246
 3041SOL     OW11019   1.325   2.082   3.833
 3041SOL    HW111020   1.376   2.129   3.899
 3041SOL    HW211021   1.376   2.003   3.815
 3042SOL     OW11022   5.818   8.064   1.953
 3042SOL    HW111023   5.824   8.103   2.040
 3042SOL    HW211024   5.768   7.984   1.966
 3043SOL     OW11025   6.319   7.247   5.932
 3043SOL    HW111026   6.385   7.177   5.931
 3043SOL    HW211027   6.247   7.213   5.879
 3044SOL     OW11028   7.022   0.346  13.262
 3044SOL    HW111029   7.105   0.302  13.245
 3044SOL    HW211030   6.964   0.277  13.293
 3045SOL     OW11031   3.014   7.288   1.117
 3045SOL    HW111032   3.025   7.367   1.064
 3045SOL    HW211033   3.086   7.291   1.179
 3046SOL     OW11034  12.279   8.544  10.398
 3046SOL    HW111035  12.269   8.611  10.466
 3046SOL    HW211036  12.230   8.577  10.323
 3047SOL     OW11037   6.671   7.608  13.311
 3047SOL    HW111038   6.696   7.683  13.257
 3047SOL    HW211039   6.728   7.613  13.387
 3048SOL     OW11040  11.759   4.692  10.045
 3048SOL    HW111041  11.755   4.784  10.070
 3048SOL    HW211042  11.796   4.648  10.122
 3049SOL     OW11043   9.332  14.518  10.780
 3049SOL    HW111044   9.415  14.565  10.783
 3049SOL    HW211045   9.341  14.458  10.706
 3050SOL     OW11046  14.649   2.005   4.670
 3050SOL    HW111047  14.689   1.989   4.756
 3050SOL    HW211048  14.618   1.919   4.642
 3051SOL     OW11049  10.753  13.709   4.232
 3051SOL    HW111050  10.688  13.764   4.187
 3051SOL    HW211051  10.717  13.699   4.320
 3052SOL     OW11052   4.767   2.029   0.307
 3052SOL    HW111053   4.746   2.116   0.339
 3052SOL    HW211054   4.858   2.036   0.276
 3053SOL     OW11055   2.186   7.373   0.889
 3053SOL    HW111056   2.118   7.439   0.873
 3053SOL    HW211057   2.191   7.324   0.807
 3054SOL     OW11058  12.075   8.314  14.612
 3054SOL    HW111059  12.107   8.401  14.636
 3054SOL    HW211060  12.114   8.298  14.526
 3055SOL     OW11061   5.568   2.022   5.878
 3055SOL    HW111062   5.538   2.008   5.967
 3055SOL    HW211063   5.538   2.110   5.856
 3056SOL     OW11064  13.269   8.436  14.118
 3056SOL    HW111065  13.206   8.507  14.127
 3056SOL    HW211066  13.325   8.443  14.196
 3057SOL     OW11067  12.599   2.459   8.289
 3057SOL    HW111068  12.511   2.489   8.267
 3057SOL    HW211069  12.622   2.398   8.218
 3058SOL     OW11070   1.061   9.343  12.257
 3058SOL    HW111071   1.079   9.364  12.165
 3058SOL    HW211072   1.135   9.379  12.305
 3059SOL     OW11073   6.479   9.309  14.113
 3059SOL    HW111074   6.477   9.225  14.067
 3059SOL    HW211075   6.493   9.374  14.044
 3060SOL     OW11076   4.107   1.352   1.815
 3060SOL    HW111077   4.018   1.385   1.829
 3060SOL    HW211078   4.096   1.263   1.783
 3061SOL     OW11079  14.738   8.685   5.228
 3061SOL    HW111080  14.797   8.705   5.155
 3061SOL    HW211081  14.793   8.641   5.292
 3062SOL     OW11082  13.967   9.393  10.846
 3062SOL    HW111083  14.051   9.402  10.800
 3062SOL    HW211084  13.952   9.480  10.885
 3063SOL     OW11085  11.144  11.645   5.922
 3063SOL    HW111086  11.226  11.652   5.872
 3063SOL    HW211087  11.083  11.703   5.877
 3064SOL     OW11088   8.588   0.142   9.263
 3064SOL    HW111089   8.529   0.072   9.290
 3064SOL    HW211090   8.672   0.098   9.246
 3065SOL     OW11091   1.165   4.933   6.276
 3065SOL    HW111092   1.185   5.024   6.297
 3065SOL    HW211093   1.177   4.927   6.181
 3066SOL     OW11094   9.539   4.671   8.588
 3066SOL    HW111095   9.621   4.716   8.606
 3066SOL    HW211096   9.476   4.741   8.570
 3067SOL     OW11097   5.901   4.378   0.864
 3067SOL    HW111098   5.894   4.289   0.897
 3067SOL    HW211099   5.988   4.383   0.826
 3068SOL     OW11100  13.407  14.145   1.036
 3068SOL    HW111101  13.373  14.081   1.098
 3068SOL    HW211102  13.367  14.120   0.953
 3069SOL     OW11103  10.224   9.091   2.958
 3069SOL    HW111104  10.266   9.122   3.038
 3069SOL    HW211105  10.270   9.011   2.936
 3070SOL     OW11106  13.888   6.079  11.218
 3070SOL    HW111107  13.855   6.099  11.131
 3070SOL    HW211108  13.819   6.107  11.278
 3071SOL     OW11109   5.327   0.151   5.989
 3071SOL    HW111110   5.375   0.085   6.040
 3071SOL    HW211111   5.243   0.109   5.968
 3072SOL     OW11112   0.387   5.446   8.561
 3072SOL    HW111113   0.311   5.458   8.619
 3072SOL    HW211114   0.427   5.533   8.556
 3073SOL     OW11115   9.223   0.795   7.939
 3073SOL    HW111116   9.313   0.761   7.934
 3073SOL    HW211117   9.211   0.815   8.032
 3074SOL     OW11118   4.739   2.368   2.486
 3074SOL    HW111119   4.758   2.305   2.416
 3074SOL    HW211120   4.761   2.321   2.566
 3075SOL     OW11121   5.263  10.934  12.836
 3075SOL    HW111122   5.315  10.984  12.773
 3075SOL    HW211123   5.224  10.864  12.783
 3076SOL     OW11124   5.408   6.858  11.391
 3076SOL    HW111125   5.450   6.773  11.402
 3076SOL    HW211126   5.395   6.866  11.296
 3077SOL     OW11127   6.274   7.969  14.201
 3077SOL    HW111128   6.293   7.900  14.264
 3077SOL    HW211129   6.359   7.993  14.164
 3078SOL     OW11130  10.018  11.205   6.924
 3078SOL    HW111131  10.107  11.222   6.895
 3078SOL    HW211132   9.964  11.266   6.874
 3079SOL     OW11133  11.292   9.254   1.514
 3079SOL    HW111134  11.375   9.207   1.506
 3079SOL    HW211135  11.277   9.290   1.426
 3080SOL     OW11136  10.710   6.879  11.619
 3080SOL    HW111137  10.640   6.927  11.665
 3080SOL    HW211138  10.773   6.857  11.687
 3081SOL     OW11139   9.166   3.401  10.224
 3081SOL    HW111140   9.091   3.397  10.165
 3081SOL    HW211141   9.236   3.440  10.172
 3082SOL     OW11142  10.166  12.861  11.157
 3082SOL    HW111143  10.157  12.773  11.194
 3082SOL    HW211144  10.116  12.857  11.075
 3083SOL     OW11145   0.807   7.847   4.611
 3083SOL    HW111146   0.862   7.776   4.576
 3083SOL    HW211147   0.747   7.868   4.540
 3084SOL     OW11148  14.841   6.338   0.482
 3084SOL    HW111149   0.018   6.375   0.547
 3084SOL    HW211150  14.855   6.391   0.403
 3085SOL     OW11151   1.899   7.357   2.916
 3085SOL    HW111152   1.899   7.438   2.865
 3085SOL    HW211153   1.854   7.294   2.860
 3086SOL     OW11154   4.357   0.506   0.359
 3086SOL    HW111155   4.435   0.551   0.389
 3086SOL    HW211156   4.363   0.419   0.399
 3087SOL     OW11157   8.432  13.667   9.363
 3087SOL    HW111158   8.446  13.652   9.269
 3087SOL    HW211159   8.429  13.762   9.372
 3088SOL     OW11160   7.360  11.362  14.665
 3088SOL    HW111161   7.362  11.443  14.715
 3088SOL    HW211162   7.267  11.337  14.663
 3089SOL     OW11163   4.696  14.632   7.508
 3089SOL    HW111164   4.698  14.711   7.562
 3089SOL    HW211165   4.771  14.580   7.539
 3090SOL     OW11166   2.422   1.499   3.015
 3090SOL    HW111167   2.394   1.442   2.944
 3090SOL    HW211168   2.358   1.570   3.015
 3091SOL     OW11169   9.691   4.824   3.382
 3091SOL    HW111170   9.662   4.898   3.329
 3091SOL    HW211171   9.709   4.755   3.319
 3092SOL     OW11172  14.045   9.119   1.173
 3092SOL    HW111173  14.114   9.088   1.232
 3092SOL    HW211174  14.012   9.039   1.131
 3093SOL     OW11175   2.701  10.645   4.469
 3093SOL    HW111176   2.669  10.723   4.516
 3093SOL    HW211177   2.626  10.585   4.469
 3094SOL     OW11178   2.632   9.703   1.951
 3094SOL    HW111179   2.601   9.650   1.878
 3094SOL    HW211180   2.558   9.762   1.970
 3095SOL     OW11181   1.580   1.404   7.645
 3095SOL    HW111182   1.575   1.331   7.583
 3095SOL    HW211183   1.519   1.380   7.715
 3096SOL     OW11184   4.724   5.983  10.494
 3096SOL    HW111185   4.703   5.981  10.401
 3096SOL    HW211186   4.819   5.995  10.497
 3097SOL     OW11187   0.424   6.862   6.191
 3097SOL    HW111188   0.349   6.915   6.165
 3097SOL    HW211189   0.461   6.831   6.108
 3098SOL     OW11190   7.315   0.101  13.599
 3098SOL    HW111191   7.261   0.048  13.542
 3098SOL    HW211192   7.368   0.038  13.648
 3099SOL     OW11193   1.088   6.569  11.314
 3099SOL    HW111194   1.034   6.490  11.305
 3099SOL    HW211195   1.048   6.618  11.385
 3100SOL     OW11196   9.506  10.019  10.922
 3100SOL    HW111197   9.583  10.073  10.908
 3100SOL    HW211198   9.445  10.045  10.853
 3101SOL     OW11199   9.906   4.219   1.340
 3101SOL    HW111200   9.945   4.147   1.290
 3101SOL    HW211201   9.878   4.282   1.274
 3102SOL     OW11202  10.135   9.135   5.486
 3102SOL    HW111203  10.066   9.182   5.534
 3102SOL    HW211204  10.217   9.176   5.515
 3103SOL     OW11205  12.259   1.378  11.529
 3103SOL    HW111206  12.234   1.306  11.586
 3103SOL    HW211207  12.286   1.448  11.589
 3104SOL     OW11208   9.154   1.617  12.799
 3104SOL    HW111209   9.208   1.556  12.750
 3104SOL    HW211210   9.105   1.666  12.733
 3105SOL     OW11211  14.881   8.924   7.365
 3105SOL    HW111212  14.788   8.923   7.388
 3105SOL    HW211213   0.006   8.989   7.295
 3106SOL     OW11214   0.177   9.028   6.348
 3106SOL    HW111215   0.145   8.977   6.423
 3106SOL    HW211216   0.170   9.119   6.376
 3107SOL     OW11217  14.529   8.381  14.587
 3107SOL    HW111218  14.469   8.310  14.608
 3107SOL    HW211219  14.552   8.419  14.672
 3108SOL     OW11220  11.612  14.697  12.176
 3108SOL    HW111221  11.617  14.677  12.269
 3108SOL    HW211222  11.538  14.645  12.144
 3109SOL     OW11223   7.750   9.646   9.547
 3109SOL    HW111224   7.732   9.702   9.623
 3109SOL    HW211225   7.736   9.557   9.581
 3110SOL     OW11226   6.646   5.132  10.217
 3110SOL    HW111227   6.595   5.150  10.295
 3110SOL    HW211228   6.679   5.217  10.189
 3111SOL     OW11229   3.102   6.873   4.637
 3111SOL    HW111230   3.166   6.805   4.613
 3111SOL    HW211231   3.020   6.825   4.649
 3112SOL     OW11232  10.214   1.837   3.797
 3112SOL    HW111233  10.167   1.897   3.738
 3112SOL    HW211234  10.299   1.878   3.809
 3113SOL     OW11235   9.292   3.064   9.411
 3113SOL    HW111236   9.358   3.112   9.461
 3113SOL    HW211237   9.309   2.972   9.431
 3114SOL     OW11238   7.164  11.326  10.238
 3114SOL    HW111239   7.237  11.270  10.264
 3114SOL    HW211240   7.205  11.399  10.193
 3115SOL     OW11241   0.640  12.263   4.600
 3115SOL    HW111242   0.649  12.175   4.638
 3115SOL    HW211243   0.548  12.269   4.576
 3116SOL     OW11244   8.550  14.783   2.255
 3116SOL    HW111245   8.549  14.852   2.189
 3116SOL    HW211246   8.641  14.754   2.259
 3117SOL     OW11247   8.183   2.371   1.941
 3117SOL    HW111248   8.116   2.388   1.875
 3117SOL    HW211249   8.263   2.407   1.903
 3118SOL     OW11250  14.380   5.814   4.100
 3118SOL    HW111251  14.473   5.815   4.122
 3118SOL    HW211252  14.353   5.723   4.111
 3119SOL     OW11253  14.321  12.620   1.802
 3119SOL    HW111254  14.226  12.629   1.811
 3119SOL    HW211255  14.353  12.617   1.892
 3120SOL     OW11256  10.725   5.979   7.758
 3120SOL    HW111257  10.736   5.884   7.747
 3120SOL    HW211258  10.780   6.017   7.690
 3121SOL     OW11259   1.870   4.650   5.045
 3121SOL    HW111260   1.932   4.641   4.972
 3121SOL    HW211261   1.866   4.744   5.062
 3122SOL     OW11262  14.873   6.835   0.155
 3122SOL    HW111263   0.058   6.883   0.203
 3122SOL    HW211264  14.792   6.855   0.200
 3123SOL     OW11265   8.981   5.436   8.837
 3123SOL    HW111266   8.901   5.385   8.826
 3123SOL    HW211267   8.951   5.523   8.863
 3124SOL     OW11268  12.444   8.614   6.879
 3124SOL    HW111269  12.426   8.595   6.787
 3124SOL    HW211270  12.359   8.633   6.917
 3125SOL     OW11271   8.158   2.694   8.054
 3125SOL    HW111272   8.174   2.720   8.145
 3125SOL    HW211273   8.068   2.721   8.037
 3126SOL     OW11274   1.255  10.144  12.660
 3126SOL    HW111275   1.289  10.222  12.704
 3126SOL    HW211276   1.172  10.125  12.704
 3127SOL     OW11277   3.688   9.586  10.152
 3127SOL    HW111278   3.672   9.598  10.058
 3127SOL    HW211279   3.753   9.515  10.156
 3128SOL     OW11280  13.729   3.596  12.548
 3128SOL    HW111281  13.796   3.659  12.522
 3128SOL    HW211282  13.778   3.518  12.574
 3129SOL     OW11283  14.324   2.500   5.586
 3129SOL    HW111284  14.418   2.491   5.602
 3129SOL    HW211285  14.312   2.473   5.495
 3130SOL     OW11286  10.015   3.165   3.530
 3130SOL    HW111287  10.071   3.097   3.568
 3130SOL    HW211288   9.984   3.127   3.448
 3131SOL     OW11289  12.507   4.122  12.106
 3131SOL    HW111290  12.435   4.185  12.095
 3131SOL    HW211291  12.510   4.106  12.200
 3132SOL     OW11292  11.289   7.212  12.866
 3132SOL    HW111293  11.321   7.208  12.956
 3132SOL    HW211294  11.251   7.125  12.850
 3133SOL     OW11295   5.543   5.779   6.131
 3133SOL    HW111296   5.626   5.816   6.161
 3133SOL    HW211297   5.568   5.694   6.093
 3134SOL     OW11298  14.717   6.222   9.278
 3134SOL    HW111299  14.719   6.254   9.369
 3134SOL    HW211300  14.698   6.300   9.226
 3135SOL     OW11301   8.126   8.140   8.439
 3135SOL    HW111302   8.104   8.225   8.401
 3135SOL    HW211303   8.121   8.153   8.534
 3136SOL     OW11304  13.443   9.343   5.170
 3136SOL    HW111305  13.479   9.294   5.096
 3136SOL    HW211306  13.358   9.302   5.187
 3137SOL     OW11307  12.927  10.326  11.967
 3137SOL    HW111308  12.850  10.310  12.022
 3137SOL    HW211309  12.904  10.289  11.882
 3138SOL     OW11310   1.688  12.345   1.903
 3138SOL    HW111311   1.748  12.301   1.843
 3138SOL    HW211312   1.645  12.275   1.952
 3139SOL     OW11313  12.071   9.665   6.026
 3139SOL    HW111314  12.045   9.738   6.082
 3139SOL    HW211315  12.038   9.689   5.939
 3140SOL     OW11316   3.634   0.001   9.436
 3140SOL    HW111317   3.541  14.868   9.425
 3140SOL    HW211318   3.670  14.800   9.466
 3141SOL     OW11319   6.094  14.337   3.520
 3141SOL    HW111320   6.180  14.356   3.556
 3141SOL    HW211321   6.087  14.392   3.442
 3142SOL     OW11322  10.523   5.966   3.513
 3142SOL    HW111323  10.597   5.912   3.541
 3142SOL    HW211324  10.549   6.055   3.534
 3143SOL     OW11325   2.567  10.138   4.760
 3143SOL    HW111326   2.634  10.073   4.782
 3143SOL    HW211327   2.587  10.213   4.817
 3144SOL     OW11328  13.666   8.721   3.145
 3144SOL    HW111329  13.721   8.718   3.224
 3144SOL    HW211330  13.703   8.653   3.089
 3145SOL     OW11331   9.648   8.935  11.455
 3145SOL    HW111332   9.667   8.841  11.456
 3145SOL    HW211333   9.553   8.941  11.455
 3146SOL     OW11334  10.130   8.378   2.020
 3146SOL    HW111335  10.189   8.443   2.060
 3146SOL    HW211336  10.189   8.310   1.988
 3147SOL     OW11337   0.774   2.946   5.193
 3147SOL    HW111338   0.834   2.926   5.121
 3147SOL    HW211339   0.827   2.993   5.257
 3148SOL     OW11340   4.864   9.039  13.033
 3148SOL    HW111341   4.842   8.965  13.089
 3148SOL    HW211342   4.950   9.018  12.996
 3149SOL     OW11343   7.802  13.456  14.109
 3149SOL    HW111344   7.779  13.472  14.201
 3149SOL    HW211345   7.813  13.543  14.072
 3150SOL     OW11346   8.600  14.444   9.707
 3150SOL    HW111347   8.506  14.433   9.720
 3150SOL    HW211348   8.631  14.356   9.682
 3151SOL     OW11349   7.410  11.773   1.887
 3151SOL    HW111350   7.371  11.686   1.899
 3151SOL    HW211351   7.336  11.831   1.869
 3152SOL     OW11352   0.151  13.779   5.768
 3152SOL    HW111353   0.192  13.861   5.795
 3152SOL    HW211354   0.123  13.794   5.678
 3153SOL     OW11355   9.023   7.870   3.941
 3153SOL    HW111356   8.953   7.877   3.876
 3153SOL    HW211357   9.097   7.916   3.902
 3154SOL     OW11358   1.213   0.675   8.387
 3154SOL    HW111359   1.305   0.694   8.400
 3154SOL    HW211360   1.172   0.760   8.374
 3155SOL     OW11361   5.622   0.107   9.385
 3155SOL    HW111362   5.667   0.053   9.319
 3155SOL    HW211363   5.692   0.160   9.423
 3156SOL     OW11364   7.841   4.321   3.064
 3156SOL    HW111365   7.915   4.263   3.081
 3156SOL    HW211366   7.822   4.361   3.148
 3157SOL     OW11367  10.617  12.416   6.494
 3157SOL    HW111368  10.604  12.473   6.418
 3157SOL    HW211369  10.671  12.468   6.554
 3158SOL     OW11370   0.295   0.231   5.382
 3158SOL    HW111371   0.373   0.287   5.377
 3158SOL    HW211372   0.228   0.279   5.332
 3159SOL     OW11373  11.079   5.044   7.286
 3159SOL    HW111374  11.132   5.111   7.330
 3159SOL    HW211375  11.102   5.053   7.194
 3160SOL     OW11376  10.352   7.150   2.324
 3160SOL    HW111377  10.344   7.155   2.229
 3160SOL    HW211378  10.431   7.200   2.344
 3161SOL     OW11379  14.853   1.830  11.554
 3161SOL    HW111380   0.051   1.791  11.589
 3161SOL    HW211381  14.815   1.762  11.499
 3162SOL     OW11382   0.521   8.237  10.110
 3162SOL    HW111383   0.433   8.239  10.147
 3162SOL    HW211384   0.579   8.235  10.186
 3163SOL     OW11385  11.620   7.353   9.019
 3163SOL    HW111386  11.706   7.310   9.018
 3163SOL    HW211387  11.570   7.305   9.084
 3164SOL     OW11388  13.327   9.781   8.094
 3164SOL    HW111389  13.351   9.739   8.011
 3164SOL    HW211390  13.232   9.770   8.099
 3165SOL     OW11391  10.311   9.248   9.777
 3165SOL    HW111392  10.276   9.260   9.688
 3165SOL    HW211393  10.236   9.221   9.829
 3166SOL     OW11394  10.033  11.671   0.717
 3166SOL    HW111395  10.100  11.729   0.752
 3166SOL    HW211396  10.065  11.646   0.630
 3167SOL     OW11397   4.573   7.966  13.103
 3167SOL    HW111398   4.599   8.018  13.179
 3167SOL    HW211399   4.557   8.031  13.034
 3168SOL     OW11400   1.758   1.731   8.405
 3168SOL    HW111401   1.731   1.791   8.473
 3168SOL    HW211402   1.844   1.764   8.376
 3169SOL     OW11403  10.887  12.135   0.470
 3169SOL    HW111404  10.961  12.130   0.530
 3169SOL    HW211405  10.908  12.209   0.412
 3170SOL     OW11406  14.845   6.104   0.693
 3170SOL    HW111407  14.776   6.100   0.628
 3170SOL    HW211408  14.806   6.152   0.766
 3171SOL     OW11409   7.932   6.497   7.979
 3171SOL    HW111410   7.910   6.558   8.048
 3171SOL    HW211411   8.028   6.489   7.983
 3172SOL     OW11412   3.057   0.989   7.433
 3172SOL    HW111413   2.971   1.022   7.407
 3172SOL    HW211414   3.038   0.906   7.477
 3173SOL     OW11415  10.900   0.233   0.617
 3173SOL    HW111416  10.902   0.244   0.712
 3173SOL    HW211417  10.807   0.233   0.594
 3174SOL     OW11418   5.309   6.290   1.355
 3174SOL    HW111419   5.339   6.378   1.331
 3174SOL    HW211420   5.270   6.256   1.275
 3175SOL     OW11421  13.089  12.414   4.227
 3175SOL    HW111422  13.046  12.403   4.312
 3175SOL    HW211423  13.163  12.354   4.230
 3176SOL     OW11424   4.816   4.161   2.854
 3176SOL    HW111425   4.747   4.179   2.917
 3176SOL    HW211426   4.876   4.236   2.862
 3177SOL     OW11427   9.015   0.521  12.529
 3177SOL    HW111428   9.075   0.445  12.529
 3177SOL    HW211429   8.984   0.527  12.619
 3178SOL     OW11430   7.439  12.968   2.155
 3178SOL    HW111431   7.408  12.883   2.185
 3178SOL    HW211432   7.420  13.028   2.227
 3179SOL     OW11433  12.369   5.468  10.539
 3179SOL    HW111434  12.368   5.377  10.568
 3179SOL    HW211435  12.315   5.515  10.603
 3180SOL     OW11436   7.484   5.090   4.618
 3180SOL    HW111437   7.537   5.016   4.586
 3180SOL    HW211438   7.395   5.068   4.593
 3181SOL     OW11439   7.334   0.683  13.503
 3181SOL    HW111440   7.322   0.658  13.594
 3181SOL    HW211441   7.256   0.734  13.481
 3182SOL     OW11442   2.346  10.217  14.789
 3182SOL    HW111443   2.404  10.284  14.754
 3182SOL    HW211444   2.335  10.240  14.881
 3183SOL     OW11445   0.308   2.912   5.242
 3183SOL    HW111446   0.281   2.914   5.150
 3183SOL    HW211447   0.384   2.970   5.245
 3184SOL     OW11448  12.608  11.223  13.095
 3184SOL    HW111449  12.558  11.146  13.119
 3184SOL    HW211450  12.679  11.190  13.040
 3185SOL     OW11451  10.860  14.237  10.138
 3185SOL    HW111452  10.943  14.189  10.142
 3185SOL    HW211453  10.882  14.320  10.096
 3186SOL     OW11454   7.708  10.671   3.289
 3186SOL    HW111455   7.688  10.690   3.381
 3186SOL    HW211456   7.778  10.732   3.267
 3187SOL     OW11457   5.464   8.225   9.577
 3187SOL    HW111458   5.395   8.179   9.625
 3187SOL    HW211459   5.543   8.210   9.630
 3188SOL     OW11460   9.445  14.421   4.843
 3188SOL    HW111461   9.537  14.418   4.869
 3188SOL    HW211462   9.400  14.366   4.908
 3189SOL     OW11463   1.631  12.114   5.891
 3189SOL    HW111464   1.563  12.171   5.926
 3189SOL    HW211465   1.702  12.119   5.955
 3190SOL     OW11466  11.005   9.214  14.138
 3190SOL    HW111467  11.091   9.254  14.122
 3190SOL    HW211468  10.983   9.241  14.227
 3191SOL     OW11469   9.022  14.627  14.143
 3191SOL    HW111470   8.976  14.547  14.167
 3191SOL    HW211471   9.010  14.634  14.048
 3192SOL     OW11472   7.680   0.072   4.740
 3192SOL    HW111473   7.656   0.008   4.673
 3192SOL    HW211474   7.619   0.056   4.812
 3193SOL     OW11475   3.500   6.036   0.755
 3193SOL    HW111476   3.501   6.014   0.662
 3193SOL    HW211477   3.531   5.956   0.799
 3194SOL     OW11478   3.979  13.440  12.666
 3194SOL    HW111479   4.047  13.434  12.599
 3194SOL    HW211480   3.940  13.526  12.654
 3195SOL     OW11481   5.914   8.018   8.431
 3195SOL    HW111482   5.974   8.078   8.474
 3195SOL    HW211483   5.965   7.938   8.418
 3196SOL     OW11484   2.663  13.819  12.409
 3196SOL    HW111485   2.662  13.776  12.495
 3196SOL    HW211486   2.753  13.810  12.379
 3197SOL     OW11487   0.396   4.123  11.365
 3197SOL    HW111488   0.429   4.044  11.408
 3197SOL    HW211489   0.447   4.194  11.405
 3198SOL     OW11490   9.626   9.984   1.793
 3198SOL    HW111491   9.632   9.988   1.888
 3198SOL    HW211492   9.537   9.953   1.776
 3199SOL     OW11493  11.635  13.768   7.981
 3199SOL    HW111494  11.669  13.831   7.917
 3199SOL    HW211495  11.712  13.719   8.010
 3200SOL     OW11496   5.904  10.168  12.235
 3200SOL    HW111497   5.862  10.159  12.321
 3200SOL    HW211498   5.834  10.201  12.178
 3201SOL     OW11499   7.956  12.892  14.027
 3201SOL    HW111500   8.023  12.930  14.085
 3201SOL    HW211501   7.942  12.803  14.061
 3202SOL     OW11502  12.151   0.425  13.940
 3202SOL    HW111503  12.166   0.508  13.897
 3202SOL    HW211504  12.185   0.359  13.879
 3203SOL     OW11505  14.796   1.020   1.995
 3203SOL    HW111506  14.838   0.938   2.020
 3203SOL    HW211507  14.704   1.009   2.019
 3204SOL     OW11508   2.463   6.658  12.916
 3204SOL    HW111509   2.483   6.576  12.960
 3204SOL    HW211510   2.464   6.636  12.822
 3205SOL     OW11511   4.423   3.707   7.584
 3205SOL    HW111512   4.487   3.771   7.613
 3205SOL    HW211513   4.343   3.729   7.632
 3206SOL     OW11514   1.702   0.826   9.674
 3206SOL    HW111515   1.785   0.826   9.720
 3206SOL    HW211516   1.636   0.807   9.741
 3207SOL     OW11517  14.194   2.044  11.944
 3207SOL    HW111518  14.203   2.139  11.956
 3207SOL    HW211519  14.284   2.012  11.943
 3208SOL     OW11520  10.753  10.685   1.035
 3208SOL    HW111521  10.686  10.669   0.969
 3208SOL    HW211522  10.818  10.616   1.022
 3209SOL     OW11523  13.281   6.300   1.368
 3209SOL    HW111524  13.309   6.390   1.347
 3209SOL    HW211525  13.246   6.306   1.457
 3210SOL     OW11526  13.596   0.204   0.695
 3210SOL    HW111527  13.657   0.212   0.768
 3210SOL    HW211528  13.591   0.110   0.679
 3211SOL     OW11529   3.253   0.398  12.620
 3211SOL    HW111530   3.273   0.475  12.673
 3211SOL    HW211531   3.177   0.424  12.568
 3212SOL     OW11532  13.377  10.882  13.746
 3212SOL    HW111533  13.304  10.894  13.686
 3212SOL    HW211534  13.343  10.911  13.831
 3213SOL     OW11535   9.297   6.885  11.116
 3213SOL    HW111536   9.379   6.839  11.094
 3213SOL    HW211537   9.314   6.976  11.092
 3214SOL     OW11538   9.797   5.240  10.099
 3214SOL    HW111539   9.762   5.152  10.081
 3214SOL    HW211540   9.877   5.224  10.149
 3215SOL     OW11541   7.974  13.259  13.895
 3215SOL    HW111542   7.898  13.260  13.837
 3215SOL    HW211543   7.943  13.298  13.977
 3216SOL     OW11544   8.964  11.826   6.834
 3216SOL    HW111545   8.897  11.868   6.887
 3216SOL    HW211546   8.918  11.758   6.786
 3217SOL     OW11547   7.887  11.722   0.847
 3217SOL    HW111548   7.927  11.638   0.824
 3217SOL    HW211549   7.958  11.786   0.837
 3218SOL     OW11550   5.888  13.332   1.820
 3218SOL    HW111551   5.971  13.357   1.860
 3218SOL    HW211552   5.861  13.408   1.769
 3219SOL     OW11553   0.940  13.646  11.037
 3219SOL    HW111554   0.882  13.681  10.969
 3219SOL    HW211555   0.885  13.637  11.114
 3220SOL     OW11556  13.557   5.057   0.370
 3220SOL    HW111557  13.550   5.149   0.397
 3220SOL    HW211558  13.598   5.014   0.445
 3221SOL     OW11559   4.514   4.021  10.158
 3221SOL    HW111560   4.518   3.953  10.225
 3221SOL    HW211561   4.604   4.051  10.149
 3222SOL     OW11562  13.075  10.723   5.327
 3222SOL    HW111563  13.154  10.768   5.299
 3222SOL    HW211564  13.103  10.665   5.398
 3223SOL     OW11565   6.602   8.934   2.050
 3223SOL    HW111566   6.554   8.972   1.976
 3223SOL    HW211567   6.639   9.008   2.097
 3224SOL     OW11568   8.652   0.624   8.069
 3224SOL    HW111569   8.616   0.592   7.986
 3224SOL    HW211570   8.735   0.665   8.045
 3225SOL     OW11571  11.030  13.821   3.614
 3225SOL    HW111572  11.051  13.857   3.528
 3225SOL    HW211573  11.060  13.888   3.676
 3226SOL     OW11574   9.957   1.036   6.366
 3226SOL    HW111575   9.866   1.040   6.335
 3226SOL    HW211576  10.008   1.022   6.286
 3227SOL     OW11577   1.285   0.158   2.693
 3227SOL    HW111578   1.355   0.187   2.635
 3227SOL    HW211579   1.222   0.115   2.635
 3228SOL     OW11580   2.796  10.844   6.222
 3228SOL    HW111581   2.705  10.837   6.252
 3228SOL    HW211582   2.798  10.792   6.141
 3229SOL     OW11583   6.200  11.085  14.118
 3229SOL    HW111584   6.239  11.002  14.090
 3229SOL    HW211585   6.126  11.060  14.173
 3230SOL     OW11586   7.305  14.708   8.187
 3230SOL    HW111587   7.272  14.634   8.136
 3230SOL    HW211588   7.400  14.703   8.178
 3231SOL     OW11589   3.362  12.495  11.369
 3231SOL    HW111590   3.433  12.525  11.426
 3231SOL    HW211591   3.355  12.563  11.302
 3232SOL     OW11592   3.929   5.338   1.627
 3232SOL    HW111593   3.896   5.402   1.564
 3232SOL    HW211594   3.984   5.279   1.575
 3233SOL     OW11595  13.652   4.365   3.624
 3233SOL    HW111596  13.703   4.446   3.630
 3233SOL    HW211597  13.716   4.299   3.598
 3234SOL     OW11598   6.672  13.502   3.667
 3234SOL    HW111599   6.733  13.489   3.595
 3234SOL    HW211600   6.688  13.429   3.726
 3235SOL     OW11601   0.568   2.472  13.084
 3235SOL    HW111602   0.654   2.512  13.096
 3235SOL    HW211603   0.569   2.438  12.995
 3236SOL     OW11604   2.599   9.472  10.434
 3236SOL    HW111605   2.537   9.538  10.403
 3236SOL    HW211606   2.639   9.511  10.512
 3237SOL     OW11607  11.376   9.681   2.435
 3237SOL    HW111608  11.305   9.688   2.372
 3237SOL    HW211609  11.394   9.771   2.462
 3238SOL     OW11610   0.659   3.815   3.440
 3238SOL    HW111611   0.689   3.885   3.383
 3238SOL    HW211612   0.718   3.742   3.421
 3239SOL     OW11613   9.161  12.161   2.006
 3239SOL    HW111614   9.151  12.220   2.081
 3239SOL    HW211615   9.104  12.087   2.025
 3240SOL     OW11616   9.368  10.507  14.262
 3240SOL    HW111617   9.412  10.457  14.331
 3240SOL    HW211618   9.414  10.483  14.182
 3241SOL     OW11619   4.027   7.985   7.562
 3241SOL    HW111620   4.057   8.003   7.651
 3241SOL    HW211621   4.075   8.048   7.508
 3242SOL     OW11622   4.882  12.560   0.606
 3242SOL    HW111623   4.810  12.582   0.547
 3242SOL    HW211624   4.942  12.635   0.600
 3243SOL     OW11625  12.308   8.993   7.398
 3243SOL    HW111626  12.350   9.019   7.316
 3243SOL    HW211627  12.233   8.940   7.372
 3244SOL     OW11628   4.235   6.161   3.201
 3244SOL    HW111629   4.202   6.247   3.175
 3244SOL    HW211630   4.258   6.118   3.118
 3245SOL     OW11631  11.495  10.730   6.562
 3245SOL    HW111632  11.474  10.676   6.638
 3245SOL    HW211633  11.584  10.704   6.539
 3246SOL     OW11634   1.681   2.579   2.729
 3246SOL    HW111635   1.766   2.584   2.686
 3246SOL    HW211636   1.693   2.626   2.812
 3247SOL     OW11637   8.279   0.626   1.269
 3247SOL    HW111638   8.189   0.598   1.252
 3247SOL    HW211639   8.274   0.680   1.347
 3248SOL     OW11640   1.351   5.736  10.206
 3248SOL    HW111641   1.440   5.764  10.229
 3248SOL    HW211642   1.352   5.641  10.218
 3249SOL     OW11643  13.261   8.778   9.720
 3249SOL    HW111644  13.235   8.856   9.770
 3249SOL    HW211645  13.241   8.705   9.779
 3250SOL     OW11646   3.370   7.157   0.019
 3250SOL    HW111647   3.324   7.108  14.832
 3250SOL    HW211648   3.444   7.198  14.856
 3251SOL     OW11649  10.228   7.489   8.147
 3251SOL    HW111650  10.252   7.413   8.201
 3251SOL    HW211651  10.156   7.457   8.092
 3252SOL     OW11652   2.861   3.760   7.965
 3252SOL    HW111653   2.939   3.792   7.919
 3252SOL    HW211654   2.793   3.824   7.943
 3253SOL     OW11655   0.406   7.356   4.795
 3253SOL    HW111656   0.409   7.328   4.704
 3253SOL    HW211657   0.491   7.331   4.831
 3254SOL     OW11658   2.307   6.146   3.015
 3254SOL    HW111659   2.306   6.233   2.975
 3254SOL    HW211660   2.395   6.113   2.996
 3255SOL     OW11661   2.373  13.027  14.212
 3255SOL    HW111662   2.449  13.036  14.155
 3255SOL    HW211663   2.324  12.954  14.176
 3256SOL     OW11664  13.719  10.189  10.145
 3256SOL    HW111665  13.731  10.282  10.167
 3256SOL    HW211666  13.651  10.189  10.078
 3257SOL     OW11667   2.310  11.146   8.471
 3257SOL    HW111668   2.253  11.200   8.526
 3257SOL    HW211669   2.255  11.124   8.396
 3258SOL     OW11670   1.631   8.217  13.218
 3258SOL    HW111671   1.637   8.255  13.306
 3258SOL    HW211672   1.617   8.124  13.232
 3259SOL     OW11673   7.985  13.591  13.579
 3259SOL    HW111674   7.917  13.581  13.513
 3259SOL    HW211675   8.029  13.506  13.581
 3260SOL     OW11676   9.099   4.029   9.806
 3260SOL    HW111677   9.071   3.962   9.743
 3260SOL    HW211678   9.021   4.046   9.858
 3261SOL     OW11679   7.705  11.437   8.991
 3261SOL    HW111680   7.704  11.341   8.998
 3261SOL    HW211681   7.798  11.460   8.990
 3262SOL     OW11682   7.960  12.269   3.532
 3262SOL    HW111683   7.952  12.248   3.625
 3262SOL    HW211684   7.932  12.189   3.487
 3263SOL     OW11685   7.183   1.838   8.064
 3263SOL    HW111686   7.105   1.808   8.110
 3263SOL    HW211687   7.217   1.760   8.021
 3264SOL     OW11688   1.170   3.588  12.663
 3264SOL    HW111689   1.126   3.571  12.580
 3264SOL    HW211690   1.120   3.538  12.727
 3265SOL     OW11691  10.112   2.451   2.175
 3265SOL    HW111692  10.187   2.496   2.215
 3265SOL    HW211693  10.085   2.510   2.104
 3266SOL     OW11694  12.077  12.943   2.948
 3266SOL    HW111695  12.105  13.000   3.020
 3266SOL    HW211696  12.098  12.993   2.869
 3267SOL     OW11697   3.146   0.450  10.154
 3267SOL    HW111698   3.169   0.480  10.066
 3267SOL    HW211699   3.071   0.504  10.179
 3268SOL     OW11700   3.731   5.430  11.980
 3268SOL    HW111701   3.745   5.437  12.074
 3268SOL    HW211702   3.740   5.337  11.961
 3269SOL     OW11703   1.145  11.026  13.519
 3269SOL    HW111704   1.135  11.084  13.594
 3269SOL    HW211705   1.150  11.085  13.444
 3270SOL     OW11706   0.308  12.360   8.323
 3270SOL    HW111707   0.379  12.337   8.384
 3270SOL    HW211708   0.288  12.278   8.278
 3271SOL     OW11709   3.956   3.646  11.637
 3271SOL    HW111710   3.965   3.741  11.646
 3271SOL    HW211711   4.030   3.620  11.581
 3272SOL     OW11712   4.600  11.697  12.604
 3272SOL    HW111713   4.669  11.686  12.538
 3272SOL    HW211714   4.647  11.706  12.687
 3273SOL     OW11715   2.397   0.721   2.036
 3273SOL    HW111716   2.334   0.658   2.001
 3273SOL    HW211717   2.468   0.667   2.071
 3274SOL     OW11718   7.080  14.298  12.962
 3274SOL    HW111719   6.999  14.269  13.003
 3274SOL    HW211720   7.055  14.320  12.872
 3275SOL     OW11721   2.663  11.944   4.408
 3275SOL    HW111722   2.573  11.933   4.440
 3275SOL    HW211723   2.691  12.028   4.445
 3276SOL     OW11724  10.082   4.028  10.426
 3276SOL    HW111725  10.038   4.105  10.389
 3276SOL    HW211726  10.056   3.956  10.369
 3277SOL     OW11727   6.358  14.702  14.336
 3277SOL    HW111728   6.322  14.704  14.424
 3277SOL    HW211729   6.313  14.629  14.293
 3278SOL     OW11730  11.507   5.160   2.425
 3278SOL    HW111731  11.439   5.093   2.414
 3278SOL    HW211732  11.466   5.241   2.394
 3279SOL     OW11733  14.733  10.048   6.598
 3279SOL    HW111734  14.668  10.009   6.540
 3279SOL    HW211735  14.682  10.084   6.671
 3280SOL     OW11736  11.680   3.362   8.583
 3280SOL    HW111737  11.616   3.432   8.594
 3280SOL    HW211738  11.743   3.376   8.654
 3281SOL     OW11739  10.416   8.274   2.332
 3281SOL    HW111740  10.428   8.285   2.237
 3281SOL    HW211741  10.341   8.329   2.353
 3282SOL     OW11742  11.859   1.605   6.116
 3282SOL    HW111743  11.866   1.567   6.203
 3282SOL    HW211744  11.768   1.636   6.110
 3283SOL     OW11745   5.607   6.122  11.015
 3283SOL    HW111746   5.599   6.026  11.019
 3283SOL    HW211747   5.697   6.139  11.042
 3284SOL     OW11748  11.330   0.328   0.826
 3284SOL    HW111749  11.287   0.244   0.843
 3284SOL    HW211750  11.261   0.393   0.839
 3285SOL     OW11751  13.773   9.680   2.699
 3285SOL    HW111752  13.680   9.664   2.689
 3285SOL    HW211753  13.783   9.774   2.687
 3286SOL     OW11754   7.677   9.338  11.540
 3286SOL    HW111755   7.728   9.418  11.526
 3286SOL    HW211756   7.614   9.362  11.608
 3287SOL     OW11757   9.390   2.647   3.739
 3287SOL    HW111758   9.419   2.703   3.667
 3287SOL    HW211759   9.295   2.639   3.726
 3288SOL     OW11760  10.316   6.839  12.116
 3288SOL    HW111761  10.266   6.794  12.184
 3288SOL    HW211762  10.363   6.908  12.163
 3289SOL     OW11763   4.942   4.653   9.929
 3289SOL    HW111764   5.020   4.686   9.886
 3289SOL    HW211765   4.939   4.560   9.905
 3290SOL     OW11766  10.382  14.251  12.944
 3290SOL    HW111767  10.446  14.230  12.876
 3290SOL    HW211768  10.297  14.245  12.899
 3291SOL     OW11769   3.733   2.248   3.116
 3291SOL    HW111770   3.802   2.311   3.138
 3291SOL    HW211771   3.718   2.262   3.022
 3292SOL     OW11772  10.276  10.990   2.492
 3292SOL    HW111773  10.347  10.942   2.535
 3292SOL    HW211774  10.291  11.081   2.517
 3293SOL     OW11775  10.919   7.973   1.192
 3293SOL    HW111776  10.862   7.899   1.173
 3293SOL    HW211777  10.963   7.991   1.108
 3294SOL     OW11778   6.881  14.672   3.116
 3294SOL    HW111779   6.903  14.765   3.110
 3294SOL    HW211780   6.901  14.649   3.207
 3295SOL     OW11781  12.727   1.346   1.330
 3295SOL    HW111782  12.701   1.348   1.238
 3295SOL    HW211783  12.792   1.276   1.335
 3296SOL     OW11784  11.025   3.830  12.219
 3296SOL    HW111785  11.034   3.876  12.302
 3296SOL    HW211786  11.106   3.849  12.172
 3297SOL     OW11787   3.044   3.076   1.321
 3297SOL    HW111788   3.001   3.026   1.390
 3297SOL    HW211789   3.117   3.120   1.364
 3298SOL     OW11790   9.300   8.403   2.180
 3298SOL    HW111791   9.208   8.404   2.154
 3298SOL    HW211792   9.298   8.400   2.275
 3299SOL     OW11793   3.016  11.232  14.667
 3299SOL    HW111794   3.028  11.263  14.578
 3299SOL    HW211795   2.997  11.312  14.717
 3300SOL     OW11796   7.477   4.029  14.782
 3300SOL    HW111797   7.538   4.051  14.711
 3300SOL    HW211798   7.435   3.948  14.753
 3301SOL     OW11799  11.149  11.654   9.718
 3301SOL    HW111800  11.078  11.594   9.738
 3301SOL    HW211801  11.115  11.708   9.645
 3302SOL     OW11802   6.910   0.939   4.587
 3302SOL    HW111803   6.904   0.887   4.507
 3302SOL    HW211804   6.830   0.992   4.588
 3303SOL     OW11805   3.042   6.968   0.702
 3303SOL    HW111806   2.979   6.942   0.635
 3303SOL    HW211807   3.067   7.057   0.679
 3304SOL     OW11808   1.177   0.902   9.088
 3304SOL    HW111809   1.109   0.960   9.054
 3304SOL    HW211810   1.238   0.960   9.133
 3305SOL     OW11811   1.480   5.550  10.473
 3305SOL    HW111812   1.460   5.456  10.468
 3305SOL    HW211813   1.396   5.592  10.488
 3306SOL     OW11814   6.430  13.465  11.093
 3306SOL    HW111815   6.451  13.556  11.070
 3306SOL    HW211816   6.430  13.419  11.009
 3307SOL     OW11817  12.393   9.366   3.439
 3307SOL    HW111818  12.405   9.458   3.418
 3307SOL    HW211819  12.428   9.357   3.528
 3308SOL     OW11820   5.239   5.149   8.271
 3308SOL    HW111821   5.232   5.058   8.302
 3308SOL    HW211822   5.312   5.148   8.210
 3309SOL     OW11823  10.721   2.491   4.104
 3309SOL    HW111824  10.678   2.484   4.189
 3309SOL    HW211825  10.676   2.427   4.049
 3310SOL     OW11826   8.334   7.225  10.134
 3310SOL    HW111827   8.410   7.231  10.192
 3310SOL    HW211828   8.264   7.269  10.182
 3311SOL     OW11829   0.400   0.832   8.522
 3311SOL    HW111830   0.456   0.758   8.497
 3311SOL    HW211831   0.346   0.796   8.592
 3312SOL     OW11832   8.433  12.503   1.054
 3312SOL    HW111833   8.456  12.479   1.143
 3312SOL    HW211834   8.467  12.592   1.043
 3313SOL     OW11835   5.374   1.474  11.623
 3313SOL    HW111836   5.387   1.528  11.701
 3313SOL    HW211837   5.279   1.459  11.620
 3314SOL     OW11838  10.189   7.817   2.975
 3314SOL    HW111839  10.234   7.736   3.000
 3314SOL    HW211840  10.096   7.798   2.985
 3315SOL     OW11841   8.825  10.487  12.788
 3315SOL    HW111842   8.871  10.531  12.860
 3315SOL    HW211843   8.866  10.400  12.783
 3316SOL     OW11844   1.215  12.423  11.326
 3316SOL    HW111845   1.268  12.356  11.284
 3316SOL    HW211846   1.146  12.375  11.371
 3317SOL     OW11847   2.946   4.521   0.696
 3317SOL    HW111848   2.860   4.488   0.723
 3317SOL    HW211849   2.948   4.611   0.728
 3318SOL     OW11850   1.527   6.465  10.748
 3318SOL    HW111851   1.523   6.370  10.759
 3318SOL    HW211852   1.612   6.490  10.785
 3319SOL     OW11853  10.506   1.287   0.545
 3319SOL    HW111854  10.501   1.206   0.596
 3319SOL    HW211855  10.429   1.285   0.488
 3320SOL     OW11856   1.512  12.909   4.663
 3320SOL    HW111857   1.561  12.949   4.590
 3320SOL    HW211858   1.542  12.818   4.665
 3321SOL     OW11859   8.382   5.130  10.835
 3321SOL    HW111860   8.422   5.163  10.915
 3321SOL    HW211861   8.337   5.206  10.798
 3322SOL     OW11862   2.163   9.699  10.185
 3322SOL    HW111863   2.157   9.783  10.231
 3322SOL    HW211864   2.218   9.718  10.109
 3323SOL     OW11865  10.226   5.834  13.252
 3323SOL    HW111866  10.189   5.922  13.264
 3323SOL    HW211867  10.226   5.821  13.158
 3324SOL     OW11868   1.789   8.715  11.879
 3324SOL    HW111869   1.773   8.658  11.803
 3324SOL    HW211870   1.716   8.697  11.938
 3325SOL     OW11871  10.628   4.274  12.359
 3325SOL    HW111872  10.587   4.301  12.441
 3325SOL    HW211873  10.596   4.185  12.343
 3326SOL     OW11874  11.313   2.552  13.805
 3326SOL    HW111875  11.270   2.513  13.729
 3326SOL    HW211876  11.406   2.552  13.784
 3327SOL     OW11877  10.974   5.803   9.973
 3327SOL    HW111878  11.000   5.719  10.013
 3327SOL    HW211879  11.033   5.814   9.899
 3328SOL     OW11880   7.330  11.999   9.921
 3328SOL    HW111881   7.238  11.979   9.939
 3328SOL    HW211882   7.348  11.954   9.838
 3329SOL     OW11883   7.073   3.202   2.705
 3329SOL    HW111884   7.084   3.123   2.758
 3329SOL    HW211885   7.021   3.173   2.630
 3330SOL     OW11886  10.531   7.225   8.696
 3330SOL    HW111887  10.625   7.240   8.706
 3330SOL    HW211888  10.506   7.176   8.774
 3331SOL     OW11889   5.545   3.088   7.249
 3331SOL    HW111890   5.457   3.094   7.285
 3331SOL    HW211891   5.533   3.050   7.162
 3332SOL     OW11892  13.450   4.033  11.489
 3332SOL    HW111893  13.360   4.066  11.488
 3332SOL    HW211894  13.503   4.108  11.463
 3333SOL     OW11895   1.272   2.966   2.725
 3333SOL    HW111896   1.231   2.905   2.664
 3333SOL    HW211897   1.318   2.910   2.788
 3334SOL     OW11898  13.880  11.265   9.420
 3334SOL    HW111899  13.847  11.241   9.507
 3334SOL    HW211900  13.929  11.346   9.434
 3335SOL     OW11901   6.618   2.267  13.862
 3335SOL    HW111902   6.646   2.304  13.778
 3335SOL    HW211903   6.631   2.173  13.852
 3336SOL     OW11904  12.112  10.183  13.230
 3336SOL    HW111905  12.144  10.181  13.140
 3336SOL    HW211906  12.016  10.180  13.221
 3337SOL     OW11907   0.639   7.325   3.555
 3337SOL    HW111908   0.634   7.353   3.464
 3337SOL    HW211909   0.569   7.260   3.565
 3338SOL     OW11910  12.337   2.344  13.911
 3338SOL    HW111911  12.370   2.360  13.822
 3338SOL    HW211912  12.361   2.423  13.960
 3339SOL     OW11913   2.420  14.521  14.679
 3339SOL    HW111914   2.402  14.431  14.707
 3339SOL    HW211915   2.334  14.555  14.652
 3340SOL     OW11916  12.740  14.677  14.638
 3340SOL    HW111917  12.709  14.641  14.721
 3340SOL    HW211918  12.665  14.724  14.602
 3341SOL     OW11919  14.704   0.591   4.387
 3341SOL    HW111920  14.617   0.579   4.349
 3341SOL    HW211921  14.698   0.553   4.475
 3342SOL     OW11922   7.021   2.694   0.691
 3342SOL    HW111923   6.931   2.726   0.691
 3342SOL    HW211924   7.074   2.770   0.714
 3343SOL     OW11925   1.338   7.575   3.519
 3343SOL    HW111926   1.308   7.595   3.607
 3343SOL    HW211927   1.285   7.500   3.492
 3344SOL     OW11928  11.219  11.737  14.703
 3344SOL    HW111929  11.124  11.735  14.692
 3344SOL    HW211930  11.235  11.812  14.760
 3345SOL     OW11931   9.555   0.315   3.914
 3345SOL    HW111932   9.612   0.240   3.897
 3345SOL    HW211933   9.613   0.391   3.905
 3346SOL     OW11934  14.795  11.726   5.650
 3346SOL    HW111935  14.881  11.753   5.619
 3346SOL    HW211936  14.807  11.712   5.744
 3347SOL     OW11937   2.909   6.820   5.497
 3347SOL    HW111938   2.959   6.738   5.489
 3347SOL    HW211939   2.917   6.861   5.411
 3348SOL     OW11940   3.674   0.962   6.370
 3348SOL    HW111941   3.625   1.043   6.384
 3348SOL    HW211942   3.707   0.970   6.280
 3349SOL     OW11943  10.375  14.423   3.120
 3349SOL    HW111944  10.458  14.412   3.167
 3349SOL    HW211945  10.327  14.488   3.171
 3350SOL     OW11946   6.786  10.211   3.968
 3350SOL    HW111947   6.806  10.235   3.877
 3350SOL    HW211948   6.827  10.125   3.979
 3351SOL     OW11949  10.451   8.346   2.796
 3351SOL    HW111950  10.462   8.368   2.704
 3351SOL    HW211951  10.359   8.320   2.804
 3352SOL     OW11952   5.374   3.501   2.823
 3352SOL    HW111953   5.343   3.590   2.840
 3352SOL    HW211954   5.394   3.466   2.910
 3353SOL     OW11955   7.572   9.126   0.214
 3353SOL    HW111956   7.616   9.042   0.201
 3353SOL    HW211957   7.517   9.137   0.136
 3354SOL     OW11958   4.305   7.068  11.963
 3354SOL    HW111959   4.298   7.008  11.889
 3354SOL    HW211960   4.373   7.130  11.936
 3355SOL     OW11961  11.576   9.267   4.450
 3355SOL    HW111962  11.576   9.353   4.407
 3355SOL    HW211963  11.663   9.262   4.491
 3356SOL     OW11964  12.446   1.006   5.165
 3356SOL    HW111965  12.362   0.994   5.208
 3356SOL    HW211966  12.425   1.014   5.072
 3357SOL     OW11967   0.880   3.320   7.845
 3357SOL    HW111968   0.817   3.325   7.773
 3357SOL    HW211969   0.965   3.335   7.803
 3358SOL     OW11970  12.671   1.202   3.427
 3358SOL    HW111971  12.761   1.235   3.428
 3358SOL    HW211972  12.676   1.118   3.381
 3359SOL     OW11973   3.916   3.672  12.209
 3359SOL    HW111974   3.987   3.635  12.261
 3359SOL    HW211975   3.931   3.767  12.212
 3360SOL     OW11976   5.404   6.472   4.732
 3360SOL    HW111977   5.417   6.560   4.769
 3360SOL    HW211978   5.451   6.475   4.649
 3361SOL     OW11979  10.704  10.407   6.059
 3361SOL    HW111980  10.646  10.465   6.108
 3361SOL    HW211981  10.748  10.354   6.125
 3362SOL     OW11982   0.131   9.251   1.761
 3362SOL    HW111983   0.058   9.198   1.729
 3362SOL    HW211984   0.208   9.214   1.717
 3363SOL     OW11985   9.901   8.364   1.088
 3363SOL    HW111986   9.818   8.402   1.060
 3363SOL    HW211987   9.960   8.439   1.094
 3364SOL     OW11988  12.788   3.301   6.760
 3364SOL    HW111989  12.871   3.302   6.713
 3364SOL    HW211990  12.731   3.246   6.707
 3365SOL     OW11991   6.331   3.539   6.704
 3365SOL    HW111992   6.394   3.611   6.694
 3365SOL    HW211993   6.315   3.534   6.798
 3366SOL     OW11994   3.792   4.618   6.568
 3366SOL    HW111995   3.873   4.662   6.540
 3366SOL    HW211996   3.822   4.539   6.612
 3367SOL     OW11997   8.113  10.681   6.795
 3367SOL    HW111998   8.127  10.586   6.792
 3367SOL    HW211999   8.044  10.697   6.730
 3368SOL     OW12000  12.212  10.664   8.687
 3368SOL    HW112001  12.281  10.729   8.673
 3368SOL    HW212002  12.144  10.686   8.624
 3369SOL     OW12003  13.613  10.972   7.769
 3369SOL    HW112004  13.701  10.987   7.733
 3369SOL    HW212005  13.602  11.042   7.834
 3370SOL     OW12006  11.503   2.546   9.831
 3370SOL    HW112007  11.520   2.478   9.766
 3370SOL    HW212008  11.585   2.557   9.878
 3371SOL     OW12009   6.834   3.719   5.288
 3371SOL    HW112010   6.902   3.782   5.311
 3371SOL    HW212011   6.825   3.727   5.193
 3372SOL     OW12012  14.447  12.529   7.013
 3372SOL    HW112013  14.507  12.476   6.961
 3372SOL    HW212014  14.428  12.605   6.958
 3373SOL     OW12015   6.006   5.840  12.890
 3373SOL    HW112016   6.024   5.918  12.838
 3373SOL    HW212017   5.925   5.805  12.854
 3374SOL     OW12018   0.921   4.710   0.433
 3374SOL    HW112019   0.973   4.690   0.511
 3374SOL    HW212020   0.982   4.757   0.376
 3375SOL     OW12021   3.899   6.153   9.806
 3375SOL    HW112022   3.901   6.112   9.893
 3375SOL    HW212023   3.959   6.227   9.814
 3376SOL     OW12024   4.451   7.877   3.402
 3376SOL    HW112025   4.518   7.888   3.334
 3376SOL    HW212026   4.427   7.966   3.426
 3377SOL     OW12027  12.347   0.412  12.836
 3377SOL    HW112028  12.334   0.320  12.813
 3377SOL    HW212029  12.434   0.433  12.804
 3378SOL     OW12030   1.978   0.441   2.704
 3378SOL    HW112031   1.904   0.391   2.670
 3378SOL    HW212032   1.993   0.510   2.639
 3379SOL     OW12033   1.037   1.522  10.462
 3379SOL    HW112034   1.120   1.565  10.442
 3379SOL    HW212035   1.014   1.477  10.381
 3380SOL     OW12036   4.699   8.682  10.778
 3380SOL    HW112037   4.637   8.740  10.821
 3380SOL    HW212038   4.780   8.691  10.828
 3381SOL     OW12039  13.233   3.316  10.583
 3381SOL    HW112040  13.143   3.338  10.558
 3381SOL    HW212041  13.277   3.296  10.500
 3382SOL     OW12042  14.245   2.860   8.133
 3382SOL    HW112043  14.276   2.772   8.108
 3382SOL    HW212044  14.324   2.907   8.159
 3383SOL     OW12045   2.224   0.013   4.602
 3383SOL    HW112046   2.157   0.041   4.665
 3383SOL    HW212047   2.181   0.022   4.517
 3384SOL     OW12048   8.430  11.837   1.961
 3384SOL    HW112049   8.497  11.780   1.998
 3384SOL    HW212050   8.356  11.829   2.020
 3385SOL     OW12051   1.423   5.925  11.067
 3385SOL    HW112052   1.373   5.868  11.125
 3385SOL    HW212053   1.395   5.900  10.979
 3386SOL     OW12054  13.542   1.191   8.362
 3386SOL    HW112055  13.563   1.218   8.272
 3386SOL    HW212056  13.621   1.146   8.392
 3387SOL     OW12057   0.577   8.338   4.579
 3387SOL    HW112058   0.527   8.400   4.633
 3387SOL    HW212059   0.570   8.372   4.490
 3388SOL     OW12060   5.593   8.964  10.073
 3388SOL    HW112061   5.677   8.919  10.066
 3388SOL    HW212062   5.528   8.893  10.072
 3389SOL     OW12063  13.342  13.954   9.424
 3389SOL    HW112064  13.331  14.020   9.356
 3389SOL    HW212065  13.253  13.929   9.448
 3390SOL     OW12066   8.464   0.436  12.454
 3390SOL    HW112067   8.388   0.399  12.409
 3390SOL    HW212068   8.428   0.474  12.535
 3391SOL     OW12069   0.660  12.946  13.042
 3391SOL    HW112070   0.693  12.858  13.061
 3391SOL    HW212071   0.737  12.993  13.007
 3392SOL     OW12072   8.398   0.421   8.571
 3392SOL    HW112073   8.468   0.476   8.534
 3392SOL    HW212074   8.442   0.341   8.598
 3393SOL     OW12075   5.457  10.410  11.894
 3393SOL    HW112076   5.540  10.373  11.925
 3393SOL    HW212077   5.399  10.334  11.886
 3394SOL     OW12078   5.935  13.637  14.662
 3394SOL    HW112079   5.983  13.563  14.699
 3394SOL    HW212080   5.846  13.628  14.696
 3395SOL     OW12081   0.820   8.153  10.539
 3395SOL    HW112082   0.763   8.101  10.596
 3395SOL    HW212083   0.897   8.097  10.525
 3396SOL     OW12084   3.859   2.463   8.910
 3396SOL    HW112085   3.854   2.490   9.001
 3396SOL    HW212086   3.813   2.379   8.906
 3397SOL     OW12087   7.143  11.286   9.873
 3397SOL    HW112088   7.070  11.262   9.930
 3397SOL    HW212089   7.215  11.306   9.934
 3398SOL     OW12090   4.757   8.918   6.953
 3398SOL    HW112091   4.671   8.875   6.944
 3398SOL    HW212092   4.816   8.862   6.902
 3399SOL     OW12093  12.519   0.112   0.962
 3399SOL    HW112094  12.492   0.049   1.029
 3399SOL    HW212095  12.555   0.186   1.011
 3400SOL     OW12096   6.383   8.329  12.671
 3400SOL    HW112097   6.328   8.330  12.592
 3400SOL    HW212098   6.463   8.284  12.643
 3401SOL     OW12099   4.338   5.506   5.425
 3401SOL    HW112100   4.390   5.572   5.471
 3401SOL    HW212101   4.396   5.431   5.417
 3402SOL     OW12102   5.191   2.965   6.915
 3402SOL    HW112103   5.197   2.870   6.910
 3402SOL    HW212104   5.127   2.982   6.984
 3403SOL     OW12105   5.725   6.288   0.135
 3403SOL    HW112106   5.712   6.207   0.184
 3403SOL    HW212107   5.771   6.346   0.196
 3404SOL     OW12108  14.604  12.278  12.988
 3404SOL    HW112109  14.686  12.312  12.953
 3404SOL    HW212110  14.581  12.339  13.058
 3405SOL     OW12111   4.383   5.622   0.649
 3405SOL    HW112112   4.436   5.564   0.594
 3405SOL    HW212113   4.432   5.704   0.651
 3406SOL     OW12114  11.019   8.491   7.602
 3406SOL    HW112115  11.011   8.564   7.664
 3406SOL    HW212116  11.096   8.443   7.633
 3407SOL     OW12117  10.512   3.028   2.513
 3407SOL    HW112118  10.467   3.103   2.474
 3407SOL    HW212119  10.441   2.969   2.540
 3408SOL     OW12120   5.461  12.762   8.766
 3408SOL    HW112121   5.473  12.667   8.772
 3408SOL    HW212122   5.386  12.774   8.708
 3409SOL     OW12123   5.806   5.682   9.057
 3409SOL    HW112124   5.792   5.712   8.967
 3409SOL    HW212125   5.868   5.609   9.049
 3410SOL     OW12126   8.508   7.645   0.145
 3410SOL    HW112127   8.578   7.709   0.158
 3410SOL    HW212128   8.443   7.667   0.212
 3411SOL     OW12129   5.372   3.768   9.594
 3411SOL    HW112130   5.284   3.749   9.562
 3411SOL    HW212131   5.411   3.824   9.527
 3412SOL     OW12132   2.714   2.419  10.749
 3412SOL    HW112133   2.632   2.378  10.775
 3412SOL    HW212134   2.768   2.347  10.715
 3413SOL     OW12135   1.759   7.622  13.534
 3413SOL    HW112136   1.676   7.658  13.503
 3413SOL    HW212137   1.814   7.618  13.456
 3414SOL     OW12138   7.840   9.581   4.071
 3414SOL    HW112139   7.817   9.504   4.123
 3414SOL    HW212140   7.907   9.549   4.010
 3415SOL     OW12141   2.263   3.576  12.669
 3415SOL    HW112142   2.224   3.530  12.595
 3415SOL    HW212143   2.333   3.519  12.699
 3416SOL     OW12144   5.253   2.485   7.779
 3416SOL    HW112145   5.299   2.419   7.727
 3416SOL    HW212146   5.184   2.517   7.720
 3417SOL     OW12147   6.930  14.844   8.463
 3417SOL    HW112148   6.997  14.778   8.448
 3417SOL    HW212149   6.921  14.848   8.558
 3418SOL     OW12150  13.518   2.116   7.633
 3418SOL    HW112151  13.429   2.088   7.655
 3418SOL    HW212152  13.527   2.202   7.674
 3419SOL     OW12153   5.701   4.660   9.337
 3419SOL    HW112154   5.682   4.570   9.363
 3419SOL    HW212155   5.780   4.653   9.283
 3420SOL     OW12156  10.381  11.589  13.352
 3420SOL    HW112157  10.307  11.622  13.301
 3420SOL    HW212158  10.453  11.649  13.332
 3421SOL     OW12159   2.776  12.295  13.681
 3421SOL    HW112160   2.801  12.378  13.640
 3421SOL    HW212161   2.830  12.230  13.637
 3422SOL     OW12162   6.182  10.453  10.661
 3422SOL    HW112163   6.182  10.504  10.742
 3422SOL    HW212164   6.125  10.502  10.602
 3423SOL     OW12165  10.905  12.496   3.390
 3423SOL    HW112166  10.950  12.509   3.307
 3423SOL    HW212167  10.863  12.580   3.408
 3424SOL     OW12168   7.257   6.923  13.600
 3424SOL    HW112169   7.302   6.927  13.516
 3424SOL    HW212170   7.208   6.841  13.597
 3425SOL     OW12171  13.455   7.982  11.572
 3425SOL    HW112172  13.426   7.971  11.481
 3425SOL    HW212173  13.379   7.954  11.624
 3426SOL     OW12174   4.092   9.670   9.034
 3426SOL    HW112175   4.082   9.676   9.129
 3426SOL    HW212176   4.042   9.592   9.009
 3427SOL     OW12177   2.258  10.988  11.960
 3427SOL    HW112178   2.314  11.066  11.965
 3427SOL    HW212179   2.244  10.975  11.866
 3428SOL     OW12180   3.819  10.860  12.666
 3428SOL    HW112181   3.820  10.929  12.600
 3428SOL    HW212182   3.806  10.906  12.749
 3429SOL     OW12183   8.134  10.714  10.391
 3429SOL    HW112184   8.123  10.793  10.444
 3429SOL    HW212185   8.090  10.645  10.441
 3430SOL     OW12186   2.036  13.588   9.261
 3430SOL    HW112187   2.120  13.603   9.219
 3430SOL    HW212188   1.973  13.637   9.209
 3431SOL     OW12189   6.382   1.751   6.387
 3431SOL    HW112190   6.408   1.812   6.456
 3431SOL    HW212191   6.432   1.671   6.406
 3432SOL     OW12192   2.964  14.685   3.841
 3432SOL    HW112193   3.043  14.631   3.835
 3432SOL    HW212194   2.993  14.768   3.878
 3433SOL     OW12195   7.956  10.838   2.572
 3433SOL    HW112196   8.004  10.875   2.498
 3433SOL    HW212197   8.023  10.804   2.630
 3434SOL     OW12198   8.770  12.931   6.869
 3434SOL    HW112199   8.855  12.965   6.896
 3434SOL    HW212200   8.707  12.973   6.928
 3435SOL     OW12201  13.256   1.424   7.011
 3435SOL    HW112202  13.331   1.477   6.982
 3435SOL    HW212203  13.246   1.358   6.942
 3436SOL     OW12204   3.673   1.776   4.231
 3436SOL    HW112205   3.605   1.724   4.187
 3436SOL    HW212206   3.711   1.715   4.295
 3437SOL     OW12207   9.553   4.307   8.609
 3437SOL    HW112208   9.487   4.356   8.559
 3437SOL    HW212209   9.503   4.259   8.675
 3438SOL     OW12210  10.884   9.672  14.360
 3438SOL    HW112211  10.811   9.620  14.395
 3438SOL    HW212212  10.862   9.762  14.385
 3439SOL     OW12213  14.023  14.152  10.772
 3439SOL    HW112214  14.028  14.196  10.858
 3439SOL    HW212215  14.093  14.192  10.721
 3440SOL     OW12216  14.414   8.198   8.282
 3440SOL    HW112217  14.367   8.152   8.352
 3440SOL    HW212218  14.442   8.129   8.222
 3441SOL     OW12219  14.748   7.708   8.503
 3441SOL    HW112220  14.711   7.757   8.429
 3441SOL    HW212221  14.736   7.616   8.478
 3442SOL     OW12222   6.192   9.268   3.098
 3442SOL    HW112223   6.212   9.178   3.123
 3442SOL    HW212224   6.135   9.260   3.022
 3443SOL     OW12225  13.096  10.751  12.978
 3443SOL    HW112226  13.020  10.777  13.029
 3443SOL    HW212227  13.135  10.679  13.026
 3444SOL     OW12228   9.663  11.993   7.028
 3444SOL    HW112229   9.660  12.088   7.032
 3444SOL    HW212230   9.753  11.973   7.002
 3445SOL     OW12231  14.466   3.795  14.463
 3445SOL    HW112232  14.490   3.885  14.441
 3445SOL    HW212233  14.536   3.742  14.425
 3446SOL     OW12234   2.569   5.444  14.729
 3446SOL    HW112235   2.532   5.395  14.656
 3446SOL    HW212236   2.528   5.406  14.806
 3447SOL     OW12237  10.597  14.693   6.079
 3447SOL    HW112238  10.550  14.611   6.066
 3447SOL    HW212239  10.685  14.666   6.106
 3448SOL     OW12240  12.086   6.306  14.384
 3448SOL    HW112241  12.035   6.282  14.306
 3448SOL    HW212242  12.026   6.361  14.435
 3449SOL     OW12243  12.897   9.594   9.154
 3449SOL    HW112244  12.939   9.544   9.083
 3449SOL    HW212245  12.940   9.679   9.152
 3450SOL     OW12246   7.796   7.551  14.689
 3450SOL    HW112247   7.716   7.604  14.686
 3450SOL    HW212248   7.779   7.479  14.629
 3451SOL     OW12249   3.003   4.781  11.335
 3451SOL    HW112250   3.088   4.749  11.365
 3451SOL    HW212251   3.017   4.802  11.243
 3452SOL     OW12252  14.318  11.307   3.865
 3452SOL    HW112253  14.264  11.327   3.941
 3452SOL    HW212254  14.362  11.389   3.844
 3453SOL     OW12255   4.442  14.875   1.245
 3453SOL    HW112256   4.511   0.057   1.261
 3453SOL    HW212257   4.483  14.811   1.187
 3454SOL     OW12258   5.847   0.601   0.936
 3454SOL    HW112259   5.941   0.586   0.931
 3454SOL    HW212260   5.814   0.533   0.994
 3455SOL     OW12261   8.259   8.483   4.490
 3455SOL    HW112262   8.346   8.498   4.454
 3455SOL    HW212263   8.201   8.534   4.433
 3456SOL     OW12264  11.846   8.091  13.435
 3456SOL    HW112265  11.922   8.054  13.480
 3456SOL    HW212266  11.856   8.061  13.344
 3457SOL     OW12267   2.805   5.460   7.692
 3457SOL    HW112268   2.845   5.435   7.776
 3457SOL    HW212269   2.814   5.555   7.688
 3458SOL     OW12270  10.491  10.263   1.123
 3458SOL    HW112271  10.410  10.311   1.139
 3458SOL    HW212272  10.482  10.183   1.175
 3459SOL     OW12273   0.406   4.855  14.422
 3459SOL    HW112274   0.429   4.785  14.483
 3459SOL    HW212275   0.481   4.915  14.424
 3460SOL     OW12276   1.242  10.042  13.381
 3460SOL    HW112277   1.228   9.949  13.394
 3460SOL    HW212278   1.301  10.068  13.451
 3461SOL     OW12279   8.639  10.561  11.783
 3461SOL    HW112280   8.563  10.535  11.836
 3461SOL    HW212281   8.640  10.657  11.789
 3462SOL     OW12282  13.804   9.854   6.722
 3462SOL    HW112283  13.851   9.779   6.760
 3462SOL    HW212284  13.784   9.827   6.633
 3463SOL     OW12285   3.589  11.881   8.849
 3463SOL    HW112286   3.538  11.801   8.836
 3463SOL    HW212287   3.680  11.851   8.848
 3464SOL     OW12288  11.645  10.748   8.336
 3464SOL    HW112289  11.573  10.727   8.395
 3464SOL    HW212290  11.610  10.731   8.248
 3465SOL     OW12291   7.421  13.074   7.403
 3465SOL    HW112292   7.492  13.082   7.466
 3465SOL    HW212293   7.461  13.095   7.318
 3466SOL     OW12294   6.239  13.894   0.932
 3466SOL    HW112295   6.225  13.961   0.999
 3466SOL    HW212296   6.151  13.868   0.905
 3467SOL     OW12297   5.067   3.828   7.587
 3467SOL    HW112298   5.151   3.783   7.576
 3467SOL    HW212299   5.002   3.762   7.563
 3468SOL     OW12300   9.165   3.682   7.562
 3468SOL    HW112301   9.199   3.636   7.486
 3468SOL    HW212302   9.127   3.762   7.528
 3469SOL     OW12303   8.723   0.537   4.235
 3469SOL    HW112304   8.811   0.562   4.207
 3469SOL    HW212305   8.732   0.446   4.263
 3470SOL     OW12306   2.114  13.199   2.550
 3470SOL    HW112307   2.137  13.243   2.469
 3470SOL    HW212308   2.021  13.179   2.542
 3471SOL     OW12309   0.640  10.884   6.348
 3471SOL    HW112310   0.559  10.865   6.301
 3471SOL    HW212311   0.704  10.902   6.278
 3472SOL     OW12312  13.882   0.894   5.598
 3472SOL    HW112313  13.815   0.890   5.531
 3472SOL    HW212314  13.897   0.803   5.623
 3473SOL     OW12315   1.435   0.242  11.952
 3473SOL    HW112316   1.425   0.249  12.046
 3473SOL    HW212317   1.516   0.191  11.939
 3474SOL     OW12318   4.101  11.766  14.138
 3474SOL    HW112319   4.155  11.744  14.213
 3474SOL    HW212320   4.014  11.735  14.161
 3475SOL     OW12321  10.564   7.414   1.894
 3475SOL    HW112322  10.649   7.370   1.903
 3475SOL    HW212323  10.581   7.505   1.920
 3476SOL     OW12324   7.788   8.643   2.177
 3476SOL    HW112325   7.707   8.595   2.194
 3476SOL    HW212326   7.758   8.729   2.148
 3477SOL     OW12327   5.554  11.683   3.307
 3477SOL    HW112328   5.505  11.610   3.344
 3477SOL    HW212329   5.541  11.755   3.369
 3478SOL     OW12330  12.497   9.695   5.535
 3478SOL    HW112331  12.447   9.739   5.604
 3478SOL    HW212332  12.530   9.616   5.577
 3479SOL     OW12333   6.256   7.162  12.974
 3479SOL    HW112334   6.236   7.242  13.022
 3479SOL    HW212335   6.178   7.146  12.921
 3480SOL     OW12336   9.641   1.499   7.580
 3480SOL    HW112337   9.702   1.433   7.612
 3480SOL    HW212338   9.555   1.458   7.586
 3481SOL     OW12339  13.394   0.097   3.944
 3481SOL    HW112340  13.428   0.048   3.870
 3481SOL    HW212341  13.459   0.166   3.959
 3482SOL     OW12342  11.271   9.554  11.710
 3482SOL    HW112343  11.232   9.553  11.623
 3482SOL    HW212344  11.223   9.487  11.758
 3483SOL     OW12345   4.441  14.816   0.393
 3483SOL    HW112346   4.374  14.792   0.329
 3483SOL    HW212347   4.514  14.756   0.376
 3484SOL     OW12348  14.565   6.119   0.514
 3484SOL    HW112349  14.494   6.161   0.465
 3484SOL    HW212350  14.529   6.035   0.543
 3485SOL     OW12351   3.771  13.789   6.586
 3485SOL    HW112352   3.749  13.740   6.665
 3485SOL    HW212353   3.800  13.722   6.523
 3486SOL     OW12354  12.843   4.864  10.611
 3486SOL    HW112355  12.908   4.904  10.553
 3486SOL    HW212356  12.895   4.826  10.682
 3487SOL     OW12357   9.221   4.870   6.395
 3487SOL    HW112358   9.202   4.797   6.453
 3487SOL    HW212359   9.274   4.930   6.448
 3488SOL     OW12360   6.337   0.876  12.559
 3488SOL    HW112361   6.319   0.783  12.553
 3488SOL    HW212362   6.276   0.909  12.625
 3489SOL     OW12363   0.309   6.963  12.427
 3489SOL    HW112364   0.298   6.947  12.521
 3489SOL    HW212365   0.399   6.997  12.419
 3490SOL     OW12366  12.330   6.626  11.295
 3490SOL    HW112367  12.387   6.700  11.313
 3490SOL    HW212368  12.295   6.600  11.381
 3491SOL     OW12369  11.669  14.592   2.009
 3491SOL    HW112370  11.761  14.602   1.986
 3491SOL    HW212371  11.665  14.617   2.102
 3492SOL     OW12372  14.034   3.675  11.319
 3492SOL    HW112373  13.974   3.670  11.245
 3492SOL    HW212374  14.032   3.587  11.357
 3493SOL     OW12375  12.867   9.797   1.350
 3493SOL    HW112376  12.780   9.759   1.361
 3493SOL    HW212377  12.905   9.748   1.277
 3494SOL     OW12378   5.959  11.693  14.091
 3494SOL    HW112379   6.042  11.667  14.131
 3494SOL    HW212380   5.982  11.712  14.000
 3495SOL     OW12381   8.990  13.924   7.841
 3495SOL    HW112382   8.990  13.902   7.748
 3495SOL    HW212383   9.042  13.855   7.881
 3496SOL     OW12384   8.462   6.352  11.113
 3496SOL    HW112385   8.432   6.421  11.055
 3496SOL    HW212386   8.489   6.397  11.193
 3497SOL     OW12387   4.274   8.381  12.778
 3497SOL    HW112388   4.251   8.290  12.758
 3497SOL    HW212389   4.194   8.430  12.760
 3498SOL     OW12390   5.365   1.651   9.766
 3498SOL    HW112391   5.450   1.689   9.747
 3498SOL    HW212392   5.335   1.616   9.682
 3499SOL     OW12393   0.249   4.465   6.091
 3499SOL    HW112394   0.283   4.432   6.007
 3499SOL    HW212395   0.159   4.432   6.095
 3500SOL     OW12396  13.707   0.986  11.195
 3500SOL    HW112397  13.796   1.020  11.203
 3500SOL    HW212398  13.667   1.040  11.126
 3501SOL     OW12399   4.880   6.079  14.415
 3501SOL    HW112400   4.928   6.162  14.419
 3501SOL    HW212401   4.923   6.023  14.479
 3502SOL     OW12402   8.917   1.596   1.492
 3502SOL    HW112403   8.947   1.545   1.417
 3502SOL    HW212404   8.964   1.679   1.485
 3503SOL     OW12405  11.785   6.129  12.606
 3503SOL    HW112406  11.827   6.214  12.602
 3503SOL    HW212407  11.857   6.066  12.599
 3504SOL     OW12408   0.493   9.197   1.463
 3504SOL    HW112409   0.470   9.105   1.477
 3504SOL    HW212410   0.412   9.238   1.436
 3505SOL     OW12411   0.362   3.768   6.107
 3505SOL    HW112412   0.309   3.775   6.186
 3505SOL    HW212413   0.434   3.710   6.133
 3506SOL     OW12414   2.297   7.732  10.441
 3506SOL    HW112415   2.225   7.716  10.380
 3506SOL    HW212416   2.347   7.650  10.442
 3507SOL     OW12417  10.834  11.057   7.649
 3507SOL    HW112418  10.827  11.147   7.619
 3507SOL    HW212419  10.815  11.061   7.743
 3508SOL     OW12420   6.914  13.877   6.774
 3508SOL    HW112421   6.909  13.813   6.844
 3508SOL    HW212422   6.897  13.961   6.817
 3509SOL     OW12423   3.065   8.480   2.708
 3509SOL    HW112424   2.990   8.432   2.673
 3509SOL    HW212425   3.056   8.472   2.803
 3510SOL     OW12426  10.002   9.389   7.014
 3510SOL    HW112427  10.072   9.370   6.952
 3510SOL    HW212428   9.935   9.323   6.995
 3511SOL     OW12429   8.602  11.572   7.405
 3511SOL    HW112430   8.551  11.513   7.350
 3511SOL    HW212431   8.641  11.516   7.471
 3512SOL     OW12432   4.945   2.786   8.936
 3512SOL    HW112433   4.983   2.861   8.980
 3512SOL    HW212434   4.971   2.797   8.844
 3513SOL     OW12435  10.757  10.084  14.803
 3513SOL    HW112436  10.745  10.169  14.762
 3513SOL    HW212437  10.791  10.103   0.008
 3514SOL     OW12438  13.195  14.096  10.022
 3514SOL    HW112439  13.148  14.178  10.014
 3514SOL    HW212440  13.135  14.037  10.068
 3515SOL     OW12441   6.926   1.489   5.077
 3515SOL    HW112442   6.921   1.399   5.107
 3515SOL    HW212443   6.837   1.510   5.048
 3516SOL     OW12444   3.701   6.601   2.458
 3516SOL    HW112445   3.681   6.671   2.396
 3516SOL    HW212446   3.778   6.632   2.506
 3517SOL     OW12447   8.959  13.707   0.824
 3517SOL    HW112448   9.050  13.694   0.799
 3517SOL    HW212449   8.921  13.754   0.750
 3518SOL     OW12450  11.406   5.495   6.245
 3518SOL    HW112451  11.448   5.526   6.164
 3518SOL    HW212452  11.322   5.542   6.247
 3519SOL     OW12453   7.575   0.255   0.557
 3519SOL    HW112454   7.668   0.237   0.549
 3519SOL    HW212455   7.570   0.351   0.563
 3520SOL     OW12456   0.805  13.201   2.765
 3520SOL    HW112457   0.811  13.293   2.739
 3520SOL    HW212458   0.892  13.166   2.748
 3521SOL     OW12459  12.353   6.077  13.695
 3521SOL    HW112460  12.284   6.040  13.750
 3521SOL    HW212461  12.387   6.003  13.645
 3522SOL     OW12462  10.490  12.338  14.619
 3522SOL    HW112463  10.536  12.409  14.664
 3522SOL    HW212464  10.542  12.259  14.639
 3523SOL     OW12465  12.498   6.651   1.809
 3523SOL    HW112466  12.582   6.696   1.798
 3523SOL    HW212467  12.493   6.590   1.736
 3524SOL     OW12468  12.613   7.785   2.914
 3524SOL    HW112469  12.650   7.699   2.891
 3524SOL    HW212470  12.677   7.847   2.879
 3525SOL     OW12471  13.384   3.856   5.823
 3525SOL    HW112472  13.402   3.839   5.915
 3525SOL    HW212473  13.465   3.831   5.778
 3526SOL     OW12474  14.701   8.623   6.048
 3526SOL    HW112475  14.664   8.696   5.999
 3526SOL    HW212476  14.715   8.657   6.136
 3527SOL     OW12477  13.200   8.300   7.234
 3527SOL    HW112478  13.295   8.296   7.223
 3527SOL    HW212479  13.168   8.334   7.150
 3528SOL     OW12480   2.410   3.182  14.795
 3528SOL    HW112481   2.483   3.224  14.749
 3528SOL    HW212482   2.446   3.156  14.879
 3529SOL     OW12483   8.379   1.336   6.747
 3529SOL    HW112484   8.370   1.395   6.822
 3529SOL    HW212485   8.414   1.391   6.677
 3530SOL     OW12486   0.012   5.139   8.419
 3530SOL    HW112487  14.821   5.185   8.460
 3530SOL    HW212488  14.858   5.104   8.337
 3531SOL     OW12489   5.344   6.650   9.590
 3531SOL    HW112490   5.413   6.623   9.650
 3531SOL    HW212491   5.275   6.684   9.647
 3532SOL     OW12492   6.776   0.564   4.244
 3532SOL    HW112493   6.859   0.519   4.228
 3532SOL    HW212494   6.710   0.505   4.208
 3533SOL     OW12495   8.655   3.359   0.206
 3533SOL    HW112496   8.599   3.436   0.201
 3533SOL    HW212497   8.716   3.368   0.133
 3534SOL     OW12498  13.443   6.917   9.623
 3534SOL    HW112499  13.454   7.005   9.660
 3534SOL    HW212500  13.421   6.932   9.531
 3535SOL     OW12501  11.306  14.099  14.047
 3535SOL    HW112502  11.396  14.119  14.020
 3535SOL    HW212503  11.264  14.065  13.968
 3536SOL     OW12504   1.757   5.116   1.190
 3536SOL    HW112505   1.763   5.207   1.220
 3536SOL    HW212506   1.673   5.111   1.144
 3537SOL     OW12507   0.148   7.855   5.486
 3537SOL    HW112508   0.090   7.889   5.554
 3537SOL    HW212509   0.132   7.912   5.411
 3538SOL     OW12510   1.398   0.894   4.679
 3538SOL    HW112511   1.364   0.842   4.607
 3538SOL    HW212512   1.324   0.948   4.707
 3539SOL     OW12513   2.586  13.238   8.028
 3539SOL    HW112514   2.503  13.255   8.073
 3539SOL    HW212515   2.563  13.241   7.935
 3540SOL     OW12516   3.740  12.252   6.804
 3540SOL    HW112517   3.752  12.196   6.881
 3540SOL    HW212518   3.677  12.204   6.749
 3541SOL     OW12519   6.771   6.957   3.501
 3541SOL    HW112520   6.707   6.989   3.438
 3541SOL    HW212521   6.772   7.022   3.571
 3542SOL     OW12522  14.798   6.724   0.844
 3542SOL    HW112523  14.833   6.690   0.761
 3542SOL    HW212524  14.766   6.646   0.889
 3543SOL     OW12525   5.732  10.071   3.946
 3543SOL    HW112526   5.727  10.142   4.010
 3543SOL    HW212527   5.825  10.065   3.925
 3544SOL     OW12528   8.926   7.412   9.060
 3544SOL    HW112529   8.950   7.505   9.055
 3544SOL    HW212530   9.009   7.367   9.073
 3545SOL     OW12531   3.950  11.477   4.905
 3545SOL    HW112532   4.044  11.480   4.889
 3545SOL    HW212533   3.942  11.489   5.000
 3546SOL     OW12534  10.452   1.453   1.159
 3546SOL    HW112535  10.376   1.403   1.130
 3546SOL    HW212536  10.514   1.444   1.087
 3547SOL     OW12537  13.767   8.301   6.376
 3547SOL    HW112538  13.678   8.274   6.351
 3547SOL    HW212539  13.767   8.299   6.471
 3548SOL     OW12540   6.458  11.029   2.311
 3548SOL    HW112541   6.460  10.934   2.299
 3548SOL    HW212542   6.385  11.044   2.372
 3549SOL     OW12543  10.953   9.094  10.420
 3549SOL    HW112544  11.001   9.029  10.472
 3549SOL    HW212545  10.999   9.096  10.336
 3550SOL     OW12546   1.930  13.485   9.967
 3550SOL    HW112547   1.848  13.485   9.918
 3550SOL    HW212548   1.906  13.517  10.054
 3551SOL     OW12549   5.452  11.394   0.171
 3551SOL    HW112550   5.368  11.431   0.200
 3551SOL    HW212551   5.428  11.331   0.103
 3552SOL     OW12552  13.369  10.215  14.273
 3552SOL    HW112553  13.287  10.174  14.302
 3552SOL    HW212554  13.437  10.170  14.323
 3553SOL     OW12555   3.021  14.114  13.614
 3553SOL    HW112556   2.942  14.156  13.648
 3553SOL    HW212557   3.091  14.146  13.670
 3554SOL     OW12558  10.009  14.637   6.979
 3554SOL    HW112559   9.956  14.716   6.988
 3554SOL    HW212560   9.962  14.583   6.915
 3555SOL     OW12561  13.594   8.746   4.438
 3555SOL    HW112562  13.578   8.660   4.479
 3555SOL    HW212563  13.647   8.726   4.361
 3556SOL     OW12564   8.333   0.596   7.955
 3556SOL    HW112565   8.304   0.676   7.910
 3556SOL    HW212566   8.360   0.537   7.884
 3557SOL     OW12567   6.322  12.850   7.088
 3557SOL    HW112568   6.239  12.880   7.051
 3557SOL    HW212569   6.388  12.904   7.045
 3558SOL     OW12570   5.095   9.071  14.827
 3558SOL    HW112571   5.069   9.044   0.033
 3558SOL    HW212572   5.037   9.144  14.807
 3559SOL     OW12573   4.860   9.912   2.299
 3559SOL    HW112574   4.840   9.979   2.365
 3559SOL    HW212575   4.796   9.843   2.315
 3560SOL     OW12576  13.638   6.789   0.793
 3560SOL    HW112577  13.612   6.880   0.807
 3560SOL    HW212578  13.728   6.794   0.763
 3561SOL     OW12579   8.641  12.213   3.459
 3561SOL    HW112580   8.598  12.228   3.544
 3561SOL    HW212581   8.571  12.179   3.403
 3562SOL     OW12582  10.076   5.933  11.111
 3562SOL    HW112583  10.040   5.850  11.081
 3562SOL    HW212584  10.041   5.944  11.199
 3563SOL     OW12585   5.143  14.228   7.546
 3563SOL    HW112586   5.055  14.231   7.584
 3563SOL    HW212587   5.202  14.238   7.621
 3564SOL     OW12588  12.187   5.894   8.190
 3564SOL    HW112589  12.226   5.840   8.259
 3564SOL    HW212590  12.107   5.848   8.166
 3565SOL     OW12591   6.860  14.033   1.119
 3565SOL    HW112592   6.952  14.024   1.094
 3565SOL    HW212593   6.838  13.949   1.161
 3566SOL     OW12594  10.124   7.785  10.265
 3566SOL    HW112595  10.189   7.718  10.286
 3566SOL    HW212596  10.048   7.736  10.233
 3567SOL     OW12597  14.101   7.107   7.744
 3567SOL    HW112598  14.196   7.108   7.748
 3567SOL    HW212599  14.075   7.191   7.784
 3568SOL     OW12600   2.496   7.512  12.281
 3568SOL    HW112601   2.484   7.603  12.253
 3568SOL    HW212602   2.586   7.509  12.314
 3569SOL     OW12603   1.902  12.481   9.108
 3569SOL    HW112604   1.978  12.523   9.068
 3569SOL    HW212605   1.848  12.451   9.035
 3570SOL     OW12606   9.216   2.600   5.990
 3570SOL    HW112607   9.142   2.547   5.959
 3570SOL    HW212608   9.276   2.536   6.029
 3571SOL     OW12609  12.521  14.154   2.109
 3571SOL    HW112610  12.585  14.154   2.038
 3571SOL    HW212611  12.571  14.130   2.187
 3572SOL     OW12612  14.699  11.117   7.938
 3572SOL    HW112613  14.681  11.051   8.004
 3572SOL    HW212614  14.743  11.070   7.868
 3573SOL     OW12615  10.789  10.605   4.782
 3573SOL    HW112616  10.739  10.645   4.853
 3573SOL    HW212617  10.830  10.528   4.821
 3574SOL     OW12618   4.514  14.814   0.930
 3574SOL    HW112619   4.493  14.786   0.841
 3574SOL    HW212620   4.436  14.861   0.960
 3575SOL     OW12621  13.212   7.681   0.918
 3575SOL    HW112622  13.193   7.642   0.833
 3575SOL    HW212623  13.191   7.774   0.907
 3576SOL     OW12624   9.283   1.532   8.974
 3576SOL    HW112625   9.215   1.571   9.029
 3576SOL    HW212626   9.298   1.596   8.905
 3577SOL     OW12627   0.605   7.859  12.872
 3577SOL    HW112628   0.513   7.867  12.899
 3577SOL    HW212629   0.611   7.770  12.836
 3578SOL     OW12630   2.278  14.288  13.718
 3578SOL    HW112631   2.306  14.265  13.629
 3578SOL    HW212632   2.291  14.208  13.768
 3579SOL     OW12633   1.535   4.845   8.212
 3579SOL    HW112634   1.475   4.791   8.264
 3579SOL    HW212635   1.478   4.909   8.169
 3580SOL     OW12636   5.025   0.445   5.084
 3580SOL    HW112637   5.106   0.452   5.033
 3580SOL    HW212638   5.042   0.495   5.163
 3581SOL     OW12639   0.045   5.544   7.183
 3581SOL    HW112640   0.115   5.560   7.120
 3581SOL    HW212641  14.850   5.525   7.130
 3582SOL     OW12642   4.553   4.998  14.555
 3582SOL    HW112643   4.533   4.905  14.540
 3582SOL    HW212644   4.489   5.045  14.501
 3583SOL     OW12645  10.377   2.847   1.912
 3583SOL    HW112646  10.284   2.824   1.905
 3583SOL    HW212647  10.418   2.809   1.835
 3584SOL     OW12648   1.936   9.769   4.780
 3584SOL    HW112649   1.930   9.697   4.844
 3584SOL    HW212650   1.995   9.832   4.822
 3585SOL     OW12651  12.419   0.318  12.061
 3585SOL    HW112652  12.455   0.279  12.141
 3585SOL    HW212653  12.370   0.395  12.092
 3586SOL     OW12654   4.847   6.664   3.642
 3586SOL    HW112655   4.784   6.626   3.704
 3586SOL    HW212656   4.814   6.639   3.556
 3587SOL     OW12657   3.746  12.345   5.217
 3587SOL    HW112658   3.715  12.263   5.255
 3587SOL    HW212659   3.728  12.410   5.285
 3588SOL     OW12660   3.090   4.840   5.042
 3588SOL    HW112661   3.048   4.825   5.126
 3588SOL    HW212662   3.163   4.900   5.062
 3589SOL     OW12663  12.655  12.436  10.089
 3589SOL    HW112664  12.686  12.453  10.000
 3589SOL    HW212665  12.726  12.387  10.131
 3590SOL     OW12666   8.112   0.630  14.845
 3590SOL    HW112667   8.184   0.574  14.818
 3590SOL    HW212668   8.107   0.620   0.058
 3591SOL     OW12669   6.804  10.973   6.719
 3591SOL    HW112670   6.805  11.059   6.676
 3591SOL    HW212671   6.817  10.993   6.812
 3592SOL     OW12672  10.100   5.020  14.021
 3592SOL    HW112673  10.096   4.925  14.028
 3592SOL    HW212674  10.036   5.042  13.953
 3593SOL     OW12675   0.872   7.529  14.268
 3593SOL    HW112676   0.862   7.481  14.350
 3593SOL    HW212677   0.835   7.472  14.202
 3594SOL     OW12678   0.957   2.131   1.149
 3594SOL    HW112679   0.959   2.220   1.114
 3594SOL    HW212680   0.940   2.142   1.242
 3595SOL     OW12681   3.568   9.744  14.780
 3595SOL    HW112682   3.515   9.693  14.719
 3595SOL    HW212683   3.642   9.775  14.728
 3596SOL     OW12684   5.122   1.301  11.345
 3596SOL    HW112685   5.131   1.396  11.350
 3596SOL    HW212686   5.049   1.287  11.284
 3597SOL     OW12687   4.792   7.456  14.556
 3597SOL    HW112688   4.762   7.384  14.499
 3597SOL    HW212689   4.843   7.413  14.624
 3598SOL     OW12690  14.596   6.851   4.901
 3598SOL    HW112691  14.678   6.825   4.859
 3598SOL    HW212692  14.571   6.775   4.954
 3599SOL     OW12693   5.225  12.412  14.584
 3599SOL    HW112694   5.174  12.493  14.585
 3599SOL    HW212695   5.208  12.374  14.498
 3600SOL     OW12696  13.510   9.435   5.981
 3600SOL    HW112697  13.588   9.381   5.966
 3600SOL    HW212698  13.502   9.488   5.901
 3601SOL     OW12699  11.209  11.530   0.026
 3601SOL    HW112700  11.143  11.597   0.044
 3601SOL    HW212701  11.259  11.565  14.834
 3602SOL     OW12702   5.937  10.741  14.519
 3602SOL    HW112703   5.925  10.716  14.610
 3602SOL    HW212704   6.029  10.721  14.500
 3603SOL     OW12705  10.114  11.650   9.425
 3603SOL    HW112706  10.067  11.633   9.506
 3603SOL    HW212707  10.203  11.669   9.452
 3604SOL     OW12708   2.506   0.466   1.582
 3604SOL    HW112709   2.590   0.432   1.553
 3604SOL    HW212710   2.486   0.538   1.522
 3605SOL     OW12711  12.815   1.142   3.758
 3605SOL    HW112712  12.728   1.149   3.718
 3605SOL    HW212713  12.798   1.131   3.851
 3606SOL     OW12714   2.858   7.897  10.518
 3606SOL    HW112715   2.788   7.848  10.561
 3606SOL    HW212716   2.934   7.840  10.524
 3607SOL     OW12717  14.521   4.085   7.109
 3607SOL    HW112718  14.608   4.103   7.146
 3607SOL    HW212719  14.464   4.149   7.151
 3608SOL     OW12720   3.712   6.715   6.409
 3608SOL    HW112721   3.629   6.718   6.361
 3608SOL    HW212722   3.778   6.731   6.342
 3609SOL     OW12723   1.970   2.885   0.734
 3609SOL    HW112724   2.003   2.874   0.645
 3609SOL    HW212725   2.048   2.886   0.789
 3610SOL     OW12726  10.779   6.403  12.147
 3610SOL    HW112727  10.712   6.424  12.082
 3610SOL    HW212728  10.828   6.330  12.109
 3611SOL     OW12729   2.557  11.594   5.984
 3611SOL    HW112730   2.580  11.529   5.917
 3611SOL    HW212731   2.466  11.575   6.005
 3612SOL     OW12732   0.472   9.887   7.984
 3612SOL    HW112733   0.393   9.918   7.941
 3612SOL    HW212734   0.526   9.965   7.995
 3613SOL     OW12735   0.428  10.563   4.944
 3613SOL    HW112736   0.375  10.490   4.977
 3613SOL    HW212737   0.428  10.552   4.849
 3614SOL     OW12738   9.949  12.520   0.795
 3614SOL    HW112739  10.002  12.454   0.750
 3614SOL    HW212740  10.003  12.599   0.792
 3615SOL     OW12741   8.186  13.844   4.966
 3615SOL    HW112742   8.169  13.935   4.942
 3615SOL    HW212743   8.254  13.850   5.034
 3616SOL     OW12744  13.741   3.436   6.824
 3616SOL    HW112745  13.707   3.371   6.763
 3616SOL    HW212746  13.813   3.392   6.869
 3617SOL     OW12747  13.730   0.906   1.449
 3617SOL    HW112748  13.822   0.881   1.457
 3617SOL    HW212749  13.681   0.830   1.481
 3618SOL     OW12750   1.295   4.877  12.958
 3618SOL    HW112751   1.308   4.815  12.886
 3618SOL    HW212752   1.208   4.914  12.942
 3619SOL     OW12753  12.887   1.806   1.103
 3619SOL    HW112754  12.924   1.719   1.088
 3619SOL    HW212755  12.961   1.858   1.135
 3620SOL     OW12756  13.195   8.032  11.740
 3620SOL    HW112757  13.122   7.977  11.769
 3620SOL    HW212758  13.209   8.093  11.813
 3621SOL     OW12759  11.724   5.799   1.353
 3621SOL    HW112760  11.637   5.783   1.316
 3621SOL    HW212761  11.707   5.822   1.444
 3622SOL     OW12762   8.849  14.413   8.561
 3622SOL    HW112763   8.930  14.462   8.568
 3622SOL    HW212764   8.820  14.427   8.471
 3623SOL     OW12765   4.099   4.043  14.631
 3623SOL    HW112766   4.017   4.047  14.582
 3623SOL    HW212767   4.165   4.018  14.567
 3624SOL     OW12768   2.075  11.654   8.834
 3624SOL    HW112769   2.048  11.737   8.795
 3624SOL    HW212770   2.139  11.679   8.901
 3625SOL     OW12771   0.932   6.543   6.053
 3625SOL    HW112772   0.925   6.622   6.107
 3625SOL    HW212773   0.842   6.521   6.031
 3626SOL     OW12774  13.584   5.295   1.809
 3626SOL    HW112775  13.530   5.312   1.732
 3626SOL    HW212776  13.661   5.249   1.775
 3627SOL     OW12777   0.569   6.943  13.103
 3627SOL    HW112778   0.548   7.009  13.037
 3627SOL    HW212779   0.598   6.993  13.179
 3628SOL     OW12780   0.846   7.413   8.806
 3628SOL    HW112781   0.828   7.474   8.877
 3628SOL    HW212782   0.804   7.331   8.833
 3629SOL     OW12783   4.217   4.637   9.283
 3629SOL    HW112784   4.137   4.661   9.330
 3629SOL    HW212785   4.195   4.650   9.191
 3630SOL     OW12786   1.653   4.347   2.112
 3630SOL    HW112787   1.623   4.353   2.021
 3630SOL    HW212788   1.649   4.437   2.145
 3631SOL     OW12789   5.473  14.540   3.434
 3631SOL    HW112790   5.382  14.570   3.426
 3631SOL    HW212791   5.507  14.585   3.511
 3632SOL     OW12792  10.820   0.551   3.138
 3632SOL    HW112793  10.837   0.456   3.140
 3632SOL    HW212794  10.752   0.564   3.205
 3633SOL     OW12795   9.022  10.682   0.373
 3633SOL    HW112796   8.999  10.770   0.403
 3633SOL    HW212797   8.969  10.624   0.427
 3634SOL     OW12798   7.892  13.314   4.243
 3634SOL    HW112799   7.978  13.355   4.241
 3634SOL    HW212800   7.909  13.220   4.247
 3635SOL     OW12801   7.865  12.941   6.936
 3635SOL    HW112802   7.954  12.949   6.970
 3635SOL    HW212803   7.840  13.030   6.913
 3636SOL     OW12804  13.793   2.589  13.051
 3636SOL    HW112805  13.833   2.504  13.031
 3636SOL    HW212806  13.716   2.567  13.104
 3637SOL     OW12807   1.787  12.235  14.750
 3637SOL    HW112808   1.800  12.329  14.758
 3637SOL    HW212809   1.703  12.218  14.794
 3638SOL     OW12810   7.246  11.013  12.440
 3638SOL    HW112811   7.313  10.978  12.499
 3638SOL    HW212812   7.271  10.979  12.354
 3639SOL     OW12813  14.715  10.591   5.030
 3639SOL    HW112814  14.806  10.578   5.059
 3639SOL    HW212815  14.673  10.637   5.103
 3640SOL     OW12816   4.375   4.433   3.279
 3640SOL    HW112817   4.339   4.378   3.349
 3640SOL    HW212818   4.387   4.373   3.205
 3641SOL     OW12819   3.090   7.509   0.970
 3641SOL    HW112820   3.051   7.572   0.909
 3641SOL    HW212821   3.168   7.553   1.004
 3642SOL     OW12822   2.831   1.239  11.700
 3642SOL    HW112823   2.776   1.162  11.717
 3642SOL    HW212824   2.898   1.236  11.768
 3643SOL     OW12825   6.743   0.825  12.219
 3643SOL    HW112826   6.811   0.819  12.286
 3643SOL    HW212827   6.746   0.915  12.189
 3644SOL     OW12828   3.052   2.088  11.539
 3644SOL    HW112829   3.006   2.168  11.566
 3644SOL    HW212830   3.124   2.119  11.485
 3645SOL     OW12831  14.781  10.010   1.349
 3645SOL    HW112832  14.699   9.996   1.302
 3645SOL    HW212833  14.819   9.922   1.357
 3646SOL     OW12834   9.493   2.928  12.016
 3646SOL    HW112835   9.513   2.843  11.976
 3646SOL    HW212836   9.573   2.951  12.064
 3647SOL     OW12837  11.911   3.041   3.503
 3647SOL    HW112838  11.869   3.014   3.421
 3647SOL    HW212839  11.882   3.131   3.517
 3648SOL     OW12840  12.531   2.425   5.313
 3648SOL    HW112841  12.545   2.365   5.240
 3648SOL    HW212842  12.620   2.450   5.340
 3649SOL     OW12843  13.107  12.947   9.573
 3649SOL    HW112844  13.160  13.024   9.594
 3649SOL    HW212845  13.034  12.950   9.635
 3650SOL     OW12846  13.155  11.759  11.061
 3650SOL    HW112847  13.069  11.753  11.017
 3650SOL    HW212848  13.166  11.673  11.103
 3651SOL     OW12849  11.977  12.748   0.085
 3651SOL    HW112850  12.027  12.671   0.112
 3651SOL    HW212851  12.029  12.788   0.016
 3652SOL     OW12852   2.087   5.800  13.901
 3652SOL    HW112853   2.094   5.830  13.811
 3652SOL    HW212854   1.993   5.809  13.921
 3653SOL     OW12855   0.654   4.168   7.490
 3653SOL    HW112856   0.722   4.230   7.463
 3653SOL    HW212857   0.585   4.222   7.528
 3654SOL     OW12858  12.771  12.256  11.529
 3654SOL    HW112859  12.696  12.234  11.473
 3654SOL    HW212860  12.830  12.181  11.519
 3655SOL     OW12861   5.130  12.671  12.909
 3655SOL    HW112862   5.161  12.759  12.927
 3655SOL    HW212863   5.085  12.678  12.826
 3656SOL     OW12864  14.518   8.849   4.550
 3656SOL    HW112865  14.611   8.839   4.530
 3656SOL    HW212866  14.473   8.807   4.477
 3657SOL     OW12867   4.792  11.813   4.992
 3657SOL    HW112868   4.881  11.788   5.013
 3657SOL    HW212869   4.749  11.825   5.076
 3658SOL     OW12870  12.877   7.158   6.073
 3658SOL    HW112871  12.955   7.198   6.110
 3658SOL    HW212872  12.806   7.217   6.098
 3659SOL     OW12873  13.477   7.922  14.151
 3659SOL    HW112874  13.391   7.890  14.125
 3659SOL    HW212875  13.507   7.860  14.218
 3660SOL     OW12876  14.397  14.061   1.513
 3660SOL    HW112877  14.411  14.019   1.597
 3660SOL    HW212878  14.456  14.137   1.514
 3661SOL     OW12879   4.294   9.999  14.012
 3661SOL    HW112880   4.382   9.994  14.048
 3661SOL    HW212881   4.295   9.942  13.935
 3662SOL     OW12882   8.787   3.958   6.151
 3662SOL    HW112883   8.787   4.050   6.126
 3662SOL    HW212884   8.743   3.956   6.236
 3663SOL     OW12885  14.628  11.497   0.845
 3663SOL    HW112886  14.573  11.539   0.910
 3663SOL    HW212887  14.612  11.546   0.764
 3664SOL     OW12888   3.071  13.503   4.751
 3664SOL    HW112889   3.048  13.582   4.703
 3664SOL    HW212890   3.004  13.439   4.727
 3665SOL     OW12891   8.971   3.664  11.633
 3665SOL    HW112892   8.987   3.702  11.547
 3665SOL    HW212893   9.028   3.588  11.636
 3666SOL     OW12894   7.482  13.647   4.467
 3666SOL    HW112895   7.469  13.555   4.490
 3666SOL    HW212896   7.437  13.657   4.383
 3667SOL     OW12897   5.597  12.349   9.741
 3667SOL    HW112898   5.549  12.339   9.658
 3667SOL    HW212899   5.689  12.335   9.717
 3668SOL     OW12900   7.654   7.384  10.171
 3668SOL    HW112901   7.615   7.307  10.129
 3668SOL    HW212902   7.719   7.349  10.231
 3669SOL     OW12903   2.492   8.156   2.546
 3669SOL    HW112904   2.477   8.180   2.638
 3669SOL    HW212905   2.456   8.229   2.496
 3670SOL     OW12906   1.672   8.712   3.261
 3670SOL    HW112907   1.582   8.694   3.237
 3670SOL    HW212908   1.703   8.630   3.301
 3671SOL     OW12909   1.483   3.850   0.833
 3671SOL    HW112910   1.490   3.885   0.744
 3671SOL    HW212911   1.516   3.760   0.826
 3672SOL     OW12912   7.369   6.262   9.929
 3672SOL    HW112913   7.296   6.210   9.895
 3672SOL    HW212914   7.447   6.226   9.887
 3673SOL     OW12915  10.506   4.399  14.116
 3673SOL    HW112916  10.564   4.475  14.117
 3673SOL    HW212917  10.446   4.414  14.189
 3674SOL     OW12918   7.483   3.020  11.977
 3674SOL    HW112919   7.542   3.094  11.985
 3674SOL    HW212920   7.409   3.053  11.926
 3675SOL     OW12921   3.473   7.960   3.418
 3675SOL    HW112922   3.523   7.972   3.499
 3675SOL    HW212923   3.386   7.933   3.448
 3676SOL     OW12924   4.598  11.604  11.736
 3676SOL    HW112925   4.666  11.537  11.742
 3676SOL    HW212926   4.583  11.614  11.642
 3677SOL     OW12927   4.087   7.367  10.797
 3677SOL    HW112928   4.066   7.461  10.796
 3677SOL    HW212929   4.153   7.356  10.730
 3678SOL     OW12930   5.542   8.354  13.661
 3678SOL    HW112931   5.563   8.333  13.570
 3678SOL    HW212932   5.620   8.327  13.711
 3679SOL     OW12933  10.083   4.397   9.985
 3679SOL    HW112934  10.119   4.416  10.072
 3679SOL    HW212935  10.145   4.437   9.924
 3680SOL     OW12936   8.102   3.607  10.442
 3680SOL    HW112937   8.163   3.681  10.449
 3680SOL    HW212938   8.096   3.590  10.349
 3681SOL     OW12939  10.639  13.081   2.378
 3681SOL    HW112940  10.594  13.004   2.414
 3681SOL    HW212941  10.597  13.156   2.421
 3682SOL     OW12942   7.595   3.275  11.976
 3682SOL    HW112943   7.649   3.256  12.053
 3682SOL    HW212944   7.656   3.269  11.902
 3683SOL     OW12945   1.936  13.645   1.257
 3683SOL    HW112946   1.982  13.706   1.314
 3683SOL    HW212947   1.962  13.558   1.288
 3684SOL     OW12948   3.561   0.756  12.303
 3684SOL    HW112949   3.570   0.661  12.297
 3684SOL    HW212950   3.469   0.769  12.327
 3685SOL     OW12951   7.214  13.963   9.545
 3685SOL    HW112952   7.249  13.902   9.480
 3685SOL    HW212953   7.146  14.012   9.500
 3686SOL     OW12954   0.153   0.163   5.632
 3686SOL    HW112955   0.072   0.206   5.605
 3686SOL    HW212956   0.215   0.184   5.562
 3687SOL     OW12957  13.610   6.222  12.249
 3687SOL    HW112958  13.607   6.141  12.199
 3687SOL    HW212959  13.519   6.250  12.256
 3688SOL     OW12960   0.980  10.170   4.485
 3688SOL    HW112961   0.992  10.075   4.499
 3688SOL    HW212962   0.967  10.205   4.573
 3689SOL     OW12963   0.330   9.888  12.511
 3689SOL    HW112964   0.352   9.965  12.457
 3689SOL    HW212965   0.355   9.913  12.600
 3690SOL     OW12966   4.516   1.865  14.537
 3690SOL    HW112967   4.584   1.922  14.504
 3690SOL    HW212968   4.446   1.924  14.565
 3691SOL     OW12969  10.351   5.819  10.087
 3691SOL    HW112970  10.290   5.868  10.032
 3691SOL    HW212971  10.343   5.729  10.056
 3692SOL     OW12972  13.929   9.936   0.230
 3692SOL    HW112973  13.963   9.850   0.258
 3692SOL    HW212974  14.003   9.976   0.183
 3693SOL     OW12975   0.110   5.443   3.846
 3693SOL    HW112976   0.102   5.498   3.768
 3693SOL    HW212977   0.200   5.459   3.877
 3694SOL     OW12978  12.025   2.263   2.172
 3694SOL    HW112979  12.089   2.229   2.110
 3694SOL    HW212980  12.032   2.358   2.165
 3695SOL     OW12981  14.865  13.372  14.534
 3695SOL    HW112982  14.784  13.411  14.501
 3695SOL    HW212983  14.844  13.347  14.624
 3696SOL     OW12984   4.614   4.426   8.324
 3696SOL    HW112985   4.700   4.468   8.325
 3696SOL    HW212986   4.632   4.332   8.322
 3697SOL     OW12987   0.857  14.438   4.771
 3697SOL    HW112988   0.768  14.420   4.802
 3697SOL    HW212989   0.845  14.464   4.679
 3698SOL     OW12990  12.406   0.079   4.670
 3698SOL    HW112991  12.424   0.025   4.593
 3698SOL    HW212992  12.358   0.021   4.729
 3699SOL     OW12993   2.574   4.817   6.991
 3699SOL    HW112994   2.659   4.785   6.961
 3699SOL    HW212995   2.525   4.833   6.910
 3700SOL     OW12996  13.514   3.774   1.694
 3700SOL    HW112997  13.584   3.712   1.713
 3700SOL    HW212998  13.543   3.855   1.736
 3701SOL     OW12999   2.479   5.666   6.188
 3701SOL    HW113000   2.560   5.713   6.168
 3701SOL    HW213001   2.433   5.661   6.105
 3702SOL     OW13002   6.795   6.882   2.009
 3702SOL    HW113003   6.748   6.890   2.092
 3702SOL    HW213004   6.837   6.796   2.014
 3703SOL     OW13005   1.695   2.012   9.360
 3703SOL    HW113006   1.682   2.006   9.455
 3703SOL    HW213007   1.664   1.928   9.327
 3704SOL     OW13008   5.541   4.502   3.087
 3704SOL    HW113009   5.548   4.477   3.179
 3704SOL    HW213010   5.561   4.422   3.038
 3705SOL     OW13011  12.515   1.686   4.125
 3705SOL    HW113012  12.424   1.713   4.114
 3705SOL    HW213013  12.560   1.720   4.048
 3706SOL     OW13014   7.288  10.588  12.792
 3706SOL    HW113015   7.381  10.572  12.779
 3706SOL    HW213016   7.246  10.505  12.771
 3707SOL     OW13017   4.227   8.435   0.796
 3707SOL    HW113018   4.138   8.465   0.809
 3707SOL    HW213019   4.249   8.387   0.876
 3708SOL     OW13020   6.897  10.798   9.918
 3708SOL    HW113021   6.887  10.716   9.871
 3708SOL    HW213022   6.934  10.859   9.854
 3709SOL     OW13023   8.575  12.698   3.004
 3709SOL    HW113024   8.566  12.787   3.038
 3709SOL    HW213025   8.549  12.642   3.078
 3710SOL     OW13026  13.201  13.177   9.690
 3710SOL    HW113027  13.121  13.200   9.736
 3710SOL    HW213028  13.261  13.250   9.708
 3711SOL     OW13029   8.846   7.792   7.933
 3711SOL    HW113030   8.753   7.770   7.934
 3711SOL    HW213031   8.873   7.776   7.843
 3712SOL     OW13032  13.018   6.253   1.246
 3712SOL    HW113033  13.059   6.204   1.174
 3712SOL    HW213034  13.091   6.280   1.301
 3713SOL     OW13035   8.490   2.111   6.751
 3713SOL    HW113036   8.428   2.087   6.820
 3713SOL    HW213037   8.563   2.150   6.798
 3714SOL     OW13038   3.496   1.246  11.720
 3714SOL    HW113039   3.540   1.190  11.655
 3714SOL    HW213040   3.418   1.197  11.744
 3715SOL     OW13041   7.125  10.713   9.662
 3715SOL    HW113042   7.209  10.675   9.687
 3715SOL    HW213043   7.073  10.639   9.631
 3716SOL     OW13044   0.477   2.766   2.821
 3716SOL    HW113045   0.540   2.810   2.878
 3716SOL    HW213046   0.477   2.675   2.851
 3717SOL     OW13047   3.902  14.612   1.609
 3717SOL    HW113048   3.896  14.542   1.544
 3717SOL    HW213049   3.898  14.693   1.559
 3718SOL     OW13050   5.856   2.755  12.283
 3718SOL    HW113051   5.792   2.768  12.213
 3718SOL    HW213052   5.817   2.797  12.360
 3719SOL     OW13053   4.497   0.969   7.208
 3719SOL    HW113054   4.457   1.052   7.184
 3719SOL    HW213055   4.574   0.994   7.260
 3720SOL     OW13056   1.142   6.821   7.655
 3720SOL    HW113057   1.173   6.773   7.579
 3720SOL    HW213058   1.048   6.803   7.659
 3721SOL     OW13059  14.684   1.144   8.579
 3721SOL    HW113060  14.634   1.118   8.657
 3721SOL    HW213061  14.627   1.205   8.533
 3722SOL     OW13062  13.109   1.426   1.556
 3722SOL    HW113063  13.106   1.335   1.528
 3722SOL    HW213064  13.063   1.427   1.640
 3723SOL     OW13065  12.042  13.040   6.327
 3723SOL    HW113066  12.083  12.982   6.392
 3723SOL    HW213067  11.949  13.038   6.349
 3724SOL     OW13068  11.601  11.815  13.126
 3724SOL    HW113069  11.608  11.867  13.046
 3724SOL    HW213070  11.522  11.848  13.170
 3725SOL     OW13071   0.369   6.448   4.980
 3725SOL    HW113072   0.322   6.435   5.062
 3725SOL    HW213073   0.457   6.475   5.006
 3726SOL     OW13074   1.241   5.974   8.407
 3726SOL    HW113075   1.206   5.941   8.490
 3726SOL    HW213076   1.325   6.014   8.431
 3727SOL     OW13077   1.140   2.597  11.343
 3727SOL    HW113078   1.091   2.662  11.393
 3727SOL    HW213079   1.118   2.513  11.385
 3728SOL     OW13080   6.397  11.112  11.728
 3728SOL    HW113081   6.315  11.063  11.730
 3728SOL    HW213082   6.421  11.122  11.821
 3729SOL     OW13083   5.995   2.276  10.829
 3729SOL    HW113084   5.980   2.188  10.866
 3729SOL    HW213085   6.028   2.327  10.903
 3730SOL     OW13086   5.005  13.022  12.376
 3730SOL    HW113087   5.059  13.019  12.296
 3730SOL    HW213088   4.950  12.944  12.370
 3731SOL     OW13089   6.896   5.103   9.346
 3731SOL    HW113090   6.857   5.119   9.260
 3731SOL    HW213091   6.878   5.011   9.364
 3732SOL     OW13092  11.319   7.104  12.498
 3732SOL    HW113093  11.365   7.084  12.416
 3732SOL    HW213094  11.240   7.150  12.469
 3733SOL     OW13095  11.000   1.958   1.134
 3733SOL    HW113096  11.022   2.044   1.170
 3733SOL    HW213097  10.911   1.967   1.101
 3734SOL     OW13098  12.564   4.672   9.442
 3734SOL    HW113099  12.488   4.729   9.444
 3734SOL    HW213100  12.548   4.613   9.368
 3735SOL     OW13101  10.967   8.358   4.502
 3735SOL    HW113102  11.004   8.396   4.422
 3735SOL    HW213103  10.900   8.420   4.529
 3736SOL     OW13104   7.268   4.168   5.456
 3736SOL    HW113105   7.267   4.132   5.368
 3736SOL    HW213106   7.212   4.246   5.450
 3737SOL     OW13107   2.884  13.785   9.039
 3737SOL    HW113108   2.854  13.793   9.129
 3737SOL    HW213109   2.914  13.874   9.015
 3738SOL     OW13110  14.547  11.208  12.127
 3738SOL    HW113111  14.618  11.273  12.124
 3738SOL    HW213112  14.585  11.129  12.089
 3739SOL     OW13113   2.563   4.215   8.572
 3739SOL    HW113114   2.532   4.125   8.566
 3739SOL    HW213115   2.498   4.259   8.626
 3740SOL     OW13116  10.721   1.758  11.936
 3740SOL    HW113117  10.812   1.773  11.910
 3740SOL    HW213118  10.676   1.840  11.916
 3741SOL     OW13119   6.703   6.392   2.877
 3741SOL    HW113120   6.681   6.476   2.836
 3741SOL    HW213121   6.634   6.379   2.943
 3742SOL     OW13122   4.553  14.139  14.854
 3742SOL    HW113123   4.522  14.051  14.832
 3742SOL    HW213124   4.489  14.198  14.814
 3743SOL     OW13125  14.501  10.453  11.794
 3743SOL    HW113126  14.586  10.417  11.767
 3743SOL    HW213127  14.504  10.453  11.890
 3744SOL     OW13128   6.912  10.365  12.119
 3744SOL    HW113129   6.905  10.385  12.026
 3744SOL    HW213130   6.990  10.412  12.148
 3745SOL     OW13131   4.410  10.794   6.245
 3745SOL    HW113132   4.421  10.885   6.272
 3745SOL    HW213133   4.486  10.749   6.282
 3746SOL     OW13134   6.246   9.844  11.144
 3746SOL    HW113135   6.177   9.911  11.149
 3746SOL    HW213136   6.247   9.804  11.231
 3747SOL     OW13137   8.375   7.515  11.728
 3747SOL    HW113138   8.318   7.481  11.659
 3747SOL    HW213139   8.421   7.588  11.686
 3748SOL     OW13140  10.136  11.832   0.070
 3748SOL    HW113141  10.229  11.831   0.047
 3748SOL    HW213142  10.134  11.866   0.160
 3749SOL     OW13143   4.972   2.526   9.721
 3749SOL    HW113144   4.899   2.486   9.674
 3749SOL    HW213145   4.933   2.597   9.772
 3750SOL     OW13146   9.292   4.885   4.116
 3750SOL    HW113147   9.352   4.815   4.091
 3750SOL    HW213148   9.347   4.947   4.165
 3751SOL     OW13149   3.396   8.066   9.298
 3751SOL    HW113150   3.335   8.051   9.371
 3751SOL    HW213151   3.478   8.027   9.328
 3752SOL     OW13152  10.127  11.294  14.518
 3752SOL    HW113153  10.096  11.364  14.575
 3752SOL    HW213154  10.101  11.321  14.430
 3753SOL     OW13155   8.118  14.002  10.363
 3753SOL    HW113156   8.180  13.983  10.434
 3753SOL    HW213157   8.172  14.004  10.284
 3754SOL     OW13158   1.664   3.226   3.254
 3754SOL    HW113159   1.755   3.248   3.274
 3754SOL    HW213160   1.612   3.283   3.311
 3755SOL     OW13161   7.640   9.443   9.278
 3755SOL    HW113162   7.650   9.469   9.370
 3755SOL    HW213163   7.598   9.357   9.283
 3756SOL     OW13164   7.648   2.888   0.298
 3756SOL    HW113165   7.626   2.834   0.374
 3756SOL    HW213166   7.731   2.853   0.266
 3757SOL     OW13167   3.554   6.329   7.299
 3757SOL    HW113168   3.588   6.277   7.372
 3757SOL    HW213169   3.536   6.265   7.230
 3758SOL     OW13170  10.332  14.122  12.371
 3758SOL    HW113171  10.330  14.046  12.312
 3758SOL    HW213172  10.317  14.197  12.314
 3759SOL     OW13173   5.426   5.772   2.300
 3759SOL    HW113174   5.395   5.812   2.219
 3759SOL    HW213175   5.516   5.803   2.309
 3760SOL     OW13176   3.438   9.574   0.331
 3760SOL    HW113177   3.364   9.545   0.278
 3760SOL    HW213178   3.501   9.609   0.268
 3761SOL     OW13179   7.231   8.668  10.188
 3761SOL    HW113180   7.164   8.699  10.126
 3761SOL    HW213181   7.299   8.735  10.187
 3762SOL     OW13182   6.341   1.213   0.904
 3762SOL    HW113183   6.379   1.186   0.987
 3762SOL    HW213184   6.392   1.166   0.838
 3763SOL     OW13185   9.842  13.320  12.925
 3763SOL    HW113186   9.788  13.398  12.940
 3763SOL    HW213187   9.897  13.342  12.850
 3764SOL     OW13188   0.710  10.305   7.176
 3764SOL    HW113189   0.783  10.367   7.175
 3764SOL    HW213190   0.684  10.296   7.084
 3765SOL     OW13191  13.829  13.303  13.337
 3765SOL    HW113192  13.780  13.297  13.419
 3765SOL    HW213193  13.804  13.224  13.289
 3766SOL     OW13194   7.083   2.380   6.680
 3766SOL    HW113195   7.052   2.433   6.606
 3766SOL    HW213196   7.132   2.308   6.639
 3767SOL     OW13197  13.824   1.902   4.400
 3767SOL    HW113198  13.803   1.937   4.487
 3767SOL    HW213199  13.881   1.969   4.361
 3768SOL     OW13200   8.751   2.480   5.077
 3768SOL    HW113201   8.819   2.439   5.130
 3768SOL    HW213202   8.742   2.423   5.000
 3769SOL     OW13203   9.414   1.914  13.460
 3769SOL    HW113204   9.415   1.970  13.538
 3769SOL    HW213205   9.505   1.885  13.450
 3770SOL     OW13206   6.743  14.377  10.669
 3770SOL    HW113207   6.671  14.340  10.720
 3770SOL    HW213208   6.790  14.434  10.731
 3771SOL     OW13209   0.767   5.911  13.800
 3771SOL    HW113210   0.810   5.995  13.817
 3771SOL    HW213211   0.773   5.863  13.883
 3772SOL     OW13212   8.000   6.825   1.350
 3772SOL    HW113213   8.081   6.869   1.377
 3772SOL    HW213214   7.952   6.812   1.432
 3773SOL     OW13215   2.750   4.711   8.602
 3773SOL    HW113216   2.809   4.729   8.528
 3773SOL    HW213217   2.803   4.730   8.679
 3774SOL     OW13218   6.979   7.559  12.543
 3774SOL    HW113219   6.900   7.547  12.596
 3774SOL    HW213220   7.051   7.536  12.601
 3775SOL     OW13221  12.138   1.369   5.581
 3775SOL    HW113222  12.044   1.357   5.573
 3775SOL    HW213223  12.155   1.368   5.675
 3776SOL     OW13224  10.666   9.288   0.092
 3776SOL    HW113225  10.724   9.247   0.156
 3776SOL    HW213226  10.719   9.355   0.049
 3777SOL     OW13227   0.477   3.722  10.910
 3777SOL    HW113228   0.448   3.645  10.861
 3777SOL    HW213229   0.539   3.765  10.851
 3778SOL     OW13230  13.105  10.061  10.878
 3778SOL    HW113231  13.010  10.058  10.865
 3778SOL    HW213232  13.116  10.049  10.972
 3779SOL     OW13233   5.642   0.993   9.675
 3779SOL    HW113234   5.585   0.942   9.618
 3779SOL    HW213235   5.676   1.063   9.620
 3780SOL     OW13236   8.982   4.242   7.836
 3780SOL    HW113237   8.945   4.327   7.814
 3780SOL    HW213238   8.937   4.217   7.917
 3781SOL     OW13239   4.835   7.881   3.955
 3781SOL    HW113240   4.921   7.864   3.993
 3781SOL    HW213241   4.775   7.825   4.004
 3782SOL     OW13242   4.057  10.232  12.786
 3782SOL    HW113243   4.151  10.249  12.782
 3782SOL    HW213244   4.042  10.196  12.874
 3783SOL     OW13245   3.305   2.726   9.592
 3783SOL    HW113246   3.216   2.730   9.557
 3783SOL    HW213247   3.297   2.674   9.672
 3784SOL     OW13248   7.635  12.040   0.741
 3784SOL    HW113249   7.727  12.013   0.739
 3784SOL    HW213250   7.626  12.090   0.822
 3785SOL     OW13251  13.449   1.535  12.195
 3785SOL    HW113252  13.467   1.625  12.171
 3785SOL    HW213253  13.530   1.504  12.236
 3786SOL     OW13254   7.526   5.299   5.690
 3786SOL    HW113255   7.481   5.367   5.639
 3786SOL    HW213256   7.460   5.269   5.753
 3787SOL     OW13257  13.285   8.230   8.152
 3787SOL    HW113258  13.315   8.288   8.082
 3787SOL    HW213259  13.299   8.142   8.118
 3788SOL     OW13260  12.409   7.194  10.415
 3788SOL    HW113261  12.466   7.267  10.390
 3788SOL    HW213262  12.468   7.129  10.454
 3789SOL     OW13263  12.102   9.349   3.868
 3789SOL    HW113264  12.190   9.320   3.893
 3789SOL    HW213265  12.051   9.344   3.949
 3790SOL     OW13266  13.141  13.093   3.105
 3790SOL    HW113267  13.210  13.035   3.072
 3790SOL    HW213268  13.062  13.062   3.061
 3791SOL     OW13269   4.021   2.432  12.777
 3791SOL    HW113270   4.021   2.425  12.681
 3791SOL    HW213271   4.069   2.354  12.807
 3792SOL     OW13272  11.060  13.789   6.733
 3792SOL    HW113273  11.133  13.818   6.679
 3792SOL    HW213274  11.052  13.695   6.715
 3793SOL     OW13275   5.376   8.570   5.979
 3793SOL    HW113276   5.428   8.584   6.058
 3793SOL    HW213277   5.346   8.479   5.985
 3794SOL     OW13278   4.045  11.748   7.119
 3794SOL    HW113279   4.057  11.738   7.214
 3794SOL    HW213280   3.952  11.728   7.105
 3795SOL     OW13281   7.746   7.960   7.120
 3795SOL    HW113282   7.816   7.997   7.173
 3795SOL    HW213283   7.741   7.868   7.147
 3796SOL     OW13284  11.190   6.348   8.108
 3796SOL    HW113285  11.276   6.387   8.094
 3796SOL    HW213286  11.165   6.377   8.196
 3797SOL     OW13287   5.052  13.625  13.632
 3797SOL    HW113288   4.999  13.696  13.669
 3797SOL    HW213289   5.138  13.664  13.619
 3798SOL     OW13290   1.583  12.591  10.248
 3798SOL    HW113291   1.656  12.546  10.206
 3798SOL    HW213292   1.592  12.571  10.341
 3799SOL     OW13293  12.950   5.088   0.205
 3799SOL    HW113294  12.917   5.083   0.295
 3799SOL    HW213295  12.878   5.128   0.156
 3800SOL     OW13296  11.766   9.086   6.094
 3800SOL    HW113297  11.717   9.069   6.013
 3800SOL    HW213298  11.752   9.179   6.111
 3801SOL     OW13299   8.205   0.521   7.724
 3801SOL    HW113300   8.133   0.516   7.787
 3801SOL    HW213301   8.164   0.503   7.640
 3802SOL     OW13302   0.814  13.543   8.206
 3802SOL    HW113303   0.752  13.500   8.265
 3802SOL    HW213304   0.873  13.473   8.178
 3803SOL     OW13305  11.460  10.966   9.645
 3803SOL    HW113306  11.402  11.011   9.585
 3803SOL    HW213307  11.541  10.953   9.595
 3804SOL     OW13308   4.019   8.484  12.723
 3804SOL    HW113309   3.971   8.528  12.653
 3804SOL    HW213310   3.958   8.418  12.756
 3805SOL     OW13311  12.985   6.780  13.411
 3805SOL    HW113312  12.931   6.769  13.490
 3805SOL    HW213313  12.960   6.865  13.376
 3806SOL     OW13314  11.845  12.802   5.314
 3806SOL    HW113315  11.874  12.837   5.398
 3806SOL    HW213316  11.872  12.710   5.317
 3807SOL     OW13317   1.065   7.002   3.444
 3807SOL    HW113318   1.056   7.089   3.407
 3807SOL    HW213319   1.089   7.018   3.536
 3808SOL     OW13320   2.244   0.494   0.387
 3808SOL    HW113321   2.336   0.516   0.394
 3808SOL    HW213322   2.222   0.510   0.295
 3809SOL     OW13323   2.920  14.256  13.107
 3809SOL    HW113324   2.908  14.209  13.190
 3809SOL    HW213325   2.851  14.221  13.050
 3810SOL     OW13326   3.984   9.492   2.894
 3810SOL    HW113327   3.962   9.429   2.962
 3810SOL    HW213328   4.041   9.444   2.834
 3811SOL     OW13329   9.289  14.611   2.101
 3811SOL    HW113330   9.322  14.524   2.123
 3811SOL    HW213331   9.309  14.623   2.009
 3812SOL     OW13332   5.870   6.848   3.420
 3812SOL    HW113333   5.917   6.767   3.402
 3812SOL    HW213334   5.852   6.885   3.334
 3813SOL     OW13335  11.309  11.237   3.290
 3813SOL    HW113336  11.239  11.239   3.225
 3813SOL    HW213337  11.285  11.305   3.353
 3814SOL     OW13338  14.601  11.003   8.525
 3814SOL    HW113339  14.552  11.065   8.579
 3814SOL    HW213340  14.684  10.992   8.571
 3815SOL     OW13341   9.496  13.327   6.625
 3815SOL    HW113342   9.410  13.362   6.647
 3815SOL    HW213343   9.504  13.247   6.678
 3816SOL     OW13344   3.776   7.615  10.824
 3816SOL    HW113345   3.863   7.603  10.785
 3816SOL    HW213346   3.752   7.705  10.801
 3817SOL     OW13347   4.183   1.363   6.616
 3817SOL    HW113348   4.248   1.315   6.565
 3817SOL    HW213349   4.150   1.300   6.680
 3818SOL     OW13350   7.178   9.975   9.818
 3818SOL    HW113351   7.155  10.046   9.759
 3818SOL    HW213352   7.198   9.901   9.760
 3819SOL     OW13353  10.611  11.114   2.337
 3819SOL    HW113354  10.527  11.155   2.316
 3819SOL    HW213355  10.632  11.060   2.261
 3820SOL     OW13356   8.665   8.665   6.048
 3820SOL    HW113357   8.658   8.736   6.112
 3820SOL    HW213358   8.746   8.684   6.000
 3821SOL     OW13359   0.839   1.961   5.760
 3821SOL    HW113360   0.821   1.875   5.722
 3821SOL    HW213361   0.847   2.019   5.684
 3822SOL     OW13362   8.861   3.493   2.879
 3822SOL    HW113363   8.866   3.546   2.958
 3822SOL    HW213364   8.801   3.540   2.822
 3823SOL     OW13365   3.787   5.492   7.695
 3823SOL    HW113366   3.799   5.566   7.755
 3823SOL    HW213367   3.693   5.474   7.696
 3824SOL     OW13368   3.245   2.521   4.174
 3824SOL    HW113369   3.281   2.456   4.234
 3824SOL    HW213370   3.296   2.600   4.191
 3825SOL     OW13371   7.083   0.359  10.305
 3825SOL    HW113372   7.089   0.348  10.400
 3825SOL    HW213373   7.174   0.366  10.275
 3826SOL     OW13374  13.765   3.042   3.238
 3826SOL    HW113375  13.837   2.985   3.265
 3826SOL    HW213376  13.690   2.983   3.228
 3827SOL     OW13377  11.164   9.758   3.276
 3827SOL    HW113378  11.080   9.742   3.319
 3827SOL    HW213379  11.219   9.796   3.344
 3828SOL     OW13380  12.216   7.164  12.778
 3828SOL    HW113381  12.165   7.129  12.705
 3828SOL    HW213382  12.178   7.124  12.856
 3829SOL     OW13383   3.503   8.216   6.411
 3829SOL    HW113384   3.422   8.217   6.361
 3829SOL    HW213385   3.516   8.124   6.434
 3830SOL     OW13386   9.808   2.227  12.317
 3830SOL    HW113387   9.891   2.273  12.331
 3830SOL    HW213388   9.782   2.251  12.228
 3831SOL     OW13389   1.351  10.828  10.339
 3831SOL    HW113390   1.378  10.790  10.255
 3831SOL    HW213391   1.353  10.755  10.400
 3832SOL     OW13392  11.797   7.193   9.856
 3832SOL    HW113393  11.733   7.135   9.815
 3832SOL    HW213394  11.870   7.136   9.879
 3833SOL     OW13395   0.847   8.341   9.506
 3833SOL    HW113396   0.792   8.294   9.443
 3833SOL    HW213397   0.833   8.434   9.485
 3834SOL     OW13398   8.200   9.280   5.583
 3834SOL    HW113399   8.115   9.313   5.555
 3834SOL    HW213400   8.192   9.269   5.677
 3835SOL     OW13401   9.044   8.629   5.355
 3835SOL    HW113402   9.020   8.536   5.349
 3835SOL    HW213403   9.139   8.630   5.345
 3836SOL     OW13404  14.142   4.919  10.277
 3836SOL    HW113405  14.224   4.873  10.264
 3836SOL    HW213406  14.075   4.857  10.250
 3837SOL     OW13407   3.532  11.162  14.321
 3837SOL    HW113408   3.517  11.169  14.227
 3837SOL    HW213409   3.627  11.167  14.331
 3838SOL     OW13410  11.320  11.932   5.860
 3838SOL    HW113411  11.264  11.928   5.783
 3838SOL    HW213412  11.261  11.914   5.933
 3839SOL     OW13413   9.524   1.371  12.870
 3839SOL    HW113414   9.587   1.367  12.798
 3839SOL    HW213415   9.442   1.399  12.829
 3840SOL     OW13416  13.006   3.450   4.836
 3840SOL    HW113417  12.974   3.462   4.746
 3840SOL    HW213418  13.044   3.534   4.860
 3841SOL     OW13419   5.975  11.401   0.971
 3841SOL    HW113420   5.960  11.307   0.981
 3841SOL    HW213421   5.950  11.420   0.881
 3842SOL     OW13422  13.738  13.494   0.681
 3842SOL    HW113423  13.737  13.580   0.638
 3842SOL    HW213424  13.707  13.512   0.770
 3843SOL     OW13425   4.743   6.234   1.222
 3843SOL    HW113426   4.776   6.192   1.301
 3843SOL    HW213427   4.710   6.161   1.169
 3844SOL     OW13428   8.465   2.245  14.503
 3844SOL    HW113429   8.434   2.310  14.440
 3844SOL    HW213430   8.400   2.247  14.573
 3845SOL     OW13431  12.812  12.238   2.324
 3845SOL    HW113432  12.762  12.264   2.247
 3845SOL    HW213433  12.766  12.278   2.398
 3846SOL     OW13434   3.007   3.371   7.138
 3846SOL    HW113435   3.030   3.296   7.192
 3846SOL    HW213436   2.940   3.418   7.188
 3847SOL     OW13437   8.795   3.612  10.927
 3847SOL    HW113438   8.746   3.557  10.865
 3847SOL    HW213439   8.743   3.610  11.007
 3848SOL     OW13440   2.854  14.152  12.581
 3848SOL    HW113441   2.881  14.099  12.507
 3848SOL    HW213442   2.854  14.091  12.655
 3849SOL     OW13443  10.858   8.705   3.075
 3849SOL    HW113444  10.811   8.773   3.027
 3849SOL    HW213445  10.795   8.675   3.141
 3850SOL     OW13446   0.568   4.408   0.440
 3850SOL    HW113447   0.553   4.332   0.384
 3850SOL    HW213448   0.624   4.466   0.389
 3851SOL     OW13449   0.437  12.482  11.377
 3851SOL    HW113450   0.376  12.447  11.442
 3851SOL    HW213451   0.521  12.441  11.398
 3852SOL     OW13452   7.261   7.661   7.780
 3852SOL    HW113453   7.320   7.676   7.854
 3852SOL    HW213454   7.276   7.569   7.756
 3853SOL     OW13455   2.864   0.077   2.495
 3853SOL    HW113456   2.809   0.023   2.439
 3853SOL    HW213457   2.878   0.023   2.573
 3854SOL     OW13458  11.454   6.248   8.668
 3854SOL    HW113459  11.463   6.297   8.587
 3854SOL    HW213460  11.517   6.288   8.728
 3855SOL     OW13461   7.087  12.512  12.144
 3855SOL    HW113462   7.123  12.429  12.177
 3855SOL    HW213463   7.091  12.571  12.220
 3856SOL     OW13464  11.839  11.999   0.732
 3856SOL    HW113465  11.838  12.061   0.659
 3856SOL    HW213466  11.836  11.913   0.691
 3857SOL     OW13467   4.468   1.454   7.342
 3857SOL    HW113468   4.416   1.434   7.419
 3857SOL    HW213469   4.547   1.401   7.352
 3858SOL     OW13470  10.948  13.847   9.461
 3858SOL    HW113471  10.873  13.845   9.402
 3858SOL    HW213472  11.021  13.816   9.407
 3859SOL     OW13473   0.019   4.021  11.265
 3859SOL    HW113474   0.046   4.080  11.336
 3859SOL    HW213475   0.075   4.045  11.192
 3860SOL     OW13476   2.577   3.201   2.917
 3860SOL    HW113477   2.570   3.279   2.972
 3860SOL    HW213478   2.605   3.235   2.831
 3861SOL     OW13479   4.312   2.009   2.643
 3861SOL    HW113480   4.235   2.066   2.645
 3861SOL    HW213481   4.303   1.959   2.562
 3862SOL     OW13482   7.323   5.707   8.024
 3862SOL    HW113483   7.344   5.778   7.963
 3862SOL    HW213484   7.314   5.630   7.968
 3863SOL     OW13485   5.914   6.609   4.807
 3863SOL    HW113486   5.980   6.608   4.877
 3863SOL    HW213487   5.952   6.665   4.739
 3864SOL     OW13488   3.251  11.960   8.756
 3864SOL    HW113489   3.162  11.932   8.777
 3864SOL    HW213490   3.303  11.880   8.759
 3865SOL     OW13491   1.015   8.516   1.372
 3865SOL    HW113492   1.094   8.571   1.370
 3865SOL    HW213493   0.981   8.519   1.283
 3866SOL     OW13494   8.299   4.534  11.162
 3866SOL    HW113495   8.230   4.492  11.213
 3866SOL    HW213496   8.376   4.479  11.175
 3867SOL     OW13497   4.030   1.388   9.481
 3867SOL    HW113498   4.091   1.318   9.505
 3867SOL    HW213499   3.952   1.372   9.535
 3868SOL     OW13500   0.275  12.336  11.587
 3868SOL    HW113501   0.326  12.327  11.668
 3868SOL    HW213502   0.212  12.264  11.591
 3869SOL     OW13503   8.185   9.291   1.732
 3869SOL    HW113504   8.160   9.372   1.778
 3869SOL    HW213505   8.105   9.238   1.732
 3870SOL     OW13506  13.524   3.024  11.341
 3870SOL    HW113507  13.433   3.006  11.365
 3870SOL    HW213508  13.545   2.960  11.274
 3871SOL     OW13509  10.797   2.531   5.057
 3871SOL    HW113510  10.810   2.443   5.022
 3871SOL    HW213511  10.707   2.531   5.089
 3872SOL     OW13512  14.181   6.950  14.235
 3872SOL    HW113513  14.165   6.970  14.327
 3872SOL    HW213514  14.192   7.036  14.193
 3873SOL     OW13515   7.693  13.702  13.504
 3873SOL    HW113516   7.748  13.627  13.481
 3873SOL    HW213517   7.741  13.778  13.471
 3874SOL     OW13518   5.224   4.756  10.033
 3874SOL    HW113519   5.218   4.830  10.095
 3874SOL    HW213520   5.216   4.796   9.947
 3875SOL     OW13521  13.095   8.061   1.014
 3875SOL    HW113522  13.119   8.010   1.091
 3875SOL    HW213523  13.057   8.141   1.050
 3876SOL     OW13524   6.062  13.397  14.709
 3876SOL    HW113525   6.124  13.330  14.680
 3876SOL    HW213526   5.998  13.350  14.762
 3877SOL     OW13527  11.089   4.937   2.068
 3877SOL    HW113528  11.062   5.009   2.124
 3877SOL    HW213529  11.017   4.928   2.005
 3878SOL     OW13530  13.854  14.496   5.245
 3878SOL    HW113531  13.922  14.441   5.205
 3878SOL    HW213532  13.901  14.569   5.285
 3879SOL     OW13533   8.975   3.012   6.321
 3879SOL    HW113534   9.046   3.067   6.287
 3879SOL    HW213535   8.895   3.050   6.284
 3880SOL     OW13536   4.842   5.318   5.124
 3880SOL    HW113537   4.879   5.304   5.036
 3880SOL    HW213538   4.753   5.350   5.108
 3881SOL     OW13539   5.936   2.744   7.524
 3881SOL    HW113540   5.899   2.702   7.602
 3881SOL    HW213541   5.865   2.743   7.460
 3882SOL     OW13542   4.314   8.746   4.875
 3882SOL    HW113543   4.263   8.666   4.887
 3882SOL    HW213544   4.366   8.730   4.797
 3883SOL     OW13545  11.185   2.028   7.795
 3883SOL    HW113546  11.225   2.060   7.876
 3883SOL    HW213547  11.148   2.106   7.754
 3884SOL     OW13548  14.068  14.181   8.079
 3884SOL    HW113549  14.040  14.116   8.144
 3884SOL    HW213550  14.057  14.136   7.995
 3885SOL     OW13551   5.797   8.989  14.363
 3885SOL    HW113552   5.799   9.004  14.269
 3885SOL    HW213553   5.889   8.992  14.390
 3886SOL     OW13554   2.650   1.721   5.845
 3886SOL    HW113555   2.568   1.757   5.810
 3886SOL    HW213556   2.702   1.798   5.868
 3887SOL     OW13557   8.936   8.816   9.052
 3887SOL    HW113558   8.976   8.861   8.977
 3887SOL    HW213559   8.994   8.837   9.126
 3888SOL     OW13560   9.414   8.669   6.513
 3888SOL    HW113561   9.417   8.588   6.563
 3888SOL    HW213562   9.327   8.671   6.474
 3889SOL     OW13563   6.871   6.331   3.833
 3889SOL    HW113564   6.926   6.321   3.911
 3889SOL    HW213565   6.909   6.271   3.769
 3890SOL     OW13566  10.839   8.489   5.656
 3890SOL    HW113567  10.927   8.467   5.627
 3890SOL    HW213568  10.822   8.430   5.730
 3891SOL     OW13569   7.348   4.166   0.857
 3891SOL    HW113570   7.438   4.198   0.862
 3891SOL    HW213571   7.350   4.081   0.900
 3892SOL     OW13572   7.134   6.432   9.284
 3892SOL    HW113573   7.145   6.340   9.311
 3892SOL    HW213574   7.193   6.481   9.341
 3893SOL     OW13575  13.314  13.770  10.603
 3893SOL    HW113576  13.374  13.696  10.600
 3893SOL    HW213577  13.369  13.845  10.627
 3894SOL     OW13578   7.475   1.478  13.030
 3894SOL    HW113579   7.421   1.405  13.057
 3894SOL    HW213580   7.541   1.440  12.972
 3895SOL     OW13581   9.187   5.117   3.751
 3895SOL    HW113582   9.239   5.189   3.785
 3895SOL    HW213583   9.103   5.124   3.797
 3896SOL     OW13584   0.099   1.307   6.299
 3896SOL    HW113585   0.019   1.299   6.350
 3896SOL    HW213586   0.106   1.400   6.279
 3897SOL     OW13587  14.426  11.426  11.390
 3897SOL    HW113588  14.400  11.512  11.422
 3897SOL    HW213589  14.362  11.365  11.427
 3898SOL     OW13590   9.434   3.359   3.387
 3898SOL    HW113591   9.386   3.312   3.319
 3898SOL    HW213592   9.509   3.397   3.342
 3899SOL     OW13593   5.521  13.931  10.938
 3899SOL    HW113594   5.544  13.937  10.845
 3899SOL    HW213595   5.553  13.845  10.965
 3900SOL     OW13596   9.218   6.368  13.753
 3900SOL    HW113597   9.138   6.330  13.717
 3900SOL    HW213598   9.285   6.353  13.686
 3901SOL     OW13599   3.051   6.332   8.670
 3901SOL    HW113600   3.125   6.378   8.630
 3901SOL    HW213601   3.015   6.278   8.600
 3902SOL     OW13602   2.862   5.746  11.535
 3902SOL    HW113603   2.818   5.666  11.506
 3902SOL    HW213604   2.954   5.733  11.514
 3903SOL     OW13605   4.595   2.309  13.997
 3903SOL    HW113606   4.612   2.403  13.997
 3903SOL    HW213607   4.549   2.293  13.914
 3904SOL     OW13608   3.225   3.887  13.443
 3904SOL    HW113609   3.154   3.932  13.490
 3904SOL    HW213610   3.221   3.797  13.475
 3905SOL     OW13611  11.154   9.488  12.879
 3905SOL    HW113612  11.181   9.542  12.805
 3905SOL    HW213613  11.063   9.467  12.861
 3906SOL     OW13614  13.476  13.511   8.423
 3906SOL    HW113615  13.484  13.436   8.365
 3906SOL    HW213616  13.393  13.497   8.470
 3907SOL     OW13617  14.200  14.668  14.003
 3907SOL    HW113618  14.235  14.740  14.056
 3907SOL    HW213619  14.137  14.624  14.061
 3908SOL     OW13620   8.277   6.583   9.382
 3908SOL    HW113621   8.240   6.545   9.303
 3908SOL    HW213622   8.233   6.668   9.391
 3909SOL     OW13623   9.769  11.901  13.009
 3909SOL    HW113624   9.808  11.989  13.002
 3909SOL    HW213625   9.832  11.851  13.061
 3910SOL     OW13626   7.064   4.870  11.262
 3910SOL    HW113627   7.021   4.912  11.187
 3910SOL    HW213628   7.101   4.942  11.313
 3911SOL     OW13629   3.115   2.824  11.993
 3911SOL    HW113630   3.073   2.873  12.064
 3911SOL    HW213631   3.044   2.803  11.933
 3912SOL     OW13632   5.169   2.072  12.088
 3912SOL    HW113633   5.152   2.064  12.182
 3912SOL    HW213634   5.126   2.154  12.064
 3913SOL     OW13635   5.059   4.357  13.967
 3913SOL    HW113636   5.137   4.365  14.022
 3913SOL    HW213637   5.043   4.263  13.962
 3914SOL     OW13638   6.888   0.091  13.397
 3914SOL    HW113639   6.922   0.066  13.483
 3914SOL    HW213640   6.897   0.011  13.344
 3915SOL     OW13641   8.304   9.692   7.349
 3915SOL    HW113642   8.374   9.643   7.306
 3915SOL    HW213643   8.350   9.763   7.395
 3916SOL     OW13644  13.912   6.039  14.500
 3916SOL    HW113645  13.886   5.948  14.495
 3916SOL    HW213646  13.865   6.081  14.427
 3917SOL     OW13647   7.823   7.765   1.992
 3917SOL    HW113648   7.873   7.778   2.073
 3917SOL    HW213649   7.792   7.852   1.968
 3918SOL     OW13650   6.794   7.622   3.188
 3918SOL    HW113651   6.756   7.666   3.264
 3918SOL    HW213652   6.727   7.628   3.121
 3919SOL     OW13653   3.261   9.681   2.137
 3919SOL    HW113654   3.259   9.690   2.041
 3919SOL    HW213655   3.244   9.588   2.152
 3920SOL     OW13656   3.777   2.552  12.825
 3920SOL    HW113657   3.867   2.519  12.826
 3920SOL    HW213658   3.735   2.504  12.753
 3921SOL     OW13659  10.061   2.932  13.321
 3921SOL    HW113660   9.993   2.957  13.258
 3921SOL    HW213661  10.025   2.957  13.406
 3922SOL     OW13662   3.502   7.957   4.513
 3922SOL    HW113663   3.584   7.986   4.473
 3922SOL    HW213664   3.459   8.038   4.542
 3923SOL     OW13665   7.060   0.152  14.283
 3923SOL    HW113666   7.077   0.060  14.264
 3923SOL    HW213667   7.025   0.152  14.372
 3924SOL     OW13668   7.853   4.562   3.823
 3924SOL    HW113669   7.793   4.576   3.750
 3924SOL    HW213670   7.903   4.643   3.830
 3925SOL     OW13671  10.442  10.450  13.860
 3925SOL    HW113672  10.350  10.466  13.883
 3925SOL    HW213673  10.454  10.356  13.876
 3926SOL     OW13674   9.133   0.837   2.074
 3926SOL    HW113675   9.211   0.818   2.127
 3926SOL    HW213676   9.104   0.923   2.105
 3927SOL     OW13677   1.272   3.842   5.542
 3927SOL    HW113678   1.206   3.883   5.486
 3927SOL    HW213679   1.224   3.774   5.589
 3928SOL     OW13680  11.302  10.634  10.085
 3928SOL    HW113681  11.265  10.666  10.003
 3928SOL    HW213682  11.267  10.545  10.095
 3929SOL     OW13683  13.771   9.956   2.675
 3929SOL    HW113684  13.726   9.998   2.602
 3929SOL    HW213685  13.754  10.012   2.751
 3930SOL     OW13686  10.483   4.029  10.660
 3930SOL    HW113687  10.500   4.066  10.747
 3930SOL    HW213688  10.464   3.937  10.677
 3931SOL     OW13689   1.998   4.158   1.248
 3931SOL    HW113690   2.059   4.225   1.216
 3931SOL    HW213691   2.054   4.083   1.269
 3932SOL     OW13692   2.102  11.195  12.999
 3932SOL    HW113693   2.043  11.138  13.049
 3932SOL    HW213694   2.162  11.230  13.065
 3933SOL     OW13695  11.779  14.833   2.951
 3933SOL    HW113696  11.778   0.022   2.886
 3933SOL    HW213697  11.765  14.754   2.899
 3934SOL     OW13698   6.836   3.325  14.755
 3934SOL    HW113699   6.768   3.368  14.806
 3934SOL    HW213700   6.815   3.346  14.664
 3935SOL     OW13701   9.073   4.107   2.555
 3935SOL    HW113702   9.104   4.168   2.487
 3935SOL    HW213703   8.978   4.117   2.555
 3936SOL     OW13704   5.757   8.873   8.555
 3936SOL    HW113705   5.722   8.825   8.629
 3936SOL    HW213706   5.682   8.886   8.496
 3937SOL     OW13707   8.190   7.951   1.129
 3937SOL    HW113708   8.178   7.996   1.045
 3937SOL    HW213709   8.107   7.964   1.175
 3938SOL     OW13710  12.756   6.908  10.318
 3938SOL    HW113711  12.735   6.832  10.264
 3938SOL    HW213712  12.852   6.904  10.328
 3939SOL     OW13713   0.913  13.560   7.758
 3939SOL    HW113714   0.829  13.543   7.716
 3939SOL    HW213715   0.899  13.539   7.850
 3940SOL     OW13716   7.986   5.010   8.326
 3940SOL    HW113717   7.948   5.094   8.299
 3940SOL    HW213718   8.028   4.976   8.246
 3941SOL     OW13719  14.853  13.496   6.630
 3941SOL    HW113720   0.030  13.535   6.695
 3941SOL    HW213721  14.879  13.404   6.626
 3942SOL     OW13722  14.314   8.815  14.456
 3942SOL    HW113723  14.367   8.820  14.536
 3942SOL    HW213724  14.370   8.769  14.393
 3943SOL     OW13725  14.133  12.106  10.988
 3943SOL    HW113726  14.143  12.057  11.069
 3943SOL    HW213727  14.126  12.039  10.920
 3944SOL     OW13728   3.957   2.251   0.322
 3944SOL    HW113729   4.011   2.188   0.274
 3944SOL    HW213730   3.868   2.235   0.291
 3945SOL     OW13731   0.792  13.647  10.086
 3945SOL    HW113732   0.833  13.579  10.033
 3945SOL    HW213733   0.865  13.699  10.120
 3946SOL     OW13734   0.556   1.483  13.032
 3946SOL    HW113735   0.632   1.436  13.066
 3946SOL    HW213736   0.591   1.540  12.964
 3947SOL     OW13737   1.425  12.545   2.616
 3947SOL    HW113738   1.441  12.575   2.526
 3947SOL    HW213739   1.475  12.464   2.623
 3948SOL     OW13740   5.432   3.052  12.715
 3948SOL    HW113741   5.345   3.047  12.756
 3948SOL    HW213742   5.490   3.083  12.785
 3949SOL     OW13743  13.814  13.771   7.244
 3949SOL    HW113744  13.791  13.861   7.268
 3949SOL    HW213745  13.817  13.772   7.149
 3950SOL     OW13746   8.321  11.133   3.922
 3950SOL    HW113747   8.296  11.072   3.992
 3950SOL    HW213748   8.404  11.171   3.951
 3951SOL     OW13749   2.433  12.477   7.002
 3951SOL    HW113750   2.437  12.411   6.933
 3951SOL    HW213751   2.473  12.555   6.962
 3952SOL     OW13752   4.907   9.862   2.861
 3952SOL    HW113753   4.972   9.834   2.926
 3952SOL    HW213754   4.843   9.791   2.860
 3953SOL     OW13755   3.939  10.724   5.276
 3953SOL    HW113756   3.875  10.717   5.347
 3953SOL    HW213757   4.005  10.785   5.309
 3954SOL     OW13758   1.454   6.504   2.648
 3954SOL    HW113759   1.516   6.527   2.579
 3954SOL    HW213760   1.490   6.424   2.686
 3955SOL     OW13761   3.207   9.052   2.438
 3955SOL    HW113762   3.238   9.015   2.521
 3955SOL    HW213763   3.162   8.980   2.395
 3956SOL     OW13764   9.522  14.351  12.794
 3956SOL    HW113765   9.451  14.354  12.730
 3956SOL    HW213766   9.602  14.367  12.743
 3957SOL     OW13767  10.142   1.516   0.638
 3957SOL    HW113768  10.088   1.531   0.715
 3957SOL    HW213769  10.199   1.443   0.663
 3958SOL     OW13770  14.304   8.848   6.999
 3958SOL    HW113771  14.264   8.916   6.945
 3958SOL    HW213772  14.288   8.767   6.950
 3959SOL     OW13773   8.814  11.632   6.716
 3959SOL    HW113774   8.788  11.540   6.726
 3959SOL    HW213775   8.780  11.656   6.629
 3960SOL     OW13776   0.663  11.549  10.439
 3960SOL    HW113777   0.673  11.537  10.345
 3960SOL    HW213778   0.685  11.464  10.477
 3961SOL     OW13779   6.119  11.250   8.230
 3961SOL    HW113780   6.077  11.211   8.307
 3961SOL    HW213781   6.046  11.279   8.175
 3962SOL     OW13782  12.065   9.329  14.487
 3962SOL    HW113783  12.090   9.249  14.532
 3962SOL    HW213784  12.053   9.393  14.558
 3963SOL     OW13785   9.725   8.100   6.828
 3963SOL    HW113786   9.783   8.101   6.751
 3963SOL    HW213787   9.658   8.165   6.808
 3964SOL     OW13788  13.799   1.162   0.429
 3964SOL    HW113789  13.735   1.180   0.497
 3964SOL    HW213790  13.769   1.080   0.389
 3965SOL     OW13791   7.453   9.665   4.074
 3965SOL    HW113792   7.443   9.615   4.155
 3965SOL    HW213793   7.373   9.646   4.024
 3966SOL     OW13794   5.381   7.049  12.142
 3966SOL    HW113795   5.319   6.990  12.099
 3966SOL    HW213796   5.325   7.111  12.190
 3967SOL     OW13797  10.977   5.519  10.901
 3967SOL    HW113798  11.045   5.572  10.941
 3967SOL    HW213799  10.902   5.578  10.893
 3968SOL     OW13800   3.726   1.108   8.010
 3968SOL    HW113801   3.809   1.121   7.965
 3968SOL    HW213802   3.688   1.031   7.968
 3969SOL     OW13803   6.839   4.900   9.802
 3969SOL    HW113804   6.769   4.834   9.808
 3969SOL    HW213805   6.882   4.880   9.719
 3970SOL     OW13806   2.644   6.237  14.069
 3970SOL    HW113807   2.691   6.313  14.106
 3970SOL    HW213808   2.573   6.221  14.130
 3971SOL     OW13809   9.063   9.788   9.373
 3971SOL    HW113810   9.017   9.846   9.312
 3971SOL    HW213811   9.101   9.720   9.317
 3972SOL     OW13812   3.554   2.334   8.126
 3972SOL    HW113813   3.549   2.246   8.162
 3972SOL    HW213814   3.553   2.391   8.204
 3973SOL     OW13815   1.004   4.566   4.895
 3973SOL    HW113816   1.020   4.582   4.988
 3973SOL    HW213817   0.975   4.651   4.861
 3974SOL     OW13818   1.162   3.539   2.350
 3974SOL    HW113819   1.252   3.506   2.348
 3974SOL    HW213820   1.141   3.557   2.258
 3975SOL     OW13821   2.590   1.503   4.618
 3975SOL    HW113822   2.576   1.495   4.712
 3975SOL    HW213823   2.511   1.464   4.579
 3976SOL     OW13824   0.824   1.367   6.716
 3976SOL    HW113825   0.860   1.309   6.782
 3976SOL    HW213826   0.816   1.312   6.637
 3977SOL     OW13827  11.337   5.000   4.061
 3977SOL    HW113828  11.423   4.974   4.028
 3977SOL    HW213829  11.326   5.090   4.032
 3978SOL     OW13830   5.048  14.018   2.893
 3978SOL    HW113831   5.031  13.940   2.945
 3978SOL    HW213832   5.137  14.044   2.916
 3979SOL     OW13833   4.819  10.396   8.475
 3979SOL    HW113834   4.820  10.383   8.380
 3979SOL    HW213835   4.784  10.314   8.510
 3980SOL     OW13836   4.006   7.284   6.911
 3980SOL    HW113837   4.008   7.375   6.942
 3980SOL    HW213838   3.944   7.284   6.838
 3981SOL     OW13839   7.561   1.075  10.481
 3981SOL    HW113840   7.570   1.060  10.576
 3981SOL    HW213841   7.561   0.988  10.443
 3982SOL     OW13842   9.681   7.590  14.229
 3982SOL    HW113843   9.633   7.619  14.306
 3982SOL    HW213844   9.664   7.658  14.163
 3983SOL     OW13845   9.819   6.045  11.600
 3983SOL    HW113846   9.736   6.015  11.561
 3983SOL    HW213847   9.825   5.995  11.682
 3984SOL     OW13848  10.225  12.566  11.221
 3984SOL    HW113849  10.166  12.528  11.156
 3984SOL    HW213850  10.288  12.496  11.241
 3985SOL     OW13851   5.825   1.163   6.740
 3985SOL    HW113852   5.872   1.100   6.685
 3985SOL    HW213853   5.810   1.117   6.822
 3986SOL     OW13854   2.449   8.422  14.281
 3986SOL    HW113855   2.528   8.428  14.226
 3986SOL    HW213856   2.387   8.373  14.227
 3987SOL     OW13857   4.612  10.446   5.428
 3987SOL    HW113858   4.520  10.439   5.401
 3987SOL    HW213859   4.628  10.365   5.478
 3988SOL     OW13860  11.485   0.775  13.060
 3988SOL    HW113861  11.404   0.825  13.050
 3988SOL    HW213862  11.481   0.710  12.989
 3989SOL     OW13863  13.827   2.195   0.610
 3989SOL    HW113864  13.887   2.251   0.659
 3989SOL    HW213865  13.818   2.239   0.525
 3990SOL     OW13866   7.267   3.904  13.061
 3990SOL    HW113867   7.175   3.910  13.037
 3990SOL    HW213868   7.285   3.810  13.063
 3991SOL     OW13869   2.193   2.977   3.545
 3991SOL    HW113870   2.145   3.033   3.607
 3991SOL    HW213871   2.272   3.027   3.525
 3992SOL     OW13872   3.330  11.517   7.877
 3992SOL    HW113873   3.242  11.494   7.847
 3992SOL    HW213874   3.315  11.576   7.951
 3993SOL     OW13875   5.243   4.454  11.003
 3993SOL    HW113876   5.192   4.404  11.066
 3993SOL    HW213877   5.306   4.391  10.967
 3994SOL     OW13878  13.570  14.493   9.882
 3994SOL    HW113879  13.498  14.440   9.917
 3994SOL    HW213880  13.598  14.547   9.955
 3995SOL     OW13881   7.484   2.919  10.948
 3995SOL    HW113882   7.499   2.881  11.034
 3995SOL    HW213883   7.393   2.896  10.927
 3996SOL     OW13884   5.545   7.441   1.014
 3996SOL    HW113885   5.588   7.499   0.951
 3996SOL    HW213886   5.539   7.357   0.969
 3997SOL     OW13887   0.063   9.357   6.059
 3997SOL    HW113888   0.074   9.448   6.032
 3997SOL    HW213889   0.151   9.320   6.053
 3998SOL     OW13890   8.958   5.540   3.300
 3998SOL    HW113891   8.919   5.475   3.241
 3998SOL    HW213892   8.887   5.563   3.359
 3999SOL     OW13893   9.300   6.297  13.268
 3999SOL    HW113894   9.224   6.260  13.222
 3999SOL    HW213895   9.375   6.266  13.218
 4000SOL     OW13896   6.359   6.419  13.099
 4000SOL    HW113897   6.302   6.364  13.152
 4000SOL    HW213898   6.324   6.411  13.010
 4001SOL     OW13899   6.258  10.479   5.942
 4001SOL    HW113900   6.181  10.498   5.888
 4001SOL    HW213901   6.223  10.434   6.019
 4002SOL     OW13902   9.605   0.331   2.781
 4002SOL    HW113903   9.538   0.391   2.814
 4002SOL    HW213904   9.648   0.297   2.860
 4003SOL     OW13905   2.508  10.576   3.055
 4003SOL    HW113906   2.559  10.592   3.135
 4003SOL    HW213907   2.448  10.505   3.079
 4004SOL     OW13908   3.508  13.245  14.572
 4004SOL    HW113909   3.563  13.237  14.494
 4004SOL    HW213910   3.426  13.283  14.540
 4005SOL     OW13911  12.249   6.067   3.540
 4005SOL    HW113912  12.251   6.039   3.449
 4005SOL    HW213913  12.164   6.111   3.550
 4006SOL     OW13914   4.093   4.896   8.467
 4006SOL    HW113915   4.122   4.874   8.378
 4006SOL    HW213916   4.109   4.817   8.518
 4007SOL     OW13917   8.340   6.734  13.312
 4007SOL    HW113918   8.293   6.818  13.314
 4007SOL    HW213919   8.378   6.730  13.224
 4008SOL     OW13920   5.487  14.777   6.016
 4008SOL    HW113921   5.456  14.726   5.941
 4008SOL    HW213922   5.520  14.859   5.977
 4009SOL     OW13923  12.188  14.601   7.043
 4009SOL    HW113924  12.170  14.554   6.961
 4009SOL    HW213925  12.104  14.641   7.066
 4010SOL     OW13926   2.751  10.677   2.339
 4010SOL    HW113927   2.729  10.584   2.345
 4010SOL    HW213928   2.704  10.718   2.411
 4011SOL     OW13929  10.980  10.954  11.813
 4011SOL    HW113930  10.933  10.944  11.730
 4011SOL    HW213931  11.071  10.931  11.791
 4012SOL     OW13932   7.496   8.313   4.168
 4012SOL    HW113933   7.572   8.282   4.120
 4012SOL    HW213934   7.520   8.304   4.260
 4013SOL     OW13935   5.669   2.787  14.753
 4013SOL    HW113936   5.650   2.693  14.751
 4013SOL    HW213937   5.760   2.793  14.724
 4014SOL     OW13938   8.476  12.939   5.843
 4014SOL    HW113939   8.415  12.991   5.791
 4014SOL    HW213940   8.449  12.953   5.934
 4015SOL     OW13941   3.790  11.639   4.266
 4015SOL    HW113942   3.779  11.557   4.313
 4015SOL    HW213943   3.859  11.622   4.202
 4016SOL     OW13944   0.894   1.740   6.090
 4016SOL    HW113945   0.988   1.760   6.093
 4016SOL    HW213946   0.890   1.648   6.065
 4017SOL     OW13947   1.155   9.230   8.139
 4017SOL    HW113948   1.130   9.190   8.056
 4017SOL    HW213949   1.196   9.159   8.188
 4018SOL     OW13950   1.155   7.141  14.880
 4018SOL    HW113951   1.134   7.089  14.803
 4018SOL    HW213952   1.232   7.099   0.035
 4019SOL     OW13953  13.776   9.363  11.781
 4019SOL    HW113954  13.753   9.424  11.712
 4019SOL    HW213955  13.712   9.292  11.772
 4020SOL     OW13956   7.590   8.528   0.259
 4020SOL    HW113957   7.519   8.569   0.307
 4020SOL    HW213958   7.618   8.456   0.316
 4021SOL     OW13959   3.005   2.636  13.517
 4021SOL    HW113960   3.023   2.574  13.587
 4021SOL    HW213961   3.092   2.662  13.486
 4022SOL     OW13962   6.964  12.282   5.459
 4022SOL    HW113963   6.873  12.289   5.489
 4022SOL    HW213964   6.976  12.189   5.438
 4023SOL     OW13965  11.060   0.545   0.545
 4023SOL    HW113966  10.995   0.564   0.613
 4023SOL    HW213967  11.044   0.453   0.523
 4024SOL     OW13968  13.630  13.214   2.308
 4024SOL    HW113969  13.582  13.237   2.387
 4024SOL    HW213970  13.571  13.237   2.236
 4025SOL     OW13971   6.169  11.302   4.070
 4025SOL    HW113972   6.249  11.279   4.117
 4025SOL    HW213973   6.197  11.358   3.999
 4026SOL     OW13974   4.111   1.832   2.926
 4026SOL    HW113975   4.037   1.872   2.881
 4026SOL    HW213976   4.126   1.750   2.879
 4027SOL     OW13977  10.908  14.511  10.832
 4027SOL    HW113978  10.891  14.544  10.743
 4027SOL    HW213979  10.843  14.443  10.845
 4028SOL     OW13980   5.342   9.472   1.845
 4028SOL    HW113981   5.428   9.502   1.875
 4028SOL    HW213982   5.341   9.492   1.752
 4029SOL     OW13983   0.692   8.746  10.915
 4029SOL    HW113984   0.608   8.700  10.916
 4029SOL    HW213985   0.752   8.685  10.872
 4030SOL     OW13986   6.493   3.786  12.332
 4030SOL    HW113987   6.439   3.863  12.354
 4030SOL    HW213988   6.499   3.737  12.414
 4031SOL     OW13989  12.858   5.580  14.040
 4031SOL    HW113990  12.858   5.626  14.124
 4031SOL    HW213991  12.881   5.490  14.062
 4032SOL     OW13992   4.112  13.235   4.595
 4032SOL    HW113993   4.170  13.159   4.602
 4032SOL    HW213994   4.171  13.308   4.577
 4033SOL     OW13995   4.490  12.726  13.672
 4033SOL    HW113996   4.549  12.740  13.746
 4033SOL    HW213997   4.522  12.786  13.605
 4034SOL     OW13998  11.021   5.825   0.286
 4034SOL    HW113999  10.968   5.782   0.219
 4034SOL    HW214000  10.977   5.909   0.301
 4035SOL     OW14001   0.450   5.030  10.735
 4035SOL    HW114002   0.392   4.962  10.702
 4035SOL    HW214003   0.415   5.051  10.822
 4036SOL     OW14004   8.815   0.959  13.815
 4036SOL    HW114005   8.741   0.899  13.814
 4036SOL    HW214006   8.811   1.003  13.729
 4037SOL     OW14007   5.425  13.493  10.864
 4037SOL    HW114008   5.366  13.552  10.817
 4037SOL    HW214009   5.460  13.546  10.936
 4038SOL     OW14010   4.063   1.153  10.636
 4038SOL    HW114011   4.081   1.132  10.728
 4038SOL    HW214012   4.012   1.233  10.639
 4039SOL     OW14013   6.807   4.461   8.361
 4039SOL    HW114014   6.845   4.532   8.309
 4039SOL    HW214015   6.734   4.429   8.308
 4040SOL     OW14016   2.389   6.860  13.805
 4040SOL    HW114017   2.332   6.789  13.773
 4040SOL    HW214018   2.358   6.938  13.758
 4041SOL     OW14019   3.317  14.018   1.398
 4041SOL    HW114020   3.327  14.113   1.392
 4041SOL    HW214021   3.322  14.000   1.492
 4042SOL     OW14022   5.257   9.461   3.378
 4042SOL    HW114023   5.304   9.379   3.365
 4042SOL    HW214024   5.326   9.524   3.401
 4043SOL     OW14025  12.666  12.198   7.036
 4043SOL    HW114026  12.600  12.138   7.000
 4043SOL    HW214027  12.660  12.276   6.980
 4044SOL     OW14028  11.916   2.448   4.032
 4044SOL    HW114029  11.832   2.472   4.071
 4044SOL    HW214030  11.966   2.529   4.031
 4045SOL     OW14031  10.565  14.052   3.250
 4045SOL    HW114032  10.482  14.034   3.294
 4045SOL    HW214033  10.575  13.980   3.187
 4046SOL     OW14034  13.130   0.700   6.210
 4046SOL    HW114035  13.133   0.756   6.133
 4046SOL    HW214036  13.102   0.758   6.281
 4047SOL     OW14037   1.674  14.479  11.769
 4047SOL    HW114038   1.764  14.450  11.784
 4047SOL    HW214039   1.642  14.505  11.856
 4048SOL     OW14040  10.279   6.500   8.477
 4048SOL    HW114041  10.189   6.504   8.511
 4048SOL    HW214042  10.306   6.592   8.471
 4049SOL     OW14043   7.449  11.092   9.614
 4049SOL    HW114044   7.518  11.107   9.550
 4049SOL    HW214045   7.467  11.005   9.650
 4050SOL     OW14046   7.049   5.047  10.015
 4050SOL    HW114047   6.981   4.992  10.054
 4050SOL    HW214048   7.105   5.071  10.089
 4051SOL     OW14049   9.519   7.883   5.712
 4051SOL    HW114050   9.426   7.860   5.717
 4051SOL    HW214051   9.547   7.889   5.804
 4052SOL     OW14052  12.846   0.542  12.156
 4052SOL    HW114053  12.939   0.555  12.137
 4052SOL    HW214054  12.844   0.470  12.218
 4053SOL     OW14055   0.883  12.870   0.772
 4053SOL    HW114056   0.840  12.813   0.836
 4053SOL    HW214057   0.870  12.958   0.806
 4054SOL     OW14058   7.549   6.854  12.131
 4054SOL    HW114059   7.566   6.931  12.184
 4054SOL    HW214060   7.465   6.820  12.163
 4055SOL     OW14061  11.636   6.593   8.409
 4055SOL    HW114062  11.620   6.586   8.503
 4055SOL    HW214063  11.646   6.687   8.393
 4056SOL     OW14064   0.349   7.368   8.742
 4056SOL    HW114065   0.398   7.432   8.690
 4056SOL    HW214066   0.354   7.400   8.832
 4057SOL     OW14067   8.612  13.111   4.995
 4057SOL    HW114068   8.644  13.200   5.011
 4057SOL    HW214069   8.516  13.119   5.000
 4058SOL     OW14070  14.454   0.527   6.579
 4058SOL    HW114071  14.420   0.606   6.537
 4058SOL    HW214072  14.542   0.551   6.609
 4059SOL     OW14073   5.352  12.716  12.735
 4059SOL    HW114074   5.300  12.641  12.763
 4059SOL    HW214075   5.396  12.688  12.655
 4060SOL     OW14076   2.980   6.870  12.865
 4060SOL    HW114077   2.949   6.843  12.951
 4060SOL    HW214078   3.027   6.952  12.882
 4061SOL     OW14079   8.178   7.972   4.675
 4061SOL    HW114080   8.181   7.987   4.769
 4061SOL    HW214081   8.233   8.041   4.638
 4062SOL     OW14082  11.909   0.909   8.461
 4062SOL    HW114083  11.891   0.990   8.509
 4062SOL    HW214084  11.830   0.895   8.409
 4063SOL     OW14085  10.071   2.978   6.399
 4063SOL    HW114086  10.004   3.020   6.452
 4063SOL    HW214087  10.138   2.951   6.461
 4064SOL     OW14088   0.737  13.494  10.297
 4064SOL    HW114089   0.731  13.554  10.222
 4064SOL    HW214090   0.722  13.550  10.373
 4065SOL     OW14091  13.475   8.156   0.905
 4065SOL    HW114092  13.469   8.225   0.972
 4065SOL    HW214093  13.443   8.077   0.949
 4066SOL     OW14094   0.446   2.162   2.952
 4066SOL    HW114095   0.368   2.136   3.000
 4066SOL    HW214096   0.413   2.197   2.869
 4067SOL     OW14097  10.000  12.357   5.197
 4067SOL    HW114098  10.008  12.277   5.146
 4067SOL    HW214099   9.912  12.352   5.236
 4068SOL     OW14100   6.918  10.717  14.282
 4068SOL    HW114101   6.874  10.644  14.325
 4068SOL    HW214102   6.967  10.676  14.210
 4069SOL     OW14103   3.205   0.679   9.981
 4069SOL    HW114104   3.143   0.745   9.950
 4069SOL    HW214105   3.273   0.676   9.913
 4070SOL     OW14106  11.694   8.177   7.388
 4070SOL    HW114107  11.760   8.196   7.454
 4070SOL    HW214108  11.733   8.209   7.306
 4071SOL     OW14109   9.477  12.439  13.836
 4071SOL    HW114110   9.438  12.407  13.754
 4071SOL    HW214111   9.524  12.518  13.810
 4072SOL     OW14112   5.956  11.505   7.623
 4072SOL    HW114113   6.002  11.561   7.685
 4072SOL    HW214114   5.866  11.538   7.623
 4073SOL     OW14115   8.465  11.246   0.068
 4073SOL    HW114116   8.408  11.201   0.131
 4073SOL    HW214117   8.483  11.331   0.108
 4074SOL     OW14118  10.726   1.222   2.468
 4074SOL    HW114119  10.799   1.267   2.509
 4074SOL    HW214120  10.747   1.129   2.476
 4075SOL     OW14121   7.133   9.793   4.244
 4075SOL    HW114122   7.051   9.837   4.222
 4075SOL    HW214123   7.128   9.709   4.198
 4076SOL     OW14124  10.945   5.008   6.323
 4076SOL    HW114125  11.022   5.046   6.281
 4076SOL    HW214126  10.871   5.049   6.279
 4077SOL     OW14127   9.381   7.517   1.829
 4077SOL    HW114128   9.346   7.460   1.760
 4077SOL    HW214129   9.469   7.539   1.799
 4078SOL     OW14130   6.600   0.745   1.106
 4078SOL    HW114131   6.597   0.682   1.034
 4078SOL    HW214132   6.523   0.723   1.159
 4079SOL     OW14133   4.640   8.969   0.930
 4079SOL    HW114134   4.679   9.022   0.999
 4079SOL    HW214135   4.557   9.013   0.910
 4080SOL     OW14136   3.919   0.933  11.311
 4080SOL    HW114137   3.872   0.965  11.388
 4080SOL    HW214138   3.870   0.854  11.285
 4081SOL     OW14139   1.980  12.618   8.586
 4081SOL    HW114140   1.892  12.622   8.623
 4081SOL    HW214141   1.967  12.591   8.496
 4082SOL     OW14142   3.798  13.705   3.286
 4082SOL    HW114143   3.797  13.679   3.378
 4082SOL    HW214144   3.865  13.773   3.281
 4083SOL     OW14145  12.095   3.069   4.339
 4083SOL    HW114146  12.150   3.147   4.347
 4083SOL    HW214147  12.011   3.101   4.305
 4084SOL     OW14148   3.350   3.338  10.282
 4084SOL    HW114149   3.318   3.272  10.220
 4084SOL    HW214150   3.386   3.288  10.355
 4085SOL     OW14151   3.372   5.456   3.583
 4085SOL    HW114152   3.418   5.382   3.544
 4085SOL    HW214153   3.440   5.521   3.599
 4086SOL     OW14154   7.820   9.274   0.225
 4086SOL    HW114155   7.731   9.238   0.230
 4086SOL    HW214156   7.809   9.358   0.181
 4087SOL     OW14157   9.381   8.455   4.890
 4087SOL    HW114158   9.406   8.545   4.872
 4087SOL    HW214159   9.464   8.411   4.909
 4088SOL     OW14160  11.220   9.890   8.538
 4088SOL    HW114161  11.200   9.798   8.522
 4088SOL    HW214162  11.137   9.935   8.523
 4089SOL     OW14163  10.204   5.928   9.907
 4089SOL    HW114164  10.158   5.914   9.824
 4089SOL    HW214165  10.158   6.002   9.947
 4090SOL     OW14166   0.576   3.240   4.770
 4090SOL    HW114167   0.652   3.192   4.737
 4090SOL    HW214168   0.501   3.200   4.727
 4091SOL     OW14169  12.322   4.149   5.425
 4091SOL    HW114170  12.389   4.208   5.392
 4091SOL    HW214171  12.296   4.185   5.509
 4092SOL     OW14172   3.651  13.365  10.650
 4092SOL    HW114173   3.703  13.340  10.726
 4092SOL    HW214174   3.601  13.286  10.628
 4093SOL     OW14175   3.671   0.706   5.212
 4093SOL    HW114176   3.577   0.726   5.219
 4093SOL    HW214177   3.696   0.676   5.299
 4094SOL     OW14178   0.424   3.351  10.244
 4094SOL    HW114179   0.501   3.382  10.197
 4094SOL    HW214180   0.458   3.284  10.304
 4095SOL     OW14181   8.716   4.983   2.986
 4095SOL    HW114182   8.806   4.951   2.990
 4095SOL    HW214183   8.696   5.011   3.076
 4096SOL     OW14184  11.572  12.327   6.060
 4096SOL    HW114185  11.653  12.307   6.014
 4096SOL    HW214186  11.550  12.246   6.106
 4097SOL     OW14187   4.762   8.334   4.353
 4097SOL    HW114188   4.826   8.393   4.312
 4097SOL    HW214189   4.731   8.382   4.429
 4098SOL     OW14190   7.184   4.934   3.056
 4098SOL    HW114191   7.276   4.925   3.033
 4098SOL    HW214192   7.155   5.014   3.011
 4099SOL     OW14193   9.362   9.668   7.894
 4099SOL    HW114194   9.405   9.583   7.887
 4099SOL    HW214195   9.370   9.692   7.986
 4100SOL     OW14196   3.946   0.430   1.592
 4100SOL    HW114197   4.030   0.471   1.612
 4100SOL    HW214198   3.931   0.367   1.662
 4101SOL     OW14199  11.853   3.246   2.383
 4101SOL    HW114200  11.840   3.231   2.477
 4101SOL    HW214201  11.874   3.339   2.376
 4102SOL     OW14202   5.941   4.785   4.320
 4102SOL    HW114203   5.968   4.716   4.259
 4102SOL    HW214204   6.000   4.775   4.395
 4103SOL     OW14205   3.924  13.425   8.628
 4103SOL    HW114206   3.842  13.379   8.646
 4103SOL    HW214207   3.928  13.428   8.532
 4104SOL     OW14208  12.273   9.962   4.799
 4104SOL    HW114209  12.355   9.914   4.788
 4104SOL    HW214210  12.269  10.019   4.722
 4105SOL     OW14211   5.173   6.463  11.535
 4105SOL    HW114212   5.238   6.440  11.602
 4105SOL    HW214213   5.202   6.416  11.457
 4106SOL     OW14214   7.479   0.874  10.282
 4106SOL    HW114215   7.411   0.849  10.344
 4106SOL    HW214216   7.486   0.799  10.223
 4107SOL     OW14217   7.957   1.343   9.519
 4107SOL    HW114218   7.958   1.431   9.481
 4107SOL    HW214219   7.994   1.287   9.451
 4108SOL     OW14220   1.941  14.328  11.831
 4108SOL    HW114221   2.018  14.297  11.879
 4108SOL    HW214222   1.949  14.288  11.745
 4109SOL     OW14223   1.998  10.195   1.269
 4109SOL    HW114224   1.977  10.264   1.332
 4109SOL    HW214225   1.973  10.230   1.184
 4110SOL     OW14226  14.508  10.154   8.144
 4110SOL    HW114227  14.459  10.216   8.199
 4110SOL    HW214228  14.550  10.095   8.207
 4111SOL     OW14229   2.912  11.257   0.503
 4111SOL    HW114230   2.915  11.199   0.427
 4111SOL    HW214231   2.831  11.306   0.492
 4112SOL     OW14232   3.504   7.657   5.196
 4112SOL    HW114233   3.463   7.661   5.109
 4112SOL    HW214234   3.563   7.582   5.191
 4113SOL     OW14235  13.643   0.207   7.548
 4113SOL    HW114236  13.672   0.121   7.579
 4113SOL    HW214237  13.557   0.192   7.510
 4114SOL     OW14238   4.728   4.421   0.755
 4114SOL    HW114239   4.633   4.420   0.745
 4114SOL    HW214240   4.758   4.340   0.714
 4115SOL     OW14241   0.960   2.046  13.131
 4115SOL    HW114242   0.992   1.998  13.055
 4115SOL    HW214243   1.037   2.054  13.188
 4116SOL     OW14244  12.896   7.824   3.534
 4116SOL    HW114245  12.939   7.742   3.511
 4116SOL    HW214246  12.894   7.824   3.630
 4117SOL     OW14247  10.553   7.970   2.833
 4117SOL    HW114248  10.521   7.893   2.786
 4117SOL    HW214249  10.475   8.020   2.854
 4118SOL     OW14250  13.088  14.542   9.249
 4118SOL    HW114251  13.129  14.472   9.300
 4118SOL    HW214252  13.161  14.598   9.223
 4119SOL     OW14253   7.594  12.974   4.413
 4119SOL    HW114254   7.601  13.040   4.482
 4119SOL    HW214255   7.507  12.988   4.375
 4120SOL     OW14256   9.674   0.602   0.785
 4120SOL    HW114257   9.615   0.616   0.711
 4120SOL    HW214258   9.633   0.648   0.857
 4121SOL     OW14259  11.136   2.671   0.977
 4121SOL    HW114260  11.203   2.722   1.023
 4121SOL    HW214261  11.061   2.669   1.036
 4122SOL     OW14262   6.499  13.272   1.584
 4122SOL    HW114263   6.567  13.304   1.524
 4122SOL    HW214264   6.507  13.328   1.661
 4123SOL     OW14265   5.034   0.140   6.207
 4123SOL    HW114266   5.049   0.181   6.122
 4123SOL    HW214267   4.943   0.111   6.204
 4124SOL     OW14268   1.232  14.618  10.475
 4124SOL    HW114269   1.317  14.623  10.519
 4124SOL    HW214270   1.168  14.627  10.545
 4125SOL     OW14271   2.348   5.980   8.272
 4125SOL    HW114272   2.386   5.974   8.185
 4125SOL    HW214273   2.347   5.890   8.305
 4126SOL     OW14274  11.361   4.893   7.065
 4126SOL    HW114275  11.313   4.814   7.091
 4126SOL    HW214276  11.294   4.961   7.058
 4127SOL     OW14277   0.591   3.395   0.318
 4127SOL    HW114278   0.601   3.300   0.330
 4127SOL    HW214279   0.675   3.423   0.283
 4128SOL     OW14280  12.269  10.979   4.120
 4128SOL    HW114281  12.199  10.998   4.057
 4128SOL    HW214282  12.320  11.060   4.123
 4129SOL     OW14283  11.196   6.428   0.356
 4129SOL    HW114284  11.161   6.451   0.270
 4129SOL    HW214285  11.118   6.413   0.410
 4130SOL     OW14286   5.678   5.879   4.832
 4130SOL    HW114287   5.706   5.896   4.742
 4130SOL    HW214288   5.583   5.889   4.830
 4131SOL     OW14289   6.019  12.811   8.883
 4131SOL    HW114290   6.037  12.821   8.976
 4131SOL    HW214291   5.923  12.813   8.877
 4132SOL     OW14292   1.268   5.078   1.814
 4132SOL    HW114293   1.279   5.009   1.879
 4132SOL    HW214294   1.335   5.143   1.836
 4133SOL     OW14295   0.399  10.689   1.409
 4133SOL    HW114296   0.494  10.690   1.419
 4133SOL    HW214297   0.383  10.626   1.338
 4134SOL     OW14298   4.508   0.848   2.324
 4134SOL    HW114299   4.482   0.940   2.318
 4134SOL    HW214300   4.592   0.845   2.278
 4135SOL     OW14301   9.562  12.351   4.415
 4135SOL    HW114302   9.650  12.388   4.421
 4135SOL    HW214303   9.576  12.256   4.422
 4136SOL     OW14304  11.593   3.338   4.168
 4136SOL    HW114305  11.601   3.342   4.263
 4136SOL    HW214306  11.597   3.245   4.147
 4137SOL     OW14307  10.099   8.100  13.757
 4137SOL    HW114308  10.061   8.013  13.751
 4137SOL    HW214309  10.096   8.122  13.850
 4138SOL     OW14310   4.398   1.911  11.774
 4138SOL    HW114311   4.454   1.877  11.844
 4138SOL    HW214312   4.459   1.951  11.712
 4139SOL     OW14313   3.407  13.061  14.243
 4139SOL    HW114314   3.342  13.010  14.195
 4139SOL    HW214315   3.356  13.126  14.291
 4140SOL     OW14316   1.913   9.675  13.898
 4140SOL    HW114317   1.864   9.669  13.816
 4140SOL    HW214318   1.985   9.736  13.878
 4141SOL     OW14319   6.703  13.253  14.760
 4141SOL    HW114320   6.790  13.247  14.799
 4141SOL    HW214321   6.719  13.252  14.665
 4142SOL     OW14322  10.103   6.465  10.856
 4142SOL    HW114323  10.198   6.475  10.852
 4142SOL    HW214324  10.089   6.374  10.881
 4143SOL     OW14325  14.166   4.425   7.756
 4143SOL    HW114326  14.112   4.384   7.823
 4143SOL    HW214327  14.230   4.477   7.804
 4144SOL     OW14328   9.414  10.623   1.795
 4144SOL    HW114329   9.337  10.585   1.752
 4144SOL    HW214330   9.475  10.641   1.724
 4145SOL     OW14331   0.716   1.737   1.234
 4145SOL    HW114332   0.766   1.684   1.173
 4145SOL    HW214333   0.738   1.701   1.320
 4146SOL     OW14334   7.833   3.196   2.810
 4146SOL    HW114335   7.773   3.266   2.835
 4146SOL    HW214336   7.790   3.152   2.738
 4147SOL     OW14337   8.737   1.992   4.766
 4147SOL    HW114338   8.670   1.942   4.719
 4147SOL    HW214339   8.708   1.991   4.858
 4148SOL     OW14340   7.969  13.494  11.589
 4148SOL    HW114341   8.027  13.458  11.521
 4148SOL    HW214342   7.882  13.462  11.565
 4149SOL     OW14343   5.631   9.506   4.440
 4149SOL    HW114344   5.694   9.438   4.416
 4149SOL    HW214345   5.594   9.475   4.523
 4150SOL     OW14346  13.199  13.462  12.724
 4150SOL    HW114347  13.216  13.386  12.669
 4150SOL    HW214348  13.107  13.453  12.750
 4151SOL     OW14349  11.535  11.084   9.232
 4151SOL    HW114350  11.546  11.050   9.143
 4151SOL    HW214351  11.443  11.068   9.252
 4152SOL     OW14352   2.023  11.049   2.799
 4152SOL    HW114353   2.000  11.027   2.889
 4152SOL    HW214354   2.015  10.966   2.751
 4153SOL     OW14355  13.286   7.727   4.460
 4153SOL    HW114356  13.369   7.714   4.414
 4153SOL    HW214357  13.225   7.754   4.392
 4154SOL     OW14358   9.195   3.266  14.775
 4154SOL    HW114359   9.223   3.357  14.765
 4154SOL    HW214360   9.276   3.216  14.773
 4155SOL     OW14361  10.015   8.201   9.847
 4155SOL    HW114362  10.096   8.157   9.874
 4155SOL    HW214363   9.949   8.170   9.908
 4156SOL     OW14364   3.113   5.911   6.307
 4156SOL    HW114365   3.042   5.962   6.345
 4156SOL    HW214366   3.148   5.967   6.238
 4157SOL     OW14367   4.666  10.859   9.518
 4157SOL    HW114368   4.676  10.871   9.424
 4157SOL    HW214369   4.741  10.807   9.544
 4158SOL     OW14370   0.303   8.588   1.042
 4158SOL    HW114371   0.298   8.679   1.071
 4158SOL    HW214372   0.396   8.574   1.024
 4159SOL     OW14373   2.526   8.826   1.065
 4159SOL    HW114374   2.467   8.848   1.137
 4159SOL    HW214375   2.609   8.869   1.087
 4160SOL     OW14376  14.064   5.307  10.494
 4160SOL    HW114377  14.114   5.251  10.436
 4160SOL    HW214378  14.112   5.305  10.577
 4161SOL     OW14379   4.629   5.649   0.972
 4161SOL    HW114380   4.633   5.743   0.988
 4161SOL    HW214381   4.551   5.619   1.017
 4162SOL     OW14382   2.166   7.118   1.918
 4162SOL    HW114383   2.113   7.095   1.995
 4162SOL    HW214384   2.104   7.113   1.845
 4163SOL     OW14385   1.857   6.406   3.056
 4163SOL    HW114386   1.839   6.392   2.963
 4163SOL    HW214387   1.794   6.350   3.101
 4164SOL     OW14388   9.991   5.196   1.967
 4164SOL    HW114389  10.006   5.289   1.982
 4164SOL    HW214390   9.905   5.193   1.924
 4165SOL     OW14391  11.222   2.348  14.872
 4165SOL    HW114392  11.172   2.368   0.069
 4165SOL    HW214393  11.163   2.295  14.819
 4166SOL     OW14394   5.516   0.592  13.242
 4166SOL    HW114395   5.506   0.501  13.269
 4166SOL    HW214396   5.509   0.642  13.324
 4167SOL     OW14397  12.136  12.555   0.167
 4167SOL    HW114398  12.185  12.570   0.248
 4167SOL    HW214399  12.150  12.462   0.148
 4168SOL     OW14400   8.440  12.009   4.814
 4168SOL    HW114401   8.469  12.002   4.723
 4168SOL    HW214402   8.363  12.065   4.811
 4169SOL     OW14403   2.703  10.916   7.200
 4169SOL    HW114404   2.701  11.001   7.243
 4169SOL    HW214405   2.790  10.882   7.218
 4170SOL     OW14406   0.585  10.806   3.413
 4170SOL    HW114407   0.561  10.898   3.408
 4170SOL    HW214408   0.666  10.805   3.465
 4171SOL     OW14409   1.400   7.144   1.696
 4171SOL    HW114410   1.367   7.212   1.754
 4171SOL    HW214411   1.406   7.066   1.751
 4172SOL     OW14412   1.364   9.290   3.874
 4172SOL    HW114413   1.373   9.334   3.789
 4172SOL    HW214414   1.362   9.361   3.938
 4173SOL     OW14415   3.384  14.722  14.861
 4173SOL    HW114416   3.407  14.813  14.876
 4173SOL    HW214417   3.316  14.726  14.794
 4174SOL     OW14418   6.904   0.946   0.773
 4174SOL    HW114419   6.930   0.928   0.863
 4174SOL    HW214420   6.829   1.004   0.780
 4175SOL     OW14421  11.212   7.378   7.287
 4175SOL    HW114422  11.267   7.305   7.256
 4175SOL    HW214423  11.156   7.399   7.212
 4176SOL     OW14424   4.920  13.407   3.192
 4176SOL    HW114425   4.856  13.380   3.257
 4176SOL    HW214426   4.929  13.501   3.204
 4177SOL     OW14427   7.917   0.181   9.281
 4177SOL    HW114428   7.892   0.089   9.293
 4177SOL    HW214429   8.006   0.187   9.317
 4178SOL     OW14430   1.943   0.971   9.883
 4178SOL    HW114431   1.927   0.931   9.969
 4178SOL    HW214432   2.023   0.929   9.852
 4179SOL     OW14433   6.987   4.782   7.423
 4179SOL    HW114434   7.055   4.767   7.489
 4179SOL    HW214435   6.962   4.694   7.395
 4180SOL     OW14436   2.207   3.629   3.705
 4180SOL    HW114437   2.293   3.666   3.682
 4180SOL    HW214438   2.198   3.647   3.799
 4181SOL     OW14439   8.490   3.042   6.626
 4181SOL    HW114440   8.495   2.951   6.655
 4181SOL    HW214441   8.408   3.047   6.577
 4182SOL     OW14442  14.709   1.008   0.681
 4182SOL    HW114443  14.752   1.055   0.752
 4182SOL    HW214444  14.779   0.960   0.637
 4183SOL     OW14445  14.774   2.702  13.938
 4183SOL    HW114446  14.758   2.617  13.979
 4183SOL    HW214447  14.869   2.706  13.927
 4184SOL     OW14448   2.221   5.450   0.763
 4184SOL    HW114449   2.304   5.481   0.728
 4184SOL    HW214450   2.230   5.458   0.858
 4185SOL     OW14451  11.748  12.969   1.020
 4185SOL    HW114452  11.655  12.991   1.028
 4185SOL    HW214453  11.792  13.053   1.009
 4186SOL     OW14454   4.277   9.564   3.947
 4186SOL    HW114455   4.368   9.571   3.920
 4186SOL    HW214456   4.276   9.593   4.038
 4187SOL     OW14457   9.940   6.069  13.210
 4187SOL    HW114458  10.024   6.076  13.255
 4187SOL    HW214459   9.878   6.044  13.278
 4188SOL     OW14460   5.385   9.197  13.001
 4188SOL    HW114461   5.352   9.284  13.023
 4188SOL    HW214462   5.451   9.213  12.934
 4189SOL     OW14463   3.287   4.669   4.261
 4189SOL    HW114464   3.241   4.606   4.316
 4189SOL    HW214465   3.379   4.647   4.271
 4190SOL     OW14466  11.947   0.751   3.816
 4190SOL    HW114467  11.956   0.796   3.900
 4190SOL    HW214468  11.901   0.813   3.760
 4191SOL     OW14469   0.219   3.777   3.729
 4191SOL    HW114470   0.149   3.839   3.713
 4191SOL    HW214471   0.279   3.789   3.655
 4192SOL     OW14472   7.582   6.805  11.407
 4192SOL    HW114473   7.642   6.733  11.386
 4192SOL    HW214474   7.496   6.764  11.415
 4193SOL     OW14475   6.275   5.902  12.400
 4193SOL    HW114476   6.353   5.856  12.369
 4193SOL    HW214477   6.273   5.886  12.494
 4194SOL     OW14478   4.507   2.448  14.459
 4194SOL    HW114479   4.500   2.541  14.437
 4194SOL    HW214480   4.517   2.404  14.374
 4195SOL     OW14481   7.253   9.686  10.504
 4195SOL    HW114482   7.328   9.669  10.447
 4195SOL    HW214483   7.291   9.694  10.592
 4196SOL     OW14484   2.857  14.055   7.293
 4196SOL    HW114485   2.909  13.979   7.267
 4196SOL    HW214486   2.818  14.029   7.377
 4197SOL     OW14487  13.428  11.475  11.057
 4197SOL    HW114488  13.478  11.493  10.978
 4197SOL    HW214489  13.485  11.502  11.129
 4198SOL     OW14490  10.752   0.449   8.583
 4198SOL    HW114491  10.719   0.386   8.519
 4198SOL    HW214492  10.846   0.434   8.584
 4199SOL     OW14493   6.894   2.071   8.470
 4199SOL    HW114494   6.972   2.053   8.522
 4199SOL    HW214495   6.822   2.034   8.520
 4200SOL     OW14496   2.786  14.121   0.424
 4200SOL    HW114497   2.721  14.141   0.492
 4200SOL    HW214498   2.861  14.087   0.473
 4201SOL     OW14499   7.070   1.998   8.808
 4201SOL    HW114500   7.021   1.939   8.865
 4201SOL    HW214501   7.054   1.965   8.720
 4202SOL     OW14502   6.946   7.032  10.031
 4202SOL    HW114503   6.948   6.955   9.973
 4202SOL    HW214504   6.853   7.045  10.049
 4203SOL     OW14505   0.888   1.220  14.385
 4203SOL    HW114506   0.828   1.177  14.324
 4203SOL    HW214507   0.975   1.206  14.347
 4204SOL     OW14508   4.561  13.174  14.196
 4204SOL    HW114509   4.656  13.172  14.204
 4204SOL    HW214510   4.540  13.268  14.188
 4205SOL     OW14511  13.509   4.476   6.195
 4205SOL    HW114512  13.463   4.486   6.278
 4205SOL    HW214513  13.442   4.449   6.133
 4206SOL     OW14514  11.525  10.517  10.836
 4206SOL    HW114515  11.538  10.489  10.745
 4206SOL    HW214516  11.611  10.506  10.876
 4207SOL     OW14517   0.406   1.729   8.651
 4207SOL    HW114518   0.426   1.703   8.561
 4207SOL    HW214519   0.329   1.677   8.674
 4208SOL     OW14520  13.781   8.550   2.975
 4208SOL    HW114521  13.875   8.536   2.984
 4208SOL    HW214522  13.770   8.577   2.883
 4209SOL     OW14523  10.551   3.320   5.270
 4209SOL    HW114524  10.504   3.394   5.309
 4209SOL    HW214525  10.625   3.360   5.225
 4210SOL     OW14526  14.429   1.479  14.546
 4210SOL    HW114527  14.349   1.489  14.494
 4210SOL    HW214528  14.442   1.384  14.552
 4211SOL     OW14529   0.847  11.103   2.604
 4211SOL    HW114530   0.851  11.008   2.605
 4211SOL    HW214531   0.834  11.128   2.696
 4212SOL     OW14532   2.152   5.642  12.803
 4212SOL    HW114533   2.246   5.642  12.817
 4212SOL    HW214534   2.116   5.673  12.886
 4213SOL     OW14535   0.053   2.354   6.285
 4213SOL    HW114536   0.141   2.320   6.301
 4213SOL    HW214537   0.008   2.283   6.238
 4214SOL     OW14538   1.228   7.577   2.643
 4214SOL    HW114539   1.305   7.615   2.600
 4214SOL    HW214540   1.181   7.651   2.680
 4215SOL     OW14541   3.113   6.006   3.452
 4215SOL    HW114542   3.128   6.082   3.508
 4215SOL    HW214543   3.124   5.930   3.510
 4216SOL     OW14544   8.609   2.131   0.417
 4216SOL    HW114545   8.619   2.226   0.425
 4216SOL    HW214546   8.692   2.096   0.448
 4217SOL     OW14547   2.591   0.828   7.289
 4217SOL    HW114548   2.582   0.777   7.209
 4217SOL    HW214549   2.503   0.830   7.327
 4218SOL     OW14550   7.644   3.068   9.815
 4218SOL    HW114551   7.693   3.042   9.737
 4218SOL    HW214552   7.587   2.993   9.833
 4219SOL     OW14553   0.529  12.302  13.986
 4219SOL    HW114554   0.572  12.265  14.063
 4219SOL    HW214555   0.600  12.313  13.922
 4220SOL     OW14556   9.521   6.135   9.041
 4220SOL    HW114557   9.467   6.057   9.026
 4220SOL    HW214558   9.482   6.177   9.117
 4221SOL     OW14559   5.929  10.770   3.472
 4221SOL    HW114560   5.972  10.779   3.387
 4221SOL    HW214561   5.841  10.738   3.450
 4222SOL     OW14562  10.719  13.042   1.879
 4222SOL    HW114563  10.740  13.082   1.963
 4222SOL    HW214564  10.685  13.113   1.826
 4223SOL     OW14565  14.222   0.202   0.669
 4223SOL    HW114566  14.305   0.157   0.659
 4223SOL    HW214567  14.243   0.295   0.657
 4224SOL     OW14568  13.193  11.812   4.983
 4224SOL    HW114569  13.190  11.905   5.008
 4224SOL    HW214570  13.130  11.804   4.912
 4225SOL     OW14571   3.770   3.252   5.068
 4225SOL    HW114572   3.765   3.222   4.978
 4225SOL    HW214573   3.803   3.176   5.117
 4226SOL     OW14574  11.285   5.199   7.433
 4226SOL    HW114575  11.303   5.266   7.499
 4226SOL    HW214576  11.360   5.202   7.374
 4227SOL     OW14577  14.041   8.886  12.568
 4227SOL    HW114578  13.981   8.942  12.618
 4227SOL    HW214579  14.043   8.926  12.481
 4228SOL     OW14580  10.785   2.483   7.180
 4228SOL    HW114581  10.690   2.472   7.183
 4228SOL    HW214582  10.799   2.572   7.149
 4229SOL     OW14583  12.682   5.342   2.540
 4229SOL    HW114584  12.709   5.390   2.462
 4229SOL    HW214585  12.702   5.402   2.613
 4230SOL     OW14586   2.382   3.823   7.473
 4230SOL    HW114587   2.319   3.893   7.485
 4230SOL    HW214588   2.405   3.827   7.380
 4231SOL     OW14589  10.763   1.344  10.239
 4231SOL    HW114590  10.732   1.385  10.319
 4231SOL    HW214591  10.739   1.405  10.169
 4232SOL     OW14592   4.011  12.725   3.570
 4232SOL    HW114593   4.004  12.648   3.514
 4232SOL    HW214594   4.096  12.764   3.547
 4233SOL     OW14595   4.706   5.976   3.424
 4233SOL    HW114596   4.630   6.022   3.459
 4233SOL    HW214597   4.759   6.045   3.383
 4234SOL     OW14598   0.861  14.193   4.167
 4234SOL    HW114599   0.917  14.116   4.181
 4234SOL    HW214600   0.922  14.264   4.147
 4235SOL     OW14601  12.290  13.823   4.893
 4235SOL    HW114602  12.244  13.781   4.965
 4235SOL    HW214603  12.380  13.791   4.899
 4236SOL     OW14604  11.485   1.542   9.313
 4236SOL    HW114605  11.553   1.610   9.319
 4236SOL    HW214606  11.534   1.462   9.296
 4237SOL     OW14607   3.009   8.706  12.224
 4237SOL    HW114608   3.033   8.721  12.133
 4237SOL    HW214609   3.091   8.682  12.267
 4238SOL     OW14610  12.291  12.964   4.481
 4238SOL    HW114611  12.363  12.973   4.418
 4238SOL    HW214612  12.247  12.883   4.455
 4239SOL     OW14613  10.482  10.154  12.863
 4239SOL    HW114614  10.439  10.234  12.894
 4239SOL    HW214615  10.464  10.152  12.769
 4240SOL     OW14616   3.276   5.683  12.999
 4240SOL    HW114617   3.361   5.641  13.011
 4240SOL    HW214618   3.229   5.624  12.941
 4241SOL     OW14619   2.685  14.817  11.242
 4241SOL    HW114620   2.593  14.814  11.214
 4241SOL    HW214621   2.683  14.861  11.327
 4242SOL     OW14622   3.574  12.737   3.382
 4242SOL    HW114623   3.620  12.783   3.311
 4242SOL    HW214624   3.521  12.671   3.336
 4243SOL     OW14625   3.087  11.556  14.736
 4243SOL    HW114626   3.109  11.524  14.824
 4243SOL    HW214627   2.996  11.584  14.743
 4244SOL     OW14628  13.771   4.373  12.568
 4244SOL    HW114629  13.803   4.464  12.571
 4244SOL    HW214630  13.677   4.382  12.554
 4245SOL     OW14631   9.223   0.381   6.211
 4245SOL    HW114632   9.299   0.357   6.158
 4245SOL    HW214633   9.219   0.314   6.279
 4246SOL     OW14634   9.276  10.815   4.398
 4246SOL    HW114635   9.305  10.793   4.487
 4246SOL    HW214636   9.203  10.756   4.382
 4247SOL     OW14637   6.150   8.954   6.696
 4247SOL    HW114638   6.148   8.941   6.602
 4247SOL    HW214639   6.172   9.046   6.708
 4248SOL     OW14640   9.374  11.932  11.418
 4248SOL    HW114641   9.457  11.913  11.462
 4248SOL    HW214642   9.362  11.859  11.357
 4249SOL     OW14643   7.100   2.884   4.928
 4249SOL    HW114644   7.083   2.977   4.942
 4249SOL    HW214645   7.054   2.864   4.846
 4250SOL     OW14646   1.177   8.151  11.632
 4250SOL    HW114647   1.141   8.224  11.682
 4250SOL    HW214648   1.115   8.079  11.648
 4251SOL     OW14649   2.805  14.195   6.136
 4251SOL    HW114650   2.877  14.221   6.079
 4251SOL    HW214651   2.832  14.223   6.224
 4252SOL     OW14652   6.390  12.563   2.810
 4252SOL    HW114653   6.432  12.477   2.803
 4252SOL    HW214654   6.388  12.596   2.720
 4253SOL     OW14655   7.401  13.741   4.824
 4253SOL    HW114656   7.307  13.754   4.814
 4253SOL    HW214657   7.438  13.761   4.737
 4254SOL     OW14658  10.613   6.210   8.722
 4254SOL    HW114659  10.697   6.255   8.716
 4254SOL    HW214660  10.557   6.255   8.657
 4255SOL     OW14661   8.032   9.753  12.828
 4255SOL    HW114662   8.118   9.780  12.858
 4255SOL    HW214663   7.970   9.800  12.884
 4256SOL     OW14664   3.045   7.244  11.874
 4256SOL    HW114665   3.094   7.323  11.850
 4256SOL    HW214666   2.954   7.266  11.853
 4257SOL     OW14667  12.452   6.848   8.644
 4257SOL    HW114668  12.406   6.812   8.720
 4257SOL    HW214669  12.479   6.772   8.594
 4258SOL     OW14670   3.081   1.868  10.416
 4258SOL    HW114671   3.165   1.914  10.424
 4258SOL    HW214672   3.018   1.938  10.397
 4259SOL     OW14673   3.138   9.992   6.995
 4259SOL    HW114674   3.047   9.969   6.978
 4259SOL    HW214675   3.148  10.081   6.962
 4260SOL     OW14676   3.926   8.066  11.137
 4260SOL    HW114677   3.912   8.001  11.207
 4260SOL    HW214678   4.021   8.065  11.122
 4261SOL     OW14679   0.136   5.775   0.093
 4261SOL    HW114680   0.143   5.847   0.030
 4261SOL    HW214681   0.149   5.696   0.041
 4262SOL     OW14682   0.844   9.053   2.841
 4262SOL    HW114683   0.782   9.042   2.769
 4262SOL    HW214684   0.927   9.075   2.799
 4263SOL     OW14685  14.371  11.040   1.824
 4263SOL    HW114686  14.303  11.037   1.757
 4263SOL    HW214687  14.430  10.969   1.801
 4264SOL     OW14688  13.330   8.002   3.525
 4264SOL    HW114689  13.346   8.038   3.437
 4264SOL    HW214690  13.329   7.908   3.512
 4265SOL     OW14691   1.456  14.358   8.476
 4265SOL    HW114692   1.507  14.432   8.443
 4265SOL    HW214693   1.434  14.383   8.566
 4266SOL     OW14694   1.560   7.325  10.633
 4266SOL    HW114695   1.514   7.337  10.549
 4266SOL    HW214696   1.559   7.413  10.672
 4267SOL     OW14697   0.736  13.215   5.297
 4267SOL    HW114698   0.775  13.145   5.348
 4267SOL    HW214699   0.742  13.292   5.354
 4268SOL     OW14700  10.477   8.110   6.323
 4268SOL    HW114701  10.566   8.078   6.342
 4268SOL    HW214702  10.425   8.082   6.399
 4269SOL     OW14703   0.866   5.396  11.572
 4269SOL    HW114704   0.952   5.438  11.572
 4269SOL    HW214705   0.839   5.398  11.664
 4270SOL     OW14706  10.307   4.836  11.063
 4270SOL    HW114707  10.397   4.812  11.037
 4270SOL    HW214708  10.251   4.776  11.014
 4271SOL     OW14709  14.643   2.884  12.556
 4271SOL    HW114710  14.642   2.788  12.557
 4271SOL    HW214711  14.733   2.907  12.535
 4272SOL     OW14712   3.571  11.239   8.380
 4272SOL    HW114713   3.476  11.229   8.374
 4272SOL    HW214714   3.584  11.333   8.392
 4273SOL     OW14715  12.883  10.127  10.619
 4273SOL    HW114716  12.870  10.130  10.713
 4273SOL    HW214717  12.902  10.035  10.600
 4274SOL     OW14718   0.652   9.337   1.172
 4274SOL    HW114719   0.691   9.348   1.258
 4274SOL    HW214720   0.565   9.376   1.179
 4275SOL     OW14721   6.155  14.809   6.780
 4275SOL    HW114722   6.150  14.788   6.873
 4275SOL    HW214723   6.081  14.868   6.765
 4276SOL     OW14724   5.952   9.593   4.198
 4276SOL    HW114725   5.953   9.651   4.273
 4276SOL    HW214726   5.880   9.532   4.216
 4277SOL     OW14727  10.772  11.622  13.237
 4277SOL    HW114728  10.804  11.533  13.253
 4277SOL    HW214729  10.747  11.654  13.323
 4278SOL     OW14730   6.695   2.434  12.849
 4278SOL    HW114731   6.609   2.419  12.889
 4278SOL    HW214732   6.757   2.418  12.920
 4279SOL     OW14733  10.737  13.258   4.375
 4279SOL    HW114734  10.704  13.269   4.286
 4279SOL    HW214735  10.832  13.257   4.366
 4280SOL     OW14736   4.480  10.583  12.879
 4280SOL    HW114737   4.467  10.648  12.810
 4280SOL    HW214738   4.575  10.574  12.887
 4281SOL     OW14739   7.063   4.287   5.761
 4281SOL    HW114740   6.996   4.257   5.823
 4281SOL    HW214741   7.099   4.207   5.724
 4282SOL     OW14742  11.317  13.267   3.293
 4282SOL    HW114743  11.387  13.332   3.286
 4282SOL    HW214744  11.238  13.313   3.264
 4283SOL     OW14745  14.011   9.527   6.579
 4283SOL    HW114746  13.956   9.485   6.645
 4283SOL    HW214747  14.075   9.576   6.630
 4284SOL     OW14748  10.902  12.571  12.444
 4284SOL    HW114749  10.824  12.570  12.389
 4284SOL    HW214750  10.972  12.540  12.386
 4285SOL     OW14751  13.231   7.267   0.919
 4285SOL    HW114752  13.162   7.321   0.957
 4285SOL    HW214753  13.257   7.208   0.991
 4286SOL     OW14754   5.437   7.653  13.925
 4286SOL    HW114755   5.422   7.561  13.904
 4286SOL    HW214756   5.523   7.654  13.968
 4287SOL     OW14757  10.260  11.300  12.205
 4287SOL    HW114758  10.346  11.311  12.247
 4287SOL    HW214759  10.197  11.330  12.271
 4288SOL     OW14760   3.894   7.484   8.934
 4288SOL    HW114761   3.930   7.566   8.969
 4288SOL    HW214762   3.808   7.476   8.975
 4289SOL     OW14763   7.095   8.318   7.398
 4289SOL    HW114764   7.019   8.349   7.447
 4289SOL    HW214765   7.059   8.266   7.327
 4290SOL     OW14766   3.355   5.144  11.808
 4290SOL    HW114767   3.396   5.093  11.877
 4290SOL    HW214768   3.422   5.206  11.780
 4291SOL     OW14769  14.517   8.082   4.314
 4291SOL    HW114770  14.576   8.022   4.268
 4291SOL    HW214771  14.575   8.150   4.349
 4292SOL     OW14772   0.301  11.041  11.145
 4292SOL    HW114773   0.297  11.086  11.229
 4292SOL    HW214774   0.284  10.949  11.166
 4293SOL     OW14775  12.152   6.898   1.255
 4293SOL    HW114776  12.168   6.906   1.161
 4293SOL    HW214777  12.057   6.892   1.262
 4294SOL     OW14778   0.731  10.465  12.592
 4294SOL    HW114779   0.689  10.379  12.589
 4294SOL    HW214780   0.770  10.475  12.505
 4295SOL     OW14781   2.202   7.393  12.634
 4295SOL    HW114782   2.159   7.471  12.669
 4295SOL    HW214783   2.292   7.421  12.617
 4296SOL     OW14784   0.644  13.695  13.769
 4296SOL    HW114785   0.648  13.781  13.727
 4296SOL    HW214786   0.634  13.714  13.862
 4297SOL     OW14787   7.777   0.188   2.088
 4297SOL    HW114788   7.763   0.273   2.129
 4297SOL    HW214789   7.694   0.169   2.043
 4298SOL     OW14790   6.734  12.536   4.797
 4298SOL    HW114791   6.829  12.540   4.808
 4298SOL    HW214792   6.700  12.595   4.864
 4299SOL     OW14793   8.370  10.890   6.513
 4299SOL    HW114794   8.309  10.821   6.486
 4299SOL    HW214795   8.411  10.855   6.592
 4300SOL     OW14796  13.895   3.929   3.126
 4300SOL    HW114797  13.979   3.957   3.161
 4300SOL    HW214798  13.913   3.903   3.036
 4301SOL     OW14799   0.230  13.285  13.789
 4301SOL    HW114800   0.182  13.212  13.751
 4301SOL    HW214801   0.203  13.361  13.738
 4302SOL     OW14802   8.777  10.136   1.150
 4302SOL    HW114803   8.792  10.202   1.082
 4302SOL    HW214804   8.851  10.147   1.210
 4303SOL     OW14805  11.130  14.106   3.005
 4303SOL    HW114806  11.063  14.067   2.947
 4303SOL    HW214807  11.093  14.191   3.030
 4304SOL     OW14808   9.900  12.250   5.851
 4304SOL    HW114809   9.918  12.237   5.757
 4304SOL    HW214810   9.878  12.162   5.883
 4305SOL     OW14811  11.375   6.683  10.824
 4305SOL    HW114812  11.469   6.681  10.808
 4305SOL    HW214813  11.346   6.766  10.784
 4306SOL     OW14814   3.122   9.009  10.835
 4306SOL    HW114815   3.151   8.918  10.840
 4306SOL    HW214816   3.199   9.061  10.857
 4307SOL     OW14817  13.102  14.339   1.365
 4307SOL    HW114818  13.158  14.283   1.420
 4307SOL    HW214819  13.144  14.338   1.279
 4308SOL     OW14820   9.208   6.455   4.342
 4308SOL    HW114821   9.240   6.378   4.295
 4308SOL    HW214822   9.191   6.424   4.431
 4309SOL     OW14823   4.456  11.410  13.948
 4309SOL    HW114824   4.397  11.338  13.928
 4309SOL    HW214825   4.539  11.368  13.970
 4310SOL     OW14826   9.758   8.680  10.521
 4310SOL    HW114827   9.685   8.681  10.458
 4310SOL    HW214828   9.727   8.625  10.592
 4311SOL     OW14829   4.013   8.464   2.035
 4311SOL    HW114830   4.091   8.479   2.087
 4311SOL    HW214831   4.042   8.409   1.962
 4312SOL     OW14832  13.322  13.640   0.011
 4312SOL    HW114833  13.399  13.696   0.002
 4312SOL    HW214834  13.350  13.570   0.070
 4313SOL     OW14835   5.577   7.716  13.206
 4313SOL    HW114836   5.560   7.624  13.185
 4313SOL    HW214837   5.526   7.732  13.285
 4314SOL     OW14838  12.661  10.958  10.332
 4314SOL    HW114839  12.737  10.977  10.278
 4314SOL    HW214840  12.598  11.027  10.310
 4315SOL     OW14841   7.767   8.128   4.531
 4315SOL    HW114842   7.793   8.134   4.623
 4315SOL    HW214843   7.849   8.125   4.483
 4316SOL     OW14844   6.627   4.878   5.886
 4316SOL    HW114845   6.608   4.791   5.852
 4316SOL    HW214846   6.590   4.878   5.975
 4317SOL     OW14847   9.269   5.277   6.993
 4317SOL    HW114848   9.217   5.355   7.014
 4317SOL    HW214849   9.323   5.304   6.919
 4318SOL     OW14850   0.133  11.769   8.286
 4318SOL    HW114851   0.073  11.810   8.348
 4318SOL    HW214852   0.143  11.680   8.319
 4319SOL     OW14853  10.875  10.525   5.182
 4319SOL    HW114854  10.882  10.474   5.101
 4319SOL    HW214855  10.895  10.462   5.252
 4320SOL     OW14856  12.314   8.814   4.419
 4320SOL    HW114857  12.241   8.778   4.469
 4320SOL    HW214858  12.384   8.824   4.484
 4321SOL     OW14859   5.371  14.762   2.449
 4321SOL    HW114860   5.405  14.843   2.413
 4321SOL    HW214861   5.310  14.729   2.383
 4322SOL     OW14862   6.628  11.843   2.587
 4322SOL    HW114863   6.681  11.896   2.527
 4322SOL    HW214864   6.675  11.760   2.594
 4323SOL     OW14865   4.033  11.327  14.174
 4323SOL    HW114866   4.102  11.390  14.152
 4323SOL    HW214867   4.048  11.306  14.267
 4324SOL     OW14868  11.999   6.094   8.148
 4324SOL    HW114869  12.077   6.038   8.141
 4324SOL    HW214870  12.022   6.159   8.214
 4325SOL     OW14871  13.370   8.608   6.663
 4325SOL    HW114872  13.355   8.599   6.569
 4325SOL    HW214873  13.464   8.627   6.671
 4326SOL     OW14874   1.028   0.137   5.308
 4326SOL    HW114875   0.963   0.136   5.238
 4326SOL    HW214876   1.029   0.047   5.341
 4327SOL     OW14877   5.635   6.177   4.905
 4327SOL    HW114878   5.648   6.266   4.938
 4327SOL    HW214879   5.542   6.159   4.920
 4328SOL     OW14880   3.706   8.115  11.596
 4328SOL    HW114881   3.637   8.082  11.538
 4328SOL    HW214882   3.767   8.159  11.537
 4329SOL     OW14883   0.910  13.768   4.392
 4329SOL    HW114884   0.899  13.831   4.463
 4329SOL    HW214885   0.826  13.722   4.388
 4330SOL     OW14886  11.795  11.470  11.282
 4330SOL    HW114887  11.844  11.519  11.348
 4330SOL    HW214888  11.727  11.425  11.331
 4331SOL     OW14889   0.893   6.167  11.014
 4331SOL    HW114890   0.902   6.247  11.066
 4331SOL    HW214891   0.803   6.140  11.027
 4332SOL     OW14892   0.228  13.450   3.146
 4332SOL    HW114893   0.213  13.367   3.099
 4332SOL    HW214894   0.299  13.492   3.097
 4333SOL     OW14895  14.114   4.254  11.406
 4333SOL    HW114896  14.135   4.222  11.318
 4333SOL    HW214897  14.196   4.289  11.439
 4334SOL     OW14898   9.309   1.434   4.385
 4334SOL    HW114899   9.239   1.369   4.377
 4334SOL    HW214900   9.326   1.440   4.479
 4335SOL     OW14901   5.893   8.217   0.064
 4335SOL    HW114902   5.880   8.210   0.159
 4335SOL    HW214903   5.810   8.249   0.030
 4336SOL     OW14904   5.484  12.852   0.504
 4336SOL    HW114905   5.450  12.764   0.516
 4336SOL    HW214906   5.472  12.870   0.411
 4337SOL     OW14907   0.169   0.125   3.607
 4337SOL    HW114908   0.208   0.089   3.527
 4337SOL    HW214909   0.206   0.213   3.614
 4338SOL     OW14910  13.688   4.318   4.968
 4338SOL    HW114911  13.665   4.295   4.878
 4338SOL    HW214912  13.723   4.407   4.961
 4339SOL     OW14913   1.499   7.730   3.368
 4339SOL    HW114914   1.560   7.777   3.425
 4339SOL    HW214915   1.429   7.701   3.426
 4340SOL     OW14916   1.331   9.425   4.763
 4340SOL    HW114917   1.294   9.337   4.760
 4340SOL    HW214918   1.413   9.418   4.714
 4341SOL     OW14919   2.876  10.774   0.137
 4341SOL    HW114920   2.838  10.855   0.172
 4341SOL    HW214921   2.901  10.796   0.047
 4342SOL     OW14922   8.932   3.951  10.266
 4342SOL    HW114923   9.001   3.886  10.281
 4342SOL    HW214924   8.851   3.901  10.266
 4343SOL     OW14925  11.015  12.936   6.217
 4343SOL    HW114926  11.065  12.958   6.138
 4343SOL    HW214927  11.052  12.852   6.246
 4344SOL     OW14928   0.977   3.238  10.611
 4344SOL    HW114929   0.896   3.272  10.647
 4344SOL    HW214930   0.996   3.296  10.537
 4345SOL     OW14931   3.572   1.332   9.965
 4345SOL    HW114932   3.549   1.252   9.918
 4345SOL    HW214933   3.650   1.309  10.015
 4346SOL     OW14934  12.949   4.481   6.205
 4346SOL    HW114935  12.886   4.478   6.277
 4346SOL    HW214936  12.982   4.391   6.198
 4347SOL     OW14937   9.030   1.504   5.660
 4347SOL    HW114938   9.005   1.570   5.596
 4347SOL    HW214939   8.972   1.430   5.643
 4348SOL     OW14940  12.641   9.107   0.851
 4348SOL    HW114941  12.709   9.162   0.890
 4348SOL    HW214942  12.688   9.030   0.818
 4349SOL     OW14943   0.056  14.674  11.348
 4349SOL    HW114944   0.041  14.682  11.442
 4349SOL    HW214945   0.014  14.751  11.310
 4350SOL     OW14946  14.409   4.473   3.976
 4350SOL    HW114947  14.386   4.386   3.945
 4350SOL    HW214948  14.431   4.461   4.068
 4351SOL     OW14949   7.703   2.755  13.030
 4351SOL    HW114950   7.747   2.796  12.956
 4351SOL    HW214951   7.756   2.782  13.106
 4352SOL     OW14952  10.161  12.170  10.219
 4352SOL    HW114953  10.089  12.204  10.166
 4352SOL    HW214954  10.168  12.232  10.292
 4353SOL     OW14955   1.769  12.273  10.534
 4353SOL    HW114956   1.722  12.230  10.463
 4353SOL    HW214957   1.851  12.303  10.494
 4354SOL     OW14958  12.822  14.180   6.836
 4354SOL    HW114959  12.801  14.170   6.743
 4354SOL    HW214960  12.776  14.259   6.864
 4355SOL     OW14961   8.415   4.946  13.663
 4355SOL    HW114962   8.491   4.940  13.604
 4355SOL    HW214963   8.355   5.005  13.618
 4356SOL     OW14964   3.369   4.055   6.374
 4356SOL    HW114965   3.332   4.135   6.337
 4356SOL    HW214966   3.451   4.042   6.325
 4357SOL     OW14967  14.304   8.034   1.046
 4357SOL    HW114968  14.221   7.993   1.070
 4357SOL    HW214969  14.308   8.113   1.100
 4358SOL     OW14970  14.475  10.051  12.334
 4358SOL    HW114971  14.493  10.135  12.293
 4358SOL    HW214972  14.380  10.047  12.341
 4359SOL     OW14973   2.848  13.610  10.193
 4359SOL    HW114974   2.876  13.687  10.144
 4359SOL    HW214975   2.812  13.646  10.275
 4360SOL     OW14976  12.747   5.406   0.975
 4360SOL    HW114977  12.804   5.404   1.052
 4360SOL    HW214978  12.793   5.460   0.911
 4361SOL     OW14979   1.458   7.089   3.936
 4361SOL    HW114980   1.378   7.053   3.973
 4361SOL    HW214981   1.523   7.084   4.006
 4362SOL     OW14982   9.574  14.862  14.499
 4362SOL    HW114983   9.609   0.032  14.570
 4362SOL    HW214984   9.634  14.787  14.493
 4363SOL     OW14985   4.935   3.945   6.152
 4363SOL    HW114986   4.915   3.858   6.186
 4363SOL    HW214987   4.879   3.954   6.075
 4364SOL     OW14988   7.913   0.441  10.730
 4364SOL    HW114989   7.991   0.470  10.683
 4364SOL    HW214990   7.936   0.353  10.762
 4365SOL     OW14991  11.880  13.154   4.540
 4365SOL    HW114992  11.937  13.114   4.474
 4365SOL    HW214993  11.893  13.248   4.529
 4366SOL     OW14994   4.372  10.032   8.911
 4366SOL    HW114995   4.362   9.948   8.957
 4366SOL    HW214996   4.378  10.097   8.981
 4367SOL     OW14997   5.588  13.158   0.355
 4367SOL    HW114998   5.558  13.245   0.331
 4367SOL    HW214999   5.533  13.098   0.304
 4368SOL     OW15000  12.913   2.438   9.129
 4368SOL    HW115001  12.837   2.418   9.183
 4368SOL    HW215002  12.880   2.500   9.064
 4369SOL     OW15003   8.649   5.611   9.963
 4369SOL    HW115004   8.621   5.612   9.872
 4369SOL    HW215005   8.664   5.519   9.983
 4370SOL     OW15006   3.263  12.012   9.944
 4370SOL    HW115007   3.211  11.973   9.874
 4370SOL    HW215008   3.353  11.988   9.923
 4371SOL     OW15009  12.707  14.238  10.486
 4371SOL    HW115010  12.659  14.287  10.420
 4371SOL    HW215011  12.798  14.240  10.455
 4372SOL     OW15012   6.051  12.590   5.505
 4372SOL    HW115013   6.068  12.516   5.563
 4372SOL    HW215014   6.137  12.614   5.469
 4373SOL     OW15015  11.965   5.428   8.195
 4373SOL    HW115016  11.979   5.340   8.158
 4373SOL    HW215017  12.050   5.452   8.232
 4374SOL     OW15018  14.018   9.257   0.706
 4374SOL    HW115019  14.103   9.288   0.739
 4374SOL    HW215020  14.028   9.256   0.611
 4375SOL     OW15021   8.540   6.661   8.798
 4375SOL    HW115022   8.513   6.578   8.760
 4375SOL    HW215023   8.595   6.701   8.731
 4376SOL     OW15024  12.175   2.534   2.915
 4376SOL    HW115025  12.248   2.595   2.914
 4376SOL    HW215026  12.119   2.561   2.842
 4377SOL     OW15027   6.094   8.626   8.185
 4377SOL    HW115028   6.089   8.578   8.268
 4377SOL    HW215029   6.076   8.717   8.209
 4378SOL     OW15030  12.681  13.018  10.857
 4378SOL    HW115031  12.619  12.954  10.890
 4378SOL    HW215032  12.751  13.020  10.922
 4379SOL     OW15033   2.126   8.155  12.946
 4379SOL    HW115034   2.158   8.202  13.023
 4379SOL    HW215035   2.148   8.212  12.872
 4380SOL     OW15036   3.983   6.574   7.606
 4380SOL    HW115037   3.976   6.625   7.687
 4380SOL    HW215038   3.916   6.611   7.549
 4381SOL     OW15039   6.043   9.435   0.698
 4381SOL    HW115040   5.989   9.391   0.763
 4381SOL    HW215041   6.050   9.525   0.728
 4382SOL     OW15042   7.365  10.043   8.992
 4382SOL    HW115043   7.328   9.986   9.060
 4382SOL    HW215044   7.325  10.012   8.911
 4383SOL     OW15045   8.172   7.894   4.405
 4383SOL    HW115046   8.174   7.913   4.499
 4383SOL    HW215047   8.254   7.849   4.387
 4384SOL     OW15048  11.214  10.929   2.782
 4384SOL    HW115049  11.217  10.849   2.834
 4384SOL    HW215050  11.255  10.905   2.699
 4385SOL     OW15051   7.014   8.015  13.869
 4385SOL    HW115052   7.044   7.930  13.903
 4385SOL    HW215053   7.092   8.054  13.830
 4386SOL     OW15054   3.538  12.137   3.021
 4386SOL    HW115055   3.603  12.072   2.994
 4386SOL    HW215056   3.483  12.091   3.084
 4387SOL     OW15057   0.789   2.853   9.300
 4387SOL    HW115058   0.780   2.850   9.395
 4387SOL    HW215059   0.703   2.880   9.268
 4388SOL     OW15060  12.013   7.162   5.569
 4388SOL    HW115061  12.008   7.233   5.633
 4388SOL    HW215062  12.011   7.082   5.621
 4389SOL     OW15063   7.342  10.558  11.562
 4389SOL    HW115064   7.352  10.516  11.476
 4389SOL    HW215065   7.330  10.651  11.542
 4390SOL     OW15066   1.842   5.851   4.072
 4390SOL    HW115067   1.782   5.781   4.046
 4390SOL    HW215068   1.927   5.807   4.078
 4391SOL     OW15069  10.649   0.741  13.726
 4391SOL    HW115070  10.741   0.758  13.750
 4391SOL    HW215071  10.639   0.647  13.736
 4392SOL     OW15072  12.206  11.435  11.437
 4392SOL    HW115073  12.197  11.431  11.342
 4392SOL    HW215074  12.127  11.394  11.470
 4393SOL     OW15075   1.937   5.691   9.179
 4393SOL    HW115076   1.997   5.617   9.183
 4393SOL    HW215077   1.850   5.651   9.175
 4394SOL     OW15078   6.339   3.950  14.631
 4394SOL    HW115079   6.432   3.969  14.641
 4394SOL    HW215080   6.311   3.921  14.718
 4395SOL     OW15081   8.110   3.659   8.182
 4395SOL    HW115082   8.146   3.647   8.094
 4395SOL    HW215083   8.148   3.588   8.233
 4396SOL     OW15084   9.049  12.423   3.937
 4396SOL    HW115085   9.082  12.372   4.011
 4396SOL    HW215086   9.022  12.506   3.975
 4397SOL     OW15087   2.257  12.282   8.021
 4397SOL    HW115088   2.337  12.318   8.059
 4397SOL    HW215089   2.193  12.284   8.092
 4398SOL     OW15090   1.455   8.519  14.849
 4398SOL    HW115091   1.536   8.469  14.842
 4398SOL    HW215092   1.437   8.549  14.760
 4399SOL     OW15093   9.189   4.112   1.989
 4399SOL    HW115094   9.230   4.184   1.940
 4399SOL    HW215095   9.242   4.106   2.069
 4400SOL     OW15096   3.369   9.923  12.718
 4400SOL    HW115097   3.289   9.909  12.769
 4400SOL    HW215098   3.416   9.839  12.724
 4401SOL     OW15099   5.461   4.033   3.182
 4401SOL    HW115100   5.504   4.060   3.263
 4401SOL    HW215101   5.454   3.938   3.190
 4402SOL     OW15102   2.171  11.522  13.224
 4402SOL    HW115103   2.079  11.514  13.198
 4402SOL    HW215104   2.213  11.563  13.149
 4403SOL     OW15105   5.586   3.218   5.459
 4403SOL    HW115106   5.549   3.210   5.547
 4403SOL    HW215107   5.513   3.195   5.401
 4404SOL     OW15108  10.511   4.066   1.671
 4404SOL    HW115109  10.427   4.084   1.630
 4404SOL    HW215110  10.557   4.150   1.670
 4405SOL     OW15111  10.003  11.349  13.423
 4405SOL    HW115112  10.031  11.376  13.336
 4405SOL    HW215113  10.052  11.269  13.441
 4406SOL     OW15114   5.292   5.890   5.844
 4406SOL    HW115115   5.244   5.818   5.804
 4406SOL    HW215116   5.230   5.963   5.842
 4407SOL     OW15117   9.863  12.552  11.812
 4407SOL    HW115118   9.928  12.566  11.881
 4407SOL    HW215119   9.910  12.505  11.744
 4408SOL     OW15120   7.020  10.416   1.951
 4408SOL    HW115121   7.058  10.343   1.903
 4408SOL    HW215122   7.083  10.487   1.943
 4409SOL     OW15123  13.999  10.735  11.327
 4409SOL    HW115124  13.959  10.663  11.280
 4409SOL    HW215125  14.002  10.807  11.264
 4410SOL     OW15126   6.125   6.365   9.461
 4410SOL    HW115127   6.085   6.443   9.423
 4410SOL    HW215128   6.195   6.399   9.517
 4411SOL     OW15129   8.668  10.553   9.966
 4411SOL    HW115130   8.584  10.543  10.011
 4411SOL    HW215131   8.733  10.538  10.035
 4412SOL     OW15132  12.747  14.549   3.285
 4412SOL    HW115133  12.798  14.535   3.366
 4412SOL    HW215134  12.658  14.565   3.315
 4413SOL     OW15135   5.272   1.059   4.752
 4413SOL    HW115136   5.191   1.017   4.722
 4413SOL    HW215137   5.247   1.105   4.832
 4414SOL     OW15138   4.408   6.867   6.948
 4414SOL    HW115139   4.408   6.958   6.917
 4414SOL    HW215140   4.451   6.871   7.033
 4415SOL     OW15141   3.465   5.573  10.425
 4415SOL    HW115142   3.391   5.630  10.444
 4415SOL    HW215143   3.492   5.539  10.511
 4416SOL     OW15144  13.169  11.695   7.345
 4416SOL    HW115145  13.091  11.723   7.297
 4416SOL    HW215146  13.144  11.612   7.386
 4417SOL     OW15147   2.007   6.935  12.562
 4417SOL    HW115148   1.956   6.905  12.487
 4417SOL    HW215149   2.055   7.011  12.529
 4418SOL     OW15150  10.465   3.054   4.082
 4418SOL    HW115151  10.548   3.072   4.125
 4418SOL    HW215152  10.404   3.117   4.121
 4419SOL     OW15153   7.747  12.695   6.194
 4419SOL    HW115154   7.768  12.783   6.163
 4419SOL    HW215155   7.831  12.650   6.198
 4420SOL     OW15156   6.125  13.689  10.975
 4420SOL    HW115157   6.218  13.711  10.969
 4420SOL    HW215158   6.083  13.745  10.910
 4421SOL     OW15159   2.926   8.217   3.418
 4421SOL    HW115160   2.912   8.311   3.403
 4421SOL    HW215161   2.840   8.184   3.444
 4422SOL     OW15162   0.120   1.286   8.081
 4422SOL    HW115163   0.151   1.331   8.159
 4422SOL    HW215164   0.037   1.246   8.107
 4423SOL     OW15165  13.466   1.151   5.128
 4423SOL    HW115166  13.552   1.187   5.104
 4423SOL    HW215167  13.425   1.220   5.180
 4424SOL     OW15168  11.705   7.724   1.484
 4424SOL    HW115169  11.624   7.719   1.534
 4424SOL    HW215170  11.695   7.802   1.429
 4425SOL     OW15171  11.029   4.452  12.581
 4425SOL    HW115172  11.036   4.361  12.608
 4425SOL    HW215173  11.089   4.461  12.507
 4426SOL     OW15174  13.959   4.187  13.874
 4426SOL    HW115175  13.925   4.215  13.958
 4426SOL    HW215176  14.033   4.246  13.857
 4427SOL     OW15177   6.307  12.398   8.704
 4427SOL    HW115178   6.229  12.361   8.663
 4427SOL    HW215179   6.380  12.354   8.662
 4428SOL     OW15180   0.965   7.033  13.703
 4428SOL    HW115181   0.896   7.096  13.724
 4428SOL    HW215182   1.028   7.084  13.652
 4429SOL     OW15183   8.848  12.974   7.292
 4429SOL    HW115184   8.936  13.011   7.294
 4429SOL    HW215185   8.790  13.050   7.305
 4430SOL     OW15186  10.152  12.057   2.293
 4430SOL    HW115187  10.163  12.111   2.371
 4430SOL    HW215188  10.177  12.115   2.221
 4431SOL     OW15189   4.606  11.469  12.911
 4431SOL    HW115190   4.679  11.460  12.972
 4431SOL    HW215191   4.530  11.486  12.967
 4432SOL     OW15192   2.832   2.423   1.926
 4432SOL    HW115193   2.918   2.453   1.955
 4432SOL    HW215194   2.838   2.419   1.831
 4433SOL     OW15195   9.662   2.316   0.180
 4433SOL    HW115196   9.570   2.325   0.205
 4433SOL    HW215197   9.661   2.255   0.107
 4434SOL     OW15198   6.774   3.271   7.879
 4434SOL    HW115199   6.781   3.306   7.790
 4434SOL    HW215200   6.697   3.214   7.876
 4435SOL     OW15201   9.594   8.460   2.585
 4435SOL    HW115202   9.664   8.473   2.522
 4435SOL    HW215203   9.514   8.486   2.539
 4436SOL     OW15204  12.340   3.704   9.614
 4436SOL    HW115205  12.258   3.744   9.585
 4436SOL    HW215206  12.406   3.738   9.553
 4437SOL     OW15207  11.953  13.516   0.043
 4437SOL    HW115208  11.907  13.574   0.103
 4437SOL    HW215209  11.965  13.568  14.846
 4438SOL     OW15210   0.912   2.564   8.176
 4438SOL    HW115211   0.858   2.605   8.109
 4438SOL    HW215212   0.985   2.525   8.128
 4439SOL     OW15213  11.064   5.591  12.708
 4439SOL    HW115214  10.979   5.630  12.732
 4439SOL    HW215215  11.080   5.525  12.775
 4440SOL     OW15216   1.572  13.421  10.443
 4440SOL    HW115217   1.502  13.368  10.405
 4440SOL    HW215218   1.541  13.511  10.432
 4441SOL     OW15219   5.577   3.377   4.595
 4441SOL    HW115220   5.515   3.378   4.523
 4441SOL    HW215221   5.561   3.459   4.642
 4442SOL     OW15222   0.555   9.127   5.814
 4442SOL    HW115223   0.620   9.174   5.866
 4442SOL    HW215224   0.530   9.190   5.746
 4443SOL     OW15225   9.672   4.609   4.664
 4443SOL    HW115226   9.691   4.621   4.571
 4443SOL    HW215227   9.579   4.585   4.667
 4444SOL     OW15228   0.109  14.042   9.282
 4444SOL    HW115229   0.066  14.070   9.201
 4444SOL    HW215230   0.200  14.070   9.270
 4445SOL     OW15231  11.443   8.269   0.756
 4445SOL    HW115232  11.403   8.321   0.687
 4445SOL    HW215233  11.420   8.178   0.734
 4446SOL     OW15234  13.237   4.907   9.449
 4446SOL    HW115235  13.239   4.849   9.373
 4446SOL    HW215236  13.163   4.877   9.501
 4447SOL     OW15237   1.782   1.489   4.166
 4447SOL    HW115238   1.738   1.503   4.082
 4447SOL    HW215239   1.794   1.394   4.171
 4448SOL     OW15240   7.263   9.876   9.230
 4448SOL    HW115241   7.355   9.884   9.255
 4448SOL    HW215242   7.215   9.926   9.297
 4449SOL     OW15243   4.208   6.220   0.999
 4449SOL    HW115244   4.235   6.312   0.999
 4449SOL    HW215245   4.194   6.200   1.092
 4450SOL     OW15246   3.103   5.487   4.194
 4450SOL    HW115247   3.023   5.440   4.216
 4450SOL    HW215248   3.157   5.421   4.150
 4451SOL     OW15249   3.078   1.623  14.408
 4451SOL    HW115250   3.146   1.654  14.468
 4451SOL    HW215251   3.127   1.580  14.338
 4452SOL     OW15252   5.111   5.464   9.133
 4452SOL    HW115253   5.195   5.473   9.178
 4452SOL    HW215254   5.089   5.371   9.143
 4453SOL     OW15255   1.006   0.480   8.339
 4453SOL    HW115256   1.074   0.548   8.340
 4453SOL    HW215257   0.999   0.455   8.246
 4454SOL     OW15258   1.840   0.895   7.760
 4454SOL    HW115259   1.902   0.933   7.821
 4454SOL    HW215260   1.798   0.970   7.718
 4455SOL     OW15261   2.323  10.080   9.532
 4455SOL    HW115262   2.398  10.028   9.505
 4455SOL    HW215263   2.359  10.167   9.551
 4456SOL     OW15264  13.137   5.808   9.448
 4456SOL    HW115265  13.108   5.868   9.517
 4456SOL    HW215266  13.173   5.733   9.495
 4457SOL     OW15267  11.756   5.655   9.113
 4457SOL    HW115268  11.714   5.668   9.199
 4457SOL    HW215269  11.683   5.651   9.051
 4458SOL     OW15270  14.290   5.980  10.312
 4458SOL    HW115271  14.344   6.058  10.326
 4458SOL    HW215272  14.298   5.962  10.219
 4459SOL     OW15273   8.694   2.215   5.759
 4459SOL    HW115274   8.728   2.301   5.786
 4459SOL    HW215275   8.605   2.233   5.730
 4460SOL     OW15276  14.096  10.472  14.630
 4460SOL    HW115277  14.071  10.413  14.560
 4460SOL    HW215278  14.036  10.452  14.702
 4461SOL     OW15279  13.324   2.692   1.248
 4461SOL    HW115280  13.412   2.725   1.231
 4461SOL    HW215281  13.297   2.650   1.166
 4462SOL     OW15282   2.666   4.036  12.381
 4462SOL    HW115283   2.644   4.129  12.386
 4462SOL    HW215284   2.758   4.034  12.355
 4463SOL     OW15285   3.527   0.789  10.332
 4463SOL    HW115286   3.559   0.878  10.323
 4463SOL    HW215287   3.530   0.753  10.243
 4464SOL     OW15288   7.699  10.360   4.457
 4464SOL    HW115289   7.646  10.437   4.436
 4464SOL    HW215290   7.637  10.296   4.491
 4465SOL     OW15291  11.684  10.009   3.985
 4465SOL    HW115292  11.658  10.070   3.916
 4465SOL    HW215293  11.727   9.938   3.939
 4466SOL     OW15294   3.936   4.804   9.367
 4466SOL    HW115295   3.891   4.754   9.434
 4466SOL    HW215296   3.884   4.791   9.288
 4467SOL     OW15297   0.272  13.765   8.059
 4467SOL    HW115298   0.197  13.785   8.002
 4467SOL    HW215299   0.281  13.842   8.114
 4468SOL     OW15300   9.875   0.214   8.706
 4468SOL    HW115301   9.931   0.232   8.631
 4468SOL    HW215302   9.919   0.256   8.780
 4469SOL     OW15303  14.063   3.658  13.869
 4469SOL    HW115304  14.049   3.734  13.814
 4469SOL    HW215305  13.984   3.651  13.922
 4470SOL     OW15306  13.470   5.412   0.149
 4470SOL    HW115307  13.427   5.385   0.069
 4470SOL    HW215308  13.470   5.508   0.145
 4471SOL     OW15309  10.699  10.077   8.538
 4471SOL    HW115310  10.673  10.169   8.550
 4471SOL    HW215311  10.687  10.062   8.444
 4472SOL     OW15312  12.564   7.664   9.892
 4472SOL    HW115313  12.617   7.660   9.813
 4472SOL    HW215314  12.622   7.631   9.961
 4473SOL     OW15315   8.436   7.586  13.008
 4473SOL    HW115316   8.489   7.559  12.933
 4473SOL    HW215317   8.501   7.616  13.073
 4474SOL     OW15318   2.947   2.506   0.257
 4474SOL    HW115319   2.955   2.557   0.338
 4474SOL    HW215320   2.860   2.465   0.264
 4475SOL     OW15321   5.842   1.291  11.955
 4475SOL    HW115322   5.819   1.206  11.917
 4475SOL    HW215323   5.774   1.351  11.923
 4476SOL     OW15324   9.339  13.610   0.007
 4476SOL    HW115325   9.261  13.567  14.854
 4476SOL    HW215326   9.322  13.618   0.101
 4477SOL     OW15327   1.883   0.516   1.054
 4477SOL    HW115328   1.884   0.533   0.960
 4477SOL    HW215329   1.906   0.423   1.061
 4478SOL     OW15330  14.652  12.801  10.998
 4478SOL    HW115331  14.712  12.768  11.064
 4478SOL    HW215332  14.629  12.889  11.027
 4479SOL     OW15333  12.368   2.700  11.793
 4479SOL    HW115334  12.373   2.710  11.888
 4479SOL    HW215335  12.455   2.667  11.768
 4480SOL     OW15336  10.463  13.545   1.549
 4480SOL    HW115337  10.438  13.489   1.476
 4480SOL    HW215338  10.396  13.529   1.616
 4481SOL     OW15339   9.273  14.592   4.059
 4481SOL    HW115340   9.241  14.681   4.077
 4481SOL    HW215341   9.295  14.593   3.966
 4482SOL     OW15342  10.651   8.918   4.603
 4482SOL    HW115343  10.583   8.976   4.636
 4482SOL    HW215344  10.687   8.875   4.681
 4483SOL     OW15345   1.086  11.345   5.544
 4483SOL    HW115346   1.110  11.435   5.520
 4483SOL    HW215347   1.029  11.355   5.620
 4484SOL     OW15348  12.687  13.595  13.817
 4484SOL    HW115349  12.696  13.507  13.852
 4484SOL    HW215350  12.594  13.615  13.825
 4485SOL     OW15351   2.638   0.022  11.505
 4485SOL    HW115352   2.557  14.854  11.513
 4485SOL    HW215353   2.690  14.878  11.580
 4486SOL     OW15354   9.954   6.743   9.417
 4486SOL    HW115355   9.862   6.740   9.394
 4486SOL    HW215356   9.955   6.773   9.508
 4487SOL     OW15357   1.438   6.080  12.238
 4487SOL    HW115358   1.511   6.036  12.194
 4487SOL    HW215359   1.460   6.074  12.331
 4488SOL     OW15360  13.027  10.658  11.242
 4488SOL    HW115361  13.040  10.687  11.332
 4488SOL    HW215362  12.970  10.725  11.204
 4489SOL     OW15363   6.601   1.093   5.605
 4489SOL    HW115364   6.549   1.174   5.602
 4489SOL    HW215365   6.538   1.024   5.583
 4490SOL     OW15366   5.318   0.015   0.947
 4490SOL    HW115367   5.259  14.822   0.953
 4490SOL    HW215368   5.322   0.035   0.853
 4491SOL     OW15369  12.589  11.434   7.117
 4491SOL    HW115370  12.510  11.463   7.071
 4491SOL    HW215371  12.649  11.509   7.112
 4492SOL     OW15372   2.907   8.019   8.446
 4492SOL    HW115373   2.905   8.090   8.510
 4492SOL    HW215374   2.970   8.047   8.380
 4493SOL     OW15375   9.886  12.131   3.084
 4493SOL    HW115376   9.882  12.108   3.177
 4493SOL    HW215377   9.978  12.151   3.068
 4494SOL     OW15378   5.124  14.229   9.201
 4494SOL    HW115379   5.081  14.160   9.150
 4494SOL    HW215380   5.133  14.302   9.140
 4495SOL     OW15381  10.029   6.448   9.634
 4495SOL    HW115382  10.038   6.357   9.604
 4495SOL    HW215383  10.103   6.462   9.693
 4496SOL     OW15384   6.676  14.523   2.681
 4496SOL    HW115385   6.630  14.597   2.642
 4496SOL    HW215386   6.741  14.563   2.739
 4497SOL     OW15387   8.192   5.073   9.462
 4497SOL    HW115388   8.116   5.040   9.510
 4497SOL    HW215389   8.192   5.022   9.381
 4498SOL     OW15390   7.283   6.846   1.504
 4498SOL    HW115391   7.268   6.930   1.461
 4498SOL    HW215392   7.247   6.857   1.592
 4499SOL     OW15393   4.147   4.923   8.057
 4499SOL    HW115394   4.183   4.879   8.134
 4499SOL    HW215395   4.208   4.902   7.986
 4500SOL     OW15396   2.733   5.522  12.585
 4500SOL    HW115397   2.822   5.554  12.569
 4500SOL    HW215398   2.679   5.601  12.582
 4501SOL     OW15399   1.553  13.456   9.574
 4501SOL    HW115400   1.571  13.544   9.541
 4501SOL    HW215401   1.461  13.441   9.554
 4502SOL     OW15402   9.249   6.181  14.506
 4502SOL    HW115403   9.281   6.246  14.444
 4502SOL    HW215404   9.308   6.106  14.496
 4503SOL     OW15405   7.000   2.508   6.446
 4503SOL    HW115406   7.069   2.467   6.393
 4503SOL    HW215407   6.920   2.462   6.422
 4504SOL     OW15408   8.404   3.927  14.320
 4504SOL    HW115409   8.394   3.934  14.415
 4504SOL    HW215410   8.316   3.939  14.285
 4505SOL     OW15411   8.751  12.325   3.226
 4505SOL    HW115412   8.829  12.367   3.263
 4505SOL    HW215413   8.710  12.282   3.300
 4506SOL     OW15414   7.929  13.903  12.431
 4506SOL    HW115415   7.968  13.977  12.478
 4506SOL    HW215416   7.836  13.908  12.451
 4507SOL     OW15417  11.248   6.955   0.279
 4507SOL    HW115418  11.296   6.916   0.205
 4507SOL    HW215419  11.309   6.948   0.353
 4508SOL     OW15420   6.020   0.999   6.608
 4508SOL    HW115421   6.112   1.020   6.590
 4508SOL    HW215422   6.023   0.927   6.670
 4509SOL     OW15423  14.105   9.750   2.871
 4509SOL    HW115424  14.126   9.827   2.818
 4509SOL    HW215425  14.184   9.735   2.923
 4510SOL     OW15426   9.574  11.924   9.913
 4510SOL    HW115427   9.541  12.014   9.901
 4510SOL    HW215428   9.669  11.934   9.917
 4511SOL     OW15429  13.925  13.842  10.483
 4511SOL    HW115430  14.001  13.792  10.512
 4511SOL    HW215431  13.959  13.930  10.467
 4512SOL     OW15432  12.254  13.003  11.924
 4512SOL    HW115433  12.283  13.027  11.836
 4512SOL    HW215434  12.322  12.943  11.955
 4513SOL     OW15435   7.023   0.158   4.303
 4513SOL    HW115436   7.098   0.203   4.343
 4513SOL    HW215437   6.977   0.117   4.376
 4514SOL     OW15438  14.228   0.900  12.458
 4514SOL    HW115439  14.245   0.819  12.409
 4514SOL    HW215440  14.227   0.874  12.550
 4515SOL     OW15441   7.969   2.019  13.090
 4515SOL    HW115442   8.063   2.023  13.108
 4515SOL    HW215443   7.937   1.948  13.145
 4516SOL     OW15444   0.023   6.056   6.493
 4516SOL    HW115445  14.828   6.072   6.438
 4516SOL    HW215446   0.014   5.965   6.520
 4517SOL     OW15447   8.662   0.460  14.809
 4517SOL    HW115448   8.622   0.452  14.722
 4517SOL    HW215449   8.754   0.478  14.791
 4518SOL     OW15450  14.334  10.097  13.567
 4518SOL    HW115451  14.252  10.126  13.606
 4518SOL    HW215452  14.323  10.112  13.473
 4519SOL     OW15453   1.615   7.753   4.258
 4519SOL    HW115454   1.671   7.813   4.308
 4519SOL    HW215455   1.578   7.694   4.324
 4520SOL     OW15456  10.317  10.881   6.707
 4520SOL    HW115457  10.316  10.787   6.689
 4520SOL    HW215458  10.300  10.889   6.801
 4521SOL     OW15459   9.778  12.083   8.464
 4521SOL    HW115460   9.764  11.995   8.431
 4521SOL    HW215461   9.705  12.134   8.427
 4522SOL     OW15462   8.729  11.669   3.455
 4522SOL    HW115463   8.732  11.617   3.375
 4522SOL    HW215464   8.742  11.759   3.426
 4523SOL     OW15465   3.563  14.770   0.267
 4523SOL    HW115466   3.492  14.772   0.332
 4523SOL    HW215467   3.548  14.688   0.219
 4524SOL     OW15468   5.091   1.279   6.428
 4524SOL    HW115469   5.097   1.230   6.346
 4524SOL    HW215470   5.181   1.308   6.445
 4525SOL     OW15471   4.778   3.076  10.320
 4525SOL    HW115472   4.772   3.090  10.225
 4525SOL    HW215473   4.786   3.164  10.356
 4526SOL     OW15474   4.258   9.742   1.247
 4526SOL    HW115475   4.184   9.708   1.196
 4526SOL    HW215476   4.236   9.722   1.338
 4527SOL     OW15477  10.942   7.973   1.585
 4527SOL    HW115478  10.874   8.024   1.543
 4527SOL    HW215479  11.023   7.996   1.539
 4528SOL     OW15480  11.782   8.603   5.136
 4528SOL    HW115481  11.779   8.646   5.221
 4528SOL    HW215482  11.811   8.514   5.154
 4529SOL     OW15483  12.349  13.233  11.512
 4529SOL    HW115484  12.305  13.318  11.502
 4529SOL    HW215485  12.340  13.191  11.427
 4530SOL     OW15486   0.278   9.056   5.319
 4530SOL    HW115487   0.290   8.971   5.278
 4530SOL    HW215488   0.246   9.036   5.407
 4531SOL     OW15489   6.911   3.531  10.367
 4531SOL    HW115490   6.854   3.584  10.423
 4531SOL    HW215491   6.908   3.444  10.406
 4532SOL     OW15492   7.118  14.470  12.477
 4532SOL    HW115493   7.184  14.497  12.413
 4532SOL    HW215494   7.061  14.547  12.486
 4533SOL     OW15495   8.561  10.128   9.376
 4533SOL    HW115496   8.527  10.215   9.357
 4533SOL    HW215497   8.490  10.069   9.352
 4534SOL     OW15498   0.436   2.791   7.528
 4534SOL    HW115499   0.406   2.881   7.540
 4534SOL    HW215500   0.356   2.741   7.512
 4535SOL     OW15501  12.651   0.522  10.332
 4535SOL    HW115502  12.557   0.523  10.315
 4535SOL    HW215503  12.667   0.438  10.374
 4536SOL     OW15504  12.903  11.766  10.199
 4536SOL    HW115505  12.830  11.783  10.139
 4536SOL    HW215506  12.982  11.774  10.144
 4537SOL     OW15507   1.241   6.416  12.652
 4537SOL    HW115508   1.313   6.432  12.590
 4537SOL    HW215509   1.284   6.382  12.730
 4538SOL     OW15510  10.197  10.354  10.942
 4538SOL    HW115511  10.194  10.283  10.878
 4538SOL    HW215512  10.210  10.309  11.026
 4539SOL     OW15513   6.324   8.279  14.582
 4539SOL    HW115514   6.282   8.209  14.631
 4539SOL    HW215515   6.285   8.273  14.494
 4540SOL     OW15516   7.488   6.275   7.395
 4540SOL    HW115517   7.540   6.322   7.461
 4540SOL    HW215518   7.397   6.295   7.417
 4541SOL     OW15519  14.453   9.810   5.637
 4541SOL    HW115520  14.461   9.878   5.570
 4541SOL    HW215521  14.365   9.823   5.673
 4542SOL     OW15522   2.978   6.184   3.168
 4542SOL    HW115523   2.898   6.152   3.210
 4542SOL    HW215524   2.983   6.136   3.086
 4543SOL     OW15525   0.936   7.807   3.741
 4543SOL    HW115526   1.031   7.817   3.731
 4543SOL    HW215527   0.901   7.892   3.714
 4544SOL     OW15528  13.103   6.932   5.077
 4544SOL    HW115529  13.177   6.970   5.126
 4544SOL    HW215530  13.048   6.893   5.145
 4545SOL     OW15531   9.857   8.663   3.933
 4545SOL    HW115532   9.896   8.617   4.007
 4545SOL    HW215533   9.828   8.747   3.970
 4546SOL     OW15534   5.862   7.570  12.839
 4546SOL    HW115535   5.801   7.503  12.809
 4546SOL    HW215536   5.909   7.597  12.760
 4547SOL     OW15537   0.848   9.966  11.640
 4547SOL    HW115538   0.929   9.929  11.605
 4547SOL    HW215539   0.797   9.989  11.563
 4548SOL     OW15540   4.235   7.305  14.166
 4548SOL    HW115541   4.179   7.342  14.234
 4548SOL    HW215542   4.323   7.337  14.188
 4549SOL     OW15543   4.103  14.288   8.225
 4549SOL    HW115544   4.117  14.378   8.254
 4549SOL    HW215545   4.044  14.251   8.291
 4550SOL     OW15546  11.226   6.773   8.309
 4550SOL    HW115547  11.273   6.844   8.265
 4550SOL    HW215548  11.173   6.732   8.240
 4551SOL     OW15549   2.739   8.461  13.400
 4551SOL    HW115550   2.686   8.427  13.328
 4551SOL    HW215551   2.830   8.454  13.369
 4552SOL     OW15552   9.593   0.324  11.171
 4552SOL    HW115553   9.684   0.304  11.193
 4552SOL    HW215554   9.547   0.240  11.175
 4553SOL     OW15555  12.097  13.649   3.438
 4553SOL    HW115556  12.152  13.593   3.382
 4553SOL    HW215557  12.113  13.617   3.527
 4554SOL     OW15558   2.420   4.324  13.109
 4554SOL    HW115559   2.511   4.322  13.137
 4554SOL    HW215560   2.423   4.362  13.021
 4555SOL     OW15561   6.681   9.937   1.679
 4555SOL    HW115562   6.669   9.843   1.671
 4555SOL    HW215563   6.596   9.971   1.707
 4556SOL     OW15564   1.584  14.307  12.548
 4556SOL    HW115565   1.663  14.254  12.563
 4556SOL    HW215566   1.570  14.353  12.630
 4557SOL     OW15567   2.676   2.320  12.246
 4557SOL    HW115568   2.749   2.302  12.186
 4557SOL    HW215569   2.690   2.411  12.273
 4558SOL     OW15570   8.936   3.340   3.190
 4558SOL    HW115571   8.850   3.305   3.167
 4558SOL    HW215572   8.928   3.435   3.176
 4559SOL     OW15573  14.347   6.813   1.033
 4559SOL    HW115574  14.401   6.760   0.974
 4559SOL    HW215575  14.291   6.865   0.976
 4560SOL     OW15576   0.188   2.276   1.338
 4560SOL    HW115577   0.196   2.203   1.399
 4560SOL    HW215578   0.266   2.329   1.354
 4561SOL     OW15579   2.403  10.352   9.553
 4561SOL    HW115580   2.492  10.338   9.521
 4561SOL    HW215581   2.414  10.383   9.643
 4562SOL     OW15582  12.598  11.259   7.942
 4562SOL    HW115583  12.572  11.166   7.944
 4562SOL    HW215584  12.690  11.259   7.967
 4563SOL     OW15585   7.877   8.503  14.162
 4563SOL    HW115586   7.843   8.532  14.077
 4563SOL    HW215587   7.817   8.434  14.190
 4564SOL     OW15588   5.862   3.142   8.014
 4564SOL    HW115589   5.864   3.225   8.061
 4564SOL    HW215590   5.769   3.126   7.998
 4565SOL     OW15591  13.642   6.468  10.193
 4565SOL    HW115592  13.729   6.472  10.232
 4565SOL    HW215593  13.581   6.470  10.267
 4566SOL     OW15594  12.632  14.692  14.308
 4566SOL    HW115595  12.582  14.745  14.370
 4566SOL    HW215596  12.698  14.751  14.273
 4567SOL     OW15597   9.613   9.070   0.140
 4567SOL    HW115598   9.691   9.103   0.094
 4567SOL    HW215599   9.596   8.985   0.100
 4568SOL     OW15600   6.908   5.347  11.330
 4568SOL    HW115601   6.960   5.424  11.306
 4568SOL    HW215602   6.837   5.382  11.384
 4569SOL     OW15603  13.636  11.604  10.909
 4569SOL    HW115604  13.682  11.631  10.829
 4569SOL    HW215605  13.614  11.686  10.953
 4570SOL     OW15606  14.246  13.459  10.399
 4570SOL    HW115607  14.341  13.455  10.410
 4570SOL    HW215608  14.230  13.424  10.311
 4571SOL     OW15609  14.795   8.501   3.869
 4571SOL    HW115610  14.839   8.581   3.842
 4571SOL    HW215611  14.703   8.525   3.877
 4572SOL     OW15612  10.111   6.802   1.936
 4572SOL    HW115613  10.101   6.741   2.008
 4572SOL    HW215614  10.083   6.887   1.972
 4573SOL     OW15615   7.644   0.263  13.411
 4573SOL    HW115616   7.735   0.277  13.434
 4573SOL    HW215617   7.635   0.168  13.404
 4574SOL     OW15618   9.512   1.336  12.456
 4574SOL    HW115619   9.584   1.307  12.401
 4574SOL    HW215620   9.482   1.417  12.415
 4575SOL     OW15621  12.683  11.576   7.629
 4575SOL    HW115622  12.707  11.666   7.608
 4575SOL    HW215623  12.766  11.533   7.650
 4576SOL     OW15624   6.206  14.384   0.602
 4576SOL    HW115625   6.168  14.444   0.665
 4576SOL    HW215626   6.223  14.304   0.652
 4577SOL     OW15627  14.403  10.284  14.291
 4577SOL    HW115628  14.459  10.206  14.287
 4577SOL    HW215629  14.442  10.339  14.358
 4578SOL     OW15630  13.544   9.029   5.879
 4578SOL    HW115631  13.557   8.955   5.819
 4578SOL    HW215632  13.574   9.105   5.830
 4579SOL     OW15633  14.322   0.945   6.082
 4579SOL    HW115634  14.331   1.007   6.154
 4579SOL    HW215635  14.357   0.992   6.006
 4580SOL     OW15636   3.911   1.659  12.244
 4580SOL    HW115637   3.960   1.737  12.271
 4580SOL    HW215638   3.874   1.681  12.159
 4581SOL     OW15639   8.844  10.443   2.786
 4581SOL    HW115640   8.802  10.414   2.705
 4581SOL    HW215641   8.811  10.532   2.799
 4582SOL     OW15642   6.422  12.284   3.011
 4582SOL    HW115643   6.349  12.239   3.053
 4582SOL    HW215644   6.416  12.259   2.919
 4583SOL     OW15645   3.984   8.454   5.067
 4583SOL    HW115646   3.900   8.484   5.034
 4583SOL    HW215647   3.964   8.370   5.109
 4584SOL     OW15648  14.239   8.060   7.375
 4584SOL    HW115649  14.157   8.015   7.354
 4584SOL    HW215650  14.244   8.057   7.471
 4585SOL     OW15651   4.395   6.084   9.209
 4585SOL    HW115652   4.318   6.107   9.157
 4585SOL    HW215653   4.436   6.012   9.161
 4586SOL     OW15654   1.992  11.964  10.116
 4586SOL    HW115655   2.061  11.906  10.084
 4586SOL    HW215656   1.928  11.906  10.157
 4587SOL     OW15657   8.046   2.590  13.004
 4587SOL    HW115658   8.001   2.551  12.930
 4587SOL    HW215659   8.138   2.565  12.992
 4588SOL     OW15660   0.940  13.534   6.373
 4588SOL    HW115661   1.007  13.592   6.337
 4588SOL    HW215662   0.866  13.542   6.313
 4589SOL     OW15663  14.265   5.700  12.156
 4589SOL    HW115664  14.344   5.704  12.210
 4589SOL    HW215665  14.215   5.778  12.182
 4590SOL     OW15666   8.609   3.572   8.113
 4590SOL    HW115667   8.701   3.572   8.140
 4590SOL    HW215668   8.593   3.483   8.083
 4591SOL     OW15669  10.885   7.227   0.772
 4591SOL    HW115670  10.930   7.256   0.852
 4591SOL    HW215671  10.951   7.236   0.703
 4592SOL     OW15672   7.290  14.352   1.249
 4592SOL    HW115673   7.271  14.396   1.332
 4592SOL    HW215674   7.256  14.410   1.182
 4593SOL     OW15675   1.172   4.394  13.739
 4593SOL    HW115676   1.080   4.368  13.745
 4593SOL    HW215677   1.178   4.439  13.655
 4594SOL     OW15678  11.683   7.546  13.419
 4594SOL    HW115679  11.771   7.511  13.428
 4594SOL    HW215680  11.642   7.493  13.350
 4595SOL     OW15681   0.155   3.253   5.563
 4595SOL    HW115682   0.159   3.294   5.649
 4595SOL    HW215683   0.243   3.217   5.550
 4596SOL     OW15684   1.838   0.157   3.265
 4596SOL    HW115685   1.884   0.207   3.332
 4596SOL    HW215686   1.748   0.150   3.297
 4597SOL     OW15687  13.724   7.562   4.912
 4597SOL    HW115688  13.637   7.524   4.903
 4597SOL    HW215689  13.764   7.514   4.985
 4598SOL     OW15690   0.625   4.379  14.664
 4598SOL    HW115691   0.607   4.301  14.612
 4598SOL    HW215692   0.608   4.352  14.755
 4599SOL     OW15693   2.308   5.254   4.166
 4599SOL    HW115694   2.229   5.246   4.112
 4599SOL    HW215695   2.357   5.173   4.149
 4600SOL     OW15696   7.607   7.958   1.310
 4600SOL    HW115697   7.620   8.036   1.362
 4600SOL    HW215698   7.620   7.987   1.219
 4601SOL     OW15699   4.130   2.778   3.304
 4601SOL    HW115700   4.119   2.862   3.259
 4601SOL    HW215701   4.045   2.734   3.293
 4602SOL     OW15702   9.603  14.208   9.570
 4602SOL    HW115703   9.511  14.191   9.591
 4602SOL    HW215704   9.600  14.282   9.509
 4603SOL     OW15705   2.890   6.641   7.856
 4603SOL    HW115706   2.862   6.590   7.932
 4603SOL    HW215707   2.865   6.588   7.781
 4604SOL     OW15708  10.724  11.797   4.877
 4604SOL    HW115709  10.741  11.735   4.806
 4604SOL    HW215710  10.632  11.822   4.866
 4605SOL     OW15711   6.997   4.072   2.561
 4605SOL    HW115712   6.967   3.988   2.595
 4605SOL    HW215713   7.051   4.108   2.631
 4606SOL     OW15714   7.804   2.815  13.286
 4606SOL    HW115715   7.853   2.745  13.329
 4606SOL    HW215716   7.858   2.893  13.300
 4607SOL     OW15717   3.527  10.514   4.292
 4607SOL    HW115718   3.446  10.471   4.318
 4607SOL    HW215719   3.575  10.526   4.374
 4608SOL     OW15720  12.721  12.516  11.540
 4608SOL    HW115721  12.738  12.423  11.526
 4608SOL    HW215722  12.746  12.531  11.631
 4609SOL     OW15723  12.164   4.581  10.537
 4609SOL    HW115724  12.077   4.600  10.571
 4609SOL    HW215725  12.174   4.640  10.462
 4610SOL     OW15726  14.393   4.720   1.896
 4610SOL    HW115727  14.325   4.782   1.870
 4610SOL    HW215728  14.418   4.675   1.815
 4611SOL     OW15729   1.646   0.189  14.358
 4611SOL    HW115730   1.664   0.152  14.272
 4611SOL    HW215731   1.604   0.273  14.340
 4612SOL     OW15732  11.303   3.105   5.024
 4612SOL    HW115733  11.332   3.131   5.112
 4612SOL    HW215734  11.251   3.026   5.038
 4613SOL     OW15735   4.062   7.648  13.761
 4613SOL    HW115736   4.028   7.640  13.850
 4613SOL    HW215737   4.112   7.730  13.762
 4614SOL     OW15738   0.514   4.659   8.419
 4614SOL    HW115739   0.423   4.637   8.435
 4614SOL    HW215740   0.551   4.675   8.506
 4615SOL     OW15741  13.739   4.541  10.219
 4615SOL    HW115742  13.828   4.575  10.225
 4615SOL    HW215743  13.710   4.563  10.131
 4616SOL     OW15744  10.901   8.276   6.168
 4616SOL    HW115745  10.867   8.282   6.257
 4616SOL    HW215746  10.983   8.229   6.177
 4617SOL     OW15747   8.175   2.755   5.449
 4617SOL    HW115748   8.112   2.822   5.479
 4617SOL    HW215749   8.120   2.689   5.407
 4618SOL     OW15750  10.618   1.737   2.368
 4618SOL    HW115751  10.644   1.787   2.291
 4618SOL    HW215752  10.617   1.801   2.439
 4619SOL     OW15753  12.604   2.611  12.449
 4619SOL    HW115754  12.605   2.543  12.383
 4619SOL    HW215755  12.582   2.691  12.401
 4620SOL     OW15756   3.403  13.707   3.393
 4620SOL    HW115757   3.316  13.705   3.433
 4620SOL    HW215758   3.397  13.648   3.318
 4621SOL     OW15759   9.911   7.240  11.073
 4621SOL    HW115760   9.859   7.319  11.057
 4621SOL    HW215761   9.858   7.189  11.134
 4622SOL     OW15762  10.481   5.497   8.080
 4622SOL    HW115763  10.533   5.540   8.148
 4622SOL    HW215764  10.480   5.559   8.008
 4623SOL     OW15765   5.903   0.807   7.381
 4623SOL    HW115766   5.974   0.831   7.321
 4623SOL    HW215767   5.853   0.888   7.394
 4624SOL     OW15768   5.375   4.442  10.229
 4624SOL    HW115769   5.366   4.469  10.138
 4624SOL    HW215770   5.467   4.414  10.236
 4625SOL     OW15771   9.252  13.636   4.863
 4625SOL    HW115772   9.202  13.567   4.906
 4625SOL    HW215773   9.333  13.642   4.913
 4626SOL     OW15774  13.528   0.131   4.882
 4626SOL    HW115775  13.566   0.208   4.925
 4626SOL    HW215776  13.437   0.130   4.913
 4627SOL     OW15777   5.921  12.383   2.780
 4627SOL    HW115778   5.926  12.458   2.840
 4627SOL    HW215779   5.885  12.419   2.699
 4628SOL     OW15780   1.074  13.619  12.307
 4628SOL    HW115781   1.025  13.575  12.377
 4628SOL    HW215782   1.163  13.585  12.314
 4629SOL     OW15783  10.398  12.519  12.515
 4629SOL    HW115784  10.486  12.549  12.493
 4629SOL    HW215785  10.354  12.508  12.431
 4630SOL     OW15786   2.141  10.023   6.686
 4630SOL    HW115787   2.087  10.062   6.618
 4630SOL    HW215788   2.102  10.053   6.768
 4631SOL     OW15789  11.241   6.932  14.064
 4631SOL    HW115790  11.309   7.000  14.062
 4631SOL    HW215791  11.247   6.890  13.979
 4632SOL     OW15792   5.318  11.815   1.580
 4632SOL    HW115793   5.346  11.901   1.610
 4632SOL    HW215794   5.230  11.804   1.617
 4633SOL     OW15795  14.880   2.060   2.856
 4633SOL    HW115796   0.017   2.010   2.936
 4633SOL    HW215797  14.800   2.108   2.877
 4634SOL     OW15798   9.644   6.126   8.099
 4634SOL    HW115799   9.633   6.036   8.129
 4634SOL    HW215800   9.614   6.125   8.009
 4635SOL     OW15801   3.483   1.183   3.078
 4635SOL    HW115802   3.562   1.134   3.056
 4635SOL    HW215803   3.418   1.154   3.013
 4636SOL     OW15804  14.476   3.892  10.485
 4636SOL    HW115805  14.540   3.931  10.426
 4636SOL    HW215806  14.412   3.962  10.501
 4637SOL     OW15807  12.065   4.965  14.604
 4637SOL    HW115808  11.977   4.983  14.638
 4637SOL    HW215809  12.110   5.050  14.607
 4638SOL     OW15810   8.448  12.846   3.649
 4638SOL    HW115811   8.451  12.811   3.738
 4638SOL    HW215812   8.532  12.889   3.637
 4639SOL     OW15813  10.437   1.604  12.810
 4639SOL    HW115814  10.427   1.617  12.716
 4639SOL    HW215815  10.348   1.593  12.843
 4640SOL     OW15816   0.247  14.525   1.963
 4640SOL    HW115817   0.338  14.526   1.993
 4640SOL    HW215818   0.205  14.597   2.010
 4641SOL     OW15819  13.045   4.437   1.163
 4641SOL    HW115820  13.086   4.388   1.092
 4641SOL    HW215821  13.089   4.522   1.162
 4642SOL     OW15822   5.232   9.996   0.265
 4642SOL    HW115823   5.260  10.087   0.257
 4642SOL    HW215824   5.276   9.963   0.343
 4643SOL     OW15825  12.504   3.407   4.298
 4643SOL    HW115826  12.456   3.332   4.334
 4643SOL    HW215827  12.577   3.420   4.358
 4644SOL     OW15828   3.861   3.732   9.053
 4644SOL    HW115829   3.795   3.688   9.106
 4644SOL    HW215830   3.941   3.681   9.066
 4645SOL     OW15831   6.840   4.175   5.925
 4645SOL    HW115832   6.822   4.087   5.891
 4645SOL    HW215833   6.754   4.215   5.935
 4646SOL     OW15834   5.550  13.816  14.480
 4646SOL    HW115835   5.611  13.745  14.456
 4646SOL    HW215836   5.597  13.867  14.546
 4647SOL     OW15837   1.857   9.750   6.144
 4647SOL    HW115838   1.930   9.713   6.095
 4647SOL    HW215839   1.897   9.797   6.217
 4648SOL     OW15840  13.831   4.709   8.165
 4648SOL    HW115841  13.755   4.689   8.221
 4648SOL    HW215842  13.901   4.730   8.227
 4649SOL     OW15843   5.749   9.887   5.643
 4649SOL    HW115844   5.713   9.829   5.576
 4649SOL    HW215845   5.750   9.834   5.723
 4650SOL     OW15846   9.833   3.815  14.043
 4650SOL    HW115847   9.811   3.774  13.960
 4650SOL    HW215848   9.795   3.903  14.037
 4651SOL     OW15849   2.239  10.070  12.698
 4651SOL    HW115850   2.163  10.056  12.642
 4651SOL    HW215851   2.234  10.001  12.764
 4652SOL     OW15852   5.798   2.013  13.541
 4652SOL    HW115853   5.781   2.008  13.447
 4652SOL    HW215854   5.876   1.959  13.555
 4653SOL     OW15855  13.286  14.709   0.780
 4653SOL    HW115856  13.314  14.795   0.810
 4653SOL    HW215857  13.279  14.718   0.685
 4654SOL     OW15858   9.717   9.439  11.412
 4654SOL    HW115859   9.796   9.431  11.466
 4654SOL    HW215860   9.673   9.355  11.422
 4655SOL     OW15861  14.172   7.020   2.941
 4655SOL    HW115862  14.149   6.957   3.010
 4655SOL    HW215863  14.243   7.072   2.979
 4656SOL     OW15864   4.313   9.887   2.030
 4656SOL    HW115865   4.364   9.873   1.951
 4656SOL    HW215866   4.225   9.857   2.008
 4657SOL     OW15867   4.182   7.720   2.882
 4657SOL    HW115868   4.231   7.783   2.935
 4657SOL    HW215869   4.126   7.773   2.826
 4658SOL     OW15870  13.900  13.499   3.965
 4658SOL    HW115871  13.959  13.542   4.027
 4658SOL    HW215872  13.821  13.483   4.016
 4659SOL     OW15873   5.812   6.546  11.242
 4659SOL    HW115874   5.785   6.461  11.205
 4659SOL    HW215875   5.881   6.524  11.304
 4660SOL     OW15876   3.817   1.882   1.991
 4660SOL    HW115877   3.810   1.905   2.083
 4660SOL    HW215878   3.727   1.884   1.958
 4661SOL     OW15879   4.307  14.227   1.112
 4661SOL    HW115880   4.233  14.234   1.051
 4661SOL    HW215881   4.268  14.238   1.198
 4662SOL     OW15882  11.034   3.386  13.202
 4662SOL    HW115883  10.963   3.435  13.161
 4662SOL    HW215884  11.094   3.453  13.235
 4663SOL     OW15885   3.818  11.960   3.261
 4663SOL    HW115886   3.772  11.955   3.345
 4663SOL    HW215887   3.870  11.879   3.258
 4664SOL     OW15888  13.358   4.713   5.975
 4664SOL    HW115889  13.373   4.789   5.919
 4664SOL    HW215890  13.379   4.744   6.063
 4665SOL     OW15891   3.279   2.506   6.274
 4665SOL    HW115892   3.273   2.411   6.285
 4665SOL    HW215893   3.371   2.527   6.292
 4666SOL     OW15894   0.896   6.105  11.822
 4666SOL    HW115895   0.902   6.126  11.915
 4666SOL    HW215896   0.813   6.144  11.794
 4667SOL     OW15897   8.315  13.826   9.734
 4667SOL    HW115898   8.345  13.769   9.804
 4667SOL    HW215899   8.350  13.913   9.757
 4668SOL     OW15900  14.508   1.092  10.986
 4668SOL    HW115901  14.469   1.024  10.932
 4668SOL    HW215902  14.439   1.158  10.996
 4669SOL     OW15903  13.644   1.268   0.161
 4669SOL    HW115904  13.706   1.218   0.108
 4669SOL    HW215905  13.698   1.334   0.205
 4670SOL     OW15906   0.668   4.275  10.612
 4670SOL    HW115907   0.649   4.212  10.680
 4670SOL    HW215908   0.674   4.359  10.657
 4671SOL     OW15909  10.292   4.609   0.775
 4671SOL    HW115910  10.316   4.687   0.824
 4671SOL    HW215911  10.257   4.549   0.841
 4672SOL     OW15912   3.067   1.366   6.881
 4672SOL    HW115913   3.091   1.321   6.962
 4672SOL    HW215914   3.024   1.299   6.828
 4673SOL     OW15915  10.975  11.020   1.863
 4673SOL    HW115916  11.003  11.061   1.944
 4673SOL    HW215917  10.967  10.927   1.885
 4674SOL     OW15918   2.153   8.805  13.240
 4674SOL    HW115919   2.102   8.790  13.161
 4674SOL    HW215920   2.236   8.761  13.225
 4675SOL     OW15921  12.219   6.349  12.957
 4675SOL    HW115922  12.268   6.378  13.033
 4675SOL    HW215923  12.267   6.272  12.925
 4676SOL     OW15924   6.879   5.088   6.633
 4676SOL    HW115925   6.961   5.047   6.606
 4676SOL    HW215926   6.869   5.162   6.574
 4677SOL     OW15927   2.013   7.176  14.038
 4677SOL    HW115928   1.992   7.268  14.022
 4677SOL    HW215929   2.099   7.179  14.081
 4678SOL     OW15930   3.131   2.286   1.857
 4678SOL    HW115931   3.134   2.382   1.854
 4678SOL    HW215932   3.206   2.258   1.804
 4679SOL     OW15933  10.793  12.272   8.196
 4679SOL    HW115934  10.790  12.279   8.101
 4679SOL    HW215935  10.704  12.248   8.222
 4680SOL     OW15936   8.252  12.004  12.496
 4680SOL    HW115937   8.309  12.030  12.424
 4680SOL    HW215938   8.208  11.925  12.465
 4681SOL     OW15939  10.889   9.907   4.898
 4681SOL    HW115940  10.864   9.990   4.939
 4681SOL    HW215941  10.948   9.867   4.962
 4682SOL     OW15942   2.408   8.639  12.763
 4682SOL    HW115943   2.401   8.646  12.668
 4682SOL    HW215944   2.406   8.729  12.794
 4683SOL     OW15945   7.305   7.256   5.193
 4683SOL    HW115946   7.287   7.298   5.277
 4683SOL    HW215947   7.365   7.315   5.149
 4684SOL     OW15948   5.807   9.527   5.086
 4684SOL    HW115949   5.761   9.597   5.039
 4684SOL    HW215950   5.779   9.446   5.044
 4685SOL     OW15951   8.869   8.835  14.746
 4685SOL    HW115952   8.955   8.799  14.726
 4685SOL    HW215953   8.809   8.785  14.690
 4686SOL     OW15954  10.238   4.546   9.824
 4686SOL    HW115955  10.158   4.594   9.801
 4686SOL    HW215956  10.294   4.611   9.866
 4687SOL     OW15957  14.160   1.140   7.575
 4687SOL    HW115958  14.175   1.048   7.554
 4687SOL    HW215959  14.238   1.166   7.624
 4688SOL     OW15960   7.535   9.394   6.920
 4688SOL    HW115961   7.460   9.362   6.971
 4688SOL    HW215962   7.609   9.385   6.979
 4689SOL     OW15963   3.587   6.385   3.889
 4689SOL    HW115964   3.582   6.448   3.818
 4689SOL    HW215965   3.542   6.426   3.962
 4690SOL     OW15966  13.938   1.302   0.163
 4690SOL    HW115967  14.012   1.355   0.191
 4690SOL    HW215968  13.910   1.341   0.080
 4691SOL     OW15969   3.208   2.104   6.522
 4691SOL    HW115970   3.205   2.157   6.601
 4691SOL    HW215971   3.292   2.058   6.527
 4692SOL     OW15972   9.422   3.374   2.436
 4692SOL    HW115973   9.425   3.332   2.522
 4692SOL    HW215974   9.341   3.341   2.396
 4693SOL     OW15975   1.770  10.067   6.800
 4693SOL    HW115976   1.850  10.024   6.829
 4693SOL    HW215977   1.738  10.113   6.877
 4694SOL     OW15978   4.093   5.802   1.966
 4694SOL    HW115979   4.084   5.857   2.044
 4694SOL    HW215980   4.071   5.860   1.893
 4695SOL     OW15981   8.402   1.273   0.578
 4695SOL    HW115982   8.401   1.321   0.661
 4695SOL    HW215983   8.331   1.311   0.527
 4696SOL     OW15984   8.531  11.661  12.270
 4696SOL    HW115985   8.605  11.685  12.325
 4696SOL    HW215986   8.536  11.566  12.263
 4697SOL     OW15987   1.056   9.145   9.402
 4697SOL    HW115988   1.079   9.068   9.454
 4697SOL    HW215989   1.138   9.170   9.359
 4698SOL     OW15990   7.876   7.566   5.450
 4698SOL    HW115991   7.947   7.625   5.474
 4698SOL    HW215992   7.918   7.499   5.396
 4699SOL     OW15993  12.599   4.022  14.223
 4699SOL    HW115994  12.649   4.102  14.241
 4699SOL    HW215995  12.511   4.041  14.254
 4700SOL     OW15996   0.903   1.636   5.041
 4700SOL    HW115997   0.973   1.645   5.105
 4700SOL    HW215998   0.921   1.554   4.996
 4701SOL     OW15999   6.592   7.453   4.520
 4701SOL    HW116000   6.549   7.415   4.443
 4701SOL    HW216001   6.620   7.377   4.571
 4702SOL     OW16002   1.787  12.244  11.468
 4702SOL    HW116003   1.819  12.248  11.378
 4702SOL    HW216004   1.851  12.189  11.514
 4703SOL     OW16005   4.353   9.233   9.200
 4703SOL    HW116006   4.393   9.148   9.218
 4703SOL    HW216007   4.307   9.222   9.117
 4704SOL     OW16008   1.799   2.400   3.717
 4704SOL    HW116009   1.848   2.480   3.733
 4704SOL    HW216010   1.768   2.373   3.803
 4705SOL     OW16011   3.826   6.784   1.416
 4705SOL    HW116012   3.866   6.719   1.359
 4705SOL    HW216013   3.900   6.835   1.450
 4706SOL     OW16014   9.661  11.184   4.643
 4706SOL    HW116015   9.743  11.166   4.688
 4706SOL    HW216016   9.685  11.195   4.551
 4707SOL     OW16017   2.071   1.906   0.653
 4707SOL    HW116018   2.033   1.834   0.604
 4707SOL    HW216019   2.108   1.964   0.587
 4708SOL     OW16020   7.830   9.225   3.696
 4708SOL    HW116021   7.813   9.318   3.711
 4708SOL    HW216022   7.767   9.200   3.629
 4709SOL     OW16023  12.112   5.075   6.723
 4709SOL    HW116024  12.092   4.984   6.701
 4709SOL    HW216025  12.048   5.126   6.674
 4710SOL     OW16026   9.766  12.567   8.605
 4710SOL    HW116027   9.836  12.576   8.540
 4710SOL    HW216028   9.713  12.646   8.593
 4711SOL     OW16029  11.924   4.293   6.408
 4711SOL    HW116030  11.980   4.231   6.362
 4711SOL    HW216031  11.935   4.272   6.501
 4712SOL     OW16032  13.998   1.606   4.230
 4712SOL    HW116033  13.909   1.626   4.201
 4712SOL    HW216034  14.013   1.666   4.303
 4713SOL     OW16035   1.331   1.344   2.954
 4713SOL    HW116036   1.254   1.318   3.003
 4713SOL    HW216037   1.341   1.437   2.972
 4714SOL     OW16038   7.805  10.204   1.957
 4714SOL    HW116039   7.876  10.176   2.015
 4714SOL    HW216040   7.849  10.247   1.884
 4715SOL     OW16041   7.720   7.837  11.835
 4715SOL    HW116042   7.736   7.743  11.834
 4715SOL    HW216043   7.628   7.845  11.862
 4716SOL     OW16044   8.866   2.313   3.516
 4716SOL    HW116045   8.905   2.354   3.593
 4716SOL    HW216046   8.942   2.287   3.462
 4717SOL     OW16047   9.761   2.482  12.019
 4717SOL    HW116048   9.784   2.432  11.941
 4717SOL    HW216049   9.700   2.549  11.987
 4718SOL     OW16050  13.359   5.383  12.541
 4718SOL    HW116051  13.285   5.376  12.602
 4718SOL    HW216052  13.376   5.476  12.533
 4719SOL     OW16053   1.227  10.180   0.283
 4719SOL    HW116054   1.170  10.248   0.248
 4719SOL    HW216055   1.316  10.211   0.264
 4720SOL     OW16056  12.652   3.031   5.468
 4720SOL    HW116057  12.642   3.125   5.453
 4720SOL    HW216058  12.603   3.015   5.548
 4721SOL     OW16059   1.022   2.599  10.411
 4721SOL    HW116060   0.972   2.638  10.339
 4721SOL    HW216061   0.956   2.571  10.474
 4722SOL     OW16062   0.103   7.324  11.116
 4722SOL    HW116063   0.037   7.383  11.079
 4722SOL    HW216064   0.053   7.247  11.143
 4723SOL     OW16065  11.567  11.173  13.325
 4723SOL    HW116066  11.551  11.266  13.308
 4723SOL    HW216067  11.480  11.133  13.319
 4724SOL     OW16068   8.832  14.506  14.580
 4724SOL    HW116069   8.927  14.502  14.564
 4724SOL    HW216070   8.806  14.415  14.590
 4725SOL     OW16071   0.860   8.285  12.648
 4725SOL    HW116072   0.778   8.262  12.691
 4725SOL    HW216073   0.918   8.212  12.668
 4726SOL     OW16074   8.496   2.569  11.971
 4726SOL    HW116075   8.524   2.659  11.988
 4726SOL    HW216076   8.452   2.541  12.051
 4727SOL     OW16077  11.102   4.325   8.645
 4727SOL    HW116078  11.123   4.233   8.626
 4727SOL    HW216079  11.129   4.338   8.735
 4728SOL     OW16080  13.117  11.011   7.939
 4728SOL    HW116081  13.143  10.943   8.002
 4728SOL    HW216082  13.200  11.050   7.912
 4729SOL     OW16083  13.648   9.712   3.124
 4729SOL    HW116084  13.741   9.719   3.101
 4729SOL    HW216085  13.633   9.785   3.185
 4730SOL     OW16086  13.127   7.438   7.020
 4730SOL    HW116087  13.208   7.403   6.983
 4730SOL    HW216088  13.094   7.368   7.076
 4731SOL     OW16089   3.280   1.465   8.766
 4731SOL    HW116090   3.245   1.436   8.851
 4731SOL    HW216091   3.209   1.450   8.704
 4732SOL     OW16092  14.353   9.371  14.251
 4732SOL    HW116093  14.272   9.380  14.201
 4732SOL    HW216094  14.343   9.289  14.298
 4733SOL     OW16095  12.036   9.836  13.084
 4733SOL    HW116096  12.048   9.930  13.070
 4733SOL    HW216097  11.971   9.830  13.153
 4734SOL     OW16098   1.975  14.169   6.271
 4734SOL    HW116099   2.003  14.172   6.362
 4734SOL    HW216100   1.961  14.076   6.253
 4735SOL     OW16101   1.184   0.002  11.385
 4735SOL    HW116102   1.118   0.044  11.329
 4735SOL    HW216103   1.255  14.863  11.325
 4736SOL     OW16104   7.218  14.073  10.007
 4736SOL    HW116105   7.272  14.017  10.063
 4736SOL    HW216106   7.280  14.115   9.947
 4737SOL     OW16107   5.705  11.150   8.122
 4737SOL    HW116108   5.623  11.108   8.097
 4737SOL    HW216109   5.689  11.244   8.106
 4738SOL     OW16110   7.709  10.542  11.915
 4738SOL    HW116111   7.656  10.527  11.837
 4738SOL    HW216112   7.776  10.473  11.912
 4739SOL     OW16113   8.422   9.427   5.497
 4739SOL    HW116114   8.333   9.393   5.491
 4739SOL    HW216115   8.417   9.497   5.562
 4740SOL     OW16116   0.362   1.544   2.341
 4740SOL    HW116117   0.334   1.460   2.305
 4740SOL    HW216118   0.313   1.609   2.291
 4741SOL     OW16119  12.215   8.969   2.959
 4741SOL    HW116120  12.264   8.956   3.040
 4741SOL    HW216121  12.283   8.980   2.892
 4742SOL     OW16122  13.990  10.460   7.041
 4742SOL    HW116123  14.032  10.415   7.114
 4742SOL    HW216124  13.988  10.395   6.971
 4743SOL     OW16125   7.624   4.091   2.438
 4743SOL    HW116126   7.704   4.144   2.441
 4743SOL    HW216127   7.624   4.054   2.349
 4744SOL     OW16128   1.171  11.578   0.972
 4744SOL    HW116129   1.079  11.572   0.997
 4744SOL    HW216130   1.169  11.609   0.882
 4745SOL     OW16131   3.833  12.581   9.586
 4745SOL    HW116132   3.893  12.561   9.658
 4745SOL    HW216133   3.861  12.525   9.515
 4746SOL     OW16134  13.072   6.170   3.223
 4746SOL    HW116135  13.093   6.103   3.158
 4746SOL    HW216136  13.001   6.220   3.183
 4747SOL     OW16137  12.487   9.030   2.172
 4747SOL    HW116138  12.495   9.112   2.122
 4747SOL    HW216139  12.414   8.984   2.131
 4748SOL     OW16140  11.048   8.704  10.353
 4748SOL    HW116141  11.054   8.799  10.363
 4748SOL    HW216142  11.003   8.674  10.433
 4749SOL     OW16143   4.610   0.911  10.064
 4749SOL    HW116144   4.613   0.916   9.968
 4749SOL    HW216145   4.539   0.850  10.083
 4750SOL     OW16146   0.959   1.141   2.520
 4750SOL    HW116147   1.011   1.189   2.585
 4750SOL    HW216148   0.874   1.129   2.561
 4751SOL     OW16149   0.333  12.509   7.039
 4751SOL    HW116150   0.269  12.452   7.082
 4751SOL    HW216151   0.404  12.516   7.103
 4752SOL     OW16152  12.971  12.760   9.076
 4752SOL    HW116153  12.966  12.832   9.139
 4752SOL    HW216154  12.995  12.684   9.128
 4753SOL     OW16155   8.166   3.930   0.492
 4753SOL    HW116156   8.147   3.839   0.467
 4753SOL    HW216157   8.137   3.936   0.583
 4754SOL     OW16158   9.196   8.087   9.930
 4754SOL    HW116159   9.147   8.158   9.888
 4754SOL    HW216160   9.177   8.098  10.023
 4755SOL     OW16161  10.691   0.550   0.372
 4755SOL    HW116162  10.668   0.524   0.283
 4755SOL    HW216163  10.759   0.489   0.398
 4756SOL     OW16164   5.660   6.723   7.898
 4756SOL    HW116165   5.750   6.697   7.917
 4756SOL    HW216166   5.646   6.697   7.807
 4757SOL     OW16167   8.277   1.865   9.084
 4757SOL    HW116168   8.297   1.948   9.041
 4757SOL    HW216169   8.234   1.813   9.016
 4758SOL     OW16170  11.106   3.629  12.813
 4758SOL    HW116171  11.118   3.545  12.858
 4758SOL    HW216172  11.034   3.613  12.752
 4759SOL     OW16173  10.091  14.881   9.430
 4759SOL    HW116174  10.179   0.006   9.393
 4759SOL    HW216175  10.040  14.835   9.363
 4760SOL     OW16176   9.438   1.064   1.961
 4760SOL    HW116177   9.484   0.982   1.942
 4760SOL    HW216178   9.483   1.101   2.037
 4761SOL     OW16179   0.440   0.592   9.102
 4761SOL    HW116180   0.449   0.571   9.195
 4761SOL    HW216181   0.348   0.576   9.082
 4762SOL     OW16182   1.799  10.780  14.692
 4762SOL    HW116183   1.788  10.687  14.674
 4762SOL    HW216184   1.844  10.814  14.615
 4763SOL     OW16185   6.487   5.069  10.909
 4763SOL    HW116186   6.409   5.104  10.952
 4763SOL    HW216187   6.461   4.982  10.878
 4764SOL     OW16188  14.305  12.907  12.634
 4764SOL    HW116189  14.298  12.996  12.600
 4764SOL    HW216190  14.218  12.868  12.620
 4765SOL     OW16191   4.938   4.871   6.897
 4765SOL    HW116192   5.021   4.916   6.889
 4765SOL    HW216193   4.955   4.800   6.959
 4766SOL     OW16194  13.786   1.759   6.427
 4766SOL    HW116195  13.819   1.673   6.453
 4766SOL    HW216196  13.723   1.782   6.496
 4767SOL     OW16197   6.089  10.517   1.958
 4767SOL    HW116198   5.999  10.489   1.941
 4767SOL    HW216199   6.142  10.440   1.938
 4768SOL     OW16200   2.742  13.939   8.498
 4768SOL    HW116201   2.665  13.928   8.443
 4768SOL    HW216202   2.747  13.858   8.549
 4769SOL     OW16203  14.427  10.988   2.087
 4769SOL    HW116204  14.413  11.016   1.996
 4769SOL    HW216205  14.434  11.069   2.136
 4770SOL     OW16206   5.913   2.966  10.255
 4770SOL    HW116207   5.931   3.031  10.322
 4770SOL    HW216208   5.913   3.016  10.173
 4771SOL     OW16209  11.477   6.833   3.767
 4771SOL    HW116210  11.536   6.757   3.766
 4771SOL    HW216211  11.392   6.796   3.793
 4772SOL     OW16212  12.705   4.591  10.547
 4772SOL    HW116213  12.627   4.553  10.506
 4772SOL    HW216214  12.747   4.641  10.477
 4773SOL     OW16215   9.760   2.093   8.743
 4773SOL    HW116216   9.678   2.130   8.776
 4773SOL    HW216217   9.827   2.128   8.801
 4774SOL     OW16218   9.535  10.803   1.970
 4774SOL    HW116219   9.485  10.729   1.936
 4774SOL    HW216220   9.590  10.766   2.039
 4775SOL     OW16221  13.274   8.649   8.031
 4775SOL    HW116222  13.356   8.663   8.079
 4775SOL    HW216223  13.259   8.732   7.985
 4776SOL     OW16224  10.238   1.103   3.704
 4776SOL    HW116225  10.323   1.133   3.671
 4776SOL    HW216226  10.252   1.094   3.799
 4777SOL     OW16227  14.346  12.244   2.843
 4777SOL    HW116228  14.428  12.244   2.792
 4777SOL    HW216229  14.289  12.305   2.796
 4778SOL     OW16230  10.019   8.848  12.451
 4778SOL    HW116231  10.027   8.922  12.390
 4778SOL    HW216232  10.110   8.818  12.463
 4779SOL     OW16233   0.655   6.871  13.479
 4779SOL    HW116234   0.689   6.956  13.506
 4779SOL    HW216235   0.679   6.863  13.387
 4780SOL     OW16236   3.075   6.373   6.659
 4780SOL    HW116237   3.121   6.374   6.743
 4780SOL    HW216238   3.116   6.444   6.609
 4781SOL     OW16239   8.461   6.528   8.017
 4781SOL    HW116240   8.508   6.472   8.079
 4781SOL    HW216241   8.466   6.616   8.054
 4782SOL     OW16242  12.365   5.854   2.751
 4782SOL    HW116243  12.391   5.762   2.740
 4782SOL    HW216244  12.341   5.861   2.844
 4783SOL     OW16245   0.670  12.721   0.895
 4783SOL    HW116246   0.579  12.723   0.926
 4783SOL    HW216247   0.701  12.634   0.918
 4784SOL     OW16248   1.433   5.197  11.413
 4784SOL    HW116249   1.478   5.113  11.421
 4784SOL    HW216250   1.342   5.175  11.393
 4785SOL     OW16251  13.888   2.552   7.693
 4785SOL    HW116252  13.978   2.585   7.685
 4785SOL    HW216253  13.898   2.466   7.734
 4786SOL     OW16254  11.817  13.574  13.897
 4786SOL    HW116255  11.816  13.488  13.856
 4786SOL    HW216256  11.888  13.569  13.961
 4787SOL     OW16257   3.889   0.178   2.530
 4787SOL    HW116258   3.800   0.144   2.537
 4787SOL    HW216259   3.945   0.100   2.539
 4788SOL     OW16260  12.671   6.994   6.366
 4788SOL    HW116261  12.721   6.914   6.381
 4788SOL    HW216262  12.719   7.062   6.414
 4789SOL     OW16263   6.052   8.773   9.871
 4789SOL    HW116264   6.068   8.779   9.965
 4789SOL    HW216265   5.968   8.729   9.863
 4790SOL     OW16266   0.165   2.111   5.596
 4790SOL    HW116267   0.171   2.039   5.534
 4790SOL    HW216268   0.071   2.128   5.604
 4791SOL     OW16269  10.376   3.956   8.542
 4791SOL    HW116270  10.302   3.996   8.588
 4791SOL    HW216271  10.336   3.889   8.486
 4792SOL     OW16272   2.584  11.367  14.696
 4792SOL    HW116273   2.502  11.374  14.648
 4792SOL    HW216274   2.646  11.420  14.646
 4793SOL     OW16275   9.067  10.152   2.940
 4793SOL    HW116276   9.048  10.240   2.974
 4793SOL    HW216277   9.152  10.161   2.898
 4794SOL     OW16278   7.990   1.654  10.721
 4794SOL    HW116279   8.007   1.592  10.792
 4794SOL    HW216280   7.910   1.622  10.680
 4795SOL     OW16281   0.148   5.951  12.398
 4795SOL    HW116282   0.142   5.864  12.360
 4795SOL    HW216283   0.058   5.974  12.422
 4796SOL     OW16284  14.619  12.068   2.395
 4796SOL    HW116285  14.610  12.160   2.373
 4796SOL    HW216286  14.534  12.043   2.433
 4797SOL     OW16287  14.259   6.673   5.762
 4797SOL    HW116288  14.177   6.628   5.786
 4797SOL    HW216289  14.323   6.602   5.751
 4798SOL     OW16290   8.857   5.525   7.118
 4798SOL    HW116291   8.826   5.609   7.153
 4798SOL    HW216292   8.839   5.531   7.025
 4799SOL     OW16293   6.196  14.254   6.382
 4799SOL    HW116294   6.116  14.305   6.368
 4799SOL    HW216295   6.223  14.275   6.472
 4800SOL     OW16296   4.569   1.944   1.856
 4800SOL    HW116297   4.585   1.994   1.776
 4800SOL    HW216298   4.586   1.853   1.831
 4801SOL     OW16299   2.709   4.004   1.898
 4801SOL    HW116300   2.654   3.936   1.938
 4801SOL    HW216301   2.689   4.083   1.948
 4802SOL     OW16302   9.364   8.806   2.710
 4802SOL    HW116303   9.427   8.763   2.768
 4802SOL    HW216304   9.345   8.741   2.643
 4803SOL     OW16305  10.281   7.873  14.619
 4803SOL    HW116306  10.322   7.916  14.544
 4803SOL    HW216307  10.345   7.807  14.647
 4804SOL     OW16308   7.588   7.526   3.776
 4804SOL    HW116309   7.598   7.611   3.734
 4804SOL    HW216310   7.553   7.546   3.863
 4805SOL     OW16311  10.379   3.349   4.438
 4805SOL    HW116312  10.390   3.419   4.502
 4805SOL    HW216313  10.418   3.272   4.480
 4806SOL     OW16314   1.507   3.175  12.750
 4806SOL    HW116315   1.480   3.187  12.659
 4806SOL    HW216316   1.476   3.254  12.795
 4807SOL     OW16317   7.836   8.413   9.899
 4807SOL    HW116318   7.841   8.402   9.994
 4807SOL    HW216319   7.923   8.390   9.868
 4808SOL     OW16320   0.893   2.397   1.977
 4808SOL    HW116321   0.921   2.356   2.059
 4808SOL    HW216322   0.836   2.332   1.936
 4809SOL     OW16323   4.121  13.569  11.042
 4809SOL    HW116324   4.050  13.569  11.107
 4809SOL    HW216325   4.157  13.481  11.046
 4810SOL     OW16326   0.431  14.715   8.719
 4810SOL    HW116327   0.352  14.697   8.771
 4810SOL    HW216328   0.415  14.802   8.681
 4811SOL     OW16329   8.383  13.070   9.826
 4811SOL    HW116330   8.394  12.975   9.820
 4811SOL    HW216331   8.310  13.081   9.887
 4812SOL     OW16332  10.748  12.889   4.753
 4812SOL    HW116333  10.813  12.877   4.683
 4812SOL    HW216334  10.793  12.943   4.818
 4813SOL     OW16335   7.741  10.382   2.997
 4813SOL    HW116336   7.793  10.424   3.066
 4813SOL    HW216337   7.793  10.307   2.969
 4814SOL     OW16338  10.960  13.024   3.123
 4814SOL    HW116339  11.026  13.063   3.065
 4814SOL    HW216340  11.011  12.975   3.187
 4815SOL     OW16341   1.414  10.808   0.974
 4815SOL    HW116342   1.509  10.818   0.982
 4815SOL    HW216343   1.397  10.823   0.881
 4816SOL     OW16344  11.022  11.634   7.144
 4816SOL    HW116345  10.935  11.646   7.183
 4816SOL    HW216346  11.026  11.698   7.073
 4817SOL     OW16347   9.098   6.109  12.221
 4817SOL    HW116348   9.015   6.139  12.257
 4817SOL    HW216349   9.075   6.068  12.137
 4818SOL     OW16350   1.941  13.161   0.074
 4818SOL    HW116351   1.955  13.252   0.049
 4818SOL    HW216352   2.029  13.126   0.088
 4819SOL     OW16353  14.680   8.332   1.790
 4819SOL    HW116354  14.676   8.393   1.863
 4819SOL    HW216355  14.751   8.272   1.812
 4820SOL     OW16356  13.767  11.740   5.334
 4820SOL    HW116357  13.757  11.733   5.239
 4820SOL    HW216358  13.824  11.815   5.347
 4821SOL     OW16359   3.630   1.924  14.433
 4821SOL    HW116360   3.681   1.915  14.352
 4821SOL    HW216361   3.580   2.004  14.421
 4822SOL     OW16362  10.404   7.814   1.855
 4822SOL    HW116363  10.386   7.889   1.912
 4822SOL    HW216364  10.330   7.756   1.867
 4823SOL     OW16365  13.138   0.833   1.181
 4823SOL    HW116366  13.207   0.805   1.242
 4823SOL    HW216367  13.128   0.760   1.121
 4824SOL     OW16368  14.264  11.411   0.814
 4824SOL    HW116369  14.301  11.401   0.727
 4824SOL    HW216370  14.307  11.489   0.850
 4825SOL     OW16371   2.512   4.383   8.298
 4825SOL    HW116372   2.481   4.443   8.230
 4825SOL    HW216373   2.508   4.435   8.378
 4826SOL     OW16374   7.118  10.278   5.665
 4826SOL    HW116375   7.140  10.286   5.573
 4826SOL    HW216376   7.037  10.327   5.675
 4827SOL     OW16377  14.311   6.666   3.214
 4827SOL    HW116378  14.298   6.652   3.120
 4827SOL    HW216379  14.325   6.760   3.223
 4828SOL     OW16380  13.584  10.483   7.433
 4828SOL    HW116381  13.495  10.448   7.439
 4828SOL    HW216382  13.572  10.575   7.411
 4829SOL     OW16383   5.821   0.301  11.822
 4829SOL    HW116384   5.755   0.368  11.801
 4829SOL    HW216385   5.770   0.225  11.850
 4830SOL     OW16386   9.634   3.667   3.493
 4830SOL    HW116387   9.643   3.591   3.436
 4830SOL    HW216388   9.640   3.632   3.582
 4831SOL     OW16389   5.981   7.187   2.658
 4831SOL    HW116390   5.936   7.135   2.591
 4831SOL    HW216391   6.048   7.128   2.692
 4832SOL     OW16392  14.326   8.548  11.704
 4832SOL    HW116393  14.333   8.453  11.698
 4832SOL    HW216394  14.406   8.575  11.749
 4833SOL     OW16395   7.044   8.504   4.637
 4833SOL    HW116396   7.062   8.481   4.728
 4833SOL    HW216397   7.100   8.445   4.586
 4834SOL     OW16398  11.474  14.671   2.965
 4834SOL    HW116399  11.528  14.676   3.044
 4834SOL    HW216400  11.536  14.683   2.893
 4835SOL     OW16401  13.604  13.346   8.708
 4835SOL    HW116402  13.589  13.270   8.652
 4835SOL    HW216403  13.693  13.375   8.688
 4836SOL     OW16404  10.926   9.715   9.815
 4836SOL    HW116405  10.954   9.701   9.906
 4836SOL    HW216406  11.006   9.738   9.768
 4837SOL     OW16407  14.827  11.321   7.800
 4837SOL    HW116408  14.775  11.311   7.720
 4837SOL    HW216409  14.778  11.273   7.867
 4838SOL     OW16410  10.138   9.793   6.348
 4838SOL    HW116411  10.227   9.795   6.312
 4838SOL    HW216412  10.151   9.801   6.443
 4839SOL     OW16413   6.074  10.513   0.442
 4839SOL    HW116414   6.025  10.476   0.516
 4839SOL    HW216415   6.062  10.608   0.451
 4840SOL     OW16416  12.733   6.378   4.699
 4840SOL    HW116417  12.650   6.331   4.690
 4840SOL    HW216418  12.714   6.466   4.667
 4841SOL     OW16419  13.282   7.383  13.108
 4841SOL    HW116420  13.343   7.405  13.178
 4841SOL    HW216421  13.279   7.461  13.053
 4842SOL     OW16422   2.962   9.557  14.352
 4842SOL    HW116423   2.947   9.652  14.355
 4842SOL    HW216424   3.017   9.539  14.428
 4843SOL     OW16425  12.679   6.632   7.655
 4843SOL    HW116426  12.670   6.660   7.564
 4843SOL    HW216427  12.608   6.568   7.667
 4844SOL     OW16428  12.052   7.865  13.509
 4844SOL    HW116429  12.115   7.920  13.463
 4844SOL    HW216430  12.053   7.782  13.462
 4845SOL     OW16431  14.559   6.624  11.079
 4845SOL    HW116432  14.639   6.583  11.046
 4845SOL    HW216433  14.507   6.550  11.112
 4846SOL     OW16434  12.417  13.898  10.230
 4846SOL    HW116435  12.409  13.881  10.137
 4846SOL    HW216436  12.406  13.813  10.272
 4847SOL     OW16437  12.042  14.656   2.235
 4847SOL    HW116438  12.019  14.728   2.293
 4847SOL    HW216439  11.999  14.579   2.272
 4848SOL     OW16440  13.731   4.183  13.320
 4848SOL    HW116441  13.753   4.240  13.246
 4848SOL    HW216442  13.687   4.241  13.382
 4849SOL     OW16443   2.986  11.171   4.225
 4849SOL    HW116444   3.005  11.235   4.156
 4849SOL    HW216445   3.072  11.140   4.252
 4850SOL     OW16446  10.472   8.736   4.117
 4850SOL    HW116447  10.486   8.774   4.204
 4850SOL    HW216448  10.506   8.803   4.057
 4851SOL     OW16449   2.879  14.209   0.725
 4851SOL    HW116450   2.804  14.267   0.737
 4851SOL    HW216451   2.919  14.238   0.643
 4852SOL     OW16452   6.204   1.847   0.423
 4852SOL    HW116453   6.213   1.843   0.328
 4852SOL    HW216454   6.209   1.940   0.444
 4853SOL     OW16455   9.583   6.111   7.831
 4853SOL    HW116456   9.606   6.185   7.774
 4853SOL    HW216457   9.660   6.054   7.827
 4854SOL     OW16458   5.869   5.960   7.472
 4854SOL    HW116459   5.826   6.034   7.514
 4854SOL    HW216460   5.904   5.908   7.544
 4855SOL     OW16461  14.617  13.114   3.734
 4855SOL    HW116462  14.536  13.158   3.760
 4855SOL    HW216463  14.612  13.110   3.638
 4856SOL     OW16464  13.457  10.163   9.059
 4856SOL    HW116465  13.442  10.233   8.995
 4856SOL    HW216466  13.497  10.092   9.008
 4857SOL     OW16467  12.482   5.641   8.107
 4857SOL    HW116468  12.436   5.560   8.129
 4857SOL    HW216469  12.545   5.654   8.177
 4858SOL     OW16470   0.331   9.225  14.281
 4858SOL    HW116471   0.395   9.257  14.344
 4858SOL    HW216472   0.295   9.146  14.322
 4859SOL     OW16473   0.060   3.893  13.561
 4859SOL    HW116474   0.119   3.967  13.547
 4859SOL    HW216475   0.106   3.838  13.624
 4860SOL     OW16476   3.367   4.277   5.048
 4860SOL    HW116477   3.382   4.347   4.985
 4860SOL    HW216478   3.372   4.197   4.996
 4861SOL     OW16479  14.220   7.619  10.836
 4861SOL    HW116480  14.136   7.650  10.800
 4861SOL    HW216481  14.258   7.567  10.766
 4862SOL     OW16482  11.713  10.776  11.882
 4862SOL    HW116483  11.770  10.841  11.922
 4862SOL    HW216484  11.706  10.706  11.947
 4863SOL     OW16485   3.918   9.331   1.729
 4863SOL    HW116486   3.954   9.404   1.679
 4863SOL    HW216487   3.898   9.265   1.663
 4864SOL     OW16488   7.738   6.249   9.350
 4864SOL    HW116489   7.663   6.281   9.299
 4864SOL    HW216490   7.810   6.247   9.288
 4865SOL     OW16491   2.761  10.801  13.208
 4865SOL    HW116492   2.752  10.742  13.283
 4865SOL    HW216493   2.840  10.852  13.227
 4866SOL     OW16494  11.584   3.789  10.929
 4866SOL    HW116495  11.663   3.794  10.981
 4866SOL    HW216496  11.575   3.696  10.908
 4867SOL     OW16497   5.506   5.908   8.965
 4867SOL    HW116498   5.512   5.819   8.929
 4867SOL    HW216499   5.528   5.897   9.058
 4868SOL     OW16500  13.949  10.051  10.234
 4868SOL    HW116501  13.956   9.965  10.191
 4868SOL    HW216502  13.881  10.097  10.185
 4869SOL     OW16503  12.477  14.218   9.893
 4869SOL    HW116504  12.528  14.152   9.846
 4869SOL    HW216505  12.386  14.200   9.867
 4870SOL     OW16506   4.802   0.995   9.517
 4870SOL    HW116507   4.797   1.087   9.494
 4870SOL    HW216508   4.816   0.950   9.434
 4871SOL     OW16509  13.817   6.586  10.798
 4871SOL    HW116510  13.807   6.532  10.876
 4871SOL    HW216511  13.730   6.587  10.758
 4872SOL     OW16512   3.685   7.252   6.831
 4872SOL    HW116513   3.677   7.216   6.919
 4872SOL    HW216514   3.599   7.288   6.811
 4873SOL     OW16515   5.539   1.134  13.273
 4873SOL    HW116516   5.490   1.212  13.247
 4873SOL    HW216517   5.609   1.167  13.329
 4874SOL     OW16518   8.248  13.727  11.359
 4874SOL    HW116519   8.304  13.762  11.290
 4874SOL    HW216520   8.231  13.636  11.333
 4875SOL     OW16521   4.719   9.220   0.790
 4875SOL    HW116522   4.702   9.312   0.774
 4875SOL    HW216523   4.635   9.184   0.817
 4876SOL     OW16524  13.062   0.082  13.194
 4876SOL    HW116525  12.991   0.018  13.201
 4876SOL    HW216526  13.086   0.100  13.285
 4877SOL     OW16527   1.663   7.039   4.123
 4877SOL    HW116528   1.613   7.040   4.205
 4877SOL    HW216529   1.751   7.013   4.149
 4878SOL     OW16530   9.358   8.283   9.450
 4878SOL    HW116531   9.322   8.204   9.411
 4878SOL    HW216532   9.443   8.256   9.484
 4879SOL     OW16533   9.778   8.915   4.114
 4879SOL    HW116534   9.721   8.984   4.081
 4879SOL    HW216535   9.720   8.859   4.166
 4880SOL     OW16536   9.416   8.151   1.434
 4880SOL    HW116537   9.482   8.179   1.371
 4880SOL    HW216538   9.410   8.057   1.422
 4881SOL     OW16539   4.010   3.749   7.492
 4881SOL    HW116540   4.052   3.788   7.569
 4881SOL    HW216541   3.981   3.824   7.440
 4882SOL     OW16542  10.376   8.360   4.074
 4882SOL    HW116543  10.450   8.301   4.090
 4882SOL    HW216544  10.389   8.391   3.985
 4883SOL     OW16545   1.115   1.897  11.781
 4883SOL    HW116546   1.103   1.813  11.826
 4883SOL    HW216547   1.136   1.959  11.851
 4884SOL     OW16548   0.899   6.265   8.222
 4884SOL    HW116549   0.926   6.322   8.150
 4884SOL    HW216550   0.843   6.320   8.277
 4885SOL     OW16551   9.505   9.643  14.858
 4885SOL    HW116552   9.540   9.582  14.793
 4885SOL    HW216553   9.565   9.636   0.050
 4886SOL     OW16554   4.111   9.474   2.045
 4886SOL    HW116555   4.044   9.542   2.040
 4886SOL    HW216556   4.165   9.500   2.120
 4887SOL     OW16557   9.332  10.874   0.639
 4887SOL    HW116558   9.290  10.960   0.631
 4887SOL    HW216559   9.382  10.864   0.558
 4888SOL     OW16560   9.218   8.637  10.583
 4888SOL    HW116561   9.283   8.617  10.650
 4888SOL    HW216562   9.257   8.707  10.530
 4889SOL     OW16563   8.134   0.414   9.103
 4889SOL    HW116564   8.224   0.433   9.129
 4889SOL    HW216565   8.131   0.436   9.010
 4890SOL     OW16566   1.633   1.237   5.960
 4890SOL    HW116567   1.720   1.205   5.982
 4890SOL    HW216568   1.648   1.299   5.888
 4891SOL     OW16569   6.140   6.199   6.830
 4891SOL    HW116570   6.206   6.259   6.866
 4891SOL    HW216571   6.191   6.129   6.789
 4892SOL     OW16572  13.080   8.260   2.369
 4892SOL    HW116573  13.011   8.232   2.308
 4892SOL    HW216574  13.157   8.274   2.315
 4893SOL     OW16575   3.374   4.923   9.348
 4893SOL    HW116576   3.391   4.865   9.274
 4893SOL    HW216577   3.290   4.965   9.328
 4894SOL     OW16578   9.257   6.660  13.696
 4894SOL    HW116579   9.192   6.600  13.734
 4894SOL    HW216580   9.239   6.659  13.603
 4895SOL     OW16581   1.071   5.445  13.637
 4895SOL    HW116582   1.042   5.354  13.636
 4895SOL    HW216583   1.060   5.473  13.728
 4896SOL     OW16584   5.556  11.421  12.087
 4896SOL    HW116585   5.514  11.346  12.130
 4896SOL    HW216586   5.529  11.413  11.995
 4897SOL     OW16587   6.566   1.987   5.209
 4897SOL    HW116588   6.556   2.042   5.132
 4897SOL    HW216589   6.480   1.947   5.221
 4898SOL     OW16590   3.594  10.015   1.933
 4898SOL    HW116591   3.619  10.056   2.015
 4898SOL    HW216592   3.565  10.088   1.878
 4899SOL     OW16593   9.180   8.129  13.872
 4899SOL    HW116594   9.223   8.156  13.791
 4899SOL    HW216595   9.227   8.177  13.941
 4900SOL     OW16596   0.740   1.190   6.512
 4900SOL    HW116597   0.655   1.235   6.518
 4900SOL    HW216598   0.727   1.106   6.556
 4901SOL     OW16599   2.617   4.673   4.548
 4901SOL    HW116600   2.527   4.668   4.581
 4901SOL    HW216601   2.612   4.731   4.473
 4902SOL     OW16602   9.945  13.965   4.810
 4902SOL    HW116603   9.879  13.910   4.851
 4902SOL    HW216604  10.020  13.907   4.798
 4903SOL     OW16605   4.098  11.522   0.886
 4903SOL    HW116606   4.153  11.475   0.823
 4903SOL    HW216607   4.025  11.555   0.834
 4904SOL     OW16608   1.978  12.550   6.575
 4904SOL    HW116609   2.050  12.568   6.636
 4904SOL    HW216610   1.902  12.593   6.614
 4905SOL     OW16611   9.569   1.183   5.519
 4905SOL    HW116612   9.631   1.112   5.538
 4905SOL    HW216613   9.483   1.142   5.523
 4906SOL     OW16614   9.797  13.973   8.535
 4906SOL    HW116615   9.765  13.892   8.576
 4906SOL    HW216616   9.727  13.997   8.474
 4907SOL     OW16617   0.639   4.730  12.844
 4907SOL    HW116618   0.691   4.717  12.923
 4907SOL    HW216619   0.582   4.805  12.864
 4908SOL     OW16620   9.741   8.599   6.576
 4908SOL    HW116621   9.656   8.630   6.607
 4908SOL    HW216622   9.721   8.556   6.493
 4909SOL     OW16623   7.814   2.661  14.081
 4909SOL    HW116624   7.870   2.585  14.064
 4909SOL    HW216625   7.726   2.633  14.053
 4910SOL     OW16626   2.129  13.514   4.819
 4910SOL    HW116627   2.163  13.538   4.733
 4910SOL    HW216628   2.113  13.598   4.863
 4911SOL     OW16629   8.954   7.232   3.659
 4911SOL    HW116630   9.022   7.213   3.595
 4911SOL    HW216631   8.996   7.291   3.722
 4912SOL     OW16632   9.207   7.924  12.624
 4912SOL    HW116633   9.122   7.944  12.664
 4912SOL    HW216634   9.269   7.983  12.667
 4913SOL     OW16635   8.553   7.587   8.353
 4913SOL    HW116636   8.504   7.653   8.304
 4913SOL    HW216637   8.642   7.595   8.321
 4914SOL     OW16638   1.609   4.710   3.179
 4914SOL    HW116639   1.617   4.622   3.215
 4914SOL    HW216640   1.692   4.724   3.132
 4915SOL     OW16641   5.783   0.734   8.406
 4915SOL    HW116642   5.852   0.673   8.379
 4915SOL    HW216643   5.826   0.792   8.469
 4916SOL     OW16644   5.502   3.901  10.119
 4916SOL    HW116645   5.563   3.828  10.134
 4916SOL    HW216646   5.494   3.906  10.023
 4917SOL     OW16647   9.418  10.800   9.600
 4917SOL    HW116648   9.456  10.806   9.687
 4917SOL    HW216649   9.381  10.887   9.584
 4918SOL     OW16650   4.452   9.646   0.606
 4918SOL    HW116651   4.394   9.599   0.547
 4918SOL    HW216652   4.526   9.673   0.551
 4919SOL     OW16653   2.344   1.253  14.253
 4919SOL    HW116654   2.435   1.259  14.224
 4919SOL    HW216655   2.329   1.159  14.266
 4920SOL     OW16656   8.911   5.814   1.363
 4920SOL    HW116657   8.990   5.836   1.314
 4920SOL    HW216658   8.928   5.725   1.396
 4921SOL     OW16659   8.354  13.111  10.536
 4921SOL    HW116660   8.369  13.201  10.507
 4921SOL    HW216661   8.407  13.102  10.615
 4922SOL     OW16662   5.102   6.253  14.788
 4922SOL    HW116663   5.150   6.216  14.862
 4922SOL    HW216664   5.159   6.322  14.754
 4923SOL     OW16665   5.075   4.283   3.938
 4923SOL    HW116666   5.030   4.361   3.908
 4923SOL    HW216667   5.082   4.227   3.860
 4924SOL     OW16668   0.795   5.289   1.717
 4924SOL    HW116669   0.886   5.259   1.720
 4924SOL    HW216670   0.743   5.211   1.736
 4925SOL     OW16671   3.931   7.730  14.289
 4925SOL    HW116672   4.023   7.707  14.298
 4925SOL    HW216673   3.888   7.685  14.362
 4926SOL     OW16674   6.865   7.889  13.242
 4926SOL    HW116675   6.865   7.950  13.168
 4926SOL    HW216676   6.861   7.946  13.319
 4927SOL     OW16677   3.603   4.864   4.617
 4927SOL    HW116678   3.571   4.888   4.530
 4927SOL    HW216679   3.526   4.870   4.673
 4928SOL     OW16680   9.033   2.834   5.193
 4928SOL    HW116681   9.116   2.857   5.150
 4928SOL    HW216682   8.975   2.811   5.121
 4929SOL     OW16683   4.688  13.169   1.840
 4929SOL    HW116684   4.683  13.229   1.766
 4929SOL    HW216685   4.772  13.187   1.880
 4930SOL     OW16686  14.149   5.072  14.667
 4930SOL    HW116687  14.139   5.080  14.761
 4930SOL    HW216688  14.234   5.112  14.648
 4931SOL     OW16689  13.495   8.297   7.242
 4931SOL    HW116690  13.514   8.234   7.172
 4931SOL    HW216691  13.478   8.379   7.195
 4932SOL     OW16692   4.405   7.280  12.670
 4932SOL    HW116693   4.430   7.248  12.583
 4932SOL    HW216694   4.311   7.296  12.664
 4933SOL     OW16695   4.081  12.932   7.981
 4933SOL    HW116696   4.153  12.981   7.942
 4933SOL    HW216697   4.122  12.858   8.024
 4934SOL     OW16698   4.402   4.640  11.623
 4934SOL    HW116699   4.479   4.592  11.652
 4934SOL    HW216700   4.366   4.679  11.702
 4935SOL     OW16701   9.047  14.488   4.722
 4935SOL    HW116702   9.119  14.547   4.703
 4935SOL    HW216703   9.080  14.431   4.792
 4936SOL     OW16704   7.922   1.882  14.485
 4936SOL    HW116705   7.920   1.860  14.578
 4936SOL    HW216706   8.012   1.913  14.471
 4937SOL     OW16707   5.706   4.194   7.258
 4937SOL    HW116708   5.727   4.285   7.235
 4937SOL    HW216709   5.791   4.152   7.268
 4938SOL     OW16710   1.993  13.370   9.470
 4938SOL    HW116711   1.974  13.409   9.556
 4938SOL    HW216712   1.991  13.444   9.410
 4939SOL     OW16713   1.081  10.374   1.704
 4939SOL    HW116714   1.061  10.282   1.722
 4939SOL    HW216715   1.059  10.385   1.611
 4940SOL     OW16716   7.493   4.293   5.519
 4940SOL    HW116717   7.412   4.254   5.485
 4940SOL    HW216718   7.464   4.353   5.588
 4941SOL     OW16719  10.336  14.274  10.785
 4941SOL    HW116720  10.397  14.247  10.853
 4941SOL    HW216721  10.250  14.273  10.828
 4942SOL     OW16722  13.810   4.613   2.464
 4942SOL    HW116723  13.892   4.638   2.508
 4942SOL    HW216724  13.778   4.538   2.514
 4943SOL     OW16725   1.387  10.455   1.398
 4943SOL    HW116726   1.337  10.418   1.326
 4943SOL    HW216727   1.430  10.380   1.439
 4944SOL     OW16728  13.050   1.637  13.813
 4944SOL    HW116729  13.145   1.636  13.826
 4944SOL    HW216730  13.015   1.597  13.893
 4945SOL     OW16731  11.599   4.958   5.373
 4945SOL    HW116732  11.518   4.949   5.323
 4945SOL    HW216733  11.625   5.049   5.362
 4946SOL     OW16734  13.969  12.858   6.570
 4946SOL    HW116735  13.972  12.951   6.593
 4946SOL    HW216736  13.968  12.812   6.654
 4947SOL     OW16737  10.854   6.641   8.451
 4947SOL    HW116738  10.855   6.594   8.367
 4947SOL    HW216739  10.946   6.650   8.474
 4948SOL     OW16740  10.118   6.953   3.243
 4948SOL    HW116741  10.214   6.949   3.249
 4948SOL    HW216742  10.094   7.027   3.298
 4949SOL     OW16743   4.604  11.091   0.446
 4949SOL    HW116744   4.542  11.139   0.390
 4949SOL    HW216745   4.592  11.128   0.533
 4950SOL     OW16746   2.150  12.028   7.915
 4950SOL    HW116747   2.177  12.107   7.961
 4950SOL    HW216748   2.213  11.961   7.941
 4951SOL     OW16749  11.742  11.854  13.861
 4951SOL    HW116750  11.774  11.766  13.882
 4951SOL    HW216751  11.803  11.912  13.908
 4952SOL     OW16752   1.617   5.067  10.817
 4952SOL    HW116753   1.626   5.160  10.795
 4952SOL    HW216754   1.547   5.065  10.883
 4953SOL     OW16755   1.728   8.430   2.984
 4953SOL    HW116756   1.819   8.433   2.954
 4953SOL    HW216757   1.681   8.488   2.923
 4954SOL     OW16758  13.569  10.767   2.971
 4954SOL    HW116759  13.655  10.792   2.939
 4954SOL    HW216760  13.521  10.741   2.892
 4955SOL     OW16761  14.844   4.899   0.555
 4955SOL    HW116762  14.875   4.823   0.505
 4955SOL    HW216763  14.749   4.892   0.553
 4956SOL     OW16764  12.133   7.289   3.480
 4956SOL    HW116765  12.056   7.344   3.465
 4956SOL    HW216766  12.098   7.207   3.516
 4957SOL     OW16767   9.728   8.568   1.488
 4957SOL    HW116768   9.777   8.601   1.564
 4957SOL    HW216769   9.668   8.503   1.525
 4958SOL     OW16770  13.458   0.709   5.151
 4958SOL    HW116771  13.420   0.779   5.205
 4958SOL    HW216772  13.419   0.722   5.065
 4959SOL     OW16773  12.424   1.966   5.750
 4959SOL    HW116774  12.412   1.880   5.790
 4959SOL    HW216775  12.453   1.946   5.661
 4960SOL     OW16776   5.495   4.058   4.788
 4960SOL    HW116777   5.521   4.048   4.696
 4960SOL    HW216778   5.424   3.995   4.800
 4961SOL     OW16779   1.169   6.224  10.325
 4961SOL    HW116780   1.087   6.273  10.332
 4961SOL    HW216781   1.144   6.133  10.339
 4962SOL     OW16782   0.164  10.584   4.178
 4962SOL    HW116783   0.134  10.654   4.120
 4962SOL    HW216784   0.245  10.553   4.137
 4963SOL     OW16785   8.026   0.817   5.842
 4963SOL    HW116786   8.086   0.750   5.872
 4963SOL    HW216787   7.981   0.777   5.767
 4964SOL     OW16788   4.717   2.685   9.421
 4964SOL    HW116789   4.766   2.730   9.352
 4964SOL    HW216790   4.663   2.621   9.374
 4965SOL     OW16791  10.158   5.249   0.500
 4965SOL    HW116792  10.218   5.183   0.534
 4965SOL    HW216793  10.073   5.225   0.536
 4966SOL     OW16794  14.335  12.065   1.058
 4966SOL    HW116795  14.312  12.063   0.965
 4966SOL    HW216796  14.428  12.045   1.061
 4967SOL     OW16797   7.249   7.020   8.802
 4967SOL    HW116798   7.236   7.097   8.857
 4967SOL    HW216799   7.175   7.023   8.740
 4968SOL     OW16800   1.668  14.219   5.757
 4968SOL    HW116801   1.643  14.178   5.675
 4968SOL    HW216802   1.691  14.146   5.815
 4969SOL     OW16803   1.634   3.123  14.293
 4969SOL    HW116804   1.664   3.082  14.373
 4969SOL    HW216805   1.598   3.052  14.241
 4970SOL     OW16806   4.363   6.642   6.795
 4970SOL    HW116807   4.394   6.684   6.715
 4970SOL    HW216808   4.379   6.706   6.865
 4971SOL     OW16809   7.303   3.968  10.950
 4971SOL    HW116810   7.346   4.044  10.989
 4971SOL    HW216811   7.239   4.005  10.889
 4972SOL     OW16812   1.175   7.548   1.761
 4972SOL    HW116813   1.189   7.643   1.756
 4972SOL    HW216814   1.183   7.519   1.670
 4973SOL     OW16815  13.559  12.756  12.022
 4973SOL    HW116816  13.510  12.758  11.940
 4973SOL    HW216817  13.578  12.848  12.042
 4974SOL     OW16818   4.381   8.814   2.996
 4974SOL    HW116819   4.388   8.781   3.086
 4974SOL    HW216820   4.332   8.747   2.950
 4975SOL     OW16821   6.728   7.660   3.721
 4975SOL    HW116822   6.657   7.724   3.714
 4975SOL    HW216823   6.759   7.669   3.812
 4976SOL     OW16824  11.465   9.626   1.184
 4976SOL    HW116825  11.433   9.683   1.254
 4976SOL    HW216826  11.387   9.592   1.142
 4977SOL     OW16827  13.539   9.741   0.159
 4977SOL    HW116828  13.562   9.651   0.184
 4977SOL    HW216829  13.526   9.786   0.243
 4978SOL     OW16830  11.407   2.694   6.426
 4978SOL    HW116831  11.337   2.758   6.438
 4978SOL    HW216832  11.360   2.613   6.404
 4979SOL     OW16833   5.215  13.962  12.056
 4979SOL    HW116834   5.125  13.983  12.030
 4979SOL    HW216835   5.212  13.960  12.151
 4980SOL     OW16836  14.661  10.055   7.667
 4980SOL    HW116837  14.618   9.978   7.630
 4980SOL    HW216838  14.735  10.019   7.717
 4981SOL     OW16839   9.343  14.363  14.024
 4981SOL    HW116840   9.312  14.418  13.952
 4981SOL    HW216841   9.437  14.352  14.008
 4982SOL     OW16842  11.860   8.845   3.682
 4982SOL    HW116843  11.940   8.845   3.630
 4982SOL    HW216844  11.818   8.761   3.662
 4983SOL     OW16845   1.326   9.163   4.807
 4983SOL    HW116846   1.282   9.143   4.890
 4983SOL    HW216847   1.419   9.158   4.828
 4984SOL     OW16848   3.088   1.212   4.885
 4984SOL    HW116849   3.092   1.131   4.834
 4984SOL    HW216850   3.118   1.280   4.825
 4985SOL     OW16851   7.314  11.655   7.582
 4985SOL    HW116852   7.387  11.608   7.620
 4985SOL    HW216853   7.354  11.720   7.524
 4986SOL     OW16854   7.353  12.519  11.217
 4986SOL    HW116855   7.445  12.493  11.218
 4986SOL    HW216856   7.307  12.448  11.261
 4987SOL     OW16857   2.277   1.888  10.298
 4987SOL    HW116858   2.309   1.960  10.243
 4987SOL    HW216859   2.348   1.872  10.360
 4988SOL     OW16860   1.312  12.544  12.677
 4988SOL    HW116861   1.243  12.552  12.610
 4988SOL    HW216862   1.390  12.520  12.628
 4989SOL     OW16863   3.269   9.806  12.068
 4989SOL    HW116864   3.198   9.840  12.122
 4989SOL    HW216865   3.321   9.884  12.045
 4990SOL     OW16866   8.537   0.748   4.194
 4990SOL    HW116867   8.576   0.667   4.163
 4990SOL    HW216868   8.482   0.778   4.121
 4991SOL     OW16869   7.114   7.988  14.850
 4991SOL    HW116870   7.066   7.985   0.051
 4991SOL    HW216871   7.045   7.984  14.783
 4992SOL     OW16872   4.798   8.494   7.004
 4992SOL    HW116873   4.855   8.421   7.028
 4992SOL    HW216874   4.716   8.454   6.978
 4993SOL     OW16875  10.863   9.759   8.714
 4993SOL    HW116876  10.889   9.684   8.767
 4993SOL    HW216877  10.768   9.763   8.722
 4994SOL     OW16878   7.907  11.960   9.119
 4994SOL    HW116879   7.848  11.892   9.150
 4994SOL    HW216880   7.924  11.937   9.028
 4995SOL     OW16881   8.619  13.763  13.405
 4995SOL    HW116882   8.595  13.841  13.455
 4995SOL    HW216883   8.573  13.773  13.321
 4996SOL     OW16884   2.908   3.947   6.885
 4996SOL    HW116885   2.996   3.939   6.849
 4996SOL    HW216886   2.918   3.923   6.977
 4997SOL     OW16887  12.844  12.279  10.194
 4997SOL    HW116888  12.838  12.243  10.106
 4997SOL    HW216889  12.831  12.203  10.252
 4998SOL     OW16890   3.944  14.017   1.934
 4998SOL    HW116891   3.995  14.078   1.989
 4998SOL    HW216892   3.965  13.931   1.969
 4999SOL     OW16893   3.221   1.763  14.748
 4999SOL    HW116894   3.243   1.771  14.841
 4999SOL    HW216895   3.298   1.799  14.702
 5000SOL     OW16896   1.581   2.684   8.994
 5000SOL    HW116897   1.617   2.724   8.915
 5000SOL    HW216898   1.486   2.700   8.988
 5001SOL     OW16899   5.185  11.990   3.565
 5001SOL    HW116900   5.138  11.908   3.580
 5001SOL    HW216901   5.125  12.043   3.513
 5002SOL     OW16902   8.326   0.226   6.377
 5002SOL    HW116903   8.405   0.179   6.353
 5002SOL    HW216904   8.257   0.186   6.324
 5003SOL     OW16905  14.211  11.141  11.653
 5003SOL    HW116906  14.176  11.059  11.617
 5003SOL    HW216907  14.195  11.206  11.584
 5004SOL     OW16908   5.109   1.837  11.097
 5004SOL    HW116909   5.151   1.824  11.182
 5004SOL    HW216910   5.181   1.827  11.034
 5005SOL     OW16911  11.645   0.033   7.978
 5005SOL    HW116912  11.721   0.086   7.954
 5005SOL    HW216913  11.626   0.058   8.068
 5006SOL     OW16914  10.418   8.459   9.803
 5006SOL    HW116915  10.362   8.503   9.739
 5006SOL    HW216916  10.404   8.509   9.884
 5007SOL     OW16917   7.651  11.179  14.865
 5007SOL    HW116918   7.694  11.094  14.870
 5007SOL    HW216919   7.579  11.174   0.046
 5008SOL     OW16920   6.788   9.560   5.067
 5008SOL    HW116921   6.872   9.514   5.058
 5008SOL    HW216922   6.748   9.553   4.980
 5009SOL     OW16923   7.167   2.774   1.742
 5009SOL    HW116924   7.183   2.690   1.699
 5009SOL    HW216925   7.236   2.832   1.710
 5010SOL     OW16926   6.552  11.169   9.976
 5010SOL    HW116927   6.481  11.212   9.927
 5010SOL    HW216928   6.530  11.076   9.972
 5011SOL     OW16929   4.861   7.453   0.843
 5011SOL    HW116930   4.803   7.520   0.807
 5011SOL    HW216931   4.906   7.417   0.767
 5012SOL     OW16932   9.059   5.382   7.197
 5012SOL    HW116933   8.989   5.436   7.161
 5012SOL    HW216934   9.123   5.445   7.232
 5013SOL     OW16935  12.728  10.590   2.234
 5013SOL    HW116936  12.809  10.632   2.261
 5013SOL    HW216937  12.693  10.648   2.166
 5014SOL     OW16938   2.496   7.510   4.398
 5014SOL    HW116939   2.477   7.604   4.398
 5014SOL    HW216940   2.529   7.492   4.310
 5015SOL     OW16941   7.828   3.862  13.427
 5015SOL    HW116942   7.749   3.897  13.468
 5015SOL    HW216943   7.804   3.851  13.335
 5016SOL     OW16944   1.323  10.181   8.203
 5016SOL    HW116945   1.276  10.098   8.203
 5016SOL    HW216946   1.352  10.193   8.112
 5017SOL     OW16947   6.281  11.966   9.426
 5017SOL    HW116948   6.217  11.994   9.491
 5017SOL    HW216949   6.228  11.937   9.352
 5018SOL     OW16950  12.652   5.383  12.385
 5018SOL    HW116951  12.638   5.291  12.409
 5018SOL    HW216952  12.566   5.424  12.396
 5019SOL     OW16953  11.560  12.857   6.081
 5019SOL    HW116954  11.615  12.861   6.002
 5019SOL    HW216955  11.542  12.764   6.093
 5020SOL     OW16956  10.361   4.376   4.153
 5020SOL    HW116957  10.284   4.409   4.108
 5020SOL    HW216958  10.328   4.343   4.236
 5021SOL     OW16959   5.714  14.633  12.936
 5021SOL    HW116960   5.714  14.692  13.011
 5021SOL    HW216961   5.625  14.599  12.932
 5022SOL     OW16962  14.780  12.736   7.209
 5022SOL    HW116963  14.701  12.789   7.195
 5022SOL    HW216964  14.797  12.743   7.303
 5023SOL     OW16965  14.540  10.418  11.030
 5023SOL    HW116966  14.470  10.459  11.080
 5023SOL    HW216967  14.516  10.434  10.938
 5024SOL     OW16968   0.734   3.949   1.151
 5024SOL    HW116969   0.796   3.894   1.199
 5024SOL    HW216970   0.789   4.010   1.102
 5025SOL     OW16971   4.319   1.200  10.549
 5025SOL    HW116972   4.227   1.206  10.575
 5025SOL    HW216973   4.368   1.220  10.628
 5026SOL     OW16974   9.840  11.334   9.367
 5026SOL    HW116975   9.792  11.303   9.290
 5026SOL    HW216976   9.773  11.344   9.435
 5027SOL     OW16977  10.325  13.927  10.346
 5027SOL    HW116978  10.261  13.858  10.366
 5027SOL    HW216979  10.404  13.900  10.393
 5028SOL     OW16980   3.575   3.352   6.905
 5028SOL    HW116981   3.568   3.382   6.815
 5028SOL    HW216982   3.659   3.307   6.909
 5029SOL     OW16983   3.828  12.549  11.411
 5029SOL    HW116984   3.916  12.568  11.381
 5029SOL    HW216985   3.839  12.489  11.485
 5030SOL     OW16986   8.188   1.552   7.484
 5030SOL    HW116987   8.169   1.641   7.456
 5030SOL    HW216988   8.278   1.537   7.455
 5031SOL     OW16989  11.008   3.448   9.892
 5031SOL    HW116990  11.062   3.370   9.881
 5031SOL    HW216991  11.030   3.503   9.816
 5032SOL     OW16992  10.405   5.652   2.939
 5032SOL    HW116993  10.440   5.714   2.875
 5032SOL    HW216994  10.412   5.699   3.023
 5033SOL     OW16995   0.758  10.365  13.165
 5033SOL    HW116996   0.850  10.389  13.167
 5033SOL    HW216997   0.745  10.327  13.079
 5034SOL     OW16998   4.334   6.841  12.728
 5034SOL    HW116999   4.359   6.930  12.703
 5034SOL    HW217000   4.269   6.815  12.663
 5035SOL     OW17001  11.285  13.269  13.568
 5035SOL    HW117002  11.200  13.226  13.572
 5035SOL    HW217003  11.343  13.204  13.529
 5036SOL     OW17004   3.936   5.594   8.366
 5036SOL    HW117005   3.993   5.546   8.306
 5036SOL    HW217006   3.971   5.683   8.367
 5037SOL     OW17007   6.502   7.708  13.599
 5037SOL    HW117008   6.410   7.679  13.599
 5037SOL    HW217009   6.551   7.631  13.626
 5038SOL     OW17010   8.329   8.206   3.608
 5038SOL    HW117011   8.312   8.131   3.665
 5038SOL    HW217012   8.242   8.239   3.584
 5039SOL     OW17013   8.134   1.573   8.985
 5039SOL    HW117014   8.130   1.639   8.915
 5039SOL    HW217015   8.043   1.551   9.003
 5040SOL     OW17016  14.512  13.638   0.989
 5040SOL    HW117017  14.496  13.614   0.898
 5040SOL    HW217018  14.441  13.698   1.011
 5041SOL     OW17019   7.838  12.123   7.651
 5041SOL    HW117020   7.782  12.165   7.716
 5041SOL    HW217021   7.878  12.196   7.603
 5042SOL     OW17022  12.914  13.096   3.472
 5042SOL    HW117023  12.881  13.153   3.541
 5042SOL    HW217024  12.938  13.155   3.401
 5043SOL     OW17025  14.776   2.380  13.435
 5043SOL    HW117026  14.699   2.363  13.382
 5043SOL    HW217027  14.743   2.390  13.524
 5044SOL     OW17028   5.840  13.852  13.496
 5044SOL    HW117029   5.830  13.809  13.411
 5044SOL    HW217030   5.858  13.780  13.557
 5045SOL     OW17031  14.349  14.338  13.346
 5045SOL    HW117032  14.364  14.270  13.412
 5045SOL    HW217033  14.361  14.293  13.262
 5046SOL     OW17034  10.992   4.931   8.462
 5046SOL    HW117035  11.038   4.847   8.453
 5046SOL    HW217036  10.900   4.907   8.467
 5047SOL     OW17037  10.092  13.657  11.388
 5047SOL    HW117038  10.004  13.685  11.414
 5047SOL    HW217039  10.125  13.729  11.334
 5048SOL     OW17040   4.952   9.585   1.100
 5048SOL    HW117041   4.958   9.653   1.034
 5048SOL    HW217042   4.971   9.503   1.054
 5049SOL     OW17043  11.840   8.470   2.845
 5049SOL    HW117044  11.829   8.377   2.826
 5049SOL    HW217045  11.881   8.472   2.931
 5050SOL     OW17046   8.140   8.815   9.610
 5050SOL    HW117047   8.228   8.852   9.605
 5050SOL    HW217048   8.106   8.822   9.521
 5051SOL     OW17049   6.254   8.855   5.339
 5051SOL    HW117050   6.186   8.917   5.364
 5051SOL    HW217051   6.302   8.839   5.420
 5052SOL     OW17052   7.126   7.120   2.991
 5052SOL    HW117053   7.108   7.092   2.901
 5052SOL    HW217054   7.204   7.176   2.983
 5053SOL     OW17055   1.387   5.900   9.206
 5053SOL    HW117056   1.313   5.840   9.192
 5053SOL    HW217057   1.418   5.920   9.117
 5054SOL     OW17058   1.843   2.849   0.031
 5054SOL    HW117059   1.821   2.781   0.094
 5054SOL    HW217060   1.935   2.870   0.050
 5055SOL     OW17061  12.474  10.602  14.773
 5055SOL    HW117062  12.549  10.552  14.805
 5055SOL    HW217063  12.404  10.583  14.837
 5056SOL     OW17064   3.626   1.885   8.478
 5056SOL    HW117065   3.681   1.807   8.479
 5056SOL    HW217066   3.688   1.958   8.467
 5057SOL     OW17067   8.838   7.564   4.180
 5057SOL    HW117068   8.830   7.513   4.099
 5057SOL    HW217069   8.751   7.564   4.218
 5058SOL     OW17070   7.632   9.335  10.356
 5058SOL    HW117071   7.588   9.291  10.429
 5058SOL    HW217072   7.578   9.315  10.279
 5059SOL     OW17073   8.720   9.393   2.641
 5059SOL    HW117074   8.768   9.373   2.721
 5059SOL    HW217075   8.658   9.320   2.632
 5060SOL     OW17076  13.789  10.763  11.830
 5060SOL    HW117077  13.862  10.825  11.826
 5060SOL    HW217078  13.801  10.708  11.752
 5061SOL     OW17079   9.742   2.701   9.781
 5061SOL    HW117080   9.743   2.689   9.876
 5061SOL    HW217081   9.832   2.725   9.759
 5062SOL     OW17082  14.527  12.120  10.880
 5062SOL    HW117083  14.610  12.163  10.900
 5062SOL    HW217084  14.461  12.171  10.926
 5063SOL     OW17085   4.684   9.482  13.182
 5063SOL    HW117086   4.682   9.386  13.179
 5063SOL    HW217087   4.767   9.505  13.140
 5064SOL     OW17088   0.078   2.662   5.710
 5064SOL    HW117089   0.037   2.742   5.744
 5064SOL    HW217090   0.086   2.605   5.786
 5065SOL     OW17091   2.401  10.362   0.933
 5065SOL    HW117092   2.388  10.457   0.943
 5065SOL    HW217093   2.402  10.348   0.839
 5066SOL     OW17094   1.498   0.306   7.609
 5066SOL    HW117095   1.509   0.229   7.664
 5066SOL    HW217096   1.446   0.366   7.663
 5067SOL     OW17097   0.755   8.141   1.541
 5067SOL    HW117098   0.793   8.227   1.558
 5067SOL    HW217099   0.729   8.143   1.449
 5068SOL     OW17100   6.919   6.587  14.463
 5068SOL    HW117101   6.906   6.664  14.408
 5068SOL    HW217102   6.941   6.516  14.402
 5069SOL     OW17103   6.448   9.791  11.725
 5069SOL    HW117104   6.519   9.770  11.665
 5069SOL    HW217105   6.461   9.883  11.748
 5070SOL     OW17106   6.404   0.600   3.070
 5070SOL    HW117107   6.481   0.571   3.119
 5070SOL    HW217108   6.345   0.635   3.136
 5071SOL     OW17109   4.118   1.748   0.157
 5071SOL    HW117110   4.170   1.679   0.199
 5071SOL    HW217111   4.101   1.715   0.069
 5072SOL     OW17112   6.515   7.115   5.015
 5072SOL    HW117113   6.600   7.119   5.058
 5072SOL    HW217114   6.479   7.203   5.025
 5073SOL     OW17115   5.660  11.465   0.813
 5073SOL    HW117116   5.664  11.520   0.892
 5073SOL    HW217117   5.601  11.512   0.754
 5074SOL     OW17118   8.042   7.198   4.172
 5074SOL    HW117119   7.954   7.212   4.137
 5074SOL    HW217120   8.042   7.107   4.202
 5075SOL     OW17121   7.972  14.458  14.476
 5075SOL    HW117122   7.943  14.528  14.418
 5075SOL    HW217123   7.894  14.402  14.485
 5076SOL     OW17124   2.699   3.148  11.367
 5076SOL    HW117125   2.686   3.158  11.462
 5076SOL    HW217126   2.619   3.184  11.328
 5077SOL     OW17127  13.724  12.377  11.322
 5077SOL    HW117128  13.656  12.417  11.268
 5077SOL    HW217129  13.684  12.297  11.356
 5078SOL     OW17130  12.052   2.930   0.215
 5078SOL    HW117131  12.082   2.895   0.131
 5078SOL    HW217132  11.997   3.005   0.192
 5079SOL     OW17133   4.847   3.120  10.703
 5079SOL    HW117134   4.820   3.110  10.794
 5079SOL    HW217135   4.935   3.157  10.708
 5080SOL     OW17136   7.328  12.563   9.915
 5080SOL    HW117137   7.359  12.601   9.998
 5080SOL    HW217138   7.349  12.470   9.922
 5081SOL     OW17139   4.249   4.145   3.726
 5081SOL    HW117140   4.183   4.077   3.718
 5081SOL    HW217141   4.205   4.216   3.773
 5082SOL     OW17142  14.056   7.378  11.395
 5082SOL    HW117143  13.974   7.427  11.381
 5082SOL    HW217144  14.107   7.393  11.316
 5083SOL     OW17145  13.014   0.623   1.505
 5083SOL    HW117146  13.085   0.579   1.551
 5083SOL    HW217147  13.037   0.616   1.412
 5084SOL     OW17148   2.178   8.955  11.350
 5084SOL    HW117149   2.126   9.032  11.374
 5084SOL    HW217150   2.254   8.958  11.409
 5085SOL     OW17151   0.681   8.892  12.857
 5085SOL    HW117152   0.699   8.935  12.773
 5085SOL    HW217153   0.687   8.799  12.838
 5086SOL     OW17154  14.820   0.287   4.104
 5086SOL    HW117155  14.844   0.302   4.012
 5086SOL    HW217156  14.739   0.336   4.116
 5087SOL     OW17157   0.254  14.488   0.199
 5087SOL    HW117158   0.243  14.507   0.106
 5087SOL    HW217159   0.333  14.536   0.224
 5088SOL     OW17160  10.787   7.683  10.510
 5088SOL    HW117161  10.838   7.754  10.472
 5088SOL    HW217162  10.829   7.665  10.594
 5089SOL     OW17163   4.740  11.814   3.969
 5089SOL    HW117164   4.777  11.861   4.044
 5089SOL    HW217165   4.673  11.873   3.934
 5090SOL     OW17166  12.647  11.835  14.157
 5090SOL    HW117167  12.580  11.781  14.114
 5090SOL    HW217168  12.682  11.889  14.086
 5091SOL     OW17169  11.594   5.877   2.966
 5091SOL    HW117170  11.502   5.877   2.994
 5091SOL    HW217171  11.628   5.962   2.994
 5092SOL     OW17172   3.089   9.106   5.345
 5092SOL    HW117173   3.017   9.048   5.370
 5092SOL    HW217174   3.113   9.151   5.427
 5093SOL     OW17175   2.719  14.288   1.017
 5093SOL    HW117176   2.773  14.323   1.088
 5093SOL    HW217177   2.741  14.194   1.014
 5094SOL     OW17178   7.395   1.840   9.763
 5094SOL    HW117179   7.350   1.891   9.696
 5094SOL    HW217180   7.333   1.837   9.837
 5095SOL     OW17181   8.613  11.085   3.135
 5095SOL    HW117182   8.539  11.057   3.188
 5095SOL    HW217183   8.653  11.004   3.105
 5096SOL     OW17184  11.090   4.793  12.658
 5096SOL    HW117185  11.042   4.779  12.577
 5096SOL    HW217186  11.165   4.734  12.652
 5097SOL     OW17187   8.509  11.187   9.301
 5097SOL    HW117188   8.471  11.183   9.388
 5097SOL    HW217189   8.457  11.125   9.249
 5098SOL     OW17190   7.547  12.395  12.478
 5098SOL    HW117191   7.617  12.393  12.544
 5098SOL    HW217192   7.546  12.306  12.443
 5099SOL     OW17193   3.465  14.815   3.760
 5099SOL    HW117194   3.551  14.788   3.792
 5099SOL    HW217195   3.405  14.747   3.792
 5100SOL     OW17196   4.234  14.805  12.877
 5100SOL    HW117197   4.316  14.839  12.914
 5100SOL    HW217198   4.230  14.841  12.789
 5101SOL     OW17199   3.445   8.425  10.071
 5101SOL    HW117200   3.528   8.456  10.107
 5101SOL    HW217201   3.379   8.462  10.129
 5102SOL     OW17202  13.276  14.718   9.988
 5102SOL    HW117203  13.371  14.731   9.991
 5102SOL    HW217204  13.249  14.715  10.079
 5103SOL     OW17205   4.005   2.572   4.009
 5103SOL    HW117206   4.026   2.510   3.939
 5103SOL    HW217207   4.091   2.604   4.038
 5104SOL     OW17208   5.548   7.331  14.556
 5104SOL    HW117209   5.571   7.238  14.544
 5104SOL    HW217210   5.617   7.378  14.509
 5105SOL     OW17211   0.848   5.877  12.657
 5105SOL    HW117212   0.792   5.800  12.659
 5105SOL    HW217213   0.898   5.873  12.738
 5106SOL     OW17214   6.666   8.303   4.488
 5106SOL    HW117215   6.676   8.227   4.431
 5106SOL    HW217216   6.649   8.376   4.429
 5107SOL     OW17217  11.279  14.737   0.564
 5107SOL    HW117218  11.365  14.755   0.525
 5107SOL    HW217219  11.296  14.675   0.635
 5108SOL     OW17220  12.963   2.555   6.214
 5108SOL    HW117221  13.057   2.556   6.233
 5108SOL    HW217222  12.930   2.480   6.263
 5109SOL     OW17223   9.146   7.462  12.426
 5109SOL    HW117224   9.233   7.464  12.387
 5109SOL    HW217225   9.161   7.474  12.520
 5110SOL     OW17226   0.620   1.578   3.407
 5110SOL    HW117227   0.616   1.660   3.456
 5110SOL    HW217228   0.545   1.527   3.439
 5111SOL     OW17229   2.368   1.056   4.581
 5111SOL    HW117230   2.399   1.103   4.659
 5111SOL    HW217231   2.411   0.971   4.586
 5112SOL     OW17232   9.974   5.033   5.906
 5112SOL    HW117233   9.887   5.017   5.869
 5112SOL    HW217234   9.983   4.968   5.975
 5113SOL     OW17235  14.699   3.966   0.383
 5113SOL    HW117236  14.661   4.033   0.326
 5113SOL    HW217237  14.762   3.920   0.328
 5114SOL     OW17238   2.344   6.817   0.298
 5114SOL    HW117239   2.373   6.860   0.217
 5114SOL    HW217240   2.248   6.818   0.292
 5115SOL     OW17241   1.423  12.772   1.102
 5115SOL    HW117242   1.461  12.858   1.082
 5115SOL    HW217243   1.435  12.721   1.022
 5116SOL     OW17244   9.434   2.311   8.427
 5116SOL    HW117245   9.467   2.366   8.356
 5116SOL    HW217246   9.503   2.246   8.441
 5117SOL     OW17247   2.176  12.749  11.660
 5117SOL    HW117248   2.118  12.754  11.584
 5117SOL    HW217249   2.128  12.696  11.723
 5118SOL     OW17250   2.686  12.296  14.778
 5118SOL    HW117251   2.718  12.319  14.692
 5118SOL    HW217252   2.616  12.358  14.796
 5119SOL     OW17253   8.802   8.675   6.799
 5119SOL    HW117254   8.727   8.617   6.790
 5119SOL    HW217255   8.765   8.757   6.831
 5120SOL     OW17256   6.241   6.334   2.228
 5120SOL    HW117257   6.259   6.426   2.244
 5120SOL    HW217258   6.228   6.328   2.133
 5121SOL     OW17259   7.453   8.852   6.906
 5121SOL    HW117260   7.411   8.890   6.983
 5121SOL    HW217261   7.498   8.926   6.864
 5122SOL     OW17262   1.727   9.419   9.519
 5122SOL    HW117263   1.643   9.373   9.519
 5122SOL    HW217264   1.760   9.407   9.430
 5123SOL     OW17265  13.850  10.122   8.886
 5123SOL    HW117266  13.884  10.099   8.800
 5123SOL    HW217267  13.918  10.178   8.924
 5124SOL     OW17268  12.854   3.458   0.331
 5124SOL    HW117269  12.775   3.408   0.350
 5124SOL    HW217270  12.895   3.470   0.417
 5125SOL     OW17271   5.594   1.698  11.033
 5125SOL    HW117272   5.528   1.653  11.086
 5125SOL    HW217273   5.583   1.661  10.945
 5126SOL     OW17274  10.006   8.990   0.931
 5126SOL    HW117275   9.915   8.975   0.957
 5126SOL    HW217276  10.043   8.903   0.919
 5127SOL     OW17277  11.313  14.226   7.918
 5127SOL    HW117278  11.332  14.320   7.923
 5127SOL    HW217279  11.247  14.219   7.849
 5128SOL     OW17280  13.772  10.881   0.923
 5128SOL    HW117281  13.817  10.835   0.852
 5128SOL    HW217282  13.699  10.824   0.946
 5129SOL     OW17283  13.457  10.191   8.268
 5129SOL    HW117284  13.506  10.113   8.293
 5129SOL    HW217285  13.478  10.256   8.336
 5130SOL     OW17286   0.093   4.919   0.785
 5130SOL    HW117287   0.078   4.917   0.690
 5130SOL    HW217288   0.031   4.856   0.820
 5131SOL     OW17289   0.655   8.441   8.528
 5131SOL    HW117290   0.710   8.502   8.478
 5131SOL    HW217291   0.688   8.448   8.618
 5132SOL     OW17292   1.573  14.391   2.571
 5132SOL    HW117293   1.542  14.380   2.481
 5132SOL    HW217294   1.573  14.485   2.586
 5133SOL     OW17295   4.621  11.979  10.281
 5133SOL    HW117296   4.641  11.894  10.241
 5133SOL    HW217297   4.673  12.042  10.231
 5134SOL     OW17298   9.482   4.417   0.936
 5134SOL    HW117299   9.464   4.402   0.843
 5134SOL    HW217300   9.578   4.418   0.942
 5135SOL     OW17301   5.743   9.633   5.426
 5135SOL    HW117302   5.765   9.563   5.486
 5135SOL    HW217303   5.819   9.641   5.368
 5136SOL     OW17304  13.510  10.352   8.501
 5136SOL    HW117305  13.482  10.443   8.494
 5136SOL    HW217306  13.434  10.306   8.538
 5137SOL     OW17307   3.028   1.900   8.097
 5137SOL    HW117308   2.949   1.933   8.056
 5137SOL    HW217309   3.035   1.809   8.067
 5138SOL     OW17310  11.010   5.152   2.228
 5138SOL    HW117311  10.961   5.222   2.184
 5138SOL    HW217312  10.988   5.161   2.320
 5139SOL     OW17313   5.590   9.345   2.959
 5139SOL    HW117314   5.603   9.439   2.946
 5139SOL    HW217315   5.495   9.333   2.957
 5140SOL     OW17316   3.207   9.230  14.088
 5140SOL    HW117317   3.281   9.196  14.038
 5140SOL    HW217318   3.243   9.247  14.175
 5141SOL     OW17319   9.247   5.012   1.532
 5141SOL    HW117320   9.161   5.054   1.523
 5141SOL    HW217321   9.273   5.029   1.622
 5142SOL     OW17322   7.540  14.780   9.065
 5142SOL    HW117323   7.485  14.751   9.138
 5142SOL    HW217324   7.617  14.723   9.069
 5143SOL     OW17325   3.620   8.256   9.627
 5143SOL    HW117326   3.549   8.318   9.608
 5143SOL    HW217327   3.623   8.253   9.723
 5144SOL     OW17328   4.580   2.129  10.902
 5144SOL    HW117329   4.488   2.129  10.926
 5144SOL    HW217330   4.581   2.108  10.809
 5145SOL     OW17331   6.926  12.571   7.197
 5145SOL    HW117332   7.002  12.601   7.247
 5145SOL    HW217333   6.962  12.515   7.129
 5146SOL     OW17334  14.708   2.269   4.610
 5146SOL    HW117335  14.691   2.175   4.620
 5146SOL    HW217336  14.795   2.282   4.646
 5147SOL     OW17337   8.226   0.801   7.787
 5147SOL    HW117338   8.290   0.804   7.716
 5147SOL    HW217339   8.163   0.735   7.758
 5148SOL     OW17340   8.345   4.028  10.595
 5148SOL    HW117341   8.302   4.044  10.679
 5148SOL    HW217342   8.350   3.932  10.590
 5149SOL     OW17343   5.431  14.440   1.667
 5149SOL    HW117344   5.509  14.494   1.681
 5149SOL    HW217345   5.449  14.359   1.716
 5150SOL     OW17346   2.492  12.321  13.651
 5150SOL    HW117347   2.468  12.229  13.666
 5150SOL    HW217348   2.587  12.322  13.658
 5151SOL     OW17349   6.591  11.295  14.757
 5151SOL    HW117350   6.614  11.387  14.741
 5151SOL    HW217351   6.542  11.269  14.679
 5152SOL     OW17352  12.131   4.416   6.957
 5152SOL    HW117353  12.096   4.505   6.962
 5152SOL    HW217354  12.054   4.359   6.961
 5153SOL     OW17355   0.885   7.190   1.075
 5153SOL    HW117356   0.931   7.170   0.994
 5153SOL    HW217357   0.930   7.266   1.110
 5154SOL     OW17358   8.546  11.131  11.434
 5154SOL    HW117359   8.591  11.063  11.383
 5154SOL    HW217360   8.609  11.154  11.502
 5155SOL     OW17361   9.768   4.011   9.451
 5155SOL    HW117362   9.851   3.963   9.453
 5155SOL    HW217363   9.781   4.080   9.385
 5156SOL     OW17364   4.096  11.125   2.740
 5156SOL    HW117365   4.130  11.151   2.825
 5156SOL    HW217366   4.077  11.207   2.695
 5157SOL     OW17367   5.993   9.944   9.372
 5157SOL    HW117368   5.911   9.905   9.341
 5157SOL    HW217369   6.029   9.988   9.295
 5158SOL     OW17370  10.963   7.927  13.371
 5158SOL    HW117371  10.918   7.856  13.416
 5158SOL    HW217372  10.895   7.971  13.320
 5159SOL     OW17373  14.443   1.678   5.838
 5159SOL    HW117374  14.376   1.628   5.885
 5159SOL    HW217375  14.404   1.764   5.826
 5160SOL     OW17376   4.683   9.434  10.207
 5160SOL    HW117377   4.615   9.452  10.272
 5160SOL    HW217378   4.643   9.369  10.149
 5161SOL     OW17379   9.421  14.777   2.637
 5161SOL    HW117380   9.386  14.810   2.555
 5161SOL    HW217381   9.445  14.686   2.619
 5162SOL     OW17382   8.619  14.391  13.387
 5162SOL    HW117383   8.560  14.463  13.365
 5162SOL    HW217384   8.673  14.380  13.308
 5163SOL     OW17385   0.744   4.122   8.160
 5163SOL    HW117386   0.716   4.186   8.095
 5163SOL    HW217387   0.827   4.088   8.126
 5164SOL     OW17388   2.016   3.093   1.418
 5164SOL    HW117389   1.941   3.116   1.363
 5164SOL    HW217390   2.087   3.149   1.386
 5165SOL     OW17391  10.249  13.754   6.578
 5165SOL    HW117392  10.314  13.750   6.648
 5165SOL    HW217393  10.183  13.816   6.609
 5166SOL     OW17394   8.377   8.229  12.277
 5166SOL    HW117395   8.332   8.291  12.220
 5166SOL    HW217396   8.455   8.202  12.228
 5167SOL     OW17397  11.087   4.043  12.525
 5167SOL    HW117398  11.160   4.055  12.465
 5167SOL    HW217399  11.114   4.087  12.605
 5168SOL     OW17400   1.269  11.095   4.673
 5168SOL    HW117401   1.284  11.168   4.614
 5168SOL    HW217402   1.189  11.118   4.721
 5169SOL     OW17403  13.550  14.231   1.602
 5169SOL    HW117404  13.476  14.239   1.661
 5169SOL    HW217405  13.513  14.198   1.521
 5170SOL     OW17406  10.792   9.147   9.644
 5170SOL    HW117407  10.847   9.147   9.566
 5170SOL    HW217408  10.815   9.066   9.689
 5171SOL     OW17409   7.945   5.227   7.815
 5171SOL    HW117410   7.875   5.269   7.866
 5171SOL    HW217411   8.024   5.276   7.836
 5172SOL     OW17412  14.772   2.944   2.194
 5172SOL    HW117413  14.761   2.920   2.102
 5172SOL    HW217414  14.858   2.908   2.217
 5173SOL     OW17415  11.074   9.106  11.921
 5173SOL    HW117416  10.998   9.157  11.893
 5173SOL    HW217417  11.042   9.017  11.932
 5174SOL     OW17418  13.865   2.993   4.189
 5174SOL    HW117419  13.857   2.899   4.170
 5174SOL    HW217420  13.806   3.007   4.263
 5175SOL     OW17421  12.679  10.302   2.500
 5175SOL    HW117422  12.768  10.268   2.502
 5175SOL    HW217423  12.665  10.327   2.409
 5176SOL     OW17424  13.633  14.808   2.010
 5176SOL    HW117425  13.569  14.749   1.970
 5176SOL    HW217426  13.595   0.013   2.000
 5177SOL     OW17427   1.338   6.840   8.148
 5177SOL    HW117428   1.330   6.927   8.109
 5177SOL    HW217429   1.386   6.855   8.230
 5178SOL     OW17430  12.504   9.951   3.725
 5178SOL    HW117431  12.439  10.011   3.761
 5178SOL    HW217432  12.497   9.872   3.777
 5179SOL     OW17433   1.929  10.823   2.680
 5179SOL    HW117434   1.851  10.830   2.626
 5179SOL    HW217435   1.957  10.732   2.672
 5180SOL     OW17436   6.118   4.163   0.303
 5180SOL    HW117437   6.131   4.166   0.208
 5180SOL    HW217438   6.054   4.093   0.317
 5181SOL     OW17439   6.597   0.963   0.914
 5181SOL    HW117440   6.596   0.879   0.960
 5181SOL    HW217441   6.616   0.939   0.823
 5182SOL     OW17442  10.569  10.649   3.105
 5182SOL    HW117443  10.618  10.569   3.127
 5182SOL    HW217444  10.562  10.696   3.188
 5183SOL     OW17445   4.606   1.446   1.082
 5183SOL    HW117446   4.511   1.456   1.082
 5183SOL    HW217447   4.633   1.483   1.167
 5184SOL     OW17448  14.120  11.662   6.055
 5184SOL    HW117449  14.099  11.717   6.131
 5184SOL    HW217450  14.057  11.590   6.060
 5185SOL     OW17451  12.665  12.985   7.018
 5185SOL    HW117452  12.645  13.073   7.050
 5185SOL    HW217453  12.741  12.997   6.960
 5186SOL     OW17454   4.561   0.482   8.397
 5186SOL    HW117455   4.616   0.426   8.452
 5186SOL    HW217456   4.475   0.442   8.399
 5187SOL     OW17457  10.452  13.703   2.573
 5187SOL    HW117458  10.449  13.795   2.545
 5187SOL    HW217459  10.362  13.673   2.566
 5188SOL     OW17460  12.241   8.035   6.682
 5188SOL    HW117461  12.199   7.950   6.696
 5188SOL    HW217462  12.309   8.017   6.617
 5189SOL     OW17463  12.451   5.054   1.048
 5189SOL    HW117464  12.533   5.062   1.000
 5189SOL    HW217465  12.401   5.133   1.024
 5190SOL     OW17466   5.917   2.393   7.010
 5190SOL    HW117467   5.997   2.438   6.980
 5190SOL    HW217468   5.847   2.454   6.989
 5191SOL     OW17469   8.389   7.510  12.201
 5191SOL    HW117470   8.334   7.582  12.232
 5191SOL    HW217471   8.397   7.451  12.276
 5192SOL     OW17472   6.728   1.769   5.698
 5192SOL    HW117473   6.765   1.838   5.643
 5192SOL    HW217474   6.736   1.803   5.787
 5193SOL     OW17475   4.627  10.053  13.221
 5193SOL    HW117476   4.545  10.054  13.171
 5193SOL    HW217477   4.689  10.009  13.163
 5194SOL     OW17478  13.827   5.399  10.626
 5194SOL    HW117479  13.908   5.370  10.584
 5194SOL    HW217480  13.763   5.405  10.555
 5195SOL     OW17481   5.998   5.342   8.684
 5195SOL    HW117482   5.919   5.395   8.671
 5195SOL    HW217483   6.014   5.347   8.778
 5196SOL     OW17484  12.880   3.869  11.359
 5196SOL    HW117485  12.870   3.918  11.278
 5196SOL    HW217486  12.867   3.934  11.428
 5197SOL     OW17487  11.920   5.953   6.862
 5197SOL    HW117488  11.937   5.880   6.802
 5197SOL    HW217489  11.865   6.013   6.811
 5198SOL     OW17490   6.338   4.153   4.033
 5198SOL    HW117491   6.267   4.090   4.037
 5198SOL    HW217492   6.322   4.213   4.106
 5199SOL     OW17493  13.910   5.300   6.936
 5199SOL    HW117494  13.931   5.381   6.891
 5199SOL    HW217495  13.971   5.235   6.900
 5200SOL     OW17496  10.289  10.528  11.689
 5200SOL    HW117497  10.343  10.449  11.687
 5200SOL    HW217498  10.346  10.596  11.723
 5201SOL     OW17499   5.130  10.574   2.375
 5201SOL    HW117500   5.104  10.638   2.441
 5201SOL    HW217501   5.202  10.526   2.415
 5202SOL     OW17502  11.706  10.948   3.615
 5202SOL    HW117503  11.791  10.917   3.645
 5202SOL    HW217504  11.678  10.883   3.551
 5203SOL     OW17505   9.350   5.046  10.857
 5203SOL    HW117506   9.414   5.096  10.807
 5203SOL    HW217507   9.400   4.975  10.896
 5204SOL     OW17508   0.674   5.305  10.303
 5204SOL    HW117509   0.615   5.324  10.376
 5204SOL    HW217510   0.745   5.368  10.313
 5205SOL     OW17511  11.630   7.582  14.484
 5205SOL    HW117512  11.584   7.658  14.518
 5205SOL    HW217513  11.603   7.575  14.393
 5206SOL     OW17514   4.657   0.983   8.206
 5206SOL    HW117515   4.729   1.032   8.166
 5206SOL    HW217516   4.698   0.935   8.279
 5207SOL     OW17517  11.820  10.552   9.144
 5207SOL    HW117518  11.768  10.565   9.224
 5207SOL    HW217519  11.811  10.634   9.096
 5208SOL     OW17520   0.724  13.227  14.136
 5208SOL    HW117521   0.713  13.286  14.061
 5208SOL    HW217522   0.687  13.276  14.210
 5209SOL     OW17523  14.143  12.938  11.474
 5209SOL    HW117524  14.064  12.993  11.474
 5209SOL    HW217525  14.210  12.992  11.433
 5210SOL     OW17526   3.144   3.428   9.590
 5210SOL    HW117527   3.227   3.389   9.617
 5210SOL    HW217528   3.164   3.470   9.506
 5211SOL     OW17529  10.542  11.468   6.183
 5211SOL    HW117530  10.611  11.402   6.184
 5211SOL    HW217531  10.514  11.475   6.275
 5212SOL     OW17532  12.277   8.875   5.338
 5212SOL    HW117533  12.213   8.888   5.268
 5212SOL    HW217534  12.326   8.797   5.312
 5213SOL     OW17535  14.541  14.347   2.387
 5213SOL    HW117536  14.610  14.309   2.441
 5213SOL    HW217537  14.472  14.281   2.386
 5214SOL     OW17538   8.327  10.016   1.050
 5214SOL    HW117539   8.348   9.927   1.021
 5214SOL    HW217540   8.356  10.020   1.141
 5215SOL     OW17541   3.355   2.653   4.589
 5215SOL    HW117542   3.373   2.559   4.582
 5215SOL    HW217543   3.279   2.666   4.533
 5216SOL     OW17544  13.465   5.341   4.838
 5216SOL    HW117545  13.377   5.368   4.863
 5216SOL    HW217546  13.471   5.250   4.868
 5217SOL     OW17547  13.327   2.373  12.203
 5217SOL    HW117548  13.386   2.299  12.220
 5217SOL    HW217549  13.300   2.403  12.290
 5218SOL     OW17550   3.767  11.477  10.309
 5218SOL    HW117551   3.750  11.548  10.372
 5218SOL    HW217552   3.777  11.399  10.363
 5219SOL     OW17553   3.128   2.639   6.490
 5219SOL    HW117554   3.153   2.589   6.412
 5219SOL    HW217555   3.098   2.723   6.456
 5220SOL     OW17556   2.868   6.488   4.479
 5220SOL    HW117557   2.805   6.418   4.462
 5220SOL    HW217558   2.907   6.506   4.393
 5221SOL     OW17559   5.670   8.251   3.022
 5221SOL    HW117560   5.671   8.322   2.959
 5221SOL    HW217561   5.728   8.280   3.093
 5222SOL     OW17562   7.527  11.693   3.497
 5222SOL    HW117563   7.495  11.655   3.579
 5222SOL    HW217564   7.448  11.727   3.454
 5223SOL     OW17565   2.923   2.356  11.542
 5223SOL    HW117566   2.889   2.376  11.629
 5223SOL    HW217567   2.845   2.346  11.487
 5224SOL     OW17568  12.863   9.201   0.987
 5224SOL    HW117569  12.812   9.237   1.059
 5224SOL    HW217570  12.947   9.177   1.026
 5225SOL     OW17571   7.902   4.505   2.894
 5225SOL    HW117572   7.889   4.424   2.943
 5225SOL    HW217573   7.891   4.479   2.802
 5226SOL     OW17574  14.325   8.279   8.955
 5226SOL    HW117575  14.234   8.269   8.927
 5226SOL    HW217576  14.355   8.190   8.974
 5227SOL     OW17577  12.589  10.677  10.675
 5227SOL    HW117578  12.596  10.671  10.580
 5227SOL    HW217579  12.676  10.652  10.707
 5228SOL     OW17580   0.206   7.005   0.295
 5228SOL    HW117581   0.286   7.057   0.290
 5228SOL    HW217582   0.200   6.977   0.387
 5229SOL     OW17583   0.357  14.264  14.385
 5229SOL    HW117584   0.272  14.292  14.350
 5229SOL    HW217585   0.420  14.325  14.347
 5230SOL     OW17586  12.194   0.601   7.543
 5230SOL    HW117587  12.216   0.617   7.635
 5230SOL    HW217588  12.268   0.637   7.494
 5231SOL     OW17589   5.435  14.079  11.936
 5231SOL    HW117590   5.441  14.037  11.850
 5231SOL    HW217591   5.364  14.033  11.980
 5232SOL     OW17592  12.558   0.177  14.336
 5232SOL    HW117593  12.514   0.145  14.257
 5232SOL    HW217594  12.650   0.184  14.310
 5233SOL     OW17595   3.925   5.882   6.644
 5233SOL    HW117596   3.889   5.860   6.730
 5233SOL    HW217597   3.927   5.977   6.642
 5234SOL     OW17598  12.812   2.308  12.785
 5234SOL    HW117599  12.738   2.351  12.829
 5234SOL    HW217600  12.863   2.269  12.856
 5235SOL     OW17601   8.165  10.526   1.871
 5235SOL    HW117602   8.146  10.618   1.888
 5235SOL    HW217603   8.178  10.488   1.958
 5236SOL     OW17604  12.983   0.880  14.534
 5236SOL    HW117605  13.012   0.873  14.625
 5236SOL    HW217606  13.006   0.970  14.509
 5237SOL     OW17607   5.914   5.157   4.634
 5237SOL    HW117608   5.846   5.214   4.670
 5237SOL    HW217609   5.962   5.212   4.572
 5238SOL     OW17610   1.004   7.909   3.169
 5238SOL    HW117611   0.977   7.883   3.081
 5238SOL    HW217612   1.093   7.941   3.158
 5239SOL     OW17613  13.036  10.245   0.771
 5239SOL    HW117614  12.972  10.193   0.723
 5239SOL    HW217615  13.073  10.304   0.706
 5240SOL     OW17616  11.129  14.420   9.837
 5240SOL    HW117617  11.203  14.364   9.862
 5240SOL    HW217618  11.070  14.362   9.789
 5241SOL     OW17619   2.536  14.416   0.348
 5241SOL    HW117620   2.496  14.472   0.282
 5241SOL    HW217621   2.589  14.476   0.401
 5242SOL     OW17622  10.965   8.450  10.979
 5242SOL    HW117623  10.956   8.527  10.924
 5242SOL    HW217624  11.040   8.469  11.036
 5243SOL     OW17625  12.223   8.483   1.403
 5243SOL    HW117626  12.139   8.440   1.419
 5243SOL    HW217627  12.260   8.436   1.328
 5244SOL     OW17628   5.787  12.458   7.173
 5244SOL    HW117629   5.856  12.454   7.240
 5244SOL    HW217630   5.749  12.545   7.184
 5245SOL     OW17631   7.988   0.677   3.641
 5245SOL    HW117632   7.905   0.689   3.595
 5245SOL    HW217633   7.973   0.713   3.728
 5246SOL     OW17634   5.787   0.171   4.270
 5246SOL    HW117635   5.786   0.179   4.366
 5246SOL    HW217636   5.759   0.257   4.239
 5247SOL     OW17637   9.896   1.249   8.420
 5247SOL    HW117638   9.913   1.342   8.412
 5247SOL    HW217639   9.809   1.237   8.382
 5248SOL     OW17640   2.611   5.098   8.862
 5248SOL    HW117641   2.588   5.091   8.769
 5248SOL    HW217642   2.547   5.042   8.907
 5249SOL     OW17643  12.690   5.836   0.274
 5249SOL    HW117644  12.684   5.904   0.341
 5249SOL    HW217645  12.672   5.755   0.321
 5250SOL     OW17646   8.466   0.271   3.445
 5250SOL    HW117647   8.543   0.327   3.443
 5250SOL    HW217648   8.409   0.307   3.376
 5251SOL     OW17649  12.618   6.676   9.990
 5251SOL    HW117650  12.705   6.704  10.015
 5251SOL    HW217651  12.581   6.636  10.069
 5252SOL     OW17652  14.668  11.273   6.343
 5252SOL    HW117653  14.744  11.321   6.378
 5252SOL    HW217654  14.636  11.329   6.272
 5253SOL     OW17655   5.765  14.136   9.213
 5253SOL    HW117656   5.676  14.113   9.241
 5253SOL    HW217657   5.784  14.218   9.258
 5254SOL     OW17658  11.945   0.769  13.500
 5254SOL    HW117659  11.988   0.855  13.506
 5254SOL    HW217660  11.869   0.776  13.558
 5255SOL     OW17661  10.633   5.714   7.398
 5255SOL    HW117662  10.598   5.779   7.337
 5255SOL    HW217663  10.569   5.643   7.397
 5256SOL     OW17664   8.180   8.319  14.441
 5256SOL    HW117665   8.146   8.264  14.370
 5256SOL    HW217666   8.141   8.283  14.521
 5257SOL     OW17667  11.620  13.546   6.243
 5257SOL    HW117668  11.571  13.487   6.300
 5257SOL    HW217669  11.626  13.627   6.294
 5258SOL     OW17670  11.664   8.515   6.915
 5258SOL    HW117671  11.629   8.600   6.943
 5258SOL    HW217672  11.682   8.469   6.997
 5259SOL     OW17673   2.399  11.144  14.213
 5259SOL    HW117674   2.488  11.115  14.232
 5259SOL    HW217675   2.356  11.151  14.298
 5260SOL     OW17676   8.273  14.153   5.644
 5260SOL    HW117677   8.211  14.127   5.712
 5260SOL    HW217678   8.219  14.171   5.568
 5261SOL     OW17679   0.485   2.627  11.288
 5261SOL    HW117680   0.515   2.694  11.349
 5261SOL    HW217681   0.488   2.669  11.202
 5262SOL     OW17682  11.530   6.198   3.908
 5262SOL    HW117683  11.435   6.197   3.898
 5262SOL    HW217684  11.562   6.135   3.843
 5263SOL     OW17685  14.869  11.892   8.475
 5263SOL    HW117686  14.775  11.899   8.458
 5263SOL    HW217687  14.876  11.874   8.568
 5264SOL     OW17688   1.425   1.659   5.878
 5264SOL    HW117689   1.396   1.629   5.792
 5264SOL    HW217690   1.418   1.582   5.934
 5265SOL     OW17691  11.468   3.228  12.684
 5265SOL    HW117692  11.409   3.189  12.748
 5265SOL    HW217693  11.555   3.215  12.720
 5266SOL     OW17694  12.730  13.188   5.843
 5266SOL    HW117695  12.824  13.170   5.847
 5266SOL    HW217696  12.692  13.138   5.915
 5267SOL     OW17697   8.851   1.845   7.022
 5267SOL    HW117698   8.862   1.804   7.108
 5267SOL    HW217699   8.887   1.781   6.960
 5268SOL     OW17700   3.006   0.077   4.379
 5268SOL    HW117701   2.939   0.076   4.448
 5268SOL    HW217702   3.066   0.006   4.404
 5269SOL     OW17703   9.693   5.346   3.401
 5269SOL    HW117704   9.614   5.339   3.454
 5269SOL    HW217705   9.733   5.429   3.428
 5270SOL     OW17706   1.574   1.007  13.399
 5270SOL    HW117707   1.635   1.065  13.353
 5270SOL    HW217708   1.583   0.923  13.355
 5271SOL     OW17709   3.744   3.278   0.427
 5271SOL    HW117710   3.760   3.371   0.443
 5271SOL    HW217711   3.756   3.267   0.333
 5272SOL     OW17712  14.762   7.790  12.249
 5272SOL    HW117713  14.793   7.706  12.283
 5272SOL    HW217714  14.669   7.776  12.232
 5273SOL     OW17715  13.543  10.413   3.344
 5273SOL    HW117716  13.542  10.434   3.251
 5273SOL    HW217717  13.634  10.429   3.371
 5274SOL     OW17718   6.359   8.561  14.044
 5274SOL    HW117719   6.340   8.488  13.987
 5274SOL    HW217720   6.364   8.523  14.132
 5275SOL     OW17721   0.208   1.307   4.411
 5275SOL    HW117722   0.190   1.384   4.358
 5275SOL    HW217723   0.230   1.238   4.347
 5276SOL     OW17724  11.190   7.567   7.979
 5276SOL    HW117725  11.221   7.577   8.069
 5276SOL    HW217726  11.111   7.621   7.976
 5277SOL     OW17727   5.528   6.252  12.486
 5277SOL    HW117728   5.597   6.290  12.540
 5277SOL    HW217729   5.453   6.242  12.545
 5278SOL     OW17730  14.580   9.502   4.044
 5278SOL    HW117731  14.626   9.511   4.127
 5278SOL    HW217732  14.524   9.425   4.056
 5279SOL     OW17733   7.787  10.895   6.735
 5279SOL    HW117734   7.721  10.933   6.677
 5279SOL    HW217735   7.794  10.956   6.808
 5280SOL     OW17736  13.627  11.402   0.346
 5280SOL    HW117737  13.674  11.338   0.293
 5280SOL    HW217738  13.535  11.392   0.319
 5281SOL     OW17739   0.063   8.944   5.037
 5281SOL    HW117740  14.878   8.988   5.089
 5281SOL    HW217741   0.086   9.007   4.969
 5282SOL     OW17742   6.073   3.952   0.925
 5282SOL    HW117743   6.105   3.959   0.835
 5282SOL    HW217744   5.986   3.992   0.923
 5283SOL     OW17745   4.750  13.391   6.661
 5283SOL    HW117746   4.789  13.425   6.742
 5283SOL    HW217747   4.821  13.343   6.619
 5284SOL     OW17748  12.254   3.883  14.159
 5284SOL    HW117749  12.294   3.803  14.193
 5284SOL    HW217750  12.268   3.879  14.065
 5285SOL     OW17751  13.623   3.748   2.147
 5285SOL    HW117752  13.712   3.745   2.110
 5285SOL    HW217753  13.571   3.693   2.089
 5286SOL     OW17754   0.166   2.729  13.856
 5286SOL    HW117755   0.223   2.793  13.899
 5286SOL    HW217756   0.225   2.659  13.828
 5287SOL     OW17757   1.515  10.667   6.502
 5287SOL    HW117758   1.544  10.753   6.532
 5287SOL    HW217759   1.501  10.678   6.408
 5288SOL     OW17760   6.496   0.292   8.881
 5288SOL    HW117761   6.568   0.231   8.864
 5288SOL    HW217762   6.418   0.247   8.850
 5289SOL     OW17763   6.805   1.403  11.898
 5289SOL    HW117764   6.751   1.325  11.907
 5289SOL    HW217765   6.802   1.444  11.985
 5290SOL     OW17766   4.598   3.921   9.024
 5290SOL    HW117767   4.561   3.834   9.009
 5290SOL    HW217768   4.692   3.909   9.012
 5291SOL     OW17769   7.928   6.122   3.917
 5291SOL    HW117770   7.932   6.026   3.923
 5291SOL    HW217771   8.007   6.146   3.869
 5292SOL     OW17772   0.512   1.328   9.919
 5292SOL    HW117773   0.462   1.333   9.838
 5292SOL    HW217774   0.458   1.374   9.984
 5293SOL     OW17775  14.521  13.941  13.471
 5293SOL    HW117776  14.556  13.855  13.450
 5293SOL    HW217777  14.581  14.002  13.428
 5294SOL     OW17778   9.316   6.284   0.943
 5294SOL    HW117779   9.296   6.228   1.019
 5294SOL    HW217780   9.276   6.368   0.964
 5295SOL     OW17781   2.472  14.698   7.316
 5295SOL    HW117782   2.475  14.610   7.280
 5295SOL    HW217783   2.532  14.749   7.261
 5296SOL     OW17784   0.482   3.694  13.111
 5296SOL    HW117785   0.466   3.757  13.041
 5296SOL    HW217786   0.510   3.747  13.185
 5297SOL     OW17787   7.657   8.766   8.040
 5297SOL    HW117788   7.726   8.810   7.991
 5297SOL    HW217789   7.699   8.739   8.122
 5298SOL     OW17790   0.570  12.059   6.872
 5298SOL    HW117791   0.487  12.103   6.889
 5298SOL    HW217792   0.548  11.986   6.814
 5299SOL     OW17793  11.664   7.360   6.393
 5299SOL    HW117794  11.612   7.284   6.370
 5299SOL    HW217795  11.661   7.416   6.316
 5300SOL     OW17796  13.858   2.336   5.235
 5300SOL    HW117797  13.852   2.292   5.150
 5300SOL    HW217798  13.942   2.308   5.270
 5301SOL     OW17799   5.772   3.502   6.426
 5301SOL    HW117800   5.781   3.557   6.504
 5301SOL    HW217801   5.736   3.560   6.359
 5302SOL     OW17802  11.189   1.750   9.022
 5302SOL    HW117803  11.206   1.734   9.115
 5302SOL    HW217804  11.094   1.754   9.016
 5303SOL     OW17805   6.761  11.139   1.959
 5303SOL    HW117806   6.680  11.089   1.951
 5303SOL    HW217807   6.768  11.187   1.876
 5304SOL     OW17808  10.585   2.296   8.956
 5304SOL    HW117809  10.514   2.349   8.992
 5304SOL    HW217810  10.630   2.261   9.033
 5305SOL     OW17811  13.526   8.650   8.137
 5305SOL    HW117812  13.574   8.725   8.170
 5305SOL    HW217813  13.561   8.575   8.185
 5306SOL     OW17814   8.080   3.037  13.839
 5306SOL    HW117815   8.070   2.948  13.873
 5306SOL    HW217816   7.999   3.052  13.790
 5307SOL     OW17817  13.582   8.632   5.337
 5307SOL    HW117818  13.577   8.611   5.244
 5307SOL    HW217819  13.671   8.605   5.363
 5308SOL     OW17820   2.073   6.095   2.066
 5308SOL    HW117821   2.156   6.085   2.113
 5308SOL    HW217822   2.097   6.088   1.973
 5309SOL     OW17823   8.716   6.995   2.969
 5309SOL    HW117824   8.660   7.071   2.949
 5309SOL    HW217825   8.725   6.997   3.064
 5310SOL     OW17826  12.333  11.331   7.061
 5310SOL    HW117827  12.279  11.315   6.984
 5310SOL    HW217828  12.333  11.247   7.107
 5311SOL     OW17829   2.326  12.394   4.319
 5311SOL    HW117830   2.358  12.304   4.317
 5311SOL    HW217831   2.232  12.386   4.337
 5312SOL     OW17832   9.975   1.899   9.041
 5312SOL    HW117833  10.022   1.884   9.123
 5312SOL    HW217834   9.950   1.991   9.044
 5313SOL     OW17835  13.790  10.129   7.115
 5313SOL    HW117836  13.710  10.172   7.147
 5313SOL    HW217837  13.775  10.121   7.020
 5314SOL     OW17838   1.633   3.601   0.771
 5314SOL    HW117839   1.702   3.660   0.740
 5314SOL    HW217840   1.628   3.533   0.704
 5315SOL     OW17841   2.521   0.656   2.798
 5315SOL    HW117842   2.470   0.583   2.763
 5315SOL    HW217843   2.581   0.680   2.727
 5316SOL     OW17844   4.609  14.328  10.803
 5316SOL    HW117845   4.534  14.283  10.765
 5316SOL    HW217846   4.676  14.326  10.735
 5317SOL     OW17847  13.215   7.829  14.601
 5317SOL    HW117848  13.302   7.805  14.633
 5317SOL    HW217849  13.216   7.925  14.600
 5318SOL     OW17850   5.914  11.091   9.745
 5318SOL    HW117851   5.837  11.147   9.757
 5318SOL    HW217852   5.878  11.010   9.709
 5319SOL     OW17853   7.854   8.916   1.907
 5319SOL    HW117854   7.840   8.978   1.979
 5319SOL    HW217855   7.774   8.864   1.906
 5320SOL     OW17856   4.767   4.823   8.976
 5320SOL    HW117857   4.839   4.864   8.927
 5320SOL    HW217858   4.691   4.878   8.955
 5321SOL     OW17859  14.354   4.821  14.467
 5321SOL    HW117860  14.360   4.916  14.477
 5321SOL    HW217861  14.378   4.806  14.376
 5322SOL     OW17862   5.943  14.134   9.657
 5322SOL    HW117863   5.947  14.061   9.596
 5322SOL    HW217864   5.929  14.094   9.743
 5323SOL     OW17865   1.154   3.219   0.997
 5323SOL    HW117866   1.186   3.305   0.970
 5323SOL    HW217867   1.231   3.162   0.990
 5324SOL     OW17868   9.546  14.651   4.139
 5324SOL    HW117869   9.544  14.716   4.068
 5324SOL    HW217870   9.463  14.604   4.130
 5325SOL     OW17871  10.918   1.318   3.761
 5325SOL    HW117872  10.984   1.266   3.716
 5325SOL    HW217873  10.921   1.288   3.852
 5326SOL     OW17874  10.436   7.978   8.891
 5326SOL    HW117875  10.400   8.009   8.974
 5326SOL    HW217876  10.479   7.895   8.914
 5327SOL     OW17877  14.755   2.771  11.070
 5327SOL    HW117878  14.811   2.793  10.995
 5327SOL    HW217879  14.731   2.856  11.107
 5328SOL     OW17880   4.249   0.690  13.787
 5328SOL    HW117881   4.276   0.630  13.857
 5328SOL    HW217882   4.158   0.666  13.769
 5329SOL     OW17883   7.773   2.729  13.663
 5329SOL    HW117884   7.765   2.816  13.625
 5329SOL    HW217885   7.867   2.720  13.682
 5330SOL     OW17886   3.669   1.039   9.008
 5330SOL    HW117887   3.758   1.075   9.010
 5330SOL    HW217888   3.626   1.085   8.936
 5331SOL     OW17889  10.588   6.416   7.489
 5331SOL    HW117890  10.639   6.492   7.517
 5331SOL    HW217891  10.535   6.393   7.565
 5332SOL     OW17892   6.777   7.542   8.380
 5332SOL    HW117893   6.841   7.506   8.442
 5332SOL    HW217894   6.698   7.555   8.432
 5333SOL     OW17895   1.482   8.827   3.529
 5333SOL    HW117896   1.482   8.855   3.437
 5333SOL    HW217897   1.468   8.908   3.578
 5334SOL     OW17898   7.143  12.535   4.491
 5334SOL    HW117899   7.135  12.552   4.585
 5334SOL    HW217900   7.176  12.617   4.454
 5335SOL     OW17901   7.039  10.537   0.356
 5335SOL    HW117902   6.986  10.611   0.329
 5335SOL    HW217903   7.090  10.513   0.278
 5336SOL     OW17904   7.169  14.506   1.451
 5336SOL    HW117905   7.206  14.593   1.433
 5336SOL    HW217906   7.085  14.506   1.406
 5337SOL     OW17907  11.570   6.027  10.330
 5337SOL    HW117908  11.613   5.991  10.407
 5337SOL    HW217909  11.592   5.967  10.259
 5338SOL     OW17910   2.868   3.107   0.320
 5338SOL    HW117911   2.827   3.025   0.291
 5338SOL    HW217912   2.913   3.084   0.401
 5339SOL     OW17913   2.312  12.378   0.483
 5339SOL    HW117914   2.399  12.367   0.522
 5339SOL    HW217915   2.255  12.324   0.537
 5340SOL     OW17916   6.632  10.754   2.661
 5340SOL    HW117917   6.600  10.664   2.670
 5340SOL    HW217918   6.553  10.808   2.660
 5341SOL     OW17919   4.561   5.215  11.912
 5341SOL    HW117920   4.539   5.233  12.003
 5341SOL    HW217921   4.643   5.165  11.916
 5342SOL     OW17922   7.256   2.969  12.283
 5342SOL    HW117923   7.312   3.005  12.352
 5342SOL    HW217924   7.297   2.998  12.202
 5343SOL     OW17925   2.128  13.760   2.360
 5343SOL    HW117926   2.079  13.804   2.430
 5343SOL    HW217927   2.064  13.705   2.317
 5344SOL     OW17928   4.611  13.751  14.432
 5344SOL    HW117929   4.568  13.736  14.347
 5344SOL    HW217930   4.642  13.664  14.459
 5345SOL     OW17931  14.645   5.979  14.622
 5345SOL    HW117932  14.615   5.982  14.531
 5345SOL    HW217933  14.568   5.952  14.672
 5346SOL     OW17934   4.162   2.195  12.873
 5346SOL    HW117935   4.080   2.155  12.901
 5346SOL    HW217936   4.212   2.206  12.955
 5347SOL     OW17937  10.666   2.938   5.578
 5347SOL    HW117938  10.628   2.997   5.512
 5347SOL    HW217939  10.626   2.853   5.560
 5348SOL     OW17940   0.752   9.616   3.100
 5348SOL    HW117941   0.846   9.600   3.091
 5348SOL    HW217942   0.712   9.554   3.039
 5349SOL     OW17943   4.273  14.452   2.232
 5349SOL    HW117944   4.345  14.485   2.178
 5349SOL    HW217945   4.194  14.471   2.181
 5350SOL     OW17946   4.150   4.304   1.613
 5350SOL    HW117947   4.225   4.335   1.664
 5350SOL    HW217948   4.080   4.366   1.633
 5351SOL     OW17949   2.747   8.224  14.670
 5351SOL    HW117950   2.713   8.314  14.673
 5351SOL    HW217951   2.773   8.212  14.578
 5352SOL     OW17952  14.327   4.811   3.184
 5352SOL    HW117953  14.349   4.730   3.230
 5352SOL    HW217954  14.256   4.787   3.125
 5353SOL     OW17955   1.231   4.112   1.682
 5353SOL    HW117956   1.200   4.194   1.644
 5353SOL    HW217957   1.299   4.081   1.621
 5354SOL     OW17958  13.240  12.199   2.721
 5354SOL    HW117959  13.164  12.190   2.662
 5354SOL    HW217960  13.310  12.233   2.665
 5355SOL     OW17961  11.406   7.286   1.672
 5355SOL    HW117962  11.415   7.343   1.749
 5355SOL    HW217963  11.367   7.206   1.706
 5356SOL     OW17964  12.886   6.031   2.730
 5356SOL    HW117965  12.928   6.106   2.774
 5356SOL    HW217966  12.837   6.070   2.658
 5357SOL     OW17967  11.341   5.113  10.491
 5357SOL    HW117968  11.314   5.037  10.543
 5357SOL    HW217969  11.432   5.128  10.515
 5358SOL     OW17970   5.385   7.768   1.200
 5358SOL    HW117971   5.335   7.837   1.156
 5358SOL    HW217972   5.319   7.704   1.227
 5359SOL     OW17973   9.420   1.122  14.556
 5359SOL    HW117974   9.508   1.153  14.578
 5359SOL    HW217975   9.382   1.191  14.502
 5360SOL     OW17976   4.122  10.756   8.980
 5360SOL    HW117977   4.060  10.733   8.910
 5360SOL    HW217978   4.067  10.789   9.051
 5361SOL     OW17979   4.979   6.440   9.177
 5361SOL    HW117980   4.970   6.482   9.262
 5361SOL    HW217981   4.909   6.374   9.175
 5362SOL     OW17982   5.719   2.723  13.472
 5362SOL    HW117983   5.630   2.755  13.491
 5362SOL    HW217984   5.775   2.798  13.487
 5363SOL     OW17985   2.640  10.230  10.355
 5363SOL    HW117986   2.617  10.145  10.315
 5363SOL    HW217987   2.561  10.255  10.404
 5364SOL     OW17988  14.867   7.669   3.951
 5364SOL    HW117989   0.016   7.753   3.918
 5364SOL    HW217990   0.014   7.605   3.886
 5365SOL     OW17991   2.563   3.327  10.092
 5365SOL    HW117992   2.652   3.361  10.087
 5365SOL    HW217993   2.537   3.339  10.183
 5366SOL     OW17994   6.420  12.726  13.152
 5366SOL    HW117995   6.337  12.736  13.106
 5366SOL    HW217996   6.463  12.653  13.108
 5367SOL     OW17997   2.084   2.123   6.033
 5367SOL    HW117998   2.067   2.050   5.974
 5367SOL    HW217999   2.175   2.147   6.017
 5368SOL     OW18000  14.812   6.084   0.300
 5368SOL    HW118001  14.738   6.104   0.243
 5368SOL    HW218002  14.787   6.117   0.386
 5369SOL     OW18003  12.653  13.492   9.054
 5369SOL    HW118004  12.603  13.421   9.093
 5369SOL    HW218005  12.587  13.550   9.017
 5370SOL     OW18006   4.771   6.750  10.658
 5370SOL    HW118007   4.811   6.769  10.743
 5370SOL    HW218008   4.723   6.668  10.672
 5371SOL     OW18009   9.826   8.384   7.783
 5371SOL    HW118010   9.867   8.450   7.838
 5371SOL    HW218011   9.739   8.372   7.821
 5372SOL     OW18012   4.984   2.622   1.737
 5372SOL    HW118013   5.050   2.683   1.770
 5372SOL    HW218014   5.035   2.546   1.708
 5373SOL     OW18015  11.060   6.567   8.885
 5373SOL    HW118016  10.977   6.566   8.838
 5373SOL    HW218017  11.048   6.632   8.954
 5374SOL     OW18018   4.297   9.869   8.577
 5374SOL    HW118019   4.368   9.831   8.627
 5374SOL    HW218020   4.217   9.840   8.621
 5375SOL     OW18021   5.207  13.565   9.398
 5375SOL    HW118022   5.221  13.511   9.320
 5375SOL    HW218023   5.271  13.531   9.461
 5376SOL     OW18024   7.992   6.463  11.241
 5376SOL    HW118025   7.973   6.445  11.333
 5376SOL    HW218026   8.073   6.415  11.224
 5377SOL     OW18027   3.243   9.835  13.433
 5377SOL    HW118028   3.198   9.916  13.457
 5377SOL    HW218029   3.320   9.864  13.383
 5378SOL     OW18030  10.699   9.235   4.558
 5378SOL    HW118031  10.757   9.186   4.499
 5378SOL    HW218032  10.667   9.308   4.504
 5379SOL     OW18033   1.098  14.563  13.798
 5379SOL    HW118034   1.050  14.581  13.717
 5379SOL    HW218035   1.082  14.470  13.815
 5380SOL     OW18036  11.533  10.265   8.074
 5380SOL    HW118037  11.598  10.259   8.144
 5380SOL    HW218038  11.556  10.194   8.014
 5381SOL     OW18039  11.959  14.376   6.141
 5381SOL    HW118040  12.032  14.327   6.180
 5381SOL    HW218041  11.898  14.308   6.112
 5382SOL     OW18042   6.134   1.539   8.713
 5382SOL    HW118043   6.096   1.469   8.660
 5382SOL    HW218044   6.079   1.543   8.791
 5383SOL     OW18045  13.427   7.136  12.053
 5383SOL    HW118046  13.362   7.067  12.065
 5383SOL    HW218047  13.377   7.210  12.017
 5384SOL     OW18048  11.160  14.533   7.683
 5384SOL    HW118049  11.087  14.534   7.745
 5384SOL    HW218050  11.238  14.518   7.737
 5385SOL     OW18051   9.000   4.175   3.957
 5385SOL    HW118052   9.062   4.185   4.029
 5385SOL    HW218053   8.914   4.189   3.997
 5386SOL     OW18054  14.126   5.042   5.969
 5386SOL    HW118055  14.066   5.080   5.906
 5386SOL    HW218056  14.213   5.056   5.931
 5387SOL     OW18057  11.812  13.051  11.264
 5387SOL    HW118058  11.829  13.032  11.172
 5387SOL    HW218059  11.880  13.113  11.289
 5388SOL     OW18060   8.646   7.700   2.282
 5388SOL    HW118061   8.632   7.794   2.286
 5388SOL    HW218062   8.740   7.690   2.267
 5389SOL     OW18063   3.783   6.355   2.242
 5389SOL    HW118064   3.817   6.274   2.280
 5389SOL    HW218065   3.741   6.400   2.315
 5390SOL     OW18066   2.751   9.098  11.284
 5390SOL    HW118067   2.766   9.191  11.300
 5390SOL    HW218068   2.829   9.069  11.236
 5391SOL     OW18069   2.086  10.562  13.681
 5391SOL    HW118070   2.078  10.622  13.606
 5391SOL    HW218071   2.174  10.525  13.673
 5392SOL     OW18072  12.537   3.981   3.063
 5392SOL    HW118073  12.525   3.930   2.983
 5392SOL    HW218074  12.629   3.967   3.087
 5393SOL     OW18075   5.348   7.013   6.351
 5393SOL    HW118076   5.305   7.082   6.402
 5393SOL    HW218077   5.422   6.986   6.405
 5394SOL     OW18078  14.550   3.613   4.838
 5394SOL    HW118079  14.482   3.672   4.805
 5394SOL    HW218080  14.503   3.534   4.864
 5395SOL     OW18081  12.837  10.758   6.436
 5395SOL    HW118082  12.865  10.669   6.456
 5395SOL    HW218083  12.822  10.757   6.341
 5396SOL     OW18084   4.609   9.689  11.289
 5396SOL    HW118085   4.571   9.773  11.315
 5396SOL    HW218086   4.629   9.700  11.196
 5397SOL     OW18087   3.056   8.421   6.298
 5397SOL    HW118088   2.999   8.440   6.223
 5397SOL    HW218089   3.095   8.505   6.321
 5398SOL     OW18090   9.803   1.711   7.575
 5398SOL    HW118091   9.871   1.675   7.633
 5398SOL    HW218092   9.740   1.640   7.566
 5399SOL     OW18093   5.895  12.299   4.643
 5399SOL    HW118094   5.987  12.277   4.626
 5399SOL    HW218095   5.899  12.375   4.700
 5400SOL     OW18096   2.389   5.093  10.843
 5400SOL    HW118097   2.303   5.096  10.885
 5400SOL    HW218098   2.372   5.119  10.753
 5401SOL     OW18099   8.231   5.095   3.779
 5401SOL    HW118100   8.208   5.102   3.687
 5401SOL    HW218101   8.321   5.129   3.784
 5402SOL     OW18102  11.382   7.895   1.628
 5402SOL    HW118103  11.361   7.809   1.665
 5402SOL    HW218104  11.382   7.881   1.534
 5403SOL     OW18105   1.606   4.527  10.837
 5403SOL    HW118106   1.609   4.458  10.771
 5403SOL    HW218107   1.552   4.595  10.798
 5404SOL     OW18108  10.987   8.176   9.932
 5404SOL    HW118109  10.982   8.157  10.026
 5404SOL    HW218110  11.005   8.092   9.891
 5405SOL     OW18111  14.675   2.655  10.406
 5405SOL    HW118112  14.730   2.582  10.376
 5405SOL    HW218113  14.670   2.714  10.331
 5406SOL     OW18114  13.612   2.536  10.046
 5406SOL    HW118115  13.692   2.589  10.054
 5406SOL    HW218116  13.548   2.596  10.007
 5407SOL     OW18117   9.170   6.069   2.143
 5407SOL    HW118118   9.114   6.083   2.219
 5407SOL    HW218119   9.142   6.135   2.080
 5408SOL     OW18120   4.224   4.121   7.776
 5408SOL    HW118121   4.223   4.162   7.690
 5408SOL    HW218122   4.288   4.171   7.826
 5409SOL     OW18123   7.740   1.771  13.236
 5409SOL    HW118124   7.834   1.774  13.252
 5409SOL    HW218125   7.701   1.754  13.322
 5410SOL     OW18126   4.873  13.862  12.405
 5410SOL    HW118127   4.838  13.871  12.494
 5410SOL    HW218128   4.828  13.929  12.354
 5411SOL     OW18129   9.210   1.920   2.690
 5411SOL    HW118130   9.156   1.979   2.637
 5411SOL    HW218131   9.151   1.849   2.714
 5412SOL     OW18132   7.036   3.075  10.264
 5412SOL    HW118133   7.106   3.136  10.288
 5412SOL    HW218134   7.070   2.989  10.289
 5413SOL     OW18135   0.017  11.738   0.343
 5413SOL    HW118136   0.070  11.780   0.410
 5413SOL    HW218137  14.877  11.652   0.380
 5414SOL     OW18138   5.700   3.674   3.844
 5414SOL    HW118139   5.743   3.682   3.929
 5414SOL    HW218140   5.649   3.593   3.850
 5415SOL     OW18141   0.704   0.573  11.626
 5415SOL    HW118142   0.689   0.504  11.690
 5415SOL    HW218143   0.766   0.633  11.669
 5416SOL     OW18144   9.418  13.602   8.987
 5416SOL    HW118145   9.441  13.685   9.028
 5416SOL    HW218146   9.429  13.618   8.893
 5417SOL     OW18147   4.314   7.890  14.296
 5417SOL    HW118148   4.393   7.944  14.300
 5417SOL    HW218149   4.262   7.918  14.371
 5418SOL     OW18150  11.537   0.261  11.888
 5418SOL    HW118151  11.533   0.195  11.957
 5418SOL    HW218152  11.582   0.335  11.929
 5419SOL     OW18153   0.048   2.926   7.070
 5419SOL    HW118154   0.041   2.887   7.158
 5419SOL    HW218155  14.850   2.978   7.061
 5420SOL     OW18156   9.920   0.819   8.730
 5420SOL    HW118157   9.932   0.895   8.673
 5420SOL    HW218158   9.871   0.853   8.805
 5421SOL     OW18159   2.941  13.330   3.126
 5421SOL    HW118160   3.022  13.340   3.076
 5421SOL    HW218161   2.872  13.351   3.063
 5422SOL     OW18162   9.497   5.242  14.398
 5422SOL    HW118163   9.410   5.279  14.407
 5422SOL    HW218164   9.547   5.280  14.471
 5423SOL     OW18165   8.547  12.340   6.208
 5423SOL    HW118166   8.559  12.247   6.190
 5423SOL    HW218167   8.573  12.350   6.299
 5424SOL     OW18168   4.508   8.803  12.101
 5424SOL    HW118169   4.514   8.888  12.057
 5424SOL    HW218170   4.420   8.772  12.083
 5425SOL     OW18171   9.890   2.595   4.168
 5425SOL    HW118172   9.905   2.689   4.182
 5425SOL    HW218173   9.869   2.589   4.074
 5426SOL     OW18174  13.531   3.338   3.430
 5426SOL    HW118175  13.603   3.345   3.366
 5426SOL    HW218176  13.459   3.299   3.380
 5427SOL     OW18177   8.229  11.275   3.036
 5427SOL    HW118178   8.216  11.367   3.059
 5427SOL    HW218179   8.311  11.273   2.987
 5428SOL     OW18180   3.834   7.888   0.755
 5428SOL    HW118181   3.891   7.824   0.798
 5428SOL    HW218182   3.747   7.871   0.790
 5429SOL     OW18183   1.793  11.669   0.757
 5429SOL    HW118184   1.792  11.691   0.663
 5429SOL    HW218185   1.809  11.575   0.759
 5430SOL     OW18186   4.062   8.346   8.117
 5430SOL    HW118187   4.077   8.433   8.154
 5430SOL    HW218188   4.014   8.299   8.186
 5431SOL     OW18189   7.437   8.633  12.242
 5431SOL    HW118190   7.439   8.643  12.337
 5431SOL    HW218191   7.375   8.700  12.212
 5432SOL     OW18192   3.307   9.705   6.575
 5432SOL    HW118193   3.386   9.750   6.546
 5432SOL    HW218194   3.316   9.698   6.670
 5433SOL     OW18195  14.780   1.874  10.251
 5433SOL    HW118196  14.764   1.904  10.341
 5433SOL    HW218197  14.851   1.930  10.220
 5434SOL     OW18198   4.428  12.029   1.298
 5434SOL    HW118199   4.451  11.936   1.301
 5434SOL    HW218200   4.513  12.074   1.302
 5435SOL     OW18201   1.396   1.046  10.568
 5435SOL    HW118202   1.363   1.039  10.479
 5435SOL    HW218203   1.451   1.125  10.567
 5436SOL     OW18204   0.861   1.446   2.022
 5436SOL    HW118205   0.878   1.443   2.116
 5436SOL    HW218206   0.837   1.356   1.999
 5437SOL     OW18207   8.883   4.678   6.356
 5437SOL    HW118208   8.961   4.724   6.389
 5437SOL    HW218209   8.812   4.709   6.412
 5438SOL     OW18210  10.021  12.869   5.286
 5438SOL    HW118211   9.941  12.922   5.280
 5438SOL    HW218212  10.092  12.933   5.295
 5439SOL     OW18213   3.517   3.358   4.101
 5439SOL    HW118214   3.555   3.271   4.084
 5439SOL    HW218215   3.592   3.417   4.097
 5440SOL     OW18216   7.654   0.194   9.398
 5440SOL    HW118217   7.741   0.194   9.356
 5440SOL    HW218218   7.648   0.279   9.441
 5441SOL     OW18219   1.315   5.771  10.573
 5441SOL    HW118220   1.392   5.769  10.631
 5441SOL    HW218221   1.254   5.831  10.617
 5442SOL     OW18222   8.824   8.340   6.607
 5442SOL    HW118223   8.763   8.413   6.598
 5442SOL    HW218224   8.782   8.282   6.670
 5443SOL     OW18225  14.502   9.627   1.691
 5443SOL    HW118226  14.525   9.609   1.782
 5443SOL    HW218227  14.532   9.717   1.677
 5444SOL     OW18228   4.104   3.083  11.242
 5444SOL    HW118229   4.107   2.998  11.286
 5444SOL    HW218230   4.109   3.147  11.313
 5445SOL     OW18231  13.526   3.230   4.001
 5445SOL    HW118232  13.482   3.261   3.921
 5445SOL    HW218233  13.608   3.191   3.969
 5446SOL     OW18234   5.234  10.021   8.987
 5446SOL    HW118235   5.289  10.003   8.911
 5446SOL    HW218236   5.164   9.956   8.981
 5447SOL     OW18237   3.059   1.402  13.067
 5447SOL    HW118238   3.130   1.389  13.004
 5447SOL    HW218239   2.979   1.389  13.016
 5448SOL     OW18240   0.972  11.653   2.477
 5448SOL    HW118241   0.957  11.735   2.525
 5448SOL    HW218242   0.902  11.650   2.412
 5449SOL     OW18243  13.847   2.049  11.057
 5449SOL    HW118244  13.857   2.117  11.123
 5449SOL    HW218245  13.800   2.092  10.985
 5450SOL     OW18246   9.264   6.353  14.259
 5450SOL    HW118247   9.252   6.352  14.164
 5450SOL    HW218248   9.269   6.445  14.282
 5451SOL     OW18249   8.226   5.291   5.626
 5451SOL    HW118250   8.233   5.239   5.546
 5451SOL    HW218251   8.133   5.314   5.631
 5452SOL     OW18252  12.403  10.644   3.433
 5452SOL    HW118253  12.331  10.581   3.424
 5452SOL    HW218254  12.469  10.598   3.484
 5453SOL     OW18255  14.035   6.957   8.374
 5453SOL    HW118256  14.074   7.028   8.322
 5453SOL    HW218257  14.021   6.995   8.460
 5454SOL     OW18258   1.963   3.440   6.290
 5454SOL    HW118259   1.907   3.367   6.263
 5454SOL    HW218260   1.930   3.465   6.376
 5455SOL     OW18261   7.028   2.942   7.936
 5455SOL    HW118262   7.045   3.031   7.966
 5455SOL    HW218263   6.951   2.951   7.879
 5456SOL     OW18264  13.641   0.308   5.024
 5456SOL    HW118265  13.733   0.281   5.024
 5456SOL    HW218266  13.640   0.395   5.062
 5457SOL     OW18267   5.092   8.379   2.962
 5457SOL    HW118268   5.097   8.447   3.029
 5457SOL    HW218269   5.178   8.337   2.964
 5458SOL     OW18270   8.667  12.244   0.269
 5458SOL    HW118271   8.674  12.291   0.352
 5458SOL    HW218272   8.756  12.211   0.252
 5459SOL     OW18273   4.613  14.523   6.222
 5459SOL    HW118274   4.699  14.482   6.228
 5459SOL    HW218275   4.572  14.506   6.307
 5460SOL     OW18276   0.336  10.352  13.013
 5460SOL    HW118277   0.269  10.420  13.021
 5460SOL    HW218278   0.298  10.288  12.953
 5461SOL     OW18279  13.582   2.951  11.627
 5461SOL    HW118280  13.502   2.900  11.640
 5461SOL    HW218281  13.577   3.020  11.693
 5462SOL     OW18282   7.219   9.568   0.103
 5462SOL    HW118283   7.304   9.607   0.084
 5462SOL    HW218284   7.159   9.607   0.040
 5463SOL     OW18285   5.854   5.308   9.723
 5463SOL    HW118286   5.837   5.221   9.687
 5463SOL    HW218287   5.769   5.340   9.750
 5464SOL     OW18288   8.783   9.556   3.232
 5464SOL    HW118289   8.782   9.514   3.318
 5464SOL    HW218290   8.867   9.602   3.229
 5465SOL     OW18291  14.229   8.692   8.284
 5465SOL    HW118292  14.159   8.669   8.223
 5465SOL    HW218293  14.190   8.759   8.340
 5466SOL     OW18294   0.918   7.284   5.345
 5466SOL    HW118295   1.003   7.285   5.388
 5466SOL    HW218296   0.921   7.358   5.284
 5467SOL     OW18297   1.543  10.069   2.039
 5467SOL    HW118298   1.568  10.161   2.031
 5467SOL    HW218299   1.513  10.060   2.130
 5468SOL     OW18300   3.956   6.751   4.144
 5468SOL    HW118301   3.998   6.826   4.186
 5468SOL    HW218302   4.025   6.684   4.142
 5469SOL     OW18303   3.218   1.181   2.659
 5469SOL    HW118304   3.255   1.094   2.647
 5469SOL    HW218305   3.124   1.167   2.663
 5470SOL     OW18306  13.705   0.544   3.580
 5470SOL    HW118307  13.618   0.533   3.619
 5470SOL    HW218308  13.751   0.603   3.639
 5471SOL     OW18309   1.569   2.461   9.402
 5471SOL    HW118310   1.635   2.395   9.380
 5471SOL    HW218311   1.617   2.525   9.455
 5472SOL     OW18312   8.755   8.975   4.636
 5472SOL    HW118313   8.790   8.888   4.656
 5472SOL    HW218314   8.788   9.031   4.706
 5473SOL     OW18315   6.960  12.914  12.055
 5473SOL    HW118316   6.915  12.998  12.045
 5473SOL    HW218317   7.031  12.918  11.992
 5474SOL     OW18318   1.896   2.307   9.850
 5474SOL    HW118319   1.936   2.274   9.769
 5474SOL    HW218320   1.953   2.276   9.920
 5475SOL     OW18321   6.227   1.632  13.404
 5475SOL    HW118322   6.298   1.571  13.423
 5475SOL    HW218323   6.264   1.693  13.341
 5476SOL     OW18324   2.939  10.803   7.145
 5476SOL    HW118325   3.027  10.840   7.152
 5476SOL    HW218326   2.952  10.708   7.149
 5477SOL     OW18327   3.939   4.373  13.239
 5477SOL    HW118328   3.977   4.456  13.214
 5477SOL    HW218329   3.947   4.318  13.161
 5478SOL     OW18330   5.339   3.403   4.455
 5478SOL    HW118331   5.263   3.448   4.492
 5478SOL    HW218332   5.361   3.454   4.377
 5479SOL     OW18333   8.597   5.677   4.417
 5479SOL    HW118334   8.638   5.611   4.473
 5479SOL    HW218335   8.505   5.652   4.415
 5480SOL     OW18336   8.996   1.965   1.714
 5480SOL    HW118337   8.928   1.900   1.728
 5480SOL    HW218338   9.009   2.005   1.800
 5481SOL     OW18339   6.659   7.417   1.793
 5481SOL    HW118340   6.685   7.327   1.773
 5481SOL    HW218341   6.702   7.436   1.876
 5482SOL     OW18342  11.234   5.498  12.478
 5482SOL    HW118343  11.322   5.534  12.485
 5482SOL    HW218344  11.195   5.512  12.564
 5483SOL     OW18345   8.931   1.606   7.572
 5483SOL    HW118346   9.020   1.628   7.599
 5483SOL    HW218347   8.885   1.587   7.653
 5484SOL     OW18348   0.137  10.673  12.985
 5484SOL    HW118349   0.087  10.619  13.047
 5484SOL    HW218350   0.099  10.652  12.899
 5485SOL     OW18351   1.283   2.908  10.225
 5485SOL    HW118352   1.360   2.887  10.278
 5485SOL    HW218353   1.244   2.984  10.268
 5486SOL     OW18354   4.541  14.837   3.870
 5486SOL    HW118355   4.621  14.835   3.817
 5486SOL    HW218356   4.491  14.761   3.840
 5487SOL     OW18357  11.267   4.237   9.375
 5487SOL    HW118358  11.246   4.149   9.407
 5487SOL    HW218359  11.362   4.243   9.381
 5488SOL     OW18360   7.241  10.947   4.033
 5488SOL    HW118361   7.274  10.978   4.118
 5488SOL    HW218362   7.242  10.851   4.040
 5489SOL     OW18363   6.335   4.851  10.163
 5489SOL    HW118364   6.418   4.874  10.122
 5489SOL    HW218365   6.334   4.755  10.162
 5490SOL     OW18366   3.842  10.858  10.894
 5490SOL    HW118367   3.832  10.849  10.989
 5490SOL    HW218368   3.932  10.832  10.877
 5491SOL     OW18369   2.458   3.482   2.714
 5491SOL    HW118370   2.448   3.514   2.624
 5491SOL    HW218371   2.537   3.428   2.710
 5492SOL     OW18372  13.230   0.505   2.779
 5492SOL    HW118373  13.218   0.410   2.783
 5492SOL    HW218374  13.319   0.517   2.746
 5493SOL     OW18375   3.506   6.011   3.562
 5493SOL    HW118376   3.456   5.931   3.573
 5493SOL    HW218377   3.543   6.005   3.474
 5494SOL     OW18378   6.702  12.562  14.764
 5494SOL    HW118379   6.794  12.535  14.754
 5494SOL    HW218380   6.663  12.545  14.679
 5495SOL     OW18381   1.096  14.717   3.319
 5495SOL    HW118382   1.014  14.741   3.277
 5495SOL    HW218383   1.127  14.798   3.360
 5496SOL     OW18384   4.945  12.632  12.701
 5496SOL    HW118385   4.893  12.551  12.700
 5496SOL    HW218386   4.883  12.701  12.678
 5497SOL     OW18387   1.674   0.942  13.654
 5497SOL    HW118388   1.622   0.947  13.574
 5497SOL    HW218389   1.640   1.014  13.709
 5498SOL     OW18390  10.005   1.032  14.756
 5498SOL    HW118391   9.932   1.075  14.800
 5498SOL    HW218392   9.964   0.961  14.706
 5499SOL     OW18393  13.833  11.729   6.918
 5499SOL    HW118394  13.833  11.698   6.828
 5499SOL    HW218395  13.771  11.802   6.918
 5500SOL     OW18396   5.348  13.149   5.809
 5500SOL    HW118397   5.308  13.161   5.895
 5500SOL    HW218398   5.436  13.185   5.818
 5501SOL     OW18399  10.615   8.860   3.766
 5501SOL    HW118400  10.638   8.952   3.778
 5501SOL    HW218401  10.656   8.836   3.683
 5502SOL     OW18402  14.603   3.064  10.801
 5502SOL    HW118403  14.691   3.062  10.765
 5502SOL    HW218404  14.601   3.139  10.859
 5503SOL     OW18405   9.422  10.709   0.882
 5503SOL    HW118406   9.403  10.617   0.860
 5503SOL    HW218407   9.398  10.758   0.803
 5504SOL     OW18408  14.438  13.577  11.395
 5504SOL    HW118409  14.462  13.500  11.344
 5504SOL    HW218410  14.480  13.651  11.350
 5505SOL     OW18411   7.402   4.588  13.670
 5505SOL    HW118412   7.413   4.493  13.677
 5505SOL    HW218413   7.360   4.601  13.585
 5506SOL     OW18414   3.894   5.933   0.079
 5506SOL    HW118415   3.822   5.870   0.086
 5506SOL    HW218416   3.902   5.971   0.167
 5507SOL     OW18417   9.822   2.710   1.847
 5507SOL    HW118418   9.827   2.659   1.766
 5507SOL    HW218419   9.831   2.645   1.917
 5508SOL     OW18420   3.121  13.438   6.437
 5508SOL    HW118421   3.215  13.451   6.425
 5508SOL    HW218422   3.097  13.498   6.508
 5509SOL     OW18423  14.074   5.289   9.278
 5509SOL    HW118424  14.111   5.245   9.355
 5509SOL    HW218425  13.980   5.269   9.282
 5510SOL     OW18426   9.240   0.516  10.266
 5510SOL    HW118427   9.268   0.425  10.268
 5510SOL    HW218428   9.318   0.566  10.289
 5511SOL     OW18429   3.477  13.413   9.622
 5511SOL    HW118430   3.472  13.391   9.715
 5511SOL    HW218431   3.567  13.391   9.597
 5512SOL     OW18432  13.427  14.575   4.546
 5512SOL    HW118433  13.469  14.489   4.543
 5512SOL    HW218434  13.467  14.619   4.620
 5513SOL     OW18435   8.325  14.698  12.051
 5513SOL    HW118436   8.414  14.723  12.027
 5513SOL    HW218437   8.280  14.686  11.968
 5514SOL     OW18438  10.699  14.139   9.393
 5514SOL    HW118439  10.622  14.196   9.385
 5514SOL    HW218440  10.746  14.173   9.469
 5515SOL     OW18441   7.794   4.171  11.829
 5515SOL    HW118442   7.846   4.090  11.828
 5515SOL    HW218443   7.734   4.161  11.755
 5516SOL     OW18444   0.597  11.165   2.441
 5516SOL    HW118445   0.671  11.193   2.494
 5516SOL    HW218446   0.607  11.071   2.434
 5517SOL     OW18447   0.198   4.998   1.588
 5517SOL    HW118448   0.283   5.040   1.583
 5517SOL    HW218449   0.213   4.908   1.560
 5518SOL     OW18450   4.604  12.438   2.252
 5518SOL    HW118451   4.517  12.477   2.262
 5518SOL    HW218452   4.661  12.512   2.230
 5519SOL     OW18453  10.443   0.389   5.155
 5519SOL    HW118454  10.530   0.419   5.182
 5519SOL    HW218455  10.445   0.393   5.059
 5520SOL     OW18456   8.770   7.128   3.294
 5520SOL    HW118457   8.696   7.071   3.273
 5520SOL    HW218458   8.731   7.202   3.341
 5521SOL     OW18459   2.045   9.260   1.421
 5521SOL    HW118460   2.109   9.194   1.395
 5521SOL    HW218461   2.007   9.292   1.339
 5522SOL     OW18462   7.511   6.901   3.326
 5522SOL    HW118463   7.540   6.991   3.342
 5522SOL    HW218464   7.521   6.857   3.411
 5523SOL     OW18465  13.074   1.082   3.749
 5523SOL    HW118466  12.979   1.096   3.740
 5523SOL    HW218467  13.099   1.140   3.820
 5524SOL     OW18468   1.975   9.619   4.564
 5524SOL    HW118469   1.958   9.672   4.642
 5524SOL    HW218470   1.947   9.531   4.587
 5525SOL     OW18471   8.121   7.693   5.478
 5525SOL    HW118472   8.147   7.675   5.387
 5525SOL    HW218473   8.156   7.620   5.528
 5526SOL     OW18474  14.437   5.906  14.794
 5526SOL    HW118475  14.348   5.928  14.822
 5526SOL    HW218476  14.460   5.829  14.847
 5527SOL     OW18477   4.939   3.453   6.973
 5527SOL    HW118478   4.860   3.469   7.024
 5527SOL    HW218479   5.007   3.504   7.017
 5528SOL     OW18480   4.109   6.741   3.860
 5528SOL    HW118481   4.098   6.815   3.920
 5528SOL    HW218482   4.132   6.667   3.916
 5529SOL     OW18483   3.675   2.502   2.583
 5529SOL    HW118484   3.730   2.492   2.661
 5529SOL    HW218485   3.692   2.591   2.553
 5530SOL     OW18486   5.857   1.706  10.979
 5530SOL    HW118487   5.763   1.690  10.991
 5530SOL    HW218488   5.884   1.644  10.912
 5531SOL     OW18489   5.022  12.279   8.991
 5531SOL    HW118490   4.952  12.283   9.056
 5531SOL    HW218491   5.103  12.280   9.042
 5532SOL     OW18492  10.829  14.642   6.223
 5532SOL    HW118493  10.921  14.656   6.203
 5532SOL    HW218494  10.800  14.724   6.262
 5533SOL     OW18495   4.600   6.947   7.544
 5533SOL    HW118496   4.524   6.969   7.599
 5533SOL    HW218497   4.630   7.031   7.510
 5534SOL     OW18498  11.427   5.166   2.715
 5534SOL    HW118499  11.331   5.167   2.713
 5534SOL    HW218500  11.452   5.091   2.661
 5535SOL     OW18501   1.154   2.211   7.056
 5535SOL    HW118502   1.063   2.183   7.057
 5535SOL    HW218503   1.196   2.157   7.123
 5536SOL     OW18504   3.002   6.102  14.201
 5536SOL    HW118505   3.070   6.041  14.170
 5536SOL    HW218506   3.023   6.184  14.156
 5537SOL     OW18507   3.284   3.768   5.862
 5537SOL    HW118508   3.300   3.758   5.956
 5537SOL    HW218509   3.308   3.683   5.824
 5538SOL     OW18510   2.821   0.674   3.825
 5538SOL    HW118511   2.778   0.689   3.741
 5538SOL    HW218512   2.891   0.612   3.805
 5539SOL     OW18513  13.652   7.121   7.722
 5539SOL    HW118514  13.607   7.203   7.702
 5539SOL    HW218515  13.603   7.083   7.795
 5540SOL     OW18516   0.983   4.860   7.506
 5540SOL    HW118517   1.009   4.888   7.594
 5540SOL    HW218518   0.999   4.765   7.506
 5541SOL     OW18519  11.355   3.714  12.302
 5541SOL    HW118520  11.414   3.787  12.320
 5541SOL    HW218521  11.297   3.711  12.379
 5542SOL     OW18522   4.957   5.074  14.795
 5542SOL    HW118523   4.971   5.111  14.708
 5542SOL    HW218524   4.862   5.071  14.805
 5543SOL     OW18525   1.231   5.144   0.711
 5543SOL    HW118526   1.164   5.078   0.732
 5543SOL    HW218527   1.287   5.101   0.647
 5544SOL     OW18528  13.640   8.975   4.848
 5544SOL    HW118529  13.586   8.896   4.844
 5544SOL    HW218530  13.685   8.977   4.763
 5545SOL     OW18531   5.898  14.763   7.203
 5545SOL    HW118532   5.917  14.767   7.297
 5545SOL    HW218533   5.897  14.855   7.175
 5546SOL     OW18534   4.886   5.012   3.145
 5546SOL    HW118535   4.834   4.932   3.138
 5546SOL    HW218536   4.823   5.079   3.173
 5547SOL     OW18537  12.126  13.652  13.755
 5547SOL    HW118538  12.140  13.600  13.676
 5547SOL    HW218539  12.032  13.648  13.771
 5548SOL     OW18540   5.795  13.709  13.254
 5548SOL    HW118541   5.772  13.722  13.162
 5548SOL    HW218542   5.886  13.680  13.253
 5549SOL     OW18543   0.371  13.511   9.942
 5549SOL    HW118544   0.290  13.464   9.923
 5549SOL    HW218545   0.404  13.539   9.856
 5550SOL     OW18546   2.211   5.330   1.745
 5550SOL    HW118547   2.285   5.308   1.802
 5550SOL    HW218548   2.164   5.398   1.793
 5551SOL     OW18549   0.637  10.540  11.761
 5551SOL    HW118550   0.597  10.476  11.701
 5551SOL    HW218551   0.642  10.494  11.845
 5552SOL     OW18552   4.115   1.690   1.502
 5552SOL    HW118553   4.124   1.719   1.411
 5552SOL    HW218554   4.194   1.639   1.519
 5553SOL     OW18555  13.642   2.790   5.257
 5553SOL    HW118556  13.660   2.703   5.222
 5553SOL    HW218557  13.550   2.806   5.234
 5554SOL     OW18558  11.066  11.598   4.520
 5554SOL    HW118559  11.054  11.693   4.513
 5554SOL    HW218560  11.047  11.565   4.433
 5555SOL     OW18561   0.762   0.255   8.214
 5555SOL    HW118562   0.849   0.273   8.247
 5555SOL    HW218563   0.775   0.235   8.121
 5556SOL     OW18564   8.689  11.133   4.422
 5556SOL    HW118565   8.653  11.172   4.502
 5556SOL    HW218566   8.661  11.041   4.426
 5557SOL     OW18567  12.269  11.853   6.200
 5557SOL    HW118568  12.183  11.849   6.242
 5557SOL    HW218569  12.299  11.762   6.198
 5558SOL     OW18570   1.661  14.015   0.290
 5558SOL    HW118571   1.599  14.082   0.318
 5558SOL    HW218572   1.623  13.980   0.209
 5559SOL     OW18573  14.770   7.550  11.036
 5559SOL    HW118574  14.737   7.461  11.022
 5559SOL    HW218575  14.708   7.589  11.098
 5560SOL     OW18576   8.252   0.834   0.568
 5560SOL    HW118577   8.216   0.754   0.605
 5560SOL    HW218578   8.323   0.859   0.627
 5561SOL     OW18579  14.459   0.537   6.052
 5561SOL    HW118580  14.477   0.506   6.141
 5561SOL    HW218581  14.396   0.475   6.016
 5562SOL     OW18582   5.198   0.622   8.930
 5562SOL    HW118583   5.103   0.619   8.940
 5562SOL    HW218584   5.228   0.663   9.011
 5563SOL     OW18585   6.022   0.138   4.577
 5563SOL    HW118586   5.935   0.177   4.583
 5563SOL    HW218587   6.009   0.056   4.529
 5564SOL     OW18588   9.761   1.506  12.251
 5564SOL    HW118589   9.692   1.556  12.207
 5564SOL    HW218590   9.823   1.485  12.182
 5565SOL     OW18591   9.926   4.098   1.763
 5565SOL    HW118592   9.920   4.167   1.697
 5565SOL    HW218593   9.856   4.118   1.825
 5566SOL     OW18594   4.939   2.319   3.692
 5566SOL    HW118595   4.915   2.248   3.632
 5566SOL    HW218596   4.856   2.352   3.724
 5567SOL     OW18597   8.872   2.293  11.225
 5567SOL    HW118598   8.891   2.283  11.319
 5567SOL    HW218599   8.949   2.256  11.182
 5568SOL     OW18600   3.419   2.880  14.597
 5568SOL    HW118601   3.329   2.848  14.604
 5568SOL    HW218602   3.436   2.884  14.503
 5569SOL     OW18603   7.767   8.679   7.013
 5569SOL    HW118604   7.704   8.663   6.943
 5569SOL    HW218605   7.750   8.769   7.041
 5570SOL     OW18606   5.984  13.642   8.386
 5570SOL    HW118607   5.906  13.594   8.357
 5570SOL    HW218608   5.949  13.720   8.430
 5571SOL     OW18609   8.109   4.287   9.628
 5571SOL    HW118610   8.042   4.227   9.597
 5571SOL    HW218611   8.165   4.302   9.552
 5572SOL     OW18612   7.635   8.935   2.475
 5572SOL    HW118613   7.572   8.893   2.417
 5572SOL    HW218614   7.714   8.947   2.421
 5573SOL     OW18615  12.298   4.551   5.358
 5573SOL    HW118616  12.288   4.642   5.330
 5573SOL    HW218617  12.282   4.554   5.453
 5574SOL     OW18618  12.497   3.473   2.546
 5574SOL    HW118619  12.567   3.529   2.581
 5574SOL    HW218620  12.541   3.419   2.480
 5575SOL     OW18621  11.864  10.311  14.198
 5575SOL    HW118622  11.879  10.254  14.123
 5575SOL    HW218623  11.951  10.343  14.222
 5576SOL     OW18624  11.205   1.022  10.496
 5576SOL    HW118625  11.254   1.065  10.566
 5576SOL    HW218626  11.116   1.053  10.507
 5577SOL     OW18627  10.667   8.241   5.233
 5577SOL    HW118628  10.740   8.252   5.294
 5577SOL    HW218629  10.651   8.147   5.232
 5578SOL     OW18630   2.701  12.885   3.349
 5578SOL    HW118631   2.680  12.951   3.283
 5578SOL    HW218632   2.621  12.877   3.401
 5579SOL     OW18633  11.235   2.253  10.646
 5579SOL    HW118634  11.322   2.291  10.659
 5579SOL    HW218635  11.175   2.315  10.690
 5580SOL     OW18636  13.750   8.688  11.973
 5580SOL    HW118637  13.831   8.738  11.965
 5580SOL    HW218638  13.743   8.667  12.066
 5581SOL     OW18639   3.699  10.919   1.596
 5581SOL    HW118640   3.704  11.014   1.584
 5581SOL    HW218641   3.739  10.883   1.517
 5582SOL     OW18642   4.460   6.696   1.808
 5582SOL    HW118643   4.555   6.699   1.818
 5582SOL    HW218644   4.428   6.661   1.891
 5583SOL     OW18645   5.367   2.444   5.181
 5583SOL    HW118646   5.380   2.498   5.103
 5583SOL    HW218647   5.296   2.384   5.158
 5584SOL     OW18648   1.185   5.438   0.809
 5584SOL    HW118649   1.201   5.343   0.810
 5584SOL    HW218650   1.091   5.446   0.797
 5585SOL     OW18651   0.548   5.390   0.796
 5585SOL    HW118652   0.568   5.319   0.734
 5585SOL    HW218653   0.633   5.413   0.833
 5586SOL     OW18654  14.654  13.286  10.972
 5586SOL    HW118655  14.738  13.270  10.928
 5586SOL    HW218656  14.608  13.346  10.914
 5587SOL     OW18657   9.396   1.112   8.658
 5587SOL    HW118658   9.355   1.171   8.721
 5587SOL    HW218659   9.466   1.069   8.707
 5588SOL     OW18660  12.210  10.702   4.004
 5588SOL    HW118661  12.188  10.752   4.082
 5588SOL    HW218662  12.300  10.672   4.018
 5589SOL     OW18663   0.298   3.107  10.376
 5589SOL    HW118664   0.325   3.052  10.303
 5589SOL    HW218665   0.355   3.081  10.448
 5590SOL     OW18666  14.336   3.107   7.935
 5590SOL    HW118667  14.357   3.188   7.888
 5590SOL    HW218668  14.255   3.076   7.893
 5591SOL     OW18669   0.690   7.158   8.435
 5591SOL    HW118670   0.697   7.065   8.457
 5591SOL    HW218671   0.602   7.183   8.464
 5592SOL     OW18672  14.613  12.044  13.121
 5592SOL    HW118673  14.615  12.132  13.083
 5592SOL    HW218674  14.697  12.036  13.167
 5593SOL     OW18675   2.913   9.486  13.926
 5593SOL    HW118676   2.998   9.448  13.900
 5593SOL    HW218677   2.925   9.580  13.915
 5594SOL     OW18678   2.029  12.943   1.534
 5594SOL    HW118679   1.944  12.948   1.576
 5594SOL    HW218680   2.053  12.851   1.538
 5595SOL     OW18681   3.310   7.455  12.645
 5595SOL    HW118682   3.346   7.379  12.599
 5595SOL    HW218683   3.230   7.476  12.598
 5596SOL     OW18684   7.101   8.350  13.645
 5596SOL    HW118685   7.088   8.441  13.617
 5596SOL    HW218686   7.164   8.355  13.717
 5597SOL     OW18687  12.356   7.396   9.639
 5597SOL    HW118688  12.281   7.407   9.581
 5597SOL    HW218689  12.365   7.301   9.649
 5598SOL     OW18690  10.376   6.865   5.405
 5598SOL    HW118691  10.324   6.798   5.361
 5598SOL    HW218692  10.340   6.948   5.375
 5599SOL     OW18693   3.991   1.471   5.605
 5599SOL    HW118694   3.897   1.485   5.598
 5599SOL    HW218695   4.024   1.551   5.646
 5600SOL     OW18696  13.575   7.952  12.333
 5600SOL    HW118697  13.500   8.008  12.351
 5600SOL    HW218698  13.540   7.883  12.277
 5601SOL     OW18699   9.882   5.245  11.299
 5601SOL    HW118700   9.886   5.255  11.394
 5601SOL    HW218701   9.854   5.155  11.285
 5602SOL     OW18702   7.796   3.877   9.462
 5602SOL    HW118703   7.781   3.830   9.380
 5602SOL    HW218704   7.712   3.876   9.507
 5603SOL     OW18705   7.749   0.865   2.104
 5603SOL    HW118706   7.801   0.786   2.120
 5603SOL    HW218707   7.728   0.861   2.010
 5604SOL     OW18708   7.658  13.122   6.439
 5604SOL    HW118709   7.673  13.027   6.445
 5604SOL    HW218710   7.738  13.161   6.474
 5605SOL     OW18711   4.441  13.686  10.005
 5605SOL    HW118712   4.401  13.749  10.065
 5605SOL    HW218713   4.532  13.679  10.033
 5606SOL     OW18714  10.407   9.343   4.897
 5606SOL    HW118715  10.418   9.331   4.803
 5606SOL    HW218716  10.313   9.332   4.911
 5607SOL     OW18717   4.361  14.878  11.958
 5607SOL    HW118718   4.301  14.861  12.030
 5607SOL    HW218719   4.376   0.090  11.960
 5608SOL     OW18720  13.828   8.997   5.070
 5608SOL    HW118721  13.744   9.035   5.097
 5608SOL    HW218722  13.808   8.947   4.991
 5609SOL     OW18723   1.113  12.073  13.370
 5609SOL    HW118724   1.050  12.114  13.428
 5609SOL    HW218725   1.180  12.140  13.355
 5610SOL     OW18726   2.617  13.275  11.786
 5610SOL    HW118727   2.650  13.207  11.845
 5610SOL    HW218728   2.531  13.243  11.758
 5611SOL     OW18729  13.545   7.878   6.941
 5611SOL    HW118730  13.604   7.808   6.912
 5611SOL    HW218731  13.602   7.939   6.988
 5612SOL     OW18732   3.677   2.855   7.568
 5612SOL    HW118733   3.691   2.885   7.478
 5612SOL    HW218734   3.585   2.829   7.571
 5613SOL     OW18735   5.940  11.578   6.749
 5613SOL    HW118736   5.882  11.537   6.813
 5613SOL    HW218737   6.009  11.513   6.734
 5614SOL     OW18738   3.371  10.051   5.661
 5614SOL    HW118739   3.412  10.124   5.708
 5614SOL    HW218740   3.299  10.090   5.613
 5615SOL     OW18741   2.148   3.551   6.126
 5615SOL    HW118742   2.202   3.487   6.080
 5615SOL    HW218743   2.105   3.501   6.195
 5616SOL     OW18744   2.475   0.316  10.548
 5616SOL    HW118745   2.401   0.360  10.506
 5616SOL    HW218746   2.459   0.223  10.534
 5617SOL     OW18747   9.452   7.540  11.565
 5617SOL    HW118748   9.362   7.513  11.583
 5617SOL    HW218749   9.501   7.458  11.564
 5618SOL     OW18750   7.179   4.360  12.409
 5618SOL    HW118751   7.222   4.307  12.341
 5618SOL    HW218752   7.148   4.295  12.473
 5619SOL     OW18753  13.085  14.733   8.051
 5619SOL    HW118754  13.154  14.732   8.117
 5619SOL    HW218755  13.019  14.793   8.085
 5620SOL     OW18756   9.916   1.594   8.752
 5620SOL    HW118757   9.965   1.674   8.769
 5620SOL    HW218758   9.837   1.602   8.806
 5621SOL     OW18759  12.265  12.120  13.322
 5621SOL    HW118760  12.277  12.026  13.316
 5621SOL    HW218761  12.175  12.131  13.353
 5622SOL     OW18762  10.567  13.339   0.734
 5622SOL    HW118763  10.509  13.297   0.670
 5622SOL    HW218764  10.647  13.358   0.686
 5623SOL     OW18765   1.265   3.547   3.336
 5623SOL    HW118766   1.264   3.551   3.240
 5623SOL    HW218767   1.305   3.629   3.364
 5624SOL     OW18768   1.740   3.461   9.316
 5624SOL    HW118769   1.744   3.385   9.375
 5624SOL    HW218770   1.729   3.422   9.229
 5625SOL     OW18771  14.657   7.452  12.619
 5625SOL    HW118772  14.650   7.427  12.527
 5625SOL    HW218773  14.737   7.410  12.650
 5626SOL     OW18774  14.815   4.742   2.668
 5626SOL    HW118775  14.781   4.747   2.757
 5626SOL    HW218776   0.004   4.678   2.673
 5627SOL     OW18777   5.457   8.396   5.679
 5627SOL    HW118778   5.435   8.303   5.686
 5627SOL    HW218779   5.459   8.427   5.770
 5628SOL     OW18780   1.661   6.831  12.052
 5628SOL    HW118781   1.733   6.891  12.033
 5628SOL    HW218782   1.613   6.824  11.970
 5629SOL     OW18783   2.442   6.289   4.122
 5629SOL    HW118784   2.506   6.274   4.053
 5629SOL    HW218785   2.380   6.351   4.083
 5630SOL     OW18786  12.597  10.399   3.156
 5630SOL    HW118787  12.592  10.361   3.068
 5630SOL    HW218788  12.524  10.461   3.159
 5631SOL     OW18789  12.899   3.790   2.347
 5631SOL    HW118790  12.974   3.825   2.298
 5631SOL    HW218791  12.931   3.781   2.437
 5632SOL     OW18792   1.230   2.089   4.147
 5632SOL    HW118793   1.195   2.009   4.108
 5632SOL    HW218794   1.316   2.100   4.108
 5633SOL     OW18795   2.126   0.907   0.217
 5633SOL    HW118796   2.128   0.917   0.122
 5633SOL    HW218797   2.074   0.828   0.232
 5634SOL     OW18798   0.322   5.990   8.937
 5634SOL    HW118799   0.372   5.915   8.969
 5634SOL    HW218800   0.318   6.050   9.012
 5635SOL     OW18801  11.948   6.882   5.680
 5635SOL    HW118802  11.902   6.874   5.763
 5635SOL    HW218803  11.884   6.857   5.614
 5636SOL     OW18804   8.984  11.936   7.897
 5636SOL    HW118805   8.964  12.022   7.936
 5636SOL    HW218806   8.948  11.873   7.959
 5637SOL     OW18807  10.905  10.754   0.358
 5637SOL    HW118808  10.908  10.830   0.416
 5637SOL    HW218809  10.823  10.709   0.380
 5638SOL     OW18810   0.351   0.972   6.726
 5638SOL    HW118811   0.261   0.962   6.757
 5638SOL    HW218812   0.350   1.054   6.677
 5639SOL     OW18813   1.893   9.091   1.566
 5639SOL    HW118814   1.950   9.130   1.499
 5639SOL    HW218815   1.928   9.003   1.579
 5640SOL     OW18816  10.043   5.737   2.988
 5640SOL    HW118817  10.079   5.688   2.914
 5640SOL    HW218818  10.099   5.714   3.062
 5641SOL     OW18819   2.060   5.416  12.664
 5641SOL    HW118820   2.072   5.494  12.718
 5641SOL    HW218821   2.147   5.397  12.630
 5642SOL     OW18822  10.862  14.411  13.983
 5642SOL    HW118823  10.906  14.486  13.944
 5642SOL    HW218824  10.770  14.437  13.990
 5643SOL     OW18825   8.720  14.438   1.128
 5643SOL    HW118826   8.625  14.431   1.116
 5643SOL    HW218827   8.756  14.380   1.060
 5644SOL     OW18828   3.690   1.537   1.242
 5644SOL    HW118829   3.756   1.473   1.213
 5644SOL    HW218830   3.646   1.564   1.161
 5645SOL     OW18831   6.865   7.110   8.956
 5645SOL    HW118832   6.889   7.072   8.872
 5645SOL    HW218833   6.799   7.051   8.991
 5646SOL     OW18834   3.174   5.019   6.581
 5646SOL    HW118835   3.163   4.932   6.619
 5646SOL    HW218836   3.096   5.033   6.527
 5647SOL     OW18837  12.859   3.229   9.578
 5647SOL    HW118838  12.845   3.296   9.644
 5647SOL    HW218839  12.771   3.207   9.547
 5648SOL     OW18840   5.348   5.787  10.583
 5648SOL    HW118841   5.365   5.770  10.490
 5648SOL    HW218842   5.262   5.830  10.584
 5649SOL     OW18843   5.185  12.252  13.459
 5649SOL    HW118844   5.275  12.251  13.491
 5649SOL    HW218845   5.190  12.215  13.370
 5650SOL     OW18846   6.246   0.317   6.059
 5650SOL    HW118847   6.310   0.320   5.988
 5650SOL    HW218848   6.165   0.285   6.018
 5651SOL     OW18849  14.625   0.234   1.556
 5651SOL    HW118850  14.662   0.228   1.468
 5651SOL    HW218851  14.560   0.305   1.551
 5652SOL     OW18852  10.476   5.115   6.527
 5652SOL    HW118853  10.438   5.198   6.555
 5652SOL    HW218854  10.571   5.130   6.528
 5653SOL     OW18855   4.625  11.676  13.378
 5653SOL    HW118856   4.589  11.763  13.398
 5653SOL    HW218857   4.579  11.617  13.437
 5654SOL     OW18858   6.861   0.984   3.192
 5654SOL    HW118859   6.880   1.043   3.119
 5654SOL    HW218860   6.771   0.955   3.177
 5655SOL     OW18861   6.187  14.445   8.513
 5655SOL    HW118862   6.222  14.381   8.574
 5655SOL    HW218863   6.102  14.410   8.486
 5656SOL     OW18864   2.729   6.185  12.703
 5656SOL    HW118865   2.672   6.239  12.758
 5656SOL    HW218866   2.752   6.111  12.759
 5657SOL     OW18867   1.836   7.617   8.635
 5657SOL    HW118868   1.752   7.617   8.683
 5657SOL    HW218869   1.833   7.537   8.583
 5658SOL     OW18870   6.941   1.695   8.565
 5658SOL    HW118871   6.855   1.661   8.541
 5658SOL    HW218872   6.923   1.767   8.625
 5659SOL     OW18873  14.585  12.847  13.981
 5659SOL    HW118874  14.675  12.817  13.974
 5659SOL    HW218875  14.554  12.851  13.890
 5660SOL     OW18876   2.743   8.516   1.166
 5660SOL    HW118877   2.783   8.432   1.185
 5660SOL    HW218878   2.736   8.560   1.251
 5661SOL     OW18879   7.942  14.279   6.341
 5661SOL    HW118880   7.938  14.310   6.250
 5661SOL    HW218881   7.852  14.287   6.373
 5662SOL     OW18882  14.153   1.436   5.362
 5662SOL    HW118883  14.184   1.390   5.284
 5662SOL    HW218884  14.208   1.404   5.432
 5663SOL     OW18885   6.426  10.550   6.775
 5663SOL    HW118886   6.481  10.583   6.704
 5663SOL    HW218887   6.342  10.533   6.734
 5664SOL     OW18888   5.475  14.794   2.685
 5664SOL    HW118889   5.449  14.788   2.593
 5664SOL    HW218890   5.403  14.839   2.728
 5665SOL     OW18891  14.210  12.259  14.850
 5665SOL    HW118892  14.138  12.322  14.861
 5665SOL    HW218893  14.236  12.269  14.759
 5666SOL     OW18894   1.160  13.122   1.122
 5666SOL    HW118895   1.187  13.189   1.060
 5666SOL    HW218896   1.067  13.111   1.106
 5667SOL     OW18897   0.554   0.530  10.634
 5667SOL    HW118898   0.643   0.521  10.669
 5667SOL    HW218899   0.558   0.485  10.549
 5668SOL     OW18900   8.343   2.995  13.817
 5668SOL    HW118901   8.388   3.078  13.831
 5668SOL    HW218902   8.251   3.019  13.809
 5669SOL     OW18903  12.654  12.100   5.447
 5669SOL    HW118904  12.689  12.020   5.487
 5669SOL    HW218905  12.583  12.126   5.504
 5670SOL     OW18906   9.280   2.430   8.792
 5670SOL    HW118907   9.244   2.435   8.880
 5670SOL    HW218908   9.294   2.521   8.767
 5671SOL     OW18909   9.374   5.076   7.640
 5671SOL    HW118910   9.301   5.016   7.659
 5671SOL    HW218911   9.364   5.097   7.547
 5672SOL     OW18912  10.069  11.071   8.707
 5672SOL    HW118913  10.079  10.976   8.707
 5672SOL    HW218914  10.159  11.105   8.702
 5673SOL     OW18915   6.121   1.006  11.763
 5673SOL    HW118916   6.118   1.060  11.684
 5673SOL    HW218917   6.036   1.021  11.806
 5674SOL     OW18918   2.281  11.562   0.073
 5674SOL    HW118919   2.191  11.532   0.056
 5674SOL    HW218920   2.335  11.484   0.062
 5675SOL     OW18921   0.058   7.125   3.770
 5675SOL    HW118922   0.017   7.201   3.729
 5675SOL    HW218923  14.873   7.088   3.826
 5676SOL     OW18924  12.216   9.314   9.107
 5676SOL    HW118925  12.240   9.366   9.184
 5676SOL    HW218926  12.178   9.378   9.046
 5677SOL     OW18927  10.031  12.150   3.730
 5677SOL    HW118928  10.062  12.143   3.640
 5677SOL    HW218929   9.939  12.123   3.726
 5678SOL     OW18930   3.684  11.127  12.120
 5678SOL    HW118931   3.616  11.188  12.091
 5678SOL    HW218932   3.636  11.048  12.145
 5679SOL     OW18933   9.886   3.209   7.550
 5679SOL    HW118934   9.958   3.271   7.554
 5679SOL    HW218935   9.856   3.212   7.460
 5680SOL     OW18936   8.077   3.699  12.431
 5680SOL    HW118937   8.106   3.787  12.405
 5680SOL    HW218938   7.983   3.707  12.444
 5681SOL     OW18939  10.404  14.644  10.555
 5681SOL    HW118940  10.480  14.677  10.507
 5681SOL    HW218941  10.406  14.549  10.541
 5682SOL     OW18942   3.750  13.439   1.305
 5682SOL    HW118943   3.754  13.427   1.210
 5682SOL    HW218944   3.764  13.533   1.317
 5683SOL     OW18945   5.279   1.559   9.220
 5683SOL    HW118946   5.238   1.477   9.191
 5683SOL    HW218947   5.290   1.609   9.139
 5684SOL     OW18948   3.067   7.424   7.194
 5684SOL    HW118949   2.993   7.465   7.148
 5684SOL    HW218950   3.079   7.477   7.272
 5685SOL     OW18951  11.997  14.393  10.404
 5685SOL    HW118952  12.093  14.391  10.397
 5685SOL    HW218953  11.972  14.472  10.356
 5686SOL     OW18954  13.114  12.470   7.139
 5686SOL    HW118955  13.203  12.476   7.175
 5686SOL    HW218956  13.127  12.474   7.044
 5687SOL     OW18957  14.756   0.249   2.837
 5687SOL    HW118958  14.720   0.305   2.906
 5687SOL    HW218959  14.749   0.302   2.757
 5688SOL     OW18960   9.656   8.695   5.772
 5688SOL    HW118961   9.630   8.658   5.688
 5688SOL    HW218962   9.660   8.789   5.757
 5689SOL     OW18963  13.280   9.894  14.207
 5689SOL    HW118964  13.317   9.826  14.263
 5689SOL    HW218965  13.244   9.959  14.268
 5690SOL     OW18966   8.325   1.387   5.533
 5690SOL    HW118967   8.373   1.469   5.546
 5690SOL    HW218968   8.388   1.318   5.555
 5691SOL     OW18969   8.946  12.952   9.612
 5691SOL    HW118970   8.969  12.868   9.572
 5691SOL    HW218971   8.877  12.931   9.674
 5692SOL     OW18972   1.408   0.145  11.541
 5692SOL    HW118973   1.341   0.083  11.513
 5692SOL    HW218974   1.484   0.091  11.562
 5693SOL     OW18975  14.415  11.176   9.436
 5693SOL    HW118976  14.414  11.082   9.453
 5693SOL    HW218977  14.365  11.215   9.508
 5694SOL     OW18978   7.974   1.286   6.017
 5694SOL    HW118979   7.974   1.197   6.052
 5694SOL    HW218980   8.039   1.332   6.070
 5695SOL     OW18981   0.915   7.799   2.924
 5695SOL    HW118982   0.949   7.842   2.846
 5695SOL    HW218983   0.874   7.719   2.892
 5696SOL     OW18984  14.506  10.870   8.880
 5696SOL    HW118985  14.507  10.875   8.976
 5696SOL    HW218986  14.593  10.838   8.857
 5697SOL     OW18987   2.956   1.221   2.753
 5697SOL    HW118988   2.931   1.137   2.792
 5697SOL    HW218989   2.943   1.285   2.823
 5698SOL     OW18990   3.630   8.409   2.664
 5698SOL    HW118991   3.622   8.403   2.569
 5698SOL    HW218992   3.603   8.498   2.686
 5699SOL     OW18993  13.481   2.106   9.943
 5699SOL    HW118994  13.469   2.022   9.897
 5699SOL    HW218995  13.407   2.159   9.914
 5700SOL     OW18996  10.402  10.719   9.709
 5700SOL    HW118997  10.353  10.641   9.734
 5700SOL    HW218998  10.336  10.781   9.677
 5701SOL     OW18999  13.320  12.088   3.861
 5701SOL    HW119000  13.254  12.158   3.857
 5701SOL    HW219001  13.313  12.054   3.950
 5702SOL     OW19002   2.162   0.937  10.589
 5702SOL    HW119003   2.248   0.944  10.630
 5702SOL    HW219004   2.104   0.907  10.659
 5703SOL     OW19005  10.142   9.363   7.876
 5703SOL    HW119006  10.212   9.366   7.940
 5703SOL    HW219007  10.144   9.274   7.841
 5704SOL     OW19008   8.662  13.051   4.109
 5704SOL    HW119009   8.756  13.056   4.129
 5704SOL    HW219010   8.625  12.998   4.180
 5705SOL     OW19011   7.342  13.823  12.532
 5705SOL    HW119012   7.402  13.750  12.550
 5705SOL    HW219013   7.277  13.819  12.602
 5706SOL     OW19014  10.973  13.212  11.796
 5706SOL    HW119015  10.906  13.238  11.733
 5706SOL    HW219016  11.004  13.295  11.832
 5707SOL     OW19017  11.493   6.092   7.730
 5707SOL    HW119018  11.521   6.093   7.821
 5707SOL    HW219019  11.540   6.018   7.691
 5708SOL     OW19020   4.814   3.495  12.079
 5708SOL    HW119021   4.787   3.525  11.992
 5708SOL    HW219022   4.861   3.570  12.116
 5709SOL     OW19023   9.637   7.229  11.278
 5709SOL    HW119024   9.558   7.279  11.299
 5709SOL    HW219025   9.631   7.215  11.184
 5710SOL     OW19026   4.878  13.352  13.050
 5710SOL    HW119027   4.950  13.399  13.091
 5710SOL    HW219028   4.811  13.419  13.036
 5711SOL     OW19029  13.803   0.398   4.778
 5711SOL    HW119030  13.844   0.367   4.697
 5711SOL    HW219031  13.817   0.493   4.777
 5712SOL     OW19032   8.681   1.925   5.057
 5712SOL    HW119033   8.748   1.969   5.109
 5712SOL    HW219034   8.698   1.831   5.069
 5713SOL     OW19035  11.051   2.406   3.124
 5713SOL    HW119036  11.055   2.500   3.106
 5713SOL    HW219037  11.033   2.365   3.039
 5714SOL     OW19038  12.542  11.575  11.690
 5714SOL    HW119039  12.633  11.569  11.716
 5714SOL    HW219040  12.513  11.660  11.723
 5715SOL     OW19041   4.186   3.706  10.731
 5715SOL    HW119042   4.197   3.636  10.667
 5715SOL    HW219043   4.174   3.661  10.814
 5716SOL     OW19044   4.701   6.453   7.675
 5716SOL    HW119045   4.779   6.399   7.669
 5716SOL    HW219046   4.724   6.534   7.630
 5717SOL     OW19047   2.109   4.525   7.441
 5717SOL    HW119048   2.103   4.485   7.355
 5717SOL    HW219049   2.178   4.591   7.432
 5718SOL     OW19050   3.405   0.241  12.462
 5718SOL    HW119051   3.348   0.270  12.533
 5718SOL    HW219052   3.470   0.312  12.453
 5719SOL     OW19053   1.634  12.181  12.011
 5719SOL    HW119054   1.566  12.116  12.030
 5719SOL    HW219055   1.595  12.238  11.945
 5720SOL     OW19056   2.233   0.209   5.666
 5720SOL    HW119057   2.306   0.244   5.616
 5720SOL    HW219058   2.162   0.271   5.652
 5721SOL     OW19059   3.075   0.821  11.547
 5721SOL    HW119060   3.059   0.842  11.639
 5721SOL    HW219061   3.085   0.906  11.504
 5722SOL     OW19062   5.033   1.706   3.288
 5722SOL    HW119063   5.011   1.746   3.372
 5722SOL    HW219064   5.028   1.778   3.225
 5723SOL     OW19065   4.403  10.118  12.360
 5723SOL    HW119066   4.384  10.092  12.270
 5723SOL    HW219067   4.352  10.057  12.414
 5724SOL     OW19068   5.274   0.076   2.127
 5724SOL    HW119069   5.303  14.876   2.087
 5724SOL    HW219070   5.343   0.097   2.190
 5725SOL     OW19071   9.779   2.971   4.973
 5725SOL    HW119072   9.784   2.883   4.936
 5725SOL    HW219073   9.813   3.029   4.905
 5726SOL     OW19074   7.876   1.063  12.166
 5726SOL    HW119075   7.970   1.047  12.167
 5726SOL    HW219076   7.845   1.034  12.251
 5727SOL     OW19077   5.255  14.627  12.241
 5727SOL    HW119078   5.170  14.647  12.280
 5727SOL    HW219079   5.313  14.614  12.316
 5728SOL     OW19080   4.992  11.117  14.284
 5728SOL    HW119081   5.003  11.078  14.197
 5728SOL    HW219082   5.013  11.045  14.344
 5729SOL     OW19083   5.824  11.208  12.599
 5729SOL    HW119084   5.860  11.297  12.593
 5729SOL    HW219085   5.885  11.162  12.656
 5730SOL     OW19086  14.738  10.984  14.770
 5730SOL    HW119087  14.705  10.896  14.789
 5730SOL    HW219088  14.704  11.038  14.841
 5731SOL     OW19089  10.004  13.360  11.516
 5731SOL    HW119090  10.090  13.346  11.556
 5731SOL    HW219091  10.023  13.390  11.427
 5732SOL     OW19092   6.077   2.426  11.974
 5732SOL    HW119093   6.167   2.456  11.973
 5732SOL    HW219094   6.035   2.477  12.044
 5733SOL     OW19095  11.261   0.039   2.209
 5733SOL    HW119096  11.194   0.106   2.196
 5733SOL    HW219097  11.227  14.867   2.280
 5734SOL     OW19098   2.407  14.560   4.423
 5734SOL    HW119099   2.315  14.581   4.405
 5734SOL    HW219100   2.451  14.645   4.423
 5735SOL     OW19101   6.885  12.361  14.226
 5735SOL    HW119102   6.890  12.273  14.189
 5735SOL    HW219103   6.896  12.348  14.321
 5736SOL     OW19104  10.742  12.085   3.432
 5736SOL    HW119105  10.832  12.089   3.399
 5736SOL    HW219106  10.734  12.163   3.487
 5737SOL     OW19107   6.155   0.164   2.568
 5737SOL    HW119108   6.242   0.126   2.582
 5737SOL    HW219109   6.170   0.258   2.566
 5738SOL     OW19110   2.925   9.897   6.304
 5738SOL    HW119111   2.884   9.980   6.327
 5738SOL    HW219112   3.001   9.890   6.361
 5739SOL     OW19113   6.630   9.880   5.103
 5739SOL    HW119114   6.566   9.824   5.058
 5739SOL    HW219115   6.654   9.832   5.182
 5740SOL     OW19116  13.538  12.366   0.916
 5740SOL    HW119117  13.577  12.280   0.901
 5740SOL    HW219118  13.570  12.392   1.002
 5741SOL     OW19119   5.763   5.531   8.054
 5741SOL    HW119120   5.704   5.543   7.980
 5741SOL    HW219121   5.822   5.460   8.027
 5742SOL     OW19122   1.816   8.795   7.251
 5742SOL    HW119123   1.904   8.821   7.224
 5742SOL    HW219124   1.758   8.829   7.183
 5743SOL     OW19125   3.686   8.531   4.913
 5743SOL    HW119126   3.609   8.581   4.940
 5743SOL    HW219127   3.755   8.596   4.903
 5744SOL     OW19128  13.224  10.043   8.118
 5744SOL    HW119129  13.271  10.081   8.043
 5744SOL    HW219130  13.245   9.950   8.114
 5745SOL     OW19131   9.903  13.419   0.348
 5745SOL    HW119132   9.982  13.365   0.337
 5745SOL    HW219133   9.865  13.423   0.260
 5746SOL     OW19134  11.626   7.248  11.885
 5746SOL    HW119135  11.544   7.265  11.838
 5746SOL    HW219136  11.612   7.282  11.973
 5747SOL     OW19137   2.712   6.623   0.842
 5747SOL    HW119138   2.802   6.649   0.822
 5747SOL    HW219139   2.719   6.532   0.869
 5748SOL     OW19140  11.168  12.378   3.244
 5748SOL    HW119141  11.113  12.454   3.226
 5748SOL    HW219142  11.200  12.350   3.158
 5749SOL     OW19143   5.236   6.678  14.156
 5749SOL    HW119144   5.318   6.703  14.113
 5749SOL    HW219145   5.218   6.590  14.123
 5750SOL     OW19146   9.310   4.494   7.817
 5750SOL    HW119147   9.219   4.518   7.795
 5750SOL    HW219148   9.323   4.528   7.906
 5751SOL     OW19149   8.903   9.549   8.297
 5751SOL    HW119150   8.864   9.537   8.383
 5751SOL    HW219151   8.865   9.479   8.243
 5752SOL     OW19152   0.811   6.109  13.016
 5752SOL    HW119153   0.853   6.161  13.084
 5752SOL    HW219154   0.727   6.082  13.054
 5753SOL     OW19155   5.004  12.572  11.340
 5753SOL    HW119156   4.949  12.508  11.385
 5753SOL    HW219157   5.094  12.547  11.362
 5754SOL     OW19158  11.738  11.703   2.362
 5754SOL    HW119159  11.791  11.687   2.440
 5754SOL    HW219160  11.792  11.672   2.290
 5755SOL     OW19161   3.384   9.625  12.382
 5755SOL    HW119162   3.434   9.568  12.323
 5755SOL    HW219163   3.436   9.706  12.386
 5756SOL     OW19164   9.709   6.367  11.825
 5756SOL    HW119165   9.640   6.318  11.781
 5756SOL    HW219166   9.707   6.454  11.784
 5757SOL     OW19167   4.064   2.989   3.112
 5757SOL    HW119168   4.031   2.966   3.024
 5757SOL    HW219169   4.157   3.007   3.098
 5758SOL     OW19170   9.139   7.339  12.874
 5758SOL    HW119171   9.061   7.303  12.830
 5758SOL    HW219172   9.179   7.397  12.809
 5759SOL     OW19173   7.199  10.515   4.244
 5759SOL    HW119174   7.154  10.450   4.190
 5759SOL    HW219175   7.252  10.463   4.304
 5760SOL     OW19176  10.210  11.852   9.682
 5760SOL    HW119177  10.275  11.832   9.615
 5760SOL    HW219178  10.145  11.783   9.674
 5761SOL     OW19179   9.005   6.626  11.925
 5761SOL    HW119180   8.950   6.692  11.966
 5761SOL    HW219181   9.027   6.566  11.997
 5762SOL     OW19182   2.623   0.801  10.875
 5762SOL    HW119183   2.605   0.715  10.913
 5762SOL    HW219184   2.678   0.845  10.939
 5763SOL     OW19185   2.756   4.851  11.648
 5763SOL    HW119186   2.686   4.864  11.712
 5763SOL    HW219187   2.715   4.872  11.564
 5764SOL     OW19188  11.753   5.276   7.959
 5764SOL    HW119189  11.779   5.356   7.912
 5764SOL    HW219190  11.795   5.205   7.910
 5765SOL     OW19191   7.953   2.416  14.780
 5765SOL    HW119192   7.925   2.345  14.722
 5765SOL    HW219193   8.007   2.473  14.724
 5766SOL     OW19194   5.151   1.370  12.451
 5766SOL    HW119195   5.237   1.339  12.424
 5766SOL    HW219196   5.090   1.304  12.416
 5767SOL     OW19197  14.806   0.065  12.788
 5767SOL    HW119198  14.768   0.116  12.717
 5767SOL    HW219199  14.777  14.858  12.773
 5768SOL     OW19200   3.536  11.476  13.141
 5768SOL    HW119201   3.494  11.561  13.153
 5768SOL    HW219202   3.536  11.463  13.046
 5769SOL     OW19203   0.631  14.299   7.177
 5769SOL    HW119204   0.560  14.240   7.150
 5769SOL    HW219205   0.608  14.324   7.267
 5770SOL     OW19206  12.771   2.801   0.492
 5770SOL    HW119207  12.824   2.881   0.496
 5770SOL    HW219208  12.806   2.745   0.562
 5771SOL     OW19209   8.631   5.712   1.034
 5771SOL    HW119210   8.649   5.755   1.118
 5771SOL    HW219211   8.537   5.722   1.022
 5772SOL     OW19212   6.464   5.959  12.095
 5772SOL    HW119213   6.384   6.008  12.112
 5772SOL    HW219214   6.472   5.958  12.000
 5773SOL     OW19215  11.233   8.943   1.443
 5773SOL    HW119216  11.238   9.022   1.497
 5773SOL    HW219217  11.139   8.929   1.431
 5774SOL     OW19218   2.368   3.476  10.295
 5774SOL    HW119219   2.283   3.518  10.284
 5774SOL    HW219220   2.349   3.395  10.343
 5775SOL     OW19221   1.976   0.904   6.544
 5775SOL    HW119222   2.002   0.961   6.472
 5775SOL    HW219223   1.959   0.964   6.617
 5776SOL     OW19224   2.851   1.720  13.366
 5776SOL    HW119225   2.849   1.769  13.448
 5776SOL    HW219226   2.761   1.688  13.354
 5777SOL     OW19227   7.649  14.351   7.021
 5777SOL    HW119228   7.578  14.315   6.969
 5777SOL    HW219229   7.660  14.441   6.989
 5778SOL     OW19230  12.903   5.309   3.817
 5778SOL    HW119231  12.898   5.403   3.800
 5778SOL    HW219232  12.848   5.296   3.894
 5779SOL     OW19233   7.257   6.268   0.257
 5779SOL    HW119234   7.340   6.310   0.237
 5779SOL    HW219235   7.232   6.224   0.176
 5780SOL     OW19236   1.154  11.959  14.336
 5780SOL    HW119237   1.094  11.915  14.276
 5780SOL    HW219238   1.240  11.927  14.311
 5781SOL     OW19239  12.393   8.875   6.360
 5781SOL    HW119240  12.359   8.935   6.294
 5781SOL    HW219241  12.487   8.895   6.364
 5782SOL     OW19242   9.766   3.700  13.790
 5782SOL    HW119243   9.673   3.701  13.770
 5782SOL    HW219244   9.809   3.692  13.705
 5783SOL     OW19245   3.600   6.640  10.133
 5783SOL    HW119246   3.590   6.714  10.193
 5783SOL    HW219247   3.612   6.680  10.047
 5784SOL     OW19248   7.131  11.788   0.408
 5784SOL    HW119249   7.068  11.852   0.375
 5784SOL    HW219250   7.209  11.801   0.354
 5785SOL     OW19251   2.332   8.759   4.330
 5785SOL    HW119252   2.261   8.810   4.368
 5785SOL    HW219253   2.377   8.820   4.271
 5786SOL     OW19254   5.170   8.046  12.594
 5786SOL    HW119255   5.263   8.024  12.580
 5786SOL    HW219256   5.149   8.106  12.523
 5787SOL     OW19257   0.110  11.711   8.022
 5787SOL    HW119258   0.022  11.688   7.992
 5787SOL    HW219259   0.096  11.754   8.106
 5788SOL     OW19260   0.617   5.856   2.894
 5788SOL    HW119261   0.613   5.809   2.810
 5788SOL    HW219262   0.536   5.907   2.897
 5789SOL     OW19263   1.171  12.068   2.045
 5789SOL    HW119264   1.119  11.992   2.071
 5789SOL    HW219265   1.138  12.140   2.099
 5790SOL     OW19266  10.215   9.731  10.651
 5790SOL    HW119267  10.258   9.671  10.711
 5790SOL    HW219268  10.137   9.760  10.697
 5791SOL     OW19269   1.939   8.981  10.950
 5791SOL    HW119270   1.882   8.941  10.885
 5791SOL    HW219271   1.884   9.047  10.993
 5792SOL     OW19272   5.336   4.745   4.405
 5792SOL    HW119273   5.389   4.722   4.328
 5792SOL    HW219274   5.399   4.747   4.477
 5793SOL     OW19275   8.257   9.498  12.229
 5793SOL    HW119276   8.207   9.450  12.295
 5793SOL    HW219277   8.299   9.431  12.176
 5794SOL     OW19278  10.255  14.633   3.264
 5794SOL    HW119279  10.338  14.678   3.243
 5794SOL    HW219280  10.192  14.704   3.275
 5795SOL     OW19281  12.158   0.366  13.460
 5795SOL    HW119282  12.204   0.447  13.484
 5795SOL    HW219283  12.083   0.396  13.408
 5796SOL     OW19284   3.543   7.924   0.171
 5796SOL    HW119285   3.630   7.963   0.167
 5796SOL    HW219286   3.529   7.888   0.084
 5797SOL     OW19287  11.558  13.059   2.558
 5797SOL    HW119288  11.549  13.098   2.646
 5797SOL    HW219289  11.469  13.030   2.536
 5798SOL     OW19290   2.325   4.328   4.007
 5798SOL    HW119291   2.253   4.265   4.009
 5798SOL    HW219292   2.293   4.404   4.054
 5799SOL     OW19293   6.459   8.288   2.226
 5799SOL    HW119294   6.369   8.314   2.247
 5799SOL    HW219295   6.494   8.256   2.309
 5800SOL     OW19296  12.175   6.943   4.647
 5800SOL    HW119297  12.188   7.029   4.606
 5800SOL    HW219298  12.248   6.934   4.707
 5801SOL     OW19299  10.372  11.699   1.299
 5801SOL    HW119300  10.435  11.663   1.235
 5801SOL    HW219301  10.405  11.786   1.319
 5802SOL     OW19302  13.027  12.756  10.062
 5802SOL    HW119303  13.073  12.828  10.017
 5802SOL    HW219304  13.074  12.746  10.145
 5803SOL     OW19305   0.950   2.618   9.346
 5803SOL    HW119306   0.900   2.696   9.372
 5803SOL    HW219307   1.042   2.645   9.357
 5804SOL     OW19308  14.492  11.872  13.873
 5804SOL    HW119309  14.540  11.929  13.933
 5804SOL    HW219310  14.402  11.874  13.907
 5805SOL     OW19311   3.032   3.510  10.758
 5805SOL    HW119312   2.959   3.546  10.808
 5805SOL    HW219313   3.046   3.572  10.687
 5806SOL     OW19314  13.547  14.381   2.878
 5806SOL    HW119315  13.615  14.428   2.830
 5806SOL    HW219316  13.519  14.312   2.817
 5807SOL     OW19317   0.206  11.890   2.168
 5807SOL    HW119318   0.167  11.809   2.201
 5807SOL    HW219319   0.300  11.871   2.165
 5808SOL     OW19320   9.949   5.172   4.807
 5808SOL    HW119321   9.898   5.091   4.814
 5808SOL    HW219322   9.962   5.200   4.898
 5809SOL     OW19323  14.611   1.292  11.756
 5809SOL    HW119324  14.515   1.293  11.751
 5809SOL    HW219325  14.639   1.275  11.666
 5810SOL     OW19326  11.766   5.516   9.389
 5810SOL    HW119327  11.684   5.479   9.422
 5810SOL    HW219328  11.823   5.440   9.375
 5811SOL     OW19329   2.047   3.156   3.695
 5811SOL    HW119330   2.055   3.234   3.640
 5811SOL    HW219331   1.976   3.176   3.755
 5812SOL     OW19332   4.269   6.652   4.185
 5812SOL    HW119333   4.301   6.594   4.254
 5812SOL    HW219334   4.249   6.595   4.112
 5813SOL     OW19335   4.949   2.697   0.840
 5813SOL    HW119336   4.944   2.618   0.786
 5813SOL    HW219337   4.913   2.670   0.924
 5814SOL     OW19338   7.027  14.787   4.112
 5814SOL    HW119339   7.042  14.850   4.182
 5814SOL    HW219340   7.061  14.830   4.033
 5815SOL     OW19341   3.073   1.085   5.552
 5815SOL    HW119342   3.078   1.177   5.576
 5815SOL    HW219343   3.097   1.083   5.459
 5816SOL     OW19344   8.756   1.904  11.603
 5816SOL    HW119345   8.809   1.932  11.678
 5816SOL    HW219346   8.667   1.898  11.638
 5817SOL     OW19347   1.037  12.607   9.779
 5817SOL    HW119348   1.038  12.512   9.795
 5817SOL    HW219349   1.127  12.635   9.795
 5818SOL     OW19350   4.517   7.710   5.790
 5818SOL    HW119351   4.589   7.665   5.833
 5818SOL    HW219352   4.460   7.740   5.861
 5819SOL     OW19353   4.388   1.614   1.415
 5819SOL    HW119354   4.403   1.705   1.391
 5819SOL    HW219355   4.361   1.572   1.334
 5820SOL     OW19356   7.495   0.531   8.512
 5820SOL    HW119357   7.403   0.549   8.530
 5820SOL    HW219358   7.507   0.556   8.420
 5821SOL     OW19359  10.620  14.708   6.986
 5821SOL    HW119360  10.713  14.687   6.993
 5821SOL    HW219361  10.588  14.705   7.077
 5822SOL     OW19362   1.306   8.763   0.644
 5822SOL    HW119363   1.323   8.669   0.649
 5822SOL    HW219364   1.219   8.769   0.606
 5823SOL     OW19365   6.708   7.966   2.646
 5823SOL    HW119366   6.615   7.971   2.670
 5823SOL    HW219367   6.752   7.934   2.725
 5824SOL     OW19368  12.617   1.707  12.127
 5824SOL    HW119369  12.640   1.749  12.045
 5824SOL    HW219370  12.524   1.687  12.119
 5825SOL     OW19371   6.925   9.361  10.162
 5825SOL    HW119372   6.840   9.386  10.126
 5825SOL    HW219373   6.989   9.394  10.098
 5826SOL     OW19374   0.133  10.702   5.052
 5826SOL    HW119375   0.166  10.709   5.142
 5826SOL    HW219376   0.186  10.633   5.013
 5827SOL     OW19377   2.053   6.452  14.541
 5827SOL    HW119378   1.991   6.478  14.471
 5827SOL    HW219379   1.997   6.435  14.617
 5828SOL     OW19380   4.460   7.156  10.277
 5828SOL    HW119381   4.512   7.124  10.351
 5828SOL    HW219382   4.465   7.252  10.285
 5829SOL     OW19383  13.542  11.923   0.365
 5829SOL    HW119384  13.593  11.848   0.394
 5829SOL    HW219385  13.453  11.889   0.354
 5830SOL     OW19386  14.038  12.010   7.703
 5830SOL    HW119387  14.089  11.998   7.623
 5830SOL    HW219388  13.947  12.016   7.674
 5831SOL     OW19389   7.047   0.133  11.958
 5831SOL    HW119390   7.027   0.088  11.876
 5831SOL    HW219391   7.070   0.222  11.931
 5832SOL     OW19392   4.834   6.347   7.319
 5832SOL    HW119393   4.892   6.313   7.251
 5832SOL    HW219394   4.840   6.442   7.311
 5833SOL     OW19395   8.852   7.855   4.209
 5833SOL    HW119396   8.921   7.922   4.203
 5833SOL    HW219397   8.883   7.784   4.152
 5834SOL     OW19398  12.671   3.232   2.392
 5834SOL    HW119399  12.683   3.200   2.481
 5834SOL    HW219400  12.646   3.154   2.342
 5835SOL     OW19401  13.963   7.311  13.342
 5835SOL    HW119402  14.000   7.398  13.327
 5835SOL    HW219403  14.037   7.259  13.374
 5836SOL     OW19404   9.833   2.876   0.519
 5836SOL    HW119405   9.756   2.923   0.484
 5836SOL    HW219406   9.908   2.919   0.478
 5837SOL     OW19407  13.677   0.090   2.716
 5837SOL    HW119408  13.752   0.057   2.765
 5837SOL    HW219409  13.671   0.032   2.640
 5838SOL     OW19410   0.807   3.054   5.681
 5838SOL    HW119411   0.719   3.094   5.685
 5838SOL    HW219412   0.829   3.037   5.772
 5839SOL     OW19413  10.883   4.202  10.388
 5839SOL    HW119414  10.807   4.226  10.441
 5839SOL    HW219415  10.931   4.139  10.442
 5840SOL     OW19416   2.736   3.342   5.410
 5840SOL    HW119417   2.749   3.359   5.317
 5840SOL    HW219418   2.787   3.410   5.454
 5841SOL     OW19419   9.973   6.424  11.747
 5841SOL    HW119420   9.913   6.401  11.817
 5841SOL    HW219421   9.932   6.389  11.668
 5842SOL     OW19422   1.583   5.832  10.342
 5842SOL    HW119423   1.638   5.910  10.334
 5842SOL    HW219424   1.533   5.846  10.422
 5843SOL     OW19425   3.717  11.347   4.070
 5843SOL    HW119426   3.750  11.324   4.157
 5843SOL    HW219427   3.735  11.440   4.061
 5844SOL     OW19428  11.213   9.512   0.604
 5844SOL    HW119429  11.227   9.591   0.551
 5844SOL    HW219430  11.118   9.497   0.597
 5845SOL     OW19431   4.638   6.315   2.851
 5845SOL    HW119432   4.727   6.296   2.822
 5845SOL    HW219433   4.620   6.403   2.818
 5846SOL     OW19434   8.353   6.010   7.288
 5846SOL    HW119435   8.420   5.945   7.271
 5846SOL    HW219436   8.384   6.057   7.366
 5847SOL     OW19437  14.660   6.099   6.796
 5847SOL    HW119438  14.647   6.012   6.757
 5847SOL    HW219439  14.618   6.093   6.882
 5848SOL     OW19440   4.667   9.010   9.505
 5848SOL    HW119441   4.624   9.079   9.556
 5848SOL    HW219442   4.749   9.049   9.475
 5849SOL     OW19443  10.563   1.944   4.611
 5849SOL    HW119444  10.600   1.960   4.524
 5849SOL    HW219445  10.481   1.898   4.595
 5850SOL     OW19446   7.585   5.122  14.017
 5850SOL    HW119447   7.669   5.113  13.973
 5850SOL    HW219448   7.550   5.033  14.020
 5851SOL     OW19449  14.712  13.891   5.566
 5851SOL    HW119450  14.748  13.806   5.591
 5851SOL    HW219451  14.708  13.889   5.471
 5852SOL     OW19452  13.371   3.909  14.136
 5852SOL    HW119453  13.466   3.899  14.125
 5852SOL    HW219454  13.333   3.865  14.059
 5853SOL     OW19455   9.772   7.698   3.839
 5853SOL    HW119456   9.809   7.616   3.807
 5853SOL    HW219457   9.835   7.765   3.813
 5854SOL     OW19458  11.964   2.112   7.868
 5854SOL    HW119459  11.996   2.031   7.829
 5854SOL    HW219460  11.974   2.098   7.962
 5855SOL     OW19461   2.457   0.415   1.849
 5855SOL    HW119462   2.463   0.442   1.757
 5855SOL    HW219463   2.546   0.424   1.883
 5856SOL     OW19464   5.039   7.562   4.041
 5856SOL    HW119465   5.036   7.656   4.060
 5856SOL    HW219466   4.980   7.550   3.967
 5857SOL     OW19467   8.806  12.420   0.508
 5857SOL    HW119468   8.806  12.420   0.604
 5857SOL    HW219469   8.863  12.346   0.484
 5858SOL     OW19470   1.788  11.409   8.903
 5858SOL    HW119471   1.726  11.479   8.918
 5858SOL    HW219472   1.820  11.422   8.814
 5859SOL     OW19473   2.666   5.769  13.979
 5859SOL    HW119474   2.572   5.773  13.996
 5859SOL    HW219475   2.700   5.853  14.012
 5860SOL     OW19476  10.742   6.767   7.864
 5860SOL    HW119477  10.657   6.768   7.819
 5860SOL    HW219478  10.766   6.675   7.866
 5861SOL     OW19479   0.235   0.572   2.172
 5861SOL    HW119480   0.302   0.557   2.105
 5861SOL    HW219481   0.272   0.639   2.229
 5862SOL     OW19482   3.459   9.984  11.244
 5862SOL    HW119483   3.521   9.914  11.223
 5862SOL    HW219484   3.375   9.954  11.209
 5863SOL     OW19485   6.194   5.139   8.892
 5863SOL    HW119486   6.198   5.181   8.805
 5863SOL    HW219487   6.104   5.109   8.899
 5864SOL     OW19488   2.214   3.543   0.813
 5864SOL    HW119489   2.195   3.603   0.741
 5864SOL    HW219490   2.280   3.588   0.865
 5865SOL     OW19491   7.079   0.427   8.490
 5865SOL    HW119492   7.042   0.394   8.572
 5865SOL    HW219493   7.125   0.507   8.515
 5866SOL     OW19494   1.277   7.040   7.979
 5866SOL    HW119495   1.337   7.106   7.945
 5866SOL    HW219496   1.190   7.078   7.968
 5867SOL     OW19497   1.853   4.782   3.060
 5867SOL    HW119498   1.899   4.850   3.011
 5867SOL    HW219499   1.882   4.699   3.020
 5868SOL     OW19500   4.497   7.469   3.938
 5868SOL    HW119501   4.540   7.546   3.900
 5868SOL    HW219502   4.457   7.425   3.863
 5869SOL     OW19503   3.890   5.088   5.220
 5869SOL    HW119504   3.837   5.153   5.267
 5869SOL    HW219505   3.972   5.084   5.270
 5870SOL     OW19506  12.057  14.669   3.965
 5870SOL    HW119507  12.120  14.731   3.927
 5870SOL    HW219508  12.112  14.599   4.001
 5871SOL     OW19509   1.830  13.079   2.564
 5871SOL    HW119510   1.846  12.998   2.612
 5871SOL    HW219511   1.790  13.051   2.481
 5872SOL     OW19512   5.362  14.250   0.674
 5872SOL    HW119513   5.279  14.294   0.691
 5872SOL    HW219514   5.410  14.310   0.616
 5873SOL     OW19515   7.133   6.370  14.551
 5873SOL    HW119516   7.053   6.385  14.500
 5873SOL    HW219517   7.108   6.392  14.641
 5874SOL     OW19518  11.829   6.033  11.070
 5874SOL    HW119519  11.782   6.076  10.999
 5874SOL    HW219520  11.907   6.088  11.084
 5875SOL     OW19521  11.281   3.397   7.685
 5875SOL    HW119522  11.369   3.402   7.648
 5875SOL    HW219523  11.284   3.322   7.744
 5876SOL     OW19524   7.337   7.937  12.110
 5876SOL    HW119525   7.250   7.900  12.125
 5876SOL    HW219526   7.326   8.030  12.131
 5877SOL     OW19527   8.540  10.900   8.305
 5877SOL    HW119528   8.503  10.989   8.304
 5877SOL    HW219529   8.578  10.889   8.218
 5878SOL     OW19530   1.362   5.398   1.981
 5878SOL    HW119531   1.330   5.472   2.032
 5878SOL    HW219532   1.339   5.419   1.890
 5879SOL     OW19533   2.207   4.707   0.829
 5879SOL    HW119534   2.151   4.770   0.874
 5879SOL    HW219535   2.296   4.738   0.846
 5880SOL     OW19536  10.704  14.405  10.401
 5880SOL    HW119537  10.723  14.313  10.420
 5880SOL    HW219538  10.609  14.411  10.401
 5881SOL     OW19539  14.161   8.580   2.443
 5881SOL    HW119540  14.161   8.616   2.354
 5881SOL    HW219541  14.102   8.505   2.438
 5882SOL     OW19542   2.775  10.392  14.425
 5882SOL    HW119543   2.826  10.399  14.506
 5882SOL    HW219544   2.840  10.395  14.355
 5883SOL     OW19545   0.283  10.259   7.266
 5883SOL    HW119546   0.264  10.316   7.191
 5883SOL    HW219547   0.357  10.205   7.237
 5884SOL     OW19548   4.022  11.654   6.443
 5884SOL    HW119549   4.099  11.638   6.388
 5884SOL    HW219550   4.055  11.643   6.533
 5885SOL     OW19551   1.251   7.247   6.323
 5885SOL    HW119552   1.294   7.332   6.331
 5885SOL    HW219553   1.320   7.183   6.336
 5886SOL     OW19554  11.211   0.383  10.001
 5886SOL    HW119555  11.117   0.398   9.987
 5886SOL    HW219556  11.229   0.301   9.955
 5887SOL     OW19557   9.303   4.929   0.723
 5887SOL    HW119558   9.278   4.995   0.787
 5887SOL    HW219559   9.301   4.974   0.639
 5888SOL     OW19560  13.670   3.033   2.040
 5888SOL    HW119561  13.579   3.049   2.014
 5888SOL    HW219562  13.715   3.014   1.958
 5889SOL     OW19563  10.553  11.582  11.339
 5889SOL    HW119564  10.553  11.551  11.430
 5889SOL    HW219565  10.500  11.662  11.341
 5890SOL     OW19566   1.815  12.931   2.136
 5890SOL    HW119567   1.803  12.955   2.044
 5890SOL    HW219568   1.908  12.947   2.153
 5891SOL     OW19569   8.986  12.166   1.502
 5891SOL    HW119570   9.035  12.220   1.564
 5891SOL    HW219571   8.959  12.226   1.433
 5892SOL     OW19572   7.635   0.297   6.434
 5892SOL    HW119573   7.564   0.308   6.371
 5892SOL    HW219574   7.672   0.385   6.444
 5893SOL     OW19575   3.325   1.883   6.157
 5893SOL    HW119576   3.377   1.954   6.119
 5893SOL    HW219577   3.376   1.854   6.233
 5894SOL     OW19578   3.229   5.538   1.321
 5894SOL    HW119579   3.255   5.447   1.334
 5894SOL    HW219580   3.275   5.587   1.389
 5895SOL     OW19581   6.576   9.006   2.498
 5895SOL    HW119582   6.502   8.945   2.502
 5895SOL    HW219583   6.640   8.969   2.559
 5896SOL     OW19584  12.624   6.318   1.418
 5896SOL    HW119585  12.691   6.268   1.464
 5896SOL    HW219586  12.588   6.257   1.354
 5897SOL     OW19587  13.344  14.045  14.722
 5897SOL    HW119588  13.387  13.995  14.653
 5897SOL    HW219589  13.305  13.978  14.778
 5898SOL     OW19590   6.587   6.691  11.551
 5898SOL    HW119591   6.496   6.684  11.524
 5898SOL    HW219592   6.624   6.760  11.496
 5899SOL     OW19593   8.077  14.794  12.639
 5899SOL    HW119594   8.012  14.864  12.643
 5899SOL    HW219595   8.031  14.721  12.597
 5900SOL     OW19596   8.200   6.651   2.549
 5900SOL    HW119597   8.237   6.627   2.464
 5900SOL    HW219598   8.109   6.676   2.529
 5901SOL     OW19599   1.458  10.255   8.572
 5901SOL    HW119600   1.549  10.274   8.594
 5901SOL    HW219601   1.458  10.164   8.544
 5902SOL     OW19602   6.628   4.664  13.687
 5902SOL    HW119603   6.532   4.667  13.689
 5902SOL    HW219604   6.654   4.667  13.779
 5903SOL     OW19605  10.883   2.792   7.504
 5903SOL    HW119606  10.865   2.782   7.598
 5903SOL    HW219607  10.966   2.746   7.491
 5904SOL     OW19608   7.653   6.245   5.448
 5904SOL    HW119609   7.595   6.172   5.427
 5904SOL    HW219610   7.670   6.236   5.542
 5905SOL     OW19611  12.241  11.603   0.902
 5905SOL    HW119612  12.294  11.683   0.893
 5905SOL    HW219613  12.226  11.574   0.812
 5906SOL     OW19614   2.769   2.872   7.241
 5906SOL    HW119615   2.764   2.925   7.321
 5906SOL    HW219616   2.803   2.932   7.175
 5907SOL     OW19617   8.826  11.453  11.954
 5907SOL    HW119618   8.845  11.367  11.993
 5907SOL    HW219619   8.884  11.513  12.000
 5908SOL     OW19620   4.129   1.298  12.789
 5908SOL    HW119621   4.111   1.207  12.813
 5908SOL    HW219622   4.104   1.349  12.866
 5909SOL     OW19623   7.585  10.201   7.478
 5909SOL    HW119624   7.526  10.258   7.428
 5909SOL    HW219625   7.546  10.114   7.470
 5910SOL     OW19626   7.761  12.097  11.043
 5910SOL    HW119627   7.689  12.044  11.010
 5910SOL    HW219628   7.753  12.180  10.996
 5911SOL     OW19629   1.402   3.590  12.040
 5911SOL    HW119630   1.391   3.663  11.979
 5911SOL    HW219631   1.456   3.626  12.111
 5912SOL     OW19632   8.890   0.433   1.284
 5912SOL    HW119633   8.810   0.387   1.310
 5912SOL    HW219634   8.929   0.460   1.367
 5913SOL     OW19635   2.746   2.398   6.632
 5913SOL    HW119636   2.672   2.387   6.572
 5913SOL    HW219637   2.756   2.312   6.672
 5914SOL     OW19638   6.321   1.392   9.694
 5914SOL    HW119639   6.386   1.322   9.693
 5914SOL    HW219640   6.370   1.470   9.666
 5915SOL     OW19641  10.126  14.419   0.840
 5915SOL    HW119642  10.199  14.449   0.894
 5915SOL    HW219643  10.056  14.400   0.902
 5916SOL     OW19644   0.441   3.233   2.434
 5916SOL    HW119645   0.503   3.253   2.363
 5916SOL    HW219646   0.488   3.256   2.514
 5917SOL     OW19647  13.161  13.590  12.419
 5917SOL    HW119648  13.133  13.671  12.463
 5917SOL    HW219649  13.167  13.526  12.490
 5918SOL     OW19650   9.621   1.079  10.383
 5918SOL    HW119651   9.561   1.009  10.359
 5918SOL    HW219652   9.684   1.038  10.441
 5919SOL     OW19653   8.840   3.455  13.410
 5919SOL    HW119654   8.790   3.476  13.331
 5919SOL    HW219655   8.777   3.409  13.466
 5920SOL     OW19656   3.537   7.381   0.619
 5920SOL    HW119657   3.448   7.364   0.649
 5920SOL    HW219658   3.552   7.473   0.640
 5921SOL     OW19659  12.201   5.202   1.000
 5921SOL    HW119660  12.158   5.230   1.081
 5921SOL    HW219661  12.129   5.173   0.944
 5922SOL     OW19662   7.545   1.403   6.540
 5922SOL    HW119663   7.527   1.442   6.454
 5922SOL    HW219664   7.541   1.477   6.601
 5923SOL     OW19665  12.468   6.830   2.907
 5923SOL    HW119666  12.467   6.926   2.907
 5923SOL    HW219667  12.426   6.806   2.989
 5924SOL     OW19668   3.814  13.366   8.358
 5924SOL    HW119669   3.754  13.305   8.402
 5924SOL    HW219670   3.769  13.450   8.361
 5925SOL     OW19671  12.304   1.015   8.357
 5925SOL    HW119672  12.285   1.011   8.263
 5925SOL    HW219673  12.305   0.923   8.385
 5926SOL     OW19674   0.337  11.716  12.776
 5926SOL    HW119675   0.326  11.656  12.850
 5926SOL    HW219676   0.420  11.688  12.735
 5927SOL     OW19677   8.073   7.244   1.268
 5927SOL    HW119678   8.137   7.187   1.225
 5927SOL    HW219679   7.991   7.194   1.265
 5928SOL     OW19680   9.756   0.370   7.578
 5928SOL    HW119681   9.745   0.403   7.667
 5928SOL    HW219682   9.672   0.389   7.535
 5929SOL     OW19683  12.836  12.764   6.138
 5929SOL    HW119684  12.742  12.779   6.150
 5929SOL    HW219685  12.853  12.682   6.185
 5930SOL     OW19686   2.516   5.080   5.772
 5930SOL    HW119687   2.474   5.166   5.775
 5930SOL    HW219688   2.450   5.022   5.735
 5931SOL     OW19689   9.902   6.813  14.483
 5931SOL    HW119690   9.858   6.838  14.565
 5931SOL    HW219691   9.864   6.871  14.417
 5932SOL     OW19692   3.605   5.115   3.211
 5932SOL    HW119693   3.647   5.076   3.287
 5932SOL    HW219694   3.670   5.177   3.177
 5933SOL     OW19695   9.213   5.094   8.540
 5933SOL    HW119696   9.224   5.132   8.627
 5933SOL    HW219697   9.228   5.167   8.480
 5934SOL     OW19698   5.836  12.119  12.806
 5934SOL    HW119699   5.861  12.032  12.775
 5934SOL    HW219700   5.822  12.107  12.900
 5935SOL     OW19701  11.165   9.818   9.688
 5935SOL    HW119702  11.179   9.878   9.615
 5935SOL    HW219703  11.247   9.819   9.737
 5936SOL     OW19704   8.026  14.392   7.338
 5936SOL    HW119705   8.029  14.419   7.246
 5936SOL    HW219706   8.118  14.390   7.365
 5937SOL     OW19707   4.604   5.015   5.119
 5937SOL    HW119708   4.611   5.072   5.042
 5937SOL    HW219709   4.510   4.994   5.124
 5938SOL     OW19710   4.800   5.692  13.312
 5938SOL    HW119711   4.728   5.633  13.336
 5938SOL    HW219712   4.876   5.635  13.306
 5939SOL     OW19713   0.373   9.728   7.226
 5939SOL    HW119714   0.412   9.749   7.141
 5939SOL    HW219715   0.293   9.780   7.230
 5940SOL     OW19716   4.605   7.053   0.352
 5940SOL    HW119717   4.641   6.976   0.396
 5940SOL    HW219718   4.663   7.125   0.376
 5941SOL     OW19719   2.105   4.766   6.963
 5941SOL    HW119720   2.132   4.806   7.045
 5941SOL    HW219721   2.060   4.686   6.989
 5942SOL     OW19722   0.198  13.569   4.024
 5942SOL    HW119723   0.232  13.647   4.068
 5942SOL    HW219724   0.170  13.601   3.938
 5943SOL     OW19725   0.826   3.315  11.390
 5943SOL    HW119726   0.886   3.324  11.316
 5943SOL    HW219727   0.818   3.221  11.402
 5944SOL     OW19728   0.107   1.272   1.673
 5944SOL    HW119729   0.084   1.327   1.748
 5944SOL    HW219730   0.040   1.203   1.672
 5945SOL     OW19731   6.903   9.629   1.237
 5945SOL    HW119732   6.853   9.698   1.280
 5945SOL    HW219733   6.995   9.652   1.252
 5946SOL     OW19734   3.168   9.969  10.353
 5946SOL    HW119735   3.147  10.026  10.427
 5946SOL    HW219736   3.161  10.026  10.276
 5947SOL     OW19737   7.635   4.670   6.468
 5947SOL    HW119738   7.615   4.578   6.453
 5947SOL    HW219739   7.583   4.694   6.545
 5948SOL     OW19740   1.178   4.639   8.846
 5948SOL    HW119741   1.236   4.578   8.892
 5948SOL    HW219742   1.101   4.646   8.902
 5949SOL     OW19743   3.517   3.835   9.379
 5949SOL    HW119744   3.612   3.837   9.369
 5949SOL    HW219745   3.482   3.877   9.301
 5950SOL     OW19746  14.328  12.195   5.696
 5950SOL    HW119747  14.320  12.152   5.611
 5950SOL    HW219748  14.238  12.199   5.729
 5951SOL     OW19749  10.229  12.984  14.399
 5951SOL    HW119750  10.207  13.065  14.444
 5951SOL    HW219751  10.209  13.001  14.307
 5952SOL     OW19752  12.324   7.898  12.796
 5952SOL    HW119753  12.269   7.836  12.747
 5952SOL    HW219754  12.372   7.843  12.858
 5953SOL     OW19755   3.095   1.071   3.368
 5953SOL    HW119756   3.099   1.156   3.322
 5953SOL    HW219757   3.088   1.007   3.298
 5954SOL     OW19758  10.678   9.362  14.225
 5954SOL    HW119759  10.728   9.344  14.145
 5954SOL    HW219760  10.612   9.425  14.198
 5955SOL     OW19761   3.344   3.405   3.875
 5955SOL    HW119762   3.370   3.372   3.962
 5955SOL    HW219763   3.290   3.481   3.894
 5956SOL     OW19764  10.113   4.657   4.559
 5956SOL    HW119765  10.111   4.573   4.605
 5956SOL    HW219766  10.081   4.637   4.471
 5957SOL     OW19767   8.485  13.062   4.546
 5957SOL    HW119768   8.397  13.093   4.526
 5957SOL    HW219769   8.535  13.142   4.564
 5958SOL     OW19770  10.718   8.103   8.901
 5958SOL    HW119771  10.707   8.028   8.960
 5958SOL    HW219772  10.673   8.175   8.944
 5959SOL     OW19773   6.101   9.898  10.071
 5959SOL    HW119774   6.108   9.992  10.053
 5959SOL    HW219775   6.090   9.858   9.984
 5960SOL     OW19776   0.181   8.678   0.669
 5960SOL    HW119777   0.239   8.744   0.708
 5960SOL    HW219778   0.205   8.596   0.712
 5961SOL     OW19779   2.430   8.071   1.615
 5961SOL    HW119780   2.476   8.128   1.554
 5961SOL    HW219781   2.384   8.131   1.674
 5962SOL     OW19782   3.001   4.126   1.530
 5962SOL    HW119783   2.968   4.191   1.468
 5962SOL    HW219784   2.926   4.104   1.584
 5963SOL     OW19785   8.732   7.796   0.145
 5963SOL    HW119786   8.788   7.853   0.199
 5963SOL    HW219787   8.729   7.840   0.060
 5964SOL     OW19788  12.113   8.041   5.650
 5964SOL    HW119789  12.156   7.957   5.668
 5964SOL    HW219790  12.184   8.105   5.655
 5965SOL     OW19791  10.515  13.824   1.050
 5965SOL    HW119792  10.501  13.913   1.018
 5965SOL    HW219793  10.546  13.776   0.973
 5966SOL     OW19794   6.581   1.177   7.245
 5966SOL    HW119795   6.633   1.235   7.189
 5966SOL    HW219796   6.596   1.210   7.333
 5967SOL     OW19797  11.749   3.949   4.942
 5967SOL    HW119798  11.670   3.920   4.897
 5967SOL    HW219799  11.739   4.044   4.947
 5968SOL     OW19800  11.652   3.324  11.817
 5968SOL    HW119801  11.677   3.238  11.850
 5968SOL    HW219802  11.610   3.367  11.892
 5969SOL     OW19803  13.816   1.640  11.765
 5969SOL    HW119804  13.761   1.717  11.753
 5969SOL    HW219805  13.783   1.576  11.703
 5970SOL     OW19806   5.247   1.240   8.051
 5970SOL    HW119807   5.296   1.279   8.124
 5970SOL    HW219808   5.251   1.306   7.982
 5971SOL     OW19809   1.387   1.788   2.643
 5971SOL    HW119810   1.296   1.816   2.644
 5971SOL    HW219811   1.427   1.834   2.717
 5972SOL     OW19812  12.958   4.115   0.525
 5972SOL    HW119813  12.973   4.201   0.485
 5972SOL    HW219814  13.022   4.057   0.485
 5973SOL     OW19815   9.953   1.461   0.886
 5973SOL    HW119816   9.890   1.531   0.900
 5973SOL    HW219817   9.900   1.383   0.869
 5974SOL     OW19818   2.019   2.823  10.452
 5974SOL    HW119819   1.988   2.763  10.519
 5974SOL    HW219820   2.114   2.814  10.453
 5975SOL     OW19821   8.633   7.990   5.760
 5975SOL    HW119822   8.576   8.065   5.778
 5975SOL    HW219823   8.595   7.948   5.683
 5976SOL     OW19824  10.227   3.296  11.576
 5976SOL    HW119825  10.206   3.389  11.586
 5976SOL    HW219826  10.289   3.278  11.647
 5977SOL     OW19827  11.057   2.658   7.065
 5977SOL    HW119828  10.965   2.685   7.061
 5977SOL    HW219829  11.088   2.693   7.148
 5978SOL     OW19830   6.242   1.896   0.852
 5978SOL    HW119831   6.333   1.921   0.835
 5978SOL    HW219832   6.244   1.861   0.941
 5979SOL     OW19833  12.823   8.129   0.880
 5979SOL    HW119834  12.824   8.044   0.924
 5979SOL    HW219835  12.867   8.188   0.942
 5980SOL     OW19836  12.360   6.207   8.307
 5980SOL    HW119837  12.307   6.254   8.241
 5980SOL    HW219838  12.368   6.118   8.273
 5981SOL     OW19839   4.559   7.828   8.021
 5981SOL    HW119840   4.601   7.769   7.958
 5981SOL    HW219841   4.622   7.834   8.093
 5982SOL     OW19842   4.901   9.046  11.118
 5982SOL    HW119843   4.970   9.028  11.054
 5982SOL    HW219844   4.933   9.006  11.199
 5983SOL     OW19845   1.196   7.757   9.265
 5983SOL    HW119846   1.110   7.783   9.233
 5983SOL    HW219847   1.226   7.691   9.203
 5984SOL     OW19848   9.140  13.772   3.814
 5984SOL    HW119849   9.109  13.684   3.834
 5984SOL    HW219850   9.202  13.793   3.885
 5985SOL     OW19851   0.485  11.882   2.151
 5985SOL    HW119852   0.509  11.856   2.062
 5985SOL    HW219853   0.543  11.831   2.208
 5986SOL     OW19854  10.727   0.726   3.771
 5986SOL    HW119855  10.674   0.757   3.844
 5986SOL    HW219856  10.694   0.775   3.695
 5987SOL     OW19857   9.528   9.989   0.889
 5987SOL    HW119858   9.489  10.000   0.802
 5987SOL    HW219859   9.608   9.939   0.873
 5988SOL     OW19860   4.532  12.239   2.946
 5988SOL    HW119861   4.509  12.332   2.947
 5988SOL    HW219862   4.621  12.237   2.911
 5989SOL     OW19863   9.157   9.989  12.708
 5989SOL    HW119864   9.107   9.943  12.641
 5989SOL    HW219865   9.188   9.919  12.766
 5990SOL     OW19866   9.787   5.198   1.418
 5990SOL    HW119867   9.788   5.186   1.513
 5990SOL    HW219868   9.719   5.137   1.388
 5991SOL     OW19869   1.838   6.721   7.406
 5991SOL    HW119870   1.814   6.743   7.496
 5991SOL    HW219871   1.828   6.627   7.401
 5992SOL     OW19872   0.731   3.380   6.991
 5992SOL    HW119873   0.782   3.364   6.911
 5992SOL    HW219874   0.791   3.360   7.062
 5993SOL     OW19875   8.934   4.321   3.332
 5993SOL    HW119876   8.913   4.388   3.267
 5993SOL    HW219877   8.925   4.365   3.416
 5994SOL     OW19878   7.089   0.523   2.356
 5994SOL    HW119879   7.141   0.604   2.357
 5994SOL    HW219880   7.023   0.538   2.288
 5995SOL     OW19881   1.528  12.188   9.855
 5995SOL    HW119882   1.464  12.259   9.847
 5995SOL    HW219883   1.558  12.193   9.945
 5996SOL     OW19884   2.390   2.770   5.570
 5996SOL    HW119885   2.471   2.807   5.606
 5996SOL    HW219886   2.349   2.725   5.644
 5997SOL     OW19887   4.868  14.062   1.242
 5997SOL    HW119888   4.876  14.150   1.204
 5997SOL    HW219889   4.869  14.004   1.166
 5998SOL     OW19890   2.631  12.593  14.004
 5998SOL    HW119891   2.685  12.658  14.050
 5998SOL    HW219892   2.694  12.528  13.974
 5999SOL     OW19893  12.858   8.843   1.497
 5999SOL    HW119894  12.837   8.900   1.422
 5999SOL    HW219895  12.953   8.851   1.507
 6000SOL     OW19896  12.986   9.020   2.890
 6000SOL    HW119897  13.001   9.031   2.796
 6000SOL    HW219898  12.890   9.016   2.899
 6001SOL     OW19899   4.191   1.214   6.359
 6001SOL    HW119900   4.213   1.233   6.268
 6001SOL    HW219901   4.154   1.126   6.356
 6002SOL     OW19902   4.479   8.277  14.330
 6002SOL    HW119903   4.500   8.185  14.312
 6002SOL    HW219904   4.384   8.282  14.323
 6003SOL     OW19905   8.427   4.917   0.689
 6003SOL    HW119906   8.450   5.010   0.686
 6003SOL    HW219907   8.463   4.881   0.608
 6004SOL     OW19908   5.253  14.756   1.649
 6004SOL    HW119909   5.158  14.762   1.637
 6004SOL    HW219910   5.264  14.703   1.728
 6005SOL     OW19911   1.182   8.917  12.273
 6005SOL    HW119912   1.256   8.877  12.229
 6005SOL    HW219913   1.200   8.904  12.366
 6006SOL     OW19914   8.948  13.120   4.508
 6006SOL    HW119915   8.995  13.072   4.439
 6006SOL    HW219916   9.005  13.193   4.530
 6007SOL     OW19917   9.228   6.760  10.563
 6007SOL    HW119918   9.260   6.760  10.472
 6007SOL    HW219919   9.247   6.672  10.595
 6008SOL     OW19920  13.427   7.504   5.046
 6008SOL    HW119921  13.491   7.470   5.109
 6008SOL    HW219922  13.389   7.426   5.005
 6009SOL     OW19923   8.806   8.858   0.921
 6009SOL    HW119924   8.764   8.774   0.936
 6009SOL    HW219925   8.823   8.860   0.826
 6010SOL     OW19926  11.933   2.116   2.959
 6010SOL    HW119927  12.000   2.152   2.900
 6010SOL    HW219928  11.954   2.153   3.044
 6011SOL     OW19929  11.597   7.195   4.871
 6011SOL    HW119930  11.692   7.191   4.877
 6011SOL    HW219931  11.567   7.111   4.907
 6012SOL     OW19932   4.420   1.530   6.894
 6012SOL    HW119933   4.373   1.449   6.914
 6012SOL    HW219934   4.405   1.544   6.801
 6013SOL     OW19935   3.776   4.328   6.527
 6013SOL    HW119936   3.755   4.381   6.450
 6013SOL    HW219937   3.869   4.347   6.543
 6014SOL     OW19938   0.447  12.007   9.808
 6014SOL    HW119939   0.495  12.090   9.813
 6014SOL    HW219940   0.512  11.944   9.776
 6015SOL     OW19941   4.910  10.704   4.662
 6015SOL    HW119942   4.999  10.737   4.653
 6015SOL    HW219943   4.854  10.781   4.651
 6016SOL     OW19944   0.773   7.289  10.654
 6016SOL    HW119945   0.806   7.257  10.738
 6016SOL    HW219946   0.772   7.211  10.598
 6017SOL     OW19947  11.142   5.305   6.231
 6017SOL    HW119948  11.169   5.354   6.153
 6017SOL    HW219949  11.053   5.336   6.249
 6018SOL     OW19950  13.353   0.430   0.789
 6018SOL    HW119951  13.272   0.469   0.756
 6018SOL    HW219952  13.392   0.386   0.713
 6019SOL     OW19953   7.297  14.618   7.715
 6019SOL    HW119954   7.364  14.555   7.689
 6019SOL    HW219955   7.343  14.679   7.773
 6020SOL     OW19956  13.393   5.937  11.367
 6020SOL    HW119957  13.391   5.962  11.459
 6020SOL    HW219958  13.485   5.927  11.346
 6021SOL     OW19959   9.261  11.816  14.792
 6021SOL    HW119960   9.293  11.873  14.863
 6021SOL    HW219961   9.206  11.873  14.739
 6022SOL     OW19962   5.533  14.303   0.058
 6022SOL    HW119963   5.518  14.397   0.050
 6022SOL    HW219964   5.486  14.278   0.138
 6023SOL     OW19965   8.539  13.514  11.626
 6023SOL    HW119966   8.490  13.570  11.686
 6023SOL    HW219967   8.626  13.505  11.666
 6024SOL     OW19968   5.370   0.593   5.307
 6024SOL    HW119969   5.436   0.524   5.312
 6024SOL    HW219970   5.419   0.674   5.318
 6025SOL     OW19971  13.600   7.346   1.479
 6025SOL    HW119972  13.629   7.257   1.499
 6025SOL    HW219973  13.623   7.359   1.387
 6026SOL     OW19974  14.720   9.134   5.387
 6026SOL    HW119975  14.636   9.177   5.377
 6026SOL    HW219976  14.771   9.193   5.443
 6027SOL     OW19977   4.917   7.352  13.552
 6027SOL    HW119978   4.902   7.401  13.471
 6027SOL    HW219979   4.993   7.394  13.592
 6028SOL     OW19980   2.373  14.605   2.812
 6028SOL    HW119981   2.378  14.573   2.902
 6028SOL    HW219982   2.396  14.698   2.818
 6029SOL     OW19983  14.452   9.056  10.865
 6029SOL    HW119984  14.398   9.069  10.942
 6029SOL    HW219985  14.416   8.976  10.824
 6030SOL     OW19986   4.927  11.218   4.469
 6030SOL    HW119987   4.854  11.215   4.407
 6030SOL    HW219988   4.893  11.174   4.547
 6031SOL     OW19989   5.423   0.046   4.645
 6031SOL    HW119990   5.445  14.871   4.572
 6031SOL    HW219991   5.443  14.877   4.723
 6032SOL     OW19992   5.421   9.609  14.295
 6032SOL    HW119993   5.492   9.637  14.237
 6032SOL    HW219994   5.438   9.516  14.309
 6033SOL     OW19995   7.486  10.038   8.224
 6033SOL    HW119996   7.414  10.061   8.166
 6033SOL    HW219997   7.475   9.944   8.240
 6034SOL     OW19998   9.887   8.660  10.192
 6034SOL    HW119999   9.982   8.649  10.182
 6034SOL    HW220000   9.866   8.611  10.272
 6035SOL     OW20001   6.418   9.232   1.613
 6035SOL    HW120002   6.396   9.319   1.647
 6035SOL    HW220003   6.460   9.249   1.528
 6036SOL     OW20004   6.347   3.351  11.837
 6036SOL    HW120005   6.388   3.375  11.754
 6036SOL    HW220006   6.280   3.288  11.813
 6037SOL     OW20007   3.176  12.653   9.642
 6037SOL    HW120008   3.187  12.720   9.709
 6037SOL    HW220009   3.173  12.571   9.690
 6038SOL     OW20010   1.384  13.180   3.490
 6038SOL    HW120011   1.326  13.249   3.457
 6038SOL    HW220012   1.371  13.182   3.585
 6039SOL     OW20013  10.427   0.180  10.345
 6039SOL    HW120014  10.495   0.247  10.340
 6039SOL    HW220015  10.433   0.147  10.435
 6040SOL     OW20016   8.072  11.601   6.255
 6040SOL    HW120017   8.018  11.573   6.329
 6040SOL    HW220018   8.155  11.626   6.296
 6041SOL     OW20019  13.276   5.334   3.843
 6041SOL    HW120020  13.333   5.400   3.881
 6041SOL    HW220021  13.239   5.287   3.918
 6042SOL     OW20022   5.962   8.820  12.393
 6042SOL    HW120023   5.951   8.788  12.303
 6042SOL    HW220024   5.875   8.845  12.421
 6043SOL     OW20025   1.937   5.543   0.337
 6043SOL    HW120026   1.969   5.550   0.427
 6043SOL    HW220027   1.894   5.457   0.334
 6044SOL     OW20028   0.086   2.362  14.295
 6044SOL    HW120029   0.146   2.292  14.268
 6044SOL    HW220030   0.003   2.340  14.252
 6045SOL     OW20031  13.884   0.901   6.636
 6045SOL    HW120032  13.788   0.909   6.636
 6045SOL    HW220033  13.907   0.886   6.544
 6046SOL     OW20034  10.771   7.933   6.693
 6046SOL    HW120035  10.848   7.914   6.747
 6046SOL    HW220036  10.701   7.882   6.733
 6047SOL     OW20037  12.841   8.018   4.288
 6047SOL    HW120038  12.800   8.003   4.374
 6047SOL    HW220039  12.823   8.110   4.269
 6048SOL     OW20040   0.199   4.087  12.635
 6048SOL    HW120041   0.236   4.144  12.703
 6048SOL    HW220042   0.267   4.083  12.567
 6049SOL     OW20043  13.247   2.049  13.608
 6049SOL    HW120044  13.163   2.089  13.588
 6049SOL    HW220045  13.227   1.956  13.621
 6050SOL     OW20046   2.390  12.997   1.554
 6050SOL    HW120047   2.379  12.906   1.527
 6050SOL    HW220048   2.476  13.000   1.596
 6051SOL     OW20049  12.471  13.127   5.712
 6051SOL    HW120050  12.560  13.143   5.744
 6051SOL    HW220051  12.464  13.032   5.706
 6052SOL     OW20052   0.482   5.867   1.761
 6052SOL    HW120053   0.472   5.797   1.825
 6052SOL    HW220054   0.564   5.847   1.716
 6053SOL     OW20055   5.283   5.053   3.748
 6053SOL    HW120056   5.254   5.086   3.663
 6053SOL    HW220057   5.211   5.074   3.808
 6054SOL     OW20058  14.143  10.241   6.518
 6054SOL    HW120059  14.106  10.160   6.555
 6054SOL    HW220060  14.230  10.215   6.486
 6055SOL     OW20061   5.083   1.650   0.193
 6055SOL    HW120062   5.141   1.725   0.207
 6055SOL    HW220063   5.141   1.575   0.184
 6056SOL     OW20064   0.188  12.222   6.229
 6056SOL    HW120065   0.165  12.133   6.257
 6056SOL    HW220066   0.240  12.257   6.302
 6057SOL     OW20067  13.318   2.626   2.833
 6057SOL    HW120068  13.227   2.643   2.856
 6057SOL    HW220069  13.332   2.675   2.752
 6058SOL     OW20070   1.580  11.551  14.685
 6058SOL    HW120071   1.664  11.587  14.659
 6058SOL    HW220072   1.597  11.507  14.768
 6059SOL     OW20073   1.166   6.102   6.358
 6059SOL    HW120074   1.147   6.089   6.265
 6059SOL    HW220075   1.161   6.014   6.396
 6060SOL     OW20076   6.211  13.689   2.920
 6060SOL    HW120077   6.256  13.609   2.891
 6060SOL    HW220078   6.223  13.689   3.015
 6061SOL     OW20079  12.245  11.168  10.751
 6061SOL    HW120080  12.175  11.221  10.788
 6061SOL    HW220081  12.276  11.114  10.824
 6062SOL     OW20082  12.924  12.371  13.720
 6062SOL    HW120083  12.939  12.442  13.783
 6062SOL    HW220084  12.915  12.416  13.636
 6063SOL     OW20085   2.567   0.008  14.372
 6063SOL    HW120086   2.566  14.795  14.358
 6063SOL    HW220087   2.569   0.018  14.467
 6064SOL     OW20088   9.128   9.522  14.318
 6064SOL    HW120089   9.221   9.501  14.309
 6064SOL    HW220090   9.105   9.564  14.235
 6065SOL     OW20091   5.530   4.425   4.176
 6065SOL    HW120092   5.542   4.515   4.207
 6065SOL    HW220093   5.470   4.434   4.101
 6066SOL     OW20094   7.593   8.927   0.616
 6066SOL    HW120095   7.616   8.919   0.523
 6066SOL    HW220096   7.629   9.012   0.641
 6067SOL     OW20097   2.530  14.143   7.451
 6067SOL    HW120098   2.490  14.097   7.525
 6067SOL    HW220099   2.624  14.127   7.462
 6068SOL     OW20100   5.314   9.017   3.313
 6068SOL    HW120101   5.250   9.033   3.244
 6068SOL    HW220102   5.398   9.017   3.268
 6069SOL     OW20103   1.397   9.076   6.049
 6069SOL    HW120104   1.334   9.004   6.054
 6069SOL    HW220105   1.389   9.122   6.132
 6070SOL     OW20106  13.147  14.498  14.368
 6070SOL    HW120107  13.073  14.441  14.387
 6070SOL    HW220108  13.223  14.453  14.405
 6071SOL     OW20109  12.381  12.927  10.607
 6071SOL    HW120110  12.335  12.984  10.669
 6071SOL    HW220111  12.423  12.861  10.662
 6072SOL     OW20112   5.806  10.266  13.282
 6072SOL    HW120113   5.866  10.226  13.219
 6072SOL    HW220114   5.778  10.194  13.337
 6073SOL     OW20115   1.823   3.552  14.787
 6073SOL    HW120116   1.789   3.486  14.726
 6073SOL    HW220117   1.910   3.520  14.810
 6074SOL     OW20118   8.710  14.815   8.422
 6074SOL    HW120119   8.662  14.771   8.493
 6074SOL    HW220120   8.672   0.021   8.419
 6075SOL     OW20121  12.534   2.900   5.869
 6075SOL    HW120122  12.585   2.966   5.916
 6075SOL    HW220123  12.540   2.822   5.924
 6076SOL     OW20124   4.000   5.230   8.588
 6076SOL    HW120125   3.962   5.294   8.649
 6076SOL    HW220126   3.935   5.160   8.584
 6077SOL     OW20127   5.419   1.195  11.587
 6077SOL    HW120128   5.422   1.285  11.620
 6077SOL    HW220129   5.327   1.180  11.565
 6078SOL     OW20130  13.292   2.565   9.784
 6078SOL    HW120131  13.355   2.555   9.856
 6078SOL    HW220132  13.333   2.520   9.710
 6079SOL     OW20133  14.630  14.849   2.991
 6079SOL    HW120134  14.674  14.764   2.987
 6079SOL    HW220135  14.670   0.018   2.920
 6080SOL     OW20136  14.508   1.645  14.793
 6080SOL    HW120137  14.570   1.589  14.840
 6080SOL    HW220138  14.499   1.603  14.708
 6081SOL     OW20139   3.527   6.064  13.507
 6081SOL    HW120140   3.504   6.145  13.552
 6081SOL    HW220141   3.445   6.035  13.466
 6082SOL     OW20142   2.407   5.977   0.448
 6082SOL    HW120143   2.455   6.036   0.391
 6082SOL    HW220144   2.435   5.889   0.420
 6083SOL     OW20145   5.861  12.641   2.458
 6083SOL    HW120146   5.824  12.560   2.493
 6083SOL    HW220147   5.871  12.624   2.364
 6084SOL     OW20148   6.034   8.709  10.936
 6084SOL    HW120149   6.028   8.620  10.970
 6084SOL    HW220150   6.026   8.765  11.014
 6085SOL     OW20151   8.675   7.962  11.792
 6085SOL    HW120152   8.593   7.912  11.796
 6085SOL    HW220153   8.693   7.971  11.699
 6086SOL     OW20154   1.777   1.308  12.057
 6086SOL    HW120155   1.702   1.257  12.087
 6086SOL    HW220156   1.749   1.345  11.973
 6087SOL     OW20157   9.898  13.897   1.283
 6087SOL    HW120158   9.915  13.928   1.194
 6087SOL    HW220159   9.864  13.808   1.271
 6088SOL     OW20160  14.053   8.867   5.910
 6088SOL    HW120161  14.118   8.860   5.980
 6088SOL    HW220162  14.089   8.816   5.838
 6089SOL     OW20163   3.660   3.495   1.183
 6089SOL    HW120164   3.644   3.515   1.090
 6089SOL    HW220165   3.593   3.545   1.230
 6090SOL     OW20166  11.406   6.909   0.759
 6090SOL    HW120167  11.333   6.883   0.814
 6090SOL    HW220168  11.476   6.931   0.820
 6091SOL     OW20169  14.596   3.869  11.795
 6091SOL    HW120170  14.563   3.779  11.790
 6091SOL    HW220171  14.550   3.907  11.869
 6092SOL     OW20172  12.531  10.236  12.548
 6092SOL    HW120173  12.573  10.295  12.611
 6092SOL    HW220174  12.594  10.226  12.477
 6093SOL     OW20175   4.974  11.112   5.521
 6093SOL    HW120176   4.898  11.153   5.479
 6093SOL    HW220177   4.957  11.018   5.514
 6094SOL     OW20178  12.596   2.144   3.815
 6094SOL    HW120179  12.578   2.109   3.903
 6094SOL    HW220180  12.511   2.148   3.772
 6095SOL     OW20181  14.694  14.157   1.885
 6095SOL    HW120182  14.753  14.086   1.909
 6095SOL    HW220183  14.747  14.237   1.894
 6096SOL     OW20184   6.892   2.360  11.206
 6096SOL    HW120185   6.924   2.295  11.144
 6096SOL    HW220186   6.948   2.437  11.191
 6097SOL     OW20187   5.098   5.200   7.299
 6097SOL    HW120188   5.128   5.290   7.285
 6097SOL    HW220189   5.015   5.210   7.346
 6098SOL     OW20190   4.338  11.276   1.200
 6098SOL    HW120191   4.336  11.273   1.296
 6098SOL    HW220192   4.256  11.320   1.176
 6099SOL     OW20193   2.194   5.639  10.665
 6099SOL    HW120194   2.264   5.660  10.602
 6099SOL    HW220195   2.227   5.672  10.749
 6100SOL     OW20196   7.143  14.694   5.310
 6100SOL    HW120197   7.179  14.780   5.331
 6100SOL    HW220198   7.130  14.651   5.394
 6101SOL     OW20199   8.236   8.345   6.994
 6101SOL    HW120200   8.191   8.370   6.914
 6101SOL    HW220201   8.167   8.318   7.054
 6102SOL     OW20202   4.258   2.419  13.526
 6102SOL    HW120203   4.167   2.409  13.500
 6102SOL    HW220204   4.267   2.512  13.548
 6103SOL     OW20205   5.574  10.250  14.381
 6103SOL    HW120206   5.638  10.183  14.359
 6103SOL    HW220207   5.602  10.284  14.466
 6104SOL     OW20208  10.922   9.243  13.031
 6104SOL    HW120209  10.853   9.241  12.965
 6104SOL    HW220210  10.986   9.178  13.001
 6105SOL     OW20211   6.971  11.157   8.582
 6105SOL    HW120212   7.033  11.085   8.571
 6105SOL    HW220213   7.016  11.233   8.546
 6106SOL     OW20214   8.243  14.695  13.465
 6106SOL    HW120215   8.163  14.661  13.424
 6106SOL    HW220216   8.241  14.662  13.554
 6107SOL     OW20217   1.922  10.324   5.758
 6107SOL    HW120218   1.996  10.276   5.721
 6107SOL    HW220219   1.844  10.283   5.719
 6108SOL     OW20220   8.610   7.387   8.564
 6108SOL    HW120221   8.582   7.432   8.484
 6108SOL    HW220222   8.551   7.419   8.632
 6109SOL     OW20223   1.586   2.196   4.500
 6109SOL    HW120224   1.552   2.261   4.562
 6109SOL    HW220225   1.627   2.248   4.431
 6110SOL     OW20226  10.707   6.047   2.978
 6110SOL    HW120227  10.653   6.073   2.904
 6110SOL    HW220228  10.724   6.128   3.026
 6111SOL     OW20229   6.272  13.953   9.754
 6111SOL    HW120230   6.269  14.025   9.817
 6111SOL    HW220231   6.180  13.935   9.734
 6112SOL     OW20232   8.593  14.718  12.351
 6112SOL    HW120233   8.579  14.729  12.445
 6112SOL    HW220234   8.680  14.755  12.335
 6113SOL     OW20235   0.803  12.653  12.809
 6113SOL    HW120236   0.711  12.627  12.809
 6113SOL    HW220237   0.850  12.577  12.774
 6114SOL     OW20238   4.775   4.197   5.613
 6114SOL    HW120239   4.825   4.153   5.543
 6114SOL    HW220240   4.833   4.193   5.689
 6115SOL     OW20241   9.369  10.009   4.232
 6115SOL    HW120242   9.344   9.946   4.164
 6115SOL    HW220243   9.336  10.093   4.201
 6116SOL     OW20244   9.053   7.182   8.271
 6116SOL    HW120245   9.139   7.166   8.312
 6116SOL    HW220246   8.991   7.169   8.342
 6117SOL     OW20247  10.189   8.101   7.140
 6117SOL    HW120248  10.119   8.072   7.198
 6117SOL    HW220249  10.260   8.127   7.199
 6118SOL     OW20250  10.751   8.120   3.690
 6118SOL    HW120251  10.820   8.185   3.678
 6118SOL    HW220252  10.761   8.060   3.616
 6119SOL     OW20253   0.588   8.183   8.435
 6119SOL    HW120254   0.677   8.172   8.403
 6119SOL    HW220255   0.594   8.251   8.502
 6120SOL     OW20256   4.614   4.725  14.765
 6120SOL    HW120257   4.549   4.748  14.698
 6120SOL    HW220258   4.695   4.764  14.734
 6121SOL     OW20259   7.697   7.347   0.463
 6121SOL    HW120260   7.729   7.437   0.460
 6121SOL    HW220261   7.776   7.294   0.473
 6122SOL     OW20262   3.378   4.561   7.026
 6122SOL    HW120263   3.415   4.474   7.028
 6122SOL    HW220264   3.312   4.558   6.956
 6123SOL     OW20265  11.895   2.818   5.829
 6123SOL    HW120266  11.893   2.725   5.852
 6123SOL    HW220267  11.967   2.853   5.881
 6124SOL     OW20268   2.829   4.880   6.840
 6124SOL    HW120269   2.828   4.868   6.745
 6124SOL    HW220270   2.915   4.917   6.859
 6125SOL     OW20271   0.563   0.456   0.320
 6125SOL    HW120272   0.487   0.413   0.279
 6125SOL    HW220273   0.638   0.401   0.293
 6126SOL     OW20274   9.323   6.176   8.845
 6126SOL    HW120275   9.317   6.083   8.824
 6126SOL    HW220276   9.416   6.197   8.836
 6127SOL     OW20277   7.352   4.425   9.839
 6127SOL    HW120278   7.316   4.349   9.886
 6127SOL    HW220279   7.360   4.395   9.748
 6128SOL     OW20280  13.919   0.553   7.992
 6128SOL    HW120281  13.881   0.618   8.050
 6128SOL    HW220282  14.012   0.577   7.986
 6129SOL     OW20283   4.680  13.065   2.913
 6129SOL    HW120284   4.682  13.157   2.887
 6129SOL    HW220285   4.770  13.044   2.936
 6130SOL     OW20286  10.563   9.134  12.315
 6130SOL    HW120287  10.543   9.106  12.225
 6130SOL    HW220288  10.627   9.204  12.305
 6131SOL     OW20289  14.578   5.312   6.672
 6131SOL    HW120290  14.483   5.323   6.677
 6131SOL    HW220291  14.591   5.223   6.638
 6132SOL     OW20292   4.318  10.397   7.877
 6132SOL    HW120293   4.409  10.412   7.902
 6132SOL    HW220294   4.319  10.395   7.781
 6133SOL     OW20295   9.367  14.321   6.492
 6133SOL    HW120296   9.339  14.299   6.403
 6133SOL    HW220297   9.445  14.376   6.479
 6134SOL     OW20298   9.843   9.267   5.220
 6134SOL    HW120299   9.799   9.183   5.231
 6134SOL    HW220300   9.821   9.317   5.299
 6135SOL     OW20301   3.237   8.233   3.393
 6135SOL    HW120302   3.293   8.214   3.318
 6135SOL    HW220303   3.148   8.214   3.362
 6136SOL     OW20304  10.531   0.628   6.219
 6136SOL    HW120305  10.542   0.577   6.139
 6136SOL    HW220306  10.540   0.719   6.190
 6137SOL     OW20307   5.653   5.230  12.935
 6137SOL    HW120308   5.575   5.182  12.908
 6137SOL    HW220309   5.619   5.314  12.969
 6138SOL     OW20310  12.973  13.683   9.273
 6138SOL    HW120311  13.019  13.730   9.204
 6138SOL    HW220312  12.952  13.598   9.234
 6139SOL     OW20313  11.371   4.624   8.530
 6139SOL    HW120314  11.275   4.620   8.525
 6139SOL    HW220315  11.389   4.632   8.624
 6140SOL     OW20316   9.565   6.874   6.126
 6140SOL    HW120317   9.508   6.836   6.059
 6140SOL    HW220318   9.508   6.932   6.176
 6141SOL     OW20319  10.678   9.066   3.173
 6141SOL    HW120320  10.640   8.992   3.220
 6141SOL    HW220321  10.604   9.126   3.158
 6142SOL     OW20322   1.810   2.801   8.758
 6142SOL    HW120323   1.862   2.770   8.684
 6142SOL    HW220324   1.727   2.830   8.719
 6143SOL     OW20325   8.909  10.178   0.425
 6143SOL    HW120326   8.837  10.231   0.389
 6143SOL    HW220327   8.959  10.239   0.479
 6144SOL     OW20328   5.345  13.585  10.143
 6144SOL    HW120329   5.252  13.587  10.165
 6144SOL    HW220330   5.355  13.507  10.088
 6145SOL     OW20331   8.218  13.253   4.795
 6145SOL    HW120332   8.130  13.215   4.803
 6145SOL    HW220333   8.203  13.347   4.787
 6146SOL     OW20334  14.332  12.826   3.495
 6146SOL    HW120335  14.285  12.748   3.523
 6146SOL    HW220336  14.320  12.888   3.567
 6147SOL     OW20337  11.710   9.800  10.482
 6147SOL    HW120338  11.640   9.823  10.421
 6147SOL    HW220339  11.764   9.879  10.486
 6148SOL     OW20340   8.474  11.729   4.005
 6148SOL    HW120341   8.422  11.665   3.956
 6148SOL    HW220342   8.547  11.677   4.039
 6149SOL     OW20343   3.689  11.458   0.036
 6149SOL    HW120344   3.734  11.404  14.855
 6149SOL    HW220345   3.613  11.406   0.063
 6150SOL     OW20346   3.739  13.259   7.726
 6150SOL    HW120347   3.770  13.168   7.724
 6150SOL    HW220348   3.668  13.259   7.789
 6151SOL     OW20349   9.410   0.625  11.401
 6151SOL    HW120350   9.442   0.680  11.472
 6151SOL    HW220351   9.355   0.559  11.443
 6152SOL     OW20352   7.035   9.679  14.813
 6152SOL    HW120353   7.038   9.773  14.791
 6152SOL    HW220354   6.995   9.638  14.736
 6153SOL     OW20355   5.027   1.697   1.785
 6153SOL    HW120356   5.057   1.609   1.764
 6153SOL    HW220357   4.932   1.689   1.796
 6154SOL     OW20358   0.680   5.550  10.008
 6154SOL    HW120359   0.682   5.494   9.931
 6154SOL    HW220360   0.754   5.520  10.061
 6155SOL     OW20361   0.060   0.245  11.635
 6155SOL    HW120362   0.066   0.250  11.730
 6155SOL    HW220363   0.150   0.237  11.605
 6156SOL     OW20364   7.572   2.769   9.436
 6156SOL    HW120365   7.578   2.801   9.346
 6156SOL    HW220366   7.539   2.680   9.427
 6157SOL     OW20367  14.563   2.197   1.888
 6157SOL    HW120368  14.477   2.170   1.923
 6157SOL    HW220369  14.545   2.221   1.797
 6158SOL     OW20370   6.608   2.794   7.401
 6158SOL    HW120371   6.623   2.833   7.315
 6158SOL    HW220372   6.679   2.732   7.412
 6159SOL     OW20373   1.961   7.064  10.508
 6159SOL    HW120374   1.975   7.058  10.603
 6159SOL    HW220375   1.875   7.023  10.494
 6160SOL     OW20376  13.293   9.882   9.675
 6160SOL    HW120377  13.361   9.918   9.733
 6160SOL    HW220378  13.326   9.797   9.649
 6161SOL     OW20379   5.390  11.066   2.595
 6161SOL    HW120380   5.381  10.989   2.651
 6161SOL    HW220381   5.420  11.032   2.511
 6162SOL     OW20382   8.972  14.292   0.435
 6162SOL    HW120383   8.993  14.336   0.353
 6162SOL    HW220384   9.012  14.206   0.428
 6163SOL     OW20385   3.093   2.826   6.313
 6163SOL    HW120386   3.085   2.849   6.221
 6163SOL    HW220387   3.179   2.861   6.339
 6164SOL     OW20388   8.478  12.146   9.992
 6164SOL    HW120389   8.488  12.229  10.039
 6164SOL    HW220390   8.417  12.166   9.921
 6165SOL     OW20391   9.926   9.756   2.990
 6165SOL    HW120392   9.857   9.781   3.051
 6165SOL    HW220393   9.912   9.662   2.975
 6166SOL     OW20394   7.748   3.628   7.440
 6166SOL    HW120395   7.725   3.562   7.506
 6166SOL    HW220396   7.718   3.590   7.357
 6167SOL     OW20397   5.830   4.099   9.970
 6167SOL    HW120398   5.768   4.163  10.006
 6167SOL    HW220399   5.776   4.043   9.914
 6168SOL     OW20400   8.315  11.353  13.924
 6168SOL    HW120401   8.407  11.355  13.950
 6168SOL    HW220402   8.289  11.445  13.918
 6169SOL     OW20403   4.933  11.404   3.241
 6169SOL    HW120404   4.905  11.444   3.159
 6169SOL    HW220405   4.938  11.476   3.303
 6170SOL     OW20406  12.451  12.490  12.308
 6170SOL    HW120407  12.532  12.452  12.342
 6170SOL    HW220408  12.385  12.470  12.375
 6171SOL     OW20409   1.252   4.907  10.777
 6171SOL    HW120410   1.192   4.900  10.852
 6171SOL    HW220411   1.220   4.840  10.716
 6172SOL     OW20412  13.478   7.413  12.638
 6172SOL    HW120413  13.426   7.456  12.706
 6172SOL    HW220414  13.417   7.352  12.595
 6173SOL     OW20415   3.374   8.808  11.389
 6173SOL    HW120416   3.463   8.815  11.424
 6173SOL    HW220417   3.343   8.723  11.420
 6174SOL     OW20418  14.564   7.225   7.176
 6174SOL    HW120419  14.478   7.251   7.208
 6174SOL    HW220420  14.598   7.302   7.131
 6175SOL     OW20421   6.408   0.759   1.986
 6175SOL    HW120422   6.390   0.830   2.047
 6175SOL    HW220423   6.426   0.803   1.903
 6176SOL     OW20424   7.420  10.053  10.751
 6176SOL    HW120425   7.459  10.006  10.825
 6176SOL    HW220426   7.496  10.087  10.703
 6177SOL     OW20427  14.604  10.447  13.548
 6177SOL    HW120428  14.601  10.496  13.630
 6177SOL    HW220429  14.622  10.357  13.575
 6178SOL     OW20430   0.431  10.612   6.878
 6178SOL    HW120431   0.356  10.644   6.828
 6178SOL    HW220432   0.465  10.690   6.921
 6179SOL     OW20433   9.066   8.818   8.131
 6179SOL    HW120434   9.071   8.739   8.077
 6179SOL    HW220435   8.974   8.842   8.130
 6180SOL     OW20436  10.808   9.744   3.819
 6180SOL    HW120437  10.828   9.654   3.795
 6180SOL    HW220438  10.725   9.738   3.866
 6181SOL     OW20439   6.366   8.843   8.126
 6181SOL    HW120440   6.390   8.751   8.132
 6181SOL    HW220441   6.354   8.871   8.217
 6182SOL     OW20442   9.042  10.500   7.128
 6182SOL    HW120443   9.016  10.581   7.170
 6182SOL    HW220444   8.989  10.496   7.048
 6183SOL     OW20445   8.166  10.403   3.820
 6183SOL    HW120446   8.256  10.419   3.849
 6183SOL    HW220447   8.115  10.399   3.901
 6184SOL     OW20448   5.285   9.181   5.696
 6184SOL    HW120449   5.375   9.199   5.721
 6184SOL    HW220450   5.291   9.145   5.607
 6185SOL     OW20451  10.323   9.831  12.045
 6185SOL    HW120452  10.276   9.903  12.003
 6185SOL    HW220453  10.406   9.870  12.072
 6186SOL     OW20454   1.668   0.012   0.544
 6186SOL    HW120455   1.695  14.840   0.618
 6186SOL    HW220456   1.624   0.087   0.583
 6187SOL     OW20457  11.553  12.857   8.772
 6187SOL    HW120458  11.529  12.833   8.682
 6187SOL    HW220459  11.631  12.911   8.762
 6188SOL     OW20460   0.131  11.063  12.211
 6188SOL    HW120461   0.118  11.005  12.136
 6188SOL    HW220462   0.125  11.152  12.174
 6189SOL     OW20463   8.609   1.356   8.096
 6189SOL    HW120464   8.555   1.426   8.134
 6189SOL    HW220465   8.573   1.276   8.133
 6190SOL     OW20466  10.148  14.166  10.350
 6190SOL    HW120467  10.235  14.165  10.388
 6190SOL    HW220468  10.141  14.081  10.306
 6191SOL     OW20469  13.932   0.013   6.142
 6191SOL    HW120470  14.018  14.878   6.182
 6191SOL    HW220471  13.897   0.086   6.194
 6192SOL     OW20472   7.511   8.221   7.605
 6192SOL    HW120473   7.458   8.216   7.525
 6192SOL    HW220474   7.600   8.201   7.575
 6193SOL     OW20475   2.501   3.146   2.188
 6193SOL    HW120476   2.442   3.191   2.128
 6193SOL    HW220477   2.465   3.058   2.195
 6194SOL     OW20478  12.457   9.045  12.646
 6194SOL    HW120479  12.545   9.041  12.608
 6194SOL    HW220480  12.471   9.033  12.740
 6195SOL     OW20481   9.402   0.809   0.300
 6195SOL    HW120482   9.339   0.856   0.356
 6195SOL    HW220483   9.350   0.781   0.225
 6196SOL     OW20484   8.311   7.427   6.214
 6196SOL    HW120485   8.263   7.432   6.131
 6196SOL    HW220486   8.402   7.415   6.188
 6197SOL     OW20487  13.967   7.130   9.933
 6197SOL    HW120488  13.938   7.205   9.985
 6197SOL    HW220489  13.886   7.095   9.895
 6198SOL     OW20490   6.805  12.686   8.979
 6198SOL    HW120491   6.765  12.643   8.903
 6198SOL    HW220492   6.806  12.618   9.047
 6199SOL     OW20493   1.854  12.256   8.432
 6199SOL    HW120494   1.773  12.225   8.394
 6199SOL    HW220495   1.851  12.226   8.523
 6200SOL     OW20496   4.016  13.638   1.191
 6200SOL    HW120497   3.944  13.665   1.248
 6200SOL    HW220498   4.082  13.706   1.203
 6201SOL     OW20499  12.761   3.715   3.029
 6201SOL    HW120500  12.752   3.627   3.065
 6201SOL    HW220501  12.685   3.726   2.971
 6202SOL     OW20502  10.258   9.161   2.353
 6202SOL    HW120503  10.270   9.123   2.440
 6202SOL    HW220504  10.227   9.250   2.369
 6203SOL     OW20505   7.190   5.138  11.766
 6203SOL    HW120506   7.161   5.122  11.677
 6203SOL    HW220507   7.121   5.101  11.821
 6204SOL     OW20508   5.680  13.640   8.855
 6204SOL    HW120509   5.765  13.612   8.822
 6204SOL    HW220510   5.626  13.561   8.854
 6205SOL     OW20511   5.026   5.250   0.322
 6205SOL    HW120512   5.096   5.309   0.291
 6205SOL    HW220513   5.024   5.264   0.416
 6206SOL     OW20514   9.805  11.760   4.610
 6206SOL    HW120515   9.820  11.768   4.516
 6206SOL    HW220516   9.889  11.732   4.645
 6207SOL     OW20517   5.062  12.964   6.276
 6207SOL    HW120518   5.062  12.896   6.343
 6207SOL    HW220519   5.070  12.915   6.194
 6208SOL     OW20520   9.780   2.465   3.036
 6208SOL    HW120521   9.792   2.387   2.982
 6208SOL    HW220522   9.769   2.431   3.125
 6209SOL     OW20523   0.559  14.695   4.560
 6209SOL    HW120524   0.501  14.621   4.576
 6209SOL    HW220525   0.646  14.655   4.552
 6210SOL     OW20526  10.246   2.997   7.669
 6210SOL    HW120527  10.259   3.091   7.684
 6210SOL    HW220528  10.180   2.971   7.733
 6211SOL     OW20529   6.800  13.446   0.616
 6211SOL    HW120530   6.735  13.481   0.677
 6211SOL    HW220531   6.752  13.434   0.534
 6212SOL     OW20532   7.963   2.819   5.162
 6212SOL    HW120533   7.892   2.757   5.148
 6212SOL    HW220534   8.020   2.776   5.226
 6213SOL     OW20535  13.966   2.825   3.930
 6213SOL    HW120536  14.041   2.833   3.989
 6213SOL    HW220537  13.894   2.799   3.987
 6214SOL     OW20538   6.470   9.886  12.601
 6214SOL    HW120539   6.456   9.872  12.694
 6214SOL    HW220540   6.426   9.812  12.558
 6215SOL     OW20541   8.936   0.044  10.467
 6215SOL    HW120542   8.911   0.092  10.546
 6215SOL    HW220543   8.898   0.094  10.395
 6216SOL     OW20544  13.387  13.560  10.783
 6216SOL    HW120545  13.367  13.466  10.781
 6216SOL    HW220546  13.481  13.564  10.764
 6217SOL     OW20547   3.347   5.010  10.488
 6217SOL    HW120548   3.384   4.931  10.449
 6217SOL    HW220549   3.415   5.076  10.476
 6218SOL     OW20550  10.247   7.464   3.964
 6218SOL    HW120551  10.304   7.482   4.039
 6218SOL    HW220552  10.285   7.387   3.923
 6219SOL     OW20553   8.032  14.429  12.555
 6219SOL    HW120554   7.981  14.435  12.635
 6219SOL    HW220555   7.993  14.493  12.495
 6220SOL     OW20556  11.208   4.289   4.115
 6220SOL    HW120557  11.152   4.269   4.040
 6220SOL    HW220558  11.176   4.374   4.146
 6221SOL     OW20559   4.141   2.849   1.159
 6221SOL    HW120560   4.216   2.902   1.135
 6221SOL    HW220561   4.164   2.811   1.244
 6222SOL     OW20562   2.446   1.653  14.668
 6222SOL    HW120563   2.440   1.648  14.763
 6222SOL    HW220564   2.508   1.584  14.644
 6223SOL     OW20565   4.554   5.655  14.045
 6223SOL    HW120566   4.560   5.613  13.959
 6223SOL    HW220567   4.645   5.671  14.069
 6224SOL     OW20568  12.358   4.045   7.354
 6224SOL    HW120569  12.316   4.097   7.423
 6224SOL    HW220570  12.413   4.108   7.307
 6225SOL     OW20571  11.688   6.967   4.111
 6225SOL    HW120572  11.663   7.000   4.197
 6225SOL    HW220573  11.778   6.936   4.123
 6226SOL     OW20574   0.119   4.832   2.213
 6226SOL    HW120575   0.139   4.743   2.183
 6226SOL    HW220576   0.042   4.821   2.269
 6227SOL     OW20577  14.663  10.650  13.371
 6227SOL    HW120578  14.709  10.705  13.434
 6227SOL    HW220579  14.643  10.569  13.419
 6228SOL     OW20580   5.371   4.231   4.956
 6228SOL    HW120581   5.305   4.165   4.979
 6228SOL    HW220582   5.425   4.189   4.890
 6229SOL     OW20583   7.172   6.294   4.377
 6229SOL    HW120584   7.112   6.319   4.307
 6229SOL    HW220585   7.115   6.276   4.452
 6230SOL     OW20586   2.751   4.685  10.354
 6230SOL    HW120587   2.757   4.593  10.327
 6230SOL    HW220588   2.657   4.702  10.362
 6231SOL     OW20589   4.831  11.189   8.045
 6231SOL    HW120590   4.807  11.242   7.970
 6231SOL    HW220591   4.764  11.208   8.111
 6232SOL     OW20592   7.296   8.948   1.255
 6232SOL    HW120593   7.388   8.947   1.282
 6232SOL    HW220594   7.261   8.864   1.285
 6233SOL     OW20595   1.148   9.955   3.324
 6233SOL    HW120596   1.064   9.911   3.316
 6233SOL    HW220597   1.175   9.974   3.234
 6234SOL     OW20598  11.013   1.755   1.462
 6234SOL    HW120599  11.006   1.756   1.558
 6234SOL    HW220600  10.962   1.831   1.434
 6235SOL     OW20601   4.533  10.957   6.855
 6235SOL    HW120602   4.453  10.973   6.804
 6235SOL    HW220603   4.559  11.043   6.888
 6236SOL     OW20604   4.374  11.094  11.501
 6236SOL    HW120605   4.406  11.087  11.591
 6236SOL    HW220606   4.356  11.187  11.489
 6237SOL     OW20607  14.245   7.050   3.603
 6237SOL    HW120608  14.316   7.062   3.667
 6237SOL    HW220609  14.290   7.027   3.522
 6238SOL     OW20610  10.733  13.573   7.404
 6238SOL    HW120611  10.776  13.507   7.350
 6238SOL    HW220612  10.647  13.535   7.424
 6239SOL     OW20613   6.344   8.417   7.853
 6239SOL    HW120614   6.344   8.454   7.941
 6239SOL    HW220615   6.257   8.378   7.843
 6240SOL     OW20616   8.962   7.414  11.125
 6240SOL    HW120617   8.908   7.462  11.187
 6240SOL    HW220618   8.911   7.413  11.044
 6241SOL     OW20619  11.317   6.998   2.018
 6241SOL    HW120620  11.338   7.008   1.925
 6241SOL    HW220621  11.302   7.087   2.049
 6242SOL     OW20622   0.995   7.090   8.190
 6242SOL    HW120623   0.973   7.001   8.162
 6242SOL    HW220624   0.971   7.146   8.116
 6243SOL     OW20625   3.259   8.970   9.181
 6243SOL    HW120626   3.209   8.891   9.200
 6243SOL    HW220627   3.350   8.942   9.184
 6244SOL     OW20628  11.806   6.112   9.053
 6244SOL    HW120629  11.853   6.028   9.053
 6244SOL    HW220630  11.720   6.090   9.089
 6245SOL     OW20631   5.743   1.548  11.446
 6245SOL    HW120632   5.793   1.481  11.493
 6245SOL    HW220633   5.809   1.603  11.403
 6246SOL     OW20634   1.093   8.830   7.540
 6246SOL    HW120635   1.136   8.807   7.622
 6246SOL    HW220636   1.158   8.810   7.472
 6247SOL     OW20637   2.628   3.565  13.623
 6247SOL    HW120638   2.559   3.499  13.633
 6247SOL    HW220639   2.705   3.515  13.597
 6248SOL     OW20640  11.924   3.662   7.339
 6248SOL    HW120641  11.931   3.701   7.252
 6248SOL    HW220642  11.855   3.597   7.331
 6249SOL     OW20643   9.101   8.860   9.254
 6249SOL    HW120644   9.106   8.955   9.265
 6249SOL    HW220645   9.188   8.828   9.278
 6250SOL     OW20646  10.357   7.399   4.571
 6250SOL    HW120647  10.451   7.416   4.565
 6250SOL    HW220648  10.344   7.318   4.522
 6251SOL     OW20649   6.208   7.171   1.354
 6251SOL    HW120650   6.157   7.091   1.371
 6251SOL    HW220651   6.223   7.169   1.259
 6252SOL     OW20652   9.072  11.740   3.922
 6252SOL    HW120653   9.065  11.677   3.850
 6252SOL    HW220654   9.088  11.685   3.999
 6253SOL     OW20655  11.001  13.812   1.563
 6253SOL    HW120656  10.931  13.868   1.599
 6253SOL    HW220657  10.955  13.740   1.521
 6254SOL     OW20658   8.570   6.860  14.218
 6254SOL    HW120659   8.501   6.821  14.163
 6254SOL    HW220660   8.647   6.862  14.161
 6255SOL     OW20661   9.789   9.292   4.538
 6255SOL    HW120662   9.845   9.254   4.606
 6255SOL    HW220663   9.797   9.233   4.464
 6256SOL     OW20664   9.511   6.458   4.274
 6256SOL    HW120665   9.424   6.464   4.235
 6256SOL    HW220666   9.565   6.417   4.207
 6257SOL     OW20667  13.184  11.915   2.477
 6257SOL    HW120668  13.266  11.924   2.525
 6257SOL    HW220669  13.123  11.877   2.541
 6258SOL     OW20670  13.362   4.697   9.710
 6258SOL    HW120671  13.276   4.688   9.670
 6258SOL    HW220672  13.412   4.752   9.649
 6259SOL     OW20673   8.413  13.994  13.533
 6259SOL    HW120674   8.385  14.001  13.625
 6259SOL    HW220675   8.368  13.916  13.500
 6260SOL     OW20676   1.481   4.111   0.955
 6260SOL    HW120677   1.525   4.139   1.035
 6260SOL    HW220678   1.502   4.018   0.948
 6261SOL     OW20679   9.049  14.335   1.488
 6261SOL    HW120680   8.954  14.339   1.502
 6261SOL    HW220681   9.060  14.353   1.394
 6262SOL     OW20682  12.071  13.911   5.951
 6262SOL    HW120683  12.166  13.905   5.967
 6262SOL    HW220684  12.060  13.880   5.861
 6263SOL     OW20685   9.192   3.535   5.566
 6263SOL    HW120686   9.133   3.598   5.607
 6263SOL    HW220687   9.279   3.573   5.578
 6264SOL     OW20688   5.526   0.099   1.355
 6264SOL    HW120689   5.450   0.125   1.303
 6264SOL    HW220690   5.501   0.116   1.446
 6265SOL     OW20691  11.437   2.076  14.741
 6265SOL    HW120692  11.470   2.042  14.824
 6265SOL    HW220693  11.344   2.092  14.756
 6266SOL     OW20694   9.560  13.361  14.199
 6266SOL    HW120695   9.501  13.360  14.124
 6266SOL    HW220696   9.648  13.364  14.161
 6267SOL     OW20697   3.820  10.404  13.876
 6267SOL    HW120698   3.895  10.460  13.899
 6267SOL    HW220699   3.851  10.315  13.894
 6268SOL     OW20700   3.898   8.602   0.297
 6268SOL    HW120701   3.822   8.639   0.341
 6268SOL    HW220702   3.879   8.508   0.291
 6269SOL     OW20703   3.927   7.262   5.352
 6269SOL    HW120704   3.924   7.233   5.261
 6269SOL    HW220705   3.963   7.351   5.348
 6270SOL     OW20706   1.374  12.978  14.042
 6270SOL    HW120707   1.461  12.960  14.006
 6270SOL    HW220708   1.390  13.000  14.134
 6271SOL     OW20709   6.265   9.331   2.039
 6271SOL    HW120710   6.252   9.367   1.951
 6271SOL    HW220711   6.259   9.407   2.097
 6272SOL     OW20712   8.402  13.965  11.179
 6272SOL    HW120713   8.497  13.958  11.182
 6272SOL    HW220714   8.382  14.050  11.217
 6273SOL     OW20715  10.703   6.124   9.523
 6273SOL    HW120716  10.622   6.146   9.477
 6273SOL    HW220717  10.772   6.157   9.467
 6274SOL     OW20718   1.280   2.386  11.851
 6274SOL    HW120719   1.346   2.329  11.891
 6274SOL    HW220720   1.322   2.472  11.847
 6275SOL     OW20721  10.868  13.944  12.840
 6275SOL    HW120722  10.853  13.880  12.910
 6275SOL    HW220723  10.946  13.992  12.867
 6276SOL     OW20724   2.166  11.480   7.836
 6276SOL    HW120725   2.220  11.443   7.905
 6276SOL    HW220726   2.218  11.468   7.756
 6277SOL     OW20727   5.504  13.453  11.709
 6277SOL    HW120728   5.448  13.390  11.756
 6277SOL    HW220729   5.550  13.400  11.644
 6278SOL     OW20730   7.373   9.457   5.121
 6278SOL    HW120731   7.336   9.379   5.162
 6278SOL    HW220732   7.463   9.432   5.101
 6279SOL     OW20733  14.490   8.866   8.322
 6279SOL    HW120734  14.397   8.880   8.336
 6279SOL    HW220735  14.527   8.861   8.410
 6280SOL     OW20736   0.135   2.780   2.277
 6280SOL    HW120737   0.116   2.687   2.288
 6280SOL    HW220738   0.225   2.790   2.309
 6281SOL     OW20739  13.219  12.303   6.651
 6281SOL    HW120740  13.180  12.390   6.655
 6281SOL    HW220741  13.308  12.315   6.685
 6282SOL     OW20742   3.866   5.385   8.742
 6282SOL    HW120743   3.794   5.437   8.706
 6282SOL    HW220744   3.841   5.369   8.832
 6283SOL     OW20745   8.412  12.899   0.781
 6283SOL    HW120746   8.429  12.821   0.729
 6283SOL    HW220747   8.333  12.937   0.743
 6284SOL     OW20748  10.067  14.857   4.248
 6284SOL    HW120749  10.035  14.808   4.323
 6284SOL    HW220750  10.007   0.048   4.239
 6285SOL     OW20751   2.166  12.784  10.030
 6285SOL    HW120752   2.162  12.757   9.938
 6285SOL    HW220753   2.075  12.777  10.061
 6286SOL     OW20754   7.943  13.181   0.339
 6286SOL    HW120755   8.028  13.226   0.344
 6286SOL    HW220756   7.882  13.249   0.311
 6287SOL     OW20757   2.427   9.621   8.221
 6287SOL    HW120758   2.372   9.698   8.231
 6287SOL    HW220759   2.376   9.550   8.260
 6288SOL     OW20760  10.388   7.133  11.792
 6288SOL    HW120761  10.325   7.124  11.864
 6288SOL    HW220762  10.334   7.151  11.715
 6289SOL     OW20763  10.283  11.813   9.079
 6289SOL    HW120764  10.290  11.902   9.113
 6289SOL    HW220765  10.196  11.810   9.040
 6290SOL     OW20766  13.878   2.781   3.166
 6290SOL    HW120767  13.855   2.802   3.075
 6290SOL    HW220768  13.795   2.763   3.209
 6291SOL     OW20769   3.563  12.721   6.262
 6291SOL    HW120770   3.597  12.802   6.224
 6291SOL    HW220771   3.613  12.652   6.219
 6292SOL     OW20772   7.304   5.180   3.342
 6292SOL    HW120773   7.321   5.188   3.436
 6292SOL    HW220774   7.384   5.212   3.300
 6293SOL     OW20775   2.824  12.335   2.774
 6293SOL    HW120776   2.787  12.407   2.723
 6293SOL    HW220777   2.892  12.298   2.718
 6294SOL     OW20778   7.492   4.162  13.923
 6294SOL    HW120779   7.513   4.236  13.979
 6294SOL    HW220780   7.528   4.086  13.969
 6295SOL     OW20781   3.326  13.878   4.809
 6295SOL    HW120782   3.285  13.870   4.724
 6295SOL    HW220783   3.261  13.845   4.871
 6296SOL     OW20784   0.893  11.380   3.265
 6296SOL    HW120785   0.987  11.377   3.248
 6296SOL    HW220786   0.884  11.339   3.352
 6297SOL     OW20787  10.144  11.801   6.336
 6297SOL    HW120788  10.073  11.863   6.318
 6297SOL    HW220789  10.149  11.748   6.256
 6298SOL     OW20790   8.342  14.815   9.930
 6298SOL    HW120791   8.326  14.767  10.011
 6298SOL    HW220792   8.374   0.018   9.960
 6299SOL     OW20793  12.207   8.388   3.746
 6299SOL    HW120794  12.209   8.358   3.655
 6299SOL    HW220795  12.181   8.480   3.740
 6300SOL     OW20796   3.381  11.723   3.090
 6300SOL    HW120797   3.403  11.701   3.000
 6300SOL    HW220798   3.464  11.717   3.137
 6301SOL     OW20799   7.169  14.496   4.253
 6301SOL    HW120800   7.235  14.527   4.315
 6301SOL    HW220801   7.088  14.491   4.305
 6302SOL     OW20802   8.121   3.276   3.988
 6302SOL    HW120803   8.030   3.305   3.989
 6302SOL    HW220804   8.116   3.182   3.969
 6303SOL     OW20805   2.398  12.343   7.771
 6303SOL    HW120806   2.326  12.338   7.708
 6303SOL    HW220807   2.367  12.292   7.846
 6304SOL     OW20808   1.740   2.433   5.719
 6304SOL    HW120809   1.680   2.362   5.742
 6304SOL    HW220810   1.815   2.422   5.777
 6305SOL     OW20811   9.833   9.306   7.632
 6305SOL    HW120812   9.831   9.328   7.725
 6305SOL    HW220813   9.801   9.385   7.589
 6306SOL     OW20814   8.768   7.599  11.872
 6306SOL    HW120815   8.687   7.636  11.906
 6306SOL    HW220816   8.759   7.605  11.777
 6307SOL     OW20817   2.927   1.257   1.972
 6307SOL    HW120818   2.931   1.225   1.882
 6307SOL    HW220819   3.018   1.264   1.999
 6308SOL     OW20820   9.742   7.034   8.250
 6308SOL    HW120821   9.653   7.066   8.235
 6308SOL    HW220822   9.734   6.978   8.328
 6309SOL     OW20823   5.187   5.436  12.974
 6309SOL    HW120824   5.150   5.348  12.961
 6309SOL    HW220825   5.225   5.459  12.889
 6310SOL     OW20826  14.365   4.920   9.854
 6310SOL    HW120827  14.272   4.915   9.877
 6310SOL    HW220828  14.366   4.963   9.768
 6311SOL     OW20829   3.389   6.588  13.341
 6311SOL    HW120830   3.386   6.547  13.254
 6311SOL    HW220831   3.445   6.530  13.393
 6312SOL     OW20832   5.051  14.161   6.937
 6312SOL    HW120833   5.113  14.150   7.009
 6312SOL    HW220834   5.029  14.255   6.939
 6313SOL     OW20835   8.530   8.864   1.747
 6313SOL    HW120836   8.470   8.863   1.821
 6313SOL    HW220837   8.515   8.949   1.704
 6314SOL     OW20838   2.651   4.169  12.711
 6314SOL    HW120839   2.718   4.101  12.708
 6314SOL    HW220840   2.644   4.200  12.620
 6315SOL     OW20841   9.894   8.431   4.460
 6315SOL    HW120842   9.986   8.415   4.479
 6315SOL    HW220843   9.854   8.344   4.457
 6316SOL     OW20844  10.226  10.995   6.345
 6316SOL    HW120845  10.131  10.993   6.344
 6316SOL    HW220846  10.249  11.072   6.293
 6317SOL     OW20847   9.259   1.590  14.266
 6317SOL    HW120848   9.190   1.656  14.265
 6317SOL    HW220849   9.336   1.635  14.231
 6318SOL     OW20850   8.125  10.725  14.632
 6318SOL    HW120851   8.186  10.746  14.703
 6318SOL    HW220852   8.056  10.674  14.675
 6319SOL     OW20853   2.384   2.632   7.123
 6319SOL    HW120854   2.306   2.658   7.073
 6319SOL    HW220855   2.351   2.618   7.212
 6320SOL     OW20856   1.908   7.118  10.183
 6320SOL    HW120857   1.838   7.060  10.154
 6320SOL    HW220858   1.972   7.116  10.112
 6321SOL     OW20859   5.571   5.826   5.862
 6321SOL    HW120860   5.574   5.857   5.952
 6321SOL    HW220861   5.480   5.840   5.835
 6322SOL     OW20862   2.857   7.695   4.977
 6322SOL    HW120863   2.925   7.759   4.997
 6322SOL    HW220864   2.782   7.722   5.029
 6323SOL     OW20865   4.361   0.324  10.501
 6323SOL    HW120866   4.404   0.290  10.579
 6323SOL    HW220867   4.293   0.382  10.535
 6324SOL     OW20868   8.605   7.028  12.957
 6324SOL    HW120869   8.623   7.104  12.902
 6324SOL    HW220870   8.512   7.037  12.981
 6325SOL     OW20871   1.082  13.310   2.364
 6325SOL    HW120872   1.169  13.289   2.330
 6325SOL    HW220873   1.027  13.239   2.331
 6326SOL     OW20874   4.150   8.794  11.036
 6326SOL    HW120875   4.110   8.714  11.070
 6326SOL    HW220876   4.213   8.763  10.971
 6327SOL     OW20877   8.092   7.149   7.892
 6327SOL    HW120878   7.997   7.143   7.893
 6327SOL    HW220879   8.117   7.149   7.984
 6328SOL     OW20880   7.419   6.669   1.797
 6328SOL    HW120881   7.486   6.737   1.803
 6328SOL    HW220882   7.421   6.643   1.705
 6329SOL     OW20883   7.490   3.121   0.916
 6329SOL    HW120884   7.506   3.214   0.934
 6329SOL    HW220885   7.550   3.075   0.974
 6330SOL     OW20886  14.035   7.949  10.369
 6330SOL    HW120887  13.977   8.013  10.410
 6330SOL    HW220888  14.070   7.994  10.292
 6331SOL     OW20889   8.553  11.770  13.667
 6331SOL    HW120890   8.552  11.799  13.576
 6331SOL    HW220891   8.467  11.795  13.701
 6332SOL     OW20892   9.463   9.920   5.810
 6332SOL    HW120893   9.530   9.855   5.789
 6332SOL    HW220894   9.506   9.981   5.870
 6333SOL     OW20895   4.179  12.118  13.007
 6333SOL    HW120896   4.150  12.139  12.918
 6333SOL    HW220897   4.246  12.184  13.026
 6334SOL     OW20898   8.707   3.416   1.763
 6334SOL    HW120899   8.635   3.426   1.700
 6334SOL    HW220900   8.682   3.474   1.836
 6335SOL     OW20901   1.909  12.782   6.166
 6335SOL    HW120902   1.833  12.741   6.208
 6335SOL    HW220903   1.891  12.876   6.172
 6336SOL     OW20904  13.544  13.514   3.572
 6336SOL    HW120905  13.568  13.423   3.589
 6336SOL    HW220906  13.589  13.565   3.639
 6337SOL     OW20907  12.174   5.867   6.243
 6337SOL    HW120908  12.102   5.896   6.299
 6337SOL    HW220909  12.246   5.927   6.264
 6338SOL     OW20910  11.026   4.295  13.982
 6338SOL    HW120911  10.956   4.251  14.030
 6338SOL    HW220912  10.981   4.358  13.926
 6339SOL     OW20913  13.704  10.884  12.224
 6339SOL    HW120914  13.717  10.968  12.269
 6339SOL    HW220915  13.609  10.875  12.218
 6340SOL     OW20916   3.428  11.602  11.047
 6340SOL    HW120917   3.514  11.582  11.084
 6340SOL    HW220918   3.445  11.661  10.974
 6341SOL     OW20919   7.441   3.211   0.055
 6341SOL    HW120920   7.427   3.181   0.145
 6341SOL    HW220921   7.457   3.130   0.005
 6342SOL     OW20922   6.720   2.559   3.506
 6342SOL    HW120923   6.628   2.540   3.486
 6342SOL    HW220924   6.758   2.583   3.421
 6343SOL     OW20925   3.966   5.747   2.441
 6343SOL    HW120926   3.908   5.811   2.398
 6343SOL    HW220927   3.912   5.669   2.452
 6344SOL     OW20928   8.239   4.977   8.447
 6344SOL    HW120929   8.145   4.966   8.431
 6344SOL    HW220930   8.267   5.041   8.381
 6345SOL     OW20931   0.319  11.065  11.454
 6345SOL    HW120932   0.224  11.072  11.458
 6345SOL    HW220933   0.349  11.089  11.542
 6346SOL     OW20934  13.615  13.052  14.229
 6346SOL    HW120935  13.526  13.044  14.263
 6346SOL    HW220936  13.626  12.978  14.170
 6347SOL     OW20937  13.259   6.622   5.670
 6347SOL    HW120938  13.266   6.583   5.583
 6347SOL    HW220939  13.173   6.664   5.671
 6348SOL     OW20940  12.959   2.908  12.670
 6348SOL    HW120941  12.934   2.883  12.581
 6348SOL    HW220942  12.885   2.880  12.724
 6349SOL     OW20943   3.359  12.343   3.122
 6349SOL    HW120944   3.286  12.310   3.070
 6349SOL    HW220945   3.432  12.286   3.100
 6350SOL     OW20946   4.806   7.023  12.272
 6350SOL    HW120947   4.868   6.970  12.221
 6350SOL    HW220948   4.735   7.042  12.211
 6351SOL     OW20949   8.045  10.354   7.764
 6351SOL    HW120950   8.012  10.374   7.852
 6351SOL    HW220951   8.059  10.260   7.764
 6352SOL     OW20952  10.373   5.451   4.078
 6352SOL    HW120953  10.303   5.388   4.061
 6352SOL    HW220954  10.399   5.435   4.169
 6353SOL     OW20955   2.548  11.261  10.743
 6353SOL    HW120956   2.576  11.344  10.783
 6353SOL    HW220957   2.589  11.193  10.796
 6354SOL     OW20958   9.220  13.676   0.738
 6354SOL    HW120959   9.229  13.602   0.678
 6354SOL    HW220960   9.262  13.749   0.693
 6355SOL     OW20961   6.357   9.091   4.273
 6355SOL    HW120962   6.392   9.008   4.304
 6355SOL    HW220963   6.405   9.157   4.324
 6356SOL     OW20964   0.871  12.519  10.843
 6356SOL    HW120965   0.872  12.579  10.769
 6356SOL    HW220966   0.947  12.463  10.829
 6357SOL     OW20967  11.638  13.113   3.575
 6357SOL    HW120968  11.621  13.120   3.481
 6357SOL    HW220969  11.566  13.160   3.617
 6358SOL     OW20970   5.496   9.940   0.816
 6358SOL    HW120971   5.562   9.943   0.885
 6358SOL    HW220972   5.525  10.005   0.752
 6359SOL     OW20973   7.009  12.349   5.748
 6359SOL    HW120974   6.924  12.307   5.758
 6359SOL    HW220975   7.042  12.318   5.663
 6360SOL     OW20976   6.104   0.851   4.054
 6360SOL    HW120977   6.178   0.813   4.100
 6360SOL    HW220978   6.027   0.820   4.102
 6361SOL     OW20979  14.828  10.801   1.546
 6361SOL    HW120980  14.833  10.896   1.533
 6361SOL    HW220981   0.033  10.769   1.525
 6362SOL     OW20982  13.641   2.309  11.561
 6362SOL    HW120983  13.647   2.309  11.657
 6362SOL    HW220984  13.652   2.217  11.537
 6363SOL     OW20985  13.040   8.535  11.931
 6363SOL    HW120986  13.130   8.568  11.932
 6363SOL    HW220987  13.034   8.484  11.851
 6364SOL     OW20988   3.170   4.155   2.038
 6364SOL    HW120989   3.261   4.127   2.036
 6364SOL    HW220990   3.170   4.241   1.997
 6365SOL     OW20991   2.176   4.290   4.788
 6365SOL    HW120992   2.246   4.342   4.828
 6365SOL    HW220993   2.211   4.201   4.787
 6366SOL     OW20994  10.890   9.667   4.317
 6366SOL    HW120995  10.867   9.676   4.409
 6366SOL    HW220996  10.863   9.750   4.277
 6367SOL     OW20997   8.843   5.981   5.862
 6367SOL    HW120998   8.827   5.890   5.888
 6367SOL    HW220999   8.755   6.016   5.845
 6368SOL     OW21000   7.691  11.082   9.435
 6368SOL    HW121001   7.703  11.167   9.393
 6368SOL    HW221002   7.756  11.081   9.505
 6369SOL     OW21003   4.124   5.640   0.064
 6369SOL    HW121004   4.070   5.712   0.031
 6369SOL    HW221005   4.098   5.630   0.156
 6370SOL     OW21006   3.874   1.916   3.641
 6370SOL    HW121007   3.808   1.984   3.644
 6370SOL    HW221008   3.873   1.885   3.551
 6371SOL     OW21009   5.177  11.511  14.787
 6371SOL    HW121010   5.093  11.465  14.782
 6371SOL    HW221011   5.211  11.490  14.873
 6372SOL     OW21012   8.424   9.110   8.054
 6372SOL    HW121013   8.500   9.073   8.009
 6372SOL    HW221014   8.392   9.178   7.995
 6373SOL     OW21015   2.261   7.459   2.487
 6373SOL    HW121016   2.285   7.510   2.565
 6373SOL    HW221017   2.339   7.406   2.468
 6374SOL     OW21018  12.666   2.582   7.674
 6374SOL    HW121019  12.677   2.546   7.762
 6374SOL    HW221020  12.576   2.559   7.650
 6375SOL     OW21021  12.028   4.925   9.889
 6375SOL    HW121022  12.013   4.975   9.969
 6375SOL    HW221023  12.079   4.984   9.833
 6376SOL     OW21024   3.272   2.540   5.396
 6376SOL    HW121025   3.296   2.616   5.343
 6376SOL    HW221026   3.325   2.548   5.475
 6377SOL     OW21027   1.777  13.158   1.508
 6377SOL    HW121028   1.860  13.162   1.459
 6377SOL    HW221029   1.717  13.214   1.459
 6378SOL     OW21030  10.067   7.722  10.597
 6378SOL    HW121031  10.131   7.775  10.645
 6378SOL    HW221032  10.105   7.634  10.598
 6379SOL     OW21033   6.569   2.277   6.525
 6379SOL    HW121034   6.493   2.233   6.563
 6379SOL    HW221035   6.623   2.301   6.600
 6380SOL     OW21036  11.035   0.594   5.171
 6380SOL    HW121037  10.965   0.641   5.217
 6380SOL    HW221038  11.057   0.521   5.229
 6381SOL     OW21039   5.432  10.574  10.906
 6381SOL    HW121040   5.354  10.520  10.920
 6381SOL    HW221041   5.415  10.621  10.824
 6382SOL     OW21042   1.520   8.488  11.129
 6382SOL    HW121043   1.564   8.487  11.044
 6382SOL    HW221044   1.515   8.580  11.153
 6383SOL     OW21045   8.191   0.301  12.485
 6383SOL    HW121046   8.095   0.297  12.484
 6383SOL    HW221047   8.216   0.286  12.394
 6384SOL     OW21048   1.623   5.520   0.015
 6384SOL    HW121049   1.552   5.552  14.842
 6384SOL    HW221050   1.668   5.600   0.043
 6385SOL     OW21051   1.306   8.370  11.993
 6385SOL    HW121052   1.342   8.361  12.082
 6385SOL    HW221053   1.272   8.459  11.990
 6386SOL     OW21054  11.709  13.814   5.044
 6386SOL    HW121055  11.671  13.898   5.073
 6386SOL    HW221056  11.772  13.839   4.977
 6387SOL     OW21057  11.478  12.318   5.435
 6387SOL    HW121058  11.396  12.367   5.428
 6387SOL    HW221059  11.462  12.254   5.504
 6388SOL     OW21060  11.873   5.283  11.943
 6388SOL    HW121061  11.837   5.288  11.854
 6388SOL    HW221062  11.904   5.372  11.961
 6389SOL     OW21063   2.359   0.219   3.403
 6389SOL    HW121064   2.302   0.170   3.343
 6389SOL    HW221065   2.448   0.192   3.379
 6390SOL     OW21066  11.409   1.623   6.251
 6390SOL    HW121067  11.379   1.532   6.260
 6390SOL    HW221068  11.334   1.669   6.214
 6391SOL     OW21069   5.693  11.232  11.179
 6391SOL    HW121070   5.682  11.316  11.133
 6391SOL    HW221071   5.643  11.243  11.260
 6392SOL     OW21072  12.281   4.040   0.743
 6392SOL    HW121073  12.255   3.953   0.774
 6392SOL    HW221074  12.271   4.035   0.648
 6393SOL     OW21075  10.679   3.070  10.707
 6393SOL    HW121076  10.652   3.087  10.618
 6393SOL    HW221077  10.775   3.075  10.705
 6394SOL     OW21078   8.605   8.652   2.624
 6394SOL    HW121079   8.587   8.744   2.644
 6394SOL    HW221080   8.696   8.651   2.596
 6395SOL     OW21081   1.117   4.764   2.581
 6395SOL    HW121082   1.185   4.763   2.513
 6395SOL    HW221083   1.062   4.689   2.562
 6396SOL     OW21084   8.917  11.248   0.402
 6396SOL    HW121085   8.875  11.258   0.317
 6396SOL    HW221086   8.909  11.334   0.443
 6397SOL     OW21087   8.751   6.900  12.350
 6397SOL    HW121088   8.688   6.852  12.405
 6397SOL    HW221089   8.706   6.909  12.266
 6398SOL     OW21090   9.935   7.182   9.641
 6398SOL    HW121091   9.955   7.178   9.547
 6398SOL    HW221092   9.888   7.101   9.659
 6399SOL     OW21093   7.258   7.198  13.687
 6399SOL    HW121094   7.226   7.238  13.606
 6399SOL    HW221095   7.273   7.106  13.664
 6400SOL     OW21096   6.554  10.758  11.952
 6400SOL    HW121097   6.579  10.705  11.876
 6400SOL    HW221098   6.613  10.730  12.021
 6401SOL     OW21099   8.052   6.544  14.128
 6401SOL    HW121100   7.964   6.514  14.149
 6401SOL    HW221101   8.048   6.639  14.137
 6402SOL     OW21102  13.814   8.191   9.703
 6402SOL    HW121103  13.750   8.217   9.769
 6402SOL    HW221104  13.899   8.198   9.747
 6403SOL     OW21105   0.237  12.005  11.029
 6403SOL    HW121106   0.294  12.058  10.974
 6403SOL    HW221107   0.255  12.034  11.119
 6404SOL     OW21108  11.063   7.208  12.446
 6404SOL    HW121109  11.045   7.198  12.352
 6404SOL    HW221110  11.011   7.284  12.472
 6405SOL     OW21111  11.094  14.499   4.003
 6405SOL    HW121112  11.167  14.441   3.982
 6405SOL    HW221113  11.016  14.449   3.978
 6406SOL     OW21114   3.382   4.974   3.597
 6406SOL    HW121115   3.417   4.890   3.566
 6406SOL    HW221116   3.378   5.029   3.519
 6407SOL     OW21117  14.362   5.475   8.157
 6407SOL    HW121118  14.414   5.467   8.076
 6407SOL    HW221119  14.413   5.428   8.223
 6408SOL     OW21120  14.185   5.091   2.036
 6408SOL    HW121121  14.093   5.119   2.028
 6408SOL    HW221122  14.196   5.072   2.129
 6409SOL     OW21123  14.875   7.522   8.956
 6409SOL    HW121124   0.040   7.440   8.968
 6409SOL    HW221125   0.011   7.548   8.866
 6410SOL     OW21126   9.961  14.693   0.171
 6410SOL    HW121127   9.870  14.682   0.199
 6410SOL    HW221128   9.959  14.676   0.076
 6411SOL     OW21129   8.944   9.313   1.824
 6411SOL    HW121130   8.890   9.332   1.748
 6411SOL    HW221131   8.894   9.345   1.899
 6412SOL     OW21132   7.728   6.676   8.181
 6412SOL    HW121133   7.653   6.695   8.238
 6412SOL    HW221134   7.705   6.717   8.098
 6413SOL     OW21135  13.830   4.006   9.803
 6413SOL    HW121136  13.911   4.046   9.835
 6413SOL    HW221137  13.838   3.914   9.826
 6414SOL     OW21138   3.487  11.408   6.785
 6414SOL    HW121139   3.402  11.402   6.741
 6414SOL    HW221140   3.550  11.384   6.718
 6415SOL     OW21141   1.202   0.737   1.660
 6415SOL    HW121142   1.150   0.817   1.673
 6415SOL    HW221143   1.285   0.755   1.704
 6416SOL     OW21144   5.154   3.755   4.938
 6416SOL    HW121145   5.079   3.711   4.979
 6416SOL    HW221146   5.221   3.686   4.932
 6417SOL     OW21147  10.183  11.837  12.761
 6417SOL    HW121148  10.186  11.902  12.831
 6417SOL    HW221149  10.225  11.880  12.686
 6418SOL     OW21150  12.950   6.467  14.859
 6418SOL    HW121151  12.887   6.432  14.796
 6418SOL    HW221152  13.023   6.405  14.859
 6419SOL     OW21153   2.402   1.009   5.235
 6419SOL    HW121154   2.424   0.991   5.143
 6419SOL    HW221155   2.365   1.097   5.233
 6420SOL     OW21156  14.546  12.589   6.645
 6420SOL    HW121157  14.625  12.634   6.615
 6420SOL    HW221158  14.483  12.660   6.662
 6421SOL     OW21159   1.824   8.855  10.441
 6421SOL    HW121160   1.899   8.813  10.484
 6421SOL    HW221161   1.818   8.812  10.356
 6422SOL     OW21162   3.272   8.218   6.243
 6422SOL    HW121163   3.187   8.254   6.219
 6422SOL    HW221164   3.254   8.126   6.265
 6423SOL     OW21165   4.116   8.712   0.467
 6423SOL    HW121166   4.038   8.685   0.418
 6423SOL    HW221167   4.081   8.745   0.550
 6424SOL     OW21168  12.254  14.158  14.031
 6424SOL    HW121169  12.158  14.165  14.031
 6424SOL    HW221170  12.284  14.242  14.068
 6425SOL     OW21171   3.626  14.331   3.784
 6425SOL    HW121172   3.702  14.355   3.837
 6425SOL    HW221173   3.584  14.414   3.762
 6426SOL     OW21174  11.181   2.256  13.982
 6426SOL    HW121175  11.194   2.192  13.912
 6426SOL    HW221176  11.266   2.260  14.026
 6427SOL     OW21177  11.333   2.066  10.927
 6427SOL    HW121178  11.283   2.088  11.006
 6427SOL    HW221179  11.277   2.006  10.879
 6428SOL     OW21180   6.856   1.677   6.359
 6428SOL    HW121181   6.919   1.640   6.421
 6428SOL    HW221182   6.908   1.736   6.305
 6429SOL     OW21183   0.824   6.868   4.621
 6429SOL    HW121184   0.835   6.805   4.693
 6429SOL    HW221185   0.884   6.939   4.643
 6430SOL     OW21186   9.761   7.665  11.539
 6430SOL    HW121187   9.783   7.573  11.551
 6430SOL    HW221188   9.713   7.689  11.619
 6431SOL     OW21189  10.089   2.915  11.722
 6431SOL    HW121190  10.055   2.995  11.682
 6431SOL    HW221191  10.134   2.945  11.801
 6432SOL     OW21192  10.783  11.895   9.362
 6432SOL    HW121193  10.857  11.938   9.403
 6432SOL    HW221194  10.815  11.808   9.339
 6433SOL     OW21195  14.779   3.467   4.734
 6433SOL    HW121196  14.702   3.522   4.741
 6433SOL    HW221197  14.750   3.380   4.761
 6434SOL     OW21198   6.921  13.237   5.919
 6434SOL    HW121199   6.845  13.205   5.967
 6434SOL    HW221200   6.886  13.303   5.860
 6435SOL     OW21201   4.164   2.949  11.986
 6435SOL    HW121202   4.076   2.915  12.005
 6435SOL    HW221203   4.152   3.044  11.987
 6436SOL     OW21204   5.582  10.484  11.142
 6436SOL    HW121205   5.676  10.497  11.135
 6436SOL    HW221206   5.549  10.490  11.052
 6437SOL     OW21207  13.418  12.041   2.841
 6437SOL    HW121208  13.431  12.101   2.915
 6437SOL    HW221209  13.343  12.078   2.793
 6438SOL     OW21210   1.968  11.979  10.491
 6438SOL    HW121211   2.022  12.043  10.537
 6438SOL    HW221212   1.879  11.994  10.525
 6439SOL     OW21213  10.381   1.509   3.012
 6439SOL    HW121214  10.438   1.473   3.081
 6439SOL    HW221215  10.344   1.432   2.970
 6440SOL     OW21216   0.847   2.041   2.281
 6440SOL    HW121217   0.877   2.127   2.250
 6440SOL    HW221218   0.927   1.993   2.300
 6441SOL     OW21219   6.522   1.832   1.333
 6441SOL    HW121220   6.527   1.799   1.243
 6441SOL    HW221221   6.428   1.837   1.352
 6442SOL     OW21222   7.224   5.432   7.943
 6442SOL    HW121223   7.204   5.363   8.006
 6442SOL    HW221224   7.303   5.402   7.899
 6443SOL     OW21225   4.244  13.327  14.813
 6443SOL    HW121226   4.217  13.257  14.753
 6443SOL    HW221227   4.337  13.311  14.827
 6444SOL     OW21228   2.092   3.816   6.921
 6444SOL    HW121229   1.996   3.824   6.925
 6444SOL    HW221230   2.106   3.731   6.880
 6445SOL     OW21231   9.048  10.139   4.324
 6445SOL    HW121232   9.049  10.047   4.299
 6445SOL    HW221233   8.962  10.171   4.297
 6446SOL     OW21234   8.346   1.796   0.298
 6446SOL    HW121235   8.390   1.863   0.246
 6446SOL    HW221236   8.341   1.720   0.239
 6447SOL     OW21237  14.172   6.409   8.398
 6447SOL    HW121238  14.257   6.449   8.384
 6447SOL    HW221239  14.177   6.369   8.485
 6448SOL     OW21240   1.250   9.153   6.302
 6448SOL    HW121241   1.172   9.195   6.265
 6448SOL    HW221242   1.254   9.068   6.259
 6449SOL     OW21243  13.002   0.685   5.272
 6449SOL    HW121244  13.009   0.631   5.193
 6449SOL    HW221245  13.036   0.630   5.342
 6450SOL     OW21246  12.700  12.625   7.252
 6450SOL    HW121247  12.774  12.606   7.195
 6450SOL    HW221248  12.740  12.665   7.330
 6451SOL     OW21249   3.598   9.703   4.318
 6451SOL    HW121250   3.509   9.684   4.347
 6451SOL    HW221251   3.651   9.700   4.398
 6452SOL     OW21252   2.008  13.553   5.466
 6452SOL    HW121253   2.042  13.623   5.522
 6452SOL    HW221254   1.962  13.599   5.396
 6453SOL     OW21255   3.174  14.075   3.121
 6453SOL    HW121256   3.259  14.068   3.165
 6453SOL    HW221257   3.164  13.991   3.076
 6454SOL     OW21258  11.228   6.315   3.491
 6454SOL    HW121259  11.142   6.310   3.447
 6454SOL    HW221260  11.273   6.386   3.445
 6455SOL     OW21261   9.397  13.421   0.820
 6455SOL    HW121262   9.435  13.406   0.733
 6455SOL    HW221263   9.321  13.363   0.822
 6456SOL     OW21264   3.916  13.027   3.735
 6456SOL    HW121265   3.863  13.086   3.682
 6456SOL    HW221266   3.916  12.944   3.687
 6457SOL     OW21267   8.346  13.386  10.517
 6457SOL    HW121268   8.370  13.409  10.607
 6457SOL    HW221269   8.314  13.468  10.479
 6458SOL     OW21270   0.143   0.636   8.413
 6458SOL    HW121271   0.183   0.549   8.415
 6458SOL    HW221272   0.142   0.659   8.320
 6459SOL     OW21273   5.574   6.411   7.741
 6459SOL    HW121274   5.510   6.345   7.765
 6459SOL    HW221275   5.647   6.398   7.801
 6460SOL     OW21276  12.163  12.403   8.810
 6460SOL    HW121277  12.218  12.388   8.733
 6460SOL    HW221278  12.211  12.361   8.882
 6461SOL     OW21279   9.496  13.300  10.938
 6461SOL    HW121280   9.541  13.358  10.876
 6461SOL    HW221281   9.476  13.356  11.013
 6462SOL     OW21282  14.733   4.150   1.036
 6462SOL    HW121283  14.685   4.161   0.954
 6462SOL    HW221284  14.717   4.231   1.085
 6463SOL     OW21285   7.544  12.436   6.823
 6463SOL    HW121286   7.550  12.530   6.843
 6463SOL    HW221287   7.628  12.400   6.852
 6464SOL     OW21288   6.968   9.035  13.721
 6464SOL    HW121289   6.918   8.995  13.792
 6464SOL    HW221290   7.058   9.007  13.735
 6465SOL     OW21291   3.431  13.676   9.743
 6465SOL    HW121292   3.388  13.717   9.668
 6465SOL    HW221293   3.433  13.583   9.720
 6466SOL     OW21294  11.718   3.912   6.363
 6466SOL    HW121295  11.741   3.823   6.388
 6466SOL    HW221296  11.629   3.924   6.395
 6467SOL     OW21297   4.818   9.391   9.601
 6467SOL    HW121298   4.814   9.484   9.579
 6467SOL    HW221299   4.802   9.388   9.695
 6468SOL     OW21300   0.492   4.047   4.116
 6468SOL    HW121301   0.502   3.952   4.111
 6468SOL    HW221302   0.581   4.080   4.132
 6469SOL     OW21303   8.423   6.601   5.356
 6469SOL    HW121304   8.497   6.644   5.314
 6469SOL    HW221305   8.375   6.558   5.285
 6470SOL     OW21306   2.018   7.959   7.103
 6470SOL    HW121307   2.010   7.895   7.173
 6470SOL    HW221308   2.025   7.907   7.023
 6471SOL     OW21309   1.423  10.935   3.221
 6471SOL    HW121310   1.347  10.950   3.164
 6471SOL    HW221311   1.498  10.940   3.162
 6472SOL     OW21312   6.368   9.225  14.520
 6472SOL    HW121313   6.393   9.149  14.573
 6472SOL    HW221314   6.324   9.188  14.444
 6473SOL     OW21315   6.375   0.074   5.888
 6473SOL    HW121316   6.453   0.068   5.943
 6473SOL    HW221317   6.375   0.164   5.855
 6474SOL     OW21318   6.864  12.855   2.445
 6474SOL    HW121319   6.957  12.831   2.439
 6474SOL    HW221320   6.844  12.849   2.538
 6475SOL     OW21321   9.887   6.772   1.400
 6475SOL    HW121322   9.804   6.794   1.359
 6475SOL    HW221323   9.867   6.697   1.456
 6476SOL     OW21324   6.036   7.857   3.552
 6476SOL    HW121325   6.114   7.892   3.595
 6476SOL    HW221326   5.978   7.832   3.623
 6477SOL     OW21327   3.759   2.091   3.909
 6477SOL    HW121328   3.797   2.163   3.859
 6477SOL    HW221329   3.756   2.124   3.999
 6478SOL     OW21330   3.966   1.933  12.235
 6478SOL    HW121331   4.024   2.002  12.203
 6478SOL    HW221332   3.878   1.968  12.222
 6479SOL     OW21333   5.362   9.128   3.616
 6479SOL    HW121334   5.386   9.219   3.633
 6479SOL    HW221335   5.379   9.083   3.698
 6480SOL     OW21336  13.909  11.243   4.251
 6480SOL    HW121337  13.847  11.312   4.227
 6480SOL    HW221338  13.911  11.185   4.175
 6481SOL     OW21339  12.047   9.540   1.229
 6481SOL    HW121340  12.020   9.555   1.320
 6481SOL    HW221341  12.133   9.499   1.236
 6482SOL     OW21342   2.735   0.983  14.761
 6482SOL    HW121343   2.807   0.969  14.823
 6482SOL    HW221344   2.719   0.896  14.723
 6483SOL     OW21345   9.010   3.054   8.876
 6483SOL    HW121346   9.037   3.011   8.794
 6483SOL    HW221347   9.092   3.071   8.922
 6484SOL     OW21348  14.580  11.511   4.293
 6484SOL    HW121349  14.514  11.441   4.297
 6484SOL    HW221350  14.615  11.515   4.381
 6485SOL     OW21351   4.111   9.061   9.355
 6485SOL    HW121352   4.033   9.070   9.408
 6485SOL    HW221353   4.135   8.969   9.361
 6486SOL     OW21354  12.940   9.256   3.987
 6486SOL    HW121355  12.956   9.228   3.896
 6486SOL    HW221356  12.851   9.227   4.005
 6487SOL     OW21357   6.028  13.097   3.488
 6487SOL    HW121358   6.025  13.120   3.395
 6487SOL    HW221359   6.099  13.151   3.524
 6488SOL     OW21360  11.452   2.340   4.867
 6488SOL    HW121361  11.361   2.314   4.873
 6488SOL    HW221362  11.472   2.378   4.953
 6489SOL     OW21363  13.817  14.584   8.016
 6489SOL    HW121364  13.722  14.583   8.004
 6489SOL    HW221365  13.833  14.649   8.084
 6490SOL     OW21366   5.198   2.718  10.831
 6490SOL    HW121367   5.274   2.759  10.872
 6490SOL    HW221368   5.218   2.624  10.832
 6491SOL     OW21369  13.173   6.069   5.332
 6491SOL    HW121370  13.155   6.126   5.407
 6491SOL    HW221371  13.226   5.998   5.368
 6492SOL     OW21372   2.458   1.820   1.954
 6492SOL    HW121373   2.534   1.868   1.920
 6492SOL    HW221374   2.383   1.858   1.909
 6493SOL     OW21375  10.368   0.639  12.715
 6493SOL    HW121376  10.373   0.647  12.810
 6493SOL    HW221377  10.450   0.676  12.683
 6494SOL     OW21378  11.929   4.135   8.563
 6494SOL    HW121379  11.837   4.108   8.566
 6494SOL    HW221380  11.972   4.068   8.511
 6495SOL     OW21381  13.474   4.576  11.923
 6495SOL    HW121382  13.497   4.638  11.992
 6495SOL    HW221383  13.531   4.601  11.849
 6496SOL     OW21384   4.719   3.199  14.305
 6496SOL    HW121385   4.780   3.244  14.247
 6496SOL    HW221386   4.639   3.252  14.301
 6497SOL     OW21387   7.317  12.808   9.046
 6497SOL    HW121388   7.273  12.735   9.002
 6497SOL    HW221389   7.323  12.876   8.979
 6498SOL     OW21390   0.720  14.253   1.408
 6498SOL    HW121391   0.785  14.323   1.416
 6498SOL    HW221392   0.724  14.207   1.493
 6499SOL     OW21393   1.545   8.196   1.210
 6499SOL    HW121394   1.499   8.280   1.210
 6499SOL    HW221395   1.485   8.136   1.166
 6500SOL     OW21396   7.985   6.464   2.115
 6500SOL    HW121397   8.022   6.415   2.188
 6500SOL    HW221398   8.012   6.555   2.132
 6501SOL     OW21399   6.112  10.195   6.562
 6501SOL    HW121400   6.203  10.180   6.536
 6501SOL    HW221401   6.105  10.157   6.649
 6502SOL     OW21402   1.080   7.478  10.388
 6502SOL    HW121403   1.007   7.422  10.361
 6502SOL    HW221404   1.053   7.515  10.471
 6503SOL     OW21405   6.623   0.907   7.257
 6503SOL    HW121406   6.577   0.990   7.248
 6503SOL    HW221407   6.614   0.864   7.172
 6504SOL     OW21408  11.788  11.632  13.178
 6504SOL    HW121409  11.720  11.699  13.178
 6504SOL    HW221410  11.741  11.550  13.196
 6505SOL     OW21411   6.422   3.586  13.712
 6505SOL    HW121412   6.347   3.622  13.664
 6505SOL    HW221413   6.488   3.570  13.644
 6506SOL     OW21414  13.736  12.400   4.626
 6506SOL    HW121415  13.829  12.412   4.644
 6506SOL    HW221416  13.723  12.305   4.629
 6507SOL     OW21417   0.177  14.870   3.844
 6507SOL    HW121418   0.159   0.029   3.759
 6507SOL    HW221419   0.210   0.059   3.898
 6508SOL     OW21420   8.980   9.595   5.001
 6508SOL    HW121421   8.991   9.677   5.049
 6508SOL    HW221422   8.940   9.535   5.064
 6509SOL     OW21423  11.578   3.495   5.542
 6509SOL    HW121424  11.520   3.455   5.477
 6509SOL    HW221425  11.543   3.584   5.554
 6510SOL     OW21426   7.861   9.776   2.108
 6510SOL    HW121427   7.935   9.826   2.142
 6510SOL    HW221428   7.874   9.774   2.014
 6511SOL     OW21429   9.465   5.138   6.009
 6511SOL    HW121430   9.435   5.086   5.934
 6511SOL    HW221431   9.536   5.192   5.974
 6512SOL     OW21432  12.311   2.257  10.920
 6512SOL    HW121433  12.225   2.299  10.915
 6512SOL    HW221434  12.373   2.330  10.924
 6513SOL     OW21435   0.778   1.010   0.968
 6513SOL    HW121436   0.710   1.030   1.031
 6513SOL    HW221437   0.856   0.992   1.021
 6514SOL     OW21438  11.524   3.204  10.972
 6514SOL    HW121439  11.533   3.125  10.919
 6514SOL    HW221440  11.480   3.174  11.052
 6515SOL     OW21441   8.456   3.958   5.054
 6515SOL    HW121442   8.407   3.878   5.074
 6515SOL    HW221443   8.444   3.971   4.960
 6516SOL     OW21444   8.040   3.623  13.179
 6516SOL    HW121445   8.057   3.624  13.085
 6516SOL    HW221446   7.945   3.609  13.186
 6517SOL     OW21447   7.077   3.627   4.156
 6517SOL    HW121448   7.166   3.639   4.123
 6517SOL    HW221449   7.045   3.715   4.175
 6518SOL     OW21450   7.469  13.936   9.410
 6518SOL    HW121451   7.461  13.886   9.491
 6518SOL    HW221452   7.494  14.024   9.438
 6519SOL     OW21453  10.048   6.590  12.574
 6519SOL    HW121454  10.058   6.643  12.653
 6519SOL    HW221455  10.115   6.523  12.581
 6520SOL     OW21456   8.777  11.922   3.409
 6520SOL    HW121457   8.857  11.922   3.357
 6520SOL    HW221458   8.794  11.986   3.479
 6521SOL     OW21459   1.031   4.613   7.567
 6521SOL    HW121460   1.065   4.579   7.484
 6521SOL    HW221461   1.069   4.557   7.634
 6522SOL     OW21462   5.372  14.172  12.506
 6522SOL    HW121463   5.417  14.187  12.423
 6522SOL    HW221464   5.432  14.202  12.573
 6523SOL     OW21465   9.148   2.461  14.149
 6523SOL    HW121466   9.238   2.439  14.126
 6523SOL    HW221467   9.154   2.493  14.239
 6524SOL     OW21468   5.705  10.210   2.016
 6524SOL    HW121469   5.681  10.118   2.014
 6524SOL    HW221470   5.623  10.257   1.999
 6525SOL     OW21471  13.781  13.812   6.886
 6525SOL    HW121472  13.869  13.816   6.922
 6525SOL    HW221473  13.775  13.726   6.846
 6526SOL     OW21474  11.423   6.353  12.904
 6526SOL    HW121475  11.428   6.445  12.928
 6526SOL    HW221476  11.514   6.327  12.891
 6527SOL     OW21477  10.270  10.076  11.964
 6527SOL    HW121478  10.190  10.127  11.980
 6527SOL    HW221479  10.262  10.047  11.873
 6528SOL     OW21480  13.520  13.253   7.624
 6528SOL    HW121481  13.577  13.182   7.655
 6528SOL    HW221482  13.580  13.315   7.583
 6529SOL     OW21483   7.173  14.800   2.237
 6529SOL    HW121484   7.090  14.754   2.247
 6529SOL    HW221485   7.239  14.739   2.270
 6530SOL     OW21486   9.763   1.453   3.093
 6530SOL    HW121487   9.765   1.451   3.189
 6530SOL    HW221488   9.816   1.378   3.066
 6531SOL     OW21489   0.867   2.819   3.441
 6531SOL    HW121490   0.822   2.820   3.525
 6531SOL    HW221491   0.943   2.877   3.453
 6532SOL     OW21492   6.803  13.369  12.677
 6532SOL    HW121493   6.893  13.387  12.651
 6532SOL    HW221494   6.799  13.273  12.684
 6533SOL     OW21495  14.335  14.808   0.090
 6533SOL    HW121496  14.325  14.865   0.167
 6533SOL    HW221497  14.307  14.722   0.120
 6534SOL     OW21498  10.374   4.675   5.876
 6534SOL    HW121499  10.328   4.612   5.820
 6534SOL    HW221500  10.313   4.693   5.947
 6535SOL     OW21501   2.133  13.065   5.362
 6535SOL    HW121502   2.170  13.076   5.274
 6535SOL    HW221503   2.210  13.054   5.419
 6536SOL     OW21504   6.441   8.360   7.619
 6536SOL    HW121505   6.412   8.387   7.707
 6536SOL    HW221506   6.364   8.317   7.581
 6537SOL     OW21507  14.400  13.491   9.833
 6537SOL    HW121508  14.488  13.458   9.853
 6537SOL    HW221509  14.344  13.414   9.839
 6538SOL     OW21510   5.954   5.793   7.699
 6538SOL    HW121511   5.917   5.709   7.672
 6538SOL    HW221512   5.979   5.779   7.790
 6539SOL     OW21513   8.376   4.478   0.516
 6539SOL    HW121514   8.466   4.507   0.501
 6539SOL    HW221515   8.361   4.410   0.450
 6540SOL     OW21516  10.605  12.767   6.161
 6540SOL    HW121517  10.538  12.835   6.154
 6540SOL    HW221518  10.687  12.815   6.175
 6541SOL     OW21519   3.139   1.477  12.608
 6541SOL    HW121520   3.190   1.474  12.527
 6541SOL    HW221521   3.058   1.429  12.586
 6542SOL     OW21522  14.711  13.202   2.173
 6542SOL    HW121523  14.802  13.172   2.174
 6542SOL    HW221524  14.668  13.146   2.107
 6543SOL     OW21525  11.687   8.752   9.951
 6543SOL    HW121526  11.724   8.796   9.874
 6543SOL    HW221527  11.629   8.817   9.990
 6544SOL     OW21528   6.981   3.906   4.215
 6544SOL    HW121529   7.017   3.893   4.303
 6544SOL    HW221530   7.044   3.963   4.171
 6545SOL     OW21531  12.270  10.383   8.762
 6545SOL    HW121532  12.238  10.471   8.744
 6545SOL    HW221533  12.351  10.397   8.811
 6546SOL     OW21534   3.753   4.527   6.935
 6546SOL    HW121535   3.831   4.536   6.881
 6546SOL    HW221536   3.680   4.543   6.875
 6547SOL     OW21537   7.453   6.739   7.287
 6547SOL    HW121538   7.386   6.806   7.279
 6547SOL    HW221539   7.497   6.737   7.202
 6548SOL     OW21540  12.031   8.790   5.220
 6548SOL    HW121541  11.990   8.857   5.274
 6548SOL    HW221542  12.023   8.710   5.272
 6549SOL     OW21543   1.150  12.112  13.102
 6549SOL    HW121544   1.105  12.077  13.179
 6549SOL    HW221545   1.187  12.196  13.132
 6550SOL     OW21546   5.567   3.838  14.611
 6550SOL    HW121547   5.492   3.845  14.553
 6550SOL    HW221548   5.531   3.852  14.699
 6551SOL     OW21549  13.022   7.864  10.479
 6551SOL    HW121550  13.082   7.854  10.553
 6551SOL    HW221551  13.012   7.776  10.443
 6552SOL     OW21552   3.112  10.187   3.059
 6552SOL    HW121553   3.041  10.171   2.996
 6552SOL    HW221554   3.159  10.262   3.022
 6553SOL     OW21555  10.735  13.116  12.194
 6553SOL    HW121556  10.678  13.074  12.258
 6553SOL    HW221557  10.734  13.056  12.119
 6554SOL     OW21558  10.463   8.063  11.977
 6554SOL    HW121559  10.406   8.107  12.040
 6554SOL    HW221560  10.495   8.133  11.920
 6555SOL     OW21561   8.274   5.716  10.351
 6555SOL    HW121562   8.355   5.744  10.308
 6555SOL    HW221563   8.278   5.620  10.350
 6556SOL     OW21564  11.742   8.069   3.224
 6556SOL    HW121565  11.693   7.995   3.261
 6556SOL    HW221566  11.676   8.135   3.206
 6557SOL     OW21567  11.530   6.758  10.390
 6557SOL    HW121568  11.494   6.672  10.366
 6557SOL    HW221569  11.459   6.819  10.371
 6558SOL     OW21570   0.774   8.792   6.684
 6558SOL    HW121571   0.752   8.840   6.605
 6558SOL    HW221572   0.807   8.708   6.653
 6559SOL     OW21573  14.614   4.865   8.345
 6559SOL    HW121574  14.696   4.846   8.298
 6559SOL    HW221575  14.562   4.916   8.283
 6560SOL     OW21576  14.646   1.470   6.202
 6560SOL    HW121577  14.710   1.400   6.191
 6560SOL    HW221578  14.642   1.513   6.116
 6561SOL     OW21579  11.176   8.212   7.190
 6561SOL    HW121580  11.143   8.302   7.188
 6561SOL    HW221581  11.267   8.220   7.219
 6562SOL     OW21582   4.040   6.495  10.784
 6562SOL    HW121583   3.981   6.422  10.801
 6562SOL    HW221584   4.015   6.527  10.697
 6563SOL     OW21585   3.501   3.631   4.190
 6563SOL    HW121586   3.476   3.545   4.157
 6563SOL    HW221587   3.508   3.620   4.285
 6564SOL     OW21588  13.961  10.198  12.074
 6564SOL    HW121589  13.896  10.168  12.010
 6564SOL    HW221590  13.921  10.276  12.113
 6565SOL     OW21591   0.939  10.658  11.955
 6565SOL    HW121592   1.000  10.643  12.028
 6565SOL    HW221593   0.955  10.585  11.896
 6566SOL     OW21594  11.699   5.733  10.262
 6566SOL    HW121595  11.769   5.692  10.212
 6566SOL    HW221596  11.641   5.661  10.286
 6567SOL     OW21597   4.340   1.990   4.075
 6567SOL    HW121598   4.261   1.938   4.090
 6567SOL    HW221599   4.409   1.925   4.063
 6568SOL     OW21600  10.801   5.157   8.861
 6568SOL    HW121601  10.745   5.090   8.901
 6568SOL    HW221602  10.890   5.125   8.874
 6569SOL     OW21603   3.122  12.111   6.975
 6569SOL    HW121604   3.028  12.127   6.988
 6569SOL    HW221605   3.164  12.153   7.050
 6570SOL     OW21606   5.323  10.158  10.250
 6570SOL    HW121607   5.270  10.109  10.187
 6570SOL    HW221608   5.310  10.250  10.226
 6571SOL     OW21609   3.910  13.080   9.370
 6571SOL    HW121610   3.934  13.039   9.453
 6571SOL    HW221611   3.889  13.007   9.311
 6572SOL     OW21612  14.798   0.834  10.517
 6572SOL    HW121613  14.819   0.919  10.476
 6572SOL    HW221614  14.773   0.856  10.607
 6573SOL     OW21615   9.435  13.322   3.095
 6573SOL    HW121616   9.404  13.406   3.127
 6573SOL    HW221617   9.423  13.327   3.000
 6574SOL     OW21618  11.320   7.522   5.227
 6574SOL    HW121619  11.415   7.507   5.231
 6574SOL    HW221620  11.304   7.542   5.134
 6575SOL     OW21621   4.324   6.566   7.745
 6575SOL    HW121622   4.302   6.474   7.732
 6575SOL    HW221623   4.330   6.602   7.656
 6576SOL     OW21624  12.312   9.674   3.158
 6576SOL    HW121625  12.305   9.769   3.159
 6576SOL    HW221626  12.315   9.651   3.065
 6577SOL     OW21627   8.987   6.194  10.562
 6577SOL    HW121628   8.937   6.203  10.643
 6577SOL    HW221629   8.923   6.167  10.497
 6578SOL     OW21630   2.774   9.612  10.556
 6578SOL    HW121631   2.841   9.614  10.625
 6578SOL    HW221632   2.815   9.656  10.482
 6579SOL     OW21633   0.801  12.697  11.037
 6579SOL    HW121634   0.834  12.778  10.999
 6579SOL    HW221635   0.819  12.631  10.970
 6580SOL     OW21636   6.977   6.524  12.769
 6580SOL    HW121637   6.931   6.493  12.691
 6580SOL    HW221638   7.050   6.575  12.735
 6581SOL     OW21639  13.900   7.315   7.814
 6581SOL    HW121640  13.844   7.356   7.748
 6581SOL    HW221641  13.856   7.232   7.835
 6582SOL     OW21642   3.902   8.353   5.476
 6582SOL    HW121643   3.905   8.447   5.491
 6582SOL    HW221644   3.886   8.315   5.562
 6583SOL     OW21645   0.751   5.347  14.349
 6583SOL    HW121646   0.755   5.410  14.277
 6583SOL    HW221647   0.723   5.399  14.425
 6584SOL     OW21648   6.941   4.135   7.692
 6584SOL    HW121649   6.866   4.099   7.739
 6584SOL    HW221650   7.016   4.117   7.749
 6585SOL     OW21651   4.001   0.837  10.581
 6585SOL    HW121652   4.089   0.828  10.618
 6585SOL    HW221653   3.988   0.757  10.531
 6586SOL     OW21654   8.534   3.447   3.185
 6586SOL    HW121655   8.571   3.471   3.270
 6586SOL    HW221656   8.596   3.384   3.149
 6587SOL     OW21657  12.560   4.478  13.884
 6587SOL    HW121658  12.478   4.498  13.839
 6587SOL    HW221659  12.628   4.492  13.818
 6588SOL     OW21660   3.528   1.068   8.239
 6588SOL    HW121661   3.475   1.147   8.228
 6588SOL    HW221662   3.593   1.073   8.170
 6589SOL     OW21663  12.448  10.121  11.346
 6589SOL    HW121664  12.453  10.189  11.413
 6589SOL    HW221665  12.471  10.040  11.393
 6590SOL     OW21666   7.120  13.124   3.308
 6590SOL    HW121667   7.142  13.190   3.242
 6590SOL    HW221668   7.080  13.053   3.258
 6591SOL     OW21669   8.987   9.777  12.051
 6591SOL    HW121670   9.051   9.747  12.116
 6591SOL    HW221671   8.927   9.704  12.041
 6592SOL     OW21672   5.577   4.195  13.675
 6592SOL    HW121673   5.526   4.266  13.713
 6592SOL    HW221674   5.548   4.117  13.722
 6593SOL     OW21675   6.693  10.081   4.516
 6593SOL    HW121676   6.775  10.123   4.543
 6593SOL    HW221677   6.697  10.080   4.420
 6594SOL     OW21678   0.495   1.907  14.632
 6594SOL    HW121679   0.471   1.884  14.543
 6594SOL    HW221680   0.414   1.900  14.682
 6595SOL     OW21681  14.299   7.666  10.091
 6595SOL    HW121682  14.264   7.612  10.162
 6595SOL    HW221683  14.331   7.603  10.026
 6596SOL     OW21684  10.260   1.973   4.274
 6596SOL    HW121685  10.344   1.977   4.229
 6596SOL    HW221686  10.196   1.993   4.206
 6597SOL     OW21687   5.098  10.003   8.146
 6597SOL    HW121688   5.051   9.965   8.221
 6597SOL    HW221689   5.188  10.016   8.178
 6598SOL     OW21690  10.181  12.643   5.795
 6598SOL    HW121691  10.164  12.737   5.788
 6598SOL    HW221692  10.151  12.621   5.883
 6599SOL     OW21693   6.569   5.449   3.650
 6599SOL    HW121694   6.654   5.482   3.677
 6599SOL    HW221695   6.551   5.376   3.710
 6600SOL     OW21696  11.071   8.127   4.321
 6600SOL    HW121697  10.984   8.131   4.363
 6600SOL    HW221698  11.132   8.150   4.391
 6601SOL     OW21699   9.622  11.532   0.780
 6601SOL    HW121700   9.685  11.464   0.803
 6601SOL    HW221701   9.664  11.614   0.807
 6602SOL     OW21702  13.719   2.276   4.282
 6602SOL    HW121703  13.753   2.349   4.230
 6602SOL    HW221704  13.723   2.307   4.372
 6603SOL     OW21705  14.245   2.712   9.875
 6603SOL    HW121706  14.264   2.666   9.794
 6603SOL    HW221707  14.245   2.644   9.942
 6604SOL     OW21708  10.596   9.250   5.778
 6604SOL    HW121709  10.676   9.203   5.758
 6604SOL    HW221710  10.526   9.187   5.760
 6605SOL     OW21711   9.834   6.556   4.121
 6605SOL    HW121712   9.755   6.506   4.102
 6605SOL    HW221713   9.903   6.489   4.123
 6606SOL     OW21714  12.479   5.415   5.879
 6606SOL    HW121715  12.517   5.425   5.966
 6606SOL    HW221716  12.481   5.321   5.862
 6607SOL     OW21717   4.910  11.626  14.302
 6607SOL    HW121718   4.923  11.692  14.234
 6607SOL    HW221719   4.989  11.629  14.355
 6608SOL     OW21720   3.423   4.390   2.747
 6608SOL    HW121721   3.419   4.465   2.805
 6608SOL    HW221722   3.370   4.415   2.671
 6609SOL     OW21723   8.526   7.386   3.577
 6609SOL    HW121724   8.591   7.422   3.637
 6609SOL    HW221725   8.503   7.301   3.615
 6610SOL     OW21726   8.333  13.856   3.188
 6610SOL    HW121727   8.288  13.788   3.236
 6610SOL    HW221728   8.361  13.814   3.106
 6611SOL     OW21729  14.065   0.252   1.179
 6611SOL    HW121730  14.068   0.191   1.106
 6611SOL    HW221731  13.984   0.230   1.225
 6612SOL     OW21732  13.281   8.420   3.790
 6612SOL    HW121733  13.235   8.336   3.793
 6612SOL    HW221734  13.271   8.450   3.700
 6613SOL     OW21735   8.619  14.424   6.274
 6613SOL    HW121736   8.641  14.396   6.185
 6613SOL    HW221737   8.527  14.451   6.268
 6614SOL     OW21738  13.318   1.307   1.957
 6614SOL    HW121739  13.262   1.262   1.894
 6614SOL    HW221740  13.345   1.387   1.913
 6615SOL     OW21741  12.807  13.362  12.448
 6615SOL    HW121742  12.869  13.374  12.376
 6615SOL    HW221743  12.757  13.285  12.423
 6616SOL     OW21744   0.863  13.191  11.133
 6616SOL    HW121745   0.935  13.254  11.133
 6616SOL    HW221746   0.875  13.141  11.214
 6617SOL     OW21747   2.745   6.994   7.159
 6617SOL    HW121748   2.759   7.079   7.201
 6617SOL    HW221749   2.731   7.015   7.066
 6618SOL     OW21750   0.789   4.302  13.299
 6618SOL    HW121751   0.776   4.225  13.355
 6618SOL    HW221752   0.877   4.291  13.263
 6619SOL     OW21753  11.705   8.325  14.680
 6619SOL    HW121754  11.750   8.397  14.636
 6619SOL    HW221755  11.762   8.249  14.666
 6620SOL     OW21756  12.700   1.238   0.683
 6620SOL    HW121757  12.725   1.170   0.620
 6620SOL    HW221758  12.605   1.246   0.672
 6621SOL     OW21759   9.743   5.226  11.015
 6621SOL    HW121760   9.768   5.261  11.100
 6621SOL    HW221761   9.720   5.303  10.963
 6622SOL     OW21762   1.857   4.077  13.671
 6622SOL    HW121763   1.885   4.007  13.730
 6622SOL    HW221764   1.762   4.079  13.680
 6623SOL     OW21765  14.424   2.622   0.778
 6623SOL    HW121766  14.474   2.541   0.773
 6623SOL    HW221767  14.363   2.617   0.705
 6624SOL     OW21768  11.515  13.158  13.434
 6624SOL    HW121769  11.568  13.097  13.383
 6624SOL    HW221770  11.548  13.148  13.524
 6625SOL     OW21771   7.262   1.059  13.666
 6625SOL    HW121772   7.350   1.074  13.630
 6625SOL    HW221773   7.234   0.976  13.626
 6626SOL     OW21774   4.942  10.863   0.829
 6626SOL    HW121775   4.951  10.958   0.838
 6626SOL    HW221776   4.965  10.846   0.737
 6627SOL     OW21777  12.118   0.203   2.273
 6627SOL    HW121778  12.076   0.289   2.280
 6627SOL    HW221779  12.128   0.188   2.179
 6628SOL     OW21780   0.339  14.480  10.969
 6628SOL    HW121781   0.249  14.451  10.951
 6628SOL    HW221782   0.377  14.494  10.882
 6629SOL     OW21783   8.076   4.326  12.656
 6629SOL    HW121784   8.039   4.335  12.568
 6629SOL    HW221785   8.067   4.232  12.676
 6630SOL     OW21786  10.064  14.062   2.313
 6630SOL    HW121787  10.055  13.972   2.284
 6630SOL    HW221788  10.120  14.104   2.248
 6631SOL     OW21789   4.852   8.316   0.589
 6631SOL    HW121790   4.912   8.266   0.645
 6631SOL    HW221791   4.782   8.254   0.568
 6632SOL     OW21792   9.819  10.641  13.899
 6632SOL    HW121793   9.840  10.600  13.983
 6632SOL    HW221794   9.759  10.712  13.920
 6633SOL     OW21795   5.482  11.386  11.808
 6633SOL    HW121796   5.450  11.341  11.730
 6633SOL    HW221797   5.557  11.437  11.777
 6634SOL     OW21798  13.241  11.035  13.179
 6634SOL    HW121799  13.215  11.083  13.257
 6634SOL    HW221800  13.192  11.076  13.107
 6635SOL     OW21801   7.878   6.664   8.393
 6635SOL    HW121802   7.827   6.694   8.318
 6635SOL    HW221803   7.893   6.742   8.445
 6636SOL     OW21804  10.125   6.305   1.978
 6636SOL    HW121805  10.096   6.240   1.914
 6636SOL    HW221806  10.049   6.360   1.993
 6637SOL     OW21807   0.880  10.914  14.398
 6637SOL    HW121808   0.851  10.841  14.344
 6637SOL    HW221809   0.884  10.989  14.338
 6638SOL     OW21810   9.963  14.738   9.216
 6638SOL    HW121811   9.869  14.730   9.196
 6638SOL    HW221812   9.981  14.666   9.275
 6639SOL     OW21813  14.271   0.889   0.181
 6639SOL    HW121814  14.227   0.845   0.254
 6639SOL    HW221815  14.216   0.964   0.162
 6640SOL     OW21816   4.018   2.393   9.362
 6640SOL    HW121817   3.967   2.320   9.397
 6640SOL    HW221818   4.036   2.368   9.271
 6641SOL     OW21819   9.703   6.877   8.026
 6641SOL    HW121820   9.701   6.934   8.103
 6641SOL    HW221821   9.764   6.807   8.049
 6642SOL     OW21822   7.152   6.423   2.707
 6642SOL    HW121823   7.244   6.427   2.733
 6642SOL    HW221824   7.113   6.503   2.743
 6643SOL     OW21825  13.242   2.145   2.315
 6643SOL    HW121826  13.177   2.122   2.248
 6643SOL    HW221827  13.191   2.157   2.395
 6644SOL     OW21828   6.587   4.403   8.205
 6644SOL    HW121829   6.629   4.341   8.145
 6644SOL    HW221830   6.495   4.402   8.179
 6645SOL     OW21831  14.582   6.999  11.260
 6645SOL    HW121832  14.491   6.971  11.247
 6645SOL    HW221833  14.597   7.064  11.191
 6646SOL     OW21834  12.802   8.384   3.058
 6646SOL    HW121835  12.801   8.352   3.149
 6646SOL    HW221836  12.866   8.456   3.059
 6647SOL     OW21837   2.229  14.427   1.068
 6647SOL    HW121838   2.145  14.449   1.107
 6647SOL    HW221839   2.294  14.465   1.127
 6648SOL     OW21840   9.370   7.315   7.429
 6648SOL    HW121841   9.345   7.246   7.367
 6648SOL    HW221842   9.460   7.338   7.404
 6649SOL     OW21843  13.490   2.752  12.979
 6649SOL    HW121844  13.546   2.830  12.978
 6649SOL    HW221845  13.527   2.695  12.912
 6650SOL     OW21846   1.654   9.742   5.588
 6650SOL    HW121847   1.700   9.709   5.666
 6650SOL    HW221848   1.561   9.733   5.610
 6651SOL     OW21849  11.267   3.937   8.864
 6651SOL    HW121850  11.224   3.857   8.834
 6651SOL    HW221851  11.222   3.959   8.946
 6652SOL     OW21852  12.657   6.374   8.956
 6652SOL    HW121853  12.655   6.389   9.050
 6652SOL    HW221854  12.591   6.306   8.941
 6653SOL     OW21855   3.152  11.724   0.620
 6653SOL    HW121856   3.168  11.804   0.670
 6653SOL    HW221857   3.184  11.653   0.676
 6654SOL     OW21858  13.009   3.955   4.248
 6654SOL    HW121859  12.916   3.944   4.265
 6654SOL    HW221860  13.051   3.925   4.329
 6655SOL     OW21861  13.989   4.452  13.511
 6655SOL    HW121862  14.059   4.404  13.468
 6655SOL    HW221863  13.948   4.387  13.569
 6656SOL     OW21864   7.086   4.651  14.235
 6656SOL    HW121865   7.021   4.600  14.186
 6656SOL    HW221866   7.107   4.596  14.311
 6657SOL     OW21867  11.476  13.562   9.348
 6657SOL    HW121868  11.558  13.581   9.394
 6657SOL    HW221869  11.494  13.481   9.301
 6658SOL     OW21870  11.911  14.764   4.555
 6658SOL    HW121871  11.945  14.731   4.638
 6658SOL    HW221872  11.828  14.805   4.579
 6659SOL     OW21873   0.364  12.439   0.323
 6659SOL    HW121874   0.281  12.422   0.368
 6659SOL    HW221875   0.407  12.506   0.376
 6660SOL     OW21876  12.231   9.396   7.920
 6660SOL    HW121877  12.252   9.305   7.897
 6660SOL    HW221878  12.136   9.398   7.925
 6661SOL     OW21879  10.351   2.775   9.010
 6661SOL    HW121880  10.292   2.823   8.952
 6661SOL    HW221881  10.420   2.837   9.031
 6662SOL     OW21882   2.021  12.245   5.761
 6662SOL    HW121883   1.933  12.280   5.745
 6662SOL    HW221884   2.044  12.278   5.848
 6663SOL     OW21885   6.740   0.881   9.693
 6663SOL    HW121886   6.649   0.884   9.664
 6663SOL    HW221887   6.735   0.881   9.788
 6664SOL     OW21888   6.426   8.312  13.613
 6664SOL    HW121889   6.484   8.247  13.652
 6664SOL    HW221890   6.478   8.353  13.544
 6665SOL     OW21891   2.889   8.140   0.478
 6665SOL    HW121892   2.982   8.121   0.481
 6665SOL    HW221893   2.863   8.121   0.388
 6666SOL     OW21894   6.833  10.653  11.378
 6666SOL    HW121895   6.818  10.745  11.399
 6666SOL    HW221896   6.816  10.647  11.284
 6667SOL     OW21897   8.639   1.821   5.489
 6667SOL    HW121898   8.630   1.771   5.409
 6667SOL    HW221899   8.556   1.867   5.499
 6668SOL     OW21900   6.032   9.286  12.762
 6668SOL    HW121901   6.027   9.367  12.711
 6668SOL    HW221902   6.005   9.218  12.700
 6669SOL     OW21903   3.731   4.810  14.042
 6669SOL    HW121904   3.771   4.832  13.958
 6669SOL    HW221905   3.709   4.717  14.034
 6670SOL     OW21906   4.882   3.363   1.679
 6670SOL    HW121907   4.801   3.414   1.676
 6670SOL    HW221908   4.893   3.341   1.771
 6671SOL     OW21909  12.940  14.563   7.390
 6671SOL    HW121910  12.909  14.494   7.449
 6671SOL    HW221911  13.009  14.521   7.338
 6672SOL     OW21912  10.511  14.880   7.639
 6672SOL    HW121913  10.583  14.869   7.701
 6672SOL    HW221914  10.539  14.830   7.562
 6673SOL     OW21915   8.374   8.140   4.511
 6673SOL    HW121916   8.296   8.190   4.531
 6673SOL    HW221917   8.365   8.119   4.418
 6674SOL     OW21918   7.430   1.791   0.301
 6674SOL    HW121919   7.442   1.704   0.339
 6674SOL    HW221920   7.421   1.849   0.376
 6675SOL     OW21921   5.647  11.142   2.095
 6675SOL    HW121922   5.703  11.084   2.145
 6675SOL    HW221923   5.559  11.105   2.105
 6676SOL     OW21924  13.367  14.695   2.743
 6676SOL    HW121925  13.461  14.680   2.744
 6676SOL    HW221926  13.335  14.645   2.668
 6677SOL     OW21927   1.030   2.133   9.142
 6677SOL    HW121928   1.070   2.203   9.195
 6677SOL    HW221929   1.004   2.067   9.206
 6678SOL     OW21930   7.718   8.638  12.437
 6678SOL    HW121931   7.684   8.662  12.523
 6678SOL    HW221932   7.641   8.640  12.379
 6679SOL     OW21933   2.159  14.455   0.362
 6679SOL    HW121934   2.221  14.400   0.409
 6679SOL    HW221935   2.082  14.399   0.350
 6680SOL     OW21936   7.431   2.379  14.264
 6680SOL    HW121937   7.371   2.412  14.197
 6680SOL    HW221938   7.494   2.326  14.215
 6681SOL     OW21939  13.580   5.749   2.401
 6681SOL    HW121940  13.580   5.729   2.307
 6681SOL    HW221941  13.673   5.761   2.422
 6682SOL     OW21942  13.847  10.482   6.323
 6682SOL    HW121943  13.882  10.550   6.381
 6682SOL    HW221944  13.850  10.402   6.375
 6683SOL     OW21945   6.857   3.541  11.788
 6683SOL    HW121946   6.890   3.593  11.862
 6683SOL    HW221947   6.924   3.475  11.773
 6684SOL     OW21948   9.816   7.159   5.508
 6684SOL    HW121949   9.870   7.127   5.580
 6684SOL    HW221950   9.751   7.089   5.493
 6685SOL     OW21951  14.882  11.284   2.629
 6685SOL    HW121952   0.065  11.343   2.668
 6685SOL    HW221953   0.047  11.203   2.612
 6686SOL     OW21954  12.508   6.750  11.632
 6686SOL    HW121955  12.441   6.804  11.673
 6686SOL    HW221956  12.581   6.810  11.615
 6687SOL     OW21957  11.744   8.031  12.176
 6687SOL    HW121958  11.686   7.968  12.219
 6687SOL    HW221959  11.689   8.074  12.111
 6688SOL     OW21960   2.159  13.643   8.999
 6688SOL    HW121961   2.193  13.708   8.937
 6688SOL    HW221962   2.237  13.602   9.036
 6689SOL     OW21963   5.199  12.335  11.260
 6689SOL    HW121964   5.242  12.315  11.177
 6689SOL    HW221965   5.105  12.330  11.240
 6690SOL     OW21966  14.013  10.069   1.218
 6690SOL    HW121967  13.971  10.010   1.281
 6690SOL    HW221968  13.984  10.156   1.243
 6691SOL     OW21969   9.923   1.129   1.420
 6691SOL    HW121970   9.994   1.074   1.451
 6691SOL    HW221971   9.965   1.213   1.399
 6692SOL     OW21972  12.454  10.494  14.290
 6692SOL    HW121973  12.454  10.550  14.212
 6692SOL    HW221974  12.546  10.472  14.303
 6693SOL     OW21975   6.217   1.882   9.392
 6693SOL    HW121976   6.231   1.856   9.483
 6693SOL    HW221977   6.153   1.953   9.397
 6694SOL     OW21978  10.644   7.783   8.381
 6694SOL    HW121979  10.688   7.843   8.442
 6694SOL    HW221980  10.714   7.749   8.326
 6695SOL     OW21981  12.731   2.645   6.786
 6695SOL    HW121982  12.779   2.660   6.868
 6695SOL    HW221983  12.670   2.718   6.781
 6696SOL     OW21984  11.223  10.904  11.677
 6696SOL    HW121985  11.212  10.950  11.593
 6696SOL    HW221986  11.318  10.897  11.688
 6697SOL     OW21987   0.214   6.385  13.687
 6697SOL    HW121988   0.181   6.350  13.770
 6697SOL    HW221989   0.155   6.458  13.668
 6698SOL     OW21990  11.898   9.123   3.695
 6698SOL    HW121991  11.851   9.040   3.692
 6698SOL    HW221992  11.838   9.183   3.739
 6699SOL     OW21993   3.221   9.871   1.442
 6699SOL    HW121994   3.154   9.846   1.378
 6699SOL    HW221995   3.174   9.878   1.525
 6700SOL     OW21996  12.373  12.106   9.881
 6700SOL    HW121997  12.438  12.132   9.816
 6700SOL    HW221998  12.385  12.011   9.891
 6701SOL     OW21999  10.533   7.010   1.017
 6701SOL    HW122000  10.474   7.011   0.941
 6701SOL    HW222001  10.475   7.019   1.092
 6702SOL     OW22002  11.202  11.388   1.768
 6702SOL    HW122003  11.255  11.362   1.843
 6702SOL    HW222004  11.209  11.484   1.766
 6703SOL     OW22005   3.618   9.737  13.796
 6703SOL    HW122006   3.639   9.777  13.711
 6703SOL    HW222007   3.664   9.791  13.860
 6704SOL     OW22008   7.570  14.217   1.406
 6704SOL    HW122009   7.516  14.222   1.327
 6704SOL    HW222010   7.520  14.160   1.464
 6705SOL     OW22011   1.754   4.643   5.343
 6705SOL    HW122012   1.712   4.558   5.358
 6705SOL    HW222013   1.684   4.698   5.307
 6706SOL     OW22014   2.641   5.151   4.033
 6706SOL    HW122015   2.586   5.081   4.067
 6706SOL    HW222016   2.621   5.226   4.089
 6707SOL     OW22017   8.138   0.312   3.811
 6707SOL    HW122018   8.154   0.349   3.724
 6707SOL    HW222019   8.173   0.377   3.872
 6708SOL     OW22020  13.814  10.184  12.436
 6708SOL    HW122021  13.777  10.265  12.471
 6708SOL    HW222022  13.792  10.118  12.502
 6709SOL     OW22023  10.223   5.776  14.738
 6709SOL    HW122024  10.313   5.778  14.703
 6709SOL    HW222025  10.172   5.823  14.672
 6710SOL     OW22026  13.007   4.739   3.413
 6710SOL    HW122027  13.090   4.725   3.368
 6710SOL    HW222028  12.941   4.705   3.353
 6711SOL     OW22029  12.201  12.805  14.785
 6711SOL    HW122030  12.260  12.812  14.860
 6711SOL    HW222031  12.242  12.857  14.717
 6712SOL     OW22032   9.344   5.694   0.485
 6712SOL    HW122033   9.425   5.677   0.533
 6712SOL    HW222034   9.286   5.735   0.549
 6713SOL     OW22035   7.352  11.607  11.019
 6713SOL    HW122036   7.439  11.578  11.048
 6713SOL    HW222037   7.303  11.526  11.004
 6714SOL     OW22038   8.278  13.611   3.687
 6714SOL    HW122039   8.264  13.671   3.760
 6714SOL    HW222040   8.242  13.657   3.611
 6715SOL     OW22041   1.505   7.095  12.681
 6715SOL    HW122042   1.482   7.009  12.716
 6715SOL    HW222043   1.530   7.146  12.758
 6716SOL     OW22044   6.216  12.096  11.338
 6716SOL    HW122045   6.301  12.082  11.297
 6716SOL    HW222046   6.235  12.099  11.432
 6717SOL     OW22047   6.977   3.722  11.966
 6717SOL    HW122048   6.945   3.767  11.888
 6717SOL    HW222049   7.068   3.749  11.973
 6718SOL     OW22050  12.777  10.781   9.989
 6718SOL    HW122051  12.845  10.729  10.031
 6718SOL    HW222052  12.695  10.739  10.016
 6719SOL     OW22053   2.660  13.993   0.140
 6719SOL    HW122054   2.638  14.086   0.143
 6719SOL    HW222055   2.748  13.988   0.178
 6720SOL     OW22056   6.708   0.987  13.385
 6720SOL    HW122057   6.639   0.921  13.388
 6720SOL    HW222058   6.741   0.983  13.295
 6721SOL     OW22059   8.573   7.321  11.513
 6721SOL    HW122060   8.479   7.308  11.526
 6721SOL    HW222061   8.579   7.401  11.460
 6722SOL     OW22062   9.513  12.243   6.275
 6722SOL    HW122063   9.424  12.234   6.311
 6722SOL    HW222064   9.569  12.206   6.343
 6723SOL     OW22065  12.060  12.179   3.143
 6723SOL    HW122066  12.072  12.258   3.195
 6723SOL    HW222067  11.982  12.195   3.091
 6724SOL     OW22068   1.378  10.517  11.291
 6724SOL    HW122069   1.362  10.435  11.244
 6724SOL    HW222070   1.357  10.585  11.226
 6725SOL     OW22071  10.681   8.814  11.587
 6725SOL    HW122072  10.672   8.734  11.638
 6725SOL    HW222073  10.749   8.864  11.631
 6726SOL     OW22074   8.532   5.911  11.188
 6726SOL    HW122075   8.626   5.896  11.175
 6726SOL    HW222076   8.527   5.996  11.231
 6727SOL     OW22077   5.372   7.010  14.463
 6727SOL    HW122078   5.429   6.937  14.438
 6727SOL    HW222079   5.320   7.027  14.384
 6728SOL     OW22080  14.246   5.619  10.573
 6728SOL    HW122081  14.161   5.588  10.603
 6728SOL    HW222082  14.299   5.539  10.565
 6729SOL     OW22083   9.115  11.055   6.416
 6729SOL    HW122084   9.210  11.043   6.423
 6729SOL    HW222085   9.092  11.107   6.493
 6730SOL     OW22086  10.968   6.106   7.608
 6730SOL    HW122087  10.963   6.011   7.594
 6730SOL    HW222088  11.061   6.123   7.622
 6731SOL     OW22089   6.980   4.483   6.708
 6731SOL    HW122090   7.010   4.399   6.742
 6731SOL    HW222091   6.964   4.536   6.786
 6732SOL     OW22092   7.628   2.282  14.076
 6732SOL    HW122093   7.646   2.289  13.982
 6732SOL    HW222094   7.695   2.337  14.117
 6733SOL     OW22095   3.692   6.310  12.556
 6733SOL    HW122096   3.604   6.303  12.593
 6733SOL    HW222097   3.743   6.354  12.624
 6734SOL     OW22098   7.929  12.784   1.628
 6734SOL    HW122099   7.914  12.753   1.718
 6734SOL    HW222100   7.972  12.710   1.585
 6735SOL     OW22101   4.734   4.755  13.019
 6735SOL    HW122102   4.653   4.805  13.008
 6735SOL    HW222103   4.707   4.663  13.008
 6736SOL     OW22104   5.938   2.520  11.393
 6736SOL    HW122105   5.936   2.572  11.474
 6736SOL    HW222106   6.031   2.506  11.376
 6737SOL     OW22107  13.577   6.349  11.046
 6737SOL    HW122108  13.542   6.382  10.963
 6737SOL    HW222109  13.668   6.377  11.047
 6738SOL     OW22110   0.924   5.663   4.309
 6738SOL    HW122111   0.996   5.684   4.249
 6738SOL    HW222112   0.870   5.743   4.309
 6739SOL     OW22113   9.529  14.756   2.046
 6739SOL    HW122114   9.456  14.707   2.084
 6739SOL    HW222115   9.593  14.760   2.117
 6740SOL     OW22116  11.167  12.890   0.781
 6740SOL    HW122117  11.111  12.968   0.778
 6740SOL    HW222118  11.204  12.890   0.869
 6741SOL     OW22119   3.200  12.238   1.190
 6741SOL    HW122120   3.150  12.258   1.269
 6741SOL    HW222121   3.267  12.176   1.218
 6742SOL     OW22122   8.132   8.413  13.437
 6742SOL    HW122123   8.085   8.396  13.355
 6742SOL    HW222124   8.071   8.387  13.506
 6743SOL     OW22125   3.594   2.923   8.852
 6743SOL    HW122126   3.641   2.957   8.776
 6743SOL    HW222127   3.593   2.828   8.838
 6744SOL     OW22128   6.763   9.426   6.946
 6744SOL    HW122129   6.847   9.449   6.907
 6744SOL    HW222130   6.700   9.437   6.874
 6745SOL     OW22131   7.681   0.555  14.516
 6745SOL    HW122132   7.757   0.593  14.560
 6745SOL    HW222133   7.629   0.630  14.488
 6746SOL     OW22134  13.207  10.020   6.840
 6746SOL    HW122135  13.206   9.995   6.748
 6746SOL    HW222136  13.154   9.954   6.884
 6747SOL     OW22137  13.907   3.638   4.105
 6747SOL    HW122138  13.890   3.545   4.119
 6747SOL    HW222139  13.964   3.663   4.177
 6748SOL     OW22140   3.358   5.746   6.786
 6748SOL    HW122141   3.448   5.772   6.765
 6748SOL    HW222142   3.304   5.801   6.730
 6749SOL     OW22143   1.747   1.422  13.098
 6749SOL    HW122144   1.704   1.416  13.012
 6749SOL    HW222145   1.835   1.455  13.078
 6750SOL     OW22146   2.475   4.839  13.018
 6750SOL    HW122147   2.450   4.894  12.944
 6750SOL    HW222148   2.512   4.760  12.978
 6751SOL     OW22149   4.626   8.129  13.873
 6751SOL    HW122150   4.701   8.181  13.899
 6751SOL    HW222151   4.652   8.038  13.891
 6752SOL     OW22152  13.182  14.657  11.312
 6752SOL    HW122153  13.145  14.626  11.230
 6752SOL    HW222154  13.259  14.708  11.286
 6753SOL     OW22155   9.885   3.210  13.163
 6753SOL    HW122156   9.792   3.224  13.146
 6753SOL    HW222157   9.887   3.162  13.246
 6754SOL     OW22158   5.586   5.332  14.517
 6754SOL    HW122159   5.548   5.349  14.603
 6754SOL    HW222160   5.511   5.330  14.457
 6755SOL     OW22161   3.390   5.116   3.383
 6755SOL    HW122162   3.467   5.115   3.325
 6755SOL    HW222163   3.328   5.175   3.340
 6756SOL     OW22164   9.526   5.214  11.543
 6756SOL    HW122165   9.446   5.171  11.574
 6756SOL    HW222166   9.560   5.154  11.476
 6757SOL     OW22167   7.763  14.788  11.474
 6757SOL    HW122168   7.681  14.836  11.463
 6757SOL    HW222169   7.825  14.832  11.415
 6758SOL     OW22170   2.443   9.136   9.023
 6758SOL    HW122171   2.373   9.158   9.084
 6758SOL    HW222172   2.494   9.068   9.068
 6759SOL     OW22173  11.070  12.733   4.041
 6759SOL    HW122174  11.019  12.689   3.973
 6759SOL    HW222175  11.059  12.826   4.024
 6760SOL     OW22176   3.303   0.274   7.641
 6760SOL    HW122177   3.373   0.253   7.702
 6760SOL    HW222178   3.263   0.189   7.620
 6761SOL     OW22179   5.204   5.765  12.062
 6761SOL    HW122180   5.169   5.708  12.131
 6761SOL    HW222181   5.131   5.823  12.040
 6762SOL     OW22182   7.052   2.436   1.576
 6762SOL    HW122183   7.011   2.379   1.510
 6762SOL    HW222184   7.146   2.428   1.559
 6763SOL     OW22185   2.692  11.125   3.739
 6763SOL    HW122186   2.747  11.203   3.730
 6763SOL    HW222187   2.742  11.055   3.696
 6764SOL     OW22188   4.260   9.871   4.342
 6764SOL    HW122189   4.243   9.793   4.289
 6764SOL    HW222190   4.237   9.845   4.431
 6765SOL     OW22191  11.627  14.224   6.043
 6765SOL    HW122192  11.562  14.153   6.049
 6765SOL    HW222193  11.709  14.180   6.021
 6766SOL     OW22194   5.033  11.210   2.212
 6766SOL    HW122195   5.125  11.197   2.192
 6766SOL    HW222196   5.004  11.276   2.148
 6767SOL     OW22197   9.097  14.816   4.127
 6767SOL    HW122198   9.038  14.877   4.083
 6767SOL    HW222199   9.039  14.760   4.179
 6768SOL     OW22200   6.026   9.552   3.138
 6768SOL    HW122201   5.985   9.465   3.142
 6768SOL    HW222202   6.069   9.561   3.223
 6769SOL     OW22203   5.370   3.954  14.429
 6769SOL    HW122204   5.346   4.029  14.375
 6769SOL    HW222205   5.337   3.974  14.516
 6770SOL     OW22206   5.070   7.649   1.867
 6770SOL    HW122207   5.044   7.740   1.851
 6770SOL    HW222208   5.027   7.627   1.950
 6771SOL     OW22209   3.076   2.793  10.519
 6771SOL    HW122210   3.110   2.722  10.575
 6771SOL    HW222211   3.154   2.838  10.488
 6772SOL     OW22212   3.805   3.464   6.674
 6772SOL    HW122213   3.736   3.471   6.607
 6772SOL    HW222214   3.887   3.473   6.625
 6773SOL     OW22215  12.816   6.497  13.983
 6773SOL    HW122216  12.724   6.509  14.003
 6773SOL    HW222217  12.831   6.548  13.903
 6774SOL     OW22218   3.800   5.410   0.416
 6774SOL    HW122219   3.749   5.329   0.420
 6774SOL    HW222220   3.822   5.430   0.507
 6775SOL     OW22221   0.627   1.609   2.343
 6775SOL    HW122222   0.643   1.629   2.251
 6775SOL    HW222223   0.535   1.583   2.347
 6776SOL     OW22224   3.509   6.905   4.742
 6776SOL    HW122225   3.450   6.842   4.700
 6776SOL    HW222226   3.582   6.913   4.681
 6777SOL     OW22227   1.774  13.327   1.095
 6777SOL    HW122228   1.724  13.310   1.015
 6777SOL    HW222229   1.735  13.406   1.131
 6778SOL     OW22230  14.436  13.745   5.617
 6778SOL    HW122231  14.497  13.814   5.593
 6778SOL    HW222232  14.361  13.790   5.655
 6779SOL     OW22233  11.719  13.972   0.202
 6779SOL    HW122234  11.666  13.901   0.166
 6779SOL    HW222235  11.683  13.988   0.290
 6780SOL     OW22236   2.652  12.476  12.555
 6780SOL    HW122237   2.660  12.390  12.597
 6780SOL    HW222238   2.557  12.490  12.548
 6781SOL     OW22239   5.504   8.499  14.608
 6781SOL    HW122240   5.446   8.542  14.672
 6781SOL    HW222241   5.444   8.456  14.547
 6782SOL     OW22242   6.634   2.220   4.429
 6782SOL    HW122243   6.659   2.309   4.454
 6782SOL    HW222244   6.713   2.181   4.393
 6783SOL     OW22245   7.827  10.744   2.953
 6783SOL    HW122246   7.803  10.823   3.000
 6783SOL    HW222247   7.773  10.675   2.992
 6784SOL     OW22248   7.583  11.620  12.929
 6784SOL    HW122249   7.523  11.639  13.002
 6784SOL    HW222250   7.553  11.676  12.858
 6785SOL     OW22251  10.092   6.281  12.297
 6785SOL    HW122252  10.108   6.358  12.243
 6785SOL    HW222253  10.154   6.215  12.266
 6786SOL     OW22254   1.293  11.353   1.678
 6786SOL    HW122255   1.229  11.292   1.713
 6786SOL    HW222256   1.331  11.307   1.603
 6787SOL     OW22257   9.708  13.319   6.180
 6787SOL    HW122258   9.756  13.373   6.117
 6787SOL    HW222259   9.693  13.378   6.255
 6788SOL     OW22260   6.574  11.792  12.170
 6788SOL    HW122261   6.628  11.713  12.165
 6788SOL    HW222262   6.549  11.809  12.079
 6789SOL     OW22263   0.672   9.665   9.233
 6789SOL    HW122264   0.696   9.604   9.162
 6789SOL    HW222265   0.743   9.658   9.296
 6790SOL     OW22266  13.180   7.924   0.796
 6790SOL    HW122267  13.159   7.983   0.869
 6790SOL    HW222268  13.230   7.979   0.736
 6791SOL     OW22269   4.654  10.072   9.876
 6791SOL    HW122270   4.570  10.060   9.832
 6791SOL    HW222271   4.719  10.051   9.809
 6792SOL     OW22272  10.583   2.702   7.774
 6792SOL    HW122273  10.517   2.665   7.833
 6792SOL    HW222274  10.532   2.735   7.700
 6793SOL     OW22275   8.395   3.883   5.682
 6793SOL    HW122276   8.449   3.804   5.673
 6793SOL    HW222277   8.417   3.937   5.607
 6794SOL     OW22278   2.227   2.722   4.450
 6794SOL    HW122279   2.215   2.670   4.529
 6794SOL    HW222280   2.223   2.658   4.378
 6795SOL     OW22281   3.894  10.770   4.014
 6795SOL    HW122282   3.903  10.862   4.041
 6795SOL    HW222283   3.810  10.768   3.967
 6796SOL     OW22284   6.393   6.853   9.164
 6796SOL    HW122285   6.385   6.812   9.250
 6796SOL    HW222286   6.353   6.789   9.104
 6797SOL     OW22287  10.789   9.580   6.229
 6797SOL    HW122288  10.858   9.530   6.186
 6797SOL    HW222289  10.708   9.538   6.200
 6798SOL     OW22290   4.448   5.271   7.888
 6798SOL    HW122291   4.360   5.235   7.874
 6798SOL    HW222292   4.446   5.355   7.842
 6799SOL     OW22293   1.190  13.379   3.441
 6799SOL    HW122294   1.179  13.363   3.348
 6799SOL    HW222295   1.126  13.447   3.462
 6800SOL     OW22296  10.010   8.838  11.862
 6800SOL    HW122297  10.094   8.881  11.874
 6800SOL    HW222298   9.951   8.907  11.832
 6801SOL     OW22299  12.084  11.931   9.021
 6801SOL    HW122300  12.103  12.000   9.084
 6801SOL    HW222301  12.017  11.877   9.063
 6802SOL     OW22302   7.659   9.597  10.895
 6802SOL    HW122303   7.700   9.584  10.809
 6802SOL    HW222304   7.623   9.686  10.891
 6803SOL     OW22305   8.204   2.927   9.742
 6803SOL    HW122306   8.233   3.007   9.787
 6803SOL    HW222307   8.169   2.872   9.812
 6804SOL     OW22308   7.330   0.334  11.847
 6804SOL    HW122309   7.254   0.382  11.816
 6804SOL    HW222310   7.325   0.341  11.943
 6805SOL     OW22311   3.920  13.293   4.379
 6805SOL    HW122312   4.008  13.326   4.363
 6805SOL    HW222313   3.931  13.223   4.442
 6806SOL     OW22314  14.268  12.996   7.499
 6806SOL    HW122315  14.312  12.997   7.413
 6806SOL    HW222316  14.285  13.083   7.535
 6807SOL     OW22317   7.802   0.214   5.947
 6807SOL    HW122318   7.742   0.286   5.926
 6807SOL    HW222319   7.764   0.173   6.025
 6808SOL     OW22320   9.569   7.432  13.898
 6808SOL    HW122321   9.491   7.466  13.854
 6808SOL    HW222322   9.598   7.503  13.954
 6809SOL     OW22323   2.632   2.675   2.865
 6809SOL    HW122324   2.553   2.730   2.871
 6809SOL    HW222325   2.663   2.667   2.955
 6810SOL     OW22326   2.217   4.267  14.272
 6810SOL    HW122327   2.166   4.207  14.217
 6810SOL    HW222328   2.224   4.347  14.221
 6811SOL     OW22329   2.744   7.542   8.608
 6811SOL    HW122330   2.746   7.636   8.626
 6811SOL    HW222331   2.758   7.535   8.513
 6812SOL     OW22332   5.241   8.108  11.850
 6812SOL    HW122333   5.258   8.064  11.933
 6812SOL    HW222334   5.150   8.139  11.858
 6813SOL     OW22335   3.859   5.028  13.829
 6813SOL    HW122336   3.855   5.086  13.905
 6813SOL    HW222337   3.769   5.026  13.796
 6814SOL     OW22338   5.997   5.223  12.964
 6814SOL    HW122339   5.929   5.157  12.948
 6814SOL    HW222340   5.953   5.290  13.016
 6815SOL     OW22341  13.110  11.302   9.352
 6815SOL    HW122342  13.091  11.268   9.439
 6815SOL    HW222343  13.055  11.249   9.293
 6816SOL     OW22344  10.233  12.548   3.424
 6816SOL    HW122345  10.166  12.602   3.466
 6816SOL    HW222346  10.308  12.607   3.413
 6817SOL     OW22347  13.223   6.937   2.585
 6817SOL    HW122348  13.195   6.902   2.670
 6817SOL    HW222349  13.270   7.017   2.607
 6818SOL     OW22350   2.844   8.943   4.374
 6818SOL    HW122351   2.929   8.979   4.398
 6818SOL    HW222352   2.836   8.862   4.423
 6819SOL     OW22353   3.641  10.182  10.295
 6819SOL    HW122354   3.679  10.149  10.377
 6819SOL    HW222355   3.688  10.134  10.227
 6820SOL     OW22356   7.641   7.816   2.302
 6820SOL    HW122357   7.694   7.737   2.315
 6820SOL    HW222358   7.700   7.878   2.259
 6821SOL     OW22359   4.835   8.526  14.685
 6821SOL    HW122360   4.763   8.494  14.631
 6821SOL    HW222361   4.906   8.463  14.672
 6822SOL     OW22362   7.660   1.703   9.036
 6822SOL    HW122363   7.655   1.680   8.943
 6822SOL    HW222364   7.573   1.684   9.071
 6823SOL     OW22365   7.383   3.800   9.789
 6823SOL    HW122366   7.383   3.714   9.747
 6823SOL    HW222367   7.305   3.800   9.843
 6824SOL     OW22368   2.775   8.551   9.587
 6824SOL    HW122369   2.831   8.498   9.531
 6824SOL    HW222370   2.737   8.488   9.649
 6825SOL     OW22371  13.670   3.187   9.620
 6825SOL    HW122372  13.715   3.153   9.543
 6825SOL    HW222373  13.585   3.216   9.588
 6826SOL     OW22374  10.879  14.078   8.009
 6826SOL    HW122375  10.844  14.051   8.094
 6826SOL    HW222376  10.919  14.163   8.026
 6827SOL     OW22377   6.581  11.122   8.147
 6827SOL    HW122378   6.543  11.097   8.063
 6827SOL    HW222379   6.506  11.129   8.206
 6828SOL     OW22380  11.796  11.345   0.950
 6828SOL    HW122381  11.832  11.410   1.011
 6828SOL    HW222382  11.758  11.278   1.007
 6829SOL     OW22383  12.036   1.066   2.266
 6829SOL    HW122384  12.039   0.972   2.248
 6829SOL    HW222385  12.116   1.084   2.314
 6830SOL     OW22386   3.545  12.451   1.908
 6830SOL    HW122387   3.451  12.434   1.908
 6830SOL    HW222388   3.583  12.376   1.861
 6831SOL     OW22389  13.000   9.820   2.743
 6831SOL    HW122390  13.028   9.848   2.656
 6831SOL    HW222391  12.943   9.745   2.727
 6832SOL     OW22392  14.548   5.721   1.787
 6832SOL    HW122393  14.471   5.775   1.768
 6832SOL    HW222394  14.618   5.759   1.734
 6833SOL     OW22395   8.231  12.002  11.762
 6833SOL    HW122396   8.219  12.073  11.698
 6833SOL    HW222397   8.253  11.926  11.709
 6834SOL     OW22398   3.618   2.388   4.941
 6834SOL    HW122399   3.621   2.483   4.935
 6834SOL    HW222400   3.708   2.362   4.960
 6835SOL     OW22401   1.664  10.533  11.721
 6835SOL    HW122402   1.583  10.515  11.674
 6835SOL    HW222403   1.643  10.609  11.777
 6836SOL     OW22404   9.494   7.949  12.877
 6836SOL    HW122405   9.411   7.989  12.904
 6836SOL    HW222406   9.547   7.949  12.957
 6837SOL     OW22407  11.235   4.406   6.436
 6837SOL    HW122408  11.239   4.388   6.530
 6837SOL    HW222409  11.149   4.372   6.409
 6838SOL     OW22410   5.778   8.155  14.078
 6838SOL    HW122411   5.771   8.167  13.983
 6838SOL    HW222412   5.786   8.060  14.090
 6839SOL     OW22413   8.526   1.517  12.170
 6839SOL    HW122414   8.582   1.590  12.143
 6839SOL    HW222415   8.479   1.492  12.091
 6840SOL     OW22416   7.204   7.121   1.472
 6840SOL    HW122417   7.264   7.144   1.543
 6840SOL    HW222418   7.132   7.184   1.479
 6841SOL     OW22419   3.095  11.589   3.469
 6841SOL    HW122420   3.188  11.576   3.450
 6841SOL    HW222421   3.076  11.530   3.542
 6842SOL     OW22422   3.572   9.832  11.676
 6842SOL    HW122423   3.587   9.803  11.766
 6842SOL    HW222424   3.483   9.868  11.678
 6843SOL     OW22425   4.486   9.659  14.843
 6843SOL    HW122426   4.546   9.685  14.774
 6843SOL    HW222427   4.453   9.574  14.816
 6844SOL     OW22428  13.505   4.054   3.664
 6844SOL    HW122429  13.469   4.143   3.662
 6844SOL    HW222430  13.464   4.013   3.741
 6845SOL     OW22431  13.067   9.618   3.804
 6845SOL    HW122432  13.097   9.706   3.782
 6845SOL    HW222433  13.089   9.565   3.728
 6846SOL     OW22434  13.353   8.617  11.824
 6846SOL    HW122435  13.368   8.554  11.895
 6846SOL    HW222436  13.427   8.677  11.830
 6847SOL     OW22437  14.072   4.488  10.214
 6847SOL    HW122438  14.081   4.501  10.308
 6847SOL    HW222439  14.069   4.393  10.202
 6848SOL     OW22440   3.944   5.558   3.816
 6848SOL    HW122441   3.860   5.604   3.818
 6848SOL    HW222442   3.940   5.505   3.736
 6849SOL     OW22443   9.050   9.006  10.059
 6849SOL    HW122444   9.016   8.986   9.972
 6849SOL    HW222445   9.066   8.920  10.099
 6850SOL     OW22446  11.488   1.845   5.898
 6850SOL    HW122447  11.469   1.917   5.958
 6850SOL    HW222448  11.494   1.887   5.812
 6851SOL     OW22449   9.923   4.488   4.934
 6851SOL    HW122450   9.848   4.447   4.891
 6851SOL    HW222451   9.918   4.580   4.909
 6852SOL     OW22452   3.068   9.113   7.535
 6852SOL    HW122453   3.127   9.184   7.506
 6852SOL    HW222454   3.114   9.033   7.511
 6853SOL     OW22455   7.293  14.780   0.929
 6853SOL    HW122456   7.331  14.722   0.864
 6853SOL    HW222457   7.248  14.847   0.877
 6854SOL     OW22458   1.075  11.620  12.944
 6854SOL    HW122459   1.147  11.650  12.888
 6854SOL    HW222460   1.063  11.528  12.921
 6855SOL     OW22461  13.679   3.400   9.406
 6855SOL    HW122462  13.586   3.417   9.393
 6855SOL    HW222463  13.682   3.351   9.489
 6856SOL     OW22464  14.335  13.472   7.137
 6856SOL    HW122465  14.344  13.481   7.042
 6856SOL    HW222466  14.407  13.414   7.162
 6857SOL     OW22467   4.782  10.901   5.471
 6857SOL    HW122468   4.746  10.836   5.531
 6857SOL    HW222469   4.797  10.853   5.390
 6858SOL     OW22470  10.600   6.842   8.867
 6858SOL    HW122471  10.693   6.856   8.847
 6858SOL    HW222472  10.600   6.776   8.936
 6859SOL     OW22473   7.105   9.827  10.833
 6859SOL    HW122474   7.072   9.909  10.871
 6859SOL    HW222475   7.034   9.764  10.848
 6860SOL     OW22476   5.540  11.108  13.164
 6860SOL    HW122477   5.602  11.087  13.234
 6860SOL    HW222478   5.525  11.024  13.120
 6861SOL     OW22479   0.018   9.262   3.167
 6861SOL    HW122480  14.813   9.223   3.172
 6861SOL    HW222481   0.076   9.195   3.203
 6862SOL     OW22482   7.971   3.823   4.934
 6862SOL    HW122483   7.980   3.732   4.907
 6862SOL    HW222484   7.932   3.867   4.859
 6863SOL     OW22485  11.740   4.373   1.201
 6863SOL    HW122486  11.772   4.367   1.111
 6863SOL    HW222487  11.698   4.459   1.206
 6864SOL     OW22488  13.170   7.971  13.639
 6864SOL    HW122489  13.104   8.031  13.674
 6864SOL    HW222490  13.121   7.907  13.588
 6865SOL     OW22491  11.921   4.905  13.573
 6865SOL    HW122492  11.899   4.994  13.601
 6865SOL    HW222493  11.862   4.888  13.499
 6866SOL     OW22494   3.749  14.560  11.111
 6866SOL    HW122495   3.685  14.557  11.183
 6866SOL    HW222496   3.769  14.653  11.101
 6867SOL     OW22497   0.928   5.668   7.856
 6867SOL    HW122498   1.005   5.643   7.807
 6867SOL    HW222499   0.954   5.747   7.903
 6868SOL     OW22500   7.170  11.129   1.926
 6868SOL    HW122501   7.117  11.204   1.899
 6868SOL    HW222502   7.109  11.070   1.970
 6869SOL     OW22503  13.656   8.768   1.015
 6869SOL    HW122504  13.603   8.816   0.952
 6869SOL    HW222505  13.647   8.676   0.988
 6870SOL     OW22506  14.187   4.138  12.985
 6870SOL    HW122507  14.125   4.100  13.048
 6870SOL    HW222508  14.212   4.222  13.023
 6871SOL     OW22509   2.052   5.912   6.842
 6871SOL    HW122510   1.961   5.901   6.868
 6871SOL    HW222511   2.102   5.871   6.913
 6872SOL     OW22512   2.120   2.927   8.131
 6872SOL    HW122513   2.090   3.004   8.083
 6872SOL    HW222514   2.109   2.855   8.070
 6873SOL     OW22515  14.336   7.613  11.565
 6873SOL    HW122516  14.291   7.529  11.556
 6873SOL    HW222517  14.282   7.663  11.626
 6874SOL     OW22518   4.898   5.069   4.194
 6874SOL    HW122519   4.822   5.015   4.173
 6874SOL    HW222520   4.878   5.154   4.156
 6875SOL     OW22521  10.413   1.369  11.155
 6875SOL    HW122522  10.393   1.352  11.063
 6875SOL    HW222523  10.488   1.428  11.153
 6876SOL     OW22524  12.973  11.188   3.163
 6876SOL    HW122525  12.912  11.223   3.097
 6876SOL    HW222526  13.029  11.262   3.185
 6877SOL     OW22527   8.360   0.012   1.009
 6877SOL    HW122528   8.431   0.015   1.074
 6877SOL    HW222529   8.367   0.096   0.963
 6878SOL     OW22530   5.297   1.843  13.618
 6878SOL    HW122531   5.311   1.790  13.539
 6878SOL    HW222532   5.230   1.907  13.592
 6879SOL     OW22533  14.177  10.358  13.382
 6879SOL    HW122534  14.162  10.452  13.375
 6879SOL    HW222535  14.265  10.344  13.347
 6880SOL     OW22536   1.748   0.439  10.345
 6880SOL    HW122537   1.833   0.478  10.327
 6880SOL    HW222538   1.704   0.436  10.260
 6881SOL     OW22539  13.188  14.710  10.258
 6881SOL    HW122540  13.215  14.792  10.299
 6881SOL    HW222541  13.161  14.655  10.331
 6882SOL     OW22542  14.700  12.446   8.359
 6882SOL    HW122543  14.784  12.478   8.392
 6882SOL    HW222544  14.653  12.418   8.438
 6883SOL     OW22545   6.933  14.593  10.094
 6883SOL    HW122546   7.020  14.611  10.129
 6883SOL    HW222547   6.887  14.547  10.165
 6884SOL     OW22548  12.945   4.287   4.726
 6884SOL    HW122549  12.965   4.232   4.802
 6884SOL    HW222550  12.961   4.377   4.757
 6885SOL     OW22551   8.004   6.249   6.148
 6885SOL    HW122552   8.075   6.290   6.198
 6885SOL    HW222553   8.048   6.189   6.088
 6886SOL     OW22554   2.698  12.236  12.707
 6886SOL    HW122555   2.629  12.171  12.725
 6886SOL    HW222556   2.750  12.196  12.637
 6887SOL     OW22557  13.041  14.631   1.249
 6887SOL    HW122558  13.053  14.541   1.279
 6887SOL    HW222559  13.109  14.681   1.295
 6888SOL     OW22560   8.058   1.840   6.827
 6888SOL    HW122561   8.146   1.826   6.792
 6888SOL    HW222562   8.044   1.935   6.821
 6889SOL     OW22563  12.841   5.493  12.212
 6889SOL    HW122564  12.763   5.475  12.158
 6889SOL    HW222565  12.806   5.513  12.299
 6890SOL     OW22566   3.887   7.850  12.271
 6890SOL    HW122567   3.907   7.885  12.357
 6890SOL    HW222568   3.903   7.922  12.210
 6891SOL     OW22569   8.929   8.236   6.070
 6891SOL    HW122570   8.927   8.159   6.127
 6891SOL    HW222571   8.875   8.301   6.115
 6892SOL     OW22572   6.837   9.644   0.119
 6892SOL    HW122573   6.818   9.734   0.094
 6892SOL    HW222574   6.909   9.618   0.062
 6893SOL     OW22575   0.220  10.687  13.728
 6893SOL    HW122576   0.313  10.707  13.743
 6893SOL    HW222577   0.184  10.768  13.692
 6894SOL     OW22578   9.965  13.904   9.801
 6894SOL    HW122579  10.047  13.951   9.814
 6894SOL    HW222580   9.906  13.967   9.760
 6895SOL     OW22581  14.496   0.067   8.333
 6895SOL    HW122582  14.466   0.117   8.409
 6895SOL    HW222583  14.452   0.109   8.258
 6896SOL     OW22584  10.303   8.077   9.904
 6896SOL    HW122585  10.356   8.132   9.847
 6896SOL    HW222586  10.309   8.118   9.990
 6897SOL     OW22587   9.223   0.050   1.941
 6897SOL    HW122588   9.268   0.084   1.864
 6897SOL    HW222589   9.172   0.124   1.973
 6898SOL     OW22590   1.009   6.782   3.312
 6898SOL    HW122591   1.039   6.864   3.350
 6898SOL    HW222592   0.980   6.731   3.388
 6899SOL     OW22593   3.328   5.040   2.913
 6899SOL    HW122594   3.391   5.098   2.870
 6899SOL    HW222595   3.255   5.034   2.852
 6900SOL     OW22596   7.554   1.210   3.927
 6900SOL    HW122597   7.622   1.180   3.867
 6900SOL    HW222598   7.599   1.219   4.011
 6901SOL     OW22599  13.028  11.775   7.575
 6901SOL    HW122600  13.116  11.773   7.537
 6901SOL    HW222601  12.972  11.803   7.502
 6902SOL     OW22602   1.010   7.758  14.616
 6902SOL    HW122603   1.031   7.666  14.631
 6902SOL    HW222604   0.918   7.758  14.589
 6903SOL     OW22605  12.996  14.674   0.324
 6903SOL    HW122606  13.024  14.760   0.295
 6903SOL    HW222607  12.901  14.674   0.310
 6904SOL     OW22608   8.164   4.316   4.322
 6904SOL    HW122609   8.084   4.284   4.363
 6904SOL    HW222610   8.137   4.394   4.274
 6905SOL     OW22611   3.173  11.634  14.448
 6905SOL    HW122612   3.117  11.695  14.496
 6905SOL    HW222613   3.256  11.681  14.438
 6906SOL     OW22614  10.892   4.414   7.672
 6906SOL    HW122615  10.813   4.411   7.617
 6906SOL    HW222616  10.893   4.502   7.707
 6907SOL     OW22617  13.418   7.812  11.258
 6907SOL    HW122618  13.384   7.778  11.175
 6907SOL    HW222619  13.342   7.816  11.316
 6908SOL     OW22620  11.301  13.901   3.096
 6908SOL    HW122621  11.265  13.984   3.065
 6908SOL    HW222622  11.229  13.861   3.146
 6909SOL     OW22623   4.014  10.568  13.956
 6909SOL    HW122624   4.058  10.648  13.929
 6909SOL    HW222625   4.084  10.502  13.959
 6910SOL     OW22626  11.095  10.966  13.244
 6910SOL    HW122627  11.072  11.017  13.322
 6910SOL    HW222628  11.091  10.875  13.274
 6911SOL     OW22629   0.342   7.795   3.782
 6911SOL    HW122630   0.377   7.722   3.834
 6911SOL    HW222631   0.377   7.873   3.824
 6912SOL     OW22632   1.958   7.356   8.552
 6912SOL    HW122633   2.038   7.364   8.605
 6912SOL    HW222634   1.990   7.344   8.463
 6913SOL     OW22635  13.452   8.081   3.759
 6913SOL    HW122636  13.400   8.007   3.789
 6913SOL    HW222637  13.449   8.075   3.663
 6914SOL     OW22638   0.821   4.245   0.643
 6914SOL    HW122639   0.841   4.293   0.563
 6914SOL    HW222640   0.892   4.181   0.651
 6915SOL     OW22641  11.709   1.934   6.415
 6915SOL    HW122642  11.715   1.952   6.321
 6915SOL    HW222643  11.676   1.845   6.420
 6916SOL     OW22644  10.913   1.550   5.634
 6916SOL    HW122645  10.822   1.520   5.636
 6916SOL    HW222646  10.910   1.640   5.668
 6917SOL     OW22647  10.329   8.201   1.939
 6917SOL    HW122648  10.392   8.137   1.971
 6917SOL    HW222649  10.261   8.148   1.896
 6918SOL     OW22650   4.267   3.991  14.829
 6918SOL    HW122651   4.191   4.005  14.773
 6918SOL    HW222652   4.335   4.047  14.790
 6919SOL     OW22653   5.782   0.618  12.043
 6919SOL    HW122654   5.757   0.704  12.078
 6919SOL    HW222655   5.700   0.580  12.012
 6920SOL     OW22656   4.427   3.944   4.445
 6920SOL    HW122657   4.414   4.027   4.490
 6920SOL    HW222658   4.432   3.968   4.352
 6921SOL     OW22659   7.858   5.704  14.122
 6921SOL    HW122660   7.866   5.766  14.194
 6921SOL    HW222661   7.870   5.758  14.043
 6922SOL     OW22662   6.092   4.865   7.470
 6922SOL    HW122663   6.084   4.960   7.462
 6922SOL    HW222664   6.013   4.838   7.517
 6923SOL     OW22665  14.441  10.360   3.415
 6923SOL    HW122666  14.484  10.280   3.386
 6923SOL    HW222667  14.362  10.330   3.461
 6924SOL     OW22668  13.833  11.194   7.152
 6924SOL    HW122669  13.809  11.273   7.105
 6924SOL    HW222670  13.907  11.220   7.206
 6925SOL     OW22671   2.936   7.558  14.192
 6925SOL    HW122672   2.949   7.643  14.150
 6925SOL    HW222673   2.978   7.567  14.278
 6926SOL     OW22674  14.384  11.017   2.507
 6926SOL    HW122675  14.474  10.986   2.518
 6926SOL    HW222676  14.391  11.088   2.443
 6927SOL     OW22677   8.976   6.419   6.540
 6927SOL    HW122678   8.885   6.407   6.566
 6927SOL    HW222679   9.004   6.332   6.511
 6928SOL     OW22680   8.720   5.412   7.882
 6928SOL    HW122681   8.663   5.359   7.828
 6928SOL    HW222682   8.776   5.459   7.820
 6929SOL     OW22683   2.932  11.097   5.660
 6929SOL    HW122684   2.877  11.172   5.684
 6929SOL    HW222685   3.011  11.136   5.624
 6930SOL     OW22686   1.560  11.397   0.233
 6930SOL    HW122687   1.629  11.433   0.177
 6930SOL    HW222688   1.581  11.430   0.320
 6931SOL     OW22689  10.611   7.120  10.183
 6931SOL    HW122690  10.697   7.090  10.154
 6931SOL    HW222691  10.629   7.197  10.237
 6932SOL     OW22692   0.550   5.426   1.720
 6932SOL    HW122693   0.630   5.377   1.739
 6932SOL    HW222694   0.533   5.410   1.627
 6933SOL     OW22695   8.008   1.783   9.202
 6933SOL    HW122696   8.071   1.772   9.273
 6933SOL    HW222697   7.986   1.693   9.175
 6934SOL     OW22698  10.251  10.609   3.528
 6934SOL    HW122699  10.333  10.658   3.538
 6934SOL    HW222700  10.241  10.598   3.434
 6935SOL     OW22701   1.818   3.268   7.614
 6935SOL    HW122702   1.825   3.244   7.522
 6935SOL    HW222703   1.787   3.358   7.613
 6936SOL     OW22704  10.819  11.286   0.701
 6936SOL    HW122705  10.760  11.337   0.756
 6936SOL    HW222706  10.782  11.294   0.613
 6937SOL     OW22707  10.335  11.547   3.414
 6937SOL    HW122708  10.244  11.571   3.431
 6937SOL    HW222709  10.384  11.629   3.424
 6938SOL     OW22710   7.865   5.684   4.314
 6938SOL    HW122711   7.832   5.696   4.403
 6938SOL    HW222712   7.791   5.649   4.265
 6939SOL     OW22713  13.538   0.303   9.993
 6939SOL    HW122714  13.574   0.369  10.052
 6939SOL    HW222715  13.608   0.285   9.931
 6940SOL     OW22716   0.072   5.331  12.788
 6940SOL    HW122717   0.120   5.248  12.785
 6940SOL    HW222718   0.109   5.378  12.863
 6941SOL     OW22719   5.244   5.958   0.196
 6941SOL    HW122720   5.275   6.046   0.176
 6941SOL    HW222721   5.288   5.902   0.133
 6942SOL     OW22722   1.192  13.142   5.320
 6942SOL    HW122723   1.159  13.174   5.236
 6942SOL    HW222724   1.138  13.186   5.385
 6943SOL     OW22725  14.748   1.842  10.738
 6943SOL    HW122726  14.828   1.869  10.783
 6943SOL    HW222727  14.703   1.786  10.800
 6944SOL     OW22728  13.625   7.373   2.935
 6944SOL    HW122729  13.608   7.335   3.022
 6944SOL    HW222730  13.698   7.322   2.901
 6945SOL     OW22731   5.700   1.597   5.501
 6945SOL    HW122732   5.625   1.657   5.503
 6945SOL    HW222733   5.730   1.599   5.410
 6946SOL     OW22734   3.276   3.543   6.138
 6946SOL    HW122735   3.290   3.636   6.160
 6946SOL    HW222736   3.270   3.499   6.222
 6947SOL     OW22737  14.600  12.201   7.700
 6947SOL    HW122738  14.559  12.161   7.777
 6947SOL    HW222739  14.628  12.287   7.731
 6948SOL     OW22740   4.285  10.546   6.312
 6948SOL    HW122741   4.356  10.531   6.375
 6948SOL    HW222742   4.306  10.630   6.272
 6949SOL     OW22743  13.673   7.047   1.112
 6949SOL    HW122744  13.707   7.087   1.032
 6949SOL    HW222745  13.578   7.057   1.105
 6950SOL     OW22746  13.182  13.653   8.211
 6950SOL    HW122747  13.139  13.606   8.140
 6950SOL    HW222748  13.160  13.603   8.290
 6951SOL     OW22749   7.656   4.881  10.145
 6951SOL    HW122750   7.613   4.847  10.067
 6951SOL    HW222751   7.747   4.895  10.119
 6952SOL     OW22752   1.021  11.677  10.166
 6952SOL    HW122753   0.988  11.666  10.077
 6952SOL    HW222754   0.959  11.629  10.221
 6953SOL     OW22755   5.831   5.878  14.083
 6953SOL    HW122756   5.760   5.940  14.096
 6953SOL    HW222757   5.910   5.925  14.110
 6954SOL     OW22758  10.553   7.197   7.263
 6954SOL    HW122759  10.467   7.162   7.288
 6954SOL    HW222760  10.575   7.152   7.182
 6955SOL     OW22761   4.216   5.424   4.743
 6955SOL    HW122762   4.186   5.342   4.782
 6955SOL    HW222763   4.154   5.490   4.775
 6956SOL     OW22764   7.081   0.813  14.583
 6956SOL    HW122765   7.087   0.831  14.489
 6956SOL    HW222766   7.052   0.722  14.589
 6957SOL     OW22767   8.246  12.657   3.155
 6957SOL    HW122768   8.296  12.615   3.086
 6957SOL    HW222769   8.274  12.612   3.236
 6958SOL     OW22770  10.096  11.732   2.696
 6958SOL    HW122771  10.147  11.799   2.649
 6958SOL    HW222772  10.101  11.655   2.640
 6959SOL     OW22773   9.545   3.709   4.033
 6959SOL    HW122774   9.449   3.702   4.039
 6959SOL    HW222775   9.561   3.751   3.949
 6960SOL     OW22776  14.244   6.583   6.556
 6960SOL    HW122777  14.248   6.594   6.651
 6960SOL    HW222778  14.313   6.520   6.536
 6961SOL     OW22779   9.664   3.627  12.519
 6961SOL    HW122780   9.657   3.545  12.472
 6961SOL    HW222781   9.742   3.669  12.483
 6962SOL     OW22782   6.503   7.905   4.870
 6962SOL    HW122783   6.495   7.908   4.774
 6962SOL    HW222784   6.592   7.934   4.887
 6963SOL     OW22785   1.143  12.291  12.586
 6963SOL    HW122786   1.225  12.261  12.625
 6963SOL    HW222787   1.100  12.340  12.655
 6964SOL     OW22788  11.477   1.104  13.600
 6964SOL    HW122789  11.411   1.090  13.532
 6964SOL    HW222790  11.515   1.017  13.615
 6965SOL     OW22791  13.940  13.563   1.278
 6965SOL    HW122792  13.990  13.544   1.199
 6965SOL    HW222793  14.002  13.553   1.350
 6966SOL     OW22794   8.333   3.877   9.749
 6966SOL    HW122795   8.243   3.864   9.721
 6966SOL    HW222796   8.351   3.970   9.731
 6967SOL     OW22797  13.520  14.763  13.022
 6967SOL    HW122798  13.432  14.730  13.041
 6967SOL    HW222799  13.506  14.839  12.966
 6968SOL     OW22800  10.163  14.591   8.081
 6968SOL    HW122801  10.129  14.588   8.170
 6968SOL    HW222802  10.086  14.603   8.026
 6969SOL     OW22803   7.322   3.784   8.699
 6969SOL    HW122804   7.293   3.714   8.758
 6969SOL    HW222805   7.241   3.826   8.670
 6970SOL     OW22806   1.769   2.722   2.223
 6970SOL    HW122807   1.855   2.726   2.265
 6970SOL    HW222808   1.745   2.814   2.210
 6971SOL     OW22809   9.222   4.418   5.802
 6971SOL    HW122810   9.299   4.461   5.840
 6971SOL    HW222811   9.178   4.486   5.752
 6972SOL     OW22812  11.047   4.718  12.391
 6972SOL    HW122813  11.130   4.752  12.359
 6972SOL    HW222814  11.014   4.664  12.319
 6973SOL     OW22815   1.425   1.893   9.388
 6973SOL    HW122816   1.332   1.873   9.397
 6973SOL    HW222817   1.469   1.825   9.438
 6974SOL     OW22818   9.194   9.987   0.840
 6974SOL    HW122819   9.135  10.061   0.823
 6974SOL    HW222820   9.209   9.989   0.934
 6975SOL     OW22821  13.344  11.273   5.346
 6975SOL    HW122822  13.429  11.315   5.330
 6975SOL    HW222823  13.359  11.217   5.422
 6976SOL     OW22824  13.363   7.186   2.631
 6976SOL    HW122825  13.287   7.216   2.582
 6976SOL    HW222826  13.404   7.266   2.663
 6977SOL     OW22827   7.958   5.961   2.493
 6977SOL    HW122828   8.042   5.929   2.528
 6977SOL    HW222829   7.900   5.963   2.569
 6978SOL     OW22830   6.391  11.100  12.829
 6978SOL    HW122831   6.354  11.039  12.765
 6978SOL    HW222832   6.382  11.054  12.913
 6979SOL     OW22833  11.884  14.521   2.984
 6979SOL    HW122834  11.845  14.537   3.070
 6979SOL    HW222835  11.809  14.510   2.926
 6980SOL     OW22836  11.426  12.770  10.419
 6980SOL    HW122837  11.355  12.736  10.474
 6980SOL    HW222838  11.391  12.850  10.381
 6981SOL     OW22839   5.603  13.195   0.683
 6981SOL    HW122840   5.599  13.170   0.590
 6981SOL    HW222841   5.584  13.288   0.684
 6982SOL     OW22842  10.592   5.815   3.955
 6982SOL    HW122843  10.663   5.791   4.014
 6982SOL    HW222844  10.519   5.837   4.013
 6983SOL     OW22845  10.072   2.568  14.539
 6983SOL    HW122846  10.137   2.521  14.593
 6983SOL    HW222847  10.120   2.642  14.502
 6984SOL     OW22848   7.592   0.624  12.526
 6984SOL    HW122849   7.619   0.549  12.578
 6984SOL    HW222850   7.604   0.597  12.435
 6985SOL     OW22851   2.008   8.601  12.121
 6985SOL    HW122852   1.992   8.677  12.065
 6985SOL    HW222853   2.086   8.623  12.171
 6986SOL     OW22854   4.194   4.488  10.524
 6986SOL    HW122855   4.277   4.459  10.485
 6986SOL    HW222856   4.127   4.460  10.461
 6987SOL     OW22857  14.255   6.131   7.044
 6987SOL    HW122858  14.267   6.160   7.134
 6987SOL    HW222859  14.181   6.070   7.049
 6988SOL     OW22860   7.925   8.646   9.659
 6988SOL    HW122861   7.983   8.576   9.690
 6988SOL    HW222862   7.984   8.716   9.631
 6989SOL     OW22863   2.363  12.243  12.528
 6989SOL    HW122864   2.422  12.316  12.511
 6989SOL    HW222865   2.414  12.184  12.584
 6990SOL     OW22866  10.578   0.939   1.601
 6990SOL    HW122867  10.562   0.961   1.692
 6990SOL    HW222868  10.563   1.020   1.553
 6991SOL     OW22869   4.507   5.488   2.732
 6991SOL    HW122870   4.461   5.433   2.669
 6991SOL    HW222871   4.440   5.546   2.768
 6992SOL     OW22872   1.727  10.173   8.466
 6992SOL    HW122873   1.813  10.169   8.507
 6992SOL    HW222874   1.696  10.083   8.465
 6993SOL     OW22875   1.093   0.072   1.510
 6993SOL    HW122876   1.035   0.059   1.436
 6993SOL    HW222877   1.068   0.004   1.573
 6994SOL     OW22878  10.829  10.093   9.013
 6994SOL    HW122879  10.760  10.083   8.948
 6994SOL    HW222880  10.868  10.006   9.020
 6995SOL     OW22881   1.656  10.828   3.516
 6995SOL    HW122882   1.622  10.879   3.589
 6995SOL    HW222883   1.641  10.737   3.541
 6996SOL     OW22884   8.418   4.956   9.877
 6996SOL    HW122885   8.342   4.957   9.936
 6996SOL    HW222886   8.405   4.877   9.824
 6997SOL     OW22887  14.111   8.605  14.032
 6997SOL    HW122888  14.175   8.653  14.084
 6997SOL    HW222889  14.078   8.670  13.969
 6998SOL     OW22890   8.420   8.358   9.015
 6998SOL    HW122891   8.446   8.290   8.953
 6998SOL    HW222892   8.358   8.413   8.966
 6999SOL     OW22893   0.257   7.217  10.480
 6999SOL    HW122894   0.342   7.174  10.491
 6999SOL    HW222895   0.279   7.302  10.440
 7000SOL     OW22896   7.398   2.382   9.846
 7000SOL    HW122897   7.429   2.339   9.925
 7000SOL    HW222898   7.394   2.475   9.869
 7001SOL     OW22899  10.614  12.664   8.018
 7001SOL    HW122900  10.675  12.590   8.015
 7001SOL    HW222901  10.601  12.688   7.927
 7002SOL     OW22902  11.240   9.615   8.755
 7002SOL    HW122903  11.215   9.579   8.670
 7002SOL    HW222904  11.164   9.601   8.810
 7003SOL     OW22905   4.726   6.800   6.114
 7003SOL    HW122906   4.820   6.806   6.134
 7003SOL    HW222907   4.688   6.881   6.148
 7004SOL     OW22908  12.797   7.232   4.954
 7004SOL    HW122909  12.834   7.320   4.946
 7004SOL    HW222910  12.866   7.174   4.921
 7005SOL     OW22911  12.854   4.326   3.022
 7005SOL    HW122912  12.775   4.294   3.067
 7005SOL    HW222913  12.921   4.260   3.041
 7006SOL     OW22914   2.047  13.716   4.094
 7006SOL    HW122915   2.088  13.736   4.011
 7006SOL    HW222916   1.988  13.789   4.110
 7007SOL     OW22917  12.307  14.515   6.424
 7007SOL    HW122918  12.360  14.445   6.385
 7007SOL    HW222919  12.336  14.517   6.515
 7008SOL     OW22920   2.446   2.572   9.240
 7008SOL    HW122921   2.388   2.637   9.202
 7008SOL    HW222922   2.480   2.613   9.319
 7009SOL     OW22923  10.041  10.907   4.813
 7009SOL    HW122924  10.133  10.915   4.840
 7009SOL    HW222925  10.015  10.995   4.788
 7010SOL     OW22926   2.149   4.272   9.348
 7010SOL    HW122927   2.132   4.266   9.254
 7010SOL    HW222928   2.183   4.186   9.372
 7011SOL     OW22929   5.635   0.152  14.459
 7011SOL    HW122930   5.658   0.216  14.390
 7011SOL    HW222931   5.593   0.081  14.411
 7012SOL     OW22932   5.238   4.174   8.736
 7012SOL    HW122933   5.312   4.233   8.752
 7012SOL    HW222934   5.254   4.139   8.648
 7013SOL     OW22935   8.927  10.359  10.667
 7013SOL    HW122936   8.942  10.447  10.702
 7013SOL    HW222937   8.981  10.355  10.589
 7014SOL     OW22938   6.614   2.375  11.302
 7014SOL    HW122939   6.707   2.389  11.287
 7014SOL    HW222940   6.574   2.460  11.284
 7015SOL     OW22941  10.479   1.887  10.127
 7015SOL    HW122942  10.534   1.957  10.091
 7015SOL    HW222943  10.503   1.809  10.078
 7016SOL     OW22944   8.634  14.244   6.059
 7016SOL    HW122945   8.651  14.165   6.110
 7016SOL    HW222946   8.654  14.218   5.969
 7017SOL     OW22947   8.836   6.604   8.124
 7017SOL    HW122948   8.770   6.544   8.159
 7017SOL    HW222949   8.897   6.618   8.197
 7018SOL     OW22950  10.712   3.452   7.343
 7018SOL    HW122951  10.626   3.490   7.327
 7018SOL    HW222952  10.716   3.440   7.438
 7019SOL     OW22953  13.798   2.595   5.909
 7019SOL    HW122954  13.796   2.689   5.923
 7019SOL    HW222955  13.888   2.569   5.928
 7020SOL     OW22956  13.397  10.952   8.424
 7020SOL    HW122957  13.371  10.983   8.337
 7020SOL    HW222958  13.323  10.974   8.481
 7021SOL     OW22959  13.642  10.633   4.128
 7021SOL    HW122960  13.567  10.626   4.068
 7021SOL    HW222961  13.602  10.644   4.214
 7022SOL     OW22962  12.986   0.255  12.089
 7022SOL    HW122963  12.972   0.194  12.162
 7022SOL    HW222964  12.898   0.277  12.059
 7023SOL     OW22965   4.582   0.059   8.180
 7023SOL    HW122966   4.582   0.089   8.271
 7023SOL    HW222967   4.510   0.107   8.139
 7024SOL     OW22968   6.029   2.847  13.391
 7024SOL    HW122969   6.049   2.758  13.363
 7024SOL    HW222970   6.115   2.889  13.398
 7025SOL     OW22971   3.887   8.701   2.632
 7025SOL    HW122972   3.807   8.738   2.594
 7025SOL    HW222973   3.901   8.620   2.584
 7026SOL     OW22974   2.972   4.610  13.560
 7026SOL    HW122975   2.903   4.577  13.618
 7026SOL    HW222976   2.951   4.572  13.475
 7027SOL     OW22977   0.162   7.962  13.687
 7027SOL    HW122978   0.138   8.020  13.616
 7027SOL    HW222979   0.195   7.883  13.644
 7028SOL     OW22980  11.158   8.974  12.564
 7028SOL    HW122981  11.232   8.947  12.618
 7028SOL    HW222982  11.125   8.892  12.526
 7029SOL     OW22983   8.232   7.436   5.908
 7029SOL    HW122984   8.140   7.409   5.904
 7029SOL    HW222985   8.236   7.513   5.851
 7030SOL     OW22986   8.198  13.137  12.867
 7030SOL    HW122987   8.233  13.185  12.791
 7030SOL    HW222988   8.248  13.171  12.941
 7031SOL     OW22989   2.014   0.519   0.543
 7031SOL    HW122990   2.092   0.516   0.488
 7031SOL    HW222991   1.975   0.605   0.527
 7032SOL     OW22992   8.225  10.175   6.115
 7032SOL    HW122993   8.196  10.222   6.038
 7032SOL    HW222994   8.272  10.240   6.167
 7033SOL     OW22995  10.723   4.993   4.891
 7033SOL    HW122996  10.700   4.967   4.802
 7033SOL    HW222997  10.719   4.911   4.941
 7034SOL     OW22998  12.271   5.636   3.370
 7034SOL    HW122999  12.341   5.635   3.435
 7034SOL    HW223000  12.211   5.567   3.398
 7035SOL     OW23001   9.383   9.103   5.769
 7035SOL    HW123002   9.325   9.172   5.801
 7035SOL    HW223003   9.364   9.098   5.675
 7036SOL     OW23004  12.490   0.892   3.039
 7036SOL    HW123005  12.510   0.798   3.037
 7036SOL    HW223006  12.537   0.928   2.963
 7037SOL     OW23007   6.077   9.073  10.889
 7037SOL    HW123008   6.076   9.094  10.982
 7037SOL    HW223009   5.998   9.115  10.854
 7038SOL     OW23010  14.878   2.853   3.278
 7038SOL    HW123011  14.855   2.928   3.334
 7038SOL    HW223012  14.799   2.799   3.277
 7039SOL     OW23013   9.027   1.417   8.769
 7039SOL    HW123014   9.100   1.368   8.808
 7039SOL    HW223015   8.952   1.397   8.825
 7040SOL     OW23016   7.158  11.823   1.269
 7040SOL    HW123017   7.181  11.857   1.355
 7040SOL    HW223018   7.176  11.729   1.275
 7041SOL     OW23019   5.917   1.969  11.264
 7041SOL    HW123020   5.835   1.982  11.217
 7041SOL    HW223021   5.917   1.876  11.288
 7042SOL     OW23022   9.748   7.917   5.006
 7042SOL    HW123023   9.836   7.881   5.004
 7042SOL    HW223024   9.697   7.862   4.946
 7043SOL     OW23025   2.651   8.690  11.126
 7043SOL    HW123026   2.628   8.645  11.045
 7043SOL    HW223027   2.578   8.749  11.143
 7044SOL     OW23028   8.859   9.131   0.596
 7044SOL    HW123029   8.841   9.186   0.520
 7044SOL    HW223030   8.897   9.051   0.560
 7045SOL     OW23031  14.448   0.155  13.680
 7045SOL    HW123032  14.395   0.118  13.750
 7045SOL    HW223033  14.441   0.250  13.692
 7046SOL     OW23034   6.760   4.199   2.470
 7046SOL    HW123035   6.833   4.151   2.509
 7046SOL    HW223036   6.721   4.247   2.542
 7047SOL     OW23037   2.483   4.548   6.366
 7047SOL    HW123038   2.531   4.498   6.432
 7047SOL    HW223039   2.463   4.484   6.297
 7048SOL     OW23040   7.554  10.231  10.353
 7048SOL    HW123041   7.639  10.234  10.396
 7048SOL    HW223042   7.553  10.147  10.306
 7049SOL     OW23043  10.524   6.696  11.967
 7049SOL    HW123044  10.452   6.731  12.019
 7049SOL    HW223045  10.503   6.721  11.877
 7050SOL     OW23046  10.004   6.101   1.820
 7050SOL    HW123047  10.044   6.030   1.870
 7050SOL    HW223048   9.979   6.061   1.737
 7051SOL     OW23049   9.445   1.430   5.262
 7051SOL    HW123050   9.380   1.380   5.213
 7051SOL    HW223051   9.396   1.467   5.336
 7052SOL     OW23052   8.551   9.597  13.553
 7052SOL    HW123053   8.467   9.586  13.510
 7052SOL    HW223054   8.610   9.626  13.484
 7053SOL     OW23055  11.963   9.084   3.035
 7053SOL    HW123056  12.048   9.066   2.995
 7053SOL    HW223057  11.979   9.157   3.095
 7054SOL     OW23058   1.915   9.188   1.844
 7054SOL    HW123059   1.935   9.280   1.861
 7054SOL    HW223060   1.890   9.185   1.752
 7055SOL     OW23061  14.728   1.904  13.500
 7055SOL    HW123062  14.673   1.827  13.518
 7055SOL    HW223063  14.666   1.977  13.496
 7056SOL     OW23064  11.345   4.005   3.522
 7056SOL    HW123065  11.312   4.022   3.610
 7056SOL    HW223066  11.291   3.933   3.489
 7057SOL     OW23067   6.379  11.506   9.088
 7057SOL    HW123068   6.337  11.505   9.175
 7057SOL    HW223069   6.403  11.415   9.072
 7058SOL     OW23070   3.825  12.867   9.232
 7058SOL    HW123071   3.834  12.781   9.274
 7058SOL    HW223072   3.768  12.851   9.156
 7059SOL     OW23073   7.208  13.467   3.910
 7059SOL    HW123074   7.295  13.506   3.898
 7059SOL    HW223075   7.147  13.540   3.898
 7060SOL     OW23076   4.665  12.319  13.592
 7060SOL    HW123077   4.628  12.358  13.671
 7060SOL    HW223078   4.752  12.358  13.583
 7061SOL     OW23079   8.499  10.891   7.865
 7061SOL    HW123080   8.420  10.935   7.834
 7061SOL    HW223081   8.548  10.959   7.910
 7062SOL     OW23082   1.500  13.056  11.189
 7062SOL    HW123083   1.427  12.998  11.166
 7062SOL    HW223084   1.551  13.062  11.108
 7063SOL     OW23085   8.117   1.051   7.697
 7063SOL    HW123086   8.173   1.116   7.739
 7063SOL    HW223087   8.154   0.967   7.723
 7064SOL     OW23088   7.409   9.324   8.946
 7064SOL    HW123089   7.342   9.393   8.941
 7064SOL    HW223090   7.437   9.311   8.855
 7065SOL     OW23091  14.405   9.194   0.432
 7065SOL    HW123092  14.414   9.235   0.346
 7065SOL    HW223093  14.339   9.247   0.477
 7066SOL     OW23094   9.801  10.164  13.284
 7066SOL    HW123095   9.806  10.211  13.201
 7066SOL    HW223096   9.866  10.093  13.276
 7067SOL     OW23097   3.730   5.154   2.392
 7067SOL    HW123098   3.740   5.065   2.357
 7067SOL    HW223099   3.795   5.206   2.344
 7068SOL     OW23100   9.767   7.796   7.746
 7068SOL    HW123101   9.698   7.730   7.740
 7068SOL    HW223102   9.724   7.879   7.724
 7069SOL     OW23103  11.607  14.721   7.787
 7069SOL    HW123104  11.622  14.763   7.871
 7069SOL    HW223105  11.669  14.765   7.727
 7070SOL     OW23106   6.650   1.185   2.717
 7070SOL    HW123107   6.650   1.146   2.630
 7070SOL    HW223108   6.640   1.111   2.777
 7071SOL     OW23109  12.429   9.182   1.077
 7071SOL    HW123110  12.500   9.161   1.017
 7071SOL    HW223111  12.424   9.277   1.076
 7072SOL     OW23112   4.223   3.850   7.719
 7072SOL    HW123113   4.143   3.821   7.763
 7072SOL    HW223114   4.239   3.938   7.752
 7073SOL     OW23115   0.062  10.898   6.417
 7073SOL    HW123116   0.051  10.815   6.463
 7073SOL    HW223117   0.147  10.931   6.447
 7074SOL     OW23118   2.247   9.029  12.962
 7074SOL    HW123119   2.229   9.116  12.925
 7074SOL    HW223120   2.171   8.976  12.939
 7075SOL     OW23121   8.265  12.323   8.975
 7075SOL    HW123122   8.207  12.273   9.032
 7075SOL    HW223123   8.207  12.363   8.910
 7076SOL     OW23124  11.660   3.088   8.708
 7076SOL    HW123125  11.568   3.062   8.705
 7076SOL    HW223126  11.665   3.167   8.654
 7077SOL     OW23127   1.766   6.338   0.725
 7077SOL    HW123128   1.736   6.402   0.660
 7077SOL    HW223129   1.837   6.291   0.681
 7078SOL     OW23130  13.022   5.324  11.967
 7078SOL    HW123131  12.963   5.256  12.001
 7078SOL    HW223132  13.088   5.335  12.035
 7079SOL     OW23133   6.562  14.104   7.448
 7079SOL    HW123134   6.642  14.076   7.493
 7079SOL    HW223135   6.554  14.197   7.468
 7080SOL     OW23136   2.713   8.033  14.836
 7080SOL    HW123137   2.631   8.000  14.801
 7080SOL    HW223138   2.738   8.105  14.778
 7081SOL     OW23139   2.180  12.893   3.870
 7081SOL    HW123140   2.217  12.815   3.828
 7081SOL    HW223141   2.245  12.961   3.856
 7082SOL     OW23142  11.555   1.299   4.522
 7082SOL    HW123143  11.620   1.261   4.463
 7082SOL    HW223144  11.522   1.376   4.476
 7083SOL     OW23145  11.585   5.966  14.308
 7083SOL    HW123146  11.669   5.990  14.347
 7083SOL    HW223147  11.536   6.048  14.303
 7084SOL     OW23148  13.853  10.079   8.126
 7084SOL    HW123149  13.911  10.062   8.200
 7084SOL    HW223150  13.871  10.008   8.065
 7085SOL     OW23151   7.906   4.022   8.361
 7085SOL    HW123152   7.909   3.993   8.270
 7085SOL    HW223153   7.818   3.997   8.391
 7086SOL     OW23154   9.450   6.567   5.599
 7086SOL    HW123155   9.432   6.589   5.508
 7086SOL    HW223156   9.374   6.516   5.627
 7087SOL     OW23157   2.515   7.893   5.699
 7087SOL    HW123158   2.531   7.976   5.653
 7087SOL    HW223159   2.445   7.914   5.762
 7088SOL     OW23160   0.671  13.097   7.290
 7088SOL    HW123161   0.699  13.176   7.335
 7088SOL    HW223162   0.737  13.083   7.222
 7089SOL     OW23163  11.610   8.442   5.948
 7089SOL    HW123164  11.650   8.439   6.035
 7089SOL    HW223165  11.516   8.446   5.964
 7090SOL     OW23166   1.925  11.282   9.376
 7090SOL    HW123167   1.950  11.330   9.297
 7090SOL    HW223168   2.006  11.278   9.428
 7091SOL     OW23169   6.473   4.729   4.667
 7091SOL    HW123170   6.402   4.757   4.725
 7091SOL    HW223171   6.530   4.806   4.662
 7092SOL     OW23172   3.350   4.708   0.603
 7092SOL    HW123173   3.280   4.761   0.567
 7092SOL    HW223174   3.412   4.771   0.639
 7093SOL     OW23175   3.222   8.976   1.824
 7093SOL    HW123176   3.232   9.037   1.897
 7093SOL    HW223177   3.275   8.900   1.850
 7094SOL     OW23178   6.283   6.868  12.929
 7094SOL    HW123179   6.315   6.809  12.998
 7094SOL    HW223180   6.294   6.955  12.966
 7095SOL     OW23181  11.003   1.553  13.122
 7095SOL    HW123182  11.001   1.485  13.056
 7095SOL    HW223183  10.950   1.624  13.086
 7096SOL     OW23184  14.312  13.561  11.625
 7096SOL    HW123185  14.367  13.561  11.547
 7096SOL    HW223186  14.312  13.470  11.655
 7097SOL     OW23187   7.368   1.211   6.514
 7097SOL    HW123188   7.448   1.263   6.503
 7097SOL    HW223189   7.394   1.122   6.490
 7098SOL     OW23190   3.092   9.392  11.829
 7098SOL    HW123191   3.161   9.456  11.846
 7098SOL    HW223192   3.110   9.321  11.890
 7099SOL     OW23193   0.587   0.768  12.294
 7099SOL    HW123194   0.530   0.830  12.340
 7099SOL    HW223195   0.585   0.797  12.203
 7100SOL     OW23196   8.566   9.770   2.450
 7100SOL    HW123197   8.602   9.733   2.369
 7100SOL    HW223198   8.622   9.737   2.519
 7101SOL     OW23199  11.138   8.895  10.538
 7101SOL    HW123200  11.141   8.831  10.609
 7101SOL    HW223201  11.229   8.922  10.527
 7102SOL     OW23202   1.301   5.182   8.747
 7102SOL    HW123203   1.364   5.178   8.675
 7102SOL    HW223204   1.267   5.093   8.755
 7103SOL     OW23205   6.444   3.413  14.543
 7103SOL    HW123206   6.484   3.359  14.475
 7103SOL    HW223207   6.435   3.354  14.618
 7104SOL     OW23208   5.757  14.001   9.891
 7104SOL    HW123209   5.721  14.023   9.977
 7104SOL    HW223210   5.689  14.028   9.829
 7105SOL     OW23211  14.074   3.512  11.616
 7105SOL    HW123212  14.069   3.595  11.664
 7105SOL    HW223213  13.993   3.510  11.565
 7106SOL     OW23214   2.391   8.798   9.600
 7106SOL    HW123215   2.394   8.813   9.694
 7106SOL    HW223216   2.307   8.754   9.585
 7107SOL     OW23217   9.931   2.368   9.588
 7107SOL    HW123218   9.973   2.442   9.545
 7107SOL    HW223219   9.987   2.349   9.664
 7108SOL     OW23220   7.801  11.407   0.542
 7108SOL    HW123221   7.755  11.448   0.469
 7108SOL    HW223222   7.825  11.321   0.509
 7109SOL     OW23223   5.006   5.328   5.324
 7109SOL    HW123224   4.937   5.324   5.258
 7109SOL    HW223225   5.064   5.397   5.294
 7110SOL     OW23226   4.779  13.619   8.226
 7110SOL    HW123227   4.716  13.691   8.234
 7110SOL    HW223228   4.809  13.604   8.316
 7111SOL     OW23229   3.625   1.466   3.932
 7111SOL    HW123230   3.714   1.497   3.952
 7111SOL    HW223231   3.616   1.480   3.838
 7112SOL     OW23232   2.203   7.089  10.977
 7112SOL    HW123233   2.280   7.101  10.921
 7112SOL    HW223234   2.238   7.057  11.060
 7113SOL     OW23235   0.427   4.436   6.554
 7113SOL    HW123236   0.411   4.464   6.464
 7113SOL    HW223237   0.358   4.371   6.571
 7114SOL     OW23238   8.058   6.555   5.104
 7114SOL    HW123239   8.010   6.548   5.021
 7114SOL    HW223240   8.044   6.645   5.132
 7115SOL     OW23241   5.648   0.625   1.556
 7115SOL    HW123242   5.572   0.648   1.503
 7115SOL    HW223243   5.617   0.632   1.646
 7116SOL     OW23244   3.736  11.696  14.715
 7116SOL    HW123245   3.758  11.667  14.627
 7116SOL    HW223246   3.662  11.641  14.741
 7117SOL     OW23247   2.488   0.685  11.881
 7117SOL    HW123248   2.491   0.634  11.799
 7117SOL    HW223249   2.446   0.767  11.857
 7118SOL     OW23250  11.043   0.267   4.394
 7118SOL    HW123251  11.127   0.271   4.440
 7118SOL    HW223252  11.022   0.358   4.374
 7119SOL     OW23253   4.469   4.078  14.493
 7119SOL    HW123254   4.537   4.012  14.508
 7119SOL    HW223255   4.391   4.027  14.471
 7120SOL     OW23256  13.753   7.179  12.483
 7120SOL    HW123257  13.694   7.221  12.421
 7120SOL    HW223258  13.769   7.092  12.446
 7121SOL     OW23259   8.981   3.355   9.681
 7121SOL    HW123260   8.977   3.365   9.776
 7121SOL    HW223261   8.955   3.264   9.665
 7122SOL     OW23262  13.389   8.228  11.860
 7122SOL    HW123263  13.393   8.317  11.895
 7122SOL    HW223264  13.413   8.236  11.768
 7123SOL     OW23265  14.476   2.924   4.453
 7123SOL    HW123266  14.550   2.885   4.407
 7123SOL    HW223267  14.515   2.994   4.506
 7124SOL     OW23268  11.977  13.404   5.075
 7124SOL    HW123269  12.060  13.365   5.050
 7124SOL    HW223270  11.911  13.348   5.033
 7125SOL     OW23271  12.296   6.927  13.174
 7125SOL    HW123272  12.349   6.974  13.110
 7125SOL    HW223273  12.292   6.985  13.250
 7126SOL     OW23274  11.322   2.604   4.537
 7126SOL    HW123275  11.328   2.693   4.571
 7126SOL    HW223276  11.247   2.606   4.477
 7127SOL     OW23277  11.270   8.449   3.063
 7127SOL    HW123278  11.316   8.392   3.001
 7127SOL    HW223279  11.205   8.392   3.104
 7128SOL     OW23280   0.496  10.382   8.046
 7128SOL    HW123281   0.533  10.327   7.977
 7128SOL    HW223282   0.565  10.444   8.068
 7129SOL     OW23283   9.989   5.316   5.811
 7129SOL    HW123284  10.020   5.231   5.842
 7129SOL    HW223285   9.930   5.347   5.880
 7130SOL     OW23286  11.804   6.272   0.291
 7130SOL    HW123287  11.883   6.265   0.344
 7130SOL    HW223288  11.775   6.362   0.302
 7131SOL     OW23289   7.890   3.769  12.923
 7131SOL    HW123290   7.872   3.829  12.851
 7131SOL    HW223291   7.855   3.684  12.893
 7132SOL     OW23292   2.185   8.920   1.812
 7132SOL    HW123293   2.256   8.949   1.755
 7132SOL    HW223294   2.174   8.992   1.875
 7133SOL     OW23295   9.145   7.917  10.674
 7133SOL    HW123296   9.066   7.865  10.687
 7133SOL    HW223297   9.182   7.927  10.762
 7134SOL     OW23298  14.548  13.036   2.013
 7134SOL    HW123299  14.487  13.106   1.991
 7134SOL    HW223300  14.555  12.984   1.933
 7135SOL     OW23301   5.687   1.948  11.122
 7135SOL    HW123302   5.649   1.871  11.080
 7135SOL    HW223303   5.619   2.014  11.116
 7136SOL     OW23304   6.915   6.948  13.599
 7136SOL    HW123305   6.950   6.967  13.686
 7136SOL    HW223306   6.874   7.030  13.571
 7137SOL     OW23307   4.281  11.250   5.181
 7137SOL    HW123308   4.294  11.226   5.273
 7137SOL    HW223309   4.315  11.339   5.175
 7138SOL     OW23310   4.649   0.178  12.889
 7138SOL    HW123311   4.677   0.268  12.871
 7138SOL    HW223312   4.601   0.185  12.972
 7139SOL     OW23313   5.772  11.655   5.904
 7139SOL    HW123314   5.767  11.581   5.966
 7139SOL    HW223315   5.695  11.645   5.848
 7140SOL     OW23316   3.737   4.040   0.940
 7140SOL    HW123317   3.799   4.066   0.872
 7140SOL    HW223318   3.725   3.946   0.927
 7141SOL     OW23319   7.635   1.639  11.511
 7141SOL    HW123320   7.667   1.719  11.553
 7141SOL    HW223321   7.679   1.638  11.426
 7142SOL     OW23322   7.557   5.020   3.426
 7142SOL    HW123323   7.581   5.067   3.506
 7142SOL    HW223324   7.483   4.965   3.452
 7143SOL     OW23325   8.185   8.308   2.755
 7143SOL    HW123326   8.215   8.328   2.667
 7143SOL    HW223327   8.265   8.293   2.806
 7144SOL     OW23328  14.801   5.468   5.302
 7144SOL    HW123329  14.819   5.562   5.296
 7144SOL    HW223330  14.708   5.460   5.284
 7145SOL     OW23331   9.438  12.588  10.037
 7145SOL    HW123332   9.370  12.575   9.971
 7145SOL    HW223333   9.398  12.561  10.119
 7146SOL     OW23334   0.226  11.384  13.686
 7146SOL    HW123335   0.297  11.322  13.666
 7146SOL    HW223336   0.165  11.334  13.740
 7147SOL     OW23337   3.946   1.211   0.002
 7147SOL    HW123338   4.019   1.259  14.846
 7147SOL    HW223339   3.980   1.179   0.085
 7148SOL     OW23340   7.251   3.406   1.015
 7148SOL    HW123341   7.230   3.450   0.934
 7148SOL    HW223342   7.325   3.456   1.051
 7149SOL     OW23343  13.136   2.955   7.842
 7149SOL    HW123344  13.145   3.000   7.926
 7149SOL    HW223345  13.041   2.947   7.829
 7150SOL     OW23346   8.450   9.350   2.922
 7150SOL    HW123347   8.512   9.397   2.977
 7150SOL    HW223348   8.384   9.317   2.983
 7151SOL     OW23349   5.665  13.373   4.531
 7151SOL    HW123350   5.747  13.383   4.483
 7151SOL    HW223351   5.682  13.303   4.594
 7152SOL     OW23352   8.470  14.509   6.749
 7152SOL    HW123353   8.457  14.514   6.844
 7152SOL    HW223354   8.533  14.579   6.730
 7153SOL     OW23355   1.887   3.130   6.503
 7153SOL    HW123356   1.929   3.097   6.582
 7153SOL    HW223357   1.834   3.057   6.472
 7154SOL     OW23358   4.088  12.738   5.969
 7154SOL    HW123359   4.048  12.659   5.932
 7154SOL    HW223360   4.090  12.721   6.064
 7155SOL     OW23361   1.254   7.422   2.883
 7155SOL    HW123362   1.233   7.468   2.801
 7155SOL    HW223363   1.271   7.332   2.856
 7156SOL     OW23364   2.724   0.703  14.637
 7156SOL    HW123365   2.684   0.639  14.578
 7156SOL    HW223366   2.816   0.705  14.612
 7157SOL     OW23367   8.946   9.933   2.803
 7157SOL    HW123368   9.012   9.900   2.742
 7157SOL    HW223369   8.992  10.001   2.853
 7158SOL     OW23370  12.421  14.269  12.405
 7158SOL    HW123371  12.348  14.265  12.344
 7158SOL    HW223372  12.433  14.363  12.422
 7159SOL     OW23373   2.421   7.615   0.850
 7159SOL    HW123374   2.350   7.585   0.793
 7159SOL    HW223375   2.413   7.710   0.849
 7160SOL     OW23376  14.562   5.533   8.641
 7160SOL    HW123377  14.511   5.603   8.601
 7160SOL    HW223378  14.618   5.578   8.705
 7161SOL     OW23379   2.238   3.776   5.495
 7161SOL    HW123380   2.246   3.826   5.414
 7161SOL    HW223381   2.151   3.737   5.491
 7162SOL     OW23382   2.581   2.773   7.722
 7162SOL    HW123383   2.553   2.780   7.631
 7162SOL    HW223384   2.640   2.697   7.723
 7163SOL     OW23385   5.089  12.509   4.279
 7163SOL    HW123386   5.077  12.578   4.214
 7163SOL    HW223387   5.118  12.433   4.229
 7164SOL     OW23388   3.239  10.286   2.617
 7164SOL    HW123389   3.161  10.336   2.643
 7164SOL    HW223390   3.237  10.287   2.521
 7165SOL     OW23391   4.890   6.895   3.783
 7165SOL    HW123392   4.882   6.815   3.732
 7165SOL    HW223393   4.977   6.929   3.761
 7166SOL     OW23394  13.779   7.210  14.156
 7166SOL    HW123395  13.804   7.120  14.134
 7166SOL    HW223396  13.718   7.235  14.088
 7167SOL     OW23397   5.126   1.507  11.101
 7167SOL    HW123398   5.098   1.584  11.052
 7167SOL    HW223399   5.061   1.498  11.171
 7168SOL     OW23400   1.631   7.425   1.982
 7168SOL    HW123401   1.573   7.447   1.909
 7168SOL    HW223402   1.582   7.451   2.060
 7169SOL     OW23403   3.936  13.589  10.830
 7169SOL    HW123404   3.992  13.569  10.905
 7169SOL    HW223405   3.897  13.505  10.806
 7170SOL     OW23406   0.317   1.201   2.516
 7170SOL    HW123407   0.375   1.200   2.593
 7170SOL    HW223408   0.305   1.109   2.494
 7171SOL     OW23409   2.728   8.611  12.391
 7171SOL    HW123410   2.767   8.650  12.470
 7171SOL    HW223411   2.797   8.554  12.357
 7172SOL     OW23412   1.655  14.630   6.238
 7172SOL    HW123413   1.732  14.585   6.272
 7172SOL    HW223414   1.581  14.583   6.276
 7173SOL     OW23415  12.535   7.722  12.649
 7173SOL    HW123416  12.477   7.786  12.608
 7173SOL    HW223417  12.543   7.652  12.585
 7174SOL     OW23418   4.557   5.634   2.119
 7174SOL    HW123419   4.561   5.671   2.207
 7174SOL    HW223420   4.593   5.546   2.129
 7175SOL     OW23421  11.588  10.046   0.049
 7175SOL    HW123422  11.603  10.140   0.060
 7175SOL    HW223423  11.506  10.041   0.001
 7176SOL     OW23424   7.939  13.805   4.872
 7176SOL    HW123425   8.019  13.855   4.892
 7176SOL    HW223426   7.892  13.861   4.810
 7177SOL     OW23427  12.179   2.161  11.138
 7177SOL    HW123428  12.197   2.150  11.045
 7177SOL    HW223429  12.156   2.074  11.169
 7178SOL     OW23430  11.283   7.558   6.984
 7178SOL    HW123431  11.352   7.622   6.965
 7178SOL    HW223432  11.329   7.485   7.026
 7179SOL     OW23433   0.829  11.868  10.874
 7179SOL    HW123434   0.798  11.909  10.793
 7179SOL    HW223435   0.924  11.870  10.867
 7180SOL     OW23436   1.101   8.601   3.113
 7180SOL    HW123437   1.021   8.591   3.165
 7180SOL    HW223438   1.072   8.596   3.022
 7181SOL     OW23439   1.567   4.709   8.958
 7181SOL    HW123440   1.555   4.637   9.021
 7181SOL    HW223441   1.558   4.667   8.872
 7182SOL     OW23442   3.931   2.066  13.468
 7182SOL    HW123443   3.890   2.138  13.516
 7182SOL    HW223444   3.862   2.000  13.459
 7183SOL     OW23445  10.261   0.843  11.541
 7183SOL    HW123446  10.315   0.919  11.565
 7183SOL    HW223447  10.184   0.850  11.597
 7184SOL     OW23448   4.425   8.356   7.547
 7184SOL    HW123449   4.495   8.383   7.487
 7184SOL    HW223450   4.467   8.352   7.633
 7185SOL     OW23451   9.612  12.178  12.367
 7185SOL    HW123452   9.584  12.266  12.343
 7185SOL    HW223453   9.696  12.167  12.323
 7186SOL     OW23454  14.813  12.814   3.276
 7186SOL    HW123455  14.836  12.867   3.352
 7186SOL    HW223456  14.736  12.764   3.304
 7187SOL     OW23457  13.252   6.934  14.463
 7187SOL    HW123458  13.294   7.018  14.449
 7187SOL    HW223459  13.198   6.921  14.385
 7188SOL     OW23460   7.473   0.864   5.247
 7188SOL    HW123461   7.469   0.841   5.154
 7188SOL    HW223462   7.537   0.803   5.284
 7189SOL     OW23463   8.025   6.786   6.393
 7189SOL    HW123464   8.070   6.715   6.439
 7189SOL    HW223465   7.937   6.786   6.431
 7190SOL     OW23466   3.397  11.158  10.234
 7190SOL    HW123467   3.485  11.132  10.208
 7190SOL    HW223468   3.359  11.080  10.275
 7191SOL     OW23469  13.801  11.613   3.921
 7191SOL    HW123470  13.825  11.531   3.877
 7191SOL    HW223471  13.715  11.595   3.960
 7192SOL     OW23472   5.255   7.926   2.501
 7192SOL    HW123473   5.242   7.856   2.437
 7192SOL    HW223474   5.318   7.985   2.459
 7193SOL     OW23475   4.679   9.217  13.133
 7193SOL    HW123476   4.595   9.187  13.099
 7193SOL    HW223477   4.742   9.152  13.100
 7194SOL     OW23478  14.868   3.273   5.860
 7194SOL    HW123479  14.805   3.323   5.912
 7194SOL    HW223480  14.838   3.182   5.867
 7195SOL     OW23481  10.045   3.292   5.266
 7195SOL    HW123482   9.974   3.230   5.254
 7195SOL    HW223483  10.006   3.378   5.248
 7196SOL     OW23484   2.844   0.584   5.657
 7196SOL    HW123485   2.850   0.503   5.708
 7196SOL    HW223486   2.879   0.562   5.571
 7197SOL     OW23487   4.001   1.352   4.845
 7197SOL    HW123488   4.063   1.286   4.816
 7197SOL    HW223489   3.973   1.322   4.932
 7198SOL     OW23490   1.925   4.445   2.584
 7198SOL    HW123491   1.890   4.408   2.503
 7198SOL    HW223492   1.848   4.457   2.640
 7199SOL     OW23493  10.793   6.844  13.538
 7199SOL    HW123494  10.786   6.811  13.628
 7199SOL    HW223495  10.713   6.814  13.495
 7200SOL     OW23496   1.691   2.629   9.645
 7200SOL    HW123497   1.715   2.707   9.695
 7200SOL    HW223498   1.614   2.595   9.690
 7201SOL     OW23499   2.424   0.356   5.491
 7201SOL    HW123500   2.433   0.424   5.557
 7201SOL    HW223501   2.513   0.341   5.460
 7202SOL     OW23502   0.936   1.011   4.120
 7202SOL    HW123503   0.846   1.024   4.090
 7202SOL    HW223504   0.989   1.020   4.041
 7203SOL     OW23505   8.246   0.538  12.615
 7203SOL    HW123506   8.239   0.523  12.709
 7203SOL    HW223507   8.215   0.457  12.575
 7204SOL     OW23508   0.109   4.261   8.133
 7204SOL    HW123509   0.126   4.319   8.058
 7204SOL    HW223510   0.078   4.319   8.202
 7205SOL     OW23511  11.915   9.220   7.715
 7205SOL    HW123512  11.940   9.184   7.800
 7205SOL    HW223513  11.848   9.285   7.735
 7206SOL     OW23514  13.419  13.483   4.067
 7206SOL    HW123515  13.401  13.429   3.990
 7206SOL    HW223516  13.343  13.470   4.124
 7207SOL     OW23517   6.346   5.332   1.828
 7207SOL    HW123518   6.407   5.349   1.756
 7207SOL    HW223519   6.358   5.407   1.887
 7208SOL     OW23520  13.925   0.823  13.482
 7208SOL    HW123521  13.903   0.756  13.546
 7208SOL    HW223522  14.003   0.866  13.517
 7209SOL     OW23523  13.993   0.753  14.113
 7209SOL    HW123524  13.909   0.767  14.069
 7209SOL    HW223525  13.978   0.679  14.171
 7210SOL     OW23526   7.132   1.719   5.029
 7210SOL    HW123527   7.053   1.729   5.083
 7210SOL    HW223528   7.120   1.780   4.957
 7211SOL     OW23529   5.568   2.695  11.031
 7211SOL    HW123530   5.599   2.761  11.093
 7211SOL    HW223531   5.543   2.621  11.085
 7212SOL     OW23532  14.131   6.893   5.945
 7212SOL    HW123533  14.064   6.871   6.009
 7212SOL    HW223534  14.207   6.919   5.998
 7213SOL     OW23535   5.710   9.551   7.994
 7213SOL    HW123536   5.739   9.461   7.982
 7213SOL    HW223537   5.681   9.555   8.085
 7214SOL     OW23538   0.812   7.782  14.368
 7214SOL    HW123539   0.855   7.828  14.296
 7214SOL    HW223540   0.806   7.691  14.340
 7215SOL     OW23541  10.938   3.613  12.607
 7215SOL    HW123542  10.845   3.614  12.629
 7215SOL    HW223543  10.942   3.567  12.523
 7216SOL     OW23544  13.275   0.874  10.058
 7216SOL    HW123545  13.357   0.922  10.041
 7216SOL    HW223546  13.272   0.806   9.991
 7217SOL     OW23547   7.640   5.467   9.883
 7217SOL    HW123548   7.657   5.562   9.885
 7217SOL    HW223549   7.555   5.459   9.840
 7218SOL     OW23550   3.818   2.618   2.825
 7218SOL    HW123551   3.818   2.661   2.911
 7218SOL    HW223552   3.889   2.660   2.777
 7219SOL     OW23553   0.772   7.588   2.718
 7219SOL    HW123554   0.702   7.526   2.697
 7219SOL    HW223555   0.847   7.532   2.740
 7220SOL     OW23556  11.763   9.785   5.546
 7220SOL    HW123557  11.689   9.725   5.552
 7220SOL    HW223558  11.729   9.869   5.578
 7221SOL     OW23559   6.624  10.809   6.861
 7221SOL    HW123560   6.685  10.875   6.829
 7221SOL    HW223561   6.543  10.825   6.813
 7222SOL     OW23562   5.216  14.426   9.413
 7222SOL    HW123563   5.136  14.478   9.407
 7222SOL    HW223564   5.230  14.393   9.324
 7223SOL     OW23565   5.949  11.238  11.030
 7223SOL    HW123566   5.877  11.301  11.030
 7223SOL    HW223567   5.971  11.227  11.123
 7224SOL     OW23568  14.188  14.765   0.819
 7224SOL    HW123569  14.144  14.810   0.891
 7224SOL    HW223570  14.218  14.836   0.762
 7225SOL     OW23571   9.030   8.566   0.121
 7225SOL    HW123572   9.055   8.645   0.072
 7225SOL    HW223573   8.939   8.552   0.097
 7226SOL     OW23574   5.557   0.090  14.081
 7226SOL    HW123575   5.501   0.109  14.005
 7226SOL    HW223576   5.631   0.043  14.044
 7227SOL     OW23577   1.139   7.104   5.735
 7227SOL    HW123578   1.077   7.036   5.763
 7227SOL    HW223579   1.225   7.064   5.745
 7228SOL     OW23580  14.421   5.228   1.518
 7228SOL    HW123581  14.444   5.312   1.557
 7228SOL    HW223582  14.491   5.210   1.455
 7229SOL     OW23583   4.370   6.931   6.096
 7229SOL    HW123584   4.393   6.856   6.152
 7229SOL    HW223585   4.447   6.987   6.099
 7230SOL     OW23586   4.660   8.750  10.509
 7230SOL    HW123587   4.566   8.751  10.525
 7230SOL    HW223588   4.699   8.734  10.595
 7231SOL     OW23589   5.191   4.170  13.004
 7231SOL    HW123590   5.120   4.112  12.977
 7231SOL    HW223591   5.271   4.122  12.983
 7232SOL     OW23592   8.041   1.630   6.275
 7232SOL    HW123593   7.972   1.605   6.336
 7232SOL    HW223594   8.049   1.725   6.284
 7233SOL     OW23595   9.898   2.059   5.114
 7233SOL    HW123596   9.863   2.148   5.108
 7233SOL    HW223597   9.824   2.003   5.090
 7234SOL     OW23598   5.144  13.715   2.369
 7234SOL    HW123599   5.068  13.749   2.321
 7234SOL    HW223600   5.188  13.658   2.305
 7235SOL     OW23601   9.890   3.863   6.940
 7235SOL    HW123602   9.926   3.951   6.955
 7235SOL    HW223603   9.811   3.860   6.994
 7236SOL     OW23604   4.474  10.592   2.390
 7236SOL    HW123605   4.547  10.539   2.422
 7236SOL    HW223606   4.400  10.567   2.447
 7237SOL     OW23607   6.364  10.704   1.307
 7237SOL    HW123608   6.293  10.654   1.347
 7237SOL    HW223609   6.349  10.794   1.335
 7238SOL     OW23610   0.394   5.613   9.177
 7238SOL    HW123611   0.390   5.707   9.194
 7238SOL    HW223612   0.453   5.604   9.102
 7239SOL     OW23613   7.270  13.746   2.580
 7239SOL    HW123614   7.342  13.769   2.520
 7239SOL    HW223615   7.232  13.666   2.542
 7240SOL     OW23616   5.274  12.472  13.041
 7240SOL    HW123617   5.291  12.388  12.998
 7240SOL    HW223618   5.216  12.519  12.981
 7241SOL     OW23619  12.357   9.959   8.843
 7241SOL    HW123620  12.395   9.885   8.890
 7241SOL    HW223621  12.395   9.955   8.756
 7242SOL     OW23622  13.759   0.958   2.600
 7242SOL    HW123623  13.778   1.049   2.582
 7242SOL    HW223624  13.669   0.958   2.632
 7243SOL     OW23625  11.710   0.681  11.061
 7243SOL    HW123626  11.658   0.714  11.133
 7243SOL    HW223627  11.767   0.615  11.100
 7244SOL     OW23628  10.880   0.891  13.837
 7244SOL    HW123629  10.921   0.816  13.794
 7244SOL    HW223630  10.949   0.930  13.889
 7245SOL     OW23631   3.086   3.091  12.272
 7245SOL    HW123632   3.035   3.056  12.198
 7245SOL    HW223633   3.170   3.045  12.268
 7246SOL     OW23634   0.627   2.147   6.199
 7246SOL    HW123635   0.587   2.194   6.125
 7246SOL    HW223636   0.680   2.079   6.157
 7247SOL     OW23637  13.470   8.730   4.866
 7247SOL    HW123638  13.444   8.711   4.956
 7247SOL    HW223639  13.513   8.650   4.836
 7248SOL     OW23640  10.649   5.809   2.046
 7248SOL    HW123641  10.596   5.747   1.995
 7248SOL    HW223642  10.682   5.757   2.119
 7249SOL     OW23643  10.069  13.317   7.509
 7249SOL    HW123644  10.130  13.385   7.539
 7249SOL    HW223645  10.081  13.246   7.572
 7250SOL     OW23646  14.508   7.376   5.467
 7250SOL    HW123647  14.456   7.438   5.417
 7250SOL    HW223648  14.585   7.426   5.494
 7251SOL     OW23649   8.196   6.281  11.113
 7251SOL    HW123650   8.288   6.303  11.127
 7251SOL    HW223651   8.189   6.189  11.139
 7252SOL     OW23652  12.796  13.840   8.121
 7252SOL    HW123653  12.810  13.831   8.216
 7252SOL    HW223654  12.836  13.924   8.100
 7253SOL     OW23655   2.948   6.978  14.634
 7253SOL    HW123656   2.954   6.887  14.607
 7253SOL    HW223657   2.974   6.978  14.726
 7254SOL     OW23658   7.198  11.332  13.978
 7254SOL    HW123659   7.220  11.393  14.048
 7254SOL    HW223660   7.103  11.323  13.984
 7255SOL     OW23661  11.375   1.114   6.751
 7255SOL    HW123662  11.348   1.024   6.768
 7255SOL    HW223663  11.428   1.109   6.671
 7256SOL     OW23664   3.762   1.428   7.240
 7256SOL    HW123665   3.800   1.345   7.269
 7256SOL    HW223666   3.815   1.496   7.283
 7257SOL     OW23667   6.176   5.054  12.769
 7257SOL    HW123668   6.131   4.974  12.796
 7257SOL    HW223669   6.159   5.116  12.840
 7258SOL     OW23670  10.341   6.243  11.682
 7258SOL    HW123671  10.341   6.317  11.743
 7258SOL    HW223672  10.326   6.167  11.737
 7259SOL     OW23673  13.483   9.406   1.633
 7259SOL    HW123674  13.544   9.334   1.615
 7259SOL    HW223675  13.408   9.365   1.674
 7260SOL     OW23676  10.468  10.515   1.465
 7260SOL    HW123677  10.379  10.490   1.440
 7260SOL    HW223678  10.518  10.433   1.460
 7261SOL     OW23679   0.874  11.681   9.082
 7261SOL    HW123680   0.862  11.588   9.102
 7261SOL    HW223681   0.810  11.726   9.137
 7262SOL     OW23682   8.408   1.741   3.042
 7262SOL    HW123683   8.428   1.692   3.121
 7262SOL    HW223684   8.460   1.821   3.050
 7263SOL     OW23685   1.999  13.230   9.157
 7263SOL    HW123686   2.055  13.296   9.116
 7263SOL    HW223687   2.032  13.222   9.246
 7264SOL     OW23688  12.241   7.924   1.795
 7264SOL    HW123689  12.240   7.850   1.856
 7264SOL    HW223690  12.195   7.994   1.842
 7265SOL     OW23691   5.937   3.496   4.755
 7265SOL    HW123692   5.872   3.533   4.816
 7265SOL    HW223693   5.971   3.419   4.801
 7266SOL     OW23694   7.068  10.098  13.966
 7266SOL    HW123695   7.013  10.048  14.026
 7266SOL    HW223696   7.091  10.035  13.897
 7267SOL     OW23697   0.553   8.529   1.038
 7267SOL    HW123698   0.612   8.586   0.989
 7267SOL    HW223699   0.595   8.443   1.034
 7268SOL     OW23700   3.151   2.487   0.964
 7268SOL    HW123701   3.215   2.424   0.932
 7268SOL    HW223702   3.102   2.440   1.031
 7269SOL     OW23703  11.954  11.691   7.849
 7269SOL    HW123704  11.896  11.631   7.802
 7269SOL    HW223705  11.922  11.778   7.827
 7270SOL     OW23706   1.746   4.520  12.679
 7270SOL    HW123707   1.730   4.608  12.644
 7270SOL    HW223708   1.799   4.534  12.757
 7271SOL     OW23709   5.608  11.437   8.049
 7271SOL    HW123710   5.668  11.510   8.034
 7271SOL    HW223711   5.601  11.432   8.145
 7272SOL     OW23712   1.859  13.596   2.515
 7272SOL    HW123713   1.836  13.513   2.557
 7272SOL    HW223714   1.777  13.645   2.511
 7273SOL     OW23715  14.593   2.942  14.847
 7273SOL    HW123716  14.632   3.024  14.816
 7273SOL    HW223717  14.614   2.940   0.058
 7274SOL     OW23718  10.305  11.323  14.239
 7274SOL    HW123719  10.381  11.314  14.182
 7274SOL    HW223720  10.326  11.398  14.295
 7275SOL     OW23721  12.715   7.956  14.663
 7275SOL    HW123722  12.809   7.969  14.672
 7275SOL    HW223723  12.684   8.036  14.621
 7276SOL     OW23724   1.058  12.337   0.372
 7276SOL    HW123725   1.003  12.306   0.299
 7276SOL    HW223726   1.017  12.301   0.450
 7277SOL     OW23727  10.179   3.718   8.700
 7277SOL    HW123728  10.190   3.803   8.744
 7277SOL    HW223729  10.097   3.726   8.651
 7278SOL     OW23730  10.387   1.797  10.419
 7278SOL    HW123731  10.458   1.776  10.358
 7278SOL    HW223732  10.410   1.750  10.499
 7279SOL     OW23733   1.715   7.290   3.974
 7279SOL    HW123734   1.717   7.194   3.982
 7279SOL    HW223735   1.650   7.307   3.906
 7280SOL     OW23736   7.346   0.408   9.572
 7280SOL    HW123737   7.369   0.500   9.558
 7280SOL    HW223738   7.285   0.410   9.646
 7281SOL     OW23739  14.851  10.556   7.726
 7281SOL    HW123740  14.819  10.467   7.710
 7281SOL    HW223741   0.037  10.569   7.661
 7282SOL     OW23742   4.802   4.022  11.792
 7282SOL    HW123743   4.796   4.006  11.698
 7282SOL    HW223744   4.725   4.075  11.813
 7283SOL     OW23745   0.269   4.823   7.591
 7283SOL    HW123746   0.261   4.869   7.675
 7283SOL    HW223747   0.272   4.892   7.525
 7284SOL     OW23748  10.201  12.716  14.478
 7284SOL    HW123749  10.233  12.804  14.459
 7284SOL    HW223750  10.251  12.688  14.554
 7285SOL     OW23751   4.826   1.044  11.985
 7285SOL    HW123752   4.908   1.022  12.029
 7285SOL    HW223753   4.779   0.961  11.977
 7286SOL     OW23754  11.042   8.054  14.240
 7286SOL    HW123755  11.131   8.085  14.259
 7286SOL    HW223756  11.034   8.062  14.145
 7287SOL     OW23757   1.145  11.798   4.169
 7287SOL    HW123758   1.163  11.776   4.261
 7287SOL    HW223759   1.143  11.894   4.168
 7288SOL     OW23760   4.652   4.550   3.242
 7288SOL    HW123761   4.673   4.609   3.315
 7288SOL    HW223762   4.571   4.507   3.269
 7289SOL     OW23763   0.986   6.976  10.236
 7289SOL    HW123764   1.062   7.030  10.254
 7289SOL    HW223765   1.017   6.886  10.247
 7290SOL     OW23766  10.948   1.010  14.118
 7290SOL    HW123767  10.956   1.102  14.093
 7290SOL    HW223768  10.897   1.011  14.199
 7291SOL     OW23769   4.000   9.166   1.487
 7291SOL    HW123770   4.017   9.099   1.554
 7291SOL    HW223771   3.961   9.117   1.415
 7292SOL     OW23772   9.507  12.867   7.293
 7292SOL    HW123773   9.437  12.804   7.312
 7292SOL    HW223774   9.494  12.889   7.201
 7293SOL     OW23775   6.961  10.654   5.899
 7293SOL    HW123776   6.921  10.579   5.855
 7293SOL    HW223777   6.929  10.650   5.989
 7294SOL     OW23778   6.008   3.211  14.769
 7294SOL    HW123779   5.988   3.290  14.819
 7294SOL    HW223780   5.929   3.158  14.774
 7295SOL     OW23781   4.550   3.119   0.619
 7295SOL    HW123782   4.540   3.031   0.583
 7295SOL    HW223783   4.505   3.115   0.703
 7296SOL     OW23784  10.475   9.904   8.094
 7296SOL    HW123785  10.403   9.968   8.093
 7296SOL    HW223786  10.458   9.848   8.019
 7297SOL     OW23787  10.834   7.603  12.737
 7297SOL    HW123788  10.880   7.687  12.734
 7297SOL    HW223789  10.750   7.620  12.694
 7298SOL     OW23790   8.998   4.529   8.329
 7298SOL    HW123791   9.056   4.481   8.387
 7298SOL    HW223792   8.988   4.615   8.370
 7299SOL     OW23793   3.330  13.735   8.683
 7299SOL    HW123794   3.309  13.742   8.776
 7299SOL    HW223795   3.386  13.810   8.665
 7300SOL     OW23796  13.193   1.574  12.127
 7300SOL    HW123797  13.132   1.592  12.198
 7300SOL    HW223798  13.278   1.566  12.170
 7301SOL     OW23799   4.378   7.402   3.722
 7301SOL    HW123800   4.409   7.444   3.642
 7301SOL    HW223801   4.283   7.415   3.721
 7302SOL     OW23802   4.156   4.314   3.976
 7302SOL    HW123803   4.144   4.305   4.070
 7302SOL    HW223804   4.225   4.380   3.966
 7303SOL     OW23805   2.568   9.724   5.466
 7303SOL    HW123806   2.492   9.723   5.408
 7303SOL    HW223807   2.586   9.632   5.484
 7304SOL     OW23808  13.255   7.534   5.578
 7304SOL    HW123809  13.251   7.504   5.488
 7304SOL    HW223810  13.230   7.457   5.630
 7305SOL     OW23811   4.285  12.920   9.191
 7305SOL    HW123812   4.264  13.012   9.204
 7305SOL    HW223813   4.261  12.877   9.273
 7306SOL     OW23814   3.455   0.044   3.487
 7306SOL    HW123815   3.451  14.860   3.556
 7306SOL    HW223816   3.368   0.040   3.446
 7307SOL     OW23817   7.681   7.812  14.346
 7307SOL    HW123818   7.746   7.866  14.392
 7307SOL    HW223819   7.596   7.846  14.376
 7308SOL     OW23820   7.736   2.870  14.222
 7308SOL    HW123821   7.644   2.872  14.196
 7308SOL    HW223822   7.774   2.799  14.171
 7309SOL     OW23823   3.457  13.682  12.562
 7309SOL    HW123824   3.425  13.622  12.495
 7309SOL    HW223825   3.543  13.710  12.530
 7310SOL     OW23826   7.596  13.839   7.744
 7310SOL    HW123827   7.595  13.919   7.796
 7310SOL    HW223828   7.689  13.816   7.739
 7311SOL     OW23829   1.850  13.227   3.148
 7311SOL    HW123830   1.926  13.218   3.207
 7311SOL    HW223831   1.857  13.152   3.089
 7312SOL     OW23832   9.660  14.787   4.364
 7312SOL    HW123833   9.646  14.875   4.329
 7312SOL    HW223834   9.627  14.729   4.295
 7313SOL     OW23835  10.205   8.875   9.992
 7313SOL    HW123836  10.113   8.881  10.017
 7313SOL    HW223837  10.252   8.922  10.060
 7314SOL     OW23838  14.807  13.752  12.574
 7314SOL    HW123839  14.880  13.707  12.531
 7314SOL    HW223840  14.730  13.704  12.546
 7315SOL     OW23841  12.125   0.130   9.496
 7315SOL    HW123842  12.074   0.184   9.557
 7315SOL    HW223843  12.150   0.190   9.426
 7316SOL     OW23844   5.137   8.114   9.020
 7316SOL    HW123845   5.223   8.121   8.979
 7316SOL    HW223846   5.080   8.081   8.950
 7317SOL     OW23847   5.498   9.718   5.341
 7317SOL    HW123848   5.483   9.663   5.264
 7317SOL    HW223849   5.586   9.695   5.370
 7318SOL     OW23850   7.451  10.989  10.990
 7318SOL    HW123851   7.395  11.024  11.059
 7318SOL    HW223852   7.390  10.949  10.927
 7319SOL     OW23853   2.216   7.055   6.345
 7319SOL    HW123854   2.212   7.074   6.439
 7319SOL    HW223855   2.305   7.080   6.320
 7320SOL     OW23856   9.015   4.910   1.151
 7320SOL    HW123857   8.922   4.923   1.173
 7320SOL    HW223858   9.028   4.815   1.159
 7321SOL     OW23859  13.542   2.306  13.825
 7321SOL    HW123860  13.563   2.213  13.827
 7321SOL    HW223861  13.450   2.311  13.851
 7322SOL     OW23862  14.124  13.000   8.653
 7322SOL    HW123863  14.120  12.919   8.704
 7322SOL    HW223864  14.119  13.070   8.717
 7323SOL     OW23865  12.241   1.069  11.241
 7323SOL    HW123866  12.269   1.105  11.157
 7323SOL    HW223867  12.160   1.023  11.222
 7324SOL     OW23868  11.199   0.327  14.057
 7324SOL    HW123869  11.247   0.386  13.999
 7324SOL    HW223870  11.242   0.243  14.048
 7325SOL     OW23871   8.716   0.088  14.681
 7325SOL    HW123872   8.706   0.120  14.592
 7325SOL    HW223873   8.796   0.035  14.680
 7326SOL     OW23874   3.194   3.418  13.117
 7326SOL    HW123875   3.165   3.347  13.174
 7326SOL    HW223876   3.113   3.455  13.081
 7327SOL     OW23877   9.623   2.203  14.794
 7327SOL    HW123878   9.662   2.223  14.709
 7327SOL    HW223879   9.648   2.113  14.812
 7328SOL     OW23880  10.329  10.599   6.387
 7328SOL    HW123881  10.258  10.571   6.330
 7328SOL    HW223882  10.294  10.589   6.476
 7329SOL     OW23883  14.574   5.245   6.967
 7329SOL    HW123884  14.513   5.233   6.893
 7329SOL    HW223885  14.519   5.236   7.045
 7330SOL     OW23886   8.943  11.348  10.000
 7330SOL    HW123887   8.880  11.371  10.069
 7330SOL    HW223888   9.028  11.374  10.035
 7331SOL     OW23889  12.229   9.848   7.061
 7331SOL    HW123890  12.265   9.760   7.051
 7331SOL    HW223891  12.305   9.904   7.074
 7332SOL     OW23892  14.667   3.557   1.709
 7332SOL    HW123893  14.617   3.543   1.628
 7332SOL    HW223894  14.681   3.652   1.712
 7333SOL     OW23895  13.614   6.651  13.147
 7333SOL    HW123896  13.633   6.731  13.196
 7333SOL    HW223897  13.557   6.600  13.205
 7334SOL     OW23898   2.370   1.811   5.804
 7334SOL    HW123899   2.416   1.864   5.870
 7334SOL    HW223900   2.370   1.866   5.725
 7335SOL     OW23901   1.986   8.672   6.013
 7335SOL    HW123902   2.073   8.648   6.044
 7335SOL    HW223903   1.926   8.643   6.082
 7336SOL     OW23904  14.542   3.818   9.485
 7336SOL    HW123905  14.601   3.809   9.410
 7336SOL    HW223906  14.536   3.912   9.500
 7337SOL     OW23907   0.897   6.701   4.440
 7337SOL    HW123908   0.876   6.769   4.504
 7337SOL    HW223909   0.853   6.623   4.473
 7338SOL     OW23910   2.278  10.778  10.605
 7338SOL    HW123911   2.325  10.704  10.644
 7338SOL    HW223912   2.243  10.745  10.523
 7339SOL     OW23913   0.084   3.314   9.536
 7339SOL    HW123914   0.000   3.271   9.520
 7339SOL    HW223915   0.095   3.374   9.461
 7340SOL     OW23916   5.297   7.319   5.123
 7340SOL    HW123917   5.253   7.329   5.039
 7340SOL    HW223918   5.230   7.340   5.188
 7341SOL     OW23919   8.700   5.791  13.824
 7341SOL    HW123920   8.713   5.697  13.817
 7341SOL    HW223921   8.644   5.802  13.901
 7342SOL     OW23922  10.886  11.555   6.446
 7342SOL    HW123923  10.854  11.636   6.485
 7342SOL    HW223924  10.978  11.550   6.473
 7343SOL     OW23925  12.038  11.174  13.315
 7343SOL    HW123926  11.981  11.145  13.386
 7343SOL    HW223927  12.086  11.248  13.352
 7344SOL     OW23928   7.048   4.589  11.037
 7344SOL    HW123929   7.089   4.557  10.956
 7344SOL    HW223930   6.956   4.564  11.029
 7345SOL     OW23931   6.793  11.005   3.577
 7345SOL    HW123932   6.817  10.919   3.610
 7345SOL    HW223933   6.830  11.066   3.640
 7346SOL     OW23934  13.759   4.759   5.957
 7346SOL    HW123935  13.788   4.669   5.940
 7346SOL    HW223936  13.835   4.802   5.994
 7347SOL     OW23937   9.197   3.450   8.777
 7347SOL    HW123938   9.115   3.461   8.729
 7347SOL    HW223939   9.223   3.360   8.759
 7348SOL     OW23940  10.109  10.472   7.158
 7348SOL    HW123941  10.087  10.384   7.129
 7348SOL    HW223942  10.090  10.472   7.252
 7349SOL     OW23943  11.924   1.260   7.916
 7349SOL    HW123944  11.831   1.268   7.934
 7349SOL    HW223945  11.929   1.215   7.832
 7350SOL     OW23946   0.016   4.430   1.548
 7350SOL    HW123947   0.009   4.526   1.554
 7350SOL    HW223948   0.092   4.415   1.491
 7351SOL     OW23949   3.317  10.841   2.875
 7351SOL    HW123950   3.316  10.920   2.822
 7351SOL    HW223951   3.407  10.809   2.871
 7352SOL     OW23952  10.522   5.359   3.078
 7352SOL    HW123953  10.441   5.387   3.120
 7352SOL    HW223954  10.591   5.380   3.142
 7353SOL     OW23955   6.247   9.910   7.006
 7353SOL    HW123956   6.227   9.969   7.078
 7353SOL    HW223957   6.328   9.867   7.032
 7354SOL     OW23958  14.747   7.362  10.181
 7354SOL    HW123959  14.795   7.368  10.263
 7354SOL    HW223960  14.711   7.273  10.181
 7355SOL     OW23961   3.327   1.194   5.808
 7355SOL    HW123962   3.264   1.132   5.771
 7355SOL    HW223963   3.344   1.161   5.896
 7356SOL     OW23964   3.761   9.156   1.183
 7356SOL    HW123965   3.732   9.247   1.178
 7356SOL    HW223966   3.728   9.116   1.103
 7357SOL     OW23967   8.656  10.241   2.898
 7357SOL    HW123968   8.714  10.311   2.869
 7357SOL    HW223969   8.674  10.233   2.992
 7358SOL     OW23970   3.758   3.748   4.120
 7358SOL    HW123971   3.782   3.813   4.186
 7358SOL    HW223972   3.699   3.688   4.166
 7359SOL     OW23973   7.599   8.528   6.416
 7359SOL    HW123974   7.538   8.462   6.448
 7359SOL    HW223975   7.544   8.606   6.402
 7360SOL     OW23976   0.004   4.649   5.934
 7360SOL    HW123977   0.068   4.719   5.947
 7360SOL    HW223978   0.033   4.604   5.855
 7361SOL     OW23979   9.836  12.557  10.175
 7361SOL    HW123980   9.778  12.624  10.139
 7361SOL    HW223981   9.924  12.589  10.153
 7362SOL     OW23982   0.978   8.784   1.659
 7362SOL    HW123983   1.072   8.796   1.659
 7362SOL    HW223984   0.947   8.834   1.734
 7363SOL     OW23985   6.661  12.066   6.615
 7363SOL    HW123986   6.664  11.976   6.582
 7363SOL    HW223987   6.626  12.058   6.704
 7364SOL     OW23988  10.742  14.197   0.592
 7364SOL    HW123989  10.750  14.285   0.629
 7364SOL    HW223990  10.764  14.209   0.499
 7365SOL     OW23991   0.261  13.169   1.578
 7365SOL    HW123992   0.330  13.104   1.565
 7365SOL    HW223993   0.287  13.242   1.521
 7366SOL     OW23994   4.016   0.382  14.526
 7366SOL    HW123995   3.929   0.398  14.491
 7366SOL    HW223996   4.019   0.430  14.608
 7367SOL     OW23997  14.095   1.781   3.310
 7367SOL    HW123998  14.028   1.714   3.320
 7367SOL    HW223999  14.149   1.773   3.389
 7368SOL     OW24000   9.953  10.346   6.822
 7368SOL    HW124001   9.964  10.408   6.894
 7368SOL    HW224002  10.022  10.368   6.760
 7369SOL     OW24003  13.924   5.765  12.528
 7369SOL    HW124004  13.909   5.726  12.442
 7369SOL    HW224005  13.859   5.836  12.533
 7370SOL     OW24006   5.387   1.087   7.833
 7370SOL    HW124007   5.479   1.066   7.850
 7370SOL    HW224008   5.363   1.146   7.905
 7371SOL     OW24009   1.095   5.227   2.081
 7371SOL    HW124010   1.171   5.257   2.032
 7371SOL    HW224011   1.027   5.292   2.064
 7372SOL     OW24012  11.513   3.763   3.579
 7372SOL    HW124013  11.543   3.851   3.557
 7372SOL    HW224014  11.431   3.752   3.531
 7373SOL     OW24015  11.073   2.552   5.114
 7373SOL    HW124016  10.978   2.550   5.102
 7373SOL    HW224017  11.107   2.501   5.041
 7374SOL     OW24018   9.384  10.013   3.285
 7374SOL    HW124019   9.354   9.932   3.327
 7374SOL    HW224020   9.452  10.046   3.343
 7375SOL     OW24021  10.813  10.447   8.116
 7375SOL    HW124022  10.854  10.404   8.041
 7375SOL    HW224023  10.886  10.473   8.172
 7376SOL     OW24024  13.583  10.758   6.333
 7376SOL    HW124025  13.550  10.845   6.357
 7376SOL    HW224026  13.597  10.713   6.416
 7377SOL     OW24027  12.130   5.445  11.443
 7377SOL    HW124028  12.047   5.423  11.484
 7377SOL    HW224029  12.195   5.432  11.512
 7378SOL     OW24030  12.498  14.355  14.314
 7378SOL    HW124031  12.466  14.383  14.229
 7378SOL    HW224032  12.434  14.389  14.377
 7379SOL     OW24033  11.627   4.320   6.258
 7379SOL    HW124034  11.661   4.353   6.340
 7379SOL    HW224035  11.666   4.233   6.249
 7380SOL     OW24036   0.478  12.716   1.882
 7380SOL    HW124037   0.468  12.701   1.976
 7380SOL    HW224038   0.562  12.675   1.860
 7381SOL     OW24039   9.196  14.167  10.147
 7381SOL    HW124040   9.267  14.228  10.167
 7381SOL    HW224041   9.152  14.153  10.231
 7382SOL     OW24042   8.695  11.598   3.770
 7382SOL    HW124043   8.710  11.604   3.676
 7382SOL    HW224044   8.714  11.686   3.803
 7383SOL     OW24045   3.720   9.709   7.325
 7383SOL    HW124046   3.639   9.691   7.276
 7383SOL    HW224047   3.784   9.649   7.288
 7384SOL     OW24048   4.015   0.045   7.550
 7384SOL    HW124049   4.068   0.125   7.551
 7384SOL    HW224050   4.063  14.867   7.492
 7385SOL     OW24051   5.609   7.026   4.607
 7385SOL    HW124052   5.532   7.064   4.649
 7385SOL    HW224053   5.608   7.062   4.518
 7386SOL     OW24054  12.890  11.586  14.737
 7386SOL    HW124055  12.954  11.530  14.692
 7386SOL    HW224056  12.906  11.674  14.701
 7387SOL     OW24057   5.265  10.006  14.464
 7387SOL    HW124058   5.260   9.988  14.370
 7387SOL    HW224059   5.335   9.950  14.496
 7388SOL     OW24060   3.096   7.902  11.106
 7388SOL    HW124061   3.086   7.825  11.161
 7388SOL    HW224062   3.183   7.936  11.126
 7389SOL     OW24063   9.204  13.431   4.200
 7389SOL    HW124064   9.251  13.440   4.117
 7389SOL    HW224065   9.271  13.405   4.263
 7390SOL     OW24066   4.518   5.311  10.966
 7390SOL    HW124067   4.484   5.242  11.023
 7390SOL    HW224068   4.566   5.370  11.024
 7391SOL     OW24069   4.350  11.457   5.877
 7391SOL    HW124070   4.309  11.373   5.897
 7391SOL    HW224071   4.439  11.448   5.912
 7392SOL     OW24072   2.541   4.695  12.503
 7392SOL    HW124073   2.520   4.621  12.447
 7392SOL    HW224074   2.614   4.739  12.459
 7393SOL     OW24075   2.506   2.003   8.832
 7393SOL    HW124076   2.428   2.060   8.838
 7393SOL    HW224077   2.554   2.020   8.913
 7394SOL     OW24078   9.922   0.358   1.622
 7394SOL    HW124079   9.930   0.371   1.527
 7394SOL    HW224080   9.865   0.281   1.631
 7395SOL     OW24081   2.980   0.810   5.232
 7395SOL    HW124082   3.002   0.854   5.150
 7395SOL    HW224083   2.943   0.879   5.287
 7396SOL     OW24084  12.976  11.107   8.280
 7396SOL    HW124085  13.068  11.129   8.295
 7396SOL    HW224086  12.950  11.162   8.207
 7397SOL     OW24087  11.019   7.945   3.249
 7397SOL    HW124088  11.052   7.926   3.161
 7397SOL    HW224089  10.925   7.955   3.238
 7398SOL     OW24090  12.134   3.312   5.836
 7398SOL    HW124091  12.124   3.304   5.931
 7398SOL    HW224092  12.212   3.261   5.816
 7399SOL     OW24093   9.786   8.589   3.573
 7399SOL    HW124094   9.723   8.520   3.552
 7399SOL    HW224095   9.802   8.579   3.667
 7400SOL     OW24096   5.512   6.023   5.572
 7400SOL    HW124097   5.509   6.027   5.476
 7400SOL    HW224098   5.599   5.988   5.592
 7401SOL     OW24099  14.781   0.430   2.617
 7401SOL    HW124100  14.685   0.421   2.616
 7401SOL    HW224101  14.796   0.521   2.589
 7402SOL     OW24102   4.124  10.822  10.743
 7402SOL    HW124103   4.108  10.770  10.821
 7402SOL    HW224104   4.199  10.781  10.701
 7403SOL     OW24105  13.831  14.068   3.919
 7403SOL    HW124106  13.924  14.075   3.942
 7403SOL    HW224107  13.830  14.015   3.839
 7404SOL     OW24108   6.681  13.759   6.107
 7404SOL    HW124109   6.653  13.831   6.051
 7404SOL    HW224110   6.750  13.797   6.162
 7405SOL     OW24111   3.286  13.232   7.306
 7405SOL    HW124112   3.209  13.272   7.347
 7405SOL    HW224113   3.328  13.183   7.377
 7406SOL     OW24114  11.869   7.927   0.487
 7406SOL    HW124115  11.856   8.017   0.519
 7406SOL    HW224116  11.954   7.902   0.522
 7407SOL     OW24117  11.617   6.978  13.583
 7407SOL    HW124118  11.630   7.069  13.608
 7407SOL    HW224119  11.702   6.936  13.600
 7408SOL     OW24120   8.063   7.853   7.040
 7408SOL    HW124121   8.019   7.768   7.038
 7408SOL    HW224122   8.147   7.838   6.996
 7409SOL     OW24123  11.723   9.712   1.373
 7409SOL    HW124124  11.676   9.667   1.302
 7409SOL    HW224125  11.693   9.803   1.367
 7410SOL     OW24126   5.727   2.010   9.069
 7410SOL    HW124127   5.819   1.995   9.047
 7410SOL    HW224128   5.678   1.947   9.016
 7411SOL     OW24129   2.854   8.070   0.217
 7411SOL    HW124130   2.792   8.046   0.148
 7411SOL    HW224131   2.913   7.996   0.223
 7412SOL     OW24132   2.705  10.050   6.914
 7412SOL    HW124133   2.780   9.996   6.942
 7412SOL    HW224134   2.629   9.998   6.938
 7413SOL     OW24135   8.297   5.737   9.432
 7413SOL    HW124136   8.369   5.786   9.472
 7413SOL    HW224137   8.221   5.793   9.443
 7414SOL     OW24138  14.690   1.552  11.729
 7414SOL    HW124139  14.659   1.463  11.749
 7414SOL    HW224140  14.613   1.597  11.695
 7415SOL     OW24141   4.570   6.061  11.936
 7415SOL    HW124142   4.657   6.100  11.934
 7415SOL    HW224143   4.525   6.097  11.859
 7416SOL     OW24144   0.333   7.010  10.214
 7416SOL    HW124145   0.380   7.030  10.295
 7416SOL    HW224146   0.257   7.068  10.216
 7417SOL     OW24147   0.876  13.815   8.997
 7417SOL    HW124148   0.930  13.893   9.012
 7417SOL    HW224149   0.822  13.808   9.075
 7418SOL     OW24150  11.716   7.141   7.481
 7418SOL    HW124151  11.715   7.168   7.572
 7418SOL    HW224152  11.693   7.048   7.483
 7419SOL     OW24153   2.259  11.892  11.664
 7419SOL    HW124154   2.173  11.850  11.674
 7419SOL    HW224155   2.303  11.841  11.596
 7420SOL     OW24156   0.375  10.797  12.705
 7420SOL    HW124157   0.436  10.770  12.636
 7420SOL    HW224158   0.427  10.854  12.761
 7421SOL     OW24159   5.952   5.426   8.279
 7421SOL    HW124160   5.872   5.454   8.324
 7421SOL    HW224161   6.013   5.498   8.289
 7422SOL     OW24162   8.205   2.876   1.297
 7422SOL    HW124163   8.168   2.908   1.215
 7422SOL    HW224164   8.135   2.825   1.337
 7423SOL     OW24165   6.820   1.690  14.495
 7423SOL    HW124166   6.809   1.706  14.589
 7423SOL    HW224167   6.823   1.777  14.456
 7424SOL     OW24168   3.764   2.668   3.957
 7424SOL    HW124169   3.851   2.631   3.974
 7424SOL    HW224170   3.704   2.608   4.002
 7425SOL     OW24171   4.424   3.164  14.002
 7425SOL    HW124172   4.514   3.141  13.983
 7425SOL    HW224173   4.424   3.188  14.095
 7426SOL     OW24174   6.413  11.518   4.329
 7426SOL    HW124175   6.415  11.575   4.406
 7426SOL    HW224176   6.479  11.554   4.271
 7427SOL     OW24177   0.323   2.471   5.954
 7427SOL    HW124178   0.326   2.564   5.930
 7427SOL    HW224179   0.253   2.435   5.899
 7428SOL     OW24180  12.830  13.293   3.658
 7428SOL    HW124181  12.743  13.332   3.666
 7428SOL    HW224182  12.890  13.366   3.670
 7429SOL     OW24183  12.711   8.194   3.552
 7429SOL    HW124184  12.688   8.179   3.644
 7429SOL    HW224185  12.666   8.125   3.505
 7430SOL     OW24186   6.043  13.206  11.145
 7430SOL    HW124187   5.969  13.199  11.205
 7430SOL    HW224188   6.111  13.251  11.196
 7431SOL     OW24189   0.176  12.618  11.970
 7431SOL    HW124190   0.135  12.691  11.924
 7431SOL    HW224191   0.104  12.570  12.009
 7432SOL     OW24192   4.743   9.061  14.681
 7432SOL    HW124193   4.745   9.015  14.765
 7432SOL    HW224194   4.654   9.048  14.649
 7433SOL     OW24195  13.006   9.808   0.231
 7433SOL    HW124196  13.030   9.878   0.171
 7433SOL    HW224197  13.058   9.825   0.310
 7434SOL     OW24198   6.408  11.424   3.646
 7434SOL    HW124199   6.487  11.369   3.640
 7434SOL    HW224200   6.342  11.377   3.596
 7435SOL     OW24201  10.266  13.146  10.822
 7435SOL    HW124202  10.186  13.178  10.780
 7435SOL    HW224203  10.257  13.050  10.820
 7436SOL     OW24204   1.902  10.456   5.129
 7436SOL    HW124205   1.877  10.532   5.076
 7436SOL    HW224206   1.820  10.424   5.167
 7437SOL     OW24207   2.566   2.639  11.762
 7437SOL    HW124208   2.655   2.627  11.795
 7437SOL    HW224209   2.576   2.658  11.669
 7438SOL     OW24210   3.323   9.412  13.000
 7438SOL    HW124211   3.338   9.363  12.919
 7438SOL    HW224212   3.393   9.382  13.059
 7439SOL     OW24213   3.217   8.216  11.841
 7439SOL    HW124214   3.142   8.166  11.874
 7439SOL    HW224215   3.201   8.224  11.747
 7440SOL     OW24216  13.220   5.827   1.463
 7440SOL    HW124217  13.186   5.861   1.380
 7440SOL    HW224218  13.266   5.747   1.439
 7441SOL     OW24219   0.414   2.009   0.926
 7441SOL    HW124220   0.444   2.091   0.888
 7441SOL    HW224221   0.423   2.021   1.020
 7442SOL     OW24222  12.480  12.938   2.060
 7442SOL    HW124223  12.443  12.857   2.025
 7442SOL    HW224224  12.436  13.008   2.013
 7443SOL     OW24225   3.909   2.780   5.335
 7443SOL    HW124226   3.977   2.844   5.354
 7443SOL    HW224227   3.922   2.711   5.400
 7444SOL     OW24228   3.023   2.828   7.530
 7444SOL    HW124229   2.955   2.888   7.500
 7444SOL    HW224230   3.038   2.770   7.455
 7445SOL     OW24231  14.040   1.029   9.459
 7445SOL    HW124232  14.088   0.956   9.420
 7445SOL    HW224233  13.994   1.069   9.385
 7446SOL     OW24234  12.138   5.377   0.514
 7446SOL    HW124235  12.185   5.453   0.548
 7446SOL    HW224236  12.056   5.413   0.481
 7447SOL     OW24237  13.213  11.092   5.488
 7447SOL    HW124238  13.168  11.131   5.413
 7447SOL    HW224239  13.193  10.998   5.482
 7448SOL     OW24240   8.620   6.219   4.690
 7448SOL    HW124241   8.639   6.159   4.762
 7448SOL    HW224242   8.653   6.174   4.612
 7449SOL     OW24243   4.413   9.942   6.068
 7449SOL    HW124244   4.484   9.967   6.009
 7449SOL    HW224245   4.359  10.021   6.075
 7450SOL     OW24246  10.879   4.645   7.000
 7450SOL    HW124247  10.964   4.650   7.043
 7450SOL    HW224248  10.899   4.624   6.909
 7451SOL     OW24249   9.639   6.672   5.002
 7451SOL    HW124250   9.664   6.636   4.917
 7451SOL    HW224251   9.622   6.594   5.056
 7452SOL     OW24252  14.266   3.822   9.814
 7452SOL    HW124253  14.295   3.765   9.885
 7452SOL    HW224254  14.343   3.872   9.789
 7453SOL     OW24255   4.287   6.733  10.260
 7453SOL    HW124256   4.316   6.683  10.336
 7453SOL    HW224257   4.259   6.817  10.295
 7454SOL     OW24258   9.842   7.894   4.407
 7454SOL    HW124259   9.853   7.799   4.409
 7454SOL    HW224260   9.888   7.923   4.328
 7455SOL     OW24261   6.191   9.315   6.394
 7455SOL    HW124262   6.116   9.258   6.411
 7455SOL    HW224263   6.206   9.306   6.300
 7456SOL     OW24264   9.943  12.032  12.691
 7456SOL    HW124265   9.990  12.116  12.690
 7456SOL    HW224266   9.969  11.991  12.774
 7457SOL     OW24267  11.744   5.040   3.474
 7457SOL    HW124268  11.682   5.016   3.405
 7457SOL    HW224269  11.795   4.960   3.489
 7458SOL     OW24270  10.792  10.113  10.021
 7458SOL    HW124271  10.740  10.175   9.970
 7458SOL    HW224272  10.727  10.055  10.062
 7459SOL     OW24273   2.398   6.964   4.572
 7459SOL    HW124274   2.355   7.017   4.639
 7459SOL    HW224275   2.337   6.892   4.555
 7460SOL     OW24276  14.638   5.186  12.912
 7460SOL    HW124277  14.649   5.238  12.991
 7460SOL    HW224278  14.630   5.096  12.944
 7461SOL     OW24279  12.921   1.311  13.187
 7461SOL    HW124280  12.883   1.398  13.178
 7461SOL    HW224281  12.900   1.284  13.276
 7462SOL     OW24282   5.325   5.879   2.060
 7462SOL    HW124283   5.355   5.835   1.981
 7462SOL    HW224284   5.313   5.970   2.033
 7463SOL     OW24285   1.308   9.290   6.789
 7463SOL    HW124286   1.333   9.366   6.842
 7463SOL    HW224287   1.217   9.307   6.765
 7464SOL     OW24288   3.405   6.541   5.439
 7464SOL    HW124289   3.476   6.488   5.477
 7464SOL    HW224290   3.326   6.508   5.482
 7465SOL     OW24291   8.224  13.225   6.816
 7465SOL    HW124292   8.191  13.154   6.762
 7465SOL    HW224293   8.317  13.204   6.829
 7466SOL     OW24294  13.489  13.516   9.623
 7466SOL    HW124295  13.421  13.583   9.614
 7466SOL    HW224296  13.458  13.459   9.693
 7467SOL     OW24297   4.273  14.640   6.240
 7467SOL    HW124298   4.359  14.659   6.202
 7467SOL    HW224299   4.211  14.682   6.181
 7468SOL     OW24300  14.328  10.403  12.472
 7468SOL    HW124301  14.323  10.413  12.567
 7468SOL    HW224302  14.248  10.356  12.448
 7469SOL     OW24303   6.417   2.288  12.884
 7469SOL    HW124304   6.416   2.334  12.968
 7469SOL    HW224305   6.345   2.327  12.835
 7470SOL     OW24306   0.698  14.882   1.566
 7470SOL    HW124307   0.669   0.090   1.581
 7470SOL    HW224308   0.683  14.868   1.472
 7471SOL     OW24309  13.862   5.523   0.593
 7471SOL    HW124310  13.868   5.615   0.620
 7471SOL    HW224311  13.949   5.503   0.559
 7472SOL     OW24312   6.996  11.487   9.691
 7472SOL    HW124313   7.043  11.441   9.762
 7472SOL    HW224314   6.906  11.492   9.722
 7473SOL     OW24315   7.797   1.644   1.119
 7473SOL    HW124316   7.764   1.695   1.194
 7473SOL    HW224317   7.802   1.707   1.047
 7474SOL     OW24318   5.024   3.749  10.949
 7474SOL    HW124319   5.024   3.666  10.997
 7474SOL    HW224320   4.980   3.729  10.866
 7475SOL     OW24321   2.880  12.009   8.418
 7475SOL    HW124322   2.796  12.030   8.460
 7475SOL    HW224323   2.912  11.931   8.465
 7476SOL     OW24324   8.727   9.651  13.293
 7476SOL    HW124325   8.733   9.610  13.207
 7476SOL    HW224326   8.656   9.715  13.284
 7477SOL     OW24327  11.009   8.728   4.915
 7477SOL    HW124328  10.973   8.721   5.003
 7477SOL    HW224329  11.069   8.653   4.908
 7478SOL     OW24330   1.947  12.490   8.334
 7478SOL    HW124331   1.935  12.398   8.358
 7478SOL    HW224332   1.865  12.514   8.291
 7479SOL     OW24333   7.053   6.177   2.699
 7479SOL    HW124334   7.088   6.262   2.724
 7479SOL    HW224335   7.092   6.158   2.614
 7480SOL     OW24336  10.277   8.920  11.865
 7480SOL    HW124337  10.239   8.996  11.909
 7480SOL    HW224338  10.358   8.952  11.826
 7481SOL     OW24339   4.661  12.113   5.342
 7481SOL    HW124340   4.637  12.090   5.432
 7481SOL    HW224341   4.719  12.189   5.351
 7482SOL     OW24342  11.216   2.059  11.169
 7482SOL    HW124343  11.159   2.010  11.229
 7482SOL    HW224344  11.304   2.027  11.188
 7483SOL     OW24345  14.153  12.648   8.618
 7483SOL    HW124346  14.228  12.658   8.559
 7483SOL    HW224347  14.078  12.675   8.565
 7484SOL     OW24348   1.606   0.112  13.198
 7484SOL    HW124349   1.512   0.106  13.216
 7484SOL    HW224350   1.620   0.204  13.174
 7485SOL     OW24351   7.689  11.241   6.499
 7485SOL    HW124352   7.617  11.268   6.556
 7485SOL    HW224353   7.669  11.281   6.414
 7486SOL     OW24354   4.701   9.297   4.656
 7486SOL    HW124355   4.675   9.389   4.648
 7486SOL    HW224356   4.697   9.280   4.751
 7487SOL     OW24357  13.821   7.127   8.990
 7487SOL    HW124358  13.740   7.084   8.963
 7487SOL    HW224359  13.800   7.165   9.076
 7488SOL     OW24360  14.419  13.258   5.112
 7488SOL    HW124361  14.512  13.249   5.131
 7488SOL    HW224362  14.376  13.253   5.197
 7489SOL     OW24363   0.373   6.327   7.836
 7489SOL    HW124364   0.453   6.372   7.863
 7489SOL    HW224365   0.314   6.336   7.911
 7490SOL     OW24366   0.760  10.556   0.924
 7490SOL    HW124367   0.845  10.587   0.893
 7490SOL    HW224368   0.740  10.614   0.998
 7491SOL     OW24369   4.628   6.348  12.541
 7491SOL    HW124370   4.540   6.347  12.505
 7491SOL    HW224371   4.684   6.372  12.467
 7492SOL     OW24372  14.720   3.734   0.754
 7492SOL    HW124373  14.723   3.645   0.720
 7492SOL    HW224374  14.701   3.724   0.847
 7493SOL     OW24375   1.808   2.745  14.023
 7493SOL    HW124376   1.895   2.770  14.056
 7493SOL    HW224377   1.823   2.721  13.932
 7494SOL     OW24378   4.258   8.263  10.892
 7494SOL    HW124379   4.239   8.230  10.805
 7494SOL    HW224380   4.318   8.336  10.878
 7495SOL     OW24381   6.957   0.571  14.614
 7495SOL    HW124382   6.927   0.484  14.641
 7495SOL    HW224383   6.950   0.570  14.519
 7496SOL     OW24384   7.466   0.305   6.963
 7496SOL    HW124385   7.552   0.286   7.000
 7496SOL    HW224386   7.435   0.220   6.930
 7497SOL     OW24387   9.658   3.842   7.094
 7497SOL    HW124388   9.646   3.772   7.159
 7497SOL    HW224389   9.596   3.910   7.120
 7498SOL     OW24390  14.274  12.923  13.693
 7498SOL    HW124391  14.225  12.933  13.775
 7498SOL    HW224392  14.298  13.012  13.668
 7499SOL     OW24393   3.681   1.148   7.371
 7499SOL    HW124394   3.627   1.166   7.448
 7499SOL    HW224395   3.621   1.157   7.297
 7500SOL     OW24396   7.922  14.755   6.031
 7500SOL    HW124397   7.961  14.700   6.098
 7500SOL    HW224398   7.994  14.778   5.973
 7501SOL     OW24399   5.259  11.448   9.580
 7501SOL    HW124400   5.173  11.415   9.604
 7501SOL    HW224401   5.297  11.479   9.662
 7502SOL     OW24402   3.897   3.970  12.933
 7502SOL    HW124403   3.875   3.935  12.847
 7502SOL    HW224404   3.812   3.983  12.976
 7503SOL     OW24405  13.224   6.140  11.267
 7503SOL    HW124406  13.275   6.218  11.287
 7503SOL    HW224407  13.277   6.068  11.302
 7504SOL     OW24408  11.060   6.647   1.759
 7504SOL    HW124409  10.980   6.599   1.737
 7504SOL    HW224410  11.128   6.609   1.704
 7505SOL     OW24411  11.172   1.121   3.802
 7505SOL    HW124412  11.182   1.151   3.712
 7505SOL    HW224413  11.104   1.054   3.797
 7506SOL     OW24414   8.566  10.432  14.352
 7506SOL    HW124415   8.658  10.455  14.343
 7506SOL    HW224416   8.534  10.425  14.262
 7507SOL     OW24417   3.722  10.224   7.434
 7507SOL    HW124418   3.653  10.181   7.485
 7507SOL    HW224419   3.715  10.317   7.458
 7508SOL     OW24420   8.592   4.604   9.720
 7508SOL    HW124421   8.514   4.645   9.682
 7508SOL    HW224422   8.647   4.677   9.746
 7509SOL     OW24423   4.711   1.907   6.032
 7509SOL    HW124424   4.732   1.936   6.121
 7509SOL    HW224425   4.619   1.931   6.020
 7510SOL     OW24426  11.298   9.900   7.444
 7510SOL    HW124427  11.360   9.864   7.381
 7510SOL    HW224428  11.212   9.884   7.405
 7511SOL     OW24429  13.620   4.024   7.626
 7511SOL    HW124430  13.545   3.969   7.605
 7511SOL    HW224431  13.624   4.089   7.556
 7512SOL     OW24432  12.500  14.765   5.502
 7512SOL    HW124433  12.535  14.772   5.590
 7512SOL    HW224434  12.411  14.800   5.509
 7513SOL     OW24435  10.178   7.356   3.060
 7513SOL    HW124436  10.092   7.372   3.099
 7513SOL    HW224437  10.177   7.263   3.037
 7514SOL     OW24438  10.702   2.207  11.660
 7514SOL    HW124439  10.778   2.261  11.640
 7514SOL    HW224440  10.627   2.264  11.642
 7515SOL     OW24441  12.372   1.274   2.137
 7515SOL    HW124442  12.304   1.305   2.078
 7515SOL    HW224443  12.454   1.292   2.092
 7516SOL     OW24444   5.641  13.905   4.476
 7516SOL    HW124445   5.617  13.934   4.388
 7516SOL    HW224446   5.624  13.811   4.476
 7517SOL     OW24447  12.337   1.357   3.915
 7517SOL    HW124448  12.392   1.349   3.994
 7517SOL    HW224449  12.256   1.396   3.947
 7518SOL     OW24450   3.703   2.946   0.450
 7518SOL    HW124451   3.704   2.863   0.499
 7518SOL    HW224452   3.619   2.986   0.473
 7519SOL     OW24453  10.611   6.358   2.489
 7519SOL    HW124454  10.702   6.327   2.493
 7519SOL    HW224455  10.594   6.369   2.396
 7520SOL     OW24456   6.580   8.675   5.454
 7520SOL    HW124457   6.505   8.725   5.486
 7520SOL    HW224458   6.551   8.636   5.372
 7521SOL     OW24459   4.374   5.990  12.449
 7521SOL    HW124460   4.346   6.078  12.425
 7521SOL    HW224461   4.469   5.996  12.456
 7522SOL     OW24462  11.395  10.443  14.666
 7522SOL    HW124463  11.313  10.491  14.649
 7522SOL    HW224464  11.388  10.364  14.613
 7523SOL     OW24465   4.057  10.396   0.527
 7523SOL    HW124466   4.085  10.416   0.616
 7523SOL    HW224467   3.970  10.356   0.537
 7524SOL     OW24468  13.484  13.556  12.515
 7524SOL    HW124469  13.465  13.506  12.435
 7524SOL    HW224470  13.406  13.611  12.528
 7525SOL     OW24471   5.695   7.671  10.983
 7525SOL    HW124472   5.683   7.752  10.933
 7525SOL    HW224473   5.608   7.631  10.985
 7526SOL     OW24474   9.703   9.846  10.062
 7526SOL    HW124475   9.678   9.754  10.072
 7526SOL    HW224476   9.761   9.847   9.986
 7527SOL     OW24477  12.279  13.672  14.110
 7527SOL    HW124478  12.315  13.705  14.193
 7527SOL    HW224479  12.323  13.723  14.043
 7528SOL     OW24480   9.600  10.181   0.408
 7528SOL    HW124481   9.660  10.246   0.444
 7528SOL    HW224482   9.519  10.230   0.390
 7529SOL     OW24483  12.039  10.176   6.530
 7529SOL    HW124484  11.983  10.253   6.525
 7529SOL    HW224485  11.982  10.106   6.561
 7530SOL     OW24486  12.037   7.166   4.389
 7530SOL    HW124487  12.039   7.196   4.480
 7530SOL    HW224488  12.125   7.186   4.355
 7531SOL     OW24489   8.595   4.705  11.768
 7531SOL    HW124490   8.656   4.779  11.765
 7531SOL    HW224491   8.513   4.744  11.800
 7532SOL     OW24492   1.770   4.850   9.284
 7532SOL    HW124493   1.744   4.815   9.369
 7532SOL    HW224494   1.865   4.841   9.281
 7533SOL     OW24495   5.625   3.187   4.798
 7533SOL    HW124496   5.573   3.259   4.763
 7533SOL    HW224497   5.697   3.177   4.735
 7534SOL     OW24498   9.976  12.777   7.141
 7534SOL    HW124499  10.030  12.814   7.211
 7534SOL    HW224500   9.903  12.736   7.187
 7535SOL     OW24501  14.832   6.819  13.403
 7535SOL    HW124502  14.850   6.779  13.488
 7535SOL    HW224503  14.760   6.768  13.367
 7536SOL     OW24504  10.190   8.601  11.938
 7536SOL    HW124505  10.140   8.671  11.896
 7536SOL    HW224506  10.141   8.521  11.918
 7537SOL     OW24507   8.192   7.640  10.968
 7537SOL    HW124508   8.131   7.567  10.980
 7537SOL    HW224509   8.135   7.717  10.959
 7538SOL     OW24510   6.641   1.571   3.751
 7538SOL    HW124511   6.634   1.584   3.846
 7538SOL    HW224512   6.732   1.547   3.736
 7539SOL     OW24513  12.123   5.901   0.747
 7539SOL    HW124514  12.105   5.985   0.788
 7539SOL    HW224515  12.049   5.846   0.773
 7540SOL     OW24516   1.802   6.494  10.088
 7540SOL    HW124517   1.829   6.476  10.178
 7540SOL    HW224518   1.881   6.480  10.036
 7541SOL     OW24519  10.538   0.985  10.510
 7541SOL    HW124520  10.610   1.035  10.470
 7541SOL    HW224521  10.499   1.046  10.572
 7542SOL     OW24522   6.061   8.437   3.155
 7542SOL    HW124523   6.150   8.425   3.188
 7542SOL    HW224524   6.036   8.525   3.185
 7543SOL     OW24525  13.743  12.045  13.764
 7543SOL    HW124526  13.717  12.000  13.684
 7543SOL    HW224527  13.837  12.032  13.771
 7544SOL     OW24528   0.709   5.727   9.776
 7544SOL    HW124529   0.720   5.742   9.870
 7544SOL    HW224530   0.696   5.815   9.739
 7545SOL     OW24531   3.048   3.533  10.150
 7545SOL    HW124532   3.125   3.480  10.131
 7545SOL    HW224533   3.072   3.622  10.123
 7546SOL     OW24534   8.546  13.611   5.297
 7546SOL    HW124535   8.622  13.553   5.291
 7546SOL    HW224536   8.560  13.660   5.378
 7547SOL     OW24537  10.434   7.338  13.239
 7547SOL    HW124538  10.452   7.283  13.316
 7547SOL    HW224539  10.437   7.427  13.272
 7548SOL     OW24540   1.300  13.102   4.946
 7548SOL    HW124541   1.394  13.081   4.950
 7548SOL    HW224542   1.258  13.020   4.922
 7549SOL     OW24543  14.706   7.741  13.136
 7549SOL    HW124544  14.713   7.666  13.194
 7549SOL    HW224545  14.612   7.756  13.126
 7550SOL     OW24546   1.768  13.329   4.899
 7550SOL    HW124547   1.674  13.317   4.886
 7550SOL    HW224548   1.804  13.333   4.810
 7551SOL     OW24549   2.481   4.732   3.732
 7551SOL    HW124550   2.452   4.760   3.819
 7551SOL    HW224551   2.520   4.810   3.694
 7552SOL     OW24552   9.617   1.241  13.365
 7552SOL    HW124553   9.639   1.286  13.447
 7552SOL    HW224554   9.602   1.312  13.302
 7553SOL     OW24555  13.359   1.777   9.426
 7553SOL    HW124556  13.305   1.826   9.489
 7553SOL    HW224557  13.447   1.811   9.439
 7554SOL     OW24558   2.674  11.991   7.342
 7554SOL    HW124559   2.768  11.993   7.361
 7554SOL    HW224560   2.655  12.077   7.305
 7555SOL     OW24561  14.318   3.279   2.801
 7555SOL    HW124562  14.240   3.272   2.746
 7555SOL    HW224563  14.390   3.248   2.746
 7556SOL     OW24564   9.632  11.434   6.471
 7556SOL    HW124565   9.620  11.514   6.523
 7556SOL    HW224566   9.624  11.463   6.380
 7557SOL     OW24567   5.391   5.695  11.118
 7557SOL    HW124568   5.453   5.745  11.066
 7557SOL    HW224569   5.326   5.664  11.055
 7558SOL     OW24570   8.043  13.441   6.475
 7558SOL    HW124571   8.010  13.419   6.388
 7558SOL    HW224572   8.021  13.364   6.529
 7559SOL     OW24573   2.626   7.539   8.149
 7559SOL    HW124574   2.681   7.513   8.224
 7559SOL    HW224575   2.688   7.579   8.088
 7560SOL     OW24576   9.696  14.058   8.976
 7560SOL    HW124577   9.720  14.129   9.036
 7560SOL    HW224578   9.761  14.063   8.905
 7561SOL     OW24579   0.527   9.504  13.850
 7561SOL    HW124580   0.457   9.503  13.784
 7561SOL    HW224581   0.498   9.442  13.917
 7562SOL     OW24582   4.986  14.701  13.506
 7562SOL    HW124583   5.041  14.749  13.445
 7562SOL    HW224584   4.992  14.610  13.477
 7563SOL     OW24585   7.551   6.750   6.698
 7563SOL    HW124586   7.560   6.757   6.603
 7563SOL    HW224587   7.634   6.783   6.732
 7564SOL     OW24588  11.829   6.978   4.947
 7564SOL    HW124589  11.833   7.053   4.886
 7564SOL    HW224590  11.921   6.954   4.960
 7565SOL     OW24591  10.958  14.008  13.175
 7565SOL    HW124592  11.009  14.045  13.248
 7565SOL    HW224593  11.009  14.028  13.097
 7566SOL     OW24594  12.271  12.153   6.303
 7566SOL    HW124595  12.219  12.144   6.223
 7566SOL    HW224596  12.356  12.114   6.281
 7567SOL     OW24597   4.318   3.310   1.567
 7567SOL    HW124598   4.296   3.345   1.481
 7567SOL    HW224599   4.270   3.227   1.573
 7568SOL     OW24600   3.473   1.650  11.676
 7568SOL    HW124601   3.520   1.632  11.757
 7568SOL    HW224602   3.540   1.646  11.608
 7569SOL     OW24603   3.321   1.504   3.919
 7569SOL    HW124604   3.374   1.426   3.931
 7569SOL    HW224605   3.260   1.481   3.849
 7570SOL     OW24606   6.469   7.045   2.156
 7570SOL    HW124607   6.393   6.999   2.190
 7570SOL    HW224608   6.488   7.003   2.072
 7571SOL     OW24609   2.061  11.446   2.984
 7571SOL    HW124610   2.112  11.454   2.903
 7571SOL    HW224611   2.075  11.529   3.029
 7572SOL     OW24612   7.987   6.463   2.407
 7572SOL    HW124613   8.012   6.445   2.497
 7572SOL    HW224614   7.899   6.500   2.413
 7573SOL     OW24615   3.454  14.729   0.906
 7573SOL    HW124616   3.519  14.772   0.960
 7573SOL    HW224617   3.390  14.695   0.968
 7574SOL     OW24618   8.334  11.630   0.734
 7574SOL    HW124619   8.313  11.641   0.827
 7574SOL    HW224620   8.295  11.547   0.710
 7575SOL     OW24621   6.545  14.669  13.353
 7575SOL    HW124622   6.548  14.732  13.280
 7575SOL    HW224623   6.483  14.708  13.415
 7576SOL     OW24624   4.157   4.939  11.404
 7576SOL    HW124625   4.234   4.996  11.410
 7576SOL    HW224626   4.090   4.983  11.457
 7577SOL     OW24627   1.879   2.517  12.495
 7577SOL    HW124628   1.928   2.517  12.577
 7577SOL    HW224629   1.911   2.595  12.449
 7578SOL     OW24630   1.243   4.852   2.909
 7578SOL    HW124631   1.182   4.780   2.924
 7578SOL    HW224632   1.288   4.863   2.993
 7579SOL     OW24633   9.731   3.771  14.540
 7579SOL    HW124634   9.665   3.701  14.533
 7579SOL    HW224635   9.697   3.840  14.483
 7580SOL     OW24636   1.603   9.825   1.620
 7580SOL    HW124637   1.514   9.791   1.626
 7580SOL    HW224638   1.616   9.842   1.526
 7581SOL     OW24639   3.849   5.162   9.148
 7581SOL    HW124640   3.923   5.134   9.201
 7581SOL    HW224641   3.776   5.167   9.210
 7582SOL     OW24642   6.915  12.375   2.449
 7582SOL    HW124643   6.979  12.442   2.474
 7582SOL    HW224644   6.966  12.309   2.403
 7583SOL     OW24645  14.535  11.772   6.605
 7583SOL    HW124646  14.551  11.834   6.676
 7583SOL    HW224647  14.465  11.811   6.554
 7584SOL     OW24648  14.842  10.868   4.915
 7584SOL    HW124649  14.876  10.798   4.970
 7584SOL    HW224650  14.872  10.949   4.957
 7585SOL     OW24651   8.594  11.877  11.440
 7585SOL    HW124652   8.512  11.841  11.472
 7585SOL    HW224653   8.593  11.968  11.468
 7586SOL     OW24654   9.376   2.825  13.401
 7586SOL    HW124655   9.389   2.752  13.461
 7586SOL    HW224656   9.386   2.787  13.314
 7587SOL     OW24657   4.347   3.749  14.882
 7587SOL    HW124658   4.298   3.831  14.878
 7587SOL    HW224659   4.438   3.775  14.867
 7588SOL     OW24660   8.876  14.661   7.638
 7588SOL    HW124661   8.861  14.589   7.699
 7588SOL    HW224662   8.971  14.676   7.641
 7589SOL     OW24663  14.309   7.945  12.325
 7589SOL    HW124664  14.282   7.952  12.416
 7589SOL    HW224665  14.301   8.033  12.290
 7590SOL     OW24666  10.921   9.113   1.708
 7590SOL    HW124667  10.841   9.166   1.709
 7590SOL    HW224668  10.912   9.059   1.630
 7591SOL     OW24669   7.624  11.960   1.421
 7591SOL    HW124670   7.680  12.033   1.447
 7591SOL    HW224671   7.595  11.921   1.503
 7592SOL     OW24672  14.796   5.689   8.724
 7592SOL    HW124673  14.880   5.708   8.765
 7592SOL    HW224674  14.787   5.755   8.656
 7593SOL     OW24675   0.679   0.891   3.448
 7593SOL    HW124676   0.753   0.900   3.508
 7593SOL    HW224677   0.718   0.857   3.367
 7594SOL     OW24678   8.815   0.813   9.098
 7594SOL    HW124679   8.746   0.809   9.164
 7594SOL    HW224680   8.777   0.773   9.020
 7595SOL     OW24681   7.193   0.818  11.142
 7595SOL    HW124682   7.110   0.847  11.179
 7595SOL    HW224683   7.259   0.843  11.207
 7596SOL     OW24684  14.021   6.883   7.607
 7596SOL    HW124685  14.039   6.968   7.647
 7596SOL    HW224686  14.107   6.841   7.601
 7597SOL     OW24687   6.687   9.088   4.116
 7597SOL    HW124688   6.682   9.183   4.128
 7597SOL    HW224689   6.646   9.051   4.194
 7598SOL     OW24690   9.221   1.201  13.056
 7598SOL    HW124691   9.211   1.220  13.149
 7598SOL    HW224692   9.311   1.167  13.048
 7599SOL     OW24693  11.507  11.020  13.880
 7599SOL    HW124694  11.543  11.108  13.889
 7599SOL    HW224695  11.488  11.012  13.786
 7600SOL     OW24696   8.903   1.910   8.812
 7600SOL    HW124697   8.973   1.974   8.797
 7600SOL    HW224698   8.941   1.847   8.872
 7601SOL     OW24699   0.844   0.649   5.833
 7601SOL    HW124700   0.757   0.617   5.807
 7601SOL    HW224701   0.826   0.717   5.897
 7602SOL     OW24702  11.233   8.056   3.596
 7602SOL    HW124703  11.242   7.977   3.543
 7602SOL    HW224704  11.227   8.127   3.532
 7603SOL     OW24705   7.287  12.706   1.291
 7603SOL    HW124706   7.234  12.638   1.334
 7603SOL    HW224707   7.342  12.741   1.360
 7604SOL     OW24708   9.116  11.755   6.594
 7604SOL    HW124709   9.061  11.795   6.662
 7604SOL    HW224710   9.187  11.713   6.643
 7605SOL     OW24711   1.977  11.321   6.733
 7605SOL    HW124712   1.961  11.400   6.681
 7605SOL    HW224713   2.068  11.297   6.713
 7606SOL     OW24714  10.959   5.130   5.822
 7606SOL    HW124715  10.866   5.137   5.845
 7606SOL    HW224716  10.991   5.219   5.824
 7607SOL     OW24717   3.256  10.225  11.991
 7607SOL    HW124718   3.260  10.280  11.912
 7607SOL    HW224719   3.164  10.226  12.017
 7608SOL     OW24720  12.794   5.768  14.566
 7608SOL    HW124721  12.707   5.793  14.535
 7608SOL    HW224722  12.779   5.737  14.656
 7609SOL     OW24723   3.520   0.631   7.311
 7609SOL    HW124724   3.461   0.611   7.384
 7609SOL    HW224725   3.576   0.554   7.304
 7610SOL     OW24726   1.664   1.109  13.066
 7610SOL    HW124727   1.630   1.196  13.041
 7610SOL    HW224728   1.702   1.123  13.152
 7611SOL     OW24729  14.120   5.795  12.721
 7611SOL    HW124730  14.054   5.807  12.789
 7611SOL    HW224731  14.070   5.783  12.641
 7612SOL     OW24732   0.150   7.427   4.869
 7612SOL    HW124733   0.142   7.523   4.864
 7612SOL    HW224734   0.238   7.409   4.836
 7613SOL     OW24735  12.540   6.010   6.165
 7613SOL    HW124736  12.614   6.026   6.224
 7613SOL    HW224737  12.463   6.031   6.216
 7614SOL     OW24738   3.855  14.473   2.889
 7614SOL    HW124739   3.897  14.559   2.878
 7614SOL    HW224740   3.909  14.414   2.836
 7615SOL     OW24741   7.725   2.401   3.177
 7615SOL    HW124742   7.677   2.418   3.258
 7615SOL    HW224743   7.671   2.441   3.108
 7616SOL     OW24744   3.516   4.913   0.693
 7616SOL    HW124745   3.495   4.964   0.615
 7616SOL    HW224746   3.504   4.974   0.766
 7617SOL     OW24747   3.818   3.483  10.814
 7617SOL    HW124748   3.726   3.476  10.790
 7617SOL    HW224749   3.849   3.392  10.812
 7618SOL     OW24750   9.204   9.885   4.875
 7618SOL    HW124751   9.112   9.909   4.869
 7618SOL    HW224752   9.216   9.815   4.811
 7619SOL     OW24753   8.830  12.828   6.631
 7619SOL    HW124754   8.872  12.908   6.598
 7619SOL    HW224755   8.803  12.851   6.720
 7620SOL     OW24756   4.622   3.369   1.219
 7620SOL    HW124757   4.542   3.328   1.186
 7620SOL    HW224758   4.692   3.307   1.198
 7621SOL     OW24759   7.972   6.764  13.347
 7621SOL    HW124760   7.984   6.772  13.253
 7621SOL    HW224761   7.930   6.846  13.373
 7622SOL     OW24762   2.205  12.997  10.202
 7622SOL    HW124763   2.212  12.947  10.121
 7622SOL    HW224764   2.291  12.988  10.244
 7623SOL     OW24765   3.433   7.420   6.862
 7623SOL    HW124766   3.427   7.490   6.797
 7623SOL    HW224767   3.383   7.453   6.937
 7624SOL     OW24768  11.169   0.755  10.525
 7624SOL    HW124769  11.179   0.834  10.472
 7624SOL    HW224770  11.244   0.754  10.583
 7625SOL     OW24771   3.667   1.920   2.680
 7625SOL    HW124772   3.604   1.991   2.685
 7625SOL    HW224773   3.622   1.850   2.633
 7626SOL     OW24774   1.795   9.940   2.231
 7626SOL    HW124775   1.837   9.964   2.148
 7626SOL    HW224776   1.772  10.024   2.272
 7627SOL     OW24777   4.842   0.574   7.124
 7627SOL    HW124778   4.862   0.525   7.045
 7627SOL    HW224779   4.869   0.516   7.195
 7628SOL     OW24780  11.150   2.427   0.847
 7628SOL    HW124781  11.130   2.518   0.868
 7628SOL    HW224782  11.086   2.376   0.896
 7629SOL     OW24783   7.745   5.239   3.882
 7629SOL    HW124784   7.768   5.315   3.829
 7629SOL    HW224785   7.783   5.257   3.968
 7630SOL     OW24786   6.862   4.301   6.186
 7630SOL    HW124787   6.850   4.292   6.092
 7630SOL    HW224788   6.866   4.396   6.201
 7631SOL     OW24789   6.064   3.289   5.247
 7631SOL    HW124790   5.977   3.252   5.259
 7631SOL    HW224791   6.067   3.364   5.308
 7632SOL     OW24792   2.464   4.856   8.543
 7632SOL    HW124793   2.516   4.779   8.568
 7632SOL    HW224794   2.436   4.894   8.627
 7633SOL     OW24795   7.283   5.356  10.532
 7633SOL    HW124796   7.374   5.339  10.556
 7633SOL    HW224797   7.288   5.390  10.443
 7634SOL     OW24798   2.027   0.078   5.363
 7634SOL    HW124799   1.979   0.132   5.426
 7634SOL    HW224800   1.967   0.067   5.290
 7635SOL     OW24801   6.194   8.134  12.797
 7635SOL    HW124802   6.262   8.090  12.848
 7635SOL    HW224803   6.237   8.161  12.716
 7636SOL     OW24804   6.779   3.501   4.552
 7636SOL    HW124805   6.824   3.461   4.627
 7636SOL    HW224806   6.844   3.503   4.482
 7637SOL     OW24807  12.069   1.225  12.646
 7637SOL    HW124808  12.088   1.217  12.739
 7637SOL    HW224809  12.089   1.316  12.625
 7638SOL     OW24810  14.632  11.086   4.619
 7638SOL    HW124811  14.589  11.003   4.638
 7638SOL    HW224812  14.560  11.146   4.600
 7639SOL     OW24813   2.918   7.419  12.301
 7639SOL    HW124814   2.923   7.494  12.360
 7639SOL    HW224815   2.831   7.380  12.318
 7640SOL     OW24816   3.590  12.305  10.498
 7640SOL    HW124817   3.539  12.260  10.566
 7640SOL    HW224818   3.681  12.289  10.521
 7641SOL     OW24819   3.520  10.284   1.844
 7641SOL    HW124820   3.585  10.351   1.866
 7641SOL    HW224821   3.467  10.325   1.775
 7642SOL     OW24822   4.415  10.409   1.151
 7642SOL    HW124823   4.469  10.436   1.076
 7642SOL    HW224824   4.479  10.385   1.218
 7643SOL     OW24825   7.261  10.100  12.367
 7643SOL    HW124826   7.250  10.113  12.272
 7643SOL    HW224827   7.198  10.031  12.389
 7644SOL     OW24828   6.202   4.873   2.206
 7644SOL    HW124829   6.232   4.782   2.199
 7644SOL    HW224830   6.138   4.871   2.277
 7645SOL     OW24831   0.892   8.798   4.138
 7645SOL    HW124832   0.807   8.757   4.157
 7645SOL    HW224833   0.955   8.726   4.146
 7646SOL     OW24834   2.610  12.089   9.270
 7646SOL    HW124835   2.627  12.019   9.333
 7646SOL    HW224836   2.539  12.140   9.310
 7647SOL     OW24837  11.589   6.144  13.073
 7647SOL    HW124838  11.626   6.155  12.986
 7647SOL    HW224839  11.597   6.230  13.115
 7648SOL     OW24840   0.199   0.217   2.055
 7648SOL    HW124841   0.237   0.301   2.029
 7648SOL    HW224842   0.143   0.239   2.130
 7649SOL     OW24843   1.331   1.943  11.624
 7649SOL    HW124844   1.303   2.032  11.645
 7649SOL    HW224845   1.268   1.887  11.670
 7650SOL     OW24846  11.061  14.033   0.301
 7650SOL    HW124847  11.107  14.037   0.385
 7650SOL    HW224848  11.022  13.945   0.299
 7651SOL     OW24849  11.434   7.007   5.012
 7651SOL    HW124850  11.373   7.030   5.082
 7651SOL    HW224851  11.420   6.913   4.998
 7652SOL     OW24852  11.696  12.886   0.432
 7652SOL    HW124853  11.660  12.863   0.347
 7652SOL    HW224854  11.790  12.891   0.418
 7653SOL     OW24855   9.611   9.666   5.869
 7653SOL    HW124856   9.539   9.676   5.932
 7653SOL    HW224857   9.642   9.577   5.883
 7654SOL     OW24858  14.073  13.281  14.532
 7654SOL    HW124859  13.991  13.314  14.495
 7654SOL    HW224860  14.138  13.347  14.509
 7655SOL     OW24861   9.081   3.275  13.361
 7655SOL    HW124862   9.060   3.182  13.367
 7655SOL    HW224863   9.000   3.319  13.389
 7656SOL     OW24864   4.246   2.083   9.100
 7656SOL    HW124865   4.198   2.099   9.019
 7656SOL    HW224866   4.333   2.118   9.083
 7657SOL     OW24867   2.176  12.329  11.569
 7657SOL    HW124868   2.173  12.297  11.478
 7657SOL    HW224869   2.252  12.387  11.571
 7658SOL     OW24870   8.016   3.469  13.868
 7658SOL    HW124871   8.051   3.444  13.783
 7658SOL    HW224872   8.071   3.542  13.896
 7659SOL     OW24873  11.527  14.609   1.241
 7659SOL    HW124874  11.511  14.628   1.334
 7659SOL    HW224875  11.467  14.666   1.194
 7660SOL     OW24876  12.152   3.726  10.884
 7660SOL    HW124877  12.225   3.664  10.886
 7660SOL    HW224878  12.152   3.758  10.794
 7661SOL     OW24879   0.685  10.001   0.876
 7661SOL    HW124880   0.590   9.991   0.873
 7661SOL    HW224881   0.705  10.069   0.812
 7662SOL     OW24882  13.209   7.854   7.476
 7662SOL    HW124883  13.286   7.798   7.477
 7662SOL    HW224884  13.182   7.860   7.567
 7663SOL     OW24885   4.742   1.408  13.049
 7663SOL    HW124886   4.735   1.402  13.144
 7663SOL    HW224887   4.658   1.375  13.017
 7664SOL     OW24888   4.527   0.914  12.941
 7664SOL    HW124889   4.612   0.951  12.919
 7664SOL    HW224890   4.470   0.939  12.868
 7665SOL     OW24891  10.504   8.894  10.168
 7665SOL    HW124892  10.433   8.949  10.202
 7665SOL    HW224893  10.577   8.954  10.154
 7666SOL     OW24894  11.807  10.023  11.529
 7666SOL    HW124895  11.893  10.063  11.540
 7666SOL    HW224896  11.797   9.966  11.606
 7667SOL     OW24897  10.743   2.438   9.403
 7667SOL    HW124898  10.811   2.505   9.412
 7667SOL    HW224899  10.721   2.415   9.493
 7668SOL     OW24900   5.266   5.926   4.068
 7668SOL    HW124901   5.279   6.020   4.074
 7668SOL    HW224902   5.333   5.896   4.007
 7669SOL     OW24903   9.169   6.783   1.528
 7669SOL    HW124904   9.081   6.821   1.536
 7669SOL    HW224905   9.208   6.827   1.452
 7670SOL     OW24906   0.553   1.686  11.478
 7670SOL    HW124907   0.502   1.653  11.405
 7670SOL    HW224908   0.515   1.642  11.555
 7671SOL     OW24909   8.430  14.352  14.284
 7671SOL    HW124910   8.466  14.290  14.347
 7671SOL    HW224911   8.337  14.358  14.306
 7672SOL     OW24912   6.254   3.367   7.574
 7672SOL    HW124913   6.345   3.340   7.588
 7672SOL    HW224914   6.217   3.300   7.517
 7673SOL     OW24915   0.010   3.016   9.410
 7673SOL    HW124916   0.040   2.953   9.476
 7673SOL    HW224917  14.824   3.066   9.455
 7674SOL     OW24918   3.498   6.583   2.614
 7674SOL    HW124919   3.469   6.674   2.623
 7674SOL    HW224920   3.587   6.589   2.579
 7675SOL     OW24921   3.045  12.206   8.311
 7675SOL    HW124922   3.018  12.269   8.378
 7675SOL    HW224923   3.003  12.124   8.336
 7676SOL     OW24924   1.527  11.023   3.974
 7676SOL    HW124925   1.601  11.072   3.938
 7676SOL    HW224926   1.501  10.963   3.905
 7677SOL     OW24927   2.559  13.565  14.397
 7677SOL    HW124928   2.572  13.491  14.456
 7677SOL    HW224929   2.493  13.619  14.440
 7678SOL     OW24930   8.788   3.224   3.912
 7678SOL    HW124931   8.835   3.285   3.969
 7678SOL    HW224932   8.711   3.273   3.883
 7679SOL     OW24933   2.929  11.817   5.624
 7679SOL    HW124934   2.886  11.826   5.709
 7679SOL    HW224935   2.892  11.737   5.587
 7680SOL     OW24936   6.584   5.848  12.691
 7680SOL    HW124937   6.537   5.872  12.771
 7680SOL    HW224938   6.515   5.828  12.628
 7681SOL     OW24939   1.866   0.055  10.056
 7681SOL    HW124940   1.870  14.882   9.979
 7681SOL    HW224941   1.901   0.140  10.027
 7682SOL     OW24942   1.598  14.776  12.757
 7682SOL    HW124943   1.521  14.720  12.747
 7682SOL    HW224944   1.671  14.722  12.726
 7683SOL     OW24945   3.954   3.175   2.849
 7683SOL    HW124946   3.886   3.185   2.914
 7683SOL    HW224947   4.032   3.213   2.889
 7684SOL     OW24948  12.599   7.370  10.122
 7684SOL    HW124949  12.525   7.367  10.062
 7684SOL    HW224950  12.633   7.459  10.114
 7685SOL     OW24951   4.691  13.753  11.952
 7685SOL    HW124952   4.601  13.769  11.983
 7685SOL    HW224953   4.699  13.658  11.950
 7686SOL     OW24954  11.495   5.726   3.492
 7686SOL    HW124955  11.554   5.745   3.565
 7686SOL    HW224956  11.551   5.723   3.415
 7687SOL     OW24957   1.158   9.183   4.057
 7687SOL    HW124958   1.168   9.094   4.024
 7687SOL    HW224959   1.208   9.237   3.995
 7688SOL     OW24960   6.477   0.845   9.638
 7688SOL    HW124961   6.461   0.827   9.730
 7688SOL    HW224962   6.405   0.903   9.612
 7689SOL     OW24963   1.184  10.647   9.744
 7689SOL    HW124964   1.189  10.551   9.743
 7689SOL    HW224965   1.183  10.669   9.837
 7690SOL     OW24966   5.051   2.978   5.060
 7690SOL    HW124967   5.046   3.015   4.971
 7690SOL    HW224968   5.013   2.890   5.052
 7691SOL     OW24969   1.014   1.215   0.899
 7691SOL    HW124970   1.092   1.165   0.924
 7691SOL    HW224971   1.047   1.287   0.846
 7692SOL     OW24972   2.838  13.265   7.790
 7692SOL    HW124973   2.833  13.199   7.860
 7692SOL    HW224974   2.795  13.224   7.715
 7693SOL     OW24975  11.453   5.881   1.646
 7693SOL    HW124976  11.460   5.801   1.595
 7693SOL    HW224977  11.372   5.923   1.614
 7694SOL     OW24978   6.465   8.994  14.622
 7694SOL    HW124979   6.428   8.947  14.696
 7694SOL    HW224980   6.479   8.928  14.555
 7695SOL     OW24981   4.931   1.146   9.960
 7695SOL    HW124982   4.925   1.052   9.941
 7695SOL    HW224983   4.852   1.165  10.010
 7696SOL     OW24984   7.542  14.502   5.508
 7696SOL    HW124985   7.543  14.569   5.576
 7696SOL    HW224986   7.468  14.525   5.452
 7697SOL     OW24987   7.406  12.279   3.852
 7697SOL    HW124988   7.396  12.184   3.856
 7697SOL    HW224989   7.481  12.293   3.794
 7698SOL     OW24990   2.237  12.011  11.147
 7698SOL    HW124991   2.295  11.957  11.201
 7698SOL    HW224992   2.169  11.950  11.116
 7699SOL     OW24993  13.162   7.765  13.265
 7699SOL    HW124994  13.067   7.777  13.256
 7699SOL    HW224995  13.172   7.713  13.345
 7700SOL     OW24996   2.778   4.498  12.291
 7700SOL    HW124997   2.750   4.588  12.271
 7700SOL    HW224998   2.865   4.491  12.252
 7701SOL     OW24999   8.920   0.567   3.273
 7701SOL    HW125000   8.880   0.654   3.266
 7701SOL    HW225001   8.847   0.506   3.268
 7702SOL     OW25002  13.538  10.207   3.667
 7702SOL    HW125003  13.602  10.268   3.704
 7702SOL    HW225004  13.455  10.234   3.706
 7703SOL     OW25005   3.898   6.127  14.748
 7703SOL    HW125006   3.902   6.058  14.814
 7703SOL    HW225007   3.987   6.163  14.745
 7704SOL     OW25008   8.355  13.654   2.533
 7704SOL    HW125009   8.380  13.718   2.600
 7704SOL    HW225010   8.268  13.625   2.559
 7705SOL     OW25011   1.604  13.028   3.654
 7705SOL    HW125012   1.578  12.976   3.730
 7705SOL    HW225013   1.558  12.988   3.580
 7706SOL     OW25014   1.433   5.857   4.730
 7706SOL    HW125015   1.411   5.764   4.722
 7706SOL    HW225016   1.371   5.901   4.672
 7707SOL     OW25017   1.432   1.190   9.871
 7707SOL    HW125018   1.483   1.253   9.922
 7707SOL    HW225019   1.354   1.174   9.923
 7708SOL     OW25020   0.683  13.962   7.378
 7708SOL    HW125021   0.712  13.902   7.446
 7708SOL    HW225022   0.591  13.977   7.397
 7709SOL     OW25023   0.050   0.806   0.668
 7709SOL    HW125024   0.012   0.727   0.707
 7709SOL    HW225025   0.109   0.840   0.736
 7710SOL     OW25026   9.942   2.169   8.956
 7710SOL    HW125027  10.034   2.195   8.960
 7710SOL    HW225028   9.895   2.241   9.000
 7711SOL     OW25029   5.254   2.983  13.632
 7711SOL    HW125030   5.288   3.013  13.716
 7711SOL    HW225031   5.178   2.930  13.655
 7712SOL     OW25032   3.390   0.441   0.280
 7712SOL    HW125033   3.383   0.493   0.200
 7712SOL    HW225034   3.453   0.488   0.335
 7713SOL     OW25035   1.421   1.889   7.420
 7713SOL    HW125036   1.422   1.823   7.489
 7713SOL    HW225037   1.513   1.912   7.408
 7714SOL     OW25038  11.647  12.183   0.853
 7714SOL    HW125039  11.682  12.111   0.801
 7714SOL    HW225040  11.647  12.258   0.793
 7715SOL     OW25041   6.253   0.062   8.541
 7715SOL    HW125042   6.238   0.012   8.461
 7715SOL    HW225043   6.203   0.016   8.608
 7716SOL     OW25044   6.907   3.982  10.059
 7716SOL    HW125045   6.813   3.999  10.057
 7716SOL    HW225046   6.920   3.923  10.133
 7717SOL     OW25047   5.961  12.971   5.223
 7717SOL    HW125048   6.025  12.963   5.294
 7717SOL    HW225049   5.983  12.899   5.163
 7718SOL     OW25050   5.392  12.073  14.140
 7718SOL    HW125051   5.436  12.142  14.191
 7718SOL    HW225052   5.437  11.992  14.167
 7719SOL     OW25053   2.313   5.886   2.863
 7719SOL    HW125054   2.314   5.945   2.938
 7719SOL    HW225055   2.334   5.943   2.788
 7720SOL     OW25056   1.842  14.447  10.803
 7720SOL    HW125057   1.912  14.496  10.847
 7720SOL    HW225058   1.765  14.503  10.811
 7721SOL     OW25059   3.301   1.858   8.499
 7721SOL    HW125060   3.235   1.916   8.537
 7721SOL    HW225061   3.385   1.893   8.531
 7722SOL     OW25062  11.649   5.614  13.729
 7722SOL    HW125063  11.583   5.655  13.672
 7722SOL    HW225064  11.624   5.641  13.817
 7723SOL     OW25065   1.009   6.381  13.162
 7723SOL    HW125066   1.046   6.306  13.115
 7723SOL    HW225067   1.081   6.443  13.169
 7724SOL     OW25068  14.012  12.606   5.741
 7724SOL    HW125069  13.980  12.673   5.801
 7724SOL    HW225070  13.935  12.551   5.723
 7725SOL     OW25071  10.185  14.797   3.996
 7725SOL    HW125072  10.245  14.725   4.017
 7725SOL    HW225073  10.142  14.817   4.080
 7726SOL     OW25074   1.184   8.029   8.971
 7726SOL    HW125075   1.165   8.117   9.005
 7726SOL    HW225076   1.098   7.989   8.958
 7727SOL     OW25077   8.466  14.764   3.437
 7727SOL    HW125078   8.384  14.812   3.427
 7727SOL    HW225079   8.495  14.746   3.348
 7728SOL     OW25080   5.473   8.044   3.565
 7728SOL    HW125081   5.559   8.069   3.534
 7728SOL    HW225082   5.463   7.953   3.539
 7729SOL     OW25083  13.986  14.089   7.454
 7729SOL    HW125084  14.068  14.055   7.417
 7729SOL    HW225085  13.961  14.024   7.520
 7730SOL     OW25086   7.905  10.495   4.856
 7730SOL    HW125087   7.940  10.584   4.850
 7730SOL    HW225088   7.901  10.477   4.950
 7731SOL     OW25089  10.997   7.395   2.255
 7731SOL    HW125090  11.086   7.395   2.289
 7731SOL    HW225091  10.943   7.367   2.329
 7732SOL     OW25092  10.991   7.235   4.650
 7732SOL    HW125093  10.985   7.218   4.743
 7732SOL    HW225094  10.911   7.198   4.613
 7733SOL     OW25095  12.661   0.081  11.468
 7733SOL    HW125096  12.623   0.153  11.518
 7733SOL    HW225097  12.585   0.027  11.443
 7734SOL     OW25098   8.184   2.446   1.658
 7734SOL    HW125099   8.216   2.525   1.702
 7734SOL    HW225100   8.095   2.468   1.632
 7735SOL     OW25101  12.027   5.576   2.208
 7735SOL    HW125102  12.047   5.518   2.135
 7735SOL    HW225103  11.936   5.556   2.232
 7736SOL     OW25104   1.829   4.958   6.484
 7736SOL    HW125105   1.900   4.924   6.430
 7736SOL    HW225106   1.842   4.919   6.570
 7737SOL     OW25107  10.350  11.771   2.879
 7737SOL    HW125108  10.297  11.847   2.856
 7737SOL    HW225109  10.290  11.714   2.927
 7738SOL     OW25110   7.045   4.291  11.991
 7738SOL    HW125111   7.090   4.212  12.019
 7738SOL    HW225112   7.104   4.330  11.926
 7739SOL     OW25113   0.480   6.212   9.828
 7739SOL    HW125114   0.435   6.237   9.747
 7739SOL    HW225115   0.417   6.234   9.897
 7740SOL     OW25116  13.722   2.868   0.179
 7740SOL    HW125117  13.657   2.802   0.204
 7740SOL    HW225118  13.786   2.820   0.126
 7741SOL     OW25119   9.265   4.110  12.706
 7741SOL    HW125120   9.195   4.172  12.685
 7741SOL    HW225121   9.299   4.139  12.790
 7742SOL     OW25122   5.283   7.431   3.996
 7742SOL    HW125123   5.219   7.363   3.977
 7742SOL    HW225124   5.230   7.507   4.020
 7743SOL     OW25125  10.337   4.857  11.588
 7743SOL    HW125126  10.421   4.898  11.610
 7743SOL    HW225127  10.327   4.872  11.494
 7744SOL     OW25128   4.043  11.181   0.002
 7744SOL    HW125129   3.990  11.256  14.860
 7744SOL    HW225130   4.130  11.217   0.018
 7745SOL     OW25131   9.354   0.986   5.597
 7745SOL    HW125132   9.336   0.919   5.662
 7745SOL    HW225133   9.288   1.054   5.613
 7746SOL     OW25134  10.747   8.245   5.824
 7746SOL    HW125135  10.663   8.250   5.870
 7746SOL    HW225136  10.724   8.208   5.738
 7747SOL     OW25137  12.277   3.863   7.063
 7747SOL    HW125138  12.371   3.880   7.062
 7747SOL    HW225139  12.242   3.923   7.129
 7748SOL     OW25140  11.135  10.382   7.012
 7748SOL    HW125141  11.108  10.290   7.001
 7748SOL    HW225142  11.053  10.429   7.026
 7749SOL     OW25143   8.515  13.740   7.061
 7749SOL    HW125144   8.448  13.724   6.994
 7749SOL    HW225145   8.562  13.656   7.067
 7750SOL     OW25146  14.069   9.240   2.024
 7750SOL    HW125147  14.050   9.210   2.112
 7750SOL    HW225148  14.138   9.305   2.035
 7751SOL     OW25149   6.972   6.252   4.561
 7751SOL    HW125150   6.885   6.289   4.572
 7751SOL    HW225151   6.967   6.166   4.603
 7752SOL     OW25152  11.615   1.701   6.100
 7752SOL    HW125153  11.586   1.729   6.013
 7752SOL    HW225154  11.533   1.683   6.147
 7753SOL     OW25155  12.717   9.319   1.180
 7753SOL    HW125156  12.674   9.326   1.266
 7753SOL    HW225157  12.720   9.409   1.147
 7754SOL     OW25158   3.966   2.851  11.565
 7754SOL    HW125159   4.018   2.847  11.485
 7754SOL    HW225160   3.923   2.937  11.561
 7755SOL     OW25161  12.815  12.983   0.616
 7755SOL    HW125162  12.796  12.898   0.655
 7755SOL    HW225163  12.793  12.973   0.523
 7756SOL     OW25164   6.623  10.799   7.147
 7756SOL    HW125165   6.668  10.852   7.212
 7756SOL    HW225166   6.678  10.803   7.069
 7757SOL     OW25167   2.695   0.641  10.495
 7757SOL    HW125168   2.636   0.644  10.570
 7757SOL    HW225169   2.673   0.560  10.450
 7758SOL     OW25170   5.883   8.882   3.521
 7758SOL    HW125171   5.944   8.940   3.568
 7758SOL    HW225172   5.932   8.800   3.511
 7759SOL     OW25173   0.304   9.350  13.160
 7759SOL    HW125174   0.335   9.383  13.075
 7759SOL    HW225175   0.213   9.326  13.144
 7760SOL     OW25176   0.165   7.648   7.667
 7760SOL    HW125177   0.154   7.661   7.573
 7760SOL    HW225178   0.123   7.564   7.685
 7761SOL     OW25179   0.248  10.462   7.063
 7761SOL    HW125180   0.285  10.534   7.114
 7761SOL    HW225181   0.307  10.454   6.988
 7762SOL     OW25182   7.915   9.416   8.255
 7762SOL    HW125183   7.910   9.486   8.320
 7762SOL    HW225184   7.982   9.445   8.194
 7763SOL     OW25185   3.107   1.071  11.417
 7763SOL    HW125186   3.178   1.090  11.355
 7763SOL    HW225187   3.064   1.155  11.432
 7764SOL     OW25188  11.449   9.794   4.518
 7764SOL    HW125189  11.386   9.812   4.587
 7764SOL    HW225190  11.423   9.853   4.447
 7765SOL     OW25191   7.802   0.786  13.237
 7765SOL    HW125192   7.870   0.792  13.170
 7765SOL    HW225193   7.745   0.861  13.220
 7766SOL     OW25194  12.162  11.590  10.729
 7766SOL    HW125195  12.155  11.631  10.816
 7766SOL    HW225196  12.081  11.614  10.685
 7767SOL     OW25197   1.399  10.383   5.635
 7767SOL    HW125198   1.319  10.332   5.648
 7767SOL    HW225199   1.419  10.372   5.541
 7768SOL     OW25200   1.876  11.803  11.984
 7768SOL    HW125201   1.865  11.714  11.950
 7768SOL    HW225202   1.863  11.794  12.079
 7769SOL     OW25203  12.338   4.362   8.840
 7769SOL    HW125204  12.260   4.342   8.891
 7769SOL    HW225205  12.367   4.447   8.871
 7770SOL     OW25206   1.954   8.425   7.285
 7770SOL    HW125207   1.882   8.452   7.343
 7770SOL    HW225208   1.915   8.425   7.197
 7771SOL     OW25209   7.885  13.509   0.892
 7771SOL    HW125210   7.941  13.585   0.909
 7771SOL    HW225211   7.870  13.511   0.798
 7772SOL     OW25212  13.499   9.241  11.999
 7772SOL    HW125213  13.473   9.187  12.074
 7772SOL    HW225214  13.467   9.329  12.021
 7773SOL     OW25215   0.025   0.854   6.289
 7773SOL    HW125216   0.085   0.780   6.278
 7773SOL    HW225217   0.047   0.890   6.375
 7774SOL     OW25218  14.470  13.334  13.117
 7774SOL    HW125219  14.442  13.393  13.187
 7774SOL    HW225220  14.531  13.274  13.160
 7775SOL     OW25221   5.754   8.210   5.403
 7775SOL    HW125222   5.703   8.145   5.451
 7775SOL    HW225223   5.744   8.291   5.454
 7776SOL     OW25224  11.041   4.951  13.135
 7776SOL    HW125225  11.022   4.874  13.188
 7776SOL    HW225226  11.032   5.024  13.196
 7777SOL     OW25227   2.660  13.377   5.654
 7777SOL    HW125228   2.612  13.460   5.658
 7777SOL    HW225229   2.750  13.403   5.634
 7778SOL     OW25230   1.222   0.012   6.807
 7778SOL    HW125231   1.231   0.101   6.773
 7778SOL    HW225232   1.301  14.880   6.859
 7779SOL     OW25233  12.223   6.847   0.217
 7779SOL    HW125234  12.255   6.869   0.304
 7779SOL    HW225235  12.128   6.845   0.226
 7780SOL     OW25236   5.239  11.172  10.774
 7780SOL    HW125237   5.312  11.124  10.811
 7780SOL    HW225238   5.222  11.131  10.689
 7781SOL     OW25239   4.846   4.275   6.770
 7781SOL    HW125240   4.935   4.305   6.752
 7781SOL    HW225241   4.849   4.243   6.860
 7782SOL     OW25242   3.356  14.158   8.157
 7782SOL    HW125243   3.441  14.145   8.116
 7782SOL    HW225244   3.293  14.147   8.086
 7783SOL     OW25245   5.925   7.093   3.897
 7783SOL    HW125246   5.907   7.034   3.824
 7783SOL    HW225247   6.019   7.085   3.913
 7784SOL     OW25248  14.531  12.659   9.006
 7784SOL    HW125249  14.541  12.689   9.096
 7784SOL    HW225250  14.437  12.667   8.988
 7785SOL     OW25251  14.095   6.903   0.126
 7785SOL    HW125252  14.135   6.985   0.156
 7785SOL    HW225253  14.168   6.851   0.093
 7786SOL     OW25254  12.831   2.222   3.649
 7786SOL    HW125255  12.847   2.143   3.700
 7786SOL    HW225256  12.737   2.235   3.655
 7787SOL     OW25257   8.772   7.248   7.123
 7787SOL    HW125258   8.678   7.263   7.127
 7787SOL    HW225259   8.781   7.154   7.108
 7788SOL     OW25260   6.904   1.671   1.185
 7788SOL    HW125261   6.939   1.706   1.103
 7788SOL    HW225262   6.919   1.740   1.250
 7789SOL     OW25263   0.542   9.268  12.639
 7789SOL    HW125264   0.633   9.276  12.668
 7789SOL    HW225265   0.493   9.248  12.719
 7790SOL     OW25266   3.749   6.100   6.135
 7790SOL    HW125267   3.724   6.176   6.188
 7790SOL    HW225268   3.709   6.116   6.050
 7791SOL     OW25269   3.886   0.675   3.726
 7791SOL    HW125270   3.912   0.593   3.685
 7791SOL    HW225271   3.925   0.743   3.671
 7792SOL     OW25272   2.471   3.933   0.836
 7792SOL    HW125273   2.391   3.897   0.875
 7792SOL    HW225274   2.536   3.929   0.906
 7793SOL     OW25275   1.589   4.659   8.706
 7793SOL    HW125276   1.568   4.590   8.643
 7793SOL    HW225277   1.594   4.739   8.653
 7794SOL     OW25278  12.630  10.043   2.728
 7794SOL    HW125279  12.549  10.091   2.712
 7794SOL    HW225280  12.699  10.107   2.713
 7795SOL     OW25281   0.260  14.087   1.296
 7795SOL    HW125282   0.188  14.031   1.325
 7795SOL    HW225283   0.300  14.118   1.377
 7796SOL     OW25284   1.586  13.077   4.885
 7796SOL    HW125285   1.546  13.030   4.812
 7796SOL    HW225286   1.680  13.067   4.871
 7797SOL     OW25287  13.403  10.573   9.087
 7797SOL    HW125288  13.488  10.618   9.089
 7797SOL    HW225289  13.400  10.524   9.169
 7798SOL     OW25290  12.723  13.723  14.385
 7798SOL    HW125291  12.808  13.715  14.342
 7798SOL    HW225292  12.659  13.709  14.316
 7799SOL     OW25293   2.592   4.328   7.975
 7799SOL    HW125294   2.510   4.372   7.996
 7799SOL    HW225295   2.580   4.238   8.006
 7800SOL     OW25296   3.652  13.000   6.817
 7800SOL    HW125297   3.586  12.974   6.881
 7800SOL    HW225298   3.694  13.077   6.857
 7801SOL     OW25299   5.278   9.813   9.294
 7801SOL    HW125300   5.327   9.888   9.327
 7801SOL    HW225301   5.187   9.844   9.291
 7802SOL     OW25302   4.633   0.512  11.650
 7802SOL    HW125303   4.564   0.574  11.629
 7802SOL    HW225304   4.678   0.551  11.725
 7803SOL     OW25305   3.928   0.412   9.817
 7803SOL    HW125306   4.002   0.464   9.787
 7803SOL    HW225307   3.964   0.325   9.833
 7804SOL     OW25308   3.920   4.906  12.566
 7804SOL    HW125309   4.005   4.871  12.542
 7804SOL    HW225310   3.920   4.907  12.662
 7805SOL     OW25311   4.548   2.359   1.778
 7805SOL    HW125312   4.556   2.446   1.740
 7805SOL    HW225313   4.634   2.319   1.765
 7806SOL     OW25314   7.946   0.179   7.794
 7806SOL    HW125315   7.963   0.138   7.709
 7806SOL    HW225316   7.928   0.270   7.772
 7807SOL     OW25317   2.917  13.639  10.734
 7807SOL    HW125318   3.004  13.607  10.711
 7807SOL    HW225319   2.911  13.626  10.829
 7808SOL     OW25320  11.870   5.754   0.781
 7808SOL    HW125321  11.832   5.739   0.868
 7808SOL    HW225322  11.797   5.745   0.721
 7809SOL     OW25323   3.651   8.374  13.163
 7809SOL    HW125324   3.723   8.343  13.218
 7809SOL    HW225325   3.595   8.424  13.222
 7810SOL     OW25326   9.569   1.685   4.595
 7810SOL    HW125327   9.546   1.711   4.684
 7810SOL    HW225328   9.663   1.666   4.599
 7811SOL     OW25329   6.035   7.065   9.881
 7811SOL    HW125330   6.032   7.137   9.944
 7811SOL    HW225331   6.127   7.059   9.856
 7812SOL     OW25332   4.971   9.922   0.447
 7812SOL    HW125333   4.948   9.829   0.451
 7812SOL    HW225334   5.060   9.924   0.411
 7813SOL     OW25335   0.140   8.586   4.535
 7813SOL    HW125336   0.074   8.584   4.605
 7813SOL    HW225337   0.109   8.652   4.474
 7814SOL     OW25338   3.109   3.477  12.804
 7814SOL    HW125339   3.030   3.520  12.836
 7814SOL    HW225340   3.175   3.492  12.872
 7815SOL     OW25341   3.671  11.570   7.987
 7815SOL    HW125342   3.585  11.540   7.959
 7815SOL    HW225343   3.656  11.660   8.016
 7816SOL     OW25344   3.134   4.587   2.044
 7816SOL    HW125345   3.189   4.608   2.119
 7816SOL    HW225346   3.172   4.506   2.009
 7817SOL     OW25347   8.829   4.795   0.249
 7817SOL    HW125348   8.839   4.826   0.159
 7817SOL    HW225349   8.917   4.800   0.286
 7818SOL     OW25350  10.385  11.612  12.727
 7818SOL    HW125351  10.476  11.637  12.713
 7818SOL    HW225352  10.346  11.686  12.774
 7819SOL     OW25353   3.416  10.779   1.846
 7819SOL    HW125354   3.499  10.734   1.856
 7819SOL    HW225355   3.355  10.728   1.900
 7820SOL     OW25356  14.679   3.878   2.091
 7820SOL    HW125357  14.589   3.844   2.085
 7820SOL    HW225358  14.703   3.865   2.183
 7821SOL     OW25359   7.775  10.750   1.767
 7821SOL    HW125360   7.756  10.843   1.766
 7821SOL    HW225361   7.848  10.739   1.705
 7822SOL     OW25362   3.487  11.514   7.134
 7822SOL    HW125363   3.547  11.455   7.089
 7822SOL    HW225364   3.440  11.457   7.196
 7823SOL     OW25365   9.175   7.711   8.858
 7823SOL    HW125366   9.259   7.693   8.814
 7823SOL    HW225367   9.174   7.807   8.868
 7824SOL     OW25368   0.990  14.212  12.114
 7824SOL    HW125369   1.078  14.244  12.134
 7824SOL    HW225370   1.004  14.126  12.075
 7825SOL     OW25371   8.638   8.256   0.802
 7825SOL    HW125372   8.674   8.344   0.791
 7825SOL    HW225373   8.680   8.205   0.733
 7826SOL     OW25374   9.896   0.435  10.017
 7826SOL    HW125375   9.902   0.512  10.074
 7826SOL    HW225376   9.802   0.429   9.997
 7827SOL     OW25377  14.849  12.718  11.239
 7827SOL    HW125378   0.039  12.772  11.206
 7827SOL    HW225379   0.007  12.660  11.303
 7828SOL     OW25380   9.293   8.125   1.055
 7828SOL    HW125381   9.284   8.031   1.041
 7828SOL    HW225382   9.370   8.134   1.111
 7829SOL     OW25383   8.769   8.574   4.208
 7829SOL    HW125384   8.742   8.659   4.175
 7829SOL    HW225385   8.837   8.593   4.272
 7830SOL     OW25386  14.848  10.364   1.545
 7830SOL    HW125387  14.852  10.284   1.598
 7830SOL    HW225388  14.854  10.333   1.455
 7831SOL     OW25389   1.740   6.842  12.673
 7831SOL    HW125390   1.741   6.933  12.646
 7831SOL    HW225391   1.661   6.834  12.728
 7832SOL     OW25392  14.190  12.400   6.017
 7832SOL    HW125393  14.104  12.423   5.982
 7832SOL    HW225394  14.244  12.477   6.002
 7833SOL     OW25395   8.481   1.015   9.503
 7833SOL    HW125396   8.505   0.933   9.547
 7833SOL    HW225397   8.388   1.003   9.481
 7834SOL     OW25398  11.395   1.881   0.537
 7834SOL    HW125399  11.364   1.969   0.515
 7834SOL    HW225400  11.340   1.822   0.485
 7835SOL     OW25401   4.219   6.762  14.103
 7835SOL    HW125402   4.267   6.692  14.148
 7835SOL    HW225403   4.247   6.842  14.147
 7836SOL     OW25404   2.017   9.091   2.088
 7836SOL    HW125405   1.971   9.008   2.101
 7836SOL    HW225406   1.964   9.138   2.024
 7837SOL     OW25407  11.264   0.415   3.326
 7837SOL    HW125408  11.356   0.443   3.332
 7837SOL    HW225409  11.243   0.381   3.413
 7838SOL     OW25410   3.507   2.773  10.564
 7838SOL    HW125411   3.456   2.735  10.636
 7838SOL    HW225412   3.466   2.738  10.485
 7839SOL     OW25413  13.322   0.698   6.968
 7839SOL    HW125414  13.287   0.659   6.888
 7839SOL    HW225415  13.331   0.624   7.028
 7840SOL     OW25416   0.381   4.448   5.564
 7840SOL    HW125417   0.344   4.487   5.485
 7840SOL    HW225418   0.343   4.360   5.567
 7841SOL     OW25419  11.266   9.014  10.820
 7841SOL    HW125420  11.182   9.045  10.788
 7841SOL    HW225421  11.317   8.995  10.741
 7842SOL     OW25422   6.339  14.501   5.682
 7842SOL    HW125423   6.404  14.461   5.740
 7842SOL    HW225424   6.305  14.575   5.732
 7843SOL     OW25425   8.727   6.465   6.613
 7843SOL    HW125426   8.683   6.534   6.564
 7843SOL    HW225427   8.755   6.507   6.694
 7844SOL     OW25428  12.722   0.062   8.901
 7844SOL    HW125429  12.676   0.145   8.910
 7844SOL    HW225430  12.653  14.878   8.903
 7845SOL     OW25431   7.155  12.779  14.829
 7845SOL    HW125432   7.237  12.795  14.782
 7845SOL    HW225433   7.169  12.816   0.034
 7846SOL     OW25434  13.023  13.668   3.944
 7846SOL    HW125435  13.108  13.672   3.900
 7846SOL    HW225436  12.968  13.730   3.896
 7847SOL     OW25437  13.599   6.431   1.260
 7847SOL    HW125438  13.511   6.465   1.278
 7847SOL    HW225439  13.609   6.358   1.322
 7848SOL     OW25440   7.004   7.328  11.278
 7848SOL    HW125441   7.090   7.292  11.255
 7848SOL    HW225442   7.023   7.415  11.313
 7849SOL     OW25443   5.689   2.454   4.614
 7849SOL    HW125444   5.768   2.399   4.607
 7849SOL    HW225445   5.700   2.519   4.545
 7850SOL     OW25446   5.961  12.392  13.637
 7850SOL    HW125447   5.943  12.406  13.544
 7850SOL    HW225448   5.887  12.434  13.682
 7851SOL     OW25449   9.743   0.948   1.326
 7851SOL    HW125450   9.816   1.007   1.347
 7851SOL    HW225451   9.680   1.004   1.281
 7852SOL     OW25452   9.560   2.538   5.298
 7852SOL    HW125453   9.481   2.576   5.335
 7852SOL    HW225454   9.572   2.455   5.344
 7853SOL     OW25455   1.477   7.769   7.978
 7853SOL    HW125456   1.497   7.799   7.889
 7853SOL    HW225457   1.477   7.673   7.971
 7854SOL     OW25458   6.051  13.232  14.452
 7854SOL    HW125459   6.113  13.159  14.451
 7854SOL    HW225460   6.101  13.307  14.421
 7855SOL     OW25461   5.078   0.203   4.341
 7855SOL    HW125462   5.042   0.121   4.374
 7855SOL    HW225463   5.145   0.227   4.405
 7856SOL     OW25464  12.388  13.742   2.017
 7856SOL    HW125465  12.469  13.759   2.066
 7856SOL    HW225466  12.322  13.797   2.059
 7857SOL     OW25467  10.396   5.193   6.020
 7857SOL    HW125468  10.433   5.149   6.096
 7857SOL    HW225469  10.465   5.253   5.991
 7858SOL     OW25470  11.093   9.790   6.990
 7858SOL    HW125471  11.091   9.744   6.906
 7858SOL    HW225472  11.159   9.744   7.041
 7859SOL     OW25473   2.848   6.538   5.813
 7859SOL    HW125474   2.836   6.631   5.791
 7859SOL    HW225475   2.934   6.516   5.775
 7860SOL     OW25476  14.081  14.333   7.509
 7860SOL    HW125477  14.161  14.341   7.562
 7860SOL    HW225478  14.059  14.240   7.513
 7861SOL     OW25479   8.595   0.881  10.619
 7861SOL    HW125480   8.661   0.814  10.637
 7861SOL    HW225481   8.626   0.959  10.664
 7862SOL     OW25482   2.321   5.625   4.397
 7862SOL    HW125483   2.315   5.720   4.411
 7862SOL    HW225484   2.344   5.590   4.483
 7863SOL     OW25485   0.135   6.397   3.369
 7863SOL    HW125486   0.114   6.479   3.323
 7863SOL    HW225487   0.056   6.344   3.358
 7864SOL     OW25488   6.195   2.935   8.677
 7864SOL    HW125489   6.194   3.031   8.676
 7864SOL    HW225490   6.239   2.913   8.759
 7865SOL     OW25491   9.150  13.889   0.076
 7865SOL    HW125492   9.172  13.967   0.026
 7865SOL    HW225493   9.055  13.889   0.081
 7866SOL     OW25494   6.668   2.530  14.491
 7866SOL    HW125495   6.632   2.615  14.519
 7866SOL    HW225496   6.622   2.510  14.409
 7867SOL     OW25497   1.410   9.985   6.615
 7867SOL    HW125498   1.445   9.897   6.598
 7867SOL    HW225499   1.475  10.044   6.577
 7868SOL     OW25500   8.599   8.235  14.611
 7868SOL    HW125501   8.589   8.236  14.516
 7868SOL    HW225502   8.546   8.310  14.641
 7869SOL     OW25503   6.708  11.472   1.163
 7869SOL    HW125504   6.694  11.454   1.070
 7869SOL    HW225505   6.656  11.550   1.181
 7870SOL     OW25506   6.046   3.739  14.217
 7870SOL    HW125507   6.076   3.648  14.215
 7870SOL    HW225508   6.028   3.756  14.309
 7871SOL     OW25509   0.470  13.400   7.532
 7871SOL    HW125510   0.450  13.428   7.621
 7871SOL    HW225511   0.498  13.480   7.487
 7872SOL     OW25512  11.012   9.129   0.669
 7872SOL    HW125513  11.083   9.147   0.730
 7872SOL    HW225514  10.934   9.167   0.712
 7873SOL     OW25515  10.096  10.586   8.931
 7873SOL    HW125516  10.074  10.579   9.023
 7873SOL    HW225517  10.064  10.504   8.892
 7874SOL     OW25518   2.618   6.593   8.117
 7874SOL    HW125519   2.561   6.552   8.182
 7874SOL    HW225520   2.673   6.522   8.085
 7875SOL     OW25521  14.069  12.691  13.990
 7875SOL    HW125522  13.979  12.719  13.973
 7875SOL    HW225523  14.123  12.761  13.953
 7876SOL     OW25524  10.055   8.337  11.395
 7876SOL    HW125525  10.116   8.341  11.322
 7876SOL    HW225526   9.992   8.407  11.377
 7877SOL     OW25527   0.274  11.523   8.142
 7877SOL    HW125528   0.257  11.444   8.091
 7877SOL    HW225529   0.216  11.589   8.104
 7878SOL     OW25530   5.308   9.234  11.993
 7878SOL    HW125531   5.267   9.155  11.957
 7878SOL    HW225532   5.396   9.234  11.955
 7879SOL     OW25533  13.128  13.501  11.384
 7879SOL    HW125534  13.175  13.434  11.335
 7879SOL    HW225535  13.159  13.491  11.474
 7880SOL     OW25536  10.573   1.076   7.257
 7880SOL    HW125537  10.598   0.983   7.254
 7880SOL    HW225538  10.634   1.119   7.196
 7881SOL     OW25539   7.534   6.113   8.326
 7881SOL    HW125540   7.492   6.185   8.280
 7881SOL    HW225541   7.536   6.042   8.261
 7882SOL     OW25542  10.750  13.169   7.472
 7882SOL    HW125543  10.761  13.081   7.509
 7882SOL    HW225544  10.839  13.199   7.454
 7883SOL     OW25545   7.275  10.144  10.430
 7883SOL    HW125546   7.370  10.141  10.440
 7883SOL    HW225547   7.241  10.102  10.509
 7884SOL     OW25548   8.233   3.620   8.535
 7884SOL    HW125549   8.256   3.645   8.445
 7884SOL    HW225550   8.242   3.525   8.537
 7885SOL     OW25551   9.980   9.017   0.031
 7885SOL    HW125552   9.893   9.041  14.882
 7885SOL    HW225553  10.036   9.091   0.005
 7886SOL     OW25554   0.441   2.782   9.587
 7886SOL    HW125555   0.453   2.877   9.585
 7886SOL    HW225556   0.492   2.750   9.512
 7887SOL     OW25557   7.111   3.150  12.557
 7887SOL    HW125558   7.116   3.234  12.513
 7887SOL    HW225559   7.201   3.128  12.580
 7888SOL     OW25560   9.739   9.477   1.011
 7888SOL    HW125561   9.815   9.430   1.046
 7888SOL    HW225562   9.689   9.410   0.964
 7889SOL     OW25563   1.924   2.649  10.998
 7889SOL    HW125564   1.909   2.688  11.085
 7889SOL    HW225565   1.842   2.605  10.977
 7890SOL     OW25566  14.665   0.536  12.994
 7890SOL    HW125567  14.742   0.481  12.983
 7890SOL    HW225568  14.693   0.624  12.970
 7891SOL     OW25569   5.642   5.545   1.078
 7891SOL    HW125570   5.604   5.505   1.001
 7891SOL    HW225571   5.733   5.515   1.078
 7892SOL     OW25572   2.782  12.993   4.645
 7892SOL    HW125573   2.871  12.956   4.646
 7892SOL    HW225574   2.781  13.050   4.568
 7893SOL     OW25575   7.475  11.356  11.796
 7893SOL    HW125576   7.439  11.440  11.822
 7893SOL    HW225577   7.421  11.291  11.840
 7894SOL     OW25578   2.218  11.423   2.745
 7894SOL    HW125579   2.247  11.370   2.819
 7894SOL    HW225580   2.173  11.362   2.686
 7895SOL     OW25581   7.335   8.016   7.158
 7895SOL    HW125582   7.424   8.012   7.123
 7895SOL    HW225583   7.293   8.085   7.106
 7896SOL     OW25584   2.153   6.219  12.321
 7896SOL    HW125585   2.155   6.272  12.241
 7896SOL    HW225586   2.225   6.253  12.374
 7897SOL     OW25587  14.297   4.515  14.880
 7897SOL    HW125588  14.308   4.460  14.802
 7897SOL    HW225589  14.232   4.470   0.051
 7898SOL     OW25590   5.964   2.911  13.692
 7898SOL    HW125591   5.961   2.960  13.610
 7898SOL    HW225592   6.055   2.881  13.698
 7899SOL     OW25593  14.379   4.143   9.930
 7899SOL    HW125594  14.415   4.193   9.857
 7899SOL    HW225595  14.446   4.078   9.950
 7900SOL     OW25596   3.933   5.613  13.934
 7900SOL    HW125597   3.950   5.597  14.027
 7900SOL    HW225598   3.900   5.529  13.902
 7901SOL     OW25599   5.949   6.599   3.372
 7901SOL    HW125600   6.008   6.543   3.422
 7901SOL    HW225601   5.885   6.539   3.334
 7902SOL     OW25602  12.872  11.986  12.013
 7902SOL    HW125603  12.902  11.955  12.098
 7902SOL    HW225604  12.791  12.034  12.032
 7903SOL     OW25605   5.586  11.148   2.851
 7903SOL    HW125606   5.491  11.157   2.852
 7903SOL    HW225607   5.615  11.204   2.779
 7904SOL     OW25608  11.890  13.700   5.795
 7904SOL    HW125609  11.797  13.680   5.784
 7904SOL    HW225610  11.935  13.620   5.769
 7905SOL     OW25611   1.679   0.780   6.584
 7905SOL    HW125612   1.689   0.735   6.667
 7905SOL    HW225613   1.767   0.809   6.562
 7906SOL     OW25614  14.685   9.691   5.799
 7906SOL    HW125615  14.626   9.618   5.818
 7906SOL    HW225616  14.632   9.752   5.748
 7907SOL     OW25617  10.061   3.324   2.684
 7907SOL    HW125618  10.031   3.341   2.594
 7907SOL    HW225619   9.981   3.299   2.731
 7908SOL     OW25620   7.527   1.777  11.062
 7908SOL    HW125621   7.463   1.707  11.076
 7908SOL    HW225622   7.525   1.827  11.144
 7909SOL     OW25623   6.602   0.547   9.958
 7909SOL    HW125624   6.595   0.642   9.948
 7909SOL    HW225625   6.584   0.531  10.051
 7910SOL     OW25626   1.463  10.008  11.306
 7910SOL    HW125627   1.505   9.933  11.348
 7910SOL    HW225628   1.475   9.994  11.213
 7911SOL     OW25629  11.063   0.747  11.332
 7911SOL    HW125630  11.059   0.843  11.322
 7911SOL    HW225631  11.007   0.728  11.407
 7912SOL     OW25632  11.714   0.473   9.518
 7912SOL    HW125633  11.713   0.508   9.607
 7912SOL    HW225634  11.656   0.531   9.469
 7913SOL     OW25635   2.585  11.584  10.468
 7913SOL    HW125636   2.502  11.550  10.437
 7913SOL    HW225637   2.622  11.513  10.521
 7914SOL     OW25638   8.462   9.864   8.627
 7914SOL    HW125639   8.429   9.948   8.660
 7914SOL    HW225640   8.548   9.886   8.590
 7915SOL     OW25641   0.409   9.513   9.714
 7915SOL    HW125642   0.428   9.566   9.792
 7915SOL    HW225643   0.445   9.564   9.641
 7916SOL     OW25644  13.194   0.832   3.733
 7916SOL    HW125645  13.171   0.924   3.750
 7916SOL    HW225646  13.240   0.804   3.812
 7917SOL     OW25647   4.227   6.646   4.914
 7917SOL    HW125648   4.169   6.630   4.989
 7917SOL    HW225649   4.225   6.563   4.865
 7918SOL     OW25650   8.402   7.715   4.824
 7918SOL    HW125651   8.322   7.683   4.783
 7918SOL    HW225652   8.382   7.804   4.851
 7919SOL     OW25653   1.307  12.855   5.920
 7919SOL    HW125654   1.341  12.806   5.994
 7919SOL    HW225655   1.339  12.945   5.934
 7920SOL     OW25656   3.254   5.941   6.614
 7920SOL    HW125657   3.261   5.950   6.519
 7920SOL    HW225658   3.261   6.031   6.646
 7921SOL     OW25659   6.437  13.093   3.672
 7921SOL    HW125660   6.441  13.171   3.728
 7921SOL    HW225661   6.509  13.104   3.610
 7922SOL     OW25662  13.735   1.144   6.810
 7922SOL    HW125663  13.695   1.165   6.726
 7922SOL    HW225664  13.728   1.224   6.861
 7923SOL     OW25665   3.206   8.209   8.047
 7923SOL    HW125666   3.184   8.220   7.955
 7923SOL    HW225667   3.285   8.260   8.060
 7924NA      NA25668   7.155   5.234  10.680
 7925NA      NA25669   7.714   8.777  10.828
 7926NA      NA25670   1.922   3.987  11.429
 7927NA      NA25671   3.296   2.073   4.776
 7928NA      NA25672   8.173   9.814  13.750
 7929NA      NA25673   8.718   9.185  11.322
 7930NA      NA25674   8.304   7.279   0.371
 7931NA      NA25675   7.454  10.263  12.373
 7932NA      NA25676   7.919   2.389   3.897
 7933NA      NA25677   9.203   7.981  12.168
 7934NA      NA25678   8.589   9.723  14.307
 7935NA      NA25679  10.933  10.400  12.898
 7936NA      NA25680  10.710   9.409  13.428
 7937NA      NA25681   9.725  12.417   5.899
 7938NA      NA25682   6.515   8.275  11.679
 7939NA      NA25683   8.853   9.350   9.233
 7940NA      NA25684   6.094   5.977   7.333
 7941NA      NA25685   2.835   8.729  11.247
 7942NA      NA25686   5.388   4.671   4.787
 7943NA      NA25687   9.107   8.587  13.479
 7944NA      NA25688   5.717   7.915   8.498
 7945NA      NA25689  14.501  13.608   4.872
 7946NA      NA25690   7.544   8.014   9.353
 7947NA      NA25691   6.253   8.902   9.797
 7948NA      NA25692   5.825   7.686  11.173
 7949NA      NA25693   5.227   9.070   6.787
 7950NA      NA25694   5.602   6.077   8.843
 7951NA      NA25695  14.853   7.326   1.691
 7952NA      NA25696   6.576   8.021  10.027
 7953NA      NA25697   6.041   8.788   6.829
 7954NA      NA25698   6.189   2.889   1.601
 7955NA      NA25699   7.734   6.638  13.831
 7956NA      NA25700   6.693   9.013   8.663
 7957NA      NA25701   5.808   5.695  13.677
 7958NA      NA25702   7.219  12.020   0.884
 7959NA      NA25703   5.309  14.601  11.984
 7960NA      NA25704   8.389   7.510  11.974
 7961NA      NA25705   8.298   7.126  10.502
 7962NA      NA25706  13.621  14.502   7.652
 7963NA      NA25707   6.719   7.379   8.023
 7964NA      NA25708  12.447   1.289   3.470
 7965NA      NA25709   5.331   8.485   7.850
 7966NA      NA25710  12.809   4.891   2.379
 7967NA      NA25711   7.884   7.228  13.914
 7968NA      NA25712   9.385  10.978   2.715
 7969NA      NA25713   5.314   8.910   3.527
 7970NA      NA25714   6.149   7.939   6.744
 7971NA      NA25715   9.802   9.384  12.898
 7972NA      NA25716  10.070   4.121  11.786
 7973NA      NA25717   3.515   0.034   6.980
 7974NA      NA25718   6.915   8.969   9.175
 7975NA      NA25719   7.171   6.638   6.892
 7976NA      NA25720   7.018   8.072   6.313
 7977NA      NA25721   5.987   6.445   5.892
 7978NA      NA25722  10.289   8.118   0.124
 7979NA      NA25723   5.622   7.174   7.770
 7980NA      NA25724   7.515   8.705   9.947
 7981NA      NA25725   0.774   3.363   8.047
 7982NA      NA25726   8.060   8.162  11.977
 7983NA      NA25727   8.316   8.523  13.548
 7984NA      NA25728   9.607  10.638   4.192
 7985NA      NA25729  10.235  11.576   1.444
 7986NA      NA25730   2.201   5.657   2.844
 7987NA      NA25731   4.509   7.528   7.214
  14.88223  14.88223  14.88223
